cancer0
299725
    1DOPC   NC3    1   2.494  10.942  15.216  0.0952  0.0543 -0.0907
    1DOPC   PO4    2   2.378  11.329  15.185  0.1210 -0.0699  0.0363
    1DOPC   GL1    3   2.339  11.133  14.849  0.1602  0.1307  0.2845
    1DOPC   GL2    4   2.557  11.032  14.696  0.1516  0.2062  0.1887
    1DOPC   C1A    5   2.045  11.095  14.500  0.0602 -0.0804 -0.3983
    1DOPC   D2A    6   1.823  10.840  14.171  0.1012 -0.1636 -0.2056
    1DOPC   C3A    7   1.620  10.493  13.918 -0.0715  0.0488  0.0406
    1DOPC   C4A    8   1.693  10.304  13.554  0.0658  0.0090  0.0749
    1DOPC   C1B    9   2.424  10.855  14.329 -0.2964 -0.1878  0.0782
    1DOPC   D2B   10   2.226  11.156  13.980 -0.1529  0.1075 -0.0025
    1DOPC   C3B   11   1.786  11.297  14.057  0.2048  0.1494  0.1663
    1DOPC   C4B   12   1.400  11.462  13.932  0.0816 -0.0960 -0.4100
    2DOPC   NC3   13  10.632   4.751  17.074  0.1199  0.0771 -0.0016
    2DOPC   PO4   14  10.924   4.744  16.870  0.2050  0.0949 -0.2315
    2DOPC   GL1   15  10.732   4.396  16.616  0.0103  0.3631  0.0701
    2DOPC   GL2   16  10.442   4.416  16.642 -0.1077 -0.1947 -0.1382
    2DOPC   C1A   17  10.639   4.137  16.257  0.3853 -0.1343  0.3666
    2DOPC   D2A   18  10.397   3.773  16.112  0.1210  0.0356 -0.0527
    2DOPC   C3A   19  10.356   3.782  15.649  0.0642 -0.1983 -0.1389
    2DOPC   C4A   20   9.967   3.724  15.387  0.2042  0.2095  0.2136
    2DOPC   C1B   21  10.495   4.654  16.256  0.0243  0.2343  0.0771
    2DOPC   D2B   22  10.671   5.002  16.108 -0.1354 -0.2176 -0.3097
    2DOPC   C3B   23  11.109   4.956  15.895 -0.0777 -0.1910 -0.2771
    2DOPC   C4B   24  11.514   4.754  15.736  0.0327 -0.0490 -0.2102
    3DOPE   NH3   25   9.604   9.488  16.036 -0.1024 -0.2750  0.1787
    3DOPE   PO4   26   9.428   9.271  15.891  0.0592 -0.1656 -0.2701
    3DOPE   GL1   27   9.261   9.340  15.560 -0.1345 -0.1414 -0.4117
    3DOPE   GL2   28   9.051   9.524  15.421  0.0838 -0.0312 -0.0507
    3DOPE   C1A   29   9.070   9.072  15.281 -0.3449 -0.2116 -0.1734
    3DOPE   D2A   30   9.132   8.697  14.962 -0.0597  0.0408  0.0496
    3DOPE   C3A   31   9.052   8.245  14.994 -0.2407 -0.3265 -0.1385
    3DOPE   C4A   32   8.926   7.869  15.091  0.0734  0.2449 -0.2789
    3DOPE   C1B   33   8.980   9.594  14.980  0.2472 -0.0770  0.1352
    3DOPE   D2B   34   8.721   9.666  14.588  0.0346  0.0018 -0.0188
    3DOPE   C3B   35   8.230   9.519  14.604 -0.2234 -0.2528 -0.3147
    3DOPE   C4B   36   7.938   9.226  14.470  0.1334  0.0921  0.0048
    4DOPE   NH3   37   0.159  11.611  14.644  0.2006  0.1774 -0.0123
    4DOPE   PO4   38  -0.091  11.629  14.479 -0.1630  0.1037  0.1541
    4DOPE   GL1   39   0.024  11.407  14.090  0.3002 -0.0926 -0.3312
    4DOPE   GL2   40   0.257  11.291  14.215 -0.3047  0.1801  0.0624
    4DOPE   C1A   41   0.115  11.565  13.652  0.0423  0.0457  0.0060
    4DOPE   D2A   42   0.440  11.726  13.363 -0.0200  0.1686  0.0478
    4DOPE   C3A   43   0.697  11.596  12.981  0.1855 -0.1637 -0.2226
    4DOPE   C4A   44   0.821  11.524  12.487  0.1944  0.0803 -0.1160
    4DOPE   C1B   45   0.134  11.004  13.868  0.2285  0.0073  0.0549
    4DOPE   D2B   46  -0.082  11.013  13.449 -0.0671 -0.3910  0.0628
    4DOPE   C3B   47  -0.268  11.406  13.401 -0.0568 -0.4895 -0.0254
    4DOPE   C4B   48  -0.488  11.710  13.696  0.0566 -0.2506 -0.0825
    5DOPC   NC3   49   8.220  10.592  15.512 -0.2111 -0.0880  0.1063
    5DOPC   PO4   50   8.456  10.645  15.167  0.0969 -0.0884 -0.0545
    5DOPC   GL1   51   8.464  10.669  14.733 -0.2239 -0.0926  0.1744
    5DOPC   GL2   52   8.735  10.689  14.604 -0.3264 -0.0943  0.0575
    5DOPC   C1A   53   8.398  10.408  14.390 -0.0822 -0.0310  0.4050
    5DOPC   D2A   54   8.420  10.398  13.978  0.3171  0.0747  0.1697
    5DOPC   C3A   55   8.521  10.265  13.560 -0.4877  0.0871 -0.0540
    5DOPC   C4A   56   8.547  10.544  13.173  0.2445 -0.2344 -0.1737
    5DOPC   C1B   57   8.843  10.239  14.511  0.1111  0.1104 -0.0159
    5DOPC   D2B   58   9.109  10.087  14.225 -0.4281  0.0471  0.0234
    5DOPC   C3B   59   9.392  10.319  14.063 -0.0096 -0.2296  0.0091
    5DOPC   C4B   60   9.429  10.668  13.747 -0.1846 -0.1071  0.0087
    6DOPC   NC3   61   8.851   8.922  16.246  0.0443  0.0906  0.0126
    6DOPC   PO4   62   8.605   9.223  16.374  0.0071 -0.2998 -0.1195
    6DOPC   GL1   63   8.494   9.200  15.919  0.4234 -0.3996 -0.1332
    6DOPC   GL2   64   8.347   8.985  15.910  0.0363 -0.2272 -0.1242
    6DOPC   C1A   65   8.655   9.312  15.527 -0.0135  0.0784  0.3061
    6DOPC   D2A   66   8.522   9.468  15.123 -0.2473 -0.0011  0.1554
    6DOPC   C3A   67   8.578   9.183  14.763  0.0317 -0.0104  0.1781
    6DOPC   C4A   68   8.447   8.916  14.402 -0.1953  0.0258 -0.0979
    6DOPC   C1B   69   8.410   8.792  15.489  0.0762 -0.0881 -0.0807
    6DOPC   D2B   70   8.632   8.873  15.112  0.0611  0.1470  0.2067
    6DOPC   C3B   71   8.667   8.604  14.744 -0.1814  0.3421  0.0589
    6DOPC   C4B   72   8.581   8.172  14.667  0.1936  0.0100 -0.0394
    7POSM   NC3   73   1.836   4.622  17.246 -0.0690 -0.0650 -0.1052
    7POSM   PO4   74   2.002   4.934  17.076  0.0725 -0.3042  0.0047
    7POSM   AM1   75   2.047   5.029  16.731  0.0608  0.2410  0.2354
    7POSM   AM2   76   2.160   5.207  16.523 -0.0223  0.1660 -0.2433
    7POSM   T1A   77   2.018   4.809  16.285  0.0803  0.1481  0.0360
    7POSM   C2A   78   2.111   4.852  15.821  0.1260 -0.1610  0.1495
    7POSM   C3A   79   2.184   4.779  15.374 -0.1326  0.0465 -0.1039
    7POSM   C1B   80   2.503   5.153  16.363 -0.0060 -0.1031 -0.3873
    7POSM   D2B   81   2.873   5.104  16.123  0.0539 -0.1637  0.0892
    7POSM   C3B   82   3.254   4.892  15.986 -0.0065 -0.0674 -0.2070
    7POSM   C4B   83   3.578   4.571  15.791 -0.0167  0.1157 -0.0759
    8DOPS   CNO   84   7.806   8.771  16.853  0.0738 -0.1838  0.1747
    8DOPS   PO4   85   7.834   9.005  16.546 -0.0215 -0.1522 -0.1075
    8DOPS   GL1   86   7.699   8.665  16.446  0.2194 -0.2229  0.2741
    8DOPS   GL2   87   7.907   8.438  16.464  0.1724  0.0513 -0.0451
    8DOPS   C1A   88   7.534   8.346  16.146  0.0071 -0.1341  0.1976
    8DOPS   D2A   89   7.245   8.330  15.759  0.2365 -0.0752 -0.2171
    8DOPS   C3A   90   7.072   8.105  15.404  0.1597 -0.0635 -0.0766
    8DOPS   C4A   91   6.743   7.839  15.170 -0.1324 -0.2492  0.1313
    8DOPS   C1B   92   7.931   8.115  16.146  0.1316  0.2078 -0.2290
    8DOPS   D2B   93   8.096   7.890  15.854 -0.0402 -0.0292 -0.1034
    8DOPS   C3B   94   8.179   8.037  15.422  0.0181 -0.1164  0.0442
    8DOPS   C4B   95   7.955   8.007  15.034  0.5205  0.3148  0.1841
    9DOPC   NC3   96   4.873   2.065  17.031 -0.1960  0.1065 -0.0062
    9DOPC   PO4   97   5.208   1.889  17.017  0.2250 -0.1052  0.0394
    9DOPC   GL1   98   5.191   1.966  16.673 -0.0622  0.1520 -0.0168
    9DOPC   GL2   99   5.120   2.167  16.581 -0.0550 -0.0588 -0.0157
    9DOPC   C1A  100   5.034   1.729  16.284  0.1530  0.1645  0.2352
    9DOPC   D2A  101   5.259   1.514  15.948 -0.0940 -0.1307  0.3738
    9DOPC   C3A  102   5.563   1.744  15.766 -0.2158 -0.0275 -0.1068
    9DOPC   C4A  103   5.554   2.025  15.380 -0.3522  0.1294 -0.0241
    9DOPC   C1B  104   5.274   2.546  16.328  0.0028 -0.0781 -0.2764
    9DOPC   D2B  105   5.062   2.706  15.944  0.0401  0.0859  0.3170
    9DOPC   C3B  106   5.205   2.629  15.492  0.1906 -0.1787 -0.1095
    9DOPC   C4B  107   5.128   2.280  15.170  0.1203 -0.5739 -0.1277
   10DOPE   NH3  108   2.303   7.066  16.841  0.1010  0.2995  0.0081
   10DOPE   PO4  109   2.038   7.145  16.643  0.0635 -0.2981 -0.3047
   10DOPE   GL1  110   2.079   7.081  16.184  0.1196 -0.1867  0.0830
   10DOPE   GL2  111   1.857   7.321  16.110  0.2526 -0.1963 -0.0546
   10DOPE   C1A  112   2.118   6.799  15.812 -0.0716  0.2666 -0.2750
   10DOPE   D2A  113   2.085   6.371  15.668 -0.1272  0.1453  0.0593
   10DOPE   C3A  114   1.947   6.269  15.237 -0.2782 -0.0082  0.1679
   10DOPE   C4A  115   2.162   6.037  14.933  0.0911  0.0392 -0.1271
   10DOPE   C1B  116   1.686   7.219  15.746 -0.0029 -0.2312  0.1581
   10DOPE   D2B  117   1.533   7.189  15.331  0.0108  0.0639  0.1205
   10DOPE   C3B  118   1.905   7.290  15.045  0.1179  0.0066 -0.0013
   10DOPE   C4B  119   2.234   7.002  14.825  0.0184  0.0382 -0.1328
   11POSM   NC3  120   8.794   8.015  16.575 -0.0080  0.1077  0.1166
   11POSM   PO4  121   8.568   7.972  16.929 -0.2275  0.0882  0.1539
   11POSM   AM1  122   8.350   7.939  16.674  0.0764 -0.0536 -0.2127
   11POSM   AM2  123   8.305   8.110  16.457 -0.0430  0.1937  0.0249
   11POSM   T1A  124   8.215   7.663  16.306 -0.3863 -0.0954 -0.0301
   11POSM   C2A  125   7.905   7.484  16.001 -0.1937 -0.0785 -0.0937
   11POSM   C3A  126   7.567   7.445  15.621  0.0536 -0.0688 -0.1891
   11POSM   C1B  127   8.485   8.051  16.173 -0.1014  0.1522 -0.1783
   11POSM   D2B  128   8.587   7.751  15.813 -0.0325 -0.1521 -0.1173
   11POSM   C3B  129   8.594   7.799  15.377 -0.1726 -0.1019 -0.3266
   11POSM   C4B  130   8.411   7.767  14.929  0.1029 -0.0831  0.1869
   12DOPS   CNO  131   5.721   9.565  16.346  0.0925  0.0502  0.0037
   12DOPS   PO4  132   5.879   9.883  16.307 -0.2680 -0.1145 -0.2669
   12DOPS   GL1  133   5.846   9.940  15.924 -0.4017  0.1436  0.1100
   12DOPS   GL2  134   6.032  10.127  15.751 -0.1092 -0.1749  0.1014
   12DOPS   C1A  135   5.851   9.669  15.523  0.1257 -0.1546  0.1141
   12DOPS   D2A  136   5.639   9.322  15.260  0.0013  0.0095  0.0317
   12DOPS   C3A  137   5.254   9.054  15.091 -0.1284 -0.0192  0.0854
   12DOPS   C4A  138   4.877   8.789  15.320 -0.2501  0.0154 -0.3186
   12DOPS   C1B  139   5.972  10.117  15.296 -0.1760  0.0563 -0.1920
   12DOPS   D2B  140   5.752   9.746  14.980 -0.1214 -0.1156  0.0340
   12DOPS   C3B  141   5.661   9.752  14.515  0.2886 -0.1873 -0.0445
   12DOPS   C4B  142   5.289   9.919  14.343 -0.0025 -0.0350 -0.2232
   13DOPC   NC3  143  12.419   1.894  16.872 -0.2360 -0.0167 -0.1498
   13DOPC   PO4  144  12.081   1.747  16.977 -0.2007  0.2154  0.3626
   13DOPC   GL1  145  12.209   1.611  16.553  0.1921 -0.1558 -0.0373
   13DOPC   GL2  146  12.018   1.739  16.429 -0.3646 -0.3132  0.0588
   13DOPC   C1A  147  12.547   1.607  16.268  0.1172  0.1885  0.1444
   13DOPC   D2A  148  12.567   1.901  15.878  0.1705  0.0948 -0.2012
   13DOPC   C3A  149  12.403   1.758  15.484 -0.2555 -0.1497 -0.0979
   13DOPC   C4A  150  12.593   1.915  15.089  0.0724 -0.0236  0.0282
   13DOPC   C1B  151  11.794   1.532  16.135 -0.0630 -0.1695  0.1324
   13DOPC   D2B  152  11.513   1.454  15.834 -0.0288 -0.1442  0.1060
   13DOPC   C3B  153  11.196   1.156  15.787  0.2330 -0.3031 -0.0745
   13DOPC   C4B  154  10.833   0.884  15.667  0.3411 -0.2821  0.2162
   14DOPE   NH3  155   5.584   0.972  17.276 -0.0628  0.1354 -0.2043
   14DOPE   PO4  156   5.807   0.790  17.151  0.0892  0.0361  0.0021
   14DOPE   GL1  157   5.799   0.919  16.808  0.2103 -0.1852  0.0101
   14DOPE   GL2  158   5.508   1.119  16.783 -0.0960  0.2972  0.1716
   14DOPE   C1A  159   5.926   1.170  16.468  0.2228  0.1441  0.0377
   14DOPE   D2A  160   5.992   1.576  16.283 -0.0547  0.0575 -0.1429
   14DOPE   C3A  161   6.031   1.503  15.855 -0.1008  0.2878 -0.2526
   14DOPE   C4A  162   6.415   1.393  15.553 -0.0498 -0.0225  0.0695
   14DOPE   C1B  163   5.490   1.130  16.294 -0.2304 -0.0639 -0.0377
   14DOPE   D2B  164   5.622   1.146  15.833 -0.2305 -0.0129 -0.0113
   14DOPE   C3B  165   5.734   1.397  15.451  0.0444 -0.1016  0.0361
   14DOPE   C4B  166   5.550   1.613  15.102  0.0633 -0.2190  0.0757
   15DOPE   NH3  167   3.844   5.055  17.028  0.0195 -0.3402  0.3324
   15DOPE   PO4  168   3.881   5.385  17.048  0.3096  0.1060 -0.0460
   15DOPE   GL1  169   3.658   5.408  16.705 -0.3579 -0.2419  0.0324
   15DOPE   GL2  170   3.723   5.151  16.530  0.0360  0.0091  0.0384
   15DOPE   C1A  171   3.725   5.615  16.302 -0.1918  0.0926  0.0230
   15DOPE   D2A  172   3.925   5.740  15.889  0.4273 -0.1282 -0.2952
   15DOPE   C3A  173   3.563   5.744  15.618  0.2327  0.1936  0.1133
   15DOPE   C4A  174   3.136   5.526  15.569  0.3766  0.0420  0.1644
   15DOPE   C1B  175   3.762   4.849  16.179  0.1736 -0.2045  0.2912
   15DOPE   D2B  176   4.001   4.417  16.113 -0.0469  0.0812  0.1798
   15DOPE   C3B  177   3.951   4.088  15.787 -0.1984  0.1524  0.2054
   15DOPE   C4B  178   3.822   4.104  15.320  0.3406  0.1657  0.1255
   16DOPC   NC3  179   7.041   9.560  16.737 -0.2920  0.1473  0.0523
   16DOPC   PO4  180   6.834   9.199  16.729 -0.3723  0.0155  0.0662
   16DOPC   GL1  181   6.914   8.835  16.514 -0.3299  0.3082  0.1267
   16DOPC   GL2  182   6.792   8.547  16.518 -0.1478  0.0573  0.0697
   16DOPC   C1A  183   7.068   8.769  16.094 -0.3086  0.0144 -0.2320
   16DOPC   D2A  184   7.315   8.818  15.700  0.2666 -0.2825  0.0837
   16DOPC   C3A  185   7.357   8.561  15.297  0.0681  0.0642 -0.3064
   16DOPC   C4A  186   7.428   8.174  15.028 -0.0810 -0.3826 -0.1726
   16DOPC   C1B  187   6.909   8.248  16.187  0.0478 -0.0962  0.0325
   16DOPC   D2B  188   6.884   7.900  15.852  0.1739  0.0059  0.0649
   16DOPC   C3B  189   7.082   7.628  15.496 -0.2547  0.0072  0.0131
   16DOPC   C4B  190   7.362   7.636  15.118  0.1516  0.0756  0.0650
   17POSM   NC3  191   9.532   7.853  17.242 -0.1522  0.1857 -0.2526
   17POSM   PO4  192   9.452   7.805  16.899 -0.0150 -0.0989 -0.4050
   17POSM   AM1  193   9.348   7.862  16.594 -0.0073 -0.0237 -0.2102
   17POSM   AM2  194   9.448   7.689  16.382  0.1013  0.0788 -0.2006
   17POSM   T1A  195   9.212   8.120  16.208  0.1300  0.0673 -0.0530
   17POSM   C2A  196   8.888   8.337  16.042 -0.1301 -0.2464 -0.0115
   17POSM   C3A  197   8.468   8.469  15.859 -0.3052  0.4278  0.1775
   17POSM   C1B  198   9.336   7.614  16.058  0.2437  0.1779 -0.3040
   17POSM   D2B  199   9.423   7.409  15.656 -0.1197 -0.0360  0.0307
   17POSM   C3B  200   9.066   7.233  15.435 -0.0246  0.0895  0.2614
   17POSM   C4B  201   8.740   7.352  15.040 -0.1235 -0.0434  0.2776
   18DOPE   NH3  202  34.219  10.467  15.146  0.0590 -0.2810 -0.0854
   18DOPE   PO4  203  34.507  10.395  15.209  0.3250 -0.2201 -0.3189
   18DOPE   GL1  204  34.804  10.152  15.021 -0.1997  0.1205 -0.0118
   18DOPE   GL2  205  34.960  10.302  14.833  0.1433  0.1277  0.1587
   18DOPE   C1A  206  34.794   9.756  14.795  0.0865  0.4548  0.0316
   18DOPE   D2A  207  34.422   9.545  14.991  0.1048  0.0507 -0.2041
   18DOPE   C3A  208  34.130   9.284  14.753  0.1930  0.2831 -0.0179
   18DOPE   C4A  209  34.083   8.832  14.646 -0.1574  0.1494 -0.2113
   18DOPE   C1B  210  34.777  10.333  14.390 -0.1266 -0.0416 -0.2377
   18DOPE   D2B  211  34.681  10.198  13.936  0.2431 -0.0572  0.1451
   18DOPE   C3B  212  34.884  10.132  13.488  0.3378 -0.0977  0.0911
   18DOPE   C4B  213  35.163  10.413  13.232  0.0903  0.0303 -0.0679
   19DOPS   CNO  214   3.679   3.307  17.295  0.0938 -0.1869 -0.1964
   19DOPS   PO4  215   4.013   3.307  17.074 -0.1011 -0.1607 -0.0252
   19DOPS   GL1  216   4.123   3.082  16.776 -0.0511 -0.0210  0.1739
   19DOPS   GL2  217   4.097   2.860  16.710 -0.3992  0.0624 -0.0671
   19DOPS   C1A  218   4.500   2.969  16.488 -0.0406 -0.0558 -0.3245
   19DOPS   D2A  219   4.725   2.621  16.260  0.1900  0.3339 -0.2282
   19DOPS   C3A  220   4.592   2.700  15.809  0.0925  0.0950  0.2494
   19DOPS   C4A  221   4.660   2.504  15.427 -0.2113  0.0103  0.1663
   19DOPS   C1B  222   3.961   3.148  16.332 -0.2809  0.0272  0.1176
   19DOPS   D2B  223   3.903   3.494  16.092 -0.1129  0.0600  0.0681
   19DOPS   C3B  224   4.221   3.582  15.865 -0.4347 -0.1718 -0.0685
   19DOPS   C4B  225   4.310   3.848  15.521 -0.0405 -0.0943  0.2504
   20POSM   NC3  226   3.623   8.058  17.228 -0.0594  0.1143  0.0057
   20POSM   PO4  227   3.557   8.302  16.925 -0.1809  0.1876  0.1508
   20POSM   AM1  228   3.647   8.342  16.595 -0.2317  0.4752  0.0552
   20POSM   AM2  229   3.699   8.521  16.359 -0.2241 -0.1180  0.1249
   20POSM   T1A  230   3.842   8.013  16.269 -0.0595  0.1849  0.0147
   20POSM   C2A  231   4.003   7.944  15.884 -0.1944  0.0713  0.1525
   20POSM   C3A  232   4.254   8.018  15.520  0.1522 -0.1594  0.2983
   20POSM   C1B  233   3.717   8.445  15.998  0.2283  0.0567 -0.1769
   20POSM   D2B  234   3.747   8.328  15.555  0.0456  0.0327  0.1050
   20POSM   C3B  235   3.516   8.546  15.157 -0.2619  0.0172  0.0605
   20POSM   C4B  236   3.410   8.782  14.752 -0.1634  0.0316 -0.0181
   21POSM   NC3  237   3.508   9.518  16.548 -0.0791 -0.0622 -0.2233
   21POSM   PO4  238   3.525   9.866  16.339  0.1365  0.2449 -0.0727
   21POSM   AM1  239   3.527   9.662  16.109  0.3269  0.1507  0.2691
   21POSM   AM2  240   3.619   9.412  16.020 -0.2766 -0.1028 -0.0050
   21POSM   T1A  241   3.532   9.713  15.575 -0.1841 -0.0478  0.1719
   21POSM   C2A  242   3.546   9.549  15.089 -0.3309 -0.1998 -0.0739
   21POSM   C3A  243   3.420   9.610  14.626  0.0651  0.1584 -0.2938
   21POSM   C1B  244   3.668   9.244  15.742  0.1545  0.5208 -0.2350
   21POSM   D2B  245   3.523   9.096  15.317 -0.1936 -0.0440  0.1952
   21POSM   C3B  246   3.771   9.083  14.935 -0.2179  0.2196  0.0537
   21POSM   C4B  247   4.138   8.878  14.816 -0.0739  0.1729  0.0259
   22DOPC   NC3  248   4.643   0.343  16.957 -0.5213  0.0046  0.3146
   22DOPC   PO4  249   4.532  -0.040  16.950 -0.0011 -0.1058  0.0831
   22DOPC   GL1  250   4.424  -0.089  16.593  0.0925 -0.2228  0.0006
   22DOPC   GL2  251   4.391   0.211  16.587  0.1683 -0.0797  0.1824
   22DOPC   C1A  252   4.509  -0.044  16.121  0.4680  0.0903 -0.0958
   22DOPC   D2A  253   4.780   0.121  15.780 -0.0785 -0.1925 -0.2287
   22DOPC   C3A  254   4.907   0.532  15.790 -0.3292  0.1154 -0.0155
   22DOPC   C4A  255   4.965   0.809  15.430  0.1614  0.0070  0.0258
   22DOPC   C1B  256   4.347   0.486  16.217 -0.1308 -0.0613 -0.1150
   22DOPC   D2B  257   4.162   0.858  16.003 -0.0376  0.1926  0.1101
   22DOPC   C3B  258   4.227   1.328  15.928 -0.0150  0.2777  0.1098
   22DOPC   C4B  259   4.365   1.713  15.748 -0.1840  0.2063  0.0839
   23DOPS   CNO  260   8.623   2.178  17.515 -0.1381 -0.1282 -0.1604
   23DOPS   PO4  261   8.762   1.919  17.332  0.0313 -0.1027  0.0682
   23DOPS   GL1  262   8.744   2.098  16.997  0.1594 -0.1602 -0.4500
   23DOPS   GL2  263   8.571   2.344  17.061  0.0973  0.1324  0.0205
   23DOPS   C1A  264   8.642   1.825  16.642 -0.0528  0.0874 -0.2147
   23DOPS   D2A  265   8.447   1.989  16.215  0.4510  0.2711  0.0563
   23DOPS   C3A  266   8.328   2.396  16.083  0.3578  0.1933 -0.0877
   23DOPS   C4A  267   8.380   2.841  15.858  0.3701  0.0389 -0.1274
   23DOPS   C1B  268   8.909   2.382  16.729 -0.1335  0.1615  0.0123
   23DOPS   D2B  269   9.211   2.680  16.529  0.0098  0.2892  0.1200
   23DOPS   C3B  270   9.051   3.002  16.173 -0.4999  0.1500  0.1263
   23DOPS   C4B  271   9.041   3.390  15.929 -0.3186 -0.1704 -0.1548
   24DOPE   NH3  272   6.734  10.075  16.205 -0.4096 -0.1929  0.1747
   24DOPE   PO4  273   6.943   9.811  16.256  0.2294 -0.1706  0.2436
   24DOPE   GL1  274   6.842   9.662  15.983  0.1267 -0.1952 -0.2871
   24DOPE   GL2  275   6.866   9.870  15.755 -0.0340 -0.0035  0.0153
   24DOPE   C1A  276   6.936   9.248  15.791  0.0810  0.2660  0.3207
   24DOPE   D2A  277   7.123   9.226  15.322 -0.1113 -0.0477 -0.1836
   24DOPE   C3A  278   6.978   8.806  15.070  0.1660 -0.0661  0.1710
   24DOPE   C4A  279   6.949   8.321  14.976  0.1148  0.0230 -0.0740
   24DOPE   C1B  280   6.913   9.856  15.307 -0.0072 -0.0367  0.0559
   24DOPE   D2B  281   6.755   9.803  14.946  0.1133  0.0642  0.0507
   24DOPE   C3B  282   6.784   9.779  14.500 -0.2179 -0.1416 -0.1332
   24DOPE   C4B  283   6.912   9.923  14.041 -0.1449  0.2060  0.0242
   25POSM   NC3  284   8.439   3.728  17.251  0.2329  0.0588  0.0100
   25POSM   PO4  285   8.379   4.161  17.275 -0.2551 -0.0137 -0.0484
   25POSM   AM1  286   8.319   4.087  16.953 -0.0883 -0.2247 -0.3411
   25POSM   AM2  287   8.159   3.882  16.825 -0.0705 -0.5111 -0.2013
   25POSM   T1A  288   8.606   3.937  16.595 -0.0772  0.0832 -0.0003
   25POSM   C2A  289   8.814   3.798  16.160 -0.1154  0.1026  0.2937
   25POSM   C3A  290   9.105   4.015  15.848  0.1357  0.0609 -0.1145
   25POSM   C1B  291   8.098   4.015  16.510  0.0237 -0.1832  0.0387
   25POSM   D2B  292   8.142   3.987  16.079  0.0858  0.4018  0.4813
   25POSM   C3B  293   8.465   3.706  15.832  0.1335  0.0780  0.2400
   25POSM   C4B  294   8.808   3.692  15.534  0.1169  0.2514  0.2891
   26POSM   NC3  295  11.215   0.287  16.446 -0.0080  0.1656 -0.2449
   26POSM   PO4  296  10.910   0.364  16.656  0.3954 -0.2360  0.1805
   26POSM   AM1  297  10.729   0.312  16.435  0.1603  0.1153 -0.0380
   26POSM   AM2  298  10.483   0.399  16.260  0.0418 -0.4319 -0.2990
   26POSM   T1A  299  10.670   0.119  15.943 -0.0536 -0.1161  0.2120
   26POSM   C2A  300  10.768   0.241  15.525 -0.1992 -0.1535 -0.0209
   26POSM   C3A  301  10.740   0.582  15.237  0.2092  0.0394  0.2405
   26POSM   C1B  302  10.204   0.256  16.053 -0.1725  0.1281 -0.1706
   26POSM   D2B  303   9.799   0.151  15.881  0.0039  0.0141 -0.0479
   26POSM   C3B  304   9.574   0.286  15.491  0.0435 -0.1140 -0.2611
   26POSM   C4B  305   9.147   0.396  15.277 -0.4544  0.1673 -0.3399
   27DOPC   NC3  306   2.032  10.339  15.256 -0.0197 -0.1384 -0.0681
   27DOPC   PO4  307   1.748  10.152  15.495 -0.2360 -0.2926 -0.0474
   27DOPC   GL1  308   1.479  10.242  15.231  0.0262  0.0800  0.0983
   27DOPC   GL2  309   1.599  10.577  15.145 -0.0927  0.0116 -0.1145
   27DOPC   C1A  310   1.135  10.312  14.889 -0.3321  0.0125 -0.0709
   27DOPC   D2A  311   0.889  10.209  14.544  0.2571  0.1425 -0.2075
   27DOPC   C3A  312   0.605   9.904  14.424 -0.1730 -0.0589 -0.2653
   27DOPC   C4A  313   0.453   9.703  14.029 -0.0681  0.0349 -0.0143
   27DOPC   C1B  314   1.764  10.343  14.774 -0.2017  0.3875 -0.4341
   27DOPC   D2B  315   1.855  10.041  14.462  0.0920  0.0110  0.2630
   27DOPC   C3B  316   1.781  10.045  13.980  0.1408 -0.0868  0.1390
   27DOPC   C4B  317   1.830   9.742  13.633 -0.0103 -0.1490  0.0393
   28DOPC   NC3  318   0.661   4.952  16.478  0.1378  0.2223  0.0754
   28DOPC   PO4  319   0.536   5.284  16.333 -0.0510  0.0018  0.2238
   28DOPC   GL1  320   0.663   5.283  15.963 -0.4018 -0.3693 -0.0040
   28DOPC   GL2  321   0.767   5.461  15.757 -0.0466 -0.0663 -0.1600
   28DOPC   C1A  322   0.495   5.141  15.554 -0.1403 -0.1332  0.1874
   28DOPC   D2A  323   0.474   5.267  15.134  0.1574 -0.0354  0.4342
   28DOPC   C3A  324   0.624   5.056  14.735  0.2488 -0.0706  0.2581
   28DOPC   C4A  325   0.530   4.962  14.298 -0.0466  0.0825 -0.0580
   28DOPC   C1B  326   1.014   5.174  15.466  0.0390  0.2892  0.2406
   28DOPC   D2B  327   1.010   5.079  15.023  0.0985  0.2511  0.3249
   28DOPC   C3B  328   0.981   4.621  14.793 -0.0977 -0.0608 -0.1157
   28DOPC   C4B  329   0.537   4.547  14.675 -0.0815  0.0124 -0.0028
   29POSM   NC3  330   8.361  33.832  16.829 -0.0894  0.0484 -0.1805
   29POSM   PO4  331   8.092  34.007  17.014  0.1918 -0.1341  0.0454
   29POSM   AM1  332   8.035  34.091  16.704  0.1246  0.1325 -0.1917
   29POSM   AM2  333   7.853  33.980  16.560 -0.0468  0.3312  0.0176
   29POSM   T1A  334   8.064  34.519  16.422 -0.3405  0.2249  0.0014
   29POSM   C2A  335   8.416  34.788  16.158  0.1886 -0.3540  0.1403
   29POSM   C3A  336   8.412  34.929  15.709  0.2513  0.0312 -0.1017
   29POSM   C1B  337   7.877  34.059  16.247  0.0195  0.2097 -0.2447
   29POSM   D2B  338   7.860  34.316  15.876 -0.1635 -0.2345  0.3069
   29POSM   C3B  339   7.532  34.607  15.718 -0.1796 -0.0073  0.2635
   29POSM   C4B  340   7.136  34.540  15.441  0.0743 -0.1791 -0.3373
   30POSM   NC3  341  11.691   3.685  16.908  0.3043  0.1476 -0.1904
   30POSM   PO4  342  11.312   3.727  16.881  0.0663  0.1685 -0.0157
   30POSM   AM1  343  11.245   3.912  16.612  0.0804 -0.2010  0.1376
   30POSM   AM2  344  11.376   4.089  16.466  0.0802  0.1262  0.1674
   30POSM   T1A  345  11.107   3.859  16.106 -0.0998  0.0345 -0.0835
   30POSM   C2A  346  10.848   3.665  15.733  0.0081 -0.3214  0.3335
   30POSM   C3A  347  10.640   3.487  15.337  0.1366 -0.1962 -0.2437
   30POSM   C1B  348  11.174   4.322  16.293  0.0736 -0.0968  0.0884
   30POSM   D2B  349  11.115   4.416  15.842  0.1148  0.1513  0.1461
   30POSM   C3B  350  10.696   4.667  15.701  0.3010 -0.1168 -0.0632
   30POSM   C4B  351  10.404   4.960  15.722 -0.1672 -0.0336 -0.0896
   31DOPE   NH3  352   9.946  11.477  14.949  0.1220  0.1506 -0.1213
   31DOPE   PO4  353   9.877  11.164  14.885  0.2836 -0.0397 -0.0789
   31DOPE   GL1  354   9.861  10.953  14.606  0.0659  0.1809  0.0368
   31DOPE   GL2  355   9.804  10.640  14.662  0.0486 -0.1487  0.0684
   31DOPE   C1A  356   9.574  11.041  14.257  0.0538  0.1827  0.2777
   31DOPE   D2A  357   9.386  11.221  13.856  0.1888  0.0034  0.1245
   31DOPE   C3A  358   8.971  11.001  13.642 -0.2190  0.2226 -0.1646
   31DOPE   C4A  359   8.664  10.744  13.617  0.0663  0.0194 -0.0944
   31DOPE   C1B  360  10.145  10.457  14.420 -0.0440  0.2509 -0.3225
   31DOPE   D2B  361  10.434  10.415  14.041  0.1136  0.3538  0.2066
   31DOPE   C3B  362  10.488  10.348  13.593  0.1444  0.1054 -0.0756
   31DOPE   C4B  363  10.349   9.984  13.337 -0.1964 -0.2529  0.0966
   32DOPC   NC3  364   6.333   6.237  16.888 -0.1283  0.0190 -0.0502
   32DOPC   PO4  365   6.432   6.624  16.910  0.0138  0.2784 -0.1567
   32DOPC   GL1  366   6.630   6.575  16.548  0.1111  0.2266 -0.0264
   32DOPC   GL2  367   6.332   6.537  16.438  0.4404  0.0727 -0.0890
   32DOPC   C1A  368   6.629   6.372  16.120  0.1357  0.1438  0.0561
   32DOPC   D2A  369   6.751   6.443  15.672  0.1392  0.1080 -0.1601
   32DOPC   C3A  370   6.472   6.707  15.441 -0.1323  0.3472 -0.3304
   32DOPC   C4A  371   6.104   6.898  15.244  0.3042  0.1274  0.0626
   32DOPC   C1B  372   6.041   6.277  16.239  0.1517  0.0686  0.0275
   32DOPC   D2B  373   5.586   6.183  16.190 -0.0843  0.1707  0.1235
   32DOPC   C3B  374   5.448   6.257  15.777  0.2451 -0.0661 -0.3787
   32DOPC   C4B  375   5.278   6.510  15.488  0.0525  0.0610 -0.1395
   33DOPE   NH3  376   6.848   5.305  17.291 -0.0790  0.0948 -0.0128
   33DOPE   PO4  377   6.631   5.068  17.297 -0.1129 -0.0651 -0.2875
   33DOPE   GL1  378   6.740   4.960  16.908  0.1575 -0.3269  0.2845
   33DOPE   GL2  379   6.637   4.686  16.715  0.2752  0.1885 -0.0355
   33DOPE   C1A  380   6.942   4.954  16.467 -0.1774 -0.1821 -0.0629
   33DOPE   D2A  381   7.031   4.820  16.036 -0.0825 -0.0797 -0.0688
   33DOPE   C3A  382   7.101   4.376  15.948  0.3093  0.1215 -0.1087
   33DOPE   C4A  383   6.952   4.041  15.709 -0.0513 -0.4889  0.0386
   33DOPE   C1B  384   6.473   5.056  16.503 -0.0795  0.2084 -0.0225
   33DOPE   D2B  385   6.448   5.221  16.069  0.0312  0.4208  0.0194
   33DOPE   C3B  386   6.101   5.404  15.899 -0.0655 -0.3678  0.0150
   33DOPE   C4B  387   5.677   5.380  15.698  0.2720  0.0729 -0.1216
   34DOPE   NH3  388   9.922   2.412  17.368  0.2003  0.0012 -0.1701
   34DOPE   PO4  389  10.219   2.336  17.306 -0.0245  0.0943  0.0596
   34DOPE   GL1  390  10.475   2.261  17.073 -0.0045  0.3997 -0.0167
   34DOPE   GL2  391  10.388   2.434  16.765 -0.2660 -0.3248  0.0258
   34DOPE   C1A  392  10.752   2.096  16.761 -0.4710  0.2527 -0.2009
   34DOPE   D2A  393  11.110   2.195  16.436  0.2138  0.0450  0.0123
   34DOPE   C3A  394  11.044   2.233  15.969 -0.3427  0.1548  0.1528
   34DOPE   C4A  395  10.793   2.488  15.609 -0.0933 -0.2640 -0.3460
   34DOPE   C1B  396  10.577   2.307  16.318 -0.2568  0.0749  0.2336
   34DOPE   D2B  397  10.379   2.267  15.974  0.1097 -0.0501 -0.2590
   34DOPE   C3B  398   9.948   2.089  15.889  0.1500 -0.0488 -0.0731
   34DOPE   C4B  399   9.514   1.961  16.062  0.3089  0.2927  0.0564
   35DOPE   NH3  400   6.453   1.467  17.183 -0.0376 -0.1813 -0.0907
   35DOPE   PO4  401   6.750   1.387  17.241  0.1134  0.0385  0.1858
   35DOPE   GL1  402   6.989   1.345  16.826  0.0507 -0.0966  0.2882
   35DOPE   GL2  403   6.808   1.547  16.742 -0.1047 -0.2966 -0.0702
   35DOPE   C1A  404   7.072   1.010  16.475 -0.0291 -0.1320  0.1245
   35DOPE   D2A  405   6.948   0.787  16.169  0.1984  0.2971 -0.4000
   35DOPE   C3A  406   7.150   0.893  15.749  0.2254 -0.3349 -0.2730
   35DOPE   C4A  407   7.403   1.245  15.554  0.2399  0.1836 -0.0300
   35DOPE   C1B  408   6.520   1.867  16.527 -0.1906  0.1036  0.1081
   35DOPE   D2B  409   6.562   2.208  16.266 -0.3517  0.2331  0.1829
   35DOPE   C3B  410   6.821   1.975  15.959 -0.1027 -0.2600  0.0337
   35DOPE   C4B  411   6.957   1.649  15.684  0.1926 -0.2037  0.0125
   36DOPS   CNO  412   0.447   4.563  16.650  0.0027 -0.0647 -0.0421
   36DOPS   PO4  413   0.486   4.450  16.288  0.0605  0.2025  0.2088
   36DOPS   GL1  414   0.701   4.456  15.942 -0.0934  0.2462 -0.0798
   36DOPS   GL2  415   0.829   4.230  16.020 -0.1420  0.0079 -0.2869
   36DOPS   C1A  416   0.835   4.676  15.571  0.4720  0.1493 -0.1763
   36DOPS   D2A  417   0.667   4.771  15.183  0.0641  0.0136  0.5126
   36DOPS   C3A  418   0.224   4.829  14.967  0.2321 -0.4579  0.0509
   36DOPS   C4A  419   0.120   4.945  14.542  0.0059  0.2982 -0.1346
   36DOPS   C1B  420   1.088   4.616  16.007 -0.0628  0.4073  0.1678
   36DOPS   D2B  421   1.363   4.909  15.763 -0.2244 -0.0642 -0.1769
   36DOPS   C3B  422   1.496   4.987  15.337 -0.0625 -0.2290 -0.1620
   36DOPS   C4B  423   1.800   5.148  15.017  0.1678 -0.1303 -0.0929
   37DOPE   NH3  424   5.335   7.257  17.131  0.1932  0.0762  0.1493
   37DOPE   PO4  425   5.471   7.484  16.949  0.1830  0.1782 -0.1330
   37DOPE   GL1  426   5.308   7.378  16.521  0.2316  0.1866 -0.0471
   37DOPE   GL2  427   5.372   7.066  16.615 -0.1292 -0.0235  0.1444
   37DOPE   C1A  428   4.956   7.587  16.274 -0.0056 -0.0349 -0.1455
   37DOPE   D2A  429   4.923   7.687  15.808  0.3984  0.2475 -0.1602
   37DOPE   C3A  430   4.792   7.993  15.493  0.1701  0.0094  0.4029
   37DOPE   C4A  431   4.951   8.046  15.012  0.0383 -0.0702  0.0404
   37DOPE   C1B  432   5.168   7.134  16.164 -0.3048  0.0053  0.1738
   37DOPE   D2B  433   5.191   7.295  15.702 -0.2938  0.1317 -0.1565
   37DOPE   C3B  434   5.412   7.071  15.382 -0.2037  0.0309  0.1455
   37DOPE   C4B  435   5.521   6.876  14.979  0.1110 -0.0815  0.1961
   38DOPE   NH3  436   1.950   7.709  16.495  0.1632  0.0248 -0.1403
   38DOPE   PO4  437   1.652   7.714  16.347  0.0412 -0.0517  0.1918
   38DOPE   GL1  438   1.704   7.816  15.994  0.1092  0.2036  0.1149
   38DOPE   GL2  439   1.983   7.883  15.971  0.0194 -0.1924 -0.1075
   38DOPE   C1A  440   1.612   7.644  15.553 -0.2794  0.3160  0.0310
   38DOPE   D2A  441   1.615   7.700  15.146  0.1129  0.1001  0.1588
   38DOPE   C3A  442   1.309   7.472  14.848 -0.1025  0.1200  0.2994
   38DOPE   C4A  443   1.166   7.212  14.509  0.1401 -0.1755  0.0002
   38DOPE   C1B  444   2.075   7.912  15.530  0.1920  0.0496 -0.3019
   38DOPE   D2B  445   2.178   7.712  15.118 -0.0444  0.0863  0.1697
   38DOPE   C3B  446   2.324   7.484  14.733  0.0824  0.1369 -0.0249
   38DOPE   C4B  447   2.599   7.196  14.495 -0.2383  0.3495 -0.2353
   39POSM   NC3  448   3.972   0.900  16.890  0.1748 -0.0251  0.0637
   39POSM   PO4  449   4.150   0.566  17.006 -0.1106 -0.1132  0.0809
   39POSM   AM1  450   4.309   0.630  16.735  0.1822  0.0666 -0.2108
   39POSM   AM2  451   4.298   0.849  16.568  0.1992 -0.2864  0.0956
   39POSM   T1A  452   4.785   0.746  16.625  0.3987 -0.2323 -0.0170
   39POSM   C2A  453   5.162   0.708  16.326  0.0752  0.0364  0.3500
   39POSM   C3A  454   5.498   0.629  15.949  0.2786  0.1222  0.0814
   39POSM   C1B  455   4.486   1.004  16.307 -0.0766 -0.0277  0.1425
   39POSM   D2B  456   4.648   0.913  15.923 -0.2532  0.0782 -0.3213
   39POSM   C3B  457   4.722   1.250  15.617 -0.0802  0.0752  0.2196
   39POSM   C4B  458   4.702   1.569  15.246 -0.1409 -0.2921 -0.0605
   40POSM   NC3  459   4.427   3.432  17.334  0.1833  0.0980  0.1388
   40POSM   PO4  460   4.804   3.479  17.176  0.0054 -0.0349 -0.1578
   40POSM   AM1  461   4.944   3.435  16.904  0.0822 -0.1041 -0.2574
   40POSM   AM2  462   5.008   3.577  16.699  0.0355  0.1718  0.2561
   40POSM   T1A  463   5.049   3.110  16.511 -0.0527  0.4220  0.1730
   40POSM   C2A  464   4.973   3.238  16.072 -0.2635  0.1057  0.0172
   40POSM   C3A  465   5.152   3.092  15.697  0.1388  0.1503 -0.2960
   40POSM   C1B  466   4.819   3.586  16.407 -0.1326  0.2662 -0.5401
   40POSM   D2B  467   4.706   3.661  16.014 -0.0403  0.1495  0.1512
   40POSM   C3B  468   4.669   3.392  15.623  0.3033 -0.0994 -0.0016
   40POSM   C4B  469   4.505   2.997  15.449 -0.1425  0.0667  0.2238
   41DOPC   NC3  470   5.168   6.109  17.129  0.0693  0.0743 -0.0628
   41DOPC   PO4  471   4.897   6.403  17.183 -0.2292 -0.1943 -0.1924
   41DOPC   GL1  472   4.880   6.247  16.761 -0.6116 -0.0985 -0.1482
   41DOPC   GL2  473   4.664   6.183  16.630 -0.1926 -0.0197  0.3064
   41DOPC   C1A  474   4.978   6.331  16.292  0.1110 -0.0356 -0.1787
   41DOPC   D2A  475   4.929   6.386  15.862 -0.2664 -0.0224  0.2371
   41DOPC   C3A  476   4.906   6.777  15.621 -0.0316  0.2344 -0.0457
   41DOPC   C4A  477   4.966   6.991  15.227  0.2859  0.1118  0.0819
   41DOPC   C1B  478   4.620   5.889  16.291 -0.0911 -0.1874  0.1195
   41DOPC   D2B  479   4.583   5.611  15.919 -0.0319 -0.0625  0.0591
   41DOPC   C3B  480   4.923   5.659  15.546  0.2299  0.0459 -0.2764
   41DOPC   C4B  481   5.267   5.541  15.293  0.0081  0.0252 -0.0806
   42DOPC   NC3  482   1.816   9.335  15.684 -0.0657 -0.1258 -0.0283
   42DOPC   PO4  483   1.834   9.679  15.779 -0.1073 -0.0988  0.1830
   42DOPC   GL1  484   1.995   9.771  15.486  0.0906  0.1156 -0.1650
   42DOPC   GL2  485   1.779   9.686  15.303 -0.0216 -0.1381  0.4193
   42DOPC   C1A  486   2.269   9.885  15.145  0.0577  0.0656  0.4665
   42DOPC   D2A  487   2.352  10.213  14.808 -0.0947 -0.1991  0.0220
   42DOPC   C3A  488   2.604  10.322  14.373 -0.0100 -0.1142  0.0404
   42DOPC   C4A  489   2.638  10.428  13.911  0.0558  0.1424 -0.1462
   42DOPC   C1B  490   1.931   9.673  14.870 -0.2051 -0.0615 -0.3286
   42DOPC   D2B  491   2.268   9.766  14.597 -0.0740 -0.0714 -0.0207
   42DOPC   C3B  492   2.322   9.889  14.162  0.1317  0.1675 -0.0618
   42DOPC   C4B  493   2.674   9.946  13.946 -0.0862  0.3091  0.0288
   43POSM   NC3  494   1.599  11.585  14.581  0.0106 -0.2116  0.2180
   43POSM   PO4  495   1.703  11.818  14.838  0.0973 -0.0347  0.0673
   43POSM   AM1  496   1.937  11.976  14.609 -0.0813 -0.0343 -0.2720
   43POSM   AM2  497   2.050  12.177  14.484 -0.0896 -0.0040  0.0059
   43POSM   T1A  498   2.351  11.820  14.304  0.0509 -0.2687 -0.1659
   43POSM   C2A  499   2.500  11.440  14.312 -0.2100 -0.0475  0.2983
   43POSM   C3A  500   2.722  11.090  14.047  0.3162 -0.1595 -0.1313
   43POSM   C1B  501   2.026  12.275  14.130  0.0154 -0.0476  0.1433
   43POSM   D2B  502   2.141  12.305  13.671 -0.1500  0.1786 -0.1279
   43POSM   C3B  503   1.941  11.949  13.478 -0.2645  0.3927 -0.1727
   43POSM   C4B  504   1.789  11.627  13.170 -0.0210 -0.0039 -0.1962
   44DOPC   NC3  505  10.777   0.787  16.896  0.0567 -0.0731  0.2315
   44DOPC   PO4  506  10.605   1.062  17.108  0.0632  0.2823  0.0968
   44DOPC   GL1  507  10.513   1.389  16.830 -0.0267  0.1466 -0.1422
   44DOPC   GL2  508  10.622   1.613  16.800 -0.0217  0.2716  0.0806
   44DOPC   C1A  509  10.265   1.437  16.428  0.0053  0.0919  0.1585
   44DOPC   D2A  510   9.925   1.625  16.209  0.0188 -0.1493  0.3065
   44DOPC   C3A  511   9.776   1.628  15.779 -0.0120 -0.1069  0.0712
   44DOPC   C4A  512   9.629   1.811  15.399 -0.1086 -0.3044  0.0567
   44DOPC   C1B  513  10.720   1.709  16.346  0.1973 -0.0032 -0.0767
   44DOPC   D2B  514  10.362   1.752  16.001  0.0776 -0.1288 -0.0178
   44DOPC   C3B  515  10.642   1.986  15.639  0.0551 -0.0777 -0.0124
   44DOPC   C4B  516  10.859   2.015  15.223  0.3500  0.0220 -0.1755
   45POSM   NC3  517  33.485   9.077  15.834 -0.0840 -0.0920 -0.0264
   45POSM   PO4  518  33.567   9.375  15.592 -0.1731 -0.1459  0.0827
   45POSM   AM1  519  33.722   9.185  15.426  0.1851  0.0984  0.2965
   45POSM   AM2  520  33.546   9.033  15.216  0.1487  0.1022 -0.1941
   45POSM   T1A  521  34.094   8.994  15.176  0.0215 -0.1871  0.0152
   45POSM   C2A  522  34.308   8.654  15.011  0.0230 -0.1167 -0.2176
   45POSM   C3A  523  34.744   8.526  15.028  0.0672  0.1895 -0.2891
   45POSM   C1B  524  33.654   9.160  14.875  0.1389 -0.2122  0.1779
   45POSM   D2B  525  33.714   9.264  14.445 -0.2222 -0.0725  0.1460
   45POSM   C3B  526  33.751   8.933  14.149  0.0235  0.0552  0.0484
   45POSM   C4B  527  33.429   8.675  13.922 -0.0889  0.1252 -0.0014
   46DOPC   NC3  528   0.851   5.639  16.331 -0.3433 -0.0171 -0.0741
   46DOPC   PO4  529   1.176   5.479  16.605 -0.0620 -0.3176 -0.1116
   46DOPC   GL1  530   1.376   5.516  16.236  0.3646 -0.1946  0.2061
   46DOPC   GL2  531   1.515   5.768  16.156  0.2894  0.0415 -0.2156
   46DOPC   C1A  532   1.265   5.532  15.779  0.2485  0.0116  0.1042
   46DOPC   D2A  533   1.421   5.456  15.320  0.2407 -0.0667 -0.0359
   46DOPC   C3A  534   1.321   5.501  14.882  0.2103  0.2364  0.2173
   46DOPC   C4A  535   1.158   5.946  14.807 -0.3603  0.1723 -0.2520
   46DOPC   C1B  536   1.672   5.836  15.713  0.0940 -0.1917  0.2898
   46DOPC   D2B  537   1.821   5.718  15.272 -0.1391 -0.3294  0.0691
   46DOPC   C3B  538   2.262   5.591  15.097  0.0846  0.0723 -0.0297
   46DOPC   C4B  539   2.420   5.169  14.959  0.3819  0.0829  0.1758
   47POSM   NC3  540  34.471  13.648  13.762 -0.0650  0.0052 -0.0115
   47POSM   PO4  541  34.093  13.572  13.794 -0.1544 -0.0527 -0.0558
   47POSM   AM1  542  34.098  13.508  13.476 -0.2148  0.0933 -0.6533
   47POSM   AM2  543  34.308  13.512  13.278  0.0460 -0.0497  0.0042
   47POSM   T1A  544  33.810  13.283  13.168 -0.0153 -0.0116  0.0770
   47POSM   C2A  545  33.713  13.206  12.696  0.1380 -0.1727 -0.0148
   47POSM   C3A  546  33.730  13.097  12.261 -0.2759 -0.1547  0.0658
   47POSM   C1B  547  34.314  13.442  12.942 -0.0769  0.1914 -0.0439
   47POSM   D2B  548  34.437  13.165  12.574  0.1749 -0.1738  0.1962
   47POSM   C3B  549  34.218  13.402  12.304 -0.1522 -0.0657 -0.0874
   47POSM   C4B  550  34.202  13.736  12.039  0.0910 -0.1107  0.2053
   48DOPE   NH3  551   3.228   8.785  16.779 -0.0476  0.1937 -0.0446
   48DOPE   PO4  552   3.402   8.895  16.529  0.1414 -0.2003 -0.2266
   48DOPE   GL1  553   3.552   8.945  16.182  0.2218  0.3624  0.0646
   48DOPE   GL2  554   3.438   8.877  15.967 -0.4863  0.0076 -0.0124
   48DOPE   C1A  555   3.976   8.913  15.974 -0.2146  0.0942 -0.1728
   48DOPE   D2A  556   3.958   8.878  15.488 -0.2211 -0.2134  0.0880
   48DOPE   C3A  557   3.987   8.560  15.179  0.0821 -0.1453 -0.1724
   48DOPE   C4A  558   3.834   8.546  14.686 -0.2031  0.0241 -0.0985
   48DOPE   C1B  559   3.169   8.992  15.615 -0.0989  0.2511  0.0355
   48DOPE   D2B  560   3.078   8.751  15.216 -0.2201 -0.3332 -0.0311
   48DOPE   C3B  561   3.007   8.398  14.942  0.2250  0.1167 -0.2047
   48DOPE   C4B  562   2.981   7.989  14.697 -0.1867 -0.0043  0.1160
   49DOPC   NC3  563   8.743   1.461  17.388  0.0051 -0.2264  0.0524
   49DOPC   PO4  564   8.579   1.105  17.482  0.0573 -0.0061  0.2382
   49DOPC   GL1  565   8.736   1.157  17.003  0.0506 -0.0375 -0.2164
   49DOPC   GL2  566   8.748   0.893  16.919 -0.0175  0.1254  0.0774
   49DOPC   C1A  567   8.849   1.241  16.563  0.1414  0.0358 -0.1800
   49DOPC   D2A  568   8.963   1.622  16.297  0.1874 -0.0911  0.0269
   49DOPC   C3A  569   8.797   1.809  15.939  0.0676  0.0604  0.0871
   49DOPC   C4A  570   8.912   2.186  15.666  0.3388  0.1750  0.0055
   49DOPC   C1B  571   8.504   0.668  16.548  0.3704  0.0207 -0.3622
   49DOPC   D2B  572   8.597   0.858  16.167 -0.0205 -0.0990  0.0301
   49DOPC   C3B  573   8.893   1.232  15.947 -0.1913  0.2192 -0.5234
   49DOPC   C4B  574   8.931   1.307  15.484 -0.1144  0.0494  0.0941
   50DOPC   NC3  575   7.741  32.439  16.237 -0.0054 -0.0529  0.0616
   50DOPC   PO4  576   7.941  32.754  16.159 -0.0533 -0.2534  0.0431
   50DOPC   GL1  577   7.995  32.845  15.773 -0.2267 -0.0549 -0.2164
   50DOPC   GL2  578   7.723  32.736  15.668 -0.0940 -0.0681  0.1170
   50DOPC   C1A  579   8.216  32.921  15.379 -0.0727 -0.0261  0.2330
   50DOPC   D2A  580   8.573  32.619  15.144  0.0246  0.1022  0.1241
   50DOPC   C3A  581   8.669  32.515  14.716  0.0709  0.0146 -0.4228
   50DOPC   C4A  582   9.091  32.342  14.551 -0.0554  0.1712 -0.0234
   50DOPC   C1B  583   7.749  33.164  15.479  0.1325 -0.5592 -0.3418
   50DOPC   D2B  584   7.611  33.576  15.355 -0.0397  0.2095  0.1110
   50DOPC   C3B  585   7.468  34.004  15.086  0.3841 -0.3988  0.1371
   50DOPC   C4B  586   7.225  34.285  14.790 -0.0374  0.0091 -0.2954
   51DOPC   NC3  587   3.714   7.142  16.773  0.0634  0.2787  0.0542
   51DOPC   PO4  588   3.510   7.442  16.671  0.1631 -0.2615 -0.2093
   51DOPC   GL1  589   3.690   7.388  16.350  0.1941 -0.0468  0.2162
   51DOPC   GL2  590   3.496   7.608  16.213 -0.0643 -0.3048 -0.2684
   51DOPC   C1A  591   3.667   6.926  16.194  0.3665 -0.0319  0.2285
   51DOPC   D2A  592   3.950   6.619  15.963  0.3753 -0.1947 -0.1425
   51DOPC   C3A  593   4.396   6.740  15.987  0.0445 -0.1586 -0.2752
   51DOPC   C4A  594   4.769   6.738  16.164 -0.3497 -0.0001 -0.0113
   51DOPC   C1B  595   3.554   7.351  15.837 -0.0922 -0.0703  0.1956
   51DOPC   D2B  596   3.552   7.406  15.324  0.1891 -0.0027  0.4702
   51DOPC   C3B  597   3.559   7.011  15.101  0.3471  0.1444  0.0357
   51DOPC   C4B  598   3.525   6.534  15.225 -0.0828 -0.0423  0.0749
   52DOPC   NC3  599   9.866   7.822  16.636  0.2324  0.1037  0.1562
   52DOPC   PO4  600  10.049   8.126  16.491  0.0643 -0.1192  0.1342
   52DOPC   GL1  601   9.690   8.240  16.229 -0.0038  0.3799 -0.1764
   52DOPC   GL2  602   9.724   7.955  16.072 -0.1201  0.1277 -0.2631
   52DOPC   C1A  603   9.474   8.514  15.878  0.2432  0.0643  0.1264
   52DOPC   D2A  604   9.571   8.887  15.644 -0.3119 -0.2322 -0.1858
   52DOPC   C3A  605   9.565   8.835  15.127 -0.0620 -0.0385 -0.1359
   52DOPC   C4A  606   9.570   8.814  14.709  0.0942  0.0135 -0.1476
   52DOPC   C1B  607   9.461   7.895  15.729  0.3978 -0.2745  0.0519
   52DOPC   D2B  608   9.043   7.917  15.562  0.2315  0.1441  0.0047
   52DOPC   C3B  609   8.768   8.316  15.448  0.0128 -0.2474  0.2509
   52DOPC   C4B  610   8.441   8.398  15.123 -0.1300  0.0425 -0.1596
   53DOPS   CNO  611   4.208   4.877  17.402 -0.0492 -0.0909 -0.1955
   53DOPS   PO4  612   4.330   5.187  17.215 -0.1751 -0.2245 -0.2347
   53DOPS   GL1  613   4.298   5.255  16.822 -0.0558  0.1848 -0.0448
   53DOPS   GL2  614   4.554   5.107  16.757  0.1178 -0.3332  0.4178
   53DOPS   C1A  615   4.329   5.676  16.645  0.5264  0.1304 -0.0945
   53DOPS   D2A  616   4.094   5.969  16.478 -0.2448 -0.1514 -0.1167
   53DOPS   C3A  617   4.217   6.101  16.072 -0.0806 -0.1717  0.0037
   53DOPS   C4A  618   4.551   6.086  15.732  0.2101  0.0164  0.3256
   53DOPS   C1B  619   4.749   5.356  16.371  0.2314 -0.2820 -0.1707
   53DOPS   D2B  620   5.050   5.446  15.999 -0.4273  0.0185 -0.3178
   53DOPS   C3B  621   4.959   5.199  15.588 -0.1856 -0.2570 -0.0682
   53DOPS   C4B  622   4.674   4.822  15.390 -0.0580  0.0764  0.0574
   54DOPC   NC3  623   5.931   2.134  17.785  0.0031 -0.2687 -0.2875
   54DOPC   PO4  624   6.294   2.244  17.658  0.0114 -0.3506 -0.1754
   54DOPC   GL1  625   6.398   2.138  17.217  0.0256  0.4128 -0.1067
   54DOPC   GL2  626   6.263   1.937  17.031 -0.0648  0.1325  0.1412
   54DOPC   C1A  627   6.434   2.390  16.786 -0.0006  0.0964  0.0316
   54DOPC   D2A  628   6.270   2.582  16.371 -0.0130  0.0681 -0.3429
   54DOPC   C3A  629   5.870   2.613  16.214  0.1542 -0.2136 -0.0621
   54DOPC   C4A  630   5.629   2.687  15.805 -0.1329  0.3396  0.1898
   54DOPC   C1B  631   6.055   2.080  16.612 -0.0792 -0.2107 -0.1000
   54DOPC   D2B  632   6.078   2.136  16.143 -0.3370  0.1074 -0.1743
   54DOPC   C3B  633   5.877   2.146  15.755  0.2975 -0.1286  0.1706
   54DOPC   C4B  634   6.008   1.855  15.473 -0.0976  0.2502  0.2584
   55DOPS   CNO  635   7.340   5.601  17.151  0.0381 -0.3168 -0.0314
   55DOPS   PO4  636   7.045   5.754  17.328  0.2336 -0.1691 -0.0762
   55DOPS   GL1  637   6.976   5.767  16.900 -0.2530  0.1608  0.0368
   55DOPS   GL2  638   6.825   5.959  16.758 -0.0527  0.1764 -0.0136
   55DOPS   C1A  639   7.200   5.837  16.468 -0.1820 -0.0283 -0.2140
   55DOPS   D2A  640   7.488   6.160  16.261 -0.1910  0.1724  0.0828
   55DOPS   C3A  641   7.739   6.054  15.870  0.0461  0.2809 -0.0608
   55DOPS   C4A  642   7.643   5.989  15.443  0.1489 -0.1990 -0.0226
   55DOPS   C1B  643   7.018   6.252  16.402  0.3180  0.0704  0.0384
   55DOPS   D2B  644   7.231   6.589  16.217  0.2807  0.0249  0.2587
   55DOPS   C3B  645   7.055   6.807  15.837 -0.1380 -0.0341  0.0134
   55DOPS   C4B  646   7.093   6.687  15.385  0.2841 -0.1362  0.0650
   56POSM   NC3  647  13.247   0.895  16.224 -0.0108  0.0130 -0.1840
   56POSM   PO4  648  13.164   0.574  16.100 -0.1092 -0.1738 -0.0680
   56POSM   AM1  649  13.110   0.672  15.783 -0.1808 -0.1005  0.2105
   56POSM   AM2  650  13.271   0.826  15.631 -0.1581  0.0715  0.0540
   56POSM   T1A  651  12.734   0.748  15.467  0.2411  0.0411  0.1808
   56POSM   C2A  652  12.468   0.588  15.177 -0.1530  0.0512 -0.0193
   56POSM   C3A  653  12.132   0.734  14.846 -0.0261 -0.2753  0.2198
   56POSM   C1B  654  13.206   0.731  15.319  0.4578 -0.2364 -0.2700
   56POSM   D2B  655  13.157   0.576  14.911  0.1436  0.1308  0.0388
   56POSM   C3B  656  12.767   0.384  14.700 -0.0537  0.0568 -0.0500
   56POSM   C4B  657  12.422   0.479  14.457 -0.3065 -0.2515  0.1693
   57DOPS   CNO  658   2.298   4.371  17.347  0.1265 -0.0725 -0.1050
   57DOPS   PO4  659   2.607   4.383  17.123 -0.2325  0.1862  0.0207
   57DOPS   GL1  660   2.656   4.363  16.829  0.0510  0.0732 -0.3631
   57DOPS   GL2  661   2.636   4.113  16.694  0.0051  0.2494  0.0292
   57DOPS   C1A  662   2.573   4.586  16.408  0.0854 -0.0943  0.0327
   57DOPS   D2A  663   2.556   4.588  15.914 -0.0996 -0.2517 -0.1637
   57DOPS   C3A  664   2.618   5.038  15.655  0.0446  0.1329 -0.1130
   57DOPS   C4A  665   2.637   5.451  15.406  0.0105  0.1368 -0.3289
   57DOPS   C1B  666   2.632   4.150  16.238 -0.1414  0.2680 -0.0138
   57DOPS   D2B  667   2.735   4.080  15.849  0.1323  0.0056  0.2713
   57DOPS   C3B  668   2.665   4.345  15.496  0.1504 -0.2441  0.7133
   57DOPS   C4B  669   2.713   4.658  15.207  0.0519 -0.3417 -0.2622
   58DOPS   CNO  670  33.807   6.041  16.413  0.0455 -0.1469  0.1986
   58DOPS   PO4  671  33.583   6.053  16.095  0.0808  0.2439 -0.1817
   58DOPS   GL1  672  33.667   5.901  15.760  0.2014 -0.0436 -0.1328
   58DOPS   GL2  673  33.884   6.047  15.532  0.0976  0.0572 -0.1436
   58DOPS   C1A  674  33.847   5.520  15.540 -0.0312 -0.0562  0.0209
   58DOPS   D2A  675  33.769   5.144  15.303 -0.0457 -0.0884  0.1170
   58DOPS   C3A  676  33.806   4.729  15.109 -0.2705 -0.1275 -0.3022
   58DOPS   C4A  677  33.869   4.325  14.898  0.0340  0.1845  0.1042
   58DOPS   C1B  678  33.864   6.072  15.081 -0.1951 -0.0412 -0.2679
   58DOPS   D2B  679  33.893   5.981  14.622  0.2512 -0.1352 -0.2032
   58DOPS   C3B  680  34.291   6.049  14.356 -0.2511  0.0346  0.0790
   58DOPS   C4B  681  34.755   5.878  14.359 -0.1560 -0.0852  0.2276
   59DOPE   NH3  682   2.560   5.753  17.116 -0.2293 -0.1495  0.1572
   59DOPE   PO4  683   2.832   5.825  16.999  0.2837 -0.2262 -0.1520
   59DOPE   GL1  684   2.960   5.758  16.653 -0.1200 -0.0953 -0.1149
   59DOPE   GL2  685   3.013   6.003  16.565  0.2701 -0.2133  0.0944
   59DOPE   C1A  686   3.269   5.499  16.528 -0.1538  0.2215 -0.3793
   59DOPE   D2A  687   3.298   5.406  16.085 -0.2766  0.2701 -0.0301
   59DOPE   C3A  688   3.634   5.243  15.906  0.0578  0.1007 -0.2077
   59DOPE   C4A  689   4.083   5.201  15.866  0.2999 -0.1111  0.1754
   59DOPE   C1B  690   2.579   6.052  16.370 -0.3601 -0.2255 -0.1851
   59DOPE   D2B  691   2.474   6.022  15.937  0.2867 -0.2988  0.0351
   59DOPE   C3B  692   2.368   6.022  15.467  0.0051 -0.2542 -0.2985
   59DOPE   C4B  693   2.617   5.980  15.091 -0.0871  0.0010 -0.3305
   60DOPE   NH3  694   9.572  33.365  16.567 -0.1118 -0.0846  0.1629
   60DOPE   PO4  695   9.855  33.427  16.482 -0.0765 -0.2015  0.0300
   60DOPE   GL1  696  10.083  33.811  16.303 -0.0394  0.0748 -0.0526
   60DOPE   GL2  697   9.859  33.901  16.370 -0.0057 -0.0983 -0.1521
   60DOPE   C1A  698  10.248  33.749  15.864  0.1235 -0.1475 -0.1214
   60DOPE   D2A  699  10.145  33.838  15.426  0.2822  0.1794  0.0279
   60DOPE   C3A  700  10.248  33.535  15.092  0.1180  0.2343  0.0660
   60DOPE   C4A  701  10.086  33.272  14.741  0.4411 -0.1586  0.2106
   60DOPE   C1B  702   9.816  34.011  15.882 -0.1469  0.2315 -0.0533
   60DOPE   D2B  703   9.658  34.184  15.496 -0.0218  0.0211  0.3510
   60DOPE   C3B  704   9.186  34.327  15.459  0.0583 -0.2697 -0.1214
   60DOPE   C4B  705   8.791  34.561  15.574 -0.2873  0.2112  0.0535
   61DOPE   NH3  706   7.540   9.071  16.103  0.0473 -0.1706  0.2272
   61DOPE   PO4  707   7.798   8.907  16.050  0.3223 -0.0926  0.2491
   61DOPE   GL1  708   7.952   8.928  15.674  0.1315 -0.0884  0.1668
   61DOPE   GL2  709   7.774   8.650  15.546  0.0012 -0.0166 -0.0326
   61DOPE   C1A  710   7.648   8.998  15.273 -0.1806 -0.0775 -0.0020
   61DOPE   D2A  711   7.418   9.131  14.893  0.1659 -0.3297  0.1764
   61DOPE   C3A  712   7.126   9.050  14.558 -0.0601  0.3728 -0.1797
   61DOPE   C4A  713   6.750   9.249  14.431 -0.1019  0.1230  0.0367
   61DOPE   C1B  714   7.870   8.509  15.153  0.1182  0.2259 -0.0126
   61DOPE   D2B  715   7.608   8.653  14.809 -0.2624 -0.1561  0.0586
   61DOPE   C3B  716   7.262   8.510  14.607  0.0343 -0.1766  0.0603
   61DOPE   C4B  717   7.159   8.527  14.155  0.3171  0.1171  0.1674
   62DOPC   NC3  718   1.530   8.463  16.398  0.1030 -0.1203  0.2022
   62DOPC   PO4  719   1.808   8.239  16.284 -0.1224  0.1375  0.0541
   62DOPC   GL1  720   1.663   8.290  15.968  0.0869 -0.1951 -0.1609
   62DOPC   GL2  721   1.622   8.137  15.743  0.0709  0.0964 -0.2067
   62DOPC   C1A  722   1.265   8.468  15.769 -0.0834  0.0551  0.1964
   62DOPC   D2A  723   1.174   8.547  15.355  0.2363 -0.0468  0.1335
   62DOPC   C3A  724   1.347   8.348  15.054  0.2463 -0.3572 -0.4151
   62DOPC   C4A  725   1.626   8.391  14.701 -0.0601 -0.0058 -0.0542
   62DOPC   C1B  726   1.337   7.996  15.381 -0.2952 -0.2792  0.0117
   62DOPC   D2B  727   1.095   7.587  15.294  0.1301  0.0601  0.1338
   62DOPC   C3B  728   1.088   7.270  15.631  0.0350 -0.1082  0.2651
   62DOPC   C4B  729   1.296   7.101  16.017 -0.0225  0.2911 -0.0620
   63DOPC   NC3  730  12.806   6.515  15.190 -0.2124 -0.0165 -0.0744
   63DOPC   PO4  731  12.920   6.259  15.457  0.1311  0.0802 -0.1421
   63DOPC   GL1  732  12.890   6.076  15.160 -0.1704 -0.1754 -0.0585
   63DOPC   GL2  733  13.088   6.157  14.939 -0.1034  0.0715 -0.1468
   63DOPC   C1A  734  12.613   6.239  14.803 -0.1588 -0.0477  0.1947
   63DOPC   D2A  735  12.501   6.210  14.323  0.0205  0.0177 -0.2052
   63DOPC   C3A  736  12.503   5.908  13.962 -0.0584 -0.0853 -0.1650
   63DOPC   C4A  737  12.410   5.460  14.027 -0.0954 -0.0737 -0.1402
   63DOPC   C1B  738  13.052   6.125  14.496  0.0407  0.0184  0.1192
   63DOPC   D2B  739  12.980   6.365  14.079  0.1550  0.1304 -0.0864
   63DOPC   C3B  740  12.644   6.393  13.817  0.1499  0.2490  0.0695
   63DOPC   C4B  741  12.318   6.470  13.500  0.2768 -0.3276 -0.1705
   64POSM   NC3  742   3.364   5.821  16.962 -0.2085 -0.1911 -0.0978
   64POSM   PO4  743   3.408   6.210  17.021  0.1585  0.0461 -0.1262
   64POSM   AM1  744   3.425   6.245  16.680 -0.1006  0.2457 -0.0382
   64POSM   AM2  745   3.630   6.142  16.491  0.0808 -0.0594  0.1032
   64POSM   T1A  746   3.364   6.533  16.227 -0.1272  0.1477  0.0205
   64POSM   C2A  747   3.454   6.616  15.794  0.0062 -0.2453 -0.0008
   64POSM   C3A  748   3.753   6.892  15.544 -0.1342 -0.1663 -0.1574
   64POSM   C1B  749   3.769   6.241  16.157  0.1674  0.1150 -0.0794
   64POSM   D2B  750   3.764   6.188  15.690 -0.0276 -0.0631  0.0950
   64POSM   C3B  751   4.156   6.381  15.547  0.1186  0.1099 -0.2714
   64POSM   C4B  752   4.552   6.498  15.356  0.0074  0.2950  0.2064
   65POSM   NC3  753   0.570  11.465  15.142  0.0061 -0.1430  0.2604
   65POSM   PO4  754   0.239  11.255  15.059  0.0652 -0.1913  0.0907
   65POSM   AM1  755   0.121  11.158  14.749 -0.3058 -0.0072 -0.0930
   65POSM   AM2  756  -0.088  11.140  14.603 -0.0372  0.2153  0.1571
   65POSM   T1A  757   0.241  10.827  14.377  0.3468 -0.0956  0.0617
   65POSM   C2A  758   0.479  10.633  13.978 -0.1344  0.1411 -0.1185
   65POSM   C3A  759   0.370  10.660  13.547  0.2156  0.0431  0.0967
   65POSM   C1B  760  -0.213  10.966  14.366 -0.0828  0.0365 -0.0004
   65POSM   D2B  761  -0.358  10.898  13.981 -0.1402  0.2991  0.3238
   65POSM   C3B  762  -0.118  10.586  13.741  0.3107  0.0098  0.2211
   65POSM   C4B  763  -0.165  10.198  13.465  0.3557 -0.1598  0.0181
   66DOPE   NH3  764   1.826   3.356  16.625  0.0182 -0.2702  0.0852
   66DOPE   PO4  765   2.078   3.365  16.395  0.1698  0.0913 -0.1927
   66DOPE   GL1  766   1.964   3.340  16.046  0.1893  0.0007 -0.2782
   66DOPE   GL2  767   2.054   3.064  15.931  0.0796  0.1819 -0.2014
   66DOPE   C1A  768   1.876   3.519  15.602 -0.1469 -0.2827 -0.3448
   66DOPE   D2A  769   1.700   3.803  15.268  0.2053  0.1935 -0.1169
   66DOPE   C3A  770   2.031   3.959  15.002  0.2349  0.0860  0.0076
   66DOPE   C4A  771   2.272   3.998  14.616 -0.4134 -0.2427 -0.0111
   66DOPE   C1B  772   2.329   3.446  15.819 -0.1677  0.3898 -0.0512
   66DOPE   D2B  773   2.747   3.561  15.782 -0.1709 -0.3208  0.1727
   66DOPE   C3B  774   2.811   3.799  15.452  0.1327  0.1706 -0.0265
   66DOPE   C4B  775   2.635   4.027  15.003  0.0582  0.1777 -0.0405
   67DOPE   NH3  776   1.391   4.705  16.950  0.0280 -0.1353  0.4177
   67DOPE   PO4  777   1.304   4.448  16.821 -0.0800 -0.2530  0.0255
   67DOPE   GL1  778   1.421   4.468  16.469  0.0645 -0.1965 -0.1644
   67DOPE   GL2  779   1.684   4.557  16.567 -0.1743  0.0380  0.0205
   67DOPE   C1A  780   1.445   4.873  16.218  0.0236 -0.0858 -0.0639
   67DOPE   D2A  781   1.730   5.218  16.197  0.0358  0.3735  0.0891
   67DOPE   C3A  782   1.750   5.322  15.721  0.0091  0.0403 -0.5814
   67DOPE   C4A  783   2.194   5.272  15.564 -0.1455  0.0704 -0.0515
   67DOPE   C1B  784   2.101   4.334  16.322 -0.3248  0.1296 -0.0495
   67DOPE   D2B  785   2.181   3.932  16.030  0.0210  0.1823 -0.3889
   67DOPE   C3B  786   2.350   3.946  15.590 -0.1768  0.0162  0.3805
   67DOPE   C4B  787   2.298   3.624  15.272  0.1773  0.0285 -0.0447
   68DOPE   NH3  788   5.571  10.938  15.713  0.0586  0.0238  0.0848
   68DOPE   PO4  789   5.649  10.689  15.899  0.1957 -0.0947 -0.1978
   68DOPE   GL1  790   5.589  10.356  15.616 -0.2985 -0.0030 -0.3019
   68DOPE   GL2  791   5.327  10.351  15.618  0.0595  0.2678  0.1960
   68DOPE   C1A  792   5.458   9.962  15.425  0.2475 -0.1984 -0.0057
   68DOPE   D2A  793   5.271   9.924  14.976  0.0822  0.3819  0.1836
   68DOPE   C3A  794   5.227   9.511  14.799  0.2550  0.1076  0.2739
   68DOPE   C4A  795   5.085   9.053  14.658 -0.0812  0.3287 -0.0640
   68DOPE   C1B  796   5.047  10.369  15.215  0.1273 -0.0446 -0.1312
   68DOPE   D2B  797   4.727  10.641  14.962 -0.0491 -0.0767  0.0184
   68DOPE   C3B  798   4.519  10.474  14.593  0.0081  0.0537  0.3374
   68DOPE   C4B  799   4.496  10.032  14.464  0.1130 -0.1879 -0.3377
   69DOPC   NC3  800  33.831   4.043  16.087  0.1820 -0.0590  0.0181
   69DOPC   PO4  801  34.141   3.966  16.376 -0.2523 -0.1338  0.1214
   69DOPC   GL1  802  34.347   4.132  16.027 -0.1557  0.1452 -0.0762
   69DOPC   GL2  803  34.152   4.351  15.890  0.1894 -0.0305 -0.0532
   69DOPC   C1A  804  34.388   3.965  15.588 -0.3458 -0.0285  0.1330
   69DOPC   D2A  805  34.701   3.975  15.285 -0.1515  0.0892  0.0859
   69DOPC   C3A  806  34.863   4.366  15.179  0.2328  0.2677  0.0673
   69DOPC   C4A  807  34.728   4.754  15.425  0.2566  0.0432 -0.1188
   69DOPC   C1B  808  34.320   4.503  15.552  0.1740  0.3036 -0.2286
   69DOPC   D2B  809  34.334   4.502  15.089  0.0212 -0.1952 -0.1296
   69DOPC   C3B  810  34.141   4.734  14.716 -0.0151  0.0159  0.2613
   69DOPC   C4B  811  33.631   4.709  14.577  0.3088 -0.2201 -0.0361
   70DOPC   NC3  812   0.837   6.042  16.764  0.1348  0.0283  0.0999
   70DOPC   PO4  813   1.065   6.261  16.536 -0.1382 -0.0442  0.1330
   70DOPC   GL1  814   1.216   6.088  16.240  0.0133  0.3816  0.3110
   70DOPC   GL2  815   1.008   6.072  16.068  0.0832 -0.0505  0.1600
   70DOPC   C1A  816   1.435   6.224  15.795  0.0199 -0.0011 -0.0944
   70DOPC   D2A  817   1.419   6.153  15.343 -0.1245  0.2189  0.0142
   70DOPC   C3A  818   1.019   6.281  15.203  0.1104 -0.0371  0.3354
   70DOPC   C4A  819   0.740   6.684  15.225  0.0071  0.1530  0.4348
   70DOPC   C1B  820   0.970   6.037  15.606 -0.1700  0.0520 -0.1388
   70DOPC   D2B  821   1.024   5.688  15.286 -0.0274  0.0363 -0.1932
   70DOPC   C3B  822   0.781   5.571  14.880  0.1975 -0.0596 -0.1460
   70DOPC   C4B  823   0.765   5.771  14.469  0.0924  0.1187  0.2870
   71POSM   NC3  824   5.059   0.833  17.066  0.0410 -0.0597 -0.1844
   71POSM   PO4  825   5.099   1.170  17.299  0.0282 -0.0665 -0.1657
   71POSM   AM1  826   5.095   1.269  16.985  0.1346  0.1725  0.0265
   71POSM   AM2  827   4.978   1.162  16.725 -0.1171  0.1864 -0.0211
   71POSM   T1A  828   5.304   1.497  16.567  0.3337  0.0694  0.0473
   71POSM   C2A  829   5.516   1.822  16.348 -0.0372 -0.2051  0.0292
   71POSM   C3A  830   5.560   2.256  16.082  0.0555 -0.1871 -0.0594
   71POSM   C1B  831   5.011   1.136  16.392  0.2675 -0.1237  0.3147
   71POSM   D2B  832   5.137   1.029  15.931  0.1899 -0.1674 -0.0467
   71POSM   C3B  833   5.250   1.218  15.533 -0.0510 -0.3280  0.2242
   71POSM   C4B  834   5.155   1.320  15.106 -0.1115  0.4106 -0.5222
   72DOPC   NC3  835   2.584  12.050  15.489 -0.0378 -0.1439  0.2326
   72DOPC   PO4  836   2.875  12.224  15.209  0.0754 -0.0134  0.1172
   72DOPC   GL1  837   2.784  12.105  14.795 -0.2220 -0.4812  0.2355
   72DOPC   GL2  838   2.533  12.200  14.587  0.0814 -0.2681  0.0003
   72DOPC   C1A  839   2.860  11.869  14.378  0.1593 -0.0961 -0.0782
   72DOPC   D2A  840   2.852  11.677  13.979 -0.0868 -0.2260 -0.0267
   72DOPC   C3A  841   2.570  11.391  13.712 -0.0507 -0.0760 -0.3040
   72DOPC   C4A  842   2.499  11.384  13.269  0.0872 -0.3740 -0.0736
   72DOPC   C1B  843   2.601  12.146  14.065  0.1695  0.2298  0.3065
   72DOPC   D2B  844   2.581  11.961  13.679  0.2659 -0.1177  0.2348
   72DOPC   C3B  845   2.443  12.127  13.255 -0.1295  0.0057 -0.1354
   72DOPC   C4B  846   2.168  11.863  13.001 -0.3030 -0.1246 -0.0357
   73DOPE   NH3  847  11.328   1.357  16.762  0.5606  0.2851 -0.3129
   73DOPE   PO4  848  11.058   1.234  16.743  0.0485  0.2950  0.4303
   73DOPE   GL1  849  10.802   1.146  16.412 -0.0191  0.2677 -0.1854
   73DOPE   GL2  850  10.752   0.847  16.374  0.0471  0.1245 -0.0417
   73DOPE   C1A  851  10.761   1.268  15.984 -0.3483 -0.0290  0.2740
   73DOPE   D2A  852  10.533   1.471  15.633  0.0413  0.1442 -0.3571
   73DOPE   C3A  853  10.311   1.059  15.494 -0.0694  0.1378 -0.1281
   73DOPE   C4A  854  10.278   0.668  15.242  0.0737 -0.2573 -0.0711
   73DOPE   C1B  855  10.364   0.886  16.144 -0.4075  0.2153  0.1139
   73DOPE   D2B  856  10.120   1.247  15.982  0.1149 -0.2082 -0.1402
   73DOPE   C3B  857   9.829   1.119  15.643  0.0859 -0.2958  0.0908
   73DOPE   C4B  858   9.497   1.341  15.456 -0.1858  0.0318 -0.2707
   74DOPC   NC3  859   0.737   9.182  15.509  0.0047 -0.0220 -0.1200
   74DOPC   PO4  860   0.997   9.074  15.789  0.0122  0.0070 -0.0754
   74DOPC   GL1  861   1.202   9.197  15.322 -0.1143 -0.1829  0.2874
   74DOPC   GL2  862   1.346   9.441  15.388  0.0251 -0.0515  0.3588
   74DOPC   C1A  863   1.001   9.405  14.972 -0.0216  0.0597 -0.0936
   74DOPC   D2A  864   0.672   9.436  14.578  0.1571  0.2493 -0.1511
   74DOPC   C3A  865   0.553   9.139  14.285  0.1906 -0.1078 -0.2351
   74DOPC   C4A  866   0.450   9.100  13.850  0.0825 -0.0550 -0.1072
   74DOPC   C1B  867   1.492   9.390  14.944 -0.2179 -0.0511 -0.0941
   74DOPC   D2B  868   1.539   9.484  14.495 -0.0069  0.3496 -0.1509
   74DOPC   C3B  869   1.566   9.195  14.129  0.2681  0.1628  0.1233
   74DOPC   C4B  870   1.641   8.847  13.767 -0.4026  0.0783 -0.3336
   75DOPE   NH3  871  33.522   9.660  15.163  0.0049  0.0662 -0.2341
   75DOPE   PO4  872  33.256   9.777  15.037  0.0832 -0.3589 -0.0298
   75DOPE   GL1  873  33.470   9.777  14.605  0.2610 -0.0776 -0.3436
   75DOPE   GL2  874  33.715   9.693  14.720  0.2150  0.0579 -0.0535
   75DOPE   C1A  875  33.243   9.586  14.261  0.3246  0.0892 -0.0888
   75DOPE   D2A  876  33.053   9.150  14.219 -0.1664  0.3312 -0.0344
   75DOPE   C3A  877  33.328   8.885  14.528  0.1659 -0.0524 -0.0325
   75DOPE   C4A  878  33.624   8.646  14.795  0.1114 -0.0250 -0.0253
   75DOPE   C1B  879  34.087   9.706  14.413  0.0753 -0.1062  0.2775
   75DOPE   D2B  880  34.181   9.839  13.992 -0.1125 -0.0475  0.1458
   75DOPE   C3B  881  34.543   9.763  13.691 -0.0408  0.0426  0.1209
   75DOPE   C4B  882  34.557   9.770  13.270 -0.0489  0.1278  0.2145
   76DOPE   NH3  883   9.273   0.177  17.314 -0.2139 -0.2977 -0.2311
   76DOPE   PO4  884   9.475   0.442  17.294 -0.0284  0.1228  0.1745
   76DOPE   GL1  885   9.332   0.699  16.901  0.0950 -0.0960 -0.4099
   76DOPE   GL2  886   9.208   0.996  16.845  0.1485 -0.0481 -0.2879
   76DOPE   C1A  887   9.680   0.687  16.531 -0.0523 -0.0687 -0.0865
   76DOPE   D2A  888   9.875   0.651  16.059  0.2149 -0.2259  0.1840
   76DOPE   C3A  889   9.889   0.624  15.582 -0.1511  0.2186  0.1423
   76DOPE   C4A  890   9.698   0.836  15.188 -0.1326  0.0306 -0.1054
   76DOPE   C1B  891   9.201   1.000  16.369  0.0954 -0.2907 -0.2538
   76DOPE   D2B  892   9.586   1.077  16.102  0.0919  0.0380  0.4141
   76DOPE   C3B  893   9.882   1.099  16.388 -0.0008 -0.3797  0.1091
   76DOPE   C4B  894  10.308   1.003  16.604 -0.1475  0.2191  0.0046
   77DOPC   NC3  895   4.026   3.644  16.697 -0.0303 -0.1949  0.1583
   77DOPC   PO4  896   3.790   3.773  16.947 -0.1999  0.0152 -0.3468
   77DOPC   GL1  897   3.536   3.771  16.598  0.1860 -0.1587  0.1359
   77DOPC   GL2  898   3.710   3.864  16.304  0.3721 -0.2360 -0.0434
   77DOPC   C1A  899   3.425   3.449  16.315  0.0504  0.1750  0.1824
   77DOPC   D2A  900   3.378   3.255  15.915 -0.1751 -0.0002  0.0635
   77DOPC   C3A  901   3.196   3.462  15.486 -0.2620 -0.1596 -0.2071
   77DOPC   C4A  902   3.012   3.530  15.069  0.0742  0.0382  0.0674
   77DOPC   C1B  903   4.169   3.929  16.247 -0.0539 -0.1462 -0.1628
   77DOPC   D2B  904   4.493   4.129  16.001  0.0502 -0.4046  0.0668
   77DOPC   C3B  905   4.938   4.131  15.860 -0.3887 -0.1642 -0.0466
   77DOPC   C4B  906   5.244   4.017  15.576  0.0269  0.1721 -0.0852
   78DOPC   NC3  907   3.032   3.941  16.848  0.0786 -0.1208  0.0040
   78DOPC   PO4  908   2.923   3.605  16.682 -0.1097  0.0392  0.2473
   78DOPC   GL1  909   2.947   3.744  16.242  0.4355 -0.1977 -0.4161
   78DOPC   GL2  910   3.098   3.989  16.357  0.0473 -0.0520  0.1630
   78DOPC   C1A  911   3.188   3.768  15.858  0.2129 -0.1064 -0.0460
   78DOPC   D2A  912   3.600   3.697  15.688  0.0189  0.3979 -0.2160
   78DOPC   C3A  913   3.684   3.280  15.432 -0.1704 -0.0092 -0.4442
   78DOPC   C4A  914   3.812   2.827  15.331 -0.0271 -0.0050  0.1231
   78DOPC   C1B  915   3.412   4.187  16.046  0.1220  0.3821 -0.0933
   78DOPC   D2B  916   3.240   4.218  15.620  0.3643 -0.1841  0.0726
   78DOPC   C3B  917   3.045   4.650  15.564 -0.0791  0.4687  0.1304
   78DOPC   C4B  918   3.032   5.041  15.348  0.0404 -0.0386 -0.1031
   79DOPC   NC3  919  10.330   7.328  16.390  0.0931  0.2616 -0.1118
   79DOPC   PO4  920   9.953   7.363  16.442 -0.1110 -0.2623  0.1873
   79DOPC   GL1  921   9.766   7.266  16.132  0.1527  0.3338 -0.4361
   79DOPC   GL2  922   9.820   7.489  15.932 -0.1679 -0.0878  0.0057
   79DOPC   C1A  923   9.451   7.036  16.001 -0.0855 -0.0791  0.1952
   79DOPC   D2A  924   9.388   6.913  15.593 -0.0694 -0.1631  0.0024
   79DOPC   C3A  925   9.704   6.608  15.444 -0.2845 -0.0120  0.2668
   79DOPC   C4A  926   9.808   6.209  15.291 -0.1315  0.0117  0.0816
   79DOPC   C1B  927   9.842   7.082  15.653  0.1029 -0.1117 -0.1816
   79DOPC   D2B  928   9.892   7.046  15.209  0.0703  0.3169  0.2037
   79DOPC   C3B  929   9.880   7.389  14.931  0.1415  0.2300 -0.0881
   79DOPC   C4B  930   9.834   7.708  14.646  0.0329  0.0320 -0.3121
   80DOPC   NC3  931  34.312   1.663  15.858 -0.1710 -0.1688  0.0050
   80DOPC   PO4  932  34.263   1.980  16.099  0.4208 -0.0547  0.1811
   80DOPC   GL1  933  34.129   2.295  15.764  0.3337  0.3229 -0.0486
   80DOPC   GL2  934  34.331   2.533  15.710 -0.0398  0.4831 -0.1569
   80DOPC   C1A  935  34.105   2.258  15.290  0.0650  0.2433 -0.2589
   80DOPC   D2A  936  34.325   2.238  14.898 -0.1224 -0.1301 -0.1220
   80DOPC   C3A  937  34.254   1.906  14.590  0.2241 -0.0569  0.1271
   80DOPC   C4A  938  34.343   1.745  14.205 -0.2511  0.1125  0.1584
   80DOPC   C1B  939  34.143   2.763  15.355  0.1243  0.2520  0.3270
   80DOPC   D2B  940  33.852   3.058  15.197 -0.2189 -0.1621  0.4087
   80DOPC   C3B  941  33.869   3.171  14.725 -0.0319  0.2467  0.1550
   80DOPC   C4B  942  33.681   3.271  14.296 -0.0703  0.5497 -0.0863
   81DOPC   NC3  943   5.245   3.276  17.482 -0.0061  0.0470  0.0354
   81DOPC   PO4  944   5.614   3.382  17.420 -0.3112  0.1614 -0.2556
   81DOPC   GL1  945   5.757   3.458  17.090 -0.0589 -0.1710  0.1395
   81DOPC   GL2  946   5.780   3.763  17.059 -0.3624 -0.1687 -0.0922
   81DOPC   C1A  947   5.837   3.233  16.714 -0.0995  0.1831  0.1931
   81DOPC   D2A  948   5.844   3.246  16.225 -0.1133 -0.0829  0.3620
   81DOPC   C3A  949   6.096   3.033  15.936  0.0751  0.2637  0.0087
   81DOPC   C4A  950   6.155   2.580  15.803  0.1162 -0.2765  0.4393
   81DOPC   C1B  951   5.552   3.680  16.719  0.2023 -0.3665  0.0775
   81DOPC   D2B  952   5.408   3.493  16.347  0.1956  0.1440 -0.0307
   81DOPC   C3B  953   5.281   3.680  15.930 -0.0317  0.2997 -0.0589
   81DOPC   C4B  954   5.130   3.502  15.530 -0.1997  0.0063  0.0767
   82DOPE   NH3  955   8.625   4.636  17.328  0.1232 -0.6122  0.0373
   82DOPE   PO4  956   8.576   4.922  17.306  0.0275  0.0805  0.0158
   82DOPE   GL1  957   8.553   4.827  16.859  0.0564  0.1360 -0.0619
   82DOPE   GL2  958   8.639   4.518  16.794 -0.1021  0.2971  0.2021
   82DOPE   C1A  959   8.281   4.933  16.492  0.1294  0.0461 -0.1331
   82DOPE   D2A  960   8.064   5.123  16.134 -0.0452  0.0154  0.0202
   82DOPE   C3A  961   8.040   5.024  15.669  0.2340  0.1858  0.2241
   82DOPE   C4A  962   8.065   4.725  15.301  0.1132  0.0630  0.1425
   82DOPE   C1B  963   8.764   4.669  16.406  0.0527 -0.1770  0.0800
   82DOPE   D2B  964   8.464   4.793  16.063  0.2817  0.1426  0.0751
   82DOPE   C3B  965   8.578   4.875  15.594 -0.0599 -0.2221 -0.1235
   82DOPE   C4B  966   8.757   5.191  15.342 -0.0861  0.2850  0.0458
   83DOPE   NH3  967   6.447   4.007  17.361  0.2003 -0.3308 -0.0501
   83DOPE   PO4  968   6.615   3.742  17.364  0.1172  0.2554  0.0486
   83DOPE   GL1  969   6.649   3.837  16.944  0.2734 -0.1571  0.0661
   83DOPE   GL2  970   6.942   3.965  16.884  0.3631 -0.0418 -0.1104
   83DOPE   C1A  971   6.543   4.123  16.591  0.1051  0.2018 -0.2992
   83DOPE   D2A  972   6.592   4.017  16.130 -0.0830  0.0399 -0.2102
   83DOPE   C3A  973   6.489   4.189  15.699  0.0755 -0.4253 -0.0909
   83DOPE   C4A  974   6.352   4.553  15.413  0.1016  0.0880  0.1315
   83DOPE   C1B  975   7.198   3.792  16.527 -0.2537  0.3629  0.0320
   83DOPE   D2B  976   7.273   3.803  16.027  0.0975 -0.0567  0.1819
   83DOPE   C3B  977   7.166   3.521  15.693  0.0091  0.0739 -0.1848
   83DOPE   C4B  978   7.187   3.344  15.298 -0.1872  0.0277  0.2311
   84POSM   NC3  979   4.544   9.644  17.091  0.1004 -0.1418 -0.1921
   84POSM   PO4  980   4.793   9.346  16.990  0.1182 -0.1448 -0.1202
   84POSM   AM1  981   4.717   9.471  16.679  0.2297  0.1335 -0.1299
   84POSM   AM2  982   4.474   9.544  16.528 -0.0779  0.0498 -0.1359
   84POSM   T1A  983   4.718   9.219  16.195  0.0858 -0.1432 -0.3213
   84POSM   C2A  984   4.940   9.293  15.866  0.0566 -0.0382  0.0886
   84POSM   C3A  985   5.280   9.157  15.592 -0.1247 -0.0060 -0.1705
   84POSM   C1B  986   4.463   9.638  16.187 -0.1974 -0.3225  0.0725
   84POSM   D2B  987   4.582   9.651  15.720 -0.2237 -0.0276 -0.0256
   84POSM   C3B  988   4.681   9.342  15.360 -0.0329 -0.3241  0.2918
   84POSM   C4B  989   4.676   9.097  14.955  0.0293  0.0705  0.0172
   85DOPC   NC3  990   8.476  32.634  16.343 -0.2467  0.1659 -0.3749
   85DOPC   PO4  991   8.737  32.852  16.546 -0.2389 -0.0324 -0.3298
   85DOPC   GL1  992   8.643  33.161  16.323  0.4845  0.0877  0.2403
   85DOPC   GL2  993   8.340  33.129  16.259 -0.0322  0.2958  0.1247
   85DOPC   C1A  994   8.754  33.569  16.033 -0.0323  0.0999  0.0145
   85DOPC   D2A  995   8.758  33.914  15.738  0.1412 -0.3772 -0.1261
   85DOPC   C3A  996   8.269  33.873  15.713 -0.3255 -0.0645  0.3274
   85DOPC   C4A  997   7.866  33.814  15.781 -0.0027 -0.3471 -0.0971
   85DOPC   C1B  998   8.521  33.151  15.873  0.2021  0.1467  0.2351
   85DOPC   D2B  999   8.770  33.390  15.560 -0.1080 -0.0042  0.0552
   85DOPC   C3B 1000   8.524  33.695  15.327  0.0700  0.1408  0.0648
   85DOPC   C4B 1001   8.437  34.121  15.214  0.1066  0.4126 -0.4392
   86POSM   NC3 1002   3.940   0.469  16.505 -0.1836 -0.1314  0.2459
   86POSM   PO4 1003   3.578   0.634  16.598  0.0705 -0.1263 -0.0270
   86POSM   AM1 1004   3.721   0.788  16.335 -0.0496 -0.2582  0.0631
   86POSM   AM2 1005   3.843   1.095  16.337  0.1699 -0.0782  0.0727
   86POSM   T1A 1006   3.698   0.982  15.867 -0.1981  0.0534  0.1454
   86POSM   C2A 1007   3.894   1.095  15.434  0.1085  0.1992  0.2407
   86POSM   C3A 1008   3.874   1.373  15.073  0.0948  0.1629 -0.1844
   86POSM   C1B 1009   3.786   1.440  16.265  0.2245  0.1052 -0.0771
   86POSM   D2B 1010   3.899   1.813  16.016  0.0863  0.3123  0.2217
   86POSM   C3B 1011   3.577   1.995  15.651  0.3019 -0.1124  0.3153
   86POSM   C4B 1012   3.608   2.306  15.360  0.0274  0.0587 -0.4989
   87POSM   NC3 1013   0.523  13.819  14.043 -0.2834 -0.0821 -0.2982
   87POSM   PO4 1014   0.270  14.078  13.837  0.5226 -0.2804 -0.0774
   87POSM   AM1 1015   0.304  14.041  13.485  0.1222  0.1650 -0.2994
   87POSM   AM2 1016   0.252  13.803  13.374 -0.1177  0.3421 -0.3196
   87POSM   T1A 1017   0.130  14.124  13.068  0.0063 -0.1058 -0.0304
   87POSM   C2A 1018  -0.033  14.272  12.636  0.1161 -0.2238  0.1414
   87POSM   C3A 1019  -0.092  14.121  12.240 -0.0448 -0.1233  0.2385
   87POSM   C1B 1020   0.274  13.678  13.031 -0.0294 -0.2614 -0.2417
   87POSM   D2B 1021   0.370  13.455  12.598 -0.3107 -0.0152 -0.1356
   87POSM   C3B 1022   0.336  13.161  12.247 -0.0187 -0.3553 -0.1133
   87POSM   C4B 1023   0.272  12.740  12.224  0.2435 -0.3501 -0.2480
   88DOPS   CNO 1024   4.106   7.275  17.353 -0.1482 -0.1136  0.0590
   88DOPS   PO4 1025   4.433   7.305  17.138 -0.0919  0.1888 -0.0926
   88DOPS   GL1 1026   4.492   7.282  16.788  0.0260  0.1552 -0.0587
   88DOPS   GL2 1027   4.438   7.012  16.651  0.1915  0.1860 -0.1323
   88DOPS   C1A 1028   4.552   7.267  16.283 -0.0628  0.0217  0.0444
   88DOPS   D2A 1029   4.690   7.163  15.797  0.2292 -0.0258 -0.0811
   88DOPS   C3A 1030   4.673   7.464  15.407  0.1596 -0.0756 -0.2706
   88DOPS   C4A 1031   4.478   7.799  15.093  0.1455 -0.0438 -0.3254
   88DOPS   C1B 1032   4.135   6.987  16.324 -0.2987  0.3922  0.0430
   88DOPS   D2B 1033   4.046   7.179  15.853  0.0883 -0.0947  0.3218
   88DOPS   C3B 1034   4.302   6.968  15.522  0.1236  0.3132 -0.1277
   88DOPS   C4B 1035   4.204   6.787  15.120  0.1793 -0.0113  0.1465
   89DOPC   NC3 1036   2.079  10.496  15.748  0.1576  0.0984  0.0266
   89DOPC   PO4 1037   2.382  10.582  15.575 -0.0219 -0.0562 -0.2132
   89DOPC   GL1 1038   2.468  10.511  15.159 -0.5395 -0.2355  0.0408
   89DOPC   GL2 1039   2.577  10.244  15.218  0.1071 -0.2921 -0.1670
   89DOPC   C1A 1040   2.794  10.543  14.788 -0.0166 -0.3406  0.1066
   89DOPC   D2A 1041   3.180  10.461  14.562 -0.2637  0.2846 -0.0427
   89DOPC   C3A 1042   3.084  10.302  14.144  0.0458 -0.1321  0.1117
   89DOPC   C4A 1043   3.165  10.016  13.847  0.1538  0.1540  0.3849
   89DOPC   C1B 1044   2.707   9.873  15.011 -0.1245  0.2955  0.3371
   89DOPC   D2B 1045   2.718   9.536  14.734 -0.1286  0.0009 -0.1665
   89DOPC   C3B 1046   2.512   9.357  14.356  0.2233  0.2324  0.3660
   89DOPC   C4B 1047   2.499   9.114  13.952 -0.1881 -0.1999 -0.1331
   90DOPE   NH3 1048   4.566   7.723  16.861  0.0074  0.0154 -0.2822
   90DOPE   PO4 1049   4.313   7.896  16.916 -0.0930  0.1783 -0.4786
   90DOPE   GL1 1050   4.238   7.870  16.528 -0.1922 -0.1142  0.2064
   90DOPE   GL2 1051   4.514   7.960  16.400 -0.2363  0.2031 -0.0899
   90DOPE   C1A 1052   4.160   7.550  16.214  0.0404 -0.2188 -0.2746
   90DOPE   D2A 1053   4.401   7.608  15.814 -0.0728 -0.3044 -0.2687
   90DOPE   C3A 1054   4.098   7.466  15.450 -0.2167  0.2541 -0.0878
   90DOPE   C4A 1055   3.989   7.392  15.029  0.0926 -0.1126 -0.1071
   90DOPE   C1B 1056   4.520   8.140  15.921  0.1196 -0.2612  0.0179
   90DOPE   D2B 1057   4.864   8.420  15.729  0.1570 -0.1810  0.0278
   90DOPE   C3B 1058   5.302   8.528  15.612  0.0077 -0.0993 -0.0761
   90DOPE   C4B 1059   5.673   8.847  15.501 -0.0794  0.0280  0.0595
   91DOPE   NH3 1060   5.377   0.051  17.030  0.3571 -0.5597  0.3060
   91DOPE   PO4 1061   5.182   0.319  17.071 -0.1627  0.1739 -0.2395
   91DOPE   GL1 1062   5.028   0.318  16.697 -0.0228 -0.1997  0.1077
   91DOPE   GL2 1063   4.961   0.009  16.706  0.2581 -0.3320 -0.3385
   91DOPE   C1A 1064   4.836   0.327  16.307  0.0520 -0.2892  0.1056
   91DOPE   D2A 1065   5.201   0.203  15.995  0.0441 -0.1759  0.1224
   91DOPE   C3A 1066   5.297   0.365  15.564  0.2219 -0.2605  0.3339
   91DOPE   C4A 1067   5.618   0.372  15.254 -0.0568 -0.0237 -0.2512
   91DOPE   C1B 1068   5.011  -0.184  16.284 -0.0316  0.0327 -0.1536
   91DOPE   D2B 1069   5.172  -0.321  15.882 -0.0392  0.0557  0.1982
   91DOPE   C3B 1070   5.154  -0.155  15.459 -0.2781  0.3415  0.0787
   91DOPE   C4B 1071   4.928  -0.314  15.120  0.2850  0.1323 -0.1196
   92DOPC   NC3 1072   6.607   0.062  17.014 -0.1936 -0.1200  0.5221
   92DOPC   PO4 1073   6.296   0.123  16.762  0.0147  0.2574  0.2196
   92DOPC   GL1 1074   6.329   0.460  16.548  0.0629  0.2665 -0.2130
   92DOPC   GL2 1075   6.064   0.631  16.651  0.0493 -0.3611  0.2805
   92DOPC   C1A 1076   6.654   0.379  16.208 -0.0225 -0.2728  0.3045
   92DOPC   D2A 1077   7.014   0.284  15.921 -0.1262 -0.0198  0.1401
   92DOPC   C3A 1078   6.857   0.451  15.496 -0.0625 -0.1310  0.1587
   92DOPC   C4A 1079   6.527   0.503  15.186  0.1437 -0.0562 -0.1910
   92DOPC   C1B 1080   5.897   0.719  16.248  0.3624  0.2186  0.1744
   92DOPC   D2B 1081   5.964   0.593  15.786  0.1115 -0.1312 -0.4009
   92DOPC   C3B 1082   6.065   0.521  15.378 -0.0075  0.0678 -0.0860
   92DOPC   C4B 1083   6.078   0.500  14.944  0.0441  0.0477  0.0086
   93POSM   NC3 1084   7.822   7.790  17.118 -0.0856  0.2597  0.0642
   93POSM   PO4 1085   7.581   7.477  17.020 -0.0092 -0.0548 -0.2785
   93POSM   AM1 1086   7.583   7.394  16.690  0.0278  0.4058  0.2418
   93POSM   AM2 1087   7.844   7.370  16.527  0.3367  0.1796  0.4821
   93POSM   T1A 1088   7.416   7.437  16.231  0.0918 -0.0600  0.0041
   93POSM   C2A 1089   7.104   7.298  15.953 -0.2295  0.0183 -0.2438
   93POSM   C3A 1090   7.152   7.152  15.472  0.0204 -0.0041 -0.3217
   93POSM   C1B 1091   8.055   7.147  16.399 -0.1347  0.2220  0.0718
   93POSM   D2B 1092   8.314   7.124  15.997 -0.0628  0.1951 -0.0778
   93POSM   C3B 1093   8.392   6.774  15.655  0.2043  0.2747  0.1694
   93POSM   C4B 1094   8.190   6.616  15.349  0.3831  0.0919 -0.1209
   94POSM   NC3 1095   1.164  13.269  14.246  0.0580  0.2449  0.1434
   94POSM   PO4 1096   1.072  12.868  14.137  0.2950  0.1549  0.0337
   94POSM   AM1 1097   1.017  12.954  13.835  0.0412  0.2789  0.4796
   94POSM   AM2 1098   0.843  12.852  13.645  0.0167 -0.0329  0.2074
   94POSM   T1A 1099   1.315  12.936  13.415 -0.1752 -0.0004  0.2616
   94POSM   C2A 1100   1.398  12.860  12.966 -0.1524 -0.1911  0.1334
   94POSM   C3A 1101   1.605  12.711  12.710  0.0146  0.0885  0.0908
   94POSM   C1B 1102   0.642  13.050  13.423 -0.2899 -0.1680 -0.0799
   94POSM   D2B 1103   0.499  13.197  13.055  0.2635  0.1242 -0.1359
   94POSM   C3B 1104   0.323  12.860  12.722 -0.0644 -0.2431 -0.2547
   94POSM   C4B 1105  -0.011  12.580  12.719 -0.0769  0.1635  0.0380
   95DOPC   NC3 1106   5.944   7.348  16.843  0.3790 -0.0071  0.0562
   95DOPC   PO4 1107   6.210   7.490  17.082  0.2611 -0.0732  0.2047
   95DOPC   GL1 1108   6.387   7.567  16.752 -0.1865 -0.2325 -0.0009
   95DOPC   GL2 1109   6.265   7.821  16.661 -0.0540 -0.1162 -0.0663
   95DOPC   C1A 1110   6.169   7.457  16.313 -0.3014 -0.1860 -0.2110
   95DOPC   D2A 1111   5.936   7.505  15.903 -0.1617  0.0033 -0.0381
   95DOPC   C3A 1112   6.098   7.320  15.494 -0.0976  0.0809 -0.1244
   95DOPC   C4A 1113   6.275   7.335  15.073 -0.1887  0.0598 -0.0265
   95DOPC   C1B 1114   6.020   7.936  16.233 -0.0055  0.0357 -0.2462
   95DOPC   D2B 1115   5.839   8.051  15.762 -0.3912 -0.1934 -0.0562
   95DOPC   C3B 1116   5.641   7.638  15.541  0.0348 -0.1775 -0.0616
   95DOPC   C4B 1117   5.738   7.405  15.133 -0.1879 -0.0207  0.0889
   96DOPS   CNO 1118   1.837   9.105  16.145 -0.0580  0.4295  0.5111
   96DOPS   PO4 1119   2.171   9.022  16.005  0.0983  0.0453 -0.2254
   96DOPS   GL1 1120   1.958   8.934  15.572 -0.2540 -0.1151  0.0276
   96DOPS   GL2 1121   2.276   8.960  15.463  0.0025 -0.3185 -0.0377
   96DOPS   C1A 1122   1.969   9.212  15.182  0.1268 -0.1849  0.3071
   96DOPS   D2A 1123   2.216   9.299  14.790 -0.0862 -0.0768  0.1010
   96DOPS   C3A 1124   2.128   9.059  14.393 -0.2115 -0.0293  0.0382
   96DOPS   C4A 1125   1.877   8.749  14.232 -0.0744  0.0581 -0.0075
   96DOPS   C1B 1126   2.067   8.568  15.239  0.0370  0.0256  0.1303
   96DOPS   D2B 1127   1.833   8.151  15.138  0.1311  0.0300 -0.1293
   96DOPS   C3B 1128   1.809   7.912  14.727 -0.0303  0.2476  0.0792
   96DOPS   C4B 1129   1.789   7.429  14.592 -0.0958  0.1864 -0.0004
   97DOPE   NH3 1130   9.090   4.505  17.237 -0.2697 -0.2966 -0.0642
   97DOPE   PO4 1131   9.097   4.787  17.459  0.3171  0.0748 -0.2031
   97DOPE   GL1 1132   9.398   4.916  17.254  0.0980  0.1774 -0.2469
   97DOPE   GL2 1133   9.490   4.760  17.028 -0.1250  0.1124 -0.1289
   97DOPE   C1A 1134   9.314   5.205  16.868 -0.2533  0.2767 -0.1521
   97DOPE   D2A 1135   9.271   5.026  16.425 -0.1980 -0.0576  0.0741
   97DOPE   C3A 1136   9.232   5.447  16.232 -0.0292 -0.0872 -0.2261
   97DOPE   C4A 1137   8.936   5.754  15.946  0.0171  0.0806  0.1085
   97DOPE   C1B 1138   9.370   4.507  16.698  0.3070  0.0253  0.0915
   97DOPE   D2B 1139   9.530   4.167  16.425  0.3375  0.2835 -0.0009
   97DOPE   C3B 1140   9.574   4.119  15.980  0.0759  0.0823 -0.0537
   97DOPE   C4B 1141   9.455   4.308  15.595 -0.3235 -0.0874 -0.0566
   98DOPS   CNO 1142   3.796   9.939  16.715  0.1724  0.2009 -0.1100
   98DOPS   PO4 1143   3.952   9.561  16.644 -0.0794  0.2839 -0.2545
   98DOPS   GL1 1144   3.963   9.618  16.293 -0.1130 -0.1273 -0.2603
   98DOPS   GL2 1145   4.012   9.923  16.274 -0.1659  0.3471  0.0386
   98DOPS   C1A 1146   4.130   9.421  15.886  0.0263  0.1774 -0.2075
   98DOPS   D2A 1147   4.318   9.202  15.615  0.2092 -0.0447 -0.1163
   98DOPS   C3A 1148   4.643   8.908  15.798 -0.0617  0.1421 -0.0885
   98DOPS   C4A 1149   5.094   8.818  16.057 -0.0352  0.0095 -0.1556
   98DOPS   C1B 1150   4.038   9.888  15.834  0.0155 -0.0556 -0.0903
   98DOPS   D2B 1151   4.319   9.903  15.412  0.0279 -0.1655 -0.4057
   98DOPS   C3B 1152   4.637   9.740  15.110 -0.0303  0.0247  0.1152
   98DOPS   C4B 1153   4.823  10.087  14.814  0.2631  0.0739 -0.0122
   99DOPS   CNO 1154   1.966   1.732  16.322  0.4401 -0.1759 -0.1492
   99DOPS   PO4 1155   2.325   1.679  16.410  0.1497  0.3375  0.0728
   99DOPS   GL1 1156   2.353   1.590  16.003  0.0312 -0.2363  0.0612
   99DOPS   GL2 1157   2.573   1.348  15.838 -0.2813  0.0784 -0.7607
   99DOPS   C1A 1158   2.123   1.593  15.562 -0.2558 -0.1154  0.0475
   99DOPS   D2A 1159   1.815   1.830  15.354 -0.0137  0.1012  0.1026
   99DOPS   C3A 1160   1.881   1.955  14.923  0.0361 -0.1917 -0.2448
   99DOPS   C4A 1161   2.104   2.205  14.588  0.2641 -0.0604  0.1666
   99DOPS   C1B 1162   2.570   1.372  15.346  0.0204  0.1542  0.1252
   99DOPS   D2B 1163   2.296   1.691  15.064 -0.2372  0.1699 -0.0299
   99DOPS   C3B 1164   2.342   2.177  15.079 -0.1390  0.0148 -0.3074
   99DOPS   C4B 1165   2.737   2.404  14.996  0.1640  0.2728  0.2025
  100POSM   NC3 1166   0.331  10.014  15.468  0.0994  0.0230  0.2456
  100POSM   PO4 1167   0.631   9.904  15.662  0.0895 -0.0608 -0.1854
  100POSM   AM1 1168   0.799   9.925  15.381 -0.2233 -0.5348  0.0927
  100POSM   AM2 1169   0.744  10.008  15.110  0.1475  0.0525  0.0160
  100POSM   T1A 1170   1.235   9.882  15.122 -0.0151 -0.1327 -0.1508
  100POSM   C2A 1171   1.462   9.931  14.732 -0.0505  0.0100  0.0698
  100POSM   C3A 1172   1.363  10.115  14.340  0.2210 -0.2827 -0.0476
  100POSM   C1B 1173   0.818   9.812  14.857 -0.1813 -0.2663  0.4317
  100POSM   D2B 1174   1.045   9.694  14.456  0.1139 -0.0723  0.0659
  100POSM   C3B 1175   0.980   9.926  14.110 -0.1641  0.2139  0.3341
  100POSM   C4B 1176   0.673  10.167  13.857  0.0638  0.0365 -0.0080
  101POSM   NC3 1177   6.471   2.688  17.838  0.3595 -0.0412 -0.0321
  101POSM   PO4 1178   6.289   2.741  17.489 -0.0342 -0.3029  0.2783
  101POSM   AM1 1179   6.268   2.740  17.166 -0.3728 -0.0548  0.1074
  101POSM   AM2 1180   6.380   2.887  17.000 -0.0656 -0.3153  0.1233
  101POSM   T1A 1181   5.925   2.651  16.797 -0.0958  0.1006 -0.0597
  101POSM   C2A 1182   5.534   2.849  16.600  0.2159 -0.0847  0.1590
  101POSM   C3A 1183   5.412   3.011  16.198  0.3926  0.0868  0.0872
  101POSM   C1B 1184   6.345   3.085  16.714  0.2036 -0.3495 -0.0677
  101POSM   D2B 1185   6.368   3.155  16.314  0.0698  0.0382 -0.2444
  101POSM   C3B 1186   6.242   3.513  16.053  0.1372  0.2098 -0.0289
  101POSM   C4B 1187   6.266   3.717  15.673 -0.2029 -0.0697 -0.3552
  102DOPC   NC3 1188   2.783   0.641  16.043 -0.2929 -0.1976 -0.2915
  102DOPC   PO4 1189   2.903   1.039  16.096 -0.1096 -0.2314 -0.2124
  102DOPC   GL1 1190   3.110   0.977  15.707  0.3702 -0.2020  0.4341
  102DOPC   GL2 1191   3.174   1.249  15.744 -0.0552  0.0522 -0.1589
  102DOPC   C1A 1192   3.423   1.031  15.346 -0.0813  0.0608  0.1422
  102DOPC   D2A 1193   3.749   0.893  14.976 -0.1055 -0.1150  0.2362
  102DOPC   C3A 1194   3.750   0.516  14.663  0.0060 -0.0483  0.1088
  102DOPC   C4A 1195   3.576   0.370  14.263 -0.0331 -0.2234 -0.0131
  102DOPC   C1B 1196   3.559   1.511  15.785 -0.1283  0.0865  0.0654
  102DOPC   D2B 1197   3.936   1.644  15.521  0.2641 -0.0449  0.1782
  102DOPC   C3B 1198   4.281   1.331  15.409  0.3558  0.0654  0.0669
  102DOPC   C4B 1199   4.338   0.894  15.470  0.1175 -0.2345 -0.4104
  103POSM   NC3 1200   3.890  11.237  15.825  0.0395 -0.1854 -0.2097
  103POSM   PO4 1201   4.258  11.012  15.868  0.2013 -0.0337 -0.1855
  103POSM   AM1 1202   4.334  10.741  15.735 -0.0644  0.1700  0.2535
  103POSM   AM2 1203   4.247  10.538  15.573  0.1156 -0.3560 -0.1727
  103POSM   T1A 1204   4.717  10.388  15.638 -0.1121 -0.0273  0.1052
  103POSM   C2A 1205   4.885   9.967  15.436  0.0133  0.2948  0.1216
  103POSM   C3A 1206   5.158   9.571  15.314 -0.0789  0.0484 -0.3477
  103POSM   C1B 1207   4.082  10.329  15.461 -0.2957 -0.1196 -0.1300
  103POSM   D2B 1208   3.804   9.980  15.300 -0.1334  0.3011  0.1235
  103POSM   C3B 1209   3.960   9.554  15.385 -0.2400 -0.1080 -0.0182
  103POSM   C4B 1210   4.197   9.347  15.125 -0.0776  0.0403  0.2048
  104DOPC   NC3 1211   6.294   5.425  17.460  0.0515 -0.1330  0.2587
  104DOPC   PO4 1212   6.021   5.165  17.324 -0.0415  0.0969  0.0248
  104DOPC   GL1 1213   5.937   5.262  16.959 -0.1627 -0.3507  0.1995
  104DOPC   GL2 1214   6.045   5.050  16.762 -0.1108 -0.0610  0.1757
  104DOPC   C1A 1215   5.707   5.553  16.606 -0.0436 -0.1434  0.0599
  104DOPC   D2A 1216   5.557   5.459  16.200  0.0379  0.0037  0.0811
  104DOPC   C3A 1217   5.464   5.778  15.962  0.1611 -0.0392 -0.1482
  104DOPC   C4A 1218   5.062   5.942  16.017 -0.1827 -0.0948 -0.1723
  104DOPC   C1B 1219   5.567   5.078  16.561 -0.0104 -0.0711 -0.0067
  104DOPC   D2B 1220   5.209   5.347  16.497 -0.1204  0.1357 -0.3188
  104DOPC   C3B 1221   5.214   5.833  16.500 -0.0710 -0.1610  0.1398
  104DOPC   C4B 1222   5.331   6.254  16.638 -0.3562  0.1709 -0.1037
  105POSM   NC3 1223   5.234   4.843  17.143 -0.1530  0.3715 -0.0194
  105POSM   PO4 1224   5.359   4.557  17.411 -0.0181  0.1770 -0.3117
  105POSM   AM1 1225   5.533   4.415  17.172 -0.0297 -0.3044  0.1332
  105POSM   AM2 1226   5.474   4.158  17.026  0.2239  0.1333  0.1347
  105POSM   T1A 1227   5.568   4.507  16.675  0.1001 -0.1759  0.0378
  105POSM   C2A 1228   5.526   4.656  16.232  0.1115  0.0276 -0.1313
  105POSM   C3A 1229   5.376   5.050  16.003 -0.0528  0.0990  0.1849
  105POSM   C1B 1230   5.290   4.069  16.783  0.0527  0.0747  0.1212
  105POSM   D2B 1231   5.218   3.996  16.343  0.0801  0.0697  0.1433
  105POSM   C3B 1232   5.102   4.439  16.182 -0.0423 -0.4947  0.0620
  105POSM   C4B 1233   4.827   4.651  15.881  0.1742 -0.0365 -0.1861
  106POSM   NC3 1234   8.380   1.381  17.808 -0.0041  0.4007  0.0306
  106POSM   PO4 1235   8.351   1.730  17.609  0.2186  0.1459  0.3273
  106POSM   AM1 1236   8.311   1.690  17.253 -0.0555 -0.4008  0.2111
  106POSM   AM2 1237   8.440   1.585  17.018  0.4465 -0.0693  0.0933
  106POSM   T1A 1238   8.231   2.025  16.840 -0.0628  0.0476 -0.3458
  106POSM   C2A 1239   8.406   2.446  16.565 -0.2627 -0.0898 -0.0151
  106POSM   C3A 1240   8.580   2.774  16.317  0.1253 -0.2677 -0.0346
  106POSM   C1B 1241   8.260   1.542  16.738 -0.0539 -0.0988  0.0365
  106POSM   D2B 1242   7.926   1.729  16.461  0.0654  0.1384 -0.2708
  106POSM   C3B 1243   8.000   1.787  16.017  0.0707  0.0798  0.0106
  106POSM   C4B 1244   8.283   1.860  15.702  0.0162  0.0499 -0.0562
  107DOPC   NC3 1245   0.221   3.390  16.282 -0.2954 -0.7464  0.2439
  107DOPC   PO4 1246   0.521   3.163  16.423 -0.0655  0.0590 -0.0630
  107DOPC   GL1 1247   0.585   2.997  16.012  0.2074 -0.1491 -0.4281
  107DOPC   GL2 1248   0.460   3.083  15.752 -0.0356 -0.2967  0.0221
  107DOPC   C1A 1249   0.946   2.919  15.663  0.1096 -0.0573 -0.0693
  107DOPC   D2A 1250   1.022   3.005  15.189  0.1015  0.1341 -0.1139
  107DOPC   C3A 1251   1.114   3.045  14.735 -0.1393  0.2253 -0.1783
  107DOPC   C4A 1252   0.765   3.242  14.474  0.1468 -0.1511 -0.0541
  107DOPC   C1B 1253   0.505   2.765  15.395  0.1151 -0.0712  0.1230
  107DOPC   D2B 1254   0.598   2.867  14.949 -0.0255 -0.0558 -0.1692
  107DOPC   C3B 1255   0.412   3.289  14.783  0.0723  0.1550  0.1580
  107DOPC   C4B 1256   0.074   3.548  14.584 -0.0609  0.1290 -0.2494
  108DOPE   NH3 1257   2.949   1.520  16.156  0.0660 -0.2372  0.0987
  108DOPE   PO4 1258   2.895   1.676  16.400  0.1330 -0.2695 -0.1428
  108DOPE   GL1 1259   2.652   1.850  16.108  0.1885 -0.1974 -0.0684
  108DOPE   GL2 1260   2.900   2.008  15.990 -0.2018  0.1460 -0.0049
  108DOPE   C1A 1261   2.570   1.870  15.619 -0.3563 -0.0949  0.1479
  108DOPE   D2A 1262   2.745   1.912  15.217 -0.1348 -0.1604  0.2425
  108DOPE   C3A 1263   2.768   1.644  14.837  0.2890  0.0340 -0.1294
  108DOPE   C4A 1264   2.518   1.434  14.494  0.0594  0.0038 -0.4046
  108DOPE   C1B 1265   3.120   1.774  15.665 -0.1149  0.2988  0.0013
  108DOPE   D2B 1266   3.422   1.713  15.328 -0.0541  0.2713  0.0093
  108DOPE   C3B 1267   3.794   1.869  15.027 -0.0057  0.0829  0.1580
  108DOPE   C4B 1268   4.015   2.096  14.772 -0.1664 -0.1478  0.0468
  109DOPC   NC3 1269   0.807   3.551  16.513 -0.0119  0.0741  0.1145
  109DOPC   PO4 1270   0.656   3.886  16.365 -0.1333 -0.2818 -0.0514
  109DOPC   GL1 1271   0.570   3.703  15.994 -0.3672  0.3143  0.1406
  109DOPC   GL2 1272   0.736   3.448  15.978 -0.0544 -0.2407 -0.0229
  109DOPC   C1A 1273   0.678   3.942  15.624 -0.0992  0.0231  0.1463
  109DOPC   D2A 1274   0.713   3.846  15.134 -0.2565 -0.2340  0.0520
  109DOPC   C3A 1275   0.448   3.917  14.799 -0.0745  0.0078  0.2332
  109DOPC   C4A 1276   0.324   3.990  14.297  0.1081 -0.0225 -0.1229
  109DOPC   C1B 1277   1.008   3.588  15.607 -0.0947  0.1192 -0.0702
  109DOPC   D2B 1278   1.187   3.815  15.206 -0.3809  0.1663 -0.1390
  109DOPC   C3B 1279   1.504   3.885  14.828  0.3000 -0.2458  0.2057
  109DOPC   C4B 1280   1.752   3.979  14.461  0.1230  0.0863  0.1853
  110POSM   NC3 1281   8.687   5.715  17.026  0.2293 -0.2918  0.0155
  110POSM   PO4 1282   8.502   5.897  16.736  0.0633 -0.0534 -0.3583
  110POSM   AM1 1283   8.280   5.906  16.493 -0.1809  0.1059 -0.1390
  110POSM   AM2 1284   8.084   6.097  16.380  0.0652 -0.1695 -0.2037
  110POSM   T1A 1285   8.151   5.716  16.047  0.1450 -0.0198 -0.0736
  110POSM   C2A 1286   7.900   5.591  15.743 -0.0894  0.2243  0.0436
  110POSM   C3A 1287   7.828   5.480  15.332 -0.0206 -0.0763  0.1777
  110POSM   C1B 1288   8.205   6.225  16.089  0.0119  0.1549  0.3683
  110POSM   D2B 1289   8.146   6.241  15.624  0.0875  0.1753  0.1252
  110POSM   C3B 1290   8.418   6.212  15.300 -0.0252  0.1519 -0.2688
  110POSM   C4B 1291   8.703   5.954  15.086 -0.0473 -0.0628  0.0019
  111POSM   NC3 1292   0.794  12.105  14.505  0.0906 -0.1129  0.1098
  111POSM   PO4 1293   1.026  12.417  14.400 -0.1889 -0.3260 -0.1150
  111POSM   AM1 1294   1.183  12.251  14.139  0.2436  0.3761 -0.0770
  111POSM   AM2 1295   1.107  12.359  13.901 -0.0008  0.0963 -0.2375
  111POSM   T1A 1296   1.360  11.978  13.735 -0.0595 -0.1380 -0.2407
  111POSM   C2A 1297   1.303  11.991  13.327 -0.0638 -0.0844  0.3824
  111POSM   C3A 1298   1.678  12.104  13.068  0.0141  0.3373 -0.0885
  111POSM   C1B 1299   1.217  12.525  13.647 -0.0393 -0.2261 -0.2279
  111POSM   D2B 1300   1.057  12.542  13.226 -0.2233 -0.1953  0.0742
  111POSM   C3B 1301   1.298  12.387  12.938  0.3605  0.0826 -0.0368
  111POSM   C4B 1302   1.462  12.049  12.564  0.1825 -0.0479  0.1773
  112POSM   NC3 1303   2.804   6.310  16.908 -0.5586  0.0125  0.0389
  112POSM   PO4 1304   2.602   6.646  16.751  0.1980 -0.1313  0.0024
  112POSM   AM1 1305   2.735   6.482  16.466 -0.6078 -0.0090 -0.0944
  112POSM   AM2 1306   2.910   6.710  16.305 -0.2316  0.1753  0.3553
  112POSM   T1A 1307   2.966   6.218  16.071 -0.0379 -0.0106 -0.2203
  112POSM   C2A 1308   3.204   6.194  15.687 -0.1087  0.0065 -0.1570
  112POSM   C3A 1309   3.445   6.035  15.283 -0.0493 -0.2129 -0.1737
  112POSM   C1B 1310   3.010   6.917  16.010 -0.1585  0.1489  0.0592
  112POSM   D2B 1311   3.258   7.031  15.633  0.3618 -0.0838  0.0336
  112POSM   C3B 1312   3.093   6.650  15.413  0.1304 -0.0916  0.0042
  112POSM   C4B 1313   3.026   6.311  15.162  0.0127  0.1636  0.0976
  113POSM   NC3 1314   3.209  10.982  15.079 -0.3194  0.1097  0.0329
  113POSM   PO4 1315   2.889  11.246  15.039 -0.1896  0.3577  0.0710
  113POSM   AM1 1316   2.991  11.237  14.738 -0.2627  0.1297 -0.3547
  113POSM   AM2 1317   3.062  10.959  14.590  0.0795 -0.2239  0.0700
  113POSM   T1A 1318   3.080  11.336  14.270 -0.1941 -0.2464  0.2992
  113POSM   C2A 1319   3.075  11.258  13.796  0.0421  0.6794 -0.0534
  113POSM   C3A 1320   2.915  11.160  13.359 -0.2559  0.0355 -0.0192
  113POSM   C1B 1321   3.099  10.828  14.254  0.0184  0.0191  0.1174
  113POSM   D2B 1322   3.258  10.703  13.800  0.0667 -0.0366 -0.1499
  113POSM   C3B 1323   2.832  10.722  13.555 -0.1708 -0.0907  0.0647
  113POSM   C4B 1324   2.438  10.934  13.519 -0.2952 -0.1087 -0.1910
  114DOPC   NC3 1325  10.034   6.979  16.724  0.0241  0.1076 -0.0065
  114DOPC   PO4 1326  10.076   6.816  16.359  0.0985 -0.3506 -0.1836
  114DOPC   GL1 1327   9.942   6.525  16.207  0.3045  0.5693  0.1708
  114DOPC   GL2 1328   9.751   6.624  15.950  0.4478 -0.2060  0.1613
  114DOPC   C1A 1329   9.911   6.084  16.045  0.0107 -0.0292 -0.1295
  114DOPC   D2A 1330  10.003   5.679  16.176  0.0167  0.0830  0.3050
  114DOPC   C3A 1331   9.960   5.432  15.808  0.1346 -0.0671 -0.1057
  114DOPC   C4A 1332  10.004   5.112  15.490 -0.2766  0.1739  0.1109
  114DOPC   C1B 1333   9.470   6.265  15.871 -0.0007  0.0770  0.0603
  114DOPC   D2B 1334   9.096   6.089  15.639  0.2372 -0.1367 -0.1317
  114DOPC   C3B 1335   9.210   5.977  15.193  0.0710  0.2415 -0.3631
  114DOPC   C4B 1336   9.606   5.929  14.919  0.1234 -0.0194 -0.1662
  115POSM   NC3 1337   7.411   6.479  16.654  0.0661  0.1630 -0.2424
  115POSM   PO4 1338   7.797   6.475  16.706 -0.0857  0.0508  0.0728
  115POSM   AM1 1339   7.854   6.483  16.402 -0.1892  0.2397 -0.1781
  115POSM   AM2 1340   7.764   6.560  16.135 -0.1091 -0.1706  0.2911
  115POSM   T1A 1341   8.243   6.676  16.245 -0.0218 -0.1469 -0.1054
  115POSM   C2A 1342   8.736   6.543  16.204  0.0156 -0.1205 -0.1015
  115POSM   C3A 1343   8.783   6.408  15.765 -0.0160 -0.3006  0.0155
  115POSM   C1B 1344   7.942   6.704  15.857 -0.2882 -0.2262  0.0273
  115POSM   D2B 1345   8.005   7.118  15.614  0.1450  0.2878 -0.0655
  115POSM   C3B 1346   8.229   7.082  15.241 -0.0983  0.0727 -0.1073
  115POSM   C4B 1347   8.456   6.958  14.919  0.0069 -0.2480 -0.0597
  116DOPS   CNO 1348   2.520   7.442  17.069 -0.0862 -0.0680  0.0454
  116DOPS   PO4 1349   2.469   7.563  16.705  0.0069 -0.0174  0.0381
  116DOPS   GL1 1350   2.378   7.421  16.359 -0.1079  0.0808  0.1300
  116DOPS   GL2 1351   2.391   7.623  16.147  0.1288  0.3001 -0.1035
  116DOPS   C1A 1352   2.449   7.142  15.970  0.3557  0.0006 -0.1846
  116DOPS   D2A 1353   2.706   7.138  15.572  0.3128  0.0459  0.1257
  116DOPS   C3A 1354   2.519   6.762  15.363  0.0554 -0.2356  0.2927
  116DOPS   C4A 1355   2.368   6.479  15.068  0.1859  0.0012 -0.1256
  116DOPS   C1B 1356   2.225   7.523  15.785  0.0234 -0.2124  0.0323
  116DOPS   D2B 1357   2.236   7.210  15.387 -0.0986  0.3874  0.0802
  116DOPS   C3B 1358   2.536   7.239  15.100 -0.1115  0.0730 -0.0966
  116DOPS   C4B 1359   2.804   7.528  14.821 -0.0061  0.1912 -0.1518
  117DOPS   CNO 1360  33.912   8.622  16.019 -0.0724  0.0040  0.0865
  117DOPS   PO4 1361  33.564   8.614  15.886  0.0486  0.3210  0.2986
  117DOPS   GL1 1362  33.647   8.361  15.642 -0.1982  0.0022 -0.0509
  117DOPS   GL2 1363  33.444   8.232  15.458  0.2630  0.0705  0.3680
  117DOPS   C1A 1364  33.829   8.303  15.186 -0.1487  0.1395  0.1868
  117DOPS   D2A 1365  34.013   8.347  14.776  0.3363 -0.3879 -0.1846
  117DOPS   C3A 1366  33.630   8.178  14.500 -0.2206  0.2797 -0.0857
  117DOPS   C4A 1367  33.644   7.870  14.150 -0.2999 -0.3717  0.0923
  117DOPS   C1B 1368  33.396   8.144  14.983 -0.0456  0.0328 -0.5460
  117DOPS   D2B 1369  33.163   8.323  14.568  0.1041  0.1467  0.0152
  117DOPS   C3B 1370  33.217   8.137  14.121 -0.0640 -0.1116  0.1022
  117DOPS   C4B 1371  33.442   8.097  13.672 -0.0159 -0.0886 -0.3128
  118DOPS   CNO 1372   5.437   5.981  17.563  0.0596 -0.1354 -0.1039
  118DOPS   PO4 1373   5.722   6.046  17.367  0.1274 -0.0506  0.1714
  118DOPS   GL1 1374   5.777   6.266  16.986 -0.1340  0.2094  0.1085
  118DOPS   GL2 1375   5.931   6.502  16.892 -0.1391 -0.1569  0.0180
  118DOPS   C1A 1376   5.827   6.018  16.602 -0.2544  0.0320 -0.0446
  118DOPS   D2A 1377   6.002   5.775  16.212  0.2507 -0.1170 -0.2906
  118DOPS   C3A 1378   5.878   5.989  15.791  0.4581 -0.1904 -0.0082
  118DOPS   C4A 1379   5.635   5.875  15.452  0.0632 -0.1583 -0.2221
  118DOPS   C1B 1380   5.638   6.653  16.581 -0.1249 -0.1289 -0.0140
  118DOPS   D2B 1381   5.359   6.681  16.179  0.4132 -0.0707 -0.1607
  118DOPS   C3B 1382   5.812   6.617  16.044  0.3029 -0.0074 -0.3067
  118DOPS   C4B 1383   6.223   6.441  15.825  0.2237  0.1877 -0.0838
  119POSM   NC3 1384  10.682   2.548  17.414 -0.3596 -0.0182 -0.1103
  119POSM   PO4 1385  10.603   2.752  17.090  0.3042  0.2327 -0.3683
  119POSM   AM1 1386  10.487   2.854  16.810  0.0235  0.0473 -0.3947
  119POSM   AM2 1387  10.501   2.987  16.588  0.4225 -0.1539 -0.0229
  119POSM   T1A 1388  10.039   2.906  16.567  0.2652 -0.0510 -0.1280
  119POSM   C2A 1389   9.615   2.970  16.399 -0.0283  0.6391  0.0036
  119POSM   C3A 1390   9.499   2.949  15.915 -0.6528  0.0626 -0.0429
  119POSM   C1B 1391  10.440   2.785  16.320 -0.1700 -0.0280 -0.0417
  119POSM   D2B 1392  10.458   2.820  15.863 -0.2245 -0.0029 -0.0092
  119POSM   C3B 1393  10.314   2.533  15.513  0.1152  0.1385 -0.2282
  119POSM   C4B 1394  10.461   2.301  15.105  0.0956 -0.0625 -0.0408
  120DOPE   NH3 1395   6.156   9.538  16.002  0.3043  0.2114 -0.4678
  120DOPE   PO4 1396   6.377   9.742  15.943 -0.2236  0.1375 -0.0700
  120DOPE   GL1 1397   6.494   9.586  15.618  0.0570 -0.0770  0.3071
  120DOPE   GL2 1398   6.369   9.835  15.397 -0.0263  0.1186 -0.1359
  120DOPE   C1A 1399   6.619   9.211  15.356 -0.0491  0.0453 -0.4221
  120DOPE   D2A 1400   6.457   8.834  15.187  0.1539  0.1097 -0.1480
  120DOPE   C3A 1401   6.576   8.774  14.746 -0.0434 -0.3311  0.0297
  120DOPE   C4A 1402   6.705   8.760  14.297  0.1024 -0.0387 -0.2592
  120DOPE   C1B 1403   6.371   9.511  15.032 -0.0248  0.0739 -0.1750
  120DOPE   D2B 1404   6.240   9.501  14.543  0.0451 -0.2925 -0.0597
  120DOPE   C3B 1405   5.823   9.269  14.419 -0.2757 -0.1940  0.1850
  120DOPE   C4B 1406   5.536   9.067  14.699 -0.2213 -0.0265  0.2373
  121POSM   NC3 1407   6.463  32.933  17.052 -0.1229  0.4194 -0.1823
  121POSM   PO4 1408   6.286  33.266  17.162  0.0531  0.0207 -0.0101
  121POSM   AM1 1409   6.248  33.333  16.863  0.0887 -0.2105  0.4320
  121POSM   AM2 1410   6.348  33.494  16.646  0.1584 -0.1447  0.2440
  121POSM   T1A 1411   6.004  33.221  16.463 -0.2384  0.3489 -0.1857
  121POSM   C2A 1412   5.875  32.880  16.138  0.0856  0.0446 -0.0767
  121POSM   C3A 1413   5.793  32.476  15.806  0.0664  0.0064 -0.2551
  121POSM   C1B 1414   6.371  33.572  16.305  0.1988 -0.1801 -0.0667
  121POSM   D2B 1415   6.218  33.739  15.867 -0.3342  0.0768 -0.0825
  121POSM   C3B 1416   6.447  33.824  15.493  0.2675  0.2432  0.2924
  121POSM   C4B 1417   6.442  34.133  15.074 -0.0297  0.1063  0.2731
  122DOPS   CNO 1418   7.377   4.902  16.746  0.0870 -0.0459 -0.0811
  122DOPS   PO4 1419   7.250   5.088  17.073  0.0415 -0.1951  0.3876
  122DOPS   GL1 1420   7.004   5.314  16.719 -0.2791  0.1754  0.0967
  122DOPS   GL2 1421   6.809   5.436  16.694 -0.2633  0.2779  0.1350
  122DOPS   C1A 1422   7.130   5.316  16.237 -0.0179 -0.2179 -0.1465
  122DOPS   D2A 1423   6.933   5.277  15.812  0.0422  0.0928  0.0849
  122DOPS   C3A 1424   6.753   5.506  15.427  0.0060 -0.3451 -0.2288
  122DOPS   C4A 1425   6.495   5.354  15.115 -0.0325 -0.2176 -0.0928
  122DOPS   C1B 1426   6.631   5.568  16.296 -0.2075 -0.5837 -0.1260
  122DOPS   D2B 1427   6.847   5.757  15.914 -0.0648 -0.0824  0.2222
  122DOPS   C3B 1428   7.122   6.100  15.921  0.1328 -0.0243  0.4431
  122DOPS   C4B 1429   7.443   6.396  15.702  0.3154  0.0757 -0.3104
  123POSM   NC3 1430  10.910   3.819  17.155  0.3743  0.0303  0.0457
  123POSM   PO4 1431  10.603   3.713  17.369 -0.0481  0.0498 -0.1995
  123POSM   AM1 1432  10.461   3.656  17.073  0.0068  0.1892  0.1736
  123POSM   AM2 1433  10.264   3.806  16.863 -0.0603  0.1150  0.0145
  123POSM   T1A 1434  10.474   3.468  16.588 -0.2426 -0.0418 -0.3319
  123POSM   C2A 1435  10.139   3.349  16.365  0.2600  0.0469 -0.0648
  123POSM   C3A 1436   9.969   3.080  15.965 -0.0377 -0.0183  0.0363
  123POSM   C1B 1437  10.264   3.938  16.540 -0.0602  0.0679  0.1357
  123POSM   D2B 1438  10.119   4.190  16.174  0.2651 -0.2353  0.0785
  123POSM   C3B 1439  10.402   4.290  15.824  0.1302  0.0070  0.0482
  123POSM   C4B 1440  10.777   4.196  15.563 -0.2071 -0.2982 -0.1705
  124POSM   NC3 1441   3.729   4.096  17.308  0.0693 -0.1347 -0.2513
  124POSM   PO4 1442   4.135   4.265  17.343 -0.1004  0.2043 -0.0493
  124POSM   AM1 1443   4.045   4.341  17.049 -0.1604  0.1953 -0.2234
  124POSM   AM2 1444   4.082   4.184  16.816  0.0565  0.2704  0.1524
  124POSM   T1A 1445   3.803   4.531  16.688 -0.0375  0.1458 -0.0327
  124POSM   C2A 1446   3.417   4.562  16.422 -0.2491  0.2436  0.0956
  124POSM   C3A 1447   2.990   4.498  16.171  0.1508 -0.2129  0.2466
  124POSM   C1B 1448   4.281   4.387  16.556 -0.3048  0.0581 -0.0581
  124POSM   D2B 1449   4.460   4.686  16.242 -0.0792 -0.1285  0.0118
  124POSM   C3B 1450   4.251   5.002  16.409 -0.1168  0.1238 -0.0427
  124POSM   C4B 1451   4.207   5.418  16.235  0.2099 -0.0450  0.1275
  125POSM   NC3 1452   1.956  11.329  15.555  0.0269 -0.0339 -0.2564
  125POSM   PO4 1453   2.022  10.941  15.430  0.1141 -0.2685 -0.0936
  125POSM   AM1 1454   1.982  10.802  15.160 -0.0901  0.3160  0.0228
  125POSM   AM2 1455   2.126  10.732  14.896  0.3557  0.2694  0.1355
  125POSM   T1A 1456   1.697  10.852  14.729 -0.2236 -0.0079 -0.1609
  125POSM   C2A 1457   1.435  11.028  14.408  0.2452 -0.0739 -0.0199
  125POSM   C3A 1458   1.349  10.959  13.938 -0.0086 -0.0155 -0.0938
  125POSM   C1B 1459   2.114  10.630  14.572 -0.2109  0.0653 -0.2253
  125POSM   D2B 1460   2.110  10.381  14.166 -0.1355  0.0487  0.2994
  125POSM   C3B 1461   2.186  10.637  13.853 -0.0151  0.1644  0.0271
  125POSM   C4B 1462   1.917  10.862  13.640  0.1390  0.4304  0.0803
  126DOPE   NH3 1463  10.556   8.843  15.713  0.1877 -0.2449  0.0790
  126DOPE   PO4 1464  10.888   8.771  15.702 -0.1277 -0.0680 -0.0456
  126DOPE   GL1 1465  10.830   8.827  15.318  0.1127  0.2163  0.1553
  126DOPE   GL2 1466  11.076   8.687  15.231 -0.0230  0.1095  0.2906
  126DOPE   C1A 1467  10.719   8.587  14.916  0.1798  0.0744 -0.2196
  126DOPE   D2A 1468  10.810   8.392  14.554  0.1613  0.4701 -0.0129
  126DOPE   C3A 1469  10.754   8.014  14.286  0.0003 -0.0797 -0.4999
  126DOPE   C4A 1470  10.775   7.632  14.053 -0.2636  0.1180  0.0352
  126DOPE   C1B 1471  11.233   8.767  14.807  0.0284 -0.1031  0.1177
  126DOPE   D2B 1472  10.984   8.820  14.431  0.1329 -0.1639 -0.0294
  126DOPE   C3B 1473  10.592   8.837  14.319 -0.0701 -0.1802  0.2497
  126DOPE   C4B 1474  10.273   8.617  14.028  0.0399 -0.3053  0.0413
  127DOPE   NH3 1475   0.371  10.794  14.863  0.3330  0.0677 -0.0848
  127DOPE   PO4 1476   0.634  10.911  14.995  0.0262  0.3219 -0.0724
  127DOPE   GL1 1477   0.853  10.649  14.783  0.1049 -0.2722 -0.0208
  127DOPE   GL2 1478   0.718  10.698  14.575  0.0188  0.0082  0.1582
  127DOPE   C1A 1479   1.163  10.569  14.453 -0.1620  0.2282 -0.0577
  127DOPE   D2A 1480   1.110  10.480  14.028 -0.1307  0.1077  0.0375
  127DOPE   C3A 1481   1.331  10.131  13.779  0.1693 -0.3314 -0.1287
  127DOPE   C4A 1482   1.372   9.888  13.419 -0.1637  0.0010 -0.2965
  127DOPE   C1B 1483   0.828  10.915  14.189  0.0284 -0.3892 -0.2064
  127DOPE   D2B 1484   0.895  10.850  13.720 -0.1515  0.0518 -0.2112
  127DOPE   C3B 1485   1.189  10.573  13.557 -0.1980  0.2089 -0.0215
  127DOPE   C4B 1486   1.145  10.287  13.234 -0.2826  0.0086 -0.0539
  128DOPS   CNO 1487  12.087   0.413  16.930  0.1447 -0.1079 -0.0681
  128DOPS   PO4 1488  12.088   0.290  16.571 -0.2303 -0.2966 -0.1728
  128DOPS   GL1 1489  11.931   0.511  16.202 -0.2002 -0.0988 -0.1044
  128DOPS   GL2 1490  11.701   0.486  16.286 -0.2192  0.0076 -0.2852
  128DOPS   C1A 1491  12.205   0.822  15.970  0.1508 -0.0404  0.3058
  128DOPS   D2A 1492  12.345   1.037  15.565 -0.1187 -0.0547  0.2602
  128DOPS   C3A 1493  12.272   1.203  15.108  0.3198  0.0005 -0.3571
  128DOPS   C4A 1494  12.357   1.451  14.693 -0.4658 -0.0887  0.0431
  128DOPS   C1B 1495  11.399   0.411  15.996  0.1867  0.3770  0.0699
  128DOPS   D2B 1496  11.217   0.524  15.589  0.1106 -0.2676 -0.2841
  128DOPS   C3B 1497  11.413   0.407  15.207  0.2070  0.1301  0.2100
  128DOPS   C4B 1498  11.614   0.758  14.993  0.2318  0.3079  0.0828
  129DOPS   CNO 1499   1.461   5.864  16.625 -0.0418 -0.2041 -0.1423
  129DOPS   PO4 1500   1.754   6.086  16.717 -0.1171 -0.0019 -0.1675
  129DOPS   GL1 1501   2.028   6.129  16.434  0.1333 -0.1732 -0.0280
  129DOPS   GL2 1502   1.962   6.008  16.199  0.1440  0.2846  0.0212
  129DOPS   C1A 1503   2.207   6.462  16.165 -0.1860  0.1806 -0.2134
  129DOPS   D2A 1504   2.568   6.675  15.900 -0.0111  0.1929 -0.1887
  129DOPS   C3A 1505   2.712   6.392  15.584  0.0658 -0.1766  0.1366
  129DOPS   C4A 1506   2.831   5.896  15.575 -0.2058  0.1668  0.0194
  129DOPS   C1B 1507   2.121   5.632  15.932 -0.0124 -0.0404  0.0913
  129DOPS   D2B 1508   2.542   5.448  15.976 -0.0127  0.1549 -0.2321
  129DOPS   C3B 1509   2.885   5.667  16.152  0.1260  0.0915 -0.1371
  129DOPS   C4B 1510   3.340   5.870  16.106  0.0227 -0.0287  0.1392
  130DOPE   NH3 1511   2.779  10.340  15.929  0.1154  0.0768  0.2917
  130DOPE   PO4 1512   2.855  10.289  15.621 -0.0835 -0.1226 -0.0070
  130DOPE   GL1 1513   3.036  10.249  15.220 -0.1716 -0.0616  0.0770
  130DOPE   GL2 1514   3.134  10.003  15.261 -0.3176 -0.0462 -0.2427
  130DOPE   C1A 1515   3.124  10.014  14.763  0.1444  0.0627  0.1920
  130DOPE   D2A 1516   3.017   9.780  14.357 -0.0286 -0.0841  0.0313
  130DOPE   C3A 1517   2.936   9.524  13.977 -0.2228 -0.0200 -0.0774
  130DOPE   C4A 1518   2.891   9.441  13.494  0.1013  0.1615 -0.1511
  130DOPE   C1B 1519   3.018   9.550  15.191  0.0442 -0.0693  0.2003
  130DOPE   D2B 1520   3.200   9.203  14.935 -0.5813  0.1810 -0.0868
  130DOPE   C3B 1521   2.990   9.095  14.519  0.0817  0.1156 -0.3131
  130DOPE   C4B 1522   2.594   8.828  14.478 -0.1177  0.1079  0.2237
  131DOPC   NC3 1523   3.235  11.162  15.811 -0.3139 -0.0239 -0.0068
  131DOPC   PO4 1524   3.384  10.981  15.534 -0.1671  0.1503 -0.0648
  131DOPC   GL1 1525   3.790  10.833  15.361  0.2844 -0.0338  0.2250
  131DOPC   GL2 1526   4.039  11.048  15.350  0.1642 -0.0512 -0.2621
  131DOPC   C1A 1527   4.065  10.615  15.054 -0.1278 -0.0821 -0.0766
  131DOPC   D2A 1528   4.380  10.245  14.988  0.2024  0.1403 -0.3092
  131DOPC   C3A 1529   4.112   9.844  14.861  0.1545 -0.2686 -0.1746
  131DOPC   C4A 1530   4.050   9.453  14.632  0.0276 -0.0608 -0.2888
  131DOPC   C1B 1531   4.306  11.014  14.958 -0.1907 -0.4492  0.0197
  131DOPC   D2B 1532   4.572  10.963  14.571  0.0135  0.0799 -0.1612
  131DOPC   C3B 1533   4.858  10.834  14.246 -0.3126  0.0823 -0.1843
  131DOPC   C4B 1534   5.282  10.736  14.317  0.0425  0.1325  0.3345
  132DOPE   NH3 1535   5.202   8.528  17.026  0.0638  0.0184 -0.2515
  132DOPE   PO4 1536   4.989   8.624  16.839  0.3230  0.1499 -0.0319
  132DOPE   GL1 1537   4.953   8.640  16.502  0.1241  0.0135 -0.3106
  132DOPE   GL2 1538   4.965   8.313  16.436 -0.1229  0.0744  0.1034
  132DOPE   C1A 1539   4.656   8.584  16.160  0.0253 -0.0705 -0.2052
  132DOPE   D2A 1540   4.204   8.467  16.156  0.0470 -0.1532 -0.2349
  132DOPE   C3A 1541   4.186   8.477  15.723 -0.4715 -0.0211  0.1282
  132DOPE   C4A 1542   4.536   8.440  15.349  0.2960  0.0860 -0.5706
  132DOPE   C1B 1543   5.048   8.092  16.030 -0.0822  0.0489 -0.0574
  132DOPE   D2B 1544   5.294   7.993  15.629  0.1896 -0.0540  0.1745
  132DOPE   C3B 1545   5.371   8.169  15.233 -0.1441 -0.1734 -0.1642
  132DOPE   C4B 1546   5.221   8.566  14.917 -0.0847  0.1767  0.2656
  133DOPC   NC3 1547  32.988   3.663  16.322 -0.2943  0.1243  0.0085
  133DOPC   PO4 1548  32.905   3.707  15.968  0.1573 -0.3029 -0.2032
  133DOPC   GL1 1549  32.999   4.069  15.747 -0.0108  0.0630 -0.0597
  133DOPC   GL2 1550  32.832   4.291  15.776 -0.3437 -0.0462 -0.0882
  133DOPC   C1A 1551  33.146   4.193  15.320  0.0473 -0.2191 -0.0191
  133DOPC   D2A 1552  33.353   4.560  15.140 -0.0963  0.1359 -0.2097
  133DOPC   C3A 1553  33.428   5.035  14.939  0.1700 -0.0860 -0.0210
  133DOPC   C4A 1554  33.811   5.186  14.758  0.1711 -0.0471  0.1030
  133DOPC   C1B 1555  32.598   4.096  15.392  0.0718 -0.0791  0.3808
  133DOPC   D2B 1556  32.568   4.032  14.973  0.2986 -0.1348 -0.0173
  133DOPC   C3B 1557  32.741   4.169  14.565  0.0442 -0.2935 -0.2035
  133DOPC   C4B 1558  33.000   3.918  14.228  0.3565  0.0691 -0.0142
  134DOPE   NH3 1559   9.116   2.153  17.679  0.2034 -0.0229  0.0151
  134DOPE   PO4 1560   9.410   2.177  17.665 -0.0556 -0.0567 -0.3328
  134DOPE   GL1 1561   9.445   2.194  17.228  0.1090  0.1512 -0.1690
  134DOPE   GL2 1562   9.183   2.110  17.171  0.0078 -0.1347 -0.1215
  134DOPE   C1A 1563   9.479   2.369  16.817  0.2247 -0.1950 -0.0017
  134DOPE   D2A 1564   9.646   2.465  16.387  0.1859 -0.0645  0.1452
  134DOPE   C3A 1565   9.332   2.469  16.044  0.1864 -0.1235 -0.1494
  134DOPE   C4A 1566   9.445   2.236  15.622  0.1444  0.0075  0.2310
  134DOPE   C1B 1567   9.337   1.847  16.828 -0.2073  0.1516  0.0023
  134DOPE   D2B 1568   9.495   1.506  16.539 -0.1998 -0.2477  0.0399
  134DOPE   C3B 1569   9.339   1.463  16.051  0.3150  0.0448  0.0711
  134DOPE   C4B 1570   9.253   1.738  15.666 -0.0991  0.2047  0.0552
  135DOPE   NH3 1571   7.319   4.450  17.164  0.1047 -0.1507 -0.1263
  135DOPE   PO4 1572   7.076   4.528  16.970 -0.0025  0.1015 -0.2119
  135DOPE   GL1 1573   7.116   4.531  16.585  0.1915  0.0304 -0.3050
  135DOPE   GL2 1574   7.019   4.292  16.473 -0.1004 -0.0439 -0.2096
  135DOPE   C1A 1575   7.434   4.577  16.247 -0.0058  0.1781 -0.0626
  135DOPE   D2A 1576   7.595   4.712  15.828 -0.0291  0.1764 -0.2933
  135DOPE   C3A 1577   8.001   4.520  15.778 -0.0351 -0.0019  0.0229
  135DOPE   C4A 1578   8.414   4.421  15.600 -0.1711 -0.2148  0.0186
  135DOPE   C1B 1579   6.694   4.472  16.239  0.0940  0.2665 -0.1449
  135DOPE   D2B 1580   6.464   4.679  15.925 -0.2312 -0.3397 -0.3122
  135DOPE   C3B 1581   6.796   4.579  15.626  0.1530  0.0394 -0.2607
  135DOPE   C4B 1582   7.230   4.580  15.437 -0.0139  0.4015 -0.0648
  136DOPC   NC3 1583   2.447   1.209  16.345  0.1837  0.3114 -0.1034
  136DOPC   PO4 1584   2.409   0.923  16.066 -0.0359  0.2464  0.0272
  136DOPC   GL1 1585   2.518   0.814  15.644  0.2476  0.0180  0.1247
  136DOPC   GL2 1586   2.388   0.573  15.674 -0.2501  0.1182 -0.0256
  136DOPC   C1A 1587   2.783   0.930  15.321  0.2613  0.0375  0.1368
  136DOPC   D2A 1588   2.953   0.703  14.989  0.0486  0.1499  0.0011
  136DOPC   C3A 1589   3.357   0.562  15.069 -0.1540 -0.0449  0.0601
  136DOPC   C4A 1590   3.678   0.232  15.060  0.0598  0.1826 -0.0305
  136DOPC   C1B 1591   2.133   0.179  15.592 -0.3212 -0.0488 -0.1778
  136DOPC   D2B 1592   1.946  -0.067  15.241 -0.0760 -0.0586  0.4464
  136DOPC   C3B 1593   1.739  -0.045  14.805  0.2567 -0.0018  0.0797
  136DOPC   C4B 1594   1.869   0.255  14.480  0.0159 -0.0120  0.0738
  137DOPC   NC3 1595  11.396   2.380  16.762  0.0496  0.0960  0.2632
  137DOPC   PO4 1596  11.404   2.768  16.654 -0.2987 -0.3034  0.3132
  137DOPC   GL1 1597  11.420   3.128  16.502 -0.4794 -0.1233 -0.0228
  137DOPC   GL2 1598  11.545   3.006  16.228  0.2464 -0.1507 -0.0164
  137DOPC   C1A 1599  11.220   3.361  16.125 -0.1181  0.3367 -0.2795
  137DOPC   D2A 1600  11.519   3.602  15.902  0.1382  0.1152  0.0378
  137DOPC   C3A 1601  11.280   3.436  15.566 -0.0553 -0.2715 -0.1525
  137DOPC   C4A 1602  11.019   3.235  15.228 -0.2130 -0.1076  0.0339
  137DOPC   C1B 1603  11.494   3.057  15.795 -0.4424 -0.2516  0.1641
  137DOPC   D2B 1604  11.633   3.147  15.343 -0.4037  0.2756  0.0270
  137DOPC   C3B 1605  11.478   3.520  15.128 -0.0947 -0.1714 -0.0788
  137DOPC   C4B 1606  11.318   3.746  14.711  0.1396 -0.0609  0.0915
  138DOPE   NH3 1607   6.347   1.044  16.820 -0.0343  0.2127  0.0373
  138DOPE   PO4 1608   6.638   1.010  16.896 -0.1349 -0.2319  0.1929
  138DOPE   GL1 1609   6.672   0.898  16.535 -0.1169 -0.1741 -0.3087
  138DOPE   GL2 1610   6.571   1.237  16.405 -0.2517 -0.2049  0.0493
  138DOPE   C1A 1611   6.405   0.814  16.208 -0.4562  0.2862  0.0137
  138DOPE   D2A 1612   6.118   1.072  16.011  0.3519 -0.2251  0.1898
  138DOPE   C3A 1613   6.024   1.007  15.571  0.2081 -0.1772 -0.0607
  138DOPE   C4A 1614   6.107   0.967  15.124  0.0352  0.2894 -0.4471
  138DOPE   C1B 1615   6.468   1.583  16.100  0.2440  0.5691  0.1999
  138DOPE   D2B 1616   6.388   1.872  15.790  0.2336 -0.1103 -0.0276
  138DOPE   C3B 1617   6.551   2.343  15.747  0.0538  0.1842 -0.1622
  138DOPE   C4B 1618   6.917   2.534  15.771  0.1110  0.0406  0.2114
  139DOPE   NH3 1619   9.886   6.483  16.689 -0.3219 -0.1332  0.1242
  139DOPE   PO4 1620   9.626   6.337  16.822  0.2175  0.2438 -0.0480
  139DOPE   GL1 1621   9.395   6.059  16.675 -0.2475  0.0653  0.1040
  139DOPE   GL2 1622   9.555   5.937  16.466  0.1236  0.0056  0.0674
  139DOPE   C1A 1623   9.085   6.069  16.331  0.3602 -0.2984 -0.3402
  139DOPE   D2A 1624   8.667   6.075  16.173  0.3529 -0.2056 -0.1715
  139DOPE   C3A 1625   8.542   5.996  15.715  0.0571  0.0414 -0.0712
  139DOPE   C4A 1626   8.581   5.642  15.463 -0.0677 -0.1617  0.1873
  139DOPE   C1B 1627   9.517   5.800  16.051  0.2553  0.0006  0.0106
  139DOPE   D2B 1628   9.737   5.870  15.627 -0.0505  0.1314  0.0247
  139DOPE   C3B 1629   9.662   5.507  15.309 -0.4081  0.0989 -0.2295
  139DOPE   C4B 1630   9.478   5.073  15.192  0.3426  0.1192  0.2294
  140DOPS   CNO 1631   1.708   3.875  16.557  0.1971 -0.1927  0.2223
  140DOPS   PO4 1632   1.708   3.686  16.228 -0.0016 -0.1529  0.1625
  140DOPS   GL1 1633   1.552   4.051  16.173  0.3051  0.0369  0.0750
  140DOPS   GL2 1634   1.341   4.164  16.042  0.2892  0.2300 -0.3317
  140DOPS   C1A 1635   1.673   4.485  16.006 -0.2378 -0.0147  0.1410
  140DOPS   D2A 1636   1.746   4.586  15.598 -0.0427 -0.1311  0.0249
  140DOPS   C3A 1637   1.778   4.349  15.178  0.0539  0.2143  0.2907
  140DOPS   C4A 1638   1.833   4.453  14.779  0.0249  0.0506  0.2391
  140DOPS   C1B 1639   1.209   4.205  15.602 -0.1081  0.0289  0.0553
  140DOPS   D2B 1640   0.943   4.263  15.171  0.0531  0.2266 -0.0235
  140DOPS   C3B 1641   1.317   4.553  15.140  0.2896  0.4283 -0.0975
  140DOPS   C4B 1642   1.417   4.871  14.779  0.0576  0.1878  0.0253
  141POSM   NC3 1643   4.454  11.425  16.086 -0.3134 -0.2343  0.1640
  141POSM   PO4 1644   4.674  11.460  15.775 -0.0964  0.1123 -0.0138
  141POSM   AM1 1645   4.655  11.157  15.671  0.6755 -0.1300  0.1583
  141POSM   AM2 1646   4.600  11.000  15.441 -0.0262  0.1160 -0.0137
  141POSM   T1A 1647   5.038  10.832  15.566 -0.1158  0.1345 -0.0781
  141POSM   C2A 1648   5.214  10.813  15.172  0.1032 -0.2380 -0.1919
  141POSM   C3A 1649   5.108  10.975  14.742 -0.0072  0.0299  0.1278
  141POSM   C1B 1650   4.786  11.088  15.118 -0.0023 -0.0777 -0.1115
  141POSM   D2B 1651   4.859  11.414  14.812 -0.1154  0.1111 -0.3277
  141POSM   C3B 1652   5.010  11.301  14.385  0.0930 -0.1965  0.1939
  141POSM   C4B 1653   5.096  11.249  13.959  0.2426  0.1882 -0.1980
  142DOPC   NC3 1654  34.327   7.314  16.391 -0.3514  0.0280 -0.1061
  142DOPC   PO4 1655  34.651   7.214  16.554 -0.1902  0.0656  0.2221
  142DOPC   GL1 1656  34.733   7.110  16.193  0.1040  0.2015 -0.1777
  142DOPC   GL2 1657  34.453   6.988  15.959  0.0417  0.1971  0.0486
  142DOPC   C1A 1658  34.732   7.341  15.802 -0.0224 -0.2788  0.1090
  142DOPC   D2A 1659  34.821   7.779  15.657  0.0981 -0.0859  0.0669
  142DOPC   C3A 1660  35.089   7.640  15.286  0.2858  0.1987  0.4596
  142DOPC   C4A 1661  35.308   7.617  14.885  0.1805  0.3637 -0.2341
  142DOPC   C1B 1662  34.758   6.860  15.561  0.0208 -0.2269 -0.5926
  142DOPC   D2B 1663  34.731   6.634  15.163  0.1385  0.0355  0.2146
  142DOPC   C3B 1664  34.955   6.557  14.780  0.1115 -0.0508 -0.1504
  142DOPC   C4B 1665  35.127   6.620  14.346 -0.3699  0.1729 -0.3093
  143DOPC   NC3 1666   3.721   2.452  16.851  0.0700 -0.2446 -0.1639
  143DOPC   PO4 1667   3.460   2.706  16.699 -0.0743 -0.0581  0.1132
  143DOPC   GL1 1668   3.712   2.763  16.366  0.0518 -0.2915 -0.3276
  143DOPC   GL2 1669   3.462   2.873  16.226 -0.0153 -0.2387 -0.0642
  143DOPC   C1A 1670   4.088   2.670  16.133 -0.2434  0.1190 -0.0171
  143DOPC   D2A 1671   4.065   2.430  15.721 -0.0111 -0.2935 -0.2508
  143DOPC   C3A 1672   4.159   2.152  15.378 -0.2062  0.0438  0.0180
  143DOPC   C4A 1673   4.217   1.781  15.133  0.0664  0.2424  0.3319
  143DOPC   C1B 1674   3.678   2.834  15.823 -0.3758 -0.1549 -0.0303
  143DOPC   D2B 1675   4.083   3.074  15.723  0.1168  0.2710 -0.0749
  143DOPC   C3B 1676   4.175   3.358  15.404 -0.0121 -0.1325 -0.0383
  143DOPC   C4B 1677   3.952   3.659  15.121 -0.0505 -0.2728 -0.2758
  144DOPS   CNO 1678   3.499  34.170  16.015 -0.1888  0.0615  0.0472
  144DOPS   PO4 1679   3.239  34.369  16.252 -0.0374 -0.0210 -0.1773
  144DOPS   GL1 1680   3.372  34.672  16.022  0.0782 -0.2854 -0.0435
  144DOPS   GL2 1681   3.600  34.839  16.125  0.0439  0.0844  0.2728
  144DOPS   C1A 1682   3.609  34.588  15.580 -0.0537  0.1131 -0.1836
  144DOPS   D2A 1683   4.046  34.616  15.387 -0.2274 -0.0146 -0.1595
  144DOPS   C3A 1684   4.395  34.368  15.166  0.2179 -0.0567  0.0111
  144DOPS   C4A 1685   4.542  34.248  14.789 -0.0483  0.0562 -0.1333
  144DOPS   C1B 1686   3.943  34.862  15.782 -0.1457  0.0425  0.0669
  144DOPS   D2B 1687   4.355  34.952  15.688 -0.1967 -0.2400 -0.3001
  144DOPS   C3B 1688   4.657  34.849  15.341 -0.2568 -0.2733 -0.0105
  144DOPS   C4B 1689   5.032  34.709  15.022  0.0727  0.3775 -0.2200
  145DOPC   NC3 1690   7.549  10.557  15.751 -0.1528  0.0678 -0.2155
  145DOPC   PO4 1691   7.783  10.821  15.589  0.0040  0.0061  0.1389
  145DOPC   GL1 1692   7.542  10.713  15.347  0.1295  0.1353 -0.0632
  145DOPC   GL2 1693   7.267  10.835  15.333  0.0910 -0.0639  0.0569
  145DOPC   C1A 1694   7.489  10.733  14.912 -0.1997 -0.0643  0.0148
  145DOPC   D2A 1695   7.207  10.550  14.560 -0.0942  0.0180  0.2194
  145DOPC   C3A 1696   7.046  10.438  14.127 -0.0034  0.0348  0.0975
  145DOPC   C4A 1697   6.720  10.330  13.806  0.1193  0.2883 -0.0298
  145DOPC   C1B 1698   7.298  10.377  15.230  0.0180 -0.0015 -0.0114
  145DOPC   D2B 1699   7.464   9.970  15.221  0.0946 -0.1842 -0.2031
  145DOPC   C3B 1700   7.229   9.628  14.976 -0.2032 -0.0180 -0.0232
  145DOPC   C4B 1701   6.882   9.320  14.899 -0.0358  0.2213 -0.1677
  146POSM   NC3 1702   7.861   4.166  17.145  0.4227 -0.1678  0.2929
  146POSM   PO4 1703   7.757   3.751  17.189 -0.1005  0.0867  0.1574
  146POSM   AM1 1704   7.747   3.683  16.869 -0.3100  0.2752  0.0233
  146POSM   AM2 1705   7.511   3.485  16.796  0.2187 -0.2529 -0.1472
  146POSM   T1A 1706   7.765   3.679  16.304  0.3245 -0.0057  0.1789
  146POSM   C2A 1707   7.693   3.541  15.896 -0.4224  0.0965  0.2396
  146POSM   C3A 1708   7.596   3.153  15.681  0.1528  0.1959 -0.0344
  146POSM   C1B 1709   7.216   3.313  16.779 -0.3059 -0.0779 -0.0379
  146POSM   D2B 1710   6.772   3.207  16.588 -0.3211  0.1292  0.0824
  146POSM   C3B 1711   6.499   3.593  16.617 -0.3132 -0.1010  0.1730
  146POSM   C4B 1712   6.042   3.623  16.591  0.1394  0.0325  0.1400
  147DOPC   NC3 1713   7.473   0.203  16.681  0.0405  0.5344 -0.1460
  147DOPC   PO4 1714   7.096   0.174  16.788  0.1671 -0.0586  0.0169
  147DOPC   GL1 1715   6.997   0.140  16.357 -0.0853 -0.0918  0.0221
  147DOPC   GL2 1716   7.212   0.372  16.337 -0.0375 -0.0605  0.0314
  147DOPC   C1A 1717   7.032  -0.172  16.056  0.1001 -0.2829  0.1034
  147DOPC   D2A 1718   7.056  -0.445  15.724 -0.0895 -0.0070 -0.1918
  147DOPC   C3A 1719   7.452  -0.458  15.547 -0.0154 -0.2099  0.4827
  147DOPC   C4A 1720   7.886  -0.365  15.370  0.2083 -0.1318 -0.0232
  147DOPC   C1B 1721   7.465   0.494  15.984  0.3629  0.1735 -0.1025
  147DOPC   D2B 1722   7.655   0.850  15.756 -0.0153  0.0042  0.2100
  147DOPC   C3B 1723   7.828   1.049  15.372  0.2072  0.1188  0.1647
  147DOPC   C4B 1724   7.781   1.440  15.142  0.0375 -0.0283  0.1152
  148DOPC   NC3 1725  11.482  33.672  16.447  0.5420  0.1368  0.1946
  148DOPC   PO4 1726  11.829  33.621  16.292 -0.1496  0.0862 -0.2235
  148DOPC   GL1 1727  11.768  33.443  15.979  0.2119  0.4040 -0.5230
  148DOPC   GL2 1728  11.604  33.480  15.826 -0.2719  0.0330 -0.3034
  148DOPC   C1A 1729  12.034  33.428  15.558 -0.0195  0.1421  0.1404
  148DOPC   D2A 1730  12.129  33.674  15.197 -0.1780  0.0206 -0.2391
  148DOPC   C3A 1731  12.016  33.666  14.726  0.1480 -0.0277  0.0259
  148DOPC   C4A 1732  11.944  33.590  14.346  0.3618  0.0961  0.0101
  148DOPC   C1B 1733  11.195  33.686  15.676  0.0621 -0.1359 -0.1742
  148DOPC   D2B 1734  10.740  33.743  15.574 -0.0231  0.0540 -0.0717
  148DOPC   C3B 1735  10.700  33.731  15.149 -0.0474  0.2564  0.0587
  148DOPC   C4B 1736  10.659  33.680  14.703 -0.0770 -0.1622 -0.2183
  149DOPE   NH3 1737   7.625  31.956  16.060 -0.0806 -0.0393  0.2072
  149DOPE   PO4 1738   7.971  32.042  16.174  0.0274  0.0822 -0.0331
  149DOPE   GL1 1739   7.995  31.929  15.783 -0.0749 -0.1562 -0.0235
  149DOPE   GL2 1740   8.233  31.709  15.644  0.2026 -0.2299  0.2509
  149DOPE   C1A 1741   7.687  31.965  15.434  0.3518 -0.0880 -0.3326
  149DOPE   D2A 1742   7.723  32.167  15.001  0.4095  0.1461  0.2065
  149DOPE   C3A 1743   7.544  31.983  14.605 -0.1821 -0.1925 -0.0348
  149DOPE   C4A 1744   7.411  32.026  14.108 -0.2254 -0.0451 -0.1150
  149DOPE   C1B 1745   8.397  31.432  15.310 -0.0068  0.3965 -0.2197
  149DOPE   D2B 1746   8.138  31.354  14.955  0.3511 -0.0028  0.2838
  149DOPE   C3B 1747   7.972  31.688  14.629 -0.2660  0.0881  0.0042
  149DOPE   C4B 1748   8.049  32.123  14.477 -0.0661  0.3277 -0.2491
  150POSM   NC3 1749   9.137  33.982  16.932  0.0675 -0.2169 -0.2354
  150POSM   PO4 1750   9.405  34.227  17.065 -0.2081  0.2332  0.1885
  150POSM   AM1 1751   9.538  34.191  16.769 -0.0591 -0.0320 -0.1170
  150POSM   AM2 1752   9.771  34.301  16.647 -0.0447 -0.1872 -0.1344
  150POSM   T1A 1753   9.383  34.286  16.275  0.0769 -0.0331 -0.1160
  150POSM   C2A 1754   9.289  34.122  15.862  0.0763 -0.0990  0.0549
  150POSM   C3A 1755   9.154  33.782  15.498 -0.0768 -0.0175  0.0846
  150POSM   C1B 1756  10.007  34.346  16.387 -0.1347  0.1683  0.1352
  150POSM   D2B 1757  10.355  34.265  16.088 -0.3021  0.2575 -0.2046
  150POSM   C3B 1758  10.160  34.286  15.692  0.1412 -0.2236 -0.1449
  150POSM   C4B 1759  10.006  34.435  15.285 -0.3444  0.0644 -0.2285
  151POSM   NC3 1760   0.176   8.102  16.064 -0.0830  0.0822 -0.1386
  151POSM   PO4 1761  -0.036   8.442  15.940  0.1122  0.1681 -0.2280
  151POSM   AM1 1762   0.248   8.473  15.743 -0.1026  0.2067  0.0320
  151POSM   AM2 1763   0.475   8.294  15.671  0.0516  0.2678 -0.0527
  151POSM   T1A 1764   0.526   8.726  15.428 -0.1870 -0.0091  0.1225
  151POSM   C2A 1765   0.749   8.572  15.066  0.2000 -0.0248  0.1183
  151POSM   C3A 1766   1.031   8.494  14.711  0.4077  0.1451  0.2159
  151POSM   C1B 1767   0.461   8.163  15.304  0.2427 -0.8771  0.1925
  151POSM   D2B 1768   0.527   8.118  14.806  0.0348  0.0016  0.4227
  151POSM   C3B 1769   0.545   8.493  14.523  0.4019  0.1979 -0.0858
  151POSM   C4B 1770   0.872   8.711  14.281 -0.1263  0.2966  0.2372
  152DOPE   NH3 1771   3.018   2.638  16.525  0.5019  0.4022 -0.1076
  152DOPE   PO4 1772   2.897   2.783  16.257  0.0055 -0.0866  0.0009
  152DOPE   GL1 1773   3.116   2.833  15.959  0.0600 -0.0813 -0.2975
  152DOPE   GL2 1774   2.910   3.039  15.805 -0.1504 -0.4256  0.0937
  152DOPE   C1A 1775   3.319   2.997  15.525  0.1474  0.4151 -0.2587
  152DOPE   D2A 1776   3.307   3.096  15.063 -0.1890  0.1541  0.0441
  152DOPE   C3A 1777   3.635   3.322  14.869 -0.0390 -0.0624  0.1502
  152DOPE   C4A 1778   3.796   3.707  14.592 -0.1576  0.1588  0.3063
  152DOPE   C1B 1779   2.649   3.195  15.432  0.3003  0.0858  0.0277
  152DOPE   D2B 1780   2.445   3.106  15.014 -0.2371  0.0080 -0.1087
  152DOPE   C3B 1781   2.436   3.471  14.654  0.0397  0.1682  0.0014
  152DOPE   C4B 1782   2.222   3.701  14.272 -0.0203 -0.1259 -0.1433
  153POSM   NC3 1783   0.237   1.841  16.394  0.0829 -0.0338  0.5705
  153POSM   PO4 1784   0.268   2.043  16.034 -0.0120  0.0148  0.3572
  153POSM   AM1 1785   0.125   2.137  15.719  0.3308  0.1396 -0.0741
  153POSM   AM2 1786  -0.011   2.024  15.485 -0.1473 -0.1147  0.0354
  153POSM   T1A 1787   0.138   2.517  15.375  0.2777 -0.3800  0.1682
  153POSM   C2A 1788   0.124   2.729  14.973  0.3197  0.0814  0.2901
  153POSM   C3A 1789   0.122   2.914  14.563 -0.1502  0.3538  0.0715
  153POSM   C1B 1790   0.170   1.921  15.232  0.1874  0.0148  0.3301
  153POSM   D2B 1791   0.298   1.967  14.849 -0.1289 -0.0001 -0.0858
  153POSM   C3B 1792   0.657   2.102  14.689  0.0834  0.0938 -0.0111
  153POSM   C4B 1793   0.702   2.298  14.330  0.0417  0.0679 -0.1387
  154DOPE   NH3 1794   4.373  12.259  14.637  0.4785 -0.0513 -0.2599
  154DOPE   PO4 1795   4.168  12.072  14.789 -0.0106 -0.1052 -0.0497
  154DOPE   GL1 1796   4.157  11.851  14.488  0.0183  0.3119  0.0046
  154DOPE   GL2 1797   3.960  12.042  14.330 -0.1122  0.0301 -0.0596
  154DOPE   C1A 1798   4.068  11.685  14.070  0.0832 -0.1512  0.1063
  154DOPE   D2A 1799   4.067  11.319  13.854 -0.0969  0.0579  0.1801
  154DOPE   C3A 1800   4.249  10.960  14.067  0.3633  0.1509  0.0592
  154DOPE   C4A 1801   4.099  10.537  13.993  0.0266 -0.1694 -0.1397
  154DOPE   C1B 1802   4.360  12.067  14.094 -0.1457 -0.0568  0.1301
  154DOPE   D2B 1803   4.632  12.176  13.779 -0.0606  0.1949 -0.0514
  154DOPE   C3B 1804   4.434  12.486  13.499  0.1422 -0.1950  0.0619
  154DOPE   C4B 1805   4.323  12.501  13.068  0.0616  0.2722  0.0425
  155POSM   NC3 1806  34.435   4.398  16.404 -0.1930 -0.1306  0.0632
  155POSM   PO4 1807  34.200   4.668  16.445  0.2877 -0.1232  0.2278
  155POSM   AM1 1808  34.229   4.854  16.221  0.2319  0.1735  0.4179
  155POSM   AM2 1809  34.081   4.957  15.962  0.1935  0.1529 -0.3375
  155POSM   T1A 1810  34.564   5.053  15.847 -0.0712 -0.3570  0.2627
  155POSM   C2A 1811  34.540   5.414  15.575  0.0749  0.3227  0.0526
  155POSM   C3A 1812  34.882   5.635  15.451 -0.1267 -0.1970 -0.1874
  155POSM   C1B 1813  34.127   4.991  15.634 -0.2764  0.0008  0.2659
  155POSM   D2B 1814  34.236   4.959  15.225  0.0389  0.1748 -0.1710
  155POSM   C3B 1815  34.312   5.300  14.961 -0.0075 -0.0731  0.0555
  155POSM   C4B 1816  34.290   5.668  14.656 -0.1389 -0.2548 -0.1178
  156DOPS   CNO 1817  12.918   2.324  16.690  0.1756  0.2085 -0.2397
  156DOPS   PO4 1818  12.839   2.235  16.345  0.1050  0.0129  0.1330
  156DOPS   GL1 1819  12.602   2.360  16.041  0.0821  0.0520 -0.2187
  156DOPS   GL2 1820  12.388   2.615  15.927  0.1387  0.2209  0.1500
  156DOPS   C1A 1821  12.544   2.262  15.566 -0.2059 -0.2495 -0.2565
  156DOPS   D2A 1822  12.556   2.473  15.128 -0.1947  0.1450  0.0052
  156DOPS   C3A 1823  12.271   2.231  14.846  0.2764  0.0097 -0.3129
  156DOPS   C4A 1824  12.139   1.743  14.964  0.0165 -0.1742 -0.0484
  156DOPS   C1B 1825  12.063   2.332  15.683 -0.0701 -0.0365  0.0328
  156DOPS   D2B 1826  12.018   2.157  15.272 -0.1742  0.0424  0.0866
  156DOPS   C3B 1827  11.763   2.045  14.895 -0.3655  0.1527  0.3038
  156DOPS   C4B 1828  11.338   2.118  14.652 -0.2378 -0.0657 -0.0861
  157DOPC   NC3 1829   5.467  10.120  16.015  0.0248  0.2856  0.0406
  157DOPC   PO4 1830   5.214  10.396  16.193  0.0982  0.1552 -0.1095
  157DOPC   GL1 1831   4.886  10.104  16.195 -0.2163  0.0329  0.1991
  157DOPC   GL2 1832   4.722  10.048  15.986 -0.2720  0.0864 -0.1950
  157DOPC   C1A 1833   4.959   9.592  16.256 -0.2183 -0.4893 -0.1234
  157DOPC   D2A 1834   5.214   9.196  16.378  0.3989 -0.1332 -0.2308
  157DOPC   C3A 1835   5.592   8.991  16.202 -0.3133 -0.1675 -0.1160
  157DOPC   C4A 1836   5.883   8.565  16.322  0.0396 -0.2251  0.0897
  157DOPC   C1B 1837   5.149   9.843  15.885  0.1160 -0.2117 -0.1991
  157DOPC   D2B 1838   5.400   9.467  15.916 -0.0531  0.1568  0.1149
  157DOPC   C3B 1839   5.762   9.205  15.801 -0.2091 -0.2535 -0.0899
  157DOPC   C4B 1840   6.068   8.915  15.999  0.2189  0.1838 -0.1779
  158DOPS   CNO 1841   0.208  11.840  14.146  0.2073 -0.2692  0.0021
  158DOPS   PO4 1842   0.341  12.113  14.374  0.0522  0.2122 -0.1233
  158DOPS   GL1 1843   0.543  12.232  13.997 -0.3810 -0.0295  0.0201
  158DOPS   GL2 1844   0.629  12.534  13.927 -0.0046  0.0120 -0.0421
  158DOPS   C1A 1845   0.827  12.001  13.682  0.0098  0.2059 -0.3309
  158DOPS   D2A 1846   0.980  11.667  13.437  0.0198  0.3963  0.0906
  158DOPS   C3A 1847   1.369  11.458  13.416  0.1336  0.1649  0.2926
  158DOPS   C4A 1848   1.443  11.014  13.434 -0.1832 -0.1053 -0.0634
  158DOPS   C1B 1849   0.668  12.406  13.483 -0.1057  0.3558 -0.0496
  158DOPS   D2B 1850   0.809  12.055  13.206 -0.0472 -0.1356 -0.3231
  158DOPS   C3B 1851   0.897  12.033  12.741  0.2794 -0.1015 -0.3842
  158DOPS   C4B 1852   0.962  11.955  12.337 -0.1981  0.1248  0.1410
  159DOPE   NH3 1853   9.820   9.863  15.611  0.0186 -0.0493 -0.0825
  159DOPE   PO4 1854   9.538   9.753  15.622  0.2727  0.0650 -0.1466
  159DOPE   GL1 1855   9.428   9.696  15.265  0.3057 -0.2581 -0.1900
  159DOPE   GL2 1856   9.398   9.893  15.090  0.3043 -0.0651 -0.3014
  159DOPE   C1A 1857   9.463   9.387  14.949  0.3602  0.0723 -0.0978
  159DOPE   D2A 1858   9.147   9.143  14.760  0.3369  0.4070 -0.1821
  159DOPE   C3A 1859   8.938   9.128  14.341 -0.0760 -0.0720  0.1829
  159DOPE   C4A 1860   8.846   9.072  13.892  0.0924  0.0917  0.0118
  159DOPE   C1B 1861   9.261   9.919  14.658 -0.2322 -0.0699 -0.1766
  159DOPE   D2B 1862   9.148   9.575  14.377 -0.0443  0.0360  0.0754
  159DOPE   C3B 1863   8.747   9.554  14.115 -0.1219  0.3340  0.2301
  159DOPE   C4B 1864   8.325   9.288  14.107 -0.0124 -0.0799 -0.1742
  160DOPC   NC3 1865   2.635   9.715  16.398  0.1594 -0.1356 -0.0021
  160DOPC   PO4 1866   2.573   9.819  16.006 -0.0230 -0.0684  0.2063
  160DOPC   GL1 1867   2.777   9.611  15.776  0.1306  0.0053  0.0334
  160DOPC   GL2 1868   2.734   9.765  15.525  0.1436  0.1657  0.2871
  160DOPC   C1A 1869   2.745   9.142  15.654  0.1055  0.1562  0.0173
  160DOPC   D2A 1870   2.770   8.677  15.638 -0.1063  0.0145  0.0596
  160DOPC   C3A 1871   2.632   8.355  15.287 -0.1642 -0.2645 -0.0057
  160DOPC   C4A 1872   2.641   7.860  15.250  0.1921 -0.1195 -0.0209
  160DOPC   C1B 1873   2.537   9.438  15.205 -0.0827  0.3478 -0.2292
  160DOPC   D2B 1874   2.579   9.037  14.993  0.1445  0.1397 -0.0864
  160DOPC   C3B 1875   2.394   8.589  14.861  0.0124  0.2064 -0.0747
  160DOPC   C4B 1876   2.478   8.146  14.872 -0.0057 -0.0501 -0.3104
  161DOPS   CNO 1877   0.218   4.107  16.669 -0.0326 -0.0814  0.0800
  161DOPS   PO4 1878   0.171   3.981  16.356 -0.2316  0.2344  0.0105
  161DOPS   GL1 1879   0.109   3.767  16.093  0.0580  0.0497  0.1579
  161DOPS   GL2 1880  -0.164   3.686  16.019  0.3811 -0.5098 -0.2669
  161DOPS   C1A 1881   0.283   3.684  15.688 -0.1257  0.2554 -0.1859
  161DOPS   D2A 1882   0.526   3.412  15.380 -0.3323 -0.1089  0.2421
  161DOPS   C3A 1883   0.833   3.385  14.989  0.1295  0.4048  0.0334
  161DOPS   C4A 1884   0.918   3.731  14.696 -0.0718 -0.3841  0.0176
  161DOPS   C1B 1885  -0.507   3.747  15.745  0.1563  0.0049 -0.2202
  161DOPS   D2B 1886  -0.727   3.649  15.358 -0.1425 -0.0058  0.0536
  161DOPS   C3B 1887  -0.958   3.990  15.197 -0.2168  0.0871  0.0648
  161DOPS   C4B 1888  -1.142   4.147  14.837  0.1351  0.0928 -0.0247
  162DOPC   NC3 1889   2.734   2.180  16.442  0.2139 -0.2843  0.3663
  162DOPC   PO4 1890   3.130   2.118  16.496 -0.1609  0.1653 -0.2013
  162DOPC   GL1 1891   3.339   2.420  16.297 -0.1649  0.2471  0.4329
  162DOPC   GL2 1892   3.167   2.398  16.068  0.0333  0.1934  0.0267
  162DOPC   C1A 1893   3.722   2.343  16.114 -0.1456  0.1755 -0.3171
  162DOPC   D2A 1894   4.179   2.146  16.164  0.0837  0.1506 -0.1616
  162DOPC   C3A 1895   4.494   2.157  15.809 -0.0101 -0.1668 -0.0081
  162DOPC   C4A 1896   4.700   1.997  15.430  0.0065 -0.0669  0.0384
  162DOPC   C1B 1897   3.155   2.303  15.583  0.0050  0.1008  0.0018
  162DOPC   D2B 1898   3.123   2.154  15.082 -0.2283  0.0351 -0.4841
  162DOPC   C3B 1899   3.342   1.819  14.864 -0.1839  0.1139 -0.0941
  162DOPC   C4B 1900   3.423   1.349  14.857  0.0566 -0.1583  0.0258
  163DOPE   NH3 1901   8.103   9.330  16.342 -0.0651 -0.2246  0.2086
  163DOPE   PO4 1902   7.917   9.397  16.072  0.0962  0.0575  0.0228
  163DOPE   GL1 1903   7.796   9.433  15.776 -0.1321 -0.0343  0.0397
  163DOPE   GL2 1904   7.587   9.298  15.672  0.0489 -0.0425  0.1955
  163DOPE   C1A 1905   8.128   9.252  15.451 -0.2311  0.0235 -0.0300
  163DOPE   D2A 1906   8.054   9.241  14.976  0.1645 -0.0539  0.2010
  163DOPE   C3A 1907   8.175   8.810  14.769  0.1832  0.0878  0.4946
  163DOPE   C4A 1908   8.158   8.398  14.702  0.1278  0.1188  0.4381
  163DOPE   C1B 1909   7.652   9.512  15.295  0.0065 -0.1082  0.0422
  163DOPE   D2B 1910   7.714   9.609  14.852  0.1511  0.1868  0.0743
  163DOPE   C3B 1911   7.454   9.462  14.526 -0.1229 -0.1612 -0.0152
  163DOPE   C4B 1912   7.238   9.482  14.115 -0.0505  0.0269  0.2766
  164POSM   NC3 1913   6.599   6.000  17.396  0.1975 -0.1367 -0.0932
  164POSM   PO4 1914   6.525   5.724  17.176  0.1462  0.0959  0.1698
  164POSM   AM1 1915   6.448   5.776  16.847 -0.1736  0.4090 -0.2456
  164POSM   AM2 1916   6.229   5.689  16.662 -0.1800 -0.0907  0.0361
  164POSM   T1A 1917   6.447   6.037  16.412 -0.1753 -0.0336 -0.2946
  164POSM   C2A 1918   6.374   5.957  15.968  0.1720 -0.0566  0.0216
  164POSM   C3A 1919   6.451   5.957  15.507 -0.0791  0.3698 -0.2989
  164POSM   C1B 1920   6.197   5.443  16.489  0.0034  0.2721  0.3656
  164POSM   D2B 1921   6.009   5.040  16.250 -0.1004  0.0940 -0.2366
  164POSM   C3B 1922   5.862   4.877  15.836 -0.3431  0.1009  0.0232
  164POSM   C4B 1923   5.996   5.090  15.513 -0.0320  0.2324 -0.2642
  165DOPE   NH3 1924   3.553  12.682  14.806  0.0479 -0.1588  0.1247
  165DOPE   PO4 1925   3.705  12.371  14.850  0.1549 -0.2074  0.3138
  165DOPE   GL1 1926   3.666  12.303  14.519  0.0135  0.1480 -0.0570
  165DOPE   GL2 1927   3.486  12.507  14.346  0.1817 -0.3428 -0.1498
  165DOPE   C1A 1928   3.443  11.907  14.423 -0.2047  0.1213  0.0789
  165DOPE   D2A 1929   3.510  11.565  14.053 -0.0017  0.1510  0.0815
  165DOPE   C3A 1930   3.323  11.664  13.634 -0.2947 -0.0475 -0.1568
  165DOPE   C4A 1931   2.958  11.710  13.391 -0.2432 -0.1372  0.0778
  165DOPE   C1B 1932   3.556  12.202  13.954  0.0053 -0.1473 -0.0919
  165DOPE   D2B 1933   3.798  11.866  13.766  0.1376 -0.0711  0.1729
  165DOPE   C3B 1934   3.826  11.716  13.325  0.2742  0.0155 -0.3061
  165DOPE   C4B 1935   4.043  11.452  12.999  0.2086  0.0393  0.2050
  166POSM   NC3 1936   7.292   8.518  16.621 -0.2281  0.1680  0.1012
  166POSM   PO4 1937   7.040   8.372  16.887  0.0398  0.1404 -0.0386
  166POSM   AM1 1938   6.959   8.152  16.681 -0.0987  0.0340  0.1849
  166POSM   AM2 1939   6.761   7.985  16.624  0.2011 -0.2071 -0.0191
  166POSM   T1A 1940   7.255   7.888  16.396  0.2846 -0.0864 -0.2469
  166POSM   C2A 1941   7.513   7.852  16.016  0.1011 -0.2073 -0.1814
  166POSM   C3A 1942   7.705   8.044  15.580  0.0648 -0.0515 -0.2732
  166POSM   C1B 1943   6.679   7.785  16.336  0.1982  0.1278 -0.0403
  166POSM   D2B 1944   6.621   7.431  16.140  0.0372 -0.1586 -0.0817
  166POSM   C3B 1945   6.446   7.639  15.736 -0.0545  0.0171  0.0161
  166POSM   C4B 1946   6.279   7.944  15.419 -0.0776  0.1759 -0.3522
  167DOPC   NC3 1947  10.422   1.510  17.357  0.2089 -0.2019 -0.1975
  167DOPC   PO4 1948  10.202   1.778  17.177  0.0899  0.1321 -0.2045
  167DOPC   GL1 1949  10.216   1.836  16.827 -0.0895  0.2707 -0.0614
  167DOPC   GL2 1950   9.970   1.676  16.745 -0.0284  0.1570 -0.1027
  167DOPC   C1A 1951  10.204   2.042  16.424 -0.0923 -0.4325 -0.1066
  167DOPC   D2A 1952  10.113   2.462  16.333  0.5389 -0.2092  0.0534
  167DOPC   C3A 1953   9.917   2.567  15.919 -0.3550 -0.3426  0.0786
  167DOPC   C4A 1954   9.852   2.766  15.497  0.0422  0.1269 -0.0039
  167DOPC   C1B 1955   9.712   2.031  16.513 -0.0042  0.0326  0.0017
  167DOPC   D2B 1956   9.246   2.140  16.479 -0.1005  0.0236  0.3078
  167DOPC   C3B 1957   8.880   2.271  16.227 -0.4115  0.0573  0.1029
  167DOPC   C4B 1958   8.822   2.598  15.906 -0.0265 -0.1754 -0.0161
  168DOPE   NH3 1959   6.138  10.656  15.885  0.2503 -0.1070 -0.2376
  168DOPE   PO4 1960   6.082  10.893  15.692  0.3094  0.2204 -0.0094
  168DOPE   GL1 1961   6.113  10.570  15.384  0.1007  0.2597 -0.0560
  168DOPE   GL2 1962   5.845  10.582  15.282 -0.1157  0.0730 -0.0492
  168DOPE   C1A 1963   6.239  10.563  14.949 -0.0792 -0.3032  0.1218
  168DOPE   D2A 1964   6.177  10.425  14.538 -0.0592 -0.0682  0.3302
  168DOPE   C3A 1965   6.438  10.649  14.154  0.1562 -0.1075  0.2428
  168DOPE   C4A 1966   6.849  10.864  13.984  0.1616  0.0785 -0.1212
  168DOPE   C1B 1967   5.475  10.355  15.086 -0.0015  0.1268  0.0102
  168DOPE   D2B 1968   5.189  10.456  14.746 -0.2833 -0.1359  0.0230
  168DOPE   C3B 1969   4.950  10.332  14.360 -0.1922 -0.0635  0.1490
  168DOPE   C4B 1970   4.591  10.442  14.095  0.1366 -0.0807 -0.0366
  169POSM   NC3 1971   8.842  33.234  16.805 -0.0973  0.0892 -0.1308
  169POSM   PO4 1972   9.164  33.502  16.825  0.2348  0.1006 -0.0548
  169POSM   AM1 1973   9.202  33.718  16.573 -0.2360  0.2849 -0.2296
  169POSM   AM2 1974   9.381  33.813  16.391  0.0993  0.4693 -0.2688
  169POSM   T1A 1975   8.911  34.011  16.246 -0.5725 -0.0201  0.0008
  169POSM   C2A 1976   8.946  34.446  16.073 -0.1744 -0.0895 -0.3187
  169POSM   C3A 1977   9.302  34.640  15.838 -0.2027 -0.0112  0.0032
  169POSM   C1B 1978   9.328  33.649  16.096 -0.1456 -0.1231  0.0449
  169POSM   D2B 1979   9.197  33.321  15.790 -0.2276 -0.0246 -0.0100
  169POSM   C3B 1980   9.359  33.329  15.300  0.1733  0.3261  0.1101
  169POSM   C4B 1981   9.533  33.376  14.829 -0.3867  0.1980 -0.1579
  170DOPE   NH3 1982   9.504  10.274  15.388  0.0146  0.1997 -0.1724
  170DOPE   PO4 1983   9.795  10.368  15.566  0.2028 -0.0420  0.3534
  170DOPE   GL1 1984   9.850  10.030  15.153 -0.0710 -0.1099 -0.2109
  170DOPE   GL2 1985   9.901   9.729  15.122  0.1282  0.0713  0.2606
  170DOPE   C1A 1986  10.158  10.049  14.793 -0.0217 -0.2175  0.2414
  170DOPE   D2A 1987  10.446  10.061  14.430  0.1767  0.0546 -0.0036
  170DOPE   C3A 1988  10.752   9.721  14.259  0.0898  0.1518 -0.1986
  170DOPE   C4A 1989  10.565   9.434  13.876 -0.1736 -0.2280  0.2829
  170DOPE   C1B 1990   9.765   9.708  14.658 -0.1874  0.2107 -0.1121
  170DOPE   D2B 1991   9.578   9.698  14.219  0.0697 -0.0764  0.3191
  170DOPE   C3B 1992   9.593   9.842  13.777  0.0067 -0.0611  0.0746
  170DOPE   C4B 1993   9.741   9.828  13.320  0.1275 -0.1920 -0.2051
  171DOPE   NH3 1994   0.741   2.546  16.126 -0.1757 -0.0773 -0.2224
  171DOPE   PO4 1995   0.683   2.281  15.953  0.3701 -0.1234  0.0731
  171DOPE   GL1 1996   0.712   2.401  15.544  0.4997 -0.3782  0.2935
  171DOPE   GL2 1997   0.538   2.218  15.451  0.1704  0.3255  0.2837
  171DOPE   C1A 1998   1.034   2.475  15.216  0.1616 -0.0709 -0.0477
  171DOPE   D2A 1999   1.049   2.412  14.764 -0.0108 -0.2265  0.1258
  171DOPE   C3A 2000   0.906   2.742  14.455 -0.0410  0.0538 -0.1884
  171DOPE   C4A 2001   1.158   3.049  14.213  0.2231  0.2978  0.2847
  171DOPE   C1B 2002   0.489   2.404  15.023  0.1696  0.2104  0.1484
  171DOPE   D2B 2003   0.406   2.524  14.598 -0.1207  0.2169  0.0304
  171DOPE   C3B 2004   0.350   2.623  14.199 -0.0775 -0.1345  0.1613
  171DOPE   C4B 2005   0.325   2.776  13.807  0.1608 -0.0420 -0.2334
  172DOPE   NH3 2006   5.855   4.585  17.508  0.1444  0.0365 -0.2066
  172DOPE   PO4 2007   6.111   4.362  17.439 -0.1161 -0.0215 -0.0731
  172DOPE   GL1 2008   5.935   4.274  17.070  0.1147  0.3135 -0.1353
  172DOPE   GL2 2009   6.169   4.151  16.961  0.2375 -0.0962 -0.0269
  172DOPE   C1A 2010   6.141   4.576  16.701  0.3380  0.2790  0.1310
  172DOPE   D2A 2011   6.249   4.420  16.260  0.0196 -0.1722 -0.0762
  172DOPE   C3A 2012   6.145   3.990  16.062  0.3186  0.0448  0.1256
  172DOPE   C4A 2013   5.799   3.710  16.146  0.0361  0.3774  0.1983
  172DOPE   C1B 2014   5.919   4.138  16.572  0.3207 -0.3121  0.0029
  172DOPE   D2B 2015   5.643   4.199  16.174 -0.1673  0.1581 -0.3057
  172DOPE   C3B 2016   5.910   4.347  15.801 -0.1344 -0.0767  0.1493
  172DOPE   C4B 2017   5.736   4.558  15.446  0.0468 -0.0948 -0.4258
  173DOPE   NH3 2018   0.985  34.140  16.043  0.0141 -0.1044 -0.1096
  173DOPE   PO4 2019   0.833  34.081  15.734 -0.1373  0.2674  0.0952
  173DOPE   GL1 2020   0.958  33.950  15.363 -0.2108 -0.1428  0.0222
  173DOPE   GL2 2021   0.888  33.732  15.166 -0.1432 -0.0461  0.1296
  173DOPE   C1A 2022   0.861  34.141  14.914 -0.0646 -0.0338 -0.0621
  173DOPE   D2A 2023   0.866  34.535  14.718  0.4073 -0.0106  0.0195
  173DOPE   C3A 2024   0.778  34.854  14.347  0.0261 -0.3063 -0.3354
  173DOPE   C4A 2025   0.763  35.318  14.227  0.2669 -0.2669  0.0395
  173DOPE   C1B 2026   0.723  33.655  14.750 -0.0452 -0.0208 -0.0535
  173DOPE   D2B 2027   0.871  33.673  14.326 -0.0953 -0.1375  0.0665
  173DOPE   C3B 2028   1.121  33.335  14.325 -0.0645 -0.0034 -0.2696
  173DOPE   C4B 2029   1.367  32.915  14.289  0.0099 -0.3657  0.2176
  174POSM   NC3 2030  10.883   3.382  16.920  0.0016 -0.1348  0.1552
  174POSM   PO4 2031  10.976   3.020  16.850  0.2680  0.1398  0.1197
  174POSM   AM1 2032  10.971   3.081  16.521 -0.1554 -0.1659  0.1873
  174POSM   AM2 2033  11.000   2.923  16.315 -0.0905  0.0713  0.2090
  174POSM   T1A 2034  10.741   3.260  16.136 -0.1329 -0.0479 -0.1785
  174POSM   C2A 2035  10.384   3.317  15.846 -0.0897  0.0733 -0.3672
  174POSM   C3A 2036  10.179   3.211  15.421 -0.0115 -0.2282  0.0316
  174POSM   C1B 2037  11.062   2.880  15.972  0.0155 -0.1191 -0.1667
  174POSM   D2B 2038  11.066   2.843  15.507  0.0955  0.1392 -0.1046
  174POSM   C3B 2039  10.614   2.967  15.434  0.1344  0.4005 -0.1203
  174POSM   C4B 2040  10.521   3.142  15.009 -0.0760 -0.0152 -0.2211
  175DOPE   NH3 2041   7.731   5.303  17.118  0.0783  0.1069 -0.2914
  175DOPE   PO4 2042   7.878   5.554  16.993  0.1425 -0.2511 -0.2090
  175DOPE   GL1 2043   7.848   5.323  16.604  0.1356 -0.1148 -0.2020
  175DOPE   GL2 2044   7.839   5.038  16.580  0.1499 -0.0683  0.1717
  175DOPE   C1A 2045   7.643   5.574  16.245 -0.0875 -0.1877 -0.0990
  175DOPE   D2A 2046   7.375   5.667  15.864  0.0286 -0.0379 -0.1496
  175DOPE   C3A 2047   7.339   5.430  15.438  0.0117 -0.1003  0.0926
  175DOPE   C4A 2048   7.168   5.364  14.994  0.0170  0.0043  0.0807
  175DOPE   C1B 2049   7.579   5.051  16.223  0.2345 -0.0213 -0.0446
  175DOPE   D2B 2050   7.547   5.185  15.815 -0.3788 -0.0193  0.0571
  175DOPE   C3B 2051   7.565   5.027  15.370 -0.0760  0.1895  0.2888
  175DOPE   C4B 2052   7.793   5.056  14.957  0.1133  0.0228  0.2768
  176DOPE   NH3 2053   7.872   9.873  16.240 -0.2365  0.5283 -0.1610
  176DOPE   PO4 2054   7.783   9.921  15.940 -0.3517  0.4048  0.2547
  176DOPE   GL1 2055   7.791   9.924  15.529  0.2834  0.1050  0.1213
  176DOPE   GL2 2056   7.819  10.217  15.471  0.1463  0.0042  0.0250
  176DOPE   C1A 2057   8.111   9.836  15.186  0.1952 -0.2072  0.0220
  176DOPE   D2A 2058   8.243  10.200  14.850  0.1566  0.1751  0.1603
  176DOPE   C3A 2059   8.229   9.987  14.390  0.0942  0.0689  0.0664
  176DOPE   C4A 2060   8.139   9.802  13.976  0.0741  0.1116  0.0368
  176DOPE   C1B 2061   7.826  10.341  15.014 -0.1536 -0.2968 -0.3351
  176DOPE   D2B 2062   7.660  10.236  14.575 -0.0254  0.1629  0.0437
  176DOPE   C3B 2063   7.778   9.828  14.367  0.1191  0.0461  0.5318
  176DOPE   C4B 2064   7.681   9.592  13.989 -0.0042  0.2713  0.3407
  177POSM   NC3 2065  10.126   3.430  17.415  0.0143  0.1529  0.1765
  177POSM   PO4 2066   9.815   3.460  17.173 -0.0381 -0.1402 -0.2857
  177POSM   AM1 2067   9.805   3.482  16.837  0.3413 -0.4517 -0.0495
  177POSM   AM2 2068   9.552   3.459  16.691  0.0422  0.6023  0.1358
  177POSM   T1A 2069   9.770   3.730  16.408  0.3210 -0.2086  0.1367
  177POSM   C2A 2070   9.923   3.787  15.996  0.0769  0.1708  0.1105
  177POSM   C3A 2071   9.950   4.124  15.697 -0.1039 -0.0624 -0.2030
  177POSM   C1B 2072   9.256   3.277  16.656  0.2604 -0.0071  0.3408
  177POSM   D2B 2073   8.813   3.229  16.523 -0.0979  0.1865 -0.1479
  177POSM   C3B 2074   8.595   3.274  16.136  0.0638  0.2238 -0.1145
  177POSM   C4B 2075   8.615   3.221  15.646 -0.0808  0.1354 -0.0743
  178DOPC   NC3 2076   2.597   8.806  16.079 -0.1005  0.2605 -0.1352
  178DOPC   PO4 2077   2.889   8.865  16.325  0.1554  0.0117  0.0624
  178DOPC   GL1 2078   3.076   8.652  16.078 -0.0029 -0.3795  0.2177
  178DOPC   GL2 2079   3.240   8.442  16.221 -0.2791 -0.5308 -0.0277
  178DOPC   C1A 2080   3.299   8.513  15.691 -0.1353  0.1428  0.2776
  178DOPC   D2A 2081   3.179   8.190  15.377 -0.1123  0.2779 -0.0550
  178DOPC   C3A 2082   3.094   7.751  15.242  0.0465 -0.1078 -0.1527
  178DOPC   C4A 2083   3.023   7.307  15.229  0.0272 -0.0618 -0.2481
  178DOPC   C1B 2084   3.342   8.066  15.987  0.2327 -0.1763  0.0823
  178DOPC   D2B 2085   3.389   7.808  15.628  0.1572  0.3738 -0.2155
  178DOPC   C3B 2086   3.658   7.908  15.286 -0.0700  0.2213 -0.0600
  178DOPC   C4B 2087   3.541   8.129  14.892 -0.2063 -0.0330  0.0318
  179DOPE   NH3 2088   1.555   3.195  16.182  0.3188 -0.1639 -0.0483
  179DOPE   PO4 2089   1.684   2.888  16.269  0.1688 -0.0957 -0.0746
  179DOPE   GL1 2090   1.659   2.825  15.875 -0.0099 -0.1143  0.1699
  179DOPE   GL2 2091   1.402   2.856  15.861 -0.0297 -0.4072 -0.3432
  179DOPE   C1A 2092   1.991   2.785  15.559 -0.3297  0.0145  0.0288
  179DOPE   D2A 2093   2.145   3.129  15.416 -0.0559  0.0715 -0.0505
  179DOPE   C3A 2094   1.891   3.354  15.136 -0.0131 -0.2129 -0.1577
  179DOPE   C4A 2095   1.431   3.370  15.093 -0.4496  0.3077  0.0604
  179DOPE   C1B 2096   1.448   3.235  15.633 -0.3794  0.1262 -0.0325
  179DOPE   D2B 2097   1.435   3.708  15.730 -0.0993  0.1990 -0.2431
  179DOPE   C3B 2098   1.815   4.034  15.674 -0.0568  0.2286  0.0255
  179DOPE   C4B 2099   2.120   4.353  15.761  0.1407  0.1871  0.0552
  180DOPC   NC3 2100   9.207   6.029  17.692 -0.3645 -0.0375  0.1753
  180DOPC   PO4 2101   9.034   5.886  17.375  0.0365 -0.2337 -0.1882
  180DOPC   GL1 2102   9.202   5.779  17.056  0.2526  0.1531  0.0179
  180DOPC   GL2 2103   9.441   5.685  16.937 -0.2965 -0.2582  0.1874
  180DOPC   C1A 2104   9.073   5.627  16.634 -0.1387  0.0559 -0.0167
  180DOPC   D2A 2105   8.768   5.613  16.335 -0.1248  0.3668 -0.1482
  180DOPC   C3A 2106   8.632   5.267  16.173 -0.0032  0.2442  0.1146
  180DOPC   C4A 2107   8.408   5.317  15.767 -0.1151 -0.0224  0.2219
  180DOPC   C1B 2108   9.640   5.473  16.553 -0.3951 -0.0794 -0.0815
  180DOPC   D2B 2109   9.702   5.201  16.167  0.0503 -0.2766 -0.0935
  180DOPC   C3B 2110   9.460   5.287  15.769 -0.0909  0.0048 -0.2842
  180DOPC   C4B 2111   9.164   5.579  15.525 -0.1081 -0.2950 -0.0133
  181POSM   NC3 2112   1.113   0.893  16.051 -0.1804 -0.2041 -0.0878
  181POSM   PO4 2113   1.437   0.659  16.036  0.2733  0.3883 -0.0379
  181POSM   AM1 2114   1.459   0.780  15.750 -0.2189  0.2473  0.3706
  181POSM   AM2 2115   1.684   0.878  15.612  0.0601 -0.1431 -0.0723
  181POSM   T1A 2116   1.364   0.650  15.289 -0.1813  0.3056  0.1337
  181POSM   C2A 2117   1.292   1.008  14.939 -0.0875 -0.2067  0.2208
  181POSM   C3A 2118   1.513   1.321  14.641 -0.1461 -0.1066 -0.0678
  181POSM   C1B 2119   1.879   0.645  15.510 -0.2285  0.0724 -0.3958
  181POSM   D2B 2120   2.243   0.485  15.227 -0.1563 -0.2042 -0.3414
  181POSM   C3B 2121   2.085   0.581  14.791 -0.0979 -0.1898 -0.0620
  181POSM   C4B 2122   1.751   0.857  14.548 -0.0252  0.1186  0.1414
  182DOPE   NH3 2123   8.462   0.611  17.225 -0.2587  0.2544 -0.1590
  182DOPE   PO4 2124   8.190   0.774  17.254 -0.0543  0.3108  0.0088
  182DOPE   GL1 2125   8.323   0.999  16.976 -0.1038 -0.1422  0.3489
  182DOPE   GL2 2126   7.993   1.150  16.926  0.0417  0.0593 -0.1174
  182DOPE   C1A 2127   8.352   1.095  16.541 -0.0349 -0.1525 -0.2329
  182DOPE   D2A 2128   8.332   1.480  16.239  0.4322 -0.2234  0.0079
  182DOPE   C3A 2129   8.451   1.396  15.774 -0.1023  0.2473  0.0183
  182DOPE   C4A 2130   8.276   1.249  15.361  0.1282 -0.0398  0.0751
  182DOPE   C1B 2131   7.878   1.227  16.477 -0.4044 -0.1763 -0.2113
  182DOPE   D2B 2132   7.942   1.152  16.046  0.1441 -0.1380 -0.0491
  182DOPE   C3B 2133   7.863   1.413  15.713  0.1701  0.0052 -0.1098
  182DOPE   C4B 2134   7.854   1.793  15.486  0.0565 -0.4096  0.0246
  183DOPE   NH3 2135  10.009   4.428  16.962  0.0302 -0.2057  0.1341
  183DOPE   PO4 2136  10.181   4.710  16.896 -0.0773  0.0541  0.0237
  183DOPE   GL1 2137  10.128   4.839  16.527 -0.1735  0.2111 -0.2703
  183DOPE   GL2 2138   9.874   4.633  16.450  0.1070 -0.1544 -0.0897
  183DOPE   C1A 2139  10.069   4.839  16.051 -0.2186 -0.0678  0.3409
  183DOPE   D2A 2140  10.010   4.631  15.639  0.2084  0.0100 -0.1577
  183DOPE   C3A 2141  10.240   4.679  15.246 -0.0446 -0.0805 -0.3301
  183DOPE   C4A 2142  10.246   4.410  14.888 -0.1554 -0.4222 -0.0509
  183DOPE   C1B 2143   9.563   4.701  16.071 -0.0270  0.1942  0.2298
  183DOPE   D2B 2144   9.436   4.791  15.595 -0.1044 -0.0543 -0.1108
  183DOPE   C3B 2145   9.118   4.640  15.229 -0.2240 -0.1962  0.3117
  183DOPE   C4B 2146   9.023   4.940  14.904  0.0070  0.3109 -0.1128
  184POSM   NC3 2147   4.686   1.377  17.120  0.2444  0.1266  0.1692
  184POSM   PO4 2148   4.488   1.703  17.140 -0.1494 -0.1093 -0.2327
  184POSM   AM1 2149   4.474   1.872  16.856  0.0486  0.2024  0.2581
  184POSM   AM2 2150   4.267   1.815  16.677 -0.2979  0.3730  0.1007
  184POSM   T1A 2151   4.637   2.146  16.471  0.3382 -0.0802  0.1734
  184POSM   C2A 2152   4.961   2.180  16.149  0.2665 -0.2428 -0.1031
  184POSM   C3A 2153   5.148   2.180  15.716  0.5037  0.4021 -0.1843
  184POSM   C1B 2154   4.385   1.695  16.365  0.1316  0.0429 -0.3230
  184POSM   D2B 2155   4.716   1.429  16.142 -0.0668 -0.1595 -0.0719
  184POSM   C3B 2156   4.841   1.749  15.822 -0.3162 -0.2130 -0.1772
  184POSM   C4B 2157   5.134   1.709  15.494 -0.1501 -0.0543  0.2894
  185DOPS   CNO 2158   7.973   2.650  17.976  0.4160  0.1243 -0.1662
  185DOPS   PO4 2159   7.844   2.575  17.567 -0.1678 -0.2790  0.0896
  185DOPS   GL1 2160   7.783   2.493  17.209 -0.0624  0.1015  0.2849
  185DOPS   GL2 2161   7.676   2.223  17.233 -0.1705 -0.0050  0.5412
  185DOPS   C1A 2162   7.745   2.422  16.762  0.0284 -0.2900  0.2151
  185DOPS   D2A 2163   7.940   2.256  16.376 -0.2299  0.1414  0.4002
  185DOPS   C3A 2164   7.546   2.511  16.203  0.2583  0.0953  0.1797
  185DOPS   C4A 2165   7.113   2.334  16.147 -0.3218 -0.0760 -0.3470
  185DOPS   C1B 2166   7.294   2.201  16.936  0.1000 -0.1447 -0.3033
  185DOPS   D2B 2167   6.933   2.173  16.601  0.0757  0.1797 -0.1813
  185DOPS   C3B 2168   6.840   2.629  16.508  0.2002  0.1930 -0.1554
  185DOPS   C4B 2169   6.644   2.818  16.154  0.2291 -0.1984 -0.1167
  186DOPC   NC3 2170   3.766  11.875  15.038  0.1079 -0.1443  0.0597
  186DOPC   PO4 2171   3.814  11.535  15.205  0.2284 -0.0983 -0.1785
  186DOPC   GL1 2172   3.485  11.293  14.950 -0.3615  0.1274 -0.3112
  186DOPC   GL2 2173   3.746  11.086  14.922  0.3281  0.5052 -0.0099
  186DOPC   C1A 2174   3.469  11.192  14.476 -0.1085  0.1522  0.2025
  186DOPC   D2A 2175   3.609  11.054  14.068 -0.2597  0.1020 -0.2598
  186DOPC   C3A 2176   3.633  10.602  14.135  0.1014 -0.2298 -0.3557
  186DOPC   C4A 2177   3.622  10.177  14.102  0.1345  0.1032  0.1550
  186DOPC   C1B 2178   3.576  10.698  14.709  0.0598  0.1857  0.0608
  186DOPC   D2B 2179   3.410  10.402  15.004  0.0832  0.1615 -0.0283
  186DOPC   C3B 2180   3.630   9.993  14.868 -0.1769  0.1531  0.0008
  186DOPC   C4B 2181   3.890   9.887  14.460  0.2792  0.0313 -0.0995
  187POSM   NC3 2182   2.624   7.992  16.532 -0.2164 -0.0627  0.0185
  187POSM   PO4 2183   2.257   8.109  16.435 -0.2561 -0.0051 -0.1750
  187POSM   AM1 2184   2.313   8.198  16.145  0.3255 -0.2331  0.0079
  187POSM   AM2 2185   2.251   8.458  15.983 -0.3766  0.1576 -0.0185
  187POSM   T1A 2186   2.500   8.121  15.690 -0.1487 -0.1495  0.1963
  187POSM   C2A 2187   2.727   7.690  15.701 -0.0308 -0.4963 -0.0671
  187POSM   C3A 2188   3.089   7.452  15.873 -0.0929 -0.2573  0.0820
  187POSM   C1B 2189   2.058   8.421  15.719  0.3390  0.0762 -0.1507
  187POSM   D2B 2190   1.678   8.534  15.453 -0.1001  0.2080 -0.4052
  187POSM   C3B 2191   1.606   8.832  15.117  0.3682  0.2937  0.1489
  187POSM   C4B 2192   1.599   8.959  14.672 -0.1244 -0.1001  0.3444
  188DOPE   NH3 2193   7.615   0.830  17.286 -0.0396 -0.3934  0.1223
  188DOPE   PO4 2194   7.601   1.173  17.314  0.2895 -0.0500 -0.2552
  188DOPE   GL1 2195   7.484   1.369  17.004  0.0430 -0.3425 -0.0167
  188DOPE   GL2 2196   7.439   1.101  16.831 -0.1349  0.1302  0.2237
  188DOPE   C1A 2197   7.473   1.776  16.830  0.1896  0.0841  0.1124
  188DOPE   D2A 2198   7.488   2.055  16.446  0.1314  0.0343  0.1451
  188DOPE   C3A 2199   7.547   2.062  16.009 -0.0968  0.2907 -0.0749
  188DOPE   C4A 2200   7.217   2.087  15.678 -0.3377  0.0793 -0.3911
  188DOPE   C1B 2201   7.315   1.407  16.465 -0.1473  0.0085  0.0373
  188DOPE   D2B 2202   7.581   1.574  16.205 -0.0785 -0.1719 -0.1739
  188DOPE   C3B 2203   7.456   1.673  15.779  0.3550 -0.0328 -0.1085
  188DOPE   C4B 2204   7.293   1.677  15.340  0.4028 -0.3799 -0.1567
  189DOPS   CNO 2205   7.567   0.296  17.172 -0.0995  0.1572 -0.0886
  189DOPS   PO4 2206   7.910   0.380  17.215  0.2852  0.0615 -0.3162
  189DOPS   GL1 2207   7.808   0.657  16.919 -0.0626  0.1056  0.0765
  189DOPS   GL2 2208   8.054   0.706  16.676  0.1064 -0.0060 -0.0193
  189DOPS   C1A 2209   7.589   0.773  16.511 -0.1225 -0.0055 -0.1603
  189DOPS   D2A 2210   7.418   1.053  16.149 -0.0034 -0.1365 -0.2710
  189DOPS   C3A 2211   7.138   1.369  16.057 -0.1858 -0.1168  0.0813
  189DOPS   C4A 2212   6.899   1.644  16.286 -0.0847  0.2228  0.0433
  189DOPS   C1B 2213   8.024   0.589  16.280 -0.2504 -0.2951  0.1171
  189DOPS   D2B 2214   7.905   0.303  15.933 -0.2666 -0.0820 -0.0417
  189DOPS   C3B 2215   7.934   0.487  15.501  0.0429  0.1650 -0.4019
  189DOPS   C4B 2216   8.201   0.730  15.248 -0.1993  0.0009 -0.2409
  190DOPS   CNO 2217   5.726   8.055  16.859  0.1782  0.0574 -0.0858
  190DOPS   PO4 2218   5.674   8.406  16.899  0.0581 -0.0805 -0.0357
  190DOPS   GL1 2219   5.490   8.410  16.584 -0.2077 -0.1563 -0.0417
  190DOPS   GL2 2220   5.415   8.682  16.538 -0.5983 -0.2973 -0.0065
  190DOPS   C1A 2221   5.573   8.024  16.288  0.2061  0.0640 -0.1155
  190DOPS   D2A 2222   5.404   7.585  16.126  0.1345 -0.2672  0.1756
  190DOPS   C3A 2223   5.638   7.202  16.274 -0.0658 -0.1898  0.1130
  190DOPS   C4A 2224   6.033   6.994  16.348 -0.1108 -0.0363  0.0537
  190DOPS   C1B 2225   5.440   8.451  16.144  0.3185  0.0474  0.1295
  190DOPS   D2B 2226   5.766   8.515  15.857 -0.2857  0.1487  0.1535
  190DOPS   C3B 2227   5.797   8.422  15.352 -0.5652 -0.0423 -0.1475
  190DOPS   C4B 2228   5.734   8.716  14.998  0.2965 -0.0188 -0.2261
  191DOPE   NH3 2229  12.018   0.815  16.678 -0.0204  0.1690  0.5347
  191DOPE   PO4 2230  11.734   0.997  16.776  0.0917  0.1449 -0.2150
  191DOPE   GL1 2231  11.708   0.926  16.356  0.0142  0.3341  0.3010
  191DOPE   GL2 2232  11.492   1.132  16.318  0.0312 -0.1583 -0.0267
  191DOPE   C1A 2233  11.731   0.993  15.894  0.0184  0.0271  0.0076
  191DOPE   D2A 2234  11.842   1.258  15.486  0.0727  0.1815 -0.0615
  191DOPE   C3A 2235  11.707   1.283  15.054  0.1142 -0.1711  0.4094
  191DOPE   C4A 2236  11.839   1.142  14.617 -0.1281 -0.0415 -0.1564
  191DOPE   C1B 2237  11.169   0.857  16.136 -0.2277 -0.1338 -0.1406
  191DOPE   D2B 2238  10.882   0.508  16.072 -0.0009  0.0986 -0.1900
  191DOPE   C3B 2239  10.472   0.580  15.763  0.1771 -0.1826 -0.1233
  191DOPE   C4B 2240  10.251   0.280  15.531  0.1619 -0.1488 -0.1722
  192DOPC   NC3 2241   5.698  34.126  17.083 -0.2272 -0.3946  0.1985
  192DOPC   PO4 2242   5.760  34.271  16.687  0.0462  0.0050 -0.3147
  192DOPC   GL1 2243   5.958  34.486  16.377 -0.4367  0.3022 -0.2978
  192DOPC   GL2 2244   5.918  34.767  16.410  0.0332 -0.0884  0.0240
  192DOPC   C1A 2245   6.085  34.195  16.032  0.1610  0.1938  0.4979
  192DOPC   D2A 2246   6.144  34.239  15.566 -0.2499 -0.1001  0.0458
  192DOPC   C3A 2247   6.159  34.540  15.219 -0.1172  0.0864 -0.0502
  192DOPC   C4A 2248   6.335  34.555  14.785 -0.1595 -0.2724 -0.2666
  192DOPC   C1B 2249   6.193  34.735  16.054 -0.0528  0.0370  0.0081
  192DOPC   D2B 2250   6.437  34.909  15.686 -0.0182 -0.1029  0.0597
  192DOPC   C3B 2251   6.470  35.341  15.637 -0.0919 -0.3144  0.1130
  192DOPC   C4B 2252   6.663  35.643  15.927  0.0724 -0.0515  0.0133
  193DOPS   CNO 2253   9.271   4.139  17.547 -0.1487  0.1406  0.2307
  193DOPS   PO4 2254   9.303   3.946  17.231  0.0868 -0.0076  0.2190
  193DOPS   GL1 2255   9.276   3.872  16.862  0.1942  0.3457 -0.2280
  193DOPS   GL2 2256   9.031   3.668  16.838  0.0608  0.2971  0.1436
  193DOPS   C1A 2257   9.022   4.193  16.596 -0.1893 -0.0394  0.2067
  193DOPS   D2A 2258   9.149   4.423  16.175 -0.3048 -0.2891 -0.0480
  193DOPS   C3A 2259   9.001   4.857  16.022 -0.0301  0.2859  0.1211
  193DOPS   C4A 2260   8.943   5.247  15.805  0.5087 -0.1472  0.0202
  193DOPS   C1B 2261   9.235   3.738  16.383  0.2378 -0.1260 -0.1670
  193DOPS   D2B 2262   9.510   3.378  16.144  0.3155  0.0629  0.1232
  193DOPS   C3B 2263   9.529   3.426  15.734 -0.3746  0.0318  0.2265
  193DOPS   C4B 2264   9.408   3.813  15.460  0.1915  0.1083  0.5040
  194DOPE   NH3 2265   4.323  11.922  15.252 -0.1779  0.1652 -0.0298
  194DOPE   PO4 2266   4.590  11.965  15.062  0.0432  0.1466 -0.0315
  194DOPE   GL1 2267   4.582  11.813  14.709  0.0382 -0.0242 -0.0092
  194DOPE   GL2 2268   4.810  11.853  14.544  0.0204 -0.0148  0.0217
  194DOPE   C1A 2269   4.450  11.484  14.471 -0.0009  0.2783  0.0187
  194DOPE   D2A 2270   4.134  11.192  14.498  0.1267 -0.1735  0.0866
  194DOPE   C3A 2271   3.934  10.805  14.449 -0.1187  0.0112 -0.1970
  194DOPE   C4A 2272   4.063  10.369  14.466  0.0625 -0.1151  0.3438
  194DOPE   C1B 2273   4.784  11.643  14.119  0.0113  0.0274 -0.1142
  194DOPE   D2B 2274   4.603  11.262  14.063 -0.0867 -0.3041  0.3340
  194DOPE   C3B 2275   4.696  10.874  13.789 -0.3451 -0.2122 -0.2346
  194DOPE   C4B 2276   4.750  10.457  13.656  0.0623 -0.1304  0.0228
  195DOPE   NH3 2277   7.662   6.941  16.918 -0.1274  0.2219 -0.1866
  195DOPE   PO4 2278   7.361   6.871  16.944 -0.0751 -0.1418 -0.0242
  195DOPE   GL1 2279   7.274   6.953  16.540  0.0494 -0.1462  0.0337
  195DOPE   GL2 2280   7.579   6.921  16.418 -0.0088  0.0265  0.1525
  195DOPE   C1A 2281   6.852   7.006  16.345 -0.1647  0.1112 -0.0709
  195DOPE   D2A 2282   6.525   6.846  16.118 -0.0618 -0.3637 -0.1336
  195DOPE   C3A 2283   6.186   6.905  15.857 -0.0258  0.1593  0.0413
  195DOPE   C4A 2284   5.762   7.015  15.795 -0.0336  0.0844 -0.1603
  195DOPE   C1B 2285   7.548   7.002  15.964  0.1909  0.2608 -0.2020
  195DOPE   D2B 2286   7.631   6.834  15.522  0.0910 -0.1913 -0.0250
  195DOPE   C3B 2287   7.535   6.520  15.134  0.1027 -0.0266  0.0789
  195DOPE   C4B 2288   7.275   6.186  14.922  0.0595  0.1388 -0.4424
  196DOPE   NH3 2289   7.656   3.245  17.211  0.1168 -0.0747 -0.1178
  196DOPE   PO4 2290   7.627   2.931  17.191  0.0219  0.2132  0.0168
  196DOPE   GL1 2291   7.695   2.933  16.867 -0.4747  0.3610  0.1103
  196DOPE   GL2 2292   7.801   3.103  16.638  0.0378 -0.0209  0.1158
  196DOPE   C1A 2293   7.333   2.879  16.554 -0.0462  0.3087  0.3749
  196DOPE   D2A 2294   7.139   2.830  16.061 -0.0731 -0.3203  0.4523
  196DOPE   C3A 2295   7.124   3.027  15.668  0.0873  0.1103  0.3322
  196DOPE   C4A 2296   7.380   2.915  15.308  0.0769  0.0016  0.1657
  196DOPE   C1B 2297   7.595   3.214  16.258  0.0219  0.0892 -0.1492
  196DOPE   D2B 2298   7.159   3.355  16.316 -0.1157  0.2145  0.2566
  196DOPE   C3B 2299   6.803   3.309  16.065 -0.2908 -0.2022  0.1758
  196DOPE   C4B 2300   6.567   3.253  15.675  0.0322  0.0782  0.3242
  197DOPC   NC3 2301  10.976   9.247  15.944 -0.0633 -0.0348 -0.1285
  197DOPC   PO4 2302  10.988   9.236  15.553 -0.1007 -0.4178  0.2067
  197DOPC   GL1 2303  10.920   9.384  15.141 -0.0409 -0.1427  0.4647
  197DOPC   GL2 2304  11.177   9.235  15.009  0.1520 -0.0222  0.1583
  197DOPC   C1A 2305  10.718   9.608  14.794 -0.2003  0.0417  0.0125
  197DOPC   D2A 2306  10.280   9.569  14.606  0.2113  0.0435  0.1390
  197DOPC   C3A 2307  10.134   9.710  14.205 -0.3298 -0.1259 -0.2804
  197DOPC   C4A 2308  10.453   9.932  13.896 -0.1249 -0.1269  0.2558
  197DOPC   C1B 2309  11.153   9.288  14.552  0.1020  0.4002  0.1008
  197DOPC   D2B 2310  11.031   9.346  14.097 -0.1164  0.1973 -0.1262
  197DOPC   C3B 2311  10.868   9.020  13.835  0.0728 -0.0751 -0.4149
  197DOPC   C4B 2312  10.740   8.645  13.668  0.1142  0.2368  0.3583
  198POSM   NC3 2313   1.447   6.483  16.760  0.3101  0.2035 -0.1698
  198POSM   PO4 2314   1.215   6.767  16.647  0.1802 -0.3726  0.2119
  198POSM   AM1 2315   1.301   6.707  16.339  0.0717  0.0209 -0.0572
  198POSM   AM2 2316   1.202   6.591  16.095  0.1304  0.0049 -0.0730
  198POSM   T1A 2317   1.700   6.764  15.973  0.2103 -0.1834 -0.2434
  198POSM   C2A 2318   1.677   6.585  15.579  0.0943 -0.0266  0.2538
  198POSM   C3A 2319   1.869   6.837  15.255 -0.1562 -0.1136 -0.1265
  198POSM   C1B 2320   1.205   6.639  15.747  0.1095 -0.1514 -0.1492
  198POSM   D2B 2321   1.274   6.697  15.293  0.0564 -0.3270  0.1179
  198POSM   C3B 2322   1.560   6.476  14.972  0.0684  0.0409  0.0648
  198POSM   C4B 2323   1.954   6.529  14.723 -0.2027  0.0179  0.0812
  199POSM   NC3 2324  33.409  10.900  14.592 -0.1679 -0.2873  0.2550
  199POSM   PO4 2325  33.132  10.677  14.705  0.0856  0.0164 -0.2241
  199POSM   AM1 2326  33.066  10.431  14.459  0.2176 -0.2982 -0.0937
  199POSM   AM2 2327  32.899  10.220  14.505 -0.0129  0.0449 -0.0019
  199POSM   T1A 2328  33.306  10.047  14.124  0.3391 -0.1074  0.1581
  199POSM   C2A 2329  33.257   9.938  13.653 -0.0193 -0.0881  0.2644
  199POSM   C3A 2330  33.523   9.730  13.369  0.0011 -0.0259  0.0034
  199POSM   C1B 2331  32.737  10.180  14.206  0.0436 -0.1898 -0.0638
  199POSM   D2B 2332  32.682  10.121  13.690  0.0842 -0.0078  0.3488
  199POSM   C3B 2333  32.791   9.779  13.473 -0.3966  0.2381 -0.0440
  199POSM   C4B 2334  32.673   9.656  13.025  0.1078  0.0017  0.1920
  200DOPC   NC3 2335   4.553   4.449  17.104 -0.0842  0.6656 -0.2282
  200DOPC   PO4 2336   4.732   4.818  17.158  0.0119  0.2885  0.3142
  200DOPC   GL1 2337   4.853   4.714  16.771 -0.0352 -0.0970 -0.0621
  200DOPC   GL2 2338   5.130   4.626  16.623 -0.1736  0.0389 -0.1883
  200DOPC   C1A 2339   4.893   4.880  16.306  0.1359 -0.1347  0.0942
  200DOPC   D2A 2340   4.638   5.058  15.970 -0.1464 -0.2150 -0.0220
  200DOPC   C3A 2341   4.352   4.716  15.747 -0.0127  0.1477  0.2230
  200DOPC   C4A 2342   4.023   4.566  15.511  0.1520  0.2580  0.0873
  200DOPC   C1B 2343   4.791   4.253  16.501 -0.0373  0.0257 -0.0110
  200DOPC   D2B 2344   4.488   3.943  16.579  0.1275  0.2726  0.1549
  200DOPC   C3B 2345   4.364   3.479  16.361 -0.1331  0.1029  0.0546
  200DOPC   C4B 2346   4.454   3.162  16.014  0.2454 -0.3169 -0.0929
  201DOPC   NC3 2347   8.918   3.202  17.557 -0.5150 -0.2932 -0.0224
  201DOPC   PO4 2348   8.785   3.394  17.241 -0.0026  0.1354 -0.0688
  201DOPC   GL1 2349   8.609   3.325  16.910  0.1420  0.0404  0.0181
  201DOPC   GL2 2350   8.529   3.505  16.804  0.3178 -0.2243  0.1201
  201DOPC   C1A 2351   8.283   3.065  16.671 -0.2937  0.1715 -0.0640
  201DOPC   D2A 2352   8.022   2.757  16.368 -0.0347 -0.0978 -0.3580
  201DOPC   C3A 2353   7.841   2.774  15.925 -0.2952 -0.1218 -0.0240
  201DOPC   C4A 2354   7.509   2.516  15.700  0.1179  0.1978 -0.2915
  201DOPC   C1B 2355   8.281   3.543  16.403 -0.4899  0.0231 -0.4700
  201DOPC   D2B 2356   8.061   3.196  16.140 -0.1049 -0.1181 -0.1033
  201DOPC   C3B 2357   8.037   3.215  15.715 -0.0059 -0.3825 -0.0831
  201DOPC   C4B 2358   8.229   3.509  15.409  0.1319  0.1142 -0.1119
  202DOPS   CNO 2359   0.180   9.671  15.839  0.3345 -0.4633 -0.0322
  202DOPS   PO4 2360   0.139   9.332  15.674  0.1905  0.1729  0.1114
  202DOPS   GL1 2361   0.287   9.103  15.402  0.2024  0.0171  0.3149
  202DOPS   GL2 2362   0.083   9.120  15.197  0.0370 -0.2799 -0.0427
  202DOPS   C1A 2363   0.577   9.121  15.014  0.0671 -0.1836  0.0024
  202DOPS   D2A 2364   0.901   8.988  14.775 -0.1000  0.0391 -0.0294
  202DOPS   C3A 2365   1.153   9.177  14.438  0.3501 -0.1016 -0.0271
  202DOPS   C4A 2366   0.955   9.401  14.061  0.1614 -0.0214 -0.1168
  202DOPS   C1B 2367   0.138   9.004  14.706 -0.0603  0.0897 -0.0582
  202DOPS   D2B 2368   0.114   8.751  14.327  0.1271 -0.1690 -0.1358
  202DOPS   C3B 2369  -0.296   8.579  14.184  0.2164 -0.3047  0.2686
  202DOPS   C4B 2370  -0.670   8.394  13.937 -0.2234  0.0296  0.1717
  203DOPE   NH3 2371   9.506   0.215  16.819 -0.0312  0.0217  0.2377
  203DOPE   PO4 2372   9.225   0.236  16.813  0.2001 -0.0587  0.0775
  203DOPE   GL1 2373   9.260   0.503  16.532  0.0830  0.1104  0.2604
  203DOPE   GL2 2374   8.990   0.619  16.572  0.1416  0.1942  0.1065
  203DOPE   C1A 2375   9.379   0.626  16.107  0.1530 -0.0235 -0.0808
  203DOPE   D2A 2376   9.344   0.861  15.692  0.0442  0.1267  0.1268
  203DOPE   C3A 2377   9.175   0.898  15.267 -0.2208 -0.3137 -0.1629
  203DOPE   C4A 2378   8.723   0.975  15.102  0.2125 -0.1037  0.1807
  203DOPE   C1B 2379   8.879   0.431  16.158  0.0758 -0.1813  0.0197
  203DOPE   D2B 2380   8.896   0.628  15.724  0.0046 -0.1338 -0.1469
  203DOPE   C3B 2381   8.569   0.882  15.543 -0.1417  0.5121 -0.1490
  203DOPE   C4B 2382   8.176   0.846  15.710 -0.3293 -0.0339 -0.2157
  204DOPS   CNO 2383   7.579   4.804  17.362 -0.0922 -0.0824  0.0829
  204DOPS   PO4 2384   7.749   4.735  17.034  0.1286 -0.0366  0.2030
  204DOPS   GL1 2385   7.627   4.532  16.673  0.0660 -0.4293  0.0248
  204DOPS   GL2 2386   7.739   4.300  16.669  0.1954  0.3396  0.0476
  204DOPS   C1A 2387   7.941   4.556  16.308  0.0387  0.0723 -0.1105
  204DOPS   D2A 2388   8.373   4.370  16.348  0.0956  0.1991  0.2283
  204DOPS   C3A 2389   8.698   4.330  16.062  0.1287  0.0269 -0.1135
  204DOPS   C4A 2390   8.946   4.427  15.710  0.0201 -0.3835 -0.0783
  204DOPS   C1B 2391   7.600   4.165  16.196  0.0033 -0.2229 -0.3074
  204DOPS   D2B 2392   7.512   4.151  15.744 -0.0270 -0.0933 -0.1930
  204DOPS   C3B 2393   7.657   4.367  15.362 -0.2461 -0.1836  0.0020
  204DOPS   C4B 2394   7.749   4.517  14.975  0.1714 -0.1045  0.3205
  205DOPE   NH3 2395   9.649   3.282  13.408 -0.1623  0.2421 -0.2845
  205DOPE   PO4 2396   9.379   3.530  13.389  0.0655 -0.0884 -0.0898
  205DOPE   GL1 2397   9.406   3.382  13.829  0.0322  0.4083  0.0318
  205DOPE   GL2 2398   9.635   3.258  13.928  0.3173  0.1874 -0.0324
  205DOPE   C1A 2399   9.237   3.061  14.144 -0.2968  0.0054 -0.0037
  205DOPE   D2A 2400   9.169   2.830  14.553  0.2771  0.0691  0.2553
  205DOPE   C3A 2401   9.294   2.859  15.012  0.0271 -0.3130  0.0971
  205DOPE   C4A 2402   9.452   3.001  15.403  0.2937 -0.1597 -0.0213
  205DOPE   C1B 2403   9.644   3.459  14.310 -0.1134 -0.1980  0.3019
  205DOPE   D2B 2404   9.203   3.557  14.516  0.1414 -0.3447  0.0394
  205DOPE   C3B 2405   9.257   3.964  14.733 -0.0314 -0.2689  0.0458
  205DOPE   C4B 2406   9.279   4.160  15.128 -0.1416  0.0413  0.1291
  206DOPS   CNO 2407   1.454   4.514  12.663 -0.0194 -0.0669 -0.1344
  206DOPS   PO4 2408   1.823   4.656  12.643 -0.3116  0.0012  0.1362
  206DOPS   GL1 2409   1.714   4.634  13.039  0.5651 -0.2733 -0.1614
  206DOPS   GL2 2410   1.739   4.342  13.033 -0.3618  0.0268 -0.0814
  206DOPS   C1A 2411   1.613   4.644  13.496 -0.5010 -0.1304  0.1824
  206DOPS   D2A 2412   1.802   4.451  13.914 -0.0827 -0.0242  0.1799
  206DOPS   C3A 2413   1.504   4.164  14.052  0.2805  0.0468  0.0383
  206DOPS   C4A 2414   1.135   4.068  14.331  0.1419  0.0516 -0.0628
  206DOPS   C1B 2415   1.864   4.151  13.467 -0.0610 -0.1487  0.0719
  206DOPS   D2B 2416   1.914   3.910  13.896  0.4673 -0.3514  0.4123
  206DOPS   C3B 2417   1.690   3.610  14.152 -0.1020  0.0541  0.0707
  206DOPS   C4B 2418   1.353   3.513  14.530 -0.0234 -0.0375  0.0822
  207DOPE   NH3 2419   9.296   2.753  13.678 -0.0401 -0.2351 -0.3148
  207DOPE   PO4 2420   9.569   2.833  13.586 -0.1201  0.0970 -0.5565
  207DOPE   GL1 2421   9.855   2.863  13.867  0.1165 -0.4157  0.2176
  207DOPE   GL2 2422  10.090   3.004  13.802 -0.0625  0.2560 -0.1838
  207DOPE   C1A 2423   9.708   2.927  14.321 -0.1194 -0.0051  0.1677
  207DOPE   D2A 2424   9.566   3.172  14.663 -0.1524  0.1705 -0.0793
  207DOPE   C3A 2425   9.807   2.927  15.030 -0.2543  0.0515  0.2235
  207DOPE   C4A 2426  10.182   2.789  15.129 -0.1013  0.3302  0.3062
  207DOPE   C1B 2427  10.190   3.214  14.226  0.0587 -0.1627 -0.0611
  207DOPE   D2B 2428  10.074   3.342  14.697 -0.1019 -0.0157  0.0599
  207DOPE   C3B 2429  10.330   3.708  14.925  0.2237 -0.4002  0.0708
  207DOPE   C4B 2430  10.408   4.035  15.208  0.0847  0.1596  0.1088
  208DOPE   NH3 2431  10.017   2.958  13.271 -0.0259 -0.2557 -0.0632
  208DOPE   PO4 2432  10.251   2.818  13.144  0.2617 -0.2161  0.0616
  208DOPE   GL1 2433  10.357   2.631  13.412 -0.2049  0.1355 -0.0069
  208DOPE   GL2 2434  10.152   2.574  13.551 -0.1871  0.0990  0.0688
  208DOPE   C1A 2435  10.568   2.823  13.806 -0.0510 -0.0315 -0.0271
  208DOPE   D2A 2436  10.703   2.654  14.229  0.1115  0.3922 -0.0727
  208DOPE   C3A 2437  10.607   2.602  14.717  0.0924  0.0913  0.0677
  208DOPE   C4A 2438  10.847   2.680  15.074  0.2016  0.2591 -0.2894
  208DOPE   C1B 2439  10.117   2.576  14.039 -0.1126  0.3869 -0.2384
  208DOPE   D2B 2440  10.151   2.688  14.559 -0.1224 -0.0965 -0.1195
  208DOPE   C3B 2441   9.940   2.409  14.901  0.2221  0.0413 -0.1635
  208DOPE   C4B 2442   9.903   2.267  15.370 -0.0460 -0.2131 -0.0208
  209DOPC   NC3 2443   8.053   2.860  13.556  0.1660  0.4176  0.0677
  209DOPC   PO4 2444   8.210   2.981  13.912  0.2454  0.0625  0.2579
  209DOPC   GL1 2445   7.998   2.958  14.266 -0.0925 -0.0776 -0.2052
  209DOPC   GL2 2446   8.071   3.199  14.442  0.0237  0.1652 -0.0889
  209DOPC   C1A 2447   8.022   2.608  14.580 -0.0862  0.2288  0.1786
  209DOPC   D2A 2448   8.224   2.522  15.028  0.0100 -0.2316 -0.1383
  209DOPC   C3A 2449   8.082   2.211  15.304  0.0534 -0.1783 -0.3477
  209DOPC   C4A 2450   7.992   2.232  15.753 -0.0625 -0.3646 -0.2266
  209DOPC   C1B 2451   8.453   3.027  14.708 -0.0244  0.2695 -0.0353
  209DOPC   D2B 2452   8.805   2.786  14.853  0.1438  0.0417 -0.0560
  209DOPC   C3B 2453   8.723   2.493  15.251 -0.3448 -0.0234 -0.1045
  209DOPC   C4B 2454   8.445   2.426  15.611 -0.2145 -0.1001  0.0380
  210DOPC   NC3 2455   1.233   8.145  12.169  0.1221  0.0116 -0.0824
  210DOPC   PO4 2456   0.868   8.098  12.344 -0.0911  0.1554  0.0330
  210DOPC   GL1 2457   0.874   8.288  12.645 -0.3860  0.1045  0.0250
  210DOPC   GL2 2458   0.715   8.193  12.897  0.1366 -0.1133  0.1280
  210DOPC   C1A 2459   0.813   8.763  12.694 -0.0474 -0.2438  0.2360
  210DOPC   D2A 2460   0.967   9.014  13.032 -0.0261  0.2148 -0.3593
  210DOPC   C3A 2461   0.582   8.929  13.273 -0.1628  0.0790  0.0417
  210DOPC   C4A 2462   0.164   9.196  13.239  0.2062 -0.1756 -0.2466
  210DOPC   C1B 2463   0.628   7.939  13.298  0.0191  0.0392  0.2230
  210DOPC   D2B 2464   0.375   7.827  13.627 -0.1538 -0.0918  0.3480
  210DOPC   C3B 2465  -0.001   7.772  13.922 -0.1988 -0.0601  0.2839
  210DOPC   C4B 2466  -0.085   7.685  14.406 -0.0724 -0.1847  0.0764
  211DOPE   NH3 2467  32.785   8.334  11.530  0.2696 -0.2534 -0.1915
  211DOPE   PO4 2468  32.781   8.061  11.687  0.0011 -0.1901  0.0659
  211DOPE   GL1 2469  32.849   8.029  12.023 -0.0491 -0.0936 -0.0002
  211DOPE   GL2 2470  32.611   8.138  12.130  0.2094 -0.2031 -0.3617
  211DOPE   C1A 2471  32.841   7.734  12.362  0.3863 -0.4270  0.0709
  211DOPE   D2A 2472  32.705   7.341  12.452  0.1352 -0.0850  0.1061
  211DOPE   C3A 2473  32.868   7.358  12.885 -0.0644  0.2620 -0.2180
  211DOPE   C4A 2474  32.696   7.504  13.233  0.0636 -0.2360  0.0805
  211DOPE   C1B 2475  32.608   8.151  12.582  0.2769 -0.1119  0.1634
  211DOPE   D2B 2476  32.503   8.243  13.043  0.2281 -0.2066  0.1285
  211DOPE   C3B 2477  32.829   8.037  13.314 -0.0297  0.1804  0.0941
  211DOPE   C4B 2478  33.001   7.828  13.645  0.1466 -0.4415  0.0172
  212DOPE   NH3 2479  10.767   8.704  11.942 -0.1694 -0.0117 -0.3960
  212DOPE   PO4 2480  10.509   8.690  12.155  0.2417 -0.0837 -0.5121
  212DOPE   GL1 2481  10.539   8.806  12.527 -0.2642  0.1570  0.0144
  212DOPE   GL2 2482  10.730   8.699  12.668  0.0349 -0.0954  0.1025
  212DOPE   C1A 2483  10.582   9.093  12.899  0.0799  0.1458 -0.0403
  212DOPE   D2A 2484  10.909   9.405  13.137 -0.3197  0.0950  0.0505
  212DOPE   C3A 2485  11.213   9.127  13.424 -0.1871 -0.0513  0.0712
  212DOPE   C4A 2486  11.566   8.871  13.520 -0.2369 -0.3547  0.1931
  212DOPE   C1B 2487  10.935   8.755  13.073  0.1369 -0.3994 -0.2702
  212DOPE   D2B 2488  10.696   9.015  13.348 -0.0775  0.1039 -0.0819
  212DOPE   C3B 2489  10.351   8.988  13.638  0.0244 -0.0349  0.4001
  212DOPE   C4B 2490   9.919   8.848  13.734  0.2191 -0.0494  0.0196
  213DOPE   NH3 2491   5.396   5.628  13.537  0.2934  0.0377 -0.0135
  213DOPE   PO4 2492   5.268   5.354  13.567  0.0184 -0.1400 -0.2090
  213DOPE   GL1 2493   5.120   5.298  13.958  0.4415 -0.0169  0.1179
  213DOPE   GL2 2494   5.306   5.140  14.201 -0.1410 -0.0786 -0.0243
  213DOPE   C1A 2495   5.147   5.614  14.328  0.1347 -0.3258 -0.0272
  213DOPE   D2A 2496   5.149   5.898  14.655 -0.3033  0.2265  0.0323
  213DOPE   C3A 2497   5.326   6.339  14.617  0.0707 -0.2236  0.1413
  213DOPE   C4A 2498   5.344   6.500  14.214  0.0794 -0.1239 -0.2481
  213DOPE   C1B 2499   5.296   4.961  14.597  0.5060 -0.0546  0.0338
  213DOPE   D2B 2500   5.559   4.647  14.883  0.3361 -0.0665 -0.2671
  213DOPE   C3B 2501   5.391   4.322  15.187 -0.1963 -0.5956 -0.1481
  213DOPE   C4B 2502   4.980   4.429  15.395 -0.1013 -0.1196  0.4027
  214POSM   NC3 2503  33.187   7.798  11.641 -0.5612 -0.2006  0.4270
  214POSM   PO4 2504  33.211   7.445  11.715  0.1728  0.0109 -0.1891
  214POSM   AM1 2505  33.270   7.560  12.039  0.3159 -0.1655  0.3346
  214POSM   AM2 2506  33.249   7.830  12.148  0.0433 -0.1544  0.0413
  214POSM   T1A 2507  33.220   7.548  12.513 -0.2127  0.0440  0.5352
  214POSM   C2A 2508  33.281   7.623  12.943 -0.2653 -0.0994  0.0776
  214POSM   C3A 2509  33.296   8.013  13.185  0.1787 -0.1764  0.1012
  214POSM   C1B 2510  33.458   7.987  12.327  0.3230  0.3107  0.0419
  214POSM   D2B 2511  33.702   8.103  12.732  0.1165  0.2570 -0.0813
  214POSM   C3B 2512  33.696   8.326  13.109 -0.2531  0.0835 -0.0282
  214POSM   C4B 2513  33.569   8.509  13.489  0.0168 -0.3524 -0.0698
  215DOPE   NH3 2514   2.095   7.636  12.832  0.1598  0.1358 -0.2076
  215DOPE   PO4 2515   2.240   7.706  13.087  0.0180 -0.0526  0.1440
  215DOPE   GL1 2516   1.980   7.954  13.257 -0.1979  0.2019  0.2535
  215DOPE   GL2 2517   2.094   7.942  13.547 -0.1126 -0.0100  0.1596
  215DOPE   C1A 2518   1.735   8.323  13.433  0.0006 -0.3703 -0.1029
  215DOPE   D2A 2519   1.401   8.505  13.469  0.2062  0.0020  0.0608
  215DOPE   C3A 2520   1.205   8.458  13.889  0.0174 -0.5314 -0.1326
  215DOPE   C4A 2521   1.375   8.683  14.302 -0.2492 -0.0451 -0.2221
  215DOPE   C1B 2522   2.256   8.063  14.009 -0.3561 -0.0719 -0.1024
  215DOPE   D2B 2523   2.281   7.871  14.418 -0.2013  0.0848 -0.1646
  215DOPE   C3B 2524   2.643   8.105  14.365  0.0389  0.0836  0.1449
  215DOPE   C4B 2525   2.828   8.354  14.021  0.0094 -0.0560  0.0248
  216POSM   NC3 2526   6.626   7.366  13.085  0.0487 -0.0177  0.1892
  216POSM   PO4 2527   6.433   7.232  13.399 -0.2569 -0.0713 -0.1612
  216POSM   AM1 2528   6.331   7.532  13.522 -0.2400  0.1356  0.0118
  216POSM   AM2 2529   6.150   7.768  13.464 -0.0593 -0.0765 -0.3308
  216POSM   T1A 2530   6.544   7.879  13.828  0.0060  0.0708  0.0057
  216POSM   C2A 2531   6.957   8.021  13.921  0.0920  0.2714 -0.0686
  216POSM   C3A 2532   7.350   8.009  14.067 -0.1136 -0.2239 -0.1517
  216POSM   C1B 2533   6.047   8.002  13.693  0.0882 -0.3818  0.0602
  216POSM   D2B 2534   6.027   8.400  13.883 -0.2248 -0.0301 -0.0062
  216POSM   C3B 2535   6.107   8.471  14.336 -0.0431  0.0613 -0.0711
  216POSM   C4B 2536   6.113   8.119  14.642  0.1129  0.1620 -0.2149
  217POSM   NC3 2537   0.851   1.734  12.385 -0.0660  0.0991  0.2237
  217POSM   PO4 2538   1.212   1.834  12.277 -0.0490  0.1875  0.0071
  217POSM   AM1 2539   1.309   1.641  12.514 -0.0122  0.0001 -0.0258
  217POSM   AM2 2540   1.243   1.604  12.806  0.0261 -0.1455 -0.0970
  217POSM   T1A 2541   1.702   1.485  12.793  0.1220 -0.0095 -0.1373
  217POSM   C2A 2542   1.897   1.684  13.144 -0.0776  0.1553 -0.1157
  217POSM   C3A 2543   2.308   1.587  13.391 -0.0847  0.0210 -0.1491
  217POSM   C1B 2544   1.368   1.674  13.150 -0.0484 -0.1521 -0.0758
  217POSM   D2B 2545   1.268   1.857  13.554 -0.1252  0.0999  0.1426
  217POSM   C3B 2546   1.078   1.540  13.771 -0.2384  0.2338 -0.3316
  217POSM   C4B 2547   0.720   1.286  13.943  0.2583  0.0836 -0.1768
  218DOPC   NC3 2548   9.599   9.985  11.790  0.2301 -0.0814  0.2596
  218DOPC   PO4 2549   9.690   9.638  11.670  0.0827 -0.1014 -0.0441
  218DOPC   GL1 2550   9.906   9.651  12.010  0.1240  0.1475  0.0686
  218DOPC   GL2 2551  10.070   9.877  11.956 -0.2581  0.2652  0.2304
  218DOPC   C1A 2552   9.800   9.523  12.437  0.0762  0.4348 -0.1781
  218DOPC   D2A 2553   9.821   9.714  12.837 -0.0457  0.0662 -0.1955
  218DOPC   C3A 2554   9.614  10.187  12.834  0.1858  0.2633 -0.0444
  218DOPC   C4A 2555   9.489  10.613  12.770  0.0326 -0.4249 -0.0192
  218DOPC   C1B 2556  10.026   9.974  12.396  0.3107  0.2268 -0.2183
  218DOPC   D2B 2557  10.225  10.094  12.800 -0.1641 -0.3288  0.3196
  218DOPC   C3B 2558  10.530   9.728  12.807 -0.0907  0.2267  0.2164
  218DOPC   C4B 2559  10.906   9.493  12.575 -0.0577  0.4077  0.4442
  219DOPC   NC3 2560   4.890   7.562  13.053 -0.4686 -0.0902 -0.0983
  219DOPC   PO4 2561   4.558   7.723  13.079  0.1006 -0.2050  0.0920
  219DOPC   GL1 2562   4.745   7.996  13.267  0.0470  0.2602 -0.2868
  219DOPC   GL2 2563   4.657   8.272  13.250 -0.2672  0.0388 -0.2043
  219DOPC   C1A 2564   4.661   8.056  13.747  0.2655  0.0915  0.0689
  219DOPC   D2A 2565   4.607   8.323  14.126  0.1282 -0.0191  0.2866
  219DOPC   C3A 2566   4.425   8.727  14.097  0.1935  0.2660 -0.0250
  219DOPC   C4A 2567   4.143   8.998  14.345  0.1457  0.1431 -0.3036
  219DOPC   C1B 2568   4.435   8.570  13.505  0.2427 -0.0869  0.2418
  219DOPC   D2B 2569   4.382   9.022  13.599  0.1179  0.1078 -0.1667
  219DOPC   C3B 2570   4.524   9.208  13.992 -0.3191 -0.1195  0.0534
  219DOPC   C4B 2571   4.640   9.076  14.400  0.1348 -0.1197 -0.0371
  220DOPC   NC3 2572   3.610   4.999  13.624  0.1402 -0.2783  0.0450
  220DOPC   PO4 2573   3.311   4.936  13.354  0.0121 -0.2908 -0.0074
  220DOPC   GL1 2574   3.128   4.902  13.655 -0.1353  0.2314 -0.1829
  220DOPC   GL2 2575   2.977   4.710  13.760 -0.0618 -0.0705 -0.2741
  220DOPC   C1A 2576   3.259   4.936  14.105  0.3964 -0.0014  0.0770
  220DOPC   D2A 2577   3.143   4.860  14.521  0.0419  0.2904  0.1819
  220DOPC   C3A 2578   2.924   5.185  14.822 -0.0013  0.2167 -0.0404
  220DOPC   C4A 2579   2.703   5.596  14.788 -0.1813  0.1395 -0.4254
  220DOPC   C1B 2580   2.672   4.416  13.808  0.1755 -0.0339 -0.0019
  220DOPC   D2B 2581   2.265   4.368  14.009 -0.0379  0.1946 -0.0095
  220DOPC   C3B 2582   2.092   4.489  14.372  0.1572 -0.0879  0.2783
  220DOPC   C4B 2583   2.031   4.904  14.607 -0.4018  0.0674 -0.0019
  221DOPE   NH3 2584   7.836   0.306  13.527  0.0658  0.1067  0.0459
  221DOPE   PO4 2585   7.764   0.612  13.566 -0.0298 -0.0226 -0.1173
  221DOPE   GL1 2586   7.774   0.461  13.974 -0.2029  0.1623 -0.2470
  221DOPE   GL2 2587   7.482   0.405  13.962 -0.1659  0.2021 -0.1934
  221DOPE   C1A 2588   7.692   0.599  14.397 -0.0700 -0.2632  0.1834
  221DOPE   D2A 2589   7.970   0.762  14.694  0.2066 -0.0786 -0.1054
  221DOPE   C3A 2590   8.071   0.357  14.924  0.1667  0.1549  0.3074
  221DOPE   C4A 2591   7.792   0.098  15.207  0.0704 -0.0623 -0.3219
  221DOPE   C1B 2592   7.450   0.042  14.225  0.2178  0.0414 -0.4499
  221DOPE   D2B 2593   7.591  -0.390  14.392  0.0496 -0.1548  0.2360
  221DOPE   C3B 2594   7.874  -0.347  14.789  0.1010  0.0178  0.1847
  221DOPE   C4B 2595   8.272  -0.166  14.787  0.3177  0.0189 -0.0712
  222POSM   NC3 2596   7.595   1.371  13.413 -0.3788  0.3480 -0.0754
  222POSM   PO4 2597   7.930   1.402  13.602 -0.0143  0.1838 -0.2767
  222POSM   AM1 2598   7.850   1.169  13.811 -0.5251  0.1509 -0.0740
  222POSM   AM2 2599   7.633   0.985  13.865  0.2276 -0.0877 -0.0695
  222POSM   T1A 2600   7.774   1.143  14.356 -0.0773  0.0001  0.0492
  222POSM   C2A 2601   7.564   1.106  14.779 -0.1475 -0.0195 -0.2275
  222POSM   C3A 2602   7.218   1.013  15.111  0.1379 -0.0097  0.5183
  222POSM   C1B 2603   7.461   0.880  14.086  0.0133 -0.1947 -0.2927
  222POSM   D2B 2604   7.267   0.747  14.486  0.0727 -0.0160  0.3633
  222POSM   C3B 2605   7.492   0.639  14.904  0.0876 -0.0960 -0.1986
  222POSM   C4B 2606   7.414   0.577  15.385  0.3317 -0.2142 -0.1013
  223DOPE   NH3 2607   1.155   9.107  11.540  0.1926 -0.1544  0.2499
  223DOPE   PO4 2608   1.118   9.433  11.681  0.0803  0.5106 -0.0342
  223DOPE   GL1 2609   1.133   9.755  11.924  0.1463 -0.2717 -0.1087
  223DOPE   GL2 2610   0.900   9.749  12.089 -0.0417 -0.0599  0.1829
  223DOPE   C1A 2611   1.035  10.250  11.931 -0.0012  0.1497 -0.0008
  223DOPE   D2A 2612   0.685  10.504  12.019  0.0450  0.0914  0.1266
  223DOPE   C3A 2613   0.594  10.770  12.364  0.2056  0.1882 -0.1285
  223DOPE   C4A 2614   0.422  11.177  12.439  0.1750 -0.3071 -0.3692
  223DOPE   C1B 2615   0.668  10.062  12.318  0.1505  0.1683 -0.0355
  223DOPE   D2B 2616   0.559  10.120  12.735  0.1672 -0.0724 -0.0107
  223DOPE   C3B 2617   0.637   9.911  13.124  0.0146 -0.0044 -0.0870
  223DOPE   C4B 2618   0.929   9.832  13.518  0.3413  0.2051  0.1642
  224DOPC   NC3 2619  11.012   1.601  13.248 -0.0537  0.0551 -0.0444
  224DOPC   PO4 2620  10.615   1.576  13.222 -0.0816 -0.2724 -0.1917
  224DOPC   GL1 2621  10.535   1.820  13.454  0.0252  0.0794 -0.0922
  224DOPC   GL2 2622  10.780   1.921  13.565 -0.0769 -0.0624  0.1868
  224DOPC   C1A 2623  10.277   1.964  13.773 -0.2077  0.2391 -0.0849
  224DOPC   D2A 2624  10.006   2.094  14.082 -0.1482  0.2326 -0.2436
  224DOPC   C3A 2625   9.857   1.987  14.514 -0.1498 -0.1281 -0.0113
  224DOPC   C4A 2626   9.884   1.886  14.935  0.0816 -0.1288  0.0538
  224DOPC   C1B 2627  10.788   1.795  13.960 -0.2315  0.1742  0.4651
  224DOPC   D2B 2628  11.122   1.723  14.290  0.0956  0.0325 -0.0214
  224DOPC   C3B 2629  11.497   1.908  14.182  0.0442  0.1275 -0.2097
  224DOPC   C4B 2630  11.797   2.144  14.329 -0.0484  0.1894 -0.1711
  225POSM   NC3 2631   7.528  34.053  12.440  0.0872  0.1709  0.2541
  225POSM   PO4 2632   7.224  33.887  12.602  0.2532 -0.0379 -0.0586
  225POSM   AM1 2633   7.124  33.853  12.887 -0.1235 -0.0199  0.1192
  225POSM   AM2 2634   6.964  33.590  12.967  0.1138 -0.3029 -0.5450
  225POSM   T1A 2635   7.003  33.880  13.375  0.4293  0.0502  0.0729
  225POSM   C2A 2636   7.006  34.072  13.743  0.2309 -0.1409 -0.0417
  225POSM   C3A 2637   7.032  34.162  14.220 -0.1110  0.0016  0.2656
  225POSM   C1B 2638   7.042  33.370  13.212  0.0393 -0.3017  0.2035
  225POSM   D2B 2639   7.162  33.058  13.529 -0.1827 -0.0571 -0.2016
  225POSM   C3B 2640   7.049  32.628  13.488  0.0590  0.1493 -0.1926
  225POSM   C4B 2641   6.903  32.314  13.773 -0.0843  0.0760 -0.1740
  226DOPE   NH3 2642   7.394   6.338  13.558 -0.2038 -0.0383  0.1254
  226DOPE   PO4 2643   7.584   6.608  13.589 -0.3802  0.1607 -0.1603
  226DOPE   GL1 2644   7.222   6.659  13.835  0.0347 -0.3921 -0.2254
  226DOPE   GL2 2645   7.444   6.835  14.059 -0.0045 -0.0749 -0.1179
  226DOPE   C1A 2646   7.228   6.456  14.261 -0.0591 -0.2742  0.0243
  226DOPE   D2A 2647   7.403   6.601  14.646  0.0111  0.1412 -0.1666
  226DOPE   C3A 2648   6.991   6.596  14.851  0.0433 -0.0459  0.2324
  226DOPE   C4A 2649   6.772   6.332  15.147 -0.0478 -0.2173 -0.2339
  226DOPE   C1B 2650   7.092   6.979  14.366  0.1822 -0.1443  0.2059
  226DOPE   D2B 2651   6.872   7.290  14.576 -0.0256  0.2511  0.0246
  226DOPE   C3B 2652   6.791   7.353  15.039 -0.0223 -0.0075 -0.0154
  226DOPE   C4B 2653   6.622   7.191  15.434  0.4517  0.3057  0.0702
  227DOPE   NH3 2654  33.565   4.633  12.391 -0.1516  0.1068  0.2605
  227DOPE   PO4 2655  33.468   4.899  12.525 -0.3043 -0.0911 -0.0466
  227DOPE   GL1 2656  33.577   5.031  12.809  0.1396 -0.0286 -0.2978
  227DOPE   GL2 2657  33.460   4.850  13.041  0.3518  0.0392 -0.2540
  227DOPE   C1A 2658  33.905   5.029  13.115 -0.3253 -0.0434  0.1083
  227DOPE   D2A 2659  34.293   4.876  13.389 -0.0691  0.1540 -0.3149
  227DOPE   C3A 2660  34.131   4.878  13.844  0.1000  0.4429 -0.0325
  227DOPE   C4A 2661  34.303   4.711  14.249 -0.0520  0.2363  0.0809
  227DOPE   C1B 2662  33.288   4.834  13.482 -0.0696  0.0334 -0.2256
  227DOPE   D2B 2663  33.354   4.812  13.966 -0.2205  0.0221  0.2559
  227DOPE   C3B 2664  33.745   5.034  14.152 -0.1386  0.2503 -0.1500
  227DOPE   C4B 2665  34.138   5.217  14.361 -0.1281  0.2535 -0.4403
  228DOPC   NC3 2666   3.969   6.389  13.051  0.2309  0.1006 -0.4909
  228DOPC   PO4 2667   3.757   6.692  13.166  0.0187 -0.1422 -0.2241
  228DOPC   GL1 2668   3.446   6.756  13.384 -0.1082 -0.3705 -0.4183
  228DOPC   GL2 2669   3.311   6.528  13.519 -0.2808  0.5358  0.1978
  228DOPC   C1A 2670   3.422   7.252  13.548 -0.2622 -0.0390  0.0792
  228DOPC   D2A 2671   3.214   7.444  13.948  0.2299 -0.2913 -0.0668
  228DOPC   C3A 2672   2.813   7.334  13.893 -0.0129  0.2322  0.0840
  228DOPC   C4A 2673   2.521   7.039  13.965  0.1080 -0.0400 -0.0311
  228DOPC   C1B 2674   3.314   6.385  13.932 -0.1633  0.0070 -0.1056
  228DOPC   D2B 2675   3.364   6.006  14.216  0.1484 -0.1933 -0.1590
  228DOPC   C3B 2676   3.309   5.795  14.670  0.1291  0.0851 -0.3211
  228DOPC   C4B 2677   3.094   5.623  15.037 -0.4417  0.1209 -0.0033
  229DOPE   NH3 2678   1.297   6.470  12.164  0.0196  0.0521 -0.0004
  229DOPE   PO4 2679   1.154   6.532  12.421  0.2149  0.1597 -0.1890
  229DOPE   GL1 2680   0.944   6.725  12.753  0.0132 -0.2689  0.2885
  229DOPE   GL2 2681   0.646   6.733  12.704 -0.0741  0.0889  0.1347
  229DOPE   C1A 2682   0.720   6.568  13.153  0.1278 -0.0804 -0.1951
  229DOPE   D2A 2683   0.648   6.249  13.428 -0.0273  0.0011 -0.2247
  229DOPE   C3A 2684   0.231   6.166  13.458 -0.1392  0.2142 -0.0115
  229DOPE   C4A 2685  -0.168   6.374  13.586 -0.0197  0.0733 -0.1776
  229DOPE   C1B 2686   0.319   6.998  12.894  0.0178 -0.1899 -0.1141
  229DOPE   D2B 2687   0.037   7.056  13.261 -0.0602 -0.0216  0.1792
  229DOPE   C3B 2688  -0.030   6.851  13.665 -0.2389  0.0043 -0.2413
  229DOPE   C4B 2689  -0.342   6.891  13.994 -0.1760 -0.2192 -0.1514
  230POSM   NC3 2690   6.373   3.827  13.247  0.1251 -0.1220 -0.0266
  230POSM   PO4 2691   6.286   4.133  13.538  0.2432 -0.1518 -0.0376
  230POSM   AM1 2692   6.339   4.060  13.910 -0.0706 -0.6313 -0.0520
  230POSM   AM2 2693   6.192   4.037  14.161  0.1335  0.0545  0.1460
  230POSM   T1A 2694   6.525   3.676  14.190  0.0226  0.1877  0.1810
  230POSM   C2A 2695   6.903   3.570  14.456 -0.0001 -0.3762 -0.0852
  230POSM   C3A 2696   7.248   3.291  14.648  0.0683 -0.1296  0.3409
  230POSM   C1B 2697   6.101   3.879  14.475  0.2810 -0.1600 -0.1708
  230POSM   D2B 2698   6.046   3.762  14.939  0.1403 -0.0277  0.0568
  230POSM   C3B 2699   6.414   3.886  15.160  0.0786 -0.0234  0.1005
  230POSM   C4B 2700   6.738   4.249  15.283 -0.0471 -0.1527 -0.1166
  231DOPC   NC3 2701   6.452   8.409  12.770  0.0552  0.0388 -0.1168
  231DOPC   PO4 2702   6.204   8.170  12.936  0.1585 -0.2840 -0.2747
  231DOPC   GL1 2703   6.014   8.285  13.224  0.1240 -0.1621 -0.4371
  231DOPC   GL2 2704   6.313   8.404  13.356 -0.0791  0.2126 -0.3575
  231DOPC   C1A 2705   5.650   8.358  13.490 -0.3857 -0.0385  0.0670
  231DOPC   D2A 2706   5.506   8.232  13.935 -0.0039  0.2334 -0.0240
  231DOPC   C3A 2707   5.092   8.302  14.092  0.1687 -0.1157  0.1316
  231DOPC   C4A 2708   5.106   8.187  14.580 -0.2003 -0.2194 -0.1017
  231DOPC   C1B 2709   6.393   8.732  13.742 -0.0311  0.1384  0.0344
  231DOPC   D2B 2710   6.642   9.060  13.802  0.0899  0.1422 -0.0839
  231DOPC   C3B 2711   6.398   9.341  14.090  0.1326  0.1592 -0.0353
  231DOPC   C4B 2712   6.085   9.601  13.995 -0.1304 -0.0680 -0.1376
  232POSM   NC3 2713   6.523  11.192  11.321  0.2996  0.0508  0.0669
  232POSM   PO4 2714   6.609  10.841  11.523 -0.0713 -0.1306 -0.0192
  232POSM   AM1 2715   6.392  10.958  11.726 -0.1275  0.0080 -0.0589
  232POSM   AM2 2716   6.177  11.107  11.703 -0.1669 -0.1675  0.0703
  232POSM   T1A 2717   6.232  11.078  12.175 -0.0361  0.3345  0.0728
  232POSM   C2A 2718   6.071  11.375  12.467 -0.0551  0.0287 -0.3660
  232POSM   C3A 2719   6.060  11.580  12.868  0.2155 -0.0157 -0.1517
  232POSM   C1B 2720   5.915  11.241  11.863  0.1940 -0.0332 -0.1776
  232POSM   D2B 2721   5.637  11.363  12.204  0.3204  0.0195 -0.0512
  232POSM   C3B 2722   5.571  11.493  12.675  0.0898 -0.1277  0.1116
  232POSM   C4B 2723   5.362  11.634  13.044  0.0096  0.1056 -0.3233
  233DOPE   NH3 2724   7.771   0.110  13.063 -0.1862 -0.1814 -0.0806
  233DOPE   PO4 2725   7.479   0.119  13.135  0.0878 -0.1076 -0.1721
  233DOPE   GL1 2726   7.289  -0.141  13.482  0.0535  0.1353 -0.1470
  233DOPE   GL2 2727   7.496  -0.122  13.621  0.0585  0.2779 -0.1459
  233DOPE   C1A 2728   7.091   0.039  13.854 -0.2139 -0.0480 -0.0790
  233DOPE   D2A 2729   6.979   0.316  14.203  0.1104 -0.1770  0.1115
  233DOPE   C3A 2730   6.794  -0.011  14.454 -0.0616 -0.3440  0.0030
  233DOPE   C4A 2731   6.794  -0.429  14.664  0.2807 -0.0225  0.1034
  233DOPE   C1B 2732   7.441  -0.442  13.909  0.1729  0.2995 -0.0179
  233DOPE   D2B 2733   7.636  -0.900  14.096  0.0555 -0.1511 -0.0370
  233DOPE   C3B 2734   7.471  -1.218  14.376  0.0630 -0.2831 -0.0533
  233DOPE   C4B 2735   7.584  -1.504  14.694  0.0124  0.0864 -0.2973
  234DOPC   NC3 2736   7.213   3.490  14.109  0.0766 -0.1013 -0.1091
  234DOPC   PO4 2737   7.322   3.366  13.788  0.1039 -0.0507 -0.2190
  234DOPC   GL1 2738   7.247   3.068  13.997 -0.0557  0.0508  0.0122
  234DOPC   GL2 2739   7.304   2.777  13.944 -0.2829 -0.1473  0.1736
  234DOPC   C1A 2740   7.559   2.953  14.420  0.1836  0.2574  0.2891
  234DOPC   D2A 2741   7.654   3.043  14.875  0.1516  0.0148 -0.0184
  234DOPC   C3A 2742   8.071   3.111  15.103  0.1625  0.0567  0.3284
  234DOPC   C4A 2743   8.463   2.891  15.255 -0.1219  0.3403  0.2231
  234DOPC   C1B 2744   7.110   2.707  14.394  0.0509  0.0587  0.2888
  234DOPC   D2B 2745   7.131   2.849  14.866 -0.1299  0.1251  0.0325
  234DOPC   C3B 2746   6.904   2.969  15.236 -0.1757 -0.0957 -0.3277
  234DOPC   C4B 2747   6.544   2.810  15.507 -0.1830  0.2341 -0.2774
  235DOPE   NH3 2748  13.368   1.802  11.940 -0.0843  0.0645 -0.0892
  235DOPE   PO4 2749  13.353   2.102  11.949  0.1603 -0.5631  0.1038
  235DOPE   GL1 2750  13.570   2.341  12.315 -0.0759  0.2876  0.0298
  235DOPE   GL2 2751  13.371   2.558  12.374  0.1831 -0.4827 -0.0169
  235DOPE   C1A 2752  14.001   2.278  12.476 -0.1288 -0.2664  0.0580
  235DOPE   D2A 2753  14.307   1.996  12.743 -0.2043  0.0946 -0.3503
  235DOPE   C3A 2754  14.573   2.076  13.092  0.1250 -0.0872  0.3281
  235DOPE   C4A 2755  14.729   2.157  13.574  0.2556  0.3259 -0.2761
  235DOPE   C1B 2756  13.343   2.683  12.849 -0.0043 -0.0421 -0.0579
  235DOPE   D2B 2757  13.509   2.788  13.286  0.0617 -0.2433 -0.2946
  235DOPE   C3B 2758  13.796   2.435  13.267 -0.1740  0.2077  0.0213
  235DOPE   C4B 2759  13.909   2.024  13.097 -0.0346 -0.0177  0.2012
  236POSM   NC3 2760   2.091   3.902  12.653  0.0839 -0.0368  0.1638
  236POSM   PO4 2761   2.261   4.196  12.895 -0.1208  0.1417  0.1681
  236POSM   AM1 2762   2.448   4.016  13.116  0.0232  0.2639 -0.1022
  236POSM   AM2 2763   2.702   3.842  13.227  0.1332  0.2159  0.2412
  236POSM   T1A 2764   2.479   3.995  13.651 -0.1384  0.0413  0.1078
  236POSM   C2A 2765   2.582   3.960  14.081 -0.0828 -0.2918 -0.1489
  236POSM   C3A 2766   2.822   3.919  14.498 -0.2254  0.1073  0.0105
  236POSM   C1B 2767   2.609   3.565  13.294  0.0880  0.1694 -0.2875
  236POSM   D2B 2768   2.698   3.133  13.469 -0.0143 -0.3079 -0.1029
  236POSM   C3B 2769   2.312   2.896  13.554  0.0050  0.2009  0.1645
  236POSM   C4B 2770   2.039   2.755  13.875  0.0869 -0.0708 -0.0099
  237DOPC   NC3 2771   5.446   6.449  13.699  0.2719  0.0795 -0.0733
  237DOPC   PO4 2772   5.186   6.699  13.489  0.1228  0.1470  0.2670
  237DOPC   GL1 2773   5.086   6.807  13.877  0.0041 -0.1036  0.3058
  237DOPC   GL2 2774   4.786   6.816  13.815 -0.1982  0.1149 -0.0918
  237DOPC   C1A 2775   5.185   6.940  14.321  0.0105  0.4751 -0.2815
  237DOPC   D2A 2776   5.047   7.015  14.752 -0.1710 -0.1263 -0.2073
  237DOPC   C3A 2777   5.248   7.331  14.952  0.0611 -0.1345  0.2183
  237DOPC   C4A 2778   5.229   7.687  15.239 -0.1191 -0.2126  0.3032
  237DOPC   C1B 2779   4.685   7.044  14.177  0.0995  0.1200  0.0893
  237DOPC   D2B 2780   4.955   7.345  14.427  0.1334 -0.1422  0.1360
  237DOPC   C3B 2781   4.713   7.445  14.759  0.0447 -0.2915 -0.4176
  237DOPC   C4B 2782   4.415   7.228  15.022 -0.1502  0.2343 -0.1479
  238POSM   NC3 2783   7.413   2.717  13.418 -0.1037 -0.1990  0.1790
  238POSM   PO4 2784   7.625   2.443  13.568  0.1901  0.1664  0.1253
  238POSM   AM1 2785   7.806   2.442  13.867 -0.0049 -0.1464  0.0737
  238POSM   AM2 2786   7.809   2.620  14.097 -0.1254  0.7558 -0.0864
  238POSM   T1A 2787   7.998   2.197  14.261 -0.2205 -0.1304  0.1772
  238POSM   C2A 2788   8.160   2.090  14.653 -0.3209 -0.1393  0.1182
  238POSM   C3A 2789   8.179   1.657  14.810  0.1531  0.1211 -0.0344
  238POSM   C1B 2790   7.612   2.473  14.379 -0.3144 -0.0104  0.1015
  238POSM   D2B 2791   7.458   2.492  14.775 -0.0902  0.0599 -0.0620
  238POSM   C3B 2792   7.728   2.563  15.133 -0.1095 -0.2946 -0.0324
  238POSM   C4B 2793   8.038   2.716  15.456  0.1193  0.2454 -0.1754
  239POSM   NC3 2794  34.302   6.402  11.764 -0.0012 -0.3790 -0.1097
  239POSM   PO4 2795  34.576   6.426  12.044  0.0609 -0.1148  0.2688
  239POSM   AM1 2796  34.585   6.370  12.383  0.0070  0.4063  0.0939
  239POSM   AM2 2797  34.783   6.202  12.517  0.2131  0.1602  0.1163
  239POSM   T1A 2798  34.394   6.554  12.816  0.0332  0.4728  0.0725
  239POSM   C2A 2799  34.064   6.822  13.077 -0.0624  0.3090  0.1436
  239POSM   C3A 2800  33.590   6.823  13.176 -0.1041 -0.3195  0.1527
  239POSM   C1B 2801  34.818   6.355  12.819 -0.0565 -0.1413  0.1724
  239POSM   D2B 2802  34.729   6.618  13.235  0.0116 -0.0468 -0.2342
  239POSM   C3B 2803  35.035   6.952  13.453  0.1086 -0.1177 -0.0633
  239POSM   C4B 2804  35.081   7.057  13.919 -0.2284 -0.3575  0.0273
  240DOPC   NC3 2805   4.800   0.374  12.759  0.0621  0.4281 -0.1614
  240DOPC   PO4 2806   4.991   0.613  13.005 -0.0965  0.0528 -0.2116
  240DOPC   GL1 2807   4.914   0.791  13.345  0.0620 -0.1307  0.0453
  240DOPC   GL2 2808   4.662   0.981  13.298  0.0185 -0.1717 -0.1517
  240DOPC   C1A 2809   4.993   0.941  13.775  0.0410  0.2136  0.2376
  240DOPC   D2A 2810   5.232   0.687  14.161 -0.1526  0.0155 -0.0025
  240DOPC   C3A 2811   4.982   0.619  14.532  0.3570 -0.1720 -0.1201
  240DOPC   C4A 2812   4.680   0.234  14.606  0.0972 -0.0090 -0.1240
  240DOPC   C1B 2813   4.470   0.794  13.698  0.0174 -0.1170 -0.2895
  240DOPC   D2B 2814   4.516   0.642  14.130  0.2174  0.1101  0.0833
  240DOPC   C3B 2815   4.390   0.629  14.575  0.0706  0.0310 -0.1993
  240DOPC   C4B 2816   4.652   0.671  14.924  0.2866 -0.1700  0.2637
  241DOPE   NH3 2817   1.332   1.329  12.172 -0.2744 -0.0210  0.1257
  241DOPE   PO4 2818   1.613   1.165  12.121  0.1484  0.1633 -0.2940
  241DOPE   GL1 2819   1.469   0.938  12.439 -0.0519 -0.4087  0.0975
  241DOPE   GL2 2820   1.375   1.112  12.629  0.2733 -0.1080  0.0075
  241DOPE   C1A 2821   1.511   0.555  12.705 -0.3010  0.2172  0.3356
  241DOPE   D2A 2822   1.522   0.532  13.187 -0.1231 -0.0170 -0.1311
  241DOPE   C3A 2823   1.600   0.393  13.632 -0.1165  0.1505  0.1949
  241DOPE   C4A 2824   1.609   0.186  14.050  0.1716 -0.3892 -0.0898
  241DOPE   C1B 2825   1.425   1.091  13.101 -0.3485  0.0510 -0.0633
  241DOPE   D2B 2826   1.402   0.896  13.510  0.0683  0.0109  0.1165
  241DOPE   C3B 2827   1.430   1.250  13.838  0.0084 -0.0915  0.0735
  241DOPE   C4B 2828   1.793   1.181  14.126 -0.3483  0.0963 -0.0009
  242POSM   NC3 2829   3.077  11.086  11.541  0.1760 -0.2675 -0.1782
  242POSM   PO4 2830   3.474  11.191  11.568  0.4298  0.3343 -0.2716
  242POSM   AM1 2831   3.307  11.312  11.853  0.4836 -0.1726  0.3837
  242POSM   AM2 2832   3.273  11.218  12.137 -0.0294 -0.0349  0.1490
  242POSM   T1A 2833   3.095  11.626  12.170 -0.1433 -0.1152 -0.1279
  242POSM   C2A 2834   2.955  11.837  12.561 -0.0873  0.0577  0.2614
  242POSM   C3A 2835   2.732  11.783  12.978  0.2255 -0.0844 -0.0931
  242POSM   C1B 2836   3.166  11.172  12.444  0.1615  0.0299 -0.0228
  242POSM   D2B 2837   3.100  11.416  12.839  0.0122 -0.1504 -0.1123
  242POSM   C3B 2838   3.374  11.446  13.182 -0.3521 -0.1591 -0.1364
  242POSM   C4B 2839   3.543  11.151  13.502  0.1756 -0.0808 -0.2848
  243POSM   NC3 2840   4.001   3.877  13.197  0.1647  0.1192 -0.3481
  243POSM   PO4 2841   3.825   3.548  13.120  0.0246  0.0640 -0.1465
  243POSM   AM1 2842   3.857   3.485  13.392  0.1409 -0.1777  0.0408
  243POSM   AM2 2843   3.949   3.586  13.642  0.2275 -0.1892  0.0072
  243POSM   T1A 2844   3.527   3.342  13.811  0.0143  0.3255  0.1232
  243POSM   C2A 2845   3.160   3.324  14.042 -0.0732 -0.0218  0.1998
  243POSM   C3A 2846   2.802   3.480  14.332  0.0508 -0.2944 -0.0869
  243POSM   C1B 2847   3.983   3.673  13.976 -0.0970 -0.0818 -0.2093
  243POSM   D2B 2848   4.305   3.549  14.289  0.0794 -0.1278  0.1194
  243POSM   C3B 2849   4.309   3.543  14.718 -0.0761 -0.3723  0.0149
  243POSM   C4B 2850   4.561   3.484  15.129 -0.0015  0.1431 -0.1312
  244DOPS   CNO 2851   7.456   5.818  13.404 -0.1713 -0.1375  0.0215
  244DOPS   PO4 2852   7.125   5.933  13.521  0.0581 -0.0579 -0.0136
  244DOPS   GL1 2853   6.935   5.842  13.870  0.2249  0.5328 -0.1678
  244DOPS   GL2 2854   7.148   5.980  14.037  0.2278  0.1309 -0.2413
  244DOPS   C1A 2855   6.658   5.683  14.243 -0.0413  0.0355  0.1365
  244DOPS   D2A 2856   6.694   5.529  14.654 -0.1827 -0.0782  0.0290
  244DOPS   C3A 2857   6.867   5.828  14.993  0.0933 -0.1795  0.1861
  244DOPS   C4A 2858   7.081   5.922  15.399  0.0048 -0.0291  0.2273
  244DOPS   C1B 2859   6.782   6.228  13.984 -0.0734 -0.1957 -0.4597
  244DOPS   D2B 2860   6.516   6.583  14.133 -0.1521  0.1682 -0.0429
  244DOPS   C3B 2861   6.611   6.680  14.570  0.3829  0.1706  0.0402
  244DOPS   C4B 2862   6.536   6.931  14.927 -0.1261 -0.4238  0.0445
  245DOPC   NC3 2863   2.354   9.306  11.795 -0.3014 -0.0887  0.1462
  245DOPC   PO4 2864   2.415   9.013  12.024 -0.0361  0.2743  0.1768
  245DOPC   GL1 2865   2.374   9.347  12.261 -0.4826 -0.0538  0.2668
  245DOPC   GL2 2866   2.259   9.238  12.511 -0.1496 -0.4133  0.1296
  245DOPC   C1A 2867   2.621   9.588  12.614 -0.1184  0.1539 -0.0027
  245DOPC   D2A 2868   2.999   9.421  12.766  0.0451 -0.0776 -0.1197
  245DOPC   C3A 2869   2.975   9.133  13.116 -0.0643 -0.0694 -0.2639
  245DOPC   C4A 2870   3.004   8.872  13.449 -0.2348  0.3561 -0.1430
  245DOPC   C1B 2871   1.937   9.477  12.796 -0.0412  0.1219 -0.1138
  245DOPC   D2B 2872   1.790   9.685  13.139  0.1654 -0.1114  0.1349
  245DOPC   C3B 2873   2.104   9.957  13.363 -0.1650 -0.1433 -0.0242
  245DOPC   C4B 2874   2.261  10.148  13.737  0.0319  0.1737  0.0272
  246POSM   NC3 2875   0.421   5.957  12.084 -0.3468 -0.2202  0.0065
  246POSM   PO4 2876   0.203   5.628  12.222  0.3311  0.0521  0.0007
  246POSM   AM1 2877   0.031   5.794  12.456 -0.1582 -0.1062  0.0832
  246POSM   AM2 2878  -0.244   5.856  12.478 -0.0934  0.3919  0.0200
  246POSM   T1A 2879  -0.048   5.971  12.912 -0.0919 -0.1737  0.0729
  246POSM   C2A 2880  -0.241   5.961  13.292 -0.0399 -0.1701  0.0516
  246POSM   C3A 2881  -0.414   5.954  13.728 -0.1126 -0.0696 -0.2147
  246POSM   C1B 2882  -0.345   6.197  12.454  0.0157 -0.1849  0.0600
  246POSM   D2B 2883  -0.580   6.559  12.597  0.1026  0.1442 -0.0048
  246POSM   C3B 2884  -0.706   6.957  12.617 -0.0914  0.1855  0.2707
  246POSM   C4B 2885  -0.778   7.431  12.695 -0.1193 -0.0787 -0.2697
  247DOPE   NH3 2886   5.785   2.217  13.376  0.1008  0.2472 -0.0739
  247DOPE   PO4 2887   5.495   2.125  13.346 -0.0290 -0.0074 -0.0682
  247DOPE   GL1 2888   5.610   1.923  13.725 -0.2781  0.5218 -0.0412
  247DOPE   GL2 2889   5.290   1.842  13.762  0.0169 -0.0027  0.0583
  247DOPE   C1A 2890   5.472   2.043  14.177 -0.0039  0.0683  0.1703
  247DOPE   D2A 2891   5.327   2.012  14.563 -0.0774  0.2689  0.1024
  247DOPE   C3A 2892   5.550   2.267  14.921  0.0162  0.0426 -0.0462
  247DOPE   C4A 2893   5.684   2.477  15.337 -0.0032  0.2980  0.1945
  247DOPE   C1B 2894   4.987   2.048  14.018 -0.1912 -0.0933 -0.0279
  247DOPE   D2B 2895   4.821   2.167  14.448 -0.1131 -0.1667  0.3232
  247DOPE   C3B 2896   5.100   2.420  14.720 -0.0359 -0.1011  0.1386
  247DOPE   C4B 2897   5.296   2.784  14.999  0.0205  0.1480  0.0461
  248POSM   NC3 2898  33.501   8.811  11.375  0.4004 -0.0373 -0.3394
  248POSM   PO4 2899  33.219   8.547  11.393  0.1919 -0.2249 -0.1377
  248POSM   AM1 2900  33.294   8.337  11.668  0.2301 -0.2620  0.3659
  248POSM   AM2 2901  33.173   8.289  11.897 -0.2619 -0.0029 -0.2242
  248POSM   T1A 2902  33.597   8.024  11.887 -0.0799 -0.2943  0.1560
  248POSM   C2A 2903  33.918   8.060  12.245 -0.1713 -0.0451 -0.4481
  248POSM   C3A 2904  34.237   8.252  12.533 -0.2577  0.0629 -0.0386
  248POSM   C1B 2905  33.100   8.496  12.197  0.1006 -0.3304  0.0068
  248POSM   D2B 2906  33.166   8.869  12.408  0.1251 -0.0512  0.1190
  248POSM   C3B 2907  33.030   9.111  12.780  0.0786 -0.1911 -0.1314
  248POSM   C4B 2908  33.158   9.458  13.084 -0.1021 -0.1656 -0.0963
  249POSM   NC3 2909   3.991   7.152  13.091 -0.0299  0.0661  0.1484
  249POSM   PO4 2910   3.798   7.345  12.839  0.3125  0.0222 -0.0867
  249POSM   AM1 2911   3.653   7.496  13.093 -0.2385 -0.2230 -0.3785
  249POSM   AM2 2912   3.707   7.570  13.376  0.0217 -0.0762 -0.1677
  249POSM   T1A 2913   3.205   7.673  13.321  0.0702  0.2029  0.0821
  249POSM   C2A 2914   2.735   7.680  13.479  0.2623  0.2283 -0.2149
  249POSM   C3A 2915   2.382   7.558  13.731  0.2941  0.2392 -0.2294
  249POSM   C1B 2916   3.596   7.707  13.713  0.1345 -0.1934  0.1341
  249POSM   D2B 2917   3.747   7.909  14.147  0.1381  0.3171  0.1586
  249POSM   C3B 2918   3.528   8.247  14.371  0.1017 -0.0477 -0.2981
  249POSM   C4B 2919   3.157   8.489  14.441 -0.2069  0.0641  0.2156
  250POSM   NC3 2920   0.511   8.173  12.026  0.1013 -0.2178  0.0164
  250POSM   PO4 2921   0.532   7.807  12.104 -0.1197  0.0304  0.2830
  250POSM   AM1 2922   0.485   7.815  12.412 -0.2528 -0.1607  0.0721
  250POSM   AM2 2923   0.634   7.773  12.626  0.0790 -0.3409 -0.1431
  250POSM   T1A 2924   0.165   7.955  12.753  0.1553 -0.3762  0.0817
  250POSM   C2A 2925   0.299   8.334  12.926 -0.0014  0.1303 -0.1820
  250POSM   C3A 2926   0.455   8.411  13.334 -0.0572 -0.0604 -0.1953
  250POSM   C1B 2927   0.551   7.578  12.936  0.3215 -0.0584  0.1445
  250POSM   D2B 2928   0.555   7.423  13.367  0.0825 -0.0864 -0.2024
  250POSM   C3B 2929   0.210   7.407  13.690 -0.0807  0.2628  0.2489
  250POSM   C4B 2930   0.071   7.198  14.065 -0.2964  0.2812 -0.1064
  251DOPS   CNO 2931   7.089   4.594  13.462 -0.1561 -0.0080  0.0306
  251DOPS   PO4 2932   7.193   4.296  13.687  0.1368 -0.2562 -0.0721
  251DOPS   GL1 2933   7.153   4.306  14.102  0.1105 -0.0137 -0.0393
  251DOPS   GL2 2934   7.416   4.401  14.114  0.1576 -0.1385  0.0016
  251DOPS   C1A 2935   7.024   4.121  14.518 -0.0897 -0.1764  0.0320
  251DOPS   D2A 2936   6.808   3.988  14.915  0.1794 -0.4894 -0.0272
  251DOPS   C3A 2937   6.430   4.268  14.831  0.1264 -0.2779  0.0439
  251DOPS   C4A 2938   6.051   4.558  14.996 -0.0180 -0.0796 -0.3860
  251DOPS   C1B 2939   7.304   4.580  14.559 -0.2380 -0.1265 -0.2028
  251DOPS   D2B 2940   7.117   4.424  14.951 -0.0505 -0.0985  0.2767
  251DOPS   C3B 2941   6.711   4.691  15.064 -0.4392  0.2673  0.1427
  251DOPS   C4B 2942   6.376   4.780  14.751 -0.2571 -0.0154 -0.0245
  252POSM   NC3 2943   8.041   0.688  12.890 -0.2758  0.2265  0.0412
  252POSM   PO4 2944   8.186   0.525  13.218 -0.2027 -0.3207 -0.0390
  252POSM   AM1 2945   8.320   0.473  13.535  0.0706  0.0055 -0.1857
  252POSM   AM2 2946   8.333   0.244  13.646 -0.3351  0.2189 -0.0575
  252POSM   T1A 2947   8.769   0.395  13.753  0.0468  0.0002 -0.1548
  252POSM   C2A 2948   9.047   0.303  14.120  0.1083  0.0524 -0.0436
  252POSM   C3A 2949   9.141   0.141  14.589  0.1801  0.0534 -0.0270
  252POSM   C1B 2950   8.364   0.296  14.000  0.3686  0.0937  0.0158
  252POSM   D2B 2951   8.324   0.355  14.479  0.1168  0.1407 -0.0680
  252POSM   C3B 2952   8.787   0.495  14.516 -0.0740  0.1767 -0.0089
  252POSM   C4B 2953   9.035   0.566  14.840 -0.1157  0.1030  0.2931
  253DOPE   NH3 2954   8.400   4.856  13.448 -0.1375  0.1930  0.3959
  253DOPE   PO4 2955   8.460   4.625  13.666 -0.1906 -0.1996 -0.5437
  253DOPE   GL1 2956   8.783   4.682  13.898 -0.1785 -0.1352  0.5213
  253DOPE   GL2 2957   9.041   4.819  13.795 -0.2355 -0.0474 -0.1571
  253DOPE   C1A 2958   9.083   4.490  14.249  0.0178 -0.3276  0.1220
  253DOPE   D2A 2959   8.977   4.356  14.706 -0.1785  0.0972  0.0150
  253DOPE   C3A 2960   8.513   4.267  14.794 -0.0141 -0.0027 -0.0250
  253DOPE   C4A 2961   8.150   4.211  15.113 -0.2765  0.1935 -0.2956
  253DOPE   C1B 2962   8.930   5.173  14.067  0.0810 -0.1224 -0.0417
  253DOPE   D2B 2963   9.009   5.328  14.537 -0.0157 -0.1857  0.1329
  253DOPE   C3B 2964   9.476   5.379  14.663 -0.0259  0.1321 -0.0290
  253DOPE   C4B 2965   9.784   5.065  14.784 -0.1065  0.3555 -0.0750
  254DOPE   NH3 2966   9.552   8.727  11.904 -0.1681 -0.3781  0.1367
  254DOPE   PO4 2967   9.487   8.727  12.208 -0.3769  0.1403  0.1882
  254DOPE   GL1 2968   9.700   8.974  12.416  0.3714 -0.2820 -0.2364
  254DOPE   GL2 2969   9.974   9.020  12.346  0.0061 -0.0449 -0.0071
  254DOPE   C1A 2970   9.665   9.241  12.808 -0.0183 -0.0407 -0.0474
  254DOPE   D2A 2971   9.334   9.363  12.998 -0.1067 -0.2384 -0.1893
  254DOPE   C3A 2972   9.445   9.418  13.439  0.0711 -0.3855  0.0248
  254DOPE   C4A 2973   9.298   9.264  13.818 -0.3088 -0.0425 -0.0848
  254DOPE   C1B 2974  10.153   8.941  12.794  0.1099  0.0240 -0.1859
  254DOPE   D2B 2975  10.421   8.632  13.132 -0.0466 -0.1774 -0.4574
  254DOPE   C3B 2976  10.072   8.432  13.361  0.1209 -0.3073 -0.3232
  254DOPE   C4B 2977   9.898   8.395  13.836 -0.1861 -0.2264  0.2355
  255DOPE   NH3 2978   3.735   6.664  13.749 -0.1849 -0.1778  0.1617
  255DOPE   PO4 2979   3.982   6.463  13.672 -0.0862 -0.1565 -0.0423
  255DOPE   GL1 2980   3.976   6.486  14.111 -0.1948 -0.3548 -0.0881
  255DOPE   GL2 2981   3.889   6.745  14.206 -0.1209  0.1635  0.1438
  255DOPE   C1A 2982   3.758   6.228  14.442 -0.1582 -0.0774  0.0386
  255DOPE   D2A 2983   3.447   6.279  14.817 -0.1583  0.0929  0.1603
  255DOPE   C3A 2984   3.282   6.736  14.794  0.0335  0.0331  0.2523
  255DOPE   C4A 2985   3.121   7.194  14.683 -0.0187 -0.1679  0.0396
  255DOPE   C1B 2986   3.477   6.672  14.285 -0.0466 -0.0490  0.0959
  255DOPE   D2B 2987   3.159   6.410  14.442  0.1645 -0.0244  0.0591
  255DOPE   C3B 2988   2.843   6.714  14.434  0.3447  0.0155  0.1038
  255DOPE   C4B 2989   2.756   6.857  14.871 -0.2210  0.0136  0.0254
  256DOPE   NH3 2990   3.065  32.745  10.402  0.0125  0.0594  0.0029
  256DOPE   PO4 2991   2.734  32.732  10.397  0.1077 -0.0553 -0.0442
  256DOPE   GL1 2992   2.863  33.116  10.556  0.2778 -0.1538  0.0426
  256DOPE   GL2 2993   3.113  33.223  10.306 -0.0911 -0.0028 -0.0623
  256DOPE   C1A 2994   2.754  33.279  11.005 -0.0076 -0.0812 -0.2099
  256DOPE   D2A 2995   2.857  33.163  11.431  0.0209 -0.1392 -0.0502
  256DOPE   C3A 2996   3.091  33.374  11.758 -0.2592 -0.0485  0.3018
  256DOPE   C4A 2997   3.131  33.595  12.153  0.0997 -0.0131  0.0803
  256DOPE   C1B 2998   3.165  33.466  10.654  0.1842  0.1636 -0.0160
  256DOPE   D2B 2999   3.438  33.791  10.810  0.1593  0.0559  0.0968
  256DOPE   C3B 3000   2.999  33.844  10.982 -0.1890  0.1113 -0.4969
  256DOPE   C4B 3001   2.548  33.702  11.018  0.0071  0.0046  0.4397
  257POSM   NC3 3002   0.415   3.837  12.347  0.1665 -0.1031 -0.0791
  257POSM   PO4 3003   0.693   3.584  12.339  0.1387  0.0331  0.0078
  257POSM   AM1 3004   0.822   3.473  12.593 -0.1549 -0.1007  0.4370
  257POSM   AM2 3005   0.723   3.474  12.845 -0.0799 -0.0764  0.1649
  257POSM   T1A 3006   1.100   3.113  12.831 -0.0832 -0.4344  0.2165
  257POSM   C2A 3007   1.553   2.956  12.802 -0.3257 -0.1302  0.0207
  257POSM   C3A 3008   1.894   2.618  12.919 -0.2801  0.0566 -0.1034
  257POSM   C1B 3009   0.722   3.318  13.130 -0.0093 -0.0760  0.0115
  257POSM   D2B 3010   0.955   2.941  13.278  0.0607  0.0616  0.0508
  257POSM   C3B 3011   1.313   2.851  13.529 -0.0954  0.0821 -0.1500
  257POSM   C4B 3012   1.597   2.488  13.652 -0.0376 -0.1845  0.1910
  258DOPC   NC3 3013   8.187   8.004  12.697 -0.1830 -0.4879 -0.0759
  258DOPC   PO4 3014   7.794   8.094  12.552 -0.2445  0.0835  0.0150
  258DOPC   GL1 3015   7.884   8.380  12.873 -0.0424 -0.0918  0.0106
  258DOPC   GL2 3016   7.589   8.441  12.927 -0.1138  0.1018  0.0610
  258DOPC   C1A 3017   8.190   8.247  13.170 -0.2417  0.1673 -0.0016
  258DOPC   D2A 3018   8.359   8.630  13.381  0.0548 -0.5188  0.1260
  258DOPC   C3A 3019   8.182   8.932  13.776 -0.0872  0.0311  0.0869
  258DOPC   C4A 3020   7.825   9.112  14.000  0.0534 -0.2722 -0.3117
  258DOPC   C1B 3021   7.665   8.271  13.363 -0.0289 -0.1930 -0.2066
  258DOPC   D2B 3022   7.911   7.969  13.647 -0.3551  0.1363 -0.0643
  258DOPC   C3B 3023   7.913   7.904  14.105  0.0643 -0.1978  0.1169
  258DOPC   C4B 3024   8.136   7.873  14.528 -0.3087  0.1071 -0.1071
  259DOPC   NC3 3025   5.207   8.353  12.682  0.2833 -0.1823  0.1536
  259DOPC   PO4 3026   5.285   8.682  12.892  0.1522 -0.2839  0.0439
  259DOPC   GL1 3027   5.156   8.743  13.303 -0.4379  0.1192 -0.0549
  259DOPC   GL2 3028   4.919   8.775  13.250 -0.2245  0.0447 -0.1861
  259DOPC   C1A 3029   5.324   8.720  13.726  0.0658 -0.1889  0.1931
  259DOPC   D2A 3030   5.655   8.700  14.053  0.1034 -0.0515 -0.3238
  259DOPC   C3A 3031   5.381   8.548  14.390  0.1337 -0.0921  0.0942
  259DOPC   C4A 3032   5.569   8.297  14.754 -0.1116  0.1514  0.1249
  259DOPC   C1B 3033   4.845   8.696  13.694  0.2170  0.1063 -0.0227
  259DOPC   D2B 3034   4.966   8.896  14.060 -0.0282  0.4151 -0.0396
  259DOPC   C3B 3035   4.878   8.620  14.446  0.1794  0.0797  0.1069
  259DOPC   C4B 3036   4.692   8.502  14.865  0.1355  0.1676  0.0545
  260POSM   NC3 3037   1.960   5.124  12.738 -0.2119 -0.2096 -0.1834
  260POSM   PO4 3038   1.637   5.294  12.856 -0.1493  0.0595  0.0285
  260POSM   AM1 3039   1.417   5.126  13.041 -0.1212  0.3334  0.0824
  260POSM   AM2 3040   1.292   4.877  12.970  0.0279  0.0676  0.1966
  260POSM   T1A 3041   1.321   5.066  13.533  0.1224  0.0846 -0.0505
  260POSM   C2A 3042   1.235   4.665  13.759 -0.1387 -0.3067 -0.2239
  260POSM   C3A 3043   1.034   4.602  14.133  0.2631  0.0319 -0.0359
  260POSM   C1B 3044   1.003   4.947  13.101 -0.0529  0.1004  0.2665
  260POSM   D2B 3045   0.734   4.877  13.478 -0.2428 -0.3043 -0.1776
  260POSM   C3B 3046   0.595   4.670  13.883  0.1749  0.0103  0.3077
  260POSM   C4B 3047   0.300   4.552  14.231  0.3309  0.2007  0.2044
  261POSM   NC3 3048   6.296   5.599  13.713  0.0188  0.2067 -0.0091
  261POSM   PO4 3049   5.918   5.688  13.611 -0.0625 -0.0738  0.1713
  261POSM   AM1 3050   5.951   5.885  13.888  0.0335  0.1294 -0.0391
  261POSM   AM2 3051   6.182   5.989  14.009 -0.1834 -0.1344  0.0348
  261POSM   T1A 3052   5.807   5.996  14.348  0.0589 -0.1738  0.2099
  261POSM   C2A 3053   5.930   5.868  14.778 -0.1159  0.0800 -0.1647
  261POSM   C3A 3054   6.287   5.858  15.048  0.4126 -0.1327 -0.4538
  261POSM   C1B 3055   6.335   6.079  14.330 -0.1016  0.0083 -0.0546
  261POSM   D2B 3056   6.212   6.299  14.707  0.1699 -0.2364  0.1253
  261POSM   C3B 3057   6.182   6.378  15.194  0.1760 -0.4411  0.1212
  261POSM   C4B 3058   5.767   6.490  15.370  0.0609 -0.1788 -0.0607
  262DOPS   CNO 3059  10.405   3.246  13.319  0.0373  0.3398 -0.1503
  262DOPS   PO4 3060  10.114   3.445  13.398  0.1418  0.0181 -0.0570
  262DOPS   GL1 3061  10.153   3.458  13.821 -0.0434 -0.1168  0.0323
  262DOPS   GL2 3062  10.492   3.430  13.792 -0.0674 -0.0995  0.0051
  262DOPS   C1A 3063   9.958   3.787  14.138 -0.0536 -0.1505 -0.0346
  262DOPS   D2A 3064  10.081   4.007  14.522  0.2720  0.0813  0.2413
  262DOPS   C3A 3065  10.519   4.068  14.545 -0.0006 -0.1547 -0.1957
  262DOPS   C4A 3066  10.968   4.115  14.444  0.0369  0.1818  0.1430
  262DOPS   C1B 3067  10.714   3.235  14.047  0.2602  0.2861  0.1059
  262DOPS   D2B 3068  11.228   3.310  14.060 -0.2002 -0.0983 -0.1415
  262DOPS   C3B 3069  11.509   3.424  14.450  0.1230  0.2879  0.1560
  262DOPS   C4B 3070  11.933   3.499  14.590  0.0264  0.2321 -0.2866
  263DOPE   NH3 3071   6.099   6.849  13.321 -0.0421 -0.1779  0.0288
  263DOPE   PO4 3072   5.842   6.699  13.510  0.2306 -0.1139  0.0341
  263DOPE   GL1 3073   6.029   6.703  13.929  0.0993 -0.1975 -0.2696
  263DOPE   GL2 3074   5.830   6.450  14.025  0.2669  0.2169  0.0309
  263DOPE   C1A 3075   6.281   6.984  14.194  0.0453 -0.1073  0.1082
  263DOPE   D2A 3076   6.357   7.240  14.579  0.2867 -0.1531 -0.1804
  263DOPE   C3A 3077   5.952   7.508  14.661 -0.1804 -0.1920  0.1219
  263DOPE   C4A 3078   5.634   7.796  14.626  0.1272 -0.0189  0.1396
  263DOPE   C1B 3079   5.732   6.547  14.489  0.3554 -0.0110 -0.0267
  263DOPE   D2B 3080   5.739   6.328  14.876  0.1879 -0.0259  0.0781
  263DOPE   C3B 3081   5.363   6.125  15.071 -0.2256  0.0470  0.0884
  263DOPE   C4B 3082   5.012   6.126  15.366 -0.1365  0.2357  0.0978
  264DOPC   NC3 3083   5.649   4.443  13.567  0.1568  0.0113 -0.0060
  264DOPC   PO4 3084   5.361   4.164  13.522  0.1873 -0.0806  0.2045
  264DOPC   GL1 3085   5.272   4.224  13.870 -0.2992 -0.0572 -0.0959
  264DOPC   GL2 3086   5.447   4.362  14.027  0.1026 -0.0580 -0.1581
  264DOPC   C1A 3087   5.291   3.960  14.250 -0.0272  0.1331 -0.2390
  264DOPC   D2A 3088   5.232   3.536  14.429  0.1685 -0.1681 -0.1714
  264DOPC   C3A 3089   5.046   3.460  14.821  0.0987 -0.0800 -0.1083
  264DOPC   C4A 3090   5.032   3.156  15.209  0.3207  0.3704  0.1470
  264DOPC   C1B 3091   5.738   4.167  14.354  0.2855  0.0911  0.0707
  264DOPC   D2B 3092   5.810   4.179  14.818 -0.1714  0.2006 -0.1575
  264DOPC   C3B 3093   5.828   4.047  15.265 -0.0303  0.1002 -0.5003
  264DOPC   C4B 3094   5.676   3.926  15.676 -0.0757  0.1995  0.0886
  265DOPC   NC3 3095   2.961   8.017  12.480  0.2385  0.2571 -0.0230
  265DOPC   PO4 3096   3.251   8.157  12.742  0.1689 -0.2358  0.1813
  265DOPC   GL1 3097   3.261   8.187  13.134  0.0438 -0.1995 -0.0658
  265DOPC   GL2 3098   3.485   8.049  13.223 -0.2074 -0.2029  0.0524
  265DOPC   C1A 3099   2.927   8.342  13.394  0.0013 -0.0494  0.1617
  265DOPC   D2A 3100   2.574   8.158  13.609 -0.0817 -0.0047  0.0728
  265DOPC   C3A 3101   2.746   7.846  13.958 -0.2025  0.3248 -0.2729
  265DOPC   C4A 3102   2.913   7.652  14.333 -0.0395 -0.1135  0.2703
  265DOPC   C1B 3103   3.218   8.005  13.648 -0.0057 -0.2852  0.1255
  265DOPC   D2B 3104   3.177   7.966  14.136  0.5771  0.2850 -0.2306
  265DOPC   C3B 3105   3.405   7.610  14.407  0.1304 -0.1195 -0.0944
  265DOPC   C4B 3106   3.550   7.493  14.829  0.0301 -0.1759 -0.1868
  266DOPC   NC3 3107   4.813   8.628  12.764  0.0181 -0.0595 -0.2210
  266DOPC   PO4 3108   4.722   8.992  12.598  0.2558 -0.0540  0.0020
  266DOPC   GL1 3109   4.613   9.057  13.029  0.0507 -0.0027 -0.2291
  266DOPC   GL2 3110   4.658   9.242  13.177  0.4927 -0.2883 -0.1271
  266DOPC   C1A 3111   4.154   9.142  13.112 -0.2277  0.2931  0.0143
  266DOPC   D2A 3112   3.909   9.211  13.472 -0.0550  0.3678  0.0783
  266DOPC   C3A 3113   4.137   9.447  13.825 -0.3127 -0.0509  0.2689
  266DOPC   C4A 3114   4.290   9.631  14.161  0.2914 -0.1489  0.1422
  266DOPC   C1B 3115   4.963   9.535  13.328 -0.3215  0.1976 -0.1704
  266DOPC   D2B 3116   5.262   9.716  13.600  0.0810  0.2429  0.1751
  266DOPC   C3B 3117   5.473   9.629  13.993 -0.2638  0.0923 -0.0649
  266DOPC   C4B 3118   5.293   9.301  14.268  0.4412  0.2178 -0.1113
  267DOPE   NH3 3119   8.541   1.282  13.395  0.0182  0.2518  0.1270
  267DOPE   PO4 3120   8.808   1.255  13.503  0.0831 -0.2940  0.3297
  267DOPE   GL1 3121   8.952   1.411  13.817  0.1218 -0.2071  0.3338
  267DOPE   GL2 3122   8.734   1.589  13.860 -0.0704 -0.1125 -0.1689
  267DOPE   C1A 3123   8.967   1.242  14.213  0.0654  0.1902 -0.0344
  267DOPE   D2A 3124   9.140   0.941  14.519 -0.3131 -0.0823 -0.1703
  267DOPE   C3A 3125   9.164   1.211  14.911  0.0513 -0.1237  0.0200
  267DOPE   C4A 3126   9.208   1.593  15.135 -0.1045 -0.0291  0.0405
  267DOPE   C1B 3127   8.985   1.703  14.156 -0.1577  0.0090  0.0882
  267DOPE   D2B 3128   9.288   1.665  14.510 -0.0126  0.2914  0.1373
  267DOPE   C3B 3129   9.391   2.000  14.777  0.1620 -0.2728 -0.1506
  267DOPE   C4B 3130   9.082   2.379  14.827  0.4289  0.2674  0.0081
  268DOPC   NC3 3131   8.579   6.451  13.813  0.3540 -0.2565  0.1425
  268DOPC   PO4 3132   8.722   6.614  13.464 -0.2154 -0.0284  0.0013
  268DOPC   GL1 3133   8.942   6.844  13.715  0.1585  0.1206  0.0386
  268DOPC   GL2 3134   8.914   7.113  13.670 -0.1421 -0.1883  0.3528
  268DOPC   C1A 3135   9.135   6.923  14.146 -0.1704 -0.0151  0.1130
  268DOPC   D2A 3136   9.471   6.897  14.489  0.3049 -0.2386 -0.0665
  268DOPC   C3A 3137   9.801   7.225  14.405 -0.2332  0.1067  0.0678
  268DOPC   C4A 3138  10.110   7.275  14.186  0.0895 -0.2580  0.4645
  268DOPC   C1B 3139   8.941   7.321  14.033 -0.4434 -0.1694 -0.1389
  268DOPC   D2B 3140   8.789   7.328  14.458 -0.1948  0.0810  0.0349
  268DOPC   C3B 3141   8.895   7.722  14.634  0.2769 -0.0881  0.2467
  268DOPC   C4B 3142   9.040   8.137  14.500 -0.1241  0.3386 -0.1799
  269POSM   NC3 3143   1.839   3.001  11.795  0.0774 -0.1499  0.0641
  269POSM   PO4 3144   1.745   3.228  12.118 -0.3176 -0.1794 -0.0839
  269POSM   AM1 3145   1.831   3.251  12.434 -0.0587 -0.0019  0.4301
  269POSM   AM2 3146   1.794   3.406  12.685 -0.2329 -0.5707 -0.0583
  269POSM   T1A 3147   2.175   3.099  12.730  0.1471 -0.1536 -0.1674
  269POSM   C2A 3148   2.576   3.229  12.869 -0.0214  0.2540  0.5510
  269POSM   C3A 3149   2.969   3.414  13.010 -0.1931 -0.0057  0.0267
  269POSM   C1B 3150   1.816   3.425  13.031 -0.0026 -0.4636  0.1255
  269POSM   D2B 3151   1.701   3.530  13.531 -0.0591 -0.0609  0.3250
  269POSM   C3B 3152   1.514   3.203  13.813  0.4708 -0.0383 -0.1468
  269POSM   C4B 3153   1.577   2.778  14.055  0.0297  0.1715 -0.0470
  270DOPS   CNO 3154   3.633   0.694  12.080 -0.2086  0.0977  0.2923
  270DOPS   PO4 3155   3.367   0.492  11.934  0.0627  0.3203  0.2936
  270DOPS   GL1 3156   3.572   0.301  12.324 -0.0205  0.1447 -0.2349
  270DOPS   GL2 3157   3.322   0.135  12.359 -0.1958  0.1378  0.1499
  270DOPS   C1A 3158   3.736  -0.167  12.379  0.1251  0.2988 -0.0700
  270DOPS   D2A 3159   3.638  -0.584  12.599  0.0342 -0.4064  0.0201
  270DOPS   C3A 3160   3.225  -0.754  12.635  0.1354 -0.0790 -0.1791
  270DOPS   C4A 3161   3.109  -1.002  13.004 -0.2865 -0.1704 -0.0474
  270DOPS   C1B 3162   3.355  -0.174  12.702  0.1457  0.1414  0.0626
  270DOPS   D2B 3163   3.543  -0.371  13.064  0.0268  0.1188 -0.0394
  270DOPS   C3B 3164   3.730  -0.867  13.049  0.4639 -0.2511  0.0551
  270DOPS   C4B 3165   3.876  -1.127  13.441  0.4077  0.0432  0.0016
  271DOPE   NH3 3166   1.686   6.333  12.424  0.0402 -0.4734 -0.2112
  271DOPE   PO4 3167   1.481   6.214  12.657  0.1518 -0.0245 -0.0302
  271DOPE   GL1 3168   1.302   6.490  13.041 -0.4348  0.1303  0.3968
  271DOPE   GL2 3169   1.086   6.317  12.996 -0.0197 -0.1225  0.1951
  271DOPE   C1A 3170   1.610   6.551  13.397 -0.1653 -0.0750 -0.3308
  271DOPE   D2A 3171   1.921   6.578  13.717 -0.1189  0.1011  0.2518
  271DOPE   C3A 3172   1.698   6.375  14.094  0.2658  0.2059  0.2719
  271DOPE   C4A 3173   1.478   6.217  14.429  0.0538  0.3369  0.0255
  271DOPE   C1B 3174   1.104   6.349  13.436 -0.1180  0.0866 -0.0549
  271DOPE   D2B 3175   1.003   6.200  13.795 -0.1007  0.3705 -0.2719
  271DOPE   C3B 3176   0.636   6.076  13.913  0.0592 -0.1660  0.0278
  271DOPE   C4B 3177   0.133   5.995  13.891  0.0765 -0.0513 -0.0836
  272POSM   NC3 3178  33.770   2.925  12.111  0.0824 -0.0947 -0.3045
  272POSM   PO4 3179  34.008   3.005  12.433 -0.0378  0.3021  0.0031
  272POSM   AM1 3180  33.937   3.103  12.705 -0.0529 -0.2642  0.1108
  272POSM   AM2 3181  33.718   3.062  12.918  0.0520 -0.1843 -0.3451
  272POSM   T1A 3182  34.167   3.204  13.145 -0.0528  0.2011 -0.1310
  272POSM   C2A 3183  34.178   3.473  13.507 -0.0358 -0.1946  0.1816
  272POSM   C3A 3184  34.042   3.352  13.910 -0.1721  0.0472  0.1798
  272POSM   C1B 3185  33.732   2.808  13.144 -0.0726 -0.1263 -0.0595
  272POSM   D2B 3186  33.872   2.643  13.547 -0.0158 -0.2366  0.2680
  272POSM   C3B 3187  33.832   2.806  13.914 -0.0447 -0.0001  0.0584
  272POSM   C4B 3188  33.973   2.847  14.344 -0.0435  0.1747  0.1168
  273DOPC   NC3 3189   4.470   4.553  13.908  0.1956  0.1106  0.0565
  273DOPC   PO4 3190   4.367   4.363  13.610  0.1338 -0.1549 -0.0742
  273DOPC   GL1 3191   4.199   4.099  13.808  0.0305 -0.2817  0.0165
  273DOPC   GL2 3192   3.938   4.182  13.783 -0.2027  0.0085 -0.4183
  273DOPC   C1A 3193   4.041   4.041  14.257  0.1223  0.0408 -0.1120
  273DOPC   D2A 3194   4.080   4.125  14.776 -0.0009  0.0846 -0.0610
  273DOPC   C3A 3195   3.838   4.470  15.032  0.0656 -0.0021  0.1072
  273DOPC   C4A 3196   3.525   4.493  15.314 -0.1577 -0.1041 -0.0172
  273DOPC   C1B 3197   3.575   3.999  13.967  0.1088  0.0101  0.1955
  273DOPC   D2B 3198   3.493   3.665  14.238  0.0085 -0.0831  0.0437
  273DOPC   C3B 3199   3.226   3.534  14.583  0.1826 -0.2994  0.1265
  273DOPC   C4B 3200   3.168   3.134  14.538 -0.1740 -0.3329 -0.0476
  274DOPS   CNO 3201   2.892   0.776  11.939 -0.1631 -0.0681 -0.2419
  274DOPS   PO4 3202   2.879   0.911  12.327  0.1868 -0.2974 -0.2837
  274DOPS   GL1 3203   2.750   0.807  12.757 -0.0328  0.1361 -0.3420
  274DOPS   GL2 3204   2.935   0.793  12.944 -0.0397  0.0454  0.0571
  274DOPS   C1A 3205   2.418   0.843  13.031  0.3871  0.1304 -0.2134
  274DOPS   D2A 3206   2.051   0.717  13.328  0.0715  0.3336 -0.1390
  274DOPS   C3A 3207   1.873   0.898  13.705 -0.1861  0.0577 -0.1649
  274DOPS   C4A 3208   1.776   0.644  14.128 -0.2666 -0.0935 -0.2938
  274DOPS   C1B 3209   2.713   0.410  13.127 -0.0007 -0.0731  0.4093
  274DOPS   D2B 3210   2.437   0.199  13.452  0.1628  0.1730  0.1166
  274DOPS   C3B 3211   2.456  -0.021  13.879  0.0061 -0.3533 -0.0464
  274DOPS   C4B 3212   2.631  -0.225  14.242 -0.0956  0.0582  0.0393
  275DOPC   NC3 3213   2.141   4.722  13.028 -0.0475 -0.0548 -0.0254
  275DOPC   PO4 3214   2.344   5.036  13.083  0.0212  0.2028 -0.0497
  275DOPC   GL1 3215   2.043   5.315  13.168  0.1593  0.3155 -0.0350
  275DOPC   GL2 3216   1.872   5.077  13.263  0.2102  0.2493 -0.1272
  275DOPC   C1A 3217   1.772   5.552  13.460 -0.2359 -0.0695  0.0162
  275DOPC   D2A 3218   1.476   5.505  13.808  0.2054  0.2978  0.3605
  275DOPC   C3A 3219   1.351   5.146  14.100  0.0949 -0.2249 -0.0678
  275DOPC   C4A 3220   1.112   5.132  14.532 -0.3172 -0.1777  0.0547
  275DOPC   C1B 3221   1.874   5.127  13.700  0.0418  0.1960  0.2900
  275DOPC   D2B 3222   1.843   4.887  14.102 -0.1774 -0.1477  0.0101
  275DOPC   C3B 3223   1.523   4.676  14.365  0.0248 -0.0784 -0.3258
  275DOPC   C4B 3224   1.389   4.336  14.649  0.2053  0.0792  0.0663
  276DOPC   NC3 3225   3.881  34.491  10.799 -0.1294  0.1394  0.1660
  276DOPC   PO4 3226   3.565  34.479  10.584 -0.0031 -0.1513 -0.1805
  276DOPC   GL1 3227   3.234  34.393  10.791  0.1711 -0.3423  0.1439
  276DOPC   GL2 3228   3.386  34.305  11.012 -0.1371 -0.2265  0.4069
  276DOPC   C1A 3229   2.822  34.425  10.955 -0.1585 -0.2501 -0.0697
  276DOPC   D2A 3230   2.535  34.599  11.253 -0.1055  0.2671 -0.4080
  276DOPC   C3A 3231   2.108  34.482  11.404  0.3379 -0.1474  0.1806
  276DOPC   C4A 3232   1.700  34.142  11.482  0.1524  0.1644  0.2961
  276DOPC   C1B 3233   3.064  34.253  11.343 -0.0975 -0.0110  0.0533
  276DOPC   D2B 3234   2.613  34.084  11.266  0.1808  0.1143 -0.1250
  276DOPC   C3B 3235   2.291  34.202  10.982  0.0195  0.1799  0.0675
  276DOPC   C4B 3236   1.979  33.839  11.114  0.0999 -0.0319 -0.2892
  277DOPE   NH3 3237   6.735   1.991  13.178  0.0825  0.2497  0.1778
  277DOPE   PO4 3238   6.657   2.192  13.415  0.1460  0.1708 -0.1248
  277DOPE   GL1 3239   6.668   2.091  13.724 -0.1245  0.3229 -0.4036
  277DOPE   GL2 3240   6.598   2.285  13.984  0.1316 -0.1545 -0.0089
  277DOPE   C1A 3241   6.736   1.763  14.066 -0.0765  0.0179  0.1112
  277DOPE   D2A 3242   6.847   1.743  14.497 -0.0180  0.3207 -0.1694
  277DOPE   C3A 3243   6.538   1.466  14.714 -0.0040 -0.0060 -0.0836
  277DOPE   C4A 3244   6.433   1.015  14.674  0.1631  0.0584  0.3081
  277DOPE   C1B 3245   6.416   2.606  14.269 -0.0709 -0.1666 -0.0791
  277DOPE   D2B 3246   6.131   2.923  14.510 -0.1208  0.0280 -0.0468
  277DOPE   C3B 3247   6.463   3.226  14.610  0.1232 -0.0193  0.1057
  277DOPE   C4B 3248   6.509   3.702  14.711 -0.0700 -0.2077 -0.1385
  278DOPC   NC3 3249   3.789   0.387  11.612  0.0351 -0.0605  0.1732
  278DOPC   PO4 3250   3.658   0.393  11.205 -0.2456 -0.0630 -0.0657
  278DOPC   GL1 3251   3.673   0.027  11.261 -0.1405 -0.0006 -0.1484
  278DOPC   GL2 3252   3.905  -0.037  11.407  0.2101 -0.0243  0.0699
  278DOPC   C1A 3253   3.526  -0.333  11.543 -0.0873 -0.0273 -0.2828
  278DOPC   D2A 3254   3.204  -0.629  11.638 -0.4540  0.1961  0.3275
  278DOPC   C3A 3255   2.793  -0.843  11.407 -0.0666 -0.0335 -0.2890
  278DOPC   C4A 3256   2.369  -0.873  11.456 -0.2003 -0.2757  0.4670
  278DOPC   C1B 3257   3.837  -0.448  11.171 -0.1409  0.1243  0.2512
  278DOPC   D2B 3258   3.600  -0.842  11.425 -0.0977 -0.2431 -0.0364
  278DOPC   C3B 3259   3.281  -1.118  11.168 -0.0541 -0.0817  0.1798
  278DOPC   C4B 3260   3.168  -1.462  10.868 -0.0415 -0.0759 -0.2179
  279DOPC   NC3 3261   7.891  11.908  11.338 -0.2109  0.0608  0.0553
  279DOPC   PO4 3262   7.922  11.487  11.302 -0.0814 -0.3010  0.1679
  279DOPC   GL1 3263   7.857  11.385  11.683  0.3417 -0.1244  0.1522
  279DOPC   GL2 3264   8.031  11.588  11.778  0.1035  0.0920 -0.0653
  279DOPC   C1A 3265   7.505  11.411  11.989  0.0506 -0.1380  0.0106
  279DOPC   D2A 3266   7.313  11.276  12.347 -0.2064 -0.2800 -0.0656
  279DOPC   C3A 3267   7.616  11.425  12.663  0.1385 -0.0889 -0.1767
  279DOPC   C4A 3268   7.877  11.345  13.048  0.2037 -0.0309 -0.0347
  279DOPC   C1B 3269   8.333  11.581  12.108 -0.3009  0.1616 -0.1054
  279DOPC   D2B 3270   8.549  11.730  12.454  0.0368  0.0236  0.0286
  279DOPC   C3B 3271   8.522  12.156  12.604 -0.2583  0.1297  0.1971
  279DOPC   C4B 3272   8.404  12.605  12.661  0.2895 -0.0068 -0.2073
  280POSM   NC3 3273   4.453  10.063  11.841 -0.1855 -0.1844  0.2484
  280POSM   PO4 3274   4.778  10.257  11.900  0.1563  0.0804  0.2475
  280POSM   AM1 3275   4.802  10.143  12.210  0.0728 -0.0437  0.1815
  280POSM   AM2 3276   4.566  10.020  12.374  0.1157  0.0952 -0.1281
  280POSM   T1A 3277   5.031   9.890  12.587  0.3147  0.0241  0.0192
  280POSM   C2A 3278   5.282   9.657  12.889  0.3124 -0.1980 -0.2233
  280POSM   C3A 3279   5.636   9.818  13.177  0.0261 -0.1885  0.1466
  280POSM   C1B 3280   4.458  10.176  12.679 -0.3191 -0.0823  0.3020
  280POSM   D2B 3281   4.333  10.289  13.115  0.2415 -0.0066 -0.0698
  280POSM   C3B 3282   4.303  10.155  13.544 -0.0731  0.2496  0.1614
  280POSM   C4B 3283   4.124  10.026  13.952 -0.0281 -0.1427 -0.0108
  281DOPE   NH3 3284   4.601   3.407  13.341  0.0978  0.5592 -0.0052
  281DOPE   PO4 3285   4.312   3.418  13.315  0.0811  0.1088  0.1601
  281DOPE   GL1 3286   4.245   3.257  13.737 -0.3235 -0.0764  0.2705
  281DOPE   GL2 3287   4.407   3.409  13.812 -0.0501  0.2552  0.4532
  281DOPE   C1A 3288   3.940   3.104  14.022  0.0329 -0.1607  0.1045
  281DOPE   D2A 3289   3.585   3.199  14.332 -0.3377  0.0654 -0.0013
  281DOPE   C3A 3290   3.545   2.838  14.678 -0.1790 -0.0387  0.0101
  281DOPE   C4A 3291   3.370   2.570  15.021  0.3836  0.0977  0.2376
  281DOPE   C1B 3292   4.543   3.074  14.108  0.0677  0.0764  0.2438
  281DOPE   D2B 3293   4.699   3.241  14.528 -0.1265  0.2745  0.4669
  281DOPE   C3B 3294   4.400   3.105  14.885  0.2445  0.4111 -0.2461
  281DOPE   C4B 3295   4.246   2.730  15.170 -0.0430  0.2273 -0.3308
  282DOPS   CNO 3296   4.098   1.977  12.771  0.1622  0.0846  0.3264
  282DOPS   PO4 3297   3.763   2.161  12.784  0.1406  0.3029  0.3242
  282DOPS   GL1 3298   3.405   2.226  13.052  0.0176  0.1916  0.1843
  282DOPS   GL2 3299   3.636   2.192  13.280 -0.1496  0.1556 -0.2786
  282DOPS   C1A 3300   3.026   2.278  12.884  0.0666 -0.1402  0.0397
  282DOPS   D2A 3301   2.602   2.327  12.995 -0.0724  0.0454  0.1512
  282DOPS   C3A 3302   2.353   2.749  13.028 -0.3376  0.0323  0.0826
  282DOPS   C4A 3303   2.207   3.175  13.212 -0.2102  0.3460  0.0446
  282DOPS   C1B 3304   3.534   2.239  13.763  0.0034 -0.1527 -0.3510
  282DOPS   D2B 3305   3.339   2.183  14.176 -0.0121 -0.2504  0.0406
  282DOPS   C3B 3306   3.030   1.972  14.470  0.0458 -0.1789 -0.0021
  282DOPS   C4B 3307   2.576   2.019  14.600  0.1930  0.0995 -0.1611
  283DOPC   NC3 3308   3.381  10.743  11.960 -0.1198 -0.2697 -0.1285
  283DOPC   PO4 3309   3.175  10.499  11.744 -0.0068  0.0295  0.0434
  283DOPC   GL1 3310   3.242  10.340  12.085 -0.1717 -0.3477  0.0794
  283DOPC   GL2 3311   3.486  10.303  12.313  0.0366  0.2495 -0.0960
  283DOPC   C1A 3312   3.119   9.936  12.361 -0.0376  0.2800  0.0620
  283DOPC   D2A 3313   3.382   9.963  12.710 -0.2391 -0.2848  0.1674
  283DOPC   C3A 3314   3.347  10.372  12.973 -0.2431 -0.3654  0.1056
  283DOPC   C4A 3315   3.412  10.643  13.305 -0.0454 -0.1005  0.0316
  283DOPC   C1B 3316   3.376  10.652  12.528 -0.1762  0.0927 -0.0736
  283DOPC   D2B 3317   3.380  10.911  12.895 -0.1083  0.0208 -0.0252
  283DOPC   C3B 3318   3.764  11.032  13.084  0.2047 -0.0724  0.0075
  283DOPC   C4B 3319   4.085  11.101  13.389  0.0817 -0.2391 -0.0682
  284DOPE   NH3 3320  34.244   3.427  12.600 -0.4131 -0.1153  0.0706
  284DOPE   PO4 3321  34.174   3.761  12.542  0.1969  0.1351 -0.0496
  284DOPE   GL1 3322  34.180   3.639  12.977  0.0116 -0.1649 -0.2791
  284DOPE   GL2 3323  33.879   3.521  12.929 -0.5335 -0.0267 -0.3811
  284DOPE   C1A 3324  34.427   3.915  13.238  0.0688  0.3103  0.0381
  284DOPE   D2A 3325  34.309   4.352  13.421 -0.0488  0.2694  0.2997
  284DOPE   C3A 3326  34.315   4.398  13.856  0.0007  0.1081  0.0172
  284DOPE   C4A 3327  34.343   4.105  14.230  0.1957  0.2286  0.0768
  284DOPE   C1B 3328  33.871   3.797  13.312 -0.3817  0.3792  0.1347
  284DOPE   D2B 3329  34.085   3.990  13.705  0.1537 -0.0029  0.0851
  284DOPE   C3B 3330  33.802   3.958  14.064 -0.1884 -0.0201 -0.3077
  284DOPE   C4B 3331  33.468   4.168  14.303  0.0066 -0.3298 -0.0224
  285DOPE   NH3 3332   3.927   5.754  13.414  0.1185  0.0481  0.1477
  285DOPE   PO4 3333   4.078   6.034  13.394  0.1135  0.2553 -0.5759
  285DOPE   GL1 3334   4.213   6.039  13.726 -0.2543 -0.0902  0.3947
  285DOPE   GL2 3335   4.290   5.729  13.812  0.0676  0.0230 -0.1412
  285DOPE   C1A 3336   4.442   6.037  14.131 -0.0856 -0.0437  0.2427
  285DOPE   D2A 3337   4.755   6.067  14.474 -0.0656 -0.1249  0.0866
  285DOPE   C3A 3338   4.802   6.153  14.905  0.1812 -0.0563 -0.0508
  285DOPE   C4A 3339   5.024   6.520  15.019 -0.3046  0.0607 -0.2199
  285DOPE   C1B 3340   3.983   5.729  14.188  0.0799  0.4344 -0.1833
  285DOPE   D2B 3341   3.762   5.629  14.573 -0.0483 -0.0974 -0.1982
  285DOPE   C3B 3342   3.827   5.791  14.999 -0.0322 -0.1267  0.0189
  285DOPE   C4B 3343   4.009   5.927  15.398  0.0672  0.0238  0.2413
  286POSM   NC3 3344   7.580   4.152  13.447 -0.5341 -0.1384  0.0431
  286POSM   PO4 3345   7.833   4.215  13.765 -0.0898 -0.1049  0.0028
  286POSM   AM1 3346   7.817   4.122  14.079 -0.3192 -0.0390  0.4859
  286POSM   AM2 3347   7.968   3.915  14.209  0.1292  0.0561  0.2902
  286POSM   T1A 3348   7.675   4.149  14.532 -0.0181  0.1186  0.2840
  286POSM   C2A 3349   7.460   4.097  14.885 -0.0530  0.2617 -0.2947
  286POSM   C3A 3350   7.273   4.057  15.286  0.1849 -0.2435  0.0114
  286POSM   C1B 3351   8.059   3.793  14.501 -0.1856  0.0560 -0.1080
  286POSM   D2B 3352   8.082   3.767  14.925  0.0425 -0.0444  0.2617
  286POSM   C3B 3353   8.494   3.896  15.197 -0.0396  0.4159 -0.1497
  286POSM   C4B 3354   8.768   4.238  15.230  0.1878  0.2854  0.0321
  287POSM   NC3 3355   8.972   8.992  12.134  0.0006 -0.0562 -0.0257
  287POSM   PO4 3356   9.099   9.268  11.904  0.1648  0.0430  0.0354
  287POSM   AM1 3357   8.904   9.499  12.060  0.0787 -0.1217 -0.0744
  287POSM   AM2 3358   8.729   9.505  12.287  0.0496  0.1635 -0.0369
  287POSM   T1A 3359   8.966   9.984  12.176  0.0985 -0.3557  0.1975
  287POSM   C2A 3360   9.096  10.277  12.475  0.1475  0.2399 -0.0669
  287POSM   C3A 3361   8.998  10.467  12.844  0.2160  0.0935 -0.2748
  287POSM   C1B 3362   8.930   9.621  12.507 -0.0187 -0.3718  0.4240
  287POSM   D2B 3363   8.922   9.946  12.872 -0.1574  0.1647  0.2555
  287POSM   C3B 3364   9.219   9.873  13.254 -0.2421 -0.1723  0.1147
  287POSM   C4B 3365   9.449  10.227  13.512 -0.1498 -0.0281  0.2360
  288DOPC   NC3 3366   0.519   5.286  12.405  0.2873 -0.0131 -0.0507
  288DOPC   PO4 3367   0.900   5.166  12.386 -0.1560 -0.1823 -0.0024
  288DOPC   GL1 3368   0.784   5.172  12.796 -0.1548  0.3788 -0.0801
  288DOPC   GL2 3369   0.541   5.030  12.820 -0.0920  0.2501  0.1498
  288DOPC   C1A 3370   0.710   5.405  13.227  0.0510  0.0863 -0.0537
  288DOPC   D2A 3371   0.988   5.611  13.578 -0.1799 -0.3145  0.1723
  288DOPC   C3A 3372   0.821   5.595  13.996  0.3534  0.1714 -0.0429
  288DOPC   C4A 3373   0.429   5.452  14.111  0.0259 -0.3607  0.1412
  288DOPC   C1B 3374   0.288   5.034  13.217  0.2070  0.0235 -0.1644
  288DOPC   D2B 3375   0.220   4.877  13.669  0.0900  0.1378 -0.0783
  288DOPC   C3B 3376   0.029   5.107  14.031 -0.0412 -0.0396  0.0928
  288DOPC   C4B 3377  -0.063   5.518  14.170  0.0801 -0.0499  0.1826
  289DOPC   NC3 3378   3.840   9.773  11.560 -0.5351 -0.2459 -0.0813
  289DOPC   PO4 3379   3.747   9.594  11.894 -0.0690 -0.1412  0.0563
  289DOPC   GL1 3380   4.022   9.645  12.122 -0.0529  0.0504  0.1544
  289DOPC   GL2 3381   4.011   9.962  12.112  0.2302  0.2916  0.0280
  289DOPC   C1A 3382   3.843   9.752  12.566  0.3108 -0.3846  0.0463
  289DOPC   D2A 3383   3.777   9.896  12.966 -0.2249  0.2102  0.1375
  289DOPC   C3A 3384   3.773   9.676  13.315 -0.0312 -0.1521  0.4742
  289DOPC   C4A 3385   3.706   9.765  13.760 -0.3638 -0.1426  0.0279
  289DOPC   C1B 3386   3.966  10.256  12.503  0.0797 -0.1881  0.0276
  289DOPC   D2B 3387   3.788  10.555  12.787  0.0483  0.3234 -0.1290
  289DOPC   C3B 3388   3.906  10.578  13.258 -0.0072  0.2393 -0.1644
  289DOPC   C4B 3389   3.762  10.744  13.665  0.1279  0.2173  0.1837
  290DOPC   NC3 3390   5.291   5.947  13.116  0.1160 -0.0853  0.2921
  290DOPC   PO4 3391   5.165   6.054  13.446 -0.1978 -0.1045 -0.0161
  290DOPC   GL1 3392   5.055   6.032  13.744 -0.0493 -0.2454 -0.0654
  290DOPC   GL2 3393   5.043   5.753  13.868 -0.1325 -0.2443  0.1291
  290DOPC   C1A 3394   4.890   6.333  14.095 -0.2490  0.0796  0.0062
  290DOPC   D2A 3395   4.887   6.542  14.469 -0.1128 -0.1320 -0.0544
  290DOPC   C3A 3396   4.611   6.843  14.681  0.0010 -0.2029  0.0840
  290DOPC   C4A 3397   4.226   6.988  14.500  0.1992 -0.2720 -0.1292
  290DOPC   C1B 3398   4.718   5.530  14.135 -0.1538  0.1068  0.4068
  290DOPC   D2B 3399   4.381   5.607  14.412 -0.2369  0.0208 -0.0440
  290DOPC   C3B 3400   4.208   5.980  14.692 -0.1952  0.2600  0.2625
  290DOPC   C4B 3401   4.007   6.252  15.049 -0.1837 -0.0554 -0.3276
  291POSM   NC3 3402   3.905   3.037  12.977 -0.0687  0.0300 -0.0438
  291POSM   PO4 3403   3.752   2.685  12.904  0.0592 -0.1451  0.0074
  291POSM   AM1 3404   3.549   2.751  13.140  0.0723  0.1009  0.0685
  291POSM   AM2 3405   3.546   2.698  13.427  0.0091 -0.2440  0.2607
  291POSM   T1A 3406   3.086   2.652  13.176 -0.3472  0.0712  0.0262
  291POSM   C2A 3407   2.747   2.518  13.426 -0.0783  0.0540 -0.0701
  291POSM   C3A 3408   2.334   2.389  13.672 -0.1063  0.1201 -0.1966
  291POSM   C1B 3409   3.504   2.734  13.783  0.0978 -0.1376  0.1342
  291POSM   D2B 3410   3.362   2.714  14.189 -0.0184 -0.0789 -0.1315
  291POSM   C3B 3411   2.946   2.839  14.123 -0.0605  0.0276 -0.1010
  291POSM   C4B 3412   2.521   2.720  13.977 -0.1640  0.2634  0.3402
  292DOPC   NC3 3413   1.314  11.445  11.022 -0.2343  0.0402  0.1157
  292DOPC   PO4 3414   1.689  11.343  11.051 -0.2532  0.1193  0.1468
  292DOPC   GL1 3415   1.735  11.655  11.354  0.3434 -0.0233  0.0061
  292DOPC   GL2 3416   1.712  11.923  11.339  0.0780  0.2584  0.1398
  292DOPC   C1A 3417   1.492  11.553  11.701  0.0965 -0.1506  0.0908
  292DOPC   D2A 3418   1.239  11.441  12.065  0.2304 -0.0505  0.1878
  292DOPC   C3A 3419   1.313  11.555  12.515 -0.0543 -0.3517 -0.0511
  292DOPC   C4A 3420   1.226  11.695  12.937  0.1268  0.1413 -0.0380
  292DOPC   C1B 3421   1.758  12.139  11.712  0.0968  0.1652  0.1268
  292DOPC   D2B 3422   2.187  12.296  11.848  0.3394  0.0967  0.0457
  292DOPC   C3B 3423   2.283  12.309  12.268 -0.0386 -0.0014 -0.1119
  292DOPC   C4B 3424   2.452  12.037  12.602 -0.0455 -0.2004  0.0198
  293POSM   NC3 3425  11.623   6.181  12.097  0.1681 -0.0966  0.1677
  293POSM   PO4 3426  11.368   6.429  12.060  0.0263 -0.0547 -0.4314
  293POSM   AM1 3427  11.322   6.549  12.342 -0.0460 -0.3212 -0.1059
  293POSM   AM2 3428  11.088   6.571  12.494  0.4034  0.0568 -0.0572
  293POSM   T1A 3429  11.483   6.469  12.825 -0.3503 -0.0797  0.0024
  293POSM   C2A 3430  11.792   6.297  13.088  0.1862 -0.0392 -0.2989
  293POSM   C3A 3431  12.165   6.093  12.941 -0.2568  0.0664  0.3285
  293POSM   C1B 3432  11.009   6.404  12.841 -0.1337  0.3075  0.0295
  293POSM   D2B 3433  10.889   6.353  13.251  0.1176 -0.0880  0.2555
  293POSM   C3B 3434  10.588   6.425  13.576  0.3332 -0.0912 -0.0619
  293POSM   C4B 3435  10.427   6.291  13.984  0.1207  0.2187  0.0545
  294DOPS   CNO 3436   8.789   2.593  13.519  0.0506  0.0798 -0.0087
  294DOPS   PO4 3437   8.466   2.596  13.692  0.1598 -0.2711  0.5630
  294DOPS   GL1 3438   8.550   2.292  13.896  0.1223 -0.2639  0.2571
  294DOPS   GL2 3439   8.395   2.051  13.951 -0.0975 -0.1071  0.0587
  294DOPS   C1A 3440   8.770   2.171  14.321  0.1875 -0.2110 -0.2568
  294DOPS   D2A 3441   8.587   2.361  14.681  0.1166  0.5050 -0.4052
  294DOPS   C3A 3442   8.472   2.075  15.021 -0.0279  0.1257  0.0221
  294DOPS   C4A 3443   8.301   1.791  15.221  0.1372  0.2077  0.2407
  294DOPS   C1B 3444   8.453   1.850  14.261  0.0678  0.1906  0.0800
  294DOPS   D2B 3445   8.581   1.744  14.614 -0.0076  0.0128 -0.1375
  294DOPS   C3B 3446   8.913   1.908  14.869 -0.0558  0.4150  0.0234
  294DOPS   C4B 3447   9.041   2.088  15.211  0.1707  0.1942 -0.1781
  295DOPC   NC3 3448   3.268   3.807  12.968 -0.1070 -0.1121  0.4284
  295DOPC   PO4 3449   3.137   4.076  13.189 -0.1811 -0.1307  0.1229
  295DOPC   GL1 3450   2.924   3.993  13.582  0.1512  0.1407  0.1865
  295DOPC   GL2 3451   3.119   4.154  13.660 -0.0542  0.3635  0.0683
  295DOPC   C1A 3452   2.799   3.599  13.788 -0.0707  0.1899  0.2012
  295DOPC   D2A 3453   2.529   3.237  14.004  0.0554 -0.1794 -0.2232
  295DOPC   C3A 3454   2.179   3.216  14.326 -0.0785 -0.2175  0.2450
  295DOPC   C4A 3455   1.911   3.489  14.588 -0.0199  0.1569  0.4834
  295DOPC   C1B 3456   3.089   3.892  14.013 -0.0568  0.0539  0.2221
  295DOPC   D2B 3457   3.331   4.066  14.451 -0.3518 -0.0048  0.4507
  295DOPC   C3B 3458   3.195   3.931  14.858  0.0991 -0.0712  0.0865
  295DOPC   C4B 3459   3.408   3.836  15.260 -0.0914 -0.3571  0.1564
  296DOPS   CNO 3460   0.379  10.262  10.896 -0.0128 -0.2883  0.0902
  296DOPS   PO4 3461   0.142  10.157  11.178 -0.0887  0.2151 -0.0435
  296DOPS   GL1 3462  -0.176  10.349  11.457 -0.0929 -0.2309  0.4569
  296DOPS   GL2 3463  -0.461  10.505  11.377 -0.1549  0.1277 -0.1186
  296DOPS   C1A 3464  -0.188  10.110  11.904 -0.0666 -0.0319 -0.1224
  296DOPS   D2A 3465  -0.218  10.288  12.285  0.0397  0.0414  0.3877
  296DOPS   C3A 3466   0.078  10.307  12.648 -0.0419 -0.0434  0.2265
  296DOPS   C4A 3467   0.184  10.273  13.095  0.0108 -0.0313  0.0511
  296DOPS   C1B 3468  -0.576  10.367  11.839  0.0284  0.3438 -0.0369
  296DOPS   D2B 3469  -0.695  10.366  12.283 -0.0390 -0.1306 -0.0439
  296DOPS   C3B 3470  -0.438  10.595  12.602  0.1493  0.2426  0.1531
  296DOPS   C4B 3471  -0.311  10.554  13.056  0.0880  0.1334 -0.0617
  297DOPE   NH3 3472   3.699   7.893  12.839 -0.2437  0.1602  0.3062
  297DOPE   PO4 3473   3.973   7.829  13.034  0.2574  0.1001  0.1816
  297DOPE   GL1 3474   3.911   8.013  13.353  0.3340  0.1351 -0.0725
  297DOPE   GL2 3475   4.228   8.098  13.357  0.1344 -0.2403 -0.0347
  297DOPE   C1A 3476   3.721   8.220  13.707  0.4827  0.1189 -0.0642
  297DOPE   D2A 3477   3.374   8.455  13.893  0.1446 -0.0888 -0.2947
  297DOPE   C3A 3478   3.552   8.760  14.250 -0.2189  0.3230  0.2962
  297DOPE   C4A 3479   3.574   9.147  14.495 -0.0126 -0.2997 -0.2436
  297DOPE   C1B 3480   4.076   7.892  13.737 -0.1459 -0.0924 -0.0136
  297DOPE   D2B 3481   3.938   7.501  13.933  0.1870 -0.0391  0.0987
  297DOPE   C3B 3482   4.001   7.403  14.402 -0.1741  0.1409 -0.0332
  297DOPE   C4B 3483   4.278   7.546  14.680  0.6174  0.1110  0.0874
  298DOPE   NH3 3484   9.378   4.009  13.498 -0.0020  0.1449  0.0235
  298DOPE   PO4 3485   9.640   4.202  13.484 -0.2518  0.3212 -0.0901
  298DOPE   GL1 3486   9.757   4.188  13.814 -0.0275 -0.1039 -0.1585
  298DOPE   GL2 3487   9.592   4.414  13.926  0.0097 -0.3913  0.3054
  298DOPE   C1A 3488  10.141   4.288  14.099 -0.1971  0.2359 -0.0073
  298DOPE   D2A 3489  10.254   4.580  14.425 -0.2775  0.1228 -0.0350
  298DOPE   C3A 3490  10.703   4.574  14.221 -0.2232 -0.2053 -0.2480
  298DOPE   C4A 3491  11.077   4.692  13.936  0.1194 -0.1887 -0.0694
  298DOPE   C1B 3492   9.677   4.330  14.376 -0.0041  0.4086  0.0027
  298DOPE   D2B 3493   9.722   4.259  14.810  0.1117  0.0637 -0.3426
  298DOPE   C3B 3494   9.757   3.746  14.898 -0.1565 -0.0582 -0.3019
  298DOPE   C4B 3495   9.726   3.364  15.154  0.1037  0.0655 -0.0900
  299DOPE   NH3 3496   4.972   4.186  13.247  0.2718 -0.3609  0.0880
  299DOPE   PO4 3497   4.863   3.892  13.189 -0.2890 -0.1239 -0.3243
  299DOPE   GL1 3498   4.945   3.590  13.588  0.4912  0.2689 -0.0791
  299DOPE   GL2 3499   5.200   3.681  13.530  0.1249  0.2838  0.1048
  299DOPE   C1A 3500   4.900   3.170  13.736 -0.0889  0.1122  0.1012
  299DOPE   D2A 3501   4.919   2.687  13.788 -0.2199 -0.2191  0.0554
  299DOPE   C3A 3502   4.607   2.375  13.943  0.3630  0.0201 -0.4282
  299DOPE   C4A 3503   4.316   2.268  14.275 -0.1591 -0.1824  0.0211
  299DOPE   C1B 3504   5.198   3.566  13.954 -0.0681  0.0441 -0.0351
  299DOPE   D2B 3505   4.781   3.565  14.156 -0.4973 -0.0373  0.0169
  299DOPE   C3B 3506   4.550   3.970  14.142 -0.0072  0.0366  0.0466
  299DOPE   C4B 3507   4.434   4.372  14.346  0.0595 -0.0206 -0.2418
  300DOPC   NC3 3508   7.065   0.727  13.866 -0.2561  0.1069  0.1067
  300DOPC   PO4 3509   6.794   0.541  13.644 -0.0648  0.0915  0.0267
  300DOPC   GL1 3510   6.562   0.597  13.983  0.3275  0.2434 -0.1495
  300DOPC   GL2 3511   6.549   0.864  13.902  0.3049  0.1786 -0.1513
  300DOPC   C1A 3512   6.780   0.757  14.356  0.1397 -0.2321 -0.0445
  300DOPC   D2A 3513   6.946   1.090  14.620 -0.4956  0.1339  0.1062
  300DOPC   C3A 3514   6.772   1.136  15.053  0.2475  0.1883  0.0445
  300DOPC   C4A 3515   6.909   1.200  15.493  0.2930 -0.2064  0.0168
  300DOPC   C1B 3516   6.184   0.821  14.160 -0.0651  0.1978 -0.3023
  300DOPC   D2B 3517   5.929   0.824  14.537  0.0970  0.1823  0.2021
  300DOPC   C3B 3518   5.531   0.685  14.813 -0.4908  0.0676 -0.2965
  300DOPC   C4B 3519   5.119   0.818  14.981 -0.3080 -0.4949  0.0337
  301DOPS   CNO 3520   8.435   6.768  13.111 -0.3322 -0.0937 -0.0895
  301DOPS   PO4 3521   8.247   7.104  13.151  0.0953  0.1324 -0.3404
  301DOPS   GL1 3522   8.359   7.129  13.460 -0.0066  0.0496 -0.3391
  301DOPS   GL2 3523   8.286   7.314  13.636  0.3459 -0.1264 -0.0139
  301DOPS   C1A 3524   8.494   6.973  13.903 -0.0930  0.0546 -0.1542
  301DOPS   D2A 3525   8.541   6.912  14.363 -0.0813 -0.3132 -0.1398
  301DOPS   C3A 3526   8.910   6.845  14.581  0.0455 -0.1265 -0.0103
  301DOPS   C4A 3527   9.145   6.843  15.027  0.1393  0.1899 -0.0642
  301DOPS   C1B 3528   8.454   7.487  14.049  0.4369  0.2882 -0.1472
  301DOPS   D2B 3529   8.580   7.869  14.282 -0.0019  0.1373 -0.2282
  301DOPS   C3B 3530   8.295   8.215  14.195  0.0127  0.1436 -0.1372
  301DOPS   C4B 3531   8.039   8.486  13.933 -0.0599  0.0394  0.1366
  302DOPS   CNO 3532   6.207   8.850  13.189  0.0103  0.1953  0.0342
  302DOPS   PO4 3533   6.041   8.669  12.932  0.0509 -0.2238 -0.2493
  302DOPS   GL1 3534   5.787   8.673  13.180 -0.2821  0.4711 -0.2246
  302DOPS   GL2 3535   5.664   8.991  13.175 -0.4369 -0.0159 -0.0690
  302DOPS   C1A 3536   5.863   8.832  13.635  0.2459 -0.0049 -0.1506
  302DOPS   D2A 3537   6.077   8.985  14.025  0.0074 -0.1460 -0.0961
  302DOPS   C3A 3538   6.305   9.014  14.425 -0.0168 -0.0251 -0.2869
  302DOPS   C4A 3539   6.086   9.133  14.833  0.0833 -0.2217  0.4041
  302DOPS   C1B 3540   5.339   9.155  13.474  0.1984 -0.0396 -0.3275
  302DOPS   D2B 3541   5.030   9.344  13.825  0.3843 -0.1959 -0.0769
  302DOPS   C3B 3542   4.863   9.603  14.215  0.1369  0.2137 -0.3117
  302DOPS   C4B 3543   4.602   9.605  14.629  0.2090  0.1571  0.3410
  303DOPC   NC3 3544   7.834   8.864  12.701 -0.2289 -0.0863  0.2303
  303DOPC   PO4 3545   7.448   8.896  12.637 -0.3600 -0.0431  0.0935
  303DOPC   GL1 3546   7.499   9.273  12.869 -0.2297 -0.0961  0.1140
  303DOPC   GL2 3547   7.486   9.039  13.092  0.0923  0.2938 -0.0506
  303DOPC   C1A 3548   7.188   9.604  12.982 -0.0210  0.0856 -0.3474
  303DOPC   D2A 3549   6.902   9.880  13.288  0.1854  0.0654 -0.0486
  303DOPC   C3A 3550   7.165  10.048  13.661 -0.2457 -0.0444 -0.0560
  303DOPC   C4A 3551   7.443  10.129  14.106  0.1138 -0.0129 -0.1470
  303DOPC   C1B 3552   7.958   9.203  13.095  0.1218  0.0367 -0.0961
  303DOPC   D2B 3553   8.280   9.577  13.226 -0.0011  0.0725 -0.3290
  303DOPC   C3B 3554   8.107   9.947  13.444 -0.1780 -0.0662 -0.0199
  303DOPC   C4B 3555   7.678   9.922  13.667  0.0853  0.0054 -0.0558
  304DOPS   CNO 3556   3.977   4.357  13.279  0.0512  0.4355 -0.0969
  304DOPS   PO4 3557   3.925   4.622  13.553 -0.1990  0.2374 -0.2993
  304DOPS   GL1 3558   3.716   4.651  13.931  0.3763  0.0233  0.4392
  304DOPS   GL2 3559   3.970   4.535  14.123 -0.2078 -0.1889 -0.2014
  304DOPS   C1A 3560   3.312   4.458  14.064  0.3422 -0.0164  0.1886
  304DOPS   D2A 3561   2.874   4.357  14.249 -0.0382 -0.2174 -0.1353
  304DOPS   C3A 3562   2.873   4.427  14.722  0.2476 -0.3212 -0.0524
  304DOPS   C4A 3563   3.028   4.305  15.122  0.1811  0.1528 -0.4502
  304DOPS   C1B 3564   3.696   4.395  14.432  0.1582  0.1743  0.0029
  304DOPS   D2B 3565   3.407   4.462  14.805 -0.0217  0.1552 -0.3120
  304DOPS   C3B 3566   3.379   4.860  14.959  0.1263 -0.0994  0.0671
  304DOPS   C4B 3567   3.484   4.953  15.464  0.1528  0.0595 -0.0501
  305DOPS   CNO 3568   2.538   7.297  13.265  0.0964  0.1599  0.0916
  305DOPS   PO4 3569   2.209   7.172  13.086 -0.0967  0.0951 -0.0285
  305DOPS   GL1 3570   1.858   7.468  13.199  0.2524 -0.0132  0.3177
  305DOPS   GL2 3571   1.950   7.492  13.408  0.1187 -0.0425  0.0273
  305DOPS   C1A 3572   1.610   7.845  13.421  0.1344  0.0404 -0.0957
  305DOPS   D2A 3573   1.498   8.065  13.774  0.0014  0.0023 -0.0406
  305DOPS   C3A 3574   1.145   7.900  14.046  0.0061 -0.0171 -0.1482
  305DOPS   C4A 3575   0.980   7.670  14.400 -0.1991 -0.0037 -0.3006
  305DOPS   C1B 3576   1.692   7.423  13.785 -0.1350  0.4823 -0.0538
  305DOPS   D2B 3577   1.331   7.364  14.032 -0.0054 -0.0920  0.0128
  305DOPS   C3B 3578   1.144   6.959  13.938 -0.1053 -0.3109 -0.0976
  305DOPS   C4B 3579   1.341   6.623  13.816  0.0499  0.0648 -0.0874
  306DOPC   NC3 3580   1.630   7.815  12.343  0.0009 -0.2583 -0.1739
  306DOPC   PO4 3581   1.680   8.156  12.462 -0.1560  0.1046  0.0860
  306DOPC   GL1 3582   1.483   8.367  12.616  0.2119 -0.3446  0.1352
  306DOPC   GL2 3583   1.704   8.473  12.898  0.0851 -0.2872 -0.0783
  306DOPC   C1A 3584   1.211   8.308  13.020  0.2090  0.1379 -0.4146
  306DOPC   D2A 3585   0.871   8.534  13.210 -0.0561  0.0160  0.1556
  306DOPC   C3A 3586   0.849   8.714  13.654 -0.2043  0.1786  0.0062
  306DOPC   C4A 3587   1.160   8.971  13.950 -0.0985 -0.1169 -0.0416
  306DOPC   C1B 3588   1.878   8.712  13.194 -0.1937 -0.0511  0.0414
  306DOPC   D2B 3589   2.076   8.812  13.617 -0.6022  0.1824  0.0082
  306DOPC   C3B 3590   1.982   8.434  13.869  0.0991  0.1834 -0.1584
  306DOPC   C4B 3591   1.696   8.276  14.194 -0.2115 -0.2780  0.0124
  307DOPE   NH3 3592  10.238   0.690  13.048 -0.2204  0.1606 -0.0768
  307DOPE   PO4 3593   9.935   0.656  13.163 -0.0584 -0.3552 -0.1751
  307DOPE   GL1 3594  10.089   0.826  13.479  0.1562  0.2688 -0.2816
  307DOPE   GL2 3595   9.917   0.787  13.744  0.1447 -0.1383 -0.2250
  307DOPE   C1A 3596  10.352   0.759  13.888 -0.3283 -0.0890 -0.2365
  307DOPE   D2A 3597  10.119   0.662  14.260 -0.3156 -0.0995  0.1732
  307DOPE   C3A 3598   9.959   0.310  14.525  0.0709  0.2226 -0.0136
  307DOPE   C4A 3599  10.050  -0.060  14.777 -0.0812  0.1156  0.0044
  307DOPE   C1B 3600   9.877   0.331  13.965  0.3592  0.0718  0.3226
  307DOPE   D2B 3601   9.533   0.143  14.137 -0.0761 -0.0677 -0.0342
  307DOPE   C3B 3602   9.600  -0.064  14.570 -0.0238  0.1503  0.1088
  307DOPE   C4B 3603   9.641  -0.253  15.004  0.0343 -0.2032 -0.1497
  308DOPE   NH3 3604  33.690  13.047   9.955  0.2800  0.0884  0.0352
  308DOPE   PO4 3605  33.718  12.824  10.175 -0.0842 -0.3712  0.0958
  308DOPE   GL1 3606  33.512  12.890  10.509  0.1080 -0.4414 -0.3715
  308DOPE   GL2 3607  33.696  12.858  10.682 -0.1361 -0.4738  0.1668
  308DOPE   C1A 3608  33.213  12.663  10.752 -0.1672 -0.1765  0.1999
  308DOPE   D2A 3609  32.955  12.461  11.081  0.1585 -0.2394 -0.1616
  308DOPE   C3A 3610  33.090  12.481  11.517 -0.2341  0.3048  0.0366
  308DOPE   C4A 3611  33.121  12.217  11.900  0.1160  0.1510  0.0610
  308DOPE   C1B 3612  33.641  12.465  10.889  0.1404 -0.0864 -0.1379
  308DOPE   D2B 3613  33.384  12.233  11.169  0.3327 -0.0249  0.1422
  308DOPE   C3B 3614  33.586  12.016  11.477 -0.0450  0.0812 -0.3201
  308DOPE   C4B 3615  33.640  11.949  11.930  0.0283  0.6379  0.0120
  309POSM   NC3 3616   5.603   1.484  13.537 -0.3535 -0.0369 -0.0145
  309POSM   PO4 3617   5.899   1.750  13.425  0.3616  0.1661  0.0679
  309POSM   AM1 3618   5.962   1.698  13.751 -0.0943  0.1539  0.1679
  309POSM   AM2 3619   5.832   1.600  13.988  0.0894 -0.0377  0.3846
  309POSM   T1A 3620   6.271   1.872  14.048 -0.1624  0.1228  0.1101
  309POSM   C2A 3621   6.365   1.943  14.523  0.3332 -0.1894 -0.0368
  309POSM   C3A 3622   6.587   1.993  14.902  0.0742  0.0448  0.3342
  309POSM   C1B 3623   5.811   1.699  14.287  0.0588  0.1587 -0.0974
  309POSM   D2B 3624   5.860   1.846  14.727 -0.0463  0.0340  0.0974
  309POSM   C3B 3625   6.118   2.057  15.028  0.3920 -0.0630  0.1119
  309POSM   C4B 3626   6.142   2.360  15.378  0.0093 -0.0710 -0.1341
  310DOPS   CNO 3627   7.915   9.626  11.932  0.2205 -0.1998  0.0581
  310DOPS   PO4 3628   7.652   9.794  11.717 -0.2339  0.6081 -0.1220
  310DOPS   GL1 3629   7.676  10.121  11.823  0.0136  0.2974 -0.0157
  310DOPS   GL2 3630   7.868  10.143  12.092  0.0138  0.0655  0.1102
  310DOPS   C1A 3631   7.410  10.455  12.008  0.1082 -0.0231 -0.4841
  310DOPS   D2A 3632   7.144  10.704  12.336  0.0001  0.0085  0.0127
  310DOPS   C3A 3633   7.255  10.909  12.749  0.0600 -0.1105 -0.2322
  310DOPS   C4A 3634   7.052  10.992  13.197  0.0296  0.1930 -0.0049
  310DOPS   C1B 3635   8.343  10.224  12.146  0.0466  0.0045 -0.1076
  310DOPS   D2B 3636   8.649  10.492  12.375 -0.0746 -0.0287  0.0074
  310DOPS   C3B 3637   8.542  10.250  12.780  0.1904  0.1870 -0.2020
  310DOPS   C4B 3638   8.589   9.973  13.191  0.1933  0.1759 -0.4382
  311DOPC   NC3 3639   9.587   1.122  13.548 -0.2120 -0.1104  0.0473
  311DOPC   PO4 3640   9.298   1.369  13.510 -0.1232  0.1660 -0.0122
  311DOPC   GL1 3641   9.316   1.068  13.915 -0.2348 -0.0703 -0.1061
  311DOPC   GL2 3642   9.491   1.122  14.199 -0.1650  0.2304  0.3014
  311DOPC   C1A 3643   8.974   0.761  14.051 -0.0983 -0.1962 -0.2270
  311DOPC   D2A 3644   8.516   0.766  14.209  0.2469 -0.1029  0.0846
  311DOPC   C3A 3645   8.467   0.842  14.668  0.0632 -0.0162 -0.0124
  311DOPC   C4A 3646   8.182   1.162  14.875  0.3014  0.0692  0.2050
  311DOPC   C1B 3647   9.653   1.004  14.615 -0.0590 -0.2918 -0.0296
  311DOPC   D2B 3648   9.719   1.333  14.983 -0.1118  0.2202  0.0181
  311DOPC   C3B 3649  10.005   1.455  15.295  0.0138  0.0592 -0.1198
  311DOPC   C4B 3650  10.201   1.856  15.476  0.0040  0.1776  0.2633
  312DOPE   NH3 3651   1.033   4.184  12.457 -0.0947 -0.1618  0.2669
  312DOPE   PO4 3652   1.103   3.880  12.488  0.0540  0.1348 -0.0068
  312DOPE   GL1 3653   1.170   3.930  12.891 -0.5411  0.1891  0.1448
  312DOPE   GL2 3654   1.105   3.698  13.010 -0.0350  0.1449  0.0094
  312DOPE   C1A 3655   1.570   3.855  13.182  0.0907  0.1334  0.1507
  312DOPE   D2A 3656   2.090   3.810  13.227 -0.1226 -0.3759  0.0121
  312DOPE   C3A 3657   2.241   3.477  13.574  0.0053  0.0423  0.0934
  312DOPE   C4A 3658   1.978   3.287  13.909 -0.0438 -0.0774 -0.0707
  312DOPE   C1B 3659   0.803   3.742  13.322 -0.2005 -0.0531  0.0859
  312DOPE   D2B 3660   0.858   4.192  13.486  0.1167  0.2023 -0.1741
  312DOPE   C3B 3661   0.650   4.147  13.888  0.0296  0.0838 -0.0517
  312DOPE   C4B 3662   0.717   4.276  14.326 -0.0095 -0.1761 -0.0577
  313DOPS   CNO 3663   7.060   2.447  13.109  0.2334 -0.0004 -0.1031
  313DOPS   PO4 3664   7.164   2.254  13.456  0.0756  0.1244 -0.0634
  313DOPS   GL1 3665   7.196   2.063  13.690  0.0486 -0.0248  0.1044
  313DOPS   GL2 3666   7.031   1.830  13.719 -0.1514 -0.4728 -0.1644
  313DOPS   C1A 3667   7.136   2.260  14.140 -0.0685  0.3115 -0.1159
  313DOPS   D2A 3668   6.843   2.286  14.500 -0.0287  0.0484  0.1166
  313DOPS   C3A 3669   6.772   2.439  14.942  0.1381  0.0799  0.0747
  313DOPS   C4A 3670   7.080   2.493  15.276 -0.2273 -0.4680 -0.2290
  313DOPS   C1B 3671   7.219   1.740  14.170 -0.2033  0.0814 -0.0374
  313DOPS   D2B 3672   7.336   2.080  14.532  0.1680 -0.1759  0.1825
  313DOPS   C3B 3673   7.121   2.032  14.961 -0.0946 -0.0714  0.0461
  313DOPS   C4B 3674   6.865   2.070  15.396  0.1223 -0.0358  0.2317
  314DOPS   CNO 3675   8.040   9.143  11.971 -0.0640 -0.1419  0.4340
  314DOPS   PO4 3676   8.108   8.959  12.293  0.2413  0.0063  0.2364
  314DOPS   GL1 3677   8.287   9.087  12.533 -0.2524  0.0580  0.2555
  314DOPS   GL2 3678   8.544   9.001  12.495 -0.2846  0.0791 -0.3356
  314DOPS   C1A 3679   8.442   9.164  12.972  0.2566  0.0141 -0.1422
  314DOPS   D2A 3680   8.452   9.227  13.484 -0.1870 -0.0893  0.0191
  314DOPS   C3A 3681   8.485   9.651  13.644 -0.0949 -0.0908 -0.2772
  314DOPS   C4A 3682   8.633   9.998  13.986 -0.1272 -0.1905 -0.1579
  314DOPS   C1B 3683   8.913   9.167  12.772 -0.0101 -0.0376  0.1561
  314DOPS   D2B 3684   9.298   8.891  12.881  0.0057  0.0298 -0.2167
  314DOPS   C3B 3685   9.150   8.596  13.193 -0.0930  0.1028  0.0733
  314DOPS   C4B 3686   8.821   8.355  13.429  0.1388  0.3058  0.2445
  315DOPE   NH3 3687   0.718   9.276  11.903  0.3088 -0.0181 -0.1834
  315DOPE   PO4 3688   0.695   8.947  11.906  0.0481  0.0814  0.0546
  315DOPE   GL1 3689   0.600   9.040  12.327  0.5639 -0.1254  0.1438
  315DOPE   GL2 3690   0.845   9.134  12.352  0.0602  0.0902  0.0110
  315DOPE   C1A 3691   0.378   9.217  12.713  0.4243 -0.2352  0.0479
  315DOPE   D2A 3692   0.011   9.487  12.904 -0.1862  0.1164 -0.0760
  315DOPE   C3A 3693  -0.432   9.600  12.960 -0.1181 -0.1182  0.3586
  315DOPE   C4A 3694  -0.583   9.938  13.175  0.1769  0.3095  0.1788
  315DOPE   C1B 3695   1.132   9.441  12.408  0.1627 -0.2078  0.1283
  315DOPE   D2B 3696   1.526   9.675  12.346  0.1307 -0.3286 -0.0383
  315DOPE   C3B 3697   1.705   9.886  12.703 -0.1424 -0.2047  0.0727
  315DOPE   C4B 3698   1.663  10.109  13.100 -0.1862  0.1551 -0.2072
  316DOPE   NH3 3699   3.953   5.013  13.220  0.1144 -0.0410 -0.0732
  316DOPE   PO4 3700   4.014   5.256  13.417  0.0413 -0.0566  0.0271
  316DOPE   GL1 3701   3.956   5.404  13.828  0.1640 -0.0066  0.0707
  316DOPE   GL2 3702   3.664   5.497  13.818 -0.0450 -0.1280  0.3377
  316DOPE   C1A 3703   3.785   5.201  14.211  0.3455  0.4135 -0.2730
  316DOPE   D2A 3704   3.750   5.057  14.634 -0.0396  0.2969  0.2146
  316DOPE   C3A 3705   4.018   4.995  14.997  0.0003 -0.2554  0.0896
  316DOPE   C4A 3706   4.255   5.093  15.388  0.0078 -0.1240  0.1332
  316DOPE   C1B 3707   3.437   5.524  14.242  0.1235  0.0186  0.0181
  316DOPE   D2B 3708   3.337   5.310  14.641  0.2416 -0.0190 -0.2258
  316DOPE   C3B 3709   3.591   5.294  15.034  0.1349 -0.0252  0.4033
  316DOPE   C4B 3710   3.785   5.300  15.399 -0.1053  0.0840 -0.0692
  317POSM   NC3 3711  10.826   1.171  13.059  0.2516 -0.0121 -0.0114
  317POSM   PO4 3712  10.746   0.779  12.962  0.0199 -0.0351 -0.2193
  317POSM   AM1 3713  10.816   0.733  13.270  0.0079  0.1035 -0.2024
  317POSM   AM2 3714  10.912   0.514  13.432  0.0774  0.0756 -0.0989
  317POSM   T1A 3715  10.841   0.794  13.801  0.0546 -0.0849  0.0574
  317POSM   C2A 3716  10.663   0.793  14.211  0.2956 -0.0582 -0.3615
  317POSM   C3A 3717  10.437   0.708  14.595  0.3516  0.2787  0.2341
  317POSM   C1B 3718  11.214   0.467  13.620 -0.0524 -0.1051  0.3122
  317POSM   D2B 3719  11.516   0.547  13.983 -0.1420  0.3543  0.0822
  317POSM   C3B 3720  11.509   0.942  14.116 -0.2405 -0.1252 -0.1016
  317POSM   C4B 3721  11.632   1.388  14.167 -0.1279 -0.0283 -0.0107
  318DOPC   NC3 3722   6.547   4.526  13.410  0.0072  0.1845 -0.0899
  318DOPC   PO4 3723   6.661   4.882  13.645  0.0041 -0.0637  0.2235
  318DOPC   GL1 3724   6.718   4.925  14.004  0.0296 -0.0781  0.1550
  318DOPC   GL2 3725   6.509   4.738  14.151 -0.1095  0.2012  0.2019
  318DOPC   C1A 3726   6.958   5.231  14.266  0.0815 -0.0304  0.1977
  318DOPC   D2A 3727   7.229   5.530  14.459  0.1116  0.1147 -0.1873
  318DOPC   C3A 3728   7.042   5.977  14.506  0.2162 -0.1486 -0.0619
  318DOPC   C4A 3729   6.691   6.197  14.685 -0.2021  0.1443 -0.2591
  318DOPC   C1B 3730   6.445   5.193  14.346 -0.1129  0.0739 -0.1094
  318DOPC   D2B 3731   6.106   5.419  14.650  0.2227 -0.0156 -0.2102
  318DOPC   C3B 3732   5.939   5.461  15.087  0.1935 -0.1605  0.2905
  318DOPC   C4B 3733   6.091   5.617  15.450  0.0941  0.0727  0.1814
  319DOPC   NC3 3734   3.568   6.166  13.451  0.2829  0.0003 -0.0497
  319DOPC   PO4 3735   3.432   5.874  13.199  0.0013  0.0129  0.0340
  319DOPC   GL1 3736   3.287   5.664  13.554 -0.0798 -0.0703 -0.3680
  319DOPC   GL2 3737   3.220   5.869  13.751 -0.1606  0.0182 -0.0990
  319DOPC   C1A 3738   3.112   5.376  13.902  0.0253  0.2367  0.1484
  319DOPC   D2A 3739   2.945   5.303  14.322  0.0484  0.2142 -0.1695
  319DOPC   C3A 3740   2.521   5.271  14.416 -0.1420  0.0442 -0.1891
  319DOPC   C4A 3741   2.120   5.508  14.617 -0.1189 -0.1033 -0.2229
  319DOPC   C1B 3742   2.879   6.214  13.765 -0.2588 -0.0445 -0.0781
  319DOPC   D2B 3743   2.860   6.678  13.884  0.1678  0.0473  0.1129
  319DOPC   C3B 3744   3.229   6.958  13.949 -0.1634  0.3590 -0.1106
  319DOPC   C4B 3745   3.633   7.137  14.086 -0.0971 -0.0971  0.1598
  320DOPE   NH3 3746   7.584  11.173  11.087 -0.1554 -0.1135 -0.0311
  320DOPE   PO4 3747   7.529  10.933  11.272  0.1156 -0.0279 -0.3075
  320DOPE   GL1 3748   7.374  11.041  11.601 -0.1712 -0.1877  0.3637
  320DOPE   GL2 3749   7.496  10.878  11.796 -0.0198 -0.1365 -0.1130
  320DOPE   C1A 3750   7.044  11.012  11.929 -0.0129 -0.2290 -0.4758
  320DOPE   D2A 3751   6.753  11.196  12.229 -0.0181  0.0970  0.0463
  320DOPE   C3A 3752   6.801  11.058  12.678 -0.1428  0.0927 -0.0536
  320DOPE   C4A 3753   6.858  10.635  12.806 -0.1885  0.1010  0.0983
  320DOPE   C1B 3754   7.620  10.868  12.199  0.0418 -0.0311 -0.0677
  320DOPE   D2B 3755   7.637  10.642  12.597 -0.0708  0.0863 -0.1356
  320DOPE   C3B 3756   7.717  10.869  12.947 -0.2183  0.1740  0.0592
  320DOPE   C4B 3757   7.646  10.862  13.373  0.0076 -0.4937  0.1000
  321POSM   NC3 3758   7.935  12.618  11.162 -0.0927  0.1031  0.2138
  321POSM   PO4 3759   8.113  12.264  11.120  0.1564 -0.1310 -0.3160
  321POSM   AM1 3760   8.380  12.132  11.284  0.0961 -0.1532 -0.2377
  321POSM   AM2 3761   8.407  11.872  11.386 -0.1693  0.1293  0.0042
  321POSM   T1A 3762   8.757  12.185  11.603  0.0657 -0.4096  0.0551
  321POSM   C2A 3763   9.032  12.491  11.873 -0.2130  0.1841  0.2827
  321POSM   C3A 3764   9.207  12.833  12.106  0.2653 -0.0451 -0.0116
  321POSM   C1B 3765   8.354  11.921  11.687  0.1109  0.0828  0.0895
  321POSM   D2B 3766   8.386  12.062  12.126  0.2609  0.1795  0.0427
  321POSM   C3B 3767   8.134  12.385  12.244  0.4443  0.3255 -0.0329
  321POSM   C4B 3768   8.180  12.866  12.247 -0.0314 -0.1411 -0.1966
  322DOPE   NH3 3769   8.309   4.166  13.662  0.1310 -0.1386  0.3148
  322DOPE   PO4 3770   8.331   3.898  13.834 -0.1455  0.2315 -0.1062
  322DOPE   GL1 3771   8.438   3.785  14.191  0.0229  0.0933 -0.2360
  322DOPE   GL2 3772   8.449   4.078  14.352 -0.1237  0.1293 -0.2502
  322DOPE   C1A 3773   8.436   3.518  14.562 -0.2275  0.2526 -0.0059
  322DOPE   D2A 3774   8.453   3.435  14.964 -0.1409 -0.3145  0.0108
  322DOPE   C3A 3775   8.761   3.243  15.182 -0.1201  0.4671  0.2388
  322DOPE   C4A 3776   8.947   2.942  15.409  0.3332  0.2821 -0.3270
  322DOPE   C1B 3777   8.560   4.571  14.327  0.4910 -0.2049 -0.2228
  322DOPE   D2B 3778   8.661   4.980  14.511  0.3621 -0.0935  0.1802
  322DOPE   C3B 3779   8.568   5.153  14.892 -0.2281 -0.0450 -0.0726
  322DOPE   C4B 3780   8.250   5.164  15.229  0.0895  0.1286 -0.1413
  323DOPC   NC3 3781   4.630   5.184  13.623  0.1695 -0.0032  0.0002
  323DOPC   PO4 3782   4.827   4.921  13.756  0.0106  0.1541  0.4643
  323DOPC   GL1 3783   4.757   5.040  14.176  0.1932  0.1506 -0.5572
  323DOPC   GL2 3784   4.514   5.117  14.161  0.0577  0.2426  0.2970
  323DOPC   C1A 3785   4.804   5.277  14.552 -0.0917  0.1246 -0.1015
  323DOPC   D2A 3786   4.736   5.658  14.792  0.2540 -0.0221 -0.2288
  323DOPC   C3A 3787   4.520   5.777  15.190 -0.0489  0.0476  0.0741
  323DOPC   C4A 3788   4.284   5.579  15.576 -0.0896  0.2623  0.0730
  323DOPC   C1B 3789   4.199   5.109  14.504 -0.2464 -0.0582 -0.0572
  323DOPC   D2B 3790   4.230   4.665  14.739 -0.2843 -0.1290 -0.1186
  323DOPC   C3B 3791   4.393   4.518  15.111 -0.0003  0.0182  0.0751
  323DOPC   C4B 3792   4.495   4.321  15.527 -0.0649  0.3238  0.0304
  324DOPS   CNO 3793   4.891  34.246  11.810 -0.0229  0.2199  0.0841
  324DOPS   PO4 3794   4.693  33.937  11.732 -0.2409  0.1106 -0.2591
  324DOPS   GL1 3795   4.356  33.852  11.844 -0.4699 -0.0318 -0.2830
  324DOPS   GL2 3796   4.452  33.753  12.127 -0.4733  0.0495  0.2285
  324DOPS   C1A 3797   3.963  33.961  11.744 -0.1528 -0.1026  0.1904
  324DOPS   D2A 3798   3.609  33.878  12.019 -0.0660 -0.2781 -0.0464
  324DOPS   C3A 3799   3.292  34.200  12.134 -0.1652  0.1304 -0.1396
  324DOPS   C4A 3800   3.007  34.480  11.925 -0.2599  0.3456 -0.2370
  324DOPS   C1B 3801   3.989  33.634  12.165 -0.0656 -0.2065  0.0764
  324DOPS   D2B 3802   3.734  33.359  12.476  0.1232  0.3563  0.2267
  324DOPS   C3B 3803   3.449  33.204  12.751 -0.0154  0.0623  0.1363
  324DOPS   C4B 3804   3.423  33.072  13.199 -0.1802 -0.2459 -0.3156
  325DOPE   NH3 3805   3.561   8.530  12.682  0.0557  0.1118 -0.0491
  325DOPE   PO4 3806   3.405   8.799  12.580  0.0454  0.1595 -0.0323
  325DOPE   GL1 3807   3.348   8.896  12.911  0.0035  0.0160  0.4292
  325DOPE   GL2 3808   3.169   8.638  12.982  0.3754  0.0094  0.1780
  325DOPE   C1A 3809   3.448   9.088  13.297 -0.2544 -0.2203 -0.1069
  325DOPE   D2A 3810   3.359   9.481  13.608  0.0493 -0.1411 -0.0761
  325DOPE   C3A 3811   3.260   9.155  13.908 -0.1942 -0.1845 -0.0229
  325DOPE   C4A 3812   2.988   8.800  13.982 -0.0111 -0.0220  0.2175
  325DOPE   C1B 3813   3.450   8.540  13.362  0.0748 -0.2145  0.0653
  325DOPE   D2B 3814   3.572   8.834  13.699 -0.1619 -0.1786  0.3503
  325DOPE   C3B 3815   3.714   9.099  13.955 -0.4110 -0.2107 -0.1405
  325DOPE   C4B 3816   3.684   9.520  14.163  0.1705 -0.0944  0.1122
  326DOPE   NH3 3817   2.891   5.060  13.062 -0.1468 -0.1780  0.1676
  326DOPE   PO4 3818   2.776   4.852  13.303  0.0786  0.0887  0.3948
  326DOPE   GL1 3819   2.477   5.023  13.545 -0.3054 -0.0550  0.1192
  326DOPE   GL2 3820   2.269   4.851  13.705 -0.3379  0.3027 -0.5691
  326DOPE   C1A 3821   2.636   4.961  14.004  0.0694  0.1927 -0.1881
  326DOPE   D2A 3822   2.550   4.696  14.393  0.0941  0.0609  0.1028
  326DOPE   C3A 3823   2.366   4.627  14.829  0.1775 -0.0245  0.0029
  326DOPE   C4A 3824   2.282   4.338  15.211  0.0590 -0.0243 -0.1851
  326DOPE   C1B 3825   2.263   5.251  13.986  0.2554  0.4040  0.1001
  326DOPE   D2B 3826   2.341   5.715  14.084  0.0263 -0.2713 -0.0996
  326DOPE   C3B 3827   2.452   5.914  14.480  0.0662 -0.0421  0.1242
  326DOPE   C4B 3828   2.901   6.068  14.664  0.2374  0.0327  0.1045
  327DOPS   CNO 3829   9.574  11.906  10.401 -0.0974  0.0012  0.1203
  327DOPS   PO4 3830   9.305  11.644  10.556  0.0672 -0.3922 -0.0768
  327DOPS   GL1 3831   9.443  11.708  10.908  0.0347  0.2206 -0.2799
  327DOPS   GL2 3832   9.281  11.887  11.068 -0.1213  0.0738 -0.0101
  327DOPS   C1A 3833   9.451  11.504  11.323  0.0834  0.0603 -0.0197
  327DOPS   D2A 3834   9.166  11.338  11.641 -0.2166 -0.1397  0.0640
  327DOPS   C3A 3835   9.360  11.222  12.072  0.0802  0.0108 -0.0442
  327DOPS   C4A 3836   9.692  11.408  12.366  0.0809 -0.0539 -0.1572
  327DOPS   C1B 3837   9.266  12.258  11.318 -0.3304 -0.3159 -0.2777
  327DOPS   D2B 3838   9.434  12.622  11.555 -0.0529  0.3303  0.2550
  327DOPS   C3B 3839   9.799  12.794  11.756 -0.0227  0.0554 -0.1723
  327DOPS   C4B 3840  10.269  12.926  11.850 -0.2249 -0.0046 -0.1679
  328DOPE   NH3 3841  10.968   3.218  12.668  0.0090 -0.4248  0.0636
  328DOPE   PO4 3842  11.119   3.120  12.942 -0.1907  0.1805 -0.2222
  328DOPE   GL1 3843  11.441   3.195  13.131 -0.1354 -0.1574 -0.1718
  328DOPE   GL2 3844  11.499   2.984  13.331 -0.1172  0.0034 -0.0920
  328DOPE   C1A 3845  11.667   3.562  13.331  0.0427 -0.0042  0.0351
  328DOPE   D2A 3846  11.758   3.652  13.771  0.0786 -0.0845 -0.0348
  328DOPE   C3A 3847  11.935   3.362  14.116 -0.2040 -0.2380 -0.0678
  328DOPE   C4A 3848  11.828   2.981  14.315 -0.0631  0.0480  0.0283
  328DOPE   C1B 3849  11.877   3.122  13.516  0.1333  0.1044  0.1789
  328DOPE   D2B 3850  12.238   2.997  13.799  0.3879 -0.1112 -0.1128
  328DOPE   C3B 3851  11.992   2.626  13.968 -0.2813 -0.0638  0.0906
  328DOPE   C4B 3852  11.859   2.221  13.819  0.0045  0.2257 -0.1073
  329DOPS   CNO 3853   7.604  34.063  12.973 -0.1293  0.1529 -0.0695
  329DOPS   PO4 3854   7.853  33.823  12.807  0.1303 -0.2039  0.0816
  329DOPS   GL1 3855   7.978  33.603  13.212 -0.2001  0.2090 -0.0625
  329DOPS   GL2 3856   7.720  33.648  13.258 -0.3522  0.0376  0.5337
  329DOPS   C1A 3857   7.811  33.273  13.528 -0.2216 -0.1392  0.0528
  329DOPS   D2A 3858   7.534  33.063  13.868  0.2484 -0.2550  0.0425
  329DOPS   C3A 3859   7.671  32.722  14.125  0.0924 -0.1917  0.0433
  329DOPS   C4A 3860   7.779  32.510  14.496 -0.2109 -0.0726 -0.1095
  329DOPS   C1B 3861   7.313  33.564  13.563  0.3737  0.0005  0.0882
  329DOPS   D2B 3862   7.153  33.597  14.013  0.0650 -0.2050  0.0359
  329DOPS   C3B 3863   7.229  33.778  14.463 -0.2738  0.0263  0.1066
  329DOPS   C4B 3864   7.112  33.766  14.865  0.1579 -0.0914 -0.1026
  330DOPS   CNO 3865  11.308   0.858  12.654  0.3737 -0.0420  0.0312
  330DOPS   PO4 3866  11.574   1.015  12.880 -0.0547 -0.0688 -0.1176
  330DOPS   GL1 3867  11.672   0.823  13.195  0.2654 -0.4073  0.1899
  330DOPS   GL2 3868  11.826   1.004  13.309  0.3091  0.1786  0.1403
  330DOPS   C1A 3869  11.518   0.853  13.637 -0.1759 -0.0446  0.0020
  330DOPS   D2A 3870  11.772   1.181  13.762 -0.0574 -0.0125 -0.2924
  330DOPS   C3A 3871  12.081   1.216  14.054  0.1779  0.1895  0.1184
  330DOPS   C4A 3872  12.264   0.996  14.434 -0.4156  0.4186  0.2910
  330DOPS   C1B 3873  12.011   0.772  13.667  0.0322  0.2568 -0.0262
  330DOPS   D2B 3874  12.035   0.665  14.102 -0.2337 -0.2005  0.5685
  330DOPS   C3B 3875  11.744   0.659  14.433 -0.0940 -0.0358 -0.0997
  330DOPS   C4B 3876  11.498   0.342  14.696  0.2769  0.2116  0.2373
  331DOPC   NC3 3877   4.128   0.784  13.324 -0.2465  0.4978  0.1163
  331DOPC   PO4 3878   4.101   1.155  13.233  0.4091  0.5156 -0.1243
  331DOPC   GL1 3879   3.895   1.101  13.558 -0.0122 -0.2037  0.2718
  331DOPC   GL2 3880   4.118   1.272  13.712 -0.0482 -0.1391  0.1961
  331DOPC   C1A 3881   3.611   1.288  13.886  0.2149 -0.2865  0.2834
  331DOPC   D2A 3882   3.594   1.427  14.310  0.0946 -0.0475 -0.1786
  331DOPC   C3A 3883   3.966   1.553  14.588 -0.2159  0.1832  0.0188
  331DOPC   C4A 3884   4.333   1.813  14.519  0.0105 -0.3187 -0.0349
  331DOPC   C1B 3885   3.928   0.868  13.905  0.1894 -0.0606 -0.3208
  331DOPC   D2B 3886   3.750   0.493  13.620 -0.2384  0.2480  0.1990
  331DOPC   C3B 3887   3.385   0.307  13.806  0.2819 -0.1024 -0.0842
  331DOPC   C4B 3888   3.068   0.051  14.018  0.0579  0.0976 -0.1724
  332DOPC   NC3 3889   7.912   5.733  13.534 -0.0457 -0.1522 -0.1424
  332DOPC   PO4 3890   7.896   6.100  13.432 -0.1271 -0.2236  0.3256
  332DOPC   GL1 3891   7.974   6.274  13.788 -0.1822  0.1878 -0.1066
  332DOPC   GL2 3892   7.673   6.142  13.963  0.0647  0.1370 -0.1837
  332DOPC   C1A 3893   8.136   6.575  14.133  0.1654  0.1869  0.2066
  332DOPC   D2A 3894   8.066   6.904  14.443  0.1600 -0.2229 -0.0417
  332DOPC   C3A 3895   7.935   6.883  14.863  0.2511 -0.0930 -0.1599
  332DOPC   C4A 3896   7.636   7.199  15.125 -0.0854 -0.0010 -0.1226
  332DOPC   C1B 3897   7.728   6.391  14.310  0.1484 -0.0432 -0.0169
  332DOPC   D2B 3898   7.900   6.306  14.669  0.0530 -0.2779 -0.0954
  332DOPC   C3B 3899   8.274   6.493  14.799  0.1457 -0.1800  0.0046
  332DOPC   C4B 3900   8.633   6.478  14.468 -0.1261 -0.0429  0.0622
  333DOPE   NH3 3901   5.863   4.028  13.784 -0.0994 -0.3151 -0.0146
  333DOPE   PO4 3902   5.955   3.732  13.747 -0.6510 -0.0683  0.2279
  333DOPE   GL1 3903   6.004   3.604  14.118 -0.0444  0.2513 -0.2964
  333DOPE   GL2 3904   5.728   3.652  14.204  0.0353  0.2487 -0.0021
  333DOPE   C1A 3905   5.951   3.390  14.555 -0.1060 -0.2396  0.2060
  333DOPE   D2A 3906   6.033   3.264  14.975  0.0150 -0.0971 -0.3806
  333DOPE   C3A 3907   6.434   3.326  15.173  0.1452  0.2461 -0.2288
  333DOPE   C4A 3908   6.770   3.404  14.932  0.2722  0.2059  0.0429
  333DOPE   C1B 3909   5.648   3.769  14.634 -0.2684  0.0213  0.3551
  333DOPE   D2B 3910   5.474   3.790  15.044  0.1788 -0.1741  0.1660
  333DOPE   C3B 3911   5.668   3.518  15.339 -0.0781 -0.0810 -0.1988
  333DOPE   C4B 3912   6.007   3.306  15.529 -0.1225  0.4286  0.0806
  334DOPC   NC3 3913   8.602  11.341  11.007 -0.0368 -0.0097 -0.1348
  334DOPC   PO4 3914   8.398  11.260  11.339 -0.2439 -0.4239 -0.0273
  334DOPC   GL1 3915   8.414  11.136  11.579  0.4235  0.0891 -0.2851
  334DOPC   GL2 3916   8.729  11.126  11.653  0.0451  0.0856 -0.0696
  334DOPC   C1A 3917   8.173  11.142  11.968 -0.0267  0.1118 -0.2883
  334DOPC   D2A 3918   7.918  11.361  12.253  0.2241 -0.0479 -0.3752
  334DOPC   C3A 3919   8.125  11.486  12.641  0.2394  0.0721  0.1550
  334DOPC   C4A 3920   8.470  11.346  12.889 -0.0287 -0.1327 -0.0272
  334DOPC   C1B 3921   8.889  11.287  12.093 -0.1340  0.1809 -0.1568
  334DOPC   D2B 3922   9.016  11.513  12.446 -0.0342  0.0187 -0.0992
  334DOPC   C3B 3923   8.957  11.453  12.913  0.0140 -0.1840  0.0500
  334DOPC   C4B 3924   9.185  11.756  13.150  0.0295  0.0993 -0.2273
  335POSM   NC3 3925   6.287   0.495  13.643  0.1899 -0.2723  0.3430
  335POSM   PO4 3926   6.322   0.882  13.495 -0.1014 -0.1377 -0.1519
  335POSM   AM1 3927   6.096   0.947  13.717  0.2121  0.2147  0.3587
  335POSM   AM2 3928   5.958   1.109  13.840  0.1268  0.0745 -0.1468
  335POSM   T1A 3929   5.789   0.652  13.975  0.0326  0.1096  0.2315
  335POSM   C2A 3930   5.698   0.395  14.323 -0.0023 -0.0508 -0.0877
  335POSM   C3A 3931   5.922   0.039  14.530  0.0762  0.1408 -0.1223
  335POSM   C1B 3932   5.807   1.110  14.174  0.1199  0.1785 -0.2969
  335POSM   D2B 3933   5.517   1.110  14.567 -0.1441 -0.2450 -0.1380
  335POSM   C3B 3934   5.596   1.103  15.048 -0.2646 -0.1195  0.2094
  335POSM   C4B 3935   5.562   0.846  15.425 -0.0551 -0.2440 -0.0317
  336DOPC   NC3 3936   1.417  10.354  10.759  0.2788  0.1703 -0.0502
  336DOPC   PO4 3937   1.376  10.716  10.912 -0.2463 -0.0741 -0.1067
  336DOPC   GL1 3938   1.398  10.836  11.297 -0.1844 -0.2327 -0.1980
  336DOPC   GL2 3939   1.595  10.827  11.498 -0.1632  0.3631 -0.0309
  336DOPC   C1A 3940   1.195  11.172  11.535 -0.3630  0.3690 -0.2349
  336DOPC   D2A 3941   0.912  11.524  11.546  0.0959  0.0173 -0.1079
  336DOPC   C3A 3942   0.731  11.601  11.989 -0.0734  0.0864 -0.1357
  336DOPC   C4A 3943   0.497  11.842  12.256 -0.0582 -0.0159 -0.0805
  336DOPC   C1B 3944   1.502  10.910  11.931  0.0397 -0.0852 -0.0848
  336DOPC   D2B 3945   1.514  11.111  12.376 -0.4294 -0.0871  0.0848
  336DOPC   C3B 3946   1.851  11.205  12.715 -0.0349  0.2416  0.2624
  336DOPC   C4B 3947   2.319  11.340  12.804  0.3166 -0.0185 -0.0019
  337DOPC   NC3 3948   4.231   9.052  12.569  0.1109  0.0334 -0.2895
  337DOPC   PO4 3949   3.985   8.760  12.521 -0.2442 -0.0526 -0.1888
  337DOPC   GL1 3950   3.786   8.989  12.738 -0.2803  0.0523  0.2694
  337DOPC   GL2 3951   3.785   8.835  12.997 -0.1365 -0.0268  0.0122
  337DOPC   C1A 3952   3.648   9.396  12.875 -0.1291  0.0356 -0.1252
  337DOPC   D2A 3953   3.275   9.620  13.114  0.0783 -0.3320  0.2150
  337DOPC   C3A 3954   3.419  10.028  13.322  0.0278  0.1062 -0.2006
  337DOPC   C4A 3955   3.780  10.252  13.567  0.1680  0.0291  0.0146
  337DOPC   C1B 3956   3.960   8.658  13.393  0.3575  0.1907  0.0375
  337DOPC   D2B 3957   4.022   8.655  13.817  0.0984  0.2217  0.3183
  337DOPC   C3B 3958   3.993   8.447  14.210 -0.2018 -0.2585 -0.0508
  337DOPC   C4B 3959   4.289   8.451  14.522  0.1537 -0.0781 -0.2523
  338DOPE   NH3 3960   2.217  11.282  11.058 -0.0995 -0.1199 -0.0892
  338DOPE   PO4 3961   2.379  11.003  11.179 -0.2935 -0.2928 -0.1005
  338DOPE   GL1 3962   1.966  11.098  11.477 -0.2481  0.3573  0.0334
  338DOPE   GL2 3963   2.069  11.405  11.529  0.0727  0.3171  0.1407
  338DOPE   C1A 3964   1.951  11.138  11.928  0.1079 -0.0735 -0.0709
  338DOPE   D2A 3965   2.130  11.034  12.301  0.0140 -0.1329 -0.1402
  338DOPE   C3A 3966   2.398  10.841  12.550 -0.0684  0.4446 -0.1138
  338DOPE   C4A 3967   2.424  10.786  13.011  0.0893 -0.1233 -0.0056
  338DOPE   C1B 3968   2.367  11.344  11.850  0.1112  0.0325  0.0886
  338DOPE   D2B 3969   2.719  11.159  12.009  0.5364  0.0645 -0.0461
  338DOPE   C3B 3970   2.699  11.286  12.440 -0.0036  0.5108 -0.0221
  338DOPE   C4B 3971   2.814  11.050  12.846  0.3551  0.0698  0.1114
  339DOPE   NH3 3972   0.556  11.357  11.120 -0.1726 -0.0250  0.1863
  339DOPE   PO4 3973   0.836  11.494  11.026 -0.1285 -0.1204  0.1687
  339DOPE   GL1 3974   0.615  11.771  11.322  0.4249  0.0393 -0.4750
  339DOPE   GL2 3975   0.732  12.057  11.381 -0.0244  0.1904 -0.0708
  339DOPE   C1A 3976   0.411  11.495  11.640  0.2195 -0.0316 -0.1322
  339DOPE   D2A 3977   0.375  11.193  11.956  0.0270  0.1121 -0.0297
  339DOPE   C3A 3978   0.002  11.217  12.235 -0.1536 -0.2624 -0.0014
  339DOPE   C4A 3979  -0.354  11.269  12.506 -0.3324 -0.3399 -0.1046
  339DOPE   C1B 3980   0.451  12.041  11.744  0.0686 -0.0280 -0.1134
  339DOPE   D2B 3981   0.233  12.304  12.050 -0.0222  0.2005 -0.1270
  339DOPE   C3B 3982  -0.144  12.512  12.012 -0.0522  0.1782  0.3663
  339DOPE   C4B 3983  -0.144  12.968  12.038 -0.2740  0.1779  0.2706
  340DOPC   NC3 3984  32.596   7.110  11.693 -0.3064  0.1784 -0.0970
  340DOPC   PO4 3985  32.767   6.786  11.875  0.0573  0.2794 -0.3388
  340DOPC   GL1 3986  32.578   6.801  12.297 -0.1376 -0.2853  0.4324
  340DOPC   GL2 3987  32.435   7.017  12.197 -0.1639 -0.2815  0.0030
  340DOPC   C1A 3988  32.735   6.877  12.746  0.0183  0.0465  0.1518
  340DOPC   D2A 3989  32.607   7.075  13.151 -0.1376  0.3450  0.2156
  340DOPC   C3A 3990  32.322   6.823  13.366  0.1489 -0.0033 -0.0472
  340DOPC   C4A 3991  32.294   6.841  13.882 -0.4700  0.0515 -0.0904
  340DOPC   C1B 3992  32.180   7.274  12.429  0.3103 -0.0023  0.1989
  340DOPC   D2B 3993  31.884   7.640  12.587 -0.1872  0.3959 -0.4252
  340DOPC   C3B 3994  31.525   7.501  12.867  0.1649  0.0797 -0.2211
  340DOPC   C4B 3995  31.350   7.185  13.159 -0.2328  0.2357  0.3850
  341DOPE   NH3 3996   7.630   4.620  13.614  0.1764  0.2049  0.2800
  341DOPE   PO4 3997   7.483   4.888  13.684  0.2806 -0.1119 -0.0763
  341DOPE   GL1 3998   7.581   4.939  14.037  0.0293  0.5003  0.0491
  341DOPE   GL2 3999   7.424   5.119  14.177  0.1706 -0.0640  0.1200
  341DOPE   C1A 4000   7.823   4.624  14.328  0.0710  0.0532 -0.0183
  341DOPE   D2A 4001   8.111   4.436  14.552 -0.1818 -0.0532  0.0557
  341DOPE   C3A 4002   8.244   4.731  14.790  0.2826  0.0199  0.0061
  341DOPE   C4A 4003   8.596   4.689  15.101  0.3898 -0.2792 -0.5644
  341DOPE   C1B 4004   7.467   5.036  14.601  0.2253  0.1725 -0.1491
  341DOPE   D2B 4005   7.240   4.892  15.020  0.0857 -0.0256  0.1112
  341DOPE   C3B 4006   6.932   5.038  15.335  0.0343 -0.0120  0.0670
  341DOPE   C4B 4007   6.499   5.051  15.532 -0.1702 -0.0542 -0.0113
  342DOPS   CNO 4008   5.632   9.280  11.634 -0.1811  0.0326 -0.1076
  342DOPS   PO4 4009   5.484   9.598  11.807  0.0935 -0.1133  0.1392
  342DOPS   GL1 4010   5.639   9.954  12.180 -0.0030  0.0914  0.0735
  342DOPS   GL2 4011   5.948   9.993  12.306 -0.0223 -0.0482 -0.0688
  342DOPS   C1A 4012   5.445  10.144  12.580  0.1880 -0.2355  0.3761
  342DOPS   D2A 4013   5.425  10.249  13.021  0.0259 -0.0309 -0.2466
  342DOPS   C3A 4014   5.304  10.702  13.162  0.1851  0.3253  0.0472
  342DOPS   C4A 4015   5.431  11.065  13.408 -0.4931 -0.1418 -0.1187
  342DOPS   C1B 4016   5.991  10.170  12.758  0.1146  0.2650  0.0096
  342DOPS   D2B 4017   5.909  10.244  13.191 -0.1106 -0.1273 -0.0111
  342DOPS   C3B 4018   5.716  10.152  13.633 -0.0973  0.2274  0.0959
  342DOPS   C4B 4019   5.788  10.002  14.102  0.2122 -0.2193  0.0689
  343DOPC   NC3 4020   2.971  10.439  11.268  0.1648  0.2730 -0.1258
  343DOPC   PO4 4021   2.649  10.544  11.485  0.1458 -0.2831 -0.0008
  343DOPC   GL1 4022   2.720  10.728  11.783  0.1425 -0.3412 -0.2766
  343DOPC   GL2 4023   2.461  10.695  11.965  0.0458  0.3150  0.1332
  343DOPC   C1A 4024   2.880  10.783  12.237  0.0479 -0.1038  0.2349
  343DOPC   D2A 4025   2.805  10.553  12.621 -0.1777  0.4279 -0.1483
  343DOPC   C3A 4026   2.932  10.610  13.071  0.0728  0.0152 -0.2018
  343DOPC   C4A 4027   2.964  10.266  13.394  0.0132  0.1010 -0.1659
  343DOPC   C1B 4028   2.308  10.455  12.285  0.2124 -0.0939 -0.0706
  343DOPC   D2B 4029   2.204  10.319  12.670 -0.2265 -0.5781  0.0547
  343DOPC   C3B 4030   2.516  10.298  13.024  0.1477 -0.1994  0.2133
  343DOPC   C4B 4031   2.484  10.409  13.419  0.2496 -0.2913 -0.2252
  344POSM   NC3 4032   7.075   5.086  13.495  0.3383  0.1935  0.0314
  344POSM   PO4 4033   7.398   5.281  13.378 -0.3222  0.0824 -0.0957
  344POSM   AM1 4034   7.581   5.408  13.640 -0.1076 -0.3553 -0.0196
  344POSM   AM2 4035   7.781   5.329  13.784 -0.3772 -0.0157 -0.0489
  344POSM   T1A 4036   7.595   5.669  14.083  0.2520 -0.1775  0.2019
  344POSM   C2A 4037   7.527   5.941  14.514 -0.2105  0.2201 -0.2514
  344POSM   C3A 4038   7.535   5.756  14.969  0.1366 -0.0609  0.0456
  344POSM   C1B 4039   7.953   5.243  14.064 -0.0466  0.2324 -0.1184
  344POSM   D2B 4040   7.981   5.074  14.511  0.0476  0.0947  0.0774
  344POSM   C3B 4041   8.114   5.445  14.841  0.1902  0.1250 -0.4101
  344POSM   C4B 4042   8.201   5.789  15.113  0.0227 -0.1009 -0.0712
  345DOPC   NC3 4043   1.165   5.834  12.645  0.1585 -0.2568 -0.0524
  345DOPC   PO4 4044   0.792   5.727  12.528  0.3040 -0.2000  0.1667
  345DOPC   GL1 4045   0.396   5.782  12.663  0.1622 -0.0644  0.0131
  345DOPC   GL2 4046   0.291   5.536  12.813 -0.1466 -0.2596 -0.2019
  345DOPC   C1A 4047   0.420   5.870  13.104  0.0833  0.2196  0.0521
  345DOPC   D2A 4048   0.484   5.780  13.580  0.3930  0.1338 -0.3581
  345DOPC   C3A 4049   0.501   5.280  13.636 -0.0330  0.0797  0.1850
  345DOPC   C4A 4050   0.876   5.104  13.901 -0.0225  0.0045  0.0390
  345DOPC   C1B 4051   0.137   5.502  13.282 -0.0622 -0.1209  0.1696
  345DOPC   D2B 4052  -0.081   5.481  13.654 -0.1917  0.2277  0.1280
  345DOPC   C3B 4053  -0.475   5.430  13.848  0.2603 -0.3394  0.2519
  345DOPC   C4B 4054  -0.590   5.681  14.200  0.3229  0.1657 -0.1322
  346POSM   NC3 4055   5.443   7.544  12.489 -0.0649 -0.0852  0.0904
  346POSM   PO4 4056   5.293   7.767  12.787  0.3101 -0.1047 -0.0842
  346POSM   AM1 4057   5.288   7.909  13.076  0.0432 -0.1065 -0.0357
  346POSM   AM2 4058   5.204   8.127  13.193 -0.1998 -0.3383  0.0316
  346POSM   T1A 4059   5.671   7.884  13.457 -0.2920 -0.1439 -0.2962
  346POSM   C2A 4060   5.741   7.577  13.808  0.0461  0.0038  0.2467
  346POSM   C3A 4061   6.035   7.441  14.134 -0.0957 -0.0751  0.0761
  346POSM   C1B 4062   5.156   8.083  13.563  0.0277 -0.0409 -0.1082
  346POSM   D2B 4063   5.160   7.824  13.845 -0.0146 -0.0554  0.0710
  346POSM   C3B 4064   5.275   7.805  14.289 -0.1346 -0.1258 -0.4338
  346POSM   C4B 4065   5.152   7.717  14.687 -0.1715  0.2859 -0.2374
  347DOPE   NH3 4066   0.828   6.887  12.221  0.0022 -0.0537 -0.3818
  347DOPE   PO4 4067   0.984   7.080  12.426  0.3770 -0.0350  0.0418
  347DOPE   GL1 4068   0.847   7.300  12.710  0.3172  0.0659 -0.1319
  347DOPE   GL2 4069   1.078   7.539  12.805 -0.0307  0.1613  0.0093
  347DOPE   C1A 4070   0.905   7.057  13.116  0.2540  0.0389  0.1146
  347DOPE   D2A 4071   1.056   6.821  13.448 -0.1136 -0.0701  0.0359
  347DOPE   C3A 4072   0.796   6.617  13.771  0.0299 -0.0497  0.0126
  347DOPE   C4A 4073   0.335   6.548  13.789  0.1610  0.1807 -0.0364
  347DOPE   C1B 4074   1.089   7.769  13.186  0.0300 -0.0775 -0.1690
  347DOPE   D2B 4075   1.073   8.125  13.514 -0.0852  0.0458 -0.0179
  347DOPE   C3B 4076   0.679   8.217  13.729 -0.3340 -0.0868  0.1206
  347DOPE   C4B 4077   0.349   8.546  13.846  0.0921  0.1370  0.0429
  348DOPE   NH3 4078   7.902   7.062  12.754  0.1750 -0.0403  0.2783
  348DOPE   PO4 4079   7.740   7.044  13.062  0.0145 -0.2913  0.0332
  348DOPE   GL1 4080   7.811   7.010  13.481 -0.0160  0.3646 -0.0963
  348DOPE   GL2 4081   7.464   7.115  13.509  0.1786  0.2059 -0.1498
  348DOPE   C1A 4082   7.914   7.016  13.928  0.1409  0.5275  0.0148
  348DOPE   D2A 4083   8.074   7.300  14.232  0.0712  0.1233  0.0285
  348DOPE   C3A 4084   8.211   7.385  14.717 -0.0156  0.1652 -0.3699
  348DOPE   C4A 4085   8.021   7.555  15.097  0.4207 -0.0783  0.3723
  348DOPE   C1B 4086   7.582   7.454  13.824  0.0411  0.3028  0.1550
  348DOPE   D2B 4087   7.582   7.495  14.264 -0.0146 -0.0005 -0.1685
  348DOPE   C3B 4088   7.480   7.214  14.577 -0.2888 -0.3369  0.2927
  348DOPE   C4B 4089   7.215   7.010  14.934  0.2887 -0.0960 -0.1243
  349DOPS   CNO 4090   8.237   0.028  13.164 -0.0994 -0.3134 -0.0988
  349DOPS   PO4 4091   8.102  -0.347  13.087 -0.1581  0.0892  0.1462
  349DOPS   GL1 4092   7.803  -0.338  13.342  0.0175 -0.0161 -0.0914
  349DOPS   GL2 4093   8.016  -0.209  13.536  0.2244 -0.1017 -0.0662
  349DOPS   C1A 4094   7.871  -0.651  13.729  0.0592  0.1688 -0.0280
  349DOPS   D2A 4095   8.190  -0.878  14.085  0.1167 -0.0151 -0.0653
  349DOPS   C3A 4096   7.933  -0.899  14.487  0.1538  0.2386 -0.0534
  349DOPS   C4A 4097   7.633  -0.862  14.803  0.0443  0.1744 -0.0818
  349DOPS   C1B 4098   7.858  -0.068  13.949 -0.3938  0.1971  0.1066
  349DOPS   D2B 4099   7.925   0.073  14.343 -0.3072 -0.0154 -0.1497
  349DOPS   C3B 4100   7.629   0.165  14.734 -0.3115  0.0541 -0.1279
  349DOPS   C4B 4101   7.210   0.263  14.745  0.0310  0.1253 -0.1283
  350DOPE   NH3 4102   0.241   1.283  12.302 -0.1841  0.1411 -0.0178
  350DOPE   PO4 4103   0.505   1.369  12.158 -0.1109 -0.0521 -0.0563
  350DOPE   GL1 4104   0.681   1.327  12.507  0.2922 -0.3768 -0.1653
  350DOPE   GL2 4105   0.942   1.288  12.540  0.0158 -0.0007 -0.0464
  350DOPE   C1A 4106   0.453   1.336  12.887 -0.0388  0.2208 -0.1867
  350DOPE   D2A 4107   0.326   1.492  13.267 -0.3698  0.0752  0.0733
  350DOPE   C3A 4108   0.263   1.164  13.626 -0.3196  0.1187 -0.0678
  350DOPE   C4A 4109   0.381   0.774  13.834  0.2960  0.0384  0.2676
  350DOPE   C1B 4110   0.903   1.183  12.968 -0.0885 -0.0684  0.1876
  350DOPE   D2B 4111   1.044   1.219  13.406  0.3964 -0.1147 -0.2812
  350DOPE   C3B 4112   0.835   0.924  13.637 -0.0080 -0.0525  0.0958
  350DOPE   C4B 4113   0.792   0.508  13.809  0.3000 -0.1917  0.0676
  351DOPE   NH3 4114   9.631   0.306  12.864  0.0088 -0.2261  0.1811
  351DOPE   PO4 4115   9.393   0.470  13.040  0.3750  0.1232 -0.2232
  351DOPE   GL1 4116   9.196   0.328  13.356  0.0578  0.0096  0.0808
  351DOPE   GL2 4117   9.210   0.108  13.517 -0.1757  0.0247  0.1309
  351DOPE   C1A 4118   9.376   0.521  13.816  0.1371  0.0060  0.3045
  351DOPE   D2A 4119   9.590   0.654  14.234 -0.0593  0.1368  0.3351
  351DOPE   C3A 4120   9.465   0.503  14.627 -0.0016  0.0459  0.0315
  351DOPE   C4A 4121   9.712   0.324  14.949  0.3509  0.1242  0.0831
  351DOPE   C1B 4122   9.286  -0.148  13.877  0.1595 -0.0548  0.1178
  351DOPE   D2B 4123   9.084  -0.432  14.219 -0.1381  0.2666 -0.0177
  351DOPE   C3B 4124   9.262  -0.519  14.661  0.1454 -0.0735 -0.2269
  351DOPE   C4B 4125   9.293  -0.635  15.047 -0.1945 -0.1500 -0.0259
  352POSM   NC3 4126   8.194   8.659  11.940 -0.1568  0.0201 -0.0992
  352POSM   PO4 4127   8.585   8.665  12.160 -0.0454  0.1556  0.0824
  352POSM   AM1 4128   8.486   8.576  12.465  0.0418  0.0878  0.1713
  352POSM   AM2 4129   8.245   8.556  12.631  0.2109  0.0477 -0.0680
  352POSM   T1A 4130   8.659   8.712  12.961  0.1452  0.0144  0.3651
  352POSM   C2A 4131   8.842   8.935  13.326 -0.1341 -0.4150 -0.0620
  352POSM   C3A 4132   9.089   8.684  13.694  0.0290 -0.0862  0.0433
  352POSM   C1B 4133   8.191   8.690  12.938 -0.0624  0.1569 -0.2623
  352POSM   D2B 4134   7.866   8.697  13.302 -0.1973  0.0102  0.0269
  352POSM   C3B 4135   7.722   9.117  13.561 -0.0630  0.0200 -0.0247
  352POSM   C4B 4136   8.030   9.452  13.633  0.0543 -0.1042 -0.2352
  353DOPC   NC3 4137   8.979   7.635  13.089 -0.1282 -0.0340 -0.2369
  353DOPC   PO4 4138   8.672   7.454  13.350 -0.1642  0.1020 -0.2593
  353DOPC   GL1 4139   8.819   7.712  13.641  0.3260  0.1444  0.6583
  353DOPC   GL2 4140   8.544   7.798  13.646  0.3480 -0.1609 -0.0063
  353DOPC   C1A 4141   8.918   8.084  13.852  0.1639 -0.0045  0.1529
  353DOPC   D2A 4142   9.168   8.372  14.059  0.0443  0.1329  0.2238
  353DOPC   C3A 4143   9.612   8.323  14.245  0.0165 -0.0559  0.0686
  353DOPC   C4A 4144   9.981   8.022  14.262  0.1359 -0.0006 -0.0034
  353DOPC   C1B 4145   8.427   8.224  13.717  0.1724 -0.0998  0.1789
  353DOPC   D2B 4146   8.610   8.623  13.823  0.4019 -0.1741 -0.3527
  353DOPC   C3B 4147   8.794   8.634  14.188  0.1053 -0.1178  0.0351
  353DOPC   C4B 4148   9.176   8.701  14.450 -0.2640 -0.2621  0.0613
  354DOPC   NC3 4149   6.225  34.297  13.165  0.1326 -0.1336  0.2025
  354DOPC   PO4 4150   6.269  34.661  13.286 -0.1505  0.0601 -0.0503
  354DOPC   GL1 4151   6.195  34.545  13.626  0.0161  0.3251  0.2676
  354DOPC   GL2 4152   6.030  34.389  13.801 -0.0609  0.0743 -0.2121
  354DOPC   C1A 4153   6.232  34.739  14.087  0.1596 -0.2361  0.0717
  354DOPC   D2A 4154   6.269  34.926  14.464  0.2523 -0.0532 -0.2044
  354DOPC   C3A 4155   6.696  34.924  14.735  0.0861  0.0132  0.2446
  354DOPC   C4A 4156   7.002  35.080  15.051  0.2951 -0.1507 -0.0743
  354DOPC   C1B 4157   5.679  34.334  13.511  0.2272  0.0031 -0.1236
  354DOPC   D2B 4158   5.432  34.036  13.296 -0.0088 -0.0640  0.1546
  354DOPC   C3B 4159   5.119  33.944  13.592  0.2854  0.0647 -0.1558
  354DOPC   C4B 4160   4.821  33.685  13.854 -0.0084 -0.0734 -0.0965
  355DOPE   NH3 4161   3.478   1.286  12.858 -0.1137  0.1459  0.1955
  355DOPE   PO4 4162   3.602   1.137  13.118  0.0451  0.1200 -0.0033
  355DOPE   GL1 4163   3.447   0.865  13.322 -0.1905  0.0779  0.0762
  355DOPE   GL2 4164   3.526   0.579  13.210  0.0889  0.0947 -0.0298
  355DOPE   C1A 4165   3.375   0.816  13.742  0.2080 -0.2082 -0.0072
  355DOPE   D2A 4166   3.253   1.057  14.152  0.0271  0.4611 -0.1449
  355DOPE   C3A 4167   3.032   1.451  14.099 -0.0190 -0.0593  0.0448
  355DOPE   C4A 4168   2.653   1.808  14.171 -0.0933 -0.0068 -0.4635
  355DOPE   C1B 4169   3.100   0.580  13.356 -0.0349  0.2435  0.2414
  355DOPE   D2B 4170   2.860   0.362  13.661  0.2263 -0.0576 -0.0697
  355DOPE   C3B 4171   2.615   0.508  14.044  0.0667 -0.0321  0.2118
  355DOPE   C4B 4172   2.313   0.368  14.296 -0.0260  0.1419  0.0303
  356DOPE   NH3 4173   5.189   2.506  13.313  0.2626  0.1087  0.0903
  356DOPE   PO4 4174   5.481   2.598  13.189  0.0224 -0.0787  0.0867
  356DOPE   GL1 4175   5.565   2.575  13.647 -0.0480 -0.0467 -0.1616
  356DOPE   GL2 4176   5.455   2.380  13.823 -0.0176  0.0224  0.1180
  356DOPE   C1A 4177   5.402   2.861  14.007 -0.0973 -0.1421  0.0272
  356DOPE   D2A 4178   5.058   3.067  14.186  0.0628 -0.0399  0.0790
  356DOPE   C3A 4179   5.110   2.891  14.584  0.1519 -0.2573 -0.3481
  356DOPE   C4A 4180   4.775   2.801  14.908  0.1448 -0.1632  0.1753
  356DOPE   C1B 4181   5.176   2.506  14.202  0.1145 -0.0616 -0.0637
  356DOPE   D2B 4182   4.736   2.623  14.346  0.0190 -0.4269 -0.0494
  356DOPE   C3B 4183   4.292   2.811  14.460 -0.2970 -0.1596  0.1705
  356DOPE   C4B 4184   4.030   3.098  14.583  0.0907  0.2060 -0.0088
  357POSM   NC3 4185   6.850   1.059  13.547 -0.0189  0.1827 -0.0755
  357POSM   PO4 4186   7.127   1.332  13.617  0.1351  0.0402 -0.0651
  357POSM   AM1 4187   7.177   1.264  13.934  0.3383 -0.0476 -0.0866
  357POSM   AM2 4188   6.978   1.208  14.117 -0.1961 -0.1529  0.0322
  357POSM   T1A 4189   7.295   1.367  14.451 -0.2257 -0.0686 -0.0538
  357POSM   C2A 4190   7.194   1.506  14.841  0.0701 -0.0376  0.1756
  357POSM   C3A 4191   6.785   1.609  15.084 -0.2828  0.0239  0.0217
  357POSM   C1B 4192   6.663   1.277  14.268 -0.0912  0.2978 -0.2722
  357POSM   D2B 4193   6.290   1.441  14.236 -0.2762  0.0847  0.0107
  357POSM   C3B 4194   6.078   1.378  14.655  0.2501 -0.0614 -0.1976
  357POSM   C4B 4195   6.208   1.493  15.114  0.0773  0.0008  0.0703
  358POSM   NC3 4196   4.830   4.054  13.698  0.1892 -0.0323  0.0385
  358POSM   PO4 4197   4.917   4.457  13.650  0.1832 -0.0964  0.0489
  358POSM   AM1 4198   4.925   4.493  13.958 -0.0526 -0.2363  0.1424
  358POSM   AM2 4199   5.014   4.626  14.170  0.1896  0.0355 -0.3471
  358POSM   T1A 4200   4.890   4.185  14.350  0.1235  0.0490 -0.0848
  358POSM   C2A 4201   4.678   3.860  14.604 -0.2488  0.1212 -0.0649
  358POSM   C3A 4202   4.454   3.921  15.014  0.0685  0.0644 -0.3145
  358POSM   C1B 4203   4.845   4.691  14.466  0.2040  0.2027  0.2580
  358POSM   D2B 4204   4.624   4.914  14.821  0.2344 -0.0250  0.3446
  358POSM   C3B 4205   4.502   5.246  15.017 -0.1867  0.1484  0.0329
  358POSM   C4B 4206   4.171   5.524  14.843 -0.4493  0.1424  0.1741
  359POSM   NC3 4207   2.346  12.128  11.004  0.2131  0.0839 -0.0445
  359POSM   PO4 4208   2.081  11.761  11.032  0.0921 -0.0473 -0.0273
  359POSM   AM1 4209   2.169  11.854  11.357 -0.1701  0.0551 -0.5518
  359POSM   AM2 4210   2.418  11.975  11.513 -0.0759 -0.2654 -0.2710
  359POSM   T1A 4211   1.952  11.746  11.831  0.0936  0.1111  0.0941
  359POSM   C2A 4212   1.925  11.998  12.216 -0.2954 -0.0961 -0.0267
  359POSM   C3A 4213   1.948  12.206  12.628  0.0973 -0.1708  0.2827
  359POSM   C1B 4214   2.420  11.842  11.824  0.0201  0.1734 -0.0104
  359POSM   D2B 4215   2.572  11.693  12.212 -0.0872  0.1329 -0.1698
  359POSM   C3B 4216   2.145  11.572  12.377 -0.3126 -0.1883  0.0737
  359POSM   C4B 4217   1.801  11.685  12.674  0.0198 -0.1556 -0.2820
  360POSM   NC3 4218   9.837   4.297  13.054  0.0458  0.3199 -0.3271
  360POSM   PO4 4219  10.149   4.121  12.885 -0.1416  0.0235 -0.1933
  360POSM   AM1 4220  10.292   4.030  13.161  0.1685 -0.3229 -0.2283
  360POSM   AM2 4221  10.099   4.007  13.404 -0.0814 -0.1289 -0.0026
  360POSM   T1A 4222  10.658   3.837  13.403 -0.1396 -0.0724 -0.0092
  360POSM   C2A 4223  10.946   3.438  13.510  0.0940  0.2997 -0.2372
  360POSM   C3A 4224  11.074   3.021  13.695 -0.2173  0.0907 -0.2417
  360POSM   C1B 4225  10.252   3.927  13.716  0.0950 -0.0434  0.0709
  360POSM   D2B 4226  10.507   3.871  14.075  0.1327 -0.2912 -0.2826
  360POSM   C3B 4227  10.455   3.587  14.440  0.3117 -0.2688 -0.3426
  360POSM   C4B 4228  10.532   3.110  14.544  0.0094 -0.0053 -0.2497
  361DOPC   NC3 4229   3.026   6.750  13.137 -0.0269  0.0885  0.2496
  361DOPC   PO4 4230   2.666   6.838  13.027 -0.1477  0.0003  0.3825
  361DOPC   GL1 4231   2.607   6.752  13.507 -0.2485  0.1761  0.0547
  361DOPC   GL2 4232   2.356   6.880  13.481 -0.0396  0.2169  0.1952
  361DOPC   C1A 4233   2.328   6.621  13.910 -0.2286  0.2889  0.1362
  361DOPC   D2A 4234   2.207   6.871  14.294  0.0792 -0.2737 -0.0326
  361DOPC   C3A 4235   1.799   6.939  14.512  0.2682 -0.1062 -0.1409
  361DOPC   C4A 4236   1.484   6.993  14.864 -0.2373 -0.0995  0.3286
  361DOPC   C1B 4237   2.083   7.133  13.781 -0.0117  0.1720  0.0521
  361DOPC   D2B 4238   2.146   7.368  14.171 -0.0762  0.0893 -0.0185
  361DOPC   C3B 4239   1.859   7.740  14.109 -0.1493 -0.0408  0.1552
  361DOPC   C4B 4240   1.477   7.834  14.389 -0.1639  0.1011  0.2770
  362DOPC   NC3 4241   9.362   1.625  13.072 -0.1363  0.1619  0.0921
  362DOPC   PO4 4242   9.184   1.850  13.360 -0.2146 -0.0373 -0.1509
  362DOPC   GL1 4243   9.256   1.791  13.761 -0.5002 -0.3434  0.3171
  362DOPC   GL2 4244   9.487   1.581  13.914  0.1260  0.0087 -0.2568
  362DOPC   C1A 4245   9.378   2.034  14.116 -0.1198 -0.1425  0.3797
  362DOPC   D2A 4246   9.432   2.516  14.247 -0.0494 -0.0461 -0.1568
  362DOPC   C3A 4247   9.522   2.550  14.674  0.0415 -0.0488 -0.1290
  362DOPC   C4A 4248   9.469   2.435  15.166  0.0100 -0.1343 -0.3257
  362DOPC   C1B 4249   9.863   1.622  14.109 -0.0439 -0.1095 -0.2013
  362DOPC   D2B 4250   9.896   1.492  14.553 -0.0094 -0.2194 -0.2107
  362DOPC   C3B 4251  10.286   1.571  14.783  0.0266  0.2658 -0.1934
  362DOPC   C4B 4252  10.568   1.647  15.167  0.1161 -0.1024 -0.1525
  363DOPE   NH3 4253   7.221   8.109  13.059  0.2066 -0.3709 -0.3700
  363DOPE   PO4 4254   7.080   7.800  13.058  0.0566 -0.0292 -0.0427
  363DOPE   GL1 4255   6.983   8.088  13.445  0.3932  0.2099  0.0587
  363DOPE   GL2 4256   7.208   8.300  13.530 -0.0239 -0.0746 -0.2127
  363DOPE   C1A 4257   6.723   8.360  13.682 -0.1862 -0.0501  0.0384
  363DOPE   D2A 4258   6.536   8.330  14.101  0.1902  0.0693 -0.2121
  363DOPE   C3A 4259   6.262   7.985  14.196 -0.1378  0.0258  0.2538
  363DOPE   C4A 4260   5.777   7.980  14.172 -0.0856  0.0732  0.0139
  363DOPE   C1B 4261   7.550   8.433  13.795  0.0819 -0.1294 -0.1262
  363DOPE   D2B 4262   7.652   8.403  14.245  0.2842 -0.1391 -0.1581
  363DOPE   C3B 4263   7.613   8.070  14.563 -0.0982 -0.0817  0.0174
  363DOPE   C4B 4264   7.731   7.659  14.703  0.3789  0.0985 -0.2737
  364DOPC   NC3 4265   6.813   6.912  13.279 -0.0997 -0.2073 -0.2211
  364DOPC   PO4 4266   6.989   7.031  13.610  0.0656  0.0101  0.1672
  364DOPC   GL1 4267   6.810   7.301  13.857  0.0104 -0.0389  0.2521
  364DOPC   GL2 4268   6.692   7.114  14.024 -0.1114  0.3828  0.1303
  364DOPC   C1A 4269   7.076   7.527  14.189  0.3011  0.0865  0.2932
  364DOPC   D2A 4270   7.258   7.627  14.609  0.2679 -0.0962 -0.2983
  364DOPC   C3A 4271   7.145   8.069  14.563 -0.0796 -0.0916 -0.1861
  364DOPC   C4A 4272   6.724   8.247  14.576  0.1697  0.0498  0.2079
  364DOPC   C1B 4273   6.586   7.540  14.232  0.2212  0.1176 -0.3860
  364DOPC   D2B 4274   6.654   7.766  14.665  0.1910 -0.2059  0.0405
  364DOPC   C3B 4275   6.288   7.806  14.945 -0.3280  0.1949 -0.0067
  364DOPC   C4B 4276   5.888   7.928  15.065  0.1193  0.1300  0.0571
  365DOPC   NC3 4277   7.210   8.652  13.186 -0.0858  0.2010 -0.0873
  365DOPC   PO4 4278   6.929   8.468  12.976 -0.1544  0.0374 -0.2258
  365DOPC   GL1 4279   6.792   8.671  13.257  0.0731 -0.1936  0.0410
  365DOPC   GL2 4280   6.754   8.916  13.247 -0.2379  0.0822  0.3292
  365DOPC   C1A 4281   7.046   8.778  13.651  0.0159 -0.0265  0.1199
  365DOPC   D2A 4282   7.343   9.003  14.016  0.0252  0.1770  0.1442
  365DOPC   C3A 4283   7.548   8.921  14.407  0.0967 -0.1700  0.1518
  365DOPC   C4A 4284   7.985   8.752  14.317  0.0361 -0.0203  0.1860
  365DOPC   C1B 4285   7.023   9.267  13.257 -0.1353 -0.0608 -0.2352
  365DOPC   D2B 4286   7.298   9.540  13.490  0.1383 -0.1307  0.2679
  365DOPC   C3B 4287   7.681   9.558  13.277  0.2601  0.0338 -0.1095
  365DOPC   C4B 4288   7.902   9.827  12.988  0.2773 -0.0793 -0.1948
  366DOPS   CNO 4289   5.963  10.037  11.782  0.0862 -0.0657  0.0298
  366DOPS   PO4 4290   6.274  10.167  11.925  0.0890  0.1614 -0.3035
  366DOPS   GL1 4291   6.488  10.243  12.191  0.1785  0.1375 -0.1425
  366DOPS   GL2 4292   6.506   9.949  12.337  0.1617 -0.0349 -0.0048
  366DOPS   C1A 4293   6.931  10.288  12.388 -0.0082 -0.2725 -0.0595
  366DOPS   D2A 4294   7.394  10.217  12.433  0.0603  0.0580  0.2513
  366DOPS   C3A 4295   7.542   9.988  12.753 -0.2095 -0.1659  0.1440
  366DOPS   C4A 4296   7.429   9.991  13.202  0.1369 -0.2627 -0.0727
  366DOPS   C1B 4297   6.512  10.283  12.679  0.1516 -0.3533  0.2533
  366DOPS   D2B 4298   6.262  10.544  12.953 -0.3400  0.2601 -0.3933
  366DOPS   C3B 4299   6.218  10.499  13.422 -0.1743  0.1271 -0.0289
  366DOPS   C4B 4300   6.195  10.322  13.852  0.2352  0.1362 -0.0401
  367POSM   NC3 4301   8.562   6.030  13.004 -0.1432  0.1770  0.5292
  367POSM   PO4 4302   8.412   6.215  13.300  0.0024  0.0635 -0.1385
  367POSM   AM1 4303   8.416   6.032  13.587  0.2241  0.1006 -0.0547
  367POSM   AM2 4304   8.485   5.745  13.640  0.3989 -0.3782  0.0412
  367POSM   T1A 4305   8.293   6.028  14.049  0.1341  0.1381 -0.1291
  367POSM   C2A 4306   8.064   5.725  14.348  0.1656  0.1184 -0.2008
  367POSM   C3A 4307   7.709   5.484  14.544 -0.0061  0.0360  0.1826
  367POSM   C1B 4308   8.481   5.574  13.981 -0.2375  0.1076  0.0688
  367POSM   D2B 4309   8.422   5.420  14.428 -0.0974  0.3964  0.0231
  367POSM   C3B 4310   8.660   5.596  14.800 -0.0139 -0.1629 -0.2188
  367POSM   C4B 4311   9.037   5.486  15.051  0.3336 -0.4238  0.0652
  368DOPS   CNO 4312   6.264   9.693  11.942  0.1297  0.0787 -0.1195
  368DOPS   PO4 4313   6.199   9.526  12.288  0.1348  0.2495 -0.0459
  368DOPS   GL1 4314   6.083   9.490  12.656 -0.3196  0.0374  0.1513
  368DOPS   GL2 4315   6.104   9.211  12.811 -0.1462 -0.0111 -0.0439
  368DOPS   C1A 4316   6.379   9.796  12.862 -0.2911 -0.1920  0.1227
  368DOPS   D2A 4317   6.467  10.124  13.177 -0.1787  0.2554 -0.1004
  368DOPS   C3A 4318   6.769  10.487  13.247 -0.0045  0.0021 -0.0976
  368DOPS   C4A 4319   7.082  10.610  13.602 -0.1328  0.2935 -0.1165
  368DOPS   C1B 4320   6.119   9.490  13.185 -0.0026 -0.1747 -0.0497
  368DOPS   D2B 4321   6.074   9.787  13.554  0.2864 -0.0940 -0.0277
  368DOPS   C3B 4322   6.484   9.774  13.739  0.2621 -0.2553 -0.1013
  368DOPS   C4B 4323   6.870   9.519  13.819 -0.0328 -0.0211  0.0223
  369POSM   NC3 4324   2.268   6.942  12.641 -0.1176 -0.1547  0.0795
  369POSM   PO4 4325   1.962   7.173  12.641 -0.2425 -0.1039 -0.0324
  369POSM   AM1 4326   1.753   7.137  12.916 -0.2353 -0.0651 -0.2211
  369POSM   AM2 4327   1.713   6.993  13.191 -0.0758  0.1110 -0.0698
  369POSM   T1A 4328   1.422   7.372  13.178 -0.0271  0.3736  0.0068
  369POSM   C2A 4329   1.108   7.342  13.522 -0.0542  0.3320  0.0192
  369POSM   C3A 4330   0.834   7.497  13.862  0.2377 -0.0925  0.0455
  369POSM   C1B 4331   1.658   6.999  13.540 -0.2381  0.0340 -0.2130
  369POSM   D2B 4332   1.639   6.958  14.058  0.0056 -0.1335  0.0956
  369POSM   C3B 4333   1.408   6.688  14.390 -0.4871  0.0570 -0.2105
  369POSM   C4B 4334   1.146   6.603  14.703  0.2191 -0.0220  0.0674
  370DOPC   NC3 4335   1.809   8.917  12.485 -0.1373 -0.1338 -0.2878
  370DOPC   PO4 4336   1.619   8.644  12.268  0.4806  0.0805  0.1003
  370DOPC   GL1 4337   1.373   8.787  12.632 -0.0182  0.1389 -0.0464
  370DOPC   GL2 4338   1.242   8.957  12.564  0.1215 -0.1614 -0.1041
  370DOPC   C1A 4339   1.396   8.821  13.080 -0.1029 -0.1138  0.2611
  370DOPC   D2A 4340   1.259   8.998  13.461  0.1376 -0.2687  0.0757
  370DOPC   C3A 4341   0.916   9.294  13.489 -0.0379 -0.2479 -0.0458
  370DOPC   C4A 4342   0.490   9.575  13.553  0.3704  0.3405 -0.1316
  370DOPC   C1B 4343   1.497   9.249  12.786 -0.1291  0.0571 -0.1068
  370DOPC   D2B 4344   1.453   9.397  13.237 -0.1523  0.0301 -0.2920
  370DOPC   C3B 4345   1.375   9.364  13.705 -0.2066  0.0516  0.0283
  370DOPC   C4B 4346   1.467   9.685  14.023 -0.3461 -0.2199  0.1723
  371DOPC   NC3 4347   5.344   4.853  13.703  0.2744 -0.1334 -0.0572
  371DOPC   PO4 4348   5.701   4.786  13.849  0.0377  0.0542  0.0808
  371DOPC   GL1 4349   5.847   4.536  14.137  0.2917  0.1930 -0.0291
  371DOPC   GL2 4350   5.694   4.631  14.400  0.1837  0.0592 -0.0136
  371DOPC   C1A 4351   6.177   4.449  14.437 -0.0798  0.4995 -0.0464
  371DOPC   D2A 4352   6.590   4.254  14.310  0.3701  0.1265 -0.2286
  371DOPC   C3A 4353   6.834   4.568  14.485  0.2029 -0.0657 -0.3832
  371DOPC   C4A 4354   6.853   5.001  14.686 -0.1256 -0.3596 -0.0674
  371DOPC   C1B 4355   5.312   4.454  14.528  0.2136 -0.1355  0.0850
  371DOPC   D2B 4356   5.127   4.044  14.737 -0.0944 -0.0230  0.3052
  371DOPC   C3B 4357   4.972   3.980  15.133  0.1743 -0.2100  0.0369
  371DOPC   C4B 4358   4.768   3.847  15.513  0.0146  0.2052  0.0484
  372DOPC   NC3 4359   2.974   1.714  12.803 -0.1958  0.2410 -0.2598
  372DOPC   PO4 4360   3.023   1.307  12.668 -0.0334 -0.1713  0.2517
  372DOPC   GL1 4361   2.951   1.229  13.050  0.1707 -0.0255  0.0044
  372DOPC   GL2 4362   3.098   1.267  13.178  0.1111 -0.3887 -0.2909
  372DOPC   C1A 4363   2.694   1.133  13.394 -0.0800 -0.3961  0.1186
  372DOPC   D2A 4364   2.372   1.206  13.707  0.1123 -0.2657  0.1839
  372DOPC   C3A 4365   2.237   0.953  14.002 -0.2658  0.2623 -0.1022
  372DOPC   C4A 4366   2.267   0.870  14.377 -0.1797 -0.1893 -0.0445
  372DOPC   C1B 4367   2.822   1.649  13.266  0.0392  0.1707 -0.1159
  372DOPC   D2B 4368   2.601   2.066  13.394  0.0333 -0.1154  0.1435
  372DOPC   C3B 4369   2.731   2.150  13.818  0.0500  0.0626 -0.0365
  372DOPC   C4B 4370   2.774   2.351  14.301  0.0511  0.0173  0.0346
  373POSM   NC3 4371   6.405   9.128  12.162  0.0150  0.1387 -0.0252
  373POSM   PO4 4372   6.798   9.081  12.316  0.0542  0.2578  0.2873
  373POSM   AM1 4373   6.728   9.373  12.421  0.4551  0.0695 -0.0523
  373POSM   AM2 4374   6.569   9.417  12.658  0.2086 -0.0442 -0.2281
  373POSM   T1A 4375   6.825   9.806  12.695  0.0083 -0.0769  0.1703
  373POSM   C2A 4376   7.066  10.141  12.877  0.0473  0.1705 -0.0913
  373POSM   C3A 4377   7.342  10.468  13.089 -0.2033  0.2169  0.1201
  373POSM   C1B 4378   6.611   9.342  12.978 -0.0536  0.1059 -0.1328
  373POSM   D2B 4379   6.530   9.341  13.423  0.0859  0.0854 -0.0523
  373POSM   C3B 4380   6.128   9.218  13.625 -0.2068  0.1912 -0.2105
  373POSM   C4B 4381   5.738   9.488  13.532  0.2147 -0.2102 -0.0136
  374POSM   NC3 4382   3.229   2.848  12.313 -0.2940  0.2155  0.1739
  374POSM   PO4 4383   3.064   2.489  12.112  0.1043  0.3213  0.2100
  374POSM   AM1 4384   2.910   2.425  12.384 -0.0047  0.0690  0.1456
  374POSM   AM2 4385   2.688   2.546  12.565 -0.2981  0.0862  0.1849
  374POSM   T1A 4386   2.555   2.103  12.550  0.1795  0.0382  0.1732
  374POSM   C2A 4387   2.452   1.791  12.905 -0.1726  0.0457  0.0186
  374POSM   C3A 4388   2.247   1.370  12.908  0.0078 -0.0350 -0.1225
  374POSM   C1B 4389   2.337   2.537  12.559 -0.1381 -0.3073  0.1083
  374POSM   D2B 4390   1.838   2.581  12.429  0.2877 -0.0820  0.2403
  374POSM   C3B 4391   1.459   2.464  12.631  0.1441 -0.2001 -0.1983
  374POSM   C4B 4392   1.185   2.663  12.964  0.1361 -0.0132 -0.4224
  375DOPE   NH3 4393   4.113   2.274  13.167 -0.1016  0.2381  0.0589
  375DOPE   PO4 4394   4.096   2.582  13.261  0.0773  0.1225  0.0116
  375DOPE   GL1 4395   4.010   2.447  13.607  0.0216  0.2905  0.2133
  375DOPE   GL2 4396   4.045   2.629  13.856  0.0234  0.0387 -0.0172
  375DOPE   C1A 4397   3.964   2.146  13.968  0.0536  0.0272 -0.0833
  375DOPE   D2A 4398   3.778   2.012  14.340 -0.1295  0.2143  0.3109
  375DOPE   C3A 4399   3.462   2.324  14.614 -0.4269  0.4944 -0.2599
  375DOPE   C4A 4400   3.094   2.486  14.650  0.0213 -0.0834 -0.1665
  375DOPE   C1B 4401   3.864   2.633  14.237 -0.2894  0.0284 -0.1276
  375DOPE   D2B 4402   3.951   2.580  14.711 -0.0044  0.1881  0.1123
  375DOPE   C3B 4403   4.407   2.473  14.817  0.4009 -0.1480  0.2562
  375DOPE   C4B 4404   4.693   2.153  14.949 -0.1478 -0.1919  0.0929
  376DOPS   CNO 4405  10.037   5.782  12.873 -0.0225 -0.0515 -0.0672
  376DOPS   PO4 4406   9.846   5.725  13.191  0.0573 -0.0128 -0.0628
  376DOPS   GL1 4407   9.712   5.922  13.570 -0.4306 -0.2200  0.3707
  376DOPS   GL2 4408   9.833   5.623  13.739  0.0417  0.2358 -0.2112
  376DOPS   C1A 4409   9.408   5.786  13.853  0.1105  0.3054 -0.0989
  376DOPS   D2A 4410   9.047   5.659  14.156  0.0073  0.0440  0.2754
  376DOPS   C3A 4411   8.674   5.859  14.351  0.1746  0.1344  0.2554
  376DOPS   C4A 4412   8.353   5.993  14.678 -0.0024 -0.0192  0.0382
  376DOPS   C1B 4413  10.194   5.409  13.982  0.0965  0.0045  0.1923
  376DOPS   D2B 4414  10.622   5.360  14.162 -0.1675  0.1967  0.3519
  376DOPS   C3B 4415  10.519   5.051  14.454  0.5328  0.2312  0.0779
  376DOPS   C4B 4416  10.635   4.780  14.780 -0.2773  0.2459  0.0918
  377DOPE   NH3 4417  11.266  11.467  10.391  0.0039 -0.0575 -0.1946
  377DOPE   PO4 4418  11.209  11.201  10.444 -0.1111 -0.1158  0.0648
  377DOPE   GL1 4419  11.424  11.344  10.785 -0.0645 -0.0691  0.4580
  377DOPE   GL2 4420  11.366  11.604  10.874 -0.0040  0.1478  0.1922
  377DOPE   C1A 4421  11.281  11.320  11.228 -0.1549 -0.0549 -0.0520
  377DOPE   D2A 4422  11.156  11.267  11.688 -0.0934  0.2048  0.1309
  377DOPE   C3A 4423  11.020  11.725  11.911 -0.1024  0.2266 -0.0610
  377DOPE   C4A 4424  11.067  11.830  12.372  0.0895  0.1001 -0.1495
  377DOPE   C1B 4425  11.635  11.886  11.172 -0.1458  0.0702  0.2619
  377DOPE   D2B 4426  11.982  12.201  11.148 -0.1526  0.0346  0.3229
  377DOPE   C3B 4427  11.818  12.281  11.577 -0.2428  0.1423  0.3771
  377DOPE   C4B 4428  11.820  12.295  12.027  0.1598 -0.0711  0.2955
  378DOPC   NC3 4429   0.024   4.898  12.305 -0.0143  0.0554  0.2526
  378DOPC   PO4 4430   0.110   4.532  12.391 -0.1277  0.0199 -0.0585
  378DOPC   GL1 4431   0.147   4.680  12.726 -0.1538  0.0848 -0.0722
  378DOPC   GL2 4432  -0.119   4.479  12.863  0.1410 -0.3205  0.0559
  378DOPC   C1A 4433  -0.105   5.043  12.891  0.1900 -0.2582  0.0048
  378DOPC   D2A 4434  -0.206   5.477  12.958 -0.0485  0.2435 -0.0461
  378DOPC   C3A 4435  -0.579   5.563  13.204 -0.2449  0.1251 -0.3099
  378DOPC   C4A 4436  -1.055   5.791  13.193 -0.0841 -0.1667  0.2443
  378DOPC   C1B 4437   0.221   4.560  13.212  0.3024  0.0370 -0.1773
  378DOPC   D2B 4438   0.329   4.364  13.598  0.4145  0.2776 -0.2435
  378DOPC   C3B 4439   0.167   3.966  13.757  0.2500  0.1844  0.0760
  378DOPC   C4B 4440  -0.030   3.666  14.023 -0.0781 -0.0925 -0.0366
  379DOPC   NC3 4441   4.878   2.137  13.546  0.1932  0.0058 -0.0080
  379DOPC   PO4 4442   4.876   1.767  13.435  0.0177 -0.0566 -0.1672
  379DOPC   GL1 4443   4.792   1.696  13.815  0.0676  0.3945  0.1547
  379DOPC   GL2 4444   4.448   1.796  13.926  0.0496 -0.1319 -0.0023
  379DOPC   C1A 4445   4.847   1.655  14.284 -0.2252 -0.4123  0.2363
  379DOPC   D2A 4446   4.702   1.570  14.732  0.0751  0.0587  0.4608
  379DOPC   C3A 4447   4.376   1.301  14.722 -0.3752  0.2382  0.2088
  379DOPC   C4A 4448   4.223   0.930  14.925  0.0607 -0.2426  0.1269
  379DOPC   C1B 4449   4.135   1.491  14.150  0.0192  0.1055  0.0956
  379DOPC   D2B 4450   4.082   1.121  14.315 -0.0956  0.3819  0.3487
  379DOPC   C3B 4451   3.660   0.949  14.428  0.1890 -0.0593 -0.2201
  379DOPC   C4B 4452   3.272   0.846  14.659 -0.0373  0.0710  0.0195
  380POSM   NC3 4453   9.214   6.724  13.281 -0.1468  0.0691  0.0176
  380POSM   PO4 4454   9.552   6.654  13.121 -0.0481 -0.2413  0.2737
  380POSM   AM1 4455   9.725   6.633  13.415  0.1984  0.2076 -0.3857
  380POSM   AM2 4456   9.697   6.434  13.664  0.5349  0.0756 -0.1486
  380POSM   T1A 4457  10.148   6.618  13.702  0.0464  0.4603  0.1727
  380POSM   C2A 4458  10.383   6.872  13.970  0.0887  0.3126 -0.1514
  380POSM   C3A 4459  10.576   7.049  14.389  0.1774 -0.1748  0.1620
  380POSM   C1B 4460   9.848   6.284  13.943  0.0787 -0.1859 -0.0119
  380POSM   D2B 4461   9.886   5.886  14.147 -0.4420  0.0706 -0.0428
  380POSM   C3B 4462   9.502   5.850  14.414 -0.3198 -0.0867 -0.2841
  380POSM   C4B 4463   9.088   5.897  14.689 -0.3024 -0.1001  0.0524
  381POSM   NC3 4464  34.475   9.074  11.649 -0.0329 -0.0384 -0.0844
  381POSM   PO4 4465  34.834   9.161  11.576 -0.0048 -0.2051 -0.0951
  381POSM   AM1 4466  34.774   9.309  11.863  0.2912  0.0039 -0.1519
  381POSM   AM2 4467  34.717   9.220  12.139  0.0273  0.0310 -0.0995
  381POSM   T1A 4468  34.836   9.780  12.051 -0.1338 -0.0678  0.2746
  381POSM   C2A 4469  34.718  10.215  12.118  0.0602  0.1342  0.1199
  381POSM   C3A 4470  34.693  10.717  12.115 -0.1926 -0.1243  0.0738
  381POSM   C1B 4471  34.536   9.281  12.384 -0.1159  0.1659  0.0130
  381POSM   D2B 4472  34.277   9.088  12.707 -0.0581 -0.3725  0.0034
  381POSM   C3B 4473  33.888   9.282  12.601  0.0952  0.2813  0.2031
  381POSM   C4B 4474  33.553   9.576  12.784  0.1905 -0.0150  0.1939
  382DOPS   CNO 4475   8.684   1.753  13.340 -0.1066  0.1581 -0.1912
  382DOPS   PO4 4476   8.340   1.742  13.470  0.1025 -0.0739 -0.0960
  382DOPS   GL1 4477   8.267   1.552  13.907  0.2205  0.3045 -0.0355
  382DOPS   GL2 4478   8.322   1.235  13.908  0.0852 -0.0931 -0.1589
  382DOPS   C1A 4479   8.014   1.599  14.316  0.0364 -0.0449  0.2375
  382DOPS   D2A 4480   7.652   1.672  14.538 -0.2437 -0.2094  0.0894
  382DOPS   C3A 4481   7.687   1.875  14.989 -0.1687 -0.0960 -0.0580
  382DOPS   C4A 4482   7.527   2.103  15.342 -0.0325 -0.0270  0.3121
  382DOPS   C1B 4483   8.401   1.321  14.326  0.2498 -0.2903 -0.3546
  382DOPS   D2B 4484   8.719   1.277  14.629  0.0145 -0.0107  0.3158
  382DOPS   C3B 4485   8.651   1.458  15.039  0.0906  0.2591  0.3721
  382DOPS   C4B 4486   8.732   1.743  15.420 -0.2817 -0.0159  0.2384
  383POSM   NC3 4487   3.961   0.510  12.465  0.3675 -0.0488  0.0086
  383POSM   PO4 4488   4.127   0.313  12.172  0.2355 -0.1715  0.2432
  383POSM   AM1 4489   4.180   0.074  12.384 -0.3169  0.1831  0.1566
  383POSM   AM2 4490   4.077   0.030  12.659  0.0918  0.3793  0.0168
  383POSM   T1A 4491   4.166  -0.433  12.428  0.0476 -0.1211  0.0264
  383POSM   C2A 4492   4.167  -0.840  12.692  0.1884  0.0621 -0.0413
  383POSM   C3A 4493   4.240  -0.921  13.123  0.0517  0.1803 -0.0101
  383POSM   C1B 4494   3.991  -0.083  12.926  0.2322 -0.0361 -0.4247
  383POSM   D2B 4495   3.856  -0.035  13.405  0.3342 -0.0551  0.0320
  383POSM   C3B 4496   3.493  -0.152  13.668  0.0143  0.0831  0.1183
  383POSM   C4B 4497   3.259  -0.435  13.904  0.2478  0.2537  0.1030
  384DOPE   NH3 4498   2.478  10.124  11.654  0.0170  0.0729  0.2340
  384DOPE   PO4 4499   2.454   9.832  11.684 -0.1839 -0.1562 -0.2060
  384DOPE   GL1 4500   2.330   9.758  12.067 -0.0805 -0.0301  0.4226
  384DOPE   GL2 4501   2.488   9.972  12.154 -0.0758 -0.1439  0.2161
  384DOPE   C1A 4502   2.142   9.781  12.456 -0.2255 -0.1322 -0.1920
  384DOPE   D2A 4503   2.220   9.863  12.891 -0.1312  0.0696  0.2118
  384DOPE   C3A 4504   2.325   9.492  13.170  0.0531 -0.0425 -0.0621
  384DOPE   C4A 4505   2.378   9.176  13.520 -0.0959  0.5456  0.1960
  384DOPE   C1B 4506   2.648  10.056  12.558 -0.3427  0.1634 -0.0844
  384DOPE   D2B 4507   2.862   9.922  12.921 -0.0451  0.2044 -0.0745
  384DOPE   C3B 4508   2.598   9.865  13.329  0.1998 -0.1117 -0.0605
  384DOPE   C4B 4509   2.338   9.640  13.677  0.1381  0.1010 -0.2580
  385DOPE   NH3 4510   3.652   1.674  12.614 -0.0195  0.1260 -0.0893
  385DOPE   PO4 4511   3.423   1.787  12.799  0.0221  0.2831 -0.3422
  385DOPE   GL1 4512   3.374   1.754  13.179 -0.0546 -0.2282 -0.1045
  385DOPE   GL2 4513   3.453   1.515  13.409  0.0432 -0.1905  0.1063
  385DOPE   C1A 4514   3.153   2.148  13.434 -0.0256  0.2384  0.3080
  385DOPE   D2A 4515   3.089   2.454  13.827  0.1361 -0.1721  0.0189
  385DOPE   C3A 4516   3.098   2.837  13.592 -0.0435 -0.1404 -0.1004
  385DOPE   C4A 4517   3.334   3.163  13.392 -0.1642  0.0662  0.3203
  385DOPE   C1B 4518   3.076   1.249  13.640  0.3014  0.1902 -0.2033
  385DOPE   D2B 4519   2.828   0.818  13.742 -0.3655 -0.2172 -0.1344
  385DOPE   C3B 4520   2.422   0.736  13.594  0.0153 -0.0676  0.1472
  385DOPE   C4B 4521   2.117   0.461  13.801  0.3198  0.0102 -0.1163
  386DOPE   NH3 4522   4.885  33.195  11.334  0.2502 -0.0333  0.2240
  386DOPE   PO4 4523   4.595  33.134  11.189  0.1260 -0.0729  0.2723
  386DOPE   GL1 4524   4.380  33.146  11.507  0.2869 -0.1144  0.2602
  386DOPE   GL2 4525   4.471  33.447  11.588  0.0973  0.5888  0.2181
  386DOPE   C1A 4526   4.076  32.882  11.743 -0.0157  0.2843  0.0300
  386DOPE   D2A 4527   3.869  32.913  12.170 -0.1395  0.0649  0.3563
  386DOPE   C3A 4528   3.600  32.712  12.479  0.1905  0.1114 -0.3278
  386DOPE   C4A 4529   3.625  32.663  12.947 -0.2296  0.0068 -0.1329
  386DOPE   C1B 4530   4.364  33.266  12.030 -0.0908  0.1928  0.2257
  386DOPE   D2B 4531   4.238  33.220  12.476  0.1717  0.0714  0.1446
  386DOPE   C3B 4532   4.067  32.810  12.642  0.1165 -0.1751 -0.2760
  386DOPE   C4B 4533   4.029  32.437  12.417  0.1301  0.3341 -0.1220
  387DOPS   CNO 4534   6.020   0.650  13.172  0.2033 -0.3278  0.1412
  387DOPS   PO4 4535   5.830   0.943  13.318 -0.0874 -0.2209 -0.0041
  387DOPS   GL1 4536   5.497   1.036  13.500 -0.0557  0.1710 -0.0045
  387DOPS   GL2 4537   5.423   0.800  13.653 -0.0529  0.0006  0.0431
  387DOPS   C1A 4538   5.365   1.224  13.903  0.1297 -0.2472  0.0907
  387DOPS   D2A 4539   5.331   1.589  14.188  0.0210 -0.1466 -0.2258
  387DOPS   C3A 4540   5.214   1.551  14.649  0.4721 -0.0057  0.0539
  387DOPS   C4A 4541   5.062   1.864  14.923  0.0885 -0.0879  0.3141
  387DOPS   C1B 4542   5.397   0.354  13.664  0.0993  0.1964  0.0600
  387DOPS   D2B 4543   5.496  -0.026  13.980 -0.0244 -0.0241  0.2739
  387DOPS   C3B 4544   5.409  -0.225  14.390 -0.3702  0.0435 -0.0565
  387DOPS   C4B 4545   5.061  -0.258  14.659  0.1391 -0.1284  0.2259
  388POSM   NC3 4546   6.438   2.687  13.550  0.3699  0.2539 -0.2398
  388POSM   PO4 4547   6.088   2.587  13.321 -0.1289  0.3090 -0.0440
  388POSM   AM1 4548   5.979   2.562  13.655 -0.4169 -0.1605 -0.0288
  388POSM   AM2 4549   6.035   2.657  13.929  0.0303 -0.0713  0.1822
  388POSM   T1A 4550   5.901   2.198  14.003  0.2492 -0.2347  0.2327
  388POSM   C2A 4551   5.969   2.272  14.459 -0.2606  0.0153 -0.1083
  388POSM   C3A 4552   6.283   2.466  14.720  0.0993 -0.2065  0.1865
  388POSM   C1B 4553   5.769   2.633  14.152 -0.1473 -0.3338  0.2362
  388POSM   D2B 4554   5.527   2.609  14.570 -0.3362  0.0778 -0.2173
  388POSM   C3B 4555   5.784   2.789  14.909 -0.0904  0.2296 -0.0226
  388POSM   C4B 4556   6.006   2.843  15.321  0.1398 -0.0518 -0.1473
  389POSM   NC3 4557   8.137   3.446  14.004 -0.1604  0.0953 -0.0181
  389POSM   PO4 4558   7.808   3.597  13.885  0.1575 -0.0225  0.0297
  389POSM   AM1 4559   7.656   3.557  14.141 -0.3373  0.4153  0.1297
  389POSM   AM2 4560   7.666   3.424  14.370  0.0214 -0.0388 -0.2828
  389POSM   T1A 4561   7.347   3.771  14.517 -0.1470  0.2320 -0.1363
  389POSM   C2A 4562   7.176   3.715  14.925  0.0464  0.1442 -0.1127
  389POSM   C3A 4563   6.884   3.716  15.295 -0.0914  0.2517  0.0997
  389POSM   C1B 4564   7.762   3.508  14.712 -0.2241 -0.1099 -0.3972
  389POSM   D2B 4565   7.695   3.411  15.191 -0.0198  0.3596 -0.1070
  389POSM   C3B 4566   7.675   3.765  15.431 -0.1304  0.0925  0.1072
  389POSM   C4B 4567   8.017   4.035  15.598  0.1738 -0.0678  0.0226
  390DOPE   NH3 4568   5.752   3.014  13.296 -0.2016  0.3482  0.1669
  390DOPE   PO4 4569   5.855   3.003  13.582  0.2066 -0.0031 -0.1135
  390DOPE   GL1 4570   6.013   3.201  13.848  0.1269 -0.0594  0.0554
  390DOPE   GL2 4571   5.765   3.179  14.071 -0.0550  0.2134  0.2446
  390DOPE   C1A 4572   6.284   3.206  14.190  0.0780 -0.0182  0.1166
  390DOPE   D2A 4573   6.723   2.991  14.266  0.1446  0.0195 -0.0643
  390DOPE   C3A 4574   6.687   2.822  14.661 -0.0383  0.1901  0.0989
  390DOPE   C4A 4575   6.416   2.838  15.041 -0.0595 -0.1020  0.1741
  390DOPE   C1B 4576   5.560   3.106  14.450  0.1642 -0.4527  0.1340
  390DOPE   D2B 4577   5.537   3.221  14.923  0.1814 -0.1806 -0.1636
  390DOPE   C3B 4578   5.557   3.065  15.372  0.0905  0.0620  0.3044
  390DOPE   C4B 4579   5.628   3.207  15.797  0.2353  0.1048 -0.0854
  391DOPS   CNO 4580  34.177  10.419  10.890  0.0223  0.0918  0.0963
  391DOPS   PO4 4581  34.466  10.657  11.005 -0.0472 -0.3082 -0.4626
  391DOPS   GL1 4582  34.498  10.771  11.373  0.0835 -0.0789  0.2592
  391DOPS   GL2 4583  34.700  10.645  11.494  0.0497 -0.0383  0.0922
  391DOPS   C1A 4584  34.336  10.630  11.775 -0.2983 -0.2107  0.2761
  391DOPS   D2A 4585  34.213  10.814  12.188  0.1607  0.1163 -0.2372
  391DOPS   C3A 4586  34.468  10.848  12.549 -0.1292  0.0933 -0.0030
  391DOPS   C4A 4587  34.633  10.806  12.976  0.3226 -0.0066 -0.0728
  391DOPS   C1B 4588  35.093  10.863  11.593  0.2077  0.0505 -0.0686
  391DOPS   D2B 4589  35.403  11.013  11.865  0.0895 -0.1746  0.0884
  391DOPS   C3B 4590  35.468  11.069  12.310 -0.0120  0.2232  0.2726
  391DOPS   C4B 4591  35.314  11.140  12.784 -0.3484 -0.0495 -0.1091
  392DOPE   NH3 4592   5.566   5.541  13.981  0.0519 -0.1930  0.0001
  392DOPE   PO4 4593   5.772   5.301  13.900 -0.0757 -0.0679 -0.1773
  392DOPE   GL1 4594   5.738   5.285  14.309 -0.1287  0.1209  0.0648
  392DOPE   GL2 4595   5.616   5.512  14.455  0.1286  0.3773  0.0121
  392DOPE   C1A 4596   5.831   5.027  14.667  0.0011 -0.1755 -0.2004
  392DOPE   D2A 4597   5.596   5.119  15.084  0.1120  0.1462  0.0846
  392DOPE   C3A 4598   5.322   4.807  15.358  0.0054  0.0218  0.0867
  392DOPE   C4A 4599   5.349   4.496  15.740  0.4614  0.0629 -0.3611
  392DOPE   C1B 4600   5.305   5.427  14.741 -0.3100 -0.2958 -0.1745
  392DOPE   D2B 4601   5.058   5.151  15.015 -0.3260 -0.1204  0.0050
  392DOPE   C3B 4602   5.033   4.655  14.948 -0.0627 -0.0436  0.0030
  392DOPE   C4B 4603   4.655   4.294  14.799  0.2870  0.3297  0.1214
  393POSM   NC3 4604   1.291   2.263  12.196 -0.0288 -0.1404  0.0400
  393POSM   PO4 4605   0.910   2.219  12.220  0.0083  0.0227  0.2950
  393POSM   AM1 4606   0.894   2.121  12.536  0.2648  0.0220  0.0239
  393POSM   AM2 4607   1.090   2.149  12.718  0.1758 -0.0947 -0.0030
  393POSM   T1A 4608   0.770   1.777  12.883 -0.0129  0.0268 -0.0364
  393POSM   C2A 4609   0.804   1.696  13.360  0.3340  0.0636 -0.1682
  393POSM   C3A 4610   0.512   1.693  13.680 -0.1711  0.3243 -0.1218
  393POSM   C1B 4611   1.102   2.143  13.067 -0.0819 -0.0179 -0.2170
  393POSM   D2B 4612   1.121   2.347  13.467 -0.4354  0.2217 -0.0009
  393POSM   C3B 4613   0.883   2.144  13.773 -0.0544  0.1411 -0.2205
  393POSM   C4B 4614   0.720   1.842  14.094 -0.1313  0.0056 -0.3732
  394POSM   NC3 4615  33.636  10.487  10.933 -0.3572  0.1871 -0.0713
  394POSM   PO4 4616  33.873  10.795  10.715  0.0156  0.0521 -0.2872
  394POSM   AM1 4617  33.972  10.965  11.010  0.1633  0.0888  0.1801
  394POSM   AM2 4618  34.091  10.974  11.245 -0.0798  0.0534  0.0880
  394POSM   T1A 4619  34.071  11.459  11.147  0.1659  0.3202 -0.0588
  394POSM   C2A 4620  33.907  11.621  11.592 -0.1000  0.1114 -0.2102
  394POSM   C3A 4621  33.582  11.458  11.841  0.2133 -0.0881  0.2011
  394POSM   C1B 4622  34.002  10.939  11.555 -0.1345 -0.2782  0.0024
  394POSM   D2B 4623  33.717  10.870  11.915 -0.2641  0.1220 -0.1899
  394POSM   C3B 4624  33.761  11.006  12.403 -0.0042 -0.1603 -0.1185
  394POSM   C4B 4625  33.648  11.347  12.667 -0.0127  0.2677  0.1146
  395DOPC   NC3 4626   1.863   9.669  12.011  0.2076  0.2458 -0.2343
  395DOPC   PO4 4627   1.592   9.492  11.865 -0.1217 -0.0469  0.1324
  395DOPC   GL1 4628   1.587   9.997  11.938 -0.0118  0.1690 -0.0437
  395DOPC   GL2 4629   1.453   9.996  11.702  0.1188 -0.3023 -0.1816
  395DOPC   C1A 4630   1.263  10.096  12.313 -0.0993 -0.2378 -0.1370
  395DOPC   D2A 4631   1.185   9.961  12.729  0.1051  0.1051  0.1843
  395DOPC   C3A 4632   1.073   9.633  13.007 -0.1221 -0.3469  0.0198
  395DOPC   C4A 4633   0.673   9.394  13.065  0.3971  0.4212  0.0870
  395DOPC   C1B 4634   1.476  10.440  11.920 -0.0770 -0.0634  0.3400
  395DOPC   D2B 4635   1.197  10.613  12.277 -0.2430 -0.2027  0.1293
  395DOPC   C3B 4636   0.914  10.514  12.578 -0.1826  0.0673 -0.0748
  395DOPC   C4B 4637   0.604  10.699  12.883 -0.0229 -0.0838  0.2506
  396POSM   NC3 4638  32.363   7.815  11.549  0.1447  0.0739 -0.2354
  396POSM   PO4 4639  32.317   8.181  11.483 -0.2536 -0.0696 -0.0520
  396POSM   AM1 4640  32.331   8.334  11.791 -0.2207 -0.2267 -0.0477
  396POSM   AM2 4641  32.517   8.539  11.882 -0.0367 -0.2511  0.1142
  396POSM   T1A 4642  32.180   8.353  12.301  0.0796  0.2050 -0.0661
  396POSM   C2A 4643  32.213   8.495  12.759  0.0706  0.2321 -0.2877
  396POSM   C3A 4644  32.098   8.892  12.884  0.0655  0.4322  0.1776
  396POSM   C1B 4645  32.605   8.589  12.225  0.0679 -0.1314  0.0239
  396POSM   D2B 4646  32.767   8.599  12.636  0.1437 -0.1152 -0.1322
  396POSM   C3B 4647  32.621   8.777  12.967  0.3425  0.1903 -0.3637
  396POSM   C4B 4648  32.698   9.139  13.244 -0.3054  0.0847 -0.1526
  397DOPE   NH3 4649   4.592   2.068  12.859 -0.0257  0.1254 -0.1312
  397DOPE   PO4 4650   4.508   1.996  13.144 -0.2096  0.1548  0.0734
  397DOPE   GL1 4651   4.246   1.815  13.323 -0.1655 -0.2353  0.0055
  397DOPE   GL2 4652   4.391   1.661  13.462 -0.0956  0.0009 -0.1281
  397DOPE   C1A 4653   3.847   1.732  13.576 -0.0512 -0.0974  0.0195
  397DOPE   D2A 4654   3.546   1.789  13.974 -0.2707 -0.1295  0.1290
  397DOPE   C3A 4655   3.083   1.844  13.864  0.0594  0.2620 -0.1368
  397DOPE   C4A 4656   2.692   1.576  13.758  0.2523  0.2262  0.0034
  397DOPE   C1B 4657   4.625   1.315  13.723  0.0976  0.0163  0.5882
  397DOPE   D2B 4658   4.632   1.208  14.174  0.0619 -0.1835 -0.1598
  397DOPE   C3B 4659   4.797   1.086  14.594 -0.0109  0.0234  0.0877
  397DOPE   C4B 4660   4.692   1.121  15.028 -0.0119  0.0424  0.3493
  398DOPS   CNO 4661   2.820   6.353  12.855 -0.0971  0.1267 -0.1128
  398DOPS   PO4 4662   2.423   6.307  12.933  0.3062  0.1939  0.4020
  398DOPS   GL1 4663   2.244   6.211  13.330  0.0218  0.1678  0.1261
  398DOPS   GL2 4664   2.477   5.975  13.384 -0.1821  0.3800  0.0426
  398DOPS   C1A 4665   1.821   6.112  13.514 -0.0286  0.1959  0.1248
  398DOPS   D2A 4666   1.410   5.960  13.545 -0.0642  0.0711 -0.2021
  398DOPS   C3A 4667   1.322   5.969  13.997 -0.0184  0.0388  0.1690
  398DOPS   C4A 4668   1.325   5.788  14.386  0.1564  0.0881 -0.2441
  398DOPS   C1B 4669   2.379   6.118  13.827 -0.2005 -0.1536  0.0406
  398DOPS   D2B 4670   2.162   6.237  14.199  0.3219 -0.1508  0.0411
  398DOPS   C3B 4671   1.882   5.977  14.471  0.0913  0.1348  0.0679
  398DOPS   C4B 4672   1.634   5.921  14.799 -0.0063 -0.0125  0.1866
  399DOPC   NC3 4673   2.955   8.973  12.627 -0.0549 -0.2900 -0.1559
  399DOPC   PO4 4674   2.630   8.856  12.473 -0.0525 -0.0581  0.1110
  399DOPC   GL1 4675   2.467   8.985  12.802 -0.0405  0.0522  0.2593
  399DOPC   GL2 4676   2.230   8.774  12.792  0.0773 -0.1412  0.0817
  399DOPC   C1A 4677   2.576   8.857  13.218 -0.2047  0.2685 -0.0235
  399DOPC   D2A 4678   2.590   8.689  13.667 -0.2651  0.1424 -0.0540
  399DOPC   C3A 4679   2.377   8.647  14.100  0.2167  0.1097  0.2885
  399DOPC   C4A 4680   2.154   8.425  14.409  0.1406 -0.1462 -0.1153
  399DOPC   C1B 4681   2.074   9.104  13.047 -0.0321  0.0502  0.4125
  399DOPC   D2B 4682   1.879   9.261  13.433  0.0062 -0.2471 -0.0464
  399DOPC   C3B 4683   2.049   9.265  13.874  0.1820  0.0335  0.1855
  399DOPC   C4B 4684   1.966   9.566  14.231 -0.2995 -0.0147  0.1163
  400DOPC   NC3 4685   7.531   9.110  12.203  0.4120  0.1389 -0.1753
  400DOPC   PO4 4686   7.781   9.293  12.466 -0.1295  0.0866  0.0614
  400DOPC   GL1 4687   8.037   9.599  12.580 -0.1000 -0.0227 -0.0119
  400DOPC   GL2 4688   8.256   9.570  12.394  0.1012 -0.0591 -0.1104
  400DOPC   C1A 4689   8.025  10.025  12.582  0.1612 -0.0665  0.0537
  400DOPC   D2A 4690   7.958  10.344  12.883 -0.0261  0.1973 -0.2425
  400DOPC   C3A 4691   7.808  10.376  13.298  0.0214  0.0997  0.2204
  400DOPC   C4A 4692   7.632  10.437  13.710  0.1179  0.1952 -0.2600
  400DOPC   C1B 4693   8.479   9.653  12.771 -0.0929 -0.0401 -0.4029
  400DOPC   D2B 4694   8.763   9.529  13.120 -0.1648  0.2933  0.0453
  400DOPC   C3B 4695   8.904   9.430  13.509  0.0149  0.0947 -0.2659
  400DOPC   C4B 4696   9.109   9.745  13.739  0.1082  0.3084 -0.2301
  401DOPC   NC3 4697   2.688   5.845  12.781  0.1976  0.0085 -0.0116
  401DOPC   PO4 4698   2.419   5.581  12.946 -0.1443 -0.1255  0.0071
  401DOPC   GL1 4699   2.676   5.593  13.252  0.1025 -0.0062 -0.2305
  401DOPC   GL2 4700   2.515   5.402  13.376  0.0153  0.0310 -0.2076
  401DOPC   C1A 4701   2.729   5.701  13.759  0.0362  0.0472  0.0688
  401DOPC   D2A 4702   2.827   5.732  14.214 -0.1684  0.1642  0.1032
  401DOPC   C3A 4703   2.710   6.266  14.257  0.0045 -0.1843 -0.1749
  401DOPC   C4A 4704   2.438   6.443  14.560 -0.0350  0.1996 -0.0331
  401DOPC   C1B 4705   2.225   5.697  13.601 -0.1803 -0.1545  0.2308
  401DOPC   D2B 4706   1.876   5.865  13.927  0.0126  0.0799  0.1482
  401DOPC   C3B 4707   1.762   5.558  14.217 -0.1152 -0.1792  0.0478
  401DOPC   C4B 4708   1.664   5.200  14.509 -0.0284 -0.0324  0.1002
  402DOPS   CNO 4709   4.194   6.821  13.380  0.2296  0.0098  0.1837
  402DOPS   PO4 4710   4.388   7.132  13.549  0.4599  0.0495  0.1932
  402DOPS   GL1 4711   4.298   6.881  13.858 -0.0748  0.0269  0.1078
  402DOPS   GL2 4712   4.231   7.061  14.028 -0.3588 -0.0617  0.1973
  402DOPS   C1A 4713   4.435   6.619  14.245  0.3248  0.0130  0.3901
  402DOPS   D2A 4714   4.349   6.449  14.672  0.2016  0.0123 -0.1004
  402DOPS   C3A 4715   3.956   6.603  14.717 -0.2216 -0.2873 -0.2017
  402DOPS   C4A 4716   3.691   6.990  14.615  0.1856 -0.1349 -0.1783
  402DOPS   C1B 4717   4.454   7.460  14.166  0.1489 -0.0048 -0.0826
  402DOPS   D2B 4718   4.308   7.922  14.166  0.0159 -0.2485  0.0924
  402DOPS   C3B 4719   4.072   7.968  14.519 -0.2702 -0.3490  0.2790
  402DOPS   C4B 4720   4.064   8.122  14.950  0.0750  0.2754  0.0685
  403POSM   NC3 4721   1.621   0.656  12.113 -0.0166 -0.1172  0.3176
  403POSM   PO4 4722   2.018   0.738  12.124  0.0191 -0.0236  0.1951
  403POSM   AM1 4723   2.010   0.715  12.468 -0.1378  0.0541 -0.1200
  403POSM   AM2 4724   1.907   0.870  12.649  0.0126 -0.1908  0.2444
  403POSM   T1A 4725   2.149   0.434  12.837 -0.0031  0.1890  0.1291
  403POSM   C2A 4726   1.966   0.271  13.201  0.0325 -0.1294 -0.0494
  403POSM   C3A 4727   2.046  -0.105  13.449  0.1994  0.4314  0.0410
  403POSM   C1B 4728   1.941   1.006  12.945 -0.2008  0.3021 -0.0289
  403POSM   D2B 4729   2.037   1.191  13.347 -0.1826  0.2437 -0.1416
  403POSM   C3B 4730   1.832   1.442  13.656 -0.4161 -0.0057 -0.0070
  403POSM   C4B 4731   1.721   1.687  14.068  0.0056  0.1618 -0.1813
  404POSM   NC3 4732   5.135   9.786  11.498 -0.0818  0.1202 -0.2510
  404POSM   PO4 4733   5.217  10.066  11.788 -0.2018  0.4317 -0.0524
  404POSM   AM1 4734   5.284  10.260  12.045 -0.0551 -0.1290  0.1291
  404POSM   AM2 4735   5.152  10.518  12.164  0.3323  0.3125  0.1247
  404POSM   T1A 4736   5.730  10.412  12.269  0.1496  0.1021 -0.2139
  404POSM   C2A 4737   6.136  10.478  12.424 -0.1987 -0.1413  0.0398
  404POSM   C3A 4738   6.519  10.690  12.432  0.2885 -0.0044 -0.2094
  404POSM   C1B 4739   5.028  10.450  12.456 -0.1751 -0.0042  0.1367
  404POSM   D2B 4740   4.938  10.331  12.879 -0.0620 -0.2778 -0.1130
  404POSM   C3B 4741   4.683  10.651  13.163  0.1170 -0.2268 -0.3100
  404POSM   C4B 4742   4.309  10.717  13.518  0.2652  0.3488  0.0898
  405DOPE   NH3 4743  33.652   7.143  11.645  0.1095  0.0848  0.0874
  405DOPE   PO4 4744  33.899   7.199  11.881  0.0954 -0.1096 -0.0361
  405DOPE   GL1 4745  34.072   7.259  12.181  0.3026  0.6552 -0.1354
  405DOPE   GL2 4746  34.373   7.213  12.117  0.2463 -0.1694 -0.3302
  405DOPE   C1A 4747  34.155   7.622  12.494  0.2682  0.2232  0.1298
  405DOPE   D2A 4748  34.120   7.866  12.943  0.1301  0.1140  0.1284
  405DOPE   C3A 4749  33.738   7.797  13.170  0.0205  0.1221  0.2429
  405DOPE   C4A 4750  33.700   7.352  13.199 -0.1783 -0.1271  0.1400
  405DOPE   C1B 4751  34.272   7.101  12.589  0.1363 -0.0279  0.0364
  405DOPE   D2B 4752  34.159   7.345  13.032  0.0375  0.0056 -0.2859
  405DOPE   C3B 4753  34.038   7.146  13.462  0.3581 -0.2000 -0.1677
  405DOPE   C4B 4754  33.735   6.994  13.782  0.0311  0.0735  0.1449
  406DOPC   NC3 4755   6.695   0.058  12.971  0.0065 -0.2108 -0.3453
  406DOPC   PO4 4756   6.829   0.237  13.250 -0.2897 -0.0027  0.1864
  406DOPC   GL1 4757   6.700   0.033  13.586  0.1252  0.0435 -0.2171
  406DOPC   GL2 4758   6.627  -0.213  13.454 -0.1804 -0.0886  0.0445
  406DOPC   C1A 4759   6.618  -0.147  14.016  0.1626 -0.0357 -0.1914
  406DOPC   D2A 4760   6.357  -0.319  14.359  0.1228  0.0433 -0.0460
  406DOPC   C3A 4761   6.188  -0.646  14.618  0.3022 -0.2118  0.0662
  406DOPC   C4A 4762   6.197  -1.087  14.537  0.0350 -0.0588  0.4683
  406DOPC   C1B 4763   6.419  -0.520  13.708  0.2780 -0.1252 -0.1634
  406DOPC   D2B 4764   6.617  -0.746  14.013 -0.1422 -0.0036 -0.0796
  406DOPC   C3B 4765   6.661  -0.823  14.457  0.2861  0.2250 -0.3882
  406DOPC   C4B 4766   6.584  -0.825  14.971 -0.2648 -0.1412 -0.1301
  407POSM   NC3 4767  11.510   4.022  12.439 -0.1398  0.0943 -0.1655
  407POSM   PO4 4768  11.132   3.978  12.611 -0.1277  0.0762  0.0445
  407POSM   AM1 4769  11.130   4.105  12.907  0.0432 -0.0437 -0.2010
  407POSM   AM2 4770  11.128   3.967  13.205 -0.0115  0.1658 -0.1881
  407POSM   T1A 4771  11.369   4.446  13.228 -0.0185 -0.3003 -0.0288
  407POSM   C2A 4772  11.707   4.640  13.476  0.1123 -0.0678  0.0488
  407POSM   C3A 4773  11.769   4.714  13.936  0.1096  0.0486  0.0438
  407POSM   C1B 4774  11.185   3.833  13.558  0.1957  0.0419 -0.0463
  407POSM   D2B 4775  10.918   3.721  13.903  0.0335  0.2482 -0.0429
  407POSM   C3B 4776  10.951   3.601  14.338  0.0174 -0.1582  0.1773
  407POSM   C4B 4777  10.796   3.525  14.796 -0.0264  0.0143  0.0727
  408POSM   NC3 4778   4.728   6.849  13.302  0.3102  0.3846  0.1690
  408POSM   PO4 4779   4.932   7.166  13.273  0.3890 -0.0820 -0.0502
  408POSM   AM1 4780   4.981   7.248  13.595 -0.0269  0.5539  0.1132
  408POSM   AM2 4781   5.234   7.243  13.754  0.0346 -0.1647 -0.0148
  408POSM   T1A 4782   4.877   7.492  13.974  0.0907 -0.1177 -0.0826
  408POSM   C2A 4783   4.790   7.835  14.284 -0.0460  0.1005 -0.2696
  408POSM   C3A 4784   4.569   8.031  14.592 -0.0865  0.0147  0.1928
  408POSM   C1B 4785   5.348   7.369  14.041  0.1209 -0.1001 -0.0303
  408POSM   D2B 4786   5.486   7.360  14.471 -0.3062 -0.0054  0.0595
  408POSM   C3B 4787   5.800   7.047  14.563 -0.2682  0.1943 -0.2076
  408POSM   C4B 4788   6.049   6.756  14.800 -0.1402  0.1364  0.0592
  409DOPC   NC3 4789   2.660  21.290  14.045  0.1764 -0.2067  0.0892
  409DOPC   PO4 4790   2.310  21.375  13.876 -0.0163 -0.0473 -0.0257
  409DOPC   GL1 4791   2.573  21.509  13.608 -0.0541 -0.2975  0.2570
  409DOPC   GL2 4792   2.777  21.289  13.544  0.0090 -0.0774 -0.0747
  409DOPC   C1A 4793   2.541  21.821  13.283  0.0603  0.1176  0.3904
  409DOPC   D2A 4794   2.664  22.039  12.900 -0.2140  0.1066  0.1515
  409DOPC   C3A 4795   2.922  21.694  12.677 -0.4377 -0.0860 -0.4102
  409DOPC   C4A 4796   2.804  21.435  12.336 -0.1426 -0.0387  0.0741
  409DOPC   C1B 4797   2.912  20.982  13.224  0.2102  0.4772 -0.1418
  409DOPC   D2B 4798   2.906  20.663  12.920  0.1401 -0.0254 -0.1588
  409DOPC   C3B 4799   2.754  20.629  12.444  0.0264 -0.2680  0.0370
  409DOPC   C4B 4800   2.881  20.471  12.052 -0.2263  0.0476  0.0515
  410DOPC   NC3 4801   7.926  15.858  13.442  0.0415  0.3914 -0.0701
  410DOPC   PO4 4802   7.959  15.539  13.685 -0.3298  0.0421  0.1303
  410DOPC   GL1 4803   7.684  15.376  13.394 -0.2060 -0.2051 -0.0030
  410DOPC   GL2 4804   7.682  15.531  13.169 -0.3317 -0.1819  0.1063
  410DOPC   C1A 4805   7.885  15.112  13.086  0.0453 -0.0388 -0.0526
  410DOPC   D2A 4806   8.203  14.830  12.814 -0.0634  0.0066  0.0359
  410DOPC   C3A 4807   8.010  14.415  12.943  0.0149  0.4358 -0.2533
  410DOPC   C4A 4808   7.792  13.963  13.051 -0.0916  0.0662  0.2400
  410DOPC   C1B 4809   7.671  15.763  12.793 -0.3281  0.1330  0.1778
  410DOPC   D2B 4810   7.873  16.184  12.621  0.1372  0.0536  0.1940
  410DOPC   C3B 4811   7.722  15.969  12.242  0.1809  0.0364  0.1081
  410DOPC   C4B 4812   7.400  15.883  11.879 -0.0857  0.0599  0.0571
  411DOPE   NH3 4813   9.247  18.182  13.286  0.4251  0.0811  0.1028
  411DOPE   PO4 4814   9.282  18.258  12.962 -0.0918 -0.2973 -0.0002
  411DOPE   GL1 4815   9.321  18.171  12.553  0.2893 -0.2687  0.1018
  411DOPE   GL2 4816   9.207  18.438  12.441 -0.2961 -0.0340  0.0433
  411DOPE   C1A 4817   9.351  18.123  12.108  0.0416 -0.1197 -0.0746
  411DOPE   D2A 4818   9.320  18.164  11.632 -0.0500 -0.0306 -0.0144
  411DOPE   C3A 4819   9.664  18.345  11.387  0.1034 -0.0396 -0.1974
  411DOPE   C4A 4820   9.870  18.676  11.223  0.1945 -0.0184  0.0616
  411DOPE   C1B 4821   9.509  18.579  12.119 -0.2783  0.3395  0.1601
  411DOPE   D2B 4822   9.744  18.788  11.854  0.2054 -0.3868 -0.0103
  411DOPE   C3B 4823   9.576  19.001  11.469  0.2387 -0.0742 -0.3153
  411DOPE   C4B 4824   9.480  19.017  11.018 -0.0420 -0.2394 -0.3035
  412DOPE   NH3 4825   2.810  21.992  14.089  0.1268 -0.2709 -0.0211
  412DOPE   PO4 4826   2.602  21.751  14.049 -0.0146  0.2036 -0.0717
  412DOPE   GL1 4827   2.595  22.046  13.716 -0.0174 -0.0582  0.2296
  412DOPE   GL2 4828   2.941  21.978  13.544 -0.2163  0.1645  0.0969
  412DOPE   C1A 4829   2.597  22.332  13.320 -0.2819  0.2826  0.0589
  412DOPE   D2A 4830   2.287  22.298  12.972  0.2227 -0.0613  0.0642
  412DOPE   C3A 4831   2.057  22.414  12.596  0.0652  0.2657 -0.2657
  412DOPE   C4A 4832   2.060  22.236  12.186 -0.2182  0.0774  0.0375
  412DOPE   C1B 4833   2.968  21.633  13.165  0.0634  0.2453 -0.1600
  412DOPE   D2B 4834   3.327  21.527  12.883 -0.1412  0.4267  0.0557
  412DOPE   C3B 4835   3.339  21.712  12.499 -0.0059 -0.1353  0.2325
  412DOPE   C4B 4836   3.470  21.895  12.087 -0.0026 -0.4045  0.0045
  413DOPC   NC3 4837  11.863  23.350  13.865 -0.1332 -0.1123  0.0703
  413DOPC   PO4 4838  11.769  22.995  13.701  0.0661  0.1317  0.0392
  413DOPC   GL1 4839  11.596  22.990  13.422  0.3327  0.0273 -0.1419
  413DOPC   GL2 4840  11.514  22.697  13.296 -0.3126  0.1446  0.0455
  413DOPC   C1A 4841  11.349  23.314  13.130  0.0226 -0.1076 -0.2430
  413DOPC   D2A 4842  11.406  23.480  12.725 -0.0376  0.0932  0.1146
  413DOPC   C3A 4843  11.831  23.646  12.551  0.0365 -0.0490 -0.1191
  413DOPC   C4A 4844  12.005  23.674  12.133  0.2363 -0.1763  0.2263
  413DOPC   C1B 4845  11.293  22.628  12.889  0.0298  0.0443  0.0123
  413DOPC   D2B 4846  11.259  22.431  12.450  0.0703  0.0559  0.3105
  413DOPC   C3B 4847  11.444  22.685  12.050 -0.0128  0.1737 -0.2470
  413DOPC   C4B 4848  11.342  22.944  11.714  0.0570  0.2465 -0.0867
  414DOPC   NC3 4849  11.718  21.838  13.114 -0.0758 -0.0616 -0.0920
  414DOPC   PO4 4850  11.426  21.651  13.233 -0.1291 -0.1684  0.1779
  414DOPC   GL1 4851  11.162  21.673  12.839  0.1185  0.1873 -0.1369
  414DOPC   GL2 4852  11.434  21.574  12.690 -0.0934  0.4181 -0.4547
  414DOPC   C1A 4853  10.933  21.320  12.639  0.1705 -0.1449  0.0279
  414DOPC   D2A 4854  10.919  21.002  12.243 -0.1619 -0.3619 -0.1300
  414DOPC   C3A 4855  11.006  21.106  11.823  0.0106 -0.2202  0.2471
  414DOPC   C4A 4856  10.666  21.212  11.476 -0.0029  0.1738 -0.1108
  414DOPC   C1B 4857  11.673  21.633  12.283 -0.2071  0.0810 -0.1243
  414DOPC   D2B 4858  12.004  21.635  12.013 -0.0764  0.0348  0.1221
  414DOPC   C3B 4859  12.248  21.782  11.675  0.2246 -0.1589 -0.3920
  414DOPC   C4B 4860  12.731  21.734  11.682  0.2498  0.3410 -0.5241
  415POSM   NC3 4861   3.471  15.822  14.119  0.1381  0.0015 -0.3041
  415POSM   PO4 4862   3.309  15.483  13.945  0.0428  0.0625 -0.2039
  415POSM   AM1 4863   3.349  15.265  13.670 -0.1122  0.3003  0.1463
  415POSM   AM2 4864   3.186  15.140  13.487 -0.1719  0.1253 -0.3722
  415POSM   T1A 4865   3.593  15.237  13.235 -0.2585 -0.3375  0.1265
  415POSM   C2A 4866   3.890  14.974  12.967 -0.1955  0.1065  0.1894
  415POSM   C3A 4867   4.228  14.638  12.901 -0.1701  0.1936 -0.3283
  415POSM   C1B 4868   3.162  15.117  13.154 -0.0336 -0.0473  0.2737
  415POSM   D2B 4869   3.093  15.000  12.699 -0.1319  0.0645  0.3529
  415POSM   C3B 4870   3.523  14.814  12.640  0.2230 -0.1871 -0.1052
  415POSM   C4B 4871   3.868  14.502  12.556  0.1069 -0.2433  0.0952
  416DOPS   CNO 4872   9.483  19.541  13.535 -0.3008  0.0118  0.0879
  416DOPS   PO4 4873   9.767  19.334  13.401  0.3118  0.0400 -0.0467
  416DOPS   GL1 4874   9.704  19.523  13.026 -0.0580 -0.0494  0.1202
  416DOPS   GL2 4875   9.453  19.579  12.989 -0.0013  0.0741 -0.2863
  416DOPS   C1A 4876  10.032  19.557  12.654 -0.2044 -0.4072 -0.1231
  416DOPS   D2A 4877  10.091  19.709  12.196 -0.2862  0.1013 -0.0587
  416DOPS   C3A 4878  10.006  19.965  11.825  0.0145  0.0531 -0.0392
  416DOPS   C4A 4879   9.986  20.035  11.317 -0.1552 -0.1676 -0.3356
  416DOPS   C1B 4880   9.205  19.669  12.656 -0.1148 -0.0971 -0.2282
  416DOPS   D2B 4881   8.808  19.419  12.504  0.0912 -0.1409  0.0084
  416DOPS   C3B 4882   8.497  19.634  12.204  0.0342  0.3698 -0.1131
  416DOPS   C4B 4883   8.278  19.931  12.001 -0.3727  0.0421  0.1532
  417DOPC   NC3 4884   6.354  13.629  14.803 -0.0611 -0.0561  0.0743
  417DOPC   PO4 4885   6.491  13.793  14.491 -0.1274  0.2895 -0.0592
  417DOPC   GL1 4886   6.704  13.441  14.175  0.0280  0.3692 -0.4745
  417DOPC   GL2 4887   6.609  13.591  13.880 -0.0343  0.3683 -0.0866
  417DOPC   C1A 4888   6.686  13.000  13.971  0.1006 -0.0200  0.0650
  417DOPC   D2A 4889   6.896  12.759  13.660 -0.3057  0.2089  0.0654
  417DOPC   C3A 4890   6.858  12.445  13.292 -0.0550  0.0335  0.0893
  417DOPC   C4A 4891   7.211  12.337  12.970  0.1501  0.2845 -0.1100
  417DOPC   C1B 4892   6.579  13.407  13.421  0.0095  0.1531  0.0232
  417DOPC   D2B 4893   6.529  13.439  12.916  0.0570  0.1324  0.0232
  417DOPC   C3B 4894   6.123  13.281  12.713  0.0556 -0.0300  0.0501
  417DOPC   C4B 4895   5.707  13.312  12.546 -0.0348 -0.3159  0.0311
  418DOPE   NH3 4896   0.752  19.245  13.655 -0.0547 -0.1680  0.0828
  418DOPE   PO4 4897   0.928  19.476  13.563  0.2293  0.2517 -0.2166
  418DOPE   GL1 4898   1.251  19.402  13.278 -0.2924  0.1090  0.1844
  418DOPE   GL2 4899   1.126  19.585  13.078  0.1544 -0.1496 -0.0337
  418DOPE   C1A 4900   1.364  19.093  12.943 -0.1194  0.0142 -0.0348
  418DOPE   D2A 4901   1.303  18.887  12.540  0.1884  0.1545 -0.0579
  418DOPE   C3A 4902   1.226  18.951  12.074  0.0698 -0.2374  0.1036
  418DOPE   C4A 4903   1.205  18.859  11.645 -0.1737 -0.0157  0.2628
  418DOPE   C1B 4904   1.354  19.531  12.729  0.0245  0.0611 -0.0263
  418DOPE   D2B 4905   1.631  19.560  12.367 -0.2220 -0.1960  0.1664
  418DOPE   C3B 4906   1.690  19.923  12.121  0.1104  0.0595 -0.0472
  418DOPE   C4B 4907   1.865  20.129  11.729 -0.1411 -0.2713 -0.3941
  419POSM   NC3 4908   9.060  19.835  13.109 -0.0245  0.3893 -0.1402
  419POSM   PO4 4909   8.691  19.842  13.235 -0.2229  0.0844  0.1892
  419POSM   AM1 4910   8.613  19.848  12.938 -0.1587 -0.0262  0.1196
  419POSM   AM2 4911   8.393  19.784  12.801 -0.1227 -0.0189  0.1230
  419POSM   T1A 4912   8.745  19.991  12.456  0.2056 -0.2277 -0.2689
  419POSM   C2A 4913   8.761  19.965  11.990  0.1171  0.2310 -0.1354
  419POSM   C3A 4914   9.077  19.833  11.620  0.2104  0.2230  0.0356
  419POSM   C1B 4915   8.286  20.061  12.616 -0.0811 -0.0121 -0.2486
  419POSM   D2B 4916   8.246  20.361  12.239 -0.1001  0.1530 -0.0458
  419POSM   C3B 4917   8.344  20.380  11.750 -0.1567 -0.0298  0.2740
  419POSM   C4B 4918   8.412  20.782  11.508  0.0785  0.0141 -0.2424
  420DOPS   CNO 4919   8.610  20.633  13.248 -0.0088 -0.0710 -0.0042
  420DOPS   PO4 4920   8.252  20.658  13.323 -0.1105 -0.1915  0.3802
  420DOPS   GL1 4921   8.340  20.599  12.948  0.2123 -0.0707 -0.0393
  420DOPS   GL2 4922   8.102  20.490  12.821 -0.0381  0.2090 -0.3034
  420DOPS   C1A 4923   8.591  20.584  12.564  0.0883 -0.1254  0.1747
  420DOPS   D2A 4924   8.831  20.478  12.191  0.0201 -0.3720 -0.0409
  420DOPS   C3A 4925   8.755  20.678  11.829 -0.1342 -0.2787 -0.2043
  420DOPS   C4A 4926   8.984  20.856  11.498 -0.0671  0.0521  0.0753
  420DOPS   C1B 4927   7.895  20.615  12.453  0.0791 -0.0236 -0.0972
  420DOPS   D2B 4928   7.831  20.567  12.019 -0.2358  0.4023  0.0072
  420DOPS   C3B 4929   7.976  20.925  11.709  0.1728 -0.1600  0.1942
  420DOPS   C4B 4930   8.073  21.294  11.405 -0.0856  0.2467 -0.0516
  421DOPC   NC3 4931   9.895  13.859  13.710  0.1547  0.0169 -0.1002
  421DOPC   PO4 4932   9.711  13.583  13.922  0.0929  0.2864  0.3166
  421DOPC   GL1 4933   9.476  13.249  13.647 -0.1497 -0.0354 -0.3721
  421DOPC   GL2 4934   9.745  13.267  13.549 -0.2107 -0.0447 -0.1418
  421DOPC   C1A 4935   9.219  13.036  13.308 -0.0448  0.2466  0.1364
  421DOPC   D2A 4936   8.911  12.767  13.062 -0.1755  0.0361 -0.0395
  421DOPC   C3A 4937   8.990  12.309  12.858  0.1654 -0.4944  0.2774
  421DOPC   C4A 4938   8.947  11.907  12.718  0.2700  0.1329 -0.2566
  421DOPC   C1B 4939   9.802  12.998  13.167 -0.0876  0.2501 -0.0898
  421DOPC   D2B 4940  10.021  12.622  13.086  0.3005  0.2738 -0.1647
  421DOPC   C3B 4941  10.063  12.459  12.606  0.2104 -0.0940  0.1013
  421DOPC   C4B 4942   9.998  12.567  12.150 -0.2684 -0.2169 -0.0534
  422DOPE   NH3 4943   4.562  15.704  13.971 -0.1458  0.0294 -0.1821
  422DOPE   PO4 4944   4.749  15.420  13.986  0.0088  0.0289  0.2891
  422DOPE   GL1 4945   4.949  15.498  13.563 -0.3448  0.1773 -0.1833
  422DOPE   GL2 4946   4.764  15.737  13.509 -0.0668 -0.3748  0.2415
  422DOPE   C1A 4947   4.914  15.505  13.092 -0.1274  0.0212 -0.1121
  422DOPE   D2A 4948   5.066  15.655  12.693  0.1067 -0.1143  0.1867
  422DOPE   C3A 4949   4.955  15.698  12.269 -0.2190  0.0922  0.3218
  422DOPE   C4A 4950   4.637  15.819  11.941 -0.1727 -0.2333  0.2982
  422DOPE   C1B 4951   4.436  15.899  13.253 -0.4665 -0.3874 -0.2023
  422DOPE   D2B 4952   4.499  16.192  12.916 -0.2177  0.0762  0.1110
  422DOPE   C3B 4953   4.713  16.516  12.649  0.1274 -0.0931  0.0780
  422DOPE   C4B 4954   4.653  16.838  12.262  0.0196 -0.0834 -0.1957
  423DOPE   NH3 4955   3.334  17.546  13.806 -0.0520 -0.1365 -0.1673
  423DOPE   PO4 4956   3.232  17.252  13.961  0.0360  0.1019  0.5647
  423DOPE   GL1 4957   3.292  17.116  13.587  0.0618  0.4338  0.4523
  423DOPE   GL2 4958   3.437  17.282  13.388 -0.1439 -0.3547  0.0774
  423DOPE   C1A 4959   3.102  17.034  13.138  0.1012 -0.0706 -0.2106
  423DOPE   D2A 4960   3.176  16.837  12.703  0.3492  0.1112  0.0241
  423DOPE   C3A 4961   3.327  17.184  12.433 -0.1016  0.2479  0.3772
  423DOPE   C4A 4962   3.482  17.211  12.033  0.1446 -0.0175 -0.0800
  423DOPE   C1B 4963   3.453  17.404  12.925  0.2865 -0.1028 -0.1498
  423DOPE   D2B 4964   3.287  17.660  12.540 -0.0014 -0.0284  0.2964
  423DOPE   C3B 4965   3.606  17.687  12.269 -0.0427 -0.0063 -0.0793
  423DOPE   C4B 4966   3.874  17.831  11.986 -0.2325 -0.0383 -0.1617
  424DOPC   NC3 4967  10.502  20.981  13.011  0.0734 -0.1491 -0.1783
  424DOPC   PO4 4968  10.587  21.298  13.166  0.1212 -0.5052  0.0759
  424DOPC   GL1 4969  10.668  21.543  12.895 -0.1653 -0.0205  0.2030
  424DOPC   GL2 4970  10.687  21.816  12.960 -0.1513 -0.0652 -0.1392
  424DOPC   C1A 4971  10.576  21.788  12.471  0.0403  0.0674 -0.0628
  424DOPC   D2A 4972  10.674  22.157  12.368  0.0227  0.0857 -0.0897
  424DOPC   C3A 4973  10.425  22.366  12.108 -0.0003  0.2757  0.2206
  424DOPC   C4A 4974  10.463  22.757  11.815  0.1872 -0.0372 -0.1045
  424DOPC   C1B 4975  10.361  22.096  12.848 -0.1019  0.0978 -0.0252
  424DOPC   D2B 4976  10.034  22.217  12.526  0.0848  0.0477  0.0250
  424DOPC   C3B 4977   9.643  22.306  12.394 -0.0382 -0.0376  0.2604
  424DOPC   C4B 4978   9.206  22.299  12.349  0.1845  0.0451  0.3466
  425POSM   NC3 4979   8.974  16.515  13.027  0.0422  0.0275 -0.1172
  425POSM   PO4 4980   9.079  16.912  13.050 -0.0616 -0.1537  0.1048
  425POSM   AM1 4981   9.264  16.923  12.779 -0.2157 -0.1462  0.1260
  425POSM   AM2 4982   9.305  16.768  12.556  0.0247  0.0349  0.1622
  425POSM   T1A 4983   9.471  17.215  12.412  0.4803 -0.5011  0.0368
  425POSM   C2A 4984   9.503  17.633  12.216 -0.3595 -0.1490 -0.3510
  425POSM   C3A 4985   9.246  17.667  11.818 -0.1079  0.0978 -0.1807
  425POSM   C1B 4986   9.178  16.803  12.254  0.1357 -0.0076  0.0644
  425POSM   D2B 4987   8.938  16.519  11.933  0.1428  0.0100  0.2817
  425POSM   C3B 4988   8.513  16.619  11.785  0.2603  0.2072  0.1637
  425POSM   C4B 4989   8.328  16.493  11.387 -0.3558  0.0577 -0.1153
  426DOPE   NH3 4990   1.140  23.587  14.716  0.1912  0.2335  0.0275
  426DOPE   PO4 4991   0.865  23.468  14.669 -0.2824 -0.0673  0.0089
  426DOPE   GL1 4992   0.827  23.392  14.268  0.1412 -0.2572 -0.0732
  426DOPE   GL2 4993   0.789  23.108  14.270 -0.1806  0.3018  0.1821
  426DOPE   C1A 4994   0.937  23.674  13.928 -0.1876 -0.2036 -0.0364
  426DOPE   D2A 4995   0.838  23.755  13.496  0.1073  0.1796  0.0425
  426DOPE   C3A 4996   0.939  23.641  13.065  0.1851 -0.0332  0.2602
  426DOPE   C4A 4997   1.114  23.282  12.796  0.1938 -0.0407 -0.1653
  426DOPE   C1B 4998   0.973  23.144  13.859 -0.0959  0.0223 -0.1561
  426DOPE   D2B 4999   0.863  22.999  13.404  0.1379 -0.1290 -0.0504
  426DOPE   C3B 5000   1.017  22.779  13.009  0.3336  0.2843 -0.3165
  426DOPE   C4B 5001   1.196  22.809  12.622  0.3946  0.1679  0.1746
  427DOPS   CNO 5002   4.401  13.469  14.842  0.0592 -0.1908 -0.2138
  427DOPS   PO4 5003   4.195  13.221  14.708 -0.5070  0.0963  0.2709
  427DOPS   GL1 5004   4.104  13.126  14.298 -0.0893 -0.2252  0.0877
  427DOPS   GL2 5005   4.387  13.228  14.254  0.2541  0.0615  0.1952
  427DOPS   C1A 5006   4.243  12.797  13.956  0.1567  0.0208 -0.2556
  427DOPS   D2A 5007   4.088  12.374  13.882  0.0331  0.0944  0.2451
  427DOPS   C3A 5008   4.081  12.168  13.494 -0.1277  0.2093 -0.2293
  427DOPS   C4A 5009   4.252  11.728  13.550 -0.1503 -0.0594  0.1631
  427DOPS   C1B 5010   4.675  13.070  13.981 -0.2929  0.1223  0.0217
  427DOPS   D2B 5011   4.696  12.916  13.571 -0.0182 -0.2729 -0.0310
  427DOPS   C3B 5012   4.446  12.965  13.181  0.1265 -0.1180 -0.4180
  427DOPS   C4B 5013   4.252  12.891  12.770 -0.1427 -0.2382  0.0667
  428POSM   NC3 5014   7.583  19.265  13.458  0.1601 -0.0242  0.4225
  428POSM   PO4 5015   7.194  19.398  13.479 -0.0165  0.0369 -0.1397
  428POSM   AM1 5016   7.028  19.498  13.205 -0.4135 -0.4486  0.0006
  428POSM   AM2 5017   6.878  19.445  12.982  0.0962 -0.0675 -0.0468
  428POSM   T1A 5018   7.199  19.842  12.901  0.2798 -0.1966 -0.0815
  428POSM   C2A 5019   7.320  20.003  12.478  0.0230  0.1962 -0.2544
  428POSM   C3A 5020   7.246  20.145  12.026  0.1962  0.0057 -0.4034
  428POSM   C1B 5021   6.829  19.485  12.637  0.1713  0.2473  0.0695
  428POSM   D2B 5022   6.519  19.621  12.304  0.0224 -0.1462  0.0996
  428POSM   C3B 5023   6.386  19.945  12.069 -0.0149  0.1057 -0.0363
  428POSM   C4B 5024   6.163  19.910  11.615 -0.1407  0.1587  0.1776
  429POSM   NC3 5025   5.507  17.480  13.824 -0.1583 -0.1982 -0.1518
  429POSM   PO4 5026   5.291  17.269  13.559  0.0934 -0.3631  0.0880
  429POSM   AM1 5027   5.345  17.232  13.267 -0.0553  0.0103  0.2817
  429POSM   AM2 5028   5.269  17.326  12.996  0.3716  0.1020 -0.1979
  429POSM   T1A 5029   5.390  16.888  12.873 -0.1291  0.1690  0.0450
  429POSM   C2A 5030   5.109  16.762  12.503 -0.0028 -0.1779  0.2809
  429POSM   C3A 5031   5.004  16.381  12.294 -0.1985 -0.1522 -0.1447
  429POSM   C1B 5032   5.018  17.491  12.803 -0.4176  0.0609 -0.0842
  429POSM   D2B 5033   4.894  17.690  12.414 -0.1530  0.1138 -0.1708
  429POSM   C3B 5034   5.204  17.562  12.029 -0.1798 -0.0497  0.3164
  429POSM   C4B 5035   5.278  17.517  11.563  0.0949 -0.2307 -0.0780
  430DOPC   NC3 5036   3.261  12.150  14.880 -0.0918 -0.0218 -0.2176
  430DOPC   PO4 5037   3.071  12.456  14.703  0.0033  0.2961  0.0540
  430DOPC   GL1 5038   2.940  12.460  14.294  0.0746 -0.1084  0.1555
  430DOPC   GL2 5039   3.129  12.222  14.185  0.1522  0.0742  0.0957
  430DOPC   C1A 5040   3.219  12.604  13.907 -0.3166  0.1313  0.1734
  430DOPC   D2A 5041   3.199  12.628  13.473  0.3555 -0.1114  0.2511
  430DOPC   C3A 5042   3.333  12.432  13.076 -0.1010 -0.1524 -0.0160
  430DOPC   C4A 5043   3.274  12.194  12.664  0.1346 -0.0633 -0.2376
  430DOPC   C1B 5044   3.055  12.144  13.744  0.0078 -0.0885 -0.0307
  430DOPC   D2B 5045   2.960  12.161  13.276 -0.3851 -0.3438 -0.2849
  430DOPC   C3B 5046   2.883  12.518  13.003 -0.1050 -0.0091 -0.0667
  430DOPC   C4B 5047   2.427  12.487  12.967 -0.1717 -0.0015  0.1979
  431DOPS   CNO 5048   5.134  15.724  14.210 -0.2272 -0.0218  0.0404
  431DOPS   PO4 5049   5.131  15.841  13.871 -0.1610  0.1225 -0.1343
  431DOPS   GL1 5050   5.204  15.928  13.499  0.0033 -0.0985  0.2310
  431DOPS   GL2 5051   5.311  15.684  13.329  0.1177  0.0693 -0.1796
  431DOPS   C1A 5052   4.894  16.071  13.184  0.1406  0.1410 -0.0764
  431DOPS   D2A 5053   4.959  16.122  12.725  0.0049  0.1197 -0.0500
  431DOPS   C3A 5054   4.622  15.997  12.454 -0.2479  0.4640  0.0669
  431DOPS   C4A 5055   4.331  15.670  12.393 -0.1525  0.1324 -0.2345
  431DOPS   C1B 5056   5.487  15.466  12.971 -0.4993  0.0637 -0.1594
  431DOPS   D2B 5057   5.796  15.157  12.704 -0.0602 -0.5417  0.2297
  431DOPS   C3B 5058   5.580  14.917  12.376 -0.0331  0.2195 -0.0350
  431DOPS   C4B 5059   5.396  14.685  12.111 -0.1365  0.2734 -0.2440
  432DOPE   NH3 5060  10.454  18.380  12.575  0.0597 -0.0059  0.2992
  432DOPE   PO4 5061  10.166  18.243  12.615 -0.2017 -0.0914  0.1141
  432DOPE   GL1 5062  10.104  18.082  12.264 -0.1511 -0.0791  0.1438
  432DOPE   GL2 5063   9.815  18.074  12.322  0.2308  0.1260  0.3765
  432DOPE   C1A 5064  10.268  18.081  11.801 -0.0379 -0.2318 -0.0437
  432DOPE   D2A 5065  10.456  17.747  11.521  0.1070  0.0353  0.0488
  432DOPE   C3A 5066  10.296  17.587  11.154 -0.1108 -0.4409  0.2399
  432DOPE   C4A 5067  10.562  17.535  10.730  0.4909  0.0032 -0.1889
  432DOPE   C1B 5068   9.853  18.300  11.941  0.0302  0.1883  0.1477
  432DOPE   D2B 5069  10.098  18.487  11.620  0.2809 -0.0897 -0.0358
  432DOPE   C3B 5070  10.366  18.279  11.247 -0.0566  0.2001  0.1330
  432DOPE   C4B 5071  10.609  17.951  11.055 -0.0728  0.2145  0.0361
  433POSM   NC3 5072  11.791  18.339  12.732 -0.0393 -0.0646 -0.2127
  433POSM   PO4 5073  11.992  18.090  12.554  0.2151  0.0728  0.1488
  433POSM   AM1 5074  12.082  18.235  12.225 -0.2688 -0.1593 -0.2402
  433POSM   AM2 5075  12.288  18.420  12.206 -0.1341  0.2959  0.0264
  433POSM   T1A 5076  12.047  18.311  11.735 -0.0852  0.2995  0.0059
  433POSM   C2A 5077  12.109  18.540  11.297 -0.3719  0.2208 -0.0552
  433POSM   C3A 5078  12.276  18.556  10.846 -0.1242 -0.0857  0.3353
  433POSM   C1B 5079  12.433  18.528  11.931 -0.1743 -0.0954  0.1403
  433POSM   D2B 5080  12.779  18.528  11.656  0.2957  0.1864 -0.3261
  433POSM   C3B 5081  12.907  18.859  11.377 -0.0178 -0.0821  0.0829
  433POSM   C4B 5082  12.959  18.893  10.890  0.0698 -0.0013  0.3336
  434POSM   NC3 5083  11.108  13.274  13.494 -0.2673 -0.1281  0.1109
  434POSM   PO4 5084  11.537  13.282  13.509 -0.0942 -0.4183 -0.0111
  434POSM   AM1 5085  11.552  13.081  13.302  0.0149  0.0610  0.2091
  434POSM   AM2 5086  11.698  12.801  13.243 -0.2215 -0.1809 -0.2038
  434POSM   T1A 5087  11.353  12.999  12.858 -0.0737 -0.1598 -0.1831
  434POSM   C2A 5088  11.478  12.716  12.580 -0.1341 -0.0833  0.1980
  434POSM   C3A 5089  11.744  12.772  12.172 -0.2211 -0.2513 -0.2500
  434POSM   C1B 5090  11.492  12.559  13.079 -0.3326  0.0145 -0.1589
  434POSM   D2B 5091  11.251  12.345  12.742 -0.2289 -0.1652  0.0766
  434POSM   C3B 5092  11.454  11.927  12.719 -0.2255 -0.2623 -0.0252
  434POSM   C4B 5093  11.288  11.532  12.781 -0.0259 -0.0396 -0.2757
  435DOPC   NC3 5094   1.151  21.325  13.950  0.0934 -0.1722  0.1970
  435DOPC   PO4 5095   1.501  21.336  13.800  0.1464 -0.2431  0.1412
  435DOPC   GL1 5096   1.345  21.304  13.438 -0.0498  0.4089  0.4072
  435DOPC   GL2 5097   1.206  21.653  13.489  0.1256 -0.0939 -0.0454
  435DOPC   C1A 5098   1.420  21.390  12.966  0.1495  0.0567  0.0792
  435DOPC   D2A 5099   1.444  21.840  12.705  0.1586  0.3342 -0.0287
  435DOPC   C3A 5100   1.673  21.928  12.299 -0.1616  0.3549 -0.2073
  435DOPC   C4A 5101   1.720  21.996  11.860  0.0939 -0.4697 -0.0028
  435DOPC   C1B 5102   1.483  21.889  13.177  0.0382 -0.2060 -0.0459
  435DOPC   D2B 5103   1.750  22.138  12.899  0.2636  0.4006  0.2215
  435DOPC   C3B 5104   1.539  22.340  12.529 -0.1649  0.2012  0.1136
  435DOPC   C4B 5105   1.358  22.319  12.086  0.0191 -0.4234 -0.2540
  436DOPC   NC3 5106   2.183  13.049  14.683  0.2134 -0.3243 -0.2568
  436DOPC   PO4 5107   2.403  13.381  14.657  0.2736  0.2346 -0.3792
  436DOPC   GL1 5108   2.311  13.564  14.300 -0.2587 -0.1317 -0.2602
  436DOPC   GL2 5109   2.043  13.604  14.196 -0.3592  0.0400 -0.3331
  436DOPC   C1A 5110   2.527  13.440  13.902  0.0218 -0.0384 -0.3211
  436DOPC   D2A 5111   2.568  13.027  13.729 -0.0697 -0.0048 -0.0001
  436DOPC   C3A 5112   2.973  13.058  13.502  0.2407 -0.1771  0.3084
  436DOPC   C4A 5113   3.210  13.004  13.127  0.2011  0.2794 -0.2715
  436DOPC   C1B 5114   1.961  13.286  13.882 -0.0559  0.1765 -0.0400
  436DOPC   D2B 5115   1.458  13.118  13.845 -0.1463  0.2331 -0.0850
  436DOPC   C3B 5116   1.136  13.352  13.607 -0.1235 -0.1140  0.2982
  436DOPC   C4B 5117   1.030  13.265  13.165 -0.0762  0.3122 -0.2151
  437POSM   NC3 5118   6.090  12.348  15.319  0.0133 -0.1272  0.3771
  437POSM   PO4 5119   6.123  12.006  15.065 -0.1016 -0.1745 -0.0174
  437POSM   AM1 5120   6.153  11.881  14.728 -0.1326 -0.0753 -0.2067
  437POSM   AM2 5121   6.316  11.716  14.595 -0.1661 -0.1934 -0.2259
  437POSM   T1A 5122   6.051  11.917  14.230  0.0054 -0.1115  0.2221
  437POSM   C2A 5123   6.113  12.247  13.987 -0.1833 -0.0288 -0.0438
  437POSM   C3A 5124   6.095  12.218  13.513 -0.0581  0.0066 -0.0377
  437POSM   C1B 5125   6.367  11.492  14.330  0.3669 -0.0039  0.1075
  437POSM   D2B 5126   6.446  11.149  13.999 -0.4073 -0.1973  0.2578
  437POSM   C3B 5127   6.103  10.804  13.831 -0.1664 -0.3102 -0.1979
  437POSM   C4B 5128   5.758  10.624  13.484  0.0907  0.3546 -0.3145
  438POSM   NC3 5129  11.755  15.763  12.056  0.0052 -0.3396  0.0995
  438POSM   PO4 5130  11.573  16.107  12.262 -0.3389  0.2350  0.1937
  438POSM   AM1 5131  11.330  16.277  12.091 -0.0002 -0.3176  0.0511
  438POSM   AM2 5132  11.345  16.560  12.140  0.0543  0.0617  0.3709
  438POSM   T1A 5133  10.971  16.495  11.842  0.0598 -0.1003 -0.1408
  438POSM   C2A 5134  10.593  16.561  11.646  0.1492 -0.1502  0.1615
  438POSM   C3A 5135  10.266  16.389  11.354 -0.3566  0.0112  0.0857
  438POSM   C1B 5136  11.403  16.644  11.815 -0.1659  0.0746  0.0777
  438POSM   D2B 5137  11.602  16.813  11.458 -0.1237 -0.0078 -0.3458
  438POSM   C3B 5138  11.650  16.785  10.972 -0.3037  0.0038 -0.2067
  438POSM   C4B 5139  11.555  16.539  10.569  0.3603 -0.1766  0.1336
  439DOPE   NH3 5140  12.354  23.175  13.226  0.0504 -0.1989 -0.3435
  439DOPE   PO4 5141  12.186  23.120  13.486 -0.0620  0.1672 -0.0782
  439DOPE   GL1 5142  11.948  23.023  13.115 -0.3396  0.0015  0.1585
  439DOPE   GL2 5143  11.955  22.740  12.971 -0.0353  0.0403 -0.0775
  439DOPE   C1A 5144  11.608  23.066  12.797  0.2669  0.0177 -0.2613
  439DOPE   D2A 5145  11.372  22.986  12.422  0.0465 -0.0562 -0.3790
  439DOPE   C3A 5146  11.159  23.218  12.072  0.1983  0.1066 -0.1912
  439DOPE   C4A 5147  10.759  23.466  12.072  0.1055 -0.2091  0.1699
  439DOPE   C1B 5148  12.176  22.523  12.631  0.0839  0.1102  0.0627
  439DOPE   D2B 5149  12.579  22.369  12.606 -0.3378  0.1133 -0.1129
  439DOPE   C3B 5150  12.787  22.293  12.188  0.1582  0.1416  0.0152
  439DOPE   C4B 5151  13.041  22.520  11.847  0.0366 -0.0002 -0.2181
  440DOPC   NC3 5152   7.454  20.195  13.223 -0.1702  0.0812 -0.2007
  440DOPC   PO4 5153   7.802  20.380  13.206  0.3638 -0.1941 -0.0149
  440DOPC   GL1 5154   7.642  20.574  12.941 -0.0317 -0.1044  0.1607
  440DOPC   GL2 5155   7.449  20.512  12.785 -0.2842 -0.3237  0.1113
  440DOPC   C1A 5156   7.681  20.980  12.757 -0.3447  0.3846 -0.2781
  440DOPC   D2A 5157   7.780  21.124  12.337 -0.2346  0.1450  0.2652
  440DOPC   C3A 5158   7.537  21.156  11.918  0.1959  0.0870 -0.1291
  440DOPC   C4A 5159   7.384  20.986  11.511  0.3122  0.0834 -0.0599
  440DOPC   C1B 5160   7.457  20.457  12.313  0.0600  0.1943 -0.3517
  440DOPC   D2B 5161   7.329  20.653  11.882 -0.0859  0.0657 -0.2121
  440DOPC   C3B 5162   6.916  20.541  11.677  0.0897 -0.1788  0.0964
  440DOPC   C4B 5163   6.781  20.306  11.305  0.1841  0.3232  0.2856
  441DOPE   NH3 5164   7.280  17.746  13.623  0.1039  0.1928  0.0633
  441DOPE   PO4 5165   7.314  17.768  13.314  0.4272 -0.1677 -0.1006
  441DOPE   GL1 5166   7.303  17.799  12.818  0.1823 -0.2473  0.1992
  441DOPE   GL2 5167   7.585  17.905  12.835 -0.2169  0.1926  0.1189
  441DOPE   C1A 5168   7.262  17.647  12.419  0.0169 -0.0171  0.2031
  441DOPE   D2A 5169   7.029  17.410  12.107  0.2371 -0.3694  0.0910
  441DOPE   C3A 5170   7.169  17.159  11.717  0.0247  0.1080 -0.1090
  441DOPE   C4A 5171   7.537  16.841  11.705  0.1392 -0.2226  0.1233
  441DOPE   C1B 5172   7.318  18.191  12.585  0.1011  0.1478  0.1145
  441DOPE   D2B 5173   7.103  18.411  12.207  0.4406 -0.1519  0.3042
  441DOPE   C3B 5174   6.699  18.513  11.905 -0.4281  0.1540  0.3530
  441DOPE   C4B 5175   6.236  18.579  11.762 -0.0459  0.1415  0.2779
  442DOPE   NH3 5176   9.299  15.616  13.436 -0.2620 -0.0165 -0.3326
  442DOPE   PO4 5177   9.572  15.460  13.559 -0.3061 -0.1704  0.5277
  442DOPE   GL1 5178   9.725  15.466  13.166  0.4472 -0.1060  0.1845
  442DOPE   GL2 5179   9.891  15.518  12.925 -0.2752  0.0906  0.1814
  442DOPE   C1A 5180   9.522  15.268  12.791  0.0837  0.0201  0.0882
  442DOPE   D2A 5181   9.485  15.215  12.353  0.2472 -0.2119 -0.4058
  442DOPE   C3A 5182   9.208  15.019  12.044  0.2337  0.2155  0.1908
  442DOPE   C4A 5183   9.212  14.623  11.751 -0.0051 -0.2598  0.2770
  442DOPE   C1B 5184   9.915  15.496  12.475 -0.2006 -0.0260  0.2548
  442DOPE   D2B 5185   9.963  15.389  12.022 -0.1420 -0.1717 -0.1692
  442DOPE   C3B 5186   9.548  15.532  11.760  0.3043 -0.2074 -0.4085
  442DOPE   C4B 5187   9.211  15.616  11.407  0.4158  0.0455 -0.3122
  443DOPE   NH3 5188   7.163  13.296  14.267  0.1392  0.2513  0.2053
  443DOPE   PO4 5189   7.295  13.161  14.521 -0.0410  0.1446  0.0440
  443DOPE   GL1 5190   7.335  12.808  14.166  0.0594  0.0250  0.0153
  443DOPE   GL2 5191   7.180  12.589  14.075  0.1386  0.1608  0.1327
  443DOPE   C1A 5192   7.436  12.697  13.685 -0.1017 -0.0640  0.0092
  443DOPE   D2A 5193   7.376  12.770  13.264  0.1730 -0.0533 -0.1145
  443DOPE   C3A 5194   7.772  12.821  13.034 -0.2177 -0.2074 -0.0191
  443DOPE   C4A 5195   7.819  13.140  12.657 -0.1240 -0.0394  0.2288
  443DOPE   C1B 5196   6.951  12.245  13.832  0.1366 -0.0994  0.2463
  443DOPE   D2B 5197   7.043  11.960  13.407  0.1959 -0.1227 -0.0952
  443DOPE   C3B 5198   6.834  11.894  13.047  0.1073 -0.0814  0.0695
  443DOPE   C4B 5199   6.589  12.049  12.662 -0.0061  0.1534 -0.2275
  444DOPS   CNO 5200   2.310  19.256  14.010  0.1604  0.0827  0.2408
  444DOPS   PO4 5201   1.968  19.136  13.891  0.0721 -0.3077  0.1081
  444DOPS   GL1 5202   1.867  19.065  13.576 -0.2214 -0.0819  0.0285
  444DOPS   GL2 5203   1.696  18.802  13.595 -0.0861  0.3159  0.3594
  444DOPS   C1A 5204   1.768  19.266  13.197 -0.1164  0.1620 -0.4032
  444DOPS   D2A 5205   1.752  19.222  12.752  0.1771  0.5500 -0.3205
  444DOPS   C3A 5206   1.792  18.940  12.400  0.4004 -0.0446 -0.1955
  444DOPS   C4A 5207   1.599  18.605  12.191 -0.1514 -0.0220 -0.0519
  444DOPS   C1B 5208   2.022  18.605  13.340  0.0660  0.2137 -0.3142
  444DOPS   D2B 5209   2.435  18.681  13.159 -0.0348 -0.1150 -0.0009
  444DOPS   C3B 5210   2.670  18.637  12.806 -0.0065 -0.0517  0.1191
  444DOPS   C4B 5211   2.653  18.586  12.286  0.2449  0.0003 -0.2003
  445DOPE   NH3 5212   6.330  19.652  13.526  0.1374 -0.6328 -0.0275
  445DOPE   PO4 5213   6.617  19.798  13.584 -0.0386  0.1803 -0.2595
  445DOPE   GL1 5214   6.791  19.903  13.203  0.1845  0.0421  0.0067
  445DOPE   GL2 5215   6.921  20.171  13.220  0.0856 -0.2965 -0.0396
  445DOPE   C1A 5216   6.588  19.919  12.788  0.4024  0.0358 -0.0648
  445DOPE   D2A 5217   6.277  20.169  12.524  0.0396 -0.0185  0.2307
  445DOPE   C3A 5218   6.191  20.631  12.419  0.3040  0.3655  0.1460
  445DOPE   C4A 5219   6.412  20.914  12.196  0.2224 -0.1554  0.1997
  445DOPE   C1B 5220   6.998  20.277  12.744  0.2625  0.0727  0.0511
  445DOPE   D2B 5221   6.849  20.057  12.345 -0.1826 -0.0735 -0.1230
  445DOPE   C3B 5222   7.067  19.671  12.183  0.0154  0.1425 -0.1106
  445DOPE   C4B 5223   6.801  19.315  12.074  0.0726  0.0740 -0.0635
  446DOPE   NH3 5224   1.994  19.659  13.942  0.0927 -0.2667  0.0180
  446DOPE   PO4 5225   1.782  19.787  13.746 -0.0262  0.0730 -0.3077
  446DOPE   GL1 5226   2.100  19.454  13.563 -0.3065 -0.1671  0.1151
  446DOPE   GL2 5227   2.103  19.659  13.318 -0.0911  0.0006 -0.2318
  446DOPE   C1A 5228   2.356  19.193  13.239 -0.0363 -0.0581  0.1605
  446DOPE   D2A 5229   2.238  19.041  12.841  0.0726  0.3294 -0.0833
  446DOPE   C3A 5230   2.535  19.029  12.480 -0.3517  0.0077 -0.1733
  446DOPE   C4A 5231   2.912  19.167  12.282  0.0294 -0.2216  0.1512
  446DOPE   C1B 5232   2.152  19.545  12.831  0.1482 -0.0231  0.1555
  446DOPE   D2B 5233   2.146  19.501  12.349  0.2006 -0.1681  0.2222
  446DOPE   C3B 5234   2.374  19.250  12.053 -0.0824  0.2100  0.2963
  446DOPE   C4B 5235   2.664  18.943  11.841 -0.3228 -0.0681  0.0093
  447POSM   NC3 5236   3.118  13.276  14.652  0.2057 -0.1583 -0.1006
  447POSM   PO4 5237   3.256  12.968  14.497 -0.0432  0.2975 -0.1085
  447POSM   AM1 5238   3.405  13.012  14.216  0.1178  0.1217 -0.0637
  447POSM   AM2 5239   3.663  13.018  14.093  0.1902  0.4221  0.2208
  447POSM   T1A 5240   3.448  12.970  13.682 -0.2595 -0.2330  0.5356
  447POSM   C2A 5241   3.593  13.252  13.325 -0.2195 -0.2085  0.2674
  447POSM   C3A 5242   3.325  13.535  13.126  0.2488  0.0568  0.2057
  447POSM   C1B 5243   3.703  12.693  13.958 -0.0001 -0.1653  0.0928
  447POSM   D2B 5244   3.702  12.575  13.508  0.4648  0.2321  0.0643
  447POSM   C3B 5245   3.531  12.147  13.387  0.1638  0.1277  0.1976
  447POSM   C4B 5246   3.455  11.911  13.015  0.1717 -0.2130  0.3071
  448POSM   NC3 5247   3.068  14.033  15.090 -0.2805  0.1732  0.0479
  448POSM   PO4 5248   2.948  13.759  14.802  0.0236  0.3367  0.0449
  448POSM   AM1 5249   3.038  13.789  14.484  0.1244 -0.3974 -0.0083
  448POSM   AM2 5250   3.163  13.939  14.257 -0.1147  0.1311  0.0920
  448POSM   T1A 5251   2.816  13.818  14.020  0.1122 -0.0779 -0.1122
  448POSM   C2A 5252   2.592  14.008  13.665 -0.1922  0.1483 -0.3385
  448POSM   C3A 5253   2.459  13.988  13.233  0.0861 -0.0051  0.0646
  448POSM   C1B 5254   3.353  13.881  13.929 -0.1496  0.0476 -0.0787
  448POSM   D2B 5255   3.481  13.773  13.538 -0.3275 -0.3081 -0.3583
  448POSM   C3B 5256   3.282  13.993  13.156  0.1674  0.2323 -0.1651
  448POSM   C4B 5257   2.899  14.236  13.230  0.3771 -0.1733  0.1665
  449DOPC   NC3 5258   6.918  19.022  13.292  0.2473  0.1255  0.3038
  449DOPC   PO4 5259   6.690  19.294  13.563 -0.1707 -0.0605 -0.0781
  449DOPC   GL1 5260   6.498  19.388  13.192 -0.0842 -0.1531 -0.3639
  449DOPC   GL2 5261   6.464  19.122  13.118  0.0518 -0.0468  0.0697
  449DOPC   C1A 5262   6.390  19.443  12.737 -0.0289 -0.2471 -0.1065
  449DOPC   D2A 5263   6.065  19.503  12.386  0.0734 -0.1711 -0.0739
  449DOPC   C3A 5264   6.179  19.406  11.957  0.0789 -0.0464  0.2341
  449DOPC   C4A 5265   6.539  19.619  11.691  0.0208  0.1159 -0.1972
  449DOPC   C1B 5266   6.218  18.961  12.765  0.3534 -0.0639 -0.1192
  449DOPC   D2B 5267   5.922  18.768  12.481  0.1338  0.0482 -0.3590
  449DOPC   C3B 5268   5.830  18.960  12.088  0.1560 -0.1101 -0.0939
  449DOPC   C4B 5269   5.954  19.075  11.663 -0.1708 -0.4010 -0.2592
  450DOPC   NC3 5270   5.436  19.711  13.562  0.0775  0.0574 -0.0183
  450DOPC   PO4 5271   5.126  19.943  13.723 -0.2518 -0.3645  0.1671
  450DOPC   GL1 5272   4.999  19.913  13.361 -0.1105  0.0711 -0.4396
  450DOPC   GL2 5273   5.034  19.704  13.096  0.2198  0.4394 -0.1283
  450DOPC   C1A 5274   4.947  20.112  12.928 -0.0367  0.2844 -0.0035
  450DOPC   D2A 5275   5.140  20.378  12.610  0.1464  0.1169  0.2143
  450DOPC   C3A 5276   5.347  20.166  12.198 -0.2518 -0.1284  0.3427
  450DOPC   C4A 5277   5.528  20.001  11.817  0.2405  0.1912 -0.1220
  450DOPC   C1B 5278   4.858  19.636  12.675  0.1515  0.0748  0.1908
  450DOPC   D2B 5279   4.442  19.621  12.441  0.0991 -0.0895 -0.0644
  450DOPC   C3B 5280   4.088  19.862  12.425  0.1285  0.0040 -0.1695
  450DOPC   C4B 5281   3.667  20.063  12.340  0.1519  0.1400 -0.0857
  451POSM   NC3 5282   2.174  22.772  14.106  0.0776  0.0974  0.0399
  451POSM   PO4 5283   2.212  23.167  14.159  0.2079  0.1383  0.0750
  451POSM   AM1 5284   1.996  23.269  13.929 -0.2350  0.0648  0.2212
  451POSM   AM2 5285   1.886  23.105  13.738  0.2497  0.0699 -0.0167
  451POSM   T1A 5286   2.009  23.620  13.619  0.0410 -0.0171  0.0675
  451POSM   C2A 5287   2.032  23.843  13.193 -0.2134  0.2493  0.0643
  451POSM   C3A 5288   2.473  23.914  13.149 -0.0770 -0.0107  0.1109
  451POSM   C1B 5289   1.778  23.245  13.488  0.4369  0.1307  0.3224
  451POSM   D2B 5290   1.800  23.456  13.139 -0.0530 -0.1634 -0.0581
  451POSM   C3B 5291   1.442  23.658  12.984  0.2314  0.0177 -0.0599
  451POSM   C4B 5292   1.145  23.799  12.613  0.0938  0.4004 -0.1566
  452DOPC   NC3 5293  10.800  13.791  14.002 -0.0214  0.0694 -0.1891
  452DOPC   PO4 5294  10.443  13.800  13.766  0.0520 -0.0983  0.0972
  452DOPC   GL1 5295  10.244  13.744  13.361  0.1523  0.2836  0.0846
  452DOPC   GL2 5296  10.444  13.566  13.182  0.0479 -0.2098  0.0909
  452DOPC   C1A 5297   9.952  13.507  13.052  0.0626 -0.0252  0.3079
  452DOPC   D2A 5298   9.917  13.231  12.716 -0.2103 -0.4081 -0.0384
  452DOPC   C3A 5299   9.747  12.810  12.728  0.1649 -0.0068  0.1690
  452DOPC   C4A 5300   9.323  12.679  12.790 -0.1200  0.1069  0.2473
  452DOPC   C1B 5301  10.396  13.413  12.725  0.0090 -0.0335  0.4244
  452DOPC   D2B 5302  10.301  13.179  12.308  0.0907  0.2418  0.2629
  452DOPC   C3B 5303   9.853  13.087  12.201  0.0734 -0.0716 -0.2147
  452DOPC   C4B 5304   9.365  13.232  12.317  0.0904  0.1340  0.0085
  453POSM   NC3 5305  34.058  20.206  13.892  0.0598 -0.3793  0.4116
  453POSM   PO4 5306  33.810  20.493  13.834  0.1259 -0.0453  0.2230
  453POSM   AM1 5307  33.837  20.643  13.533  0.2783  0.2344 -0.0026
  453POSM   AM2 5308  33.808  20.888  13.383  0.0828 -0.2805 -0.2158
  453POSM   T1A 5309  34.251  20.716  13.239  0.0578 -0.0478 -0.0499
  453POSM   C2A 5310  34.374  20.845  12.834  0.1360  0.0164 -0.0192
  453POSM   C3A 5311  34.059  20.959  12.569  0.1248  0.0215  0.2584
  453POSM   C1B 5312  33.855  21.037  13.066 -0.0971  0.0172 -0.0167
  453POSM   D2B 5313  33.949  21.410  12.732  0.1531  0.3871 -0.2297
  453POSM   C3B 5314  33.943  21.345  12.253 -0.1232 -0.5141 -0.1683
  453POSM   C4B 5315  34.303  21.331  11.959 -0.2538 -0.0031 -0.1452
  454DOPC   NC3 5316   2.764  18.284  13.517  0.1483  0.2115 -0.2800
  454DOPC   PO4 5317   2.624  17.895  13.472 -0.1014  0.3134  0.1793
  454DOPC   GL1 5318   2.545  17.913  13.158  0.1112  0.2414 -0.2986
  454DOPC   GL2 5319   2.585  18.217  13.062  0.0477 -0.1365 -0.2697
  454DOPC   C1A 5320   2.199  17.799  12.831  0.1823 -0.0998  0.1197
  454DOPC   D2A 5321   1.766  17.811  12.818 -0.0577  0.0266 -0.0246
  454DOPC   C3A 5322   1.632  17.823  12.397  0.4418  0.0524  0.0328
  454DOPC   C4A 5323   1.290  18.197  12.318 -0.0793 -0.1356  0.0154
  454DOPC   C1B 5324   2.533  18.145  12.583  0.3111  0.0619 -0.4911
  454DOPC   D2B 5325   2.533  18.153  12.131  0.2739  0.1385  0.2715
  454DOPC   C3B 5326   2.176  18.475  12.119 -0.1269 -0.0397 -0.1581
  454DOPC   C4B 5327   2.078  18.859  11.855 -0.1258 -0.1237 -0.0646
  455POSM   NC3 5328   2.277  23.596  14.417  0.2812  0.2862 -0.3108
  455POSM   PO4 5329   2.167  23.920  14.613  0.0950  0.1145 -0.1247
  455POSM   AM1 5330   2.096  24.058  14.320 -0.1541 -0.3076 -0.5397
  455POSM   AM2 5331   2.094  24.310  14.169 -0.1327 -0.0874  0.2514
  455POSM   T1A 5332   1.871  23.983  13.898 -0.0159 -0.2588 -0.2490
  455POSM   C2A 5333   1.512  23.714  13.790  0.1146  0.1496  0.0120
  455POSM   C3A 5334   1.259  23.498  13.484 -0.1898 -0.0916 -0.2622
  455POSM   C1B 5335   2.057  24.484  13.894 -0.1571 -0.0454 -0.0168
  455POSM   D2B 5336   2.162  24.745  13.517  0.0308 -0.0496  0.2613
  455POSM   C3B 5337   1.866  24.804  13.204  0.0127  0.0357 -0.0159
  455POSM   C4B 5338   1.737  24.526  12.901 -0.4597  0.1892 -0.0692
  456DOPE   NH3 5339   3.309  18.438  13.673  0.0439 -0.0862 -0.1179
  456DOPE   PO4 5340   3.588  18.551  13.619  0.0188  0.0224  0.1275
  456DOPE   GL1 5341   3.589  18.624  13.220  0.3450  0.1328 -0.0158
  456DOPE   GL2 5342   3.341  18.806  13.218  0.2944 -0.1293  0.1855
  456DOPE   C1A 5343   3.445  18.643  12.777  0.1038  0.0186 -0.0942
  456DOPE   D2A 5344   3.515  18.381  12.392 -0.0800  0.0098 -0.0871
  456DOPE   C3A 5345   3.883  18.313  12.151  0.1131 -0.0704 -0.2390
  456DOPE   C4A 5346   4.129  18.225  11.817  0.2725  0.1461  0.0937
  456DOPE   C1B 5347   3.437  19.253  13.058 -0.0321  0.1277 -0.0741
  456DOPE   D2B 5348   3.450  19.696  13.133 -0.0689  0.0695 -0.0399
  456DOPE   C3B 5349   3.279  20.074  12.940  0.0831  0.0374  0.2767
  456DOPE   C4B 5350   3.144  20.352  12.578  0.0440  0.0692  0.1943
  457DOPC   NC3 5351  10.153  15.502  13.509 -0.2504 -0.1746 -0.1500
  457DOPC   PO4 5352  10.259  15.278  13.197 -0.0042 -0.1706 -0.0611
  457DOPC   GL1 5353  10.145  14.884  12.945 -0.0872 -0.3138 -0.0519
  457DOPC   GL2 5354   9.929  14.968  12.979 -0.0825 -0.1804 -0.0734
  457DOPC   C1A 5355   9.953  14.491  12.849  0.0275  0.0328  0.0229
  457DOPC   D2A 5356   9.804  14.150  12.597 -0.1884 -0.0687  0.0313
  457DOPC   C3A 5357   9.459  14.438  12.408 -0.1667 -0.1142 -0.2855
  457DOPC   C4A 5358   9.095  14.594  12.196 -0.1279  0.1611 -0.2229
  457DOPC   C1B 5359   9.849  14.909  12.526  0.0013  0.2463 -0.2552
  457DOPC   D2B 5360   9.999  14.525  12.245  0.2159  0.1131 -0.2740
  457DOPC   C3B 5361  10.460  14.461  12.122  0.0077  0.1149  0.3375
  457DOPC   C4B 5362  10.645  14.041  12.096  0.2577 -0.1236 -0.0271
  458DOPC   NC3 5363   7.579  11.754  14.802  0.2422 -0.1660 -0.0720
  458DOPC   PO4 5364   7.432  11.682  15.152  0.0030 -0.0051  0.0746
  458DOPC   GL1 5365   7.382  11.414  14.915 -0.2214  0.6502  0.0583
  458DOPC   GL2 5366   7.237  11.200  14.970 -0.1938 -0.0047 -0.1153
  458DOPC   C1A 5367   7.394  11.474  14.435 -0.1355 -0.0243  0.2010
  458DOPC   D2A 5368   7.654  11.690  14.103 -0.0707  0.2069 -0.0825
  458DOPC   C3A 5369   7.624  11.576  13.646 -0.0266 -0.1179 -0.2327
  458DOPC   C4A 5370   7.455  11.301  13.301 -0.1077  0.0623 -0.0774
  458DOPC   C1B 5371   6.910  10.817  14.911 -0.1550 -0.0549  0.0043
  458DOPC   D2B 5372   6.693  10.554  14.614 -0.0353 -0.2014  0.0052
  458DOPC   C3B 5373   6.632  10.249  14.339 -0.0183  0.0017  0.1328
  458DOPC   C4B 5374   6.224   9.982  14.285 -0.2640  0.0926  0.2049
  459DOPC   NC3 5375   3.700  16.269  13.653 -0.4016 -0.0221 -0.1097
  459DOPC   PO4 5376   3.339  16.173  13.783  0.0601  0.3074  0.1671
  459DOPC   GL1 5377   3.256  16.264  13.375  0.2910 -0.5443  0.2931
  459DOPC   GL2 5378   3.271  16.030  13.233  0.1173 -0.0776 -0.1626
  459DOPC   C1A 5379   3.056  16.532  13.099 -0.1917 -0.0981 -0.2064
  459DOPC   D2A 5380   2.779  16.565  12.710  0.4526  0.0282  0.1403
  459DOPC   C3A 5381   2.614  16.215  12.436  0.1255 -0.1364 -0.2790
  459DOPC   C4A 5382   2.661  15.791  12.280  0.0679  0.0856  0.3009
  459DOPC   C1B 5383   3.324  15.676  12.961  0.1906 -0.2062 -0.3406
  459DOPC   D2B 5384   3.570  15.322  12.731 -0.1902  0.0857  0.0924
  459DOPC   C3B 5385   3.968  15.304  12.520  0.0620  0.2854 -0.0965
  459DOPC   C4B 5386   4.274  15.184  12.192  0.3769 -0.2107 -0.1520
  460DOPC   NC3 5387  11.005  18.969  12.917 -0.0682 -0.0445 -0.0803
  460DOPC   PO4 5388  10.603  18.878  12.875  0.5211 -0.0806  0.0967
  460DOPC   GL1 5389  10.705  18.992  12.546 -0.1942 -0.1799  0.2546
  460DOPC   GL2 5390  10.598  18.797  12.336 -0.1895 -0.2572  0.2520
  460DOPC   C1A 5391  10.825  19.277  12.167  0.2529  0.1996 -0.0344
  460DOPC   D2A 5392  11.054  19.432  11.831  0.1304 -0.1082 -0.1007
  460DOPC   C3A 5393  10.914  19.601  11.401  0.1287 -0.3119  0.0473
  460DOPC   C4A 5394  10.664  19.655  10.996 -0.2099 -0.1330  0.3560
  460DOPC   C1B 5395  10.953  18.846  12.025 -0.0131  0.0356 -0.0112
  460DOPC   D2B 5396  10.930  19.035  11.641 -0.0376 -0.2249  0.0510
  460DOPC   C3B 5397  10.553  19.341  11.601  0.4764 -0.3335  0.0998
  460DOPC   C4B 5398  10.328  19.700  11.471  0.1181 -0.1030 -0.0573
  461DOPS   CNO 5399   5.980  16.733  14.073 -0.1697 -0.2423 -0.3078
  461DOPS   PO4 5400   5.812  16.403  14.033  0.1599  0.1018 -0.6275
  461DOPS   GL1 5401   5.624  16.424  13.660  0.1244  0.2809 -0.0299
  461DOPS   GL2 5402   5.890  16.401  13.495 -0.1163 -0.0186 -0.0725
  461DOPS   C1A 5403   5.377  16.282  13.271  0.1774 -0.0198  0.0605
  461DOPS   D2A 5404   5.437  15.964  12.913  0.1779  0.3263  0.1010
  461DOPS   C3A 5405   5.376  15.946  12.520 -0.2651  0.0127  0.0324
  461DOPS   C4A 5406   5.299  16.024  12.031  0.0369 -0.0504 -0.0612
  461DOPS   C1B 5407   5.851  16.156  13.109 -0.0666  0.1592  0.2036
  461DOPS   D2B 5408   5.813  16.231  12.647 -0.2353  0.3025  0.1744
  461DOPS   C3B 5409   6.070  16.427  12.339  0.2143 -0.1341 -0.1628
  461DOPS   C4B 5410   6.071  16.724  12.034  0.2894 -0.1478  0.0455
  462DOPC   NC3 5411   6.389  15.074  14.122  0.2774  0.0140 -0.2411
  462DOPC   PO4 5412   6.550  15.368  13.898 -0.0303  0.1253 -0.0690
  462DOPC   GL1 5413   6.658  15.194  13.510 -0.0204  0.0507  0.1085
  462DOPC   GL2 5414   6.786  14.999  13.446 -0.0930 -0.1419  0.0015
  462DOPC   C1A 5415   6.506  15.185  13.044  0.2551  0.2023  0.2423
  462DOPC   D2A 5416   6.573  15.055  12.613  0.2349  0.2578  0.3637
  462DOPC   C3A 5417   6.343  15.181  12.203 -0.3843  0.1970 -0.0370
  462DOPC   C4A 5418   6.033  14.948  11.921  0.3264  0.1178 -0.0816
  462DOPC   C1B 5419   6.513  14.734  13.244 -0.1862 -0.2302  0.2848
  462DOPC   D2B 5420   6.218  14.410  13.187 -0.1166 -0.0292  0.2038
  462DOPC   C3B 5421   5.840  14.488  12.888  0.2926  0.1337 -0.0872
  462DOPC   C4B 5422   5.594  14.424  12.504 -0.0040 -0.3459  0.0780
  463DOPS   CNO 5423   5.797  18.950  13.684 -0.1441  0.0325  0.0974
  463DOPS   PO4 5424   6.018  18.674  13.562 -0.2026 -0.1344  0.2554
  463DOPS   GL1 5425   5.954  18.419  13.256  0.0867 -0.2193 -0.0476
  463DOPS   GL2 5426   5.643  18.351  13.207 -0.2707 -0.3627  0.1029
  463DOPS   C1A 5427   6.043  18.405  12.783 -0.0474 -0.1303 -0.0493
  463DOPS   D2A 5428   6.071  18.275  12.323  0.0153  0.0795  0.2351
  463DOPS   C3A 5429   5.731  18.376  12.020 -0.2588  0.2736  0.1352
  463DOPS   C4A 5430   5.417  18.320  11.639 -0.0834 -0.1059  0.0983
  463DOPS   C1B 5431   5.401  18.322  12.799  0.0194 -0.2555 -0.0294
  463DOPS   D2B 5432   5.512  18.205  12.398 -0.0900  0.1024 -0.2835
  463DOPS   C3B 5433   5.245  18.081  12.046  0.0441  0.3170 -0.2409
  463DOPS   C4B 5434   4.986  17.952  11.718 -0.4172 -0.0653 -0.1499
  464POSM   NC3 5435  10.736  11.084  14.908  0.1327  0.2764  0.0754
  464POSM   PO4 5436  10.724  11.470  14.888  0.3464 -0.1543  0.0741
  464POSM   AM1 5437  10.887  11.386  14.615  0.0134  0.5170  0.1108
  464POSM   AM2 5438  10.806  11.296  14.317  0.0018  0.2226  0.1138
  464POSM   T1A 5439  11.176  11.008  14.449  0.0653  0.0680  0.0370
  464POSM   C2A 5440  10.976  10.727  14.235 -0.2970 -0.1496  0.0314
  464POSM   C3A 5441  10.919  10.527  13.837  0.1260  0.2465  0.3092
  464POSM   C1B 5442  10.757  11.144  14.051 -0.0313  0.2105  0.3060
  464POSM   D2B 5443  10.606  10.869  13.681  0.3557  0.3496  0.1924
  464POSM   C3B 5444  10.157  10.694  13.687  0.0817 -0.2402  0.1023
  464POSM   C4B 5445   9.834  10.603  13.968  0.0635 -0.0027  0.1718
  465DOPS   CNO 5446   3.052  17.991  13.846  0.2484  0.0678  0.0991
  465DOPS   PO4 5447   3.149  17.862  13.478  0.0595  0.0106 -0.1025
  465DOPS   GL1 5448   3.214  17.880  13.118  0.2555  0.1342 -0.0222
  465DOPS   GL2 5449   2.972  17.753  13.021 -0.2110 -0.2099  0.1560
  465DOPS   C1A 5450   3.514  18.061  12.769 -0.0691 -0.2434 -0.0107
  465DOPS   D2A 5451   3.933  18.238  12.665 -0.0829 -0.2607  0.0058
  465DOPS   C3A 5452   4.276  17.944  12.534 -0.2070 -0.1139 -0.0850
  465DOPS   C4A 5453   4.321  17.495  12.580 -0.1572  0.1559 -0.2264
  465DOPS   C1B 5454   2.924  17.303  12.745 -0.0724 -0.0534 -0.0848
  465DOPS   D2B 5455   2.860  17.223  12.298  0.3365  0.1813  0.3022
  465DOPS   C3B 5456   2.758  17.069  11.893 -0.0004 -0.0423 -0.0650
  465DOPS   C4B 5457   2.536  17.205  11.514  0.2677  0.1004 -0.0785
  466DOPS   CNO 5458   1.446  15.392  13.916 -0.1588 -0.2635 -0.3222
  466DOPS   PO4 5459   1.221  15.656  13.914 -0.0986  0.2539  0.0695
  466DOPS   GL1 5460   1.074  15.549  13.501  0.0938 -0.2486 -0.1852
  466DOPS   GL2 5461   1.272  15.270  13.474  0.1281 -0.0839  0.2935
  466DOPS   C1A 5462   0.803  15.317  13.221 -0.0396  0.1968  0.0258
  466DOPS   D2A 5463   0.518  15.080  12.891  0.0293  0.0837 -0.0194
  466DOPS   C3A 5464   0.623  14.771  12.578 -0.1715 -0.0016  0.0387
  466DOPS   C4A 5465   0.319  14.478  12.305 -0.1457  0.0699  0.0384
  466DOPS   C1B 5466   1.596  15.561  13.226 -0.0258  0.0006 -0.0396
  466DOPS   D2B 5467   1.801  15.811  12.954 -0.0137 -0.2101 -0.3365
  466DOPS   C3B 5468   1.744  15.810  12.467 -0.1603  0.3971 -0.3337
  466DOPS   C4B 5469   1.428  15.812  12.116 -0.3949 -0.0251  0.2406
  467DOPE   NH3 5470   2.242  15.912  13.972  0.2452  0.1071  0.3034
  467DOPE   PO4 5471   2.500  15.812  13.900  0.1211  0.0214  0.0641
  467DOPE   GL1 5472   2.488  15.831  13.455 -0.4675 -0.0366 -0.0176
  467DOPE   GL2 5473   2.314  15.587  13.504  0.0768 -0.0517  0.0651
  467DOPE   C1A 5474   2.271  15.999  13.096  0.5264  0.2961  0.1999
  467DOPE   D2A 5475   2.164  16.002  12.637  0.0371 -0.1654  0.0486
  467DOPE   C3A 5476   2.190  15.994  12.182 -0.0073  0.2040 -0.1194
  467DOPE   C4A 5477   2.432  15.775  11.806  0.3273 -0.0780  0.0279
  467DOPE   C1B 5478   2.280  15.452  13.065  0.1446  0.2112  0.1924
  467DOPE   D2B 5479   2.428  15.554  12.642 -0.0219  0.2450  0.0239
  467DOPE   C3B 5480   2.514  15.216  12.396 -0.1679 -0.1696  0.2021
  467DOPE   C4B 5481   2.704  14.911  12.064  0.0397  0.0455  0.0541
  468DOPE   NH3 5482   6.903  11.525  14.940  0.1458  0.0094 -0.1533
  468DOPE   PO4 5483   7.078  11.837  14.825  0.1037  0.0363  0.1050
  468DOPE   GL1 5484   6.740  11.895  14.556  0.2724 -0.4225  0.2512
  468DOPE   GL2 5485   6.877  11.643  14.393 -0.1140  0.0936  0.1370
  468DOPE   C1A 5486   6.612  12.029  14.141 -0.0779  0.1157  0.1831
  468DOPE   D2A 5487   6.442  11.935  13.766 -0.0379 -0.1497 -0.1810
  468DOPE   C3A 5488   6.122  11.601  13.853 -0.2019 -0.2923 -0.1572
  468DOPE   C4A 5489   5.891  11.387  14.136 -0.0996  0.0280  0.1118
  468DOPE   C1B 5490   6.730  11.513  13.960 -0.2170  0.0205 -0.0167
  468DOPE   D2B 5491   6.674  11.612  13.479  0.0958 -0.1147  0.0870
  468DOPE   C3B 5492   6.998  11.472  13.188 -0.0782 -0.2849  0.2535
  468DOPE   C4B 5493   7.169  11.400  12.821 -0.0385  0.3015 -0.0333
  469DOPE   NH3 5494   9.468  20.829  13.909 -0.0164 -0.0468 -0.1344
  469DOPE   PO4 5495   9.321  20.934  13.656  0.0864 -0.2442  0.0569
  469DOPE   GL1 5496   9.290  21.098  13.307  0.1742 -0.1095 -0.0762
  469DOPE   GL2 5497   9.091  20.901  13.175 -0.4310 -0.1736  0.3497
  469DOPE   C1A 5498   9.391  21.082  12.861 -0.2606  0.3540  0.3009
  469DOPE   D2A 5499   9.475  21.106  12.380  0.0442  0.2708 -0.2285
  469DOPE   C3A 5500   9.532  20.632  12.162  0.0523  0.0505  0.2581
  469DOPE   C4A 5501   9.658  20.224  12.121  0.0514 -0.0726 -0.1342
  469DOPE   C1B 5502   8.775  20.983  12.845 -0.2980 -0.1101 -0.0977
  469DOPE   D2B 5503   8.598  21.137  12.464  0.3809  0.0676  0.1405
  469DOPE   C3B 5504   8.218  21.408  12.397  0.0192  0.1140  0.0444
  469DOPE   C4B 5505   7.900  21.524  12.079  0.1435 -0.3145  0.0280
  470DOPC   NC3 5506   4.701  17.340  13.600 -0.2755 -0.1158 -0.1616
  470DOPC   PO4 5507   4.838  17.710  13.498 -0.1964  0.1706 -0.2056
  470DOPC   GL1 5508   4.807  17.992  13.230  0.1827  0.0128 -0.2977
  470DOPC   GL2 5509   4.500  18.097  13.314 -0.0739  0.1108  0.1120
  470DOPC   C1A 5510   4.956  18.038  12.793 -0.0052 -0.0472  0.2038
  470DOPC   D2A 5511   4.908  18.196  12.392  0.2296  0.1817 -0.3690
  470DOPC   C3A 5512   4.534  18.101  12.079 -0.2385 -0.1716 -0.1622
  470DOPC   C4A 5513   4.337  17.724  11.933  0.1322  0.3144 -0.1447
  470DOPC   C1B 5514   4.492  17.823  12.965  0.2087 -0.0979  0.0975
  470DOPC   D2B 5515   4.553  17.402  13.055  0.0949  0.0123  0.0750
  470DOPC   C3B 5516   4.655  17.085  12.746  0.0926  0.2479 -0.0848
  470DOPC   C4B 5517   4.956  17.210  12.422  0.1795  0.2852  0.2002
  471DOPC   NC3 5518  10.338  17.383  13.586 -0.0392 -0.1342 -0.1120
  471DOPC   PO4 5519  10.331  17.182  13.206  0.0193 -0.1174 -0.1148
  471DOPC   GL1 5520  10.336  17.149  12.795 -0.0166 -0.1598  0.1499
  471DOPC   GL2 5521  10.160  17.296  12.596  0.1830  0.1066 -0.0106
  471DOPC   C1A 5522  10.341  16.842  12.465 -0.3517 -0.0076  0.0812
  471DOPC   D2A 5523  10.127  16.702  12.053 -0.1236  0.1644 -0.0855
  471DOPC   C3A 5524  10.016  16.834  11.605  0.1491  0.4705 -0.0109
  471DOPC   C4A 5525  10.302  17.098  11.356 -0.2695  0.1837 -0.1192
  471DOPC   C1B 5526   9.843  16.928  12.490  0.3203  0.1342 -0.0922
  471DOPC   D2B 5527   9.695  16.622  12.206  0.0485  0.0014 -0.0006
  471DOPC   C3B 5528   9.460  16.668  11.803  0.1166  0.2950 -0.1056
  471DOPC   C4B 5529   9.066  16.851  11.596 -0.1528 -0.1114  0.0029
  472POSM   NC3 5530   2.779  17.096  13.766 -0.1815  0.0544  0.1023
  472POSM   PO4 5531   2.617  16.765  13.889  0.1235  0.2870 -0.0317
  472POSM   AM1 5532   2.593  16.718  13.545 -0.4055 -0.1659 -0.2016
  472POSM   AM2 5533   2.676  16.871  13.314  0.2549 -0.0403  0.0318
  472POSM   T1A 5534   2.406  16.454  13.200  0.0409 -0.0923  0.0329
  472POSM   C2A 5535   2.324  16.470  12.735  0.0321 -0.3395 -0.2370
  472POSM   C3A 5536   2.130  16.436  12.309 -0.0938  0.2126 -0.0440
  472POSM   C1B 5537   2.552  16.890  12.993  0.1027 -0.0632  0.0516
  472POSM   D2B 5538   2.402  17.034  12.540 -0.2310 -0.0649  0.2288
  472POSM   C3B 5539   2.588  16.683  12.235  0.0988  0.2450 -0.0138
  472POSM   C4B 5540   2.564  16.318  11.915 -0.1192  0.0274 -0.0348
  473POSM   NC3 5541   4.422  20.179  13.940  0.0785  0.0673  0.0325
  473POSM   PO4 5542   4.774  20.340  13.805  0.0248  0.3284 -0.3356
  473POSM   AM1 5543   4.725  20.238  13.501 -0.2165 -0.4284  0.1601
  473POSM   AM2 5544   4.628  20.378  13.242  0.0133 -0.0636 -0.1320
  473POSM   T1A 5545   4.536  19.864  13.176 -0.0650  0.2365 -0.1077
  473POSM   C2A 5546   4.611  19.405  13.135 -0.1259  0.1112  0.3123
  473POSM   C3A 5547   4.815  19.017  13.006  0.3438 -0.3804  0.0494
  473POSM   C1B 5548   4.688  20.540  12.907  0.3010  0.0688 -0.1091
  473POSM   D2B 5549   4.708  20.512  12.443 -0.0783 -0.0206  0.1321
  473POSM   C3B 5550   4.810  20.390  12.031  0.3723 -0.2936 -0.1376
  473POSM   C4B 5551   5.111  20.624  11.740  0.2372  0.2267  0.1378
  474DOPE   NH3 5552   2.832  16.217  14.064 -0.1527  0.0695 -0.2163
  474DOPE   PO4 5553   2.929  15.905  14.125 -0.0132 -0.1525  0.3060
  474DOPE   GL1 5554   3.056  15.814  13.697 -0.1274  0.3137 -0.2179
  474DOPE   GL2 5555   2.934  16.010  13.586 -0.1601 -0.2016  0.1577
  474DOPE   C1A 5556   2.834  15.614  13.311 -0.1398  0.1140 -0.2743
  474DOPE   D2A 5557   2.843  15.404  12.904  0.2628  0.4069  0.0685
  474DOPE   C3A 5558   2.999  15.482  12.481  0.1563  0.2552 -0.2089
  474DOPE   C4A 5559   3.375  15.508  12.218 -0.0195  0.4179  0.1921
  474DOPE   C1B 5560   2.759  16.077  13.192  0.0410  0.3350  0.4972
  474DOPE   D2B 5561   2.847  15.953  12.769  0.0738  0.1186 -0.1243
  474DOPE   C3B 5562   3.123  15.945  12.373  0.0719  0.1336  0.2808
  474DOPE   C4B 5563   3.533  16.156  12.123  0.0167  0.1027  0.2251
  475DOPE   NH3 5564   1.753  16.943  13.766  0.0403 -0.2467 -0.0273
  475DOPE   PO4 5565   1.524  17.173  13.737  0.0078 -0.0354  0.1031
  475DOPE   GL1 5566   1.553  17.105  13.344  0.0625  0.1415  0.5900
  475DOPE   GL2 5567   1.457  16.803  13.326 -0.0914  0.1673 -0.0387
  475DOPE   C1A 5568   1.196  17.066  12.994  0.2032 -0.1858 -0.2995
  475DOPE   D2A 5569   0.932  17.303  12.665 -0.1766  0.0690  0.0438
  475DOPE   C3A 5570   1.037  17.240  12.205 -0.1615 -0.1216 -0.2984
  475DOPE   C4A 5571   1.184  17.339  11.790  0.0870  0.2706  0.0149
  475DOPE   C1B 5572   1.485  16.733  12.901 -0.0016  0.0740 -0.2677
  475DOPE   D2B 5573   1.355  16.923  12.523 -0.1426 -0.3413  0.0323
  475DOPE   C3B 5574   1.438  16.930  12.103 -0.0172 -0.0329 -0.2074
  475DOPE   C4B 5575   1.758  16.993  11.813  0.1994 -0.0134  0.0846
  476DOPE   NH3 5576   7.068  21.885  13.770 -0.0968  0.0188 -0.3844
  476DOPE   PO4 5577   7.376  21.977  13.730  0.2187  0.0628  0.1185
  476DOPE   GL1 5578   7.193  22.139  13.397 -0.0737 -0.2451 -0.0340
  476DOPE   GL2 5579   6.845  22.210  13.398  0.3004 -0.1010 -0.0522
  476DOPE   C1A 5580   7.410  22.471  13.116  0.1404  0.0117  0.2606
  476DOPE   D2A 5581   7.317  22.713  12.778  0.1027  0.2097 -0.0367
  476DOPE   C3A 5582   7.076  23.000  13.032 -0.1268  0.2641  0.1397
  476DOPE   C4A 5583   7.327  23.341  13.303 -0.0969  0.1307  0.2377
  476DOPE   C1B 5584   6.961  22.181  12.965  0.1658  0.1606  0.2698
  476DOPE   D2B 5585   7.365  22.118  12.748 -0.0531  0.0196  0.0078
  476DOPE   C3B 5586   7.680  22.431  12.591 -0.0751  0.3794 -0.0414
  476DOPE   C4B 5587   7.868  22.855  12.691  0.0697  0.1079 -0.0170
  477DOPC   NC3 5588   0.617  14.390  13.643 -0.1166  0.1959 -0.2018
  477DOPC   PO4 5589   0.338  14.638  13.825 -0.0104 -0.2962  0.3312
  477DOPC   GL1 5590   0.311  14.769  13.514 -0.3137  0.0559  0.0251
  477DOPC   GL2 5591   0.066  14.853  13.445 -0.2858 -0.0082 -0.2285
  477DOPC   C1A 5592   0.326  14.667  13.084  0.2404  0.1137 -0.4412
  477DOPC   D2A 5593   0.108  14.767  12.714 -0.1265  0.0286 -0.0435
  477DOPC   C3A 5594  -0.319  14.958  12.631 -0.2676  0.0844  0.2529
  477DOPC   C4A 5595  -0.602  14.892  12.255 -0.2629 -0.1432 -0.0886
  477DOPC   C1B 5596  -0.229  14.741  13.119 -0.2640 -0.0655 -0.3803
  477DOPC   D2B 5597  -0.472  14.256  13.118 -0.0041 -0.1005  0.2709
  477DOPC   C3B 5598  -0.287  13.926  12.930 -0.0554 -0.0892  0.2695
  477DOPC   C4B 5599  -0.021  13.725  12.558  0.0840 -0.1466 -0.2474
  478DOPC   NC3 5600   0.897  19.961  13.475  0.0610 -0.1329  0.0948
  478DOPC   PO4 5601   1.267  19.856  13.570 -0.1181 -0.0318 -0.0996
  478DOPC   GL1 5602   1.319  20.204  13.398 -0.4364 -0.1757  0.3038
  478DOPC   GL2 5603   1.555  20.220  13.323  0.1063 -0.2773 -0.0338
  478DOPC   C1A 5604   1.328  20.114  12.912  0.2336 -0.1331 -0.0441
  478DOPC   D2A 5605   1.312  20.071  12.403  0.1761 -0.0208 -0.0957
  478DOPC   C3A 5606   0.913  19.986  12.170 -0.0066 -0.0249  0.0703
  478DOPC   C4A 5607   0.685  19.599  12.046 -0.1742 -0.2023 -0.1634
  478DOPC   C1B 5608   1.740  20.554  13.086 -0.4098  0.4554 -0.0545
  478DOPC   D2B 5609   1.962  20.854  12.815  0.1104  0.1344 -0.0564
  478DOPC   C3B 5610   1.608  20.894  12.474  0.0411  0.2876  0.2579
  478DOPC   C4B 5611   1.185  20.848  12.509  0.2088  0.0909  0.1767
  479POSM   NC3 5612   5.649  13.080  15.123  0.1125  0.0098  0.0974
  479POSM   PO4 5613   6.007  13.192  14.911 -0.1229  0.1773 -0.1441
  479POSM   AM1 5614   6.122  13.107  14.624  0.1411  0.1308 -0.2046
  479POSM   AM2 5615   6.276  13.272  14.443 -0.0326 -0.0880 -0.0089
  479POSM   T1A 5616   6.368  12.800  14.306  0.2454 -0.0634  0.0544
  479POSM   C2A 5617   6.589  12.512  14.103 -0.1422  0.2101  0.2933
  479POSM   C3A 5618   6.484  12.443  13.687 -0.0104  0.0031  0.2281
  479POSM   C1B 5619   6.210  13.257  14.134  0.0119  0.2578 -0.1451
  479POSM   D2B 5620   6.146  13.459  13.723 -0.1069 -0.0930  0.2277
  479POSM   C3B 5621   6.118  13.500  13.292 -0.1353 -0.1929 -0.1941
  479POSM   C4B 5622   5.820  13.619  13.003 -0.1963 -0.0399  0.0549
  480DOPC   NC3 5623   3.811  23.436  14.174 -0.1421 -0.1028  0.1591
  480DOPC   PO4 5624   4.174  23.229  14.150  0.2809 -0.0171 -0.0068
  480DOPC   GL1 5625   4.191  23.038  13.805 -0.1886 -0.1959 -0.1118
  480DOPC   GL2 5626   4.378  22.806  13.763 -0.2916 -0.3044  0.0054
  480DOPC   C1A 5627   4.277  23.250  13.410  0.1600  0.1750 -0.0991
  480DOPC   D2A 5628   4.511  23.395  13.069 -0.1374  0.0267  0.0982
  480DOPC   C3A 5629   4.236  23.328  12.722 -0.0441  0.0772  0.1176
  480DOPC   C4A 5630   3.774  23.218  12.708  0.0608  0.1767  0.0409
  480DOPC   C1B 5631   4.114  22.773  13.419 -0.1899 -0.1078 -0.0573
  480DOPC   D2B 5632   3.914  22.812  13.011  0.1714 -0.4022 -0.2143
  480DOPC   C3B 5633   3.614  22.470  12.791  0.1322  0.0715 -0.0549
  480DOPC   C4B 5634   3.682  22.241  12.417  0.0464  0.0308 -0.1822
  481DOPE   NH3 5635   8.707  14.079  13.872  0.0868  0.1053  0.0210
  481DOPE   PO4 5636   8.928  14.072  13.689  0.2522 -0.2471 -0.2981
  481DOPE   GL1 5637   9.060  13.804  13.425 -0.2342 -0.0332 -0.1828
  481DOPE   GL2 5638   9.408  13.792  13.459 -0.1238  0.2284 -0.1761
  481DOPE   C1A 5639   8.832  13.766  13.019 -0.0829 -0.0893 -0.1032
  481DOPE   D2A 5640   8.971  13.568  12.622  0.4204  0.0428  0.2203
  481DOPE   C3A 5641   9.132  13.626  12.179 -0.0553 -0.3594 -0.0101
  481DOPE   C4A 5642   9.373  13.651  11.782 -0.1417  0.0092 -0.3017
  481DOPE   C1B 5643   9.263  13.524  13.102  0.1216 -0.0618 -0.1962
  481DOPE   D2B 5644   9.251  13.122  12.785  0.4102 -0.4333 -0.3108
  481DOPE   C3B 5645   8.855  12.997  12.517  0.2322  0.1086 -0.0794
  481DOPE   C4B 5646   8.696  12.968  12.092 -0.3724 -0.1701  0.0427
  482DOPC   NC3 5647   3.884  18.953  13.889 -0.1071  0.0276  0.0179
  482DOPC   PO4 5648   3.608  19.121  13.647 -0.1405 -0.1581  0.1324
  482DOPC   GL1 5649   3.795  19.023  13.317 -0.0829 -0.1324  0.0566
  482DOPC   GL2 5650   3.964  18.854  13.420 -0.3721 -0.0066  0.1596
  482DOPC   C1A 5651   3.815  19.093  12.855 -0.1741 -0.0447 -0.2458
  482DOPC   D2A 5652   3.480  19.076  12.522  0.0515 -0.4190  0.2061
  482DOPC   C3A 5653   3.667  18.955  12.087  0.0156  0.1241 -0.1600
  482DOPC   C4A 5654   3.922  18.920  11.708 -0.3663  0.0021 -0.2764
  482DOPC   C1B 5655   4.310  18.999  13.158 -0.1607 -0.0691  0.2323
  482DOPC   D2B 5656   4.330  19.086  12.734  0.3283 -0.1541  0.1530
  482DOPC   C3B 5657   4.043  19.223  12.376  0.0422 -0.0494 -0.2201
  482DOPC   C4B 5658   4.072  19.568  12.035  0.3261  0.2143  0.4077
  483DOPE   NH3 5659   0.390  21.994  13.928  0.0666 -0.1141  0.0079
  483DOPE   PO4 5660   0.314  22.250  14.013  0.1264  0.1237 -0.2939
  483DOPE   GL1 5661   0.323  22.365  13.683 -0.1654 -0.1387 -0.1066
  483DOPE   GL2 5662   0.625  22.416  13.597 -0.2942  0.5672  0.0012
  483DOPE   C1A 5663   0.055  22.677  13.488 -0.0648 -0.1383 -0.1606
  483DOPE   D2A 5664  -0.343  22.835  13.597 -0.2894  0.0891 -0.0010
  483DOPE   C3A 5665  -0.534  23.050  13.245  0.2660  0.0040  0.0860
  483DOPE   C4A 5666  -0.676  23.154  12.832 -0.0705  0.1386 -0.1993
  483DOPE   C1B 5667   1.068  22.564  13.523 -0.0715 -0.4509 -0.0246
  483DOPE   D2B 5668   1.332  22.930  13.378 -0.1179 -0.1359 -0.0502
  483DOPE   C3B 5669   1.537  23.066  13.045  0.3255  0.0361 -0.1126
  483DOPE   C4B 5670   1.557  23.314  12.582 -0.0096  0.3511  0.2360
  484DOPE   NH3 5671   7.678  12.933  14.680  0.0356  0.2245 -0.0494
  484DOPE   PO4 5672   8.014  12.975  14.622 -0.2336 -0.0015  0.0913
  484DOPE   GL1 5673   7.800  12.672  14.318  0.0791  0.0022  0.3499
  484DOPE   GL2 5674   7.774  12.546  14.022 -0.1914 -0.0185 -0.2149
  484DOPE   C1A 5675   8.146  12.306  14.343 -0.3676  0.0214 -0.1472
  484DOPE   D2A 5676   8.316  11.886  14.151 -0.1633  0.2413 -0.1117
  484DOPE   C3A 5677   8.759  11.805  14.200 -0.0657 -0.1042 -0.2085
  484DOPE   C4A 5678   9.086  11.634  13.844  0.0179 -0.1580 -0.0292
  484DOPE   C1B 5679   8.002  12.126  13.896 -0.0701 -0.0773  0.2255
  484DOPE   D2B 5680   8.112  11.694  13.718  0.0466  0.1557  0.2196
  484DOPE   C3B 5681   8.243  11.699  13.364  0.1282  0.1729  0.2771
  484DOPE   C4B 5682   8.440  11.864  13.004  0.2094 -0.2344  0.0624
  485DOPC   NC3 5683   1.324  15.946  13.476  0.0151  0.1508 -0.1048
  485DOPC   PO4 5684   1.549  16.287  13.441  0.0546 -0.1431 -0.2725
  485DOPC   GL1 5685   1.632  16.313  13.020  0.3199  0.1268  0.3821
  485DOPC   GL2 5686   1.924  16.318  13.008  0.2803 -0.0358  0.2778
  485DOPC   C1A 5687   1.396  16.015  12.764  0.0950 -0.1142  0.1403
  485DOPC   D2A 5688   1.049  15.813  12.538  0.1932  0.1612  0.0894
  485DOPC   C3A 5689   1.052  15.491  12.161  0.2218 -0.0398 -0.0742
  485DOPC   C4A 5690   0.716  15.277  11.924 -0.3312  0.0984 -0.0587
  485DOPC   C1B 5691   1.742  16.405  12.604 -0.1764  0.0826  0.0701
  485DOPC   D2B 5692   1.682  16.237  12.189 -0.0742 -0.0189  0.0089
  485DOPC   C3B 5693   1.663  16.535  11.816  0.1510  0.2838 -0.1145
  485DOPC   C4B 5694   1.869  16.477  11.432 -0.0447  0.1276 -0.0650
  486DOPC   NC3 5695   3.652  16.872  14.009 -0.4023  0.0187  0.0461
  486DOPC   PO4 5696   3.500  16.706  13.706 -0.0176 -0.3220  0.3632
  486DOPC   GL1 5697   3.452  16.782  13.284 -0.3344 -0.5258  0.1635
  486DOPC   GL2 5698   3.599  16.484  13.163  0.3494  0.2533  0.1698
  486DOPC   C1A 5699   3.635  16.897  12.899 -0.4285 -0.1537  0.0645
  486DOPC   D2A 5700   3.656  16.782  12.445  0.0147  0.1388 -0.1455
  486DOPC   C3A 5701   3.841  16.370  12.436  0.1778 -0.0101  0.1974
  486DOPC   C4A 5702   4.109  16.024  12.674  0.1560 -0.0101  0.1350
  486DOPC   C1B 5703   3.360  16.360  12.772 -0.2080  0.3464 -0.0812
  486DOPC   D2B 5704   3.170  16.424  12.323 -0.0529  0.3061 -0.0456
  486DOPC   C3B 5705   3.046  16.228  11.967 -0.0963 -0.2624  0.1157
  486DOPC   C4B 5706   3.344  16.251  11.609 -0.1080  0.2115  0.0498
  487DOPC   NC3 5707  11.177  20.488  13.071  0.3148  0.0797 -0.0888
  487DOPC   PO4 5708  11.405  20.762  12.881  0.2755 -0.0319 -0.0532
  487DOPC   GL1 5709  11.441  20.848  12.508 -0.3216  0.2873  0.1391
  487DOPC   GL2 5710  11.361  21.138  12.496 -0.0084  0.1449  0.0329
  487DOPC   C1A 5711  11.282  20.721  12.086  0.2940 -0.3535 -0.0487
  487DOPC   D2A 5712  11.230  20.683  11.639 -0.0084 -0.0934  0.1193
  487DOPC   C3A 5713  10.980  20.787  11.248  0.2296  0.1745  0.0903
  487DOPC   C4A 5714  10.726  21.050  10.965  0.2833  0.0033  0.1675
  487DOPC   C1B 5715  11.339  21.345  12.098 -0.1748 -0.4564 -0.1715
  487DOPC   D2B 5716  11.519  21.725  11.839  0.0612 -0.0739 -0.0360
  487DOPC   C3B 5717  11.827  21.667  11.510 -0.0192  0.0848  0.4352
  487DOPC   C4B 5718  12.015  21.800  11.110 -0.1234 -0.0325 -0.0919
  488DOPC   NC3 5719  32.953  13.003  13.416  0.1696  0.2990  0.1933
  488DOPC   PO4 5720  33.053  12.800  13.772  0.1377  0.1180 -0.0190
  488DOPC   GL1 5721  32.957  12.557  13.383  0.0965 -0.2439  0.2603
  488DOPC   GL2 5722  33.036  12.341  13.483  0.3915 -0.2765 -0.0199
  488DOPC   C1A 5723  33.054  12.704  12.970  0.0763  0.0948  0.0745
  488DOPC   D2A 5724  32.959  12.545  12.559  0.0613 -0.0366 -0.1074
  488DOPC   C3A 5725  33.341  12.461  12.293  0.0068  0.0294 -0.0079
  488DOPC   C4A 5726  33.749  12.274  12.365  0.2087  0.1270 -0.2733
  488DOPC   C1B 5727  33.157  12.021  13.139 -0.3255 -0.0629 -0.1911
  488DOPC   D2B 5728  33.305  11.519  13.043  0.1235 -0.0077  0.1187
  488DOPC   C3B 5729  32.888  11.272  13.010  0.1127  0.1656 -0.4159
  488DOPC   C4B 5730  32.749  10.838  12.825 -0.2692  0.1197  0.5190
  489DOPC   NC3 5731   5.332  13.510  14.446  0.2261  0.1349  0.0024
  489DOPC   PO4 5732   5.243  13.269  14.723  0.1292  0.0788  0.1941
  489DOPC   GL1 5733   5.582  13.218  14.640 -0.0451 -0.0331 -0.0356
  489DOPC   GL2 5734   5.556  12.972  14.532 -0.5726  0.0495  0.2103
  489DOPC   C1A 5735   5.723  13.351  14.210  0.1027 -0.2231  0.1119
  489DOPC   D2A 5736   6.051  13.700  14.177  0.1280 -0.0110 -0.0358
  489DOPC   C3A 5737   6.162  13.939  13.826 -0.1818 -0.2094  0.3125
  489DOPC   C4A 5738   6.408  13.978  13.467 -0.1199  0.1382 -0.1634
  489DOPC   C1B 5739   5.895  12.773  14.246 -0.1224 -0.3226  0.0634
  489DOPC   D2B 5740   6.142  12.819  13.857  0.2559 -0.1329  0.1061
  489DOPC   C3B 5741   6.257  12.809  13.464  0.2563  0.1883 -0.1093
  489DOPC   C4B 5742   6.453  13.051  13.157 -0.1479  0.2480 -0.0959
  490DOPE   NH3 5743  10.922  18.170  12.571  0.1872 -0.0960 -0.1490
  490DOPE   PO4 5744  11.260  18.237  12.586 -0.1017  0.0806  0.1254
  490DOPE   GL1 5745  11.187  18.139  12.199 -0.0304  0.2026 -0.2376
  490DOPE   GL2 5746  11.109  18.386  12.135 -0.2266 -0.0613  0.2418
  490DOPE   C1A 5747  10.914  17.923  11.850 -0.0378 -0.0647 -0.1672
  490DOPE   D2A 5748  10.905  17.589  11.546  0.0559  0.2220  0.1125
  490DOPE   C3A 5749  10.966  17.622  11.068 -0.0021  0.0243 -0.0079
  490DOPE   C4A 5750  11.131  17.511  10.672 -0.2381 -0.0909  0.0104
  490DOPE   C1B 5751  11.291  18.188  11.743  0.1917  0.2735  0.2089
  490DOPE   D2B 5752  11.104  18.008  11.386  0.2231 -0.3866  0.4180
  490DOPE   C3B 5753  11.194  18.142  10.973 -0.0480 -0.0579 -0.0248
  490DOPE   C4B 5754  10.961  18.367  10.683  0.1362 -0.2027  0.1400
  491DOPE   NH3 5755   9.042  17.428  12.892 -0.3977 -0.0916  0.3855
  491DOPE   PO4 5756   8.768  17.398  13.062  0.4345  0.2403 -0.2006
  491DOPE   GL1 5757   8.672  17.156  12.726  0.0665  0.0682  0.1220
  491DOPE   GL2 5758   8.628  17.307  12.466  0.1035 -0.2743  0.0005
  491DOPE   C1A 5759   8.793  16.748  12.576  0.0698 -0.3638  0.0251
  491DOPE   D2A 5760   8.678  16.367  12.313 -0.3488 -0.2462 -0.1700
  491DOPE   C3A 5761   8.675  15.915  12.167  0.2153 -0.1460 -0.0400
  491DOPE   C4A 5762   8.736  15.419  12.134 -0.0354  0.3397  0.0440
  491DOPE   C1B 5763   8.298  17.187  12.145  0.0651 -0.0861 -0.1187
  491DOPE   D2B 5764   8.375  17.239  11.675  0.0684 -0.0417 -0.7988
  491DOPE   C3B 5765   8.649  16.941  11.432  0.2946 -0.2361 -0.2805
  491DOPE   C4B 5766   8.789  16.632  11.203  0.0304 -0.1076  0.0702
  492POSM   NC3 5767   5.756  18.219  13.743  0.0645  0.0333 -0.0617
  492POSM   PO4 5768   5.539  17.993  13.970  0.0041  0.0608 -0.1182
  492POSM   AM1 5769   5.375  17.948  13.699  0.0728  0.1274 -0.1076
  492POSM   AM2 5770   5.475  17.852  13.439 -0.1656 -0.1761 -0.1180
  492POSM   T1A 5771   5.151  18.253  13.391 -0.0123 -0.0980 -0.1221
  492POSM   C2A 5772   4.943  18.444  13.025 -0.1401 -0.0790  0.2359
  492POSM   C3A 5773   4.988  18.638  12.648 -0.3302 -0.1623 -0.0666
  492POSM   C1B 5774   5.338  17.856  13.108  0.1839 -0.1290  0.3403
  492POSM   D2B 5775   5.360  17.782  12.632 -0.3540 -0.0634  0.4525
  492POSM   C3B 5776   5.483  17.341  12.565 -0.0105 -0.3162 -0.2892
  492POSM   C4B 5777   5.463  17.021  12.228  0.0452  0.0312  0.0201
  493DOPC   NC3 5778   8.958  10.774  15.051 -0.1320 -0.0766 -0.0025
  493DOPC   PO4 5779   8.912  11.121  14.886 -0.2303 -0.2403  0.1242
  493DOPC   GL1 5780   8.912  11.387  14.567 -0.1848 -0.0468  0.2305
  493DOPC   GL2 5781   9.155  11.335  14.382  0.1145  0.0655  0.2687
  493DOPC   C1A 5782   8.429  11.436  14.398  0.0732  0.1352 -0.0066
  493DOPC   D2A 5783   8.193  11.308  14.077 -0.0828  0.3031 -0.0386
  493DOPC   C3A 5784   8.482  11.320  13.732  0.1148 -0.0862  0.0538
  493DOPC   C4A 5785   8.725  11.420  13.310  0.3395 -0.2651  0.1250
  493DOPC   C1B 5786   8.991  11.045  14.128  0.1699  0.1585  0.0097
  493DOPC   D2B 5787   8.536  10.944  14.099  0.2205 -0.3031  0.2472
  493DOPC   C3B 5788   8.196  10.920  14.408  0.1870  0.1180  0.0847
  493DOPC   C4B 5789   7.948  10.695  14.691  0.3736 -0.0782  0.1137
  494POSM   NC3 5790   5.125  14.085  14.448  0.0155 -0.0738  0.1861
  494POSM   PO4 5791   4.859  14.122  14.184 -0.1655 -0.0538 -0.1730
  494POSM   AM1 5792   4.764  13.946  13.931  0.2044 -0.1320 -0.2526
  494POSM   AM2 5793   4.679  13.697  13.925  0.2663  0.0618 -0.1396
  494POSM   T1A 5794   4.485  13.839  13.483 -0.3775  0.0192  0.1462
  494POSM   C2A 5795   4.325  13.671  13.109  0.0474 -0.2077  0.1586
  494POSM   C3A 5796   4.210  13.452  12.697 -0.0065 -0.1195 -0.3685
  494POSM   C1B 5797   4.906  13.519  13.794 -0.0352  0.3592 -0.0328
  494POSM   D2B 5798   5.204  13.171  13.593 -0.0336 -0.1459 -0.1133
  494POSM   C3B 5799   4.999  12.993  13.212  0.1713 -0.1850 -0.0130
  494POSM   C4B 5800   4.934  12.758  12.832 -0.2037 -0.3400  0.1272
  495POSM   NC3 5801   3.146  22.482  14.154 -0.1089 -0.0692 -0.0663
  495POSM   PO4 5802   3.444  22.695  13.989 -0.1068  0.0280 -0.3194
  495POSM   AM1 5803   3.436  22.553  13.678 -0.4057  0.3737 -0.4037
  495POSM   AM2 5804   3.262  22.467  13.462 -0.1799  0.0608  0.0596
  495POSM   T1A 5805   3.735  22.350  13.319 -0.1344  0.2974 -0.1629
  495POSM   C2A 5806   4.083  22.338  12.978  0.0141  0.2165 -0.2301
  495POSM   C3A 5807   4.155  22.244  12.527 -0.2094  0.1751 -0.0002
  495POSM   C1B 5808   3.100  22.355  13.256  0.0187  0.2386 -0.2396
  495POSM   D2B 5809   3.158  22.087  12.897 -0.1145 -0.3810  0.0322
  495POSM   C3B 5810   3.081  22.086  12.422  0.2362  0.1924 -0.1536
  495POSM   C4B 5811   3.011  21.931  11.978  0.0404  0.0366 -0.1894
  496DOPS   CNO 5812   5.902  17.647  14.104  0.1524  0.1281  0.0054
  496DOPS   PO4 5813   5.969  17.793  13.782 -0.1130  0.1006  0.1047
  496DOPS   GL1 5814   5.934  17.516  13.491 -0.0921  0.2548 -0.0200
  496DOPS   GL2 5815   5.739  17.441  13.343  0.0794  0.0645 -0.0331
  496DOPS   C1A 5816   6.225  17.528  13.105 -0.3753 -0.0099  0.1867
  496DOPS   D2A 5817   6.416  17.268  12.736 -0.2444  0.1985  0.0355
  496DOPS   C3A 5818   6.811  17.130  12.525  0.1464  0.1634  0.0879
  496DOPS   C4A 5819   7.124  16.775  12.556  0.0596  0.1532  0.2416
  496DOPS   C1B 5820   5.834  17.552  12.894 -0.0428  0.4010  0.1753
  496DOPS   D2B 5821   5.843  17.910  12.629  0.2383  0.0024  0.2020
  496DOPS   C3B 5822   5.675  17.774  12.227  0.1668 -0.1568  0.0743
  496DOPS   C4B 5823   5.592  17.885  11.735 -0.1926 -0.1027 -0.1557
  497DOPC   NC3 5824   4.679  18.383  13.673 -0.0050 -0.0969 -0.0827
  497DOPC   PO4 5825   4.307  18.371  13.744  0.1718  0.0221 -0.1268
  497DOPC   GL1 5826   4.263  18.533  13.317  0.2298 -0.0676 -0.8000
  497DOPC   GL2 5827   4.517  18.577  13.272  0.0018  0.1575 -0.1728
  497DOPC   C1A 5828   4.025  18.660  12.934 -0.1564 -0.0556 -0.1172
  497DOPC   D2A 5829   3.961  18.786  12.499 -0.0777  0.1006 -0.0613
  497DOPC   C3A 5830   4.179  18.741  12.085 -0.0069 -0.0539  0.0511
  497DOPC   C4A 5831   4.475  18.666  11.738 -0.0504 -0.0646 -0.0556
  497DOPC   C1B 5832   4.474  18.351  12.855  0.0052  0.1199 -0.0307
  497DOPC   D2B 5833   4.373  18.420  12.420 -0.0699 -0.1782  0.3997
  497DOPC   C3B 5834   4.575  18.837  12.307  0.1705  0.1092  0.0247
  497DOPC   C4B 5835   4.481  19.157  11.972 -0.0203  0.3206  0.1587
  498DOPE   NH3 5836   5.483  16.793  14.068  0.0993  0.0322 -0.0515
  498DOPE   PO4 5837   5.586  16.957  13.810 -0.0565  0.2004  0.1895
  498DOPE   GL1 5838   5.760  16.839  13.438 -0.0058  0.2005 -0.1082
  498DOPE   GL2 5839   5.973  17.013  13.378  0.0065  0.1077  0.1810
  498DOPE   C1A 5840   5.776  16.615  13.011  0.0857 -0.0070 -0.1402
  498DOPE   D2A 5841   5.813  16.757  12.573 -0.3035 -0.6209 -0.0139
  498DOPE   C3A 5842   5.523  16.502  12.329  0.1089  0.1251  0.0649
  498DOPE   C4A 5843   5.275  16.574  11.960 -0.0517 -0.0920 -0.1675
  498DOPE   C1B 5844   5.969  17.093  12.918 -0.3477 -0.1244  0.3733
  498DOPE   D2B 5845   6.011  17.291  12.419 -0.0004  0.0176  0.2368
  498DOPE   C3B 5846   6.171  17.202  11.936 -0.1688 -0.3584 -0.1604
  498DOPE   C4B 5847   6.200  16.956  11.518  0.0310 -0.2037  0.3098
  499DOPE   NH3 5848   4.134  13.866  14.577 -0.4458  0.0212  0.1047
  499DOPE   PO4 5849   4.308  13.707  14.339  0.1973  0.2475 -0.0630
  499DOPE   GL1 5850   4.159  13.540  14.040 -0.1122 -0.1185 -0.0932
  499DOPE   GL2 5851   4.018  13.761  13.943 -0.0504 -0.2574  0.0480
  499DOPE   C1A 5852   4.420  13.378  13.681  0.3988 -0.0424 -0.1183
  499DOPE   D2A 5853   4.745  13.380  13.286  0.0184 -0.1664  0.0692
  499DOPE   C3A 5854   5.022  13.746  13.311  0.0420  0.4572  0.0616
  499DOPE   C4A 5855   5.410  13.960  13.161 -0.3732  0.2121  0.2770
  499DOPE   C1B 5856   4.005  13.612  13.462 -0.0721 -0.4075 -0.0478
  499DOPE   D2B 5857   4.072  13.304  13.117 -0.1976  0.3450 -0.1997
  499DOPE   C3B 5858   3.708  13.453  12.823  0.0057 -0.1432  0.2039
  499DOPE   C4B 5859   3.311  13.257  12.686 -0.1619  0.3122 -0.1997
  500DOPC   NC3 5860   5.785  14.407  14.075 -0.0238 -0.0275  0.0474
  500DOPC   PO4 5861   5.605  14.086  14.189 -0.1160  0.0250  0.1712
  500DOPC   GL1 5862   5.706  13.859  13.913 -0.3995 -0.1185 -0.1424
  500DOPC   GL2 5863   5.617  14.014  13.672  0.1076 -0.1834 -0.0626
  500DOPC   C1A 5864   5.541  13.610  13.527 -0.3513  0.0381  0.3313
  500DOPC   D2A 5865   5.372  13.357  13.166  0.1748 -0.2512 -0.0086
  500DOPC   C3A 5866   5.354  13.651  12.812  0.0117 -0.1044 -0.0159
  500DOPC   C4A 5867   5.601  13.930  12.613  0.2625 -0.1550  0.0235
  500DOPC   C1B 5868   5.916  13.953  13.363 -0.0440  0.0945  0.0025
  500DOPC   D2B 5869   6.255  13.938  13.019 -0.1496  0.1871 -0.1989
  500DOPC   C3B 5870   6.693  14.174  13.104 -0.1293  0.2872  0.2381
  500DOPC   C4B 5871   7.149  14.212  12.918  0.1029 -0.2017  0.2129
  501POSM   NC3 5872   8.307  20.173  13.125 -0.0909 -0.0187 -0.0899
  501POSM   PO4 5873   8.095  19.847  13.215 -0.4111  0.1569  0.2297
  501POSM   AM1 5874   7.862  19.960  13.033  0.1688 -0.4301 -0.2316
  501POSM   AM2 5875   7.685  19.787  12.916 -0.0030 -0.1076  0.0167
  501POSM   T1A 5876   7.762  20.198  12.619 -0.3180  0.0560  0.0040
  501POSM   C2A 5877   7.808  20.075  12.204  0.2274  0.3304 -0.4211
  501POSM   C3A 5878   7.711  20.147  11.743  0.1836 -0.0817 -0.3773
  501POSM   C1B 5879   7.829  19.682  12.599 -0.1264 -0.1246 -0.1012
  501POSM   D2B 5880   8.039  19.474  12.248  0.1624 -0.1460  0.0229
  501POSM   C3B 5881   7.711  19.158  12.126 -0.1118 -0.0007  0.0838
  501POSM   C4B 5882   7.300  19.243  11.991  0.2681 -0.1869 -0.2394
  502POSM   NC3 5883   4.010  22.592  13.999 -0.1129 -0.0188  0.2513
  502POSM   PO4 5884   4.163  22.256  13.933  0.1499  0.2001  0.0310
  502POSM   AM1 5885   4.139  22.232  13.584 -0.2900  0.0972 -0.1991
  502POSM   AM2 5886   4.347  22.217  13.396 -0.2393 -0.0253  0.0722
  502POSM   T1A 5887   3.966  21.937  13.273 -0.2994  0.2835  0.1593
  502POSM   C2A 5888   3.835  21.572  12.992  0.1441  0.0980 -0.0003
  502POSM   C3A 5889   3.926  21.304  12.649 -0.2212  0.1796  0.0357
  502POSM   C1B 5890   4.563  22.496  13.438  0.1423  0.1249  0.5437
  502POSM   D2B 5891   4.719  22.927  13.406  0.0131 -0.0391 -0.1334
  502POSM   C3B 5892   4.859  23.067  13.013  0.0930 -0.2418 -0.1633
  502POSM   C4B 5893   4.635  23.125  12.629 -0.2884 -0.0271  0.3227
  503DOPC   NC3 5894   8.710  18.929  12.804 -0.0722  0.2441  0.1226
  503DOPC   PO4 5895   8.443  18.697  12.687 -0.1775  0.0200  0.1841
  503DOPC   GL1 5896   8.453  18.713  12.281  0.1594  0.2644  0.6011
  503DOPC   GL2 5897   8.768  18.705  12.334  0.0337  0.0197  0.1485
  503DOPC   C1A 5898   8.477  18.359  12.047 -0.2238  0.1031  0.1171
  503DOPC   D2A 5899   8.407  18.161  11.615 -0.3720  0.1418 -0.1059
  503DOPC   C3A 5900   8.449  17.774  11.347 -0.0672 -0.1197  0.0049
  503DOPC   C4A 5901   8.516  17.374  11.173  0.1018  0.0456 -0.1317
  503DOPC   C1B 5902   9.060  18.900  12.037  0.1524 -0.0549  0.1696
  503DOPC   D2B 5903   9.219  18.665  11.634 -0.0669 -0.1722  0.1925
  503DOPC   C3B 5904   9.272  18.534  11.208  0.0997  0.0232 -0.2271
  503DOPC   C4B 5905   9.602  18.319  10.909  0.2388 -0.1090  0.0121
  504DOPS   CNO 5906   3.811  17.597  13.922  0.0199 -0.3766 -0.1857
  504DOPS   PO4 5907   3.750  17.277  13.757  0.1986  0.2563 -0.1206
  504DOPS   GL1 5908   3.899  17.328  13.346 -0.2830  0.0840 -0.1230
  504DOPS   GL2 5909   4.237  17.359  13.421 -0.2920  0.0404  0.3642
  504DOPS   C1A 5910   4.063  17.195  12.917  0.0352  0.1688 -0.1891
  504DOPS   D2A 5911   4.201  17.005  12.481 -0.1201  0.2639 -0.2449
  504DOPS   C3A 5912   4.242  16.820  12.050  0.0269 -0.1056 -0.3077
  504DOPS   C4A 5913   4.487  17.027  11.697  0.1057  0.1315 -0.2487
  504DOPS   C1B 5914   4.039  17.687  13.132 -0.0830  0.2767  0.3438
  504DOPS   D2B 5915   3.842  17.716  12.686 -0.3008  0.0020  0.0041
  504DOPS   C3B 5916   3.756  17.284  12.505  0.0177 -0.0857  0.0544
  504DOPS   C4B 5917   4.037  17.269  12.045 -0.1805 -0.1451  0.0668
  505DOPE   NH3 5918  11.402  17.608  12.903  0.3380 -0.1559  0.0957
  505DOPE   PO4 5919  11.194  17.409  12.763 -0.1838 -0.0602 -0.3410
  505DOPE   GL1 5920  10.849  17.644  12.499  0.0549 -0.0851 -0.1164
  505DOPE   GL2 5921  11.001  17.775  12.343  0.0601 -0.0218 -0.1359
  505DOPE   C1A 5922  10.529  17.466  12.201 -0.0469 -0.2825  0.0041
  505DOPE   D2A 5923  10.246  17.160  12.086  0.1336 -0.0650 -0.1685
  505DOPE   C3A 5924   9.850  17.296  12.130 -0.2688 -0.0952 -0.1228
  505DOPE   C4A 5925   9.428  17.226  11.880 -0.2496 -0.0764  0.2925
  505DOPE   C1B 5926  10.944  17.439  12.011  0.2544 -0.1159  0.1024
  505DOPE   D2B 5927  11.055  17.048  11.748 -0.0348 -0.1524 -0.2725
  505DOPE   C3B 5928  11.069  16.761  11.378  0.1479 -0.1232 -0.0151
  505DOPE   C4B 5929  11.160  16.600  10.970  0.0223  0.0485  0.1268
  506DOPS   CNO 5930   5.827  19.776  13.873 -0.3046  0.1259 -0.3134
  506DOPS   PO4 5931   5.844  19.447  13.748 -0.1087 -0.1209  0.1335
  506DOPS   GL1 5932   5.825  19.518  13.365  0.3340 -0.0801  0.0124
  506DOPS   GL2 5933   6.022  19.367  13.241  0.2581  0.2218  0.0760
  506DOPS   C1A 5934   5.519  19.689  13.067 -0.2434  0.2073  0.3006
  506DOPS   D2A 5935   5.324  19.830  12.644  0.2873 -0.3643 -0.3619
  506DOPS   C3A 5936   5.298  19.671  12.204  0.3414  0.1977 -0.2686
  506DOPS   C4A 5937   5.680  19.488  11.934 -0.1082  0.2176  0.2992
  506DOPS   C1B 5938   5.816  19.315  12.831  0.1484 -0.1541  0.1212
  506DOPS   D2B 5939   5.585  19.420  12.428  0.1575  0.0710  0.1641
  506DOPS   C3B 5940   5.346  19.130  12.154 -0.4606 -0.1053  0.1587
  506DOPS   C4B 5941   4.958  18.998  11.973 -0.1467  0.1614  0.0144
  507DOPS   CNO 5942   1.844  14.077  14.342 -0.0798  0.1639  0.1774
  507DOPS   PO4 5943   1.504  14.110  14.207  0.0130  0.0286  0.0577
  507DOPS   GL1 5944   1.762  13.919  13.901  0.4658  0.4978 -0.2655
  507DOPS   GL2 5945   1.543  13.747  13.813 -0.0936  0.2747 -0.0720
  507DOPS   C1A 5946   2.098  13.750  13.663 -0.2285  0.1582  0.0121
  507DOPS   D2A 5947   2.031  13.625  13.229  0.0338 -0.0379  0.0243
  507DOPS   C3A 5948   2.410  13.660  12.919 -0.0943  0.0678  0.4951
  507DOPS   C4A 5949   2.865  13.635  12.702  0.1403 -0.1384 -0.0099
  507DOPS   C1B 5950   1.600  13.470  13.490 -0.0015 -0.2655 -0.0510
  507DOPS   D2B 5951   1.765  13.094  13.300  0.2631 -0.1230  0.0888
  507DOPS   C3B 5952   1.934  13.007  12.891 -0.1268 -0.5310 -0.1669
  507DOPS   C4B 5953   2.120  12.786  12.554  0.0281  0.0444 -0.2966
  508POSM   NC3 5954   3.256  19.280  13.974  0.0371  0.2008  0.1088
  508POSM   PO4 5955   3.051  19.599  13.877  0.2892 -0.1853  0.2607
  508POSM   AM1 5956   3.108  19.823  13.642  0.1945  0.0877  0.3922
  508POSM   AM2 5957   3.070  19.777  13.388  0.0346  0.2304 -0.2906
  508POSM   T1A 5958   3.518  20.079  13.425  0.2476  0.2972 -0.0218
  508POSM   C2A 5959   3.806  20.295  13.140 -0.1189  0.2043 -0.0127
  508POSM   C3A 5960   4.183  20.510  13.029 -0.0449  0.1214 -0.0409
  508POSM   C1B 5961   2.985  19.525  13.159  0.4260  0.0559 -0.2885
  508POSM   D2B 5962   2.659  19.466  12.834  0.2175 -0.3392 -0.4001
  508POSM   C3B 5963   2.694  19.622  12.384 -0.1843 -0.0028 -0.2307
  508POSM   C4B 5964   2.842  19.965  12.099  0.0525  0.2322  0.2750
  509POSM   NC3 5965   6.804  16.888  13.677  0.0515 -0.1507  0.1854
  509POSM   PO4 5966   7.155  16.707  13.752  0.3501  0.0378  0.1553
  509POSM   AM1 5967   7.089  16.556  13.471 -0.1006  0.4175 -0.0381
  509POSM   AM2 5968   7.103  16.289  13.357 -0.0704 -0.0733 -0.0501
  509POSM   T1A 5969   7.025  16.532  12.964 -0.0120  0.0863 -0.2017
  509POSM   C2A 5970   6.680  16.693  12.733  0.3248  0.1760  0.0703
  509POSM   C3A 5971   6.271  16.797  12.695  0.2149  0.3343 -0.3384
  509POSM   C1B 5972   7.036  15.948  13.342 -0.0169 -0.3753  0.1902
  509POSM   D2B 5973   6.837  15.582  13.285  0.0767  0.0402  0.2232
  509POSM   C3B 5974   7.232  15.366  13.272 -0.1964 -0.2056 -0.2165
  509POSM   C4B 5975   7.329  14.922  13.279 -0.0819  0.1767 -0.1469
  510DOPC   NC3 5976   2.841  15.413  13.836 -0.0492  0.0747  0.1010
  510DOPC   PO4 5977   2.698  14.997  13.870 -0.4627 -0.1167 -0.0804
  510DOPC   GL1 5978   2.555  15.054  13.564 -0.1971 -0.2972 -0.0844
  510DOPC   GL2 5979   2.706  15.103  13.334  0.0455 -0.0425 -0.2033
  510DOPC   C1A 5980   2.184  15.055  13.330  0.2256 -0.2133  0.1739
  510DOPC   D2A 5981   1.798  15.139  13.032  0.0514 -0.3299  0.0243
  510DOPC   C3A 5982   1.906  15.433  12.679 -0.1415 -0.0827  0.3074
  510DOPC   C4A 5983   2.100  15.532  12.298  0.1453 -0.1158  0.3059
  510DOPC   C1B 5984   2.625  14.960  12.934 -0.1143 -0.0582  0.2243
  510DOPC   D2B 5985   2.596  14.739  12.507 -0.0996  0.0856  0.1430
  510DOPC   C3B 5986   3.022  14.605  12.350  0.2761  0.1231  0.0543
  510DOPC   C4B 5987   3.413  14.456  12.283 -0.0442  0.0805  0.0478
  511POSM   NC3 5988   7.135  21.055  13.710 -0.1353 -0.1889  0.0923
  511POSM   PO4 5989   7.088  21.407  13.844  0.0429 -0.0823  0.2570
  511POSM   AM1 5990   7.116  21.503  13.503 -0.0864  0.0207 -0.3243
  511POSM   AM2 5991   7.188  21.692  13.290  0.3534 -0.2326 -0.2179
  511POSM   T1A 5992   6.935  21.283  13.064  0.1481  0.2105  0.0657
  511POSM   C2A 5993   6.709  21.116  12.729  0.1166  0.1334  0.1681
  511POSM   C3A 5994   6.364  21.371  12.542  0.0671 -0.0289  0.1420
  511POSM   C1B 5995   7.327  21.648  13.008  0.0192 -0.2047  0.0951
  511POSM   D2B 5996   7.291  21.321  12.708 -0.2528  0.5308 -0.1306
  511POSM   C3B 5997   7.011  21.432  12.365  0.0458  0.0377 -0.1213
  511POSM   C4B 5998   6.694  21.366  12.042 -0.1018 -0.2602 -0.0602
  512DOPC   NC3 5999   8.263  17.273  13.324  0.1161  0.2740  0.0393
  512DOPC   PO4 6000   8.005  17.511  13.216  0.1420 -0.0669 -0.2563
  512DOPC   GL1 6001   8.061  17.405  12.907  0.1845  0.3370 -0.2046
  512DOPC   GL2 6002   8.269  17.083  12.874  0.2534 -0.0655 -0.0378
  512DOPC   C1A 6003   7.797  17.567  12.572  0.0992  0.1227  0.3283
  512DOPC   D2A 6004   7.720  17.912  12.275  0.1543  0.1981 -0.1719
  512DOPC   C3A 6005   7.279  17.969  12.088  0.0088  0.0833 -0.1914
  512DOPC   C4A 6006   6.970  17.844  11.729  0.0659  0.0581 -0.2127
  512DOPC   C1B 6007   8.015  17.021  12.550 -0.1102 -0.2387 -0.3010
  512DOPC   D2B 6008   7.759  17.118  12.143  0.1773 -0.1038  0.1943
  512DOPC   C3B 6009   7.879  17.517  12.010  0.0933  0.0407  0.1649
  512DOPC   C4B 6010   8.096  17.975  11.977 -0.1944 -0.0599  0.1055
  513POSM   NC3 6011   6.346  18.589  13.163  0.1286  0.1625 -0.2490
  513POSM   PO4 6012   6.720  18.525  13.158 -0.4082  0.0254  0.0993
  513POSM   AM1 6013   6.655  18.418  12.872 -0.0982  0.1403 -0.1226
  513POSM   AM2 6014   6.693  18.422  12.587 -0.0450  0.0241 -0.2016
  513POSM   T1A 6015   6.441  18.046  12.608 -0.2916 -0.0053 -0.0282
  513POSM   C2A 6016   6.170  17.776  12.269 -0.1596 -0.1051  0.0166
  513POSM   C3A 6017   6.103  17.884  11.808  0.0305  0.1620 -0.4555
  513POSM   C1B 6018   6.462  18.560  12.382 -0.0217 -0.3124  0.0775
  513POSM   D2B 6019   6.331  18.890  12.187  0.3021 -0.3227 -0.1186
  513POSM   C3B 6020   6.508  19.006  11.764 -0.1296 -0.0612  0.2471
  513POSM   C4B 6021   6.731  19.239  11.437  0.0740  0.2150  0.1050
  514POSM   NC3 6022   8.960  13.445  14.369 -0.0402 -0.0406  0.1208
  514POSM   PO4 6023   8.622  13.557  14.111 -0.5019  0.0160  0.1099
  514POSM   AM1 6024   8.740  13.635  13.812 -0.2253  0.2941 -0.3157
  514POSM   AM2 6025   8.575  13.638  13.548 -0.0674 -0.1983 -0.4798
  514POSM   T1A 6026   8.889  13.358  13.365 -0.2062 -0.1150 -0.0477
  514POSM   C2A 6027   8.747  13.222  12.925 -0.1452  0.1626  0.0008
  514POSM   C3A 6028   8.356  13.137  12.765  0.0315 -0.1649  0.0059
  514POSM   C1B 6029   8.367  13.471  13.361  0.2037 -0.1562 -0.0464
  514POSM   D2B 6030   8.170  13.098  13.194 -0.1946 -0.0660  0.2093
  514POSM   C3B 6031   8.368  12.700  13.127 -0.1987  0.0246  0.1410
  514POSM   C4B 6032   8.634  12.405  13.186  0.3196 -0.0296 -0.2810
  515DOPC   NC3 6033   1.993  17.713  13.288 -0.1130 -0.0181  0.0064
  515DOPC   PO4 6034   1.951  17.355  13.496 -0.1534  0.0733  0.0603
  515DOPC   GL1 6035   1.953  17.202  13.148  0.0635 -0.1510 -0.2002
  515DOPC   GL2 6036   2.093  16.942  13.127  0.2026  0.2367 -0.1513
  515DOPC   C1A 6037   1.593  17.328  12.900 -0.3109  0.1168 -0.2586
  515DOPC   D2A 6038   1.300  17.619  12.740 -0.1242 -0.0449 -0.0532
  515DOPC   C3A 6039   1.144  17.717  12.305  0.0034 -0.2087 -0.0687
  515DOPC   C4A 6040   0.998  17.793  11.874 -0.1737  0.2209  0.1063
  515DOPC   C1B 6041   1.961  16.886  12.704 -0.1965  0.4521 -0.0029
  515DOPC   D2B 6042   1.989  16.883  12.232 -0.0904  0.2992  0.0329
  515DOPC   C3B 6043   2.248  17.150  11.975 -0.0641 -0.1824  0.1918
  515DOPC   C4B 6044   2.490  17.547  11.994 -0.3995  0.2532  0.1495
  516DOPE   NH3 6045   2.167  14.886  13.883 -0.0036 -0.0178 -0.0358
  516DOPE   PO4 6046   1.895  15.054  13.962  0.0858  0.1344  0.1372
  516DOPE   GL1 6047   1.721  14.990  13.536 -0.0206 -0.3512 -0.1584
  516DOPE   GL2 6048   1.844  14.709  13.492 -0.0192  0.2217 -0.3758
  516DOPE   C1A 6049   1.395  14.918  13.168 -0.0932 -0.1685  0.0491
  516DOPE   D2A 6050   1.044  15.090  12.802  0.0811 -0.2509 -0.0001
  516DOPE   C3A 6051   0.998  14.977  12.327  0.0031  0.2569 -0.0219
  516DOPE   C4A 6052   0.685  14.790  12.004 -0.0639  0.4115  0.0375
  516DOPE   C1B 6053   1.937  14.712  13.074 -0.2164  0.0704  0.0180
  516DOPE   D2B 6054   2.169  14.916  12.700  0.2483 -0.1590  0.0988
  516DOPE   C3B 6055   1.925  15.053  12.295  0.1761  0.0156  0.0728
  516DOPE   C4B 6056   1.714  14.957  11.958  0.1388  0.0815  0.1021
  517DOPC   NC3 6057  34.233  17.578  13.307  0.0931  0.2668 -0.2667
  517DOPC   PO4 6058  34.325  17.936  13.489 -0.0277  0.4562  0.2510
  517DOPC   GL1 6059  34.350  18.198  13.138  0.1527  0.1276 -0.1286
  517DOPC   GL2 6060  34.390  18.473  13.175 -0.1214  0.0599  0.2495
  517DOPC   C1A 6061  34.554  18.177  12.780 -0.0154 -0.3287  0.0706
  517DOPC   D2A 6062  34.562  18.514  12.457  0.0880  0.0060  0.0228
  517DOPC   C3A 6063  34.887  18.434  12.054 -0.0232 -0.0742  0.0604
  517DOPC   C4A 6064  35.162  18.158  11.772  0.0362 -0.1158  0.1168
  517DOPC   C1B 6065  34.814  18.479  13.108 -0.3963 -0.2498 -0.1256
  517DOPC   D2B 6066  35.096  18.469  12.764  0.0630  0.3780 -0.0225
  517DOPC   C3B 6067  35.569  18.486  12.756  0.0067  0.4060 -0.0821
  517DOPC   C4B 6068  35.984  18.371  12.730 -0.3688  0.0563 -0.1260
  518POSM   NC3 6069  10.256  18.583  13.316  0.2376 -0.0611 -0.2700
  518POSM   PO4 6070  10.150  18.654  12.983 -0.1232  0.0285  0.0151
  518POSM   AM1 6071  10.155  18.779  12.652 -0.3813 -0.0501 -0.4305
  518POSM   AM2 6072  10.066  18.693  12.405  0.1047  0.1131 -0.2169
  518POSM   T1A 6073  10.238  19.167  12.363  0.0301 -0.0640  0.2594
  518POSM   C2A 6074  10.232  19.303  11.979 -0.0516  0.2535 -0.0792
  518POSM   C3A 6075  10.098  19.080  11.559  0.0160  0.2456  0.3048
  518POSM   C1B 6076  10.140  18.727  12.110 -0.3302 -0.0324 -0.1940
  518POSM   D2B 6077  10.467  18.860  11.806  0.1970  0.1418  0.0348
  518POSM   C3B 6078  10.458  18.823  11.322  0.3488  0.2738 -0.0420
  518POSM   C4B 6079  10.662  18.666  10.981 -0.0820 -0.0305  0.0697
  519POSM   NC3 6080   2.111  21.879  13.816 -0.0350  0.0867 -0.1041
  519POSM   PO4 6081   1.838  22.005  14.062 -0.0380 -0.0901  0.0027
  519POSM   AM1 6082   1.885  22.300  13.872 -0.0638 -0.1552 -0.0910
  519POSM   AM2 6083   1.687  22.510  13.863  0.2005 -0.4166  0.1591
  519POSM   T1A 6084   2.020  22.650  13.543 -0.4300  0.1926 -0.1121
  519POSM   C2A 6085   2.299  22.763  13.126  0.0621 -0.2042 -0.0395
  519POSM   C3A 6086   2.368  22.790  12.715 -0.1771 -0.1163  0.0297
  519POSM   C1B 6087   1.586  22.369  13.547  0.1431  0.2520 -0.1349
  519POSM   D2B 6088   1.473  22.486  13.139  0.0894  0.1507 -0.2912
  519POSM   C3B 6089   1.862  22.640  12.974  0.1880 -0.0207 -0.4647
  519POSM   C4B 6090   2.000  23.081  12.841  0.0060 -0.0794 -0.0969
  520POSM   NC3 6091   1.782  18.708  14.178  0.0354 -0.0164  0.1691
  520POSM   PO4 6092   1.559  18.425  14.034 -0.1987  0.1567 -0.0918
  520POSM   AM1 6093   1.584  18.393  13.695  0.0097 -0.1426 -0.4679
  520POSM   AM2 6094   1.516  18.187  13.515 -0.1224  0.0833  0.2389
  520POSM   T1A 6095   1.489  18.597  13.217 -0.0089 -0.4331  0.4118
  520POSM   C2A 6096   1.768  18.726  12.843 -0.0544 -0.0646 -0.1731
  520POSM   C3A 6097   2.160  18.624  12.631  0.0247  0.1112 -0.2662
  520POSM   C1B 6098   1.721  18.131  13.294  0.0805  0.0814  0.1220
  520POSM   D2B 6099   2.037  18.221  12.971  0.2540 -0.1114 -0.0465
  520POSM   C3B 6100   1.994  18.159  12.522  0.2521  0.1432  0.0058
  520POSM   C4B 6101   2.128  17.742  12.280 -0.1803  0.1390 -0.2714
  521POSM   NC3 6102   2.888  22.933  14.112  0.1776 -0.1182 -0.1951
  521POSM   PO4 6103   2.624  22.574  14.138  0.0271  0.2511 -0.0343
  521POSM   AM1 6104   2.602  22.748  13.832 -0.2706  0.5178 -0.1014
  521POSM   AM2 6105   2.431  22.923  13.737  0.0105  0.2253  0.0929
  521POSM   T1A 6106   2.747  22.868  13.340  0.2405 -0.2695  0.4019
  521POSM   C2A 6107   2.751  23.179  12.970 -0.1120  0.0079 -0.1395
  521POSM   C3A 6108   2.950  23.317  12.506 -0.1999  0.0523  0.0745
  521POSM   C1B 6109   2.320  23.191  13.538  0.1880  0.0881  0.1031
  521POSM   D2B 6110   2.319  23.394  13.121 -0.0481 -0.0789 -0.1103
  521POSM   C3B 6111   2.421  23.340  12.663 -0.1590 -0.1482 -0.1231
  521POSM   C4B 6112   2.540  23.483  12.226 -0.0536 -0.1936  0.1517
  522DOPC   NC3 6113  11.786  19.853  12.992 -0.3685 -0.1099  0.1995
  522DOPC   PO4 6114  11.467  19.600  12.857 -0.0905 -0.0234 -0.0119
  522DOPC   GL1 6115  11.257  19.540  12.463  0.2813 -0.1745 -0.2095
  522DOPC   GL2 6116  10.960  19.442  12.594 -0.1266 -0.0273  0.0126
  522DOPC   C1A 6117  11.055  19.848  12.158 -0.0003 -0.0951 -0.1099
  522DOPC   D2A 6118  11.067  20.244  11.917  0.0303 -0.0299  0.0974
  522DOPC   C3A 6119  11.525  20.322  11.780  0.0672  0.0889 -0.1140
  522DOPC   C4A 6120  11.827  20.348  11.462 -0.1712  0.0574  0.0026
  522DOPC   C1B 6121  10.603  19.664  12.406 -0.0648  0.2486 -0.3044
  522DOPC   D2B 6122  10.509  19.681  11.967 -0.2823  0.2702 -0.0857
  522DOPC   C3B 6123  10.802  19.946  11.716 -0.1234  0.1089 -0.0273
  522DOPC   C4B 6124  11.242  19.934  11.627 -0.1081 -0.5277 -0.1366
  523POSM   NC3 6125  13.575  18.682  13.006 -0.1713 -0.1249 -0.1151
  523POSM   PO4 6126  13.463  19.051  12.906 -0.0895  0.0198 -0.0679
  523POSM   AM1 6127  13.365  19.176  12.588  0.2557  0.0806 -0.1139
  523POSM   AM2 6128  13.505  19.301  12.366  0.2791  0.2723  0.1097
  523POSM   T1A 6129  13.069  19.482  12.318 -0.1685 -0.0769 -0.0668
  523POSM   C2A 6130  13.113  19.985  12.274 -0.0211  0.2610 -0.0800
  523POSM   C3A 6131  13.425  20.294  12.274 -0.0357  0.1990 -0.0544
  523POSM   C1B 6132  13.467  19.292  12.036  0.2129  0.0528 -0.2365
  523POSM   D2B 6133  13.509  19.114  11.609 -0.2043 -0.0744 -0.0957
  523POSM   C3B 6134  13.235  19.238  11.222 -0.2372  0.2185  0.1468
  523POSM   C4B 6135  12.847  19.479  11.162  0.0825  0.0668  0.1098
  524DOPS   CNO 6136   4.230  16.011  13.738  0.2478 -0.0970 -0.2955
  524DOPS   PO4 6137   3.944  15.754  13.836  0.0976 -0.0162 -0.1397
  524DOPS   GL1 6138   3.905  15.664  13.384 -0.2788 -0.3688 -0.4035
  524DOPS   GL2 6139   3.959  15.977  13.333 -0.1210  0.0053  0.1804
  524DOPS   C1A 6140   4.103  15.596  12.983 -0.1088 -0.5256  0.0505
  524DOPS   D2A 6141   4.551  15.658  12.857  0.1180  0.2496  0.1295
  524DOPS   C3A 6142   4.704  15.354  12.553 -0.0728  0.1681  0.0597
  524DOPS   C4A 6143   4.683  14.884  12.495 -0.1725 -0.1568  0.0384
  524DOPS   C1B 6144   3.693  16.039  12.965  0.0761  0.1183 -0.0909
  524DOPS   D2B 6145   3.569  15.918  12.592 -0.1499 -0.2113 -0.0680
  524DOPS   C3B 6146   3.843  15.708  12.291 -0.3329  0.2266  0.2264
  524DOPS   C4B 6147   3.773  15.299  12.022  0.1796 -0.0832  0.2416
  525DOPS   CNO 6148   0.849  22.180  14.238 -0.1490  0.0512 -0.0230
  525DOPS   PO4 6149   0.844  21.789  14.111 -0.0955  0.0557  0.2059
  525DOPS   GL1 6150   0.773  21.898  13.664 -0.1099  0.1141 -0.2100
  525DOPS   GL2 6151   0.595  21.629  13.688 -0.1662  0.0118 -0.4790
  525DOPS   C1A 6152   1.022  22.098  13.324 -0.1074  0.0597  0.0472
  525DOPS   D2A 6153   1.144  22.226  12.890 -0.0362 -0.1580  0.1433
  525DOPS   C3A 6154   0.903  22.369  12.564  0.1948 -0.3465  0.0412
  525DOPS   C4A 6155   0.524  22.332  12.317  0.0254 -0.0234  0.2102
  525DOPS   C1B 6156   0.756  21.717  13.258  0.3294  0.2345 -0.2206
  525DOPS   D2B 6157   1.048  21.724  12.907  0.0018  0.2332 -0.4012
  525DOPS   C3B 6158   0.843  21.785  12.523  0.1901 -0.1613  0.0937
  525DOPS   C4B 6159   0.730  21.565  12.139  0.0855 -0.2757 -0.2928
  526DOPS   CNO 6160   4.738  19.195  13.562  0.3530 -0.2147 -0.2220
  526DOPS   PO4 6161   5.063  19.404  13.562 -0.1639 -0.0269  0.0376
  526DOPS   GL1 6162   5.238  19.315  13.208  0.3964 -0.2597 -0.4663
  526DOPS   GL2 6163   5.537  19.203  13.360  0.0277 -0.1833  0.1934
  526DOPS   C1A 6164   5.220  19.303  12.723 -0.0363 -0.1827  0.0301
  526DOPS   D2A 6165   4.861  19.215  12.395  0.0249 -0.0156  0.0920
  526DOPS   C3A 6166   4.811  19.544  12.102 -0.1026  0.0129 -0.1904
  526DOPS   C4A 6167   5.022  19.890  11.823 -0.1154 -0.1098 -0.0149
  526DOPS   C1B 6168   5.392  18.859  13.037 -0.1204  0.1140  0.5499
  526DOPS   D2B 6169   5.454  18.872  12.559  0.0036  0.2749 -0.0642
  526DOPS   C3B 6170   5.252  18.626  12.213  0.1028  0.0788 -0.2652
  526DOPS   C4B 6171   4.898  18.432  11.941  0.2447  0.0027  0.0717
  527POSM   NC3 6172   8.208  14.005  13.927  0.3788 -0.0521 -0.1402
  527POSM   PO4 6173   8.202  14.398  13.905 -0.0443  0.1093  0.1361
  527POSM   AM1 6174   8.339  14.382  13.595 -0.4497  0.0544 -0.3635
  527POSM   AM2 6175   8.213  14.230  13.417 -0.2038  0.1023 -0.2805
  527POSM   T1A 6176   8.667  14.447  13.257 -0.0053 -0.2234  0.3108
  527POSM   C2A 6177   8.951  14.324  12.880  0.3702 -0.1830 -0.2143
  527POSM   C3A 6178   9.065  14.108  12.483  0.4353 -0.0124  0.4205
  527POSM   C1B 6179   8.352  14.035  13.168  0.1254  0.1110 -0.0753
  527POSM   D2B 6180   8.497  14.086  12.712  0.3374 -0.0893  0.1879
  527POSM   C3B 6181   8.146  14.339  12.443 -0.1545  0.0512 -0.0859
  527POSM   C4B 6182   7.829  14.581  12.524 -0.1585 -0.0001 -0.0424
  528DOPE   NH3 6183   9.791  21.036  13.250 -0.1764 -0.0689  0.0319
  528DOPE   PO4 6184  10.072  20.903  13.237  0.2148  0.1455  0.0207
  528DOPE   GL1 6185  10.111  20.729  12.855  0.6050 -0.0393  0.3439
  528DOPE   GL2 6186   9.853  20.879  12.673  0.2939 -0.2514  0.0830
  528DOPE   C1A 6187  10.008  20.431  12.416 -0.1022  0.3204 -0.0889
  528DOPE   D2A 6188  10.356  20.172  12.223  0.0864  0.0679  0.0032
  528DOPE   C3A 6189  10.379  20.248  11.740  0.2963  0.0969  0.1186
  528DOPE   C4A 6190  10.449  20.195  11.275 -0.1234 -0.1715 -0.0859
  528DOPE   C1B 6191   9.961  20.970  12.280  0.1403  0.0155 -0.1453
  528DOPE   D2B 6192   9.715  21.004  11.871 -0.2299 -0.3225  0.0145
  528DOPE   C3B 6193   9.485  21.418  11.891 -0.2368  0.2477 -0.3483
  528DOPE   C4B 6194   9.074  21.617  11.988  0.1142  0.0114 -0.3150
  529POSM   NC3 6195   6.269  11.269  15.351 -0.1588 -0.0577  0.1515
  529POSM   PO4 6196   6.366  11.496  15.035  0.1192 -0.0247  0.0287
  529POSM   AM1 6197   6.510  11.323  14.800  0.1039  0.2792 -0.1760
  529POSM   AM2 6198   6.459  11.019  14.790 -0.3254  0.1841 -0.2047
  529POSM   T1A 6199   6.796  11.158  14.426  0.3101 -0.1123 -0.0791
  529POSM   C2A 6200   7.133  11.263  14.119 -0.2381  0.0440 -0.0841
  529POSM   C3A 6201   7.360  11.068  13.788  0.2704 -0.2253 -0.2106
  529POSM   C1B 6202   6.276  10.964  14.553 -0.4985 -0.1309  0.1395
  529POSM   D2B 6203   5.886  10.858  14.299  0.0131  0.3217  0.1756
  529POSM   C3B 6204   5.690  10.544  14.022  0.2632  0.1240  0.1581
  529POSM   C4B 6205   5.316  10.267  13.993 -0.1232  0.2098  0.0029
  530DOPS   CNO 6206   7.659  18.797  13.876 -0.0982 -0.0400 -0.0458
  530DOPS   PO4 6207   7.499  18.761  13.536  0.2590  0.2467 -0.2581
  530DOPS   GL1 6208   7.445  18.932  13.156 -0.0872 -0.1806  0.0597
  530DOPS   GL2 6209   7.676  18.924  13.038  0.0581 -0.1379  0.1723
  530DOPS   C1A 6210   7.106  19.041  12.848  0.0092  0.0928 -0.0129
  530DOPS   D2A 6211   6.738  18.891  12.690 -0.1231  0.0524 -0.3086
  530DOPS   C3A 6212   6.853  18.845  12.270 -0.4560  0.1319 -0.2549
  530DOPS   C4A 6213   6.983  18.882  11.792 -0.1222 -0.2728  0.0157
  530DOPS   C1B 6214   7.487  18.688  12.723 -0.0525  0.0443  0.2121
  530DOPS   D2B 6215   7.367  18.807  12.255 -0.1305 -0.0129  0.3204
  530DOPS   C3B 6216   7.599  18.762  11.857  0.0558  0.3099  0.0612
  530DOPS   C4B 6217   7.718  19.136  11.535 -0.0868 -0.1670  0.0843
  531POSM   NC3 6218   8.104  16.347  13.801  0.0206  0.0667 -0.1641
  531POSM   PO4 6219   8.405  16.553  13.739 -0.2110  0.0715  0.3845
  531POSM   AM1 6220   8.351  16.448  13.434 -0.1195 -0.2410 -0.2642
  531POSM   AM2 6221   8.181  16.255  13.336 -0.1090 -0.1656  0.0329
  531POSM   T1A 6222   8.473  16.420  12.934  0.1119 -0.1596 -0.2050
  531POSM   C2A 6223   8.282  16.634  12.586 -0.2856  0.1030  0.1768
  531POSM   C3A 6224   8.192  16.731  12.168  0.2573  0.0195 -0.3228
  531POSM   C1B 6225   8.153  16.041  13.033  0.0750  0.5414  0.0018
  531POSM   D2B 6226   8.253  15.844  12.620 -0.0759 -0.0969 -0.1780
  531POSM   C3B 6227   8.201  16.185  12.264  0.2459 -0.2287 -0.1858
  531POSM   C4B 6228   8.325  16.178  11.822 -0.0814  0.1397  0.0957
  532POSM   NC3 6229   3.357  14.426  13.990 -0.3249  0.1121  0.3556
  532POSM   PO4 6230   3.636  14.443  14.258 -0.1421  0.3632 -0.0931
  532POSM   AM1 6231   3.833  14.295  14.046  0.0310 -0.2856 -0.1618
  532POSM   AM2 6232   3.709  14.208  13.779 -0.3626 -0.0220  0.0681
  532POSM   T1A 6233   4.268  14.240  13.780  0.1494 -0.1677 -0.2598
  532POSM   C2A 6234   4.311  14.233  13.260  0.1049 -0.0146 -0.1889
  532POSM   C3A 6235   4.516  14.154  12.858  0.0545 -0.0153 -0.0938
  532POSM   C1B 6236   3.846  14.109  13.462 -0.2630  0.0018  0.1232
  532POSM   D2B 6237   3.843  14.058  13.021  0.1014  0.3641  0.2545
  532POSM   C3B 6238   3.506  14.220  12.730 -0.1050  0.0274  0.1840
  532POSM   C4B 6239   3.160  14.053  12.459 -0.0775  0.0335  0.1663
  533POSM   NC3 6240   3.080  20.545  14.122 -0.0523 -0.4050  0.0312
  533POSM   PO4 6241   3.446  20.715  14.077  0.1241 -0.2651 -0.3443
  533POSM   AM1 6242   3.613  20.702  13.784  0.0147  0.3137 -0.2175
  533POSM   AM2 6243   3.553  20.526  13.568  0.0605 -0.0635 -0.3867
  533POSM   T1A 6244   3.946  20.877  13.476  0.2555 -0.3227 -0.2325
  533POSM   C2A 6245   4.138  21.234  13.230  0.2423  0.1206 -0.1121
  533POSM   C3A 6246   4.376  21.271  12.831 -0.1868  0.0522 -0.0441
  533POSM   C1B 6247   3.432  20.608  13.262 -0.1491 -0.1275 -0.1960
  533POSM   D2B 6248   3.403  20.714  12.802 -0.1327 -0.0645  0.1701
  533POSM   C3B 6249   3.808  20.449  12.680 -0.0244 -0.3541 -0.0111
  533POSM   C4B 6250   4.078  20.395  12.347 -0.1330 -0.0645  0.1814
  534DOPE   NH3 6251  12.005  20.995  12.822  0.2657 -0.0707  0.0635
  534DOPE   PO4 6252  11.896  20.701  12.832 -0.0663 -0.0278 -0.4218
  534DOPE   GL1 6253  12.101  20.648  12.440 -0.1438 -0.1818  0.0789
  534DOPE   GL2 6254  12.278  20.913  12.371 -0.0578 -0.3203  0.1789
  534DOPE   C1A 6255  12.475  20.472  12.165  0.0229 -0.0721 -0.2228
  534DOPE   D2A 6256  12.795  20.384  11.882 -0.2351  0.1898  0.0043
  534DOPE   C3A 6257  13.211  20.596  11.909  0.1399 -0.2160  0.2642
  534DOPE   C4A 6258  13.495  20.592  11.566  0.1338 -0.1309 -0.0315
  534DOPE   C1B 6259  11.825  21.074  12.248  0.0729  0.2376  0.1037
  534DOPE   D2B 6260  11.799  21.277  11.808 -0.1505  0.0935  0.0305
  534DOPE   C3B 6261  11.441  21.258  11.560  0.1477 -0.0395  0.0203
  534DOPE   C4B 6262  11.110  21.634  11.591  0.0769 -0.1437 -0.3108
  535DOPE   NH3 6263  34.111  22.038  14.018 -0.0338  0.1481 -0.2595
  535DOPE   PO4 6264  34.393  21.854  14.020  0.1158  0.2506  0.1236
  535DOPE   GL1 6265  34.545  21.801  13.653 -0.2287 -0.3342 -0.4479
  535DOPE   GL2 6266  34.583  21.551  13.590 -0.0049 -0.0589  0.0712
  535DOPE   C1A 6267  34.863  22.024  13.384  0.0129  0.0165  0.0789
  535DOPE   D2A 6268  35.135  22.298  13.081  0.2648 -0.0786 -0.0278
  535DOPE   C3A 6269  35.035  22.601  12.773  0.2682  0.0699 -0.1682
  535DOPE   C4A 6270  35.221  22.786  12.401  0.1077 -0.1257 -0.0456
  535DOPE   C1B 6271  34.610  21.662  13.127  0.0633  0.2250 -0.2027
  535DOPE   D2B 6272  34.834  21.905  12.858 -0.0769 -0.0729 -0.3504
  535DOPE   C3B 6273  34.846  21.689  12.412 -0.1304 -0.0590  0.1040
  535DOPE   C4B 6274  34.832  21.269  12.187  0.3739 -0.0282  0.0026
  536DOPS   CNO 6275   9.115  10.037  15.592 -0.3254  0.0582  0.0539
  536DOPS   PO4 6276   9.054  10.192  15.275 -0.1682  0.0685 -0.3534
  536DOPS   GL1 6277   9.221  10.334  14.903  0.1318 -0.0290 -0.1295
  536DOPS   GL2 6278   9.554  10.266  14.850 -0.2395  0.2086  0.0449
  536DOPS   C1A 6279   9.222  10.533  14.458 -0.2552  0.2876 -0.1993
  536DOPS   D2A 6280   8.869  10.562  14.171 -0.1238 -0.0288 -0.0004
  536DOPS   C3A 6281   9.000  10.324  13.781  0.4050  0.1785 -0.0764
  536DOPS   C4A 6282   8.971  10.288  13.332  0.1845 -0.0242 -0.2969
  536DOPS   C1B 6283   9.723  10.181  14.399  0.1390  0.1526 -0.2771
  536DOPS   D2B 6284   9.957  10.155  14.049  0.0549  0.0787  0.2068
  536DOPS   C3B 6285   9.939  10.245  13.612 -0.0671  0.2204  0.0769
  536DOPS   C4B 6286  10.008  10.339  13.181  0.2125  0.0068 -0.2107
  537DOPS   CNO 6287  33.645  16.978  13.413 -0.1641 -0.1763  0.3751
  537DOPS   PO4 6288  33.918  17.246  13.456 -0.0061 -0.2254  0.3422
  537DOPS   GL1 6289  33.951  17.223  13.062  0.0928  0.0378 -0.1948
  537DOPS   GL2 6290  33.634  17.215  13.013 -0.1280  0.1208  0.1615
  537DOPS   C1A 6291  33.815  17.475  12.636  0.0900 -0.0157 -0.3183
  537DOPS   D2A 6292  33.841  17.793  12.401 -0.2822  0.1761 -0.0342
  537DOPS   C3A 6293  34.106  18.121  12.220  0.0436 -0.1587  0.0939
  537DOPS   C4A 6294  34.341  18.453  11.963  0.0894 -0.3355  0.2479
  537DOPS   C1B 6295  33.544  17.002  12.648  0.0109  0.2461 -0.0109
  537DOPS   D2B 6296  33.575  16.692  12.241  0.2094 -0.0037  0.1807
  537DOPS   C3B 6297  33.982  16.694  12.102  0.1769 -0.0363  0.0672
  537DOPS   C4B 6298  34.365  16.777  11.882  0.1232 -0.1036 -0.1755
  538DOPE   NH3 6299   5.087  21.701  13.740 -0.0338 -0.0537  0.0255
  538DOPE   PO4 6300   5.112  21.691  13.418 -0.0756  0.0105 -0.1065
  538DOPE   GL1 6301   5.076  21.615  13.039 -0.0186 -0.0751  0.2007
  538DOPE   GL2 6302   4.776  21.585  12.969  0.1291 -0.3723 -0.1556
  538DOPE   C1A 6303   5.222  21.459  12.632 -0.4845  0.1465 -0.2306
  538DOPE   D2A 6304   5.089  21.334  12.233 -0.0657 -0.2012  0.2672
  538DOPE   C3A 6305   5.293  21.527  11.860  0.4385  0.0283  0.0533
  538DOPE   C4A 6306   5.321  21.994  11.790  0.0953  0.2987 -0.1812
  538DOPE   C1B 6307   4.964  21.924  12.651 -0.4317  0.0077  0.0267
  538DOPE   D2B 6308   5.193  22.376  12.564  0.3371 -0.3838 -0.0631
  538DOPE   C3B 6309   5.536  22.412  12.215  0.2299 -0.1050 -0.1000
  538DOPE   C4B 6310   5.730  22.345  11.825  0.0917 -0.0065 -0.1957
  539DOPC   NC3 6311   6.017  21.891  13.722  0.1050  0.0723 -0.1599
  539DOPC   PO4 6312   5.842  22.246  13.725  0.1746 -0.4216 -0.2520
  539DOPC   GL1 6313   5.767  22.443  13.445 -0.2909 -0.0501 -0.0342
  539DOPC   GL2 6314   5.570  22.524  13.350 -0.1334  0.2466 -0.0053
  539DOPC   C1A 6315   5.980  22.267  13.119  0.1126  0.0855  0.1601
  539DOPC   D2A 6316   5.914  21.863  12.943  0.2015  0.4340 -0.0840
  539DOPC   C3A 6317   5.916  21.675  12.498  0.1102  0.3581 -0.1795
  539DOPC   C4A 6318   6.278  21.665  12.146  0.2309 -0.1255  0.2150
  539DOPC   C1B 6319   5.504  22.445  12.913 -0.1184 -0.1618  0.0715
  539DOPC   D2B 6320   5.761  22.240  12.647  0.0640 -0.1498 -0.0875
  539DOPC   C3B 6321   6.203  22.377  12.694 -0.1791  0.3102  0.1238
  539DOPC   C4B 6322   6.561  22.476  12.388 -0.0480  0.1481  0.0004
  540DOPE   NH3 6323   6.020  20.463  13.827  0.0929  0.0217 -0.1384
  540DOPE   PO4 6324   6.210  20.428  13.586 -0.1451 -0.0594 -0.2109
  540DOPE   GL1 6325   6.298  20.414  13.235 -0.0720 -0.0938 -0.0138
  540DOPE   GL2 6326   6.361  20.132  13.207 -0.0001  0.1775 -0.0745
  540DOPE   C1A 6327   6.594  20.443  12.895 -0.2067 -0.1754  0.2149
  540DOPE   D2A 6328   6.731  20.644  12.496 -0.0444  0.1451  0.0536
  540DOPE   C3A 6329   6.528  20.472  12.092  0.1174 -0.2028  0.1629
  540DOPE   C4A 6330   6.436  20.312  11.741  0.0151  0.0492  0.1189
  540DOPE   C1B 6331   6.117  19.788  12.997  0.1702  0.2161 -0.0666
  540DOPE   D2B 6332   5.824  19.878  12.654  0.1399 -0.3200  0.0339
  540DOPE   C3B 6333   5.877  19.917  12.198  0.0591  0.3620  0.0447
  540DOPE   C4B 6334   5.974  20.313  12.092  0.1016 -0.1600  0.0242
  541DOPC   NC3 6335  33.502  16.598  12.956 -0.1705  0.3565 -0.0955
  541DOPC   PO4 6336  33.688  16.403  13.251  0.1841  0.0511 -0.3205
  541DOPC   GL1 6337  33.885  16.392  12.955 -0.1641  0.2271 -0.0284
  541DOPC   GL2 6338  33.956  16.100  12.791  0.0255  0.0024 -0.0069
  541DOPC   C1A 6339  33.972  16.840  12.833 -0.3274  0.2914  0.0531
  541DOPC   D2A 6340  34.133  17.107  12.569 -0.1849  0.3992 -0.1434
  541DOPC   C3A 6341  33.839  17.203  12.221 -0.1373 -0.2563 -0.1597
  541DOPC   C4A 6342  33.456  17.091  11.957  0.1947  0.0779 -0.0071
  541DOPC   C1B 6343  34.225  15.924  12.475 -0.2368  0.0583 -0.0422
  541DOPC   D2B 6344  34.187  15.788  12.015  0.0630  0.1575  0.0529
  541DOPC   C3B 6345  34.474  16.004  11.661 -0.0176 -0.1279 -0.1362
  541DOPC   C4B 6346  34.874  16.050  11.399 -0.2779  0.1004  0.1471
  542DOPE   NH3 6347   7.520  16.547  13.338  0.0437  0.2632  0.4495
  542DOPE   PO4 6348   7.697  16.341  13.503 -0.0097 -0.1830  0.1458
  542DOPE   GL1 6349   7.719  16.210  13.142  0.3441  0.2060  0.1559
  542DOPE   GL2 6350   7.509  16.006  13.192  0.0838 -0.1504 -0.2045
  542DOPE   C1A 6351   7.442  16.305  12.785 -0.2523  0.0415  0.1610
  542DOPE   D2A 6352   7.298  16.239  12.309  0.1317  0.3865 -0.0984
  542DOPE   C3A 6353   6.988  15.974  12.095  0.3535  0.2296 -0.2061
  542DOPE   C4A 6354   6.561  16.031  12.027  0.2843 -0.1482 -0.0602
  542DOPE   C1B 6355   7.155  15.782  12.937 -0.1534 -0.0572 -0.0523
  542DOPE   D2B 6356   7.173  15.769  12.464  0.3241 -0.0509  0.1209
  542DOPE   C3B 6357   7.407  15.467  12.225  0.1762 -0.0193 -0.1108
  542DOPE   C4B 6358   7.359  15.198  11.875  0.0018  0.0812 -0.0459
  543DOPE   NH3 6359  10.508  17.560  12.806 -0.2476 -0.0204  0.1427
  543DOPE   PO4 6360  10.526  17.885  12.770  0.0674  0.0409 -0.0058
  543DOPE   GL1 6361  10.402  17.828  12.402 -0.1305  0.0691 -0.1138
  543DOPE   GL2 6362  10.554  18.004  12.290 -0.3515  0.1752 -0.1158
  543DOPE   C1A 6363  10.124  17.685  12.059 -0.0336  0.0615 -0.2620
  543DOPE   D2A 6364   9.781  17.813  11.802  0.1340  0.0587 -0.0674
  543DOPE   C3A 6365   9.791  17.751  11.343  0.2441  0.2477  0.2566
  543DOPE   C4A 6366   9.952  17.865  10.940  0.0398 -0.1902 -0.0653
  543DOPE   C1B 6367  10.640  18.341  11.976 -0.0897 -0.1314 -0.3771
  543DOPE   D2B 6368  10.746  18.386  11.544  0.0048 -0.0353 -0.0010
  543DOPE   C3B 6369  11.050  18.650  11.314  0.2891  0.1818  0.2157
  543DOPE   C4B 6370  11.254  18.659  10.929  0.2111  0.0093  0.3476
  544DOPC   NC3 6371   2.637  12.563  14.938 -0.1798 -0.2814 -0.1349
  544DOPC   PO4 6372   2.261  12.587  14.758  0.1910  0.0315 -0.0275
  544DOPC   GL1 6373   2.193  12.699  14.438 -0.2714  0.2860 -0.0609
  544DOPC   GL2 6374   1.932  12.752  14.320  0.0537  0.2725  0.3491
  544DOPC   C1A 6375   2.407  12.594  14.038  0.1749  0.1532 -0.0590
  544DOPC   D2A 6376   2.763  12.554  13.731  0.1889  0.0600 -0.1223
  544DOPC   C3A 6377   2.629  12.775  13.316 -0.0660 -0.2162  0.0640
  544DOPC   C4A 6378   2.471  13.078  13.052 -0.0520 -0.1420  0.0108
  544DOPC   C1B 6379   1.871  12.712  13.838  0.1048  0.0335 -0.1054
  544DOPC   D2B 6380   2.153  12.745  13.461  0.0479  0.0635  0.0203
  544DOPC   C3B 6381   2.226  13.212  13.465  0.2572  0.2094 -0.2448
  544DOPC   C4B 6382   2.538  13.549  13.436  0.1315  0.0638  0.0206
  545DOPC   NC3 6383   9.970  16.064  13.522 -0.3306  0.2588  0.0594
  545DOPC   PO4 6384  10.142  15.954  13.186  0.0498 -0.2241 -0.0112
  545DOPC   GL1 6385   9.999  15.958  12.696 -0.0183 -0.4668 -0.2530
  545DOPC   GL2 6386   9.673  15.889  12.632 -0.2924 -0.0955  0.0045
  545DOPC   C1A 6387   9.993  16.262  12.291 -0.1957 -0.1824  0.0255
  545DOPC   D2A 6388   9.859  16.343  11.802  0.0526  0.3544  0.0935
  545DOPC   C3A 6389   9.783  16.448  11.355  0.0816 -0.0981  0.2399
  545DOPC   C4A 6390   9.615  16.509  10.929 -0.1840 -0.0524  0.4887
  545DOPC   C1B 6391   9.753  15.821  12.175 -0.0855 -0.0286 -0.0533
  545DOPC   D2B 6392  10.097  15.919  11.872 -0.0969  0.0122 -0.0872
  545DOPC   C3B 6393  10.419  15.597  11.832 -0.0663 -0.0610  0.0279
  545DOPC   C4B 6394  10.675  15.286  11.542 -0.2003  0.1182 -0.1987
  546DOPE   NH3 6395   6.971  13.823  14.326  0.0346 -0.1082  0.2212
  546DOPE   PO4 6396   7.071  13.744  14.012  0.0332  0.1413 -0.0819
  546DOPE   GL1 6397   7.006  13.611  13.620 -0.2653  0.1000 -0.0866
  546DOPE   GL2 6398   7.022  13.289  13.743 -0.2228  0.1354  0.4366
  546DOPE   C1A 6399   6.876  13.701  13.172  0.0023 -0.2578  0.0624
  546DOPE   D2A 6400   6.879  13.764  12.709 -0.3707 -0.0168 -0.1080
  546DOPE   C3A 6401   6.744  13.404  12.443  0.2864 -0.3490  0.0677
  546DOPE   C4A 6402   6.490  13.010  12.624  0.0194  0.1782  0.0384
  546DOPE   C1B 6403   7.013  13.233  13.294  0.1160  0.1008 -0.3357
  546DOPE   D2B 6404   6.902  13.065  12.901 -0.1389 -0.2473 -0.0233
  546DOPE   C3B 6405   6.874  12.631  12.839 -0.2244  0.1770 -0.1326
  546DOPE   C4B 6406   7.008  12.345  12.539 -0.1890 -0.2094 -0.3646
  547DOPE   NH3 6407  13.033  19.401  12.902 -0.1021  0.0832  0.0563
  547DOPE   PO4 6408  12.737  19.395  13.005 -0.0700  0.0006 -0.2714
  547DOPE   GL1 6409  12.656  19.498  12.576  0.0871 -0.0245  0.4546
  547DOPE   GL2 6410  12.602  19.306  12.336  0.0089  0.0688 -0.4614
  547DOPE   C1A 6411  12.676  19.757  12.204 -0.0576 -0.2087  0.1261
  547DOPE   D2A 6412  12.614  19.912  11.798  0.2678  0.0301  0.3001
  547DOPE   C3A 6413  12.935  19.894  11.455  0.1523  0.0134 -0.1214
  547DOPE   C4A 6414  13.319  19.668  11.408 -0.1746  0.0594 -0.0186
  547DOPE   C1B 6415  12.571  19.234  11.859  0.2893  0.0875 -0.0015
  547DOPE   D2B 6416  12.426  18.893  11.612  0.0529  0.0779 -0.2282
  547DOPE   C3B 6417  12.438  18.900  11.139 -0.1373 -0.0366 -0.0194
  547DOPE   C4B 6418  12.470  19.105  10.745 -0.3969  0.2574 -0.0147
  548DOPS   CNO 6419   3.398  18.762  14.097  0.0525  0.3085 -0.1096
  548DOPS   PO4 6420   3.125  18.831  13.878  0.2351 -0.1419  0.1304
  548DOPS   GL1 6421   3.014  18.732  13.491 -0.2662 -0.2042  0.2241
  548DOPS   GL2 6422   2.769  18.841  13.471  0.2551  0.1213  0.0617
  548DOPS   C1A 6423   3.035  18.444  13.135 -0.5679  0.1479  0.3541
  548DOPS   D2A 6424   3.063  18.210  12.784  0.1272 -0.0264  0.0707
  548DOPS   C3A 6425   3.112  18.084  12.308  0.2291 -0.0496 -0.0330
  548DOPS   C4A 6426   2.996  18.381  11.984 -0.0173 -0.0235 -0.0589
  548DOPS   C1B 6427   2.801  19.065  13.090 -0.0418  0.3639  0.3453
  548DOPS   D2B 6428   3.073  19.017  12.750 -0.1253 -0.0277  0.0318
  548DOPS   C3B 6429   3.207  19.457  12.667 -0.1654 -0.1532  0.1380
  548DOPS   C4B 6430   3.136  19.825  12.481  0.0897 -0.1716  0.2129
  549POSM   NC3 6431   7.798  20.872  13.322  0.0207 -0.1515 -0.3559
  549POSM   PO4 6432   7.812  21.247  13.337  0.0792  0.2125 -0.1518
  549POSM   AM1 6433   8.077  21.202  13.185 -0.0598 -0.1912 -0.1098
  549POSM   AM2 6434   8.204  21.017  12.975 -0.2322 -0.1133 -0.0278
  549POSM   T1A 6435   8.464  21.396  12.915  0.2925 -0.1502  0.3180
  549POSM   C2A 6436   8.645  21.785  12.842  0.2017  0.0124 -0.3869
  549POSM   C3A 6437   8.774  22.157  12.591 -0.1446  0.1133 -0.0401
  549POSM   C1B 6438   8.172  20.961  12.634  0.1145  0.0773 -0.0073
  549POSM   D2B 6439   8.227  20.933  12.163  0.1854  0.1506  0.0650
  549POSM   C3B 6440   8.465  21.277  11.917 -0.1016 -0.5351 -0.0487
  549POSM   C4B 6441   8.762  21.465  11.651 -0.0049  0.0700 -0.0777
  550DOPC   NC3 6442   1.887  21.028  13.893 -0.0248  0.1054 -0.0957
  550DOPC   PO4 6443   1.810  20.649  14.003 -0.0345  0.1751 -0.2451
  550DOPC   GL1 6444   1.681  20.665  13.588 -0.0556 -0.2447  0.0385
  550DOPC   GL2 6445   1.910  20.508  13.512  0.1543  0.1090 -0.4997
  550DOPC   C1A 6446   1.782  21.036  13.283  0.1895 -0.0776 -0.0943
  550DOPC   D2A 6447   1.914  21.382  13.014  0.2482 -0.2364 -0.0457
  550DOPC   C3A 6448   2.037  21.762  13.235  0.1044  0.0624  0.0494
  550DOPC   C4A 6449   2.018  22.187  13.322 -0.1724 -0.1779 -0.2477
  550DOPC   C1B 6450   2.092  20.186  13.283  0.0007  0.2135  0.2239
  550DOPC   D2B 6451   1.869  20.053  12.866  0.1072 -0.0389  0.0406
  550DOPC   C3B 6452   2.161  19.935  12.556 -0.0522 -0.0624  0.1447
  550DOPC   C4B 6453   2.192  19.915  12.076  0.2030  0.0360 -0.2894
  551DOPC   NC3 6454   3.927  14.741  13.926 -0.0817  0.2469  0.0847
  551DOPC   PO4 6455   3.570  14.787  13.709 -0.5108  0.1536 -0.2925
  551DOPC   GL1 6456   3.840  14.811  13.451  0.1900  0.3417  0.1939
  551DOPC   GL2 6457   4.083  14.624  13.442 -0.0983  0.1911 -0.1746
  551DOPC   C1A 6458   4.193  15.075  13.337  0.3080  0.0210  0.1433
  551DOPC   D2A 6459   4.545  15.110  13.050  0.1204  0.0135  0.2458
  551DOPC   C3A 6460   4.727  14.676  12.944  0.2547 -0.3334  0.0915
  551DOPC   C4A 6461   5.160  14.604  12.692  0.0573 -0.0284  0.2769
  551DOPC   C1B 6462   3.759  14.533  13.134 -0.3433  0.0805 -0.0915
  551DOPC   D2B 6463   3.349  14.676  13.134  0.0751 -0.3114 -0.1417
  551DOPC   C3B 6464   3.031  14.479  12.824  0.1846  0.4038 -0.2139
  551DOPC   C4B 6465   2.763  14.154  12.711 -0.1116 -0.1267 -0.0008
  552DOPS   CNO 6466  34.393  13.419  14.238  0.3309  0.2045 -0.0695
  552DOPS   PO4 6467  34.763  13.430  14.165 -0.1968 -0.1233  0.2154
  552DOPS   GL1 6468  34.937  13.428  13.693  0.1032  0.0816  0.0227
  552DOPS   GL2 6469  34.768  13.337  13.509  0.1484  0.0996  0.3181
  552DOPS   C1A 6470  35.188  13.630  13.340 -0.3735 -0.1026 -0.1268
  552DOPS   D2A 6471  35.235  13.752  12.917 -0.3998 -0.2711 -0.0838
  552DOPS   C3A 6472  35.516  14.063  12.767 -0.4746 -0.0039  0.0643
  552DOPS   C4A 6473  35.821  14.190  12.423 -0.0678  0.2586 -0.0718
  552DOPS   C1B 6474  34.606  12.969  13.280  0.0887  0.0535  0.0253
  552DOPS   D2B 6475  34.762  12.528  13.209 -0.0809  0.0670  0.1737
  552DOPS   C3B 6476  35.113  12.425  12.919 -0.0549  0.2003  0.2050
  552DOPS   C4B 6477  35.150  12.346  12.481  0.0609  0.2495  0.1276
  553DOPC   NC3 6478  13.590  23.486  13.548 -0.4519  0.2457  0.0120
  553DOPC   PO4 6479  13.204  23.433  13.565  0.1002 -0.1585  0.3130
  553DOPC   GL1 6480  13.105  23.192  13.263 -0.0243  0.0232  0.0538
  553DOPC   GL2 6481  12.875  23.273  13.193 -0.0848  0.3485  0.0566
  553DOPC   C1A 6482  13.134  23.214  12.787  0.2326 -0.0552  0.0222
  553DOPC   D2A 6483  13.486  23.289  12.492 -0.1207  0.2130 -0.0078
  553DOPC   C3A 6484  13.410  23.202  12.088 -0.1838 -0.3198  0.3171
  553DOPC   C4A 6485  13.254  23.062  11.651  0.1836  0.1006 -0.0288
  553DOPC   C1B 6486  12.629  23.540  12.872 -0.0362 -0.1847 -0.3728
  553DOPC   D2B 6487  12.343  23.666  12.535 -0.0647  0.2590 -0.0052
  553DOPC   C3B 6488  12.520  23.701  12.108  0.1834 -0.0405 -0.1437
  553DOPC   C4B 6489  12.743  23.728  11.728  0.2369  0.0792 -0.0386
  554POSM   NC3 6490   7.082  15.235  13.746 -0.0040 -0.2526 -0.3792
  554POSM   PO4 6491   6.852  14.965  13.909 -0.0739  0.0452  0.2789
  554POSM   AM1 6492   6.801  14.656  13.814  0.0383 -0.1143 -0.1091
  554POSM   AM2 6493   6.869  14.495  13.586 -0.1570 -0.0294 -0.2986
  554POSM   T1A 6494   6.357  14.453  13.689 -0.2030  0.0266 -0.3057
  554POSM   C2A 6495   5.927  14.519  13.574  0.1579  0.0782 -0.0126
  554POSM   C3A 6496   5.500  14.384  13.447  0.1381  0.1713  0.2759
  554POSM   C1B 6497   6.954  14.586  13.273 -0.1863  0.0600  0.0222
  554POSM   D2B 6498   7.011  14.739  12.796 -0.2466 -0.3591 -0.4123
  554POSM   C3B 6499   6.993  15.233  12.867  0.2689 -0.1203 -0.0134
  554POSM   C4B 6500   6.736  15.638  12.734  0.0273  0.0090  0.0018
  555DOPC   NC3 6501   5.075  12.688  14.716  0.2995 -0.1435 -0.0207
  555DOPC   PO4 6502   4.803  12.407  14.812  0.1217  0.1085 -0.0414
  555DOPC   GL1 6503   4.752  12.336  14.434 -0.2771 -0.0854  0.1172
  555DOPC   GL2 6504   4.531  12.484  14.235  0.1358 -0.1944  0.0071
  555DOPC   C1A 6505   4.983  12.110  14.106  0.1781  0.0611  0.0817
  555DOPC   D2A 6506   5.126  11.905  13.705  0.0596 -0.2553 -0.2417
  555DOPC   C3A 6507   5.109  11.484  13.424 -0.1137 -0.2727  0.0015
  555DOPC   C4A 6508   4.948  11.053  13.409  0.0952 -0.1983 -0.0239
  555DOPC   C1B 6509   4.903  12.641  14.003 -0.0382  0.0588  0.1878
  555DOPC   D2B 6510   5.111  12.380  13.629  0.0430  0.2309  0.1821
  555DOPC   C3B 6511   4.839  12.474  13.230  0.0740 -0.1567  0.1981
  555DOPC   C4B 6512   4.725  12.186  12.882  0.1300 -0.0653 -0.0740
  556DOPC   NC3 6513   7.892  11.719  15.359 -0.0403 -0.1019 -0.2191
  556DOPC   PO4 6514   7.878  12.008  15.055 -0.0730 -0.0525 -0.2725
  556DOPC   GL1 6515   7.990  11.601  14.861 -0.3885 -0.5332  0.0010
  556DOPC   GL2 6516   8.055  11.407  15.012  0.2938 -0.1287  0.1857
  556DOPC   C1A 6517   7.905  11.477  14.417 -0.0580 -0.1597  0.4093
  556DOPC   D2A 6518   7.694  11.208  14.083  0.0354  0.0701  0.0265
  556DOPC   C3A 6519   7.950  10.839  13.995 -0.1440  0.1223 -0.2470
  556DOPC   C4A 6520   8.086  10.514  13.661 -0.1172 -0.1398 -0.1298
  556DOPC   C1B 6521   7.742  11.181  14.754 -0.1441 -0.2279 -0.3661
  556DOPC   D2B 6522   7.433  11.000  14.477 -0.1312  0.3488  0.1104
  556DOPC   C3B 6523   7.586  10.635  14.280  0.2119 -0.0207  0.0876
  556DOPC   C4B 6524   7.921  10.322  14.130  0.0632 -0.1246  0.2893
  557DOPE   NH3 6525   6.659   8.785  17.064 -0.3486 -0.1452  0.0473
  557DOPE   PO4 6526   6.453   8.773  16.827 -0.2441 -0.0439 -0.2252
  557DOPE   GL1 6527   6.304   8.707  16.538 -0.4171 -0.1346 -0.2295
  557DOPE   GL2 6528   6.397   8.810  16.321  0.0030  0.0467  0.0665
  557DOPE   C1A 6529   6.373   8.321  16.289 -0.0421  0.1168  0.3412
  557DOPE   D2A 6530   6.376   8.226  15.821 -0.1575  0.2249  0.1673
  557DOPE   C3A 6531   6.229   8.607  15.604 -0.2731  0.0369 -0.2973
  557DOPE   C4A 6532   6.140   9.090  15.489  0.0344 -0.0146 -0.1295
  557DOPE   C1B 6533   6.607   8.636  15.932 -0.1346 -0.2366  0.3744
  557DOPE   D2B 6534   6.889   8.637  15.541  0.1449 -0.1971  0.1855
  557DOPE   C3B 6535   6.623   8.314  15.365 -0.2401 -0.1299 -0.2356
  557DOPE   C4B 6536   6.273   8.339  15.043  0.1842 -0.2036  0.2262
  558POSM   NC3 6537   9.349  12.705  14.799 -0.1758 -0.0471 -0.1718
  558POSM   PO4 6538   9.222  13.013  14.585 -0.2446  0.0052 -0.2694
  558POSM   AM1 6539   9.091  12.908  14.314  0.0542 -0.1624  0.2379
  558POSM   AM2 6540   9.207  12.807  14.085 -0.2380  0.2017  0.1282
  558POSM   T1A 6541   8.647  12.811  14.175 -0.0767 -0.0443  0.3304
  558POSM   C2A 6542   8.280  12.629  13.983  0.1080  0.1505 -0.0509
  558POSM   C3A 6543   8.035  12.572  13.548  0.0950 -0.2487 -0.0079
  558POSM   C1B 6544   9.019  12.721  13.810  0.3110  0.2082  0.0677
  558POSM   D2B 6545   8.721  12.886  13.485  0.0762  0.1743  0.1075
  558POSM   C3B 6546   8.350  13.007  13.702 -0.3099 -0.1802 -0.3088
  558POSM   C4B 6547   7.932  13.145  13.739 -0.0397  0.0849 -0.3330
  559POSM   NC3 6548   2.440  20.379  14.136 -0.1016  0.1413  0.0853
  559POSM   PO4 6549   2.653  20.219  13.829  0.0720 -0.2354  0.0788
  559POSM   AM1 6550   2.568  20.121  13.514  0.0661 -0.0524  0.0742
  559POSM   AM2 6551   2.576  19.847  13.364 -0.2806  0.1237  0.0027
  559POSM   T1A 6552   2.526  20.379  13.058 -0.0952 -0.0562 -0.1196
  559POSM   C2A 6553   2.263  20.430  12.748  0.0214 -0.1352 -0.0598
  559POSM   C3A 6554   2.233  20.713  12.390  0.0319 -0.1359 -0.2857
  559POSM   C1B 6555   2.661  19.924  13.040  0.3942 -0.0999  0.1812
  559POSM   D2B 6556   2.756  20.137  12.601 -0.0394 -0.0523  0.0177
  559POSM   C3B 6557   2.451  20.279  12.270  0.1164 -0.0472  0.0630
  559POSM   C4B 6558   2.104  20.451  12.006 -0.3124 -0.0173 -0.2049
  560DOPE   NH3 6559  34.280  12.996  14.011 -0.0015  0.1427  0.0583
  560DOPE   PO4 6560  34.415  13.178  13.811  0.0029  0.0756 -0.0414
  560DOPE   GL1 6561  34.225  13.060  13.473 -0.3624 -0.0029 -0.0869
  560DOPE   GL2 6562  33.917  13.052  13.595 -0.0686  0.1637 -0.0750
  560DOPE   C1A 6563  34.187  12.973  13.040 -0.0020  0.4806 -0.0339
  560DOPE   D2A 6564  33.947  12.674  12.768  0.2613  0.1368  0.2273
  560DOPE   C3A 6565  33.976  12.688  12.304  0.1548 -0.1379 -0.0865
  560DOPE   C4A 6566  33.835  12.430  11.909  0.0868  0.0964 -0.2078
  560DOPE   C1B 6567  33.890  12.695  13.383 -0.1688  0.2095  0.0584
  560DOPE   D2B 6568  34.182  12.444  13.160  0.1498  0.0904  0.1931
  560DOPE   C3B 6569  34.001  12.135  12.985  0.1728  0.2260  0.0997
  560DOPE   C4B 6570  33.743  11.829  12.687 -0.1490 -0.2089  0.2954
  561POSM   NC3 6571   1.136  14.931  14.215  0.2014 -0.1067 -0.0233
  561POSM   PO4 6572   0.782  14.792  14.097  0.0461 -0.1203  0.1729
  561POSM   AM1 6573   0.838  14.768  13.772  0.3236 -0.4261 -0.3248
  561POSM   AM2 6574   0.717  14.906  13.565  0.4174  0.0719 -0.2057
  561POSM   T1A 6575   1.051  14.416  13.388 -0.2364 -0.0706  0.0041
  561POSM   C2A 6576   1.447  14.392  13.131 -0.4627 -0.1180  0.4663
  561POSM   C3A 6577   1.676  14.382  12.737  0.0318 -0.1921 -0.0128
  561POSM   C1B 6578   0.771  14.777  13.263  0.2684 -0.2511 -0.0295
  561POSM   D2B 6579   0.947  14.548  12.954 -0.1158 -0.0935  0.0073
  561POSM   C3B 6580   1.252  14.649  12.636  0.0872 -0.0619  0.3528
  561POSM   C4B 6581   1.552  14.992  12.593 -0.1053  0.4529  0.1598
  562DOPE   NH3 6582   6.701  22.961  14.045  0.1707  0.0220 -0.3423
  562DOPE   PO4 6583   6.977  23.101  13.880  0.2059 -0.3804  0.1183
  562DOPE   GL1 6584   6.871  23.170  13.441  0.4246 -0.0400 -0.0527
  562DOPE   GL2 6585   6.598  23.429  13.428  0.1747  0.1066 -0.0045
  562DOPE   C1A 6586   6.577  23.000  13.109  0.0689  0.1028  0.0459
  562DOPE   D2A 6587   6.318  22.839  12.794 -0.0073  0.0821 -0.0373
  562DOPE   C3A 6588   6.087  23.138  12.533  0.0463 -0.0202 -0.2390
  562DOPE   C4A 6589   6.113  23.516  12.277 -0.3196  0.0929 -0.1039
  562DOPE   C1B 6590   6.836  23.407  13.058 -0.2916 -0.0604 -0.0402
  562DOPE   D2B 6591   7.148  23.467  12.738 -0.3778  0.0257 -0.2082
  562DOPE   C3B 6592   7.091  23.233  12.339 -0.0630 -0.2160  0.0655
  562DOPE   C4B 6593   6.987  23.045  11.966 -0.4048  0.0216 -0.1450
  563POSM   NC3 6594   1.457  20.273  13.860  0.5031  0.0503 -0.0975
  563POSM   PO4 6595   1.053  20.392  13.777  0.2099  0.0656  0.2944
  563POSM   AM1 6596   0.941  20.496  13.504 -0.0948  0.1655 -0.2297
  563POSM   AM2 6597   0.679  20.641  13.423 -0.3234 -0.1158 -0.3608
  563POSM   T1A 6598   1.057  20.498  13.017  0.0712  0.2773  0.0817
  563POSM   C2A 6599   0.923  20.306  12.592  0.0177  0.1043  0.4108
  563POSM   C3A 6600   0.541  20.120  12.439 -0.0162 -0.0566 -0.0154
  563POSM   C1B 6601   0.641  20.388  13.246  0.0888 -0.4232 -0.0378
  563POSM   D2B 6602   0.797  19.995  12.967  0.2568 -0.0119 -0.0933
  563POSM   C3B 6603   0.929  19.764  12.586  0.2673 -0.1605  0.0388
  563POSM   C4B 6604   1.030  19.403  12.307 -0.1038  0.3767  0.4812
  564DOPS   CNO 6605  11.822  13.659  13.393 -0.2816  0.0847  0.3867
  564DOPS   PO4 6606  11.780  13.884  13.102 -0.1009 -0.2899  0.2871
  564DOPS   GL1 6607  11.784  13.736  12.740 -0.2790 -0.0237 -0.1326
  564DOPS   GL2 6608  11.972  13.966  12.656 -0.4308  0.0757  0.0442
  564DOPS   C1A 6609  11.586  13.966  12.411  0.0101  0.0399 -0.0218
  564DOPS   D2A 6610  11.555  14.021  11.945  0.1163 -0.1479  0.0186
  564DOPS   C3A 6611  11.369  13.762  11.613 -0.1226 -0.1779 -0.1807
  564DOPS   C4A 6612  11.538  13.608  11.212  0.2088  0.1478  0.3526
  564DOPS   C1B 6613  12.066  13.924  12.176 -0.1680 -0.0819  0.2059
  564DOPS   D2B 6614  11.893  13.630  11.810  0.0974  0.0727 -0.0870
  564DOPS   C3B 6615  11.648  13.180  11.776  0.1922  0.1334  0.1578
  564DOPS   C4B 6616  11.259  13.092  12.047 -0.0711  0.2395  0.1706
  565DOPC   NC3 6617   5.570  21.992  13.369  0.0062  0.2265  0.0165
  565DOPC   PO4 6618   5.623  21.683  13.601 -0.4132  0.4354 -0.0045
  565DOPC   GL1 6619   5.993  21.560  13.364  0.2179 -0.1728  0.2193
  565DOPC   GL2 6620   6.260  21.581  13.370  0.0917 -0.1192  0.0692
  565DOPC   C1A 6621   5.984  21.371  12.966  0.0891 -0.0966  0.0271
  565DOPC   D2A 6622   5.609  21.118  12.769  0.0648 -0.0681  0.1042
  565DOPC   C3A 6623   5.821  20.753  12.800 -0.1703 -0.1632 -0.3034
  565DOPC   C4A 6624   6.006  20.338  12.862  0.0284  0.1526 -0.3205
  565DOPC   C1B 6625   6.468  21.481  12.999  0.1145 -0.1817 -0.1953
  565DOPC   D2B 6626   6.783  21.759  12.789  0.2810 -0.1146 -0.0654
  565DOPC   C3B 6627   6.830  21.964  12.386  0.4340  0.1609  0.2077
  565DOPC   C4B 6628   6.999  22.371  12.473  0.4026  0.1147 -0.2961
  566DOPS   CNO 6629   3.291  22.948  14.424  0.1408 -0.0362  0.0790
  566DOPS   PO4 6630   3.336  23.191  14.143  0.0734  0.3154 -0.0933
  566DOPS   GL1 6631   3.433  23.150  13.773  0.3114  0.2174 -0.1888
  566DOPS   GL2 6632   3.710  23.065  13.826 -0.2190  0.1445  0.1839
  566DOPS   C1A 6633   3.237  23.218  13.387 -0.1459 -0.0242  0.1507
  566DOPS   D2A 6634   3.175  22.869  13.075 -0.0490 -0.1568  0.0050
  566DOPS   C3A 6635   2.798  22.612  12.912 -0.0609  0.2014  0.0721
  566DOPS   C4A 6636   2.564  22.427  12.530 -0.0297 -0.1496 -0.0322
  566DOPS   C1B 6637   3.823  23.405  13.490 -0.0779  0.0483  0.2119
  566DOPS   D2B 6638   4.051  23.591  13.155  0.0419 -0.1011 -0.2008
  566DOPS   C3B 6639   4.043  23.748  12.693 -0.0045 -0.0964 -0.0157
  566DOPS   C4B 6640   4.023  23.533  12.333 -0.0435  0.3424  0.1320
  567DOPE   NH3 6641   9.334  19.106  13.315 -0.2321 -0.2105 -0.3061
  567DOPE   PO4 6642   9.471  19.064  13.014  0.1897 -0.0735 -0.1593
  567DOPE   GL1 6643   9.543  19.158  12.700 -0.1608 -0.3844  0.0579
  567DOPE   GL2 6644   9.692  18.944  12.468  0.2586  0.0948 -0.2712
  567DOPE   C1A 6645   9.255  19.253  12.352  0.1270  0.0123 -0.0530
  567DOPE   D2A 6646   9.033  19.556  12.061 -0.1694  0.1532  0.2025
  567DOPE   C3A 6647   9.251  19.295  11.731  0.1035  0.5532  0.0421
  567DOPE   C4A 6648   9.299  19.429  11.266  0.1414 -0.0250 -0.1780
  567DOPE   C1B 6649   9.731  19.193  12.103  0.1497 -0.0341  0.0313
  567DOPE   D2B 6650   9.806  19.490  11.781  0.1952  0.2583  0.2325
  567DOPE   C3B 6651   9.833  19.554  11.324 -0.2165 -0.1406 -0.2473
  567DOPE   C4B 6652  10.142  19.634  10.992  0.0234  0.0091 -0.1498
  568DOPC   NC3 6653   0.593  18.425  13.894 -0.4936 -0.2308  0.0739
  568DOPC   PO4 6654   0.491  18.812  13.792  0.0487  0.0672  0.0762
  568DOPC   GL1 6655   0.679  18.785  13.452 -0.0049 -0.0821 -0.2950
  568DOPC   GL2 6656   0.693  18.501  13.417 -0.2704 -0.1712  0.0537
  568DOPC   C1A 6657   0.737  18.901  13.024 -0.0072 -0.1265 -0.2035
  568DOPC   D2A 6658   0.895  19.262  12.748 -0.1078 -0.0884  0.2130
  568DOPC   C3A 6659   0.580  19.426  12.462  0.1100 -0.3867 -0.3033
  568DOPC   C4A 6660   0.098  19.374  12.342 -0.3281  0.0331 -0.0137
  568DOPC   C1B 6661   1.018  18.254  13.280  0.0791  0.0098 -0.1346
  568DOPC   D2B 6662   1.281  18.023  13.058 -0.3587  0.1721 -0.1266
  568DOPC   C3B 6663   0.968  17.639  13.061 -0.2816 -0.1041  0.0447
  568DOPC   C4B 6664   0.589  17.460  13.126 -0.2726 -0.1004 -0.0236
  569DOPS   CNO 6665   0.626  16.321  14.129  0.0133 -0.1230 -0.2003
  569DOPS   PO4 6666   0.731  16.524  13.865  0.2282 -0.0413  0.0124
  569DOPS   GL1 6667   0.634  16.394  13.500  0.3202 -0.0982 -0.1207
  569DOPS   GL2 6668   0.377  16.240  13.546 -0.1425  0.1373 -0.0137
  569DOPS   C1A 6669   0.874  16.027  13.260 -0.0583  0.0569 -0.3558
  569DOPS   D2A 6670   1.019  15.671  13.009  0.1611  0.0344  0.1476
  569DOPS   C3A 6671   1.355  15.472  12.752  0.1815  0.3905  0.1461
  569DOPS   C4A 6672   1.515  15.353  12.300 -0.1802  0.0676  0.4034
  569DOPS   C1B 6673   0.470  16.213  13.071 -0.0862  0.2702  0.1833
  569DOPS   D2B 6674   0.802  16.189  12.760 -0.0699 -0.2211  0.4019
  569DOPS   C3B 6675   0.759  16.284  12.236 -0.1621  0.2622 -0.0618
  569DOPS   C4B 6676   0.808  16.390  11.795  0.2033  0.1839 -0.0331
  570DOPC   NC3 6677   2.784  14.591  14.115  0.2886 -0.0345 -0.1668
  570DOPC   PO4 6678   2.554  14.505  13.867 -0.2575  0.1448 -0.1280
  570DOPC   GL1 6679   2.284  14.581  13.565 -0.1983  0.1364 -0.2426
  570DOPC   GL2 6680   2.480  14.562  13.350  0.1699  0.0753  0.3582
  570DOPC   C1A 6681   2.034  14.260  13.302  0.2623 -0.0617  0.1677
  570DOPC   D2A 6682   1.632  13.938  13.214 -0.1340  0.0062  0.1798
  570DOPC   C3A 6683   1.623  13.881  12.758  0.1172 -0.3531 -0.1857
  570DOPC   C4A 6684   1.797  14.074  12.337 -0.0301 -0.1558  0.0323
  570DOPC   C1B 6685   2.393  14.514  12.937  0.1193  0.2297  0.2287
  570DOPC   D2B 6686   2.107  14.452  12.567  0.1282 -0.0578 -0.4010
  570DOPC   C3B 6687   2.342  14.241  12.243  0.4550  0.0423 -0.0115
  570DOPC   C4B 6688   2.556  14.146  11.800  0.1433  0.4087 -0.2471
  571DOPE   NH3 6689  12.006  22.622  13.465  0.0039 -0.3281  0.0659
  571DOPE   PO4 6690  11.882  22.345  13.443  0.0004  0.0196  0.0298
  571DOPE   GL1 6691  11.792  22.320  13.039  0.3303  0.2971  0.2575
  571DOPE   GL2 6692  11.542  22.279  13.066 -0.0713 -0.1039  0.5002
  571DOPE   C1A 6693  11.699  22.577  12.618 -0.2128 -0.0803  0.2015
  571DOPE   D2A 6694  11.952  22.800  12.257 -0.1254 -0.1882 -0.1121
  571DOPE   C3A 6695  11.941  22.645  11.829  0.1241  0.3283  0.1890
  571DOPE   C4A 6696  11.627  22.596  11.482  0.0091 -0.2800  0.3778
  571DOPE   C1B 6697  11.635  22.086  12.668 -0.0189  0.1662  0.0229
  571DOPE   D2B 6698  11.520  22.113  12.233 -0.2457  0.0970 -0.0929
  571DOPE   C3B 6699  11.815  22.101  11.878 -0.0160  0.0356  0.0203
  571DOPE   C4B 6700  12.054  22.260  11.435 -0.1635  0.3221  0.0495
  572POSM   NC3 6701   6.676  20.277  13.653 -0.1497  0.0189 -0.0780
  572POSM   PO4 6702   7.006  20.444  13.739  0.1630 -0.2032  0.0408
  572POSM   AM1 6703   6.980  20.569  13.436  0.3007 -0.1205 -0.3099
  572POSM   AM2 6704   7.043  20.703  13.238 -0.0959 -0.3593 -0.0359
  572POSM   T1A 6705   6.585  20.860  13.198  0.0510  0.1510  0.0196
  572POSM   C2A 6706   6.289  20.969  12.847 -0.3947  0.2975 -0.2963
  572POSM   C3A 6707   5.969  21.087  12.481 -0.1474  0.2102  0.1354
  572POSM   C1B 6708   7.158  20.851  12.912  0.0076  0.0843  0.0617
  572POSM   D2B 6709   7.243  20.868  12.450 -0.0009 -0.2392  0.3995
  572POSM   C3B 6710   6.981  20.929  12.095  0.1556 -0.0790 -0.3134
  572POSM   C4B 6711   6.683  20.973  11.770  0.0519  0.0385  0.3505
  573DOPE   NH3 6712   5.354  20.419  13.876 -0.0327  0.1187  0.0004
  573DOPE   PO4 6713   5.562  20.199  13.828 -0.2322  0.0302  0.2167
  573DOPE   GL1 6714   5.439  20.166  13.433 -0.0991  0.0364  0.6094
  573DOPE   GL2 6715   5.200  20.339  13.366 -0.3211  0.1413 -0.1144
  573DOPE   C1A 6716   5.512  20.201  13.014 -0.0209 -0.2383 -0.3014
  573DOPE   D2A 6717   5.635  20.314  12.591  0.1022 -0.0921 -0.2110
  573DOPE   C3A 6718   5.705  20.614  12.320 -0.0801  0.1222  0.0827
  573DOPE   C4A 6719   5.945  20.865  12.074  0.1366  0.0682  0.1378
  573DOPE   C1B 6720   5.353  20.621  12.994 -0.0084 -0.2502 -0.2367
  573DOPE   D2B 6721   5.193  20.890  12.599  0.1209  0.1824 -0.0909
  573DOPE   C3B 6722   4.744  21.028  12.604  0.2092  0.0943 -0.1299
  573DOPE   C4B 6723   4.539  21.359  12.290  0.1790  0.0355 -0.0328
  574POSM   NC3 6724   9.805  19.912  13.431 -0.1986  0.0994  0.1517
  574POSM   PO4 6725   9.462  20.054  13.239  0.1148  0.0500  0.1367
  574POSM   AM1 6726   9.299  20.235  13.000 -0.1297  0.2283 -0.1034
  574POSM   AM2 6727   9.305  20.187  12.713  0.1739  0.5527  0.0462
  574POSM   T1A 6728   9.116  20.631  12.739  0.2229 -0.1894  0.2693
  574POSM   C2A 6729   9.008  20.911  12.402 -0.1707 -0.1250  0.3182
  574POSM   C3A 6730   9.012  21.098  11.988 -0.0513 -0.0550 -0.1066
  574POSM   C1B 6731   9.226  20.151  12.392 -0.0851  0.1414  0.0015
  574POSM   D2B 6732   9.177  20.256  11.983 -0.3312  0.0444  0.5934
  574POSM   C3B 6733   9.321  20.558  11.724 -0.3247  0.2052  0.3365
  574POSM   C4B 6734   9.482  20.955  11.453  0.0003 -0.0975  0.2100
  575DOPC   NC3 6735   6.017  16.007  14.164  0.0442 -0.0100  0.0425
  575DOPC   PO4 6736   6.158  16.082  13.774 -0.1894 -0.3602  0.2648
  575DOPC   GL1 6737   6.248  16.091  13.373 -0.1475  0.0040  0.1438
  575DOPC   GL2 6738   6.524  16.192  13.399 -0.0562 -0.1547 -0.2673
  575DOPC   C1A 6739   6.336  15.838  12.973 -0.2298 -0.5307  0.1758
  575DOPC   D2A 6740   6.307  15.519  12.638  0.0591 -0.1232 -0.0217
  575DOPC   C3A 6741   5.926  15.399  12.316  0.0361  0.0709 -0.2985
  575DOPC   C4A 6742   5.460  15.457  12.429  0.2744 -0.1812  0.1743
  575DOPC   C1B 6743   6.719  16.136  13.008 -0.1280 -0.1911 -0.1483
  575DOPC   D2B 6744   6.869  16.099  12.612 -0.1073  0.1234  0.1996
  575DOPC   C3B 6745   6.797  16.398  12.310  0.1354 -0.1764  0.2575
  575DOPC   C4B 6746   6.495  16.760  12.295  0.4759  0.1004  0.0655
  576DOPE   NH3 6747   9.100  21.488  13.513 -0.1546 -0.0214 -0.0794
  576DOPE   PO4 6748   9.220  21.747  13.691  0.1434  0.2272 -0.1211
  576DOPE   GL1 6749   9.363  21.810  13.341 -0.2823 -0.1024 -0.2815
  576DOPE   GL2 6750   9.395  22.075  13.315  0.1123  0.1877 -0.1513
  576DOPE   C1A 6751   9.501  21.502  13.049 -0.0155 -0.4910 -0.1158
  576DOPE   D2A 6752   9.833  21.452  12.703 -0.1759  0.1262  0.0673
  576DOPE   C3A 6753  10.027  21.707  12.382 -0.0464  0.2203 -0.3253
  576DOPE   C4A 6754  10.288  21.838  12.035  0.1469  0.1083 -0.1741
  576DOPE   C1B 6755   9.313  21.944  12.877  0.1409  0.0007  0.0524
  576DOPE   D2B 6756   9.508  21.803  12.481  0.0536  0.0270  0.3310
  576DOPE   C3B 6757   9.575  21.941  12.017 -0.0822 -0.0261 -0.2648
  576DOPE   C4B 6758   9.416  21.868  11.639  0.1556 -0.1281 -0.0136
  577POSM   NC3 6759   6.339  11.075  16.088 -0.0117 -0.0272 -0.1873
  577POSM   PO4 6760   6.571  10.773  16.112  0.1055 -0.4871 -0.1158
  577POSM   AM1 6761   6.635  10.517  15.947  0.0676 -0.1409  0.2638
  577POSM   AM2 6762   6.507  10.293  15.808 -0.0104  0.1079  0.1228
  577POSM   T1A 6763   7.037  10.360  15.664  0.1494  0.0005 -0.0694
  577POSM   C2A 6764   7.350  10.092  15.686 -0.0757  0.1740  0.3093
  577POSM   C3A 6765   7.241   9.616  15.627 -0.0681 -0.1868 -0.2819
  577POSM   C1B 6766   6.553  10.370  15.448 -0.0105 -0.0177 -0.0152
  577POSM   D2B 6767   6.658  10.266  14.998  0.2406  0.1854  0.2878
  577POSM   C3B 6768   7.082  10.141  14.873 -0.0864 -0.0260  0.0751
  577POSM   C4B 6769   7.275   9.950  14.579 -0.0371  0.1002  0.1654
  578DOPE   NH3 6770  10.907  21.632  13.361 -0.0326  0.1659 -0.0601
  578DOPE   PO4 6771  11.019  21.907  13.289  0.2138 -0.0096 -0.1915
  578DOPE   GL1 6772  11.106  22.181  13.008 -0.2611 -0.0961 -0.3226
  578DOPE   GL2 6773  11.143  22.075  12.716 -0.2676  0.2713  0.0165
  578DOPE   C1A 6774  10.807  22.484  12.770 -0.3078 -0.1223 -0.3043
  578DOPE   D2A 6775  10.404  22.617  12.547 -0.2193  0.1424 -0.1512
  578DOPE   C3A 6776  10.067  22.719  12.251  0.0949  0.1788 -0.2741
  578DOPE   C4A 6777   9.968  22.834  11.836  0.1856  0.2017  0.0005
  578DOPE   C1B 6778  11.122  21.792  12.354  0.1608 -0.1184  0.2832
  578DOPE   D2B 6779  10.900  21.560  12.075 -0.1984 -0.0206  0.0120
  578DOPE   C3B 6780  10.649  21.672  11.738 -0.1522  0.1143  0.0670
  578DOPE   C4B 6781  10.331  21.688  11.506  0.0385 -0.3316  0.0878
  579DOPE   NH3 6782   0.145  17.416  13.612  0.2918  0.1733 -0.0916
  579DOPE   PO4 6783   0.225  17.713  13.668 -0.0341  0.0780  0.3858
  579DOPE   GL1 6784   0.313  17.897  13.326 -0.3022  0.0736  0.0425
  579DOPE   GL2 6785   0.117  17.803  13.109  0.0665  0.0830 -0.1114
  579DOPE   C1A 6786   0.650  18.016  13.065 -0.0415 -0.2704 -0.0870
  579DOPE   D2A 6787   0.900  17.983  12.683 -0.0562  0.0374  0.1226
  579DOPE   C3A 6788   0.776  18.120  12.253 -0.1943 -0.0017  0.0252
  579DOPE   C4A 6789   0.929  18.495  12.096  0.2973 -0.1891  0.0197
  579DOPE   C1B 6790   0.346  17.727  12.754 -0.2246 -0.0327  0.1023
  579DOPE   D2B 6791   0.640  17.560  12.402  0.0547  0.2712 -0.3626
  579DOPE   C3B 6792   0.606  17.234  12.026 -0.2442 -0.0553 -0.0343
  579DOPE   C4B 6793   0.757  16.922  11.719  0.0305 -0.1544 -0.2668
  580DOPE   NH3 6794   7.723  18.392  13.193 -0.0575 -0.3931 -0.1274
  580DOPE   PO4 6795   8.026  18.516  13.217  0.1831  0.3736  0.3734
  580DOPE   GL1 6796   7.917  18.513  12.733 -0.2745 -0.0401 -0.0810
  580DOPE   GL2 6797   7.776  18.290  12.583  0.0216  0.0993 -0.1696
  580DOPE   C1A 6798   7.892  18.754  12.391  0.3068 -0.0743  0.3244
  580DOPE   D2A 6799   8.138  18.975  12.014  0.1909 -0.2871 -0.0801
  580DOPE   C3A 6800   8.262  19.405  11.796 -0.2231 -0.1049  0.1558
  580DOPE   C4A 6801   8.672  19.489  11.669  0.1370 -0.1302 -0.3428
  580DOPE   C1B 6802   7.855  18.404  12.096 -0.1108 -0.2039 -0.0686
  580DOPE   D2B 6803   8.090  18.559  11.734 -0.3612  0.0676  0.5208
  580DOPE   C3B 6804   8.186  18.974  11.507 -0.1446  0.0625  0.2436
  580DOPE   C4B 6805   8.566  19.102  11.271  0.1256 -0.0992 -0.0529
  581DOPE   NH3 6806   0.705  15.592  13.999  0.1488 -0.0895 -0.1164
  581DOPE   PO4 6807   0.449  15.784  13.947  0.2449  0.0810  0.0384
  581DOPE   GL1 6808   0.403  15.640  13.596  0.4693 -0.3315 -0.0469
  581DOPE   GL2 6809   0.540  15.735  13.437 -0.0624 -0.1687  0.2065
  581DOPE   C1A 6810   0.303  15.290  13.308 -0.1039 -0.2143 -0.0866
  581DOPE   D2A 6811  -0.077  15.277  13.019 -0.0448  0.1142 -0.2742
  581DOPE   C3A 6812   0.152  15.326  12.617  0.1364 -0.1760 -0.0406
  581DOPE   C4A 6813   0.300  15.119  12.213  0.0809  0.1299  0.0837
  581DOPE   C1B 6814   0.495  15.699  13.019 -0.0682 -0.1112  0.0002
  581DOPE   D2B 6815   0.652  15.547  12.651  0.1233 -0.0691 -0.0678
  581DOPE   C3B 6816   0.476  15.602  12.252  0.0952  0.2085  0.0065
  581DOPE   C4B 6817   0.273  15.511  11.859 -0.2226 -0.0468 -0.1666
  582POSM   NC3 6818   8.279  14.884  13.703 -0.0797 -0.2337 -0.1099
  582POSM   PO4 6819   8.556  15.154  13.733  0.1972  0.0508  0.1389
  582POSM   AM1 6820   8.705  15.092  13.456  0.0273  0.2073 -0.0897
  582POSM   AM2 6821   8.854  14.860  13.359  0.1000 -0.1031  0.2351
  582POSM   T1A 6822   8.606  15.188  12.974 -0.3018  0.2269  0.2426
  582POSM   C2A 6823   8.420  15.262  12.548  0.1275 -0.4806  0.0176
  582POSM   C3A 6824   8.165  14.938  12.255  0.1249  0.5137  0.3252
  582POSM   C1B 6825   8.919  14.824  13.033 -0.0522  0.0855  0.0069
  582POSM   D2B 6826   8.685  14.770  12.666  0.0423 -0.0111  0.2051
  582POSM   C3B 6827   8.618  14.411  12.369 -0.4171  0.1279 -0.1548
  582POSM   C4B 6828   8.661  14.351  11.914 -0.0740  0.3168 -0.1340
  583DOPE   NH3 6829   8.314  18.198  12.933  0.1095 -0.4908 -0.0104
  583DOPE   PO4 6830   8.064  17.987  12.963 -0.2157  0.3237 -0.0260
  583DOPE   GL1 6831   8.109  17.940  12.643  0.2115  0.1010  0.1667
  583DOPE   GL2 6832   8.213  18.166  12.433  0.0824 -0.0619  0.2202
  583DOPE   C1A 6833   8.261  17.660  12.343  0.1559 -0.3203 -0.2221
  583DOPE   D2A 6834   8.522  17.632  11.986 -0.1105  0.2330 -0.1764
  583DOPE   C3A 6835   8.809  17.997  11.841  0.0119  0.0127  0.0885
  583DOPE   C4A 6836   8.960  18.401  11.978  0.1916 -0.0220 -0.1480
  583DOPE   C1B 6837   8.631  18.004  12.396 -0.1418 -0.0188 -0.1283
  583DOPE   D2B 6838   9.013  17.741  12.343  0.2281  0.1281 -0.1162
  583DOPE   C3B 6839   9.016  17.386  12.118 -0.0213 -0.0877  0.2036
  583DOPE   C4B 6840   8.714  17.001  11.987 -0.1278 -0.1918  0.1045
  584DOPE   NH3 6841  10.514  20.446  13.508 -0.2688  0.1084  0.0954
  584DOPE   PO4 6842  10.456  20.571  13.239 -0.0651 -0.2346  0.0404
  584DOPE   GL1 6843  10.465  20.300  12.956  0.1208 -0.1087 -0.1354
  584DOPE   GL2 6844  10.724  20.505  12.832  0.1224  0.3585  0.1147
  584DOPE   C1A 6845  10.143  20.043  12.686 -0.0487 -0.1638 -0.0542
  584DOPE   D2A 6846   9.733  19.935  12.588 -0.0869  0.1053 -0.2329
  584DOPE   C3A 6847   9.601  19.669  12.287  0.1753  0.1363  0.0755
  584DOPE   C4A 6848   9.451  19.858  11.917  0.0248  0.0773 -0.0742
  584DOPE   C1B 6849  10.793  20.545  12.345 -0.1080 -0.2083  0.1244
  584DOPE   D2B 6850  10.756  20.670  11.891  0.0915  0.3669  0.1571
  584DOPE   C3B 6851  10.495  20.714  11.480 -0.1285 -0.1756 -0.1914
  584DOPE   C4B 6852  10.336  20.704  11.030  0.1928 -0.0829 -0.1529
  585POSM   NC3 6853   7.000  14.603  14.208  0.0064  0.1897  0.0241
  585POSM   PO4 6854   7.059  14.277  13.980  0.1567  0.3689 -0.2756
  585POSM   AM1 6855   7.287  14.185  13.763  0.0197  0.3361 -0.2688
  585POSM   AM2 6856   7.418  14.282  13.558 -0.2850 -0.2743 -0.4462
  585POSM   T1A 6857   7.374  13.834  13.333  0.2319 -0.1898  0.2114
  585POSM   C2A 6858   7.372  13.749  12.912  0.4700  0.6245  0.0729
  585POSM   C3A 6859   7.665  13.604  12.549  0.3787  0.0470 -0.1977
  585POSM   C1B 6860   7.454  14.453  13.298  0.1232  0.2051 -0.1981
  585POSM   D2B 6861   7.512  14.667  12.887 -0.0826 -0.0732 -0.0626
  585POSM   C3B 6862   7.316  14.499  12.479  0.0334  0.0625  0.0553
  585POSM   C4B 6863   7.268  13.990  12.387  0.0413  0.1805  0.2220
  586DOPC   NC3 6864   4.390  18.856  13.672  0.1355 -0.2635 -0.0915
  586DOPC   PO4 6865   4.236  19.266  13.726  0.0866 -0.1367  0.1939
  586DOPC   GL1 6866   4.013  19.497  13.534  0.3637  0.2073  0.0037
  586DOPC   GL2 6867   4.114  19.405  13.264  0.0362 -0.1733  0.1793
  586DOPC   C1A 6868   3.979  19.850  13.225 -0.1531 -0.0413  0.5516
  586DOPC   D2A 6869   4.200  20.043  12.841  0.1141 -0.0244 -0.0604
  586DOPC   C3A 6870   4.546  20.083  12.575  0.0480 -0.3274  0.1325
  586DOPC   C4A 6871   4.868  20.013  12.292  0.0377 -0.1611  0.1086
  586DOPC   C1B 6872   4.100  19.558  12.840 -0.2136  0.1417 -0.0309
  586DOPC   D2B 6873   3.685  19.601  12.639 -0.1579 -0.0527 -0.3572
  586DOPC   C3B 6874   3.513  19.516  12.278 -0.2640 -0.0664  0.0560
  586DOPC   C4B 6875   3.321  19.774  11.930  0.0396  0.1176 -0.1177
  587DOPE   NH3 6876   0.968  14.024  14.203 -0.1495 -0.4163 -0.0771
  587DOPE   PO4 6877   1.043  13.757  14.091 -0.0596 -0.2810  0.0068
  587DOPE   GL1 6878   1.162  13.972  13.767  0.1479 -0.0789  0.3305
  587DOPE   GL2 6879   0.855  13.961  13.655 -0.3166 -0.0047 -0.2046
  587DOPE   C1A 6880   1.200  13.905  13.292 -0.2380 -0.0369  0.0257
  587DOPE   D2A 6881   1.334  13.553  12.976  0.3101 -0.2723  0.1499
  587DOPE   C3A 6882   1.463  13.296  12.628  0.0425 -0.0979  0.1085
  587DOPE   C4A 6883   1.250  12.989  12.416  0.2237 -0.1334 -0.0665
  587DOPE   C1B 6884   0.664  14.140  13.214 -0.1408  0.1784  0.1259
  587DOPE   D2B 6885   0.538  14.229  12.771  0.0798 -0.1117 -0.0895
  587DOPE   C3B 6886   0.431  13.908  12.473 -0.1961 -0.2729 -0.0504
  587DOPE   C4B 6887   0.269  13.674  12.141 -0.1139  0.1055  0.0336
  588DOPC   NC3 6888  11.414  17.508  12.307 -0.2553  0.0197 -0.2289
  588DOPC   PO4 6889  11.521  17.817  12.500  0.2176 -0.2525  0.1086
  588DOPC   GL1 6890  11.548  17.983  12.177 -0.0943 -0.0608 -0.4589
  588DOPC   GL2 6891  11.630  18.309  12.191  0.0828  0.0285 -0.2323
  588DOPC   C1A 6892  11.423  17.714  11.783 -0.3420 -0.1493 -0.0925
  588DOPC   D2A 6893  11.396  17.389  11.519 -0.0639  0.0040  0.3410
  588DOPC   C3A 6894  11.854  17.414  11.246  0.3166  0.0551  0.0979
  588DOPC   C4A 6895  12.157  17.565  10.971 -0.1230  0.0565 -0.0303
  588DOPC   C1B 6896  11.550  18.594  11.909  0.2078  0.0263  0.2590
  588DOPC   D2B 6897  11.566  18.618  11.440  0.2629 -0.0826 -0.2393
  588DOPC   C3B 6898  11.690  18.411  11.056  0.1166 -0.1993  0.0225
  588DOPC   C4B 6899  11.762  18.497  10.653 -0.2334  0.2677  0.0919
  589POSM   NC3 6900   1.313  12.493  14.909 -0.1894 -0.0174  0.2408
  589POSM   PO4 6901   1.528  12.318  14.624  0.1395  0.0340  0.0010
  589POSM   AM1 6902   1.639  12.196  14.332  0.0991  0.4413  0.0031
  589POSM   AM2 6903   1.570  11.978  14.180  0.0863 -0.3410 -0.5123
  589POSM   T1A 6904   1.636  12.319  13.845 -0.0814 -0.2619  0.2432
  589POSM   C2A 6905   1.679  12.508  13.384  0.0168 -0.0777 -0.1330
  589POSM   C3A 6906   1.928  12.534  13.035  0.0234 -0.2720  0.1392
  589POSM   C1B 6907   1.869  11.794  14.112 -0.1806 -0.1019  0.0791
  589POSM   D2B 6908   2.226  11.651  13.890 -0.0834 -0.1375  0.2214
  589POSM   C3B 6909   2.103  11.345  13.566  0.0488  0.1429  0.0671
  589POSM   C4B 6910   2.015  11.066  13.176  0.4117  0.0650 -0.0380
  590DOPE   NH3 6911   8.983  14.987  13.886 -0.0650  0.0710  0.1040
  590DOPE   PO4 6912   9.042  15.285  13.710 -0.0825 -0.0608  0.4914
  590DOPE   GL1 6913   9.204  15.183  13.501  0.1126 -0.1769 -0.1627
  590DOPE   GL2 6914   9.122  15.221  13.193 -0.0659 -0.1446  0.2634
  590DOPE   C1A 6915   9.483  14.837  13.296  0.0337  0.1589  0.0541
  590DOPE   D2A 6916   9.463  14.590  12.941 -0.0111  0.2322 -0.2408
  590DOPE   C3A 6917   9.272  14.885  12.654 -0.1628  0.0829  0.3639
  590DOPE   C4A 6918   8.946  15.080  12.424 -0.2062 -0.0283 -0.1824
  590DOPE   C1B 6919   9.017  15.443  12.795 -0.0382  0.0291 -0.2183
  590DOPE   D2B 6920   9.232  15.659  12.468  0.1689 -0.1304  0.0991
  590DOPE   C3B 6921   9.120  15.674  12.067  0.0739 -0.0517  0.3349
  590DOPE   C4B 6922   8.839  15.666  11.711 -0.3303 -0.0505  0.0786
  591DOPE   NH3 6923   8.992  16.048  13.607  0.2459 -0.0510 -0.0853
  591DOPE   PO4 6924   9.193  16.192  13.368 -0.0318  0.0617 -0.0662
  591DOPE   GL1 6925   8.991  15.902  13.104 -0.1135  0.1594  0.1528
  591DOPE   GL2 6926   9.270  15.786  12.973  0.1321 -0.1981 -0.3073
  591DOPE   C1A 6927   8.576  15.737  12.958 -0.1937 -0.2871 -0.0287
  591DOPE   D2A 6928   8.185  15.496  12.917 -0.0283 -0.0210 -0.0921
  591DOPE   C3A 6929   7.922  15.411  12.534 -0.0092 -0.0796  0.2385
  591DOPE   C4A 6930   7.486  15.318  12.683  0.0606  0.3498 -0.1360
  591DOPE   C1B 6931   9.117  16.129  12.690 -0.0491  0.0695  0.2521
  591DOPE   D2B 6932   9.191  16.275  12.254 -0.0854 -0.0228 -0.1045
  591DOPE   C3B 6933   9.370  16.142  11.841 -0.0137 -0.0987 -0.3884
  591DOPE   C4B 6934   9.309  16.303  11.468  0.5821 -0.0897 -0.0717
  592POSM   NC3 6935   3.717  13.596  14.947  0.2575  0.2147  0.0090
  592POSM   PO4 6936   3.497  13.630  14.612  0.1513  0.0103  0.2154
  592POSM   AM1 6937   3.384  13.577  14.308 -0.2875  0.0646  0.1144
  592POSM   AM2 6938   3.198  13.398  14.164  0.0545  0.1278  0.0226
  592POSM   T1A 6939   3.607  13.440  13.865 -0.1074  0.1755 -0.2182
  592POSM   C2A 6940   3.917  13.210  13.723  0.0008  0.1744 -0.0353
  592POSM   C3A 6941   4.110  12.882  13.513 -0.3401  0.0061  0.1464
  592POSM   C1B 6942   3.117  13.443  13.808 -0.0649 -0.2374  0.0849
  592POSM   D2B 6943   2.989  13.715  13.453 -0.1550  0.0039  0.0055
  592POSM   C3B 6944   2.876  13.363  13.094 -0.2152  0.0410  0.0658
  592POSM   C4B 6945   2.777  13.160  12.704 -0.2331  0.2567 -0.1422
  593DOPS   CNO 6946   7.573  13.663  14.338 -0.0200  0.2078  0.0750
  593DOPS   PO4 6947   7.634  13.888  14.061 -0.2952  0.2417  0.0890
  593DOPS   GL1 6948   7.490  13.704  13.821 -0.0204 -0.1195 -0.0438
  593DOPS   GL2 6949   7.525  13.421  13.904 -0.0742 -0.2837 -0.1461
  593DOPS   C1A 6950   7.835  13.638  13.520  0.0196  0.1054  0.2830
  593DOPS   D2A 6951   7.879  13.522  13.045 -0.0852  0.0570 -0.1754
  593DOPS   C3A 6952   8.142  13.608  12.729 -0.1789  0.0043 -0.2084
  593DOPS   C4A 6953   8.216  13.841  12.310 -0.2911 -0.3469  0.0319
  593DOPS   C1B 6954   7.461  13.218  13.454  0.1866  0.2611 -0.4871
  593DOPS   D2B 6955   7.466  13.201  13.029  0.1098 -0.0913 -0.3486
  593DOPS   C3B 6956   7.286  13.277  12.610 -0.0139  0.2996  0.4458
  593DOPS   C4B 6957   7.202  13.505  12.249  0.0188  0.1591 -0.3894
  594DOPC   NC3 6958   5.002  23.373  13.902 -0.0141 -0.1677  0.1454
  594DOPC   PO4 6959   5.276  23.107  13.763  0.0737  0.2719 -0.1952
  594DOPC   GL1 6960   5.084  23.205  13.354 -0.0557  0.3148  0.2731
  594DOPC   GL2 6961   4.871  23.445  13.407  0.2243 -0.3069  0.0975
  594DOPC   C1A 6962   5.271  23.399  12.938  0.1038 -0.2196  0.1658
  594DOPC   D2A 6963   5.378  23.766  12.735 -0.0559 -0.2669 -0.1311
  594DOPC   C3A 6964   5.113  23.919  12.378 -0.1433  0.2172  0.0945
  594DOPC   C4A 6965   5.070  24.204  12.082  0.3578  0.1853 -0.3522
  594DOPC   C1B 6966   4.481  23.738  13.350  0.1793 -0.1378 -0.1925
  594DOPC   D2B 6967   4.100  23.892  13.569 -0.2464  0.3474  0.0813
  594DOPC   C3B 6968   3.978  24.303  13.572 -0.0608 -0.1233  0.1579
  594DOPC   C4B 6969   4.162  24.728  13.668 -0.0345  0.0912 -0.0264
  595POSM   NC3 6970   4.500  16.580  14.408  0.0904 -0.0862 -0.0901
  595POSM   PO4 6971   4.485  16.594  14.040  0.1511 -0.1306  0.1938
  595POSM   AM1 6972   4.383  16.564  13.709  0.0825 -0.0113  0.2431
  595POSM   AM2 6973   4.191  16.452  13.495  0.2807 -0.0875 -0.0986
  595POSM   T1A 6974   4.672  16.493  13.295 -0.1341 -0.1428  0.0165
  595POSM   C2A 6975   5.002  16.607  13.010  0.0456  0.1341  0.0099
  595POSM   C3A 6976   5.398  16.418  12.763  0.0081  0.1395 -0.0380
  595POSM   C1B 6977   4.156  16.452  13.160 -0.2137 -0.0386 -0.2196
  595POSM   D2B 6978   4.211  16.624  12.754 -0.0695  0.2309 -0.1023
  595POSM   C3B 6979   4.349  16.423  12.363 -0.3400 -0.0180 -0.1733
  595POSM   C4B 6980   4.452  16.268  11.927 -0.1088 -0.3419  0.0123
  596DOPE   NH3 6981   6.883  12.441  14.719 -0.0894  0.0387 -0.1029
  596DOPE   PO4 6982   7.029  12.243  14.497  0.2197 -0.2242 -0.3016
  596DOPE   GL1 6983   7.326  12.014  14.420 -0.0492 -0.1172  0.0412
  596DOPE   GL2 6984   7.531  12.153  14.365 -0.2051  0.2442 -0.0583
  596DOPE   C1A 6985   7.182  11.799  14.064  0.0285 -0.0003 -0.1788
  596DOPE   D2A 6986   7.169  11.555  13.666 -0.2702  0.1406 -0.2259
  596DOPE   C3A 6987   6.799  11.199  13.621  0.0270 -0.1730  0.4227
  596DOPE   C4A 6988   6.536  10.840  13.547  0.1566  0.0975  0.0515
  596DOPE   C1B 6989   7.506  12.148  13.898  0.0538 -0.0032 -0.1050
  596DOPE   D2B 6990   7.428  12.269  13.436  0.2797 -0.0134  0.1354
  596DOPE   C3B 6991   7.729  12.316  13.085  0.0970 -0.0827 -0.0724
  596DOPE   C4B 6992   8.155  12.246  12.995 -0.3332 -0.0820 -0.0843
  597DOPS   CNO 6993   5.456  11.646  15.447  0.1991  0.0004  0.1829
  597DOPS   PO4 6994   5.657  11.298  15.397  0.0149  0.2718  0.4414
  597DOPS   GL1 6995   5.568  11.137  15.067 -0.2447  0.1463  0.1530
  597DOPS   GL2 6996   5.500  11.304  14.861 -0.1695  0.1536  0.0361
  597DOPS   C1A 6997   5.693  10.788  14.730  0.2418  0.0833  0.1070
  597DOPS   D2A 6998   5.643  10.388  14.510 -0.0805 -0.3965 -0.1123
  597DOPS   C3A 6999   5.857  10.134  14.760 -0.3845  0.0199  0.2127
  597DOPS   C4A 7000   6.267   9.965  14.815 -0.0342 -0.0438 -0.0951
  597DOPS   C1B 7001   5.516  11.156  14.415 -0.1925 -0.4290  0.1273
  597DOPS   D2B 7002   5.611  11.040  13.969  0.2284 -0.0013 -0.1249
  597DOPS   C3B 7003   5.893  11.244  13.624 -0.0251 -0.0571  0.3736
  597DOPS   C4B 7004   6.311  11.298  13.498  0.2150 -0.1993 -0.1686
  598DOPS   CNO 7005   6.508  22.011  14.229  0.1883 -0.3528 -0.0965
  598DOPS   PO4 7006   6.630  22.090  13.857 -0.1627  0.1426  0.0418
  598DOPS   GL1 7007   6.418  22.096  13.572  0.2162  0.1729  0.1646
  598DOPS   GL2 7008   6.331  22.344  13.517  0.1311  0.1346  0.0654
  598DOPS   C1A 7009   6.372  22.025  13.085 -0.0447  0.0333  0.2599
  598DOPS   D2A 7010   6.316  21.939  12.627 -0.0365  0.0246  0.1074
  598DOPS   C3A 7011   6.192  22.141  12.251  0.0793  0.1039 -0.0831
  598DOPS   C4A 7012   6.331  22.272  11.843  0.1690  0.0516 -0.0418
  598DOPS   C1B 7013   6.542  22.494  13.195  0.1445 -0.2084  0.2272
  598DOPS   D2B 7014   6.752  22.645  12.821 -0.0959 -0.1906  0.1479
  598DOPS   C3B 7015   6.698  23.052  12.523 -0.1165  0.0448  0.3145
  598DOPS   C4B 7016   6.648  23.474  12.627 -0.0503 -0.0386  0.1163
  599DOPE   NH3 7017   9.661  12.239  14.358 -0.0236 -0.2497  0.0284
  599DOPE   PO4 7018   9.495  12.506  14.398  0.0081  0.1470 -0.0827
  599DOPE   GL1 7019   9.133  12.253  14.273  0.0948  0.1514 -0.1385
  599DOPE   GL2 7020   9.221  12.125  13.995  0.1928  0.1676  0.1615
  599DOPE   C1A 7021   8.746  12.286  14.048 -0.2093  0.4722  0.0108
  599DOPE   D2A 7022   8.603  12.443  13.694 -0.0301  0.3913 -0.0157
  599DOPE   C3A 7023   8.307  12.183  13.480  0.0094  0.0880 -0.0159
  599DOPE   C4A 7024   7.884  12.052  13.455  0.0340 -0.1141  0.2216
  599DOPE   C1B 7025   9.425  11.954  13.649 -0.1363  0.0442  0.5799
  599DOPE   D2B 7026   9.820  11.926  13.432 -0.1197 -0.0109  0.0379
  599DOPE   C3B 7027   9.996  11.514  13.495  0.0054  0.1462 -0.1896
  599DOPE   C4B 7028  10.122  11.101  13.379  0.1013  0.0674  0.0862
  600DOPC   NC3 7029   5.708  12.103  14.776  0.0451  0.0655 -0.3900
  600DOPC   PO4 7030   5.602  12.501  14.743  0.0365 -0.0946 -0.0238
  600DOPC   GL1 7031   5.576  12.479  14.392  0.0286 -0.1374  0.1725
  600DOPC   GL2 7032   5.363  12.595  14.322 -0.0892  0.2064  0.1018
  600DOPC   C1A 7033   5.541  12.431  13.873 -0.1304  0.0609 -0.0296
  600DOPC   D2A 7034   5.806  12.587  13.553  0.0937  0.1219  0.1982
  600DOPC   C3A 7035   5.801  12.406  13.128 -0.0069 -0.1409  0.2729
  600DOPC   C4A 7036   5.703  11.970  12.931  0.0065 -0.2544 -0.0994
  600DOPC   C1B 7037   5.422  12.897  13.996  0.0803 -0.0577 -0.0087
  600DOPC   D2B 7038   5.725  13.159  13.798  0.0458  0.1057  0.0236
  600DOPC   C3B 7039   5.719  13.014  13.349  0.0389 -0.0974  0.1008
  600DOPC   C4B 7040   5.586  12.919  12.900  0.2985 -0.1669  0.0651
  601DOPS   CNO 7041  11.677  19.050  12.703 -0.1580 -0.0177 -0.0794
  601DOPS   PO4 7042  11.313  19.118  12.628  0.0395  0.0692 -0.2732
  601DOPS   GL1 7043  11.362  19.158  12.218  0.1365  0.3235  0.2646
  601DOPS   GL2 7044  11.631  19.099  12.144  0.1994  0.0097 -0.1110
  601DOPS   C1A 7045  11.509  19.554  12.002  0.1246 -0.1685 -0.1798
  601DOPS   D2A 7046  11.770  19.916  11.887  0.3366 -0.0194 -0.3301
  601DOPS   C3A 7047  12.141  19.906  11.633 -0.0467  0.1040 -0.1156
  601DOPS   C4A 7048  12.415  19.540  11.497  0.3103 -0.6582  0.0737
  601DOPS   C1B 7049  11.453  19.053  11.706  0.3824 -0.3122 -0.0969
  601DOPS   D2B 7050  11.343  19.041  11.247 -0.0520  0.2362 -0.4546
  601DOPS   C3B 7051  11.215  19.407  10.954  0.0701 -0.1688 -0.5211
  601DOPS   C4B 7052  11.083  19.876  11.065  0.0098 -0.2039 -0.3854
  602DOPE   NH3 7053   4.226  21.768  13.783  0.0762 -0.4401 -0.0297
  602DOPE   PO4 7054   4.553  21.722  13.714 -0.3990  0.0248 -0.2900
  602DOPE   GL1 7055   4.619  21.856  13.322  0.0140  0.1663 -0.0119
  602DOPE   GL2 7056   4.361  21.661  13.253 -0.1746  0.4841 -0.0490
  602DOPE   C1A 7057   4.633  22.178  12.997 -0.0169 -0.1700  0.2064
  602DOPE   D2A 7058   4.667  22.342  12.605 -0.1843  0.1796 -0.1673
  602DOPE   C3A 7059   4.806  22.727  12.433 -0.3792  0.2300 -0.1449
  602DOPE   C4A 7060   4.804  23.067  12.159 -0.2426 -0.0819  0.1641
  602DOPE   C1B 7061   4.284  21.762  12.798  0.1327 -0.1628  0.0231
  602DOPE   D2B 7062   4.540  21.857  12.409 -0.1961 -0.2265 -0.1222
  602DOPE   C3B 7063   4.361  22.080  12.034  0.3013  0.2435  0.3954
  602DOPE   C4B 7064   3.901  22.216  11.923 -0.1427  0.3113  0.2248
  603DOPE   NH3 7065   8.433  19.457  13.281  0.1943 -0.1868 -0.2130
  603DOPE   PO4 7066   8.490  19.354  13.001 -0.0218 -0.0909  0.2665
  603DOPE   GL1 7067   8.190  19.302  12.703 -0.0677 -0.0308  0.1440
  603DOPE   GL2 7068   8.363  19.185  12.517 -0.0310 -0.0642  0.0943
  603DOPE   C1A 7069   7.752  19.170  12.620 -0.1428  0.2309 -0.0764
  603DOPE   D2A 7070   7.410  19.439  12.491  0.1636 -0.0027 -0.1545
  603DOPE   C3A 7071   7.577  19.643  12.147  0.0493 -0.1325  0.0751
  603DOPE   C4A 7072   7.765  19.611  11.746  0.4277  0.1358  0.2796
  603DOPE   C1B 7073   8.641  19.176  12.108  0.2156 -0.1670 -0.0111
  603DOPE   D2B 7074   8.658  18.923  11.757  0.3111 -0.1623 -0.1387
  603DOPE   C3B 7075   8.733  18.594  11.443 -0.0222 -0.0896 -0.1354
  603DOPE   C4B 7076   8.819  18.100  11.333  0.2161  0.0886  0.1898
  604DOPE   NH3 7077   5.323  15.325  13.856  0.2309 -0.1413 -0.2120
  604DOPE   PO4 7078   5.556  15.512  13.965  0.2522  0.1853  0.0048
  604DOPE   GL1 7079   5.695  15.524  13.539 -0.0382 -0.0584 -0.1332
  604DOPE   GL2 7080   5.677  15.268  13.466  0.2592  0.1175 -0.1210
  604DOPE   C1A 7081   5.903  15.646  13.153 -0.0723  0.0926  0.2930
  604DOPE   D2A 7082   5.816  15.714  12.673 -0.1714 -0.2962  0.1387
  604DOPE   C3A 7083   5.844  15.929  12.281  0.3269 -0.0763 -0.2869
  604DOPE   C4A 7084   5.835  16.234  11.963 -0.0820 -0.0980 -0.2020
  604DOPE   C1B 7085   6.000  15.115  13.152 -0.1416  0.1199 -0.0047
  604DOPE   D2B 7086   6.183  14.844  12.861 -0.1210 -0.2541  0.2398
  604DOPE   C3B 7087   6.425  14.494  12.692  0.4047 -0.4064 -0.3554
  604DOPE   C4B 7088   6.793  14.210  12.487  0.0851 -0.0134 -0.0677
  605DOPC   NC3 7089  12.844  20.784  12.958 -0.1022 -0.2422  0.0287
  605DOPC   PO4 7090  12.527  21.033  12.863  0.1887 -0.3211 -0.2076
  605DOPC   GL1 7091  12.327  21.325  12.609  0.2434  0.1124  0.1278
  605DOPC   GL2 7092  12.496  21.499  12.459 -0.0910  0.0100 -0.1273
  605DOPC   C1A 7093  12.040  21.629  12.556  0.0546 -0.0448  0.1203
  605DOPC   D2A 7094  12.018  22.033  12.319  0.3995  0.1180 -0.1625
  605DOPC   C3A 7095  12.280  22.348  12.112 -0.1014  0.2883  0.1203
  605DOPC   C4A 7096  12.442  22.774  12.185 -0.4952  0.0079 -0.4537
  605DOPC   C1B 7097  12.395  21.309  12.053  0.0793  0.2200 -0.2752
  605DOPC   D2B 7098  12.305  20.846  11.864  0.1198 -0.0717 -0.0742
  605DOPC   C3B 7099  11.890  20.792  11.627  0.0721 -0.0769  0.4321
  605DOPC   C4B 7100  11.587  20.770  11.293 -0.3448  0.2580  0.3002
  606POSM   NC3 7101   2.728  20.610  13.552  0.2093  0.0979  0.0162
  606POSM   PO4 7102   2.647  20.818  13.872 -0.0085 -0.1594 -0.1218
  606POSM   AM1 7103   2.475  21.006  13.683 -0.1767 -0.0912 -0.0494
  606POSM   AM2 7104   2.200  20.931  13.533  0.2279 -0.0390  0.1240
  606POSM   T1A 7105   2.458  21.245  13.226 -0.3410 -0.2475  0.2417
  606POSM   C2A 7106   2.383  21.499  12.840 -0.0322  0.1588  0.0098
  606POSM   C3A 7107   2.189  21.823  12.607 -0.0645  0.0431 -0.1318
  606POSM   C1B 7108   2.271  20.797  13.206  0.0948  0.1727 -0.0632
  606POSM   D2B 7109   2.519  20.920  12.747 -0.1654 -0.1423  0.1750
  606POSM   C3B 7110   2.933  21.104  12.652  0.0467 -0.2234 -0.1149
  606POSM   C4B 7111   3.350  21.165  12.431  0.0866  0.1134 -0.0415
  607POSM   NC3 7112  34.090  21.320  14.437  0.0885  0.1167  0.0357
  607POSM   PO4 7113  33.994  21.568  14.146 -0.1042  0.3095 -0.1668
  607POSM   AM1 7114  33.972  21.547  13.805  0.0041 -0.1307 -0.6487
  607POSM   AM2 7115  34.001  21.747  13.605  0.0273 -0.4713 -0.0954
  607POSM   T1A 7116  34.107  21.282  13.397  0.0029  0.0256  0.0537
  607POSM   C2A 7117  34.331  21.303  13.005 -0.2951 -0.1649  0.1291
  607POSM   C3A 7118  34.419  21.397  12.533 -0.1794 -0.0648  0.0687
  607POSM   C1B 7119  34.186  21.808  13.313  0.3328 -0.3275 -0.0878
  607POSM   D2B 7120  34.393  22.093  12.976  0.1824  0.1324  0.0426
  607POSM   C3B 7121  34.534  22.088  12.464  0.2453  0.3876  0.0491
  607POSM   C4B 7122  34.468  22.138  12.035  0.3585  0.2811  0.0778
  608DOPC   NC3 7123   4.713  14.584  14.034  0.1042  0.1334 -0.2695
  608DOPC   PO4 7124   4.470  14.867  14.185 -0.0517  0.1224  0.4077
  608DOPC   GL1 7125   4.393  14.845  13.789  0.1456 -0.2656  0.1262
  608DOPC   GL2 7126   4.530  15.004  13.707  0.1524 -0.0729 -0.4153
  608DOPC   C1A 7127   4.605  14.531  13.521 -0.0723 -0.1420  0.0336
  608DOPC   D2A 7128   4.814  14.210  13.251 -0.1417  0.1570  0.0356
  608DOPC   C3A 7129   5.078  14.141  12.839  0.2468  0.0202 -0.0147
  608DOPC   C4A 7130   5.097  13.862  12.411 -0.0823 -0.0982  0.1191
  608DOPC   C1B 7131   4.872  14.947  13.414  0.2226 -0.0068  0.0023
  608DOPC   D2B 7132   5.248  15.180  13.240  0.0889 -0.1157 -0.1955
  608DOPC   C3B 7133   5.116  15.127  12.777 -0.2728 -0.1661 -0.0151
  608DOPC   C4B 7134   5.108  15.164  12.304 -0.0161  0.2134 -0.1603
  609DOPC   NC3 7135   7.307  16.994  13.341  0.2723  0.0376 -0.1990
  609DOPC   PO4 7136   7.051  17.307  13.443  0.0007  0.1628 -0.2221
  609DOPC   GL1 7137   6.972  17.334  13.075 -0.1431 -0.3362 -0.1250
  609DOPC   GL2 7138   6.956  17.037  12.988 -0.2430  0.2242 -0.0849
  609DOPC   C1A 7139   6.887  17.671  12.745 -0.0633  0.0649  0.0496
  609DOPC   D2A 7140   6.869  17.970  12.348  0.0290 -0.2146 -0.1903
  609DOPC   C3A 7141   6.592  18.058  11.949 -0.1921 -0.4077 -0.2474
  609DOPC   C4A 7142   6.431  18.156  11.582  0.1215 -0.0503 -0.0958
  609DOPC   C1B 7143   6.548  16.969  13.184 -0.1082 -0.0886  0.2393
  609DOPC   D2B 7144   6.214  16.593  13.202 -0.0658  0.0712  0.3404
  609DOPC   C3B 7145   6.271  16.286  12.863 -0.2471 -0.4747 -0.1147
  609DOPC   C4B 7146   6.398  16.076  12.489  0.0156  0.1670  0.0505
  610DOPS   CNO 7147   3.448  21.438  14.261 -0.0622 -0.5178 -0.3471
  610DOPS   PO4 7148   3.567  21.657  13.976 -0.1468 -0.3570  0.0179
  610DOPS   GL1 7149   3.363  21.750  13.634 -0.0325 -0.1296  0.1258
  610DOPS   GL2 7150   3.406  21.499  13.521  0.1584  0.0067 -0.0083
  610DOPS   C1A 7151   3.490  21.900  13.278 -0.0811 -0.0883 -0.3705
  610DOPS   D2A 7152   3.665  22.009  12.856 -0.1177  0.1148  0.1752
  610DOPS   C3A 7153   3.843  21.751  12.513 -0.4494 -0.1198 -0.0318
  610DOPS   C4A 7154   4.112  21.628  12.142 -0.1164 -0.0532  0.0825
  610DOPS   C1B 7155   3.610  21.181  13.239  0.4030  0.1281 -0.1908
  610DOPS   D2B 7156   3.885  20.878  12.982  0.5452  0.1685 -0.2304
  610DOPS   C3B 7157   4.250  20.801  12.642 -0.3641 -0.2048  0.0133
  610DOPS   C4B 7158   4.414  20.817  12.146 -0.0526 -0.1654 -0.0283
  611DOPE   NH3 7159   5.091  11.857  15.032  0.1256 -0.0132 -0.1473
  611DOPE   PO4 7160   5.365  11.770  14.899  0.0540 -0.4665 -0.0835
  611DOPE   GL1 7161   5.399  11.594  14.509  0.0042 -0.1150 -0.1889
  611DOPE   GL2 7162   5.711  11.680  14.511  0.0330 -0.1842  0.0677
  611DOPE   C1A 7163   5.413  11.616  14.054 -0.0194  0.2630 -0.2925
  611DOPE   D2A 7164   5.534  11.523  13.627 -0.0015 -0.1384  0.1017
  611DOPE   C3A 7165   5.886  11.731  13.389 -0.0440 -0.3402  0.1330
  611DOPE   C4A 7166   6.311  11.868  13.213 -0.0761 -0.2209 -0.1142
  611DOPE   C1B 7167   5.552  12.022  14.185 -0.0671  0.1106 -0.0837
  611DOPE   D2B 7168   5.704  11.990  13.792  0.1776 -0.1418 -0.1326
  611DOPE   C3B 7169   5.490  12.070  13.393  0.1340  0.1774  0.3397
  611DOPE   C4B 7170   5.044  12.038  13.228  0.0019  0.0122 -0.1640
  612DOPS   CNO 7171   8.075  16.820  13.408  0.1949  0.4259  0.1920
  612DOPS   PO4 7172   7.799  17.042  13.249 -0.0693  0.1556 -0.0201
  612DOPS   GL1 7173   7.639  17.028  12.804 -0.0482  0.2299 -0.1095
  612DOPS   GL2 7174   7.475  16.852  12.885 -0.1641  0.4186  0.1339
  612DOPS   C1A 7175   7.363  17.196  12.534  0.1501  0.0673  0.0983
  612DOPS   D2A 7176   7.301  16.995  12.150  0.0193  0.0571 -0.0456
  612DOPS   C3A 7177   6.953  16.795  11.977 -0.0680 -0.3613 -0.1057
  612DOPS   C4A 7178   6.595  16.988  11.862  0.1192 -0.0021 -0.1751
  612DOPS   C1B 7179   7.632  16.622  12.507  0.2339  0.5196 -0.0921
  612DOPS   D2B 7180   7.685  16.623  12.073 -0.0128 -0.0512 -0.2831
  612DOPS   C3B 7181   7.818  16.271  11.801  0.2217 -0.2369 -0.0330
  612DOPS   C4B 7182   7.697  15.926  11.518  0.0223  0.2376 -0.1712
  613DOPE   NH3 7183   9.891  12.216  10.215  0.2565  0.2377  0.1682
  613DOPE   PO4 7184   9.999  12.454  10.318  0.1210  0.2420 -0.0919
  613DOPE   GL1 7185   9.828  12.755  10.645  0.0578  0.0893 -0.3480
  613DOPE   GL2 7186   9.646  12.612  10.773  0.0463 -0.0207  0.1066
  613DOPE   C1A 7187  10.048  13.029  10.968 -0.3754 -0.0037  0.0050
  613DOPE   D2A 7188   9.957  13.428  11.098  0.1724 -0.1718  0.2155
  613DOPE   C3A 7189  10.194  13.717  11.378  0.2705  0.2172 -0.1045
  613DOPE   C4A 7190  10.345  14.005  11.722 -0.1439 -0.1469  0.2076
  613DOPE   C1B 7191   9.260  12.722  11.070  0.3143 -0.0288  0.0307
  613DOPE   D2B 7192   8.910  12.620  11.347  0.2179 -0.1845  0.0508
  613DOPE   C3B 7193   8.805  12.913  11.593  0.1423 -0.0192 -0.0804
  613DOPE   C4B 7194   9.001  13.279  11.808  0.1538  0.0456  0.2929
  614DOPS   CNO 7195   0.615  14.440   9.889  0.1182  0.1042  0.0346
  614DOPS   PO4 7196   0.738  14.441  10.238 -0.1754  0.1306 -0.0232
  614DOPS   GL1 7197   0.744  14.544  10.617 -0.1194 -0.3257  0.1777
  614DOPS   GL2 7198   0.558  14.691  10.758  0.1341  0.3178 -0.1816
  614DOPS   C1A 7199   0.878  14.292  10.985 -0.2459  0.0765 -0.4821
  614DOPS   D2A 7200   1.114  14.306  11.371 -0.1100 -0.0238 -0.0591
  614DOPS   C3A 7201   0.972  14.413  11.791 -0.0122  0.1671  0.2962
  614DOPS   C4A 7202   0.862  14.394  12.266 -0.1582 -0.4369 -0.1010
  614DOPS   C1B 7203   0.555  14.633  11.186  0.1503 -0.1728  0.3262
  614DOPS   D2B 7204   0.448  14.486  11.606 -0.0839  0.0772 -0.2320
  614DOPS   C3B 7205   0.044  14.587  11.850  0.0384 -0.3823 -0.0920
  614DOPS   C4B 7206  -0.085  14.771  12.243  0.0099  0.0695  0.1599
  615DOPE   NH3 7207   7.284  14.121  10.144  0.1630 -0.0386  0.0385
  615DOPE   PO4 7208   7.499  13.950  10.337  0.4327 -0.1198 -0.1072
  615DOPE   GL1 7209   7.226  14.114  10.624  0.0855  0.2919 -0.1767
  615DOPE   GL2 7210   7.398  14.271  10.822 -0.1443 -0.1715 -0.2357
  615DOPE   C1A 7211   7.135  13.904  11.076  0.0615 -0.0155  0.0664
  615DOPE   D2A 7212   7.295  13.864  11.484 -0.0055  0.2108 -0.0229
  615DOPE   C3A 7213   7.362  13.914  11.927  0.2518 -0.0142  0.2848
  615DOPE   C4A 7214   7.780  13.810  12.092  0.4223  0.0957 -0.1578
  615DOPE   C1B 7215   7.292  14.320  11.287 -0.1894  0.2287 -0.0007
  615DOPE   D2B 7216   7.244  14.414  11.745  0.0054 -0.1541  0.0089
  615DOPE   C3B 7217   7.507  14.712  11.936  0.2556  0.1067  0.0127
  615DOPE   C4B 7218   7.722  15.059  12.164 -0.1676 -0.1864 -0.1270
  616DOPE   NH3 7219   9.514  13.823  10.266 -0.4083 -0.0070  0.1446
  616DOPE   PO4 7220   9.218  13.975  10.286  0.4895  0.0103 -0.0568
  616DOPE   GL1 7221   9.357  14.171  10.660 -0.1579 -0.0068  0.0261
  616DOPE   GL2 7222   9.652  14.084  10.681  0.0254  0.1726 -0.1821
  616DOPE   C1A 7223   9.232  14.160  11.118  0.1050  0.2487  0.0011
  616DOPE   D2A 7224   9.267  14.098  11.556  0.4225 -0.0318 -0.2210
  616DOPE   C3A 7225   9.034  14.067  11.950 -0.1055  0.0544 -0.0278
  616DOPE   C4A 7226   8.697  13.889  12.189  0.0672  0.1172  0.0527
  616DOPE   C1B 7227  10.026  14.358  10.611  0.0916 -0.0097  0.3203
  616DOPE   D2B 7228  10.454  14.420  10.430 -0.1775  0.1287  0.2036
  616DOPE   C3B 7229  10.721  14.690  10.696  0.4988 -0.1489 -0.0155
  616DOPE   C4B 7230  10.651  14.807  11.108 -0.2215  0.3144  0.2029
  617DOPC   NC3 7231   7.915  13.806  10.559  0.0306 -0.0015 -0.2252
  617DOPC   PO4 7232   8.248  13.599  10.451  0.1617 -0.2131 -0.0915
  617DOPC   GL1 7233   8.330  13.549  10.793 -0.0976 -0.0066 -0.3338
  617DOPC   GL2 7234   8.334  13.831  10.985  0.1376  0.0956 -0.1008
  617DOPC   C1A 7235   8.759  13.512  10.962 -0.2278  0.0436 -0.2692
  617DOPC   D2A 7236   8.883  13.804  11.348 -0.0093 -0.1605  0.0680
  617DOPC   C3A 7237   8.642  13.918  11.705  0.3779  0.0590 -0.0570
  617DOPC   C4A 7238   8.271  13.827  11.844 -0.1455  0.2509  0.0570
  617DOPC   C1B 7239   8.143  14.040  11.368 -0.5408 -0.0896  0.0784
  617DOPC   D2B 7240   7.734  14.162  11.665  0.1632 -0.3297  0.2914
  617DOPC   C3B 7241   7.631  14.296  12.142  0.3340  0.0553 -0.1071
  617DOPC   C4B 7242   7.739  14.092  12.547 -0.2472  0.2776 -0.2476
  618DOPC   NC3 7243   3.282  18.805  10.223 -0.0122  0.0905 -0.0485
  618DOPC   PO4 7244   3.083  19.168  10.178  0.1805  0.1424 -0.3211
  618DOPC   GL1 7245   2.948  19.006  10.577 -0.1808 -0.2490  0.1776
  618DOPC   GL2 7246   3.273  19.043  10.700  0.2315 -0.2096  0.1902
  618DOPC   C1A 7247   3.080  18.585  10.741  0.2113  0.1774  0.2237
  618DOPC   D2A 7248   3.341  18.489  11.151  0.4882  0.0744 -0.1394
  618DOPC   C3A 7249   3.235  18.226  11.535 -0.1408 -0.2424  0.0921
  618DOPC   C4A 7250   3.408  18.028  11.940 -0.0405 -0.0774  0.4595
  618DOPC   C1B 7251   3.113  19.119  11.158 -0.1138  0.0355  0.0070
  618DOPC   D2B 7252   3.392  18.901  11.483  0.1090 -0.3400 -0.0810
  618DOPC   C3B 7253   3.201  18.845  11.866  0.1588  0.0410  0.0803
  618DOPC   C4B 7254   3.172  18.746  12.296 -0.0850 -0.2719  0.1496
  619DOPE   NH3 7255   1.441  20.812  10.186 -0.1756 -0.0538 -0.1337
  619DOPE   PO4 7256   1.313  21.095  10.087  0.1120  0.1789  0.1205
  619DOPE   GL1 7257   0.921  20.986  10.259  0.7089 -0.1608 -0.3087
  619DOPE   GL2 7258   1.104  20.946  10.545  0.4613 -0.1565  0.3726
  619DOPE   C1A 7259   0.595  21.179  10.486 -0.0607 -0.2102  0.0386
  619DOPE   D2A 7260   0.440  21.057  10.925  0.1058  0.0315 -0.3060
  619DOPE   C3A 7261   0.442  20.646  11.089  0.0727 -0.2232  0.0010
  619DOPE   C4A 7262   0.566  20.596  11.519  0.1634 -0.0944  0.0086
  619DOPE   C1B 7263   0.966  21.258  10.900  0.1019 -0.0090 -0.0504
  619DOPE   D2B 7264   1.143  21.441  11.301  0.0057  0.2085  0.0240
  619DOPE   C3B 7265   1.154  21.234  11.719 -0.1200  0.0439  0.1307
  619DOPE   C4B 7266   1.279  20.988  12.077 -0.2510  0.0061 -0.1170
  620DOPE   NH3 7267  12.912  21.536   9.190  0.1223 -0.1382  0.1471
  620DOPE   PO4 7268  13.096  21.775   9.210  0.0347 -0.1077  0.2017
  620DOPE   GL1 7269  13.208  21.738   9.541  0.2921  0.1095 -0.3546
  620DOPE   GL2 7270  13.088  21.506   9.685 -0.2091 -0.1037 -0.0117
  620DOPE   C1A 7271  13.582  21.659   9.773 -0.0992  0.1196 -0.0574
  620DOPE   D2A 7272  13.681  21.300  10.017  0.0287  0.0578 -0.2159
  620DOPE   C3A 7273  13.327  21.372  10.307 -0.1523  0.1261  0.0795
  620DOPE   C4A 7274  13.000  21.747  10.330  0.1403  0.2600 -0.1158
  620DOPE   C1B 7275  12.884  21.334  10.042  0.1830 -0.2417 -0.0330
  620DOPE   D2B 7276  12.835  21.275  10.481 -0.3268  0.0459 -0.3568
  620DOPE   C3B 7277  12.903  21.088  10.879  0.3694 -0.2860  0.0321
  620DOPE   C4B 7278  12.834  21.290  11.306  0.0946  0.0194  0.0479
  621DOPE   NH3 7279   5.055  16.264   9.921  0.0019 -0.2053  0.2763
  621DOPE   PO4 7280   5.235  16.492  10.025  0.0354  0.3381  0.2089
  621DOPE   GL1 7281   5.373  16.478  10.372  0.5727 -0.0004 -0.5187
  621DOPE   GL2 7282   5.635  16.497  10.439  0.2661  0.0942 -0.1611
  621DOPE   C1A 7283   5.340  16.170  10.755 -0.2665 -0.0902 -0.1159
  621DOPE   D2A 7284   5.376  16.120  11.185  0.1563  0.0300  0.1130
  621DOPE   C3A 7285   5.609  16.012  11.574  0.0484 -0.0420 -0.1417
  621DOPE   C4A 7286   5.816  15.619  11.813  0.0199  0.1074  0.3214
  621DOPE   C1B 7287   5.781  16.517  10.823  0.0788 -0.0999 -0.1410
  621DOPE   D2B 7288   6.188  16.637  11.042  0.0063  0.1164 -0.0896
  621DOPE   C3B 7289   6.536  16.424  11.260  0.3076 -0.0388 -0.2976
  621DOPE   C4B 7290   6.878  16.439  11.520 -0.0271  0.2297  0.3468
  622POSM   NC3 7291   1.703  22.428  10.341 -0.3502  0.0119  0.2155
  622POSM   PO4 7292   2.045  22.618  10.426  0.1322  0.2442  0.3231
  622POSM   AM1 7293   2.000  22.516  10.757  0.0794 -0.1710  0.1215
  622POSM   AM2 7294   2.119  22.384  10.952 -0.1711  0.0482 -0.1174
  622POSM   T1A 7295   1.658  22.445  11.097  0.1381  0.1237 -0.2483
  622POSM   C2A 7296   1.423  22.253  11.426  0.0935 -0.0645 -0.3440
  622POSM   C3A 7297   1.245  21.924  11.652  0.0493 -0.0189  0.0581
  622POSM   C1B 7298   2.120  22.425  11.263 -0.2471  0.1742  0.0285
  622POSM   D2B 7299   1.869  22.461  11.609  0.0644 -0.0683  0.0737
  622POSM   C3B 7300   1.604  22.756  11.824  0.2989  0.1225  0.2311
  622POSM   C4B 7301   1.232  22.804  12.120  0.1868 -0.1418  0.0026
  623DOPE   NH3 7302   3.936  18.411   9.455  0.0919  0.1559  0.0438
  623DOPE   PO4 7303   4.098  18.404   9.729  0.0583 -0.2172  0.6581
  623DOPE   GL1 7304   4.283  18.159   9.982  0.0867  0.2037  0.0410
  623DOPE   GL2 7305   3.990  18.010  10.069 -0.4899 -0.0006 -0.1360
  623DOPE   C1A 7306   4.553  18.313  10.329 -0.0554  0.0229  0.0957
  623DOPE   D2A 7307   4.685  18.437  10.743  0.1047  0.2544 -0.1175
  623DOPE   C3A 7308   4.700  18.143  11.113  0.1077  0.3298  0.1229
  623DOPE   C4A 7309   4.513  17.931  11.510  0.1017  0.1497 -0.2165
  623DOPE   C1B 7310   4.043  18.063  10.497 -0.0371  0.0807  0.0185
  623DOPE   D2B 7311   4.328  18.132  10.842  0.1895 -0.1880 -0.0739
  623DOPE   C3B 7312   4.406  17.718  11.066  0.1168 -0.1747  0.0477
  623DOPE   C4B 7313   4.219  17.301  11.003  0.0779  0.1796  0.1346
  624POSM   NC3 7314   8.596  19.543   9.281 -0.0781  0.2013  0.0043
  624POSM   PO4 7315   8.431  19.206   9.360  0.1476  0.0121 -0.2123
  624POSM   AM1 7316   8.628  19.169   9.597  0.1185  0.3484 -0.1461
  624POSM   AM2 7317   8.758  19.365   9.760  0.2291 -0.1907 -0.0174
  624POSM   T1A 7318   8.892  18.959   9.999  0.2646 -0.0930  0.0424
  624POSM   C2A 7319   9.003  18.874  10.375 -0.0393 -0.0514 -0.0225
  624POSM   C3A 7320   9.281  18.665  10.689 -0.4860  0.2915 -0.3469
  624POSM   C1B 7321   8.818  19.448  10.096  0.0746 -0.0794 -0.4329
  624POSM   D2B 7322   8.557  19.683  10.374  0.1216  0.1029  0.0764
  624POSM   C3B 7323   8.715  19.599  10.803 -0.2040  0.0122 -0.3430
  624POSM   C4B 7324   8.827  19.669  11.248 -0.1002  0.3939  0.0534
  625POSM   NC3 7325   0.452  13.862  10.027 -0.1217  0.1923 -0.0742
  625POSM   PO4 7326   0.146  13.757  10.231  0.0944  0.3853 -0.1092
  625POSM   AM1 7327   0.074  13.663  10.520  0.0254  0.3728  0.0800
  625POSM   AM2 7328  -0.032  13.427  10.693  0.0427 -0.0072  0.1172
  625POSM   T1A 7329   0.256  13.701  10.961  0.1559 -0.0163 -0.1546
  625POSM   C2A 7330   0.531  13.598  11.377 -0.0784 -0.0572 -0.0628
  625POSM   C3A 7331   0.872  13.731  11.681  0.2156 -0.3261  0.1480
  625POSM   C1B 7332  -0.191  13.377  10.989 -0.5484  0.0064 -0.2239
  625POSM   D2B 7333  -0.274  13.126  11.375 -0.2765 -0.1096 -0.0047
  625POSM   C3B 7334  -0.432  13.315  11.741 -0.2367 -0.3547  0.1261
  625POSM   C4B 7335  -0.758  13.527  11.939 -0.0111  0.1713 -0.0739
  626DOPC   NC3 7336   8.336  20.299   9.783 -0.0703  0.0759 -0.0750
  626DOPC   PO4 7337   8.033  20.108   9.636 -0.0288  0.0933  0.4439
  626DOPC   GL1 7338   8.025  20.021  10.033  0.0679 -0.0410  0.2077
  626DOPC   GL2 7339   8.221  19.904  10.153 -0.0529  0.0154 -0.0149
  626DOPC   C1A 7340   8.007  20.266  10.444 -0.1176  0.0371  0.0490
  626DOPC   D2A 7341   7.952  20.387  10.870 -0.4009  0.0068 -0.1183
  626DOPC   C3A 7342   7.508  20.468  11.023 -0.2614 -0.1682 -0.2212
  626DOPC   C4A 7343   7.367  20.481  11.454 -0.2324  0.2682  0.0682
  626DOPC   C1B 7344   8.114  19.669  10.584  0.5424 -0.1758  0.3105
  626DOPC   D2B 7345   7.883  19.543  10.933  0.2987  0.2731 -0.1700
  626DOPC   C3B 7346   7.875  19.108  11.047 -0.1151 -0.0139  0.0176
  626DOPC   C4B 7347   7.723  18.696  11.234 -0.0875  0.1393  0.4031
  627DOPC   NC3 7348   9.703  18.806   9.549  0.1640  0.0478  0.1793
  627DOPC   PO4 7349   9.854  19.095   9.306 -0.0771  0.0712  0.3638
  627DOPC   GL1 7350  10.107  19.209   9.624 -0.0596 -0.1485 -0.0810
  627DOPC   GL2 7351  10.245  18.968   9.737 -0.1766  0.0969  0.0072
  627DOPC   C1A 7352  10.179  19.560   9.941  0.0474 -0.1073 -0.0573
  627DOPC   D2A 7353  10.080  19.806  10.346  0.0872 -0.0240  0.2103
  627DOPC   C3A 7354   9.821  19.924  10.636  0.0398 -0.1438 -0.0038
  627DOPC   C4A 7355   9.817  20.339  10.912 -0.2609 -0.2659 -0.1826
  627DOPC   C1B 7356   9.955  18.919  10.066 -0.0103  0.0238  0.0429
  627DOPC   D2B 7357   9.478  18.926  10.113 -0.4601 -0.4216 -0.0494
  627DOPC   C3B 7358   9.479  19.103  10.552 -0.0365 -0.4031 -0.2724
  627DOPC   C4B 7359   9.629  19.449  10.840 -0.0754 -0.0548  0.2467
  628DOPC   NC3 7360   4.165  15.444  10.570 -0.2552  0.0914 -0.3167
  628DOPC   PO4 7361   3.943  15.534  10.277  0.3285 -0.0284  0.0794
  628DOPC   GL1 7362   3.848  15.836  10.473  0.3485  0.2407  0.2223
  628DOPC   GL2 7363   4.054  15.928  10.611 -0.0639 -0.3696 -0.0407
  628DOPC   C1A 7364   3.511  16.088  10.643 -0.2589 -0.4065  0.1279
  628DOPC   D2A 7365   3.237  16.487  10.711 -0.2896 -0.1200 -0.3576
  628DOPC   C3A 7366   2.974  16.403  11.097  0.0801  0.1804 -0.3729
  628DOPC   C4A 7367   2.847  16.478  11.501  0.0097  0.0611  0.0175
  628DOPC   C1B 7368   3.966  16.336  10.897 -0.1155 -0.2674 -0.0585
  628DOPC   D2B 7369   3.523  16.341  11.091 -0.0969  0.2392  0.0755
  628DOPC   C3B 7370   3.293  15.994  11.051  0.2634  0.0751 -0.4807
  628DOPC   C4B 7371   3.241  15.708  10.703  0.0130  0.0168 -0.0779
  629DOPE   NH3 7372   5.315  12.133  11.528  0.1094  0.1778  0.2957
  629DOPE   PO4 7373   5.116  11.952  11.327  0.1916  0.2629 -0.0949
  629DOPE   GL1 7374   5.196  11.641  11.670 -0.4953  0.3692 -0.1435
  629DOPE   GL2 7375   5.467  11.598  11.599 -0.2149 -0.1520 -0.1193
  629DOPE   C1A 7376   5.313  11.697  12.086  0.1129  0.2204  0.3627
  629DOPE   D2A 7377   5.618  11.909  12.374 -0.1153 -0.2536 -0.1460
  629DOPE   C3A 7378   5.571  12.365  12.488  0.1918 -0.0733  0.0942
  629DOPE   C4A 7379   5.477  12.793  12.472 -0.3702  0.0766  0.0973
  629DOPE   C1B 7380   5.679  11.909  11.851  0.2437 -0.1018  0.2749
  629DOPE   D2B 7381   5.687  12.379  11.696  0.1691 -0.0031 -0.2308
  629DOPE   C3B 7382   5.932  12.735  11.707 -0.2903  0.0157  0.0936
  629DOPE   C4B 7383   6.140  13.095  11.472  0.0855 -0.0738 -0.1663
  630POSM   NC3 7384   5.290  10.780  11.265 -0.3961 -0.0315 -0.1794
  630POSM   PO4 7385   5.253  11.124  11.456 -0.2451  0.1634  0.3628
  630POSM   AM1 7386   5.345  11.087  11.801 -0.1148  0.0231  0.3273
  630POSM   AM2 7387   5.494  10.837  11.866  0.1347  0.0999 -0.2289
  630POSM   T1A 7388   5.258  10.980  12.294 -0.3368  0.1057 -0.1530
  630POSM   C2A 7389   5.396  10.695  12.656 -0.1861 -0.3742 -0.0249
  630POSM   C3A 7390   5.745  10.684  12.944  0.0722 -0.1297  0.1602
  630POSM   C1B 7391   5.667  10.818  12.084  0.2832 -0.0075  0.0022
  630POSM   D2B 7392   5.789  10.974  12.520 -0.0543 -0.1181  0.1454
  630POSM   C3B 7393   6.144  11.059  12.784 -0.0805  0.0810  0.1926
  630POSM   C4B 7394   6.123  10.952  13.256 -0.2382 -0.0526 -0.0409
  631DOPE   NH3 7395   1.154  21.865   9.921 -0.2147 -0.0583  0.1065
  631DOPE   PO4 7396   0.865  21.886   9.890  0.2054 -0.1950  0.0618
  631DOPE   GL1 7397   0.827  21.682  10.270  0.0801 -0.0360 -0.0372
  631DOPE   GL2 7398   1.030  21.534  10.321 -0.1079  0.0208  0.1451
  631DOPE   C1A 7399   0.608  21.619  10.686  0.0731 -0.0644 -0.0786
  631DOPE   D2A 7400   0.640  21.562  11.135  0.2737  0.2455 -0.1367
  631DOPE   C3A 7401   0.340  21.813  11.433  0.1023 -0.0336 -0.1468
  631DOPE   C4A 7402   0.204  21.717  11.889  0.0400 -0.1997  0.0047
  631DOPE   C1B 7403   1.236  21.715  10.711 -0.2487 -0.1854  0.1213
  631DOPE   D2B 7404   1.148  21.954  11.096  0.2312  0.0229  0.2296
  631DOPE   C3B 7405   0.989  22.368  11.080  0.2860 -0.0140 -0.2009
  631DOPE   C4B 7406   1.236  22.749  10.973 -0.0614  0.1863  0.1687
  632DOPC   NC3 7407   7.951  10.921  11.556 -0.1687  0.2697 -0.1483
  632DOPC   PO4 7408   8.191  10.625  11.450 -0.0927  0.0985  0.2394
  632DOPC   GL1 7409   8.279  10.640  11.847 -0.1020  0.0394  0.3398
  632DOPC   GL2 7410   7.995  10.582  11.926  0.2228 -0.0314 -0.2964
  632DOPC   C1A 7411   8.577  10.882  12.099  0.1620 -0.2534 -0.0434
  632DOPC   D2A 7412   8.557  11.140  12.461 -0.0329  0.0218 -0.1417
  632DOPC   C3A 7413   8.693  10.863  12.794  0.1808 -0.3006  0.0908
  632DOPC   C4A 7414   8.879  10.956  13.161 -0.2625 -0.2905 -0.1586
  632DOPC   C1B 7415   8.130  10.804  12.331 -0.0999 -0.2594 -0.0636
  632DOPC   D2B 7416   8.248  10.768  12.824 -0.1748  0.0192 -0.1021
  632DOPC   C3B 7417   8.178  10.938  13.254 -0.4349  0.2062  0.0391
  632DOPC   C4B 7418   8.014  11.224  13.584  0.1359  0.4899 -0.3548
  633POSM   NC3 7419   6.193  11.449  10.902  0.2019  0.2592  0.0494
  633POSM   PO4 7420   6.100  11.524  11.269  0.0075  0.2409 -0.0605
  633POSM   AM1 7421   6.174  11.668  11.533 -0.0514  0.0127  0.1027
  633POSM   AM2 7422   6.167  11.957  11.625 -0.1244  0.1590 -0.0382
  633POSM   T1A 7423   6.058  11.643  12.050  0.0329 -0.1062  0.4264
  633POSM   C2A 7424   6.194  11.919  12.382 -0.2265  0.1038 -0.0032
  633POSM   C3A 7425   6.035  12.184  12.669  0.2220  0.1908 -0.0714
  633POSM   C1B 7426   6.119  12.159  11.922  0.3545  0.0814  0.2194
  633POSM   D2B 7427   6.018  12.502  12.194 -0.1903  0.4900 -0.1821
  633POSM   C3B 7428   6.017  12.837  12.479 -0.0493  0.1245  0.0535
  633POSM   C4B 7429   6.062  12.817  12.961  0.0019 -0.0888 -0.0241
  634DOPE   NH3 7430   6.581  17.496   9.861 -0.2148 -0.0207  0.0564
  634DOPE   PO4 7431   6.840  17.724   9.772 -0.2726 -0.0107  0.1412
  634DOPE   GL1 7432   7.051  17.918  10.163 -0.1384 -0.2109 -0.2484
  634DOPE   GL2 7433   7.273  17.984  10.228 -0.3205 -0.3087 -0.1762
  634DOPE   C1A 7434   6.908  17.976  10.598  0.4632 -0.0504 -0.2280
  634DOPE   D2A 7435   7.046  17.933  11.045  0.1979  0.0905  0.1770
  634DOPE   C3A 7436   6.991  18.231  11.394  0.0827 -0.0448  0.2023
  634DOPE   C4A 7437   7.199  18.473  11.712 -0.2060  0.1271  0.1757
  634DOPE   C1B 7438   7.308  17.664  10.570 -0.1048 -0.2884  0.0799
  634DOPE   D2B 7439   7.388  17.214  10.663 -0.0039 -0.1006  0.2381
  634DOPE   C3B 7440   7.118  16.999  11.035  0.1212 -0.0886 -0.2016
  634DOPE   C4B 7441   6.820  16.892  11.434 -0.0899 -0.1222  0.2349
  635DOPE   NH3 7442   0.749  16.807  10.176  0.1458  0.0494  0.2427
  635DOPE   PO4 7443   1.049  16.892  10.042 -0.1184  0.1633  0.0646
  635DOPE   GL1 7444   1.102  16.782  10.442  0.4812 -0.2455 -0.2833
  635DOPE   GL2 7445   1.272  16.904  10.513 -0.1376 -0.1916 -0.0439
  635DOPE   C1A 7446   0.753  16.656  10.765 -0.0456  0.1870  0.1013
  635DOPE   D2A 7447   0.329  16.659  10.905 -0.0145 -0.2941 -0.2157
  635DOPE   C3A 7448   0.104  16.382  11.174 -0.0927 -0.0436 -0.2128
  635DOPE   C4A 7449  -0.239  16.066  11.071  0.2190 -0.3388  0.2069
  635DOPE   C1B 7450   1.432  16.907  10.954  0.2337  0.1676  0.0488
  635DOPE   D2B 7451   1.544  16.914  11.370 -0.2593 -0.1463 -0.0415
  635DOPE   C3B 7452   1.245  16.725  11.689  0.1068 -0.1182  0.0142
  635DOPE   C4B 7453   0.992  16.718  12.124  0.1065 -0.1931  0.1508
  636DOPC   NC3 7454   2.835  17.214   9.802 -0.0200  0.0413  0.1770
  636DOPC   PO4 7455   2.552  17.405   9.988  0.1581  0.1578  0.2105
  636DOPC   GL1 7456   2.623  17.417  10.337  0.2748  0.0250 -0.1141
  636DOPC   GL2 7457   2.847  17.287  10.411  0.1120 -0.1955 -0.2780
  636DOPC   C1A 7458   2.710  17.724  10.700  0.1021 -0.1865 -0.1454
  636DOPC   D2A 7459   2.409  18.012  10.971 -0.0803  0.0211 -0.2292
  636DOPC   C3A 7460   2.658  18.081  11.395 -0.0732  0.2638  0.2245
  636DOPC   C4A 7461   2.811  17.960  11.806  0.0463 -0.1987 -0.1330
  636DOPC   C1B 7462   3.174  17.122  10.638 -0.3021  0.0224  0.1165
  636DOPC   D2B 7463   3.335  17.296  10.949  0.0112 -0.0292 -0.1031
  636DOPC   C3B 7464   3.158  17.732  11.035  0.3907  0.0174 -0.0278
  636DOPC   C4B 7465   2.882  18.124  10.925  0.1347  0.0232 -0.2545
  637DOPE   NH3 7466   2.272  20.967  10.278 -0.1392 -0.1659 -0.2488
  637DOPE   PO4 7467   2.261  21.185  10.505 -0.0795  0.0745  0.0643
  637DOPE   GL1 7468   2.407  21.258  10.917 -0.0806  0.1412  0.2134
  637DOPE   GL2 7469   2.064  21.245  10.958 -0.2402 -0.1165 -0.2156
  637DOPE   C1A 7470   2.305  21.539  11.325  0.1252  0.2872 -0.3680
  637DOPE   D2A 7471   2.044  21.683  11.710 -0.1395  0.1072 -0.1106
  637DOPE   C3A 7472   2.262  21.796  12.067  0.5345 -0.0357  0.3832
  637DOPE   C4A 7473   2.565  22.005  12.271 -0.0910 -0.3345  0.0231
  637DOPE   C1B 7474   1.790  21.511  11.218  0.0138  0.1349 -0.3902
  637DOPE   D2B 7475   1.518  21.486  11.632 -0.1851 -0.0157  0.0553
  637DOPE   C3B 7476   1.790  21.453  12.048  0.1000  0.4152  0.0593
  637DOPE   C4B 7477   1.746  21.356  12.492 -0.0238 -0.2415  0.0217
  638POSM   NC3 7478   7.554  16.962  10.138  0.1892 -0.2503  0.2597
  638POSM   PO4 7479   7.823  17.110   9.876  0.4834 -0.3394  0.1108
  638POSM   AM1 7480   7.992  17.008  10.110 -0.1028  0.0794 -0.0180
  638POSM   AM2 7481   8.259  16.920  10.161 -0.1250  0.1127 -0.0171
  638POSM   T1A 7482   7.950  16.635  10.479 -0.1916 -0.3479  0.2954
  638POSM   C2A 7483   7.705  16.712  10.849  0.1965  0.2910  0.0845
  638POSM   C3A 7484   7.576  16.963  11.225  0.0642 -0.3259  0.2708
  638POSM   C1B 7485   8.384  17.210  10.343  0.2111 -0.3085  0.0368
  638POSM   D2B 7486   8.699  17.378  10.651  0.1588  0.0655 -0.0624
  638POSM   C3B 7487   8.604  17.830  10.820 -0.2804  0.0818 -0.0347
  638POSM   C4B 7488   8.479  18.247  10.991 -0.2705 -0.1663  0.0070
  639DOPC   NC3 7489   8.876  18.704   9.532 -0.1101 -0.4977  0.0427
  639DOPC   PO4 7490   9.130  18.634   9.288  0.0584 -0.0536 -0.1256
  639DOPC   GL1 7491   9.132  18.326   9.678  0.2325  0.0491  0.0256
  639DOPC   GL2 7492   9.337  18.479   9.733 -0.3753 -0.0178  0.1742
  639DOPC   C1A 7493   8.783  18.416   9.986 -0.2719 -0.2070  0.0480
  639DOPC   D2A 7494   8.533  18.160  10.209 -0.1492  0.1337 -0.0769
  639DOPC   C3A 7495   8.321  17.774  10.390 -0.0481  0.1756  0.0439
  639DOPC   C4A 7496   8.199  17.476  10.700  0.1384 -0.0775 -0.1974
  639DOPC   C1B 7497   9.208  18.430  10.174 -0.3606  0.1993 -0.1860
  639DOPC   D2B 7498   8.914  18.270  10.490  0.3019  0.3363 -0.1301
  639DOPC   C3B 7499   9.091  18.214  10.918  0.1575  0.1382  0.0830
  639DOPC   C4B 7500   9.349  17.935  11.144 -0.2220 -0.0726  0.1170
  640POSM   NC3 7501   7.608  22.451  10.159  0.0139 -0.0039  0.3335
  640POSM   PO4 7502   7.954  22.389  10.016 -0.1206  0.1329 -0.0154
  640POSM   AM1 7503   8.079  22.456  10.305 -0.1797  0.0751  0.1051
  640POSM   AM2 7504   8.210  22.584  10.505  0.2262 -0.1159  0.3097
  640POSM   T1A 7505   8.140  22.176  10.773  0.0199  0.0441  0.1929
  640POSM   C2A 7506   7.881  22.148  11.153  0.0643 -0.0856  0.0414
  640POSM   C3A 7507   7.798  21.951  11.598  0.1079  0.2325 -0.0565
  640POSM   C1B 7508   8.284  22.596  10.797  0.1142  0.0186  0.0803
  640POSM   D2B 7509   8.422  22.687  11.265  0.0997  0.6013  0.0973
  640POSM   C3B 7510   8.882  22.626  11.130 -0.0411  0.1642  0.0714
  640POSM   C4B 7511   9.238  22.696  11.459  0.0069  0.1646 -0.0543
  641DOPE   NH3 7512   4.455  10.542  11.649 -0.4994  0.0947  0.0889
  641DOPE   PO4 7513   4.262  10.755  11.556 -0.0268 -0.1399  0.2252
  641DOPE   GL1 7514   4.195  11.106  11.787  0.3227 -0.4415 -0.1777
  641DOPE   GL2 7515   4.446  11.121  12.030 -0.0199 -0.0225  0.1570
  641DOPE   C1A 7516   3.934  11.270  12.142  0.1761  0.0855 -0.3011
  641DOPE   D2A 7517   4.137  11.502  12.499  0.0254  0.2491  0.0797
  641DOPE   C3A 7518   3.903  11.854  12.764 -0.1647 -0.0805 -0.0766
  641DOPE   C4A 7519   3.843  12.235  13.029  0.0945  0.1916 -0.0810
  641DOPE   C1B 7520   4.675  11.034  12.444 -0.0235 -0.0058 -0.0149
  641DOPE   D2B 7521   4.924  10.818  12.767  0.0377  0.3278  0.3045
  641DOPE   C3B 7522   5.305  11.104  12.881 -0.2954  0.1873 -0.0125
  641DOPE   C4B 7523   5.734  11.186  13.039 -0.2734  0.1792 -0.1818
  642DOPC   NC3 7524   7.571  15.171  10.640  0.0943 -0.0843  0.0315
  642DOPC   PO4 7525   7.333  15.145  10.305  0.0167 -0.2908  0.2228
  642DOPC   GL1 7526   7.156  15.118  10.699  0.4155  0.0852 -0.0037
  642DOPC   GL2 7527   6.915  15.111  10.827  0.1117  0.0757  0.0921
  642DOPC   C1A 7528   7.405  15.276  11.067  0.1120 -0.0500 -0.3041
  642DOPC   D2A 7529   7.611  15.316  11.410 -0.1044 -0.1700 -0.1440
  642DOPC   C3A 7530   7.772  15.472  11.796  0.2614  0.2137 -0.1814
  642DOPC   C4A 7531   8.180  15.583  11.990  0.2297 -0.1774  0.0400
  642DOPC   C1B 7532   6.879  15.484  11.142  0.0976  0.2876  0.0279
  642DOPC   D2B 7533   7.164  15.531  11.483 -0.2428 -0.1914  0.2277
  642DOPC   C3B 7534   6.893  15.564  11.875 -0.0058  0.4312  0.3293
  642DOPC   C4B 7535   6.681  15.570  12.252  0.0068  0.1697 -0.1975
  643DOPE   NH3 7536  10.746  11.656  10.432 -0.0182 -0.2481 -0.0927
  643DOPE   PO4 7537  10.505  11.554  10.578  0.3567 -0.2757 -0.3564
  643DOPE   GL1 7538  10.535  11.848  10.856  0.0557 -0.2371  0.1364
  643DOPE   GL2 7539  10.796  11.771  10.967 -0.2215 -0.0430  0.0404
  643DOPE   C1A 7540  10.570  12.243  11.153 -0.1662 -0.0752 -0.0751
  643DOPE   D2A 7541  10.878  12.529  11.352  0.1792  0.0463  0.2106
  643DOPE   C3A 7542  11.208  12.774  11.537 -0.1423 -0.0238  0.2451
  643DOPE   C4A 7543  11.494  12.613  11.814  0.0587  0.1020  0.0033
  643DOPE   C1B 7544  11.081  11.756  11.346  0.0003 -0.1963  0.1890
  643DOPE   D2B 7545  11.443  11.847  11.570  0.0541 -0.0099  0.0929
  643DOPE   C3B 7546  11.479  11.930  12.033 -0.0937  0.1094 -0.1557
  643DOPE   C4B 7547  11.283  12.317  12.223 -0.1473 -0.1415  0.1184
  644POSM   NC3 7548   0.991  16.351  10.177 -0.0698 -0.1602 -0.0931
  644POSM   PO4 7549   1.374  16.378  10.128 -0.0150 -0.2222 -0.5548
  644POSM   AM1 7550   1.359  16.386  10.445  0.1189 -0.0017 -0.3984
  644POSM   AM2 7551   1.163  16.369  10.617 -0.0123  0.2521 -0.0296
  644POSM   T1A 7552   1.639  16.414  10.851 -0.1511 -0.0251 -0.0829
  644POSM   C2A 7553   2.087  16.250  10.951  0.1643  0.1323  0.0149
  644POSM   C3A 7554   2.295  15.862  10.958 -0.3492  0.0228  0.0455
  644POSM   C1B 7555   1.117  16.418  10.937 -0.1186  0.3366 -0.1062
  644POSM   D2B 7556   1.351  16.447  11.307  0.1832  0.1136 -0.0269
  644POSM   C3B 7557   1.381  16.082  11.585 -0.1932 -0.0730  0.3322
  644POSM   C4B 7558   1.752  15.989  11.770 -0.3465  0.3099  0.0264
  645DOPC   NC3 7559   8.103  17.877   9.967 -0.1038  0.0951 -0.1500
  645DOPC   PO4 7560   8.264  18.038   9.638  0.1333 -0.1294  0.0310
  645DOPC   GL1 7561   8.180  18.344   9.897 -0.0465  0.0511 -0.1790
  645DOPC   GL2 7562   7.977  18.340  10.109  0.3378 -0.0648 -0.1789
  645DOPC   C1A 7563   8.362  18.657  10.169 -0.1920 -0.0594  0.1011
  645DOPC   D2A 7564   8.592  18.689  10.589 -0.2114  0.1224 -0.0626
  645DOPC   C3A 7565   8.867  18.740  10.960 -0.3177 -0.2894 -0.1288
  645DOPC   C4A 7566   9.048  19.033  11.327 -0.0020 -0.3150  0.2173
  645DOPC   C1B 7567   8.148  18.218  10.504  0.4390  0.0885 -0.1491
  645DOPC   D2B 7568   8.009  18.342  10.956 -0.1219  0.2203 -0.1371
  645DOPC   C3B 7569   7.961  18.191  11.389  0.1515 -0.2931  0.0873
  645DOPC   C4B 7570   7.711  18.063  11.718  0.0523 -0.2254  0.1209
  646POSM   NC3 7571   7.149  10.625  11.450  0.0865  0.0161  0.0657
  646POSM   PO4 7572   7.018  10.962  11.313 -0.3738 -0.1130 -0.0696
  646POSM   AM1 7573   6.918  11.171  11.551 -0.2291  0.4559 -0.1238
  646POSM   AM2 7574   6.955  11.430  11.616  0.0634  0.1150 -0.0005
  646POSM   T1A 7575   6.517  11.425  11.766 -0.0189 -0.3178  0.1494
  646POSM   C2A 7576   6.576  11.757  12.081 -0.2192  0.2163  0.1659
  646POSM   C3A 7577   6.669  12.235  12.154 -0.1165 -0.1327 -0.2998
  646POSM   C1B 7578   7.062  11.530  11.903 -0.0734  0.3391 -0.0038
  646POSM   D2B 7579   6.970  11.678  12.379  0.1807 -0.0115 -0.0724
  646POSM   C3B 7580   6.655  11.561  12.695 -0.1930 -0.0161  0.0067
  646POSM   C4B 7581   6.569  11.268  13.071 -0.0566 -0.0940  0.4038
  647POSM   NC3 7582   0.045  20.436  10.094 -0.2092  0.1778 -0.1617
  647POSM   PO4 7583  -0.227  20.712  10.223 -0.0309 -0.3308 -0.0517
  647POSM   AM1 7584  -0.047  20.732  10.523  0.1990 -0.0874 -0.0631
  647POSM   AM2 7585   0.212  20.685  10.576  0.2321  0.3576 -0.1073
  647POSM   T1A 7586  -0.016  20.945  10.998  0.2126 -0.2758 -0.0993
  647POSM   C2A 7587   0.216  20.963  11.424  0.0152  0.3786 -0.0154
  647POSM   C3A 7588   0.230  20.822  11.855  0.0774 -0.0491  0.1919
  647POSM   C1B 7589   0.168  20.415  10.723 -0.0012  0.2443 -0.2547
  647POSM   D2B 7590   0.024  20.013  10.984 -0.1403 -0.0288 -0.1575
  647POSM   C3B 7591  -0.101  19.568  11.055  0.1610  0.1236  0.2737
  647POSM   C4B 7592  -0.400  19.284  11.199 -0.0730  0.2556  0.3192
  648DOPC   NC3 7593   4.043  13.304  10.639  0.1661  0.1327 -0.1567
  648DOPC   PO4 7594   4.302  13.034  10.807 -0.1636  0.0687 -0.3123
  648DOPC   GL1 7595   4.357  13.240  11.178 -0.1287  0.0495  0.0111
  648DOPC   GL2 7596   4.229  13.002  11.385  0.3126  0.0237  0.0612
  648DOPC   C1A 7597   4.210  13.510  11.525  0.0160 -0.1946 -0.2614
  648DOPC   D2A 7598   4.091  13.526  11.977  0.0221  0.0168  0.0874
  648DOPC   C3A 7599   4.241  13.934  12.172  0.1355  0.2053 -0.5513
  648DOPC   C4A 7600   4.085  14.039  12.599  0.0611  0.5136  0.1817
  648DOPC   C1B 7601   4.416  13.134  11.779  0.0037  0.1315  0.2978
  648DOPC   D2B 7602   4.734  13.303  12.100  0.1396  0.1756 -0.0588
  648DOPC   C3B 7603   4.657  13.638  12.466  0.1800 -0.1646 -0.0656
  648DOPC   C4B 7604   4.755  13.729  12.892  0.0199 -0.1259 -0.0831
  649DOPE   NH3 7605   1.889  12.760  10.757  0.2238 -0.1296 -0.0277
  649DOPE   PO4 7606   1.924  12.714  11.072 -0.1125  0.1196  0.1961
  649DOPE   GL1 7607   1.807  12.863  11.441 -0.0422 -0.1738 -0.3135
  649DOPE   GL2 7608   2.103  12.945  11.561  0.0503 -0.0920  0.0303
  649DOPE   C1A 7609   1.699  12.603  11.769  0.1745  0.2665  0.0905
  649DOPE   D2A 7610   1.644  12.449  12.208  0.2100 -0.1058  0.2611
  649DOPE   C3A 7611   1.236  12.441  12.454 -0.1190 -0.2109 -0.0662
  649DOPE   C4A 7612   0.933  12.761  12.664  0.0324  0.0786 -0.1710
  649DOPE   C1B 7613   2.062  12.999  12.056 -0.1907  0.1857 -0.0833
  649DOPE   D2B 7614   1.955  13.400  12.247  0.0466  0.2098  0.0691
  649DOPE   C3B 7615   2.147  13.741  12.453 -0.0764  0.1049  0.1964
  649DOPE   C4B 7616   2.101  14.050  12.844 -0.3170  0.1224 -0.0086
  650POSM   NC3 7617   3.896  23.132  10.232 -0.0719 -0.0030  0.2494
  650POSM   PO4 7618   3.772  22.726  10.223  0.0671  0.0607  0.1718
  650POSM   AM1 7619   3.654  22.483  10.443 -0.0548 -0.0923 -0.2609
  650POSM   AM2 7620   3.381  22.354  10.515  0.2074 -0.2720  0.3223
  650POSM   T1A 7621   3.609  22.527  10.929 -0.1360 -0.0938  0.1279
  650POSM   C2A 7622   3.482  22.341  11.321  0.1635  0.1154  0.1368
  650POSM   C3A 7623   3.343  21.973  11.618 -0.2367 -0.1981 -0.2823
  650POSM   C1B 7624   3.210  22.104  10.701 -0.2039 -0.0978  0.1541
  650POSM   D2B 7625   3.208  21.921  11.161  0.1548 -0.3783  0.0063
  650POSM   C3B 7626   2.847  21.810  11.420  0.1946  0.1694  0.1869
  650POSM   C4B 7627   2.667  21.635  11.821  0.0964  0.1651 -0.2379
  651POSM   NC3 7628   3.176  15.300  10.300 -0.4286 -0.2471 -0.1007
  651POSM   PO4 7629   3.189  15.002  10.063  0.1429 -0.1755  0.0509
  651POSM   AM1 7630   3.249  14.870  10.342  0.1169 -0.4166 -0.2402
  651POSM   AM2 7631   3.163  14.897  10.589 -0.0068 -0.1325  0.3072
  651POSM   T1A 7632   3.536  14.585  10.673  0.0935  0.0178  0.0917
  651POSM   C2A 7633   3.830  14.292  10.908 -0.0043  0.2701 -0.0927
  651POSM   C3A 7634   4.209  14.174  11.137 -0.1860 -0.1590 -0.1450
  651POSM   C1B 7635   3.225  15.105  10.861  0.2805  0.2970  0.2105
  651POSM   D2B 7636   3.121  15.473  11.166 -0.0424  0.0493 -0.1373
  651POSM   C3B 7637   3.338  15.537  11.551  0.2292 -0.2574  0.0725
  651POSM   C4B 7638   3.562  15.815  11.843 -0.3509  0.3100 -0.1190
  652DOPS   CNO 7639   7.224  16.849   9.703  0.2364 -0.0852 -0.3242
  652DOPS   PO4 7640   7.072  17.179   9.837  0.0221  0.3187 -0.0074
  652DOPS   GL1 7641   7.116  17.222  10.254 -0.0391  0.1336  0.2858
  652DOPS   GL2 7642   6.971  17.464  10.298  0.1793 -0.0721 -0.1459
  652DOPS   C1A 7643   6.897  16.940  10.571  0.0996 -0.1116  0.1842
  652DOPS   D2A 7644   6.646  16.877  10.945 -0.2003  0.0062 -0.2887
  652DOPS   C3A 7645   6.483  17.264  11.139  0.0343 -0.0768  0.0642
  652DOPS   C4A 7646   6.190  17.561  11.336  0.1151  0.1203 -0.1372
  652DOPS   C1B 7647   6.924  17.394  10.775  0.0737 -0.1540 -0.2051
  652DOPS   D2B 7648   6.968  17.357  11.262  0.1363  0.1449  0.0562
  652DOPS   C3B 7649   7.432  17.473  11.195 -0.0953 -0.0716  0.3930
  652DOPS   C4B 7650   7.846  17.324  11.014  0.1266 -0.3301 -0.0558
  653DOPC   NC3 7651   3.090  22.080  10.148 -0.0000  0.0303  0.1224
  653DOPC   PO4 7652   2.741  22.289  10.160  0.0386  0.0879  0.0139
  653DOPC   GL1 7653   2.863  22.432  10.539 -0.3084  0.4105 -0.0551
  653DOPC   GL2 7654   2.910  22.777  10.515 -0.2801 -0.3752 -0.0897
  653DOPC   C1A 7655   2.664  22.612  10.882  0.1409  0.3656 -0.0460
  653DOPC   D2A 7656   2.618  22.712  11.275  0.1524  0.1523  0.3486
  653DOPC   C3A 7657   2.461  22.703  11.697 -0.1824 -0.0702  0.0774
  653DOPC   C4A 7658   2.360  22.598  12.136 -0.0811 -0.0551  0.1020
  653DOPC   C1B 7659   2.947  23.052  10.937 -0.0933  0.1010 -0.0647
  653DOPC   D2B 7660   2.949  23.041  11.439  0.0390 -0.1482  0.2655
  653DOPC   C3B 7661   2.960  22.667  11.699  0.1831  0.1723  0.0632
  653DOPC   C4B 7662   2.847  22.423  12.092  0.0814 -0.1330  0.0918
  654POSM   NC3 7663  33.539  20.002   9.518 -0.2768  0.2536  0.2146
  654POSM   PO4 7664  33.173  19.943   9.457  0.0198 -0.0547  0.2182
  654POSM   AM1 7665  33.085  19.759   9.759  0.3269  0.1260 -0.3117
  654POSM   AM2 7666  33.219  19.657   9.938 -0.0665 -0.1309 -0.0730
  654POSM   T1A 7667  32.896  19.907  10.168 -0.0345 -0.4274  0.3544
  654POSM   C2A 7668  32.995  20.072  10.679 -0.0428  0.1550  0.1924
  654POSM   C3A 7669  33.319  20.294  10.999 -0.1545 -0.1643  0.0407
  654POSM   C1B 7670  33.358  19.632  10.245 -0.2791 -0.2547  0.2362
  654POSM   D2B 7671  33.388  19.658  10.749  0.2667  0.4056  0.1203
  654POSM   C3B 7672  33.606  19.954  11.089  0.0442 -0.2521 -0.1803
  654POSM   C4B 7673  33.702  20.019  11.598  0.0505 -0.1897  0.0651
  655DOPE   NH3 7674   1.806  16.322   9.825  0.0624 -0.1246 -0.0895
  655DOPE   PO4 7675   1.915  16.022   9.751  0.0243  0.1660 -0.0950
  655DOPE   GL1 7676   1.853  16.090  10.177 -0.3137 -0.2197 -0.0118
  655DOPE   GL2 7677   1.676  16.042  10.386 -0.2828  0.0382 -0.1150
  655DOPE   C1A 7678   2.210  16.089  10.516  0.0797 -0.1527  0.2454
  655DOPE   D2A 7679   2.582  16.267  10.854 -0.1248 -0.1146  0.1075
  655DOPE   C3A 7680   2.490  16.186  11.311  0.1482  0.0190  0.0342
  655DOPE   C4A 7681   2.171  16.199  11.688 -0.1301 -0.1977  0.2585
  655DOPE   C1B 7682   1.674  15.940  10.798 -0.1811  0.0273 -0.2046
  655DOPE   D2B 7683   1.725  16.026  11.254 -0.0237  0.3574  0.2997
  655DOPE   C3B 7684   2.034  15.745  11.407 -0.0877  0.0089  0.1021
  655DOPE   C4B 7685   2.169  15.257  11.358 -0.0622 -0.3286 -0.2024
  656POSM   NC3 7686   1.158  22.690   9.739  0.0064 -0.1681 -0.2066
  656POSM   PO4 7687   1.277  22.414   9.997  0.2186 -0.3972 -0.1094
  656POSM   AM1 7688   1.161  22.295  10.299  0.0072  0.1550 -0.1506
  656POSM   AM2 7689   1.013  22.070  10.340 -0.1243  0.0742 -0.2085
  656POSM   T1A 7690   1.296  22.265  10.746 -0.0932 -0.1278  0.0128
  656POSM   C2A 7691   1.634  21.994  10.928 -0.1541 -0.0732 -0.1356
  656POSM   C3A 7692   1.863  21.999  11.362  0.4577  0.3473  0.0027
  656POSM   C1B 7693   0.843  22.077  10.654 -0.0216  0.3021 -0.1619
  656POSM   D2B 7694   0.538  22.024  11.039  0.1797  0.2458 -0.1587
  656POSM   C3B 7695   0.764  22.106  11.433 -0.0276 -0.5316 -0.1010
  656POSM   C4B 7696   0.801  22.029  11.913  0.0138  0.4127 -0.0455
  657POSM   NC3 7697   2.352  19.367  10.559 -0.1191 -0.1701 -0.1638
  657POSM   PO4 7698   2.174  19.533  10.222  0.1649 -0.1731 -0.0390
  657POSM   AM1 7699   1.913  19.514  10.455  0.1062  0.0249 -0.1309
  657POSM   AM2 7700   1.859  19.294  10.644  0.1173 -0.1915 -0.1111
  657POSM   T1A 7701   1.739  19.707  10.919 -0.2179 -0.2809 -0.0027
  657POSM   C2A 7702   1.735  19.677  11.381  0.0246  0.2093 -0.0640
  657POSM   C3A 7703   1.893  19.613  11.829 -0.2713  0.0941  0.0642
  657POSM   C1B 7704   1.598  19.224  10.810 -0.3194  0.2167 -0.4604
  657POSM   D2B 7705   1.428  19.147  11.270  0.0345 -0.1778 -0.0386
  657POSM   C3B 7706   1.378  19.461  11.557  0.2445 -0.2837 -0.0264
  657POSM   C4B 7707   1.257  19.657  11.946 -0.0211 -0.1764  0.0890
  658POSM   NC3 7708   1.488  21.607   9.567 -0.2442 -0.0929  0.0559
  658POSM   PO4 7709   1.533  21.535   9.951  0.1026 -0.1061  0.2387
  658POSM   AM1 7710   1.591  21.460  10.277 -0.0737  0.3283  0.4406
  658POSM   AM2 7711   1.484  21.307  10.503  0.5726 -0.1708  0.2339
  658POSM   T1A 7712   1.798  21.614  10.701  0.0994  0.0434 -0.2405
  658POSM   C2A 7713   2.117  21.866  10.960  0.2006  0.1080 -0.0976
  658POSM   C3A 7714   2.413  21.978  11.316 -0.3099  0.1938  0.2514
  658POSM   C1B 7715   1.496  21.231  10.846 -0.1852 -0.0215  0.0556
  658POSM   D2B 7716   1.376  21.035  11.320  0.0547 -0.3495 -0.1156
  658POSM   C3B 7717   1.600  21.017  11.716 -0.0026 -0.2322  0.1460
  658POSM   C4B 7718   1.981  20.912  12.000 -0.0564 -0.0198 -0.0403
  659DOPS   CNO 7719   7.825  14.996  10.064  0.1071  0.1861  0.1566
  659DOPS   PO4 7720   7.814  14.699  10.286 -0.0542 -0.0676  0.2210
  659DOPS   GL1 7721   7.649  14.687  10.603  0.1661 -0.1692 -0.0675
  659DOPS   GL2 7722   7.295  14.704  10.601  0.1626 -0.1663  0.4315
  659DOPS   C1A 7723   7.762  14.845  11.023  0.0476 -0.3978 -0.2541
  659DOPS   D2A 7724   8.037  15.142  11.242  0.0890  0.0701  0.1203
  659DOPS   C3A 7725   8.466  14.935  11.293  0.4734 -0.1229 -0.2495
  659DOPS   C4A 7726   8.777  14.579  11.396  0.0507  0.0536 -0.3232
  659DOPS   C1B 7727   7.247  14.794  11.090 -0.2204  0.0142  0.3282
  659DOPS   D2B 7728   7.134  14.859  11.494  0.2515  0.1808  0.1248
  659DOPS   C3B 7729   6.847  14.621  11.744 -0.1725 -0.0505 -0.0505
  659DOPS   C4B 7730   6.865  14.229  11.947  0.0639 -0.1218  0.0071
  660POSM   NC3 7731   2.887  11.855  11.710 -0.0291 -0.1208 -0.2903
  660POSM   PO4 7732   3.077  11.599  11.568  0.1403  0.0691 -0.3694
  660POSM   AM1 7733   3.318  11.746  11.753  0.1267  0.2237  0.2397
  660POSM   AM2 7734   3.541  11.915  11.707 -0.0492 -0.2783  0.0011
  660POSM   T1A 7735   3.288  12.080  12.100  0.1069  0.0213 -0.0316
  660POSM   C2A 7736   3.213  12.473  12.092  0.1759 -0.0478  0.1454
  660POSM   C3A 7737   3.079  12.831  11.974 -0.2720  0.1222 -0.2736
  660POSM   C1B 7738   3.685  12.220  11.828  0.0847  0.2491  0.1292
  660POSM   D2B 7739   3.702  12.572  12.161  0.2611  0.0838 -0.0642
  660POSM   C3B 7740   3.747  12.639  12.676  0.2385 -0.2851  0.2372
  660POSM   C4B 7741   3.738  12.831  13.053  0.0444  0.0988  0.1520
  661DOPE   NH3 7742   9.892  15.179   9.298 -0.2121 -0.0686 -0.0985
  661DOPE   PO4 7743   9.918  15.410   9.523 -0.0804  0.0741 -0.0179
  661DOPE   GL1 7744  10.115  15.535   9.791  0.0402 -0.3874 -0.3115
  661DOPE   GL2 7745   9.915  15.738   9.897 -0.1402  0.1099  0.0755
  661DOPE   C1A 7746  10.214  15.314  10.184 -0.0030 -0.2918  0.0391
  661DOPE   D2A 7747  10.206  14.936  10.439 -0.0285 -0.1660 -0.1710
  661DOPE   C3A 7748  10.125  14.759  10.881  0.1164  0.0832 -0.1589
  661DOPE   C4A 7749  10.197  14.714  11.318 -0.2510  0.2256 -0.1626
  661DOPE   C1B 7750   9.877  15.733  10.403  0.0326 -0.2034  0.1830
  661DOPE   D2B 7751   9.554  15.763  10.652  0.0771 -0.0113  0.0443
  661DOPE   C3B 7752   9.368  15.505  10.978  0.0074  0.0258  0.1431
  661DOPE   C4B 7753   9.388  15.160  11.351 -0.4181 -0.0529 -0.4607
  662DOPE   NH3 7754  12.752  20.785   9.475  0.2062  0.0052  0.2993
  662DOPE   PO4 7755  12.966  21.031   9.394 -0.0215  0.0230 -0.2264
  662DOPE   GL1 7756  13.014  20.952   9.794 -0.1968 -0.1370 -0.3525
  662DOPE   GL2 7757  13.234  21.052   9.858 -0.0560  0.0329 -0.1787
  662DOPE   C1A 7758  12.717  20.815  10.151 -0.0764  0.0326 -0.0679
  662DOPE   D2A 7759  12.675  20.764  10.611 -0.3483  0.0366 -0.1907
  662DOPE   C3A 7760  13.076  20.507  10.704 -0.2728  0.1151 -0.3682
  662DOPE   C4A 7761  13.504  20.463  10.954  0.2410  0.4101  0.0222
  662DOPE   C1B 7762  13.114  20.940  10.338 -0.0720  0.4236  0.5073
  662DOPE   D2B 7763  13.346  20.996  10.718  0.0536  0.0574  0.0162
  662DOPE   C3B 7764  13.284  21.180  11.190 -0.1741  0.1175 -0.0389
  662DOPE   C4B 7765  13.262  21.077  11.606  0.2736 -0.2388 -0.0728
  663DOPE   NH3 7766   3.773  18.850   9.669  0.0474  0.2259 -0.0966
  663DOPE   PO4 7767   3.718  18.798   9.964  0.3619 -0.0508 -0.2180
  663DOPE   GL1 7768   3.835  18.848  10.314 -0.0897  0.1857 -0.2326
  663DOPE   GL2 7769   4.107  18.720  10.324 -0.0520 -0.0120  0.0885
  663DOPE   C1A 7770   3.865  19.135  10.635  0.0234 -0.0636  0.1831
  663DOPE   D2A 7771   3.631  19.508  10.837  0.3318  0.1545  0.1331
  663DOPE   C3A 7772   3.845  19.900  11.018  0.1651 -0.0063 -0.3141
  663DOPE   C4A 7773   3.923  20.201  11.315 -0.1349  0.2188 -0.0766
  663DOPE   C1B 7774   4.098  18.621  10.729  0.0907 -0.0138 -0.0766
  663DOPE   D2B 7775   3.951  18.318  11.064  0.1787  0.2514 -0.1213
  663DOPE   C3B 7776   3.835  18.438  11.481  0.1306 -0.1147  0.2337
  663DOPE   C4B 7777   3.580  18.569  11.845 -0.1034 -0.0895  0.2212
  664DOPE   NH3 7778  33.522  15.860   9.915 -0.1655  0.2840 -0.1975
  664DOPE   PO4 7779  33.383  16.140  10.088 -0.2024  0.0984 -0.1680
  664DOPE   GL1 7780  33.595  16.182  10.464 -0.3194  0.3241  0.0897
  664DOPE   GL2 7781  33.837  16.078  10.391 -0.2737 -0.2263 -0.0338
  664DOPE   C1A 7782  33.837  16.295  10.822 -0.4360  0.0938  0.3893
  664DOPE   D2A 7783  33.643  16.529  11.151 -0.0669 -0.0997 -0.3773
  664DOPE   C3A 7784  33.291  16.517  11.410 -0.3149 -0.3628  0.1458
  664DOPE   C4A 7785  32.884  16.319  11.446  0.3250 -0.1938 -0.4325
  664DOPE   C1B 7786  34.235  16.198  10.589 -0.4328  0.4376  0.3751
  664DOPE   D2B 7787  34.627  16.128  10.699  0.2174  0.1461  0.3566
  664DOPE   C3B 7788  34.792  15.726  10.794 -0.2059 -0.3657 -0.1498
  664DOPE   C4B 7789  34.736  15.257  10.560 -0.2516 -0.1030  0.0084
  665POSM   NC3 7790   1.301  12.573  10.284  0.0448  0.1957 -0.0585
  665POSM   PO4 7791   1.002  12.840  10.371 -0.2101  0.1919  0.0654
  665POSM   AM1 7792   1.121  12.846  10.672 -0.3452  0.3184 -0.1577
  665POSM   AM2 7793   1.075  12.738  10.961  0.1534  0.0033  0.0804
  665POSM   T1A 7794   1.127  13.204  11.060  0.1684 -0.1467  0.2425
  665POSM   C2A 7795   1.291  13.319  11.459  0.1173  0.6326 -0.2516
  665POSM   C3A 7796   1.208  13.393  11.918  0.1359  0.0045  0.0305
  665POSM   C1B 7797   0.913  12.560  11.181 -0.1136 -0.1017  0.1192
  665POSM   D2B 7798   0.492  12.561  11.422  0.0002  0.0325  0.0699
  665POSM   C3B 7799   0.311  12.878  11.726 -0.1099  0.2071  0.3997
  665POSM   C4B 7800   0.171  13.295  11.781  0.4740  0.2004 -0.0129
  666DOPC   NC3 7801  11.000  19.407   8.886  0.4524  0.1524 -0.1550
  666DOPC   PO4 7802  10.698  19.616   9.068  0.2124  0.1370 -0.0389
  666DOPC   GL1 7803  10.931  19.668   9.383  0.4377  0.1165 -0.2958
  666DOPC   GL2 7804  10.917  19.839   9.552  0.3071  0.2200 -0.0805
  666DOPC   C1A 7805  11.363  19.403   9.468  0.4338  0.0664 -0.1977
  666DOPC   D2A 7806  11.315  19.042   9.704 -0.1836 -0.2221 -0.0572
  666DOPC   C3A 7807  11.614  18.702   9.702  0.0856  0.1255  0.0457
  666DOPC   C4A 7808  11.999  18.494   9.597  0.2616  0.0749 -0.1966
  666DOPC   C1B 7809  11.056  19.516   9.908  0.1082  0.1635  0.0603
  666DOPC   D2B 7810  11.025  19.082  10.172 -0.0401  0.1095  0.2366
  666DOPC   C3B 7811  10.863  19.133  10.639 -0.0987 -0.0240  0.2980
  666DOPC   C4B 7812  10.847  19.137  11.162  0.0926  0.0840 -0.1580
  667DOPC   NC3 7813   5.223  21.367   9.953 -0.1397  0.0924 -0.2538
  667DOPC   PO4 7814   5.576  21.470   9.800 -0.1415  0.0969  0.2451
  667DOPC   GL1 7815   5.719  21.275  10.154 -0.0144 -0.1934 -0.0414
  667DOPC   GL2 7816   5.520  21.093  10.308  0.0895  0.0054  0.0679
  667DOPC   C1A 7817   5.732  21.413  10.641 -0.0406  0.1042 -0.0245
  667DOPC   D2A 7818   5.805  21.587  11.076  0.1979 -0.0148 -0.3033
  667DOPC   C3A 7819   6.111  21.473  11.396 -0.0621  0.0545 -0.1226
  667DOPC   C4A 7820   6.305  21.277  11.738  0.0776 -0.1629 -0.1696
  667DOPC   C1B 7821   5.428  20.949  10.762 -0.1514 -0.0006 -0.0760
  667DOPC   D2B 7822   5.566  21.136  11.095 -0.2210 -0.0121  0.2604
  667DOPC   C3B 7823   5.948  21.012  11.357 -0.0383  0.2504  0.1773
  667DOPC   C4B 7824   6.261  20.744  11.617  0.1251  0.1828  0.1316
  668POSM   NC3 7825   0.680  18.133   9.461 -0.0501 -0.0525 -0.1376
  668POSM   PO4 7826   0.423  18.397   9.636  0.1367  0.2645  0.1320
  668POSM   AM1 7827   0.574  18.374   9.926  0.3254  0.0144  0.1805
  668POSM   AM2 7828   0.722  18.504  10.116  0.2441 -0.0051 -0.1444
  668POSM   T1A 7829   0.525  18.121  10.333  0.0243 -0.0077 -0.0260
  668POSM   C2A 7830   0.475  18.067  10.811 -0.2876  0.0723  0.2127
  668POSM   C3A 7831   0.377  17.965  11.168 -0.3616 -0.1651  0.1105
  668POSM   C1B 7832   0.754  18.592  10.472 -0.1522 -0.1294 -0.1099
  668POSM   D2B 7833   0.805  18.454  10.889  0.1313 -0.1304 -0.3322
  668POSM   C3B 7834   0.521  18.420  11.267  0.0133 -0.1056  0.1993
  668POSM   C4B 7835   0.240  18.677  11.486 -0.1919 -0.0253 -0.2426
  669POSM   NC3 7836   8.271  16.884   9.652  0.0929 -0.0782 -0.3049
  669POSM   PO4 7837   8.511  16.650   9.600  0.0892 -0.0403 -0.0512
  669POSM   AM1 7838   8.716  16.540   9.820 -0.3514  0.2045  0.1530
  669POSM   AM2 7839   8.954  16.437   9.890  0.0569  0.0281  0.0319
  669POSM   T1A 7840   8.631  16.198  10.195 -0.0101  0.3642  0.0550
  669POSM   C2A 7841   8.473  15.818  10.526  0.2007 -0.0367 -0.2681
  669POSM   C3A 7842   8.298  15.839  10.971 -0.2199  0.0154 -0.2015
  669POSM   C1B 7843   9.071  16.317  10.191 -0.1153  0.0598 -0.2001
  669POSM   D2B 7844   9.407  16.303  10.525  0.1551 -0.1105  0.0559
  669POSM   C3B 7845   9.699  16.689  10.484 -0.0288 -0.2322 -0.0524
  669POSM   C4B 7846   9.928  17.065  10.610 -0.0726  0.3100 -0.0501
  670DOPS   CNO 7847   6.559  13.540  10.662 -0.0392 -0.0427 -0.2055
  670DOPS   PO4 7848   6.729  13.250  10.750  0.2999  0.1268 -0.0186
  670DOPS   GL1 7849   6.875  13.583  10.964 -0.1437 -0.0786 -0.0244
  670DOPS   GL2 7850   7.036  13.379  11.174 -0.4462 -0.3285  0.3461
  670DOPS   C1A 7851   6.751  13.721  11.400 -0.1521 -0.1468 -0.1313
  670DOPS   D2A 7852   6.909  13.552  11.808 -0.1737 -0.0884 -0.0579
  670DOPS   C3A 7853   6.800  13.804  12.170 -0.1119 -0.1090  0.3734
  670DOPS   C4A 7854   6.406  13.835  12.501 -0.0665  0.1314  0.1710
  670DOPS   C1B 7855   7.475  13.284  11.289  0.3089  0.1076 -0.3023
  670DOPS   D2B 7856   7.829  13.062  11.477  0.1594  0.2026  0.1616
  670DOPS   C3B 7857   7.807  12.841  11.885  0.0502  0.1609 -0.2318
  670DOPS   C4B 7858   7.642  12.917  12.266 -0.0515 -0.0924  0.1654
  671DOPE   NH3 7859   9.515  17.095   9.569  0.0659 -0.3153  0.0764
  671DOPE   PO4 7860   9.458  17.386   9.542 -0.1686  0.0784  0.0926
  671DOPE   GL1 7861   9.403  17.455   9.911 -0.0984 -0.0480 -0.1775
  671DOPE   GL2 7862   9.284  17.169   9.984 -0.3318  0.1328  0.0621
  671DOPE   C1A 7863   9.594  17.573  10.269 -0.2012 -0.0107  0.3530
  671DOPE   D2A 7864   9.560  17.432  10.705  0.1767 -0.1713 -0.0772
  671DOPE   C3A 7865   9.838  17.348  11.089 -0.1161  0.0919 -0.0851
  671DOPE   C4A 7866  10.023  17.415  11.575 -0.0683  0.0034 -0.1096
  671DOPE   C1B 7867   9.164  17.336  10.441 -0.2244  0.1374  0.0639
  671DOPE   D2B 7868   9.087  17.706  10.803 -0.1169  0.1240  0.1776
  671DOPE   C3B 7869   8.915  17.628  11.238 -0.2677  0.1317 -0.4243
  671DOPE   C4B 7870   8.881  17.365  11.614  0.1538  0.3662 -0.4269
  672DOPC   NC3 7871   6.255  15.456   9.958 -0.1581  0.1436  0.1605
  672DOPC   PO4 7872   5.897  15.612  10.057  0.0129  0.0555  0.3559
  672DOPC   GL1 7873   5.807  15.888  10.275  0.3263 -0.2338 -0.2190
  672DOPC   GL2 7874   5.655  15.812  10.547 -0.1150 -0.4071 -0.0963
  672DOPC   C1A 7875   6.039  16.187  10.500 -0.1866  0.3078  0.2170
  672DOPC   D2A 7876   6.398  16.185  10.820  0.2410  0.3880 -0.1847
  672DOPC   C3A 7877   6.393  15.798  11.077  0.0031  0.0539  0.2304
  672DOPC   C4A 7878   6.058  15.605  11.256 -0.1573  0.0104 -0.1410
  672DOPC   C1B 7879   5.829  15.996  10.920  0.0533  0.1286 -0.3364
  672DOPC   D2B 7880   5.893  16.276  11.243  0.0598 -0.0105 -0.1286
  672DOPC   C3B 7881   6.098  16.451  11.599 -0.3245  0.2708 -0.0671
  672DOPC   C4B 7882   6.485  16.453  11.830  0.0822  0.1935 -0.0045
  673DOPC   NC3 7883   5.909  17.726  10.263 -0.1466  0.1459 -0.1791
  673DOPC   PO4 7884   6.181  17.475  10.208 -0.2327  0.0745  0.1796
  673DOPC   GL1 7885   6.482  17.663  10.438 -0.2173  0.0025  0.0106
  673DOPC   GL2 7886   6.505  17.898  10.243  0.3570 -0.0876  0.0445
  673DOPC   C1A 7887   6.507  17.738  10.889 -0.2028  0.1715  0.2311
  673DOPC   D2A 7888   6.653  17.777  11.328  0.1717 -0.2954 -0.1412
  673DOPC   C3A 7889   6.581  17.489  11.660 -0.1486  0.1935  0.0549
  673DOPC   C4A 7890   6.531  17.479  12.092  0.2205 -0.2220  0.1126
  673DOPC   C1B 7891   6.513  18.211  10.585 -0.0158 -0.0153 -0.0009
  673DOPC   D2B 7892   6.570  18.375  11.017 -0.0557 -0.0959  0.1670
  673DOPC   C3B 7893   6.154  18.353  11.211  0.1795  0.0087  0.4077
  673DOPC   C4B 7894   5.873  18.247  11.547 -0.1134  0.0551 -0.3162
  674DOPC   NC3 7895   2.788  21.214  10.545  0.0840 -0.0898 -0.1479
  674DOPC   PO4 7896   2.763  20.983  10.257  0.2210 -0.0056  0.0307
  674DOPC   GL1 7897   2.908  20.744  10.550  0.0864 -0.2019  0.5682
  674DOPC   GL2 7898   3.199  20.824  10.515  0.1148  0.1983  0.1435
  674DOPC   C1A 7899   3.121  20.450  10.867  0.0357 -0.1291  0.1913
  674DOPC   D2A 7900   3.066  20.395  11.293  0.0010 -0.0197  0.0925
  674DOPC   C3A 7901   3.228  20.529  11.655 -0.2995  0.2723  0.1388
  674DOPC   C4A 7902   3.445  20.450  12.094 -0.0653  0.0225  0.0271
  674DOPC   C1B 7903   3.446  21.049  10.812 -0.1874  0.3058 -0.2208
  674DOPC   D2B 7904   3.757  21.222  11.164  0.0322 -0.2060 -0.1628
  674DOPC   C3B 7905   3.624  21.074  11.563 -0.0866 -0.0787  0.0669
  674DOPC   C4B 7906   3.531  20.955  11.975  0.2269 -0.3566  0.1216
  675DOPE   NH3 7907   7.068  13.017  10.454  0.2800  0.4398  0.0668
  675DOPE   PO4 7908   7.244  13.084  10.722 -0.3372  0.0944 -0.0014
  675DOPE   GL1 7909   7.115  12.887  11.024  0.5154  0.1796  0.0767
  675DOPE   GL2 7910   6.836  12.845  11.095  0.3191  0.1107  0.1277
  675DOPE   C1A 7911   7.147  12.885  11.499 -0.0062  0.0878  0.0157
  675DOPE   D2A 7912   7.242  13.035  11.919  0.0350 -0.1724 -0.0178
  675DOPE   C3A 7913   7.633  13.338  12.019 -0.2571  0.2121  0.1897
  675DOPE   C4A 7914   8.030  13.371  12.245  0.0798 -0.0673 -0.0344
  675DOPE   C1B 7915   6.719  13.146  11.439 -0.0859  0.0326  0.0696
  675DOPE   D2B 7916   6.561  13.140  11.865  0.2793  0.0802  0.1187
  675DOPE   C3B 7917   6.142  13.081  12.028 -0.1864 -0.0091  0.1491
  675DOPE   C4B 7918   5.686  12.936  12.059 -0.0569 -0.0229  0.0454
  676DOPC   NC3 7919  11.177  17.671   9.078  0.2059  0.0692 -0.1005
  676DOPC   PO4 7920  11.246  18.059   8.911 -0.0126 -0.0096 -0.0404
  676DOPC   GL1 7921  10.995  18.053   9.240 -0.2676  0.2350  0.0808
  676DOPC   GL2 7922  10.887  18.297   9.125  0.1742  0.2092 -0.0440
  676DOPC   C1A 7923  10.861  18.244   9.638  0.1678  0.2679 -0.2966
  676DOPC   D2A 7924  10.669  18.005   9.968 -0.0666 -0.1087 -0.0624
  676DOPC   C3A 7925  10.273  18.190  10.199 -0.0988  0.0121  0.2481
  676DOPC   C4A 7926   9.886  18.004  10.458  0.3501 -0.1736  0.0127
  676DOPC   C1B 7927  11.118  18.561   9.429 -0.2508  0.0295  0.0585
  676DOPC   D2B 7928  11.170  18.582   9.880 -0.4373 -0.1400  0.4163
  676DOPC   C3B 7929  10.872  18.360  10.147  0.1302  0.3465 -0.0534
  676DOPC   C4B 7930  10.868  18.013  10.432  0.0137  0.4696 -0.0828
  677POSM   NC3 7931   2.729  16.143  10.018 -0.0857 -0.0410 -0.1086
  677POSM   PO4 7932   2.843  16.497   9.933 -0.1565 -0.1712 -0.2065
  677POSM   AM1 7933   2.800  16.562  10.262  0.0957 -0.0072 -0.1221
  677POSM   AM2 7934   2.842  16.798  10.436  0.0011  0.1683  0.0385
  677POSM   T1A 7935   2.367  16.606  10.545  0.2143  0.1250 -0.0460
  677POSM   C2A 7936   2.021  16.710  10.814  0.1094  0.0224  0.0536
  677POSM   C3A 7937   1.970  17.040  11.109  0.4166 -0.1628  0.5215
  677POSM   C1B 7938   2.769  16.766  10.740 -0.0425 -0.0278  0.1083
  677POSM   D2B 7939   2.439  16.839  11.045 -0.0647 -0.1675 -0.3243
  677POSM   C3B 7940   2.410  16.715  11.472 -0.0943  0.1721  0.0261
  677POSM   C4B 7941   2.167  16.653  11.847  0.0837  0.2983  0.1757
  678DOPS   CNO 7942   2.135  10.068  11.010  0.2889  0.0213 -0.1483
  678DOPS   PO4 7943   2.032  10.155  11.385  0.1168  0.0151 -0.1125
  678DOPS   GL1 7944   1.835  10.290  11.705  0.1119 -0.0330  0.2969
  678DOPS   GL2 7945   2.026  10.196  11.914  0.2426  0.0623 -0.1594
  678DOPS   C1A 7946   1.944  10.673  11.997  0.2073  0.0419 -0.0560
  678DOPS   D2A 7947   1.731  10.669  12.352 -0.3661  0.0621  0.2252
  678DOPS   C3A 7948   1.898  10.731  12.798 -0.5459 -0.0044 -0.0355
  678DOPS   C4A 7949   2.025  10.477  13.158 -0.0733  0.2760 -0.0427
  678DOPS   C1B 7950   1.834  10.176  12.337  0.1441 -0.1198 -0.1658
  678DOPS   D2B 7951   1.538  10.356  12.648  0.0598  0.1123 -0.1700
  678DOPS   C3B 7952   1.370  10.793  12.721  0.1956  0.0116 -0.3052
  678DOPS   C4B 7953   1.362  11.170  12.886 -0.0733 -0.1621 -0.2034
  679DOPE   NH3 7954   2.345  19.086   9.946  0.1610 -0.2338 -0.2598
  679DOPE   PO4 7955   2.534  19.107  10.193 -0.1715  0.1434  0.2038
  679DOPE   GL1 7956   2.517  18.871  10.614 -0.1410  0.3032  0.1803
  679DOPE   GL2 7957   2.271  18.740  10.525  0.0547  0.0570 -0.2354
  679DOPE   C1A 7958   2.506  18.446  10.822 -0.1004 -0.2465 -0.0017
  679DOPE   D2A 7959   2.361  18.456  11.282  0.1772 -0.0106 -0.2114
  679DOPE   C3A 7960   1.999  18.334  11.617 -0.0593 -0.1049 -0.2603
  679DOPE   C4A 7961   1.777  18.140  12.024  0.0213 -0.0056  0.0553
  679DOPE   C1B 7962   2.210  18.991  10.868  0.0670 -0.1692 -0.0769
  679DOPE   D2B 7963   2.103  19.345  11.158  0.0285  0.1443 -0.2870
  679DOPE   C3B 7964   1.863  19.194  11.569 -0.4729  0.1717  0.0178
  679DOPE   C4B 7965   1.627  19.209  11.980 -0.2928  0.0107 -0.3074
  680POSM   NC3 7966   1.071  13.358   9.645 -0.0585  0.2079 -0.1101
  680POSM   PO4 7967   1.010  13.552  10.000 -0.0727  0.1352 -0.1937
  680POSM   AM1 7968   0.995  13.736  10.312 -0.2876 -0.2720  0.2687
  680POSM   AM2 7969   0.728  13.840  10.421  0.1843 -0.0067  0.0800
  680POSM   T1A 7970   1.054  13.715  10.787  0.0198  0.0554  0.1337
  680POSM   C2A 7971   0.986  13.806  11.231 -0.0398  0.3415 -0.2902
  680POSM   C3A 7972   0.624  14.088  11.405  0.0167  0.2354 -0.1894
  680POSM   C1B 7973   0.630  13.943  10.749  0.0025 -0.0651 -0.0333
  680POSM   D2B 7974   0.375  14.209  10.966  0.5511  0.0948  0.0389
  680POSM   C3B 7975   0.151  14.163  11.303  0.1849 -0.0519 -0.1585
  680POSM   C4B 7976  -0.132  14.178  11.635 -0.3746  0.3529 -0.0387
  681DOPC   NC3 7977   5.171  14.695   9.993 -0.0242 -0.1342 -0.1307
  681DOPC   PO4 7978   5.104  15.083  10.060  0.0665 -0.0123 -0.1788
  681DOPC   GL1 7979   5.146  14.934  10.446 -0.0053  0.1211 -0.1414
  681DOPC   GL2 7980   4.894  14.786  10.481  0.1957 -0.0225 -0.0383
  681DOPC   C1A 7981   5.497  14.969  10.692  0.2732  0.0604 -0.0007
  681DOPC   D2A 7982   5.474  15.151  11.085 -0.1123  0.2351  0.1117
  681DOPC   C3A 7983   5.423  15.419  11.499  0.0323 -0.2494  0.2780
  681DOPC   C4A 7984   5.274  15.576  11.901  0.3326  0.0690 -0.2326
  681DOPC   C1B 7985   5.032  14.958  10.886 -0.0833  0.1602  0.0567
  681DOPC   D2B 7986   4.993  15.331  11.138 -0.0531  0.1544  0.0741
  681DOPC   C3B 7987   4.898  15.287  11.546  0.1101  0.1019 -0.0441
  681DOPC   C4B 7988   4.799  15.348  11.946 -0.0191 -0.1074 -0.1774
  682DOPS   CNO 7989   2.824  11.879  11.136 -0.0867 -0.3112  0.2558
  682DOPS   PO4 7990   2.748  12.247  11.193 -0.2496  0.3407  0.2696
  682DOPS   GL1 7991   2.574  12.410  11.570  0.3918  0.2210  0.3921
  682DOPS   GL2 7992   2.840  12.370  11.669 -0.2275  0.1588 -0.1030
  682DOPS   C1A 7993   2.509  12.692  11.948  0.0981 -0.1282  0.0319
  682DOPS   D2A 7994   2.613  12.875  12.379 -0.0671 -0.2013  0.2219
  682DOPS   C3A 7995   2.307  13.228  12.573 -0.3163 -0.1143 -0.1710
  682DOPS   C4A 7996   1.957  13.455  12.766 -0.0426 -0.0394  0.1415
  682DOPS   C1B 7997   2.764  12.181  12.127  0.3856 -0.1491  0.0168
  682DOPS   D2B 7998   2.819  12.351  12.505 -0.3041  0.1797 -0.2030
  682DOPS   C3B 7999   3.112  12.709  12.531 -0.1570  0.1903  0.1029
  682DOPS   C4B 8000   3.383  12.942  12.338  0.1988  0.1116  0.0326
  683DOPC   NC3 8001   1.681  17.102   9.609  0.0937  0.0958 -0.3451
  683DOPC   PO4 8002   1.285  17.200   9.657 -0.0439 -0.0781 -0.0290
  683DOPC   GL1 8003   1.188  17.374  10.034  0.6327 -0.0478  0.2987
  683DOPC   GL2 8004   1.232  17.645   9.990 -0.4060 -0.3141 -0.4313
  683DOPC   C1A 8005   1.258  17.389  10.519  0.1056  0.2911 -0.3104
  683DOPC   D2A 8006   1.035  17.617  10.841  0.0886 -0.0645  0.2656
  683DOPC   C3A 8007   0.738  17.513  11.159  0.2992  0.0103 -0.1257
  683DOPC   C4A 8008   0.744  17.414  11.594 -0.3708  0.0381 -0.1439
  683DOPC   C1B 8009   0.899  17.656  10.297  0.1272  0.0395  0.1517
  683DOPC   D2B 8010   0.670  17.310  10.510  0.1561  0.0322  0.0175
  683DOPC   C3B 8011   0.882  17.123  10.901  0.0537  0.0955 -0.1000
  683DOPC   C4B 8012   0.965  16.853  11.233  0.1800 -0.2875  0.1001
  684DOPC   NC3 8013   1.814  15.101  10.415 -0.1357 -0.0184  0.0048
  684DOPC   PO4 8014   1.800  15.397  10.186  0.0333 -0.0850 -0.0578
  684DOPC   GL1 8015   1.505  15.431  10.474  0.0767 -0.2365  0.3430
  684DOPC   GL2 8016   1.423  15.232  10.682 -0.1651  0.1007  0.2183
  684DOPC   C1A 8017   1.239  15.681  10.780  0.2267 -0.2160 -0.0346
  684DOPC   D2A 8018   1.262  15.983  11.123 -0.0120 -0.0537  0.5631
  684DOPC   C3A 8019   0.926  15.917  11.410  0.1381 -0.0624  0.1344
  684DOPC   C4A 8020   0.737  15.753  11.808 -0.1545 -0.0805  0.1713
  684DOPC   C1B 8021   1.198  15.251  11.093  0.1146  0.2140 -0.1014
  684DOPC   D2B 8022   1.087  15.381  11.508 -0.0065 -0.0732 -0.0245
  684DOPC   C3B 8023   1.407  15.413  11.778 -0.2557  0.0476  0.3564
  684DOPC   C4B 8024   1.844  15.490  11.878 -0.1122 -0.0229  0.3464
  685DOPE   NH3 8025   5.045  15.603   9.855  0.2048  0.2912 -0.1844
  685DOPE   PO4 8026   4.930  15.780  10.080 -0.1682  0.0373  0.0169
  685DOPE   GL1 8027   5.013  15.631  10.443 -0.1414 -0.3441  0.4746
  685DOPE   GL2 8028   4.961  15.364  10.446 -0.3566 -0.0091  0.1353
  685DOPE   C1A 8029   4.995  15.839  10.864  0.0507  0.2686 -0.1106
  685DOPE   D2A 8030   4.906  16.260  11.069  0.0724 -0.0311  0.1376
  685DOPE   C3A 8031   4.896  16.606  11.386  0.2900 -0.2332 -0.2446
  685DOPE   C4A 8032   4.795  16.597  11.848  0.0122  0.1496 -0.2304
  685DOPE   C1B 8033   5.297  15.425  10.715  0.0440  0.0309  0.2569
  685DOPE   D2B 8034   5.457  15.660  11.083  0.2523 -0.0953  0.2039
  685DOPE   C3B 8035   5.112  15.794  11.395  0.1149 -0.2077 -0.3053
  685DOPE   C4B 8036   5.076  16.177  11.651  0.1400  0.2581 -0.2713
  686DOPC   NC3 8037   1.827  13.898   9.860  0.0037 -0.2252  0.0895
  686DOPC   PO4 8038   1.995  13.844  10.238  0.0564  0.0837 -0.6133
  686DOPC   GL1 8039   1.748  14.067  10.450  0.3060 -0.0574 -0.3469
  686DOPC   GL2 8040   1.641  13.824  10.688 -0.0776 -0.2346  0.0429
  686DOPC   C1A 8041   1.843  14.332  10.835 -0.0247 -0.0167 -0.1830
  686DOPC   D2A 8042   1.945  14.648  11.131 -0.0884 -0.3496  0.1922
  686DOPC   C3A 8043   2.018  14.788  11.589  0.1435 -0.2666 -0.0796
  686DOPC   C4A 8044   2.259  15.117  11.894 -0.0197 -0.1209  0.1375
  686DOPC   C1B 8045   1.488  13.658  11.057  0.3255 -0.0784  0.1526
  686DOPC   D2B 8046   1.423  13.890  11.431  0.2226 -0.1628  0.0421
  686DOPC   C3B 8047   1.265  14.043  11.866 -0.1832  0.0644  0.0307
  686DOPC   C4B 8048   0.886  13.910  12.160 -0.0488  0.0782  0.1962
  687DOPC   NC3 8049  10.034  21.884  10.036  0.2712  0.1881  0.1188
  687DOPC   PO4 8050   9.810  22.174   9.985  0.1953 -0.0236  0.0027
  687DOPC   GL1 8051   9.847  22.153  10.411  0.1073  0.1550 -0.1685
  687DOPC   GL2 8052  10.166  22.127  10.454  0.1199 -0.0539 -0.2237
  687DOPC   C1A 8053   9.474  22.102  10.656  0.2330 -0.1185 -0.0487
  687DOPC   D2A 8054   9.496  21.887  11.064  0.1251  0.0328 -0.1725
  687DOPC   C3A 8055   9.645  22.264  11.273 -0.3970  0.0961 -0.2688
  687DOPC   C4A 8056   9.626  22.515  11.651 -0.2794 -0.1905  0.1790
  687DOPC   C1B 8057   9.960  21.863  10.706  0.1641  0.1666 -0.0658
  687DOPC   D2B 8058  10.096  21.960  11.164 -0.0068  0.0866  0.0715
  687DOPC   C3B 8059   9.939  21.981  11.586  0.1268  0.0101  0.4301
  687DOPC   C4B 8060  10.007  22.261  11.962 -0.0398  0.2471 -0.0546
  688POSM   NC3 8061   3.652  21.034   9.986  0.4359 -0.2608  0.2336
  688POSM   PO4 8062   3.625  20.668  10.210  0.0424  0.2197  0.0138
  688POSM   AM1 8063   3.724  20.652  10.501 -0.3210  0.0062  0.1073
  688POSM   AM2 8064   3.642  20.495  10.758  0.1145  0.0848 -0.0193
  688POSM   T1A 8065   3.904  20.811  10.935  0.1217 -0.2389 -0.0849
  688POSM   C2A 8066   4.114  20.747  11.309 -0.0266 -0.0556 -0.1882
  688POSM   C3A 8067   4.204  20.998  11.680  0.0720  0.2989 -0.0908
  688POSM   C1B 8068   3.566  20.435  11.089  0.2644 -0.0049  0.2438
  688POSM   D2B 8069   3.730  20.600  11.512  0.0819 -0.0095 -0.0912
  688POSM   C3B 8070   3.884  20.695  11.983 -0.1409  0.0110 -0.0262
  688POSM   C4B 8071   3.766  20.844  12.376  0.0712  0.1295 -0.0364
  689DOPE   NH3 8072   5.155  13.286  10.648  0.2181 -0.0533  0.2951
  689DOPE   PO4 8073   4.932  13.370  10.814  0.1040 -0.1632  0.0899
  689DOPE   GL1 8074   4.937  13.595  11.083  0.1657 -0.3263  0.0348
  689DOPE   GL2 8075   5.108  13.852  11.130  0.3045 -0.1124  0.2926
  689DOPE   C1A 8076   4.621  13.827  11.295  0.1821  0.0240 -0.1285
  689DOPE   D2A 8077   4.552  14.271  11.507  0.4309  0.2263 -0.0279
  689DOPE   C3A 8078   4.556  14.283  11.985  0.0689  0.0914  0.0726
  689DOPE   C4A 8079   4.724  14.197  12.404 -0.0836  0.0076  0.4341
  689DOPE   C1B 8080   5.010  14.019  11.558 -0.0296 -0.0888 -0.2495
  689DOPE   D2B 8081   5.042  14.149  12.005 -0.0067  0.1008  0.1500
  689DOPE   C3B 8082   5.487  14.155  12.112 -0.0334  0.2110 -0.0177
  689DOPE   C4B 8083   5.918  13.992  11.960 -0.5095 -0.1288  0.0650
  690DOPS   CNO 8084   2.848  15.723   9.740 -0.0198  0.2044  0.0621
  690DOPS   PO4 8085   3.143  15.861   9.877 -0.1118 -0.2700 -0.1238
  690DOPS   GL1 8086   2.995  15.725  10.177  0.2483  0.4430 -0.2826
  690DOPS   GL2 8087   2.706  15.692  10.246 -0.2898 -0.2032  0.2544
  690DOPS   C1A 8088   2.853  16.010  10.556 -0.1451 -0.1962 -0.0293
  690DOPS   D2A 8089   2.831  15.859  10.964 -0.0585  0.2450 -0.4430
  690DOPS   C3A 8090   2.970  15.872  11.424 -0.0650  0.2978 -0.1782
  690DOPS   C4A 8091   2.929  15.694  11.881  0.0176 -0.0516 -0.2608
  690DOPS   C1B 8092   2.843  15.423  10.634 -0.0357 -0.4281  0.3972
  690DOPS   D2B 8093   2.568  15.293  10.972 -0.0954  0.0011 -0.1550
  690DOPS   C3B 8094   2.642  15.475  11.431 -0.2481 -0.0476  0.1822
  690DOPS   C4B 8095   2.925  15.236  11.657  0.3279  0.2666 -0.2164
  691DOPC   NC3 8096   4.506  22.439  10.228 -0.1027 -0.0458  0.1030
  691DOPC   PO4 8097   4.114  22.338  10.106  0.0840 -0.1553 -0.0549
  691DOPC   GL1 8098   4.145  22.503  10.547  0.3048  0.3922  0.3068
  691DOPC   GL2 8099   3.990  22.318  10.750 -0.0363 -0.0709  0.3234
  691DOPC   C1A 8100   4.466  22.824  10.660  0.1516  0.3228 -0.1336
  691DOPC   D2A 8101   4.935  22.892  10.773  0.1728  0.0868  0.4123
  691DOPC   C3A 8102   4.802  23.128  11.194 -0.1957 -0.0929  0.1033
  691DOPC   C4A 8103   4.762  23.057  11.656 -0.2611 -0.0437 -0.1897
  691DOPC   C1B 8104   4.063  22.556  11.164  0.0454 -0.2464 -0.1286
  691DOPC   D2B 8105   3.859  22.659  11.546 -0.0168  0.0208 -0.4139
  691DOPC   C3B 8106   3.519  22.489  11.827  0.1558 -0.2114 -0.0662
  691DOPC   C4B 8107   3.302  22.457  12.204  0.2046  0.0973 -0.1531
  692DOPE   NH3 8108   1.369  14.836   9.738 -0.2104  0.0043 -0.0771
  692DOPE   PO4 8109   1.050  14.863   9.828 -0.1594 -0.4366  0.0581
  692DOPE   GL1 8110   0.917  14.914  10.219 -0.1865 -0.4547  0.0730
  692DOPE   GL2 8111   1.152  14.795  10.435  0.1436 -0.0687  0.0733
  692DOPE   C1A 8112   0.797  15.160  10.651 -0.0443 -0.0231  0.3696
  692DOPE   D2A 8113   0.703  15.136  11.058 -0.0657 -0.0703 -0.4657
  692DOPE   C3A 8114   0.305  15.352  11.067  0.0026 -0.0766  0.2277
  692DOPE   C4A 8115   0.048  15.668  11.256 -0.0218  0.1132  0.1700
  692DOPE   C1B 8116   1.079  14.811  10.870  0.0765 -0.3368 -0.2806
  692DOPE   D2B 8117   1.039  14.842  11.344 -0.0887 -0.0336  0.1895
  692DOPE   C3B 8118   0.634  15.020  11.504 -0.1387  0.1713 -0.5033
  692DOPE   C4B 8119   0.216  15.039  11.691  0.1175 -0.2456  0.0183
  693DOPE   NH3 8120   4.417  16.488   9.819  0.1253 -0.1390 -0.0647
  693DOPE   PO4 8121   4.661  16.563   9.966  0.0528  0.0604 -0.0688
  693DOPE   GL1 8122   4.713  16.375  10.287  0.0148 -0.0745  0.0206
  693DOPE   GL2 8123   4.972  16.368  10.483  0.2496 -0.0115  0.2958
  693DOPE   C1A 8124   4.408  16.353  10.641  0.3515 -0.0945 -0.0934
  693DOPE   D2A 8125   4.413  16.435  11.078 -0.1178  0.0301 -0.2229
  693DOPE   C3A 8126   4.562  16.088  11.382 -0.0179 -0.0018 -0.2823
  693DOPE   C4A 8127   4.598  15.643  11.294 -0.0096 -0.1774  0.3421
  693DOPE   C1B 8128   4.744  16.672  10.763 -0.3108 -0.0210 -0.4308
  693DOPE   D2B 8129   4.559  16.946  11.076  0.1309 -0.1012 -0.0561
  693DOPE   C3B 8130   4.635  17.310  11.323 -0.0886  0.0113  0.0763
  693DOPE   C4B 8131   4.768  17.505  11.688  0.0944 -0.2493  0.2342
  694POSM   NC3 8132   9.314  17.704   9.014 -0.0750 -0.0486 -0.0565
  694POSM   PO4 8133   9.577  17.792   9.256 -0.1647 -0.0150 -0.1585
  694POSM   AM1 8134   9.676  17.858   9.560 -0.3075  0.3079  0.0506
  694POSM   AM2 8135   9.795  17.698   9.772  0.2366  0.2227 -0.0365
  694POSM   T1A 8136   9.636  18.065  10.030 -0.2087  0.0248  0.0454
  694POSM   C2A 8137   9.716  18.504  10.211  0.0014  0.1466  0.0190
  694POSM   C3A 8138   9.813  18.731  10.588 -0.1724 -0.0194 -0.1632
  694POSM   C1B 8139  10.074  17.806   9.967 -0.0925 -0.3710 -0.3617
  694POSM   D2B 8140  10.418  17.745  10.283 -0.3366  0.2181 -0.0490
  694POSM   C3B 8141  10.824  17.547  10.299 -0.0248 -0.0347  0.2022
  694POSM   C4B 8142  11.254  17.647  10.232  0.2435  0.3336 -0.1483
  695POSM   NC3 8143  10.841  20.454   9.668 -0.0428  0.0844 -0.0246
  695POSM   PO4 8144  10.576  20.681   9.466  0.1271 -0.2905 -0.1435
  695POSM   AM1 8145  10.418  20.710   9.750  0.1384 -0.2685 -0.0310
  695POSM   AM2 8146  10.488  20.809  10.021 -0.1162 -0.0131  0.2241
  695POSM   T1A 8147  10.131  20.522  10.122  0.0150 -0.1950  0.0431
  695POSM   C2A 8148   9.736  20.362  10.231  0.0881  0.1142  0.1007
  695POSM   C3A 8149   9.409  20.174  10.564 -0.0805  0.1465 -0.0671
  695POSM   C1B 8150  10.714  20.615  10.155  0.0580  0.0199  0.0990
  695POSM   D2B 8151  10.824  20.616  10.627  0.1613  0.1513  0.2983
  695POSM   C3B 8152  10.833  20.369  10.986 -0.3005 -0.5011 -0.1484
  695POSM   C4B 8153  10.888  20.362  11.439 -0.0980 -0.1769  0.0551
  696DOPC   NC3 8154   0.141  16.688  10.060  0.2667 -0.0193  0.2254
  696DOPC   PO4 8155   0.303  17.038  10.105 -0.1254  0.1668  0.0339
  696DOPC   GL1 8156   0.175  17.280  10.417  0.1367  0.3742 -0.2469
  696DOPC   GL2 8157   0.225  17.041  10.628  0.1929  0.0374 -0.2464
  696DOPC   C1A 8158  -0.120  17.462  10.769 -0.0093  0.2030 -0.2677
  696DOPC   D2A 8159  -0.077  17.794  11.001  0.1222 -0.3601 -0.1109
  696DOPC   C3A 8160  -0.017  17.757  11.452  0.0023 -0.0174  0.1700
  696DOPC   C4A 8161  -0.219  17.563  11.796 -0.1527  0.1752 -0.0601
  696DOPC   C1B 8162  -0.025  16.996  11.003 -0.0106  0.1202  0.0230
  696DOPC   D2B 8163  -0.077  17.180  11.461  0.0990  0.0562 -0.0624
  696DOPC   C3B 8164   0.270  17.326  11.704  0.2668  0.3649 -0.2535
  696DOPC   C4B 8165   0.358  17.756  11.843 -0.2604 -0.0969  0.1181
  697DOPC   NC3 8166   3.786  19.943   9.773  0.0181  0.1527  0.2313
  697DOPC   PO4 8167   3.632  19.813  10.119  0.2820 -0.0701 -0.0417
  697DOPC   GL1 8168   3.707  19.952  10.490 -0.2493 -0.1219 -0.2159
  697DOPC   GL2 8169   3.451  20.050  10.656  0.2885  0.0648 -0.2932
  697DOPC   C1A 8170   4.020  20.230  10.628 -0.2708 -0.0668  0.3034
  697DOPC   D2A 8171   4.234  20.421  10.978  0.0382 -0.1503  0.1664
  697DOPC   C3A 8172   4.389  20.183  11.272 -0.1314 -0.3128  0.0159
  697DOPC   C4A 8173   4.619  20.088  11.698 -0.2733 -0.1134  0.3650
  697DOPC   C1B 8174   3.376  19.990  11.095  0.0464 -0.0191  0.1559
  697DOPC   D2B 8175   3.287  19.987  11.517  0.0936 -0.1181  0.0398
  697DOPC   C3B 8176   2.842  20.000  11.620  0.1345 -0.4111  0.2684
  697DOPC   C4B 8177   2.422  20.231  11.704  0.0785  0.0719 -0.0414
  698DOPC   NC3 8178   6.532  18.259   9.790 -0.3287 -0.1278  0.0850
  698DOPC   PO4 8179   6.603  18.640   9.853  0.2659 -0.0092  0.1191
  698DOPC   GL1 8180   6.362  18.707  10.190 -0.0320  0.0184  0.1673
  698DOPC   GL2 8181   6.301  18.396  10.196  0.1111 -0.2039 -0.2389
  698DOPC   C1A 8182   6.367  19.067  10.445  0.1913 -0.0975  0.3858
  698DOPC   D2A 8183   6.538  19.063  10.857  0.1038  0.1223 -0.1711
  698DOPC   C3A 8184   6.950  18.995  10.967  0.1058  0.0963 -0.0340
  698DOPC   C4A 8185   7.267  18.638  11.006 -0.2488  0.0089 -0.1511
  698DOPC   C1B 8186   6.221  18.603  10.607 -0.0986 -0.0396  0.0845
  698DOPC   D2B 8187   6.076  18.844  10.941 -0.1874 -0.1749  0.1519
  698DOPC   C3B 8188   6.318  18.829  11.311 -0.1132  0.1210 -0.1997
  698DOPC   C4B 8189   6.731  18.692  11.395 -0.2296 -0.2451  0.1107
  699POSM   NC3 8190   2.267  14.807   9.698  0.0286 -0.0114 -0.1551
  699POSM   PO4 8191   2.264  14.786  10.091 -0.0770 -0.2725  0.1913
  699POSM   AM1 8192   2.168  14.786  10.406  0.0539 -0.2834  0.1036
  699POSM   AM2 8193   2.221  14.555  10.621  0.0695 -0.3764  0.3007
  699POSM   T1A 8194   2.168  14.958  10.880 -0.0063  0.1285  0.1826
  699POSM   C2A 8195   2.449  14.857  11.217 -0.0219 -0.1779  0.1291
  699POSM   C3A 8196   2.515  14.746  11.656  0.0542 -0.1095  0.0985
  699POSM   C1B 8197   2.362  14.462  10.961  0.2420 -0.0801  0.2618
  699POSM   D2B 8198   2.257  14.336  11.393 -0.2431  0.1937  0.0748
  699POSM   C3B 8199   2.255  13.835  11.496 -0.2583 -0.0264 -0.0468
  699POSM   C4B 8200   2.227  13.405  11.778 -0.1797 -0.0445 -0.0397
  700DOPC   NC3 8201   3.160  23.582  10.762 -0.0054  0.0812 -0.0944
  700DOPC   PO4 8202   3.495  23.400  10.603 -0.0035 -0.2410 -0.0670
  700DOPC   GL1 8203   3.545  23.485  11.005  0.0677  0.1402  0.0258
  700DOPC   GL2 8204   3.665  23.221  11.054 -0.0581  0.1899 -0.0021
  700DOPC   C1A 8205   3.362  23.376  11.418  0.0952 -0.0491 -0.2030
  700DOPC   D2A 8206   3.385  22.991  11.728  0.0815  0.2206 -0.2572
  700DOPC   C3A 8207   3.387  22.854  11.253 -0.1319 -0.2058 -0.1407
  700DOPC   C4A 8208   3.128  22.583  10.980  0.1909 -0.0813 -0.0441
  700DOPC   C1B 8209   3.851  23.231  11.520 -0.2036  0.1243 -0.0510
  700DOPC   D2B 8210   3.838  23.002  11.942  0.3130 -0.1597  0.0344
  700DOPC   C3B 8211   3.709  22.781  12.362  0.0079  0.0852  0.1300
  700DOPC   C4B 8212   3.352  22.860  12.650 -0.3577  0.2361 -0.1398
  701POSM   NC3 8213  11.901  17.415   8.642 -0.2801 -0.0511 -0.2131
  701POSM   PO4 8214  11.599  17.367   8.890  0.2247  0.0667  0.0952
  701POSM   AM1 8215  11.728  17.495   9.163 -0.1118  0.0751  0.1622
  701POSM   AM2 8216  11.569  17.545   9.391 -0.0871 -0.0713  0.0603
  701POSM   T1A 8217  12.042  17.413   9.544 -0.0765  0.2609  0.1755
  701POSM   C2A 8218  12.031  17.435   9.957 -0.1813 -0.0238  0.1371
  701POSM   C3A 8219  12.190  17.398  10.455  0.2518  0.1202  0.0722
  701POSM   C1B 8220  11.287  17.433   9.534  0.1006  0.0333 -0.0604
  701POSM   D2B 8221  10.975  17.308   9.839 -0.2013 -0.1501  0.2544
  701POSM   C3B 8222  11.128  17.120  10.240  0.3898  0.1823  0.3269
  701POSM   C4B 8223  11.280  16.942  10.605 -0.2799 -0.0300 -0.1531
  702DOPS   CNO 8224   7.643  12.850  10.371 -0.1752 -0.2451  0.1256
  702DOPS   PO4 8225   7.718  12.762  10.735 -0.0008  0.0370 -0.0263
  702DOPS   GL1 8226   7.810  13.056  10.981  0.1658 -0.2323 -0.0003
  702DOPS   GL2 8227   8.099  13.016  10.934 -0.0991  0.1466  0.1489
  702DOPS   C1A 8228   7.929  13.500  11.091 -0.3101 -0.1618  0.0269
  702DOPS   D2A 8229   7.719  13.893  11.086 -0.3702  0.0277  0.0324
  702DOPS   C3A 8230   7.823  14.332  11.146  0.1995  0.2623 -0.0481
  702DOPS   C4A 8231   7.688  14.631  11.498  0.0034  0.0694 -0.0401
  702DOPS   C1B 8232   8.326  13.304  11.220  0.1295 -0.0009  0.0821
  702DOPS   D2B 8233   8.607  13.407  11.541 -0.1381 -0.1060 -0.1571
  702DOPS   C3B 8234   8.552  13.415  12.019 -0.4394 -0.2931  0.1778
  702DOPS   C4B 8235   8.514  13.518  12.480 -0.0946  0.0813  0.1192
  703DOPC   NC3 8236   3.586  16.737  10.078  0.1638  0.2405 -0.0712
  703DOPC   PO4 8237   3.950  16.943   9.941  0.1346 -0.1844 -0.4945
  703DOPC   GL1 8238   4.147  17.169  10.234  0.1273  0.0907 -0.0955
  703DOPC   GL2 8239   3.995  17.310  10.351  0.2173  0.1640  0.0282
  703DOPC   C1A 8240   4.470  17.160  10.584 -0.0682  0.0572 -0.1626
  703DOPC   D2A 8241   4.816  17.326  10.778 -0.0683  0.1151 -0.1223
  703DOPC   C3A 8242   4.953  17.667  11.079 -0.1161 -0.1439 -0.1468
  703DOPC   C4A 8243   5.207  18.065  11.214 -0.1521  0.2228  0.0103
  703DOPC   C1B 8244   3.798  17.270  10.782  0.2847  0.0525  0.1168
  703DOPC   D2B 8245   3.808  17.276  11.204  0.0510 -0.1671  0.1201
  703DOPC   C3B 8246   3.642  17.021  11.567 -0.1955  0.0388 -0.0658
  703DOPC   C4B 8247   3.701  16.777  11.993 -0.1367 -0.0222  0.1134
  704DOPS   CNO 8248   0.722  23.005  10.169 -0.2946 -0.2116  0.1170
  704DOPS   PO4 8249   0.803  23.092  10.542  0.0661  0.3528  0.3175
  704DOPS   GL1 8250   0.814  23.292  10.934 -0.2293  0.1275 -0.1236
  704DOPS   GL2 8251   0.607  23.109  11.067  0.0105 -0.1836 -0.1447
  704DOPS   C1A 8252   1.204  23.260  11.177  0.1517  0.0060  0.0961
  704DOPS   D2A 8253   1.503  23.560  11.346  0.0808  0.4575 -0.1803
  704DOPS   C3A 8254   1.593  23.630  11.814  0.0521 -0.2311 -0.1477
  704DOPS   C4A 8255   1.324  23.717  12.115  0.0017 -0.1549 -0.1112
  704DOPS   C1B 8256   0.237  23.304  11.300 -0.1117 -0.1764  0.2944
  704DOPS   D2B 8257  -0.203  23.268  11.440 -0.0729 -0.1013  0.0605
  704DOPS   C3B 8258  -0.308  23.122  11.913 -0.1563 -0.1663 -0.0449
  704DOPS   C4B 8259  -0.262  22.732  12.208 -0.0176 -0.1319 -0.0933
  705DOPE   NH3 8260   4.611  20.367   9.518  0.1487  0.2637  0.0381
  705DOPE   PO4 8261   4.730  20.532   9.755  0.0012  0.0563 -0.3950
  705DOPE   GL1 8262   4.899  20.485  10.111  0.2652  0.2534  0.1629
  705DOPE   GL2 8263   4.906  20.155  10.060 -0.1338  0.0088 -0.0128
  705DOPE   C1A 8264   5.071  20.337  10.507 -0.0910 -0.0336  0.0901
  705DOPE   D2A 8265   5.153  20.486  10.977  0.1598  0.1166 -0.2624
  705DOPE   C3A 8266   5.536  20.423  11.280 -0.1598  0.1823  0.1930
  705DOPE   C4A 8267   5.661  20.566  11.707  0.1057 -0.2316 -0.1245
  705DOPE   C1B 8268   5.013  19.862  10.419  0.2449 -0.0605 -0.1768
  705DOPE   D2B 8269   5.181  19.452  10.563  0.1605 -0.4384  0.4022
  705DOPE   C3B 8270   5.405  19.414  10.951  0.0048  0.1328  0.1562
  705DOPE   C4B 8271   5.615  19.415  11.365  0.4003  0.0077  0.1978
  706DOPE   NH3 8272   8.672  13.717  10.158 -0.0426  0.1480 -0.1483
  706DOPE   PO4 8273   8.717  14.034  10.230  0.3404 -0.0264  0.1947
  706DOPE   GL1 8274   8.758  14.302  10.417  0.2217 -0.1827 -0.2596
  706DOPE   GL2 8275   9.035  14.421  10.437 -0.3126  0.0732 -0.3033
  706DOPE   C1A 8276   8.619  14.444  10.830 -0.2439  0.0944 -0.0102
  706DOPE   D2A 8277   8.322  14.493  11.144 -0.4458  0.0626 -0.0145
  706DOPE   C3A 8278   8.314  14.603  11.598  0.2985 -0.0849 -0.0655
  706DOPE   C4A 8279   8.075  14.502  11.959 -0.0508 -0.0648  0.0463
  706DOPE   C1B 8280   9.169  14.552  10.843  0.0724 -0.2100  0.1989
  706DOPE   D2B 8281   9.277  14.650  11.277 -0.0754  0.0907  0.2023
  706DOPE   C3B 8282   9.645  14.708  11.517 -0.1985  0.0918  0.0702
  706DOPE   C4B 8283   9.679  14.777  11.960  0.0608 -0.5743  0.0759
  707DOPE   NH3 8284   8.544  15.031   9.642  0.2006  0.2504 -0.1940
  707DOPE   PO4 8285   8.556  15.301   9.801  0.2664 -0.3858  0.0208
  707DOPE   GL1 8286   8.781  15.347  10.158  0.2134  0.2798 -0.0149
  707DOPE   GL2 8287   8.568  15.247  10.355  0.3167  0.0091 -0.0420
  707DOPE   C1A 8288   8.961  15.409  10.612 -0.1841  0.0429  0.1630
  707DOPE   D2A 8289   8.927  15.601  11.041 -0.0604  0.3155  0.0292
  707DOPE   C3A 8290   8.791  15.878  11.273 -0.0407  0.0640 -0.1031
  707DOPE   C4A 8291   8.781  16.189  11.570 -0.0242 -0.0143 -0.1626
  707DOPE   C1B 8292   8.428  15.401  10.784 -0.3992 -0.0578 -0.0437
  707DOPE   D2B 8293   8.541  15.448  11.268  0.2071 -0.0683 -0.0856
  707DOPE   C3B 8294   8.355  15.224  11.650  0.1775  0.2189  0.0048
  707DOPE   C4B 8295   7.939  14.951  11.754 -0.0502 -0.0297 -0.1593
  708DOPC   NC3 8296   4.026  14.277  10.419  0.0509 -0.1133 -0.1233
  708DOPC   PO4 8297   4.187  14.630  10.179  0.1084  0.4059 -0.1578
  708DOPC   GL1 8298   4.318  14.565  10.581  0.3094 -0.2887  0.1567
  708DOPC   GL2 8299   4.466  14.341  10.555  0.0435  0.0964  0.2841
  708DOPC   C1A 8300   4.541  14.755  10.945 -0.0247 -0.0731 -0.1408
  708DOPC   D2A 8301   4.613  14.739  11.373  0.0485  0.0264 -0.0138
  708DOPC   C3A 8302   4.441  15.080  11.669 -0.0336  0.0508 -0.0506
  708DOPC   C4A 8303   4.284  15.502  11.796 -0.1588  0.2157 -0.4287
  708DOPC   C1B 8304   4.657  14.292  10.982  0.1819  0.2229 -0.2849
  708DOPC   D2B 8305   5.045  14.410  11.268  0.1321  0.1655  0.1592
  708DOPC   C3B 8306   4.921  14.571  11.692 -0.1425 -0.1464 -0.1973
  708DOPC   C4B 8307   4.830  14.854  12.035  0.1936  0.1060  0.0239
  709DOPS   CNO 8308  12.383  17.994   8.594  0.0325  0.0125  0.0332
  709DOPS   PO4 8309  12.253  17.770   8.858  0.0419 -0.0566 -0.0141
  709DOPS   GL1 8310  12.137  17.746   9.151 -0.1698  0.4684 -0.0984
  709DOPS   GL2 8311  12.289  17.790   9.451  0.0081 -0.2149 -0.0593
  709DOPS   C1A 8312  11.832  17.928   9.461 -0.0909 -0.1464 -0.0385
  709DOPS   D2A 8313  11.490  18.221   9.592 -0.1480  0.2416  0.0321
  709DOPS   C3A 8314  11.407  18.156  10.011  0.0629 -0.1640 -0.1226
  709DOPS   C4A 8315  11.365  18.161  10.463 -0.1905 -0.0506 -0.1227
  709DOPS   C1B 8316  12.186  17.958   9.826 -0.0612 -0.3387  0.1904
  709DOPS   D2B 8317  11.881  18.186  10.068 -0.0456  0.0365  0.0764
  709DOPS   C3B 8318  11.575  18.576  10.201 -0.0305  0.0631  0.0663
  709DOPS   C4B 8319  11.237  18.697  10.439 -0.0652  0.2148 -0.2411
  710DOPS   CNO 8320   7.523  20.832   9.645  0.2768  0.0206  0.0884
  710DOPS   PO4 8321   7.375  21.062   9.900 -0.1723 -0.1971 -0.1709
  710DOPS   GL1 8322   7.706  21.016  10.196  0.0419  0.2237 -0.3552
  710DOPS   GL2 8323   7.506  21.159  10.355  0.0499 -0.0636 -0.0807
  710DOPS   C1A 8324   8.034  20.772  10.428 -0.0467 -0.2200  0.1677
  710DOPS   D2A 8325   8.413  20.638  10.640 -0.0057 -0.0244  0.2395
  710DOPS   C3A 8326   8.664  20.693  11.012 -0.2152 -0.1607 -0.2377
  710DOPS   C4A 8327   9.122  20.835  11.003 -0.1024  0.0307  0.0921
  710DOPS   C1B 8328   7.877  21.339  10.442  0.1975  0.1515  0.0833
  710DOPS   D2B 8329   8.139  21.713  10.655  0.3707 -0.1472 -0.3476
  710DOPS   C3B 8330   8.330  21.673  11.073 -0.1771  0.0594 -0.0826
  710DOPS   C4B 8331   8.280  21.676  11.585 -0.1631 -0.2564  0.1971
  711DOPC   NC3 8332   7.604  19.977   9.850 -0.0234 -0.2023 -0.2230
  711DOPC   PO4 8333   7.782  19.644   9.823  0.1285 -0.1961  0.1772
  711DOPC   GL1 8334   7.512  19.701  10.151 -0.0153  0.1052  0.2661
  711DOPC   GL2 8335   7.624  19.634  10.419 -0.2045  0.2440  0.0061
  711DOPC   C1A 8336   7.495  20.156  10.265  0.1423  0.2667 -0.1076
  711DOPC   D2A 8337   7.593  20.598  10.435 -0.1346  0.0277 -0.1275
  711DOPC   C3A 8338   7.419  20.886  10.777  0.2218 -0.0418  0.1847
  711DOPC   C4A 8339   7.717  20.895  11.143 -0.0722  0.2748  0.3712
  711DOPC   C1B 8340   7.581  19.960  10.798 -0.1566  0.1704 -0.0354
  711DOPC   D2B 8341   7.748  19.950  11.253 -0.0963  0.4278 -0.2509
  711DOPC   C3B 8342   8.124  19.911  11.502 -0.2215  0.1012 -0.0129
  711DOPC   C4B 8343   8.592  20.007  11.527 -0.2229 -0.0980  0.1070
  712DOPS   CNO 8344   3.786  16.262  10.221  0.0185 -0.0674 -0.0009
  712DOPS   PO4 8345   3.952  16.401   9.930 -0.0478  0.2793  0.0149
  712DOPS   GL1 8346   4.054  16.606  10.284  0.1337 -0.4279  0.1016
  712DOPS   GL2 8347   4.337  16.745  10.338  0.0506 -0.2608 -0.0289
  712DOPS   C1A 8348   3.690  16.657  10.570 -0.0624  0.2231 -0.3085
  712DOPS   D2A 8349   3.519  16.807  10.953 -0.1495  0.0038 -0.1690
  712DOPS   C3A 8350   3.275  16.710  11.357  0.2145 -0.0264 -0.2859
  712DOPS   C4A 8351   3.240  16.756  11.764  0.1210 -0.0845  0.0985
  712DOPS   C1B 8352   4.100  16.845  10.718  0.0327  0.0004 -0.1287
  712DOPS   D2B 8353   4.075  16.834  11.187  0.2066 -0.1162 -0.1526
  712DOPS   C3B 8354   4.186  16.609  11.600  0.1459  0.2581 -0.0517
  712DOPS   C4B 8355   3.959  16.240  11.867  0.2100 -0.0005  0.2335
  713DOPS   CNO 8356   3.146  18.005   9.923  0.0071  0.0320 -0.4141
  713DOPS   PO4 8357   3.080  18.171  10.246 -0.0883 -0.2096 -0.1066
  713DOPS   GL1 8358   3.390  18.358  10.323 -0.6319  0.0254  0.3823
  713DOPS   GL2 8359   3.635  18.456  10.374 -0.0971  0.2350  0.3267
  713DOPS   C1A 8360   3.478  18.222  10.773  0.2894 -0.1214 -0.1802
  713DOPS   D2A 8361   3.572  18.008  11.213 -0.1495 -0.2393  0.1308
  713DOPS   C3A 8362   3.924  17.821  11.441  0.1948 -0.2562  0.0478
  713DOPS   C4A 8363   4.199  17.494  11.533 -0.0456 -0.1362  0.0081
  713DOPS   C1B 8364   3.589  18.699  10.757  0.3041  0.1720 -0.3375
  713DOPS   D2B 8365   3.588  19.058  11.040  0.1370  0.2366 -0.1698
  713DOPS   C3B 8366   3.808  19.286  11.385  0.2669  0.1051 -0.1821
  713DOPS   C4B 8367   3.724  19.377  11.798  0.1158 -0.1797  0.0290
  714DOPC   NC3 8368   1.180  24.445  10.132 -0.1902 -0.0692  0.0609
  714DOPC   PO4 8369   0.836  24.554  10.242 -0.0003  0.0975 -0.1914
  714DOPC   GL1 8370   0.819  24.490  10.654 -0.1866  0.3344  0.2789
  714DOPC   GL2 8371   0.649  24.361  10.778 -0.0257  0.0324 -0.0951
  714DOPC   C1A 8372   1.029  24.145  10.964 -0.3045 -0.3873  0.4067
  714DOPC   D2A 8373   1.078  23.743  11.183  0.1796  0.0012  0.1204
  714DOPC   C3A 8374   1.031  23.780  11.658  0.0671  0.1863 -0.0416
  714DOPC   C4A 8375   0.823  23.807  12.085 -0.0482 -0.0310 -0.0939
  714DOPC   C1B 8376   0.632  24.252  11.241 -0.0090 -0.0340  0.1710
  714DOPC   D2B 8377   0.554  24.050  11.622 -0.2655 -0.1653 -0.0443
  714DOPC   C3B 8378   0.448  24.098  12.032  0.0819  0.1874  0.0665
  714DOPC   C4B 8379   0.527  24.376  12.395 -0.0098  0.0443 -0.2328
  715DOPE   NH3 8380   7.050  11.987  11.121  0.0434 -0.1145 -0.0921
  715DOPE   PO4 8381   7.316  12.063  11.260  0.1415 -0.4019  0.3375
  715DOPE   GL1 8382   7.433  12.059  11.626 -0.5825 -0.0255 -0.0499
  715DOPE   GL2 8383   7.525  11.853  11.743  0.0921 -0.1076  0.2648
  715DOPE   C1A 8384   7.875  12.240  11.761  0.1228 -0.0898  0.0242
  715DOPE   D2A 8385   8.266  12.458  11.599 -0.1539 -0.2149 -0.0712
  715DOPE   C3A 8386   8.538  12.525  11.951 -0.2837 -0.1504 -0.0732
  715DOPE   C4A 8387   8.842  12.503  12.316 -0.1182  0.1167 -0.1525
  715DOPE   C1B 8388   7.691  11.850  12.193 -0.2150 -0.1583  0.1335
  715DOPE   D2B 8389   8.032  11.989  12.527 -0.4304  0.0627  0.1591
  715DOPE   C3B 8390   7.829  11.848  12.888  0.0281 -0.1056 -0.4884
  715DOPE   C4B 8391   7.482  11.781  13.210 -0.1111  0.0324 -0.1289
  716DOPE   NH3 8392   1.040  24.903  10.600  0.2753  0.0221  0.1518
  716DOPE   PO4 8393   1.256  24.668  10.662  0.0030  0.1943  0.1888
  716DOPE   GL1 8394   1.175  24.772  10.996 -0.1279  0.0880  0.0702
  716DOPE   GL2 8395   0.867  24.695  11.045 -0.0927 -0.0379 -0.0025
  716DOPE   C1A 8396   1.514  24.730  11.295 -0.1268  0.2727 -0.0650
  716DOPE   D2A 8397   1.808  24.558  11.636  0.2710 -0.1307  0.1457
  716DOPE   C3A 8398   1.698  24.514  12.109 -0.2013 -0.1490  0.4139
  716DOPE   C4A 8399   1.432  24.577  12.421 -0.1245  0.0733  0.1027
  716DOPE   C1B 8400   1.107  24.496  11.397  0.0987  0.1986  0.1863
  716DOPE   D2B 8401   1.335  24.637  11.805  0.1221  0.0941  0.2189
  716DOPE   C3B 8402   1.276  24.981  12.127 -0.1348 -0.2589  0.0510
  716DOPE   C4B 8403   1.363  25.173  12.478 -0.3279  0.2780  0.3196
  717POSM   NC3 8404   4.981  12.630  10.987 -0.1137  0.1061  0.1275
  717POSM   PO4 8405   5.167  12.970  11.022 -0.3095  0.1283 -0.2870
  717POSM   AM1 8406   5.140  13.084  11.358 -0.2007 -0.0178 -0.1747
  717POSM   AM2 8407   4.916  13.107  11.567 -0.1583 -0.0027 -0.0975
  717POSM   T1A 8408   5.255  13.165  11.867  0.0484  0.1004 -0.1187
  717POSM   C2A 8409   5.167  13.263  12.298  0.1082  0.0303 -0.0500
  717POSM   C3A 8410   5.167  13.181  12.740  0.1416  0.2044 -0.1855
  717POSM   C1B 8411   4.790  13.428  11.646  0.0055  0.1930  0.0828
  717POSM   D2B 8412   4.523  13.746  11.820 -0.2645  0.2441 -0.3491
  717POSM   C3B 8413   4.168  13.997  11.638  0.0230  0.1109  0.0397
  717POSM   C4B 8414   4.037  14.455  11.607 -0.0957  0.0611  0.1383
  718DOPS   CNO 8415   7.045  19.189   9.711 -0.0467  0.4062  0.0607
  718DOPS   PO4 8416   7.155  19.413   9.999 -0.1425  0.2854  0.3034
  718DOPS   GL1 8417   7.258  19.322  10.385  0.0227  0.0039  0.1102
  718DOPS   GL2 8418   7.469  19.095  10.281  0.0732  0.1389  0.3066
  718DOPS   C1A 8419   7.421  19.227  10.802  0.0569 -0.1328  0.1565
  718DOPS   D2A 8420   7.401  19.140  11.196  0.0416  0.0975  0.0089
  718DOPS   C3A 8421   7.408  19.525  11.371  0.0580 -0.0795 -0.0677
  718DOPS   C4A 8422   7.323  19.761  11.747  0.0918 -0.1995  0.2448
  718DOPS   C1B 8423   7.841  19.222  10.512  0.2756 -0.0714 -0.0350
  718DOPS   D2B 8424   8.276  19.221  10.391 -0.1006  0.0234  0.3114
  718DOPS   C3B 8425   8.712  19.220  10.499  0.1510 -0.1858  0.0562
  718DOPS   C4B 8426   9.067  19.243  10.853  0.1502  0.1917  0.0652
  719DOPC   NC3 8427   4.336  12.416  10.420  0.0266 -0.1124 -0.1647
  719DOPC   PO4 8428   4.471  12.461  10.827 -0.0474  0.1797 -0.2911
  719DOPC   GL1 8429   4.369  12.567  11.185  0.0526 -0.2573  0.2906
  719DOPC   GL2 8430   4.356  12.219  11.245 -0.0315  0.0224  0.3655
  719DOPC   C1A 8431   4.463  12.595  11.638 -0.1099 -0.1293  0.0967
  719DOPC   D2A 8432   4.653  12.341  11.989 -0.0575  0.3372 -0.1039
  719DOPC   C3A 8433   4.440  12.049  12.294  0.0534  0.3713 -0.3114
  719DOPC   C4A 8434   4.422  11.872  12.689 -0.3536  0.1741 -0.1604
  719DOPC   C1B 8435   4.522  12.060  11.635 -0.3307 -0.2747  0.3884
  719DOPC   D2B 8436   4.824  11.902  11.871 -0.2096  0.1041 -0.1487
  719DOPC   C3B 8437   5.166  12.181  12.031  0.1035 -0.0846  0.2836
  719DOPC   C4B 8438   5.355  12.567  12.017 -0.1157  0.0050  0.2534
  720DOPE   NH3 8439   1.149  14.344   9.953  0.1314 -0.0780 -0.2429
  720DOPE   PO4 8440   1.402  14.451  10.091  0.0077 -0.1878  0.2232
  720DOPE   GL1 8441   1.422  14.391  10.525  0.2624  0.2732 -0.1131
  720DOPE   GL2 8442   1.099  14.239  10.532  0.1633  0.1016  0.0980
  720DOPE   C1A 8443   1.602  14.779  10.773 -0.1265 -0.1100  0.0736
  720DOPE   D2A 8444   1.655  15.043  11.107 -0.1824  0.3565 -0.0300
  720DOPE   C3A 8445   1.463  14.992  11.538 -0.1915 -0.2329 -0.1305
  720DOPE   C4A 8446   1.135  14.962  11.866 -0.2811 -0.0542  0.1667
  720DOPE   C1B 8447   1.355  14.236  10.913 -0.0111 -0.3559 -0.1826
  720DOPE   D2B 8448   1.450  14.576  11.218  0.2722  0.0138 -0.1703
  720DOPE   C3B 8449   1.426  14.494  11.711  0.2293  0.0381  0.0247
  720DOPE   C4B 8450   1.299  14.641  12.142  0.2849 -0.1550 -0.3811
  721DOPS   CNO 8451   5.456  12.537  10.777 -0.2461  0.0684  0.3839
  721DOPS   PO4 8452   5.420  12.288  11.070 -0.0911 -0.0148 -0.2696
  721DOPS   GL1 8453   5.382  12.627  11.234 -0.5221  0.0021  0.4999
  721DOPS   GL2 8454   5.248  12.667  11.515  0.1750 -0.1735 -0.1990
  721DOPS   C1A 8455   5.569  12.993  11.503 -0.1178 -0.3386  0.4960
  721DOPS   D2A 8456   5.687  13.363  11.768 -0.2534  0.0216  0.0661
  721DOPS   C3A 8457   6.087  13.502  11.728 -0.0127 -0.0053 -0.1609
  721DOPS   C4A 8458   6.433  13.767  11.874 -0.0441 -0.2933  0.0989
  721DOPS   C1B 8459   4.913  12.692  11.780  0.0000 -0.0184  0.3806
  721DOPS   D2B 8460   4.669  12.775  12.163  0.2270 -0.2617  0.0359
  721DOPS   C3B 8461   4.779  13.031  12.463  0.0606 -0.2003 -0.1701
  721DOPS   C4B 8462   4.691  13.216  12.838  0.0393 -0.3616  0.2378
  722DOPS   CNO 8463   5.833  19.290   9.721 -0.2366  0.2497  0.1828
  722DOPS   PO4 8464   5.711  18.933   9.792  0.1391 -0.2397 -0.1197
  722DOPS   GL1 8465   5.618  19.139  10.117 -0.0833  0.2395 -0.2440
  722DOPS   GL2 8466   5.853  18.957  10.292 -0.0342 -0.3106  0.0383
  722DOPS   C1A 8467   5.826  19.491  10.345  0.1215  0.1774  0.3034
  722DOPS   D2A 8468   6.212  19.644  10.562 -0.1724 -0.2781 -0.3454
  722DOPS   C3A 8469   6.370  19.469  10.912 -0.0283  0.3692  0.0626
  722DOPS   C4A 8470   6.239  19.343  11.315  0.1824  0.0165 -0.1576
  722DOPS   C1B 8471   5.534  19.031  10.582 -0.1003 -0.1374 -0.1157
  722DOPS   D2B 8472   5.486  18.901  10.977  0.2331  0.3641  0.2360
  722DOPS   C3B 8473   5.308  18.969  11.383 -0.0904  0.1381  0.1732
  722DOPS   C4B 8474   5.416  18.796  11.775 -0.2344  0.1517  0.0109
  723DOPE   NH3 8475   0.223  23.906  10.310 -0.0835  0.1668  0.2623
  723DOPE   PO4 8476   0.500  23.982  10.460 -0.1548  0.1693 -0.0837
  723DOPE   GL1 8477   0.372  23.987  10.920 -0.4208 -0.3681 -0.2280
  723DOPE   GL2 8478   0.143  24.061  10.851 -0.0858 -0.1863 -0.0043
  723DOPE   C1A 8479   0.584  23.718  11.253 -0.0489  0.2672 -0.2889
  723DOPE   D2A 8480   0.574  23.364  11.605  0.2419 -0.1221 -0.1462
  723DOPE   C3A 8481   0.569  23.321  12.043  0.3126 -0.1495 -0.2309
  723DOPE   C4A 8482   0.747  23.356  12.485  0.0280  0.2175 -0.3334
  723DOPE   C1B 8483   0.072  24.007  11.337  0.1941 -0.2458 -0.0519
  723DOPE   D2B 8484   0.085  23.678  11.653  0.3704  0.0905 -0.2777
  723DOPE   C3B 8485  -0.167  23.763  12.046 -0.1815 -0.2448 -0.0633
  723DOPE   C4B 8486  -0.641  23.822  12.129  0.0557  0.0681 -0.0198
  724DOPE   NH3 8487   5.375  17.236   9.723 -0.1393 -0.2143 -0.1949
  724DOPE   PO4 8488   5.265  17.500   9.619 -0.0291 -0.1815 -0.2581
  724DOPE   GL1 8489   5.329  17.843   9.831 -0.2756 -0.0971 -0.2205
  724DOPE   GL2 8490   5.591  17.981   9.884  0.1342  0.2515 -0.0998
  724DOPE   C1A 8491   5.291  17.836  10.291  0.0165 -0.2216 -0.3621
  724DOPE   D2A 8492   5.288  17.508  10.645 -0.0263 -0.0316  0.3458
  724DOPE   C3A 8493   5.465  17.638  11.069 -0.1350 -0.0806 -0.1535
  724DOPE   C4A 8494   5.732  17.444  11.309  0.0761  0.0157 -0.1972
  724DOPE   C1B 8495   5.615  18.259  10.289  0.1239  0.1686  0.0706
  724DOPE   D2B 8496   5.759  18.474  10.667  0.2357 -0.2517 -0.1812
  724DOPE   C3B 8497   5.656  18.356  11.114  0.1039 -0.0696 -0.0413
  724DOPE   C4B 8498   5.824  18.724  11.397 -0.0786  0.2249  0.1085
  725POSM   NC3 8499   8.915  11.916  10.649  0.0258  0.0583 -0.0590
  725POSM   PO4 8500   8.759  11.791  10.982  0.3164 -0.4335 -0.0043
  725POSM   AM1 8501   8.901  11.774  11.255  0.0532  0.0502  0.2962
  725POSM   AM2 8502   8.827  11.569  11.410 -0.1557 -0.0206 -0.1231
  725POSM   T1A 8503   9.200  11.888  11.656  0.1781 -0.0446 -0.1945
  725POSM   C2A 8504   9.282  11.760  12.094  0.0574  0.0065 -0.0905
  725POSM   C3A 8505   9.416  11.714  12.561 -0.3457 -0.0512 -0.1565
  725POSM   C1B 8506   8.786  11.725  11.755  0.2742  0.0537 -0.0407
  725POSM   D2B 8507   8.872  11.986  12.144 -0.0729  0.1722 -0.0936
  725POSM   C3B 8508   9.239  12.137  12.376 -0.3809 -0.0269 -0.0613
  725POSM   C4B 8509   9.536  12.528  12.299  0.0054 -0.0540  0.1355
  726DOPC   NC3 8510   7.005  15.106   9.954 -0.1269 -0.0138  0.0082
  726DOPC   PO4 8511   6.675  15.296   9.966  0.1886 -0.0290  0.0908
  726DOPC   GL1 8512   6.710  15.451  10.336 -0.0465  0.1627  0.1453
  726DOPC   GL2 8513   6.943  15.503  10.457 -0.0757 -0.3005 -0.0702
  726DOPC   C1A 8514   6.570  15.411  10.762  0.0709  0.0245  0.1564
  726DOPC   D2A 8515   6.418  15.248  11.141  0.3530 -0.2565 -0.1739
  726DOPC   C3A 8516   6.452  15.526  11.516 -0.1316  0.1875  0.0307
  726DOPC   C4A 8517   6.310  15.629  11.942 -0.0441  0.0402  0.0695
  726DOPC   C1B 8518   6.865  15.820  10.759 -0.0614  0.0963 -0.0645
  726DOPC   D2B 8519   6.808  16.083  11.104  0.3137  0.2708 -0.2513
  726DOPC   C3B 8520   6.628  15.946  11.511  0.0206 -0.0436  0.1027
  726DOPC   C4B 8521   6.204  15.975  11.627  0.2529 -0.2559 -0.1257
  727DOPC   NC3 8522   4.897  16.834  10.309  0.2886 -0.2021 -0.0044
  727DOPC   PO4 8523   5.248  16.928  10.303 -0.0267 -0.2349 -0.0562
  727DOPC   GL1 8524   5.223  16.781  10.681 -0.2871 -0.2348  0.1917
  727DOPC   GL2 8525   5.453  16.941  10.761 -0.2005 -0.1386  0.0098
  727DOPC   C1A 8526   5.334  16.588  11.067 -0.1913 -0.1132  0.2679
  727DOPC   D2A 8527   5.519  16.511  11.515  0.3054 -0.0477  0.1130
  727DOPC   C3A 8528   5.605  16.864  11.776 -0.2217 -0.2568 -0.2652
  727DOPC   C4A 8529   5.686  17.307  11.831 -0.0729 -0.0098  0.2434
  727DOPC   C1B 8530   5.223  17.132  11.133 -0.1459  0.2676  0.0905
  727DOPC   D2B 8531   5.177  16.929  11.536 -0.3389 -0.0613  0.1012
  727DOPC   C3B 8532   4.912  17.090  11.905 -0.1491  0.0370  0.1317
  727DOPC   C4B 8533   4.571  17.310  12.104  0.2532 -0.0980 -0.0312
  728DOPE   NH3 8534   8.912  21.569   9.661  0.0439  0.2847  0.1272
  728DOPE   PO4 8535   9.122  21.746   9.883 -0.1194 -0.0714  0.0773
  728DOPE   GL1 8536   9.568  21.625   9.985 -0.1757 -0.4046  0.0122
  728DOPE   GL2 8537   9.545  21.810  10.212 -0.0234 -0.4363 -0.4113
  728DOPE   C1A 8538   9.908  21.431  10.268 -0.0872 -0.0598  0.0600
  728DOPE   D2A 8539  10.157  21.360  10.643 -0.0712 -0.1337 -0.0450
  728DOPE   C3A 8540  10.300  21.267  11.096  0.0278  0.0981 -0.0367
  728DOPE   C4A 8541  10.115  21.139  11.520  0.1865  0.5320  0.0349
  728DOPE   C1B 8542   9.595  21.554  10.668 -0.0106 -0.0547 -0.0397
  728DOPE   D2B 8543   9.866  21.492  11.052 -0.0982 -0.0370 -0.2477
  728DOPE   C3B 8544   9.748  21.481  11.442 -0.1662  0.0750  0.0012
  728DOPE   C4B 8545  10.034  21.484  11.866  0.0495 -0.1668  0.1330
  729POSM   NC3 8546  11.232  22.281  10.253 -0.2345 -0.1353  0.0214
  729POSM   PO4 8547  11.446  22.098   9.944  0.3525 -0.1794  0.1346
  729POSM   AM1 8548  11.652  22.025  10.194 -0.0290 -0.0351  0.1059
  729POSM   AM2 8549  11.624  21.846  10.387 -0.0180  0.2294  0.2633
  729POSM   T1A 8550  11.962  22.175  10.577 -0.3229 -0.1900 -0.1099
  729POSM   C2A 8551  12.368  22.094  10.812 -0.2282 -0.1003 -0.0303
  729POSM   C3A 8552  12.479  21.868  11.230 -0.2261  0.0521 -0.2184
  729POSM   C1B 8553  11.379  21.909  10.613  0.1484  0.0237 -0.4119
  729POSM   D2B 8554  11.058  21.924  11.009  0.0470 -0.2878 -0.0795
  729POSM   C3B 8555  10.971  22.078  11.425 -0.0011  0.0869 -0.1906
  729POSM   C4B 8556  10.883  22.129  11.945 -0.3249 -0.2929 -0.1728
  730DOPE   NH3 8557   5.709  16.275  10.040  0.1639 -0.2134 -0.0524
  730DOPE   PO4 8558   5.899  16.451   9.868 -0.2705 -0.0898 -0.0219
  730DOPE   GL1 8559   6.037  16.577  10.148 -0.2418 -0.1946 -0.3730
  730DOPE   GL2 8560   6.287  16.536  10.188 -0.2977 -0.0217 -0.1239
  730DOPE   C1A 8561   5.948  16.873  10.538 -0.0671  0.0130  0.4658
  730DOPE   D2A 8562   5.791  17.327  10.602  0.2209 -0.0433 -0.1181
  730DOPE   C3A 8563   6.045  17.604  10.858 -0.0859  0.0546 -0.1555
  730DOPE   C4A 8564   5.947  17.949  11.146 -0.0774  0.0766  0.1040
  730DOPE   C1B 8565   6.453  16.825  10.418  0.2014  0.1907 -0.3878
  730DOPE   D2B 8566   6.366  17.216  10.674  0.1299 -0.3955 -0.0657
  730DOPE   C3B 8567   6.039  17.114  11.029 -0.1017 -0.0452  0.1953
  730DOPE   C4B 8568   5.767  16.818  11.245 -0.1402 -0.0209  0.0377
  731DOPC   NC3 8569   7.338  16.028   9.818 -0.0862  0.3792 -0.3062
  731DOPC   PO4 8570   7.080  16.339   9.888  0.2050 -0.3983 -0.0416
  731DOPC   GL1 8571   7.341  16.312  10.303  0.0110 -0.1874  0.1216
  731DOPC   GL2 8572   7.632  16.091  10.283  0.1905  0.1590 -0.1541
  731DOPC   C1A 8573   7.322  16.217  10.789  0.0586  0.0773  0.3493
  731DOPC   D2A 8574   7.724  16.114  10.982 -0.1739 -0.2095 -0.0685
  731DOPC   C3A 8575   8.121  16.384  10.919  0.4178  0.2039 -0.2628
  731DOPC   C4A 8576   8.543  16.215  11.004  0.0630  0.1058  0.1091
  731DOPC   C1B 8577   8.071  16.167  10.403 -0.1987  0.2518  0.0742
  731DOPC   D2B 8578   8.382  16.493  10.519  0.2379  0.0351  0.0066
  731DOPC   C3B 8579   8.814  16.506  10.591 -0.0991 -0.0535 -0.1289
  731DOPC   C4B 8580   9.146  16.511  10.936  0.1348  0.1678 -0.0391
  732DOPS   CNO 8581   0.809  11.936  10.816  0.0609 -0.0183 -0.0283
  732DOPS   PO4 8582   0.469  11.827  10.868  0.1482  0.1216 -0.2669
  732DOPS   GL1 8583   0.230  11.818  11.210  0.2952  0.2963 -0.2039
  732DOPS   GL2 8584   0.267  12.127  11.253  0.0267 -0.1904 -0.3088
  732DOPS   C1A 8585  -0.022  11.788  11.616  0.1775 -0.2494  0.0873
  732DOPS   D2A 8586   0.110  11.635  11.998 -0.3477 -0.0168 -0.0816
  732DOPS   C3A 8587   0.004  11.667  12.453 -0.1787 -0.1840  0.0835
  732DOPS   C4A 8588  -0.305  11.688  12.856 -0.2263  0.0493 -0.0583
  732DOPS   C1B 8589   0.063  12.317  11.596 -0.0802  0.1129 -0.0906
  732DOPS   D2B 8590  -0.238  12.636  11.551  0.0866 -0.2086 -0.1267
  732DOPS   C3B 8591  -0.553  12.887  11.778  0.3362 -0.2365  0.0037
  732DOPS   C4B 8592  -0.988  12.864  11.926  0.2393 -0.3245 -0.1521
  733DOPE   NH3 8593   4.295  21.550  10.266 -0.0391 -0.3140  0.0597
  733DOPE   PO4 8594   4.101  21.285  10.175  0.0271  0.0603 -0.4903
  733DOPE   GL1 8595   4.241  21.151  10.517 -0.1969  0.1037  0.0971
  733DOPE   GL2 8596   4.200  21.324  10.763 -0.3071  0.1921  0.0022
  733DOPE   C1A 8597   4.476  20.937  10.852  0.0966 -0.0202 -0.0297
  733DOPE   D2A 8598   4.647  20.615  11.086 -0.0385  0.0669 -0.1827
  733DOPE   C3A 8599   4.602  20.652  11.554 -0.2176 -0.1066  0.1470
  733DOPE   C4A 8600   4.255  20.441  11.739 -0.0592  0.1261 -0.0640
  733DOPE   C1B 8601   4.343  21.316  11.218  0.2740 -0.0405  0.0221
  733DOPE   D2B 8602   4.772  21.279  11.351  0.0917  0.1467  0.0220
  733DOPE   C3B 8603   4.769  21.112  11.774  0.0867 -0.1755  0.0448
  733DOPE   C4B 8604   4.948  20.895  12.128  0.0374  0.0356 -0.1977
  734DOPE   NH3 8605   3.261  20.319  10.291 -0.0048 -0.1211  0.0698
  734DOPE   PO4 8606   3.172  20.010  10.213  0.0113 -0.0456  0.1236
  734DOPE   GL1 8607   3.008  19.952  10.586 -0.1189  0.2474 -0.0690
  734DOPE   GL2 8608   2.857  20.157  10.598 -0.0603 -0.0877  0.0093
  734DOPE   C1A 8609   3.132  19.588  10.868 -0.2831 -0.0256  0.0333
  734DOPE   D2A 8610   3.401  19.509  11.272  0.0067  0.2291 -0.1878
  734DOPE   C3A 8611   3.723  19.757  11.454 -0.0350  0.0742  0.2141
  734DOPE   C4A 8612   3.673  20.086  11.796  0.0114 -0.4468  0.0480
  734DOPE   C1B 8613   2.791  20.008  11.063  0.5920  0.2598  0.3531
  734DOPE   D2B 8614   2.920  19.611  11.314 -0.0291  0.0002 -0.0280
  734DOPE   C3B 8615   2.659  19.243  11.448  0.1518 -0.0766 -0.1741
  734DOPE   C4B 8616   2.375  18.912  11.428  0.0069  0.1951  0.2421
  735DOPS   CNO 8617  13.013  22.890   9.258 -0.1307 -0.1591 -0.1234
  735DOPS   PO4 8618  12.777  22.648   9.451 -0.1123 -0.3249  0.0541
  735DOPS   GL1 8619  12.742  22.469   9.836  0.0998 -0.2346 -0.5010
  735DOPS   GL2 8620  12.593  22.636  10.008 -0.0388 -0.1733 -0.2033
  735DOPS   C1A 8621  13.120  22.559  10.030 -0.0819  0.2342  0.4198
  735DOPS   D2A 8622  13.087  22.791  10.485 -0.2115 -0.2924 -0.0254
  735DOPS   C3A 8623  12.793  22.747  10.807  0.2891 -0.2613  0.0487
  735DOPS   C4A 8624  12.665  22.940  11.167  0.1639  0.0059  0.0552
  735DOPS   C1B 8625  12.428  22.498  10.428 -0.1669 -0.1214 -0.1190
  735DOPS   D2B 8626  12.332  22.583  10.833  0.2620  0.1887 -0.0871
  735DOPS   C3B 8627  12.653  22.386  11.079 -0.0260 -0.0873 -0.1289
  735DOPS   C4B 8628  12.706  22.181  11.489  0.1394 -0.0132  0.4532
  736DOPE   NH3 8629  10.480  13.976   9.569 -0.2160  0.3699  0.2745
  736DOPE   PO4 8630  10.759  13.824   9.613 -0.3146 -0.4698 -0.0412
  736DOPE   GL1 8631  10.766  13.816  10.017 -0.1641  0.0390  0.5408
  736DOPE   GL2 8632  10.446  13.751  10.085 -0.0086 -0.1355  0.0744
  736DOPE   C1A 8633  10.816  14.127  10.290  0.2201  0.2601  0.1242
  736DOPE   D2A 8634  11.044  14.212  10.657  0.4433 -0.2029  0.0764
  736DOPE   C3A 8635  11.181  14.604  10.872  0.0733 -0.0382  0.0831
  736DOPE   C4A 8636  11.604  14.765  11.128  0.1174 -0.2487  0.3916
  736DOPE   C1B 8637  10.418  13.953  10.471  0.0963 -0.1126 -0.0998
  736DOPE   D2B 8638  10.550  14.274  10.898  0.1588 -0.1588 -0.2401
  736DOPE   C3B 8639  10.622  13.947  11.182 -0.0466 -0.3881 -0.3536
  736DOPE   C4B 8640  10.792  13.515  11.356 -0.0313  0.1968  0.1909
  737DOPS   CNO 8641   3.712  10.291  11.857  0.2562 -0.1254  0.0694
  737DOPS   PO4 8642   4.036  10.266  11.650 -0.0069  0.2630  0.1501
  737DOPS   GL1 8643   4.117  10.502  11.968 -0.1060  0.1109 -0.0718
  737DOPS   GL2 8644   4.250  10.368  12.151  0.1994 -0.1666  0.3185
  737DOPS   C1A 8645   3.824  10.752  12.275  0.1772 -0.1033  0.1297
  737DOPS   D2A 8646   3.920  11.076  12.617  0.1277 -0.2177  0.1735
  737DOPS   C3A 8647   3.569  11.401  12.726  0.1663 -0.1685  0.0614
  737DOPS   C4A 8648   3.464  11.787  12.504  0.0952 -0.1288 -0.0617
  737DOPS   C1B 8649   4.335  10.640  12.484  0.1983  0.3884 -0.0379
  737DOPS   D2B 8650   4.211  10.784  12.926 -0.2940  0.2049  0.1317
  737DOPS   C3B 8651   4.480  11.074  13.091 -0.1168 -0.3307 -0.1542
  737DOPS   C4B 8652   4.519  11.287  13.523 -0.1879 -0.0684 -0.1177
  738DOPS   CNO 8653   8.373  12.437  10.161 -0.1098 -0.3391 -0.3904
  738DOPS   PO4 8654   8.594  12.732  10.324  0.2785  0.1874  0.1368
  738DOPS   GL1 8655   8.443  12.730  10.773 -0.3651 -0.2990  0.4188
  738DOPS   GL2 8656   8.522  12.543  11.006 -0.0378 -0.0677  0.1076
  738DOPS   C1A 8657   8.796  12.930  11.037  0.2857 -0.2261  0.0131
  738DOPS   D2A 8658   9.051  13.243  11.275  0.2415  0.1943 -0.0973
  738DOPS   C3A 8659   9.353  13.619  11.183  0.0458  0.4446  0.1141
  738DOPS   C4A 8660   9.673  13.940  11.171 -0.0747  0.0669  0.0004
  738DOPS   C1B 8661   8.406  12.834  11.335 -0.0409 -0.2992 -0.0549
  738DOPS   D2B 8662   8.263  12.959  11.767 -0.0542 -0.2830  0.1753
  738DOPS   C3B 8663   8.085  13.397  11.782  0.1507  0.2295  0.0398
  738DOPS   C4B 8664   7.745  13.593  11.571 -0.1010 -0.0955  0.0361
  739DOPC   NC3 8665   2.475  13.729  10.335 -0.1240  0.0134  0.1859
  739DOPC   PO4 8666   2.222  13.502  10.498 -0.1340 -0.1804  0.0686
  739DOPC   GL1 8667   2.098  13.597  10.915  0.1086  0.1445  0.6198
  739DOPC   GL2 8668   2.347  13.619  11.036  0.0013 -0.1001  0.2684
  739DOPC   C1A 8669   1.892  13.951  11.156  0.3456  0.2263  0.0078
  739DOPC   D2A 8670   1.756  14.261  11.484  0.2399 -0.0830 -0.0094
  739DOPC   C3A 8671   1.799  14.349  11.934  0.4307  0.0172  0.0899
  739DOPC   C4A 8672   2.118  14.643  12.077 -0.0839  0.2529  0.2678
  739DOPC   C1B 8673   2.540  14.043  11.116  0.0764 -0.0489  0.3430
  739DOPC   D2B 8674   2.867  14.267  10.979  0.1074  0.2731  0.0023
  739DOPC   C3B 8675   3.183  14.544  11.052 -0.1573  0.0855  0.2741
  739DOPC   C4B 8676   3.631  14.651  11.278 -0.0291  0.0493 -0.1215
  740DOPC   NC3 8677  11.653  16.634   9.094  0.2487 -0.0776  0.2503
  740DOPC   PO4 8678  11.974  16.431   9.003 -0.1947 -0.3693 -0.1877
  740DOPC   GL1 8679  12.081  16.451   9.441 -0.1030 -0.3384  0.2067
  740DOPC   GL2 8680  12.297  16.490   9.641 -0.0750 -0.0720  0.1955
  740DOPC   C1A 8681  11.845  16.661   9.776 -0.0258  0.2630  0.0482
  740DOPC   D2A 8682  11.561  16.869  10.153  0.1129  0.1354  0.4544
  740DOPC   C3A 8683  11.590  17.295  10.387 -0.1409  0.1771  0.1311
  740DOPC   C4A 8684  11.703  17.362  10.784 -0.1989 -0.2531  0.3996
  740DOPC   C1B 8685  12.055  16.104   9.787  0.0373 -0.1808 -0.0839
  740DOPC   D2B 8686  12.212  15.821  10.179  0.3558  0.0761 -0.3350
  740DOPC   C3B 8687  12.014  15.720  10.613 -0.1624  0.0764 -0.0955
  740DOPC   C4B 8688  11.776  15.451  10.951 -0.0019  0.0024  0.0606
  741DOPE   NH3 8689   5.570  14.034  10.301  0.1245  0.1363 -0.0391
  741DOPE   PO4 8690   5.358  14.272  10.287  0.0296  0.0575  0.1318
  741DOPE   GL1 8691   5.351  14.517  10.659 -0.0745 -0.0464  0.1083
  741DOPE   GL2 8692   5.236  14.294  10.854 -0.2736  0.3428 -0.0260
  741DOPE   C1A 8693   5.469  14.678  11.087 -0.1005 -0.1905 -0.2632
  741DOPE   D2A 8694   5.174  14.889  11.375  0.0486  0.0767  0.1362
  741DOPE   C3A 8695   5.254  15.029  11.793 -0.0677  0.0514  0.1420
  741DOPE   C4A 8696   5.598  15.215  12.006 -0.1822  0.2052  0.2161
  741DOPE   C1B 8697   5.491  14.146  11.234  0.1747  0.2960 -0.0072
  741DOPE   D2B 8698   5.878  14.246  11.547 -0.0691  0.0744  0.1841
  741DOPE   C3B 8699   5.930  14.492  11.984  0.0811 -0.1269  0.0157
  741DOPE   C4B 8700   6.032  14.654  12.395  0.0044 -0.0614  0.1587
  742DOPC   NC3 8701  11.864  21.476   9.654 -0.1160  0.0790  0.2397
  742DOPC   PO4 8702  11.514  21.647   9.726 -0.0418  0.1636 -0.2255
  742DOPC   GL1 8703  11.505  21.278   9.921  0.0863  0.1055 -0.2834
  742DOPC   GL2 8704  11.692  21.072   9.933  0.0028  0.1465 -0.0993
  742DOPC   C1A 8705  11.296  20.907  10.152  0.2409  0.1876  0.3693
  742DOPC   D2A 8706  11.295  20.513  10.419  0.0349 -0.2216 -0.4003
  742DOPC   C3A 8707  11.298  20.580  10.860  0.2380  0.0330 -0.2025
  742DOPC   C4A 8708  11.401  20.287  11.224  0.1099  0.2157  0.0191
  742DOPC   C1B 8709  11.536  21.293  10.373 -0.0740  0.0624 -0.2458
  742DOPC   D2B 8710  11.536  21.477  10.811 -0.2225  0.2535 -0.0051
  742DOPC   C3B 8711  11.853  21.322  11.159 -0.2912 -0.0384 -0.0822
  742DOPC   C4B 8712  12.242  21.286  11.452  0.4169 -0.3658 -0.1826
  743POSM   NC3 8713   4.641  15.262  10.023 -0.2304 -0.1884  0.2117
  743POSM   PO4 8714   4.440  15.576  10.095  0.2714  0.2218 -0.1862
  743POSM   AM1 8715   4.581  15.592  10.385  0.0126 -0.4716 -0.5391
  743POSM   AM2 8716   4.608  15.843  10.531  0.1817 -0.0015 -0.0381
  743POSM   T1A 8717   4.651  15.371  10.814 -0.2792  0.1133 -0.0769
  743POSM   C2A 8718   4.386  15.197  11.156 -0.0150  0.0360  0.0835
  743POSM   C3A 8719   4.139  14.834  11.269 -0.2858  0.0569 -0.1592
  743POSM   C1B 8720   4.472  15.884  10.828 -0.2077  0.0879 -0.1493
  743POSM   D2B 8721   4.123  15.868  11.069  0.2636 -0.2348  0.0454
  743POSM   C3B 8722   3.892  16.156  11.326  0.1335  0.1176 -0.1841
  743POSM   C4B 8723   3.763  16.570  11.444  0.3204 -0.2460 -0.0807
  744DOPC   NC3 8724   2.785  19.706  10.117  0.2689  0.0400 -0.1290
  744DOPC   PO4 8725   2.530  19.831  10.387  0.0522  0.2388 -0.2447
  744DOPC   GL1 8726   2.600  19.734  10.798  0.1632  0.0171 -0.2461
  744DOPC   GL2 8727   2.261  19.761  10.840 -0.2257  0.1047 -0.0796
  744DOPC   C1A 8728   2.702  19.347  10.954 -0.2711 -0.0299 -0.2494
  744DOPC   D2A 8729   2.724  18.857  10.996  0.0500  0.0883 -0.2032
  744DOPC   C3A 8730   2.818  18.705  11.446 -0.1584  0.0657  0.0148
  744DOPC   C4A 8731   2.600  18.451  11.758 -0.1199 -0.0150  0.2011
  744DOPC   C1B 8732   2.338  19.906  11.284 -0.0794  0.0877  0.2951
  744DOPC   D2B 8733   2.409  19.773  11.680  0.3697 -0.1604 -0.7173
  744DOPC   C3B 8734   2.751  19.527  11.830  0.0066  0.0946  0.0104
  744DOPC   C4B 8735   3.158  19.311  11.730  0.2634  0.3536  0.0378
  745DOPC   NC3 8736   6.678  21.231   9.221  0.2013  0.0946  0.4471
  745DOPC   PO4 8737   6.457  21.275   9.564 -0.1429 -0.1241 -0.1441
  745DOPC   GL1 8738   6.606  21.161  10.018  0.2249 -0.2143 -0.3742
  745DOPC   GL2 8739   6.890  21.129  10.172  0.3782  0.3022 -0.1456
  745DOPC   C1A 8740   6.497  20.745  10.268 -0.0055  0.2291  0.0517
  745DOPC   D2A 8741   6.192  20.435  10.551  0.1614  0.2352 -0.1345
  745DOPC   C3A 8742   6.259  20.206  10.940  0.0022  0.0848  0.2375
  745DOPC   C4A 8743   6.025  19.821  11.124 -0.0464  0.0044  0.1915
  745DOPC   C1B 8744   7.042  20.822  10.505  0.0783  0.0914 -0.2288
  745DOPC   D2B 8745   7.171  20.368  10.514  0.0749 -0.2164  0.1773
  745DOPC   C3B 8746   7.077  20.139  10.903 -0.0808 -0.1064  0.4165
  745DOPC   C4B 8747   7.296  20.071  11.287 -0.0666 -0.1713 -0.0103
  746DOPE   NH3 8748   2.593  21.834   9.997 -0.1010  0.2144  0.1672
  746DOPE   PO4 8749   2.785  21.641  10.190  0.0251 -0.3550 -0.2433
  746DOPE   GL1 8750   2.786  21.968  10.547 -0.0913  0.2514  0.1144
  746DOPE   GL2 8751   2.947  21.735  10.657  0.1087 -0.0172  0.1811
  746DOPE   C1A 8752   2.752  22.138  10.955  0.0487  0.0290 -0.0502
  746DOPE   D2A 8753   2.920  22.327  11.351  0.0621  0.0351  0.0015
  746DOPE   C3A 8754   2.667  22.167  11.704  0.3373  0.1060  0.0830
  746DOPE   C4A 8755   2.260  22.171  11.722 -0.3457 -0.2306 -0.2311
  746DOPE   C1B 8756   2.626  21.630  10.951  0.3160  0.3247  0.1062
  746DOPE   D2B 8757   2.719  21.257  11.252 -0.1126 -0.1507  0.2313
  746DOPE   C3B 8758   2.646  21.128  11.686 -0.2002 -0.0818  0.0374
  746DOPE   C4B 8759   2.567  20.946  12.067  0.4260 -0.1053 -0.0869
  747DOPE   NH3 8760   2.734  24.443  10.624 -0.2167 -0.2733 -0.0492
  747DOPE   PO4 8761   2.661  24.176  10.765 -0.1926  0.4046  0.2257
  747DOPE   GL1 8762   2.602  24.063  11.057  0.1809 -0.2131 -0.2458
  747DOPE   GL2 8763   2.352  24.215  11.160  0.3573  0.0016 -0.1646
  747DOPE   C1A 8764   2.669  24.058  11.483  0.1341  0.1196 -0.0395
  747DOPE   D2A 8765   2.621  24.057  11.955  0.1173 -0.0170 -0.2825
  747DOPE   C3A 8766   2.865  23.832  12.292 -0.0674 -0.0286 -0.1509
  747DOPE   C4A 8767   3.168  24.105  12.541 -0.1842  0.0045 -0.0637
  747DOPE   C1B 8768   2.123  24.231  11.604  0.0533  0.1003  0.2056
  747DOPE   D2B 8769   2.191  24.422  12.007  0.2190 -0.3751 -0.0413
  747DOPE   C3B 8770   2.130  24.125  12.297  0.0517  0.2299  0.2357
  747DOPE   C4B 8771   2.440  23.920  12.603 -0.0974  0.2250  0.0228
  748DOPC   NC3 8772  34.490  18.542   9.577 -0.3160 -0.1025  0.2520
  748DOPC   PO4 8773  34.164  18.618   9.801  0.0533  0.0901  0.0147
  748DOPC   GL1 8774  34.332  18.816  10.169 -0.0083  0.2676 -0.1897
  748DOPC   GL2 8775  34.368  19.072  10.204 -0.1898 -0.3999  0.1405
  748DOPC   C1A 8776  34.168  18.616  10.554  0.3422  0.0319  0.1102
  748DOPC   D2A 8777  34.098  18.344  10.933  0.3421  0.1349  0.2056
  748DOPC   C3A 8778  34.514  18.353  11.163 -0.0631  0.1087 -0.1417
  748DOPC   C4A 8779  34.720  18.211  11.591  0.0168  0.3484 -0.1530
  748DOPC   C1B 8780  34.521  19.044  10.643 -0.1742  0.0479 -0.0825
  748DOPC   D2B 8781  34.470  18.936  11.056 -0.2044 -0.1379 -0.1510
  748DOPC   C3B 8782  34.645  19.216  11.380 -0.2109 -0.1602 -0.0806
  748DOPC   C4B 8783  34.856  19.335  11.801  0.0589 -0.1912  0.0948
  749DOPE   NH3 8784  12.425  16.499   9.118 -0.0419  0.0434 -0.0975
  749DOPE   PO4 8785  12.378  16.811   9.245 -0.1061  0.3656  0.0224
  749DOPE   GL1 8786  12.387  17.040   9.526 -0.2417  0.5286 -0.3726
  749DOPE   GL2 8787  12.204  16.986   9.768 -0.0956 -0.4142 -0.2680
  749DOPE   C1A 8788  12.705  16.810   9.797  0.0836  0.0838 -0.1041
  749DOPE   D2A 8789  12.819  16.762  10.189 -0.1792  0.0561 -0.1264
  749DOPE   C3A 8790  12.753  16.423  10.507  0.2041  0.0259  0.2608
  749DOPE   C4A 8791  12.452  16.211  10.707 -0.0441  0.3090  0.1708
  749DOPE   C1B 8792  12.062  17.003  10.160 -0.1996  0.0389  0.2653
  749DOPE   D2B 8793  11.898  16.902  10.595 -0.3472 -0.1148 -0.3159
  749DOPE   C3B 8794  12.094  17.063  10.992 -0.0444 -0.3706 -0.1946
  749DOPE   C4B 8795  12.137  17.024  11.465  0.1487  0.2562  0.0673
  750DOPS   CNO 8796   6.811  22.218   9.662  0.0244  0.0108  0.3102
  750DOPS   PO4 8797   6.753  21.987   9.970 -0.0441  0.1867 -0.4237
  750DOPS   GL1 8798   6.580  22.079  10.345  0.2193 -0.4771  0.4001
  750DOPS   GL2 8799   6.362  21.928  10.354 -0.0316 -0.1276  0.0758
  750DOPS   C1A 8800   6.622  21.989  10.793 -0.0398 -0.0784 -0.0866
  750DOPS   D2A 8801   6.821  21.588  11.030 -0.1348 -0.0883 -0.1277
  750DOPS   C3A 8802   6.765  21.350  11.391 -0.0489 -0.1620  0.1795
  750DOPS   C4A 8803   6.435  21.083  11.301 -0.2168  0.0317  0.2220
  750DOPS   C1B 8804   6.218  21.609  10.682  0.1184 -0.2012  0.3218
  750DOPS   D2B 8805   6.148  21.219  10.929  0.3680 -0.2700 -0.1225
  750DOPS   C3B 8806   6.401  20.813  10.858  0.2850  0.1733 -0.1614
  750DOPS   C4B 8807   6.816  20.523  10.819 -0.0635  0.3952 -0.0126
  751DOPC   NC3 8808   3.607  22.361   9.938  0.1168 -0.0355  0.2169
  751DOPC   PO4 8809   3.561  22.030  10.072 -0.3184 -0.0852 -0.1097
  751DOPC   GL1 8810   3.684  22.042  10.437  0.0823  0.2166  0.0418
  751DOPC   GL2 8811   3.786  21.805  10.452 -0.1207  0.1839  0.1162
  751DOPC   C1A 8812   3.643  22.012  10.939 -0.3879 -0.4125 -0.2950
  751DOPC   D2A 8813   3.927  22.067  11.300  0.3501  0.1470 -0.4884
  751DOPC   C3A 8814   4.147  21.830  11.628  0.0703 -0.2099  0.2152
  751DOPC   C4A 8815   4.399  21.465  11.744 -0.0752  0.0159  0.2779
  751DOPC   C1B 8816   3.605  21.514  10.791  0.0195  0.1946  0.0520
  751DOPC   D2B 8817   3.248  21.366  11.050 -0.4534  0.0321 -0.0643
  751DOPC   C3B 8818   3.208  21.405  11.490 -0.1377 -0.1845  0.3477
  751DOPC   C4B 8819   3.195  21.383  11.968 -0.0568 -0.0526  0.0359
  752POSM   NC3 8820  10.295  17.865   8.834 -0.0198  0.1662 -0.0476
  752POSM   PO4 8821  10.339  18.277   8.841 -0.0617  0.0882  0.1114
  752POSM   AM1 8822  10.420  18.340   9.171 -0.0059  0.0017  0.1959
  752POSM   AM2 8823  10.415  18.181   9.388 -0.1881  0.0300 -0.0771
  752POSM   T1A 8824  10.640  18.741   9.340 -0.3432 -0.2150 -0.5402
  752POSM   C2A 8825  10.780  18.891   9.737  0.0737 -0.0760 -0.2174
  752POSM   C3A 8826  10.473  19.202  10.065 -0.0238  0.2597 -0.1060
  752POSM   C1B 8827  10.407  18.443   9.651 -0.0425 -0.2923 -0.2334
  752POSM   D2B 8828  10.508  18.668  10.083  0.1505  0.2681 -0.4010
  752POSM   C3B 8829  10.356  18.735  10.534 -0.1678  0.1228  0.3381
  752POSM   C4B 8830  10.174  18.484  10.858  0.0947 -0.2315 -0.1845
  753DOPC   NC3 8831   1.906  18.369   9.909  0.3352  0.0768  0.2005
  753DOPC   PO4 8832   2.219  18.164   9.733  0.0406 -0.5046 -0.2334
  753DOPC   GL1 8833   2.271  18.082  10.106 -0.0304 -0.1679  0.1582
  753DOPC   GL2 8834   2.277  17.764  10.218  0.2049  0.1511  0.0536
  753DOPC   C1A 8835   2.156  18.156  10.581  0.2710  0.2577  0.2160
  753DOPC   D2A 8836   2.027  18.309  10.966 -0.0993  0.1829  0.6038
  753DOPC   C3A 8837   2.037  17.968  11.311  0.1344 -0.0017  0.3293
  753DOPC   C4A 8838   2.269  17.976  11.777 -0.0200  0.1465  0.0795
  753DOPC   C1B 8839   2.170  17.640  10.697  0.1195  0.0112  0.0422
  753DOPC   D2B 8840   2.238  17.543  11.092  0.2592 -0.0924 -0.3420
  753DOPC   C3B 8841   2.675  17.586  11.241 -0.0792 -0.0525  0.0409
  753DOPC   C4B 8842   3.052  17.684  11.497 -0.0025  0.0556 -0.0223
  754POSM   NC3 8843   4.021  19.469  10.134 -0.0616 -0.2051 -0.4698
  754POSM   PO4 8844   4.094  19.117   9.941  0.0083  0.2773 -0.2833
  754POSM   AM1 8845   4.295  19.124  10.179  0.1205  0.4006  0.1064
  754POSM   AM2 8846   4.518  19.281  10.269  0.0986  0.0676 -0.1778
  754POSM   T1A 8847   4.425  19.008  10.655  0.2836 -0.1066 -0.0119
  754POSM   C2A 8848   4.618  18.847  11.020  0.1104  0.1210 -0.0849
  754POSM   C3A 8849   4.789  18.951  11.434  0.0463 -0.2979 -0.3031
  754POSM   C1B 8850   4.640  19.437  10.532 -0.1431 -0.3079  0.0564
  754POSM   D2B 8851   4.842  19.563  10.910 -0.1798  0.2330  0.1294
  754POSM   C3B 8852   4.589  19.306  11.147  0.3526 -0.1916  0.1300
  754POSM   C4B 8853   4.285  19.161  11.487  0.0106 -0.0418  0.2363
  755DOPE   NH3 8854  31.779  18.138   9.937  0.1111 -0.0470  0.0023
  755DOPE   PO4 8855  31.998  17.941   9.889 -0.2698  0.2007 -0.1072
  755DOPE   GL1 8856  32.228  17.989  10.164 -0.0356 -0.2281  0.1192
  755DOPE   GL2 8857  32.373  18.246  10.074  0.0594 -0.0261 -0.4003
  755DOPE   C1A 8858  32.215  18.238  10.553 -0.2555  0.1449  0.0828
  755DOPE   D2A 8859  32.424  18.559  10.896 -0.0389  0.2013 -0.1537
  755DOPE   C3A 8860  32.701  18.596  11.285 -0.3185 -0.3076  0.1831
  755DOPE   C4A 8861  32.796  18.967  11.488 -0.0323  0.0401  0.1123
  755DOPE   C1B 8862  32.738  18.503   9.890 -0.1647 -0.2755 -0.0933
  755DOPE   D2B 8863  33.223  18.558  10.107 -0.1458 -0.3706  0.0927
  755DOPE   C3B 8864  33.161  18.670  10.548  0.2986  0.1807 -0.0090
  755DOPE   C4B 8865  33.070  18.627  10.973 -0.1262  0.0124  0.2728
  756DOPE   NH3 8866  10.757  17.911   8.833 -0.0367 -0.1516 -0.2085
  756DOPE   PO4 8867  10.759  17.581   8.897  0.0639  0.2863  0.2308
  756DOPE   GL1 8868  10.609  17.618   9.300 -0.4210 -0.3168 -0.2116
  756DOPE   GL2 8869  10.786  17.752   9.470  0.2923 -0.1754 -0.3702
  756DOPE   C1A 8870  10.497  17.581   9.793 -0.0759 -0.0760 -0.2380
  756DOPE   D2A 8871  10.468  17.127   9.978 -0.0274 -0.1193  0.3937
  756DOPE   C3A 8872  10.416  17.083  10.460 -0.1608  0.0170 -0.2083
  756DOPE   C4A 8873  10.326  17.172  10.900  0.1934  0.1096  0.0706
  756DOPE   C1B 8874  11.110  17.858   9.787  0.0364  0.4599  0.4156
  756DOPE   D2B 8875  11.555  17.692   9.851  0.1930  0.1518  0.0502
  756DOPE   C3B 8876  11.690  17.823  10.310 -0.2817 -0.0771 -0.0747
  756DOPE   C4B 8877  11.712  17.937  10.740  0.1282 -0.1188  0.2608
  757DOPS   CNO 8878   4.711  10.998  11.596 -0.1668 -0.0027  0.2577
  757DOPS   PO4 8879   4.890  11.235  11.818 -0.3146  0.0655  0.2092
  757DOPS   GL1 8880   4.977  11.483  12.046  0.1407 -0.0890  0.0357
  757DOPS   GL2 8881   4.701  11.570  12.217  0.3676 -0.0065 -0.0754
  757DOPS   C1A 8882   5.126  11.399  12.477  0.2577  0.0105 -0.1746
  757DOPS   D2A 8883   4.869  11.317  12.836  0.1632 -0.1092 -0.1422
  757DOPS   C3A 8884   4.648  11.618  13.194 -0.1838  0.0859 -0.0962
  757DOPS   C4A 8885   4.499  12.024  13.265 -0.0148 -0.3275 -0.0607
  757DOPS   C1B 8886   4.854  11.885  12.452 -0.1809 -0.0935 -0.3249
  757DOPS   D2B 8887   5.250  11.993  12.694  0.0018 -0.0475 -0.4224
  757DOPS   C3B 8888   5.301  12.358  12.946 -0.0965 -0.0680 -0.0552
  757DOPS   C4B 8889   5.318  12.661  13.258 -0.0048 -0.1213 -0.0903
  758DOPE   NH3 8890   0.417  13.360  10.491  0.0957  0.0456 -0.1186
  758DOPE   PO4 8891   0.486  13.323  10.217 -0.0473  0.0076 -0.1424
  758DOPE   GL1 8892   0.365  12.949  10.337  0.0581 -0.0285 -0.1302
  758DOPE   GL2 8893   0.426  12.761  10.495 -0.2222 -0.0651  0.0014
  758DOPE   C1A 8894   0.065  12.956  10.773 -0.0453  0.2449 -0.2570
  758DOPE   D2A 8895  -0.341  12.843  10.961  0.0235 -0.3238 -0.0848
  758DOPE   C3A 8896  -0.763  13.058  11.149  0.0172  0.0702 -0.1767
  758DOPE   C4A 8897  -0.909  13.212  11.519  0.0804  0.1916 -0.0078
  758DOPE   C1B 8898   0.544  12.887  10.928 -0.3236 -0.2678  0.0450
  758DOPE   D2B 8899   0.704  13.042  11.345 -0.0487 -0.0536 -0.2581
  758DOPE   C3B 8900   0.670  13.243  11.818 -0.3778 -0.0248 -0.1628
  758DOPE   C4B 8901   0.817  13.371  12.220  0.0821 -0.4921 -0.2726
  759DOPE   NH3 8902   9.313  10.679  11.136  0.2998 -0.0549  0.1005
  759DOPE   PO4 8903   9.415  10.972  10.979  0.4249 -0.3456 -0.1329
  759DOPE   GL1 8904   9.671  11.085  11.279  0.1186 -0.0269  0.3573
  759DOPE   GL2 8905   9.746  10.841  11.401  0.1822 -0.0089 -0.1974
  759DOPE   C1A 8906   9.761  11.255  11.670 -0.0827 -0.0485 -0.0711
  759DOPE   D2A 8907   9.660  11.641  11.811 -0.0624 -0.0049 -0.1402
  759DOPE   C3A 8908   9.625  11.982  11.447 -0.1897  0.0295 -0.0298
  759DOPE   C4A 8909   9.655  12.155  11.062  0.0070 -0.2596 -0.2284
  759DOPE   C1B 8910   9.734  10.733  11.858 -0.0164  0.1904  0.3732
  759DOPE   D2B 8911   9.515  10.802  12.267 -0.0417  0.2575  0.1527
  759DOPE   C3B 8912   9.834  10.977  12.555 -0.0957 -0.0760  0.1199
  759DOPE   C4B 8913   9.906  10.789  13.013  0.0312  0.0590  0.1823
  760POSM   NC3 8914  10.098  19.578   9.349  0.4659 -0.0801 -0.2458
  760POSM   PO4 8915  10.311  19.929   9.381  0.1318 -0.1772 -0.1591
  760POSM   AM1 8916  10.463  20.011   9.695 -0.2135  0.1802  0.1389
  760POSM   AM2 8917  10.423  20.232   9.905  0.1115  0.2147 -0.0431
  760POSM   T1A 8918  10.640  19.732  10.059 -0.2980 -0.4332  0.0920
  760POSM   C2A 8919  10.504  19.496  10.472  0.0168 -0.2949 -0.0889
  760POSM   C3A 8920  10.443  19.185  10.828  0.2098 -0.0034  0.0023
  760POSM   C1B 8921  10.444  20.161  10.243  0.1069  0.0285 -0.0070
  760POSM   D2B 8922  10.683  19.997  10.492  0.0279 -0.0364  0.0658
  760POSM   C3B 8923  10.990  19.631  10.541  0.0938  0.0935 -0.0739
  760POSM   C4B 8924  11.366  19.310  10.441 -0.1108 -0.1830 -0.0211
  761DOPC   NC3 8925  12.596  21.292   9.540 -0.1432  0.3516 -0.2930
  761DOPC   PO4 8926  12.263  21.122   9.667  0.2108  0.0384 -0.0648
  761DOPC   GL1 8927  12.127  20.761   9.879  0.0417 -0.0003 -0.0229
  761DOPC   GL2 8928  12.212  20.808  10.078 -0.3684 -0.0515 -0.1411
  761DOPC   C1A 8929  11.960  20.369   9.729 -0.0163  0.1749  0.0971
  761DOPC   D2A 8930  11.760  20.060   9.957  0.0356  0.0485 -0.0239
  761DOPC   C3A 8931  11.639  20.141  10.371  0.1822  0.0023  0.1075
  761DOPC   C4A 8932  11.740  20.300  10.776  0.1772  0.1601 -0.0190
  761DOPC   C1B 8933  12.162  20.622  10.514 -0.3035  0.0222 -0.1816
  761DOPC   D2B 8934  12.312  20.393  10.874  0.2479  0.1763 -0.1321
  761DOPC   C3B 8935  12.726  20.534  11.102 -0.1104 -0.1670  0.0427
  761DOPC   C4B 8936  13.153  20.718  11.234 -0.1856 -0.1682 -0.0800
  762DOPC   NC3 8937   3.313  12.867  10.647  0.0413  0.1004 -0.2288
  762DOPC   PO4 8938   3.106  13.164  10.478 -0.2570  0.0118 -0.1147
  762DOPC   GL1 8939   3.273  13.502  10.714 -0.0410  0.0361  0.0263
  762DOPC   GL2 8940   3.565  13.339  10.803 -0.1618 -0.3131  0.3165
  762DOPC   C1A 8941   3.384  13.593  11.167  0.0716  0.0391  0.2481
  762DOPC   D2A 8942   3.272  13.768  11.554  0.0838 -0.0578  0.0203
  762DOPC   C3A 8943   2.905  14.043  11.473 -0.2460 -0.2308  0.2241
  762DOPC   C4A 8944   2.773  14.466  11.358 -0.1675 -0.0069 -0.3111
  762DOPC   C1B 8945   3.460  13.074  11.160  0.1213  0.2593  0.0086
  762DOPC   D2B 8946   3.194  13.062  11.521  0.1841  0.0967 -0.1950
  762DOPC   C3B 8947   3.229  13.368  11.883  0.1588  0.0850 -0.0158
  762DOPC   C4B 8948   3.185  13.549  12.348 -0.2461 -0.0491  0.3386
  763DOPE   NH3 8949   2.382  12.706  11.275 -0.1243  0.0856 -0.3674
  763DOPE   PO4 8950   2.592  12.728  11.038  0.2165  0.0803  0.0303
  763DOPE   GL1 8951   2.770  12.765  11.421  0.2052 -0.1498  0.0992
  763DOPE   GL2 8952   3.054  12.690  11.274 -0.0016  0.0912  0.0388
  763DOPE   C1A 8953   2.745  13.100  11.759 -0.1711 -0.0521  0.1563
  763DOPE   D2A 8954   2.771  13.305  12.180  0.1967  0.1319 -0.4271
  763DOPE   C3A 8955   2.513  13.739  12.187 -0.1052 -0.1487  0.1344
  763DOPE   C4A 8956   2.138  13.912  11.970 -0.0323  0.2939  0.1523
  763DOPE   C1B 8957   3.382  12.519  11.553  0.0209 -0.1725 -0.1590
  763DOPE   D2B 8958   3.769  12.805  11.679 -0.2598  0.1346 -0.1803
  763DOPE   C3B 8959   3.749  13.127  11.984 -0.3001 -0.0102 -0.2391
  763DOPE   C4B 8960   3.733  13.402  12.323  0.0394  0.0680  0.1845
  764DOPE   NH3 8961   7.543  15.352   9.850 -0.4040 -0.2200  0.0805
  764DOPE   PO4 8962   7.714  15.595   9.786 -0.0531 -0.0875  0.2258
  764DOPE   GL1 8963   7.747  15.618  10.177 -0.3333 -0.1397  0.2302
  764DOPE   GL2 8964   7.493  15.611  10.248  0.2725  0.0768  0.1715
  764DOPE   C1A 8965   7.954  15.657  10.614 -0.4210  0.0035 -0.0379
  764DOPE   D2A 8966   7.807  15.570  10.991  0.0790 -0.1013  0.0735
  764DOPE   C3A 8967   8.046  15.646  11.340 -0.1665 -0.1465  0.1789
  764DOPE   C4A 8968   8.373  15.778  11.599  0.0562  0.1512 -0.2042
  764DOPE   C1B 8969   7.406  15.706  10.665  0.0078  0.1169  0.2980
  764DOPE   D2B 8970   7.341  15.779  11.118  0.1675 -0.0842 -0.4456
  764DOPE   C3B 8971   7.142  16.010  11.450  0.0024  0.0023  0.0306
  764DOPE   C4B 8972   7.302  16.323  11.777 -0.0223 -0.1487 -0.2350
  765POSM   NC3 8973   3.880  11.452  11.662 -0.3218  0.2661  0.2575
  765POSM   PO4 8974   3.969  11.685  11.401  0.1794 -0.0032 -0.3524
  765POSM   AM1 8975   4.042  11.885  11.674 -0.4969 -0.3017  0.0494
  765POSM   AM2 8976   3.976  11.874  11.949 -0.0189 -0.1049  0.1129
  765POSM   T1A 8977   4.160  12.329  11.900  0.0750  0.1260  0.2049
  765POSM   C2A 8978   4.199  12.772  12.023  0.2373 -0.1403  0.0122
  765POSM   C3A 8979   4.272  13.149  12.275 -0.0591  0.3909 -0.3736
  765POSM   C1B 8980   3.941  12.073  12.255  0.1288  0.0166  0.2536
  765POSM   D2B 8981   4.178  12.341  12.587  0.2304 -0.0582 -0.0557
  765POSM   C3B 8982   4.569  12.548  12.591 -0.2688  0.1452 -0.2749
  765POSM   C4B 8983   5.016  12.413  12.447 -0.0815 -0.2383 -0.2815
  766POSM   NC3 8984   6.270  16.388   9.414 -0.1427 -0.1103 -0.1490
  766POSM   PO4 8985   6.519  16.343   9.746  0.1586 -0.4309  0.2355
  766POSM   AM1 8986   6.638  16.279  10.017 -0.2068 -0.0500  0.0604
  766POSM   AM2 8987   6.750  16.366  10.278  0.4938 -0.3430  0.0844
  766POSM   T1A 8988   6.529  15.939  10.392 -0.0781  0.1160  0.0061
  766POSM   C2A 8989   6.191  15.618  10.538 -0.1041  0.0028  0.1113
  766POSM   C3A 8990   5.851  15.408  10.836  0.1035 -0.0323 -0.0584
  766POSM   C1B 8991   6.842  16.341  10.636 -0.1594  0.1498  0.5161
  766POSM   D2B 8992   7.000  16.556  10.978 -0.0446 -0.1366 -0.1490
  766POSM   C3B 8993   7.336  16.499  11.278 -0.2085 -0.3367 -0.1669
  766POSM   C4B 8994   7.800  16.503  11.320  0.2203  0.0722 -0.4614
  767POSM   NC3 8995   0.787  22.465  10.107  0.0124  0.2289  0.0056
  767POSM   PO4 8996   0.387  22.580  10.133 -0.1824  0.1744 -0.1608
  767POSM   AM1 8997   0.317  22.417  10.421 -0.4038 -0.0634  0.3330
  767POSM   AM2 8998   0.320  22.506  10.688 -0.2122 -0.3055 -0.0376
  767POSM   T1A 8999   0.163  21.997  10.692  0.1025  0.1356  0.2123
  767POSM   C2A 9000  -0.202  21.740  10.774  0.2132 -0.0221 -0.3306
  767POSM   C3A 9001  -0.397  21.515  11.141  0.2451  0.0465  0.0072
  767POSM   C1B 9002   0.456  22.529  10.959  0.0813  0.0615 -0.0306
  767POSM   D2B 9003   0.695  22.692  11.314 -0.2195 -0.1702  0.0866
  767POSM   C3B 9004   0.923  23.081  11.508  0.0399 -0.0820 -0.0401
  767POSM   C4B 9005   1.206  23.298  11.755  0.0326 -0.0441  0.1083
  768POSM   NC3 9006   9.013  14.379   9.944  0.0186  0.1240  0.3419
  768POSM   PO4 9007   8.671  14.613   9.918 -0.1025 -0.4223  0.0838
  768POSM   AM1 9008   8.780  14.777  10.175  0.3159 -0.3933 -0.3020
  768POSM   AM2 9009   8.691  14.751  10.440  0.1124  0.1249  0.3466
  768POSM   T1A 9010   9.175  14.891  10.438 -0.2052 -0.0823 -0.2524
  768POSM   C2A 9011   9.308  15.029  10.834 -0.0076 -0.0292 -0.1770
  768POSM   C3A 9012   9.724  14.948  11.068 -0.1161  0.1135  0.1011
  768POSM   C1B 9013   8.758  14.899  10.718 -0.0809 -0.1290  0.2502
  768POSM   D2B 9014   8.939  15.125  11.107 -0.2433 -0.0786 -0.0496
  768POSM   C3B 9015   8.954  15.098  11.624  0.0440  0.0839 -0.2958
  768POSM   C4B 9016   8.702  14.907  11.973  0.1117 -0.1324  0.1052
  769DOPC   NC3 9017   4.279  17.436   9.658  0.0119  0.5070 -0.1376
  769DOPC   PO4 9018   4.433  17.782   9.775  0.1844  0.0106  0.2143
  769DOPC   GL1 9019   4.275  17.619  10.126 -0.0177  0.1746  0.0898
  769DOPC   GL2 9020   4.540  17.515  10.232  0.2130  0.1753 -0.0021
  769DOPC   C1A 9021   4.250  17.649  10.609  0.3205 -0.1423  0.2167
  769DOPC   D2A 9022   3.965  17.753  10.920  0.0297  0.0169  0.0061
  769DOPC   C3A 9023   3.578  17.732  10.779 -0.2976 -0.0802 -0.0402
  769DOPC   C4A 9024   3.218  17.586  10.557  0.0332 -0.0159 -0.1792
  769DOPC   C1B 9025   4.852  17.801  10.494  0.3561  0.2730 -0.3273
  769DOPC   D2B 9026   5.096  18.055  10.759  0.0640  0.0226  0.2220
  769DOPC   C3B 9027   5.561  17.954  10.726 -0.0823 -0.0349  0.1143
  769DOPC   C4B 9028   6.027  18.049  10.599  0.0110  0.0572 -0.1476
  770DOPC   NC3 9029   5.843  12.366  11.222 -0.1168 -0.0865  0.1683
  770DOPC   PO4 9030   6.185  12.419  11.049  0.2865  0.0324 -0.2997
  770DOPC   GL1 9031   6.247  12.433  11.432  0.3928  0.1814  0.1636
  770DOPC   GL2 9032   6.429  12.696  11.449  0.1373 -0.0741 -0.1389
  770DOPC   C1A 9033   6.556  12.176  11.673 -0.0854  0.0250 -0.2641
  770DOPC   D2A 9034   6.995  12.039  11.758 -0.0562 -0.2136 -0.0678
  770DOPC   C3A 9035   7.232  12.067  12.170  0.0764  0.2031  0.1694
  770DOPC   C4A 9036   7.451  12.170  12.555 -0.0942 -0.0729  0.0147
  770DOPC   C1B 9037   6.342  12.600  11.886 -0.3048  0.2425 -0.0363
  770DOPC   D2B 9038   6.465  12.670  12.297 -0.1974 -0.1981  0.0821
  770DOPC   C3B 9039   6.402  12.521  12.699 -0.0604  0.0258 -0.3690
  770DOPC   C4B 9040   6.387  12.468  13.130 -0.0851 -0.3780 -0.1445
  771DOPE   NH3 9041   7.320  17.649   9.809  0.0599 -0.3238  0.0796
  771DOPE   PO4 9042   7.427  17.467  10.031 -0.0853  0.0746 -0.2304
  771DOPE   GL1 9043   7.681  17.697  10.214  0.2572  0.1528 -0.1799
  771DOPE   GL2 9044   7.902  17.462  10.233 -0.2108 -0.1659 -0.0396
  771DOPE   C1A 9045   7.802  17.701  10.641 -0.2505 -0.0384  0.0322
  771DOPE   D2A 9046   8.070  17.829  10.999  0.1882  0.0010  0.1301
  771DOPE   C3A 9047   7.917  17.693  11.369  0.1889  0.1869 -0.1926
  771DOPE   C4A 9048   7.876  17.310  11.528  0.1104  0.0627  0.1489
  771DOPE   C1B 9049   7.867  17.095  10.563  0.1484 -0.3341 -0.0181
  771DOPE   D2B 9050   8.255  16.934  10.776  0.0573  0.0699 -0.1352
  771DOPE   C3B 9051   8.200  16.943  11.253  0.5011 -0.1225  0.1415
  771DOPE   C4B 9052   8.040  16.773  11.700  0.1447  0.2022 -0.4088
  772DOPC   NC3 9053   7.132  18.756  10.006 -0.0300  0.3154 -0.2099
  772DOPC   PO4 9054   7.440  18.544   9.874 -0.1129  0.3105 -0.3135
  772DOPC   GL1 9055   7.333  18.400  10.218  0.0677 -0.2269 -0.0090
  772DOPC   GL2 9056   7.336  18.635  10.405 -0.0440 -0.0091  0.0026
  772DOPC   C1A 9057   7.325  18.173  10.671 -0.1737 -0.1534 -0.1819
  772DOPC   D2A 9058   7.544  18.217  11.094 -0.0542 -0.0517 -0.2555
  772DOPC   C3A 9059   7.394  17.907  11.397 -0.1012 -0.1331  0.1120
  772DOPC   C4A 9060   7.489  17.594  11.691  0.1147  0.1126  0.3170
  772DOPC   C1B 9061   7.724  18.670  10.730 -0.2191 -0.0702  0.1358
  772DOPC   D2B 9062   8.186  18.855  10.683  0.2683  0.0999 -0.0781
  772DOPC   C3B 9063   8.332  19.258  10.900 -0.0030 -0.0794  0.1668
  772DOPC   C4B 9064   8.247  19.495  11.294  0.0946 -0.1036  0.0683
  773DOPC   NC3 9065   8.471  20.870  10.068  0.0736 -0.2658  0.4937
  773DOPC   PO4 9066   8.694  20.614   9.962 -0.1141  0.1153 -0.1386
  773DOPC   GL1 9067   8.576  20.243  10.206 -0.1958 -0.1070  0.3522
  773DOPC   GL2 9068   8.765  20.027  10.107  0.2376 -0.1586  0.0312
  773DOPC   C1A 9069   8.471  20.051  10.625  0.4279 -0.0101 -0.0811
  773DOPC   D2A 9070   8.411  19.928  11.049  0.1048  0.1770 -0.1687
  773DOPC   C3A 9071   8.349  20.306  11.215 -0.1241 -0.0967  0.2026
  773DOPC   C4A 9072   7.984  20.425  11.453 -0.0002 -0.2625 -0.0335
  773DOPC   C1B 9073   8.960  19.904  10.487  0.2631  0.2771  0.2121
  773DOPC   D2B 9074   9.266  19.758  10.825 -0.3822 -0.1391 -0.1182
  773DOPC   C3B 9075   9.490  19.974  11.150 -0.3756  0.2333 -0.0127
  773DOPC   C4B 9076   9.480  20.134  11.543 -0.1690  0.0916 -0.0403
  774DOPS   CNO 9077   8.370  22.045  10.215  0.1828 -0.2905 -0.1050
  774DOPS   PO4 9078   8.579  21.850   9.940 -0.2916  0.1898 -0.2132
  774DOPS   GL1 9079   8.704  21.760  10.286  0.1263 -0.0140 -0.3191
  774DOPS   GL2 9080   8.953  21.931  10.370 -0.5131  0.0984 -0.2333
  774DOPS   C1A 9081   8.627  21.940  10.711 -0.1773  0.4058  0.1770
  774DOPS   D2A 9082   8.580  22.162  11.130  0.2236 -0.0346  0.2600
  774DOPS   C3A 9083   8.297  22.182  11.410 -0.2681  0.1833  0.1084
  774DOPS   C4A 9084   8.253  22.326  11.816 -0.0331 -0.1491 -0.1805
  774DOPS   C1B 9085   9.103  21.715  10.820 -0.0966 -0.4126 -0.0577
  774DOPS   D2B 9086   8.850  21.728  11.227  0.1586  0.1263 -0.0382
  774DOPS   C3B 9087   8.816  21.970  11.650  0.0809  0.3306  0.1745
  774DOPS   C4B 9088   8.712  22.155  12.056  0.1308 -0.0119 -0.1850
  775POSM   NC3 9089   8.670  16.955   9.136  0.1190  0.0654 -0.0289
  775POSM   PO4 9090   8.602  17.176   9.458 -0.3470  0.2927 -0.0968
  775POSM   AM1 9091   8.613  17.191   9.819  0.2203  0.3126  0.1734
  775POSM   AM2 9092   8.817  17.014   9.968 -0.0277 -0.0965 -0.2602
  775POSM   T1A 9093   8.785  17.473  10.146  0.2815  0.1155  0.1212
  775POSM   C2A 9094   9.054  17.829  10.279  0.5177 -0.3690  0.1295
  775POSM   C3A 9095   9.376  18.063  10.495  0.1596  0.2471  0.2286
  775POSM   C1B 9096   8.769  16.929  10.293 -0.0478 -0.0440 -0.2973
  775POSM   D2B 9097   8.867  16.919  10.761  0.0938 -0.1074  0.2008
  775POSM   C3B 9098   9.002  17.095  11.140  0.2548  0.0802  0.2676
  775POSM   C4B 9099   9.358  17.339  11.398 -0.1468 -0.0324  0.1464
  776DOPS   CNO 9100   6.937  19.995   9.366 -0.0648 -0.0346  0.0079
  776DOPS   PO4 9101   6.876  20.277   9.617 -0.4595 -0.0273 -0.1448
  776DOPS   GL1 9102   6.833  20.009   9.923  0.1452 -0.0549  0.0979
  776DOPS   GL2 9103   7.078  19.909  10.085  0.2023  0.0700 -0.1270
  776DOPS   C1A 9104   6.689  19.725  10.237  0.1092  0.3315 -0.1338
  776DOPS   D2A 9105   6.752  19.406  10.592  0.0089  0.1231  0.2257
  776DOPS   C3A 9106   6.904  18.973  10.460  0.1264 -0.2685  0.0113
  776DOPS   C4A 9107   6.895  18.514  10.644 -0.1503 -0.0600 -0.1440
  776DOPS   C1B 9108   7.102  19.786  10.527 -0.1263 -0.3028  0.0014
  776DOPS   D2B 9109   7.063  19.604  10.963 -0.0840 -0.1231  0.0697
  776DOPS   C3B 9110   6.977  19.745  11.413 -0.1522  0.0561 -0.3379
  776DOPS   C4B 9111   6.849  19.997  11.788  0.1441  0.2900  0.0002
  777POSM   NC3 9112   2.167  17.089   9.772  0.3753 -0.1039  0.0918
  777POSM   PO4 9113   1.980  16.777   9.930  0.1967  0.1447 -0.0754
  777POSM   AM1 9114   2.002  17.016  10.214  0.1282 -0.0334  0.3497
  777POSM   AM2 9115   2.179  17.219  10.300 -0.0124 -0.2438  0.1254
  777POSM   T1A 9116   1.784  17.188  10.611  0.1832  0.2800 -0.0192
  777POSM   C2A 9117   1.501  17.382  10.943 -0.0473 -0.0846  0.1356
  777POSM   C3A 9118   1.225  17.408  11.302 -0.2251  0.3194  0.2868
  777POSM   C1B 9119   2.353  17.183  10.590  0.1570  0.1333  0.3029
  777POSM   D2B 9120   2.634  17.279  10.879  0.0233  0.1490  0.1383
  777POSM   C3B 9121   2.950  17.083  11.158  0.1438 -0.3539  0.1377
  777POSM   C4B 9122   3.136  17.222  11.573 -0.0855  0.0873  0.0782
  778DOPC   NC3 9123   2.290  20.263  10.616 -0.0029  0.1222 -0.0923
  778DOPC   PO4 9124   2.531  20.524  10.415  0.1613  0.1994 -0.2842
  778DOPC   GL1 9125   2.453  20.776  10.703  0.0522  0.1889  0.1814
  778DOPC   GL2 9126   2.267  20.752  10.834 -0.3448 -0.1694  0.1769
  778DOPC   C1A 9127   2.886  20.901  10.952  0.0027 -0.2333  0.0312
  778DOPC   D2A 9128   3.230  20.889  11.261 -0.1501 -0.2229 -0.3469
  778DOPC   C3A 9129   3.110  20.984  11.666  0.1684  0.2638  0.2049
  778DOPC   C4A 9130   3.054  20.936  12.113 -0.2360 -0.0729 -0.0472
  778DOPC   C1B 9131   2.361  20.866  11.223  0.0300  0.0747  0.1752
  778DOPC   D2B 9132   2.117  21.101  11.494  0.0081 -0.0441 -0.1101
  778DOPC   C3B 9133   2.253  21.309  11.914  0.1658 -0.2697  0.0940
  778DOPC   C4B 9134   2.270  21.288  12.376 -0.0783 -0.1148  0.2674
  779DOPC   NC3 9135   9.033  15.895   9.889  0.1510  0.0997  0.0080
  779DOPC   PO4 9136   9.178  16.083   9.580  0.2358 -0.0206 -0.1893
  779DOPC   GL1 9137   9.382  16.231   9.869  0.1261 -0.0750 -0.3045
  779DOPC   GL2 9138   9.640  16.212   9.842 -0.0067  0.0672  0.0881
  779DOPC   C1A 9139   9.382  16.662  10.052  0.0778 -0.0017 -0.2636
  779DOPC   D2A 9140   9.245  16.836  10.444 -0.2367  0.2496  0.2149
  779DOPC   C3A 9141   9.401  16.969  10.835 -0.2351  0.0699 -0.1374
  779DOPC   C4A 9142   9.511  16.876  11.304  0.2279  0.0512 -0.2031
  779DOPC   C1B 9143   9.816  16.221  10.301  0.4679 -0.0082 -0.0455
  779DOPC   D2B 9144   9.992  16.126  10.732  0.1254  0.0445  0.2985
  779DOPC   C3B 9145   9.754  16.023  11.067 -0.1212  0.0364  0.0917
  779DOPC   C4B 9146   9.710  15.956  11.528  0.2907 -0.0020  0.1608
  780DOPC   NC3 9147   0.250  11.015  10.651  0.0754  0.1793 -0.3387
  780DOPC   PO4 9148   0.317  11.393  10.510  0.1404 -0.2313  0.2865
  780DOPC   GL1 9149   0.169  11.430  10.855  0.0811  0.0717  0.5609
  780DOPC   GL2 9150  -0.032  11.642  10.854 -0.1301  0.0176 -0.0085
  780DOPC   C1A 9151   0.065  11.239  11.271  0.2308 -0.0982 -0.0155
  780DOPC   D2A 9152  -0.053  11.135  11.711  0.1018  0.1464  0.2261
  780DOPC   C3A 9153  -0.435  11.282  11.975 -0.3255  0.2079 -0.1761
  780DOPC   C4A 9154  -0.465  11.678  12.161 -0.0840  0.0357 -0.0004
  780DOPC   C1B 9155  -0.206  11.931  11.188 -0.1722  0.3176 -0.0495
  780DOPC   D2B 9156  -0.402  12.095  11.590  0.0772  0.0011  0.0002
  780DOPC   C3B 9157  -0.195  12.088  12.017 -0.2063  0.0171  0.1062
  780DOPC   C4B 9158  -0.310  12.167  12.486 -0.0426 -0.0282  0.0142
  781POSM   NC3 9159   9.139  20.778   9.849  0.0104  0.2112  0.0205
  781POSM   PO4 9160   8.899  21.092   9.782 -0.1145 -0.1610 -0.0538
  781POSM   AM1 9161   8.867  21.121  10.129  0.3466  0.0624  0.0388
  781POSM   AM2 9162   8.683  21.324  10.242  0.3080 -0.2464 -0.1222
  781POSM   T1A 9163   8.832  20.867  10.548 -0.3640  0.3035 -0.1498
  781POSM   C2A 9164   8.953  20.404  10.594  0.2704 -0.3013 -0.1444
  781POSM   C3A 9165   8.872  20.115  10.947  0.1165  0.0651 -0.1807
  781POSM   C1B 9166   8.789  21.345  10.591  0.0778  0.1339 -0.1119
  781POSM   D2B 9167   8.856  21.270  11.067 -0.0739 -0.0814  0.2373
  781POSM   C3B 9168   8.436  21.132  11.120  0.1953  0.3160 -0.1310
  781POSM   C4B 9169   8.159  20.801  11.011  0.0507  0.1534  0.1397
  782POSM   NC3 9170   0.188  16.076   9.720 -0.2000 -0.1099  0.0519
  782POSM   PO4 9171   0.498  15.814   9.755  0.0396 -0.5579  0.1179
  782POSM   AM1 9172   0.523  15.829  10.088  0.4720  0.0396  0.2037
  782POSM   AM2 9173   0.556  15.999  10.317  0.0609  0.1836  0.1433
  782POSM   T1A 9174   0.695  15.637  10.568 -0.1394  0.3055  0.2945
  782POSM   C2A 9175   0.789  15.585  11.013  0.0416  0.0999 -0.1907
  782POSM   C3A 9176   0.599  15.490  11.395  0.1264  0.0287 -0.0389
  782POSM   C1B 9177   0.681  16.146  10.583  0.0491  0.0377 -0.0508
  782POSM   D2B 9178   0.716  16.177  11.080  0.2667 -0.1042  0.0998
  782POSM   C3B 9179   0.550  16.502  11.345 -0.0260  0.2306  0.0454
  782POSM   C4B 9180   0.166  16.742  11.509 -0.0268  0.0429 -0.2087
  783DOPE   NH3 9181   5.871  13.519  10.341 -0.0816  0.0842  0.2028
  783DOPE   PO4 9182   5.576  13.555  10.503  0.0370  0.1817 -0.0460
  783DOPE   GL1 9183   5.648  13.617  10.911 -0.0603 -0.0381 -0.2092
  783DOPE   GL2 9184   5.440  13.418  11.044  0.0134 -0.1174 -0.0176
  783DOPE   C1A 9185   5.750  13.740  11.321 -0.1732 -0.1649 -0.3875
  783DOPE   D2A 9186   5.543  13.916  11.675  0.2051  0.0600  0.0565
  783DOPE   C3A 9187   5.416  14.327  11.682 -0.2355  0.1889  0.1135
  783DOPE   C4A 9188   5.693  14.743  11.577 -0.1443  0.3406  0.1552
  783DOPE   C1B 9189   5.234  13.513  11.523  0.2207  0.1101 -0.0929
  783DOPE   D2B 9190   5.075  13.683  11.953 -0.2167  0.0647  0.0527
  783DOPE   C3B 9191   5.489  13.663  12.155 -0.1016  0.2676 -0.0470
  783DOPE   C4B 9192   5.963  13.558  12.206  0.1842  0.2093 -0.2734
  784DOPS   CNO 9193  11.388  16.421   8.725  0.1683  0.4055 -0.2996
  784DOPS   PO4 9194  11.399  16.214   9.037  0.1028 -0.0677 -0.1688
  784DOPS   GL1 9195  11.419  16.125   9.424  0.1198  0.0942 -0.0370
  784DOPS   GL2 9196  11.628  16.175   9.561 -0.0874 -0.1381 -0.2238
  784DOPS   C1A 9197  11.043  15.990   9.684  0.1008  0.1392 -0.0293
  784DOPS   D2A 9198  10.990  15.798  10.116 -0.2253 -0.2201 -0.0411
  784DOPS   C3A 9199  11.226  15.852  10.504 -0.0463  0.1455 -0.0485
  784DOPS   C4A 9200  11.316  15.547  10.773  0.6554 -0.0507 -0.0401
  784DOPS   C1B 9201  11.376  16.446   9.766 -0.2571 -0.1200 -0.0627
  784DOPS   D2B 9202  11.071  16.331  10.120  0.1094 -0.0182 -0.4520
  784DOPS   C3B 9203  11.102  16.319  10.568  0.1981 -0.1234 -0.1589
  784DOPS   C4B 9204  10.694  16.365  10.691  0.0082 -0.0458  0.0081
  785DOPE   NH3 9205  12.369  22.315   9.552  0.2532  0.0674  0.4150
  785DOPE   PO4 9206  12.104  22.434   9.736  0.0043 -0.0285 -0.0583
  785DOPE   GL1 9207  12.253  22.236  10.055  0.2143 -0.6614  0.1539
  785DOPE   GL2 9208  12.467  22.107   9.978 -0.1201 -0.1593 -0.2147
  785DOPE   C1A 9209  12.076  21.823  10.177 -0.1149 -0.0151  0.1816
  785DOPE   D2A 9210  12.002  21.363  10.151  0.3242 -0.2058  0.0622
  785DOPE   C3A 9211  12.358  21.287  10.460  0.0834 -0.1393 -0.1644
  785DOPE   C4A 9212  12.363  21.351  10.921 -0.0739 -0.2212 -0.0452
  785DOPE   C1B 9213  12.522  21.826  10.393  0.0593  0.1842 -0.0670
  785DOPE   D2B 9214  12.715  21.657  10.808 -0.0527  0.0550 -0.0212
  785DOPE   C3B 9215  13.118  21.543  10.865  0.2767 -0.4063  0.1818
  785DOPE   C4B 9216  13.596  21.468  10.818 -0.1906  0.0220 -0.1111
  786DOPC   NC3 9217  34.315  17.488   9.922  0.2655 -0.2220  0.1147
  786DOPC   PO4 9218  34.346  17.740   9.634 -0.1561 -0.0361  0.2280
  786DOPC   GL1 9219  34.384  17.923   9.964  0.4093  0.1200  0.0008
  786DOPC   GL2 9220  34.110  18.114  10.023  0.0437 -0.1787 -0.0180
  786DOPC   C1A 9221  34.495  17.749  10.399  0.1412  0.1173 -0.2584
  786DOPC   D2A 9222  34.833  17.652  10.732  0.2474 -0.1441 -0.1757
  786DOPC   C3A 9223  34.756  17.402  11.122  0.0414 -0.2825 -0.1340
  786DOPC   C4A 9224  34.972  17.076  11.310  0.0202 -0.1356  0.0059
  786DOPC   C1B 9225  34.078  17.963  10.470 -0.0063 -0.1884 -0.2600
  786DOPC   D2B 9226  33.750  18.002  10.755 -0.0537 -0.2194  0.0459
  786DOPC   C3B 9227  33.772  18.004  11.225 -0.5237 -0.2901  0.2536
  786DOPC   C4B 9228  34.025  17.980  11.619 -0.0228  0.0377  0.0888
  787DOPC   NC3 9229   3.160  14.488  10.073 -0.0203  0.1654 -0.0996
  787DOPC   PO4 9230   2.800  14.268  10.149 -0.1530  0.0253 -0.2271
  787DOPC   GL1 9231   2.660  14.609  10.427  0.3223  0.0653 -0.0419
  787DOPC   GL2 9232   2.694  14.892  10.375  0.0871  0.1103 -0.0046
  787DOPC   C1A 9233   2.782  14.772  10.841 -0.1675 -0.0539  0.1070
  787DOPC   D2A 9234   2.941  14.938  11.209 -0.0920 -0.0045 -0.1356
  787DOPC   C3A 9235   3.180  14.742  11.498 -0.1297 -0.1532 -0.1034
  787DOPC   C4A 9236   2.952  14.466  11.871 -0.2550  0.0287 -0.0698
  787DOPC   C1B 9237   2.372  15.283  10.493 -0.0267  0.1517  0.1571
  787DOPC   D2B 9238   2.007  15.587  10.606 -0.0318 -0.0673 -0.3301
  787DOPC   C3B 9239   1.861  15.546  11.026  0.0683  0.1238 -0.1707
  787DOPC   C4B 9240   1.491  15.534  11.309 -0.1546  0.3459  0.1955
  788POSM   NC3 9241  10.133  16.860   9.028  0.0765 -0.1554 -0.1371
  788POSM   PO4 9242   9.884  16.817   9.358 -0.1936 -0.3062 -0.0809
  788POSM   AM1 9243   9.826  16.795   9.670  0.1362  0.3437  0.1041
  788POSM   AM2 9244   9.880  16.652   9.896  0.1355 -0.1027  0.0100
  788POSM   T1A 9245   9.753  17.062  10.080 -0.2949 -0.1384  0.1426
  788POSM   C2A 9246  10.075  17.329  10.200  0.1384  0.1481 -0.2855
  788POSM   C3A 9247  10.052  17.588  10.561 -0.0394 -0.0167 -0.3858
  788POSM   C1B 9248  10.169  16.641  10.090  0.1827 -0.1004 -0.2679
  788POSM   D2B 9249  10.599  16.613  10.157 -0.0216 -0.0870  0.1945
  788POSM   C3B 9250  10.822  16.784  10.521 -0.2376 -0.0121 -0.1360
  788POSM   C4B 9251  10.847  17.107  10.790 -0.0405 -0.1863 -0.0313
  789POSM   NC3 9252   2.360  22.941  10.590 -0.1208 -0.4832  0.1178
  789POSM   PO4 9253   2.101  23.265  10.569  0.1924 -0.2586  0.1257
  789POSM   AM1 9254   2.041  23.120  10.865  0.1531 -0.1626 -0.0756
  789POSM   AM2 9255   2.083  22.928  11.050  0.3443 -0.0451 -0.2837
  789POSM   T1A 9256   1.633  23.021  11.186  0.3325  0.1635  0.1533
  789POSM   C2A 9257   1.360  22.768  11.436 -0.0526 -0.3459  0.0220
  789POSM   C3A 9258   1.019  22.512  11.706  0.0621  0.1502  0.2146
  789POSM   C1B 9259   2.091  22.897  11.398  0.5647 -0.0892 -0.3798
  789POSM   D2B 9260   2.080  22.963  11.876 -0.1827  0.3471  0.0027
  789POSM   C3B 9261   1.892  22.703  12.216 -0.0789  0.1143  0.3119
  789POSM   C4B 9262   1.655  22.849  12.560 -0.1195  0.3980  0.1626
  790DOPS   CNO 9263   6.764  14.415  10.000  0.1158  0.0094  0.1889
  790DOPS   PO4 9264   6.828  14.363  10.405 -0.2792  0.1336  0.5752
  790DOPS   GL1 9265   6.934  14.279  10.848  0.0126  0.1379  0.0861
  790DOPS   GL2 9266   6.825  14.584  10.911  0.0336 -0.1131  0.4953
  790DOPS   C1A 9267   6.750  14.257  11.295 -0.1579 -0.1024 -0.0761
  790DOPS   D2A 9268   6.411  14.249  11.699  0.1147 -0.1177  0.1983
  790DOPS   C3A 9269   6.399  14.166  12.167  0.1744 -0.3257 -0.3520
  790DOPS   C4A 9270   6.080  14.169  12.540  0.0247  0.0004  0.0825
  790DOPS   C1B 9271   6.662  14.800  11.243 -0.0623  0.1015 -0.0950
  790DOPS   D2B 9272   6.754  15.139  11.525  0.1113  0.1547  0.2614
  790DOPS   C3B 9273   6.737  15.054  11.971 -0.3362 -0.1847  0.3348
  790DOPS   C4B 9274   7.000  15.135  12.365 -0.0517  0.2441 -0.0610
  791POSM   NC3 9275   1.224  12.221  10.972  0.3773  0.4155  0.3087
  791POSM   PO4 9276   1.459  12.455  10.746  0.1796  0.1115 -0.0427
  791POSM   AM1 9277   1.501  12.581  11.050  0.0702  0.0355 -0.3699
  791POSM   AM2 9278   1.577  12.444  11.275 -0.1573 -0.1680 -0.3424
  791POSM   T1A 9279   1.348  12.867  11.458 -0.1899  0.1979 -0.4678
  791POSM   C2A 9280   1.001  12.923  11.722  0.0116  0.0233 -0.0550
  791POSM   C3A 9281   0.872  12.841  12.134  0.2709 -0.0895 -0.2111
  791POSM   C1B 9282   1.329  12.333  11.501 -0.0959 -0.0935  0.2285
  791POSM   D2B 9283   1.141  11.963  11.729  0.1610  0.0210  0.0728
  791POSM   C3B 9284   1.435  11.892  12.077  0.0970  0.1036 -0.1127
  791POSM   C4B 9285   1.705  11.516  12.185 -0.0502  0.2016  0.0277
  792DOPE   NH3 9286   6.344  20.445   9.441 -0.1314  0.1962  0.1694
  792DOPE   PO4 9287   6.042  20.537   9.331 -0.0768  0.1572  0.0215
  792DOPE   GL1 9288   5.884  20.503   9.695 -0.1114  0.1391  0.1634
  792DOPE   GL2 9289   5.971  20.298   9.827  0.0580  0.1344 -0.1099
  792DOPE   C1A 9290   5.914  20.685  10.112  0.0590 -0.3182 -0.1623
  792DOPE   D2A 9291   5.843  20.835  10.562 -0.2391  0.1161 -0.1218
  792DOPE   C3A 9292   5.934  20.641  11.016 -0.3112  0.2097 -0.2362
  792DOPE   C4A 9293   6.024  20.342  11.368  0.0857  0.1256  0.1049
  792DOPE   C1B 9294   6.386  20.325  10.028 -0.1252 -0.0246 -0.2140
  792DOPE   D2B 9295   6.631  20.261  10.440  0.1561  0.1551  0.1915
  792DOPE   C3B 9296   6.644  19.928  10.767  0.3267 -0.0158  0.1050
  792DOPE   C4B 9297   6.518  19.854  11.210  0.1845 -0.1106  0.0268
  793DOPE   NH3 9298   3.312  13.625  10.309  0.3194  0.0218  0.2280
  793DOPE   PO4 9299   3.033  13.818  10.309  0.0518 -0.1670 -0.2203
  793DOPE   GL1 9300   3.044  14.001  10.640 -0.1446  0.0839  0.0688
  793DOPE   GL2 9301   3.353  13.991  10.743 -0.2323  0.0818  0.0517
  793DOPE   C1A 9302   2.965  13.749  11.018 -0.0381 -0.1311  0.4164
  793DOPE   D2A 9303   2.943  13.461  11.407  0.1597  0.1349 -0.0957
  793DOPE   C3A 9304   2.709  13.630  11.671 -0.0908  0.2137 -0.0751
  793DOPE   C4A 9305   2.979  13.865  11.984 -0.3754 -0.2645 -0.0762
  793DOPE   C1B 9306   3.359  14.131  11.160  0.0530  0.0903  0.0422
  793DOPE   D2B 9307   3.293  14.302  11.567  0.1997 -0.0698  0.0239
  793DOPE   C3B 9308   3.570  14.555  11.804 -0.0586 -0.0784  0.1158
  793DOPE   C4B 9309   3.720  14.815  12.199  0.0866 -0.0072  0.0224
  794DOPE   NH3 9310   2.322  13.110  10.903 -0.1858 -0.1542  0.1812
  794DOPE   PO4 9311   2.108  13.197  11.164  0.2415 -0.3784 -0.2319
  794DOPE   GL1 9312   1.763  13.316  11.323 -0.0629  0.0517  0.3750
  794DOPE   GL2 9313   1.805  13.523  11.461 -0.0227 -0.0032  0.0996
  794DOPE   C1A 9314   1.708  13.216  11.770  0.2291 -0.0179  0.1982
  794DOPE   D2A 9315   1.538  12.954  12.046 -0.0997  0.0494  0.1660
  794DOPE   C3A 9316   1.251  12.580  11.950 -0.2285 -0.0318 -0.0736
  794DOPE   C4A 9317   0.871  12.323  11.942  0.1963  0.0527  0.1943
  794DOPE   C1B 9318   1.680  13.714  11.863 -0.3868  0.2862 -0.0544
  794DOPE   D2B 9319   1.531  13.637  12.287 -0.1053 -0.2092  0.2333
  794DOPE   C3B 9320   1.126  13.639  12.536  0.1213 -0.0404  0.1789
  794DOPE   C4B 9321   0.863  13.300  12.721 -0.1098 -0.2745 -0.0683
  795DOPS   CNO 9322   3.843  13.821  10.197 -0.0777  0.0664 -0.0742
  795DOPS   PO4 9323   3.758  13.762  10.576  0.0729  0.0595 -0.0476
  795DOPS   GL1 9324   3.983  13.830  10.936 -0.3087  0.1195  0.2086
  795DOPS   GL2 9325   4.207  13.635  10.954  0.1772  0.0994 -0.2828
  795DOPS   C1A 9326   3.745  13.842  11.375 -0.2560 -0.1906 -0.2565
  795DOPS   D2A 9327   3.681  14.108  11.767  0.1129 -0.2359 -0.1346
  795DOPS   C3A 9328   4.017  14.332  12.079  0.2728 -0.1284 -0.0500
  795DOPS   C4A 9329   4.311  14.511  12.392  0.0077  0.1525 -0.0953
  795DOPS   C1B 9330   3.887  13.392  11.187  0.1061 -0.1903  0.0009
  795DOPS   D2B 9331   3.608  13.353  11.526 -0.0029  0.0369  0.1947
  795DOPS   C3B 9332   3.645  13.678  11.910  0.0157  0.0677 -0.0738
  795DOPS   C4B 9333   3.704  13.986  12.296 -0.2847  0.0248  0.1858
  796POSM   NC3 9334   6.447  14.004  10.518 -0.0543  0.0478  0.2082
  796POSM   PO4 9335   6.058  14.002  10.380 -0.0975  0.1034 -0.1809
  796POSM   AM1 9336   6.077  14.218  10.629  0.0019 -0.1173 -0.0171
  796POSM   AM2 9337   6.162  14.266  10.873 -0.0208 -0.1847 -0.0352
  796POSM   T1A 9338   5.856  14.643  10.774 -0.0779 -0.1392  0.1253
  796POSM   C2A 9339   5.988  14.959  11.101 -0.0522 -0.1763 -0.0015
  796POSM   C3A 9340   5.884  15.230  11.440 -0.0854  0.3313 -0.2325
  796POSM   C1B 9341   6.182  14.469  11.144  0.0716 -0.0606  0.0029
  796POSM   D2B 9342   6.191  14.638  11.557  0.0449  0.1273 -0.1632
  796POSM   C3B 9343   6.415  14.687  11.985 -0.4559 -0.0605 -0.1739
  796POSM   C4B 9344   6.801  14.626  12.252 -0.3895  0.1405 -0.0693
  797POSM   NC3 9345  11.034  15.937   9.138 -0.0159  0.1533  0.3571
  797POSM   PO4 9346  10.860  16.275   9.017 -0.1550  0.2008  0.1826
  797POSM   AM1 9347  10.812  16.293   9.338 -0.4559 -0.0325  0.2522
  797POSM   AM2 9348  10.678  16.238   9.532  0.1412 -0.0810  0.1636
  797POSM   T1A 9349  10.887  16.676   9.698  0.0516  0.0959 -0.0028
  797POSM   C2A 9350  11.260  16.901   9.776  0.1597  0.1242  0.1650
  797POSM   C3A 9351  11.692  17.124   9.758  0.0133  0.0760 -0.1094
  797POSM   C1B 9352  10.562  16.234   9.873  0.2065  0.0297  0.2454
  797POSM   D2B 9353  10.416  16.186  10.320 -0.0380 -0.2821 -0.2189
  797POSM   C3B 9354  10.249  16.609  10.566  0.2717 -0.0509  0.3337
  797POSM   C4B 9355  10.060  16.731  11.025 -0.1659  0.2777  0.0401
  798DOPE   NH3 9356   7.163  12.583  10.596 -0.1663 -0.2617  0.0828
  798DOPE   PO4 9357   7.009  12.372  10.793 -0.0514  0.1228  0.3199
  798DOPE   GL1 9358   7.152  12.459  11.142 -0.0154 -0.4413  0.4016
  798DOPE   GL2 9359   7.434  12.623  11.130 -0.0916  0.3140  0.0354
  798DOPE   C1A 9360   6.941  12.476  11.566 -0.1377  0.0804  0.1423
  798DOPE   D2A 9361   6.917  12.626  11.989 -0.1822 -0.1986  0.4054
  798DOPE   C3A 9362   7.091  12.820  12.395 -0.0293 -0.0749  0.0846
  798DOPE   C4A 9363   7.376  12.763  12.727 -0.0939 -0.0276 -0.0742
  798DOPE   C1B 9364   7.592  12.533  11.524  0.0250 -0.0021  0.1172
  798DOPE   D2B 9365   7.372  12.471  11.874 -0.2074  0.3855 -0.1872
  798DOPE   C3B 9366   7.666  12.383  12.219  0.0142 -0.1693 -0.0903
  798DOPE   C4B 9367   7.851  12.469  12.626 -0.3283 -0.3483  0.1932
  799DOPS   CNO 9368   1.526  25.187  10.453  0.3318  0.1419  0.1293
  799DOPS   PO4 9369   1.215  25.356  10.424  0.1625 -0.2393  0.2063
  799DOPS   GL1 9370   1.107  25.458  10.900  0.1478  0.0111 -0.1565
  799DOPS   GL2 9371   0.935  25.265  10.946 -0.0067  0.0858 -0.0861
  799DOPS   C1A 9372   1.446  25.383  11.317  0.1230 -0.0261 -0.3153
  799DOPS   D2A 9373   1.572  25.104  11.613  0.0415 -0.0901  0.2119
  799DOPS   C3A 9374   1.792  24.977  12.006  0.0460 -0.1150  0.3886
  799DOPS   C4A 9375   1.911  25.181  12.387 -0.3341  0.4005 -0.0983
  799DOPS   C1B 9376   1.052  25.051  11.339 -0.3644 -0.2646  0.1875
  799DOPS   D2B 9377   0.936  24.953  11.806 -0.0533 -0.2297 -0.0466
  799DOPS   C3B 9378   0.778  25.210  12.158  0.0467  0.1927 -0.1377
  799DOPS   C4B 9379   0.851  25.400  12.611  0.0405 -0.0738  0.4134
  800DOPE   NH3 9380   5.624  20.269   9.390 -0.2146 -0.0751  0.0858
  800DOPE   PO4 9381   5.534  20.055   9.594  0.2723  0.2028  0.0783
  800DOPE   GL1 9382   5.508  20.124   9.959 -0.1127  0.0846  0.1405
  800DOPE   GL2 9383   5.469  20.441  10.032  0.1141 -0.0049  0.2050
  800DOPE   C1A 9384   5.522  19.929  10.397 -0.1868 -0.1158 -0.2264
  800DOPE   D2A 9385   5.310  19.975  10.817 -0.0380  0.0038  0.0527
  800DOPE   C3A 9386   5.187  19.893  11.251 -0.1725  0.0678  0.0027
  800DOPE   C4A 9387   4.977  20.251  11.434 -0.4352 -0.1223 -0.1542
  800DOPE   C1B 9388   5.558  20.477  10.498  0.3238 -0.2167 -0.0384
  800DOPE   D2B 9389   5.818  20.192  10.783 -0.1850 -0.0642 -0.0585
  800DOPE   C3B 9390   5.771  19.710  10.774  0.3609  0.2467 -0.0266
  800DOPE   C4B 9391   5.868  19.271  10.919 -0.1763  0.0201 -0.1125
  801POSM   NC3 9392  33.431  16.588   9.468  0.1163 -0.2318  0.1718
  801POSM   PO4 9393  33.092  16.814   9.417 -0.1234  0.1605  0.0684
  801POSM   AM1 9394  32.948  16.933   9.696  0.0095  0.0315 -0.1550
  801POSM   AM2 9395  33.111  17.024   9.931 -0.0906  0.1316 -0.3080
  801POSM   T1A 9396  32.705  16.755  10.119  0.2481  0.0675  0.1996
  801POSM   C2A 9397  32.850  16.572  10.533  0.0317 -0.1759  0.2515
  801POSM   C3A 9398  32.876  16.217  10.958 -0.0862 -0.2404  0.1859
  801POSM   C1B 9399  33.086  17.079  10.321  0.2789  0.3076  0.2422
  801POSM   D2B 9400  32.897  17.061  10.696 -0.0130 -0.1440 -0.0732
  801POSM   C3B 9401  32.479  17.189  10.800 -0.1589  0.1483 -0.1018
  801POSM   C4B 9402  32.202  17.471  10.946  0.0742  0.1289  0.0107
  802POSM   NC3 9403   2.301  23.718  10.453 -0.0383 -0.1919 -0.0310
  802POSM   PO4 9404   1.928  23.746  10.531  0.1114  0.2969 -0.2776
  802POSM   AM1 9405   2.060  23.653  10.832  0.0106  0.0077 -0.0085
  802POSM   AM2 9406   2.266  23.727  11.012  0.1558  0.1258 -0.1189
  802POSM   T1A 9407   1.972  23.406  11.249  0.2271  0.0336  0.1291
  802POSM   C2A 9408   1.768  23.175  11.604  0.0470 -0.3186  0.1172
  802POSM   C3A 9409   1.697  23.176  12.066  0.0019  0.0304  0.1550
  802POSM   C1B 9410   2.368  23.728  11.364  0.3458 -0.0541 -0.3127
  802POSM   D2B 9411   2.235  23.787  11.813 -0.3061 -0.0899 -0.0016
  802POSM   C3B 9412   2.138  23.426  11.978 -0.1556  0.1734 -0.1176
  802POSM   C4B 9413   2.161  23.107  12.336 -0.1785  0.0245  0.0108
  803DOPC   NC3 9414   4.464  20.321  10.117  0.1356 -0.0640  0.0791
  803DOPC   PO4 9415   4.367  19.988   9.971 -0.0987  0.3878 -0.1573
  803DOPC   GL1 9416   4.258  19.901  10.347 -0.3588  0.0523 -0.4187
  803DOPC   GL2 9417   4.536  19.898  10.455  0.1941 -0.0868 -0.0795
  803DOPC   C1A 9418   4.146  19.577  10.620 -0.2242  0.1101  0.2740
  803DOPC   D2A 9419   4.118  19.325  10.966  0.1690 -0.5932  0.1979
  803DOPC   C3A 9420   4.102  18.875  11.115  0.4705 -0.0873 -0.0011
  803DOPC   C4A 9421   4.364  18.516  11.245  0.0728 -0.0220 -0.1510
  803DOPC   C1B 9422   4.413  19.890  10.890  0.0156 -0.3395  0.1633
  803DOPC   D2B 9423   4.219  19.684  11.301  0.0397 -0.1759 -0.1266
  803DOPC   C3B 9424   4.154  19.937  11.686  0.0074 -0.0635 -0.0814
  803DOPC   C4B 9425   4.358  20.101  12.082  0.0346 -0.2843 -0.1970
  804POSM   NC3 9426   0.645  20.616   9.482  0.0323 -0.4636  0.3031
  804POSM   PO4 9427   0.552  20.435   9.801 -0.1735 -0.2564 -0.2343
  804POSM   AM1 9428   0.604  20.445  10.100 -0.0374  0.1562  0.0037
  804POSM   AM2 9429   0.641  20.590  10.335  0.0467  0.0557  0.0114
  804POSM   T1A 9430   0.638  20.178  10.543 -0.0377 -0.1836 -0.2988
  804POSM   C2A 9431   0.498  20.155  10.958 -0.1587  0.0057 -0.0106
  804POSM   C3A 9432   0.244  20.292  11.319 -0.3083 -0.0655  0.0121
  804POSM   C1B 9433   0.701  20.704  10.669 -0.0363  0.0333 -0.0532
  804POSM   D2B 9434   0.931  20.819  11.099 -0.1604 -0.1888 -0.1560
  804POSM   C3B 9435   0.759  21.104  11.373 -0.1423  0.1963 -0.1740
  804POSM   C4B 9436   0.648  21.460  11.687  0.1678  0.0137 -0.0757
  805DOPE   NH3 9437   3.666  15.033   9.945  0.0691  0.0749 -0.0773
  805DOPE   PO4 9438   3.644  15.116  10.254  0.2474 -0.3663  0.0592
  805DOPE   GL1 9439   3.613  15.151  10.561 -0.2971 -0.1639 -0.2031
  805DOPE   GL2 9440   3.624  15.394  10.697  0.0328 -0.3356  0.4273
  805DOPE   C1A 9441   3.772  15.029  10.961  0.0174 -0.1610  0.0447
  805DOPE   D2A 9442   3.427  15.089  11.280 -0.1192 -0.0006  0.0781
  805DOPE   C3A 9443   3.400  15.064  11.767  0.0184 -0.0321  0.1197
  805DOPE   C4A 9444   3.240  15.035  12.241  0.3818 -0.0300  0.1861
  805DOPE   C1B 9445   3.701  15.492  11.151 -0.1481  0.0948 -0.0936
  805DOPE   D2B 9446   3.888  15.347  11.486 -0.1494  0.1242  0.0600
  805DOPE   C3B 9447   3.875  14.920  11.687 -0.1667  0.0084  0.2755
  805DOPE   C4B 9448   4.240  14.728  11.959  0.0760 -0.0559  0.0347
  806DOPS   CNO 9449   1.732  20.324  10.160 -0.0803  0.0073 -0.2325
  806DOPS   PO4 9450   1.893  20.666  10.133  0.2823 -0.1893  0.0058
  806DOPS   GL1 9451   1.998  20.644  10.504 -0.2941 -0.1682  0.1227
  806DOPS   GL2 9452   1.769  20.825  10.632  0.0254 -0.0230 -0.4666
  806DOPS   C1A 9453   1.815  20.380  10.849 -0.0793 -0.0324  0.2724
  806DOPS   D2A 9454   1.783  20.108  11.217 -0.2366 -0.3114 -0.2483
  806DOPS   C3A 9455   2.160  20.362  11.233  0.1149  0.1920 -0.2227
  806DOPS   C4A 9456   2.595  20.441  11.049 -0.1434  0.1696  0.2955
  806DOPS   C1B 9457   1.851  20.827  11.108  0.1095  0.0077  0.3048
  806DOPS   D2B 9458   1.933  20.640  11.502 -0.1811 -0.0527 -0.0032
  806DOPS   C3B 9459   2.336  20.749  11.695 -0.0196  0.0432  0.0962
  806DOPS   C4B 9460   2.725  20.639  11.521  0.0987  0.0187 -0.2835
  807DOPC   NC3 9461   1.462  18.957   9.827 -0.1791 -0.0789  0.1511
  807DOPC   PO4 9462   1.819  18.821   9.872 -0.0661 -0.5173  0.0120
  807DOPC   GL1 9463   1.612  18.673  10.251 -0.0015  0.1923  0.1648
  807DOPC   GL2 9464   1.664  18.416  10.389  0.0656  0.1594 -0.1663
  807DOPC   C1A 9465   1.286  18.621  10.612 -0.2273 -0.2964 -0.0004
  807DOPC   D2A 9466   1.253  18.732  11.042  0.0215 -0.1746 -0.0680
  807DOPC   C3A 9467   1.107  18.416  11.304 -0.1172  0.1393 -0.1647
  807DOPC   C4A 9468   0.934  17.975  11.276 -0.2778  0.1933  0.0883
  807DOPC   C1B 9469   1.801  18.703  10.685 -0.2150 -0.2771 -0.1253
  807DOPC   D2B 9470   1.854  18.766  11.159 -0.1523 -0.1241  0.2752
  807DOPC   C3B 9471   1.655  18.691  11.638 -0.0479 -0.1125  0.4098
  807DOPC   C4B 9472   1.340  18.393  11.820 -0.0474  0.0412 -0.0361
  808DOPC   NC3 9473   9.336  19.991   9.401  0.0330 -0.0316  0.2154
  808DOPC   PO4 9474   9.476  20.354   9.565 -0.0776  0.1805  0.0961
  808DOPC   GL1 9475   9.437  20.183   9.914  0.1865 -0.0139  0.1733
  808DOPC   GL2 9476   9.170  20.241  10.079 -0.0613 -0.4559 -0.1812
  808DOPC   C1A 9477   9.639  19.836  10.170  0.0201 -0.0804  0.2863
  808DOPC   D2A 9478   9.730  19.391  10.198  0.0424  0.1099  0.0909
  808DOPC   C3A 9479  10.021  19.245  10.547 -0.1945 -0.1024  0.0319
  808DOPC   C4A 9480   9.999  19.128  11.005 -0.1520  0.0160  0.1255
  808DOPC   C1B 9481   9.306  20.631  10.302 -0.0015  0.6128 -0.0001
  808DOPC   D2B 9482   9.482  20.665  10.737 -0.1464  0.1368  0.1293
  808DOPC   C3B 9483   9.320  20.394  11.028 -0.0019 -0.1571 -0.5792
  808DOPC   C4B 9484   8.990  20.379  11.380 -0.0537 -0.0799  0.1790
  809DOPC   NC3 9485   2.164  17.628   9.766  0.1405  0.0344  0.2289
  809DOPC   PO4 9486   1.872  17.436   9.949  0.1554  0.3451  0.1480
  809DOPC   GL1 9487   1.640  17.577  10.315 -0.2967  0.3798  0.0089
  809DOPC   GL2 9488   1.781  17.780  10.339 -0.2221 -0.2807 -0.1110
  809DOPC   C1A 9489   1.353  17.922  10.402  0.1176 -0.2028 -0.2948
  809DOPC   D2A 9490   0.923  18.087  10.583 -0.2295  0.0590 -0.2177
  809DOPC   C3A 9491   1.300  18.216  10.884  0.2506  0.0450 -0.0452
  809DOPC   C4A 9492   1.597  18.305  11.212 -0.1139 -0.2133 -0.1496
  809DOPC   C1B 9493   1.667  17.908  10.780 -0.3622  0.0582  0.2024
  809DOPC   D2B 9494   1.477  17.805  11.150  0.1479  0.0247  0.0649
  809DOPC   C3B 9495   1.768  17.517  11.330  0.0071 -0.0217 -0.1337
  809DOPC   C4B 9496   2.025  17.345  11.592 -0.0796 -0.0436 -0.1234
  810DOPS   CNO 9497   4.958  20.993   9.703  0.0535  0.0612 -0.0677
  810DOPS   PO4 9498   5.081  20.909  10.066  0.1009  0.0148 -0.1212
  810DOPS   GL1 9499   4.915  20.798  10.406  0.0037 -0.3540 -0.2339
  810DOPS   GL2 9500   4.645  20.790  10.386 -0.0589 -0.1198 -0.1134
  810DOPS   C1A 9501   4.939  21.001  10.843  0.0021 -0.5815  0.0571
  810DOPS   D2A 9502   5.014  20.826  11.286 -0.0358 -0.1626 -0.3207
  810DOPS   C3A 9503   5.319  21.060  11.622 -0.0161  0.0898  0.2586
  810DOPS   C4A 9504   5.437  21.006  12.075  0.0655 -0.0842 -0.0583
  810DOPS   C1B 9505   4.594  20.393  10.624 -0.1417  0.1706 -0.1248
  810DOPS   D2B 9506   4.805  20.123  10.911  0.2605 -0.0187 -0.3780
  810DOPS   C3B 9507   4.709  19.810  11.287 -0.0505 -0.2518 -0.0254
  810DOPS   C4B 9508   4.624  19.509  11.602 -0.0189 -0.1350 -0.0708
  811POSM   NC3 9509  34.011  11.825  10.193  0.0597 -0.2259  0.1553
  811POSM   PO4 9510  34.194  12.098  10.332 -0.2839 -0.0996  0.0942
  811POSM   AM1 9511  34.264  12.141  10.622  0.1127 -0.2752 -0.0408
  811POSM   AM2 9512  34.491  12.210  10.830 -0.1118  0.1914 -0.1166
  811POSM   T1A 9513  34.057  12.373  11.067 -0.0803 -0.0243  0.1184
  811POSM   C2A 9514  33.782  12.590  11.370  0.1822 -0.1293  0.0149
  811POSM   C3A 9515  33.356  12.807  11.308 -0.2322 -0.0167 -0.1964
  811POSM   C1B 9516  34.538  12.532  11.005  0.3352 -0.2971 -0.2219
  811POSM   D2B 9517  34.606  12.845  11.265 -0.0164  0.1951 -0.4759
  811POSM   C3B 9518  34.741  13.255  11.174  0.0392  0.0551  0.0010
  811POSM   C4B 9519  35.180  13.329  10.986 -0.0497  0.0289 -0.1130
  812POSM   NC3 9520   4.532  21.055   9.970 -0.1051  0.0387 -0.0907
  812POSM   PO4 9521   4.672  21.410   9.990 -0.1612 -0.0873  0.1200
  812POSM   AM1 9522   4.823  21.279  10.227 -0.1546 -0.0584  0.2616
  812POSM   AM2 9523   4.680  21.261  10.480  0.2013 -0.1607 -0.3572
  812POSM   T1A 9524   5.175  21.362  10.563 -0.0645  0.1759  0.0852
  812POSM   C2A 9525   5.157  21.408  11.064 -0.4088  0.1840 -0.1832
  812POSM   C3A 9526   5.447  21.538  11.399  0.2164 -0.0993 -0.0407
  812POSM   C1B 9527   4.685  21.429  10.774  0.0235  0.0944 -0.0123
  812POSM   D2B 9528   4.621  21.741  11.177  0.0739  0.1054 -0.0929
  812POSM   C3B 9529   4.954  21.724  11.491 -0.0577  0.0650 -0.0184
  812POSM   C4B 9530   4.822  21.700  11.965  0.3776  0.0585 -0.2376
  813DOPE   NH3 9531   0.944  20.077  10.037  0.3206  0.0109 -0.0100
  813DOPE   PO4 9532   1.208  20.107  10.137  0.2237  0.0302 -0.1235
  813DOPE   GL1 9533   1.356  20.066  10.516 -0.0309  0.2415  0.3063
  813DOPE   GL2 9534   1.405  19.714  10.510 -0.1137  0.0348  0.0563
  813DOPE   C1A 9535   1.359  20.034  10.964 -0.1122 -0.1941 -0.4023
  813DOPE   D2A 9536   1.334  19.965  11.437  0.0955  0.1046 -0.1879
  813DOPE   C3A 9537   1.340  20.170  11.818 -0.3236 -0.1251 -0.2071
  813DOPE   C4A 9538   1.548  20.552  11.970 -0.0886 -0.0288  0.0066
  813DOPE   C1B 9539   1.263  19.549  10.961  0.1432  0.0930  0.0543
  813DOPE   D2B 9540   0.988  19.373  11.244  0.0669  0.2398  0.2918
  813DOPE   C3B 9541   0.880  18.887  11.318  0.0920  0.1333  0.1174
  813DOPE   C4B 9542   0.702  18.694  11.684  0.1999  0.1363 -0.2140
  814DOPC   NC3 9543   4.808   9.265  12.101 -0.0383 -0.1757 -0.1308
  814DOPC   PO4 9544   4.550   9.525  12.236 -0.2642 -0.0554 -0.1574
  814DOPC   GL1 9545   4.494   9.442  12.562  0.1464  0.1638  0.1098
  814DOPC   GL2 9546   4.674   9.504  12.726 -0.1165  0.2750  0.5221
  814DOPC   C1A 9547   4.253   9.668  12.909  0.5558  0.2996  0.2116
  814DOPC   D2A 9548   4.375   9.692  13.320 -0.0169 -0.2298 -0.1734
  814DOPC   C3A 9549   4.599   9.808  13.698  0.4402 -0.0566  0.1360
  814DOPC   C4A 9550   4.947   9.995  13.892  0.0799 -0.3456  0.1135
  814DOPC   C1B 9551   4.744   9.877  12.978  0.5305 -0.1164  0.2717
  814DOPC   D2B 9552   4.900  10.066  13.362 -0.0981  0.2301  0.1553
  814DOPC   C3B 9553   5.289  10.334  13.515 -0.0058  0.0345  0.3366
  814DOPC   C4B 9554   5.246  10.762  13.787 -0.0675 -0.2081  0.2751
  815POSM   NC3 9555   9.349  14.915   9.384 -0.1730 -0.0844 -0.2420
  815POSM   PO4 9556   9.705  14.696   9.433  0.0424 -0.4646  0.1025
  815POSM   AM1 9557   9.843  14.733   9.725 -0.1305 -0.0794 -0.0748
  815POSM   AM2 9558  10.035  14.933   9.810  0.0217 -0.0907  0.1498
  815POSM   T1A 9559   9.748  14.891  10.205  0.0162  0.2305  0.2350
  815POSM   C2A 9560   9.670  14.767  10.630 -0.0974 -0.1762  0.3272
  815POSM   C3A 9561   9.662  14.453  11.005  0.0444 -0.0929 -0.2231
  815POSM   C1B 9562  10.362  14.893   9.933  0.1880 -0.0240  0.0451
  815POSM   D2B 9563  10.702  14.769  10.179  0.2128 -0.3478 -0.0546
  815POSM   C3B 9564  11.054  14.929  10.383  0.1678  0.0303  0.1419
  815POSM   C4B 9565  11.284  15.313  10.348  0.0543  0.1089 -0.1776
  816POSM   NC3 9566   4.668  18.351   9.729 -0.0588 -0.3719 -0.1547
  816POSM   PO4 9567   5.035  18.276   9.905 -0.2126 -0.3049  0.0012
  816POSM   AM1 9568   5.043  18.460  10.177 -0.0956  0.1905 -0.3050
  816POSM   AM2 9569   4.850  18.664  10.225  0.1611  0.0183 -0.1763
  816POSM   T1A 9570   5.219  18.493  10.630  0.2579 -0.1294  0.2349
  816POSM   C2A 9571   5.053  18.620  11.062 -0.1956  0.1990  0.0879
  816POSM   C3A 9572   4.869  18.438  11.476 -0.0779 -0.0672 -0.0745
  816POSM   C1B 9573   4.932  18.892  10.494 -0.1574 -0.0515 -0.0575
  816POSM   D2B 9574   5.020  19.097  10.888 -0.0224  0.1970 -0.1527
  816POSM   C3B 9575   5.074  19.401  11.339  0.0272  0.1925 -0.2389
  816POSM   C4B 9576   5.138  19.455  11.786 -0.1592  0.3872 -0.0042
  817DOPC   NC3 9577   1.957  33.474  15.780  0.2981  0.0336  0.0587
  817DOPC   PO4 9578   2.268  33.641  15.697 -0.1414  0.0766  0.0824
  817DOPC   GL1 9579   2.396  33.883  15.280 -0.2146 -0.0577 -0.0295
  817DOPC   GL2 9580   2.257  33.682  15.148  0.1278  0.2647 -0.0678
  817DOPC   C1A 9581   2.465  34.099  14.894 -0.2881  0.2654  0.4315
  817DOPC   D2A 9582   2.813  34.411  14.737 -0.2590  0.1496 -0.1601
  817DOPC   C3A 9583   2.852  34.735  14.436  0.2429  0.0945 -0.0484
  817DOPC   C4A 9584   3.088  35.087  14.139 -0.0064 -0.1411  0.0782
  817DOPC   C1B 9585   2.143  33.538  14.715  0.1270 -0.1817  0.2547
  817DOPC   D2B 9586   2.012  33.639  14.247  0.0935  0.0648  0.1545
  817DOPC   C3B 9587   2.374  33.895  14.022  0.0736 -0.1697  0.4169
  817DOPC   C4B 9588   2.792  34.010  13.773  0.1392  0.0638  0.0524
  818DOPC   NC3 9589  11.208  27.247  15.127  0.1114  0.0039  0.1009
  818DOPC   PO4 9590  11.500  27.122  15.398  0.0427 -0.0200  0.0422
  818DOPC   GL1 9591  11.682  27.115  14.995 -0.0854 -0.0602 -0.4273
  818DOPC   GL2 9592  11.716  27.388  14.924 -0.2659 -0.0306 -0.1721
  818DOPC   C1A 9593  11.595  27.048  14.550 -0.2555  0.0268 -0.1636
  818DOPC   D2A 9594  11.297  27.075  14.184 -0.0140  0.1177  0.0157
  818DOPC   C3A 9595  11.439  27.115  13.743  0.1313  0.0475  0.4569
  818DOPC   C4A 9596  11.859  27.129  13.539  0.4017 -0.0152  0.1234
  818DOPC   C1B 9597  11.704  27.842  14.807  0.1432  0.0293 -0.0189
  818DOPC   D2B 9598  11.853  28.113  14.467  0.3679  0.2099  0.1647
  818DOPC   C3B 9599  11.747  27.941  14.028  0.1450  0.3387  0.0345
  818DOPC   C4B 9600  11.489  28.239  13.757  0.0705 -0.1753 -0.2389
  819DOPE   NH3 9601   7.154  30.695  16.041  0.2857 -0.0274 -0.3629
  819DOPE   PO4 9602   7.073  31.011  16.142  0.0172 -0.1279 -0.1426
  819DOPE   GL1 9603   7.245  31.057  15.721 -0.0340  0.1155 -0.1042
  819DOPE   GL2 9604   7.196  31.295  15.666  0.3940 -0.0805 -0.2064
  819DOPE   C1A 9605   7.324  30.683  15.481  0.0314  0.2656 -0.1608
  819DOPE   D2A 9606   7.397  30.577  15.040  0.1609 -0.3147  0.2510
  819DOPE   C3A 9607   7.773  30.399  14.757  0.0992  0.2760 -0.1186
  819DOPE   C4A 9608   8.211  30.411  14.599 -0.3133 -0.0067  0.0119
  819DOPE   C1B 9609   7.302  31.459  15.237  0.0520 -0.2963  0.1524
  819DOPE   D2B 9610   7.570  31.569  14.888 -0.1175  0.1479 -0.2318
  819DOPE   C3B 9611   7.387  31.342  14.576  0.1801 -0.1328 -0.2379
  819DOPE   C4B 9612   7.129  31.138  14.223 -0.0873  0.1012 -0.0840
  820DOPE   NH3 9613   0.278   0.859  16.009 -0.0884  0.1780  0.4494
  820DOPE   PO4 9614   0.605   0.840  15.874  0.1510 -0.3933 -0.1493
  820DOPE   GL1 9615   0.625   0.768  15.444  0.0483  0.0682  0.2021
  820DOPE   GL2 9616   0.665   0.981  15.243 -0.3514 -0.0273  0.0225
  820DOPE   C1A 9617   0.365   0.442  15.178  0.3424  0.1252  0.2260
  820DOPE   D2A 9618   0.425   0.031  15.067 -0.1048  0.2450 -0.0545
  820DOPE   C3A 9619   0.077   0.100  14.718 -0.1636 -0.0897 -0.1005
  820DOPE   C4A 9620  -0.282  -0.060  14.502  0.3494  0.0312 -0.2409
  820DOPE   C1B 9621   0.815   0.995  14.788 -0.5501 -0.3651 -0.0541
  820DOPE   D2B 9622   1.155   0.772  14.517  0.0923 -0.0384 -0.1272
  820DOPE   C3B 9623   1.427   0.536  14.832  0.1733  0.0054 -0.2305
  820DOPE   C4B 9624   1.747   0.367  15.116  0.0695 -0.0672 -0.2140
  821DOPC   NC3 9625  10.296  33.379  16.298 -0.0995 -0.0698  0.1561
  821DOPC   PO4 9626  10.371  33.046  16.104  0.3207  0.1076  0.0721
  821DOPC   GL1 9627  10.125  32.830  15.836 -0.3873  0.0399  0.0747
  821DOPC   GL2 9628  10.003  32.633  15.919 -0.1044 -0.2261  0.0460
  821DOPC   C1A 9629  10.069  32.785  15.370 -0.0401 -0.0845  0.2475
  821DOPC   D2A 9630   9.966  32.586  14.945 -0.1085 -0.3576 -0.2360
  821DOPC   C3A 9631   9.751  32.849  14.627 -0.1849 -0.0227  0.0012
  821DOPC   C4A 9632   9.341  32.719  14.452  0.1404  0.3523 -0.2557
  821DOPC   C1B 9633   9.717  32.502  15.547  0.0644 -0.2543 -0.1014
  821DOPC   D2B 9634   9.509  32.457  15.112  0.1403  0.1262 -0.1907
  821DOPC   C3B 9635   9.625  32.306  14.695 -0.2011 -0.0713 -0.2160
  821DOPC   C4B 9636   9.972  32.448  14.422 -0.4261  0.0410  0.1705
  822DOPC   NC3 9637  10.458  30.946  16.408 -0.2022 -0.0370 -0.0082
  822DOPC   PO4 9638  10.713  30.946  16.129  0.1245  0.2827  0.4480
  822DOPC   GL1 9639  10.722  31.041  15.718  0.1650  0.3232 -0.1513
  822DOPC   GL2 9640  10.462  30.873  15.727 -0.2761  0.0780 -0.2415
  822DOPC   C1A 9641  10.782  31.410  15.405  0.0918  0.1577 -0.2411
  822DOPC   D2A 9642  10.945  31.805  15.114 -0.1764  0.1490  0.0713
  822DOPC   C3A 9643  10.649  31.943  14.768 -0.1998  0.3550 -0.1330
  822DOPC   C4A 9644  10.410  32.216  14.447  0.1436  0.3046  0.3362
  822DOPC   C1B 9645  10.399  31.015  15.345 -0.5073 -0.2243  0.0531
  822DOPC   D2B 9646  10.111  31.182  15.035  0.2631 -0.2098  0.1074
  822DOPC   C3B 9647   9.791  31.023  14.716  0.1523 -0.2158 -0.0825
  822DOPC   C4B 9648   9.799  30.937  14.200 -0.1087  0.0216 -0.0136
  823POSM   NC3 9649   6.518  26.914  15.047 -0.1056 -0.1872  0.1216
  823POSM   PO4 9650   6.878  26.759  15.156 -0.2941 -0.0919  0.2666
  823POSM   AM1 9651   7.091  26.780  14.907  0.0376  0.3680 -0.0735
  823POSM   AM2 9652   7.176  26.992  14.719 -0.0474 -0.2595 -0.0394
  823POSM   T1A 9653   7.369  26.641  14.508  0.6107 -0.0356 -0.3286
  823POSM   C2A 9654   7.677  26.740  14.177 -0.0192 -0.1369  0.1689
  823POSM   C3A 9655   7.973  26.898  13.862 -0.2507 -0.0073 -0.0975
  823POSM   C1B 9656   7.271  27.132  14.411 -0.0049  0.0011  0.0936
  823POSM   D2B 9657   7.360  27.082  13.969  0.0648  0.0143  0.0085
  823POSM   C3B 9658   7.656  27.362  13.711 -0.0541 -0.0621 -0.0183
  823POSM   C4B 9659   7.903  27.502  13.293 -0.0138  0.1708  0.2437
  824DOPS   CNO 9660   4.713  31.873  15.754 -0.2160 -0.1606 -0.1708
  824DOPS   PO4 9661   4.546  32.232  15.887  0.0766  0.1685  0.1136
  824DOPS   GL1 9662   4.554  32.269  15.455  0.1301  0.2942  0.0169
  824DOPS   GL2 9663   4.862  32.336  15.485 -0.1258  0.5861 -0.0306
  824DOPS   C1A 9664   4.474  31.946  15.111 -0.3834 -0.1473  0.0357
  824DOPS   D2A 9665   4.767  31.836  14.785  0.3392 -0.0309  0.1720
  824DOPS   C3A 9666   5.144  32.062  14.880  0.0865  0.0870  0.0297
  824DOPS   C4A 9667   5.634  32.106  14.752 -0.0146  0.4350 -0.0154
  824DOPS   C1B 9668   4.769  32.387  15.072 -0.0301 -0.1028 -0.3122
  824DOPS   D2B 9669   4.915  32.547  14.678  0.2548  0.0665 -0.1105
  824DOPS   C3B 9670   5.342  32.533  14.655  0.2206 -0.1412  0.2228
  824DOPS   C4B 9671   5.778  32.638  14.743  0.1204  0.0463 -0.0030
  825DOPC   NC3 9672   6.913  24.438  14.112  0.2230  0.1411  0.1005
  825DOPC   PO4 9673   7.048  24.808  14.015  0.2399 -0.0157 -0.0836
  825DOPC   GL1 9674   7.080  24.576  13.695  0.0669  0.1351  0.1232
  825DOPC   GL2 9675   6.995  24.248  13.563 -0.2734 -0.2284 -0.1290
  825DOPC   C1A 9676   6.825  24.727  13.299 -0.1953 -0.0604 -0.0606
  825DOPC   D2A 9677   6.700  24.736  12.856  0.0858  0.0091 -0.0797
  825DOPC   C3A 9678   6.664  24.327  12.589 -0.2178  0.0162 -0.0822
  825DOPC   C4A 9679   6.809  23.910  12.724 -0.0023  0.1712 -0.1980
  825DOPC   C1B 9680   7.307  24.458  13.323 -0.1515 -0.0967  0.1462
  825DOPC   D2B 9681   7.476  24.574  12.890 -0.3686  0.3765 -0.0845
  825DOPC   C3B 9682   7.698  24.937  12.723  0.0696  0.1153  0.0464
  825DOPC   C4B 9683   7.709  25.332  12.493 -0.3196 -0.0142  0.3016
  826DOPE   NH3 9684   6.180  25.878  14.534 -0.0046 -0.0448 -0.0551
  826DOPE   PO4 9685   6.477  26.001  14.544 -0.3791  0.3051  0.3708
  826DOPE   GL1 9686   6.782  26.110  14.291 -0.0158  0.0421 -0.0928
  826DOPE   GL2 9687   6.777  26.358  14.150 -0.3873 -0.0142  0.3726
  826DOPE   C1A 9688   7.058  25.955  13.914  0.0003 -0.0459 -0.1443
  826DOPE   D2A 9689   7.235  26.115  13.511 -0.1118 -0.0537  0.0867
  826DOPE   C3A 9690   6.946  26.033  13.176 -0.1311  0.1767  0.1132
  826DOPE   C4A 9691   6.576  26.073  12.945 -0.0410  0.1617 -0.0885
  826DOPE   C1B 9692   7.005  26.790  14.168  0.0282  0.3187  0.0359
  826DOPE   D2B 9693   6.901  27.185  14.005  0.2255 -0.1050 -0.2727
  826DOPE   C3B 9694   7.142  27.484  13.756  0.0835 -0.1198 -0.1541
  826DOPE   C4B 9695   7.032  27.624  13.334  0.1596 -0.0175  0.0476
  827POSM   NC3 9696   6.097  31.153  16.193 -0.1108 -0.0529 -0.0412
  827POSM   PO4 9697   6.052  30.922  15.872 -0.3812 -0.2309  0.4101
  827POSM   AM1 9698   6.009  30.909  15.542  0.1052 -0.5234 -0.0531
  827POSM   AM2 9699   5.956  30.724  15.324 -0.2393  0.3416 -0.2125
  827POSM   T1A 9700   6.337  31.088  15.214  0.2163 -0.2992  0.0194
  827POSM   C2A 9701   6.494  30.938  14.837 -0.0372  0.0225  0.0949
  827POSM   C3A 9702   6.355  30.644  14.530 -0.2041  0.2023 -0.0103
  827POSM   C1B 9703   5.994  30.746  14.941  0.1202  0.0584 -0.1005
  827POSM   D2B 9704   5.965  30.970  14.559  0.0098 -0.2811  0.0553
  827POSM   C3B 9705   5.693  30.900  14.204 -0.0763 -0.0671  0.2945
  827POSM   C4B 9706   5.330  30.925  13.908 -0.0576  0.1077  0.2461
  828DOPS   CNO 9707   5.997  32.488  16.309 -0.0879 -0.2076 -0.0355
  828DOPS   PO4 9708   6.354  32.451  16.425  0.0910 -0.0905 -0.2700
  828DOPS   GL1 9709   6.359  32.597  16.026 -0.1118 -0.3562  0.1933
  828DOPS   GL2 9710   6.339  32.439  15.801  0.0731  0.1554  0.1317
  828DOPS   C1A 9711   6.643  32.884  15.739 -0.3153  0.0224 -0.1058
  828DOPS   D2A 9712   6.500  33.074  15.384 -0.2298 -0.1279  0.0725
  828DOPS   C3A 9713   6.732  33.211  15.008 -0.1099 -0.1512  0.3052
  828DOPS   C4A 9714   7.060  33.293  14.657 -0.0799  0.0840 -0.1168
  828DOPS   C1B 9715   6.311  32.562  15.400  0.2371  0.1097  0.2128
  828DOPS   D2B 9716   6.097  32.886  15.197  0.2046  0.1448  0.1347
  828DOPS   C3B 9717   6.088  33.012  14.748 -0.0142  0.4393  0.4537
  828DOPS   C4B 9718   6.160  32.793  14.371 -0.0742  0.2177  0.2552
  829DOPC   NC3 9719  11.256  23.863  14.523  0.0620  0.2582  0.1983
  829DOPC   PO4 9720  10.961  24.038  14.288 -0.1877  0.1305  0.0237
  829DOPC   GL1 9721  10.746  23.916  13.977 -0.2303  0.2657  0.2291
  829DOPC   GL2 9722  10.463  23.943  13.967 -0.1954  0.2064  0.1924
  829DOPC   C1A 9723  10.802  24.033  13.562  0.0441  0.1164 -0.0893
  829DOPC   D2A 9724  10.642  23.882  13.167 -0.0771  0.1192  0.1198
  829DOPC   C3A 9725  10.403  23.950  12.759  0.2208  0.0506 -0.3733
  829DOPC   C4A 9726  10.637  24.014  12.338 -0.4245 -0.0379  0.1813
  829DOPC   C1B 9727  10.324  24.182  13.619 -0.3403  0.1101  0.5533
  829DOPC   D2B 9728  10.340  24.256  13.141 -0.1195  0.2823  0.2694
  829DOPC   C3B 9729  10.661  24.330  12.787 -0.1430 -0.2587 -0.1196
  829DOPC   C4B 9730  11.030  24.343  12.577 -0.1017  0.1748  0.1276
  830DOPE   NH3 9731   6.511  27.703  15.550  0.0486 -0.0017 -0.0678
  830DOPE   PO4 9732   6.812  27.865  15.518  0.0912 -0.0165 -0.0410
  830DOPE   GL1 9733   6.784  28.183  15.284  0.1052  0.1644 -0.0040
  830DOPE   GL2 9734   6.563  28.331  15.294 -0.1313  0.0939  0.0619
  830DOPE   C1A 9735   6.868  28.126  14.879 -0.2595 -0.0953  0.0142
  830DOPE   D2A 9736   7.134  28.019  14.570 -0.1114 -0.0865  0.3054
  830DOPE   C3A 9737   7.334  28.367  14.299  0.2495  0.1877  0.0512
  830DOPE   C4A 9738   7.407  28.350  13.818 -0.0909 -0.2536  0.2783
  830DOPE   C1B 9739   6.770  28.590  14.968  0.0423 -0.0031 -0.0463
  830DOPE   D2B 9740   6.602  28.899  14.644  0.2003 -0.1771  0.0452
  830DOPE   C3B 9741   6.616  28.941  14.164  0.0218  0.2693 -0.0502
  830DOPE   C4B 9742   6.337  28.834  13.848  0.2356  0.1043  0.0123
  831DOPE   NH3 9743   6.806  28.695  15.499 -0.1181 -0.0020 -0.0701
  831DOPE   PO4 9744   6.631  28.884  15.638  0.0096  0.1225  0.0461
  831DOPE   GL1 9745   6.773  29.122  15.336  0.0705  0.0276 -0.2817
  831DOPE   GL2 9746   7.007  29.195  15.521  0.0202  0.1134 -0.1465
  831DOPE   C1A 9747   6.642  29.329  14.928  0.3061  0.1243 -0.0479
  831DOPE   D2A 9748   6.490  29.376  14.497  0.0776 -0.0137 -0.0122
  831DOPE   C3A 9749   6.497  29.696  14.222 -0.0070 -0.1482 -0.2600
  831DOPE   C4A 9750   6.403  29.835  13.759 -0.0009 -0.0148  0.0689
  831DOPE   C1B 9751   7.085  29.102  15.036 -0.0894 -0.0479 -0.1984
  831DOPE   D2B 9752   7.113  29.095  14.604  0.1108  0.0917 -0.0856
  831DOPE   C3B 9753   7.334  29.336  14.294 -0.0195  0.0003  0.0480
  831DOPE   C4B 9754   7.314  29.281  13.828 -0.0200 -0.3036  0.0801
  832DOPC   NC3 9755   9.549  31.890  16.227  0.1874  0.3335 -0.0936
  832DOPC   PO4 9756   9.441  32.263  16.101  0.0189  0.2432  0.0698
  832DOPC   GL1 9757   9.588  32.043  15.780  0.1628  0.1219  0.0386
  832DOPC   GL2 9758   9.875  32.124  15.779 -0.0611 -0.0498 -0.1161
  832DOPC   C1A 9759   9.249  32.106  15.475 -0.2555  0.2480  0.0201
  832DOPC   D2A 9760   9.063  32.423  15.161  0.0534  0.4908  0.1317
  832DOPC   C3A 9761   9.141  32.801  14.885 -0.0098  0.5302 -0.1679
  832DOPC   C4A 9762   9.031  33.097  14.530 -0.0278  0.2517 -0.2419
  832DOPC   C1B 9763  10.309  31.928  15.708 -0.1303 -0.0079 -0.1553
  832DOPC   D2B 9764  10.702  31.921  15.511 -0.1060 -0.1637  0.3480
  832DOPC   C3B 9765  10.629  32.253  15.264  0.2154  0.1794 -0.0312
  832DOPC   C4B 9766  10.419  32.427  14.929 -0.2979  0.2436 -0.2670
  833POSM   NC3 9767   8.469  30.835  16.144 -0.0712 -0.0399  0.0520
  833POSM   PO4 9768   8.533  30.431  16.104  0.0160 -0.1563 -0.0581
  833POSM   AM1 9769   8.631  30.407  15.786 -0.0355 -0.4252  0.1308
  833POSM   AM2 9770   8.872  30.482  15.610  0.0767 -0.2911 -0.2789
  833POSM   T1A 9771   8.587  30.181  15.359  0.2949  0.1644 -0.1441
  833POSM   C2A 9772   8.821  29.997  14.991  0.1254 -0.0257  0.1475
  833POSM   C3A 9773   9.075  29.795  14.645  0.1199 -0.0286  0.1054
  833POSM   C1B 9774   9.043  30.400  15.334  0.0198 -0.1505 -0.0195
  833POSM   D2B 9775   9.301  30.108  15.026 -0.0275  0.0852  0.2570
  833POSM   C3B 9776   9.197  29.660  15.117 -0.1984 -0.2739  0.0692
  833POSM   C4B 9777   9.053  29.269  15.018  0.2691 -0.1857  0.2901
  834DOPE   NH3 9778   0.311  34.339  15.665 -0.2344 -0.3477 -0.3248
  834DOPE   PO4 9779   0.056  34.261  15.813 -0.0420 -0.1424  0.0355
  834DOPE   GL1 9780  -0.214  34.329  15.459  0.0193 -0.1880  0.0822
  834DOPE   GL2 9781   0.043  34.327  15.255  0.2114 -0.1174  0.1238
  834DOPE   C1A 9782  -0.456  34.507  15.071  0.0682 -0.2453 -0.0105
  834DOPE   D2A 9783  -0.604  34.794  14.743 -0.4419 -0.1395 -0.2744
  834DOPE   C3A 9784  -0.637  34.817  14.284  0.0172 -0.0595 -0.1752
  834DOPE   C4A 9785  -0.609  34.685  13.847 -0.1454 -0.0758  0.1391
  834DOPE   C1B 9786  -0.112  34.067  14.876  0.2513  0.0114 -0.1343
  834DOPE   D2B 9787  -0.059  33.999  14.419  0.1563 -0.0119 -0.0970
  834DOPE   C3B 9788  -0.283  34.148  14.016  0.0135  0.2704  0.0682
  834DOPE   C4B 9789  -0.711  33.971  13.821  0.1933 -0.3073  0.2675
  835DOPS   CNO 9790   4.726  25.205  14.597  0.0927 -0.1158 -0.3220
  835DOPS   PO4 9791   4.547  25.273  14.271  0.1712 -0.0937  0.4707
  835DOPS   GL1 9792   4.554  25.596  13.925 -0.0282 -0.1340  0.1578
  835DOPS   GL2 9793   4.274  25.437  13.860  0.2843  0.1407  0.1776
  835DOPS   C1A 9794   4.431  25.885  13.595 -0.0846 -0.3236  0.1590
  835DOPS   D2A 9795   4.621  26.117  13.297  0.0865  0.1300  0.2019
  835DOPS   C3A 9796   4.676  26.372  12.948  0.1324  0.0453  0.1574
  835DOPS   C4A 9797   4.860  26.486  12.508  0.2370  0.1334 -0.1466
  835DOPS   C1B 9798   4.052  25.178  13.551 -0.1771 -0.2697 -0.0263
  835DOPS   D2B 9799   3.837  25.234  13.141  0.0714  0.0583  0.1038
  835DOPS   C3B 9800   3.735  24.897  12.852  0.0062  0.0207  0.0883
  835DOPS   C4B 9801   3.721  24.904  12.406  0.2712  0.0679 -0.3153
  836POSM   NC3 9802   8.323  31.613  16.216  0.2199  0.2455 -0.2567
  836POSM   PO4 9803   7.948  31.528  16.066 -0.0220  0.0936  0.0788
  836POSM   AM1 9804   7.887  31.417  15.790 -0.2685  0.3446 -0.2519
  836POSM   AM2 9805   7.723  31.243  15.652  0.0721  0.1984 -0.0474
  836POSM   T1A 9806   7.906  31.542  15.297 -0.0434 -0.0131  0.2756
  836POSM   C2A 9807   8.160  31.893  15.033  0.0979 -0.0089  0.3422
  836POSM   C3A 9808   8.152  32.328  14.882  0.3071 -0.2743  0.2287
  836POSM   C1B 9809   7.632  31.065  15.330  0.2232 -0.4312 -0.1029
  836POSM   D2B 9810   7.732  30.985  14.924  0.0874  0.0131  0.1515
  836POSM   C3B 9811   7.862  31.233  14.495  0.2750  0.4054  0.0880
  836POSM   C4B 9812   8.327  31.390  14.438 -0.0613 -0.2888 -0.2839
  837POSM   NC3 9813   2.306  31.721  14.419  0.2127 -0.4569  0.2184
  837POSM   PO4 9814   2.524  31.388  14.511  0.0609  0.0245  0.2462
  837POSM   AM1 9815   2.619  31.440  14.172  0.1982 -0.1235 -0.1361
  837POSM   AM2 9816   2.703  31.663  14.027  0.3779  0.1903  0.0432
  837POSM   T1A 9817   2.892  31.368  13.725 -0.0978 -0.0770  0.0446
  837POSM   C2A 9818   3.279  31.302  13.468 -0.0535  0.1797  0.0797
  837POSM   C3A 9819   3.538  31.093  13.143  0.1107 -0.1486  0.1235
  837POSM   C1B 9820   2.887  31.945  13.859  0.0527 -0.0708  0.2102
  837POSM   D2B 9821   3.023  32.425  13.841 -0.1806  0.0302 -0.3171
  837POSM   C3B 9822   3.362  32.440  13.599 -0.2065 -0.0473  0.0910
  837POSM   C4B 9823   3.678  32.792  13.506 -0.1281  0.3860  0.0619
  838DOPC   NC3 9824   3.759  24.820  14.552 -0.3488  0.0633  0.0323
  838DOPC   PO4 9825   3.786  24.470  14.708  0.1055  0.1404  0.0725
  838DOPC   GL1 9826   4.017  24.365  14.381  0.2337  0.0849  0.1041
  838DOPC   GL2 9827   3.954  24.589  14.114  0.3793  0.0528 -0.1399
  838DOPC   C1A 9828   3.886  24.087  14.022 -0.2573 -0.2413 -0.0073
  838DOPC   D2A 9829   3.529  24.136  13.720 -0.0167  0.0113 -0.1536
  838DOPC   C3A 9830   3.658  23.982  13.271  0.2745 -0.1522 -0.2528
  838DOPC   C4A 9831   3.647  23.965  12.796 -0.1237 -0.0157 -0.1538
  838DOPC   C1B 9832   3.660  24.755  13.848  0.0509 -0.3587 -0.3418
  838DOPC   D2B 9833   3.733  24.790  13.402 -0.1061  0.4140 -0.1293
  838DOPC   C3B 9834   4.115  24.628  13.187 -0.1654  0.5137  0.0353
  838DOPC   C4B 9835   4.566  24.755  13.120  0.2656 -0.0313 -0.2057
  839DOPS   CNO 9836   9.771  26.665  15.560 -0.4157 -0.2483 -0.0640
  839DOPS   PO4 9837   9.675  26.676  15.197 -0.1121  0.2827  0.2694
  839DOPS   GL1 9838   9.594  26.760  14.769 -0.2308  0.0896  0.0350
  839DOPS   GL2 9839   9.371  26.582  14.836  0.0863  0.1554 -0.2845
  839DOPS   C1A 9840   9.466  26.672  14.333 -0.0877  0.2018  0.1332
  839DOPS   D2A 9841   9.352  26.585  13.863 -0.2270 -0.0194 -0.1658
  839DOPS   C3A 9842   9.573  26.795  13.553 -0.0784  0.0176 -0.0230
  839DOPS   C4A 9843   9.568  27.202  13.366 -0.1004  0.2519 -0.0699
  839DOPS   C1B 9844   9.076  26.763  14.589 -0.0015 -0.0044 -0.0462
  839DOPS   D2B 9845   8.771  27.092  14.503  0.0664  0.2732  0.3007
  839DOPS   C3B 9846   8.934  27.482  14.405  0.1651  0.1029 -0.3201
  839DOPS   C4B 9847   9.147  27.730  14.102 -0.1164 -0.1328  0.0247
  840DOPE   NH3 9848   8.857  31.644  16.588 -0.1982  0.1015 -0.0997
  840DOPE   PO4 9849   8.775  31.772  16.288  0.2871  0.1355 -0.1406
  840DOPE   GL1 9850   8.700  31.701  15.912  0.1911 -0.0430 -0.0668
  840DOPE   GL2 9851   8.758  31.409  15.727  0.0710 -0.1015  0.2020
  840DOPE   C1A 9852   8.667  31.853  15.477  0.0442  0.0940 -0.1513
  840DOPE   D2A 9853   8.675  32.080  15.030 -0.4198  0.1555 -0.1030
  840DOPE   C3A 9854   8.487  32.097  14.599  0.2621  0.5137 -0.2882
  840DOPE   C4A 9855   8.386  31.961  14.171  0.1478 -0.0159  0.0796
  840DOPE   C1B 9856   9.125  31.143  15.895 -0.0170 -0.3096 -0.3415
  840DOPE   D2B 9857   9.532  31.188  15.636  0.0061  0.0646 -0.2154
  840DOPE   C3B 9858   9.986  31.268  15.491  0.0338  0.2681  0.1350
  840DOPE   C4B 9859  10.333  31.570  15.329  0.3254 -0.1132  0.0422
  841POSM   NC3 9860  11.299  28.249  16.086  0.0814  0.0117  0.2737
  841POSM   PO4 9861  11.033  28.286  15.761  0.0937 -0.1559  0.2545
  841POSM   AM1 9862  11.189  28.334  15.469  0.1991  0.0606  0.1550
  841POSM   AM2 9863  11.258  28.462  15.227  0.2847  0.0480 -0.1641
  841POSM   T1A 9864  11.639  28.207  15.209  0.0798  0.0452 -0.1083
  841POSM   C2A 9865  11.979  28.378  14.981 -0.0204  0.0132  0.2818
  841POSM   C3A 9866  12.444  28.375  15.074  0.0524 -0.0034 -0.4085
  841POSM   C1B 9867  11.143  28.721  14.991  0.1975 -0.0981  0.1307
  841POSM   D2B 9868  11.247  28.978  14.632  0.0529 -0.1963  0.1638
  841POSM   C3B 9869  11.214  28.883  14.201  0.2366  0.2102 -0.1661
  841POSM   C4B 9870  11.163  28.644  13.802  0.3256 -0.0944 -0.4881
  842POSM   NC3 9871  11.862  24.877  14.368 -0.1665 -0.3895 -0.1370
  842POSM   PO4 9872  12.031  25.213  14.277  0.0738 -0.0507 -0.3832
  842POSM   AM1 9873  12.043  25.103  13.970  0.2719 -0.1442 -0.2744
  842POSM   AM2 9874  11.921  24.920  13.838 -0.0817 -0.1442  0.2589
  842POSM   T1A 9875  12.214  25.134  13.491  0.1316  0.2217  0.1202
  842POSM   C2A 9876  12.408  25.025  13.097 -0.1756 -0.0953 -0.0442
  842POSM   C3A 9877  12.688  24.945  12.766  0.2448  0.1255 -0.0433
  842POSM   C1B 9878  11.736  24.989  13.578  0.1108 -0.0776  0.2080
  842POSM   D2B 9879  11.631  24.925  13.114  0.0307 -0.1310 -0.1842
  842POSM   C3B 9880  11.862  25.068  12.818  0.0465 -0.0310  0.1989
  842POSM   C4B 9881  12.227  25.310  12.612  0.0296  0.0481  0.3818
  843DOPC   NC3 9882   1.177  32.402  14.501 -0.0547  0.0583 -0.0044
  843DOPC   PO4 9883   1.509  32.269  14.581  0.2660 -0.0429  0.0507
  843DOPC   GL1 9884   1.621  32.151  14.226 -0.1797 -0.0073  0.2878
  843DOPC   GL2 9885   1.431  32.360  14.050 -0.2534 -0.1429  0.1494
  843DOPC   C1A 9886   1.864  32.301  13.874 -0.1072  0.0074  0.0191
  843DOPC   D2A 9887   2.078  32.185  13.440  0.1646 -0.2050  0.1455
  843DOPC   C3A 9888   2.499  32.302  13.302  0.0451  0.0253  0.1447
  843DOPC   C4A 9889   2.928  32.156  13.395  0.0876  0.2100 -0.0046
  843DOPC   C1B 9890   1.573  32.737  13.838 -0.1378  0.1073 -0.1717
  843DOPC   D2B 9891   1.521  32.687  13.362  0.1347  0.1893 -0.0769
  843DOPC   C3B 9892   1.933  32.650  13.146  0.1358 -0.0810  0.2697
  843DOPC   C4B 9893   2.280  32.991  13.078 -0.1934 -0.0317 -0.0059
  844DOPC   NC3 9894   2.971  27.137  14.415  0.2566 -0.0517  0.0610
  844DOPC   PO4 9895   2.574  27.122  14.414 -0.1630 -0.0209 -0.0519
  844DOPC   GL1 9896   2.721  27.209  14.010  0.0562  0.1266 -0.0331
  844DOPC   GL2 9897   3.057  27.033  13.949  0.2001  0.1474 -0.0650
  844DOPC   C1A 9898   2.756  27.311  13.551  0.1132 -0.1458 -0.0432
  844DOPC   D2A 9899   3.000  27.264  13.170  0.2735 -0.4245  0.2272
  844DOPC   C3A 9900   3.341  27.402  12.902  0.0015 -0.3356  0.0969
  844DOPC   C4A 9901   3.566  27.634  12.572 -0.2305 -0.1691 -0.0856
  844DOPC   C1B 9902   3.200  27.113  13.574 -0.1656  0.2011  0.1109
  844DOPC   D2B 9903   3.526  27.024  13.308 -0.0119  0.0287 -0.0449
  844DOPC   C3B 9904   3.568  26.931  12.825  0.1857 -0.3145  0.1145
  844DOPC   C4B 9905   3.313  26.743  12.484  0.3054  0.3273 -0.1500
  845POSM   NC3 9906   6.473  22.890  13.557  0.0884 -0.3783 -0.3386
  845POSM   PO4 9907   6.326  23.156  13.774  0.1866 -0.1322  0.0365
  845POSM   AM1 9908   6.137  23.284  13.495 -0.2164  0.0898  0.0672
  845POSM   AM2 9909   6.129  23.227  13.219  0.0530  0.3169  0.0336
  845POSM   T1A 9910   5.757  23.545  13.206  0.2318 -0.0832 -0.1979
  845POSM   C2A 9911   5.704  24.005  13.193  0.0153  0.0680 -0.1294
  845POSM   C3A 9912   5.401  24.322  12.978 -0.1727  0.2303  0.1430
  845POSM   C1B 9913   6.290  23.439  13.008  0.1247 -0.0652  0.1178
  845POSM   D2B 9914   6.294  23.822  12.731  0.0480  0.1526 -0.1941
  845POSM   C3B 9915   6.514  23.865  12.298  0.0724 -0.1204 -0.0001
  845POSM   C4B 9916   6.922  23.693  12.215  0.0722  0.2093  0.1282
  846POSM   NC3 9917  13.183  27.755  15.469 -0.0733 -0.0682 -0.0597
  846POSM   PO4 9918  13.345  27.726  15.097 -0.1023 -0.2207  0.2615
  846POSM   AM1 9919  13.021  27.720  14.998  0.0597 -0.2990 -0.0426
  846POSM   AM2 9920  12.865  27.528  14.838  0.1390  0.0897 -0.1863
  846POSM   T1A 9921  12.660  28.037  14.791  0.1969 -0.5039  0.0598
  846POSM   C2A 9922  12.359  28.278  14.487  0.1555 -0.1651 -0.3044
  846POSM   C3A 9923  12.270  28.576  14.123 -0.1083 -0.4101  0.2712
  846POSM   C1B 9924  12.794  27.658  14.520 -0.3596 -0.1535  0.0355
  846POSM   D2B 9925  12.610  27.866  14.159  0.3831 -0.0850  0.1170
  846POSM   C3B 9926  12.215  28.107  14.042  0.0176 -0.0668  0.1777
  846POSM   C4B 9927  11.951  28.464  13.823 -0.0118  0.1284  0.2068
  847DOPE   NH3 9928   9.197  32.627  16.359 -0.2572 -0.1404 -0.2311
  847DOPE   PO4 9929   9.411  32.845  16.265  0.1164 -0.0748  0.0917
  847DOPE   GL1 9930   9.440  32.873  15.936  0.2766 -0.0442 -0.2008
  847DOPE   GL2 9931   9.322  32.627  15.813  0.0671  0.2479 -0.0713
  847DOPE   C1A 9932   9.676  33.118  15.668 -0.3480  0.0462  0.1046
  847DOPE   D2A 9933   9.664  33.614  15.588 -0.0172 -0.2769 -0.0364
  847DOPE   C3A 9934   9.742  33.781  15.129  0.0866  0.1480  0.0201
  847DOPE   C4A 9935   9.753  33.765  14.646  0.0651 -0.0704 -0.1432
  847DOPE   C1B 9936   9.313  32.890  15.427 -0.0372  0.0357 -0.1433
  847DOPE   D2B 9937   9.588  32.948  15.075  0.1369 -0.0920  0.0599
  847DOPE   C3B 9938   9.901  33.242  15.222  0.0133 -0.1412  0.0590
  847DOPE   C4B 9939  10.248  33.312  15.550  0.1205  0.0574  0.0440
  848DOPC   NC3 9940   4.833  31.372  15.700 -0.1781 -0.1462  0.3890
  848DOPC   PO4 9941   5.065  31.083  15.829 -0.2729 -0.4853  0.1497
  848DOPC   GL1 9942   5.135  31.246  15.380  0.0851 -0.2706  0.2456
  848DOPC   GL2 9943   5.521  31.266  15.414  0.1489 -0.0652  0.0717
  848DOPC   C1A 9944   5.254  31.453  14.975 -0.0186 -0.0590 -0.3175
  848DOPC   D2A 9945   5.708  31.585  14.789 -0.2036  0.2771 -0.1362
  848DOPC   C3A 9946   5.886  31.372  14.339  0.1188 -0.2028 -0.2171
  848DOPC   C4A 9947   6.220  31.040  14.152  0.0849  0.0080 -0.0278
  848DOPC   C1B 9948   5.821  31.154  15.094  0.1667 -0.0167  0.3840
  848DOPC   D2B 9949   6.174  31.512  14.841  0.0415 -0.1021 -0.2320
  848DOPC   C3B 9950   6.079  31.926  14.610 -0.0038  0.0082 -0.1145
  848DOPC   C4B 9951   6.364  32.220  14.305 -0.3675 -0.0275  0.3032
  849DOPE   NH3 9952   8.220  29.475  15.930  0.3260 -0.0498 -0.0331
  849DOPE   PO4 9953   7.904  29.339  15.951  0.0822 -0.1750  0.2836
  849DOPE   GL1 9954   8.021  29.250  15.515 -0.0223 -0.0517  0.1036
  849DOPE   GL2 9955   8.079  29.592  15.442  0.1526 -0.2276 -0.3252
  849DOPE   C1A 9956   8.024  29.334  15.038  0.2242  0.1273 -0.0319
  849DOPE   D2A 9957   7.979  29.125  14.621 -0.0042  0.2922  0.0203
  849DOPE   C3A 9958   7.830  29.340  14.283  0.2284 -0.2066 -0.0464
  849DOPE   C4A 9959   7.872  29.362  13.812 -0.3157  0.4041  0.2692
  849DOPE   C1B 9960   8.287  29.756  15.075  0.2481 -0.1050  0.2966
  849DOPE   D2B 9961   8.452  29.992  14.676 -0.1206  0.0669  0.0886
  849DOPE   C3B 9962   8.195  29.928  14.247  0.0936  0.0465  0.1228
  849DOPE   C4B 9963   7.811  29.790  14.079 -0.0800  0.0422 -0.0764
  850DOPE   NH3 9964  10.269  24.257  14.329  0.1000 -0.2076  0.0553
  850DOPE   PO4 9965  10.310  24.561  14.331 -0.3108 -0.5720  0.2911
  850DOPE   GL1 9966  10.451  24.631  13.935 -0.2265 -0.0308 -0.2971
  850DOPE   GL2 9967  10.698  24.410  13.905 -0.0129  0.0182 -0.1917
  850DOPE   C1A 9968  10.238  24.719  13.521 -0.2871 -0.0434  0.1305
  850DOPE   D2A 9969  10.430  24.727  13.074  0.2126  0.0417  0.1431
  850DOPE   C3A 9970  10.221  24.652  12.649  0.1548  0.1874  0.1121
  850DOPE   C4A 9971   9.881  24.343  12.510 -0.0427  0.3421 -0.1808
  850DOPE   C1B 9972  11.095  24.359  13.728  0.4791 -0.0832  0.0726
  850DOPE   D2B 9973  11.514  24.558  13.722  0.0703  0.1321  0.0457
  850DOPE   C3B 9974  11.666  24.499  13.286  0.0565  0.2540 -0.1277
  850DOPE   C4B 9975  11.547  24.472  12.843  0.1570 -0.0975 -0.1581
  851DOPE   NH3 9976   7.385  24.342  13.970 -0.0122  0.1149  0.0987
  851DOPE   PO4 9977   7.717  24.320  14.101  0.0836  0.1528  0.5844
  851DOPE   GL1 9978   7.812  24.214  13.780 -0.0612  0.1930  0.3767
  851DOPE   GL2 9979   7.697  24.298  13.569  0.1913 -0.0004 -0.3061
  851DOPE   C1A 9980   8.182  24.380  13.481  0.1251 -0.1458  0.1654
  851DOPE   D2A 9981   8.459  24.273  13.086  0.2292  0.2036 -0.1152
  851DOPE   C3A 9982   8.472  24.599  12.694  0.3653  0.3904 -0.0718
  851DOPE   C4A 9983   8.611  24.908  12.348  0.0266  0.0934  0.2314
  851DOPE   C1B 9984   7.567  24.114  13.152  0.2081  0.0391  0.2487
  851DOPE   D2B 9985   7.599  23.698  13.006 -0.2068 -0.1745 -0.1242
  851DOPE   C3B 9986   7.627  23.638  12.583 -0.2253 -0.2735  0.0445
  851DOPE   C4B 9987   7.425  23.657  12.153 -0.0713 -0.0900 -0.1960
  852DOPS   CNO 9988   2.463  28.421  14.336 -0.2222  0.0848 -0.0160
  852DOPS   PO4 9989   2.734  28.713  14.345 -0.2478 -0.1959 -0.0845
  852DOPS   GL1 9990   2.691  28.560  13.940  0.0822 -0.2023  0.2284
  852DOPS   GL2 9991   2.382  28.654  13.893 -0.0437  0.1906 -0.3274
  852DOPS   C1A 9992   2.890  28.342  13.577  0.3326  0.0432 -0.2482
  852DOPS   D2A 9993   2.993  28.319  13.158  0.2782 -0.0297 -0.0076
  852DOPS   C3A 9994   2.900  28.323  12.699 -0.3364 -0.0047 -0.0643
  852DOPS   C4A 9995   2.678  28.374  12.292  0.1035 -0.3539 -0.0114
  852DOPS   C1B 9996   2.585  28.789  13.473 -0.2306 -0.0100  0.0099
  852DOPS   D2B 9997   2.668  28.647  13.058 -0.0345  0.1017 -0.4459
  852DOPS   C3B 9998   2.482  28.764  12.671  0.1228  0.0860 -0.0493
  852DOPS   C4B 9999   2.713  28.925  12.294  0.3934  0.1744 -0.5517
  853DOPE   NH310000   4.863  29.586  15.086 -0.0948 -0.3342 -0.1670
  853DOPE   PO410001   4.634  29.448  14.860  0.0738 -0.0714  0.1615
  853DOPE   GL110002   4.992  29.569  14.642  0.2195  0.3825 -0.2093
  853DOPE   GL210003   5.199  29.365  14.773  0.1900  0.1158  0.3273
  853DOPE   C1A10004   5.296  29.543  14.231  0.0684  0.1685 -0.3574
  853DOPE   D2A10005   5.387  29.829  13.907 -0.4484  0.0681 -0.0015
  853DOPE   C3A10006   5.381  29.547  13.490  0.0803 -0.0755  0.1676
  853DOPE   C4A10007   5.708  29.380  13.231 -0.0608 -0.0474 -0.1916
  853DOPE   C1B10008   5.559  29.662  14.608 -0.2129 -0.2509 -0.0957
  853DOPE   D2B10009   5.751  30.028  14.330 -0.3466  0.1986 -0.0641
  853DOPE   C3B10010   6.230  30.092  14.237 -0.0687 -0.0425  0.0025
  853DOPE   C4B10011   6.492  30.355  14.010 -0.2527 -0.1379  0.0843
  854DOPE   NH310012   3.646  29.741  14.649 -0.1683 -0.2728 -0.3059
  854DOPE   PO410013   3.415  29.935  14.567 -0.1907  0.1029 -0.0462
  854DOPE   GL110014   3.572  29.957  14.230  0.3009  0.3959  0.0084
  854DOPE   GL210015   3.616  30.188  14.072 -0.0622  0.0072 -0.0340
  854DOPE   C1A10016   3.777  29.787  13.847 -0.4585  0.0500  0.0235
  854DOPE   D2A10017   3.607  29.620  13.429  0.0121  0.1645  0.0005
  854DOPE   C3A10018   3.924  29.416  13.138 -0.0197 -0.1512 -0.0652
  854DOPE   C4A10019   4.038  29.130  12.801  0.0678  0.1611  0.2484
  854DOPE   C1B10020   3.291  30.413  13.817 -0.1411  0.0883  0.3132
  854DOPE   D2B10021   2.965  30.249  13.524 -0.5108 -0.0551  0.1131
  854DOPE   C3B10022   3.259  30.469  13.240 -0.0460  0.0596  0.2030
  854DOPE   C4B10023   3.659  30.536  12.959  0.0791  0.0185  0.0596
  855POSM   NC310024   3.054  23.655  14.311 -0.0033 -0.2436  0.1272
  855POSM   PO410025   2.746  23.380  14.418 -0.2316  0.2008 -0.1211
  855POSM   AM110026   2.680  23.402  14.096  0.2868 -0.1232  0.0321
  855POSM   AM210027   2.497  23.514  13.930  0.0504 -0.0719 -0.1410
  855POSM   T1A10028   2.818  23.284  13.640  0.0664 -0.3549 -0.4333
  855POSM   C2A10029   2.866  23.588  13.268  0.0584 -0.0280 -0.0667
  855POSM   C3A10030   2.912  23.747  12.801  0.2534  0.1929  0.2019
  855POSM   C1B10031   2.471  23.767  13.707 -0.0605  0.1286 -0.0503
  855POSM   D2B10032   2.363  24.190  13.649 -0.1200  0.0383 -0.1657
  855POSM   C3B10033   1.945  24.244  13.436 -0.0318  0.0534 -0.0140
  855POSM   C4B10034   1.466  24.091  13.424 -0.0589 -0.3257 -0.1373
  856POSM   NC310035   7.058  25.765  14.455 -0.0322  0.2722  0.0137
  856POSM   PO410036   6.735  25.563  14.438  0.0120 -0.1616  0.2156
  856POSM   AM110037   6.689  25.585  14.142 -0.1859 -0.0419 -0.0333
  856POSM   AM210038   6.534  25.806  14.033  0.2022 -0.1874  0.2280
  856POSM   T1A10039   6.840  25.585  13.662  0.0210  0.0539  0.0840
  856POSM   C2A10040   7.221  25.612  13.415  0.0608  0.2965 -0.2264
  856POSM   C3A10041   7.400  25.513  12.988 -0.0112 -0.3629  0.5020
  856POSM   C1B10042   6.386  25.517  13.841 -0.3463  0.7063 -0.1722
  856POSM   D2B10043   6.129  25.314  13.486  0.0510 -0.0443  0.0234
  856POSM   C3B10044   6.239  25.029  13.146  0.1303 -0.0014  0.0948
  856POSM   C4B10045   5.920  25.009  12.849  0.0060  0.0011 -0.3208
  857DOPC   NC310046   6.594  29.591  15.449  0.0184 -0.0827  0.2358
  857DOPC   PO410047   6.947  29.729  15.442 -0.4588 -0.2447  0.0399
  857DOPC   GL110048   7.018  29.630  15.038 -0.2406 -0.0917 -0.0643
  857DOPC   GL210049   7.324  29.698  15.041 -0.2329  0.0371 -0.2348
  857DOPC   C1A10050   6.955  29.577  14.565  0.1771  0.2068 -0.1273
  857DOPC   D2A10051   6.865  29.380  14.107  0.2562  0.0397  0.3051
  857DOPC   C3A10052   6.524  29.315  13.756 -0.3474  0.0572 -0.0253
  857DOPC   C4A10053   6.482  29.092  13.400  0.0824 -0.1107 -0.0712
  857DOPC   C1B10054   7.252  30.113  14.795  0.2165 -0.0006  0.1145
  857DOPC   D2B10055   7.413  30.288  14.367 -0.3031  0.1450 -0.1029
  857DOPC   C3B10056   7.762  30.270  14.068 -0.0434 -0.1782  0.3220
  857DOPC   C4B10057   7.868  30.075  13.629  0.1512 -0.2469 -0.1959
  858DOPC   NC310058   3.186  32.669  14.730  0.3217 -0.0198 -0.0273
  858DOPC   PO410059   2.828  32.799  14.879 -0.0297 -0.0950  0.0075
  858DOPC   GL110060   2.836  32.813  14.486 -0.0188  0.0935  0.2818
  858DOPC   GL210061   2.587  33.039  14.466  0.0107  0.2138 -0.0962
  858DOPC   C1A10062   3.115  32.906  14.129 -0.0233 -0.0543 -0.0968
  858DOPC   D2A10063   3.359  33.168  13.784 -0.0845  0.0466 -0.0116
  858DOPC   C3A10064   3.662  33.513  13.869  0.0252 -0.0737 -0.2633
  858DOPC   C4A10065   3.969  33.819  14.020 -0.0924  0.3738  0.0329
  858DOPC   C1B10066   2.278  33.150  14.147  0.0331 -0.0563  0.1287
  858DOPC   D2B10067   2.051  33.448  13.828  0.2541  0.2925 -0.0336
  858DOPC   C3B10068   1.912  33.893  13.767 -0.1837 -0.1869 -0.1196
  858DOPC   C4B10069   1.971  34.352  13.931  0.3734 -0.0707 -0.2896
  859POSM   NC310070   2.947  33.296  15.855  0.0073  0.1609  0.3199
  859POSM   PO410071   2.574  33.274  15.704 -0.0782  0.4391  0.1119
  859POSM   AM110072   2.645  33.442  15.403  0.1704 -0.1165 -0.1438
  859POSM   AM210073   2.719  33.389  15.140 -0.2044 -0.2106 -0.1917
  859POSM   T1A10074   2.858  33.832  15.150  0.0217 -0.1190 -0.1292
  859POSM   C2A10075   3.185  34.102  14.956 -0.1354 -0.0157 -0.2401
  859POSM   C3A10076   3.627  33.975  14.745 -0.2730  0.1272  0.5490
  859POSM   C1B10077   2.682  33.457  14.846  0.0335 -0.1173 -0.1497
  859POSM   D2B10078   2.660  33.544  14.364 -0.0283  0.1131 -0.0166
  859POSM   C3B10079   2.620  33.512  13.907 -0.0486  0.2239  0.0334
  859POSM   C4B10080   2.428  33.310  13.450  0.0902 -0.1612  0.1547
  860DOPC   NC310081   7.881  23.554  14.355 -0.0729  0.0199  0.0733
  860DOPC   PO410082   8.241  23.540  14.187  0.0712 -0.1173  0.2564
  860DOPC   GL110083   8.289  23.690  13.730 -0.6365  0.0842 -0.0711
  860DOPC   GL210084   8.572  23.647  13.773  0.0286 -0.0859  0.0229
  860DOPC   C1A10085   8.471  23.838  13.300  0.2054  0.0375  0.1586
  860DOPC   D2A10086   8.879  23.895  13.108  0.2745  0.3016 -0.2137
  860DOPC   C3A10087   8.924  24.123  12.713 -0.3496 -0.2025  0.1218
  860DOPC   C4A10088   9.167  24.239  12.385 -0.0650  0.2213 -0.0426
  860DOPC   C1B10089   8.691  23.416  13.404 -0.1315  0.2038 -0.1189
  860DOPC   D2B10090   8.516  23.471  12.993 -0.0567  0.1847 -0.3420
  860DOPC   C3B10091   8.751  23.672  12.658 -0.1311 -0.2775 -0.0351
  860DOPC   C4B10092   8.989  23.722  12.326  0.0791  0.2572  0.1386
  861POSM   NC310093   0.710  31.381  13.875 -0.2195 -0.0262 -0.1440
  861POSM   PO410094   0.799  31.648  14.184  0.3083  0.2609 -0.1605
  861POSM   AM110095   0.872  31.926  14.019 -0.1592 -0.0169 -0.1816
  861POSM   AM210096   0.989  32.172  14.071  0.1313 -0.1214 -0.0730
  861POSM   T1A10097   1.145  31.910  13.626  0.0744 -0.1633  0.1214
  861POSM   C2A10098   1.564  32.040  13.405 -0.0012  0.0346  0.0928
  861POSM   C3A10099   1.689  32.214  13.007 -0.0392 -0.1181  0.1430
  861POSM   C1B10100   0.955  32.339  13.801  0.0447  0.2942  0.1754
  861POSM   D2B10101   1.075  32.488  13.390 -0.3013  0.1651  0.1460
  861POSM   C3B10102   1.147  32.782  13.068  0.0618 -0.1188  0.0058
  861POSM   C4B10103   1.040  32.920  12.681  0.0816  0.1438  0.1978
  862DOPC   NC310104   4.292  26.974  14.666 -0.1137  0.0248 -0.0048
  862DOPC   PO410105   4.221  27.332  14.508  0.1839  0.1805 -0.1524
  862DOPC   GL110106   4.208  27.300  14.062 -0.1312  0.0929  0.0478
  862DOPC   GL210107   4.330  27.581  14.029  0.0077  0.0945  0.0476
  862DOPC   C1A10108   3.825  27.385  13.761  0.3653  0.1907  0.0014
  862DOPC   D2A10109   3.742  27.543  13.320  0.0812  0.1791  0.0957
  862DOPC   C3A10110   3.868  27.365  12.927 -0.1573 -0.0643 -0.2375
  862DOPC   C4A10111   3.883  27.242  12.433 -0.0572 -0.2222 -0.0730
  862DOPC   C1B10112   4.532  27.685  13.630 -0.2053 -0.2423 -0.0551
  862DOPC   D2B10113   4.270  27.569  13.155  0.0716  0.0547  0.0605
  862DOPC   C3B10114   4.319  27.409  12.682 -0.0846 -0.1713 -0.0476
  862DOPC   C4B10115   4.614  27.375  12.359 -0.0245  0.0366  0.1436
  863POSM   NC310116   1.231   1.707  16.046  0.0504  0.1473  0.1589
  863POSM   PO410117   1.389   1.972  15.801 -0.0603  0.1600 -0.1858
  863POSM   AM110118   1.321   2.035  15.492 -0.1366 -0.0407 -0.1074
  863POSM   AM210119   1.458   2.087  15.242 -0.1284  0.1887 -0.2098
  863POSM   T1A10120   1.023   1.995  15.109  0.2906  0.0506 -0.0299
  863POSM   C2A10121   1.093   1.894  14.644  0.1127 -0.0088  0.2228
  863POSM   C3A10122   1.218   1.723  14.198  0.1372 -0.0668 -0.0242
  863POSM   C1B10123   1.474   2.215  14.909 -0.2810 -0.2111 -0.0160
  863POSM   D2B10124   1.471   2.234  14.491 -0.1293  0.0289  0.1604
  863POSM   C3B10125   1.828   2.287  14.123 -0.1211  0.0243 -0.0160
  863POSM   C4B10126   2.300   2.286  14.162 -0.2674  0.1295 -0.1565
  864DOPE   NH310127   2.918  31.396  14.951  0.0067  0.0226 -0.2464
  864DOPE   PO410128   3.177  31.501  14.809 -0.4389 -0.2179  0.2117
  864DOPE   GL110129   3.495  31.512  14.657 -0.2390  0.2772 -0.2295
  864DOPE   GL210130   3.438  31.323  14.467  0.1558  0.1997  0.1359
  864DOPE   C1A10131   3.729  31.689  14.352 -0.0225 -0.1479  0.1476
  864DOPE   D2A10132   3.733  31.651  13.912 -0.1783  0.0825 -0.0913
  864DOPE   C3A10133   3.325  31.768  13.736 -0.2928  0.1312 -0.0234
  864DOPE   C4A10134   3.041  31.696  13.385  0.0619  0.1140  0.0175
  864DOPE   C1B10135   3.299  31.211  13.988  0.0019  0.2318 -0.0587
  864DOPE   D2B10136   3.129  30.844  13.726  0.1372 -0.1876 -0.0631
  864DOPE   C3B10137   2.979  30.958  13.288 -0.0951 -0.0716 -0.4180
  864DOPE   C4B10138   3.039  31.297  12.983 -0.0998 -0.1917 -0.3263
  865DOPC   NC310139   9.938  23.476  13.925  0.1459  0.1320  0.6564
  865DOPC   PO410140   9.996  23.793  14.189  0.0024 -0.0356 -0.0232
  865DOPC   GL110141   9.912  23.979  13.817 -0.5645 -0.1773  0.1584
  865DOPC   GL210142   9.990  24.287  13.945 -0.3195 -0.3040  0.0126
  865DOPC   C1A10143   9.525  24.001  13.573 -0.0634  0.0155  0.1859
  865DOPC   D2A10144   9.291  24.443  13.607 -0.1939 -0.0461 -0.2108
  865DOPC   C3A10145   9.344  24.895  13.543  0.0115  0.0231  0.2051
  865DOPC   C4A10146   9.445  25.324  13.691  0.4627 -0.2839  0.0122
  865DOPC   C1B10147   9.850  24.346  13.492  0.0352  0.0312  0.1914
  865DOPC   D2B10148   9.617  24.573  13.186 -0.3225 -0.0481  0.0163
  865DOPC   C3B10149   9.952  24.895  13.025  0.0606  0.0190  0.0739
  865DOPC   C4B10150   9.986  25.126  12.629 -0.1601 -0.3301  0.0766
  866DOPC   NC310151   7.680  22.235  13.492  0.1453  0.4583 -0.2550
  866DOPC   PO410152   8.036  22.254  13.663 -0.2040  0.0475  0.3059
  866DOPC   GL110153   8.180  22.142  13.324  0.2317 -0.0973  0.1991
  866DOPC   GL210154   8.453  21.925  13.350  0.1247 -0.3321 -0.1720
  866DOPC   C1A10155   8.317  22.222  12.878  0.5268 -0.1524  0.1276
  866DOPC   D2A10156   8.347  22.361  12.424  0.2615 -0.4427 -0.0901
  866DOPC   C3A10157   8.112  22.739  12.252  0.2695  0.1332  0.0357
  866DOPC   C4A10158   7.967  22.972  11.875 -0.0244  0.0509  0.0544
  866DOPC   C1B10159   8.144  21.768  13.025 -0.1486  0.0499  0.1044
  866DOPC   D2B10160   7.880  21.506  12.744 -0.4936  0.1734 -0.1087
  866DOPC   C3B10161   7.509  21.680  12.426  0.1583 -0.0270 -0.0803
  866DOPC   C4B10162   7.213  21.781  12.057 -0.1677  0.0454  0.0876
  867DOPC   NC310163   5.400  27.717  14.882  0.0115  0.0642 -0.0986
  867DOPC   PO410164   5.750  27.842  14.942  0.1435  0.1466 -0.1809
  867DOPC   GL110165   5.899  27.770  14.546  0.2085  0.0081  0.0306
  867DOPC   GL210166   5.732  27.597  14.474 -0.0472  0.2328 -0.0904
  867DOPC   C1A10167   6.257  27.508  14.381 -0.2799  0.1258 -0.0734
  867DOPC   D2A10168   6.593  27.571  14.033 -0.0607 -0.0469  0.1610
  867DOPC   C3A10169   6.612  27.335  13.619  0.0321 -0.4304  0.3265
  867DOPC   C4A10170   6.442  27.354  13.176  0.1141 -0.0347  0.3923
  867DOPC   C1B10171   5.634  27.815  14.092  0.1024 -0.3044 -0.1109
  867DOPC   D2B10172   5.263  28.117  13.941  0.1614  0.1658  0.1125
  867DOPC   C3B10173   4.850  28.334  13.923  0.0708 -0.2158 -0.1508
  867DOPC   C4B10174   4.500  28.544  13.722 -0.0523 -0.2274 -0.3058
  868DOPC   NC310175  10.888  30.478  16.070  0.1952 -0.1480  0.3433
  868DOPC   PO410176  10.871  30.136  16.267  0.0338  0.1991  0.1332
  868DOPC   GL110177  10.822  29.981  15.909  0.0807 -0.4482  0.0205
  868DOPC   GL210178  11.004  30.037  15.685  0.0098  0.0527 -0.4343
  868DOPC   C1A10179  10.560  29.977  15.503 -0.1764  0.1570  0.1427
  868DOPC   D2A10180  10.614  29.928  15.061  0.3255  0.0099 -0.0398
  868DOPC   C3A10181  10.410  29.557  14.756  0.0338  0.3329  0.3817
  868DOPC   C4A10182  10.048  29.292  14.820 -0.1528 -0.0201 -0.0290
  868DOPC   C1B10183  10.995  30.297  15.262  0.1306 -0.1757 -0.2005
  868DOPC   D2B10184  10.717  30.498  14.938 -0.2616  0.1248  0.0695
  868DOPC   C3B10185  10.484  30.166  14.633  0.0656  0.1844 -0.2725
  868DOPC   C4B10186  10.105  29.846  14.488  0.0782  0.1048  0.1583
  869DOPS   CNO10187   9.032  26.221  15.028  0.3596 -0.1082 -0.0373
  869DOPS   PO410188   8.817  26.355  15.288  0.2360  0.1643 -0.0341
  869DOPS   GL110189   8.749  26.694  14.956 -0.2922 -0.2158  0.0697
  869DOPS   GL210190   8.823  27.000  14.969  0.0482 -0.0402 -0.3485
  869DOPS   C1A10191   8.612  26.633  14.498  0.1491 -0.0066  0.0115
  869DOPS   D2A10192   8.460  26.845  14.069 -0.0900 -0.0924 -0.1401
  869DOPS   C3A10193   8.583  26.730  13.646  0.0322  0.0728 -0.1139
  869DOPS   C4A10194   8.631  26.711  13.188 -0.3090  0.1209  0.5001
  869DOPS   C1B10195   8.662  27.426  14.850 -0.3273  0.1539 -0.2644
  869DOPS   D2B10196   8.273  27.513  14.608 -0.0999  0.0686 -0.0382
  869DOPS   C3B10197   7.858  27.496  14.828 -0.2101  0.1552 -0.0427
  869DOPS   C4B10198   7.397  27.624  14.766 -0.1215  0.0207 -0.0671
  870DOPC   NC310199   7.886  26.266  14.892 -0.0337 -0.1123  0.0431
  870DOPC   PO410200   7.853  25.871  14.840  0.2115  0.1654 -0.2900
  870DOPC   GL110201   7.920  25.796  14.456  0.0071 -0.2343  0.0429
  870DOPC   GL210202   8.234  25.874  14.466 -0.1909  0.1265  0.1555
  870DOPC   C1A10203   7.949  25.488  14.087  0.1125 -0.0664 -0.1431
  870DOPC   D2A10204   7.944  25.589  13.654  0.1602 -0.2557 -0.3446
  870DOPC   C3A10205   7.692  25.916  13.461  0.0092 -0.0714  0.0755
  870DOPC   C4A10206   7.489  26.087  13.086 -0.1895 -0.0774 -0.0272
  870DOPC   C1B10207   8.105  25.991  14.046 -0.1246  0.0663  0.2313
  870DOPC   D2B10208   8.136  26.291  13.720 -0.0907  0.0820  0.1213
  870DOPC   C3B10209   8.531  26.230  13.419  0.3050  0.0047  0.2610
  870DOPC   C4B10210   8.492  26.290  12.980 -0.1166  0.1269 -0.2851
  871DOPS   CNO10211   7.958  30.744  16.176  0.0795 -0.0019 -0.0068
  871DOPS   PO410212   7.634  30.876  16.006  0.1649 -0.3119 -0.0494
  871DOPS   GL110213   7.716  30.759  15.689 -0.2592  0.1434 -0.0199
  871DOPS   GL210214   7.693  30.435  15.774 -0.0862 -0.1999  0.0540
  871DOPS   C1A10215   7.870  30.607  15.305 -0.4487  0.0584  0.0373
  871DOPS   D2A10216   8.132  30.280  15.125 -0.1480  0.1307  0.1597
  871DOPS   C3A10217   8.587  30.461  14.953  0.1031  0.1911 -0.1355
  871DOPS   C4A10218   8.841  30.324  14.546  0.0604 -0.1699  0.0303
  871DOPS   C1B10219   7.824  30.115  15.447 -0.1452  0.1311  0.3385
  871DOPS   D2B10220   7.759  29.950  15.032 -0.1137  0.1625  0.0107
  871DOPS   C3B10221   7.913  29.883  14.657  0.0004  0.0511  0.2723
  871DOPS   C4B10222   8.216  29.583  14.589 -0.0411  0.3261 -0.1375
  872POSM   NC310223  12.329  25.281  14.717  0.0801  0.1050  0.1915
  872POSM   PO410224  12.520  25.101  14.468  0.0642  0.1914  0.2021
  872POSM   AM110225  12.470  25.094  14.155  0.0395  0.4776 -0.1643
  872POSM   AM210226  12.530  25.241  13.908  0.4580  0.0879 -0.3026
  872POSM   T1A10227  12.546  24.808  13.717  0.1173 -0.1645  0.0418
  872POSM   C2A10228  12.581  24.553  13.298 -0.2626  0.0872 -0.1636
  872POSM   C3A10229  12.877  24.406  13.002 -0.1724  0.1347 -0.0715
  872POSM   C1B10230  12.619  25.347  13.621  0.0101  0.2974 -0.0129
  872POSM   D2B10231  12.562  25.541  13.198 -0.0045  0.0114  0.0072
  872POSM   C3B10232  12.377  25.865  12.951 -0.2659  0.0898 -0.1251
  872POSM   C4B10233  12.330  25.894  12.538  0.3020  0.1115  0.1611
  873DOPS   CNO10234   8.289  26.251  15.230 -0.0951 -0.1276 -0.1759
  873DOPS   PO410235   8.289  26.597  15.031  0.1029  0.1908  0.0421
  873DOPS   GL110236   8.190  26.611  14.687  0.0349  0.0898  0.0985
  873DOPS   GL210237   7.879  26.791  14.714  0.2863 -0.2659 -0.3488
  873DOPS   C1A10238   8.236  27.003  14.471  0.2627 -0.0855  0.0121
  873DOPS   D2A10239   8.181  27.317  14.112  0.0130 -0.1428 -0.0606
  873DOPS   C3A10240   8.224  27.456  13.651 -0.1521  0.3562 -0.0245
  873DOPS   C4A10241   8.397  27.688  13.344  0.3830  0.0095 -0.0201
  873DOPS   C1B10242   7.744  27.104  14.472 -0.1864  0.0745  0.0833
  873DOPS   D2B10243   7.712  27.576  14.306 -0.4328  0.0432  0.0327
  873DOPS   C3B10244   7.725  28.047  14.249 -0.1568  0.0275 -0.0789
  873DOPS   C4B10245   7.806  28.478  14.298 -0.1931  0.3546 -0.2302
  874DOPS   CNO10246   0.673  26.943  14.669  0.1002 -0.3551  0.1592
  874DOPS   PO410247   0.880  26.975  14.356  0.1133  0.2365  0.1845
  874DOPS   GL110248   1.024  26.795  14.088  0.0710 -0.6168 -0.0808
  874DOPS   GL210249   0.932  26.676  13.821  0.4169  0.1179  0.0250
  874DOPS   C1A10250   1.429  26.793  13.907  0.0426  0.5432 -0.0948
  874DOPS   D2A10251   1.697  27.090  13.693 -0.0689  0.0517  0.1257
  874DOPS   C3A10252   1.631  27.100  13.214  0.1275  0.2011 -0.2476
  874DOPS   C4A10253   1.616  27.237  12.786  0.0695  0.4225  0.2445
  874DOPS   C1B10254   1.129  27.016  13.552 -0.1931 -0.0393  0.2401
  874DOPS   D2B10255   1.072  27.024  13.087  0.0636 -0.2182  0.2657
  874DOPS   C3B10256   0.669  26.888  12.842 -0.0644  0.0252 -0.1390
  874DOPS   C4B10257   0.301  26.797  12.668 -0.2586 -0.2399 -0.1496
  875DOPE   NH310258   5.541  26.848  14.436 -0.1498 -0.1164 -0.4712
  875DOPE   PO410259   5.796  27.044  14.516  0.0086  0.0080 -0.1627
  875DOPE   GL110260   6.135  27.136  14.243 -0.2720  0.0470 -0.2210
  875DOPE   GL210261   5.904  27.213  14.019 -0.3329 -0.1522 -0.5163
  875DOPE   C1A10262   6.410  27.038  13.889  0.0384 -0.1623  0.1445
  875DOPE   D2A10263   6.582  26.875  13.528 -0.1106  0.0368 -0.2562
  875DOPE   C3A10264   6.893  26.994  13.147  0.2288  0.0126  0.0514
  875DOPE   C4A10265   7.210  26.690  13.132 -0.1636  0.1812 -0.0419
  875DOPE   C1B10266   5.614  27.429  13.727 -0.0033 -0.1381  0.3395
  875DOPE   D2B10267   5.423  27.636  13.364 -0.1555  0.4421 -0.1137
  875DOPE   C3B10268   5.362  28.061  13.385 -0.1577 -0.1073  0.0103
  875DOPE   C4B10269   5.466  28.455  13.344 -0.1237 -0.0343 -0.2296
  876DOPE   NH310270  10.155  22.786  13.827  0.0919  0.2925 -0.0867
  876DOPE   PO410271  10.302  23.070  13.887 -0.0209  0.4110  0.3089
  876DOPE   GL110272  10.497  23.349  13.594  0.0637 -0.4075 -0.1967
  876DOPE   GL210273  10.223  23.577  13.546 -0.1608  0.0435 -0.2060
  876DOPE   C1A10274  10.860  23.565  13.413 -0.0942 -0.0960  0.1137
  876DOPE   D2A10275  11.183  23.789  13.220  0.1713  0.0540  0.0495
  876DOPE   C3A10276  11.152  24.248  13.136  0.0864 -0.0019 -0.2952
  876DOPE   C4A10277  10.795  24.502  13.253  0.0574 -0.0941 -0.2735
  876DOPE   C1B10278  10.083  23.905  13.208 -0.1531 -0.1670  0.1781
  876DOPE   D2B10279   9.799  24.149  12.956  0.2863 -0.1115 -0.1767
  876DOPE   C3B10280   9.500  23.965  12.590  0.0677 -0.0987 -0.7142
  876DOPE   C4B10281   9.483  23.736  12.191  0.2024  0.2223  0.1259
  877DOPE   NH310282   7.180  32.576  16.469  0.0682  0.0505 -0.2019
  877DOPE   PO410283   7.268  32.345  16.327 -0.0065  0.0352 -0.1982
  877DOPE   GL110284   7.151  32.237  16.041 -0.0842  0.2203 -0.1113
  877DOPE   GL210285   7.374  32.336  15.831 -0.1083  0.0793 -0.3923
  877DOPE   C1A10286   6.912  32.376  15.675  0.0869 -0.1874 -0.0233
  877DOPE   D2A10287   6.852  32.203  15.313  0.2495 -0.2075 -0.1556
  877DOPE   C3A10288   6.755  32.275  14.857  0.0900  0.2557 -0.1186
  877DOPE   C4A10289   6.885  32.153  14.409  0.3643 -0.1310  0.0375
  877DOPE   C1B10290   7.367  32.411  15.372  0.0574 -0.0169 -0.1309
  877DOPE   D2B10291   7.293  32.439  14.911  0.0501 -0.0227  0.1673
  877DOPE   C3B10292   7.287  32.591  14.473  0.0878  0.0961 -0.2431
  877DOPE   C4B10293   7.164  32.844  14.007 -0.1224  0.0275 -0.1377
  878DOPC   NC310294   4.050  30.370  14.773  0.0632  0.0232 -0.2094
  878DOPC   PO410295   3.831  30.224  14.511  0.0603 -0.3080 -0.3610
  878DOPC   GL110296   4.020  29.929  14.249  0.1586 -0.0820  0.1416
  878DOPC   GL210297   4.009  29.603  14.259 -0.1043 -0.3959  0.1678
  878DOPC   C1A10298   4.426  29.977  14.050 -0.1068  0.0080  0.0623
  878DOPC   D2A10299   4.531  30.374  13.874  0.0792  0.1364 -0.0467
  878DOPC   C3A10300   4.655  30.363  13.377  0.2922 -0.0215 -0.0164
  878DOPC   C4A10301   4.605  30.059  13.008  0.0340  0.2756  0.3794
  878DOPC   C1B10302   4.353  29.469  13.993 -0.2079 -0.2799  0.2669
  878DOPC   D2B10303   4.657  29.159  13.792 -0.1786  0.3477  0.4213
  878DOPC   C3B10304   4.811  28.828  14.081 -0.1271 -0.0325  0.0601
  878DOPC   C4B10305   4.717  28.540  14.412  0.0357 -0.2550 -0.1172
  879DOPC   NC310306  10.946  25.391  15.073  0.0060  0.1540 -0.0868
  879DOPC   PO410307  11.251  25.500  14.858 -0.0669 -0.0453 -0.0981
  879DOPC   GL110308  10.991  25.592  14.603  0.0345  0.0749  0.1231
  879DOPC   GL210309  10.906  25.847  14.619  0.3772  0.0482 -0.1045
  879DOPC   C1A10310  11.151  25.628  14.146 -0.2228 -0.0600  0.0932
  879DOPC   D2A10311  11.507  25.709  13.856 -0.0169  0.2663 -0.1965
  879DOPC   C3A10312  11.577  25.625  13.376  0.0352  0.0288  0.1386
  879DOPC   C4A10313  11.656  25.892  13.023 -0.1014  0.0015  0.0245
  879DOPC   C1B10314  10.619  25.548  14.411 -0.0530  0.0384 -0.2215
  879DOPC   D2B10315  10.252  25.588  14.171 -0.0432  0.1415  0.2057
  879DOPC   C3B10316  10.349  25.718  13.703 -0.0606  0.1570 -0.2652
  879DOPC   C4B10317  10.507  25.617  13.269 -0.0791  0.0404  0.0779
  880POSM   NC310318   4.584  28.519  14.922  0.0016 -0.1168 -0.1905
  880POSM   PO410319   4.511  28.129  14.888 -0.0832 -0.0606 -0.2194
  880POSM   AM110320   4.582  28.094  14.587  0.1624 -0.2128  0.1073
  880POSM   AM210321   4.707  27.939  14.362  0.2427 -0.0431  0.1239
  880POSM   T1A10322   4.369  28.175  14.113 -0.3775 -0.0292  0.0483
  880POSM   C2A10323   4.037  28.287  13.828  0.1628  0.2340 -0.2323
  880POSM   C3A10324   3.992  28.415  13.389 -0.3367  0.3051  0.0979
  880POSM   C1B10325   4.803  27.891  14.054  0.1994 -0.2205 -0.1001
  880POSM   D2B10326   5.051  27.726  13.658 -0.0507  0.0934 -0.1306
  880POSM   C3B10327   4.830  27.573  13.255 -0.0548 -0.3221 -0.0277
  880POSM   C4B10328   4.699  27.259  12.953  0.6158 -0.1398  0.2419
  881POSM   NC310329   1.496   0.302  15.703  0.0306  0.4471 -0.2248
  881POSM   PO410330   1.316  -0.046  15.794 -0.2108 -0.1336  0.3097
  881POSM   AM110331   1.141   0.002  15.540 -0.1058 -0.3843 -0.1455
  881POSM   AM210332   0.900  -0.031  15.432  0.0566 -0.2839  0.1582
  881POSM   T1A10333   1.296   0.142  15.084 -0.0494 -0.1268  0.1619
  881POSM   C2A10334   1.349   0.121  14.601 -0.4274  0.2357 -0.0459
  881POSM   C3A10335   1.194   0.399  14.175 -0.1569 -0.1174 -0.0912
  881POSM   C1B10336   0.796   0.238  15.220  0.1035 -0.1521  0.3712
  881POSM   D2B10337   0.870   0.523  14.849 -0.1680 -0.1884 -0.0423
  881POSM   C3B10338   0.520   0.650  14.609  0.0810  0.0316 -0.1675
  881POSM   C4B10339   0.352   0.551  14.253 -0.0564 -0.0556  0.1022
  882DOPE   NH310340   6.190  26.402  14.729 -0.3037 -0.2839 -0.2086
  882DOPE   PO410341   5.981  26.547  14.544 -0.2888  0.1750  0.0823
  882DOPE   GL110342   6.115  26.674  14.276 -0.1385 -0.0330  0.1471
  882DOPE   GL210343   6.367  26.670  14.252  0.0761 -0.0753 -0.1612
  882DOPE   C1A10344   5.988  26.742  13.831 -0.1587 -0.3193  0.1481
  882DOPE   D2A10345   6.025  27.056  13.487  0.2476  0.2448 -0.2245
  882DOPE   C3A10346   5.978  27.551  13.467 -0.2130  0.3613  0.0187
  882DOPE   C4A10347   5.803  27.913  13.606  0.1433  0.1428 -0.1884
  882DOPE   C1B10348   6.448  26.497  13.818  0.2564  0.0483 -0.0021
  882DOPE   D2B10349   6.678  26.131  13.645  0.0310 -0.0612 -0.3011
  882DOPE   C3B10350   6.466  25.770  13.408 -0.2267  0.1218  0.2698
  882DOPE   C4B10351   6.374  25.590  13.035 -0.0865  0.0034 -0.5914
  883DOPE   NH310352   3.274  27.710  14.683  0.3862  0.1070 -0.1344
  883DOPE   PO410353   3.349  27.505  14.521 -0.6033  0.0479  0.0534
  883DOPE   GL110354   3.386  27.359  14.067  0.3095 -0.1844 -0.2196
  883DOPE   GL210355   3.121  27.525  13.951  0.1888  0.4592 -0.0579
  883DOPE   C1A10356   3.547  26.929  13.848 -0.0344 -0.1756 -0.0337
  883DOPE   D2A10357   3.711  26.635  13.552 -0.0523  0.2833  0.0128
  883DOPE   C3A10358   3.575  26.177  13.472 -0.0019  0.1927 -0.0750
  883DOPE   C4A10359   3.566  25.748  13.362 -0.2137  0.0239  0.1894
  883DOPE   C1B10360   3.254  27.612  13.522  0.1772  0.1436 -0.0019
  883DOPE   D2B10361   3.375  27.903  13.236  0.0744 -0.0327 -0.0195
  883DOPE   C3B10362   3.822  27.994  13.145  0.0789  0.1465 -0.0789
  883DOPE   C4B10363   4.098  27.877  12.793 -0.0875 -0.1398  0.1022
  884DOPE   NH310364   7.949  33.535  16.738  0.0265  0.0198 -0.0625
  884DOPE   PO410365   7.905  33.259  16.563  0.0824  0.0929 -0.2009
  884DOPE   GL110366   8.078  33.499  16.253 -0.3824 -0.3369 -0.0521
  884DOPE   GL210367   8.022  33.309  15.959 -0.3169  0.2108  0.1966
  884DOPE   C1A10368   8.389  33.841  16.262 -0.1688  0.1934  0.0027
  884DOPE   D2A10369   8.507  34.249  16.148 -0.3433  0.2820 -0.0438
  884DOPE   C3A10370   8.376  34.393  15.730 -0.0132 -0.0393  0.0397
  884DOPE   C4A10371   8.275  34.626  15.348  0.0965  0.1805 -0.1576
  884DOPE   C1B10372   8.166  33.419  15.528  0.0471 -0.1280  0.1858
  884DOPE   D2B10373   8.019  33.658  15.133  0.1987 -0.0774  0.0823
  884DOPE   C3B10374   7.959  33.211  14.934 -0.2485  0.1049  0.3158
  884DOPE   C4B10375   8.062  32.781  14.831 -0.0570  0.0498 -0.2167
  885DOPC   NC310376   0.344  25.959  14.188  0.1259 -0.0187  0.2121
  885DOPC   PO410377   0.566  25.675  14.330  0.0112  0.0623 -0.1512
  885DOPC   GL110378   0.686  25.618  13.949 -0.1842  0.0318 -0.1207
  885DOPC   GL210379   0.905  25.549  13.887 -0.1187 -0.0501  0.0859
  885DOPC   C1A10380   0.628  25.419  13.499 -0.5550  0.0706 -0.0427
  885DOPC   D2A10381   0.759  25.365  13.071  0.1192 -0.0269 -0.0842
  885DOPC   C3A10382   1.199  25.431  12.982 -0.0968  0.5048  0.1837
  885DOPC   C4A10383   1.335  25.671  12.603  0.2611  0.3312 -0.0037
  885DOPC   C1B10384   0.880  25.796  13.505 -0.0243 -0.0089 -0.0105
  885DOPC   D2B10385   1.082  25.916  13.144 -0.2303 -0.0628  0.0683
  885DOPC   C3B10386   0.810  25.908  12.743  0.0920 -0.0591 -0.3355
  885DOPC   C4B10387   0.511  25.749  12.459  0.4417 -0.4039  0.3425
  886DOPC   NC310388   1.831  30.820  14.060 -0.1136  0.1682 -0.1363
  886DOPC   PO410389   1.876  30.409  14.073  0.0811 -0.0058 -0.1161
  886DOPC   GL110390   1.887  30.130  13.778 -0.1410 -0.1527 -0.1515
  886DOPC   GL210391   2.153  30.024  13.820  0.3033 -0.1643 -0.1045
  886DOPC   C1A10392   1.770  30.171  13.323 -0.3752  0.0280 -0.1129
  886DOPC   D2A10393   1.809  30.250  12.849 -0.1290  0.1590 -0.0812
  886DOPC   C3A10394   2.120  30.118  12.527 -0.0284 -0.1096 -0.0818
  886DOPC   C4A10395   2.224  30.051  12.040 -0.0918 -0.0861  0.0223
  886DOPC   C1B10396   2.121  29.647  13.567  0.0507  0.1055  0.4159
  886DOPC   D2B10397   2.047  29.274  13.303 -0.1091  0.2551 -0.1777
  886DOPC   C3B10398   2.202  29.106  12.889 -0.0181 -0.1691 -0.3929
  886DOPC   C4B10399   2.241  29.171  12.462  0.0627 -0.0876  0.0162
  887POSM   NC310400   4.296  24.817  14.384 -0.0600 -0.0770 -0.1044
  887POSM   PO410401   4.655  24.684  14.318  0.2060 -0.1894 -0.1432
  887POSM   AM110402   4.632  24.756  13.997 -0.0344  0.2908  0.0102
  887POSM   AM210403   4.569  24.990  13.836 -0.0915  0.1325  0.1178
  887POSM   T1A10404   4.559  24.530  13.588 -0.1751  0.2588 -0.4384
  887POSM   C2A10405   4.375  24.243  13.332  0.2139 -0.1002  0.0402
  887POSM   C3A10406   4.034  24.116  13.067 -0.3737 -0.0500 -0.1135
  887POSM   C1B10407   4.529  25.045  13.517  0.3247  0.1511 -0.2221
  887POSM   D2B10408   4.427  25.252  13.170 -0.1831 -0.1864  0.0490
  887POSM   C3B10409   4.308  25.019  12.799  0.3870  0.2182 -0.2019
  887POSM   C4B10410   4.232  24.876  12.391  0.0647 -0.1743 -0.1077
  888DOPC   NC310411   3.080   0.351  16.434 -0.1352 -0.1356 -0.1694
  888DOPC   PO410412   2.774   0.203  16.288  0.1834  0.2100 -0.0520
  888DOPC   GL110413   2.850   0.139  15.973 -0.1289  0.1354 -0.0418
  888DOPC   GL210414   2.713   0.145  15.736  0.1825  0.0894 -0.3999
  888DOPC   C1A10415   3.120   0.408  15.702 -0.3338 -0.0372 -0.1969
  888DOPC   D2A10416   3.507   0.594  15.607 -0.1935 -0.0839  0.0049
  888DOPC   C3A10417   3.883   0.577  15.311  0.1203  0.2439 -0.0416
  888DOPC   C4A10418   4.187   0.433  14.966  0.0561  0.3050  0.3524
  888DOPC   C1B10419   2.737   0.373  15.341 -0.3131 -0.2846  0.2565
  888DOPC   D2B10420   2.660   0.333  14.879 -0.0329  0.2012 -0.0541
  888DOPC   C3B10421   2.657   0.635  14.567 -0.1964  0.3260  0.0336
  888DOPC   C4B10422   2.792   1.044  14.296 -0.5235  0.0519  0.0779
  889DOPE   NH310423  10.084  24.806  14.720  0.1335  0.1751 -0.1514
  889DOPE   PO410424  10.163  25.101  14.719  0.1450 -0.1719 -0.2164
  889DOPE   GL110425  10.064  25.136  14.357  0.3121 -0.0320  0.2601
  889DOPE   GL210426   9.839  25.202  14.188  0.1383  0.0991  0.1726
  889DOPE   C1A10427  10.307  25.093  13.953 -0.1060 -0.4004  0.1279
  889DOPE   D2A10428  10.327  25.204  13.523 -0.4591  0.0142  0.0667
  889DOPE   C3A10429  10.320  25.224  13.034 -0.1347  0.3032 -0.2611
  889DOPE   C4A10430  10.312  25.632  12.839  0.3714 -0.2922  0.0515
  889DOPE   C1B10431   9.934  25.423  13.782  0.1594  0.0567  0.0437
  889DOPE   D2B10432   9.802  25.723  13.558 -0.1612 -0.1477  0.2315
  889DOPE   C3B10433  10.084  25.951  13.283  0.1606  0.0638  0.1112
  889DOPE   C4B10434  10.031  26.135  12.869  0.3243  0.2510  0.0508
  890DOPC   NC310435   2.752  30.829  14.116 -0.1779  0.3435 -0.0441
  890DOPC   PO410436   2.836  30.470  14.323 -0.2256  0.1777  0.0517
  890DOPC   GL110437   2.885  30.438  13.950  0.1321 -0.3039 -0.2045
  890DOPC   GL210438   2.654  30.196  13.946  0.1837  0.0798  0.0132
  890DOPC   C1A10439   2.682  30.706  13.614 -0.0477 -0.0919 -0.0666
  890DOPC   D2A10440   2.459  30.764  13.248  0.0444 -0.0734 -0.0361
  890DOPC   C3A10441   2.488  31.110  12.968  0.1313  0.2034  0.3519
  890DOPC   C4A10442   2.556  31.301  12.544  0.0515  0.2916  0.1499
  890DOPC   C1B10443   2.521  30.190  13.485 -0.0043 -0.1410  0.2610
  890DOPC   D2B10444   2.269  30.236  13.093  0.1265 -0.0123 -0.1942
  890DOPC   C3B10445   2.379  30.637  12.808 -0.3587  0.0841 -0.2846
  890DOPC   C4B10446   2.554  30.824  12.410 -0.1914  0.0411 -0.6007
  891DOPE   NH310447   0.474  33.510  15.374 -0.1383  0.4692  0.0882
  891DOPE   PO410448   0.279  33.303  15.169 -0.0055  0.0418  0.0487
  891DOPE   GL110449   0.295  33.660  14.959 -0.0321  0.0238  0.0078
  891DOPE   GL210450   0.037  33.608  14.770 -0.1882 -0.0018  0.0743
  891DOPE   C1A10451   0.375  34.043  14.715 -0.2719  0.1464  0.1844
  891DOPE   D2A10452   0.511  34.249  14.329  0.0785  0.0641  0.1232
  891DOPE   C3A10453   0.118  34.434  14.230  0.2248  0.2450  0.1437
  891DOPE   C4A10454  -0.178  34.783  14.079  0.3664  0.3008  0.0330
  891DOPE   C1B10455   0.228  33.573  14.364 -0.0344 -0.1506  0.2429
  891DOPE   D2B10456   0.376  33.534  13.913 -0.0988  0.0850 -0.2922
  891DOPE   C3B10457   0.607  33.928  13.971  0.0693  0.1222  0.2308
  891DOPE   C4B10458   0.962  34.123  13.778  0.1910 -0.3035 -0.0842
  892DOPE   NH310459  11.051  22.730  13.898 -0.0273 -0.0114  0.0123
  892DOPE   PO410460  11.195  22.858  13.642 -0.0826 -0.1070 -0.2076
  892DOPE   GL110461  11.006  23.104  13.330  0.3260 -0.0049  0.0426
  892DOPE   GL210462  10.987  22.952  13.106  0.0725  0.2650  0.0172
  892DOPE   C1A10463  10.762  23.425  12.967  0.0449 -0.1676  0.0023
  892DOPE   D2A10464  10.874  23.842  12.723  0.3347 -0.1993  0.1791
  892DOPE   C3A10465  11.095  23.696  12.352 -0.0970  0.3127  0.0543
  892DOPE   C4A10466  11.520  23.574  12.175  0.0321 -0.1711  0.0838
  892DOPE   C1B10467  10.904  22.932  12.641 -0.2172 -0.0770  0.1595
  892DOPE   D2B10468  10.838  22.779  12.204 -0.0657 -0.0535  0.2688
  892DOPE   C3B10469  11.003  22.590  11.858 -0.0360  0.2275  0.2124
  892DOPE   C4B10470  11.305  22.240  11.740 -0.0431 -0.0023  0.0649
  893DOPC   NC310471   4.784  26.030  14.005 -0.0680 -0.0637 -0.3104
  893DOPC   PO410472   5.110  26.125  14.215 -0.0557  0.0517 -0.0317
  893DOPC   GL110473   5.436  26.121  13.985  0.2020  0.3244 -0.0006
  893DOPC   GL210474   5.610  26.300  13.965  0.1178 -0.2897 -0.2887
  893DOPC   C1A10475   5.587  26.064  13.527  0.1250  0.0389 -0.3531
  893DOPC   D2A10476   5.511  26.348  13.184  0.0803  0.0539 -0.1356
  893DOPC   C3A10477   5.714  26.398  12.758 -0.1631 -0.1943 -0.1414
  893DOPC   C4A10478   5.870  26.775  12.610  0.2915  0.0292  0.1712
  893DOPC   C1B10479   5.328  26.454  13.683  0.2316 -0.1377 -0.3016
  893DOPC   D2B10480   5.016  26.377  13.361  0.1944 -0.0919  0.1699
  893DOPC   C3B10481   5.143  26.396  12.929 -0.1960 -0.0856  0.4595
  893DOPC   C4B10482   5.239  26.189  12.485 -0.1845  0.0245  0.0316
  894DOPC   NC310483   7.553  25.547  14.910 -0.0272  0.0849 -0.1170
  894DOPC   PO410484   7.334  25.859  14.856 -0.2525  0.0364 -0.0802
  894DOPC   GL110485   7.571  26.119  14.600 -0.1095 -0.1552  0.0317
  894DOPC   GL210486   7.410  26.144  14.415  0.1099 -0.0481  0.1815
  894DOPC   C1A10487   7.909  26.378  14.376 -0.1304 -0.1747  0.1590
  894DOPC   D2A10488   8.356  26.331  14.245  0.1612 -0.0497 -0.1835
  894DOPC   C3A10489   8.620  26.301  13.873 -0.1051  0.1357 -0.2204
  894DOPC   C4A10490   9.027  26.166  13.726 -0.0758 -0.3093  0.1059
  894DOPC   C1B10491   7.314  26.406  14.078  0.2438 -0.1960  0.0715
  894DOPC   D2B10492   7.066  26.517  13.748  0.1887 -0.2703  0.1121
  894DOPC   C3B10493   7.082  26.942  13.608  0.0510  0.0461  0.1508
  894DOPC   C4B10494   7.347  27.172  13.299 -0.0855  0.0154  0.1903
  895DOPC   NC310495  12.785  30.881  15.469 -0.2378  0.0545 -0.1251
  895DOPC   PO410496  12.522  30.566  15.445 -0.1810 -0.3681  0.3943
  895DOPC   GL110497  12.308  30.870  15.229  0.0236 -0.3038 -0.2527
  895DOPC   GL210498  12.239  31.191  15.255  0.2538  0.2891  0.0949
  895DOPC   C1A10499  12.094  30.726  14.844 -0.0878  0.0110 -0.0794
  895DOPC   D2A10500  12.033  30.733  14.375  0.0046 -0.0535 -0.1006
  895DOPC   C3A10501  12.088  30.459  14.018 -0.0010 -0.1461  0.0802
  895DOPC   C4A10502  12.123  30.331  13.576  0.2025 -0.1851  0.2086
  895DOPC   C1B10503  12.548  31.168  14.913  0.1599 -0.0533  0.0261
  895DOPC   D2B10504  12.937  31.119  14.620  0.2202  0.5078 -0.2372
  895DOPC   C3B10505  12.864  31.132  14.109  0.1177 -0.1906 -0.0685
  895DOPC   C4B10506  13.079  31.151  13.719  0.1405  0.1345 -0.2497
  896DOPC   NC310507   0.212  24.695  14.720 -0.1405 -0.2869 -0.0716
  896DOPC   PO410508   0.459  24.780  14.449 -0.0134 -0.0229 -0.1618
  896DOPC   GL110509   0.515  24.772  14.072 -0.2552  0.2599  0.1327
  896DOPC   GL210510   0.573  24.538  13.868  0.2335 -0.0335  0.1264
  896DOPC   C1A10511   0.757  25.031  13.834  0.1009  0.0699  0.1711
  896DOPC   D2A10512   1.018  25.104  13.488 -0.2371  0.1897  0.0288
  896DOPC   C3A10513   1.255  25.475  13.496  0.0776  0.2513 -0.0392
  896DOPC   C4A10514   1.359  25.857  13.664  0.1550 -0.2446 -0.0308
  896DOPC   C1B10515   0.583  24.225  13.518  0.2180 -0.1506 -0.2710
  896DOPC   D2B10516   0.430  23.953  13.260 -0.0236  0.0056  0.0509
  896DOPC   C3B10517   0.076  23.686  13.289  0.0184 -0.2039  0.4284
  896DOPC   C4B10518  -0.275  23.461  13.443 -0.3095  0.3359  0.0159
  897DOPC   NC310519   8.101  23.970  14.036 -0.2453  0.0284  0.0823
  897DOPC   PO410520   8.177  24.275  14.259  0.0118 -0.0563 -0.0747
  897DOPC   GL110521   8.055  24.586  14.174  0.2203  0.3384 -0.0405
  897DOPC   GL210522   8.379  24.750  14.259 -0.1324 -0.2571 -0.1501
  897DOPC   C1A10523   8.150  24.796  13.792  0.1486 -0.1194  0.0979
  897DOPC   D2A10524   8.090  25.114  13.406  0.0573  0.1683 -0.0404
  897DOPC   C3A10525   8.155  24.879  13.044 -0.0220  0.3579  0.1744
  897DOPC   C4A10526   8.181  25.027  12.650  0.2937  0.1085  0.0583
  897DOPC   C1B10527   8.473  25.028  13.991  0.2153 -0.3583 -0.1251
  897DOPC   D2B10528   8.468  25.303  13.646  0.1366 -0.0299  0.0622
  897DOPC   C3B10529   8.862  25.236  13.405 -0.0406 -0.1895  0.1676
  897DOPC   C4B10530   9.283  25.342  13.218 -0.0099  0.1815 -0.0294
  898DOPE   NH310531   9.726  29.298  15.949 -0.1657 -0.0919  0.1510
  898DOPE   PO410532   9.432  29.347  15.821  0.1084  0.1420  0.0126
  898DOPE   GL110533   9.599  29.383  15.435 -0.0799  0.1919 -0.3616
  898DOPE   GL210534   9.626  29.673  15.316 -0.0041  0.0748  0.2915
  898DOPE   C1A10535   9.517  29.214  15.009 -0.0256  0.0237  0.1151
  898DOPE   D2A10536   9.323  29.225  14.600 -0.1748  0.2416 -0.1029
  898DOPE   C3A10537   9.449  29.580  14.336 -0.2107 -0.2179  0.1750
  898DOPE   C4A10538   9.259  29.986  14.203 -0.0983 -0.0815  0.0924
  898DOPE   C1B10539   9.711  29.732  14.847  0.0476  0.1559 -0.0137
  898DOPE   D2B10540   9.591  30.083  14.554  0.0957 -0.1584  0.0885
  898DOPE   C3B10541   9.404  30.506  14.394  0.0723 -0.1333 -0.2675
  898DOPE   C4B10542   9.098  30.791  14.211  0.1736  0.3166  0.2263
  899DOPE   NH310543   8.926  29.604  16.003 -0.0853  0.0883  0.0070
  899DOPE   PO410544   8.751  29.357  16.013  0.0407  0.0170 -0.3694
  899DOPE   GL110545   8.606  29.277  15.700  0.0249 -0.1153  0.0882
  899DOPE   GL210546   8.411  29.038  15.685 -0.1216  0.0701  0.2162
  899DOPE   C1A10547   8.599  29.301  15.261  0.1219 -0.1002  0.0512
  899DOPE   D2A10548   8.688  29.527  14.899 -0.0679  0.3204  0.0961
  899DOPE   C3A10549   8.831  29.342  14.524  0.3686  0.1072  0.1353
  899DOPE   C4A10550   8.911  29.122  14.097  0.0193  0.1992 -0.0362
  899DOPE   C1B10551   8.770  28.848  15.464  0.1852  0.0864 -0.2021
  899DOPE   D2B10552   8.821  28.774  15.029 -0.0917 -0.0548 -0.2542
  899DOPE   C3B10553   9.213  28.762  14.887  0.0803 -0.0598 -0.0472
  899DOPE   C4B10554   9.547  28.456  15.066 -0.0925  0.1604 -0.3108
  900POSM   NC310555   4.061  30.672  15.631 -0.0716  0.3428  0.1386
  900POSM   PO410556   4.339  30.715  15.368  0.0531  0.0267 -0.0844
  900POSM   AM110557   4.398  30.987  15.209  0.0635 -0.0052 -0.1835
  900POSM   AM210558   4.309  31.240  15.031 -0.0691 -0.0072  0.0196
  900POSM   T1A10559   4.782  31.314  15.153  0.1593  0.1642 -0.0345
  900POSM   C2A10560   5.001  31.720  15.335  0.1839 -0.2021  0.2299
  900POSM   C3A10561   5.434  31.888  15.268  0.2200  0.0409  0.1470
  900POSM   C1B10562   4.310  31.474  14.794  0.0094 -0.1090 -0.1848
  900POSM   D2B10563   4.515  31.719  14.393  0.2037  0.1977  0.0791
  900POSM   C3B10564   4.267  31.725  14.038 -0.0949 -0.2784  0.1546
  900POSM   C4B10565   4.168  31.437  13.677 -0.1017  0.0630 -0.3367
  901DOPC   NC310566   8.794  21.513  13.970  0.1969  0.0052  0.1417
  901DOPC   PO410567   8.633  21.514  13.638  0.0008 -0.1465 -0.1330
  901DOPC   GL110568   8.733  21.535  13.222 -0.0738  0.3347 -0.0114
  901DOPC   GL210569   8.922  21.799  13.212  0.0630 -0.2409  0.0003
  901DOPC   C1A10570   9.052  21.446  12.886  0.2168 -0.2409 -0.1151
  901DOPC   D2A10571   9.100  21.420  12.443 -0.1434  0.0610  0.2103
  901DOPC   C3A10572   8.678  21.627  12.346 -0.0785 -0.3874 -0.2887
  901DOPC   C4A10573   8.339  21.857  12.179 -0.0548  0.0485  0.1833
  901DOPC   C1B10574   8.824  22.200  13.149  0.2737 -0.3236 -0.1552
  901DOPC   D2B10575   8.746  22.600  12.958  0.3788  0.1248 -0.1003
  901DOPC   C3B10576   8.770  22.667  12.460  0.0443  0.1427  0.0792
  901DOPC   C4B10577   8.612  22.795  12.071  0.2144 -0.1437 -0.3872
  902POSM   NC310578   2.555  25.546  14.263  0.2101 -0.1413 -0.2111
  902POSM   PO410579   2.343  25.328  14.463  0.1001  0.1480 -0.3008
  902POSM   AM110580   2.249  25.210  14.194  0.1546 -0.0535 -0.0157
  902POSM   AM210581   2.327  25.160  13.943  0.2199 -0.2366 -0.0122
  902POSM   T1A10582   1.896  25.074  13.791  0.1557  0.0432  0.2593
  902POSM   C2A10583   1.444  24.911  13.587 -0.0746  0.0412  0.0836
  902POSM   C3A10584   1.399  24.547  13.260  0.1858 -0.2403  0.0071
  902POSM   C1B10585   2.558  25.102  13.660  0.1633 -0.0614  0.0590
  902POSM   D2B10586   2.766  25.087  13.250  0.0346 -0.1216 -0.0640
  902POSM   C3B10587   2.628  24.882  12.874 -0.0618  0.3307 -0.2466
  902POSM   C4B10588   2.484  24.861  12.454 -0.4401  0.0905  0.1393
  903POSM   NC310589   1.905   0.848  16.053 -0.1076  0.0503  0.3918
  903POSM   PO410590   1.945   1.253  16.149 -0.1385 -0.0224 -0.1423
  903POSM   AM110591   1.958   1.227  15.811  0.2502  0.0191 -0.1214
  903POSM   AM210592   2.122   1.088  15.613 -0.1500  0.3637 -0.4023
  903POSM   T1A10593   1.667   1.340  15.446  0.0301  0.2459  0.2238
  903POSM   C2A10594   1.903   1.338  15.036 -0.0164  0.1449 -0.1769
  903POSM   C3A10595   1.990   1.276  14.545  0.0034  0.0610  0.1004
  903POSM   C1B10596   2.190   1.027  15.298  0.2849 -0.0044  0.0972
  903POSM   D2B10597   2.372   1.047  14.904  0.2322 -0.0755  0.2738
  903POSM   C3B10598   2.773   1.158  14.877 -0.1021  0.1477 -0.1746
  903POSM   C4B10599   3.039   1.379  15.203  0.3186 -0.3424 -0.2721
  904DOPS   CNO10600   5.928  28.576  15.818  0.0086  0.2542 -0.4756
  904DOPS   PO410601   6.276  28.540  15.732 -0.0645  0.1886 -0.2613
  904DOPS   GL110602   6.244  28.797  15.431  0.1070 -0.2554 -0.0584
  904DOPS   GL210603   6.381  28.774  15.200 -0.2531 -0.0259  0.2132
  904DOPS   C1A10604   5.903  28.919  15.177  0.1433  0.2424 -0.0893
  904DOPS   D2A10605   5.675  29.125  14.784  0.3404 -0.3819  0.1270
  904DOPS   C3A10606   5.788  29.201  14.345  0.0479  0.2004  0.2006
  904DOPS   C4A10607   6.227  29.224  14.092 -0.1373 -0.1825  0.2131
  904DOPS   C1B10608   6.220  28.583  14.830  0.2725  0.1668 -0.2926
  904DOPS   D2B10609   6.527  28.358  14.602 -0.1581  0.1525 -0.3350
  904DOPS   C3B10610   6.857  28.528  14.400 -0.1726  0.0792  0.0065
  904DOPS   C4B10611   7.135  28.892  14.153  0.4149 -0.0581 -0.0626
  905DOPC   NC310612   2.885  34.098  16.326  0.2303  0.1649 -0.3693
  905DOPC   PO410613   2.659  34.190  16.021  0.1376  0.2490  0.2458
  905DOPC   GL110614   2.913  34.194  15.750  0.3550  0.0212 -0.3349
  905DOPC   GL210615   3.181  34.331  15.619 -0.0429 -0.0509 -0.0667
  905DOPC   C1A10616   2.731  34.242  15.332 -0.0672 -0.2567 -0.2862
  905DOPC   D2A10617   2.437  34.482  15.195 -0.1399  0.0374 -0.0823
  905DOPC   C3A10618   2.266  34.560  14.773 -0.1122  0.1221  0.0004
  905DOPC   C4A10619   2.138  34.217  14.481  0.0670 -0.2683  0.0572
  905DOPC   C1B10620   3.101  34.569  15.192 -0.0762 -0.5284  0.0002
  905DOPC   D2B10621   3.346  34.603  14.720  0.2569 -0.1760 -0.0600
  905DOPC   C3B10622   3.252  34.246  14.430 -0.2384  0.0538 -0.0093
  905DOPC   C4B10623   3.023  33.852  14.517 -0.1243  0.0510 -0.0316
  906DOPE   NH310624   2.306  30.316  14.273 -0.1383  0.1054  0.1965
  906DOPE   PO410625   2.300  30.645  14.302 -0.1763 -0.0140  0.1890
  906DOPE   GL110626   2.301  30.574  13.911 -0.2906  0.1387 -0.0152
  906DOPE   GL210627   2.269  30.870  13.822 -0.1796  0.1793  0.2256
  906DOPE   C1A10628   2.091  30.459  13.533 -0.1977 -0.0239  0.0096
  906DOPE   D2A10629   1.954  30.661  13.115 -0.0976 -0.0849  0.3733
  906DOPE   C3A10630   1.872  30.693  12.641 -0.1571 -0.2267 -0.2974
  906DOPE   C4A10631   1.696  30.779  12.198 -0.0690 -0.2394 -0.3029
  906DOPE   C1B10632   2.383  31.234  13.545  0.0181 -0.0319 -0.0812
  906DOPE   D2B10633   2.550  31.662  13.442 -0.4024  0.2599 -0.3148
  906DOPE   C3B10634   2.670  31.788  13.029 -0.0886  0.1448  0.1181
  906DOPE   C4B10635   3.030  32.015  12.825 -0.0786  0.0106 -0.1384
  907DOPE   NH310636   4.999  25.007  14.188  0.0305  0.1881 -0.3281
  907DOPE   PO410637   5.124  24.862  13.949  0.0190 -0.2274 -0.3151
  907DOPE   GL110638   4.985  25.020  13.639  0.2599 -0.0425 -0.0400
  907DOPE   GL210639   4.920  25.346  13.741  0.1878 -0.3612  0.0090
  907DOPE   C1A10640   4.990  25.189  13.252  0.1255  0.2423 -0.3027
  907DOPE   D2A10641   4.787  25.134  12.808 -0.2924  0.1031 -0.0847
  907DOPE   C3A10642   4.720  24.759  12.516  0.0391 -0.2051 -0.1171
  907DOPE   C4A10643   4.916  24.325  12.565 -0.2042  0.2641  0.1660
  907DOPE   C1B10644   4.750  25.616  13.365  0.0657 -0.2202  0.2200
  907DOPE   D2B10645   4.856  25.711  12.933  0.2100  0.0402 -0.1270
  907DOPE   C3B10646   5.271  25.487  12.769  0.0912  0.3519 -0.4195
  907DOPE   C4B10647   5.431  25.158  12.535 -0.0408  0.1571  0.0651
  908DOPC   NC310648   9.328  25.412  14.656 -0.0383 -0.0685  0.1814
  908DOPC   PO410649   9.549  25.068  14.614 -0.0717  0.0841  0.0154
  908DOPC   GL110650   9.345  25.223  14.256 -0.0663  0.3764 -0.1510
  908DOPC   GL210651   9.450  24.952  14.145  0.0729 -0.0536  0.2690
  908DOPC   C1A10652   9.373  25.671  14.101 -0.2556  0.0720  0.1644
  908DOPC   D2A10653   9.549  26.093  14.039  0.0569 -0.1177 -0.0063
  908DOPC   C3A10654   9.976  26.067  13.815  0.1669 -0.3009 -0.0083
  908DOPC   C4A10655  10.433  26.208  13.718  0.0007  0.6736  0.1313
  908DOPC   C1B10656   9.743  24.807  13.831  0.0025  0.1769  0.2768
  908DOPC   D2B10657   9.845  25.055  13.481 -0.0515 -0.0133 -0.2133
  908DOPC   C3B10658   9.789  25.416  13.109 -0.2546  0.2806  0.0632
  908DOPC   C4B10659   9.704  25.548  12.705  0.3495 -0.2455  0.2744
  909POSM   NC310660   4.894  30.405  15.485 -0.1004  0.0338 -0.2359
  909POSM   PO410661   5.108  30.207  15.222  0.3588  0.1313  0.0684
  909POSM   AM110662   5.175  30.510  15.094  0.1466 -0.1318  0.1531
  909POSM   AM210663   5.035  30.705  14.935 -0.3712  0.0565 -0.1566
  909POSM   T1A10664   5.489  30.813  14.836 -0.0368 -0.2203  0.0485
  909POSM   C2A10665   5.441  31.164  14.591  0.0944 -0.2762 -0.0356
  909POSM   C3A10666   5.300  31.354  14.158 -0.3159 -0.2683 -0.0654
  909POSM   C1B10667   4.971  30.936  14.715  0.0825 -0.1080  0.1880
  909POSM   D2B10668   4.799  31.339  14.656 -0.1266  0.1934  0.3689
  909POSM   C3B10669   5.108  31.647  14.446 -0.0187 -0.0450  0.2649
  909POSM   C4B10670   5.562  31.812  14.376  0.1992  0.0344 -0.1934
  910POSM   NC310671   1.656  32.655  15.241  0.0962 -0.1060 -0.0040
  910POSM   PO410672   1.396  32.926  15.164  0.0401  0.0040  0.0176
  910POSM   AM110673   1.404  33.140  14.946  0.0484 -0.2333  0.0958
  910POSM   AM210674   1.296  33.378  14.920  0.1098  0.1616  0.0722
  910POSM   T1A10675   1.619  33.391  14.541  0.0713 -0.1621 -0.0713
  910POSM   C2A10676   1.510  33.642  14.111 -0.2689 -0.1444 -0.1868
  910POSM   C3A10677   1.248  33.714  13.712 -0.1432 -0.0553 -0.1382
  910POSM   C1B10678   1.266  33.750  14.760  0.3742 -0.3082 -0.0970
  910POSM   D2B10679   1.145  34.122  14.515 -0.5108 -0.0705  0.2878
  910POSM   C3B10680   1.032  34.407  14.159  0.1642  0.1327  0.1615
  910POSM   C4B10681   0.644  34.580  13.952 -0.0105  0.1327  0.2810
  911DOPC   NC310682   9.050  31.977  15.944  0.0262 -0.1951  0.1182
  911DOPC   PO410683   8.877  32.336  16.098  0.0561 -0.0554 -0.1166
  911DOPC   GL110684   8.791  32.496  15.792 -0.0648 -0.0087  0.0784
  911DOPC   GL210685   8.826  32.302  15.569  0.4022 -0.0361 -0.2014
  911DOPC   C1A10686   8.792  32.860  15.515 -0.0945 -0.2473  0.1353
  911DOPC   D2A10687   8.829  33.172  15.172 -0.0024 -0.2631 -0.1594
  911DOPC   C3A10688   8.657  32.999  14.802  0.1655 -0.1461  0.0279
  911DOPC   C4A10689   8.558  32.899  14.383  0.2560  0.0518 -0.0961
  911DOPC   C1B10690   8.369  32.222  15.382  0.1081 -0.0294 -0.1155
  911DOPC   D2B10691   7.971  32.483  15.336  0.0618  0.1059  0.3404
  911DOPC   C3B10692   7.627  32.769  15.125 -0.2770 -0.1224 -0.1179
  911DOPC   C4B10693   7.289  33.119  15.154  0.1011  0.1640 -0.2180
  912DOPS   CNO10694   3.285  30.425  14.460 -0.1663  0.1506 -0.1648
  912DOPS   PO410695   3.257  30.766  14.404  0.1502  0.1460  0.1207
  912DOPS   GL110696   3.450  30.678  14.106 -0.0182  0.4233 -0.1618
  912DOPS   GL210697   3.742  30.650  14.279  0.2484 -0.1134 -0.0812
  912DOPS   C1A10698   3.643  30.754  13.691 -0.1810 -0.1344  0.1461
  912DOPS   D2A10699   3.899  30.638  13.386 -0.0390 -0.1193 -0.1226
  912DOPS   C3A10700   4.037  31.048  13.151 -0.0129 -0.1018 -0.0082
  912DOPS   C4A10701   4.041  31.456  12.898  0.3896  0.0503 -0.1577
  912DOPS   C1B10702   3.996  30.476  13.974 -0.0053 -0.0453 -0.1355
  912DOPS   D2B10703   4.143  30.187  13.638  0.0974 -0.1403  0.1654
  912DOPS   C3B10704   4.075  30.189  13.191  0.1106  0.0723 -0.0832
  912DOPS   C4B10705   4.125  30.351  12.768 -0.1223  0.0124  0.2300
  913DOPE   NH310706  11.943  25.632  14.842 -0.0437  0.2250 -0.2430
  913DOPE   PO410707  12.105  25.910  14.742  0.1221  0.1719  0.0939
  913DOPE   GL110708  12.209  26.293  14.613 -0.1318  0.1356  0.4213
  913DOPE   GL210709  12.117  26.459  14.322 -0.1306  0.0530  0.0049
  913DOPE   C1A10710  12.373  26.695  14.630 -0.1321 -0.1287  0.2869
  913DOPE   D2A10711  12.613  27.146  14.546  0.3233  0.2822 -0.2602
  913DOPE   C3A10712  12.410  27.403  14.234  0.1007  0.1389 -0.2040
  913DOPE   C4A10713  12.172  27.585  13.837  0.0584  0.2428  0.2103
  913DOPE   C1B10714  11.734  26.253  14.065  0.0472  0.0705  0.0462
  913DOPE   D2B10715  11.313  26.148  13.939  0.0999  0.2984  0.2440
  913DOPE   C3B10716  10.967  26.380  13.705  0.2192  0.2142  0.2559
  913DOPE   C4B10717  10.637  26.595  13.431 -0.0208 -0.2284  0.0340
  914DOPS   CNO10718   2.897  31.940  14.963 -0.2534  0.2735 -0.0335
  914DOPS   PO410719   2.810  31.823  14.562  0.1501 -0.5912 -0.0304
  914DOPS   GL110720   3.055  32.129  14.292 -0.0458 -0.0385  0.0281
  914DOPS   GL210721   3.094  32.421  14.334 -0.2650  0.1172 -0.0663
  914DOPS   C1A10722   3.423  32.179  14.033 -0.0915  0.0304 -0.2511
  914DOPS   D2A10723   3.765  32.449  13.866 -0.0175 -0.0172 -0.1938
  914DOPS   C3A10724   3.760  32.181  13.523  0.1099  0.0657  0.0029
  914DOPS   C4A10725   3.815  31.749  13.379  0.1947 -0.0715 -0.4639
  914DOPS   C1B10726   3.500  32.575  14.266 -0.2049 -0.3042 -0.0416
  914DOPS   D2B10727   3.720  32.913  14.021 -0.2552  0.1455 -0.0214
  914DOPS   C3B10728   4.088  32.990  13.744  0.0646 -0.0681 -0.0908
  914DOPS   C4B10729   4.352  33.234  13.415  0.2580  0.1960 -0.0204
  915DOPS   CNO10730   3.336  23.423  14.662  0.2165 -0.0838 -0.1687
  915DOPS   PO410731   3.506  23.733  14.530 -0.2287  0.1716 -0.0715
  915DOPS   GL110732   3.347  23.942  14.120  0.2262  0.0062 -0.0470
  915DOPS   GL210733   3.407  23.703  13.931  0.1231 -0.0389 -0.0536
  915DOPS   C1A10734   3.047  24.211  13.892  0.2228 -0.3704 -0.1151
  915DOPS   D2A10735   2.977  24.077  13.423 -0.0176 -0.1738 -0.1453
  915DOPS   C3A10736   3.215  24.123  13.069  0.2591 -0.0163  0.1382
  915DOPS   C4A10737   3.489  24.423  12.818 -0.1161  0.0093 -0.0495
  915DOPS   C1B10738   3.297  23.693  13.471 -0.0539  0.3581  0.0910
  915DOPS   D2B10739   3.508  23.548  13.063  0.1305 -0.2075  0.3093
  915DOPS   C3B10740   3.374  23.567  12.619 -0.0107 -0.2276 -0.3926
  915DOPS   C4B10741   3.411  23.757  12.205 -0.1147 -0.0983  0.0565
  916POSM   NC310742   2.087  29.446  14.202  0.0954  0.0944 -0.1121
  916POSM   PO410743   2.343  29.690  14.212  0.2444  0.3449 -0.0464
  916POSM   AM110744   2.620  29.611  14.005 -0.1169  0.0138  0.2268
  916POSM   AM210745   2.829  29.710  13.881 -0.0816 -0.0116  0.0009
  916POSM   T1A10746   2.872  29.285  13.737 -0.1135  0.0296  0.1730
  916POSM   C2A10747   3.100  29.226  13.320  0.0292  0.2645 -0.2967
  916POSM   C3A10748   3.441  29.237  12.992  0.0014 -0.0866 -0.1136
  916POSM   C1B10749   2.691  29.688  13.557  0.0110 -0.3314 -0.0044
  916POSM   D2B10750   2.548  29.748  13.090 -0.1360  0.0626  0.0744
  916POSM   C3B10751   2.293  29.587  12.721 -0.1194  0.2127 -0.0025
  916POSM   C4B10752   2.230  29.634  12.255  0.0942  0.1671 -0.0976
  917POSM   NC310753   9.206  27.504  15.694  0.1928 -0.0759 -0.0381
  917POSM   PO410754   9.471  27.654  15.430 -0.1077 -0.0058 -0.1952
  917POSM   AM110755   9.560  27.677  15.132 -0.0653  0.3054 -0.3706
  917POSM   AM210756   9.554  27.912  14.946 -0.1337 -0.1170  0.1334
  917POSM   T1A10757   9.738  27.347  14.779 -0.3115  0.2729 -0.3136
  917POSM   C2A10758   9.801  27.110  14.400 -0.1210 -0.0572  0.1654
  917POSM   C3A10759   9.613  27.101  13.969 -0.4976  0.1150 -0.1205
  917POSM   C1B10760   9.609  28.010  14.674  0.0693 -0.0758 -0.3631
  917POSM   D2B10761   9.500  28.049  14.270  0.1569 -0.0084  0.0925
  917POSM   C3B10762   9.345  28.366  13.980  0.2472 -0.0232  0.0933
  917POSM   C4B10763   9.219  28.744  13.748  0.2121 -0.2979  0.1490
  918DOPC   NC310764   2.923  25.548  14.611  0.1329 -0.1198  0.3472
  918DOPC   PO410765   3.277  25.676  14.602  0.0706 -0.3933 -0.2344
  918DOPC   GL110766   3.358  25.493  14.247  0.0732  0.1638 -0.0583
  918DOPC   GL210767   3.645  25.476  14.134 -0.0039 -0.1316 -0.2306
  918DOPC   C1A10768   2.969  25.363  13.995 -0.1360  0.0170  0.3379
  918DOPC   D2A10769   2.717  25.620  13.730 -0.3056  0.0519 -0.0388
  918DOPC   C3A10770   2.568  25.523  13.264  0.2193  0.0416 -0.0332
  918DOPC   C4A10771   2.186  25.642  13.069  0.3183  0.0209  0.3010
  918DOPC   C1B10772   3.481  25.377  13.698  0.0280  0.0118  0.1106
  918DOPC   D2B10773   3.365  25.105  13.330  0.0612 -0.1170  0.3323
  918DOPC   C3B10774   3.401  25.418  12.974  0.1373 -0.1296 -0.1295
  918DOPC   C4B10775   3.471  25.485  12.502 -0.0551 -0.0998 -0.0093
  919POSM   NC310776   7.493  33.267  16.846 -0.2550 -0.3304  0.3567
  919POSM   PO410777   7.191  32.994  16.859 -0.0555 -0.1310 -0.0487
  919POSM   AM110778   7.031  33.027  16.593  0.0410  0.0541 -0.5097
  919POSM   AM210779   7.099  33.022  16.336  0.2468 -0.0828  0.3047
  919POSM   T1A10780   6.707  33.278  16.339 -0.1430  0.1907  0.0254
  919POSM   C2A10781   6.345  33.179  16.056 -0.1183  0.1599  0.2133
  919POSM   C3A10782   6.093  32.922  15.684  0.0884  0.0480 -0.0469
  919POSM   C1B10783   6.983  33.137  16.009  0.2023 -0.2499 -0.0862
  919POSM   D2B10784   7.078  33.298  15.597  0.0548  0.0333  0.2817
  919POSM   C3B10785   6.995  33.652  15.351  0.1482  0.0512 -0.1706
  919POSM   C4B10786   6.937  34.082  15.219 -0.4304  0.2180 -0.3359
  920DOPC   NC310787   6.788  30.083  15.140 -0.2117 -0.1158 -0.4711
  920DOPC   PO410788   6.389  29.966  15.156 -0.2815 -0.1123 -0.1415
  920DOPC   GL110789   6.364  29.801  14.817 -0.0740 -0.5839  0.1696
  920DOPC   GL210790   6.490  30.027  14.673  0.2438 -0.1173  0.1572
  920DOPC   C1A10791   6.028  29.645  14.478 -0.0926 -0.6376  0.1894
  920DOPC   D2A10792   5.981  29.720  14.043 -0.1004  0.1201  0.3327
  920DOPC   C3A10793   5.655  29.369  13.898  0.0037  0.0793 -0.0875
  920DOPC   C4A10794   5.182  29.210  13.832  0.2123  0.2105  0.0599
  920DOPC   C1B10795   6.830  30.137  14.374  0.1513  0.2432  0.0977
  920DOPC   D2B10796   7.024  30.438  14.099  0.0123 -0.1976 -0.2389
  920DOPC   C3B10797   7.368  30.633  13.961 -0.3492  0.0965 -0.2379
  920DOPC   C4B10798   7.756  30.607  13.707  0.1964 -0.4001  0.3137
  921POSM   NC310799   7.615  27.572  15.734  0.0587  0.0268  0.0674
  921POSM   PO410800   7.871  27.802  15.582  0.5611 -0.1117 -0.2807
  921POSM   AM110801   7.800  28.003  15.284 -0.2254 -0.3140 -0.2613
  921POSM   AM210802   7.639  28.133  15.142  0.0437  0.5714  0.0291
  921POSM   T1A10803   8.013  28.051  14.826 -0.2320  0.1833  0.1247
  921POSM   C2A10804   8.245  27.987  14.432  0.3407  0.1671 -0.1337
  921POSM   C3A10805   8.162  27.934  14.000 -0.0742  0.0583  0.2242
  921POSM   C1B10806   7.381  28.270  15.036 -0.2324  0.3454  0.0484
  921POSM   D2B10807   7.283  28.626  14.802  0.0057  0.2933 -0.2043
  921POSM   C3B10808   7.557  28.855  14.489  0.0438 -0.0760 -0.0166
  921POSM   C4B10809   7.612  28.928  14.035 -0.3596  0.1288 -0.0747
  922POSM   NC310810   8.190  23.159  13.741 -0.2931 -0.1391 -0.0305
  922POSM   PO410811   8.453  23.088  13.988  0.0188 -0.2959 -0.3328
  922POSM   AM110812   8.590  22.903  13.812  0.1816 -0.1263  0.0822
  922POSM   AM210813   8.669  22.939  13.552  0.0808  0.0319  0.2681
  922POSM   T1A10814   8.933  22.553  13.736  0.1241 -0.1388 -0.4726
  922POSM   C2A10815   9.065  22.524  13.337 -0.1729 -0.0927 -0.0119
  922POSM   C3A10816   9.225  22.440  12.837  0.1188 -0.1332  0.1264
  922POSM   C1B10817   8.978  23.009  13.430 -0.0303 -0.0610  0.2155
  922POSM   D2B10818   9.386  23.208  13.352 -0.0318  0.0108  0.0487
  922POSM   C3B10819   9.569  23.231  12.929  0.1934 -0.0935 -0.2722
  922POSM   C4B10820   9.621  23.402  12.484 -0.1522  0.0836  0.0731
  923DOPC   NC310821   3.374  26.302  14.084 -0.1511 -0.1913  0.0520
  923DOPC   PO410822   3.433  25.954  14.149  0.0168 -0.0211 -0.5064
  923DOPC   GL110823   3.217  25.807  13.827 -0.0490 -0.2085  0.1090
  923DOPC   GL210824   3.035  25.972  13.794  0.2437 -0.3087 -0.0757
  923DOPC   C1A10825   3.096  25.569  13.410  0.0838  0.0762  0.1028
  923DOPC   D2A10826   2.932  25.469  12.927  0.0079 -0.1708  0.1198
  923DOPC   C3A10827   2.826  25.660  12.470 -0.3599 -0.0991  0.3887
  923DOPC   C4A10828   2.446  25.901  12.197 -0.0921 -0.0838  0.0964
  923DOPC   C1B10829   3.083  26.113  13.387  0.0803  0.1975  0.1121
  923DOPC   D2B10830   3.186  25.943  12.981 -0.2648  0.4182 -0.0650
  923DOPC   C3B10831   3.642  25.902  12.801 -0.1779 -0.1222 -0.1349
  923DOPC   C4B10832   3.942  25.535  12.773 -0.0682  0.1530  0.0071
  924DOPE   NH310833   5.469  25.709  14.288  0.3743  0.0627  0.1801
  924DOPE   PO410834   5.743  25.842  14.217 -0.2383 -0.0366  0.1040
  924DOPE   GL110835   6.041  25.814  14.007  0.0304 -0.0882 -0.2676
  924DOPE   GL210836   5.866  25.605  13.799 -0.1666 -0.1122  0.1146
  924DOPE   C1A10837   6.060  26.145  13.711 -0.0433  0.1243  0.1354
  924DOPE   D2A10838   6.202  26.500  13.420 -0.2003  0.0483 -0.3914
  924DOPE   C3A10839   5.862  26.648  13.167 -0.1208  0.2137  0.0128
  924DOPE   C4A10840   5.430  26.822  13.012  0.0120  0.0753 -0.1380
  924DOPE   C1B10841   5.987  25.783  13.422  0.0341  0.2671  0.1266
  924DOPE   D2B10842   6.091  26.077  13.078 -0.2266 -0.0646 -0.1849
  924DOPE   C3B10843   6.233  26.438  12.892 -0.0858 -0.1047 -0.0094
  924DOPE   C4B10844   6.378  26.829  13.049  0.0650 -0.2141  0.1415
  925DOPC   NC310845   3.011  28.229  14.296 -0.1660 -0.1554 -0.0180
  925DOPC   PO410846   3.381  28.342  14.306  0.1256 -0.0578 -0.2919
  925DOPC   GL110847   3.480  28.237  13.968  0.0395  0.1147  0.1553
  925DOPC   GL210848   3.229  28.137  13.884 -0.2011  0.1274 -0.0039
  925DOPC   C1A10849   3.648  27.936  13.648  0.0827  0.0250 -0.1541
  925DOPC   D2A10850   4.085  27.875  13.569  0.3020 -0.3064 -0.1354
  925DOPC   C3A10851   4.489  28.130  13.435  0.0776 -0.2190  0.2312
  925DOPC   C4A10852   4.831  28.121  13.112 -0.0715 -0.3073 -0.1382
  925DOPC   C1B10853   3.376  28.321  13.495 -0.1155 -0.3772 -0.3364
  925DOPC   D2B10854   3.535  28.410  13.086 -0.1477 -0.0689 -0.4547
  925DOPC   C3B10855   3.361  28.156  12.778  0.1123  0.5098  0.2782
  925DOPC   C4B10856   3.130  27.841  12.547 -0.1968 -0.0260 -0.1945
  926POSM   NC310857  10.272  28.986  16.546 -0.1590  0.2575  0.0184
  926POSM   PO410858  10.235  29.294  16.289 -0.1715 -0.3215 -0.0604
  926POSM   AM110859  10.299  29.239  15.980  0.0103  0.0514 -0.0463
  926POSM   AM210860  10.250  29.336  15.728  0.0207 -0.4058 -0.2240
  926POSM   T1A10861  10.555  28.998  15.572  0.2272  0.0780  0.3052
  926POSM   C2A10862  10.485  28.594  15.353  0.0928 -0.0002 -0.0941
  926POSM   C3A10863  10.448  28.495  14.901 -0.2562  0.0617  0.1252
  926POSM   C1B10864  10.033  29.259  15.496  0.4167  0.0546  0.1994
  926POSM   D2B10865   9.933  28.918  15.203 -0.1829  0.0098 -0.0143
  926POSM   C3B10866   9.766  28.832  14.747 -0.0581  0.1649  0.0976
  926POSM   C4B10867   9.794  29.064  14.347  0.1048 -0.1811 -0.1430
  927POSM   NC310868   0.295   1.461  16.078  0.1507 -0.0746 -0.1159
  927POSM   PO410869  -0.005   1.230  16.019 -0.0320  0.0942  0.1877
  927POSM   AM110870   0.030   1.251  15.646  0.1744  0.2485 -0.0247
  927POSM   AM210871  -0.026   1.476  15.446  0.0819 -0.2248 -0.1430
  927POSM   T1A10872  -0.123   1.049  15.201  0.2353  0.2195 -0.0284
  927POSM   C2A10873  -0.208   0.998  14.737 -0.3117 -0.0091  0.1540
  927POSM   C3A10874  -0.221   0.624  14.453 -0.2304  0.3387  0.0364
  927POSM   C1B10875   0.269   1.345  15.230 -0.1225 -0.0791 -0.1937
  927POSM   D2B10876   0.500   1.518  14.853 -0.0451  0.2936  0.2185
  927POSM   C3B10877   0.396   1.632  14.409  0.1889 -0.1799  0.0161
  927POSM   C4B10878   0.254   1.488  14.017  0.0772  0.2219  0.0788
  928POSM   NC310879   3.672  28.621  14.595 -0.0181 -0.2987 -0.0503
  928POSM   PO410880   3.955  28.754  14.872  0.0695 -0.0732 -0.1958
  928POSM   AM110881   4.080  28.896  14.621 -0.0793  0.2097  0.0094
  928POSM   AM210882   4.058  28.891  14.348  0.0130 -0.0082  0.1397
  928POSM   T1A10883   4.536  29.038  14.404 -0.0691 -0.1559 -0.1942
  928POSM   C2A10884   4.848  29.294  14.221  0.0590  0.1283 -0.1691
  928POSM   C3A10885   4.865  29.643  13.935 -0.0471 -0.1679  0.2776
  928POSM   C1B10886   4.217  28.831  14.027  0.0009  0.0874  0.1866
  928POSM   D2B10887   4.218  28.904  13.617 -0.1838 -0.1195  0.2022
  928POSM   C3B10888   4.461  29.188  13.322  0.2853  0.2036 -0.1947
  928POSM   C4B10889   4.456  29.515  12.965  0.0230  0.1157 -0.3559
  929POSM   NC310890   4.278  33.164  16.266 -0.0851  0.2223 -0.1936
  929POSM   PO410891   3.886  33.233  16.218 -0.1156  0.2103 -0.1354
  929POSM   AM110892   4.045  33.427  15.995 -0.1512 -0.0757 -0.0517
  929POSM   AM210893   4.302  33.541  15.871  0.1578  0.1231  0.1252
  929POSM   T1A10894   3.973  33.887  15.923 -0.2566  0.1289 -0.0126
  929POSM   C2A10895   3.998  34.303  15.814 -0.0245 -0.1836  0.2844
  929POSM   C3A10896   3.971  34.562  16.168 -0.0658 -0.2558 -0.3904
  929POSM   C1B10897   4.303  33.653  15.583 -0.0672 -0.1608 -0.0147
  929POSM   D2B10898   4.471  33.845  15.162  0.2923  0.2511 -0.2488
  929POSM   C3B10899   4.169  33.855  14.753  0.2008 -0.1307  0.0748
  929POSM   C4B10900   4.262  34.098  14.342  0.0851  0.1184  0.0988
  930DOPC   NC310901  12.283  30.234  15.744  0.1111  0.3134  0.1217
  930DOPC   PO410902  11.864  30.240  15.729  0.1032 -0.2327 -0.2932
  930DOPC   GL110903  11.821  30.381  15.399 -0.0613 -0.2042  0.0354
  930DOPC   GL210904  12.036  30.435  15.272  0.0133 -0.0530 -0.1683
  930DOPC   C1A10905  11.664  30.565  14.980  0.2967  0.4807 -0.0046
  930DOPC   D2A10906  11.586  30.699  14.540  0.0204  0.1343  0.0171
  930DOPC   C3A10907  11.529  30.324  14.244  0.1789  0.1393  0.1816
  930DOPC   C4A10908  11.394  29.923  14.163 -0.2329  0.0628 -0.0026
  930DOPC   C1B10909  11.907  30.152  15.023 -0.0248  0.1516  0.0688
  930DOPC   D2B10910  12.172  29.874  14.745  0.0588 -0.0537  0.5843
  930DOPC   C3B10911  12.375  29.922  14.310  0.1812 -0.0098  0.4142
  930DOPC   C4B10912  12.715  29.757  14.027 -0.2341  0.1341 -0.1491
  931POSM   NC310913  13.457  30.833  16.069 -0.2415  0.5565 -0.1548
  931POSM   PO410914  13.318  30.865  15.658 -0.1805 -0.0507 -0.0188
  931POSM   AM110915  13.267  30.923  15.338 -0.1974 -0.2223 -0.1724
  931POSM   AM210916  13.157  30.794  15.081 -0.1923 -0.3009  0.0487
  931POSM   T1A10917  13.167  31.298  14.986  0.0702  0.0776 -0.3189
  931POSM   C2A10918  12.933  31.648  14.804 -0.4562  0.0757 -0.3149
  931POSM   C3A10919  12.719  31.539  14.448 -0.1463 -0.1205 -0.0682
  931POSM   C1B10920  12.853  30.765  14.932  0.4050 -0.0843 -0.4174
  931POSM   D2B10921  12.570  30.677  14.648  0.1783 -0.1993 -0.1259
  931POSM   C3B10922  12.494  30.391  14.262 -0.1562 -0.0696 -0.0411
  931POSM   C4B10923  12.476  30.161  13.829  0.2603  0.1114  0.1353
  932DOPS   CNO10924   4.751  26.449  14.372  0.0255  0.1225 -0.0194
  932DOPS   PO410925   4.719  26.752  14.578 -0.0549  0.2186 -0.2740
  932DOPS   GL110926   4.643  27.013  14.305  0.1717  0.1238  0.3255
  932DOPS   GL210927   4.364  26.797  14.152  0.1903  0.1961 -0.1597
  932DOPS   C1A10928   4.754  27.220  13.936 -0.1238 -0.2619  0.5488
  932DOPS   D2A10929   4.579  27.109  13.507  0.1235 -0.1744 -0.0283
  932DOPS   C3A10930   4.770  26.779  13.191 -0.2763 -0.0136  0.0853
  932DOPS   C4A10931   4.998  26.890  12.787 -0.0001 -0.2578  0.0983
  932DOPS   C1B10932   4.023  26.894  13.842 -0.0487  0.0937  0.1312
  932DOPS   D2B10933   3.987  27.078  13.420  0.2052 -0.4790  0.1010
  932DOPS   C3B10934   4.288  27.021  13.060 -0.0058  0.1474  0.2085
  932DOPS   C4B10935   4.498  26.799  12.737  0.0360 -0.1010 -0.1971
  933DOPS   CNO10936   2.101  31.938  14.830  0.0472 -0.3890 -0.2480
  933DOPS   PO410937   2.397  32.116  14.742 -0.1012 -0.0025  0.0161
  933DOPS   GL110938   2.499  32.158  14.383 -0.1576  0.0198  0.2613
  933DOPS   GL210939   2.181  32.201  14.296  0.2689 -0.5429 -0.0886
  933DOPS   C1A10940   2.657  32.553  14.157 -0.0033 -0.0546  0.0970
  933DOPS   D2A10941   2.733  32.966  13.870  0.3981  0.1078  0.2202
  933DOPS   C3A10942   3.068  32.877  13.604  0.0119  0.1554 -0.1872
  933DOPS   C4A10943   3.176  32.641  13.237  0.0680 -0.2075  0.1787
  933DOPS   C1B10944   2.195  32.635  14.029  0.2012 -0.4479 -0.0054
  933DOPS   D2B10945   2.182  32.901  13.601 -0.0346 -0.1959 -0.1090
  933DOPS   C3B10946   1.785  33.059  13.557  0.0387 -0.2114 -0.0517
  933DOPS   C4B10947   1.647  33.522  13.470  0.1941 -0.2121  0.0453
  934DOPS   CNO10948   4.807  28.278  15.310  0.0959  0.1933 -0.0534
  934DOPS   PO410949   5.048  28.511  15.171 -0.3995  0.0862  0.3353
  934DOPS   GL110950   5.174  28.666  14.767  0.0561  0.1512  0.0558
  934DOPS   GL210951   4.993  28.823  14.675  0.0887  0.0756  0.0030
  934DOPS   C1A10952   5.638  28.655  14.591 -0.0861  0.0242  0.1436
  934DOPS   D2A10953   5.968  28.312  14.487 -0.0015 -0.1095  0.1168
  934DOPS   C3A10954   6.080  27.984  14.223 -0.0584  0.0514  0.3975
  934DOPS   C4A10955   6.075  27.653  13.931  0.0509 -0.2939 -0.0972
  934DOPS   C1B10956   5.277  29.075  14.380 -0.1920 -0.1923 -0.1628
  934DOPS   D2B10957   5.533  28.852  14.117  0.3578 -0.3545  0.2791
  934DOPS   C3B10958   5.662  28.833  13.706 -0.1554 -0.1492 -0.1362
  934DOPS   C4B10959   5.927  28.970  13.366 -0.0905  0.0223 -0.2144
  935POSM   NC310960  11.113  24.492  14.277 -0.2164 -0.3606  0.1650
  935POSM   PO410961  10.791  24.644  14.442  0.1749  0.1689 -0.0725
  935POSM   AM110962  10.872  24.887  14.217 -0.1676  0.4110  0.0338
  935POSM   AM210963  10.922  24.851  13.920  0.0724 -0.1805  0.0978
  935POSM   T1A10964  10.821  25.302  13.913 -0.1406  0.2463  0.0070
  935POSM   C2A10965  10.880  25.424  13.539 -0.0262 -0.1094  0.3022
  935POSM   C3A10966  11.122  25.675  13.197  0.3319 -0.1082  0.1155
  935POSM   C1B10967  10.757  24.885  13.617 -0.2239 -0.1445 -0.2906
  935POSM   D2B10968  10.781  24.993  13.211 -0.1259 -0.1117  0.0222
  935POSM   C3B10969  10.742  25.361  12.878  0.1916 -0.2661  0.3458
  935POSM   C4B10970  10.781  25.807  12.879 -0.0093  0.0477 -0.0522
  936DOPE   NH310971   5.586  31.091  15.898 -0.2267 -0.0551  0.2381
  936DOPE   PO410972   5.708  31.405  15.898  0.1004  0.0169  0.1641
  936DOPE   GL110973   5.918  31.372  15.567 -0.0483 -0.1604  0.1104
  936DOPE   GL210974   5.875  31.595  15.373  0.2094  0.1346 -0.0621
  936DOPE   C1A10975   6.340  31.573  15.388  0.0070  0.1035 -0.2292
  936DOPE   D2A10976   6.482  31.868  15.102 -0.2857 -0.2210 -0.0716
  936DOPE   C3A10977   6.548  31.907  14.638  0.0945 -0.0411  0.0055
  936DOPE   C4A10978   6.508  31.713  14.244  0.0397 -0.3269  0.1529
  936DOPE   C1B10979   5.988  31.903  15.063 -0.0283  0.0644  0.0086
  936DOPE   D2B10980   6.239  32.302  14.930 -0.3505 -0.1761 -0.0641
  936DOPE   C3B10981   6.472  32.708  14.883 -0.0017  0.1654  0.0720
  936DOPE   C4B10982   6.542  33.031  14.564 -0.1129 -0.1923  0.0644
  937POSM   NC310983   5.533  22.674  13.825  0.0562  0.1387  0.1542
  937POSM   PO410984   5.898  22.789  13.716  0.0851 -0.0436  0.1688
  937POSM   AM110985   5.816  22.949  13.440  0.0746  0.3075 -0.1147
  937POSM   AM210986   5.566  23.009  13.364  0.2001 -0.4665 -0.0882
  937POSM   T1A10987   5.802  23.007  12.918 -0.1161 -0.3983 -0.1852
  937POSM   C2A10988   5.726  22.758  12.583 -0.0242 -0.3969  0.0239
  937POSM   C3A10989   6.044  22.657  12.232 -0.1761 -0.0311 -0.3240
  937POSM   C1B10990   5.372  22.906  13.118 -0.3154  0.0367  0.0776
  937POSM   D2B10991   5.253  22.825  12.713 -0.1858  0.0335  0.2096
  937POSM   C3B10992   5.106  23.166  12.513  0.0384  0.0310 -0.4429
  937POSM   C4B10993   5.079  23.465  12.141  0.1828 -0.0484 -0.2203
  938DOPS   CNO10994   4.388  30.068  14.929  0.1681  0.0696  0.0003
  938DOPS   PO410995   4.211  29.861  14.702 -0.1865  0.0604 -0.0723
  938DOPS   GL110996   4.504  30.152  14.501 -0.0953  0.2278  0.1899
  938DOPS   GL210997   4.331  30.305  14.352  0.3994 -0.0341  0.4618
  938DOPS   C1A10998   4.852  30.408  14.551 -0.1715  0.3464  0.0611
  938DOPS   D2A10999   5.245  30.631  14.444  0.0329  0.1969 -0.1322
  938DOPS   C3A11000   5.497  30.452  14.084  0.2350  0.1716  0.3284
  938DOPS   C4A11001   5.790  30.192  13.833 -0.0487 -0.1511  0.0032
  938DOPS   C1B11002   4.613  30.658  14.243  0.2634 -0.3357  0.0282
  938DOPS   D2B11003   4.920  30.973  14.222 -0.0389  0.5414  0.1282
  938DOPS   C3B11004   4.743  31.332  13.956 -0.0047  0.0879 -0.1926
  938DOPS   C4B11005   4.695  31.709  13.622  0.2108  0.1313 -0.2023
  939POSM   NC311006  10.565  28.147  15.668  0.1310  0.2069  0.1956
  939POSM   PO411007  10.803  27.856  15.674 -0.0667  0.3737  0.1972
  939POSM   AM111008  10.886  27.972  15.344 -0.0321 -0.1227 -0.2660
  939POSM   AM211009  11.125  27.925  15.192  0.0492  0.1040 -0.0397
  939POSM   T1A11010  10.882  28.302  14.966  0.3128  0.1865 -0.2276
  939POSM   C2A11011  10.954  28.505  14.547 -0.1180  0.0960  0.0447
  939POSM   C3A11012  10.705  28.635  14.132 -0.1127 -0.0121  0.3197
  939POSM   C1B11013  11.230  27.713  14.954  0.2661  0.3924 -0.2204
  939POSM   D2B11014  11.176  27.389  14.638  0.0032 -0.2032  0.1924
  939POSM   C3B11015  10.961  27.515  14.264 -0.2390 -0.1384 -0.1551
  939POSM   C4B11016  11.113  27.491  13.853 -0.2504  0.1685  0.1546
  940POSM   NC311017   5.992  24.687  14.266 -0.0392 -0.2956  0.0666
  940POSM   PO411018   6.332  24.689  14.314  0.0884 -0.0301  0.1193
  940POSM   AM111019   6.452  24.677  14.014  0.4815 -0.1031  0.3080
  940POSM   AM211020   6.554  24.463  13.774  0.1364  0.0589 -0.1316
  940POSM   T1A11021   6.450  24.903  13.551 -0.0170 -0.1261 -0.1729
  940POSM   C2A11022   6.680  25.226  13.274  0.0628 -0.0598 -0.2393
  940POSM   C3A11023   6.879  25.487  13.017 -0.1316  0.0601 -0.3457
  940POSM   C1B11024   6.449  24.358  13.371 -0.0986 -0.0781  0.0863
  940POSM   D2B11025   6.325  24.280  12.943  0.0590  0.1796 -0.3152
  940POSM   C3B11026   6.246  24.636  12.697  0.2535 -0.1841 -0.2247
  940POSM   C4B11027   5.956  24.850  12.386 -0.0608  0.2400 -0.0428
  941POSM   NC311028   2.415  32.543  15.072  0.0043 -0.0748  0.4083
  941POSM   PO411029   2.174  32.710  15.305  0.0077  0.4559  0.3536
  941POSM   AM111030   2.010  32.849  15.048  0.0371  0.2319  0.5116
  941POSM   AM211031   1.855  33.113  15.049 -0.1016  0.1520 -0.1497
  941POSM   T1A11032   2.033  33.027  14.580 -0.2227  0.0451 -0.1731
  941POSM   C2A11033   1.801  33.096  14.161  0.0786  0.0758 -0.3301
  941POSM   C3A11034   1.414  33.206  13.876  0.0236 -0.0811  0.1228
  941POSM   C1B11035   1.787  33.399  15.044  0.1348 -0.1246  0.0096
  941POSM   D2B11036   1.818  33.846  14.958  0.0198  0.0607 -0.0564
  941POSM   C3B11037   1.705  33.937  14.547  0.2295  0.1545  0.1536
  941POSM   C4B11038   1.599  34.244  14.235  0.2470  0.0312  0.3591
  942DOPE   NH311039  11.111  32.590  16.120 -0.1330  0.1956  0.0415
  942DOPE   PO411040  11.404  32.559  16.039  0.0774 -0.0058 -0.1721
  942DOPE   GL111041  11.307  32.510  15.692  0.2279  0.3158  0.2337
  942DOPE   GL211042  11.379  32.340  15.509 -0.1277 -0.1668  0.2766
  942DOPE   C1A11043  11.272  32.797  15.305 -0.0513  0.3892  0.3403
  942DOPE   D2A11044  11.267  33.112  14.992 -0.0650  0.0317  0.0239
  942DOPE   C3A11045  10.867  33.244  14.819 -0.2771  0.1807  0.1983
  942DOPE   C4A11046  10.517  33.209  14.534 -0.2155 -0.2573 -0.2302
  942DOPE   C1B11047  11.062  32.340  15.176 -0.1414 -0.0189  0.0942
  942DOPE   D2B11048  11.146  32.121  14.748  0.0307  0.1960  0.0811
  942DOPE   C3B11049  10.912  32.195  14.353 -0.0422 -0.2465 -0.0364
  942DOPE   C4B11050  10.648  32.044  14.000  0.0559 -0.0889 -0.0008
  943DOPE   NH311051   1.001  31.216  14.305  0.0371  0.0969 -0.0726
  943DOPE   PO411052   0.971  31.019  14.059  0.0525 -0.0114  0.0543
  943DOPE   GL111053   1.038  31.108  13.638  0.3109 -0.3788 -0.2512
  943DOPE   GL211054   0.816  31.102  13.426 -0.0731 -0.0636  0.1890
  943DOPE   C1A11055   1.400  30.997  13.396 -0.1743  0.0270  0.1871
  943DOPE   D2A11056   1.464  31.082  12.905  0.1770 -0.1808 -0.1196
  943DOPE   C3A11057   1.109  31.195  12.607 -0.0545 -0.0717  0.0968
  943DOPE   C4A11058   0.921  31.491  12.277  0.0292 -0.1110 -0.0881
  943DOPE   C1B11059   0.407  30.886  13.288 -0.2855  0.0608  0.1206
  943DOPE   D2B11060   0.210  30.819  12.906  0.0659 -0.0653  0.1530
  943DOPE   C3B11061   0.164  31.226  12.691  0.2294 -0.0170 -0.1666
  943DOPE   C4B11062   0.512  31.559  12.565  0.0389  0.2467 -0.2753
  944DOPS   CNO11063  13.036  23.887  13.805 -0.1962  0.1665 -0.1587
  944DOPS   PO411064  13.433  23.841  13.907  0.1355  0.1875  0.0907
  944DOPS   GL111065  13.396  23.883  13.456 -0.2818 -0.1449 -0.0299
  944DOPS   GL211066  13.530  24.123  13.350  0.2810 -0.1628  0.0433
  944DOPS   C1A11067  13.796  23.772  13.162 -0.1113  0.0122  0.5578
  944DOPS   D2A11068  14.037  23.690  12.753 -0.0224  0.0826  0.1489
  944DOPS   C3A11069  13.878  23.688  12.331  0.0557  0.1392  0.3108
  944DOPS   C4A11070  13.909  23.524  11.862 -0.2016 -0.4971 -0.3478
  944DOPS   C1B11071  13.616  24.308  12.919  0.0057 -0.0415 -0.0647
  944DOPS   D2B11072  13.805  24.215  12.509  0.2100 -0.1206  0.2237
  944DOPS   C3B11073  13.679  24.391  12.070 -0.2552  0.0743  0.3436
  944DOPS   C4B11074  13.488  24.480  11.710 -0.1952  0.2467  0.0916
  945DOPS   CNO11075   2.923  28.122  14.862 -0.3076 -0.0791  0.1169
  945DOPS   PO411076   2.687  28.003  14.612 -0.0740 -0.1035 -0.1152
  945DOPS   GL111077   2.491  27.850  14.225 -0.1539 -0.3816 -0.3025
  945DOPS   GL211078   2.435  27.604  14.143  0.0554 -0.0763 -0.0001
  945DOPS   C1A11079   2.771  27.918  13.905 -0.1314  0.0199 -0.1254
  945DOPS   D2A11080   2.820  27.877  13.421  0.0210  0.1864  0.1211
  945DOPS   C3A11081   2.750  27.851  12.970  0.0499 -0.0533  0.0127
  945DOPS   C4A11082   2.633  27.860  12.505  0.0539 -0.5055 -0.1213
  945DOPS   C1B11083   2.408  27.772  13.660  0.2524  0.0452  0.3052
  945DOPS   D2B11084   2.276  27.787  13.233 -0.0722  0.2547  0.0837
  945DOPS   C3B11085   2.258  27.679  12.783 -0.1677 -0.2450  0.1264
  945DOPS   C4B11086   2.033  27.355  12.591 -0.2064  0.0235  0.0676
  946DOPE   NH311087   3.780  32.100  15.431 -0.0707 -0.1408  0.1674
  946DOPE   PO411088   3.698  32.290  15.222 -0.4793  0.0871  0.1265
  946DOPE   GL111089   4.061  32.244  15.073 -0.0331  0.2281  0.2608
  946DOPE   GL211090   4.241  32.372  15.139  0.3303 -0.1006  0.1050
  946DOPE   C1A11091   4.291  32.118  14.683 -0.1241  0.0232  0.0848
  946DOPE   D2A11092   4.576  32.260  14.339 -0.1404  0.2061 -0.2352
  946DOPE   C3A11093   4.800  31.998  14.085  0.1126  0.0087  0.0520
  946DOPE   C4A11094   5.106  31.705  13.862 -0.3743  0.1535  0.0057
  946DOPE   C1B11095   4.337  32.614  14.766 -0.0317 -0.0926 -0.1993
  946DOPE   D2B11096   4.586  32.886  14.453  0.0740  0.0541  0.3797
  946DOPE   C3B11097   5.021  32.894  14.361  0.0388  0.0704 -0.1145
  946DOPE   C4B11098   5.412  32.864  14.154 -0.0771 -0.2090 -0.0868
  947DOPC   NC311099   4.938  33.274  16.515 -0.0293  0.1736 -0.2527
  947DOPC   PO411100   5.061  33.634  16.584 -0.2180  0.0147 -0.3184
  947DOPC   GL111101   5.040  33.850  16.222  0.1920 -0.0229  0.3843
  947DOPC   GL211102   5.167  33.537  16.124 -0.0495  0.0148 -0.0295
  947DOPC   C1A11103   4.626  33.943  16.017 -0.2652 -0.4523  0.2675
  947DOPC   D2A11104   4.460  34.142  15.635 -0.1173  0.4313  0.1002
  947DOPC   C3A11105   4.084  34.059  15.413 -0.0719 -0.3116  0.0462
  947DOPC   C4A11106   3.888  33.704  15.203  0.0582 -0.0853 -0.2134
  947DOPC   C1B11107   5.439  33.653  15.801 -0.2092 -0.1937  0.2292
  947DOPC   D2B11108   5.810  33.711  15.563 -0.1765  0.0464 -0.0287
  947DOPC   C3B11109   6.023  33.830  15.244 -0.1912  0.1346 -0.1615
  947DOPC   C4B11110   5.905  34.096  14.957  0.0881  0.2087  0.3536
  948DOPE   NH311111   3.300  31.978  14.643  0.0331 -0.1968 -0.1669
  948DOPE   PO411112   3.358  32.203  14.901 -0.1912  0.1780 -0.0087
  948DOPE   GL111113   3.672  32.315  14.607 -0.0067 -0.1907  0.2010
  948DOPE   GL211114   3.769  32.478  14.782 -0.1220 -0.1050  0.0783
  948DOPE   C1A11115   3.902  32.150  14.257  0.3205  0.1373 -0.2121
  948DOPE   D2A11116   4.236  32.227  13.948  0.1767 -0.2874  0.0490
  948DOPE   C3A11117   4.213  32.452  13.542 -0.1064  0.1014  0.0827
  948DOPE   C4A11118   4.084  32.660  13.137 -0.1280 -0.1825  0.1312
  948DOPE   C1B11119   4.038  32.634  14.408  0.2253 -0.3188 -0.0134
  948DOPE   D2B11120   4.291  32.696  14.016  0.4137  0.0425 -0.0639
  948DOPE   C3B11121   4.700  32.632  14.031  0.2167 -0.0713  0.0935
  948DOPE   C4B11122   5.071  32.402  14.211  0.0129  0.2890  0.0491
  949DOPC   NC311123   1.798  28.341  14.406 -0.0996  0.3001  0.0225
  949DOPC   PO411124   2.005  28.548  14.176 -0.0380  0.0241 -0.0620
  949DOPC   GL111125   1.904  28.555  13.806 -0.0683  0.2773  0.0560
  949DOPC   GL211126   1.673  28.373  13.825  0.0487 -0.5124  0.1688
  949DOPC   C1A11127   2.054  28.782  13.411 -0.1207  0.0440 -0.0989
  949DOPC   D2A11128   2.003  28.668  12.970 -0.0034  0.0880 -0.1244
  949DOPC   C3A11129   1.910  28.719  12.559  0.1284 -0.1327 -0.0837
  949DOPC   C4A11130   2.186  28.546  12.266 -0.1598 -0.2826 -0.1183
  949DOPC   C1B11131   1.752  28.413  13.355 -0.2423  0.0053  0.0586
  949DOPC   D2B11132   1.996  28.194  13.009 -0.0944  0.2749  0.1653
  949DOPC   C3B11133   1.727  28.263  12.673 -0.0925  0.1360  0.2352
  949DOPC   C4B11134   1.313  28.356  12.524 -0.1786 -0.0369  0.1270
  950DOPE   NH311135  10.017  27.562  15.354  0.1872  0.0629 -0.0703
  950DOPE   PO411136  10.240  27.439  15.149  0.1162 -0.1345  0.2380
  950DOPE   GL111137  10.394  27.571  14.772 -0.1724  0.1143  0.0057
  950DOPE   GL211138  10.655  27.488  14.758 -0.1271  0.0755  0.1067
  950DOPE   C1A11139  10.455  27.694  14.300  0.0082  0.0227  0.0860
  950DOPE   D2A11140  10.768  27.863  13.958  0.1017  0.2094 -0.0018
  950DOPE   C3A11141  10.737  28.251  13.727  0.0932  0.1479  0.1732
  950DOPE   C4A11142  10.652  28.239  13.278  0.0495  0.0126 -0.1179
  950DOPE   C1B11143  10.602  27.983  14.771 -0.1273 -0.1428  0.2040
  950DOPE   D2B11144  10.439  28.232  14.458 -0.2170 -0.0015  0.0165
  950DOPE   C3B11145  10.344  28.175  13.995 -0.2255 -0.2414 -0.1549
  950DOPE   C4B11146  10.294  28.351  13.569  0.1873  0.2507  0.1195
  951DOPE   NH311147   9.035  30.198  16.226  0.2092 -0.1340 -0.3549
  951DOPE   PO411148   8.953  30.091  15.922  0.2391  0.3994  0.1949
  951DOPE   GL111149   9.277  30.266  15.778  0.0784  0.2076 -0.1956
  951DOPE   GL211150   9.527  30.128  15.760  0.1207 -0.0242  0.2047
  951DOPE   C1A11151   9.369  30.690  15.635 -0.0399  0.0030  0.4549
  951DOPE   D2A11152   9.240  30.984  15.327  0.0459 -0.0902  0.0910
  951DOPE   C3A11153   9.266  31.096  14.899 -0.0784  0.2312  0.2261
  951DOPE   C4A11154   9.352  31.106  14.434 -0.1186 -0.0291 -0.1939
  951DOPE   C1B11155   9.653  30.304  15.375  0.1426  0.2086 -0.2597
  951DOPE   D2B11156   9.618  30.552  14.930  0.0591  0.0464 -0.2249
  951DOPE   C3B11157   9.160  30.528  14.854  0.0282  0.0332 -0.0754
  951DOPE   C4B11158   8.854  30.824  14.683 -0.1970 -0.0329  0.3469
  952DOPC   NC311159   2.592  26.239  14.329 -0.2830 -0.0899 -0.0380
  952DOPC   PO411160   2.408  25.965  14.065 -0.3450 -0.2502  0.2057
  952DOPC   GL111161   2.509  26.018  13.711  0.1147 -0.1593  0.2885
  952DOPC   GL211162   2.344  25.829  13.575  0.2601 -0.0933  0.0962
  952DOPC   C1A11163   2.615  26.063  13.248 -0.0349 -0.0244 -0.2703
  952DOPC   D2A11164   2.605  25.912  12.802  0.1284 -0.1286 -0.0652
  952DOPC   C3A11165   2.224  26.057  12.611 -0.0097 -0.1550 -0.0873
  952DOPC   C4A11166   1.716  26.010  12.645 -0.0701  0.2995  0.1546
  952DOPC   C1B11167   2.141  25.405  13.498  0.0816  0.0568 -0.0105
  952DOPC   D2B11168   2.257  25.093  13.098 -0.2061 -0.0620 -0.0263
  952DOPC   C3B11169   2.071  24.914  12.757 -0.3182 -0.1298  0.0462
  952DOPC   C4B11170   2.020  24.590  12.474 -0.1029  0.0297  0.1611
  953DOPC   NC311171  10.120  25.953  15.106 -0.0990 -0.1047  0.1821
  953DOPC   PO411172  10.497  26.111  15.058 -0.1221  0.3261 -0.2292
  953DOPC   GL111173  10.531  26.313  14.723 -0.0694  0.3262  0.2117
  953DOPC   GL211174  10.352  26.084  14.598  0.1375 -0.1689  0.0517
  953DOPC   C1A11175  10.716  26.627  14.482  0.1198  0.0828 -0.0577
  953DOPC   D2A11176  10.994  26.707  14.160  0.1810 -0.1262 -0.0188
  953DOPC   C3A11177  10.984  26.895  13.746 -0.2457  0.1017 -0.4936
  953DOPC   C4A11178  11.067  27.025  13.307 -0.0240  0.0976 -0.2136
  953DOPC   C1B11179  10.420  26.327  14.194  0.0106  0.3119  0.1553
  953DOPC   D2B11180  10.497  26.693  13.909  0.0448  0.0677 -0.0320
  953DOPC   C3B11181  10.145  26.950  14.108  0.1955  0.4015  0.0674
  953DOPC   C4B11182  10.077  27.405  14.130  0.1647  0.0122 -0.1845
  954DOPE   NH311183   7.677  24.627  14.503  0.1523 -0.2795 -0.2676
  954DOPE   PO411184   7.406  24.676  14.388 -0.1237 -0.0961 -0.1822
  954DOPE   GL111185   7.661  24.743  14.026 -0.2402 -0.0987 -0.1726
  954DOPE   GL211186   7.512  24.746  13.764 -0.3377 -0.0465 -0.2816
  954DOPE   C1A11187   7.787  25.130  13.784  0.2061  0.1100  0.2532
  954DOPE   D2A11188   7.623  25.283  13.349  0.4895  0.0877  0.1264
  954DOPE   C3A11189   7.912  25.568  13.086  0.1490  0.1937 -0.0504
  954DOPE   C4A11190   8.385  25.447  13.085  0.3762  0.0291  0.1454
  954DOPE   C1B11191   7.764  24.730  13.333  0.2059 -0.2301 -0.0967
  954DOPE   D2B11192   7.953  24.418  13.038  0.1144  0.0151  0.0529
  954DOPE   C3B11193   7.785  24.171  12.731  0.4827 -0.0697 -0.2327
  954DOPE   C4B11194   7.601  24.230  12.272 -0.3960  0.0843 -0.5708
  955DOPE   NH311195  12.314  29.243  16.027 -0.0014 -0.2124  0.1379
  955DOPE   PO411196  12.014  29.307  16.125  0.2026 -0.1508  0.1470
  955DOPE   GL111197  11.863  29.344  15.793  0.0457  0.2155  0.0084
  955DOPE   GL211198  12.129  29.464  15.655  0.0644  0.0292  0.2298
  955DOPE   C1A11199  11.704  29.240  15.349 -0.0247  0.2716  0.0056
  955DOPE   D2A11200  11.352  29.191  15.004 -0.1282  0.0835 -0.2079
  955DOPE   C3A11201  11.333  29.502  14.647  0.0397  0.1281 -0.0613
  955DOPE   C4A11202  11.037  29.850  14.586 -0.1732  0.3737  0.2553
  955DOPE   C1B11203  11.872  29.744  15.338 -0.1097 -0.1002  0.1727
  955DOPE   D2B11204  11.498  29.935  15.224  0.1617 -0.0861 -0.2517
  955DOPE   C3B11205  11.373  30.139  14.803  0.1762  0.0679 -0.2179
  955DOPE   C4B11206  11.069  30.329  14.531 -0.0497  0.0707  0.1316
  956DOPS   CNO11207   4.294  25.865  14.094  0.1012  0.1104  0.0528
  956DOPS   PO411208   4.344  26.213  14.169 -0.1458  0.1995  0.1341
  956DOPS   GL111209   4.457  26.384  13.776  0.1049  0.4176  0.1687
  956DOPS   GL211210   4.689  26.433  13.770  0.0426 -0.1769 -0.1622
  956DOPS   C1A11211   4.370  26.617  13.397  0.3185  0.1717 -0.1320
  956DOPS   D2A11212   3.965  26.674  13.118  0.1164  0.2345  0.1668
  956DOPS   C3A11213   4.008  26.753  12.640 -0.1449 -0.2622  0.2329
  956DOPS   C4A11214   4.276  26.966  12.330 -0.2554 -0.0237  0.1424
  956DOPS   C1B11215   4.970  26.784  13.698 -0.0087  0.3086  0.3284
  956DOPS   D2B11216   5.112  27.150  13.493 -0.2100 -0.0774  0.0794
  956DOPS   C3B11217   5.220  27.279  13.046  0.0592 -0.0632 -0.2075
  956DOPS   C4B11218   5.498  27.238  12.691 -0.1268 -0.0579  0.2000
  957POSM   NC311219   6.360  33.749  17.086 -0.2815  0.1335  0.1199
  957POSM   PO411220   6.280  34.115  16.966 -0.0532  0.2285 -0.1418
  957POSM   AM111221   6.551  34.179  16.762  0.0972  0.0654  0.1930
  957POSM   AM211222   6.669  34.359  16.556 -0.1535  0.2992 -0.0869
  957POSM   T1A11223   6.766  33.843  16.454  0.1149  0.0129  0.0759
  957POSM   C2A11224   6.784  33.788  16.021  0.0486  0.4240  0.1927
  957POSM   C3A11225   6.592  33.464  15.770  0.0852  0.3008 -0.2160
  957POSM   C1B11226   6.556  34.408  16.236  0.3898 -0.3119 -0.3504
  957POSM   D2B11227   6.524  34.224  15.822 -0.0390  0.0654 -0.2229
  957POSM   C3B11228   6.655  34.492  15.467  0.0499 -0.4025  0.0682
  957POSM   C4B11229   6.806  34.568  15.030  0.1694  0.2651 -0.0219
  958DOPC   NC311230  33.650  30.829  14.204 -0.0653 -0.0350 -0.0378
  958DOPC   PO411231  34.021  30.939  14.167 -0.1430 -0.1895  0.1168
  958DOPC   GL111232  34.168  30.975  13.828 -0.2966 -0.0677 -0.0005
  958DOPC   GL211233  33.852  30.932  13.683 -0.1523  0.0241 -0.0651
  958DOPC   C1A11234  34.269  30.761  13.404  0.0231 -0.4093 -0.1040
  958DOPC   D2A11235  34.121  30.638  12.995 -0.0373 -0.0825 -0.2173
  958DOPC   C3A11236  33.720  30.476  12.958 -0.1170 -0.2212  0.1048
  958DOPC   C4A11237  33.281  30.640  12.835 -0.2317  0.0709  0.1438
  958DOPC   C1B11238  33.832  30.526  13.444  0.4104  0.1076 -0.0004
  958DOPC   D2B11239  33.579  30.122  13.396 -0.0136  0.0147 -0.3339
  958DOPC   C3B11240  33.592  29.998  12.973 -0.3617  0.0767 -0.2101
  958DOPC   C4B11241  33.824  29.592  12.728 -0.0952  0.0305  0.3140
  959DOPC   NC311242   6.568  27.716  14.986  0.0619  0.2157 -0.2178
  959DOPC   PO411243   6.660  27.353  14.861  0.0214  0.3372 -0.0417
  959DOPC   GL111244   6.790  27.608  14.533  0.0820  0.1925  0.3452
  959DOPC   GL211245   6.598  27.865  14.515  0.0784  0.1778 -0.0800
  959DOPC   C1A11246   7.112  27.583  14.216 -0.0784 -0.2550  0.2632
  959DOPC   D2A11247   7.385  27.868  14.030 -0.1357  0.0439 -0.0219
  959DOPC   C3A11248   7.668  27.983  13.666  0.0958  0.1042 -0.3399
  959DOPC   C4A11249   8.116  28.104  13.518 -0.1533  0.0943 -0.2490
  959DOPC   C1B11250   6.638  28.105  14.140  0.2114 -0.1861  0.1009
  959DOPC   D2B11251   6.277  28.372  14.019  0.0688 -0.0131  0.1227
  959DOPC   C3B11252   6.139  28.763  14.312 -0.1212 -0.1454 -0.3714
  959DOPC   C4B11253   6.178  29.056  14.716  0.0571 -0.1166 -0.0723
  960DOPS   CNO11254   3.191  24.607  14.569 -0.1568  0.0821 -0.2166
  960DOPS   PO411255   2.799  24.672  14.603 -0.1193  0.0141 -0.0262
  960DOPS   GL111256   2.838  24.618  14.260  0.3603  0.2853 -0.2616
  960DOPS   GL211257   3.055  24.708  14.022 -0.1068 -0.2657 -0.1906
  960DOPS   C1A11258   2.551  24.609  13.871  0.0570 -0.1773 -0.0494
  960DOPS   D2A11259   2.611  24.603  13.411 -0.3181 -0.1240  0.0438
  960DOPS   C3A11260   2.305  24.526  13.050 -0.0955 -0.1033  0.3105
  960DOPS   C4A11261   2.129  24.177  12.826 -0.1390  0.0129  0.1269
  960DOPS   C1B11262   3.132  24.673  13.574  0.1368  0.1574 -0.0546
  960DOPS   D2B11263   3.055  24.612  13.122 -0.0250  0.1880 -0.1081
  960DOPS   C3B11264   3.138  24.936  12.868 -0.1213 -0.0280  0.3588
  960DOPS   C4B11265   2.973  25.152  12.526  0.0495  0.2863 -0.0889
  961DOPC   NC311266  12.281  33.490  16.041 -0.0413 -0.1489 -0.0375
  961DOPC   PO411267  12.383  33.834  16.172 -0.0582 -0.0644 -0.2301
  961DOPC   GL111268  12.158  34.127  15.910 -0.2676  0.0901 -0.0037
  961DOPC   GL211269  11.991  33.850  15.848  0.0042  0.0354  0.0993
  961DOPC   C1A11270  12.152  34.076  15.444 -0.1653  0.0595 -0.3128
  961DOPC   D2A11271  12.284  34.143  14.998  0.2334  0.0429  0.0005
  961DOPC   C3A11272  11.962  34.250  14.704 -0.0600 -0.3496 -0.0066
  961DOPC   C4A11273  11.614  34.243  14.454 -0.0261  0.2877 -0.0424
  961DOPC   C1B11274  11.670  33.838  15.492  0.1172  0.2202  0.3040
  961DOPC   D2B11275  11.713  33.960  15.040  0.1859 -0.0058 -0.3649
  961DOPC   C3B11276  11.466  33.755  14.693  0.3292 -0.0382 -0.2013
  961DOPC   C4B11277  11.143  33.509  14.430 -0.0138  0.0565  0.0324
  962POSM   NC311278   8.631  28.711  16.013 -0.0258 -0.1841  0.0762
  962POSM   PO411279   8.574  28.374  15.805  0.0667  0.1910 -0.2334
  962POSM   AM111280   8.389  28.504  15.543 -0.2592  0.2605 -0.0060
  962POSM   AM211281   8.180  28.670  15.429  0.3910 -0.0552  0.4178
  962POSM   T1A11282   8.340  28.377  15.049  0.0580  0.0616 -0.1805
  962POSM   C2A11283   8.646  28.352  14.711 -0.2111 -0.1512 -0.0549
  962POSM   C3A11284   8.882  28.714  14.565  0.3524 -0.0863 -0.1240
  962POSM   C1B11285   8.256  28.944  15.219 -0.1583 -0.0520  0.1696
  962POSM   D2B11286   8.421  29.081  14.843  0.0787  0.0605 -0.1608
  962POSM   C3B11287   8.457  28.986  14.356 -0.1916 -0.2441 -0.0913
  962POSM   C4B11288   8.140  28.924  14.024  0.4954 -0.1329 -0.2098
  963DOPC   NC311289   5.129  24.413  14.331  0.2169  0.1258 -0.1556
  963DOPC   PO411290   4.791  24.201  14.196 -0.1631  0.2853  0.1088
  963DOPC   GL111291   4.791  24.286  13.810  0.0381 -0.1360 -0.4831
  963DOPC   GL211292   5.171  24.387  13.770  0.1969  0.3202  0.0182
  963DOPC   C1A11293   4.911  24.091  13.410  0.0419 -0.0739 -0.1607
  963DOPC   D2A11294   4.768  24.312  13.004 -0.0709 -0.1870 -0.2084
  963DOPC   C3A11295   4.385  24.398  12.740  0.1553  0.1368 -0.0802
  963DOPC   C4A11296   4.029  24.412  12.485 -0.2355  0.0565  0.0834
  963DOPC   C1B11297   4.997  24.609  13.367 -0.1804 -0.2196  0.2317
  963DOPC   D2B11298   5.043  24.675  12.882  0.5506 -0.0355  0.3387
  963DOPC   C3B11299   5.377  24.643  12.568 -0.1015  0.1463 -0.0332
  963DOPC   C4B11300   5.499  24.334  12.276  0.1269  0.1105 -0.1537
  964DOPC   NC311301   9.605  22.780  14.288  0.2438 -0.0453  0.0477
  964DOPC   PO411302   9.785  23.026  14.066 -0.2361 -0.3255 -0.1250
  964DOPC   GL111303   9.818  23.115  13.673 -0.2384  0.3029  0.1236
  964DOPC   GL211304   9.931  22.981  13.391 -0.1534 -0.0483 -0.1692
  964DOPC   C1A11305   9.729  23.499  13.432 -0.1792  0.1240  0.3108
  964DOPC   D2A11306   9.499  23.685  13.097  0.1971  0.0718  0.0028
  964DOPC   C3A11307   9.326  24.056  13.120 -0.4763 -0.4913  0.3808
  964DOPC   C4A11308   9.318  24.398  12.811  0.0882 -0.3265 -0.3179
  964DOPC   C1B11309   9.588  22.776  13.148 -0.0383 -0.3896  0.0640
  964DOPC   D2B11310   9.169  22.897  12.958 -0.0560  0.0771 -0.1651
  964DOPC   C3B11311   9.280  22.829  12.539 -0.0652 -0.2720 -0.0743
  964DOPC   C4B11312   9.607  22.849  12.200 -0.2213  0.2953  0.3745
  965DOPE   NH311313   8.213  22.690  14.191  0.4070 -0.1861  0.0980
  965DOPE   PO411314   8.052  22.665  13.917 -0.2234 -0.1226 -0.1943
  965DOPE   GL111315   8.250  22.709  13.616  0.1968  0.1404 -0.1229
  965DOPE   GL211316   8.457  22.513  13.390 -0.4115 -0.4299 -0.4337
  965DOPE   C1A11317   8.315  23.050  13.270 -0.0618  0.0445 -0.0051
  965DOPE   D2A11318   8.416  22.993  12.811  0.1299  0.1902 -0.1889
  965DOPE   C3A11319   8.672  23.142  12.454  0.0003 -0.2679 -0.1087
  965DOPE   C4A11320   9.014  23.110  12.248 -0.1935  0.1411 -0.0509
  965DOPE   C1B11321   8.061  22.586  13.149 -0.0688 -0.1260 -0.0265
  965DOPE   D2B11322   7.838  22.172  12.974  0.1453 -0.2362 -0.1667
  965DOPE   C3B11323   7.960  22.042  12.583  0.0243 -0.0536 -0.0960
  965DOPE   C4B11324   7.919  22.107  12.117 -0.1716  0.3618  0.3738
  966POSM   NC311325  10.106  22.543  13.040 -0.0547 -0.3911  0.2397
  966POSM   PO411326  10.241  22.614  13.402  0.2089  0.2139 -0.2213
  966POSM   AM111327  10.376  22.862  13.301  0.1309 -0.0351 -0.2438
  966POSM   AM211328  10.480  22.884  13.018 -0.2558 -0.0561  0.0750
  966POSM   T1A11329  10.264  23.332  13.139  0.3951 -0.2507 -0.3059
  966POSM   C2A11330   9.995  23.536  12.873  0.1769  0.2070 -0.3268
  966POSM   C3A11331   9.944  23.742  12.468 -0.0912  0.1356 -0.3243
  966POSM   C1B11332  10.487  23.100  12.737  0.0460 -0.3213  0.0369
  966POSM   D2B11333  10.468  23.448  12.535  0.0167  0.1161  0.0235
  966POSM   C3B11334  10.321  23.628  12.157  0.0762 -0.0578 -0.1847
  966POSM   C4B11335  10.042  23.847  11.862  0.0049 -0.4916 -0.2532
  967POSM   NC311336   2.404  28.941  14.839 -0.3922 -0.0148 -0.1040
  967POSM   PO411337   2.261  29.026  14.476  0.0939 -0.1122 -0.2367
  967POSM   AM111338   2.182  29.027  14.152  0.0010  0.0026  0.1938
  967POSM   AM211339   1.991  28.998  13.944  0.1454 -0.0871  0.0645
  967POSM   T1A11340   2.359  29.165  13.719 -0.3125  0.1590  0.1562
  967POSM   C2A11341   2.541  29.246  13.293  0.0342 -0.1395 -0.2854
  967POSM   C3A11342   2.758  29.127  12.872  0.0132 -0.2197  0.0627
  967POSM   C1B11343   1.710  28.988  13.713  0.2432 -0.1967  0.2429
  967POSM   D2B11344   1.482  28.997  13.284 -0.3491  0.0243  0.0692
  967POSM   C3B11345   1.687  29.068  12.889  0.0788 -0.2677  0.0586
  967POSM   C4B11346   1.789  29.250  12.487  0.1370  0.0205 -0.2155
  968DOPE   NH311347   2.658  26.715  14.144 -0.0880 -0.1151  0.3233
  968DOPE   PO411348   2.936  26.635  14.209  0.2484  0.0404 -0.1379
  968DOPE   GL111349   2.906  26.403  13.929 -0.1341  0.0559 -0.2408
  968DOPE   GL211350   2.711  26.426  13.679 -0.0846  0.2725 -0.2480
  968DOPE   C1A11351   3.234  26.531  13.611  0.0255  0.1401  0.1391
  968DOPE   D2A11352   3.344  26.553  13.215  0.3367  0.2462  0.0309
  968DOPE   C3A11353   3.160  26.383  12.775 -0.1334  0.0150 -0.0989
  968DOPE   C4A11354   3.019  26.102  12.459 -0.0313 -0.0688  0.1861
  968DOPE   C1B11355   2.782  26.714  13.254  0.0812 -0.0974  0.3180
  968DOPE   D2B11356   3.038  26.859  12.853  0.0336 -0.1868 -0.2279
  968DOPE   C3B11357   2.752  26.708  12.564 -0.0992  0.1888  0.0668
  968DOPE   C4B11358   2.610  26.347  12.307 -0.1723  0.1600 -0.0871
  969POSM   NC311359   1.271  25.641  14.255  0.0630 -0.0941 -0.1388
  969POSM   PO411360   1.628  25.749  14.282 -0.0047 -0.0392 -0.0268
  969POSM   AM111361   1.690  25.977  14.031 -0.3156  0.3447 -0.5896
  969POSM   AM211362   1.961  26.066  13.858  0.0572  0.2916  0.0555
  969POSM   T1A11363   1.572  26.318  13.703  0.4712  0.5594 -0.1683
  969POSM   C2A11364   1.382  26.667  13.404 -0.1263 -0.0535 -0.0151
  969POSM   C3A11365   1.432  26.711  12.900  0.1778  0.1981  0.1891
  969POSM   C1B11366   1.997  26.169  13.549 -0.1056  0.2489 -0.0124
  969POSM   D2B11367   1.918  26.160  13.107  0.2777  0.2583 -0.0885
  969POSM   C3B11368   1.876  26.415  12.753 -0.1955 -0.1995 -0.2067
  969POSM   C4B11369   1.759  26.797  12.538  0.2621 -0.1382 -0.0553
  970DOPE   NH311370   5.176  33.658  17.081 -0.4241  0.2028  0.2761
  970DOPE   PO411371   5.485  33.669  16.939  0.0995 -0.1749  0.0415
  970DOPE   GL111372   5.565  33.868  16.571 -0.0715  0.1176 -0.1735
  970DOPE   GL211373   5.449  33.917  16.336 -0.3728 -0.1462  0.0164
  970DOPE   C1A11374   5.898  33.739  16.245 -0.1987 -0.0719 -0.0894
  970DOPE   D2A11375   5.874  33.379  15.966 -0.0061  0.0046 -0.3698
  970DOPE   C3A11376   6.169  33.384  15.550  0.2848  0.2964  0.2864
  970DOPE   C4A11377   6.231  33.364  15.103  0.0917 -0.0898  0.1248
  970DOPE   C1B11378   5.598  34.299  16.093 -0.0810 -0.0242  0.3388
  970DOPE   D2B11379   5.734  34.519  15.698 -0.1016 -0.0255  0.2242
  970DOPE   C3B11380   5.649  34.387  15.250  0.1564  0.2183 -0.2757
  970DOPE   C4B11381   5.487  34.370  14.847 -0.1407 -0.0174  0.0486
  971POSM   NC311382   0.022  29.071  14.135 -0.2147 -0.1901  0.0730
  971POSM   PO411383   0.371  29.041  14.004 -0.2281  0.1569  0.1371
  971POSM   AM111384   0.443  29.060  13.679 -0.0360  0.4097  0.1521
  971POSM   AM211385   0.651  29.056  13.519  0.5264 -0.0809 -0.0157
  971POSM   T1A11386   0.290  28.909  13.180 -0.0451  0.0902 -0.0990
  971POSM   C2A11387  -0.046  28.894  12.853  0.1675  0.1969  0.3478
  971POSM   C3A11388  -0.155  29.021  12.414 -0.0569  0.1109  0.2722
  971POSM   C1B11389   0.656  29.311  13.324 -0.0935  0.0638  0.1009
  971POSM   D2B11390   0.730  29.546  12.964 -0.0235  0.1604  0.1329
  971POSM   C3B11391   0.916  29.785  12.619  0.0860  0.1919 -0.2085
  971POSM   C4B11392   0.789  30.180  12.413 -0.0443 -0.1876  0.0333
  972DOPS   CNO11393  11.935  23.933  14.041  0.0885  0.0501 -0.0011
  972DOPS   PO411394  12.185  24.186  14.200 -0.0830  0.2822 -0.1076
  972DOPS   GL111395  12.101  24.416  13.806  0.0347  0.2635 -0.0317
  972DOPS   GL211396  11.988  24.212  13.596  0.1097 -0.2363 -0.1825
  972DOPS   C1A11397  12.096  24.656  13.449  0.0331 -0.2221 -0.1378
  972DOPS   D2A11398  12.037  24.631  12.998  0.4132  0.0590 -0.1492
  972DOPS   C3A11399  12.443  24.523  12.775  0.1035 -0.2666 -0.1247
  972DOPS   C4A11400  12.795  24.467  12.478  0.2154 -0.2804 -0.2312
  972DOPS   C1B11401  12.154  24.186  13.187 -0.3217  0.0528  0.2053
  972DOPS   D2B11402  12.143  24.028  12.733 -0.4007  0.0024  0.1958
  972DOPS   C3B11403  11.914  24.141  12.404  0.0898  0.2441  0.0125
  972DOPS   C4B11404  11.667  24.021  12.037 -0.1604 -0.1327 -0.4550
  973DOPC   NC311405   5.282  33.021  16.339  0.2677  0.1213  0.2265
  973DOPC   PO411406   4.963  32.878  16.191  0.0583 -0.0461 -0.0179
  973DOPC   GL111407   5.116  32.959  15.883 -0.1325  0.0391  0.0089
  973DOPC   GL211408   5.347  33.149  15.801 -0.0812 -0.6206 -0.3543
  973DOPC   C1A11409   5.184  32.906  15.404 -0.1689  0.3422 -0.1213
  973DOPC   D2A11410   5.390  32.903  15.031  0.0684  0.0638 -0.0649
  973DOPC   C3A11411   5.565  33.144  14.645  0.1501 -0.0255 -0.0524
  973DOPC   C4A11412   5.674  33.445  14.339 -0.2197 -0.1262 -0.0782
  973DOPC   C1B11413   5.219  33.429  15.440  0.0477 -0.0543  0.0202
  973DOPC   D2B11414   5.279  33.446  14.989  0.1016  0.1114  0.4898
  973DOPC   C3B11415   4.986  33.766  14.813 -0.0922  0.0068  0.3749
  973DOPC   C4B11416   4.733  33.845  14.417 -0.0555 -0.1359 -0.0985
  974DOPS   CNO11417   0.847   1.306  16.120 -0.0058 -0.0630  0.1374
  974DOPS   PO411418   0.946   1.405  15.757 -0.0079 -0.2018 -0.2537
  974DOPS   GL111419   1.199   1.335  15.428  0.0512  0.2183  0.4839
  974DOPS   GL211420   1.228   1.649  15.401 -0.0561 -0.0280  0.0667
  974DOPS   C1A11421   1.066   1.437  14.952 -0.1021  0.0679 -0.1813
  974DOPS   D2A11422   0.872   1.413  14.529 -0.0483  0.3477 -0.0638
  974DOPS   C3A11423   1.111   1.183  14.217  0.2135 -0.0163  0.0150
  974DOPS   C4A11424   1.347   0.807  13.965  0.0645  0.3022 -0.2110
  974DOPS   C1B11425   1.472   1.675  14.994 -0.0726 -0.1143 -0.2892
  974DOPS   D2B11426   1.586   1.800  14.543 -0.1240 -0.1914  0.0865
  974DOPS   C3B11427   2.015   1.736  14.439 -0.1713 -0.0816 -0.1055
  974DOPS   C4B11428   2.240   1.493  14.105 -0.0286  0.1371  0.0532
  975DOPE   NH311429  11.200  29.090  16.590  0.2526 -0.3367 -0.3122
  975DOPE   PO411430  11.079  29.181  16.304 -0.3362 -0.1486 -0.1674
  975DOPE   GL111431  11.048  29.245  15.959  0.3009 -0.0367  0.1064
  975DOPE   GL211432  11.168  29.522  15.939 -0.3133  0.0516  0.0378
  975DOPE   C1A11433  10.822  29.502  15.586 -0.0202 -0.2786  0.0191
  975DOPE   D2A11434  10.484  29.445  15.302  0.0193  0.0902  0.1653
  975DOPE   C3A11435  10.141  29.743  15.218 -0.1814 -0.1911 -0.2144
  975DOPE   C4A11436  10.075  30.107  14.927 -0.1018  0.1006 -0.0485
  975DOPE   C1B11437  11.281  29.489  15.506  0.0145  0.3140  0.0791
  975DOPE   D2B11438  11.078  29.632  15.124 -0.0149 -0.0877 -0.0888
  975DOPE   C3B11439  10.858  29.391  14.803 -0.2874  0.2077 -0.0481
  975DOPE   C4B11440  10.764  28.990  14.481  0.1270  0.0546 -0.2115
  976DOPC   NC311441   2.967  29.712  14.697  0.0146 -0.0151 -0.0188
  976DOPC   PO411442   3.030  29.573  14.337  0.4278  0.0437 -0.1595
  976DOPC   GL111443   3.215  29.540  14.051 -0.1547 -0.3111 -0.1325
  976DOPC   GL211444   3.510  29.459  14.155  0.0068 -0.0279 -0.0373
  976DOPC   C1A11445   3.289  29.901  13.737  0.0826  0.2633  0.0954
  976DOPC   D2A11446   3.550  30.154  13.481 -0.3494  0.1049  0.1555
  976DOPC   C3A11447   3.232  29.949  13.200  0.2304  0.0246 -0.0537
  976DOPC   C4A11448   3.053  29.638  12.938 -0.1266 -0.1658 -0.1305
  976DOPC   C1B11449   3.435  29.142  13.780 -0.1489 -0.0612  0.1787
  976DOPC   D2B11450   3.380  28.821  13.411  0.1392 -0.1729  0.1323
  976DOPC   C3B11451   3.163  28.781  12.985  0.0524 -0.0975 -0.2452
  976DOPC   C4B11452   3.250  28.682  12.506 -0.0463 -0.2601 -0.0269
  977DOPS   CNO11453  34.035  25.543  14.086 -0.1019 -0.0544 -0.0137
  977DOPS   PO411454  33.725  25.427  13.929  0.2015 -0.2007 -0.1533
  977DOPS   GL111455  33.751  25.328  13.647  0.0584 -0.1501  0.0991
  977DOPS   GL211456  33.862  25.097  13.446  0.1272 -0.0576 -0.0315
  977DOPS   C1A11457  33.552  25.634  13.315  0.1532  0.0681  0.2790
  977DOPS   D2A11458  33.478  25.871  12.968  0.0545  0.0484 -0.3101
  977DOPS   C3A11459  33.831  26.172  12.820  0.3993  0.0704  0.0113
  977DOPS   C4A11460  34.018  26.550  12.919  0.0912  0.0655 -0.0961
  977DOPS   C1B11461  33.722  25.261  13.029 -0.1342 -0.0963  0.0336
  977DOPS   D2B11462  33.689  25.526  12.600  0.2820 -0.0719 -0.3276
  977DOPS   C3B11463  33.833  25.507  12.172 -0.0211  0.0284 -0.1216
  977DOPS   C4B11464  33.752  25.395  11.749 -0.0030 -0.1781 -0.1893
  978DOPC   NC311465   4.731  25.695  14.464  0.0123  0.2160 -0.1863
  978DOPC   PO411466   4.973  25.569  14.232 -0.0464  0.1061  0.0666
  978DOPC   GL111467   5.205  25.754  13.876  0.0156  0.1217 -0.2835
  978DOPC   GL211468   5.135  25.931  13.663 -0.4018 -0.1185  0.0350
  978DOPC   C1A11469   5.400  25.523  13.526 -0.3407 -0.1328 -0.0066
  978DOPC   D2A11470   5.615  25.311  13.199  0.4459 -0.1521  0.0795
  978DOPC   C3A11471   5.847  25.492  12.807 -0.1609  0.2123  0.0906
  978DOPC   C4A11472   5.867  25.315  12.380 -0.0084 -0.1454 -0.2057
  978DOPC   C1B11473   5.230  25.921  13.180 -0.3468 -0.0713  0.3102
  978DOPC   D2B11474   5.555  25.920  12.894 -0.4542  0.2687 -0.1521
  978DOPC   C3B11475   5.598  25.819  12.398  0.1228  0.2604 -0.2346
  978DOPC   C4B11476   5.839  25.706  12.023  0.0704  0.1502 -0.0660
  979DOPE   NH311477  10.654  32.456  16.631 -0.1720 -0.2478 -0.0901
  979DOPE   PO411478  10.669  32.693  16.355 -0.1687 -0.1525  0.3527
  979DOPE   GL111479  10.610  32.685  15.981  0.3108  0.0655  0.1841
  979DOPE   GL211480  10.785  32.892  15.821 -0.1650  0.3503 -0.0137
  979DOPE   C1A11481  10.358  32.459  15.645  0.0178 -0.1122  0.0626
  979DOPE   D2A11482  10.139  32.176  15.322  0.0417  0.0530  0.0039
  979DOPE   C3A11483  10.107  32.034  14.887 -0.0056  0.0318  0.2418
  979DOPE   C4A11484  10.193  31.632  14.588 -0.1677 -0.0109 -0.0435
  979DOPE   C1B11485  10.734  32.727  15.358 -0.1531 -0.2070  0.0123
  979DOPE   D2B11486  10.829  32.706  14.929  0.0745  0.0269  0.2331
  979DOPE   C3B11487  11.290  32.692  14.840  0.1877  0.2316 -0.0324
  979DOPE   C4B11488  11.480  32.401  14.526 -0.0930  0.0868  0.2734
  980POSM   NC311489   3.952  31.266  15.406  0.0457 -0.1333  0.0700
  980POSM   PO411490   3.879  30.917  15.279  0.0464 -0.1264 -0.1509
  980POSM   AM111491   4.031  30.892  14.971  0.3170  0.1479 -0.0639
  980POSM   AM211492   4.259  30.806  14.836  0.0347  0.1040 -0.0532
  980POSM   T1A11493   3.898  31.039  14.499 -0.1415  0.0831  0.1822
  980POSM   C2A11494   3.797  31.127  14.008  0.2973 -0.2791 -0.1817
  980POSM   C3A11495   3.769  31.212  13.572 -0.1263  0.1009 -0.1435
  980POSM   C1B11496   4.443  30.984  14.571  0.0798 -0.0239  0.2335
  980POSM   D2B11497   4.269  31.248  14.194  0.0914  0.4229 -0.0071
  980POSM   C3B11498   4.382  30.963  13.909  0.0092  0.0273 -0.1852
  980POSM   C4B11499   4.370  30.761  13.518  0.0574 -0.0161 -0.1018
  981DOPE   NH311500   2.638  32.924  15.360  0.1070  0.2370 -0.0339
  981DOPE   PO411501   2.918  33.040  15.424  0.0248  0.0011 -0.0271
  981DOPE   GL111502   3.190  33.035  15.107  0.0469 -0.1372  0.0285
  981DOPE   GL211503   3.161  33.226  14.925 -0.0996 -0.1296 -0.3447
  981DOPE   C1A11504   3.600  32.969  14.912  0.2687 -0.2305 -0.0193
  981DOPE   D2A11505   3.538  33.078  14.471  0.1359 -0.0711 -0.3095
  981DOPE   C3A11506   3.170  33.354  14.423 -0.0530 -0.0406  0.0400
  981DOPE   C4A11507   3.109  33.550  14.030  0.1287  0.3968 -0.0529
  981DOPE   C1B11508   3.344  33.586  15.044  0.0726 -0.0767 -0.1511
  981DOPE   D2B11509   3.429  33.874  15.441  0.1102 -0.2057  0.3360
  981DOPE   C3B11510   3.629  34.206  15.276  0.0441 -0.0419  0.0636
  981DOPE   C4B11511   3.935  34.353  14.948 -0.2276  0.2147  0.0665
  982POSM   NC311512   5.993  30.179  15.283  0.1434  0.0090 -0.0737
  982POSM   PO411513   5.597  30.267  15.281  0.1960 -0.0491  0.0661
  982POSM   AM111514   5.594  30.312  14.940 -0.1453 -0.0141 -0.3305
  982POSM   AM211515   5.374  30.278  14.737 -0.0513  0.0265  0.0820
  982POSM   T1A11516   5.792  30.460  14.487 -0.2469  0.1374 -0.0701
  982POSM   C2A11517   6.049  30.537  14.116  0.1161  0.2163 -0.0355
  982POSM   C3A11518   6.198  30.514  13.644 -0.3855 -0.2071 -0.2948
  982POSM   C1B11519   5.198  30.033  14.512  0.0690  0.0841  0.1884
  982POSM   D2B11520   4.908  30.102  14.168  0.2101 -0.0083  0.1312
  982POSM   C3B11521   4.993  30.518  14.028 -0.4356  0.1506 -0.1394
  982POSM   C4B11522   4.875  30.791  13.712  0.1436 -0.0357  0.2458
  983DOPC   NC311523   8.593  27.560  15.435  0.0076  0.0136  0.0995
  983DOPC   PO411524   8.834  27.843  15.520  0.4172 -0.1152  0.0754
  983DOPC   GL111525   8.983  27.881  15.214  0.0791 -0.0050  0.1683
  983DOPC   GL211526   8.749  27.905  15.032  0.0103 -0.2318 -0.0253
  983DOPC   C1A11527   9.066  28.258  14.923 -0.2483  0.0675 -0.3744
  983DOPC   D2A11528   9.361  28.410  14.559  0.1021  0.0851  0.0742
  983DOPC   C3A11529   9.278  28.842  14.314 -0.1687 -0.1731 -0.1135
  983DOPC   C4A11530   9.458  29.226  14.025  0.1229 -0.2010  0.2333
  983DOPC   C1B11531   8.680  27.829  14.580 -0.0704 -0.3474  0.2399
  983DOPC   D2B11532   8.517  27.659  14.165  0.1501 -0.0074  0.0397
  983DOPC   C3B11533   8.663  27.351  13.863 -0.0601  0.1361 -0.0148
  983DOPC   C4B11534   8.971  27.059  13.625  0.1206  0.2649  0.0260
  984DOPE   NH311535   7.550  32.602  16.862 -0.0625 -0.1089 -0.1479
  984DOPE   PO411536   7.611  32.785  16.623 -0.2868  0.1018  0.4701
  984DOPE   GL111537   7.569  33.003  16.294  0.2456  0.7081  0.1354
  984DOPE   GL211538   7.431  32.776  16.070 -0.2851  0.0695 -0.1446
  984DOPE   C1A11539   7.470  33.239  15.919  0.0020 -0.1959  0.1808
  984DOPE   D2A11540   7.254  33.637  15.942 -0.2481  0.3122  0.1020
  984DOPE   C3A11541   7.453  34.039  16.079 -0.3956  0.0305 -0.0684
  984DOPE   C4A11542   7.586  34.527  16.214  0.0588 -0.1105 -0.1011
  984DOPE   C1B11543   7.195  32.802  15.693 -0.1803 -0.0741  0.1955
  984DOPE   D2B11544   6.937  32.788  15.318 -0.1710 -0.0924 -0.0424
  984DOPE   C3B11545   6.940  32.781  14.808 -0.2459 -0.0914 -0.0885
  984DOPE   C4B11546   6.714  32.597  14.368  0.0665 -0.3283 -0.2753
  985POSM   NC311547   8.706  23.472  14.286  0.1189  0.3650 -0.0771
  985POSM   PO411548   9.053  23.602  14.206 -0.1945 -0.0642 -0.0575
  985POSM   AM111549   9.007  23.727  13.927  0.1532  0.2097 -0.0805
  985POSM   AM211550   8.979  23.982  13.798 -0.2222  0.0959  0.1573
  985POSM   T1A11551   9.168  23.617  13.476  0.1191 -0.1243 -0.4034
  985POSM   C2A11552   9.070  23.447  13.068  0.2906 -0.0522 -0.0547
  985POSM   C3A11553   9.174  23.384  12.617  0.0586  0.2670 -0.1034
  985POSM   C1B11554   8.889  24.122  13.544 -0.2007  0.3118  0.1374
  985POSM   D2B11555   8.962  24.431  13.153 -0.3574  0.1628 -0.0803
  985POSM   C3B11556   9.201  24.867  13.083  0.0059  0.0047  0.0356
  985POSM   C4B11557   9.351  25.176  12.770 -0.1204  0.0555  0.2795
  986DOPE   NH311558   9.963  30.482  16.030 -0.1263 -0.1096 -0.0434
  986DOPE   PO411559   9.961  30.204  16.008 -0.1443 -0.0006 -0.0424
  986DOPE   GL111560  10.149  30.329  15.617 -0.3258 -0.1367 -0.2097
  986DOPE   GL211561  10.400  30.365  15.761  0.0515 -0.0198  0.0001
  986DOPE   C1A11562  10.017  30.727  15.469 -0.2734  0.1349  0.4673
  986DOPE   D2A11563   9.701  30.932  15.232 -0.0468  0.1284  0.0259
  986DOPE   C3A11564   9.593  31.349  15.175  0.2867  0.3457 -0.1767
  986DOPE   C4A11565   9.842  31.600  14.922 -0.1565 -0.5256 -0.1944
  986DOPE   C1B11566  10.459  30.544  15.329 -0.2734  0.0932 -0.2099
  986DOPE   D2B11567  10.193  30.657  14.976 -0.2275 -0.0932  0.1923
  986DOPE   C3B11568  10.381  30.955  14.701 -0.2245  0.0162  0.0055
  986DOPE   C4B11569  10.638  31.121  14.354 -0.0501  0.3717 -0.0846
  987DOPE   NH311570   0.760  29.667  14.097  0.3210  0.3691  0.0474
  987DOPE   PO411571   0.735  29.379  14.197 -0.1327  0.1458  0.0197
  987DOPE   GL111572   0.811  29.192  13.875 -0.4704  0.2199  0.0260
  987DOPE   GL211573   0.966  29.397  13.743  0.0885  0.2289  0.2985
  987DOPE   C1A11574   1.097  28.929  13.587 -0.1520 -0.1475 -0.1560
  987DOPE   D2A11575   1.279  28.560  13.341  0.0479  0.3115  0.0301
  987DOPE   C3A11576   1.319  28.708  12.916  0.0333 -0.2024 -0.1685
  987DOPE   C4A11577   1.191  28.911  12.490  0.1014 -0.2656  0.0396
  987DOPE   C1B11578   1.037  29.638  13.319 -0.1569  0.3417  0.0881
  987DOPE   D2B11579   1.342  29.838  13.022 -0.1010 -0.0445  0.0046
  987DOPE   C3B11580   1.295  30.057  12.609 -0.1156  0.0783 -0.1711
  987DOPE   C4B11581   1.277  30.329  12.241  0.2336  0.0060  0.0786
  988DOPE   NH311582   6.871  30.082  16.235 -0.1364 -0.1969  0.2368
  988DOPE   PO411583   6.778  30.372  16.059 -0.0726 -0.2381  0.2015
  988DOPE   GL111584   6.894  30.572  15.706  0.2706  0.1251  0.2549
  988DOPE   GL211585   6.806  30.915  15.689 -0.1964  0.1069 -0.0835
  988DOPE   C1A11586   6.897  30.556  15.246  0.0155 -0.1405 -0.0595
  988DOPE   D2A11587   6.901  30.445  14.831  0.0881 -0.0677  0.5812
  988DOPE   C3A11588   6.908  30.750  14.520  0.0736 -0.0976 -0.2685
  988DOPE   C4A11589   6.676  30.824  14.151 -0.1550 -0.1172 -0.2718
  988DOPE   C1B11590   6.887  31.048  15.289  0.0217  0.0445 -0.0213
  988DOPE   D2B11591   7.162  31.036  14.904  0.0514  0.3388 -0.3180
  988DOPE   C3B11592   7.414  30.788  14.619  0.0933 -0.2545  0.2354
  988DOPE   C4B11593   7.763  30.714  14.304  0.0597 -0.3466  0.2750
  989DOPE   NH311594   1.926  26.718  14.505  0.0312 -0.0539 -0.0263
  989DOPE   PO411595   2.203  26.745  14.352 -0.0809 -0.0836  0.1843
  989DOPE   GL111596   2.042  26.900  14.018 -0.2084  0.1748 -0.2386
  989DOPE   GL211597   2.276  27.067  14.012 -0.2485 -0.0373  0.1464
  989DOPE   C1A11598   1.874  26.651  13.589 -0.0712 -0.0327 -0.2025
  989DOPE   D2A11599   1.892  26.610  13.178  0.4092  0.1077  0.2752
  989DOPE   C3A11600   2.136  26.920  12.814 -0.6139 -0.1526 -0.2075
  989DOPE   C4A11601   2.387  27.084  12.460 -0.1004 -0.3207  0.3268
  989DOPE   C1B11602   2.401  26.867  13.655  0.0480  0.0498 -0.0658
  989DOPE   D2B11603   2.346  26.526  13.313 -0.0292  0.0317 -0.0851
  989DOPE   C3B11604   2.427  26.486  12.843  0.0212 -0.1639 -0.0540
  989DOPE   C4B11605   2.239  26.592  12.429  0.0975  0.1356  0.0588
  990POSM   NC311606  11.710  26.288  15.424 -0.1112  0.0773 -0.0453
  990POSM   PO411607  11.523  26.349  15.079  0.0730  0.1154  0.0641
  990POSM   AM111608  11.355  26.424  14.826  0.0269  0.2745 -0.0900
  990POSM   AM211609  11.180  26.261  14.691 -0.4188  0.1071 -0.1097
  990POSM   T1A11610  11.421  26.558  14.344  0.3350  0.2597  0.1835
  990POSM   C2A11611  11.652  26.801  14.086  0.1676  0.0267 -0.2516
  990POSM   C3A11612  11.879  27.200  14.009 -0.0062 -0.0370  0.0036
  990POSM   C1B11613  11.022  26.266  14.410  0.1870 -0.2068 -0.0307
  990POSM   D2B11614  10.738  25.996  14.155 -0.2204  0.2274  0.0898
  990POSM   C3B11615  10.839  25.858  13.738  0.2141  0.0066  0.1526
  990POSM   C4B11616  10.826  26.097  13.338 -0.0053  0.5417  0.2174
  991DOPE   NH311617   7.818  31.192  16.410  0.1187 -0.0754 -0.0052
  991DOPE   PO411618   8.141  31.149  16.370 -0.1739  0.2044 -0.2183
  991DOPE   GL111619   8.098  31.068  15.929  0.1367 -0.2056  0.0226
  991DOPE   GL211620   8.334  31.247  15.865 -0.0836  0.0358 -0.1497
  991DOPE   C1A11621   8.097  31.008  15.467  0.0629  0.1379  0.1428
  991DOPE   D2A11622   8.212  30.820  15.008  0.0390  0.3582 -0.4027
  991DOPE   C3A11623   8.243  30.901  14.581 -0.0548 -0.0484 -0.0333
  991DOPE   C4A11624   8.526  30.976  14.267  0.1009 -0.0197  0.0881
  991DOPE   C1B11625   8.629  30.927  15.635  0.0926  0.0774 -0.0757
  991DOPE   D2B11626   8.823  30.828  15.216  0.1650 -0.1333  0.1153
  991DOPE   C3B11627   8.576  31.140  14.947 -0.1397  0.1205  0.0464
  991DOPE   C4B11628   8.613  31.616  14.911  0.1989  0.1269 -0.0727
  992DOPE   NH311629   9.624  31.178  16.576 -0.0023  0.0301  0.0082
  992DOPE   PO411630   9.651  31.260  16.275  0.2215  0.0829  0.1139
  992DOPE   GL111631   9.573  31.465  15.986 -0.2080 -0.0828  0.1049
  992DOPE   GL211632   9.815  31.613  15.879  0.0157 -0.0665  0.2369
  992DOPE   C1A11633   9.346  31.658  15.620 -0.3589 -0.1057  0.1464
  992DOPE   D2A11634   9.126  31.605  15.193 -0.0177 -0.0248 -0.1457
  992DOPE   C3A11635   9.369  31.521  14.736  0.0893  0.0740  0.4453
  992DOPE   C4A11636   9.736  31.452  14.482 -0.0093  0.0437  0.0649
  992DOPE   C1B11637   9.858  31.756  15.446  0.1044  0.0358  0.2801
  992DOPE   D2B11638   9.605  31.964  15.176 -0.2277 -0.2926 -0.1292
  992DOPE   C3B11639   9.222  32.011  14.880 -0.0899  0.0224  0.0554
  992DOPE   C4B11640   8.878  31.841  14.568  0.0910 -0.1128 -0.0171
  993POSM   NC311641   8.612  26.835  15.379 -0.2157  0.2626 -0.0557
  993POSM   PO411642   8.832  27.093  15.550  0.2646  0.0120  0.0981
  993POSM   AM111643   9.032  27.213  15.299  0.0068  0.0308 -0.3291
  993POSM   AM211644   9.095  27.472  15.205  0.6705  0.3513 -0.1828
  993POSM   T1A11645   9.278  27.132  14.877 -0.0468 -0.2906 -0.1941
  993POSM   C2A11646   9.308  27.225  14.483 -0.1031 -0.0673 -0.3553
  993POSM   C3A11647   9.587  27.568  14.268 -0.2899 -0.3072  0.2562
  993POSM   C1B11648   9.114  27.576  14.882  0.5107  0.4864 -0.0275
  993POSM   D2B11649   9.145  27.899  14.613  0.2559  0.2376 -0.5392
  993POSM   C3B11650   8.942  28.204  14.355  0.0115  0.0034 -0.1185
  993POSM   C4B11651   8.738  28.106  13.999  0.3679  0.1263 -0.2420
  994DOPC   NC311652   1.570  31.787  13.927  0.4511  0.0775 -0.1628
  994DOPC   PO411653   1.842  31.765  14.257 -0.0535  0.0031 -0.0972
  994DOPC   GL111654   2.159  31.883  13.938  0.1373 -0.0002 -0.3588
  994DOPC   GL211655   2.161  31.545  13.877 -0.0467 -0.1046  0.1581
  994DOPC   C1A11656   2.485  32.191  13.856  0.1906  0.0513 -0.1263
  994DOPC   D2A11657   2.520  32.583  13.672  0.1787  0.3458  0.3606
  994DOPC   C3A11658   2.699  32.774  13.307 -0.0876 -0.0111  0.0136
  994DOPC   C4A11659   2.878  33.063  13.025  0.1880  0.1089  0.1849
  994DOPC   C1B11660   2.046  31.667  13.476 -0.2840  0.0782 -0.0382
  994DOPC   D2B11661   1.920  31.769  13.021 -0.0376  0.0303  0.0814
  994DOPC   C3B11662   2.260  32.055  12.819 -0.0931 -0.0238 -0.0489
  994DOPC   C4B11663   2.514  32.443  12.714  0.1002 -0.0351 -0.2421
  995DOPE   NH311664   3.768  25.832  14.520 -0.0840 -0.0696  0.0524
  995DOPE   PO411665   3.930  26.073  14.399  0.1505 -0.1696 -0.2691
  995DOPE   GL111666   3.889  26.101  14.014  0.1492  0.2074 -0.1957
  995DOPE   GL211667   3.874  26.347  13.990  0.3207 -0.1115  0.0400
  995DOPE   C1A11668   3.933  25.776  13.699  0.1188  0.2776 -0.1969
  995DOPE   D2A11669   4.140  25.621  13.282  0.1659  0.0089 -0.0738
  995DOPE   C3A11670   4.406  25.828  12.951 -0.2667  0.2421  0.3153
  995DOPE   C4A11671   4.603  26.024  12.535 -0.0117 -0.2573 -0.2155
  995DOPE   C1B11672   4.038  26.226  13.565 -0.1766 -0.2746 -0.1759
  995DOPE   D2B11673   3.971  26.153  13.107  0.3686 -0.1907  0.2494
  995DOPE   C3B11674   4.136  26.238  12.666  0.1368  0.0207 -0.2243
  995DOPE   C4B11675   4.365  26.501  12.377 -0.0481 -0.4215  0.2530
  996DOPC   NC311676  12.603  28.707  15.452 -0.0410  0.0087 -0.3178
  996DOPC   PO411677  12.288  28.985  15.481 -0.0922  0.2339 -0.0605
  996DOPC   GL111678  12.128  28.857  15.145 -0.0776 -0.2290 -0.0273
  996DOPC   GL211679  12.419  28.864  14.927  0.0742  0.1319  0.1232
  996DOPC   C1A11680  11.826  29.026  14.871  0.1479 -0.0169  0.1311
  996DOPC   D2A11681  11.698  29.139  14.429 -0.1297  0.0994  0.2279
  996DOPC   C3A11682  11.433  29.401  14.172 -0.5705 -0.0894  0.1061
  996DOPC   C4A11683  11.368  29.672  13.756 -0.3659 -0.0049 -0.1492
  996DOPC   C1B11684  12.152  28.775  14.611 -0.2506  0.1500 -0.3404
  996DOPC   D2B11685  11.829  28.675  14.267  0.1329  0.1557  0.1653
  996DOPC   C3B11686  11.483  28.389  14.242 -0.0258  0.3010 -0.0780
  996DOPC   C4B11687  11.107  28.165  14.031 -0.0701  0.0896 -0.1083
  997POSM   NC311688   1.053  25.102  14.833  0.2157  0.0830 -0.0573
  997POSM   PO411689   1.021  24.830  14.571  0.0485 -0.0863  0.0585
  997POSM   AM111690   1.114  24.879  14.252  0.0298  0.1746 -0.1823
  997POSM   AM211691   1.161  24.734  14.034  0.3167  0.2324  0.1156
  997POSM   T1A11692   1.302  25.182  13.960 -0.2684 -0.1319  0.0989
  997POSM   C2A11693   1.613  25.497  13.832 -0.2011  0.1662  0.0566
  997POSM   C3A11694   1.808  25.714  13.479  0.0521 -0.3659 -0.0099
  997POSM   C1B11695   1.060  24.584  13.723 -0.0392 -0.0476 -0.1965
  997POSM   D2B11696   0.815  24.638  13.359  0.2912  0.2351 -0.1676
  997POSM   C3B11697   0.987  24.867  13.048 -0.1944 -0.1630  0.1971
  997POSM   C4B11698   1.411  24.900  12.865 -0.0784  0.1072 -0.0602
  998DOPE   NH311699   8.574  24.351  14.594 -0.2439 -0.2026  0.0224
  998DOPE   PO411700   8.809  24.554  14.460  0.2183 -0.2641 -0.0143
  998DOPE   GL111701   8.823  24.534  13.996  0.1824  0.3345  0.1663
  998DOPE   GL211702   9.032  24.716  13.971 -0.2774 -0.0825  0.3401
  998DOPE   C1A11703   8.664  24.663  13.596 -0.1486  0.1147 -0.3760
  998DOPE   D2A11704   8.620  24.844  13.180  0.0692  0.2414 -0.0893
  998DOPE   C3A11705   8.816  25.178  12.939 -0.0357 -0.0710 -0.0641
  998DOPE   C4A11706   9.051  25.603  12.764 -0.0169  0.3161  0.2840
  998DOPE   C1B11707   8.989  25.170  13.959  0.1001 -0.1213 -0.1564
  998DOPE   D2B11708   8.987  25.561  13.746  0.1677  0.2903 -0.2709
  998DOPE   C3B11709   9.262  25.748  13.470 -0.0569 -0.2049 -0.2569
  998DOPE   C4B11710   9.107  26.072  13.214 -0.1364  0.0749 -0.3266
  999DOPE   NH311711  10.486  27.020  15.307  0.2241 -0.0907 -0.0356
  999DOPE   PO411712  10.709  27.031  15.091  0.0193 -0.0430  0.0616
  999DOPE   GL111713  10.602  26.987  14.730  0.2481 -0.2353 -0.0177
  999DOPE   GL211714  10.298  27.108  14.752  0.2029 -0.0791 -0.3707
  999DOPE   C1A11715  10.655  27.086  14.279  0.1315  0.2054  0.1080
  999DOPE   D2A11716  10.640  27.331  13.911 -0.1199 -0.0944  0.0053
  999DOPE   C3A11717  10.508  27.147  13.541 -0.0239 -0.1869 -0.1279
  999DOPE   C4A11718  10.535  27.043  13.108  0.3701  0.0306  0.1975
  999DOPE   C1B11719  10.166  26.694  14.528 -0.0203 -0.2230  0.1347
  999DOPE   D2B11720   9.938  26.489  14.174 -0.1216 -0.0066  0.1096
  999DOPE   C3B11721  10.017  26.645  13.752  0.4464  0.2855  0.0269
  999DOPE   C4B11722  10.024  27.040  13.563  0.2717 -0.1432 -0.2511
 1000POSM   NC311723   5.435  23.703  14.446 -0.2604  0.0060  0.2370
 1000POSM   PO411724   5.417  23.471  14.130  0.0386  0.0832  0.0763
 1000POSM   AM111725   5.426  23.574  13.812  0.3524 -0.3395 -0.0843
 1000POSM   AM211726   5.444  23.493  13.557  0.3261  0.0335 -0.0503
 1000POSM   T1A11727   5.471  24.060  13.658 -0.0519  0.0740 -0.0656
 1000POSM   C2A11728   5.538  24.447  13.491 -0.2175  0.0111 -0.0778
 1000POSM   C3A11729   5.468  24.785  13.124 -0.0885  0.1057  0.2052
 1000POSM   C1B11730   5.283  23.695  13.355 -0.2958 -0.1036  0.1488
 1000POSM   D2B11731   5.003  23.799  13.000  0.1594  0.1941  0.0113
 1000POSM   C3B11732   4.835  23.579  12.648 -0.0888 -0.1537 -0.3722
 1000POSM   C4B11733   4.610  23.532  12.284  0.1680 -0.0234  0.0239
 1001DOPS   CNO11734   6.870  23.788  14.334 -0.0021 -0.1067  0.0171
 1001DOPS   PO411735   6.973  23.981  14.032  0.2264 -0.0449 -0.1625
 1001DOPS   GL111736   7.150  23.782  13.782 -0.0696  0.1238 -0.1203
 1001DOPS   GL211737   7.017  23.579  13.600  0.2339  0.0733  0.1045
 1001DOPS   C1A11738   7.542  23.778  13.521  0.2037  0.3293 -0.1673
 1001DOPS   D2A11739   7.972  23.875  13.466  0.0917  0.0394  0.0918
 1001DOPS   C3A11740   8.034  23.855  12.996  0.4457 -0.2514  0.1891
 1001DOPS   C4A11741   8.288  24.104  12.657 -0.1328 -0.0052  0.1679
 1001DOPS   C1B11742   7.114  23.844  13.183 -0.0252  0.3888  0.3690
 1001DOPS   D2B11743   7.268  24.062  12.779  0.2778 -0.1913  0.1048
 1001DOPS   C3B11744   7.102  24.133  12.332 -0.2538 -0.1146 -0.0878
 1001DOPS   C4B11745   7.170  24.026  11.904  0.2120 -0.1216 -0.0719
 1002DOPC   NC311746   4.526  32.704  15.996 -0.2563  0.1326 -0.1628
 1002DOPC   PO411747   4.593  33.090  15.917  0.2921 -0.2792  0.1906
 1002DOPC   GL111748   4.813  33.298  15.600  0.1481  0.1210 -0.1488
 1002DOPC   GL211749   4.832  33.519  15.734  0.1152 -0.0796  0.4304
 1002DOPC   C1A11750   4.763  33.439  15.123  0.2516  0.0235  0.0154
 1002DOPC   D2A11751   4.503  33.462  14.685 -0.1038  0.1576  0.1662
 1002DOPC   C3A11752   4.379  33.525  14.252  0.2240 -0.1570  0.0445
 1002DOPC   C4A11753   4.077  33.257  14.148  0.1755 -0.0003  0.2334
 1002DOPC   C1B11754   4.957  33.882  15.473 -0.3035 -0.2242 -0.2506
 1002DOPC   D2B11755   5.389  33.891  15.260 -0.1752 -0.1883 -0.0371
 1002DOPC   C3B11756   5.471  33.863  14.800  0.3326 -0.5067  0.0895
 1002DOPC   C4B11757   5.239  33.776  14.396 -0.2925  0.1399 -0.2183
 1003POSM   NC311758   4.541  27.658  14.818  0.1357  0.1457 -0.2090
 1003POSM   PO411759   4.902  27.670  14.812  0.0828 -0.2607 -0.1080
 1003POSM   AM111760   5.040  27.685  14.507  0.2182 -0.1913 -0.2957
 1003POSM   AM211761   5.242  27.861  14.392  0.1104  0.2688 -0.0783
 1003POSM   T1A11762   5.242  27.502  14.123  0.0087  0.0308  0.3707
 1003POSM   C2A11763   5.405  27.103  13.985 -0.1531 -0.0023  0.0031
 1003POSM   C3A11764   5.537  26.891  13.567 -0.1489  0.0318  0.0403
 1003POSM   C1B11765   5.359  28.212  14.403 -0.2699  0.0509 -0.2660
 1003POSM   D2B11766   5.195  28.556  14.211  0.1634  0.1133  0.0836
 1003POSM   C3B11767   5.134  28.677  13.767  0.0080  0.2149  0.2463
 1003POSM   C4B11768   5.015  28.384  13.471 -0.3606  0.0697 -0.0762
 1004DOPE   NH311769   7.361  22.821  13.717  0.1229  0.3016  0.1266
 1004DOPE   PO411770   7.603  22.930  13.888  0.1643  0.1443 -0.0931
 1004DOPE   GL111771   7.738  23.132  13.664 -0.1663  0.1166  0.1521
 1004DOPE   GL211772   7.847  22.924  13.472  0.0005  0.0514 -0.2262
 1004DOPE   C1A11773   7.847  23.391  13.330 -0.0094  0.0832 -0.0949
 1004DOPE   D2A11774   7.996  23.292  12.920 -0.1771  0.3128 -0.0547
 1004DOPE   C3A11775   8.226  23.559  12.605 -0.0375  0.1054  0.5365
 1004DOPE   C4A11776   8.397  23.723  12.237  0.0510  0.2894 -0.0259
 1004DOPE   C1B11777   7.547  22.938  13.136  0.4007  0.1907 -0.1176
 1004DOPE   D2B11778   7.513  23.163  12.738 -0.3314  0.0978 -0.1460
 1004DOPE   C3B11779   7.841  23.202  12.334  0.1196 -0.1035  0.1849
 1004DOPE   C4B11780   8.297  23.226  12.137 -0.0952  0.0783  0.1933
 1005DOPS   CNO11781   5.454  21.952  14.019  0.0779 -0.7043  0.1602
 1005DOPS   PO411782   5.356  22.206  13.768  0.0164  0.1784  0.2368
 1005DOPS   GL111783   5.173  22.252  13.326  0.2905 -0.1562 -0.0178
 1005DOPS   GL211784   5.168  22.110  13.107 -0.1006 -0.4335 -0.1622
 1005DOPS   C1A11785   4.933  22.513  13.048 -0.2450  0.1047  0.1347
 1005DOPS   D2A11786   4.524  22.666  12.940  0.1688  0.1361 -0.1063
 1005DOPS   C3A11787   4.164  22.770  12.620  0.0580 -0.1229 -0.1645
 1005DOPS   C4A11788   4.108  22.594  12.151  0.0137  0.2067  0.0028
 1005DOPS   C1B11789   5.409  21.931  12.778 -0.2441 -0.3516 -0.2514
 1005DOPS   D2B11790   5.437  21.872  12.281  0.2374 -0.1209 -0.0191
 1005DOPS   C3B11791   5.756  21.660  12.039 -0.2533 -0.1331 -0.2599
 1005DOPS   C4B11792   5.804  21.300  11.806  0.1792 -0.2256  0.4503
 1006DOPS   CNO11793   4.738  32.094  16.345  0.3058  0.0927 -0.1901
 1006DOPS   PO411794   5.011  31.977  16.156 -0.0237 -0.4193  0.3458
 1006DOPS   GL111795   5.342  32.156  15.942 -0.0169 -0.0753 -0.2208
 1006DOPS   GL211796   5.260  32.126  15.663  0.4135 -0.0619 -0.0998
 1006DOPS   C1A11797   5.343  32.597  15.727 -0.0582  0.2617  0.0381
 1006DOPS   D2A11798   5.651  32.890  15.463 -0.0804 -0.1592  0.1318
 1006DOPS   C3A11799   5.740  33.238  15.143 -0.0257  0.1765  0.1478
 1006DOPS   C4A11800   5.811  33.526  14.815 -0.0761 -0.0947 -0.0155
 1006DOPS   C1B11801   5.378  32.356  15.268  0.0229 -0.2414  0.0510
 1006DOPS   D2B11802   5.849  32.382  15.250  0.1408  0.0163 -0.0600
 1006DOPS   C3B11803   6.059  32.079  15.545  0.3398 -0.0654 -0.0958
 1006DOPS   C4B11804   6.492  31.994  15.604 -0.0326 -0.0621  0.2355
 1007DOPE   NH311805  12.493  23.718  14.066 -0.1815 -0.3958  0.2122
 1007DOPE   PO411806  12.356  23.490  13.908 -0.0994  0.1794 -0.1721
 1007DOPE   GL111807  12.210  23.838  13.724 -0.0213  0.2853 -0.2773
 1007DOPE   GL211808  12.109  23.697  13.445 -0.2081  0.0477 -0.1366
 1007DOPE   C1A11809  12.551  24.095  13.539  0.1351 -0.2109 -0.3443
 1007DOPE   D2A11810  12.993  24.079  13.340 -0.1184 -0.0162  0.0395
 1007DOPE   C3A11811  13.098  23.907  12.913 -0.2107  0.1011 -0.1634
 1007DOPE   C4A11812  13.035  23.629  12.517 -0.0876 -0.1293  0.1567
 1007DOPE   C1B11813  12.453  23.853  13.150  0.0233  0.2676  0.0739
 1007DOPE   D2B11814  12.653  24.042  12.715  0.3400 -0.1320  0.0141
 1007DOPE   C3B11815  12.457  24.191  12.286  0.1654 -0.3930 -0.1562
 1007DOPE   C4B11816  12.241  24.562  12.125  0.3472 -0.0100 -0.0498
 1008DOPC   NC311817   5.498  24.968  13.611 -0.2629  0.1431 -0.0279
 1008DOPC   PO411818   5.683  24.847  13.948 -0.2942 -0.2475  0.1206
 1008DOPC   GL111819   6.007  24.646  13.798  0.0927  0.1814  0.0009
 1008DOPC   GL211820   5.948  24.810  13.496 -0.1952  0.0775 -0.1620
 1008DOPC   C1A11821   5.998  24.274  13.503  0.1533 -0.2226  0.0779
 1008DOPC   D2A11822   6.207  23.925  13.276 -0.0506 -0.1503  0.2560
 1008DOPC   C3A11823   6.667  23.954  13.190 -0.0953 -0.0244  0.1547
 1008DOPC   C4A11824   6.912  24.316  13.044  0.1765 -0.3067  0.1585
 1008DOPC   C1B11825   5.924  24.554  13.129  0.1346 -0.1518  0.1372
 1008DOPC   D2B11826   5.790  24.420  12.706 -0.0529 -0.1354  0.0390
 1008DOPC   C3B11827   5.816  24.012  12.721  0.2468  0.4809 -0.2413
 1008DOPC   C4B11828   5.807  23.578  12.701 -0.1298  0.0675 -0.2315
 1009DOPS   CNO11829  12.177  28.328  16.212 -0.0509 -0.2960  0.2133
 1009DOPS   PO411830  11.902  28.484  16.010  0.0379 -0.1315  0.0935
 1009DOPS   GL111831  11.659  28.411  15.668  0.0135  0.1454 -0.0130
 1009DOPS   GL211832  11.447  28.657  15.703 -0.3501  0.3565  0.1260
 1009DOPS   C1A11833  11.671  28.693  15.263  0.0866 -0.3122 -0.1677
 1009DOPS   D2A11834  11.588  28.592  14.801 -0.2045  0.1848  0.2004
 1009DOPS   C3A11835  11.403  28.230  14.738  0.3903 -0.0763  0.2382
 1009DOPS   C4A11836  11.298  27.889  14.450 -0.1762 -0.0131  0.1788
 1009DOPS   C1B11837  11.241  29.005  15.410 -0.3336 -0.0541 -0.1242
 1009DOPS   D2B11838  10.872  29.096  15.211  0.2064  0.2897  0.2003
 1009DOPS   C3B11839  10.530  28.974  14.940 -0.3123  0.1483 -0.0353
 1009DOPS   C4B11840  10.230  28.863  14.622  0.0184  0.1554 -0.1683
 1010DOPE   NH311841   3.964  33.219  15.608  0.1069  0.3980  0.1218
 1010DOPE   PO411842   4.121  32.994  15.796 -0.1637 -0.0867 -0.1063
 1010DOPE   GL111843   4.284  32.937  15.447 -0.2300 -0.1373 -0.3813
 1010DOPE   GL211844   4.408  33.209  15.425 -0.2156 -0.0351 -0.0176
 1010DOPE   C1A11845   4.478  32.989  15.014  0.1426 -0.0175 -0.2306
 1010DOPE   D2A11846   4.930  33.053  14.833  0.0304  0.1195  0.3180
 1010DOPE   C3A11847   4.958  33.389  14.500 -0.1650  0.3705 -0.1398
 1010DOPE   C4A11848   5.159  33.406  14.085  0.2039  0.1496 -0.1117
 1010DOPE   C1B11849   4.192  33.370  15.091 -0.0332  0.2222 -0.0513
 1010DOPE   D2B11850   4.068  33.104  14.695 -0.1390  0.1403  0.2727
 1010DOPE   C3B11851   3.829  33.489  14.581 -0.1986  0.1773 -0.1010
 1010DOPE   C4B11852   3.540  33.697  14.277  0.1996  0.2155 -0.0953
 1011DOPE   NH311853   6.676  31.607  15.879 -0.0423  0.2564  0.0966
 1011DOPE   PO411854   6.991  31.605  15.950  0.2596  0.2125 -0.0274
 1011DOPE   GL111855   6.975  31.897  15.676 -0.0168  0.1060  0.1485
 1011DOPE   GL211856   7.246  31.923  15.656 -0.1369 -0.1301 -0.0330
 1011DOPE   C1A11857   6.872  31.662  15.263  0.2985 -0.1119  0.0005
 1011DOPE   D2A11858   6.632  31.409  14.933 -0.3583  0.6065 -0.1947
 1011DOPE   C3A11859   6.550  31.285  14.475  0.0775 -0.0470  0.0801
 1011DOPE   C4A11860   6.691  31.294  14.031 -0.1360 -0.3675 -0.1910
 1011DOPE   C1B11861   7.227  31.950  15.159  0.1348 -0.0018  0.1207
 1011DOPE   D2B11862   7.088  31.637  14.794  0.0336  0.0383 -0.1203
 1011DOPE   C3B11863   7.001  31.687  14.374 -0.2813 -0.1155 -0.0494
 1011DOPE   C4B11864   6.959  31.813  13.938 -0.1633 -0.1316  0.0900
 1012DOPE   NH311865   8.559  25.343  14.898  0.2220 -0.1415 -0.0032
 1012DOPE   PO411866   8.851  25.457  14.790 -0.0251 -0.2161  0.0484
 1012DOPE   GL111867   8.600  25.558  14.448 -0.0263 -0.0112  0.1185
 1012DOPE   GL211868   8.843  25.491  14.261 -0.0392 -0.1185 -0.2369
 1012DOPE   C1A11869   8.426  25.591  14.031  0.0812  0.0584  0.1954
 1012DOPE   D2A11870   8.435  25.803  13.590 -0.1616 -0.0352  0.0805
 1012DOPE   C3A11871   8.142  25.989  13.267  0.0488 -0.0815 -0.3509
 1012DOPE   C4A11872   7.966  26.205  12.918  0.0786 -0.1252  0.1236
 1012DOPE   C1B11873   8.770  25.994  14.199 -0.0179 -0.2819 -0.2844
 1012DOPE   D2B11874   9.086  26.313  14.213  0.0389  0.0076  0.1187
 1012DOPE   C3B11875   8.922  26.742  14.047 -0.1905  0.1363 -0.1366
 1012DOPE   C4B11876   9.082  27.190  14.084  0.0915  0.0941  0.2500
 1013DOPC   NC311877  10.595  33.996  16.506  0.3675 -0.1567  0.0828
 1013DOPC   PO411878  10.711  33.660  16.403  0.1926 -0.2504  0.0577
 1013DOPC   GL111879  10.697  33.921  16.020 -0.3039 -0.0780 -0.0579
 1013DOPC   GL211880  10.900  34.061  16.103  0.0158  0.3333 -0.5102
 1013DOPC   C1A11881  10.657  34.198  15.683 -0.3697 -0.0724 -0.4761
 1013DOPC   D2A11882  10.798  34.229  15.234 -0.1809  0.1203  0.2850
 1013DOPC   C3A11883  10.500  34.531  15.086  0.1010  0.1378  0.0710
 1013DOPC   C4A11884  10.260  34.833  14.873 -0.2717 -0.1226 -0.2355
 1013DOPC   C1B11885  11.187  34.185  15.700  0.1485  0.0871  0.1492
 1013DOPC   D2B11886  11.236  34.524  15.419  0.0809  0.0221  0.5301
 1013DOPC   C3B11887  11.015  34.714  15.022 -0.0198 -0.0945  0.0455
 1013DOPC   C4B11888  10.808  34.752  14.623  0.0637  0.0954 -0.2167
 1014POSM   NC311889   3.158  29.086  14.215 -0.3029  0.1665 -0.0585
 1014POSM   PO411890   3.370  28.897  14.410  0.2721 -0.0628 -0.1639
 1014POSM   AM111891   3.584  28.949  14.156 -0.1789 -0.0864  0.1536
 1014POSM   AM211892   3.704  28.731  14.034  0.1676 -0.3694  0.2438
 1014POSM   T1A11893   3.924  29.207  13.827  0.3012 -0.2543 -0.1413
 1014POSM   C2A11894   4.132  29.530  13.537  0.3679 -0.1223  0.1975
 1014POSM   C3A11895   4.450  29.821  13.503 -0.2760  0.2988  0.1052
 1014POSM   C1B11896   3.725  28.718  13.704  0.1627  0.1477  0.3479
 1014POSM   D2B11897   3.815  28.894  13.311  0.0287 -0.2143  0.0596
 1014POSM   C3B11898   4.183  28.794  13.122  0.1090  0.0285 -0.1210
 1014POSM   C4B11899   4.581  28.592  13.137 -0.4402 -0.0455  0.0115
 1015POSM   NC311900   0.751  32.006  14.560  0.0083 -0.2035 -0.0349
 1015POSM   PO411901   0.660  32.350  14.402  0.2172 -0.1862  0.0378
 1015POSM   AM111902   0.516  32.179  14.115  0.0165  0.0929  0.1331
 1015POSM   AM211903   0.438  32.320  13.866 -0.2087  0.0393 -0.3804
 1015POSM   T1A11904   0.624  31.914  13.682  0.1308  0.1561 -0.1009
 1015POSM   C2A11905   0.858  32.015  13.257  0.5499 -0.0291 -0.1296
 1015POSM   C3A11906   1.153  32.225  12.976 -0.0250  0.1227  0.1093
 1015POSM   C1B11907   0.504  32.439  13.561 -0.1898 -0.1107 -0.0259
 1015POSM   D2B11908   0.421  32.437  13.041  0.2364  0.0211 -0.1172
 1015POSM   C3B11909   0.004  32.246  13.118  0.1833  0.1403  0.2455
 1015POSM   C4B11910  -0.267  31.879  12.998 -0.0539  0.0828 -0.0823
 1016DOPC   NC311911   7.503  25.147  14.186  0.2223  0.2850 -0.1544
 1016DOPC   PO411912   7.101  25.257  14.335  0.2453 -0.2690  0.0044
 1016DOPC   GL111913   7.102  25.463  13.986  0.2732 -0.4670 -0.1645
 1016DOPC   GL211914   7.207  25.200  13.796  0.1944 -0.4464  0.1076
 1016DOPC   C1A11915   7.498  25.562  13.824 -0.0933  0.0665 -0.0547
 1016DOPC   D2A11916   7.588  25.985  13.939  0.2731  0.3930 -0.2261
 1016DOPC   C3A11917   7.625  26.400  13.701 -0.0700  0.3745 -0.2583
 1016DOPC   C4A11918   7.597  26.805  13.477  0.0405 -0.2829 -0.0718
 1016DOPC   C1B11919   7.247  24.970  13.399  0.1125 -0.1168 -0.2160
 1016DOPC   D2B11920   7.194  24.944  12.927  0.1440  0.0819  0.0327
 1016DOPC   C3B11921   6.896  25.136  12.676 -0.0252  0.0127  0.1550
 1016DOPC   C4B11922   6.754  25.483  12.464 -0.1760  0.1033 -0.0269
 1017DOPC   NC311923   7.182  29.094  16.012  0.2830 -0.1344 -0.0750
 1017DOPC   PO411924   7.289  28.746  15.797  0.2341  0.0522  0.1620
 1017DOPC   GL111925   7.517  29.063  15.688  0.0302 -0.2518  0.2748
 1017DOPC   GL211926   7.740  28.895  15.566 -0.2844  0.0296  0.2067
 1017DOPC   C1A11927   7.575  29.267  15.239  0.1639  0.1383 -0.0810
 1017DOPC   D2A11928   7.548  29.320  14.778 -0.0823  0.3071 -0.0742
 1017DOPC   C3A11929   7.443  29.702  14.591  0.3257  0.0255 -0.3471
 1017DOPC   C4A11930   7.320  29.825  14.168 -0.1377 -0.1711  0.4125
 1017DOPC   C1B11931   7.740  28.816  15.146  0.0502  0.0396  0.1627
 1017DOPC   D2B11932   7.824  28.539  14.798 -0.0472  0.3341  0.4111
 1017DOPC   C3B11933   8.235  28.614  14.626 -0.2277 -0.2976 -0.0934
 1017DOPC   C4B11934   8.437  28.519  14.203 -0.4702 -0.0130 -0.0558
 1018DOPS   CNO11935   1.738  31.229  14.405 -0.0939  0.0985 -0.2768
 1018DOPS   PO411936   1.472  31.337  14.231 -0.2277  0.2259  0.0798
 1018DOPS   GL111937   1.687  31.354  13.815 -0.1936 -0.2627  0.0721
 1018DOPS   GL211938   1.842  31.170  13.677 -0.2360 -0.1824  0.1229
 1018DOPS   C1A11939   1.479  31.449  13.439 -0.3157 -0.2263  0.2665
 1018DOPS   D2A11940   1.060  31.509  13.226  0.2099  0.1381 -0.0238
 1018DOPS   C3A11941   0.949  31.726  12.880 -0.3960 -0.0627 -0.0368
 1018DOPS   C4A11942   0.831  32.003  12.533  0.0047 -0.1689  0.4664
 1018DOPS   C1B11943   1.974  31.121  13.209 -0.2636  0.1200 -0.2043
 1018DOPS   D2B11944   2.071  31.332  12.822  0.0388 -0.1133  0.0457
 1018DOPS   C3B11945   1.715  31.299  12.482  0.1988 -0.3125 -0.0320
 1018DOPS   C4B11946   1.415  31.241  12.186  0.2955  0.4495 -0.0405
 1019DOPE   NH311947  10.383  21.660  13.453 -0.0866 -0.0494 -0.1906
 1019DOPE   PO411948  10.134  21.389  13.501 -0.2773 -0.1846  0.0282
 1019DOPE   GL111949  10.152  21.333  13.051 -0.0876  0.2887  0.1832
 1019DOPE   GL211950  10.269  21.598  12.988  0.1094 -0.0875 -0.1306
 1019DOPE   C1A11951  10.335  21.313  12.608  0.1834 -0.0489 -0.0292
 1019DOPE   D2A11952  10.471  21.317  12.196 -0.0697 -0.2543  0.1305
 1019DOPE   C3A11953  10.420  21.019  11.916  0.2934  0.1562 -0.1728
 1019DOPE   C4A11954  10.195  20.646  11.924  0.1116 -0.0764 -0.2032
 1019DOPE   C1B11955   9.907  21.876  12.862  0.0315  0.4853 -0.1687
 1019DOPE   D2B11956   9.711  22.295  12.968  0.2347 -0.0379 -0.1281
 1019DOPE   C3B11957   9.749  22.706  12.697  0.1067 -0.1596  0.2412
 1019DOPE   C4B11958  10.018  23.068  12.624 -0.1261  0.1524  0.0644
 1020DOPS   CNO11959   9.795  28.025  15.340 -0.0387  0.0761  0.0890
 1020DOPS   PO411960  10.093  28.241  15.438  0.0720 -0.0188 -0.2317
 1020DOPS   GL111961  10.065  28.203  15.000 -0.2193 -0.1102 -0.2835
 1020DOPS   GL211962  10.124  27.955  14.909 -0.0335  0.0289  0.0600
 1020DOPS   C1A11963   9.968  28.416  14.631 -0.0528  0.4544 -0.0473
 1020DOPS   D2A11964   9.761  28.594  14.281 -0.2437  0.0526  0.2519
 1020DOPS   C3A11965   9.905  28.334  13.887 -0.1465  0.0088  0.0841
 1020DOPS   C4A11966   9.840  28.034  13.509 -0.1110  0.1104 -0.1064
 1020DOPS   C1B11967   9.996  27.724  14.537 -0.0459 -0.1073 -0.0848
 1020DOPS   D2B11968   9.949  27.873  14.055 -0.0551 -0.1058  0.0127
 1020DOPS   C3B11969   9.726  27.653  13.768  0.1874  0.2523  0.4962
 1020DOPS   C4B11970   9.327  27.455  13.714  0.3521  0.0085 -0.0602
 1021DOPE   NH311971  10.974  23.587   9.932 -0.0462  0.2213 -0.1818
 1021DOPE   PO411972  10.633  23.668   9.975  0.2547 -0.0442 -0.0632
 1021DOPE   GL111973  10.711  23.607  10.422  0.4307 -0.0373  0.4791
 1021DOPE   GL211974  10.581  23.898  10.430  0.0574 -0.3171 -0.1442
 1021DOPE   C1A11975  10.636  23.225  10.682  0.1174 -0.1469 -0.2088
 1021DOPE   D2A11976  10.624  22.859  11.012 -0.2892  0.0481 -0.0144
 1021DOPE   C3A11977  10.284  22.534  10.995  0.1126 -0.1757  0.0818
 1021DOPE   C4A11978   9.838  22.607  10.919  0.2259  0.0580 -0.0481
 1021DOPE   C1B11979  10.506  24.016  10.954  0.0271 -0.0119  0.2972
 1021DOPE   D2B11980  10.376  24.374  11.261 -0.1840  0.2010  0.0256
 1021DOPE   C3B11981  10.274  24.304  11.692  0.0464  0.1047 -0.0076
 1021DOPE   C4B11982  10.225  24.206  12.133  0.0823 -0.0479 -0.0823
 1022DOPS   CNO11983   2.398  25.482  10.864 -0.0558  0.0293 -0.3846
 1022DOPS   PO411984   2.259  25.818  11.001 -0.2326  0.0098  0.0514
 1022DOPS   GL111985   2.247  26.154  11.263  0.1608  0.0195  0.0012
 1022DOPS   GL211986   2.365  26.346  11.089  0.0132 -0.2038 -0.0927
 1022DOPS   C1A11987   2.276  26.539  11.531  0.3233 -0.1331 -0.0755
 1022DOPS   D2A11988   2.015  26.766  11.894  0.1072  0.1267 -0.1975
 1022DOPS   C3A11989   2.153  27.197  12.052 -0.1981 -0.1146 -0.4748
 1022DOPS   C4A11990   2.434  27.509  12.239 -0.1257  0.1082 -0.1078
 1022DOPS   C1B11991   2.666  26.261  11.366 -0.0935 -0.1076 -0.0158
 1022DOPS   D2B11992   2.748  26.083  11.808  0.1240  0.0038 -0.2427
 1022DOPS   C3B11993   2.867  25.693  11.943 -0.1737 -0.3774 -0.0476
 1022DOPS   C4B11994   2.880  25.255  12.084 -0.2125 -0.1263  0.0350
 1023DOPE   NH311995   9.420  23.966  10.014 -0.1592 -0.2664 -0.2116
 1023DOPE   PO411996   9.578  23.754  10.219  0.0351  0.1663  0.0901
 1023DOPE   GL111997   9.622  23.451  10.559 -0.1499  0.2368  0.1046
 1023DOPE   GL211998   9.462  23.467  10.737 -0.3172 -0.0125  0.2830
 1023DOPE   C1A11999   9.791  23.701  10.956 -0.1801 -0.4091 -0.0655
 1023DOPE   D2A12000   9.929  23.497  11.313  0.3653  0.2196  0.1146
 1023DOPE   C3A12001   9.767  23.458  11.753  0.0780  0.0045 -0.0586
 1023DOPE   C4A12002   9.904  23.229  12.125  0.4048 -0.0262  0.0891
 1023DOPE   C1B12003   9.474  23.451  11.269 -0.1467 -0.2318 -0.0450
 1023DOPE   D2B12004   9.234  23.431  11.659 -0.0205 -0.0305 -0.1690
 1023DOPE   C3B12005   8.967  23.019  11.735  0.0758 -0.0095 -0.0547
 1023DOPE   C4B12006   8.748  22.631  11.617 -0.0127  0.0701  0.1966
 1024DOPE   NH312007  10.464  25.839  10.701 -0.2332 -0.0106  0.3202
 1024DOPE   PO412008  10.223  25.921  10.874 -0.1662  0.3363 -0.1912
 1024DOPE   GL112009  10.162  25.822  11.296  0.1832 -0.2671 -0.0427
 1024DOPE   GL212010  10.279  25.534  11.230  0.0571  0.0490 -0.2571
 1024DOPE   C1A12011  10.403  25.753  11.693 -0.1712  0.1881 -0.0721
 1024DOPE   D2A12012  10.324  25.552  12.108  0.2322 -0.3405  0.1299
 1024DOPE   C3A12013  10.548  25.343  12.412 -0.2193 -0.0138 -0.0022
 1024DOPE   C4A12014  10.714  24.892  12.636  0.0697  0.0934  0.3492
 1024DOPE   C1B12015  10.055  25.140  11.364 -0.1341  0.0458  0.0545
 1024DOPE   D2B12016  10.080  24.744  11.635 -0.0555 -0.0870 -0.0711
 1024DOPE   C3B12017  10.519  24.715  11.603 -0.1195  0.0448  0.3184
 1024DOPE   C4B12018  10.893  24.927  11.712 -0.2846  0.0471  0.2940
 1025DOPC   NC312019   9.329  25.554  10.941 -0.0998 -0.0187 -0.2366
 1025DOPC   PO412020   9.393  25.266  10.705  0.2189  0.0455  0.0431
 1025DOPC   GL112021   9.204  25.147  11.093 -0.1907  0.0155  0.0080
 1025DOPC   GL212022   9.284  24.870  11.058 -0.2104 -0.0012 -0.0955
 1025DOPC   C1A12023   9.495  24.969  11.483  0.3884  0.0979  0.0598
 1025DOPC   D2A12024   9.577  24.844  11.941 -0.0387 -0.0252 -0.0223
 1025DOPC   C3A12025   9.288  24.720  12.301  0.1420  0.1288  0.0056
 1025DOPC   C4A12026   8.980  24.715  12.629 -0.2897 -0.1201  0.0896
 1025DOPC   C1B12027   9.244  24.485  11.344  0.1348 -0.2050  0.1829
 1025DOPC   D2B12028   9.161  24.493  11.809  0.0527  0.0154 -0.1034
 1025DOPC   C3B12029   8.798  24.539  12.080  0.1900  0.3234 -0.0593
 1025DOPC   C4B12030   8.434  24.299  12.185 -0.3044 -0.2186  0.0464
 1026DOPC   NC312031   3.882  30.551  11.293  0.2706 -0.0708 -0.1686
 1026DOPC   PO412032   4.198  30.793  11.355  0.4460  0.2239  0.0267
 1026DOPC   GL112033   3.957  30.765  11.763  0.1192  0.0195  0.1699
 1026DOPC   GL212034   3.664  30.826  11.656  0.1045  0.2048 -0.0569
 1026DOPC   C1A12035   3.807  30.367  11.894  0.4605 -0.3315  0.0379
 1026DOPC   D2A12036   3.821  29.994  12.196 -0.0334 -0.1133  0.2488
 1026DOPC   C3A12037   3.738  30.095  12.649  0.0280  0.1016  0.0364
 1026DOPC   C4A12038   3.702  29.845  12.987  0.0062  0.0081  0.1558
 1026DOPC   C1B12039   3.420  30.692  12.006 -0.0833  0.2867 -0.2166
 1026DOPC   D2B12040   2.989  30.677  12.185  0.3193  0.1430  0.0479
 1026DOPC   C3B12041   2.890  30.328  12.480  0.0308 -0.0122  0.3752
 1026DOPC   C4B12042   2.789  30.241  12.944 -0.1252 -0.1649  0.1118
 1027DOPE   NH312043  34.051  30.987  10.394  0.5178 -0.1529 -0.0351
 1027DOPE   PO412044  34.281  31.018  10.661  0.0384  0.0449 -0.1585
 1027DOPE   GL112045  34.253  31.203  11.039 -0.2575 -0.2846  0.4442
 1027DOPE   GL212046  34.629  31.216  11.098 -0.2977 -0.0200 -0.1420
 1027DOPE   C1A12047  34.122  31.106  11.449 -0.0566  0.0944 -0.0290
 1027DOPE   D2A12048  34.014  31.155  11.926 -0.1837  0.3123 -0.0095
 1027DOPE   C3A12049  34.249  31.015  12.238  0.0519 -0.3014 -0.1395
 1027DOPE   C4A12050  34.462  30.669  12.494 -0.3090  0.2086  0.0509
 1027DOPE   C1B12051  34.463  31.478  11.452  0.1423  0.0441  0.1081
 1027DOPE   D2B12052  34.485  31.762  11.780  0.1379  0.1481 -0.3011
 1027DOPE   C3B12053  34.371  31.475  12.161  0.1220  0.2721 -0.2540
 1027DOPE   C4B12054  34.313  31.549  12.613  0.2970 -0.2040 -0.0387
 1028DOPE   NH312055  11.259  33.244  12.551  0.0048 -0.0942  0.0459
 1028DOPE   PO412056  11.544  33.109  12.559  0.2291 -0.0452  0.1990
 1028DOPE   GL112057  11.572  32.917  12.899  0.1393  0.1829  0.1708
 1028DOPE   GL212058  11.331  32.812  12.986  0.0866 -0.1294 -0.1293
 1028DOPE   C1A12059  11.786  32.932  13.284 -0.0620  0.0121 -0.2872
 1028DOPE   D2A12060  12.209  32.741  13.380 -0.1913 -0.0065 -0.0141
 1028DOPE   C3A12061  12.520  32.519  13.629 -0.0076 -0.0342 -0.0899
 1028DOPE   C4A12062  12.808  32.322  13.914 -0.0384  0.4586  0.2793
 1028DOPE   C1B12063  11.216  32.387  13.193 -0.2096  0.0679  0.0647
 1028DOPE   D2B12064  11.118  32.139  13.530  0.1251  0.0390 -0.0162
 1028DOPE   C3B12065  11.054  32.429  13.889  0.1012 -0.0083  0.0519
 1028DOPE   C4B12066  10.815  32.677  14.251 -0.1674  0.0183  0.2093
 1029DOPE   NH312067   6.818  28.460  11.998 -0.1398  0.2487 -0.0432
 1029DOPE   PO412068   6.674  28.727  12.077  0.1906 -0.1390 -0.0623
 1029DOPE   GL112069   6.387  28.743  12.441 -0.3443  0.1694  0.1831
 1029DOPE   GL212070   6.287  28.966  12.436  0.0378  0.3537 -0.0432
 1029DOPE   C1A12071   6.539  28.407  12.699  0.1519 -0.2835 -0.0189
 1029DOPE   D2A12072   6.573  28.001  12.751 -0.2306 -0.1203 -0.4716
 1029DOPE   C3A12073   6.615  27.977  13.188 -0.2904 -0.0994 -0.2386
 1029DOPE   C4A12074   6.444  27.814  13.583 -0.1823 -0.1476  0.1118
 1029DOPE   C1B12075   5.913  28.912  12.683  0.0606 -0.0067 -0.0327
 1029DOPE   D2B12076   5.624  28.844  13.023 -0.3258  0.1917  0.0447
 1029DOPE   C3B12077   5.346  29.035  13.360 -0.1999 -0.4465  0.0120
 1029DOPE   C4B12078   4.906  28.961  13.402 -0.1310  0.2351 -0.0773
 1030POSM   NC312079   2.753  31.545  10.105 -0.2489 -0.0485  0.0806
 1030POSM   PO412080   2.649  31.262  10.386 -0.1066  0.0565  0.0062
 1030POSM   AM112081   2.488  31.283  10.680  0.1057  0.3230 -0.2374
 1030POSM   AM212082   2.296  31.230  10.896  0.0536  0.0076 -0.3833
 1030POSM   T1A12083   2.634  31.449  11.139  0.0909 -0.1150  0.0777
 1030POSM   C2A12084   2.493  31.852  11.418 -0.2588  0.2030  0.2263
 1030POSM   C3A12085   2.263  32.216  11.622 -0.1117 -0.2047 -0.4385
 1030POSM   C1B12086   1.969  31.166  11.079  0.1343  0.1623  0.2034
 1030POSM   D2B12087   1.608  30.883  11.116  0.1393  0.0115  0.0393
 1030POSM   C3B12088   1.437  30.579  11.391 -0.1793  0.0118  0.1065
 1030POSM   C4B12089   1.262  30.259  11.725 -0.0660 -0.2244  0.1263
 1031DOPE   NH312090   4.700  30.567  11.269  0.1758  0.2065  0.1479
 1031DOPE   PO412091   4.768  30.775  11.503  0.1073  0.4783  0.0514
 1031DOPE   GL112092   4.611  30.869  11.741  0.2864  0.2454  0.1100
 1031DOPE   GL212093   4.494  31.131  11.753 -0.0298  0.0041  0.0729
 1031DOPE   C1A12094   4.374  30.615  12.046 -0.1174 -0.2566  0.0847
 1031DOPE   D2A12095   4.115  30.363  12.271  0.0789 -0.1422  0.3355
 1031DOPE   C3A12096   3.874  30.755  12.247  0.0693  0.0921 -0.0026
 1031DOPE   C4A12097   3.805  31.162  12.023  0.1602  0.1845 -0.1037
 1031DOPE   C1B12098   4.217  31.455  12.024 -0.0567  0.1516 -0.0455
 1031DOPE   D2B12099   3.998  31.478  12.407  0.3115  0.0084  0.0464
 1031DOPE   C3B12100   4.002  31.891  12.623 -0.0307  0.3627  0.1648
 1031DOPE   C4B12101   3.850  32.238  12.820 -0.1145 -0.1431 -0.1719
 1032POSM   NC312102   9.738  31.565  11.999 -0.0960  0.4188  0.0338
 1032POSM   PO412103   9.709  31.492  12.386  0.2155 -0.0397 -0.0673
 1032POSM   AM112104   9.710  31.312  12.622  0.2977  0.0921  0.2224
 1032POSM   AM212105   9.720  31.412  12.922 -0.1255 -0.1257  0.1506
 1032POSM   T1A12106   9.508  30.893  12.836 -0.1733  0.2875 -0.0648
 1032POSM   C2A12107   9.432  30.834  13.271  0.1064  0.2363 -0.5338
 1032POSM   C3A12108   9.274  30.877  13.696  0.2536  0.1178 -0.0733
 1032POSM   C1B12109   9.602  31.542  13.200 -0.0155  0.3082  0.0082
 1032POSM   D2B12110   9.577  31.680  13.620  0.2689 -0.0725 -0.3218
 1032POSM   C3B12111   9.711  31.721  14.045  0.2799 -0.0682  0.1599
 1032POSM   C4B12112   9.899  31.930  14.351  0.4061  0.2861  0.1183
 1033POSM   NC312113   2.292  24.980  10.812 -0.1683  0.0138  0.1508
 1033POSM   PO412114   2.579  24.994  10.551  0.0254 -0.0620 -0.1602
 1033POSM   AM112115   2.716  25.125  10.871 -0.1826  0.1576  0.0616
 1033POSM   AM212116   2.911  25.102  11.024  0.0579 -0.4256 -0.3483
 1033POSM   T1A12117   2.637  25.184  11.385  0.3419 -0.0799  0.0900
 1033POSM   C2A12118   2.483  25.331  11.760 -0.2362 -0.1027  0.1054
 1033POSM   C3A12119   2.082  25.476  11.901  0.0141 -0.1319 -0.1892
 1033POSM   C1B12120   3.001  24.874  11.273 -0.1320 -0.0883  0.2812
 1033POSM   D2B12121   3.055  24.878  11.786 -0.0758  0.3126 -0.2846
 1033POSM   C3B12122   2.759  24.684  12.062 -0.0529  0.1077  0.0648
 1033POSM   C4B12123   2.548  24.391  12.366 -0.0441  0.2449  0.2105
 1034DOPC   NC312124  10.090  32.231  12.356  0.3517  0.1496  0.2632
 1034DOPC   PO412125  10.451  32.128  12.267  0.0981  0.1843 -0.0224
 1034DOPC   GL112126  10.336  31.997  12.657 -0.0188  0.1262  0.3827
 1034DOPC   GL212127  10.097  31.841  12.689 -0.1211  0.1435  0.0674
 1034DOPC   C1A12128  10.264  32.271  13.089 -0.0432  0.2359  0.0666
 1034DOPC   D2A12129  10.009  32.223  13.489 -0.2442  0.2423  0.1761
 1034DOPC   C3A12130   9.997  31.757  13.388  0.1780 -0.1660 -0.2277
 1034DOPC   C4A12131  10.313  31.387  13.512  0.2768  0.2337 -0.0061
 1034DOPC   C1B12132   9.798  32.029  13.021 -0.0325 -0.0993 -0.2809
 1034DOPC   D2B12133   9.550  32.073  13.407  0.0702 -0.0232  0.1437
 1034DOPC   C3B12134   9.281  32.400  13.568 -0.0246 -0.4728 -0.0950
 1034DOPC   C4B12135   9.135  32.498  14.002  0.2404  0.1535 -0.1344
 1035DOPC   NC312136  10.988  30.029  11.992 -0.0158 -0.0891  0.1908
 1035DOPC   PO412137  11.032  30.250  12.307 -0.3486 -0.2850 -0.0039
 1035DOPC   GL112138  11.178  30.196  12.713  0.4239  0.0070  0.3602
 1035DOPC   GL212139  11.384  30.428  12.731  0.0252  0.3094  0.0737
 1035DOPC   C1A12140  10.994  30.186  13.173  0.0026 -0.0920  0.0704
 1035DOPC   D2A12141  10.789  30.304  13.679 -0.1087  0.1771  0.1997
 1035DOPC   C3A12142  10.829  29.971  13.964 -0.0748  0.0563  0.2046
 1035DOPC   C4A12143  10.843  29.556  14.185 -0.1966 -0.0199  0.0184
 1035DOPC   C1B12144  11.461  30.173  13.076  0.1071  0.0150 -0.1002
 1035DOPC   D2B12145  11.295  29.746  13.209 -0.2520 -0.3002  0.1545
 1035DOPC   C3B12146  10.929  29.766  13.473 -0.2285 -0.1234 -0.1043
 1035DOPC   C4B12147  10.683  29.581  13.723 -0.3434 -0.1350 -0.0884
 1036DOPC   NC312148   5.917  29.587  11.931 -0.1818 -0.0657 -0.1023
 1036DOPC   PO412149   5.835  29.230  11.871 -0.2513  0.0971 -0.0273
 1036DOPC   GL112150   5.822  28.922  12.152  0.0201 -0.0854 -0.1136
 1036DOPC   GL212151   5.949  28.633  12.163  0.0728 -0.3290  0.0734
 1036DOPC   C1A12152   5.505  28.877  12.425  0.0937  0.3180 -0.2923
 1036DOPC   D2A12153   5.058  28.858  12.441  0.2096 -0.1502 -0.1866
 1036DOPC   C3A12154   4.703  28.620  12.588 -0.1152 -0.1959  0.1368
 1036DOPC   C4A12155   4.440  28.316  12.751  0.2183  0.0126 -0.1739
 1036DOPC   C1B12156   5.939  28.428  12.616 -0.1466  0.2465  0.0289
 1036DOPC   D2B12157   6.091  28.571  13.053 -0.0119  0.0595 -0.2736
 1036DOPC   C3B12158   5.961  28.399  13.503  0.1918  0.0006 -0.0459
 1036DOPC   C4B12159   5.779  28.284  13.915  0.1071 -0.1013  0.0765
 1037DOPE   NH312160   6.312  22.144   9.837  0.0576  0.0150  0.1064
 1037DOPE   PO412161   6.066  22.185  10.029  0.0144  0.1297 -0.0391
 1037DOPE   GL112162   6.260  22.372  10.312 -0.2888  0.1679  0.2583
 1037DOPE   GL212163   5.980  22.448  10.513 -0.2687  0.2463  0.1362
 1037DOPE   C1A12164   6.712  22.547  10.460  0.4109  0.0858  0.0122
 1037DOPE   D2A12165   6.994  22.343  10.766 -0.2609  0.1116  0.0814
 1037DOPE   C3A12166   7.006  22.212  11.208  0.2132  0.1265  0.2120
 1037DOPE   C4A12167   6.899  22.250  11.635 -0.1378  0.1475 -0.2483
 1037DOPE   C1B12168   6.332  22.471  10.770 -0.2143  0.1530 -0.0212
 1037DOPE   D2B12169   6.427  22.793  10.976 -0.1817 -0.0245  0.0628
 1037DOPE   C3B12170   6.675  23.132  11.152 -0.0413  0.2209 -0.2580
 1037DOPE   C4B12171   7.058  23.346  11.260  0.1547 -0.1730  0.3457
 1038POSM   NC312172   5.948  21.636  10.127  0.1257 -0.0980  0.1135
 1038POSM   PO412173   6.295  21.536   9.976  0.1285 -0.1675 -0.1950
 1038POSM   AM112174   6.516  21.497  10.216  0.3013 -0.2651 -0.0551
 1038POSM   AM212175   6.752  21.575  10.328  0.0893 -0.1340 -0.1278
 1038POSM   T1A12176   6.590  21.150  10.557 -0.3231 -0.1970 -0.0799
 1038POSM   C2A12177   6.854  21.104  10.916  0.0101 -0.0593  0.0266
 1038POSM   C3A12178   6.938  20.799  11.242 -0.1491  0.3362  0.0118
 1038POSM   C1B12179   7.050  21.503  10.504 -0.0258  0.1654 -0.2036
 1038POSM   D2B12180   7.381  21.390  10.797  0.1278  0.2379  0.2996
 1038POSM   C3B12181   7.261  21.291  11.165 -0.0412 -0.1718  0.0078
 1038POSM   C4B12182   7.487  21.465  11.542  0.1553  0.0834  0.3100
 1039DOPE   NH312183   5.437  32.675  11.515  0.2639  0.0038 -0.1640
 1039DOPE   PO412184   5.224  32.820  11.614 -0.0667  0.1223 -0.0404
 1039DOPE   GL112185   5.093  32.616  11.853  0.1134 -0.2445 -0.0102
 1039DOPE   GL212186   4.985  32.804  12.073  0.3272 -0.0476  0.0278
 1039DOPE   C1A12187   4.736  32.372  12.035  0.3202 -0.0070  0.2806
 1039DOPE   D2A12188   4.434  32.184  12.321 -0.0115 -0.0051 -0.2450
 1039DOPE   C3A12189   4.353  32.364  12.761  0.0242 -0.1690  0.2331
 1039DOPE   C4A12190   4.572  32.678  13.062  0.0115  0.0838 -0.1011
 1039DOPE   C1B12191   4.949  32.567  12.505 -0.0447  0.0615  0.0372
 1039DOPE   D2B12192   4.916  32.238  12.842  0.0805 -0.2692 -0.3027
 1039DOPE   C3B12193   4.596  32.198  13.196 -0.2040  0.0873 -0.0422
 1039DOPE   C4B12194   4.720  32.315  13.640  0.0130  0.1183 -0.0148
 1040DOPC   NC312195  10.062  21.463   9.299 -0.2458  0.1493  0.1623
 1040DOPC   PO412196   9.918  21.470   9.669  0.3502  0.1098 -0.3408
 1040DOPC   GL112197   9.897  21.228   9.844 -0.2206 -0.1765  0.0228
 1040DOPC   GL212198  10.043  21.036   9.973 -0.0442  0.0050  0.0756
 1040DOPC   C1A12199   9.520  21.103  10.149  0.0155  0.1102  0.2833
 1040DOPC   D2A12200   9.274  21.088  10.584 -0.0702 -0.1784 -0.1701
 1040DOPC   C3A12201   9.344  21.246  10.984  0.2037  0.0963  0.0693
 1040DOPC   C4A12202   9.181  21.398  11.437  0.2160 -0.1831 -0.0950
 1040DOPC   C1B12203   9.892  20.909  10.406 -0.0958 -0.2840  0.0216
 1040DOPC   D2B12204   9.900  20.911  10.930  0.0012  0.3677  0.0654
 1040DOPC   C3B12205   9.866  20.720  11.302 -0.0227 -0.1633  0.0926
 1040DOPC   C4B12206   9.817  20.480  11.646 -0.0862  0.0274  0.1321
 1041POSM   NC312207   9.380  23.027  10.299 -0.1463 -0.3779  0.2946
 1041POSM   PO412208   9.037  23.124  10.123 -0.0320 -0.0271  0.1389
 1041POSM   AM112209   8.924  23.098  10.425 -0.4291 -0.0708 -0.3816
 1041POSM   AM212210   8.918  22.856  10.612  0.0995  0.2512  0.0090
 1041POSM   T1A12211   8.922  23.424  10.811 -0.1679 -0.0714  0.0534
 1041POSM   C2A12212   9.025  23.597  11.211  0.0507  0.0910 -0.2637
 1041POSM   C3A12213   8.886  23.977  11.457  0.1858  0.1339 -0.0476
 1041POSM   C1B12214   8.632  22.934  10.805 -0.0890  0.1488 -0.2286
 1041POSM   D2B12215   8.266  23.064  11.071 -0.5376 -0.1628  0.0575
 1041POSM   C3B12216   8.120  23.342  11.408  0.2598  0.0601 -0.0482
 1041POSM   C4B12217   7.999  23.505  11.844  0.1403 -0.0534 -0.2767
 1042DOPE   NH312218  10.876  29.420  12.149  0.1111  0.0476 -0.2777
 1042DOPE   PO412219  10.598  29.346  12.231  0.3071 -0.1927  0.0888
 1042DOPE   GL112220  10.662  29.033  12.584 -0.1326  0.1086 -0.1721
 1042DOPE   GL212221  10.670  28.768  12.477 -0.1483  0.0793 -0.1521
 1042DOPE   C1A12222  10.404  29.035  12.961  0.1791  0.1136 -0.1000
 1042DOPE   D2A12223  10.230  28.678  13.216 -0.2941 -0.0204 -0.0327
 1042DOPE   C3A12224  10.186  28.898  13.626  0.2036 -0.0355  0.0476
 1042DOPE   C4A12225  10.202  28.810  14.106  0.0872 -0.1847 -0.3010
 1042DOPE   C1B12226  10.476  28.452  12.807 -0.0621 -0.2034  0.0063
 1042DOPE   D2B12227  10.084  28.271  13.033  0.1734 -0.2555  0.2177
 1042DOPE   C3B12228  10.209  27.804  13.184 -0.0315  0.0575  0.2909
 1042DOPE   C4B12229  10.123  27.366  13.246 -0.1439 -0.0975 -0.0441
 1043DOPE   NH312230  33.770  27.955  10.229  0.0523  0.2242 -0.2988
 1043DOPE   PO412231  33.676  28.286  10.221  0.0823  0.0213  0.0495
 1043DOPE   GL112232  33.566  28.265  10.610 -0.0332 -0.2230 -0.0085
 1043DOPE   GL212233  33.406  28.512  10.701  0.1320 -0.0826 -0.1074
 1043DOPE   C1A12234  33.746  28.181  10.998 -0.1297  0.3963  0.1487
 1043DOPE   D2A12235  34.038  28.124  11.416  0.1036 -0.1913  0.1736
 1043DOPE   C3A12236  34.179  28.420  11.774  0.2679 -0.0809 -0.1003
 1043DOPE   C4A12237  34.465  28.687  12.028  0.1135 -0.0559 -0.3455
 1043DOPE   C1B12238  33.622  28.672  11.101 -0.1689 -0.2231 -0.0704
 1043DOPE   D2B12239  33.522  28.469  11.467  0.1150 -0.2479 -0.1403
 1043DOPE   C3B12240  33.655  28.567  11.870  0.3028 -0.0952 -0.1999
 1043DOPE   C4B12241  34.011  28.711  12.197  0.2443 -0.2489  0.1384
 1044DOPC   NC312242   5.063  29.409  11.207 -0.1727 -0.1763  0.3401
 1044DOPC   PO412243   5.164  29.716  11.445 -0.1250  0.0413  0.3912
 1044DOPC   GL112244   4.865  29.727  11.744  0.0905 -0.2823  0.4513
 1044DOPC   GL212245   4.867  29.602  11.956  0.2654  0.2452  0.3362
 1044DOPC   C1A12246   4.878  30.035  12.077  0.2043 -0.1978  0.0792
 1044DOPC   D2A12247   4.677  30.256  12.402  0.1193 -0.0280  0.2185
 1044DOPC   C3A12248   4.555  30.621  12.618 -0.3538 -0.0300 -0.0262
 1044DOPC   C4A12249   4.373  30.640  13.015 -0.1349 -0.0059 -0.1835
 1044DOPC   C1B12250   5.146  29.454  12.342  0.2058  0.0285 -0.0440
 1044DOPC   D2B12251   5.365  29.271  12.702 -0.4099  0.0099  0.1277
 1044DOPC   C3B12252   5.097  29.335  13.072 -0.0056 -0.2644 -0.2815
 1044DOPC   C4B12253   4.869  29.467  13.463  0.2212  0.1416 -0.3650
 1045DOPE   NH312254   1.971  30.692  10.801  0.1777  0.0866  0.1456
 1045DOPE   PO412255   2.071  30.444  10.657  0.3425  0.1159 -0.1275
 1045DOPE   GL112256   2.207  30.196  10.974  0.1232  0.0162  0.1039
 1045DOPE   GL212257   2.284  29.949  10.830  0.1753 -0.1879 -0.2181
 1045DOPE   C1A12258   2.169  29.935  11.375 -0.1365 -0.0630 -0.2367
 1045DOPE   D2A12259   2.458  29.561  11.556  0.1669  0.3357 -0.2004
 1045DOPE   C3A12260   2.560  29.284  11.946 -0.0487 -0.2018 -0.2034
 1045DOPE   C4A12261   2.757  29.408  12.419 -0.2710 -0.2824  0.4708
 1045DOPE   C1B12262   2.597  30.078  11.112  0.0862  0.1761  0.2106
 1045DOPE   D2B12263   2.627  30.088  11.575 -0.4022  0.1883  0.0074
 1045DOPE   C3B12264   2.732  29.910  12.022 -0.2248  0.0818 -0.0930
 1045DOPE   C4B12265   2.615  29.900  12.426 -0.3595 -0.2047 -0.1688
 1046POSM   NC312266   7.531  28.501  11.499  0.3167 -0.3259 -0.0290
 1046POSM   PO412267   7.878  28.669  11.649  0.0745 -0.4211 -0.1180
 1046POSM   AM112268   7.953  28.587  11.935  0.2226  0.0430 -0.1402
 1046POSM   AM212269   8.215  28.642  12.099 -0.2794 -0.1370 -0.1221
 1046POSM   T1A12270   7.883  28.300  12.344  0.0225  0.0407  0.0039
 1046POSM   C2A12271   7.985  28.372  12.772  0.3907  0.0009 -0.0061
 1046POSM   C3A12272   8.004  28.728  13.017  0.3324  0.3588 -0.3297
 1046POSM   C1B12273   8.297  28.671  12.473  0.1594  0.0717  0.0833
 1046POSM   D2B12274   8.515  28.693  12.897  0.1196  0.2724 -0.1923
 1046POSM   C3B12275   8.847  28.411  12.931 -0.1720  0.0270 -0.1106
 1046POSM   C4B12276   8.859  27.957  13.081  0.3835  0.0245  0.3167
 1047DOPC   NC312277  10.410  29.531  12.787  0.1912  0.1891 -0.2638
 1047DOPC   PO412278  10.256  29.668  12.435  0.0331  0.2890  0.2328
 1047DOPC   GL112279   9.957  29.802  12.751 -0.0064 -0.0990  0.1617
 1047DOPC   GL212280   9.712  29.888  12.640 -0.0527  0.0203  0.0686
 1047DOPC   C1A12281   9.881  30.015  13.160 -0.5006 -0.2237  0.1108
 1047DOPC   D2A12282   9.632  30.078  13.502 -0.0600 -0.0079 -0.2866
 1047DOPC   C3A12283  10.022  30.236  13.736  0.4550 -0.2621  0.0348
 1047DOPC   C4A12284  10.301  30.169  14.099  0.0657 -0.2120  0.2279
 1047DOPC   C1B12285   9.497  29.719  12.994 -0.1537  0.0977  0.1069
 1047DOPC   D2B12286   9.331  29.697  13.457  0.0284 -0.1572 -0.0896
 1047DOPC   C3B12287   9.553  29.720  13.818  0.1656  0.0114  0.2227
 1047DOPC   C4B12288   9.747  30.084  14.084  0.2129  0.0968 -0.1814
 1048POSM   NC312289   6.890  33.078  12.345 -0.2620  0.0253 -0.1709
 1048POSM   PO412290   7.042  33.416  12.510 -0.0881  0.1200  0.1139
 1048POSM   AM112291   7.073  33.184  12.744 -0.3048  0.3684 -0.1494
 1048POSM   AM212292   6.995  32.891  12.820  0.0590  0.1304 -0.3244
 1048POSM   T1A12293   7.427  32.955  13.057 -0.0816 -0.0563 -0.0614
 1048POSM   C2A12294   7.512  32.618  13.349  0.2831  0.0847  0.1798
 1048POSM   C3A12295   7.444  32.415  13.754 -0.1382 -0.1126  0.0182
 1048POSM   C1B12296   6.770  32.904  13.077  0.4680  0.1212  0.0923
 1048POSM   D2B12297   6.282  32.962  13.208 -0.1578 -0.1716 -0.2088
 1048POSM   C3B12298   6.108  32.851  13.637 -0.6079 -0.1129 -0.0041
 1048POSM   C4B12299   5.880  32.977  13.992  0.2604 -0.0810 -0.2379
 1049DOPE   NH312300   4.642  21.927   9.815  0.0187 -0.0333 -0.0026
 1049DOPE   PO412301   4.512  21.954  10.133  0.3002  0.3080 -0.0578
 1049DOPE   GL112302   4.306  22.030  10.485 -0.0329 -0.0649  0.4672
 1049DOPE   GL212303   4.318  21.800  10.678  0.1267 -0.0546 -0.1036
 1049DOPE   C1A12304   4.540  22.267  10.826 -0.3604 -0.0044  0.0036
 1049DOPE   D2A12305   4.738  22.605  11.112 -0.4066  0.3374  0.0613
 1049DOPE   C3A12306   4.748  22.583  11.541 -0.0525 -0.1693  0.4586
 1049DOPE   C4A12307   4.683  22.545  11.960 -0.0332 -0.0042  0.0786
 1049DOPE   C1B12308   4.040  21.708  11.015  0.2987 -0.3087 -0.1093
 1049DOPE   D2B12309   3.614  21.656  11.275 -0.0660  0.1115  0.0823
 1049DOPE   C3B12310   3.607  21.544  11.720 -0.2770  0.1185  0.1052
 1049DOPE   C4B12311   3.659  21.426  12.187  0.3482 -0.1301 -0.0403
 1050DOPC   NC312312   9.918  28.040  11.595  0.0413  0.1622 -0.3532
 1050DOPC   PO412313  10.305  28.032  11.478  0.1849  0.1519  0.0376
 1050DOPC   GL112314  10.419  27.965  11.851  0.1087  0.0252  0.0265
 1050DOPC   GL212315  10.294  28.162  11.972 -0.0799  0.0005  0.1661
 1050DOPC   C1A12316  10.450  27.662  12.186 -0.2861 -0.4302 -0.3581
 1050DOPC   D2A12317  10.805  27.605  12.477  0.1950  0.1598  0.1633
 1050DOPC   C3A12318  11.274  27.578  12.625  0.1723  0.1684 -0.2818
 1050DOPC   C4A12319  11.739  27.531  12.499  0.1842 -0.1866 -0.0358
 1050DOPC   C1B12320  10.298  28.095  12.443 -0.0376 -0.1780 -0.2463
 1050DOPC   D2B12321  10.495  27.942  12.851  0.1058  0.0372 -0.0774
 1050DOPC   C3B12322  10.508  27.478  12.867 -0.0031 -0.0303  0.1306
 1050DOPC   C4B12323  10.451  27.119  12.575 -0.0466  0.2212  0.0474
 1051DOPE   NH312324  12.845  23.008   9.795  0.0124  0.1231 -0.0957
 1051DOPE   PO412325  12.691  23.271   9.921  0.1821 -0.0913  0.0504
 1051DOPE   GL112326  12.471  23.083  10.218 -0.1471  0.0181  0.1453
 1051DOPE   GL212327  12.514  22.996  10.428 -0.0727  0.0555 -0.0646
 1051DOPE   C1A12328  12.169  23.351  10.392  0.2847  0.1548 -0.3588
 1051DOPE   D2A12329  12.194  23.724  10.564 -0.1856 -0.2429  0.0767
 1051DOPE   C3A12330  12.466  23.959  10.971 -0.2279  0.3686  0.2443
 1051DOPE   C4A12331  12.323  24.037  11.399 -0.1194 -0.0947  0.3648
 1051DOPE   C1B12332  12.304  23.090  10.865  0.1314  0.2039  0.1055
 1051DOPE   D2B12333  12.282  23.311  11.261 -0.3027  0.0246 -0.0478
 1051DOPE   C3B12334  12.670  23.553  11.254  0.3195 -0.1791 -0.4033
 1051DOPE   C4B12335  12.920  23.932  11.262  0.0855  0.1270  0.2256
 1052POSM   NC312336   2.879  26.916  10.288  0.1294  0.1744 -0.2417
 1052POSM   PO412337   2.579  27.033  10.503  0.1077 -0.0829 -0.0727
 1052POSM   AM112338   2.535  27.017  10.810 -0.4223 -0.1598 -0.1681
 1052POSM   AM212339   2.526  27.202  10.975  0.0164  0.1291 -0.0162
 1052POSM   T1A12340   2.664  26.778  11.177 -0.0058  0.4001  0.0526
 1052POSM   C2A12341   2.731  26.729  11.631 -0.0534 -0.1112  0.1288
 1052POSM   C3A12342   2.571  26.874  12.066 -0.2178  0.0624 -0.1503
 1052POSM   C1B12343   2.571  27.407  11.236  0.3494  0.1811  0.1124
 1052POSM   D2B12344   2.568  27.765  11.548  0.0440  0.2749 -0.0015
 1052POSM   C3B12345   2.802  27.929  11.853  0.1437  0.2755 -0.1030
 1052POSM   C4B12346   3.081  28.126  12.183  0.0184  0.0262  0.2917
 1053DOPC   NC312347   7.473  29.494  12.050  0.2781  0.1461  0.0109
 1053DOPC   PO412348   7.756  29.455  11.856  0.1485 -0.2113 -0.1682
 1053DOPC   GL112349   7.886  29.470  12.262  0.0359 -0.0307 -0.0803
 1053DOPC   GL212350   7.718  29.348  12.443  0.1203 -0.1091  0.1774
 1053DOPC   C1A12351   8.059  29.753  12.618  0.0498  0.1998  0.1809
 1053DOPC   D2A12352   8.344  30.039  12.895 -0.1553  0.0484 -0.0849
 1053DOPC   C3A12353   8.329  29.996  13.358  0.1021 -0.0011  0.2536
 1053DOPC   C4A12354   8.193  29.775  13.782 -0.1047  0.0275 -0.0143
 1053DOPC   C1B12355   7.737  29.433  12.903 -0.0985  0.1847  0.0843
 1053DOPC   D2B12356   7.452  29.538  13.245  0.3292  0.0433 -0.1695
 1053DOPC   C3B12357   7.525  29.733  13.651  0.1182 -0.0939 -0.1193
 1053DOPC   C4B12358   7.382  30.179  13.749  0.0413  0.2360 -0.1265
 1054POSM   NC312359   7.309  23.152  10.639 -0.1204  0.0767  0.2646
 1054POSM   PO412360   7.567  23.384  10.455  0.1694  0.0035  0.0181
 1054POSM   AM112361   7.817  23.330  10.714  0.1935 -0.0965 -0.2135
 1054POSM   AM212362   7.742  23.092  10.901  0.0799  0.1082 -0.1508
 1054POSM   T1A12363   7.991  23.709  11.009 -0.2526 -0.1674  0.0723
 1054POSM   C2A12364   8.015  23.884  11.436 -0.1784 -0.1577  0.0847
 1054POSM   C3A12365   7.670  23.973  11.784 -0.0296  0.0621  0.0406
 1054POSM   C1B12366   7.527  22.959  11.092 -0.1688  0.3661  0.1413
 1054POSM   D2B12367   7.284  22.909  11.502  0.0769 -0.0577 -0.0454
 1054POSM   C3B12368   7.441  23.033  11.946 -0.2412  0.1263 -0.1429
 1054POSM   C4B12369   7.447  22.848  12.367  0.2429  0.2482  0.1032
 1055POSM   NC312370   2.598  28.849   9.903  0.3594 -0.2517 -0.0772
 1055POSM   PO412371   2.237  28.785  10.107  0.1282  0.1356  0.4539
 1055POSM   AM112372   2.338  28.893  10.391  0.0405  0.1819  0.1575
 1055POSM   AM212373   2.339  29.090  10.559 -0.3802 -0.2803  0.0556
 1055POSM   T1A12374   2.183  28.757  10.872  0.0139 -0.0818 -0.0122
 1055POSM   C2A12375   1.936  28.426  11.073 -0.1259  0.1181 -0.0873
 1055POSM   C3A12376   2.051  28.065  10.838  0.0875 -0.2538  0.0767
 1055POSM   C1B12377   2.570  29.112  10.788 -0.2192 -0.3125  0.1903
 1055POSM   D2B12378   2.723  29.215  11.249  0.0763  0.0720  0.0964
 1055POSM   C3B12379   2.770  28.923  11.562  0.1463  0.0745 -0.1872
 1055POSM   C4B12380   2.455  28.681  11.851 -0.0493  0.0743 -0.1063
 1056DOPC   NC312381   5.894  25.462  10.218 -0.1362  0.0967  0.1449
 1056DOPC   PO412382   6.139  25.535  10.541 -0.0278 -0.3939 -0.1955
 1056DOPC   GL112383   6.269  25.689  10.946 -0.2671  0.1502  0.3414
 1056DOPC   GL212384   6.513  25.806  10.879 -0.0288  0.0436  0.1897
 1056DOPC   C1A12385   6.159  26.016  11.242  0.0556 -0.2078  0.0661
 1056DOPC   D2A12386   5.899  26.379  11.337  0.1437 -0.1566 -0.2048
 1056DOPC   C3A12387   5.886  26.657  11.734 -0.0710 -0.1224 -0.1536
 1056DOPC   C4A12388   5.557  26.770  12.063  0.0387  0.2216 -0.0971
 1056DOPC   C1B12389   6.599  25.494  11.160 -0.1028 -0.0627 -0.2858
 1056DOPC   D2B12390   6.705  25.073  11.318 -0.2088  0.1735  0.1158
 1056DOPC   C3B12391   6.785  24.934  11.775 -0.0594  0.0331  0.0940
 1056DOPC   C4B12392   6.964  25.073  12.170 -0.0041  0.0562  0.1938
 1057DOPE   NH312393   3.667  24.623  10.937  0.4747 -0.1897 -0.2475
 1057DOPE   PO412394   3.885  24.404  10.899 -0.2852  0.1759 -0.3369
 1057DOPE   GL112395   4.261  24.461  11.090  0.0088 -0.1193 -0.0689
 1057DOPE   GL212396   4.301  24.752  10.963 -0.3721 -0.2336  0.1081
 1057DOPE   C1A12397   4.385  24.526  11.513 -0.0869 -0.2519 -0.2257
 1057DOPE   D2A12398   4.340  24.722  11.855  0.0164 -0.1246  0.1708
 1057DOPE   C3A12399   4.676  24.948  12.060  0.2048  0.0519  0.0783
 1057DOPE   C4A12400   4.849  25.238  12.360 -0.0473  0.4533 -0.0659
 1057DOPE   C1B12401   4.504  25.047  11.245 -0.0747 -0.0588 -0.0536
 1057DOPE   D2B12402   4.835  24.969  11.557  0.0021  0.2066 -0.0234
 1057DOPE   C3B12403   5.206  25.144  11.773 -0.1524  0.3165  0.0339
 1057DOPE   C4B12404   5.455  25.369  12.083  0.1032 -0.0992 -0.0466
 1058POSM   NC312405   4.425   0.996  12.890  0.2555  0.0537  0.2708
 1058POSM   PO412406   4.451   0.632  12.994  0.4260 -0.2521 -0.0157
 1058POSM   AM112407   4.575   0.513  13.267 -0.2598 -0.1177  0.0197
 1058POSM   AM212408   4.439   0.383  13.458  0.2301  0.0450  0.2922
 1058POSM   T1A12409   4.884   0.463  13.687  0.1852  0.0130 -0.3251
 1058POSM   C2A12410   4.890   0.291  14.114  0.0498 -0.0238  0.1879
 1058POSM   C3A12411   5.205   0.203  14.461 -0.0317  0.1964 -0.1959
 1058POSM   C1B12412   4.259   0.329  13.766 -0.0670 -0.0932 -0.0900
 1058POSM   D2B12413   4.043   0.463  14.160  0.0662 -0.1925  0.0108
 1058POSM   C3B12414   3.937   0.077  14.408 -0.1713 -0.0040  0.1373
 1058POSM   C4B12415   3.738  -0.321  14.270  0.0999 -0.0849 -0.3483
 1059POSM   NC312416   4.585  25.611  10.489  0.0955 -0.0700 -0.1340
 1059POSM   PO412417   4.949  25.418  10.495 -0.2510 -0.0240  0.1519
 1059POSM   AM112418   5.018  25.554  10.801  0.3426  0.0921 -0.0743
 1059POSM   AM212419   4.845  25.480  11.058  0.1976  0.2293 -0.1589
 1059POSM   T1A12420   5.380  25.520  11.167  0.3487  0.0559 -0.0775
 1059POSM   C2A12421   5.595  25.321  11.507  0.0598  0.1950 -0.0478
 1059POSM   C3A12422   5.899  25.240  11.893 -0.1123  0.0027  0.0348
 1059POSM   C1B12423   4.988  25.411  11.406  0.1559  0.1404  0.2768
 1059POSM   D2B12424   5.266  25.651  11.678  0.0381 -0.2422 -0.0192
 1059POSM   C3B12425   5.236  25.832  12.059 -0.2056 -0.1254  0.2819
 1059POSM   C4B12426   4.995  25.737  12.446 -0.0959  0.1168  0.2059
 1060DOPS   CNO12427   8.752  29.743  11.870  0.2187 -0.1353  0.1277
 1060DOPS   PO412428   8.837  29.992  12.167  0.1242 -0.0446  0.1049
 1060DOPS   GL112429   8.814  29.696  12.390  0.6719 -0.1433 -0.0360
 1060DOPS   GL212430   8.582  29.684  12.534  0.2423  0.2408  0.1560
 1060DOPS   C1A12431   8.996  29.485  12.817  0.0002  0.2799 -0.4635
 1060DOPS   D2A12432   9.172  29.313  13.167 -0.0966  0.0792 -0.4522
 1060DOPS   C3A12433   9.061  29.325  13.615  0.1547 -0.0326  0.1783
 1060DOPS   C4A12434   9.100  29.564  13.972 -0.2494 -0.0144 -0.1589
 1060DOPS   C1B12435   8.505  29.617  13.032 -0.1570 -0.0227  0.1557
 1060DOPS   D2B12436   8.656  29.293  13.320 -0.0723  0.0728  0.2566
 1060DOPS   C3B12437   8.530  29.227  13.760 -0.0006  0.0250 -0.2178
 1060DOPS   C4B12438   8.306  29.374  14.145  0.0801 -0.3853 -0.0293
 1061DOPC   NC312439   5.002  31.197  11.732 -0.0325  0.2136  0.0405
 1061DOPC   PO412440   4.913  31.513  11.592  0.1163 -0.0179  0.0966
 1061DOPC   GL112441   4.675  31.465  11.966  0.4590 -0.5268  0.0194
 1061DOPC   GL212442   4.965  31.533  12.141  0.1872  0.0108 -0.0927
 1061DOPC   C1A12443   4.516  31.681  12.354  0.2753  0.0075 -0.0793
 1061DOPC   D2A12444   4.529  31.918  12.744  0.1493  0.0321 -0.1214
 1061DOPC   C3A12445   4.195  32.003  13.088 -0.0503  0.2772  0.1060
 1061DOPC   C4A12446   4.258  31.932  13.578 -0.1275 -0.1012  0.0057
 1061DOPC   C1B12447   4.882  31.459  12.621 -0.2293  0.0715  0.1208
 1061DOPC   D2B12448   4.501  31.329  12.728 -0.1483 -0.0771 -0.2757
 1061DOPC   C3B12449   4.531  31.091  13.112  0.1543 -0.1360  0.0527
 1061DOPC   C4B12450   4.598  31.218  13.521 -0.0132 -0.3118  0.3561
 1062POSM   NC312451   1.828  29.139  10.615  0.2104 -0.0800  0.1402
 1062POSM   PO412452   1.991  29.462  10.549  0.1920  0.1238  0.3651
 1062POSM   AM112453   2.000  29.608  10.841  0.1754  0.2015  0.1988
 1062POSM   AM212454   1.901  29.516  11.043 -0.1270  0.0936 -0.3306
 1062POSM   T1A12455   1.781  29.987  11.080 -0.0826  0.3609  0.0702
 1062POSM   C2A12456   1.858  30.426  11.281  0.1005 -0.6243 -0.0111
 1062POSM   C3A12457   1.955  30.815  11.485  0.0620 -0.4358  0.2489
 1062POSM   C1B12458   1.847  29.526  11.387  0.4434  0.4652 -0.4521
 1062POSM   D2B12459   2.004  29.530  11.746 -0.0621  0.1107  0.1820
 1062POSM   C3B12460   1.623  29.388  11.995 -0.1231 -0.1869  0.0558
 1062POSM   C4B12461   1.161  29.286  12.044  0.0144  0.2320  0.3518
 1063DOPE   NH312462   7.592  26.184  10.648 -0.0980 -0.7131 -0.0253
 1063DOPE   PO412463   7.342  26.367  10.765  0.0767  0.1924  0.2653
 1063DOPE   GL112464   7.334  26.368  11.221  0.0584  0.0377  0.3737
 1063DOPE   GL212465   7.200  26.127  11.423  0.1071 -0.1198 -0.3473
 1063DOPE   C1A12466   7.662  26.147  11.529 -0.4501  0.1581  0.0120
 1063DOPE   D2A12467   8.025  26.080  11.746  0.0869 -0.4357 -0.0460
 1063DOPE   C3A12468   7.858  25.817  12.087 -0.1077 -0.2220  0.0176
 1063DOPE   C4A12469   8.157  25.479  12.338 -0.2350 -0.2610 -0.0374
 1063DOPE   C1B12470   7.040  25.686  11.356  0.1069 -0.1940  0.0860
 1063DOPE   D2B12471   7.142  25.339  11.601  0.0286  0.1913 -0.2168
 1063DOPE   C3B12472   7.352  25.034  11.918 -0.0978  0.0938  0.0191
 1063DOPE   C4B12473   7.766  24.896  12.076 -0.1299  0.0827 -0.2658
 1064POSM   NC312474   0.411  31.185  10.232 -0.0040  0.2552 -0.1882
 1064POSM   PO412475   0.493  31.490  10.379 -0.0423  0.1539  0.0265
 1064POSM   AM112476   0.443  31.502  10.712  0.2405  0.0778 -0.4378
 1064POSM   AM212477   0.607  31.387  10.939 -0.1928  0.1703  0.0007
 1064POSM   T1A12478   0.244  31.747  11.117 -0.2438  0.0940  0.0340
 1064POSM   C2A12479   0.374  31.970  11.508 -0.1699  0.1232 -0.1164
 1064POSM   C3A12480   0.211  32.212  11.892  0.0114  0.1030  0.2077
 1064POSM   C1B12481   0.927  31.291  11.007  0.0655 -0.0285 -0.0359
 1064POSM   D2B12482   1.200  31.167  11.307  0.2960  0.2497 -0.1379
 1064POSM   C3B12483   1.014  30.832  11.519  0.1026 -0.1810  0.1490
 1064POSM   C4B12484   1.070  30.707  11.918  0.1025 -0.4891 -0.1688
 1065POSM   NC312485   6.559  30.092  11.823 -0.0312 -0.0515  0.0687
 1065POSM   PO412486   6.184  29.980  11.816  0.0685  0.0316 -0.1276
 1065POSM   AM112487   6.224  29.855  12.110 -0.4862 -0.3547 -0.0458
 1065POSM   AM212488   6.052  29.874  12.334 -0.0921 -0.1856 -0.1474
 1065POSM   T1A12489   6.501  29.942  12.537 -0.1872  0.1264  0.0452
 1065POSM   C2A12490   6.567  29.906  12.962  0.1997  0.0512 -0.2995
 1065POSM   C3A12491   6.376  29.651  13.299 -0.1794 -0.0739  0.0410
 1065POSM   C1B12492   5.926  30.192  12.475 -0.1015  0.2172 -0.0583
 1065POSM   D2B12493   5.502  30.472  12.571  0.0154 -0.2415  0.0725
 1065POSM   C3B12494   5.341  30.785  12.898  0.0635 -0.1016 -0.2318
 1065POSM   C4B12495   5.463  30.880  13.330 -0.1113  0.3007  0.0206
 1066POSM   NC312496   3.808  31.351  10.969  0.1256 -0.4525 -0.2986
 1066POSM   PO412497   3.787  30.978  11.130 -0.0939  0.2505 -0.1386
 1066POSM   AM112498   3.502  31.132  11.262 -0.2427 -0.0528  0.2405
 1066POSM   AM212499   3.504  31.306  11.481 -0.0539 -0.0316 -0.2516
 1066POSM   T1A12500   3.027  31.207  11.329 -0.0917  0.0689  0.4017
 1066POSM   C2A12501   2.669  31.250  11.604 -0.0583 -0.1307 -0.0076
 1066POSM   C3A12502   2.521  31.564  11.932  0.3409 -0.3067 -0.2121
 1066POSM   C1B12503   3.306  31.341  11.740 -0.2063  0.1449 -0.3101
 1066POSM   D2B12504   3.320  31.231  12.151  0.1274  0.2674 -0.2139
 1066POSM   C3B12505   3.118  31.010  12.516  0.1200  0.3549 -0.2093
 1066POSM   C4B12506   3.143  30.745  12.859 -0.1178 -0.0218  0.1118
 1067DOPS   CNO12507   9.623  26.231  11.420  0.2404 -0.0549 -0.1955
 1067DOPS   PO412508   9.709  26.579  11.428 -0.3097 -0.2513  0.1668
 1067DOPS   GL112509   9.938  26.366  11.713  0.3527 -0.3109  0.3883
 1067DOPS   GL212510  10.033  26.074  11.620 -0.0822 -0.0184  0.1211
 1067DOPS   C1A12511   9.841  26.372  12.153 -0.0234  0.1156 -0.3852
 1067DOPS   D2A12512   9.689  26.513  12.547 -0.0576 -0.2309  0.0307
 1067DOPS   C3A12513   9.437  26.384  12.966  0.1741  0.3584  0.2827
 1067DOPS   C4A12514   9.632  26.252  13.414 -0.1677 -0.2265 -0.3712
 1067DOPS   C1B12515  10.153  25.969  12.037 -0.0393  0.2918 -0.2357
 1067DOPS   D2B12516  10.029  25.848  12.430  0.2316 -0.1559  0.2654
 1067DOPS   C3B12517   9.740  25.586  12.204  0.3132 -0.0501 -0.0352
 1067DOPS   C4B12518   9.499  25.159  12.297  0.0453  0.0177 -0.0544
 1068POSM   NC312519   7.691  23.844  10.210  0.1602  0.3345  0.0474
 1068POSM   PO412520   7.923  24.117  10.190  0.1539  0.2021 -0.0640
 1068POSM   AM112521   8.047  24.175  10.497 -0.0915  0.2661  0.0012
 1068POSM   AM212522   8.267  24.286  10.607  0.2670 -0.2528 -0.1500
 1068POSM   T1A12523   7.994  24.228  11.024  0.1461  0.1519 -0.0738
 1068POSM   C2A12524   7.610  24.128  11.243 -0.0085  0.0025  0.0624
 1068POSM   C3A12525   7.224  23.946  11.436 -0.0416 -0.0075  0.2410
 1068POSM   C1B12526   8.418  24.113  10.876 -0.2134  0.2992  0.1007
 1068POSM   D2B12527   8.525  23.757  11.147 -0.1192  0.1590  0.0527
 1068POSM   C3B12528   8.433  23.597  11.593  0.4340  0.0672 -0.2671
 1068POSM   C4B12529   8.740  23.482  11.915  0.0530 -0.0431  0.1042
 1069DOPE   NH312530  10.063  26.278  11.126  0.0699  0.2285  0.0371
 1069DOPE   PO412531  10.351  26.366  11.029  0.2037 -0.0683  0.0929
 1069DOPE   GL112532  10.443  26.187  11.419 -0.3697  0.0494 -0.1057
 1069DOPE   GL212533  10.587  25.956  11.282  0.1413  0.1383 -0.2122
 1069DOPE   C1A12534  10.428  26.341  11.872  0.2585 -0.1769 -0.1614
 1069DOPE   D2A12535  10.669  26.059  12.142  0.2527 -0.2236  0.0777
 1069DOPE   C3A12536  10.558  26.192  12.554 -0.0836  0.0321  0.0836
 1069DOPE   C4A12537  10.458  26.247  13.045  0.0974  0.0068  0.3414
 1069DOPE   C1B12538  10.847  26.005  11.668  0.0665  0.3022  0.1750
 1069DOPE   D2B12539  11.180  26.163  11.962 -0.2501 -0.3863 -0.0082
 1069DOPE   C3B12540  11.608  26.104  12.119  0.0190 -0.1277 -0.0618
 1069DOPE   C4B12541  11.751  26.133  12.525 -0.1364 -0.3034  0.3954
 1070DOPE   NH312542  10.971   0.011  13.153  0.0433 -0.0568  0.3096
 1070DOPE   PO412543  10.860  -0.274  12.978 -0.1936  0.3241 -0.0875
 1070DOPE   GL112544  11.049  -0.405  13.232 -0.1993 -0.1354 -0.2884
 1070DOPE   GL212545  11.205  -0.271  13.437  0.0484 -0.1517 -0.1077
 1070DOPE   C1A12546  11.173  -0.848  13.328  0.0098  0.1275 -0.0505
 1070DOPE   D2A12547  11.382  -1.126  13.660  0.2297 -0.1607 -0.0328
 1070DOPE   C3A12548  11.490  -1.150  14.135  0.0056  0.3959  0.3461
 1070DOPE   C4A12549  11.674  -1.267  14.608  0.0015 -0.2926  0.0649
 1070DOPE   C1B12550  11.100  -0.593  13.780  0.2096 -0.0505 -0.0505
 1070DOPE   D2B12551  11.014  -0.970  13.921  0.0663  0.2899 -0.1972
 1070DOPE   C3B12552  10.883  -1.331  13.660 -0.1095  0.0274  0.2065
 1070DOPE   C4B12553  10.691  -1.793  13.689  0.2690  0.0309 -0.2485
 1071DOPE   NH312554   5.828  30.336  11.895 -0.1255 -0.1959  0.1908
 1071DOPE   PO412555   5.569  30.535  11.911 -0.2142  0.2652 -0.3392
 1071DOPE   GL112556   5.426  30.257  12.166  0.2573  0.0261  0.1226
 1071DOPE   GL212557   5.529  29.993  12.120 -0.0608  0.0857  0.0834
 1071DOPE   C1A12558   5.182  30.066  12.507 -0.1365 -0.0098  0.0377
 1071DOPE   D2A12559   5.036  29.762  12.802 -0.1052  0.1605 -0.0999
 1071DOPE   C3A12560   5.035  29.874  13.260  0.1427  0.2462  0.4328
 1071DOPE   C4A12561   4.929  30.061  13.647 -0.0743  0.0715 -0.2182
 1071DOPE   C1B12562   5.591  29.787  12.580 -0.0617 -0.0118  0.0143
 1071DOPE   D2B12563   5.453  29.753  13.087  0.3690 -0.3939  0.2563
 1071DOPE   C3B12564   5.876  29.808  13.381  0.0494  0.0613  0.4748
 1071DOPE   C4B12565   6.096  29.412  13.616  0.2722 -0.2539  0.0374
 1072DOPE   NH312566   0.963  26.387  10.600 -0.3186  0.0351 -0.0608
 1072DOPE   PO412567   1.246  26.512  10.459 -0.1277 -0.3285 -0.0332
 1072DOPE   GL112568   1.296  26.660  10.815  0.1120  0.0629 -0.0800
 1072DOPE   GL212569   1.279  26.432  11.008  0.0925 -0.2317  0.0070
 1072DOPE   C1A12570   1.092  26.949  11.134 -0.3608 -0.1108 -0.1459
 1072DOPE   D2A12571   1.165  27.041  11.600 -0.0698 -0.2818 -0.1171
 1072DOPE   C3A12572   1.128  27.404  11.813  0.1320  0.2861 -0.1145
 1072DOPE   C4A12573   1.032  27.825  11.955  0.0332  0.0760  0.4231
 1072DOPE   C1B12574   1.493  26.244  11.331 -0.0012 -0.1935  0.0451
 1072DOPE   D2B12575   1.895  26.260  11.507  0.2776  0.0835 -0.0563
 1072DOPE   C3B12576   1.676  26.388  11.833  0.2024  0.1033  0.0537
 1072DOPE   C4B12577   1.806  26.374  12.275 -0.0869 -0.0792  0.3139
 1073POSM   NC312578   2.011  26.668  10.299  0.0585  0.2145 -0.0899
 1073POSM   PO412579   2.265  26.621  10.538  0.0238 -0.0137  0.0134
 1073POSM   AM112580   2.171  26.688  10.826 -0.0368 -0.0250  0.0306
 1073POSM   AM212581   2.222  26.805  11.097 -0.0879 -0.1733 -0.4396
 1073POSM   T1A12582   1.750  26.715  11.159  0.1756  0.3965  0.0870
 1073POSM   C2A12583   1.568  26.743  11.555 -0.0571  0.1755  0.1359
 1073POSM   C3A12584   1.516  26.810  12.030 -0.0249  0.3098 -0.1450
 1073POSM   C1B12585   2.241  27.008  11.380  0.1533 -0.2062 -0.0724
 1073POSM   D2B12586   2.423  27.313  11.715 -0.1019  0.2042  0.1075
 1073POSM   C3B12587   2.789  27.448  11.892  0.0600 -0.4658  0.0842
 1073POSM   C4B12588   3.195  27.582  12.122 -0.1440 -0.0424 -0.2177
 1074DOPC   NC312589  11.533  30.007  12.454  0.0849  0.1683 -0.3209
 1074DOPC   PO412590  11.880  29.982  12.287 -0.2946 -0.1253 -0.0367
 1074DOPC   GL112591  11.993  29.912  12.645 -0.1710  0.0115  0.0599
 1074DOPC   GL212592  11.897  30.239  12.745  0.1280  0.0685 -0.0135
 1074DOPC   C1A12593  11.932  29.900  13.116  0.2090 -0.0962 -0.0357
 1074DOPC   D2A12594  11.666  29.990  13.510  0.4322 -0.3517  0.0686
 1074DOPC   C3A12595  11.320  30.205  13.672 -0.1207  0.0604 -0.3164
 1074DOPC   C4A12596  11.106  30.385  14.005  0.2723  0.0653  0.1366
 1074DOPC   C1B12597  12.030  30.501  13.095  0.0085  0.0610  0.0690
 1074DOPC   D2B12598  12.402  30.653  13.210  0.1755  0.4919 -0.0290
 1074DOPC   C3B12599  12.573  30.822  13.629 -0.0075 -0.0328 -0.1095
 1074DOPC   C4B12600  12.836  30.561  13.952  0.1757 -0.0659  0.1051
 1075DOPC   NC312601   7.209  32.216  12.072 -0.2614 -0.0572  0.0463
 1075DOPC   PO412602   7.178  31.890  12.275  0.1017  0.0605 -0.1905
 1075DOPC   GL112603   7.000  31.685  12.648  0.2867 -0.2004 -0.5032
 1075DOPC   GL212604   7.039  31.366  12.583 -0.2649  0.0140 -0.1922
 1075DOPC   C1A12605   6.910  31.839  13.083 -0.0053 -0.4142 -0.0643
 1075DOPC   D2A12606   6.718  31.945  13.498  0.5056  0.0054  0.0463
 1075DOPC   C3A12607   6.392  32.159  13.765 -0.0104  0.2134 -0.1536
 1075DOPC   C4A12608   6.083  32.425  13.947 -0.1608  0.0117  0.0423
 1075DOPC   C1B12609   6.988  31.256  12.988 -0.0674 -0.0991 -0.1886
 1075DOPC   D2B12610   6.960  31.440  13.379 -0.0612 -0.4878 -0.1733
 1075DOPC   C3B12611   7.267  31.514  13.708  0.0829 -0.0630  0.2785
 1075DOPC   C4B12612   7.472  31.415  14.071 -0.1742 -0.1377 -0.0742
 1076POSM   NC312613   3.307  28.172  10.323  0.1620 -0.1541  0.2762
 1076POSM   PO412614   3.213  28.505  10.199 -0.1084 -0.2909 -0.1739
 1076POSM   AM112615   3.036  28.701  10.388 -0.0436 -0.2000  0.0426
 1076POSM   AM212616   2.776  28.802  10.394 -0.2264 -0.2750  0.2075
 1076POSM   T1A12617   2.975  28.848  10.880  0.2438  0.4476  0.0677
 1076POSM   C2A12618   2.632  28.666  11.162 -0.1105  0.1695  0.0893
 1076POSM   C3A12619   2.284  28.647  11.390 -0.1183  0.1344  0.1130
 1076POSM   C1B12620   2.639  28.539  10.613 -0.0737 -0.2488  0.1158
 1076POSM   D2B12621   2.565  28.217  10.968 -0.2938 -0.2812 -0.2615
 1076POSM   C3B12622   2.897  28.072  11.211 -0.2779  0.2349 -0.0541
 1076POSM   C4B12623   3.110  27.756  11.516  0.0836  0.1834  0.1041
 1077POSM   NC312624  11.645  29.625  12.090 -0.1182 -0.3052  0.0923
 1077POSM   PO412625  11.268  29.673  12.171  0.0619 -0.0962 -0.1499
 1077POSM   AM112626  11.159  29.610  12.484 -0.0916  0.1218  0.1262
 1077POSM   AM212627  11.024  29.400  12.652 -0.1421  0.0199  0.2033
 1077POSM   T1A12628  10.911  29.825  12.882  0.0198  0.1469 -0.1422
 1077POSM   C2A12629  10.570  29.951  13.214  0.3044  0.3152 -0.0756
 1077POSM   C3A12630  10.391  29.957  13.619 -0.0838  0.2566  0.1234
 1077POSM   C1B12631  10.928  29.208  12.931  0.2975  0.1272  0.2440
 1077POSM   D2B12632  10.713  29.222  13.350  0.0837  0.1288 -0.2570
 1077POSM   C3B12633  10.284  29.343  13.537  0.0652 -0.0558 -0.2141
 1077POSM   C4B12634   9.926  29.307  13.868 -0.4359 -0.1817  0.0392
 1078DOPS   CNO12635   8.587  26.568  10.883 -0.3903  0.2429 -0.1028
 1078DOPS   PO412636   8.696  26.630  11.251 -0.2044 -0.1762  0.2201
 1078DOPS   GL112637   8.773  26.414  11.601 -0.0492  0.1694 -0.2018
 1078DOPS   GL212638   8.748  26.623  11.798 -0.2231 -0.2050 -0.3705
 1078DOPS   C1A12639   8.554  25.997  11.696 -0.1001 -0.2016 -0.1428
 1078DOPS   D2A12640   8.314  25.745  11.959 -0.0733 -0.0238 -0.1167
 1078DOPS   C3A12641   8.205  25.344  11.680 -0.0841  0.0099 -0.0514
 1078DOPS   C4A12642   7.996  24.953  11.558  0.1282 -0.0138 -0.0534
 1078DOPS   C1B12643   8.556  26.871  12.076 -0.1769  0.0933  0.4501
 1078DOPS   D2B12644   8.352  27.145  12.448  0.0614  0.1548 -0.1161
 1078DOPS   C3B12645   8.344  27.172  12.942 -0.3426 -0.4623 -0.0659
 1078DOPS   C4B12646   8.317  27.055  13.402  0.3876  0.2473  0.0828
 1079DOPE   NH312647   8.785  31.472  12.210  0.1416 -0.1936  0.1278
 1079DOPE   PO412648   8.719  31.746  12.331 -0.1810 -0.1247 -0.0029
 1079DOPE   GL112649   8.781  31.529  12.684  0.4049  0.1604 -0.1296
 1079DOPE   GL212650   8.814  31.791  12.849 -0.1271  0.2458  0.0250
 1079DOPE   C1A12651   8.519  31.345  13.072  0.1970  0.2751 -0.0434
 1079DOPE   D2A12652   8.307  31.006  13.332 -0.2264  0.2467 -0.1069
 1079DOPE   C3A12653   8.331  30.731  13.636  0.1985  0.0714  0.1475
 1079DOPE   C4A12654   8.156  30.630  14.074 -0.1062 -0.3495 -0.1528
 1079DOPE   C1B12655   8.673  31.799  13.298  0.1130  0.1004 -0.1485
 1079DOPE   D2B12656   8.608  31.794  13.782 -0.3695  0.0921 -0.1103
 1079DOPE   C3B12657   8.718  31.575  14.196 -0.0128 -0.3184  0.0919
 1079DOPE   C4B12658   8.902  31.316  14.503  0.1553  0.1549  0.1966
 1080DOPC   NC312659   8.653  26.081  11.228 -0.0993 -0.0548 -0.0422
 1080DOPC   PO412660   8.298  26.199  11.098  0.0569 -0.1136  0.3905
 1080DOPC   GL112661   8.136  26.347  11.366  0.1693  0.2403 -0.0501
 1080DOPC   GL212662   8.299  26.434  11.550  0.4740 -0.0935 -0.1603
 1080DOPC   C1A12663   7.887  26.572  11.693 -0.2228 -0.1787 -0.0702
 1080DOPC   D2A12664   7.788  26.484  12.144 -0.2857 -0.0743  0.0079
 1080DOPC   C3A12665   7.990  26.209  12.392  0.0236 -0.0703  0.0177
 1080DOPC   C4A12666   8.139  25.847  12.633  0.1289 -0.0030  0.3807
 1080DOPC   C1B12667   8.348  26.382  12.046  0.1912  0.0492  0.1400
 1080DOPC   D2B12668   8.494  26.104  12.296  0.0600 -0.1308 -0.0768
 1080DOPC   C3B12669   8.634  25.846  12.648  0.2291  0.0203 -0.4092
 1080DOPC   C4B12670   8.682  25.819  13.133 -0.1539  0.1812  0.0688
 1081DOPC   NC312671   5.231  30.090  11.753 -0.3720  0.0067  0.1971
 1081DOPC   PO412672   5.131  30.404  11.576 -0.2701 -0.1554 -0.2092
 1081DOPC   GL112673   5.089  30.755  11.925 -0.0036 -0.0144 -0.2343
 1081DOPC   GL212674   4.920  30.551  12.052  0.1440 -0.0625 -0.0290
 1081DOPC   C1A12675   4.829  31.016  12.198  0.0812  0.0502  0.1617
 1081DOPC   D2A12676   4.387  31.043  12.302  0.1219  0.0566  0.1485
 1081DOPC   C3A12677   4.061  30.938  12.616  0.2638 -0.0291  0.4760
 1081DOPC   C4A12678   3.682  31.113  12.639 -0.2315 -0.0336  0.1120
 1081DOPC   C1B12679   5.050  30.618  12.463 -0.0886 -0.0161 -0.1925
 1081DOPC   D2B12680   4.960  30.437  12.858  0.1619  0.0726 -0.1981
 1081DOPC   C3B12681   5.352  30.264  13.044 -0.0915  0.4405 -0.1575
 1081DOPC   C4B12682   5.469  30.082  13.483 -0.1812  0.0198  0.1597
 1082DOPC   NC312683   2.226  32.079  10.495 -0.1166  0.0831  0.2889
 1082DOPC   PO412684   2.319  31.674  10.454  0.0770 -0.1196  0.0167
 1082DOPC   GL112685   2.326  31.677  10.792  0.1187  0.0502 -0.0347
 1082DOPC   GL212686   2.045  31.689  10.916 -0.0619  0.0747 -0.0145
 1082DOPC   C1A12687   2.315  32.086  11.045  0.1438 -0.0925  0.3001
 1082DOPC   D2A12688   2.384  32.473  11.229 -0.0320  0.3715 -0.2280
 1082DOPC   C3A12689   2.346  32.751  11.573  0.3543  0.0699 -0.4184
 1082DOPC   C4A12690   2.302  32.568  11.979  0.2954  0.1263  0.0126
 1082DOPC   C1B12691   1.874  31.805  11.328 -0.1967 -0.1317  0.1277
 1082DOPC   D2B12692   1.734  31.962  11.685  0.0271 -0.0105 -0.1070
 1082DOPC   C3B12693   1.708  31.793  12.098  0.1135  0.2370  0.2461
 1082DOPC   C4B12694   1.835  31.841  12.526  0.0230  0.0652 -0.2212
 1083DOPE   NH312695   7.568  24.619  10.563  0.1328 -0.0313  0.1595
 1083DOPE   PO412696   7.875  24.611  10.567 -0.1530 -0.1978  0.0762
 1083DOPE   GL112697   8.115  24.706  10.914 -0.3281 -0.3130  0.1019
 1083DOPE   GL212698   8.419  24.735  10.797 -0.1883 -0.2396 -0.2912
 1083DOPE   C1A12699   8.337  24.556  11.273 -0.4207  0.3606 -0.1063
 1083DOPE   D2A12700   8.430  24.124  11.533  0.2709  0.2249 -0.0028
 1083DOPE   C3A12701   8.183  23.963  11.882 -0.1782 -0.1654 -0.1876
 1083DOPE   C4A12702   7.932  23.849  12.237 -0.0392  0.0249 -0.0765
 1083DOPE   C1B12703   8.749  24.867  11.078  0.0639  0.4019  0.2755
 1083DOPE   D2B12704   9.006  24.973  11.479  0.0438 -0.0833 -0.1521
 1083DOPE   C3B12705   9.037  25.003  11.921  0.1338 -0.1836  0.0610
 1083DOPE   C4B12706   9.023  25.219  12.367 -0.2682 -0.1648 -0.1152
 1084DOPC   NC312707  11.040  30.832  12.539 -0.0168  0.3464 -0.3334
 1084DOPC   PO412708  10.856  31.171  12.593 -0.1081 -0.2229 -0.4787
 1084DOPC   GL112709  10.992  31.196  13.038  0.0148  0.1150  0.0725
 1084DOPC   GL212710  10.758  31.348  13.114  0.2092  0.1675  0.4761
 1084DOPC   C1A12711  11.343  31.125  13.314 -0.0168  0.2817 -0.2717
 1084DOPC   D2A12712  11.695  31.339  13.486 -0.3292 -0.0946 -0.1655
 1084DOPC   C3A12713  12.002  31.374  13.825 -0.0204 -0.2583  0.1053
 1084DOPC   C4A12714  12.348  31.467  14.062  0.1369  0.4316  0.0487
 1084DOPC   C1B12715  10.822  31.119  13.545 -0.1669  0.2661  0.0836
 1084DOPC   D2B12716  10.663  30.815  13.867 -0.1940  0.0382 -0.0374
 1084DOPC   C3B12717  10.296  30.812  14.141 -0.0658  0.2892 -0.2665
 1084DOPC   C4B12718  10.063  30.525  14.519 -0.0465 -0.1725  0.1048
 1085POSM   NC312719   4.482  26.953  10.379  0.2073  0.1933  0.0107
 1085POSM   PO412720   4.377  27.265  10.504 -0.3081  0.3327  0.1518
 1085POSM   AM112721   4.250  27.332  10.798 -0.0133  0.2858 -0.3027
 1085POSM   AM212722   4.098  27.194  10.954 -0.1477 -0.2566 -0.0574
 1085POSM   T1A12723   4.306  27.627  11.201 -0.1649  0.0496  0.0619
 1085POSM   C2A12724   4.470  27.840  11.559 -0.3955  0.2242  0.2976
 1085POSM   C3A12725   4.356  28.044  11.931  0.0976 -0.0913 -0.0910
 1085POSM   C1B12726   4.364  27.152  11.170 -0.0428 -0.0806 -0.0099
 1085POSM   D2B12727   4.742  26.943  11.221 -0.1321  0.3150 -0.3325
 1085POSM   C3B12728   5.211  27.037  11.375  0.0463  0.1508 -0.0131
 1085POSM   C4B12729   5.588  27.031  11.640  0.3819  0.2994  0.0902
 1086DOPS   CNO12730   2.547  23.411   9.988  0.1765  0.1614 -0.1853
 1086DOPS   PO412731   2.575  23.307  10.372 -0.0057 -0.3329  0.1198
 1086DOPS   GL112732   2.579  23.348  10.777  0.0536 -0.2149 -0.1350
 1086DOPS   GL212733   2.686  23.686  10.775 -0.0184 -0.0988 -0.2544
 1086DOPS   C1A12734   2.503  23.148  11.165 -0.2634  0.1041 -0.3184
 1086DOPS   D2A12735   2.500  23.220  11.547 -0.0308 -0.1161  0.2553
 1086DOPS   C3A12736   2.646  23.132  11.971  0.0886 -0.0286 -0.1448
 1086DOPS   C4A12737   2.644  22.956  12.360  0.0009  0.0757 -0.0486
 1086DOPS   C1B12738   2.854  23.500  11.164 -0.1923 -0.1364 -0.0271
 1086DOPS   D2B12739   2.779  23.562  11.645 -0.0551 -0.3660 -0.0125
 1086DOPS   C3B12740   3.109  23.360  11.862  0.0419 -0.0934 -0.1680
 1086DOPS   C4B12741   3.107  23.026  12.156 -0.1965 -0.1685  0.3133
 1087DOPE   NH312742   4.894  27.945  10.494 -0.1552 -0.4197 -0.4444
 1087DOPE   PO412743   4.801  28.263  10.620 -0.0347  0.0152  0.1496
 1087DOPE   GL112744   4.593  28.087  10.847  0.0902 -0.0901  0.1583
 1087DOPE   GL212745   4.735  27.999  11.095  0.1512 -0.0099 -0.0336
 1087DOPE   C1A12746   4.260  28.250  11.139 -0.2188 -0.2341  0.0977
 1087DOPE   D2A12747   3.921  28.526  11.270 -0.0867 -0.1451 -0.1141
 1087DOPE   C3A12748   3.652  28.505  11.638 -0.1107 -0.1453 -0.0928
 1087DOPE   C4A12749   3.496  28.442  12.054 -0.0182 -0.1603 -0.2973
 1087DOPE   C1B12750   4.795  27.529  11.295 -0.2509  0.3305 -0.0532
 1087DOPE   D2B12751   4.626  27.277  11.618 -0.0626 -0.0140 -0.0467
 1087DOPE   C3B12752   4.402  26.915  11.763 -0.1338  0.1198 -0.0445
 1087DOPE   C4B12753   4.137  26.583  11.933 -0.1983 -0.1919  0.1342
 1088POSM   NC312754   0.641  27.323  10.309  0.0941  0.0623  0.0721
 1088POSM   PO412755   0.318  27.317  10.532 -0.1423  0.3573 -0.2556
 1088POSM   AM112756   0.228  27.413  10.841 -0.1050 -0.1597 -0.2570
 1088POSM   AM212757   0.257  27.638  11.023  0.1834 -0.0423  0.0055
 1088POSM   T1A12758  -0.195  27.399  11.153 -0.2984  0.3659  0.3840
 1088POSM   C2A12759  -0.408  27.112  11.460  0.1015 -0.2075 -0.2135
 1088POSM   C3A12760  -0.848  27.083  11.615  0.1456  0.1962 -0.2578
 1088POSM   C1B12761   0.508  27.684  11.223 -0.1087  0.0552 -0.1863
 1088POSM   D2B12762   0.701  27.545  11.633  0.0042 -0.5042 -0.4586
 1088POSM   C3B12763   0.599  27.337  12.035 -0.1121  0.0859  0.1192
 1088POSM   C4B12764   0.715  27.172  12.466  0.1478  0.2091 -0.1228
 1089DOPC   NC312765   6.765  26.928  11.031 -0.0231 -0.0671 -0.1303
 1089DOPC   PO412766   7.050  27.225  11.033  0.1288 -0.0096  0.0398
 1089DOPC   GL112767   7.210  27.108  11.405  0.4546  0.0416  0.1677
 1089DOPC   GL212768   7.039  26.866  11.445 -0.0791  0.0930 -0.1618
 1089DOPC   C1A12769   7.194  27.235  11.873  0.2635  0.0620 -0.4508
 1089DOPC   D2A12770   7.273  27.515  12.230 -0.0654  0.0711 -0.0108
 1089DOPC   C3A12771   6.832  27.562  12.351  0.3806  0.1220 -0.1061
 1089DOPC   C4A12772   6.523  27.513  12.709  0.1113 -0.0273  0.2895
 1089DOPC   C1B12773   6.810  26.726  11.813 -0.1150 -0.0202  0.2287
 1089DOPC   D2B12774   6.704  26.455  12.161  0.1808 -0.0347  0.1990
 1089DOPC   C3B12775   6.953  26.109  12.383 -0.0717 -0.1559 -0.3065
 1089DOPC   C4B12776   7.102  25.884  12.719 -0.2274  0.2935 -0.0613
 1090DOPS   CNO12777   4.683  24.505  10.271  0.0606 -0.2677  0.2413
 1090DOPS   PO412778   4.656  24.167  10.426 -0.1797 -0.0787 -0.0061
 1090DOPS   GL112779   4.645  24.308  10.799 -0.0684 -0.0763 -0.1146
 1090DOPS   GL212780   4.539  24.108  10.968 -0.2268  0.2226  0.2044
 1090DOPS   C1A12781   5.027  24.136  11.047 -0.0729  0.1938  0.1260
 1090DOPS   D2A12782   5.225  23.965  11.444  0.3830 -0.0628 -0.2169
 1090DOPS   C3A12783   4.821  23.824  11.738  0.0182 -0.2065 -0.1047
 1090DOPS   C4A12784   4.362  23.843  11.861  0.1228  0.4235  0.0328
 1090DOPS   C1B12785   4.378  23.964  11.385  0.4126 -0.0836  0.1485
 1090DOPS   D2B12786   3.942  23.816  11.586 -0.1515  0.0653 -0.1797
 1090DOPS   C3B12787   3.716  23.539  11.913 -0.2062  0.2002  0.0515
 1090DOPS   C4B12788   3.533  23.255  12.229 -0.0475  0.2522 -0.1112
 1091DOPC   NC312789   3.609  27.054  10.722 -0.3310 -0.0044  0.1230
 1091DOPC   PO412790   3.947  26.876  10.601 -0.1118 -0.1696  0.3260
 1091DOPC   GL112791   3.958  26.725  10.971  0.2013 -0.2203  0.3109
 1091DOPC   GL212792   3.775  26.688  11.149  0.1466 -0.1605 -0.0094
 1091DOPC   C1A12793   4.289  26.599  11.336  0.2155 -0.1035 -0.0820
 1091DOPC   D2A12794   4.527  26.273  11.621  0.2354 -0.1690  0.1642
 1091DOPC   C3A12795   4.796  26.263  11.976  0.1230 -0.0385 -0.1749
 1091DOPC   C4A12796   5.199  26.425  12.076  0.1834  0.2090  0.2883
 1091DOPC   C1B12797   3.912  26.887  11.570 -0.0753 -0.1133  0.1413
 1091DOPC   D2B12798   3.963  27.167  11.881  0.3053 -0.0713  0.1580
 1091DOPC   C3B12799   4.201  27.522  12.007  0.0575 -0.0216  0.4125
 1091DOPC   C4B12800   4.076  27.732  12.324  0.3596  0.2174 -0.0506
 1092DOPC   NC312801   5.716  27.807  11.172  0.3530  0.0805  0.0586
 1092DOPC   PO412802   5.330  27.911  11.180  0.1253 -0.0780  0.0087
 1092DOPC   GL112803   5.401  27.841  11.547 -0.3843 -0.0952 -0.0733
 1092DOPC   GL212804   5.585  27.730  11.681 -0.5319  0.1492  0.0899
 1092DOPC   C1A12805   5.280  27.893  12.025 -0.0227  0.1015  0.3481
 1092DOPC   D2A12806   5.111  27.475  12.242  0.0601  0.1307 -0.0713
 1092DOPC   C3A12807   4.953  27.545  12.652 -0.2015 -0.1233 -0.2628
 1092DOPC   C4A12808   4.624  27.822  12.766 -0.0116  0.1833 -0.2589
 1092DOPC   C1B12809   5.147  27.483  11.678 -0.1119 -0.1127  0.0356
 1092DOPC   D2B12810   5.104  27.106  11.886  0.1524 -0.0356 -0.1844
 1092DOPC   C3B12811   5.176  27.015  12.332 -0.0935 -0.4264 -0.1372
 1092DOPC   C4B12812   5.318  26.630  12.518  0.0364  0.0742  0.1876
 1093DOPE   NH312813   7.217  25.255  10.460 -0.4229 -0.2040 -0.1916
 1093DOPE   PO412814   7.277  25.028  10.661  0.0945  0.4114  0.1542
 1093DOPE   GL112815   7.443  24.994  10.935  0.1097 -0.3387  0.1005
 1093DOPE   GL212816   7.764  24.970  10.937  0.3187 -0.0751  0.2915
 1093DOPE   C1A12817   7.534  25.054  11.432 -0.0938 -0.1387 -0.0533
 1093DOPE   D2A12818   7.707  25.356  11.800  0.1917  0.0545  0.2198
 1093DOPE   C3A12819   7.441  25.458  12.082  0.0841 -0.2860 -0.0354
 1093DOPE   C4A12820   7.250  25.501  12.501  0.2576  0.2683  0.3809
 1093DOPE   C1B12821   7.818  24.622  11.247 -0.0841 -0.1590  0.4322
 1093DOPE   D2B12822   7.956  24.368  11.602 -0.0014  0.2667 -0.0355
 1093DOPE   C3B12823   7.970  24.385  12.052 -0.1804 -0.1279 -0.1696
 1093DOPE   C4B12824   8.008  24.517  12.448  0.0843  0.1386  0.1363
 1094DOPC   NC312825   8.187  26.811  11.102 -0.1594  0.2225 -0.0917
 1094DOPC   PO412826   8.003  27.147  11.083 -0.1737  0.1555  0.2666
 1094DOPC   GL112827   7.884  26.992  11.423  0.1198  0.0919 -0.4412
 1094DOPC   GL212828   7.651  26.809  11.379  0.1582 -0.0322  0.1568
 1094DOPC   C1A12829   7.597  26.986  11.817  0.2720  0.2899  0.1186
 1094DOPC   D2A12830   7.257  26.791  12.068 -0.2648 -0.2189  0.3423
 1094DOPC   C3A12831   7.111  26.684  12.477  0.0896 -0.0603 -0.2108
 1094DOPC   C4A12832   7.192  26.350  12.782 -0.1988  0.0085  0.0902
 1094DOPC   C1B12833   7.368  26.532  11.619  0.0772  0.0603 -0.2782
 1094DOPC   D2B12834   7.147  26.320  11.912  0.0961 -0.0770  0.0499
 1094DOPC   C3B12835   7.451  26.190  12.274 -0.0365  0.2310 -0.2472
 1094DOPC   C4B12836   7.619  25.930  12.647 -0.0004 -0.1680 -0.2774
 1095DOPC   NC312837   8.352  33.801  12.961 -0.0329  0.1007  0.0162
 1095DOPC   PO412838   8.720  33.922  13.103  0.2443 -0.2479 -0.0626
 1095DOPC   GL112839   8.604  33.725  13.495 -0.0521  0.1254  0.0161
 1095DOPC   GL212840   8.312  33.741  13.490 -0.3959 -0.1520  0.1304
 1095DOPC   C1A12841   8.737  33.836  13.894  0.2082 -0.1113 -0.0399
 1095DOPC   D2A12842   8.606  33.918  14.324  0.1041  0.1469 -0.1260
 1095DOPC   C3A12843   8.772  34.157  14.697  0.0990  0.0126 -0.1413
 1095DOPC   C4A12844   9.102  34.377  14.977  0.0119 -0.2788 -0.0518
 1095DOPC   C1B12845   8.394  33.344  13.401  0.3175 -0.2163  0.1572
 1095DOPC   D2B12846   8.413  32.948  13.471 -0.0291  0.3613  0.0064
 1095DOPC   C3B12847   8.458  32.775  13.910 -0.0270 -0.1912 -0.1454
 1095DOPC   C4B12848   8.172  32.605  14.214 -0.0094 -0.0359  0.0417
 1096POSM   NC312849   5.918  31.306  12.123  0.3529 -0.0354  0.0556
 1096POSM   PO412850   6.026  31.634  11.986  0.1572  0.0216  0.3304
 1096POSM   AM112851   5.917  31.762  12.242 -0.1222  0.2556 -0.0265
 1096POSM   AM212852   5.688  31.778  12.372  0.2655  0.0962 -0.1906
 1096POSM   T1A12853   6.018  31.997  12.660  0.2080  0.1143 -0.1022
 1096POSM   C2A12854   5.879  32.191  13.045  0.3345 -0.0996  0.2944
 1096POSM   C3A12855   6.007  32.416  13.428  0.0046  0.3627 -0.0807
 1096POSM   C1B12856   5.458  31.596  12.538  0.1655 -0.1023  0.0288
 1096POSM   D2B12857   5.267  31.339  12.865  0.0053  0.3165  0.0178
 1096POSM   C3B12858   5.659  31.251  13.078  0.0758 -0.1137  0.1690
 1096POSM   C4B12859   5.942  31.504  13.328 -0.4684  0.1095  0.1646
 1097DOPE   NH312860   7.077  28.135  11.539  0.0232 -0.0994 -0.1385
 1097DOPE   PO412861   7.257  28.111  11.808 -0.0934 -0.0431 -0.1683
 1097DOPE   GL112862   7.177  28.177  12.111  0.1870  0.2997  0.0224
 1097DOPE   GL212863   7.418  28.097  12.318 -0.0667  0.0627  0.2203
 1097DOPE   C1A12864   7.031  28.348  12.522 -0.2214 -0.1128  0.0958
 1097DOPE   D2A12865   6.989  28.280  12.952 -0.1974  0.1023  0.0218
 1097DOPE   C3A12866   7.325  28.025  13.124 -0.0598 -0.3522  0.0795
 1097DOPE   C4A12867   7.782  28.043  13.062 -0.1668  0.1070  0.1164
 1097DOPE   C1B12868   7.510  28.345  12.708 -0.0431  0.0294  0.2693
 1097DOPE   D2B12869   7.544  28.565  13.083 -0.1641 -0.0236 -0.0626
 1097DOPE   C3B12870   7.768  28.521  13.466 -0.0215  0.0585  0.1091
 1097DOPE   C4B12871   7.930  28.397  13.842 -0.1363 -0.1090  0.1129
 1098DOPS   CNO12872   5.875  27.133  11.098  0.0224  0.2969 -0.2306
 1098DOPS   PO412873   6.222  27.053  11.012  0.0830  0.1948 -0.1450
 1098DOPS   GL112874   6.400  27.178  11.254 -0.0394  0.0392  0.2462
 1098DOPS   GL212875   6.528  27.020  11.443 -0.0167  0.1273 -0.1421
 1098DOPS   C1A12876   6.135  27.331  11.622 -0.0006  0.0714  0.0294
 1098DOPS   D2A12877   5.900  27.142  12.036  0.2008  0.2179 -0.0067
 1098DOPS   C3A12878   5.967  27.348  12.431  0.0190  0.2758 -0.2253
 1098DOPS   C4A12879   6.111  27.205  12.818  0.0438 -0.1990  0.1613
 1098DOPS   C1B12880   6.359  26.839  11.873  0.0074  0.1708  0.2078
 1098DOPS   D2B12881   6.155  26.518  12.158  0.0525  0.1472 -0.0094
 1098DOPS   C3B12882   6.311  26.180  12.447 -0.1933 -0.2711  0.1600
 1098DOPS   C4B12883   6.310  25.738  12.555  0.1045  0.2576  0.2469
 1099DOPC   NC312884   7.130  32.178  12.645 -0.3506  0.0981 -0.2406
 1099DOPC   PO412885   6.869  32.486  12.597  0.0162  0.0256  0.0196
 1099DOPC   GL112886   6.527  32.259  12.765 -0.2319  0.1029  0.5178
 1099DOPC   GL212887   6.649  31.989  12.749  0.0508 -0.0146 -0.0263
 1099DOPC   C1A12888   6.211  32.524  12.902 -0.0948 -0.2807  0.1842
 1099DOPC   D2A12889   6.275  32.965  12.690 -0.1271 -0.1246  0.2701
 1099DOPC   C3A12890   6.056  33.336  12.973  0.3059  0.0617 -0.0293
 1099DOPC   C4A12891   5.879  33.203  13.386 -0.3661  0.1023  0.2022
 1099DOPC   C1B12892   6.309  31.955  13.022 -0.0490  0.1412 -0.3544
 1099DOPC   D2B12893   6.155  31.933  13.431  0.0525 -0.0814 -0.1001
 1099DOPC   C3B12894   5.692  31.983  13.574  0.1928 -0.0849  0.1966
 1099DOPC   C4B12895   5.392  32.133  13.844 -0.1699 -0.3039  0.1356
 1100DOPE   NH312896   1.313  27.479  10.317 -0.1025 -0.0665  0.1665
 1100DOPE   PO412897   1.060  27.419  10.511 -0.0969 -0.4791  0.1458
 1100DOPE   GL112898   1.207  27.479  10.840  0.0767 -0.3041  0.1714
 1100DOPE   GL212899   1.445  27.667  10.963 -0.0316  0.0018  0.1671
 1100DOPE   C1A12900   1.126  27.463  11.275  0.1311 -0.0253  0.0512
 1100DOPE   D2A12901   1.302  27.820  11.531 -0.1466 -0.1644 -0.2761
 1100DOPE   C3A12902   1.519  27.721  11.986  0.0302 -0.1540 -0.3209
 1100DOPE   C4A12903   1.829  27.714  12.229 -0.0545  0.1490 -0.2194
 1100DOPE   C1B12904   1.756  27.743  11.264 -0.0180 -0.4071 -0.1770
 1100DOPE   D2B12905   2.008  27.554  11.578  0.2390 -0.1493 -0.2320
 1100DOPE   C3B12906   2.178  27.803  11.924 -0.1062  0.1110 -0.1607
 1100DOPE   C4B12907   2.379  28.157  11.989 -0.2917 -0.1604  0.0890
 1101DOPE   NH312908   6.705  27.761  11.484  0.0169  0.2776 -0.3616
 1101DOPE   PO412909   6.775  27.454  11.351 -0.0888 -0.0092 -0.3629
 1101DOPE   GL112910   6.792  27.260  11.747 -0.1465 -0.3351  0.0230
 1101DOPE   GL212911   6.551  27.462  11.881 -0.4653  0.1097  0.5644
 1101DOPE   C1A12912   6.851  27.031  12.230  0.0538 -0.1472 -0.0907
 1101DOPE   D2A12913   6.814  27.085  12.678 -0.2411 -0.1715  0.0208
 1101DOPE   C3A12914   6.996  27.492  12.822 -0.2301  0.1654 -0.2385
 1101DOPE   C4A12915   7.217  27.840  12.664  0.0917  0.0054  0.1248
 1101DOPE   C1B12916   6.411  27.270  12.245  0.0334 -0.0871 -0.3383
 1101DOPE   D2B12917   6.376  26.853  12.492 -0.0536 -0.0854  0.0610
 1101DOPE   C3B12918   6.698  26.614  12.739  0.2603 -0.0533 -0.2594
 1101DOPE   C4B12919   6.713  26.478  13.192  0.1149  0.1099  0.0666
 1102POSM   NC312920  11.224  28.177  11.984  0.2024  0.0499 -0.0567
 1102POSM   PO412921  11.311  28.525  12.148  0.2746 -0.1406 -0.1577
 1102POSM   AM112922  11.307  28.628  12.466 -0.3350 -0.0401  0.2628
 1102POSM   AM212923  11.306  28.900  12.648  0.2113  0.5422 -0.2712
 1102POSM   T1A12924  11.426  28.359  12.885  0.1900 -0.0720  0.1686
 1102POSM   C2A12925  11.390  28.096  13.263  0.0865  0.1683 -0.2389
 1102POSM   C3A12926  11.131  27.935  13.611  0.1271 -0.0765 -0.0216
 1102POSM   C1B12927  11.259  28.879  12.961 -0.2532  0.1493 -0.1693
 1102POSM   D2B12928  11.358  28.594  13.317 -0.0937  0.1979  0.3621
 1102POSM   C3B12929  11.172  28.962  13.454 -0.1936  0.2368  0.2234
 1102POSM   C4B12930  11.060  29.190  13.809  0.2176  0.0191 -0.5141
 1103POSM   NC312931  10.343  33.103  12.232 -0.1541  0.0520 -0.0528
 1103POSM   PO412932  10.117  32.779  12.342  0.1569 -0.4424 -0.0154
 1103POSM   AM112933  10.125  32.613  12.637 -0.0364  0.2301 -0.0559
 1103POSM   AM212934   9.935  32.511  12.832 -0.2489 -0.1003  0.1005
 1103POSM   T1A12935  10.273  32.756  13.074 -0.1732  0.2158  0.2607
 1103POSM   C2A12936  10.195  32.642  13.521 -0.1068 -0.0599 -0.0390
 1103POSM   C3A12937  10.191  32.419  13.906 -0.1856  0.3425  0.3193
 1103POSM   C1B12938   9.840  32.580  13.170 -0.1833 -0.2634 -0.1212
 1103POSM   D2B12939   9.560  32.852  13.457  0.1672 -0.1189  0.1011
 1103POSM   C3B12940   9.664  32.669  13.830  0.1589  0.1934  0.3862
 1103POSM   C4B12941   9.592  32.297  14.102 -0.0797 -0.0094 -0.0030
 1104DOPC   NC312942  33.837  27.266  10.604  0.0645  0.3272  0.1245
 1104DOPC   PO412943  34.009  27.626  10.505 -0.0947  0.0856 -0.5263
 1104DOPC   GL112944  33.912  27.587  10.891  0.1326  0.3713 -0.0043
 1104DOPC   GL212945  34.111  27.834  11.018  0.1323 -0.1020  0.0878
 1104DOPC   C1A12946  33.680  27.283  11.171 -0.0828 -0.2325 -0.0978
 1104DOPC   D2A12947  33.305  27.010  11.259 -0.1380  0.0571 -0.2039
 1104DOPC   C3A12948  33.300  26.574  11.077  0.3443 -0.2768 -0.1001
 1104DOPC   C4A12949  33.102  26.176  10.933  0.2608  0.3771  0.0168
 1104DOPC   C1B12950  33.999  27.614  11.474  0.2047 -0.2877  0.0832
 1104DOPC   D2B12951  33.866  27.482  11.867  0.4835 -0.0982 -0.0871
 1104DOPC   C3B12952  33.976  27.354  12.276 -0.1994  0.1325 -0.0720
 1104DOPC   C4B12953  33.988  27.050  12.583  0.2743 -0.1993 -0.1107
 1105DOPC   NC312954   6.197  33.803  12.460  0.1979  0.1163  0.0581
 1105DOPC   PO412955   5.851  33.956  12.327 -0.1872 -0.2752  0.1941
 1105DOPC   GL112956   5.436  33.815  12.447  0.2409 -0.2336 -0.0380
 1105DOPC   GL212957   5.569  33.646  12.647  0.2303 -0.0808 -0.2077
 1105DOPC   C1A12958   5.292  34.008  12.864  0.0956 -0.2695 -0.1475
 1105DOPC   D2A12959   4.945  34.031  13.155  0.0461 -0.0136  0.1225
 1105DOPC   C3A12960   4.622  33.863  13.426 -0.1359 -0.1901 -0.1855
 1105DOPC   C4A12961   4.314  33.619  13.718  0.0028  0.1665  0.0542
 1105DOPC   C1B12962   5.561  33.560  13.127  0.2444  0.0106  0.1164
 1105DOPC   D2B12963   5.522  33.555  13.594 -0.2220 -0.1000 -0.0247
 1105DOPC   C3B12964   5.474  33.846  13.948 -0.0615 -0.0105 -0.2045
 1105DOPC   C4B12965   5.833  34.019  14.252 -0.2748 -0.2305 -0.3086
 1106DOPC   NC312966   8.952  30.493  12.220  0.1907 -0.2337  0.1708
 1106DOPC   PO412967   8.603  30.666  12.195 -0.4004  0.0246 -0.0411
 1106DOPC   GL112968   8.610  30.547  12.581 -0.0534 -0.3398  0.5972
 1106DOPC   GL212969   8.776  30.249  12.634  0.0024  0.3247 -0.2626
 1106DOPC   C1A12970   8.174  30.496  12.765  0.1415 -0.0163  0.1909
 1106DOPC   D2A12971   7.798  30.344  12.873  0.1295 -0.0463 -0.0720
 1106DOPC   C3A12972   7.824  29.988  13.172 -0.0683 -0.1473 -0.0847
 1106DOPC   C4A12973   7.955  29.595  13.363 -0.2307  0.0487 -0.1285
 1106DOPC   C1B12974   8.997  29.959  13.014  0.0421 -0.0055  0.0138
 1106DOPC   D2B12975   8.800  29.762  13.390 -0.5339 -0.1249  0.1091
 1106DOPC   C3B12976   8.850  29.955  13.820  0.1775 -0.1625 -0.0645
 1106DOPC   C4B12977   8.718  29.792  14.258 -0.0240 -0.3156  0.0664
 1107POSM   NC312978   5.955  28.273  11.726  0.0818 -0.0436 -0.0883
 1107POSM   PO412979   5.685  28.201  11.448  0.1129 -0.0547  0.0860
 1107POSM   AM112980   5.468  28.323  11.700 -0.0963 -0.0797  0.0572
 1107POSM   AM212981   5.463  28.475  11.982 -0.1660 -0.0177 -0.0201
 1107POSM   T1A12982   5.022  28.280  11.963 -0.1613  0.0101  0.0698
 1107POSM   C2A12983   4.639  28.453  12.031  0.2487  0.1796  0.1583
 1107POSM   C3A12984   4.316  28.641  12.340 -0.1300  0.2424  0.1543
 1107POSM   C1B12985   5.329  28.403  12.306  0.0147 -0.2400  0.1241
 1107POSM   D2B12986   5.422  28.463  12.750 -0.0066  0.0352  0.1395
 1107POSM   C3B12987   5.716  28.130  12.934  0.2799  0.0507  0.1348
 1107POSM   C4B12988   6.072  27.970  13.200 -0.0033  0.1289  0.1341
 1108DOPC   NC312989   1.147   0.451  12.245  0.0477  0.0757 -0.1991
 1108DOPC   PO412990   1.163   0.163  11.946  0.0943  0.2089 -0.0671
 1108DOPC   GL112991   1.431  -0.074  12.083 -0.1162  0.4351  0.0819
 1108DOPC   GL212992   1.532  -0.327  11.949  0.1780 -0.0441 -0.1406
 1108DOPC   C1A12993   1.649  -0.330  12.433 -0.0653  0.2757 -0.0053
 1108DOPC   D2A12994   1.841  -0.783  12.450  0.0775 -0.0092  0.1151
 1108DOPC   C3A12995   2.213  -0.978  12.624 -0.0950  0.3993 -0.0457
 1108DOPC   C4A12996   2.539  -1.015  12.955  0.1000  0.1863  0.1935
 1108DOPC   C1B12997   1.699  -0.707  11.906  0.1452  0.1599  0.1743
 1108DOPC   D2B12998   2.060  -1.013  12.099 -0.1762 -0.2400 -0.0884
 1108DOPC   C3B12999   2.293  -1.390  12.226  0.0410 -0.1110  0.1750
 1108DOPC   C4B13000   2.519  -1.437  12.617 -0.1393  0.0697 -0.1235
 1109POSM   NC313001   9.959  26.913  11.181 -0.3366 -0.1878  0.0462
 1109POSM   PO413002   9.996  27.260  11.383 -0.1450 -0.4101  0.0739
 1109POSM   AM113003  10.089  27.140  11.705  0.1065 -0.0624  0.0267
 1109POSM   AM213004   9.947  26.928  11.776 -0.1737  0.0892 -0.0960
 1109POSM   T1A13005  10.474  27.139  11.979  0.4323  0.0094 -0.2143
 1109POSM   C2A13006  10.800  27.049  12.259  0.2354 -0.1071  0.3576
 1109POSM   C3A13007  10.951  27.205  12.698  0.0456 -0.0007 -0.0793
 1109POSM   C1B13008  10.161  26.763  12.017 -0.1157 -0.2357  0.0570
 1109POSM   D2B13009  10.286  26.574  12.369 -0.1003  0.1613 -0.1021
 1109POSM   C3B13010  10.221  26.607  12.851 -0.0339  0.2265 -0.2117
 1109POSM   C4B13011  10.146  26.528  13.312 -0.2651  0.0929 -0.0257
 1110DOPS   CNO13012   8.748  24.355  10.357 -0.0455  0.0873  0.0327
 1110DOPS   PO413013   9.148  24.309  10.429 -0.0521  0.2285 -0.0110
 1110DOPS   GL113014   9.109  24.179  10.790 -0.0376 -0.1301 -0.1858
 1110DOPS   GL213015   9.328  23.936  10.715  0.1536 -0.0142 -0.0541
 1110DOPS   C1A13016   8.782  24.336  11.094  0.1310  0.0192  0.0260
 1110DOPS   D2A13017   8.751  24.489  11.543 -0.1624 -0.2383 -0.0528
 1110DOPS   C3A13018   8.495  24.866  11.682  0.2088  0.0998 -0.0671
 1110DOPS   C4A13019   8.233  24.818  12.026  0.0777 -0.4318  0.1270
 1110DOPS   C1B13020   9.386  23.955  11.164 -0.0612  0.0458  0.0447
 1110DOPS   D2B13021   9.511  23.895  11.607 -0.1156 -0.0945 -0.1060
 1110DOPS   C3B13022   9.181  24.029  11.923 -0.2592 -0.1514  0.2667
 1110DOPS   C4B13023   8.723  23.985  11.956  0.0490  0.1675 -0.1080
 1111DOPC   NC313024   5.468  28.642  11.260  0.2366 -0.1134  0.4082
 1111DOPC   PO413025   5.282  28.809  11.580  0.1490 -0.0269 -0.1439
 1111DOPC   GL113026   4.936  28.653  11.700  0.2361 -0.0192  0.0571
 1111DOPC   GL213027   4.983  28.823  11.950  0.5144 -0.5060 -0.2403
 1111DOPC   C1A13028   4.520  28.887  11.827  0.0595  0.1681  0.0573
 1111DOPC   D2A13029   4.227  29.129  12.077 -0.0590  0.1787  0.0695
 1111DOPC   C3A13030   4.320  29.575  12.203  0.3783 -0.0286 -0.1644
 1111DOPC   C4A13031   4.706  29.649  12.458 -0.0161 -0.1161  0.1289
 1111DOPC   C1B13032   4.726  29.191  12.176 -0.0138 -0.2285  0.1578
 1111DOPC   D2B13033   4.448  29.155  12.535  0.1421 -0.3434 -0.2373
 1111DOPC   C3B13034   4.785  29.043  12.878  0.0992  0.0048 -0.0518
 1111DOPC   C4B13035   5.075  28.711  12.980  0.0556 -0.1611 -0.0403
 1112DOPS   CNO13036   0.081   1.019  11.752 -0.4121  0.1047 -0.1933
 1112DOPS   PO413037   0.269   0.861  12.028 -0.0706 -0.1211  0.0230
 1112DOPS   GL113038   0.315   0.775  12.449 -0.1637  0.2875  0.0187
 1112DOPS   GL213039   0.380   0.509  12.489  0.0033 -0.2472  0.2816
 1112DOPS   C1A13040   0.119   0.868  12.887 -0.1522  0.0759 -0.0078
 1112DOPS   D2A13041  -0.271   0.780  13.112  0.1656  0.1591 -0.0770
 1112DOPS   C3A13042  -0.171   0.353  13.318  0.4342 -0.0500  0.0236
 1112DOPS   C4A13043  -0.185   0.049  13.656 -0.0678  0.1897  0.1383
 1112DOPS   C1B13044   0.670   0.411  12.885 -0.0434  0.1221  0.2492
 1112DOPS   D2B13045   1.100   0.209  12.965  0.1221  0.0535  0.1128
 1112DOPS   C3B13046   1.451   0.075  13.268  0.0736  0.2650  0.1083
 1112DOPS   C4B13047   1.572  -0.399  13.442 -0.0367  0.0868 -0.1409
 1113DOPE   NH313048   6.209  30.997  11.694  0.0041  0.3486  0.0708
 1113DOPE   PO413049   5.912  30.830  11.590  0.1664  0.0032  0.3746
 1113DOPE   GL113050   5.680  30.925  12.088  0.2610  0.0091 -0.1077
 1113DOPE   GL213051   5.438  31.162  12.099 -0.1933 -0.5195 -0.1175
 1113DOPE   C1A13052   5.721  30.984  12.579  0.1815 -0.0435 -0.1300
 1113DOPE   D2A13053   5.830  30.787  13.013  0.3396 -0.0714 -0.1137
 1113DOPE   C3A13054   6.269  30.644  13.164  0.1447 -0.3195  0.1954
 1113DOPE   C4A13055   6.298  30.187  13.291  0.0965 -0.2789 -0.2628
 1113DOPE   C1B13056   5.257  31.124  12.483 -0.0784  0.1496  0.2294
 1113DOPE   D2B13057   4.906  30.980  12.790  0.1157  0.0342  0.2952
 1113DOPE   C3B13058   4.978  30.868  13.223  0.0138 -0.0758  0.0948
 1113DOPE   C4B13059   5.179  30.516  13.519  0.2175 -0.1350  0.1060
 1114DOPE   NH313060   9.945  25.281  10.482  0.0402  0.0463  0.2288
 1114DOPE   PO413061  10.230  25.374  10.664  0.2342  0.1627  0.1416
 1114DOPE   GL113062  10.406  25.142  10.803  0.0391 -0.3676  0.2899
 1114DOPE   GL213063  10.667  25.132  10.782 -0.4250  0.1543  0.0900
 1114DOPE   C1A13064  10.262  24.762  11.019 -0.1906 -0.1129 -0.1293
 1114DOPE   D2A13065   9.823  24.634  11.204  0.8091  0.0033  0.1837
 1114DOPE   C3A13066   9.686  24.453  11.604 -0.0550  0.0438  0.0271
 1114DOPE   C4A13067   9.623  24.227  12.038 -0.1537 -0.3574 -0.1709
 1114DOPE   C1B13068  10.553  25.111  11.236 -0.0965 -0.0509  0.1795
 1114DOPE   D2B13069  10.414  25.253  11.669  0.0623 -0.1038  0.1126
 1114DOPE   C3B13070  10.470  25.006  12.050  0.1328  0.0274 -0.0729
 1114DOPE   C4B13071  10.576  24.558  12.098  0.0218 -0.0313 -0.1714
 1115DOPE   NH313072   9.829  25.635  10.845  0.0280  0.0839  0.0227
 1115DOPE   PO413073   9.714  25.878  11.015  0.0612 -0.2187  0.0238
 1115DOPE   GL113074   9.706  25.767  11.406  0.0110 -0.0491 -0.2111
 1115DOPE   GL213075   9.732  25.463  11.308 -0.1578 -0.4316  0.0961
 1115DOPE   C1A13076   9.571  25.833  11.833 -0.3425  0.0099  0.0822
 1115DOPE   D2A13077   9.284  25.983  12.159 -0.3073 -0.1209 -0.2987
 1115DOPE   C3A13078   9.433  26.011  12.618 -0.0926 -0.1322  0.1460
 1115DOPE   C4A13079   9.544  25.888  13.041  0.0106  0.0160  0.2096
 1115DOPE   C1B13080   9.954  25.550  11.702 -0.0893  0.2765  0.0405
 1115DOPE   D2B13081  10.004  25.144  12.030  0.0330 -0.0807  0.1498
 1115DOPE   C3B13082   9.904  24.775  12.282 -0.1475 -0.2614 -0.1966
 1115DOPE   C4B13083   9.634  24.776  12.678 -0.2108  0.1319  0.1875
 1116DOPC   NC313084   5.132  24.258  10.402  0.2383 -0.1665  0.2651
 1116DOPC   PO413085   5.011  23.959  10.135  0.0557  0.0092  0.0416
 1116DOPC   GL113086   4.950  23.781  10.501  0.2403  0.2213  0.1593
 1116DOPC   GL213087   5.184  23.785  10.602 -0.1215 -0.1322 -0.0331
 1116DOPC   C1A13088   4.762  23.484  10.783  0.1945 -0.0776  0.1264
 1116DOPC   D2A13089   4.805  23.686  11.240 -0.1173 -0.1829 -0.0158
 1116DOPC   C3A13090   5.151  23.438  11.480  0.3155  0.3739  0.1362
 1116DOPC   C4A13091   5.236  23.037  11.735  0.2286 -0.1962 -0.1474
 1116DOPC   C1B13092   5.312  23.728  11.041 -0.1509 -0.1273 -0.0144
 1116DOPC   D2B13093   5.637  23.670  11.380 -0.2155 -0.0543  0.2733
 1116DOPC   C3B13094   5.700  24.073  11.626  0.0189 -0.1131 -0.1882
 1116DOPC   C4B13095   5.425  24.415  11.822 -0.1486  0.1392 -0.2222
 1117DOPS   CNO13096  12.264  32.580  12.351 -0.2402 -0.0215 -0.3503
 1117DOPS   PO413097  12.510  32.402  12.538  0.3534  0.0084  0.0371
 1117DOPS   GL113098  12.752  32.393  12.831  0.0469  0.0974  0.0250
 1117DOPS   GL213099  12.965  32.156  12.797  0.0984  0.1897  0.0538
 1117DOPS   C1A13100  13.048  32.591  12.985  0.0276 -0.2179  0.2177
 1117DOPS   D2A13101  13.347  32.705  13.258 -0.0491 -0.0425  0.2910
 1117DOPS   C3A13102  13.221  32.684  13.707  0.1044  0.1900  0.0533
 1117DOPS   C4A13103  12.848  32.771  14.059  0.0329 -0.1844 -0.0413
 1117DOPS   C1B13104  13.054  31.875  13.152  0.0395 -0.0464 -0.0462
 1117DOPS   D2B13105  13.049  31.577  13.457 -0.2925  0.1649  0.0877
 1117DOPS   C3B13106  12.955  31.675  13.895  0.0034  0.0562 -0.0984
 1117DOPS   C4B13107  13.122  31.894  14.260 -0.0704  0.0358 -0.3456
 1118DOPS   CNO13108   8.227  33.535  12.530 -0.2148  0.2817 -0.3702
 1118DOPS   PO413109   8.412  33.243  12.476  0.0418  0.3364 -0.1312
 1118DOPS   GL113110   8.388  32.959  12.748  0.0870  0.3408  0.3830
 1118DOPS   GL213111   8.262  33.132  12.981 -0.3995 -0.0562 -0.0071
 1118DOPS   C1A13112   8.694  32.913  13.086  0.1325  0.0236  0.0782
 1118DOPS   D2A13113   8.966  32.805  13.461 -0.0655 -0.0666  0.1889
 1118DOPS   C3A13114   9.221  33.166  13.597  0.0646  0.1109  0.0514
 1118DOPS   C4A13115   9.159  33.586  13.779 -0.1182  0.0438  0.2902
 1118DOPS   C1B13116   7.906  32.901  13.142  0.0688 -0.1719  0.3121
 1118DOPS   D2B13117   7.929  32.776  13.628 -0.3043 -0.0830 -0.0839
 1118DOPS   C3B13118   8.035  33.061  13.933 -0.2467 -0.0155 -0.0945
 1118DOPS   C4B13119   8.004  33.082  14.434  0.1118  0.1537 -0.1201
 1119DOPC   NC313120   9.418  31.094  12.374  0.0035  0.0074  0.1184
 1119DOPC   PO413121   9.160  31.321  12.492  0.3446  0.0625 -0.1569
 1119DOPC   GL113122   9.225  31.343  12.941 -0.4664 -0.2030  0.2770
 1119DOPC   GL213123   9.076  31.126  12.977  0.0014 -0.0175 -0.0095
 1119DOPC   C1A13124   9.253  31.312  13.459  0.0413 -0.1488 -0.1880
 1119DOPC   D2A13125   9.142  31.319  13.899  0.0551  0.0628  0.2079
 1119DOPC   C3A13126   9.253  31.574  14.153 -0.1503  0.1663  0.0471
 1119DOPC   C4A13127   9.378  31.929  14.377 -0.2129 -0.1042 -0.0373
 1119DOPC   C1B13128   8.920  30.919  13.303  0.2888  0.1288 -0.0566
 1119DOPC   D2B13129   8.759  31.236  13.612  0.1816  0.1668 -0.0793
 1119DOPC   C3B13130   8.358  31.258  13.803 -0.0757 -0.2784  0.3679
 1119DOPC   C4B13131   7.956  31.112  14.002 -0.1909 -0.0270 -0.2339
 1120DOPS   CNO13132   4.086  26.090  10.247  0.3918 -0.1517  0.1128
 1120DOPS   PO413133   4.259  25.998  10.564 -0.1512  0.0713  0.1027
 1120DOPS   GL113134   4.191  25.650  10.849 -0.4020 -0.2787  0.0130
 1120DOPS   GL213135   4.330  25.452  11.078  0.2880 -0.2449 -0.1365
 1120DOPS   C1A13136   3.986  25.891  11.231  0.0323 -0.2688  0.0012
 1120DOPS   D2A13137   4.067  26.160  11.588 -0.3707  0.0326  0.1277
 1120DOPS   C3A13138   4.238  26.048  12.012  0.0071  0.0385 -0.2809
 1120DOPS   C4A13139   4.137  25.856  12.376  0.1096  0.0122 -0.0095
 1120DOPS   C1B13140   4.160  25.406  11.518 -0.1459  0.1880 -0.0342
 1120DOPS   D2B13141   3.921  25.614  11.833 -0.1122 -0.0873 -0.1367
 1120DOPS   C3B13142   3.535  25.761  11.653  0.0476  0.3307  0.1870
 1120DOPS   C4B13143   3.228  26.074  11.902 -0.0292 -0.2328  0.0706
 1121DOPS   CNO13144   6.297  28.149  11.335  0.2402 -0.0994  0.1687
 1121DOPS   PO413145   6.542  28.216  11.638 -0.2278  0.1528  0.0365
 1121DOPS   GL113146   6.296  27.985  11.840  0.1091 -0.0893  0.5298
 1121DOPS   GL213147   6.166  27.774  11.624  0.2859 -0.1890 -0.3389
 1121DOPS   C1A13148   6.357  27.862  12.309  0.0765  0.1772  0.2874
 1121DOPS   D2A13149   6.092  27.775  12.681 -0.1665 -0.2074 -0.0318
 1121DOPS   C3A13150   5.737  27.644  12.982 -0.1446 -0.1033  0.2651
 1121DOPS   C4A13151   5.692  27.270  13.155  0.1589  0.0253  0.0207
 1121DOPS   C1B13152   5.944  27.643  12.015 -0.0383  0.3073  0.4066
 1121DOPS   D2B13153   5.669  27.948  12.229 -0.1547 -0.3228 -0.1539
 1121DOPS   C3B13154   5.384  27.903  12.573  0.2443  0.0666 -0.1835
 1121DOPS   C4B13155   5.237  27.787  12.951 -0.1341 -0.1238  0.2935
 1122DOPC   NC313156   3.094  30.372  10.369  0.1602 -0.3256  0.0054
 1122DOPC   PO413157   3.232  30.685  10.591  0.0461  0.2893 -0.1046
 1122DOPC   GL113158   3.022  30.501  10.927 -0.2217  0.0169 -0.1282
 1122DOPC   GL213159   3.053  30.208  10.867 -0.0659 -0.0403  0.1081
 1122DOPC   C1A13160   2.826  30.756  11.313  0.0089 -0.2196 -0.0186
 1122DOPC   D2A13161   2.589  30.728  11.700  0.0385 -0.0518  0.0436
 1122DOPC   C3A13162   2.277  31.025  11.868 -0.1895 -0.0303  0.2464
 1122DOPC   C4A13163   2.097  30.986  12.334 -0.4367 -0.2492 -0.0426
 1122DOPC   C1B13164   3.026  30.247  11.324 -0.0861  0.1224 -0.3661
 1122DOPC   D2B13165   2.958  30.426  11.763 -0.4590 -0.1724 -0.2786
 1122DOPC   C3B13166   2.570  30.407  12.079 -0.0080  0.2417 -0.1486
 1122DOPC   C4B13167   2.174  30.503  12.277 -0.1637 -0.3130  0.0727
 1123DOPE   NH313168  10.732  21.310   9.624 -0.1215  0.0187  0.1460
 1123DOPE   PO413169  11.023  21.394   9.718  0.1572 -0.2443  0.1404
 1123DOPE   GL113170  10.824  21.423  10.124  0.1327  0.0458 -0.1625
 1123DOPE   GL213171  10.854  21.148  10.207 -0.1632  0.0911 -0.0614
 1123DOPE   C1A13172  10.731  21.507  10.604 -0.3993  0.1101 -0.0934
 1123DOPE   D2A13173  10.529  21.866  10.869 -0.2800  0.3016  0.0102
 1123DOPE   C3A13174  10.597  22.182  11.148 -0.0576  0.3259 -0.0084
 1123DOPE   C4A13175  10.718  22.557  11.396  0.2391 -0.1832  0.2117
 1123DOPE   C1B13176  11.101  21.073  10.597 -0.0479  0.1348  0.0361
 1123DOPE   D2B13177  11.317  21.093  11.020  0.2461 -0.2955  0.1549
 1123DOPE   C3B13178  11.097  21.461  11.056  0.1456 -0.1503  0.3542
 1123DOPE   C4B13179  10.768  21.643  11.249  0.0642  0.3383 -0.1573
 1124DOPE   NH313180  34.364   2.593  12.423  0.2502  0.0881  0.1962
 1124DOPE   PO413181  34.105   2.542  12.227  0.2090  0.1345 -0.2265
 1124DOPE   GL113182  33.978   2.329  12.613  0.4421  0.0939 -0.3248
 1124DOPE   GL213183  34.027   2.575  12.749  0.1886  0.0344 -0.2583
 1124DOPE   C1A13184  33.645   2.352  12.977 -0.3843 -0.2361 -0.0766
 1124DOPE   D2A13185  33.407   2.457  13.371 -0.3624  0.2209  0.2186
 1124DOPE   C3A13186  33.420   2.509  13.805  0.0071  0.2208 -0.3012
 1124DOPE   C4A13187  33.524   2.556  14.286  0.1012  0.0333 -0.0961
 1124DOPE   C1B13188  34.227   2.753  13.138  0.1770 -0.1358 -0.0070
 1124DOPE   D2B13189  34.391   2.909  13.504 -0.0567  0.3715  0.1468
 1124DOPE   C3B13190  34.574   3.274  13.747  0.1444  0.1813 -0.0289
 1124DOPE   C4B13191  34.860   3.258  14.127  0.1984 -0.4456  0.0803
 1125POSM   NC313192   6.688  24.863  10.128 -0.6362 -0.2223  0.4207
 1125POSM   PO413193   6.834  24.908  10.462  0.1970 -0.1206  0.1948
 1125POSM   AM113194   6.816  24.807  10.733 -0.1428  0.1471  0.0431
 1125POSM   AM213195   6.981  24.827  10.971 -0.0341 -0.3598 -0.4283
 1125POSM   T1A13196   6.475  24.760  11.089 -0.0043  0.0262  0.1835
 1125POSM   C2A13197   6.431  24.580  11.545 -0.1898 -0.1284 -0.0806
 1125POSM   C3A13198   6.326  24.768  11.974 -0.0030 -0.2550  0.1955
 1125POSM   C1B13199   7.086  24.770  11.339  0.0260  0.1913  0.1713
 1125POSM   D2B13200   7.409  24.479  11.613 -0.0818  0.1992  0.1793
 1125POSM   C3B13201   7.315  24.526  12.052  0.0190 -0.0298 -0.1117
 1125POSM   C4B13202   7.212  24.600  12.499 -0.1275 -0.4143 -0.0375
 1126DOPS   CNO13203   8.866  32.479  12.184  0.0819  0.0093 -0.0683
 1126DOPS   PO413204   8.596  32.295  12.108  0.0523 -0.1220  0.1647
 1126DOPS   GL113205   8.478  32.205  12.407  0.1139 -0.0197 -0.0449
 1126DOPS   GL213206   8.304  32.007  12.419  0.2334  0.0102 -0.4037
 1126DOPS   C1A13207   8.551  32.247  12.858  0.0968  0.3244 -0.0241
 1126DOPS   D2A13208   8.807  32.319  13.260  0.0615  0.1502 -0.2437
 1126DOPS   C3A13209   8.725  32.433  13.737 -0.0440 -0.3954  0.3549
 1126DOPS   C4A13210   8.695  32.420  14.264  0.2300  0.1537  0.1353
 1126DOPS   C1B13211   8.219  31.874  12.843  0.4713  0.2036  0.1527
 1126DOPS   D2B13212   8.208  31.771  13.258 -0.0556  0.1540 -0.3557
 1126DOPS   C3B13213   7.744  31.801  13.350  0.1492  0.0959  0.2307
 1126DOPS   C4B13214   7.338  31.938  13.531 -0.1521  0.0086 -0.1534
 1127DOPC   NC313215   6.059  25.250  10.910  0.4309  0.5868  0.2351
 1127DOPC   PO413216   5.944  25.013  10.597 -0.0196  0.0345  0.0718
 1127DOPC   GL113217   5.994  24.831  11.035  0.1791  0.0103 -0.1685
 1127DOPC   GL213218   5.908  24.559  10.954  0.0129 -0.1327 -0.1866
 1127DOPC   C1A13219   6.106  24.935  11.468  0.2305  0.1608 -0.0256
 1127DOPC   D2A13220   6.393  25.210  11.730 -0.1947  0.0811 -0.0345
 1127DOPC   C3A13221   6.298  25.358  12.158  0.2656  0.0086  0.1997
 1127DOPC   C4A13222   6.311  25.268  12.632 -0.0432 -0.1450 -0.1936
 1127DOPC   C1B13223   5.994  24.425  11.372 -0.0207 -0.2759  0.1005
 1127DOPC   D2B13224   5.948  24.380  11.880  0.2066 -0.0438 -0.4315
 1127DOPC   C3B13225   5.955  23.951  12.070  0.3343 -0.2308  0.3249
 1127DOPC   C4B13226   5.608  23.699  12.275 -0.1682 -0.1464  0.2350
 1128DOPE   NH313227  33.955  26.371  10.325  0.0688  0.1504  0.2223
 1128DOPE   PO413228  33.721  26.462  10.512 -0.2172 -0.0421 -0.1482
 1128DOPE   GL113229  33.702  26.188  10.735 -0.0013 -0.0231 -0.2790
 1128DOPE   GL213230  33.954  26.081  10.793 -0.3478 -0.3115  0.2076
 1128DOPE   C1A13231  33.530  26.102  11.166 -0.2313 -0.1764 -0.2769
 1128DOPE   D2A13232  33.239  25.913  11.440  0.0215 -0.0776 -0.0580
 1128DOPE   C3A13233  33.301  26.229  11.748  0.1108  0.1389 -0.3285
 1128DOPE   C4A13234  33.456  26.540  12.042  0.0492 -0.0889  0.2154
 1128DOPE   C1B13235  34.001  26.326  11.164 -0.2192 -0.1642 -0.5066
 1128DOPE   D2B13236  34.099  26.140  11.600  0.1910 -0.0225  0.0693
 1128DOPE   C3B13237  33.681  25.908  11.739 -0.2761  0.1842 -0.1313
 1128DOPE   C4B13238  33.385  25.830  12.094 -0.5378 -0.2308 -0.0329
 1129DOPS   CNO13239   6.882  23.968  10.599  0.0187 -0.0066  0.0804
 1129DOPS   PO413240   7.196  23.953  10.399 -0.0793  0.2640 -0.2788
 1129DOPS   GL113241   7.242  23.627  10.732  0.0414 -0.4483  0.1296
 1129DOPS   GL213242   6.971  23.488  10.772 -0.0646  0.0758  0.3441
 1129DOPS   C1A13243   7.499  23.501  11.100 -0.0029  0.0933 -0.2205
 1129DOPS   D2A13244   7.486  23.474  11.553 -0.3159  0.2475  0.2946
 1129DOPS   C3A13245   7.040  23.495  11.760 -0.3001 -0.1288 -0.3492
 1129DOPS   C4A13246   6.641  23.304  11.629 -0.1695  0.1814 -0.1040
 1129DOPS   C1B13247   6.651  23.630  11.122  0.1533 -0.4671 -0.3928
 1129DOPS   D2B13248   6.671  23.866  11.560  0.0834  0.1472 -0.1306
 1129DOPS   C3B13249   6.449  24.144  11.905 -0.0962  0.1707  0.1807
 1129DOPS   C4B13250   6.257  24.364  12.286 -0.0142  0.1333 -0.4558
 1130DOPS   CNO13251  10.555  30.965  12.261 -0.1462 -0.2322  0.1534
 1130DOPS   PO413252  10.626  30.613  12.322 -0.0552 -0.2170 -0.1445
 1130DOPS   GL113253  10.585  30.443  12.643 -0.1301 -0.0939  0.2390
 1130DOPS   GL213254  10.797  30.430  12.776  0.0356  0.0381  0.0700
 1130DOPS   C1A13255  10.464  30.409  13.139  0.0290  0.1496  0.0988
 1130DOPS   D2A13256  10.390  30.559  13.541  0.2748 -0.2920  0.0365
 1130DOPS   C3A13257  10.060  30.832  13.699  0.1766  0.2506 -0.1290
 1130DOPS   C4A13258   9.804  31.256  13.788 -0.0121  0.0325 -0.1693
 1130DOPS   C1B13259  10.901  30.731  13.155 -0.0056 -0.0673  0.0476
 1130DOPS   D2B13260  11.160  30.656  13.536  0.3556 -0.0335 -0.2005
 1130DOPS   C3B13261  11.193  30.975  13.851  0.2756 -0.0983  0.2500
 1130DOPS   C4B13262  11.100  31.206  14.211  0.0414  0.2797 -0.0445
 1131DOPE   NH313263   0.803   0.523  11.887  0.1768 -0.0792  0.1916
 1131DOPE   PO413264   0.663   0.348  12.116  0.1377  0.1074 -0.0070
 1131DOPE   GL113265   0.671   0.039  12.283 -0.2792  0.2036 -0.1119
 1131DOPE   GL213266   0.956  -0.011  12.417  0.0394 -0.0953  0.2342
 1131DOPE   C1A13267   0.440  -0.094  12.689 -0.0193 -0.1785  0.0062
 1131DOPE   D2A13268   0.414  -0.309  13.068  0.0586  0.0517 -0.1051
 1131DOPE   C3A13269   0.074  -0.631  13.149 -0.1334 -0.0583 -0.0011
 1131DOPE   C4A13270  -0.241  -0.923  13.211  0.0123  0.2350  0.2321
 1131DOPE   C1B13271   0.819  -0.321  12.742  0.1396 -0.2711 -0.0529
 1131DOPE   D2B13272   0.852  -0.639  13.046 -0.3614  0.0776 -0.1505
 1131DOPE   C3B13273   1.287  -0.679  13.160  0.2859  0.1812  0.1662
 1131DOPE   C4B13274   1.712  -0.647  12.996  0.0166 -0.1246 -0.1114
 1132DOPE   NH313275   6.828  29.754  11.416  0.1913  0.2333 -0.0666
 1132DOPE   PO413276   6.944  29.481  11.498 -0.0153 -0.1295  0.1825
 1132DOPE   GL113277   7.045  29.611  11.891  0.3239 -0.0893  0.1661
 1132DOPE   GL213278   7.102  29.881  11.875  0.0532 -0.2712  0.1397
 1132DOPE   C1A13279   7.041  29.532  12.371  0.3725 -0.1836  0.1117
 1132DOPE   D2A13280   7.264  29.323  12.768  0.0348 -0.0493 -0.0149
 1132DOPE   C3A13281   7.648  28.982  12.776 -0.0537 -0.1407 -0.0786
 1132DOPE   C4A13282   7.839  28.813  12.459 -0.2537 -0.1109 -0.2287
 1132DOPE   C1B13283   7.043  30.073  12.327 -0.0575 -0.2261 -0.0378
 1132DOPE   D2B13284   6.894  30.178  12.740  0.2531 -0.2191  0.0924
 1132DOPE   C3B13285   6.493  30.406  12.779  0.0938  0.1512  0.2111
 1132DOPE   C4B13286   6.173  30.610  12.614 -0.0943  0.1548  0.0984
 1133POSM   NC313287  10.752  21.744   9.431 -0.0782 -0.1465 -0.0930
 1133POSM   PO413288  10.384  21.683   9.526 -0.0423 -0.0191 -0.1208
 1133POSM   AM113289  10.425  21.623   9.839  0.0204  0.0928  0.2417
 1133POSM   AM213290  10.382  21.396  10.016 -0.0175  0.0919  0.1763
 1133POSM   T1A13291  10.557  21.799  10.281  0.1936 -0.2216 -0.1043
 1133POSM   C2A13292  10.713  22.151  10.471 -0.2764 -0.0126 -0.1831
 1133POSM   C3A13293  10.814  22.445  10.815 -0.0570 -0.1263  0.0951
 1133POSM   C1B13294  10.382  21.218  10.276  0.1690 -0.1210  0.2303
 1133POSM   D2B13295  10.466  20.937  10.579 -0.1748 -0.0646 -0.1443
 1133POSM   C3B13296  10.271  20.524  10.573  0.2317  0.0176  0.1259
 1133POSM   C4B13297  10.279  20.060  10.756 -0.0689  0.1525 -0.3165
 1134DOPC   NC313298   8.372  27.476  11.397  0.1628 -0.3501  0.1197
 1134DOPC   PO413299   8.775  27.528  11.467  0.1023 -0.2481 -0.0696
 1134DOPC   GL113300   8.675  27.391  11.777 -0.0086  0.3861 -0.1847
 1134DOPC   GL213301   8.826  27.263  11.983 -0.1792 -0.0614  0.1067
 1134DOPC   C1A13302   8.368  27.505  12.102 -0.2561 -0.0179  0.2749
 1134DOPC   D2A13303   8.226  27.596  12.607 -0.0456  0.3791  0.0027
 1134DOPC   C3A13304   7.876  27.315  12.752 -0.2186 -0.1716  0.3839
 1134DOPC   C4A13305   7.741  26.985  13.065 -0.2181 -0.4727  0.0304
 1134DOPC   C1B13306   8.861  27.174  12.432 -0.0048 -0.0781  0.3035
 1134DOPC   D2B13307   8.857  26.946  12.793 -0.0062  0.0513  0.1935
 1134DOPC   C3B13308   9.200  26.839  13.111 -0.1289  0.0238 -0.0884
 1134DOPC   C4B13309   9.080  26.602  13.445  0.1240 -0.0919  0.0377
 1135DOPC   NC313310   4.462  30.106  11.024  0.0367  0.0259  0.0467
 1135DOPC   PO413311   4.328  30.277  11.297 -0.3559  0.1889  0.0573
 1135DOPC   GL113312   4.204  30.311  11.586 -0.0747  0.1184 -0.5620
 1135DOPC   GL213313   4.042  30.036  11.656 -0.0939 -0.3141  0.1374
 1135DOPC   C1A13314   4.366  30.007  11.998 -0.0219 -0.0858  0.0735
 1135DOPC   D2A13315   4.253  29.994  12.518 -0.1151  0.0331 -0.1739
 1135DOPC   C3A13316   4.008  29.601  12.587  0.0078  0.0674  0.2036
 1135DOPC   C4A13317   3.540  29.583  12.581 -0.1045 -0.0546 -0.0806
 1135DOPC   C1B13318   3.604  29.831  11.686  0.2438  0.2303 -0.1113
 1135DOPC   D2B13319   3.348  29.581  12.018  0.3071  0.2703 -0.0549
 1135DOPC   C3B13320   3.105  29.838  12.375  0.1889 -0.0759 -0.2671
 1135DOPC   C4B13321   3.259  30.046  12.714 -0.0879  0.1901 -0.1968
 1136DOPE   NH313322   9.324  34.376  13.054 -0.2644 -0.0521 -0.0931
 1136DOPE   PO413323   9.602  34.380  13.123  0.1864  0.1903  0.0092
 1136DOPE   GL113324   9.573  34.227  13.446 -0.3255  0.0012  0.1074
 1136DOPE   GL213325   9.766  34.443  13.656 -0.0591  0.2365 -0.1541
 1136DOPE   C1A13326   9.568  33.879  13.706  0.0979  0.0435  0.0079
 1136DOPE   D2A13327   9.533  33.798  14.137  0.2189 -0.2473 -0.1555
 1136DOPE   C3A13328   9.168  33.532  14.296 -0.3009  0.2105 -0.0248
 1136DOPE   C4A13329   8.930  33.615  14.646  0.1603 -0.0513  0.1072
 1136DOPE   C1B13330   9.773  34.205  14.068  0.0881 -0.1431  0.2921
 1136DOPE   D2B13331  10.188  34.231  14.341 -0.2801  0.0276  0.2820
 1136DOPE   C3B13332  10.555  34.097  14.111  0.0937 -0.0093  0.2344
 1136DOPE   C4B13333  10.975  33.946  14.265 -0.2110  0.0326 -0.0142
 1137POSM   NC313334  10.502  32.949  12.698  0.1858  0.2169  0.2344
 1137POSM   PO413335  10.703  33.323  12.584 -0.2336  0.0675 -0.1738
 1137POSM   AM113336  10.822  33.330  12.864  0.3739  0.6202  0.0395
 1137POSM   AM213337  11.061  33.244  13.070 -0.0212 -0.2782 -0.3343
 1137POSM   T1A13338  10.705  33.483  13.344  0.0116  0.0829  0.0923
 1137POSM   C2A13339  10.604  33.705  13.770 -0.0132 -0.0268 -0.1271
 1137POSM   C3A13340  10.614  33.551  14.206  0.0690 -0.1471  0.1567
 1137POSM   C1B13341  11.424  33.279  13.140  0.0516  0.2502 -0.3555
 1137POSM   D2B13342  11.876  33.410  13.129  0.0584 -0.2141  0.0549
 1137POSM   C3B13343  11.983  33.293  13.589 -0.0550  0.0197  0.1044
 1137POSM   C4B13344  11.924  33.192  14.021  0.1335  0.0496  0.0941
 1138DOPE   NH313345   6.287  29.145  11.986 -0.2427  0.0862  0.0806
 1138DOPE   PO413346   6.273  29.420  12.204  0.0440  0.1329  0.0123
 1138DOPE   GL113347   6.186  29.473  12.625  0.0730  0.0718 -0.0220
 1138DOPE   GL213348   6.443  29.466  12.711 -0.1132  0.0098  0.2981
 1138DOPE   C1A13349   6.006  29.861  12.819  0.0524  0.0091 -0.0887
 1138DOPE   D2A13350   5.820  30.268  12.959 -0.1916  0.1082 -0.3374
 1138DOPE   C3A13351   5.838  30.409  13.393  0.0464  0.0428  0.2292
 1138DOPE   C4A13352   5.741  30.726  13.747  0.0138 -0.0942  0.0933
 1138DOPE   C1B13353   6.775  29.342  13.052  0.1563  0.0405  0.1954
 1138DOPE   D2B13354   6.978  29.244  13.477 -0.2215 -0.1583  0.0883
 1138DOPE   C3B13355   6.891  28.844  13.688 -0.1948  0.1337 -0.0675
 1138DOPE   C4B13356   6.802  28.495  13.937  0.0708  0.1454 -0.3928
 1139DOPC   NC313357   8.903  28.928  11.907  0.0907 -0.0143 -0.1514
 1139DOPC   PO413358   8.801  28.529  11.985 -0.0720  0.1790 -0.0666
 1139DOPC   GL113359   8.961  28.433  12.395  0.2937  0.1440  0.0252
 1139DOPC   GL213360   8.965  28.706  12.498  0.1766 -0.2375 -0.1966
 1139DOPC   C1A13361   9.097  28.078  12.621 -0.1029 -0.1805  0.4290
 1139DOPC   D2A13362   9.351  27.920  12.937 -0.1597 -0.6823 -0.0113
 1139DOPC   C3A13363   9.798  27.922  12.825  0.0048  0.0008  0.2212
 1139DOPC   C4A13364  10.135  27.583  12.537  0.0306  0.0069  0.0298
 1139DOPC   C1B13365   9.298  28.529  12.741 -0.0267 -0.0395  0.1178
 1139DOPC   D2B13366   9.595  28.352  13.058 -0.1791 -0.1630  0.1641
 1139DOPC   C3B13367   9.754  28.509  13.440 -0.0959 -0.1316  0.2251
 1139DOPC   C4B13368   9.735  28.858  13.830 -0.1522  0.0233 -0.0910
 1140DOPS   CNO13369   1.437  25.802  10.450  0.0036  0.0287 -0.3364
 1140DOPS   PO413370   1.373  26.060  10.645 -0.1224 -0.0428 -0.1370
 1140DOPS   GL113371   1.167  25.952  10.932  0.0372 -0.1879  0.0376
 1140DOPS   GL213372   1.390  25.808  11.134  0.1254 -0.1067 -0.1627
 1140DOPS   C1A13373   0.912  25.694  11.220  0.1146  0.1714  0.2272
 1140DOPS   D2A13374   0.824  25.512  11.636 -0.0541  0.1838  0.1845
 1140DOPS   C3A13375   1.189  25.450  11.921 -0.0853  0.2778 -0.3538
 1140DOPS   C4A13376   1.582  25.463  12.147 -0.1596 -0.0847  0.0177
 1140DOPS   C1B13377   1.297  25.873  11.538 -0.1311 -0.1902  0.0468
 1140DOPS   D2B13378   0.935  26.088  11.724  0.2072  0.1415  0.0678
 1140DOPS   C3B13379   0.758  26.166  12.183  0.0593  0.0134  0.1935
 1140DOPS   C4B13380   0.841  26.365  12.573  0.1497  0.1925  0.0491
 1141DOPE   NH313381   6.068  32.710  12.010 -0.0318  0.1420 -0.1803
 1141DOPE   PO413382   5.924  32.848  12.262  0.1573 -0.2321  0.0057
 1141DOPE   GL113383   5.753  32.935  12.626 -0.3599 -0.0563 -0.0043
 1141DOPE   GL213384   5.496  32.778  12.512 -0.0296  0.2207  0.1088
 1141DOPE   C1A13385   5.824  32.790  13.060 -0.1805  0.1701  0.5288
 1141DOPE   D2A13386   5.543  32.651  13.388  0.1946  0.1486  0.0477
 1141DOPE   C3A13387   5.650  32.578  13.815  0.0177  0.1631 -0.3478
 1141DOPE   C4A13388   5.704  32.424  14.262  0.2843  0.1877 -0.2296
 1141DOPE   C1B13389   5.356  32.634  12.929  0.2719  0.0803  0.0568
 1141DOPE   D2B13390   5.016  32.605  13.219  0.1760 -0.0067  0.4168
 1141DOPE   C3B13391   4.771  32.943  13.512  0.0364  0.0483 -0.0560
 1141DOPE   C4B13392   4.647  33.186  13.854  0.0205 -0.1941 -0.1896
 1142DOPE   NH313393   5.206  28.339  10.952  0.1100  0.2220  0.1736
 1142DOPE   PO413394   5.156  28.635  10.888  0.1803  0.0192  0.2326
 1142DOPE   GL113395   5.006  28.567  11.280 -0.2536  0.2769  0.4937
 1142DOPE   GL213396   5.088  28.346  11.427 -0.0358 -0.0315 -0.1987
 1142DOPE   C1A13397   4.634  28.330  11.465  0.0747  0.0392  0.4728
 1142DOPE   D2A13398   4.240  28.411  11.643  0.1505 -0.2731 -0.0331
 1142DOPE   C3A13399   4.050  28.420  12.014 -0.0294 -0.0612 -0.0349
 1142DOPE   C4A13400   4.079  28.200  12.375 -0.0051  0.3252  0.0796
 1142DOPE   C1B13401   4.930  27.945  11.652  0.1338 -0.0736 -0.0432
 1142DOPE   D2B13402   4.753  27.675  11.951  0.0068  0.1009  0.3753
 1142DOPE   C3B13403   4.732  27.994  12.253  0.1486  0.1207 -0.0539
 1142DOPE   C4B13404   4.951  28.192  12.632  0.2701 -0.2203 -0.2610
 1143DOPS   CNO13405  11.180   1.914  12.597 -0.1704  0.1240 -0.3441
 1143DOPS   PO413406  11.370   1.836  12.926  0.1831  0.0240  0.0985
 1143DOPS   GL113407  11.482   1.669  13.298  0.3123  0.0060  0.0410
 1143DOPS   GL213408  11.497   1.398  13.248  0.1296 -0.0466  0.3452
 1143DOPS   C1A13409  11.297   1.614  13.733  0.0119  0.2390  0.1244
 1143DOPS   D2A13410  11.190   1.241  14.000 -0.0701  0.1556  0.0057
 1143DOPS   C3A13411  11.192   1.248  14.478  0.5560  0.3279  0.1262
 1143DOPS   C4A13412  11.202   1.196  14.922  0.1305  0.3510  0.0744
 1143DOPS   C1B13413  11.133   1.161  13.485  0.0317 -0.1080  0.1239
 1143DOPS   D2B13414  10.784   1.376  13.685 -0.2018  0.1395  0.3521
 1143DOPS   C3B13415  10.659   1.283  14.157 -0.1181  0.1468 -0.0043
 1143DOPS   C4B13416  10.697   1.135  14.578  0.1553 -0.0749 -0.1321
 1144DOPE   NH313417   9.982  24.494  10.024 -0.3531  0.0758  0.3679
 1144DOPE   PO413418   9.718  24.374  10.185 -0.2161  0.0685 -0.0933
 1144DOPE   GL113419   9.902  24.051  10.475  0.0172  0.0962  0.1036
 1144DOPE   GL213420   9.980  23.763  10.473 -0.0164 -0.2629  0.0243
 1144DOPE   C1A13421   9.950  24.119  10.924  0.0712 -0.3821 -0.0959
 1144DOPE   D2A13422   9.945  24.040  11.367 -0.1051 -0.2554 -0.0265
 1144DOPE   C3A13423  10.341  23.837  11.404  0.2604  0.0273  0.0730
 1144DOPE   C4A13424  10.584  23.781  11.740  0.5403  0.0276  0.0942
 1144DOPE   C1B13425  10.283  23.563  10.781  0.1092 -0.1330 -0.0298
 1144DOPE   D2B13426  10.450  23.385  11.217  0.0883  0.0423  0.0178
 1144DOPE   C3B13427  10.341  23.248  11.628  0.0627 -0.1807 -0.5903
 1144DOPE   C4B13428  10.370  23.147  12.078 -0.0775  0.0342  0.0551
 1145DOPS   CNO13429   4.887  22.409   9.881  0.1731  0.0941 -0.1800
 1145DOPS   PO413430   5.121  22.259  10.097 -0.0383 -0.1186 -0.3509
 1145DOPS   GL113431   4.850  22.127  10.430  0.3315  0.4469  0.1986
 1145DOPS   GL213432   4.981  22.325  10.598 -0.0087  0.4041 -0.2809
 1145DOPS   C1A13433   5.025  21.850  10.783  0.0103 -0.1004 -0.0740
 1145DOPS   D2A13434   5.366  21.921  11.040 -0.1250 -0.2779 -0.1551
 1145DOPS   C3A13435   5.672  22.050  11.345 -0.1862 -0.1415 -0.0079
 1145DOPS   C4A13436   5.962  21.893  11.628 -0.0781 -0.1761  0.0531
 1145DOPS   C1B13437   5.227  22.420  11.028 -0.1422 -0.1229 -0.0246
 1145DOPS   D2B13438   5.028  22.183  11.321  0.1869 -0.0036  0.1924
 1145DOPS   C3B13439   4.825  22.139  11.749  0.0235 -0.0974  0.0491
 1145DOPS   C4B13440   4.956  22.195  12.169  0.0161 -0.0381 -0.0365
 1146DOPS   CNO13441  11.539  23.858   9.902  0.1890  0.0057 -0.0100
 1146DOPS   PO413442  11.449  23.705  10.198  0.0540  0.0396  0.1049
 1146DOPS   GL113443  11.707  23.558  10.402 -0.4888  0.0824  0.3660
 1146DOPS   GL213444  11.616  23.761  10.649 -0.0455 -0.0295 -0.1251
 1146DOPS   C1A13445  11.861  23.339  10.794  0.2395 -0.5046 -0.2907
 1146DOPS   D2A13446  11.667  23.092  11.118  0.1989 -0.2647 -0.2457
 1146DOPS   C3A13447  11.814  23.118  11.558 -0.0341  0.2897 -0.2925
 1146DOPS   C4A13448  11.683  23.127  11.992 -0.2052 -0.1769  0.0556
 1146DOPS   C1B13449  11.388  23.513  10.962  0.0526  0.3335 -0.2963
 1146DOPS   D2B13450  11.023  23.227  10.970  0.4348  0.2309  0.0487
 1146DOPS   C3B13451  11.168  22.902  11.217  0.1529  0.1708 -0.1362
 1146DOPS   C4B13452  11.264  22.493  11.094  0.0256 -0.0624 -0.0013
 1147DOPC   NC313453   4.098  24.008  10.347  0.1540  0.0998  0.0798
 1147DOPC   PO413454   3.929  23.636  10.375  0.2300  0.1342  0.2799
 1147DOPC   GL113455   3.976  23.528  10.780 -0.0354 -0.2837  0.2295
 1147DOPC   GL213456   4.069  23.268  10.693 -0.1466 -0.1283 -0.1535
 1147DOPC   C1A13457   4.139  23.539  11.160  0.2833 -0.3017  0.1307
 1147DOPC   D2A13458   4.380  23.438  11.490  0.2876 -0.1778 -0.5464
 1147DOPC   C3A13459   4.256  23.318  11.878 -0.0162  0.0244 -0.1664
 1147DOPC   C4A13460   4.328  23.059  12.233  0.1557 -0.0589 -0.2693
 1147DOPC   C1B13461   4.187  23.041  11.172 -0.0415  0.0702  0.1190
 1147DOPC   D2B13462   4.284  22.916  11.597  0.2037 -0.2169  0.2625
 1147DOPC   C3B13463   4.299  22.444  11.688  0.3577  0.1485  0.1435
 1147DOPC   C4B13464   4.483  22.183  11.314  0.0367 -0.1924  0.2198
 1148DOPC   NC313465  11.615  28.894  12.173 -0.0244 -0.1257  0.0347
 1148DOPC   PO413466  11.410  29.227  12.314  0.1768  0.3119  0.1530
 1148DOPC   GL113467  11.707  29.223  12.549  0.1067  0.1328 -0.1777
 1148DOPC   GL213468  11.679  29.506  12.567  0.0379 -0.5680  0.1224
 1148DOPC   C1A13469  12.040  29.051  12.849 -0.0950  0.1758  0.3742
 1148DOPC   D2A13470  12.167  28.644  13.125  0.2010 -0.0382  0.3656
 1148DOPC   C3A13471  11.808  28.388  13.273  0.0619 -0.2287  0.3211
 1148DOPC   C4A13472  11.848  27.995  13.553 -0.0752  0.0904 -0.2451
 1148DOPC   C1B13473  11.591  29.366  13.004  0.3831  0.2524 -0.3364
 1148DOPC   D2B13474  11.522  29.359  13.456  0.2348  0.3433 -0.1751
 1148DOPC   C3B13475  11.848  29.541  13.797  0.1752 -0.0130 -0.2741
 1148DOPC   C4B13476  12.219  29.724  13.745  0.1383 -0.1252  0.1269
 1149DOPE   NH313477   7.055  24.458  10.576 -0.3054 -0.0457 -0.1488
 1149DOPE   PO413478   6.837  24.403  10.323  0.1599  0.1591 -0.0116
 1149DOPE   GL113479   6.621  24.310  10.695 -0.0313  0.0722  0.1173
 1149DOPE   GL213480   6.753  24.375  10.919 -0.1080 -0.0845 -0.1421
 1149DOPE   C1A13481   6.432  24.051  11.072 -0.2060 -0.5113 -0.2152
 1149DOPE   D2A13482   6.138  23.971  11.441 -0.2614  0.5372  0.1895
 1149DOPE   C3A13483   6.293  23.656  11.773  0.3150  0.0322 -0.1056
 1149DOPE   C4A13484   6.569  23.405  12.094 -0.0726  0.1546  0.0650
 1149DOPE   C1B13485   6.828  24.317  11.353  0.1389  0.1070 -0.0633
 1149DOPE   D2B13486   6.921  24.405  11.769  0.0300  0.0716 -0.0982
 1149DOPE   C3B13487   6.749  24.469  12.163  0.2194  0.1837  0.2135
 1149DOPE   C4B13488   6.558  24.868  12.383 -0.0588 -0.1747  0.2282
 1150DOPC   NC313489  10.154  33.941  12.687 -0.2915 -0.1012  0.0353
 1150DOPC   PO413490  10.244  33.535  12.628  0.2362 -0.0388 -0.1264
 1150DOPC   GL113491  10.127  33.520  12.930 -0.0259  0.1164  0.2147
 1150DOPC   GL213492  10.365  33.277  13.032 -0.0219 -0.3314  0.0858
 1150DOPC   C1A13493   9.995  33.635  13.367 -0.1731  0.3335 -0.0580
 1150DOPC   D2A13494  10.186  33.441  13.765  0.0141  0.4283 -0.0721
 1150DOPC   C3A13495  10.100  33.314  14.222 -0.0212  0.1884 -0.0629
 1150DOPC   C4A13496   9.653  33.331  14.390  0.1389  0.0892  0.1523
 1150DOPC   C1B13497  10.416  33.103  13.475  0.0389  0.0338  0.2695
 1150DOPC   D2B13498  10.499  33.072  13.937 -0.0380 -0.0910  0.0734
 1150DOPC   C3B13499  10.918  33.115  14.163  0.1965 -0.2720  0.0090
 1150DOPC   C4B13500  11.290  32.932  14.429 -0.2201  0.0579 -0.1499
 1151POSM   NC313501   6.147  26.153  10.707 -0.1683 -0.4831 -0.2104
 1151POSM   PO413502   6.453  26.358  10.571  0.0577 -0.1859 -0.1996
 1151POSM   AM113503   6.485  26.356  10.896 -0.2534 -0.0745  0.1927
 1151POSM   AM213504   6.379  26.558  11.084 -0.1332 -0.0740 -0.4451
 1151POSM   T1A13505   6.629  26.061  11.277 -0.3272 -0.1479 -0.0587
 1151POSM   C2A13506   6.492  25.776  11.567 -0.3453  0.0405  0.0248
 1151POSM   C3A13507   6.127  25.479  11.417  0.0662  0.1791 -0.0022
 1151POSM   C1B13508   6.391  26.471  11.414  0.0947  0.1124 -0.0356
 1151POSM   D2B13509   6.496  26.261  11.791 -0.1465  0.1012 -0.1802
 1151POSM   C3B13510   6.829  25.946  11.822  0.0525  0.3051 -0.1447
 1151POSM   C4B13511   6.983  25.650  12.073 -0.0903 -0.1081 -0.2254
 1152DOPC   NC313512   4.382  33.878  11.366  0.2761  0.1542  0.0706
 1152DOPC   PO413513   4.381  33.595  11.076 -0.4945 -0.3131 -0.0573
 1152DOPC   GL113514   4.011  33.600  11.301 -0.1858 -0.0365  0.0649
 1152DOPC   GL213515   3.982  33.290  11.299  0.0380 -0.1950  0.0185
 1152DOPC   C1A13516   3.962  33.476  11.747 -0.3257 -0.2476  0.1262
 1152DOPC   D2A13517   3.600  33.370  12.020  0.1043  0.2446 -0.0238
 1152DOPC   C3A13518   3.356  33.052  12.156  0.0825  0.0850  0.2525
 1152DOPC   C4A13519   2.984  33.117  12.417 -0.3592  0.0699 -0.0340
 1152DOPC   C1B13520   3.565  33.134  11.594  0.1003  0.3476 -0.1647
 1152DOPC   D2B13521   3.229  32.823  11.688 -0.0283 -0.3213  0.0362
 1152DOPC   C3B13522   3.099  32.693  11.301  0.1337 -0.0228  0.1307
 1152DOPC   C4B13523   2.712  32.796  11.032 -0.2937 -0.2128  0.2552
 1153DOPC   NC313524   8.195  30.156  11.328  0.2254  0.1401 -0.0001
 1153DOPC   PO413525   8.001  30.325  11.587  0.3581 -0.1463 -0.3249
 1153DOPC   GL113526   7.970  30.317  12.004 -0.2218 -0.3671  0.1351
 1153DOPC   GL213527   7.965  30.012  12.074  0.0689 -0.1585 -0.3924
 1153DOPC   C1A13528   7.737  30.416  12.383  0.0756  0.2033  0.0391
 1153DOPC   D2A13529   7.750  30.791  12.710  0.0840 -0.1501  0.2683
 1153DOPC   C3A13530   7.962  30.798  13.087  0.1446  0.0520  0.0653
 1153DOPC   C4A13531   8.154  30.434  13.299 -0.0556 -0.0868 -0.0540
 1153DOPC   C1B13532   7.572  29.968  12.274  0.0445 -0.0722  0.0214
 1153DOPC   D2B13533   7.421  29.940  12.711  0.1193 -0.2048  0.1513
 1153DOPC   C3B13534   7.116  29.768  12.915 -0.0352  0.2868 -0.0371
 1153DOPC   C4B13535   6.949  29.769  13.348 -0.0595  0.3368 -0.0656
 1154DOPE   NH313536   5.620  33.401  11.629 -0.0489  0.1641  0.1365
 1154DOPE   PO413537   5.297  33.328  11.642 -0.5313  0.0071  0.2381
 1154DOPE   GL113538   5.035  33.246  11.954 -0.1601 -0.0832  0.1143
 1154DOPE   GL213539   4.814  33.372  11.923 -0.2686  0.1723  0.0303
 1154DOPE   C1A13540   5.181  33.148  12.408 -0.2850  0.1849  0.1752
 1154DOPE   D2A13541   5.419  33.185  12.843 -0.0636  0.0009  0.1505
 1154DOPE   C3A13542   5.325  33.139  13.286 -0.0277  0.0255  0.1547
 1154DOPE   C4A13543   5.403  33.085  13.751  0.0121 -0.1996  0.5646
 1154DOPE   C1B13544   4.718  33.406  12.360 -0.1266 -0.0833  0.2274
 1154DOPE   D2B13545   5.072  33.535  12.617 -0.2881  0.2117  0.4105
 1154DOPE   C3B13546   5.098  33.538  13.043 -0.1228 -0.0332  0.3549
 1154DOPE   C4B13547   4.963  33.415  13.473  0.1066 -0.3812 -0.0731
 1155DOPE   NH313548   3.335   0.647  12.491 -0.2003 -0.2819  0.1935
 1155DOPE   PO413549   3.377   0.765  12.778  0.0514  0.4623  0.0309
 1155DOPE   GL113550   3.191   0.410  12.913  0.2644  0.0159 -0.3166
 1155DOPE   GL213551   3.025   0.340  12.720 -0.1458  0.2286  0.3081
 1155DOPE   C1A13552   3.310   0.079  13.250 -0.0922  0.0388 -0.1697
 1155DOPE   D2A13553   2.989  -0.068  13.533  0.3267 -0.0474  0.2276
 1155DOPE   C3A13554   2.607  -0.253  13.422 -0.1594  0.0127  0.2660
 1155DOPE   C4A13555   2.340  -0.648  13.518  0.0505 -0.3094 -0.0246
 1155DOPE   C1B13556   2.901  -0.061  12.965 -0.3803 -0.1080  0.1726
 1155DOPE   D2B13557   3.107  -0.406  13.205  0.1482  0.1076  0.3233
 1155DOPE   C3B13558   2.791  -0.740  13.302  0.2710  0.2480 -0.0966
 1155DOPE   C4B13559   2.914  -1.120  13.462  0.1691  0.1723 -0.0859
 1156DOPC   NC313560   0.712  32.365  10.690  0.2787  0.0513  0.0593
 1156DOPC   PO413561   0.692  31.995  10.798  0.1233  0.5086 -0.1251
 1156DOPC   GL113562   0.720  31.883  11.117 -0.0169  0.1504  0.4498
 1156DOPC   GL213563   1.040  31.750  11.110 -0.1207 -0.2143 -0.0762
 1156DOPC   C1A13564   0.675  31.558  11.430 -0.0038  0.0606 -0.1502
 1156DOPC   D2A13565   0.722  31.619  11.846  0.3408 -0.1173 -0.3675
 1156DOPC   C3A13566   0.494  31.873  12.121  0.2464 -0.0876  0.2353
 1156DOPC   C4A13567   0.160  31.838  12.458  0.0264  0.1966 -0.0210
 1156DOPC   C1B13568   1.236  31.740  11.519 -0.0052 -0.0289 -0.3457
 1156DOPC   D2B13569   1.252  31.691  11.982 -0.1305  0.0026  0.0509
 1156DOPC   C3B13570   1.345  31.698  12.471  0.0464  0.0665  0.0327
 1156DOPC   C4B13571   1.415  31.588  12.894  0.0397  0.0448  0.1785
 1157DOPE   NH313572  11.974  28.285  11.795  0.0584 -0.2562  0.1671
 1157DOPE   PO413573  11.652  28.341  11.852 -0.2032 -0.3859 -0.0539
 1157DOPE   GL113574  11.645  28.224  12.195  0.3081 -0.0457  0.0771
 1157DOPE   GL213575  11.855  28.475  12.301 -0.0148 -0.0508  0.2009
 1157DOPE   C1A13576  11.762  28.059  12.609  0.1539 -0.3017  0.2362
 1157DOPE   D2A13577  11.768  27.724  12.944 -0.0967 -0.0837  0.2426
 1157DOPE   C3A13578  11.904  27.251  12.870 -0.0232  0.0229  0.1213
 1157DOPE   C4A13579  11.994  26.838  13.114 -0.1980 -0.0228  0.2570
 1157DOPE   C1B13580  11.754  28.689  12.688  0.1170 -0.4391 -0.0734
 1157DOPE   D2B13581  11.701  28.896  13.127 -0.2228  0.4382 -0.1720
 1157DOPE   C3B13582  11.828  28.913  13.522  0.0285 -0.2646 -0.0606
 1157DOPE   C4B13583  11.683  29.008  13.943  0.3233 -0.0065  0.0651
 1158DOPS   CNO13584   6.325  34.257  12.303 -0.0125 -0.3581 -0.4001
 1158DOPS   PO413585   6.392  34.213  12.678  0.0052  0.1109  0.1275
 1158DOPS   GL113586   6.297  33.836  12.884  0.1028  0.3219 -0.4656
 1158DOPS   GL213587   6.033  33.886  12.985  0.2703  0.2018  0.1076
 1158DOPS   C1A13588   6.414  33.617  13.282 -0.0374  0.1108  0.4674
 1158DOPS   D2A13589   6.751  33.477  13.587 -0.0671  0.0345 -0.0260
 1158DOPS   C3A13590   6.657  33.031  13.598 -0.0089  0.3492 -0.0830
 1158DOPS   C4A13591   6.556  32.656  13.901  0.2668 -0.0982 -0.0415
 1158DOPS   C1B13592   6.033  33.890  13.438  0.0476 -0.3482  0.0150
 1158DOPS   D2B13593   6.005  33.667  13.870  0.2173 -0.1713 -0.1177
 1158DOPS   C3B13594   6.274  33.273  13.827 -0.2290 -0.0540 -0.0332
 1158DOPS   C4B13595   6.684  33.190  14.079  0.2118 -0.0150  0.0667
 1159DOPC   NC313596   5.419  34.394  12.572  0.1097  0.1803  0.0444
 1159DOPC   PO413597   5.338  34.673  12.855  0.0700 -0.1235  0.1673
 1159DOPC   GL113598   5.229  34.637  13.207  0.2271 -0.0089  0.1280
 1159DOPC   GL213599   4.920  34.639  13.227 -0.3697  0.3703 -0.0785
 1159DOPC   C1A13600   5.080  34.435  13.642  0.0887  0.1326 -0.2334
 1159DOPC   D2A13601   5.063  34.158  14.064 -0.1476 -0.1478  0.0624
 1159DOPC   C3A13602   4.755  34.299  14.337 -0.1916  0.1582 -0.2439
 1159DOPC   C4A13603   4.417  34.568  14.181  0.4811  0.0959 -0.0996
 1159DOPC   C1B13604   4.545  34.433  13.499 -0.1151 -0.0048  0.2190
 1159DOPC   D2B13605   4.530  34.128  13.876  0.1817 -0.2399 -0.0832
 1159DOPC   C3B13606   4.078  34.287  13.913 -0.1099 -0.1130  0.2247
 1159DOPC   C4B13607   3.809  34.604  13.914  0.2405 -0.2000  0.1992
 1160POSM   NC313608   9.647  30.530  11.957 -0.5559 -0.2081  0.3166
 1160POSM   PO413609   9.405  30.621  12.230  0.0414 -0.1492 -0.0505
 1160POSM   AM113610   9.451  30.542  12.554 -0.1379 -0.0165  0.1552
 1160POSM   AM213611   9.380  30.303  12.703  0.0617  0.0481  0.0479
 1160POSM   T1A13612   9.806  30.414  12.894  0.0879  0.4694 -0.1468
 1160POSM   C2A13613   9.893  30.511  13.348  0.0148 -0.0255  0.1038
 1160POSM   C3A13614   9.604  30.510  13.777 -0.2436 -0.4844  0.0330
 1160POSM   C1B13615   9.285  30.415  12.993 -0.1201 -0.0992 -0.1256
 1160POSM   D2B13616   9.251  30.399  13.452 -0.3371  0.0516 -0.2159
 1160POSM   C3B13617   9.146  30.431  13.878  0.0781 -0.0697 -0.0060
 1160POSM   C4B13618   8.704  30.498  14.103 -0.1638  0.1683  0.1361
 1161DOPC   NC313619   4.094  29.441  11.220 -0.1803  0.0232 -0.0722
 1161DOPC   PO413620   4.087  29.837  11.232  0.2784 -0.1092  0.0843
 1161DOPC   GL113621   3.750  30.025  11.251 -0.4462  0.2390 -0.1200
 1161DOPC   GL213622   3.450  29.964  11.209  0.0628 -0.0667  0.2170
 1161DOPC   C1A13623   3.515  30.302  11.508 -0.0994  0.2821  0.5033
 1161DOPC   D2A13624   3.314  30.701  11.389  0.1124  0.1109 -0.0131
 1161DOPC   C3A13625   3.040  30.905  11.740 -0.0212  0.1589 -0.2218
 1161DOPC   C4A13626   2.886  31.166  12.094 -0.1309  0.1517  0.0055
 1161DOPC   C1B13627   3.429  29.500  11.355  0.0252 -0.2865 -0.2769
 1161DOPC   D2B13628   3.134  29.308  11.707  0.3812 -0.1464  0.0277
 1161DOPC   C3B13629   3.157  29.112  12.162 -0.1081  0.1470 -0.2824
 1161DOPC   C4B13630   3.167  29.240  12.627 -0.1822 -0.0560 -0.0200
 1162POSM   NC313631   6.717  31.126  12.299  0.1061 -0.3565 -0.1820
 1162POSM   PO413632   6.372  31.214  12.127 -0.2078  0.1306  0.0289
 1162POSM   AM113633   6.301  31.034  12.410  0.0590  0.3662 -0.2876
 1162POSM   AM213634   6.147  31.071  12.658 -0.0492 -0.2280 -0.2322
 1162POSM   T1A13635   6.563  30.971  12.827 -0.0721  0.1352 -0.1124
 1162POSM   C2A13636   6.674  31.031  13.273  0.1039 -0.1070 -0.1395
 1162POSM   C3A13637   6.414  31.017  13.639  0.1126  0.2118 -0.1536
 1162POSM   C1B13638   6.125  31.147  13.013  0.0364  0.1455  0.3500
 1162POSM   D2B13639   5.995  31.018  13.437  0.0253  0.0863 -0.1899
 1162POSM   C3B13640   5.654  31.205  13.730  0.0426  0.3767 -0.2879
 1162POSM   C4B13641   5.632  31.649  13.927 -0.3513 -0.1264 -0.1545
 1163DOPE   NH313642   4.286  28.882  10.794  0.0052  0.2153 -0.0183
 1163DOPE   PO413643   4.391  29.201  10.864  0.2134 -0.2276 -0.1935
 1163DOPE   GL113644   4.418  29.121  11.139  0.0946  0.1897  0.1388
 1163DOPE   GL213645   4.272  28.910  11.305 -0.0801  0.1708 -0.0629
 1163DOPE   C1A13646   4.481  29.346  11.551 -0.0868 -0.3735  0.0722
 1163DOPE   D2A13647   4.106  29.578  11.738 -0.2783 -0.1387 -0.0399
 1163DOPE   C3A13648   3.853  29.415  12.132  0.1322  0.1062 -0.1112
 1163DOPE   C4A13649   3.637  29.148  12.448 -0.4015 -0.2952  0.1929
 1163DOPE   C1B13650   4.010  28.814  11.706  0.1316 -0.5023  0.2951
 1163DOPE   D2B13651   3.771  28.851  12.081 -0.0527  0.0727 -0.1649
 1163DOPE   C3B13652   3.833  28.682  12.538  0.1787 -0.0801 -0.0918
 1163DOPE   C4B13653   3.979  28.391  12.871  0.0347 -0.1409  0.1077
 1164DOPE   NH313654  10.647  28.464  11.771 -0.3008 -0.0945  0.0838
 1164DOPE   PO413655  10.781  28.437  12.067  0.0827 -0.0657 -0.0228
 1164DOPE   GL113656  10.942  28.370  12.525  0.1347 -0.1517 -0.0643
 1164DOPE   GL213657  11.196  28.198  12.507  0.1699  0.0393 -0.0907
 1164DOPE   C1A13658  10.940  28.437  12.921  0.1238  0.1131 -0.0940
 1164DOPE   D2A13659  10.781  28.770  13.171 -0.1213 -0.3009  0.2816
 1164DOPE   C3A13660  10.662  28.825  13.668  0.1466  0.4697  0.1828
 1164DOPE   C4A13661  10.643  29.120  14.021  0.0041  0.1559 -0.1486
 1164DOPE   C1B13662  11.079  27.922  12.872 -0.0482  0.0518  0.1543
 1164DOPE   D2B13663  10.916  27.619  13.199 -0.0885  0.1295  0.0648
 1164DOPE   C3B13664  10.591  27.755  13.527 -0.2346  0.0290  0.1064
 1164DOPE   C4B13665  10.224  27.577  13.702 -0.3438 -0.1899  0.0042
 1165DOPS   CNO13666   7.226  22.005   9.767  0.0436 -0.3175  0.2391
 1165DOPS   PO413667   7.486  22.015  10.023 -0.2207 -0.0972 -0.0184
 1165DOPS   GL113668   7.358  22.132  10.413  0.4350 -0.0915  0.1632
 1165DOPS   GL213669   7.088  21.980  10.400  0.0316 -0.1816  0.0249
 1165DOPS   C1A13670   7.645  21.870  10.761  0.0373 -0.0648  0.0718
 1165DOPS   D2A13671   7.758  21.574  11.118 -0.1337 -0.0223 -0.1515
 1165DOPS   C3A13672   8.022  21.260  10.920  0.1431  0.2815 -0.0188
 1165DOPS   C4A13673   8.357  21.151  10.613 -0.1811  0.1240  0.0001
 1165DOPS   C1B13674   7.146  21.881  10.842 -0.1133  0.0163 -0.0520
 1165DOPS   D2B13675   7.369  21.895  11.201  0.2439 -0.0067  0.1854
 1165DOPS   C3B13676   7.096  21.709  11.465 -0.0257 -0.0234  0.0192
 1165DOPS   C4B13677   7.109  21.321  11.774  0.0410  0.1020  0.0933
 1166DOPE   NH313678   3.622  25.526  10.306 -0.1532 -0.0149 -0.2744
 1166DOPE   PO413679   3.486  25.242  10.288  0.0579 -0.0573  0.1674
 1166DOPE   GL113680   3.606  25.084  10.646 -0.1136 -0.1485 -0.2313
 1166DOPE   GL213681   3.889  25.291  10.686 -0.0579 -0.1149  0.0596
 1166DOPE   C1A13682   3.430  25.092  11.084 -0.0965 -0.4395  0.1110
 1166DOPE   D2A13683   3.541  24.761  11.387  0.1337  0.2421 -0.1359
 1166DOPE   C3A13684   3.625  24.745  11.800  0.0179  0.0796  0.0793
 1166DOPE   C4A13685   3.655  24.466  12.127 -0.3134 -0.0902 -0.1709
 1166DOPE   C1B13686   3.948  25.113  11.123  0.3598  0.2188 -0.1172
 1166DOPE   D2B13687   4.053  24.940  11.548  0.2982  0.2869 -0.0490
 1166DOPE   C3B13688   3.992  25.097  11.914  0.1201  0.1465 -0.0174
 1166DOPE   C4B13689   3.901  25.381  12.316 -0.1330  0.0436  0.2133
 1167DOPE   NH313690   9.839  23.512   9.854 -0.3308 -0.1237 -0.3182
 1167DOPE   PO413691   9.748  23.290  10.101 -0.0393  0.0728 -0.1295
 1167DOPE   GL113692   9.857  23.108  10.515  0.1776 -0.1440 -0.1631
 1167DOPE   GL213693   9.885  22.858  10.524 -0.0880 -0.0504 -0.3094
 1167DOPE   C1A13694   9.650  23.088  10.928  0.0597 -0.0359  0.0373
 1167DOPE   D2A13695   9.686  22.893  11.322 -0.1911  0.0877 -0.2360
 1167DOPE   C3A13696   9.496  23.033  11.728  0.1252 -0.1295  0.0504
 1167DOPE   C4A13697   9.410  23.254  12.065  0.0417  0.0683 -0.1614
 1167DOPE   C1B13698  10.162  23.039  10.858  0.1415  0.0782  0.2643
 1167DOPE   D2B13699  10.204  22.880  11.359  0.2364 -0.1513  0.2156
 1167DOPE   C3B13700  10.115  22.450  11.466 -0.3773 -0.0232  0.0913
 1167DOPE   C4B13701  10.390  22.131  11.662  0.0303  0.1923  0.0783
 1168POSM   NC313702   9.686   1.989  13.539  0.2334  0.0965  0.1568
 1168POSM   PO413703   9.739   1.630  13.401 -0.1003  0.0962 -0.0856
 1168POSM   AM113704   9.889   1.450  13.660  0.0662  0.1704  0.0059
 1168POSM   AM213705  10.120   1.302  13.608 -0.0954 -0.0743 -0.1645
 1168POSM   T1A13706   9.976   1.165  14.047  0.2790  0.2166  0.0742
 1168POSM   C2A13707  10.211   1.113  14.442 -0.0737 -0.1082 -0.0279
 1168POSM   C3A13708  10.204   1.061  14.890 -0.2593 -0.0725  0.2022
 1168POSM   C1B13709  10.309   1.469  13.863  0.1609  0.0712  0.1308
 1168POSM   D2B13710  10.328   1.734  14.271 -0.2129  0.4329 -0.3342
 1168POSM   C3B13711  10.696   1.699  14.514 -0.0325 -0.0972 -0.1005
 1168POSM   C4B13712  11.020   1.677  14.884  0.2416  0.2190  0.1707
 1169DOPC   NC313713  12.781  33.231  12.588  0.0581 -0.1967  0.1155
 1169DOPC   PO413714  12.785  33.348  12.183  0.3033 -0.0506  0.2035
 1169DOPC   GL113715  13.167  33.235  12.408 -0.1755  0.0094 -0.0854
 1169DOPC   GL213716  13.171  32.952  12.415 -0.4541  0.1653  0.2478
 1169DOPC   C1A13717  13.202  33.292  12.872 -0.0530  0.1797 -0.0727
 1169DOPC   D2A13718  13.425  33.473  13.227 -0.2539 -0.0079  0.0930
 1169DOPC   C3A13719  13.322  33.840  13.441 -0.2127  0.0115 -0.0620
 1169DOPC   C4A13720  13.304  33.917  13.944  0.0435  0.0993 -0.1767
 1169DOPC   C1B13721  13.435  32.837  12.750 -0.0297 -0.0768  0.1173
 1169DOPC   D2B13722  13.670  33.012  13.109  0.3668  0.0740 -0.2516
 1169DOPC   C3B13723  13.499  33.058  13.542 -0.0818 -0.1048  0.1953
 1169DOPC   C4B13724  13.082  33.154  13.681 -0.0007  0.0135 -0.3488
 1170DOPC   NC313725   5.420  22.905  10.617 -0.1761 -0.2439 -0.1807
 1170DOPC   PO413726   5.263  22.706  10.360 -0.1109  0.1601  0.2061
 1170DOPC   GL113727   5.535  22.449  10.517 -0.1287 -0.1112 -0.2020
 1170DOPC   GL213728   5.427  22.222  10.465 -0.0190  0.2648 -0.0320
 1170DOPC   C1A13729   5.715  22.452  10.963  0.2145 -0.1234  0.0498
 1170DOPC   D2A13730   6.014  22.377  11.334 -0.0549  0.2241  0.3790
 1170DOPC   C3A13731   5.951  22.746  11.696  0.1405 -0.0033  0.2304
 1170DOPC   C4A13732   6.177  23.105  11.906  0.0467  0.4902  0.3449
 1170DOPC   C1B13733   5.802  21.996  10.651 -0.3630 -0.2247  0.2042
 1170DOPC   D2B13734   6.118  21.996  10.996  0.2197  0.0308 -0.0142
 1170DOPC   C3B13735   6.399  21.880  11.368  0.2707  0.0184  0.1320
 1170DOPC   C4B13736   6.586  21.745  11.721 -0.2581  0.1409  0.0580
 1171DOPE   NH313737   3.610  23.861  10.706  0.3927  0.1123  0.0146
 1171DOPE   PO413738   3.591  24.039  10.969  0.1423  0.1103  0.0542
 1171DOPE   GL113739   3.499  24.264  11.357 -0.1301 -0.0791  0.3074
 1171DOPE   GL213740   3.819  24.387  11.385 -0.3156 -0.0490  0.0946
 1171DOPE   C1A13741   3.259  24.468  11.710  0.1373  0.0810  0.2054
 1171DOPE   D2A13742   3.150  24.390  12.123  0.0395  0.2773  0.1667
 1171DOPE   C3A13743   2.987  24.567  12.570  0.0263  0.0353 -0.0809
 1171DOPE   C4A13744   2.681  24.300  12.850 -0.1442 -0.3637 -0.1863
 1171DOPE   C1B13745   4.066  24.276  11.790 -0.0119  0.2041  0.4122
 1171DOPE   D2B13746   4.468  24.286  12.041  0.0376  0.1435 -0.0479
 1171DOPE   C3B13747   4.463  24.007  12.429 -0.3050  0.0736  0.1827
 1171DOPE   C4B13748   4.502  23.902  12.875 -0.1218 -0.3449  0.0930
 1172DOPE   NH313749   9.223  28.234  11.700  0.0175 -0.1089  0.1136
 1172DOPE   PO413750   9.461  28.055  11.803 -0.1193 -0.0350 -0.1005
 1172DOPE   GL113751   9.491  27.958  12.149 -0.0533 -0.2368 -0.0034
 1172DOPE   GL213752   9.539  28.170  12.374  0.0686  0.2565  0.0776
 1172DOPE   C1A13753   9.134  27.667  12.338  0.1802  0.4971  0.0076
 1172DOPE   D2A13754   8.680  27.781  12.488 -0.0510 -0.0173  0.1327
 1172DOPE   C3A13755   8.658  27.563  12.903  0.0556 -0.2660  0.1056
 1172DOPE   C4A13756   8.693  27.308  13.211 -0.1310  0.0730  0.1690
 1172DOPE   C1B13757   9.878  28.400  12.571 -0.3931  0.3769 -0.0275
 1172DOPE   D2B13758   9.995  28.806  12.769 -0.0741  0.0805 -0.2056
 1172DOPE   C3B13759   9.892  29.025  13.173 -0.2671  0.0278 -0.4457
 1172DOPE   C4B13760   9.614  29.270  13.447 -0.0790  0.1456  0.0714
 1173POSM   NC313761   8.105  23.244  10.356  0.1469 -0.1060  0.3841
 1173POSM   PO413762   7.821  22.959  10.390 -0.0212  0.1444  0.1032
 1173POSM   AM113763   7.790  22.732  10.646 -0.1046 -0.0159 -0.2090
 1173POSM   AM213764   7.703  22.486  10.621 -0.0603  0.0466 -0.1734
 1173POSM   T1A13765   7.935  22.641  11.159  0.1154 -0.0553 -0.0531
 1173POSM   C2A13766   7.832  22.549  11.610 -0.2586  0.0224  0.1259
 1173POSM   C3A13767   7.728  22.584  12.051  0.1201  0.2139 -0.2311
 1173POSM   C1B13768   7.477  22.486  10.853  0.2264  0.3298  0.0519
 1173POSM   D2B13769   7.443  22.490  11.318 -0.2708  0.0934 -0.1139
 1173POSM   C3B13770   7.420  22.239  11.736 -0.1435 -0.0477  0.0899
 1173POSM   C4B13771   7.372  22.227  12.219  0.3147  0.0042  0.4043
 1174POSM   NC313772   8.402  28.672  11.629  0.3117  0.1364  0.0917
 1174POSM   PO413773   8.341  28.269  11.735 -0.1367  0.0127  0.1921
 1174POSM   AM113774   8.241  28.219  12.031 -0.2406 -0.0039 -0.0760
 1174POSM   AM213775   8.344  28.170  12.284 -0.1210  0.0967  0.2277
 1174POSM   T1A13776   7.966  27.863  12.214 -0.1273  0.2341  0.2970
 1174POSM   C2A13777   7.680  27.751  12.587  0.2312  0.5478 -0.1077
 1174POSM   C3A13778   7.487  27.528  12.937  0.0502 -0.0622 -0.0974
 1174POSM   C1B13779   8.350  28.095  12.623  0.0656  0.3020  0.0216
 1174POSM   D2B13780   8.374  28.153  13.050 -0.0007 -0.3340  0.0232
 1174POSM   C3B13781   8.426  28.518  13.346  0.1428  0.2858  0.1196
 1174POSM   C4B13782   8.151  28.808  13.543 -0.0656 -0.0681 -0.0215
 1175POSM   NC313783   1.803   0.472  11.560 -0.0672  0.0213 -0.1329
 1175POSM   PO413784   1.665   0.226  11.838 -0.0672  0.1219 -0.0590
 1175POSM   AM113785   1.739   0.194  12.176 -0.0757  0.0278 -0.1385
 1175POSM   AM213786   1.893   0.297  12.348 -0.3714 -0.0486 -0.0647
 1175POSM   T1A13787   1.507   0.050  12.619  0.3277 -0.1413 -0.2807
 1175POSM   C2A13788   1.276  -0.258  12.909 -0.3690 -0.1009 -0.0508
 1175POSM   C3A13789   1.001  -0.184  13.259  0.0449 -0.4233  0.0104
 1175POSM   C1B13790   2.021   0.014  12.506 -0.0054  0.2227 -0.2308
 1175POSM   D2B13791   2.218  -0.387  12.479  0.1120  0.1279 -0.1484
 1175POSM   C3B13792   2.189  -0.604  12.888 -0.0796 -0.2265 -0.0171
 1175POSM   C4B13793   2.056  -0.957  13.166  0.0886  0.2327  0.0659
 1176POSM   NC313794  11.117  26.446  10.491 -0.2371  0.0519  0.4500
 1176POSM   PO413795  11.278  26.071  10.489  0.0289  0.0701  0.0506
 1176POSM   AM113796  11.183  25.797  10.701 -0.0005  0.2181 -0.0476
 1176POSM   AM213797  10.956  25.620  10.729  0.1207 -0.1330  0.0215
 1176POSM   T1A13798  11.304  25.477  11.010  0.0550  0.0661 -0.1484
 1176POSM   C2A13799  11.583  25.114  11.059  0.5944 -0.0400  0.3138
 1176POSM   C3A13800  11.950  24.807  11.085 -0.3705  0.0420 -0.0528
 1176POSM   C1B13801  10.785  25.570  11.007 -0.1263  0.0541 -0.1169
 1176POSM   D2B13802  10.922  25.520  11.433  0.1110  0.0149 -0.0126
 1176POSM   C3B13803  10.812  25.409  11.880  0.4700 -0.0561  0.0839
 1176POSM   C4B13804  11.008  25.257  12.295  0.0992  0.2955  0.1749
 1177DOPC   NC313805   4.422  28.033  10.398  0.1058 -0.1174 -0.1364
 1177DOPC   PO413806   4.082  28.133  10.202  0.0497 -0.0288 -0.3235
 1177DOPC   GL113807   3.934  28.046  10.535 -0.1710 -0.1367  0.3132
 1177DOPC   GL213808   4.084  27.756  10.614 -0.1933 -0.0676  0.0566
 1177DOPC   C1A13809   3.834  28.131  11.011 -0.0238  0.1333 -0.5364
 1177DOPC   D2A13810   3.892  27.992  11.451 -0.5173  0.3333 -0.2210
 1177DOPC   C3A13811   3.636  28.037  11.829 -0.0660  0.1921  0.0752
 1177DOPC   C4A13812   3.599  28.003  12.281  0.0492  0.0696  0.1174
 1177DOPC   C1B13813   3.825  27.607  10.910 -0.1707 -0.0611  0.3039
 1177DOPC   D2B13814   3.499  27.648  11.225  0.1137 -0.2334  0.3203
 1177DOPC   C3B13815   3.480  27.517  11.687 -0.1131 -0.1607 -0.2442
 1177DOPC   C4B13816   3.670  27.565  12.077 -0.1011  0.1471  0.0390
 1178DOPC   NC313817   8.854  22.393   9.928  0.1114  0.3064  0.0407
 1178DOPC   PO413818   9.029  22.645  10.197 -0.0181  0.0771 -0.0244
 1178DOPC   GL113819   9.148  22.425  10.477 -0.2079  0.0725  0.1267
 1178DOPC   GL213820   9.412  22.547  10.496  0.0813  0.0290 -0.0090
 1178DOPC   C1A13821   9.052  22.183  10.904 -0.0576  0.2121  0.3994
 1178DOPC   D2A13822   9.063  22.214  11.331 -0.0074  0.1770 -0.1323
 1178DOPC   C3A13823   9.198  22.304  11.786  0.0837 -0.0047 -0.1247
 1178DOPC   C4A13824   9.195  22.699  12.023 -0.2288 -0.2412 -0.0830
 1178DOPC   C1B13825   9.301  22.716  10.892 -0.3004 -0.1905  0.2574
 1178DOPC   D2B13826   9.163  23.065  11.175 -0.3061  0.0350  0.0421
 1178DOPC   C3B13827   8.704  23.153  11.279  0.0761 -0.0303  0.1796
 1178DOPC   C4B13828   8.463  23.085  11.654  0.1937 -0.0905  0.0896
 1179DOPE   NH313829   8.168  29.216  11.829  0.1707  0.0812 -0.2284
 1179DOPE   PO413830   8.461  29.102  11.851  0.0846  0.2539 -0.0709
 1179DOPE   GL113831   8.456  29.056  12.270 -0.3292  0.0667  0.1881
 1179DOPE   GL213832   8.251  29.196  12.321  0.3475 -0.0168  0.1150
 1179DOPE   C1A13833   8.658  29.144  12.669 -0.0210 -0.3194 -0.1716
 1179DOPE   D2A13834   8.970  28.935  12.936 -0.0751  0.2044 -0.3359
 1179DOPE   C3A13835   8.818  28.842  13.362  0.0178  0.0574  0.0671
 1179DOPE   C4A13836   8.648  28.704  13.825 -0.0692  0.1555  0.1912
 1179DOPE   C1B13837   8.163  29.214  12.816 -0.5609  0.4097 -0.0889
 1179DOPE   D2B13838   8.062  29.137  13.249 -0.2992  0.0338  0.1474
 1179DOPE   C3B13839   7.709  29.103  13.471 -0.2077  0.0474  0.2820
 1179DOPE   C4B13840   7.391  28.826  13.616  0.2025 -0.1456  0.2997
 1180DOPC   NC313841  10.072  29.380  12.081  0.1695 -0.2458  0.1109
 1180DOPC   PO413842   9.751  29.289  12.280 -0.0658  0.4224  0.2642
 1180DOPC   GL113843   9.822  29.202  12.556 -0.2753  0.2987  0.1266
 1180DOPC   GL213844   9.946  29.364  12.782 -0.1453  0.0337 -0.0224
 1180DOPC   C1A13845   9.479  28.997  12.817 -0.0561  0.0442 -0.2185
 1180DOPC   D2A13846   9.353  28.804  13.245 -0.1148  0.0487  0.0936
 1180DOPC   C3A13847   9.157  28.406  13.317 -0.1879 -0.1371 -0.0101
 1180DOPC   C4A13848   8.765  28.191  13.491  0.0360  0.1279  0.0581
 1180DOPC   C1B13849  10.020  29.556  13.154 -0.0752 -0.3602  0.0370
 1180DOPC   D2B13850   9.945  29.688  13.559 -0.2843 -0.3006  0.1512
 1180DOPC   C3B13851  10.137  29.707  13.998  0.1034  0.2881  0.1455
 1180DOPC   C4B13852  10.260  29.367  14.292  0.0232 -0.0105 -0.1779
 1181DOPC   NC313853  11.932  30.405  12.041  0.0871  0.0247 -0.0241
 1181DOPC   PO413854  11.694  30.469  12.355 -0.0567 -0.0448  0.0548
 1181DOPC   GL113855  11.705  30.728  12.708  0.2383  0.1722 -0.0439
 1181DOPC   GL213856  11.783  30.965  12.702 -0.0224 -0.3973 -0.2281
 1181DOPC   C1A13857  11.563  30.646  13.157  0.3109 -0.0320 -0.0098
 1181DOPC   D2A13858  11.683  30.497  13.534 -0.2582  0.0541  0.3104
 1181DOPC   C3A13859  11.613  30.682  13.908  0.2960  0.0640 -0.1842
 1181DOPC   C4A13860  11.691  31.078  14.171  0.0034 -0.2031  0.1491
 1181DOPC   C1B13861  11.903  31.000  13.137  0.2018 -0.1164  0.3020
 1181DOPC   D2B13862  12.090  30.840  13.581 -0.0184 -0.0313 -0.2215
 1181DOPC   C3B13863  12.297  30.987  13.969 -0.0093  0.0098 -0.0939
 1181DOPC   C4B13864  12.420  31.065  14.394 -0.3159 -0.1178  0.1376
 1182DOPS   CNO13865   8.644   0.321  13.239  0.1390  0.3112  0.0397
 1182DOPS   PO413866   8.815   0.007  13.221  0.1618 -0.2336 -0.0548
 1182DOPS   GL113867   8.666  -0.020  13.544 -0.0594 -0.1102  0.1373
 1182DOPS   GL213868   8.478  -0.286  13.492 -0.0603 -0.0872  0.2910
 1182DOPS   C1A13869   8.773  -0.077  13.969 -0.1338  0.0391  0.0395
 1182DOPS   D2A13870   8.648   0.019  14.406  0.0939  0.0825  0.1692
 1182DOPS   C3A13871   8.620   0.157  14.836  0.2354 -0.1570 -0.0797
 1182DOPS   C4A13872   8.606   0.482  15.155  0.1257 -0.0158  0.0360
 1182DOPS   C1B13873   8.320  -0.299  13.945  0.1265  0.0056  0.0865
 1182DOPS   D2B13874   8.129  -0.346  14.386 -0.0757 -0.0184  0.0773
 1182DOPS   C3B13875   8.305  -0.660  14.691 -0.4039  0.3577  0.1606
 1182DOPS   C4B13876   8.447  -1.062  14.904 -0.1624 -0.1087  0.1856
 1183POSM   NC313877   9.188  27.669  11.741 -0.1057 -0.3012 -0.0340
 1183POSM   PO413878   9.513  27.581  11.535 -0.0823 -0.0437  0.0700
 1183POSM   AM113879   9.679  27.437  11.790  0.1731 -0.2007  0.3017
 1183POSM   AM213880   9.570  27.455  12.070 -0.1086 -0.0461 -0.0429
 1183POSM   T1A13881  10.033  27.316  12.155 -0.1512  0.2971 -0.0358
 1183POSM   C2A13882   9.959  27.108  12.550 -0.0728  0.0277  0.1920
 1183POSM   C3A13883   9.844  26.907  13.036 -0.0105 -0.2963 -0.0486
 1183POSM   C1B13884   9.623  27.560  12.422 -0.0188  0.0333 -0.0482
 1183POSM   D2B13885   9.742  27.388  12.870 -0.1209  0.0189 -0.0880
 1183POSM   C3B13886   9.675  27.666  13.267 -0.1759  0.2344  0.3237
 1183POSM   C4B13887   9.327  27.863  13.467  0.1807 -0.3989  0.0119
 1184DOPS   CNO13888   7.820  33.242  12.695  0.0176 -0.5666 -0.2003
 1184DOPS   PO413889   7.924  32.884  12.521 -0.0233 -0.3232 -0.3575
 1184DOPS   GL113890   8.003  32.633  12.791  0.0767  0.0261  0.2656
 1184DOPS   GL213891   8.118  32.396  12.631 -0.0049 -0.0298 -0.0458
 1184DOPS   C1A13892   8.292  32.569  13.139  0.0776  0.1645 -0.2462
 1184DOPS   D2A13893   8.358  32.201  13.369 -0.0282  0.0716  0.0346
 1184DOPS   C3A13894   8.235  32.287  13.806  0.0613  0.1205 -0.1728
 1184DOPS   C4A13895   7.889  32.181  14.013  0.0172  0.1407 -0.1917
 1184DOPS   C1B13896   7.894  32.278  13.021  0.1460  0.2405 -0.1716
 1184DOPS   D2B13897   7.849  32.246  13.466  0.0919  0.1229  0.1206
 1184DOPS   C3B13898   8.094  31.821  13.715  0.1260  0.1355 -0.1735
 1184DOPS   C4B13899   8.007  31.595  14.105  0.3773  0.1087 -0.1951
 1185POSM   NC313900   3.686  28.855  10.209 -0.1521 -0.2448 -0.0993
 1185POSM   PO413901   4.026  28.820  10.394 -0.2447 -0.3968  0.0994
 1185POSM   AM113902   3.853  28.777  10.685 -0.1767 -0.4304 -0.3851
 1185POSM   AM213903   3.807  28.863  10.944  0.0482 -0.5454 -0.3118
 1185POSM   T1A13904   3.473  28.486  10.897  0.0064 -0.1056 -0.0043
 1185POSM   C2A13905   3.056  28.288  10.762 -0.0524  0.1462 -0.0693
 1185POSM   C3A13906   2.881  27.918  10.639  0.2850 -0.0900  0.0963
 1185POSM   C1B13907   3.751  29.056  11.240 -0.2136 -0.0382 -0.1215
 1185POSM   D2B13908   3.681  29.209  11.707 -0.2881  0.0061 -0.0815
 1185POSM   C3B13909   3.373  28.852  11.770  0.0467  0.0637 -0.4176
 1185POSM   C4B13910   2.982  28.648  11.980  0.0765  0.0324 -0.1364
 1186DOPC   NC313911   4.599  34.293  12.185  0.2970  0.0291 -0.1923
 1186DOPC   PO413912   4.960  34.418  12.317 -0.2623  0.0362  0.1020
 1186DOPC   GL113913   4.906  34.226  12.663  0.2294  0.0060  0.2466
 1186DOPC   GL213914   4.581  34.310  12.696 -0.3995 -0.4740  0.0966
 1186DOPC   C1A13915   4.643  33.831  12.656  0.3416 -0.1128  0.1009
 1186DOPC   D2A13916   4.653  33.433  12.862  0.1557 -0.0322 -0.0724
 1186DOPC   C3A13917   4.336  33.125  12.951 -0.0967 -0.1617 -0.0609
 1186DOPC   C4A13918   3.900  33.100  13.023  0.0746  0.1382 -0.1568
 1186DOPC   C1B13919   4.331  34.080  12.982  0.2578 -0.0045 -0.0898
 1186DOPC   D2B13920   4.192  34.073  13.404  0.2852 -0.0906 -0.2537
 1186DOPC   C3B13921   3.812  33.864  13.477  0.4564 -0.1090 -0.0756
 1186DOPC   C4B13922   3.369  33.618  13.460  0.0071  0.2647 -0.2617
 1187DOPC   NC313923   7.501  28.536  12.141 -0.2609 -0.2935  0.2145
 1187DOPC   PO413924   7.272  28.675  11.903 -0.1117  0.2313 -0.4509
 1187DOPC   GL113925   7.088  28.776  12.328 -0.4098  0.2326 -0.1846
 1187DOPC   GL213926   7.156  29.031  12.283  0.0061  0.3171  0.0700
 1187DOPC   C1A13927   7.181  28.809  12.790 -0.2081 -0.0741 -0.1303
 1187DOPC   D2A13928   7.059  28.715  13.207  0.1210 -0.3926  0.3787
 1187DOPC   C3A13929   7.026  28.390  13.463 -0.1309 -0.3921 -0.1715
 1187DOPC   C4A13930   6.990  28.022  13.701 -0.1166  0.0681 -0.2124
 1187DOPC   C1B13931   6.816  29.106  12.609  0.0240  0.2179 -0.2659
 1187DOPC   D2B13932   6.529  28.888  12.930  0.3057 -0.1647  0.1246
 1187DOPC   C3B13933   6.597  28.507  13.156  0.0316  0.1581  0.2530
 1187DOPC   C4B13934   6.493  28.307  13.533 -0.0628 -0.1272 -0.2233
 1188DOPC   NC313935   5.365  23.520  10.074  0.1503 -0.0258  0.2462
 1188DOPC   PO413936   5.559  23.365  10.348 -0.1337  0.0931  0.1623
 1188DOPC   GL113937   5.427  23.358  10.711  0.1582 -0.0041  0.0094
 1188DOPC   GL213938   5.240  23.286  10.859  0.1053 -0.1258  0.1556
 1188DOPC   C1A13939   5.660  23.250  11.094 -0.0450 -0.0821 -0.0904
 1188DOPC   D2A13940   5.620  23.124  11.532 -0.1009 -0.0209 -0.0317
 1188DOPC   C3A13941   5.696  23.039  11.964 -0.1622 -0.1956 -0.2047
 1188DOPC   C4A13942   5.592  23.213  12.410 -0.0680  0.0818  0.2042
 1188DOPC   C1B13943   5.273  22.927  11.161  0.0999 -0.1063 -0.0596
 1188DOPC   D2B13944   5.462  22.624  11.439  0.1201  0.1312  0.1270
 1188DOPC   C3B13945   5.262  22.532  11.829 -0.0187 -0.1622  0.1221
 1188DOPC   C4B13946   5.250  22.817  12.169  0.0405 -0.1569 -0.2103
 1189POSM   NC313947   9.350  33.360  12.585  0.0847 -0.0765 -0.0217
 1189POSM   PO413948   9.705  33.525  12.533 -0.1762  0.0321  0.0308
 1189POSM   AM113949   9.719  33.374  12.863  0.0428 -0.4321 -0.1343
 1189POSM   AM213950   9.566  33.414  13.090  0.1349  0.0287  0.1724
 1189POSM   T1A13951   9.961  33.082  13.184  0.2025  0.3523 -0.1609
 1189POSM   C2A13952   9.954  33.034  13.664  0.1474  0.3641 -0.3489
 1189POSM   C3A13953  10.077  32.843  14.079 -0.0865 -0.1167  0.1973
 1189POSM   C1B13954   9.631  33.384  13.436  0.4347 -0.0926 -0.1288
 1189POSM   D2B13955   9.650  33.390  13.871 -0.1173  0.0056 -0.4706
 1189POSM   C3B13956   9.421  33.044  14.028 -0.0344  0.2169 -0.3100
 1189POSM   C4B13957   8.951  32.969  13.965 -0.0896 -0.2158 -0.0330
 1190POSM   NC313958   2.809  25.980  10.914 -0.0905  0.1454 -0.1760
 1190POSM   PO413959   3.057  26.151  10.667 -0.0616 -0.1766  0.0543
 1190POSM   AM113960   3.145  26.339  10.926 -0.3164 -0.0201 -0.1896
 1190POSM   AM213961   3.100  26.365  11.218  0.1260  0.0106 -0.1016
 1190POSM   T1A13962   3.317  26.781  11.079  0.3078  0.1072 -0.4233
 1190POSM   C2A13963   3.563  27.117  11.280 -0.0323 -0.1981 -0.0082
 1190POSM   C3A13964   3.944  27.402  11.478  0.2388 -0.0527  0.0381
 1190POSM   C1B13965   3.141  26.435  11.539 -0.0320 -0.0765 -0.0023
 1190POSM   D2B13966   3.081  26.584  11.994  0.0553  0.1958 -0.2300
 1190POSM   C3B13967   3.133  27.045  12.014 -0.0682  0.0880 -0.2346
 1190POSM   C4B13968   3.384  27.178  12.338  0.0195  0.0044  0.2645
 1191DOPE   NH313969   7.725  27.707  11.024 -0.0643 -0.2765  0.0186
 1191DOPE   PO413970   7.963  27.763  11.221  0.1308 -0.2548 -0.0319
 1191DOPE   GL113971   7.881  27.504  11.441  0.0289 -0.2451  0.0461
 1191DOPE   GL213972   7.626  27.360  11.494 -0.1268  0.1382  0.1228
 1191DOPE   C1A13973   8.073  27.218  11.753  0.0196  0.1178 -0.0034
 1191DOPE   D2A13974   8.074  26.862  12.058  0.2747  0.4538 -0.0057
 1191DOPE   C3A13975   7.962  26.902  12.486 -0.2282 -0.0883  0.0730
 1191DOPE   C4A13976   7.723  26.635  12.714 -0.0150 -0.1905  0.1269
 1191DOPE   C1B13977   7.664  27.543  11.871 -0.0223 -0.1607 -0.4146
 1191DOPE   D2B13978   7.809  27.375  12.262  0.2349  0.0346 -0.0318
 1191DOPE   C3B13979   7.490  27.085  12.360 -0.1247  0.1565 -0.1260
 1191DOPE   C4B13980   7.306  27.060  12.806 -0.0277  0.0272 -0.0167
 1192DOPS   CNO13981  10.723  27.282  10.970 -0.0121 -0.2181  0.0109
 1192DOPS   PO413982  10.997  27.054  11.091  0.0037 -0.3696  0.0759
 1192DOPS   GL113983  10.854  26.753  11.368  0.0898 -0.1545  0.4249
 1192DOPS   GL213984  10.755  26.498  11.294 -0.0791  0.2039 -0.2038
 1192DOPS   C1A13985  10.746  26.722  11.829 -0.2596  0.2231 -0.0067
 1192DOPS   D2A13986  10.769  26.553  12.290  0.0582 -0.1239  0.0460
 1192DOPS   C3A13987  11.069  26.571  12.637  0.1568 -0.1544 -0.2033
 1192DOPS   C4A13988  11.021  26.553  13.119  0.0409 -0.1086 -0.0283
 1192DOPS   C1B13989  11.185  26.524  11.539 -0.0646 -0.0566 -0.0982
 1192DOPS   D2B13990  11.452  26.877  11.670 -0.0939  0.3856 -0.0958
 1192DOPS   C3B13991  11.719  26.892  11.967 -0.2141 -0.2504  0.1197
 1192DOPS   C4B13992  12.039  27.094  12.195  0.0218  0.1417 -0.0464
 1193DOPE   NH313993  10.411  34.429  12.544 -0.0091 -0.1237 -0.1042
 1193DOPE   PO413994  10.372  34.308  12.850  0.1259  0.3904  0.0488
 1193DOPE   GL113995  10.516  34.391  13.258  0.0960 -0.1519  0.0614
 1193DOPE   GL213996  10.432  34.094  13.411  0.0747  0.2410  0.1196
 1193DOPE   C1A13997  10.781  34.270  13.678 -0.1262  0.0057 -0.1219
 1193DOPE   D2A13998  11.124  34.358  14.030 -0.2462  0.0905 -0.2131
 1193DOPE   C3A13999  11.178  34.470  14.451  0.1377  0.1520  0.0923
 1193DOPE   C4A14000  11.346  34.362  14.905  0.1317  0.0698  0.1276
 1193DOPE   C1B14001  10.090  34.000  13.704 -0.0545  0.0476  0.0331
 1193DOPE   D2B14002  10.072  33.781  14.136 -0.4192  0.0207  0.1112
 1193DOPE   C3B14003  10.218  33.808  14.537  0.0804 -0.5395 -0.1298
 1193DOPE   C4B14004  10.224  34.029  14.957 -0.0704 -0.0087 -0.0800
 1194DOPC   NC314005   2.490  29.566  10.478 -0.1265 -0.1373 -0.3834
 1194DOPC   PO414006   2.872  29.714  10.420 -0.0259  0.5336  0.0233
 1194DOPC   GL114007   2.798  29.781  10.814 -0.2779  0.1784  0.0761
 1194DOPC   GL214008   2.964  29.540  10.974 -0.1124 -0.1304  0.0700
 1194DOPC   C1A14009   2.455  29.583  11.029  0.2873 -0.0584  0.1474
 1194DOPC   D2A14010   2.263  29.179  11.129  0.0792  0.2980  0.0402
 1194DOPC   C3A14011   2.249  29.101  11.589  0.1604 -0.0623 -0.0494
 1194DOPC   C4A14012   1.969  29.004  11.985  0.4474  0.3074  0.0987
 1194DOPC   C1B14013   2.964  29.685  11.384  0.2280  0.0020  0.2842
 1194DOPC   D2B14014   3.114  29.915  11.716  0.3706 -0.1504 -0.2369
 1194DOPC   C3B14015   3.367  30.191  12.059  0.2092 -0.1120  0.0181
 1194DOPC   C4B14016   3.435  30.474  12.483  0.1878 -0.3584  0.4585
 1195DOPC   NC314017   5.206  25.941  10.305 -0.0474  0.1193  0.4393
 1195DOPC   PO414018   4.883  25.997  10.411 -0.0156 -0.5710 -0.0860
 1195DOPC   GL114019   4.784  25.927  10.779 -0.1648 -0.1151  0.2857
 1195DOPC   GL214020   4.541  25.906  11.025  0.3829 -0.1573  0.1408
 1195DOPC   C1A14021   5.007  25.931  11.210 -0.2422 -0.2372  0.2159
 1195DOPC   D2A14022   5.128  26.145  11.608 -0.1036  0.0197 -0.3092
 1195DOPC   C3A14023   5.574  26.212  11.799  0.2064  0.0538 -0.2536
 1195DOPC   C4A14024   5.698  26.287  12.232 -0.0606  0.1729  0.0390
 1195DOPC   C1B14025   4.542  25.718  11.448 -0.3337 -0.1058 -0.0725
 1195DOPC   D2B14026   4.637  25.384  11.709  0.0927 -0.1923  0.0025
 1195DOPC   C3B14027   4.424  25.510  12.130  0.1829  0.2942  0.0442
 1195DOPC   C4B14028   4.483  25.508  12.564  0.2466  0.0994 -0.0776
 1196POSM   NC314029  11.459  28.026  11.196  0.0220 -0.1661  0.1984
 1196POSM   PO414030  11.784  27.847  11.339 -0.0587  0.0831 -0.1580
 1196POSM   AM114031  11.827  27.730  11.647  0.0286 -0.3397 -0.0078
 1196POSM   AM214032  11.834  27.852  11.947  0.4027  0.0657  0.1087
 1196POSM   T1A14033  12.204  27.552  11.930 -0.2537 -0.0746 -0.0426
 1196POSM   C2A14034  12.515  27.261  12.087  0.6829 -0.0039 -0.1248
 1196POSM   C3A14035  12.872  27.134  12.309 -0.2803 -0.1269 -0.2083
 1196POSM   C1B14036  11.996  27.872  12.217  0.2720  0.3026 -0.0861
 1196POSM   D2B14037  12.230  27.685  12.624 -0.0401 -0.2087  0.0451
 1196POSM   C3B14038  12.590  27.378  12.674  0.3132  0.0262 -0.1395
 1196POSM   C4B14039  12.829  26.980  12.792  0.1302  0.2940  0.0746
 1197POSM   NC314040   0.551  34.410  11.620  0.0103  0.1801 -0.0592
 1197POSM   PO414041   0.127  34.466  11.605  0.0419 -0.0253  0.2134
 1197POSM   AM114042   0.155  34.458  11.923 -0.2606 -0.2662 -0.1245
 1197POSM   AM214043   0.368  34.345  12.069 -0.0438  0.1224  0.0315
 1197POSM   T1A14044   0.054  34.536  12.419  0.4645 -0.3976 -0.3204
 1197POSM   C2A14045  -0.163  34.429  12.748  0.1868  0.1431  0.3490
 1197POSM   C3A14046  -0.105  34.374  13.189  0.0342 -0.4659  0.2179
 1197POSM   C1B14047   0.452  34.082  12.294 -0.0889 -0.0512 -0.0472
 1197POSM   D2B14048   0.424  33.771  12.642  0.1223  0.1313 -0.2055
 1197POSM   C3B14049   0.047  33.509  12.767 -0.0372 -0.1118  0.0983
 1197POSM   C4B14050  -0.140  33.104  12.925  0.0776  0.0632 -0.1794
 1198DOPS   CNO14051   8.713  25.690  10.467  0.0991  0.2850  0.1945
 1198DOPS   PO414052   8.872  25.897  10.790  0.0961 -0.0201 -0.2465
 1198DOPS   GL114053   8.908  25.726  11.154  0.2995  0.1289 -0.2079
 1198DOPS   GL214054   9.156  25.928  11.193 -0.1739  0.0831 -0.1392
 1198DOPS   C1A14055   9.158  25.463  11.418 -0.1937  0.2529  0.2453
 1198DOPS   D2A14056   9.459  25.333  11.765  0.0832  0.1161  0.1138
 1198DOPS   C3A14057   9.186  25.500  12.003  0.0226 -0.1387  0.0700
 1198DOPS   C4A14058   8.810  25.741  12.109 -0.0335  0.3362  0.1397
 1198DOPS   C1B14059   9.106  25.982  11.616  0.5138 -0.0867 -0.0875
 1198DOPS   D2B14060   8.892  26.196  12.015  0.0234  0.0099 -0.2082
 1198DOPS   C3B14061   8.961  26.192  12.476  0.3187  0.1248 -0.0194
 1198DOPS   C4B14062   8.928  26.424  12.841  0.0024  0.2743 -0.1359
 1199POSM   NC314063   1.683  23.426  10.833  0.0740 -0.0580 -0.2750
 1199POSM   PO414064   1.464  23.758  10.672 -0.4326  0.0170 -0.1065
 1199POSM   AM114065   1.521  23.895  10.953 -0.3965  0.2245  0.1237
 1199POSM   AM214066   1.744  23.918  11.082 -0.1269  0.2646  0.3408
 1199POSM   T1A14067   1.354  24.067  11.406  0.0825 -0.1577  0.1803
 1199POSM   C2A14068   1.275  24.178  11.859  0.1612  0.1665 -0.3266
 1199POSM   C3A14069   1.104  24.160  12.295  0.2031 -0.0720  0.1557
 1199POSM   C1B14070   1.857  23.868  11.416 -0.2068  0.0552 -0.3009
 1199POSM   D2B14071   1.794  24.048  11.924  0.0637  0.2548  0.2833
 1199POSM   C3B14072   1.847  23.741  12.278  0.1633 -0.2612 -0.3751
 1199POSM   C4B14073   1.994  23.660  12.673  0.4173  0.0203 -0.0146
 1200DOPE   NH314074   6.739  31.649  12.276 -0.1210  0.1825  0.2564
 1200DOPE   PO414075   6.506  31.712  12.071 -0.0293  0.0980 -0.0904
 1200DOPE   GL114076   6.307  31.555  12.454  0.3389 -0.4180  0.0264
 1200DOPE   GL214077   6.485  31.499  12.651  0.2574 -0.1995 -0.0629
 1200DOPE   C1A14078   5.905  31.489  12.723 -0.0634 -0.0549 -0.1900
 1200DOPE   D2A14079   5.609  31.725  12.998 -0.2019 -0.2136 -0.1111
 1200DOPE   C3A14080   5.371  31.534  13.364  0.1270  0.4845 -0.1511
 1200DOPE   C4A14081   5.088  31.258  13.535 -0.0788  0.1198 -0.1615
 1200DOPE   C1B14082   6.528  31.486  13.150  0.0903 -0.0451 -0.1351
 1200DOPE   D2B14083   6.481  31.510  13.584  0.0082  0.1201  0.2623
 1200DOPE   C3B14084   6.160  31.504  13.900 -0.0656  0.0841  0.2179
 1200DOPE   C4B14085   6.032  31.929  14.059 -0.1828 -0.2127 -0.1798
 1201DOPE   NH314086   3.853  26.410  10.572 -0.1025 -0.0902  0.1806
 1201DOPE   PO414087   3.637  26.329  10.775  0.0014  0.0570 -0.0793
 1201DOPE   GL114088   3.709  26.253  11.153 -0.1893 -0.1755  0.0472
 1201DOPE   GL214089   3.448  26.051  11.125  0.0334 -0.3214 -0.2080
 1201DOPE   C1A14090   3.652  26.434  11.576 -0.2197  0.4701  0.0569
 1201DOPE   D2A14091   3.690  26.228  11.959 -0.2541  0.2379  0.1416
 1201DOPE   C3A14092   3.718  26.410  12.354 -0.0711  0.0922 -0.4883
 1201DOPE   C4A14093   3.658  26.452  12.825 -0.0114  0.3730  0.0832
 1201DOPE   C1B14094   3.092  25.925  11.397 -0.1385 -0.1476  0.0278
 1201DOPE   D2B14095   2.704  25.668  11.419 -0.2736 -0.3464  0.0239
 1201DOPE   C3B14096   2.342  25.902  11.629 -0.0497 -0.1782 -0.0680
 1201DOPE   C4B14097   2.137  26.192  11.940  0.0524  0.0903  0.4225
 1202DOPE   NH314098   2.954  25.146  10.290 -0.3433 -0.3596 -0.0586
 1202DOPE   PO414099   3.116  25.130  10.578  0.0982  0.1121 -0.1413
 1202DOPE   GL114100   3.403  25.457  10.696  0.4194 -0.1365  0.1854
 1202DOPE   GL214101   3.296  25.696  10.798  0.0014  0.0471 -0.0312
 1202DOPE   C1A14102   3.628  25.548  11.094  0.0690 -0.0443  0.1272
 1202DOPE   D2A14103   3.668  25.296  11.526 -0.1090  0.0348 -0.0833
 1202DOPE   C3A14104   3.494  25.185  11.994 -0.0055  0.2180 -0.0129
 1202DOPE   C4A14105   3.266  24.842  12.199  0.0395  0.1973 -0.2468
 1202DOPE   C1B14106   3.140  25.476  11.202 -0.0354  0.0561 -0.2788
 1202DOPE   D2B14107   3.098  25.369  11.656 -0.1388 -0.0625  0.0913
 1202DOPE   C3B14108   3.304  25.617  12.070  0.1392 -0.1021 -0.0628
 1202DOPE   C4B14109   3.644  25.912  12.302 -0.1839  0.2970 -0.1769
 1203DOPS   CNO14110   4.335  24.869  10.311 -0.2112 -0.0969  0.2840
 1203DOPS   PO414111   4.391  25.139  10.533 -0.1104  0.0743  0.1034
 1203DOPS   GL114112   4.752  25.099  10.823 -0.0069 -0.0722  0.0029
 1203DOPS   GL214113   4.770  24.792  10.718  0.5202 -0.0473  0.1560
 1203DOPS   C1A14114   5.174  25.002  11.091  0.1262 -0.0919 -0.2926
 1203DOPS   D2A14115   5.560  24.904  11.211  0.0585  0.1828  0.1155
 1203DOPS   C3A14116   5.665  24.803  11.669  0.2257  0.0141 -0.1860
 1203DOPS   C4A14117   5.588  24.834  12.100 -0.2272  0.1137  0.2802
 1203DOPS   C1B14118   4.742  24.572  11.150 -0.0917 -0.0951 -0.4396
 1203DOPS   D2B14119   4.797  24.285  11.508  0.2307 -0.2672 -0.1257
 1203DOPS   C3B14120   4.899  24.586  11.860 -0.0621  0.1453 -0.3861
 1203DOPS   C4B14121   5.109  24.805  12.216  0.0425 -0.2822  0.2485
 1204POSM   NC314122   8.095  25.930  10.472 -0.1830 -0.0610 -0.0693
 1204POSM   PO414123   8.084  25.541  10.524 -0.2414  0.1078  0.1251
 1204POSM   AM114124   8.061  25.385  10.805 -0.0495  0.0881  0.0170
 1204POSM   AM214125   8.250  25.207  10.976 -0.2638 -0.1220  0.1722
 1204POSM   T1A14126   7.870  25.420  11.275 -0.4095 -0.1903 -0.0772
 1204POSM   C2A14127   7.544  25.656  11.432  0.2940  0.1675 -0.1849
 1204POSM   C3A14128   7.324  25.881  11.790  0.0871 -0.0372  0.3147
 1204POSM   C1B14129   8.429  25.325  11.266  0.0883  0.0179 -0.1883
 1204POSM   D2B14130   8.693  25.424  11.651 -0.2042  0.2891 -0.2522
 1204POSM   C3B14131   8.571  25.327  12.076  0.1861  0.2014 -0.1152
 1204POSM   C4B14132   8.573  25.343  12.550  0.4034  0.0939  0.0258
 1205POSM   NC314133  10.671  27.515  11.688 -0.1667  0.3884 -0.1440
 1205POSM   PO414134  11.021  27.608  11.877  0.2120 -0.0465  0.1617
 1205POSM   AM114135  11.113  27.321  12.033  0.1079 -0.1430  0.1035
 1205POSM   AM214136  11.383  27.256  12.170  0.0990 -0.0335  0.5003
 1205POSM   T1A14137  11.162  26.800  12.112 -0.4002 -0.2285 -0.0702
 1205POSM   C2A14138  11.453  26.532  12.352 -0.1176  0.1034  0.2348
 1205POSM   C3A14139  11.738  26.665  12.614  0.2068  0.0880 -0.0331
 1205POSM   C1B14140  11.376  27.113  12.460  0.0045 -0.1077  0.0721
 1205POSM   D2B14141  11.437  27.238  12.928 -0.2250 -0.3218 -0.0957
 1205POSM   C3B14142  11.543  26.887  13.231  0.0226  0.1031 -0.1941
 1205POSM   C4B14143  11.543  26.460  13.140  0.1603 -0.1014 -0.0766
 1206DOPE   NH314144   9.498  27.082  11.528  0.1932  0.0332 -0.1120
 1206DOPE   PO414145   9.295  26.976  11.808  0.0098  0.0771  0.0815
 1206DOPE   GL114146   9.372  26.735  12.131 -0.2389  0.0277  0.0609
 1206DOPE   GL214147   9.582  26.924  12.259 -0.0024 -0.0314 -0.3121
 1206DOPE   C1A14148   9.004  26.724  12.388 -0.0625  0.1529  0.1931
 1206DOPE   D2A14149   8.540  26.624  12.528 -0.2663  0.0084 -0.1097
 1206DOPE   C3A14150   8.204  26.718  12.874 -0.0043 -0.1244 -0.1522
 1206DOPE   C4A14151   8.014  26.569  13.319  0.3313  0.2260 -0.0449
 1206DOPE   C1B14152   9.357  27.050  12.656  0.1217  0.3497 -0.0771
 1206DOPE   D2B14153   9.179  27.447  12.846 -0.2857  0.0433  0.2763
 1206DOPE   C3B14154   9.099  27.476  13.305  0.0977 -0.1853 -0.0620
 1206DOPE   C4B14155   8.897  27.751  13.650 -0.0880 -0.3233  0.0200
 1207DOPS   CNO14156   1.145   1.125  11.678 -0.1066  0.2246 -0.0694
 1207DOPS   PO414157   1.191   0.873  11.993  0.1165  0.0859  0.2341
 1207DOPS   GL114158   1.031   0.899  12.329 -0.1257  0.2083 -0.0191
 1207DOPS   GL214159   0.754   0.794  12.331  0.1290  0.0748  0.0445
 1207DOPS   C1A14160   1.033   0.704  12.719 -0.0382 -0.1448  0.1085
 1207DOPS   D2A14161   0.968   0.753  13.166  0.0703  0.1624  0.0488
 1207DOPS   C3A14162   1.119   0.448  13.468 -0.2111 -0.1293  0.0317
 1207DOPS   C4A14163   1.252   0.059  13.736 -0.2002 -0.2279  0.0656
 1207DOPS   C1B14164   0.584   0.847  12.749 -0.1166  0.1064  0.0433
 1207DOPS   D2B14165   0.491   0.996  13.179 -0.0816  0.0440  0.0305
 1207DOPS   C3B14166   0.423   0.597  13.381  0.0638  0.5501  0.1280
 1207DOPS   C4B14167   0.269   0.298  13.741  0.0542 -0.0485 -0.0131
 1208DOPE   NH314168   7.296  30.885  11.862 -0.2233 -0.0877 -0.0442
 1208DOPE   PO414169   7.041  30.850  12.057 -0.1136  0.3326  0.2471
 1208DOPE   GL114170   7.125  30.711  12.358 -0.1217 -0.0289  0.0099
 1208DOPE   GL214171   7.052  30.856  12.613 -0.0125 -0.0763  0.3651
 1208DOPE   C1A14172   7.304  30.420  12.659  0.1231 -0.1962  0.1080
 1208DOPE   D2A14173   7.223  30.192  13.128  0.0110  0.1752  0.1959
 1208DOPE   C3A14174   7.118  30.502  13.461  0.0678  0.1933 -0.1554
 1208DOPE   C4A14175   6.748  30.664  13.587  0.0671  0.1182 -0.0541
 1208DOPE   C1B14176   6.918  30.680  13.006  0.0704  0.0801 -0.0525
 1208DOPE   D2B14177   6.756  30.303  13.165  0.1817  0.0059 -0.0454
 1208DOPE   C3B14178   6.768  30.177  13.632  0.0572 -0.1950  0.2688
 1208DOPE   C4B14179   6.942  29.906  13.906  0.1925 -0.2162  0.1193
 1209POSM   NC314180  33.971  27.136   9.950 -0.0131  0.2641  0.0067
 1209POSM   PO414181  34.112  26.914  10.256  0.2556 -0.0953 -0.1505
 1209POSM   AM114182  33.997  26.808  10.564  0.2340 -0.1324 -0.1808
 1209POSM   AM214183  33.822  26.847  10.777 -0.3557 -0.2183 -0.0607
 1209POSM   T1A14184  34.240  26.897  10.971  0.2515  0.1445  0.0267
 1209POSM   C2A14185  34.450  26.659  11.315 -0.2681 -0.0077 -0.2485
 1209POSM   C3A14186  34.507  26.534  11.737  0.0244 -0.0252 -0.4721
 1209POSM   C1B14187  33.775  26.783  11.072  0.2311  0.0975  0.0095
 1209POSM   D2B14188  33.638  26.517  11.446 -0.0867 -0.0229  0.4467
 1209POSM   C3B14189  33.985  26.689  11.735 -0.3792  0.0854 -0.1225
 1209POSM   C4B14190  34.188  27.017  11.949  0.0439  0.0248 -0.0803
 1210POSM   NC314191  34.214   2.285  11.847  0.1909  0.0315 -0.2163
 1210POSM   PO414192  34.433   2.110  12.121  0.0773  0.0412  0.0681
 1210POSM   AM114193  34.481   2.047  12.461  0.0143  0.0884  0.4139
 1210POSM   AM214194  34.382   2.213  12.697  0.3558 -0.3374 -0.0856
 1210POSM   T1A14195  34.588   1.835  12.849 -0.2632  0.0478 -0.3154
 1210POSM   C2A14196  34.339   1.674  13.223  0.1659 -0.0626 -0.0805
 1210POSM   C3A14197  34.444   1.601  13.674  0.1388  0.0453 -0.2073
 1210POSM   C1B14198  34.305   2.251  13.040  0.0950  0.1516  0.5372
 1210POSM   D2B14199  34.119   2.249  13.401 -0.2175  0.0219 -0.0073
 1210POSM   C3B14200  34.090   1.918  13.776 -0.3231  0.1015  0.0472
 1210POSM   C4B14201  33.900   1.598  14.028  0.0085  0.1379 -0.0372
 1211DOPC   NC314202   5.287  31.835  11.445 -0.3916 -0.0344  0.0048
 1211DOPC   PO414203   5.459  32.140  11.539 -0.3484  0.2769  0.4390
 1211DOPC   GL114204   5.265  32.221  11.880  0.1021 -0.3650  0.2504
 1211DOPC   GL214205   5.144  31.961  11.969  0.0564  0.0695  0.0423
 1211DOPC   C1A14206   5.304  32.305  12.327  0.0426 -0.2018 -0.1460
 1211DOPC   D2A14207   5.489  32.166  12.711  0.2041 -0.0988  0.0330
 1211DOPC   C3A14208   5.389  32.181  13.176  0.0634  0.0301 -0.3268
 1211DOPC   C4A14209   5.077  31.949  13.418 -0.0513  0.1062  0.1245
 1211DOPC   C1B14210   5.073  31.898  12.452 -0.2608 -0.2322  0.1936
 1211DOPC   D2B14211   5.070  31.801  12.920 -0.1414  0.0592 -0.0453
 1211DOPC   C3B14212   4.890  31.552  13.194 -0.1355  0.1939 -0.2263
 1211DOPC   C4B14213   4.412  31.574  13.216  0.1823 -0.1349 -0.1187
 1212POSM   NC314214   2.744  30.792  10.419  0.1580 -0.0450  0.2558
 1212POSM   PO414215   2.363  30.877  10.505 -0.0506 -0.1963 -0.1456
 1212POSM   AM114216   2.405  30.835  10.821 -0.4919  0.0981  0.1120
 1212POSM   AM214217   2.439  30.599  10.998  0.1306 -0.3452  0.0907
 1212POSM   T1A14218   2.372  31.007  11.321  0.3294  0.0363  0.2065
 1212POSM   C2A14219   2.173  31.355  11.549 -0.1618 -0.1074 -0.2295
 1212POSM   C3A14220   2.104  31.729  11.814 -0.1279 -0.0484 -0.1976
 1212POSM   C1B14221   2.353  30.445  11.306 -0.2149 -0.1255  0.0223
 1212POSM   D2B14222   2.201  30.409  11.719  0.1053 -0.3805 -0.1906
 1212POSM   C3B14223   1.778  30.382  11.935  0.2686 -0.2213  0.0980
 1212POSM   C4B14224   1.737  30.311  12.372  0.0010 -0.2291 -0.0916
 1213DOPE   NH314225   6.121  23.298  10.068  0.0878 -0.0903  0.0509
 1213DOPE   PO414226   6.398  23.480  10.129 -0.0762  0.4725 -0.0933
 1213DOPE   GL114227   6.365  23.758  10.406 -0.0484 -0.1994  0.0478
 1213DOPE   GL214228   6.464  23.629  10.664  0.2007  0.1306 -0.0949
 1213DOPE   C1A14229   6.103  23.974  10.715  0.1342 -0.1565 -0.2434
 1213DOPE   D2A14230   5.794  24.044  11.062  0.0174  0.0389  0.1306
 1213DOPE   C3A14231   5.477  24.312  11.186  0.3573 -0.0383 -0.3062
 1213DOPE   C4A14232   5.173  24.590  11.417 -0.2613  0.2351 -0.0623
 1213DOPE   C1B14233   6.130  23.555  10.998  0.0105  0.0056  0.3011
 1213DOPE   D2B14234   6.055  23.355  11.439 -0.0904  0.1470 -0.0277
 1213DOPE   C3B14235   5.761  23.508  11.839  0.0637 -0.0321 -0.0204
 1213DOPE   C4B14236   5.372  23.744  11.845 -0.0614 -0.1291  0.0157
 1214DOPS   CNO14237   5.761  25.893  10.379 -0.1060 -0.0302 -0.0691
 1214DOPS   PO414238   5.586  26.223  10.254  0.0164 -0.0072 -0.2575
 1214DOPS   GL114239   5.553  26.324  10.681 -0.0050 -0.0397  0.0839
 1214DOPS   GL214240   5.816  26.472  10.864 -0.0310 -0.2279 -0.0048
 1214DOPS   C1A14241   5.482  26.145  11.145  0.0782 -0.1293  0.0203
 1214DOPS   D2A14242   5.701  25.855  11.481  0.1207  0.0946  0.0984
 1214DOPS   C3A14243   6.043  26.088  11.760  0.0422 -0.0053  0.0369
 1214DOPS   C4A14244   6.371  25.827  12.058 -0.1526 -0.0715 -0.1026
 1214DOPS   C1B14245   5.461  26.638  11.156 -0.2237 -0.0340  0.0373
 1214DOPS   D2B14246   5.073  26.534  11.323  0.2177  0.0098  0.0930
 1214DOPS   C3B14247   4.935  26.664  11.727  0.2331 -0.4962 -0.0559
 1214DOPS   C4B14248   4.747  26.827  12.099  0.2974  0.0369 -0.2428
 1215DOPC   NC314249   4.037  31.247  11.542  0.0692  0.0764 -0.0374
 1215DOPC   PO414250   3.963  31.600  11.370  0.0612 -0.3389  0.1871
 1215DOPC   GL114251   3.928  31.798  11.712 -0.0723  0.2068  0.2194
 1215DOPC   GL214252   3.718  31.639  11.795 -0.1867  0.1604  0.0880
 1215DOPC   C1A14253   3.692  32.128  11.858  0.1360  0.0362 -0.0414
 1215DOPC   D2A14254   3.625  32.168  12.314 -0.0053  0.2549  0.1565
 1215DOPC   C3A14255   3.311  32.353  12.618 -0.2556 -0.0799  0.0833
 1215DOPC   C4A14256   3.087  32.730  12.735 -0.1702 -0.2726  0.3139
 1215DOPC   C1B14257   3.537  31.668  12.240  0.1519 -0.0926  0.4571
 1215DOPC   D2B14258   3.367  31.437  12.588 -0.1131 -0.1741 -0.1517
 1215DOPC   C3B14259   3.506  31.650  13.011  0.0648 -0.1802 -0.4225
 1215DOPC   C4B14260   3.429  32.088  13.171 -0.0280 -0.2044 -0.0163
 1216DOPC   NC314261   9.598  32.690  12.387  0.1112  0.0049 -0.0931
 1216DOPC   PO414262   9.206  32.645  12.514 -0.1648 -0.0252 -0.0408
 1216DOPC   GL114263   9.027  32.699  12.931 -0.1026 -0.0412 -0.0783
 1216DOPC   GL214264   9.250  32.583  13.077  0.1878 -0.3373 -0.0265
 1216DOPC   C1A14265   9.122  33.120  13.129  0.1073 -0.5324  0.1326
 1216DOPC   D2A14266   8.934  33.521  13.370  0.0006  0.0137  0.0700
 1216DOPC   C3A14267   8.746  33.347  13.727 -0.1918  0.0281 -0.4501
 1216DOPC   C4A14268   8.699  33.383  14.195 -0.1918  0.0881 -0.0326
 1216DOPC   C1B14269   9.235  32.175  12.948  0.0041  0.0072 -0.1454
 1216DOPC   D2B14270   9.187  31.760  13.199 -0.1800  0.1669 -0.0241
 1216DOPC   C3B14271   9.070  31.810  13.652 -0.1825  0.0978 -0.0721
 1216DOPC   C4B14272   9.028  32.013  14.023  0.5530  0.3311  0.2175
 1217DOPC   NC314273   2.895  27.475  10.045 -0.2297 -0.0691  0.1443
 1217DOPC   PO414274   3.240  27.620  10.186 -0.0488 -0.0346  0.1645
 1217DOPC   GL114275   3.469  27.646  10.529 -0.3147 -0.3061 -0.0467
 1217DOPC   GL214276   3.285  27.511  10.745 -0.1688 -0.2143  0.2661
 1217DOPC   C1A14277   3.452  27.987  10.818 -0.2234  0.0401  0.0192
 1217DOPC   D2A14278   3.419  28.173  11.281  0.0198 -0.0548 -0.0291
 1217DOPC   C3A14279   3.141  28.575  11.281 -0.3553 -0.0406 -0.0116
 1217DOPC   C4A14280   3.177  29.035  11.279 -0.2914  0.0984 -0.1477
 1217DOPC   C1B14281   3.099  27.324  11.104  0.0530  0.0930 -0.2131
 1217DOPC   D2B14282   3.053  27.141  11.520 -0.0728 -0.1049  0.0035
 1217DOPC   C3B14283   3.392  26.824  11.642 -0.3036  0.3446 -0.1602
 1217DOPC   C4B14284   3.656  26.805  12.090  0.0607  0.0878 -0.0179
 1218DOPS   CNO14285   8.031  31.128  11.880  0.2896 -0.1656  0.3108
 1218DOPS   PO414286   7.985  31.334  12.193  0.1683  0.0010 -0.4036
 1218DOPS   GL114287   7.996  31.185  12.568  0.3199 -0.1387 -0.2802
 1218DOPS   GL214288   8.189  31.028  12.658  0.0210  0.0134  0.0238
 1218DOPS   C1A14289   8.010  31.316  13.062  0.1627 -0.0482  0.0396
 1218DOPS   D2A14290   7.897  31.342  13.515  0.3501  0.1443 -0.0578
 1218DOPS   C3A14291   7.580  31.053  13.720  0.0223  0.0361 -0.2123
 1218DOPS   C4A14292   7.128  30.975  13.670  0.1283  0.2416  0.2030
 1218DOPS   C1B14293   8.554  30.849  12.901 -0.2013 -0.2213 -0.1390
 1218DOPS   D2B14294   8.792  30.472  13.090  0.1759  0.0590 -0.1280
 1218DOPS   C3B14295   8.714  30.353  13.504 -0.0737 -0.1211  0.1089
 1218DOPS   C4B14296   8.374  30.213  13.805 -0.1563  0.1364 -0.2721
 1219POSM   NC314297   3.329  24.352  10.146 -0.0725 -0.3096 -0.1496
 1219POSM   PO414298   3.209  24.268  10.521 -0.0648  0.1425  0.1007
 1219POSM   AM114299   3.136  24.217  10.841 -0.0178  0.1217  0.1224
 1219POSM   AM214300   3.087  23.990  11.030  0.1693 -0.0236 -0.1101
 1219POSM   T1A14301   3.013  24.378  11.292 -0.0059 -0.1547  0.0849
 1219POSM   C2A14302   2.748  24.510  11.561 -0.1812 -0.4094 -0.1184
 1219POSM   C3A14303   2.333  24.659  11.620  0.1211  0.0527  0.1290
 1219POSM   C1B14304   3.141  23.832  11.359 -0.0914 -0.0743  0.1822
 1219POSM   D2B14305   3.103  23.891  11.783 -0.0679 -0.2983 -0.0066
 1219POSM   C3B14306   3.488  24.105  11.866 -0.1075 -0.1530 -0.2285
 1219POSM   C4B14307   3.907  23.987  12.163  0.0878 -0.1400 -0.0910
 1220POSM   NC314308   4.998  32.607  10.748  0.0129  0.2476 -0.1186
 1220POSM   PO414309   5.058  32.689  11.139  0.2096  0.0600  0.2323
 1220POSM   AM114310   4.740  32.672  11.284 -0.3312  0.0045 -0.3127
 1220POSM   AM214311   4.637  32.752  11.540  0.1057  0.0796  0.4643
 1220POSM   T1A14312   4.456  32.303  11.516 -0.0600  0.0694  0.2948
 1220POSM   C2A14313   4.208  32.200  11.886 -0.0249 -0.2273  0.0737
 1220POSM   C3A14314   4.044  31.872  12.145  0.0437  0.1511 -0.0492
 1220POSM   C1B14315   4.559  32.835  11.840  0.0815 -0.1296  0.0082
 1220POSM   D2B14316   4.413  32.729  12.238 -0.0990 -0.0500  0.2223
 1220POSM   C3B14317   4.590  32.922  12.585  0.0602  0.0959 -0.2601
 1220POSM   C4B14318   4.897  33.011  12.893 -0.2427  0.0619 -0.0373
 1221DOPE   NH314319   0.310  30.792  10.528  0.0089 -0.0333  0.3897
 1221DOPE   PO414320   0.314  31.066  10.689  0.5126 -0.1194  0.0233
 1221DOPE   GL114321   0.446  30.891  11.081 -0.3524 -0.2133 -0.3204
 1221DOPE   GL214322   0.630  30.653  11.034  0.1276 -0.1123 -0.0700
 1221DOPE   C1A14323   0.466  31.031  11.525  0.0656 -0.0300  0.0658
 1221DOPE   D2A14324   0.772  31.096  11.929  0.2692  0.0393  0.1479
 1221DOPE   C3A14325   1.132  31.287  11.783 -0.0179  0.2732  0.0250
 1221DOPE   C4A14326   1.489  30.972  11.767 -0.0198 -0.2740  0.2212
 1221DOPE   C1B14327   0.337  30.516  11.309  0.2883 -0.0898 -0.1339
 1221DOPE   D2B14328  -0.016  30.651  11.494 -0.3379 -0.1670  0.0945
 1221DOPE   C3B14329   0.024  31.005  11.810  0.1133  0.0871 -0.0329
 1221DOPE   C4B14330   0.292  31.384  11.908  0.0367 -0.3318  0.0545
 1222DOPC   NC314331   6.802  23.331   9.827 -0.2565 -0.2057 -0.2754
 1222DOPC   PO414332   6.563  23.023   9.782 -0.2536 -0.5106 -0.0439
 1222DOPC   GL114333   6.494  23.052  10.247 -0.1572  0.1354 -0.2483
 1222DOPC   GL214334   6.326  22.961  10.417  0.1908  0.0525 -0.0923
 1222DOPC   C1A14335   6.755  23.044  10.638 -0.1308 -0.0589  0.1316
 1222DOPC   D2A14336   7.081  22.792  10.938 -0.0152 -0.0700 -0.2802
 1222DOPC   C3A14337   6.866  22.691  11.319  0.2933  0.0464  0.0653
 1222DOPC   C4A14338   6.551  22.344  11.269  0.1452  0.2631 -0.1182
 1222DOPC   C1B14339   6.027  23.018  10.755  0.3194  0.2927 -0.0357
 1222DOPC   D2B14340   6.005  22.904  11.236 -0.0826  0.0180 -0.0074
 1222DOPC   C3B14341   6.381  22.883  11.471 -0.0306  0.0770 -0.2111
 1222DOPC   C4B14342   6.515  22.733  11.908 -0.2273  0.1460  0.0894
 1223POSM   NC314343  10.921  24.100  10.106 -0.0540  0.1703 -0.1333
 1223POSM   PO414344  10.847  24.480  10.106 -0.5214 -0.0274 -0.1990
 1223POSM   AM114345  11.060  24.533  10.349  0.0760  0.0120  0.2345
 1223POSM   AM214346  11.267  24.700  10.404  0.1368  0.0931 -0.0974
 1223POSM   T1A14347  11.094  24.397  10.846 -0.0088 -0.1433  0.0867
 1223POSM   C2A14348  10.897  24.403  11.253  0.1265 -0.0923  0.1431
 1223POSM   C3A14349  10.768  24.265  11.664  0.1201  0.3485  0.0412
 1223POSM   C1B14350  11.135  24.876  10.699  0.0255 -0.0946 -0.1098
 1223POSM   D2B14351  11.111  24.860  11.124  0.3464 -0.1517  0.0653
 1223POSM   C3B14352  11.231  25.163  11.409 -0.0276  0.1248  0.0946
 1223POSM   C4B14353  11.364  25.132  11.868 -0.1594 -0.1803  0.1019
 1224POSM   NC314354   7.934  31.866  12.167 -0.1919  0.3492  0.3412
 1224POSM   PO414355   7.799  32.115  12.426 -0.1391  0.1350 -0.1229
 1224POSM   AM114356   7.579  32.047  12.661  0.0848 -0.0436 -0.0249
 1224POSM   AM214357   7.426  31.800  12.732 -0.0358  0.0308  0.1722
 1224POSM   T1A14358   7.305  32.114  13.073 -0.0950 -0.2097  0.1091
 1224POSM   C2A14359   6.894  32.309  13.072  0.0891  0.0731 -0.2924
 1224POSM   C3A14360   6.512  32.436  13.249  0.1248 -0.4249  0.0356
 1224POSM   C1B14361   7.392  31.619  13.027 -0.0843  0.3092 -0.2258
 1224POSM   D2B14362   7.416  31.232  13.281 -0.0136  0.2317 -0.1129
 1224POSM   C3B14363   7.380  30.805  13.056  0.1629  0.1958  0.0538
 1224POSM   C4B14364   7.596  30.450  13.286  0.0053 -0.3856 -0.1445
 1225DOPC   NC314365  12.153   9.378  14.330 -0.3268 -0.3367 -0.1950
 1225DOPC   PO414366  12.485   9.444  14.124 -0.1176  0.0329  0.2916
 1225DOPC   GL114367  12.304   9.412  13.786  0.2522 -0.1869  0.1091
 1225DOPC   GL214368  12.456   9.160  13.686  0.1192  0.0737 -0.3503
 1225DOPC   C1A14369  12.249   9.379  13.284 -0.0740 -0.0829 -0.0708
 1225DOPC   D2A14370  12.463   9.558  12.979  0.4529  0.0991 -0.1207
 1225DOPC   C3A14371  12.503   9.286  12.620  0.0056  0.1091 -0.1322
 1225DOPC   C4A14372  12.654   8.913  12.373  0.0506 -0.0311  0.5578
 1225DOPC   C1B14373  12.656   8.812  13.493  0.2009  0.1371  0.0048
 1225DOPC   D2B14374  12.925   8.666  13.179  0.3654 -0.2236 -0.1497
 1225DOPC   C3B14375  13.255   8.383  13.087  0.0401 -0.0645 -0.0830
 1225DOPC   C4B14376  13.261   7.955  13.143  0.1093 -0.1534 -0.0924
 1226DOPC   NC314377  20.550   3.930  13.715 -0.0551  0.1503  0.3131
 1226DOPC   PO414378  20.765   3.803  14.028 -0.0105  0.1742 -0.1786
 1226DOPC   GL114379  20.827   3.497  13.658 -0.0812 -0.0824  0.1696
 1226DOPC   GL214380  21.161   3.506  13.637 -0.3164 -0.1310 -0.3232
 1226DOPC   C1A14381  20.809   3.586  13.234  0.0710 -0.1284  0.0228
 1226DOPC   D2A14382  20.945   3.484  12.845  0.0063  0.0342 -0.1416
 1226DOPC   C3A14383  20.762   3.173  12.608 -0.1781 -0.1692  0.1684
 1226DOPC   C4A14384  20.774   2.856  12.317 -0.0188  0.1710  0.2497
 1226DOPC   C1B14385  21.240   3.297  13.265 -0.1777 -0.2868  0.0827
 1226DOPC   D2B14386  21.107   2.978  13.015  0.5344  0.0738 -0.1196
 1226DOPC   C3B14387  21.238   3.082  12.584 -0.0423  0.3632  0.3995
 1226DOPC   C4B14388  21.296   2.803  12.177  0.2701  0.1400 -0.5142
 1227DOPE   NH314389  20.264   9.755  13.157  0.1241  0.0325 -0.3011
 1227DOPE   PO414390  19.937   9.729  13.022 -0.0677 -0.0402 -0.4855
 1227DOPE   GL114391  20.009   9.728  12.605  0.2914  0.2043  0.0610
 1227DOPE   GL214392  19.893   9.480  12.520  0.1481 -0.2213 -0.1216
 1227DOPE   C1A14393  19.947   9.763  12.110  0.1029  0.1501  0.1639
 1227DOPE   D2A14394  20.058   9.551  11.771 -0.3028 -0.2557 -0.1819
 1227DOPE   C3A14395  20.353   9.206  11.738  0.0183  0.2692 -0.3190
 1227DOPE   C4A14396  20.587   8.776  11.738 -0.0516  0.5674 -0.2423
 1227DOPE   C1B14397  20.293   9.444  12.260  0.0487  0.0190 -0.0767
 1227DOPE   D2B14398  20.663   9.571  11.969  0.2110  0.3224 -0.0642
 1227DOPE   C3B14399  20.434   9.798  11.730  0.2296 -0.2350  0.1095
 1227DOPE   C4B14400  20.323   9.811  11.256 -0.1840  0.1252 -0.0142
 1228DOPE   NH314401  11.888   8.236  15.556 -0.2731 -0.0065  0.0284
 1228DOPE   PO414402  12.162   8.101  15.452  0.0340  0.0265  0.1425
 1228DOPE   GL114403  11.939   8.057  15.115 -0.0400 -0.1572  0.5320
 1228DOPE   GL214404  12.173   7.967  14.897  0.2309 -0.1366 -0.1447
 1228DOPE   C1A14405  11.907   8.352  14.740  0.0071 -0.0357 -0.2889
 1228DOPE   D2A14406  11.942   8.375  14.320 -0.0518 -0.1724 -0.0432
 1228DOPE   C3A14407  11.742   8.681  14.090 -0.1346 -0.0152  0.4194
 1228DOPE   C4A14408  11.963   9.030  13.904 -0.2490 -0.2391 -0.1118
 1228DOPE   C1B14409  11.865   7.573  14.826 -0.1718  0.0447  0.0076
 1228DOPE   D2B14410  11.449   7.505  14.622  0.3392 -0.3104  0.1589
 1228DOPE   C3B14411  11.114   7.774  14.652 -0.2072  0.1337  0.1410
 1228DOPE   C4B14412  10.715   7.957  14.837 -0.1598  0.1463  0.0939
 1229DOPC   NC314413  19.484  10.468  12.197 -0.0405 -0.2652 -0.2468
 1229DOPC   PO414414  19.571  10.842  12.380 -0.0507 -0.0963 -0.1351
 1229DOPC   GL114415  19.854  10.755  12.056 -0.0760 -0.1111 -0.3636
 1229DOPC   GL214416  19.700  10.854  11.782  0.2784 -0.0729  0.1414
 1229DOPC   C1A14417  20.135  11.123  11.838  0.1076  0.2094 -0.1523
 1229DOPC   D2A14418  20.418  11.251  11.512  0.3955 -0.1236 -0.0584
 1229DOPC   C3A14419  20.683  10.941  11.462 -0.1533  0.1955 -0.4248
 1229DOPC   C4A14420  20.579  10.491  11.299 -0.2621 -0.0401 -0.3924
 1229DOPC   C1B14421  19.973  10.887  11.413  0.0518  0.2664  0.0858
 1229DOPC   D2B14422  20.315  11.024  11.108  0.2226  0.2101 -0.0457
 1229DOPC   C3B14423  20.448  10.665  10.842 -0.1177  0.1613  0.0596
 1229DOPC   C4B14424  20.462  10.188  10.878  0.4189  0.2252 -0.0292
 1230DOPC   NC314425  22.743  10.694  12.892  0.0536 -0.1012  0.1626
 1230DOPC   PO414426  22.376  10.725  12.727 -0.1451  0.0576 -0.0002
 1230DOPC   GL114427  22.401  10.745  12.330  0.2816  0.0832 -0.4633
 1230DOPC   GL214428  22.668  10.570  12.325 -0.2753  0.0033 -0.2076
 1230DOPC   C1A14429  22.330  10.969  11.932 -0.2630 -0.3931 -0.0607
 1230DOPC   D2A14430  22.082  11.013  11.538  0.0372 -0.1100  0.1016
 1230DOPC   C3A14431  21.854  10.819  11.242  0.0119 -0.0898  0.2072
 1230DOPC   C4A14432  21.475  10.870  11.001 -0.0296 -0.0431 -0.1019
 1230DOPC   C1B14433  22.540  10.499  11.952  0.2023 -0.2154 -0.1282
 1230DOPC   D2B14434  22.590  10.432  11.508  0.0257  0.1469  0.2812
 1230DOPC   C3B14435  22.635  10.727  11.176  0.1493 -0.1046  0.2010
 1230DOPC   C4B14436  22.734  11.101  10.840 -0.0943  0.1682  0.0600
 1231POSM   NC314437  12.595   4.293  15.864 -0.1318 -0.5891 -0.0534
 1231POSM   PO414438  12.614   4.665  15.728 -0.0998 -0.1575  0.1451
 1231POSM   AM114439  12.689   4.594  15.422 -0.1017  0.1156  0.0368
 1231POSM   AM214440  12.743   4.709  15.203  0.0285 -0.2582  0.3217
 1231POSM   T1A14441  13.033   4.350  15.137  0.0494  0.0327  0.1042
 1231POSM   C2A14442  12.995   4.284  14.711  0.1860  0.0566 -0.3247
 1231POSM   C3A14443  13.179   4.359  14.303  0.3017  0.2514 -0.3567
 1231POSM   C1B14444  12.786   4.720  14.883 -0.0491 -0.0676  0.0633
 1231POSM   D2B14445  12.789   4.680  14.413  0.2584  0.1227  0.0500
 1231POSM   C3B14446  12.835   4.435  14.006  0.1086 -0.0327 -0.0689
 1231POSM   C4B14447  12.680   4.556  13.574 -0.1340  0.0507 -0.0285
 1232DOPS   CNO14448  18.927  10.139  12.654  0.1089 -0.0906 -0.1956
 1232DOPS   PO414449  19.001  10.399  12.408  0.1337  0.0557  0.0091
 1232DOPS   GL114450  18.919  10.074  12.223 -0.0342  0.3479  0.2109
 1232DOPS   GL214451  18.646  10.131  12.133 -0.2343  0.0035 -0.1943
 1232DOPS   C1A14452  18.829   9.714  11.952  0.2684 -0.2379 -0.0579
 1232DOPS   D2A14453  18.934   9.594  11.514  0.0950  0.2606  0.1204
 1232DOPS   C3A14454  18.580   9.481  11.206  0.0174 -0.2556  0.1516
 1232DOPS   C4A14455  18.203   9.169  11.114 -0.4149  0.4395  0.1149
 1232DOPS   C1B14456  18.549  10.093  11.641 -0.1840  0.1803  0.0911
 1232DOPS   D2B14457  18.755   9.955  11.266  0.5304 -0.0843 -0.1058
 1232DOPS   C3B14458  18.685   9.924  10.837 -0.4385  0.0126  0.3413
 1232DOPS   C4B14459  18.765   9.670  10.415  0.2153 -0.3305 -0.4413
 1233DOPC   NC314460  17.033   1.607  14.405 -0.0597  0.1510  0.1304
 1233DOPC   PO414461  17.373   1.778  14.501  0.0767  0.1071 -0.1741
 1233DOPC   GL114462  17.332   1.977  14.152  0.0654  0.0449 -0.1806
 1233DOPC   GL214463  17.477   2.197  14.191  0.2698 -0.1186  0.3058
 1233DOPC   C1A14464  17.021   2.114  13.829 -0.3568  0.0464 -0.1524
 1233DOPC   D2A14465  16.841   1.981  13.435 -0.3552 -0.0033 -0.2629
 1233DOPC   C3A14466  16.884   2.080  13.024 -0.0791 -0.0420 -0.0162
 1233DOPC   C4A14467  16.617   2.090  12.573  0.0873  0.0003  0.0994
 1233DOPC   C1B14468  17.489   2.205  13.663 -0.0951  0.2677 -0.1658
 1233DOPC   D2B14469  17.731   2.043  13.291  0.1316  0.0066  0.1802
 1233DOPC   C3B14470  17.828   1.661  12.928  0.1188  0.0439 -0.1286
 1233DOPC   C4B14471  18.148   1.352  12.733 -0.0011  0.2277 -0.1971
 1234DOPE   NH314472  13.621   6.089  15.044  0.0153  0.0119  0.3415
 1234DOPE   PO414473  13.867   6.253  14.912 -0.0094 -0.4356  0.1670
 1234DOPE   GL114474  13.460   6.142  14.630 -0.2232  0.0999 -0.2101
 1234DOPE   GL214475  13.467   6.443  14.615  0.0855 -0.1010  0.0474
 1234DOPE   C1A14476  13.466   6.207  14.168  0.2473 -0.2091  0.0058
 1234DOPE   D2A14477  13.445   6.374  13.779 -0.1401 -0.0408 -0.2386
 1234DOPE   C3A14478  13.067   6.580  13.573 -0.1835  0.0520  0.1181
 1234DOPE   C4A14479  12.740   6.942  13.570  0.1601 -0.0294  0.2537
 1234DOPE   C1B14480  13.322   6.747  14.332  0.1883 -0.2639 -0.2034
 1234DOPE   D2B14481  13.269   6.899  13.875 -0.3436  0.1545 -0.0617
 1234DOPE   C3B14482  12.990   7.285  13.809  0.1572  0.1433  0.0994
 1234DOPE   C4B14483  12.576   7.387  13.647  0.1428  0.1344 -0.1175
 1235POSM   NC314484  20.793   9.728  13.321 -0.0745  0.3940  0.0860
 1235POSM   PO414485  20.786   9.841  12.947 -0.1479 -0.1148 -0.0754
 1235POSM   AM114486  20.751   9.877  12.646  0.0614  0.1338 -0.3061
 1235POSM   AM214487  20.835   9.754  12.405 -0.1798  0.2622 -0.2830
 1235POSM   T1A14488  20.386   9.909  12.308  0.0418  0.3922  0.0008
 1235POSM   C2A14489  20.186  10.132  11.985 -0.1446 -0.1510 -0.0131
 1235POSM   C3A14490  20.133  10.503  11.714  0.0673  0.0143  0.0233
 1235POSM   C1B14491  21.107   9.660  12.176  0.4879  0.1536 -0.2180
 1235POSM   D2B14492  21.307   9.313  11.887 -0.2665 -0.2192  0.1469
 1235POSM   C3B14493  21.424   9.450  11.452  0.1006 -0.3668  0.2610
 1235POSM   C4B14494  21.400   9.684  11.059  0.1465  0.1923  0.1705
 1236DOPS   CNO14495  16.963  11.483  12.499 -0.1004  0.1486  0.0766
 1236DOPS   PO414496  17.353  11.474  12.469 -0.0386  0.0029  0.2680
 1236DOPS   GL114497  17.214  11.312  12.109 -0.0443 -0.0513 -0.0904
 1236DOPS   GL214498  16.941  11.228  11.978  0.3594  0.0772 -0.1552
 1236DOPS   C1A14499  17.457  11.083  11.807 -0.1331 -0.2733 -0.4517
 1236DOPS   D2A14500  17.852  11.011  11.576 -0.0503  0.0776  0.1887
 1236DOPS   C3A14501  17.919  11.246  11.189 -0.1785 -0.0873 -0.0614
 1236DOPS   C4A14502  18.139  11.456  10.853 -0.1322 -0.2014  0.0258
 1236DOPS   C1B14503  16.953  11.166  11.511  0.0257  0.2703  0.5409
 1236DOPS   D2B14504  16.510  11.119  11.311 -0.1139 -0.2067  0.3715
 1236DOPS   C3B14505  16.515  10.946  10.891  0.0261 -0.1638 -0.1605
 1236DOPS   C4B14506  16.718  10.725  10.593 -0.0935 -0.1084  0.0546
 1237DOPC   NC314507  23.204   2.696  13.652  0.0813 -0.1970  0.2210
 1237DOPC   PO414508  23.033   2.381  13.747  0.0289 -0.0170  0.0572
 1237DOPC   GL114509  23.065   2.457  13.263 -0.0169  0.2441  0.1801
 1237DOPC   GL214510  22.819   2.432  13.206 -0.0848  0.2136 -0.4731
 1237DOPC   C1A14511  23.084   2.617  12.825 -0.1574  0.0731 -0.3168
 1237DOPC   D2A14512  23.022   3.031  12.607 -0.1150  0.1240  0.1501
 1237DOPC   C3A14513  22.932   3.423  12.331  0.0277 -0.0143  0.3282
 1237DOPC   C4A14514  22.645   3.787  12.226  0.1931 -0.1094 -0.0372
 1237DOPC   C1B14515  22.525   2.414  12.820 -0.0060  0.2017 -0.1510
 1237DOPC   D2B14516  22.407   2.045  12.516  0.3825  0.0159  0.0190
 1237DOPC   C3B14517  22.288   1.788  12.149 -0.1439 -0.1344 -0.1082
 1237DOPC   C4B14518  22.258   1.537  11.752 -0.1904 -0.0402 -0.3228
 1238DOPE   NH314519  16.415   2.708  14.830  0.1378  0.1013  0.4824
 1238DOPE   PO414520  16.212   2.912  14.699 -0.0180 -0.2095 -0.1146
 1238DOPE   GL114521  16.330   2.687  14.389 -0.2333 -0.3066  0.0372
 1238DOPE   GL214522  16.106   2.520  14.386  0.2104  0.0490  0.4026
 1238DOPE   C1A14523  16.188   2.622  13.927  0.0692 -0.0357  0.0632
 1238DOPE   D2A14524  15.803   2.354  13.702  0.0232 -0.2512  0.3935
 1238DOPE   C3A14525  15.852   1.982  13.384  0.0872 -0.0403  0.0035
 1238DOPE   C4A14526  16.149   1.629  13.256  0.3118 -0.0150 -0.2531
 1238DOPE   C1B14527  15.729   2.608  14.158 -0.1211  0.0547 -0.0216
 1238DOPE   D2B14528  15.418   2.573  13.868 -0.1631  0.1001 -0.1016
 1238DOPE   C3B14529  15.498   2.866  13.476  0.1695 -0.1305 -0.0045
 1238DOPE   C4B14530  15.481   3.088  13.048 -0.0776  0.0162 -0.0264
 1239DOPE   NH314531  15.667   4.409  14.938  0.0815  0.0038  0.0161
 1239DOPE   PO414532  15.421   4.293  14.899  0.3391 -0.0998  0.0034
 1239DOPE   GL114533  15.329   4.276  14.515  0.0577 -0.2896  0.1563
 1239DOPE   GL214534  15.624   4.147  14.486 -0.0345  0.2112  0.1624
 1239DOPE   C1A14535  15.203   3.966  14.169  0.0552 -0.0771  0.0147
 1239DOPE   D2A14536  15.394   3.670  13.786 -0.1359 -0.1609 -0.1111
 1239DOPE   C3A14537  15.506   3.264  13.943 -0.3422 -0.0255 -0.2718
 1239DOPE   C4A14538  15.777   3.114  14.287  0.0832  0.2171 -0.2579
 1239DOPE   C1B14539  15.512   4.451  14.143 -0.0098 -0.1388  0.1001
 1239DOPE   D2B14540  15.174   4.523  13.837  0.0659 -0.2177 -0.0031
 1239DOPE   C3B14541  15.334   4.695  13.420 -0.0406  0.2877 -0.0141
 1239DOPE   C4B14542  15.348   4.529  12.921  0.0941  0.1370  0.0892
 1240DOPC   NC314543  18.238  10.283  12.529  0.2277  0.0514 -0.0732
 1240DOPC   PO414544  18.285  10.594  12.357 -0.4223  0.0778 -0.0867
 1240DOPC   GL114545  18.313  10.427  11.998 -0.2505  0.3950  0.0685
 1240DOPC   GL214546  18.141  10.287  11.785  0.0213 -0.0810 -0.1030
 1240DOPC   C1A14547  18.343  10.758  11.660  0.2182 -0.0545 -0.0268
 1240DOPC   D2A14548  18.366  11.100  11.310 -0.1363  0.1541  0.0242
 1240DOPC   C3A14549  18.401  10.913  10.928 -0.1827  0.1834  0.0494
 1240DOPC   C4A14550  18.500  10.714  10.552  0.0968  0.4244  0.0980
 1240DOPC   C1B14551  17.952  10.521  11.437  0.2654  0.0380 -0.1791
 1240DOPC   D2B14552  17.798  10.781  11.098  0.1004  0.1423  0.1496
 1240DOPC   C3B14553  17.943  10.962  10.695 -0.0507  0.1317  0.3394
 1240DOPC   C4B14554  17.831  11.037  10.277  0.0359 -0.4682 -0.1953
 1241POSM   NC314555  21.690   7.187  13.185 -0.1526  0.2569  0.0119
 1241POSM   PO414556  21.351   6.994  13.204 -0.1182  0.1008  0.2228
 1241POSM   AM114557  21.224   6.765  12.942 -0.0723  0.5158  0.2899
 1241POSM   AM214558  21.059   6.560  12.840 -0.1194  0.0824 -0.2820
 1241POSM   T1A14559  21.486   6.390  12.672 -0.4860 -0.0938 -0.1008
 1241POSM   C2A14560  21.572   6.326  12.257 -0.1143 -0.2210  0.1303
 1241POSM   C3A14561  21.958   6.369  11.970  0.0087  0.0708 -0.0063
 1241POSM   C1B14562  20.860   6.689  12.610  0.1467 -0.2032 -0.0537
 1241POSM   D2B14563  20.608   6.602  12.199  0.0058  0.0941 -0.5015
 1241POSM   C3B14564  20.523   6.923  11.870  0.0719  0.0848 -0.5103
 1241POSM   C4B14565  20.097   6.897  11.735 -0.0771  0.0203 -0.1515
 1242DOPE   NH314566  11.599  10.956  14.761  0.1401  0.2961  0.0334
 1242DOPE   PO414567  11.736  10.741  14.587 -0.2070  0.0998 -0.0637
 1242DOPE   GL114568  11.771  10.525  14.235 -0.0095  0.0424  0.1669
 1242DOPE   GL214569  11.507  10.570  14.072  0.2467  0.1317 -0.1923
 1242DOPE   C1A14570  11.935  10.460  13.808  0.2516 -0.0917  0.0003
 1242DOPE   D2A14571  12.189  10.550  13.375 -0.3447  0.1778 -0.1716
 1242DOPE   C3A14572  12.251  10.730  12.911  0.1740 -0.0372  0.2560
 1242DOPE   C4A14573  12.169  10.651  12.507  0.0250  0.0264  0.0127
 1242DOPE   C1B14574  11.199  10.242  14.191 -0.2292 -0.1482  0.1630
 1242DOPE   D2B14575  10.938  10.032  13.834 -0.0306 -0.1879 -0.0867
 1242DOPE   C3B14576  10.968  10.240  13.443 -0.0118  0.2017  0.0388
 1242DOPE   C4B14577  10.655  10.347  13.103  0.0975 -0.1080  0.4289
 1243DOPS   CNO14578  16.811   0.698  15.365 -0.1319  0.3048  0.0542
 1243DOPS   PO414579  16.719   0.901  15.016  0.1814  0.1866  0.0440
 1243DOPS   GL114580  16.540   0.781  14.667 -0.2508 -0.1948 -0.1907
 1243DOPS   GL214581  16.538   0.536  14.631 -0.2626  0.0232  0.2359
 1243DOPS   C1A14582  16.721   0.935  14.243 -0.1974  0.4438 -0.1399
 1243DOPS   D2A14583  16.663   1.128  13.790 -0.0514 -0.0393 -0.0216
 1243DOPS   C3A14584  16.597   1.417  13.434 -0.1036  0.2350  0.0530
 1243DOPS   C4A14585  16.608   1.688  13.002  0.0331  0.2400  0.3521
 1243DOPS   C1B14586  16.389   0.425  14.280  0.1978  0.0637  0.0811
 1243DOPS   D2B14587  16.063   0.392  14.006 -0.0353 -0.0355  0.0917
 1243DOPS   C3B14588  15.726   0.679  13.789  0.0795 -0.0610 -0.0752
 1243DOPS   C4B14589  15.452   0.620  13.427  0.0807 -0.0833 -0.0294
 1244POSM   NC314590  19.234   8.947  13.062 -0.0758  0.1323 -0.0038
 1244POSM   PO414591  19.351   8.578  13.187  0.2582  0.1296  0.0385
 1244POSM   AM114592  19.427   8.545  12.856 -0.1749 -0.1440 -0.1237
 1244POSM   AM214593  19.681   8.569  12.709  0.2090  0.0353 -0.2224
 1244POSM   T1A14594  19.171   8.499  12.405  0.1218  0.0870  0.1776
 1244POSM   C2A14595  18.769   8.642  12.320  0.1439  0.2532 -0.3979
 1244POSM   C3A14596  18.462   8.947  12.466  0.2995  0.0814  0.2067
 1244POSM   C1B14597  19.712   8.578  12.340 -0.1578 -0.0311  0.0225
 1244POSM   D2B14598  19.830   8.590  11.896  0.1876  0.0956  0.0890
 1244POSM   C3B14599  19.797   8.484  11.447 -0.0815  0.1354 -0.0954
 1244POSM   C4B14600  19.497   8.252  11.137  0.3173 -0.1504 -0.3085
 1245POSM   NC314601  15.704   9.212  13.509  0.2041  0.0452  0.1116
 1245POSM   PO414602  16.111   9.333  13.474 -0.0691 -0.0635 -0.2453
 1245POSM   AM114603  16.035   9.297  13.170 -0.0992  0.0652  0.0347
 1245POSM   AM214604  16.210   9.311  12.956  0.1021 -0.1631  0.5443
 1245POSM   T1A14605  15.875   8.953  12.930  0.0447  0.1401  0.2909
 1245POSM   C2A14606  15.866   8.854  12.490  0.0476 -0.0284 -0.2985
 1245POSM   C3A14607  15.564   8.630  12.239  0.1250 -0.4377 -0.2255
 1245POSM   C1B14608  16.326   9.064  12.716 -0.3924 -0.1407 -0.2594
 1245POSM   D2B14609  16.477   8.993  12.269  0.0163  0.3511 -0.2372
 1245POSM   C3B14610  16.706   8.565  12.324 -0.1018 -0.0523 -0.0987
 1245POSM   C4B14611  16.938   8.258  12.095  0.0357 -0.0387  0.0432
 1246DOPC   NC314612  13.961   0.116  15.767  0.3063 -0.0690  0.3353
 1246DOPC   PO414613  14.022   0.518  15.696 -0.2519 -0.1033 -0.1146
 1246DOPC   GL114614  13.940   0.542  15.386 -0.1287 -0.1708 -0.1634
 1246DOPC   GL214615  14.086   0.514  15.151  0.0775 -0.0077 -0.1784
 1246DOPC   C1A14616  13.666   0.735  15.051 -0.1103  0.1492  0.2838
 1246DOPC   D2A14617  13.525   0.852  14.685 -0.1011  0.1300 -0.3555
 1246DOPC   C3A14618  13.559   0.529  14.417 -0.0963  0.0451 -0.0522
 1246DOPC   C4A14619  13.173   0.309  14.376  0.1375  0.2840  0.1503
 1246DOPC   C1B14620  13.985   0.387  14.705 -0.0506  0.1221 -0.2161
 1246DOPC   D2B14621  13.670   0.082  14.505 -0.0927  0.0870  0.0921
 1246DOPC   C3B14622  13.563   0.104  14.057 -0.1084  0.0038  0.1171
 1246DOPC   C4B14623  13.286  -0.035  13.725  0.0892 -0.1727  0.0795
 1247DOPS   CNO14624  19.710   4.981  13.486 -0.1986  0.1658 -0.0938
 1247DOPS   PO414625  19.407   4.888  13.680 -0.0095  0.3763 -0.0263
 1247DOPS   GL114626  19.209   4.912  13.321  0.0633  0.1579  0.4030
 1247DOPS   GL214627  19.223   5.167  13.340 -0.0169  0.3500 -0.1814
 1247DOPS   C1A14628  19.416   4.859  12.913 -0.3043 -0.5708 -0.1615
 1247DOPS   D2A14629  19.418   4.707  12.426 -0.2737  0.2777 -0.2047
 1247DOPS   C3A14630  19.451   4.615  12.035  0.0363  0.0799  0.2238
 1247DOPS   C4A14631  19.595   4.393  11.720 -0.3093  0.2977 -0.0508
 1247DOPS   C1B14632  19.182   5.598  13.157  0.0816 -0.2329  0.1020
 1247DOPS   D2B14633  18.885   5.953  12.928 -0.0854 -0.1524 -0.0975
 1247DOPS   C3B14634  18.807   5.891  12.425  0.1297  0.2268 -0.0366
 1247DOPS   C4B14635  18.539   6.001  12.076 -0.1380  0.2175  0.2546
 1248DOPE   NH314636  17.944   9.558  12.979  0.0273 -0.1726 -0.1013
 1248DOPE   PO414637  18.071   9.854  12.922  0.3710  0.1831 -0.0648
 1248DOPE   GL114638  18.085   9.711  12.424 -0.0989  0.0396  0.1274
 1248DOPE   GL214639  18.135   9.878  12.210  0.1549  0.2222  0.2497
 1248DOPE   C1A14640  18.376   9.420  12.187 -0.2087  0.2622  0.1258
 1248DOPE   D2A14641  18.583   9.315  11.712 -0.1603 -0.1517 -0.0444
 1248DOPE   C3A14642  18.451   8.963  11.481 -0.0311  0.2166  0.0679
 1248DOPE   C4A14643  18.241   8.648  11.239  0.2775  0.0971 -0.0899
 1248DOPE   C1B14644  18.313   9.700  11.779  0.1125 -0.2304 -0.1162
 1248DOPE   D2B14645  18.117   9.687  11.395 -0.0087 -0.0222 -0.0732
 1248DOPE   C3B14646  18.175  10.103  11.135 -0.0405 -0.2468 -0.2714
 1248DOPE   C4B14647  18.456  10.487  11.187  0.1815  0.1335  0.0275
 1249POSM   NC314648  22.226   5.028  14.333 -0.2012  0.0321 -0.0400
 1249POSM   PO414649  22.331   4.863  13.980  0.2983  0.0590 -0.1606
 1249POSM   AM114650  22.318   4.870  13.653 -0.1919 -0.0444  0.0090
 1249POSM   AM214651  22.106   4.746  13.460 -0.0002  0.1769 -0.2918
 1249POSM   T1A14652  22.279   5.143  13.224  0.1083 -0.3224 -0.2640
 1249POSM   C2A14653  22.485   5.190  12.798  0.0547 -0.1346  0.1330
 1249POSM   C3A14654  22.549   5.300  12.389  0.3377 -0.0843  0.0270
 1249POSM   C1B14655  22.083   4.529  13.209 -0.0067  0.1623 -0.0953
 1249POSM   D2B14656  22.151   4.350  12.787 -0.2928  0.0083 -0.0930
 1249POSM   C3B14657  22.240   4.649  12.472 -0.0945 -0.0549  0.0977
 1249POSM   C4B14658  22.606   4.865  12.152 -0.1156  0.0630 -0.5683
 1250POSM   NC314659  23.722   2.805  13.533 -0.0891  0.1134 -0.2999
 1250POSM   PO414660  23.583   2.448  13.535  0.1297 -0.0306  0.0275
 1250POSM   AM114661  23.458   2.552  13.250 -0.1108 -0.3074 -0.2031
 1250POSM   AM214662  23.564   2.519  12.996 -0.2324 -0.0972 -0.1349
 1250POSM   T1A14663  23.488   2.997  12.983 -0.2250  0.2843  0.2874
 1250POSM   C2A14664  23.431   3.306  12.623 -0.0389 -0.2397 -0.4408
 1250POSM   C3A14665  23.526   3.561  12.248  0.3309 -0.4208 -0.0447
 1250POSM   C1B14666  23.598   2.639  12.647 -0.3034  0.0306  0.2947
 1250POSM   D2B14667  23.792   2.971  12.387  0.2520  0.2529  0.1860
 1250POSM   C3B14668  23.794   3.214  11.983  0.0121 -0.0534 -0.0857
 1250POSM   C4B14669  23.788   3.164  11.476 -0.0250  0.2322 -0.1609
 1251DOPC   NC314670  12.927   8.114  14.339 -0.0790 -0.0690  0.1047
 1251DOPC   PO414671  12.896   8.187  14.731 -0.1462  0.2303  0.1015
 1251DOPC   GL114672  12.527   8.151  14.504 -0.0231  0.0762  0.1705
 1251DOPC   GL214673  12.454   7.918  14.446 -0.0317  0.1728 -0.3066
 1251DOPC   C1A14674  12.395   8.322  14.119  0.1951 -0.2898  0.0328
 1251DOPC   D2A14675  12.198   8.583  13.818  0.1682  0.5173  0.2101
 1251DOPC   C3A14676  11.827   8.413  13.513 -0.0951 -0.2128 -0.3665
 1251DOPC   C4A14677  11.793   7.980  13.284 -0.1843 -0.4020  0.0250
 1251DOPC   C1B14678  12.175   7.540  14.459  0.3582  0.2910  0.3350
 1251DOPC   D2B14679  11.789   7.312  14.240 -0.0585  0.0722  0.1373
 1251DOPC   C3B14680  11.681   7.511  13.857 -0.0133  0.4380  0.1548
 1251DOPC   C4B14681  11.594   7.560  13.417 -0.1629 -0.1969  0.1941
 1252DOPC   NC314682  13.100   3.832  15.852  0.2190 -0.2843  0.1111
 1252DOPC   PO414683  13.075   4.267  15.734 -0.0558  0.0273 -0.0637
 1252DOPC   GL114684  12.867   3.983  15.468  0.0600 -0.0706 -0.1393
 1252DOPC   GL214685  12.729   4.129  15.392 -0.1330  0.0288  0.0983
 1252DOPC   C1A14686  12.885   3.794  15.019  0.2222  0.1059 -0.2777
 1252DOPC   D2A14687  12.810   3.569  14.624  0.1163  0.0084  0.2472
 1252DOPC   C3A14688  12.930   3.234  14.334 -0.0069 -0.2491  0.0332
 1252DOPC   C4A14689  13.038   2.802  14.369  0.0535 -0.0612 -0.0696
 1252DOPC   C1B14690  12.554   4.183  14.949  0.1959  0.2183  0.0084
 1252DOPC   D2B14691  12.414   4.538  14.643 -0.0713 -0.0334  0.2280
 1252DOPC   C3B14692  12.121   4.718  14.340  0.2765 -0.2950 -0.1396
 1252DOPC   C4B14693  12.022   5.087  14.082 -0.3396  0.0540  0.0280
 1253POSM   NC314694  19.251  34.183  14.286 -0.1237 -0.3192  0.1878
 1253POSM   PO414695  19.620  34.236  14.214 -0.1230  0.2439  0.1891
 1253POSM   AM114696  19.519  34.197  13.896 -0.0540 -0.3075  0.2549
 1253POSM   AM214697  19.592  34.093  13.639  0.2657 -0.2177  0.3145
 1253POSM   T1A14698  19.097  34.167  13.581  0.1880 -0.1127 -0.0326
 1253POSM   C2A14699  18.842  34.071  13.176 -0.2701  0.0221 -0.1236
 1253POSM   C3A14700  18.437  33.913  12.870  0.3038 -0.0433 -0.1588
 1253POSM   C1B14701  19.494  34.052  13.328 -0.2200  0.0705  0.4476
 1253POSM   D2B14702  19.295  34.127  12.919 -0.0157 -0.1297 -0.1660
 1253POSM   C3B14703  19.286  34.542  12.771  0.1539 -0.1816  0.3107
 1253POSM   C4B14704  18.986  34.847  12.747  0.0602 -0.1831  0.0829
 1254POSM   NC314705  22.054   7.009  14.027  0.4171 -0.0511 -0.2897
 1254POSM   PO414706  22.239   6.727  13.772 -0.2270  0.0071  0.2140
 1254POSM   AM114707  22.349   6.795  13.452  0.0479  0.1261  0.1775
 1254POSM   AM214708  22.546   6.985  13.351  0.0476  0.0960  0.1290
 1254POSM   T1A14709  22.078   6.861  13.017  0.2312  0.0582 -0.1710
 1254POSM   C2A14710  21.740   6.930  12.752  0.2486 -0.0082  0.2134
 1254POSM   C3A14711  21.714   7.213  12.376 -0.0603 -0.1111 -0.1282
 1254POSM   C1B14712  22.767   7.091  13.113  0.1856  0.0552  0.2976
 1254POSM   D2B14713  23.080   7.042  12.804  0.1114 -0.1076 -0.3182
 1254POSM   C3B14714  23.079   7.251  12.386  0.1625 -0.1146  0.1186
 1254POSM   C4B14715  23.284   7.318  11.994  0.0275  0.0599 -0.1029
 1255DOPE   NH314716  23.551  11.236  13.181 -0.0440  0.3152  0.0716
 1255DOPE   PO414717  23.351  11.468  13.113  0.0723  0.0508 -0.1742
 1255DOPE   GL114718  23.559  11.473  12.726 -0.1312 -0.0984 -0.0727
 1255DOPE   GL214719  23.375  11.257  12.673 -0.2670  0.1015 -0.1422
 1255DOPE   C1A14720  23.570  11.671  12.285 -0.0679  0.1405 -0.4534
 1255DOPE   D2A14721  23.264  11.727  11.966  0.1610  0.0835 -0.1539
 1255DOPE   C3A14722  23.348  11.434  11.640 -0.2464  0.0783 -0.1192
 1255DOPE   C4A14723  23.587  11.068  11.456  0.2326 -0.0714 -0.2729
 1255DOPE   C1B14724  23.655  10.960  12.432  0.0019 -0.2161  0.0269
 1255DOPE   D2B14725  23.785  11.081  11.992  0.3322  0.0502  0.0869
 1255DOPE   C3B14726  23.992  10.786  11.729 -0.4427 -0.0735  0.1151
 1255DOPE   C4B14727  23.960  10.759  11.309  0.1840  0.0242  0.0854
 1256DOPC   NC314728  17.236   8.630  13.657 -0.1761 -0.0219 -0.2068
 1256DOPC   PO414729  17.277   8.315  13.772  0.0838  0.0229 -0.4143
 1256DOPC   GL114730  17.226   8.166  13.305 -0.2206  0.4448  0.1632
 1256DOPC   GL214731  17.427   8.322  13.204  0.0116  0.1559  0.0460
 1256DOPC   C1A14732  17.324   7.746  13.073  0.1480 -0.2688  0.1218
 1256DOPC   D2A14733  17.481   7.430  12.736  0.0088 -0.1505 -0.1225
 1256DOPC   C3A14734  17.236   7.105  12.464 -0.0247  0.1734  0.0618
 1256DOPC   C4A14735  16.938   7.270  12.165  0.0060 -0.1385 -0.0333
 1256DOPC   C1B14736  17.224   8.390  12.768  0.1306 -0.2087  0.2664
 1256DOPC   D2B14737  17.259   8.534  12.369 -0.0498 -0.0125  0.1810
 1256DOPC   C3B14738  17.466   8.313  12.024 -0.0328 -0.1882  0.0233
 1256DOPC   C4B14739  17.248   8.107  11.656  0.1194  0.0997 -0.0446
 1257DOPE   NH314740  20.048   7.007  13.332 -0.0357  0.2061 -0.0700
 1257DOPE   PO414741  19.813   7.270  13.295  0.0050  0.2294 -0.0541
 1257DOPE   GL114742  19.652   7.065  12.915  0.0847 -0.1467  0.1529
 1257DOPE   GL214743  19.905   7.001  12.833 -0.1290 -0.1072 -0.0930
 1257DOPE   C1A14744  19.627   6.762  12.551 -0.2903  0.0107  0.1607
 1257DOPE   D2A14745  19.768   6.273  12.588 -0.0791  0.2450  0.2222
 1257DOPE   C3A14746  19.649   6.079  12.188 -0.0407  0.1199  0.4761
 1257DOPE   C4A14747  19.454   5.983  11.784 -0.3245  0.0093 -0.2783
 1257DOPE   C1B14748  19.938   7.104  12.394 -0.2006  0.1893  0.2216
 1257DOPE   D2B14749  20.301   7.293  12.137  0.1742 -0.1055  0.0672
 1257DOPE   C3B14750  20.701   7.421  12.009 -0.0478  0.2405  0.1644
 1257DOPE   C4B14751  21.105   7.438  11.832  0.0755 -0.2834 -0.1379
 1258DOPE   NH314752  22.277   3.130  13.851 -0.0053 -0.0807 -0.0503
 1258DOPE   PO414753  22.167   3.458  13.807  0.0082  0.0606  0.0831
 1258DOPE   GL114754  22.148   3.394  13.412  0.0356 -0.0528 -0.3491
 1258DOPE   GL214755  22.374   3.234  13.315  0.0652  0.0853  0.0109
 1258DOPE   C1A14756  21.768   3.554  13.182  0.1620 -0.1392 -0.0976
 1258DOPE   D2A14757  21.541   3.771  12.870  0.0273 -0.0050  0.1456
 1258DOPE   C3A14758  21.334   3.604  12.438 -0.0003 -0.0916  0.0272
 1258DOPE   C4A14759  21.024   3.352  12.237 -0.2170  0.1018 -0.0467
 1258DOPE   C1B14760  22.100   3.249  12.981  0.0293 -0.0591 -0.2118
 1258DOPE   D2B14761  22.134   2.941  12.605 -0.0113  0.0742 -0.0331
 1258DOPE   C3B14762  22.097   2.448  12.532 -0.1816 -0.0102 -0.2027
 1258DOPE   C4B14763  21.911   1.991  12.528  0.0737 -0.1426 -0.1184
 1259DOPE   NH314764  18.125   4.801  14.179 -0.1878  0.2528 -0.3486
 1259DOPE   PO414765  17.900   4.549  14.244  0.1236  0.1535  0.2243
 1259DOPE   GL114766  17.980   4.526  13.833 -0.0950 -0.3224  0.0447
 1259DOPE   GL214767  17.910   4.248  13.667  0.3426  0.0454  0.2204
 1259DOPE   C1A14768  17.775   4.739  13.492 -0.1135  0.2050  0.2002
 1259DOPE   D2A14769  17.328   4.558  13.346  0.0518 -0.1955  0.1121
 1259DOPE   C3A14770  16.969   4.780  13.234 -0.1525 -0.2607 -0.1828
 1259DOPE   C4A14771  16.682   5.097  13.106  0.3086  0.0805  0.2083
 1259DOPE   C1B14772  17.736   4.303  13.248  0.2328 -0.1279 -0.0266
 1259DOPE   D2B14773  17.530   4.090  12.898  0.1202  0.0478  0.0582
 1259DOPE   C3B14774  17.362   4.325  12.538 -0.0263  0.1372  0.0789
 1259DOPE   C4B14775  17.340   4.246  12.092 -0.0393 -0.1244 -0.2113
 1260DOPS   CNO14776  13.674   5.190  15.154 -0.2422  0.1560 -0.0757
 1260DOPS   PO414777  13.560   5.559  15.209 -0.1525  0.5292 -0.0602
 1260DOPS   GL114778  13.308   5.735  14.953  0.0978 -0.2345 -0.2088
 1260DOPS   GL214779  13.402   5.630  14.737  0.1561 -0.2079  0.1464
 1260DOPS   C1A14780  12.935   5.611  14.696  0.0788 -0.1325 -0.1518
 1260DOPS   D2A14781  12.799   5.633  14.242 -0.0412  0.1665 -0.1795
 1260DOPS   C3A14782  12.968   5.481  13.899  0.1354  0.2669  0.2376
 1260DOPS   C4A14783  13.210   5.450  13.536 -0.2424  0.3873  0.0614
 1260DOPS   C1B14784  13.314   5.678  14.254  0.2843  0.1355  0.1887
 1260DOPS   D2B14785  13.275   5.850  13.873 -0.0260 -0.3369  0.0727
 1260DOPS   C3B14786  13.059   6.052  13.560  0.0021 -0.0807 -0.1819
 1260DOPS   C4B14787  12.650   6.187  13.289 -0.3937 -0.0001  0.0416
 1261DOPE   NH314788  18.596   7.933  13.619  0.2655  0.0945 -0.3822
 1261DOPE   PO414789  18.546   7.648  13.460  0.2157 -0.0979  0.0677
 1261DOPE   GL114790  18.542   7.369  13.198 -0.0052 -0.0878  0.0841
 1261DOPE   GL214791  18.771   7.182  13.231  0.1133 -0.2174  0.2817
 1261DOPE   C1A14792  18.349   7.441  12.822 -0.3007 -0.0594 -0.0923
 1261DOPE   D2A14793  18.301   7.221  12.366  0.0190  0.0691 -0.2348
 1261DOPE   C3A14794  18.031   6.843  12.120  0.2034 -0.1234 -0.2954
 1261DOPE   C4A14795  17.839   6.692  11.742  0.1071  0.4245 -0.0564
 1261DOPE   C1B14796  18.708   7.004  12.777 -0.1982  0.0453  0.0300
 1261DOPE   D2B14797  18.732   7.024  12.395  0.1141  0.1055  0.1569
 1261DOPE   C3B14798  18.511   6.849  12.032  0.1778 -0.2504  0.0346
 1261DOPE   C4B14799  18.423   7.014  11.568  0.0990  0.1447  0.0922
 1262DOPE   NH314800  15.423   5.267  15.007 -0.0198  0.1600  0.0105
 1262DOPE   PO414801  15.571   4.994  14.840 -0.0333 -0.2577  0.3617
 1262DOPE   GL114802  15.477   5.093  14.413 -0.2854  0.4313 -0.2605
 1262DOPE   GL214803  15.199   5.198  14.476  0.2570  0.3121  0.2326
 1262DOPE   C1A14804  15.691   5.430  14.171  0.1667  0.2313 -0.1631
 1262DOPE   D2A14805  15.531   5.822  14.068  0.0771  0.2591  0.0988
 1262DOPE   C3A14806  15.353   5.939  13.661 -0.1218  0.2024 -0.2028
 1262DOPE   C4A14807  14.933   6.072  13.509  0.1849 -0.1179 -0.0768
 1262DOPE   C1B14808  14.803   5.363  14.326 -0.1184 -0.2705 -0.0840
 1262DOPE   D2B14809  14.479   5.618  14.111 -0.4368  0.0728  0.0748
 1262DOPE   C3B14810  14.316   5.583  13.683  0.1370  0.0797 -0.3487
 1262DOPE   C4B14811  14.038   5.651  13.310  0.2791 -0.0381 -0.1239
 1263POSM   NC314812  17.556  33.862  14.856 -0.0880 -0.1694  0.2290
 1263POSM   PO414813  17.199  34.059  14.855  0.1579  0.1501 -0.1470
 1263POSM   AM114814  17.083  34.198  14.628 -0.0681 -0.1178 -0.1589
 1263POSM   AM214815  16.957  34.441  14.648 -0.1321 -0.1731 -0.0333
 1263POSM   T1A14816  17.001  34.291  14.140  0.0478  0.0303 -0.0774
 1263POSM   C2A14817  16.801  34.359  13.743  0.0320  0.0389 -0.5079
 1263POSM   C3A14818  16.718  34.707  13.359  0.2391 -0.2934 -0.2465
 1263POSM   C1B14819  16.887  34.719  14.421  0.2918 -0.3388 -0.2084
 1263POSM   D2B14820  16.897  34.808  13.989  0.4186 -0.0774  0.0544
 1263POSM   C3B14821  16.521  35.030  13.841 -0.2757 -0.0934 -0.2110
 1263POSM   C4B14822  16.166  35.309  13.615 -0.1920 -0.0203 -0.2157
 1264POSM   NC314823  15.951   1.765  15.358 -0.1651  0.0590 -0.0126
 1264POSM   PO414824  15.716   1.973  15.064  0.0972 -0.4239  0.0172
 1264POSM   AM114825  15.489   1.902  14.837 -0.2617  0.1023  0.2208
 1264POSM   AM214826  15.356   1.672  14.874  0.1428  0.3162 -0.0162
 1264POSM   T1A14827  15.095   1.918  14.483 -0.0045 -0.0295  0.2676
 1264POSM   C2A14828  14.882   2.012  14.108  0.0111 -0.0277 -0.1375
 1264POSM   C3A14829  14.443   2.075  13.998 -0.0366  0.1512  0.1586
 1264POSM   C1B14830  15.362   1.433  14.626  0.2286 -0.1042 -0.1132
 1264POSM   D2B14831  15.237   1.039  14.376 -0.3588 -0.2078  0.2334
 1264POSM   C3B14832  14.818   0.977  14.169 -0.0514  0.1211 -0.1343
 1264POSM   C4B14833  14.490   0.637  13.981 -0.0474 -0.2060  0.0971
 1265DOPC   NC314834  16.918   8.016  14.032  0.1263  0.0268  0.0376
 1265DOPC   PO414835  16.662   7.774  14.168 -0.0290 -0.0283 -0.3110
 1265DOPC   GL114836  16.776   7.674  13.742 -0.1056 -0.2011  0.3027
 1265DOPC   GL214837  16.819   7.997  13.589  0.5468 -0.1437  0.1134
 1265DOPC   C1A14838  16.639   7.449  13.378 -0.2045  0.2743  0.4415
 1265DOPC   D2A14839  16.470   6.997  13.223  0.2606  0.3718 -0.1674
 1265DOPC   C3A14840  16.721   6.795  12.831  0.0238 -0.2823 -0.0098
 1265DOPC   C4A14841  16.852   6.730  12.421 -0.3167 -0.0478 -0.0399
 1265DOPC   C1B14842  16.870   7.827  13.191 -0.2458 -0.2245 -0.0647
 1265DOPC   D2B14843  16.660   7.722  12.821  0.1546 -0.1789  0.1007
 1265DOPC   C3B14844  16.531   7.579  12.426  0.2182 -0.1186  0.2732
 1265DOPC   C4B14845  16.408   7.228  12.085  0.0793 -0.0443 -0.0908
 1266DOPC   NC314846  14.128   8.070  14.594  0.1839  0.0608  0.6372
 1266DOPC   PO414847  13.832   8.309  14.654 -0.1191 -0.0151 -0.2032
 1266DOPC   GL114848  13.723   8.181  14.271 -0.5141 -0.0037  0.2389
 1266DOPC   GL214849  13.990   8.111  14.150  0.0294 -0.0531  0.0375
 1266DOPC   C1A14850  13.574   7.888  13.948  0.0015 -0.0051 -0.0338
 1266DOPC   D2A14851  13.499   7.462  13.797 -0.0943  0.1463 -0.3913
 1266DOPC   C3A14852  13.394   7.318  13.358 -0.1805  0.1788  0.4132
 1266DOPC   C4A14853  13.029   7.140  13.143  0.0598 -0.0958  0.1878
 1266DOPC   C1B14854  14.083   7.896  13.784 -0.0036 -0.0123  0.2866
 1266DOPC   D2B14855  13.925   7.526  13.542  0.3102 -0.1172 -0.2648
 1266DOPC   C3B14856  14.012   7.513  13.028  0.0008 -0.1507  0.1738
 1266DOPC   C4B14857  13.673   7.712  12.827  0.2039  0.0163  0.1620
 1267POSM   NC314858  13.081  11.235  13.773 -0.0717  0.0299  0.3301
 1267POSM   PO414859  13.328  11.093  13.506 -0.2863  0.0709 -0.0100
 1267POSM   AM114860  13.127  11.089  13.258  0.0125  0.0508 -0.2362
 1267POSM   AM214861  12.868  11.222  13.175  0.3169 -0.0603  0.1446
 1267POSM   T1A14862  13.133  11.206  12.799 -0.0994 -0.0905 -0.0788
 1267POSM   C2A14863  13.168  10.974  12.437  0.1002 -0.2271 -0.0856
 1267POSM   C3A14864  13.120  10.577  12.200 -0.0153 -0.1048 -0.1203
 1267POSM   C1B14865  12.658  11.116  12.900 -0.0375  0.0765  0.1345
 1267POSM   D2B14866  12.317  11.246  12.678 -0.1148 -0.4417  0.3341
 1267POSM   C3B14867  11.909  11.030  12.713 -0.1235  0.5352  0.2228
 1267POSM   C4B14868  11.463  11.058  12.812  0.2188  0.1337  0.0956
 1268DOPC   NC314869  20.726   5.125  13.677  0.1031 -0.2129 -0.0665
 1268DOPC   PO414870  20.645   4.784  13.811  0.1076  0.1099  0.1084
 1268DOPC   GL114871  20.541   4.713  13.386 -0.0953  0.0811  0.3511
 1268DOPC   GL214872  20.492   4.421  13.457  0.0907  0.2038  0.2194
 1268DOPC   C1A14873  20.665   4.509  12.976 -0.0735 -0.1469 -0.0527
 1268DOPC   D2A14874  20.723   4.338  12.545  0.1404  0.0417 -0.1776
 1268DOPC   C3A14875  20.989   4.276  12.145 -0.4652  0.3367  0.1504
 1268DOPC   C4A14876  20.962   3.933  11.780 -0.0067 -0.1789  0.2310
 1268DOPC   C1B14877  20.221   4.576  13.119 -0.1780 -0.0267  0.0183
 1268DOPC   D2B14878  19.901   4.940  12.998 -0.1102 -0.1492  0.2833
 1268DOPC   C3B14879  19.814   4.978  12.593  0.1420 -0.2837  0.3020
 1268DOPC   C4B14880  19.966   5.170  12.251  0.0111  0.1485  0.1622
 1269POSM   NC314881  11.040   8.323  15.844 -0.0202 -0.1492 -0.1102
 1269POSM   PO414882  10.648   8.398  15.988  0.0992  0.1339 -0.2093
 1269POSM   AM114883  10.555   8.367  15.656  0.0277  0.5924 -0.0916
 1269POSM   AM214884  10.588   8.437  15.402 -0.2925  0.1427  0.0741
 1269POSM   T1A14885  10.142   8.144  15.440 -0.1770 -0.2203 -0.1355
 1269POSM   C2A14886   9.822   8.073  15.085 -0.0969  0.4760 -0.0842
 1269POSM   C3A14887   9.471   8.149  14.728  0.0293 -0.2410 -0.0885
 1269POSM   C1B14888  10.830   8.227  15.289 -0.0456  0.1883  0.0544
 1269POSM   D2B14889  11.022   7.781  15.224  0.3123 -0.1507 -0.3620
 1269POSM   C3B14890  11.013   7.427  14.960 -0.0346  0.2480  0.0792
 1269POSM   C4B14891  10.980   7.351  14.491 -0.2784 -0.0345 -0.1049
 1270DOPC   NC314892  13.122   4.749  15.636 -0.1711 -0.0136 -0.0348
 1270DOPC   PO414893  13.285   5.086  15.456 -0.1849  0.0410 -0.3459
 1270DOPC   GL114894  13.045   5.091  15.129 -0.0342  0.1250 -0.1251
 1270DOPC   GL214895  13.192   5.234  14.875 -0.0661  0.0677 -0.1689
 1270DOPC   C1A14896  12.669   5.238  14.906 -0.0244 -0.0553 -0.0200
 1270DOPC   D2A14897  12.493   5.081  14.515  0.1916 -0.0832 -0.2228
 1270DOPC   C3A14898  12.106   5.297  14.536  0.1664  0.3023  0.1817
 1270DOPC   C4A14899  11.697   5.397  14.281 -0.1142 -0.0337  0.0303
 1270DOPC   C1B14900  12.960   5.164  14.502 -0.1223 -0.1293 -0.0305
 1270DOPC   D2B14901  12.761   5.125  14.102 -0.1907 -0.0663 -0.1224
 1270DOPC   C3B14902  12.486   4.757  13.978  0.2218 -0.1627  0.0468
 1270DOPC   C4B14903  12.140   4.574  13.635 -0.0456 -0.0524  0.1692
 1271POSM   NC314904  12.045  12.317  13.527  0.1916  0.0487 -0.0381
 1271POSM   PO414905  12.097  12.701  13.529 -0.1092 -0.0794 -0.0019
 1271POSM   AM114906  12.170  12.681  13.219  0.5580  0.0937  0.1940
 1271POSM   AM214907  12.352  12.600  13.040  0.2223 -0.0766  0.1294
 1271POSM   T1A14908  11.958  12.771  12.784 -0.3288 -0.0018 -0.0838
 1271POSM   C2A14909  11.793  13.108  12.521  0.0450 -0.0144  0.0906
 1271POSM   C3A14910  11.819  13.478  12.282 -0.0140 -0.0858  0.0803
 1271POSM   C1B14911  12.345  12.384  12.761 -0.1485  0.2397 -0.1955
 1271POSM   D2B14912  12.268  12.107  12.338 -0.2057 -0.0006  0.0172
 1271POSM   C3B14913  12.312  11.595  12.324  0.0777  0.1437 -0.2451
 1271POSM   C4B14914  12.025  11.202  12.231 -0.1013  0.2738 -0.1571
 1272DOPE   NH314915  15.742   6.831  14.304  0.2697 -0.0256  0.0987
 1272DOPE   PO414916  15.652   6.568  14.499 -0.6028 -0.1649  0.0389
 1272DOPE   GL114917  15.648   6.369  14.179  0.2906  0.1827 -0.1160
 1272DOPE   GL214918  15.345   6.333  14.180 -0.1424 -0.1647 -0.3803
 1272DOPE   C1A14919  15.551   6.403  13.721 -0.1899  0.0131  0.0153
 1272DOPE   D2A14920  15.296   6.424  13.353  0.1247 -0.1094 -0.2119
 1272DOPE   C3A14921  15.373   6.610  12.918  0.1998  0.2299  0.1484
 1272DOPE   C4A14922  15.491   6.757  12.498  0.2432  0.4106  0.0081
 1272DOPE   C1B14923  15.077   6.369  13.835  0.3702 -0.2392 -0.1523
 1272DOPE   D2B14924  14.760   6.601  13.565  0.2712 -0.3473 -0.0310
 1272DOPE   C3B14925  14.536   6.285  13.264 -0.1969  0.0553 -0.0667
 1272DOPE   C4B14926  14.553   5.831  13.298 -0.0508  0.0533  0.0789
 1273DOPC   NC314927  21.702   3.322  13.632 -0.3145  0.2445 -0.3787
 1273DOPC   PO414928  21.894   2.979  13.555  0.1594 -0.0294 -0.2796
 1273DOPC   GL114929  21.627   2.956  13.250  0.3939  0.0283 -0.0447
 1273DOPC   GL214930  21.587   2.718  13.100 -0.0102 -0.1490 -0.1113
 1273DOPC   C1A14931  21.581   3.241  12.858 -0.0123 -0.1046  0.0035
 1273DOPC   D2A14932  21.702   3.256  12.406 -0.0560 -0.1133  0.0427
 1273DOPC   C3A14933  21.434   3.348  12.033  0.1728  0.1291 -0.1663
 1273DOPC   C4A14934  21.070   3.351  11.743  0.1328 -0.4180  0.1955
 1273DOPC   C1B14935  21.608   2.759  12.677  0.0888 -0.0103  0.0248
 1273DOPC   D2B14936  21.805   2.713  12.280 -0.1690  0.0454 -0.3068
 1273DOPC   C3B14937  21.757   3.000  11.933  0.1626  0.1347 -0.3750
 1273DOPC   C4B14938  21.439   3.099  11.589  0.2889  0.1922  0.1359
 1274DOPC   NC314939  18.451  33.785  14.405  0.0256 -0.0343 -0.5058
 1274DOPC   PO414940  18.640  34.119  14.540  0.2223 -0.1966  0.1749
 1274DOPC   GL114941  18.561  34.133  14.124 -0.3259 -0.1742  0.3795
 1274DOPC   GL214942  18.785  34.324  14.082  0.1681  0.0696 -0.0863
 1274DOPC   C1A14943  18.502  34.186  13.628  0.0175  0.2464  0.2883
 1274DOPC   D2A14944  18.329  34.319  13.223  0.0745  0.1147 -0.1212
 1274DOPC   C3A14945  17.943  34.372  12.966 -0.1300  0.0881 -0.3648
 1274DOPC   C4A14946  17.536  34.239  12.907  0.0520  0.2152  0.1830
 1274DOPC   C1B14947  18.588  34.644  13.879  0.0238 -0.2196  0.0624
 1274DOPC   D2B14948  18.623  34.851  13.457 -0.0381  0.1085  0.0881
 1274DOPC   C3B14949  18.894  35.115  13.194  0.2278  0.0820  0.1258
 1274DOPC   C4B14950  19.289  35.172  12.951 -0.3235 -0.1401 -0.2763
 1275DOPC   NC314951  17.052   6.170  14.315 -0.2021 -0.1635 -0.2792
 1275DOPC   PO414952  16.898   6.458  14.064 -0.2219 -0.1672 -0.0738
 1275DOPC   GL114953  16.744   6.197  13.927 -0.0551 -0.2083  0.1246
 1275DOPC   GL214954  16.439   6.355  13.841  0.0666  0.3566  0.1358
 1275DOPC   C1A14955  16.859   6.034  13.509 -0.2883 -0.3883  0.1649
 1275DOPC   D2A14956  17.195   5.874  13.322 -0.0945  0.1698 -0.0062
 1275DOPC   C3A14957  17.052   5.560  13.041  0.2044 -0.1275  0.1793
 1275DOPC   C4A14958  17.159   5.427  12.628 -0.1771  0.0758 -0.0668
 1275DOPC   C1B14959  16.348   6.052  13.462 -0.0130 -0.0886  0.0108
 1275DOPC   D2B14960  16.150   5.886  13.117  0.1553  0.1942 -0.1322
 1275DOPC   C3B14961  15.755   5.641  13.180 -0.0135  0.0860  0.0281
 1275DOPC   C4B14962  15.583   5.498  13.574  0.1564  0.0922  0.0941
 1276DOPC   NC314963  21.845  10.466  12.996  0.0867  0.1995 -0.1042
 1276DOPC   PO414964  21.492  10.405  13.093  0.1296 -0.0654 -0.2960
 1276DOPC   GL114965  21.636  10.096  12.776 -0.3022 -0.1435  0.0637
 1276DOPC   GL214966  21.640  10.318  12.557  0.0742  0.1605  0.0887
 1276DOPC   C1A14967  21.414   9.677  12.573 -0.0759  0.1218  0.1015
 1276DOPC   D2A14968  21.328   9.260  12.445 -0.0538  0.0504 -0.1357
 1276DOPC   C3A14969  21.463   8.946  12.172 -0.2326  0.1336 -0.1086
 1276DOPC   C4A14970  21.801   8.868  11.805 -0.0390 -0.0119 -0.1538
 1276DOPC   C1B14971  21.479   9.988  12.188 -0.4163  0.3614  0.0682
 1276DOPC   D2B14972  21.409   9.914  11.749  0.1788  0.0821 -0.0645
 1276DOPC   C3B14973  21.011   9.770  11.645 -0.1180 -0.0454  0.1165
 1276DOPC   C4B14974  20.755   9.539  11.405  0.0799 -0.1671 -0.4480
 1277DOPS   CNO14975  17.561   6.279  14.283 -0.0004 -0.0652 -0.1711
 1277DOPS   PO414976  17.841   6.106  14.111 -0.1009  0.0517 -0.3887
 1277DOPS   GL114977  17.788   6.122  13.851  0.0109  0.0971  0.0593
 1277DOPS   GL214978  17.747   5.917  13.661 -0.2985 -0.0674  0.3212
 1277DOPS   C1A14979  18.090   6.252  13.501  0.2261 -0.2078 -0.1254
 1277DOPS   D2A14980  17.973   6.437  13.101  0.0961  0.2426  0.2019
 1277DOPS   C3A14981  17.559   6.295  12.857 -0.3372 -0.1673  0.0576
 1277DOPS   C4A14982  17.513   6.063  12.477  0.2075 -0.0857  0.1106
 1277DOPS   C1B14983  17.577   6.275  13.370 -0.1493 -0.1499  0.1800
 1277DOPS   D2B14984  17.156   6.383  13.234  0.3415  0.2031  0.1266
 1277DOPS   C3B14985  17.076   6.474  12.812 -0.0974 -0.2587  0.2167
 1277DOPS   C4B14986  17.299   6.534  12.440  0.0527 -0.0873  0.3920
 1278DOPC   NC314987  17.045   3.932  14.828 -0.3935 -0.1734 -0.1383
 1278DOPC   PO414988  17.350   4.039  14.604 -0.1474 -0.1572  0.0453
 1278DOPC   GL114989  17.186   3.891  14.262 -0.0132  0.2101 -0.2882
 1278DOPC   GL214990  17.091   4.113  14.085 -0.1699 -0.2200  0.0745
 1278DOPC   C1A14991  16.796   3.690  14.144  0.2326 -0.2820 -0.1867
 1278DOPC   D2A14992  16.445   3.519  13.911 -0.1085  0.0111  0.1003
 1278DOPC   C3A14993  16.345   3.485  13.468 -0.0532 -0.0162  0.4331
 1278DOPC   C4A14994  16.054   3.557  13.086 -0.0246 -0.1345 -0.2470
 1278DOPC   C1B14995  17.262   4.164  13.654  0.1633  0.1688  0.0265
 1278DOPC   D2B14996  17.122   4.096  13.230 -0.2150  0.1905  0.1940
 1278DOPC   C3B14997  17.047   4.430  12.893  0.0658 -0.1528 -0.2741
 1278DOPC   C4B14998  17.018   4.879  12.761  0.0018 -0.1554 -0.1846
 1279DOPS   CNO14999  17.757   8.067  13.470 -0.1613 -0.0870  0.0828
 1279DOPS   PO415000  18.065   8.236  13.572 -0.0026 -0.3049  0.0012
 1279DOPS   GL115001  18.186   7.920  13.291  0.2793  0.1510  0.1559
 1279DOPS   GL215002  18.217   7.987  13.003 -0.0072 -0.0102 -0.1546
 1279DOPS   C1A15003  17.858   7.628  13.046  0.2523 -0.0061 -0.0307
 1279DOPS   D2A15004  17.965   7.656  12.563 -0.2227 -0.3381  0.1198
 1279DOPS   C3A15005  18.162   8.113  12.497  0.1556  0.0025  0.2154
 1279DOPS   C4A15006  18.095   8.484  12.200 -0.1614  0.1102  0.0619
 1279DOPS   C1B15007  17.793   8.149  12.887  0.2381 -0.2314  0.0714
 1279DOPS   D2B15008  17.516   7.995  12.605 -0.1539 -0.2523  0.1544
 1279DOPS   C3B15009  17.723   7.965  12.192 -0.0167 -0.0231  0.0840
 1279DOPS   C4B15010  17.632   7.803  11.745 -0.0047  0.1090  0.1643
 1280POSM   NC315011  24.712   1.168  13.868 -0.1462  0.0866  0.0265
 1280POSM   PO415012  24.902   1.477  14.048 -0.1094 -0.0370 -0.1460
 1280POSM   AM115013  24.884   1.550  13.726 -0.3488 -0.1969 -0.1105
 1280POSM   AM215014  25.017   1.717  13.521 -0.2250 -0.1218  0.3686
 1280POSM   T1A15015  24.893   1.340  13.247 -0.2559  0.0763  0.1217
 1280POSM   C2A15016  24.735   1.409  12.842  0.1977 -0.2870  0.0651
 1280POSM   C3A15017  24.850   1.392  12.418 -0.0462  0.1717  0.1527
 1280POSM   C1B15018  25.103   1.825  13.205 -0.2497 -0.0002  0.0616
 1280POSM   D2B15019  25.326   2.070  12.833 -0.0997  0.1374 -0.0680
 1280POSM   C3B15020  25.252   2.268  12.388 -0.1479 -0.1529  0.0911
 1280POSM   C4B15021  25.276   2.693  12.281  0.0832  0.2652  0.3982
 1281DOPS   CNO15022  16.896   5.852  14.728 -0.0554 -0.3756  0.0520
 1281DOPS   PO415023  17.076   5.681  14.426 -0.4307  0.2237  0.0642
 1281DOPS   GL115024  16.857   5.682  14.096 -0.0932  0.0098 -0.0379
 1281DOPS   GL215025  16.912   5.773  13.853 -0.1891  0.0066  0.2532
 1281DOPS   C1A15026  16.706   5.279  13.923  0.0373 -0.3515  0.4680
 1281DOPS   D2A15027  16.416   5.007  13.959  0.0945 -0.2172 -0.1587
 1281DOPS   C3A15028  16.441   4.544  13.866  0.1513 -0.1509  0.1286
 1281DOPS   C4A15029  16.253   4.426  13.448  0.0842  0.0209  0.0532
 1281DOPS   C1B15030  16.411   5.748  13.869 -0.2327 -0.0160  0.1106
 1281DOPS   D2B15031  16.008   5.672  13.609  0.0978 -0.2876 -0.1568
 1281DOPS   C3B15032  16.054   5.330  13.309 -0.4537 -0.0352  0.1126
 1281DOPS   C4B15033  16.109   5.409  12.874  0.3163 -0.3874 -0.4081
 1282DOPS   CNO15034  12.062   3.548  16.460  0.0112  0.3268  0.0232
 1282DOPS   PO415035  11.971   3.367  16.142 -0.2771 -0.1179  0.1400
 1282DOPS   GL115036  11.961   3.707  15.904 -0.1282 -0.1572 -0.2465
 1282DOPS   GL215037  12.217   3.545  15.710  0.1853  0.4780  0.0410
 1282DOPS   C1A15038  11.784   3.723  15.469 -0.2179 -0.0760  0.0479
 1282DOPS   D2A15039  11.933   3.665  15.050  0.1386  0.0586  0.2090
 1282DOPS   C3A15040  12.070   4.045  14.910 -0.0212  0.0619 -0.0455
 1282DOPS   C4A15041  12.041   4.230  14.497 -0.1885  0.5155 -0.5228
 1282DOPS   C1B15042  12.146   3.316  15.267 -0.0784  0.1171  0.3235
 1282DOPS   D2B15043  11.969   3.050  14.951  0.1647 -0.0364 -0.1029
 1282DOPS   C3B15044  11.506   3.008  14.879 -0.0781 -0.1171 -0.2722
 1282DOPS   C4B15045  11.071   3.136  14.698 -0.0886 -0.0258 -0.1500
 1283DOPE   NH315046  14.658   4.171  15.165  0.2461  0.0435  0.1339
 1283DOPE   PO415047  14.919   4.400  15.162 -0.0067 -0.0369  0.3716
 1283DOPE   GL115048  14.774   4.370  14.756 -0.4182 -0.3369  0.1106
 1283DOPE   GL215049  14.647   4.601  14.646  0.2467 -0.0872  0.0705
 1283DOPE   C1A15050  14.884   4.394  14.297  0.3146  0.0524  0.1205
 1283DOPE   D2A15051  14.667   4.478  13.854 -0.0853  0.1549 -0.0133
 1283DOPE   C3A15052  14.398   4.433  13.545 -0.2211 -0.3844  0.0215
 1283DOPE   C4A15053  13.983   4.311  13.330 -0.3409 -0.3831  0.0768
 1283DOPE   C1B15054  14.423   4.595  14.299 -0.0834  0.0939  0.0677
 1283DOPE   D2B15055  14.126   4.589  13.943  0.2075  0.1798 -0.3155
 1283DOPE   C3B15056  13.764   4.415  13.825 -0.1011 -0.1747  0.0148
 1283DOPE   C4B15057  13.370   4.507  13.548 -0.0364 -0.3357 -0.1008
 1284DOPE   NH315058  20.393   3.337  13.956 -0.2986  0.3766 -0.0616
 1284DOPE   PO415059  20.180   3.074  13.906  0.2586 -0.1733 -0.0624
 1284DOPE   GL115060  20.209   3.226  13.460 -0.2317 -0.0463 -0.0738
 1284DOPE   GL215061  20.400   3.479  13.472 -0.0062  0.3382 -0.2008
 1284DOPE   C1A15062  20.140   3.345  13.018  0.1608 -0.0585 -0.1482
 1284DOPE   D2A15063  20.001   3.291  12.555 -0.2122 -0.0797 -0.0518
 1284DOPE   C3A15064  19.584   3.322  12.633  0.1531  0.4046 -0.1782
 1284DOPE   C4A15065  19.188   3.474  12.424 -0.3210  0.2711 -0.1143
 1284DOPE   C1B15066  20.353   3.841  13.227  0.0685  0.0021 -0.1181
 1284DOPE   D2B15067  20.373   4.078  12.811  0.2500 -0.0185 -0.1010
 1284DOPE   C3B15068  20.340   3.930  12.369  0.0732 -0.2153  0.0667
 1284DOPE   C4B15069  20.534   3.832  12.001 -0.1492  0.1618  0.3388
 1285DOPE   NH315070  17.598  10.056  12.942  0.0621  0.0834 -0.1773
 1285DOPE   PO415071  17.670  10.190  12.675 -0.0104  0.0756  0.1083
 1285DOPE   GL115072  17.776  10.263  12.244 -0.3094  0.3215 -0.1536
 1285DOPE   GL215073  17.670  10.053  12.138 -0.1079  0.1383 -0.2825
 1285DOPE   C1A15074  17.725  10.586  11.920 -0.1433  0.1588 -0.3150
 1285DOPE   D2A15075  17.455  10.470  11.551  0.0929  0.0731 -0.0185
 1285DOPE   C3A15076  17.336  10.834  11.412 -0.1598  0.0754  0.1619
 1285DOPE   C4A15077  17.427  11.292  11.357 -0.0254  0.0002  0.2064
 1285DOPE   C1B15078  17.764   9.846  11.757  0.2225  0.0548 -0.0662
 1285DOPE   D2B15079  17.754  10.106  11.382  0.1054 -0.2145  0.1863
 1285DOPE   C3B15080  17.575  10.023  10.971 -0.1770 -0.1787 -0.0380
 1285DOPE   C4B15081  17.360   9.983  10.578  0.3140  0.3310  0.1035
 1286DOPC   NC315082  15.267   6.305  14.664 -0.1632  0.4330 -0.2551
 1286DOPC   PO415083  15.204   5.899  14.605  0.1633 -0.1489 -0.0629
 1286DOPC   GL115084  15.070   5.740  14.276 -0.0300  0.2015  0.1963
 1286DOPC   GL215085  14.989   5.908  14.005 -0.0572 -0.0701 -0.3942
 1286DOPC   C1A15086  15.261   5.390  13.975  0.4873  0.3658  0.1012
 1286DOPC   D2A15087  15.497   4.979  13.929  0.1705  0.1785 -0.0395
 1286DOPC   C3A15088  15.633   5.009  13.485 -0.0180 -0.2868  0.2040
 1286DOPC   C4A15089  15.684   5.088  13.055  0.2144 -0.0916 -0.0538
 1286DOPC   C1B15090  14.855   5.646  13.714  0.5999 -0.2279 -0.1095
 1286DOPC   D2B15091  14.740   5.304  13.399  0.0954  0.1127  0.0106
 1286DOPC   C3B15092  14.398   5.309  13.140 -0.2933  0.1203 -0.0357
 1286DOPC   C4B15093  14.201   5.150  12.824  0.1078 -0.0939  0.0783
 1287DOPC   NC315094  22.613   6.037  13.742 -0.0270  0.1616 -0.0233
 1287DOPC   PO415095  22.973   6.118  13.909  0.3624  0.0276 -0.0338
 1287DOPC   GL115096  23.096   6.095  13.429  0.0236  0.1281 -0.3470
 1287DOPC   GL215097  23.085   6.400  13.354 -0.4085 -0.0028  0.0213
 1287DOPC   C1A15098  23.180   5.735  13.114 -0.1022  0.0379 -0.3039
 1287DOPC   D2A15099  23.035   5.480  12.696  0.3578 -0.2033 -0.1152
 1287DOPC   C3A15100  23.098   5.186  12.421 -0.1081  0.0556  0.0684
 1287DOPC   C4A15101  22.984   5.109  12.036 -0.0628 -0.1104 -0.2492
 1287DOPC   C1B15102  22.952   6.099  12.987 -0.1205 -0.1324 -0.2264
 1287DOPC   D2B15103  23.032   5.972  12.518  0.2093  0.2554 -0.0199
 1287DOPC   C3B15104  23.281   5.708  12.243  0.3239 -0.1414  0.3953
 1287DOPC   C4B15105  23.331   5.727  11.799  0.1687  0.0732 -0.0348
 1288POSM   NC315106  16.775   4.847  14.867  0.0764  0.1088  0.0285
 1288POSM   PO415107  16.503   4.965  14.669  0.3531  0.1645  0.1605
 1288POSM   AM115108  16.344   4.815  14.421 -0.1635 -0.0249 -0.1528
 1288POSM   AM215109  16.276   4.540  14.355  0.5069 -0.3141  0.0230
 1288POSM   T1A15110  15.979   4.787  14.066  0.0348  0.2905  0.0535
 1288POSM   C2A15111  15.795   4.503  13.757 -0.2425 -0.2384  0.0136
 1288POSM   C3A15112  15.791   4.474  13.295 -0.0010  0.4328 -0.0725
 1288POSM   C1B15113  16.045   4.340  14.211 -0.0776  0.2099  0.2293
 1288POSM   D2B15114  15.755   4.077  13.959  0.0662  0.1519  0.0910
 1288POSM   C3B15115  15.444   4.185  13.604  0.2403  0.0516  0.1962
 1288POSM   C4B15116  15.315   4.077  13.142 -0.1706 -0.1440  0.0898
 1289POSM   NC315117  11.762   9.243  15.250  0.0160 -0.1060 -0.1532
 1289POSM   PO415118  11.821   9.630  15.091 -0.0121  0.0037 -0.0656
 1289POSM   AM115119  11.745   9.457  14.826 -0.0421  0.0952  0.5947
 1289POSM   AM215120  11.644   9.183  14.770  0.4819 -0.4553  0.0036
 1289POSM   T1A15121  11.675   9.539  14.335  0.0031 -0.2273  0.1079
 1289POSM   C2A15122  11.798   9.505  13.945 -0.0096  0.0800 -0.0552
 1289POSM   C3A15123  11.817   9.344  13.506 -0.0571  0.0802  0.0181
 1289POSM   C1B15124  11.590   9.069  14.492 -0.0951 -0.2257 -0.1699
 1289POSM   D2B15125  11.501   9.169  14.028  0.2626 -0.1021  0.1595
 1289POSM   C3B15126  11.262   8.735  13.926  0.3502 -0.1263  0.1309
 1289POSM   C4B15127  11.190   8.492  13.544 -0.4752 -0.0482 -0.0654
 1290DOPE   NH315128  14.401   3.550  15.750  0.2957 -0.0219 -0.3874
 1290DOPE   PO415129  14.717   3.490  15.696 -0.1305  0.1496  0.3909
 1290DOPE   GL115130  14.693   3.445  15.316  0.7479 -0.1113 -0.1326
 1290DOPE   GL215131  14.538   3.668  15.194 -0.0445  0.0668  0.1873
 1290DOPE   C1A15132  14.936   3.163  15.024  0.1071 -0.1492  0.1425
 1290DOPE   D2A15133  14.860   3.016  14.596 -0.0951 -0.1808  0.1182
 1290DOPE   C3A15134  14.758   2.654  14.360  0.2365  0.0215 -0.1016
 1290DOPE   C4A15135  14.399   2.555  14.123 -0.1909 -0.0713  0.1143
 1290DOPE   C1B15136  14.166   3.459  15.281  0.0581  0.1448 -0.1288
 1290DOPE   D2B15137  13.798   3.524  15.095  0.0011 -0.1222 -0.1296
 1290DOPE   C3B15138  13.371   3.487  14.933 -0.2338  0.0692  0.0661
 1290DOPE   C4B15139  12.952   3.202  14.881  0.2274  0.0663 -0.0802
 1291DOPE   NH315140  14.016   4.781  15.432  0.0001  0.0347 -0.0215
 1291DOPE   PO415141  13.719   4.795  15.516  0.0030  0.0330 -0.1726
 1291DOPE   GL115142  13.603   4.749  15.125  0.3512  0.0872 -0.1579
 1291DOPE   GL215143  13.320   4.694  15.011 -0.0322  0.2481  0.1788
 1291DOPE   C1A15144  13.715   4.495  14.738 -0.1364 -0.1205 -0.1965
 1291DOPE   D2A15145  13.560   4.157  14.450 -0.3209  0.1562  0.3220
 1291DOPE   C3A15146  13.742   3.945  14.047  0.0204  0.1984 -0.1161
 1291DOPE   C4A15147  14.021   3.865  13.642 -0.1358  0.0252  0.1044
 1291DOPE   C1B15148  13.254   4.722  14.576 -0.0514  0.0718  0.1361
 1291DOPE   D2B15149  13.397   4.815  14.114  0.0416 -0.2688 -0.0748
 1291DOPE   C3B15150  13.054   4.837  13.803  0.4522 -0.2495 -0.0043
 1291DOPE   C4B15151  12.748   5.100  13.546  0.0699 -0.0336  0.2261
 1292DOPE   NH315152  15.883  10.026  12.866  0.0541  0.0945 -0.0031
 1292DOPE   PO415153  16.060   9.747  12.771 -0.1257  0.1566  0.2725
 1292DOPE   GL115154  15.851   9.516  12.483 -0.2146 -0.1615 -0.2220
 1292DOPE   GL215155  15.860   9.339  12.590 -0.0305  0.0443 -0.1332
 1292DOPE   C1A15156  15.750   9.587  12.023  0.2165 -0.2839  0.3667
 1292DOPE   D2A15157  15.449   9.499  11.682 -0.2362  0.0185  0.0375
 1292DOPE   C3A15158  15.274   9.035  11.528 -0.3011  0.0663 -0.3117
 1292DOPE   C4A15159  15.059   8.713  11.285 -0.0831  0.2257  0.1054
 1292DOPE   C1B15160  15.995   9.177  12.171  0.1651 -0.1861  0.0532
 1292DOPE   D2B15161  16.294   9.179  11.821 -0.2862  0.3750  0.3461
 1292DOPE   C3B15162  16.468   9.433  11.458  0.0490 -0.2181  0.2823
 1292DOPE   C4B15163  16.596   9.740  11.180 -0.3832 -0.1141 -0.0006
 1293DOPC   NC315164  12.435   0.648  16.419 -0.1584 -0.2928 -0.3340
 1293DOPC   PO415165  12.769   0.866  16.379 -0.1888  0.0910  0.1406
 1293DOPC   GL115166  12.626   1.088  15.993 -0.0075  0.1604  0.4279
 1293DOPC   GL215167  12.897   1.146  15.907  0.2635  0.0485  0.3210
 1293DOPC   C1A15168  12.299   1.417  15.893 -0.1897 -0.1262  0.0910
 1293DOPC   D2A15169  12.076   1.785  15.820  0.0894 -0.2635  0.0532
 1293DOPC   C3A15170  11.808   1.753  15.448  0.1312  0.1222 -0.1890
 1293DOPC   C4A15171  11.426   1.766  15.169  0.0722  0.0298 -0.1121
 1293DOPC   C1B15172  12.787   1.528  15.669  0.2102 -0.0149  0.0119
 1293DOPC   D2B15173  13.026   1.655  15.264  0.1605 -0.3403 -0.3256
 1293DOPC   C3B15174  12.933   1.661  14.860 -0.2388 -0.0209  0.0350
 1293DOPC   C4B15175  12.631   1.871  14.577  0.0153  0.0750 -0.0236
 1294DOPC   NC315176  13.576   6.790  14.983 -0.0988  0.0269 -0.3770
 1294DOPC   PO415177  13.356   6.525  15.106  0.2592  0.1790 -0.0890
 1294DOPC   GL115178  13.096   6.700  14.894 -0.4512  0.0256  0.0062
 1294DOPC   GL215179  13.107   6.933  15.118  0.2511 -0.0766  0.1480
 1294DOPC   C1A15180  12.854   6.627  14.516  0.0156 -0.1096 -0.5713
 1294DOPC   D2A15181  12.766   6.854  14.105 -0.0121 -0.1559  0.0970
 1294DOPC   C3A15182  12.343   6.828  13.912 -0.1521  0.0521  0.0015
 1294DOPC   C4A15183  11.929   6.682  13.706 -0.0723  0.0177 -0.0075
 1294DOPC   C1B15184  12.721   6.990  14.941  0.2673 -0.2811 -0.0125
 1294DOPC   D2B15185  12.417   6.671  14.894 -0.1792 -0.3295 -0.1973
 1294DOPC   C3B15186  12.220   6.616  14.471 -0.2964  0.1121 -0.4249
 1294DOPC   C4B15187  11.914   6.856  14.142  0.1792 -0.0237 -0.1179
 1295POSM   NC315188  17.695   2.135  14.615 -0.0418  0.0453 -0.3349
 1295POSM   PO415189  17.444   2.444  14.672 -0.4260 -0.0869 -0.2213
 1295POSM   AM115190  17.363   2.679  14.485  0.1837  0.0072  0.1629
 1295POSM   AM215191  17.333   2.663  14.203 -0.1687 -0.0687 -0.1532
 1295POSM   T1A15192  16.940   2.907  14.304  0.0428  0.2033 -0.1864
 1295POSM   C2A15193  16.516   3.087  14.242 -0.0495  0.1108  0.2254
 1295POSM   C3A15194  16.156   3.129  13.985 -0.0529  0.1036  0.0451
 1295POSM   C1B15195  17.196   2.548  13.910 -0.2113 -0.1069  0.0801
 1295POSM   D2B15196  17.062   2.459  13.458  0.4197 -0.1916  0.1302
 1295POSM   C3B15197  16.917   2.824  13.176 -0.1083  0.0916 -0.2636
 1295POSM   C4B15198  16.574   3.033  13.061  0.0073 -0.1074  0.0046
 1296DOPC   NC315199  13.492  10.755  13.223 -0.2225 -0.0656  0.0320
 1296DOPC   PO415200  13.582  10.573  13.550 -0.0733 -0.1637 -0.1272
 1296DOPC   GL115201  13.449  10.300  13.332 -0.0275  0.2904 -0.2588
 1296DOPC   GL215202  13.538  10.249  13.061 -0.1001 -0.1507 -0.0743
 1296DOPC   C1A15203  13.333   9.847  13.164 -0.1938  0.1512 -0.0716
 1296DOPC   D2A15204  13.327   9.495  12.940 -0.0473  0.0438  0.0114
 1296DOPC   C3A15205  13.307   9.630  12.500 -0.0979  0.0044  0.1188
 1296DOPC   C4A15206  13.355   9.775  12.090 -0.3190  0.1231 -0.0096
 1296DOPC   C1B15207  13.082  10.330  13.078  0.0070  0.1017 -0.2172
 1296DOPC   D2B15208  12.625  10.450  13.095 -0.1006  0.0793 -0.1129
 1296DOPC   C3B15209  12.636  10.887  13.358  0.1981 -0.1507 -0.0162
 1296DOPC   C4B15210  12.482  11.271  13.549 -0.3233 -0.1146  0.0221
 1297DOPE   NH315211  19.683   2.924  13.871 -0.0364 -0.2111  0.0109
 1297DOPE   PO415212  19.615   2.616  13.778  0.0161  0.2641  0.0471
 1297DOPE   GL115213  19.514   2.740  13.451 -0.1285 -0.1295  0.1317
 1297DOPE   GL215214  19.576   3.070  13.315  0.0151 -0.0150  0.2022
 1297DOPE   C1A15215  19.396   2.473  13.042  0.2259 -0.4797 -0.0970
 1297DOPE   D2A15216  19.237   2.215  12.687  0.1683  0.4227  0.0325
 1297DOPE   C3A15217  18.884   2.330  12.443  0.0029  0.3054  0.1036
 1297DOPE   C4A15218  18.910   2.683  12.160 -0.2002  0.0447  0.2786
 1297DOPE   C1B15219  19.790   2.998  12.956  0.0983 -0.0064  0.0369
 1297DOPE   D2B15220  19.772   2.769  12.578 -0.2748  0.0756  0.0877
 1297DOPE   C3B15221  19.667   3.049  12.226 -0.0789 -0.1068 -0.3240
 1297DOPE   C4B15222  19.554   3.377  12.010 -0.2684  0.3799 -0.1658
 1298DOPC   NC315223  13.848   7.176  14.725  0.1943  0.3073 -0.1045
 1298DOPC   PO415224  13.577   7.269  14.996  0.1109  0.3161 -0.2253
 1298DOPC   GL115225  13.405   7.111  14.644 -0.2553  0.0002  0.1162
 1298DOPC   GL215226  13.358   7.259  14.420 -0.2151 -0.1807  0.1291
 1298DOPC   C1A15227  12.911   7.133  14.481 -0.0764 -0.2341 -0.1312
 1298DOPC   D2A15228  12.462   7.116  14.420  0.2178  0.1602 -0.4012
 1298DOPC   C3A15229  12.236   7.277  13.982  0.1906  0.0632  0.0006
 1298DOPC   C4A15230  12.107   7.522  13.589  0.4498 -0.1819  0.0703
 1298DOPC   C1B15231  13.717   7.045  14.238 -0.0179  0.1425 -0.3107
 1298DOPC   D2B15232  13.861   6.657  14.011  0.1537 -0.3448  0.0190
 1298DOPC   C3B15233  14.142   6.345  13.882  0.0850 -0.1336 -0.0114
 1298DOPC   C4B15234  14.522   6.121  13.740  0.1328 -0.1089 -0.2137
 1299DOPE   NH315235  10.269   8.537  16.331  0.0167  0.0463  0.2009
 1299DOPE   PO415236  10.262   8.750  16.095 -0.1237 -0.3865 -0.1397
 1299DOPE   GL115237   9.972   8.679  15.774 -0.1350  0.2956 -0.1540
 1299DOPE   GL215238  10.151   8.673  15.560  0.0911 -0.2023 -0.0959
 1299DOPE   C1A15239   9.782   8.455  15.412 -0.0919 -0.2468  0.1228
 1299DOPE   D2A15240   9.380   8.291  15.331 -0.1031 -0.1303  0.0389
 1299DOPE   C3A15241   9.162   8.635  15.525 -0.2508  0.0519  0.1290
 1299DOPE   C4A15242   8.883   8.890  15.755 -0.1731 -0.1549  0.3008
 1299DOPE   C1B15243  10.032   8.705  15.064  0.0291 -0.2038 -0.2475
 1299DOPE   D2B15244  10.130   8.915  14.621 -0.0039  0.1549 -0.2930
 1299DOPE   C3B15245   9.897   8.835  14.232  0.2423  0.0121 -0.0796
 1299DOPE   C4B15246   9.491   8.766  14.003 -0.1028  0.2582 -0.0778
 1300DOPE   NH315247  22.482   1.692  13.811  0.0068 -0.2690  0.3194
 1300DOPE   PO415248  22.278   1.843  13.588  0.0408 -0.0668 -0.3014
 1300DOPE   GL115249  22.368   1.849  13.329  0.0918 -0.0713  0.5374
 1300DOPE   GL215250  22.628   1.940  13.259 -0.2836  0.4052  0.0981
 1300DOPE   C1A15251  22.190   1.770  12.929 -0.0126  0.0298  0.2316
 1300DOPE   D2A15252  22.007   1.528  12.572  0.4204  0.0480 -0.0751
 1300DOPE   C3A15253  21.860   1.588  12.179  0.2775  0.2187  0.1968
 1300DOPE   C4A15254  21.845   1.330  11.752  0.0996  0.3332 -0.1974
 1300DOPE   C1B15255  22.783   1.949  12.803 -0.0443 -0.0211  0.1866
 1300DOPE   D2B15256  22.943   1.666  12.513  0.1440  0.2071  0.0427
 1300DOPE   C3B15257  22.826   1.797  12.079 -0.0148  0.2890 -0.1166
 1300DOPE   C4B15258  22.747   1.656  11.673  0.2554 -0.2710  0.0668
 1301DOPC   NC315259  14.200   3.575  16.281 -0.0691 -0.0337  0.0876
 1301DOPC   PO415260  13.961   3.710  16.006  0.0998  0.3293 -0.0428
 1301DOPC   GL115261  13.957   3.782  15.562 -0.4071  0.1399  0.4499
 1301DOPC   GL215262  14.133   3.952  15.582 -0.1768 -0.0714  0.0545
 1301DOPC   C1A15263  13.661   3.971  15.259 -0.0095  0.0202  0.1544
 1301DOPC   D2A15264  13.431   4.152  14.923  0.2346 -0.1079  0.0956
 1301DOPC   C3A15265  13.225   3.826  14.652  0.0957  0.0164 -0.0439
 1301DOPC   C4A15266  13.223   3.625  14.213  0.0217  0.1302  0.2595
 1301DOPC   C1B15267  14.161   3.944  15.094  0.1793  0.1830  0.1029
 1301DOPC   D2B15268  13.808   3.888  14.795  0.0467 -0.1744  0.1834
 1301DOPC   C3B15269  13.654   3.618  14.443 -0.1161 -0.1449  0.0772
 1301DOPC   C4B15270  13.627   3.322  14.117 -0.0246  0.0011 -0.2693
 1302DOPC   NC315271  15.225   4.690  14.621  0.2291  0.1417 -0.0311
 1302DOPC   PO415272  15.071   4.888  14.941  0.0234 -0.1014 -0.0896
 1302DOPC   GL115273  14.855   5.009  14.691  0.1501  0.1509  0.2135
 1302DOPC   GL215274  14.615   5.106  14.795  0.0363 -0.3497 -0.2494
 1302DOPC   C1A15275  14.812   4.930  14.212 -0.0303  0.0216 -0.1185
 1302DOPC   D2A15276  14.875   5.110  13.862 -0.2219  0.2799 -0.0611
 1302DOPC   C3A15277  15.169   5.175  13.500 -0.3537  0.2452 -0.0501
 1302DOPC   C4A15278  15.160   5.186  13.052 -0.0904 -0.0740 -0.2076
 1302DOPC   C1B15279  14.356   5.079  14.442  0.3789  0.0788 -0.1792
 1302DOPC   D2B15280  14.317   5.179  14.009 -0.3099  0.2050 -0.0877
 1302DOPC   C3B15281  14.440   5.034  13.665 -0.4224  0.1885  0.0252
 1302DOPC   C4B15282  14.361   4.820  13.249 -0.1597  0.3330  0.1476
 1303DOPC   NC315283  22.726   8.565  13.056  0.0544  0.1212  0.1276
 1303DOPC   PO415284  23.017   8.820  12.988  0.0895 -0.2336  0.2518
 1303DOPC   GL115285  22.758   8.914  12.657  0.0910 -0.0054  0.0987
 1303DOPC   GL215286  22.945   8.880  12.360  0.2616  0.4107 -0.1235
 1303DOPC   C1A15287  22.599   9.202  12.270  0.0845 -0.1906 -0.1891
 1303DOPC   D2A15288  22.768   9.305  11.861  0.0864  0.0541 -0.1804
 1303DOPC   C3A15289  23.041   9.113  11.558 -0.0659  0.0169 -0.1271
 1303DOPC   C4A15290  23.283   9.376  11.302 -0.1640 -0.2677  0.3921
 1303DOPC   C1B15291  22.963   8.394  12.235  0.1278 -0.2517  0.1587
 1303DOPC   D2B15292  23.158   8.195  11.870  0.0795  0.0593 -0.1074
 1303DOPC   C3B15293  23.427   8.479  11.688 -0.1591  0.0238  0.2340
 1303DOPC   C4B15294  23.538   8.929  11.577  0.0024  0.0257 -0.3964
 1304DOPC   NC315295  12.216   2.844  16.964 -0.1432 -0.1734  0.0068
 1304DOPC   PO415296  11.884   2.663  16.861 -0.0249 -0.2653 -0.1485
 1304DOPC   GL115297  11.786   2.677  16.464  0.0126  0.1879 -0.1007
 1304DOPC   GL215298  12.039   2.509  16.361  0.0970  0.0536 -0.0068
 1304DOPC   C1A15299  11.870   2.747  15.979 -0.2911 -0.1401  0.0451
 1304DOPC   D2A15300  11.990   3.064  15.725  0.3976 -0.0322 -0.1393
 1304DOPC   C3A15301  12.415   3.077  15.583  0.2104 -0.1804  0.0656
 1304DOPC   C4A15302  12.729   2.734  15.511  0.4469 -0.0876  0.0971
 1304DOPC   C1B15303  11.931   2.118  16.151  0.2395  0.2405 -0.0311
 1304DOPC   D2B15304  11.606   2.015  15.844 -0.3203 -0.2364 -0.2312
 1304DOPC   C3B15305  11.473   2.185  15.454  0.0170  0.1022  0.0639
 1304DOPC   C4B15306  11.239   2.336  15.062 -0.4309  0.0055 -0.2760
 1305DOPC   NC315307  17.529   3.144  14.341  0.3041 -0.2701 -0.0425
 1305DOPC   PO415308  17.924   3.044  14.426 -0.0979 -0.2952 -0.2127
 1305DOPC   GL115309  17.837   2.913  14.053  0.1626 -0.3216 -0.3008
 1305DOPC   GL215310  18.130   2.907  13.883  0.2385  0.2840  0.2801
 1305DOPC   C1A15311  17.438   3.036  13.820  0.3301 -0.2172 -0.2127
 1305DOPC   D2A15312  17.318   2.973  13.387  0.1647 -0.0370  0.3697
 1305DOPC   C3A15313  17.136   3.211  13.022 -0.0498  0.1584 -0.1152
 1305DOPC   C4A15314  16.712   3.503  12.985  0.0026 -0.0832  0.0619
 1305DOPC   C1B15315  17.857   3.091  13.548  0.1110 -0.1002  0.0103
 1305DOPC   D2B15316  17.695   3.306  13.149  0.0781 -0.3394 -0.1383
 1305DOPC   C3B15317  17.473   3.440  12.783 -0.1121  0.0333  0.0080
 1305DOPC   C4B15318  17.577   3.813  12.464 -0.0544 -0.0455 -0.0420
 1306DOPE   NH315319  20.867   6.812  13.235 -0.2409  0.0133 -0.2962
 1306DOPE   PO415320  20.578   6.955  13.290  0.3652 -0.1265 -0.0855
 1306DOPE   GL115321  20.346   6.800  12.922 -0.0102 -0.1774 -0.0222
 1306DOPE   GL215322  20.405   7.021  12.713  0.0813 -0.1788  0.1073
 1306DOPE   C1A15323  20.183   6.659  12.521  0.1699  0.0463  0.1981
 1306DOPE   D2A15324  19.889   6.621  12.109  0.3015 -0.1704  0.1245
 1306DOPE   C3A15325  19.630   6.806  11.722 -0.0520  0.0869 -0.3663
 1306DOPE   C4A15326  19.379   6.816  11.423  0.1172 -0.0372 -0.2139
 1306DOPE   C1B15327  20.697   7.060  12.350  0.2762 -0.1309  0.3030
 1306DOPE   D2B15328  20.975   6.912  11.994  0.0531  0.1646 -0.1838
 1306DOPE   C3B15329  21.374   7.104  12.005 -0.2040 -0.1117  0.0216
 1306DOPE   C4B15330  21.790   7.228  11.891 -0.1693 -0.0798 -0.0927
 1307DOPE   NH315331  19.780   7.778  13.469 -0.3552  0.2511 -0.0455
 1307DOPE   PO415332  20.098   7.741  13.348 -0.0692  0.0067 -0.2304
 1307DOPE   GL115333  20.000   7.721  12.993  0.2503  0.2700 -0.1035
 1307DOPE   GL215334  20.178   7.815  12.807 -0.2369  0.3311 -0.5013
 1307DOPE   C1A15335  19.795   7.522  12.637 -0.1029  0.0974  0.0928
 1307DOPE   D2A15336  19.647   7.502  12.239 -0.1088  0.1391 -0.0858
 1307DOPE   C3A15337  19.864   7.372  11.796  0.4438  0.1665  0.1436
 1307DOPE   C4A15338  19.980   7.551  11.405  0.3161 -0.1294 -0.0135
 1307DOPE   C1B15339  20.190   7.754  12.347  0.0057 -0.1096 -0.0439
 1307DOPE   D2B15340  20.162   7.807  11.883  0.0015  0.1550 -0.0706
 1307DOPE   C3B15341  20.405   7.487  11.659  0.1455  0.0355  0.1806
 1307DOPE   C4B15342  20.751   7.232  11.527  0.1536  0.2030  0.0894
 1308POSM   NC315343  16.523   6.796  14.187 -0.0358 -0.0888 -0.2799
 1308POSM   PO415344  16.240   7.001  14.379  0.1077  0.1044 -0.2714
 1308POSM   AM115345  16.120   7.011  14.083  0.1620 -0.1400 -0.3747
 1308POSM   AM215346  16.098   7.163  13.824  0.1447  0.1672 -0.1949
 1308POSM   T1A15347  16.014   6.634  13.733 -0.1094  0.3123 -0.0852
 1308POSM   C2A15348  16.128   6.514  13.333 -0.2598 -0.0356  0.1641
 1308POSM   C3A15349  16.303   6.467  12.903  0.1312  0.2447  0.0371
 1308POSM   C1B15350  16.182   7.231  13.567  0.3323  0.0317  0.0820
 1308POSM   D2B15351  16.164   7.396  13.177 -0.2109  0.1995 -0.1917
 1308POSM   C3B15352  16.355   7.225  12.764  0.2257 -0.0074 -0.1929
 1308POSM   C4B15353  16.371   6.882  12.508  0.1501 -0.3114  0.1394
 1309DOPC   NC315354  20.376   2.179  13.848 -0.0614 -0.1236 -0.1556
 1309DOPC   PO415355  20.245   1.869  13.676  0.0310 -0.0789  0.1914
 1309DOPC   GL115356  20.076   1.844  13.369  0.4192  0.1682 -0.3193
 1309DOPC   GL215357  20.190   1.782  13.114 -0.2993  0.0256  0.2377
 1309DOPC   C1A15358  19.833   1.505  13.186  0.0732  0.1185  0.4963
 1309DOPC   D2A15359  19.991   1.276  12.870 -0.1279 -0.0142 -0.1004
 1309DOPC   C3A15360  20.042   1.465  12.393 -0.2991 -0.2011 -0.3605
 1309DOPC   C4A15361  19.715   1.486  12.048 -0.0201  0.2677  0.0089
 1309DOPC   C1B15362  20.392   1.769  12.663  0.0325  0.1141  0.2299
 1309DOPC   D2B15363  20.534   1.880  12.223  0.0214  0.1036  0.1479
 1309DOPC   C3B15364  20.349   1.550  11.988 -0.2007  0.0246  0.0323
 1309DOPC   C4B15365  20.134   1.489  11.580 -0.0495  0.2603  0.1648
 1310POSM   NC315366  15.270   0.275  15.533  0.0116 -0.0598 -0.0292
 1310POSM   PO415367  14.965   0.539  15.548 -0.1335 -0.1850  0.0991
 1310POSM   AM115368  14.926   0.528  15.207  0.1576 -0.3003 -0.2019
 1310POSM   AM215369  14.800   0.323  15.006  0.0204 -0.0544 -0.1198
 1310POSM   T1A15370  15.133   0.705  14.782  0.0998  0.2800  0.3073
 1310POSM   C2A15371  15.398   0.586  14.412 -0.0823  0.0941 -0.2812
 1310POSM   C3A15372  15.744   0.723  14.239  0.0307  0.3256  0.3067
 1310POSM   C1B15373  14.983   0.229  14.729 -0.1062 -0.1116 -0.1802
 1310POSM   D2B15374  15.387   0.128  14.531  0.1583  0.0809  0.3230
 1310POSM   C3B15375  15.575   0.278  14.087  0.0924 -0.1629  0.3405
 1310POSM   C4B15376  15.727   0.210  13.647  0.1058  0.0825  0.0410
 1311POSM   NC315377  10.923  12.118  14.360  0.1923  0.0324 -0.1443
 1311POSM   PO415378  10.797  12.134  14.007  0.0902  0.1422 -0.0189
 1311POSM   AM115379  10.837  12.173  13.653  0.0379 -0.0890 -0.0561
 1311POSM   AM215380  10.937  12.409  13.478  0.0801 -0.0313 -0.1514
 1311POSM   T1A15381  10.632  11.788  13.373  0.2003  0.3589 -0.2683
 1311POSM   C2A15382  10.331  11.576  13.062 -0.0297  0.1025  0.1787
 1311POSM   C3A15383  10.195  11.170  12.878  0.2193  0.2077 -0.0206
 1311POSM   C1B15384  10.938  12.222  13.168  0.1320 -0.1744  0.3457
 1311POSM   D2B15385  10.968  11.920  12.915 -0.0935 -0.0909  0.0428
 1311POSM   C3B15386  10.731  11.662  12.695 -0.0256  0.0614  0.0629
 1311POSM   C4B15387  10.937  11.305  12.556  0.0163 -0.0879  0.1354
 1312DOPS   CNO15388  15.552   5.808  14.966 -0.1270 -0.3170  0.2626
 1312DOPS   PO415389  15.843   5.561  15.016 -0.2758 -0.0385  0.1334
 1312DOPS   GL115390  16.049   5.723  14.697 -0.0324  0.2306  0.1075
 1312DOPS   GL215391  16.133   5.534  14.566 -0.1733 -0.4268  0.1286
 1312DOPS   C1A15392  16.048   5.867  14.204  0.1705 -0.1933 -0.2945
 1312DOPS   D2A15393  15.965   6.131  13.782 -0.0437  0.0838  0.2042
 1312DOPS   C3A15394  15.801   6.119  13.392 -0.4682 -0.0516 -0.0130
 1312DOPS   C4A15395  15.482   6.056  13.092 -0.0157  0.0195  0.0549
 1312DOPS   C1B15396  16.200   5.408  14.141 -0.1855  0.1436 -0.5268
 1312DOPS   D2B15397  15.952   5.203  13.778  0.0949 -0.2070 -0.1648
 1312DOPS   C3B15398  16.154   4.917  13.548  0.0912 -0.3870 -0.0081
 1312DOPS   C4B15399  16.596   4.861  13.507 -0.2446  0.1047 -0.4040
 1313DOPC   NC315400  14.943   8.420  13.948  0.3280  0.3662 -0.0619
 1313DOPC   PO415401  14.680   8.636  14.159 -0.0598 -0.1085 -0.2647
 1313DOPC   GL115402  14.603   8.767  13.815  0.1410 -0.0532 -0.2559
 1313DOPC   GL215403  14.784   8.893  13.710  0.2578  0.1403 -0.1263
 1313DOPC   C1A15404  14.252   8.913  13.531 -0.4481 -0.0038  0.2745
 1313DOPC   D2A15405  13.942   8.820  13.237  0.0928 -0.0904  0.1419
 1313DOPC   C3A15406  13.618   8.500  13.344  0.5267  0.0284  0.1028
 1313DOPC   C4A15407  13.704   8.002  13.344 -0.0707  0.0579 -0.0191
 1313DOPC   C1B15408  14.638   8.502  13.520  0.0178  0.1040  0.2844
 1313DOPC   D2B15409  14.152   8.404  13.389  0.1312  0.0760 -0.0092
 1313DOPC   C3B15410  13.948   8.492  13.776 -0.0277 -0.0175  0.2342
 1313DOPC   C4B15411  13.521   8.501  13.912 -0.0386  0.1122  0.2294
 1314DOPE   NH315412  14.543   7.437  14.223  0.0775  0.1252 -0.2641
 1314DOPE   PO415413  14.488   7.695  14.381  0.1127 -0.0920  0.2282
 1314DOPE   GL115414  14.475   7.894  13.984  0.0102  0.4629  0.0162
 1314DOPE   GL215415  14.731   7.843  13.871 -0.0424  0.1470 -0.0971
 1314DOPE   C1A15416  14.433   7.532  13.639 -0.2407  0.0177 -0.1332
 1314DOPE   D2A15417  14.257   7.202  13.323  0.1639 -0.0550  0.1068
 1314DOPE   C3A15418  14.301   7.144  12.855  0.2178  0.2201  0.0058
 1314DOPE   C4A15419  14.443   7.143  12.403 -0.0502  0.0791  0.1038
 1314DOPE   C1B15420  14.577   8.011  13.532  0.0023  0.1359  0.1790
 1314DOPE   D2B15421  14.226   7.832  13.285 -0.0630 -0.1260  0.0923
 1314DOPE   C3B15422  14.079   8.055  12.913 -0.0043  0.2151 -0.2231
 1314DOPE   C4B15423  13.673   8.275  12.811 -0.2759  0.3197 -0.2003
 1315DOPE   NH315424  16.475   1.582  15.246  0.1600 -0.4009  0.2089
 1315DOPE   PO415425  16.559   1.542  14.929 -0.0011  0.1165  0.1492
 1315DOPE   GL115426  16.370   1.583  14.600  0.0137  0.3382  0.0979
 1315DOPE   GL215427  16.410   1.807  14.464  0.0193  0.3989 -0.0295
 1315DOPE   C1A15428  16.026   1.633  14.301 -0.2024 -0.1223  0.3926
 1315DOPE   D2A15429  15.594   1.776  14.273  0.2059  0.0303 -0.1337
 1315DOPE   C3A15430  15.359   2.026  14.003 -0.3392 -0.2056  0.1948
 1315DOPE   C4A15431  15.194   2.131  13.604 -0.3322 -0.1697  0.3868
 1315DOPE   C1B15432  16.584   1.451  14.191 -0.1813  0.2150 -0.3006
 1315DOPE   D2B15433  16.914   1.610  13.882  0.2167 -0.0974  0.1115
 1315DOPE   C3B15434  17.091   1.425  13.494 -0.0207  0.0997  0.2872
 1315DOPE   C4B15435  17.071   1.004  13.359 -0.2138 -0.0651 -0.2414
 1316DOPC   NC315436  17.102   2.152  14.888  0.1048 -0.0538  0.2106
 1316DOPC   PO415437  16.766   1.994  14.780 -0.2430 -0.0714  0.1733
 1316DOPC   GL115438  16.829   2.020  14.437  0.1746 -0.2112  0.4353
 1316DOPC   GL215439  17.027   2.218  14.399  0.1784 -0.0313  0.0174
 1316DOPC   C1A15440  16.563   2.051  14.053  0.2645 -0.1849 -0.1520
 1316DOPC   D2A15441  16.222   2.078  13.737  0.2530  0.0043 -0.0046
 1316DOPC   C3A15442  16.382   2.053  13.347 -0.3777  0.1002 -0.0689
 1316DOPC   C4A15443  16.257   1.966  12.905 -0.1194  0.0521 -0.5182
 1316DOPC   C1B15444  16.752   2.483  14.112 -0.0089 -0.0549 -0.0058
 1316DOPC   D2B15445  16.600   2.538  13.686 -0.3173  0.0530 -0.0533
 1316DOPC   C3B15446  16.203   2.497  13.416  0.2478 -0.0069 -0.1881
 1316DOPC   C4B15447  16.025   2.400  13.058 -0.1094  0.2563 -0.0373
 1317POSM   NC315448  18.742   7.169  14.035  0.0925 -0.1690 -0.2625
 1317POSM   PO415449  18.720   6.889  13.769  0.2860 -0.0074 -0.0114
 1317POSM   AM115450  18.608   6.828  13.459 -0.0840  0.2153 -0.4543
 1317POSM   AM215451  18.631   6.582  13.315 -0.0556  0.0721  0.1289
 1317POSM   T1A15452  18.309   6.822  13.027 -0.0835  0.1010 -0.1889
 1317POSM   C2A15453  18.290   6.709  12.567  0.0310 -0.0367 -0.2752
 1317POSM   C3A15454  18.257   6.442  12.205 -0.1688 -0.0527  0.0282
 1317POSM   C1B15455  18.850   6.475  13.007 -0.0131  0.2357  0.2317
 1317POSM   D2B15456  18.713   6.376  12.602  0.2157 -0.0825 -0.0658
 1317POSM   C3B15457  18.813   6.506  12.156 -0.0519 -0.0583 -0.2714
 1317POSM   C4B15458  18.953   6.854  11.886 -0.0163 -0.2176  0.1181
 1318POSM   NC315459  12.430  10.181  14.661  0.0478  0.3716  0.1435
 1318POSM   PO415460  12.438   9.853  14.452 -0.0578  0.2247 -0.0914
 1318POSM   AM115461  12.197   9.845  14.196  0.1189  0.2549  0.2880
 1318POSM   AM215462  12.243   9.857  13.928 -0.3031 -0.2129 -0.0297
 1318POSM   T1A15463  11.714   9.958  14.055 -0.0377 -0.0634  0.0508
 1318POSM   C2A15464  11.394  10.135  13.738 -0.2303  0.1924  0.1819
 1318POSM   C3A15465  11.385  10.514  13.559 -0.0808 -0.0232  0.0318
 1318POSM   C1B15466  12.067   9.832  13.669  0.0740  0.2560  0.3828
 1318POSM   D2B15467  11.754   9.986  13.356 -0.0016  0.1087  0.0033
 1318POSM   C3B15468  11.892   9.690  13.014  0.0487 -0.0761 -0.1499
 1318POSM   C4B15469  11.976   9.345  12.703  0.2983  0.1186  0.3291
 1319DOPC   NC315470  16.826  10.265  12.523  0.4126  0.1901  0.0693
 1319DOPC   PO415471  17.072  10.168  12.819  0.0280  0.1683 -0.1233
 1319DOPC   GL115472  17.057   9.838  12.548 -0.2493  0.1641  0.0832
 1319DOPC   GL215473  17.232   9.963  12.354  0.1807 -0.1584  0.0689
 1319DOPC   C1A15474  16.829   9.673  12.176 -0.1459 -0.1372 -0.0625
 1319DOPC   D2A15475  16.922   9.590  11.743 -0.0533 -0.0188 -0.1345
 1319DOPC   C3A15476  16.837   9.120  11.714  0.0609  0.2233  0.1496
 1319DOPC   C4A15477  16.614   8.751  11.791 -0.0555  0.1913  0.0233
 1319DOPC   C1B15478  17.343   9.628  12.055  0.1404  0.3563 -0.1344
 1319DOPC   D2B15479  17.388   9.348  11.719  0.5223 -0.0031 -0.2177
 1319DOPC   C3B15480  17.648   9.391  11.344  0.0548  0.1715  0.2942
 1319DOPC   C4B15481  17.888   9.528  10.990 -0.2206 -0.2357 -0.0901
 1320DOPS   CNO15482  14.816   6.693  14.479 -0.0899  0.3004  0.1314
 1320DOPS   PO415483  14.843   7.050  14.353  0.1111  0.3909  0.2439
 1320DOPS   GL115484  14.575   6.999  14.025  0.1414 -0.0455 -0.0215
 1320DOPS   GL215485  14.632   6.711  14.034 -0.3168  0.1867  0.1040
 1320DOPS   C1A15486  14.692   7.084  13.594 -0.1746  0.0873  0.1763
 1320DOPS   D2A15487  14.699   7.035  13.176 -0.1745 -0.1618  0.0008
 1320DOPS   C3A15488  14.897   6.616  13.057 -0.1517  0.0582  0.1370
 1320DOPS   C4A15489  15.031   6.135  13.006 -0.2810  0.1623  0.0708
 1320DOPS   C1B15490  14.281   6.774  13.687 -0.0594 -0.0294  0.3043
 1320DOPS   D2B15491  14.249   6.703  13.246  0.1398 -0.1349  0.1283
 1320DOPS   C3B15492  13.875   6.964  13.078  0.0644 -0.1606 -0.5237
 1320DOPS   C4B15493  13.600   7.201  12.828 -0.0253 -0.2610  0.2185
 1321DOPE   NH315494  20.883   7.555  13.533 -0.0129  0.0282  0.1200
 1321DOPE   PO415495  21.015   7.437  13.286  0.2836  0.2420 -0.3836
 1321DOPE   GL115496  20.737   7.300  13.059  0.4771 -0.0205  0.1181
 1321DOPE   GL215497  20.960   7.118  12.844 -0.1967 -0.1082 -0.2002
 1321DOPE   C1A15498  20.694   7.565  12.650  0.1614 -0.0929  0.1813
 1321DOPE   D2A15499  20.571   8.002  12.428  0.0344 -0.3428  0.1130
 1321DOPE   C3A15500  20.611   7.992  11.965 -0.1302  0.6588  0.1404
 1321DOPE   C4A15501  20.760   8.246  11.639 -0.1912  0.0430  0.3053
 1321DOPE   C1B15502  21.054   7.367  12.383 -0.1059 -0.0102 -0.4301
 1321DOPE   D2B15503  20.946   7.768  12.199  0.0043 -0.0893 -0.0321
 1321DOPE   C3B15504  21.147   8.022  11.860 -0.1540  0.0418  0.1038
 1321DOPE   C4B15505  21.299   8.151  11.504  0.3263 -0.2523  0.4651
 1322DOPS   CNO15506  15.736   7.346  14.216 -0.2543 -0.0867 -0.0135
 1322DOPS   PO415507  15.546   7.195  13.920 -0.0270  0.0300 -0.0092
 1322DOPS   GL115508  15.419   6.802  13.736  0.0408  0.4589 -0.1266
 1322DOPS   GL215509  15.163   7.006  13.685 -0.0081  0.0491 -0.1043
 1322DOPS   C1A15510  15.668   6.776  13.374 -0.2339  0.3303 -0.2970
 1322DOPS   D2A15511  15.972   6.937  13.119 -0.0874  0.2151  0.0967
 1322DOPS   C3A15512  15.829   7.145  12.754 -0.1557  0.0093 -0.0135
 1322DOPS   C4A15513  15.918   7.152  12.269  0.1793 -0.5096 -0.0391
 1322DOPS   C1B15514  15.229   6.967  13.281  0.2116 -0.1391  0.0102
 1322DOPS   D2B15515  15.352   7.094  12.792  0.0586 -0.2160 -0.0006
 1322DOPS   C3B15516  15.458   7.362  12.434  0.1055  0.1083 -0.1808
 1322DOPS   C4B15517  15.635   7.771  12.321  0.0393 -0.2343 -0.0149
 1323DOPS   CNO15518  13.398   1.566  16.378 -0.0876  0.3127  0.4742
 1323DOPS   PO415519  13.346   1.332  16.087 -0.0166 -0.1159 -0.0080
 1323DOPS   GL115520  13.501   1.203  15.728  0.2259 -0.3783 -0.1859
 1323DOPS   GL215521  13.743   1.378  15.712 -0.1387  0.1814 -0.0050
 1323DOPS   C1A15522  13.100   1.218  15.418  0.2827 -0.0203  0.1131
 1323DOPS   D2A15523  12.722   1.161  15.242  0.1563  0.0410 -0.2642
 1323DOPS   C3A15524  12.819   1.017  14.834  0.1924  0.1943  0.0981
 1323DOPS   C4A15525  12.748   1.126  14.406  0.1005  0.1984  0.1331
 1323DOPS   C1B15526  13.474   1.702  15.484  0.1847  0.1503 -0.0176
 1323DOPS   D2B15527  13.399   1.981  15.129 -0.3413  0.1468  0.3003
 1323DOPS   C3B15528  13.535   2.176  14.737 -0.1166  0.1698 -0.0343
 1323DOPS   C4B15529  13.289   2.340  14.348  0.0615 -0.4257  0.0490
 1324POSM   NC315530  12.051   6.865  16.111 -0.0506  0.3272 -0.1517
 1324POSM   PO415531  11.686   6.766  16.025 -0.2158 -0.0667 -0.1476
 1324POSM   AM115532  11.534   6.728  15.753  0.1866  0.1795 -0.0846
 1324POSM   AM215533  11.542   6.843  15.480 -0.2274  0.2168  0.1940
 1324POSM   T1A15534  11.094   6.556  15.562 -0.1463  0.0156 -0.3227
 1324POSM   C2A15535  10.672   6.286  15.576  0.0504 -0.1094 -0.1807
 1324POSM   C3A15536  10.274   6.189  15.338 -0.0150 -0.2841  0.0893
 1324POSM   C1B15537  11.598   6.619  15.206 -0.1636 -0.0618  0.2686
 1324POSM   D2B15538  11.574   6.238  14.938 -0.3668 -0.0407  0.0882
 1324POSM   C3B15539  11.253   6.168  14.657  0.1244  0.0060  0.4066
 1324POSM   C4B15540  10.926   5.938  14.637  0.4001  0.0560  0.1015
 1325POSM   NC315541  21.342   6.576  13.583 -0.0222 -0.0459 -0.0062
 1325POSM   PO415542  21.113   6.369  13.338 -0.2208 -0.2248  0.1083
 1325POSM   AM115543  21.061   6.114  13.129 -0.2960 -0.0681 -0.3453
 1325POSM   AM215544  20.995   6.075  12.861  0.1361  0.0605 -0.0096
 1325POSM   T1A15545  21.160   5.642  13.027  0.0799  0.0378 -0.1771
 1325POSM   C2A15546  21.138   5.191  13.148 -0.1056  0.1339  0.2878
 1325POSM   C3A15547  21.064   4.787  13.211  0.0542  0.2349  0.2194
 1325POSM   C1B15548  21.183   5.993  12.600  0.2482 -0.0454 -0.0491
 1325POSM   D2B15549  21.184   6.093  12.125  0.1254 -0.0371 -0.1410
 1325POSM   C3B15550  20.929   6.421  11.869 -0.1332 -0.0764  0.1958
 1325POSM   C4B15551  20.737   6.660  11.516 -0.0834  0.0819 -0.2604
 1326DOPC   NC315552  15.835   3.184  14.825 -0.0527  0.1055  0.2310
 1326DOPC   PO415553  15.524   3.003  15.007  0.0618  0.3245  0.0269
 1326DOPC   GL115554  15.344   3.033  14.631  0.0625  0.1384 -0.1603
 1326DOPC   GL215555  15.374   3.328  14.587  0.1491  0.1508 -0.1606
 1326DOPC   C1A15556  15.201   2.907  14.206 -0.0746  0.0941 -0.0408
 1326DOPC   D2A15557  14.985   2.988  13.816 -0.3043 -0.2068  0.0620
 1326DOPC   C3A15558  15.239   3.281  13.551  0.0021 -0.1936  0.0212
 1326DOPC   C4A15559  15.459   3.610  13.268 -0.0947  0.0835 -0.0664
 1326DOPC   C1B15560  15.035   3.360  14.275  0.0057  0.2316 -0.1431
 1326DOPC   D2B15561  14.822   3.501  13.908  0.1895 -0.2402  0.3053
 1326DOPC   C3B15562  14.756   3.373  13.457  0.3699 -0.3496 -0.1602
 1326DOPC   C4B15563  15.032   3.289  13.081 -0.0445 -0.2272 -0.0017
 1327POSM   NC315564  15.541   8.982  14.336  0.3847 -0.1580  0.0405
 1327POSM   PO415565  15.650   9.096  13.978 -0.1827 -0.0127 -0.0199
 1327POSM   AM115566  15.671   8.851  13.779  0.1863 -0.1013  0.3453
 1327POSM   AM215567  15.449   8.659  13.760 -0.2293  0.0198  0.0712
 1327POSM   T1A15568  15.889   8.607  13.385  0.1389  0.0432  0.1883
 1327POSM   C2A15569  15.940   8.453  12.951  0.1500  0.0460  0.2148
 1327POSM   C3A15570  15.902   8.285  12.475 -0.0505  0.0791  0.2093
 1327POSM   C1B15571  15.245   8.647  13.525 -0.1347 -0.1214  0.0734
 1327POSM   D2B15572  14.958   8.577  13.173 -0.1996  0.4497  0.0086
 1327POSM   C3B15573  15.323   8.309  12.994 -0.2019 -0.3778  0.0215
 1327POSM   C4B15574  15.656   8.022  12.806  0.0996 -0.2511  0.1551
 1328DOPC   NC315575  18.780   7.978  13.138  0.0612 -0.1161 -0.1866
 1328DOPC   PO415576  19.085   7.819  13.355 -0.2666 -0.1144  0.0024
 1328DOPC   GL115577  19.109   7.649  12.952  0.2542 -0.1394  0.0879
 1328DOPC   GL215578  18.886   7.519  12.824 -0.0943 -0.0914  0.0244
 1328DOPC   C1A15579  19.102   7.921  12.573 -0.1219  0.1783  0.0181
 1328DOPC   D2A15580  19.012   8.055  12.123 -0.0827 -0.0207  0.2928
 1328DOPC   C3A15581  18.660   7.816  11.885  0.2305 -0.2300 -0.0628
 1328DOPC   C4A15582  18.175   7.754  11.681 -0.1238  0.0015  0.0171
 1328DOPC   C1B15583  18.691   7.563  12.375  0.2887 -0.1175  0.1205
 1328DOPC   D2B15584  18.320   7.779  12.192  0.3615 -0.0035 -0.0275
 1328DOPC   C3B15585  17.946   7.549  12.092  0.0074 -0.2461  0.2176
 1328DOPC   C4B15586  17.500   7.453  12.179  0.1612  0.1129  0.0057
 1329POSM   NC315587  19.988   6.335  14.187 -0.0279  0.1155 -0.0306
 1329POSM   PO415588  19.757   6.071  13.988  0.2540  0.3847  0.1439
 1329POSM   AM115589  19.555   6.051  13.738  0.1370 -0.0130 -0.0584
 1329POSM   AM215590  19.593   6.022  13.452  0.2939 -0.2869  0.0465
 1329POSM   T1A15591  19.105   6.000  13.435 -0.2367  0.1904 -0.3088
 1329POSM   C2A15592  18.634   5.915  13.341  0.1679  0.1728 -0.0606
 1329POSM   C3A15593  18.362   6.160  13.041  0.0884  0.4172 -0.0139
 1329POSM   C1B15594  19.481   6.134  13.190  0.0927  0.0862 -0.2558
 1329POSM   D2B15595  19.330   6.466  12.884  0.0178  0.0598  0.1351
 1329POSM   C3B15596  19.203   6.367  12.470  0.2721 -0.2392 -0.2127
 1329POSM   C4B15597  19.354   6.452  12.045 -0.1102  0.0816 -0.1951
 1330POSM   NC315598  20.541   1.641  13.390 -0.3292  0.0487  0.2699
 1330POSM   PO415599  20.743   1.839  13.649 -0.1620  0.2114  0.1550
 1330POSM   AM115600  20.697   2.062  13.414 -0.3315 -0.1161  0.5515
 1330POSM   AM215601  20.453   2.160  13.282 -0.0095 -0.4065 -0.3454
 1330POSM   T1A15602  20.888   2.457  13.087 -0.1457  0.1851 -0.3499
 1330POSM   C2A15603  21.175   2.547  12.771 -0.1624 -0.1407 -0.1140
 1330POSM   C3A15604  21.507   2.331  12.502 -0.0889  0.0550  0.1148
 1330POSM   C1B15605  20.461   2.217  12.921 -0.0247 -0.0839 -0.2362
 1330POSM   D2B15606  20.180   2.224  12.612  0.3806 -0.0199  0.0311
 1330POSM   C3B15607  20.339   2.505  12.250 -0.1575 -0.0646 -0.0706
 1330POSM   C4B15608  20.454   2.565  11.815 -0.0945 -0.2318  0.1014
 1331DOPC   NC315609  12.423   3.949  16.330  0.1962 -0.3527  0.1398
 1331DOPC   PO415610  12.494   3.818  15.986 -0.3087 -0.0469  0.0095
 1331DOPC   GL115611  12.352   3.965  15.637 -0.0310 -0.0699  0.2659
 1331DOPC   GL215612  12.166   4.083  15.545  0.3194  0.0725 -0.1003
 1331DOPC   C1A15613  12.374   3.779  15.246  0.1069 -0.1044 -0.0386
 1331DOPC   D2A15614  12.363   3.575  14.876 -0.2814  0.3169  0.1179
 1331DOPC   C3A15615  12.369   3.777  14.471  0.0404 -0.0192  0.0209
 1331DOPC   C4A15616  12.194   3.814  14.073  0.2806  0.1732  0.1217
 1331DOPC   C1B15617  12.184   4.396  15.220 -0.0479 -0.3110 -0.1861
 1331DOPC   D2B15618  11.970   4.795  15.036  0.0530 -0.0413  0.3702
 1331DOPC   C3B15619  11.540   4.639  15.115  0.1248  0.3035 -0.3122
 1331DOPC   C4B15620  11.243   4.364  15.366  0.2489  0.0519 -0.0191
 1332DOPE   NH315621  14.656   2.073  15.210  0.0108 -0.1581  0.1623
 1332DOPE   PO415622  14.663   2.373  15.177 -0.1432 -0.0696 -0.0164
 1332DOPE   GL115623  14.693   2.529  14.792 -0.1269  0.3037 -0.0141
 1332DOPE   GL215624  14.903   2.307  14.706 -0.1966 -0.0702 -0.2406
 1332DOPE   C1A15625  14.244   2.721  14.694  0.0457  0.0083  0.0686
 1332DOPE   D2A15626  13.894   2.536  14.356  0.0787 -0.2806 -0.0273
 1332DOPE   C3A15627  13.537   2.810  14.231 -0.0541  0.1040 -0.0133
 1332DOPE   C4A15628  13.387   3.177  14.534  0.1098 -0.0765  0.1834
 1332DOPE   C1B15629  14.452   2.251  14.525 -0.2684 -0.0485  0.0176
 1332DOPE   D2B15630  14.040   2.028  14.526  0.1126 -0.1939  0.1043
 1332DOPE   C3B15631  14.030   1.611  14.441 -0.1158  0.0964 -0.1943
 1332DOPE   C4B15632  13.805   1.279  14.737 -0.0663 -0.3407 -0.3238
 1333DOPC   NC315633  12.946   5.560  15.251 -0.2213 -0.0621 -0.1942
 1333DOPC   PO415634  12.817   5.753  15.608 -0.3307  0.2593  0.5054
 1333DOPC   GL115635  12.565   5.683  15.400  0.1856 -0.0824  0.0794
 1333DOPC   GL215636  12.456   5.382  15.383  0.3510 -0.0041  0.0781
 1333DOPC   C1A15637  12.391   5.742  14.972 -0.1172 -0.0530  0.0125
 1333DOPC   D2A15638  12.403   5.676  14.532  0.0517  0.1774  0.1903
 1333DOPC   C3A15639  12.026   5.762  14.229  0.1631  0.1122  0.0122
 1333DOPC   C4A15640  11.855   5.518  13.838 -0.1611 -0.1429 -0.1192
 1333DOPC   C1B15641  12.185   5.293  15.047  0.0278 -0.1835  0.1758
 1333DOPC   D2B15642  11.772   5.351  14.863 -0.3630 -0.0492 -0.0387
 1333DOPC   C3B15643  11.304   5.170  14.735  0.1399  0.0613  0.2889
 1333DOPC   C4B15644  11.068   5.088  14.337 -0.0686  0.0951 -0.0281
 1334POSM   NC315645  20.705   8.538  13.093 -0.0512  0.2813  0.2271
 1334POSM   PO415646  20.817   8.884  12.923  0.5755  0.2673 -0.0829
 1334POSM   AM115647  20.961   8.779  12.650  0.3305 -0.0733  0.1036
 1334POSM   AM215648  20.924   8.908  12.406  0.0083  0.0815 -0.2674
 1334POSM   T1A15649  21.427   8.634  12.511  0.1798 -0.0251  0.0081
 1334POSM   C2A15650  21.795   8.579  12.225  0.0003 -0.0271 -0.1282
 1334POSM   C3A15651  22.116   8.339  11.988  0.0467 -0.3133  0.0707
 1334POSM   C1B15652  20.988   8.975  12.053 -0.0558  0.1187  0.2890
 1334POSM   D2B15653  20.879   9.152  11.651 -0.1898 -0.0593 -0.0291
 1334POSM   C3B15654  20.907   9.111  11.170  0.2344 -0.3714  0.1349
 1334POSM   C4B15655  20.830   8.762  10.868 -0.2274  0.0104 -0.0348
 1335POSM   NC315656  11.113  10.312  15.070 -0.0858 -0.0401 -0.2181
 1335POSM   PO415657  11.031  10.708  15.011  0.1013 -0.2767 -0.1609
 1335POSM   AM115658  10.860  10.646  14.750  0.0785 -0.0577  0.1109
 1335POSM   AM215659  10.765  10.456  14.562  0.2129  0.2287  0.2033
 1335POSM   T1A15660  10.565  10.867  14.451  0.1928 -0.0866 -0.0265
 1335POSM   C2A15661  10.255  10.974  14.125  0.1461  0.0553  0.1003
 1335POSM   C3A15662   9.977  11.176  13.883 -0.1029  0.2321  0.3044
 1335POSM   C1B15663  10.885  10.153  14.645 -0.0129  0.0307  0.4172
 1335POSM   D2B15664  11.215   9.816  14.572 -0.0115  0.0573 -0.1020
 1335POSM   C3B15665  11.274   9.753  14.152  0.0727  0.0053 -0.3033
 1335POSM   C4B15666  11.293   9.551  13.705  0.1190 -0.1949 -0.0636
 1336POSM   NC315667  14.071   5.455  15.387  0.3084  0.2719 -0.0756
 1336POSM   PO415668  14.371   5.168  15.332  0.2770 -0.0696 -0.0746
 1336POSM   AM115669  14.165   5.178  15.021  0.3049  0.0626 -0.1926
 1336POSM   AM215670  14.032   4.954  14.879  0.0313 -0.1872 -0.0913
 1336POSM   T1A15671  13.993   5.374  14.584 -0.1336 -0.0697 -0.3066
 1336POSM   C2A15672  13.905   5.590  14.155 -0.0866  0.0944 -0.1107
 1336POSM   C3A15673  13.797   5.714  13.724  0.0300  0.1382  0.0033
 1336POSM   C1B15674  13.716   4.965  14.687  0.1430  0.2389 -0.0113
 1336POSM   D2B15675  13.492   5.261  14.486  0.0709  0.3235  0.1224
 1336POSM   C3B15676  13.465   5.276  13.965  0.0534 -0.0169 -0.0680
 1336POSM   C4B15677  13.511   4.976  13.606 -0.3321  0.3556 -0.0143
 1337POSM   NC315678  13.942  11.784  13.707 -0.0929 -0.2153 -0.0437
 1337POSM   PO415679  13.849  11.612  13.359  0.2879 -0.0772  0.1693
 1337POSM   AM115680  13.712  11.432  13.104 -0.3215 -0.2665  0.1573
 1337POSM   AM215681  13.555  11.199  13.047 -0.2418 -0.0165 -0.1028
 1337POSM   T1A15682  13.608  11.490  12.604 -0.2256 -0.0748 -0.2733
 1337POSM   C2A15683  13.661  11.789  12.253  0.0797  0.0478 -0.0044
 1337POSM   C3A15684  13.697  12.021  11.914  0.2716 -0.0273  0.2542
 1337POSM   C1B15685  13.576  11.034  12.759 -0.1014  0.3141 -0.0554
 1337POSM   D2B15686  13.593  10.822  12.320  0.0555 -0.0683  0.1315
 1337POSM   C3B15687  13.964  10.623  12.211  0.0647  0.1199 -0.1982
 1337POSM   C4B15688  14.178  10.312  11.909 -0.0322  0.2654 -0.0608
 1338DOPC   NC315689  23.432   7.225  13.309 -0.0275 -0.0360 -0.0781
 1338DOPC   PO415690  23.612   7.130  13.637 -0.1078  0.0192  0.2178
 1338DOPC   GL115691  23.965   7.247  13.417 -0.1184  0.3288  0.0361
 1338DOPC   GL215692  23.965   6.973  13.299  0.2629 -0.2024 -0.0129
 1338DOPC   C1A15693  24.025   7.317  12.974 -0.1604  0.0022 -0.4401
 1338DOPC   D2A15694  24.036   7.360  12.515 -0.5083  0.1157 -0.1526
 1338DOPC   C3A15695  23.719   7.150  12.253  0.0939  0.4835 -0.2005
 1338DOPC   C4A15696  23.349   6.824  12.336  0.0841 -0.1656 -0.4318
 1338DOPC   C1B15697  24.291   6.842  12.981  0.0888 -0.3330  0.0257
 1338DOPC   D2B15698  24.486   6.508  12.779  0.0865  0.0542  0.1461
 1338DOPC   C3B15699  24.513   6.196  12.405 -0.0575  0.0945 -0.0364
 1338DOPC   C4B15700  24.337   5.884  12.118 -0.1535  0.2116 -0.0704
 1339POSM   NC315701  20.504   7.897  13.624  0.0583 -0.1919  0.1011
 1339POSM   PO415702  20.859   8.036  13.465 -0.0331  0.0617 -0.0391
 1339POSM   AM115703  20.926   8.061  13.122 -0.4584 -0.0188  0.1689
 1339POSM   AM215704  20.970   8.182  12.883 -0.1564 -0.2217  0.1390
 1339POSM   T1A15705  21.092   7.774  12.729  0.0171  0.3066 -0.1546
 1339POSM   C2A15706  21.408   7.725  12.412  0.0005 -0.1322 -0.0967
 1339POSM   C3A15707  21.630   7.646  12.080 -0.0370  0.0905 -0.0410
 1339POSM   C1B15708  21.026   8.218  12.527  0.0187  0.1001 -0.2762
 1339POSM   D2B15709  20.972   8.449  12.143 -0.1043 -0.1465 -0.1563
 1339POSM   C3B15710  21.294   8.563  11.853  0.2506  0.0316 -0.0266
 1339POSM   C4B15711  21.403   8.930  11.541  0.3067  0.2292 -0.1080
 1340DOPS   CNO15712  17.011   6.793  14.541 -0.2506 -0.0562 -0.1668
 1340DOPS   PO415713  16.941   6.980  14.177 -0.0313  0.0851  0.0313
 1340DOPS   GL115714  16.835   6.865  13.807  0.1262 -0.2307 -0.2957
 1340DOPS   GL215715  16.514   6.858  13.677 -0.0615  0.0965 -0.0868
 1340DOPS   C1A15716  16.991   6.878  13.345 -0.1633  0.0636 -0.1571
 1340DOPS   D2A15717  17.206   6.983  12.953  0.3202  0.2269  0.1805
 1340DOPS   C3A15718  17.567   6.803  12.801  0.1486 -0.0456 -0.0646
 1340DOPS   C4A15719  17.838   6.510  12.511  0.0741 -0.2726  0.0074
 1340DOPS   C1B15720  16.691   6.465  13.409  0.0009  0.0348 -0.1054
 1340DOPS   D2B15721  16.727   6.162  13.005 -0.2120 -0.1250 -0.2009
 1340DOPS   C3B15722  16.637   6.265  12.595 -0.1561  0.0470 -0.0509
 1340DOPS   C4B15723  16.543   6.359  12.155  0.0084  0.0529  0.0861
 1341DOPS   CNO15724  11.144   7.514  15.969 -0.4431  0.1506  0.2626
 1341DOPS   PO415725  11.114   7.847  16.171 -0.0917  0.1440  0.0404
 1341DOPS   GL115726  10.948   7.838  15.717  0.0127 -0.1285 -0.0907
 1341DOPS   GL215727  10.647   7.903  15.753  0.0309  0.1000  0.0146
 1341DOPS   C1A15728  10.772   7.431  15.542 -0.1400 -0.0021 -0.1170
 1341DOPS   D2A15729  10.549   7.271  15.158 -0.1607  0.2369  0.0334
 1341DOPS   C3A15730  10.512   7.428  14.800 -0.0091  0.0382  0.3515
 1341DOPS   C4A15731  10.335   7.668  14.466 -0.0719 -0.3444 -0.2589
 1341DOPS   C1B15732  10.505   7.776  15.307 -0.1017  0.1633 -0.0995
 1341DOPS   D2B15733  10.195   7.797  15.007 -0.0690  0.3479  0.0381
 1341DOPS   C3B15734  10.233   8.114  14.704  0.0249  0.1723 -0.0218
 1341DOPS   C4B15735   9.948   8.462  14.567 -0.3640  0.4153  0.6581
 1342DOPS   CNO15736  17.749   7.144  14.277 -0.1323  0.0308  0.2490
 1342DOPS   PO415737  17.479   7.220  14.020  0.2322  0.0800 -0.0357
 1342DOPS   GL115738  17.317   7.221  13.637 -0.2907 -0.0296 -0.0043
 1342DOPS   GL215739  17.055   7.350  13.680  0.0098 -0.0375  0.0416
 1342DOPS   C1A15740  17.532   7.200  13.218  0.2941  0.2253 -0.1370
 1342DOPS   D2A15741  17.893   7.137  12.941 -0.2764 -0.1901  0.2150
 1342DOPS   C3A15742  17.820   7.089  12.491 -0.0182  0.3450  0.0384
 1342DOPS   C4A15743  17.560   6.893  12.178  0.1812 -0.0268  0.2429
 1342DOPS   C1B15744  17.069   7.332  13.223  0.0980 -0.1548  0.0601
 1342DOPS   D2B15745  16.916   7.305  12.773  0.0567  0.2359 -0.0117
 1342DOPS   C3B15746  17.062   7.660  12.506  0.2029  0.2967  0.2351
 1342DOPS   C4B15747  17.222   7.843  12.069  0.1306  0.0813  0.0671
 1343POSM   NC315748  18.082   4.023  14.038 -0.0703  0.3299  0.0166
 1343POSM   PO415749  18.364   4.341  14.042  0.0945 -0.2449 -0.0538
 1343POSM   AM115750  18.394   4.314  13.715 -0.0988 -0.1023 -0.0432
 1343POSM   AM215751  18.410   4.042  13.589  0.0298 -0.3432 -0.1168
 1343POSM   T1A15752  18.230   4.552  13.285 -0.1237  0.1650  0.1901
 1343POSM   C2A15753  17.933   4.660  12.962  0.2335 -0.1495 -0.1651
 1343POSM   C3A15754  17.509   4.650  12.836 -0.0324 -0.0628  0.1951
 1343POSM   C1B15755  18.205   4.038  13.311 -0.0598  0.1967 -0.1816
 1343POSM   D2B15756  17.942   3.759  13.009  0.1565 -0.0557  0.0412
 1343POSM   C3B15757  18.043   3.723  12.577 -0.1773 -0.1438  0.0557
 1343POSM   C4B15758  17.937   3.726  12.113 -0.0426 -0.2089 -0.1869
 1344DOPE   NH315759  18.843  11.760  12.459  0.0267 -0.1397  0.0114
 1344DOPE   PO415760  18.929  11.397  12.506  0.0958  0.0551  0.1940
 1344DOPE   GL115761  18.955  11.174  12.130 -0.1220 -0.1177 -0.1978
 1344DOPE   GL215762  19.117  10.870  12.102 -0.1266 -0.2071 -0.1539
 1344DOPE   C1A15763  18.726  11.043  11.748  0.2938 -0.0192  0.3654
 1344DOPE   D2A15764  18.803  10.802  11.333  0.2217  0.1975 -0.0467
 1344DOPE   C3A15765  18.887  10.955  10.834 -0.0698  0.2918 -0.0127
 1344DOPE   C4A15766  18.973  10.804  10.423  0.3429 -0.0405  0.1967
 1344DOPE   C1B15767  19.288  11.168  11.804 -0.2837  0.1563  0.0496
 1344DOPE   D2B15768  19.523  11.142  11.401  0.1356 -0.1080 -0.0405
 1344DOPE   C3B15769  19.714  10.974  11.020 -0.0493  0.0521 -0.3995
 1344DOPE   C4B15770  19.993  10.850  10.713 -0.1438  0.0785  0.3657
 1345POSM   NC315771  17.830   1.139  14.745 -0.0899 -0.1517  0.0459
 1345POSM   PO415772  17.467   1.269  14.677 -0.0540  0.0018  0.1542
 1345POSM   AM115773  17.333   1.142  14.390 -0.3253  0.1332  0.0376
 1345POSM   AM215774  17.169   1.186  14.167  0.3918  0.0121  0.0663
 1345POSM   T1A15775  17.136   0.740  14.074 -0.0115  0.0693 -0.0322
 1345POSM   C2A15776  16.938   0.629  13.655 -0.0441  0.0655  0.2622
 1345POSM   C3A15777  16.661   0.698  13.302 -0.0365 -0.2015 -0.0696
 1345POSM   C1B15778  17.308   1.133  13.871  0.3722 -0.1319  0.2935
 1345POSM   D2B15779  17.580   1.109  13.464  0.1244 -0.0974  0.2173
 1345POSM   C3B15780  17.455   1.061  13.023 -0.0194 -0.1028  0.0870
 1345POSM   C4B15781  17.346   0.656  12.753 -0.0425 -0.0658 -0.0507
 1346DOPS   CNO15782  18.671   5.520  14.129  0.0408  0.0119  0.0482
 1346DOPS   PO415783  18.393   5.265  14.080 -0.0919 -0.2675  0.0406
 1346DOPS   GL115784  18.236   5.298  13.725  0.0529 -0.1328  0.3186
 1346DOPS   GL215785  17.965   5.082  13.698 -0.1525  0.6267 -0.0064
 1346DOPS   C1A15786  18.198   5.645  13.405 -0.1538  0.5155  0.1342
 1346DOPS   D2A15787  17.889   5.884  13.213 -0.4008 -0.0298 -0.0471
 1346DOPS   C3A15788  17.903   5.978  12.757  0.0210 -0.2362  0.3860
 1346DOPS   C4A15789  17.933   6.046  12.255  0.4490  0.0344 -0.0323
 1346DOPS   C1B15790  18.099   5.085  13.253  0.3906  0.1937  0.0548
 1346DOPS   D2B15791  18.398   5.106  12.896 -0.0246  0.0633  0.1048
 1346DOPS   C3B15792  18.581   5.389  12.534  0.1081 -0.0090 -0.0074
 1346DOPS   C4B15793  18.693   5.531  12.096  0.2080 -0.2874  0.1419
 1347POSM   NC315794  20.986   5.733  14.045  0.0887 -0.0569  0.2266
 1347POSM   PO415795  20.612   5.607  13.898  0.0746  0.1812 -0.0492
 1347POSM   AM115796  20.533   5.528  13.594 -0.1593  0.0356 -0.2922
 1347POSM   AM215797  20.395   5.699  13.431  0.0060  0.3631  0.0277
 1347POSM   T1A15798  20.570   5.253  13.095  0.0774 -0.0788  0.2647
 1347POSM   C2A15799  20.764   5.057  12.729 -0.0274  0.0989  0.1774
 1347POSM   C3A15800  21.158   5.190  12.544  0.0278  0.1521  0.0432
 1347POSM   C1B15801  20.174   5.602  13.116 -0.2942  0.1959 -0.0483
 1347POSM   D2B15802  20.026   5.432  12.687  0.0948  0.1931  0.1857
 1347POSM   C3B15803  20.273   5.041  12.661  0.0011  0.2476 -0.2844
 1347POSM   C4B15804  20.203   4.540  12.628 -0.1379 -0.1295 -0.0373
 1348POSM   NC315805  17.916   3.488  14.667  0.0359  0.3424  0.2504
 1348POSM   PO415806  17.708   3.674  14.413 -0.1425 -0.2239 -0.1074
 1348POSM   AM115807  17.468   3.591  14.188 -0.3267  0.3178  0.2706
 1348POSM   AM215808  17.496   3.623  13.899 -0.0523 -0.1786  0.1756
 1348POSM   T1A15809  17.060   3.302  14.086  0.0820  0.0682 -0.1241
 1348POSM   C2A15810  16.830   2.944  13.844 -0.0679 -0.1551 -0.2008
 1348POSM   C3A15811  16.404   2.983  13.591  0.0834  0.1654  0.2526
 1348POSM   C1B15812  17.172   3.709  13.780 -0.0134  0.1429 -0.2791
 1348POSM   D2B15813  16.742   3.818  13.671 -0.2170 -0.1802 -0.3834
 1348POSM   C3B15814  16.573   3.914  13.212 -0.0250 -0.2139  0.1763
 1348POSM   C4B15815  16.699   4.084  12.799  0.2089 -0.3345 -0.0792
 1349POSM   NC315816  13.231   9.074  14.524 -0.4671  0.1353 -0.1355
 1349POSM   PO415817  12.979   9.216  14.270 -0.2178  0.0605 -0.0607
 1349POSM   AM115818  13.109   9.008  14.047  0.0466  0.0301 -0.2202
 1349POSM   AM215819  12.964   8.946  13.826  0.0017 -0.0640 -0.3808
 1349POSM   T1A15820  13.427   8.986  13.638  0.0458 -0.0537  0.1054
 1349POSM   C2A15821  13.372   9.030  13.177 -0.1030  0.1147  0.3116
 1349POSM   C3A15822  13.558   8.870  12.798  0.2008 -0.1044  0.1817
 1349POSM   C1B15823  13.083   8.672  13.722  0.1151  0.2519  0.1302
 1349POSM   D2B15824  13.131   8.225  13.577 -0.1136 -0.2615  0.0945
 1349POSM   C3B15825  12.834   8.153  13.176 -0.2294 -0.4230 -0.3020
 1349POSM   C4B15826  12.798   7.779  12.930  0.1025  0.0930 -0.4729
 1350DOPE   NH315827  23.067   9.175  13.348 -0.1637  0.0480  0.2233
 1350DOPE   PO415828  23.047   9.441  13.167  0.1249  0.3043  0.2326
 1350DOPE   GL115829  23.045   9.480  12.837  0.1836  0.0434  0.1271
 1350DOPE   GL215830  23.287   9.281  12.739  0.1652  0.1122  0.0542
 1350DOPE   C1A15831  23.017   9.393  12.358  0.0939 -0.0210 -0.0106
 1350DOPE   D2A15832  23.180   9.126  12.018 -0.1177 -0.2464 -0.1614
 1350DOPE   C3A15833  23.373   8.717  12.176 -0.0429 -0.2438 -0.0475
 1350DOPE   C4A15834  23.423   8.276  12.356 -0.1996  0.2361  0.0115
 1350DOPE   C1B15835  23.610   9.260  12.404  0.1351  0.0128 -0.0926
 1350DOPE   D2B15836  23.910   9.054  12.160  0.4933 -0.3029  0.1756
 1350DOPE   C3B15837  23.821   8.662  11.912 -0.1427 -0.0917 -0.1499
 1350DOPE   C4B15838  23.923   8.573  11.457  0.2982 -0.2988 -0.0795
 1351DOPE   NH315839  11.662   7.681  16.109 -0.1544  0.4239 -0.1968
 1351DOPE   PO415840  11.894   7.746  15.895 -0.2603  0.0400 -0.2603
 1351DOPE   GL115841  11.787   7.682  15.510 -0.0465 -0.0654 -0.1363
 1351DOPE   GL215842  11.499   7.669  15.625 -0.1274  0.1871 -0.0573
 1351DOPE   C1A15843  11.602   7.415  15.159  0.0480 -0.1174 -0.1362
 1351DOPE   D2A15844  11.526   7.036  14.894 -0.1782 -0.0435 -0.0794
 1351DOPE   C3A15845  11.433   6.982  14.480  0.1080 -0.0145  0.1922
 1351DOPE   C4A15846  11.281   7.268  14.105  0.1216 -0.0077  0.2356
 1351DOPE   C1B15847  11.233   7.344  15.431 -0.0973  0.1620 -0.1089
 1351DOPE   D2B15848  11.081   7.013  15.210 -0.0622  0.0060 -0.3438
 1351DOPE   C3B15849  10.769   6.966  14.856 -0.0726 -0.0981  0.3995
 1351DOPE   C4B15850  10.260   6.962  14.755  0.1771 -0.0894  0.0030
 1352DOPS   CNO15851  23.392  34.122  13.795  0.1997 -0.2429  0.1403
 1352DOPS   PO415852  23.733  33.917  13.716  0.2241  0.1814  0.1303
 1352DOPS   GL115853  23.541  33.920  13.371  0.1583 -0.0508  0.1504
 1352DOPS   GL215854  23.552  33.648  13.294  0.3618  0.4218  0.2959
 1352DOPS   C1A15855  23.737  34.132  13.014  0.0677 -0.1156  0.1976
 1352DOPS   D2A15856  23.910  34.305  12.598 -0.3092  0.0836 -0.0011
 1352DOPS   C3A15857  24.007  34.366  12.140 -0.0815 -0.0475  0.2919
 1352DOPS   C4A15858  24.021  34.517  11.686  0.3601  0.3322  0.2949
 1352DOPS   C1B15859  23.869  33.525  13.001 -0.0321 -0.0880 -0.2540
 1352DOPS   D2B15860  24.087  33.456  12.606 -0.1254 -0.2350 -0.1453
 1352DOPS   C3B15861  23.831  33.422  12.250 -0.2879 -0.0757  0.2147
 1352DOPS   C4B15862  23.660  33.406  11.779 -0.0453 -0.1538 -0.0375
 1353DOPS   CNO15863  10.600   5.514  16.604  0.3301  0.0989  0.1881
 1353DOPS   PO415864  10.469   5.694  16.258  0.1020  0.0271 -0.1264
 1353DOPS   GL115865  10.485   6.018  15.994 -0.2478  0.5399  0.1318
 1353DOPS   GL215866  10.296   5.837  15.718 -0.0557 -0.3215 -0.1582
 1353DOPS   C1A15867  10.292   6.450  15.839 -0.3600 -0.0670  0.2433
 1353DOPS   D2A15868  10.273   6.777  15.462  0.0882 -0.0587  0.4860
 1353DOPS   C3A15869  10.154   6.637  15.103 -0.3571  0.1612  0.1198
 1353DOPS   C4A15870   9.758   6.706  14.821  0.3077 -0.1935  0.0118
 1353DOPS   C1B15871  10.193   5.630  15.307  0.1390  0.1322 -0.2560
 1353DOPS   D2B15872  10.321   5.279  15.072  0.1045 -0.4892  0.4520
 1353DOPS   C3B15873  10.678   5.070  15.307  0.0033  0.0387  0.2707
 1353DOPS   C4B15874  11.083   4.870  15.364  0.0676 -0.0256 -0.0276
 1354DOPE   NH315875  13.475   9.616  13.941 -0.2722 -0.2628  0.0688
 1354DOPE   PO415876  13.261   9.842  13.888  0.0409 -0.0571  0.3070
 1354DOPE   GL115877  13.150   9.670  13.485 -0.1339 -0.0625 -0.1748
 1354DOPE   GL215878  13.447   9.483  13.484  0.0954 -0.0363  0.2909
 1354DOPE   C1A15879  12.948   9.269  13.399 -0.1624  0.0706  0.2706
 1354DOPE   D2A15880  12.893   9.132  12.961  0.0701 -0.2242  0.3739
 1354DOPE   C3A15881  13.049   8.727  12.725  0.3430 -0.0926  0.2540
 1354DOPE   C4A15882  13.363   8.452  12.516 -0.1619 -0.3685 -0.0764
 1354DOPE   C1B15883  13.751   9.272  13.190 -0.2753 -0.0998 -0.1273
 1354DOPE   D2B15884  14.049   9.081  12.849  0.1015 -0.3416  0.1846
 1354DOPE   C3B15885  14.124   8.906  12.443 -0.1451 -0.2225 -0.0893
 1354DOPE   C4B15886  14.053   8.937  11.999 -0.3669  0.1312 -0.3225
 1355DOPC   NC315887  15.207   9.724  13.897  0.1527 -0.1056  0.3649
 1355DOPC   PO415888  14.944   9.429  13.878  0.0310  0.2175  0.0803
 1355DOPC   GL115889  14.851   9.515  13.551 -0.3453  0.2478 -0.0790
 1355DOPC   GL215890  14.646   9.684  13.578 -0.2461 -0.0499 -0.0106
 1355DOPC   C1A15891  14.792   9.121  13.269  0.1121  0.1963  0.0994
 1355DOPC   D2A15892  14.859   8.929  12.840  0.0853  0.2042  0.1867
 1355DOPC   C3A15893  14.514   8.693  12.659  0.2124 -0.0467 -0.1373
 1355DOPC   C4A15894  14.100   8.513  12.715  0.0445  0.2814  0.1325
 1355DOPC   C1B15895  14.448   9.834  13.161 -0.1165 -0.0163 -0.0570
 1355DOPC   D2B15896  14.177  10.110  12.964  0.1123 -0.1108 -0.1520
 1355DOPC   C3B15897  14.223  10.189  12.465 -0.2289 -0.0020 -0.1874
 1355DOPC   C4B15898  14.607  10.288  12.232  0.1751 -0.2104 -0.3104
 1356DOPE   NH315899  16.099   7.958  14.315  0.3206 -0.1714  0.2090
 1356DOPE   PO415900  15.868   7.835  14.090 -0.0193  0.0307 -0.0157
 1356DOPE   GL115901  16.026   7.668  13.712  0.4318 -0.1276  0.2842
 1356DOPE   GL215902  16.301   7.666  13.784 -0.4469 -0.3585  0.2374
 1356DOPE   C1A15903  15.781   7.749  13.342 -0.1420 -0.2135  0.2054
 1356DOPE   D2A15904  15.586   7.576  12.994  0.0566  0.0986 -0.1495
 1356DOPE   C3A15905  15.145   7.479  12.988 -0.4059  0.2545  0.1087
 1356DOPE   C4A15906  14.838   7.399  12.686  0.1019  0.1515 -0.0883
 1356DOPE   C1B15907  16.361   7.825  13.328  0.0395 -0.1335  0.0769
 1356DOPE   D2B15908  16.380   8.120  13.031  0.2136 -0.2289 -0.0345
 1356DOPE   C3B15909  16.140   7.885  12.769 -0.2344  0.4408 -0.0494
 1356DOPE   C4B15910  15.973   7.557  12.561 -0.1364  0.2953  0.1203
 1357DOPC   NC315911  12.007   4.675  15.789  0.0238  0.0120  0.2793
 1357DOPC   PO415912  12.048   4.322  15.959  0.0343 -0.1062  0.1687
 1357DOPC   GL115913  11.793   4.245  15.722 -0.0445 -0.0027 -0.0244
 1357DOPC   GL215914  11.649   4.115  15.894  0.1861  0.1265  0.0409
 1357DOPC   C1A15915  11.762   4.195  15.260  0.5048  0.0957 -0.2566
 1357DOPC   D2A15916  11.474   4.208  14.856 -0.1166  0.0193  0.1051
 1357DOPC   C3A15917  11.661   4.574  14.657  0.0345 -0.0421 -0.3374
 1357DOPC   C4A15918  11.725   4.978  14.486  0.0877  0.2311 -0.0622
 1357DOPC   C1B15919  11.358   3.955  15.603  0.1469 -0.0503 -0.0162
 1357DOPC   D2B15920  11.098   3.777  15.255  0.0150 -0.0747  0.0279
 1357DOPC   C3B15921  10.860   4.033  14.926 -0.2036 -0.2246  0.1611
 1357DOPC   C4B15922  10.700   4.463  15.104 -0.3423  0.4889 -0.2099
 1358DOPE   NH315923  21.302   4.129  13.845 -0.0970  0.1851 -0.2055
 1358DOPE   PO415924  21.053   4.056  13.654  0.0710 -0.2011 -0.4489
 1358DOPE   GL115925  20.895   4.034  13.349  0.4926  0.0894  0.1836
 1358DOPE   GL215926  21.169   3.915  13.184  0.0268  0.0155 -0.1789
 1358DOPE   C1A15927  20.822   3.980  12.877  0.2180  0.3186 -0.4098
 1358DOPE   D2A15928  20.864   3.761  12.455 -0.0022 -0.0543  0.0114
 1358DOPE   C3A15929  20.550   3.417  12.237  0.2480 -0.0937 -0.0361
 1358DOPE   C4A15930  20.279   3.030  12.173 -0.0842  0.0705 -0.0166
 1358DOPE   C1B15931  21.146   4.321  13.049 -0.1638  0.1310 -0.2366
 1358DOPE   D2B15932  21.115   4.650  12.630  0.1841  0.0483  0.0120
 1358DOPE   C3B15933  20.908   4.848  12.244  0.1208 -0.0686  0.1343
 1358DOPE   C4B15934  20.829   4.701  11.840  0.0993 -0.2374 -0.2867
 1359DOPE   NH315935  20.329   8.851  12.964  0.1373 -0.2666 -0.0587
 1359DOPE   PO415936  20.165   8.601  12.879 -0.0232 -0.4813  0.0779
 1359DOPE   GL115937  20.105   8.742  12.505  0.0787  0.0821  0.0995
 1359DOPE   GL215938  19.972   8.987  12.500 -0.0474 -0.2324  0.0617
 1359DOPE   C1A15939  20.255   8.589  12.113 -0.0041 -0.1143  0.3202
 1359DOPE   D2A15940  20.244   8.260  11.744  0.1667 -0.3141  0.0066
 1359DOPE   C3A15941  20.061   8.023  11.443 -0.1061 -0.1414  0.0198
 1359DOPE   C4A15942  19.788   7.862  11.082 -0.0463 -0.1702 -0.0549
 1359DOPE   C1B15943  19.925   9.135  12.092  0.0389  0.0842  0.0810
 1359DOPE   D2B15944  19.740   9.149  11.669 -0.0329  0.0107 -0.0856
 1359DOPE   C3B15945  19.448   8.830  11.572  0.0017  0.0710 -0.0340
 1359DOPE   C4B15946  19.194   8.457  11.503 -0.0675  0.0748  0.0330
 1360DOPC   NC315947  12.739  34.155  16.196 -0.2106  0.0162 -0.2466
 1360DOPC   PO415948  12.584  34.352  15.878  0.3763 -0.0790 -0.3864
 1360DOPC   GL115949  12.636  34.752  15.722  0.1246 -0.0732  0.0463
 1360DOPC   GL215950  12.685  35.029  15.928  0.0809  0.0142 -0.0747
 1360DOPC   C1A15951  12.983  34.771  15.372  0.0265  0.1766  0.1295
 1360DOPC   D2A15952  13.292  34.592  15.090 -0.1032 -0.1957 -0.0168
 1360DOPC   C3A15953  13.207  34.411  14.625 -0.1411  0.0124 -0.2145
 1360DOPC   C4A15954  13.520  34.160  14.343 -0.0206  0.0150 -0.0786
 1360DOPC   C1B15955  12.291  34.965  15.603  0.2084 -0.1538 -0.0131
 1360DOPC   D2B15956  11.791  35.047  15.726  0.0518 -0.0901 -0.1147
 1360DOPC   C3B15957  11.552  35.359  15.499  0.4427 -0.1051 -0.4265
 1360DOPC   C4B15958  11.180  35.388  15.305  0.1373  0.3243  0.3267
 1361DOPC   NC315959  23.525   4.139  13.769 -0.0103 -0.0858 -0.1176
 1361DOPC   PO415960  23.196   4.335  13.851 -0.0479 -0.1880  0.3008
 1361DOPC   GL115961  23.214   4.302  13.464  0.0653 -0.1506 -0.0384
 1361DOPC   GL215962  23.075   4.475  13.267  0.2188 -0.1502  0.0149
 1361DOPC   C1A15963  23.112   3.950  13.141 -0.0721  0.0741 -0.0262
 1361DOPC   D2A15964  22.729   3.840  12.991 -0.2756 -0.0523  0.1533
 1361DOPC   C3A15965  22.461   3.997  12.641  0.0644 -0.3200  0.2494
 1361DOPC   C4A15966  22.180   4.008  12.331  0.0734  0.0729  0.1852
 1361DOPC   C1B15967  23.079   4.915  13.140 -0.1209  0.0773 -0.1469
 1361DOPC   D2B15968  22.751   5.181  13.307  0.1120 -0.0520  0.0059
 1361DOPC   C3B15969  22.715   5.578  13.044  0.0184  0.1140 -0.0748
 1361DOPC   C4B15970  22.584   5.751  12.666 -0.2273  0.0097 -0.0357
 1362DOPE   NH315971  19.173   2.887  13.838  0.2762 -0.4400 -0.1655
 1362DOPE   PO415972  19.253   3.148  13.701  0.4105 -0.3305  0.1342
 1362DOPE   GL115973  19.108   3.139  13.335 -0.2193  0.2731 -0.2672
 1362DOPE   GL215974  19.080   2.864  13.309 -0.3088  0.0080  0.0312
 1362DOPE   C1A15975  18.858   3.287  13.016  0.2700 -0.1721  0.0446
 1362DOPE   D2A15976  18.783   3.202  12.585  0.3993 -0.1448 -0.0028
 1362DOPE   C3A15977  18.459   2.935  12.374  0.0230 -0.0799 -0.1023
 1362DOPE   C4A15978  18.302   2.500  12.263  0.0764  0.0607  0.2054
 1362DOPE   C1B15979  19.302   3.003  12.913  0.2611  0.2754  0.1621
 1362DOPE   D2B15980  19.263   2.939  12.494  0.2542 -0.0313  0.0773
 1362DOPE   C3B15981  19.354   2.550  12.350  0.2482 -0.0147 -0.1485
 1362DOPE   C4B15982  19.192   2.249  12.051  0.0598  0.0381 -0.0570
 1363DOPE   NH315983  22.222   8.043  13.346  0.1813  0.1753 -0.2426
 1363DOPE   PO415984  22.401   8.214  13.125  0.1936 -0.0746  0.4410
 1363DOPE   GL115985  22.524   8.230  12.737 -0.1768  0.2857 -0.2166
 1363DOPE   GL215986  22.614   8.501  12.608  0.1526  0.4446 -0.1554
 1363DOPE   C1A15987  22.406   7.869  12.477  0.0596  0.0311 -0.0184
 1363DOPE   D2A15988  22.185   7.513  12.237  0.1209  0.0024 -0.1558
 1363DOPE   C3A15989  22.269   7.402  11.755  0.1468  0.0930  0.0567
 1363DOPE   C4A15990  22.083   7.124  11.519  0.2651  0.0570 -0.4662
 1363DOPE   C1B15991  22.538   8.252  12.203 -0.4997  0.3648  0.0589
 1363DOPE   D2B15992  22.512   7.923  11.918 -0.0036  0.3007  0.0650
 1363DOPE   C3B15993  22.866   7.753  11.762 -0.0220 -0.1254  0.2679
 1363DOPE   C4B15994  23.310   7.729  11.637 -0.3421 -0.2071 -0.1452
 1364DOPS   CNO15995  14.776   4.818  15.411 -0.1333 -0.3628 -0.0994
 1364DOPS   PO415996  14.560   4.732  15.121  0.2437  0.1344  0.2670
 1364DOPS   GL115997  14.192   4.568  14.794 -0.0622 -0.0299  0.2162
 1364DOPS   GL215998  14.224   4.308  14.760  0.5388 -0.1181  0.0852
 1364DOPS   C1A15999  13.959   4.723  14.379 -0.1184 -0.2535  0.1666
 1364DOPS   D2A16000  13.892   5.087  14.148 -0.2041  0.0377  0.3916
 1364DOPS   C3A16001  13.948   5.189  13.694 -0.2022  0.0618 -0.0244
 1364DOPS   C4A16002  13.930   5.067  13.240 -0.2661  0.1825  0.1096
 1364DOPS   C1B16003  14.019   4.244  14.373  0.1119  0.1277  0.2397
 1364DOPS   D2B16004  14.300   4.152  13.957 -0.0082 -0.0629 -0.2800
 1364DOPS   C3B16005  14.502   3.893  13.567  0.1245  0.0302 -0.1065
 1364DOPS   C4B16006  14.953   3.821  13.326  0.2867 -0.0587  0.1500
 1365POSM   NC316007  15.059  11.287  12.888 -0.0187 -0.0491 -0.2346
 1365POSM   PO416008  14.942  11.671  12.720  0.0046 -0.3740  0.0708
 1365POSM   AM116009  14.870  11.594  12.345  0.2829  0.1809 -0.2864
 1365POSM   AM216010  14.791  11.700  12.131  0.0432 -0.4554  0.0643
 1365POSM   T1A16011  14.943  11.225  12.014 -0.0608  0.2285 -0.2946
 1365POSM   C2A16012  15.120  10.862  11.725  0.4097 -0.0608 -0.0790
 1365POSM   C3A16013  15.445  10.526  11.892 -0.1984 -0.0090  0.0335
 1365POSM   C1B16014  14.671  11.620  11.820  0.0437  0.2300 -0.1860
 1365POSM   D2B16015  14.491  11.522  11.407  0.1003 -0.4095  0.0483
 1365POSM   C3B16016  14.518  11.662  10.988  0.0056  0.6045  0.0536
 1365POSM   C4B16017  14.705  11.561  10.597 -0.0231 -0.0355 -0.4356
 1366DOPC   NC316018   8.751   6.632  16.900  0.2887  0.0204 -0.0626
 1366DOPC   PO416019   9.136   6.533  16.859 -0.0190  0.0858 -0.0534
 1366DOPC   GL116020   9.131   6.675  16.545  0.0745 -0.2021 -0.3626
 1366DOPC   GL216021   9.364   6.438  16.411 -0.0086  0.2539 -0.0790
 1366DOPC   C1A16022   9.029   7.035  16.254 -0.1577 -0.1942  0.3555
 1366DOPC   D2A16023   9.003   7.372  15.905 -0.0310 -0.1765  0.0274
 1366DOPC   C3A16024   8.598   7.240  15.586 -0.0005 -0.2983  0.1109
 1366DOPC   C4A16025   8.215   7.497  15.555 -0.1172  0.1075  0.1234
 1366DOPC   C1B16026   9.177   6.645  16.013  0.0723 -0.2383  0.1707
 1366DOPC   D2B16027   8.870   6.895  15.780 -0.0191 -0.2315 -0.1361
 1366DOPC   C3B16028   8.735   6.748  15.325  0.3213 -0.1677  0.1823
 1366DOPC   C4B16029   8.922   6.422  14.996 -0.1742 -0.0948  0.1405
 1367DOPC   NC316030  15.995   3.973  15.274  0.0102 -0.0446  0.0538
 1367DOPC   PO416031  16.051   3.581  15.187  0.1178 -0.0508 -0.2071
 1367DOPC   GL116032  15.989   3.640  14.797  0.3233 -0.3903 -0.2472
 1367DOPC   GL216033  16.228   3.524  14.725  0.2511  0.1823 -0.2797
 1367DOPC   C1A16034  15.760   3.573  14.399 -0.3349 -0.0455  0.3571
 1367DOPC   D2A16035  15.932   3.570  13.962  0.0432 -0.2120 -0.1240
 1367DOPC   C3A16036  15.932   3.318  13.580 -0.0141 -0.0965  0.3853
 1367DOPC   C4A16037  16.002   3.058  13.242 -0.2573 -0.2631  0.0725
 1367DOPC   C1B16038  16.204   3.856  14.383  0.1259  0.1708 -0.1357
 1367DOPC   D2B16039  16.448   4.057  14.069 -0.2869 -0.2581  0.4186
 1367DOPC   C3B16040  16.217   3.959  13.695  0.3531 -0.2645 -0.1015
 1367DOPC   C4B16041  15.833   3.865  13.448 -0.2101 -0.2974  0.0861
 1368DOPS   CNO16042  16.474   1.106  15.403  0.2639 -0.0597  0.2502
 1368DOPS   PO416043  16.116   1.258  15.315 -0.0306 -0.1257  0.0437
 1368DOPS   GL116044  16.024   1.092  14.874 -0.1340 -0.0171 -0.1255
 1368DOPS   GL216045  16.275   1.155  14.709  0.0516 -0.0403 -0.0567
 1368DOPS   C1A16046  15.561   1.009  14.845  0.0085 -0.0672  0.1450
 1368DOPS   D2A16047  15.153   1.213  14.998  0.0806  0.1408  0.0992
 1368DOPS   C3A16048  14.738   1.071  14.829 -0.0813  0.1212 -0.3157
 1368DOPS   C4A16049  14.515   0.654  14.855 -0.0125  0.0206  0.0533
 1368DOPS   C1B16050  15.807   1.164  14.490 -0.3193  0.0267  0.0196
 1368DOPS   D2B16051  15.559   1.181  14.060  0.1362 -0.4450  0.3481
 1368DOPS   C3B16052  15.752   1.245  13.638 -0.0415  0.0570  0.0578
 1368DOPS   C4B16053  15.709   1.371  13.225 -0.0453  0.1112  0.0843
 1369DOPC   NC316054  20.871  11.605  12.277 -0.0444  0.2297  0.2685
 1369DOPC   PO416055  20.725  11.285  12.442 -0.0109  0.3200  0.0341
 1369DOPC   GL116056  20.763  11.010  12.158 -0.4178  0.1347 -0.1576
 1369DOPC   GL216057  20.672  11.182  11.946 -0.0204 -0.1739  0.1785
 1369DOPC   C1A16058  21.039  10.823  11.779 -0.0176  0.1243  0.1975
 1369DOPC   D2A16059  21.079  10.665  11.289 -0.1585 -0.0025  0.0278
 1369DOPC   C3A16060  20.877  10.882  10.952  0.0113  0.0420 -0.0498
 1369DOPC   C4A16061  20.716  11.306  10.786  0.0909  0.3411  0.0077
 1369DOPC   C1B16062  20.529  10.749  11.845  0.0983  0.0265 -0.1395
 1369DOPC   D2B16063  20.618  10.294  11.845  0.1688 -0.0311  0.2630
 1369DOPC   C3B16064  20.717  10.058  11.417 -0.1495  0.1940  0.2742
 1369DOPC   C4B16065  21.112  10.036  11.200 -0.2973  0.2161  0.2182
 1370POSM   NC316066  20.119   5.663  13.997  0.0655  0.1185 -0.0516
 1370POSM   PO416067  19.925   5.705  13.661  0.1683  0.2662 -0.1164
 1370POSM   AM116068  19.806   5.659  13.351 -0.2441 -0.0474  0.2390
 1370POSM   AM216069  19.695   5.415  13.200  0.0259  0.3098 -0.2353
 1370POSM   T1A16070  19.814   5.852  12.879  0.4696 -0.1298  0.0163
 1370POSM   C2A16071  19.960   5.832  12.431  0.0574  0.0525 -0.3448
 1370POSM   C3A16072  20.153   6.209  12.292 -0.2503  0.1143 -0.0737
 1370POSM   C1B16073  19.625   5.376  12.896  0.0489 -0.3020 -0.0472
 1370POSM   D2B16074  19.508   5.395  12.456  0.0288 -0.0772  0.0262
 1370POSM   C3B16075  19.254   5.670  12.201 -0.1527  0.2392  0.4363
 1370POSM   C4B16076  19.053   6.049  12.072  0.0866  0.4320  0.2630
 1371DOPC   NC316077  18.481   1.776  14.481 -0.1383  0.0368  0.1215
 1371DOPC   PO416078  18.219   2.034  14.592  0.1642  0.1580  0.1393
 1371DOPC   GL116079  18.014   2.074  14.210 -0.0417  0.2767 -0.2780
 1371DOPC   GL216080  18.236   2.015  13.968  0.1654 -0.0884 -0.3701
 1371DOPC   C1A16081  17.976   2.412  13.869  0.1803 -0.1158  0.1801
 1371DOPC   D2A16082  17.764   2.609  13.518  0.1388 -0.1587  0.0216
 1371DOPC   C3A16083  17.441   2.476  13.167 -0.2269  0.0234  0.2703
 1371DOPC   C4A16084  17.182   2.512  12.777  0.0320 -0.0952 -0.1167
 1371DOPC   C1B16085  17.837   1.879  13.885  0.2888 -0.2263  0.0757
 1371DOPC   D2B16086  17.485   1.708  13.671  0.0033 -0.1674 -0.2215
 1371DOPC   C3B16087  17.314   1.773  13.237 -0.2598  0.0580  0.0497
 1371DOPC   C4B16088  17.404   2.028  12.830 -0.2789  0.0302  0.0264
 1372DOPC   NC316089  23.450   0.346  13.374  0.0390 -0.1637 -0.2712
 1372DOPC   PO416090  23.789   0.280  13.633 -0.2907 -0.2155  0.2989
 1372DOPC   GL116091  23.948   0.294  13.211  0.2063 -0.0175  0.2193
 1372DOPC   GL216092  24.112   0.086  12.971  0.0084  0.0925 -0.0873
 1372DOPC   C1A16093  23.842   0.559  12.868  0.0146 -0.0200  0.1000
 1372DOPC   D2A16094  23.725   0.760  12.479 -0.1713  0.2441  0.0222
 1372DOPC   C3A16095  23.537   0.678  12.083 -0.0540  0.0506 -0.0673
 1372DOPC   C4A16096  23.319   0.401  11.690 -0.0017  0.2657 -0.0234
 1372DOPC   C1B16097  24.206   0.266  12.556 -0.2891 -0.1931  0.1006
 1372DOPC   D2B16098  24.024   0.442  12.186 -0.1263  0.3564  0.1878
 1372DOPC   C3B16099  23.966   0.907  12.099 -0.0235  0.0680  0.0653
 1372DOPC   C4B16100  23.886   1.396  12.059  0.0229  0.2849  0.1281
 1373DOPE   NH316101  18.133   0.369  14.799 -0.1998 -0.1463 -0.0709
 1373DOPE   PO416102  17.859   0.284  14.706  0.0145 -0.0247 -0.2269
 1373DOPE   GL116103  17.735   0.326  14.328  0.1387  0.3101  0.1384
 1373DOPE   GL216104  17.868   0.166  14.222  0.1318 -0.0657 -0.0705
 1373DOPE   C1A16105  17.369   0.238  14.063 -0.0967 -0.2505 -0.1998
 1373DOPE   D2A16106  17.243   0.152  13.650  0.0100 -0.0082  0.1843
 1373DOPE   C3A16107  17.089  -0.174  13.373 -0.2956  0.1493  0.0005
 1373DOPE   C4A16108  17.095  -0.604  13.248 -0.1130 -0.0460 -0.1736
 1373DOPE   C1B16109  18.143   0.446  13.939  0.0952 -0.0634 -0.0747
 1373DOPE   D2B16110  17.925   0.731  13.569 -0.3016 -0.1992 -0.2832
 1373DOPE   C3B16111  17.473   0.627  13.436 -0.3521  0.0502 -0.3234
 1373DOPE   C4B16112  17.137   0.544  13.199 -0.0997 -0.0093 -0.1601
 1374POSM   NC316113  24.079  34.249  13.798  0.2734 -0.3228 -0.0851
 1374POSM   PO416114  24.209  34.454  13.467 -0.0729 -0.2127  0.1150
 1374POSM   AM116115  24.096  34.244  13.284 -0.1782  0.2033 -0.0451
 1374POSM   AM216116  24.072  33.974  13.364 -0.1172 -0.2309 -0.0279
 1374POSM   T1A16117  24.202  34.047  12.851 -0.0039 -0.0449 -0.0113
 1374POSM   C2A16118  24.470  33.833  12.603  0.0833 -0.1201  0.0260
 1374POSM   C3A16119  24.540  33.591  12.258  0.2038 -0.1375  0.0600
 1374POSM   C1B16120  24.275  33.736  13.212 -0.2421 -0.0005  0.2248
 1374POSM   D2B16121  24.536  33.440  12.934  0.0576 -0.0206  0.0878
 1374POSM   C3B16122  24.921  33.696  12.838  0.0512 -0.4196  0.3089
 1374POSM   C4B16123  25.238  33.978  12.847 -0.0368  0.3079 -0.1069
 1375POSM   NC316124  12.375   7.669  15.772  0.0711  0.0241 -0.3185
 1375POSM   PO416125  12.685   7.496  15.541 -0.0029 -0.0550 -0.0252
 1375POSM   AM116126  12.657   7.421  15.198  0.1804 -0.3059 -0.2815
 1375POSM   AM216127  12.639   7.581  14.994 -0.0816 -0.1011 -0.2773
 1375POSM   T1A16128  12.271   7.286  14.895 -0.3353 -0.0428  0.2143
 1375POSM   C2A16129  11.994   7.039  14.595  0.1018  0.0575 -0.2097
 1375POSM   C3A16130  11.720   6.663  14.717 -0.1289 -0.0135  0.1007
 1375POSM   C1B16131  12.667   7.521  14.697  0.1073  0.1461  0.1060
 1375POSM   D2B16132  12.792   7.574  14.267 -0.0705  0.0686  0.2615
 1375POSM   C3B16133  12.517   7.838  13.965  0.0117  0.1307 -0.1263
 1375POSM   C4B16134  12.638   8.098  13.602  0.1837 -0.0038  0.1591
 1376DOPE   NH316135  14.643   2.401  15.708  0.0203 -0.4951 -0.3366
 1376DOPE   PO416136  14.466   2.638  15.625  0.0863  0.2118  0.1466
 1376DOPE   GL116137  14.375   2.689  15.316  0.5054  0.0933 -0.2035
 1376DOPE   GL216138  14.520   2.856  15.091 -0.0825  0.0885  0.0067
 1376DOPE   C1A16139  14.036   2.925  15.122 -0.2573 -0.1920 -0.2084
 1376DOPE   D2A16140  13.802   3.042  14.760 -0.2360 -0.0393 -0.1296
 1376DOPE   C3A16141  14.039   3.176  14.378 -0.2149  0.0956  0.0968
 1376DOPE   C4A16142  14.000   2.988  13.982 -0.2375 -0.2588  0.0653
 1376DOPE   C1B16143  14.445   3.212  14.832 -0.0860  0.2818 -0.1674
 1376DOPE   D2B16144  14.187   3.538  14.752  0.1374  0.2446 -0.3550
 1376DOPE   C3B16145  14.159   3.773  14.359 -0.0798 -0.3369  0.2477
 1376DOPE   C4B16146  14.049   3.514  14.022  0.0681 -0.2503  0.3185
 1377POSM   NC316147  12.520   3.298  16.053 -0.0405 -0.1199 -0.1004
 1377POSM   PO416148  12.919   3.403  16.126 -0.2732 -0.1558 -0.1546
 1377POSM   AM116149  12.947   3.378  15.772 -0.0872 -0.2899 -0.1046
 1377POSM   AM216150  12.798   3.545  15.585  0.1141  0.0155  0.0054
 1377POSM   T1A16151  13.174   3.200  15.400 -0.2587  0.1239 -0.3435
 1377POSM   C2A16152  13.484   2.982  15.109  0.1981  0.1263 -0.0492
 1377POSM   C3A16153  13.423   2.630  14.769  0.1339  0.1728 -0.0401
 1377POSM   C1B16154  12.697   3.378  15.304 -0.1919  0.1271  0.0309
 1377POSM   D2B16155  12.511   3.038  15.084 -0.0929  0.1610  0.2213
 1377POSM   C3B16156  12.392   3.150  14.639  0.4735  0.0627  0.0090
 1377POSM   C4B16157  12.448   3.200  14.203  0.0814  0.1592  0.1915
 1378DOPE   NH316158  15.246  10.346  13.242  0.3000  0.0775  0.1045
 1378DOPE   PO416159  14.952  10.254  13.105 -0.3227 -0.0222 -0.0053
 1378DOPE   GL116160  15.076  10.037  12.744  0.2482 -0.3138  0.2968
 1378DOPE   GL216161  14.789   9.895  12.709  0.1566 -0.1492  0.1388
 1378DOPE   C1A16162  15.080  10.057  12.260 -0.2971 -0.0361 -0.0317
 1378DOPE   D2A16163  15.078   9.831  11.790 -0.1518 -0.4819 -0.1025
 1378DOPE   C3A16164  14.640   9.877  11.651 -0.0550  0.0843  0.0390
 1378DOPE   C4A16165  14.275  10.054  11.388  0.1002 -0.1244 -0.1299
 1378DOPE   C1B16166  14.403   9.729  12.631 -0.3422 -0.0634 -0.0391
 1378DOPE   D2B16167  14.013   9.590  12.840 -0.2677  0.1283  0.1790
 1378DOPE   C3B16168  13.717   9.291  12.549  0.0274  0.3106 -0.1312
 1378DOPE   C4B16169  13.584   8.990  12.200  0.2772  0.4471 -0.0083
 1379POSM   NC316170  11.177   6.972  16.594 -0.1679 -0.1018  0.0044
 1379POSM   PO416171  10.987   7.141  16.286  0.0979 -0.3279 -0.2796
 1379POSM   AM116172  10.759   7.009  16.066  0.4609 -0.1567 -0.0052
 1379POSM   AM216173  10.472   6.957  15.985 -0.1053  0.1833 -0.0645
 1379POSM   T1A16174  10.739   6.879  15.563 -0.1449 -0.4058  0.0810
 1379POSM   C2A16175  10.655   6.656  15.177  0.0001 -0.1982  0.1965
 1379POSM   C3A16176  10.653   6.242  14.900 -0.2276 -0.1706  0.1876
 1379POSM   C1B16177  10.343   7.200  15.789  0.1561 -0.1429  0.0067
 1379POSM   D2B16178  10.222   7.570  15.637  0.1457 -0.2962  0.2203
 1379POSM   C3B16179   9.824   7.595  15.360 -0.0782 -0.2873 -0.4032
 1379POSM   C4B16180   9.431   7.670  15.192 -0.0166 -0.3470 -0.0438
 1380DOPS   CNO16181  24.441   3.203  13.338 -0.5171  0.0672 -0.1630
 1380DOPS   PO416182  24.161   3.129  13.564 -0.1706 -0.2961  0.1028
 1380DOPS   GL116183  24.030   3.088  13.184 -0.1698  0.3826  0.2000
 1380DOPS   GL216184  23.984   2.845  12.939 -0.2937  0.2427  0.1826
 1380DOPS   C1A16185  23.891   3.309  12.790  0.2139 -0.0114  0.1321
 1380DOPS   D2A16186  24.032   3.480  12.384 -0.1152 -0.0781  0.2543
 1380DOPS   C3A16187  24.340   3.285  12.165 -0.0282  0.3986  0.0934
 1380DOPS   C4A16188  24.667   3.067  11.988  0.0360  0.2856  0.0763
 1380DOPS   C1B16189  24.174   2.712  12.557  0.1156  0.1805  0.4595
 1380DOPS   D2B16190  24.580   2.958  12.461  0.3251  0.0956  0.3865
 1380DOPS   C3B16191  24.848   3.316  12.570 -0.1456 -0.0490 -0.1938
 1380DOPS   C4B16192  25.154   3.670  12.487  0.2657 -0.1788  0.0363
 1381DOPC   NC316193  15.422   7.721  14.134 -0.0587  0.1426 -0.3190
 1381DOPC   PO416194  15.186   7.998  13.962 -0.1827 -0.3412 -0.4581
 1381DOPC   GL116195  15.308   7.801  13.676  0.3460 -0.1733 -0.1363
 1381DOPC   GL216196  15.397   7.542  13.643 -0.2120 -0.1573  0.1332
 1381DOPC   C1A16197  15.295   7.907  13.231 -0.0654  0.2109 -0.0135
 1381DOPC   D2A16198  14.869   7.911  13.085  0.1294 -0.0332 -0.3098
 1381DOPC   C3A16199  14.576   8.269  13.046 -0.1493  0.0305  0.1284
 1381DOPC   C4A16200  14.420   8.739  13.099 -0.1551 -0.2609  0.3207
 1381DOPC   C1B16201  15.022   7.502  13.432  0.1085  0.0060 -0.2463
 1381DOPC   D2B16202  14.622   7.496  13.136  0.0882  0.2422  0.1313
 1381DOPC   C3B16203  14.479   7.785  12.785 -0.3405 -0.2565  0.2683
 1381DOPC   C4B16204  14.635   7.752  12.373 -0.2258  0.1748  0.1019
 1382DOPS   CNO16205  10.126  12.183  14.598 -0.0325  0.2815 -0.1144
 1382DOPS   PO416206   9.867  11.961  14.748 -0.0104  0.0789 -0.0770
 1382DOPS   GL116207  10.104  11.629  14.515  0.4935  0.0972  0.0401
 1382DOPS   GL216208   9.877  11.444  14.339 -0.2831  0.1475  0.3428
 1382DOPS   C1A16209  10.320  11.442  14.152  0.0933 -0.1295 -0.2990
 1382DOPS   D2A16210  10.376  11.328  13.740 -0.3143 -0.1251  0.0467
 1382DOPS   C3A16211  10.683  11.291  13.401  0.0027  0.0976 -0.1489
 1382DOPS   C4A16212  10.744  11.242  12.992  0.0978  0.3351  0.0678
 1382DOPS   C1B16213   9.707  11.586  13.905 -0.1526  0.2671 -0.1358
 1382DOPS   D2B16214   9.526  11.479  13.486 -0.1637  0.0596 -0.0122
 1382DOPS   C3B16215   9.555  11.059  13.356 -0.0984  0.0822  0.3358
 1382DOPS   C4B16216   9.353  10.650  13.262 -0.2940  0.0871 -0.1465
 1383DOPE   NH316217  22.097   9.788  13.278 -0.1241  0.1756  0.0177
 1383DOPE   PO416218  22.028  10.037  13.090 -0.1196 -0.2210 -0.0088
 1383DOPE   GL116219  22.108  10.050  12.698 -0.0131 -0.1032 -0.1713
 1383DOPE   GL216220  22.102  10.336  12.634 -0.0173  0.0884  0.0020
 1383DOPE   C1A16221  21.945   9.876  12.326  0.1985  0.0292  0.0495
 1383DOPE   D2A16222  21.720   9.525  12.236 -0.0562  0.2836 -0.2896
 1383DOPE   C3A16223  21.773   9.410  11.805  0.1252 -0.0330 -0.1483
 1383DOPE   C4A16224  21.820   9.141  11.363  0.0362  0.3402  0.1840
 1383DOPE   C1B16225  22.058  10.445  12.180 -0.1515 -0.1838  0.1673
 1383DOPE   D2B16226  22.083  10.535  11.700  0.2358 -0.0083 -0.2280
 1383DOPE   C3B16227  22.090  10.259  11.320 -0.0626 -0.2266  0.1648
 1383DOPE   C4B16228  22.183  10.434  10.906  0.3603  0.2700 -0.1820
 1384DOPC   NC316229  10.893   6.029  16.307  0.0290 -0.1113  0.0559
 1384DOPC   PO416230  11.241   6.220  16.496  0.0936 -0.1603  0.1116
 1384DOPC   GL116231  11.431   6.195  16.086  0.0289  0.0919  0.3277
 1384DOPC   GL216232  11.176   6.244  15.900 -0.0548  0.1072  0.2824
 1384DOPC   C1A16233  11.495   5.824  15.813 -0.1196  0.2179  0.1873
 1384DOPC   D2A16234  11.572   5.647  15.377  0.0828  0.0972 -0.2187
 1384DOPC   C3A16235  11.197   5.524  15.045  0.0673 -0.1990 -0.1388
 1384DOPC   C4A16236  10.875   5.304  14.814 -0.1771 -0.0206  0.1048
 1384DOPC   C1B16237  10.962   5.871  15.779  0.3841  0.1691  0.0360
 1384DOPC   D2B16238  10.838   5.631  15.399 -0.1695  0.1983  0.0153
 1384DOPC   C3B16239  10.612   5.714  14.995 -0.2320  0.0125 -0.0852
 1384DOPC   C4B16240  10.568   5.630  14.551 -0.0947  0.0372 -0.3897
 1385DOPS   CNO16241  11.352   1.726  17.241  0.0067 -0.0389  0.2285
 1385DOPS   PO416242  11.566   1.872  16.955  0.1240 -0.0602  0.1064
 1385DOPS   GL116243  11.531   1.996  16.527  0.0780  0.2572 -0.0803
 1385DOPS   GL216244  11.492   1.770  16.461 -0.0639  0.1247  0.0817
 1385DOPS   C1A16245  11.480   2.365  16.209 -0.0431  0.2253 -0.0124
 1385DOPS   D2A16246  11.416   2.556  15.733  0.1800 -0.0358 -0.1744
 1385DOPS   C3A16247  11.740   2.653  15.439  0.1103  0.0181  0.1734
 1385DOPS   C4A16248  12.152   2.693  15.244 -0.1709  0.0731 -0.0374
 1385DOPS   C1B16249  11.200   1.726  16.114  0.0328 -0.0320 -0.0856
 1385DOPS   D2B16250  11.163   1.765  15.630  0.0783  0.0997  0.0265
 1385DOPS   C3B16251  11.004   1.421  15.349 -0.3511 -0.0039  0.0313
 1385DOPS   C4B16252  10.733   1.159  15.169 -0.0376 -0.1983 -0.1645
 1386DOPC   NC316253  13.788   2.161  15.397 -0.1057 -0.0952 -0.0546
 1386DOPC   PO416254  14.200   2.173  15.426 -0.0077  0.2507  0.3715
 1386DOPC   GL116255  14.276   1.769  15.239  0.1104  0.2751  0.2447
 1386DOPC   GL216256  14.036   1.641  15.344 -0.1122 -0.0188 -0.3497
 1386DOPC   C1A16257  14.232   1.482  14.878 -0.2527 -0.0139 -0.1828
 1386DOPC   D2A16258  14.379   1.220  14.520  0.2797  0.2264  0.1931
 1386DOPC   C3A16259  13.983   1.079  14.238 -0.0296 -0.0326 -0.0871
 1386DOPC   C4A16260  13.961   1.019  13.798 -0.1696 -0.0633 -0.1169
 1386DOPC   C1B16261  13.792   1.756  14.955 -0.0197  0.2663 -0.0251
 1386DOPC   D2B16262  13.564   1.660  14.577 -0.2141 -0.0482 -0.4294
 1386DOPC   C3B16263  13.122   1.793  14.355  0.1384 -0.1836  0.0848
 1386DOPC   C4B16264  12.738   1.894  14.091 -0.2962  0.0875  0.0816
 1387DOPE   NH316265  22.684   9.825  12.816 -0.1971 -0.3887 -0.3105
 1387DOPE   PO416266  22.402   9.739  12.917 -0.1446  0.1707 -0.0176
 1387DOPE   GL116267  22.318   9.669  12.506 -0.2631  0.0267  0.2979
 1387DOPE   GL216268  22.225   9.423  12.490  0.0653 -0.3385 -0.3708
 1387DOPE   C1A16269  22.314   9.597  12.055 -0.2828  0.3751  0.2152
 1387DOPE   D2A16270  22.294   9.446  11.642 -0.1603 -0.1301 -0.1814
 1387DOPE   C3A16271  21.940   9.700  11.418 -0.1278  0.2552 -0.1039
 1387DOPE   C4A16272  21.638  10.003  11.324 -0.2305 -0.2992 -0.0812
 1387DOPE   C1B16273  22.315   9.002  12.653  0.1194 -0.2799  0.2500
 1387DOPE   D2B16274  22.271   8.721  12.320 -0.1669  0.0873  0.0542
 1387DOPE   C3B16275  22.516   8.689  12.013  0.0875  0.2052  0.0289
 1387DOPE   C4B16276  22.965   8.684  11.840  0.0554  0.0958  0.3833
 1388POSM   NC316277  16.286   8.898  13.229  0.0419  0.2375  0.0307
 1388POSM   PO416278  16.577   8.851  13.525  0.1184  0.1976  0.2428
 1388POSM   AM116279  16.746   8.800  13.238 -0.1005  0.2463 -0.1314
 1388POSM   AM216280  16.965   8.614  13.238  0.0516  0.1549  0.0960
 1388POSM   T1A16281  16.689   8.762  12.763 -0.1306  0.1755 -0.2454
 1388POSM   C2A16282  16.311   8.490  12.622 -0.3196  0.2123 -0.2073
 1388POSM   C3A16283  16.171   8.524  12.185 -0.1955 -0.1355  0.2536
 1388POSM   C1B16284  16.835   8.372  13.076  0.1109  0.1512  0.2345
 1388POSM   D2B16285  16.823   8.148  12.641 -0.1916  0.0663 -0.0801
 1388POSM   C3B16286  16.465   8.083  12.421  0.0403 -0.1196 -0.1093
 1388POSM   C4B16287  16.299   7.869  12.012  0.3220 -0.0475  0.0604
 1389DOPE   NH316288  14.290   9.743  14.008 -0.3814  0.0404  0.1349
 1389DOPE   PO416289  13.994   9.694  14.021 -0.3292  0.0248 -0.1977
 1389DOPE   GL116290  13.863   9.684  13.649  0.2168  0.2990  0.3205
 1389DOPE   GL216291  14.122   9.579  13.490  0.2529  0.0016 -0.1652
 1389DOPE   C1A16292  13.819   9.886  13.245  0.1732 -0.1791  0.1276
 1389DOPE   D2A16293  13.632   9.842  12.747 -0.1752  0.2344  0.0408
 1389DOPE   C3A16294  13.858   9.733  12.374 -0.1254 -0.2001  0.0067
 1389DOPE   C4A16295  13.982   9.474  12.022  0.2435 -0.1411  0.2908
 1389DOPE   C1B16296  14.292   9.281  13.192 -0.1603  0.0260 -0.4391
 1389DOPE   D2B16297  14.487   9.274  12.796 -0.0647 -0.3040 -0.1590
 1389DOPE   C3B16298  14.356   9.335  12.342  0.2411  0.2583 -0.3035
 1389DOPE   C4B16299  14.506   9.414  11.913  0.2185 -0.1414 -0.2463
 1390POSM   NC316300  18.158   8.570  13.192 -0.0456  0.1710  0.1494
 1390POSM   PO416301  18.501   8.356  13.280  0.1202 -0.1877 -0.1289
 1390POSM   AM116302  18.477   8.372  12.958  0.1942 -0.2674 -0.2460
 1390POSM   AM216303  18.465   8.511  12.766  0.2712 -0.0190 -0.1454
 1390POSM   T1A16304  18.638   8.095  12.533 -0.0432 -0.0319 -0.0041
 1390POSM   C2A16305  18.546   8.240  12.109  0.0935  0.0213 -0.0037
 1390POSM   C3A16306  18.477   8.197  11.634 -0.3073 -0.1051  0.0648
 1390POSM   C1B16307  18.143   8.573  12.697  0.1921 -0.3318  0.0111
 1390POSM   D2B16308  17.749   8.491  12.521 -0.3881 -0.3298  0.1426
 1390POSM   C3B16309  17.642   8.738  12.165 -0.1509 -0.2512 -0.1054
 1390POSM   C4B16310  17.548   8.857  11.736 -0.3087  0.2250 -0.2269
 1391DOPC   NC316311  19.172   5.333  13.941  0.4021 -0.0216  0.0568
 1391DOPC   PO416312  18.895   5.089  13.879 -0.0395  0.0445 -0.2192
 1391DOPC   GL116313  18.862   5.007  13.567 -0.0279 -0.1145 -0.1862
 1391DOPC   GL216314  18.581   5.093  13.446 -0.0675  0.7349 -0.0963
 1391DOPC   C1A16315  18.810   4.866  13.131  0.4396  0.0880  0.1120
 1391DOPC   D2A16316  19.008   5.122  12.830 -0.0627  0.0774 -0.2623
 1391DOPC   C3A16317  19.027   5.547  12.662 -0.1660  0.2886 -0.1541
 1391DOPC   C4A16318  19.345   5.925  12.672 -0.1200  0.1548 -0.1405
 1391DOPC   C1B16319  18.680   5.462  13.106 -0.3241  0.0167  0.0398
 1391DOPC   D2B16320  18.439   5.727  12.827 -0.0326 -0.0406  0.2509
 1391DOPC   C3B16321  18.108   5.450  12.757 -0.2691 -0.3095 -0.0585
 1391DOPC   C4B16322  18.156   5.145  12.441 -0.2230  0.0128 -0.0196
 1392DOPE   NH316323  17.058   9.144  13.466 -0.3664  0.1485  0.0870
 1392DOPE   PO416324  17.061   9.437  13.359  0.0104  0.2967  0.0941
 1392DOPE   GL116325  16.961   9.540  12.962 -0.3044 -0.1997  0.5478
 1392DOPE   GL216326  17.254   9.697  12.916  0.0245 -0.2149  0.1463
 1392DOPE   C1A16327  16.702   9.393  12.621  0.2657 -0.0240  0.4063
 1392DOPE   D2A16328  16.323   9.519  12.372  0.3410 -0.0175 -0.1856
 1392DOPE   C3A16329  16.374   9.702  11.932 -0.0403  0.0292 -0.0763
 1392DOPE   C4A16330  16.040   9.888  11.809  0.1557 -0.2771 -0.0395
 1392DOPE   C1B16331  17.204   9.442  12.551 -0.0358 -0.1534  0.0932
 1392DOPE   D2B16332  17.422   9.184  12.253 -0.1124  0.0798 -0.0780
 1392DOPE   C3B16333  17.775   9.347  12.004 -0.0128  0.0330  0.0330
 1392DOPE   C4B16334  18.046   9.235  11.605  0.2201 -0.0536  0.0864
 1393POSM   NC316335  18.969   3.136  14.381  0.0514 -0.1766 -0.1572
 1393POSM   PO416336  18.789   2.859  14.169 -0.1509 -0.0002 -0.3154
 1393POSM   AM116337  18.612   2.822  13.885 -0.0870 -0.2492 -0.1439
 1393POSM   AM216338  18.724   2.927  13.640  0.1716  0.2436  0.2129
 1393POSM   T1A16339  18.350   2.619  13.547 -0.2647 -0.2512 -0.0665
 1393POSM   C2A16340  18.449   2.400  13.128  0.2278  0.1885 -0.2986
 1393POSM   C3A16341  18.604   2.106  12.785 -0.0149 -0.0735  0.1762
 1393POSM   C1B16342  18.563   3.132  13.445  0.1865  0.2291  0.1302
 1393POSM   D2B16343  18.223   3.357  13.181 -0.1615 -0.3057 -0.0924
 1393POSM   C3B16344  18.123   3.254  12.715  0.0676 -0.3188  0.0211
 1393POSM   C4B16345  18.253   3.341  12.223 -0.2815  0.2778 -0.1519
 1394DOPE   NH316346  21.178  10.149  12.770 -0.1411 -0.1244  0.3729
 1394DOPE   PO416347  20.968  10.269  12.554 -0.1456 -0.1053  0.1372
 1394DOPE   GL116348  21.215  10.324  12.284  0.0683 -0.2542 -0.2069
 1394DOPE   GL216349  21.075  10.205  12.057 -0.1312 -0.1766  0.0392
 1394DOPE   C1A16350  21.400  10.719  12.136  0.0967 -0.0259  0.0624
 1394DOPE   D2A16351  21.818  10.850  11.983  0.1111  0.0934  0.3080
 1394DOPE   C3A16352  22.012  11.220  12.206 -0.0313 -0.1421 -0.0704
 1394DOPE   C4A16353  22.132  11.632  12.152 -0.1473 -0.3342  0.0542
 1394DOPE   C1B16354  21.147  10.331  11.645 -0.2989  0.0664  0.1790
 1394DOPE   D2B16355  21.505  10.448  11.371  0.1974  0.0022 -0.0359
 1394DOPE   C3B16356  21.717  10.304  10.983  0.2257  0.0554  0.0939
 1394DOPE   C4B16357  21.737  10.016  10.608  0.1192 -0.1925  0.0302
 1395DOPE   NH316358  12.938   5.557  16.038 -0.4774  0.1257 -0.1188
 1395DOPE   PO416359  12.607   5.537  16.013  0.0239  0.0516  0.2346
 1395DOPE   GL116360  12.230   5.567  15.767 -0.2671  0.1388  0.1980
 1395DOPE   GL216361  12.185   5.877  15.667 -0.1924  0.0406 -0.2554
 1395DOPE   C1A16362  11.936   5.315  15.510  0.4364  0.7355  0.0037
 1395DOPE   D2A16363  11.565   5.085  15.404  0.2892 -0.0196  0.1853
 1395DOPE   C3A16364  11.213   5.366  15.572 -0.1901  0.0180  0.3931
 1395DOPE   C4A16365  10.818   5.369  15.793  0.1771 -0.1188 -0.0656
 1395DOPE   C1B16366  12.038   5.840  15.238 -0.1665  0.1185  0.0130
 1395DOPE   D2B16367  11.970   5.828  14.809  0.1020  0.0505 -0.1838
 1395DOPE   C3B16368  11.571   5.772  14.660  0.2904 -0.1151 -0.0678
 1395DOPE   C4B16369  11.185   5.553  14.445  0.3542  0.1596 -0.0848
 1396DOPE   NH316370  19.422   7.421  13.544  0.1144 -0.1531  0.1122
 1396DOPE   PO416371  19.295   7.301  13.248  0.0493 -0.0599  0.3371
 1396DOPE   GL116372  19.155   7.105  12.935  0.2000  0.0041 -0.2683
 1396DOPE   GL216373  19.077   6.894  13.051 -0.2451  0.1358 -0.1990
 1396DOPE   C1A16374  19.342   7.348  12.604 -0.2376  0.0882  0.2184
 1396DOPE   D2A16375  19.169   7.538  12.181  0.2641 -0.0007 -0.0034
 1396DOPE   C3A16376  18.794   7.309  11.985 -0.1831 -0.1418  0.0240
 1396DOPE   C4A16377  18.361   7.358  11.899 -0.3547 -0.2840  0.0837
 1396DOPE   C1B16378  19.179   6.895  12.550 -0.2979  0.1968  0.1973
 1396DOPE   D2B16379  19.376   7.009  12.168  0.0240 -0.4182  0.0593
 1396DOPE   C3B16380  19.332   7.202  11.789  0.0177  0.1051  0.0246
 1396DOPE   C4B16381  19.508   7.317  11.380  0.1518 -0.1312 -0.0659
 1397DOPE   NH316382  13.369   2.274  16.141  0.0804  0.0746  0.1243
 1397DOPE   PO416383  13.511   2.258  15.847 -0.1783  0.0913 -0.2483
 1397DOPE   GL116384  13.369   2.292  15.525 -0.0202  0.3373  0.2088
 1397DOPE   GL216385  13.422   2.560  15.366  0.0372  0.0562 -0.2239
 1397DOPE   C1A16386  13.008   2.238  15.250 -0.1177 -0.1561  0.0131
 1397DOPE   D2A16387  12.883   2.227  14.792 -0.0434  0.0097 -0.0145
 1397DOPE   C3A16388  12.713   2.371  14.357  0.3441 -0.0409  0.3070
 1397DOPE   C4A16389  12.559   2.693  14.083  0.1288 -0.0287  0.2469
 1397DOPE   C1B16390  13.044   2.774  15.154 -0.1448 -0.1129 -0.4182
 1397DOPE   D2B16391  12.861   2.706  14.768  0.3113 -0.1373  0.3775
 1397DOPE   C3B16392  12.406   2.679  14.748 -0.1316 -0.0534  0.3318
 1397DOPE   C4B16393  12.181   2.460  14.445 -0.0764  0.1262 -0.3287
 1398POSM   NC316394  21.880   5.754  13.683 -0.0030  0.0665 -0.0519
 1398POSM   PO416395  21.594   5.557  13.852  0.0155  0.2057 -0.4252
 1398POSM   AM116396  21.530   5.380  13.603 -0.0156 -0.0072 -0.2490
 1398POSM   AM216397  21.578   5.489  13.342  0.2583 -0.0966 -0.2757
 1398POSM   T1A16398  21.740   5.045  13.245  0.1814 -0.0321 -0.1058
 1398POSM   C2A16399  22.014   4.922  12.876  0.0040 -0.0076  0.1980
 1398POSM   C3A16400  22.442   4.737  13.001  0.2068  0.1231  0.0672
 1398POSM   C1B16401  21.646   5.480  13.039  0.3302 -0.3806  0.2877
 1398POSM   D2B16402  21.491   5.493  12.605 -0.2763  0.0593  0.0104
 1398POSM   C3B16403  21.512   5.754  12.299  0.1250  0.1511 -0.2635
 1398POSM   C4B16404  21.721   5.889  11.897 -0.2613  0.0285 -0.0460
 1399DOPE   NH316405  18.803   9.609  12.894  0.1987 -0.0799 -0.0318
 1399DOPE   PO416406  19.101   9.516  12.980 -0.0521  0.0976  0.0460
 1399DOPE   GL116407  19.225   9.276  12.672 -0.1648 -0.3280  0.0757
 1399DOPE   GL216408  19.516   9.113  12.661 -0.2538 -0.1179 -0.0807
 1399DOPE   C1A16409  19.157   8.990  12.317  0.2278 -0.1693 -0.0541
 1399DOPE   D2A16410  18.873   8.988  11.958  0.0144  0.1738  0.3379
 1399DOPE   C3A16411  18.933   9.023  11.509  0.1159 -0.0948  0.0414
 1399DOPE   C4A16412  19.194   9.221  11.257 -0.1283  0.2444 -0.0811
 1399DOPE   C1B16413  19.474   9.341  12.257 -0.2595  0.2763  0.1422
 1399DOPE   D2B16414  19.345   9.302  11.820 -0.2076  0.4407 -0.1257
 1399DOPE   C3B16415  19.586   9.704  11.649 -0.0024  0.1246  0.1444
 1399DOPE   C4B16416  19.955   9.985  11.500 -0.0446 -0.0400 -0.1708
 1400DOPE   NH316417  19.515   9.816  12.793  0.0422 -0.3289  0.0650
 1400DOPE   PO416418  19.434  10.120  12.633  0.1072  0.1511 -0.0765
 1400DOPE   GL116419  19.541  10.003  12.274 -0.0646  0.0235  0.4200
 1400DOPE   GL216420  19.359   9.903  12.091 -0.1257  0.1627 -0.0846
 1400DOPE   C1A16421  19.690  10.172  11.868  0.4599  0.3098 -0.2497
 1400DOPE   D2A16422  19.647  10.443  11.508 -0.1507 -0.1461 -0.0105
 1400DOPE   C3A16423  20.005  10.421  11.181  0.1621 -0.0661 -0.0371
 1400DOPE   C4A16424  19.985  10.357  10.736  0.1082  0.1330 -0.3204
 1400DOPE   C1B16425  19.153  10.125  11.712 -0.1341  0.0164 -0.1558
 1400DOPE   D2B16426  19.198  10.303  11.283  0.0164 -0.3082  0.3385
 1400DOPE   C3B16427  19.492  10.415  10.940 -0.2134  0.1004  0.0787
 1400DOPE   C4B16428  19.422  10.739  10.645 -0.3016  0.1849  0.4695
 1401POSM   NC316429  19.562   3.730  13.903 -0.0744 -0.0742 -0.4711
 1401POSM   PO416430  19.721   4.067  13.976 -0.0033  0.1137 -0.3972
 1401POSM   AM116431  19.823   4.134  13.689 -0.2215 -0.1924  0.1869
 1401POSM   AM216432  20.027   4.272  13.515  0.0620  0.1461 -0.2556
 1401POSM   T1A16433  19.635   4.413  13.285 -0.1926 -0.1612 -0.0099
 1401POSM   C2A16434  19.740   4.445  12.850 -0.3112  0.2185  0.1230
 1401POSM   C3A16435  19.575   4.252  12.464 -0.1217  0.2024 -0.2712
 1401POSM   C1B16436  19.954   4.077  13.216  0.0083  0.1924  0.0048
 1401POSM   D2B16437  19.991   3.770  12.786 -0.0441 -0.0108  0.1855
 1401POSM   C3B16438  19.625   3.750  12.465  0.0761  0.3181 -0.0223
 1401POSM   C4B16439  19.514   3.893  12.022  0.3185 -0.1478 -0.1112
 1402DOPC   NC316440  14.251   6.840  14.380  0.0369  0.0224  0.1797
 1402DOPC   PO416441  14.389   7.141  14.593  0.1049 -0.2821 -0.0094
 1402DOPC   GL116442  14.151   7.294  14.346  0.2118 -0.1081 -0.1431
 1402DOPC   GL216443  14.046   7.557  14.150  0.1583  0.0201  0.3349
 1402DOPC   C1A16444  14.066   7.168  13.904  0.2743 -0.0395  0.1366
 1402DOPC   D2A16445  13.830   6.984  13.568 -0.0785 -0.0257 -0.1880
 1402DOPC   C3A16446  13.775   6.580  13.460 -0.1052 -0.0074  0.0389
 1402DOPC   C4A16447  13.829   6.167  13.506  0.2011  0.2231 -0.0401
 1402DOPC   C1B16448  13.628   7.636  14.399  0.0408  0.1174  0.1724
 1402DOPC   D2B16449  13.245   7.690  14.258 -0.2631  0.3894  0.0805
 1402DOPC   C3B16450  13.058   7.825  13.841 -0.0743  0.1565  0.1192
 1402DOPC   C4B16451  12.965   7.595  13.423 -0.1198 -0.0381 -0.0438
 1403DOPE   NH316452  15.060   3.727  15.424  0.0938 -0.1733 -0.1441
 1403DOPE   PO416453  15.115   3.981  15.324  0.1197  0.0456  0.5009
 1403DOPE   GL116454  14.890   3.813  14.985 -0.0948 -0.0057 -0.2049
 1403DOPE   GL216455  15.038   3.992  14.787  0.3252  0.2361 -0.3602
 1403DOPE   C1A16456  14.841   3.547  14.635  0.1141  0.1301 -0.1349
 1403DOPE   D2A16457  14.522   3.347  14.370 -0.2659  0.0553 -0.3412
 1403DOPE   C3A16458  14.500   3.084  14.073 -0.1138  0.0973  0.1506
 1403DOPE   C4A16459  14.531   2.961  13.629  0.1141 -0.2174 -0.1890
 1403DOPE   C1B16460  14.607   4.020  14.619  0.0034 -0.3914 -0.4642
 1403DOPE   D2B16461  14.639   3.886  14.220 -0.0023 -0.3205  0.4717
 1403DOPE   C3B16462  14.845   4.059  13.873 -0.0742  0.1438 -0.2185
 1403DOPE   C4B16463  14.935   4.267  13.455 -0.2400  0.1023  0.0203
 1404DOPC   NC316464  21.356   8.212  13.341 -0.1490 -0.1275 -0.0896
 1404DOPC   PO416465  21.701   8.041  13.414  0.0232 -0.1231 -0.1624
 1404DOPC   GL116466  21.780   7.934  13.022 -0.1164 -0.1844 -0.3456
 1404DOPC   GL216467  21.993   7.927  12.866  0.0705 -0.2025 -0.1352
 1404DOPC   C1A16468  21.481   8.096  12.715 -0.0943  0.2126 -0.1632
 1404DOPC   D2A16469  21.401   8.206  12.294 -0.1014  0.1686  0.0608
 1404DOPC   C3A16470  21.630   8.159  11.886 -0.3000 -0.1893 -0.0707
 1404DOPC   C4A16471  21.687   8.472  11.521  0.2303  0.0920  0.1987
 1404DOPC   C1B16472  21.790   7.602  12.713 -0.0511 -0.3027  0.0102
 1404DOPC   D2B16473  21.403   7.323  12.721 -0.0338  0.1727  0.1252
 1404DOPC   C3B16474  21.305   6.924  12.503  0.0924  0.1368  0.5155
 1404DOPC   C4B16475  21.173   6.595  12.285  0.0022 -0.0165 -0.0965
 1405POSM   NC316476  14.092   1.644  16.142 -0.2367 -0.2094 -0.3324
 1405POSM   PO416477  14.316   1.396  15.862  0.1025  0.0091 -0.0137
 1405POSM   AM116478  14.249   1.162  15.610 -0.3019  0.2289  0.0727
 1405POSM   AM216479  14.034   1.016  15.501  0.0625 -0.0626 -0.1943
 1405POSM   T1A16480  14.300   1.011  15.116 -0.2308 -0.2599  0.5232
 1405POSM   C2A16481  14.111   0.868  14.753 -0.1139  0.0720  0.0060
 1405POSM   C3A16482  14.264   0.646  14.399 -0.1578 -0.3797 -0.1573
 1405POSM   C1B16483  13.797   1.190  15.286 -0.0139 -0.0273 -0.0466
 1405POSM   D2B16484  13.433   1.302  15.044  0.0615  0.1259 -0.2042
 1405POSM   C3B16485  13.226   1.301  14.620  0.1729 -0.1625 -0.1334
 1405POSM   C4B16486  13.507   1.212  14.294  0.2602  0.3402 -0.0256
 1406DOPE   NH316487  18.783   4.007  13.948  0.0600  0.3397 -0.0382
 1406DOPE   PO416488  18.582   3.741  14.079 -0.2183 -0.0975 -0.0590
 1406DOPE   GL116489  18.571   3.636  13.732 -0.2472 -0.3042 -0.2794
 1406DOPE   GL216490  18.341   3.478  13.687 -0.0118 -0.1274 -0.0475
 1406DOPE   C1A16491  18.637   3.645  13.249 -0.1226  0.2813 -0.3087
 1406DOPE   D2A16492  18.484   3.582  12.823  0.0845  0.1586 -0.2628
 1406DOPE   C3A16493  18.725   3.686  12.460  0.2474 -0.1996  0.3591
 1406DOPE   C4A16494  18.957   3.809  12.077  0.2652 -0.3475  0.0038
 1406DOPE   C1B16495  17.950   3.682  13.598 -0.2170 -0.1273 -0.1516
 1406DOPE   D2B16496  17.609   3.890  13.396  0.5303  0.2356 -0.3095
 1406DOPE   C3B16497  17.275   3.584  13.299 -0.2585 -0.1247 -0.1463
 1406DOPE   C4B16498  16.901   3.361  13.445  0.1384 -0.2298  0.2434
 1407DOPE   NH316499  22.050   4.008  14.187 -0.1147  0.1746 -0.2926
 1407DOPE   PO416500  21.864   4.129  13.929 -0.0409 -0.0667 -0.0483
 1407DOPE   GL116501  21.765   4.254  13.651 -0.1789 -0.1245  0.0748
 1407DOPE   GL216502  21.554   4.445  13.541  0.2149 -0.1235 -0.0438
 1407DOPE   C1A16503  21.729   4.122  13.196 -0.1933  0.2155  0.0265
 1407DOPE   D2A16504  21.705   4.293  12.804  0.1216  0.0817  0.0754
 1407DOPE   C3A16505  21.831   4.443  12.379 -0.2923  0.0779  0.1117
 1407DOPE   C4A16506  21.814   4.696  11.960  0.0688 -0.1653  0.0835
 1407DOPE   C1B16507  21.516   4.617  13.135 -0.3153  0.0407  0.2455
 1407DOPE   D2B16508  21.524   4.974  12.849  0.0562 -0.1654  0.0300
 1407DOPE   C3B16509  21.569   4.941  12.368 -0.1545 -0.2337 -0.3931
 1407DOPE   C4B16510  21.461   5.257  12.087 -0.0392 -0.0795 -0.0210
 1408POSM   NC316511  14.562   1.400  15.296 -0.3470 -0.0494 -0.1665
 1408POSM   PO416512  14.935   1.591  15.318 -0.0259 -0.0985  0.0839
 1408POSM   AM116513  14.875   1.646  15.015 -0.0776 -0.0765 -0.3836
 1408POSM   AM216514  14.686   1.767  14.834 -0.3323 -0.0504 -0.3308
 1408POSM   T1A16515  14.868   1.450  14.527 -0.2452  0.0237  0.1158
 1408POSM   C2A16516  15.108   1.475  14.124  0.1893  0.2131  0.0563
 1408POSM   C3A16517  15.182   1.216  13.748 -0.0226 -0.0474 -0.3111
 1408POSM   C1B16518  14.501   1.744  14.607  0.3172  0.1895  0.2794
 1408POSM   D2B16519  14.515   1.565  14.174  0.0208  0.1523 -0.1264
 1408POSM   C3B16520  14.060   1.620  13.911  0.2791 -0.0869 -0.2244
 1408POSM   C4B16521  13.620   1.588  14.048  0.1077 -0.1679  0.0388
 1409DOPS   CNO16522  19.999   3.659  13.665  0.0107  0.0860  0.1402
 1409DOPS   PO416523  19.774   3.348  13.661 -0.1008  0.0432  0.0930
 1409DOPS   GL116524  19.432   3.470  13.416  0.3810  0.0818  0.1186
 1409DOPS   GL216525  19.645   3.653  13.256  0.1805  0.0454  0.0119
 1409DOPS   C1A16526  19.120   3.684  13.109 -0.0909  0.1115  0.2431
 1409DOPS   D2A16527  18.804   3.992  12.840 -0.0291  0.1693  0.1246
 1409DOPS   C3A16528  18.382   4.061  12.835  0.1793  0.0574  0.1412
 1409DOPS   C4A16529  17.948   4.259  12.699 -0.1925 -0.0417  0.0385
 1409DOPS   C1B16530  19.463   3.999  12.933 -0.2655 -0.1358  0.5775
 1409DOPS   D2B16531  19.171   3.972  12.535 -0.0335 -0.0707 -0.1109
 1409DOPS   C3B16532  19.130   4.293  12.194 -0.0083  0.1381  0.1364
 1409DOPS   C4B16533  18.960   4.695  12.155 -0.0126 -0.3393 -0.2062
 1410DOPC   NC316534  14.028  10.413  13.343  0.1209  0.0028 -0.3655
 1410DOPC   PO416535  14.224  10.709  13.460  0.0569  0.0358 -0.3310
 1410DOPC   GL116536  13.957  10.904  13.155 -0.3703 -0.0265 -0.0082
 1410DOPC   GL216537  14.062  11.123  13.012  0.4384  0.2175  0.1751
 1410DOPC   C1A16538  13.917  10.598  12.901 -0.0137  0.2816 -0.1658
 1410DOPC   D2A16539  13.730  10.325  12.625 -0.3889 -0.1556 -0.1324
 1410DOPC   C3A16540  13.365  10.556  12.669  0.0731  0.1857  0.3188
 1410DOPC   C4A16541  13.099  10.770  12.919 -0.3673  0.1825 -0.0888
 1410DOPC   C1B16542  14.134  10.931  12.597 -0.0727  0.2305 -0.1324
 1410DOPC   D2B16543  14.452  10.738  12.264  0.0538 -0.1239  0.1168
 1410DOPC   C3B16544  14.536  10.672  11.870 -0.0790 -0.0018  0.2088
 1410DOPC   C4B16545  14.619  10.560  11.481 -0.0039  0.2619 -0.0641
 1411POSM   NC316546  16.894   5.114  14.372  0.1671  0.0488 -0.1050
 1411POSM   PO416547  17.211   4.922  14.468  0.0225  0.0401  0.0650
 1411POSM   AM116548  17.202   4.838  14.109 -0.0710 -0.0050 -0.0829
 1411POSM   AM216549  16.932   4.850  13.964  0.2593  0.0938  0.0229
 1411POSM   T1A16550  17.289   4.973  13.651 -0.1487  0.3248 -0.1047
 1411POSM   C2A16551  17.440   5.012  13.215  0.0963 -0.2434 -0.2828
 1411POSM   C3A16552  17.697   5.105  12.795 -0.1924  0.3664  0.4695
 1411POSM   C1B16553  16.985   4.604  13.745  0.1124 -0.1195  0.0059
 1411POSM   D2B16554  16.772   4.333  13.497  0.0365 -0.3006  0.3667
 1411POSM   C3B16555  16.572   4.476  13.094  0.4215  0.1965  0.3056
 1411POSM   C4B16556  16.463   4.655  12.658  0.0848 -0.0162 -0.0697
 1412DOPE   NH316557  19.295   2.356  14.060  0.0146  0.1465 -0.0274
 1412DOPE   PO416558  19.021   2.442  14.274 -0.1582  0.3367  0.2301
 1412DOPE   GL116559  18.899   2.187  13.960 -0.0017 -0.2082  0.4216
 1412DOPE   GL216560  18.915   2.453  13.778 -0.2395  0.2142 -0.2740
 1412DOPE   C1A16561  18.609   2.117  13.609  0.2713 -0.1774 -0.1333
 1412DOPE   D2A16562  18.156   2.184  13.459  0.1318 -0.1183 -0.2523
 1412DOPE   C3A16563  17.944   2.406  13.093 -0.1764  0.1269  0.4215
 1412DOPE   C4A16564  18.147   2.596  12.706  0.0579 -0.0393  0.2047
 1412DOPE   C1B16565  18.844   2.478  13.321 -0.1221  0.0287 -0.2356
 1412DOPE   D2B16566  18.884   2.564  12.860 -0.0788  0.2880  0.1909
 1412DOPE   C3B16567  18.541   2.878  12.948 -0.0574 -0.1474  0.1395
 1412DOPE   C4B16568  18.037   2.907  13.075  0.1026 -0.2723  0.0169
 1413DOPS   CNO16569  19.260   1.194  14.495  0.0058 -0.0209  0.0335
 1413DOPS   PO416570  19.022   0.937  14.345 -0.2711  0.0166  0.0631
 1413DOPS   GL116571  18.909   0.904  13.968  0.3402  0.0672 -0.2230
 1413DOPS   GL216572  18.685   0.708  13.910  0.0686 -0.0198 -0.3363
 1413DOPS   C1A16573  18.902   1.028  13.521  0.0453  0.0922 -0.1544
 1413DOPS   D2A16574  19.075   1.119  13.087 -0.0485  0.1759  0.3713
 1413DOPS   C3A16575  18.924   0.879  12.695  0.1451 -0.0471  0.2173
 1413DOPS   C4A16576  18.910   0.903  12.221  0.0399 -0.1130 -0.0499
 1413DOPS   C1B16577  18.486   0.822  13.498  0.3285  0.0402  0.0585
 1413DOPS   D2B16578  18.446   0.928  13.056 -0.0517 -0.0000 -0.3881
 1413DOPS   C3B16579  18.419   0.962  12.629 -0.2060  0.0423 -0.0045
 1413DOPS   C4B16580  18.454   1.134  12.226 -0.2701  0.0296 -0.1014
 1414DOPS   CNO16581  18.114   9.057  13.407 -0.0095  0.0322 -0.3040
 1414DOPS   PO416582  17.792   9.109  13.276  0.0177 -0.0239 -0.1274
 1414DOPS   GL116583  17.875   9.052  12.897 -0.2541 -0.0216 -0.5122
 1414DOPS   GL216584  17.772   8.783  12.908  0.0936  0.2569  0.0515
 1414DOPS   C1A16585  17.942   9.160  12.463 -0.2356  0.0423  0.0179
 1414DOPS   D2A16586  18.086   8.986  12.068 -0.0166 -0.1281 -0.1910
 1414DOPS   C3A16587  18.023   8.650  11.752  0.3483 -0.0986 -0.0686
 1414DOPS   C4A16588  17.993   8.202  11.807  0.2410 -0.4221 -0.0655
 1414DOPS   C1B16589  17.389   8.900  12.648 -0.2101  0.1256 -0.3774
 1414DOPS   D2B16590  16.963   8.986  12.419  0.0079 -0.1166  0.1309
 1414DOPS   C3B16591  17.103   8.823  11.985  0.0243  0.0586 -0.1070
 1414DOPS   C4B16592  17.159   8.574  11.564  0.0032 -0.2017 -0.0482
 1415DOPE   NH316593  22.918   0.936  13.340 -0.3848 -0.1353 -0.1645
 1415DOPE   PO416594  23.127   1.120  13.510  0.1827 -0.0201  0.2108
 1415DOPE   GL116595  23.194   1.303  13.177 -0.0118  0.1723  0.0160
 1415DOPE   GL216596  23.468   1.372  13.250  0.1926  0.0192 -0.0268
 1415DOPE   C1A16597  23.315   1.656  12.886  0.3603  0.0879  0.1244
 1415DOPE   D2A16598  23.649   1.969  12.817  0.1060  0.1027 -0.2633
 1415DOPE   C3A16599  24.097   1.919  12.831 -0.0544 -0.1453 -0.1232
 1415DOPE   C4A16600  24.428   1.676  12.600 -0.1734 -0.1227 -0.1988
 1415DOPE   C1B16601  23.799   1.563  13.027 -0.3143  0.0064 -0.3981
 1415DOPE   D2B16602  23.969   1.423  12.600  0.1393  0.0282 -0.2018
 1415DOPE   C3B16603  24.356   1.214  12.585 -0.2437 -0.0356  0.0038
 1415DOPE   C4B16604  24.705   0.920  12.523 -0.0054 -0.0854 -0.2830
 1416DOPC   NC316605  18.706   1.311  14.285 -0.0929  0.2632 -0.0234
 1416DOPC   PO416606  19.049   1.478  14.177 -0.2415  0.2824 -0.0373
 1416DOPC   GL116607  18.974   1.290  13.866 -0.3681  0.0628  0.1639
 1416DOPC   GL216608  19.209   1.289  13.736  0.1311 -0.0702  0.1177
 1416DOPC   C1A16609  18.540   1.395  13.694 -0.0482 -0.1863  0.0779
 1416DOPC   D2A16610  18.243   1.706  13.524 -0.1086 -0.3369  0.0944
 1416DOPC   C3A16611  18.293   1.854  13.100 -0.2874 -0.1412  0.1710
 1416DOPC   C4A16612  18.205   1.870  12.659 -0.3672  0.0131  0.2307
 1416DOPC   C1B16613  19.297   1.515  13.367  0.4816 -0.1343  0.0561
 1416DOPC   D2B16614  19.277   1.619  12.928  0.1232 -0.0494  0.3809
 1416DOPC   C3B16615  19.643   1.651  12.688  0.1417 -0.1690  0.2223
 1416DOPC   C4B16616  19.854   1.930  12.354  0.1678 -0.1038  0.0031
 1417DOPS   CNO16617  21.386   5.949  13.646  0.2299 -0.0679  0.0801
 1417DOPS   PO416618  21.675   6.170  13.576 -0.1787 -0.0702  0.0705
 1417DOPS   GL116619  21.636   5.951  13.273  0.2537 -0.1442  0.1992
 1417DOPS   GL216620  21.950   5.972  13.182  0.0429  0.3303 -0.0392
 1417DOPS   C1A16621  21.682   5.929  12.790  0.1407  0.0019  0.3792
 1417DOPS   D2A16622  21.997   5.935  12.390 -0.1206 -0.1309 -0.0599
 1417DOPS   C3A16623  22.437   6.018  12.262  0.0176  0.0072 -0.2541
 1417DOPS   C4A16624  22.754   5.705  12.191  0.0704  0.1416 -0.0057
 1417DOPS   C1B16625  21.982   6.337  12.852 -0.1341  0.1181 -0.1987
 1417DOPS   D2B16626  22.170   6.470  12.407 -0.2444 -0.1607  0.1131
 1417DOPS   C3B16627  22.585   6.750  12.304 -0.0485  0.3276 -0.0564
 1417DOPS   C4B16628  22.969   6.822  11.969  0.1767  0.2229  0.1055
 1418DOPE   NH316629  12.785   9.818  14.110  0.4200 -0.1132  0.1582
 1418DOPE   PO416630  12.885  10.138  14.054  0.0551  0.0691 -0.0101
 1418DOPE   GL116631  12.674  10.063  13.663  0.0448 -0.0476  0.1135
 1418DOPE   GL216632  12.457  10.131  13.524  0.1501  0.0365 -0.1433
 1418DOPE   C1A16633  12.781   9.904  13.253  0.0917  0.0243  0.1274
 1418DOPE   D2A16634  12.959   9.896  12.800  0.1247  0.1732  0.0262
 1418DOPE   C3A16635  13.201  10.125  12.509  0.0801  0.2576  0.2528
 1418DOPE   C4A16636  13.502  10.283  12.147  0.1013 -0.0264  0.0752
 1418DOPE   C1B16637  12.273   9.980  13.155  0.2117 -0.1895  0.0980
 1418DOPE   D2B16638  12.053  10.292  12.913  0.0582 -0.1665  0.0752
 1418DOPE   C3B16639  12.423  10.286  12.663  0.1657 -0.2774 -0.0485
 1418DOPE   C4B16640  12.822  10.431  12.632  0.0822 -0.0604  0.1010
 1419DOPE   NH316641  19.847   8.416  13.179 -0.0875  0.0837  0.3550
 1419DOPE   PO416642  19.805   8.126  13.060 -0.1944  0.1336  0.0026
 1419DOPE   GL116643  19.764   8.057  12.700  0.3366 -0.0579  0.2118
 1419DOPE   GL216644  20.011   8.179  12.583 -0.1411 -0.1012 -0.0229
 1419DOPE   C1A16645  19.495   8.126  12.315  0.0067  0.1143 -0.0091
 1419DOPE   D2A16646  19.344   8.453  11.980  0.1259 -0.0786  0.0593
 1419DOPE   C3A16647  18.875   8.513  11.893 -0.0356 -0.0046  0.2108
 1419DOPE   C4A16648  18.480   8.751  11.897 -0.0560 -0.2138  0.3317
 1419DOPE   C1B16649  19.954   8.184  12.165 -0.0645  0.1853  0.2543
 1419DOPE   D2B16650  19.645   8.099  11.753 -0.0258 -0.0875  0.0471
 1419DOPE   C3B16651  19.358   7.802  11.796  0.4442  0.0150 -0.0509
 1419DOPE   C4B16652  19.022   7.584  11.590  0.0288 -0.0639 -0.1742
 1420DOPE   NH316653  19.390   4.403  13.769  0.2798  0.0381 -0.0792
 1420DOPE   PO416654  19.225   4.165  13.870 -0.1426 -0.0625  0.1504
 1420DOPE   GL116655  19.083   4.209  13.495  0.5910 -0.0343 -0.2363
 1420DOPE   GL216656  18.866   4.061  13.414  0.0304 -0.2217  0.2197
 1420DOPE   C1A16657  19.172   4.424  13.081 -0.0883 -0.2308 -0.0725
 1420DOPE   D2A16658  18.987   4.583  12.715  0.0902  0.1504  0.3991
 1420DOPE   C3A16659  18.693   4.358  12.415  0.0828  0.1410  0.1130
 1420DOPE   C4A16660  18.348   4.045  12.348  0.1774  0.0493 -0.0705
 1420DOPE   C1B16661  18.674   4.358  13.121 -0.0662 -0.2076  0.1851
 1420DOPE   D2B16662  18.430   4.591  12.825  0.1799 -0.1289  0.0483
 1420DOPE   C3B16663  18.601   4.857  12.491  0.0442 -0.3404 -0.0968
 1420DOPE   C4B16664  18.494   4.999  12.068 -0.1308 -0.1197  0.0960
 1421DOPC   NC316665  23.890  12.325  12.824 -0.4720  0.1902 -0.0758
 1421DOPC   PO416666  24.252  12.293  12.993  0.2049 -0.0260 -0.1115
 1421DOPC   GL116667  24.597  12.199  12.756  0.2307  0.0989  0.0019
 1421DOPC   GL216668  24.459  12.052  12.592  0.0068  0.0829 -0.0099
 1421DOPC   C1A16669  24.851  12.323  12.448 -0.0001 -0.1596  0.3091
 1421DOPC   D2A16670  25.152  12.621  12.222 -0.0393 -0.4116  0.4037
 1421DOPC   C3A16671  24.761  12.802  11.959  0.2213  0.2793 -0.1587
 1421DOPC   C4A16672  24.597  12.946  11.570  0.1726 -0.2994 -0.2418
 1421DOPC   C1B16673  24.066  12.112  12.384 -0.0488  0.0112  0.0799
 1421DOPC   D2B16674  24.148  11.850  11.992  0.0773 -0.0549 -0.2955
 1421DOPC   C3B16675  23.854  11.558  11.822 -0.4578  0.1278 -0.3854
 1421DOPC   C4B16676  23.970  11.490  11.374 -0.1761  0.1334 -0.1607
 1422POSM   NC316677  11.877   6.353  16.253 -0.0066 -0.0225  0.1125
 1422POSM   PO416678  12.235   6.424  16.138  0.0095 -0.4820  0.0030
 1422POSM   AM116679  12.049   6.471  15.861 -0.0851  0.3327  0.0508
 1422POSM   AM216680  11.821   6.295  15.775 -0.1204 -0.0676  0.3210
 1422POSM   T1A16681  12.020   6.362  15.343  0.3887 -0.2744  0.1152
 1422POSM   C2A16682  12.049   6.341  14.889 -0.1683  0.1620  0.0326
 1422POSM   C3A16683  11.891   6.247  14.437 -0.1778  0.0537  0.3117
 1422POSM   C1B16684  11.595   6.211  15.542 -0.1747  0.0656  0.0431
 1422POSM   D2B16685  11.223   6.073  15.394  0.1804  0.1728  0.1590
 1422POSM   C3B16686  11.105   6.329  15.090 -0.0069 -0.1017 -0.3038
 1422POSM   C4B16687  11.121   6.675  14.815 -0.2524 -0.0341 -0.2771
 1423POSM   NC316688   9.903   9.058  16.033 -0.0656 -0.0496 -0.0770
 1423POSM   PO416689  10.105   9.114  15.681 -0.4340 -0.1813  0.2695
 1423POSM   AM116690  10.267   9.143  15.405  0.0265 -0.0107 -0.4177
 1423POSM   AM216691  10.439   9.057  15.220  0.2731  0.0914 -0.1130
 1423POSM   T1A16692  10.064   9.289  14.990 -0.2683  0.3219  0.1491
 1423POSM   C2A16693   9.856   9.254  14.534  0.0570  0.1343 -0.2337
 1423POSM   C3A16694   9.474   9.157  14.333  0.0374 -0.0202 -0.0471
 1423POSM   C1B16695  10.521   9.134  14.870 -0.0925  0.1908  0.1849
 1423POSM   D2B16696  10.622   9.301  14.410  0.2661  0.2202 -0.5895
 1423POSM   C3B16697  10.223   9.240  14.175  0.1368 -0.1276 -0.2048
 1423POSM   C4B16698   9.815   9.329  13.920  0.2335 -0.0133  0.0466
 1424DOPC   NC316699  15.957   1.983  14.617  0.0132  0.0936 -0.0606
 1424DOPC   PO416700  16.014   2.333  14.797 -0.1515  0.2018  0.0448
 1424DOPC   GL116701  15.640   2.275  14.462 -0.0522 -0.0302 -0.2788
 1424DOPC   GL216702  15.434   2.263  14.622 -0.2790 -0.0487  0.2831
 1424DOPC   C1A16703  15.937   2.116  14.135  0.0581 -0.0908 -0.1825
 1424DOPC   D2A16704  15.831   1.748  13.853  0.5152  0.1848 -0.0816
 1424DOPC   C3A16705  15.417   1.697  13.562 -0.0797  0.0066  0.0295
 1424DOPC   C4A16706  15.394   1.952  13.134 -0.4036  0.1093  0.1402
 1424DOPC   C1B16707  15.206   2.360  14.244 -0.0847  0.0777  0.0409
 1424DOPC   D2B16708  14.905   2.538  13.880 -0.1535 -0.2740  0.3114
 1424DOPC   C3B16709  15.121   2.603  13.453  0.1449  0.2106  0.0615
 1424DOPC   C4B16710  15.096   2.768  13.051 -0.2344  0.2944  0.0786
 1425DOPC   NC316711  17.302   6.163  13.821 -0.1041  0.0927 -0.1125
 1425DOPC   PO416712  17.378   5.811  14.024  0.0348 -0.3911  0.2821
 1425DOPC   GL116713  17.384   5.662  13.663  0.4950 -0.2975 -0.0945
 1425DOPC   GL216714  17.535   5.385  13.632 -0.2285 -0.0687 -0.1491
 1425DOPC   C1A16715  17.036   5.368  13.561 -0.0897 -0.0362 -0.2117
 1425DOPC   D2A16716  16.598   5.508  13.485 -0.0716  0.0468 -0.1205
 1425DOPC   C3A16717  16.538   5.608  13.064  0.0901  0.1478  0.0621
 1425DOPC   C4A16718  16.615   5.395  12.654  0.1034 -0.1346  0.1524
 1425DOPC   C1B16719  17.638   5.508  13.230 -0.0178 -0.2150 -0.0379
 1425DOPC   D2B16720  17.490   5.708  12.862 -0.1969  0.0694 -0.0771
 1425DOPC   C3B16721  17.744   5.519  12.474  0.3383  0.2693 -0.1857
 1425DOPC   C4B16722  17.703   5.495  11.999 -0.1400  0.0548 -0.2249
 1426DOPS   CNO16723  11.655   8.503  15.893  0.1273 -0.0156 -0.4367
 1426DOPS   PO416724  11.467   8.507  15.591  0.1226 -0.1553 -0.2648
 1426DOPS   GL116725  11.348   8.207  15.338 -0.0685  0.2778  0.3719
 1426DOPS   GL216726  11.547   8.036  15.308  0.0627 -0.1526 -0.0420
 1426DOPS   C1A16727  11.143   8.254  14.902  0.0778 -0.0248  0.1565
 1426DOPS   D2A16728  11.328   8.371  14.491  0.0181  0.0210 -0.2013
 1426DOPS   C3A16729  11.483   8.242  14.061 -0.0798  0.1338  0.1754
 1426DOPS   C4A16730  11.628   7.967  13.740 -0.0516  0.0296 -0.2496
 1426DOPS   C1B16731  11.565   7.991  14.853 -0.0158 -0.2145  0.1339
 1426DOPS   D2B16732  11.724   7.912  14.405  0.0837  0.0792  0.0412
 1426DOPS   C3B16733  12.032   7.915  14.053  0.3069  0.0222  0.0913
 1426DOPS   C4B16734  12.156   8.030  13.608 -0.1100  0.1532 -0.1666
 1427DOPE   NH316735  19.145   1.805  13.826 -0.1263  0.3182  0.0432
 1427DOPE   PO416736  19.381   1.846  14.033 -0.1814  0.1038 -0.3028
 1427DOPE   GL116737  19.524   2.059  13.711  0.1057  0.0175  0.3092
 1427DOPE   GL216738  19.320   2.283  13.539 -0.2119 -0.2187 -0.1252
 1427DOPE   C1A16739  19.556   1.927  13.277 -0.2467  0.0297  0.0113
 1427DOPE   D2A16740  19.818   2.106  12.971 -0.0356 -0.2423 -0.2991
 1427DOPE   C3A16741  20.031   2.521  13.072  0.1272 -0.0125 -0.1808
 1427DOPE   C4A16742  20.427   2.701  13.237 -0.2940 -0.0327  0.1691
 1427DOPE   C1B16743  19.093   2.006  13.327 -0.0296 -0.1720  0.0271
 1427DOPE   D2B16744  18.806   1.642  13.402 -0.1493 -0.0843  0.0391
 1427DOPE   C3B16745  18.710   1.492  13.050  0.0072  0.0105  0.1530
 1427DOPE   C4B16746  18.630   1.446  12.584  0.0920  0.2627 -0.1066
 1428DOPS   CNO16747  20.537   6.181  13.297  0.0955 -0.1689  0.2549
 1428DOPS   PO416748  20.586   6.444  13.104  0.1252  0.0789 -0.0962
 1428DOPS   GL116749  20.526   6.427  12.749 -0.2607 -0.1051 -0.1111
 1428DOPS   GL216750  20.319   6.209  12.805 -0.1159 -0.1027 -0.3022
 1428DOPS   C1A16751  20.695   6.151  12.411 -0.1254  0.1638 -0.0125
 1428DOPS   D2A16752  20.639   5.765  12.101  0.0515  0.1202  0.1293
 1428DOPS   C3A16753  20.225   5.538  12.105  0.0363 -0.3028 -0.3061
 1428DOPS   C4A16754  19.779   5.637  12.017 -0.1725  0.0899 -0.0318
 1428DOPS   C1B16755  20.408   5.814  12.642 -0.0362 -0.0307  0.2165
 1428DOPS   D2B16756  20.825   5.530  12.570  0.0151 -0.2579  0.0646
 1428DOPS   C3B16757  20.640   5.261  12.263  0.3468 -0.2137  0.0462
 1428DOPS   C4B16758  20.437   4.875  12.167  0.0194  0.1195  0.1541
 1429DOPE   NH316759  23.039   2.883  10.248  0.0936 -0.0400 -0.0242
 1429DOPE   PO416760  23.108   3.189  10.297 -0.0883  0.0189 -0.1171
 1429DOPE   GL116761  22.851   3.108  10.638 -0.1875 -0.0245 -0.0075
 1429DOPE   GL216762  22.890   3.361  10.853 -0.1519  0.1906  0.1105
 1429DOPE   C1A16763  22.856   2.854  11.021  0.3439  0.1188  0.0134
 1429DOPE   D2A16764  23.132   2.640  11.321 -0.1166 -0.2265  0.1014
 1429DOPE   C3A16765  23.146   2.806  11.734 -0.5003  0.1106 -0.1801
 1429DOPE   C4A16766  22.986   2.711  12.161  0.0063 -0.1942  0.0238
 1429DOPE   C1B16767  22.583   3.255  11.142  0.0964  0.2417  0.0278
 1429DOPE   D2B16768  22.483   3.410  11.510  0.0326  0.0575  0.1262
 1429DOPE   C3B16769  22.778   3.667  11.771 -0.0914 -0.2753 -0.0564
 1429DOPE   C4B16770  23.106   3.837  12.067  0.4828 -0.0367  0.1259
 1430DOPS   CNO16771  11.368   2.833  12.503 -0.1138 -0.1263  0.0797
 1430DOPS   PO416772  11.561   2.813  12.849 -0.1480  0.2192 -0.1371
 1430DOPS   GL116773  11.976   2.979  12.918 -0.0528  0.0112  0.0322
 1430DOPS   GL216774  11.951   3.265  12.971  0.2012 -0.1844 -0.3787
 1430DOPS   C1A16775  12.326   2.954  13.267  0.0139 -0.2337 -0.4547
 1430DOPS   D2A16776  12.729   3.211  13.276  0.2360 -0.1744  0.0801
 1430DOPS   C3A16777  13.189   3.080  13.414  0.4434 -0.1265 -0.0959
 1430DOPS   C4A16778  13.563   2.976  13.746  0.1258 -0.1107 -0.0660
 1430DOPS   C1B16779  12.194   3.429  13.288 -0.3341 -0.2802 -0.0409
 1430DOPS   D2B16780  12.347   3.536  13.698  0.1833 -0.1862 -0.0656
 1430DOPS   C3B16781  12.670   3.639  14.067 -0.2460  0.1480 -0.1955
 1430DOPS   C4B16782  12.767   4.029  14.344  0.1675  0.1815  0.2380
 1431DOPE   NH316783  19.129   4.035  10.579  0.1687  0.0722 -0.2043
 1431DOPE   PO416784  18.831   4.213  10.609  0.0584  0.1554 -0.0810
 1431DOPE   GL116785  18.940   4.362  10.919  0.3470  0.2086  0.0465
 1431DOPE   GL216786  18.930   4.186  11.151  0.2066 -0.1565  0.2198
 1431DOPE   C1A16787  19.050   4.834  10.880  0.3804  0.0049  0.2814
 1431DOPE   D2A16788  19.140   5.266  10.729  0.0546 -0.1454 -0.1015
 1431DOPE   C3A16789  19.438   5.528  11.022  0.2378 -0.0289 -0.0730
 1431DOPE   C4A16790  19.779   5.395  11.339 -0.0752  0.3189 -0.0283
 1431DOPE   C1B16791  19.118   3.697  11.154  0.1225  0.0317  0.1214
 1431DOPE   D2B16792  19.209   3.225  11.082  0.2641  0.2338 -0.3797
 1431DOPE   C3B16793  19.165   2.902  11.371  0.0728  0.0252 -0.0561
 1431DOPE   C4B16794  19.403   2.666  11.675  0.1297  0.0131  0.1528
 1432DOPE   NH316795  21.866   3.206  10.263  0.2032  0.0958  0.1708
 1432DOPE   PO416796  21.585   3.336  10.418  0.1867 -0.0612 -0.0374
 1432DOPE   GL116797  21.667   3.378  10.769  0.0155 -0.2151 -0.2916
 1432DOPE   GL216798  21.983   3.376  10.711  0.1769  0.0785  0.2202
 1432DOPE   C1A16799  21.636   3.082  11.156 -0.0397  0.3235 -0.0734
 1432DOPE   D2A16800  21.845   2.709  11.300 -0.1460  0.0808  0.2296
 1432DOPE   C3A16801  22.126   2.580  11.750 -0.0384  0.1112 -0.1707
 1432DOPE   C4A16802  22.426   2.440  12.126  0.0734  0.2333  0.2234
 1432DOPE   C1B16803  21.939   2.927  10.747 -0.1063  0.1841  0.1885
 1432DOPE   D2B16804  21.993   2.484  10.688  0.0016 -0.0635 -0.0927
 1432DOPE   C3B16805  22.347   2.335  10.822  0.2223  0.3689  0.2891
 1432DOPE   C4B16806  22.726   2.327  11.059 -0.3029 -0.1726  0.0067
 1433DOPC   NC316807  20.818   4.483  10.383  0.1350  0.3709  0.1364
 1433DOPC   PO416808  21.154   4.372  10.212 -0.0664  0.1557  0.1277
 1433DOPC   GL116809  21.214   4.457  10.624  0.0276 -0.2525  0.1213
 1433DOPC   GL216810  21.493   4.295  10.595  0.3833 -0.0450  0.1671
 1433DOPC   C1A16811  20.838   4.283  10.912  0.2849  0.2181  0.1845
 1433DOPC   D2A16812  20.555   3.998  11.112  0.0081 -0.4958  0.0377
 1433DOPC   C3A16813  20.533   3.999  11.552 -0.0123  0.2805  0.2604
 1433DOPC   C4A16814  20.471   4.314  11.893  0.0930  0.4922  0.1429
 1433DOPC   C1B16815  21.244   4.024  10.892 -0.3351 -0.1471 -0.2367
 1433DOPC   D2B16816  21.164   4.027  11.318  0.2781  0.1350 -0.3313
 1433DOPC   C3B16817  20.859   3.683  11.373  0.1192 -0.1018 -0.1227
 1433DOPC   C4B16818  20.539   3.498  11.641 -0.0687  0.0041 -0.0970
 1434DOPC   NC316819   9.890   7.016  13.186  0.1967  0.0849 -0.1685
 1434DOPC   PO416820  10.037   7.078  12.843  0.1078 -0.1411  0.1358
 1434DOPC   GL116821  10.358   7.173  12.870 -0.1419 -0.0184  0.2713
 1434DOPC   GL216822  10.399   7.460  12.827  0.2402 -0.1138  0.0480
 1434DOPC   C1A16823  10.649   7.296  13.217  0.0790 -0.1833  0.0116
 1434DOPC   D2A16824  10.632   7.360  13.655  0.1490 -0.0596 -0.0512
 1434DOPC   C3A16825  10.824   7.092  13.959 -0.0392 -0.2790 -0.0053
 1434DOPC   C4A16826  11.045   6.756  14.210 -0.2868 -0.1530  0.2940
 1434DOPC   C1B16827  10.698   7.785  12.953  0.3719  0.0437 -0.3198
 1434DOPC   D2B16828  10.738   7.791  13.415 -0.1414  0.0373 -0.1015
 1434DOPC   C3B16829  10.940   8.055  13.773 -0.3559  0.1517 -0.3703
 1434DOPC   C4B16830  10.908   8.428  14.070 -0.0675 -0.2113 -0.2006
 1435DOPE   NH316831  10.007   8.553  12.127  0.1755 -0.1385  0.1857
 1435DOPE   PO416832   9.850   8.254  12.101 -0.0202  0.1651 -0.0203
 1435DOPE   GL116833   9.856   8.352  12.499  0.0355  0.0003  0.0166
 1435DOPE   GL216834   9.862   8.609  12.639 -0.0743  0.1833  0.1157
 1435DOPE   C1A16835  10.032   8.201  12.889 -0.3591 -0.1491  0.0249
 1435DOPE   D2A16836  10.287   7.964  13.235  0.1503 -0.2041  0.3321
 1435DOPE   C3A16837  10.235   7.543  13.314 -0.0581  0.1275 -0.2078
 1435DOPE   C4A16838  10.284   7.111  13.495 -0.1064  0.1292  0.0409
 1435DOPE   C1B16839   9.796   8.624  13.019  0.1447 -0.3700 -0.1157
 1435DOPE   D2B16840  10.058   8.943  13.268 -0.5560  0.0745  0.0655
 1435DOPE   C3B16841   9.943   9.333  13.457  0.4730  0.1135 -0.3596
 1435DOPE   C4B16842  10.105   9.694  13.696 -0.2771 -0.2056 -0.1325
 1436DOPE   NH316843  21.149   8.459   9.355  0.0139  0.0685  0.1121
 1436DOPE   PO416844  21.349   8.739   9.332  0.1303  0.1092 -0.1450
 1436DOPE   GL116845  21.665   8.843   9.498  0.0214 -0.0937  0.1403
 1436DOPE   GL216846  21.933   8.777   9.652 -0.1104  0.3651 -0.0125
 1436DOPE   C1A16847  21.662   9.155   9.855 -0.3918  0.1220  0.1834
 1436DOPE   D2A16848  21.633   9.024  10.274  0.0773 -0.1254  0.0904
 1436DOPE   C3A16849  21.746   9.163  10.663 -0.1871 -0.0585  0.0848
 1436DOPE   C4A16850  21.464   9.214  11.030 -0.0778  0.0929  0.0505
 1436DOPE   C1B16851  21.584   8.669   9.943 -0.1724 -0.4582 -0.0440
 1436DOPE   D2B16852  21.483   8.593  10.362 -0.2125  0.0194  0.0515
 1436DOPE   C3B16853  21.507   8.792  10.727 -0.1679  0.1049  0.0964
 1436DOPE   C4B16854  21.764   8.770  11.065 -0.2528 -0.1750  0.4243
 1437DOPE   NH316855  18.879   5.591  10.415  0.0206  0.0365 -0.0821
 1437DOPE   PO416856  18.741   5.753  10.178 -0.1402 -0.0536  0.1454
 1437DOPE   GL116857  18.846   6.176  10.309 -0.0459  0.1642 -0.1777
 1437DOPE   GL216858  18.830   6.347  10.049  0.2581 -0.1229 -0.1689
 1437DOPE   C1A16859  18.910   6.240  10.784  0.1220  0.0731 -0.0034
 1437DOPE   D2A16860  18.838   6.189  11.232 -0.0333  0.0813  0.2719
 1437DOPE   C3A16861  18.303   6.159  11.245 -0.1335 -0.1246 -0.1023
 1437DOPE   C4A16862  17.859   6.192  11.310 -0.1418  0.0834  0.2057
 1437DOPE   C1B16863  18.780   6.621  10.452 -0.0736 -0.0086  0.1537
 1437DOPE   D2B16864  18.827   7.046  10.668 -0.1458  0.1287  0.1287
 1437DOPE   C3B16865  19.214   7.189  10.907  0.4278  0.3972  0.2481
 1437DOPE   C4B16866  19.635   7.447  10.872 -0.1774 -0.0075 -0.1991
 1438POSM   NC316867   8.675  10.634  11.566  0.1553 -0.0850 -0.1954
 1438POSM   PO416868   8.964  10.454  11.338  0.1720 -0.3270 -0.5827
 1438POSM   AM116869   9.153  10.561  11.605 -0.1113 -0.1422 -0.3089
 1438POSM   AM216870   9.283  10.835  11.633 -0.1422  0.3276 -0.4029
 1438POSM   T1A16871   9.393  10.377  12.034 -0.0986 -0.1550  0.0698
 1438POSM   C2A16872   9.579  10.061  12.359  0.1198 -0.0746 -0.0117
 1438POSM   C3A16873   9.375   9.735  12.659 -0.1513 -0.2297  0.1059
 1438POSM   C1B16874   9.090  10.879  11.893 -0.0844 -0.1080 -0.1783
 1438POSM   D2B16875   9.014  10.906  12.346  0.2755  0.2243  0.1720
 1438POSM   C3B16876   9.213  11.060  12.730  0.0185  0.1048  0.2294
 1438POSM   C4B16877   9.574  11.302  12.879 -0.5859 -0.1941  0.2122
 1439DOPE   NH316878  14.565   5.024  11.277 -0.1062 -0.1265 -0.2138
 1439DOPE   PO416879  14.748   5.232  11.436 -0.0673  0.0306 -0.3274
 1439DOPE   GL116880  15.010   5.325  11.844  0.1362  0.2761 -0.1693
 1439DOPE   GL216881  14.865   5.486  11.897  0.0984 -0.4757 -0.0491
 1439DOPE   C1A16882  15.375   5.378  12.141  0.0528  0.0256  0.1267
 1439DOPE   D2A16883  15.676   5.645  12.254 -0.2538 -0.0862 -0.0065
 1439DOPE   C3A16884  15.890   5.823  12.640  0.0520 -0.1307  0.1087
 1439DOPE   C4A16885  16.380   5.837  12.629 -0.0876  0.0293  0.0628
 1439DOPE   C1B16886  14.907   5.314  12.333 -0.1723 -0.1398 -0.0494
 1439DOPE   D2B16887  14.758   5.280  12.744 -0.0416 -0.1200  0.0654
 1439DOPE   C3B16888  14.861   5.604  12.997  0.1194  0.0919 -0.0542
 1439DOPE   C4B16889  15.222   5.657  13.287  0.0821 -0.1459  0.1933
 1440POSM   NC316890  17.409   6.689  10.292  0.1770  0.0488 -0.3660
 1440POSM   PO416891  17.366   6.889   9.959 -0.1333 -0.2839  0.0007
 1440POSM   AM116892  17.323   7.121  10.193 -0.0803  0.0226 -0.3762
 1440POSM   AM216893  17.470   7.346  10.227 -0.0789 -0.1305  0.0182
 1440POSM   T1A16894  17.134   7.272  10.577 -0.1400 -0.1400 -0.2373
 1440POSM   C2A16895  17.254   7.185  11.012  0.2821  0.1600  0.3282
 1440POSM   C3A16896  17.558   7.341  11.299  0.1875  0.1429 -0.1195
 1440POSM   C1B16897  17.547   7.649  10.405  0.0837  0.2938  0.1486
 1440POSM   D2B16898  17.188   7.849  10.651  0.0661 -0.0295  0.0830
 1440POSM   C3B16899  16.810   7.651  10.600 -0.2475  0.2393  0.2731
 1440POSM   C4B16900  16.343   7.728  10.722  0.0120  0.0756  0.4608
 1441POSM   NC316901  13.557   0.472  12.193 -0.0245  0.0758 -0.1596
 1441POSM   PO416902  13.821   0.697  12.047 -0.2644 -0.2404  0.3545
 1441POSM   AM116903  13.976   0.670  12.329  0.5412 -0.1864 -0.0328
 1441POSM   AM216904  14.208   0.838  12.403  0.2857 -0.0615  0.3380
 1441POSM   T1A16905  13.949   0.451  12.769 -0.0863  0.1677 -0.2203
 1441POSM   C2A16906  14.143   0.506  13.182 -0.0022 -0.1972 -0.0352
 1441POSM   C3A16907  14.334   0.776  13.516 -0.0032 -0.0720 -0.1697
 1441POSM   C1B16908  14.344   0.962  12.685  0.1542 -0.0867  0.0772
 1441POSM   D2B16909  14.584   0.932  13.127 -0.2956  0.1301 -0.0528
 1441POSM   C3B16910  14.683   1.271  13.480  0.2772  0.0335 -0.2617
 1441POSM   C4B16911  14.830   1.666  13.710 -0.2237  0.0154 -0.0059
 1442DOPC   NC316912  21.255   6.234   9.895  0.2836  0.1123 -0.0447
 1442DOPC   PO416913  21.528   5.992  10.075  0.1879 -0.1173  0.2160
 1442DOPC   GL116914  21.396   5.859  10.394  0.4039  0.3368 -0.2855
 1442DOPC   GL216915  21.515   5.966  10.584  0.1057 -0.2408  0.2923
 1442DOPC   C1A16916  21.203   5.651  10.753 -0.2190 -0.2151  0.3424
 1442DOPC   D2A16917  20.894   5.383  10.947  0.0243  0.2838 -0.0304
 1442DOPC   C3A16918  20.965   5.633  11.278 -0.0305  0.0898  0.3781
 1442DOPC   C4A16919  20.849   6.049  11.466 -0.0087 -0.1648  0.1011
 1442DOPC   C1B16920  21.620   5.680  10.946 -0.1358 -0.1028 -0.0407
 1442DOPC   D2B16921  21.641   5.672  11.403  0.1720 -0.0004  0.0093
 1442DOPC   C3B16922  21.331   5.591  11.737  0.0526 -0.1396  0.0316
 1442DOPC   C4B16923  21.004   5.419  11.971 -0.2237  0.2460  0.2882
 1443DOPC   NC316924  18.938   8.802   9.406 -0.0560  0.1066  0.2442
 1443DOPC   PO416925  18.994   9.169   9.236 -0.0281 -0.0681  0.1604
 1443DOPC   GL116926  19.019   9.140   9.700 -0.1499 -0.1241  0.0591
 1443DOPC   GL216927  19.170   9.417   9.824 -0.2393  0.4299  0.2461
 1443DOPC   C1A16928  18.874   8.773   9.936 -0.0047  0.0765  0.3453
 1443DOPC   D2A16929  19.121   8.797  10.318  0.1783 -0.3119  0.2737
 1443DOPC   C3A16930  18.854   8.880  10.641 -0.0933  0.1743  0.1474
 1443DOPC   C4A16931  18.654   8.966  11.026 -0.0990 -0.0638 -0.1964
 1443DOPC   C1B16932  19.155   9.369  10.343  0.3434  0.2675 -0.0191
 1443DOPC   D2B16933  19.387   9.150  10.654 -0.0893  0.2659  0.1524
 1443DOPC   C3B16934  19.577   9.495  10.947  0.1808  0.1202  0.0475
 1443DOPC   C4B16935  19.266   9.780  11.081  0.1915 -0.0253  0.0357
 1444DOPC   NC316936  12.692   4.772  11.236 -0.0473 -0.1563  0.0539
 1444DOPC   PO416937  12.823   4.456  11.477  0.1170 -0.1220 -0.3542
 1444DOPC   GL116938  12.945   4.458  11.826  0.1743 -0.0219 -0.0136
 1444DOPC   GL216939  12.904   4.232  11.936  0.2246  0.0210 -0.0686
 1444DOPC   C1A16940  12.996   4.900  11.967  0.2186  0.0823  0.0622
 1444DOPC   D2A16941  12.901   5.297  12.008  0.0830  0.3223 -0.0370
 1444DOPC   C3A16942  13.196   5.591  12.135 -0.1558  0.1467  0.0073
 1444DOPC   C4A16943  13.390   5.807  12.497 -0.1828  0.2683  0.2202
 1444DOPC   C1B16944  13.372   4.157  11.886  0.0457  0.1766  0.1893
 1444DOPC   D2B16945  13.756   4.310  12.036 -0.0455 -0.0561  0.0108
 1444DOPC   C3B16946  14.093   4.184  12.310  0.1500 -0.0158 -0.1727
 1444DOPC   C4B16947  14.469   4.265  12.541 -0.0138  0.2975 -0.2648
 1445DOPE   NH316948  18.620   0.263  10.549 -0.1596  0.0030 -0.0649
 1445DOPE   PO416949  18.448   0.511  10.735 -0.1303 -0.1305 -0.1166
 1445DOPE   GL116950  18.479   0.524  11.111  0.0849  0.2134  0.1719
 1445DOPE   GL216951  18.505   0.791  11.114 -0.0430  0.3912 -0.0083
 1445DOPE   C1A16952  18.900   0.574  11.325 -0.0405 -0.2780  0.2521
 1445DOPE   D2A16953  19.056   0.585  11.743  0.1584  0.0717  0.4530
 1445DOPE   C3A16954  19.477   0.511  11.988  0.2845 -0.0749 -0.0731
 1445DOPE   C4A16955  19.915   0.430  11.921  0.1127 -0.2696  0.0506
 1445DOPE   C1B16956  18.432   0.711  11.571 -0.0224  0.5051 -0.1946
 1445DOPE   D2B16957  18.155   0.807  11.910  0.1820  0.0855 -0.1870
 1445DOPE   C3B16958  18.064   0.454  12.182  0.4393  0.1487  0.2020
 1445DOPE   C4B16959  17.950   0.163  12.476 -0.3194 -0.0049 -0.0389
 1446POSM   NC316960  17.803  34.330  11.047  0.0040  0.1841 -0.2394
 1446POSM   PO416961  17.700  34.686  11.179  0.0898  0.0727  0.0011
 1446POSM   AM116962  17.590  34.582  11.464 -0.4035 -0.4351  0.2555
 1446POSM   AM216963  17.644  34.663  11.718 -0.0014 -0.1430  0.2988
 1446POSM   T1A16964  17.421  34.199  11.723  0.0251 -0.2044 -0.0675
 1446POSM   C2A16965  17.524  33.942  12.054 -0.1198 -0.0007 -0.0572
 1446POSM   C3A16966  17.924  33.698  12.025  0.0798  0.0890 -0.0354
 1446POSM   C1B16967  17.570  34.634  12.039 -0.2883 -0.2645 -0.2500
 1446POSM   D2B16968  17.523  34.438  12.423 -0.0071  0.0545 -0.0812
 1446POSM   C3B16969  17.126  34.462  12.608  0.3437  0.3168 -0.2905
 1446POSM   C4B16970  17.012  34.609  12.983 -0.0327 -0.4487 -0.0159
 1447DOPE   NH316971  10.794  10.040  10.836 -0.1660 -0.2224  0.1526
 1447DOPE   PO416972  10.553   9.924  11.085 -0.1770 -0.1556 -0.3495
 1447DOPE   GL116973  10.781  10.110  11.300  0.3177 -0.1943 -0.0492
 1447DOPE   GL216974  11.022   9.922  11.417  0.0257 -0.0964 -0.1394
 1447DOPE   C1A16975  10.711  10.545  11.465 -0.0831  0.0789  0.2966
 1447DOPE   D2A16976  10.776  10.812  11.848  0.0295 -0.4684 -0.0250
 1447DOPE   C3A16977  11.083  11.005  12.152 -0.2542  0.2509  0.1020
 1447DOPE   C4A16978  11.276  11.419  12.206 -0.2460 -0.0473 -0.0651
 1447DOPE   C1B16979  10.950  10.035  11.886  0.3375  0.1666  0.2171
 1447DOPE   D2B16980  10.908  10.386  12.070 -0.1163  0.0974 -0.0580
 1447DOPE   C3B16981  11.284  10.605  12.254  0.0581 -0.1271  0.1582
 1447DOPE   C4B16982  11.587  10.904  12.302 -0.1954 -0.3616  0.0937
 1448DOPC   NC316983  21.079   0.257   9.786 -0.2883 -0.0853  0.1370
 1448DOPC   PO416984  21.130  -0.146   9.802 -0.0566  0.0407  0.0905
 1448DOPC   GL116985  21.052  -0.208  10.162 -0.0802 -0.2347  0.1186
 1448DOPC   GL216986  21.254   0.006  10.308 -0.0161  0.3466  0.2812
 1448DOPC   C1A16987  20.784  -0.258  10.516  0.0927  0.1314  0.0117
 1448DOPC   D2A16988  20.829  -0.372  10.938  0.0755 -0.3440 -0.2558
 1448DOPC   C3A16989  20.498  -0.557  11.120 -0.1680  0.1680  0.0365
 1448DOPC   C4A16990  20.365  -0.921  11.425 -0.0525 -0.1404  0.3542
 1448DOPC   C1B16991  21.184  -0.008  10.711 -0.2457  0.2005  0.1697
 1448DOPC   D2B16992  21.396  -0.240  11.100 -0.3310 -0.0532 -0.1804
 1448DOPC   C3B16993  21.244  -0.455  11.483  0.3025  0.0702  0.1594
 1448DOPC   C4B16994  21.303  -0.833  11.809  0.1143 -0.0007  0.2254
 1449POSM   NC316995  19.168  34.192  10.009 -0.1351 -0.0972  0.0507
 1449POSM   PO416996  19.069  34.492  10.279  0.1055 -0.4049 -0.0855
 1449POSM   AM116997  19.102  34.520  10.579 -0.2854 -0.1131  0.2384
 1449POSM   AM216998  19.340  34.557  10.754  0.2719 -0.0600  0.2189
 1449POSM   T1A16999  18.872  34.564  11.001 -0.0351 -0.2215 -0.3289
 1449POSM   C2A17000  18.829  34.305  11.351 -0.1054  0.0895 -0.0515
 1449POSM   C3A17001  18.720  33.825  11.338  0.0132  0.2149  0.1318
 1449POSM   C1B17002  19.410  34.472  11.069 -0.2120  0.0454 -0.0722
 1449POSM   D2B17003  19.557  34.259  11.462  0.0574 -0.0838  0.3975
 1449POSM   C3B17004  19.644  34.459  11.927 -0.3027 -0.0946 -0.1264
 1449POSM   C4B17005  19.694  34.717  12.330 -0.0288 -0.1240 -0.0851
 1450DOPE   NH317006  23.074   6.744  10.205  0.0050  0.0415  0.4894
 1450DOPE   PO417007  22.795   6.684  10.282  0.0355  0.0496  0.0239
 1450DOPE   GL117008  22.865   6.679  10.691  0.1345 -0.2495 -0.1106
 1450DOPE   GL217009  23.076   6.489  10.712 -0.1344  0.1357 -0.3041
 1450DOPE   C1A17010  22.648   7.061  10.805  0.0821  0.0787  0.0609
 1450DOPE   D2A17011  22.599   7.338  11.148  0.4023  0.1322 -0.4529
 1450DOPE   C3A17012  23.004   7.223  11.376 -0.0639  0.2837 -0.3674
 1450DOPE   C4A17013  23.370   6.989  11.608 -0.1983 -0.3765 -0.0291
 1450DOPE   C1B17014  22.958   6.301  11.081 -0.0661  0.2116 -0.0233
 1450DOPE   D2B17015  22.588   6.229  11.381  0.3965 -0.3298 -0.1881
 1450DOPE   C3B17016  22.575   5.928  11.740 -0.1252  0.0376 -0.0837
 1450DOPE   C4B17017  22.232   5.717  11.942 -0.0543 -0.1229  0.0115
 1451DOPE   NH317018   9.490   4.783  13.530  0.0592  0.1914  0.1321
 1451DOPE   PO417019   9.380   4.918  13.259  0.1674 -0.1152 -0.2848
 1451DOPE   GL117020   9.203   5.214  13.575  0.0716  0.0262 -0.0842
 1451DOPE   GL217021   9.431   5.256  13.732  0.1904 -0.4427  0.0549
 1451DOPE   C1A17022   8.977   5.590  13.693 -0.1068 -0.2716 -0.1436
 1451DOPE   D2A17023   8.900   5.990  13.868 -0.2604  0.0079 -0.1144
 1451DOPE   C3A17024   9.133   6.108  14.217  0.2306  0.0990 -0.1924
 1451DOPE   C4A17025   9.148   6.432  14.525  0.0426 -0.3529  0.1863
 1451DOPE   C1B17026   9.461   4.886  14.041  0.0335 -0.1118  0.0975
 1451DOPE   D2B17027   9.333   4.898  14.497  0.1927 -0.1701 -0.1772
 1451DOPE   C3B17028   9.363   4.602  14.819 -0.1661  0.7541 -0.1061
 1451DOPE   C4B17029   9.625   4.622  15.175  0.1766 -0.1210  0.0219
 1452DOPC   NC317030  16.062   5.569  10.523  0.0512  0.1294 -0.0199
 1452DOPC   PO417031  16.104   5.811  10.827 -0.0231  0.0925  0.1854
 1452DOPC   GL117032  16.066   6.013  11.098 -0.0433 -0.2228  0.2090
 1452DOPC   GL217033  16.247   6.243  11.136 -0.0059 -0.1123 -0.1746
 1452DOPC   C1A17034  16.201   5.964  11.542 -0.1748 -0.0514 -0.1232
 1452DOPC   D2A17035  16.054   5.993  11.979 -0.0197  0.1105  0.0056
 1452DOPC   C3A17036  16.014   6.205  12.359  0.2560  0.0319 -0.0329
 1452DOPC   C4A17037  15.946   6.584  12.496 -0.1092 -0.1740 -0.0515
 1452DOPC   C1B17038  16.591   6.527  11.157 -0.0613  0.0837 -0.0652
 1452DOPC   D2B17039  16.818   6.914  11.054 -0.1026  0.0973 -0.2170
 1452DOPC   C3B17040  16.936   7.206  11.411  0.0082 -0.2832  0.0759
 1452DOPC   C4B17041  17.136   7.548  11.656 -0.3279 -0.1521  0.0954
 1453DOPE   NH317042   9.591   7.293  12.888 -0.0696  0.1430 -0.5581
 1453DOPE   PO417043   9.266   7.292  12.968  0.2835 -0.3408 -0.1984
 1453DOPE   GL117044   9.168   7.249  13.358  0.0417 -0.1565 -0.3627
 1453DOPE   GL217045   9.423   7.154  13.452 -0.2571 -0.1712  0.0579
 1453DOPE   C1A17046   9.284   7.581  13.675  0.1498  0.2191  0.1932
 1453DOPE   D2A17047   9.492   8.028  13.720 -0.0658 -0.2195 -0.2721
 1453DOPE   C3A17048   9.547   8.476  13.524  0.1029  0.1841  0.0754
 1453DOPE   C4A17049   9.560   8.914  13.407 -0.3305  0.0056 -0.0685
 1453DOPE   C1B17050   9.848   7.033  13.678  0.1490 -0.1474 -0.2538
 1453DOPE   D2B17051   9.914   6.799  14.100  0.0911  0.0783  0.1857
 1453DOPE   C3B17052  10.249   6.596  14.405 -0.0363 -0.1747 -0.0857
 1453DOPE   C4B17053  10.704   6.578  14.544  0.0084  0.0771 -0.1496
 1454POSM   NC317054  19.011   7.204   9.059  0.2653 -0.2143  0.4340
 1454POSM   PO417055  18.878   7.142   9.412 -0.3526 -0.2848 -0.0759
 1454POSM   AM117056  18.829   7.112   9.729  0.1915  0.2692  0.1412
 1454POSM   AM217057  18.606   7.001   9.865 -0.0190  0.0975 -0.2018
 1454POSM   T1A17058  19.087   7.222  10.112 -0.0418  0.1119 -0.1671
 1454POSM   C2A17059  19.288   6.960  10.475 -0.1161  0.0476  0.2844
 1454POSM   C3A17060  19.195   6.659  10.763  0.1009 -0.1276 -0.0153
 1454POSM   C1B17061  18.521   7.294  10.106  0.0308 -0.0506  0.1249
 1454POSM   D2B17062  18.444   7.349  10.608  0.1326 -0.0598 -0.1335
 1454POSM   C3B17063  18.375   7.646  10.915 -0.0398  0.0819  0.0442
 1454POSM   C4B17064  18.558   7.960  11.218  0.1473  0.2515 -0.2626
 1455DOPC   NC317065  17.400   8.540   9.231 -0.1250  0.0014  0.0478
 1455DOPC   PO417066  17.783   8.573   9.332  0.0543  0.1271 -0.1646
 1455DOPC   GL117067  17.560   8.714   9.606  0.0984 -0.2774 -0.3055
 1455DOPC   GL217068  17.805   8.875   9.752  0.3921 -0.0750 -0.1288
 1455DOPC   C1A17069  17.438   8.513  10.059 -0.1589  0.2402  0.5307
 1455DOPC   D2A17070  17.328   8.145  10.290 -0.2824  0.0347  0.3409
 1455DOPC   C3A17071  17.465   8.267  10.724  0.0197  0.0002  0.1969
 1455DOPC   C4A17072  17.475   8.231  11.174  0.0271  0.2453  0.1909
 1455DOPC   C1B17073  17.805   9.068  10.154  0.3822 -0.0143 -0.0305
 1455DOPC   D2B17074  17.883   9.208  10.625 -0.0555  0.3438  0.1289
 1455DOPC   C3B17075  17.770   8.927  11.015 -0.3117  0.1141  0.1946
 1455DOPC   C4B17076  17.754   8.636  11.361 -0.0050  0.3902 -0.0285
 1456POSM   NC317077  16.580   9.157   9.291  0.0650 -0.0143 -0.1364
 1456POSM   PO417078  16.637   8.868   9.538 -0.0961 -0.0785  0.1614
 1456POSM   AM117079  16.540   8.880   9.834 -0.1346  0.2281 -0.2304
 1456POSM   AM217080  16.322   8.919  10.016  0.2340 -0.0253 -0.2107
 1456POSM   T1A17081  16.596   8.663  10.315 -0.0082  0.1922  0.2187
 1456POSM   C2A17082  16.643   8.617  10.775  0.0854  0.1862 -0.0026
 1456POSM   C3A17083  16.426   8.781  11.207 -0.1203 -0.0325  0.0722
 1456POSM   C1B17084  16.161   8.804  10.281 -0.2298 -0.1650  0.0126
 1456POSM   D2B17085  16.087   8.523  10.631 -0.1096 -0.2676  0.0129
 1456POSM   C3B17086  16.006   8.574  11.122  0.1304 -0.1384  0.0705
 1456POSM   C4B17087  16.139   8.678  11.618  0.1105  0.1264 -0.0932
 1457DOPE   NH317088  17.516   1.427  10.658 -0.1737 -0.1523  0.0567
 1457DOPE   PO417089  17.788   1.236  10.788 -0.0255  0.3357  0.0077
 1457DOPE   GL117090  17.980   1.517  11.002  0.3578  0.2387  0.2102
 1457DOPE   GL217091  18.267   1.361  11.098 -0.0908 -0.3000  0.2872
 1457DOPE   C1A17092  18.133   1.705  11.405  0.0158  0.0946 -0.1893
 1457DOPE   D2A17093  18.184   1.970  11.788 -0.0124 -0.0004  0.0439
 1457DOPE   C3A17094  18.008   2.046  12.259  0.1440  0.1734  0.0692
 1457DOPE   C4A17095  17.859   2.203  12.653 -0.2153  0.1599  0.0144
 1457DOPE   C1B17096  18.217   1.175  11.521  0.1113  0.0393 -0.0304
 1457DOPE   D2B17097  18.087   1.312  11.895  0.0208  0.3147 -0.0577
 1457DOPE   C3B17098  18.320   1.625  12.146 -0.1989 -0.0991 -0.0453
 1457DOPE   C4B17099  18.516   1.989  12.297 -0.0506  0.2554  0.1311
 1458DOPC   NC317100  19.734   3.314  10.232 -0.0105  0.0010 -0.0605
 1458DOPC   PO417101  19.875   3.663  10.065 -0.0580  0.1106 -0.1350
 1458DOPC   GL117102  20.004   3.775  10.461  0.4008  0.0285 -0.1792
 1458DOPC   GL217103  19.738   3.682  10.592 -0.0902  0.3776 -0.0566
 1458DOPC   C1A17104  20.376   3.614  10.757 -0.0890  0.0335 -0.0978
 1458DOPC   D2A17105  20.479   3.363  11.175 -0.1228 -0.0370 -0.0145
 1458DOPC   C3A17106  20.161   3.132  11.453 -0.1790  0.0352  0.3070
 1458DOPC   C4A17107  19.932   2.883  11.767 -0.1366 -0.0237  0.0881
 1458DOPC   C1B17108  19.595   3.722  11.005 -0.2223 -0.1812 -0.0262
 1458DOPC   D2B17109  19.569   4.071  11.324 -0.6236  0.2121  0.3413
 1458DOPC   C3B17110  19.184   4.131  11.626  0.1486  0.1353 -0.1352
 1458DOPC   C4B17111  18.793   3.849  11.578  0.0925 -0.0555 -0.1952
 1459DOPE   NH317112  21.950   2.374  10.030  0.4545  0.3207 -0.0322
 1459DOPE   PO417113  21.817   2.116  10.175 -0.2076 -0.0610  0.0138
 1459DOPE   GL117114  21.951   2.067  10.497  0.1369  0.2203  0.3098
 1459DOPE   GL217115  22.114   1.861  10.453 -0.1087 -0.1007  0.1526
 1459DOPE   C1A17116  22.003   1.910  10.951  0.0586 -0.3475  0.2510
 1459DOPE   D2A17117  21.993   1.665  11.327  0.0423  0.0084 -0.0516
 1459DOPE   C3A17118  21.908   1.905  11.668  0.0710  0.0451 -0.0513
 1459DOPE   C4A17119  22.050   2.158  12.094  0.1418 -0.2819  0.0489
 1459DOPE   C1B17120  21.757   1.589  10.697 -0.2109  0.0874 -0.0834
 1459DOPE   D2B17121  21.654   1.340  11.089  0.2309  0.0275 -0.4082
 1459DOPE   C3B17122  21.493   0.899  11.055  0.0561 -0.1314 -0.0226
 1459DOPE   C4B17123  21.036   0.691  10.981 -0.0957  0.0075  0.0686
 1460POSM   NC317124  11.157   4.833  12.049  0.3174 -0.0577 -0.3193
 1460POSM   PO417125  11.039   5.015  12.352  0.0155  0.1075  0.0901
 1460POSM   AM117126  11.170   4.851  12.601  0.3759 -0.3312  0.3524
 1460POSM   AM217127  11.400   4.725  12.743 -0.2050  0.2292  0.2401
 1460POSM   T1A17128  11.115   4.950  13.084 -0.1718  0.1086 -0.1218
 1460POSM   C2A17129  11.333   4.948  13.470  0.0166  0.1393  0.0687
 1460POSM   C3A17130  11.490   5.100  13.903  0.1670  0.1690 -0.0906
 1460POSM   C1B17131  11.646   4.411  12.772 -0.0847  0.1754  0.0940
 1460POSM   D2B17132  11.609   3.981  12.966  0.0408 -0.2589  0.2068
 1460POSM   C3B17133  11.645   4.073  13.432 -0.0596  0.1897 -0.1253
 1460POSM   C4B17134  11.860   4.149  13.866  0.0297  0.1486 -0.2065
 1461DOPC   NC317135  18.043   6.069   9.913  0.3454 -0.2624  0.3364
 1461DOPC   PO417136  17.788   5.848  10.144  0.0104  0.1547  0.0620
 1461DOPC   GL117137  17.677   6.160  10.386 -0.0360 -0.0375  0.5507
 1461DOPC   GL217138  17.921   6.273  10.407  0.1034  0.1649 -0.1890
 1461DOPC   C1A17139  17.634   6.366  10.857 -0.0755 -0.1283  0.1378
 1461DOPC   D2A17140  17.536   6.535  11.260  0.0577  0.1076 -0.0179
 1461DOPC   C3A17141  17.357   6.879  11.346 -0.1021  0.2705  0.1146
 1461DOPC   C4A17142  17.392   7.143  11.737  0.1838 -0.0568  0.1162
 1461DOPC   C1B17143  17.871   6.680  10.550 -0.3045 -0.1870 -0.3364
 1461DOPC   D2B17144  17.620   6.997  10.622 -0.0177  0.1603 -0.0586
 1461DOPC   C3B17145  17.796   6.943  11.046 -0.0064 -0.0040 -0.2937
 1461DOPC   C4B17146  18.093   6.729  11.337 -0.4455  0.2109 -0.0555
 1462POSM   NC317147  20.772   2.504   9.849  0.1869  0.0280  0.0685
 1462POSM   PO417148  20.639   2.658  10.184 -0.0705 -0.0026  0.2003
 1462POSM   AM117149  20.721   2.585  10.500 -0.0697  0.0921  0.0053
 1462POSM   AM217150  20.954   2.648  10.681  0.0150  0.0720 -0.4249
 1462POSM   T1A17151  20.575   2.403  10.939 -0.0515 -0.0259 -0.0870
 1462POSM   C2A17152  20.301   2.341  11.319  0.0845 -0.0900 -0.0069
 1462POSM   C3A17153  20.456   2.013  11.696 -0.3187  0.3186  0.0811
 1462POSM   C1B17154  21.141   2.446  10.933 -0.2462  0.0561  0.1028
 1462POSM   D2B17155  21.288   2.180  11.328 -0.1941 -0.1672  0.4223
 1462POSM   C3B17156  21.725   2.241  11.301  0.2186  0.0623 -0.3321
 1462POSM   C4B17157  22.191   2.291  11.315 -0.1182  0.3240 -0.2429
 1463POSM   NC317158  11.062   7.467  11.131  0.0334  0.0979 -0.0256
 1463POSM   PO417159  11.341   7.526  11.398  0.0774 -0.2705  0.1384
 1463POSM   AM117160  11.378   7.551  11.723  0.2720  0.3716  0.0431
 1463POSM   AM217161  11.344   7.348  11.915 -0.1539  0.1206  0.6888
 1463POSM   T1A17162  11.757   7.638  12.034 -0.1101 -0.1246 -0.3397
 1463POSM   C2A17163  12.012   7.703  12.432  0.0020 -0.1631  0.1149
 1463POSM   C3A17164  12.468   7.651  12.608  0.1257  0.1912 -0.0433
 1463POSM   C1B17165  11.344   7.430  12.260  0.0343 -0.0927  0.4942
 1463POSM   D2B17166  11.505   7.495  12.756  0.1612  0.1652  0.1683
 1463POSM   C3B17167  11.446   7.847  12.953  0.1623  0.0514  0.2927
 1463POSM   C4B17168  11.312   7.987  13.359 -0.1498 -0.3080 -0.1793
 1464DOPC   NC317169  15.652   2.965  11.144  0.1566  0.0619 -0.0378
 1464DOPC   PO417170  16.068   3.044  11.191 -0.0766  0.4069  0.2897
 1464DOPC   GL117171  16.047   2.887  11.516 -0.0244 -0.1240  0.0403
 1464DOPC   GL217172  15.798   2.869  11.620 -0.1180 -0.2199  0.1350
 1464DOPC   C1A17173  16.093   3.191  11.867  0.1797 -0.4489 -0.0121
 1464DOPC   D2A17174  16.064   3.016  12.277  0.0225  0.2776  0.1988
 1464DOPC   C3A17175  16.443   2.986  12.532 -0.0234  0.1000 -0.1806
 1464DOPC   C4A17176  16.863   3.018  12.685 -0.2988  0.1597  0.1822
 1464DOPC   C1B17177  15.658   2.776  12.048 -0.0434  0.1654  0.2774
 1464DOPC   D2B17178  15.713   2.399  12.438 -0.0926  0.2354  0.0978
 1464DOPC   C3B17179  15.506   2.487  12.838  0.1040 -0.0781 -0.1511
 1464DOPC   C4B17180  15.590   2.444  13.274  0.0798  0.1259  0.5139
 1465DOPE   NH317181  14.914   3.212  11.303  0.0801  0.0355  0.0321
 1465DOPE   PO417182  14.704   3.043  11.440  0.2024  0.0309 -0.0561
 1465DOPE   GL117183  14.850   2.858  11.644  0.0176  0.1153  0.3876
 1465DOPE   GL217184  14.884   3.105  11.893 -0.1541  0.1617  0.1350
 1465DOPE   C1A17185  15.071   2.686  11.983  0.0575  0.4968  0.3222
 1465DOPE   D2A17186  15.180   2.692  12.442  0.0390 -0.1392 -0.1914
 1465DOPE   C3A17187  15.482   2.913  12.583 -0.2857  0.3139 -0.0071
 1465DOPE   C4A17188  15.869   2.799  12.797  0.1797 -0.0538  0.0696
 1465DOPE   C1B17189  15.093   3.253  12.253 -0.1214 -0.3158 -0.0177
 1465DOPE   D2B17190  15.246   3.383  12.673 -0.0435 -0.2172  0.0295
 1465DOPE   C3B17191  15.302   3.843  12.649 -0.0451  0.1110 -0.4873
 1465DOPE   C4B17192  15.427   4.258  12.523 -0.0915 -0.0297 -0.1499
 1466POSM   NC317193  14.687   9.834   9.737  0.1981  0.0117 -0.0418
 1466POSM   PO417194  14.470   9.796   9.409  0.2219 -0.2796  0.1648
 1466POSM   AM117195  14.271   9.937   9.634  0.0080 -0.1005  0.4283
 1466POSM   AM217196  14.106  10.157   9.613  0.0222  0.0314 -0.0569
 1466POSM   T1A17197  14.437  10.099  10.098 -0.2691  0.1307  0.0168
 1466POSM   C2A17198  14.736  10.096  10.453 -0.0667 -0.0510  0.1435
 1466POSM   C3A17199  14.861  10.312  10.896  0.2160 -0.0092  0.2644
 1466POSM   C1B17200  14.157  10.370   9.855 -0.1835 -0.2577  0.1541
 1466POSM   D2B17201  14.310  10.661  10.134 -0.0757  0.0939  0.1691
 1466POSM   C3B17202  14.711  10.672  10.330  0.0110  0.0080  0.1609
 1466POSM   C4B17203  15.106  10.481  10.288 -0.0374  0.1413  0.0247
 1467POSM   NC317204  15.058   3.649  11.141 -0.0585  0.2996  0.0502
 1467POSM   PO417205  15.344   3.387  11.146  0.0277  0.2249  0.0908
 1467POSM   AM117206  15.347   3.442  11.456  0.0790  0.0624 -0.1907
 1467POSM   AM217207  15.218   3.603  11.670 -0.2494 -0.2211  0.0757
 1467POSM   T1A17208  15.548   3.284  11.891  0.3409  0.2344  0.2086
 1467POSM   C2A17209  15.646   3.278  12.304 -0.0993 -0.2704 -0.0531
 1467POSM   C3A17210  15.931   3.339  12.641 -0.1217 -0.0438  0.1282
 1467POSM   C1B17211  14.993   3.591  11.918  0.2535  0.1695 -0.1579
 1467POSM   D2B17212  14.902   3.647  12.425  0.1231  0.0196 -0.0738
 1467POSM   C3B17213  14.779   3.796  12.795 -0.3448  0.3183 -0.0198
 1467POSM   C4B17214  14.447   3.697  13.086 -0.1924 -0.1667 -0.2575
 1468DOPS   CNO17215  19.089   6.732   9.951 -0.0029  0.1053 -0.0342
 1468DOPS   PO417216  19.300   6.475   9.779  0.3252 -0.0630 -0.1073
 1468DOPS   GL117217  19.489   6.612  10.169  0.2317 -0.1261  0.0708
 1468DOPS   GL217218  19.377   6.393  10.307  0.0015  0.0466 -0.1380
 1468DOPS   C1A17219  19.590   7.043  10.133  0.0381  0.0093 -0.2972
 1468DOPS   D2A17220  19.591   7.415  10.394  0.2103 -0.1060  0.2044
 1468DOPS   C3A17221  19.920   7.718  10.471 -0.0196 -0.1133 -0.1378
 1468DOPS   C4A17222  20.167   8.094  10.325  0.1332  0.0095  0.2254
 1468DOPS   C1B17223  19.353   5.951  10.465 -0.3385 -0.1197 -0.4567
 1468DOPS   D2B17224  19.665   5.653  10.436 -0.1077 -0.2470  0.0746
 1468DOPS   C3B17225  19.655   5.218  10.705 -0.2402 -0.1173  0.2715
 1468DOPS   C4B17226  19.551   4.921  11.057  0.0795  0.0191  0.2197
 1469DOPC   NC317227  13.859   6.351  11.437 -0.3159  0.1093 -0.0236
 1469DOPC   PO417228  13.634   6.596  11.184 -0.0490  0.0535  0.1154
 1469DOPC   GL117229  13.609   6.821  11.552  0.1074 -0.0161  0.0374
 1469DOPC   GL217230  13.284   6.847  11.504  0.2168  0.0665  0.1392
 1469DOPC   C1A17231  13.785   6.616  11.938  0.0022  0.2466  0.1412
 1469DOPC   D2A17232  14.133   6.848  12.152  0.1079 -0.2561  0.0583
 1469DOPC   C3A17233  13.985   6.751  12.615 -0.1118  0.1922  0.2638
 1469DOPC   C4A17234  13.757   6.513  12.935  0.0983  0.6218  0.1017
 1469DOPC   C1B17235  13.341   6.796  11.968  0.5642  0.0053  0.0091
 1469DOPC   D2B17236  13.192   6.512  12.311 -0.2023 -0.1462 -0.1252
 1469DOPC   C3B17237  13.269   6.243  12.682 -0.1298  0.1653 -0.6343
 1469DOPC   C4B17238  13.684   6.033  12.804 -0.0154  0.0347 -0.2364
 1470POSM   NC317239   8.934   3.843  13.224  0.0030  0.2645 -0.0503
 1470POSM   PO417240   8.831   4.096  13.475  0.0665 -0.1324  0.1526
 1470POSM   AM117241   8.938   3.931  13.749  0.3838  0.1849  0.1268
 1470POSM   AM217242   9.030   3.708  13.767 -0.0099  0.3217 -0.1285
 1470POSM   T1A17243   8.969   3.967  14.264 -0.0619  0.1135 -0.0162
 1470POSM   C2A17244   8.785   3.800  14.605 -0.3388  0.1990  0.2103
 1470POSM   C3A17245   8.903   3.729  15.004 -0.1503 -0.3755 -0.2429
 1470POSM   C1B17246   8.941   3.468  14.063  0.0014  0.2871  0.3159
 1470POSM   D2B17247   8.792   3.160  14.337 -0.1966  0.0122  0.3180
 1470POSM   C3B17248   8.932   3.299  14.731 -0.2806 -0.2726 -0.2763
 1470POSM   C4B17249   9.239   3.380  15.012  0.1861 -0.0730 -0.2368
 1471DOPE   NH317250  16.272   3.461  11.004  0.0634 -0.3425 -0.1813
 1471DOPE   PO417251  16.489   3.347  11.212  0.1057  0.0716  0.1445
 1471DOPE   GL117252  16.482   3.424  11.592  0.0629  0.3123 -0.2689
 1471DOPE   GL217253  16.315   3.694  11.506  0.2135  0.0186 -0.1340
 1471DOPE   C1A17254  16.461   3.543  12.018 -0.3380 -0.1075  0.0545
 1471DOPE   D2A17255  16.630   3.628  12.469  0.0239  0.2560  0.4162
 1471DOPE   C3A17256  16.253   3.809  12.673  0.0827  0.2610  0.0238
 1471DOPE   C4A17257  16.170   4.192  13.017  0.0918  0.1138  0.0170
 1471DOPE   C1B17258  16.359   4.082  11.761 -0.0597  0.1333 -0.0113
 1471DOPE   D2B17259  16.298   4.404  12.108 -0.2145  0.3895 -0.3202
 1471DOPE   C3B17260  15.928   4.602  12.238  0.1968 -0.2418 -0.2587
 1471DOPE   C4B17261  15.624   4.773  12.424 -0.1715 -0.0348  0.3477
 1472POSM   NC317262   9.595   7.930  12.509 -0.2834  0.2228  0.0921
 1472POSM   PO417263   9.284   7.889  12.733  0.1808 -0.0978  0.2675
 1472POSM   AM117264   9.442   7.897  13.012  0.0582  0.1643 -0.3539
 1472POSM   AM217265   9.450   7.678  13.201 -0.2631 -0.0608 -0.0188
 1472POSM   T1A17266   9.772   8.052  13.340  0.0655 -0.2201  0.0226
 1472POSM   C2A17267  10.076   7.992  13.630  0.1771  0.0652 -0.3903
 1472POSM   C3A17268  10.314   7.823  13.963 -0.1865  0.2343 -0.1612
 1472POSM   C1B17269   9.717   7.533  13.388  0.2808 -0.0622 -0.1218
 1472POSM   D2B17270   9.954   7.478  13.783  0.2146 -0.0713  0.2087
 1472POSM   C3B17271   9.728   7.644  14.131  0.2301 -0.3339  0.1861
 1472POSM   C4B17272   9.250   7.765  14.153  0.1738  0.1682  0.1148
 1473POSM   NC317273  12.797   8.279  10.741  0.0928  0.3128  0.1907
 1473POSM   PO417274  12.702   8.126  11.114  0.1631  0.2393 -0.2477
 1473POSM   AM117275  12.668   8.100  11.446  0.1912 -0.0870 -0.1260
 1473POSM   AM217276  12.440   8.065  11.635 -0.1323  0.2124 -0.0420
 1473POSM   T1A17277  12.934   8.009  11.894  0.0304 -0.2483  0.0393
 1473POSM   C2A17278  13.356   7.843  12.079  0.0089 -0.1946 -0.1082
 1473POSM   C3A17279  13.393   7.450  12.284 -0.2504 -0.0367  0.0777
 1473POSM   C1B17280  12.407   7.879  11.959 -0.2707  0.0435  0.0340
 1473POSM   D2B17281  12.350   7.475  12.127  0.2849 -0.0655 -0.1626
 1473POSM   C3B17282  12.597   7.269  12.401 -0.1373 -0.0737  0.2889
 1473POSM   C4B17283  13.024   7.089  12.263  0.0322  0.1927 -0.1432
 1474POSM   NC317284  11.972   8.589  10.947  0.0965  0.0704  0.0054
 1474POSM   PO417285  12.084   8.842  10.678  0.2003  0.0828  0.1038
 1474POSM   AM117286  12.202   9.005  10.997 -0.2198 -0.1868  0.2883
 1474POSM   AM217287  12.090   9.140  11.212 -0.2154  0.1594 -0.2884
 1474POSM   T1A17288  12.550   9.196  11.307  0.0063  0.3671 -0.3091
 1474POSM   C2A17289  12.902   9.122  11.590 -0.1128 -0.4294 -0.1830
 1474POSM   C3A17290  13.247   8.934  11.656  0.0978 -0.1655  0.0362
 1474POSM   C1B17291  11.895   9.143  11.414 -0.3120 -0.0355 -0.0875
 1474POSM   D2B17292  11.827   9.024  11.854 -0.0784 -0.1490 -0.0544
 1474POSM   C3B17293  11.696   9.325  12.248 -0.1583 -0.1457  0.1270
 1474POSM   C4B17294  11.472   9.439  12.589  0.0587 -0.2476 -0.1812
 1475DOPS   CNO17295  23.078   4.502  10.303  0.0497 -0.0486 -0.2270
 1475DOPS   PO417296  22.938   4.113  10.250 -0.1155 -0.1099  0.1089
 1475DOPS   GL117297  22.776   3.994  10.623  0.0874  0.3522 -0.0717
 1475DOPS   GL217298  23.003   4.132  10.731 -0.1293  0.0634 -0.1518
 1475DOPS   C1A17299  22.826   3.823  11.020 -0.0343  0.1348 -0.0448
 1475DOPS   D2A17300  23.046   3.549  11.340 -0.1172  0.2804 -0.0855
 1475DOPS   C3A17301  23.160   3.341  11.771  0.1322  0.1036 -0.0757
 1475DOPS   C4A17302  23.315   3.091  12.159 -0.0067 -0.1449  0.1936
 1475DOPS   C1B17303  23.178   4.194  11.165 -0.0421 -0.0786  0.0849
 1475DOPS   D2B17304  23.326   4.138  11.619 -0.2098  0.0312 -0.2852
 1475DOPS   C3B17305  23.702   4.451  11.822 -0.1384  0.0175 -0.1220
 1475DOPS   C4B17306  23.918   4.765  12.099 -0.3754  0.3610 -0.0453
 1476POSM   NC317307  16.808   2.754  10.837  0.1996 -0.2552 -0.0542
 1476POSM   PO417308  16.795   2.389  10.673 -0.2830  0.0664 -0.2545
 1476POSM   AM117309  16.814   2.313  10.996 -0.3488 -0.1605 -0.1762
 1476POSM   AM217310  16.718   2.099  11.178  0.0060 -0.0568 -0.1374
 1476POSM   T1A17311  17.214   2.298  11.257  0.1798  0.1846  0.1848
 1476POSM   C2A17312  17.420   2.537  11.632  0.2626 -0.3360  0.3130
 1476POSM   C3A17313  17.764   2.483  11.998 -0.4372 -0.0359 -0.4582
 1476POSM   C1B17314  16.635   2.161  11.477  0.3631 -0.2073  0.0675
 1476POSM   D2B17315  16.294   2.368  11.665 -0.2749 -0.1776  0.3103
 1476POSM   C3B17316  16.197   2.544  12.086 -0.1185 -0.1230 -0.4882
 1476POSM   C4B17317  16.202   2.464  12.581 -0.0020  0.0264  0.1057
 1477DOPE   NH317318  23.497   5.301   9.947  0.1841 -0.1413 -0.1710
 1477DOPE   PO417319  23.632   5.605   9.935 -0.2263 -0.3032  0.2682
 1477DOPE   GL117320  23.711   5.692  10.419 -0.3205 -0.1977 -0.2598
 1477DOPE   GL217321  23.462   5.715  10.558  0.1043  0.0991 -0.0314
 1477DOPE   C1A17322  23.991   5.747  10.759 -0.0708 -0.6142  0.0336
 1477DOPE   D2A17323  24.150   5.930  11.176  0.1484  0.2356  0.0697
 1477DOPE   C3A17324  24.422   6.095  11.527 -0.0050  0.2090 -0.1452
 1477DOPE   C4A17325  24.713   6.257  11.877 -0.1433  0.1121 -0.3643
 1477DOPE   C1B17326  23.207   5.746  11.022 -0.0574  0.2171 -0.1547
 1477DOPE   D2B17327  23.025   5.933  11.413 -0.3040 -0.0439 -0.3777
 1477DOPE   C3B17328  22.859   5.551  11.690 -0.0464  0.3452  0.1529
 1477DOPE   C4B17329  22.415   5.343  11.547  0.1946 -0.0662  0.2231
 1478DOPE   NH317330  20.444   9.539   9.460 -0.2982  0.1254 -0.1306
 1478DOPE   PO417331  20.724   9.392   9.612 -0.0477 -0.1944 -0.1267
 1478DOPE   GL117332  21.010   9.504   9.756 -0.4271 -0.2157  0.1294
 1478DOPE   GL217333  21.232   9.714   9.895 -0.2549 -0.1118 -0.0129
 1478DOPE   C1A17334  21.189   9.214  10.108  0.1245 -0.0893  0.1958
 1478DOPE   D2A17335  21.073   8.861  10.418 -0.1386  0.0046  0.5530
 1478DOPE   C3A17336  20.662   8.607  10.353 -0.1017  0.1226 -0.2535
 1478DOPE   C4A17337  20.212   8.583  10.487  0.1879  0.0403 -0.0377
 1478DOPE   C1B17338  20.926   9.714  10.217  0.1377 -0.2222  0.4155
 1478DOPE   D2B17339  20.671  10.078  10.400 -0.0551 -0.3142  0.1532
 1478DOPE   C3B17340  20.905  10.387  10.671 -0.2289  0.1360  0.1715
 1478DOPE   C4B17341  21.207  10.408  10.903  0.1687  0.0339 -0.1946
 1479DOPE   NH317342  14.658   4.477  11.196  0.3154  0.1090 -0.3430
 1479DOPE   PO417343  14.908   4.630  11.205 -0.0580  0.1302  0.3130
 1479DOPE   GL117344  14.896   4.523  11.648  0.3159  0.0873 -0.0485
 1479DOPE   GL217345  14.641   4.624  11.700  0.4171  0.1756  0.1619
 1479DOPE   C1A17346  14.980   4.769  12.048 -0.0997  0.0127 -0.1294
 1479DOPE   D2A17347  15.022   4.893  12.546  0.1101  0.1227 -0.1462
 1479DOPE   C3A17348  15.365   5.181  12.594  0.1703  0.0488 -0.2177
 1479DOPE   C4A17349  15.840   5.218  12.538 -0.2024 -0.1362 -0.3508
 1479DOPE   C1B17350  14.566   4.546  12.158  0.0154 -0.0435 -0.1245
 1479DOPE   D2B17351  14.907   4.397  12.398  0.0862 -0.0867  0.0034
 1479DOPE   C3B17352  14.848   4.248  12.873 -0.3447 -0.1250 -0.1482
 1479DOPE   C4B17353  14.457   4.180  13.069 -0.2008  0.0692  0.2400
 1480DOPE   NH317354  12.231   1.022  12.147 -0.1827 -0.0093  0.2848
 1480DOPE   PO417355  12.282   0.765  12.353  0.4751 -0.0144  0.0003
 1480DOPE   GL117356  12.646   0.684  12.578  0.0885  0.2105 -0.0880
 1480DOPE   GL217357  12.665   0.769  12.804 -0.1860 -0.0028  0.1133
 1480DOPE   C1A17358  13.070   0.521  12.770  0.3563  0.3713 -0.1470
 1480DOPE   D2A17359  13.461   0.583  12.661 -0.3027 -0.0192  0.1416
 1480DOPE   C3A17360  13.625   0.691  13.105 -0.4875 -0.2142 -0.1701
 1480DOPE   C4A17361  13.738   0.667  13.538  0.0922  0.0855  0.0207
 1480DOPE   C1B17362  12.869   0.953  13.217 -0.2169  0.2032  0.1140
 1480DOPE   D2B17363  12.934   1.209  13.567  0.1894 -0.0330 -0.0469
 1480DOPE   C3B17364  12.984   0.913  13.953 -0.0335  0.1630 -0.0581
 1480DOPE   C4B17365  13.059   0.789  14.377  0.0472  0.0478 -0.0958
 1481POSM   NC317366  10.612   2.038  13.085 -0.0234 -0.1788 -0.0237
 1481POSM   PO417367  10.972   2.093  13.091 -0.2736 -0.4600 -0.2964
 1481POSM   AM117368  11.168   2.149  13.343 -0.0491  0.1597  0.3187
 1481POSM   AM217369  11.402   2.104  13.422 -0.3806 -0.3154 -0.1146
 1481POSM   T1A17370  11.147   2.093  13.865 -0.1447  0.4502 -0.1238
 1481POSM   C2A17371  11.033   2.248  14.272 -0.2434  0.1632 -0.0878
 1481POSM   C3A17372  10.877   2.150  14.723 -0.2676  0.0876 -0.0527
 1481POSM   C1B17373  11.487   2.461  13.548  0.2412 -0.1597  0.0819
 1481POSM   D2B17374  11.513   2.831  13.832 -0.0806 -0.0605 -0.0380
 1481POSM   C3B17375  11.264   2.855  14.254  0.1037  0.0059 -0.2114
 1481POSM   C4B17376  11.112   2.610  14.616  0.4179 -0.2326  0.1284
 1482DOPC   NC317377  19.936   9.233   9.289 -0.0566  0.2259 -0.0055
 1482DOPC   PO417378  20.299   9.077   9.386 -0.1863  0.1054  0.0156
 1482DOPC   GL117379  20.272   9.248   9.733 -0.1064  0.1433  0.5047
 1482DOPC   GL217380  20.059   9.418   9.744  0.2903 -0.1554  0.1063
 1482DOPC   C1A17381  20.215   9.001  10.133 -0.1813  0.1826 -0.2919
 1482DOPC   D2A17382  20.388   9.033  10.579 -0.0073  0.2329  0.1777
 1482DOPC   C3A17383  20.346   8.946  10.992  0.0620 -0.0252  0.2335
 1482DOPC   C4A17384  20.120   8.837  11.463  0.0518  0.1573  0.1598
 1482DOPC   C1B17385  20.249   9.475  10.163 -0.2107  0.1266 -0.1803
 1482DOPC   D2B17386  20.461   9.588  10.554  0.3536 -0.3081  0.0906
 1482DOPC   C3B17387  20.234   9.431  10.926  0.0573  0.2727 -0.0041
 1482DOPC   C4B17388  19.951   9.372  11.273  0.0511 -0.1145 -0.1954
 1483DOPC   NC317389  14.532   8.040  10.732  0.0184 -0.2187  0.0811
 1483DOPC   PO417390  14.137   7.978  10.726 -0.4161 -0.1132  0.0608
 1483DOPC   GL117391  13.968   8.126  11.086 -0.0244  0.2356  0.1424
 1483DOPC   GL217392  14.204   8.138  11.203 -0.2228 -0.2533  0.1150
 1483DOPC   C1A17393  13.763   7.991  11.480 -0.0568  0.2027 -0.2746
 1483DOPC   D2A17394  13.817   8.175  11.918 -0.0351  0.0601 -0.1090
 1483DOPC   C3A17395  13.672   8.047  12.369 -0.0336  0.1606  0.1821
 1483DOPC   C4A17396  13.275   7.940  12.597 -0.4904  0.2039  0.0460
 1483DOPC   C1B17397  14.592   8.031  11.476  0.1689  0.0313 -0.1085
 1483DOPC   D2B17398  14.752   7.992  11.945  0.3165 -0.1212  0.2636
 1483DOPC   C3B17399  14.712   8.312  12.281 -0.0252 -0.0554 -0.0407
 1483DOPC   C4B17400  14.932   8.334  12.694 -0.1341  0.1237  0.0323
 1484POSM   NC317401  11.119   6.881  12.028  0.1838 -0.0007  0.2552
 1484POSM   PO417402  10.751   7.059  12.089 -0.2390 -0.2163  0.2712
 1484POSM   AM117403  10.893   7.068  12.373  0.1862 -0.2929 -0.0086
 1484POSM   AM217404  10.790   7.168  12.649 -0.0498  0.0958 -0.3160
 1484POSM   T1A17405  11.351   7.046  12.617 -0.0892 -0.1360 -0.0817
 1484POSM   C2A17406  11.705   7.037  12.814  0.0863  0.2838  0.0185
 1484POSM   C3A17407  11.848   6.776  13.204 -0.1836 -0.2882  0.0140
 1484POSM   C1B17408  10.973   7.343  12.831 -0.0169 -0.2535 -0.0140
 1484POSM   D2B17409  11.125   7.526  13.239  0.0347 -0.0984  0.0182
 1484POSM   C3B17410  11.116   7.572  13.715  0.0736  0.0676 -0.0632
 1484POSM   C4B17411  11.308   7.766  14.117  0.4737  0.1155  0.1368
 1485POSM   NC317412  17.140   7.319   9.817 -0.2374  0.1105 -0.1322
 1485POSM   PO417413  17.537   7.341   9.682 -0.0816  0.0013  0.0636
 1485POSM   AM117414  17.790   7.378   9.902  0.0500  0.0372 -0.1618
 1485POSM   AM217415  18.032   7.209   9.977 -0.0289 -0.3691  0.1202
 1485POSM   T1A17416  18.110   7.710  10.151  0.0936 -0.2878 -0.1079
 1485POSM   C2A17417  18.375   7.886  10.461 -0.0103 -0.1880 -0.3061
 1485POSM   C3A17418  18.726   7.981  10.732  0.2262 -0.1820 -0.0044
 1485POSM   C1B17419  17.953   7.247  10.308 -0.0362 -0.1523 -0.2345
 1485POSM   D2B17420  17.921   7.469  10.755  0.0651 -0.0185  0.0729
 1485POSM   C3B17421  18.126   7.315  11.140  0.0134 -0.1770  0.2872
 1485POSM   C4B17422  17.955   7.250  11.595  0.0285 -0.0793 -0.2274
 1486DOPS   CNO17423  17.033   1.300  10.551  0.0497  0.2124 -0.2175
 1486DOPS   PO417424  17.039   1.679  10.681 -0.1838  0.3917  0.3606
 1486DOPS   GL117425  17.343   1.629  11.011  0.1436  0.2620  0.0267
 1486DOPS   GL217426  17.244   1.396  11.146  0.2940  0.0831  0.1298
 1486DOPS   C1A17427  17.673   1.506  11.344 -0.0549  0.3571  0.0677
 1486DOPS   D2A17428  17.683   1.096  11.520  0.1019 -0.1220 -0.1175
 1486DOPS   C3A17429  17.640   1.128  12.005 -0.2564  0.2927  0.1560
 1486DOPS   C4A17430  17.659   1.064  12.486 -0.0414 -0.2554 -0.1164
 1486DOPS   C1B17431  17.103   1.749  11.373 -0.1640  0.3172  0.0170
 1486DOPS   D2B17432  17.101   2.106  11.685  0.0593 -0.2332  0.0474
 1486DOPS   C3B17433  17.444   2.111  11.983 -0.1312  0.2298 -0.2172
 1486DOPS   C4B17434  17.545   1.881  12.333  0.0060  0.1653 -0.1318
 1487DOPE   NH317435  18.933   6.644   9.494 -0.1884 -0.0318  0.0489
 1487DOPE   PO417436  18.662   6.544   9.613  0.2282 -0.2001  0.0294
 1487DOPE   GL117437  18.420   6.626   9.969  0.2039 -0.0714  0.1415
 1487DOPE   GL217438  18.372   6.414  10.058 -0.1306 -0.0291 -0.2305
 1487DOPE   C1A17439  18.356   6.884  10.346 -0.2715 -0.2003 -0.1580
 1487DOPE   D2A17440  18.294   6.898  10.786 -0.1888  0.1616  0.1803
 1487DOPE   C3A17441  18.569   7.114  11.086 -0.2255 -0.0475 -0.0411
 1487DOPE   C4A17442  18.917   7.131  11.458  0.2564 -0.0611 -0.1996
 1487DOPE   C1B17443  18.421   6.349  10.557 -0.1698 -0.0068 -0.0178
 1487DOPE   D2B17444  18.596   5.915  10.685 -0.0696  0.1411  0.0771
 1487DOPE   C3B17445  19.046   5.765  10.879  0.1338 -0.1511 -0.2578
 1487DOPE   C4B17446  19.214   5.819  11.335 -0.0051  0.3084  0.1283
 1488DOPC   NC317447  18.808   4.706  10.414 -0.0836  0.0571  0.0256
 1488DOPC   PO417448  18.783   5.102  10.342 -0.5136  0.0238 -0.1511
 1488DOPC   GL117449  18.687   5.137  10.709 -0.1039 -0.0956 -0.3436
 1488DOPC   GL217450  18.440   5.032  10.822 -0.1500 -0.0492  0.1927
 1488DOPC   C1A17451  18.841   5.236  11.125 -0.1621  0.1024  0.1841
 1488DOPC   D2A17452  19.153   5.263  11.430 -0.0748 -0.0696  0.0868
 1488DOPC   C3A17453  19.038   5.180  11.851 -0.1926 -0.0001 -0.3425
 1488DOPC   C4A17454  19.001   5.167  12.346 -0.1464 -0.1237 -0.0673
 1488DOPC   C1B17455  18.406   5.131  11.282  0.1722 -0.0930  0.2039
 1488DOPC   D2B17456  18.587   5.380  11.574  0.0355  0.1184  0.0387
 1488DOPC   C3B17457  18.274   5.562  11.857  0.3957  0.0569  0.2105
 1488DOPC   C4B17458  18.238   5.679  12.319 -0.1195 -0.1272 -0.1797
 1489DOPC   NC317459  15.592   8.058  10.471 -0.3146 -0.0347  0.3096
 1489DOPC   PO417460  15.301   7.917  10.245  0.0569 -0.1222 -0.3861
 1489DOPC   GL117461  15.336   7.702  10.624 -0.1124 -0.1698 -0.1084
 1489DOPC   GL217462  15.439   7.414  10.526  0.1463  0.3473  0.1650
 1489DOPC   C1A17463  15.567   7.547  11.024 -0.0221 -0.2468  0.1186
 1489DOPC   D2A17464  15.960   7.601  11.242  0.0067  0.0389  0.1982
 1489DOPC   C3A17465  16.107   7.930  11.501  0.1455  0.3040  0.2619
 1489DOPC   C4A17466  16.397   8.254  11.709  0.3931 -0.1791 -0.2133
 1489DOPC   C1B17467  15.858   7.605  10.556  0.0372 -0.2738  0.0465
 1489DOPC   D2B17468  15.927   7.980  10.811 -0.1277 -0.0418 -0.1952
 1489DOPC   C3B17469  15.765   8.123  11.182  0.1421 -0.1862 -0.2759
 1489DOPC   C4B17470  15.586   7.840  11.502  0.1685 -0.1209  0.1597
 1490DOPC   NC317471  13.871   7.679  11.106 -0.0408 -0.0510  0.0293
 1490DOPC   PO417472  14.224   7.523  11.040  0.1365  0.2724 -0.2862
 1490DOPC   GL117473  14.427   7.779  11.198 -0.0810 -0.3106 -0.0311
 1490DOPC   GL217474  14.714   7.670  11.100  0.0597 -0.0174  0.2063
 1490DOPC   C1A17475  14.655   7.591  11.553 -0.1946  0.1062  0.3507
 1490DOPC   D2A17476  14.664   7.474  11.943 -0.1776 -0.2467 -0.1412
 1490DOPC   C3A17477  14.901   7.209  12.255 -0.1251  0.0713  0.0615
 1490DOPC   C4A17478  14.808   6.882  12.544  0.1646 -0.1367  0.1026
 1490DOPC   C1B17479  15.145   7.839  11.226  0.0329  0.6264  0.0420
 1490DOPC   D2B17480  15.202   8.217  11.472 -0.1982 -0.1553 -0.1919
 1490DOPC   C3B17481  15.368   8.159  11.903 -0.2558  0.2857 -0.1565
 1490DOPC   C4B17482  15.308   8.195  12.324  0.1763  0.0778  0.1447
 1491DOPE   NH317483  18.278   1.373  10.583  0.0517 -0.0898  0.1575
 1491DOPE   PO417484  18.150   1.657  10.576 -0.0343 -0.1006 -0.2249
 1491DOPE   GL117485  18.224   1.859  10.943  0.2410  0.1951 -0.0944
 1491DOPE   GL217486  18.173   2.119  10.838 -0.1448 -0.2212 -0.2652
 1491DOPE   C1A17487  17.811   1.940  11.186  0.1795  0.1006  0.1424
 1491DOPE   D2A17488  17.649   2.059  11.594 -0.4275 -0.1599  0.1458
 1491DOPE   C3A17489  17.692   1.644  11.891 -0.0268  0.1050 -0.1403
 1491DOPE   C4A17490  17.825   1.496  12.327  0.1327 -0.2156  0.2555
 1491DOPE   C1B17491  18.645   2.113  10.981  0.3499  0.0012 -0.5159
 1491DOPE   D2B17492  19.072   1.976  10.980 -0.3603  0.1047  0.1106
 1491DOPE   C3B17493  19.465   1.985  11.233 -0.2002 -0.0588  0.0857
 1491DOPE   C4B17494  19.565   2.035  11.673 -0.1075 -0.1116  0.0243
 1492DOPC   NC317495  22.296   7.737   9.752  0.0631  0.0561  0.3593
 1492DOPC   PO417496  22.558   7.475   9.886  0.1638 -0.4739 -0.1868
 1492DOPC   GL117497  22.491   7.729  10.309 -0.0439  0.1657  0.0531
 1492DOPC   GL217498  22.791   7.655  10.441 -0.0577  0.0994  0.1324
 1492DOPC   C1A17499  22.331   7.469  10.621 -0.0009 -0.0917 -0.0267
 1492DOPC   D2A17500  22.129   7.350  11.014 -0.0721 -0.1621 -0.1182
 1492DOPC   C3A17501  21.950   7.614  11.357  0.1419 -0.0770 -0.0757
 1492DOPC   C4A17502  22.022   7.809  11.797  0.4191  0.0382  0.0743
 1492DOPC   C1B17503  22.625   7.966  10.672  0.2130  0.0407  0.0371
 1492DOPC   D2B17504  22.334   7.869  10.932  0.1695 -0.0017  0.1024
 1492DOPC   C3B17505  21.943   7.817  10.716  0.0425 -0.2695 -0.1879
 1492DOPC   C4B17506  21.485   7.872  10.623 -0.0109  0.2416 -0.0439
 1493POSM   NC317507  12.511   5.620  11.205 -0.0162  0.4680 -0.2748
 1493POSM   PO417508  12.867   5.631  11.009 -0.1666 -0.0617 -0.3013
 1493POSM   AM117509  13.079   5.599  11.255  0.1312  0.0219 -0.1632
 1493POSM   AM217510  13.270   5.446  11.417  0.1354 -0.0608 -0.0280
 1493POSM   T1A17511  13.267   5.902  11.666 -0.1958 -0.2246 -0.0987
 1493POSM   C2A17512  13.468   6.069  12.099 -0.0416  0.0067 -0.0591
 1493POSM   C3A17513  13.644   6.404  12.377 -0.1438  0.0074  0.1308
 1493POSM   C1B17514  13.329   5.315  11.708  0.1874 -0.2851 -0.0027
 1493POSM   D2B17515  13.442   5.126  12.047 -0.0128  0.0674  0.1498
 1493POSM   C3B17516  13.641   4.845  12.196  0.3245  0.0033 -0.2371
 1493POSM   C4B17517  13.759   4.864  12.670  0.0615 -0.0116 -0.0918
 1494DOPS   CNO17518  16.206  34.168  11.186 -0.1310 -0.2105  0.1726
 1494DOPS   PO417519  16.376  33.902  11.405  0.2782 -0.1710 -0.1646
 1494DOPS   GL117520  16.383  34.100  11.746  0.4294 -0.0973  0.3029
 1494DOPS   GL217521  16.506  33.849  11.887 -0.2624 -0.1525 -0.0145
 1494DOPS   C1A17522  16.686  34.271  12.054  0.0798  0.0093  0.0208
 1494DOPS   D2A17523  17.131  34.254  12.164  0.0634 -0.1483  0.1661
 1494DOPS   C3A17524  17.253  34.021  12.548 -0.0839  0.3562  0.1320
 1494DOPS   C4A17525  17.414  33.699  12.834  0.2062 -0.3035 -0.0595
 1494DOPS   C1B17526  16.521  33.756  12.334  0.0020  0.1545  0.1331
 1494DOPS   D2B17527  16.486  33.545  12.780  0.1261 -0.4682 -0.3349
 1494DOPS   C3B17528  16.511  33.841  13.099  0.3798  0.2729  0.0962
 1494DOPS   C4B17529  16.640  34.191  13.305  0.4823  0.0142 -0.0995
 1495DOPE   NH317530  11.156   5.512  12.445  0.3079 -0.1135  0.1362
 1495DOPE   PO417531  10.915   5.711  12.562  0.1652 -0.0855  0.0848
 1495DOPE   GL117532  11.169   5.815  12.846  0.1036 -0.1276 -0.2350
 1495DOPE   GL217533  11.513   5.892  12.721  0.0057  0.1408 -0.2173
 1495DOPE   C1A17534  11.276   5.995  13.254 -0.1144  0.1215  0.2455
 1495DOPE   D2A17535  11.524   5.977  13.633 -0.2487 -0.0694  0.4463
 1495DOPE   C3A17536  11.952   6.022  13.785  0.1412  0.1558 -0.0985
 1495DOPE   C4A17537  12.171   6.359  13.981  0.3703  0.0136  0.2776
 1495DOPE   C1B17538  11.468   5.504  12.947  0.3740  0.0605 -0.2616
 1495DOPE   D2B17539  11.611   5.110  13.054  0.1016  0.1053  0.0929
 1495DOPE   C3B17540  11.824   5.116  13.465 -0.1209  0.2371  0.3693
 1495DOPE   C4B17541  12.267   5.152  13.626  0.2938 -0.0659  0.1128
 1496POSM   NC317542  12.042   1.284  12.863 -0.0298  0.0203  0.1561
 1496POSM   PO417543  11.867   1.616  12.965  0.2107  0.3864  0.3106
 1496POSM   AM117544  11.913   1.855  13.164  0.3333  0.0116 -0.1660
 1496POSM   AM217545  11.836   1.877  13.453  0.0058  0.0082  0.1335
 1496POSM   T1A17546  12.115   2.295  13.355  0.1243 -0.1848  0.1513
 1496POSM   C2A17547  12.440   2.554  13.543  0.0861 -0.1597  0.2291
 1496POSM   C3A17548  12.738   2.956  13.706  0.0995 -0.0264  0.2768
 1496POSM   C1B17549  11.887   1.719  13.774  0.0414  0.1179 -0.1057
 1496POSM   D2B17550  12.114   1.779  14.145  0.0313  0.0613  0.1587
 1496POSM   C3B17551  11.902   1.648  14.536 -0.1156  0.0441  0.1670
 1496POSM   C4B17552  11.469   1.591  14.688 -0.2318 -0.1541  0.5163
 1497DOPC   NC317553  18.180   4.141  10.474  0.0837 -0.0952  0.0378
 1497DOPC   PO417554  17.973   4.421  10.324 -0.0019 -0.3089 -0.0397
 1497DOPC   GL117555  18.061   4.628  10.496 -0.4274 -0.0074 -0.1070
 1497DOPC   GL217556  18.379   4.557  10.679  0.1041  0.1392  0.0218
 1497DOPC   C1A17557  18.019   4.748  10.935  0.1845 -0.1230  0.0457
 1497DOPC   D2A17558  17.867   5.142  11.124 -0.0939 -0.1856  0.0716
 1497DOPC   C3A17559  17.967   5.277  11.566 -0.2367  0.2217  0.2543
 1497DOPC   C4A17560  18.012   5.005  11.968  0.1192  0.3541  0.1851
 1497DOPC   C1B17561  18.626   4.654  11.103 -0.4095 -0.2188 -0.0128
 1497DOPC   D2B17562  18.801   4.904  11.444 -0.1884  0.0570  0.1100
 1497DOPC   C3B17563  18.890   4.522  11.705  0.1909  0.0165 -0.3050
 1497DOPC   C4B17564  18.656   4.198  11.940 -0.0609 -0.0110  0.1649
 1498DOPS   CNO17565  14.338   2.102  11.604 -0.0889 -0.2024  0.2960
 1498DOPS   PO417566  14.124   1.846  11.427  0.0676  0.3021 -0.1198
 1498DOPS   GL117567  14.006   1.863  11.901  0.1307  0.0888  0.3230
 1498DOPS   GL217568  13.877   2.046  12.053 -0.1144 -0.0411 -0.3144
 1498DOPS   C1A17569  14.152   1.726  12.337  0.1628 -0.2392  0.1908
 1498DOPS   D2A17570  14.079   1.400  12.637  0.0093 -0.1226  0.2501
 1498DOPS   C3A17571  14.245   1.583  13.051 -0.0012  0.0301  0.0473
 1498DOPS   C4A17572  14.364   1.763  13.475  0.0599  0.0202 -0.2055
 1498DOPS   C1B17573  14.267   2.252  12.061 -0.1708  0.0670 -0.1490
 1498DOPS   D2B17574  14.549   2.543  12.277  0.1471 -0.3437 -0.1805
 1498DOPS   C3B17575  14.750   2.512  12.740 -0.0980 -0.0723  0.2762
 1498DOPS   C4B17576  14.609   2.571  13.239 -0.0466  0.3593  0.2502
 1499DOPC   NC317577  11.780   5.320  11.666  0.2149  0.0890 -0.1034
 1499DOPC   PO417578  11.595   5.238  12.030  0.2774 -0.0897  0.2269
 1499DOPC   GL117579  11.541   4.993  12.323 -0.0623  0.1407  0.2084
 1499DOPC   GL217580  11.542   5.189  12.504 -0.3553  0.2702  0.3879
 1499DOPC   C1A17581  11.871   4.836  12.589 -0.0884 -0.0227  0.0613
 1499DOPC   D2A17582  11.926   4.767  13.039  0.1250  0.0163  0.1337
 1499DOPC   C3A17583  11.980   4.317  13.143 -0.0365  0.0511  0.0209
 1499DOPC   C4A17584  12.087   3.907  13.359  0.1039  0.1913 -0.2630
 1499DOPC   C1B17585  12.033   5.283  12.495  0.2623 -0.0471 -0.1527
 1499DOPC   D2B17586  12.483   5.188  12.325  0.1831  0.0331  0.1258
 1499DOPC   C3B17587  12.844   5.426  12.507 -0.0277  0.0415  0.2825
 1499DOPC   C4B17588  13.201   5.524  12.791 -0.0853  0.2091  0.0987
 1500DOPC   NC317589  16.429   5.271  10.808 -0.0777  0.1598 -0.0940
 1500DOPC   PO417590  16.566   5.610  10.651 -0.4368 -0.0686 -0.1664
 1500DOPC   GL117591  16.601   5.604  11.137  0.0903 -0.0965 -0.0979
 1500DOPC   GL217592  16.316   5.595  11.216  0.0813  0.3705 -0.0794
 1500DOPC   C1A17593  17.029   5.572  11.267  0.0659  0.3674  0.0155
 1500DOPC   D2A17594  17.279   5.222  11.414  0.1284 -0.1199  0.2484
 1500DOPC   C3A17595  17.529   5.090  11.752  0.1529  0.1131  0.0473
 1500DOPC   C4A17596  17.651   4.665  11.907  0.0598 -0.1285  0.0285
 1500DOPC   C1B17597  16.529   5.392  11.554  0.1782 -0.1812 -0.0381
 1500DOPC   D2B17598  16.577   5.321  11.996 -0.0001 -0.1017  0.3116
 1500DOPC   C3B17599  16.791   5.691  12.311  0.0919  0.0617  0.2007
 1500DOPC   C4B17600  17.058   5.923  12.598  0.1762  0.0066 -0.0913
 1501DOPE   NH317601  15.539   3.886  10.968 -0.0694 -0.1834 -0.1762
 1501DOPE   PO417602  15.623   3.817  11.277  0.4816 -0.1343  0.2168
 1501DOPE   GL117603  15.648   3.745  11.650  0.1484  0.1236 -0.4069
 1501DOPE   GL217604  15.475   3.984  11.751  0.0159  0.3336  0.1159
 1501DOPE   C1A17605  16.032   3.700  11.902 -0.1151 -0.0248 -0.3102
 1501DOPE   D2A17606  16.318   3.943  12.238  0.0185 -0.2455 -0.1819
 1501DOPE   C3A17607  16.726   3.987  12.108  0.1558 -0.3424 -0.1889
 1501DOPE   C4A17608  17.133   3.815  12.168 -0.1745 -0.2348 -0.2580
 1501DOPE   C1B17609  15.799   4.107  12.086 -0.0151 -0.3681 -0.0913
 1501DOPE   D2B17610  15.950   4.198  12.524 -0.1732  0.0952  0.1013
 1501DOPE   C3B17611  15.986   4.609  12.803 -0.2250  0.1767 -0.2358
 1501DOPE   C4B17612  16.225   4.945  13.054 -0.2596 -0.0228 -0.0096
 1502DOPC   NC317613  13.160   3.708  11.874  0.0528  0.0649  0.0530
 1502DOPC   PO417614  13.392   3.387  11.934 -0.3197 -0.1426 -0.2797
 1502DOPC   GL117615  13.387   3.361  12.295 -0.0636  0.0225 -0.1047
 1502DOPC   GL217616  13.306   3.608  12.395  0.4218  0.1800 -0.4418
 1502DOPC   C1A17617  13.199   3.023  12.521  0.0908  0.4495  0.0950
 1502DOPC   D2A17618  12.863   2.683  12.586  0.1630 -0.0355  0.0088
 1502DOPC   C3A17619  12.988   2.332  12.826  0.1345 -0.0482 -0.0844
 1502DOPC   C4A17620  13.232   2.319  13.211  0.2783 -0.0892 -0.3918
 1502DOPC   C1B17621  13.603   3.664  12.789 -0.2064 -0.1331  0.1556
 1502DOPC   D2B17622  13.857   3.801  13.165  0.0743  0.1359  0.1006
 1502DOPC   C3B17623  13.545   4.026  13.436  0.1732  0.1862 -0.2069
 1502DOPC   C4B17624  13.299   4.042  13.846 -0.0029  0.4137 -0.1244
 1503DOPC   NC317625  17.569  10.393   9.023 -0.0306  0.3375  0.2471
 1503DOPC   PO417626  17.812  10.080   9.103 -0.1888  0.0838  0.0507
 1503DOPC   GL117627  17.490  10.155   9.430 -0.1450  0.2518 -0.1532
 1503DOPC   GL217628  17.164  10.250   9.378  0.2049  0.0304  0.0020
 1503DOPC   C1A17629  17.465  10.423   9.819 -0.1912  0.0689  0.2013
 1503DOPC   D2A17630  17.501  10.689  10.222  0.1520 -0.0626  0.1990
 1503DOPC   C3A17631  17.518  10.496  10.621 -0.3386  0.1777 -0.1153
 1503DOPC   C4A17632  17.248  10.409  10.998  0.2470  0.0473  0.0613
 1503DOPC   C1B17633  17.216   9.828   9.571  0.2448 -0.0200 -0.0523
 1503DOPC   D2B17634  17.162   9.485   9.907 -0.2388 -0.3536  0.0224
 1503DOPC   C3B17635  17.152   9.527  10.382 -0.0813 -0.1194  0.1597
 1503DOPC   C4B17636  16.894   9.459  10.780  0.1157 -0.0695  0.2452
 1504POSM   NC317637  14.561   8.998   9.448  0.0353 -0.0946  0.0604
 1504POSM   PO417638  14.719   9.300   9.650 -0.2741  0.1227  0.1091
 1504POSM   AM117639  14.762   9.336   9.963  0.0573 -0.0826 -0.0980
 1504POSM   AM217640  14.900   9.482  10.116 -0.1026 -0.0658  0.1619
 1504POSM   T1A17641  14.525   9.623  10.339  0.1390 -0.0732 -0.1310
 1504POSM   C2A17642  14.432   9.524  10.784 -0.1646  0.1192  0.4205
 1504POSM   C3A17643  14.429   9.567  11.240  0.0610  0.0037  0.3852
 1504POSM   C1B17644  15.112   9.723  10.214  0.0591  0.3754  0.0257
 1504POSM   D2B17645  15.212  10.052  10.545 -0.2708  0.6181  0.2491
 1504POSM   C3B17646  15.357  10.401  10.811  0.3147  0.3184  0.1099
 1504POSM   C4B17647  15.613  10.753  10.778 -0.3406  0.0133 -0.0378
 1505DOPE   NH317648  16.467   4.131  11.257 -0.1605 -0.1607  0.1646
 1505DOPE   PO417649  16.601   3.894  11.111 -0.0472  0.1037 -0.1053
 1505DOPE   GL117650  16.812   3.619  11.364 -0.1844  0.1453 -0.0180
 1505DOPE   GL217651  16.797   3.756  11.596 -0.2568 -0.0181  0.0281
 1505DOPE   C1A17652  17.222   3.733  11.464 -0.1550 -0.0939 -0.0695
 1505DOPE   D2A17653  17.616   3.741  11.678  0.3957 -0.1851  0.1034
 1505DOPE   C3A17654  17.527   3.491  12.078 -0.2761 -0.0305  0.1091
 1505DOPE   C4A17655  17.774   3.281  12.382  0.3088  0.2342  0.1737
 1505DOPE   C1B17656  16.934   3.419  11.760 -0.0351  0.0381  0.0756
 1505DOPE   D2B17657  16.966   3.146  12.109 -0.1756 -0.0414  0.0065
 1505DOPE   C3B17658  17.097   3.385  12.447 -0.1087  0.1024 -0.2298
 1505DOPE   C4B17659  17.045   3.781  12.707  0.3369 -0.2773 -0.0405
 1506DOPS   CNO17660  15.737   4.348  11.120  0.1281 -0.4333 -0.3673
 1506DOPS   PO417661  16.097   4.423  11.176  0.2929 -0.0094 -0.1243
 1506DOPS   GL117662  16.310   4.482  11.486 -0.3102  0.2301 -0.1174
 1506DOPS   GL217663  16.610   4.568  11.502  0.2355  0.1653  0.0443
 1506DOPS   C1A17664  15.973   4.703  11.706 -0.0003 -0.0074 -0.1653
 1506DOPS   D2A17665  16.000   5.082  12.042  0.0083  0.1136 -0.0997
 1506DOPS   C3A17666  16.302   5.065  12.380  0.1624  0.0049  0.2814
 1506DOPS   C4A17667  16.787   4.968  12.354  0.2251  0.0367 -0.2384
 1506DOPS   C1B17668  16.419   4.936  11.659  0.1067 -0.0307  0.0569
 1506DOPS   D2B17669  16.029   5.193  11.496  0.0256  0.0975  0.1949
 1506DOPS   C3B17670  16.027   5.506  11.811  0.1604  0.0465  0.1092
 1506DOPS   C4B17671  16.172   5.516  12.272 -0.1981 -0.1582 -0.1258
 1507DOPC   NC317672  12.424   8.965  10.317 -0.2524 -0.0659  0.1108
 1507DOPC   PO417673  12.793   9.034  10.246 -0.1726  0.0052  0.0295
 1507DOPC   GL117674  13.001   9.237  10.527 -0.0035 -0.1915 -0.3057
 1507DOPC   GL217675  13.023   9.461  10.359 -0.1259  0.0708  0.1713
 1507DOPC   C1A17676  13.218   9.509  10.835  0.0079  0.0292  0.2565
 1507DOPC   D2A17677  13.221   9.912  11.054 -0.0112 -0.4333  0.2757
 1507DOPC   C3A17678  13.173  10.034  11.521  0.1347 -0.3725 -0.0384
 1507DOPC   C4A17679  12.998  10.226  11.915  0.1771 -0.0839  0.3952
 1507DOPC   C1B17680  13.381   9.680  10.208  0.1802 -0.2086 -0.2449
 1507DOPC   D2B17681  13.520  10.116  10.203  0.0618  0.1016  0.1427
 1507DOPC   C3B17682  13.775  10.463  10.247 -0.2195  0.1300  0.0289
 1507DOPC   C4B17683  13.930  10.848  10.471 -0.0176  0.1301 -0.0552
 1508DOPE   NH317684  10.136   5.231  13.028  0.6125 -0.3046  0.0990
 1508DOPE   PO417685  10.379   5.366  12.845  0.3539 -0.0250  0.0479
 1508DOPE   GL117686  10.546   5.428  13.211 -0.0569 -0.1306 -0.0450
 1508DOPE   GL217687  10.305   5.617  13.335  0.0367  0.1516 -0.0892
 1508DOPE   C1A17688  10.889   5.252  13.479  0.0912 -0.0012  0.1058
 1508DOPE   D2A17689  11.031   5.240  13.881 -0.1149  0.2234  0.1381
 1508DOPE   C3A17690  11.282   5.533  13.960  0.0741 -0.0414 -0.1332
 1508DOPE   C4A17691  11.537   5.879  14.097  0.2033  0.1715  0.2025
 1508DOPE   C1B17692  10.639   5.613  13.707 -0.0425  0.3050  0.2851
 1508DOPE   D2B17693  10.861   5.797  14.140 -0.0834 -0.4783  0.1681
 1508DOPE   C3B17694  11.107   6.236  14.126 -0.0173  0.3500  0.2132
 1508DOPE   C4B17695  11.516   6.529  14.238  0.0270 -0.1491  0.0187
 1509DOPE   NH317696  17.457   5.201  10.111  0.2817 -0.1045  0.2936
 1509DOPE   PO417697  17.490   5.268  10.446  0.3732  0.3229 -0.2953
 1509DOPE   GL117698  17.664   5.370  10.749 -0.2694 -0.0996 -0.2347
 1509DOPE   GL217699  17.873   5.576  10.656  0.2032  0.3422  0.2531
 1509DOPE   C1A17700  17.551   5.518  11.170  0.0840 -0.4319  0.0686
 1509DOPE   D2A17701  17.378   5.724  11.583  0.1154  0.1525 -0.1416
 1509DOPE   C3A17702  16.964   5.626  11.830  0.3508  0.3978  0.2059
 1509DOPE   C4A17703  16.579   5.864  11.842 -0.3138  0.1168  0.0620
 1509DOPE   C1B17704  18.106   5.963  10.772 -0.2626  0.2391  0.0771
 1509DOPE   D2B17705  18.096   6.422  10.911  0.0699 -0.1752 -0.0956
 1509DOPE   C3B17706  18.526   6.539  10.997  0.0399 -0.1372 -0.3732
 1509DOPE   C4B17707  18.891   6.730  11.119 -0.0044  0.1826 -0.1118
 1510POSM   NC317708  19.014   9.647   8.843 -0.3633 -0.0579 -0.1103
 1510POSM   PO417709  19.247   9.837   9.074  0.0994  0.0667  0.0684
 1510POSM   AM117710  19.133  10.028   9.294  0.0274 -0.0622  0.0368
 1510POSM   AM217711  18.916  10.114   9.472  0.0259  0.0330  0.0150
 1510POSM   T1A17712  19.288   9.941   9.766  0.4622  0.1427  0.2633
 1510POSM   C2A17713  19.178   9.921  10.214  0.2549  0.0180  0.2919
 1510POSM   C3A17714  19.221   9.954  10.655 -0.0526  0.0052 -0.0482
 1510POSM   C1B17715  18.824  10.198   9.779 -0.1256 -0.1352  0.0433
 1510POSM   D2B17716  19.070  10.422  10.053  0.1285  0.3716  0.0035
 1510POSM   C3B17717  18.921  10.313  10.502 -0.0189 -0.2397  0.1495
 1510POSM   C4B17718  18.926  10.454  10.909  0.2872  0.4101 -0.2719
 1511POSM   NC317719  18.845  10.326   8.982  0.1638  0.2882 -0.0390
 1511POSM   PO417720  18.923  10.690   9.009 -0.2173  0.0805  0.2493
 1511POSM   AM117721  19.018  10.622   9.316  0.0221  0.1565 -0.0829
 1511POSM   AM217722  18.917  10.722   9.544  0.2584 -0.6131 -0.1013
 1511POSM   T1A17723  19.429  10.528   9.622  0.3407  0.2531  0.0528
 1511POSM   C2A17724  19.737  10.311   9.869  0.1125 -0.1587 -0.0394
 1511POSM   C3A17725  19.996  10.240  10.290  0.0121  0.0688 -0.0019
 1511POSM   C1B17726  18.600  10.800   9.667 -0.1795 -0.0302 -0.1691
 1511POSM   D2B17727  18.428  10.921  10.092 -0.0827  0.3001  0.0297
 1511POSM   C3B17728  18.341  11.217  10.422 -0.0622 -0.1416  0.0442
 1511POSM   C4B17729  18.485  11.618  10.575  0.2053 -0.2537 -0.0033
 1512DOPC   NC317730  10.665   6.168  12.534  0.0020  0.0908 -0.0499
 1512DOPC   PO417731  10.356   6.236  12.749 -0.0992 -0.1820  0.2464
 1512DOPC   GL117732  10.449   6.267  13.075 -0.4609 -0.0209 -0.0226
 1512DOPC   GL217733  10.201   6.102  13.244  0.1069  0.2964 -0.3221
 1512DOPC   C1A17734  10.658   5.970  13.404 -0.0366 -0.0665  0.2363
 1512DOPC   D2A17735  10.995   6.040  13.680  0.0410  0.1301  0.0038
 1512DOPC   C3A17736  11.057   6.495  13.755  0.0166  0.2650 -0.0200
 1512DOPC   C4A17737  11.390   6.811  13.842  0.0099  0.0437  0.1976
 1512DOPC   C1B17738  10.196   6.002  13.710  0.1876 -0.1879  0.1357
 1512DOPC   D2B17739  10.349   5.817  14.117  0.1789  0.1211  0.2399
 1512DOPC   C3B17740  10.314   6.116  14.510  0.0864 -0.1474  0.2682
 1512DOPC   C4B17741  10.024   6.268  14.819 -0.2865  0.0183 -0.4403
 1513DOPC   NC317742  13.691   8.334  10.675  0.0224  0.0729 -0.1794
 1513DOPC   PO417743  13.310   8.394  10.599 -0.0604 -0.1151  0.2568
 1513DOPC   GL117744  13.386   8.670  10.984 -0.0590 -0.0621 -0.2014
 1513DOPC   GL217745  13.098   8.542  11.091 -0.3714  0.0762 -0.2272
 1513DOPC   C1A17746  13.765   8.496  11.261 -0.1189  0.0814 -0.1320
 1513DOPC   D2A17747  14.101   8.548  11.567 -0.0058 -0.0197  0.1563
 1513DOPC   C3A17748  14.198   8.458  12.013  0.3100 -0.0807  0.3022
 1513DOPC   C4A17749  13.828   8.528  12.293  0.0441 -0.0929  0.2000
 1513DOPC   C1B17750  13.289   8.400  11.538  0.1921  0.4015  0.0273
 1513DOPC   D2B17751  13.268   8.329  12.041  0.1113  0.1008  0.2643
 1513DOPC   C3B17752  12.873   8.324  12.301 -0.1440 -0.0920  0.1129
 1513DOPC   C4B17753  12.783   8.344  12.754  0.3110  0.0111 -0.0352
 1514DOPC   NC317754  16.563   7.080   9.455  0.0588  0.1709  0.0885
 1514DOPC   PO417755  16.479   7.075   9.805 -0.3627  0.1061  0.0364
 1514DOPC   GL117756  16.598   6.973  10.238  0.1737 -0.3011  0.3051
 1514DOPC   GL217757  16.908   6.892  10.230  0.1568  0.1119 -0.1409
 1514DOPC   C1A17758  16.629   7.163  10.649 -0.0559 -0.0281 -0.3498
 1514DOPC   D2A17759  16.844   7.464  11.000  0.0649  0.1377  0.0140
 1514DOPC   C3A17760  16.608   7.827  11.140  0.2873 -0.1212  0.0952
 1514DOPC   C4A17761  16.347   8.197  11.082  0.1701  0.0737  0.0680
 1514DOPC   C1B17762  17.101   6.706  10.677  0.2230 -0.3169 -0.0389
 1514DOPC   D2B17763  17.112   6.515  11.038  0.0497 -0.2235  0.3701
 1514DOPC   C3B17764  17.039   6.504  11.455  0.1554 -0.1435 -0.4254
 1514DOPC   C4B17765  16.609   6.358  11.627  0.4317  0.1417 -0.0304
 1515POSM   NC317766  11.528   3.272  12.672 -0.0420  0.0209 -0.2753
 1515POSM   PO417767  11.768   3.414  12.350 -0.3427 -0.3260  0.2630
 1515POSM   AM117768  11.936   3.603  12.613  0.1094  0.0292 -0.0957
 1515POSM   AM217769  12.135   3.685  12.788  0.3769 -0.2480  0.3398
 1515POSM   T1A17770  12.001   4.097  12.579  0.1839 -0.0714 -0.4578
 1515POSM   C2A17771  12.231   4.428  12.667 -0.1438 -0.0260 -0.2087
 1515POSM   C3A17772  12.433   4.793  12.654  0.4224 -0.0946  0.2066
 1515POSM   C1B17773  12.318   3.960  12.897 -0.0964 -0.1489 -0.0567
 1515POSM   D2B17774  12.472   4.337  13.153 -0.1098 -0.0466  0.3140
 1515POSM   C3B17775  12.468   4.782  13.198 -0.0788  0.0309  0.0002
 1515POSM   C4B17776  12.257   5.148  12.973  0.2223 -0.1068 -0.0917
 1516DOPC   NC317777  13.196  11.962   9.643  0.0014 -0.0153  0.0808
 1516DOPC   PO417778  12.995  11.653   9.589  0.0727 -0.2000 -0.1993
 1516DOPC   GL117779  13.056  11.765  10.035  0.2415 -0.2812  0.2837
 1516DOPC   GL217780  13.011  11.511  10.194  0.2003  0.1634  0.0585
 1516DOPC   C1A17781  13.339  11.997  10.252 -0.0233  0.0997 -0.0615
 1516DOPC   D2A17782  13.316  12.234  10.621  0.1714  0.4393  0.0297
 1516DOPC   C3A17783  12.906  12.400  10.706 -0.2833 -0.1979  0.1944
 1516DOPC   C4A17784  12.577  12.710  10.872 -0.0855 -0.0701  0.1899
 1516DOPC   C1B17785  13.453  11.551  10.306  0.2749 -0.0267  0.0079
 1516DOPC   D2B17786  13.833  11.783  10.217 -0.1224 -0.1020  0.0946
 1516DOPC   C3B17787  14.029  12.218  10.145 -0.0992  0.1896 -0.2724
 1516DOPC   C4B17788  14.149  12.626  10.300  0.1348 -0.0697  0.0909
 1517POSM   NC317789  19.754   7.439   9.738  0.0373  0.0167 -0.3094
 1517POSM   PO417790  19.946   7.164   9.619  0.2442  0.1615  0.2430
 1517POSM   AM117791  20.074   7.092   9.923  0.0856  0.0714 -0.1707
 1517POSM   AM217792  20.274   6.960  10.059 -0.1509  0.0471  0.2708
 1517POSM   T1A17793  20.048   7.180  10.399  0.0056  0.3502  0.4385
 1517POSM   C2A17794  20.120   7.199  10.881 -0.2696  0.2170  0.3408
 1517POSM   C3A17795  20.436   7.395  11.130 -0.1821 -0.1179 -0.0908
 1517POSM   C1B17796  20.490   6.888  10.366  0.0612 -0.0499 -0.3860
 1517POSM   D2B17797  20.581   6.858  10.837 -0.2726 -0.2098  0.2236
 1517POSM   C3B17798  20.970   7.008  11.077  0.4933  0.1628  0.1372
 1517POSM   C4B17799  21.147   6.968  11.498 -0.2374 -0.1295  0.1310
 1518DOPS   CNO17800  21.134   2.496  10.240  0.1426 -0.0555  0.2300
 1518DOPS   PO417801  21.441   2.442  10.016  0.2963  0.0430  0.3197
 1518DOPS   GL117802  21.513   2.355  10.419  0.1034  0.0986 -0.0722
 1518DOPS   GL217803  21.618   2.625  10.436 -0.0559  0.1619  0.3666
 1518DOPS   C1A17804  21.487   2.116  10.774 -0.0623  0.1302  0.0536
 1518DOPS   D2A17805  21.338   1.735  11.012  0.0722 -0.0038  0.0027
 1518DOPS   C3A17806  21.473   1.652  11.456  0.1144  0.0141 -0.0462
 1518DOPS   C4A17807  21.447   1.574  11.928 -0.3340 -0.0970 -0.0372
 1518DOPS   C1B17808  21.581   2.631  10.893  0.4086  0.7121  0.1081
 1518DOPS   D2B17809  21.317   2.710  11.290  0.2046  0.1455  0.0034
 1518DOPS   C3B17810  21.007   3.035  11.369 -0.0404 -0.0904  0.1451
 1518DOPS   C4B17811  20.622   2.996  11.633  0.3870  0.1568  0.3679
 1519DOPC   NC317812  17.077   5.480  10.312 -0.1288  0.0544  0.0413
 1519DOPC   PO417813  16.868   5.170  10.516  0.1709 -0.0766  0.3810
 1519DOPC   GL117814  16.973   5.318  10.853 -0.2228  0.1946  0.3219
 1519DOPC   GL217815  17.177   5.433  10.789  0.0588  0.1446 -0.0922
 1519DOPC   C1A17816  17.297   4.970  11.022 -0.3228 -0.3837  0.2966
 1519DOPC   D2A17817  17.522   4.681  11.318  0.1719  0.2534  0.0331
 1519DOPC   C3A17818  17.939   4.822  11.479  0.0345  0.1767 -0.2541
 1519DOPC   C4A17819  18.375   4.771  11.626 -0.1835  0.3007 -0.0131
 1519DOPC   C1B17820  17.109   5.887  10.810 -0.0097 -0.0269  0.2346
 1519DOPC   D2B17821  17.314   6.091  11.160 -0.2067 -0.4219  0.1878
 1519DOPC   C3B17822  17.411   6.242  11.606 -0.0384 -0.3649  0.1025
 1519DOPC   C4B17823  17.531   6.423  12.029 -0.4742 -0.0576  0.0018
 1520DOPS   CNO17824  10.049   9.815  11.127 -0.1042  0.0629 -0.3876
 1520DOPS   PO417825   9.768   9.993  11.333 -0.0658  0.0436 -0.2403
 1520DOPS   GL117826  10.082  10.163  11.572  0.3463  0.1418 -0.0935
 1520DOPS   GL217827  10.299  10.185  11.407  0.0160  0.1820  0.0335
 1520DOPS   C1A17828   9.960  10.325  12.021  0.2147 -0.2291  0.0858
 1520DOPS   D2A17829   9.929  10.454  12.490  0.1646  0.1693  0.1571
 1520DOPS   C3A17830  10.256  10.581  12.767  0.1286 -0.2203  0.2605
 1520DOPS   C4A17831  10.451  10.803  13.115 -0.2580 -0.0915  0.2463
 1520DOPS   C1B17832  10.483  10.279  11.824  0.0733 -0.2123 -0.2378
 1520DOPS   D2B17833  10.466  10.280  12.312  0.1048 -0.0504  0.0084
 1520DOPS   C3B17834  10.844  10.471  12.545 -0.0225  0.0798  0.2570
 1520DOPS   C4B17835  11.035  10.856  12.695  0.0293  0.0976 -0.2457
 1521DOPE   NH317836  12.497   9.447  10.189 -0.1345 -0.2133 -0.2451
 1521DOPE   PO417837  12.215   9.446  10.343 -0.1108  0.0356 -0.0685
 1521DOPE   GL117838  12.557   9.369  10.633 -0.1034 -0.2837 -0.1138
 1521DOPE   GL217839  12.554   9.161  10.774  0.0548 -0.3121  0.3756
 1521DOPE   C1A17840  12.756   9.522  11.052  0.0072  0.1536 -0.1013
 1521DOPE   D2A17841  13.071   9.572  11.384 -0.1902  0.0088  0.0208
 1521DOPE   C3A17842  12.887   9.703  11.759 -0.3119 -0.1488 -0.4044
 1521DOPE   C4A17843  12.856   9.647  12.220 -0.0768  0.1614 -0.3786
 1521DOPE   C1B17844  12.886   8.973  11.050  0.0160 -0.1368  0.3109
 1521DOPE   D2B17845  13.267   9.134  11.162 -0.0027 -0.2451  0.2042
 1521DOPE   C3B17846  13.536   9.536  11.231  0.0825  0.0198 -0.3533
 1521DOPE   C4B17847  13.684   9.960  11.269 -0.2340  0.1245 -0.1000
 1522DOPE   NH317848  21.351   3.632  10.011 -0.1089  0.1536 -0.1554
 1522DOPE   PO417849  21.173   3.370   9.989 -0.1227  0.2469  0.0635
 1522DOPE   GL117850  21.130   3.322  10.387 -0.1044 -0.4607 -0.0892
 1522DOPE   GL217851  20.997   3.085  10.379 -0.1034  0.0725  0.2520
 1522DOPE   C1A17852  21.133   3.563  10.776  0.1129 -0.2335  0.0565
 1522DOPE   D2A17853  21.288   3.523  11.232  0.1551 -0.3805 -0.0031
 1522DOPE   C3A17854  21.450   3.655  11.615 -0.0451  0.0491 -0.3028
 1522DOPE   C4A17855  21.376   3.947  12.025 -0.0641 -0.3374 -0.1130
 1522DOPE   C1B17856  20.862   3.141  10.874 -0.0646 -0.0442  0.1557
 1522DOPE   D2B17857  20.653   2.829  11.148 -0.2826 -0.2143  0.1186
 1522DOPE   C3B17858  20.205   2.730  11.068  0.1081  0.2285 -0.2625
 1522DOPE   C4B17859  19.770   2.802  11.255 -0.1186 -0.0453  0.1216
 1523DOPE   NH317860  18.862   2.688  10.373  0.2807 -0.0968 -0.2227
 1523DOPE   PO417861  19.017   2.778  10.650  0.1666  0.0430 -0.2560
 1523DOPE   GL117862  18.620   2.794  10.817 -0.1633 -0.0292  0.2980
 1523DOPE   GL217863  18.747   2.833  11.090  0.1636 -0.1431 -0.2435
 1523DOPE   C1A17864  18.293   2.570  11.070 -0.1596  0.0459 -0.0451
 1523DOPE   D2A17865  18.299   2.228  11.350  0.0247  0.0459  0.2654
 1523DOPE   C3A17866  18.615   1.898  11.458 -0.3034  0.0721  0.1166
 1523DOPE   C4A17867  19.045   1.705  11.421  0.0479  0.0414 -0.1395
 1523DOPE   C1B17868  18.684   2.513  11.436 -0.0886  0.2825 -0.3505
 1523DOPE   D2B17869  18.590   2.305  11.821 -0.2104 -0.1016  0.1789
 1523DOPE   C3B17870  18.848   1.923  11.981 -0.2218 -0.3722 -0.1979
 1523DOPE   C4B17871  19.225   1.710  11.960  0.0747  0.0890  0.1582
 1524DOPC   NC317872  15.313   4.429  11.439  0.1178  0.1040  0.0750
 1524DOPC   PO417873  15.063   4.108  11.434 -0.0335  0.1541 -0.0765
 1524DOPC   GL117874  14.657   4.142  11.654 -0.1650  0.0123  0.2928
 1524DOPC   GL217875  14.747   4.156  11.957 -0.0593 -0.0955  0.0653
 1524DOPC   C1A17876  14.403   3.816  11.902  0.2308 -0.0522 -0.1525
 1524DOPC   D2A17877  14.413   3.365  11.947 -0.1271 -0.5220 -0.0526
 1524DOPC   C3A17878  14.581   3.100  12.339  0.1039  0.0535 -0.0771
 1524DOPC   C4A17879  14.911   3.030  12.689  0.0984  0.0087  0.1591
 1524DOPC   C1B17880  15.123   4.021  12.160  0.0951  0.1900  0.0909
 1524DOPC   D2B17881  15.396   3.666  12.142 -0.0528 -0.2583  0.1259
 1524DOPC   C3B17882  15.776   3.739  12.429  0.2808 -0.3086 -0.1226
 1524DOPC   C4B17883  15.744   3.881  12.860 -0.0361 -0.0399 -0.3828
 1525DOPS   CNO17884  25.034   7.996   9.808 -0.1447 -0.0616 -0.1528
 1525DOPS   PO417885  24.784   7.940  10.076 -0.1928  0.0950 -0.4752
 1525DOPS   GL117886  24.553   7.890  10.476  0.3067 -0.1814  0.0685
 1525DOPS   GL217887  24.592   8.145  10.501 -0.0312  0.1101  0.2890
 1525DOPS   C1A17888  24.134   7.858  10.567  0.0302 -0.1289  0.0607
 1525DOPS   D2A17889  23.796   8.089  10.399 -0.0684  0.0557 -0.3670
 1525DOPS   C3A17890  23.442   8.279  10.639  0.2095 -0.2124 -0.1183
 1525DOPS   C4A17891  23.024   8.205  10.873 -0.0995 -0.0405  0.0479
 1525DOPS   C1B17892  24.554   7.959  10.937 -0.2772 -0.1276  0.0899
 1525DOPS   D2B17893  24.570   8.084  11.410  0.2622 -0.0967  0.0279
 1525DOPS   C3B17894  24.658   7.829  11.787  0.1320  0.3715  0.0953
 1525DOPS   C4B17895  24.946   7.485  11.881  0.2295 -0.1858 -0.1317
 1526DOPS   CNO17896  17.486  11.227   8.841  0.2550 -0.2735 -0.1820
 1526DOPS   PO417897  17.345  10.836   8.837  0.0942  0.0323 -0.1213
 1526DOPS   GL117898  17.241  11.001   9.219 -0.1100 -0.1091  0.2297
 1526DOPS   GL217899  17.439  10.837   9.366  0.2985  0.1619 -0.3168
 1526DOPS   C1A17900  17.265  11.325   9.600 -0.3426  0.4131 -0.2503
 1526DOPS   D2A17901  16.960  11.444   9.899  0.2933  0.2806  0.1446
 1526DOPS   C3A17902  16.755  11.104  10.076  0.1133 -0.0374  0.1445
 1526DOPS   C4A17903  16.446  10.733  10.004  0.1649  0.0382  0.1566
 1526DOPS   C1B17904  17.568  10.933   9.780  0.1396  0.1214  0.0709
 1526DOPS   D2B17905  17.339  11.229  10.139  0.0944 -0.1951 -0.2397
 1526DOPS   C3B17906  17.182  10.974  10.501 -0.1864 -0.3008 -0.0536
 1526DOPS   C4B17907  17.325  10.863  10.869 -0.0378 -0.1535  0.2498
 1527DOPC   NC317908  15.862   9.114   9.727 -0.2103  0.1043 -0.3369
 1527DOPC   PO417909  16.200   9.140   9.578 -0.2977  0.1309  0.0576
 1527DOPC   GL117910  16.359   9.373   9.870 -0.1432  0.1449 -0.4360
 1527DOPC   GL217911  16.638   9.362   9.816  0.1584 -0.1166 -0.0296
 1527DOPC   C1A17912  16.387   9.282  10.327 -0.0264  0.0031 -0.0405
 1527DOPC   D2A17913  16.346   9.014  10.704  0.1513  0.2707 -0.2041
 1527DOPC   C3A17914  16.200   9.299  11.061  0.3730 -0.1764  0.2704
 1527DOPC   C4A17915  15.984   9.624  11.420  0.1267  0.0098 -0.0115
 1527DOPC   C1B17916  16.667   9.703  10.164  0.0415  0.2794  0.0221
 1527DOPC   D2B17917  16.688   9.971  10.553 -0.0854  0.0755  0.0451
 1527DOPC   C3B17918  16.993  10.295  10.579  0.1367 -0.0866  0.1873
 1527DOPC   C4B17919  17.033  10.558  10.245  0.0129  0.0241  0.2668
 1528DOPS   CNO17920  11.947   5.945  11.434 -0.0190  0.0781  0.0655
 1528DOPS   PO417921  12.104   5.596  11.450 -0.2737  0.1336  0.0193
 1528DOPS   GL117922  12.232   5.689  11.823 -0.1085 -0.1147  0.1266
 1528DOPS   GL217923  11.994   5.839  12.051 -0.0501  0.0197  0.1842
 1528DOPS   C1A17924  12.486   5.684  12.249 -0.1065  0.1393  0.1351
 1528DOPS   D2A17925  12.384   5.638  12.655  0.4893 -0.2412  0.1996
 1528DOPS   C3A17926  12.446   5.690  13.109  0.0156 -0.0724  0.1640
 1528DOPS   C4A17927  12.590   5.677  13.561 -0.1690 -0.0648  0.1751
 1528DOPS   C1B17928  11.957   5.868  12.505  0.1706  0.1399 -0.2238
 1528DOPS   D2B17929  11.969   5.592  12.896 -0.1033 -0.0251 -0.2030
 1528DOPS   C3B17930  11.816   5.561  13.297  0.3805 -0.4704  0.0081
 1528DOPS   C4B17931  11.399   5.505  13.506  0.1214 -0.2628 -0.1374
 1529DOPS   CNO17932  13.729   4.537  11.121  0.2348  0.0669 -0.2283
 1529DOPS   PO417933  13.642   4.919  11.169  0.1676  0.3399 -0.1574
 1529DOPS   GL117934  13.573   4.980  11.567  0.4729 -0.0890  0.1275
 1529DOPS   GL217935  13.800   5.026  11.658  0.2286 -0.2017 -0.0255
 1529DOPS   C1A17936  13.457   4.625  11.809  0.0154 -0.1984 -0.0025
 1529DOPS   D2A17937  13.251   4.511  12.214 -0.0794 -0.0405  0.0964
 1529DOPS   C3A17938  13.639   4.431  12.494 -0.1685 -0.0332 -0.0634
 1529DOPS   C4A17939  13.634   4.234  12.912 -0.2353 -0.1348  0.0101
 1529DOPS   C1B17940  14.003   5.252  11.976 -0.2226  0.1594  0.3568
 1529DOPS   D2B17941  14.037   5.310  12.408  0.0152  0.2109 -0.1280
 1529DOPS   C3B17942  13.837   5.435  12.824 -0.1418 -0.1244  0.2059
 1529DOPS   C4B17943  13.554   5.615  13.153 -0.3629 -0.0921 -0.0602
 1530DOPC   NC317944  10.747   9.447  11.687 -0.2262 -0.0741 -0.0598
 1530DOPC   PO417945  10.541   9.090  11.760  0.2817  0.0035 -0.1009
 1530DOPC   GL117946  10.424   9.129  12.119  0.2451 -0.0173  0.0649
 1530DOPC   GL217947  10.340   9.426  12.049  0.2346  0.0895 -0.0855
 1530DOPC   C1A17948  10.411   9.343  12.531 -0.0322 -0.0344 -0.0782
 1530DOPC   D2A17949  10.203   9.414  12.944  0.1442  0.3060  0.2106
 1530DOPC   C3A17950  10.382   9.474  13.366 -0.3630  0.2368  0.0506
 1530DOPC   C4A17951  10.770   9.727  13.455 -0.1652  0.1358 -0.1387
 1530DOPC   C1B17952  10.474   9.812  12.291  0.2288 -0.0738  0.1376
 1530DOPC   D2B17953  10.841   9.933  12.390 -0.1540  0.0207  0.0062
 1530DOPC   C3B17954  10.912  10.043  12.802  0.2519 -0.5430 -0.2216
 1530DOPC   C4B17955  11.153  10.399  13.007  0.2027 -0.2727  0.0925
 1531DOPE   NH317956  21.896   0.323   9.767 -0.2412 -0.2779  0.0518
 1531DOPE   PO417957  21.757   0.557   9.924  0.0626 -0.0421  0.2292
 1531DOPE   GL117958  21.558   0.613  10.244 -0.0686 -0.3201  0.1101
 1531DOPE   GL217959  21.189   0.502  10.259 -0.0293  0.0868 -0.0550
 1531DOPE   C1A17960  21.512   0.471  10.703  0.2146 -0.3138  0.0091
 1531DOPE   D2A17961  21.405   0.307  11.080 -0.1548 -0.4051 -0.5076
 1531DOPE   C3A17962  21.198   0.503  11.426  0.0456 -0.3842 -0.2730
 1531DOPE   C4A17963  20.940   0.664  11.826 -0.1085  0.0898  0.2879
 1531DOPE   C1B17964  21.153   0.934  10.502  0.5245  0.3186 -0.1329
 1531DOPE   D2B17965  21.228   1.322  10.719  0.1190 -0.2095  0.2956
 1531DOPE   C3B17966  20.904   1.469  11.124  0.2163 -0.0650  0.1742
 1531DOPE   C4B17967  20.643   1.561  11.552 -0.0035  0.0378 -0.2162
 1532DOPE   NH317968  11.569  13.540   9.398 -0.0949 -0.1704  0.1070
 1532DOPE   PO417969  11.724  13.752   9.593  0.0711 -0.1124  0.2783
 1532DOPE   GL117970  11.430  13.717   9.836  0.3353 -0.4830 -0.0564
 1532DOPE   GL217971  11.228  13.896   9.803 -0.0957 -0.0281 -0.0046
 1532DOPE   C1A17972  11.380  13.464  10.286 -0.1394 -0.1070  0.4598
 1532DOPE   D2A17973  11.580  13.308  10.658 -0.0575  0.1881 -0.1217
 1532DOPE   C3A17974  11.605  12.882  10.755 -0.0713  0.1573  0.1569
 1532DOPE   C4A17975  11.629  12.573  11.118 -0.0912 -0.1154 -0.1482
 1532DOPE   C1B17976  11.329  13.948  10.241  0.0705 -0.1304 -0.0940
 1532DOPE   D2B17977  11.394  13.826  10.681 -0.0911 -0.3223  0.0792
 1532DOPE   C3B17978  11.446  14.208  10.913  0.0350  0.2599  0.2659
 1532DOPE   C4B17979  11.575  14.164  11.380  0.1290  0.4995 -0.0782
 1533POSM   NC317980  17.060   3.766  10.971  0.2124 -0.0938 -0.2269
 1533POSM   PO417981  17.326   4.016  10.889 -0.0897 -0.2893  0.3661
 1533POSM   AM117982  17.338   4.087  11.199  0.0609  0.3601 -0.0773
 1533POSM   AM217983  17.566   4.148  11.371  0.0899 -0.2169 -0.2653
 1533POSM   T1A17984  17.145   4.153  11.642  0.0293  0.2793  0.2867
 1533POSM   C2A17985  16.860   4.448  11.939 -0.0587 -0.0933  0.2091
 1533POSM   C3A17986  16.832   4.427  12.397  0.2121 -0.1938  0.0616
 1533POSM   C1B17987  17.650   4.194  11.694 -0.0141  0.0974  0.4646
 1533POSM   D2B17988  17.840   4.184  12.181 -0.0426  0.0384 -0.0300
 1533POSM   C3B17989  17.717   4.627  12.378  0.2809 -0.0352 -0.0422
 1533POSM   C4B17990  17.595   5.046  12.256 -0.0433 -0.1956  0.0267
 1534DOPS   CNO17991  19.544   9.007   9.532 -0.3123 -0.0667  0.2064
 1534DOPS   PO417992  19.400   8.644   9.483 -0.0981 -0.0601  0.1682
 1534DOPS   GL117993  19.429   8.583   9.878  0.0953  0.0682  0.2162
 1534DOPS   GL217994  19.435   8.814   9.975  0.1602 -0.1292 -0.0815
 1534DOPS   C1A17995  19.435   8.390  10.320 -0.2698 -0.0097 -0.0270
 1534DOPS   D2A17996  19.792   8.268  10.591  0.1029 -0.0004 -0.1983
 1534DOPS   C3A17997  19.966   8.455  10.999 -0.0581  0.1516 -0.0819
 1534DOPS   C4A17998  20.320   8.403  11.285 -0.0117  0.0798  0.1354
 1534DOPS   C1B17999  19.568   9.224  10.111 -0.0868  0.1836  0.1876
 1534DOPS   D2B18000  19.857   9.349  10.413  0.1989  0.0937 -0.1485
 1534DOPS   C3B18001  19.908   9.036  10.762 -0.0222  0.2976  0.2091
 1534DOPS   C4B18002  19.665   9.001  11.164 -0.0564 -0.0612  0.2214
 1535DOPC   NC318003  16.346   1.259  11.064 -0.0766  0.0811  0.2011
 1535DOPC   PO418004  16.183   1.591  11.023  0.0245  0.0886  0.0498
 1535DOPC   GL118005  16.391   1.594  11.400 -0.0010 -0.0339  0.1873
 1535DOPC   GL218006  16.298   1.486  11.676  0.2879 -0.3178  0.1105
 1535DOPC   C1A18007  16.723   1.714  11.720 -0.3600  0.0964  0.0970
 1535DOPC   D2A18008  16.900   1.803  12.172  0.0872 -0.2080  0.4355
 1535DOPC   C3A18009  17.100   2.157  12.383  0.1227 -0.4065 -0.0633
 1535DOPC   C4A18010  17.435   2.428  12.366  0.2261  0.0953 -0.2772
 1535DOPC   C1B18011  16.381   1.527  12.131 -0.1124 -0.0929 -0.1217
 1535DOPC   D2B18012  16.655   1.552  12.523  0.1802 -0.1364  0.0176
 1535DOPC   C3B18013  17.030   1.716  12.677  0.1015 -0.0772 -0.1869
 1535DOPC   C4B18014  17.401   1.483  12.767 -0.1842 -0.2040  0.0043
 1536DOPE   NH318015  10.539   4.462  12.760  0.0092  0.0819  0.2140
 1536DOPE   PO418016  10.859   4.486  12.708 -0.1622 -0.1715 -0.0039
 1536DOPE   GL118017  10.933   4.523  13.084  0.4996  0.0001  0.0450
 1536DOPE   GL218018  10.758   4.286  13.201 -0.5066  0.2979 -0.0530
 1536DOPE   C1A18019  10.786   4.744  13.468 -0.2374 -0.1111  0.1400
 1536DOPE   D2A18020  10.649   4.941  13.805  0.3294 -0.2382 -0.2051
 1536DOPE   C3A18021  10.276   4.906  14.028  0.1968 -0.1194  0.2146
 1536DOPE   C4A18022   9.865   4.853  14.334  0.0239 -0.3151  0.1482
 1536DOPE   C1B18023  11.067   4.361  13.561 -0.0458 -0.1541 -0.4399
 1536DOPE   D2B18024  11.425   4.377  13.870 -0.0828 -0.6117  0.1501
 1536DOPE   C3B18025  11.373   4.440  14.325 -0.2626  0.1021 -0.4259
 1536DOPE   C4B18026  11.070   4.596  14.656  0.2210 -0.0993 -0.1590
 1537DOPS   CNO18027  16.798   3.427  10.340  0.1402  0.1557  0.1167
 1537DOPS   PO418028  16.720   3.434  10.745  0.0028  0.1844  0.1532
 1537DOPS   GL118029  16.910   3.228  11.059  0.1748  0.0415  0.2134
 1537DOPS   GL218030  17.151   3.314  11.237 -0.2496  0.1919 -0.2486
 1537DOPS   C1A18031  17.267   2.875  11.003  0.0692 -0.1838  0.1636
 1537DOPS   D2A18032  17.606   2.655  11.174  0.2655 -0.5236 -0.1062
 1537DOPS   C3A18033  17.891   2.458  11.411 -0.0240  0.0711  0.0451
 1537DOPS   C4A18034  18.185   2.514  11.723  0.0173  0.3565 -0.2347
 1537DOPS   C1B18035  17.381   3.225  11.633 -0.1022 -0.0332  0.3485
 1537DOPS   D2B18036  17.430   2.957  12.009  0.0019 -0.0733 -0.3608
 1537DOPS   C3B18037  17.317   2.942  12.476 -0.2633 -0.3829 -0.2100
 1537DOPS   C4B18038  17.588   2.889  12.823 -0.1257  0.0323  0.1507
 1538DOPS   CNO18039  20.250   8.474   9.500  0.1890 -0.2216 -0.2337
 1538DOPS   PO418040  20.369   8.089   9.452  0.3880  0.0539 -0.2802
 1538DOPS   GL118041  20.218   8.208   9.840  0.0715 -0.1178  0.1101
 1538DOPS   GL218042  20.275   8.484   9.988 -0.0138  0.1827 -0.2851
 1538DOPS   C1A18043  19.763   8.137  10.033  0.0398  0.1534  0.0388
 1538DOPS   D2A18044  19.479   7.912  10.293  0.0861 -0.0552  0.1152
 1538DOPS   C3A18045  19.366   7.927  10.778 -0.0773  0.0279 -0.2226
 1538DOPS   C4A18046  19.335   7.814  11.282 -0.0124 -0.3513 -0.1427
 1538DOPS   C1B18047  19.887   8.625  10.107  0.0832  0.2092 -0.2154
 1538DOPS   D2B18048  19.695   8.831  10.371  0.1327 -0.0233  0.0101
 1538DOPS   C3B18049  19.467   8.637  10.760 -0.0032  0.0752 -0.1293
 1538DOPS   C4B18050  19.134   8.733  11.120  0.1267 -0.0612 -0.1828
 1539DOPE   NH318051  10.087  11.651  10.315  0.6337 -0.2699 -0.0915
 1539DOPE   PO418052  10.032  11.693  10.620 -0.4265  0.0466 -0.1723
 1539DOPE   GL118053   9.968  11.895  10.891 -0.1883 -0.1461  0.2305
 1539DOPE   GL218054  10.091  12.175  10.798 -0.0865  0.5574  0.5643
 1539DOPE   C1A18055  10.106  12.066  11.275  0.0357 -0.0600 -0.2772
 1539DOPE   D2A18056  10.199  11.919  11.736  0.0796  0.4499  0.1279
 1539DOPE   C3A18057  10.186  11.506  11.933  0.2340  0.0144  0.0956
 1539DOPE   C4A18058  10.030  11.122  12.112  0.1937  0.1753  0.1013
 1539DOPE   C1B18059  10.014  12.516  11.094 -0.1647  0.0191 -0.0225
 1539DOPE   D2B18060  10.168  12.561  11.510  0.3365  0.0635 -0.0723
 1539DOPE   C3B18061   9.926  12.305  11.727  0.0372 -0.1237  0.1823
 1539DOPE   C4B18062   9.517  12.235  11.906  0.0763  0.2582 -0.1163
 1540DOPE   NH318063  15.615   6.083  10.943  0.0139  0.0721 -0.0897
 1540DOPE   PO418064  15.690   6.385  11.119 -0.0112  0.0984 -0.0296
 1540DOPE   GL118065  15.854   6.351  11.460  0.3778  0.2988  0.0570
 1540DOPE   GL218066  15.626   6.176  11.571 -0.1855  0.0976 -0.1023
 1540DOPE   C1A18067  16.086   6.438  11.765  0.0372 -0.2891 -0.0818
 1540DOPE   D2A18068  16.184   6.738  12.074 -0.0707  0.2459  0.0197
 1540DOPE   C3A18069  16.617   6.778  11.974  0.1273 -0.4889 -0.1215
 1540DOPE   C4A18070  17.072   6.779  11.967 -0.1941 -0.0054 -0.1060
 1540DOPE   C1B18071  15.523   5.745  11.794 -0.3442  0.1366  0.1885
 1540DOPE   D2B18072  15.550   5.258  11.699 -0.0501 -0.3625 -0.0538
 1540DOPE   C3B18073  15.444   4.910  11.933 -0.2050 -0.0577  0.4100
 1540DOPE   C4B18074  15.334   4.463  11.941 -0.2649  0.5536  0.0530
 1541POSM   NC318075  21.752   1.613  10.178 -0.1215  0.0586 -0.2679
 1541POSM   PO418076  22.131   1.515  10.128 -0.0264  0.1943 -0.0570
 1541POSM   AM118077  22.091   1.401  10.449 -0.0941  0.0210 -0.0176
 1541POSM   AM218078  22.074   1.156  10.576 -0.0040  0.2417  0.2720
 1541POSM   T1A18079  22.241   1.448  10.950 -0.0830 -0.1580  0.3092
 1541POSM   C2A18080  22.235   1.098  11.268 -0.1137  0.2033  0.1522
 1541POSM   C3A18081  22.135   0.888  11.676  0.5066  0.0072 -0.2244
 1541POSM   C1B18082  21.935   0.986  10.831 -0.2425 -0.3694 -0.0207
 1541POSM   D2B18083  22.025   0.621  11.058  0.0208 -0.0304 -0.2577
 1541POSM   C3B18084  21.923   0.158  11.055  0.2403 -0.0112 -0.3642
 1541POSM   C4B18085  21.909  -0.315  11.004  0.0427  0.5429 -0.3633
 1542DOPC   NC318086  20.291   4.483   9.669 -0.3100  0.1734  0.0465
 1542DOPC   PO418087  20.327   4.426  10.077 -0.6669 -0.2480 -0.1145
 1542DOPC   GL118088  20.324   4.446  10.457 -0.0215 -0.0946  0.1039
 1542DOPC   GL218089  20.389   4.231  10.635 -0.0408 -0.1859 -0.1704
 1542DOPC   C1A18090  20.493   4.805  10.635 -0.1988  0.0847  0.1079
 1542DOPC   D2A18091  20.579   4.910  11.058  0.2254 -0.1991  0.2678
 1542DOPC   C3A18092  20.349   5.312  11.262 -0.1751 -0.2699 -0.3545
 1542DOPC   C4A18093  20.442   5.611  11.601 -0.0493 -0.1793 -0.3670
 1542DOPC   C1B18094  20.334   4.422  11.097  0.1179 -0.3179  0.0747
 1542DOPC   D2B18095  20.434   4.580  11.491 -0.1697 -0.1265 -0.2746
 1542DOPC   C3B18096  20.119   4.676  11.781  0.3425  0.0817 -0.1873
 1542DOPC   C4B18097  19.940   4.613  12.195 -0.0201  0.1505 -0.0912
 1543DOPC   NC318098  13.808   5.362  11.230 -0.0062  0.1497 -0.0039
 1543DOPC   PO418099  14.168   5.335  11.356  0.0589  0.1701 -0.1847
 1543DOPC   GL118100  14.363   5.340  11.668 -0.3866  0.1111  0.1106
 1543DOPC   GL218101  14.423   5.075  11.797  0.0513  0.1510  0.1121
 1543DOPC   C1A18102  14.436   5.548  12.100  0.0085 -0.2407 -0.2191
 1543DOPC   D2A18103  14.585   5.666  12.521  0.0038 -0.1044  0.0798
 1543DOPC   C3A18104  14.263   5.722  12.853 -0.0713 -0.2764  0.0816
 1543DOPC   C4A18105  14.126   6.099  13.106 -0.1623  0.2264 -0.0176
 1543DOPC   C1B18106  14.457   5.063  12.224  0.0105 -0.2447  0.0180
 1543DOPC   D2B18107  14.557   4.806  12.583 -0.4104  0.2668 -0.0785
 1543DOPC   C3B18108  14.752   4.765  12.922 -0.1861  0.0761 -0.0769
 1543DOPC   C4B18109  14.851   4.727  13.397 -0.1106 -0.1809 -0.2891
 1544DOPE   NH318110  18.307  10.108   9.050 -0.0779  0.3103  0.2992
 1544DOPE   PO418111  18.600   9.953   9.070  0.0502 -0.1209  0.1333
 1544DOPE   GL118112  18.531   9.891   9.524 -0.1931 -0.1575  0.2643
 1544DOPE   GL218113  18.277  10.028   9.569 -0.0006 -0.2001  0.1682
 1544DOPE   C1A18114  18.694   9.614   9.867 -0.2251 -0.1573  0.0794
 1544DOPE   D2A18115  18.765   9.205  10.098 -0.0475  0.2468 -0.1391
 1544DOPE   C3A18116  18.490   8.964  10.274 -0.0696  0.0131 -0.1329
 1544DOPE   C4A18117  18.221   8.861  10.687 -0.0963  0.2555  0.4334
 1544DOPE   C1B18118  17.930  10.198   9.857 -0.1889  0.1503  0.2944
 1544DOPE   D2B18119  17.937  10.648   9.982 -0.1049 -0.0137  0.0851
 1544DOPE   C3B18120  18.047  10.549  10.370  0.0971  0.0934  0.1171
 1544DOPE   C4B18121  18.104  10.517  10.794  0.2211  0.1648  0.0239
 1545POSM   NC318122  19.701   9.924   9.315  0.0653 -0.0235  0.2017
 1545POSM   PO418123  19.989   9.709   9.321  0.0831  0.2015 -0.0693
 1545POSM   AM118124  19.990   9.848   9.638  0.1855 -0.1124 -0.3124
 1545POSM   AM218125  20.241   9.915   9.804  0.2267 -0.0836 -0.1624
 1545POSM   T1A18126  19.799   9.812  10.090 -0.0659 -0.0656  0.0357
 1545POSM   C2A18127  19.737   9.903  10.534 -0.2061 -0.1751  0.1162
 1545POSM   C3A18128  19.882   9.913  10.990 -0.1527  0.0519  0.0513
 1545POSM   C1B18129  20.335  10.252   9.978 -0.0854 -0.2126 -0.1049
 1545POSM   D2B18130  20.722  10.519  10.127  0.1369 -0.1170  0.3911
 1545POSM   C3B18131  20.715  10.832   9.834  0.1533 -0.0416 -0.2102
 1545POSM   C4B18132  20.455  10.967   9.491  0.0987 -0.1164  0.0088
 1546DOPE   NH318133  17.430   3.717  10.487 -0.0519  0.2388  0.2404
 1546DOPE   PO418134  17.708   3.824  10.592 -0.1052  0.0441 -0.1913
 1546DOPE   GL118135  17.775   4.062  10.910  0.1904  0.0368 -0.2549
 1546DOPE   GL218136  17.752   4.350  10.939 -0.2126 -0.2105  0.2552
 1546DOPE   C1A18137  18.301   4.164  10.963  0.0438 -0.0460  0.0578
 1546DOPE   D2A18138  18.563   3.861  11.170  0.5397 -0.1833  0.0752
 1546DOPE   C3A18139  18.365   3.537  11.429  0.1141 -0.0622 -0.2636
 1546DOPE   C4A18140  18.065   3.433  11.729  0.0123 -0.0175  0.0360
 1546DOPE   C1B18141  17.992   4.348  11.317 -0.0458  0.0340 -0.0641
 1546DOPE   D2B18142  18.433   4.291  11.422  0.1691  0.1274  0.0486
 1546DOPE   C3B18143  18.205   4.394  11.857  0.3077  0.1338  0.1851
 1546DOPE   C4B18144  18.268   4.600  12.286 -0.0653  0.4857 -0.0866
 1547DOPC   NC318145  20.163   5.412  10.403  0.0202 -0.0674 -0.2569
 1547DOPC   PO418146  20.243   5.500  10.027  0.4525 -0.0942  0.3887
 1547DOPC   GL118147  20.112   5.811  10.172 -0.1176  0.0127  0.1185
 1547DOPC   GL218148  20.299   6.056  10.183  0.1193 -0.3407  0.2058
 1547DOPC   C1A18149  19.830   6.154  10.438 -0.1120  0.2027  0.0314
 1547DOPC   D2A18150  19.581   6.206  10.802  0.1680  0.2365  0.5053
 1547DOPC   C3A18151  19.292   6.301  11.139  0.2644 -0.1137 -0.0435
 1547DOPC   C4A18152  19.103   6.362  11.573  0.1883  0.0303 -0.2927
 1547DOPC   C1B18153  20.206   5.891  10.619 -0.0503 -0.0072  0.2929
 1547DOPC   D2B18154  19.954   5.662  10.937  0.1201 -0.0276 -0.2999
 1547DOPC   C3B18155  19.692   5.900  11.222 -0.3702 -0.1399 -0.0105
 1547DOPC   C4B18156  19.670   6.303  11.471 -0.0124  0.0322 -0.1481
 1548DOPS   CNO18157  12.799   2.116  11.692 -0.0682 -0.0812 -0.1272
 1548DOPS   PO418158  12.798   1.977  12.052 -0.1280 -0.2257 -0.0045
 1548DOPS   GL118159  13.135   1.927  12.304  0.0653 -0.1509  0.2201
 1548DOPS   GL218160  13.197   2.014  12.534 -0.1729 -0.1412 -0.0816
 1548DOPS   C1A18161  13.272   1.566  12.621 -0.1223 -0.1734 -0.0434
 1548DOPS   D2A18162  13.663   1.492  12.925  0.1115 -0.3474  0.1810
 1548DOPS   C3A18163  13.817   1.632  13.432  0.1355  0.0306  0.3759
 1548DOPS   C4A18164  13.765   1.988  13.674 -0.0296  0.0182  0.1253
 1548DOPS   C1B18165  13.239   1.843  13.002  0.2129 -0.2677  0.0550
 1548DOPS   D2B18166  13.386   1.904  13.406 -0.0740  0.1305  0.1841
 1548DOPS   C3B18167  13.185   1.617  13.762 -0.1301  0.1981  0.0697
 1548DOPS   C4B18168  13.029   1.398  14.072  0.2645  0.1000  0.1103
 1549DOPE   NH318169  11.648   9.994  10.666  0.0212  0.0039  0.2228
 1549DOPE   PO418170  11.925   9.846  10.758 -0.3129  0.3131  0.1669
 1549DOPE   GL118171  11.882   9.703  11.114 -0.1766 -0.1450  0.0170
 1549DOPE   GL218172  11.695   9.615  11.336  0.3407 -0.0861 -0.1067
 1549DOPE   C1A18173  12.219   9.634  11.412 -0.0719  0.4806  0.2629
 1549DOPE   D2A18174  12.380   9.647  11.938  0.1855 -0.1756  0.0676
 1549DOPE   C3A18175  12.223   9.281  12.183  0.1411  0.3260 -0.0211
 1549DOPE   C4A18176  12.225   8.761  12.175 -0.0629  0.0820  0.1869
 1549DOPE   C1B18177  11.806   9.555  11.770 -0.1736 -0.0087  0.0699
 1549DOPE   D2B18178  11.989   9.731  12.225  0.2858 -0.0206 -0.2025
 1549DOPE   C3B18179  11.819   9.979  12.579 -0.1312  0.0963  0.0551
 1549DOPE   C4B18180  11.550  10.090  12.939 -0.1719  0.0458  0.1451
 1550DOPE   NH318181  14.224   5.856  11.206 -0.2930 -0.1000  0.1696
 1550DOPE   PO418182  13.930   5.845  11.209  0.3204 -0.1029  0.0018
 1550DOPE   GL118183  13.770   5.837  11.563 -0.1900 -0.2849  0.0074
 1550DOPE   GL218184  13.970   5.638  11.673 -0.0645  0.1969  0.2736
 1550DOPE   C1A18185  14.036   6.121  11.901 -0.0484  0.0693 -0.1579
 1550DOPE   D2A18186  14.328   6.421  12.024 -0.1586  0.0712  0.1000
 1550DOPE   C3A18187  14.568   6.314  12.402  0.0254 -0.0149  0.2601
 1550DOPE   C4A18188  14.585   6.108  12.798  0.1845  0.1790 -0.0107
 1550DOPE   C1B18189  13.765   5.656  12.069 -0.2385 -0.0346 -0.2324
 1550DOPE   D2B18190  13.971   5.828  12.435 -0.1580 -0.0212  0.0080
 1550DOPE   C3B18191  14.135   6.295  12.604  0.3925  0.0273  0.1126
 1550DOPE   C4B18192  14.409   6.568  12.808  0.2524  0.1085 -0.3293
 1551DOPS   CNO18193  22.211   9.544   9.065  0.0965 -0.1562 -0.3389
 1551DOPS   PO418194  21.988   9.719   9.279  0.3484 -0.0465 -0.1746
 1551DOPS   GL118195  22.290   9.762   9.488  0.1907 -0.0263  0.2483
 1551DOPS   GL218196  22.337  10.047   9.638  0.1560 -0.1253  0.0605
 1551DOPS   C1A18197  22.065   9.745   9.908  0.0779 -0.1652 -0.2468
 1551DOPS   D2A18198  22.051   9.986  10.284 -0.1818  0.0125  0.3061
 1551DOPS   C3A18199  22.099  10.417  10.454 -0.1430 -0.0474 -0.0255
 1551DOPS   C4A18200  21.767  10.660  10.676  0.1756  0.1681 -0.2686
 1551DOPS   C1B18201  22.562  10.116  10.022 -0.0487  0.0884  0.1606
 1551DOPS   D2B18202  22.549  10.232  10.439 -0.0174  0.0840 -0.2045
 1551DOPS   C3B18203  22.671  10.171  10.922  0.2425  0.0521  0.1540
 1551DOPS   C4B18204  22.475   9.927  11.334 -0.2923  0.2095 -0.0129
 1552DOPE   NH318205  22.466   4.906  10.122  0.0434  0.0355 -0.0622
 1552DOPE   PO418206  22.660   4.752  10.314 -0.2551 -0.0167 -0.3239
 1552DOPE   GL118207  22.618   4.627  10.669  0.1259 -0.0790  0.2866
 1552DOPE   GL218208  22.343   4.725  10.796 -0.3952 -0.2075 -0.0391
 1552DOPE   C1A18209  22.774   4.413  11.040 -0.2133 -0.1531 -0.1888
 1552DOPE   D2A18210  22.770   4.108  11.449  0.1488  0.0606 -0.2527
 1552DOPE   C3A18211  22.463   4.118  11.796  0.3493 -0.1225  0.0198
 1552DOPE   C4A18212  22.255   4.454  12.039  0.1087  0.2223  0.0118
 1552DOPE   C1B18213  22.642   4.863  11.201 -0.0713 -0.1912 -0.0927
 1552DOPE   D2B18214  22.613   4.745  11.657  0.4475 -0.0669  0.4622
 1552DOPE   C3B18215  22.206   4.872  11.782  0.0515 -0.0882 -0.3044
 1552DOPE   C4B18216  22.134   5.023  12.211  0.1903 -0.0596 -0.1478
 1553DOPS   CNO18217  15.097   2.547  11.457  0.1601 -0.0848 -0.0845
 1553DOPS   PO418218  15.463   2.500  11.444  0.1092 -0.0405 -0.0745
 1553DOPS   GL118219  15.356   2.193  11.698 -0.0868 -0.2674 -0.0763
 1553DOPS   GL218220  15.389   2.291  11.997  0.0906 -0.2946  0.0308
 1553DOPS   C1A18221  15.316   1.777  11.890 -0.0032  0.2110  0.0323
 1553DOPS   D2A18222  15.243   1.536  12.268  0.4013 -0.0619 -0.0833
 1553DOPS   C3A18223  15.143   1.667  12.737 -0.1118 -0.0790  0.2628
 1553DOPS   C4A18224  14.898   1.739  13.156  0.2316  0.1430  0.1136
 1553DOPS   C1B18225  15.864   2.204  11.969  0.0784  0.0640 -0.1208
 1553DOPS   D2B18226  16.196   1.995  12.297 -0.0217 -0.1460 -0.0223
 1553DOPS   C3B18227  16.166   1.609  12.598 -0.1092  0.0562  0.1276
 1553DOPS   C4B18228  16.137   1.119  12.574  0.4586  0.1290 -0.1442
 1554DOPS   CNO18229  22.849   1.567   9.461 -0.3191  0.1035  0.1926
 1554DOPS   PO418230  22.779   1.934   9.553 -0.3733 -0.0672 -0.0982
 1554DOPS   GL118231  22.947   1.703   9.860 -0.2473  0.1357 -0.1847
 1554DOPS   GL218232  23.095   1.898  10.017  0.0877  0.3459 -0.1204
 1554DOPS   C1A18233  22.959   1.424  10.295  0.1221 -0.0735  0.1879
 1554DOPS   D2A18234  23.245   1.241  10.591  0.2313 -0.1365  0.1110
 1554DOPS   C3A18235  23.140   1.320  11.022  0.2571 -0.2090 -0.0446
 1554DOPS   C4A18236  23.199   1.606  11.387  0.4397 -0.0387  0.2182
 1554DOPS   C1B18237  23.354   1.741  10.296  0.1527 -0.1956  0.2059
 1554DOPS   D2B18238  23.188   1.744  10.765  0.2943  0.0767 -0.1335
 1554DOPS   C3B18239  22.855   1.799  11.019  0.0082  0.2347 -0.4510
 1554DOPS   C4B18240  22.441   1.822  11.202  0.1211 -0.0311  0.3756
 1555DOPC   NC318241  12.516   4.027  11.719 -0.5000 -0.1528  0.2435
 1555DOPC   PO418242  12.670   3.766  11.980  0.0289 -0.0980  0.3845
 1555DOPC   GL118243  12.958   3.877  12.221  0.0026 -0.1589 -0.0038
 1555DOPC   GL218244  12.778   3.832  12.489 -0.1138 -0.2450  0.0982
 1555DOPC   C1A18245  13.178   4.154  12.558  0.1515 -0.0250  0.3837
 1555DOPC   D2A18246  13.207   4.583  12.742  0.0222  0.1515 -0.2472
 1555DOPC   C3A18247  13.347   5.047  12.683 -0.0868  0.0210  0.0183
 1555DOPC   C4A18248  13.535   5.368  12.448 -0.2906  0.1807  0.1029
 1555DOPC   C1B18249  12.993   3.852  12.886  0.0223 -0.2191 -0.2034
 1555DOPC   D2B18250  13.120   3.756  13.333  0.2386 -0.2286  0.3097
 1555DOPC   C3B18251  12.925   3.455  13.656 -0.0199  0.0890 -0.4637
 1555DOPC   C4B18252  13.141   3.156  13.902  0.1010 -0.2306 -0.1664
 1556DOPC   NC318253  20.460   7.248   9.688 -0.4595 -0.0359 -0.2303
 1556DOPC   PO418254  20.737   7.101   9.890 -0.4024  0.0395 -0.1733
 1556DOPC   GL118255  20.679   7.277  10.176 -0.1578 -0.1994 -0.1470
 1556DOPC   GL218256  20.458   7.473  10.152 -0.1536  0.0268  0.0620
 1556DOPC   C1A18257  20.816   7.357  10.608 -0.2453 -0.0644 -0.2336
 1556DOPC   D2A18258  20.886   7.554  11.025  0.2123  0.2898 -0.0689
 1556DOPC   C3A18259  21.228   7.480  11.301 -0.0667 -0.2420  0.0746
 1556DOPC   C4A18260  21.550   7.635  11.627  0.1774  0.1644  0.0366
 1556DOPC   C1B18261  20.401   7.683  10.598 -0.0453  0.0989 -0.3099
 1556DOPC   D2B18262  20.241   7.956  10.940  0.1946  0.5081 -0.1847
 1556DOPC   C3B18263  20.487   7.858  11.323 -0.1737  0.2450 -0.2767
 1556DOPC   C4B18264  20.825   7.760  11.541  0.1884  0.2397 -0.1450
 1557DOPE   NH318265  16.162   3.132  10.574  0.2845 -0.1748 -0.0508
 1557DOPE   PO418266  16.418   3.048  10.779  0.2401 -0.0635 -0.2011
 1557DOPE   GL118267  16.578   2.944  11.173 -0.1800  0.0825  0.4636
 1557DOPE   GL218268  16.768   2.757  11.326 -0.1301 -0.0021 -0.1051
 1557DOPE   C1A18269  16.444   2.915  11.654  0.0404 -0.1225  0.1427
 1557DOPE   D2A18270  16.597   2.857  12.058 -0.1416 -0.1022  0.2245
 1557DOPE   C3A18271  16.699   2.598  12.375  0.0191 -0.1072  0.2434
 1557DOPE   C4A18272  16.622   2.548  12.841  0.0777  0.0272 -0.2530
 1557DOPE   C1B18273  16.954   2.814  11.683 -0.2296 -0.0871 -0.0853
 1557DOPE   D2B18274  17.053   2.498  12.028 -0.2297 -0.0554 -0.0025
 1557DOPE   C3B18275  16.704   2.172  11.977  0.1236  0.0286 -0.2966
 1557DOPE   C4B18276  16.316   1.928  11.823 -0.0290 -0.1470  0.1669
 1558DOPC   NC318277  19.495  11.496   9.046 -0.3226  0.0319  0.0319
 1558DOPC   PO418278  19.851  11.482   8.955 -0.0634 -0.2030  0.0685
 1558DOPC   GL118279  19.870  11.313   9.277  0.0941 -0.0289 -0.0979
 1558DOPC   GL218280  19.767  11.522   9.481  0.0616  0.5047 -0.1450
 1558DOPC   C1A18281  19.929  10.876   9.473  0.2594  0.2760 -0.0161
 1558DOPC   D2A18282  20.038  10.679   9.867  0.2233 -0.0092 -0.0274
 1558DOPC   C3A18283  19.909  10.914  10.243 -0.0042  0.0594  0.1190
 1558DOPC   C4A18284  19.483  11.134  10.301 -0.0558  0.1084 -0.0311
 1558DOPC   C1B18285  19.938  11.537   9.892 -0.2198  0.3308 -0.1677
 1558DOPC   D2B18286  20.075  11.489  10.320 -0.2737  0.2751 -0.2502
 1558DOPC   C3B18287  20.351  11.105  10.439 -0.0866 -0.2753  0.0684
 1558DOPC   C4B18288  20.298  10.653  10.399  0.1328 -0.0706  0.2055
 1559POSM   NC318289  17.256   4.544  10.843 -0.0410 -0.1030 -0.1750
 1559POSM   PO418290  16.937   4.464  10.572  0.0654 -0.2508  0.2393
 1559POSM   AM118291  16.830   4.646  10.836  0.1260 -0.1920  0.2840
 1559POSM   AM218292  16.814   4.914  10.914  0.2703 -0.1176  0.1256
 1559POSM   T1A18293  17.024   4.730  11.319  0.3103 -0.1093 -0.0154
 1559POSM   C2A18294  17.223   4.663  11.718  0.1414 -0.1881  0.0401
 1559POSM   C3A18295  17.207   4.747  12.146 -0.0021 -0.0003 -0.2113
 1559POSM   C1B18296  16.802   5.118  11.213 -0.1130 -0.0587 -0.3574
 1559POSM   D2B18297  16.919   5.093  11.695 -0.3356  0.0170 -0.0671
 1559POSM   C3B18298  17.165   5.236  12.068 -0.3008  0.0617  0.0666
 1559POSM   C4B18299  17.263   5.685  12.219 -0.2216  0.1630  0.0601
 1560DOPC   NC318300  11.811   7.677  11.474  0.1607 -0.1170  0.0990
 1560DOPC   PO418301  11.975   8.000  11.482 -0.1408 -0.2378 -0.0545
 1560DOPC   GL118302  12.143   8.365  11.717  0.2884  0.0859  0.1712
 1560DOPC   GL218303  12.137   8.654  11.691  0.1779  0.1879 -0.0410
 1560DOPC   C1A18304  12.503   8.417  11.989  0.1108  0.0993 -0.1161
 1560DOPC   D2A18305  12.868   8.653  11.822  0.1367 -0.5079 -0.0433
 1560DOPC   C3A18306  13.087   8.790  12.176 -0.2071 -0.0107 -0.2065
 1560DOPC   C4A18307  13.217   9.108  12.521 -0.1146  0.2618  0.1008
 1560DOPC   C1B18308  12.412   9.047  11.769 -0.0789 -0.2193  0.1456
 1560DOPC   D2B18309  12.754   9.192  12.043 -0.0874  0.3038 -0.1611
 1560DOPC   C3B18310  13.210   9.311  11.972  0.4079 -0.1195  0.0990
 1560DOPC   C4B18311  13.601   9.354  11.757  0.0300 -0.3204  0.2097
 1561DOPC   NC318312  14.846   9.819   9.073 -0.0367 -0.2130  0.1613
 1561DOPC   PO418313  15.190  10.017   9.094  0.0028 -0.4602 -0.0170
 1561DOPC   GL118314  15.186   9.985   9.541 -0.2430 -0.2019 -0.1271
 1561DOPC   GL218315  15.138   9.649   9.659  0.4896  0.0549  0.1323
 1561DOPC   C1A18316  15.472  10.032   9.935 -0.1037  0.2111  0.1147
 1561DOPC   D2A18317  15.676   9.887  10.345  0.0892  0.2722  0.0076
 1561DOPC   C3A18318  15.948  10.159  10.609 -0.3262  0.0337 -0.0028
 1561DOPC   C4A18319  16.337  10.099  10.888 -0.1533 -0.2330 -0.1630
 1561DOPC   C1B18320  15.518   9.592   9.888  0.3189 -0.0551  0.0724
 1561DOPC   D2B18321  15.880   9.465  10.153  0.1343  0.2348  0.0104
 1561DOPC   C3B18322  15.902   9.424  10.604  0.0818 -0.2890  0.1733
 1561DOPC   C4B18323  15.985   9.726  10.943  0.4080 -0.0183  0.0800
 1562DOPE   NH318324  12.024  10.491  10.254 -0.0643  0.1516 -0.1833
 1562DOPE   PO418325  12.039  10.197  10.374  0.1136  0.2547  0.1152
 1562DOPE   GL118326  11.974  10.464  10.752  0.0673 -0.0570  0.2533
 1562DOPE   GL218327  11.929  10.295  10.968 -0.0391 -0.0228 -0.1035
 1562DOPE   C1A18328  12.345  10.555  11.072 -0.1331 -0.0239 -0.3566
 1562DOPE   D2A18329  12.668  10.466  11.428  0.0503 -0.3305  0.1236
 1562DOPE   C3A18330  12.845  10.696  11.789 -0.1796 -0.4397 -0.0742
 1562DOPE   C4A18331  12.911  11.072  11.997  0.0875 -0.0347 -0.0082
 1562DOPE   C1B18332  11.976  10.308  11.442  0.3883  0.2237  0.1537
 1562DOPE   D2B18333  11.986  10.020  11.753 -0.0202 -0.2364  0.0377
 1562DOPE   C3B18334  12.138  10.259  12.154 -0.1356 -0.1182  0.1742
 1562DOPE   C4B18335  12.514  10.562  12.176 -0.2906 -0.1063  0.0761
 1563DOPE   NH318336  12.395   9.851  10.571  0.0009  0.1038 -0.1142
 1563DOPE   PO418337  12.712   9.821  10.511 -0.1060 -0.0792  0.2294
 1563DOPE   GL118338  12.788  10.270  10.677 -0.3885 -0.4420  0.2839
 1563DOPE   GL218339  12.745  10.110  10.946  0.3225 -0.1502  0.1413
 1563DOPE   C1A18340  13.057  10.558  10.938  0.1244  0.3361 -0.1484
 1563DOPE   D2A18341  13.466  10.753  11.021 -0.0123  0.2480 -0.4516
 1563DOPE   C3A18342  13.764  10.792  11.410  0.0007 -0.2332  0.1794
 1563DOPE   C4A18343  14.071  10.779  11.714  0.2685  0.3887 -0.1918
 1563DOPE   C1B18344  12.623   9.938  11.396  0.0723  0.0527  0.0700
 1563DOPE   D2B18345  12.551  10.143  11.829 -0.1454  0.1641  0.0269
 1563DOPE   C3B18346  12.559  10.025  12.289  0.0670 -0.3054 -0.1748
 1563DOPE   C4B18347  12.299   9.794  12.596  0.2323  0.1459  0.1439
 1564DOPC   NC318348   9.703   6.186  13.181  0.0225 -0.0313 -0.2822
 1564DOPC   PO418349   9.348   6.096  13.290  0.1073  0.1807  0.0832
 1564DOPC   GL118350   9.335   6.230  13.712  0.0438 -0.0895 -0.0486
 1564DOPC   GL218351   9.125   6.406  13.683 -0.0387  0.1516 -0.0785
 1564DOPC   C1A18352   9.435   6.493  14.105 -0.0949  0.0558  0.0580
 1564DOPC   D2A18353   9.668   6.341  14.499  0.3320 -0.2396 -0.1364
 1564DOPC   C3A18354   9.427   6.391  14.918 -0.0072 -0.3930 -0.1894
 1564DOPC   C4A18355   9.236   6.453  15.357 -0.5033 -0.0498  0.2925
 1564DOPC   C1B18356   9.366   6.804  13.755 -0.1352 -0.3691  0.1131
 1564DOPC   D2B18357   9.526   7.199  13.942  0.0130 -0.0971  0.0187
 1564DOPC   C3B18358   9.317   7.322  14.345 -0.1801 -0.0515 -0.2297
 1564DOPC   C4B18359   9.143   7.299  14.787 -0.1319 -0.1086  0.0511
 1565DOPE   NH318360  20.611   6.597   9.750 -0.0385  0.0354  0.0447
 1565DOPE   PO418361  20.354   6.383   9.772  0.1734 -0.0161 -0.0943
 1565DOPE   GL118362  20.326   6.505  10.125 -0.2615  0.0584  0.1329
 1565DOPE   GL218363  20.034   6.589  10.176  0.1764 -0.6066  0.1856
 1565DOPE   C1A18364  20.302   6.500  10.592  0.0962  0.0268  0.4007
 1565DOPE   D2A18365  20.031   6.613  10.957  0.1546  0.3595  0.1808
 1565DOPE   C3A18366  20.128   6.477  11.417 -0.1569  0.1040 -0.1363
 1565DOPE   C4A18367  20.373   6.423  11.814  0.0984 -0.1804 -0.3813
 1565DOPE   C1B18368  19.756   6.697  10.559 -0.1583 -0.0595  0.1662
 1565DOPE   D2B18369  19.650   6.884  10.912  0.2694 -0.4000 -0.0000
 1565DOPE   C3B18370  19.892   7.014  11.304  0.2612 -0.1604 -0.1034
 1565DOPE   C4B18371  20.367   6.915  11.317 -0.0550  0.2859 -0.1721
 1566DOPS   CNO18372  16.789   9.149   8.705 -0.2648 -0.2261  0.0578
 1566DOPS   PO418373  16.735   9.486   8.882  0.2963  0.2244 -0.1069
 1566DOPS   GL118374  16.552   9.683   9.177 -0.0173 -0.1526 -0.4770
 1566DOPS   GL218375  16.390   9.601   9.401  0.1683  0.0894 -0.1603
 1566DOPS   C1A18376  16.751   9.940   9.513 -0.0974 -0.1850  0.1212
 1566DOPS   D2A18377  16.983  10.052   9.956  0.0624 -0.2124  0.1727
 1566DOPS   C3A18378  17.417   9.975  10.064  0.2128 -0.4885  0.0100
 1566DOPS   C4A18379  17.787  10.105  10.335 -0.0873  0.3066 -0.0902
 1566DOPS   C1B18380  16.322   9.841   9.813  0.0475 -0.4022  0.2197
 1566DOPS   D2B18381  16.510  10.141  10.128  0.1381 -0.2413 -0.1468
 1566DOPS   C3B18382  16.358  10.477  10.443  0.1685 -0.0428  0.1210
 1566DOPS   C4B18383  16.208  10.571  10.888  0.0341  0.2301  0.0969
 1567DOPC   NC318384  13.574   8.902   9.746 -0.2370 -0.1271 -0.1643
 1567DOPC   PO418385  13.855   9.187   9.842 -0.1768  0.1568  0.0486
 1567DOPC   GL118386  13.815   9.117  10.240 -0.1912 -0.3971 -0.3331
 1567DOPC   GL218387  14.065   9.321  10.288  0.1445 -0.0525  0.2244
 1567DOPC   C1A18388  14.079   8.888  10.526 -0.1807 -0.2642  0.0657
 1567DOPC   D2A18389  14.128   8.551  10.834  0.2324  0.0483  0.2799
 1567DOPC   C3A18390  14.332   8.923  11.052 -0.0882 -0.2996  0.1382
 1567DOPC   C4A18391  14.678   9.189  11.095  0.0344 -0.0177 -0.3793
 1567DOPC   C1B18392  13.977   9.331  10.735 -0.2357  0.2661 -0.0189
 1567DOPC   D2B18393  14.041   9.301  11.208 -0.0612 -0.0206  0.2114
 1567DOPC   C3B18394  13.963   9.593  11.487 -0.1550  0.0259  0.1014
 1567DOPC   C4B18395  13.742   9.820  11.811  0.1496 -0.4807 -0.4507
 1568POSM   NC318396  16.528   8.428   9.794 -0.2915 -0.0750 -0.1423
 1568POSM   PO418397  16.889   8.204   9.846 -0.1690 -0.1136  0.0762
 1568POSM   AM118398  16.886   8.238  10.173  0.0489  0.1772  0.4658
 1568POSM   AM218399  16.793   8.158  10.399 -0.1193  0.1309 -0.3242
 1568POSM   T1A18400  17.063   8.586  10.552 -0.0851  0.0061 -0.1609
 1568POSM   C2A18401  17.265   8.655  10.985  0.0260 -0.2788 -0.2229
 1568POSM   C3A18402  17.311   9.060  11.305 -0.0834 -0.2232  0.1109
 1568POSM   C1B18403  16.782   8.119  10.748  0.1815  0.1709  0.0999
 1568POSM   D2B18404  16.818   8.270  11.188 -0.1491 -0.1570  0.0723
 1568POSM   C3B18405  16.821   7.983  11.576  0.1100 -0.0852  0.1032
 1568POSM   C4B18406  16.711   7.620  11.878 -0.0515  0.3019 -0.1520
 1569DOPC   NC318407  11.081   8.320  11.402 -0.2940 -0.2223  0.1754
 1569DOPC   PO418408  11.167   8.615  11.656 -0.0126 -0.2893  0.1379
 1569DOPC   GL118409  11.558   8.647  11.785 -0.4509  0.0106  0.1872
 1569DOPC   GL218410  11.741   8.363  11.836  0.0151  0.2193  0.4004
 1569DOPC   C1A18411  11.667   8.776  12.250  0.1556  0.0401  0.0745
 1569DOPC   D2A18412  11.581   8.976  12.650  0.2093  0.0914  0.0345
 1569DOPC   C3A18413  11.761   9.068  13.089  0.0527 -0.1987  0.1734
 1569DOPC   C4A18414  12.075   8.866  13.430 -0.0197  0.0383  0.0226
 1569DOPC   C1B18415  12.027   8.189  12.161  0.0055 -0.1226  0.1431
 1569DOPC   D2B18416  12.267   8.278  12.551  0.2015  0.1358 -0.0724
 1569DOPC   C3B18417  12.220   8.724  12.686  0.1895  0.1797  0.1328
 1569DOPC   C4B18418  12.438   8.919  13.009  0.1325 -0.0106  0.0072
 1570POSM   NC318419  16.496   6.553   9.973  0.0586 -0.1291  0.2524
 1570POSM   PO418420  16.196   6.382  10.130  0.0509 -0.3998 -0.0088
 1570POSM   AM118421  16.367   6.470  10.407 -0.0388 -0.0019  0.0240
 1570POSM   AM218422  16.637   6.541  10.477  0.2555 -0.2855  0.0015
 1570POSM   T1A18423  16.318   6.744  10.806 -0.0989 -0.2176  0.0994
 1570POSM   C2A18424  16.069   6.724  11.241  0.1071  0.1154  0.0337
 1570POSM   C3A18425  15.996   7.061  11.542 -0.3041  0.0801 -0.0848
 1570POSM   C1B18426  16.761   6.294  10.740 -0.0314  0.0916  0.1778
 1570POSM   D2B18427  16.676   6.046  11.188 -0.1800  0.0807 -0.0876
 1570POSM   C3B18428  16.967   6.027  11.529  0.1611  0.1912 -0.0467
 1570POSM   C4B18429  17.043   6.186  12.004  0.1884  0.1973 -0.1635
 1571DOPE   NH318430  12.910   6.228  11.303 -0.0368  0.2613  0.0406
 1571DOPE   PO418431  12.747   6.483  11.397 -0.0184 -0.1983  0.0025
 1571DOPE   GL118432  12.884   6.649  11.722  0.3104 -0.1953  0.1065
 1571DOPE   GL218433  12.916   6.399  11.880 -0.3201  0.0330 -0.0059
 1571DOPE   C1A18434  12.911   7.101  11.819 -0.2223  0.3307  0.1143
 1571DOPE   D2A18435  12.949   7.520  11.922  0.0434  0.0927 -0.4506
 1571DOPE   C3A18436  12.932   7.625  12.358  0.0560  0.1492  0.5519
 1571DOPE   C4A18437  13.128   7.407  12.737  0.2877  0.0921 -0.1970
 1571DOPE   C1B18438  12.914   6.074  12.250  0.1756 -0.1151 -0.3074
 1571DOPE   D2B18439  12.846   5.904  12.657  0.2244  0.1291 -0.1913
 1571DOPE   C3B18440  13.052   6.019  13.041  0.1822  0.0231 -0.1857
 1571DOPE   C4B18441  13.381   6.300  13.236  0.2338 -0.2894  0.4331
 1572DOPE   NH318442  18.819   7.625   9.676  0.1557  0.1433  0.0050
 1572DOPE   PO418443  19.037   7.839   9.604 -0.3845  0.0793 -0.0262
 1572DOPE   GL118444  18.780   8.006   9.893  0.2087 -0.0506  0.1313
 1572DOPE   GL218445  18.567   7.871  10.007  0.1745 -0.0487 -0.1910
 1572DOPE   C1A18446  18.931   8.320  10.227 -0.1695 -0.2682 -0.0621
 1572DOPE   D2A18447  19.001   8.399  10.725  0.0515  0.0864  0.1320
 1572DOPE   C3A18448  18.958   8.183  11.104 -0.0499  0.2555 -0.0304
 1572DOPE   C4A18449  18.943   8.049  11.526 -0.3004  0.0077 -0.4189
 1572DOPE   C1B18450  18.853   7.728  10.293  0.0470  0.0372  0.0543
 1572DOPE   D2B18451  19.097   7.557  10.648  0.1285 -0.1352  0.0019
 1572DOPE   C3B18452  18.911   7.588  11.059  0.3857  0.3238 -0.1803
 1572DOPE   C4B18453  18.543   7.504  11.409  0.1653  0.0367  0.0352
 1573DOPS   CNO18454  17.637   0.210  10.344  0.1422  0.1810 -0.2988
 1573DOPS   PO418455  17.755   0.130  10.670 -0.0825  0.1362  0.0222
 1573DOPS   GL118456  18.230   0.082  10.840  0.1076  0.1748 -0.0809
 1573DOPS   GL218457  18.451  -0.141  10.783 -0.2508  0.3043 -0.1600
 1573DOPS   C1A18458  18.400   0.124  11.262 -0.2254  0.1269  0.0022
 1573DOPS   D2A18459  18.637   0.209  11.643 -0.0751  0.0783  0.0723
 1573DOPS   C3A18460  18.612   0.492  11.999  0.3809 -0.1559  0.1486
 1573DOPS   C4A18461  18.557   0.387  12.468 -0.2460 -0.4643  0.1131
 1573DOPS   C1B18462  18.364  -0.332  11.149  0.1040 -0.0354 -0.3508
 1573DOPS   D2B18463  18.378  -0.261  11.599  0.0593 -0.1377 -0.3441
 1573DOPS   C3B18464  18.805  -0.373  11.775 -0.0522 -0.1924  0.0884
 1573DOPS   C4B18465  19.250  -0.407  11.924 -0.1836 -0.1574  0.0311
 1574DOPE   NH318466  11.677   2.003  12.569 -0.0814 -0.1668  0.0889
 1574DOPE   PO418467  11.998   1.974  12.601 -0.0537 -0.4778 -0.1578
 1574DOPE   GL118468  12.243   2.093  12.918  0.2285  0.0168 -0.2727
 1574DOPE   GL218469  12.571   2.014  12.855  0.0020  0.3512 -0.0408
 1574DOPE   C1A18470  12.482   2.540  13.062  0.1115  0.3040  0.3545
 1574DOPE   D2A18471  12.839   2.803  13.070 -0.1656  0.3104 -0.1324
 1574DOPE   C3A18472  13.004   2.651  13.454 -0.2960  0.1313  0.0620
 1574DOPE   C4A18473  13.182   2.611  13.908  0.0614 -0.0111 -0.2293
 1574DOPE   C1B18474  12.767   2.181  13.244 -0.1932 -0.2138 -0.1558
 1574DOPE   D2B18475  12.947   2.225  13.686  0.0613  0.1853 -0.1245
 1574DOPE   C3B18476  13.341   2.087  13.921 -0.0449  0.0508  0.1661
 1574DOPE   C4B18477  13.722   2.080  14.164  0.0998  0.1236 -0.1509
 1575DOPE   NH318478  20.189   2.576  10.113  0.2197  0.3080 -0.1618
 1575DOPE   PO418479  20.144   2.890  10.116  0.1239 -0.1150 -0.2645
 1575DOPE   GL118480  20.091   2.927  10.460 -0.2426 -0.3692  0.0193
 1575DOPE   GL218481  20.217   2.659  10.555 -0.0737  0.1644  0.1048
 1575DOPE   C1A18482  20.001   3.230  10.831  0.1830  0.1127 -0.0150
 1575DOPE   D2A18483  19.732   3.323  11.196  0.1553 -0.2185  0.2506
 1575DOPE   C3A18484  19.552   3.123  11.565 -0.0644 -0.1878 -0.2120
 1575DOPE   C4A18485  19.234   3.046  11.922  0.0966  0.1810  0.1567
 1575DOPE   C1B18486  19.807   2.625  10.749  0.2810 -0.1383  0.1378
 1575DOPE   D2B18487  19.420   2.778  10.913  0.0946  0.1838 -0.0753
 1575DOPE   C3B18488  19.261   2.434  11.170 -0.2852 -0.1653 -0.3258
 1575DOPE   C4B18489  19.086   2.233  11.550  0.0276 -0.0448  0.0398
 1576POSM   NC318490  21.183   7.131   9.434  0.3335 -0.1424 -0.5476
 1576POSM   PO418491  20.938   7.463   9.450  0.1856  0.0249  0.2146
 1576POSM   AM118492  20.995   7.569   9.758 -0.1539 -0.0197 -0.3603
 1576POSM   AM218493  21.176   7.750   9.801  0.1669  0.0511 -0.1320
 1576POSM   T1A18494  20.898   7.646  10.244  0.0950 -0.0786  0.3749
 1576POSM   C2A18495  21.012   7.815  10.636 -0.2976 -0.0905 -0.3106
 1576POSM   C3A18496  21.239   7.953  11.061  0.0816  0.2019 -0.0009
 1576POSM   C1B18497  21.369   7.828  10.067  0.2369  0.3581 -0.0759
 1576POSM   D2B18498  21.623   8.181  10.255  0.1995 -0.5597  0.1628
 1576POSM   C3B18499  21.754   8.302  10.731  0.2208 -0.0867  0.0009
 1576POSM   C4B18500  21.758   8.122  11.139  0.1703  0.1790 -0.2865
 1577DOPC   NC318501  22.514   8.595   9.668  0.5162 -0.0220  0.0424
 1577DOPC   PO418502  22.510   8.262   9.490  0.0121 -0.3326 -0.2028
 1577DOPC   GL118503  22.314   8.199   9.877 -0.0693 -0.2344  0.5760
 1577DOPC   GL218504  22.026   8.267   9.800 -0.2458 -0.0378 -0.0189
 1577DOPC   C1A18505  22.555   8.365  10.253  0.1659 -0.0900  0.1646
 1577DOPC   D2A18506  22.623   8.813  10.392  0.1609 -0.0695  0.3746
 1577DOPC   C3A18507  22.627   8.598  10.818  0.0738  0.0615  0.1065
 1577DOPC   C4A18508  22.614   8.280  11.140  0.1104  0.0653  0.0605
 1577DOPC   C1B18509  22.148   8.669  10.123 -0.0552  0.0381 -0.1225
 1577DOPC   D2B18510  22.004   8.729  10.558 -0.1344 -0.0098 -0.0516
 1577DOPC   C3B18511  22.271   8.964  10.887  0.0774  0.1496 -0.1331
 1577DOPC   C4B18512  22.408   9.059  11.349  0.1389  0.0297  0.0791
 1578DOPC   NC318513  14.630   1.631  11.310  0.0088  0.3557  0.0225
 1578DOPC   PO418514  14.881   1.390  11.481  0.1857 -0.0920  0.1812
 1578DOPC   GL118515  15.121   1.345  11.778 -0.2522  0.1582  0.2152
 1578DOPC   GL218516  14.928   1.257  12.009 -0.3870  0.0817 -0.2661
 1578DOPC   C1A18517  15.568   1.438  11.779  0.2379 -0.3458 -0.0413
 1578DOPC   D2A18518  15.884   1.665  11.974 -0.0533 -0.1636 -0.0700
 1578DOPC   C3A18519  15.657   1.883  12.330 -0.1331 -0.0475  0.3296
 1578DOPC   C4A18520  15.752   2.049  12.772 -0.1655  0.0168  0.1692
 1578DOPC   C1B18521  14.939   1.081  12.424  0.0210 -0.2775 -0.0652
 1578DOPC   D2B18522  15.020   0.695  12.739  0.1336  0.0566  0.0612
 1578DOPC   C3B18523  15.019   0.638  13.197 -0.0443 -0.1521  0.3987
 1578DOPC   C4B18524  14.859   0.790  13.598 -0.2271  0.1287  0.2595
 1579DOPE   NH318525  14.286   0.614  11.852 -0.0476  0.4171  0.0796
 1579DOPE   PO418526  14.259   0.417  12.099 -0.0222  0.0073  0.0185
 1579DOPE   GL118527  14.391   0.355  12.489  0.0896 -0.1432 -0.1437
 1579DOPE   GL218528  14.671   0.412  12.509 -0.0091  0.3897  0.3171
 1579DOPE   C1A18529  14.336   0.005  12.783  0.0579  0.0604 -0.1044
 1579DOPE   D2A18530  14.362  -0.353  13.010 -0.0166 -0.0765  0.2120
 1579DOPE   C3A18531  14.781  -0.535  13.161  0.2011  0.1225 -0.1907
 1579DOPE   C4A18532  15.191  -0.375  13.080  0.1113 -0.0777  0.1337
 1579DOPE   C1B18533  14.641   0.400  12.932 -0.1736 -0.2629  0.1616
 1579DOPE   D2B18534  14.656   0.339  13.413  0.1054  0.2400 -0.0982
 1579DOPE   C3B18535  14.245   0.317  13.663 -0.2768 -0.1367 -0.0009
 1579DOPE   C4B18536  13.829   0.152  13.616 -0.3026 -0.1987  0.0296
 1580DOPE   NH318537  21.911   5.847  10.343 -0.3835  0.0580  0.0033
 1580DOPE   PO418538  21.909   5.492  10.370  0.2634 -0.3825  0.2060
 1580DOPE   GL118539  22.082   5.631  10.704  0.2324 -0.6836 -0.1603
 1580DOPE   GL218540  22.394   5.593  10.613 -0.2620 -0.0016 -0.2391
 1580DOPE   C1A18541  22.116   5.678  11.176 -0.2449  0.0851  0.0540
 1580DOPE   D2A18542  22.055   5.990  11.508  0.2283  0.2159  0.1274
 1580DOPE   C3A18543  21.732   6.304  11.522 -0.3880  0.2750 -0.0061
 1580DOPE   C4A18544  21.692   6.739  11.426  0.0488  0.3755  0.0696
 1580DOPE   C1B18545  22.428   5.256  10.924 -0.2022 -0.0461 -0.1862
 1580DOPE   D2B18546  22.211   5.013  11.263  0.0197 -0.1369  0.2380
 1580DOPE   C3B18547  22.015   4.564  11.102 -0.3497 -0.5968 -0.1592
 1580DOPE   C4B18548  21.734   4.255  11.068 -0.0530  0.1510 -0.5152
 1581POSM   NC318549  17.290   0.927  11.236  0.0247  0.1168 -0.0947
 1581POSM   PO418550  17.020   0.657  11.114 -0.0254  0.2913 -0.2244
 1581POSM   AM118551  16.853   0.761  11.392  0.0670  0.2278  0.2186
 1581POSM   AM218552  16.780   0.692  11.632  0.1156  0.0457  0.0723
 1581POSM   T1A18553  16.775   1.184  11.570 -0.2113 -0.1968 -0.0026
 1581POSM   C2A18554  16.906   1.332  12.007  0.3449 -0.0092  0.0033
 1581POSM   C3A18555  17.299   1.411  12.257  0.1099 -0.2486  0.0271
 1581POSM   C1B18556  16.838   0.769  11.944  0.0648  0.2669 -0.0194
 1581POSM   D2B18557  17.172   0.898  12.227 -0.1018  0.2869  0.1807
 1581POSM   C3B18558  17.067   1.111  12.617 -0.2521  0.1465 -0.1213
 1581POSM   C4B18559  16.980   1.295  13.004  0.0423  0.3133 -0.4614
 1582POSM   NC318560  19.937   4.193  10.302 -0.1182 -0.5211  0.0401
 1582POSM   PO418561  19.550   4.031  10.271 -0.1993  0.1493 -0.1845
 1582POSM   AM118562  19.562   4.155  10.543 -0.2716 -0.1962 -0.1184
 1582POSM   AM218563  19.749   4.125  10.787  0.1431  0.0184  0.1261
 1582POSM   T1A18564  19.428   4.453  10.914  0.0182  0.0900 -0.4396
 1582POSM   C2A18565  19.319   4.557  11.352  0.0193  0.3466  0.2106
 1582POSM   C3A18566  19.464   4.926  11.561 -0.1330  0.1370 -0.2179
 1582POSM   C1B18567  20.014   4.006  10.998  0.2364 -0.4087 -0.2368
 1582POSM   D2B18568  20.072   3.738  11.321  0.2054  0.1335 -0.0628
 1582POSM   C3B18569  20.009   3.686  11.773  0.0005  0.0122  0.4181
 1582POSM   C4B18570  20.023   3.592  12.196  0.1358 -0.0053  0.1527
 1583POSM   NC318571  11.285  10.739  10.338  0.1259  0.1214 -0.0522
 1583POSM   PO418572  11.670  10.793  10.491 -0.0680  0.3809  0.0526
 1583POSM   AM118573  11.714  10.958  10.769 -0.0936  0.0574 -0.2174
 1583POSM   AM218574  11.818  10.868  11.053 -0.1435  0.1064  0.1818
 1583POSM   T1A18575  11.790  11.371  11.071  0.0996 -0.2529 -0.0809
 1583POSM   C2A18576  11.710  11.415  11.535  0.1552 -0.1291 -0.0201
 1583POSM   C3A18577  11.792  11.576  11.971  0.1455  0.0448  0.2227
 1583POSM   C1B18578  12.112  10.984  11.171 -0.4484 -0.6471  0.3596
 1583POSM   D2B18579  12.403  10.940  11.522  0.3022  0.1767 -0.0718
 1583POSM   C3B18580  12.720  11.291  11.574 -0.1161  0.2113 -0.0044
 1583POSM   C4B18581  13.036  11.574  11.487 -0.2348  0.2937  0.0788
 1584POSM   NC318582  21.832   4.336   9.668  0.0378  0.2877  0.2527
 1584POSM   PO418583  21.999   4.630   9.871 -0.1042 -0.3217 -0.0035
 1584POSM   AM118584  22.057   4.519  10.148 -0.2345 -0.0454 -0.6356
 1584POSM   AM218585  22.032   4.660  10.379  0.4435 -0.0283  0.0682
 1584POSM   T1A18586  21.985   4.204  10.519 -0.1627 -0.0465  0.0231
 1584POSM   C2A18587  21.915   3.901  10.835  0.0012 -0.1917 -0.2391
 1584POSM   C3A18588  21.768   3.641  11.202  0.3683 -0.3600 -0.1919
 1584POSM   C1B18589  21.815   4.729  10.639  0.1431  0.0887 -0.3241
 1584POSM   D2B18590  21.490   4.777  10.941 -0.3433 -0.0690 -0.1734
 1584POSM   C3B18591  21.268   4.452  11.142 -0.0072  0.0173  0.0727
 1584POSM   C4B18592  20.891   4.423  11.427 -0.1368 -0.1670 -0.0840
 1585DOPC   NC318593  13.011   7.746  11.096 -0.1926  0.1512 -0.0183
 1585DOPC   PO418594  13.376   7.585  10.981  0.1753 -0.2701 -0.1143
 1585DOPC   GL118595  13.469   7.691  11.315  0.1328  0.1033 -0.0108
 1585DOPC   GL218596  13.252   7.696  11.597  0.0799 -0.0377  0.1970
 1585DOPC   C1A18597  13.804   7.553  11.660 -0.0808  0.0712  0.1465
 1585DOPC   D2A18598  14.157   7.705  11.617 -0.0295  0.1359  0.2110
 1585DOPC   C3A18599  14.289   7.973  11.909 -0.0547  0.1111  0.0950
 1585DOPC   C4A18600  14.202   7.963  12.360 -0.2748  0.0813 -0.3644
 1585DOPC   C1B18601  13.373   7.271  11.767 -0.0930 -0.0329  0.0774
 1585DOPC   D2B18602  13.774   7.121  11.929 -0.1477 -0.3379  0.1193
 1585DOPC   C3B18603  13.734   7.070  12.354  0.1182 -0.1960 -0.1880
 1585DOPC   C4B18604  13.374   6.865  12.617  0.1291  0.0982 -0.2796
 1586DOPC   NC318605  20.644  33.517  10.070 -0.0027  0.1917  0.0203
 1586DOPC   PO418606  20.308  33.655  10.118  0.1337  0.2920 -0.1119
 1586DOPC   GL118607  20.148  33.525  10.380 -0.1290 -0.0657  0.2413
 1586DOPC   GL218608  20.284  33.326  10.497 -0.0534  0.0332 -0.0080
 1586DOPC   C1A18609  19.816  33.705  10.695 -0.0114 -0.4253  0.0741
 1586DOPC   D2A18610  19.458  33.580  10.942 -0.0071 -0.2785 -0.0808
 1586DOPC   C3A18611  19.280  33.167  11.032 -0.0743 -0.0623 -0.1943
 1586DOPC   C4A18612  19.002  32.980  10.753  0.1153 -0.2184  0.3631
 1586DOPC   C1B18613  20.190  33.486  10.936  0.4397 -0.1604  0.0930
 1586DOPC   D2B18614  19.974  33.659  11.247 -0.1071  0.0481 -0.3402
 1586DOPC   C3B18615  20.027  33.954  11.622  0.2542 -0.0490 -0.0561
 1586DOPC   C4B18616  20.381  33.983  11.923 -0.1337  0.0131 -0.1768
 1587DOPE   NH318617  17.804   7.738   9.448  0.0627  0.1948  0.0449
 1587DOPE   PO418618  17.948   8.036   9.363 -0.2816  0.3479  0.0192
 1587DOPE   GL118619  18.114   8.251   9.718  0.1691  0.2553  0.0447
 1587DOPE   GL218620  17.880   8.338   9.838 -0.3311 -0.1471  0.0759
 1587DOPE   C1A18621  18.301   8.252  10.134 -0.0567 -0.2215 -0.0765
 1587DOPE   D2A18622  18.522   8.459  10.484  0.0205  0.0094  0.0235
 1587DOPE   C3A18623  18.541   8.434  10.926  0.1071  0.0742 -0.0034
 1587DOPE   C4A18624  18.712   8.557  11.294  0.0898 -0.0765  0.1405
 1587DOPE   C1B18625  17.824   8.227  10.303 -0.0529  0.0046  0.3093
 1587DOPE   D2B18626  17.860   7.951  10.644 -0.1794 -0.0703 -0.0890
 1587DOPE   C3B18627  17.580   7.733  10.952 -0.0428 -0.0766  0.0550
 1587DOPE   C4B18628  17.199   7.770  11.154  0.0555 -0.2564 -0.1783
 1588DOPC   NC318629  18.244   5.723  10.266  0.1239  0.0171  0.1167
 1588DOPC   PO418630  18.364   5.433  10.479  0.5296  0.0615 -0.0213
 1588DOPC   GL118631  18.429   5.548  10.827 -0.3496 -0.2794 -0.1833
 1588DOPC   GL218632  18.247   5.437  10.963 -0.0180 -0.2644  0.0513
 1588DOPC   C1A18633  18.638   5.713  11.152  0.1343  0.1812 -0.0880
 1588DOPC   D2A18634  18.667   5.916  11.603 -0.1949  0.1996 -0.2765
 1588DOPC   C3A18635  19.039   5.704  11.741 -0.0577 -0.0305 -0.1736
 1588DOPC   C4A18636  19.447   5.529  11.708 -0.0745 -0.0846 -0.0196
 1588DOPC   C1B18637  18.112   5.687  11.296  0.0782 -0.1655 -0.1137
 1588DOPC   D2B18638  17.955   5.923  11.751 -0.2227 -0.0819 -0.2029
 1588DOPC   C3B18639  18.250   6.232  11.735 -0.0856 -0.0981 -0.0247
 1588DOPC   C4B18640  18.621   6.479  11.665  0.0220 -0.0793  0.0471
 1589DOPC   NC318641  21.269   7.181   9.885 -0.2919 -0.0989 -0.0692
 1589DOPC   PO418642  21.633   7.232   9.755 -0.1517  0.0212  0.1421
 1589DOPC   GL118643  21.618   7.163  10.207 -0.1343  0.0748 -0.0527
 1589DOPC   GL218644  21.651   7.399  10.317 -0.0074 -0.2178  0.4194
 1589DOPC   C1A18645  21.699   6.803  10.468  0.0424 -0.0241  0.0628
 1589DOPC   D2A18646  21.910   6.527  10.765  0.2455  0.1273  0.1308
 1589DOPC   C3A18647  22.107   6.401  11.173 -0.2240 -0.3179  0.1123
 1589DOPC   C4A18648  22.179   6.665  11.589  0.3061 -0.0537  0.0218
 1589DOPC   C1B18649  21.943   7.734  10.192  0.1049  0.1827  0.0854
 1589DOPC   D2B18650  22.096   8.062  10.379  0.2443  0.1961  0.1204
 1589DOPC   C3B18651  22.241   8.323  10.743 -0.0592 -0.0127  0.4748
 1589DOPC   C4B18652  22.218   8.544  11.131  0.2273  0.3118  0.1679
 1590DOPS   CNO18653  17.771  10.935   9.074 -0.1650  0.1441 -0.3051
 1590DOPS   PO418654  17.982  11.157   8.858 -0.0701 -0.0510  0.1644
 1590DOPS   GL118655  18.027  11.428   9.150  0.1447  0.4775  0.1550
 1590DOPS   GL218656  18.347  11.404   9.147 -0.0337  0.1012  0.1791
 1590DOPS   C1A18657  18.051  11.705   9.528 -0.0082 -0.0052  0.0737
 1590DOPS   D2A18658  17.969  11.915   9.937  0.0117 -0.2474  0.0992
 1590DOPS   C3A18659  17.912  12.368   9.910  0.1652 -0.1260 -0.0454
 1590DOPS   C4A18660  17.910  12.728  10.140  0.0167  0.0890 -0.0685
 1590DOPS   C1B18661  18.483  11.302   9.542  0.0922  0.2386 -0.2046
 1590DOPS   D2B18662  18.776  11.260   9.953  0.3684  0.1864 -0.2403
 1590DOPS   C3B18663  18.967  11.332  10.402 -0.1939  0.0130  0.2717
 1590DOPS   C4B18664  18.863  11.428  10.840 -0.0599 -0.0607 -0.2990
 1591POSM   NC318665  22.560   7.044   9.808  0.1831 -0.4044  0.0695
 1591POSM   PO418666  22.329   6.735   9.945 -0.0148  0.0126 -0.1360
 1591POSM   AM118667  22.282   6.734  10.237 -0.1739 -0.0866 -0.0147
 1591POSM   AM218668  22.299   6.557  10.454  0.3656 -0.0167  0.0531
 1591POSM   T1A18669  22.133   6.968  10.674 -0.2988 -0.1188  0.1205
 1591POSM   C2A18670  21.783   6.990  11.000  0.0300 -0.1630 -0.2241
 1591POSM   C3A18671  21.654   7.254  11.352 -0.0059 -0.2069 -0.0263
 1591POSM   C1B18672  22.428   6.587  10.765  0.0810 -0.0224 -0.1917
 1591POSM   D2B18673  22.680   6.698  11.191 -0.0222  0.2837  0.0741
 1591POSM   C3B18674  22.624   6.956  11.588 -0.4227 -0.2005 -0.0714
 1591POSM   C4B18675  22.265   6.958  11.968  0.0689  0.1793  0.0871
 1592DOPS   CNO18676  15.650   8.355   9.630 -0.2065 -0.0827 -0.0156
 1592DOPS   PO418677  15.599   8.252  10.007  0.2418  0.1126  0.1167
 1592DOPS   GL118678  15.549   8.548  10.306 -0.1264 -0.1558  0.2814
 1592DOPS   GL218679  15.571   8.547  10.629 -0.1603  0.1103 -0.0467
 1592DOPS   C1A18680  15.683   9.008  10.283  0.3054  0.2477  0.2158
 1592DOPS   D2A18681  15.461   9.415  10.405 -0.0306  0.1737 -0.0487
 1592DOPS   C3A18682  15.495   9.691  10.758  0.0809  0.1557  0.1152
 1592DOPS   C4A18683  15.565   9.519  11.190  0.1257 -0.2714  0.1422
 1592DOPS   C1B18684  15.730   8.941  10.909 -0.0673 -0.0934 -0.0871
 1592DOPS   D2B18685  15.866   9.102  11.331  0.0360  0.1008 -0.4805
 1592DOPS   C3B18686  15.735   9.073  11.766  0.0696 -0.1989 -0.0638
 1592DOPS   C4B18687  15.456   9.122  12.100  0.2327  0.0244 -0.1179
 1593POSM   NC318688  11.608   6.726  11.784 -0.1708  0.0650  0.2711
 1593POSM   PO418689  11.867   6.805  11.450 -0.1909  0.0126 -0.1030
 1593POSM   AM118690  12.055   6.914  11.713 -0.0005 -0.4365 -0.4002
 1593POSM   AM218691  12.048   6.888  11.999 -0.1424 -0.2516 -0.1613
 1593POSM   T1A18692  12.531   6.818  11.900  0.2931  0.0474  0.3522
 1593POSM   C2A18693  12.638   6.755  12.355  0.0916 -0.2542 -0.1145
 1593POSM   C3A18694  12.825   6.938  12.731  0.0684 -0.0809 -0.0346
 1593POSM   C1B18695  12.179   6.871  12.279  0.2775 -0.1353  0.0946
 1593POSM   D2B18696  12.202   7.181  12.673  0.0849 -0.1115  0.1515
 1593POSM   C3B18697  12.443   7.334  13.023  0.1345  0.0621  0.2693
 1593POSM   C4B18698  12.401   7.708  13.284  0.0589  0.0850  0.1621
 1594DOPC   NC318699  14.573   5.668  11.441  0.1919  0.1561 -0.0325
 1594DOPC   PO418700  14.788   5.949  11.275  0.0959 -0.0058  0.2804
 1594DOPC   GL118701  14.860   6.212  11.514  0.3223  0.3003  0.3111
 1594DOPC   GL218702  14.828   6.478  11.643  0.0834 -0.0939  0.3722
 1594DOPC   C1A18703  15.200   6.201  11.792  0.2919 -0.3391 -0.0204
 1594DOPC   D2A18704  15.412   6.109  12.189  0.2614 -0.2747  0.0714
 1594DOPC   C3A18705  15.536   6.223  12.635  0.2381  0.1080 -0.2093
 1594DOPC   C4A18706  15.818   6.436  12.977  0.0039  0.0894 -0.0123
 1594DOPC   C1B18707  15.157   6.763  11.738 -0.0157 -0.1650  0.1124
 1594DOPC   D2B18708  15.141   7.192  11.882 -0.2242  0.3190 -0.0719
 1594DOPC   C3B18709  15.520   7.438  11.941  0.3806 -0.1947 -0.2496
 1594DOPC   C4B18710  15.951   7.502  11.830 -0.3718  0.0450  0.1022
 1595DOPC   NC318711  22.553   3.939   9.741  0.0950  0.2857 -0.1151
 1595DOPC   PO418712  22.545   3.866  10.184  0.1039  0.2774  0.1788
 1595DOPC   GL118713  22.328   3.892  10.527 -0.3987 -0.4712  0.0507
 1595DOPC   GL218714  22.495   3.597  10.705  0.2132 -0.0611  0.0029
 1595DOPC   C1A18715  22.403   4.203  10.864 -0.2169  0.3301  0.1489
 1595DOPC   D2A18716  22.372   4.341  11.314 -0.2601 -0.0862 -0.4448
 1595DOPC   C3A18717  22.034   4.464  11.578 -0.1094 -0.0946  0.0711
 1595DOPC   C4A18718  21.655   4.681  11.431  0.1194  0.1184  0.0501
 1595DOPC   C1B18719  22.291   3.749  11.108  0.2544 -0.2172 -0.1009
 1595DOPC   D2B18720  22.099   3.871  11.539 -0.0829  0.2237  0.3258
 1595DOPC   C3B18721  21.678   4.058  11.542 -0.0464 -0.0712  0.2527
 1595DOPC   C4B18722  21.360   4.349  11.696  0.0747 -0.1211  0.1311
 1596DOPC   NC318723  12.797   1.601  12.372  0.4019  0.2754 -0.1623
 1596DOPC   PO418724  12.673   1.277  12.195  0.1055  0.0709 -0.1640
 1596DOPC   GL118725  12.882   1.192  12.585  0.0222 -0.1853  0.0832
 1596DOPC   GL218726  13.050   0.977  12.556  0.5309  0.1802  0.0474
 1596DOPC   C1A18727  12.981   1.412  13.014 -0.3272 -0.0056 -0.3181
 1596DOPC   D2A18728  12.882   1.709  13.377  0.0363  0.3302 -0.0388
 1596DOPC   C3A18729  12.609   1.533  13.715  0.0350 -0.1532  0.0597
 1596DOPC   C4A18730  12.518   1.448  14.110 -0.3934  0.1760 -0.0996
 1596DOPC   C1B18731  13.262   1.041  12.953 -0.3678 -0.1133 -0.2074
 1596DOPC   D2B18732  13.455   1.269  13.320 -0.0135  0.2394 -0.1794
 1596DOPC   C3B18733  13.397   1.137  13.755  0.1679 -0.2948 -0.1061
 1596DOPC   C4B18734  13.492   0.765  14.006 -0.0706  0.0671 -0.0678
 1597POSM   NC318735  17.442   9.652   9.060  0.3364  0.2629 -0.0390
 1597POSM   PO418736  17.737   9.413   9.185  0.1493 -0.1791  0.0923
 1597POSM   AM118737  17.817   9.347   9.474 -0.1137 -0.1208 -0.3027
 1597POSM   AM218738  17.690   9.357   9.745  0.0958 -0.1733 -0.0669
 1597POSM   T1A18739  18.132   9.589   9.807  0.1000  0.0794  0.1851
 1597POSM   C2A18740  18.358   9.886  10.089 -0.2432 -0.0348  0.0729
 1597POSM   C3A18741  18.472  10.323  10.178  0.0954 -0.0123 -0.0825
 1597POSM   C1B18742  17.699   9.515  10.039  0.0591 -0.0603  0.0856
 1597POSM   D2B18743  17.735   9.626  10.482  0.2212  0.1571 -0.3682
 1597POSM   C3B18744  18.134   9.761  10.628 -0.0448  0.0039 -0.1772
 1597POSM   C4B18745  18.341  10.167  10.626 -0.0639 -0.1039 -0.1222
 1598POSM   NC318746  12.565   4.809  11.747  0.2126 -0.1606 -0.1806
 1598POSM   PO418747  12.484   4.499  11.932 -0.1815 -0.0422  0.2566
 1598POSM   AM118748  12.658   4.555  12.212 -0.2455 -0.3027 -0.3264
 1598POSM   AM218749  12.728   4.379  12.411 -0.0285  0.2449  0.1213
 1598POSM   T1A18750  12.869   4.911  12.478 -0.2018  0.0991  0.0683
 1598POSM   C2A18751  12.803   5.078  12.889 -0.0154  0.1038 -0.3953
 1598POSM   C3A18752  12.865   5.473  13.158 -0.2074 -0.0916  0.1992
 1598POSM   C1B18753  12.739   4.350  12.775 -0.3042  0.1552 -0.3400
 1598POSM   D2B18754  12.951   4.364  13.188  0.2398 -0.2627 -0.0414
 1598POSM   C3B18755  13.050   4.778  13.266 -0.0372 -0.0541 -0.2708
 1598POSM   C4B18756  13.317   5.155  13.166 -0.2560  0.2005 -0.0052
 1599DOPE   NH318757  18.011   3.136  10.437  0.1639 -0.0541  0.2404
 1599DOPE   PO418758  17.844   3.347  10.584  0.1221 -0.3205 -0.0511
 1599DOPE   GL118759  17.727   3.398  10.946  0.1329  0.3060 -0.0868
 1599DOPE   GL218760  17.668   3.675  11.116 -0.1624 -0.0991 -0.1271
 1599DOPE   C1A18761  17.858   3.226  11.321  0.1735  0.0449  0.1543
 1599DOPE   D2A18762  17.807   2.927  11.620  0.2139 -0.2336 -0.0238
 1599DOPE   C3A18763  18.059   2.972  11.978 -0.2043  0.3901 -0.0746
 1599DOPE   C4A18764  17.865   2.805  12.363 -0.0800 -0.0213 -0.0766
 1599DOPE   C1B18765  18.005   3.884  11.286  0.1651  0.2573 -0.0269
 1599DOPE   D2B18766  18.250   3.898  11.729  0.0050 -0.1973  0.1274
 1599DOPE   C3B18767  18.537   3.596  11.962 -0.0364 -0.1382  0.1724
 1599DOPE   C4B18768  18.720   3.244  12.034 -0.2251  0.2489  0.4257
 1600DOPS   CNO18769  23.803   6.063  10.061  0.1723  0.1802 -0.1526
 1600DOPS   PO418770  23.914   6.338   9.872 -0.1707  0.0137 -0.4239
 1600DOPS   GL118771  24.121   6.360  10.275 -0.1153 -0.3532  0.0309
 1600DOPS   GL218772  24.381   6.499  10.433 -0.1573  0.1619  0.2403
 1600DOPS   C1A18773  23.915   6.319  10.698  0.2299 -0.3351  0.1417
 1600DOPS   D2A18774  23.938   6.489  11.106  0.0373  0.1765  0.1138
 1600DOPS   C3A18775  24.003   6.306  11.544 -0.0013  0.3084 -0.3107
 1600DOPS   C4A18776  23.982   6.180  11.942 -0.1341  0.3935 -0.2166
 1600DOPS   C1B18777  24.706   6.581  10.714 -0.0014 -0.0788 -0.4289
 1600DOPS   D2B18778  24.751   6.869  11.106 -0.0239 -0.0096 -0.0903
 1600DOPS   C3B18779  25.154   7.011  11.329 -0.2293  0.2702  0.1860
 1600DOPS   C4B18780  25.484   7.282  11.263 -0.2922 -0.0148  0.1343
 1601DOPE   NH318781  22.542  10.239   9.179 -0.0615 -0.0964 -0.2601
 1601DOPE   PO418782  22.287  10.089   9.142 -0.5236  0.2700  0.1310
 1601DOPE   GL118783  22.021  10.290   9.443  0.3025  0.1235  0.1822
 1601DOPE   GL218784  21.867  10.076   9.621 -0.2240  0.3115 -0.0874
 1601DOPE   C1A18785  22.087  10.444   9.895 -0.1158  0.0690  0.0491
 1601DOPE   D2A18786  22.393  10.631  10.159 -0.1924 -0.0672  0.1357
 1601DOPE   C3A18787  22.469  10.876  10.508  0.1134 -0.1522  0.1950
 1601DOPE   C4A18788  22.241  10.932  10.938 -0.3417 -0.4068  0.1734
 1601DOPE   C1B18789  21.657   9.964   9.991  0.2862  0.0619 -0.1778
 1601DOPE   D2B18790  21.698   9.547  10.191  0.0116 -0.2584 -0.0289
 1601DOPE   C3B18791  21.385   9.472  10.488 -0.1028 -0.1754  0.0351
 1601DOPE   C4B18792  21.054   9.263  10.667  0.0569  0.2874  0.2541
 1602DOPC   NC318793  10.784   7.521  12.220  0.2270 -0.1247 -0.0318
 1602DOPC   PO418794  10.696   7.851  11.972  0.2001 -0.0920 -0.0167
 1602DOPC   GL118795  11.065   7.915  12.218  0.1396 -0.1751 -0.2215
 1602DOPC   GL218796  11.330   7.871  12.044  0.0983  0.2760 -0.1592
 1602DOPC   C1A18797  11.028   7.947  12.669  0.0936  0.1278 -0.0477
 1602DOPC   D2A18798  10.741   8.245  12.852 -0.1307 -0.0486  0.1686
 1602DOPC   C3A18799  10.754   8.283  13.324 -0.0988  0.0258  0.5593
 1602DOPC   C4A18800  10.459   8.224  13.671 -0.2836 -0.1137 -0.0037
 1602DOPC   C1B18801  11.553   7.901  12.449 -0.2505 -0.1760 -0.0158
 1602DOPC   D2B18802  11.845   8.101  12.755 -0.1811  0.0116  0.0736
 1602DOPC   C3B18803  11.982   7.641  12.880  0.1993  0.1722  0.0002
 1602DOPC   C4B18804  11.907   7.319  13.158 -0.2938 -0.3136 -0.2602
 1603DOPC   NC318805  12.404   3.547  12.383  0.0446  0.1301 -0.2215
 1603DOPC   PO418806  12.292   3.196  12.431  0.3638  0.0574  0.0672
 1603DOPC   GL118807  12.382   3.212  12.778  0.2006  0.0295  0.2027
 1603DOPC   GL218808  12.672   3.134  12.764 -0.3435 -0.1101  0.1299
 1603DOPC   C1A18809  12.545   3.570  13.064 -0.1466 -0.0352  0.1654
 1603DOPC   D2A18810  12.599   3.925  13.406 -0.0035  0.2322 -0.3331
 1603DOPC   C3A18811  12.375   4.119  13.738 -0.1496  0.1319 -0.1269
 1603DOPC   C4A18812  12.400   4.322  14.187 -0.4103  0.1423 -0.1484
 1603DOPC   C1B18813  13.116   3.249  12.901  0.4948 -0.0722 -0.3721
 1603DOPC   D2B18814  13.511   3.179  12.896 -0.1729  0.2116  0.0297
 1603DOPC   C3B18815  13.585   3.329  13.314  0.1247 -0.0148 -0.0660
 1603DOPC   C4B18816  13.616   3.566  13.690  0.2203 -0.2242 -0.0782
 1604POSM   NC318817  21.863   6.838  10.008 -0.1718 -0.2120  0.2524
 1604POSM   PO418818  21.573   6.666   9.838 -0.0870  0.0834  0.0481
 1604POSM   AM118819  21.407   6.790  10.092  0.0999  0.3018  0.3355
 1604POSM   AM218820  21.150   6.660  10.196  0.2976  0.3007  0.2940
 1604POSM   T1A18821  21.220   7.156  10.372 -0.3093 -0.2704 -0.1181
 1604POSM   C2A18822  21.341   7.222  10.787  0.2728  0.2045 -0.3957
 1604POSM   C3A18823  21.636   7.521  10.960 -0.1480 -0.1337  0.2342
 1604POSM   C1B18824  20.973   6.726  10.479  0.0763  0.1138  0.2265
 1604POSM   D2B18825  20.932   6.517  10.936 -0.0480  0.0224  0.0173
 1604POSM   C3B18826  20.512   6.359  11.112 -0.3019 -0.1367  0.0435
 1604POSM   C4B18827  20.121   6.129  11.056  0.0215  0.1325 -0.0716
 1605POSM   NC318828   9.761  11.330  10.827 -0.0743 -0.1456 -0.1768
 1605POSM   PO418829   9.989  10.956  10.941  0.1829 -0.1020  0.2539
 1605POSM   AM118830  10.156  10.934  11.232 -0.1489  0.2193 -0.0083
 1605POSM   AM218831  10.211  11.127  11.431  0.0580 -0.1477 -0.1068
 1605POSM   T1A18832  10.240  10.630  11.616 -0.0217  0.3136 -0.1779
 1605POSM   C2A18833  10.277  10.713  12.044 -0.2378  0.0744 -0.1231
 1605POSM   C3A18834  10.639  10.890  12.366  0.0416  0.0164  0.0099
 1605POSM   C1B18835  10.434  11.067  11.694 -0.0847 -0.0880 -0.2344
 1605POSM   D2B18836  10.679  11.284  11.994  0.1111  0.0008  0.2365
 1605POSM   C3B18837  10.631  11.687  12.229 -0.2697 -0.1414  0.3115
 1605POSM   C4B18838  10.357  12.009  12.447 -0.2602  0.0534  0.3262
 1606DOPS   CNO18839  19.655   4.434   9.844 -0.0972 -0.2704 -0.2623
 1606DOPS   PO418840  19.670   4.711  10.103 -0.2636  0.3317 -0.0582
 1606DOPS   GL118841  19.890   4.659  10.361  0.1320  0.1127  0.2373
 1606DOPS   GL218842  20.054   4.895  10.497 -0.1003  0.0805  0.1386
 1606DOPS   C1A18843  19.983   4.544  10.818 -0.0385  0.0677 -0.0980
 1606DOPS   D2A18844  19.863   4.498  11.229  0.4242  0.1916 -0.0670
 1606DOPS   C3A18845  20.030   4.226  11.594  0.1650 -0.1426  0.0646
 1606DOPS   C4A18846  20.018   4.137  12.027  0.0563  0.0669  0.2016
 1606DOPS   C1B18847  20.106   5.065  10.942 -0.2325  0.0314 -0.1904
 1606DOPS   D2B18848  20.051   4.945  11.371 -0.1653 -0.2043  0.1833
 1606DOPS   C3B18849  19.897   5.145  11.751  0.3795  0.0894  0.3752
 1606DOPS   C4B18850  19.505   5.146  12.002  0.0736  0.1319  0.0386
 1607POSM   NC318851  15.313  34.404  11.626  0.3309  0.3162 -0.1392
 1607POSM   PO418852  14.897  34.451  11.594  0.0727 -0.3296 -0.2876
 1607POSM   AM118853  14.961  34.502  11.897 -0.1296 -0.2533  0.0017
 1607POSM   AM218854  14.835  34.502  12.154 -0.2967  0.0101 -0.2479
 1607POSM   T1A18855  15.429  34.656  12.087 -0.1362  0.1316  0.1278
 1607POSM   C2A18856  15.827  34.582  12.325 -0.0724  0.0551 -0.0841
 1607POSM   C3A18857  16.285  34.588  12.301  0.0451 -0.0819  0.1247
 1607POSM   C1B18858  15.038  34.541  12.421 -0.0155 -0.1163  0.0811
 1607POSM   D2B18859  15.172  34.713  12.851  0.2386  0.1525 -0.0287
 1607POSM   C3B18860  15.433  34.661  13.219  0.1854 -0.1889 -0.0919
 1607POSM   C4B18861  15.825  34.859  13.230  0.3350 -0.2210  0.1178
 1608DOPE   NH318862  14.972   7.543  10.308  0.1569 -0.0431  0.3338
 1608DOPE   PO418863  14.854   7.802  10.426  0.1546  0.1004 -0.2240
 1608DOPE   GL118864  14.977   8.002  10.658  0.2287  0.2946  0.2278
 1608DOPE   GL218865  15.044   8.283  10.571 -0.2467  0.1920  0.0851
 1608DOPE   C1A18866  14.839   8.237  11.092 -0.2741 -0.3779 -0.1042
 1608DOPE   D2A18867  14.570   8.588  11.322  0.0554  0.2020  0.1784
 1608DOPE   C3A18868  14.730   8.494  11.769  0.1304 -0.0314 -0.0054
 1608DOPE   C4A18869  14.648   8.809  12.122  0.1457  0.2179 -0.1466
 1608DOPE   C1B18870  15.295   8.281  10.969  0.1699  0.2073 -0.1590
 1608DOPE   D2B18871  15.506   8.573  11.274 -0.0292 -0.0179 -0.2801
 1608DOPE   C3B18872  15.631   8.522  11.686 -0.0481 -0.1291  0.0619
 1608DOPE   C4B18873  15.917   8.214  11.876  0.1926  0.0244  0.3268
 1609DOPE   NH318874  14.147   3.242  11.492  0.0986 -0.2933 -0.2026
 1609DOPE   PO418875  14.040   2.915  11.488 -0.2641 -0.1842 -0.3261
 1609DOPE   GL118876  14.031   3.005  11.895 -0.0599 -0.0874  0.3666
 1609DOPE   GL218877  13.933   3.287  11.954  0.4770  0.2795 -0.0366
 1609DOPE   C1A18878  14.153   2.881  12.308 -0.3384 -0.0160 -0.3737
 1609DOPE   D2A18879  14.318   2.843  12.690  0.2492  0.0276 -0.0029
 1609DOPE   C3A18880  14.211   2.438  12.952  0.0338 -0.1578 -0.2624
 1609DOPE   C4A18881  14.256   2.281  13.447 -0.1454  0.1323  0.2775
 1609DOPE   C1B18882  14.051   3.644  12.244  0.1592 -0.4564  0.1235
 1609DOPE   D2B18883  14.391   3.701  12.471 -0.1116 -0.1064 -0.3353
 1609DOPE   C3B18884  14.521   3.330  12.792 -0.0363 -0.2262 -0.1937
 1609DOPE   C4B18885  14.516   3.012  13.168  0.0778  0.1718 -0.0800
 1610DOPE   NH318886  13.474   2.571  11.841 -0.0770 -0.2831  0.1550
 1610DOPE   PO418887  13.633   2.842  11.771 -0.1030  0.0188 -0.0234
 1610DOPE   GL118888  13.770   2.691  12.161  0.0807  0.2052 -0.1670
 1610DOPE   GL218889  13.655   2.983  12.228  0.1272  0.2056 -0.2253
 1610DOPE   C1A18890  13.786   2.767  12.679  0.2670 -0.1746  0.1122
 1610DOPE   D2A18891  13.999   2.947  13.069 -0.2774  0.4639 -0.3980
 1610DOPE   C3A18892  14.044   2.848  13.482  0.3413  0.1423 -0.0386
 1610DOPE   C4A18893  13.784   2.542  13.812 -0.2520 -0.0843 -0.2993
 1610DOPE   C1B18894  13.814   3.312  12.514 -0.1277  0.1001 -0.0132
 1610DOPE   D2B18895  14.047   3.426  12.888  0.1118 -0.1018 -0.0573
 1610DOPE   C3B18896  14.042   3.398  13.368  0.2227 -0.3081 -0.0047
 1610DOPE   C4B18897  14.340   3.405  13.684 -0.3073 -0.2539 -0.1819
 1611DOPS   CNO18898  15.756   0.949  10.774 -0.3232 -0.1117  0.0802
 1611DOPS   PO418899  16.007   0.798  10.995  0.0284 -0.2275  0.0415
 1611DOPS   GL118900  16.120   0.769  11.364  0.2412 -0.0323 -0.1744
 1611DOPS   GL218901  16.428   0.883  11.365 -0.1333  0.0426 -0.0047
 1611DOPS   C1A18902  16.003   1.097  11.675 -0.1950  0.1358 -0.1665
 1611DOPS   D2A18903  15.943   1.118  12.098 -0.0731  0.1818  0.1471
 1611DOPS   C3A18904  15.765   1.397  12.374  0.0937 -0.1416 -0.2269
 1611DOPS   C4A18905  15.646   1.589  12.775 -0.1857 -0.2249  0.1552
 1611DOPS   C1B18906  16.438   0.966  11.825 -0.3975  0.3382  0.3868
 1611DOPS   D2B18907  16.539   1.055  12.299  0.1049 -0.2023 -0.0553
 1611DOPS   C3B18908  16.576   1.092  12.769  0.0511  0.1713 -0.1231
 1611DOPS   C4B18909  16.341   1.066  13.152  0.0147 -0.3702 -0.3384
 1612POSM   NC318910  18.803   3.135  10.096  0.1755  0.1743 -0.0243
 1612POSM   PO418911  18.433   3.145  10.224 -0.2581 -0.0971 -0.3587
 1612POSM   AM118912  18.514   3.107  10.538 -0.1949 -0.2354 -0.1933
 1612POSM   AM218913  18.681   3.263  10.717 -0.1786  0.4341  0.1524
 1612POSM   T1A18914  18.303   3.106  11.060 -0.3524 -0.0474 -0.0808
 1612POSM   C2A18915  18.377   2.966  11.475  0.1303 -0.0819  0.0483
 1612POSM   C3A18916  18.528   2.838  11.884  0.2354 -0.0218  0.0045
 1612POSM   C1B18917  18.694   3.376  11.056 -0.0398  0.2163  0.1272
 1612POSM   D2B18918  18.771   3.244  11.476  0.1357 -0.1040  0.0446
 1612POSM   C3B18919  19.145   3.444  11.675 -0.1856  0.0228 -0.0090
 1612POSM   C4B18920  19.546   3.608  11.582 -0.1615  0.4486  0.0587
 1613POSM   NC318921  22.500   6.314  10.073 -0.1186  0.1941 -0.2876
 1613POSM   PO418922  22.286   5.991  10.080  0.0450 -0.3579  0.1918
 1613POSM   AM118923  22.324   6.023  10.388 -0.5637 -0.0854 -0.0902
 1613POSM   AM218924  22.520   6.100  10.556 -0.1383  0.1622 -0.0933
 1613POSM   T1A18925  22.055   6.043  10.850  0.3260 -0.2427 -0.0809
 1613POSM   C2A18926  21.617   6.145  11.056 -0.0394 -0.0241 -0.0134
 1613POSM   C3A18927  21.191   6.081  11.073  0.1238  0.0418  0.2010
 1613POSM   C1B18928  22.589   6.030  10.884 -0.1909  0.3041  0.1434
 1613POSM   D2B18929  22.636   5.749  11.278  0.0231 -0.0812 -0.1032
 1613POSM   C3B18930  22.870   5.320  11.209 -0.1707 -0.2019  0.2269
 1613POSM   C4B18931  22.983   5.022  11.534 -0.0740  0.0726 -0.0174
 1614DOPE   NH318932  21.568   4.736  10.112  0.1567  0.1272  0.1380
 1614DOPE   PO418933  21.339   4.962  10.030 -0.0710  0.2148 -0.0308
 1614DOPE   GL118934  21.224   4.861  10.378 -0.0086  0.1204 -0.1702
 1614DOPE   GL218935  21.270   5.131  10.534 -0.2802 -0.0896 -0.1831
 1614DOPE   C1A18936  21.021   4.851  10.804 -0.0931  0.2819 -0.0718
 1614DOPE   D2A18937  21.032   4.886  11.253  0.0800 -0.0811 -0.2039
 1614DOPE   C3A18938  20.827   5.139  11.548  0.0184  0.0648 -0.0517
 1614DOPE   C4A18939  20.396   5.099  11.726 -0.0771 -0.0607 -0.1618
 1614DOPE   C1B18940  21.350   5.252  10.960  0.1105 -0.0101  0.0286
 1614DOPE   D2B18941  21.408   5.121  11.439 -0.0840 -0.0544 -0.2277
 1614DOPE   C3B18942  21.295   4.818  11.762 -0.2925  0.1069 -0.0962
 1614DOPE   C4B18943  21.404   4.543  12.120  0.2856 -0.3272  0.0977
 1615DOPS   CNO18944  12.109  11.667  10.177 -0.3226 -0.0163  0.3685
 1615DOPS   PO418945  12.257  11.355  10.258  0.0810  0.1736 -0.1991
 1615DOPS   GL118946  12.462  11.452  10.576 -0.2975  0.0500  0.3797
 1615DOPS   GL218947  12.306  11.316  10.812 -0.0828 -0.0032 -0.0736
 1615DOPS   C1A18948  12.665  11.627  11.001  0.0014  0.2361 -0.1619
 1615DOPS   D2A18949  12.886  12.015  11.241  0.2353 -0.1311  0.1474
 1615DOPS   C3A18950  12.979  12.046  11.687 -0.3141  0.1933 -0.0775
 1615DOPS   C4A18951  13.147  11.897  12.107  0.0457  0.0777  0.1374
 1615DOPS   C1B18952  12.290  11.418  11.251  0.0162 -0.0599  0.2802
 1615DOPS   D2B18953  12.244  11.342  11.722 -0.2095 -0.0244 -0.2319
 1615DOPS   C3B18954  12.437  11.031  12.035  0.0821  0.1436 -0.0871
 1615DOPS   C4B18955  12.674  10.922  12.398  0.1150  0.0745 -0.0638
 1616DOPE   NH318956  18.266   8.489   9.311 -0.1603  0.1844  0.2591
 1616DOPE   PO418957  18.527   8.499   9.405 -0.0388  0.1139  0.0320
 1616DOPE   GL118958  18.482   8.800   9.713  0.0479 -0.0472 -0.5477
 1616DOPE   GL218959  18.310   8.646   9.826 -0.0447  0.0444  0.1842
 1616DOPE   C1A18960  18.246   9.134   9.887  0.2497 -0.0921  0.1212
 1616DOPE   D2A18961  18.190   9.361  10.275 -0.2968  0.0285 -0.3669
 1616DOPE   C3A18962  18.523   9.341  10.649 -0.1042  0.0301 -0.0997
 1616DOPE   C4A18963  18.970   9.329  10.820  0.1329 -0.0679 -0.0443
 1616DOPE   C1B18964  18.050   8.639  10.201  0.0527  0.1920  0.2902
 1616DOPE   D2B18965  17.756   8.685  10.506 -0.0795 -0.0938 -0.1705
 1616DOPE   C3B18966  17.978   8.384  10.866 -0.0290 -0.2379 -0.0709
 1616DOPE   C4B18967  18.067   8.100  11.197  0.1062 -0.2186  0.2860
 1617POSM   NC318968  10.753   2.919  13.235  0.2903  0.2032  0.0867
 1617POSM   PO418969  10.677   2.545  13.124  0.3692  0.2251 -0.0409
 1617POSM   AM118970  10.805   2.434  13.395  0.1262  0.1638 -0.0648
 1617POSM   AM218971  10.940   2.568  13.580 -0.2715  0.4217  0.0735
 1617POSM   T1A18972  10.663   2.301  13.863  0.1165 -0.0434  0.1742
 1617POSM   C2A18973  10.428   2.211  14.248 -0.1943  0.1682 -0.2815
 1617POSM   C3A18974  10.327   2.085  14.688 -0.2180 -0.2670 -0.1621
 1617POSM   C1B18975  11.085   2.587  13.883 -0.1968  0.0431 -0.2737
 1617POSM   D2B18976  11.484   2.427  14.125  0.1890 -0.0024  0.1458
 1617POSM   C3B18977  11.594   2.531  14.572 -0.2171  0.2370 -0.0236
 1617POSM   C4B18978  11.761   2.524  14.979 -0.3228  0.1867 -0.0384
 1618POSM   NC318979  10.492  10.937  10.765 -0.0506 -0.0037  0.1056
 1618POSM   PO418980  10.795  10.709  10.702 -0.1082 -0.0079  0.1308
 1618POSM   AM118981  10.823  10.784  11.063  0.0319  0.1920  0.1239
 1618POSM   AM218982  10.720  10.975  11.261  0.0868 -0.0513  0.2547
 1618POSM   T1A18983  11.150  10.823  11.436 -0.1304  0.1096  0.0535
 1618POSM   C2A18984  11.282  10.527  11.750  0.0634  0.2854  0.0312
 1618POSM   C3A18985  11.657  10.356  11.966  0.0577  0.0772  0.1625
 1618POSM   C1B18986  10.743  11.297  11.336 -0.2917  0.0674 -0.2941
 1618POSM   D2B18987  10.542  11.619  11.535 -0.0489  0.2132  0.3495
 1618POSM   C3B18988  10.743  12.052  11.548  0.1423  0.1268  0.1412
 1618POSM   C4B18989  10.539  12.375  11.765  0.2687  0.0693 -0.1950
 1619DOPC   NC318990  14.623   7.436  10.643 -0.0864  0.0793  0.0331
 1619DOPC   PO418991  14.966   7.308  10.736  0.2456 -0.0007  0.1565
 1619DOPC   GL118992  14.850   7.219  11.095 -0.0223  0.1918  0.2315
 1619DOPC   GL218993  14.541   7.141  11.133  0.0084 -0.0577 -0.0684
 1619DOPC   C1A18994  15.091   7.387  11.435 -0.1328  0.0252  0.0331
 1619DOPC   D2A18995  15.147   7.723  11.768  0.0160  0.0685  0.0263
 1619DOPC   C3A18996  15.110   7.672  12.201  0.1017 -0.0062 -0.0988
 1619DOPC   C4A18997  15.062   7.863  12.627  0.0250  0.1898 -0.1620
 1619DOPC   C1B18998  14.709   7.047  11.539  0.2827 -0.1561  0.0184
 1619DOPC   D2B18999  14.683   6.898  11.960 -0.0016 -0.1242  0.0642
 1619DOPC   C3B19000  14.943   6.581  12.138 -0.1966  0.1361  0.0655
 1619DOPC   C4B19001  15.033   6.392  12.596  0.3398  0.5107 -0.0538
 1620POSM   NC319002  10.210   6.638  12.524 -0.0882  0.2343 -0.1016
 1620POSM   PO419003  10.551   6.622  12.400 -0.2952 -0.0865 -0.1104
 1620POSM   AM119004  10.663   6.692  12.686  0.1280 -0.0187 -0.2367
 1620POSM   AM219005  10.569   6.723  12.957  0.2313  0.0078 -0.0844
 1620POSM   T1A19006  10.989   6.893  13.039 -0.2457 -0.0527  0.2220
 1620POSM   C2A19007  11.295   6.639  13.323  0.1326  0.0397 -0.3323
 1620POSM   C3A19008  11.589   6.440  13.556  0.1848  0.1670  0.0212
 1620POSM   C1B19009  10.495   6.781  13.220  0.4179  0.3416 -0.2221
 1620POSM   D2B19010  10.754   6.884  13.522  0.1068  0.2727 -0.1263
 1620POSM   C3B19011  11.122   7.137  13.528  0.2166  0.1149 -0.2590
 1620POSM   C4B19012  11.415   7.116  13.184 -0.1179  0.0417  0.0784
 1621DOPE   NH319013  14.369   3.413  10.807 -0.3530 -0.0972 -0.3864
 1621DOPE   PO419014  14.491   3.472  11.097 -0.1361  0.0036 -0.0822
 1621DOPE   GL119015  14.350   3.819  11.424  0.3537 -0.1122 -0.3117
 1621DOPE   GL219016  14.230   4.134  11.394 -0.2687 -0.1022  0.0454
 1621DOPE   C1A19017  13.957   3.744  11.726 -0.0045  0.0692  0.0695
 1621DOPE   D2A19018  13.641   3.838  12.041 -0.2088 -0.2024  0.1037
 1621DOPE   C3A19019  13.712   3.991  12.469  0.0247  0.0671 -0.4994
 1621DOPE   C4A19020  14.062   3.932  12.723 -0.0208 -0.1631 -0.3746
 1621DOPE   C1B19021  14.303   4.303  11.781  0.0096  0.0451  0.0028
 1621DOPE   D2B19022  14.093   4.721  11.983  0.0361 -0.0009  0.1400
 1621DOPE   C3B19023  14.133   4.671  12.474  0.0405  0.2384 -0.1592
 1621DOPE   C4B19024  14.092   4.518  12.924 -0.2839 -0.5891  0.1416
 1622DOPS   CNO19025  14.800   6.511  11.143  0.0102 -0.2069  0.0922
 1622DOPS   PO419026  14.531   6.302  11.002  0.1230 -0.1501  0.0370
 1622DOPS   GL119027  14.310   6.292  11.336  0.1545 -0.1696 -0.1144
 1622DOPS   GL219028  14.427   6.158  11.574  0.0482  0.1301 -0.1937
 1622DOPS   C1A19029  14.336   6.702  11.605 -0.1190 -0.0413  0.1037
 1622DOPS   D2A19030  14.281   7.178  11.750 -0.1664 -0.0086 -0.0259
 1622DOPS   C3A19031  14.120   7.453  12.090 -0.0517 -0.2604 -0.0439
 1622DOPS   C4A19032  13.971   7.440  12.521  0.4308  0.1880 -0.1620
 1622DOPS   C1B19033  14.608   5.964  11.893 -0.1244 -0.0160  0.1816
 1622DOPS   D2B19034  14.896   5.996  12.267 -0.1522  0.1123 -0.0652
 1622DOPS   C3B19035  15.211   5.731  12.454  0.2231 -0.2018  0.0871
 1622DOPS   C4B19036  15.386   5.655  12.852 -0.0171  0.2695  0.2151
 1623DOPC   NC319037  10.831   8.319  12.283 -0.1424 -0.0773  0.1920
 1623DOPC   PO419038  10.991   8.267  11.926  0.1038 -0.2230 -0.0569
 1623DOPC   GL119039  11.255   8.526  12.145 -0.3759  0.4812  0.1226
 1623DOPC   GL219040  11.398   8.325  12.285 -0.2091  0.0106 -0.0300
 1623DOPC   C1A19041  11.133   8.801  12.440  0.2231 -0.0989  0.0351
 1623DOPC   D2A19042  11.114   9.106  12.785  0.0271  0.2451 -0.0460
 1623DOPC   C3A19043  11.401   9.429  13.070 -0.1319  0.0713 -0.1171
 1623DOPC   C4A19044  11.233   9.821  13.253  0.1608  0.0074  0.0220
 1623DOPC   C1B19045  11.214   8.377  12.699 -0.1808 -0.1888 -0.3325
 1623DOPC   D2B19046  11.381   8.523  13.084 -0.2928 -0.1998  0.0569
 1623DOPC   C3B19047  11.884   8.496  13.012  0.2771 -0.0197 -0.2182
 1623DOPC   C4B19048  12.314   8.303  13.071 -0.0276 -0.1992  0.0688
 1624DOPC   NC319049  17.412   9.091   9.369 -0.0735 -0.2468 -0.0468
 1624DOPC   PO419050  17.045   8.902   9.293  0.1859 -0.1170 -0.4924
 1624DOPC   GL119051  17.100   9.087   9.691  0.0669  0.0818  0.3620
 1624DOPC   GL219052  17.329   9.044   9.918 -0.3382 -0.3072 -0.0227
 1624DOPC   C1A19053  16.816   9.049  10.103 -0.0496  0.5750 -0.2837
 1624DOPC   D2A19054  16.838   9.041  10.537 -0.3150  0.2259  0.1243
 1624DOPC   C3A19055  16.875   9.010  11.002 -0.0203 -0.0740 -0.1234
 1624DOPC   C4A19056  16.952   9.372  11.313  0.2657  0.3358  0.1144
 1624DOPC   C1B19057  17.306   8.952  10.283 -0.0458  0.1712  0.1960
 1624DOPC   D2B19058  17.372   9.075  10.747 -0.1638 -0.2775 -0.0730
 1624DOPC   C3B19059  17.371   9.520  10.989  0.1276 -0.0656 -0.2339
 1624DOPC   C4B19060  17.058   9.855  10.997 -0.0689  0.2574 -0.1826
 1625DOPC   NC319061   9.652   4.769  12.827  0.2361 -0.1634 -0.0735
 1625DOPC   PO419062   9.859   4.750  13.178  0.1661  0.0206 -0.0550
 1625DOPC   GL119063   9.955   4.780  13.541  0.4324  0.2577  0.6191
 1625DOPC   GL219064  10.076   4.519  13.662  0.4427  0.1010 -0.3282
 1625DOPC   C1A19065   9.850   5.079  13.873  0.0559  0.0082 -0.1872
 1625DOPC   D2A19066   9.681   5.386  14.209 -0.1213 -0.2613  0.0568
 1625DOPC   C3A19067  10.071   5.437  14.483 -0.0871  0.1532  0.0340
 1625DOPC   C4A19068  10.152   5.768  14.804  0.3162  0.4697 -0.2400
 1625DOPC   C1B19069  10.531   4.405  13.794  0.2293 -0.0538  0.0711
 1625DOPC   D2B19070  10.884   4.197  13.987 -0.0755  0.0453 -0.0449
 1625DOPC   C3B19071  11.311   3.969  14.074 -0.0202 -0.1174 -0.0592
 1625DOPC   C4B19072  11.760   3.865  14.312  0.1128  0.0614 -0.1387
 1626DOPS   CNO19073  15.122   8.692  10.264  0.0540 -0.0159  0.0959
 1626DOPS   PO419074  14.893   8.814   9.997  0.0731  0.0323 -0.4855
 1626DOPS   GL119075  14.597   8.806  10.214 -0.3210  0.0776 -0.4067
 1626DOPS   GL219076  14.571   8.543  10.415 -0.0362  0.1124 -0.1602
 1626DOPS   C1A19077  14.621   9.129  10.512 -0.2224 -0.2503 -0.3453
 1626DOPS   D2A19078  15.045   9.344  10.656 -0.0811 -0.2496  0.0112
 1626DOPS   C3A19079  14.907   9.734  10.812 -0.1168  0.0671 -0.3614
 1626DOPS   C4A19080  14.790   9.939  11.193  0.1849  0.2563  0.0463
 1626DOPS   C1B19081  14.768   8.715  10.768 -0.4332  0.0536 -0.2967
 1626DOPS   D2B19082  15.179   8.868  10.779  0.0180  0.0682 -0.2014
 1626DOPS   C3B19083  15.214   9.234  11.082 -0.2989  0.0648 -0.1203
 1626DOPS   C4B19084  15.002   9.476  11.405  0.1033 -0.4125 -0.0113
 1627POSM   NC319085  13.983   0.830  11.530  0.0624 -0.0740  0.0417
 1627POSM   PO419086  13.668   1.000  11.699 -0.0141 -0.0226  0.4160
 1627POSM   AM119087  13.684   1.170  12.002  0.2992  0.1650  0.3637
 1627POSM   AM219088  13.610   1.074  12.306  0.0619  0.2225 -0.2344
 1627POSM   T1A19089  13.696   1.558  12.307 -0.0642  0.1048  0.2576
 1627POSM   C2A19090  13.801   1.867  12.639  0.1177  0.0052  0.0186
 1627POSM   C3A19091  13.564   2.253  12.776 -0.1084 -0.0976  0.3000
 1627POSM   C1B19092  13.733   1.014  12.650 -0.1176 -0.0343 -0.1461
 1627POSM   D2B19093  13.917   1.103  13.099 -0.0170 -0.3826 -0.1029
 1627POSM   C3B19094  14.218   1.231  13.438  0.0237  0.2978 -0.0043
 1627POSM   C4B19095  14.429   1.168  13.868 -0.1846 -0.1502 -0.2094
 1628POSM   NC319096  13.721   9.335   9.350 -0.0244 -0.1485 -0.0257
 1628POSM   PO419097  13.879   9.676   9.370 -0.1134  0.1584  0.1904
 1628POSM   AM119098  13.802   9.767   9.683 -0.1054  0.8226  0.0243
 1628POSM   AM219099  13.871   9.766   9.958 -0.2045  0.1266  0.0024
 1628POSM   T1A19100  13.698  10.250   9.784  0.4029  0.0469 -0.0528
 1628POSM   C2A19101  13.745  10.693   9.842  0.2765 -0.0012  0.1640
 1628POSM   C3A19102  13.613  11.070  10.013 -0.2693  0.2472 -0.2705
 1628POSM   C1B19103  14.021   9.856  10.237  0.4242 -0.1406  0.2851
 1628POSM   D2B19104  13.996  10.170  10.567  0.0746  0.3412 -0.1566
 1628POSM   C3B19105  14.200  10.534  10.775  0.2137  0.5168 -0.1992
 1628POSM   C4B19106  14.586  10.692  11.001  0.0616  0.0488  0.2997
 1629DOPE   NH319107  12.212   6.487  11.608  0.1501  0.3104  0.0728
 1629DOPE   PO419108  11.970   6.434  11.848  0.2495 -0.1204  0.0783
 1629DOPE   GL119109  12.038   6.401  12.213  0.0365 -0.1879  0.4026
 1629DOPE   GL219110  11.800   6.571  12.358  0.0225  0.2226  0.0209
 1629DOPE   C1A19111  12.359   6.269  12.475  0.2883  0.0276  0.1033
 1629DOPE   D2A19112  12.767   6.396  12.717 -0.0340 -0.0875 -0.0709
 1629DOPE   C3A19113  12.956   6.578  13.104 -0.0709  0.1328  0.1966
 1629DOPE   C4A19114  13.362   6.817  13.178 -0.0026  0.0268  0.1405
 1629DOPE   C1B19115  12.120   6.558  12.778  0.1491 -0.2676 -0.1550
 1629DOPE   D2B19116  12.441   6.785  13.070  0.0791  0.0893  0.1420
 1629DOPE   C3B19117  12.237   7.015  13.439 -0.0900  0.0915  0.1450
 1629DOPE   C4B19118  11.763   7.094  13.581 -0.3293 -0.1082 -0.3065
 1630DOPC   NC319119  14.978   0.876  11.643 -0.0237  0.2746 -0.3130
 1630DOPC   PO419120  14.562   0.940  11.615  0.1246  0.0635  0.0508
 1630DOPC   GL119121  14.581   1.029  11.982 -0.2604 -0.0869 -0.2579
 1630DOPC   GL219122  14.669   0.810  12.146  0.0154  0.1918  0.1523
 1630DOPC   C1A19123  14.484   1.326  12.322  0.0712  0.0344 -0.0269
 1630DOPC   D2A19124  14.655   1.367  12.711 -0.1596  0.1446 -0.5035
 1630DOPC   C3A19125  14.992   1.157  12.943  0.0831  0.0301  0.0879
 1630DOPC   C4A19126  15.315   1.089  13.221  0.3397  0.2223  0.3168
 1630DOPC   C1B19127  15.118   0.633  12.180  0.0660  0.2635 -0.1245
 1630DOPC   D2B19128  15.384   0.452  12.479 -0.0397  0.2029  0.1907
 1630DOPC   C3B19129  15.493   0.610  12.900 -0.1027  0.3441  0.3978
 1630DOPC   C4B19130  15.898   0.854  13.074  0.0584  0.2195  0.3159
 1631POSM   NC319131  23.222   5.828  10.091 -0.2117 -0.0449  0.1022
 1631POSM   PO419132  23.113   5.489  10.234 -0.0489 -0.1969 -0.2937
 1631POSM   AM119133  23.214   5.264  10.448  0.0457 -0.0101 -0.4166
 1631POSM   AM219134  23.469   5.136  10.501  0.1325 -0.0791  0.1736
 1631POSM   T1A19135  23.258   5.221  10.955 -0.0807  0.1013 -0.1276
 1631POSM   C2A19136  23.356   5.262  11.378  0.1716  0.0998 -0.1736
 1631POSM   C3A19137  23.456   5.202  11.833  0.0284 -0.0898  0.0295
 1631POSM   C1B19138  23.670   5.322  10.700 -0.0723  0.1198  0.2016
 1631POSM   D2B19139  23.628   5.574  11.044 -0.2547 -0.0876 -0.1536
 1631POSM   C3B19140  23.761   5.595  11.514 -0.0209  0.0035  0.0960
 1631POSM   C4B19141  23.822   5.632  11.947 -0.2638 -0.3441 -0.2913
 1632POSM   NC319142  15.765   6.600  10.152 -0.0293  0.0860 -0.3415
 1632POSM   PO419143  15.518   6.894  10.239  0.1287 -0.1297  0.1324
 1632POSM   AM119144  15.736   6.974  10.520  0.1851 -0.0479  0.0382
 1632POSM   AM219145  15.795   6.867  10.761 -0.1789 -0.0186  0.1847
 1632POSM   T1A19146  16.118   7.241  10.743  0.2295  0.0731  0.1889
 1632POSM   C2A19147  16.325   7.201  11.185 -0.1042  0.4152  0.0379
 1632POSM   C3A19148  16.527   6.890  11.487 -0.1432  0.3480  0.1027
 1632POSM   C1B19149  15.644   7.060  10.983 -0.4026  0.0908  0.1885
 1632POSM   D2B19150  15.572   7.220  11.437 -0.1587 -0.0327  0.3826
 1632POSM   C3B19151  15.664   6.976  11.902  0.0780 -0.0460 -0.2165
 1632POSM   C4B19152  15.664   6.567  12.000  0.2776  0.0471  0.0390
 1633DOPC   NC319153  15.286  19.971  11.910  0.1808 -0.0150 -0.2503
 1633DOPC   PO419154  15.132  19.669  12.155 -0.1795 -0.2336 -0.1121
 1633DOPC   GL119155  15.085  19.440  11.861  0.0026  0.2396 -0.1939
 1633DOPC   GL219156  14.816  19.398  11.721 -0.1447 -0.2853  0.2827
 1633DOPC   C1A19157  15.099  19.385  11.380  0.0282 -0.0524 -0.1452
 1633DOPC   D2A19158  14.841  19.505  11.007 -0.1489  0.1082  0.1598
 1633DOPC   C3A19159  15.152  19.236  10.804  0.4164  0.1521 -0.0862
 1633DOPC   C4A19160  15.439  18.907  10.898  0.3331  0.0457  0.0447
 1633DOPC   C1B19161  14.918  19.842  11.557 -0.0529 -0.1029 -0.1614
 1633DOPC   D2B19162  14.953  20.062  11.190 -0.0213  0.1475 -0.3317
 1633DOPC   C3B19163  15.252  19.734  10.974  0.1812 -0.0316 -0.0305
 1633DOPC   C4B19164  15.564  19.405  11.023  0.1880  0.1414  0.0848
 1634DOPC   NC319165  18.156  13.737  12.219 -0.0595 -0.3633 -0.0475
 1634DOPC   PO419166  18.083  13.502  11.877  0.0052  0.0632  0.0642
 1634DOPC   GL119167  18.097  13.512  11.562  0.1659 -0.0239  0.1056
 1634DOPC   GL219168  18.169  13.301  11.376  0.2535  0.0109  0.0443
 1634DOPC   C1A19169  17.790  13.515  11.211 -0.1060 -0.0146 -0.3363
 1634DOPC   D2A19170  17.677  13.336  10.766  0.2589 -0.0080 -0.1328
 1634DOPC   C3A19171  17.382  13.703  10.604  0.0781 -0.4346  0.0533
 1634DOPC   C4A19172  17.476  13.899  10.186 -0.0931 -0.0529 -0.0261
 1634DOPC   C1B19173  18.276  13.795  11.283  0.2658 -0.0049 -0.1639
 1634DOPC   D2B19174  18.273  14.049  10.904 -0.1458  0.1442 -0.2508
 1634DOPC   C3B19175  18.483  13.754  10.573  0.0808  0.0363  0.1539
 1634DOPC   C4B19176  18.588  13.727  10.106  0.0007 -0.1811  0.0590
 1635DOPE   NH319177  20.118  20.782  12.115 -0.4379 -0.1777  0.1431
 1635DOPE   PO419178  20.364  20.890  11.944 -0.0599 -0.3767  0.2661
 1635DOPE   GL119179  20.053  20.843  11.671  0.1741  0.3296 -0.0473
 1635DOPE   GL219180  20.108  20.642  11.450  0.0974 -0.2546  0.1130
 1635DOPE   C1A19181  19.825  20.992  11.337 -0.1413 -0.0509  0.1506
 1635DOPE   D2A19182  19.940  21.188  10.968  0.0556 -0.0753  0.0328
 1635DOPE   C3A19183  19.646  21.155  10.674  0.2859  0.0316  0.1736
 1635DOPE   C4A19184  19.605  21.267  10.280 -0.1304 -0.1862 -0.1320
 1635DOPE   C1B19185  20.116  20.331  11.061 -0.0573  0.1147  0.2465
 1635DOPE   D2B19186  20.377  20.046  10.736  0.1139 -0.0179  0.1888
 1635DOPE   C3B19187  20.827  20.087  10.683 -0.1324 -0.0534  0.1039
 1635DOPE   C4B19188  21.262  20.084  10.847 -0.3347  0.0800 -0.0684
 1636DOPE   NH319189  13.488  20.894  12.935 -0.0072  0.0936  0.0365
 1636DOPE   PO419190  13.347  20.739  12.692 -0.0590  0.1464 -0.2056
 1636DOPE   GL119191  13.357  20.797  12.335 -0.3215 -0.3130  0.0798
 1636DOPE   GL219192  13.313  21.113  12.398 -0.1057 -0.2936 -0.1047
 1636DOPE   C1A19193  13.599  20.929  11.952  0.1774  0.0144  0.0722
 1636DOPE   D2A19194  13.855  21.036  11.563  0.0615 -0.1980 -0.2128
 1636DOPE   C3A19195  14.040  20.707  11.355 -0.0604  0.2885 -0.2295
 1636DOPE   C4A19196  13.986  20.326  11.178 -0.1612  0.2318 -0.0623
 1636DOPE   C1B19197  13.496  21.426  12.110 -0.1628  0.0778  0.0543
 1636DOPE   D2B19198  13.613  21.583  11.748  0.0948  0.0856 -0.0753
 1636DOPE   C3B19199  13.687  21.413  11.305 -0.0613  0.0937  0.2623
 1636DOPE   C4B19200  13.704  20.960  11.098  0.3174  0.5010 -0.2641
 1637DOPC   NC319201  23.508  22.751  12.731 -0.2380  0.0821  0.0922
 1637DOPC   PO419202  23.335  23.133  12.729  0.0102 -0.1083 -0.1027
 1637DOPC   GL119203  23.306  23.122  12.386 -0.0532 -0.0551 -0.2230
 1637DOPC   GL219204  23.311  22.939  12.143  0.2900 -0.1406  0.3417
 1637DOPC   C1A19205  23.297  23.491  12.104  0.1362 -0.1379 -0.7008
 1637DOPC   D2A19206  23.213  23.906  11.887 -0.1072  0.1425 -0.0128
 1637DOPC   C3A19207  23.274  23.964  11.392 -0.0502 -0.2238 -0.0159
 1637DOPC   C4A19208  23.306  24.055  10.923  0.1082  0.2402 -0.1144
 1637DOPC   C1B19209  22.969  23.169  11.840  0.0428 -0.0244  0.0955
 1637DOPC   D2B19210  22.715  23.452  11.506  0.0879 -0.1744  0.0957
 1637DOPC   C3B19211  22.691  23.923  11.257  0.0616 -0.2910  0.3683
 1637DOPC   C4B19212  22.969  24.321  11.189  0.0984  0.0691 -0.3106
 1638DOPC   NC319213  21.996  20.252  12.511  0.2536  0.1345 -0.1345
 1638DOPC   PO419214  21.758  19.996  12.332  0.1887  0.0278 -0.0219
 1638DOPC   GL119215  21.615  20.141  12.042  0.0107  0.0715 -0.1255
 1638DOPC   GL219216  21.526  20.389  11.921 -0.0093 -0.0065  0.0610
 1638DOPC   C1A19217  21.544  20.025  11.572  0.0531  0.3139  0.0492
 1638DOPC   D2A19218  21.659  19.779  11.240 -0.1018 -0.1336  0.4138
 1638DOPC   C3A19219  21.728  19.781  10.828  0.2812  0.1875 -0.0122
 1638DOPC   C4A19220  21.732  19.847  10.353 -0.0632  0.1402  0.0874
 1638DOPC   C1B19221  21.758  20.553  11.565 -0.1840  0.0149  0.2192
 1638DOPC   D2B19222  21.589  20.914  11.297 -0.0783 -0.0486  0.1901
 1638DOPC   C3B19223  21.477  20.660  10.899  0.0343  0.0029  0.0115
 1638DOPC   C4B19224  21.041  20.566  10.953  0.1414 -0.2225 -0.1759
 1639POSM   NC319225  14.792  15.584  11.889 -0.0680  0.2814  0.0906
 1639POSM   PO419226  15.000  15.232  11.896  0.0281  0.1052  0.3956
 1639POSM   AM119227  14.934  15.095  11.631 -0.0327 -0.3466  0.1459
 1639POSM   AM219228  14.931  14.831  11.493 -0.0874  0.2109 -0.0646
 1639POSM   T1A19229  14.726  15.119  11.183 -0.1697  0.1145 -0.4785
 1639POSM   C2A19230  14.404  15.308  10.948  0.1517  0.0825 -0.2205
 1639POSM   C3A19231  14.432  15.516  10.522 -0.2891 -0.0905  0.1897
 1639POSM   C1B19232  15.025  14.687  11.224  0.1291  0.2094 -0.1421
 1639POSM   D2B19233  15.171  14.668  10.777  0.1189  0.1637  0.2237
 1639POSM   C3B19234  15.497  14.875  10.567  0.1999  0.1184  0.1440
 1639POSM   C4B19235  15.771  15.260  10.718 -0.0274  0.0472 -0.0080
 1640DOPS   CNO19236  19.305  21.073  12.234 -0.2426 -0.0856  0.2106
 1640DOPS   PO419237  19.564  20.859  12.102 -0.1108 -0.1177 -0.0239
 1640DOPS   GL119238  19.579  20.964  11.761 -0.2347  0.1151  0.0538
 1640DOPS   GL219239  19.418  21.262  11.707  0.0396  0.2199  0.0637
 1640DOPS   C1A19240  19.322  20.893  11.393 -0.0986 -0.2069  0.1247
 1640DOPS   D2A19241  19.195  21.111  10.951 -0.3015  0.3451  0.1859
 1640DOPS   C3A19242  19.224  21.541  10.937  0.2081 -0.0811  0.1736
 1640DOPS   C4A19243  19.232  21.970  10.856  0.1005 -0.1691  0.1514
 1640DOPS   C1B19244  19.547  21.399  11.328  0.0494  0.1385 -0.3332
 1640DOPS   D2B19245  19.832  21.672  11.121  0.3389  0.1012  0.1128
 1640DOPS   C3B19246  19.592  21.680  10.707  0.0447  0.0068  0.0712
 1640DOPS   C4B19247  19.302  21.747  10.397  0.0020  0.2438  0.1324
 1641DOPC   NC319248  15.412  14.902  11.751 -0.2616 -0.0060 -0.2524
 1641DOPC   PO419249  15.699  14.619  11.679 -0.1353  0.2781  0.1947
 1641DOPC   GL119250  15.494  14.500  11.345 -0.3014  0.1705  0.1300
 1641DOPC   GL219251  15.580  14.557  11.061 -0.1734 -0.3636 -0.2731
 1641DOPC   C1A19252  15.270  14.116  11.179 -0.1088  0.1764 -0.2062
 1641DOPC   D2A19253  15.329  13.754  10.880  0.0661  0.1728 -0.1375
 1641DOPC   C3A19254  15.688  13.851  10.509 -0.2405  0.1082 -0.0807
 1641DOPC   C4A19255  15.919  14.168  10.256  0.2070 -0.2461 -0.1363
 1641DOPC   C1B19256  15.941  14.730  10.793 -0.1106 -0.1208  0.0917
 1641DOPC   D2B19257  16.271  14.524  10.603 -0.0006  0.0886 -0.2101
 1641DOPC   C3B19258  16.317  14.459  10.114  0.0148 -0.3030 -0.2983
 1641DOPC   C4B19259  16.728  14.406   9.928  0.2352  0.2379 -0.0343
 1642DOPE   NH319260  13.163  15.372  12.642  0.0726 -0.2327 -0.0921
 1642DOPE   PO419261  13.342  15.543  12.419  0.1039  0.2370 -0.3367
 1642DOPE   GL119262  13.457  15.573  12.053  0.0215  0.1848 -0.2085
 1642DOPE   GL219263  13.601  15.812  12.040  0.3248  0.1342  0.1070
 1642DOPE   C1A19264  13.261  15.523  11.599  0.0221 -0.1772  0.1451
 1642DOPE   D2A19265  13.300  15.485  11.138  0.0879 -0.2845 -0.2341
 1642DOPE   C3A19266  13.456  15.858  10.937 -0.1083  0.0271  0.1351
 1642DOPE   C4A19267  13.446  16.116  10.545  0.0942  0.1498 -0.2156
 1642DOPE   C1B19268  13.370  16.015  11.717 -0.1014 -0.2949  0.1323
 1642DOPE   D2B19269  13.037  15.913  11.359  0.3244  0.1070 -0.1678
 1642DOPE   C3B19270  12.911  15.917  10.911 -0.1582 -0.0827  0.0435
 1642DOPE   C4B19271  12.996  15.987  10.388 -0.2633 -0.0500 -0.2285
 1643POSM   NC319272  20.695  20.756  12.306  0.2932 -0.1354  0.0627
 1643POSM   PO419273  20.922  20.568  12.070  0.2262 -0.1993 -0.0022
 1643POSM   AM119274  20.736  20.534  11.801 -0.0996 -0.2220 -0.5632
 1643POSM   AM219275  20.628  20.710  11.590 -0.1634  0.0361  0.0370
 1643POSM   T1A19276  20.541  20.157  11.530  0.2446  0.5230  0.1007
 1643POSM   C2A19277  20.649  19.841  11.167  0.0929 -0.0887  0.0024
 1643POSM   C3A19278  20.578  19.581  10.786 -0.0841  0.1114  0.2073
 1643POSM   C1B19279  20.793  20.912  11.379  0.0455  0.0937  0.0253
 1643POSM   D2B19280  21.156  21.057  11.107  0.0776 -0.0395 -0.0422
 1643POSM   C3B19281  21.258  20.977  10.613 -0.0570 -0.1341  0.1128
 1643POSM   C4B19282  21.570  20.733  10.416  0.0451  0.1046 -0.0391
 1644DOPS   CNO19283  18.214  23.936  13.417  0.3093 -0.3938  0.3993
 1644DOPS   PO419284  18.289  24.260  13.255 -0.1132 -0.0794  0.1041
 1644DOPS   GL119285  18.484  24.225  12.835  0.0448  0.0397  0.0650
 1644DOPS   GL219286  18.257  24.377  12.748  0.0681  0.1027 -0.0789
 1644DOPS   C1A19287  18.732  24.402  12.489 -0.3404  0.0074  0.3056
 1644DOPS   D2A19288  18.673  24.440  12.025  0.0997  0.0168 -0.2749
 1644DOPS   C3A19289  18.202  24.459  11.937  0.0098  0.0774  0.2136
 1644DOPS   C4A19290  17.737  24.395  11.723 -0.2651  0.3845 -0.0835
 1644DOPS   C1B19291  17.956  24.629  12.506 -0.1153  0.2406 -0.2261
 1644DOPS   D2B19292  17.993  24.972  12.238  0.1280 -0.1230 -0.1603
 1644DOPS   C3B19293  18.073  24.923  11.799 -0.3499  0.1148  0.0643
 1644DOPS   C4B19294  18.059  24.623  11.426  0.1420 -0.1908 -0.1266
 1645DOPC   NC319295  21.181  12.952  12.399 -0.1315 -0.1333 -0.2961
 1645DOPC   PO419296  21.388  12.680  12.226 -0.0930 -0.0437 -0.0451
 1645DOPC   GL119297  21.177  12.427  11.947 -0.0079  0.0364 -0.2696
 1645DOPC   GL219298  21.074  12.577  11.741  0.2288  0.1038  0.4228
 1645DOPC   C1A19299  21.011  12.099  11.625  0.1675  0.2479  0.0354
 1645DOPC   D2A19300  20.931  11.990  11.156 -0.1560 -0.0645 -0.2217
 1645DOPC   C3A19301  21.235  12.273  10.963  0.0606 -0.1947 -0.0279
 1645DOPC   C4A19302  21.482  12.656  10.858 -0.0355 -0.1219  0.1285
 1645DOPC   C1B19303  20.997  12.518  11.295 -0.0652  0.4094  0.0746
 1645DOPC   D2B19304  20.644  12.459  11.023  0.0029  0.2255 -0.0442
 1645DOPC   C3B19305  20.441  12.375  10.640 -0.1940 -0.1501  0.0123
 1645DOPC   C4B19306  20.416  12.494  10.142  0.1621  0.1908  0.1029
 1646DOPE   NH319307  18.599  17.003  12.444  0.3342 -0.0979 -0.0058
 1646DOPE   PO419308  18.665  17.186  12.206  0.1607 -0.0796  0.3506
 1646DOPE   GL119309  18.466  17.193  11.791 -0.0203  0.1547  0.2246
 1646DOPE   GL219310  18.262  16.986  11.703  0.0373 -0.1146 -0.0305
 1646DOPE   C1A19311  18.487  17.124  11.305  0.1067 -0.2237  0.0064
 1646DOPE   D2A19312  18.699  16.780  11.164 -0.0823 -0.3445 -0.0481
 1646DOPE   C3A19313  18.864  16.568  10.823  0.0705 -0.2658  0.0960
 1646DOPE   C4A19314  19.210  16.462  10.465  0.1863 -0.0394 -0.1596
 1646DOPE   C1B19315  17.992  16.962  11.318  0.1259  0.1693 -0.1933
 1646DOPE   D2B19316  17.587  16.782  11.382 -0.0896  0.1656  0.2447
 1646DOPE   C3B19317  17.286  16.973  11.034 -0.2691 -0.0364 -0.0492
 1646DOPE   C4B19318  17.023  16.810  10.681 -0.1129  0.2834  0.0137
 1647DOPE   NH319319  17.595  18.507  12.233 -0.1200  0.0408 -0.2056
 1647DOPE   PO419320  17.303  18.490  12.166 -0.2408  0.1911 -0.1817
 1647DOPE   GL119321  17.089  18.441  11.759  0.0621 -0.1909  0.2172
 1647DOPE   GL219322  17.146  18.141  11.575  0.2508 -0.1196  0.1968
 1647DOPE   C1A19323  16.732  18.442  11.436 -0.0637  0.0386  0.1637
 1647DOPE   D2A19324  16.543  18.313  11.072  0.0155 -0.0739  0.2637
 1647DOPE   C3A19325  16.716  18.672  10.878 -0.1152 -0.1812  0.0006
 1647DOPE   C4A19326  16.571  19.054  10.561  0.0261 -0.0619  0.1590
 1647DOPE   C1B19327  17.099  18.324  11.128  0.3921  0.0749 -0.0637
 1647DOPE   D2B19328  16.976  18.185  10.773 -0.3808 -0.0592  0.2649
 1647DOPE   C3B19329  17.192  18.188  10.393  0.1569  0.3903  0.2886
 1647DOPE   C4B19330  17.536  18.432  10.181  0.2519 -0.2787 -0.3431
 1648DOPC   NC319331  19.350  22.062  11.892  0.1030  0.2019 -0.1485
 1648DOPC   PO419332  19.283  21.697  12.020 -0.2435  0.3921  0.1730
 1648DOPC   GL119333  19.261  21.667  11.628  0.1570 -0.1633  0.1725
 1648DOPC   GL219334  19.444  21.889  11.413  0.0635 -0.2703 -0.0416
 1648DOPC   C1A19335  19.054  21.335  11.379  0.2693 -0.2106  0.1412
 1648DOPC   D2A19336  18.712  21.243  11.051 -0.1750  0.0999  0.1988
 1648DOPC   C3A19337  18.769  20.904  10.720  0.0896  0.3198  0.3391
 1648DOPC   C4A19338  18.699  20.394  10.741  0.3166 -0.3433  0.1060
 1648DOPC   C1B19339  18.982  21.815  11.274  0.3162 -0.0069 -0.3273
 1648DOPC   D2B19340  18.635  22.124  11.360  0.0782 -0.0236  0.0843
 1648DOPC   C3B19341  18.609  22.579  11.316 -0.1364 -0.0218 -0.1609
 1648DOPC   C4B19342  18.611  22.989  11.540 -0.0641 -0.0289  0.0971
 1649POSM   NC319343  20.666  17.407  12.064 -0.0094  0.0064  0.0017
 1649POSM   PO419344  20.316  17.241  12.085  0.1049 -0.0118 -0.1478
 1649POSM   AM119345  20.262  17.376  11.778  0.3107 -0.1603  0.1244
 1649POSM   AM219346  20.068  17.344  11.553 -0.3019 -0.2979  0.0839
 1649POSM   T1A19347  20.435  17.744  11.459  0.1994  0.1280  0.0695
 1649POSM   C2A19348  20.663  18.026  11.139  0.1845 -0.0124 -0.1985
 1649POSM   C3A19349  20.880  17.986  10.734  0.2689  0.2928 -0.1311
 1649POSM   C1B19350  20.051  17.454  11.259  0.2206 -0.2483  0.0295
 1649POSM   D2B19351  19.854  17.604  10.921 -0.0628  0.3466 -0.0347
 1649POSM   C3B19352  20.048  17.679  10.504  0.0110  0.5488  0.0443
 1649POSM   C4B19353  19.857  17.790  10.142  0.3908 -0.0005  0.1945
 1650DOPE   NH319354  13.031  22.891  13.724  0.0809  0.0342 -0.1600
 1650DOPE   PO419355  13.312  22.852  13.627 -0.0981 -0.0801 -0.0039
 1650DOPE   GL119356  13.400  22.796  13.296  0.6403 -0.0706 -0.0756
 1650DOPE   GL219357  13.578  23.103  13.219  0.0784  0.1714  0.3104
 1650DOPE   C1A19358  13.230  22.541  12.897 -0.1613  0.1111  0.2963
 1650DOPE   D2A19359  13.131  22.186  12.555  0.0047 -0.1532 -0.1062
 1650DOPE   C3A19360  12.789  21.868  12.446  0.2066  0.0050  0.4001
 1650DOPE   C4A19361  12.435  21.882  12.161  0.1888  0.0324  0.4163
 1650DOPE   C1B19362  13.500  23.502  12.964 -0.1299  0.2123  0.2938
 1650DOPE   D2B19363  13.536  23.776  12.628  0.1845  0.0278  0.3926
 1650DOPE   C3B19364  13.235  24.144  12.442 -0.1006 -0.1204 -0.1226
 1650DOPE   C4B19365  13.171  24.415  12.105  0.1786 -0.2405  0.0777
 1651DOPS   CNO19366  15.404  12.997  12.640  0.1152 -0.0954  0.0178
 1651DOPS   PO419367  15.251  13.301  12.476  0.0212  0.1642  0.1364
 1651DOPS   GL119368  15.255  13.366  12.119  0.2732 -0.1014 -0.1672
 1651DOPS   GL219369  15.131  13.587  12.025  0.0285  0.0498  0.0139
 1651DOPS   C1A19370  15.474  13.300  11.717  0.2738  0.2690  0.0657
 1651DOPS   D2A19371  15.440  13.422  11.234  0.4710  0.0938 -0.2323
 1651DOPS   C3A19372  15.659  13.268  10.812  0.0559 -0.3768  0.1174
 1651DOPS   C4A19373  16.006  13.319  10.520  0.0636 -0.1402 -0.0736
 1651DOPS   C1B19374  15.039  13.186  11.785 -0.4137  0.1304  0.1751
 1651DOPS   D2B19375  15.127  13.007  11.295  0.2009 -0.0495 -0.1985
 1651DOPS   C3B19376  15.357  12.649  11.350  0.1767  0.0623  0.0543
 1651DOPS   C4B19377  15.630  12.559  10.933  0.0621  0.2079 -0.0486
 1652POSM   NC319378  19.095  19.830  11.936 -0.2244 -0.0061  0.0447
 1652POSM   PO419379  19.283  19.489  11.909 -0.1754 -0.0172 -0.1252
 1652POSM   AM119380  19.315  19.463  11.586 -0.1157 -0.3048 -0.0265
 1652POSM   AM219381  19.521  19.364  11.410 -0.1127 -0.1021 -0.3431
 1652POSM   T1A19382  19.102  19.283  11.182 -0.2239 -0.0765 -0.1307
 1652POSM   C2A19383  18.913  18.878  10.979  0.0437 -0.1868 -0.0192
 1652POSM   C3A19384  18.871  18.674  10.548 -0.0480  0.2041 -0.2969
 1652POSM   C1B19385  19.571  19.366  11.069 -0.0407  0.3425  0.0305
 1652POSM   D2B19386  19.348  19.295  10.659  0.1882  0.1515  0.0339
 1652POSM   C3B19387  19.566  19.660  10.421  0.0982  0.2632 -0.2392
 1652POSM   C4B19388  19.808  19.756  10.001  0.1505 -0.3352 -0.1843
 1653POSM   NC319389  15.957  19.876  12.557  0.1118 -0.1215  0.1073
 1653POSM   PO419390  16.336  19.920  12.500 -0.2734  0.2173 -0.1046
 1653POSM   AM119391  16.480  19.942  12.204 -0.0845  0.1047 -0.1018
 1653POSM   AM219392  16.351  19.995  11.950 -0.3935 -0.0420 -0.0637
 1653POSM   T1A19393  16.789  19.748  11.869  0.0353 -0.0872  0.2576
 1653POSM   C2A19394  17.102  19.646  11.583  0.1606  0.3474  0.2301
 1653POSM   C3A19395  17.121  19.583  11.083  0.1188  0.2816 -0.1617
 1653POSM   C1B19396  16.291  20.250  11.721  0.0201  0.1842 -0.1347
 1653POSM   D2B19397  16.360  20.466  11.358 -0.2310 -0.2872  0.1141
 1653POSM   C3B19398  16.089  20.696  11.050 -0.0922 -0.0442  0.2541
 1653POSM   C4B19399  16.104  20.678  10.613  0.1387 -0.0770  0.2046
 1654DOPC   NC319400  13.335  12.091  13.052  0.0057 -0.4610  0.1117
 1654DOPC   PO419401  13.517  12.203  12.668 -0.2566 -0.1109 -0.0298
 1654DOPC   GL119402  13.466  12.231  12.244 -0.0304  0.2295  0.4610
 1654DOPC   GL219403  13.629  12.482  12.072 -0.2371 -0.2495  0.0817
 1654DOPC   C1A19404  13.050  12.375  12.186  0.0278 -0.0252  0.1093
 1654DOPC   D2A19405  12.724  12.746  11.964 -0.1728  0.2956  0.0695
 1654DOPC   C3A19406  12.295  12.693  11.984 -0.0152 -0.0194 -0.0735
 1654DOPC   C4A19407  12.015  12.777  11.671 -0.0816  0.0391  0.2450
 1654DOPC   C1B19408  13.334  12.739  11.881 -0.0149  0.0634 -0.1199
 1654DOPC   D2B19409  13.251  12.920  11.511  0.1368  0.0339 -0.0414
 1654DOPC   C3B19410  13.427  12.968  11.121 -0.1395  0.2247 -0.1352
 1654DOPC   C4B19411  13.287  12.583  10.985  0.1260  0.0158 -0.0587
 1655DOPS   CNO19412  17.165  14.317  12.148  0.1683  0.1521  0.0831
 1655DOPS   PO419413  17.454  14.299  11.901 -0.0039 -0.1398 -0.1575
 1655DOPS   GL119414  17.396  14.413  11.476  0.2123 -0.3951  0.3058
 1655DOPS   GL219415  17.259  14.168  11.448  0.0812  0.0162 -0.1270
 1655DOPS   C1A19416  17.109  14.661  11.160  0.2681 -0.0535  0.1291
 1655DOPS   D2A19417  17.091  14.876  10.747 -0.1970  0.0705 -0.2357
 1655DOPS   C3A19418  17.530  14.903  10.604  0.0030  0.0790 -0.1220
 1655DOPS   C4A19419  17.932  14.695  10.474  0.0968 -0.0112  0.3872
 1655DOPS   C1B19420  17.328  13.803  11.170  0.3503 -0.1110 -0.1670
 1655DOPS   D2B19421  17.272  13.325  11.081 -0.0296  0.3004 -0.0219
 1655DOPS   C3B19422  17.003  13.240  10.725 -0.0488  0.0359 -0.0411
 1655DOPS   C4B19423  17.002  12.867  10.504 -0.1606  0.1371  0.4252
 1656DOPE   NH319424  20.196  22.146  12.148 -0.1136 -0.1272  0.2241
 1656DOPE   PO419425  20.280  22.447  12.115 -0.0895 -0.0432 -0.2061
 1656DOPE   GL119426  20.090  22.362  11.747  0.1676 -0.2796 -0.4540
 1656DOPE   GL219427  19.810  22.313  11.854 -0.0646 -0.0396 -0.0089
 1656DOPE   C1A19428  20.168  22.559  11.350  0.1901  0.0223  0.1933
 1656DOPE   D2A19429  20.002  22.522  10.927 -0.0230 -0.4030 -0.2280
 1656DOPE   C3A19430  20.085  22.535  10.441  0.0715  0.4373 -0.1341
 1656DOPE   C4A19431  20.369  22.644  10.078 -0.0803  0.2129 -0.2541
 1656DOPE   C1B19432  19.731  22.374  11.381  0.1250  0.3263  0.1392
 1656DOPE   D2B19433  19.637  22.176  10.983  0.0215  0.0025  0.4033
 1656DOPE   C3B19434  19.968  22.036  10.614 -0.2484 -0.3370 -0.1659
 1656DOPE   C4B19435  20.334  22.085  10.354 -0.1812  0.0671  0.0854
 1657POSM   NC319436  20.426  16.791  11.972  0.0567 -0.0421  0.0810
 1657POSM   PO419437  20.530  16.466  11.782 -0.3134 -0.1913  0.1584
 1657POSM   AM119438  20.379  16.565  11.528  0.3406  0.1130 -0.2195
 1657POSM   AM219439  20.202  16.802  11.486 -0.1995  0.0751 -0.2429
 1657POSM   T1A19440  20.372  16.527  11.070  0.2861  0.2655  0.3111
 1657POSM   C2A19441  20.280  16.197  10.788 -0.2111  0.1930  0.1303
 1657POSM   C3A19442  20.133  15.839  10.497 -0.0417 -0.0348  0.1837
 1657POSM   C1B19443  20.250  17.017  11.198 -0.0037  0.1772 -0.2527
 1657POSM   D2B19444  20.219  17.140  10.787 -0.1943 -0.3779 -0.0720
 1657POSM   C3B19445  20.205  16.716  10.571 -0.4964 -0.1265  0.2506
 1657POSM   C4B19446  20.092  16.324  10.339 -0.0467  0.1335  0.2381
 1658POSM   NC319447  21.158  12.322  12.443 -0.0373  0.1879 -0.1362
 1658POSM   PO419448  20.845  12.143  12.263 -0.0809 -0.3297 -0.0885
 1658POSM   AM119449  20.724  12.110  11.963  0.3267  0.1406 -0.1453
 1658POSM   AM219450  20.622  11.871  11.866 -0.0463 -0.2356  0.0083
 1658POSM   T1A19451  20.522  12.137  11.476  0.2629  0.1504  0.0616
 1658POSM   C2A19452  20.204  12.246  11.178  0.2900 -0.0604  0.0833
 1658POSM   C3A19453  19.837  12.447  10.901 -0.0516  0.1600 -0.0252
 1658POSM   C1B19454  20.774  11.700  11.687  0.0303  0.2149 -0.1189
 1658POSM   D2B19455  20.834  11.467  11.252 -0.3578  0.0566 -0.1946
 1658POSM   C3B19456  21.196  11.151  11.302  0.3503  0.0722  0.1610
 1658POSM   C4B19457  21.485  10.956  11.577 -0.2184  0.1380  0.1487
 1659DOPC   NC319458  15.186  20.899  12.465 -0.1643 -0.0722 -0.0652
 1659DOPC   PO419459  15.511  21.097  12.415 -0.3424 -0.6524 -0.1228
 1659DOPC   GL119460  15.348  21.157  12.031 -0.3188 -0.1748 -0.3457
 1659DOPC   GL219461  15.317  20.896  11.986  0.1728  0.1116  0.0397
 1659DOPC   C1A19462  15.179  21.489  11.729  0.0452  0.3466  0.0934
 1659DOPC   D2A19463  14.984  21.844  11.898  0.1189 -0.0728 -0.1495
 1659DOPC   C3A19464  14.832  22.218  11.664  0.1421 -0.1420 -0.2245
 1659DOPC   C4A19465  14.402  22.267  11.420  0.2133 -0.0647  0.0246
 1659DOPC   C1B19466  15.053  20.902  11.600  0.0550 -0.1204 -0.1219
 1659DOPC   D2B19467  14.925  21.171  11.234 -0.2038 -0.0084 -0.1159
 1659DOPC   C3B19468  14.523  21.334  11.111 -0.2583 -0.5182  0.0166
 1659DOPC   C4B19469  14.066  21.345  10.991  0.2670 -0.1236  0.1314
 1660DOPC   NC319470  10.391  15.738  12.820  0.0770  0.1218  0.1477
 1660DOPC   PO419471  10.650  15.955  12.646 -0.0305  0.0159 -0.0354
 1660DOPC   GL119472  10.790  15.747  12.342 -0.3105 -0.0410 -0.0550
 1660DOPC   GL219473  10.749  15.897  12.147 -0.1314  0.1865 -0.1551
 1660DOPC   C1A19474  10.908  15.516  11.896 -0.1421  0.0781  0.0635
 1660DOPC   D2A19475  11.101  15.082  11.870  0.0656  0.2984 -0.1595
 1660DOPC   C3A19476  10.746  14.796  11.739  0.0601 -0.1157  0.1538
 1660DOPC   C4A19477  10.612  14.414  11.507 -0.2127  0.0192 -0.0099
 1660DOPC   C1B19478  11.039  15.992  11.833  0.1430  0.0040  0.0252
 1660DOPC   D2B19479  11.070  15.802  11.425  0.1084  0.0555 -0.0827
 1660DOPC   C3B19480  10.682  15.635  11.148 -0.1604 -0.1197 -0.0811
 1660DOPC   C4B19481  10.277  15.862  11.145 -0.0396 -0.1049 -0.1527
 1661POSM   NC319482  17.965  11.429  12.512 -0.2959 -0.3011  0.1615
 1661POSM   PO419483  18.064  11.493  12.112 -0.0600  0.1612 -0.3625
 1661POSM   AM119484  17.982  11.672  11.829  0.0947 -0.0505 -0.0221
 1661POSM   AM219485  18.101  11.707  11.539 -0.1713  0.0970 -0.1607
 1661POSM   T1A19486  17.599  11.777  11.461  0.0363 -0.0288 -0.3430
 1661POSM   C2A19487  17.614  11.598  11.042  0.1729 -0.1833 -0.1261
 1661POSM   C3A19488  17.569  11.370  10.645  0.1444  0.1671 -0.1751
 1661POSM   C1B19489  18.368  11.572  11.472 -0.2753 -0.0547 -0.1477
 1661POSM   D2B19490  18.863  11.568  11.531  0.3519 -0.1198  0.1701
 1661POSM   C3B19491  19.078  11.296  11.268 -0.0272  0.0039  0.1219
 1661POSM   C4B19492  19.287  10.811  11.148 -0.3169  0.1157 -0.1724
 1662POSM   NC319493  22.368  18.258  12.222  0.2270  0.0236 -0.0839
 1662POSM   PO419494  22.788  18.238  12.193 -0.0928 -0.1683  0.0112
 1662POSM   AM119495  22.729  18.401  11.922  0.2237 -0.1620 -0.2405
 1662POSM   AM219496  22.888  18.355  11.685  0.0340 -0.1249 -0.1070
 1662POSM   T1A19497  22.584  18.665  11.530  0.0519  0.0774 -0.3208
 1662POSM   C2A19498  22.512  18.854  11.133  0.1220  0.4593  0.1629
 1662POSM   C3A19499  22.647  18.991  10.695 -0.3047  0.0713 -0.2595
 1662POSM   C1B19500  23.165  18.117  11.572  0.0798 -0.2345 -0.2716
 1662POSM   D2B19501  23.465  17.766  11.508 -0.1226 -0.0303  0.0254
 1662POSM   C3B19502  23.508  17.413  11.192  0.0918  0.1069 -0.0469
 1662POSM   C4B19503  23.398  16.970  11.027  0.1383  0.0313  0.3760
 1663DOPE   NH319504  21.100  22.273  12.329  0.2533  0.0695 -0.0658
 1663DOPE   PO419505  20.737  22.205  12.288  0.1632  0.0942  0.1577
 1663DOPE   GL119506  20.649  22.280  11.916 -0.2025 -0.2743  0.0864
 1663DOPE   GL219507  20.543  22.065  11.736 -0.0893 -0.1490  0.0424
 1663DOPE   C1A19508  20.909  22.462  11.620 -0.1220  0.0039  0.1455
 1663DOPE   D2A19509  21.141  22.361  11.243  0.0263 -0.4269 -0.0533
 1663DOPE   C3A19510  21.302  22.013  11.365 -0.3670  0.2079 -0.2557
 1663DOPE   C4A19511  21.746  21.864  11.290  0.0955  0.1536  0.0395
 1663DOPE   C1B19512  20.720  22.028  11.320  0.0037 -0.2863 -0.2496
 1663DOPE   D2B19513  20.951  21.818  11.009  0.1216 -0.3260  0.0270
 1663DOPE   C3B19514  20.761  21.429  10.996  0.0217 -0.0827 -0.0259
 1663DOPE   C4B19515  20.781  20.961  10.844 -0.0938  0.0854  0.4953
 1664DOPC   NC319516  18.020  21.309  12.113 -0.0368 -0.1851  0.0328
 1664DOPC   PO419517  18.053  21.685  12.021  0.0801 -0.1899  0.1267
 1664DOPC   GL119518  17.880  21.835  11.693  0.3752  0.0702  0.0309
 1664DOPC   GL219519  17.695  22.051  11.788 -0.0639  0.2113 -0.3171
 1664DOPC   C1A19520  17.917  22.130  11.300 -0.0204 -0.1863  0.2539
 1664DOPC   D2A19521  18.251  22.301  11.042 -0.1323 -0.0642  0.1024
 1664DOPC   C3A19522  18.286  22.259  10.580  0.2305 -0.1575 -0.0024
 1664DOPC   C4A19523  18.285  22.370  10.071  0.0957  0.0558  0.0724
 1664DOPC   C1B19524  17.454  22.230  11.464 -0.2068  0.3350  0.0443
 1664DOPC   D2B19525  17.365  22.603  11.280  0.1426 -0.2215 -0.1024
 1664DOPC   C3B19526  17.282  22.580  10.752 -0.2032 -0.0572  0.0121
 1664DOPC   C4B19527  17.222  22.269  10.417 -0.2119  0.0299  0.2453
 1665DOPE   NH319528  18.850  18.291  11.776  0.0994  0.4653  0.0021
 1665DOPE   PO419529  18.695  18.012  11.696  0.0571 -0.3035 -0.0465
 1665DOPE   GL119530  18.605  18.129  11.331 -0.3261  0.4188  0.0690
 1665DOPE   GL219531  18.585  17.860  11.204 -0.2899 -0.3511 -0.2248
 1665DOPE   C1A19532  18.524  18.361  10.975  0.2401 -0.0965  0.0324
 1665DOPE   D2A19533  18.555  18.299  10.519 -0.4474  0.0702  0.1251
 1665DOPE   C3A19534  18.225  17.960  10.413 -0.0570  0.2307  0.0018
 1665DOPE   C4A19535  18.173  17.725  10.027 -0.4178  0.0808 -0.0706
 1665DOPE   C1B19536  18.188  17.828  10.913 -0.0615  0.1614 -0.1860
 1665DOPE   D2B19537  17.742  17.772  10.826 -0.2096  0.2934 -0.1862
 1665DOPE   C3B19538  17.440  17.406  10.758 -0.3598 -0.2192  0.0433
 1665DOPE   C4B19539  17.461  17.082  10.386 -0.2201  0.0514 -0.1379
 1666DOPE   NH319540  21.138  15.799  12.172 -0.0283 -0.1605 -0.0018
 1666DOPE   PO419541  21.486  15.749  12.260 -0.0719 -0.1383  0.0014
 1666DOPE   GL119542  21.516  15.635  11.792 -0.2843  0.0847  0.1824
 1666DOPE   GL219543  21.313  15.465  11.843 -0.0349  0.0123 -0.1027
 1666DOPE   C1A19544  21.461  15.589  11.357  0.1067  0.0364  0.0499
 1666DOPE   D2A19545  21.461  15.562  10.893 -0.1688  0.2704  0.1783
 1666DOPE   C3A19546  21.138  15.887  10.779  0.0198  0.0150  0.0718
 1666DOPE   C4A19547  20.741  16.108  10.850  0.0682  0.0838  0.2995
 1666DOPE   C1B19548  21.085  15.822  11.635  0.0172  0.0770 -0.1529
 1666DOPE   D2B19549  21.132  16.014  11.238  0.0681 -0.1020  0.3671
 1666DOPE   C3B19550  21.582  16.012  10.984  0.0731  0.2865 -0.0398
 1666DOPE   C4B19551  21.573  15.880  10.524  0.0420  0.1130 -0.0693
 1667DOPE   NH319552  16.435  13.694  12.323  0.1642  0.0167  0.0663
 1667DOPE   PO419553  16.195  13.446  12.302 -0.3411 -0.0365 -0.1617
 1667DOPE   GL119554  16.169  13.529  11.829 -0.0666 -0.0535 -0.2084
 1667DOPE   GL219555  15.985  13.314  11.795 -0.1593  0.1345 -0.1653
 1667DOPE   C1A19556  16.521  13.356  11.530 -0.1295 -0.1410 -0.1217
 1667DOPE   D2A19557  16.776  13.492  11.118  0.3208 -0.3169 -0.0102
 1667DOPE   C3A19558  16.874  13.961  10.980  0.0033 -0.0382 -0.0155
 1667DOPE   C4A19559  17.204  14.283  10.896 -0.1608 -0.1867 -0.1220
 1667DOPE   C1B19560  16.161  12.973  11.588  0.0482 -0.3309 -0.1229
 1667DOPE   D2B19561  16.313  13.060  11.163 -0.1883  0.1433 -0.0971
 1667DOPE   C3B19562  16.348  13.341  10.882  0.0021 -0.0291  0.4221
 1667DOPE   C4B19563  16.127  13.741  10.760  0.1016 -0.0754  0.1083
 1668DOPS   CNO19564  12.608  17.183  12.639  0.1417 -0.1829  0.2911
 1668DOPS   PO419565  12.498  17.386  12.391  0.1737 -0.1867 -0.1097
 1668DOPS   GL119566  12.502  17.284  12.070  0.3312  0.2241 -0.0747
 1668DOPS   GL219567  12.212  17.255  11.907  0.0912  0.1516 -0.1344
 1668DOPS   C1A19568  12.580  17.010  11.737 -0.3410  0.2742 -0.1184
 1668DOPS   D2A19569  12.795  16.808  11.370  0.2385 -0.0413 -0.1036
 1668DOPS   C3A19570  12.596  16.933  10.984  0.0087 -0.1139 -0.3963
 1668DOPS   C4A19571  12.392  16.786  10.586 -0.1964 -0.0250  0.0028
 1668DOPS   C1B19572  12.466  17.645  11.765  0.1292  0.0045  0.2015
 1668DOPS   D2B19573  12.525  18.115  11.642 -0.2037  0.1062 -0.2232
 1668DOPS   C3B19574  12.529  18.257  11.221  0.0431 -0.1656 -0.0894
 1668DOPS   C4B19575  12.797  18.402  10.889  0.2245  0.0291 -0.1094
 1669DOPE   NH319576  19.267  19.017  11.720  0.1828  0.1079 -0.4209
 1669DOPE   PO419577  19.188  18.737  11.774  0.0212 -0.1312 -0.1544
 1669DOPE   GL119578  19.567  18.689  11.623 -0.1399  0.0547  0.4937
 1669DOPE   GL219579  19.575  18.882  11.354 -0.0122 -0.3021 -0.0131
 1669DOPE   C1A19580  19.842  18.458  11.289 -0.0775 -0.1685 -0.4303
 1669DOPE   D2A19581  20.279  18.513  11.137  0.1092  0.2301  0.4005
 1669DOPE   C3A19582  20.599  18.868  11.056  0.1436  0.0123 -0.0640
 1669DOPE   C4A19583  20.498  19.269  11.102  0.0003  0.4197 -0.3074
 1669DOPE   C1B19584  19.509  18.898  10.867  0.1913  0.0151 -0.1244
 1669DOPE   D2B19585  19.789  19.181  10.576  0.1198  0.3976  0.0176
 1669DOPE   C3B19586  20.042  19.269  10.213  0.0309 -0.1321  0.0815
 1669DOPE   C4B19587  20.083  19.330   9.750  0.0492 -0.1876 -0.2197
 1670DOPE   NH319588  15.536  18.721  12.441 -0.0219  0.2606  0.0521
 1670DOPE   PO419589  15.495  18.666  12.129 -0.1494 -0.0377 -0.1489
 1670DOPE   GL119590  15.549  18.637  11.736 -0.2341  0.1295  0.0762
 1670DOPE   GL219591  15.721  18.348  11.698  0.1409 -0.1484 -0.3727
 1670DOPE   C1A19592  15.572  18.589  11.297 -0.1837  0.1581  0.1448
 1670DOPE   D2A19593  15.447  18.393  10.897  0.3485 -0.2758  0.2059
 1670DOPE   C3A19594  15.488  18.424  10.420  0.4684 -0.0482  0.0295
 1670DOPE   C4A19595  15.284  18.737  10.106 -0.0732  0.0362  0.0871
 1670DOPE   C1B19596  15.832  17.966  11.472  0.1744 -0.0863  0.0774
 1670DOPE   D2B19597  15.677  17.660  11.134  0.0122 -0.1141  0.0320
 1670DOPE   C3B19598  15.316  17.650  10.855  0.2535  0.0536 -0.0674
 1670DOPE   C4B19599  14.995  17.882  10.549  0.0498  0.2773  0.2969
 1671POSM   NC319600  14.577  12.669  12.438 -0.0853  0.2130  0.3482
 1671POSM   PO419601  14.528  12.320  12.563  0.0291  0.1257 -0.1119
 1671POSM   AM119602  14.423  12.177  12.279 -0.1095 -0.0406  0.1303
 1671POSM   AM219603  14.563  12.219  12.050  0.1197 -0.2909  0.0246
 1671POSM   T1A19604  14.156  11.853  12.065  0.0022  0.0430 -0.1243
 1671POSM   C2A19605  14.015  11.764  11.598 -0.0690 -0.2563  0.0273
 1671POSM   C3A19606  13.814  11.604  11.205  0.0008 -0.0136 -0.0255
 1671POSM   C1B19607  14.255  12.294  11.858 -0.1986  0.1204 -0.1841
 1671POSM   D2B19608  13.924  12.379  11.598  0.2079 -0.0230  0.1639
 1671POSM   C3B19609  13.412  12.420  11.479  0.2327  0.1919 -0.1213
 1671POSM   C4B19610  12.946  12.482  11.350 -0.0220  0.1299  0.2188
 1672POSM   NC319611  17.620  15.205  11.923  0.3355  0.0958 -0.2286
 1672POSM   PO419612  17.818  15.552  11.854  0.3353 -0.1459 -0.0759
 1672POSM   AM119613  17.637  15.674  11.568  0.0790  0.1063  0.2568
 1672POSM   AM219614  17.704  15.896  11.415 -0.0430  0.1023 -0.1601
 1672POSM   T1A19615  17.302  15.681  11.174 -0.0283 -0.0464  0.2176
 1672POSM   C2A19616  17.081  15.762  10.745 -0.0835 -0.1872  0.0212
 1672POSM   C3A19617  17.121  15.878  10.275  0.1171 -0.0699 -0.1938
 1672POSM   C1B19618  17.437  16.160  11.293 -0.0692  0.2138 -0.0308
 1672POSM   D2B19619  17.296  16.460  11.007 -0.1772 -0.1291 -0.0440
 1672POSM   C3B19620  17.084  16.316  10.582 -0.0555 -0.3287  0.3082
 1672POSM   C4B19621  16.685  16.213  10.355  0.0714  0.1499 -0.0459
 1673DOPC   NC319622  19.508  17.859  11.863 -0.1172 -0.2287  0.3948
 1673DOPC   PO419623  19.357  18.224  11.855 -0.0669  0.0779  0.2078
 1673DOPC   GL119624  19.424  18.090  11.485  0.3732  0.1028 -0.0331
 1673DOPC   GL219625  19.316  18.333  11.376  0.0506 -0.1439  0.0742
 1673DOPC   C1A19626  19.589  18.102  11.046  0.0594 -0.0693  0.2472
 1673DOPC   D2A19627  19.494  17.896  10.598 -0.2113 -0.0642 -0.1718
 1673DOPC   C3A19628  19.614  17.466  10.463 -0.0024  0.0935 -0.1849
 1673DOPC   C4A19629  19.490  17.200  10.101  0.0718  0.0422 -0.1671
 1673DOPC   C1B19630  19.071  18.069  11.151  0.2437  0.2049 -0.1733
 1673DOPC   D2B19631  18.918  17.939  10.707 -0.3142  0.0282 -0.0597
 1673DOPC   C3B19632  19.110  18.070  10.299  0.2542 -0.0786  0.2103
 1673DOPC   C4B19633  19.460  18.164  10.027  0.1432 -0.0496 -0.1853
 1674DOPC   NC319634  16.650  20.289  12.565 -0.1490  0.1077  0.1354
 1674DOPC   PO419635  16.824  20.580  12.343  0.1383 -0.3256 -0.0177
 1674DOPC   GL119636  16.726  20.576  11.905  0.1461  0.1639  0.0693
 1674DOPC   GL219637  16.748  20.309  11.886 -0.1660 -0.1569  0.1635
 1674DOPC   C1A19638  16.910  20.757  11.484 -0.0270 -0.1041  0.0658
 1674DOPC   D2A19639  17.028  20.732  11.064 -0.1544 -0.0940 -0.1243
 1674DOPC   C3A19640  16.808  20.926  10.693 -0.1665 -0.2646 -0.0297
 1674DOPC   C4A19641  16.577  21.058  10.337  0.0534 -0.0144 -0.1589
 1674DOPC   C1B19642  16.735  20.087  11.457  0.2913  0.1733 -0.0462
 1674DOPC   D2B19643  16.659  19.925  11.021  0.3393  0.1740  0.0098
 1674DOPC   C3B19644  16.525  19.602  10.712 -0.0056 -0.0755  0.1551
 1674DOPC   C4B19645  16.545  19.533  10.247 -0.1726 -0.0446 -0.0859
 1675POSM   NC319646  14.083  20.842  13.411 -0.1383 -0.0048 -0.0051
 1675POSM   PO419647  13.989  20.913  13.029  0.0602 -0.1490 -0.2816
 1675POSM   AM119648  14.140  21.080  12.786 -0.1246  0.1972 -0.0360
 1675POSM   AM219649  14.125  21.370  12.727  0.0275 -0.1736  0.1520
 1675POSM   T1A19650  14.355  21.005  12.357 -0.1932 -0.3970  0.1030
 1675POSM   C2A19651  14.313  20.925  11.911  0.0104 -0.3024 -0.1458
 1675POSM   C3A19652  14.459  20.955  11.448 -0.2441 -0.1465  0.3219
 1675POSM   C1B19653  14.070  21.567  12.424 -0.1885  0.1252  0.0273
 1675POSM   D2B19654  13.884  21.905  12.191 -0.2982  0.0921  0.0580
 1675POSM   C3B19655  14.138  21.937  11.746 -0.0645  0.0708 -0.1077
 1675POSM   C4B19656  14.575  21.806  11.530 -0.3020  0.0242 -0.0220
 1676DOPC   NC319657  19.930  15.055  12.111  0.0742  0.0086  0.0334
 1676DOPC   PO419658  20.295  15.144  12.012 -0.1637  0.2333  0.0722
 1676DOPC   GL119659  20.665  15.148  11.751  0.2876 -0.0778 -0.2329
 1676DOPC   GL219660  20.490  14.887  11.639  0.0751 -0.0943 -0.0022
 1676DOPC   C1A19661  20.844  15.430  11.455  0.2555  0.2417 -0.0730
 1676DOPC   D2A19662  20.751  15.714  11.086 -0.1037  0.2579  0.1006
 1676DOPC   C3A19663  20.737  15.639  10.613  0.1219 -0.1718  0.3544
 1676DOPC   C4A19664  20.705  15.612  10.193  0.2419  0.0018 -0.2931
 1676DOPC   C1B19665  20.806  14.928  11.310  0.0255  0.1369 -0.3041
 1676DOPC   D2B19666  21.096  15.175  11.056 -0.0079  0.3086  0.1600
 1676DOPC   C3B19667  21.158  15.314  10.603 -0.1312 -0.2567 -0.2333
 1676DOPC   C4B19668  21.217  15.190  10.156 -0.5714  0.1074 -0.0400
 1677POSM   NC319669  12.174  19.106  12.648 -0.0940 -0.1444  0.2065
 1677POSM   PO419670  12.223  19.466  12.869 -0.2286  0.4504 -0.3024
 1677POSM   AM119671  12.239  19.580  12.558 -0.0335  0.1115  0.2875
 1677POSM   AM219672  12.148  19.801  12.489  0.0023 -0.0035  0.0091
 1677POSM   T1A19673  12.189  19.575  12.049 -0.2769 -0.3898  0.2905
 1677POSM   C2A19674  11.900  19.488  11.684  0.1990 -0.0379  0.0743
 1677POSM   C3A19675  11.476  19.479  11.387  0.1485  0.1495  0.0203
 1677POSM   C1B19676  12.044  20.053  12.320  0.3081  0.2049  0.0699
 1677POSM   D2B19677  11.997  20.409  11.943 -0.1605  0.1334 -0.1259
 1677POSM   C3B19678  12.359  20.387  11.703 -0.1995 -0.1051  0.0543
 1677POSM   C4B19679  12.457  20.134  11.375  0.2876 -0.1985  0.2768
 1678DOPC   NC319680  14.121  15.026  11.883 -0.1066 -0.0699 -0.1971
 1678DOPC   PO419681  14.504  15.092  11.896  0.3062  0.0517 -0.1716
 1678DOPC   GL119682  14.462  15.337  11.638 -0.0186 -0.4117 -0.1807
 1678DOPC   GL219683  14.340  15.203  11.426 -0.0036 -0.2202  0.3277
 1678DOPC   C1A19684  14.404  15.718  11.420  0.0808 -0.4905  0.0606
 1678DOPC   D2A19685  14.161  15.904  11.044  0.0310 -0.0417 -0.2053
 1678DOPC   C3A19686  14.267  16.268  10.776 -0.0899 -0.1519 -0.0018
 1678DOPC   C4A19687  14.301  16.518  10.356 -0.0863 -0.6062  0.0103
 1678DOPC   C1B19688  14.136  14.885  11.203  0.0271 -0.3276 -0.1337
 1678DOPC   D2B19689  13.950  14.618  10.906  0.0629 -0.0693 -0.3271
 1678DOPC   C3B19690  14.174  14.557  10.482  0.1406  0.0635  0.3634
 1678DOPC   C4B19691  14.398  14.416  10.131  0.1682  0.0416 -0.1188
 1679POSM   NC319692  14.670  22.678  13.847  0.0476  0.1326 -0.0137
 1679POSM   PO419693  15.044  22.561  13.759  0.2103 -0.0555 -0.1406
 1679POSM   AM119694  14.886  22.567  13.459 -0.4052 -0.0934  0.1972
 1679POSM   AM219695  14.690  22.737  13.253  0.1688  0.0696  0.1114
 1679POSM   T1A19696  14.983  22.393  13.025 -0.0966 -0.3198 -0.0749
 1679POSM   C2A19697  14.926  22.037  12.746  0.0045  0.0428  0.1856
 1679POSM   C3A19698  14.949  21.779  12.356  0.2073 -0.2294  0.2351
 1679POSM   C1B19699  14.518  22.796  12.949 -0.1442 -0.1962 -0.0343
 1679POSM   D2B19700  14.266  22.747  12.548  0.1757 -0.0190 -0.0771
 1679POSM   C3B19701  14.539  22.714  12.215  0.0013 -0.1983  0.0315
 1679POSM   C4B19702  14.443  22.435  11.903 -0.3353  0.3577 -0.1510
 1680DOPE   NH319703  13.023  18.071  12.560 -0.3666 -0.0746 -0.2585
 1680DOPE   PO419704  12.860  17.809  12.503 -0.0520 -0.1052 -0.1005
 1680DOPE   GL119705  12.956  17.675  12.162 -0.1709 -0.0709  0.0612
 1680DOPE   GL219706  12.967  17.391  12.180 -0.1178 -0.0796  0.2269
 1680DOPE   C1A19707  13.380  17.531  11.988  0.2978 -0.2325  0.0572
 1680DOPE   D2A19708  13.660  17.361  11.639 -0.0075 -0.1916 -0.1191
 1680DOPE   C3A19709  14.098  17.281  11.793  0.1449  0.0914 -0.0251
 1680DOPE   C4A19710  14.509  17.358  11.546  0.1303  0.0827 -0.4120
 1680DOPE   C1B19711  12.951  17.451  11.724 -0.1138 -0.4076  0.0221
 1680DOPE   D2B19712  12.829  17.267  11.281 -0.1085 -0.2539  0.0510
 1680DOPE   C3B19713  12.657  17.562  10.894  0.0201  0.1812 -0.0721
 1680DOPE   C4B19714  12.783  17.850  10.571 -0.1644 -0.0977 -0.5855
 1681DOPC   NC319715  20.509  12.789  12.523  0.0538 -0.1835  0.0089
 1681DOPC   PO419716  20.156  12.917  12.388 -0.1071  0.0073 -0.0048
 1681DOPC   GL119717  20.204  12.830  11.999 -0.3151  0.1609  0.0918
 1681DOPC   GL219718  20.428  12.744  11.827  0.1909  0.0579 -0.0677
 1681DOPC   C1A19719  20.112  13.124  11.601  0.1113  0.1110  0.1498
 1681DOPC   D2A19720  20.309  13.445  11.363  0.2059 -0.0812 -0.1768
 1681DOPC   C3A19721  20.440  13.336  10.978 -0.0074  0.1219  0.1144
 1681DOPC   C4A19722  20.652  13.215  10.583 -0.0569 -0.1203  0.1455
 1681DOPC   C1B19723  20.747  12.902  11.549  0.1707 -0.1189  0.0568
 1681DOPC   D2B19724  21.233  12.935  11.476  0.1654 -0.2862 -0.0510
 1681DOPC   C3B19725  21.343  13.150  11.077  0.3096  0.2315  0.1040
 1681DOPC   C4B19726  21.246  13.147  10.628 -0.2287  0.4817  0.1053
 1682DOPC   NC319727  15.570  10.646  12.904 -0.3824 -0.0587 -0.0527
 1682DOPC   PO419728  15.461  10.308  12.814  0.1206 -0.1140 -0.0988
 1682DOPC   GL119729  15.555  10.022  12.516 -0.3586  0.3068 -0.3655
 1682DOPC   GL219730  15.500   9.736  12.604 -0.3339  0.2369 -0.2805
 1682DOPC   C1A19731  15.534  10.065  12.028 -0.0427 -0.3297  0.0836
 1682DOPC   D2A19732  15.576  10.024  11.558  0.1987 -0.1211  0.1640
 1682DOPC   C3A19733  15.913  10.127  11.281 -0.0804  0.0443  0.1739
 1682DOPC   C4A19734  16.334  10.098  11.479 -0.1817  0.3989  0.0283
 1682DOPC   C1B19735  15.247   9.551  12.237 -0.4244  0.1659  0.0695
 1682DOPC   D2B19736  15.020   9.277  11.955 -0.0108  0.0811 -0.0172
 1682DOPC   C3B19737  14.749   9.125  11.622 -0.0199 -0.2721 -0.2503
 1682DOPC   C4B19738  14.294   9.041  11.593  0.1842  0.0189 -0.0447
 1683DOPC   NC319739  15.855  16.680  12.279  0.2358  0.3348  0.3878
 1683DOPC   PO419740  15.808  17.006  12.054  0.0342 -0.1147  0.0451
 1683DOPC   GL119741  15.518  17.220  11.709  0.1799 -0.3689 -0.0151
 1683DOPC   GL219742  15.259  17.277  11.748  0.0722  0.1390 -0.3306
 1683DOPC   C1A19743  15.364  17.294  11.244  0.0820 -0.3535 -0.0171
 1683DOPC   D2A19744  15.441  17.188  10.761  0.4071  0.2071  0.0327
 1683DOPC   C3A19745  15.833  17.396  10.716  0.1856 -0.0693  0.0406
 1683DOPC   C4A19746  16.144  17.435  11.098 -0.0470  0.3365  0.1993
 1683DOPC   C1B19747  14.909  17.078  11.929 -0.0079 -0.0526  0.0697
 1683DOPC   D2B19748  14.530  17.391  12.034  0.3338  0.1729  0.0948
 1683DOPC   C3B19749  14.491  17.832  11.855  0.0648  0.2466 -0.2595
 1683DOPC   C4B19750  14.470  18.330  11.751  0.2786  0.2140  0.0110
 1684DOPC   NC319751  22.097  20.279  12.032 -0.1389 -0.0163 -0.0145
 1684DOPC   PO419752  22.395  20.424  12.257  0.4346 -0.0144 -0.0506
 1684DOPC   GL119753  22.428  20.635  11.870  0.2622 -0.0678 -0.0640
 1684DOPC   GL219754  22.592  20.451  11.763 -0.0300  0.2251 -0.0722
 1684DOPC   C1A19755  22.171  20.765  11.495 -0.0713 -0.3744 -0.0565
 1684DOPC   D2A19756  22.069  20.884  11.075  0.0194  0.1763 -0.1135
 1684DOPC   C3A19757  21.978  20.559  10.783 -0.0003 -0.1051 -0.3801
 1684DOPC   C4A19758  21.661  20.262  10.586  0.2162 -0.1399 -0.0216
 1684DOPC   C1B19759  22.664  20.282  11.351  0.2044 -0.1228  0.1726
 1684DOPC   D2B19760  22.928  20.042  11.069 -0.2552 -0.1518 -0.0121
 1684DOPC   C3B19761  22.796  19.987  10.626  0.0045  0.1097 -0.0566
 1684DOPC   C4B19762  22.874  19.813  10.180  0.4501  0.1673  0.3606
 1685DOPS   CNO19763  17.756  17.997  12.015 -0.3408  0.1457  0.0236
 1685DOPS   PO419764  17.905  18.317  11.858 -0.1658 -0.1685 -0.1021
 1685DOPS   GL119765  17.709  18.153  11.533 -0.2516  0.0519 -0.0013
 1685DOPS   GL219766  17.539  18.257  11.273  0.2511  0.1443 -0.0867
 1685DOPS   C1A19767  17.677  17.729  11.292  0.2595 -0.0759  0.1638
 1685DOPS   D2A19768  17.621  17.279  11.207  0.1578  0.5098  0.0943
 1685DOPS   C3A19769  17.738  16.974  10.836  0.0009 -0.1249 -0.1231
 1685DOPS   C4A19770  17.983  16.800  10.491  0.0714 -0.0262 -0.3836
 1685DOPS   C1B19771  17.317  18.725  11.237  0.1407 -0.2100 -0.1220
 1685DOPS   D2B19772  17.386  19.145  11.021 -0.0385 -0.1724  0.3498
 1685DOPS   C3B19773  17.473  19.236  10.557  0.0382 -0.0486 -0.0690
 1685DOPS   C4B19774  17.297  19.459  10.151 -0.2301 -0.0070 -0.0371
 1686DOPC   NC319775  19.267  15.683  11.294 -0.3280  0.2148  0.1044
 1686DOPC   PO419776  19.148  15.518  11.622 -0.0346 -0.1148 -0.1292
 1686DOPC   GL119777  18.844  15.348  11.343 -0.3539  0.0736  0.0775
 1686DOPC   GL219778  18.603  15.400  11.406 -0.1020  0.2936 -0.0662
 1686DOPC   C1A19779  18.878  15.346  10.899 -0.2188  0.3183  0.2425
 1686DOPC   D2A19780  18.877  15.595  10.468 -0.1706  0.3101  0.1314
 1686DOPC   C3A19781  18.815  15.424  10.094  0.1693 -0.3124  0.0549
 1686DOPC   C4A19782  18.614  15.285   9.725 -0.2946 -0.1045  0.1398
 1686DOPC   C1B19783  18.449  15.780  11.200  0.2114 -0.1639 -0.2506
 1686DOPC   D2B19784  18.146  16.077  11.003  0.0666 -0.1530 -0.0854
 1686DOPC   C3B19785  18.286  16.496  11.021 -0.1165 -0.1651  0.0639
 1686DOPC   C4B19786  18.388  16.853  10.771 -0.0962  0.0951  0.3807
 1687DOPS   CNO19787  20.965  18.873  12.012  0.2779  0.0414  0.0140
 1687DOPS   PO419788  20.717  18.599  11.858  0.1851  0.1609  0.1256
 1687DOPS   GL119789  20.908  18.660  11.549 -0.3525 -0.0356 -0.1701
 1687DOPS   GL219790  20.682  18.544  11.362  0.3974 -0.0614 -0.0478
 1687DOPS   C1A19791  21.059  18.905  11.210 -0.1424  0.2306  0.0871
 1687DOPS   D2A19792  21.119  18.882  10.729 -0.2180 -0.2205  0.1098
 1687DOPS   C3A19793  20.703  19.095  10.628 -0.3977  0.0126  0.0124
 1687DOPS   C4A19794  20.590  19.375  10.289  0.1434 -0.2464  0.2332
 1687DOPS   C1B19795  20.992  18.403  11.077  0.0736 -0.2580  0.0755
 1687DOPS   D2B19796  21.104  18.403  10.611 -0.0917  0.1219  0.0729
 1687DOPS   C3B19797  21.218  18.038  10.289  0.0306  0.3030 -0.3121
 1687DOPS   C4B19798  20.894  17.725  10.265 -0.1321 -0.2534  0.0248
 1688POSM   NC319799  22.659  11.711  13.191 -0.1047 -0.1776  0.0119
 1688POSM   PO419800  22.566  11.988  12.906 -0.2265 -0.1675 -0.3477
 1688POSM   AM119801  22.792  11.901  12.676 -0.0407 -0.1210  0.0144
 1688POSM   AM219802  23.060  12.020  12.576 -0.1153  0.1121  0.0331
 1688POSM   T1A19803  23.016  11.555  12.365  0.2419  0.2417 -0.0779
 1688POSM   C2A19804  23.279  11.231  12.137  0.1318 -0.0574  0.1161
 1688POSM   C3A19805  23.322  10.957  11.821 -0.0345  0.2042 -0.0302
 1688POSM   C1B19806  22.953  12.038  12.268 -0.0822  0.0367  0.0254
 1688POSM   D2B19807  22.889  12.100  11.802 -0.2925 -0.1127 -0.0224
 1688POSM   C3B19808  22.544  11.826  11.714 -0.0153 -0.1362  0.0768
 1688POSM   C4B19809  22.305  11.448  11.713 -0.0582 -0.1414 -0.1437
 1689DOPS   CNO19810  16.025  16.566  11.817  0.1256  0.0457  0.0186
 1689DOPS   PO419811  15.800  16.300  11.972 -0.0670  0.1867  0.0501
 1689DOPS   GL119812  15.641  16.300  11.668  0.2309 -0.3824 -0.7596
 1689DOPS   GL219813  15.404  16.102  11.713  0.2196 -0.0371 -0.1487
 1689DOPS   C1A19814  15.648  16.154  11.239 -0.2078 -0.1091 -0.2038
 1689DOPS   D2A19815  15.720  16.237  10.828  0.0901 -0.4379 -0.2227
 1689DOPS   C3A19816  15.405  16.559  10.608 -0.1490 -0.0848 -0.2176
 1689DOPS   C4A19817  15.028  16.818  10.490  0.0887  0.1940  0.0758
 1689DOPS   C1B19818  15.268  16.421  11.374 -0.1500  0.0113 -0.2071
 1689DOPS   D2B19819  15.408  16.795  11.180 -0.3795  0.0691 -0.1095
 1689DOPS   C3B19820  15.011  16.621  10.980  0.1776  0.1149 -0.0996
 1689DOPS   C4B19821  14.610  16.689  10.963 -0.0165  0.0369  0.1279
 1690DOPS   CNO19822  10.803  12.973  14.154  0.1765  0.0193  0.1671
 1690DOPS   PO419823  11.101  13.039  13.924 -0.1294 -0.2493 -0.1219
 1690DOPS   GL119824  10.942  12.837  13.688  0.0407 -0.3789  0.2346
 1690DOPS   GL219825  10.690  12.961  13.526 -0.0068  0.0057  0.1061
 1690DOPS   C1A19826  11.062  12.780  13.240  0.2007  0.2755 -0.0118
 1690DOPS   D2A19827  10.853  12.712  12.838  0.0037  0.0414  0.4491
 1690DOPS   C3A19828  11.051  12.742  12.399 -0.0262  0.4427  0.0426
 1690DOPS   C4A19829  10.948  12.630  11.964  0.0581 -0.0721  0.3141
 1690DOPS   C1B19830  10.569  12.615  13.214 -0.0155  0.1190 -0.1100
 1690DOPS   D2B19831  10.520  12.309  12.838  0.3748 -0.1546  0.2221
 1690DOPS   C3B19832  10.832  12.276  12.508  0.0017  0.0258  0.0809
 1690DOPS   C4B19833  10.801  12.129  12.053  0.3744  0.2336  0.0659
 1691DOPE   NH319834  14.547  14.393  12.273  0.0285 -0.0665  0.2063
 1691DOPE   PO419835  14.286  14.594  12.198  0.0547  0.4108  0.1980
 1691DOPE   GL119836  14.485  14.627  11.835 -0.2202 -0.1022 -0.1384
 1691DOPE   GL219837  14.234  14.588  11.715  0.0602  0.1061  0.0009
 1691DOPE   C1A19838  14.562  14.555  11.373  0.1784  0.1994  0.1125
 1691DOPE   D2A19839  14.610  14.730  10.932  0.2457 -0.0802  0.0349
 1691DOPE   C3A19840  14.883  15.035  10.722  0.1516 -0.0764 -0.1093
 1691DOPE   C4A19841  15.255  15.275  10.891  0.2748 -0.1361  0.1876
 1691DOPE   C1B19842  13.789  14.739  11.590  0.2689 -0.2329  0.1166
 1691DOPE   D2B19843  13.621  15.008  11.287 -0.0460 -0.0037  0.0253
 1691DOPE   C3B19844  13.343  14.858  10.903  0.1618  0.0272 -0.0953
 1691DOPE   C4B19845  13.105  15.099  10.556 -0.2523 -0.2143 -0.1754
 1692DOPE   NH319846  19.255  12.278  11.846 -0.1980 -0.1471  0.5136
 1692DOPE   PO419847  19.433  12.464  11.995 -0.3505 -0.0533  0.3165
 1692DOPE   GL119848  19.640  12.394  11.678 -0.1710 -0.0272  0.0061
 1692DOPE   GL219849  19.430  12.590  11.488 -0.2103  0.2666  0.0810
 1692DOPE   C1A19850  19.816  12.030  11.423  0.0311 -0.0603  0.0415
 1692DOPE   D2A19851  19.903  11.846  11.044 -0.0991 -0.1044  0.2604
 1692DOPE   C3A19852  20.057  12.042  10.661 -0.2302  0.0915 -0.5190
 1692DOPE   C4A19853  19.848  12.236  10.347 -0.0881 -0.2833  0.3027
 1692DOPE   C1B19854  19.351  12.159  11.338  0.2021  0.1644  0.0664
 1692DOPE   D2B19855  18.971  11.881  11.101  0.0241  0.1144  0.4197
 1692DOPE   C3B19856  19.036  11.853  10.616  0.1833 -0.1671 -0.0332
 1692DOPE   C4B19857  18.769  11.791  10.202 -0.0034 -0.2224  0.3488
 1693DOPE   NH319858  19.057  20.448  12.104 -0.0518 -0.0275  0.1368
 1693DOPE   PO419859  19.362  20.363  12.040  0.0628 -0.1640  0.1820
 1693DOPE   GL119860  19.262  20.469  11.651 -0.1338 -0.0886 -0.0610
 1693DOPE   GL219861  19.023  20.329  11.564 -0.0169 -0.1014  0.1040
 1693DOPE   C1A19862  19.569  20.485  11.256  0.0735  0.1222  0.0318
 1693DOPE   D2A19863  19.551  20.766  10.918  0.1484 -0.2537 -0.2949
 1693DOPE   C3A19864  19.290  20.850  10.517  0.0498 -0.2189 -0.1545
 1693DOPE   C4A19865  19.025  20.591  10.263 -0.1236  0.0182  0.2264
 1693DOPE   C1B19866  18.842  20.179  11.208  0.1645  0.1428 -0.0158
 1693DOPE   D2B19867  18.394  20.126  11.022 -0.2343  0.0102 -0.0780
 1693DOPE   C3B19868  18.237  20.091  10.584  0.2439  0.1823 -0.1295
 1693DOPE   C4B19869  17.963  20.050  10.256 -0.0792 -0.1284 -0.0029
 1694DOPC   NC319870  18.490  18.883  11.302  0.0033 -0.1959  0.1029
 1694DOPC   PO419871  18.297  18.982  11.641  0.0067  0.4023  0.2005
 1694DOPC   GL119872  18.256  19.312  11.414  0.0098  0.0860  0.0765
 1694DOPC   GL219873  18.518  19.345  11.291  0.3641 -0.2307 -0.2272
 1694DOPC   C1A19874  18.219  19.610  11.040  0.0492 -0.4440 -0.0535
 1694DOPC   D2A19875  18.000  19.657  10.652  0.1727 -0.0892  0.0094
 1694DOPC   C3A19876  17.809  19.537  10.191  0.1923  0.0061  0.1324
 1694DOPC   C4A19877  17.687  19.210   9.829  0.4425  0.0930 -0.0135
 1694DOPC   C1B19878  18.446  19.191  10.817  0.0104  0.1015 -0.0755
 1694DOPC   D2B19879  18.352  18.772  10.619  0.1125 -0.0544  0.0406
 1694DOPC   C3B19880  18.127  18.550  10.307  0.3122 -0.0205 -0.1282
 1694DOPC   C4B19881  17.911  18.371   9.920  0.0356 -0.0887 -0.1399
 1695DOPC   NC319882  22.392  15.490  12.210 -0.2623  0.0341  0.0337
 1695DOPC   PO419883  22.423  15.845  12.309  0.0290  0.0500 -0.1326
 1695DOPC   GL119884  22.592  15.850  11.972  0.1416 -0.1939  0.0905
 1695DOPC   GL219885  22.401  15.814  11.765 -0.1719 -0.3275  0.3378
 1695DOPC   C1A19886  22.913  15.622  11.825 -0.0792 -0.0320  0.3302
 1695DOPC   D2A19887  23.251  15.501  11.509  0.1978 -0.1173  0.2124
 1695DOPC   C3A19888  23.737  15.552  11.543  0.0162  0.1321  0.1097
 1695DOPC   C4A19889  24.169  15.703  11.513  0.1078  0.1575 -0.0352
 1695DOPC   C1B19890  22.489  15.678  11.331  0.0462  0.0416 -0.1455
 1695DOPC   D2B19891  22.791  15.383  11.185 -0.1083 -0.2095  0.1841
 1695DOPC   C3B19892  22.709  15.481  10.722  0.1362  0.0570  0.1001
 1695DOPC   C4B19893  22.671  15.797  10.421 -0.0298  0.3531 -0.1443
 1696POSM   NC319894  17.176  16.658  12.255  0.1190 -0.2243 -0.2797
 1696POSM   PO419895  16.895  16.668  11.953  0.1372 -0.3099 -0.0889
 1696POSM   AM119896  16.830  16.563  11.650  0.1545 -0.1436  0.2667
 1696POSM   AM219897  16.833  16.288  11.466  0.2095  0.1800  0.1372
 1696POSM   T1A19898  16.349  16.487  11.391  0.3680 -0.2100 -0.3603
 1696POSM   C2A19899  15.945  16.639  11.261  0.0184  0.0999  0.1979
 1696POSM   C3A19900  15.783  17.060  11.135 -0.1753  0.1235 -0.3013
 1696POSM   C1B19901  16.744  16.125  11.185  0.3918 -0.2672  0.0193
 1696POSM   D2B19902  16.585  15.944  10.811  0.0506  0.1634  0.1190
 1696POSM   C3B19903  16.249  15.631  10.703 -0.1696  0.1418  0.2113
 1696POSM   C4B19904  16.069  15.429  10.379 -0.3751  0.0393  0.1557
 1697POSM   NC319905  13.782  20.295  13.313 -0.2050 -0.0750 -0.0839
 1697POSM   PO419906  13.711  20.469  13.015 -0.2316 -0.0970 -0.0509
 1697POSM   AM119907  13.777  20.610  12.688 -0.0324 -0.0391 -0.0141
 1697POSM   AM219908  13.817  20.868  12.549 -0.2176 -0.0723  0.0652
 1697POSM   T1A19909  13.900  20.547  12.199  0.1860  0.2819  0.2427
 1697POSM   C2A19910  14.170  20.445  11.799  0.0236 -0.0531 -0.0979
 1697POSM   C3A19911  14.592  20.584  11.690  0.1273  0.0710  0.2744
 1697POSM   C1B19912  13.870  21.121  12.317  0.0665  0.2296  0.0050
 1697POSM   D2B19913  13.955  21.327  11.963  0.0266  0.1198 -0.0297
 1697POSM   C3B19914  14.379  21.555  12.028 -0.0028 -0.3417  0.2570
 1697POSM   C4B19915  14.519  21.955  12.051  0.1483  0.0879 -0.0390
 1698DOPE   NH319916  12.799  15.251  12.289  0.1961  0.3539 -0.4461
 1698DOPE   PO419917  12.919  14.995  12.367  0.4739  0.0579 -0.0337
 1698DOPE   GL119918  12.713  14.701  12.207 -0.2328 -0.2389  0.1608
 1698DOPE   GL219919  12.644  14.818  11.969  0.0126  0.1905  0.1646
 1698DOPE   C1A19920  12.864  14.318  12.026  0.0230  0.3150 -0.1600
 1698DOPE   D2A19921  12.878  13.998  11.700  0.2823 -0.2406 -0.1636
 1698DOPE   C3A19922  13.175  13.658  11.647 -0.3290  0.0832  0.3675
 1698DOPE   C4A19923  13.257  13.384  11.296 -0.0428  0.0718 -0.0440
 1698DOPE   C1B19924  12.824  14.555  11.545  0.0912 -0.0120 -0.1124
 1698DOPE   D2B19925  13.225  14.706  11.514 -0.1976  0.2355 -0.0069
 1698DOPE   C3B19926  13.495  14.489  11.217 -0.0281  0.1492  0.0254
 1698DOPE   C4B19927  13.738  14.160  10.906  0.0080  0.1399 -0.0881
 1699DOPE   NH319928  10.960  16.413  12.809  0.1443 -0.1310 -0.1095
 1699DOPE   PO419929  11.082  16.611  12.587 -0.1806  0.0594 -0.0602
 1699DOPE   GL119930  10.927  16.592  12.325 -0.1606 -0.4681  0.2006
 1699DOPE   GL219931  10.683  16.381  12.332 -0.0415  0.0524 -0.0718
 1699DOPE   C1A19932  10.685  16.878  12.096 -0.2665 -0.1042 -0.2429
 1699DOPE   D2A19933  10.625  17.181  11.741  0.2100  0.1681  0.0580
 1699DOPE   C3A19934  10.839  17.184  11.296 -0.0264 -0.1373 -0.0468
 1699DOPE   C4A19935  11.268  17.218  11.064 -0.1235  0.2986  0.1510
 1699DOPE   C1B19936  10.495  16.198  11.942  0.3557  0.0845 -0.0951
 1699DOPE   D2B19937  10.592  15.947  11.551 -0.1029 -0.3275  0.2301
 1699DOPE   C3B19938  10.795  16.286  11.266  0.0652  0.2472  0.1831
 1699DOPE   C4B19939  10.643  16.707  11.116  0.0636  0.1525  0.1696
 1700DOPE   NH319940  18.928  25.902  13.815 -0.1781  0.0104 -0.3170
 1700DOPE   PO419941  18.934  26.002  13.511 -0.2838 -0.0753 -0.0123
 1700DOPE   GL119942  18.796  25.938  13.071  0.3178  0.3067  0.3601
 1700DOPE   GL219943  18.791  25.644  13.065 -0.1140 -0.1740 -0.2017
 1700DOPE   C1A19944  18.547  26.039  12.734  0.2639  0.1869 -0.4442
 1700DOPE   D2A19945  18.360  26.375  12.420 -0.0635  0.2204 -0.1081
 1700DOPE   C3A19946  18.471  26.362  12.022  0.0572  0.2828  0.2047
 1700DOPE   C4A19947  18.623  26.631  11.643  0.2652  0.0198  0.0838
 1700DOPE   C1B19948  18.514  25.538  12.737  0.4469 -0.3295  0.0324
 1700DOPE   D2B19949  18.420  25.612  12.281  0.0524  0.3565 -0.1661
 1700DOPE   C3B19950  18.261  25.859  11.975 -0.1100 -0.0216  0.0128
 1700DOPE   C4B19951  18.200  26.199  11.634 -0.0700  0.4392  0.0326
 1701DOPC   NC319952  10.380  12.940  13.963 -0.0112 -0.4354 -0.2011
 1701DOPC   PO419953  10.592  12.603  13.859  0.0218 -0.1113 -0.0738
 1701DOPC   GL119954  10.344  12.516  13.645  0.1710 -0.0061  0.0970
 1701DOPC   GL219955  10.402  12.244  13.517  0.0885 -0.1239  0.0323
 1701DOPC   C1A19956   9.881  12.402  13.473  0.1071 -0.0404 -0.3855
 1701DOPC   D2A19957   9.579  12.288  13.132 -0.3249 -0.0336  0.2989
 1701DOPC   C3A19958   9.627  12.204  12.676 -0.2361 -0.0251 -0.0593
 1701DOPC   C4A19959   9.815  12.037  12.278 -0.0992 -0.1510 -0.2480
 1701DOPC   C1B19960  10.288  12.041  13.132 -0.1139 -0.2990 -0.0066
 1701DOPC   D2B19961   9.933  11.823  12.949  0.0478 -0.0049 -0.0067
 1701DOPC   C3B19962  10.097  11.590  12.626 -0.2617  0.2084  0.3179
 1701DOPC   C4B19963  10.433  11.312  12.482  0.0989  0.2123  0.2377
 1702DOPC   NC319964  13.369  16.500  12.633 -0.0673  0.0346  0.3016
 1702DOPC   PO419965  13.696  16.707  12.603  0.0581 -0.0136  0.1556
 1702DOPC   GL119966  13.611  16.568  12.264 -0.1379 -0.2605 -0.2934
 1702DOPC   GL219967  13.511  16.337  12.141 -0.1612  0.1031  0.0584
 1702DOPC   C1A19968  13.610  16.792  11.820  0.1636  0.7395 -0.0552
 1702DOPC   D2A19969  13.998  16.765  11.545  0.1803  0.1672 -0.0602
 1702DOPC   C3A19970  13.952  17.023  11.163  0.0980  0.0397  0.1425
 1702DOPC   C4A19971  13.689  17.338  10.930  0.2396  0.2217 -0.2346
 1702DOPC   C1B19972  13.773  16.269  11.776 -0.0121  0.1830 -0.1851
 1702DOPC   D2B19973  14.167  16.299  11.520  0.2400  0.0359  0.1883
 1702DOPC   C3B19974  14.119  16.543  11.140 -0.2568 -0.1336  0.0701
 1702DOPC   C4B19975  14.143  16.747  10.738 -0.1320 -0.1952 -0.0326
 1703POSM   NC319976  15.372  13.969  12.235 -0.2812  0.0488  0.1377
 1703POSM   PO419977  15.053  14.161  12.179  0.1898 -0.1002  0.2693
 1703POSM   AM119978  14.836  14.204  11.959 -0.1078  0.3365  0.0671
 1703POSM   AM219979  14.588  14.087  11.846 -0.2708 -0.1673  0.0455
 1703POSM   T1A19980  14.810  14.164  11.443  0.2601  0.1089 -0.0387
 1703POSM   C2A19981  14.838  14.286  10.971  0.0814  0.3191  0.1112
 1703POSM   C3A19982  14.663  14.346  10.563  0.2685  0.0336  0.2630
 1703POSM   C1B19983  14.639  13.746  11.742  0.3462  0.3107  0.0487
 1703POSM   D2B19984  14.570  13.358  11.868  0.1759 -0.0127  0.0635
 1703POSM   C3B19985  14.567  13.091  11.416 -0.0449 -0.0854  0.0145
 1703POSM   C4B19986  14.140  12.986  11.367 -0.2348 -0.0739  0.0997
 1704DOPC   NC319987  15.811  22.228  12.591  0.3447 -0.2090 -0.1525
 1704DOPC   PO419988  15.629  21.869  12.747  0.0501  0.2588  0.0474
 1704DOPC   GL119989  15.322  22.022  12.488  0.2325 -0.0532  0.1777
 1704DOPC   GL219990  15.281  22.373  12.539  0.1716  0.4037 -0.0888
 1704DOPC   C1A19991  15.376  22.191  12.041 -0.0281 -0.0757 -0.2447
 1704DOPC   D2A19992  15.512  22.419  11.623 -0.0835 -0.1501  0.0436
 1704DOPC   C3A19993  15.719  22.143  11.335 -0.4281  0.1811  0.2921
 1704DOPC   C4A19994  15.784  21.874  11.000 -0.2886 -0.1482  0.0846
 1704DOPC   C1B19995  14.968  22.748  12.647 -0.1570  0.0006  0.3171
 1704DOPC   D2B19996  14.740  23.118  12.479 -0.0431  0.0103 -0.0947
 1704DOPC   C3B19997  14.233  23.183  12.385 -0.0059 -0.1558  0.2610
 1704DOPC   C4B19998  13.865  22.868  12.213 -0.1598  0.0746 -0.1093
 1705DOPE   NH319999  16.434  11.815  12.608 -0.2340 -0.3493  0.2011
 1705DOPE   PO420000  16.709  11.857  12.423  0.0320  0.0222  0.0756
 1705DOPE   GL120001  16.849  11.703  12.090 -0.1169  0.2946  0.1771
 1705DOPE   GL220002  16.756  11.863  11.907 -0.0715 -0.0772 -0.1206
 1705DOPE   C1A20003  17.184  11.626  11.744  0.1953 -0.3158 -0.0891
 1705DOPE   D2A20004  17.140  11.667  11.271  0.0033 -0.2583  0.2313
 1705DOPE   C3A20005  16.697  11.606  11.147  0.1539  0.1573  0.0042
 1705DOPE   C4A20006  16.260  11.440  10.980  0.1095  0.1117  0.0260
 1705DOPE   C1B20007  16.882  12.044  11.536  0.2040  0.0512  0.3172
 1705DOPE   D2B20008  16.980  12.101  11.052 -0.0037 -0.1088 -0.1591
 1705DOPE   C3B20009  17.021  11.767  10.752  0.0482  0.7058  0.0088
 1705DOPE   C4B20010  16.893  11.405  10.444  0.3283  0.5146  0.1360
 1706DOPC   NC320011  14.517  15.877  12.644  0.2825 -0.0319  0.1222
 1706DOPC   PO420012  14.235  15.918  12.409  0.1341  0.0089  0.0179
 1706DOPC   GL120013  14.261  16.050  12.131 -0.1874 -0.2320  0.0057
 1706DOPC   GL220014  14.367  15.877  11.956 -0.1375  0.1164  0.1229
 1706DOPC   C1A20015  14.442  16.411  11.905  0.0571  0.0079  0.1459
 1706DOPC   D2A20016  14.410  16.854  11.847  0.1168 -0.1051  0.3296
 1706DOPC   C3A20017  14.466  16.867  11.385 -0.3071 -0.1226 -0.1568
 1706DOPC   C4A20018  14.434  17.195  11.035  0.3022  0.0771 -0.2534
 1706DOPC   C1B20019  14.022  15.756  11.783  0.0336  0.0619  0.7012
 1706DOPC   D2B20020  13.870  15.595  11.395  0.1170 -0.3151 -0.1613
 1706DOPC   C3B20021  13.951  15.365  11.000 -0.1798 -0.0002  0.0902
 1706DOPC   C4B20022  14.071  15.048  10.668 -0.4425 -0.4087  0.3766
 1707DOPE   NH320023  14.262  19.741  12.642  0.0510 -0.3238  0.0073
 1707DOPE   PO420024  14.095  19.719  12.387  0.0848  0.0234 -0.1301
 1707DOPE   GL120025  13.911  20.040  12.181 -0.1270 -0.0329 -0.0298
 1707DOPE   GL220026  13.680  19.884  12.162  0.0127 -0.2553  0.0977
 1707DOPE   C1A20027  13.738  20.209  11.793  0.0321 -0.0941 -0.0161
 1707DOPE   D2A20028  13.506  20.151  11.393 -0.1088  0.0579 -0.0198
 1707DOPE   C3A20029  13.514  19.907  11.000 -0.2023  0.2143  0.5468
 1707DOPE   C4A20030  13.933  19.705  10.858 -0.1877  0.1612 -0.2462
 1707DOPE   C1B20031  13.717  19.703  11.768 -0.1583  0.0652  0.0746
 1707DOPE   D2B20032  13.803  19.584  11.343  0.1830 -0.1450 -0.0428
 1707DOPE   C3B20033  13.923  19.185  11.377 -0.0422  0.2898 -0.3894
 1707DOPE   C4B20034  14.219  18.887  11.120 -0.0885  0.1531 -0.0929
 1708DOPE   NH320035  19.160  12.902  11.835  0.3813 -0.2377 -0.2176
 1708DOPE   PO420036  19.301  13.143  11.710  0.0400 -0.0612  0.2129
 1708DOPE   GL120037  19.627  13.131  11.442 -0.2354  0.1919  0.0344
 1708DOPE   GL220038  19.475  13.006  11.167  0.2598 -0.0757  0.2492
 1708DOPE   C1A20039  19.958  13.098  11.080  0.0659  0.1953  0.2931
 1708DOPE   D2A20040  20.152  13.019  10.692 -0.0515 -0.0858  0.0745
 1708DOPE   C3A20041  19.954  12.702  10.379  0.1565  0.2131 -0.0666
 1708DOPE   C4A20042  19.576  12.655  10.127  0.1191 -0.0073 -0.0580
 1708DOPE   C1B20043  19.491  13.370  10.903 -0.0304  0.0251  0.0896
 1708DOPE   D2B20044  19.188  13.608  10.703  0.1118  0.0132  0.0374
 1708DOPE   C3B20045  19.131  13.300  10.388 -0.1781  0.2376  0.2635
 1708DOPE   C4B20046  19.220  12.994  10.031 -0.0243 -0.2726 -0.0026
 1709DOPC   NC320047  11.359  13.845  12.858  0.0889 -0.0979  0.1321
 1709DOPC   PO420048  11.218  13.654  13.176 -0.1530 -0.3058  0.0871
 1709DOPC   GL120049  11.159  13.434  12.917  0.2028  0.3433  0.1631
 1709DOPC   GL220050  10.842  13.332  13.038  0.1777 -0.0064 -0.1720
 1709DOPC   C1A20051  11.329  13.401  12.486 -0.0283 -0.1251 -0.0046
 1709DOPC   D2A20052  11.248  13.665  12.119 -0.0762 -0.2453 -0.0028
 1709DOPC   C3A20053  10.833  13.597  11.964 -0.0281 -0.1537  0.3891
 1709DOPC   C4A20054  10.352  13.634  12.108 -0.0195 -0.0002  0.0945
 1709DOPC   C1B20055  10.842  13.145  12.617 -0.1670 -0.1954  0.0180
 1709DOPC   D2B20056  10.785  13.101  12.143  0.1411 -0.0590  0.2124
 1709DOPC   C3B20057  10.740  13.021  11.689 -0.1256 -0.0129  0.0372
 1709DOPC   C4B20058  10.817  13.039  11.250  0.1555  0.0108 -0.1849
 1710DOPC   NC320059  16.509  17.451  12.522 -0.1936 -0.2495 -0.1331
 1710DOPC   PO420060  16.537  17.292  12.160  0.0258  0.0142 -0.3232
 1710DOPC   GL120061  16.396  17.310  11.710 -0.0937 -0.1847  0.2331
 1710DOPC   GL220062  16.610  17.058  11.569  0.1412 -0.1863 -0.0854
 1710DOPC   C1A20063  16.578  17.458  11.308 -0.0153  0.0652 -0.1029
 1710DOPC   D2A20064  16.828  17.254  10.962 -0.2746  0.3099 -0.0583
 1710DOPC   C3A20065  16.903  17.532  10.619 -0.0491 -0.1685  0.0448
 1710DOPC   C4A20066  16.817  17.742  10.244  0.3665  0.2112  0.1807
 1710DOPC   C1B20067  16.331  16.999  11.190  0.2872  0.1128 -0.1265
 1710DOPC   D2B20068  16.365  17.102  10.727 -0.0018 -0.1116  0.1713
 1710DOPC   C3B20069  16.617  17.200  10.350  0.1048  0.0456  0.1053
 1710DOPC   C4B20070  17.064  17.281  10.203  0.1027  0.0928 -0.3494
 1711DOPC   NC320071  24.460  24.046  12.395  0.2725  0.0905 -0.2831
 1711DOPC   PO420072  24.493  23.676  12.464 -0.1193 -0.2490  0.0878
 1711DOPC   GL120073  24.484  23.633  12.070  0.1644 -0.3210  0.6696
 1711DOPC   GL220074  24.582  23.846  11.962  0.1225  0.1053 -0.0850
 1711DOPC   C1A20075  24.615  23.365  11.743  0.2974 -0.0773 -0.1822
 1711DOPC   D2A20076  24.480  23.182  11.340 -0.4806 -0.4645  0.3359
 1711DOPC   C3A20077  24.697  23.455  11.055 -0.2928 -0.0752 -0.2263
 1711DOPC   C4A20078  24.963  23.690  10.717 -0.0491  0.0776 -0.0245
 1711DOPC   C1B20079  24.841  23.934  11.635  0.1090  0.0440  0.0438
 1711DOPC   D2B20080  25.097  23.802  11.287 -0.1639  0.0279 -0.3086
 1711DOPC   C3B20081  25.416  23.592  11.512 -0.2382  0.4247  0.0630
 1711DOPC   C4B20082  25.459  23.284  11.808 -0.0284  0.0137 -0.1931
 1712DOPC   NC320083  10.339  12.274  14.054  0.0936  0.0237 -0.0014
 1712DOPC   PO420084  10.025  12.551  14.178 -0.3164  0.3588  0.0524
 1712DOPC   GL120085   9.934  12.729  13.851  0.5587  0.3579 -0.4997
 1712DOPC   GL220086   9.672  12.859  13.828  0.3196 -0.1142  0.1212
 1712DOPC   C1A20087  10.188  12.888  13.463 -0.0494 -0.1275 -0.2277
 1712DOPC   D2A20088  10.399  13.096  13.117 -0.2511  0.3508  0.1640
 1712DOPC   C3A20089  10.301  12.860  12.740 -0.3344 -0.0266 -0.2270
 1712DOPC   C4A20090  10.535  12.669  12.415  0.2306 -0.2822 -0.0965
 1712DOPC   C1B20091   9.442  12.622  13.501  0.1108  0.2648  0.0108
 1712DOPC   D2B20092   9.155  12.378  13.314 -0.1215 -0.2896 -0.0064
 1712DOPC   C3B20093   8.887  12.030  13.470  0.3182  0.3156  0.2702
 1712DOPC   C4B20094   8.583  11.922  13.761  0.2716  0.3262 -0.2073
 1713DOPC   NC320095  17.171  13.323  12.379 -0.1841 -0.0062  0.3051
 1713DOPC   PO420096  16.986  13.119  12.112  0.1729 -0.1208  0.0784
 1713DOPC   GL120097  16.869  13.151  11.702 -0.3134  0.0593  0.2013
 1713DOPC   GL220098  16.656  12.893  11.622  0.0859 -0.1643  0.0351
 1713DOPC   C1A20099  16.878  13.026  11.227  0.2469  0.0370 -0.1035
 1713DOPC   D2A20100  16.655  12.883  10.812 -0.3710  0.1730  0.0179
 1713DOPC   C3A20101  16.602  12.411  10.694  0.0123  0.0432  0.1337
 1713DOPC   C4A20102  16.546  11.994  10.787  0.2282 -0.0314 -0.3938
 1713DOPC   C1B20103  16.524  12.579  11.331 -0.0678 -0.0142  0.1668
 1713DOPC   D2B20104  16.497  12.211  11.263 -0.0618 -0.2502 -0.1122
 1713DOPC   C3B20105  16.405  11.839  11.538 -0.1320 -0.1255  0.0487
 1713DOPC   C4B20106  16.585  11.449  11.728 -0.0617 -0.1196  0.1295
 1714DOPE   NH320107  22.913  19.847  12.523  0.1470  0.0567  0.0931
 1714DOPE   PO420108  22.794  19.658  12.290  0.0607  0.2879 -0.0583
 1714DOPE   GL120109  22.838  19.545  11.947  0.3597 -0.1453  0.1720
 1714DOPE   GL220110  22.541  19.511  11.853  0.1628 -0.1553 -0.1357
 1714DOPE   C1A20111  22.986  19.615  11.511  0.1607 -0.2157  0.1437
 1714DOPE   D2A20112  22.826  19.425  11.094 -0.1315 -0.0933 -0.3091
 1714DOPE   C3A20113  23.149  19.287  10.853  0.4530 -0.2908  0.1467
 1714DOPE   C4A20114  23.252  18.992  10.508 -0.0901 -0.0758  0.1545
 1714DOPE   C1B20115  22.490  19.775  11.450 -0.3135  0.1477  0.1195
 1714DOPE   D2B20116  22.398  19.955  11.036  0.1184 -0.0633  0.2084
 1714DOPE   C3B20117  22.126  20.026  10.670 -0.1678  0.1939  0.0965
 1714DOPE   C4B20118  22.054  20.279  10.297 -0.1777  0.2490 -0.1375
 1715DOPE   NH320119  21.415  16.737  12.372 -0.0906  0.0285 -0.1975
 1715DOPE   PO420120  21.266  16.545  12.162 -0.0542  0.2033 -0.0487
 1715DOPE   GL120121  21.315  16.570  11.688  0.0974  0.2100  0.2653
 1715DOPE   GL220122  21.213  16.399  11.518 -0.2545 -0.0891  0.1958
 1715DOPE   C1A20123  21.180  16.877  11.311  0.2806 -0.2377 -0.1649
 1715DOPE   D2A20124  21.129  16.697  10.940  0.2203  0.0178 -0.2276
 1715DOPE   C3A20125  21.360  16.384  10.738  0.0976 -0.0232  0.0715
 1715DOPE   C4A20126  21.418  16.291  10.281  0.1095  0.3080 -0.0616
 1715DOPE   C1B20127  21.585  16.512  11.230 -0.0094 -0.2059  0.0663
 1715DOPE   D2B20128  21.681  16.855  10.949  0.2917  0.3437  0.0466
 1715DOPE   C3B20129  21.451  17.116  10.625  0.1748  0.0126  0.1446
 1715DOPE   C4B20130  21.279  17.203  10.182 -0.2943  0.0874 -0.0092
 1716POSM   NC320131  17.575  20.055  11.760 -0.1201 -0.0616 -0.4373
 1716POSM   PO420132  17.982  20.100  11.765  0.2290  0.0396 -0.0085
 1716POSM   AM120133  17.942  20.158  11.465 -0.2135 -0.0607 -0.0020
 1716POSM   AM220134  17.843  20.361  11.289 -0.0038 -0.1044  0.1621
 1716POSM   T1A20135  17.915  20.035  10.979  0.2908 -0.3887  0.0970
 1716POSM   C2A20136  17.597  19.919  10.605 -0.3205 -0.1278  0.2977
 1716POSM   C3A20137  17.348  19.960  10.233  0.0752  0.2179  0.0119
 1716POSM   C1B20138  17.558  20.434  11.122 -0.0846  0.1032  0.1261
 1716POSM   D2B20139  17.154  20.229  10.944  0.0909 -0.3464  0.3780
 1716POSM   C3B20140  17.027  19.920  10.625 -0.6205  0.0105 -0.1914
 1716POSM   C4B20141  16.968  19.451  10.551  0.0133  0.1004 -0.2500
 1717DOPC   NC320142  17.985  12.741  11.446 -0.3299  0.0416 -0.1377
 1717DOPC   PO420143  18.313  12.537  11.549 -0.2773  0.0497  0.0321
 1717DOPC   GL120144  18.571  12.638  11.276 -0.0269  0.1301  0.1743
 1717DOPC   GL220145  18.421  12.912  11.242  0.1027  0.2990 -0.1590
 1717DOPC   C1A20146  18.954  12.416  11.125 -0.0799 -0.5456 -0.1099
 1717DOPC   D2A20147  19.264  12.636  10.921  0.1248 -0.1525  0.1482
 1717DOPC   C3A20148  19.481  12.910  10.632 -0.3792  0.0582 -0.1293
 1717DOPC   C4A20149  19.677  13.162  10.223 -0.0716 -0.5187 -0.1269
 1717DOPC   C1B20150  18.438  12.676  10.831  0.1245  0.1005  0.0500
 1717DOPC   D2B20151  18.507  12.714  10.387  0.0207  0.1886 -0.0142
 1717DOPC   C3B20152  18.294  12.918   9.992  0.2198 -0.1849 -0.0969
 1717DOPC   C4B20153  18.091  13.115   9.613  0.3109  0.0735 -0.2635
 1718POSM   NC320154  14.276  11.410  13.413  0.3279  0.1884 -0.0043
 1718POSM   PO420155  14.578  11.564  13.144 -0.1744  0.1551 -0.2517
 1718POSM   AM120156  14.491  11.429  12.836 -0.6012  0.1513  0.1394
 1718POSM   AM220157  14.582  11.346  12.584 -0.1417 -0.0360 -0.0018
 1718POSM   T1A20158  14.079  11.402  12.510  0.4115  0.2752  0.0180
 1718POSM   C2A20159  13.908  11.203  12.076  0.0439 -0.0528  0.0767
 1718POSM   C3A20160  13.932  11.308  11.665  0.0537 -0.1246 -0.3763
 1718POSM   C1B20161  14.516  11.281  12.268  0.2400 -0.1636 -0.0735
 1718POSM   D2B20162  14.399  11.150  11.808  0.1721  0.2271  0.1229
 1718POSM   C3B20163  14.733  11.129  11.512  0.1785 -0.2531 -0.0707
 1718POSM   C4B20164  14.750  11.215  11.078  0.0011 -0.1616 -0.2895
 1719POSM   NC320165  14.362  23.405  14.175  0.1497 -0.1428  0.0506
 1719POSM   PO420166  14.233  23.122  13.954 -0.0909  0.1029 -0.1704
 1719POSM   AM120167  14.170  23.334  13.686  0.3610 -0.1208 -0.1731
 1719POSM   AM220168  14.228  23.591  13.660 -0.0299  0.0433 -0.1094
 1719POSM   T1A20169  14.004  23.363  13.227  0.3578  0.3252 -0.1748
 1719POSM   C2A20170  13.940  23.136  12.839  0.1381  0.3527  0.1184
 1719POSM   C3A20171  13.598  22.857  12.767  0.0899 -0.1876  0.1070
 1719POSM   C1B20172  14.307  23.758  13.381  0.1263 -0.0794 -0.3276
 1719POSM   D2B20173  14.532  23.985  13.078 -0.0121  0.2043  0.0792
 1719POSM   C3B20174  14.589  23.688  12.768 -0.0111 -0.2987  0.1369
 1719POSM   C4B20175  14.522  23.695  12.355 -0.0083 -0.0866  0.4139
 1720DOPS   CNO20176  19.837  18.324  11.852  0.1439  0.1366  0.1707
 1720DOPS   PO420177  19.910  17.995  12.040  0.0749 -0.0755 -0.3712
 1720DOPS   GL120178  20.034  17.795  11.636  0.2100 -0.1295 -0.1352
 1720DOPS   GL220179  19.764  17.768  11.405  0.0128 -0.0270  0.0325
 1720DOPS   C1A20180  20.124  18.022  11.213  0.1167 -0.1201 -0.2897
 1720DOPS   D2A20181  20.042  18.150  10.827  0.3773  0.0555 -0.0031
 1720DOPS   C3A20182  19.989  18.264  10.437  0.1123  0.0158 -0.2301
 1720DOPS   C4A20183  19.890  18.340   9.952 -0.1945 -0.0951  0.3059
 1720DOPS   C1B20184  19.349  17.686  11.132  0.1117 -0.0507 -0.3308
 1720DOPS   D2B20185  18.941  17.456  11.202 -0.3141 -0.0868 -0.2461
 1720DOPS   C3B20186  18.545  17.471  10.951  0.3315  0.0071  0.4500
 1720DOPS   C4B20187  18.402  17.495  10.543 -0.1633  0.0233  0.1151
 1721DOPC   NC320188  16.000  20.914  12.796 -0.0969  0.1322  0.0117
 1721DOPC   PO420189  16.055  20.874  12.400 -0.0638  0.0105 -0.0666
 1721DOPC   GL120190  16.157  20.893  11.995  0.1042  0.0774  0.3730
 1721DOPC   GL220191  15.833  20.961  11.976  0.1155 -0.2233  0.0772
 1721DOPC   C1A20192  16.428  20.908  11.598  0.0654 -0.1198 -0.2229
 1721DOPC   D2A20193  16.572  20.917  11.169 -0.0619  0.0843 -0.0635
 1721DOPC   C3A20194  16.306  21.048  10.789 -0.0170  0.0136  0.1603
 1721DOPC   C4A20195  16.108  21.198  10.403  0.0396 -0.0314  0.1564
 1721DOPC   C1B20196  15.923  20.730  11.575  0.1090 -0.0814  0.3802
 1721DOPC   D2B20197  15.895  20.329  11.335 -0.3056 -0.0019  0.3243
 1721DOPC   C3B20198  16.158  20.249  10.926 -0.1998 -0.1071  0.1353
 1721DOPC   C4B20199  16.591  20.471  10.893  0.0558 -0.2046 -0.0271
 1722DOPE   NH320200  15.567  17.433  12.148 -0.1179 -0.0262  0.0919
 1722DOPE   PO420201  15.574  17.681  12.408 -0.2082  0.2481  0.3355
 1722DOPE   GL120202  15.304  17.826  12.099 -0.0823 -0.2893  0.1416
 1722DOPE   GL220203  15.532  17.937  11.891  0.1017  0.1590  0.1291
 1722DOPE   C1A20204  14.986  17.870  11.779 -0.0570 -0.0208 -0.1558
 1722DOPE   D2A20205  14.745  18.056  11.454 -0.0348 -0.1979  0.1805
 1722DOPE   C3A20206  14.347  17.776  11.300  0.1401 -0.0164  0.1193
 1722DOPE   C4A20207  14.057  17.461  11.312  0.0797 -0.3179  0.0675
 1722DOPE   C1B20208  15.375  17.700  11.515 -0.2534  0.1820 -0.7017
 1722DOPE   D2B20209  14.929  17.539  11.407  0.0778 -0.0808  0.3003
 1722DOPE   C3B20210  14.784  17.667  11.011 -0.0066  0.1413 -0.0252
 1722DOPE   C4B20211  14.514  17.590  10.646  0.0137  0.1544  0.1361
 1723DOPE   NH320212  15.722  13.528  12.253 -0.1232 -0.0634 -0.0557
 1723DOPE   PO420213  15.872  13.790  12.138 -0.2368  0.2546 -0.0117
 1723DOPE   GL120214  15.655  13.671  11.834  0.3212 -0.2376  0.0308
 1723DOPE   GL220215  15.738  13.730  11.542 -0.0914  0.0481 -0.3011
 1723DOPE   C1A20216  15.238  13.788  11.598 -0.1429  0.1039 -0.1565
 1723DOPE   D2A20217  14.881  13.556  11.309  0.3500  0.2548 -0.0830
 1723DOPE   C3A20218  14.777  13.220  11.003  0.1812  0.0409  0.1441
 1723DOPE   C4A20219  14.852  13.240  10.537 -0.2023  0.0412 -0.3556
 1723DOPE   C1B20220  15.799  13.925  11.112  0.2283  0.1849  0.0738
 1723DOPE   D2B20221  15.907  14.227  10.816 -0.1736  0.0004  0.0406
 1723DOPE   C3B20222  15.572  14.414  10.534  0.1702 -0.1230  0.1314
 1723DOPE   C4B20223  15.226  14.168  10.584  0.2733 -0.1125  0.1669
 1724DOPC   NC320224  19.020  14.370  12.146 -0.0330  0.0825  0.3086
 1724DOPC   PO420225  18.709  14.546  11.973 -0.2876 -0.1392 -0.1079
 1724DOPC   GL120226  18.748  14.597  11.541 -0.2774  0.1387 -0.0382
 1724DOPC   GL220227  18.583  14.862  11.509 -0.3536 -0.2266 -0.2647
 1724DOPC   C1A20228  18.343  14.505  11.327 -0.2979  0.1548  0.1694
 1724DOPC   D2A20229  18.185  14.530  10.882  0.2356 -0.0278  0.0621
 1724DOPC   C3A20230  17.743  14.437  10.883  0.4577  0.1259  0.3034
 1724DOPC   C4A20231  17.565  14.308  10.498 -0.2275 -0.3528 -0.1433
 1724DOPC   C1B20232  18.533  15.013  11.083  0.0489  0.1062  0.1113
 1724DOPC   D2B20233  18.440  15.351  10.789  0.0779  0.1406  0.1001
 1724DOPC   C3B20234  18.013  15.591  10.852  0.0268 -0.2631 -0.1476
 1724DOPC   C4B20235  17.698  15.939  10.810 -0.1391  0.0347  0.1148
 1725POSM   NC320236  19.643  19.327  12.164  0.0827 -0.0554 -0.2800
 1725POSM   PO420237  19.715  19.164  11.807  0.1840  0.0778  0.4045
 1725POSM   AM120238  19.934  19.172  11.538  0.0259 -0.0317  0.0073
 1725POSM   AM220239  20.060  19.391  11.415 -0.0126 -0.0870 -0.0177
 1725POSM   T1A20240  20.039  18.940  11.053 -0.2263 -0.1878 -0.1214
 1725POSM   C2A20241  19.912  18.621  10.795  0.2519  0.4327  0.0550
 1725POSM   C3A20242  19.521  18.410  10.586 -0.0796 -0.1237  0.2488
 1725POSM   C1B20243  20.043  19.441  11.088 -0.2347 -0.3847 -0.2475
 1725POSM   D2B20244  20.236  19.252  10.702  0.2628 -0.1044 -0.0501
 1725POSM   C3B20245  20.282  18.827  10.582  0.2174  0.1227  0.1602
 1725POSM   C4B20246  20.576  18.517  10.738  0.3897  0.0434 -0.0833
 1726POSM   NC320247  12.569  21.759  12.877 -0.0022 -0.0468  0.2338
 1726POSM   PO420248  12.937  21.754  13.005  0.3036  0.0965  0.2639
 1726POSM   AM120249  13.240  21.688  12.811 -0.3580  0.1543 -0.3535
 1726POSM   AM220250  13.231  21.646  12.544  0.0937  0.0539 -0.0163
 1726POSM   T1A20251  13.680  21.852  12.749 -0.2448  0.0819  0.1612
 1726POSM   C2A20252  14.150  21.887  12.825  0.4916 -0.1060  0.0918
 1726POSM   C3A20253  14.524  21.850  12.644 -0.0289  0.0287  0.0996
 1726POSM   C1B20254  13.387  21.791  12.345  0.0241  0.0633  0.2147
 1726POSM   D2B20255  13.520  22.226  12.165  0.1261 -0.0619  0.0828
 1726POSM   C3B20256  13.926  22.364  12.026 -0.4019  0.0676 -0.1064
 1726POSM   C4B20257  14.011  22.536  11.604 -0.1633  0.1691 -0.0609
 1727DOPC   NC320258  18.597  21.082  11.748  0.0083  0.3365  0.0746
 1727DOPC   PO420259  18.480  21.445  11.768  0.0052  0.1970  0.0251
 1727DOPC   GL120260  18.458  21.637  11.404 -0.0110 -0.0218  0.1560
 1727DOPC   GL220261  18.195  21.662  11.345  0.0708 -0.0915 -0.2389
 1727DOPC   C1A20262  18.559  21.886  10.973 -0.1050  0.1723  0.0740
 1727DOPC   D2A20263  18.828  22.257  10.955 -0.2749  0.1743  0.2300
 1727DOPC   C3A20264  18.529  22.597  10.807  0.0828  0.0808 -0.1118
 1727DOPC   C4A20265  18.285  22.848  11.090  0.4581  0.0625  0.0646
 1727DOPC   C1B20266  18.204  21.615  10.878  0.0573  0.2224  0.2445
 1727DOPC   D2B20267  18.442  21.515  10.509  0.4901  0.2072  0.2758
 1727DOPC   C3B20268  18.866  21.573  10.628  0.0459  0.0404 -0.0846
 1727DOPC   C4B20269  19.146  21.273  10.478  0.2269 -0.0743 -0.1081
 1728DOPS   CNO20270  17.477  18.916  12.649 -0.5146 -0.1492 -0.0845
 1728DOPS   PO420271  17.312  18.990  12.346 -0.1169 -0.0529  0.0831
 1728DOPS   GL120272  17.467  18.945  11.918  0.0320  0.1765 -0.3494
 1728DOPS   GL220273  17.221  19.124  11.779  0.1041 -0.1997 -0.0359
 1728DOPS   C1A20274  17.638  19.001  11.464 -0.1231  0.1003  0.1281
 1728DOPS   D2A20275  17.925  19.123  11.160 -0.0914  0.2718  0.0874
 1728DOPS   C3A20276  17.982  19.104  10.706  0.0802 -0.1117  0.1347
 1728DOPS   C4A20277  17.759  18.892  10.335  0.3124 -0.1389 -0.0032
 1728DOPS   C1B20278  16.885  19.111  11.430  0.0055  0.1024  0.1954
 1728DOPS   D2B20279  16.434  18.882  11.338 -0.0429  0.0910 -0.4258
 1728DOPS   C3B20280  16.049  18.599  11.374  0.1252 -0.0906 -0.2961
 1728DOPS   C4B20281  15.946  18.424  10.962 -0.0887 -0.2396  0.2730
 1729DOPE   NH320282  22.019  14.714  12.890  0.2769  0.0482 -0.0540
 1729DOPE   PO420283  22.024  14.548  12.593  0.2730  0.0246  0.0105
 1729DOPE   GL120284  21.912  14.586  12.253  0.1297 -0.2292  0.1087
 1729DOPE   GL220285  21.597  14.626  12.134  0.2856 -0.2927  0.0505
 1729DOPE   C1A20286  22.000  14.782  11.841 -0.3088  0.1276  0.0767
 1729DOPE   D2A20287  22.093  15.029  11.415  0.3834 -0.0620  0.2487
 1729DOPE   C3A20288  22.042  14.779  11.014 -0.0194  0.2783 -0.0903
 1729DOPE   C4A20289  21.833  14.378  10.929  0.1668 -0.0383  0.0849
 1729DOPE   C1B20290  21.468  14.423  11.712 -0.0299  0.4895 -0.2207
 1729DOPE   D2B20291  21.100  14.443  11.458  0.1817  0.2006  0.1013
 1729DOPE   C3B20292  21.280  14.671  11.091 -0.0899  0.0243  0.1102
 1729DOPE   C4B20293  21.580  14.945  10.851 -0.0840 -0.1525 -0.0459
 1730DOPS   CNO20294  17.693  21.293  12.492 -0.1480  0.1550  0.0732
 1730DOPS   PO420295  17.676  21.632  12.360  0.1301 -0.1475  0.1809
 1730DOPS   GL120296  17.552  21.673  11.996 -0.0780 -0.2513 -0.5594
 1730DOPS   GL220297  17.607  21.435  11.855  0.1029  0.0106  0.1276
 1730DOPS   C1A20298  17.341  21.724  11.579 -0.4410 -0.1372  0.2780
 1730DOPS   D2A20299  17.305  21.642  11.116  0.0133 -0.1045  0.0016
 1730DOPS   C3A20300  17.689  21.462  10.927  0.0349 -0.1295  0.1715
 1730DOPS   C4A20301  17.910  21.330  10.490  0.1683 -0.1115  0.1029
 1730DOPS   C1B20302  17.716  21.274  11.441  0.2074  0.0915  0.1383
 1730DOPS   D2B20303  17.432  20.980  11.174  0.0562 -0.0856 -0.2066
 1730DOPS   C3B20304  17.173  21.240  10.825  0.3848 -0.2063 -0.1097
 1730DOPS   C4B20305  16.941  21.368  10.453  0.0054  0.0601  0.2375
 1731DOPS   CNO20306  14.251  14.319  12.681  0.1774 -0.3629 -0.0117
 1731DOPS   PO420307  14.294  14.006  12.510 -0.3320  0.0242  0.0118
 1731DOPS   GL120308  14.087  13.884  12.190  0.1874 -0.1291  0.0099
 1731DOPS   GL220309  14.092  14.106  12.035  0.0129  0.1997 -0.0528
 1731DOPS   C1A20310  14.088  13.586  11.792 -0.0015  0.0593 -0.0166
 1731DOPS   D2A20311  14.356  13.509  11.434 -0.3363 -0.0712 -0.2022
 1731DOPS   C3A20312  14.145  13.350  11.007  0.0575 -0.1729 -0.0424
 1731DOPS   C4A20313  13.833  13.318  10.655  0.0386 -0.2626 -0.0271
 1731DOPS   C1B20314  14.240  14.003  11.568 -0.1342 -0.1736  0.0741
 1731DOPS   D2B20315  14.069  13.782  11.202 -0.0985 -0.1196  0.1969
 1731DOPS   C3B20316  14.067  13.782  10.730 -0.1895  0.1691 -0.0860
 1731DOPS   C4B20317  14.026  14.090  10.360 -0.2412  0.2503 -0.0772
 1732POSM   NC320318  13.958  18.353  12.548  0.2208  0.5665 -0.0734
 1732POSM   PO420319  14.015  18.420  12.170  0.0948 -0.1461  0.0383
 1732POSM   AM120320  13.691  18.391  11.983  0.0065  0.0757 -0.1909
 1732POSM   AM220321  13.612  18.628  11.815  0.1688  0.3366  0.1120
 1732POSM   T1A20322  13.683  18.247  11.495 -0.1908 -0.1585 -0.3004
 1732POSM   C2A20323  14.120  18.221  11.328  0.0989 -0.0041  0.1213
 1732POSM   C3A20324  14.454  18.493  11.277  0.0172 -0.0978 -0.1749
 1732POSM   C1B20325  13.332  18.557  11.655  0.0563 -0.3199 -0.0415
 1732POSM   D2B20326  13.063  18.345  11.317 -0.2707 -0.0275 -0.1617
 1732POSM   C3B20327  13.466  18.162  11.074 -0.0791  0.0421  0.2873
 1732POSM   C4B20328  13.854  18.369  10.903 -0.1239 -0.0652 -0.0972
 1733POSM   NC320329  19.651  17.031  12.201  0.2150  0.0435  0.1771
 1733POSM   PO420330  19.782  17.017  11.846  0.1671 -0.2557  0.0856
 1733POSM   AM120331  19.712  16.996  11.530 -0.1170  0.2177  0.1418
 1733POSM   AM220332  19.741  16.755  11.349  0.2687 -0.3733  0.1819
 1733POSM   T1A20333  19.561  17.245  11.101  0.1199  0.1395 -0.0208
 1733POSM   C2A20334  19.272  17.364  10.768 -0.1348  0.0685 -0.1710
 1733POSM   C3A20335  19.143  17.447  10.325 -0.2615 -0.0886 -0.0479
 1733POSM   C1B20336  19.846  16.726  11.019  0.3564  0.0353 -0.0960
 1733POSM   D2B20337  19.750  16.969  10.630 -0.1026 -0.0727  0.0749
 1733POSM   C3B20338  19.325  16.949  10.515 -0.4067 -0.0550 -0.0969
 1733POSM   C4B20339  19.025  16.929  10.133 -0.2582  0.1243  0.0285
 1734DOPC   NC320340  13.654  12.687  12.536 -0.2753  0.1502 -0.1185
 1734DOPC   PO420341  13.444  13.009  12.658 -0.0522 -0.0608  0.1514
 1734DOPC   GL120342  13.379  12.900  12.274  0.0918 -0.2370 -0.1010
 1734DOPC   GL220343  13.616  13.073  12.147 -0.1314  0.2334 -0.2065
 1734DOPC   C1A20344  13.158  13.208  12.008  0.3969 -0.3344  0.1301
 1734DOPC   D2A20345  12.918  13.248  11.561 -0.0034 -0.1096 -0.0997
 1734DOPC   C3A20346  12.893  13.029  11.166  0.1729  0.0644  0.0282
 1734DOPC   C4A20347  12.964  13.019  10.748 -0.4241 -0.1843 -0.1075
 1734DOPC   C1B20348  13.626  13.318  11.746  0.1091 -0.0085  0.0634
 1734DOPC   D2B20349  13.793  13.358  11.286 -0.0800  0.3352 -0.1354
 1734DOPC   C3B20350  13.628  13.605  10.990  0.1143 -0.0248  0.3679
 1734DOPC   C4B20351  13.314  13.921  10.876  0.2441  0.0996 -0.1404
 1735POSM   NC320352  17.518  23.001  13.080  0.1468 -0.1093 -0.2312
 1735POSM   PO420353  17.431  23.109  12.730 -0.1356 -0.1382  0.1260
 1735POSM   AM120354  17.288  23.234  12.484 -0.0009  0.1029 -0.0010
 1735POSM   AM220355  17.030  23.339  12.443  0.0128 -0.1654 -0.1648
 1735POSM   T1A20356  17.359  23.319  12.021 -0.0778 -0.0157 -0.1893
 1735POSM   C2A20357  17.178  23.554  11.656 -0.0639 -0.0599  0.0062
 1735POSM   C3A20358  17.040  23.712  11.264  0.3337 -0.0547  0.0548
 1735POSM   C1B20359  16.890  23.511  12.183  0.1460 -0.0884  0.1424
 1735POSM   D2B20360  16.892  23.897  11.936  0.0283 -0.0569  0.3184
 1735POSM   C3B20361  16.622  24.248  12.075  0.0344  0.1152 -0.3155
 1735POSM   C4B20362  16.374  24.609  12.168  0.2621 -0.0703 -0.3503
 1736DOPC   NC320363  20.797  18.104  11.704 -0.0814 -0.0756  0.0918
 1736DOPC   PO420364  20.897  17.866  11.984  0.2261 -0.0595 -0.1098
 1736DOPC   GL120365  20.776  17.586  11.655  0.1541 -0.2088  0.0121
 1736DOPC   GL220366  21.051  17.480  11.514  0.2747  0.0358  0.1004
 1736DOPC   C1A20367  20.737  17.533  11.163 -0.0533  0.3268 -0.2387
 1736DOPC   D2A20368  20.407  17.651  10.861  0.0810 -0.3352 -0.2671
 1736DOPC   C3A20369  20.484  17.423  10.479  0.2608  0.3050  0.0353
 1736DOPC   C4A20370  20.131  17.220  10.283 -0.0950  0.0898  0.0225
 1736DOPC   C1B20371  21.111  17.875  11.288 -0.0747  0.1368  0.0526
 1736DOPC   D2B20372  21.337  18.012  10.883  0.0094  0.0071  0.3530
 1736DOPC   C3B20373  21.424  17.627  10.660 -0.1309  0.0989  0.1707
 1736DOPC   C4B20374  21.699  17.477  10.316 -0.0709 -0.0635 -0.0333
 1737POSM   NC320375  18.477  17.641  12.072  0.2869  0.0070  0.0151
 1737POSM   PO420376  18.253  17.966  12.025 -0.0594  0.2253  0.3210
 1737POSM   AM120377  18.190  17.908  11.705 -0.1553  0.0762  0.0215
 1737POSM   AM220378  18.128  17.991  11.441  0.0756 -0.1570 -0.0206
 1737POSM   T1A20379  18.083  17.493  11.367 -0.0247 -0.1205  0.0884
 1737POSM   C2A20380  18.014  17.357  10.925  0.2559 -0.0604  0.1817
 1737POSM   C3A20381  17.880  17.397  10.484 -0.1158 -0.0760  0.2095
 1737POSM   C1B20382  18.097  18.218  11.210  0.1091 -0.3290  0.2836
 1737POSM   D2B20383  17.961  18.284  10.744  0.0761  0.1196  0.1131
 1737POSM   C3B20384  17.760  18.077  10.391  0.1025  0.0998  0.1795
 1737POSM   C4B20385  17.692  17.847  10.022  0.3466 -0.5457  0.0390
 1738POSM   NC320386  18.308  12.990  11.781 -0.0859 -0.1474  0.0973
 1738POSM   PO420387  18.676  12.937  11.927  0.0186 -0.1815 -0.1032
 1738POSM   AM120388  18.783  13.022  11.630  0.3055  0.0703 -0.0756
 1738POSM   AM220389  18.954  12.876  11.419 -0.0123  0.0189 -0.0883
 1738POSM   T1A20390  18.632  13.330  11.221 -0.1900 -0.0229  0.0067
 1738POSM   C2A20391  18.772  13.666  10.932  0.0883 -0.0144  0.2650
 1738POSM   C3A20392  18.941  14.059  10.744 -0.0452 -0.2866  0.0870
 1738POSM   C1B20393  18.969  12.946  11.089  0.2214  0.2117  0.0057
 1738POSM   D2B20394  18.854  13.049  10.725  0.1351 -0.0684  0.5011
 1738POSM   C3B20395  18.516  13.262  10.740  0.1457  0.1176  0.1139
 1738POSM   C4B20396  18.157  13.509  10.889 -0.3864 -0.0075 -0.2514
 1739DOPC   NC320397  11.086  15.712  12.715  0.0212  0.1984  0.2301
 1739DOPC   PO420398  11.514  15.802  12.678 -0.0517  0.1432  0.0752
 1739DOPC   GL120399  11.375  15.561  12.415  0.0786 -0.0374  0.0878
 1739DOPC   GL220400  11.268  15.713  12.159  0.1940  0.0874  0.2651
 1739DOPC   C1A20401  11.579  15.250  12.122  0.1704  0.0161 -0.4563
 1739DOPC   D2A20402  11.947  15.318  11.766 -0.0124  0.0224 -0.1168
 1739DOPC   C3A20403  11.700  15.526  11.445 -0.3809  0.1713 -0.0728
 1739DOPC   C4A20404  11.560  15.872  11.173  0.1300  0.1232  0.0299
 1739DOPC   C1B20405  11.370  15.467  11.769  0.0164 -0.4929  0.0683
 1739DOPC   D2B20406  11.459  15.047  11.544  0.0446  0.1956 -0.2702
 1739DOPC   C3B20407  11.329  15.174  11.132  0.0329 -0.3706 -0.0421
 1739DOPC   C4B20408  11.006  15.080  10.835  0.0383  0.1403  0.0401
 1740DOPE   NH320409  15.869  12.531  12.738 -0.1781  0.1422 -0.4545
 1740DOPE   PO420410  15.703  12.547  12.437 -0.3658  0.2748  0.2404
 1740DOPE   GL120411  15.321  12.718  12.272 -0.0685  0.1278  0.1330
 1740DOPE   GL220412  15.429  12.948  12.148 -0.0746  0.0095 -0.2695
 1740DOPE   C1A20413  15.159  12.677  11.824 -0.3220 -0.0234  0.1297
 1740DOPE   D2A20414  14.915  12.623  11.431 -0.0083  0.2327  0.0950
 1740DOPE   C3A20415  14.627  12.765  11.007 -0.1752  0.3204 -0.3354
 1740DOPE   C4A20416  14.316  12.442  10.852  0.1601  0.0982 -0.0546
 1740DOPE   C1B20417  15.693  12.880  11.765  0.2886 -0.2082  0.2067
 1740DOPE   D2B20418  15.731  13.044  11.319 -0.1466 -0.1570  0.3300
 1740DOPE   C3B20419  15.996  13.405  11.238 -0.2260 -0.0470 -0.2796
 1740DOPE   C4B20420  16.232  13.761  11.308 -0.0503 -0.0103 -0.0625
 1741DOPC   NC320421  10.719  15.050  13.189 -0.0196 -0.1990  0.1122
 1741DOPC   PO420422  10.733  15.323  12.905  0.2611  0.0671  0.1459
 1741DOPC   GL120423  10.637  15.123  12.687  0.0044 -0.1642 -0.3413
 1741DOPC   GL220424  10.326  15.235  12.629  0.0729 -0.0037 -0.1467
 1741DOPC   C1A20425  10.740  14.864  12.286 -0.1553 -0.1369 -0.0497
 1741DOPC   D2A20426  10.957  14.449  12.179 -0.4030 -0.1814  0.0598
 1741DOPC   C3A20427  11.149  14.339  11.745 -0.1494  0.3712 -0.0595
 1741DOPC   C4A20428  10.919  13.984  11.564 -0.0608  0.2987 -0.1393
 1741DOPC   C1B20429  10.530  15.362  12.246 -0.0133 -0.1207 -0.4198
 1741DOPC   D2B20430  10.992  15.330  12.350  0.5668 -0.0347 -0.0679
 1741DOPC   C3B20431  11.251  14.939  12.311 -0.0094  0.2223 -0.2179
 1741DOPC   C4B20432  11.608  14.801  12.030  0.2021  0.1753 -0.2583
 1742POSM   NC320433  22.636  17.876  11.944  0.5329  0.1490 -0.2101
 1742POSM   PO420434  22.229  17.853  12.016 -0.0173  0.0735 -0.2258
 1742POSM   AM120435  22.248  18.032  11.770 -0.2421 -0.3704  0.2267
 1742POSM   AM220436  22.282  18.314  11.737 -0.3660 -0.2460 -0.1142
 1742POSM   T1A20437  22.616  18.070  11.404  0.2492  0.1820  0.0217
 1742POSM   C2A20438  22.944  18.310  11.148 -0.3116  0.1280  0.1046
 1742POSM   C3A20439  22.974  18.635  10.796 -0.0592 -0.0651 -0.2613
 1742POSM   C1B20440  22.188  18.391  11.381  0.0061 -0.0790  0.1864
 1742POSM   D2B20441  22.106  18.403  10.935 -0.4670 -0.2297 -0.0406
 1742POSM   C3B20442  22.553  18.408  10.874  0.0928 -0.2783 -0.1978
 1742POSM   C4B20443  22.681  18.150  10.558 -0.0872  0.0144 -0.0864
 1743POSM   NC320444  13.715  22.297  14.182  0.2978  0.1349 -0.2626
 1743POSM   PO420445  13.600  22.531  13.841 -0.1984  0.0574  0.0520
 1743POSM   AM120446  13.710  22.552  13.536  0.1495  0.1122 -0.2403
 1743POSM   AM220447  13.863  22.764  13.392  0.3972  0.3612  0.2268
 1743POSM   T1A20448  13.712  22.368  13.042 -0.3221  0.0865  0.1460
 1743POSM   C2A20449  13.859  22.413  12.633 -0.3105  0.5058 -0.1420
 1743POSM   C3A20450  14.215  22.192  12.404  0.1009 -0.0056 -0.2711
 1743POSM   C1B20451  14.091  22.657  13.215 -0.1583 -0.0818  0.1756
 1743POSM   D2B20452  14.271  22.316  12.945  0.1271 -0.0962  0.2782
 1743POSM   C3B20453  14.601  22.423  12.637  0.0576  0.0832 -0.1299
 1743POSM   C4B20454  14.837  22.280  12.264  0.0961  0.3353 -0.0656
 1744POSM   NC320455  15.581  16.749  11.632  0.0499 -0.0270  0.0183
 1744POSM   PO420456  15.375  16.569  11.963  0.0331  0.2038  0.0223
 1744POSM   AM120457  15.111  16.688  11.780  0.0666  0.2457 -0.0049
 1744POSM   AM220458  14.836  16.594  11.686  0.0250 -0.0113  0.1394
 1744POSM   T1A20459  14.966  16.986  11.412  0.2708  0.0936  0.1372
 1744POSM   C2A20460  15.001  17.134  10.961 -0.1524 -0.0616 -0.1209
 1744POSM   C3A20461  15.025  17.393  10.594 -0.4582 -0.2936  0.2575
 1744POSM   C1B20462  14.704  16.419  11.431  0.0524 -0.1532  0.0035
 1744POSM   D2B20463  14.667  16.132  11.056 -0.0823  0.1048  0.0157
 1744POSM   C3B20464  15.090  15.990  10.840  0.0219 -0.2749 -0.2456
 1744POSM   C4B20465  15.420  15.685  10.705 -0.1928  0.2218 -0.2270
 1745POSM   NC320466  16.846  22.256  12.844  0.2204 -0.2152  0.3915
 1745POSM   PO420467  16.711  22.563  12.649 -0.1890 -0.1034  0.0016
 1745POSM   AM120468  16.743  22.727  12.387 -0.3673  0.0975  0.2713
 1745POSM   AM220469  16.961  22.885  12.315 -0.0499  0.0193 -0.2100
 1745POSM   T1A20470  16.532  23.143  12.181 -0.0708 -0.1223  0.0985
 1745POSM   C2A20471  16.391  23.576  12.043  0.1029  0.1084  0.0730
 1745POSM   C3A20472  16.058  23.924  12.101 -0.3580 -0.0748  0.1065
 1745POSM   C1B20473  16.951  22.964  11.937 -0.1375  0.1026 -0.1158
 1745POSM   D2B20474  16.767  23.196  11.551  0.3710  0.1509  0.0703
 1745POSM   C3B20475  16.627  23.617  11.602 -0.5573  0.2560  0.0010
 1745POSM   C4B20476  16.742  24.087  11.468  0.1224  0.1386 -0.4389
 1746DOPC   NC320477  21.865  23.385  12.621 -0.0293 -0.2529 -0.2734
 1746DOPC   PO420478  21.954  23.149  12.290 -0.2820  0.0988 -0.0318
 1746DOPC   GL120479  21.881  23.167  11.927 -0.1361  0.0468 -0.0829
 1746DOPC   GL220480  22.048  23.230  11.721 -0.0517  0.3359  0.3463
 1746DOPC   C1A20481  21.605  22.924  11.604 -0.0484  0.3067  0.1450
 1746DOPC   D2A20482  21.192  22.831  11.468  0.0812  0.0196 -0.2333
 1746DOPC   C3A20483  20.946  22.894  11.046  0.0956  0.0624  0.3284
 1746DOPC   C4A20484  20.765  23.227  10.814  0.1928 -0.0317  0.2165
 1746DOPC   C1B20485  21.946  23.110  11.318  0.1609  0.2253 -0.1813
 1746DOPC   D2B20486  21.996  23.312  10.974  0.0012 -0.2777 -0.0599
 1746DOPC   C3B20487  21.620  23.567  10.843 -0.1312 -0.0297 -0.0871
 1746DOPC   C4B20488  21.172  23.663  10.910  0.0758  0.0066  0.0320
 1747POSM   NC320489  21.538  21.815  12.319  0.2423 -0.0576  0.0371
 1747POSM   PO420490  21.886  21.613  12.343 -0.0905 -0.2514 -0.3492
 1747POSM   AM120491  21.803  21.607  12.049  0.0665  0.1864 -0.2132
 1747POSM   AM220492  21.907  21.645  11.811 -0.3480 -0.1218 -0.3850
 1747POSM   T1A20493  21.523  21.519  11.585 -0.0014  0.1385 -0.0887
 1747POSM   C2A20494  21.355  21.533  11.132 -0.0836  0.1194 -0.3132
 1747POSM   C3A20495  21.556  21.746  10.823 -0.0006  0.0203  0.0702
 1747POSM   C1B20496  22.083  21.609  11.530 -0.0958 -0.2601 -0.0272
 1747POSM   D2B20497  22.213  21.820  11.176  0.0927 -0.0045  0.0521
 1747POSM   C3B20498  22.189  22.258  11.033  0.0764 -0.0859 -0.1248
 1747POSM   C4B20499  22.403  22.642  11.168 -0.0568 -0.0794 -0.2132
 1748DOPS   CNO20500  16.506  18.585  12.391 -0.1249  0.0452 -0.0642
 1748DOPS   PO420501  16.316  18.262  12.401 -0.0822  0.3053  0.1179
 1748DOPS   GL120502  16.464  18.239  12.071  0.0466  0.0392  0.1164
 1748DOPS   GL220503  16.759  18.145  11.923  0.1328  0.2156  0.4241
 1748DOPS   C1A20504  16.323  18.213  11.621  0.2119  0.6667 -0.1290
 1748DOPS   D2A20505  16.318  17.861  11.323  0.0854  0.1167  0.2452
 1748DOPS   C3A20506  16.144  17.910  10.920 -0.1584 -0.1478  0.0406
 1748DOPS   C4A20507  15.757  17.978  10.665 -0.2716  0.2203  0.0421
 1748DOPS   C1B20508  16.755  17.885  11.513 -0.0304 -0.0391  0.1768
 1748DOPS   D2B20509  16.743  17.834  11.020  0.0093 -0.0585 -0.1026
 1748DOPS   C3B20510  16.594  17.992  10.584  0.0558 -0.0123  0.0444
 1748DOPS   C4B20511  16.279  18.322  10.613  0.0242 -0.0320  0.0033
 1749DOPS   CNO20512  12.538  18.191  12.614 -0.0182 -0.0723  0.1131
 1749DOPS   PO420513  12.776  18.485  12.520 -0.2770  0.1031  0.0295
 1749DOPS   GL120514  12.710  18.666  12.222  0.0826  0.2031  0.3999
 1749DOPS   GL220515  12.473  18.848  12.311  0.1307  0.1552 -0.0468
 1749DOPS   C1A20516  12.949  19.013  12.133  0.1503 -0.0112 -0.1626
 1749DOPS   D2A20517  13.002  19.248  11.679  0.0078  0.1391 -0.0866
 1749DOPS   C3A20518  13.083  19.675  11.853 -0.2513  0.0159 -0.0311
 1749DOPS   C4A20519  13.240  20.112  11.796 -0.0702  0.0074 -0.1982
 1749DOPS   C1B20520  12.105  19.075  12.088  0.0855  0.1500 -0.1855
 1749DOPS   D2B20521  11.951  18.826  11.791 -0.1177 -0.1058  0.2487
 1749DOPS   C3B20522  11.921  19.057  11.420  0.0745 -0.2488 -0.4468
 1749DOPS   C4B20523  12.135  19.387  11.138  0.0508 -0.0381  0.0519
 1750DOPS   CNO20524  18.313  20.898  12.209 -0.2445 -0.1348 -0.1413
 1750DOPS   PO420525  18.153  20.899  11.866 -0.1257 -0.3649 -0.3009
 1750DOPS   GL120526  18.243  20.896  11.490 -0.2044 -0.0021  0.0509
 1750DOPS   GL220527  18.240  21.194  11.363  0.0827  0.2579 -0.0203
 1750DOPS   C1A20528  17.919  20.888  11.154 -0.2553 -0.2102  0.0752
 1750DOPS   D2A20529  17.734  20.896  10.751  0.2101  0.1149  0.3422
 1750DOPS   C3A20530  17.332  20.652  10.677 -0.1583 -0.2462 -0.0834
 1750DOPS   C4A20531  16.951  20.440  10.478 -0.0533  0.1779  0.2387
 1750DOPS   C1B20532  18.287  21.139  10.882 -0.2141 -0.1585 -0.1011
 1750DOPS   D2B20533  18.326  20.935  10.491 -0.0331 -0.0470  0.3553
 1750DOPS   C3B20534  18.006  20.701  10.285 -0.2490 -0.0997  0.2395
 1750DOPS   C4B20535  17.830  20.454   9.946  0.0100 -0.0510  0.2349
 1751POSM   NC320536  15.774  11.926  13.052  0.0314  0.1203  0.2383
 1751POSM   PO420537  15.956  11.736  12.739  0.0110 -0.1789 -0.2281
 1751POSM   AM120538  15.963  11.693  12.397 -0.0630 -0.1399 -0.0957
 1751POSM   AM220539  15.789  11.830  12.239  0.0994  0.1371  0.1605
 1751POSM   T1A20540  16.009  11.508  11.870 -0.5725  0.0482 -0.2211
 1751POSM   C2A20541  15.916  11.458  11.415 -0.1556  0.1752 -0.1081
 1751POSM   C3A20542  16.042  11.009  11.169 -0.1528 -0.1427  0.0175
 1751POSM   C1B20543  15.613  11.841  11.945  0.1945 -0.3273 -0.1345
 1751POSM   D2B20544  15.444  11.727  11.562 -0.0091  0.2433 -0.0057
 1751POSM   C3B20545  15.598  11.761  11.102 -0.0990 -0.0211  0.0749
 1751POSM   C4B20546  15.811  11.592  10.764 -0.2976  0.2035 -0.1339
 1752DOPE   NH320547  19.775  23.755  12.533 -0.0452  0.0455 -0.0672
 1752DOPE   PO420548  19.482  23.908  12.521 -0.0879  0.1142 -0.0422
 1752DOPE   GL120549  19.360  23.851  12.152 -0.1900  0.2289  0.1867
 1752DOPE   GL220550  19.566  23.692  12.087  0.0207 -0.0077 -0.0566
 1752DOPE   C1A20551  19.045  24.056  11.884 -0.2014  0.1687 -0.1178
 1752DOPE   D2A20552  18.664  24.159  11.564 -0.1290  0.3409 -0.2883
 1752DOPE   C3A20553  18.666  24.008  11.092 -0.0358 -0.2035 -0.1441
 1752DOPE   C4A20554  18.857  24.037  10.681 -0.0718  0.1749 -0.0032
 1752DOPE   C1B20555  19.288  23.730  11.658 -0.0294  0.3287 -0.3009
 1752DOPE   D2B20556  19.052  23.603  11.312  0.2369  0.0942 -0.0857
 1752DOPE   C3B20557  19.233  23.681  10.905  0.0566  0.1242 -0.0104
 1752DOPE   C4B20558  19.646  24.000  10.872 -0.1648 -0.2100 -0.2081
 1753POSM   NC320559  14.747  13.351  12.501  0.0970 -0.2923  0.0893
 1753POSM   PO420560  14.436  13.126  12.562  0.0600 -0.1130  0.4463
 1753POSM   AM120561  14.408  13.094  12.239 -0.1753  0.0295 -0.0029
 1753POSM   AM220562  14.481  12.896  12.051  0.1811 -0.2637 -0.1833
 1753POSM   T1A20563  14.033  13.092  11.889  0.1892 -0.0653 -0.0573
 1753POSM   C2A20564  13.737  12.852  11.555 -0.0657  0.0413 -0.0838
 1753POSM   C3A20565  13.863  12.617  11.126 -0.1706 -0.0789 -0.3080
 1753POSM   C1B20566  14.520  12.767  11.741  0.2514  0.1394  0.0967
 1753POSM   D2B20567  14.404  12.502  11.367  0.3338  0.1179  0.0602
 1753POSM   C3B20568  14.685  12.247  11.096 -0.2190 -0.0141 -0.0436
 1753POSM   C4B20569  14.739  12.125  10.724  0.2050 -0.1045 -0.2107
 1754DOPS   CNO20570  21.947  19.231  12.517 -0.3626  0.0420  0.2507
 1754DOPS   PO420571  22.074  19.080  12.191  0.2337  0.2826  0.1150
 1754DOPS   GL120572  22.026  19.244  11.797 -0.2701  0.0751 -0.2249
 1754DOPS   GL220573  22.238  19.063  11.664  0.1276  0.2692  0.0710
 1754DOPS   C1A20574  21.668  19.329  11.586 -0.1016  0.2317 -0.0028
 1754DOPS   D2A20575  21.312  19.342  11.273  0.1813  0.0016  0.0572
 1754DOPS   C3A20576  21.421  19.278  10.857 -0.0413  0.3898  0.3251
 1754DOPS   C4A20577  21.509  19.355  10.440 -0.2341 -0.0584  0.1082
 1754DOPS   C1B20578  21.957  19.051  11.329  0.3143 -0.2385 -0.0947
 1754DOPS   D2B20579  21.866  19.357  11.036  0.0413 -0.3724  0.1082
 1754DOPS   C3B20580  22.113  19.475  10.620  0.1105  0.1210 -0.0410
 1754DOPS   C4B20581  22.179  19.654  10.239 -0.1416 -0.1322  0.1540
 1755POSM   NC320582  21.140  13.940  12.723  0.1511 -0.1225  0.0994
 1755POSM   PO420583  21.097  14.263  12.535 -0.0755 -0.0896 -0.0517
 1755POSM   AM120584  21.041  14.280  12.211 -0.0359 -0.0726  0.1116
 1755POSM   AM220585  21.013  14.490  12.037  0.0661  0.3512 -0.0227
 1755POSM   T1A20586  21.061  14.066  11.769 -0.1356 -0.2920  0.4654
 1755POSM   C2A20587  21.241  13.821  11.407 -0.0417 -0.0087  0.1451
 1755POSM   C3A20588  21.492  13.620  11.053 -0.0552 -0.0093 -0.1300
 1755POSM   C1B20589  20.773  14.520  11.841  0.1061 -0.4203 -0.0996
 1755POSM   D2B20590  20.437  14.355  11.649  0.0425  0.2060  0.0272
 1755POSM   C3B20591  20.633  14.376  11.228 -0.0799  0.2875 -0.0076
 1755POSM   C4B20592  20.499  14.524  10.851  0.2604 -0.0241 -0.1910
 1756POSM   NC320593  16.876  14.422  11.769  0.1311  0.0515  0.4206
 1756POSM   PO420594  17.182  14.713  11.795  0.0300  0.0327 -0.1815
 1756POSM   AM120595  17.234  14.943  11.567 -0.3224  0.1476  0.2575
 1756POSM   AM220596  17.456  15.007  11.425 -0.1167  0.3243 -0.1235
 1756POSM   T1A20597  16.972  15.129  11.217  0.0358 -0.0753  0.1429
 1756POSM   C2A20598  16.661  14.977  10.918 -0.1882  0.3063  0.0528
 1756POSM   C3A20599  16.357  15.012  10.628 -0.1743 -0.0083 -0.2388
 1756POSM   C1B20600  17.642  14.904  11.134  0.0755  0.0301  0.0828
 1756POSM   D2B20601  18.020  15.021  10.881 -0.3760  0.2013  0.4261
 1756POSM   C3B20602  18.051  15.306  10.518 -0.2499 -0.0522  0.0863
 1756POSM   C4B20603  18.276  15.522  10.177  0.2373  0.0071 -0.1961
 1757POSM   NC320604  15.748  19.114  12.201 -0.0352  0.0204  0.4212
 1757POSM   PO420605  15.340  19.188  12.185 -0.0248  0.1334  0.2100
 1757POSM   AM120606  15.362  19.032  11.876 -0.0304 -0.3473  0.2307
 1757POSM   AM220607  15.141  18.982  11.670  0.0703 -0.0560  0.1557
 1757POSM   T1A20608  15.650  19.031  11.428  0.3928 -0.2185 -0.2966
 1757POSM   C2A20609  15.998  19.075  11.141 -0.3738  0.2367 -0.0219
 1757POSM   C3A20610  16.105  18.873  10.803  0.1429 -0.1051 -0.1948
 1757POSM   C1B20611  15.125  18.891  11.355  0.0714 -0.2795  0.1160
 1757POSM   D2B20612  15.046  18.573  11.071 -0.1853 -0.2535  0.0571
 1757POSM   C3B20613  14.972  18.374  10.656  0.2200  0.2027 -0.1141
 1757POSM   C4B20614  14.622  18.191  10.391 -0.2605 -0.2100 -0.0227
 1758DOPE   NH320615  23.019  20.373  12.555  0.3075 -0.2446  0.1945
 1758DOPE   PO420616  22.876  20.290  12.283  0.0659 -0.3536  0.4656
 1758DOPE   GL120617  22.959  20.342  11.967 -0.0914 -0.0658 -0.2390
 1758DOPE   GL220618  23.199  20.409  11.915 -0.0603  0.0151 -0.1781
 1758DOPE   C1A20619  23.082  20.105  11.554  0.0091 -0.1335 -0.0454
 1758DOPE   D2A20620  23.382  20.183  11.242 -0.0676  0.0124 -0.3444
 1758DOPE   C3A20621  23.345  20.149  10.787  0.2571 -0.0166  0.0328
 1758DOPE   C4A20622  23.310  19.963  10.385 -0.4152  0.2359  0.2622
 1758DOPE   C1B20623  23.066  20.576  11.505  0.2465 -0.0907  0.1784
 1758DOPE   D2B20624  23.058  20.548  11.035 -0.0429  0.1710  0.3220
 1758DOPE   C3B20625  23.393  20.803  10.799 -0.0105 -0.0039  0.0166
 1758DOPE   C4B20626  23.549  21.092  10.476 -0.4220 -0.0523  0.2489
 1759DOPE   NH320627  14.860  18.487  12.775  0.1502  0.0199 -0.2153
 1759DOPE   PO420628  14.991  18.411  12.484  0.0156 -0.1207  0.3944
 1759DOPE   GL120629  14.998  18.393  12.036 -0.1033  0.1400  0.4325
 1759DOPE   GL220630  15.188  18.378  11.908  0.1795 -0.0953  0.0007
 1759DOPE   C1A20631  14.834  18.611  11.634  0.1857  0.0379  0.2356
 1759DOPE   D2A20632  14.691  19.050  11.455 -0.1345 -0.0592  0.1318
 1759DOPE   C3A20633  14.699  18.926  10.986  0.0225 -0.0806  0.3588
 1759DOPE   C4A20634  14.497  18.631  10.734 -0.1798 -0.3675 -0.0084
 1759DOPE   C1B20635  15.278  18.228  11.495 -0.1919 -0.3599  0.1233
 1759DOPE   D2B20636  15.104  18.050  11.056 -0.1091 -0.1267 -0.0806
 1759DOPE   C3B20637  14.591  18.088  10.976 -0.1588  0.0496 -0.3232
 1759DOPE   C4B20638  14.273  18.034  10.665  0.1025 -0.3453 -0.2133
 1760DOPS   CNO20639  21.102  11.075  13.074  0.0112 -0.0066  0.0603
 1760DOPS   PO420640  21.073  11.396  12.809 -0.1280 -0.0492 -0.2262
 1760DOPS   GL120641  21.266  11.374  12.453  0.0356 -0.0253 -0.0822
 1760DOPS   GL220642  21.200  11.155  12.315  0.0426  0.1378 -0.1444
 1760DOPS   C1A20643  21.584  11.377  12.074  0.0723 -0.3363  0.0963
 1760DOPS   D2A20644  21.782  11.444  11.656 -0.1544 -0.0279 -0.3040
 1760DOPS   C3A20645  21.648  11.345  11.198 -0.2074 -0.1350  0.3131
 1760DOPS   C4A20646  21.804  11.210  10.831 -0.1514 -0.2746 -0.0278
 1760DOPS   C1B20647  21.124  11.413  11.898 -0.1520 -0.0900 -0.2100
 1760DOPS   D2B20648  21.303  11.607  11.546  0.0967 -0.3759  0.1421
 1760DOPS   C3B20649  21.268  11.621  11.070 -0.0699 -0.0695 -0.0839
 1760DOPS   C4B20650  21.003  11.694  10.695 -0.1691  0.1604 -0.2076
 1761DOPS   CNO20651  12.384  15.751  12.778  0.1132  0.2966  0.3061
 1761DOPS   PO420652  12.349  15.536  12.478 -0.1315  0.1174  0.3775
 1761DOPS   GL120653  12.373  15.389  12.085  0.3548  0.0960  0.1177
 1761DOPS   GL220654  12.506  15.683  11.987  0.0336 -0.2173 -0.2248
 1761DOPS   C1A20655  12.397  15.168  11.693  0.0215 -0.1876  0.0693
 1761DOPS   D2A20656  12.503  15.068  11.251  0.0920 -0.0427 -0.2059
 1761DOPS   C3A20657  12.360  15.276  10.852 -0.0407 -0.0817 -0.1133
 1761DOPS   C4A20658  12.007  15.210  10.558  0.3843  0.1324  0.1604
 1761DOPS   C1B20659  12.621  16.058  11.655 -0.0339 -0.1158 -0.0375
 1761DOPS   D2B20660  12.504  16.083  11.240  0.3856 -0.1306 -0.0095
 1761DOPS   C3B20661  12.828  16.347  11.137 -0.2090  0.0082 -0.1232
 1761DOPS   C4B20662  13.231  16.363  10.949  0.0411 -0.1168 -0.4222
 1762DOPE   NH320663  17.179  21.568  12.207 -0.1221 -0.0302 -0.0467
 1762DOPE   PO420664  17.261  21.270  12.189 -0.0988 -0.0363 -0.0324
 1762DOPE   GL120665  17.166  21.313  11.741 -0.0085 -0.2065 -0.0433
 1762DOPE   GL220666  17.309  21.056  11.629  0.2819 -0.1872  0.1255
 1762DOPE   C1A20667  16.962  21.246  11.325 -0.2304 -0.3288  0.0915
 1762DOPE   D2A20668  16.673  21.357  10.921  0.3510  0.3257  0.1562
 1762DOPE   C3A20669  16.455  21.504  10.614 -0.0159  0.0550 -0.0739
 1762DOPE   C4A20670  16.402  21.855  10.285  0.2167 -0.1477  0.2945
 1762DOPE   C1B20671  17.382  20.632  11.537  0.0424  0.2256  0.0521
 1762DOPE   D2B20672  17.157  20.285  11.460 -0.3021  0.1148 -0.0967
 1762DOPE   C3B20673  17.476  19.975  11.273 -0.0057  0.1394 -0.0810
 1762DOPE   C4B20674  17.684  19.553  11.093 -0.2096 -0.2744 -0.3208
 1763DOPC   NC320675  16.332  22.895  12.585 -0.1364  0.1977 -0.0600
 1763DOPC   PO420676  16.278  22.563  12.351  0.0955 -0.0627  0.1745
 1763DOPC   GL120677  16.192  22.837  12.070  0.1400  0.2335  0.3121
 1763DOPC   GL220678  15.902  22.966  12.240 -0.0803 -0.2317 -0.3364
 1763DOPC   C1A20679  16.262  23.039  11.645 -0.3358  0.0884 -0.2314
 1763DOPC   D2A20680  16.118  23.401  11.419  0.3544 -0.1563 -0.0266
 1763DOPC   C3A20681  16.059  23.762  11.652  0.3051  0.1652 -0.1799
 1763DOPC   C4A20682  16.236  24.240  11.757  0.4796  0.1593 -0.0748
 1763DOPC   C1B20683  15.770  22.851  11.814  0.1047  0.3501 -0.0719
 1763DOPC   D2B20684  15.352  22.872  11.591 -0.0238  0.0437  0.1810
 1763DOPC   C3B20685  15.106  22.687  11.229  0.3549 -0.0960  0.2609
 1763DOPC   C4B20686  14.760  22.631  11.045  0.0726 -0.0778  0.2410
 1764DOPE   NH320687  15.935  21.361  12.313  0.1221  0.0766 -0.4143
 1764DOPE   PO420688  16.186  21.358  12.117 -0.1815 -0.2304  0.0494
 1764DOPE   GL120689  16.262  21.478  11.799 -0.0083 -0.2758  0.3311
 1764DOPE   GL220690  16.480  21.690  11.870 -0.0863  0.1986 -0.0881
 1764DOPE   C1A20691  16.087  21.251  11.408  0.3628 -0.1061 -0.3755
 1764DOPE   D2A20692  15.748  21.099  11.120  0.0651 -0.1052  0.1775
 1764DOPE   C3A20693  15.324  20.943  11.125  0.2907  0.0261  0.1187
 1764DOPE   C4A20694  15.054  20.660  11.027  0.1385  0.1300  0.1775
 1764DOPE   C1B20695  16.854  21.638  11.586  0.1316  0.0443 -0.1050
 1764DOPE   D2B20696  16.844  21.751  11.177  0.0653 -0.0323 -0.2064
 1764DOPE   C3B20697  16.836  21.875  10.714  0.1122  0.1350  0.1988
 1764DOPE   C4B20698  16.729  22.198  10.395 -0.1940 -0.1141  0.1232
 1765DOPC   NC320699  10.459  14.189  13.243 -0.2333 -0.3651 -0.0138
 1765DOPC   PO420700  10.733  14.439  13.173 -0.3286  0.0841  0.1427
 1765DOPC   GL120701  10.521  14.695  12.949  0.1897  0.1227 -0.0836
 1765DOPC   GL220702  10.823  14.719  12.752 -0.1590  0.0698 -0.1556
 1765DOPC   C1A20703  10.317  14.689  12.572 -0.0166 -0.0929 -0.1090
 1765DOPC   D2A20704  10.261  14.990  12.206  0.4032 -0.0716 -0.3194
 1765DOPC   C3A20705  10.303  14.990  11.792 -0.0659 -0.2929  0.3592
 1765DOPC   C4A20706   9.922  15.094  11.482  0.0452  0.2626  0.0305
 1765DOPC   C1B20707  10.673  14.376  12.558  0.0191 -0.0283 -0.0701
 1765DOPC   D2B20708  10.310  14.155  12.440 -0.0627 -0.2655  0.0932
 1765DOPC   C3B20709   9.999  14.023  12.094 -0.1023  0.0024  0.1250
 1765DOPC   C4B20710   9.785  13.974  11.711  0.2308  0.0324 -0.0292
 1766DOPE   NH320711  18.893  13.879  12.215  0.3299  0.0864 -0.0586
 1766DOPE   PO420712  18.635  13.794  12.020 -0.1653  0.1212  0.0161
 1766DOPE   GL120713  18.812  13.831  11.666 -0.0223  0.0437  0.3022
 1766DOPE   GL220714  19.030  14.099  11.633  0.0234 -0.1651  0.1336
 1766DOPE   C1A20715  18.725  14.032  11.229 -0.2366  0.0727 -0.3152
 1766DOPE   D2A20716  18.680  14.479  10.982 -0.0996  0.1275 -0.2421
 1766DOPE   C3A20717  18.633  14.356  10.567  0.2924  0.1442 -0.2378
 1766DOPE   C4A20718  18.368  14.162  10.223 -0.1623  0.1965 -0.2208
 1766DOPE   C1B20719  19.068  14.423  11.315 -0.3287 -0.1370 -0.1002
 1766DOPE   D2B20720  19.328  14.445  10.909 -0.1133 -0.0194 -0.2498
 1766DOPE   C3B20721  19.284  14.885  10.689  0.2372  0.0201 -0.2647
 1766DOPE   C4B20722  19.191  15.090  10.300  0.3548  0.0870  0.0529
 1767DOPE   NH320723  22.366  21.049  12.160  0.0948  0.2108 -0.0525
 1767DOPE   PO420724  22.139  21.273  12.062  0.1071 -0.0085  0.3463
 1767DOPE   GL120725  22.133  21.182  11.662  0.3044  0.1367  0.0038
 1767DOPE   GL220726  21.853  21.109  11.660  0.0689 -0.0715  0.0977
 1767DOPE   C1A20727  22.399  21.325  11.259  0.0884 -0.2537 -0.1895
 1767DOPE   D2A20728  22.805  21.507  11.115 -0.0211  0.1523  0.0065
 1767DOPE   C3A20729  22.834  21.486  10.620  0.0666 -0.1429 -0.2252
 1767DOPE   C4A20730  22.632  21.793  10.231 -0.0731  0.0636  0.2746
 1767DOPE   C1B20731  21.818  21.340  11.272 -0.2299  0.0720 -0.0498
 1767DOPE   D2B20732  21.984  21.522  10.876 -0.0082 -0.1518 -0.2462
 1767DOPE   C3B20733  22.297  21.175  10.685 -0.2229 -0.1661  0.1350
 1767DOPE   C4B20734  22.481  21.205  10.220  0.0884 -0.3410 -0.1298
 1768DOPC   NC320735  12.453  11.170  14.351 -0.1539 -0.1423 -0.1100
 1768DOPC   PO420736  12.691  11.426  14.127 -0.0464 -0.2117 -0.0122
 1768DOPC   GL120737  12.264  11.487  13.921 -0.0288 -0.2476  0.0218
 1768DOPC   GL220738  12.047  11.523  14.153 -0.1207 -0.0770  0.0572
 1768DOPC   C1A20739  12.011  11.140  13.732 -0.0278 -0.0503 -0.0246
 1768DOPC   D2A20740  11.656  10.877  13.717  0.0345  0.2715  0.1688
 1768DOPC   C3A20741  11.413  10.962  13.292  0.3592  0.0084  0.1640
 1768DOPC   C4A20742  11.130  11.332  13.272  0.2017  0.0054 -0.1033
 1768DOPC   C1B20743  11.583  11.383  14.083 -0.0375 -0.1345  0.0335
 1768DOPC   D2B20744  11.317  11.003  13.999 -0.0425  0.0337 -0.0406
 1768DOPC   C3B20745  11.066  10.976  13.659 -0.3449 -0.2155 -0.0791
 1768DOPC   C4B20746  10.956  10.788  13.219  0.0670  0.0771  0.4995
 1769DOPC   NC320747  22.364  14.115  12.738 -0.1150  0.0741 -0.1393
 1769DOPC   PO420748  22.722  14.085  12.601  0.0592 -0.2570  0.2317
 1769DOPC   GL120749  22.959  14.207  12.318  0.1973 -0.0189  0.1438
 1769DOPC   GL220750  23.115  14.469  12.457 -0.0008 -0.3913  0.1675
 1769DOPC   C1A20751  22.835  14.341  11.870  0.1732 -0.2583 -0.2278
 1769DOPC   D2A20752  22.547  14.642  11.642  0.1488 -0.1830  0.0989
 1769DOPC   C3A20753  22.445  14.483  11.161 -0.0581 -0.0962  0.2226
 1769DOPC   C4A20754  22.322  14.425  10.730 -0.1229 -0.1181 -0.0625
 1769DOPC   C1B20755  23.134  14.686  12.071  0.0607  0.0381 -0.4248
 1769DOPC   D2B20756  23.026  15.002  11.785 -0.0193 -0.3992  0.2540
 1769DOPC   C3B20757  23.138  14.981  11.326 -0.0869 -0.2683  0.0034
 1769DOPC   C4B20758  23.504  14.789  11.088 -0.0908  0.1612 -0.1427
 1770DOPE   NH320759  16.348  12.080  12.184  0.0038  0.0481  0.1956
 1770DOPE   PO420760  16.119  12.165  12.368  0.3018 -0.2101 -0.3052
 1770DOPE   GL120761  15.971  12.054  11.884  0.0512  0.0822 -0.4688
 1770DOPE   GL220762  15.964  12.408  11.867 -0.3522  0.4008  0.1736
 1770DOPE   C1A20763  15.843  12.003  11.442 -0.0988  0.2344  0.2214
 1770DOPE   D2A20764  16.108  11.887  11.125  0.0816 -0.0687 -0.0942
 1770DOPE   C3A20765  16.010  12.151  10.729 -0.0674  0.3714 -0.0765
 1770DOPE   C4A20766  15.984  11.972  10.333 -0.0649  0.3428 -0.0133
 1770DOPE   C1B20767  15.906  12.496  11.413 -0.1172 -0.1168 -0.2309
 1770DOPE   D2B20768  16.133  12.640  10.992 -0.3083  0.2879 -0.0415
 1770DOPE   C3B20769  16.153  12.865  10.600 -0.0975 -0.1854  0.2881
 1770DOPE   C4B20770  16.545  12.969  10.295 -0.0114  0.2229  0.0418
 1771DOPE   NH320771  23.483  19.104  12.517 -0.0494  0.0624  0.1203
 1771DOPE   PO420772  23.243  18.898  12.497 -0.1069 -0.0026 -0.1559
 1771DOPE   GL120773  23.133  18.723  12.197 -0.0653 -0.0171  0.3753
 1771DOPE   GL220774  23.025  18.882  11.967  0.0333 -0.1528 -0.2999
 1771DOPE   C1A20775  23.327  18.494  11.877 -0.1023 -0.0448 -0.6027
 1771DOPE   D2A20776  23.600  18.298  11.502  0.0880 -0.1277  0.0160
 1771DOPE   C3A20777  23.401  18.205  11.074 -0.0688 -0.2676  0.0012
 1771DOPE   C4A20778  23.140  18.078  10.695 -0.2009 -0.2449  0.1510
 1771DOPE   C1B20779  23.296  19.164  11.698  0.1439 -0.1946  0.1661
 1771DOPE   D2B20780  23.458  19.175  11.258  0.0768  0.0518 -0.2227
 1771DOPE   C3B20781  23.812  19.464  11.183 -0.0856 -0.0231 -0.0422
 1771DOPE   C4B20782  24.167  19.794  11.101 -0.0867 -0.0870 -0.2803
 1772DOPS   CNO20783  13.684  14.948  12.105 -0.2144  0.1820 -0.1790
 1772DOPS   PO420784  13.340  15.126  12.094  0.0072 -0.1065  0.2155
 1772DOPS   GL120785  13.173  15.101  11.725  0.3524  0.2468  0.1070
 1772DOPS   GL220786  12.908  15.168  11.754  0.2524  0.0560 -0.0633
 1772DOPS   C1A20787  12.971  15.060  11.271 -0.2387  0.1063  0.0861
 1772DOPS   D2A20788  12.844  15.383  10.955 -0.0356  0.1732  0.4089
 1772DOPS   C3A20789  13.151  15.590  10.682 -0.0575  0.0124  0.1517
 1772DOPS   C4A20790  13.455  15.638  10.312  0.1061 -0.0261  0.0559
 1772DOPS   C1B20791  12.672  15.509  11.486 -0.0940  0.1383  0.0510
 1772DOPS   D2B20792  12.226  15.531  11.335  0.2835  0.0885 -0.1058
 1772DOPS   C3B20793  12.075  15.895  11.140 -0.1663  0.1502  0.1240
 1772DOPS   C4B20794  11.815  16.343  11.250  0.1280 -0.1602 -0.2309
 1773POSM   NC320795  16.642  22.980  13.662 -0.1750  0.0578  0.2985
 1773POSM   PO420796  16.648  23.185  13.322 -0.0322 -0.3186  0.0875
 1773POSM   AM120797  16.676  23.346  13.031  0.0219  0.3323 -0.0078
 1773POSM   AM220798  16.596  23.290  12.732  0.0471  0.0820 -0.1967
 1773POSM   T1A20799  16.607  23.747  12.740  0.2067  0.2457  0.0725
 1773POSM   C2A20800  16.426  24.171  12.587 -0.0445 -0.1321 -0.0663
 1773POSM   C3A20801  16.514  24.616  12.736 -0.1299  0.2806  0.0322
 1773POSM   C1B20802  16.300  23.349  12.703  0.0619  0.0132 -0.0416
 1773POSM   D2B20803  16.039  23.518  12.387  0.0555 -0.0122  0.1906
 1773POSM   C3B20804  15.955  23.315  11.934 -0.1306  0.0222  0.4708
 1773POSM   C4B20805  15.691  23.199  11.527  0.1226  0.1088  0.2086
 1774DOPC   NC320806  12.896  16.111  12.111 -0.4334 -0.0420 -0.0273
 1774DOPC   PO420807  12.981  16.466  12.286  0.2241 -0.0468 -0.0771
 1774DOPC   GL120808  12.979  16.586  11.906  0.0621  0.0439  0.0691
 1774DOPC   GL220809  12.916  16.415  11.709  0.2912  0.0418 -0.0297
 1774DOPC   C1A20810  13.160  16.961  11.754  0.0109 -0.1175  0.1328
 1774DOPC   D2A20811  13.282  17.184  11.399  0.3434  0.0260  0.1518
 1774DOPC   C3A20812  13.441  16.881  11.062  0.0251 -0.0635  0.0529
 1774DOPC   C4A20813  13.670  16.865  10.644  0.1794 -0.0121 -0.0704
 1774DOPC   C1B20814  13.257  16.445  11.486  0.0613 -0.1184  0.0225
 1774DOPC   D2B20815  13.695  16.378  11.317  0.0713  0.0514  0.2006
 1774DOPC   C3B20816  13.780  16.244  10.912  0.0019 -0.0256 -0.1897
 1774DOPC   C4B20817  13.871  16.356  10.494 -0.0077 -0.2297  0.0407
 1775DOPC   NC320818  16.444  15.492  11.976 -0.2943  0.0754  0.2489
 1775DOPC   PO420819  16.248  15.522  11.637  0.0224  0.3073  0.2275
 1775DOPC   GL120820  16.246  15.709  11.310  0.3396  0.2522  0.0322
 1775DOPC   GL220821  16.503  15.615  11.190 -0.2735  0.2081  0.0267
 1775DOPC   C1A20822  16.106  16.060  11.024 -0.0525  0.2256  0.0174
 1775DOPC   D2A20823  16.251  16.180  10.575  0.0854 -0.3979 -0.2602
 1775DOPC   C3A20824  15.918  16.363  10.367 -0.0713  0.3390  0.2356
 1775DOPC   C4A20825  15.789  16.799  10.238 -0.0224  0.2678  0.0269
 1775DOPC   C1B20826  16.702  15.433  10.809 -0.2490  0.2522 -0.2263
 1775DOPC   D2B20827  16.824  15.206  10.420 -0.2897 -0.2772  0.1368
 1775DOPC   C3B20828  17.161  15.360  10.146 -0.0220 -0.2085  0.0537
 1775DOPC   C4B20829  17.378  15.170   9.761  0.3947  0.2679 -0.3581
 1776DOPS   CNO20830  13.134  11.763  14.013 -0.1509  0.0630  0.1126
 1776DOPS   PO420831  13.026  11.684  13.667  0.3199 -0.2557  0.2085
 1776DOPS   GL120832  12.814  11.631  13.296 -0.4989 -0.1306  0.0755
 1776DOPS   GL220833  12.837  11.935  13.142 -0.2620  0.1332 -0.0953
 1776DOPS   C1A20834  12.384  11.472  13.096 -0.1607 -0.1210  0.0860
 1776DOPS   D2A20835  12.032  11.634  12.905  0.1170  0.1510 -0.1126
 1776DOPS   C3A20836  11.632  11.504  13.105 -0.2219  0.1347  0.0582
 1776DOPS   C4A20837  11.519  11.496  13.546  0.0937 -0.1185 -0.0298
 1776DOPS   C1B20838  12.784  11.591  12.812  0.2093 -0.3860  0.1547
 1776DOPS   D2B20839  12.812  11.423  12.363 -0.1819 -0.1390 -0.2051
 1776DOPS   C3B20840  13.213  11.376  12.207 -0.1126 -0.4313 -0.0044
 1776DOPS   C4B20841  13.493  11.497  11.839 -0.0168  0.1686 -0.2258
 1777DOPC   NC320842  21.450  23.159  12.446 -0.0340 -0.0112  0.2003
 1777DOPC   PO420843  21.115  23.059  12.250  0.0011  0.3739  0.1693
 1777DOPC   GL120844  20.988  23.292  11.888  0.0543  0.2123 -0.1650
 1777DOPC   GL220845  20.867  23.092  11.702 -0.0875  0.0446  0.0087
 1777DOPC   C1A20846  21.232  23.507  11.565 -0.1398 -0.0581  0.2397
 1777DOPC   D2A20847  21.487  23.328  11.283  0.0855 -0.0628 -0.0588
 1777DOPC   C3A20848  21.534  23.070  10.870  0.3978  0.0285 -0.1733
 1777DOPC   C4A20849  21.747  22.804  10.522  0.0534  0.1972  0.1397
 1777DOPC   C1B20850  20.793  23.426  11.363 -0.0677  0.0591 -0.0077
 1777DOPC   D2B20851  20.646  23.682  11.019  0.3020 -0.1377 -0.2292
 1777DOPC   C3B20852  20.410  23.872  10.611  0.2996  0.1040 -0.0253
 1777DOPC   C4B20853  20.518  23.744  10.165  0.1599  0.1635 -0.2226
 1778POSM   NC320854  20.333  15.621  12.229 -0.0528 -0.1291  0.2244
 1778POSM   PO420855  19.967  15.614  12.128 -0.1558  0.0801 -0.1755
 1778POSM   AM120856  20.068  15.494  11.851  0.1410  0.1841 -0.0458
 1778POSM   AM220857  19.971  15.322  11.631  0.2101 -0.1384  0.0657
 1778POSM   T1A20858  20.335  15.534  11.394  0.0757  0.1903  0.0779
 1778POSM   C2A20859  20.249  15.703  10.977 -0.2252 -0.0996 -0.0236
 1778POSM   C3A20860  20.016  15.397  10.654  0.0640 -0.3812 -0.2555
 1778POSM   C1B20861  19.829  15.470  11.339 -0.1220  0.1411 -0.0309
 1778POSM   D2B20862  19.717  15.673  10.930  0.1218 -0.1943 -0.0696
 1778POSM   C3B20863  19.807  16.083  10.863 -0.1862 -0.1073 -0.1018
 1778POSM   C4B20864  19.695  16.474  10.593  0.0897 -0.2816  0.0527
 1779DOPC   NC320865  14.983  12.151  12.596  0.1795  0.0581  0.2478
 1779DOPC   PO420866  14.972  12.432  12.329  0.1766 -0.1227  0.0624
 1779DOPC   GL120867  15.135  12.214  12.068 -0.2970  0.0034  0.3197
 1779DOPC   GL220868  15.409  12.256  12.175  0.3192 -0.0480  0.1220
 1779DOPC   C1A20869  14.952  12.159  11.635  0.0665 -0.0414 -0.0388
 1779DOPC   D2A20870  14.490  12.023  11.516 -0.0451 -0.0632 -0.1940
 1779DOPC   C3A20871  14.072  12.108  11.258  0.1433  0.1230  0.0275
 1779DOPC   C4A20872  13.621  12.154  11.101  0.4188  0.0284 -0.1379
 1779DOPC   C1B20873  15.495  12.256  11.727  0.0721 -0.0513  0.1065
 1779DOPC   D2B20874  15.336  12.146  11.243  0.2619  0.2402 -0.0247
 1779DOPC   C3B20875  15.079  12.461  10.985  0.0354  0.1100  0.0925
 1779DOPC   C4B20876  15.106  12.908  10.835  0.2644 -0.0724  0.1948
 1780DOPC   NC320877  19.386  11.310  12.325 -0.0457 -0.1391  0.0421
 1780DOPC   PO420878  19.535  11.681  12.325  0.3578 -0.3088  0.3941
 1780DOPC   GL120879  19.649  11.521  11.924  0.0402  0.1447  0.0248
 1780DOPC   GL220880  19.915  11.575  11.783 -0.0024  0.2304  0.0307
 1780DOPC   C1A20881  19.397  11.580  11.533 -0.0886 -0.0189  0.2119
 1780DOPC   D2A20882  19.431  11.626  11.110 -0.1374  0.2102  0.3598
 1780DOPC   C3A20883  19.500  12.005  10.827 -0.3673  0.0363 -0.2344
 1780DOPC   C4A20884  19.394  12.295  10.589  0.1007  0.1072 -0.0512
 1780DOPC   C1B20885  19.878  11.446  11.325  0.0787  0.1769  0.0920
 1780DOPC   D2B20886  20.109  11.416  10.883 -0.0233  0.2657  0.1693
 1780DOPC   C3B20887  19.728  11.334  10.671 -0.3614 -0.3326  0.3249
 1780DOPC   C4B20888  19.319  11.208  10.791  0.2437 -0.1285  0.1759
 1781DOPE   NH320889  15.412   9.900  13.151  0.1245 -0.1959 -0.1389
 1781DOPE   PO420890  15.402   9.666  13.463 -0.2184 -0.4578 -0.1392
 1781DOPE   GL120891  15.212   9.377  13.211 -0.2810  0.1081  0.0957
 1781DOPE   GL220892  14.980   9.590  13.112 -0.0059 -0.0473  0.1232
 1781DOPE   C1A20893  15.387   8.970  13.053 -0.0470  0.1437  0.1217
 1781DOPE   D2A20894  15.389   8.717  12.710 -0.0022 -0.0429  0.0692
 1781DOPE   C3A20895  15.114   8.766  12.367  0.0105 -0.0361  0.0175
 1781DOPE   C4A20896  15.126   8.620  11.938  0.0061  0.0039  0.0879
 1781DOPE   C1B20897  15.209   9.406  12.762 -0.0567  0.0781  0.1472
 1781DOPE   D2B20898  14.913   9.256  12.448  0.1734 -0.2827  0.1637
 1781DOPE   C3B20899  14.745   9.673  12.261 -0.0958 -0.0666  0.1233
 1781DOPE   C4B20900  14.340   9.866  12.143 -0.0499 -0.0033 -0.2823
 1782POSM   NC320901  19.742  12.135  12.423 -0.0446  0.4481  0.0693
 1782POSM   PO420902  19.980  11.853  12.241  0.2615 -0.1279  0.2525
 1782POSM   AM120903  20.165  11.915  11.972 -0.1051 -0.1047  0.1368
 1782POSM   AM220904  20.157  12.148  11.793 -0.0121 -0.1460 -0.1308
 1782POSM   T1A20905  20.246  11.776  11.441 -0.1512  0.1587 -0.0390
 1782POSM   C2A20906  20.470  11.725  11.040 -0.1021 -0.0393  0.2879
 1782POSM   C3A20907  20.578  11.791  10.556  0.0071 -0.2445 -0.1982
 1782POSM   C1B20908  20.066  12.423  11.653 -0.1484  0.2596  0.0399
 1782POSM   D2B20909  20.010  12.718  11.330  0.3766 -0.4330  0.0884
 1782POSM   C3B20910  20.407  12.905  11.160  0.2617  0.2044  0.0454
 1782POSM   C4B20911  20.840  12.952  11.093 -0.2299  0.1064  0.2581
 1783POSM   NC320912  14.441  19.373  12.989 -0.0652  0.1699  0.0195
 1783POSM   PO420913  14.442  19.237  12.594  0.3852 -0.0471 -0.2213
 1783POSM   AM120914  14.309  19.270  12.293 -0.2296  0.1354  0.2212
 1783POSM   AM220915  14.009  19.255  12.187 -0.1111 -0.1893  0.3254
 1783POSM   T1A20916  14.387  19.196  11.768  0.1926  0.3008  0.1393
 1783POSM   C2A20917  14.360  19.459  11.351  0.2748  0.0531 -0.0593
 1783POSM   C3A20918  14.363  19.387  10.913 -0.0451 -0.3205  0.0208
 1783POSM   C1B20919  13.934  19.043  11.889 -0.0747 -0.2524  0.0602
 1783POSM   D2B20920  14.174  18.747  11.569 -0.1060 -0.1131 -0.2697
 1783POSM   C3B20921  13.796  18.717  11.284  0.0533  0.0999 -0.1619
 1783POSM   C4B20922  13.445  18.769  11.035 -0.1911  0.0724  0.0446
 1784DOPE   NH320923  13.005  13.990  12.632 -0.0981  0.0250  0.0483
 1784DOPE   PO420924  12.685  13.906  12.695 -0.2492 -0.0719 -0.4136
 1784DOPE   GL120925  12.715  13.729  12.298  0.0498 -0.1804 -0.3145
 1784DOPE   GL220926  12.795  13.477  12.298 -0.2210 -0.0528  0.0358
 1784DOPE   C1A20927  12.577  13.652  11.906 -0.0616  0.1377 -0.0911
 1784DOPE   D2A20928  12.379  13.584  11.529 -0.1891  0.3716  0.0188
 1784DOPE   C3A20929  11.943  13.350  11.413  0.0688 -0.3810 -0.4466
 1784DOPE   C4A20930  11.585  13.132  11.206  0.2035 -0.1033  0.1839
 1784DOPE   C1B20931  12.509  13.124  12.251  0.1938 -0.3639 -0.0832
 1784DOPE   D2B20932  12.144  13.201  12.037  0.0982 -0.0402 -0.3555
 1784DOPE   C3B20933  12.404  13.098  11.691 -0.0949 -0.2740 -0.0667
 1784DOPE   C4B20934  12.470  12.698  11.461 -0.1315 -0.0562  0.0772
 1785POSM   NC320935  12.003  14.469  13.121 -0.1635 -0.1208  0.0318
 1785POSM   PO420936  11.612  14.527  13.235 -0.1375  0.0002  0.0170
 1785POSM   AM120937  11.495  14.508  12.957 -0.0037 -0.4556  0.1750
 1785POSM   AM220938  11.665  14.329  12.759  0.3333 -0.1708 -0.0750
 1785POSM   T1A20939  11.188  14.344  12.615 -0.1654 -0.1084 -0.0386
 1785POSM   C2A20940  11.003  14.007  12.430 -0.0468  0.2852  0.0163
 1785POSM   C3A20941  10.615  13.752  12.485 -0.0131 -0.0736  0.0158
 1785POSM   C1B20942  11.817  14.430  12.435  0.2296  0.3239 -0.2831
 1785POSM   D2B20943  11.956  14.418  11.978  0.2827 -0.1620 -0.2377
 1785POSM   C3B20944  11.831  14.570  11.585 -0.3452 -0.2240  0.1851
 1785POSM   C4B20945  11.972  14.435  11.101 -0.0571 -0.1065 -0.1110
 1786DOPE   NH320946  18.262  24.716  13.621 -0.1532  0.0452  0.0099
 1786DOPE   PO420947  18.123  25.007  13.670 -0.0304  0.0695 -0.1119
 1786DOPE   GL120948  18.197  24.974  13.258 -0.1518  0.0157  0.0740
 1786DOPE   GL220949  18.021  24.736  13.193 -0.2533 -0.0808  0.1513
 1786DOPE   C1A20950  18.155  25.153  12.816  0.3381 -0.2992 -0.4076
 1786DOPE   D2A20951  18.039  25.566  12.647  0.2397 -0.3078 -0.2204
 1786DOPE   C3A20952  17.925  25.462  12.185 -0.0273 -0.4078  0.1983
 1786DOPE   C4A20953  17.825  25.345  11.723  0.1032  0.1131 -0.1073
 1786DOPE   C1B20954  17.678  24.885  12.935  0.1053  0.0194  0.4910
 1786DOPE   D2B20955  17.744  25.186  12.608  0.2079 -0.1584 -0.0240
 1786DOPE   C3B20956  17.466  25.282  12.196 -0.0463  0.1931  0.3207
 1786DOPE   C4B20957  17.174  25.200  11.880 -0.2334  0.0857  0.1950
 1787POSM   NC320958  12.324  17.759  12.720 -0.1246 -0.0305 -0.1220
 1787POSM   PO420959  12.020  17.564  12.638 -0.0508  0.4146  0.1692
 1787POSM   AM120960  11.895  17.550  12.343 -0.4755  0.0568  0.0004
 1787POSM   AM220961  11.869  17.703  12.122 -0.1032  0.1959  0.0749
 1787POSM   T1A20962  11.740  17.219  11.977 -0.0859 -0.1419  0.0290
 1787POSM   C2A20963  11.903  16.806  11.959  0.5549 -0.1565  0.0858
 1787POSM   C3A20964  11.907  16.370  11.763 -0.2662 -0.1718  0.2524
 1787POSM   C1B20965  11.912  17.691  11.798  0.2014  0.0901  0.1119
 1787POSM   D2B20966  12.130  17.928  11.451 -0.1941  0.3209  0.1126
 1787POSM   C3B20967  11.674  18.022  11.309 -0.0901  0.1501  0.2032
 1787POSM   C4B20968  11.424  17.716  11.114  0.2319  0.1773  0.3241
 1788DOPS   CNO20969  21.405  12.604  12.777 -0.1960 -0.2378 -0.1018
 1788DOPS   PO420970  21.687  12.398  12.582  0.2273 -0.2204  0.0123
 1788DOPS   GL120971  21.598  12.174  12.243 -0.1514 -0.0988 -0.2240
 1788DOPS   GL220972  21.688  11.909  12.154 -0.0669  0.1495 -0.0201
 1788DOPS   C1A20973  21.566  12.224  11.804 -0.0667 -0.1228  0.1099
 1788DOPS   D2A20974  21.511  12.036  11.347  0.0020 -0.2006  0.1848
 1788DOPS   C3A20975  21.742  12.130  10.979  0.0028  0.0823 -0.0796
 1788DOPS   C4A20976  21.807  12.321  10.552  0.1794  0.1964  0.0156
 1788DOPS   C1B20977  21.959  11.901  11.746 -0.4852  0.1994 -0.0468
 1788DOPS   D2B20978  22.095  11.896  11.326  0.0608 -0.0308 -0.0597
 1788DOPS   C3B20979  22.284  12.299  11.169  0.3299 -0.0685 -0.0524
 1788DOPS   C4B20980  21.957  12.554  11.042  0.1919  0.0487  0.5480
 1789DOPC   NC320981  17.513  22.087  12.371  0.0029 -0.1754  0.1680
 1789DOPC   PO420982  17.272  22.403  12.313  0.2533 -0.1421 -0.1387
 1789DOPC   GL120983  17.010  22.386  12.092 -0.2836 -0.0386  0.3803
 1789DOPC   GL220984  17.046  22.498  11.813  0.1701 -0.0599  0.2190
 1789DOPC   C1A20985  16.732  22.078  11.834 -0.1773 -0.2221  0.2913
 1789DOPC   D2A20986  16.354  22.065  11.518 -0.1197  0.0416 -0.0852
 1789DOPC   C3A20987  16.525  22.213  11.102  0.0064 -0.0120 -0.3126
 1789DOPC   C4A20988  16.570  22.596  10.826  0.1649  0.0501 -0.1739
 1789DOPC   C1B20989  16.926  22.292  11.402 -0.2403  0.0796 -0.1884
 1789DOPC   D2B20990  17.071  22.198  10.993  0.0011 -0.0916  0.0724
 1789DOPC   C3B20991  17.543  22.218  10.944  0.1520  0.1917 -0.4697
 1789DOPC   C4B20992  17.919  22.012  10.738  0.0257 -0.2503 -0.2234
 1790DOPS   CNO20993  12.290  22.339  13.168 -0.0864  0.0920 -0.4524
 1790DOPS   PO420994  12.445  22.614  13.178  0.0285  0.0929  0.0143
 1790DOPS   GL120995  12.654  22.769  12.887  0.3357 -0.0017 -0.1641
 1790DOPS   GL220996  12.558  23.059  12.792  0.0653  0.1052  0.0486
 1790DOPS   C1A20997  12.988  22.747  12.523  0.4184  0.0806 -0.1017
 1790DOPS   D2A20998  13.368  22.757  12.346 -0.2728 -0.4867 -0.0951
 1790DOPS   C3A20999  13.500  22.645  11.955  0.1113  0.2795  0.0941
 1790DOPS   C4A21000  13.527  22.658  11.461 -0.1860  0.0224  0.1780
 1790DOPS   C1B21001  12.681  23.200  12.385 -0.0513  0.0047 -0.0779
 1790DOPS   D2B21002  12.895  22.945  12.014  0.0934  0.1393 -0.4162
 1790DOPS   C3B21003  12.786  23.162  11.588  0.1566  0.2140 -0.0158
 1790DOPS   C4B21004  13.102  23.143  11.224 -0.2393  0.1816  0.1042
 1791DOPE   NH321005  20.968  21.835  11.893 -0.2621  0.1489 -0.2220
 1791DOPE   PO421006  20.727  21.640  11.996 -0.2375 -0.3150 -0.0575
 1791DOPE   GL121007  20.763  21.481  11.659  0.2196 -0.1526  0.2218
 1791DOPE   GL221008  21.037  21.515  11.521  0.2006  0.3973 -0.1194
 1791DOPE   C1A21009  20.460  21.635  11.376 -0.1218  0.0555 -0.0256
 1791DOPE   D2A21010  20.277  21.492  11.011  0.1922  0.0864  0.1544
 1791DOPE   C3A21011  20.409  21.192  10.648 -0.1425  0.3144  0.1993
 1791DOPE   C4A21012  20.472  20.850  10.355 -0.0114 -0.0593 -0.0979
 1791DOPE   C1B21013  21.264  21.099  11.574  0.1508 -0.0849  0.0770
 1791DOPE   D2B21014  21.175  20.648  11.617  0.0087  0.2315  0.1607
 1791DOPE   C3B21015  21.413  20.370  11.291 -0.1144 -0.0320 -0.0676
 1791DOPE   C4B21016  21.800  20.207  11.165 -0.0583 -0.1017 -0.1781
 1792DOPC   NC321017  13.810  17.663  12.210 -0.1313 -0.0877 -0.2055
 1792DOPC   PO421018  13.736  17.938  12.455  0.0472  0.2188  0.1535
 1792DOPC   GL121019  13.510  18.009  12.128  0.4264 -0.0770  0.1966
 1792DOPC   GL221020  13.266  18.089  12.150 -0.0877 -0.2120  0.2428
 1792DOPC   C1A21021  13.568  17.840  11.655 -0.1113 -0.0093  0.0966
 1792DOPC   D2A21022  13.286  17.686  11.341  0.1331  0.2372  0.2659
 1792DOPC   C3A21023  13.179  17.519  10.934 -0.4179 -0.2659  0.1982
 1792DOPC   C4A21024  13.302  17.190  10.651  0.0828 -0.0453 -0.1704
 1792DOPC   C1B21025  13.057  18.019  11.710 -0.0229  0.2834 -0.0563
 1792DOPC   D2B21026  12.812  17.771  11.330  0.0100 -0.2161  0.0057
 1792DOPC   C3B21027  12.969  17.984  10.990  0.0668  0.1356 -0.3979
 1792DOPC   C4B21028  13.230  18.302  10.639  0.1951 -0.2510  0.0840
 1793DOPS   CNO21029   9.588  14.497  14.060 -0.1548 -0.0138  0.0289
 1793DOPS   PO421030   9.679  14.369  13.730  0.1733 -0.0850 -0.1362
 1793DOPS   GL121031   9.576  14.204  13.385 -0.2159 -0.0290  0.1814
 1793DOPS   GL221032   9.228  14.225  13.336 -0.2123 -0.2995 -0.0440
 1793DOPS   C1A21033   9.972  14.070  13.195 -0.0485  0.3343 -0.0628
 1793DOPS   D2A21034  10.201  13.934  12.871 -0.3610 -0.1084  0.1462
 1793DOPS   C3A21035  10.009  13.659  12.433 -0.2856 -0.0180  0.0366
 1793DOPS   C4A21036   9.764  13.545  12.046 -0.0113  0.2685  0.0274
 1793DOPS   C1B21037   9.429  13.988  12.982 -0.0519  0.0403  0.2404
 1793DOPS   D2B21038   9.516  13.667  12.646  0.0995  0.3935 -0.3357
 1793DOPS   C3B21039   9.520  13.915  12.222 -0.2044  0.0572  0.0220
 1793DOPS   C4B21040   9.553  14.293  11.985  0.0093  0.1768  0.1194
 1794DOPC   NC321041  13.800  14.161  12.477  0.1082 -0.0696 -0.0061
 1794DOPC   PO421042  13.467  14.294  12.525 -0.0993 -0.0400 -0.3546
 1794DOPC   GL121043  13.395  13.956  12.258 -0.0037 -0.3248 -0.1341
 1794DOPC   GL221044  13.114  13.894  12.132 -0.0759  0.1689 -0.2431
 1794DOPC   C1A21045  13.605  13.790  11.828  0.1661 -0.2700 -0.3599
 1794DOPC   D2A21046  13.485  13.923  11.374 -0.0727 -0.1718  0.0437
 1794DOPC   C3A21047  13.078  14.128  11.292 -0.0034 -0.3007  0.2704
 1794DOPC   C4A21048  13.002  14.510  11.075 -0.0926 -0.1176  0.1614
 1794DOPC   C1B21049  13.393  14.228  11.826 -0.1014  0.0685 -0.3698
 1794DOPC   D2B21050  13.812  14.234  11.665  0.0275  0.0264  0.0906
 1794DOPC   C3B21051  14.043  14.312  11.261 -0.1453  0.0890  0.1354
 1794DOPC   C4B21052  14.222  14.231  10.878 -0.0119 -0.0243  0.4527
 1795DOPE   NH321053  21.283  19.864  12.102  0.2951 -0.0023 -0.5367
 1795DOPE   PO421054  21.224  20.138  12.221  0.1371  0.1900 -0.2954
 1795DOPE   GL121055  21.158  20.173  11.766 -0.2526 -0.0940  0.0250
 1795DOPE   GL221056  20.932  20.026  11.760 -0.0236  0.1191 -0.1400
 1795DOPE   C1A21057  20.967  20.283  11.331 -0.4624 -0.1901  0.1630
 1795DOPE   D2A21058  20.560  20.441  11.173  0.0701  0.1911  0.2760
 1795DOPE   C3A21059  20.558  20.507  10.711 -0.2555 -0.0376 -0.2509
 1795DOPE   C4A21060  20.581  20.326  10.285 -0.0875  0.0172  0.1418
 1795DOPE   C1B21061  21.104  19.842  11.402 -0.2151 -0.0482 -0.1919
 1795DOPE   D2B21062  21.072  19.610  10.960  0.3824  0.0398  0.2184
 1795DOPE   C3B21063  20.988  19.514  10.557  0.0906 -0.1166 -0.0230
 1795DOPE   C4B21064  20.766  19.832  10.210 -0.0288 -0.0122 -0.0945
 1796POSM   NC321065  18.284  19.457  11.889 -0.1485  0.0064  0.0074
 1796POSM   PO421066  18.630  19.606  11.843  0.2051  0.0084  0.1855
 1796POSM   AM121067  18.787  19.689  11.535  0.0052 -0.0866  0.2308
 1796POSM   AM221068  19.019  19.802  11.432  0.1083  0.3583 -0.0075
 1796POSM   T1A21069  18.771  19.661  11.050  0.0386  0.1633  0.0541
 1796POSM   C2A21070  18.704  19.855  10.668  0.1631 -0.0610 -0.0573
 1796POSM   C3A21071  18.763  20.099  10.316  0.2961 -0.0080  0.1264
 1796POSM   C1B21072  19.268  19.908  11.223  0.0590 -0.3005 -0.1490
 1796POSM   D2B21073  19.574  19.885  10.893 -0.0711 -0.0662  0.2670
 1796POSM   C3B21074  19.711  20.282  10.664  0.0682 -0.1704 -0.2898
 1796POSM   C4B21075  19.551  20.441  10.261 -0.4233 -0.1050 -0.3195
 1797DOPE   NH321076  16.399  21.741  12.404 -0.1719 -0.2005  0.2208
 1797DOPE   PO421077  16.102  21.806  12.357  0.1852 -0.2356 -0.2826
 1797DOPE   GL121078  15.945  21.797  12.063 -0.3162 -0.0183  0.0803
 1797DOPE   GL221079  15.824  22.019  11.895  0.1067  0.1300 -0.2889
 1797DOPE   C1A21080  15.993  21.739  11.544 -0.0336 -0.1294 -0.0867
 1797DOPE   D2A21081  16.287  21.666  11.156 -0.0654 -0.1370 -0.1176
 1797DOPE   C3A21082  16.299  21.957  10.785  0.2623  0.3230  0.1975
 1797DOPE   C4A21083  16.247  22.315  10.526  0.2593  0.0788 -0.3247
 1797DOPE   C1B21084  15.501  21.876  11.638 -0.0060  0.2222 -0.1113
 1797DOPE   D2B21085  15.522  21.567  11.339  0.1703 -0.0001  0.0688
 1797DOPE   C3B21086  15.370  21.426  10.928  0.0802 -0.1270  0.1256
 1797DOPE   C4B21087  15.264  21.520  10.504 -0.0119 -0.1611  0.1173
 1798POSM   NC321088  18.292  20.434  11.663 -0.1315  0.0589 -0.2562
 1798POSM   PO421089  18.610  20.610  11.839  0.0795 -0.3688  0.0604
 1798POSM   AM121090  18.715  20.638  11.546 -0.2684  0.0752 -0.3492
 1798POSM   AM221091  18.824  20.823  11.384  0.0806  0.1962 -0.0609
 1798POSM   T1A21092  18.495  20.645  11.092 -0.2284 -0.0006 -0.3419
 1798POSM   C2A21093  18.172  20.542  10.807 -0.0130 -0.1637 -0.2129
 1798POSM   C3A21094  17.763  20.433  10.631 -0.0964 -0.1192 -0.2361
 1798POSM   C1B21095  18.983  20.647  11.111 -0.2078  0.1772  0.0613
 1798POSM   D2B21096  19.221  20.419  10.779 -0.1286 -0.1565 -0.1309
 1798POSM   C3B21097  19.274  20.062  10.508  0.0604  0.1739 -0.3405
 1798POSM   C4B21098  19.080  19.676  10.400  0.0163 -0.0060  0.1834
 1799DOPC   NC321099  18.341  15.231  11.790  0.1473 -0.0185  0.0317
 1799DOPC   PO421100  18.101  15.065  12.006  0.3285  0.0968  0.4291
 1799DOPC   GL121101  17.938  15.121  11.573 -0.0477 -0.1741 -0.1465
 1799DOPC   GL221102  18.071  14.942  11.411 -0.0475 -0.1179 -0.2272
 1799DOPC   C1A21103  17.816  15.415  11.237  0.0579  0.0651 -0.2714
 1799DOPC   D2A21104  17.557  15.369  10.848  0.1937 -0.1550  0.0112
 1799DOPC   C3A21105  17.511  15.623  10.462  0.0398 -0.3404  0.1153
 1799DOPC   C4A21106  17.474  15.773  10.019  0.0537 -0.1545 -0.1173
 1799DOPC   C1B21107  17.865  14.496  11.414  0.0923  0.0365 -0.1612
 1799DOPC   D2B21108  17.852  14.032  11.356 -0.0154 -0.3125  0.0962
 1799DOPC   C3B21109  17.750  13.888  10.910  0.2420  0.0234 -0.2393
 1799DOPC   C4B21110  17.906  13.782  10.452  0.0522 -0.2312 -0.2944
 1800DOPE   NH321111  18.463  21.957  12.172  0.0110 -0.0359  0.7273
 1800DOPE   PO421112  18.485  22.291  12.172 -0.2146  0.1289  0.1957
 1800DOPE   GL121113  18.283  22.429  11.892  0.1572 -0.0676  0.2323
 1800DOPE   GL221114  18.032  22.346  11.773  0.0762  0.0725 -0.0751
 1800DOPE   C1A21115  18.179  22.824  11.669 -0.1692 -0.0389 -0.2668
 1800DOPE   D2A21116  18.095  23.187  11.423  0.0012  0.0260 -0.0453
 1800DOPE   C3A21117  18.049  23.387  10.966  0.5347  0.1247 -0.0951
 1800DOPE   C4A21118  18.068  23.284  10.517  0.0955  0.3678  0.2953
 1800DOPE   C1B21119  17.831  22.616  11.401 -0.0011  0.0536  0.4287
 1800DOPE   D2B21120  17.765  22.972  11.110  0.3624  0.0737 -0.1554
 1800DOPE   C3B21121  17.628  22.932  10.660  0.0435  0.1235 -0.1129
 1800DOPE   C4B21122  17.687  23.046  10.201  0.1042  0.2951 -0.1773
 1801POSM   NC321123  17.156  11.013  12.591 -0.2775 -0.1410  0.1214
 1801POSM   PO421124  16.913  10.733  12.658  0.4031  0.1139  0.1648
 1801POSM   AM121125  16.902  10.676  12.330 -0.2445  0.4671 -0.3903
 1801POSM   AM221126  16.659  10.641  12.199  0.3101 -0.0225 -0.0289
 1801POSM   T1A21127  17.159  10.450  11.941 -0.2396  0.1161 -0.4167
 1801POSM   C2A21128  17.312  10.058  11.756  0.0048  0.0922  0.1184
 1801POSM   C3A21129  17.347   9.733  11.431 -0.1078  0.0331 -0.0849
 1801POSM   C1B21130  16.587  10.633  11.862  0.2014 -0.1514  0.2469
 1801POSM   D2B21131  16.902  10.601  11.535  0.3019 -0.1688 -0.2693
 1801POSM   C3B21132  16.919  10.817  11.144 -0.1994  0.0187 -0.2178
 1801POSM   C4B21133  17.014  11.248  10.957  0.0385 -0.1337  0.2370
 1802DOPE   NH321134  19.691  21.489  12.341 -0.0388 -0.0353 -0.2534
 1802DOPE   PO421135  19.955  21.653  12.341  0.1601 -0.0113  0.0557
 1802DOPE   GL121136  19.885  21.850  12.006 -0.1759  0.4227  0.1495
 1802DOPE   GL221137  19.756  21.638  11.840  0.1390  0.0888  0.0367
 1802DOPE   C1A21138  20.027  21.924  11.532  0.0546  0.0220 -0.0110
 1802DOPE   D2A21139  20.170  22.089  11.120  0.0678 -0.1159  0.0547
 1802DOPE   C3A21140  20.498  21.992  10.860  0.1518 -0.3288  0.0481
 1802DOPE   C4A21141  20.664  21.693  10.510 -0.2496 -0.1240 -0.1229
 1802DOPE   C1B21142  20.016  21.415  11.524  0.0355  0.0811  0.1323
 1802DOPE   D2B21143  20.353  21.126  11.374  0.1708  0.1418 -0.2469
 1802DOPE   C3B21144  20.295  20.842  11.043 -0.4526 -0.0679  0.0259
 1802DOPE   C4B21145  20.094  20.686  10.673 -0.0328 -0.2852 -0.1476
 1803DOPE   NH321146  12.074  17.130  12.387  0.0460 -0.2008  0.1386
 1803DOPE   PO421147  12.280  16.857  12.296 -0.0431 -0.1136 -0.0474
 1803DOPE   GL121148  12.303  16.630  11.918 -0.0110 -0.1133  0.2671
 1803DOPE   GL221149  12.476  16.414  11.969  0.0728  0.0410  0.3673
 1803DOPE   C1A21150  12.282  16.539  11.468 -0.4599  0.2200  0.1402
 1803DOPE   D2A21151  12.190  16.591  11.031 -0.2274 -0.0101  0.5731
 1803DOPE   C3A21152  11.952  16.332  10.763 -0.1303  0.4317 -0.0376
 1803DOPE   C4A21153  11.633  16.027  10.656 -0.2114 -0.1670 -0.2961
 1803DOPE   C1B21154  12.192  16.056  11.973 -0.0459  0.1623 -0.0165
 1803DOPE   D2B21155  11.989  15.886  11.624 -0.1303 -0.0101 -0.0466
 1803DOPE   C3B21156  11.533  16.074  11.636 -0.1207 -0.0879  0.2456
 1803DOPE   C4B21157  11.273  16.247  11.386  0.1298 -0.0371 -0.0076
 1804DOPE   NH321158  21.713  17.629  11.849 -0.1496  0.2120  0.1323
 1804DOPE   PO421159  21.735  17.312  11.913  0.0590  0.3998  0.2652
 1804DOPE   GL121160  21.754  17.302  11.552  0.0607 -0.1231  0.1107
 1804DOPE   GL221161  21.498  17.209  11.381 -0.1420  0.0530  0.1346
 1804DOPE   C1A21162  21.810  17.385  11.056  0.1575  0.3312  0.1604
 1804DOPE   D2A21163  21.954  17.635  10.739  0.0940 -0.0307  0.1905
 1804DOPE   C3A21164  21.813  18.080  10.696 -0.0823  0.1199  0.2286
 1804DOPE   C4A21165  21.657  18.361  10.311 -0.2867  0.3412  0.2388
 1804DOPE   C1B21166  21.138  17.272  11.065 -0.4925  0.1511 -0.1115
 1804DOPE   D2B21167  20.913  17.405  10.669 -0.1106 -0.0193  0.1627
 1804DOPE   C3B21168  20.788  16.956  10.775 -0.0978 -0.1503  0.0611
 1804DOPE   C4B21169  20.685  16.515  10.627  0.0768 -0.0841 -0.0892
 1805DOPE   NH321170  12.544  12.512  13.767 -0.0641  0.1427 -0.1263
 1805DOPE   PO421171  12.563  12.371  13.462  0.1362  0.1414 -0.0141
 1805DOPE   GL121172  12.357  12.044  13.137 -0.1093  0.1498  0.1675
 1805DOPE   GL221173  12.215  11.921  13.272 -0.1671 -0.0582  0.2255
 1805DOPE   C1A21174  12.421  11.865  12.705  0.0883 -0.1785 -0.0757
 1805DOPE   D2A21175  12.722  11.955  12.377  0.0485  0.1034 -0.0796
 1805DOPE   C3A21176  12.645  11.719  11.958  0.0693  0.0997  0.2629
 1805DOPE   C4A21177  12.566  11.720  11.509 -0.2016  0.4204 -0.0428
 1805DOPE   C1B21178  11.913  12.131  12.998 -0.0562  0.0252  0.0425
 1805DOPE   D2B21179  11.783  12.336  12.574  0.0578 -0.2070 -0.2544
 1805DOPE   C3B21180  11.799  11.926  12.353  0.0181  0.1139 -0.0772
 1805DOPE   C4B21181  11.712  11.475  12.496 -0.1355 -0.2974  0.1740
 1806POSM   NC321182  20.631  13.133  12.194  0.0201 -0.1291 -0.1527
 1806POSM   PO421183  20.942  13.354  12.299 -0.2316  0.0052 -0.0062
 1806POSM   AM121184  21.010  13.432  12.010 -0.1017  0.0952 -0.1182
 1806POSM   AM221185  20.912  13.422  11.744  0.0585 -0.1130  0.0928
 1806POSM   T1A21186  21.365  13.461  11.674  0.3435  0.0076 -0.0504
 1806POSM   C2A21187  21.686  13.370  11.425 -0.1447 -0.2193  0.0583
 1806POSM   C3A21188  22.005  13.549  11.123  0.0843 -0.0203 -0.1695
 1806POSM   C1B21189  20.888  13.437  11.425  0.1506  0.0837 -0.0328
 1806POSM   D2B21190  20.973  13.600  11.006 -0.0421 -0.1215 -0.2391
 1806POSM   C3B21191  20.914  14.058  10.970 -0.2683 -0.5422  0.0278
 1806POSM   C4B21192  20.959  14.400  10.708 -0.0869  0.3817  0.0873
 1807DOPE   NH321193  22.317  19.482  12.359 -0.0546 -0.0155 -0.1160
 1807DOPE   PO421194  22.145  19.662  12.209  0.1126 -0.3458  0.3158
 1807DOPE   GL121195  22.134  19.758  11.838 -0.3361  0.0680 -0.0869
 1807DOPE   GL221196  21.885  19.822  11.801  0.0880  0.0713  0.0673
 1807DOPE   C1A21197  22.113  19.561  11.421 -0.4183  0.1752  0.2244
 1807DOPE   D2A21198  22.358  19.311  11.070 -0.0190 -0.1208  0.0127
 1807DOPE   C3A21199  22.135  18.990  10.822  0.0308 -0.2219 -0.0829
 1807DOPE   C4A21200  22.124  18.729  10.445 -0.1257  0.2255 -0.2779
 1807DOPE   C1B21201  22.147  20.127  11.547 -0.1025  0.2952 -0.0406
 1807DOPE   D2B21202  22.222  20.414  11.172  0.1150  0.0358 -0.2271
 1807DOPE   C3B21203  22.578  20.394  10.755 -0.1631 -0.0701 -0.2370
 1807DOPE   C4B21204  22.912  20.516  10.547 -0.1570  0.0940  0.0501
 1808DOPE   NH321205  20.072  22.982  12.495 -0.0654  0.1198 -0.0200
 1808DOPE   PO421206  20.012  23.268  12.598 -0.0853  0.5744  0.1174
 1808DOPE   GL121207  20.044  23.431  12.260  0.4701 -0.2917  0.0430
 1808DOPE   GL221208  20.271  23.666  12.228  0.0348 -0.3248 -0.1814
 1808DOPE   C1A21209  19.832  23.311  11.820  0.0860  0.1709  0.0344
 1808DOPE   D2A21210  19.950  22.989  11.463  0.0188  0.0988 -0.1517
 1808DOPE   C3A21211  20.013  23.034  10.967  0.1548 -0.0503 -0.3335
 1808DOPE   C4A21212  19.925  23.154  10.521  0.1483  0.1951  0.0872
 1808DOPE   C1B21213  20.083  23.780  11.753 -0.0862 -0.0197  0.1367
 1808DOPE   D2B21214  19.747  23.702  11.455 -0.0438 -0.0095 -0.0428
 1808DOPE   C3B21215  19.629  24.126  11.419  0.0161 -0.0123 -0.0786
 1808DOPE   C4B21216  19.194  24.310  11.450  0.1664 -0.1998  0.0859
 1809POSM   NC321217  19.635  13.852  12.089 -0.0102 -0.0815 -0.1135
 1809POSM   PO421218  19.443  14.157  11.909 -0.3726 -0.1269  0.1750
 1809POSM   AM121219  19.507  14.295  11.623  0.4328  0.1252 -0.0539
 1809POSM   AM221220  19.531  14.533  11.458 -0.1740  0.0025 -0.0386
 1809POSM   T1A21221  19.688  14.159  11.190  0.0453  0.0336  0.0047
 1809POSM   C2A21222  19.561  13.967  10.828 -0.1998  0.2145  0.1485
 1809POSM   C3A21223  19.703  13.619  10.553 -0.0640  0.0675  0.0266
 1809POSM   C1B21224  19.622  14.766  11.224  0.4409  0.1624  0.3004
 1809POSM   D2B21225  19.833  15.070  10.925  0.1748 -0.0448 -0.1546
 1809POSM   C3B21226  19.705  15.070  10.479 -0.1113 -0.1237 -0.1559
 1809POSM   C4B21227  19.679  15.286  10.060  0.2103 -0.2367 -0.1036
 1810DOPC   NC321228  16.359  19.492  11.879  0.1104 -0.4525  0.2399
 1810DOPC   PO421229  16.163  19.555  12.205 -0.0599 -0.2302 -0.1908
 1810DOPC   GL121230  15.867  19.546  11.893  0.1056  0.4364  0.0780
 1810DOPC   GL221231  15.537  19.452  11.829  0.1467  0.0065  0.1063
 1810DOPC   C1A21232  15.874  19.476  11.434  0.1367 -0.2787 -0.1006
 1810DOPC   D2A21233  16.082  19.551  11.049  0.2592  0.0890  0.2486
 1810DOPC   C3A21234  16.006  19.376  10.686 -0.2743  0.0579 -0.1206
 1810DOPC   C4A21235  16.113  19.169  10.227 -0.1535  0.2102 -0.0139
 1810DOPC   C1B21236  15.439  19.737  11.432  0.4505  0.1433 -0.3118
 1810DOPC   D2B21237  15.728  19.904  11.121  0.0541 -0.1864 -0.0401
 1810DOPC   C3B21238  15.688  19.771  10.711 -0.0010  0.1868 -0.0727
 1810DOPC   C4B21239  15.523  19.576  10.351 -0.1547  0.0848  0.1541
 1811DOPE   NH321240  12.538  14.838  12.750 -0.2624 -0.0235 -0.0801
 1811DOPE   PO421241  12.430  14.883  12.465  0.1183 -0.1320  0.1345
 1811DOPE   GL121242  12.287  14.620  12.214  0.3121  0.0833  0.0141
 1811DOPE   GL221243  12.436  14.349  12.251 -0.2460  0.0578 -0.0747
 1811DOPE   C1A21244  12.076  14.872  11.835 -0.1784  0.0556 -0.2237
 1811DOPE   D2A21245  12.007  15.052  11.383 -0.2893 -0.1220  0.0667
 1811DOPE   C3A21246  12.036  14.916  10.956 -0.0512  0.3888 -0.0158
 1811DOPE   C4A21247  11.997  14.628  10.569 -0.1593  0.1347 -0.0125
 1811DOPE   C1B21248  12.421  14.378  11.819  0.0156  0.1550 -0.1659
 1811DOPE   D2B21249  12.338  14.602  11.443  0.1469 -0.0570 -0.0201
 1811DOPE   C3B21250  12.472  14.557  10.952  0.1171  0.1997  0.0005
 1811DOPE   C4B21251  12.664  14.856  10.694 -0.0887  0.3334  0.0671
 1812DOPC   NC321252  22.069  16.095  12.060  0.1272 -0.3348  0.1293
 1812DOPC   PO421253  21.916  15.752  12.006 -0.1765 -0.2904  0.0583
 1812DOPC   GL121254  21.962  15.838  11.570 -0.1641 -0.1151 -0.0590
 1812DOPC   GL221255  21.709  15.953  11.493  0.0110 -0.0136 -0.1587
 1812DOPC   C1A21256  21.964  15.495  11.283  0.5073 -0.0195  0.1604
 1812DOPC   D2A21257  22.166  15.371  10.855  0.0163 -0.1157 -0.2167
 1812DOPC   C3A21258  22.078  15.593  10.443 -0.1507 -0.1166  0.2659
 1812DOPC   C4A21259  21.728  15.602  10.148 -0.0984 -0.0585  0.0229
 1812DOPC   C1B21260  21.726  16.383  11.636  0.1006 -0.2450 -0.0944
 1812DOPC   D2B21261  21.828  16.824  11.663 -0.0523 -0.0032  0.2094
 1812DOPC   C3B21262  22.056  17.058  11.350  0.2364 -0.1039  0.0851
 1812DOPC   C4B21263  22.362  17.349  11.129 -0.1341  0.1753  0.3290
 1813POSM   NC321264  12.485  11.878  14.162  0.1958  0.0085  0.1325
 1813POSM   PO421265  12.302  12.156  13.970  0.4395  0.0340  0.2254
 1813POSM   AM121266  12.127  11.922  13.805  0.1040 -0.2457  0.0192
 1813POSM   AM221267  11.895  11.829  13.777  0.0905 -0.1594 -0.3221
 1813POSM   T1A21268  12.081  11.536  13.493  0.0379  0.2249  0.2016
 1813POSM   C2A21269  12.034  11.145  13.196 -0.1282 -0.1506 -0.3565
 1813POSM   C3A21270  11.786  10.696  13.052  0.1492 -0.1333  0.3523
 1813POSM   C1B21271  11.714  11.932  13.487 -0.1326 -0.1634  0.0798
 1813POSM   D2B21272  11.410  12.103  13.182  0.0601 -0.1456 -0.2087
 1813POSM   C3B21273  11.157  11.813  13.421 -0.0143  0.0602  0.1574
 1813POSM   C4B21274  10.883  11.534  13.781  0.0119 -0.3012  0.0582
 1814DOPE   NH321275  20.097  14.146  12.288 -0.0802  0.0834 -0.0131
 1814DOPE   PO421276  20.131  13.856  12.140  0.1445 -0.1504  0.1712
 1814DOPE   GL121277  20.292  13.876  11.809 -0.3009  0.1064  0.1145
 1814DOPE   GL221278  20.563  13.834  11.839  0.0032  0.0281  0.0243
 1814DOPE   C1A21279  20.147  13.931  11.375 -0.1870 -0.2296  0.2471
 1814DOPE   D2A21280  19.973  13.671  11.097 -0.0388  0.0581  0.0460
 1814DOPE   C3A21281  19.571  13.706  11.239 -0.0457  0.0027 -0.0135
 1814DOPE   C4A21282  19.209  13.933  11.146  0.1669  0.2089 -0.2480
 1814DOPE   C1B21283  20.645  13.916  11.412 -0.2265  0.1998 -0.1355
 1814DOPE   D2B21284  20.474  13.823  11.017 -0.1017 -0.1601 -0.2325
 1814DOPE   C3B21285  20.131  14.127  10.860 -0.1137 -0.0221  0.0760
 1814DOPE   C4B21286  20.250  14.399  10.428  0.1586  0.0396 -0.1193
 1815DOPE   NH321287  21.696  13.809  12.710 -0.0253 -0.0491 -0.2307
 1815DOPE   PO421288  21.831  14.067  12.617 -0.0412 -0.1861 -0.0644
 1815DOPE   GL121289  22.059  14.150  12.271 -0.0210 -0.0159 -0.2404
 1815DOPE   GL221290  22.194  13.979  12.157 -0.2569 -0.0642  0.3142
 1815DOPE   C1A21291  21.912  14.283  11.872  0.0562 -0.0604 -0.0729
 1815DOPE   D2A21292  21.980  14.466  11.397  0.0442  0.2818 -0.0658
 1815DOPE   C3A21293  21.672  14.813  11.504 -0.0123  0.1513 -0.0193
 1815DOPE   C4A21294  21.711  15.166  11.690 -0.0849 -0.1361  0.1484
 1815DOPE   C1B21295  22.091  13.810  11.767  0.1084 -0.1986 -0.2404
 1815DOPE   D2B21296  22.172  13.355  11.578  0.0621 -0.0821 -0.3241
 1815DOPE   C3B21297  22.524  13.284  11.229  0.0173 -0.2417 -0.1520
 1815DOPE   C4B21298  22.907  13.352  11.029  0.2940 -0.0363 -0.1378
 1816POSM   NC321299  15.813  10.829  12.511  0.0177 -0.1374  0.0631
 1816POSM   PO421300  15.900  10.463  12.475 -0.1157  0.0980 -0.0101
 1816POSM   AM121301  16.122  10.413  12.264 -0.0051  0.3395  0.0439
 1816POSM   AM221302  16.139  10.458  12.014  0.0571 -0.2449 -0.1386
 1816POSM   T1A21303  16.519  10.101  12.173 -0.2113  0.2564 -0.0203
 1816POSM   C2A21304  16.774  10.094  11.857 -0.2196 -0.0091 -0.2645
 1816POSM   C3A21305  16.935  10.009  11.432  0.1022 -0.0396  0.3901
 1816POSM   C1B21306  15.948  10.408  11.745 -0.1435  0.3406 -0.1650
 1816POSM   D2B21307  15.889  10.631  11.358 -0.2098  0.1066 -0.2207
 1816POSM   C3B21308  15.443  10.673  11.345 -0.2786  0.0897 -0.1210
 1816POSM   C4B21309  15.048  10.795  11.123 -0.1286 -0.0851 -0.0667
 1817DOPS   CNO21310  17.364  12.727  12.425  0.1420  0.0483  0.2819
 1817DOPS   PO421311  17.581  12.850  12.115 -0.0914 -0.2223  0.4541
 1817DOPS   GL121312  17.302  12.803  11.840 -0.1373 -0.1455 -0.2716
 1817DOPS   GL221313  17.543  12.530  11.702 -0.3161 -0.2896 -0.1451
 1817DOPS   C1A21314  17.346  13.005  11.449 -0.2286 -0.0693 -0.1293
 1817DOPS   D2A21315  17.728  13.049  11.203  0.1467 -0.1815  0.0533
 1817DOPS   C3A21316  17.981  12.941  10.817 -0.0627 -0.0944 -0.2344
 1817DOPS   C4A21317  18.097  13.149  10.390 -0.0270 -0.2189  0.2305
 1817DOPS   C1B21318  17.558  12.586  11.200  0.3442  0.0443  0.0491
 1817DOPS   D2B21319  17.436  12.781  10.816 -0.0451  0.2112  0.1411
 1817DOPS   C3B21320  17.643  12.471  10.553  0.2219  0.0579 -0.2683
 1817DOPS   C4B21321  18.121  12.344  10.616 -0.1272  0.0037 -0.1849
 1818DOPC   NC321322  15.779  22.613  13.097  0.0700  0.0819 -0.2307
 1818DOPC   PO421323  15.926  22.721  12.758 -0.1523  0.2398  0.0422
 1818DOPC   GL121324  15.739  22.601  12.401  0.1115  0.2357  0.3026
 1818DOPC   GL221325  15.798  22.425  12.149  0.0099 -0.1047  0.0393
 1818DOPC   C1A21326  15.409  22.681  12.136  0.0883  0.1178  0.2294
 1818DOPC   D2A21327  15.011  22.576  11.960  0.2413  0.0117 -0.2134
 1818DOPC   C3A21328  14.786  22.828  11.620  0.0490 -0.2234 -0.0256
 1818DOPC   C4A21329  14.386  22.807  11.360  0.0619 -0.2254  0.0139
 1818DOPC   C1B21330  16.030  22.386  11.698  0.0196 -0.2462  0.0451
 1818DOPC   D2B21331  16.204  22.525  11.317 -0.1266 -0.1240 -0.1664
 1818DOPC   C3B21332  16.627  22.687  11.428 -0.3158 -0.3509 -0.1271
 1818DOPC   C4B21333  16.942  22.781  11.089  0.1055 -0.0183  0.2262
 1819POSM   NC321334  18.167  16.259  12.067  0.3119 -0.2678 -0.1239
 1819POSM   PO421335  18.380  16.622  12.005 -0.1632  0.2324 -0.1790
 1819POSM   AM121336  18.381  16.457  11.667  0.0429 -0.2240  0.2890
 1819POSM   AM221337  18.247  16.233  11.549 -0.0786 -0.0106  0.1173
 1819POSM   T1A21338  18.703  16.303  11.322  0.0778 -0.1301  0.1827
 1819POSM   C2A21339  18.681  16.135  10.968 -0.0381 -0.0017  0.2143
 1819POSM   C3A21340  18.485  15.859  10.697 -0.0879 -0.1512 -0.0532
 1819POSM   C1B21341  17.957  16.387  11.406 -0.2024 -0.0284 -0.0771
 1819POSM   D2B21342  17.789  16.525  10.980  0.1999 -0.1194  0.3770
 1819POSM   C3B21343  17.984  16.331  10.611 -0.0270  0.1560 -0.2558
 1819POSM   C4B21344  18.026  15.908  10.448 -0.2104  0.0740 -0.1737
 1820DOPE   NH321345  16.234  11.324  12.873  0.1164  0.1567  0.0605
 1820DOPE   PO421346  16.032  11.078  12.868 -0.1674 -0.2523 -0.0500
 1820DOPE   GL121347  16.044  11.286  12.442 -0.0003  0.3389  0.0162
 1820DOPE   GL221348  15.752  11.320  12.338  0.3768 -0.0229  0.2244
 1820DOPE   C1A21349  16.291  11.046  12.093  0.2047 -0.0261  0.2073
 1820DOPE   D2A21350  16.243  10.899  11.639 -0.1958 -0.3079  0.1237
 1820DOPE   C3A21351  16.384  10.605  11.366 -0.0168 -0.3768 -0.0029
 1820DOPE   C4A21352  16.679  10.310  11.145  0.0660  0.2413  0.0324
 1820DOPE   C1B21353  15.473  11.403  11.929  0.0571 -0.3191 -0.0617
 1820DOPE   D2B21354  15.252  11.272  11.545 -0.2166  0.0746  0.0364
 1820DOPE   C3B21355  15.145  11.529  11.166  0.2264 -0.0741 -0.4556
 1820DOPE   C4B21356  15.135  11.785  10.741 -0.0581 -0.0596 -0.0351
 1821DOPS   CNO21357  15.216  10.868  13.158 -0.1680 -0.1530 -0.4876
 1821DOPS   PO421358  14.965  10.725  12.921  0.1434  0.0012  0.1593
 1821DOPS   GL121359  15.209  10.855  12.677  0.0408 -0.1578  0.1677
 1821DOPS   GL221360  14.970  10.924  12.484 -0.2083 -0.0463  0.0139
 1821DOPS   C1A21361  15.439  10.919  12.241  0.1939 -0.3009 -0.0357
 1821DOPS   D2A21362  15.789  10.829  11.995 -0.2822  0.0359  0.0382
 1821DOPS   C3A21363  15.702  11.071  11.589  0.0651 -0.0741  0.1594
 1821DOPS   C4A21364  15.569  11.214  11.160  0.0642  0.3388  0.3091
 1821DOPS   C1B21365  14.943  10.664  12.136 -0.2932 -0.0871  0.1356
 1821DOPS   D2B21366  14.949  10.311  11.825 -0.1627  0.0764  0.0793
 1821DOPS   C3B21367  15.115  10.314  11.429 -0.0031  0.0460  0.0623
 1821DOPS   C4B21368  15.302   9.961  11.162 -0.2524 -0.0274 -0.0647
 1822DOPS   CNO21369  18.102  22.577  12.346 -0.0769 -0.4582  0.2006
 1822DOPS   PO421370  17.740  22.566  12.476 -0.0194 -0.0426  0.1252
 1822DOPS   GL121371  17.784  22.726  12.059  0.3589  0.2105 -0.1921
 1822DOPS   GL221372  17.581  22.548  11.866 -0.1893  0.2221 -0.1385
 1822DOPS   C1A21373  17.804  23.136  11.879  0.1220 -0.1908  0.0630
 1822DOPS   D2A21374  17.681  23.526  11.619  0.0062 -0.1531 -0.1415
 1822DOPS   C3A21375  17.786  23.913  11.399  0.1300  0.1915 -0.0470
 1822DOPS   C4A21376  18.240  23.860  11.346 -0.1380  0.1138 -0.0315
 1822DOPS   C1B21377  17.382  22.930  11.674 -0.3099  0.2444  0.2270
 1822DOPS   D2B21378  17.299  23.155  11.268  0.0335 -0.3596  0.0532
 1822DOPS   C3B21379  17.563  23.501  11.127 -0.1682 -0.0993  0.2112
 1822DOPS   C4B21380  17.721  23.867  10.910  0.0911  0.1387 -0.2359
 1823DOPE   NH321381  24.302  12.799  13.170 -0.2525  0.1676  0.0283
 1823DOPE   PO421382  24.463  12.728  12.890  0.1581 -0.0908 -0.0040
 1823DOPE   GL121383  24.435  12.552  12.509  0.4472  0.0211  0.0891
 1823DOPE   GL221384  24.517  12.759  12.387 -0.0604 -0.2715  0.1663
 1823DOPE   C1A21385  24.018  12.616  12.283  0.2738 -0.1625  0.4643
 1823DOPE   D2A21386  23.856  13.012  12.110 -0.3159 -0.2661  0.2538
 1823DOPE   C3A21387  23.647  13.056  11.692  0.1657  0.2603  0.1739
 1823DOPE   C4A21388  23.388  12.822  11.400 -0.3540  0.0948 -0.2119
 1823DOPE   C1B21389  24.446  12.410  12.120 -0.0436 -0.1458 -0.0926
 1823DOPE   D2B21390  24.258  12.294  11.755 -0.1178 -0.0811  0.2337
 1823DOPE   C3B21391  24.545  12.065  11.445 -0.1092 -0.2068  0.2602
 1823DOPE   C4B21392  24.968  11.868  11.458  0.2404 -0.1813  0.0128
 1824DOPC   NC321393  16.154  13.997  11.717 -0.0886 -0.2769 -0.1704
 1824DOPC   PO421394  16.536  14.054  11.797 -0.2045  0.1369 -0.1397
 1824DOPC   GL121395  16.417  14.158  11.393 -0.2774 -0.5539 -0.0658
 1824DOPC   GL221396  16.720  14.307  11.292  0.1270  0.0521 -0.0037
 1824DOPC   C1A21397  16.386  14.139  10.921 -0.0814 -0.0417 -0.3140
 1824DOPC   D2A21398  16.598  14.006  10.553  0.0466  0.3300  0.0232
 1824DOPC   C3A21399  16.918  13.702  10.538  0.1483  0.1265  0.1924
 1824DOPC   C4A21400  17.122  13.369  10.222  0.2932  0.1072  0.1697
 1824DOPC   C1B21401  16.762  14.470  10.808 -0.2623 -0.1342 -0.1874
 1824DOPC   D2B21402  16.693  14.740  10.405 -0.2067  0.1516  0.5666
 1824DOPC   C3B21403  16.946  14.892  10.033 -0.1821 -0.0317 -0.0940
 1824DOPC   C4B21404  16.898  15.107   9.620  0.1294  0.2465  0.0266
 1825DOPS   CNO21405  23.125  17.108  12.605 -0.1341 -0.0615 -0.3572
 1825DOPS   PO421406  22.775  17.051  12.526 -0.0153  0.0132  0.1059
 1825DOPS   GL121407  22.963  16.967  12.200 -0.0059  0.0218  0.1297
 1825DOPS   GL221408  23.178  16.799  12.142 -0.3193 -0.1593  0.0697
 1825DOPS   C1A21409  22.960  17.032  11.734 -0.1215 -0.0681 -0.2793
 1825DOPS   D2A21410  22.986  17.236  11.342  0.0674  0.0585  0.0990
 1825DOPS   C3A21411  23.023  17.339  10.898 -0.1687  0.0507 -0.0341
 1825DOPS   C4A21412  22.840  17.683  10.546  0.0621  0.2805 -0.2147
 1825DOPS   C1B21413  23.480  16.492  11.992  0.2628  0.5078 -0.1393
 1825DOPS   D2B21414  23.361  16.125  11.743 -0.1318  0.2986  0.1009
 1825DOPS   C3B21415  23.132  16.316  11.424 -0.1999  0.1796  0.0060
 1825DOPS   C4B21416  22.907  16.690  11.251 -0.5143 -0.1598  0.0501
 1826DOPE   NH321417  15.280  19.916  12.554  0.1161 -0.0978  0.1065
 1826DOPE   PO421418  15.525  20.109  12.471  0.1219  0.0344 -0.1792
 1826DOPE   GL121419  15.730  19.983  12.101 -0.2397 -0.1366 -0.2605
 1826DOPE   GL221420  15.925  20.194  12.036  0.4673 -0.1055 -0.0153
 1826DOPE   C1A21421  15.774  19.945  11.639 -0.0561  0.1208 -0.0168
 1826DOPE   D2A21422  16.189  19.894  11.393 -0.0092 -0.0925 -0.2654
 1826DOPE   C3A21423  16.518  19.506  11.406 -0.2459  0.1492  0.5166
 1826DOPE   C4A21424  16.610  19.225  11.037  0.2610 -0.1765 -0.0668
 1826DOPE   C1B21425  15.586  20.372  11.790 -0.1486 -0.2472  0.0554
 1826DOPE   D2B21426  15.463  20.664  11.490 -0.0132 -0.3194 -0.2332
 1826DOPE   C3B21427  15.540  21.115  11.575 -0.0051  0.0842 -0.0975
 1826DOPE   C4B21428  15.641  21.470  11.873 -0.3451 -0.1208  0.0920
 1827DOPE   NH321429  21.121  18.307  12.079  0.0809 -0.2024 -0.1440
 1827DOPE   PO421430  21.421  18.384  11.977 -0.0565  0.0336  0.3821
 1827DOPE   GL121431  21.322  18.601  11.642 -0.2116  0.1895 -0.1796
 1827DOPE   GL221432  21.307  18.354  11.481  0.0638 -0.0548  0.2654
 1827DOPE   C1A21433  21.519  18.708  11.226  0.0678 -0.0674 -0.1155
 1827DOPE   D2A21434  21.679  18.766  10.791 -0.1382  0.0404  0.0380
 1827DOPE   C3A21435  21.562  18.901  10.376 -0.1087 -0.1006  0.4044
 1827DOPE   C4A21436  21.299  19.039  10.100 -0.1159  0.4398 -0.2059
 1827DOPE   C1B21437  21.731  18.143  11.308  0.1525  0.1829 -0.2249
 1827DOPE   D2B21438  22.156  17.885  11.112  0.2559  0.2066 -0.0750
 1827DOPE   C3B21439  22.624  17.792  11.012  0.3731  0.0661 -0.1802
 1827DOPE   C4B21440  23.032  17.741  11.243 -0.0237  0.3108  0.2528
 1828DOPE   NH321441  19.162  14.715  11.762  0.3677  0.0800 -0.1369
 1828DOPE   PO421442  19.011  15.002  11.681 -0.1371 -0.1280  0.1188
 1828DOPE   GL121443  19.154  14.913  11.311 -0.2523  0.0093 -0.0152
 1828DOPE   GL221444  19.040  14.867  11.090 -0.1049 -0.1427 -0.1904
 1828DOPE   C1A21445  19.369  15.274  11.054  0.3676 -0.1816  0.3800
 1828DOPE   D2A21446  19.377  15.416  10.621  0.1727 -0.0987 -0.1260
 1828DOPE   C3A21447  19.568  15.838  10.415 -0.0644 -0.1861 -0.2923
 1828DOPE   C4A21448  19.590  16.206  10.164  0.1928 -0.1769  0.2631
 1828DOPE   C1B21449  18.773  14.878  10.688  0.0265  0.0933 -0.1039
 1828DOPE   D2B21450  18.536  15.159  10.359 -0.1372 -0.1454  0.0632
 1828DOPE   C3B21451  18.256  15.047   9.952  0.0615  0.4731 -0.0139
 1828DOPE   C4B21452  17.806  14.911   9.762 -0.0952 -0.1152  0.1473
 1829DOPC   NC321453  24.270  24.812  12.470 -0.0258 -0.2309 -0.0592
 1829DOPC   PO421454  24.553  24.547  12.535 -0.0047 -0.2038  0.0876
 1829DOPC   GL121455  24.283  24.421  12.224 -0.0642  0.0773  0.0639
 1829DOPC   GL221456  24.039  24.564  12.086 -0.1579  0.1288 -0.1742
 1829DOPC   C1A21457  24.347  24.353  11.758 -0.1044 -0.0310  0.5162
 1829DOPC   D2A21458  24.109  24.217  11.357  0.1123 -0.0781  0.1664
 1829DOPC   C3A21459  24.222  24.377  10.896 -0.2123 -0.1457 -0.0912
 1829DOPC   C4A21460  24.602  24.693  10.791 -0.0557 -0.2993  0.0457
 1829DOPC   C1B21461  23.785  24.703  11.778 -0.0454  0.1158  0.0032
 1829DOPC   D2B21462  23.698  25.138  11.534 -0.2218  0.0492  0.2161
 1829DOPC   C3B21463  23.673  24.956  11.063  0.2438  0.2013 -0.3561
 1829DOPC   C4B21464  23.694  24.630  10.735  0.2278  0.2197 -0.0017
 1830POSM   NC321465  15.288  16.152  12.179 -0.2140  0.0318  0.0982
 1830POSM   PO421466  15.206  15.780  12.054  0.1118  0.0432  0.1080
 1830POSM   AM121467  15.233  15.682  11.694  0.0381 -0.0322  0.0585
 1830POSM   AM221468  15.272  15.448  11.503 -0.2149  0.2540  0.1620
 1830POSM   T1A21469  14.883  15.637  11.287  0.0039 -0.1779  0.0378
 1830POSM   C2A21470  14.871  15.545  10.828 -0.0395 -0.3483  0.0378
 1830POSM   C3A21471  15.036  15.607  10.386  0.0727 -0.2506 -0.2113
 1830POSM   C1B21472  15.387  15.628  11.247 -0.1185 -0.1930 -0.1108
 1830POSM   D2B21473  15.808  15.655  10.983 -0.1545 -0.0903 -0.0625
 1830POSM   C3B21474  15.823  15.863  10.497  0.3117 -0.0479 -0.3770
 1830POSM   C4B21475  15.702  16.038  10.048  0.0148 -0.3362  0.0514
 1831POSM   NC321476  13.236  21.436  13.289 -0.1510 -0.1267 -0.0639
 1831POSM   PO421477  13.096  21.229  12.922  0.0041  0.0433  0.3203
 1831POSM   AM121478  12.940  21.244  12.617 -0.1154  0.0306  0.0164
 1831POSM   AM221479  12.858  21.021  12.448  0.2125 -0.1410  0.2235
 1831POSM   T1A21480  12.965  21.465  12.171  0.1914  0.1960 -0.0788
 1831POSM   C2A21481  13.168  21.850  11.931  0.1507  0.1991  0.1833
 1831POSM   C3A21482  13.258  22.178  11.566  0.0713 -0.0462  0.2092
 1831POSM   C1B21483  12.821  20.945  12.107  0.1209 -0.0821  0.0668
 1831POSM   D2B21484  12.720  20.830  11.675  0.0120 -0.0780  0.0807
 1831POSM   C3B21485  12.429  20.822  11.348 -0.1625  0.0187 -0.1280
 1831POSM   C4B21486  12.047  20.756  11.068 -0.2377  0.1360  0.0471
 1832DOPC   NC321487  17.448  17.232  11.747 -0.1020  0.0089 -0.4863
 1832DOPC   PO421488  17.132  17.150  11.975  0.0618  0.2648 -0.0847
 1832DOPC   GL121489  17.174  16.958  11.542  0.2383 -0.2370  0.3096
 1832DOPC   GL221490  17.017  17.221  11.481 -0.0777 -0.5694  0.0910
 1832DOPC   C1A21491  16.947  16.726  11.200  0.2557  0.1305  0.1733
 1832DOPC   D2A21492  16.745  16.484  10.851  0.0093  0.0322 -0.0264
 1832DOPC   C3A21493  16.309  16.592  10.855  0.1254 -0.1986  0.0104
 1832DOPC   C4A21494  15.955  16.855  10.727 -0.0311 -0.2715  0.0560
 1832DOPC   C1B21495  17.152  17.534  11.228  0.3355  0.1556  0.0269
 1832DOPC   D2B21496  17.263  17.834  10.938  0.3229 -0.1984  0.1968
 1832DOPC   C3B21497  17.486  18.221  10.786  0.1344  0.4242 -0.0059
 1832DOPC   C4B21498  17.674  18.684  10.827 -0.2061 -0.1239  0.1962
 1833DOPC   NC321499  19.788  16.051  12.034 -0.2322 -0.1254  0.0397
 1833DOPC   PO421500  19.425  16.175  12.047 -0.0556 -0.0453  0.1169
 1833DOPC   GL121501  19.394  16.215  11.623  0.3298  0.0620 -0.4863
 1833DOPC   GL221502  19.589  16.091  11.465 -0.1033 -0.0775  0.0739
 1833DOPC   C1A21503  19.180  16.482  11.345 -0.1041  0.1067  0.0521
 1833DOPC   D2A21504  19.264  16.790  11.022  0.0243  0.2352 -0.0317
 1833DOPC   C3A21505  18.930  17.043  10.835 -0.1016 -0.0686 -0.1950
 1833DOPC   C4A21506  18.658  17.066  10.401 -0.0032  0.1582  0.0796
 1833DOPC   C1B21507  19.374  16.144  11.041  0.4503 -0.0397  0.0150
 1833DOPC   D2B21508  19.147  15.822  10.790  0.1282  0.1242  0.1959
 1833DOPC   C3B21509  18.885  16.095  10.484 -0.2219 -0.0744 -0.0155
 1833DOPC   C4B21510  18.452  16.376  10.473  0.0775 -0.0842  0.0464
 1834DOPS   CNO21511  14.774  20.449  12.300 -0.3547 -0.2145 -0.0755
 1834DOPS   PO421512  14.843  20.094  12.374  0.0407 -0.0293  0.0152
 1834DOPS   GL121513  14.866  20.117  11.971 -0.2077 -0.1368 -0.0348
 1834DOPS   GL221514  14.604  20.120  11.868  0.0118  0.1244  0.0550
 1834DOPS   C1A21515  15.075  20.300  11.612  0.0548 -0.0691  0.2170
 1834DOPS   D2A21516  15.399  20.231  11.309  0.0460 -0.1302 -0.1121
 1834DOPS   C3A21517  15.277  20.204  10.822  0.0794 -0.2084 -0.0991
 1834DOPS   C4A21518  15.226  20.206  10.344 -0.0208  0.0916  0.0145
 1834DOPS   C1B21519  14.403  20.041  11.469  0.0628  0.1509 -0.1691
 1834DOPS   D2B21520  14.425  19.853  11.041 -0.0857  0.0797  0.1865
 1834DOPS   C3B21521  14.740  19.947  10.763  0.4358  0.0143 -0.2045
 1834DOPS   C4B21522  15.045  19.788  10.526  0.0507  0.1446 -0.0494
 1835DOPE   NH321523  16.888  12.642  12.083  0.0203  0.0956  0.2498
 1835DOPE   PO421524  16.885  12.327  12.144  0.1074 -0.0463  0.0262
 1835DOPE   GL121525  17.078  12.374  11.739  0.0502  0.1352  0.0223
 1835DOPE   GL221526  17.002  12.550  11.522  0.0292 -0.3093 -0.3245
 1835DOPE   C1A21527  17.313  12.194  11.413 -0.3025  0.3795  0.2596
 1835DOPE   D2A21528  17.615  12.121  11.042 -0.1253 -0.0496 -0.2494
 1835DOPE   C3A21529  18.066  11.910  11.061  0.3488 -0.1110 -0.0117
 1835DOPE   C4A21530  18.504  11.802  11.022 -0.0496  0.0698  0.3425
 1835DOPE   C1B21531  17.008  12.599  11.050  0.1803 -0.0893 -0.1835
 1835DOPE   D2B21532  17.132  12.411  10.668 -0.1058 -0.1713  0.3782
 1835DOPE   C3B21533  17.377  12.059  10.537 -0.0933  0.0620 -0.0835
 1835DOPE   C4B21534  17.808  11.942  10.499 -0.2060  0.1969  0.0316
 1836DOPS   CNO21535  19.419  14.798  12.271  0.1553  0.0289 -0.1815
 1836DOPS   PO421536  19.617  14.721  11.947 -0.2380 -0.3080  0.0912
 1836DOPS   GL121537  20.041  14.605  11.728  0.0170  0.1879 -0.0441
 1836DOPS   GL221538  19.937  14.822  11.557 -0.2525  0.2071  0.0050
 1836DOPS   C1A21539  20.073  14.474  11.264 -0.4236 -0.3723  0.1837
 1836DOPS   D2A21540  20.018  14.648  10.831  0.1191 -0.0915  0.1184
 1836DOPS   C3A21541  20.254  14.974  10.696 -0.2368 -0.2784 -0.3032
 1836DOPS   C4A21542  20.381  15.214  10.318  0.2249  0.1371 -0.1588
 1836DOPS   C1B21543  20.242  14.937  11.201  0.1628  0.0575 -0.0357
 1836DOPS   D2B21544  20.534  15.240  11.069 -0.0462 -0.0187 -0.2695
 1836DOPS   C3B21545  20.767  15.064  10.701  0.0589  0.0321 -0.0248
 1836DOPS   C4B21546  21.152  14.800  10.575  0.1545  0.1515  0.1085
 1837DOPE   NH321547  21.821  11.689   8.656  0.2080 -0.1627  0.1481
 1837DOPE   PO421548  21.747  11.973   8.821  0.2841  0.0085  0.2263
 1837DOPE   GL121549  21.664  12.094   9.252  0.3621  0.1910  0.0552
 1837DOPE   GL221550  21.303  12.103   9.231  0.2780  0.3516  0.0264
 1837DOPE   C1A21551  21.506  12.060   9.726 -0.1314  0.2706 -0.2880
 1837DOPE   D2A21552  21.572  12.279  10.135  0.2007  0.1924 -0.0606
 1837DOPE   C3A21553  21.243  12.182  10.433 -0.2328 -0.0583 -0.0632
 1837DOPE   C4A21554  20.887  12.166  10.700  0.1423  0.0126 -0.3712
 1837DOPE   C1B21555  21.267  11.726   9.397 -0.1527 -0.0341 -0.1259
 1837DOPE   D2B21556  21.204  11.361   9.606 -0.4841  0.0063 -0.3440
 1837DOPE   C3B21557  21.130  11.227  10.008  0.1319  0.0022 -0.0691
 1837DOPE   C4B21558  20.839  11.429  10.237  0.0523  0.2981  0.0143
 1838DOPS   CNO21559  10.765  14.201   9.160  0.0700  0.3422  0.0172
 1838DOPS   PO421560  11.071  14.316   9.387  0.4088 -0.1184 -0.3119
 1838DOPS   GL121561  11.386  14.505   9.533 -0.0901  0.1312  0.0908
 1838DOPS   GL221562  11.604  14.410   9.772  0.0349  0.0953 -0.1185
 1838DOPS   C1A21563  11.832  14.661   9.444 -0.0269 -0.0147 -0.0663
 1838DOPS   D2A21564  12.271  14.652   9.613  0.3548  0.0699  0.0983
 1838DOPS   C3A21565  12.415  14.367   9.948  0.0343  0.2273 -0.0695
 1838DOPS   C4A21566  12.407  14.376  10.445  0.0885 -0.1269  0.0622
 1838DOPS   C1B21567  11.973  14.569  10.059 -0.0258 -0.1778  0.1328
 1838DOPS   D2B21568  12.350  14.869  10.097  0.0229 -0.2186  0.1327
 1838DOPS   C3B21569  12.626  15.204   9.909 -0.0508 -0.1555  0.1759
 1838DOPS   C4B21570  12.522  15.549   9.578  0.0017  0.3462 -0.0607
 1839DOPE   NH321571  20.507  14.976   8.742  0.0851 -0.0039 -0.0710
 1839DOPE   PO421572  20.624  14.696   8.859  0.0444  0.2704  0.0796
 1839DOPE   GL121573  20.640  14.448   9.156 -0.1735  0.4298  0.0320
 1839DOPE   GL221574  20.607  14.667   9.451 -0.2461  0.3046  0.2656
 1839DOPE   C1A21575  20.596  14.065   9.427 -0.0635  0.1211  0.0667
 1839DOPE   D2A21576  20.305  13.995   9.727  0.0280 -0.1477 -0.0980
 1839DOPE   C3A21577  20.449  13.999  10.212  0.1585 -0.2074 -0.3744
 1839DOPE   C4A21578  20.678  13.765  10.594  0.0639 -0.1917  0.4844
 1839DOPE   C1B21579  20.288  14.472   9.813 -0.1676  0.0247  0.1855
 1839DOPE   D2B21580  19.901  14.346   9.991  0.1449  0.3404 -0.1095
 1839DOPE   C3B21581  19.957  14.006  10.315 -0.0239 -0.1763 -0.1758
 1839DOPE   C4B21582  20.196  13.701  10.620  0.0567 -0.0648  0.3635
 1840DOPE   NH321583  20.294  11.864   8.573 -0.2949  0.0604  0.2901
 1840DOPE   PO421584  20.360  12.160   8.660  0.0257 -0.0871  0.2706
 1840DOPE   GL121585  20.511  12.205   9.009 -0.4011  0.2118 -0.1078
 1840DOPE   GL221586  20.838  12.192   9.070 -0.2078 -0.2039  0.2697
 1840DOPE   C1A21587  20.443  12.411   9.409  0.0596 -0.0543  0.0529
 1840DOPE   D2A21588  20.175  12.726   9.620  0.4359 -0.1372 -0.2703
 1840DOPE   C3A21589  19.840  12.435   9.781 -0.0815 -0.1474 -0.2076
 1840DOPE   C4A21590  19.737  11.920   9.765  0.1541 -0.0161 -0.0194
 1840DOPE   C1B21591  20.982  12.293   9.504  0.1442 -0.2965  0.0881
 1840DOPE   D2B21592  21.112  12.327   9.950 -0.0244 -0.0011  0.1946
 1840DOPE   C3B21593  20.901  12.509  10.258  0.2189 -0.0500 -0.0704
 1840DOPE   C4B21594  20.920  12.663  10.704 -0.0069  0.0264  0.0280
 1841DOPC   NC321595  20.962  13.044   8.540  0.1073 -0.1322  0.3122
 1841DOPC   PO421596  20.908  13.306   8.863 -0.0331 -0.0898 -0.2236
 1841DOPC   GL121597  21.064  13.429   9.160  0.1272 -0.0669 -0.1772
 1841DOPC   GL221598  20.855  13.217   9.340 -0.0747  0.1167 -0.1413
 1841DOPC   C1A21599  21.063  13.673   9.567 -0.1393  0.0105 -0.1520
 1841DOPC   D2A21600  20.768  13.817   9.914  0.2094  0.0220 -0.3115
 1841DOPC   C3A21601  20.471  13.497  10.092  0.1052 -0.0468  0.0512
 1841DOPC   C4A21602  20.403  13.068  10.249 -0.0154 -0.0112 -0.0635
 1841DOPC   C1B21603  21.318  13.241   9.463  0.2308  0.0157 -0.0335
 1841DOPC   D2B21604  21.691  13.057   9.599  0.2497 -0.0002 -0.0119
 1841DOPC   C3B21605  21.817  12.817   9.993 -0.0157  0.0379  0.0343
 1841DOPC   C4B21606  21.768  12.838  10.454  0.2703 -0.1913 -0.0903
 1842DOPC   NC321607  15.228  20.427   8.555  0.1095 -0.1394  0.2318
 1842DOPC   PO421608  14.921  20.408   8.798  0.1518  0.0935  0.4185
 1842DOPC   GL121609  15.142  20.461   9.066  0.0989 -0.2339  0.0311
 1842DOPC   GL221610  15.220  20.186   9.182 -0.3436 -0.2374  0.0738
 1842DOPC   C1A21611  15.622  20.505   9.216  0.2012  0.1037  0.1329
 1842DOPC   D2A21612  15.987  20.701   9.184 -0.0080 -0.1428 -0.1008
 1842DOPC   C3A21613  16.162  20.791   9.623  0.1002 -0.1527 -0.1330
 1842DOPC   C4A21614  16.208  20.775  10.076  0.0153  0.1710 -0.2326
 1842DOPC   C1B21615  15.353  20.367   9.588  0.1329  0.0267  0.0361
 1842DOPC   D2B21616  15.331  20.588   9.980 -0.1587 -0.2299 -0.3033
 1842DOPC   C3B21617  15.282  20.658  10.474  0.1809  0.0021  0.1435
 1842DOPC   C4B21618  15.597  20.642  10.824  0.1884  0.1523  0.1145
 1843DOPE   NH321619  12.205  20.533   9.020 -0.0667  0.0422 -0.0099
 1843DOPE   PO421620  12.267  20.696   9.273 -0.2650 -0.3716  0.0885
 1843DOPE   GL121621  12.330  20.341   9.438 -0.0066 -0.1108  0.1892
 1843DOPE   GL221622  12.176  20.132   9.389  0.1315 -0.4637 -0.0362
 1843DOPE   C1A21623  12.605  20.381   9.839 -0.1939 -0.2733  0.2639
 1843DOPE   D2A21624  12.752  20.288  10.262 -0.0015 -0.1756  0.2734
 1843DOPE   C3A21625  12.733  20.122  10.728 -0.2612 -0.2109 -0.0542
 1843DOPE   C4A21626  13.089  20.187  11.037 -0.1021 -0.0055 -0.0706
 1843DOPE   C1B21627  12.292  19.960   9.825  0.2771 -0.0276 -0.0527
 1843DOPE   D2B21628  12.151  20.184  10.204 -0.3264 -0.1461  0.2516
 1843DOPE   C3B21629  12.164  19.915  10.623  0.0492 -0.1678  0.4001
 1843DOPE   C4B21630  11.965  19.864  11.008 -0.0003  0.0811 -0.3862
 1844DOPE   NH321631  24.447  23.140   8.651 -0.0844 -0.0212  0.0522
 1844DOPE   PO421632  24.692  23.288   8.799 -0.0305 -0.3175 -0.0774
 1844DOPE   GL121633  24.553  23.363   9.179 -0.0217 -0.1626  0.1729
 1844DOPE   GL221634  24.257  23.373   9.113 -0.0180  0.1091  0.2767
 1844DOPE   C1A21635  24.475  23.326   9.634  0.2044  0.1298 -0.1908
 1844DOPE   D2A21636  24.321  23.506  10.023 -0.3511 -0.0643 -0.0160
 1844DOPE   C3A21637  24.651  23.665  10.285 -0.3016  0.0693 -0.1707
 1844DOPE   C4A21638  25.027  23.977  10.271  0.0993  0.1607  0.2669
 1844DOPE   C1B21639  24.016  23.152   9.458  0.0493  0.0162  0.0323
 1844DOPE   D2B21640  23.837  22.895   9.785 -0.1901 -0.2694 -0.1061
 1844DOPE   C3B21641  23.768  22.931  10.239  0.0638 -0.0939 -0.0867
 1844DOPE   C4B21642  23.731  23.078  10.672 -0.0175  0.0500  0.1318
 1845DOPE   NH321643  16.014  15.852   8.249  0.0035  0.4041  0.1201
 1845DOPE   PO421644  16.005  16.132   8.422  0.0944 -0.2401 -0.1467
 1845DOPE   GL121645  16.202  16.141   8.833 -0.2384  0.1764  0.0188
 1845DOPE   GL221646  15.969  16.318   8.897 -0.3468 -0.0186 -0.2477
 1845DOPE   C1A21647  16.294  16.215   9.269 -0.4463  0.2835 -0.1007
 1845DOPE   D2A21648  16.405  16.456   9.637 -0.1010 -0.0619  0.0479
 1845DOPE   C3A21649  16.279  16.255  10.046  0.0397  0.2924  0.1790
 1845DOPE   C4A21650  16.182  15.840  10.221 -0.0206  0.0554 -0.3606
 1845DOPE   C1B21651  15.658  16.318   9.252 -0.1205 -0.0311  0.1897
 1845DOPE   D2B21652  15.408  16.125   9.570 -0.0544 -0.0278  0.1228
 1845DOPE   C3B21653  15.651  15.709   9.681  0.0112  0.6265  0.1519
 1845DOPE   C4B21654  15.946  15.471   9.888 -0.1151  0.0858  0.1450
 1846POSM   NC321655  14.650  20.057   8.967  0.1608 -0.1421 -0.2429
 1846POSM   PO421656  14.377  20.318   8.761  0.2967  0.1648  0.0314
 1846POSM   AM121657  14.459  20.473   9.049  0.0476  0.6102  0.1891
 1846POSM   AM221658  14.689  20.559   9.212  0.0162 -0.0870 -0.1260
 1846POSM   T1A21659  14.345  20.407   9.521  0.0695  0.0874  0.0817
 1846POSM   C2A21660  14.391  20.180   9.916  0.0947 -0.3054  0.0037
 1846POSM   C3A21661  14.149  20.029  10.290  0.0649 -0.0723 -0.4853
 1846POSM   C1B21662  14.842  20.507   9.547 -0.1652  0.1790 -0.1144
 1846POSM   D2B21663  14.857  20.609  10.023 -0.2717  0.0187  0.1280
 1846POSM   C3B21664  14.759  21.013  10.289  0.0843 -0.3434  0.0549
 1846POSM   C4B21665  15.018  21.158  10.699  0.2638  0.0271 -0.0246
 1847DOPE   NH321666  18.995  20.126   8.264  0.1854 -0.1714 -0.1673
 1847DOPE   PO421667  19.034  19.797   8.313  0.0574  0.1248  0.0738
 1847DOPE   GL121668  19.152  20.044   8.715 -0.0061 -0.0240 -0.2578
 1847DOPE   GL221669  18.876  20.146   8.850 -0.0661  0.3015  0.1478
 1847DOPE   C1A21670  19.108  19.864   9.148 -0.4036 -0.1507 -0.2658
 1847DOPE   D2A21671  19.036  19.816   9.641 -0.2160 -0.2224  0.0816
 1847DOPE   C3A21672  19.279  19.531   9.957  0.0442 -0.0994 -0.3440
 1847DOPE   C4A21673  19.517  19.181  10.110 -0.1371  0.0767  0.1976
 1847DOPE   C1B21674  18.687  20.092   9.266  0.0199  0.1834 -0.1352
 1847DOPE   D2B21675  18.414  20.013   9.610  0.4470  0.1669 -0.0970
 1847DOPE   C3B21676  18.372  20.182  10.029 -0.0943 -0.5028 -0.0868
 1847DOPE   C4B21677  18.470  20.508  10.342  0.0416  0.4567 -0.1976
 1848POSM   NC321678  20.287  21.856   8.745  0.2816 -0.2328 -0.0235
 1848POSM   PO421679  20.050  21.526   8.768  0.1193  0.0563  0.2290
 1848POSM   AM121680  20.240  21.294   8.901 -0.0068 -0.1000  0.5277
 1848POSM   AM221681  20.486  21.336   9.016 -0.0703 -0.2849  0.1134
 1848POSM   T1A21682  20.132  20.909   9.161  0.3979 -0.0368  0.0440
 1848POSM   C2A21683  19.804  20.745   9.377 -0.0590 -0.0044 -0.1946
 1848POSM   C3A21684  19.372  20.866   9.405 -0.1335 -0.1647  0.0475
 1848POSM   C1B21685  20.709  21.477   9.286 -0.0672 -0.2077  0.0649
 1848POSM   D2B21686  20.996  21.675   9.622 -0.1975  0.0336  0.2881
 1848POSM   C3B21687  21.005  21.398   9.962  0.0330  0.0830  0.1627
 1848POSM   C4B21688  20.876  21.151  10.365  0.4300  0.1051  0.4612
 1849POSM   NC321689  11.312  12.203  10.040  0.1164 -0.1959  0.2056
 1849POSM   PO421690  11.188  11.840  10.089 -0.1086  0.2860 -0.2623
 1849POSM   AM121691  11.401  11.918  10.353 -0.3751 -0.0124  0.0552
 1849POSM   AM221692  11.608  11.804  10.460  0.0553 -0.0248  0.0163
 1849POSM   T1A21693  11.463  12.137  10.794  0.2862 -0.1712  0.0552
 1849POSM   C2A21694  11.225  12.201  11.205  0.3172  0.0493 -0.1144
 1849POSM   C3A21695  11.190  12.248  11.705  0.2303 -0.1706 -0.1561
 1849POSM   C1B21696  11.793  11.792  10.698  0.1375 -0.1500  0.1163
 1849POSM   D2B21697  12.190  11.806  10.961  0.1786  0.0837 -0.0587
 1849POSM   C3B21698  12.060  11.814  11.443  0.1512  0.0282  0.2135
 1849POSM   C4B21699  12.149  11.982  11.885 -0.0870  0.0069 -0.0811
 1850DOPC   NC321700  22.188  20.583   8.356 -0.1090 -0.0892  0.0239
 1850DOPC   PO421701  21.887  20.832   8.474  0.0339  0.1078 -0.1294
 1850DOPC   GL121702  21.782  20.493   8.775 -0.6062  0.2781  0.0398
 1850DOPC   GL221703  21.899  20.274   8.742 -0.0301 -0.0794 -0.0990
 1850DOPC   C1A21704  21.917  20.377   9.238 -0.2695  0.0155  0.0375
 1850DOPC   D2A21705  21.940  20.400   9.739  0.0386 -0.1375  0.0287
 1850DOPC   C3A21706  22.341  20.514   9.906  0.1496  0.1185  0.0342
 1850DOPC   C4A21707  22.576  20.276  10.212  0.0477  0.2578 -0.0447
 1850DOPC   C1B21708  22.332  20.375   8.902 -0.0316  0.0328  0.0761
 1850DOPC   D2B21709  22.612  20.644   9.195 -0.0029 -0.3229  0.0462
 1850DOPC   C3B21710  22.795  20.468   9.567  0.1443 -0.4335  0.1387
 1850DOPC   C4B21711  23.024  20.376   9.967  0.2392 -0.2334  0.1984
 1851DOPC   NC321712  21.020  19.981   8.673 -0.1018 -0.0221  0.1134
 1851DOPC   PO421713  21.385  20.162   8.600  0.1178  0.2124  0.1658
 1851DOPC   GL121714  21.416  20.278   8.983  0.1694 -0.0228  0.2842
 1851DOPC   GL221715  21.138  20.372   8.968  0.0373  0.0945  0.0844
 1851DOPC   C1A21716  21.520  20.704   9.134 -0.1305 -0.2520  0.3151
 1851DOPC   D2A21717  21.773  20.876   9.460 -0.3129 -0.1862  0.1823
 1851DOPC   C3A21718  21.846  21.286   9.430  0.2123 -0.0372 -0.1085
 1851DOPC   C4A21719  21.912  21.742   9.430 -0.0921  0.0407  0.0577
 1851DOPC   C1B21720  21.166  20.471   9.426 -0.3105 -0.0511 -0.1495
 1851DOPC   D2B21721  21.479  20.632   9.764 -0.1993  0.0603  0.0434
 1851DOPC   C3B21722  21.478  20.289  10.070  0.1814 -0.0375 -0.1207
 1851DOPC   C4B21723  21.241  19.984  10.341 -0.1292  0.1347 -0.1651
 1852DOPC   NC321724  17.899  17.288   8.463 -0.1764 -0.0302  0.0493
 1852DOPC   PO421725  17.607  17.311   8.226  0.2578 -0.0328  0.1006
 1852DOPC   GL121726  17.524  17.586   8.494  0.4105  0.3928  0.3235
 1852DOPC   GL221727  17.738  17.767   8.665  0.0302 -0.2582  0.0947
 1852DOPC   C1A21728  17.429  17.367   8.881 -0.0067  0.0375 -0.0147
 1852DOPC   D2A21729  17.202  17.055   9.103 -0.1010 -0.2731  0.2785
 1852DOPC   C3A21730  17.231  16.674   9.339 -0.2400 -0.0555 -0.1066
 1852DOPC   C4A21731  17.583  16.371   9.486  0.2673 -0.2444  0.2477
 1852DOPC   C1B21732  17.982  17.984   9.030  0.1741 -0.0336  0.5123
 1852DOPC   D2B21733  18.119  18.199   9.384 -0.0346  0.0761 -0.2141
 1852DOPC   C3B21734  18.438  18.003   9.658  0.1122 -0.0227  0.2240
 1852DOPC   C4B21735  18.557  18.072  10.075 -0.0821  0.1999 -0.3273
 1853DOPE   NH321736  19.718  14.327   8.666  0.0407 -0.0976  0.1242
 1853DOPE   PO421737  19.869  14.186   8.894 -0.0169  0.0791  0.2097
 1853DOPE   GL121738  19.549  14.157   9.081  0.0528  0.4297  0.2777
 1853DOPE   GL221739  19.288  14.117   8.919  0.1685 -0.0879 -0.0973
 1853DOPE   C1A21740  19.315  14.376   9.428 -0.0819 -0.2899 -0.3399
 1853DOPE   D2A21741  19.007  14.495   9.790  0.1341 -0.0624  0.1148
 1853DOPE   C3A21742  18.895  14.155  10.138  0.0638  0.0830 -0.0205
 1853DOPE   C4A21743  19.165  13.777  10.233  0.2155 -0.2166 -0.0859
 1853DOPE   C1B21744  18.909  14.260   9.053 -0.0308 -0.1604  0.0058
 1853DOPE   D2B21745  18.559  14.509   9.220 -0.1232  0.0778  0.1860
 1853DOPE   C3B21746  18.487  14.440   9.732 -0.1025 -0.0980  0.2082
 1853DOPE   C4B21747  18.449  14.684  10.192  0.1341 -0.1655 -0.0016
 1854POSM   NC321748  17.161  11.072   8.404 -0.0101 -0.0830 -0.0526
 1854POSM   PO421749  16.817  10.945   8.533  0.0557  0.0671  0.1230
 1854POSM   AM121750  16.902  10.995   8.860  0.1625 -0.0945 -0.3824
 1854POSM   AM221751  16.795  11.162   9.080 -0.4234 -0.0143  0.5600
 1854POSM   T1A21752  16.920  10.693   9.293  0.1445  0.0256  0.0757
 1854POSM   C2A21753  16.808  10.511   9.689  0.2758  0.1990 -0.0695
 1854POSM   C3A21754  16.374  10.340   9.695  0.0697 -0.0217 -0.0079
 1854POSM   C1B21755  16.831  11.477   9.262  0.2809 -0.0212 -0.0194
 1854POSM   D2B21756  17.028  11.827   9.562  0.1519  0.1971  0.1195
 1854POSM   C3B21757  17.093  12.177   9.380 -0.2054  0.3308  0.2622
 1854POSM   C4B21758  16.817  12.492   9.145  0.2737 -0.0941 -0.0209
 1855DOPE   NH321759  13.470  22.128   9.407  0.0948  0.0994  0.1770
 1855DOPE   PO421760  13.725  22.272   9.271  0.1454  0.0346 -0.4002
 1855DOPE   GL121761  13.873  22.304   9.673  0.2965 -0.2792  0.2305
 1855DOPE   GL221762  13.673  22.205   9.891  0.1013  0.2980  0.0566
 1855DOPE   C1A21763  14.010  22.472  10.067 -0.1956  0.0680  0.1974
 1855DOPE   D2A21764  14.126  22.481  10.504 -0.0834  0.0196  0.1454
 1855DOPE   C3A21765  14.323  22.281  10.878  0.2755  0.2694 -0.1697
 1855DOPE   C4A21766  14.696  22.069  11.035  0.0314 -0.0563 -0.4167
 1855DOPE   C1B21767  13.911  22.054  10.298 -0.2824 -0.1805  0.2268
 1855DOPE   D2B21768  13.884  21.892  10.763 -0.3394 -0.2495 -0.0309
 1855DOPE   C3B21769  14.079  21.791  11.163  0.3533  0.2414 -0.1477
 1855DOPE   C4B21770  14.158  21.479  11.509  0.0200  0.1069 -0.1102
 1856DOPC   NC321771  18.967  10.877   8.548  0.2042  0.2111  0.3276
 1856DOPC   PO421772  19.232  11.121   8.732 -0.2402  0.2329 -0.2390
 1856DOPC   GL121773  19.058  11.289   8.941 -0.2846 -0.1957  0.0269
 1856DOPC   GL221774  18.899  11.166   9.125 -0.1921 -0.1213  0.3446
 1856DOPC   C1A21775  19.079  11.619   9.324  0.4294 -0.2454  0.1507
 1856DOPC   D2A21776  18.995  11.661   9.754  0.1316 -0.0138  0.0725
 1856DOPC   C3A21777  19.350  11.472   9.979 -0.1655 -0.0265  0.0994
 1856DOPC   C4A21778  19.593  11.157   9.793 -0.0786 -0.2244  0.1671
 1856DOPC   C1B21779  19.142  11.114   9.519  0.0184 -0.3519 -0.1806
 1856DOPC   D2B21780  19.160  10.936   9.930  0.2860  0.0751 -0.3694
 1856DOPC   C3B21781  19.499  10.673  10.131  0.0166  0.0575 -0.0826
 1856DOPC   C4B21782  19.463  10.303  10.385  0.0041  0.2422  0.0525
 1857POSM   NC321783  18.574  13.378   8.829 -0.3801  0.0502 -0.4616
 1857POSM   PO421784  18.375  13.251   8.522 -0.0152 -0.1379 -0.0506
 1857POSM   AM121785  18.303  13.045   8.804  0.0950 -0.0968  0.0348
 1857POSM   AM221786  18.142  12.777   8.818  0.2940  0.2908  0.0532
 1857POSM   T1A21787  18.514  12.977   9.266 -0.1912 -0.1909  0.0117
 1857POSM   C2A21788  18.725  13.050   9.670  0.1509  0.0513  0.0461
 1857POSM   C3A21789  18.682  13.215  10.146 -0.0623  0.2578  0.2996
 1857POSM   C1B21790  18.151  12.547   9.112  0.1430  0.1342 -0.2746
 1857POSM   D2B21791  18.223  12.175   9.425 -0.0123 -0.2734  0.1173
 1857POSM   C3B21792  18.434  12.263   9.844  0.3187 -0.0144 -0.1233
 1857POSM   C4B21793  18.319  12.048  10.261  0.1085 -0.0584  0.2260
 1858DOPE   NH321794  20.804  18.391   8.115 -0.3032  0.2975  0.3302
 1858DOPE   PO421795  20.522  18.269   8.169  0.0419  0.2338 -0.1343
 1858DOPE   GL121796  20.409  18.180   8.506  0.2216 -0.0186  0.0875
 1858DOPE   GL221797  20.609  18.309   8.691 -0.3120 -0.2443  0.1996
 1858DOPE   C1A21798  20.248  17.951   8.893 -0.1279 -0.0812 -0.0611
 1858DOPE   D2A21799  20.144  17.738   9.286  0.1790 -0.1534 -0.0672
 1858DOPE   C3A21800  20.450  17.816   9.634  0.0504  0.1730 -0.4480
 1858DOPE   C4A21801  20.873  17.855   9.838  0.2984 -0.3637  0.2403
 1858DOPE   C1B21802  20.441  18.402   9.083 -0.0548 -0.0284  0.3112
 1858DOPE   D2B21803  20.121  18.444   9.390  0.2560  0.1055 -0.1548
 1858DOPE   C3B21804  20.344  18.615   9.703  0.0098  0.0884  0.1477
 1858DOPE   C4B21805  20.361  18.429  10.109 -0.3411  0.0968  0.1951
 1859DOPE   NH321806  10.510  16.006   8.829  0.2391 -0.1537  0.2066
 1859DOPE   PO421807  10.469  15.982   9.160  0.0901 -0.1573 -0.2154
 1859DOPE   GL121808  10.603  15.829   9.418 -0.5505 -0.0757  0.1747
 1859DOPE   GL221809  10.479  15.776   9.650  0.0528  0.3361 -0.3242
 1859DOPE   C1A21810  10.908  15.541   9.683 -0.0700 -0.2122 -0.0941
 1859DOPE   D2A21811  11.333  15.378   9.817 -0.1068 -0.1192  0.2867
 1859DOPE   C3A21812  11.663  15.537  10.091 -0.0946  0.1212 -0.3136
 1859DOPE   C4A21813  12.126  15.391  10.034  0.0668 -0.1055  0.2125
 1859DOPE   C1B21814  10.466  15.715  10.110  0.0045  0.1073 -0.1655
 1859DOPE   D2B21815  10.370  15.718  10.615 -0.2705 -0.2394  0.0831
 1859DOPE   C3B21816  10.776  15.905  10.746  0.1610  0.1541 -0.0081
 1859DOPE   C4B21817  11.165  16.020  10.940 -0.0650 -0.1809 -0.2001
 1860DOPC   NC321818  17.389  18.845   8.440  0.2663  0.0704 -0.4403
 1860DOPC   PO421819  17.068  18.821   8.674  0.2732 -0.1783 -0.4917
 1860DOPC   GL121820  16.989  18.741   9.057 -0.3124  0.3860 -0.1847
 1860DOPC   GL221821  17.119  18.978   9.223  0.2103 -0.2073  0.2129
 1860DOPC   C1A21822  17.223  18.473   9.308  0.3103 -0.2885  0.3877
 1860DOPC   D2A21823  17.662  18.388   9.355  0.0634 -0.0551  0.1578
 1860DOPC   C3A21824  17.757  17.934   9.564  0.0590 -0.2301 -0.3154
 1860DOPC   C4A21825  17.656  17.449   9.648 -0.0741 -0.1020 -0.2831
 1860DOPC   C1B21826  17.268  19.101   9.631 -0.0764  0.2109  0.1251
 1860DOPC   D2B21827  17.028  19.079   9.974  0.1394 -0.0316 -0.0419
 1860DOPC   C3B21828  17.223  18.857  10.325 -0.1383  0.1271  0.1993
 1860DOPC   C4B21829  17.204  18.720  10.753  0.3939  0.1466 -0.0548
 1861DOPE   NH321830  13.395  19.553   8.712  0.1123  0.0739 -0.4068
 1861DOPE   PO421831  13.527  19.285   8.863 -0.1563  0.2147  0.0834
 1861DOPE   GL121832  13.560  19.126   9.194  0.0458 -0.2563  0.4807
 1861DOPE   GL221833  13.589  18.801   9.364 -0.0814  0.0999 -0.0209
 1861DOPE   C1A21834  13.862  19.119   9.549 -0.0506 -0.0592  0.0140
 1861DOPE   D2A21835  14.303  19.085   9.743 -0.2606 -0.3618  0.2887
 1861DOPE   C3A21836  14.396  19.319  10.184  0.1581  0.0249  0.3366
 1861DOPE   C4A21837  14.404  19.654  10.526 -0.0659  0.2017 -0.1423
 1861DOPE   C1B21838  13.450  18.467   9.717 -0.0361 -0.0509 -0.2871
 1861DOPE   D2B21839  13.406  18.413  10.177 -0.0547  0.1509 -0.0618
 1861DOPE   C3B21840  13.830  18.349  10.420 -0.2179 -0.4131 -0.0416
 1861DOPE   C4B21841  14.161  18.144  10.151  0.2223  0.2513 -0.1895
 1862POSM   NC321842  21.035  16.389   8.555  0.0494  0.7253 -0.3281
 1862POSM   PO421843  20.719  16.579   8.597  0.1682  0.1807 -0.1779
 1862POSM   AM121844  20.599  16.750   8.824  0.0654  0.0156 -0.1619
 1862POSM   AM221845  20.603  16.753   9.076  0.3541  0.0209  0.1894
 1862POSM   T1A21846  20.316  17.107   9.054  0.3276 -0.0913  0.0988
 1862POSM   C2A21847  20.015  17.110   9.366 -0.0016 -0.1204 -0.0919
 1862POSM   C3A21848  19.755  16.923   9.679  0.0454 -0.1065  0.1888
 1862POSM   C1B21849  20.531  16.678   9.345 -0.1986 -0.2328 -0.1897
 1862POSM   D2B21850  20.251  16.591   9.688 -0.1909  0.1561  0.0084
 1862POSM   C3B21851  20.398  16.660  10.091 -0.0705 -0.0447  0.3806
 1862POSM   C4B21852  20.640  16.929  10.284 -0.0558  0.0282  0.0816
 1863DOPC   NC321853  23.141  21.338   8.376 -0.0099  0.1323 -0.0950
 1863DOPC   PO421854  23.441  21.514   8.491  0.1089  0.0109 -0.1845
 1863DOPC   GL121855  23.422  21.480   8.835  0.2682  0.0105  0.0711
 1863DOPC   GL221856  23.257  21.296   8.885 -0.0190  0.0285 -0.0833
 1863DOPC   C1A21857  23.622  21.685   9.271 -0.0815  0.1010 -0.0478
 1863DOPC   D2A21858  23.584  21.699   9.730  0.1111  0.1977  0.4022
 1863DOPC   C3A21859  23.189  21.662   9.922  0.1794 -0.0151  0.1810
 1863DOPC   C4A21860  22.878  21.328  10.040  0.0942  0.0273  0.2698
 1863DOPC   C1B21861  23.373  21.161   9.350 -0.1445 -0.0804 -0.0448
 1863DOPC   D2B21862  23.399  21.184   9.835  0.0911 -0.1693  0.0095
 1863DOPC   C3B21863  23.286  20.791   9.987  0.2293 -0.1008 -0.1493
 1863DOPC   C4B21864  23.368  20.505  10.347  0.0642  0.3135  0.1114
 1864POSM   NC321865  17.291  21.854   8.547 -0.0067  0.2367  0.0585
 1864POSM   PO421866  17.662  21.823   8.636 -0.2113  0.1570 -0.0783
 1864POSM   AM121867  17.602  21.647   8.867 -0.1557 -0.0172  0.0400
 1864POSM   AM221868  17.405  21.629   9.055 -0.0169 -0.0540 -0.0613
 1864POSM   T1A21869  17.851  21.546   9.324  0.1957  0.2677  0.1053
 1864POSM   C2A21870  18.259  21.419   9.514 -0.2342 -0.0656  0.0966
 1864POSM   C3A21871  18.454  21.124   9.722  0.0151 -0.0225  0.0900
 1864POSM   C1B21872  17.249  21.672   9.303  0.1388  0.1205 -0.0992
 1864POSM   D2B21873  17.057  21.656   9.725  0.5999 -0.1137 -0.0813
 1864POSM   C3B21874  17.318  21.516  10.106 -0.1725  0.1804  0.0177
 1864POSM   C4B21875  17.277  21.749  10.495 -0.3735  0.1832 -0.2047
 1865DOPE   NH321876  16.092  12.107   8.565 -0.2678  0.3648 -0.0139
 1865DOPE   PO421877  16.004  11.877   8.776  0.1505 -0.0500 -0.0370
 1865DOPE   GL121878  16.079  11.916   9.129 -0.0327 -0.2110  0.2951
 1865DOPE   GL221879  16.283  12.168   9.073 -0.0644  0.1879  0.0677
 1865DOPE   C1A21880  15.927  12.124   9.486 -0.1145  0.0550  0.1499
 1865DOPE   D2A21881  16.120  12.265   9.844 -0.0232 -0.0278  0.0138
 1865DOPE   C3A21882  16.524  12.121  10.047 -0.2206 -0.2128  0.1648
 1865DOPE   C4A21883  16.881  11.952  10.318  0.0451 -0.0039 -0.0967
 1865DOPE   C1B21884  16.472  12.078   9.480 -0.0833  0.1586 -0.2753
 1865DOPE   D2B21885  16.531  11.689   9.692  0.1853 -0.3139 -0.1213
 1865DOPE   C3B21886  16.401  11.638  10.064 -0.0099  0.1371 -0.1722
 1865DOPE   C4B21887  16.292  11.628  10.499  0.0511  0.0144  0.1068
 1866DOPC   NC321888  21.763  16.545   8.230 -0.1670 -0.1079  0.0076
 1866DOPC   PO421889  21.533  16.702   8.530  0.2094 -0.3198  0.2362
 1866DOPC   GL121890  21.324  16.667   8.891 -0.1698  0.3684 -0.2373
 1866DOPC   GL221891  21.112  16.713   9.021 -0.0277  0.3498 -0.0468
 1866DOPC   C1A21892  21.449  16.798   9.349 -0.0228  0.0897  0.1164
 1866DOPC   D2A21893  21.258  16.943   9.755  0.0633  0.0899 -0.0526
 1866DOPC   C3A21894  21.541  16.756  10.076  0.1489 -0.1524  0.0111
 1866DOPC   C4A21895  21.748  16.592  10.498 -0.0662  0.0809  0.0523
 1866DOPC   C1B21896  20.993  16.445   9.393 -0.0286 -0.0019  0.2218
 1866DOPC   D2B21897  20.666  16.380   9.751  0.0653  0.3578  0.0725
 1866DOPC   C3B21898  20.953  16.514  10.056 -0.0957  0.0874 -0.1201
 1866DOPC   C4B21899  21.102  16.696  10.438 -0.2473 -0.0277  0.1541
 1867DOPE   NH321900  23.154  10.723   9.141  0.0398 -0.3745 -0.0836
 1867DOPE   PO421901  22.952  10.554   9.278 -0.0187  0.1163  0.1234
 1867DOPE   GL121902  22.765  10.792   9.609  0.3084 -0.1667 -0.3282
 1867DOPE   GL221903  22.711  10.547   9.757 -0.1597 -0.1255  0.1610
 1867DOPE   C1A21904  22.632  11.193   9.825 -0.0244 -0.1310 -0.2449
 1867DOPE   D2A21905  22.352  11.193  10.190 -0.1030  0.0245  0.1766
 1867DOPE   C3A21906  21.966  11.371  10.332 -0.1827  0.2336 -0.1906
 1867DOPE   C4A21907  21.701  11.725  10.469  0.1749  0.0224 -0.3526
 1867DOPE   C1B21908  22.871  10.776  10.151 -0.0213 -0.3383 -0.1290
 1867DOPE   D2B21909  23.028  10.957  10.503 -0.3081 -0.1081  0.2098
 1867DOPE   C3B21910  22.898  10.654  10.744 -0.0555 -0.1045 -0.0711
 1867DOPE   C4B21911  23.070  10.460  11.169  0.4870  0.1131  0.1896
 1868POSM   NC321912  12.822  15.083   8.800  0.3544 -0.3437 -0.0628
 1868POSM   PO421913  13.064  15.331   8.626 -0.3723  0.1915 -0.0646
 1868POSM   AM121914  13.102  15.597   8.822 -0.3034  0.1107 -0.1008
 1868POSM   AM221915  13.045  15.737   9.062 -0.3565  0.0040  0.0499
 1868POSM   T1A21916  13.529  15.706   9.083 -0.1751 -0.2612  0.2469
 1868POSM   C2A21917  13.877  16.009   9.157 -0.2479 -0.1360  0.2535
 1868POSM   C3A21918  14.292  16.048   9.395  0.0355  0.0642  0.1227
 1868POSM   C1B21919  13.029  15.767   9.365  0.1330  0.2343 -0.1016
 1868POSM   D2B21920  13.040  15.746   9.845  0.0196  0.0498  0.2794
 1868POSM   C3B21921  12.645  15.651  10.088  0.1308  0.0898  0.0567
 1868POSM   C4B21922  12.588  15.711  10.539 -0.3019 -0.1128  0.2521
 1869DOPC   NC321923  18.038  19.102   8.843 -0.3224 -0.1701  0.2535
 1869DOPC   PO421924  17.835  18.851   8.648  0.1980 -0.4036  0.2046
 1869DOPC   GL121925  17.914  18.698   9.048  0.1383 -0.3458 -0.1989
 1869DOPC   GL221926  18.105  18.510   8.931  0.2057  0.1122 -0.0681
 1869DOPC   C1A21927  18.023  18.685   9.541 -0.1287  0.0223 -0.0084
 1869DOPC   D2A21928  18.381  18.526   9.828 -0.2005  0.1544 -0.2201
 1869DOPC   C3A21929  18.558  18.804  10.129  0.2966 -0.0066 -0.1742
 1869DOPC   C4A21930  18.798  19.152  10.391  0.2786  0.3438 -0.0521
 1869DOPC   C1B21931  18.452  18.628   9.190 -0.1992  0.0024  0.0255
 1869DOPC   D2B21932  18.587  18.918   9.537 -0.1558 -0.2075 -0.3006
 1869DOPC   C3B21933  18.524  19.354   9.711  0.1752  0.0974 -0.1357
 1869DOPC   C4B21934  18.758  19.583   9.998 -0.0596  0.1143 -0.2359
 1870POSM   NC321935  19.901  15.568   9.039 -0.0221  0.2260  0.0689
 1870POSM   PO421936  20.078  15.369   8.764 -0.1163  0.1644  0.0223
 1870POSM   AM121937  20.300  15.410   9.025  0.2450  0.1415  0.3294
 1870POSM   AM221938  20.465  15.543   9.208 -0.2372 -0.1576 -0.1957
 1870POSM   T1A21939  20.267  15.205   9.473  0.5469 -0.0752  0.0361
 1870POSM   C2A21940  20.473  14.925   9.848 -0.0349  0.0226 -0.0921
 1870POSM   C3A21941  20.766  14.907  10.264  0.2649 -0.0981 -0.3232
 1870POSM   C1B21942  20.603  15.643   9.520  0.0606  0.2064  0.0630
 1870POSM   D2B21943  20.832  15.909   9.836  0.1601 -0.4098  0.0557
 1870POSM   C3B21944  21.214  16.045   9.664  0.0758 -0.2444  0.2953
 1870POSM   C4B21945  21.406  16.467   9.710 -0.2081 -0.0619  0.3084
 1871POSM   NC321946  12.637  18.044   9.042  0.2697  0.0800  0.1313
 1871POSM   PO421947  13.012  18.071   8.961  0.1100 -0.0110  0.1113
 1871POSM   AM121948  13.143  17.894   9.201  0.1170  0.0149 -0.0023
 1871POSM   AM221949  13.178  17.590   9.220  0.0233  0.1219  0.0458
 1871POSM   T1A21950  13.208  17.983   9.686 -0.1376 -0.0405 -0.0170
 1871POSM   C2A21951  13.068  18.001  10.113  0.0718 -0.0952  0.0763
 1871POSM   C3A21952  12.644  18.211  10.294  0.2601  0.1932  0.0150
 1871POSM   C1B21953  13.377  17.583   9.525  0.1911  0.2683 -0.0208
 1871POSM   D2B21954  13.429  17.456   9.930 -0.2574 -0.2736  0.2906
 1871POSM   C3B21955  13.710  17.327  10.286  0.2538  0.0253  0.1742
 1871POSM   C4B21956  14.076  17.282  10.571  0.1389 -0.2184 -0.0642
 1872DOPC   NC321957  16.235  13.777   8.294  0.1763  0.2122  0.6308
 1872DOPC   PO421958  16.414  13.899   8.571 -0.3387  0.0969 -0.0334
 1872DOPC   GL121959  16.754  13.899   8.807 -0.0696  0.1790 -0.3554
 1872DOPC   GL221960  16.791  13.587   8.959 -0.2108  0.0723 -0.1122
 1872DOPC   C1A21961  16.914  14.215   9.114 -0.3961  0.0267  0.2419
 1872DOPC   D2A21962  16.854  14.547   9.462  0.2310 -0.0148  0.3528
 1872DOPC   C3A21963  17.235  14.726   9.713 -0.1663  0.1759 -0.0638
 1872DOPC   C4A21964  17.461  14.703  10.097 -0.0896 -0.2150  0.0670
 1872DOPC   C1B21965  16.500  13.909   9.207 -0.0763 -0.1369  0.0868
 1872DOPC   D2B21966  16.305  14.216   9.466 -0.0103  0.3274  0.2269
 1872DOPC   C3B21967  16.229  13.955   9.835  0.2738  0.0626 -0.1204
 1872DOPC   C4B21968  16.232  13.779  10.276 -0.0625 -0.3220 -0.1207
 1873DOPE   NH321969  13.790  12.179   8.938  0.0156 -0.0839  0.2638
 1873DOPE   PO421970  14.031  11.994   9.022  0.1381 -0.0577  0.3362
 1873DOPE   GL121971  14.248  11.996   9.318  0.1003 -0.3626 -0.1211
 1873DOPE   GL221972  14.523  12.145   9.368 -0.1127 -0.0419  0.0282
 1873DOPE   C1A21973  14.236  11.814   9.782  0.1996 -0.1318 -0.3403
 1873DOPE   D2A21974  14.438  11.747  10.188 -0.0444  0.1123  0.0063
 1873DOPE   C3A21975  14.547  11.250  10.218  0.1212 -0.0899 -0.1644
 1873DOPE   C4A21976  14.434  11.020  10.597  0.0151 -0.0539 -0.2676
 1873DOPE   C1B21977  14.321  12.349   9.756 -0.1779 -0.1141 -0.1366
 1873DOPE   D2B21978  14.513  12.717   9.947  0.0475  0.1935 -0.1926
 1873DOPE   C3B21979  14.883  12.846  10.204  0.0719  0.0380 -0.1611
 1873DOPE   C4B21980  15.197  13.227  10.158 -0.1286  0.0555  0.0857
 1874POSM   NC321981  16.475  24.341   9.414  0.1367  0.1525  0.0742
 1874POSM   PO421982  16.131  24.347   9.595  0.1509  0.2179  0.0271
 1874POSM   AM121983  16.323  24.204   9.837 -0.2416  0.4605 -0.3996
 1874POSM   AM221984  16.389  23.926   9.935  0.0870 -0.0309 -0.1630
 1874POSM   T1A21985  16.260  24.172  10.342 -0.1665  0.1824  0.1286
 1874POSM   C2A21986  16.048  23.989  10.741  0.0507  0.0120  0.1477
 1874POSM   C3A21987  15.955  24.086  11.229 -0.1647 -0.0054 -0.0199
 1874POSM   C1B21988  16.657  23.886  10.185  0.2334 -0.1686  0.0986
 1874POSM   D2B21989  16.804  23.562  10.473  0.1155  0.2064 -0.2665
 1874POSM   C3B21990  16.623  23.508  10.885 -0.2918  0.1875 -0.2954
 1874POSM   C4B21991  16.389  23.768  11.166  0.0781 -0.4305 -0.1013
 1875POSM   NC321992  15.064  13.737   9.024 -0.1447  0.1083 -0.1244
 1875POSM   PO421993  15.038  14.119   8.875 -0.0599 -0.0262  0.0729
 1875POSM   AM121994  15.208  14.164   9.169  0.3550  0.0052  0.1364
 1875POSM   AM221995  15.172  14.014   9.418 -0.2454  0.2671 -0.0854
 1875POSM   T1A21996  15.375  14.448   9.605 -0.1178 -0.3760 -0.2551
 1875POSM   C2A21997  15.210  14.744   9.858 -0.0637  0.1725 -0.2634
 1875POSM   C3A21998  15.177  14.564  10.283 -0.2261  0.0342 -0.0547
 1875POSM   C1B21999  15.072  14.025   9.750 -0.0977  0.1633 -0.2240
 1875POSM   D2B22000  14.853  14.194  10.149  0.2083 -0.1244  0.2478
 1875POSM   C3B22001  14.482  13.941  10.324  0.1719 -0.0904  0.1695
 1875POSM   C4B22002  14.439  13.482  10.376 -0.1648  0.0592  0.0219
 1876DOPS   CNO22003  19.357  19.111   7.998  0.1323  0.2855  0.1867
 1876DOPS   PO422004  19.341  18.873   8.290  0.1631  0.2956 -0.3727
 1876DOPS   GL122005  19.426  18.974   8.640 -0.3865 -0.4807 -0.0632
 1876DOPS   GL222006  19.576  18.778   8.756 -0.0051 -0.0194  0.1807
 1876DOPS   C1A22007  19.378  19.305   8.962  0.1455  0.0739 -0.0429
 1876DOPS   D2A22008  19.473  19.483   9.404 -0.1345 -0.0108  0.1403
 1876DOPS   C3A22009  19.563  19.922   9.581 -0.2441 -0.1040 -0.3281
 1876DOPS   C4A22010  19.711  20.327   9.769  0.0020 -0.2208  0.0407
 1876DOPS   C1B22011  19.709  18.949   9.180  0.1165 -0.0568  0.0239
 1876DOPS   D2B22012  19.653  19.102   9.613 -0.0816  0.1127 -0.1097
 1876DOPS   C3B22013  19.978  18.890   9.872 -0.0478  0.0512 -0.0450
 1876DOPS   C4B22014  19.904  18.704  10.272 -0.1637 -0.0222 -0.1110
 1877DOPC   NC322015  16.182  20.569   8.280  0.5490 -0.2721 -0.0738
 1877DOPC   PO422016  16.155  20.230   8.272  0.0517 -0.2134 -0.1590
 1877DOPC   GL122017  16.400  20.129   8.623 -0.1084  0.0426 -0.3680
 1877DOPC   GL222018  16.297  20.160   8.897  0.1756  0.2867  0.2725
 1877DOPC   C1A22019  16.804  20.235   8.815 -0.4149  0.0691 -0.0793
 1877DOPC   D2A22020  17.024  20.523   9.092  0.1332 -0.0919 -0.3110
 1877DOPC   C3A22021  17.375  20.498   9.300  0.0323 -0.0400 -0.0784
 1877DOPC   C4A22022  17.785  20.584   9.308  0.2109 -0.0554 -0.2993
 1877DOPC   C1B22023  16.164  20.198   9.343 -0.0622  0.0263 -0.2961
 1877DOPC   D2B22024  15.825  20.137   9.676 -0.1019 -0.1527  0.4388
 1877DOPC   C3B22025  15.792  20.488   9.855  0.2553  0.3284 -0.3245
 1877DOPC   C4B22026  15.740  20.704  10.274  0.1419 -0.0949 -0.0089
 1878POSM   NC322027   8.919  15.700   9.367  0.1414  0.2037  0.0480
 1878POSM   PO422028   9.042  15.438   9.648  0.0648  0.1731  0.0615
 1878POSM   AM122029   9.177  15.517   9.972 -0.0036  0.0942  0.0317
 1878POSM   AM222030   9.275  15.358  10.181 -0.0103 -0.0162  0.2397
 1878POSM   T1A22031   9.108  15.798  10.407  0.0882 -0.1118  0.1315
 1878POSM   C2A22032   9.003  16.063  10.702 -0.1731 -0.1386  0.0167
 1878POSM   C3A22033   9.240  15.991  11.081 -0.1678 -0.0413 -0.1791
 1878POSM   C1B22034   9.453  15.308  10.461  0.2300 -0.1948  0.1872
 1878POSM   D2B22035   9.822  15.248  10.684 -0.0074  0.0850 -0.1007
 1878POSM   C3B22036   9.893  15.513  11.073 -0.1961 -0.0587  0.0332
 1878POSM   C4B22037  10.011  15.568  11.514 -0.3468  0.0435 -0.3103
 1879DOPE   NH322038  18.008  15.889   8.285 -0.2197 -0.5571 -0.0002
 1879DOPE   PO422039  18.325  15.853   8.364  0.0330 -0.1026 -0.3963
 1879DOPE   GL122040  18.268  15.867   8.792  0.0596 -0.2077  0.1870
 1879DOPE   GL222041  17.911  15.913   8.798  0.0219  0.2705  0.1352
 1879DOPE   C1A22042  18.466  16.185   9.048 -0.1784 -0.4909  0.0795
 1879DOPE   D2A22043  18.538  16.199   9.497  0.0107  0.2611 -0.0145
 1879DOPE   C3A22044  18.439  16.371   9.920 -0.3393 -0.1352 -0.3315
 1879DOPE   C4A22045  18.371  16.759  10.170  0.1067  0.3895 -0.1106
 1879DOPE   C1B22046  17.568  15.566   8.915 -0.0777 -0.0165  0.0536
 1879DOPE   D2B22047  17.304  15.372   8.605 -0.1402 -0.0133 -0.3106
 1879DOPE   C3B22048  17.038  14.998   8.662 -0.2768 -0.1384 -0.1026
 1879DOPE   C4B22049  16.903  14.786   9.037  0.3125 -0.0007 -0.2303
 1880POSM   NC322050  12.795  18.868   8.987 -0.3062 -0.2234  0.0223
 1880POSM   PO422051  12.957  18.542   8.877  0.0006 -0.0953 -0.2239
 1880POSM   AM122052  12.813  18.422   9.152 -0.1455  0.1167 -0.1383
 1880POSM   AM222053  12.935  18.277   9.407  0.1742  0.0248 -0.1678
 1880POSM   T1A22054  12.491  18.290   9.516 -0.1857  0.6018  0.1911
 1880POSM   C2A22055  12.380  18.487   9.935 -0.1390  0.0317 -0.0287
 1880POSM   C3A22056  12.175  18.491  10.331  0.1634 -0.0328 -0.4441
 1880POSM   C1B22057  12.930  18.374   9.719  0.0199  0.1259 -0.0014
 1880POSM   D2B22058  12.963  18.671  10.032 -0.0583 -0.0890  0.3618
 1880POSM   C3B22059  13.209  18.730  10.431 -0.1663  0.1276 -0.0387
 1880POSM   C4B22060  13.606  18.853  10.450 -0.1744  0.0988 -0.2761
 1881POSM   NC322061  16.100  19.593   8.547 -0.0509 -0.1655  0.4652
 1881POSM   PO422062  15.954  19.892   8.722 -0.0755  0.2322  0.1221
 1881POSM   AM122063  15.888  19.896   9.047  0.0803 -0.2550  0.2140
 1881POSM   AM222064  15.639  19.852   9.215 -0.2325  0.0622 -0.1886
 1881POSM   T1A22065  16.048  19.745   9.485 -0.1935 -0.2098  0.1337
 1881POSM   C2A22066  16.093  19.625   9.927  0.2497 -0.0076  0.1042
 1881POSM   C3A22067  16.072  19.795  10.410  0.2957  0.0742  0.1861
 1881POSM   C1B22068  15.429  19.725   9.463  0.0390  0.0319 -0.2144
 1881POSM   D2B22069  15.370  19.648   9.910 -0.0250  0.0246  0.0340
 1881POSM   C3B22070  15.662  19.984  10.150 -0.0034  0.0849 -0.3298
 1881POSM   C4B22071  15.711  20.239  10.544 -0.0410  0.1070 -0.2111
 1882POSM   NC322072  13.805  18.088   8.511  0.2392 -0.0256 -0.0871
 1882POSM   PO422073  13.971  17.823   8.706  0.1227 -0.0060  0.5301
 1882POSM   AM122074  14.036  17.679   8.979 -0.2357  0.4146 -0.4399
 1882POSM   AM222075  14.242  17.545   9.150 -0.1963 -0.0568  0.1870
 1882POSM   T1A22076  13.932  17.584   9.492  0.0113 -0.0670 -0.1202
 1882POSM   C2A22077  13.996  17.273   9.836 -0.1384  0.1229  0.3019
 1882POSM   C3A22078  14.045  16.933  10.157  0.1255 -0.0943  0.2965
 1882POSM   C1B22079  14.448  17.766   9.272  0.3783  0.0785  0.0049
 1882POSM   D2B22080  14.803  17.969   9.428 -0.1475 -0.1446  0.2674
 1882POSM   C3B22081  14.796  18.258   9.784 -0.0175 -0.1468  0.1416
 1882POSM   C4B22082  15.014  18.268  10.169 -0.0771  0.0446  0.0062
 1883DOPS   CNO22083  21.872  17.165   8.814  0.3826  0.0255  0.1197
 1883DOPS   PO422084  21.527  17.100   8.797 -0.0001  0.0500  0.0696
 1883DOPS   GL122085  21.208  17.176   9.015 -0.1879 -0.2112 -0.1385
 1883DOPS   GL222086  21.152  17.422   9.018 -0.3583  0.0412  0.1910
 1883DOPS   C1A22087  20.972  17.035   9.397  0.2494 -0.0054  0.2437
 1883DOPS   D2A22088  20.753  16.910   9.744  0.1583 -0.2005  0.1340
 1883DOPS   C3A22089  20.689  17.281  10.005  0.1055  0.1187  0.1778
 1883DOPS   C4A22090  20.395  17.627  10.076 -0.0916  0.0117 -0.1793
 1883DOPS   C1B22091  21.418  17.415   9.430  0.1751 -0.0878  0.0107
 1883DOPS   D2B22092  21.697  17.309   9.790  0.0169  0.2620  0.0687
 1883DOPS   C3B22093  21.858  16.888   9.693 -0.0039  0.0027 -0.1542
 1883DOPS   C4B22094  22.101  16.529   9.687 -0.2475 -0.0032  0.4452
 1884POSM   NC322095  16.289  10.922   8.630 -0.2517 -0.2137  0.1104
 1884POSM   PO422096  16.037  11.205   8.559 -0.0337  0.2760  0.1086
 1884POSM   AM122097  16.075  11.325   8.871  0.1679 -0.2967 -0.4012
 1884POSM   AM222098  15.920  11.460   9.055 -0.0688 -0.1488  0.0693
 1884POSM   T1A22099  16.369  11.181   9.295  0.1410  0.1469  0.0351
 1884POSM   C2A22100  16.754  11.020   9.566  0.2070  0.0688  0.0336
 1884POSM   C3A22101  17.115  10.846   9.806  0.0215  0.3414  0.0438
 1884POSM   C1B22102  15.990  11.561   9.380  0.0236 -0.2166 -0.0863
 1884POSM   D2B22103  15.965  11.734   9.778 -0.0953  0.0084 -0.1783
 1884POSM   C3B22104  15.835  11.498  10.148  0.0242 -0.0498  0.0626
 1884POSM   C4B22105  15.538  11.329  10.433 -0.1912  0.1438  0.0026
 1885DOPE   NH322106  23.882  16.055   9.156  0.0063 -0.1365 -0.0614
 1885DOPE   PO422107  23.769  16.309   9.061  0.1960 -0.0320  0.1359
 1885DOPE   GL122108  23.623  16.320   9.440 -0.0326 -0.0831  0.3576
 1885DOPE   GL222109  23.270  16.342   9.369  0.1766 -0.0144 -0.3101
 1885DOPE   C1A22110  23.717  16.628   9.818 -0.1222  0.1317  0.1571
 1885DOPE   D2A22111  23.735  16.761  10.240 -0.0384  0.2866 -0.4357
 1885DOPE   C3A22112  23.523  16.685  10.614 -0.0402 -0.0496  0.1601
 1885DOPE   C4A22113  23.152  16.548  10.805 -0.5145  0.0737  0.1058
 1885DOPE   C1B22114  23.402  16.165   9.780  0.1024 -0.0951  0.0966
 1885DOPE   D2B22115  23.432  16.325  10.148 -0.2404  0.1230 -0.1726
 1885DOPE   C3B22116  23.012  16.332  10.406  0.0626  0.0775 -0.1128
 1885DOPE   C4B22117  22.537  16.421  10.582 -0.1358 -0.5579  0.0326
 1886DOPE   NH322118  22.590  23.009   8.885 -0.3163 -0.5276 -0.1110
 1886DOPE   PO422119  22.664  23.313   8.772 -0.0247  0.3655  0.0637
 1886DOPE   GL122120  22.723  23.427   9.147 -0.1441  0.0003  0.1526
 1886DOPE   GL222121  22.829  23.232   9.282  0.0313 -0.2592  0.2068
 1886DOPE   C1A22122  22.868  23.662   9.484  0.3005 -0.2695 -0.2897
 1886DOPE   D2A22123  22.712  23.573   9.925 -0.0908 -0.2528  0.0691
 1886DOPE   C3A22124  23.159  23.558  10.118 -0.1690  0.2105 -0.1389
 1886DOPE   C4A22125  23.531  23.373  10.264 -0.1394  0.0758  0.2308
 1886DOPE   C1B22126  23.008  23.291   9.694  0.0480 -0.1654  0.0985
 1886DOPE   D2B22127  22.947  23.097  10.129 -0.1201 -0.1945 -0.1176
 1886DOPE   C3B22128  22.806  23.433  10.410  0.1331  0.0862 -0.1996
 1886DOPE   C4B22129  22.349  23.549  10.498 -0.2595  0.1047 -0.1411
 1887DOPE   NH322130  16.868  17.775   7.966 -0.1235 -0.1063 -0.0928
 1887DOPE   PO422131  16.913  17.674   8.286 -0.3414  0.0030 -0.0958
 1887DOPE   GL122132  16.828  17.778   8.723  0.2216 -0.1036  0.2120
 1887DOPE   GL222133  16.743  18.059   8.841 -0.0589  0.0971 -0.2065
 1887DOPE   C1A22134  17.046  17.713   9.097 -0.0614  0.0129  0.2436
 1887DOPE   D2A22135  17.330  17.751   9.478 -0.0547  0.1343  0.0926
 1887DOPE   C3A22136  17.213  17.680   9.880 -0.0542 -0.1479 -0.0023
 1887DOPE   C4A22137  17.415  17.578  10.317 -0.1201  0.0104 -0.1220
 1887DOPE   C1B22138  16.785  18.296   9.264  0.1774  0.0434  0.3394
 1887DOPE   D2B22139  16.998  18.101   9.652 -0.2830 -0.0003  0.0852
 1887DOPE   C3B22140  17.421  18.277   9.735  0.2381 -0.2947 -0.0660
 1887DOPE   C4B22141  17.618  18.720   9.824 -0.3667  0.1226  0.1298
 1888DOPE   NH322142  12.549  11.728   9.833  0.0177 -0.2291 -0.1627
 1888DOPE   PO422143  12.364  12.011   9.881  0.2051 -0.0759  0.0550
 1888DOPE   GL122144  12.714  12.190   9.986 -0.0627  0.0675 -0.6733
 1888DOPE   GL222145  12.590  12.355  10.190 -0.1022  0.0085 -0.0757
 1888DOPE   C1A22146  13.127  12.373  10.123 -0.1669  0.2579  0.3056
 1888DOPE   D2A22147  13.240  12.698  10.322 -0.0415  0.4662  0.2312
 1888DOPE   C3A22148  13.541  12.837  10.665  0.1683 -0.3205 -0.0382
 1888DOPE   C4A22149  14.067  12.888  10.724 -0.0600  0.1317  0.5759
 1888DOPE   C1B22150  12.853  12.049  10.345  0.3007  0.1078 -0.2023
 1888DOPE   D2B22151  12.987  11.714  10.668  0.1993 -0.1411  0.3937
 1888DOPE   C3B22152  13.261  11.778  11.076 -0.0016  0.1514  0.0873
 1888DOPE   C4B22153  13.421  11.917  11.494  0.3067 -0.2607 -0.0689
 1889POSM   NC322154  10.324  13.177   9.892  0.2085 -0.1029 -0.0311
 1889POSM   PO422155  10.676  13.367   9.944  0.2457  0.2289 -0.0074
 1889POSM   AM122156  10.838  13.407  10.217  0.1847  0.2963 -0.0494
 1889POSM   AM222157  10.774  13.600  10.417 -0.1200  0.1098  0.0720
 1889POSM   T1A22158  11.069  13.321  10.630  0.0923  0.4256  0.3018
 1889POSM   C2A22159  11.165  13.329  11.046  0.2273  0.1185  0.0751
 1889POSM   C3A22160  11.258  13.259  11.521 -0.0231 -0.0421  0.1877
 1889POSM   C1B22161  10.876  13.728  10.754 -0.1356 -0.0076 -0.1017
 1889POSM   D2B22162  11.099  13.857  11.101 -0.0749 -0.0496 -0.0501
 1889POSM   C3B22163  10.981  14.282  11.150  0.2093  0.1127 -0.2721
 1889POSM   C4B22164  11.058  14.699  11.350  0.3918  0.0154 -0.2436
 1890DOPC   NC322165  24.838  22.337   8.876  0.1577 -0.0790  0.0101
 1890DOPC   PO422166  24.822  22.749   8.821 -0.0508  0.1213 -0.2489
 1890DOPC   GL122167  25.032  22.855   9.112  0.0498 -0.1545  0.1623
 1890DOPC   GL222168  24.930  23.114   9.194 -0.0728 -0.0601 -0.0681
 1890DOPC   C1A22169  25.006  22.866   9.618 -0.1378 -0.3386  0.1407
 1890DOPC   D2A22170  24.772  22.802  10.021  0.0721  0.1488 -0.0006
 1890DOPC   C3A22171  25.084  22.834  10.452 -0.0334 -0.1307  0.1363
 1890DOPC   C4A22172  25.214  22.808  10.889  0.2094 -0.0615 -0.0085
 1890DOPC   C1B22173  24.975  23.361   9.576 -0.0762  0.0724 -0.1658
 1890DOPC   D2B22174  25.009  23.360  10.054 -0.1050 -0.0384 -0.2553
 1890DOPC   C3B22175  24.763  23.195  10.397  0.0285 -0.1323 -0.1622
 1890DOPC   C4B22176  24.756  22.998  10.785 -0.1238 -0.1698 -0.1566
 1891DOPC   NC322177  18.031  20.071   8.592 -0.1073  0.0132 -0.1280
 1891DOPC   PO422178  17.784  20.299   8.329 -0.0063  0.2929  0.2277
 1891DOPC   GL122179  17.651  20.347   8.788 -0.0422 -0.0873 -0.0646
 1891DOPC   GL222180  17.374  20.301   8.767  0.0345  0.0195  0.0690
 1891DOPC   C1A22181  17.595  20.041   9.130 -0.0635  0.0833  0.0749
 1891DOPC   D2A22182  17.352  20.020   9.545  0.1024  0.0852 -0.0207
 1891DOPC   C3A22183  17.245  20.311   9.878  0.2948  0.0334  0.0991
 1891DOPC   C4A22184  17.350  20.567  10.183 -0.0463 -0.2548 -0.3201
 1891DOPC   C1B22185  17.451  20.784   8.884  0.0946  0.0387 -0.1390
 1891DOPC   D2B22186  17.531  21.011   9.283  0.2116 -0.0211 -0.0209
 1891DOPC   C3B22187  17.508  21.285   9.670  0.1207  0.3204  0.0679
 1891DOPC   C4B22188  17.856  21.498   9.908 -0.1769 -0.1005 -0.0605
 1892POSM   NC322189  11.745  14.986   8.791  0.0351 -0.0689  0.1959
 1892POSM   PO422190  11.532  15.134   9.064  0.2711  0.0477 -0.8033
 1892POSM   AM122191  11.760  15.036   9.285 -0.2433 -0.0013 -0.1483
 1892POSM   AM222192  11.997  15.160   9.349 -0.6105 -0.2078 -0.1113
 1892POSM   T1A22193  11.846  15.054   9.779  0.0804  0.2337  0.0467
 1892POSM   C2A22194  11.670  14.977  10.228 -0.0020 -0.1101 -0.0542
 1892POSM   C3A22195  11.485  14.916  10.675  0.0427 -0.1165  0.1476
 1892POSM   C1B22196  12.283  15.129   9.505  0.2291 -0.1178  0.0610
 1892POSM   D2B22197  12.691  15.151   9.372  0.0495  0.4055 -0.1843
 1892POSM   C3B22198  13.073  15.279   9.583  0.5397 -0.0613  0.0706
 1892POSM   C4B22199  13.064  15.337  10.057 -0.0714 -0.2389 -0.0663
 1893POSM   NC322200  21.640  18.759   8.477 -0.0569  0.0066 -0.1302
 1893POSM   PO422201  22.020  18.808   8.354  0.2786 -0.2293  0.1584
 1893POSM   AM122202  22.011  19.012   8.616 -0.0784 -0.2478  0.1140
 1893POSM   AM222203  21.936  19.251   8.697  0.0295 -0.0218 -0.1369
 1893POSM   T1A22204  21.954  18.996   9.121 -0.0820 -0.2066 -0.1083
 1893POSM   C2A22205  21.924  18.943   9.575  0.2789  0.1319 -0.0893
 1893POSM   C3A22206  21.914  18.938  10.045 -0.0804 -0.0527 -0.0052
 1893POSM   C1B22207  22.097  19.504   8.870  0.0084 -0.0652 -0.2392
 1893POSM   D2B22208  22.075  19.912   9.031 -0.1286 -0.1411  0.2784
 1893POSM   C3B22209  22.022  19.854   9.474 -0.0257  0.0349 -0.2667
 1893POSM   C4B22210  21.876  19.925   9.903 -0.0636  0.2178 -0.1572
 1894DOPS   CNO22211  19.272  17.089   8.066  0.1833 -0.0110  0.1929
 1894DOPS   PO422212  19.372  16.739   8.196  0.0708 -0.3957  0.0931
 1894DOPS   GL122213  19.526  16.927   8.492 -0.2328  0.3128 -0.3081
 1894DOPS   GL222214  19.397  17.159   8.667 -0.1114 -0.3924 -0.0389
 1894DOPS   C1A22215  19.483  16.752   8.990 -0.0930 -0.3789 -0.1059
 1894DOPS   D2A22216  19.384  16.600   9.443 -0.0112 -0.0295 -0.1153
 1894DOPS   C3A22217  19.425  16.581   9.919 -0.0720 -0.0694  0.1435
 1894DOPS   C4A22218  19.777  16.737  10.142  0.1305  0.1676 -0.1167
 1894DOPS   C1B22219  19.529  17.237   9.088 -0.2381 -0.1406 -0.1670
 1894DOPS   D2B22220  19.511  17.354   9.566  0.0124  0.0076 -0.3757
 1894DOPS   C3B22221  19.390  17.757   9.811 -0.1408 -0.2637  0.3799
 1894DOPS   C4B22222  18.959  17.931   9.755  0.1165 -0.1532  0.1261
 1895DOPE   NH322223  22.853  18.734   8.540 -0.0187  0.1188 -0.1287
 1895DOPE   PO422224  22.824  18.635   8.824 -0.0082  0.1768 -0.1719
 1895DOPE   GL122225  22.595  18.489   9.126 -0.0235  0.0481 -0.2944
 1895DOPE   GL222226  22.776  18.614   9.337  0.1303  0.1599  0.0913
 1895DOPE   C1A22227  22.289  18.471   9.492 -0.5340  0.0017 -0.1347
 1895DOPE   D2A22228  22.019  18.440   9.922 -0.0831 -0.1462  0.0998
 1895DOPE   C3A22229  22.176  18.222  10.290 -0.0699 -0.3342  0.1289
 1895DOPE   C4A22230  22.280  17.939  10.642  0.1548 -0.2205  0.2859
 1895DOPE   C1B22231  22.507  18.946   9.329  0.3947 -0.0239 -0.1038
 1895DOPE   D2B22232  22.241  19.300   9.320 -0.1446 -0.0090  0.1093
 1895DOPE   C3B22233  21.782  19.391   9.254  0.0901  0.1406 -0.0559
 1895DOPE   C4B22234  21.449  19.235   8.961  0.1105  0.1489  0.1612
 1896DOPC   NC322235  17.357  15.886   8.580 -0.1251  0.0745 -0.1688
 1896DOPC   PO422236  17.459  16.112   8.275  0.1548  0.1609 -0.1856
 1896DOPC   GL122237  17.547  16.291   8.748 -0.5571  0.1581  0.1237
 1896DOPC   GL222238  17.321  16.414   8.839  0.0709  0.1135  0.0061
 1896DOPC   C1A22239  17.555  16.062   9.110 -0.1220  0.0651 -0.1215
 1896DOPC   D2A22240  17.733  15.832   9.432 -0.1193 -0.3884 -0.1986
 1896DOPC   C3A22241  17.830  16.034   9.832 -0.0912 -0.1502  0.0110
 1896DOPC   C4A22242  17.932  16.399  10.106  0.0128  0.0603  0.0309
 1896DOPC   C1B22243  17.587  16.749   9.015 -0.1163  0.2792  0.0152
 1896DOPC   D2B22244  17.634  17.141   9.283 -0.0328 -0.1417  0.1224
 1896DOPC   C3B22245  17.685  17.612   9.189  0.0758 -0.2564 -0.0625
 1896DOPC   C4B22246  17.460  18.038   9.079 -0.0450 -0.5139  0.1538
 1897DOPC   NC322247  18.223  19.454   8.038  0.3344  0.1178  0.3807
 1897DOPC   PO422248  18.012  19.746   8.209  0.0039 -0.0807 -0.0762
 1897DOPC   GL122249  18.080  19.626   8.579  0.0660  0.1725 -0.2185
 1897DOPC   GL222250  18.335  19.471   8.525 -0.2047 -0.1729 -0.0377
 1897DOPC   C1A22251  17.873  19.647   9.002 -0.0279 -0.2772  0.1653
 1897DOPC   D2A22252  17.941  19.567   9.435 -0.2375  0.2747  0.3539
 1897DOPC   C3A22253  18.107  19.550   9.822  0.2072  0.1814 -0.2221
 1897DOPC   C4A22254  18.261  19.673  10.234 -0.2237  0.0552  0.3161
 1897DOPC   C1B22255  18.331  19.503   8.996  0.2674  0.0573 -0.0203
 1897DOPC   D2B22256  18.658  19.554   9.274  0.0174 -0.2282 -0.1869
 1897DOPC   C3B22257  19.028  19.339   9.536  0.3342 -0.2720 -0.1901
 1897DOPC   C4B22258  18.974  19.061   9.908  0.0884  0.3833  0.0412
 1898DOPC   NC322259  15.570  20.737   8.801 -0.1883 -0.2639 -0.0473
 1898DOPC   PO422260  15.689  21.024   8.567 -0.1320 -0.1576  0.0596
 1898DOPC   GL122261  15.868  21.097   8.949  0.2236 -0.1295 -0.1651
 1898DOPC   GL222262  15.961  21.380   9.020 -0.1353 -0.2880  0.1657
 1898DOPC   C1A22263  16.291  21.078   9.215  0.2756 -0.1565  0.0753
 1898DOPC   D2A22264  16.620  21.211   9.504 -0.1807  0.1245  0.0371
 1898DOPC   C3A22265  16.632  20.890   9.840  0.0847 -0.2283 -0.1931
 1898DOPC   C4A22266  16.531  20.533  10.249  0.3456  0.1460  0.2007
 1898DOPC   C1B22267  15.868  21.200   9.453 -0.2520 -0.1140 -0.2175
 1898DOPC   D2B22268  15.538  21.474   9.727  0.0035  0.1183  0.1187
 1898DOPC   C3B22269  15.654  21.446  10.201  0.2378 -0.2409 -0.2611
 1898DOPC   C4B22270  15.873  21.627  10.581 -0.0703  0.1062 -0.1024
 1899DOPE   NH322271  17.511  13.142   8.598  0.2842  0.4155 -0.0381
 1899DOPE   PO422272  17.853  13.153   8.595 -0.1497 -0.0773  0.1592
 1899DOPE   GL122273  17.748  12.999   8.981 -0.2160 -0.0106 -0.0833
 1899DOPE   GL222274  17.931  13.150   9.128 -0.2088  0.1959  0.1268
 1899DOPE   C1A22275  17.547  13.069   9.411 -0.0530 -0.0328  0.0998
 1899DOPE   D2A22276  17.506  12.866   9.789  0.0926  0.2518  0.0311
 1899DOPE   C3A22277  17.050  12.795   9.947 -0.2699 -0.0820 -0.0558
 1899DOPE   C4A22278  16.819  12.520  10.241 -0.0094 -0.2373 -0.5485
 1899DOPE   C1B22279  18.287  13.407   9.264 -0.0395  0.2106  0.1072
 1899DOPE   D2B22280  18.662  13.540   9.490  0.1283  0.1476  0.1543
 1899DOPE   C3B22281  19.069  13.476   9.677 -0.2273 -0.2490 -0.4140
 1899DOPE   C4B22282  19.512  13.363   9.770  0.0037 -0.2325 -0.1683
 1900DOPC   NC322283  22.905  19.661   8.607  0.0048 -0.1598 -0.2537
 1900DOPC   PO422284  22.924  19.991   8.430  0.3364  0.0423  0.0133
 1900DOPC   GL122285  22.990  20.157   8.773  0.1763 -0.0482 -0.0696
 1900DOPC   GL222286  22.964  20.458   8.851 -0.0586 -0.2209  0.2067
 1900DOPC   C1A22287  22.937  20.086   9.249  0.2200  0.1918  0.2846
 1900DOPC   D2A22288  22.873  20.000   9.661  0.1713 -0.0822  0.2633
 1900DOPC   C3A22289  23.281  19.825   9.829 -0.0226  0.1817  0.1294
 1900DOPC   C4A22290  23.675  19.750   9.957  0.1036  0.1433  0.4749
 1900DOPC   C1B22291  23.215  20.473   9.221  0.1559 -0.1524  0.2424
 1900DOPC   D2B22292  23.323  20.495   9.605  0.2357 -0.0010  0.5482
 1900DOPC   C3B22293  23.585  20.272   9.926  0.0250 -0.1462 -0.1810
 1900DOPC   C4B22294  23.960  20.170  10.154 -0.3066  0.0475 -0.1983
 1901POSM   NC322295  13.621  13.729   8.709  0.1860 -0.2324  0.0227
 1901POSM   PO422296  13.585  13.362   8.637  0.1660  0.1220  0.0042
 1901POSM   AM122297  13.752  13.311   8.911  0.2429 -0.0294 -0.1554
 1901POSM   AM222298  13.934  13.480   9.026  0.0078  0.0447 -0.0102
 1901POSM   T1A22299  13.781  13.147   9.403  0.2435 -0.0367 -0.1474
 1901POSM   C2A22300  13.666  13.158   9.862  0.0222 -0.0837 -0.0621
 1901POSM   C3A22301  13.811  12.978  10.254 -0.0905 -0.1349  0.3670
 1901POSM   C1B22302  13.982  13.634   9.307  0.3307 -0.0662 -0.1199
 1901POSM   D2B22303  13.910  13.607   9.740 -0.1868 -0.3804 -0.3294
 1901POSM   C3B22304  14.359  13.617   9.860  0.3060  0.3564  0.2056
 1901POSM   C4B22305  14.662  13.580   9.535 -0.1679  0.0923 -0.0342
 1902DOPS   CNO22306  11.513   9.571  10.921  0.2124 -0.1918  0.2744
 1902DOPS   PO422307  11.347   9.916  11.024  0.1188  0.1075  0.0388
 1902DOPS   GL122308  11.523  10.121  11.165 -0.0810  0.5578 -0.1174
 1902DOPS   GL222309  11.516  10.056  11.436 -0.1025  0.2046  0.1269
 1902DOPS   C1A22310  11.586  10.545  11.344 -0.1728 -0.1832 -0.0135
 1902DOPS   D2A22311  11.613  10.870  11.650 -0.1394 -0.0475 -0.3108
 1902DOPS   C3A22312  11.975  10.812  11.890 -0.0378 -0.0107  0.2720
 1902DOPS   C4A22313  12.309  10.516  11.734  0.1953 -0.4825  0.1976
 1902DOPS   C1B22314  11.471   9.953  11.908 -0.4339  0.1546  0.1374
 1902DOPS   D2B22315  11.288   9.864  12.302  0.0279 -0.0691 -0.0971
 1902DOPS   C3B22316  11.322  10.218  12.547  0.2348 -0.1886  0.1235
 1902DOPS   C4B22317  11.647  10.499  12.624 -0.1614  0.0765 -0.0906
 1903DOPE   NH322318  14.046  17.256   8.756 -0.3547  0.1260 -0.0778
 1903DOPE   PO422319  14.084  16.923   8.728  0.3308  0.0245  0.1353
 1903DOPE   GL122320  14.256  16.862   9.070 -0.2080  0.0617 -0.1511
 1903DOPE   GL222321  14.143  17.045   9.232  0.0546  0.3632  0.0778
 1903DOPE   C1A22322  14.253  16.581   9.438  0.1943  0.0662  0.0769
 1903DOPE   D2A22323  14.514  16.346   9.724 -0.1317  0.1685  0.0567
 1903DOPE   C3A22324  14.498  16.126  10.128 -0.0859 -0.3048  0.0793
 1903DOPE   C4A22325  14.574  15.946  10.573 -0.0054 -0.3625 -0.0283
 1903DOPE   C1B22326  14.374  17.107   9.576 -0.3054  0.0014 -0.0947
 1903DOPE   D2B22327  14.442  16.823   9.893 -0.1831 -0.2085  0.0773
 1903DOPE   C3B22328  14.737  16.607  10.115 -0.1073  0.1904  0.2800
 1903DOPE   C4B22329  14.905  16.348  10.466 -0.0024  0.2020 -0.3466
 1904POSM   NC322330   9.451  12.814  10.391  0.3559 -0.1022 -0.1366
 1904POSM   PO422331   9.430  13.132  10.143  0.2667 -0.0820 -0.1157
 1904POSM   AM122332   9.523  13.254  10.448 -0.1134  0.2204 -0.1005
 1904POSM   AM222333   9.703  13.450  10.595  0.2800  0.1564  0.0914
 1904POSM   T1A22334   9.478  13.117  10.912  0.0807  0.1537 -0.6047
 1904POSM   C2A22335   9.639  13.119  11.315  0.4578  0.0584  0.1650
 1904POSM   C3A22336   9.449  13.171  11.743  0.1437  0.2599  0.1766
 1904POSM   C1B22337   9.980  13.726  10.654  0.2217 -0.3383  0.0705
 1904POSM   D2B22338  10.178  13.987  10.936 -0.3077  0.1060 -0.1183
 1904POSM   C3B22339  10.115  14.229  11.332  0.2774  0.4141  0.0002
 1904POSM   C4B22340  10.054  14.453  11.746 -0.3601 -0.0289 -0.0367
 1905DOPC   NC322341  16.787  17.298   8.826 -0.1206 -0.2136  0.1046
 1905DOPC   PO422342  16.559  17.110   8.597  0.1968 -0.1741  0.0246
 1905DOPC   GL122343  16.394  16.919   8.943 -0.2306  0.0535 -0.3326
 1905DOPC   GL222344  16.376  17.226   9.064 -0.1141  0.0004 -0.1442
 1905DOPC   C1A22345  16.200  16.873   9.367  0.2532 -0.0283  0.0123
 1905DOPC   D2A22346  16.060  16.987   9.785  0.1657 -0.3019 -0.0624
 1905DOPC   C3A22347  16.373  16.775  10.111  0.0134  0.0196 -0.2647
 1905DOPC   C4A22348  16.587  16.692  10.467 -0.1798  0.2354  0.0367
 1905DOPC   C1B22349  16.746  17.156   9.305  0.2870 -0.1113  0.0842
 1905DOPC   D2B22350  17.085  17.233   9.619  0.2615 -0.2570 -0.0444
 1905DOPC   C3B22351  17.406  16.949   9.691  0.1316 -0.0263 -0.1754
 1905DOPC   C4B22352  17.663  16.791   9.966 -0.0244  0.0511 -0.0554
 1906DOPS   CNO22353  12.930   9.960   9.415  0.1650  0.1993 -0.2137
 1906DOPS   PO422354  12.777  10.159   9.667 -0.1966  0.1873 -0.0650
 1906DOPS   GL122355  12.947  10.437  10.027 -0.1294  0.2054  0.0872
 1906DOPS   GL222356  13.033  10.340  10.240  0.0167  0.1249 -0.0285
 1906DOPS   C1A22357  13.327  10.716  10.204  0.2369  0.0047 -0.0220
 1906DOPS   D2A22358  13.435  10.928  10.563 -0.1514  0.1666 -0.1833
 1906DOPS   C3A22359  13.491  11.324  10.732 -0.2878 -0.2881 -0.3601
 1906DOPS   C4A22360  13.625  11.778  10.705  0.0408 -0.3074 -0.2212
 1906DOPS   C1B22361  13.265  10.312  10.607 -0.0476  0.2717  0.1680
 1906DOPS   D2B22362  13.664  10.334  10.807  0.1844  0.1216  0.0159
 1906DOPS   C3B22363  13.923  10.431  11.193  0.2486 -0.1529  0.3877
 1906DOPS   C4B22364  13.773  10.314  11.635  0.0901  0.1854 -0.3412
 1907DOPC   NC322365  14.089  14.946   8.921 -0.3866  0.0288  0.0086
 1907DOPC   PO422366  13.721  15.055   8.990  0.1733  0.1683 -0.1059
 1907DOPC   GL122367  13.837  15.140   9.360 -0.1906  0.0530 -0.0688
 1907DOPC   GL222368  14.017  14.958   9.440  0.1300 -0.0776 -0.0421
 1907DOPC   C1A22369  13.961  15.471   9.639 -0.1575 -0.4144 -0.0427
 1907DOPC   D2A22370  14.278  15.736   9.864  0.0318 -0.1521  0.2193
 1907DOPC   C3A22371  14.038  15.936  10.217 -0.2807 -0.0399 -0.1996
 1907DOPC   C4A22372  13.861  15.799  10.616 -0.0652 -0.0871 -0.0154
 1907DOPC   C1B22373  13.799  14.583   9.616  0.0048 -0.1167 -0.0502
 1907DOPC   D2B22374  13.366  14.408   9.830  0.0940 -0.3496  0.1653
 1907DOPC   C3B22375  13.354  14.359  10.301 -0.1814 -0.0114  0.2608
 1907DOPC   C4B22376  13.065  14.555  10.568 -0.2863  0.0557  0.2386
 1908DOPC   NC322377  16.582  16.532   8.657 -0.0109 -0.0127 -0.1220
 1908DOPC   PO422378  16.910  16.740   8.685  0.2508 -0.1579  0.0686
 1908DOPC   GL122379  16.878  16.527   9.008  0.2369 -0.0640 -0.0249
 1908DOPC   GL222380  16.677  16.634   9.166 -0.0749 -0.4902 -0.2706
 1908DOPC   C1A22381  17.028  16.181   9.265 -0.1443  0.1616 -0.0295
 1908DOPC   D2A22382  17.267  15.999   9.609 -0.1718  0.0397 -0.0656
 1908DOPC   C3A22383  17.302  16.253   9.973 -0.1348 -0.1655 -0.0111
 1908DOPC   C4A22384  17.534  16.104  10.335  0.1513  0.3468  0.2581
 1908DOPC   C1B22385  16.795  16.687   9.607  0.0707  0.2954  0.2596
 1908DOPC   D2B22386  16.899  16.781  10.067 -0.1153 -0.2922  0.1569
 1908DOPC   C3B22387  17.253  16.675  10.240 -0.3803 -0.1005 -0.0089
 1908DOPC   C4B22388  17.513  16.543  10.585 -0.0804 -0.3087  0.2325
 1909DOPE   NH322389  17.876  14.530   8.723  0.0989  0.2173  0.2288
 1909DOPE   PO422390  17.567  14.606   8.611 -0.0499  0.0590 -0.1137
 1909DOPE   GL122391  17.585  14.849   8.880 -0.1957 -0.0628  0.1395
 1909DOPE   GL222392  17.669  15.099   8.837 -0.1810 -0.1712  0.0242
 1909DOPE   C1A22393  17.268  15.107   9.126 -0.5207  0.2312 -0.1074
 1909DOPE   D2A22394  16.846  15.283   9.109 -0.0156  0.1053  0.0637
 1909DOPE   C3A22395  16.545  14.962   9.278  0.0280 -0.1234 -0.1158
 1909DOPE   C4A22396  16.418  14.678   9.650  0.4182 -0.1558  0.0516
 1909DOPE   C1B22397  17.831  14.894   9.211 -0.0671 -0.1807 -0.0677
 1909DOPE   D2B22398  18.094  14.515   9.287  0.0820 -0.0040  0.1182
 1909DOPE   C3B22399  17.815  14.423   9.638 -0.0021  0.3160  0.1947
 1909DOPE   C4B22400  17.827  14.195  10.057  0.1912  0.3696  0.2171
 1910DOPC   NC322401  12.416  13.449   9.586 -0.0235  0.0481 -0.0140
 1910DOPC   PO422402  12.046  13.327   9.582  0.3392 -0.3252 -0.1054
 1910DOPC   GL122403  12.012  13.532   9.975 -0.0792  0.0117 -0.1881
 1910DOPC   GL222404  12.250  13.773   9.949  0.1323 -0.1411  0.2809
 1910DOPC   C1A22405  11.884  13.520  10.426  0.1875 -0.0065  0.1477
 1910DOPC   D2A22406  12.017  13.541  10.889  0.2185 -0.0251  0.3541
 1910DOPC   C3A22407  12.072  13.970  11.068  0.0163 -0.1101  0.3104
 1910DOPC   C4A22408  12.100  14.077  11.474 -0.2557 -0.0317 -0.0907
 1910DOPC   C1B22409  12.651  13.957  10.148 -0.1894  0.0534 -0.1941
 1910DOPC   D2B22410  12.961  14.028  10.481 -0.1962 -0.0857  0.0403
 1910DOPC   C3B22411  12.759  14.072  10.865 -0.2715 -0.1214  0.0404
 1910DOPC   C4B22412  12.592  14.163  11.272  0.3169 -0.1199  0.3396
 1911DOPC   NC322413  19.182  22.133   8.362  0.2329  0.1567  0.1030
 1911DOPC   PO422414  19.286  21.837   8.610  0.4049  0.0852  0.1665
 1911DOPC   GL122415  19.180  21.901   9.054  0.0847 -0.1005  0.1010
 1911DOPC   GL222416  19.392  22.026   9.127 -0.1402 -0.1452 -0.0334
 1911DOPC   C1A22417  18.961  22.215   9.365 -0.1201 -0.0835 -0.0094
 1911DOPC   D2A22418  19.065  22.644   9.596 -0.2169  0.2790  0.1758
 1911DOPC   C3A22419  19.029  22.877  10.022 -0.3485  0.2052 -0.1073
 1911DOPC   C4A22420  19.122  22.899  10.440 -0.4227  0.0506 -0.0555
 1911DOPC   C1B22421  19.495  22.179   9.549 -0.0841 -0.2088 -0.0429
 1911DOPC   D2B22422  19.365  21.904   9.921 -0.0879  0.0390  0.2486
 1911DOPC   C3B22423  19.014  21.587   9.990 -0.0716  0.3334  0.2346
 1911DOPC   C4B22424  18.568  21.517  10.022 -0.1300 -0.2399 -0.2010
 1912POSM   NC322425  15.913  23.380   9.011 -0.1136  0.0656 -0.2588
 1912POSM   PO422426  16.126  23.151   9.241  0.0894 -0.0500 -0.2179
 1912POSM   AM122427  16.295  22.959   9.429  0.1923  0.3187  0.2237
 1912POSM   AM222428  16.272  22.753   9.635  0.0397 -0.1428  0.1213
 1912POSM   T1A22429  16.772  23.025   9.623  0.1412 -0.2236  0.1224
 1912POSM   C2A22430  16.940  23.119  10.078  0.1308 -0.2299 -0.0095
 1912POSM   C3A22431  17.199  22.924  10.389  0.1196  0.1349 -0.1333
 1912POSM   C1B22432  16.384  22.972   9.903 -0.3423  0.3371 -0.0088
 1912POSM   D2B22433  16.524  23.363  10.094 -0.2121 -0.0846  0.0536
 1912POSM   C3B22434  16.860  23.598   9.878 -0.1002  0.2385  0.0078
 1912POSM   C4B22435  17.153  23.923  10.010 -0.3112  0.0511 -0.0720
 1913DOPE   NH322436  15.172  15.851   8.543 -0.1473 -0.0711  0.1853
 1913DOPE   PO422437  15.082  16.104   8.522  0.1309 -0.0060 -0.5462
 1913DOPE   GL122438  14.970  16.431   8.760 -0.1487  0.2128 -0.4991
 1913DOPE   GL222439  15.076  16.714   8.830  0.2873 -0.0193 -0.0014
 1913DOPE   C1A22440  15.122  16.336   9.214 -0.0508 -0.1848  0.1339
 1913DOPE   D2A22441  15.010  16.466   9.641 -0.2013  0.0904  0.1816
 1913DOPE   C3A22442  15.052  16.212   9.993 -0.1235  0.1073  0.0084
 1913DOPE   C4A22443  15.350  16.071  10.367  0.2162 -0.0303  0.2263
 1913DOPE   C1B22444  15.211  16.884   9.239 -0.1646  0.0891  0.1806
 1913DOPE   D2B22445  15.549  16.927   9.555 -0.0290 -0.2087 -0.2489
 1913DOPE   C3B22446  15.831  16.520   9.651  0.3972  0.1682  0.2414
 1913DOPE   C4B22447  16.020  16.071   9.648 -0.1310  0.1377  0.0353
 1914DOPS   CNO22448  15.670  15.538   8.117  0.3263 -0.0822  0.0327
 1914DOPS   PO422449  15.576  15.478   8.467  0.2012  0.0176  0.0461
 1914DOPS   GL122450  15.490  15.535   8.836 -0.4489 -0.0094 -0.0549
 1914DOPS   GL222451  15.713  15.396   9.052 -0.0540  0.2355 -0.2531
 1914DOPS   C1A22452  15.230  15.250   9.111  0.0107  0.0361 -0.0069
 1914DOPS   D2A22453  15.061  14.969   9.448  0.2506 -0.0581 -0.0400
 1914DOPS   C3A22454  15.021  15.222   9.844  0.3129  0.3325  0.6325
 1914DOPS   C4A22455  15.115  15.149  10.327  0.3167 -0.2026  0.1940
 1914DOPS   C1B22456  15.998  15.248   9.424 -0.1579 -0.1617  0.1859
 1914DOPS   D2B22457  16.183  15.042   9.841 -0.2728  0.1549 -0.0918
 1914DOPS   C3B22458  16.484  15.315   9.996  0.0739  0.1170  0.0310
 1914DOPS   C4B22459  16.634  15.734  10.248  0.1112 -0.0534 -0.0817
 1915DOPC   NC322460  15.004  22.138   9.348 -0.1261 -0.0284  0.1293
 1915DOPC   PO422461  14.668  21.912   9.362 -0.0283  0.1474 -0.0194
 1915DOPC   GL122462  14.704  21.744   9.722 -0.1067 -0.0782  0.4669
 1915DOPC   GL222463  14.553  21.561   9.700 -0.0624 -0.0458  0.0407
 1915DOPC   C1A22464  14.828  21.831  10.173  0.2141 -0.2380  0.0330
 1915DOPC   D2A22465  14.774  22.106  10.517 -0.1289  0.1231  0.1172
 1915DOPC   C3A22466  15.096  22.475  10.683  0.0185  0.0422 -0.1348
 1915DOPC   C4A22467  15.410  22.736  10.726  0.0328  0.1249  0.1975
 1915DOPC   C1B22468  14.490  21.333  10.062  0.0713  0.1296 -0.0658
 1915DOPC   D2B22469  14.311  21.092  10.420 -0.0252 -0.1155  0.0374
 1915DOPC   C3B22470  14.589  20.937  10.773  0.4204  0.1282  0.0577
 1915DOPC   C4B22471  14.513  20.612  11.083 -0.1874  0.0656  0.2457
 1916DOPE   NH322472  10.884  14.742   9.296  0.0130  0.0449 -0.1367
 1916DOPE   PO422473  10.690  14.982   9.300 -0.0126  0.2588 -0.0688
 1916DOPE   GL122474  10.778  14.949   9.705  0.0722  0.0259 -0.1381
 1916DOPE   GL222475  11.039  14.719   9.778  0.0104  0.0128 -0.1495
 1916DOPE   C1A22476  10.760  15.259  10.048 -0.0315 -0.1841 -0.1636
 1916DOPE   D2A22477  10.772  15.467  10.431 -0.0273 -0.1624 -0.1467
 1916DOPE   C3A22478  10.493  15.257  10.710  0.2254  0.0159  0.3092
 1916DOPE   C4A22479  10.365  15.223  11.166  0.4541  0.1452  0.2636
 1916DOPE   C1B22480  11.298  14.576  10.133  0.0354  0.3815 -0.0084
 1916DOPE   D2B22481  11.570  14.426  10.503  0.2030  0.2638  0.3559
 1916DOPE   C3B22482  11.906  14.026  10.558 -0.0449 -0.1439 -0.1728
 1916DOPE   C4B22483  12.330  13.848  10.548  0.1274  0.2289  0.2470
 1917DOPE   NH322484  16.248  18.218   8.288  0.0651 -0.0792  0.2844
 1917DOPE   PO422485  16.399  18.105   8.534  0.1938  0.3151 -0.0508
 1917DOPE   GL122486  16.294  18.084   8.909  0.3078 -0.1618  0.1469
 1917DOPE   GL222487  16.367  18.335   9.009  0.0481  0.1977  0.1357
 1917DOPE   C1A22488  16.536  17.735   9.161  0.0700  0.1214  0.0038
 1917DOPE   D2A22489  16.794  17.676   9.538  0.2600  0.1088 -0.0437
 1917DOPE   C3A22490  16.682  17.437   9.893 -0.0057  0.1425  0.1907
 1917DOPE   C4A22491  16.588  17.085   9.798  0.0691  0.2398  0.0178
 1917DOPE   C1B22492  16.348  18.105   9.406  0.2138 -0.0505 -0.0359
 1917DOPE   D2B22493  16.279  17.892   9.789  0.1960 -0.2503  0.0522
 1917DOPE   C3B22494  16.651  18.199  10.054 -0.2001 -0.2164 -0.1397
 1917DOPE   C4B22495  16.708  18.505  10.386 -0.1088 -0.1648  0.0995
 1918POSM   NC322496  23.282  18.539   9.088 -0.1124 -0.2352 -0.1005
 1918POSM   PO422497  23.274  18.800   8.804 -0.0308 -0.3240  0.0754
 1918POSM   AM122498  23.137  19.012   9.038 -0.0638  0.1165 -0.0198
 1918POSM   AM222499  23.091  18.954   9.343 -0.0835  0.1021 -0.2494
 1918POSM   T1A22500  22.920  19.451   9.146  0.0948  0.0152 -0.0189
 1918POSM   C2A22501  22.506  19.720   9.310  0.1666  0.1781 -0.2242
 1918POSM   C3A22502  22.424  20.187   9.377 -0.1942  0.0025 -0.1962
 1918POSM   C1B22503  23.311  18.937   9.601  0.2656 -0.0808  0.1052
 1918POSM   D2B22504  23.304  18.730  10.003  0.0388  0.0451 -0.2264
 1918POSM   C3B22505  22.977  18.509  10.246  0.0381  0.0189 -0.1630
 1918POSM   C4B22506  22.544  18.585  10.335  0.1003  0.0823  0.2023
 1919POSM   NC322507  20.953  23.260   9.109 -0.2171  0.3101 -0.1312
 1919POSM   PO422508  20.980  22.940   8.921  0.0565  0.2381 -0.0007
 1919POSM   AM122509  21.013  22.832   9.234 -0.0158 -0.0607  0.0877
 1919POSM   AM222510  20.885  22.890   9.498 -0.0719  0.1962 -0.0010
 1919POSM   T1A22511  21.259  22.553   9.535  0.0144  0.1345 -0.2445
 1919POSM   C2A22512  21.432  22.426   9.958  0.4286 -0.2440  0.0810
 1919POSM   C3A22513  21.308  22.367  10.366  0.3344 -0.3437 -0.2944
 1919POSM   C1B22514  20.838  22.698   9.749 -0.1782 -0.1337 -0.1233
 1919POSM   D2B22515  20.899  22.572  10.175  0.2427  0.0746  0.0028
 1919POSM   C3B22516  21.075  22.836  10.497 -0.2620  0.1766 -0.3510
 1919POSM   C4B22517  21.354  23.237  10.460  0.0124  0.0869 -0.2247
 1920DOPC   NC322518  11.845  15.939   9.165  0.2989  0.1049  0.0099
 1920DOPC   PO422519  12.229  15.988   9.147 -0.1582  0.0382  0.4227
 1920DOPC   GL122520  12.618  15.976   9.233 -0.0004 -0.2845  0.3008
 1920DOPC   GL222521  12.715  16.128   9.008  0.0617  0.1041  0.1056
 1920DOPC   C1A22522  12.657  16.049   9.705 -0.0807  0.0597 -0.1947
 1920DOPC   D2A22523  12.542  16.272  10.082 -0.4324 -0.1530 -0.7753
 1920DOPC   C3A22524  12.162  16.494  10.137 -0.1100  0.2271 -0.0827
 1920DOPC   C4A22525  11.754  16.277  10.124 -0.0478  0.1248  0.2226
 1920DOPC   C1B22526  12.860  16.367   9.350 -0.1859 -0.0733 -0.1596
 1920DOPC   D2B22527  13.137  16.714   9.561 -0.0162  0.3331  0.0506
 1920DOPC   C3B22528  13.486  16.728   9.848  0.1331 -0.0615 -0.0282
 1920DOPC   C4B22529  13.371  16.901  10.253 -0.0833 -0.1636 -0.1834
 1921DOPC   NC322530  16.772  24.685   9.632 -0.1320 -0.1450  0.0368
 1921DOPC   PO422531  16.723  25.003   9.842 -0.2525 -0.3324  0.0478
 1921DOPC   GL122532  16.551  24.973  10.281  0.4079  0.1678 -0.4692
 1921DOPC   GL222533  16.334  24.860  10.390 -0.0557 -0.3908  0.2597
 1921DOPC   C1A22534  16.771  25.027  10.668 -0.0182 -0.0759  0.4884
 1921DOPC   D2A22535  16.762  25.200  11.093  0.2720  0.0277  0.4514
 1921DOPC   C3A22536  17.013  24.955  11.437  0.2583  0.0523 -0.1655
 1921DOPC   C4A22537  17.168  24.523  11.546  0.0506 -0.1090 -0.0869
 1921DOPC   C1B22538  16.100  24.559  10.574 -0.0241  0.2092  0.1086
 1921DOPC   D2B22539  15.694  24.613  10.877  0.0175  0.1677 -0.2277
 1921DOPC   C3B22540  15.877  24.747  11.326  0.0724  0.0408  0.1994
 1921DOPC   C4B22541  15.976  24.730  11.766 -0.1867 -0.2937 -0.1269
 1922DOPC   NC322542  18.407  20.874   8.042  0.1473  0.2147  0.2477
 1922DOPC   PO422543  18.750  21.005   8.187 -0.0662  0.0204  0.2170
 1922DOPC   GL122544  18.725  20.937   8.566  0.1525  0.0225 -0.0537
 1922DOPC   GL222545  18.915  21.062   8.693  0.0409  0.3418  0.1984
 1922DOPC   C1A22546  18.822  20.661   8.950 -0.1703 -0.0258 -0.2656
 1922DOPC   D2A22547  18.795  20.591   9.449 -0.2610 -0.1229  0.1530
 1922DOPC   C3A22548  18.853  20.227   9.800  0.2483 -0.0872 -0.1653
 1922DOPC   C4A22549  19.266  20.101   9.939 -0.0860 -0.0672  0.1164
 1922DOPC   C1B22550  18.994  21.099   9.126  0.1576  0.3343  0.1236
 1922DOPC   D2B22551  19.193  21.406   9.412 -0.1989 -0.3145  0.1976
 1922DOPC   C3B22552  18.834  21.722   9.489  0.0227 -0.2778  0.2724
 1922DOPC   C4B22553  18.730  21.979   9.827  0.4688 -0.3069 -0.2812
 1923POSM   NC322554  13.909  14.423   8.645  0.0185  0.0311  0.0705
 1923POSM   PO422555  13.625  14.205   8.539  0.0204  0.0755 -0.0715
 1923POSM   AM122556  13.599  14.165   8.892  0.0884  0.1848  0.3972
 1923POSM   AM222557  13.654  14.045   9.157  0.1937 -0.3983  0.0905
 1923POSM   T1A22558  13.426  14.516   9.252 -0.0109  0.1483  0.1611
 1923POSM   C2A22559  13.075  14.789   9.309 -0.1288  0.0407 -0.1371
 1923POSM   C3A22560  12.791  14.751   9.697  0.0150  0.0129  0.0780
 1923POSM   C1B22561  13.676  14.061   9.491  0.0287 -0.1593 -0.1226
 1923POSM   D2B22562  13.572  13.966   9.993 -0.0443  0.0419 -0.0414
 1923POSM   C3B22563  13.142  13.956  10.023  0.0324  0.0139 -0.0429
 1923POSM   C4B22564  12.865  13.587   9.864 -0.0115  0.3454 -0.0453
 1924DOPC   NC322565  15.386  21.996   8.900 -0.3174 -0.0570  0.0133
 1924DOPC   PO422566  15.194  21.754   9.143 -0.0153 -0.2288  0.2116
 1924DOPC   GL122567  15.440  21.948   9.437  0.3060  0.1585 -0.0622
 1924DOPC   GL222568  15.246  21.810   9.603 -0.0408 -0.0084 -0.1473
 1924DOPC   C1A22569  15.771  22.101   9.767 -0.1014 -0.0848  0.1739
 1924DOPC   D2A22570  15.830  22.022  10.227  0.3084  0.1470 -0.0513
 1924DOPC   C3A22571  15.624  22.213  10.589 -0.0531  0.1912  0.0581
 1924DOPC   C4A22572  15.513  22.344  10.992 -0.1277 -0.1764  0.0722
 1924DOPC   C1B22573  15.421  21.828  10.029  0.0154  0.0299  0.0390
 1924DOPC   D2B22574  15.235  21.982  10.408 -0.2620  0.1196 -0.2058
 1924DOPC   C3B22575  15.218  21.919  10.897 -0.0313 -0.2064  0.1607
 1924DOPC   C4B22576  15.188  22.128  11.312  0.0974  0.0445  0.0029
 1925POSM   NC322577  21.533  15.031   8.763 -0.0852 -0.2257  0.0886
 1925POSM   PO422578  21.702  15.367   8.686 -0.0147  0.2682 -0.0124
 1925POSM   AM122579  21.771  15.389   9.006  0.0262 -0.1464  0.0590
 1925POSM   AM222580  21.964  15.434   9.214 -0.1316 -0.0835 -0.1140
 1925POSM   T1A22581  21.535  15.232   9.415  0.3322  0.0349  0.1460
 1925POSM   C2A22582  21.440  15.482   9.798 -0.0886  0.1118  0.0599
 1925POSM   C3A22583  21.198  15.683  10.154 -0.0842 -0.1222  0.0940
 1925POSM   C1B22584  22.272  15.314   9.326  0.2345 -0.2910  0.0269
 1925POSM   D2B22585  22.693  15.162   9.530  0.0086  0.0014  0.0332
 1925POSM   C3B22586  22.664  15.082  10.031  0.2704 -0.4396  0.0662
 1925POSM   C4B22587  22.395  15.276  10.336 -0.3692 -0.0338  0.0205
 1926DOPS   CNO22588  19.205  13.555   8.395  0.1462  0.1054 -0.4375
 1926DOPS   PO422589  18.849  13.498   8.451 -0.0934 -0.1676 -0.0100
 1926DOPS   GL122590  19.101  13.488   8.833  0.1982 -0.0664 -0.1969
 1926DOPS   GL222591  18.973  13.662   9.043  0.2809  0.0245 -0.1425
 1926DOPS   C1A22592  19.448  13.388   9.153  0.1487  0.0459 -0.1584
 1926DOPS   D2A22593  19.809  13.150   9.353  0.2432 -0.0782  0.0961
 1926DOPS   C3A22594  20.012  13.196   9.781 -0.0816  0.2240  0.0137
 1926DOPS   C4A22595  19.982  13.522  10.137  0.0945  0.0041  0.0420
 1926DOPS   C1B22596  18.556  13.808   9.067 -0.0609  0.0812 -0.1574
 1926DOPS   D2B22597  18.336  14.075   9.375 -0.2091 -0.1508 -0.2018
 1926DOPS   C3B22598  18.138  13.868   9.743 -0.0643  0.0163 -0.0158
 1926DOPS   C4B22599  18.159  13.487  10.063 -0.1032  0.0869  0.2407
 1927DOPC   NC322600  15.039  17.262   8.780  0.2008 -0.2005 -0.0613
 1927DOPC   PO422601  15.355  17.130   8.543  0.1646 -0.1242 -0.0447
 1927DOPC   GL122602  15.471  17.265   8.983 -0.0487 -0.1799 -0.3753
 1927DOPC   GL222603  15.533  17.507   8.807  0.1976  0.1554 -0.3328
 1927DOPC   C1A22604  15.257  17.331   9.387  0.0902  0.1346 -0.2214
 1927DOPC   D2A22605  15.169  17.333   9.881  0.0334 -0.0183  0.0141
 1927DOPC   C3A22606  14.819  17.120  10.099  0.0285  0.1187 -0.0884
 1927DOPC   C4A22607  14.509  16.966  10.467 -0.0100  0.1452  0.3035
 1927DOPC   C1B22608  15.515  17.753   9.199  0.1551  0.2850 -0.0160
 1927DOPC   D2B22609  15.295  17.785   9.588  0.2306  0.2902  0.0790
 1927DOPC   C3B22610  15.208  17.783  10.035  0.1289  0.0736  0.1075
 1927DOPC   C4B22611  15.461  17.597  10.400 -0.0750  0.1058  0.0665
 1928DOPS   CNO22612  12.351  21.762   9.535 -0.1122 -0.0918  0.2221
 1928DOPS   PO422613  12.737  21.774   9.606  0.2228  0.0616 -0.1380
 1928DOPS   GL122614  12.919  21.919   9.953  0.1813  0.2857 -0.2418
 1928DOPS   GL222615  13.118  22.108   9.845  0.0811 -0.0815 -0.0494
 1928DOPS   C1A22616  12.875  22.238  10.249  0.2064 -0.2021 -0.1426
 1928DOPS   D2A22617  12.874  22.208  10.685  0.2042  0.2006 -0.1316
 1928DOPS   C3A22618  13.012  22.088  11.100 -0.2177  0.2748 -0.0659
 1928DOPS   C4A22619  13.174  21.717  11.340  0.0019 -0.2456 -0.2320
 1928DOPS   C1B22620  13.456  21.965  10.232  0.3633 -0.1635 -0.1252
 1928DOPS   D2B22621  13.365  21.939  10.665  0.0777  0.2874 -0.0125
 1928DOPS   C3B22622  13.562  21.948  11.120  0.0528 -0.1498 -0.0295
 1928DOPS   C4B22623  13.697  22.089  11.550 -0.1925 -0.0372  0.2842
 1929DOPE   NH322624  18.510  19.881   8.070 -0.0632 -0.2254  0.0285
 1929DOPE   PO422625  18.522  19.945   8.387 -0.0835 -0.3302  0.2934
 1929DOPE   GL122626  18.465  19.996   8.827 -0.3865 -0.2078  0.0247
 1929DOPE   GL222627  18.380  20.329   8.809  0.1642 -0.0307  0.1681
 1929DOPE   C1A22628  18.108  20.033   9.190  0.0351 -0.1202  0.0260
 1929DOPE   D2A22629  17.952  20.135   9.583 -0.0901  0.1630  0.1015
 1929DOPE   C3A22630  17.695  19.890   9.835 -0.3323 -0.3736 -0.0982
 1929DOPE   C4A22631  17.419  19.582   9.673 -0.1225  0.1804  0.1023
 1929DOPE   C1B22632  18.361  20.556   9.186  0.0160 -0.1596 -0.0024
 1929DOPE   D2B22633  18.253  20.610   9.629  0.3920  0.1048  0.0532
 1929DOPE   C3B22634  18.632  20.721   9.937  0.1616  0.0330 -0.0591
 1929DOPE   C4B22635  18.712  21.115  10.209  0.3208  0.1304 -0.0384
 1930DOPE   NH322636  21.814  12.408   8.579  0.2019  0.2389  0.1352
 1930DOPE   PO422637  21.814  12.488   8.842  0.1667  0.1512  0.1851
 1930DOPE   GL122638  21.691  12.535   9.140 -0.1954  0.2948  0.2381
 1930DOPE   GL222639  21.368  12.573   9.094 -0.2658 -0.0730 -0.0114
 1930DOPE   C1A22640  21.585  12.536   9.570 -0.1283 -0.2792  0.1854
 1930DOPE   D2A22641  21.345  12.809   9.894  0.0711  0.4197  0.1649
 1930DOPE   C3A22642  21.014  13.123   9.957  0.5688  0.1730  0.1000
 1930DOPE   C4A22643  20.949  13.489  10.229 -0.1631 -0.0779  0.0149
 1930DOPE   C1B22644  21.083  12.804   9.449 -0.2359 -0.2086  0.1059
 1930DOPE   D2B22645  20.729  12.715   9.782 -0.1139 -0.0867  0.2825
 1930DOPE   C3B22646  20.502  13.129   9.737  0.0302  0.1476 -0.0898
 1930DOPE   C4B22647  20.390  13.553   9.587 -0.1377 -0.0491 -0.1837
 1931DOPE   NH322648  19.995  13.469   8.621 -0.1880  0.1278  0.5371
 1931DOPE   PO422649  20.061  13.726   8.782 -0.0010  0.2291  0.0857
 1931DOPE   GL122650  19.968  13.654   9.101 -0.0276  0.2592  0.0390
 1931DOPE   GL222651  20.104  13.885   9.215 -0.0253  0.0775  0.0846
 1931DOPE   C1A22652  19.902  13.632   9.554  0.0914  0.1509  0.1518
 1931DOPE   D2A22653  19.685  13.843   9.916  0.2019  0.4820 -0.0289
 1931DOPE   C3A22654  19.294  14.052   9.785 -0.1478  0.0480  0.0483
 1931DOPE   C4A22655  18.874  14.062   9.576 -0.2457  0.3590 -0.0352
 1931DOPE   C1B22656  19.887  14.208   9.510 -0.1886  0.1066 -0.0390
 1931DOPE   D2B22657  19.734  14.646   9.591 -0.2308 -0.0254 -0.0499
 1931DOPE   C3B22658  19.649  14.786  10.040  0.1706 -0.1410 -0.3816
 1931DOPE   C4B22659  19.711  14.559  10.452  0.0688 -0.2329  0.0700
 1932DOPC   NC322660  16.465  15.023   8.068 -0.0413 -0.5297 -0.0387
 1932DOPC   PO422661  16.236  14.898   8.351 -0.0172 -0.1968  0.0912
 1932DOPC   GL122662  16.289  14.992   8.764  0.4281  0.1639  0.1942
 1932DOPC   GL222663  16.215  14.727   8.821  0.2188 -0.1352 -0.0356
 1932DOPC   C1A22664  16.359  15.345   9.015 -0.0650 -0.2629  0.1020
 1932DOPC   D2A22665  16.483  15.402   9.505 -0.2778 -0.2011 -0.0100
 1932DOPC   C3A22666  16.461  15.802   9.747 -0.0855 -0.1639  0.0759
 1932DOPC   C4A22667  16.744  16.150   9.865 -0.0459  0.0776  0.0313
 1932DOPC   C1B22668  16.049  14.723   9.237  0.0314 -0.2596  0.1242
 1932DOPC   D2B22669  15.923  14.573   9.665 -0.2256  0.1275  0.0363
 1932DOPC   C3B22670  15.614  14.515  10.053 -0.0222 -0.2165  0.0089
 1932DOPC   C4B22671  15.436  14.134  10.117  0.0590 -0.1777 -0.5274
 1933DOPS   CNO22672  24.664  20.140   9.021  0.1604 -0.0841 -0.1244
 1933DOPS   PO422673  24.701  20.536   8.959  0.2785 -0.2165 -0.0880
 1933DOPS   GL122674  24.716  20.583   9.367  0.1827 -0.1539 -0.2417
 1933DOPS   GL222675  24.455  20.710   9.448 -0.2206  0.0154 -0.0470
 1933DOPS   C1A22676  24.534  20.294   9.680 -0.0073 -0.3114 -0.3410
 1933DOPS   D2A22677  24.557  20.269  10.102 -0.2425 -0.2975 -0.0066
 1933DOPS   C3A22678  24.824  20.019  10.376 -0.2270  0.2737 -0.1713
 1933DOPS   C4A22679  25.102  20.122  10.738 -0.0690  0.1906  0.2201
 1933DOPS   C1B22680  24.263  20.680   9.894  0.0973  0.2005  0.1833
 1933DOPS   D2B22681  24.271  20.651  10.369 -0.1978  0.1255 -0.0067
 1933DOPS   C3B22682  24.453  20.299  10.613  0.5158 -0.3030 -0.4317
 1933DOPS   C4B22683  24.436  20.234  11.011 -0.0556  0.0815 -0.1213
 1934DOPS   CNO22684  20.724  22.404   8.442 -0.1551 -0.2191 -0.2426
 1934DOPS   PO422685  20.689  22.167   8.733 -0.2677  0.1570  0.2672
 1934DOPS   GL122686  20.803  22.106   9.139  0.1083  0.2983  0.1241
 1934DOPS   GL222687  20.788  22.375   9.201 -0.1794 -0.1252 -0.2339
 1934DOPS   C1A22688  20.480  21.914   9.518  0.1541 -0.5483 -0.0492
 1934DOPS   D2A22689  20.436  21.637   9.946 -0.1965 -0.0406 -0.0487
 1934DOPS   C3A22690  20.084  21.327  10.024 -0.0824  0.2211 -0.2044
 1934DOPS   C4A22691  20.023  21.079  10.355  0.0234 -0.0869 -0.2291
 1934DOPS   C1B22692  20.936  22.178   9.641  0.0005 -0.0740 -0.0814
 1934DOPS   D2B22693  20.776  21.979  10.053  0.2074  0.3528  0.2709
 1934DOPS   C3B22694  20.861  22.162  10.467 -0.3285  0.0883 -0.0855
 1934DOPS   C4B22695  21.237  22.124  10.782 -0.1214  0.1280  0.0365
 1935DOPC   NC322696  19.143  21.260   8.324 -0.0686 -0.3083 -0.1376
 1935DOPC   PO422697  19.377  21.308   8.584 -0.0255  0.0300  0.0141
 1935DOPC   GL122698  19.420  21.370   9.032  0.0854 -0.1359  0.1351
 1935DOPC   GL222699  19.569  21.590   9.018 -0.1468 -0.0222  0.1195
 1935DOPC   C1A22700  19.752  21.256   9.323  0.2918 -0.2306 -0.0109
 1935DOPC   D2A22701  19.741  21.067   9.794 -0.2011 -0.2860  0.0981
 1935DOPC   C3A22702  20.104  20.762   9.974 -0.1344  0.3026 -0.0953
 1935DOPC   C4A22703  20.553  20.612   9.838 -0.1015 -0.2475 -0.3350
 1935DOPC   C1B22704  19.578  21.701   9.464  0.1213 -0.1169  0.0504
 1935DOPC   D2B22705  19.925  21.721   9.747 -0.0031  0.3063  0.1293
 1935DOPC   C3B22706  19.843  21.780  10.196 -0.0409  0.0448  0.0705
 1935DOPC   C4B22707  20.029  21.564  10.557 -0.0503  0.2530 -0.2588
 1936DOPS   CNO22708  14.098  15.395   8.606 -0.1705 -0.1381  0.3170
 1936DOPS   PO422709  14.475  15.341   8.687 -0.5449 -0.1500  0.0488
 1936DOPS   GL122710  14.483  15.302   9.078  0.2589  0.4146 -0.0357
 1936DOPS   GL222711  14.463  15.569   9.214 -0.2472 -0.2379  0.0206
 1936DOPS   C1A22712  14.589  14.894   9.285  0.1830  0.2651 -0.3218
 1936DOPS   D2A22713  14.728  14.640   9.628 -0.0275 -0.0645  0.0189
 1936DOPS   C3A22714  14.748  14.755  10.042  0.0722 -0.1023  0.3791
 1936DOPS   C4A22715  14.514  14.957  10.389  0.3400  0.1797  0.1753
 1936DOPS   C1B22716  14.629  15.342   9.600 -0.3740  0.0817 -0.4465
 1936DOPS   D2B22717  14.334  15.246   9.974  0.4117  0.2014 -0.3845
 1936DOPS   C3B22718  13.979  15.417  10.209  0.1256  0.2732  0.2975
 1936DOPS   C4B22719  13.647  15.299  10.595 -0.3400  0.0598  0.0324
 1937DOPS   CNO22720  13.948  19.582   9.166  0.3260 -0.1993  0.1656
 1937DOPS   PO422721  14.129  19.869   9.003  0.0602  0.1123  0.2120
 1937DOPS   GL122722  14.314  19.994   9.285 -0.0459 -0.1034  0.4998
 1937DOPS   GL222723  14.115  20.043   9.486  0.0410 -0.1561  0.2586
 1937DOPS   C1A22724  14.697  20.011   9.529 -0.0719 -0.2847  0.1688
 1937DOPS   D2A22725  14.945  20.138   9.903  0.3365  0.1963 -0.0790
 1937DOPS   C3A22726  14.736  20.261  10.293  0.0251 -0.2098 -0.1260
 1937DOPS   C4A22727  14.814  20.506  10.644 -0.1411  0.0377 -0.0504
 1937DOPS   C1B22728  13.746  19.858   9.652  0.1965 -0.3059  0.0705
 1937DOPS   D2B22729  13.553  19.484   9.856  0.1671  0.5665  0.0346
 1937DOPS   C3B22730  13.393  19.309  10.244  0.0278 -0.0783  0.0435
 1937DOPS   C4B22731  13.269  19.195  10.703 -0.1745 -0.0010  0.0442
 1938DOPC   NC322732  14.152  22.474   9.349 -0.0305  0.3166 -0.2210
 1938DOPC   PO422733  14.466  22.355   9.591  0.2118 -0.0382 -0.0639
 1938DOPC   GL122734  14.511  22.125   9.920  0.3594 -0.2050  0.3947
 1938DOPC   GL222735  14.494  22.357  10.122  0.3665 -0.0739 -0.2734
 1938DOPC   C1A22736  14.327  21.825  10.223  0.1404 -0.0457  0.0817
 1938DOPC   D2A22737  14.446  21.534  10.549  0.0737 -0.1837 -0.2279
 1938DOPC   C3A22738  14.850  21.604  10.781 -0.1895 -0.3255 -0.0427
 1938DOPC   C4A22739  14.971  21.684  11.268  0.1628 -0.4181  0.2446
 1938DOPC   C1B22740  14.632  22.528  10.567 -0.0904  0.1967  0.2387
 1938DOPC   D2B22741  14.421  22.863  10.818 -0.1325  0.2485  0.0134
 1938DOPC   C3B22742  14.733  23.119  10.960 -0.0147 -0.1704  0.1481
 1938DOPC   C4B22743  15.029  23.207  11.263 -0.2406 -0.0674  0.0897
 1939DOPE   NH322744  21.075   9.622   9.316 -0.2196  0.0408 -0.2023
 1939DOPE   PO422745  20.823   9.814   9.256 -0.0841  0.1691  0.0241
 1939DOPE   GL122746  21.068  10.135   9.385  0.2977  0.2520 -0.2121
 1939DOPE   GL222747  21.262  10.082   9.566  0.2610 -0.0464  0.2653
 1939DOPE   C1A22748  21.071  10.543   9.627  0.0079  0.1474  0.0532
 1939DOPE   D2A22749  21.249  10.722   9.961  0.0840  0.1930  0.0902
 1939DOPE   C3A22750  21.640  10.920   9.883 -0.1377 -0.0766 -0.0342
 1939DOPE   C4A22751  21.917  10.869  10.251  0.0774 -0.1023  0.0124
 1939DOPE   C1B22752  21.152  10.155   9.973 -0.2142 -0.2208  0.1203
 1939DOPE   D2B22753  21.326  10.043  10.354 -0.2098 -0.2596 -0.1976
 1939DOPE   C3B22754  21.111   9.849  10.692  0.1742 -0.2362  0.2742
 1939DOPE   C4B22755  20.757   9.637  10.963 -0.0992  0.2096  0.1610
 1940DOPE   NH322756  13.598  24.417  10.263  0.1314 -0.3219  0.2800
 1940DOPE   PO422757  13.255  24.291  10.228 -0.2713  0.3799 -0.0833
 1940DOPE   GL122758  13.267  23.973  10.486  0.0209  0.0549  0.1199
 1940DOPE   GL222759  13.555  23.955  10.528 -0.0691 -0.0610 -0.1090
 1940DOPE   C1A22760  13.206  23.813  10.872  0.1516 -0.0003 -0.1122
 1940DOPE   D2A22761  13.312  23.585  11.245 -0.1650 -0.0891  0.0726
 1940DOPE   C3A22762  13.200  23.536  11.687 -0.0696  0.0900  0.0139
 1940DOPE   C4A22763  13.001  23.445  12.071 -0.1835  0.1506  0.0375
 1940DOPE   C1B22764  13.740  23.923  10.919 -0.0101 -0.1927 -0.0313
 1940DOPE   D2B22765  13.888  23.720  11.319  0.0665 -0.0662  0.0238
 1940DOPE   C3B22766  13.677  23.915  11.680  0.1237 -0.1958 -0.2902
 1940DOPE   C4B22767  13.443  23.813  12.092  0.3113 -0.2838  0.1149
 1941POSM   NC322768  16.774  13.737   8.267  0.0204 -0.1052  0.0409
 1941POSM   PO422769  17.101  13.858   8.502 -0.0764 -0.1268 -0.1947
 1941POSM   AM122770  17.222  13.717   8.798  0.3109  0.4503 -0.0057
 1941POSM   AM222771  17.355  13.503   8.930  0.1684 -0.1337  0.2719
 1941POSM   T1A22772  17.111  13.770   9.308 -0.1723 -0.0504 -0.2694
 1941POSM   C2A22773  16.824  13.963   9.622 -0.0164 -0.1374 -0.0318
 1941POSM   C3A22774  16.819  13.969  10.116 -0.3012  0.2306  0.1689
 1941POSM   C1B22775  17.563  13.548   9.193  0.0413 -0.1656  0.1032
 1941POSM   D2B22776  17.846  13.514   9.592 -0.0927 -0.2228 -0.2281
 1941POSM   C3B22777  17.724  13.336   9.999  0.1230  0.0228  0.1274
 1941POSM   C4B22778  17.554  13.096  10.286  0.0507 -0.3027 -0.0386
 1942DOPS   CNO22779  21.924  21.605   8.857 -0.3831  0.1886 -0.1344
 1942DOPS   PO422780  22.268  21.408   8.825 -0.1208 -0.2788  0.0960
 1942DOPS   GL122781  22.204  21.392   9.258 -0.2379 -0.0271 -0.0778
 1942DOPS   GL222782  22.226  21.033   9.301  0.1013 -0.2992  0.4042
 1942DOPS   C1A22783  22.560  21.266   9.563  0.1029  0.0906 -0.1559
 1942DOPS   D2A22784  22.916  20.989   9.694 -0.1105 -0.0504  0.0083
 1942DOPS   C3A22785  22.718  20.815  10.052 -0.1772 -0.1108 -0.2666
 1942DOPS   C4A22786  22.389  20.745  10.404 -0.2893  0.0042  0.1126
 1942DOPS   C1B22787  22.259  20.949   9.778  0.2796  0.0393  0.0062
 1942DOPS   D2B22788  21.972  20.842  10.064 -0.0419 -0.1033 -0.0410
 1942DOPS   C3B22789  21.920  21.162  10.408  0.2521  0.1070 -0.1826
 1942DOPS   C4B22790  21.702  21.175  10.771  0.2818  0.0857 -0.1007
 1943DOPC   NC322791  19.908  12.933   8.303 -0.0801  0.1690  0.1032
 1943DOPC   PO422792  19.642  12.731   8.496 -0.0001 -0.0244 -0.1220
 1943DOPC   GL122793  19.555  12.804   8.882 -0.0476 -0.2332  0.3208
 1943DOPC   GL222794  19.308  12.840   9.063 -0.1079 -0.0376 -0.1976
 1943DOPC   C1A22795  19.712  12.609   9.255 -0.0091 -0.0944  0.0926
 1943DOPC   D2A22796  19.550  12.804   9.652  0.1896 -0.2475 -0.0852
 1943DOPC   C3A22797  19.200  13.009   9.519  0.0277 -0.0057  0.1351
 1943DOPC   C4A22798  18.933  13.208   9.203  0.1151  0.1682  0.2161
 1943DOPC   C1B22799  18.897  12.718   9.082  0.2597  0.0747 -0.1760
 1943DOPC   D2B22800  18.796  12.502   9.458  0.0785  0.0625 -0.1209
 1943DOPC   C3B22801  18.798  12.649   9.913  0.1278 -0.3181 -0.3054
 1943DOPC   C4B22802  18.998  12.763  10.363  0.2667  0.1911  0.1625
 1944DOPE   NH322803  10.704  12.260   9.835 -0.1751  0.2461  0.3406
 1944DOPE   PO422804  10.831  12.243  10.152 -0.2295  0.1791 -0.0054
 1944DOPE   GL122805  10.769  12.144  10.546  0.0322  0.4330 -0.1597
 1944DOPE   GL222806  11.007  12.061  10.622  0.1151 -0.3008  0.1632
 1944DOPE   C1A22807  10.495  12.461  10.759  0.2410 -0.2452 -0.3012
 1944DOPE   D2A22808  10.467  12.760  11.109 -0.4190  0.1386  0.0910
 1944DOPE   C3A22809  10.354  13.114  11.406  0.0237 -0.0441  0.1915
 1944DOPE   C4A22810  10.125  13.398  11.719  0.0826 -0.0710  0.0824
 1944DOPE   C1B22811  11.117  12.487  10.807  0.2612  0.0444  0.2128
 1944DOPE   D2B22812  10.986  12.871  10.793 -0.3371  0.1096  0.1669
 1944DOPE   C3B22813  10.592  13.143  10.797  0.6078 -0.0088 -0.1447
 1944DOPE   C4B22814  10.399  13.506  10.985 -0.2001 -0.3805  0.0697
 1945DOPS   CNO22815  18.252  14.194   8.742  0.0585  0.2186 -0.2788
 1945DOPS   PO422816  17.915  14.027   8.843 -0.1697 -0.0147 -0.3694
 1945DOPS   GL122817  17.791  14.262   9.143  0.0585  0.0780  0.1529
 1945DOPS   GL222818  17.734  14.029   9.320 -0.1955  0.1207 -0.0058
 1945DOPS   C1A22819  17.486  14.570   9.264  0.3722 -0.1297  0.1345
 1945DOPS   D2A22820  17.239  14.231   9.476 -0.0044  0.2184 -0.1271
 1945DOPS   C3A22821  17.224  14.292   9.950  0.2150  0.1278  0.1871
 1945DOPS   C4A22822  17.087  14.392  10.388  0.0892  0.1321  0.1790
 1945DOPS   C1B22823  17.514  13.879   9.698  0.0205 -0.4966  0.1728
 1945DOPS   D2B22824  17.248  13.523   9.782 -0.0830 -0.0970 -0.2153
 1945DOPS   C3B22825  17.107  13.113   9.601 -0.2835  0.0912 -0.0775
 1945DOPS   C4B22826  17.169  12.652   9.456 -0.0082  0.3409 -0.3932
 1946DOPS   CNO22827  24.287  21.974   8.239 -0.0317  0.1215 -0.0343
 1946DOPS   PO422828  24.005  22.226   8.329  0.0508  0.2956  0.2132
 1946DOPS   GL122829  23.847  22.226   8.714  0.1770 -0.2269  0.0816
 1946DOPS   GL222830  23.965  22.345   8.934 -0.3588  0.1348  0.2421
 1946DOPS   C1A22831  23.478  22.070   8.978 -0.0890 -0.1015 -0.0668
 1946DOPS   D2A22832  23.243  21.932   9.405 -0.0627  0.2192  0.0589
 1946DOPS   C3A22833  22.994  21.549   9.486  0.0775 -0.2850 -0.0089
 1946DOPS   C4A22834  22.874  21.179   9.199 -0.0951  0.3921 -0.2861
 1946DOPS   C1B22835  24.069  21.974   9.177 -0.1198  0.3379 -0.3548
 1946DOPS   D2B22836  23.981  21.954   9.586  0.1727 -0.1497 -0.1151
 1946DOPS   C3B22837  23.831  21.954  10.081 -0.1156 -0.0510  0.2393
 1946DOPS   C4B22838  23.394  21.992  10.308 -0.0548  0.1761  0.2726
 1947DOPE   NH322839  11.426  21.115   9.493  0.0567  0.2740  0.2093
 1947DOPE   PO422840  11.354  20.802   9.477  0.1749 -0.0672 -0.1373
 1947DOPE   GL122841  11.528  20.588   9.755  0.3674 -0.3680  0.0440
 1947DOPE   GL222842  11.348  20.382   9.852 -0.1540 -0.1358 -0.4092
 1947DOPE   C1A22843  11.770  20.566  10.174  0.3371  0.0375 -0.2443
 1947DOPE   D2A22844  11.703  20.796  10.565 -0.1329 -0.0215  0.1226
 1947DOPE   C3A22845  11.894  21.184  10.676 -0.1677  0.1299 -0.3196
 1947DOPE   C4A22846  12.032  21.661  10.637  0.1982  0.0533  0.0844
 1947DOPE   C1B22847  11.157  20.179  10.129  0.1159  0.2937 -0.1838
 1947DOPE   D2B22848  11.210  20.092  10.612  0.1559  0.0803  0.2898
 1947DOPE   C3B22849  11.503  19.768  10.749 -0.1928  0.4129  0.2758
 1947DOPE   C4B22850  11.871  19.443  10.698  0.0469  0.0920  0.1070
 1948DOPE   NH322851  16.052  17.364   8.328  0.3337  0.0700 -0.0039
 1948DOPE   PO422852  15.845  17.165   8.396  0.0399 -0.3235  0.1600
 1948DOPE   GL122853  15.975  17.174   8.780  0.1572 -0.0325  0.3244
 1948DOPE   GL222854  16.000  17.435   8.832 -0.1749  0.0910 -0.1398
 1948DOPE   C1A22855  15.824  17.186   9.211  0.1740 -0.1791  0.1582
 1948DOPE   D2A22856  15.793  17.432   9.586  0.2163 -0.0899  0.0735
 1948DOPE   C3A22857  15.687  17.289  10.019 -0.1664  0.1588 -0.1721
 1948DOPE   C4A22858  15.381  17.077  10.257 -0.0782 -0.0964  0.2722
 1948DOPE   C1B22859  16.046  17.647   9.257  0.1917 -0.1091  0.2444
 1948DOPE   D2B22860  16.297  17.467   9.528 -0.0307 -0.1411 -0.1400
 1948DOPE   C3B22861  16.223  17.435   9.989 -0.1156 -0.0948  0.0042
 1948DOPE   C4B22862  16.086  17.158  10.335 -0.1762 -0.0379  0.0905
 1949POSM   NC322863  20.268  11.146   8.968 -0.0734 -0.3131  0.3762
 1949POSM   PO422864  20.459  11.429   8.764 -0.2617  0.0532  0.2129
 1949POSM   AM122865  20.502  11.668   9.003  0.0922  0.1012  0.1062
 1949POSM   AM222866  20.239  11.743   9.132  0.0573  0.0498 -0.0019
 1949POSM   T1A22867  20.703  11.798   9.407 -0.0881  0.0965  0.2205
 1949POSM   C2A22868  20.642  12.091   9.747 -0.0265  0.1111  0.2220
 1949POSM   C3A22869  20.807  12.014  10.195  0.0917  0.0947  0.0671
 1949POSM   C1B22870  20.304  11.525   9.434  0.0644  0.1384 -0.2455
 1949POSM   D2B22871  20.731  11.410   9.699 -0.1006  0.0167  0.1702
 1949POSM   C3B22872  21.015  11.730   9.872 -0.0215  0.0249  0.1013
 1949POSM   C4B22873  21.277  11.733  10.163  0.0702  0.0421 -0.2105
 1950DOPC   NC322874  18.399  16.961   8.619  0.0279  0.2283  0.0546
 1950DOPC   PO422875  18.061  16.813   8.480  0.0800  0.0368  0.0183
 1950DOPC   GL122876  18.180  16.595   8.806  0.5529 -0.2154 -0.0247
 1950DOPC   GL222877  17.984  16.381   8.932  0.1509 -0.1969  0.0216
 1950DOPC   C1A22878  18.115  16.811   9.174 -0.2622  0.0580 -0.0024
 1950DOPC   D2A22879  18.514  16.746   9.491 -0.0452 -0.1218  0.0591
 1950DOPC   C3A22880  18.537  17.047   9.846 -0.2254 -0.1778  0.2557
 1950DOPC   C4A22881  18.275  17.239  10.136  0.0486 -0.1643 -0.1695
 1950DOPC   C1B22882  18.042  16.331   9.361  0.4697  0.1096  0.0686
 1950DOPC   D2B22883  18.020  16.698   9.682 -0.1739  0.1005  0.0936
 1950DOPC   C3B22884  18.097  17.172   9.610 -0.0633  0.0371 -0.2630
 1950DOPC   C4B22885  18.093  17.641   9.474  0.2321 -0.3132  0.1480
 1951DOPC   NC322886  15.594  18.018   8.724  0.4096 -0.1704  0.2767
 1951DOPC   PO422887  15.902  18.305   8.634 -0.3609 -0.1151  0.0365
 1951DOPC   GL122888  15.870  18.363   8.982 -0.2198  0.1588  0.2371
 1951DOPC   GL222889  15.879  18.124   9.126 -0.1962 -0.1015  0.0423
 1951DOPC   C1A22890  16.104  18.515   9.380  0.2325 -0.1164 -0.3109
 1951DOPC   D2A22891  16.430  18.778   9.458  0.0724 -0.3128  0.0449
 1951DOPC   C3A22892  16.859  18.666   9.638  0.0150 -0.0440 -0.2064
 1951DOPC   C4A22893  17.064  18.483  10.005  0.0989  0.0145 -0.0690
 1951DOPC   C1B22894  15.873  18.064   9.571  0.3904  0.0387 -0.0513
 1951DOPC   D2B22895  15.824  17.884  10.001 -0.0565 -0.0414 -0.0240
 1951DOPC   C3B22896  16.139  17.935  10.318  0.0947 -0.2278  0.0523
 1951DOPC   C4B22897  16.301  17.552  10.496  0.3825 -0.1761 -0.0168
 1952DOPE   NH322898  21.433  23.990   8.772 -0.0746 -0.2332 -0.1430
 1952DOPE   PO422899  21.288  23.678   8.799  0.0479 -0.1733 -0.1564
 1952DOPE   GL122900  21.274  23.654   9.163  0.0639  0.3069 -0.0235
 1952DOPE   GL222901  21.522  23.782   9.289 -0.1444  0.1009  0.0591
 1952DOPE   C1A22902  21.251  23.523   9.591  0.3428  0.0945  0.1652
 1952DOPE   D2A22903  21.469  23.509  10.005 -0.1442  0.1143  0.1533
 1952DOPE   C3A22904  21.456  23.744  10.404 -0.1545  0.1330 -0.2940
 1952DOPE   C4A22905  21.482  24.097  10.694 -0.0149 -0.0857 -0.1957
 1952DOPE   C1B22906  21.657  23.899   9.695 -0.2772  0.0872 -0.0153
 1952DOPE   D2B22907  21.858  23.852  10.051  0.1259  0.1372  0.4503
 1952DOPE   C3B22908  21.901  23.865  10.498 -0.1306  0.0081 -0.1560
 1952DOPE   C4B22909  22.036  23.919  10.919 -0.0371  0.3095 -0.0598
 1953POSM   NC322910  22.923  25.421   8.494 -0.2154  0.2877 -0.1215
 1953POSM   PO422911  23.296  25.533   8.649  0.1638  0.3497  0.3062
 1953POSM   AM122912  23.416  25.529   8.960  0.1281  0.1689 -0.3305
 1953POSM   AM222913  23.618  25.646   9.175  0.0353 -0.2111 -0.0265
 1953POSM   T1A22914  23.307  25.352   9.422  0.0584  0.1038 -0.0827
 1953POSM   C2A22915  23.377  25.577   9.824  0.0949  0.1984  0.2532
 1953POSM   C3A22916  23.103  25.664  10.184  0.0909 -0.3803 -0.1080
 1953POSM   C1B22917  23.777  25.576   9.443  0.2118  0.0507 -0.4615
 1953POSM   D2B22918  23.876  25.707   9.901  0.0267 -0.3776  0.0004
 1953POSM   C3B22919  24.005  25.541  10.310 -0.0567  0.3485 -0.1505
 1953POSM   C4B22920  23.878  25.308  10.686  0.0786 -0.3358  0.1296
 1954DOPE   NH322921  19.674  18.469   8.308 -0.0092 -0.1920  0.0703
 1954DOPE   PO422922  19.411  18.352   8.429  0.0506 -0.0826 -0.3335
 1954DOPE   GL122923  19.529  18.316   8.827  0.3991  0.0299 -0.2105
 1954DOPE   GL222924  19.260  18.167   8.894 -0.1364 -0.1398 -0.0990
 1954DOPE   C1A22925  19.477  18.528   9.222  0.2353 -0.1160  0.3894
 1954DOPE   D2A22926  19.259  18.938   9.349 -0.1855 -0.1643 -0.1021
 1954DOPE   C3A22927  18.926  19.031   9.111 -0.1234 -0.0894 -0.1363
 1954DOPE   C4A22928  18.535  19.055   8.982 -0.2072 -0.1113 -0.3696
 1954DOPE   C1B22929  18.890  18.350   9.114  0.2353  0.3147  0.0962
 1954DOPE   D2B22930  18.741  18.365   9.530 -0.2120 -0.0603  0.1809
 1954DOPE   C3B22931  18.916  18.463   9.909 -0.2891 -0.2153  0.2519
 1954DOPE   C4B22932  19.243  18.624  10.188 -0.1315 -0.0749 -0.2180
 1955DOPC   NC322933  19.652  17.309   8.308 -0.0905 -0.0939  0.0859
 1955DOPC   PO422934  19.982  17.482   8.481  0.1132  0.1733  0.1711
 1955DOPC   GL122935  19.905  17.806   8.629  0.0907  0.0597 -0.1465
 1955DOPC   GL222936  19.568  17.822   8.546 -0.0799  0.3673 -0.2741
 1955DOPC   C1A22937  19.783  17.983   9.020 -0.1200  0.2063 -0.4548
 1955DOPC   D2A22938  19.531  17.785   9.356  0.0628 -0.1455 -0.0347
 1955DOPC   C3A22939  19.374  18.203   9.569 -0.1375 -0.4248 -0.1685
 1955DOPC   C4A22940  19.469  18.638   9.786 -0.0212  0.1127  0.1113
 1955DOPC   C1B22941  19.277  17.618   8.876  0.2319  0.2305  0.0322
 1955DOPC   D2B22942  18.955  17.283   8.914 -0.3235 -0.1407  0.0853
 1955DOPC   C3B22943  18.990  16.973   9.191  0.1732  0.3142 -0.0479
 1955DOPC   C4B22944  19.152  17.016   9.616  0.1290  0.0742  0.2180
 1956DOPS   CNO22945  13.208  12.611   9.020 -0.2331  0.2845  0.1505
 1956DOPS   PO422946  13.519  12.513   9.223 -0.0548  0.0682  0.2225
 1956DOPS   GL122947  13.916  12.502   9.161  0.1919 -0.0356  0.1087
 1956DOPS   GL222948  13.908  12.297   9.476 -0.0268 -0.1280  0.4376
 1956DOPS   C1A22949  14.219  12.732   9.413 -0.1143 -0.0384 -0.0214
 1956DOPS   D2A22950  14.659  12.936   9.433 -0.2306 -0.0068 -0.0139
 1956DOPS   C3A22951  14.661  13.184   9.794  0.0253  0.0267 -0.1547
 1956DOPS   C4A22952  14.804  13.542  10.020 -0.3372  0.4782  0.0321
 1956DOPS   C1B22953  13.634  12.167   9.867  0.2482  0.0129  0.1330
 1956DOPS   D2B22954  13.643  12.432  10.238 -0.0988 -0.0637 -0.0485
 1956DOPS   C3B22955  13.863  12.317  10.640  0.1592  0.2755  0.3556
 1956DOPS   C4B22956  14.194  11.996  10.687  0.2855  0.0476 -0.0995
 1957DOPE   NH322957  14.593  20.807   8.779 -0.0272 -0.1178  0.0652
 1957DOPE   PO422958  14.642  21.012   9.020 -0.0442  0.3173 -0.0499
 1957DOPE   GL122959  14.944  21.048   9.177  0.3060  0.2187  0.0840
 1957DOPE   GL222960  15.154  20.821   9.355  0.1270  0.1534 -0.2953
 1957DOPE   C1A22961  14.838  21.096   9.658  0.0293 -0.2135 -0.0387
 1957DOPE   D2A22962  14.995  21.376  10.036  0.0158  0.1705  0.1872
 1957DOPE   C3A22963  15.315  21.085  10.235 -0.3569  0.0333 -0.1047
 1957DOPE   C4A22964  15.576  21.085  10.604  0.0898 -0.1279 -0.3932
 1957DOPE   C1B22965  15.540  20.839   9.588  0.0411 -0.2304  0.1980
 1957DOPE   D2B22966  15.818  21.019   9.898  0.2485 -0.0904 -0.0225
 1957DOPE   C3B22967  16.254  21.201   9.834  0.2136 -0.1799  0.1024
 1957DOPE   C4B22968  16.590  21.514  10.014 -0.0131  0.2027  0.1189
 1958DOPE   NH322969  14.662  14.459   8.714  0.1888 -0.2908  0.4370
 1958DOPE   PO422970  14.420  14.293   8.606 -0.1988  0.2047 -0.0094
 1958DOPE   GL122971  14.336  14.220   9.021  0.0274 -0.0205 -0.2378
 1958DOPE   GL222972  14.427  14.482   9.145  0.1985 -0.2562  0.0823
 1958DOPE   C1A22973  14.158  14.093   9.419 -0.3594 -0.0307 -0.1878
 1958DOPE   D2A22974  14.067  14.114   9.884 -0.2079  0.2533 -0.1056
 1958DOPE   C3A22975  13.789  14.414  10.121  0.0755  0.1345 -0.2023
 1958DOPE   C4A22976  13.701  14.714  10.446  0.0160  0.0804  0.0182
 1958DOPE   C1B22977  14.292  14.581   9.592  0.3394  0.1678  0.1047
 1958DOPE   D2B22978  14.139  14.786   9.964 -0.2659 -0.3299  0.2211
 1958DOPE   C3B22979  13.717  14.936  10.004  0.2502  0.3482  0.0000
 1958DOPE   C4B22980  13.300  14.876   9.768  0.2508  0.0280 -0.1327
 1959DOPS   CNO22981  22.259  22.442   8.468  0.1428 -0.2214 -0.0424
 1959DOPS   PO422982  22.575  22.520   8.681  0.0401  0.1926  0.2660
 1959DOPS   GL122983  22.496  22.304   8.931  0.0609  0.1523  0.3772
 1959DOPS   GL222984  22.291  22.499   9.192  0.1686  0.1117  0.0057
 1959DOPS   C1A22985  22.860  22.183   9.180 -0.2030 -0.0921  0.2556
 1959DOPS   D2A22986  22.857  22.220   9.624  0.0238  0.0150  0.6800
 1959DOPS   C3A22987  22.825  22.565   9.914  0.0706 -0.0445 -0.3007
 1959DOPS   C4A22988  23.067  22.609  10.263 -0.1788 -0.0454 -0.1018
 1959DOPS   C1B22989  22.312  22.115   9.404 -0.0980  0.0512 -0.1671
 1959DOPS   D2B22990  22.556  21.779   9.644  0.0553  0.2484  0.2543
 1959DOPS   C3B22991  22.139  21.552   9.810  0.2835 -0.1485 -0.0057
 1959DOPS   C4B22992  21.808  21.273   9.949  0.0941  0.1297  0.2224
 1960DOPE   NH322993  22.048  13.969   8.802 -0.0601 -0.0528  0.0606
 1960DOPE   PO422994  22.138  14.266   8.923  0.1364  0.0652 -0.1176
 1960DOPE   GL122995  22.125  14.059   9.276  0.0947 -0.0293  0.5175
 1960DOPE   GL222996  21.967  13.858   9.370 -0.0150  0.3160  0.1336
 1960DOPE   C1A22997  22.146  14.182   9.741 -0.0608 -0.0416  0.2096
 1960DOPE   D2A22998  22.294  14.083  10.150  0.3971 -0.1483 -0.1828
 1960DOPE   C3A22999  22.261  13.930  10.575  0.1652  0.2329 -0.0134
 1960DOPE   C4A23000  22.475  13.778  10.945 -0.0031 -0.1993  0.0050
 1960DOPE   C1B23001  21.683  13.543   9.574 -0.1858  0.3054 -0.1162
 1960DOPE   D2B23002  21.342  13.493   9.919  0.0406 -0.1344 -0.0052
 1960DOPE   C3B23003  21.497  13.176  10.227 -0.2569  0.1162  0.3011
 1960DOPE   C4B23004  21.280  12.737  10.367  0.0338 -0.1173  0.1270
 1961DOPS   CNO23005  15.842  10.239   8.588  0.2465 -0.2746  0.1595
 1961DOPS   PO423006  16.049  10.333   8.875  0.0982  0.1361  0.1770
 1961DOPS   GL123007  15.829  10.258   9.139  0.1449 -0.0431 -0.1241
 1961DOPS   GL223008  15.915  10.479   9.320 -0.0375 -0.0850  0.2357
 1961DOPS   C1A23009  15.914  10.082   9.581 -0.1577  0.1174  0.0910
 1961DOPS   D2A23010  15.931  10.141  10.040 -0.2597  0.1749 -0.0308
 1961DOPS   C3A23011  16.191   9.835  10.354 -0.1490  0.0600  0.1430
 1961DOPS   C4A23012  16.406   9.599  10.713  0.2260  0.0007  0.2058
 1961DOPS   C1B23013  16.151  10.802   9.552  0.0251  0.2356 -0.0304
 1961DOPS   D2B23014  16.242  11.214   9.747 -0.1027 -0.2265 -0.0237
 1961DOPS   C3B23015  16.279  11.197  10.246 -0.1235 -0.2260 -0.0506
 1961DOPS   C4B23016  16.017  11.006  10.519  0.0770  0.1976  0.0285
 1962DOPS   CNO23017  21.645  10.783   8.430 -0.2961 -0.0253  0.5465
 1962DOPS   PO423018  21.652  10.802   8.787  0.1312 -0.0417 -0.2345
 1962DOPS   GL123019  21.595  10.672   9.144  0.1011 -0.1308  0.0469
 1962DOPS   GL223020  21.514  10.388   9.291  0.1850  0.1279 -0.3060
 1962DOPS   C1A23021  21.894  10.695   9.499 -0.0282 -0.1296 -0.0879
 1962DOPS   D2A23022  22.180  10.998   9.683  0.0529  0.0782  0.0197
 1962DOPS   C3A23023  22.127  11.477   9.886  0.2060  0.0585  0.0112
 1962DOPS   C4A23024  21.858  11.866  10.032  0.3795 -0.0193 -0.2550
 1962DOPS   C1B23025  21.529  10.375   9.777  0.2014  0.1843 -0.2184
 1962DOPS   D2B23026  21.668  10.425  10.221 -0.0847 -0.0809 -0.1762
 1962DOPS   C3B23027  21.307  10.705  10.459  0.0115  0.1627 -0.0956
 1962DOPS   C4B23028  20.817  10.876  10.430 -0.0352  0.1420 -0.0287
 1963DOPC   NC323029  14.937  12.190   8.901 -0.2570 -0.1746 -0.0695
 1963DOPC   PO423030  14.885  12.514   8.701 -0.1384 -0.0202 -0.1399
 1963DOPC   GL123031  14.963  12.697   9.091  0.1270 -0.2132  0.0159
 1963DOPC   GL223032  15.150  12.904   9.230  0.2805 -0.0802 -0.1653
 1963DOPC   C1A23033  14.914  12.463   9.471  0.1062 -0.2400 -0.0294
 1963DOPC   D2A23034  14.948  12.391   9.949 -0.2263  0.1034 -0.1604
 1963DOPC   C3A23035  15.174  12.515  10.376 -0.0805 -0.2301 -0.1333
 1963DOPC   C4A23036  15.409  12.898  10.473 -0.1166 -0.5050  0.2080
 1963DOPC   C1B23037  15.381  12.499   9.284 -0.3945  0.0015  0.2442
 1963DOPC   D2B23038  15.368  12.182   9.655  0.3718 -0.1146 -0.2029
 1963DOPC   C3B23039  15.677  12.265  10.006  0.0314  0.1978  0.4093
 1963DOPC   C4B23040  15.742  12.516  10.384 -0.2943  0.0607 -0.3499
 1964DOPC   NC323041  23.937  21.022   8.439  0.1779 -0.1961 -0.1898
 1964DOPC   PO423042  23.760  21.186   8.762  0.2529  0.0113  0.1116
 1964DOPC   GL123043  23.768  21.033   9.119  0.5819 -0.0282  0.1694
 1964DOPC   GL223044  23.987  20.880   9.227 -0.0308 -0.0465  0.3423
 1964DOPC   C1A23045  23.922  21.328   9.462 -0.2001 -0.1595  0.0190
 1964DOPC   D2A23046  23.969  21.479   9.866 -0.0999 -0.2437 -0.1868
 1964DOPC   C3A23047  23.662  21.497  10.165 -0.0076  0.1016  0.2625
 1964DOPC   C4A23048  23.640  21.662  10.637  0.0158 -0.2506  0.2001
 1964DOPC   C1B23049  23.853  20.751   9.600 -0.1944 -0.0044  0.0279
 1964DOPC   D2B23050  23.838  20.848  10.087  0.1976 -0.0143 -0.0673
 1964DOPC   C3B23051  24.124  21.138  10.296  0.0814  0.1363 -0.2056
 1964DOPC   C4B23052  24.123  21.580  10.411 -0.1499 -0.0538  0.3400
 1965DOPE   NH323053  17.850  15.013   8.366 -0.1257 -0.0150 -0.3027
 1965DOPE   PO423054  18.166  14.931   8.373  0.3674 -0.1062 -0.1612
 1965DOPE   GL123055  18.203  15.066   8.723 -0.1711 -0.2766 -0.2946
 1965DOPE   GL223056  18.284  14.827   8.924  0.0842 -0.0576 -0.4904
 1965DOPE   C1A23057  18.038  15.303   9.057 -0.0444  0.3430  0.2853
 1965DOPE   D2A23058  17.722  15.317   9.434  0.0443 -0.1473 -0.1819
 1965DOPE   C3A23059  17.266  15.463   9.422  0.1567  0.1875 -0.1204
 1965DOPE   C4A23060  16.986  15.597   9.705  0.2735 -0.2026  0.1323
 1965DOPE   C1B23061  18.293  15.035   9.360  0.0808 -0.4051 -0.0453
 1965DOPE   D2B23062  18.157  15.392   9.627 -0.0370 -0.2301 -0.2968
 1965DOPE   C3B23063  17.836  15.419   9.926  0.4103  0.2545  0.0604
 1965DOPE   C4B23064  17.671  15.200  10.243  0.2089 -0.1103 -0.2775
 1966DOPC   NC323065  21.244  21.825   8.438  0.2258 -0.1674  0.0596
 1966DOPC   PO423066  21.626  21.815   8.472  0.1410 -0.1830 -0.0062
 1966DOPC   GL123067  21.513  21.886   8.904  0.0520  0.3808  0.4354
 1966DOPC   GL223068  21.220  21.921   8.986 -0.0636 -0.2683 -0.1007
 1966DOPC   C1A23069  21.746  22.233   9.115  0.0932  0.0845 -0.1536
 1966DOPC   D2A23070  21.787  22.682   9.243 -0.1153  0.0314  0.2303
 1966DOPC   C3A23071  21.689  22.762   9.696  0.3149 -0.2215  0.2858
 1966DOPC   C4A23072  21.597  23.035  10.104  0.2621  0.5490 -0.0594
 1966DOPC   C1B23073  21.415  22.099   9.430  0.1373  0.0827  0.2082
 1966DOPC   D2B23074  21.761  22.284   9.610  0.0420  0.2058 -0.0886
 1966DOPC   C3B23075  22.013  22.061   9.890  0.4308  0.1112  0.1728
 1966DOPC   C4B23076  22.486  22.200   9.916  0.0193 -0.2412  0.2063
 1967POSM   NC323077  16.051  14.212   8.798 -0.1124 -0.1025  0.1203
 1967POSM   PO423078  15.849  13.983   8.550 -0.2324  0.1692  0.0368
 1967POSM   AM123079  16.009  13.776   8.804  0.0820 -0.2358 -0.2325
 1967POSM   AM223080  16.206  13.591   8.910 -0.1842  0.0947 -0.0507
 1967POSM   T1A23081  16.016  13.815   9.311 -0.3092 -0.3374  0.0515
 1967POSM   C2A23082  16.072  13.514   9.684  0.1155 -0.1584  0.0457
 1967POSM   C3A23083  16.167  13.269  10.045  0.1356  0.0613  0.0947
 1967POSM   C1B23084  16.252  13.390   9.159 -0.0869 -0.0270  0.0461
 1967POSM   D2B23085  16.069  13.080   9.500  0.0789 -0.1660 -0.1175
 1967POSM   C3B23086  15.708  13.212   9.780  0.0150 -0.0335  0.2120
 1967POSM   C4B23087  15.802  12.961  10.140  0.0361 -0.0518 -0.1490
 1968DOPC   NC323088  12.698  19.226   9.384  0.0791  0.1146 -0.1545
 1968DOPC   PO423089  13.087  19.194   9.227  0.0624  0.0087 -0.1457
 1968DOPC   GL123090  13.299  19.166   9.563 -0.1243  0.0698 -0.2557
 1968DOPC   GL223091  13.165  19.247   9.757 -0.1634 -0.3747  0.4333
 1968DOPC   C1A23092  13.485  18.962   9.937  0.3672  0.0145 -0.1358
 1968DOPC   D2A23093  13.918  19.091  10.084 -0.0126  0.0257 -0.3201
 1968DOPC   C3A23094  13.896  19.436  10.420  0.2439 -0.0722 -0.0385
 1968DOPC   C4A23095  13.545  19.721  10.537 -0.1401 -0.0293 -0.0601
 1968DOPC   C1B23096  13.207  19.758   9.675 -0.1087 -0.0893 -0.0639
 1968DOPC   D2B23097  13.442  19.939  10.008  0.2152 -0.0043  0.0304
 1968DOPC   C3B23098  13.808  20.298   9.935  0.1432  0.2123 -0.2599
 1968DOPC   C4B23099  13.809  20.741   9.975 -0.4250 -0.2428  0.1688
 1969DOPC   NC323100  20.108  21.128   8.483  0.2627 -0.1789 -0.3197
 1969DOPC   PO423101  20.030  20.774   8.359  0.2539  0.0756 -0.0073
 1969DOPC   GL123102  19.721  20.579   8.611  0.1621 -0.3121  0.0064
 1969DOPC   GL223103  19.867  20.550   8.876 -0.0703  0.2752 -0.2196
 1969DOPC   C1A23104  19.726  20.141   8.743  0.3128 -0.2162 -0.0727
 1969DOPC   D2A23105  19.731  19.754   9.076  0.0874 -0.3854  0.0041
 1969DOPC   C3A23106  19.926  19.372   9.201  0.3412 -0.1768  0.1141
 1969DOPC   C4A23107  20.155  19.036   9.387 -0.0294 -0.3582 -0.2093
 1969DOPC   C1B23108  19.395  20.487   9.010 -0.0267 -0.0179 -0.1405
 1969DOPC   D2B23109  19.289  20.334   9.458  0.1751  0.0131 -0.2161
 1969DOPC   C3B23110  19.202  20.643   9.817 -0.0820 -0.1359 -0.3268
 1969DOPC   C4B23111  19.201  21.066   9.944  0.1220 -0.2844 -0.0925
 1970DOPE   NH323112  14.306  21.553   9.225 -0.2154  0.3825 -0.0603
 1970DOPE   PO423113  14.103  21.364   9.156 -0.0404 -0.0644  0.1370
 1970DOPE   GL123114  14.046  21.314   9.467 -0.2788  0.2432 -0.2914
 1970DOPE   GL223115  13.842  21.126   9.469  0.0276  0.0980  0.2797
 1970DOPE   C1A23116  14.070  21.555   9.876  0.3813  0.0091  0.0256
 1970DOPE   D2A23117  13.996  21.483  10.324 -0.0140  0.1443 -0.1561
 1970DOPE   C3A23118  13.821  21.123  10.524 -0.0497 -0.0293  0.4528
 1970DOPE   C4A23119  13.648  20.697  10.429 -0.0505 -0.0641 -0.3908
 1970DOPE   C1B23120  14.120  21.100   9.855  0.1465  0.3390 -0.1792
 1970DOPE   D2B23121  14.305  20.726  10.000 -0.4451 -0.0033 -0.0612
 1970DOPE   C3B23122  14.278  20.594  10.444 -0.0453 -0.2601 -0.2531
 1970DOPE   C4B23123  14.069  20.660  10.834 -0.0046  0.0102 -0.1326
 1971DOPE   NH323124  14.984  24.033   9.790  0.0940 -0.1351  0.0335
 1971DOPE   PO423125  15.127  24.348   9.887  0.2064  0.2396  0.1226
 1971DOPE   GL123126  15.352  24.129  10.048 -0.1763 -0.1662  0.1363
 1971DOPE   GL223127  15.502  23.902  10.024 -0.0433  0.1966  0.1081
 1971DOPE   C1A23128  15.468  24.033  10.526 -0.1183  0.2232 -0.0148
 1971DOPE   D2A23129  15.523  24.068  10.961  0.0909 -0.0061  0.1273
 1971DOPE   C3A23130  15.560  23.920  11.434  0.2302 -0.1117  0.1839
 1971DOPE   C4A23131  15.548  24.019  11.851  0.0090 -0.1312 -0.0324
 1971DOPE   C1B23132  15.933  23.796  10.280 -0.2392  0.0561  0.2259
 1971DOPE   D2B23133  16.304  23.611  10.525 -0.0052  0.2171 -0.0140
 1971DOPE   C3B23134  16.570  23.966  10.709 -0.1345 -0.2325  0.3262
 1971DOPE   C4B23135  16.622  24.416  10.619  0.0090 -0.0987 -0.1281
 1972DOPC   NC323136  11.970  19.235   8.648  0.2860  0.2601 -0.1166
 1972DOPC   PO423137  12.073  19.594   8.712 -0.0146  0.0508 -0.0931
 1972DOPC   GL123138  11.909  19.586   9.070 -0.2382  0.0368 -0.2847
 1972DOPC   GL223139  11.837  19.331   9.220  0.4732 -0.1103  0.1023
 1972DOPC   C1A23140  11.777  19.853   9.433 -0.2415 -0.3580 -0.0432
 1972DOPC   D2A23141  11.393  19.853   9.734  0.0672 -0.0740  0.0284
 1972DOPC   C3A23142  11.500  19.680  10.129  0.1412  0.2495 -0.1340
 1972DOPC   C4A23143  11.892  19.531  10.250  0.1231  0.1590 -0.0281
 1972DOPC   C1B23144  11.773  19.334   9.690  0.0132 -0.2300 -0.0726
 1972DOPC   D2B23145  11.674  19.056  10.086 -0.0203 -0.1267  0.2254
 1972DOPC   C3B23146  11.822  18.943  10.482 -0.1257 -0.1673 -0.2823
 1972DOPC   C4B23147  12.008  18.989  10.884  0.0068 -0.1635 -0.1488
 1973DOPE   NH323148  24.082  18.405   9.047 -0.1725  0.0577  0.1327
 1973DOPE   PO423149  23.772  18.420   9.110 -0.1520 -0.0505  0.0528
 1973DOPE   GL123150  23.573  18.293   9.439  0.0995  0.3930 -0.1613
 1973DOPE   GL223151  23.391  18.044   9.435  0.2980 -0.0952 -0.0250
 1973DOPE   C1A23152  23.141  18.446   9.595  0.1322  0.2989 -0.2527
 1973DOPE   D2A23153  22.878  18.762   9.754  0.0649 -0.0462 -0.3030
 1973DOPE   C3A23154  22.843  19.017  10.138 -0.1206 -0.0072  0.1285
 1973DOPE   C4A23155  22.413  19.170  10.303  0.2130 -0.0508  0.0825
 1973DOPE   C1B23156  23.399  18.147   9.853 -0.1947  0.0035 -0.0835
 1973DOPE   D2B23157  23.488  18.333  10.286  0.1203  0.3390 -0.2564
 1973DOPE   C3B23158  23.696  18.154  10.662  0.3945 -0.3156  0.3555
 1973DOPE   C4B23159  24.005  18.236  10.974  0.2028  0.0828 -0.0055
 1974DOPS   CNO23160  18.729  22.708   8.772 -0.2465 -0.2727 -0.1947
 1974DOPS   PO423161  18.463  22.434   8.755 -0.1616 -0.2631 -0.1108
 1974DOPS   GL123162  18.445  22.374   9.157  0.0239 -0.2699  0.1590
 1974DOPS   GL223163  18.691  22.558   9.197  0.0015 -0.0567 -0.0312
 1974DOPS   C1A23164  18.068  22.378   9.424 -0.1548  0.0227  0.0402
 1974DOPS   D2A23165  17.615  22.483   9.415 -0.1574 -0.0925 -0.1254
 1974DOPS   C3A23166  17.364  22.220   9.751  0.0681 -0.2757 -0.1547
 1974DOPS   C4A23167  17.525  21.965  10.123  0.3249  0.0336  0.0599
 1974DOPS   C1B23168  18.571  22.400   9.637  0.1478  0.1191 -0.1999
 1974DOPS   D2B23169  18.926  22.398   9.955  0.2019  0.1322  0.3152
 1974DOPS   C3B23170  18.712  22.634  10.304 -0.5454 -0.3019  0.1136
 1974DOPS   C4B23171  18.599  23.070  10.381  0.2096  0.1650  0.3023
 1975DOPC   NC323172  16.411  20.712   7.899  0.0321 -0.0270  0.0724
 1975DOPC   PO423173  16.720  20.913   8.112 -0.0630  0.2146 -0.0144
 1975DOPC   GL123174  16.559  20.859   8.489 -0.0343  0.1321  0.0993
 1975DOPC   GL223175  16.710  21.121   8.602  0.1618 -0.0212  0.2160
 1975DOPC   C1A23176  16.482  20.620   8.896  0.2625  0.0688  0.0507
 1975DOPC   D2A23177  16.525  20.602   9.349  0.1488  0.0477 -0.2730
 1975DOPC   C3A23178  16.924  20.728   9.507 -0.2846  0.2791  0.1065
 1975DOPC   C4A23179  17.323  20.780   9.686  0.0189  0.2336  0.4606
 1975DOPC   C1B23180  16.796  21.075   9.032 -0.2627 -0.2008  0.2324
 1975DOPC   D2B23181  17.080  21.184   9.412 -0.3950  0.1503  0.0981
 1975DOPC   C3B23182  17.013  21.169   9.868  0.1348 -0.0072  0.0558
 1975DOPC   C4B23183  17.008  20.883  10.209  0.1313 -0.2360 -0.4368
 1976POSM   NC323184  20.457  17.611   8.628  0.1992 -0.0061 -0.1177
 1976POSM   PO423185  20.827  17.700   8.555 -0.1245 -0.0992  0.1178
 1976POSM   AM123186  20.849  17.886   8.806  0.2119 -0.0569  0.0275
 1976POSM   AM223187  20.827  17.905   9.056  0.0499 -0.0559  0.1258
 1976POSM   T1A23188  20.937  18.394   8.989  0.0886 -0.1557  0.0546
 1976POSM   C2A23189  20.774  18.653   9.392  0.3006 -0.0406 -0.1643
 1976POSM   C3A23190  20.993  18.750   9.762 -0.5136 -0.0433 -0.0161
 1976POSM   C1B23191  20.785  18.112   9.332  0.1084  0.0379  0.1351
 1976POSM   D2B23192  20.738  18.320   9.754  0.0730 -0.1218  0.1224
 1976POSM   C3B23193  20.795  18.211  10.215 -0.0357 -0.2415 -0.0970
 1976POSM   C4B23194  20.442  18.053  10.484 -0.0871 -0.2559 -0.1134
 1977DOPC   NC323195  13.354  18.375   9.203  0.0502  0.1611  0.0284
 1977DOPC   PO423196  13.722  18.428   9.051 -0.3762 -0.0182  0.1517
 1977DOPC   GL123197  13.904  18.443   9.461 -0.1397  0.0061  0.0514
 1977DOPC   GL223198  14.091  18.628   9.450 -0.0453 -0.0089  0.0875
 1977DOPC   C1A23199  13.848  18.111   9.768  0.2973 -0.1379  0.2660
 1977DOPC   D2A23200  13.603  17.906  10.127 -0.3556  0.0699  0.2876
 1977DOPC   C3A23201  13.810  17.844  10.576 -0.0019 -0.0100 -0.2178
 1977DOPC   C4A23202  13.878  17.839  10.980  0.0484 -0.2217  0.2496
 1977DOPC   C1B23203  13.950  18.624   9.919 -0.0738  0.3789 -0.0682
 1977DOPC   D2B23204  14.236  18.615  10.269  0.0949 -0.2542  0.3377
 1977DOPC   C3B23205  14.092  18.960  10.600 -0.1125 -0.3223  0.1591
 1977DOPC   C4B23206  13.794  19.209  10.887  0.3051 -0.0987  0.0433
 1978POSM   NC323207  16.562  23.198   9.102  0.1324  0.0718 -0.2073
 1978POSM   PO423208  16.819  23.238   8.795 -0.1379 -0.1256  0.1964
 1978POSM   AM123209  17.025  23.040   9.003 -0.1749 -0.0794  0.0935
 1978POSM   AM223210  17.301  22.977   9.086  0.3162  0.0797 -0.1456
 1978POSM   T1A23211  17.041  22.685   9.395 -0.1449 -0.0836 -0.0992
 1978POSM   C2A23212  16.758  22.597   9.843 -0.1094  0.0197 -0.0601
 1978POSM   C3A23213  16.655  22.658  10.242 -0.2411 -0.0155  0.1744
 1978POSM   C1B23214  17.393  22.989   9.412 -0.0370 -0.1689 -0.1244
 1978POSM   D2B23215  17.313  22.838   9.859  0.0345 -0.0184  0.1549
 1978POSM   C3B23216  17.526  22.590  10.170  0.2329 -0.1999  0.2625
 1978POSM   C4B23217  17.799  22.326  10.353  0.1154  0.1232 -0.1092
 1979DOPE   NH323218  15.290  19.333   8.218  0.2017 -0.1772 -0.0773
 1979DOPE   PO423219  15.298  19.427   8.531 -0.0150 -0.0380  0.2855
 1979DOPE   GL123220  15.122  19.311   8.865 -0.0190 -0.1536  0.2000
 1979DOPE   GL223221  15.342  19.411   9.069  0.0473  0.0294 -0.1920
 1979DOPE   C1A23222  14.934  19.164   9.298 -0.2224  0.1988 -0.0892
 1979DOPE   D2A23223  14.799  19.099   9.774 -0.1917 -0.1780 -0.0693
 1979DOPE   C3A23224  15.033  19.245  10.179  0.0908 -0.1406  0.0437
 1979DOPE   C4A23225  14.737  19.283  10.533  0.0280 -0.1232 -0.0072
 1979DOPE   C1B23226  14.936  19.642   9.253  0.3066  0.1417 -0.0864
 1979DOPE   D2B23227  14.517  19.388   9.282 -0.2391  0.1405  0.2583
 1979DOPE   C3B23228  14.378  19.614   9.665 -0.1381 -0.3722  0.1340
 1979DOPE   C4B23229  14.031  19.615   9.984 -0.4603  0.1821 -0.3347
 1980DOPE   NH323230  24.265  19.848   9.156  0.2817 -0.0737 -0.1606
 1980DOPE   PO423231  24.183  19.622   8.987  0.1194 -0.2456 -0.0323
 1980DOPE   GL123232  23.853  19.684   9.279  0.3128  0.1934 -0.1271
 1980DOPE   GL223233  23.987  19.460   9.466 -0.0852  0.0728  0.0247
 1980DOPE   C1A23234  23.391  19.723   9.384  0.1607 -0.1134  0.0036
 1980DOPE   D2A23235  23.123  19.438   9.582  0.1736 -0.0420 -0.0041
 1980DOPE   C3A23236  22.681  19.488   9.731  0.0898 -0.0221 -0.0699
 1980DOPE   C4A23237  22.401  19.863   9.840 -0.2155 -0.2152  0.1482
 1980DOPE   C1B23238  23.593  19.330   9.649 -0.2342 -0.0261 -0.2261
 1980DOPE   D2B23239  23.262  19.257   9.993 -0.3578  0.2091 -0.0317
 1980DOPE   C3B23240  23.095  19.424  10.387 -0.0717 -0.0412 -0.2732
 1980DOPE   C4B23241  22.692  19.506  10.536  0.0351 -0.1300 -0.0508
 1981DOPS   CNO23242  17.707  12.344   8.223  0.0434 -0.1713 -0.1211
 1981DOPS   PO423243  17.563  12.059   8.380  0.1950 -0.1991 -0.2607
 1981DOPS   GL123244  17.588  12.041   8.752 -0.1424 -0.0069  0.0289
 1981DOPS   GL223245  17.432  11.828   8.907  0.0859  0.2155  0.1047
 1981DOPS   C1A23246  17.745  12.120   9.187  0.5724 -0.1853  0.0761
 1981DOPS   D2A23247  17.578  12.286   9.516  0.1143  0.0664 -0.1387
 1981DOPS   C3A23248  17.514  11.867   9.774  0.0315  0.0598 -0.2719
 1981DOPS   C4A23249  17.368  11.708  10.167 -0.0812  0.2071  0.1490
 1981DOPS   C1B23250  17.459  11.649   9.284  0.1267  0.0618  0.0082
 1981DOPS   D2B23251  17.709  11.319   9.472  0.1712  0.1257  0.2677
 1981DOPS   C3B23252  17.772  11.441   9.953 -0.1808 -0.3008  0.3097
 1981DOPS   C4B23253  17.970  11.507  10.389  0.2980 -0.2759 -0.0993
 1982DOPE   NH323254  12.140  12.499   9.923  0.1913 -0.2067 -0.0546
 1982DOPE   PO423255  11.826  12.548  10.018 -0.1737  0.1349 -0.0510
 1982DOPE   GL123256  11.917  12.755  10.429  0.0050 -0.2546  0.0268
 1982DOPE   GL223257  12.214  12.636  10.363 -0.1235  0.2471 -0.2060
 1982DOPE   C1A23258  12.065  13.067  10.681 -0.0389 -0.1181 -0.1011
 1982DOPE   D2A23259  12.480  13.332  10.695  0.2274 -0.1599 -0.1663
 1982DOPE   C3A23260  12.486  13.693  11.023 -0.1540  0.1087  0.1671
 1982DOPE   C4A23261  12.793  13.686  11.288  0.1286 -0.0760  0.0898
 1982DOPE   C1B23262  12.634  12.831  10.398 -0.1547  0.0533 -0.0989
 1982DOPE   D2B23263  12.958  13.087  10.142 -0.0324 -0.2697  0.0956
 1982DOPE   C3B23264  13.054  13.066   9.724 -0.2347  0.0775  0.0421
 1982DOPE   C4B23265  12.915  13.330   9.375  0.1048  0.0642 -0.4479
 1983DOPE   NH323266  19.050  11.703   8.612  0.0565 -0.4266  0.0976
 1983DOPE   PO423267  19.253  11.897   8.758 -0.0857 -0.0187 -0.0827
 1983DOPE   GL123268  19.433  11.933   9.138 -0.0084  0.0078  0.3241
 1983DOPE   GL223269  19.789  11.957   9.234 -0.2236 -0.0885  0.1099
 1983DOPE   C1A23270  19.257  11.990   9.570  0.2006  0.0965 -0.0241
 1983DOPE   D2A23271  18.889  12.139   9.843 -0.0927  0.0226 -0.1670
 1983DOPE   C3A23272  18.944  12.236  10.309 -0.1891  0.1343  0.0313
 1983DOPE   C4A23273  18.674  12.167  10.685 -0.4889  0.2349  0.1365
 1983DOPE   C1B23274  20.206  12.016   9.532  0.0513 -0.2341  0.2901
 1983DOPE   D2B23275  20.212  12.060   9.997  0.4091 -0.0035 -0.0789
 1983DOPE   C3B23276  20.421  11.663  10.020 -0.0464  0.4146 -0.2903
 1983DOPE   C4B23277  20.291  11.205   9.903 -0.0595  0.1511 -0.0920
 1984POSM   NC323278  23.093  23.103   8.832  0.3055  0.0081  0.0881
 1984POSM   PO423279  23.023  22.718   8.688 -0.3193 -0.1485 -0.3942
 1984POSM   AM123280  22.975  22.719   9.028  0.4374  0.1614  0.1215
 1984POSM   AM223281  23.124  22.780   9.250 -0.0865  0.0244  0.0712
 1984POSM   T1A23282  22.697  22.692   9.433 -0.0387 -0.2949 -0.0732
 1984POSM   C2A23283  22.577  23.043   9.757  0.0972 -0.1344  0.1742
 1984POSM   C3A23284  22.468  23.183  10.144  0.1256  0.0933 -0.3759
 1984POSM   C1B23285  23.166  22.798   9.573 -0.1291 -0.0158  0.3028
 1984POSM   D2B23286  23.358  22.893   9.959 -0.2806 -0.1442  0.1665
 1984POSM   C3B23287  23.581  22.534  10.181  0.0142 -0.2366  0.1886
 1984POSM   C4B23288  23.854  22.599  10.596 -0.0471 -0.1663 -0.0650
 1985DOPC   NC323289  25.232  23.155   8.752 -0.4014 -0.1211  0.0827
 1985DOPC   PO423290  25.461  22.937   8.520 -0.2837  0.0174  0.4647
 1985DOPC   GL123291  25.562  22.901   8.873 -0.1406 -0.3992  0.5708
 1985DOPC   GL223292  25.423  22.657   8.952 -0.0879 -0.1056 -0.2484
 1985DOPC   C1A23293  25.422  23.081   9.288  0.1779  0.0198 -0.1620
 1985DOPC   D2A23294  25.457  23.300   9.723 -0.2760 -0.0479 -0.0190
 1985DOPC   C3A23295  25.578  23.240  10.182  0.0933  0.2025 -0.0899
 1985DOPC   C4A23296  25.765  23.235  10.603  0.0883 -0.1926 -0.1430
 1985DOPC   C1B23297  25.414  22.576   9.413 -0.1835 -0.1492 -0.0746
 1985DOPC   D2B23298  25.145  22.325   9.719 -0.2298 -0.2597  0.1239
 1985DOPC   C3B23299  25.087  22.400  10.226 -0.1201  0.0503  0.3465
 1985DOPC   C4B23300  25.291  22.365  10.665 -0.1745 -0.0868 -0.0389
 1986DOPC   NC323301  14.952  10.730   9.427  0.2318  0.0258 -0.0822
 1986DOPC   PO423302  15.087  10.536   9.129  0.0141  0.3696 -0.1199
 1986DOPC   GL123303  15.313  10.847   9.143  0.1844  0.1793 -0.1446
 1986DOPC   GL223304  15.552  10.846   9.264 -0.0071  0.0344  0.0266
 1986DOPC   C1A23305  15.252  11.124   9.582 -0.1283 -0.4610 -0.1060
 1986DOPC   D2A23306  14.898  11.366   9.809  0.0122  0.1373 -0.2299
 1986DOPC   C3A23307  14.959  11.598  10.211  0.0954  0.1822  0.0155
 1986DOPC   C4A23308  15.015  12.028  10.276 -0.1501 -0.1093 -0.0307
 1986DOPC   C1B23309  15.767  11.073   9.568  0.1198  0.0402  0.2774
 1986DOPC   D2B23310  15.608  11.131   9.988 -0.3213  0.0977 -0.0649
 1986DOPC   C3B23311  15.514  10.810  10.290  0.1414 -0.3318  0.0802
 1986DOPC   C4B23312  15.574  10.385  10.334  0.2807 -0.0421  0.3865
 1987DOPE   NH323313  15.533  13.130   8.798 -0.1931 -0.1326  0.2210
 1987DOPE   PO423314  15.351  13.386   8.893  0.0850 -0.1454  0.1396
 1987DOPE   GL123315  15.396  13.439   9.260 -0.1251  0.1796 -0.0336
 1987DOPE   GL223316  15.475  13.604   9.480 -0.3157  0.0828  0.1825
 1987DOPE   C1A23317  15.069  13.340   9.579  0.0251 -0.0467  0.0920
 1987DOPE   D2A23318  15.060  12.896   9.727 -0.1927  0.1666 -0.3323
 1987DOPE   C3A23319  15.377  12.739   9.948  0.4667  0.0359 -0.1854
 1987DOPE   C4A23320  15.780  12.663   9.729 -0.1081  0.0159  0.0474
 1987DOPE   C1B23321  15.299  13.646   9.884  0.2510 -0.1915  0.1237
 1987DOPE   D2B23322  15.190  13.738  10.295  0.1044 -0.4132 -0.2760
 1987DOPE   C3B23323  14.904  13.840  10.597 -0.2360  0.0493 -0.0563
 1987DOPE   C4B23324  14.549  13.694  10.930 -0.0130 -0.0751  0.2467
 1988DOPE   NH323325  18.861  14.925   8.495 -0.0384  0.0355  0.2027
 1988DOPE   PO423326  18.714  15.066   8.717  0.2344 -0.0714 -0.0296
 1988DOPE   GL123327  18.802  14.839   9.007 -0.2227 -0.1867 -0.2346
 1988DOPE   GL223328  19.076  14.763   9.045  0.0339 -0.0858  0.0444
 1988DOPE   C1A23329  18.794  14.878   9.459  0.0981  0.2059 -0.1828
 1988DOPE   D2A23330  18.837  14.907   9.902 -0.0061  0.1459  0.0704
 1988DOPE   C3A23331  18.983  14.584  10.314 -0.0582  0.4410 -0.0001
 1988DOPE   C4A23332  19.331  14.255  10.313 -0.2908  0.2684 -0.1859
 1988DOPE   C1B23333  19.319  14.951   9.429  0.0290 -0.2021  0.3544
 1988DOPE   D2B23334  19.176  15.212   9.797  0.1264  0.0904 -0.0120
 1988DOPE   C3B23335  18.979  15.602   9.628  0.3728  0.1636 -0.0803
 1988DOPE   C4B23336  19.041  15.804   9.253  0.2485 -0.2975  0.2735
 1989POSM   NC323337  17.173  12.431   8.378  0.0526  0.0303  0.4486
 1989POSM   PO423338  17.119  12.815   8.434  0.0313 -0.1578 -0.1802
 1989POSM   AM123339  17.173  12.799   8.759 -0.2696 -0.0791  0.3974
 1989POSM   AM223340  17.208  13.022   8.967  0.0900  0.0289 -0.1003
 1989POSM   T1A23341  17.551  12.628   9.097 -0.0890  0.0676 -0.1844
 1989POSM   C2A23342  17.865  12.728   9.441  0.0784 -0.0690 -0.0937
 1989POSM   C3A23343  18.332  12.642   9.556  0.0129 -0.3794 -0.1061
 1989POSM   C1B23344  16.971  13.170   9.138 -0.3378  0.2520  0.0051
 1989POSM   D2B23345  16.723  13.413   9.459 -0.0812  0.2162 -0.0580
 1989POSM   C3B23346  16.719  13.441   9.894  0.1577  0.1944  0.1719
 1989POSM   C4B23347  16.541  13.464  10.384 -0.0066  0.0143  0.1468
 1990POSM   NC323348  17.727  18.249   8.685 -0.0304  0.0058  0.2011
 1990POSM   PO423349  17.969  18.132   8.377 -0.2015  0.0025 -0.1223
 1990POSM   AM123350  18.122  17.954   8.616 -0.1370 -0.5979  0.0762
 1990POSM   AM223351  18.259  17.699   8.639  0.0391  0.2056 -0.0499
 1990POSM   T1A23352  18.444  18.072   8.991 -0.0226 -0.0257 -0.0331
 1990POSM   C2A23353  18.786  17.807   9.238 -0.2326 -0.3759 -0.0084
 1990POSM   C3A23354  19.015  17.439   9.410  0.4410  0.1884  0.0474
 1990POSM   C1B23355  18.305  17.549   8.852  0.0583  0.1284  0.0524
 1990POSM   D2B23356  18.383  17.255   9.224  0.1696 -0.1132 -0.1121
 1990POSM   C3B23357  18.573  17.497   9.596  0.1026 -0.3570 -0.2428
 1990POSM   C4B23358  18.655  17.559  10.048 -0.1950  0.2062 -0.2524
 1991POSM   NC323359  13.390  20.783   9.453  0.4290 -0.0443  0.3881
 1991POSM   PO423360  13.142  20.525   9.235 -0.1655 -0.0225 -0.2569
 1991POSM   AM123361  13.079  20.478   9.561  0.1680 -0.3582  0.0447
 1991POSM   AM223362  13.138  20.533   9.855 -0.3913  0.2470  0.1542
 1991POSM   T1A23363  12.946  20.075   9.891  0.0214 -0.1830  0.0385
 1991POSM   C2A23364  12.987  19.882  10.315  0.1380 -0.1078 -0.0692
 1991POSM   C3A23365  13.104  19.738  10.782 -0.0137  0.1547  0.0413
 1991POSM   C1B23366  13.351  20.445  10.130  0.1347 -0.1133 -0.3615
 1991POSM   D2B23367  13.339  20.160  10.547  0.0702 -0.3690  0.3505
 1991POSM   C3B23368  13.817  20.230  10.708 -0.5237 -0.1743  0.1708
 1991POSM   C4B23369  14.321  20.262  10.756  0.0291  0.2194 -0.2472
 1992POSM   NC323370  20.555  16.124   8.174  0.0975  0.4242 -0.1309
 1992POSM   PO423371  20.656  15.999   8.532 -0.1045 -0.1478  0.2419
 1992POSM   AM123372  20.670  16.090   8.833 -0.0059  0.4492  0.6800
 1992POSM   AM223373  20.603  16.254   9.020 -0.0304 -0.0643 -0.1817
 1992POSM   T1A23374  20.910  15.898   9.254  0.0028 -0.0801 -0.3664
 1992POSM   C2A23375  21.045  15.498   9.479 -0.0928  0.0916 -0.1222
 1992POSM   C3A23376  20.882  15.199   9.741  0.2773 -0.0411  0.1213
 1992POSM   C1B23377  20.476  16.170   9.338  0.3563 -0.1373  0.0441
 1992POSM   D2B23378  20.283  16.062   9.750  0.0563 -0.2085  0.1114
 1992POSM   C3B23379  20.538  16.155  10.182 -0.0197 -0.2889 -0.1389
 1992POSM   C4B23380  20.995  16.089  10.377 -0.0883  0.3220 -0.2616
 1993DOPC   NC323381  15.089  18.245   8.573  0.3373 -0.2637 -0.0148
 1993DOPC   PO423382  15.427  18.481   8.621 -0.1597  0.1440 -0.0920
 1993DOPC   GL123383  15.487  18.376   8.972 -0.2488  0.2896  0.3246
 1993DOPC   GL223384  15.487  18.606   9.149  0.0249 -0.1851  0.0353
 1993DOPC   C1A23385  15.419  18.258   9.426 -0.0559  0.0958  0.3511
 1993DOPC   D2A23386  15.412  18.302   9.884  0.3169  0.1921 -0.4739
 1993DOPC   C3A23387  15.869  18.399  10.112 -0.1447 -0.2990 -0.1870
 1993DOPC   C4A23388  16.254  18.383   9.849 -0.1433  0.0913  0.0099
 1993DOPC   C1B23389  15.435  19.030   9.407 -0.0488 -0.2045 -0.1346
 1993DOPC   D2B23390  15.206  19.301   9.671 -0.2933  0.0950 -0.0450
 1993DOPC   C3B23391  14.864  19.614   9.785 -0.1493  0.1040  0.2433
 1993DOPC   C4B23392  14.646  19.804  10.100 -0.1217  0.1830  0.2332
 1994DOPC   NC323393  19.134  12.615   8.645  0.0815  0.2859  0.1933
 1994DOPC   PO423394  18.929  12.287   8.557  0.1373  0.3004  0.0755
 1994DOPC   GL123395  19.078  12.287   8.982 -0.0487  0.0075  0.1106
 1994DOPC   GL223396  18.890  12.036   9.086 -0.0359  0.0263  0.3047
 1994DOPC   C1A23397  19.279  12.397   9.359  0.2235  0.1451  0.3950
 1994DOPC   D2A23398  19.273  12.441   9.847 -0.0299  0.2269  0.0335
 1994DOPC   C3A23399  19.400  12.026  10.093  0.1216 -0.0118  0.3025
 1994DOPC   C4A23400  19.630  11.710  10.301 -0.0647 -0.1162 -0.0714
 1994DOPC   C1B23401  18.645  11.825   9.426  0.2326 -0.0267  0.4902
 1994DOPC   D2B23402  18.460  11.774   9.858  0.0648  0.0880  0.0520
 1994DOPC   C3B23403  18.236  11.396   9.963 -0.0637  0.1190  0.0618
 1994DOPC   C4B23404  18.056  11.044   9.760 -0.3215  0.0835 -0.3408
 1995DOPE   NH323405  20.418  18.682   8.425 -0.2664 -0.2225 -0.1965
 1995DOPE   PO423406  20.682  18.834   8.401 -0.1300  0.1488 -0.0367
 1995DOPE   GL123407  20.746  18.805   8.739  0.1078  0.0609 -0.3098
 1995DOPE   GL223408  20.556  18.898   8.895  0.1599 -0.2230 -0.1056
 1995DOPE   C1A23409  21.150  18.819   9.056  0.2497 -0.3604 -0.0758
 1995DOPE   D2A23410  21.378  18.970   9.392 -0.1770  0.0823 -0.1458
 1995DOPE   C3A23411  21.592  19.241   9.722 -0.0044  0.1112  0.0153
 1995DOPE   C4A23412  21.777  19.425  10.056 -0.0546 -0.0459  0.2350
 1995DOPE   C1B23413  20.591  19.324   9.140 -0.0108  0.0045 -0.3436
 1995DOPE   D2B23414  20.691  19.611   9.490 -0.2255 -0.0219  0.3609
 1995DOPE   C3B23415  21.040  19.930   9.448  0.1509  0.1564 -0.0224
 1995DOPE   C4B23416  21.088  20.191   9.848 -0.2364  0.2603  0.1629
 1996DOPC   NC323417  21.611  17.591   8.964 -0.0831  0.0451  0.0653
 1996DOPC   PO423418  21.355  17.881   8.893  0.1675 -0.1167  0.2238
 1996DOPC   GL123419  21.192  18.078   9.176  0.2775  0.2901  0.0228
 1996DOPC   GL223420  21.221  17.935   9.447  0.3228 -0.0404  0.0698
 1996DOPC   C1A23421  21.248  18.431   9.395 -0.1342  0.1503  0.0874
 1996DOPC   D2A23422  21.600  18.566   9.661  0.1542 -0.0355  0.0555
 1996DOPC   C3A23423  21.823  18.195   9.531 -0.1310  0.2463  0.0509
 1996DOPC   C4A23424  21.810  17.780   9.394  0.0394  0.0275 -0.1993
 1996DOPC   C1B23425  21.292  18.231   9.835  0.0861  0.2250 -0.4141
 1996DOPC   D2B23426  21.230  18.566  10.171  0.2357 -0.0465 -0.0749
 1996DOPC   C3B23427  20.773  18.731  10.292  0.1555 -0.1271 -0.0003
 1996DOPC   C4B23428  20.425  18.940  10.132 -0.3826  0.2101 -0.1035
 1997DOPC   NC323429  21.588  19.735   7.904 -0.2069 -0.2624  0.1603
 1997DOPC   PO423430  21.602  19.895   8.236 -0.3382  0.0457  0.1761
 1997DOPC   GL123431  21.421  19.660   8.525  0.2215 -0.0358 -0.1412
 1997DOPC   GL223432  21.629  19.702   8.792  0.0289 -0.3454 -0.1224
 1997DOPC   C1A23433  21.182  19.619   8.925 -0.0295 -0.0156  0.1285
 1997DOPC   D2A23434  21.249  19.496   9.357 -0.1570  0.2222 -0.3848
 1997DOPC   C3A23435  21.041  19.238   9.667 -0.0285 -0.1347  0.1650
 1997DOPC   C4A23436  20.555  19.182   9.751 -0.0174 -0.2655 -0.2467
 1997DOPC   C1B23437  21.578  19.910   9.176  0.2616 -0.1090 -0.0316
 1997DOPC   D2B23438  21.574  20.129   9.580 -0.2616 -0.1511 -0.0841
 1997DOPC   C3B23439  21.429  19.735   9.836 -0.1444 -0.0499  0.2260
 1997DOPC   C4B23440  21.129  19.485  10.080  0.1463 -0.1816 -0.0537
 1998DOPS   CNO23441  20.259  22.761   8.453 -0.0333  0.0637  0.1473
 1998DOPS   PO423442  20.061  22.728   8.793 -0.0966 -0.3480  0.1895
 1998DOPS   GL123443  20.031  22.579   9.159 -0.1631  0.3514 -0.1292
 1998DOPS   GL223444  19.745  22.413   9.106  0.0296 -0.0035 -0.2045
 1998DOPS   C1A23445  19.802  22.579   9.571  0.1376 -0.2300  0.2542
 1998DOPS   D2A23446  19.867  22.741  10.013 -0.2825 -0.0740 -0.0805
 1998DOPS   C3A23447  19.634  23.083  10.095 -0.3372  0.0830 -0.3064
 1998DOPS   C4A23448  19.465  23.375  10.413  0.3527  0.2440 -0.2000
 1998DOPS   C1B23449  19.955  22.065   9.339  0.0766  0.2303 -0.1161
 1998DOPS   D2B23450  20.134  21.634   9.234 -0.0685  0.0372  0.3205
 1998DOPS   C3B23451  20.193  21.298   9.525 -0.1759 -0.2805  0.0082
 1998DOPS   C4B23452  20.465  21.147   9.846 -0.1366  0.2724  0.2918
 1999POSM   NC323453  21.266  14.265   8.534  0.3227 -0.1813  0.0870
 1999POSM   PO423454  21.304  14.601   8.685  0.2082  0.0727 -0.1198
 1999POSM   AM123455  21.119  14.485   8.949 -0.0788  0.1263 -0.1710
 1999POSM   AM223456  21.066  14.670   9.138 -0.1844 -0.1602  0.3188
 1999POSM   T1A23457  21.078  14.238   9.369  0.3380  0.3123  0.0982
 1999POSM   C2A23458  20.836  14.325   9.793 -0.3271 -0.3513  0.2806
 1999POSM   C3A23459  20.661  14.468  10.110 -0.1130  0.0833 -0.0466
 1999POSM   C1B23460  21.136  14.799   9.440 -0.1167 -0.1689 -0.0662
 1999POSM   D2B23461  21.093  14.729   9.894  0.0567 -0.3072  0.0259
 1999POSM   C3B23462  21.148  14.419  10.225 -0.2891  0.0966  0.2263
 1999POSM   C4B23463  21.034  13.970  10.290 -0.0888 -0.0139 -0.1651
 2000DOPS   CNO23464  21.013  21.395   8.380  0.2100  0.1831 -0.0139
 2000DOPS   PO423465  21.058  21.028   8.376 -0.2274  0.0093 -0.3045
 2000DOPS   GL123466  20.997  21.147   8.850  0.5000 -0.2918 -0.4136
 2000DOPS   GL223467  21.139  20.946   8.880  0.1473 -0.0442  0.0229
 2000DOPS   C1A23468  20.973  21.094   9.320 -0.0978  0.1977  0.1591
 2000DOPS   D2A23469  20.969  20.894   9.772  0.2316 -0.1235  0.0058
 2000DOPS   C3A23470  21.023  20.571  10.096 -0.0328 -0.0780  0.2748
 2000DOPS   C4A23471  21.135  20.451  10.493  0.0449  0.1638  0.1595
 2000DOPS   C1B23472  20.785  20.717   8.949 -0.0476 -0.1910 -0.1206
 2000DOPS   D2B23473  20.540  20.719   9.339 -0.1687 -0.1700  0.2588
 2000DOPS   C3B23474  20.246  20.438   9.448 -0.0757  0.3605  0.1318
 2000DOPS   C4B23475  19.841  20.193   9.269 -0.1607  0.0810  0.0113
 2001POSM   NC323476  14.509  16.714   8.585 -0.1590 -0.3041 -0.1978
 2001POSM   PO423477  14.576  17.043   8.824  0.2701  0.2770 -0.0801
 2001POSM   AM123478  14.687  16.932   9.108 -0.1241 -0.3252 -0.0144
 2001POSM   AM223479  14.689  16.674   9.189  0.0895  0.2318  0.2521
 2001POSM   T1A23480  14.880  16.931   9.581 -0.1967  0.0167  0.0951
 2001POSM   C2A23481  15.214  16.830   9.875  0.1279 -0.2754  0.1858
 2001POSM   C3A23482  15.483  16.476  10.016 -0.1292 -0.4479  0.0903
 2001POSM   C1B23483  14.630  16.324   9.202 -0.0738 -0.2955 -0.1712
 2001POSM   D2B23484  14.829  15.917   9.359 -0.1791  0.0482  0.1125
 2001POSM   C3B23485  14.756  15.818   9.811 -0.2894  0.5160 -0.0404
 2001POSM   C4B23486  14.679  15.509  10.084 -0.0672  0.3297 -0.0232
 2002DOPC   NC323487  16.694  19.900   8.380  0.3334 -0.0977  0.2378
 2002DOPC   PO423488  16.600  19.561   8.569 -0.1149 -0.3410  0.0382
 2002DOPC   GL123489  16.677  19.655   8.868  0.2367 -0.1898  0.1719
 2002DOPC   GL223490  16.883  19.414   8.999 -0.2369 -0.0121 -0.0241
 2002DOPC   C1A23491  16.531  19.825   9.220  0.1672 -0.2301  0.2909
 2002DOPC   D2A23492  16.541  19.780   9.688  0.1007 -0.1166  0.1797
 2002DOPC   C3A23493  16.271  20.095   9.878  0.2432 -0.1224  0.1455
 2002DOPC   C4A23494  16.119  20.275  10.216 -0.1082 -0.0540 -0.1396
 2002DOPC   C1B23495  16.943  19.640   9.465  0.0268  0.2414 -0.0381
 2002DOPC   D2B23496  16.991  19.782   9.895  0.1178  0.3795 -0.0984
 2002DOPC   C3B23497  16.765  20.033  10.189 -0.1605 -0.1209 -0.2427
 2002DOPC   C4B23498  16.490  20.085  10.543  0.3809 -0.0133  0.1069
 2003DOPC   NC323499  21.121  16.961   8.594 -0.2039  0.0892  0.1333
 2003DOPC   PO423500  20.835  17.206   8.730 -0.0571 -0.1120 -0.0584
 2003DOPC   GL123501  20.727  17.306   9.111 -0.1421  0.1260 -0.1031
 2003DOPC   GL223502  20.531  17.499   9.103  0.0306 -0.2378 -0.0586
 2003DOPC   C1A23503  20.903  17.585   9.455 -0.1742  0.2988  0.2249
 2003DOPC   D2A23504  21.105  17.423   9.779  0.1384 -0.0555 -0.0072
 2003DOPC   C3A23505  21.405  17.758   9.913 -0.0010  0.0377 -0.2827
 2003DOPC   C4A23506  21.795  17.962  10.056  0.2250 -0.2131 -0.0411
 2003DOPC   C1B23507  20.479  17.325   9.515 -0.0352 -0.0730 -0.2707
 2003DOPC   D2B23508  20.244  17.106   9.806  0.3015 -0.1132  0.2399
 2003DOPC   C3B23509  19.945  17.430   9.777 -0.0137 -0.1176 -0.2970
 2003DOPC   C4B23510  19.855  17.880   9.687  0.0979 -0.3959 -0.2568
 2004DOPC   NC323511  13.344  11.218   9.634  0.0691 -0.1436 -0.2036
 2004DOPC   PO423512  13.554  10.935   9.397  0.1901 -0.1024  0.3273
 2004DOPC   GL123513  13.797  11.212   9.635 -0.0372  0.1388  0.0421
 2004DOPC   GL223514  13.685  11.500   9.771 -0.2875 -0.0107 -0.4720
 2004DOPC   C1A23515  14.207  11.372   9.520 -0.3319 -0.1165  0.1687
 2004DOPC   D2A23516  14.591  11.608   9.439  0.2048 -0.1425  0.0848
 2004DOPC   C3A23517  15.013  11.419   9.286 -0.0145  0.4520 -0.2388
 2004DOPC   C4A23518  15.436  11.423   9.202 -0.0323 -0.1286  0.2419
 2004DOPC   C1B23519  14.055  11.387  10.004  0.0931 -0.1307  0.0136
 2004DOPC   D2B23520  14.152  11.532  10.493  0.3444  0.0802 -0.2397
 2004DOPC   C3B23521  14.102  11.306  10.883 -0.0957  0.1560 -0.0036
 2004DOPC   C4B23522  14.254  10.998  11.136 -0.2191  0.0906  0.0023
 2005POSM   NC323523  20.043  23.116   9.047 -0.1715  0.1383 -0.2082
 2005POSM   PO423524  20.386  23.127   8.831  0.1810  0.0248 -0.2411
 2005POSM   AM123525  20.570  23.020   9.116 -0.5648 -0.2595 -0.1362
 2005POSM   AM223526  20.471  22.811   9.305 -0.0849  0.0828 -0.5727
 2005POSM   T1A23527  20.675  23.303   9.491 -0.3921 -0.2618 -0.1746
 2005POSM   C2A23528  20.825  23.508   9.920 -0.2115 -0.0056  0.0473
 2005POSM   C3A23529  20.909  23.416  10.338  0.1282  0.2049 -0.2399
 2005POSM   C1B23530  20.421  22.567   9.483  0.1270 -0.0743  0.0026
 2005POSM   D2B23531  20.271  22.259   9.787  0.1317  0.1828 -0.0542
 2005POSM   C3B23532  19.809  22.211   9.940 -0.0182  0.1219 -0.1128
 2005POSM   C4B23533  19.411  22.480   9.939  0.0823  0.1124 -0.1659
 2006POSM   NC323534  14.572  12.862   8.856 -0.2189 -0.5551  0.2738
 2006POSM   PO423535  14.477  13.193   8.666 -0.0708 -0.0782  0.0162
 2006POSM   AM123536  14.395  13.397   8.946 -0.0941  0.1418  0.2773
 2006POSM   AM223537  14.396  13.312   9.226 -0.2256 -0.0655 -0.0473
 2006POSM   T1A23538  14.479  13.822   9.141  0.0520 -0.3416  0.2386
 2006POSM   C2A23539  14.690  14.140   9.385  0.4585 -0.1466  0.0864
 2006POSM   C3A23540  14.582  14.027   9.824 -0.0600 -0.1242 -0.0647
 2006POSM   C1B23541  14.260  13.211   9.513  0.2376  0.2689 -0.0179
 2006POSM   D2B23542  14.212  13.215  10.021  0.2515  0.0994 -0.1909
 2006POSM   C3B23543  14.000  13.605  10.270  0.0133 -0.1046 -0.0307
 2006POSM   C4B23544  13.616  13.714  10.495 -0.1671  0.0075  0.1262
 2007DOPE   NH323545  15.472  16.600   8.474  0.3189  0.0343  0.3713
 2007DOPE   PO423546  15.561  16.391   8.597 -0.1341  0.0823  0.1030
 2007DOPE   GL123547  15.473  16.100   8.802 -0.0282  0.0363 -0.0021
 2007DOPE   GL223548  15.648  15.923   8.688 -0.1913 -0.2080  0.1651
 2007DOPE   C1A23549  15.303  15.839   9.129  0.0684  0.2137 -0.1012
 2007DOPE   D2A23550  15.117  15.541   9.463 -0.0493 -0.0209 -0.0487
 2007DOPE   C3A23551  15.228  15.716   9.918  0.1792 -0.0757 -0.1646
 2007DOPE   C4A23552  15.560  15.511  10.167  0.0697 -0.1634  0.1750
 2007DOPE   C1B23553  15.778  15.879   9.100 -0.2738 -0.0264 -0.0156
 2007DOPE   D2B23554  16.204  15.722   9.286 -0.1124 -0.2059 -0.2402
 2007DOPE   C3B23555  16.672  15.787   9.233 -0.1674  0.2189 -0.0427
 2007DOPE   C4B23556  17.104  15.735   9.012  0.0685 -0.1787  0.1179
 2008DOPS   CNO23557  22.594  16.678   8.705  0.0999 -0.2332  0.1856
 2008DOPS   PO423558  22.927  16.849   8.666  0.3047  0.1444  0.0371
 2008DOPS   GL123559  22.982  17.096   9.033  0.3192  0.1719  0.0684
 2008DOPS   GL223560  23.236  17.183   9.142 -0.2175 -0.1205  0.0628
 2008DOPS   C1A23561  22.826  17.148   9.420 -0.0797  0.0606 -0.1386
 2008DOPS   D2A23562  22.795  17.043   9.940  0.0209  0.0832  0.3363
 2008DOPS   C3A23563  22.640  17.365  10.219  0.1570  0.1581  0.2997
 2008DOPS   C4A23564  22.454  17.369  10.613  0.0422  0.0409  0.1092
 2008DOPS   C1B23565  23.296  16.971   9.546 -0.2960  0.0304 -0.1276
 2008DOPS   D2B23566  23.184  16.667   9.870  0.2851 -0.1601  0.1380
 2008DOPS   C3B23567  23.123  16.773  10.297  0.2617 -0.2391  0.0309
 2008DOPS   C4B23568  22.845  16.884  10.645  0.0089 -0.1249 -0.3491
 2009DOPE   NH323569  23.529  23.853   8.199  0.1116  0.1649 -0.0435
 2009DOPE   PO423570  23.257  23.913   8.331  0.3825 -0.1826  0.0398
 2009DOPE   GL123571  23.237  23.945   8.719  0.0114  0.0269  0.0273
 2009DOPE   GL223572  22.933  23.739   8.772  0.1796 -0.0128  0.0122
 2009DOPE   C1A23573  23.027  24.083   9.119 -0.0109  0.0974 -0.1051
 2009DOPE   D2A23574  22.859  24.410   9.338 -0.1659  0.1152  0.1383
 2009DOPE   C3A23575  22.889  24.531   9.766 -0.0421  0.0002 -0.1381
 2009DOPE   C4A23576  23.206  24.390  10.058  0.3252  0.1094 -0.2372
 2009DOPE   C1B23577  23.282  23.635   9.121  0.0007  0.1421 -0.1126
 2009DOPE   D2B23578  23.334  23.259   9.310  0.1966  0.0941  0.1373
 2009DOPE   C3B23579  23.525  23.328   9.703 -0.0811  0.0247  0.2209
 2009DOPE   C4B23580  23.896  23.363   9.919  0.2019 -0.1521  0.0075
 2010DOPC   NC323581  12.813  15.867   8.557  0.0272 -0.3347 -0.1309
 2010DOPC   PO423582  13.117  16.155   8.746  0.5895 -0.0219  0.0568
 2010DOPC   GL123583  13.319  16.189   9.141 -0.5947 -0.2386 -0.0573
 2010DOPC   GL223584  13.366  16.525   9.180  0.1950 -0.0731 -0.1736
 2010DOPC   C1A23585  13.271  16.159   9.596 -0.1595 -0.3786  0.0960
 2010DOPC   D2A23586  13.015  16.329   9.909  0.0621  0.2592 -0.0781
 2010DOPC   C3A23587  13.181  16.432  10.295  0.2100  0.2318  0.0183
 2010DOPC   C4A23588  13.036  16.743  10.678  0.0749 -0.0266  0.1393
 2010DOPC   C1B23589  13.696  16.382   9.476  0.1049 -0.0816 -0.1985
 2010DOPC   D2B23590  13.861  16.019   9.737  0.0221  0.5260 -0.0969
 2010DOPC   C3B23591  13.529  15.802   9.849 -0.1313 -0.1868 -0.0930
 2010DOPC   C4B23592  13.520  15.364   9.799  0.0218  0.1629 -0.1336
 2011DOPC   NC323593  13.121  14.202   8.233  0.0219 -0.1989  0.0657
 2011DOPC   PO423594  13.169  13.956   8.548  0.2536  0.0598 -0.0275
 2011DOPC   GL123595  13.017  13.986   9.014 -0.1070  0.0286  0.1194
 2011DOPC   GL223596  12.996  14.312   9.181  0.1010 -0.2000 -0.0537
 2011DOPC   C1A23597  13.055  13.773   9.424  0.0545 -0.1005 -0.0687
 2011DOPC   D2A23598  13.378  13.543   9.690  0.2575  0.0764  0.0805
 2011DOPC   C3A23599  13.244  13.509  10.145 -0.1371 -0.3517  0.0210
 2011DOPC   C4A23600  13.354  13.258  10.534 -0.0199  0.1061  0.0459
 2011DOPC   C1B23601  12.966  14.263   9.661 -0.3690 -0.4130 -0.0457
 2011DOPC   D2B23602  12.898  14.404  10.087 -0.0850  0.0964 -0.1341
 2011DOPC   C3B23603  12.847  14.824  10.212  0.3744 -0.0999 -0.1490
 2011DOPC   C4B23604  12.604  15.252  10.379 -0.0678  0.1327  0.0204
 2012POSM   NC323605  22.459  17.165   8.818 -0.0304  0.0615  0.3788
 2012POSM   PO423606  22.679  17.378   8.563 -0.2539 -0.2012 -0.0956
 2012POSM   AM123607  22.714  17.557   8.817 -0.1669 -0.0988  0.1012
 2012POSM   AM223608  22.940  17.687   8.918 -0.3598  0.4146 -0.2387
 2012POSM   T1A23609  22.564  17.565   9.274 -0.1949 -0.1184  0.0010
 2012POSM   C2A23610  22.737  17.621   9.669 -0.0366  0.2160  0.0396
 2012POSM   C3A23611  22.864  17.911  10.022 -0.0721  0.1503  0.3657
 2012POSM   C1B23612  23.072  17.648   9.288 -0.0479  0.0085 -0.1538
 2012POSM   D2B23613  23.210  17.439   9.672 -0.0277  0.3819 -0.0299
 2012POSM   C3B23614  23.145  17.490  10.114  0.3726  0.0992  0.2346
 2012POSM   C4B23615  23.204  17.237  10.430 -0.3313 -0.1230 -0.2330
 2013POSM   NC323616  12.877  20.176   8.793  0.2945  0.1453  0.2678
 2013POSM   PO423617  12.501  20.131   8.994  0.0474  0.1343  0.2666
 2013POSM   AM123618  12.568  19.858   9.104 -0.0426  0.1676 -0.3172
 2013POSM   AM223619  12.375  19.609   9.116  0.1098  0.4283  0.1867
 2013POSM   T1A23620  12.700  19.769   9.543 -0.3303 -0.0112  0.1967
 2013POSM   C2A23621  12.676  19.666   9.958 -0.1976 -0.0821  0.0120
 2013POSM   C3A23622  12.508  19.870  10.299  0.1711 -0.0034 -0.2752
 2013POSM   C1B23623  12.257  19.615   9.402 -0.1922  0.0412 -0.2489
 2013POSM   D2B23624  12.218  19.430   9.869 -0.2701  0.0728  0.2907
 2013POSM   C3B23625  12.361  19.421  10.294 -0.4304  0.0457  0.0245
 2013POSM   C4B23626  12.515  19.566  10.723 -0.1151 -0.2998 -0.1056
 2014DOPS   CNO23627  20.049  16.235   8.340  0.1396 -0.0910  0.1963
 2014DOPS   PO423628  20.230  16.393   8.605  0.0313  0.1509 -0.0974
 2014DOPS   GL123629  20.057  16.397   9.005 -0.4005 -0.3620  0.0492
 2014DOPS   GL223630  20.121  16.669   9.100  0.0579  0.3137 -0.1211
 2014DOPS   C1A23631  20.026  16.034   9.314  0.4023  0.0165 -0.4128
 2014DOPS   D2A23632  19.904  15.650   9.559 -0.1525  0.1900 -0.0168
 2014DOPS   C3A23633  19.520  15.745   9.821 -0.0981 -0.2209 -0.2298
 2014DOPS   C4A23634  19.283  15.580  10.118  0.2573 -0.0917 -0.2207
 2014DOPS   C1B23635  19.845  16.473   9.408 -0.1285 -0.0663  0.3019
 2014DOPS   D2B23636  19.761  16.185   9.711  0.0899  0.1041 -0.2265
 2014DOPS   C3B23637  19.954  15.855  10.013  0.4273  0.0078 -0.2123
 2014DOPS   C4B23638  20.349  15.521   9.946  0.1162 -0.6130 -0.2015
 2015POSM   NC323639  13.171   8.651  10.225 -0.0616  0.1064  0.1666
 2015POSM   PO423640  13.570   8.698  10.188  0.1557  0.1775 -0.1302
 2015POSM   AM123641  13.544   8.774  10.470  0.0005 -0.2221 -0.0603
 2015POSM   AM223642  13.351   8.980  10.574 -0.1636 -0.3523  0.0967
 2015POSM   T1A23643  13.786   8.917  10.920 -0.1059  0.1771 -0.4561
 2015POSM   C2A23644  13.676   8.915  11.393  0.1571 -0.0011 -0.1140
 2015POSM   C3A23645  13.631   8.659  11.783 -0.1390 -0.0873 -0.1262
 2015POSM   C1B23646  13.499   9.313  10.556  0.0105 -0.3006  0.1772
 2015POSM   D2B23647  13.602   9.782  10.723 -0.1877  0.1363 -0.0278
 2015POSM   C3B23648  14.040   9.807  10.992  0.4050 -0.1164  0.0534
 2015POSM   C4B23649  14.433  10.038  10.923 -0.1504  0.0955  0.3584
 2016DOPE   NH323650  15.346  22.749   9.233  0.0195  0.0517 -0.1504
 2016DOPE   PO423651  15.424  22.473   9.399  0.0389 -0.0421  0.1024
 2016DOPE   GL123652  15.377  22.292   9.756 -0.0902 -0.0457 -0.0074
 2016DOPE   GL223653  15.099  22.238   9.875  0.1564 -0.3484 -0.1836
 2016DOPE   C1A23654  15.526  22.455  10.158 -0.2158 -0.0335 -0.1562
 2016DOPE   D2A23655  15.869  22.649  10.472 -0.3971  0.1762  0.1109
 2016DOPE   C3A23656  15.954  22.621  10.905 -0.2692  0.1551  0.5939
 2016DOPE   C4A23657  15.781  22.748  11.272  0.2292 -0.3683  0.3482
 2016DOPE   C1B23658  15.044  22.533  10.228 -0.0710 -0.1451  0.0928
 2016DOPE   D2B23659  15.309  22.921  10.259  0.0718  0.0177 -0.0292
 2016DOPE   C3B23660  15.649  23.107  10.540  0.1455  0.0203  0.0459
 2016DOPE   C4B23661  15.539  23.158  10.972  0.1136 -0.0367  0.3053
 2017DOPE   NH323662  12.553  11.218   9.920 -0.0306  0.1344  0.0447
 2017DOPE   PO423663  12.898  11.178   9.804  0.1021  0.2095 -0.0084
 2017DOPE   GL123664  13.063  11.035  10.093 -0.1202  0.0439  0.2027
 2017DOPE   GL223665  12.845  10.883  10.201  0.1561 -0.0494 -0.0004
 2017DOPE   C1A23666  12.963  11.140  10.580  0.1833  0.0638 -0.1951
 2017DOPE   D2A23667  13.074  11.320  11.012 -0.2482  0.1170 -0.0776
 2017DOPE   C3A23668  13.414  11.188  11.323 -0.1017  0.0825 -0.0907
 2017DOPE   C4A23669  13.342  11.009  11.720 -0.1419  0.1842  0.2562
 2017DOPE   C1B23670  12.666  10.715  10.574  0.0923  0.0781  0.5141
 2017DOPE   D2B23671  12.674  10.925  10.977 -0.1978  0.1530  0.1235
 2017DOPE   C3B23672  13.063  10.855  11.291  0.1474  0.2752 -0.0623
 2017DOPE   C4B23673  13.297  10.544  11.537 -0.0294 -0.1585  0.0582
 2018DOPE   NH323674  15.654  11.561   8.656 -0.1255  0.0767 -0.1022
 2018DOPE   PO423675  15.479  11.861   8.721  0.0695 -0.0912 -0.2718
 2018DOPE   GL123676  15.655  11.811   9.108  0.1954 -0.0700 -0.5683
 2018DOPE   GL223677  15.402  11.964   9.193 -0.0585 -0.1954 -0.2193
 2018DOPE   C1A23678  15.541  11.712   9.592  0.5692  0.2253 -0.2736
 2018DOPE   D2A23679  15.346  11.661   9.993  0.0503 -0.1193 -0.0197
 2018DOPE   C3A23680  15.500  11.816  10.415  0.0389  0.4942  0.1774
 2018DOPE   C4A23681  15.474  12.141  10.723 -0.0560 -0.0467 -0.1670
 2018DOPE   C1B23682  14.980  11.968   9.372 -0.0592 -0.0236 -0.0504
 2018DOPE   D2B23683  14.723  11.951   9.829  0.0557 -0.2809  0.2896
 2018DOPE   C3B23684  14.569  12.255  10.218  0.2711 -0.1010  0.1791
 2018DOPE   C4B23685  14.656  12.543  10.526 -0.0368  0.1357 -0.0872
 2019DOPS   CNO23686  16.107  13.139   8.661 -0.0115  0.0545 -0.1503
 2019DOPS   PO423687  15.919  12.828   8.762 -0.1485  0.0057  0.0087
 2019DOPS   GL123688  16.022  12.933   9.090 -0.0085  0.2030  0.0958
 2019DOPS   GL223689  15.902  12.659   9.291 -0.0150  0.0569  0.2253
 2019DOPS   C1A23690  16.473  13.003   9.283  0.0277  0.0130 -0.3044
 2019DOPS   D2A23691  16.626  12.957   9.743  0.0387 -0.1907  0.0922
 2019DOPS   C3A23692  16.297  12.674   9.960  0.1962 -0.0220  0.2967
 2019DOPS   C4A23693  16.294  12.438  10.340  0.2051  0.0396 -0.1820
 2019DOPS   C1B23694  16.314  12.619   9.484  0.0975 -0.0930 -0.0516
 2019DOPS   D2B23695  16.733  12.475   9.671 -0.0816  0.0318 -0.1997
 2019DOPS   C3B23696  17.039  12.199   9.901  0.3583 -0.1135  0.1979
 2019DOPS   C4B23697  17.431  12.327  10.034  0.2148 -0.3351 -0.1220
 2020POSM   NC323698  20.236  15.883   8.832 -0.2185 -0.1586 -0.2142
 2020POSM   PO423699  19.879  15.921   8.650 -0.2025 -0.3183  0.0362
 2020POSM   AM123700  19.764  15.976   8.880 -0.0478  0.0639  0.0266
 2020POSM   AM223701  19.656  16.178   9.005  0.1749  0.0770  0.0006
 2020POSM   T1A23702  19.513  15.888   9.362  0.0344 -0.0512 -0.4679
 2020POSM   C2A23703  19.206  16.130   9.635 -0.0240  0.3443 -0.0335
 2020POSM   C3A23704  18.880  16.004   9.868 -0.2161  0.0157 -0.2963
 2020POSM   C1B23705  19.297  16.221   9.067 -0.1615 -0.1182  0.2023
 2020POSM   D2B23706  18.954  16.453   9.297 -0.2420  0.1854 -0.0495
 2020POSM   C3B23707  18.956  16.517   9.746 -0.0179 -0.0393 -0.2790
 2020POSM   C4B23708  18.825  16.471  10.192 -0.0776  0.1970 -0.0453
 2021POSM   NC323709  22.330  16.221   8.828  0.2136  0.0724 -0.1138
 2021POSM   PO423710  22.028  16.290   8.586 -0.2272  0.1375  0.1410
 2021POSM   AM123711  21.846  16.436   8.811 -0.1280 -0.1709  0.1909
 2021POSM   AM223712  21.660  16.359   8.996  0.2687 -0.0013 -0.1988
 2021POSM   T1A23713  21.918  16.735   9.183  0.1954  0.0225 -0.0711
 2021POSM   C2A23714  21.960  17.174   9.340 -0.0423  0.0508 -0.1725
 2021POSM   C3A23715  22.165  17.487   9.673  0.0043 -0.0261  0.2156
 2021POSM   C1B23716  21.609  16.262   9.341  0.0849 -0.1361  0.1920
 2021POSM   D2B23717  21.745  16.096   9.727  0.2521  0.1989 -0.0197
 2021POSM   C3B23718  21.921  16.291  10.060 -0.1935  0.1148  0.0850
 2021POSM   C4B23719  22.189  16.681  10.191 -0.0989  0.0956  0.0817
 2022DOPE   NH323720  19.043  15.572   8.554  0.1554  0.0908  0.2236
 2022DOPE   PO423721  19.173  15.279   8.649  0.0052 -0.1956  0.1028
 2022DOPE   GL123722  19.030  15.338   8.982 -0.2311 -0.1480 -0.0446
 2022DOPE   GL223723  18.866  15.312   9.185  0.1010  0.1571 -0.0183
 2022DOPE   C1A23724  19.379  15.415   9.348  0.1078  0.1145 -0.0563
 2022DOPE   D2A23725  19.760  15.205   9.448 -0.3761 -0.1877 -0.2724
 2022DOPE   C3A23726  19.994  15.046   9.833 -0.1213 -0.2325  0.0423
 2022DOPE   C4A23727  20.100  14.837  10.200 -0.2028 -0.1060 -0.1185
 2022DOPE   C1B23728  18.492  15.503   9.216 -0.1732  0.2153 -0.0676
 2022DOPE   D2B23729  18.219  15.832   9.353 -0.0753 -0.0808 -0.4107
 2022DOPE   C3B23730  18.316  15.862   9.787  0.3014  0.1650 -0.1830
 2022DOPE   C4B23731  18.445  15.959  10.225  0.0135  0.0281  0.1299
 2023DOPS   CNO23732  15.373  23.159   9.638  0.0658 -0.0943  0.0859
 2023DOPS   PO423733  15.073  23.162   9.897  0.2304  0.0493 -0.1482
 2023DOPS   GL123734  15.045  23.338  10.298  0.1040 -0.0910 -0.2790
 2023DOPS   GL223735  15.023  23.625  10.193  0.2748 -0.3611  0.0159
 2023DOPS   C1A23736  15.404  23.548  10.526  0.1558  0.0180 -0.0944
 2023DOPS   D2A23737  15.780  23.597  10.720  0.0518 -0.0264 -0.0782
 2023DOPS   C3A23738  16.090  23.289  10.981  0.1842  0.0773  0.1673
 2023DOPS   C4A23739  16.485  23.053  11.097  0.0849  0.0027 -0.1363
 2023DOPS   C1B23740  14.835  23.559  10.618  0.0463 -0.2832  0.0142
 2023DOPS   D2B23741  14.684  23.612  11.061  0.1827  0.0851 -0.5637
 2023DOPS   C3B23742  14.413  23.900  11.329 -0.0517 -0.5009  0.1070
 2023DOPS   C4B23743  14.677  24.159  11.664  0.0123 -0.0557 -0.1089
 2024DOPE   NH323744  21.499  21.233   8.644  0.4025 -0.0984  0.1950
 2024DOPE   PO423745  21.347  21.445   8.856  0.0928  0.1031  0.2537
 2024DOPE   GL123746  21.469  21.304   9.171 -0.0754  0.0086 -0.4106
 2024DOPE   GL223747  21.463  21.589   9.374  0.1375  0.2356  0.0441
 2024DOPE   C1A23748  21.396  21.136   9.613  0.2545  0.0073  0.0437
 2024DOPE   D2A23749  21.335  21.120  10.110  0.1231 -0.1766  0.0039
 2024DOPE   C3A23750  21.574  21.498  10.308  0.3068  0.0763  0.2161
 2024DOPE   C4A23751  21.739  21.915  10.254  0.0891 -0.2929  0.1782
 2024DOPE   C1B23752  21.584  21.819   9.799  0.0246  0.5556 -0.0155
 2024DOPE   D2B23753  21.258  21.999  10.050 -0.0413 -0.0174 -0.4516
 2024DOPE   C3B23754  21.128  21.789  10.389 -0.0625  0.2784 -0.2753
 2024DOPE   C4B23755  21.110  21.490  10.676 -0.0124  0.0456 -0.0234
 2025POSM   NC323756  12.442  12.514   9.144  0.0180  0.0438 -0.1661
 2025POSM   PO423757  12.306  12.343   9.474 -0.2614 -0.0583  0.3065
 2025POSM   AM123758  12.532  12.500   9.630 -0.0246  0.3404  0.1775
 2025POSM   AM223759  12.584  12.697   9.851 -0.2275  0.1361  0.2265
 2025POSM   T1A23760  12.973  12.562   9.609  0.0353  0.0992  0.0626
 2025POSM   C2A23761  13.413  12.665   9.740  0.2133 -0.2020 -0.0785
 2025POSM   C3A23762  13.869  12.691   9.747 -0.0389  0.1241  0.4312
 2025POSM   C1B23763  12.475  13.014   9.880  0.0171 -0.1473  0.2861
 2025POSM   D2B23764  12.474  13.375  10.205  0.2744  0.1873  0.0251
 2025POSM   C3B23765  12.850  13.524  10.455 -0.0082 -0.1484 -0.0057
 2025POSM   C4B23766  13.018  13.545  10.853 -0.1695 -0.1708 -0.0302
 2026POSM   NC323767  14.193  23.152   9.368  0.1035  0.1767  0.0280
 2026POSM   PO423768  13.938  23.232   9.634 -0.0701 -0.1180 -0.1959
 2026POSM   AM123769  14.062  23.198   9.928  0.0410  0.3607  0.0300
 2026POSM   AM223770  14.062  23.274  10.162 -0.1463 -0.0831  0.0898
 2026POSM   T1A23771  14.326  22.898  10.206 -0.2076 -0.0112 -0.0003
 2026POSM   C2A23772  14.737  22.942  10.392 -0.2281 -0.2863  0.4147
 2026POSM   C3A23773  15.103  23.079  10.656 -0.0031 -0.1143  0.0117
 2026POSM   C1B23774  13.915  23.424  10.368  0.0756  0.0067  0.3917
 2026POSM   D2B23775  13.730  23.391  10.845 -0.2478 -0.0405  0.2376
 2026POSM   C3B23776  13.779  23.244  11.271  0.2562  0.3343  0.2170
 2026POSM   C4B23777  13.788  23.017  11.693  0.0235 -0.0499 -0.4730
 2027DOPC   NC323778  16.178  18.840   8.789  0.0882  0.1800 -0.5325
 2027DOPC   PO423779  16.217  19.103   8.536 -0.2291 -0.0940 -0.3313
 2027DOPC   GL123780  16.235  19.286   8.910 -0.2080  0.0156 -0.3037
 2027DOPC   GL223781  16.289  19.470   9.008  0.2557  0.0113 -0.2721
 2027DOPC   C1A23782  15.970  19.176   9.284 -0.0774  0.0301 -0.0337
 2027DOPC   D2A23783  15.747  19.347   9.637 -0.1760  0.4178  0.0640
 2027DOPC   C3A23784  15.532  19.169  10.018  0.0408 -0.1813 -0.0463
 2027DOPC   C4A23785  15.607  18.979  10.441  0.1077 -0.1240  0.0475
 2027DOPC   C1B23786  16.547  19.264   9.388 -0.0238 -0.2190  0.0925
 2027DOPC   D2B23787  16.457  19.295   9.844  0.1660 -0.1778 -0.0046
 2027DOPC   C3B23788  16.507  18.848   9.979  0.0255  0.0627 -0.2388
 2027DOPC   C4B23789  16.259  18.700  10.284  0.4009 -0.3243 -0.2222
 2028POSM   NC323790  12.719  17.109   9.071  0.0387 -0.2162  0.1617
 2028POSM   PO423791  12.694  17.514   9.033  0.1325 -0.0941  0.1241
 2028POSM   AM123792  12.682  17.593   9.349  0.1793 -0.0054 -0.1338
 2028POSM   AM223793  12.800  17.744   9.532  0.2569 -0.2045 -0.0152
 2028POSM   T1A23794  12.489  17.399   9.775  0.0082  0.2684 -0.1857
 2028POSM   C2A23795  12.534  17.138  10.140  0.2108  0.1471  0.0895
 2028POSM   C3A23796  12.697  17.201  10.568 -0.1641 -0.4631 -0.0283
 2028POSM   C1B23797  12.658  17.886   9.787 -0.1413  0.1671 -0.0526
 2028POSM   D2B23798  12.476  17.715  10.211  0.0579 -0.2071  0.2846
 2028POSM   C3B23799  12.251  17.924  10.565  0.1785 -0.0866 -0.0207
 2028POSM   C4B23800  12.124  18.042  10.970  0.1319 -0.1479  0.0586
 2029DOPE   NH323801  15.440  14.968   8.634  0.2644 -0.0919 -0.1491
 2029DOPE   PO423802  15.176  14.790   8.696 -0.3207 -0.1915 -0.3501
 2029DOPE   GL123803  15.349  14.664   9.039 -0.3770 -0.0975 -0.0248
 2029DOPE   GL223804  15.640  14.511   9.009  0.1717 -0.1684 -0.0611
 2029DOPE   C1A23805  15.602  14.875   9.346  0.0897 -0.0818  0.0714
 2029DOPE   D2A23806  15.504  15.235   9.642  0.1285 -0.0503  0.3288
 2029DOPE   C3A23807  15.631  15.036  10.052  0.0640  0.2249  0.0090
 2029DOPE   C4A23808  15.964  14.888  10.314 -0.1127 -0.3395  0.0088
 2029DOPE   C1B23809  15.789  14.237   9.309  0.0306 -0.1735 -0.3722
 2029DOPE   D2B23810  15.764  14.107   9.721 -0.1758 -0.0463 -0.3760
 2029DOPE   C3B23811  15.753  13.767   9.985 -0.1483  0.0357 -0.2681
 2029DOPE   C4B23812  15.616  13.426  10.260  0.3060  0.0823 -0.1301
 2030DOPS   CNO23813  14.764  19.149   8.691  0.2899 -0.2524 -0.2181
 2030DOPS   PO423814  14.434  19.070   8.784 -0.0442 -0.0229 -0.2381
 2030DOPS   GL123815  14.612  18.782   8.995 -0.2159  0.0669  0.2039
 2030DOPS   GL223816  14.661  18.504   8.945 -0.1288  0.2293 -0.1775
 2030DOPS   C1A23817  14.682  18.753   9.473  0.2001  0.0919  0.1194
 2030DOPS   D2A23818  14.475  18.665   9.833  0.1698 -0.0835 -0.1720
 2030DOPS   C3A23819  14.711  18.741  10.261  0.3105 -0.0064  0.0504
 2030DOPS   C4A23820  15.043  18.889  10.541 -0.0101  0.2430 -0.0422
 2030DOPS   C1B23821  14.497  18.343   9.315 -0.1736  0.1372 -0.1253
 2030DOPS   D2B23822  14.283  18.276   9.689  0.1606 -0.3120  0.0033
 2030DOPS   C3B23823  14.266  17.837   9.808  0.0638 -0.2922  0.1480
 2030DOPS   C4B23824  14.132  17.577  10.194 -0.1817  0.1410  0.0121
 2031DOPC   NC323825  11.990  18.390   8.632 -0.2171 -0.0416 -0.0494
 2031DOPC   PO423826  11.919  18.743   8.820 -0.0727 -0.0718  0.3836
 2031DOPC   GL123827  12.314  18.862   8.876  0.2021 -0.0719 -0.1446
 2031DOPC   GL223828  12.218  19.123   9.027 -0.2266 -0.1724 -0.2538
 2031DOPC   C1A23829  12.379  18.699   9.309  0.0865  0.2593  0.1872
 2031DOPC   D2A23830  12.632  18.861   9.686 -0.1609 -0.2962 -0.2346
 2031DOPC   C3A23831  12.762  19.121  10.025  0.1654 -0.1252 -0.3054
 2031DOPC   C4A23832  12.818  19.284  10.425 -0.0142  0.1098 -0.1194
 2031DOPC   C1B23833  12.128  19.136   9.477 -0.3689 -0.1972  0.0152
 2031DOPC   D2B23834  12.083  18.887   9.868 -0.1591 -0.2961 -0.1721
 2031DOPC   C3B23835  12.340  18.910  10.261 -0.1196  0.0926  0.2523
 2031DOPC   C4B23836  12.727  18.688  10.439  0.1466  0.0475 -0.1821
 2032DOPC   NC323837  20.103  20.288   8.465 -0.1892  0.1206  0.0546
 2032DOPC   PO423838  20.469  20.245   8.630 -0.0596  0.0606 -0.1176
 2032DOPC   GL123839  20.448  20.104   8.898  0.1841 -0.1395 -0.4504
 2032DOPC   GL223840  20.277  20.026   9.119  0.2741  0.1910  0.0698
 2032DOPC   C1A23841  20.728  20.226   9.249 -0.2438 -0.1999  0.0936
 2032DOPC   D2A23842  20.633  20.194   9.664  0.3712 -0.1090 -0.1956
 2032DOPC   C3A23843  20.228  20.267   9.878 -0.1622  0.1351 -0.3238
 2032DOPC   C4A23844  20.061  20.327  10.317  0.1678 -0.1100  0.0831
 2032DOPC   C1B23845  20.192  19.819   9.535 -0.0009  0.2451 -0.1028
 2032DOPC   D2B23846  20.386  19.681   9.941  0.0135  0.5576  0.2195
 2032DOPC   C3B23847  20.254  19.822  10.331 -0.1994 -0.2521 -0.0335
 2032DOPC   C4B23848  20.003  19.712  10.676  0.0519 -0.1704 -0.0969
 2033DOPC   NC323849  14.302  18.103   8.864  0.2246  0.2394  0.0579
 2033DOPC   PO423850  14.651  18.047   8.683  0.0602 -0.1985  0.2153
 2033DOPC   GL123851  14.796  18.115   8.988 -0.1551  0.0436 -0.3034
 2033DOPC   GL223852  15.127  18.059   9.015 -0.1694 -0.1911 -0.0512
 2033DOPC   C1A23853  15.016  18.451   9.249 -0.0239  0.2106 -0.1715
 2033DOPC   D2A23854  15.221  18.664   9.625  0.2345  0.2597 -0.3075
 2033DOPC   C3A23855  15.658  18.637   9.638  0.0622 -0.0730  0.0051
 2033DOPC   C4A23856  16.064  18.884   9.770  0.1108  0.0206 -0.0397
 2033DOPC   C1B23857  14.964  17.624   9.109  0.4851 -0.1190 -0.2068
 2033DOPC   D2B23858  14.677  17.352   9.306 -0.2667  0.0787  0.0076
 2033DOPC   C3B23859  14.713  17.552   9.755 -0.1778  0.0312  0.1251
 2033DOPC   C4B23860  14.647  17.709  10.167  0.1617 -0.0825  0.0441
 2034DOPS   CNO23861  17.008  19.292   8.513  0.2236  0.0107  0.0084
 2034DOPS   PO423862  17.325  19.331   8.446 -0.4093  0.3269  0.0716
 2034DOPS   GL123863  17.537  19.355   8.817  0.0109 -0.2541 -0.1104
 2034DOPS   GL223864  17.430  19.135   8.892  0.0218 -0.3716  0.0989
 2034DOPS   C1A23865  17.338  19.644   9.146 -0.1976 -0.3325  0.2531
 2034DOPS   D2A23866  17.089  20.049   9.130 -0.0157  0.0046 -0.0318
 2034DOPS   C3A23867  16.865  20.158   9.481  0.2235 -0.0567 -0.1976
 2034DOPS   C4A23868  16.725  20.381   9.808 -0.0202 -0.1424  0.1006
 2034DOPS   C1B23869  17.674  18.994   9.310 -0.0105 -0.3307 -0.0888
 2034DOPS   D2B23870  18.162  19.117   9.459  0.0193  0.0619 -0.0743
 2034DOPS   C3B23871  18.124  19.047   9.914 -0.3453  0.0826 -0.1678
 2034DOPS   C4B23872  18.280  19.170  10.300 -0.0066  0.0246 -0.3429
 2035POSM   NC323873  11.973  11.981   9.618  0.2403  0.0004  0.0128
 2035POSM   PO423874  11.759  12.022   9.983  0.1325  0.5893 -0.1836
 2035POSM   AM123875  11.868  12.107  10.254 -0.0493 -0.1078 -0.0538
 2035POSM   AM223876  12.125  12.154  10.358  0.0721  0.0130 -0.2557
 2035POSM   T1A23877  11.921  12.346  10.714 -0.2287  0.3289  0.1715
 2035POSM   C2A23878  12.121  12.643  11.052  0.2087 -0.1588 -0.0511
 2035POSM   C3A23879  12.322  13.070  11.143  0.1472  0.1834 -0.1264
 2035POSM   C1B23880  12.379  12.128  10.620  0.1759  0.2530 -0.3801
 2035POSM   D2B23881  12.505  12.272  11.076  0.0204  0.1412  0.0018
 2035POSM   C3B23882  12.413  12.186  11.525  0.1071 -0.0091 -0.2288
 2035POSM   C4B23883  12.509  12.259  11.938 -0.0333 -0.2091 -0.1856
 2036POSM   NC323884  16.893  22.594   8.102 -0.1923 -0.1587  0.0588
 2036POSM   PO423885  17.084  22.304   8.299 -0.2071 -0.2683  0.2333
 2036POSM   AM123886  16.975  22.265   8.611 -0.2025  0.1813 -0.2830
 2036POSM   AM223887  16.929  22.070   8.791 -0.2018  0.2446  0.0669
 2036POSM   T1A23888  16.764  22.493   9.033 -0.2531  0.3528 -0.1593
 2036POSM   C2A23889  16.505  22.290   9.375  0.1372  0.2052 -0.0844
 2036POSM   C3A23890  16.137  22.040   9.486 -0.0008  0.2751 -0.2048
 2036POSM   C1B23891  16.738  21.869   8.944  0.1933  0.1402  0.1986
 2036POSM   D2B23892  16.497  21.486   9.026 -0.0893 -0.1431 -0.0273
 2036POSM   C3B23893  16.243  21.539   9.386 -0.0045 -0.0864 -0.0833
 2036POSM   C4B23894  16.076  21.681   9.830  0.1686  0.1117 -0.4788
 2037DOPE   NH323895  13.123  16.678   8.725 -0.2366  0.1457  0.0870
 2037DOPE   PO423896  12.820  16.661   8.822  0.1045 -0.0808 -0.0825
 2037DOPE   GL123897  13.062  16.878   9.164 -0.0041 -0.0746 -0.1944
 2037DOPE   GL223898  13.279  17.034   9.125  0.3932  0.4381 -0.2306
 2037DOPE   C1A23899  12.978  17.180   9.510 -0.2971 -0.0051  0.0947
 2037DOPE   D2A23900  13.040  17.172   9.910 -0.3231 -0.0281 -0.0007
 2037DOPE   C3A23901  13.009  17.479  10.293  0.1855 -0.3823  0.4159
 2037DOPE   C4A23902  13.310  17.766  10.471  0.1206  0.0590  0.0233
 2037DOPE   C1B23903  13.614  17.056   9.429 -0.2013  0.0514 -0.5919
 2037DOPE   D2B23904  13.942  16.851   9.656  0.0751  0.0247  0.2686
 2037DOPE   C3B23905  13.995  16.491   9.949 -0.4370 -0.1867 -0.0193
 2037DOPE   C4B23906  13.631  16.255  10.055 -0.2702 -0.0040  0.0922
 2038DOPC   NC323907  14.004  10.948   9.193 -0.1064  0.2322 -0.0283
 2038DOPC   PO423908  14.246  10.635   9.124 -0.0521 -0.0505 -0.0384
 2038DOPC   GL123909  14.322  10.633   9.494  0.1951 -0.1959 -0.1936
 2038DOPC   GL223910  14.208  10.859   9.710 -0.0798  0.1431  0.2363
 2038DOPC   C1A23911  14.627  10.406   9.806 -0.0465  0.0568 -0.1682
 2038DOPC   D2A23912  15.091  10.303   9.829  0.0938  0.1129 -0.1766
 2038DOPC   C3A23913  15.452  10.620   9.864  0.1205  0.0452  0.1341
 2038DOPC   C4A23914  15.907  10.655  10.027 -0.0795 -0.0896 -0.0416
 2038DOPC   C1B23915  14.600  10.902   9.765  0.2260  0.2956 -0.4326
 2038DOPC   D2B23916  14.991  10.831   9.925 -0.2196 -0.1908 -0.0012
 2038DOPC   C3B23917  15.056  11.149  10.213 -0.0739 -0.2333 -0.3425
 2038DOPC   C4B23918  15.083  11.112  10.638 -0.2449  0.1494  0.1591
 2039POSM   NC323919  21.420  13.854   9.244  0.1084 -0.1110 -0.0570
 2039POSM   PO423920  21.505  13.989   8.898 -0.0099 -0.2391  0.0437
 2039POSM   AM123921  21.536  14.277   9.092 -0.1166  0.1542  0.4002
 2039POSM   AM223922  21.627  14.577   9.057 -0.0047  0.0586  0.0250
 2039POSM   T1A23923  21.719  14.222   9.543 -0.1466  0.0848  0.3038
 2039POSM   C2A23924  21.627  13.974   9.904  0.2207  0.0701 -0.3641
 2039POSM   C3A23925  21.569  13.726  10.301 -0.1587 -0.2324  0.0442
 2039POSM   C1B23926  21.592  14.667   9.390  0.2752  0.1578 -0.0480
 2039POSM   D2B23927  21.514  14.858   9.811  0.1408 -0.0550  0.0994
 2039POSM   C3B23928  21.534  14.778  10.288 -0.2101 -0.2124 -0.2556
 2039POSM   C4B23929  21.491  14.442  10.618  0.1001  0.1221 -0.2341
 2040POSM   NC323930  17.902  20.688   8.628 -0.0011 -0.2941  0.1186
 2040POSM   PO423931  18.254  20.868   8.531 -0.0456 -0.4220  0.4006
 2040POSM   AM123932  18.326  21.004   8.822 -0.1246 -0.1859  0.3092
 2040POSM   AM223933  18.484  21.026   9.027 -0.0590  0.0173 -0.1152
 2040POSM   T1A23934  18.043  21.020   9.239  0.1120 -0.3501 -0.3749
 2040POSM   C2A23935  17.879  20.992   9.703 -0.1353  0.0488 -0.0277
 2040POSM   C3A23936  17.613  21.042  10.152  0.0435  0.2476 -0.2462
 2040POSM   C1B23937  18.572  21.374   9.108  0.1670 -0.2215  0.2733
 2040POSM   D2B23938  18.466  21.792   9.141 -0.0172  0.0396  0.0231
 2040POSM   C3B23939  18.322  21.925   9.580 -0.0295  0.2583 -0.1395
 2040POSM   C4B23940  18.167  21.919  10.038 -0.1441  0.0916  0.0496
 2041DOPC   NC323941  13.033  32.125  15.714 -0.0994  0.0698  0.2753
 2041DOPC   PO423942  12.688  32.302  15.749  0.1297  0.2740 -0.2386
 2041DOPC   GL123943  12.599  32.255  15.391  0.1880 -0.2879  0.0468
 2041DOPC   GL223944  12.714  31.991  15.288  0.0415 -0.3679 -0.2665
 2041DOPC   C1A23945  12.424  32.163  14.960  0.2086  0.1103  0.0974
 2041DOPC   D2A23946  12.252  32.279  14.522 -0.0918 -0.0088  0.0226
 2041DOPC   C3A23947  12.008  32.184  14.123  0.0218  0.0553  0.1181
 2041DOPC   C4A23948  11.755  31.811  14.082  0.0012  0.1595  0.1650
 2041DOPC   C1B23949  12.921  32.202  15.000 -0.0409  0.4077 -0.2277
 2041DOPC   D2B23950  13.301  32.488  14.902  0.1078  0.2010 -0.1087
 2041DOPC   C3B23951  13.454  32.455  14.483  0.3264 -0.0431 -0.0476
 2041DOPC   C4B23952  13.409  32.351  14.088 -0.3472 -0.4553 -0.0392
 2042DOPC   NC323953  21.770  27.263  12.595  0.3771  0.1012  0.2964
 2042DOPC   PO423954  22.085  27.038  12.618  0.0669  0.2181 -0.1178
 2042DOPC   GL123955  22.120  26.825  12.273 -0.4340  0.3303  0.2523
 2042DOPC   GL223956  22.142  27.088  12.120 -0.0117 -0.0038  0.2674
 2042DOPC   C1A23957  21.935  26.764  11.885 -0.1301 -0.3051  0.3002
 2042DOPC   D2A23958  21.925  26.710  11.418 -0.2465 -0.0920 -0.0215
 2042DOPC   C3A23959  21.938  27.015  11.028  0.1533  0.1270  0.1582
 2042DOPC   C4A23960  22.094  27.133  10.633 -0.0307  0.0202  0.1709
 2042DOPC   C1B23961  22.226  27.068  11.679  0.0134 -0.2439 -0.0188
 2042DOPC   D2B23962  22.448  26.871  11.345  0.4849 -0.1935 -0.0615
 2042DOPC   C3B23963  22.601  27.144  10.927  0.2724  0.1124  0.0811
 2042DOPC   C4B23964  22.912  27.387  10.710 -0.3187 -0.0689  0.2968
 2043DOPE   NH323965  19.896  33.922  13.995  0.1120  0.0857  0.1927
 2043DOPE   PO423966  20.030  33.848  13.709 -0.2638  0.0648  0.0350
 2043DOPE   GL123967  20.181  33.983  13.283 -0.1125  0.1317  0.4237
 2043DOPE   GL223968  19.934  33.897  13.117 -0.1706  0.0661  0.0906
 2043DOPE   C1A23969  20.328  34.250  12.958 -0.2190  0.0945 -0.2336
 2043DOPE   D2A23970  20.565  34.236  12.627 -0.0994 -0.0759 -0.2469
 2043DOPE   C3A23971  20.606  33.899  12.352  0.2499 -0.0495 -0.0238
 2043DOPE   C4A23972  20.870  33.549  12.152  0.0179  0.0066 -0.0207
 2043DOPE   C1B23973  19.811  34.138  12.789  0.1530  0.0298  0.3371
 2043DOPE   D2B23974  19.478  33.965  12.501 -0.2751 -0.1304  0.0092
 2043DOPE   C3B23975  19.420  33.704  12.129 -0.1626  0.1097  0.0414
 2043DOPE   C4B23976  19.464  33.305  11.866 -0.1520 -0.0059 -0.0912
 2044DOPE   NH323977  12.817  32.796  15.885 -0.0979 -0.0889 -0.0596
 2044DOPE   PO423978  12.970  32.980  16.087  0.1223  0.0357 -0.2173
 2044DOPE   GL123979  13.152  33.003  15.650 -0.1373 -0.1748  0.0640
 2044DOPE   GL223980  12.973  33.045  15.429  0.0100 -0.4236  0.0968
 2044DOPE   C1A23981  13.520  32.825  15.458 -0.1936 -0.2628 -0.2302
 2044DOPE   D2A23982  13.806  32.587  15.070 -0.3405 -0.1569 -0.0014
 2044DOPE   C3A23983  13.673  32.173  14.888 -0.0034  0.4445  0.0999
 2044DOPE   C4A23984  13.241  32.061  14.700 -0.2174 -0.1814 -0.0349
 2044DOPE   C1B23985  13.182  32.973  15.012  0.1236 -0.2528  0.1122
 2044DOPE   D2B23986  13.548  32.899  14.798 -0.1148 -0.0551  0.0906
 2044DOPE   C3B23987  13.355  33.169  14.514 -0.1925 -0.1490 -0.1851
 2044DOPE   C4B23988  13.116  33.157  14.158  0.3083 -0.4047  0.1331
 2045DOPC   NC323989  22.806   0.925  13.929  0.2257 -0.1202 -0.0240
 2045DOPC   PO423990  22.575   1.105  13.655  0.3211 -0.3634  0.1966
 2045DOPC   GL123991  22.643   1.424  13.426  0.1219  0.1785 -0.0086
 2045DOPC   GL223992  22.854   1.555  13.471 -0.2157  0.0616  0.2319
 2045DOPC   C1A23993  22.728   1.445  12.954 -0.0384  0.2623  0.2597
 2045DOPC   D2A23994  22.899   1.177  12.635  0.2381  0.2806  0.2747
 2045DOPC   C3A23995  22.762   0.785  12.662 -0.0064 -0.1374 -0.1334
 2045DOPC   C4A23996  22.448   0.532  12.953  0.0528  0.1111  0.1677
 2045DOPC   C1B23997  23.139   1.836  13.327  0.0293  0.0037  0.0088
 2045DOPC   D2B23998  23.219   2.154  13.014  0.0421 -0.2992 -0.2521
 2045DOPC   C3B23999  23.247   2.233  12.536  0.0302  0.0220  0.1438
 2045DOPC   C4B24000  22.786   2.300  12.432 -0.0135 -0.0212  0.2239
 2046DOPC   NC324001  21.002   0.456  13.162  0.2001  0.0321 -0.2025
 2046DOPC   PO424002  20.926   0.179  13.477  0.1951  0.1598  0.3957
 2046DOPC   GL124003  20.925  -0.091  13.190  0.1052  0.2010  0.1090
 2046DOPC   GL224004  20.789  -0.377  13.120 -0.0739 -0.0680 -0.3025
 2046DOPC   C1A24005  21.015   0.022  12.767  0.1107  0.0516  0.0020
 2046DOPC   D2A24006  21.030  -0.050  12.321  0.2230 -0.1511  0.1037
 2046DOPC   C3A24007  20.638  -0.155  12.142 -0.2961 -0.0320  0.1275
 2046DOPC   C4A24008  20.209   0.067  12.165  0.0397  0.5586 -0.0479
 2046DOPC   C1B24009  20.980  -0.513  12.733 -0.0395 -0.0220 -0.0017
 2046DOPC   D2B24010  21.143  -0.547  12.300 -0.0028 -0.3995  0.0010
 2046DOPC   C3B24011  20.927  -0.497  11.903 -0.1328 -0.0555  0.2566
 2046DOPC   C4B24012  20.782  -0.427  11.488 -0.1464 -0.0749 -0.0837
 2047POSM   NC324013  15.842  27.288  14.527 -0.1796  0.0317 -0.2529
 2047POSM   PO424014  15.529  27.492  14.510 -0.4629 -0.1287  0.1677
 2047POSM   AM124015  15.648  27.497  14.176 -0.0366 -0.3912  0.3635
 2047POSM   AM224016  15.529  27.365  13.927  0.1634  0.3560 -0.3047
 2047POSM   T1A24017  15.751  27.712  13.702 -0.0500  0.0492  0.2117
 2047POSM   C2A24018  15.692  27.466  13.338 -0.0217  0.2295 -0.0783
 2047POSM   C3A24019  15.425  27.433  12.984  0.1847 -0.1388 -0.1673
 2047POSM   C1B24020  15.315  27.523  13.704 -0.4026 -0.1711 -0.0218
 2047POSM   D2B24021  15.321  27.862  13.391  0.4547  0.0150  0.2974
 2047POSM   C3B24022  15.721  27.901  13.114  0.2994  0.2375  0.0267
 2047POSM   C4B24023  16.086  28.025  12.841 -0.0188 -0.1014 -0.1946
 2048DOPS   CNO24024  19.346  32.807  14.338  0.0097  0.3157 -0.5836
 2048DOPS   PO424025  19.281  32.692  13.996  0.0687  0.0051  0.1007
 2048DOPS   GL124026  19.111  32.846  13.851  0.2629 -0.1851  0.3012
 2048DOPS   GL224027  18.941  33.030  13.827  0.4183 -0.1176 -0.1763
 2048DOPS   C1A24028  18.691  32.694  13.602 -0.0862 -0.0581 -0.0594
 2048DOPS   D2A24029  18.734  32.344  13.344  0.0387 -0.1932  0.0336
 2048DOPS   C3A24030  18.844  32.599  12.944  0.0445 -0.0003  0.0080
 2048DOPS   C4A24031  18.654  32.944  12.729  0.1239 -0.0595  0.1797
 2048DOPS   C1B24032  18.786  33.360  13.576 -0.2084 -0.1813  0.1971
 2048DOPS   D2B24033  18.651  33.594  13.274 -0.2664  0.0356 -0.4581
 2048DOPS   C3B24034  18.232  33.506  13.062  0.0407  0.1299 -0.1544
 2048DOPS   C4B24035  17.773  33.389  13.194 -0.2746  0.1208  0.1632
 2049DOPC   NC324036  16.452  26.459  14.384 -0.0734 -0.1735 -0.1244
 2049DOPC   PO424037  16.769  26.359  14.230  0.1755 -0.0218 -0.1148
 2049DOPC   GL124038  17.115  26.511  13.893 -0.0167  0.0381  0.0158
 2049DOPC   GL224039  16.900  26.468  13.733  0.0383  0.1432 -0.2418
 2049DOPC   C1A24040  17.205  26.752  13.469 -0.2620 -0.0334  0.1160
 2049DOPC   D2A24041  17.319  26.992  13.132 -0.3942  0.0503  0.1258
 2049DOPC   C3A24042  17.734  27.113  12.955 -0.0353  0.0260  0.6202
 2049DOPC   C4A24043  18.135  27.119  12.803  0.0244  0.1846  0.0289
 2049DOPC   C1B24044  16.765  26.513  13.281  0.1078  0.0928  0.0439
 2049DOPC   D2B24045  16.760  26.240  12.911  0.1613 -0.1653  0.0065
 2049DOPC   C3B24046  16.531  26.407  12.550 -0.1965  0.0235 -0.2506
 2049DOPC   C4B24047  16.306  26.352  12.147 -0.1031 -0.1918  0.2497
 2050DOPE   NH324048  14.175  28.530  15.042  0.1536  0.0311  0.1744
 2050DOPE   PO424049  14.447  28.432  14.892  0.2580 -0.1619 -0.0339
 2050DOPE   GL124050  14.317  28.534  14.580  0.0096  0.3177  0.2086
 2050DOPE   GL224051  14.460  28.402  14.398  0.0289  0.1108  0.0667
 2050DOPE   C1A24052  14.295  28.832  14.204 -0.1831 -0.3023  0.1545
 2050DOPE   D2A24053  14.288  29.152  13.867 -0.4128 -0.0129 -0.0183
 2050DOPE   C3A24054  14.350  29.424  13.487  0.0815  0.0749  0.2054
 2050DOPE   C4A24055  14.643  29.602  13.305 -0.0428 -0.1121 -0.0667
 2050DOPE   C1B24056  14.703  28.498  14.064  0.0605  0.3482  0.0907
 2050DOPE   D2B24057  14.610  28.726  13.689 -0.4045 -0.2101  0.1711
 2050DOPE   C3B24058  14.767  28.920  13.274 -0.0462  0.0661  0.1472
 2050DOPE   C4B24059  15.109  28.795  13.073  0.1950 -0.0876 -0.0319
 2051POSM   NC324060  21.334  32.854  13.442  0.0208  0.0626  0.1324
 2051POSM   PO424061  21.333  33.204  13.667  0.2093 -0.1594 -0.0052
 2051POSM   AM124062  21.340  33.269  13.374  0.1040 -0.0851  0.1472
 2051POSM   AM224063  21.525  33.271  13.179  0.3749  0.1496  0.0509
 2051POSM   T1A24064  21.011  33.303  12.960  0.1896 -0.0060 -0.0814
 2051POSM   C2A24065  20.751  33.546  12.645 -0.1170 -0.1648  0.1138
 2051POSM   C3A24066  20.373  33.793  12.828 -0.2040 -0.1563  0.1393
 2051POSM   C1B24067  21.466  33.121  12.883 -0.1922  0.0400  0.1124
 2051POSM   D2B24068  21.667  32.979  12.502 -0.2990 -0.1585  0.0997
 2051POSM   C3B24069  21.551  32.785  12.031  0.1461  0.0024  0.0883
 2051POSM   C4B24070  21.352  32.748  11.566  0.4207  0.0896 -0.2941
 2052DOPS   CNO24071  18.462   1.283  14.738 -0.0487 -0.0483 -0.1961
 2052DOPS   PO424072  18.227   1.286  14.475  0.1005  0.4256 -0.0991
 2052DOPS   GL124073  17.888   1.252  14.223 -0.0187  0.3770  0.3359
 2052DOPS   GL224074  17.742   1.037  14.163  0.0248  0.1280 -0.0984
 2052DOPS   C1A24075  17.884   1.359  13.797 -0.2082 -0.0778 -0.5263
 2052DOPS   D2A24076  17.807   1.493  13.370  0.2361 -0.0590  0.2281
 2052DOPS   C3A24077  17.997   1.080  13.138  0.0549  0.1498  0.1218
 2052DOPS   C4A24078  17.842   0.677  13.089 -0.0984  0.0600 -0.4373
 2052DOPS   C1B24079  17.628   0.647  14.031 -0.1200  0.1442  0.1041
 2052DOPS   D2B24080  17.745   0.255  13.725  0.0629 -0.3673 -0.1611
 2052DOPS   C3B24081  18.029   0.246  13.362 -0.0496 -0.1043 -0.1485
 2052DOPS   C4B24082  18.256   0.454  13.044  0.0686 -0.3828 -0.1687
 2053DOPC   NC324083  22.042  24.507  12.125 -0.1615 -0.1323  0.1280
 2053DOPC   PO424084  21.861  24.628  12.423  0.0281 -0.0100 -0.4271
 2053DOPC   GL124085  21.723  24.893  12.203 -0.1557 -0.1821 -0.0633
 2053DOPC   GL224086  21.829  24.992  11.947 -0.0317  0.2028  0.0915
 2053DOPC   C1A24087  21.491  25.292  12.105 -0.0660  0.2831 -0.1143
 2053DOPC   D2A24088  21.430  25.630  11.819 -0.3018 -0.2999  0.2506
 2053DOPC   C3A24089  20.972  25.761  11.765  0.0028  0.1596  0.3804
 2053DOPC   C4A24090  20.589  25.681  11.558  0.1923 -0.0388  0.0486
 2053DOPC   C1B24091  21.488  25.173  11.649  0.1925 -0.1308 -0.0185
 2053DOPC   D2B24092  21.219  25.381  11.370 -0.0162  0.0643 -0.0300
 2053DOPC   C3B24093  20.745  25.288  11.322  0.3853 -0.2721  0.3347
 2053DOPC   C4B24094  20.295  25.275  11.149 -0.0017 -0.0906 -0.0243
 2054DOPE   NH324095  17.872  26.288  14.027  0.3538  0.1077  0.1514
 2054DOPE   PO424096  18.146  26.333  14.167  0.1156  0.1886 -0.1020
 2054DOPE   GL124097  18.249  26.559  13.791  0.1580  0.1041 -0.2497
 2054DOPE   GL224098  18.115  26.454  13.615  0.1372 -0.0744  0.1601
 2054DOPE   C1A24099  18.326  27.003  13.834  0.0232 -0.2745 -0.1189
 2054DOPE   D2A24100  18.409  27.391  13.802 -0.0229  0.2694  0.1157
 2054DOPE   C3A24101  18.253  27.762  13.551  0.0010 -0.3654  0.0061
 2054DOPE   C4A24102  18.227  28.006  13.196  0.0003  0.0723  0.0917
 2054DOPE   C1B24103  18.327  26.745  13.305  0.2307 -0.5487 -0.1031
 2054DOPE   D2B24104  18.688  27.025  13.204 -0.0770  0.1683  0.0917
 2054DOPE   C3B24105  18.685  27.446  13.353  0.0937 -0.1301  0.1651
 2054DOPE   C4B24106  18.833  27.805  13.651  0.1108 -0.0751  0.0524
 2055DOPE   NH324107  17.554  27.098  14.420 -0.2389 -0.1040  0.0626
 2055DOPE   PO424108  17.268  27.282  14.343  0.3419 -0.2264 -0.1942
 2055DOPE   GL124109  17.470  27.513  14.145  0.3969 -0.0173 -0.1048
 2055DOPE   GL224110  17.591  27.330  13.943 -0.0214  0.1658  0.1626
 2055DOPE   C1A24111  17.402  27.807  13.785  0.1577 -0.1573  0.1248
 2055DOPE   D2A24112  17.073  27.744  13.470  0.0670  0.0369 -0.3469
 2055DOPE   C3A24113  16.681  27.985  13.480  0.1766 -0.2016 -0.3246
 2055DOPE   C4A24114  16.498  28.183  13.113  0.2021 -0.1705 -0.0840
 2055DOPE   C1B24115  17.268  27.322  13.554 -0.1351  0.0382  0.2694
 2055DOPE   D2B24116  17.050  27.440  13.109  0.4738 -0.0930  0.1816
 2055DOPE   C3B24117  17.017  27.840  12.946 -0.0861  0.1387  0.2979
 2055DOPE   C4B24118  17.135  28.132  12.643 -0.2585 -0.2382 -0.1314
 2056DOPC   NC324119  20.373   0.990  13.734 -0.2469 -0.3170  0.0270
 2056DOPC   PO424120  20.736   1.089  13.626  0.3693  0.0229 -0.3326
 2056DOPC   GL124121  20.740   1.169  13.298  0.1034  0.2718 -0.2185
 2056DOPC   GL224122  20.886   0.936  13.123  0.0153 -0.0126 -0.2057
 2056DOPC   C1A24123  20.941   1.437  13.055 -0.0772 -0.2567  0.0524
 2056DOPC   D2A24124  20.952   1.605  12.570 -0.0873  0.2580  0.0502
 2056DOPC   C3A24125  21.027   1.948  12.209 -0.0091 -0.0765 -0.1964
 2056DOPC   C4A24126  20.813   2.371  12.065 -0.1150  0.0488  0.0619
 2056DOPC   C1B24127  20.774   0.723  12.760 -0.1949 -0.0437  0.0385
 2056DOPC   D2B24128  20.718   0.761  12.292  0.0284 -0.0544  0.1884
 2056DOPC   C3B24129  20.452   0.498  11.958 -0.3419  0.3001 -0.0232
 2056DOPC   C4B24130  20.648   0.384  11.529  0.2196  0.0004 -0.0023
 2057POSM   NC324131  20.398  30.031  13.409 -0.2093  0.1549  0.0493
 2057POSM   PO424132  20.694  30.284  13.531  0.1706  0.0858 -0.4073
 2057POSM   AM124133  20.694  30.306  13.200  0.1995 -0.1430  0.1862
 2057POSM   AM224134  20.464  30.375  13.017 -0.1322  0.0777 -0.2189
 2057POSM   T1A24135  20.657  30.123  12.680 -0.1002 -0.0502 -0.1109
 2057POSM   C2A24136  20.713  30.123  12.231 -0.2685 -0.1365  0.2734
 2057POSM   C3A24137  20.536  30.111  11.826  0.0889 -0.2570 -0.1495
 2057POSM   C1B24138  20.278  30.544  12.783 -0.0049  0.0114  0.1324
 2057POSM   D2B24139  20.120  30.700  12.434  0.0069  0.0515 -0.2454
 2057POSM   C3B24140  19.720  30.842  12.275  0.0642 -0.1487 -0.1944
 2057POSM   C4B24141  19.418  31.192  12.088  0.1584 -0.1065  0.1551
 2058DOPE   NH324142  11.360  32.954  16.356  0.2310  0.1984 -0.0471
 2058DOPE   PO424143  11.486  33.221  16.256 -0.0067 -0.2104  0.2701
 2058DOPE   GL124144  11.566  33.013  15.879 -0.1067 -0.0358  0.0049
 2058DOPE   GL224145  11.252  32.988  15.892 -0.1601  0.0284 -0.0611
 2058DOPE   C1A24146  11.553  33.196  15.460 -0.1044  0.0976 -0.1195
 2058DOPE   D2A24147  11.705  33.408  15.149  0.0901 -0.2628  0.1832
 2058DOPE   C3A24148  11.291  33.578  15.164 -0.0563  0.1669  0.0322
 2058DOPE   C4A24149  11.245  34.013  15.261  0.0196 -0.0036  0.0101
 2058DOPE   C1B24150  11.054  33.228  15.524 -0.0100 -0.2725  0.2994
 2058DOPE   D2B24151  10.678  33.195  15.227  0.0541  0.3721 -0.3278
 2058DOPE   C3B24152  10.407  32.930  14.915 -0.0798 -0.0363 -0.1814
 2058DOPE   C4B24153  10.364  32.717  14.504 -0.1402  0.3450 -0.0046
 2059DOPS   CNO24154  16.261  25.676  14.342  0.0087 -0.1881 -0.1957
 2059DOPS   PO424155  16.333  25.975  14.155 -0.3527 -0.2362 -0.0834
 2059DOPS   GL124156  16.125  26.137  13.943 -0.2294 -0.1642 -0.0683
 2059DOPS   GL224157  16.356  26.394  13.830 -0.1981  0.0724 -0.0630
 2059DOPS   C1A24158  16.032  25.909  13.524  0.1443 -0.6064 -0.1886
 2059DOPS   D2A24159  15.987  25.700  13.188  0.1313 -0.0253  0.0423
 2059DOPS   C3A24160  16.027  25.418  12.835 -0.2091  0.0744  0.4178
 2059DOPS   C4A24161  16.262  25.138  12.513 -0.1989  0.1219 -0.0225
 2059DOPS   C1B24162  16.242  26.629  13.461 -0.1328  0.2389 -0.0529
 2059DOPS   D2B24163  16.351  26.634  13.075 -0.1059 -0.1654  0.1467
 2059DOPS   C3B24164  16.373  26.979  12.753  0.0723  0.2184 -0.0237
 2059DOPS   C4B24165  16.227  27.104  12.341 -0.2098 -0.0790 -0.0488
 2060POSM   NC324166  19.032  32.167  14.083  0.0490 -0.2217 -0.1891
 2060POSM   PO424167  18.798  32.040  14.330 -0.1557 -0.0136  0.0894
 2060POSM   AM124168  18.640  31.878  14.088  0.1137  0.0734 -0.2424
 2060POSM   AM224169  18.330  31.883  14.082  0.0350  0.2746  0.2089
 2060POSM   T1A24170  18.606  31.851  13.627 -0.0706 -0.2655  0.0264
 2060POSM   C2A24171  18.503  31.780  13.154  0.0515  0.1181 -0.1784
 2060POSM   C3A24172  18.414  31.746  12.718 -0.0833 -0.2035 -0.4959
 2060POSM   C1B24173  18.240  32.126  13.849  0.0470 -0.2855  0.0369
 2060POSM   D2B24174  18.218  32.335  13.407  0.3208  0.1135 -0.0988
 2060POSM   C3B24175  17.965  32.414  12.996 -0.1994  0.0889  0.0990
 2060POSM   C4B24176  17.607  32.215  12.718  0.0714  0.0427  0.4715
 2061POSM   NC324177  16.743  30.771  15.080  0.1615  0.1076 -0.2375
 2061POSM   PO424178  17.157  30.774  15.013 -0.0501 -0.1533  0.0798
 2061POSM   AM124179  17.141  30.860  14.677  0.0345  0.0918 -0.0973
 2061POSM   AM224180  17.186  31.017  14.438  0.0816 -0.1113  0.0636
 2061POSM   T1A24181  16.966  30.601  14.241  0.1378 -0.2162 -0.0984
 2061POSM   C2A24182  16.995  30.249  13.940 -0.1244  0.0424  0.1457
 2061POSM   C3A24183  16.805  30.065  13.548  0.0940  0.1913  0.0840
 2061POSM   C1B24184  17.226  31.084  14.093  0.4770  0.0841 -0.1657
 2061POSM   D2B24185  17.337  31.177  13.652 -0.0387 -0.1778 -0.3540
 2061POSM   C3B24186  17.642  31.517  13.510 -0.1664 -0.3104 -0.0661
 2061POSM   C4B24187  18.051  31.760  13.477  0.2071  0.0556 -0.1499
 2062DOPC   NC324188  15.735  23.349  13.174  0.1223  0.0518 -0.1531
 2062DOPC   PO424189  15.746  23.005  13.359 -0.0626 -0.0860  0.1921
 2062DOPC   GL124190  15.589  23.001  12.968 -0.2088 -0.0122  0.1571
 2062DOPC   GL224191  15.452  22.875  12.729  0.0573 -0.1407 -0.1504
 2062DOPC   C1A24192  15.561  23.345  12.641 -0.1992  0.0318  0.1338
 2062DOPC   D2A24193  15.520  23.424  12.160 -0.2255 -0.1694  0.0498
 2062DOPC   C3A24194  15.285  23.467  11.739 -0.2150 -0.1435 -0.2365
 2062DOPC   C4A24195  15.035  23.724  11.455  0.0191  0.0263 -0.4178
 2062DOPC   C1B24196  15.242  23.069  12.399 -0.1073  0.2931  0.2295
 2062DOPC   D2B24197  15.087  23.125  11.966  0.0793 -0.3588  0.1314
 2062DOPC   C3B24198  14.632  23.188  12.028 -0.1370 -0.0804  0.0578
 2062DOPC   C4B24199  14.314  22.950  11.823 -0.1290  0.2269  0.2326
 2063DOPS   CNO24200  20.523  28.324  13.369  0.2193 -0.1506  0.0688
 2063DOPS   PO424201  20.663  28.035  13.229 -0.1561 -0.2051  0.2222
 2063DOPS   GL124202  20.489  27.881  12.856 -0.0791 -0.0724  0.3979
 2063DOPS   GL224203  20.644  27.824  12.670 -0.1489  0.4047  0.0277
 2063DOPS   C1A24204  20.149  27.899  12.554 -0.1250  0.0889 -0.0099
 2063DOPS   D2A24205  20.260  27.597  12.236 -0.3208  0.1686 -0.1398
 2063DOPS   C3A24206  20.559  27.262  12.163 -0.0147 -0.1146 -0.1060
 2063DOPS   C4A24207  20.818  26.994  11.960 -0.2702  0.0425 -0.1369
 2063DOPS   C1B24208  20.681  28.148  12.352  0.0014  0.3546 -0.2188
 2063DOPS   D2B24209  20.487  28.229  11.985 -0.1487  0.2301 -0.0561
 2063DOPS   C3B24210  20.449  27.952  11.594 -0.2362 -0.1281 -0.0790
 2063DOPS   C4B24211  20.489  27.613  11.242 -0.3435 -0.2611  0.0218
 2064DOPE   NH324212  21.533   2.135  13.737  0.1571 -0.0657  0.1527
 2064DOPE   PO424213  21.328   1.952  13.706  0.4067 -0.1503  0.2265
 2064DOPE   GL124214  21.233   1.889  13.265 -0.1620 -0.1620  0.0560
 2064DOPE   GL224215  21.406   1.701  13.231  0.1137  0.0541 -0.0912
 2064DOPE   C1A24216  20.966   1.994  12.889  0.0861 -0.0694 -0.1925
 2064DOPE   D2A24217  20.834   2.213  12.526 -0.1543  0.2611  0.0307
 2064DOPE   C3A24218  20.594   2.638  12.714 -0.2080 -0.0799  0.0711
 2064DOPE   C4A24219  20.236   2.927  12.784 -0.3266 -0.3086  0.1124
 2064DOPE   C1B24220  21.682   1.490  12.992 -0.0478  0.0914  0.2937
 2064DOPE   D2B24221  21.515   1.273  12.574  0.0315 -0.2457 -0.1542
 2064DOPE   C3B24222  21.914   1.021  12.392 -0.2486 -0.4556  0.0220
 2064DOPE   C4B24223  22.245   1.185  12.115  0.0036 -0.2692 -0.3175
 2065POSM   NC324224  21.601  32.254  13.222 -0.1793  0.0781  0.3426
 2065POSM   PO424225  21.432  31.954  13.427 -0.0356 -0.0592 -0.0163
 2065POSM   AM124226  21.222  31.931  13.143 -0.2542  0.0803  0.0100
 2065POSM   AM224227  21.324  31.772  12.933  0.1987 -0.1242 -0.0565
 2065POSM   T1A24228  20.826  31.858  12.852 -0.0227 -0.1901 -0.0831
 2065POSM   C2A24229  20.542  31.506  12.729  0.1398 -0.1079 -0.0621
 2065POSM   C3A24230  20.457  31.246  12.378 -0.2106  0.2077 -0.1334
 2065POSM   C1B24231  21.337  31.683  12.599  0.1466 -0.1035  0.0416
 2065POSM   D2B24232  21.297  31.857  12.162  0.1075 -0.1504  0.0064
 2065POSM   C3B24233  21.321  32.320  12.233  0.1468 -0.2779  0.3209
 2065POSM   C4B24234  21.202  32.741  12.427  0.0846  0.3569 -0.1043
 2066POSM   NC324235  22.959  27.062  13.038 -0.2701  0.3622  0.2193
 2066POSM   PO424236  23.025  27.084  12.658 -0.4501 -0.0130 -0.1446
 2066POSM   AM124237  22.928  26.909  12.398 -0.2196 -0.4457  0.2416
 2066POSM   AM224238  23.033  26.755  12.203 -0.0408  0.2878 -0.1569
 2066POSM   T1A24239  22.735  27.043  11.939 -0.2027 -0.4134  0.0576
 2066POSM   C2A24240  22.560  27.445  11.770 -0.1388  0.0421  0.3156
 2066POSM   C3A24241  22.153  27.613  11.791 -0.0381 -0.0341  0.1492
 2066POSM   C1B24242  23.253  26.828  11.989 -0.2125 -0.1445  0.0768
 2066POSM   D2B24243  23.280  26.872  11.556  0.2988  0.0652  0.0913
 2066POSM   C3B24244  23.551  26.715  11.242  0.0311 -0.1524 -0.2562
 2066POSM   C4B24245  23.401  26.743  10.807 -0.1276 -0.0329 -0.0778
 2067DOPC   NC324246  13.814  31.835  16.197 -0.0912  0.0217 -0.3014
 2067DOPC   PO424247  13.545  32.159  16.065  0.1982 -0.0335 -0.0029
 2067DOPC   GL124248  13.553  32.057  15.703 -0.1103 -0.0542 -0.3254
 2067DOPC   GL224249  13.607  31.808  15.594 -0.0685  0.4274  0.0603
 2067DOPC   C1A24250  13.419  32.202  15.321  0.0758 -0.0218 -0.0084
 2067DOPC   D2A24251  13.100  32.529  15.321 -0.4229  0.1428 -0.0451
 2067DOPC   C3A24252  12.661  32.633  15.067 -0.0734 -0.1414 -0.0061
 2067DOPC   C4A24253  12.386  32.823  14.740  0.3222 -0.0107 -0.0687
 2067DOPC   C1B24254  13.859  31.974  15.297 -0.2859 -0.0784 -0.2602
 2067DOPC   D2B24255  14.137  32.162  15.005  0.5125  0.1255 -0.2611
 2067DOPC   C3B24256  14.171  32.176  14.573 -0.1428  0.0294 -0.1964
 2067DOPC   C4B24257  13.960  32.339  14.208  0.0422 -0.3380  0.2557
 2068DOPC   NC324258  12.634  26.269  14.775  0.1284  0.0449 -0.0858
 2068DOPC   PO424259  13.028  26.384  14.637 -0.1227 -0.2569 -0.1000
 2068DOPC   GL124260  12.983  26.698  14.377  0.2838  0.1016  0.2121
 2068DOPC   GL224261  12.669  26.740  14.280  0.1750  0.1812 -0.0252
 2068DOPC   C1A24262  13.081  26.838  13.925 -0.0638 -0.0903  0.1106
 2068DOPC   D2A24263  13.343  26.888  13.527  0.2413 -0.4413  0.4024
 2068DOPC   C3A24264  13.634  26.590  13.372  0.2534  0.0695  0.1826
 2068DOPC   C4A24265  14.090  26.498  13.197  0.6248  0.0711  0.1652
 2068DOPC   C1B24266  12.645  27.015  13.910  0.3084  0.1109 -0.0568
 2068DOPC   D2B24267  12.363  27.165  13.628  0.0278  0.2974 -0.1513
 2068DOPC   C3B24268  12.568  27.471  13.395  0.5394  0.3367 -0.0152
 2068DOPC   C4B24269  12.750  27.653  13.050 -0.0819  0.1288 -0.2949
 2069POSM   NC324270  17.099  23.473  12.999  0.1119  0.1493 -0.0103
 2069POSM   PO424271  17.304  23.795  13.183 -0.1012 -0.2948 -0.1905
 2069POSM   AM124272  17.400  24.008  12.965  0.1428 -0.4035  0.1144
 2069POSM   AM224273  17.406  24.269  12.789  0.0185  0.0893 -0.2144
 2069POSM   T1A24274  17.798  24.029  12.652 -0.2132  0.2091 -0.1948
 2069POSM   C2A24275  18.147  23.925  12.358  0.2699  0.2552  0.2693
 2069POSM   C3A24276  18.494  23.952  12.004 -0.1077  0.2115 -0.2224
 2069POSM   C1B24277  17.362  24.274  12.430  0.0868 -0.0179 -0.0025
 2069POSM   D2B24278  17.155  24.282  12.025  0.0569 -0.0846 -0.0752
 2069POSM   C3B24279  16.993  24.740  12.056  0.0737 -0.2174  0.1039
 2069POSM   C4B24280  16.649  25.029  11.902 -0.0084 -0.2214  0.0130
 2070POSM   NC324281  21.785  30.191  13.071 -0.1574 -0.0243  0.1576
 2070POSM   PO424282  21.531  29.965  12.968  0.1497  0.1608 -0.0308
 2070POSM   AM124283  21.585  29.942  12.685 -0.1145 -0.1740  0.1931
 2070POSM   AM224284  21.769  30.112  12.529  0.0228  0.1315  0.2798
 2070POSM   T1A24285  21.436  29.706  12.243  0.4726 -0.2356 -0.0006
 2070POSM   C2A24286  21.490  29.606  11.744 -0.1543 -0.0909 -0.2180
 2070POSM   C3A24287  21.424  29.714  11.322 -0.1307 -0.1313 -0.0665
 2070POSM   C1B24288  21.605  30.226  12.240 -0.1381  0.0012 -0.4873
 2070POSM   D2B24289  21.291  30.132  11.854  0.1649  0.2020 -0.2090
 2070POSM   C3B24290  21.167  30.082  11.455  0.0322 -0.1880  0.1844
 2070POSM   C4B24291  20.871  30.207  11.076 -0.1636 -0.2412  0.1188
 2071DOPE   NH324292  20.893  34.189  13.713  0.0849  0.2574  0.1027
 2071DOPE   PO424293  21.130  34.111  13.484  0.1241 -0.1762 -0.0147
 2071DOPE   GL124294  21.281  34.099  13.084 -0.2592 -0.0746  0.0401
 2071DOPE   GL224295  21.374  34.365  13.048  0.3496  0.2314 -0.3461
 2071DOPE   C1A24296  21.459  34.172  12.593  0.0142 -0.1019 -0.1834
 2071DOPE   D2A24297  21.638  34.360  12.306  0.1065  0.0232 -0.3382
 2071DOPE   C3A24298  21.340  34.271  11.961  0.2193  0.0492  0.0564
 2071DOPE   C4A24299  20.996  34.483  11.738  0.0262  0.0432  0.1042
 2071DOPE   C1B24300  21.447  34.705  12.718 -0.0025  0.2417  0.0165
 2071DOPE   D2B24301  21.196  34.892  12.371  0.0075  0.3161 -0.2097
 2071DOPE   C3B24302  21.370  34.787  11.950  0.0320 -0.0342 -0.1139
 2071DOPE   C4B24303  21.444  34.515  11.530  0.0795  0.1208  0.0458
 2072DOPC   NC324304  18.018  32.936  14.574 -0.1454 -0.0789  0.0188
 2072DOPC   PO424305  17.861  33.037  14.943 -0.2012  0.0906 -0.3218
 2072DOPC   GL124306  17.586  33.060  14.704  0.1066 -0.3740  0.2502
 2072DOPC   GL224307  17.470  33.303  14.747  0.0605  0.0898 -0.3079
 2072DOPC   C1A24308  17.517  32.774  14.332  0.0184  0.0766  0.1661
 2072DOPC   D2A24309  17.400  32.565  14.015 -0.1862 -0.1198 -0.0654
 2072DOPC   C3A24310  17.360  32.113  14.053 -0.2399  0.1490  0.0684
 2072DOPC   C4A24311  17.418  31.628  14.076 -0.2730  0.0119 -0.0591
 2072DOPC   C1B24312  17.656  33.230  14.313 -0.1279 -0.1518 -0.0376
 2072DOPC   D2B24313  18.057  33.405  14.045  0.2222 -0.3152 -0.0367
 2072DOPC   C3B24314  18.095  33.431  13.559  0.2313  0.2013 -0.2034
 2072DOPC   C4B24315  18.233  33.816  13.417 -0.2067 -0.1439 -0.1683
 2073DOPE   NH324316  20.811  28.686  13.195 -0.0934  0.2545 -0.1580
 2073DOPE   PO424317  21.023  28.440  13.202 -0.0396  0.3925 -0.1116
 2073DOPE   GL124318  20.815  28.487  12.776 -0.4664  0.2773  0.0985
 2073DOPE   GL224319  20.570  28.394  12.876 -0.3100 -0.0673 -0.2442
 2073DOPE   C1A24320  20.798  28.706  12.362  0.1337 -0.1650  0.0073
 2073DOPE   D2A24321  20.812  29.091  12.029 -0.0258  0.0340 -0.1016
 2073DOPE   C3A24322  20.605  29.043  11.578 -0.1772 -0.0912 -0.2128
 2073DOPE   C4A24323  20.572  29.287  11.142 -0.2321  0.2299  0.1246
 2073DOPE   C1B24324  20.357  28.783  12.933  0.1047  0.0472  0.1806
 2073DOPE   D2B24325  20.197  29.196  12.787 -0.0346  0.1419 -0.1831
 2073DOPE   C3B24326  19.948  29.115  12.331 -0.1662  0.0422 -0.0811
 2073DOPE   C4B24327  19.844  28.864  11.927 -0.0908 -0.2940 -0.0635
 2074DOPE   NH324328  22.658  26.617  12.697 -0.1761  0.1845  0.0765
 2074DOPE   PO424329  22.461  26.643  12.434 -0.0764 -0.1480  0.2292
 2074DOPE   GL124330  22.651  26.547  12.072  0.0847  0.2919  0.0919
 2074DOPE   GL224331  22.375  26.586  11.937 -0.0853  0.0326  0.1560
 2074DOPE   C1A24332  22.779  26.510  11.662 -0.3174 -0.1206 -0.0761
 2074DOPE   D2A24333  22.626  26.387  11.240  0.1944  0.0776  0.0462
 2074DOPE   C3A24334  22.959  26.341  10.817 -0.0799  0.1350  0.0762
 2074DOPE   C4A24335  23.272  26.077  10.611 -0.0769 -0.2038  0.0170
 2074DOPE   C1B24336  22.194  26.355  11.607  0.1325 -0.0927  0.0399
 2074DOPE   D2B24337  22.116  26.132  11.235  0.1844  0.0436 -0.0824
 2074DOPE   C3B24338  22.175  25.714  11.141  0.1559  0.1398  0.0061
 2074DOPE   C4B24339  22.118  25.286  11.291  0.1150  0.2529 -0.1893
 2075DOPE   NH324340  21.035  26.950  13.299  0.0905 -0.0810 -0.1559
 2075DOPE   PO424341  20.948  27.153  13.071  0.1367  0.0539 -0.0623
 2075DOPE   GL124342  20.731  27.316  12.846 -0.1895 -0.4204 -0.1641
 2075DOPE   GL224343  20.786  27.347  12.587  0.0703 -0.3400 -0.0085
 2075DOPE   C1A24344  20.291  27.360  12.757 -0.0359 -0.1154 -0.1632
 2075DOPE   D2A24345  19.836  27.292  12.599  0.3893  0.1100  0.0759
 2075DOPE   C3A24346  19.671  27.595  12.295 -0.1182  0.2667  0.0046
 2075DOPE   C4A24347  19.760  27.990  12.182 -0.2227  0.1577 -0.1667
 2075DOPE   C1B24348  20.693  26.922  12.459 -0.1791  0.2306  0.0494
 2075DOPE   D2B24349  20.593  26.594  12.147 -0.1255  0.0782  0.1683
 2075DOPE   C3B24350  20.338  26.874  11.882  0.1465  0.0573  0.0632
 2075DOPE   C4B24351  20.278  27.364  11.761  0.1881 -0.1066  0.0750
 2076DOPS   CNO24352  12.720  30.072  15.923  0.1156 -0.1648  0.3289
 2076DOPS   PO424353  12.513  29.743  15.867  0.3917 -0.3863 -0.0909
 2076DOPS   GL124354  12.342  29.773  15.434  0.3779 -0.0717 -0.0954
 2076DOPS   GL224355  12.333  29.967  15.269  0.0409  0.0472  0.0197
 2076DOPS   C1A24356  12.238  29.514  15.080 -0.0995  0.1185 -0.0879
 2076DOPS   D2A24357  12.129  29.321  14.640  0.0683  0.0987  0.1546
 2076DOPS   C3A24358  12.025  29.595  14.287  0.0976 -0.1706 -0.1575
 2076DOPS   C4A24359  11.936  29.999  14.098 -0.1428  0.0405  0.0743
 2076DOPS   C1B24360  12.633  29.815  14.992 -0.0567  0.1161  0.0902
 2076DOPS   D2B24361  12.781  29.794  14.540 -0.0628  0.3052  0.0796
 2076DOPS   C3B24362  12.992  30.088  14.247  0.2632  0.1117  0.1427
 2076DOPS   C4B24363  13.146  30.212  13.837  0.0723 -0.2887  0.3132
 2077DOPE   NH324364  18.095  30.129  14.402  0.1460  0.0252  0.0463
 2077DOPE   PO424365  18.377  30.256  14.240 -0.0403  0.1923  0.0195
 2077DOPE   GL124366  18.284  30.462  13.852  0.3392 -0.1554  0.1117
 2077DOPE   GL224367  18.610  30.436  13.795 -0.1274  0.0013 -0.1395
 2077DOPE   C1A24368  18.233  30.419  13.387 -0.0112 -0.4954 -0.0270
 2077DOPE   D2A24369  18.423  30.734  13.028  0.0867 -0.5329  0.2105
 2077DOPE   C3A24370  18.077  30.973  12.773  0.2864  0.2221 -0.2363
 2077DOPE   C4A24371  17.959  31.042  12.328  0.0892 -0.2990 -0.4437
 2077DOPE   C1B24372  18.611  30.839  13.613  0.2966  0.0993 -0.0021
 2077DOPE   D2B24373  18.736  31.065  13.179 -0.0974 -0.1824 -0.0110
 2077DOPE   C3B24374  18.453  31.342  12.950 -0.0847 -0.0556 -0.0991
 2077DOPE   C4B24375  18.008  31.405  13.034 -0.2541 -0.1293  0.2024
 2078DOPE   NH324376  17.563  29.549  14.859  0.2731 -0.2932  0.3740
 2078DOPE   PO424377  17.746  29.363  14.721  0.0376  0.2067 -0.4067
 2078DOPE   GL124378  17.506  29.488  14.369 -0.0664 -0.3751 -0.1348
 2078DOPE   GL224379  17.676  29.260  14.267 -0.2653  0.1472  0.1642
 2078DOPE   C1A24380  17.419  29.384  13.926  0.3143 -0.1017  0.4972
 2078DOPE   D2A24381  17.221  29.192  13.555  0.0030 -0.1901  0.0331
 2078DOPE   C3A24382  17.335  29.454  13.190  0.2190  0.0975 -0.0982
 2078DOPE   C4A24383  17.139  29.737  12.867  0.0942 -0.0281 -0.2809
 2078DOPE   C1B24384  17.883  29.501  13.957  0.0012  0.2133 -0.2785
 2078DOPE   D2B24385  18.155  29.548  13.582 -0.2015  0.0258  0.1122
 2078DOPE   C3B24386  18.026  29.660  13.186  0.0070 -0.0100  0.0984
 2078DOPE   C4B24387  17.649  29.809  12.948 -0.1413  0.0536 -0.0887
 2079POSM   NC324388  16.587  23.838  14.132  0.0330 -0.0816  0.1515
 2079POSM   PO424389  16.696  24.143  13.910  0.0592 -0.0472  0.2236
 2079POSM   AM124390  16.618  24.300  13.580 -0.0376  0.1831 -0.3721
 2079POSM   AM224391  16.779  24.436  13.412 -0.3672 -0.1092 -0.1673
 2079POSM   T1A24392  16.477  24.219  13.094 -0.0122 -0.1503  0.0261
 2079POSM   C2A24393  16.056  24.305  12.903  0.2176 -0.1584 -0.1164
 2079POSM   C3A24394  15.651  24.453  12.656  0.2285  0.0720 -0.1981
 2079POSM   C1B24395  16.643  24.769  13.312  0.0283  0.0355  0.3441
 2079POSM   D2B24396  16.363  25.043  13.013  0.0815 -0.0444 -0.1738
 2079POSM   C3B24397  15.952  25.161  13.209 -0.0892  0.3054 -0.2868
 2079POSM   C4B24398  15.540  25.470  13.178  0.1483 -0.0485 -0.3071
 2080POSM   NC324399  16.978  27.462  14.670  0.0686  0.1947  0.0900
 2080POSM   PO424400  16.761  27.236  14.399 -0.2059 -0.1900 -0.1797
 2080POSM   AM124401  16.853  27.234  14.098 -0.0762  0.3224  0.3410
 2080POSM   AM224402  16.886  27.397  13.894 -0.1085 -0.0128 -0.0014
 2080POSM   T1A24403  16.794  26.976  13.630 -0.0398  0.2487 -0.0091
 2080POSM   C2A24404  16.849  26.962  13.161  0.1209 -0.1449  0.1374
 2080POSM   C3A24405  16.935  26.740  12.736 -0.2569 -0.1749  0.0805
 2080POSM   C1B24406  16.700  27.446  13.578 -0.1869 -0.1789 -0.1935
 2080POSM   D2B24407  16.545  27.593  13.159 -0.1190 -0.0520 -0.0917
 2080POSM   C3B24408  16.703  27.309  12.803 -0.1165  0.2033  0.3452
 2080POSM   C4B24409  16.748  27.069  12.429  0.1129  0.0535  0.1092
 2081DOPC   NC324410  18.711  29.403  14.407  0.3558 -0.1565  0.0602
 2081DOPC   PO424411  18.381  29.677  14.382  0.1049  0.2006  0.1408
 2081DOPC   GL124412  18.131  29.823  14.037  0.2522 -0.3214  0.0149
 2081DOPC   GL224413  18.421  29.912  13.887  0.2596 -0.2277  0.1262
 2081DOPC   C1A24414  18.014  30.107  13.662  0.0851 -0.0220  0.2087
 2081DOPC   D2A24415  17.844  30.165  13.255 -0.0049  0.0038  0.4167
 2081DOPC   C3A24416  18.078  30.033  12.868  0.0543 -0.2420 -0.1623
 2081DOPC   C4A24417  18.426  29.998  12.589  0.0426 -0.0491 -0.1902
 2081DOPC   C1B24418  18.399  29.938  13.454 -0.0765 -0.0937 -0.1123
 2081DOPC   D2B24419  18.547  29.717  13.062  0.5131 -0.0470  0.0349
 2081DOPC   C3B24420  18.411  29.481  12.653 -0.1211  0.3667 -0.0891
 2081DOPC   C4B24421  18.420  29.098  12.395 -0.0170  0.3011  0.0507
 2082DOPC   NC324422  16.564  30.699  14.533 -0.1894  0.1353 -0.0336
 2082DOPC   PO424423  16.318  30.490  14.711  0.2185  0.1380  0.1844
 2082DOPC   GL124424  16.165  30.417  14.396 -0.0174  0.1336  0.3343
 2082DOPC   GL224425  16.303  30.205  14.236  0.4681  0.0047  0.1146
 2082DOPC   C1A24426  15.901  30.680  14.102  0.1118  0.0332  0.0194
 2082DOPC   D2A24427  15.729  31.073  13.876 -0.3036 -0.3392  0.0115
 2082DOPC   C3A24428  15.615  31.405  13.557  0.4098  0.1750  0.1304
 2082DOPC   C4A24429  15.694  31.916  13.562 -0.1560  0.1094  0.0152
 2082DOPC   C1B24430  16.394  30.275  13.769  0.1550  0.2725 -0.0984
 2082DOPC   D2B24431  16.310  30.334  13.302  0.0081 -0.1544  0.0769
 2082DOPC   C3B24432  15.802  30.326  13.396 -0.2306  0.0303  0.2130
 2082DOPC   C4B24433  15.561  30.568  13.693  0.2555 -0.2357 -0.1021
 2083POSM   NC324434  15.277  33.883  15.933  0.1376 -0.1777 -0.0018
 2083POSM   PO424435  15.017  33.645  15.666 -0.0777 -0.1804 -0.4000
 2083POSM   AM124436  14.958  33.590  15.332  0.0526 -0.1090 -0.0673
 2083POSM   AM224437  14.753  33.583  15.123  0.1408 -0.1201  0.0721
 2083POSM   T1A24438  15.267  33.658  14.961  0.0068  0.2032  0.2200
 2083POSM   C2A24439  15.406  33.650  14.510 -0.2833  0.3617 -0.1739
 2083POSM   C3A24440  15.396  33.728  14.029  0.2183 -0.1844 -0.2051
 2083POSM   C1B24441  14.819  33.755  14.837 -0.2102  0.0542 -0.4190
 2083POSM   D2B24442  14.846  33.735  14.359 -0.0858 -0.1063 -0.0635
 2083POSM   C3B24443  14.502  33.554  14.110  0.2167 -0.0398 -0.1038
 2083POSM   C4B24444  14.110  33.571  14.337 -0.0858 -0.1743  0.0825
 2084DOPC   NC324445  21.200  23.789  12.734 -0.2893  0.3315  0.0072
 2084DOPC   PO424446  21.531  23.780  12.498  0.0314 -0.2188 -0.0261
 2084DOPC   GL124447  21.481  24.043  12.246  0.2183  0.3188 -0.0876
 2084DOPC   GL224448  21.559  24.363  12.152  0.0235  0.0658 -0.0293
 2084DOPC   C1A24449  21.204  23.898  11.939  0.1375  0.1533 -0.0812
 2084DOPC   D2A24450  20.788  23.671  11.814 -0.0822 -0.1344 -0.0110
 2084DOPC   C3A24451  20.487  23.776  11.458 -0.0092 -0.1707  0.0754
 2084DOPC   C4A24452  20.118  23.897  11.112 -0.2454  0.0837 -0.0583
 2084DOPC   C1B24453  21.408  24.275  11.728 -0.0108 -0.0196 -0.2334
 2084DOPC   D2B24454  21.517  24.401  11.247 -0.0386 -0.0815  0.2070
 2084DOPC   C3B24455  21.956  24.373  11.136  0.2751  0.0618 -0.1196
 2084DOPC   C4B24456  22.415  24.380  11.066  0.0063  0.1178  0.3038
 2085POSM   NC324457  11.544  31.022  16.157 -0.2440 -0.1957 -0.0018
 2085POSM   PO424458  11.434  31.391  16.055 -0.0844  0.1241  0.1627
 2085POSM   AM124459  11.439  31.376  15.713 -0.2209  0.6285 -0.3520
 2085POSM   AM224460  11.334  31.244  15.500  0.0446 -0.2569 -0.5405
 2085POSM   T1A24461  11.692  31.601  15.273 -0.0808  0.0533 -0.0540
 2085POSM   C2A24462  11.935  31.468  14.911  0.1023  0.0953 -0.0030
 2085POSM   C3A24463  11.861  31.120  14.609 -0.2947  0.1532 -0.0800
 2085POSM   C1B24464  11.230  31.371  15.201 -0.1025 -0.2350  0.1865
 2085POSM   D2B24465  11.385  31.625  14.839  0.1783  0.0847 -0.1403
 2085POSM   C3B24466  11.050  31.532  14.579 -0.0901  0.1645  0.2283
 2085POSM   C4B24467  10.619  31.600  14.399 -0.1408 -0.2266  0.1195
 2086DOPC   NC324468  15.181  28.396  14.175 -0.0257 -0.1932  0.0312
 2086DOPC   PO424469  15.415  28.587  14.438 -0.0133 -0.1206 -0.0132
 2086DOPC   GL124470  15.341  28.815  14.136  0.2801  0.3221  0.2067
 2086DOPC   GL224471  15.029  28.868  14.060 -0.0879  0.1508 -0.0447
 2086DOPC   C1A24472  15.532  28.656  13.786  0.0833 -0.6972  0.2540
 2086DOPC   D2A24473  15.432  28.531  13.350 -0.1142 -0.4062  0.0097
 2086DOPC   C3A24474  15.639  28.785  13.018  0.0053 -0.1101  0.1311
 2086DOPC   C4A24475  15.866  29.076  12.738  0.3385 -0.0731 -0.0129
 2086DOPC   C1B24476  15.046  28.545  13.706 -0.1912 -0.0326 -0.1646
 2086DOPC   D2B24477  14.999  28.215  13.280  0.0834  0.1349 -0.0856
 2086DOPC   C3B24478  14.590  27.923  13.264  0.2142  0.0975 -0.2521
 2086DOPC   C4B24479  14.523  27.499  13.382 -0.0105  0.2318 -0.0907
 2087POSM   NC324480  13.148   0.163  15.875 -0.1452  0.1304 -0.2568
 2087POSM   PO424481  13.137  -0.222  15.906  0.1088  0.1438 -0.1483
 2087POSM   AM124482  13.110  -0.296  15.610 -0.1096 -0.1126  0.1525
 2087POSM   AM224483  12.929  -0.207  15.417  0.1151 -0.2377 -0.0958
 2087POSM   T1A24484  13.325  -0.375  15.139  0.1139  0.1010 -0.2972
 2087POSM   C2A24485  13.667  -0.246  14.881 -0.0896 -0.2013  0.1922
 2087POSM   C3A24486  13.876  -0.588  14.644 -0.1020  0.1330  0.2146
 2087POSM   C1B24487  12.848  -0.094  15.072  0.5046 -0.0430 -0.0648
 2087POSM   D2B24488  12.721  -0.162  14.584 -0.0450  0.3807  0.0636
 2087POSM   C3B24489  12.913  -0.464  14.320 -0.0206 -0.0271 -0.1493
 2087POSM   C4B24490  13.178  -0.827  14.354 -0.3342 -0.3484 -0.0326
 2088DOPE   NH324491  17.348  30.296  14.953  0.1869 -0.0327 -0.2154
 2088DOPE   PO424492  17.591  30.058  14.815  0.2099  0.3476 -0.0292
 2088DOPE   GL124493  17.497  30.018  14.472 -0.2605 -0.0056  0.3749
 2088DOPE   GL224494  17.230  30.194  14.435 -0.1783  0.0475 -0.0410
 2088DOPE   C1A24495  17.535  29.813  14.064 -0.2114  0.6181  0.0855
 2088DOPE   D2A24496  17.610  29.774  13.590 -0.1004 -0.0322  0.0673
 2088DOPE   C3A24497  17.323  29.959  13.323 -0.1839  0.1071  0.3034
 2088DOPE   C4A24498  17.124  30.188  12.988 -0.1882 -0.2530  0.3536
 2088DOPE   C1B24499  17.533  30.330  14.136 -0.0664  0.0340  0.1160
 2088DOPE   D2B24500  17.460  30.222  13.696  0.2728 -0.0912  0.0547
 2088DOPE   C3B24501  17.284  30.527  13.385  0.1780  0.1295 -0.0690
 2088DOPE   C4B24502  17.201  30.752  12.979  0.0786 -0.0388  0.0975
 2089DOPC   NC324503  22.380  25.414  12.880 -0.0174  0.2771  0.2851
 2089DOPC   PO424504  22.453  25.387  12.487 -0.1367  0.3174  0.1340
 2089DOPC   GL124505  22.369  25.356  12.142 -0.1494 -0.0262 -0.0437
 2089DOPC   GL224506  22.108  25.485  12.136  0.2240 -0.0173 -0.0043
 2089DOPC   C1A24507  22.337  25.079  11.781 -0.2842 -0.3347 -0.3166
 2089DOPC   D2A24508  22.240  24.804  11.435 -0.1836 -0.0407  0.1181
 2089DOPC   C3A24509  22.488  24.908  11.107 -0.2317 -0.0239  0.2541
 2089DOPC   C4A24510  22.879  24.914  10.802 -0.0200 -0.0072  0.1636
 2089DOPC   C1B24511  21.956  25.476  11.709 -0.2643 -0.3571 -0.3172
 2089DOPC   D2B24512  21.673  25.531  11.352  0.1060  0.0042  0.0902
 2089DOPC   C3B24513  21.629  25.322  10.950  0.0850  0.2289 -0.0091
 2089DOPC   C4B24514  21.649  25.104  10.591  0.4629  0.1577  0.1550
 2090DOPC   NC324515  18.798  24.323  13.160  0.0023  0.0778  0.0970
 2090DOPC   PO424516  18.616  24.729  13.078  0.1613  0.1801  0.1421
 2090DOPC   GL124517  18.582  25.081  12.911  0.0896  0.0769  0.2543
 2090DOPC   GL224518  18.897  25.058  12.845 -0.1038 -0.0156 -0.0710
 2090DOPC   C1A24519  18.446  24.887  12.505 -0.2334  0.2183  0.3119
 2090DOPC   D2A24520  18.511  25.016  12.103  0.2783  0.1839  0.2019
 2090DOPC   C3A24521  18.344  25.361  11.891 -0.1432  0.0482  0.2855
 2090DOPC   C4A24522  18.280  25.562  11.477  0.1195 -0.1231  0.0369
 2090DOPC   C1B24523  18.796  25.242  12.418  0.1131 -0.2804  0.0463
 2090DOPC   D2B24524  18.833  25.478  11.990  0.0048 -0.2017 -0.4948
 2090DOPC   C3B24525  18.738  25.314  11.570 -0.0727  0.0682 -0.2758
 2090DOPC   C4B24526  18.466  24.990  11.441  0.1201  0.0184  0.1414
 2091DOPC   NC324527  15.538  28.950  14.753 -0.3189  0.0791 -0.1953
 2091DOPC   PO424528  15.882  28.782  14.873  0.1845  0.1357  0.1010
 2091DOPC   GL124529  15.863  28.781  14.374 -0.5405 -0.0121  0.0066
 2091DOPC   GL224530  15.878  28.522  14.254  0.0523  0.5493 -0.0506
 2091DOPC   C1A24531  15.975  28.877  13.956  0.1840 -0.0924  0.1394
 2091DOPC   D2A24532  16.120  28.735  13.484  0.0752 -0.0876 -0.1692
 2091DOPC   C3A24533  16.122  29.050  13.152  0.0111  0.2319  0.0670
 2091DOPC   C4A24534  15.903  29.435  13.170  0.3821 -0.1658 -0.1926
 2091DOPC   C1B24535  16.145  28.397  13.876 -0.1449 -0.2259  0.0912
 2091DOPC   D2B24536  16.261  27.947  13.741 -0.0056 -0.2644  0.3145
 2091DOPC   C3B24537  16.160  27.826  13.314 -0.3738 -0.2100  0.2669
 2091DOPC   C4B24538  16.090  27.506  13.079  0.2563 -0.0354 -0.0938
 2092DOPC   NC324539  22.019  33.196  13.053  0.1181 -0.0096 -0.2219
 2092DOPC   PO424540  22.356  33.313  13.295  0.0946  0.2558 -0.1137
 2092DOPC   GL124541  22.554  33.376  12.936  0.1401 -0.1028 -0.0099
 2092DOPC   GL224542  22.364  33.538  12.725 -0.0181  0.3169 -0.2487
 2092DOPC   C1A24543  22.878  33.668  12.824 -0.2036 -0.1831 -0.0933
 2092DOPC   D2A24544  23.020  33.827  12.448  0.0824 -0.1618 -0.0332
 2092DOPC   C3A24545  23.276  33.618  12.116  0.0839 -0.1207 -0.3347
 2092DOPC   C4A24546  23.285  33.755  11.674 -0.1033  0.3266 -0.2711
 2092DOPC   C1B24547  22.715  33.289  12.531 -0.1049 -0.0843 -0.1114
 2092DOPC   D2B24548  23.001  33.201  12.236  0.1614 -0.0189 -0.0419
 2092DOPC   C3B24549  23.447  33.085  12.421  0.0924  0.2551  0.1905
 2092DOPC   C4B24550  23.782  33.108  12.733  0.1014 -0.1527 -0.2093
 2093DOPS   CNO24551  20.464  28.956  13.942  0.5252 -0.1747 -0.1670
 2093DOPS   PO424552  20.592  28.787  13.663 -0.0378  0.0371 -0.0208
 2093DOPS   GL124553  20.164  28.723  13.442  0.0271  0.1683  0.3936
 2093DOPS   GL224554  20.102  28.518  13.461  0.0015 -0.1363  0.1358
 2093DOPS   C1A24555  19.932  28.866  13.102  0.1415  0.2103 -0.0334
 2093DOPS   D2A24556  19.731  28.891  12.734 -0.1254 -0.1683 -0.1365
 2093DOPS   C3A24557  19.765  28.642  12.356 -0.2833 -0.2464 -0.0053
 2093DOPS   C4A24558  20.046  28.405  12.047  0.0586 -0.2525 -0.0864
 2093DOPS   C1B24559  19.948  28.284  13.131 -0.1323  0.0254 -0.2576
 2093DOPS   D2B24560  19.705  28.243  12.735  0.0619  0.0953 -0.0456
 2093DOPS   C3B24561  20.119  28.485  12.644  0.0076 -0.2914 -0.2909
 2093DOPS   C4B24562  20.270  28.766  12.366  0.2059  0.2843 -0.0294
 2094DOPC   NC324563  18.957  26.995  14.161 -0.0079  0.0511 -0.2225
 2094DOPC   PO424564  18.996  26.907  13.794  0.2945  0.2997 -0.0112
 2094DOPC   GL124565  19.248  27.059  13.457  0.0288  0.0934  0.3792
 2094DOPC   GL224566  19.175  27.356  13.521  0.0025  0.2265  0.3302
 2094DOPC   C1A24567  19.125  27.247  13.051 -0.0165  0.0943  0.1444
 2094DOPC   D2A24568  19.240  27.210  12.578 -0.2031  0.2155 -0.1358
 2094DOPC   C3A24569  18.969  27.466  12.309  0.1122 -0.0433  0.0017
 2094DOPC   C4A24570  18.605  27.774  12.342  0.1184  0.1142  0.1486
 2094DOPC   C1B24571  19.070  27.694  13.185  0.2037 -0.1340  0.3820
 2094DOPC   D2B24572  19.029  27.680  12.763  0.2774 -0.1259 -0.0616
 2094DOPC   C3B24573  18.675  27.313  12.765  0.1370  0.1821  0.1487
 2094DOPC   C4B24574  18.544  26.873  12.775  0.2501  0.2190 -0.1775
 2095DOPS   CNO24575  20.658  31.582  13.670 -0.2290 -0.1602  0.1081
 2095DOPS   PO424576  20.293  31.445  13.711  0.0106 -0.1330  0.1011
 2095DOPS   GL124577  20.078  31.556  13.429  0.1077  0.0552 -0.0454
 2095DOPS   GL224578  20.095  31.364  13.241 -0.0810 -0.0752  0.0914
 2095DOPS   C1A24579  19.662  31.610  13.266 -0.1717 -0.1028  0.2857
 2095DOPS   D2A24580  19.399  31.825  12.961 -0.1110  0.4590  0.1818
 2095DOPS   C3A24581  19.300  32.277  12.906 -0.3294 -0.2404  0.1414
 2095DOPS   C4A24582  19.287  32.535  12.527 -0.0588 -0.0509 -0.0541
 2095DOPS   C1B24583  19.723  31.218  12.947 -0.1596 -0.0386  0.2759
 2095DOPS   D2B24584  19.357  31.235  12.766 -0.2528  0.0525  0.1978
 2095DOPS   C3B24585  19.371  31.577  12.480 -0.0025  0.0252  0.1235
 2095DOPS   C4B24586  19.654  31.713  12.132  0.2102 -0.2322  0.0581
 2096POSM   NC324587  22.982  25.258  12.572  0.2626  0.1404 -0.0693
 2096POSM   PO424588  22.675  25.011  12.710 -0.1586 -0.0088 -0.3342
 2096POSM   AM124589  22.677  24.912  12.393  0.1931  0.1974  0.1842
 2096POSM   AM224590  22.725  25.065  12.176 -0.1664  0.3022  0.2663
 2096POSM   T1A24591  22.546  24.666  11.968 -0.1443  0.1424  0.0300
 2096POSM   C2A24592  22.412  24.373  11.601 -0.1967 -0.2290  0.1554
 2096POSM   C3A24593  22.213  24.025  11.388  0.0343 -0.0966 -0.2170
 2096POSM   C1B24594  22.969  24.934  11.968 -0.0453  0.0410  0.1314
 2096POSM   D2B24595  23.243  24.916  11.589 -0.0319  0.0164  0.2020
 2096POSM   C3B24596  23.203  24.802  11.122  0.3747 -0.0794  0.1443
 2096POSM   C4B24597  23.235  24.533  10.704 -0.2007  0.2219 -0.1375
 2097DOPS   CNO24598  17.138  29.372  15.048 -0.1086 -0.5451  0.0088
 2097DOPS   PO424599  17.375  29.104  14.926 -0.1154 -0.0712  0.1622
 2097DOPS   GL124600  17.081  29.006  14.662 -0.0818  0.0027 -0.2364
 2097DOPS   GL224601  17.045  29.266  14.496 -0.1327  0.1570  0.0269
 2097DOPS   C1A24602  16.864  28.748  14.315  0.1253 -0.3220 -0.1672
 2097DOPS   D2A24603  16.562  28.829  13.976  0.1377  0.1076 -0.1846
 2097DOPS   C3A24604  16.581  28.543  13.580  0.2964 -0.2127  0.2744
 2097DOPS   C4A24605  16.546  28.735  13.144  0.0850 -0.2705  0.0588
 2097DOPS   C1B24606  17.210  29.026  14.173 -0.4368 -0.0075 -0.2050
 2097DOPS   D2B24607  17.351  28.607  14.189 -0.1239 -0.3259 -0.0369
 2097DOPS   C3B24608  17.578  28.310  13.926  0.3668 -0.0236 -0.0139
 2097DOPS   C4B24609  17.859  28.062  13.686 -0.2167  0.3032  0.3726
 2098DOPS   CNO24610  12.749  26.963  15.351 -0.0255  0.0917  0.2345
 2098DOPS   PO424611  12.534  27.170  15.108 -0.1475 -0.1081  0.0237
 2098DOPS   GL124612  12.205  27.349  14.801 -0.3835 -0.3677 -0.0238
 2098DOPS   GL224613  12.291  27.641  14.766 -0.0192 -0.3455  0.1714
 2098DOPS   C1A24614  12.088  27.052  14.485 -0.0366 -0.0596  0.2177
 2098DOPS   D2A24615  12.203  26.829  14.040 -0.2393 -0.0652  0.2573
 2098DOPS   C3A24616  11.905  26.643  13.716 -0.1679  0.0960  0.0444
 2098DOPS   C4A24617  11.444  26.612  13.711 -0.2612  0.0390 -0.0927
 2098DOPS   C1B24618  11.888  27.509  14.515 -0.0704 -0.1573 -0.1800
 2098DOPS   D2B24619  11.561  27.532  14.171 -0.0766 -0.0502  0.2218
 2098DOPS   C3B24620  11.674  27.561  13.756 -0.0174  0.5475  0.3261
 2098DOPS   C4B24621  11.419  27.567  13.357  0.1177  0.1969 -0.1709
 2099DOPE   NH324622  15.124  27.199  14.313 -0.2789 -0.1076  0.3948
 2099DOPE   PO424623  15.394  27.010  14.312  0.2168  0.1375  0.1518
 2099DOPE   GL124624  15.422  26.949  13.944 -0.0904  0.0132 -0.1315
 2099DOPE   GL224625  15.141  26.982  13.845  0.0327  0.1215  0.3863
 2099DOPE   C1A24626  15.407  26.873  13.484 -0.0872  0.0773  0.1936
 2099DOPE   D2A24627  15.199  26.983  13.067 -0.2906  0.0623  0.1773
 2099DOPE   C3A24628  15.367  27.019  12.593  0.0830 -0.0515  0.1474
 2099DOPE   C4A24629  15.150  27.102  12.171 -0.3747 -0.3188  0.0721
 2099DOPE   C1B24630  14.986  27.221  13.478  0.2964 -0.1624  0.1740
 2099DOPE   D2B24631  14.736  27.173  13.063  0.1072  0.2326  0.0774
 2099DOPE   C3B24632  14.881  27.312  12.695 -0.0621  0.2493 -0.1905
 2099DOPE   C4B24633  15.184  27.583  12.498 -0.1235  0.0426 -0.0594
 2100DOPE   NH324634  20.692  23.337  12.256 -0.1625 -0.1852  0.2954
 2100DOPE   PO424635  20.439  23.149  12.165 -0.3065  0.2962 -0.2586
 2100DOPE   GL124636  20.344  23.455  11.793 -0.3042  0.1300 -0.2017
 2100DOPE   GL224637  20.389  23.147  11.625  0.1056 -0.4102 -0.0872
 2100DOPE   C1A24638  20.157  23.441  11.329  0.4072  0.0737  0.1213
 2100DOPE   D2A24639  20.229  23.458  10.866  0.0804 -0.0058  0.2739
 2100DOPE   C3A24640  19.960  23.682  10.607  0.0429  0.2107  0.2171
 2100DOPE   C4A24641  19.696  23.914  10.368  0.1662  0.2412  0.4719
 2100DOPE   C1B24642  20.487  22.990  11.202  0.3711 -0.1466 -0.1488
 2100DOPE   D2B24643  20.482  22.676  10.875 -0.0967 -0.0641 -0.0816
 2100DOPE   C3B24644  20.903  22.473  10.820  0.0011 -0.1068  0.1529
 2100DOPE   C4B24645  21.350  22.619  10.827  0.1008  0.0395 -0.1036
 2101DOPE   NH324646  20.808   0.620  13.834 -0.0667 -0.1323 -0.1336
 2101DOPE   PO424647  20.586   0.575  13.612 -0.1593 -0.0218 -0.0219
 2101DOPE   GL124648  20.426   0.609  13.265  0.1288  0.1951 -0.2124
 2101DOPE   GL224649  20.355   0.957  13.192  0.1822 -0.3148  0.2604
 2101DOPE   C1A24650  20.256   0.608  12.851  0.4884  0.0222 -0.3600
 2101DOPE   D2A24651  20.176   0.564  12.398 -0.1315  0.0068 -0.1935
 2101DOPE   C3A24652  19.843   0.800  12.261  0.1643 -0.1232 -0.0991
 2101DOPE   C4A24653  19.457   1.068  12.145  0.2943  0.1940  0.1886
 2101DOPE   C1B24654  20.506   1.232  12.845  0.0159 -0.2418  0.1666
 2101DOPE   D2B24655  20.630   1.343  12.422 -0.0436 -0.0157  0.0368
 2101DOPE   C3B24656  20.345   1.068  12.210 -0.3774  0.0899 -0.3719
 2101DOPE   C4B24657  20.044   1.115  11.885 -0.1042 -0.0472  0.2273
 2102DOPC   NC324658  18.506  28.880  14.615  0.2405  0.0907  0.2701
 2102DOPC   PO424659  18.652  28.970  14.248  0.0553  0.2027  0.2527
 2102DOPC   GL124660  18.424  28.798  14.001 -0.1904 -0.0767 -0.0682
 2102DOPC   GL224661  18.254  28.657  14.172  0.0930  0.0528 -0.2006
 2102DOPC   C1A24662  18.137  29.073  13.728 -0.0873 -0.0720 -0.4985
 2102DOPC   D2A24663  17.732  29.267  13.548 -0.3864 -0.0921 -0.4246
 2102DOPC   C3A24664  17.583  28.934  13.248  0.2964  0.0329 -0.0637
 2102DOPC   C4A24665  17.513  28.884  12.794 -0.2265  0.0443 -0.0054
 2102DOPC   C1B24666  17.845  28.836  14.139 -0.4380  0.0177  0.4190
 2102DOPC   D2B24667  17.537  28.849  13.782  0.1267 -0.0884  0.2828
 2102DOPC   C3B24668  17.517  28.475  13.476  0.0540 -0.1650 -0.1096
 2102DOPC   C4B24669  17.476  28.041  13.306 -0.3223  0.0368  0.0806
 2103DOPC   NC324670  23.306  28.467  12.111 -0.1260  0.1954 -0.1925
 2103DOPC   PO424671  23.586  28.543  12.325  0.2588 -0.0028  0.0251
 2103DOPC   GL124672  23.865  28.620  12.066 -0.2200  0.1911  0.1691
 2103DOPC   GL224673  23.789  28.838  11.920  0.0483  0.1238 -0.1019
 2103DOPC   C1A24674  24.100  28.549  11.671 -0.3756  0.1266 -0.0412
 2103DOPC   D2A24675  24.445  28.613  11.418 -0.0695 -0.2100  0.1941
 2103DOPC   C3A24676  24.631  28.756  11.007 -0.0416  0.2667  0.3643
 2103DOPC   C4A24677  24.733  29.098  10.696  0.2016  0.0074  0.1639
 2103DOPC   C1B24678  23.487  29.060  11.701  0.1122 -0.0850  0.0090
 2103DOPC   D2B24679  23.315  29.114  11.190  0.0320 -0.3959 -0.3563
 2103DOPC   C3B24680  23.063  29.439  10.945  0.0273 -0.2201  0.2099
 2103DOPC   C4B24681  23.241  29.884  10.816  0.0241  0.1341 -0.3034
 2104POSM   NC324682  15.274  29.357  15.581 -0.1241  0.0075 -0.1945
 2104POSM   PO424683  15.056  29.287  15.256  0.1462 -0.2015  0.2009
 2104POSM   AM124684  15.167  29.329  14.930  0.2483 -0.1751 -0.0562
 2104POSM   AM224685  15.252  29.564  14.769 -0.0143  0.0416 -0.4104
 2104POSM   T1A24686  15.115  29.221  14.432 -0.2260  0.2111 -0.0648
 2104POSM   C2A24687  15.135  29.397  14.011  0.2085  0.0216 -0.2250
 2104POSM   C3A24688  15.134  29.638  13.666 -0.0459 -0.1350  0.1239
 2104POSM   C1B24689  15.522  29.419  14.584  0.1417 -0.1666 -0.1013
 2104POSM   D2B24690  15.819  29.238  14.317 -0.0790 -0.1555  0.2333
 2104POSM   C3B24691  15.609  29.177  13.914  0.0750  0.0473 -0.0881
 2104POSM   C4B24692  15.725  29.052  13.495 -0.0537  0.1878 -0.1427
 2105POSM   NC324693  15.120  30.721  15.038 -0.2776 -0.1525 -0.1503
 2105POSM   PO424694  15.464  30.520  15.070 -0.1712  0.0177 -0.2806
 2105POSM   AM124695  15.465  30.580  14.765  0.0425  0.1031 -0.2064
 2105POSM   AM224696  15.580  30.464  14.538  0.1060  0.2170  0.1559
 2105POSM   T1A24697  15.320  30.819  14.352 -0.1183 -0.1596  0.2061
 2105POSM   C2A24698  15.277  30.890  13.908  0.2138 -0.0078 -0.1159
 2105POSM   C3A24699  15.215  31.005  13.477  0.2346  0.2274  0.1352
 2105POSM   C1B24700  15.633  30.237  14.293  0.1565  0.0924  0.2728
 2105POSM   D2B24701  15.847  30.232  13.956  0.1383 -0.1476  0.1006
 2105POSM   C3B24702  16.088  29.886  13.871 -0.0830  0.1931 -0.0051
 2105POSM   C4B24703  16.191  29.408  13.780  0.3081  0.1148  0.0377
 2106DOPE   NH324704  14.124  26.213  14.326 -0.1033 -0.0424  0.4023
 2106DOPE   PO424705  14.376  26.122  14.163  0.4339 -0.1361  0.0582
 2106DOPE   GL124706  14.269  26.160  13.804 -0.5847  0.3005  0.1369
 2106DOPE   GL224707  14.078  26.363  13.706 -0.3931  0.1938  0.0446
 2106DOPE   C1A24708  14.134  25.950  13.453  0.0892  0.1384 -0.1407
 2106DOPE   D2A24709  14.087  25.974  13.040 -0.3329 -0.1880  0.3712
 2106DOPE   C3A24710  14.422  26.144  12.793 -0.1997 -0.1241 -0.0381
 2106DOPE   C4A24711  14.650  26.406  12.483  0.1376  0.0869  0.2992
 2106DOPE   C1B24712  13.965  26.815  13.759  0.0928  0.3782 -0.1650
 2106DOPE   D2B24713  13.875  27.070  13.458 -0.2984 -0.2060  0.0388
 2106DOPE   C3B24714  13.550  27.348  13.287  0.1252  0.0451  0.0508
 2106DOPE   C4B24715  13.136  27.376  12.998  0.1080  0.2855 -0.0737
 2107DOPE   NH324716  14.903  26.601  14.076 -0.2699  0.1976  0.0597
 2107DOPE   PO424717  14.749  26.840  14.232 -0.0159 -0.2000  0.0910
 2107DOPE   GL124718  14.717  26.957  13.793  0.0322  0.3235  0.1203
 2107DOPE   GL224719  14.773  26.720  13.598 -0.1117 -0.2746  0.0554
 2107DOPE   C1A24720  14.406  27.026  13.433 -0.0302 -0.0247  0.3881
 2107DOPE   D2A24721  14.212  26.985  12.986 -0.0520  0.1081 -0.0273
 2107DOPE   C3A24722  14.338  27.155  12.574 -0.3084  0.0439 -0.3681
 2107DOPE   C4A24723  14.053  27.200  12.202 -0.0689 -0.0225 -0.3511
 2107DOPE   C1B24724  15.016  26.544  13.276 -0.1964  0.0131 -0.0919
 2107DOPE   D2B24725  15.384  26.530  13.009 -0.2622  0.0514  0.1355
 2107DOPE   C3B24726  15.514  26.291  12.627  0.1456 -0.0609 -0.0641
 2107DOPE   C4B24727  15.834  26.187  12.336  0.1391 -0.3420 -0.0131
 2108DOPE   NH324728  18.056  34.324  14.560  0.2868 -0.2591  0.3006
 2108DOPE   PO424729  18.050  34.007  14.650 -0.1070 -0.4958 -0.1419
 2108DOPE   GL124730  17.817  33.983  14.327 -0.2849  0.1965 -0.1957
 2108DOPE   GL224731  17.788  33.703  14.335  0.3382 -0.0540 -0.3506
 2108DOPE   C1A24732  17.507  34.218  14.003 -0.1572  0.0118  0.0200
 2108DOPE   D2A24733  17.567  34.274  13.547  0.5126  0.2239  0.0099
 2108DOPE   C3A24734  17.534  34.598  13.273 -0.2052  0.2311 -0.1080
 2108DOPE   C4A24735  17.601  34.766  12.843 -0.1195 -0.3610 -0.2689
 2108DOPE   C1B24736  17.600  33.651  13.927  0.0300  0.0215  0.1372
 2108DOPE   D2B24737  17.502  33.653  13.490 -0.0063  0.1835 -0.2535
 2108DOPE   C3B24738  17.708  33.904  13.217  0.0730  0.2083  0.1141
 2108DOPE   C4B24739  17.939  33.882  12.843 -0.3712  0.0763 -0.1522
 2109DOPC   NC324740  12.777  26.089  13.947  0.2280  0.2259 -0.1237
 2109DOPC   PO424741  12.638  26.217  14.304  0.2558 -0.1300 -0.1196
 2109DOPC   GL124742  12.488  26.491  13.968 -0.1045  0.4178 -0.3924
 2109DOPC   GL224743  12.319  26.337  13.812 -0.2581  0.0327  0.2336
 2109DOPC   C1A24744  12.529  26.694  13.550  0.4860  0.2381 -0.2771
 2109DOPC   D2A24745  12.487  26.728  13.060  0.2267  0.0752 -0.0308
 2109DOPC   C3A24746  12.647  26.300  12.983  0.4780 -0.0693  0.1408
 2109DOPC   C4A24747  12.959  25.976  12.825 -0.1727 -0.6680 -0.1070
 2109DOPC   C1B24748  12.258  26.256  13.352 -0.1693  0.1934 -0.2945
 2109DOPC   D2B24749  12.069  26.381  12.976 -0.4437 -0.0272 -0.2762
 2109DOPC   C3B24750  12.328  26.363  12.594  0.1348  0.1129 -0.0264
 2109DOPC   C4B24751  12.743  26.193  12.372  0.0948  0.0993  0.2300
 2110DOPC   NC324752  14.087  31.030  15.527  0.0265  0.1594 -0.1332
 2110DOPC   PO424753  13.842  30.974  15.823 -0.1377  0.1176 -0.2260
 2110DOPC   GL124754  13.669  31.302  15.658  0.2919  0.1250  0.0459
 2110DOPC   GL224755  13.533  31.259  15.377 -0.0741  0.1910  0.1511
 2110DOPC   C1A24756  13.933  31.489  15.280  0.1431 -0.1146 -0.2864
 2110DOPC   D2A24757  14.207  31.598  14.940 -0.0959 -0.0588 -0.0134
 2110DOPC   C3A24758  13.870  31.780  14.660 -0.0664 -0.1948 -0.0230
 2110DOPC   C4A24759  13.682  31.880  14.216 -0.2293 -0.1232 -0.0123
 2110DOPC   C1B24760  13.685  31.220  14.956 -0.1230  0.1484 -0.0272
 2110DOPC   D2B24761  13.948  31.072  14.584  0.2185 -0.0032 -0.2459
 2110DOPC   C3B24762  13.848  30.827  14.176 -0.0578 -0.1993  0.0687
 2110DOPC   C4B24763  13.622  30.498  13.888 -0.2886  0.4362 -0.3119
 2111POSM   NC324764  17.735  25.008  14.376 -0.1138 -0.0505 -0.1272
 2111POSM   PO424765  17.734  25.004  13.986  0.0950 -0.3489 -0.2251
 2111POSM   AM124766  17.556  25.217  13.793 -0.0872  0.0301  0.0194
 2111POSM   AM224767  17.430  25.232  13.480  0.3946 -0.2775 -0.1248
 2111POSM   T1A24768  17.093  25.489  13.741  0.1081  0.0763  0.2103
 2111POSM   C2A24769  16.827  25.877  13.621 -0.1548  0.3652  0.1634
 2111POSM   C3A24770  16.494  26.117  13.496  0.2006 -0.1024 -0.2621
 2111POSM   C1B24771  17.322  25.252  13.179  0.0323  0.3316  0.3537
 2111POSM   D2B24772  17.230  25.305  12.718 -0.0732 -0.3063  0.1158
 2111POSM   C3B24773  16.985  25.324  12.316 -0.0859  0.0327 -0.0021
 2111POSM   C4B24774  16.562  25.492  12.234 -0.1608 -0.1569  0.3127
 2112DOPC   NC324775  14.095  33.833  15.580  0.1396  0.4411 -0.0357
 2112DOPC   PO424776  13.893  34.040  15.842 -0.0501  0.1115  0.0990
 2112DOPC   GL124777  13.878  34.208  15.398  0.0028 -0.1440 -0.4328
 2112DOPC   GL224778  14.167  34.329  15.368 -0.2752 -0.3285  0.0485
 2112DOPC   C1A24779  13.743  33.857  15.133 -0.0867  0.1593  0.1278
 2112DOPC   D2A24780  13.430  33.733  14.813  0.2955 -0.2943  0.3634
 2112DOPC   C3A24781  12.989  33.952  14.894  0.1889  0.0611 -0.0487
 2112DOPC   C4A24782  12.665  33.913  15.179  0.0260 -0.4689 -0.0739
 2112DOPC   C1B24783  14.187  34.228  14.916 -0.0710 -0.4003 -0.0187
 2112DOPC   D2B24784  14.101  34.337  14.482 -0.0129 -0.1780  0.2312
 2112DOPC   C3B24785  14.060  34.722  14.175  0.1805  0.0037 -0.0191
 2112DOPC   C4B24786  13.978  35.079  14.004  0.3402  0.2339  0.1179
 2113DOPE   NH324787  21.145  25.633  12.952  0.0087 -0.1326 -0.1203
 2113DOPE   PO424788  20.849  25.474  12.946 -0.0409 -0.1025 -0.1429
 2113DOPE   GL124789  20.845  25.570  12.560 -0.1580 -0.0914  0.1899
 2113DOPE   GL224790  20.893  25.804  12.538  0.0103 -0.1804  0.2770
 2113DOPE   C1A24791  20.779  25.470  12.116 -0.0048  0.4308 -0.0450
 2113DOPE   D2A24792  20.925  25.183  11.784 -0.0301 -0.0369 -0.1370
 2113DOPE   C3A24793  20.719  24.825  11.526  0.0019  0.0936 -0.0510
 2113DOPE   C4A24794  20.514  24.811  11.092 -0.2239  0.0090 -0.1285
 2113DOPE   C1B24795  20.612  25.945  12.199 -0.0781  0.3606 -0.0603
 2113DOPE   D2B24796  20.516  26.208  11.860  0.0494  0.2613  0.1479
 2113DOPE   C3B24797  20.726  26.499  11.560 -0.0990 -0.1310 -0.1879
 2113DOPE   C4B24798  21.171  26.449  11.346  0.2975 -0.0794 -0.0091
 2114DOPC   NC324799  14.522  29.189  15.164 -0.1171  0.3373 -0.0936
 2114DOPC   PO424800  14.396  28.946  14.887 -0.0285 -0.0303 -0.0695
 2114DOPC   GL124801  14.476  29.288  14.726 -0.3223 -0.0093  0.2469
 2114DOPC   GL224802  14.731  29.346  14.708 -0.0929 -0.0699  0.0675
 2114DOPC   C1A24803  14.423  29.359  14.282  0.0251 -0.1106 -0.0505
 2114DOPC   D2A24804  14.596  29.522  13.907  0.5447 -0.1748  0.1569
 2114DOPC   C3A24805  14.817  29.236  13.629 -0.0952 -0.2291 -0.0877
 2114DOPC   C4A24806  15.232  29.050  13.497  0.2131 -0.1617 -0.0181
 2114DOPC   C1B24807  14.853  29.681  14.431 -0.0738  0.2855  0.0052
 2114DOPC   D2B24808  15.163  29.989  14.314 -0.1476 -0.2638  0.2063
 2114DOPC   C3B24809  15.331  30.089  13.905 -0.0381  0.4138  0.0336
 2114DOPC   C4B24810  15.375  30.053  13.473  0.0617  0.1133 -0.0125
 2115DOPE   NH324811  12.874  33.389  15.788 -0.0532  0.4757  0.0635
 2115DOPE   PO424812  12.574  33.240  15.813 -0.3260 -0.0363 -0.0456
 2115DOPE   GL124813  12.463  33.254  15.501 -0.2062  0.0670  0.2382
 2115DOPE   GL224814  12.603  33.437  15.304  0.0920  0.1417 -0.2028
 2115DOPE   C1A24815  12.148  33.127  15.171 -0.0664  0.0953 -0.0288
 2115DOPE   D2A24816  11.723  32.895  15.064 -0.0912 -0.1140 -0.2295
 2115DOPE   C3A24817  11.652  32.408  15.061 -0.1113 -0.1518  0.1038
 2115DOPE   C4A24818  11.492  32.008  15.176 -0.0923 -0.1269 -0.4181
 2115DOPE   C1B24819  12.720  33.089  15.037 -0.1409 -0.2052 -0.0088
 2115DOPE   D2B24820  12.928  32.923  14.606  0.4202 -0.1875  0.0124
 2115DOPE   C3B24821  12.718  32.504  14.574 -0.0313  0.0634 -0.1166
 2115DOPE   C4B24822  12.724  32.036  14.533 -0.1657  0.2073  0.1017
 2116DOPE   NH324823  22.924  24.002  12.397  0.0421  0.1170 -0.0360
 2116DOPE   PO424824  22.661  23.781  12.472  0.1535  0.2802  0.0732
 2116DOPE   GL124825  22.521  23.648  12.169 -0.2443  0.0371  0.2189
 2116DOPE   GL224826  22.801  23.579  12.007 -0.1831  0.2221 -0.0701
 2116DOPE   C1A24827  22.234  23.643  11.809  0.2537  0.1268  0.0233
 2116DOPE   D2A24828  22.253  23.524  11.386 -0.0542 -0.1288  0.1058
 2116DOPE   C3A24829  22.488  23.561  10.996 -0.0570  0.0580  0.3671
 2116DOPE   C4A24830  22.868  23.749  10.790  0.2393 -0.0018 -0.2394
 2116DOPE   C1B24831  22.678  23.901  11.759  0.1014  0.2722  0.1634
 2116DOPE   D2B24832  22.856  24.256  11.678  0.0793  0.0463  0.1340
 2116DOPE   C3B24833  22.801  24.724  11.501  0.1564 -0.1309 -0.0732
 2116DOPE   C4B24834  22.879  25.110  11.328  0.0185 -0.1751 -0.0069
 2117DOPC   NC324835  15.021  25.996  13.752 -0.1038 -0.1308 -0.1777
 2117DOPC   PO424836  14.709  26.235  13.819 -0.0352 -0.2826  0.2596
 2117DOPC   GL124837  14.481  26.300  13.459 -0.2297 -0.2231 -0.2271
 2117DOPC   GL224838  14.557  26.094  13.285  0.0959  0.3919 -0.0382
 2117DOPC   C1A24839  14.554  26.629  13.124  0.0314  0.0878  0.2722
 2117DOPC   D2A24840  14.824  26.768  12.817 -0.3558 -0.3904  0.0792
 2117DOPC   C3A24841  15.106  26.607  12.452  0.0956  0.5166 -0.3047
 2117DOPC   C4A24842  15.432  26.534  12.222 -0.1613  0.0979  0.0753
 2117DOPC   C1B24843  14.790  25.756  12.981  0.2124  0.1172  0.0969
 2117DOPC   D2B24844  14.924  25.481  12.623  0.0373 -0.0452 -0.2484
 2117DOPC   C3B24845  14.613  25.273  12.311 -0.1405  0.2303 -0.3088
 2117DOPC   C4B24846  14.496  24.929  12.046  0.0912  0.2050 -0.0768
 2118DOPC   NC324847  16.160  28.353  15.110  0.2772  0.0312  0.2839
 2118DOPC   PO424848  16.380  28.033  14.944 -0.1225 -0.0905  0.2470
 2118DOPC   GL124849  16.307  28.115  14.575  0.0343  0.1666  0.2437
 2118DOPC   GL224850  16.461  28.127  14.341  0.1214  0.0014  0.0468
 2118DOPC   C1A24851  16.008  27.995  14.190 -0.3426 -0.0190 -0.0406
 2118DOPC   D2A24852  15.671  28.198  13.925 -0.2101  0.2893 -0.0691
 2118DOPC   C3A24853  15.813  28.194  13.533  0.1849  0.0567 -0.0343
 2118DOPC   C4A24854  16.005  28.417  13.124 -0.0091 -0.2524 -0.0499
 2118DOPC   C1B24855  16.729  28.341  14.048  0.0564  0.3577 -0.0463
 2118DOPC   D2B24856  17.013  28.674  13.817  0.1442 -0.1567  0.1745
 2118DOPC   C3B24857  17.110  28.762  13.331 -0.0217 -0.5219 -0.1018
 2118DOPC   C4B24858  17.081  29.119  12.956  0.0720 -0.0274  0.1340
 2119DOPC   NC324859  21.944   0.524  13.619 -0.0494 -0.0543  0.0953
 2119DOPC   PO424860  21.921   0.159  13.667  0.2037 -0.0635 -0.0579
 2119DOPC   GL124861  21.827  -0.008  13.279  0.1363 -0.0861  0.1189
 2119DOPC   GL224862  21.938   0.109  13.115  0.2669 -0.0431 -0.1380
 2119DOPC   C1A24863  21.835  -0.326  12.940 -0.0908  0.2372  0.0764
 2119DOPC   D2A24864  22.012  -0.617  12.666 -0.0299  0.2611 -0.1170
 2119DOPC   C3A24865  21.650  -0.756  12.290 -0.2422  0.1031 -0.1905
 2119DOPC   C4A24866  21.583  -1.165  12.183  0.1508  0.0193  0.0504
 2119DOPC   C1B24867  22.032   0.080  12.651  0.1095  0.1655 -0.1792
 2119DOPC   D2B24868  22.273   0.172  12.235 -0.1378  0.0679 -0.1079
 2119DOPC   C3B24869  22.248  -0.160  11.919 -0.0391  0.0054  0.2460
 2119DOPC   C4B24870  22.369  -0.456  11.609  0.0580  0.3429 -0.1910
 2120DOPC   NC324871  11.495  24.117  13.532 -0.0681  0.0561 -0.1646
 2120DOPC   PO424872  11.649  23.773  13.616  0.2489 -0.1139  0.2072
 2120DOPC   GL124873  11.700  23.803  13.241  0.0675 -0.2186 -0.3699
 2120DOPC   GL224874  11.667  24.021  13.075 -0.1046 -0.2738 -0.1690
 2120DOPC   C1A24875  12.040  23.599  12.955  0.0659  0.0520 -0.2814
 2120DOPC   D2A24876  12.087  23.204  12.681  0.1910 -0.1019  0.0772
 2120DOPC   C3A24877  12.213  23.219  12.279  0.2866  0.1677  0.0959
 2120DOPC   C4A24878  12.199  23.294  11.813 -0.0736  0.3419  0.1425
 2120DOPC   C1B24879  11.449  24.036  12.666  0.3179 -0.1040  0.0337
 2120DOPC   D2B24880  11.477  24.378  12.361  0.3167  0.1914 -0.4164
 2120DOPC   C3B24881  11.187  24.153  12.077  0.0739 -0.0177 -0.0569
 2120DOPC   C4B24882  11.148  23.710  11.846  0.0384 -0.0789 -0.2898
 2121DOPC   NC324883  17.278  26.246  14.257  0.2771 -0.0929 -0.1169
 2121DOPC   PO424884  17.522  26.601  14.182 -0.0336  0.3692  0.1091
 2121DOPC   GL124885  17.597  26.664  13.788  0.0114 -0.1101  0.1090
 2121DOPC   GL224886  17.618  26.467  13.620  0.1089 -0.1330  0.2266
 2121DOPC   C1A24887  17.738  26.958  13.464  0.3165 -0.0814 -0.3939
 2121DOPC   D2A24888  18.143  27.164  13.403 -0.2659 -0.1801  0.0639
 2121DOPC   C3A24889  18.052  27.509  13.127  0.2813 -0.3177 -0.0784
 2121DOPC   C4A24890  17.907  27.832  12.846 -0.1416 -0.2663  0.0738
 2121DOPC   C1B24891  17.736  26.458  13.197 -0.0147  0.0572 -0.4814
 2121DOPC   D2B24892  18.041  26.549  12.848 -0.0811 -0.0976 -0.1960
 2121DOPC   C3B24893  18.003  26.754  12.461 -0.0706 -0.1288 -0.2149
 2121DOPC   C4B24894  17.627  26.824  12.149 -0.1562  0.2085 -0.0356
 2122DOPE   NH324895  21.920  30.871  13.101  0.0337 -0.2131 -0.1382
 2122DOPE   PO424896  22.215  31.021  13.111 -0.3203 -0.0421 -0.2637
 2122DOPE   GL124897  22.249  31.098  12.737 -0.2786  0.0218  0.2577
 2122DOPE   GL224898  22.381  30.841  12.649 -0.1081  0.1104 -0.3577
 2122DOPE   C1A24899  22.541  31.392  12.481 -0.0804 -0.1619 -0.3439
 2122DOPE   D2A24900  22.731  31.381  12.054 -0.1006 -0.4507 -0.0189
 2122DOPE   C3A24901  23.135  31.323  11.869  0.0697 -0.0403  0.0819
 2122DOPE   C4A24902  23.345  31.331  11.444  0.0959 -0.0130 -0.0945
 2122DOPE   C1B24903  21.940  31.067  12.479  0.2300  0.0243  0.3692
 2122DOPE   D2B24904  21.711  31.058  12.066  0.2550 -0.0011 -0.0214
 2122DOPE   C3B24905  21.661  30.805  11.630  0.1971  0.2811 -0.2881
 2122DOPE   C4B24906  21.233  30.588  11.430 -0.3302  0.1249  0.2258
 2123DOPE   NH324907  21.367  29.436  13.134 -0.2253 -0.2774 -0.0329
 2123DOPE   PO424908  21.203  29.662  13.149  0.0365 -0.3999 -0.2169
 2123DOPE   GL124909  21.130  29.738  12.806 -0.0774  0.2380 -0.0699
 2123DOPE   GL224910  20.946  29.490  12.755 -0.0030 -0.4800  0.0151
 2123DOPE   C1A24911  21.098  30.011  12.418  0.1346 -0.0204 -0.0663
 2123DOPE   D2A24912  21.145  30.474  12.224 -0.3132  0.3424 -0.2197
 2123DOPE   C3A24913  20.965  30.459  11.812  0.0910 -0.2836  0.1187
 2123DOPE   C4A24914  20.650  30.437  11.472 -0.3752 -0.6534  0.1923
 2123DOPE   C1B24915  20.901  29.527  12.265  0.0691 -0.3465  0.0126
 2123DOPE   D2B24916  21.010  29.674  11.822  0.0872 -0.1361 -0.0124
 2123DOPE   C3B24917  21.023  29.399  11.437  0.1600  0.2895  0.1897
 2123DOPE   C4B24918  21.322  29.266  11.100  0.0863  0.1801 -0.2080
 2124POSM   NC324919  17.501  31.632  15.072 -0.1466  0.0684 -0.2303
 2124POSM   PO424920  17.767  31.908  14.938  0.1922 -0.0556 -0.3571
 2124POSM   AM124921  17.863  32.019  14.651 -0.1180  0.1403  0.0565
 2124POSM   AM224922  17.840  31.876  14.384  0.0973 -0.0072 -0.2767
 2124POSM   T1A24923  17.861  32.346  14.274 -0.0333 -0.0671 -0.3512
 2124POSM   C2A24924  17.860  32.483  13.825 -0.3483  0.0182 -0.1504
 2124POSM   C3A24925  17.567  32.575  13.533 -0.0577 -0.1351 -0.0712
 2124POSM   C1B24926  17.819  31.870  14.033 -0.2470  0.0951 -0.1970
 2124POSM   D2B24927  17.649  32.079  13.661  0.3314 -0.0069  0.2461
 2124POSM   C3B24928  17.578  31.927  13.203 -0.1855 -0.1122  0.0220
 2124POSM   C4B24929  17.617  31.703  12.807  0.2561  0.1696  0.0848
 2125DOPC   NC324930  19.010  22.595  12.192  0.1981 -0.5799 -0.3304
 2125DOPC   PO424931  19.404  22.484  12.136  0.1708  0.4155  0.1641
 2125DOPC   GL124932  19.320  22.492  11.784  0.0411 -0.0134 -0.0073
 2125DOPC   GL224933  19.492  22.766  11.648  0.5473  0.1486 -0.0839
 2125DOPC   C1A24934  19.166  22.378  11.312 -0.1736 -0.2771  0.3389
 2125DOPC   D2A24935  19.207  22.551  10.892  0.0417 -0.1881 -0.0852
 2125DOPC   C3A24936  19.115  22.321  10.525 -0.0076  0.2064  0.2569
 2125DOPC   C4A24937  18.804  21.999  10.327 -0.0617  0.0034 -0.0166
 2125DOPC   C1B24938  19.560  22.834  11.196 -0.1795 -0.1133 -0.0299
 2125DOPC   D2B24939  19.535  22.959  10.762 -0.2890 -0.1050 -0.0100
 2125DOPC   C3B24940  19.632  22.548  10.509  0.1945 -0.0927  0.1343
 2125DOPC   C4B24941  19.497  22.167  10.303 -0.1581  0.0760 -0.6260
 2126POSM   NC324942  15.828  25.808  14.681 -0.1919 -0.6463 -0.1172
 2126POSM   PO424943  15.785  25.842  14.307  0.1954 -0.0268  0.1228
 2126POSM   AM124944  15.843  25.641  14.071 -0.1434 -0.1671  0.0944
 2126POSM   AM224945  15.636  25.613  13.882  0.1120 -0.1573 -0.3707
 2126POSM   T1A24946  16.053  25.360  13.671  0.2617 -0.0433 -0.0096
 2126POSM   C2A24947  16.409  25.447  13.359 -0.1538 -0.1977  0.0330
 2126POSM   C3A24948  16.851  25.377  13.331 -0.0807  0.1474 -0.3116
 2126POSM   C1B24949  15.514  25.791  13.580  0.1212 -0.0353 -0.0990
 2126POSM   D2B24950  15.558  26.039  13.157  0.3065  0.0922  0.0348
 2126POSM   C3B24951  15.338  25.867  12.767  0.2402  0.1386 -0.2497
 2126POSM   C4B24952  15.484  25.790  12.361 -0.0667  0.1907  0.0209
 2127POSM   NC324953  14.183  33.417  15.967 -0.0410 -0.1026  0.0892
 2127POSM   PO424954  13.929  33.118  15.954 -0.1577  0.0529 -0.1238
 2127POSM   AM124955  14.021  33.102  15.641 -0.5811  0.1318  0.2049
 2127POSM   AM224956  14.044  32.876  15.404 -0.3207  0.3319 -0.3561
 2127POSM   T1A24957  14.091  33.482  15.297 -0.2545 -0.0004 -0.2231
 2127POSM   C2A24958  14.274  33.726  14.930 -0.0071 -0.2065 -0.3886
 2127POSM   C3A24959  14.411  33.861  14.520 -0.1365  0.3116  0.0679
 2127POSM   C1B24960  14.046  33.058  15.103  0.0674 -0.0162  0.3793
 2127POSM   D2B24961  14.162  33.037  14.669 -0.0160 -0.0980 -0.1436
 2127POSM   C3B24962  13.782  33.046  14.349 -0.0475 -0.1269  0.0306
 2127POSM   C4B24963  13.548  32.852  14.079 -0.3457 -0.1634 -0.2206
 2128DOPS   CNO24964  18.373  30.588  14.609 -0.0127 -0.0457 -0.2799
 2128DOPS   PO424965  18.057  30.638  14.435 -0.1382  0.1319  0.0368
 2128DOPS   GL124966  17.822  30.780  14.137  0.1790 -0.0421 -0.0395
 2128DOPS   GL224967  17.744  31.098  14.166  0.1747  0.0724 -0.0221
 2128DOPS   C1A24968  17.448  30.728  13.892  0.0368 -0.0140 -0.1612
 2128DOPS   D2A24969  16.996  30.743  13.791 -0.1851 -0.0087 -0.1022
 2128DOPS   C3A24970  16.755  30.566  13.380 -0.2004 -0.1611  0.3131
 2128DOPS   C4A24971  16.685  30.473  12.967 -0.0189  0.0323  0.0710
 2128DOPS   C1B24972  17.825  31.089  13.698  0.2918  0.0958  0.0697
 2128DOPS   D2B24973  17.698  31.115  13.266 -0.1678  0.0041 -0.0038
 2128DOPS   C3B24974  17.707  30.636  13.093  0.2070  0.1177  0.0364
 2128DOPS   C4B24975  17.580  30.275  12.806 -0.2541  0.1969 -0.0098
 2129DOPC   NC324976  16.476  31.471  14.941  0.0077  0.1415  0.4208
 2129DOPC   PO424977  16.478  31.135  14.788 -0.0546 -0.2633 -0.1199
 2129DOPC   GL124978  16.340  31.240  14.487 -0.1202 -0.0234 -0.2988
 2129DOPC   GL224979  16.207  31.008  14.349  0.2230  0.0764 -0.0765
 2129DOPC   C1A24980  16.369  31.436  14.080 -0.0293  0.1149 -0.0922
 2129DOPC   D2A24981  16.495  31.632  13.710  0.0377 -0.0935  0.3833
 2129DOPC   C3A24982  16.768  31.439  13.414  0.3598  0.3351 -0.0476
 2129DOPC   C4A24983  16.891  31.053  13.242 -0.0056  0.0957  0.0802
 2129DOPC   C1B24984  15.781  31.178  14.398 -0.1075  0.3091  0.0703
 2129DOPC   D2B24985  15.386  31.365  14.208 -0.0506 -0.0442  0.3082
 2129DOPC   C3B24986  15.197  31.433  13.807  0.2220 -0.0799  0.1956
 2129DOPC   C4B24987  15.155  31.607  13.429 -0.0139 -0.0043  0.0418
 2130DOPE   NH324988  15.948  30.345  15.026 -0.2822 -0.1640  0.0717
 2130DOPE   PO424989  16.037  30.048  14.949 -0.1098 -0.0336  0.2263
 2130DOPE   GL124990  16.043  30.009  14.584 -0.3537  0.4848 -0.0132
 2130DOPE   GL224991  15.856  29.769  14.567 -0.0631  0.0250 -0.1826
 2130DOPE   C1A24992  16.266  29.601  14.346  0.1584  0.1322  0.0576
 2130DOPE   D2A24993  16.637  29.382  14.274 -0.2501  0.0215  0.7135
 2130DOPE   C3A24994  16.756  29.256  13.827  0.1927 -0.2880 -0.2952
 2130DOPE   C4A24995  16.673  29.163  13.384  0.1098 -0.0917  0.1669
 2130DOPE   C1B24996  15.637  29.734  14.098 -0.0132 -0.2376  0.0925
 2130DOPE   D2B24997  15.653  29.599  13.639  0.3135 -0.0074 -0.0118
 2130DOPE   C3B24998  15.408  29.593  13.242 -0.1898 -0.0912  0.1493
 2130DOPE   C4B24999  15.007  29.365  13.029  0.0132  0.0022  0.2886
 2131DOPE   NH325000  18.085  25.859  13.942  0.0907 -0.2551  0.2588
 2131DOPE   PO425001  18.013  25.976  13.642 -0.0760 -0.0839  0.3444
 2131DOPE   GL125002  17.784  25.978  13.380  0.1119 -0.1140  0.0970
 2131DOPE   GL225003  17.941  25.760  13.198  0.0733  0.2125  0.1403
 2131DOPE   C1A25004  17.564  26.070  12.957  0.0243 -0.1525 -0.3442
 2131DOPE   D2A25005  17.629  26.241  12.586  0.1095 -0.2364  0.0138
 2131DOPE   C3A25006  17.507  26.698  12.608  0.0092 -0.2616  0.0198
 2131DOPE   C4A25007  17.242  27.114  12.642  0.1407  0.0925  0.0623
 2131DOPE   C1B25008  17.693  25.500  12.970  0.1246  0.2096 -0.1835
 2131DOPE   D2B25009  17.599  25.721  12.585 -0.2682 -0.2444 -0.1792
 2131DOPE   C3B25010  17.188  25.814  12.404  0.3548 -0.2839 -0.0466
 2131DOPE   C4B25011  16.983  25.709  12.002 -0.0761  0.1291  0.1834
 2132DOPC   NC325012  19.439  26.623  13.829 -0.2209 -0.1198 -0.1395
 2132DOPC   PO425013  19.761  26.526  13.584 -0.1309 -0.0676  0.0656
 2132DOPC   GL125014  19.612  26.519  13.256 -0.0731  0.6515  0.0136
 2132DOPC   GL225015  19.818  26.491  13.048  0.0812 -0.1782 -0.2140
 2132DOPC   C1A25016  19.298  26.222  13.014  0.1925 -0.3220 -0.1624
 2132DOPC   D2A25017  19.287  25.964  12.644 -0.0506  0.2091  0.0195
 2132DOPC   C3A25018  19.229  26.206  12.226  0.3544 -0.1383  0.1196
 2132DOPC   C4A25019  18.959  26.457  11.967 -0.3980 -0.0501  0.2658
 2132DOPC   C1B25020  19.852  26.790  12.699 -0.2295  0.1913 -0.1934
 2132DOPC   D2B25021  19.573  26.895  12.354  0.0188 -0.1350 -0.4264
 2132DOPC   C3B25022  19.171  26.806  12.251  0.1947 -0.3524  0.0251
 2132DOPC   C4B25023  18.731  26.757  12.308 -0.4092 -0.1733  0.1799
 2133POSM   NC325024  20.225  33.537  13.403  0.1331 -0.1032 -0.2069
 2133POSM   PO425025  20.350  33.263  13.653 -0.0808  0.1366  0.1110
 2133POSM   AM125026  20.437  33.114  13.367  0.3410  0.1357 -0.1633
 2133POSM   AM225027  20.479  32.859  13.203  0.0868  0.0881 -0.1869
 2133POSM   T1A25028  20.428  33.226  12.844 -0.2545 -0.0614 -0.1467
 2133POSM   C2A25029  20.330  33.335  12.347 -0.1455  0.2239 -0.0700
 2133POSM   C3A25030  20.449  33.323  11.872  0.1699 -0.0458 -0.1553
 2133POSM   C1B25031  20.314  32.672  12.988 -0.0728 -0.3065 -0.1671
 2133POSM   D2B25032  20.178  32.542  12.552  0.0425  0.1733  0.1428
 2133POSM   C3B25033  19.765  32.703  12.344  0.0199  0.2750  0.3664
 2133POSM   C4B25034  19.403  32.827  12.177 -0.0456  0.0242  0.0352
 2134POSM   NC325035  14.459   0.211  15.428  0.3316 -0.1898 -0.3140
 2134POSM   PO425036  14.806   0.013  15.420 -0.1420 -0.2235  0.1940
 2134POSM   AM125037  14.639  -0.112  15.160  0.3610  0.0108 -0.1011
 2134POSM   AM225038  14.714  -0.225  14.937 -0.3068 -0.0625  0.0084
 2134POSM   T1A25039  14.428   0.130  14.760 -0.2410  0.2040  0.2910
 2134POSM   C2A25040  14.509   0.146  14.297 -0.0089  0.0565 -0.3009
 2134POSM   C3A25041  14.677   0.122  13.846  0.2040  0.2926 -0.0985
 2134POSM   C1B25042  14.725  -0.262  14.593 -0.1582 -0.1865  0.1250
 2134POSM   D2B25043  14.555  -0.307  14.153 -0.1275 -0.0978 -0.0291
 2134POSM   C3B25044  14.897  -0.333  13.840 -0.0080 -0.0598  0.4973
 2134POSM   C4B25045  15.235  -0.553  13.545 -0.1084 -0.2233 -0.0577
 2135DOPC   NC325046  19.934  34.317  13.383  0.1477 -0.3113  0.1863
 2135DOPC   PO425047  19.957  34.363  13.773 -0.4043  0.0212 -0.0908
 2135DOPC   GL125048  19.569  34.515  13.620 -0.3061 -0.3403  0.2194
 2135DOPC   GL225049  19.692  34.788  13.581 -0.1334  0.0734 -0.0131
 2135DOPC   C1A25050  19.545  34.579  13.166  0.0978 -0.0894  0.0435
 2135DOPC   D2A25051  19.778  34.702  12.779  0.1735 -0.0206 -0.0576
 2135DOPC   C3A25052  20.192  34.585  12.640  0.0816 -0.1957 -0.1950
 2135DOPC   C4A25053  20.577  34.773  12.470  0.4105 -0.0219  0.1184
 2135DOPC   C1B25054  19.799  35.001  13.196  0.2588 -0.1057  0.0228
 2135DOPC   D2B25055  19.741  35.229  12.770 -0.0850 -0.1158 -0.0611
 2135DOPC   C3B25056  19.432  35.155  12.505 -0.0626  0.2896 -0.3592
 2135DOPC   C4B25057  19.082  34.931  12.321  0.1172  0.2115 -0.1806
 2136DOPS   CNO25058  19.309  29.896  14.451  0.2802  0.3211  0.2891
 2136DOPS   PO425059  19.261  29.557  14.335 -0.0003  0.0056  0.0700
 2136DOPS   GL125060  19.076  29.529  13.908  0.2074 -0.1810 -0.2336
 2136DOPS   GL225061  18.965  29.210  13.899 -0.3347  0.0853 -0.1625
 2136DOPS   C1A25062  19.239  29.642  13.530  0.1448  0.3040  0.1084
 2136DOPS   D2A25063  19.111  29.960  13.191 -0.2016 -0.0504 -0.0970
 2136DOPS   C3A25064  19.000  29.974  12.756 -0.1689  0.2997 -0.0518
 2136DOPS   C4A25065  18.916  30.070  12.289 -0.0962 -0.3338 -0.2090
 2136DOPS   C1B25066  19.025  29.070  13.417 -0.0465  0.1973  0.2722
 2136DOPS   D2B25067  18.955  29.430  13.103  0.2676  0.0250 -0.0918
 2136DOPS   C3B25068  18.879  29.341  12.646  0.0278 -0.0175 -0.0272
 2136DOPS   C4B25069  18.911  29.268  12.175 -0.1132 -0.0076 -0.2768
 2137DOPE   NH325070  22.308  29.114  12.846 -0.0128  0.1547 -0.0003
 2137DOPE   PO425071  22.028  29.299  12.738  0.2734  0.2840 -0.5651
 2137DOPE   GL125072  21.725  29.295  12.358  0.0382  0.1432 -0.3566
 2137DOPE   GL225073  21.636  29.009  12.340 -0.0700 -0.0029 -0.3021
 2137DOPE   C1A25074  21.882  29.242  11.941 -0.1739  0.3401  0.0451
 2137DOPE   D2A25075  21.889  28.878  11.700  0.1336  0.0235 -0.0802
 2137DOPE   C3A25076  21.999  28.684  11.271  0.4695 -0.1611 -0.1029
 2137DOPE   C4A25077  21.966  28.307  11.002 -0.0872 -0.1525 -0.2445
 2137DOPE   C1B25078  21.440  28.753  11.986  0.1288  0.1394  0.2609
 2137DOPE   D2B25079  21.129  28.686  11.731  0.0967 -0.1223 -0.1167
 2137DOPE   C3B25080  20.655  28.648  11.865 -0.0833 -0.1092  0.0736
 2137DOPE   C4B25081  20.328  28.958  11.953 -0.0596  0.2406  0.2127
 2138DOPS   CNO25082  16.782  31.645  15.350 -0.3097 -0.2286 -0.0063
 2138DOPS   PO425083  17.058  31.832  15.107 -0.0829  0.0869 -0.0242
 2138DOPS   GL125084  16.970  31.820  14.770  0.0708 -0.0954 -0.1283
 2138DOPS   GL225085  16.934  32.174  14.768 -0.0530  0.1677 -0.1289
 2138DOPS   C1A25086  16.974  32.001  14.301  0.1642  0.2223  0.2041
 2138DOPS   D2A25087  16.896  31.894  13.805 -0.1644  0.3701  0.0340
 2138DOPS   C3A25088  17.193  31.707  13.470  0.1443  0.4356 -0.2036
 2138DOPS   C4A25089  17.208  31.384  13.134  0.1529 -0.0398 -0.0059
 2138DOPS   C1B25090  16.885  32.510  14.528  0.1124  0.0263  0.0113
 2138DOPS   D2B25091  16.865  32.682  14.101  0.1023 -0.0343 -0.1248
 2138DOPS   C3B25092  17.020  32.406  13.706 -0.0869 -0.0993  0.0184
 2138DOPS   C4B25093  17.097  32.166  13.343 -0.0363  0.0257  0.2600
 2139DOPS   CNO25094  15.052  23.529  14.129  0.4741  0.0383 -0.0593
 2139DOPS   PO425095  14.757  23.620  13.872 -0.3176 -0.0884  0.1046
 2139DOPS   GL125096  14.728  23.529  13.544  0.0680 -0.2280  0.0701
 2139DOPS   GL225097  14.933  23.765  13.398  0.0631  0.5070 -0.2256
 2139DOPS   C1A25098  14.834  23.345  13.129  0.2227  0.2301  0.1624
 2139DOPS   D2A25099  15.160  23.220  12.909 -0.0010  0.2340  0.3676
 2139DOPS   C3A25100  15.135  23.552  12.583 -0.0181  0.3146 -0.1038
 2139DOPS   C4A25101  15.140  23.776  12.240 -0.1881  0.0880  0.1211
 2139DOPS   C1B25102  15.283  23.760  13.049 -0.3838 -0.1266 -0.1207
 2139DOPS   D2B25103  15.280  24.057  12.691 -0.1373 -0.0919 -0.3398
 2139DOPS   C3B25104  14.839  24.100  12.613 -0.0712  0.0705 -0.1506
 2139DOPS   C4B25105  14.747  24.215  12.163  0.0896 -0.1038  0.3098
 2140POSM   NC325106  14.279  32.723  15.901  0.1127 -0.0279 -0.2392
 2140POSM   PO425107  14.468  33.062  15.789 -0.1104 -0.3871 -0.0683
 2140POSM   AM125108  14.468  33.014  15.465 -0.1194  0.2501  0.2849
 2140POSM   AM225109  14.559  33.104  15.195 -0.0857 -0.0251  0.0057
 2140POSM   T1A25110  14.443  32.716  15.006 -0.3439 -0.1310  0.3345
 2140POSM   C2A25111  14.329  32.592  14.588  0.3412  0.3437  0.2057
 2140POSM   C3A25112  14.646  32.654  14.239 -0.0809  0.2767 -0.0456
 2140POSM   C1B25113  14.559  33.219  14.882  0.0802  0.2048 -0.0952
 2140POSM   D2B25114  14.588  33.148  14.447 -0.2463 -0.1038  0.2418
 2140POSM   C3B25115  14.249  33.056  14.163  0.0806 -0.2328  0.1777
 2140POSM   C4B25116  13.943  33.150  13.893  0.3212  0.2629 -0.3024
 2141POSM   NC325117  20.762  31.099  13.794  0.3758 -0.0610  0.0377
 2141POSM   PO425118  21.012  31.173  13.474  0.1558  0.1664 -0.0547
 2141POSM   AM125119  20.994  31.112  13.167 -0.1875 -0.2108  0.1470
 2141POSM   AM225120  21.068  31.277  12.916  0.3895  0.0717  0.0998
 2141POSM   T1A25121  20.658  30.987  12.875  0.0876  0.1375  0.0599
 2141POSM   C2A25122  20.168  31.161  12.806 -0.0736 -0.1408  0.1367
 2141POSM   C3A25123  19.915  31.274  12.393  0.0484 -0.0116  0.0771
 2141POSM   C1B25124  20.986  31.339  12.567 -0.0455  0.0746 -0.3869
 2141POSM   D2B25125  20.708  31.628  12.293  0.1179 -0.0337 -0.0545
 2141POSM   C3B25126  20.926  32.069  12.368 -0.1832  0.0413 -0.0316
 2141POSM   C4B25127  21.165  32.222  12.724  0.3879  0.0679  0.1462
 2142DOPC   NC325128  14.969  24.187  14.066 -0.0444 -0.1992  0.3928
 2142DOPC   PO425129  14.870  24.561  13.956  0.1181 -0.0072 -0.0046
 2142DOPC   GL125130  14.941  24.711  13.607  0.2956 -0.0590 -0.3249
 2142DOPC   GL225131  15.133  24.868  13.689 -0.3023  0.2344  0.0841
 2142DOPC   C1A25132  14.968  24.762  13.145  0.0583  0.1999 -0.2155
 2142DOPC   D2A25133  15.135  24.506  12.812  0.0721 -0.0811  0.2820
 2142DOPC   C3A25134  15.211  24.701  12.336 -0.0489 -0.1283  0.1695
 2142DOPC   C4A25135  14.999  24.850  11.974  0.1668  0.2383 -0.0933
 2142DOPC   C1B25136  15.104  25.157  13.402 -0.0223  0.2998 -0.2289
 2142DOPC   D2B25137  15.134  25.226  12.946  0.1500  0.2250  0.0701
 2142DOPC   C3B25138  14.940  24.947  12.652  0.0216 -0.1937 -0.1244
 2142DOPC   C4B25139  14.704  24.606  12.445  0.0128  0.1210  0.0246
 2143POSM   NC325140  17.715  32.564  15.224  0.3330  0.1923 -0.2748
 2143POSM   PO425141  17.417  32.780  15.153  0.2539 -0.0400 -0.2098
 2143POSM   AM125142  17.154  32.916  15.001  0.1143  0.1311  0.0556
 2143POSM   AM225143  17.041  33.012  14.693 -0.3062 -0.2991 -0.2011
 2143POSM   T1A25144  16.646  33.029  14.956 -0.3097 -0.1199  0.1497
 2143POSM   C2A25145  16.331  33.312  14.708 -0.2176  0.0232 -0.1656
 2143POSM   C3A25146  16.066  33.318  14.263 -0.0078  0.0578 -0.0392
 2143POSM   C1B25147  16.843  33.110  14.420  0.0775 -0.2837 -0.0428
 2143POSM   D2B25148  16.683  33.500  14.211  0.1435 -0.1749  0.0025
 2143POSM   C3B25149  16.734  33.784  13.842 -0.0456 -0.1709 -0.0166
 2143POSM   C4B25150  17.147  33.895  13.737  0.0825  0.0105 -0.0217
 2144DOPC   NC325151  20.298  31.138  14.088  0.0833 -0.1227 -0.4374
 2144DOPC   PO425152  20.145  30.764  14.193  0.1823  0.1172 -0.1106
 2144DOPC   GL125153  20.041  30.804  13.769 -0.1732 -0.1228 -0.0407
 2144DOPC   GL225154  20.219  30.961  13.603  0.1534  0.0638 -0.0207
 2144DOPC   C1A25155  19.614  30.815  13.615  0.0820 -0.1098 -0.1618
 2144DOPC   D2A25156  19.141  30.788  13.524 -0.4178  0.0224 -0.2965
 2144DOPC   C3A25157  18.860  30.459  13.317 -0.0037 -0.0095  0.0762
 2144DOPC   C4A25158  18.614  30.229  13.010 -0.2681 -0.0457  0.0217
 2144DOPC   C1B25159  19.985  30.865  13.233  0.1888  0.1736  0.0745
 2144DOPC   D2B25160  19.791  30.743  12.877  0.3075  0.2855 -0.0554
 2144DOPC   C3B25161  19.416  30.752  12.639  0.2277  0.1742 -0.1678
 2144DOPC   C4B25162  19.228  30.629  12.263  0.1779 -0.0923 -0.0444
 2145POSM   NC325163  19.984  28.696  13.898 -0.0157 -0.2328 -0.1907
 2145POSM   PO425164  20.004  29.056  13.797  0.0707 -0.0828  0.1063
 2145POSM   AM125165  19.901  29.084  13.470  0.1759 -0.0834  0.3104
 2145POSM   AM225166  19.858  29.321  13.299  0.1859 -0.2080  0.0040
 2145POSM   T1A25167  19.445  28.974  13.202  0.1963 -0.0408  0.0214
 2145POSM   C2A25168  19.097  28.980  12.896  0.3003  0.1604  0.1112
 2145POSM   C3A25169  18.853  28.814  12.499  0.1310  0.2269 -0.0128
 2145POSM   C1B25170  19.732  29.334  12.956 -0.2746  0.0808 -0.1427
 2145POSM   D2B25171  19.507  29.315  12.549 -0.2019  0.1651 -0.3588
 2145POSM   C3B25172  19.294  29.004  12.352 -0.0882 -0.0279  0.0438
 2145POSM   C4B25173  19.335  28.813  11.851 -0.1555 -0.0322  0.1375
 2146POSM   NC325174  20.272  23.131  12.992 -0.0264  0.0312  0.2550
 2146POSM   PO425175  20.529  23.379  12.765 -0.2764 -0.0284 -0.2443
 2146POSM   AM125176  20.477  23.676  12.640  0.0129 -0.2256 -0.1390
 2146POSM   AM225177  20.753  23.820  12.513  0.0395  0.1617 -0.1390
 2146POSM   T1A25178  20.230  24.107  12.575  0.1089  0.0924 -0.0150
 2146POSM   C2A25179  20.050  24.217  12.172  0.0277 -0.1478  0.0463
 2146POSM   C3A25180  20.003  24.247  11.700 -0.1384 -0.2833  0.1396
 2146POSM   C1B25181  20.720  23.991  12.180  0.3592  0.3919 -0.0378
 2146POSM   D2B25182  20.405  24.119  11.826 -0.0053  0.0540 -0.0678
 2146POSM   C3B25183  20.462  24.377  11.457  0.2431  0.1469 -0.2606
 2146POSM   C4B25184  20.128  24.454  11.191 -0.1287 -0.2477 -0.2217
 2147DOPC   NC325185  13.688  27.959  14.787  0.0053 -0.0966  0.0500
 2147DOPC   PO425186  14.016  28.190  14.726 -0.1292  0.0608  0.2379
 2147DOPC   GL125187  14.056  28.212  14.373 -0.3645  0.0632  0.0822
 2147DOPC   GL225188  13.889  28.457  14.288 -0.0032  0.0242 -0.0817
 2147DOPC   C1A25189  14.204  28.214  13.948 -0.0506  0.0512 -0.3452
 2147DOPC   D2A25190  14.130  28.647  13.728 -0.1573 -0.1288  0.0826
 2147DOPC   C3A25191  14.256  28.922  13.418  0.2091 -0.2214  0.4465
 2147DOPC   C4A25192  14.394  29.198  13.046  0.1404  0.1086  0.3486
 2147DOPC   C1B25193  13.700  28.334  13.915 -0.0882 -0.1224  0.2036
 2147DOPC   D2B25194  13.599  28.633  13.608  0.0119  0.1812  0.1053
 2147DOPC   C3B25195  13.924  28.617  13.232  0.0436 -0.2452 -0.0564
 2147DOPC   C4B25196  14.235  28.660  12.966  0.0528  0.1884  0.0807
 2148DOPE   NH325197  13.576  26.080  14.512 -0.1293  0.2225  0.3685
 2148DOPE   PO425198  13.618  26.167  14.235 -0.0833 -0.0757 -0.0776
 2148DOPE   GL125199  13.751  26.065  13.891 -0.3012 -0.3858  0.0358
 2148DOPE   GL225200  13.983  25.848  13.955  0.0052 -0.0652  0.0648
 2148DOPE   C1A25201  13.617  26.103  13.387 -0.0189 -0.1138  0.0604
 2148DOPE   D2A25202  13.568  26.340  12.958  0.6085 -0.1565 -0.0841
 2148DOPE   C3A25203  13.921  26.301  12.648  0.4326  0.0330 -0.1756
 2148DOPE   C4A25204  14.221  26.602  12.592  0.0238 -0.2715  0.0996
 2148DOPE   C1B25205  13.543  25.596  13.840  0.1173  0.0093 -0.1746
 2148DOPE   D2B25206  13.248  25.485  13.520 -0.3328 -0.1020  0.1364
 2148DOPE   C3B25207  12.895  25.730  13.551  0.0968 -0.2983  0.0668
 2148DOPE   C4B25208  12.671  26.060  13.431 -0.1538  0.4563 -0.2035
 2149DOPC   NC325209  13.270  29.999  15.797  0.1890  0.2724  0.3396
 2149DOPC   PO425210  13.343  29.865  15.420 -0.2723  0.3298 -0.0264
 2149DOPC   GL125211  13.577  29.955  15.102 -0.1473  0.4660 -0.1338
 2149DOPC   GL225212  13.446  29.728  14.950 -0.0175  0.1368  0.1488
 2149DOPC   C1A25213  13.403  30.056  14.643  0.0326  0.1683 -0.3241
 2149DOPC   D2A25214  13.510  30.173  14.261 -0.5087  0.0326  0.3487
 2149DOPC   C3A25215  13.583  29.972  13.856  0.0922 -0.3088 -0.0258
 2149DOPC   C4A25216  13.467  30.016  13.420 -0.1741 -0.0173 -0.1989
 2149DOPC   C1B25217  13.187  29.572  14.657  0.1999  0.1499 -0.0918
 2149DOPC   D2B25218  13.084  29.303  14.368 -0.0778  0.2768 -0.1347
 2149DOPC   C3B25219  12.882  29.262  13.993  0.0692 -0.0502  0.1758
 2149DOPC   C4B25220  12.755  29.314  13.524  0.0174 -0.0012  0.0930
 2150POSM   NC325221  22.263  31.872  13.240 -0.4454  0.1663 -0.1784
 2150POSM   PO425222  21.898  31.730  13.319  0.2696 -0.0538  0.2844
 2150POSM   AM125223  21.854  31.788  12.988  0.3054  0.0517 -0.2749
 2150POSM   AM225224  21.789  31.976  12.810 -0.0566  0.1846 -0.0033
 2150POSM   T1A25225  21.829  31.575  12.522  0.0751 -0.4302 -0.1403
 2150POSM   C2A25226  21.683  31.552  12.045  0.2026 -0.1828 -0.2985
 2150POSM   C3A25227  21.620  31.331  11.611 -0.0079  0.0839 -0.0940
 2150POSM   C1B25228  21.758  32.062  12.501  0.6931 -0.0682  0.2781
 2150POSM   D2B25229  21.855  32.390  12.223  0.3043 -0.2301 -0.0671
 2150POSM   C3B25230  21.875  32.483  11.790  0.2872  0.0018 -0.0154
 2150POSM   C4B25231  21.891  32.586  11.371 -0.2849  0.1311  0.3044
 2151POSM   NC325232  13.482  33.018  16.092  0.2168 -0.1893 -0.0577
 2151POSM   PO425233  13.282  33.350  16.058  0.0221  0.0034 -0.0686
 2151POSM   AM125234  13.306  33.417  15.742 -0.0947  0.1257 -0.0999
 2151POSM   AM225235  13.455  33.360  15.512  0.2382  0.0270  0.2622
 2151POSM   T1A25236  13.099  33.684  15.343  0.3547 -0.1590  0.6910
 2151POSM   C2A25237  12.888  33.520  14.878  0.0659 -0.1694 -0.0660
 2151POSM   C3A25238  12.771  33.360  14.489 -0.0482  0.2285 -0.0266
 2151POSM   C1B25239  13.530  33.303  15.158 -0.0904 -0.0176  0.1504
 2151POSM   D2B25240  13.796  33.378  14.723 -0.0942  0.0475  0.0666
 2151POSM   C3B25241  13.646  33.585  14.300 -0.1728  0.0050  0.1351
 2151POSM   C4B25242  13.531  33.439  13.853  0.1130  0.2098  0.3974
 2152POSM   NC325243  13.421  30.337  15.243  0.1542 -0.0658  0.1009
 2152POSM   PO425244  13.060  30.400  15.445 -0.2025  0.2794  0.1542
 2152POSM   AM125245  12.913  30.368  15.155 -0.0630  0.3310  0.2502
 2152POSM   AM225246  12.642  30.315  15.051  0.1164 -0.0528 -0.1848
 2152POSM   T1A25247  12.937  30.338  14.669 -0.0034 -0.1840 -0.1559
 2152POSM   C2A25248  13.081  30.651  14.407 -0.1507 -0.3453  0.0762
 2152POSM   C3A25249  13.278  30.871  14.065 -0.3440 -0.2958 -0.1357
 2152POSM   C1B25250  12.349  30.316  14.848 -0.1159 -0.1146 -0.2983
 2152POSM   D2B25251  12.007  30.281  14.510  0.0869  0.3671  0.1293
 2152POSM   C3B25252  11.709  29.877  14.573 -0.2379  0.0496 -0.0296
 2152POSM   C4B25253  11.782  29.556  14.901 -0.1518  0.4635  0.0706
 2153POSM   NC325254  16.355   0.620  15.109  0.2640  0.0070  0.3169
 2153POSM   PO425255  16.158   0.276  15.177 -0.1553 -0.2845 -0.0902
 2153POSM   AM125256  16.047   0.340  14.855 -0.1595 -0.0501 -0.3238
 2153POSM   AM225257  15.811   0.501  14.720 -0.0908 -0.0846  0.1339
 2153POSM   T1A25258  16.014   0.106  14.400 -0.0747 -0.1558 -0.1847
 2153POSM   C2A25259  15.805  -0.189  14.119 -0.0229 -0.1073 -0.3286
 2153POSM   C3A25260  15.481  -0.159  13.826  0.0569 -0.0207  0.1961
 2153POSM   C1B25261  16.053   0.713  14.654  0.0438  0.0863  0.0281
 2153POSM   D2B25262  16.227   0.936  14.306  0.2616 -0.0762 -0.2959
 2153POSM   C3B25263  16.038   1.213  14.034  0.1974 -0.2252  0.0243
 2153POSM   C4B25264  16.291   1.539  13.779  0.2229  0.2397  0.0488
 2154DOPC   NC325265  23.368  30.974  12.856  0.0380  0.1240  0.0130
 2154DOPC   PO425266  23.002  30.875  12.863  0.2843 -0.2537 -0.3006
 2154DOPC   GL125267  22.829  30.763  12.587 -0.0794  0.3356  0.0793
 2154DOPC   GL225268  22.794  30.498  12.556 -0.3193  0.0792 -0.2782
 2154DOPC   C1A25269  22.856  30.852  12.126  0.1273 -0.0374  0.1809
 2154DOPC   D2A25270  22.965  30.890  11.666 -0.2303  0.1115  0.0641
 2154DOPC   C3A25271  23.403  30.816  11.550  0.0538 -0.0033 -0.2376
 2154DOPC   C4A25272  23.809  31.091  11.382  0.3433 -0.0937 -0.1509
 2154DOPC   C1B25273  22.732  30.364  12.169  0.1780  0.2219  0.3902
 2154DOPC   D2B25274  22.534  30.492  11.788 -0.1145  0.2550  0.1710
 2154DOPC   C3B25275  22.846  30.321  11.473  0.2002 -0.0038  0.2301
 2154DOPC   C4B25276  23.030  30.275  11.043  0.1675 -0.0440  0.0340
 2155POSM   NC325277  21.384  31.440  13.286  0.0857 -0.0206 -0.1637
 2155POSM   PO425278  21.460  31.049  13.234  0.1231 -0.0603  0.1368
 2155POSM   AM125279  21.472  31.081  12.913  0.1056  0.0845 -0.1733
 2155POSM   AM225280  21.594  30.902  12.713  0.2000 -0.0829  0.0337
 2155POSM   T1A25281  21.478  31.245  12.437  0.0781 -0.1360  0.0964
 2155POSM   C2A25282  21.232  31.387  12.049  0.0119 -0.0196  0.0763
 2155POSM   C3A25283  21.181  31.603  11.681  0.0683 -0.0797 -0.2807
 2155POSM   C1B25284  21.521  30.760  12.387  0.3295 -0.0738  0.2497
 2155POSM   D2B25285  21.304  30.823  11.953 -0.1603  0.3567 -0.0594
 2155POSM   C3B25286  21.163  31.036  11.623  0.0145 -0.0911 -0.2468
 2155POSM   C4B25287  21.443  31.093  11.208 -0.0157  0.1110 -0.1531
 2156DOPS   CNO25288  19.479  27.344  14.424 -0.1273 -0.0769  0.0956
 2156DOPS   PO425289  19.403  27.579  14.146  0.1538 -0.0935 -0.0799
 2156DOPS   GL125290  19.513  27.595  13.781 -0.3141  0.2518  0.2781
 2156DOPS   GL225291  19.312  27.830  13.705 -0.0257 -0.1338  0.1613
 2156DOPS   C1A25292  19.616  27.504  13.320  0.3235  0.0409  0.0138
 2156DOPS   D2A25293  19.502  27.573  12.883 -0.0844 -0.0843 -0.1378
 2156DOPS   C3A25294  19.414  27.917  12.568  0.0715  0.1617  0.2623
 2156DOPS   C4A25295  19.098  27.993  12.230 -0.0969 -0.0011  0.1410
 2156DOPS   C1B25296  19.137  28.156  13.431  0.0859 -0.0044 -0.2701
 2156DOPS   D2B25297  18.987  28.555  13.331 -0.0992 -0.0521  0.2755
 2156DOPS   C3B25298  18.701  28.638  12.957  0.1970 -0.1353 -0.1996
 2156DOPS   C4B25299  18.341  28.762  12.739  0.1536  0.1181  0.0741
 2157DOPS   CNO25300  12.423  31.239  16.241 -0.0260  0.0889  0.0167
 2157DOPS   PO425301  12.461  31.502  15.948 -0.1181  0.0611 -0.2782
 2157DOPS   GL125302  12.715  31.609  15.606 -0.2529 -0.1609  0.4953
 2157DOPS   GL225303  12.629  31.433  15.396 -0.0407 -0.0205 -0.1604
 2157DOPS   C1A25304  13.141  31.745  15.416 -0.1720 -0.0188  0.1428
 2157DOPS   D2A25305  13.468  31.742  15.080 -0.1952  0.1177  0.3043
 2157DOPS   C3A25306  13.388  31.551  14.576 -0.2210 -0.0080 -0.3289
 2157DOPS   C4A25307  13.235  31.400  14.170 -0.2113  0.0651 -0.4792
 2157DOPS   C1B25308  12.389  31.676  15.084 -0.4164  0.2321  0.0781
 2157DOPS   D2B25309  12.331  31.730  14.681  0.1451  0.0034  0.0191
 2157DOPS   C3B25310  11.971  31.523  14.443  0.1468  0.0042  0.0009
 2157DOPS   C4B25311  11.534  31.453  14.412 -0.1787 -0.0953  0.1653
 2158DOPS   CNO25312  16.755  29.721  15.155  0.0924  0.0135 -0.1218
 2158DOPS   PO425313  17.087  29.914  15.120 -0.1215 -0.0937 -0.2029
 2158DOPS   GL125314  16.990  29.949  14.772 -0.3185  0.5180 -0.1531
 2158DOPS   GL225315  17.110  29.743  14.645  0.0206  0.1195 -0.0643
 2158DOPS   C1A25316  16.766  30.020  14.367 -0.3839  0.2211 -0.3226
 2158DOPS   D2A25317  16.573  29.848  13.940 -0.0056  0.2745  0.1542
 2158DOPS   C3A25318  16.422  29.781  13.515  0.2697 -0.2231  0.0649
 2158DOPS   C4A25319  15.986  29.899  13.362  0.1258 -0.3183  0.0710
 2158DOPS   C1B25320  17.071  29.654  14.201 -0.2363 -0.4395 -0.0298
 2158DOPS   D2B25321  17.142  29.697  13.688 -0.1157 -0.0204  0.1701
 2158DOPS   C3B25322  16.868  29.594  13.281 -0.2812  0.0262 -0.0762
 2158DOPS   C4B25323  16.633  30.001  13.080 -0.0468 -0.0463 -0.0271
 2159POSM   NC325324  20.555  27.582  13.266 -0.0137 -0.0277 -0.3587
 2159POSM   PO425325  20.597  27.261  13.454 -0.2034 -0.1985 -0.1272
 2159POSM   AM125326  20.454  27.102  13.227 -0.1587 -0.4308  0.0515
 2159POSM   AM225327  20.513  26.908  13.020 -0.1480  0.0207  0.1210
 2159POSM   T1A25328  19.978  27.098  13.078 -0.0488  0.2116  0.1580
 2159POSM   C2A25329  19.532  26.946  13.073 -0.3084 -0.1627  0.5941
 2159POSM   C3A25330  19.140  26.739  13.057 -0.0841  0.3613 -0.1349
 2159POSM   C1B25331  20.350  26.887  12.763  0.1414 -0.2122 -0.0108
 2159POSM   D2B25332  20.186  26.974  12.357 -0.3046  0.2511 -0.0453
 2159POSM   C3B25333  19.928  27.267  12.065 -0.2948  0.1249  0.0390
 2159POSM   C4B25334  19.705  27.466  11.763  0.0904 -0.1103 -0.0386
 2160DOPE   NH325335  19.488   0.832  14.188  0.2250 -0.3763 -0.1031
 2160DOPE   PO425336  19.597   0.701  13.929  0.0443  0.1456  0.0328
 2160DOPE   GL125337  19.224   0.766  13.695 -0.0782  0.2503  0.1624
 2160DOPE   GL225338  19.410   0.771  13.461  0.1618  0.0216 -0.0353
 2160DOPE   C1A25339  19.061   0.336  13.563  0.0459 -0.0812  0.2801
 2160DOPE   D2A25340  18.986   0.068  13.283  0.1113 -0.1101  0.2844
 2160DOPE   C3A25341  18.646   0.072  12.989  0.0631 -0.1178  0.1601
 2160DOPE   C4A25342  18.360  -0.056  12.659  0.0712  0.1267  0.1488
 2160DOPE   C1B25343  19.555   1.116  13.144 -0.0128  0.0811 -0.2313
 2160DOPE   D2B25344  19.446   1.108  12.706 -0.2738 -0.0736  0.2768
 2160DOPE   C3B25345  19.105   1.366  12.487 -0.0675  0.2517  0.2016
 2160DOPE   C4B25346  18.939   1.795  12.466  0.2625  0.0780  0.0081
 2161POSM   NC325347  18.261  23.472  13.137  0.2462 -0.3021  0.0931
 2161POSM   PO425348  17.935  23.318  13.024  0.0250 -0.1041  0.1150
 2161POSM   AM125349  17.783  23.496  12.780  0.1354  0.3202  0.0520
 2161POSM   AM225350  17.535  23.596  12.688  0.0386  0.0096  0.1303
 2161POSM   T1A25351  17.721  23.616  12.256 -0.0375  0.1505  0.0627
 2161POSM   C2A25352  17.509  23.921  11.906 -0.0050  0.2286 -0.1248
 2161POSM   C3A25353  17.252  24.012  11.567  0.2363 -0.3223 -0.1370
 2161POSM   C1B25354  17.291  23.809  12.559 -0.0204 -0.3336  0.2385
 2161POSM   D2B25355  16.945  24.018  12.433 -0.0427 -0.0257 -0.2919
 2161POSM   C3B25356  16.882  24.494  12.454  0.1345 -0.0660 -0.0024
 2161POSM   C4B25357  16.703  24.935  12.413 -0.0264 -0.4895 -0.1273
 2162DOPS   CNO25358  18.490  27.785  14.675 -0.1322  0.1295  0.1534
 2162DOPS   PO425359  18.189  27.694  14.472 -0.0379  0.1677 -0.4140
 2162DOPS   GL125360  18.224  27.819  14.035  0.1997  0.0138  0.0473
 2162DOPS   GL225361  17.955  27.701  13.961  0.1877  0.2241 -0.1215
 2162DOPS   C1A25362  18.260  28.280  13.856 -0.3049 -0.0412  0.3745
 2162DOPS   D2A25363  18.004  28.546  13.609  0.2858 -0.2091  0.0465
 2162DOPS   C3A25364  17.985  28.497  13.105 -0.1290  0.1983 -0.0414
 2162DOPS   C4A25365  17.967  28.362  12.674  0.2352  0.2236 -0.0144
 2162DOPS   C1B25366  17.804  27.529  13.541 -0.1894  0.1289  0.0317
 2162DOPS   D2B25367  17.516  27.554  13.181  0.0555  0.2216  0.0207
 2162DOPS   C3B25368  17.382  27.590  12.697 -0.0588  0.0578  0.3187
 2162DOPS   C4B25369  17.146  27.442  12.304 -0.5506  0.0569 -0.0069
 2163POSM   NC325370  23.468  28.456  12.773  0.0006 -0.0364 -0.0931
 2163POSM   PO425371  23.188  28.702  12.617 -0.0750 -0.2511 -0.0447
 2163POSM   AM125372  22.968  28.675  12.372 -0.1633  0.0864  0.1294
 2163POSM   AM225373  22.824  28.887  12.213  0.1639 -0.2021  0.1768
 2163POSM   T1A25374  22.674  28.479  11.990  0.0061  0.1924  0.0096
 2163POSM   C2A25375  22.601  28.532  11.535 -0.2198  0.0982 -0.2283
 2163POSM   C3A25376  22.772  28.328  11.107 -0.1437 -0.0487 -0.0761
 2163POSM   C1B25377  22.955  28.919  11.912 -0.0048  0.0311 -0.1031
 2163POSM   D2B25378  22.896  29.113  11.475 -0.1935 -0.0585  0.0765
 2163POSM   C3B25379  22.867  28.852  11.098  0.0842 -0.0778 -0.1699
 2163POSM   C4B25380  22.427  28.734  11.060 -0.0411  0.0496  0.3059
 2164POSM   NC325381  17.607  27.900  14.396  0.3946  0.1462  0.3138
 2164POSM   PO425382  17.217  27.794  14.385 -0.1873  0.1899  0.1087
 2164POSM   AM125383  17.003  27.852  14.110 -0.5178  0.1837  0.4257
 2164POSM   AM225384  16.748  27.842  13.951 -0.4588  0.0363 -0.1403
 2164POSM   T1A25385  17.091  28.172  13.727  0.1754 -0.3107  0.0350
 2164POSM   C2A25386  17.053  28.271  13.260 -0.0644 -0.0954  0.0942
 2164POSM   C3A25387  17.003  28.554  12.875  0.3202  0.0873  0.0579
 2164POSM   C1B25388  16.513  27.694  14.050 -0.0057 -0.0100 -0.0482
 2164POSM   D2B25389  16.177  27.416  14.063  0.4477 -0.1004  0.0029
 2164POSM   C3B25390  16.150  27.398  13.607  0.1295  0.1500  0.1411
 2164POSM   C4B25391  16.370  27.164  13.279  0.0040 -0.1539 -0.1356
 2165POSM   NC325392  13.950  30.498  15.657  0.1649 -0.1169  0.0677
 2165POSM   PO425393  14.262  30.600  15.467 -0.0757 -0.1820 -0.1002
 2165POSM   AM125394  14.150  30.681  15.152  0.1335  0.4776 -0.0718
 2165POSM   AM225395  14.049  30.898  15.038 -0.0615 -0.2386  0.3183
 2165POSM   T1A25396  14.177  30.644  14.665 -0.0883  0.3381 -0.0987
 2165POSM   C2A25397  14.351  30.799  14.216  0.3389 -0.1562 -0.3223
 2165POSM   C3A25398  14.805  30.898  14.196  0.0432 -0.2446  0.0783
 2165POSM   C1B25399  14.352  31.042  14.930  0.2143  0.1186  0.1234
 2165POSM   D2B25400  14.474  31.232  14.494 -0.3362  0.0472  0.0007
 2165POSM   C3B25401  14.170  31.490  14.271 -0.0271  0.1157  0.1145
 2165POSM   C4B25402  14.032  31.619  13.853 -0.0247 -0.0139 -0.0188
 2166DOPE   NH325403  23.156  31.830  13.508 -0.4379 -0.0501  0.1959
 2166DOPE   PO425404  22.906  31.640  13.352 -0.0060  0.2815 -0.2459
 2166DOPE   GL125405  23.053  31.703  13.075  0.0574 -0.1106 -0.0648
 2166DOPE   GL225406  23.311  31.773  13.044  0.2339  0.4769  0.1186
 2166DOPE   C1A25407  22.987  31.626  12.625 -0.2645  0.2303  0.0854
 2166DOPE   D2A25408  23.082  31.248  12.358  0.0789  0.0104  0.0910
 2166DOPE   C3A25409  23.522  31.118  12.416 -0.3497  0.1218 -0.0407
 2166DOPE   C4A25410  23.806  30.782  12.303  0.0328 -0.1846 -0.2150
 2166DOPE   C1B25411  23.072  32.140  12.849  0.1724 -0.2069 -0.0501
 2166DOPE   D2B25412  22.845  32.299  12.540 -0.0132  0.0510  0.0139
 2166DOPE   C3B25413  22.755  32.402  12.045 -0.2398  0.0671 -0.1127
 2166DOPE   C4B25414  22.432  32.566  11.766 -0.3999 -0.1624  0.1021
 2167DOPE   NH325415  15.329  31.891  15.393  0.3018 -0.1180  0.3118
 2167DOPE   PO425416  15.053  32.003  15.219 -0.2083  0.1294  0.2797
 2167DOPE   GL125417  14.692  31.908  15.097 -0.2362  0.0508 -0.0713
 2167DOPE   GL225418  14.632  32.088  14.909  0.2030  0.1984 -0.0808
 2167DOPE   C1A25419  14.724  31.647  14.698 -0.1890 -0.0550 -0.0256
 2167DOPE   D2A25420  14.866  31.533  14.222 -0.3245 -0.1155  0.0476
 2167DOPE   C3A25421  14.854  31.833  13.819  0.2023  0.1527  0.0868
 2167DOPE   C4A25422  14.763  32.303  13.860  0.1026  0.1994 -0.3946
 2167DOPE   C1B25423  14.656  32.109  14.423  0.0077  0.2968 -0.2776
 2167DOPE   D2B25424  14.419  31.874  14.071  0.2017 -0.3230 -0.0754
 2167DOPE   C3B25425  14.308  31.987  13.649 -0.3862 -0.1740 -0.2693
 2167DOPE   C4B25426  14.242  31.785  13.301 -0.3208 -0.2349  0.0340
 2168DOPS   CNO25427  23.787  24.737  12.455  0.1896 -0.1277  0.1968
 2168DOPS   PO425428  23.548  24.478  12.365 -0.2360  0.1765  0.0284
 2168DOPS   GL125429  23.533  24.271  12.038  0.1355  0.0403  0.1890
 2168DOPS   GL225430  23.349  24.477  11.781  0.1419 -0.1764 -0.2493
 2168DOPS   C1A25431  23.663  24.090  11.651  0.1796  0.1829 -0.0558
 2168DOPS   D2A25432  23.712  23.766  11.400 -0.1361  0.4751  0.0425
 2168DOPS   C3A25433  23.602  23.662  11.016  0.0876  0.1227  0.2678
 2168DOPS   C4A25434  23.316  23.563  10.641  0.1898  0.0421  0.0497
 2168DOPS   C1B25435  23.575  24.534  11.334  0.1131 -0.0514 -0.3218
 2168DOPS   D2B25436  23.747  24.240  11.014 -0.2676  0.3884 -0.3567
 2168DOPS   C3B25437  24.032  23.843  10.898  0.0973  0.3853  0.3589
 2168DOPS   C4B25438  24.380  23.737  10.687 -0.2725 -0.0954  0.1945
 2169DOPS   CNO25439  13.492  26.612  14.468  0.2860 -0.2727  0.0192
 2169DOPS   PO425440  13.784  26.831  14.531 -0.0781  0.3694 -0.2126
 2169DOPS   GL125441  13.447  27.107  14.490 -0.1732  0.2756 -0.1318
 2169DOPS   GL225442  13.172  27.124  14.608 -0.0242 -0.0613  0.1357
 2169DOPS   C1A25443  13.423  27.489  14.262  0.2277  0.2892  0.1643
 2169DOPS   D2A25444  13.105  27.752  14.099 -0.0651 -0.1847  0.1376
 2169DOPS   C3A25445  13.263  28.062  13.830 -0.1386  0.2934  0.1898
 2169DOPS   C4A25446  13.091  28.259  13.465  0.1140 -0.1278 -0.1513
 2169DOPS   C1B25447  12.999  27.269  14.255  0.2177  0.0136  0.1393
 2169DOPS   D2B25448  12.722  27.506  13.863 -0.0170 -0.1240  0.1299
 2169DOPS   C3B25449  12.887  27.828  13.504  0.3799  0.1269  0.1880
 2169DOPS   C4B25450  13.272  27.828  13.212 -0.2192  0.1086 -0.0089
 2170DOPE   NH325451  16.507  32.112  15.245 -0.0668  0.2355  0.3224
 2170DOPE   PO425452  16.525  31.997  14.933 -0.2524  0.2574 -0.0872
 2170DOPE   GL125453  16.499  31.947  14.522 -0.3776 -0.3187 -0.1863
 2170DOPE   GL225454  16.335  31.733  14.524 -0.2789  0.1953  0.1539
 2170DOPE   C1A25455  16.559  32.132  14.086 -0.1468  0.1223  0.0165
 2170DOPE   D2A25456  16.489  32.271  13.659 -0.1920 -0.0084  0.2459
 2170DOPE   C3A25457  16.420  32.729  13.542  0.0790 -0.1511  0.1805
 2170DOPE   C4A25458  16.071  33.023  13.543 -0.1139  0.2249 -0.1003
 2170DOPE   C1B25459  16.082  31.969  14.279  0.0264 -0.1053 -0.0228
 2170DOPE   D2B25460  16.153  32.015  13.808  0.0823 -0.0089 -0.1652
 2170DOPE   C3B25461  16.114  31.689  13.430  0.1811 -0.0782 -0.0021
 2170DOPE   C4B25462  16.283  31.354  13.177  0.0110 -0.0275 -0.2160
 2171DOPC   NC325463  15.943  32.657  15.450  0.3045  0.2629 -0.0831
 2171DOPC   PO425464  16.181  32.494  15.195 -0.0319 -0.0019 -0.1783
 2171DOPC   GL125465  16.183  32.783  14.897 -0.0886 -0.0230  0.1753
 2171DOPC   GL225466  16.024  32.935  15.023  0.1402 -0.3093  0.3099
 2171DOPC   C1A25467  16.466  32.766  14.544 -0.0132  0.0918 -0.0315
 2171DOPC   D2A25468  16.431  32.964  14.151 -0.2240 -0.0171  0.2064
 2171DOPC   C3A25469  16.670  33.092  13.789  0.0670 -0.2123 -0.4934
 2171DOPC   C4A25470  16.842  32.993  13.387  0.2261 -0.0960  0.3478
 2171DOPC   C1B25471  15.883  33.014  14.587 -0.4197  0.1115  0.1704
 2171DOPC   D2B25472  15.581  33.188  14.334 -0.1469  0.1049 -0.3458
 2171DOPC   C3B25473  15.701  33.378  13.943 -0.0308  0.3634  0.1281
 2171DOPC   C4B25474  16.137  33.455  13.777  0.1950 -0.1491 -0.1289
 2172DOPE   NH325475  18.878  32.983  14.379  0.0414 -0.2293 -0.0684
 2172DOPE   PO425476  18.570  32.869  14.423  0.2032  0.1388  0.0182
 2172DOPE   GL125477  18.368  33.008  14.117  0.3673 -0.1286 -0.2336
 2172DOPE   GL225478  18.093  32.912  14.003  0.0359  0.0689  0.1091
 2172DOPE   C1A25479  18.405  33.099  13.628  0.0012  0.1795  0.0847
 2172DOPE   D2A25480  18.657  33.028  13.220 -0.0221 -0.1369  0.1116
 2172DOPE   C3A25481  18.334  32.783  13.109 -0.1830  0.2961  0.2291
 2172DOPE   C4A25482  18.010  32.769  13.438  0.4407 -0.0598  0.2117
 2172DOPE   C1B25483  17.714  33.126  13.797 -0.3038  0.0145 -0.2204
 2172DOPE   D2B25484  17.411  33.046  13.545  0.2251  0.1346  0.0772
 2172DOPE   C3B25485  17.304  33.229  13.176 -0.0352  0.1802  0.3272
 2172DOPE   C4B25486  17.371  33.189  12.716 -0.3023  0.1472 -0.0706
 2173DOPC   NC325487  11.502  25.246  14.240 -0.0748 -0.0792  0.0403
 2173DOPC   PO425488  11.387  24.884  14.117 -0.2181 -0.0521  0.1912
 2173DOPC   GL125489  11.313  24.963  13.750 -0.1665 -0.0444 -0.0162
 2173DOPC   GL225490  11.322  25.257  13.790 -0.0497  0.1396  0.4030
 2173DOPC   C1A25491  11.210  24.744  13.365  0.2447  0.0804  0.0924
 2173DOPC   D2A25492  11.143  24.731  12.881 -0.1925  0.0385 -0.0583
 2173DOPC   C3A25493  11.431  24.836  12.551 -0.0319  0.4545 -0.0367
 2173DOPC   C4A25494  11.587  25.181  12.304 -0.1333  0.0547 -0.0717
 2173DOPC   C1B25495  11.238  25.213  13.316  0.1828 -0.1238 -0.0532
 2173DOPC   D2B25496  11.289  25.223  12.820 -0.1680 -0.0578 -0.2806
 2173DOPC   C3B25497  11.263  25.620  12.641  0.0547  0.1422 -0.1485
 2173DOPC   C4B25498  10.877  25.722  12.415 -0.0422  0.0541 -0.0170
 2174DOPE   NH325499  21.796  27.691  13.238 -0.2535 -0.1423 -0.1057
 2174DOPE   PO425500  21.587  27.565  12.974 -0.3553  0.2594 -0.3208
 2174DOPE   GL125501  21.396  27.694  12.572 -0.2678  0.3878 -0.2337
 2174DOPE   GL225502  21.597  27.922  12.608  0.3960  0.1935 -0.1585
 2174DOPE   C1A25503  21.002  27.709  12.322  0.0655  0.0822 -0.1525
 2174DOPE   D2A25504  20.673  27.768  12.017 -0.2208  0.3456 -0.0810
 2174DOPE   C3A25505  20.738  27.477  11.678  0.1748 -0.2244  0.0796
 2174DOPE   C4A25506  20.564  27.123  11.461  0.2385  0.1467  0.0810
 2174DOPE   C1B25507  21.461  27.910  12.185  0.1200 -0.0098 -0.2612
 2174DOPE   D2B25508  21.190  27.789  11.864 -0.1346  0.0406 -0.2489
 2174DOPE   C3B25509  20.967  27.906  11.439  0.1552 -0.1611  0.0448
 2174DOPE   C4B25510  20.683  28.081  11.090 -0.1609 -0.2872 -0.3149
 2175DOPE   NH325511  22.334  32.893  13.600  0.1574  0.2424 -0.3865
 2175DOPE   PO425512  22.221  32.768  13.374  0.2051 -0.0928  0.3575
 2175DOPE   GL125513  22.456  32.629  13.118 -0.0749 -0.1846 -0.1341
 2175DOPE   GL225514  22.449  32.913  12.922  0.0492  0.2912  0.2328
 2175DOPE   C1A25515  22.452  32.287  12.859 -0.2568 -0.0539  0.5615
 2175DOPE   D2A25516  22.232  32.003  12.553 -0.2140  0.1474  0.2351
 2175DOPE   C3A25517  22.666  31.886  12.385 -0.0497 -0.1091  0.3226
 2175DOPE   C4A25518  23.173  32.000  12.380 -0.0074  0.1389 -0.1366
 2175DOPE   C1B25519  22.186  32.983  12.552 -0.2036  0.0851 -0.1304
 2175DOPE   D2B25520  22.064  32.790  12.169 -0.1317 -0.0313  0.4722
 2175DOPE   C3B25521  22.138  33.015  11.788 -0.0597  0.0523 -0.2262
 2175DOPE   C4B25522  22.395  33.379  11.508 -0.2527  0.0601  0.0423
 2176DOPC   NC325523  14.522  24.452  13.426 -0.1435 -0.0979  0.0932
 2176DOPC   PO425524  14.410  24.567  13.749 -0.1564  0.2300  0.0497
 2176DOPC   GL125525  14.160  24.804  13.511  0.4029  0.1890  0.1046
 2176DOPC   GL225526  14.181  25.032  13.667 -0.3967  0.1025 -0.1136
 2176DOPC   C1A25527  14.109  25.166  13.168 -0.0146 -0.1686  0.1096
 2176DOPC   D2A25528  13.891  25.490  12.882 -0.0491  0.4173 -0.2235
 2176DOPC   C3A25529  13.629  25.833  12.677  0.1586  0.0852  0.0283
 2176DOPC   C4A25530  13.289  26.139  12.496 -0.2297  0.2023  0.1285
 2176DOPC   C1B25531  14.549  25.004  13.376 -0.1855 -0.0398 -0.2609
 2176DOPC   D2B25532  14.628  25.144  12.949  0.1099  0.1599 -0.2210
 2176DOPC   C3B25533  14.370  24.985  12.620 -0.1567  0.0540 -0.1882
 2176DOPC   C4B25534  14.167  24.633  12.395 -0.1195 -0.0831 -0.0494
 2177DOPC   NC325535  22.965  27.816  12.647  0.1003 -0.0134  0.5243
 2177DOPC   PO425536  23.090  28.129  12.448 -0.1744  0.0677  0.0347
 2177DOPC   GL125537  23.076  28.067  12.090 -0.3522 -0.0380 -0.0229
 2177DOPC   GL225538  22.896  27.871  11.965  0.2695 -0.1832  0.0891
 2177DOPC   C1A25539  23.014  28.265  11.654 -0.1108 -0.1192 -0.0705
 2177DOPC   D2A25540  23.214  28.640  11.411 -0.0653 -0.0118  0.1966
 2177DOPC   C3A25541  23.679  28.656  11.360 -0.0896  0.2034 -0.2853
 2177DOPC   C4A25542  24.053  28.704  11.104  0.5693  0.2282 -0.1622
 2177DOPC   C1B25543  23.116  27.825  11.578  0.1450 -0.0804 -0.1376
 2177DOPC   D2B25544  22.950  27.762  11.177 -0.1578 -0.1235  0.0540
 2177DOPC   C3B25545  22.551  27.550  11.208  0.0140  0.0780  0.1035
 2177DOPC   C4B25546  22.163  27.382  11.295 -0.0783 -0.0817  0.1781
 2178DOPE   NH325547  20.662  26.760  13.599  0.0558  0.0762 -0.0559
 2178DOPE   PO425548  20.710  26.522  13.379  0.1870  0.2908 -0.0886
 2178DOPE   GL125549  20.679  26.357  13.067  0.1519 -0.1026  0.1367
 2178DOPE   GL225550  20.387  26.379  12.984  0.0229  0.0207  0.0650
 2178DOPE   C1A25551  20.776  26.293  12.584 -0.3457 -0.0069  0.2116
 2178DOPE   D2A25552  20.959  26.289  12.169 -0.2307  0.0181  0.0930
 2178DOPE   C3A25553  21.200  26.189  11.825  0.1537  0.3656  0.2074
 2178DOPE   C4A25554  21.510  26.488  11.670  0.0467 -0.1343  0.0705
 2178DOPE   C1B25555  20.261  26.491  12.545  0.0837 -0.0767  0.2231
 2178DOPE   D2B25556  20.123  26.464  12.067 -0.0558  0.0626 -0.3384
 2178DOPE   C3B25557  19.776  26.664  11.891  0.1621 -0.5029 -0.0042
 2178DOPE   C4B25558  19.440  26.973  11.862  0.0313  0.1214 -0.1403
 2179DOPE   NH325559  22.471  29.831  12.606  0.1178 -0.2922  0.0852
 2179DOPE   PO425560  22.536  29.536  12.534  0.1390  0.0578 -0.0457
 2179DOPE   GL125561  22.317  29.569  12.229  0.1548 -0.0684 -0.2301
 2179DOPE   GL225562  22.070  29.696  12.241  0.1654 -0.3127  0.2383
 2179DOPE   C1A25563  22.251  29.482  11.782  0.2814  0.0318  0.3355
 2179DOPE   D2A25564  21.957  29.278  11.409  0.0600  0.0337 -0.0957
 2179DOPE   C3A25565  21.842  29.089  11.022  0.1344  0.5454  0.0719
 2179DOPE   C4A25566  21.941  28.768  10.726  0.0976  0.1573 -0.3027
 2179DOPE   C1B25567  21.803  29.948  11.924 -0.2058  0.1932 -0.1597
 2179DOPE   D2B25568  21.935  29.817  11.524  0.1283  0.1708  0.1537
 2179DOPE   C3B25569  22.290  29.713  11.243  0.2642 -0.2305  0.3653
 2179DOPE   C4B25570  22.223  29.500  10.884 -0.0422  0.1863  0.0130
 2180DOPS   CNO25571  13.358  28.185  15.241 -0.1957  0.2234  0.2007
 2180DOPS   PO425572  13.663  28.303  15.181 -0.1175 -0.2641 -0.2329
 2180DOPS   GL125573  13.593  28.440  14.875  0.0031 -0.0759 -0.2253
 2180DOPS   GL225574  13.719  28.717  14.877 -0.1193 -0.1951  0.3288
 2180DOPS   C1A25575  13.274  28.619  14.584  0.3795 -0.2559  0.1099
 2180DOPS   D2A25576  13.214  28.807  14.169 -0.2069  0.0939  0.3609
 2180DOPS   C3A25577  13.113  28.617  13.757 -0.3105  0.1365 -0.0442
 2180DOPS   C4A25578  13.102  28.728  13.285 -0.0673 -0.0946 -0.2437
 2180DOPS   C1B25579  13.919  28.929  14.501 -0.0232 -0.0486  0.0215
 2180DOPS   D2B25580  13.732  28.851  14.071 -0.0633 -0.1221  0.0373
 2180DOPS   C3B25581  13.836  29.037  13.683 -0.1304  0.1971 -0.0175
 2180DOPS   C4B25582  13.857  29.290  13.267 -0.0408 -0.2700 -0.0200
 2181POSM   NC325583  16.290  33.445  15.687 -0.2653 -0.2903 -0.0531
 2181POSM   PO425584  16.035  33.673  15.494  0.2854 -0.0507  0.1877
 2181POSM   AM125585  15.904  33.600  15.188  0.4129 -0.1997  0.0550
 2181POSM   AM225586  15.709  33.426  15.078 -0.0998  0.0174  0.0048
 2181POSM   T1A25587  15.878  33.706  14.689  0.3477  0.1625  0.1413
 2181POSM   C2A25588  15.849  33.772  14.235 -0.0800  0.1653  0.1514
 2181POSM   C3A25589  15.843  33.897  13.790 -0.0937  0.0430  0.3176
 2181POSM   C1B25590  15.569  33.242  14.825  0.1116  0.2431 -0.0383
 2181POSM   D2B25591  15.348  32.885  14.694  0.2505  0.0059 -0.1749
 2181POSM   C3B25592  15.549  32.689  14.365  0.2019 -0.1183 -0.2804
 2181POSM   C4B25593  15.840  32.874  14.047  0.3678 -0.2801 -0.2499
 2182DOPC   NC325594  13.534  28.740  15.392 -0.0934  0.0255  0.1402
 2182DOPC   PO425595  13.211  28.579  15.451 -0.1070 -0.0128  0.0888
 2182DOPC   GL125596  13.200  28.690  15.078  0.2360  0.2847 -0.4978
 2182DOPC   GL225597  12.931  28.564  15.039  0.0379 -0.2204 -0.2342
 2182DOPC   C1A25598  13.096  29.107  14.852 -0.0244 -0.0331 -0.1940
 2182DOPC   D2A25599  12.745  29.340  14.743  0.0804  0.1352 -0.0622
 2182DOPC   C3A25600  12.574  29.367  14.352 -0.0534 -0.3227  0.1126
 2182DOPC   C4A25601  12.237  29.208  14.075  0.0922 -0.2018  0.2839
 2182DOPC   C1B25602  12.695  28.546  14.658 -0.3048 -0.0563 -0.0076
 2182DOPC   D2B25603  12.614  28.915  14.372  0.2507  0.0083  0.3000
 2182DOPC   C3B25604  12.650  28.879  13.884  0.0219  0.1233 -0.0123
 2182DOPC   C4B25605  12.277  28.980  13.605  0.0487 -0.0949  0.3457
 2183DOPC   NC325606  17.647  25.739  14.538  0.1066 -0.3143 -0.0564
 2183DOPC   PO425607  17.644  25.816  14.130  0.1957  0.2362  0.0084
 2183DOPC   GL125608  17.604  25.882  13.756 -0.0291  0.1536 -0.0348
 2183DOPC   GL225609  17.381  26.066  13.747 -0.0077  0.0303 -0.1062
 2183DOPC   C1A25610  17.414  25.729  13.334  0.2145  0.0863 -0.0662
 2183DOPC   D2A25611  17.082  25.776  13.006  0.1604  0.0737  0.0722
 2183DOPC   C3A25612  16.650  25.826  13.166  0.0085  0.1459 -0.2682
 2183DOPC   C4A25613  16.303  26.114  13.060 -0.0249  0.0598  0.4099
 2183DOPC   C1B25614  17.200  26.196  13.353  0.1935  0.1303 -0.1780
 2183DOPC   D2B25615  17.279  26.504  13.074  0.4779 -0.2296  0.2716
 2183DOPC   C3B25616  17.185  26.374  12.617 -0.1352 -0.1174 -0.0256
 2183DOPC   C4B25617  17.365  26.363  12.198 -0.0343  0.3943  0.0314
 2184DOPS   CNO25618  15.732  23.239  13.824 -0.0971  0.2845  0.1959
 2184DOPS   PO425619  15.803  23.587  13.625 -0.0780  0.0259  0.2419
 2184DOPS   GL125620  15.642  23.773  13.325  0.0329 -0.0794  0.2813
 2184DOPS   GL225621  15.806  24.079  13.277 -0.2271 -0.1374  0.0724
 2184DOPS   C1A25622  15.717  23.769  12.805 -0.0325  0.2107 -0.0950
 2184DOPS   D2A25623  15.647  23.863  12.337 -0.0697  0.0579  0.0463
 2184DOPS   C3A25624  15.379  24.188  12.271 -0.2267  0.0290 -0.0302
 2184DOPS   C4A25625  15.137  24.287  11.917 -0.1710  0.1278 -0.1784
 2184DOPS   C1B25626  15.476  24.235  13.083  0.0332  0.0908 -0.3226
 2184DOPS   D2B25627  14.976  24.168  13.107 -0.0206 -0.3606  0.0394
 2184DOPS   C3B25628  14.601  24.460  12.929  0.0440 -0.4850  0.0230
 2184DOPS   C4B25629  14.251  24.704  13.087 -0.1129  0.0014  0.2824
 2185DOPC   NC325630  22.376   0.310  13.393 -0.0300  0.1951 -0.3318
 2185DOPC   PO425631  22.556   0.536  13.706 -0.0929 -0.0750 -0.1798
 2185DOPC   GL125632  22.312   0.805  13.404 -0.3996  0.0539  0.1401
 2185DOPC   GL225633  22.310   1.079  13.202  0.1683 -0.0830 -0.1670
 2185DOPC   C1A25634  21.892   0.731  13.164 -0.1797  0.0696  0.1797
 2185DOPC   D2A25635  21.855   0.556  12.760 -0.1623  0.1486  0.1778
 2185DOPC   C3A25636  21.775   0.455  12.313  0.1870  0.2176 -0.0705
 2185DOPC   C4A25637  22.096   0.611  12.029 -0.2389 -0.0380 -0.0518
 2185DOPC   C1B25638  22.344   1.135  12.728  0.1726  0.0331 -0.1569
 2185DOPC   D2B25639  22.520   1.456  12.445  0.0757 -0.0965 -0.0860
 2185DOPC   C3B25640  22.735   1.275  12.049 -0.0975  0.1329  0.1471
 2185DOPC   C4B25641  22.613   1.102  11.639  0.2561 -0.2269  0.0757
 2186POSM   NC325642  21.560  29.021  13.484  0.2915  0.0208  0.4559
 2186POSM   PO425643  21.213  28.960  13.250 -0.1439  0.0633  0.2760
 2186POSM   AM125644  21.085  29.022  12.963 -0.0671 -0.0285  0.0870
 2186POSM   AM225645  20.846  29.012  12.812  0.0276  0.0676  0.2805
 2186POSM   T1A25646  21.135  29.128  12.437  0.3492  0.0251  0.1765
 2186POSM   C2A25647  21.263  29.190  11.963 -0.2220 -0.4622  0.1470
 2186POSM   C3A25648  21.504  29.128  11.558  0.3274 -0.0126  0.3272
 2186POSM   C1B25649  20.668  29.178  12.550  0.1595  0.2741  0.0874
 2186POSM   D2B25650  20.416  29.322  12.220  0.0907  0.1128 -0.3298
 2186POSM   C3B25651  20.518  29.505  11.829 -0.0132 -0.3962  0.3347
 2186POSM   C4B25652  20.642  29.761  11.497  0.0503  0.1579  0.1116
 2187DOPC   NC325653  17.459  24.245  13.494 -0.1364  0.0846  0.5385
 2187DOPC   PO425654  17.259  24.428  13.220 -0.3481 -0.0861 -0.1829
 2187DOPC   GL125655  17.032  24.652  13.000 -0.1087 -0.0780 -0.1406
 2187DOPC   GL225656  16.894  25.013  12.895  0.0076  0.1799 -0.0532
 2187DOPC   C1A25657  17.227  24.816  12.614 -0.3249  0.0116 -0.1799
 2187DOPC   D2A25658  17.511  24.763  12.247  0.1043 -0.0542 -0.1243
 2187DOPC   C3A25659  17.563  24.910  11.828 -0.2057 -0.2510  0.0464
 2187DOPC   C4A25660  17.589  24.779  11.365  0.1115  0.2753  0.5203
 2187DOPC   C1B25661  16.685  25.380  12.832 -0.2360 -0.0077  0.3367
 2187DOPC   D2B25662  16.682  25.810  12.620 -0.1048  0.2092 -0.0282
 2187DOPC   C3B25663  16.253  25.930  12.484  0.1328 -0.3141  0.0555
 2187DOPC   C4B25664  15.857  25.916  12.786 -0.0103 -0.0065 -0.1746
 2188DOPC   NC325665  23.016  26.233  12.076  0.1800  0.2636 -0.4080
 2188DOPC   PO425666  22.779  26.116  12.419  0.0720 -0.0057  0.2536
 2188DOPC   GL125667  22.394  26.163  12.279  0.1828  0.1817  0.2190
 2188DOPC   GL225668  22.500  26.113  11.960  0.0694  0.0262 -0.1882
 2188DOPC   C1A25669  22.024  26.049  11.983 -0.3164 -0.1980 -0.0502
 2188DOPC   D2A25670  21.782  26.084  11.595 -0.0401 -0.0248  0.1823
 2188DOPC   C3A25671  21.401  25.912  11.398  0.0532 -0.0535  0.0889
 2188DOPC   C4A25672  20.958  26.019  11.311  0.1570  0.0825  0.0036
 2188DOPC   C1B25673  22.626  25.994  11.529  0.2446 -0.0556 -0.0030
 2188DOPC   D2B25674  22.858  25.915  11.160  0.1967  0.3417  0.2355
 2188DOPC   C3B25675  23.023  25.703  10.744 -0.2138  0.1445  0.0011
 2188DOPC   C4B25676  23.046  25.332  10.496 -0.1195  0.0606 -0.1701
 2189DOPE   NH325677  18.396  22.598  12.833  0.0667  0.3474  0.1449
 2189DOPE   PO425678  18.413  22.886  12.992 -0.2780  0.0993  0.0213
 2189DOPE   GL125679  18.509  22.954  12.498  0.1533 -0.0084 -0.3409
 2189DOPE   GL225680  18.804  23.098  12.444  0.2494 -0.2835 -0.0655
 2189DOPE   C1A25681  18.258  23.192  12.138  0.2339  0.0220 -0.2806
 2189DOPE   D2A25682  18.190  23.542  11.859  0.0703 -0.5316 -0.0487
 2189DOPE   C3A25683  17.973  23.954  11.893 -0.1410 -0.0740  0.2775
 2189DOPE   C4A25684  17.821  24.256  12.195  0.0482 -0.1410 -0.1225
 2189DOPE   C1B25685  18.931  23.011  11.969 -0.0369 -0.0249  0.1707
 2189DOPE   D2B25686  19.016  22.779  11.651  0.2848 -0.1374  0.0467
 2189DOPE   C3B25687  19.025  22.944  11.213  0.1276 -0.0741 -0.0038
 2189DOPE   C4B25688  18.723  23.046  10.867  0.1075  0.1681  0.0088
 2190POSM   NC325689  23.773  26.621  12.683  0.2279  0.0769 -0.1789
 2190POSM   PO425690  24.048  26.447  12.404 -0.1008 -0.0951 -0.0374
 2190POSM   AM125691  23.892  26.450  12.106 -0.1195 -0.1362  0.0102
 2190POSM   AM225692  23.624  26.454  11.997  0.0952 -0.1953 -0.0666
 2190POSM   T1A25693  23.881  26.587  11.654 -0.4002 -0.4585  0.1159
 2190POSM   C2A25694  24.014  26.857  11.262 -0.2842 -0.3276 -0.0288
 2190POSM   C3A25695  24.301  26.946  10.855 -0.2448 -0.0323 -0.3643
 2190POSM   C1B25696  23.389  26.407  11.703 -0.1025 -0.0270  0.1133
 2190POSM   D2B25697  23.218  26.312  11.304  0.1239 -0.0596  0.1693
 2190POSM   C3B25698  23.445  26.317  10.976 -0.2909  0.0840 -0.0889
 2190POSM   C4B25699  23.801  25.981  10.879  0.3904  0.0779 -0.0080
 2191POSM   NC325700  14.318  30.148  15.187  0.1216 -0.1177  0.1673
 2191POSM   PO425701  13.956  30.199  15.278 -0.0216 -0.2506 -0.2419
 2191POSM   AM125702  13.810  30.301  14.998  0.0494  0.0683  0.1368
 2191POSM   AM225703  13.881  30.275  14.703 -0.0609  0.0028 -0.0854
 2191POSM   T1A25704  13.445  30.532  14.761 -0.1438 -0.1529 -0.2981
 2191POSM   C2A25705  13.421  30.983  14.533 -0.4217 -0.0923 -0.2200
 2191POSM   C3A25706  13.694  31.337  14.276  0.1107 -0.3061  0.1661
 2191POSM   C1B25707  13.992  30.267  14.341  0.0080  0.1762 -0.1406
 2191POSM   D2B25708  14.005  30.226  13.879  0.1829 -0.1279 -0.0268
 2191POSM   C3B25709  14.094  30.650  13.729 -0.2514 -0.0009 -0.1172
 2191POSM   C4B25710  14.141  31.117  13.914  0.3324 -0.1831  0.0584
 2192DOPE   NH325711  14.623  24.985  13.981  0.0502 -0.0571  0.1290
 2192DOPE   PO425712  14.764  25.286  14.034 -0.0690 -0.2379  0.0795
 2192DOPE   GL125713  14.687  25.374  13.684 -0.1912 -0.3652  0.1237
 2192DOPE   GL225714  14.505  25.575  13.659  0.0696 -0.2838 -0.3427
 2192DOPE   C1A25715  14.931  25.671  13.410 -0.2970 -0.1268 -0.2650
 2192DOPE   D2A25716  15.064  26.061  13.288  0.1181  0.2194 -0.0394
 2192DOPE   C3A25717  14.964  26.251  12.882 -0.0613 -0.1044  0.1107
 2192DOPE   C4A25718  15.081  26.097  12.429  0.1082 -0.1542  0.0477
 2192DOPE   C1B25719  14.389  25.603  13.224 -0.1910  0.3164 -0.2762
 2192DOPE   D2B25720  14.387  25.590  12.763  0.1576 -0.1724 -0.3172
 2192DOPE   C3B25721  14.604  25.838  12.429 -0.2066 -0.1147 -0.0835
 2192DOPE   C4B25722  14.706  26.137  12.049 -0.0606  0.0887 -0.3554
 2193POSM   NC325723  12.895  24.972  14.098 -0.1253 -0.2122 -0.0147
 2193POSM   PO425724  13.155  24.676  14.094  0.2544 -0.0438 -0.0007
 2193POSM   AM125725  13.188  24.775  13.787  0.2651 -0.3266 -0.1069
 2193POSM   AM225726  13.024  24.971  13.633  0.2298  0.0877  0.1388
 2193POSM   T1A25727  13.258  24.567  13.342  0.1855 -0.0617  0.2332
 2193POSM   C2A25728  13.269  24.700  12.863  0.0387  0.1246  0.3092
 2193POSM   C3A25729  13.605  24.698  12.545  0.1099  0.0430 -0.1759
 2193POSM   C1B25730  12.979  25.103  13.285 -0.3055  0.1690 -0.1652
 2193POSM   D2B25731  13.000  25.393  12.930  0.1272  0.2505  0.0352
 2193POSM   C3B25732  12.656  25.520  12.657  0.2815  0.2651 -0.1382
 2193POSM   C4B25733  12.657  25.697  12.225  0.2909  0.1799  0.0685
 2194DOPE   NH325734  17.089  33.958  15.368 -0.4396 -0.0135  0.2429
 2194DOPE   PO425735  17.224  33.694  15.216 -0.1392  0.0379 -0.0874
 2194DOPE   GL125736  17.095  33.611  14.756  0.1181  0.2307 -0.1179
 2194DOPE   GL225737  16.849  33.707  14.674  0.2814  0.0188  0.0254
 2194DOPE   C1A25738  17.188  33.476  14.347  0.2216 -0.1396 -0.2150
 2194DOPE   D2A25739  17.197  33.165  13.984  0.0073  0.1268  0.2018
 2194DOPE   C3A25740  17.068  33.379  13.604  0.0820  0.0318  0.0264
 2194DOPE   C4A25741  16.711  33.518  13.411 -0.3734  0.2509  0.1910
 2194DOPE   C1B25742  16.670  34.065  14.405  0.5708  0.0649  0.1662
 2194DOPE   D2B25743  16.469  34.403  14.145 -0.2274  0.0447  0.1637
 2194DOPE   C3B25744  16.217  34.385  13.767  0.0242 -0.4296 -0.1498
 2194DOPE   C4B25745  16.230  34.635  13.347  0.0710 -0.2660 -0.2543
 2195POSM   NC325746  14.390  27.922  14.606 -0.0984  0.1973 -0.0857
 2195POSM   PO425747  14.174  27.628  14.459 -0.1678  0.1242  0.0558
 2195POSM   AM125748  13.970  27.795  14.301 -0.2127 -0.2987  0.1678
 2195POSM   AM225749  13.718  27.964  14.291  0.1758  0.0581  0.0020
 2195POSM   T1A25750  13.822  27.854  13.826  0.2882 -0.1696  0.3679
 2195POSM   C2A25751  13.645  28.109  13.468 -0.2271  0.1019  0.2703
 2195POSM   C3A25752  13.463  28.293  13.101  0.0245  0.0448  0.2355
 2195POSM   C1B25753  13.435  28.157  14.342 -0.2967 -0.0486 -0.0689
 2195POSM   D2B25754  13.024  28.242  14.310  0.1436 -0.0825  0.1700
 2195POSM   C3B25755  12.776  28.346  13.990  0.0574 -0.1327 -0.0920
 2195POSM   C4B25756  12.456  28.412  13.650  0.0963 -0.0024  0.1742
 2196DOPS   CNO25757  23.489  25.171  12.565  0.1456 -0.1320  0.1083
 2196DOPS   PO425758  23.362  25.486  12.445  0.2041  0.2141 -0.0909
 2196DOPS   GL125759  23.253  25.285  12.097 -0.0588 -0.2261 -0.0649
 2196DOPS   GL225760  23.448  25.304  11.874  0.1647 -0.0287  0.2927
 2196DOPS   C1A25761  22.915  25.414  11.755  0.0178  0.1041 -0.0539
 2196DOPS   D2A25762  22.578  25.512  11.455  0.0760 -0.0280  0.3506
 2196DOPS   C3A25763  22.681  25.433  11.018  0.1700  0.1278  0.3203
 2196DOPS   C4A25764  22.576  25.274  10.654 -0.2071  0.2163  0.0666
 2196DOPS   C1B25765  23.266  25.458  11.421  0.1151  0.1302  0.1470
 2196DOPS   D2B25766  23.311  25.348  10.965 -0.0608  0.0867 -0.2734
 2196DOPS   C3B25767  23.488  25.648  10.657 -0.1876 -0.0148 -0.0853
 2196DOPS   C4B25768  23.595  25.824  10.281  0.2079  0.0159 -0.0212
 2197DOPC   NC325769  17.597  31.466  14.521 -0.0582  0.0062 -0.2764
 2197DOPC   PO425770  17.257  31.429  14.707 -0.1403  0.0844  0.0910
 2197DOPC   GL125771  17.045  31.498  14.310 -0.0569  0.1368 -0.0412
 2197DOPC   GL225772  16.759  31.420  14.533  0.4120 -0.1033 -0.1794
 2197DOPC   C1A25773  16.838  31.365  13.906  0.0327 -0.2919 -0.2988
 2197DOPC   D2A25774  16.559  31.067  13.712 -0.2743  0.0136 -0.1858
 2197DOPC   C3A25775  16.156  31.228  13.684 -0.0732  0.0542 -0.0279
 2197DOPC   C4A25776  15.912  31.550  13.967  0.2372  0.0483  0.1197
 2197DOPC   C1B25777  16.683  31.029  14.211  0.2088  0.0763  0.1174
 2197DOPC   D2B25778  16.471  30.659  14.038 -0.2135 -0.2098  0.1108
 2197DOPC   C3B25779  16.229  30.761  13.685 -0.1784  0.1429  0.1973
 2197DOPC   C4B25780  16.242  30.832  13.194  0.3001  0.3038  0.0345
 2198DOPS   CNO25781  11.318  34.194  16.385 -0.2486  0.1294  0.1134
 2198DOPS   PO425782  11.575  34.492  16.422 -0.2621  0.0313  0.0683
 2198DOPS   GL125783  11.618  34.436  16.063 -0.0279  0.2099 -0.2223
 2198DOPS   GL225784  11.892  34.571  16.038 -0.0013  0.1458 -0.1727
 2198DOPS   C1A25785  11.625  34.289  15.672 -0.2326 -0.2160 -0.3614
 2198DOPS   D2A25786  11.795  34.414  15.220 -0.0525 -0.1349 -0.1684
 2198DOPS   C3A25787  11.918  34.870  15.120 -0.0317  0.0091  0.1847
 2198DOPS   C4A25788  11.996  35.333  15.290 -0.0403  0.3012 -0.0534
 2198DOPS   C1B25789  12.047  34.592  15.585  0.1357 -0.1037 -0.2634
 2198DOPS   D2B25790  12.416  34.537  15.354  0.2905 -0.2424  0.0168
 2198DOPS   C3B25791  12.352  34.679  14.909  0.2213  0.0301  0.3112
 2198DOPS   C4B25792  11.993  34.773  14.616 -0.4290  0.1480 -0.3394
 2199DOPE   NH325793  20.462  32.416  13.671 -0.2080 -0.0824  0.1697
 2199DOPE   PO425794  20.732  32.592  13.579 -0.3574 -0.0209 -0.2636
 2199DOPE   GL125795  20.880  32.562  13.231  0.1668  0.0500  0.0326
 2199DOPE   GL225796  21.090  32.336  13.255  0.0783  0.0871  0.1234
 2199DOPE   C1A25797  20.833  32.843  12.832 -0.0396  0.0394 -0.2740
 2199DOPE   D2A25798  20.792  32.973  12.416  0.1879 -0.2478 -0.1221
 2199DOPE   C3A25799  20.372  32.851  12.223  0.2080 -0.1132 -0.1916
 2199DOPE   C4A25800  20.201  32.506  12.023  0.0907  0.1160  0.1391
 2199DOPE   C1B25801  21.309  32.634  12.957 -0.1197  0.0148  0.1166
 2199DOPE   D2B25802  21.635  32.518  12.667  0.1013 -0.4437 -0.0998
 2199DOPE   C3B25803  22.086  32.500  12.727 -0.0613 -0.1904  0.1229
 2199DOPE   C4B25804  22.362  32.411  12.365 -0.1120  0.1423  0.1193
 2200DOPC   NC325805  14.818  29.808  14.915 -0.0769  0.2766 -0.3989
 2200DOPC   PO425806  14.515  29.640  15.065  0.1458 -0.0368 -0.1069
 2200DOPC   GL125807  14.332  29.713  14.665  0.3357 -0.0780  0.0689
 2200DOPC   GL225808  14.339  29.993  14.686 -0.1289 -0.1100 -0.0680
 2200DOPC   C1A25809  14.084  29.772  14.265 -0.0047 -0.3436 -0.1763
 2200DOPC   D2A25810  14.039  29.669  13.806 -0.0150 -0.0329 -0.1864
 2200DOPC   C3A25811  13.624  29.571  13.663 -0.0941 -0.0548  0.1156
 2200DOPC   C4A25812  13.156  29.676  13.749 -0.1195 -0.3593 -0.1483
 2200DOPC   C1B25813  14.491  29.972  14.245  0.2750 -0.1809 -0.1321
 2200DOPC   D2B25814  14.819  29.972  13.898 -0.1722  0.1154  0.0073
 2200DOPC   C3B25815  14.429  29.940  13.688  0.0531  0.0737 -0.1163
 2200DOPC   C4B25816  14.122  29.871  13.350  0.0195 -0.2273 -0.1831
 2201DOPS   CNO25817  12.428  25.610  14.239  0.0899  0.0938  0.0102
 2201DOPS   PO425818  12.261  25.952  14.226  0.3290  0.5597 -0.0872
 2201DOPS   GL125819  12.013  25.857  13.889 -0.1239  0.2610 -0.1681
 2201DOPS   GL225820  11.943  25.564  13.823  0.1237 -0.2012 -0.1079
 2201DOPS   C1A25821  11.783  26.074  13.532  0.1325  0.0412 -0.0879
 2201DOPS   D2A25822  11.347  26.078  13.398 -0.1667  0.0039  0.3626
 2201DOPS   C3A25823  11.176  26.123  12.912 -0.2867  0.0754 -0.2369
 2201DOPS   C4A25824  11.126  26.111  12.475  0.0433 -0.0264  0.0488
 2201DOPS   C1B25825  12.102  25.638  13.421 -0.3538 -0.3507 -0.2670
 2201DOPS   D2B25826  12.034  25.432  13.070 -0.0829 -0.1227  0.1599
 2201DOPS   C3B25827  11.744  25.505  12.742  0.0734  0.1364 -0.4677
 2201DOPS   C4B25828  11.713  25.692  12.350 -0.3098 -0.4257  0.1356
 2202DOPC   NC325829  15.631  26.706  14.557  0.0121 -0.4792 -0.0706
 2202DOPC   PO425830  16.038  26.730  14.596 -0.0533  0.2512 -0.1067
 2202DOPC   GL125831  16.047  26.772  14.231  0.0568  0.0594 -0.1145
 2202DOPC   GL225832  15.896  26.999  14.140  0.0229 -0.0548  0.0628
 2202DOPC   C1A25833  15.840  26.604  13.830  0.0552  0.0563 -0.0314
 2202DOPC   D2A25834  15.664  26.382  13.504  0.1663 -0.1178 -0.1291
 2202DOPC   C3A25835  15.891  26.515  13.159 -0.0439  0.0678  0.1091
 2202DOPC   C4A25836  16.032  26.369  12.759  0.1200  0.2545 -0.2268
 2202DOPC   C1B25837  15.786  27.025  13.677  0.0011 -0.1968 -0.0449
 2202DOPC   D2B25838  15.904  26.999  13.251  0.0974  0.1279  0.1574
 2202DOPC   C3B25839  15.865  26.929  12.813 -0.0475  0.1338  0.4412
 2202DOPC   C4B25840  15.939  26.699  12.407  0.3415  0.1139  0.0853
 2203DOPE   NH325841  23.433  33.387  13.686  0.2993  0.2335 -0.1872
 2203DOPE   PO425842  23.174  33.257  13.475  0.0506 -0.0907 -0.1498
 2203DOPE   GL125843  23.372  33.196  13.198 -0.3717 -0.0619 -0.0667
 2203DOPE   GL225844  23.587  32.996  13.233  0.1506  0.0381 -0.1737
 2203DOPE   C1A25845  23.459  33.446  12.803  0.0241 -0.1163 -0.0679
 2203DOPE   D2A25846  23.696  33.810  12.554 -0.0941 -0.1957 -0.1745
 2203DOPE   C3A25847  24.070  33.871  12.272 -0.4691 -0.2882  0.2522
 2203DOPE   C4A25848  24.416  34.048  12.019  0.1145 -0.3435  0.0960
 2203DOPE   C1B25849  23.317  32.906  12.862  0.2250  0.3475  0.1462
 2203DOPE   D2B25850  23.344  32.548  12.623 -0.3084 -0.1238  0.1417
 2203DOPE   C3B25851  23.213  32.545  12.193 -0.3957 -0.1622  0.3703
 2203DOPE   C4B25852  23.285  32.235  11.850 -0.2464  0.6013 -0.3537
 2204POSM   NC325853  18.655  31.627  14.504  0.1574  0.0113  0.0687
 2204POSM   PO425854  18.534  31.416  14.218  0.2294 -0.0285  0.2682
 2204POSM   AM125855  18.595  31.438  13.891  0.0311 -0.2530  0.0345
 2204POSM   AM225856  18.736  31.347  13.732  0.2866  0.3477  0.2257
 2204POSM   T1A25857  18.359  31.329  13.444  0.0691 -0.3584 -0.1636
 2204POSM   C2A25858  18.135  30.922  13.363 -0.1850 -0.1179 -0.0131
 2204POSM   C3A25859  17.834  30.589  13.608  0.0599  0.0449 -0.2734
 2204POSM   C1B25860  18.797  31.486  13.403 -0.1553  0.1123  0.0119
 2204POSM   D2B25861  18.932  31.522  12.962 -0.1302  0.2239 -0.2573
 2204POSM   C3B25862  18.870  31.163  12.706  0.3370  0.1519  0.1034
 2204POSM   C4B25863  18.617  30.860  12.562 -0.2391  0.2168  0.2035
 2205DOPE   NH325864  15.112  32.808  15.764 -0.2577 -0.0180 -0.0618
 2205DOPE   PO425865  15.132  32.731  15.431  0.4617  0.5923  0.1211
 2205DOPE   GL125866  14.975  32.908  15.184 -0.1383 -0.4065 -0.4081
 2205DOPE   GL225867  15.103  33.157  15.072 -0.0020 -0.3836 -0.2561
 2205DOPE   C1A25868  14.908  32.779  14.750  0.0305 -0.0819  0.0163
 2205DOPE   D2A25869  15.060  32.477  14.418  0.2787  0.0835 -0.1154
 2205DOPE   C3A25870  15.213  32.144  14.123  0.0076  0.1009 -0.0492
 2205DOPE   C4A25871  15.497  31.790  14.068  0.0588 -0.1301  0.0517
 2205DOPE   C1B25872  15.075  33.326  14.639  0.0240  0.1562  0.2021
 2205DOPE   D2B25873  15.066  33.325  14.181  0.2940 -0.2982 -0.2104
 2205DOPE   C3B25874  15.170  33.373  13.733 -0.0440  0.0080  0.0164
 2205DOPE   C4B25875  15.483  33.471  13.492  0.1331 -0.0714 -0.1543
 2206POSM   NC325876  19.665  31.881  14.567  0.1091 -0.0638  0.0891
 2206POSM   PO425877  19.582  31.902  14.181 -0.0666 -0.2244 -0.1171
 2206POSM   AM125878  19.453  31.894  13.876 -0.1426 -0.2494 -0.2226
 2206POSM   AM225879  19.286  31.983  13.685  0.2233 -0.0003  0.3155
 2206POSM   T1A25880  19.264  31.520  13.587 -0.1772  0.0145 -0.2167
 2206POSM   C2A25881  19.266  31.192  13.292  0.0479 -0.1664  0.4374
 2206POSM   C3A25882  19.077  30.821  13.019 -0.1630  0.0945  0.0915
 2206POSM   C1B25883  19.153  32.050  13.302  0.4122  0.2743 -0.1093
 2206POSM   D2B25884  18.885  32.008  12.877  0.2303 -0.1620  0.1155
 2206POSM   C3B25885  18.524  32.225  12.885 -0.0538 -0.1358  0.1847
 2206POSM   C4B25886  18.333  32.561  12.586  0.2683  0.0391 -0.1974
 2207DOPC   NC325887  19.729  29.631  13.777 -0.0731 -0.0530  0.0836
 2207DOPC   PO425888  20.011  29.935  13.696  0.1057 -0.0608  0.0160
 2207DOPC   GL125889  19.844  30.035  13.426 -0.2797  0.3099 -0.3070
 2207DOPC   GL225890  19.646  29.858  13.254  0.0611  0.1896 -0.0422
 2207DOPC   C1A25891  19.896  30.295  13.055 -0.0941 -0.1527  0.1177
 2207DOPC   D2A25892  19.756  30.375  12.546  0.1254 -0.1166  0.1794
 2207DOPC   C3A25893  19.811  29.977  12.390  0.3814 -0.0800  0.3806
 2207DOPC   C4A25894  19.951  29.559  12.534 -0.2619  0.1450 -0.5330
 2207DOPC   C1B25895  19.497  29.843  12.758 -0.3496  0.0315  0.1265
 2207DOPC   D2B25896  19.312  29.782  12.372  0.0126 -0.0300  0.1957
 2207DOPC   C3B25897  19.060  29.684  11.942  0.0914  0.0912 -0.1260
 2207DOPC   C4B25898  19.079  29.941  11.605 -0.0164  0.2765 -0.3977
 2208DOPE   NH325899  19.843  33.416  13.987  0.2253 -0.0902 -0.0886
 2208DOPE   PO425900  19.850  33.282  13.682  0.1976  0.1258 -0.0645
 2208DOPE   GL125901  19.814  33.255  13.370  0.2509  0.2120 -0.2367
 2208DOPE   GL225902  19.973  33.084  13.274 -0.1136  0.3052  0.3937
 2208DOPE   C1A25903  19.488  33.161  13.068 -0.0565  0.1209 -0.1830
 2208DOPE   D2A25904  19.354  32.995  12.661 -0.2096 -0.1575 -0.0865
 2208DOPE   C3A25905  19.207  33.355  12.402  0.0764  0.2920  0.0723
 2208DOPE   C4A25906  18.810  33.499  12.303 -0.1191 -0.1003 -0.3616
 2208DOPE   C1B25907  19.939  33.403  12.974 -0.2185 -0.3292 -0.0591
 2208DOPE   D2B25908  19.665  33.440  12.613  0.0951  0.1649  0.0333
 2208DOPE   C3B25909  19.929  33.719  12.369  0.1180 -0.3367 -0.1527
 2208DOPE   C4B25910  20.069  34.148  12.320  0.5245  0.0325 -0.0892
 2209POSM   NC325911  19.175  23.158  13.035 -0.0687  0.0131  0.1477
 2209POSM   PO425912  19.103  23.503  12.877  0.2242 -0.0209  0.1436
 2209POSM   AM125913  19.059  23.484  12.586 -0.0658  0.3265  0.0195
 2209POSM   AM225914  19.186  23.503  12.362 -0.4276  0.5045 -0.0245
 2209POSM   T1A25915  18.741  23.564  12.212 -0.0657  0.2465 -0.3095
 2209POSM   C2A25916  18.747  23.466  11.756  0.0000 -0.1167 -0.3595
 2209POSM   C3A25917  18.546  23.493  11.308 -0.0157  0.1973 -0.0445
 2209POSM   C1B25918  19.195  23.401  12.053 -0.1426 -0.2831  0.0146
 2209POSM   D2B25919  19.268  23.187  11.617 -0.2864  0.1249 -0.2645
 2209POSM   C3B25920  19.567  23.293  11.384  0.0615  0.1321 -0.1942
 2209POSM   C4B25921  19.695  23.518  11.012 -0.0914 -0.0750 -0.2759
 2210DOPE   NH325922  21.294   1.045  13.815  0.2118 -0.0430  0.1286
 2210DOPE   PO425923  21.241   0.980  13.539  0.3072 -0.1339  0.0012
 2210DOPE   GL125924  21.450   0.873  13.213 -0.0700  0.1650 -0.2886
 2210DOPE   GL225925  21.364   1.177  13.126 -0.0307 -0.0278 -0.2540
 2210DOPE   C1A25926  21.365   0.683  12.821  0.0221 -0.3447  0.0069
 2210DOPE   D2A25927  21.433   0.830  12.353 -0.1180  0.1268  0.0086
 2210DOPE   C3A25928  21.597   0.802  11.923 -0.2123  0.2969 -0.0654
 2210DOPE   C4A25929  21.697   0.592  11.537  0.0382 -0.0935 -0.0414
 2210DOPE   C1B25930  21.065   1.095  12.680 -0.0435  0.3031 -0.0790
 2210DOPE   D2B25931  21.068   1.189  12.207 -0.1631 -0.2829  0.1024
 2210DOPE   C3B25932  20.926   1.571  11.984 -0.1424  0.0342  0.0945
 2210DOPE   C4B25933  21.049   1.866  11.671 -0.0076 -0.3149  0.3658
 2211DOPE   NH325934  14.530  27.289  14.370 -0.1937  0.2866  0.1697
 2211DOPE   PO425935  14.722  27.569  14.395  0.0564  0.1753  0.0149
 2211DOPE   GL125936  14.537  27.766  14.159 -0.2872  0.4564  0.0870
 2211DOPE   GL225937  14.658  28.024  14.109  0.1614 -0.0323  0.0598
 2211DOPE   C1A25938  14.298  27.747  13.772 -0.2309  0.0975 -0.4707
 2211DOPE   D2A25939  14.065  27.627  13.383 -0.1455  0.2113 -0.1157
 2211DOPE   C3A25940  13.856  27.637  12.999 -0.1376  0.0043 -0.1433
 2211DOPE   C4A25941  13.464  27.812  12.778 -0.1021  0.1248  0.0998
 2211DOPE   C1B25942  14.611  28.221  13.648  0.2140 -0.1673  0.2553
 2211DOPE   D2B25943  14.546  28.451  13.307 -0.0769  0.0770 -0.3291
 2211DOPE   C3B25944  14.760  28.447  12.873 -0.1490 -0.0879 -0.0660
 2211DOPE   C4B25945  15.208  28.551  12.664  0.1532  0.0320  0.0579
 2212DOPE   NH325946  19.727  32.857  13.976  0.1747  0.2919 -0.1403
 2212DOPE   PO425947  19.680  32.825  13.684 -0.0681  0.1772  0.0381
 2212DOPE   GL125948  19.490  32.672  13.456  0.3931  0.0436 -0.2074
 2212DOPE   GL225949  19.559  32.650  13.217 -0.1050  0.0177  0.0132
 2212DOPE   C1A25950  19.102  32.877  13.290 -0.0016 -0.3498  0.0953
 2212DOPE   D2A25951  19.017  33.236  12.987 -0.1568 -0.0942 -0.0956
 2212DOPE   C3A25952  18.623  33.428  12.802  0.2956  0.2413  0.2013
 2212DOPE   C4A25953  18.251  33.518  12.462 -0.3385  0.0876 -0.0674
 2212DOPE   C1B25954  19.805  32.763  12.869  0.1345  0.0311  0.2619
 2212DOPE   D2B25955  20.029  33.021  12.564  0.1909 -0.1594 -0.2683
 2212DOPE   C3B25956  19.867  33.206  12.150  0.2372 -0.0061 -0.0688
 2212DOPE   C4B25957  19.999  33.543  11.865 -0.1216 -0.0006 -0.0997
 2213DOPE   NH325958  13.800  24.760  13.842 -0.0505 -0.0465  0.1036
 2213DOPE   PO425959  13.808  25.020  13.987  0.3823 -0.0479 -0.0657
 2213DOPE   GL125960  13.771  25.216  13.621  0.2115 -0.0950 -0.2529
 2213DOPE   GL225961  13.524  25.040  13.515 -0.0158  0.0942  0.1592
 2213DOPE   C1A25962  13.754  25.608  13.381  0.0427 -0.0923  0.2571
 2213DOPE   D2A25963  13.341  25.758  13.121  0.0801 -0.1230  0.0069
 2213DOPE   C3A25964  13.173  26.163  13.240 -0.0763  0.1405  0.0829
 2213DOPE   C4A25965  13.053  26.588  13.185  0.0453  0.0235  0.1196
 2213DOPE   C1B25966  13.459  25.254  13.089 -0.2518  0.0743 -0.2118
 2213DOPE   D2B25967  13.341  25.157  12.660 -0.0999  0.3657 -0.3239
 2213DOPE   C3B25968  13.577  25.198  12.231  0.1147 -0.3109  0.1676
 2213DOPE   C4B25969  13.622  25.693  12.184 -0.0917 -0.0482  0.0414
 2214POSM   NC325970  21.685  24.783  12.860  0.1170 -0.3887  0.2915
 2214POSM   PO425971  21.466  25.088  13.006 -0.3758  0.1508 -0.2789
 2214POSM   AM125972  21.323  25.224  12.783  0.2491 -0.0067  0.0144
 2214POSM   AM225973  21.129  25.162  12.607  0.0736  0.0445 -0.3591
 2214POSM   T1A25974  21.367  25.593  12.437  0.1157 -0.3581 -0.0776
 2214POSM   C2A25975  21.498  25.990  12.236  0.1691 -0.0864 -0.1855
 2214POSM   C3A25976  21.471  26.449  12.209 -0.1847  0.0451  0.2187
 2214POSM   C1B25977  21.023  25.092  12.287 -0.4101 -0.1561 -0.1370
 2214POSM   D2B25978  21.208  24.792  11.986  0.0639 -0.0436  0.1258
 2214POSM   C3B25979  21.196  24.668  11.568  0.0928 -0.1233 -0.1099
 2214POSM   C4B25980  20.938  24.466  11.255 -0.2360 -0.5944  0.2308
 2215DOPE   NH325981  21.007  31.961  13.673 -0.1336  0.0472 -0.0679
 2215DOPE   PO425982  20.711  32.030  13.507 -0.3566  0.2779  0.1302
 2215DOPE   GL125983  20.611  32.256  13.238 -0.4599  0.2616  0.0503
 2215DOPE   GL225984  20.344  32.238  13.114 -0.1951 -0.1327  0.1454
 2215DOPE   C1A25985  20.698  32.359  12.779  0.0461  0.0323  0.1886
 2215DOPE   D2A25986  20.731  32.523  12.268 -0.4208 -0.2708 -0.0270
 2215DOPE   C3A25987  20.641  32.238  11.912 -0.0095 -0.0387  0.0011
 2215DOPE   C4A25988  20.614  31.777  11.841 -0.3843 -0.2779 -0.1291
 2215DOPE   C1B25989  20.333  32.080  12.698  0.0449  0.1329  0.1694
 2215DOPE   D2B25990  20.386  32.083  12.292 -0.0069  0.1870 -0.1082
 2215DOPE   C3B25991  19.930  32.131  12.070  0.0059  0.0751 -0.2100
 2215DOPE   C4B25992  19.695  32.474  11.893  0.3976 -0.2063  0.1139
 2216DOPE   NH325993  21.996   2.237  13.672 -0.3178 -0.1461 -0.0139
 2216DOPE   PO425994  21.845   2.462  13.479  0.5395  0.1208 -0.1804
 2216DOPE   GL125995  21.550   2.262  13.202  0.6118 -0.5154  0.0020
 2216DOPE   GL225996  21.348   2.346  13.329 -0.1616  0.0520 -0.1623
 2216DOPE   C1A25997  21.470   2.013  12.854 -0.0789  0.0453  0.1297
 2216DOPE   D2A25998  21.461   1.765  12.430  0.0412  0.2053  0.0926
 2216DOPE   C3A25999  21.588   2.026  12.094  0.2544 -0.0627  0.0672
 2216DOPE   C4A26000  21.604   2.426  11.848 -0.1507  0.2104  0.0325
 2216DOPE   C1B26001  20.966   2.621  13.509  0.0516 -0.0151  0.3997
 2216DOPE   D2B26002  20.713   3.040  13.463 -0.0031 -0.0567 -0.1390
 2216DOPE   C3B26003  20.587   3.111  13.033  0.3156 -0.3396  0.1204
 2216DOPE   C4B26004  20.482   3.551  12.748 -0.1630  0.0338 -0.0325
 2217POSM   NC326005  21.269  26.526  13.235  0.0847  0.3351  0.1081
 2217POSM   PO426006  21.387  26.798  13.000  0.0931 -0.1390 -0.1424
 2217POSM   AM126007  21.277  26.993  12.760  0.0825 -0.4605  0.0068
 2217POSM   AM226008  21.270  27.230  12.701  0.0479 -0.1067  0.1077
 2217POSM   T1A26009  21.139  26.796  12.318  0.2296  0.1913  0.0068
 2217POSM   C2A26010  21.195  26.769  11.864 -0.0791  0.1403  0.1395
 2217POSM   C3A26011  21.043  26.994  11.494  0.3767 -0.1058 -0.2050
 2217POSM   C1B26012  21.244  27.288  12.354  0.2151 -0.0054 -0.2462
 2217POSM   D2B26013  21.207  27.309  11.898 -0.3095  0.1834  0.1193
 2217POSM   C3B26014  21.209  27.465  11.447  0.0401 -0.2247  0.2574
 2217POSM   C4B26015  21.455  27.864  11.313 -0.1961 -0.1659  0.0744
 2218DOPC   NC326016  15.173  30.353  15.521  0.0532 -0.0402  0.3000
 2218DOPC   PO426017  15.035  30.217  15.163 -0.1684  0.0690 -0.1225
 2218DOPC   GL126018  14.844  30.280  14.778  0.4526 -0.4665 -0.2717
 2218DOPC   GL226019  15.082  30.392  14.626  0.0374 -0.3150  0.3678
 2218DOPC   C1A26020  14.652  30.456  14.377  0.0866 -0.1104  0.2015
 2218DOPC   D2A26021  14.501  30.368  13.952 -0.1861 -0.0803  0.3162
 2218DOPC   C3A26022  14.569  30.745  13.687 -0.2803  0.1137  0.1315
 2218DOPC   C4A26023  14.756  31.239  13.779  0.0810  0.3522 -0.0020
 2218DOPC   C1B26024  15.094  30.452  14.152 -0.0038 -0.1025 -0.1415
 2218DOPC   D2B26025  15.004  30.408  13.755 -0.0508 -0.1491 -0.1395
 2218DOPC   C3B26026  14.862  30.117  13.455  0.2771  0.2474  0.0851
 2218DOPC   C4B26027  14.570  30.082  13.070 -0.0186 -0.3079  0.0539
 2219DOPE   NH326028  14.475  26.783  14.633 -0.1837 -0.1509  0.3052
 2219DOPE   PO426029  14.257  26.683  14.465  0.2384 -0.0386 -0.1964
 2219DOPE   GL126030  14.129  26.958  14.205 -0.0615 -0.3457 -0.2200
 2219DOPE   GL226031  13.998  27.196  14.258 -0.2188  0.2936  0.1119
 2219DOPE   C1A26032  14.239  27.265  13.850 -0.2914  0.2155 -0.1350
 2219DOPE   D2A26033  14.639  27.416  13.888 -0.1760 -0.0018 -0.0514
 2219DOPE   C3A26034  14.867  27.752  13.643  0.0000  0.1466  0.2294
 2219DOPE   C4A26035  15.156  28.036  13.821  0.3737 -0.4284 -0.0707
 2219DOPE   C1B26036  13.799  27.339  13.880  0.3734  0.0303  0.1366
 2219DOPE   D2B26037  13.415  27.535  13.749  0.1213 -0.3405 -0.2207
 2219DOPE   C3B26038  13.066  27.260  13.625  0.0170  0.0822 -0.2753
 2219DOPE   C4B26039  12.851  27.080  13.279  0.0959  0.3726  0.2584
 2220DOPC   NC326040  21.369  30.384  12.710 -0.0400 -0.0608  0.0400
 2220DOPC   PO426041  21.437  30.515  13.037 -0.1654  0.1681  0.1277
 2220DOPC   GL126042  21.213  30.771  12.965 -0.1352  0.4035  0.0282
 2220DOPC   GL226043  20.971  30.615  12.936  0.0707 -0.3644 -0.2374
 2220DOPC   C1A26044  21.115  30.885  12.528  0.0545  0.0178 -0.2682
 2220DOPC   D2A26045  20.908  31.048  12.164 -0.2225  0.2318  0.3308
 2220DOPC   C3A26046  20.826  31.354  11.864 -0.0632  0.2943  0.0481
 2220DOPC   C4A26047  20.771  31.258  11.384  0.2499  0.1920  0.1791
 2220DOPC   C1B26048  20.715  30.581  12.579  0.1656  0.2367  0.1056
 2220DOPC   D2B26049  20.589  30.626  12.112  0.3574  0.1330  0.1995
 2220DOPC   C3B26050  20.619  30.867  11.726 -0.2246 -0.2678 -0.0990
 2220DOPC   C4B26051  20.422  30.890  11.349 -0.2513 -0.2423  0.0733
 2221POSM   NC326052  13.715  24.102  14.208  0.1409  0.2614  0.0459
 2221POSM   PO426053  14.038  24.287  14.009  0.1650  0.4197 -0.1433
 2221POSM   AM126054  14.016  24.333  13.670 -0.2172  0.2887  0.2909
 2221POSM   AM226055  14.075  24.263  13.380  0.2609  0.0427  0.1323
 2221POSM   T1A26056  13.763  24.566  13.293  0.1183  0.2956  0.5003
 2221POSM   C2A26057  13.808  24.848  12.918 -0.0293  0.1909 -0.0313
 2221POSM   C3A26058  13.862  25.092  12.610 -0.0947  0.0465  0.1457
 2221POSM   C1B26059  14.092  24.193  13.036  0.2680  0.1447  0.1888
 2221POSM   D2B26060  14.305  24.177  12.656  0.0144  0.2453 -0.0173
 2221POSM   C3B26061  14.173  24.023  12.222 -0.1836  0.1179 -0.0630
 2221POSM   C4B26062  14.174  24.032  11.807 -0.1519 -0.0079  0.2007
 2222DOPE   NH326063  20.114  26.183  13.334 -0.0943  0.3266  0.2031
 2222DOPE   PO426064  20.054  25.952  13.081  0.2787 -0.0880  0.1292
 2222DOPE   GL126065  20.077  25.993  12.673 -0.0096  0.0633 -0.2448
 2222DOPE   GL226066  19.991  25.725  12.624  0.4853 -0.0804 -0.2297
 2222DOPE   C1A26067  20.104  25.970  12.213  0.1535  0.0821 -0.0148
 2222DOPE   D2A26068  20.161  25.779  11.810  0.0178 -0.3128 -0.2309
 2222DOPE   C3A26069  20.014  25.602  11.376  0.0179 -0.1744  0.1166
 2222DOPE   C4A26070  19.586  25.555  11.197  0.1962 -0.3278 -0.1528
 2222DOPE   C1B26071  19.656  25.864  12.298 -0.0410 -0.1015 -0.1323
 2222DOPE   D2B26072  19.653  26.177  11.966  0.2681 -0.0645  0.2865
 2222DOPE   C3B26073  19.542  26.016  11.566  0.1136 -0.0765  0.0242
 2222DOPE   C4B26074  19.603  26.043  11.113 -0.0716  0.2992  0.0160
 2223DOPE   NH326075  22.160  27.526  12.755 -0.3549  0.1189  0.2233
 2223DOPE   PO426076  22.079  27.849  12.808  0.0395  0.0546 -0.0386
 2223DOPE   GL126077  22.057  27.781  12.362  0.2195  0.1109 -0.2613
 2223DOPE   GL226078  22.130  28.075  12.285 -0.0289  0.4193  0.2664
 2223DOPE   C1A26079  21.805  27.465  12.160 -0.3278 -0.2534 -0.0849
 2223DOPE   D2A26080  21.580  27.021  12.171  0.1602  0.1229  0.1739
 2223DOPE   C3A26081  21.566  27.033  11.674  0.1186 -0.2303 -0.0952
 2223DOPE   C4A26082  21.452  26.862  11.264  0.0742 -0.1732  0.1874
 2223DOPE   C1B26083  22.376  28.057  11.920 -0.0573  0.1459 -0.1325
 2223DOPE   D2B26084  22.611  28.021  11.533  0.1236 -0.0701  0.0661
 2223DOPE   C3B26085  22.377  28.005  11.128 -0.1230 -0.0532 -0.1883
 2223DOPE   C4B26086  22.364  28.223  10.715  0.1179  0.0015 -0.1367
 2224POSM   NC326087  15.523  25.342  14.349  0.0567 -0.1757 -0.1920
 2224POSM   PO426088  15.918  25.268  14.334 -0.0111 -0.0088  0.1039
 2224POSM   AM126089  15.896  25.096  14.024 -0.0723 -0.1808  0.3430
 2224POSM   AM226090  15.692  24.991  13.846 -0.2449  0.0684  0.0715
 2224POSM   T1A26091  16.158  24.913  13.602  0.0064  0.1419  0.2349
 2224POSM   C2A26092  16.094  24.704  13.225  0.1261 -0.0948  0.1637
 2224POSM   C3A26093  15.997  24.777  12.790 -0.0390 -0.1706 -0.1401
 2224POSM   C1B26094  15.595  24.992  13.491 -0.1445 -0.1544 -0.0392
 2224POSM   D2B26095  15.508  24.765  13.095 -0.1514  0.0455  0.1111
 2224POSM   C3B26096  15.573  24.997  12.757 -0.2144 -0.2089  0.0028
 2224POSM   C4B26097  15.691  24.866  12.337 -0.0725  0.3851 -0.2172
 2225DOPS   CNO26098  20.220  24.837  12.881  0.1520  0.0708  0.2678
 2225DOPS   PO426099  19.904  24.721  12.776  0.0410 -0.1717  0.1959
 2225DOPS   GL126100  19.769  24.788  12.499  0.0401 -0.1531 -0.3389
 2225DOPS   GL226101  19.685  24.523  12.375  0.2697  0.0525  0.0203
 2225DOPS   C1A26102  19.943  24.839  12.086  0.2341  0.0604  0.0019
 2225DOPS   D2A26103  20.299  24.627  11.808  0.1643 -0.0570 -0.2848
 2225DOPS   C3A26104  20.697  24.591  12.012 -0.0837 -0.0248 -0.0966
 2225DOPS   C4A26105  21.062  24.370  12.178 -0.0405 -0.0761 -0.0239
 2225DOPS   C1B26106  19.544  24.414  11.920 -0.2059 -0.1089  0.0158
 2225DOPS   D2B26107  19.781  24.609  11.541 -0.0437  0.1214  0.1355
 2225DOPS   C3B26108  19.586  24.534  11.132  0.1014  0.1203 -0.2131
 2225DOPS   C4B26109  19.575  24.813  10.770 -0.3335  0.0515  0.0298
 2226DOPC   NC326110  15.867  34.160  15.413 -0.1399 -0.1606  0.0667
 2226DOPC   PO426111  15.718  34.512  15.290 -0.0058 -0.1489  0.1018
 2226DOPC   GL126112  15.509  34.089  15.095 -0.2691 -0.0341  0.1406
 2226DOPC   GL226113  15.641  33.940  14.979 -0.1357 -0.2659 -0.1543
 2226DOPC   C1A26114  15.239  34.129  14.731  0.1459  0.1806 -0.3137
 2226DOPC   D2A26115  15.194  34.085  14.303  0.3126 -0.4129  0.0680
 2226DOPC   C3A26116  15.070  34.509  14.185  0.2392  0.3787 -0.1289
 2226DOPC   C4A26117  14.917  34.950  14.162  0.3443  0.0857  0.2046
 2226DOPC   C1B26118  15.687  34.119  14.571 -0.0088  0.3027 -0.1342
 2226DOPC   D2B26119  16.178  34.109  14.553  0.1089  0.2022 -0.0739
 2226DOPC   C3B26120  16.271  33.938  14.103 -0.2952  0.0084  0.1538
 2226DOPC   C4B26121  16.330  33.927  13.652  0.2458  0.1330  0.1806
 2227POSM   NC326122  19.098  30.617  14.061  0.0869  0.0347 -0.1469
 2227POSM   PO426123  19.383  30.392  14.245  0.1770 -0.1141  0.0372
 2227POSM   AM126124  19.197  30.193  14.071 -0.1359 -0.1126  0.2856
 2227POSM   AM226125  19.333  29.980  13.933  0.1446  0.0289 -0.0508
 2227POSM   T1A26126  18.881  30.012  13.694 -0.0150  0.4128 -0.0467
 2227POSM   C2A26127  18.733  29.632  13.527 -0.1219  0.1522  0.2836
 2227POSM   C3A26128  18.555  29.301  13.317 -0.0950 -0.0277 -0.0308
 2227POSM   C1B26129  19.364  30.110  13.627 -0.1088 -0.0101  0.1402
 2227POSM   D2B26130  19.513  30.418  13.353  0.0080  0.0567 -0.0586
 2227POSM   C3B26131  19.313  30.411  12.916 -0.0147  0.2379  0.0175
 2227POSM   C4B26132  18.974  30.460  12.629  0.1374 -0.1094  0.1378
 2228DOPE   NH326133  20.349  25.262  13.162 -0.0012 -0.0973  0.0982
 2228DOPE   PO426134  20.424  25.570  13.139  0.1924  0.0409  0.2036
 2228DOPE   GL126135  20.393  25.454  12.721 -0.2215  0.3104  0.4058
 2228DOPE   GL226136  20.583  25.194  12.622  0.0617  0.0293 -0.3937
 2228DOPE   C1A26137  20.293  25.521  12.276  0.1368  0.0316  0.2577
 2228DOPE   D2A26138  19.908  25.368  12.010  0.2344  0.0410  0.2109
 2228DOPE   C3A26139  19.626  25.475  11.712  0.0652  0.0869  0.2807
 2228DOPE   C4A26140  19.200  25.326  11.595  0.0766  0.1544 -0.2933
 2228DOPE   C1B26141  20.519  25.018  12.194  0.2882 -0.0076  0.1251
 2228DOPE   D2B26142  20.405  25.208  11.756  0.1555 -0.0803  0.2335
 2228DOPE   C3B26143  19.992  25.175  11.559 -0.0125 -0.0485 -0.1564
 2228DOPE   C4B26144  19.602  25.020  11.292 -0.2097 -0.0023  0.0541
 2229DOPS   CNO26145  19.686  25.075  13.560  0.0704  0.0898 -0.5151
 2229DOPS   PO426146  19.915  25.012  13.251 -0.0955  0.2658 -0.1069
 2229DOPS   GL126147  19.973  25.272  12.913 -0.0245  0.5580 -0.3653
 2229DOPS   GL226148  19.996  25.222  12.631  0.1488 -0.0917 -0.0624
 2229DOPS   C1A26149  19.579  25.525  12.849 -0.1350  0.1662  0.3855
 2229DOPS   D2A26150  19.122  25.478  12.707  0.1920  0.1544 -0.0582
 2229DOPS   C3A26151  18.843  25.751  12.493  0.1700  0.1471  0.1126
 2229DOPS   C4A26152  18.731  25.974  12.130  0.0859 -0.0551 -0.0122
 2229DOPS   C1B26153  19.622  25.321  12.363 -0.1323  0.2165  0.2926
 2229DOPS   D2B26154  19.264  25.566  12.247 -0.1141  0.2348 -0.2556
 2229DOPS   C3B26155  19.166  25.836  11.872 -0.0093 -0.3597 -0.1314
 2229DOPS   C4B26156  19.039  25.771  11.362  0.2860  0.1337  0.0021
 2230DOPS   CNO26157  19.417  33.459  14.507  0.0335  0.0821 -0.4354
 2230DOPS   PO426158  19.484  33.713  14.205 -0.1038 -0.3339  0.0121
 2230DOPS   GL126159  19.280  33.889  13.930  0.0167 -0.1749 -0.0156
 2230DOPS   GL226160  19.173  33.612  13.839  0.1853 -0.2263  0.2275
 2230DOPS   C1A26161  18.820  33.872  13.811  0.2265  0.1370 -0.1614
 2230DOPS   D2A26162  18.392  33.707  13.866  0.1148 -0.0190  0.0182
 2230DOPS   C3A26163  18.030  34.022  13.932  0.2599 -0.0222  0.1919
 2230DOPS   C4A26164  18.118  34.449  13.833  0.0395 -0.0424 -0.1865
 2230DOPS   C1B26165  19.164  33.661  13.393  0.2058  0.2034 -0.2231
 2230DOPS   D2B26166  19.358  33.658  12.962 -0.0216  0.0457 -0.1825
 2230DOPS   C3B26167  18.997  33.752  12.666  0.0640 -0.0653 -0.0319
 2230DOPS   C4B26168  18.951  33.913  12.258 -0.0774  0.3160  0.2264
 2231DOPE   NH326169  22.131  23.864  12.508  0.0276 -0.1247 -0.2222
 2231DOPE   PO426170  21.970  24.090  12.381 -0.4372 -0.0623 -0.1710
 2231DOPE   GL126171  21.869  24.014  12.049 -0.0218  0.0208 -0.0684
 2231DOPE   GL226172  21.955  24.138  11.778  0.0411  0.2132 -0.0590
 2231DOPE   C1A26173  21.654  23.792  11.706  0.0522 -0.2483  0.0711
 2231DOPE   D2A26174  21.509  23.802  11.266  0.0417 -0.1008 -0.2163
 2231DOPE   C3A26175  21.123  23.989  11.387 -0.2115  0.2071  0.3322
 2231DOPE   C4A26176  20.897  24.189  11.668  0.0715  0.0367  0.2422
 2231DOPE   C1B26177  21.842  24.524  11.656 -0.1402  0.1195 -0.0941
 2231DOPE   D2B26178  21.742  24.874  11.416 -0.2989 -0.1195  0.1584
 2231DOPE   C3B26179  21.944  24.880  10.948 -0.0605  0.1239 -0.0926
 2231DOPE   C4B26180  21.744  24.562  10.678  0.3178  0.0629  0.0421
 2232DOPC   NC326181  18.347  25.445  13.257  0.2637 -0.1814  0.2978
 2232DOPC   PO426182  18.437  25.776  13.489  0.1629  0.2286  0.0650
 2232DOPC   GL126183  18.510  26.139  13.284 -0.1602  0.3113  0.0199
 2232DOPC   GL226184  18.233  26.223  13.217 -0.2223  0.2164  0.0768
 2232DOPC   C1A26185  18.675  26.470  13.037  0.0077 -0.2375 -0.1980
 2232DOPC   D2A26186  18.899  26.394  12.661 -0.4385 -0.3301 -0.0187
 2232DOPC   C3A26187  19.318  26.495  12.589 -0.0666  0.0621 -0.3094
 2232DOPC   C4A26188  19.720  26.322  12.465 -0.1959  0.0536 -0.4283
 2232DOPC   C1B26189  18.063  26.036  12.808 -0.2233 -0.0002 -0.0745
 2232DOPC   D2B26190  17.996  25.967  12.384  0.0983 -0.1226 -0.1473
 2232DOPC   C3B26191  17.932  26.300  12.112  0.1612 -0.0067 -0.1208
 2232DOPC   C4B26192  18.104  26.680  11.908 -0.0962 -0.1125 -0.0669
 2233DOPS   CNO26193  21.936  30.510  12.751 -0.0358 -0.3905 -0.1135
 2233DOPS   PO426194  22.230  30.282  12.815  0.2636  0.3340  0.0488
 2233DOPS   GL126195  22.322  30.433  12.371 -0.1334  0.1441 -0.0151
 2233DOPS   GL226196  22.181  30.182  12.278 -0.0505 -0.1088  0.1378
 2233DOPS   C1A26197  22.374  30.860  12.193 -0.1319 -0.0328 -0.3663
 2233DOPS   D2A26198  22.191  31.365  12.151  0.0073  0.3092  0.2809
 2233DOPS   C3A26199  22.149  31.767  12.133  0.0856  0.3754 -0.2197
 2233DOPS   C4A26200  22.160  32.117  11.898  0.0727  0.1250  0.2282
 2233DOPS   C1B26201  21.984  30.544  12.001 -0.0797 -0.0289  0.0794
 2233DOPS   D2B26202  22.097  30.970  11.804  0.2055  0.3238 -0.0908
 2233DOPS   C3B26203  22.141  31.388  11.623 -0.1944 -0.0897  0.5405
 2233DOPS   C4B26204  22.216  31.546  11.227 -0.1977 -0.0070  0.2794
 2234DOPE   NH326205  16.089  31.779  15.029 -0.1865  0.0288  0.1811
 2234DOPE   PO426206  15.963  32.061  15.185  0.0831  0.0435 -0.1482
 2234DOPE   GL126207  16.001  32.135  14.762 -0.2838 -0.1216 -0.1530
 2234DOPE   GL226208  16.208  32.339  14.721 -0.1088  0.0094 -0.0124
 2234DOPE   C1A26209  15.642  32.145  14.459  0.2007  0.2233  0.0700
 2234DOPE   D2A26210  15.735  32.246  14.004  0.2227  0.2064  0.3382
 2234DOPE   C3A26211  15.408  32.558  13.846  0.1998  0.4728 -0.2186
 2234DOPE   C4A26212  15.163  32.904  13.932  0.1756 -0.1518  0.0432
 2234DOPE   C1B26213  16.044  32.570  14.434 -0.2368 -0.2769 -0.0556
 2234DOPE   D2B26214  16.219  32.509  13.992 -0.1108  0.1055  0.1693
 2234DOPE   C3B26215  15.928  32.545  13.575  0.2791  0.3370 -0.3205
 2234DOPE   C4B26216  15.507  32.521  13.314  0.0176  0.2818  0.1942
 2235DOPE   NH326217  19.880  31.893  13.704  0.1811 -0.1022 -0.3636
 2235DOPE   PO426218  20.112  32.026  13.559  0.3087  0.3037 -0.2971
 2235DOPE   GL126219  19.915  31.977  13.230 -0.0254 -0.1475  0.1427
 2235DOPE   GL226220  19.790  32.171  13.129 -0.0208  0.1193  0.1778
 2235DOPE   C1A26221  20.022  31.727  12.880  0.0769 -0.1405 -0.0734
 2235DOPE   D2A26222  20.082  31.694  12.460 -0.1696 -0.2375 -0.4916
 2235DOPE   C3A26223  20.249  31.581  12.072  0.0974  0.0602 -0.0512
 2235DOPE   C4A26224  20.335  31.423  11.616  0.0093  0.2910 -0.2086
 2235DOPE   C1B26225  19.824  32.210  12.677  0.1142  0.1829 -0.1330
 2235DOPE   D2B26226  19.565  32.195  12.321 -0.0062 -0.0102  0.2710
 2235DOPE   C3B26227  19.140  31.988  12.434 -0.2701 -0.2356  0.2617
 2235DOPE   C4B26228  18.849  31.598  12.469  0.2991 -0.3515 -0.2017
 2236DOPE   NH326229  19.206  28.705  14.248  0.2450  0.0389 -0.0906
 2236DOPE   PO426230  19.222  28.399  14.338 -0.2544 -0.1765  0.1932
 2236DOPE   GL126231  19.055  28.407  13.905  0.0945 -0.3610  0.2969
 2236DOPE   GL226232  18.905  28.694  13.866 -0.0112  0.1515 -0.1455
 2236DOPE   C1A26233  18.674  28.310  13.627  0.0293 -0.0962 -0.1404
 2236DOPE   D2A26234  18.408  28.400  13.292  0.0748  0.2587 -0.3794
 2236DOPE   C3A26235  18.465  28.302  12.803 -0.3024  0.1694  0.0983
 2236DOPE   C4A26236  18.851  28.116  12.651 -0.0807 -0.0504  0.0697
 2236DOPE   C1B26237  18.602  28.836  13.578  0.0217  0.0189  0.2516
 2236DOPE   D2B26238  18.226  28.861  13.302 -0.1225 -0.0735  0.1196
 2236DOPE   C3B26239  18.079  29.193  13.029  0.0210 -0.3444  0.2832
 2236DOPE   C4B26240  17.663  29.331  12.877  0.1482  0.2965 -0.0062
 2237DOPC   NC326241  22.172  34.194  13.485 -0.2515  0.0953 -0.1314
 2237DOPC   PO426242  22.514  34.336  13.441  0.2914  0.2571 -0.1556
 2237DOPC   GL126243  22.543  34.557  13.031  0.3796  0.1562  0.2292
 2237DOPC   GL226244  22.804  34.534  13.007  0.3080  0.0339 -0.3668
 2237DOPC   C1A26245  22.678  34.737  12.615  0.0932 -0.1691  0.2441
 2237DOPC   D2A26246  22.679  34.477  12.212 -0.1538  0.0817  0.0088
 2237DOPC   C3A26247  22.641  34.662  11.769 -0.1624  0.0246 -0.0495
 2237DOPC   C4A26248  22.638  34.581  11.341 -0.2852 -0.4421 -0.0616
 2237DOPC   C1B26249  22.702  34.187  12.744  0.0352 -0.1043 -0.0744
 2237DOPC   D2B26250  22.544  33.916  12.358  0.2222 -0.1032  0.0962
 2237DOPC   C3B26251  22.142  33.903  12.169  0.0728 -0.2199  0.0135
 2237DOPC   C4B26252  21.801  34.007  11.792  0.1261  0.2970  0.1647
 2238POSM   NC326253  13.843  29.768  15.487 -0.1370 -0.2323  0.0263
 2238POSM   PO426254  14.100  29.508  15.440 -0.0266  0.0738 -0.0480
 2238POSM   AM126255  13.998  29.381  15.184 -0.0129 -0.1301  0.1175
 2238POSM   AM226256  14.070  29.323  14.958  0.1335  0.3091  0.1182
 2238POSM   T1A26257  13.627  29.173  14.943 -0.0538  0.2834 -0.1718
 2238POSM   C2A26258  13.546  29.229  14.543  0.2283 -0.1993  0.2733
 2238POSM   C3A26259  13.553  29.655  14.263  0.0279  0.1377  0.1322
 2238POSM   C1B26260  14.023  29.391  14.641 -0.0429  0.2758  0.0571
 2238POSM   D2B26261  13.874  29.289  14.188  0.0825 -0.1607 -0.0340
 2238POSM   C3B26262  13.429  29.211  14.025 -0.0190  0.0805 -0.4875
 2238POSM   C4B26263  13.225  29.106  13.608  0.0173  0.2675  0.3821
 2239POSM   NC326264  12.143  31.630  15.598  0.1956  0.1915 -0.2452
 2239POSM   PO426265  12.383  31.900  15.629  0.1481  0.3147 -0.0243
 2239POSM   AM126266  12.244  32.079  15.382 -0.1640 -0.0756  0.0001
 2239POSM   AM226267  11.986  32.071  15.306  0.0802  0.2154  0.3038
 2239POSM   T1A26268  12.130  32.535  15.207  0.3076 -0.0145 -0.0824
 2239POSM   C2A26269  11.909  32.621  14.726 -0.0929  0.3163 -0.2276
 2239POSM   C3A26270  11.753  32.793  14.340 -0.3439 -0.2000 -0.0495
 2239POSM   C1B26271  11.987  31.961  14.998 -0.0473  0.1279  0.0024
 2239POSM   D2B26272  11.824  31.973  14.572 -0.1262  0.2839 -0.1511
 2239POSM   C3B26273  11.375  31.900  14.399 -0.0988 -0.2145 -0.1577
 2239POSM   C4B26274  11.111  31.877  14.022  0.0052 -0.2694 -0.1025
 2240DOPC   NC326275  19.565  28.087  14.090 -0.0873  0.0634 -0.1377
 2240DOPC   PO426276  19.952  28.221  14.030 -0.1241 -0.2790  0.2011
 2240DOPC   GL126277  19.804  28.305  13.712  0.0155  0.0809  0.2236
 2240DOPC   GL226278  19.754  28.093  13.537  0.1187  0.1069  0.1512
 2240DOPC   C1A26279  19.532  28.537  13.397 -0.0674  0.1233 -0.0859
 2240DOPC   D2A26280  19.422  28.573  12.953 -0.1267  0.2049  0.0656
 2240DOPC   C3A26281  19.251  28.421  12.569  0.1453 -0.1476  0.2306
 2240DOPC   C4A26282  19.359  28.414  12.138 -0.4753  0.0564  0.1487
 2240DOPC   C1B26283  19.492  27.935  13.152  0.0292 -0.2150 -0.2974
 2240DOPC   D2B26284  19.164  28.159  12.953 -0.0418  0.0627  0.2554
 2240DOPC   C3B26285  18.726  28.059  13.156 -0.1861  0.0246 -0.3131
 2240DOPC   C4B26286  18.460  27.756  12.864 -0.1584  0.2958 -0.1050
 2241DOPC   NC326287  20.357  29.120  13.397 -0.0330 -0.0104 -0.0871
 2241DOPC   PO426288  20.321  29.539  13.435 -0.1617  0.0142 -0.4546
 2241DOPC   GL126289  20.299  29.509  13.114  0.1147 -0.0246 -0.0231
 2241DOPC   GL226290  20.092  29.756  13.032  0.1291 -0.3773 -0.0542
 2241DOPC   C1A26291  20.438  29.679  12.675  0.1181 -0.3229  0.0817
 2241DOPC   D2A26292  20.301  29.787  12.248 -0.2302 -0.2416  0.0334
 2241DOPC   C3A26293  19.995  29.556  12.038 -0.1125  0.0283  0.0466
 2241DOPC   C4A26294  20.059  29.240  11.664  0.1822 -0.2663  0.2500
 2241DOPC   C1B26295  20.160  30.082  12.671 -0.1496  0.0423 -0.0281
 2241DOPC   D2B26296  20.225  30.280  12.231  0.1293 -0.1458  0.5944
 2241DOPC   C3B26297  20.028  30.080  11.845 -0.1218 -0.0638  0.0650
 2241DOPC   C4B26298  19.994  29.728  11.542  0.2389 -0.1100  0.3581
 2242DOPS   CNO26299  12.122  30.543  16.105 -0.0733  0.0418 -0.0201
 2242DOPS   PO426300  12.053  30.887  16.082 -0.0094 -0.0592  0.2218
 2242DOPS   GL126301  11.831  31.026  15.800 -0.0680  0.3884  0.1781
 2242DOPS   GL226302  11.832  31.238  15.539 -0.0427  0.0274  0.3188
 2242DOPS   C1A26303  11.529  30.783  15.528  0.3803  0.0916 -0.0040
 2242DOPS   D2A26304  11.164  30.763  15.253  0.2872  0.1516  0.0397
 2242DOPS   C3A26305  10.851  31.065  15.010 -0.0167 -0.0095 -0.0818
 2242DOPS   C4A26306  10.560  31.369  14.891 -0.1308 -0.2668  0.4548
 2242DOPS   C1B26307  11.700  31.126  15.103  0.0546 -0.1278  0.1744
 2242DOPS   D2B26308  11.334  31.076  14.781  0.2089 -0.0852 -0.3854
 2242DOPS   C3B26309  11.072  30.821  14.534  0.0375 -0.0078  0.1505
 2242DOPS   C4B26310  10.701  30.607  14.350 -0.1230  0.0104  0.0315
 2243DOPE   NH326311  19.578  24.550  13.108  0.0013 -0.2034  0.1654
 2243DOPE   PO426312  19.396  24.267  13.069 -0.1131 -0.0835 -0.1491
 2243DOPE   GL126313  19.277  24.387  12.642 -0.2836  0.1372  0.0536
 2243DOPE   GL226314  19.091  24.600  12.747 -0.0169  0.1374 -0.0922
 2243DOPE   C1A26315  19.189  24.488  12.222  0.0875  0.5402 -0.0415
 2243DOPE   D2A26316  19.006  24.868  12.093 -0.1139 -0.1983 -0.0646
 2243DOPE   C3A26317  18.790  24.776  11.710  0.1523  0.2641  0.1793
 2243DOPE   C4A26318  18.724  24.557  11.306 -0.0075  0.2776 -0.1390
 2243DOPE   C1B26319  19.294  24.918  12.497 -0.1248 -0.2076 -0.1083
 2243DOPE   D2B26320  19.513  24.945  12.026 -0.1647  0.0883  0.0442
 2243DOPE   C3B26321  19.296  24.767  11.651 -0.1323  0.2420  0.2086
 2243DOPE   C4B26322  19.145  24.819  11.240 -0.4111 -0.0512  0.1224
 2244DOPS   CNO26323  21.930  28.931  13.095  0.0626 -0.4898 -0.1290
 2244DOPS   PO426324  21.622  29.036  12.918 -0.0241 -0.1426 -0.3090
 2244DOPS   GL126325  21.530  28.646  12.805 -0.1554  0.0242 -0.0673
 2244DOPS   GL226326  21.251  28.634  12.792  0.0856 -0.0035  0.0931
 2244DOPS   C1A26327  21.686  28.472  12.400 -0.1333  0.1329 -0.2951
 2244DOPS   D2A26328  21.751  28.315  11.963 -0.2982 -0.1150 -0.0166
 2244DOPS   C3A26329  21.761  27.945  11.776  0.2269 -0.3103 -0.2530
 2244DOPS   C4A26330  21.718  27.513  11.596 -0.0552  0.1018  0.0436
 2244DOPS   C1B26331  21.186  28.394  12.361  0.0508  0.1698 -0.2087
 2244DOPS   D2B26332  20.990  28.277  11.985 -0.0245 -0.0041 -0.1143
 2244DOPS   C3B26333  21.351  28.169  11.687 -0.2871  0.0044  0.0942
 2244DOPS   C4B26334  21.667  28.318  11.387  0.0070 -0.0334  0.1110
 2245DOPE   NH326335  21.853  27.251   9.450  0.1492  0.1107 -0.1233
 2245DOPE   PO426336  21.632  26.989   9.385  0.1794  0.0079 -0.0099
 2245DOPE   GL126337  21.698  26.933   9.765 -0.0771  0.2916 -0.1445
 2245DOPE   GL226338  22.027  26.935   9.791  0.1927 -0.1265 -0.1786
 2245DOPE   C1A26339  21.712  26.636  10.138 -0.1741 -0.0977 -0.0031
 2245DOPE   D2A26340  22.021  26.534  10.516  0.1943  0.1629  0.0290
 2245DOPE   C3A26341  21.897  26.134  10.680 -0.1918  0.1508 -0.1716
 2245DOPE   C4A26342  21.681  25.830  10.922  0.0155  0.0326 -0.2331
 2245DOPE   C1B26343  22.262  26.817  10.180  0.1164 -0.1457 -0.3400
 2245DOPE   D2B26344  22.477  26.720  10.643  0.0484 -0.0765  0.0920
 2245DOPE   C3B26345  22.180  26.557  10.996  0.0254 -0.0174  0.3707
 2245DOPE   C4B26346  21.718  26.456  11.034  0.1811 -0.0709 -0.0045
 2246DOPS   CNO26347  14.039  26.792  10.608 -0.5955  0.2746  0.2101
 2246DOPS   PO426348  14.099  27.021  10.920 -0.4335  0.1326 -0.2923
 2246DOPS   GL126349  14.130  27.087  11.365  0.0451 -0.4844 -0.2450
 2246DOPS   GL226350  14.154  26.819  11.484 -0.2197 -0.0123 -0.1400
 2246DOPS   C1A26351  14.167  27.432  11.685  0.0188  0.1056 -0.1725
 2246DOPS   D2A26352  14.241  27.700  12.067  0.2278 -0.0453  0.3072
 2246DOPS   C3A26353  14.344  27.630  12.477 -0.0469  0.2902  0.2991
 2246DOPS   C4A26354  14.331  27.642  12.887 -0.1837  0.0076  0.0967
 2246DOPS   C1B26355  13.908  26.809  11.840 -0.0860  0.2802 -0.1729
 2246DOPS   D2B26356  13.878  26.738  12.269  0.4615  0.1035 -0.1291
 2246DOPS   C3B26357  13.473  26.692  12.506 -0.1089  0.1817 -0.0084
 2246DOPS   C4B26358  13.327  26.891  12.919  0.1812  0.1165 -0.0197
 2247DOPE   NH326359  21.361  24.625   8.791  0.0130  0.1014  0.0119
 2247DOPE   PO426360  21.625  24.479   8.784  0.3866  0.0226  0.0764
 2247DOPE   GL126361  21.633  24.655   9.221  0.1184 -0.1123 -0.1786
 2247DOPE   GL226362  21.692  24.448   9.397 -0.1352 -0.0881 -0.1174
 2247DOPE   C1A26363  22.050  24.836   9.299 -0.0285 -0.1106  0.1472
 2247DOPE   D2A26364  22.378  25.139   9.474 -0.0948  0.0526  0.2785
 2247DOPE   C3A26365  22.594  24.980   9.804  0.3997 -0.1416 -0.3022
 2247DOPE   C4A26366  22.562  25.055  10.204  0.0837  0.1984  0.2488
 2247DOPE   C1B26367  21.386  24.497   9.810  0.1315  0.2579  0.1008
 2247DOPE   D2B26368  21.452  24.764  10.156 -0.0612 -0.0543  0.0131
 2247DOPE   C3B26369  21.289  24.723  10.579 -0.0492  0.3159  0.0047
 2247DOPE   C4B26370  21.405  24.788  10.991 -0.0297 -0.2334 -0.4257
 2248DOPE   NH326371  21.109  25.990   9.315 -0.0126  0.2259 -0.3699
 2248DOPE   PO426372  21.395  26.190   9.308  0.1640  0.2144 -0.1817
 2248DOPE   GL126373  21.448  26.324   9.694  0.2546  0.1417  0.2194
 2248DOPE   GL226374  21.716  26.492   9.561  0.0600 -0.0130  0.0109
 2248DOPE   C1A26375  21.347  26.309  10.138  0.3520  0.3376 -0.4342
 2248DOPE   D2A26376  20.948  26.287  10.339 -0.2549 -0.0632 -0.1687
 2248DOPE   C3A26377  20.973  25.989  10.655  0.1973  0.0325  0.0034
 2248DOPE   C4A26378  21.170  25.705  10.926 -0.3268 -0.2053 -0.0244
 2248DOPE   C1B26379  22.066  26.377   9.825 -0.1577 -0.2926  0.1972
 2248DOPE   D2B26380  22.359  26.347  10.163 -0.3452 -0.4015 -0.1451
 2248DOPE   C3B26381  22.451  26.251  10.613 -0.2710  0.0553  0.1172
 2248DOPE   C4B26382  22.473  25.799  10.759  0.3667  0.1004  0.0501
 2249DOPC   NC326383  20.473  26.178   9.584  0.1001  0.1148  0.1273
 2249DOPC   PO426384  20.638  25.851   9.395  0.1615  0.1460  0.0815
 2249DOPC   GL126385  20.811  25.927   9.794 -0.1122  0.1716 -0.5216
 2249DOPC   GL226386  20.818  25.658   9.872 -0.0911  0.0733 -0.0620
 2249DOPC   C1A26387  20.578  25.934  10.211 -0.2102  0.0668  0.2149
 2249DOPC   D2A26388  20.526  26.190  10.598 -0.3968  0.0637 -0.0831
 2249DOPC   C3A26389  20.789  26.356  10.955  0.0291  0.0086 -0.0310
 2249DOPC   C4A26390  21.098  26.672  10.920  0.1276 -0.0409  0.2384
 2249DOPC   C1B26391  20.775  25.446  10.318  0.0820 -0.1058  0.0677
 2249DOPC   D2B26392  20.718  25.393  10.774  0.1156 -0.1077  0.1619
 2249DOPC   C3B26393  20.491  25.708  11.028 -0.0627  0.0626 -0.3888
 2249DOPC   C4B26394  20.411  26.111  11.215  0.1294  0.0019  0.0513
 2250DOPC   NC326395  13.236  30.521  11.098 -0.0511  0.0145  0.0438
 2250DOPC   PO426396  13.272  30.629  11.501 -0.1198  0.3782  0.0069
 2250DOPC   GL126397  13.318  30.418  11.794  0.5023 -0.1997  0.3398
 2250DOPC   GL226398  13.592  30.571  11.907 -0.1064  0.0429 -0.0852
 2250DOPC   C1A26399  13.191  30.570  12.227  0.0989  0.2516  0.2194
 2250DOPC   D2A26400  13.494  30.556  12.557 -0.3433  0.1518 -0.2237
 2250DOPC   C3A26401  13.727  30.620  12.959  0.0044  0.0524 -0.0653
 2250DOPC   C4A26402  13.747  30.465  13.366 -0.0165 -0.3112 -0.0595
 2250DOPC   C1B26403  13.873  30.349  12.163  0.2137  0.0855 -0.0551
 2250DOPC   D2B26404  14.058  30.452  12.591 -0.3136 -0.1952 -0.0388
 2250DOPC   C3B26405  14.127  30.245  13.016 -0.2060  0.0931  0.1811
 2250DOPC   C4B26406  14.372  30.383  13.380 -0.0291  0.0507  0.4335
 2251DOPE   NH326407  10.994  32.444  12.534 -0.2119 -0.4066 -0.0997
 2251DOPE   PO426408  10.988  32.764  12.582 -0.2698 -0.2656 -0.1372
 2251DOPE   GL126409  10.789  32.686  12.981  0.2450 -0.5174  0.1770
 2251DOPE   GL226410  10.933  32.800  13.251 -0.2857  0.0470 -0.0888
 2251DOPE   C1A26411  10.708  32.386  13.324 -0.0202  0.0700 -0.1156
 2251DOPE   D2A26412  10.472  32.053  13.540 -0.0308 -0.0534 -0.2402
 2251DOPE   C3A26413  10.245  31.787  13.873 -0.0268 -0.1891 -0.0412
 2251DOPE   C4A26414  10.142  31.382  14.107  0.1226 -0.1589 -0.0913
 2251DOPE   C1B26415  11.265  32.894  13.526  0.0384 -0.2376  0.0984
 2251DOPE   D2B26416  11.510  32.865  13.897 -0.2344 -0.3551  0.4581
 2251DOPE   C3B26417  11.969  32.659  13.919  0.2024 -0.4812  0.0900
 2251DOPE   C4B26418  12.395  32.607  14.152 -0.1024  0.3125  0.0999
 2252DOPE   NH326419  23.077  33.256   9.688  0.1417 -0.1513 -0.2117
 2252DOPE   PO426420  23.012  32.998   9.848  0.1305 -0.2473 -0.0205
 2252DOPE   GL126421  22.946  33.046  10.312 -0.1929 -0.0353  0.3772
 2252DOPE   GL226422  23.054  32.798  10.384  0.0357 -0.0692 -0.0511
 2252DOPE   C1A26423  23.137  33.111  10.769 -0.2377  0.0015  0.0599
 2252DOPE   D2A26424  22.966  33.177  11.181  0.2424  0.4354  0.2051
 2252DOPE   C3A26425  23.153  33.159  11.593 -0.0926 -0.1038 -0.2572
 2252DOPE   C4A26426  23.439  32.957  11.920  0.3142  0.1641  0.0046
 2252DOPE   C1B26427  23.139  32.630  10.797  0.1014 -0.1842 -0.1417
 2252DOPE   D2B26428  23.417  32.295  10.964 -0.0189  0.0095  0.3143
 2252DOPE   C3B26429  23.311  32.206  11.388  0.2582 -0.0433  0.2124
 2252DOPE   C4B26430  23.151  31.770  11.486 -0.0586  0.1620 -0.1059
 2253DOPE   NH326431  19.547  30.691   9.785 -0.1432 -0.0031 -0.3708
 2253DOPE   PO426432  19.322  30.486   9.875 -0.1227  0.0043  0.0897
 2253DOPE   GL126433  19.420  30.130  10.094 -0.1356 -0.3329 -0.1618
 2253DOPE   GL226434  19.536  29.882  10.026  0.2889  0.0669 -0.3350
 2253DOPE   C1A26435  19.510  30.069  10.551 -0.2159  0.2009  0.3389
 2253DOPE   D2A26436  19.659  29.775  10.929  0.3213 -0.3418 -0.1849
 2253DOPE   C3A26437  19.412  29.730  11.320  0.1059  0.2017 -0.1130
 2253DOPE   C4A26438  19.303  29.447  11.605 -0.1495  0.3515 -0.0149
 2253DOPE   C1B26439  19.842  29.772  10.393 -0.1287  0.1525 -0.0011
 2253DOPE   D2B26440  20.024  30.003  10.686  0.0558 -0.0497  0.1909
 2253DOPE   C3B26441  20.209  29.804  11.042  0.4470 -0.1893  0.1569
 2253DOPE   C4B26442  20.301  30.117  11.400  0.0870  0.3180  0.0667
 2254POSM   NC326443  12.457  33.088  11.947  0.0538  0.1112  0.1623
 2254POSM   PO426444  12.187  33.077  12.245 -0.2433  0.0811  0.1545
 2254POSM   AM126445  12.384  33.085  12.505 -0.1264  0.0899 -0.2062
 2254POSM   AM226446  12.454  32.890  12.749 -0.3160  0.2239  0.1028
 2254POSM   T1A26447  12.369  33.340  12.974  0.0461 -0.1187 -0.1044
 2254POSM   C2A26448  12.325  33.591  13.364  0.2497 -0.0293  0.2064
 2254POSM   C3A26449  12.189  33.959  13.659 -0.3912 -0.0902  0.3400
 2254POSM   C1B26450  12.669  32.923  13.012  0.0809 -0.1388 -0.1165
 2254POSM   D2B26451  12.858  32.757  13.393 -0.2137 -0.0602 -0.0508
 2254POSM   C3B26452  12.913  32.295  13.430  0.1116  0.0872 -0.0618
 2254POSM   C4B26453  13.333  32.130  13.590 -0.1630 -0.1749  0.1982
 2255DOPE   NH326454  16.654  31.525  11.048  0.0753 -0.1443  0.0171
 2255DOPE   PO426455  16.637  31.832  11.140  0.0078 -0.0286  0.3097
 2255DOPE   GL126456  16.682  31.853  11.586  0.1552  0.1936 -0.2635
 2255DOPE   GL226457  16.393  31.823  11.652 -0.0902 -0.1711  0.0721
 2255DOPE   C1A26458  16.641  32.029  12.021 -0.0668 -0.0847 -0.0293
 2255DOPE   D2A26459  16.907  32.190  12.397  0.0507  0.2547  0.2492
 2255DOPE   C3A26460  16.878  32.045  12.846 -0.2736  0.2210  0.2873
 2255DOPE   C4A26461  16.679  31.919  13.272 -0.3458  0.2199 -0.0419
 2255DOPE   C1B26462  16.449  31.570  11.996 -0.2148 -0.1841  0.1138
 2255DOPE   D2B26463  16.449  31.445  12.474 -0.1344 -0.1554  0.3265
 2255DOPE   C3B26464  16.070  31.445  12.737  0.0722 -0.1036 -0.0961
 2255DOPE   C4B26465  15.735  31.750  13.020 -0.1892 -0.0939 -0.1970
 2256POSM   NC326466  19.273  31.448  10.165  0.1215  0.0491 -0.0597
 2256POSM   PO426467  19.398  31.186   9.931 -0.0065  0.1283 -0.0239
 2256POSM   AM126468  19.648  31.095  10.132 -0.1715 -0.0629 -0.0350
 2256POSM   AM226469  19.918  31.214  10.179 -0.1754 -0.0402 -0.1686
 2256POSM   T1A26470  19.884  30.773  10.487  0.3545 -0.1602  0.0118
 2256POSM   C2A26471  19.791  30.425  10.774 -0.0147 -0.4067 -0.0392
 2256POSM   C3A26472  19.866  30.140  11.148  0.0530 -0.1594 -0.1255
 2256POSM   C1B26473  20.212  31.253  10.358  0.1421  0.0327  0.2581
 2256POSM   D2B26474  20.499  31.090  10.716  0.0096 -0.2050  0.2175
 2256POSM   C3B26475  20.905  31.218  10.906 -0.0196 -0.2001  0.2333
 2256POSM   C4B26476  21.097  31.575  11.186 -0.1789 -0.2688  0.3713
 2257POSM   NC326477  11.251  23.346  10.455  0.1404  0.0840  0.0695
 2257POSM   PO426478  11.196  23.066  10.176  0.5633 -0.0004 -0.1271
 2257POSM   AM126479  11.424  22.837  10.283  0.1411 -0.3473 -0.1794
 2257POSM   AM226480  11.697  22.900  10.325 -0.0726 -0.2411 -0.2136
 2257POSM   T1A26481  11.530  22.482  10.619 -0.0102 -0.0224  0.0909
 2257POSM   C2A26482  11.659  22.205  10.959 -0.1870 -0.0595  0.1223
 2257POSM   C3A26483  11.471  21.953  11.326  0.1417  0.0991 -0.0057
 2257POSM   C1B26484  11.940  22.770  10.606  0.0816  0.0266 -0.1302
 2257POSM   D2B26485  11.910  22.674  11.042  0.1057 -0.2123 -0.0226
 2257POSM   C3B26486  12.214  22.788  11.327 -0.2795 -0.1104 -0.0528
 2257POSM   C4B26487  12.558  22.696  11.636 -0.1854 -0.0778 -0.0692
 2258DOPC   NC326488  20.746  33.132   9.583 -0.0313 -0.1274  0.2651
 2258DOPC   PO426489  20.978  33.267   9.874 -0.1500  0.0175 -0.0551
 2258DOPC   GL126490  20.898  33.118  10.241 -0.2982 -0.4673 -0.2321
 2258DOPC   GL226491  20.936  33.268  10.464  0.0576 -0.0600  0.0589
 2258DOPC   C1A26492  21.108  32.833  10.564  0.1267 -0.0887  0.0635
 2258DOPC   D2A26493  21.204  32.787  11.023  0.0581  0.3220 -0.2288
 2258DOPC   C3A26494  21.601  32.963  11.152  0.3448  0.1180  0.1265
 2258DOPC   C4A26495  21.998  33.137  11.292  0.1734 -0.1906 -0.2298
 2258DOPC   C1B26496  20.620  32.903  10.483 -0.0161 -0.2466  0.3135
 2258DOPC   D2B26497  20.403  32.492  10.606  0.0208 -0.2525  0.1188
 2258DOPC   C3B26498  20.431  32.205  10.916 -0.2952 -0.0393  0.1492
 2258DOPC   C4B26499  20.616  32.013  11.303  0.0618 -0.4672  0.0615
 2259DOPC   NC326500  18.657  31.498  10.776  0.0871  0.0477 -0.1799
 2259DOPC   PO426501  18.745  31.233  10.488 -0.0566 -0.3250  0.1149
 2259DOPC   GL126502  19.120  31.125  10.494 -0.2064 -0.0649 -0.2561
 2259DOPC   GL226503  19.107  31.149  10.824  0.2676  0.0781  0.1498
 2259DOPC   C1A26504  19.566  31.294  10.590  0.1382  0.2649  0.1305
 2259DOPC   D2A26505  20.010  31.195  10.753  0.1102  0.1051  0.3038
 2259DOPC   C3A26506  20.226  30.774  10.917 -0.1661  0.2693 -0.0019
 2259DOPC   C4A26507  20.331  30.343  10.995  0.0012 -0.1551  0.1466
 2259DOPC   C1B26508  19.365  31.362  11.097  0.1964  0.2800 -0.1617
 2259DOPC   D2B26509  19.504  31.184  11.477  0.0406  0.4578 -0.3777
 2259DOPC   C3B26510  19.864  31.067  11.775 -0.1821  0.0513  0.1911
 2259DOPC   C4B26511  20.246  30.991  12.028 -0.0537 -0.0663 -0.0210
 2260DOPC   NC326512  16.262  28.447  10.382 -0.2273 -0.0323  0.0890
 2260DOPC   PO426513  16.423  28.564  10.715 -0.1148 -0.1696 -0.0365
 2260DOPC   GL126514  16.474  28.704  11.130 -0.3011 -0.2311 -0.1443
 2260DOPC   GL226515  16.644  28.437  11.307  0.2759  0.2273  0.2645
 2260DOPC   C1A26516  16.282  28.724  11.516 -0.0157 -0.0155  0.3719
 2260DOPC   D2A26517  15.931  28.781  11.862 -0.0920 -0.2245  0.2169
 2260DOPC   C3A26518  15.998  29.090  12.253  0.1764 -0.2388 -0.3126
 2260DOPC   C4A26519  16.262  29.365  12.524  0.0696 -0.1755  0.0994
 2260DOPC   C1B26520  16.702  28.430  11.793 -0.0715  0.3306  0.0780
 2260DOPC   D2B26521  16.838  28.597  12.207 -0.0554 -0.3163 -0.1819
 2260DOPC   C3B26522  16.861  28.928  12.496 -0.4023 -0.0320 -0.1090
 2260DOPC   C4B26523  16.553  29.094  12.834  0.2622  0.0847  0.1461
 2261DOPE   NH326524  16.046  24.730   9.992  0.2586  0.0384  0.0598
 2261DOPE   PO426525  16.381  24.638   9.943  0.0874 -0.0027  0.1967
 2261DOPE   GL126526  16.624  24.504  10.179 -0.0607  0.2057  0.4811
 2261DOPE   GL226527  16.822  24.315  10.054 -0.4090 -0.3738  0.0517
 2261DOPE   C1A26528  17.035  24.679  10.365  0.0764  0.0327  0.1325
 2261DOPE   D2A26529  17.128  24.675  10.836  0.0595 -0.0056  0.1530
 2261DOPE   C3A26530  16.819  24.623  11.150 -0.3459  0.2032  0.2391
 2261DOPE   C4A26531  16.373  24.431  11.186 -0.1621 -0.2540 -0.0482
 2261DOPE   C1B26532  17.005  24.161  10.476  0.0349  0.1360  0.0256
 2261DOPE   D2B26533  16.929  24.185  10.993  0.0421  0.1382 -0.2019
 2261DOPE   C3B26534  17.347  24.148  11.018 -0.1873 -0.1524 -0.3681
 2261DOPE   C4B26535  17.757  24.352  11.179 -0.0154  0.1008 -0.1623
 2262POSM   NC326536  17.208  24.142   9.150  0.0222 -0.2148 -0.0181
 2262POSM   PO426537  17.014  24.470   9.242 -0.1358  0.3046  0.1197
 2262POSM   AM126538  17.216  24.440   9.515  0.1261 -0.1802  0.1720
 2262POSM   AM226539  17.368  24.187   9.591 -0.1636 -0.1097 -0.2886
 2262POSM   T1A26540  17.322  24.470  10.013 -0.2540  0.0482  0.2009
 2262POSM   C2A26541  17.465  24.362  10.425  0.0206  0.1052  0.0273
 2262POSM   C3A26542  17.854  24.319  10.727 -0.1693 -0.1125 -0.3111
 2262POSM   C1B26543  17.286  23.847   9.514 -0.0463 -0.0074  0.0587
 2262POSM   D2B26544  17.345  23.413   9.709 -0.1081 -0.1699  0.1302
 2262POSM   C3B26545  17.323  23.393  10.191 -0.1138  0.1753 -0.0581
 2262POSM   C4B26546  17.542  23.374  10.604  0.0344 -0.0519 -0.0742
 2263DOPE   NH326547  11.270  34.165  12.682 -0.2885 -0.0823  0.1029
 2263DOPE   PO426548  11.345  34.474  12.790  0.0394  0.0776  0.0707
 2263DOPE   GL126549  11.482  34.256  13.075 -0.1472  0.4415  0.1738
 2263DOPE   GL226550  11.454  33.930  13.082 -0.1145 -0.1486  0.0492
 2263DOPE   C1A26551  11.839  34.289  13.364  0.2885 -0.2001  0.2978
 2263DOPE   D2A26552  11.971  34.377  13.765 -0.0364 -0.2677  0.1737
 2263DOPE   C3A26553  11.992  34.091  14.120  0.1082  0.0566  0.0599
 2263DOPE   C4A26554  12.328  33.887  14.450 -0.0221 -0.3419 -0.0453
 2263DOPE   C1B26555  11.725  33.806  13.437  0.3226 -0.0373 -0.2533
 2263DOPE   D2B26556  11.806  33.641  13.899 -0.2358  0.0796 -0.0449
 2263DOPE   C3B26557  12.265  33.519  13.903  0.0655  0.0570  0.0842
 2263DOPE   C4B26558  12.710  33.566  13.911  0.0154 -0.1209 -0.3656
 2264DOPC   NC326559  19.876  23.525   8.168  0.0435 -0.2272  0.0254
 2264DOPC   PO426560  19.737  23.582   8.531  0.0308  0.0698  0.0312
 2264DOPC   GL126561  19.868  23.552   8.906 -0.1046 -0.1155 -0.0532
 2264DOPC   GL226562  19.796  23.802   9.087 -0.1465  0.0566 -0.1089
 2264DOPC   C1A26563  19.619  23.356   9.277 -0.1177  0.1621  0.0461
 2264DOPC   D2A26564  19.605  23.432   9.755 -0.3073  0.0500 -0.1579
 2264DOPC   C3A26565  19.951  23.545  10.085  0.0160 -0.1523 -0.2852
 2264DOPC   C4A26566  20.347  23.327  10.329  0.0446 -0.1393 -0.0788
 2264DOPC   C1B26567  19.878  23.783   9.521  0.3601 -0.1457  0.0201
 2264DOPC   D2B26568  20.234  23.571   9.720  0.1378  0.3732 -0.4757
 2264DOPC   C3B26569  20.467  23.998   9.694 -0.2682  0.0744 -0.2151
 2264DOPC   C4B26570  20.767  24.217   9.960 -0.2310  0.0752  0.0366
 2265POSM   NC326571  17.641  22.702   8.829 -0.5234 -0.1279 -0.1961
 2265POSM   PO426572  17.316  22.556   8.782  0.1623 -0.0046 -0.0308
 2265POSM   AM126573  17.289  22.333   8.981  0.2385  0.0051  0.2215
 2265POSM   AM226574  17.484  22.131   8.973 -0.0443  0.4326  0.1206
 2265POSM   T1A26575  16.997  22.143   9.354  0.1667  0.1307 -0.0600
 2265POSM   C2A26576  16.884  22.129   9.833 -0.3837  0.1437 -0.0273
 2265POSM   C3A26577  16.970  21.887  10.145  0.2403  0.0833 -0.5732
 2265POSM   C1B26578  17.591  22.011   9.281  0.0379 -0.1133 -0.0590
 2265POSM   D2B26579  17.835  21.939   9.685 -0.0731  0.0133  0.2109
 2265POSM   C3B26580  17.841  22.305   9.875 -0.0218 -0.2526 -0.0326
 2265POSM   C4B26581  17.793  22.769   9.789  0.4110  0.0654  0.0057
 2266DOPE   NH326582  19.411  28.232   9.318 -0.2030  0.0653 -0.0228
 2266DOPE   PO426583  19.718  28.296   9.406  0.2512  0.1027 -0.1050
 2266DOPE   GL126584  19.818  28.294   9.830 -0.0814  0.1268 -0.1314
 2266DOPE   GL226585  19.691  28.019   9.863  0.1881  0.0624  0.5374
 2266DOPE   C1A26586  19.915  28.566  10.175 -0.1040 -0.0358  0.2835
 2266DOPE   D2A26587  19.708  28.693  10.520  0.2511  0.0926  0.1376
 2266DOPE   C3A26588  20.048  28.736  10.856  0.0769 -0.2785 -0.1189
 2266DOPE   C4A26589  20.119  28.968  11.245  0.1491  0.1706 -0.0775
 2266DOPE   C1B26590  19.867  28.071  10.231 -0.2940  0.1209 -0.3823
 2266DOPE   D2B26591  20.023  28.274  10.639  0.0167  0.1145 -0.1464
 2266DOPE   C3B26592  20.393  28.033  10.730  0.0943  0.4119  0.0396
 2266DOPE   C4B26593  20.596  27.641  10.694 -0.2178  0.4019 -0.3353
 2267DOPE   NH326594  13.723  27.470  10.784 -0.3821  0.0210 -0.2699
 2267DOPE   PO426595  13.724  27.358  11.092  0.0679 -0.0316 -0.1489
 2267DOPE   GL126596  13.436  27.244  11.407  0.1537 -0.0742 -0.1304
 2267DOPE   GL226597  13.703  27.160  11.594  0.0871 -0.0013  0.2943
 2267DOPE   C1A26598  13.159  26.864  11.508  0.0313 -0.1781 -0.2333
 2267DOPE   D2A26599  12.809  26.845  11.834  0.0594  0.0094  0.3143
 2267DOPE   C3A26600  12.916  26.643  12.272  0.3099  0.1233  0.4963
 2267DOPE   C4A26601  12.971  26.544  12.693  0.0368 -0.2600  0.0126
 2267DOPE   C1B26602  13.671  27.440  11.959 -0.2290 -0.1546  0.0297
 2267DOPE   D2B26603  13.801  27.546  12.410  0.5712 -0.0835  0.1504
 2267DOPE   C3B26604  13.824  27.197  12.662  0.1865  0.0617  0.2069
 2267DOPE   C4B26605  13.805  26.763  12.849 -0.1284  0.1707  0.1814
 2268DOPC   NC326606  17.135  29.890  10.792 -0.2562 -0.1170  0.2417
 2268DOPC   PO426607  17.495  29.756  10.660  0.1309  0.0012 -0.2180
 2268DOPC   GL126608  17.551  29.680  11.060 -0.0410 -0.1668  0.1649
 2268DOPC   GL226609  17.444  29.478  11.110 -0.0764  0.2653 -0.0338
 2268DOPC   C1A26610  17.697  29.904  11.455 -0.0031 -0.0717  0.0339
 2268DOPC   D2A26611  18.078  29.874  11.691 -0.1062 -0.0246 -0.0278
 2268DOPC   C3A26612  18.142  29.736  12.171  0.0237 -0.2518  0.0233
 2268DOPC   C4A26613  17.928  29.608  12.538 -0.0213  0.2722  0.0456
 2268DOPC   C1B26614  17.627  29.104  11.303  0.2298  0.0359 -0.3534
 2268DOPC   D2B26615  17.656  28.839  11.664  0.1326  0.1815 -0.2285
 2268DOPC   C3B26616  18.047  28.938  11.936  0.1064  0.2017  0.0693
 2268DOPC   C4B26617  18.477  29.151  11.870 -0.0260 -0.1007 -0.4916
 2269DOPE   NH326618  13.278  31.625  11.777 -0.2968 -0.0118  0.1033
 2269DOPE   PO426619  12.956  31.574  11.827 -0.3638  0.2381 -0.1370
 2269DOPE   GL126620  13.003  31.652  12.261 -0.1512 -0.3205  0.0671
 2269DOPE   GL226621  12.651  31.509  12.259  0.1092 -0.2957  0.1447
 2269DOPE   C1A26622  12.798  31.725  12.720  0.1800 -0.1675  0.2635
 2269DOPE   D2A26623  12.605  31.673  13.125 -0.3944 -0.0091  0.1332
 2269DOPE   C3A26624  12.602  31.837  13.548 -0.0803 -0.4447  0.0001
 2269DOPE   C4A26625  12.469  31.961  14.002  0.0342  0.2377  0.1923
 2269DOPE   C1B26626  12.387  31.444  12.632  0.1163  0.0305  0.0869
 2269DOPE   D2B26627  12.317  31.073  12.899  0.4283 -0.0209 -0.0558
 2269DOPE   C3B26628  12.321  31.219  13.338  0.0961  0.0079 -0.1410
 2269DOPE   C4B26629  12.634  31.295  13.676  0.0402  0.0722 -0.0527
 2270POSM   NC326630  19.797  27.267   9.153  0.0639  0.2581  0.3492
 2270POSM   PO426631  20.002  26.965   9.302 -0.1901  0.0858 -0.0025
 2270POSM   AM126632  19.971  27.000   9.647  0.2869 -0.1103  0.2777
 2270POSM   AM226633  19.765  27.035   9.820  0.3226  0.1025 -0.0365
 2270POSM   T1A26634  20.233  27.041  10.058 -0.2798 -0.0688  0.1464
 2270POSM   C2A26635  20.536  27.309  10.322  0.0720 -0.3741 -0.0170
 2270POSM   C3A26636  20.789  27.652  10.203 -0.1638 -0.0880  0.0861
 2270POSM   C1B26637  19.751  26.971  10.134 -0.0692  0.2425 -0.2472
 2270POSM   D2B26638  19.995  26.783  10.508 -0.2312 -0.0469  0.1563
 2270POSM   C3B26639  19.874  26.821  10.957  0.3340 -0.1333 -0.2009
 2270POSM   C4B26640  19.616  27.029  11.327 -0.1302 -0.0633 -0.4093
 2271DOPC   NC326641  17.954  32.947  10.614  0.1488 -0.2457 -0.0802
 2271DOPC   PO426642  17.959  32.545  10.539  0.1805 -0.1578 -0.1021
 2271DOPC   GL126643  18.177  32.547  10.848 -0.0504 -0.0349  0.0839
 2271DOPC   GL226644  18.180  32.824  11.060  0.0945  0.0074  0.0050
 2271DOPC   C1A26645  18.646  32.550  10.941  0.3598  0.2610  0.2261
 2271DOPC   D2A26646  19.062  32.553  11.107 -0.1421 -0.0245 -0.2483
 2271DOPC   C3A26647  19.271  32.332  11.490  0.0650 -0.0331  0.5498
 2271DOPC   C4A26648  19.457  32.026  11.798 -0.1886 -0.2504 -0.4122
 2271DOPC   C1B26649  18.557  32.986  11.197  0.1608 -0.0263 -0.0161
 2271DOPC   D2B26650  18.952  33.072  11.347 -0.0727  0.2199  0.0765
 2271DOPC   C3B26651  19.150  32.941  11.732 -0.0667  0.1660  0.0772
 2271DOPC   C4B26652  19.104  32.515  11.922  0.1213 -0.0584  0.0220
 2272POSM   NC326653  17.772  33.827  10.493  0.0068  0.0220 -0.0324
 2272POSM   PO426654  17.996  33.526  10.446  0.1335  0.0832 -0.0296
 2272POSM   AM126655  18.063  33.434  10.728  0.1082  0.0640 -0.3105
 2272POSM   AM226656  18.371  33.375  10.805 -0.1809 -0.2180 -0.1223
 2272POSM   T1A26657  18.068  33.376  11.256 -0.1411 -0.1653 -0.1740
 2272POSM   C2A26658  18.101  33.231  11.700  0.0766  0.1285 -0.0096
 2272POSM   C3A26659  18.305  33.287  12.058  0.0494 -0.0700 -0.5121
 2272POSM   C1B26660  18.395  33.647  11.021 -0.3222  0.1482 -0.0987
 2272POSM   D2B26661  18.231  33.772  11.507 -0.2952 -0.0315  0.0951
 2272POSM   C3B26662  18.412  33.810  11.945  0.0812 -0.1758 -0.0362
 2272POSM   C4B26663  18.446  33.961  12.373 -0.0359 -0.0007  0.3172
 2273DOPE   NH326664  15.843  26.618  10.048  0.0799  0.0001 -0.3222
 2273DOPE   PO426665  15.773  26.767  10.318  0.3458  0.2379  0.2209
 2273DOPE   GL126666  15.983  26.454  10.571 -0.0034 -0.1840  0.2390
 2273DOPE   GL226667  16.324  26.552  10.595 -0.2845 -0.1387  0.1247
 2273DOPE   C1A26668  16.063  26.087  10.892 -0.0522 -0.2949  0.0486
 2273DOPE   D2A26669  16.104  25.960  11.300  0.3099 -0.0646  0.1948
 2273DOPE   C3A26670  16.514  26.040  11.441 -0.1141  0.2706 -0.0034
 2273DOPE   C4A26671  16.926  26.075  11.327 -0.1094  0.3562 -0.0975
 2273DOPE   C1B26672  16.546  26.294  10.994  0.1576 -0.1601 -0.1642
 2273DOPE   D2B26673  16.747  26.510  11.441 -0.2107 -0.1728  0.1597
 2273DOPE   C3B26674  16.667  26.286  11.884  0.1018 -0.1942 -0.1695
 2273DOPE   C4B26675  16.870  26.176  12.315  0.3368  0.1815 -0.1259
 2274DOPC   NC326676  20.517  27.999   9.279  0.2524  0.0830  0.4806
 2274DOPC   PO426677  20.151  28.116   9.132 -0.1412 -0.0556 -0.0888
 2274DOPC   GL126678  20.238  28.388   9.415  0.2145 -0.0068 -0.1676
 2274DOPC   GL226679  20.138  28.659   9.447 -0.0520 -0.1903 -0.2242
 2274DOPC   C1A26680  20.323  28.364   9.869  0.1692  0.1553 -0.1019
 2274DOPC   D2A26681  20.433  28.018  10.183 -0.5941 -0.2834 -0.2979
 2274DOPC   C3A26682  20.214  27.713  10.411  0.0497  0.2339 -0.2906
 2274DOPC   C4A26683  20.059  27.282  10.483  0.2858 -0.1113  0.1228
 2274DOPC   C1B26684  20.071  28.916   9.848 -0.1709 -0.6118 -0.1185
 2274DOPC   D2B26685  20.269  28.899  10.264  0.2428  0.1655  0.0114
 2274DOPC   C3B26686  20.443  28.511  10.401  0.0249  0.0529 -0.1851
 2274DOPC   C4B26687  20.576  28.551  10.894  0.2966  0.0076  0.2547
 2275DOPE   NH326688  21.281  25.453   9.024  0.4426  0.2118  0.1635
 2275DOPE   PO426689  21.381  25.678   8.890 -0.1232  0.0997  0.0944
 2275DOPE   GL126690  21.549  25.737   9.288 -0.0199  0.1763  0.0708
 2275DOPE   GL226691  21.371  25.665   9.544 -0.2377 -0.0765  0.4380
 2275DOPE   C1A26692  21.786  25.930   9.692  0.1182 -0.2740 -0.1561
 2275DOPE   D2A26693  21.834  26.084  10.160 -0.0903  0.1143  0.1327
 2275DOPE   C3A26694  22.196  25.902  10.228 -0.2194 -0.2342 -0.1827
 2275DOPE   C4A26695  22.592  25.570  10.289  0.2698 -0.0385 -0.0895
 2275DOPE   C1B26696  21.283  25.759   9.970 -0.0884 -0.0788 -0.3838
 2275DOPE   D2B26697  21.381  25.878  10.414 -0.5202 -0.4665 -0.3237
 2275DOPE   C3B26698  21.744  25.583  10.457 -0.0328  0.1885  0.0560
 2275DOPE   C4B26699  22.093  25.448  10.684 -0.2144  0.2613 -0.0954
 2276POSM   NC326700  12.653  28.468  11.378  0.0696 -0.2821 -0.1516
 2276POSM   PO426701  12.318  28.576  11.560 -0.0174  0.0018  0.2058
 2276POSM   AM126702  12.463  28.566  11.883 -0.0049  0.1792  0.2191
 2276POSM   AM226703  12.417  28.402  12.081  0.1281  0.2098  0.1370
 2276POSM   T1A26704  12.679  28.865  12.187  0.0342  0.0549  0.0190
 2276POSM   C2A26705  13.057  29.060  12.302  0.2872 -0.2052 -0.1440
 2276POSM   C3A26706  13.096  29.341  12.702 -0.5101 -0.0792  0.0694
 2276POSM   C1B26707  12.440  28.280  12.337  0.0129  0.2475 -0.3162
 2276POSM   D2B26708  12.254  28.174  12.749  0.3518  0.2008 -0.1167
 2276POSM   C3B26709  12.199  27.851  13.092 -0.3091  0.1149  0.0651
 2276POSM   C4B26710  12.100  27.521  13.342 -0.0381  0.2092 -0.2922
 2277DOPC   NC326711  18.755  30.732  10.549  0.2054 -0.0355  0.0892
 2277DOPC   PO426712  18.840  30.488  10.276 -0.2659  0.4622  0.1101
 2277DOPC   GL126713  19.142  30.448  10.468 -0.0168  0.1296  0.2520
 2277DOPC   GL226714  19.054  30.367  10.736 -0.1491  0.3315 -0.1165
 2277DOPC   C1A26715  19.379  30.755  10.681 -0.3718 -0.1033  0.0020
 2277DOPC   D2A26716  19.709  30.889  11.042 -0.0671  0.4423 -0.1176
 2277DOPC   C3A26717  19.907  30.614  11.331  0.2415  0.4277 -0.1825
 2277DOPC   C4A26718  20.198  30.506  11.691 -0.1176  0.0509  0.0108
 2277DOPC   C1B26719  19.378  30.226  11.027  0.1939 -0.1255 -0.0085
 2277DOPC   D2B26720  19.462  30.181  11.460  0.2445 -0.0956 -0.1936
 2277DOPC   C3B26721  19.576  29.847  11.813  0.1427  0.1234  0.0935
 2277DOPC   C4B26722  19.515  29.435  12.055  0.1667 -0.0896 -0.1360
 2278POSM   NC326723  19.322  23.773   8.906 -0.2188 -0.0810 -0.4956
 2278POSM   PO426724  19.094  23.971   9.128  0.1902  0.0821  0.0713
 2278POSM   AM126725  18.947  23.940   9.449 -0.1074  0.0651 -0.2088
 2278POSM   AM226726  18.775  24.122   9.619  0.2588  0.1380  0.1252
 2278POSM   T1A26727  19.072  23.765   9.891  0.0940 -0.1775 -0.0075
 2278POSM   C2A26728  19.095  23.761  10.373  0.0041  0.4762  0.0950
 2278POSM   C3A26729  18.786  23.519  10.631 -0.0307  0.1194  0.2893
 2278POSM   C1B26730  19.028  24.235   9.794  0.0588  0.1238 -0.1523
 2278POSM   D2B26731  19.388  24.139  10.033  0.0362  0.0727 -0.0346
 2278POSM   C3B26732  19.326  24.204  10.482  0.1145  0.1271 -0.0451
 2278POSM   C4B26733  19.170  24.363  10.921  0.0008 -0.3587  0.0221
 2279POSM   NC326734  11.566  32.035  11.993  0.1208 -0.2095  0.1123
 2279POSM   PO426735  11.317  32.312  12.136 -0.0259 -0.3362  0.2733
 2279POSM   AM126736  11.400  32.171  12.419 -0.0295  0.2168  0.0212
 2279POSM   AM226737  11.350  32.130  12.715  0.4193  0.0768  0.2083
 2279POSM   T1A26738  11.781  31.906  12.610  0.0678  0.2650  0.2146
 2279POSM   C2A26739  12.171  32.021  12.848 -0.0153  0.3212  0.2344
 2279POSM   C3A26740  12.404  32.178  13.238 -0.0249  0.0393  0.1664
 2279POSM   C1B26741  11.606  32.299  12.865 -0.0303  0.2736 -0.0998
 2279POSM   D2B26742  11.859  32.387  13.256  0.4100 -0.1293 -0.3413
 2279POSM   C3B26743  11.586  32.341  13.621  0.0838  0.3679 -0.1906
 2279POSM   C4B26744  11.497  32.244  14.015  0.0373 -0.1512 -0.0478
 2280DOPC   NC326745  17.094  26.177   9.852 -0.0701  0.0265  0.0316
 2280DOPC   PO426746  17.237  26.141  10.222  0.1988 -0.1102 -0.1360
 2280DOPC   GL126747  17.368  25.866  10.442 -0.0751 -0.3492  0.3359
 2280DOPC   GL226748  17.164  25.663  10.403  0.3241  0.0303 -0.1475
 2280DOPC   C1A26749  17.685  25.714  10.804 -0.1408  0.2503 -0.1901
 2280DOPC   D2A26750  17.844  25.637  11.225 -0.4329 -0.0433 -0.1788
 2280DOPC   C3A26751  17.836  25.874  11.632  0.0476 -0.0021 -0.2939
 2280DOPC   C4A26752  17.645  25.845  12.063 -0.1080  0.2115  0.2753
 2280DOPC   C1B26753  16.804  25.652  10.694 -0.1511  0.2412  0.1231
 2280DOPC   D2B26754  16.493  25.822  11.000  0.1537  0.2365 -0.0370
 2280DOPC   C3B26755  16.471  25.543  11.366 -0.1591  0.0435  0.1229
 2280DOPC   C4B26756  16.827  25.433  11.600  0.2039 -0.0066  0.0873
 2281DOPE   NH326757  14.486  27.311  10.905  0.1857 -0.0802 -0.2150
 2281DOPE   PO426758  14.601  27.184  11.173 -0.0909 -0.1989 -0.0103
 2281DOPE   GL126759  14.611  26.895  11.500  0.3787 -0.0459 -0.0218
 2281DOPE   GL226760  14.526  27.104  11.662  0.2317 -0.2824  0.1397
 2281DOPE   C1A26761  14.433  26.442  11.518  0.1261  0.1755 -0.0748
 2281DOPE   D2A26762  14.248  26.058  11.345  0.0381 -0.3028 -0.1718
 2281DOPE   C3A26763  13.927  25.814  11.573 -0.1826  0.0797  0.1543
 2281DOPE   C4A26764  13.636  25.474  11.690  0.1872  0.3318 -0.0813
 2281DOPE   C1B26765  14.941  27.198  11.757 -0.1680  0.2066 -0.0492
 2281DOPE   D2B26766  15.251  27.534  11.935  0.0464 -0.1377  0.0117
 2281DOPE   C3B26767  15.613  27.508  12.259  0.1245 -0.0686  0.2572
 2281DOPE   C4B26768  15.904  27.410  12.614  0.0188  0.0074 -0.4392
 2282POSM   NC326769  15.216   2.148  11.133  0.1751 -0.3859  0.0182
 2282POSM   PO426770  14.863   1.999  11.061  0.2374 -0.0706  0.1712
 2282POSM   AM126771  14.804   2.084  11.361  0.0595  0.0875  0.2891
 2282POSM   AM226772  14.956   1.943  11.578 -0.3686  0.2977  0.2759
 2282POSM   T1A26773  14.762   2.315  11.800  0.0092 -0.0489 -0.0216
 2282POSM   C2A26774  14.913   2.245  12.205  0.3325 -0.0710  0.2298
 2282POSM   C3A26775  15.243   2.182  12.500 -0.1882 -0.0878  0.2380
 2282POSM   C1B26776  14.829   1.867  11.935 -0.2763  0.2303 -0.0365
 2282POSM   D2B26777  14.675   1.752  12.379 -0.1418 -0.0873 -0.0007
 2282POSM   C3B26778  14.809   2.042  12.690 -0.1472 -0.0505  0.2556
 2282POSM   C4B26779  15.019   2.268  13.060 -0.0599 -0.4662 -0.0681
 2283POSM   NC326780  15.003  26.421  10.416  0.0011 -0.0304 -0.0892
 2283POSM   PO426781  15.168  26.752  10.438  0.1149 -0.0975 -0.0183
 2283POSM   AM126782  15.359  26.792  10.672 -0.0839 -0.3895 -0.5160
 2283POSM   AM226783  15.290  26.896  10.965  0.1186 -0.1908  0.1830
 2283POSM   T1A26784  15.724  26.513  10.939 -0.1710  0.0059 -0.0100
 2283POSM   C2A26785  16.060  26.447  11.275 -0.0028 -0.1987  0.3176
 2283POSM   C3A26786  16.290  26.444  11.632 -0.0019  0.0181 -0.0547
 2283POSM   C1B26787  15.341  26.764  11.328 -0.0237  0.1931  0.0280
 2283POSM   D2B26788  15.244  26.679  11.796 -0.2150  0.1349  0.1014
 2283POSM   C3B26789  14.798  26.711  11.931  0.0517  0.5949  0.3165
 2283POSM   C4B26790  14.368  26.628  12.041  0.3861  0.1358 -0.2954
 2284DOPS   CNO26791  19.782  30.389   9.377  0.0062 -0.1755  0.3314
 2284DOPS   PO426792  20.055  30.544   9.558  0.0940  0.3901  0.3016
 2284DOPS   GL126793  20.209  30.207   9.561  0.5420  0.1300  0.3946
 2284DOPS   GL226794  20.451  30.255   9.462  0.0044 -0.0531  0.0130
 2284DOPS   C1A26795  20.159  29.998   9.986 -0.0950  0.2812  0.0773
 2284DOPS   D2A26796  20.331  29.723  10.303  0.0137 -0.0200  0.1435
 2284DOPS   C3A26797  20.510  29.451  10.644 -0.0886  0.1527 -0.1990
 2284DOPS   C4A26798  20.461  28.993  10.739 -0.0003 -0.1116  0.0697
 2284DOPS   C1B26799  20.580  30.329   9.904 -0.0175 -0.2122 -0.3759
 2284DOPS   D2B26800  20.979  30.516  10.170  0.1404 -0.0243  0.3006
 2284DOPS   C3B26801  20.783  30.572  10.614 -0.4657 -0.0184 -0.0573
 2284DOPS   C4B26802  20.758  30.707  11.014 -0.0857  0.1570 -0.0822
 2285DOPC   NC326803  13.726  32.048  11.362 -0.1984  0.5191 -0.0025
 2285DOPC   PO426804  13.657  31.929  11.718  0.0658 -0.5677  0.0216
 2285DOPC   GL126805  13.621  32.131  12.077  0.1997  0.0648  0.0832
 2285DOPC   GL226806  13.820  32.362  12.069  0.0032  0.0841  0.0864
 2285DOPC   C1A26807  13.437  31.974  12.458  0.3823 -0.1627 -0.0440
 2285DOPC   D2A26808  13.418  31.628  12.818  0.1776  0.0364 -0.3133
 2285DOPC   C3A26809  13.603  31.764  13.269  0.1279  0.0452 -0.1817
 2285DOPC   C4A26810  13.525  31.630  13.724 -0.1836  0.1587 -0.1105
 2285DOPC   C1B26811  14.122  32.281  12.462 -0.2590  0.1265 -0.1599
 2285DOPC   D2B26812  14.180  32.242  12.898 -0.0656  0.1621 -0.2258
 2285DOPC   C3B26813  14.584  32.099  13.040 -0.0776 -0.2725 -0.0276
 2285DOPC   C4B26814  14.904  31.769  12.961  0.3345 -0.1723 -0.1134
 2286POSM   NC326815  11.990  29.644  11.407  0.0904  0.5437 -0.0416
 2286POSM   PO426816  12.315  29.428  11.450  0.0127  0.0056  0.3533
 2286POSM   AM126817  12.384  29.473  11.740  0.1050  0.0579 -0.0806
 2286POSM   AM226818  12.285  29.629  11.977  0.0116 -0.1075 -0.1697
 2286POSM   T1A26819  12.713  29.478  12.143  0.0965  0.2614  0.2497
 2286POSM   C2A26820  12.792  29.694  12.576  0.1339 -0.1561  0.1560
 2286POSM   C3A26821  12.776  29.588  13.030  0.0022  0.2725  0.0907
 2286POSM   C1B26822  12.332  29.647  12.375 -0.4543 -0.2544 -0.2475
 2286POSM   D2B26823  12.205  29.531  12.794 -0.1420 -0.0263  0.0603
 2286POSM   C3B26824  12.464  29.211  13.035 -0.0011  0.1367  0.5555
 2286POSM   C4B26825  12.596  28.838  13.244 -0.3021 -0.1705  0.0954
 2287DOPE   NH326826  16.981  27.758  10.720  0.0059  0.2039 -0.3922
 2287DOPE   PO426827  17.267  27.828  10.607  0.2158  0.0234  0.1264
 2287DOPE   GL126828  17.311  27.968  10.962  0.0417 -0.1689 -0.2685
 2287DOPE   GL226829  17.096  28.154  10.991  0.0795 -0.1472 -0.2289
 2287DOPE   C1A26830  17.455  27.781  11.332 -0.1882 -0.2820 -0.1724
 2287DOPE   D2A26831  17.480  27.820  11.784 -0.0494 -0.1025 -0.2271
 2287DOPE   C3A26832  17.871  27.944  11.967 -0.3198  0.3222 -0.0151
 2287DOPE   C4A26833  18.245  28.085  12.238  0.1310  0.3131 -0.1179
 2287DOPE   C1B26834  17.070  28.099  11.495  0.0968 -0.0344  0.1833
 2287DOPE   D2B26835  16.964  27.929  11.883  0.6387 -0.2039  0.0545
 2287DOPE   C3B26836  17.323  27.878  12.247  0.0225 -0.2087  0.3275
 2287DOPE   C4B26837  17.740  28.023  12.429 -0.0435  0.2789 -0.1028
 2288POSM   NC326838  11.005  31.617  12.658 -0.0595  0.3793 -0.5036
 2288POSM   PO426839  10.935  31.917  12.408 -0.3009  0.3038  0.0729
 2288POSM   AM126840  10.769  32.017  12.663 -0.2259 -0.3639 -0.1117
 2288POSM   AM226841  10.881  32.127  12.909 -0.0687  0.0577 -0.0340
 2288POSM   T1A26842  10.474  31.812  13.012  0.0142  0.1798  0.1666
 2288POSM   C2A26843  10.294  31.386  13.045  0.2196  0.1826  0.1035
 2288POSM   C3A26844  10.323  30.964  13.266 -0.1410  0.0306 -0.1828
 2288POSM   C1B26845  11.081  31.879  13.051  0.1978 -0.1879  0.0720
 2288POSM   D2B26846  11.180  31.596  13.324  0.5016 -0.0278 -0.0304
 2288POSM   C3B26847  10.892  31.605  13.697 -0.1007 -0.0598  0.2457
 2288POSM   C4B26848  10.601  31.353  13.941  0.4420 -0.0477  0.1638
 2289POSM   NC326849  17.338  30.987  11.191  0.0021  0.0959  0.2205
 2289POSM   PO426850  16.944  30.993  11.173 -0.0285  0.3140 -0.2661
 2289POSM   AM126851  16.839  30.724  11.335  0.0910  0.3297  0.0161
 2289POSM   AM226852  16.909  30.490  11.489 -0.2457 -0.1239 -0.1609
 2289POSM   T1A26853  16.415  30.577  11.593  0.1507  0.1766  0.0520
 2289POSM   C2A26854  16.139  30.371  11.895  0.0603 -0.1973 -0.1094
 2289POSM   C3A26855  16.021  30.143  12.254  0.0643 -0.2340  0.0148
 2289POSM   C1B26856  17.035  30.175  11.633  0.0829 -0.1084  0.3180
 2289POSM   D2B26857  17.331  29.884  11.869 -0.2575 -0.0961 -0.0578
 2289POSM   C3B26858  17.377  29.524  11.599 -0.0248  0.0537  0.1416
 2289POSM   C4B26859  17.208  29.096  11.666 -0.0929 -0.2658 -0.0871
 2290POSM   NC326860  14.168  31.132  11.534 -0.3188  0.0735  0.1688
 2290POSM   PO426861  14.321  30.815  11.378  0.0232  0.1172 -0.0983
 2290POSM   AM126862  14.428  30.748  11.686  0.2530  0.0931  0.0416
 2290POSM   AM226863  14.695  30.620  11.779 -0.0858  0.0585  0.2619
 2290POSM   T1A26864  14.366  30.749  12.174 -0.0675 -0.0032  0.1668
 2290POSM   C2A26865  14.400  30.810  12.598  0.0096  0.0086 -0.2889
 2290POSM   C3A26866  14.414  30.620  12.967 -0.0217  0.2295  0.1985
 2290POSM   C1B26867  14.813  30.405  12.003 -0.1623  0.0978 -0.1566
 2290POSM   D2B26868  15.023  30.128  12.289 -0.1041 -0.1062 -0.2347
 2290POSM   C3B26869  14.815  29.952  12.641  0.2649  0.0722 -0.1761
 2290POSM   C4B26870  14.625  29.543  12.770  0.0444 -0.0221  0.1919
 2291DOPS   CNO26871  21.774  29.516   9.242 -0.1459  0.1003  0.0676
 2291DOPS   PO426872  21.681  29.794   9.449 -0.0822 -0.0768  0.0189
 2291DOPS   GL126873  21.959  29.547   9.727  0.0788 -0.1759 -0.0496
 2291DOPS   GL226874  21.949  29.789   9.949  0.0793  0.0279  0.3346
 2291DOPS   C1A26875  22.419  29.702   9.794  0.0956  0.0396  0.1681
 2291DOPS   D2A26876  22.859  29.699   9.623 -0.0269  0.2817  0.2535
 2291DOPS   C3A26877  23.046  29.344   9.862  0.0369  0.0645 -0.2120
 2291DOPS   C4A26878  23.025  29.037  10.261 -0.2015  0.0418 -0.0342
 2291DOPS   C1B26879  21.870  29.656  10.420  0.1325 -0.1756 -0.2579
 2291DOPS   D2B26880  21.747  29.614  10.896  0.0897  0.2140  0.1509
 2291DOPS   C3B26881  21.398  29.919  10.903 -0.4096  0.0557  0.1259
 2291DOPS   C4B26882  21.108  30.112  10.642  0.2885  0.0541  0.3224
 2292POSM   NC326883  19.883  24.900   9.045 -0.2754 -0.1441  0.0985
 2292POSM   PO426884  19.961  25.105   9.334  0.2922  0.2482  0.0996
 2292POSM   AM126885  19.751  24.839   9.450  0.0391  0.1148 -0.3156
 2292POSM   AM226886  19.659  24.583   9.479 -0.3831 -0.0523  0.0100
 2292POSM   T1A26887  19.336  24.755   9.768 -0.4963 -0.0242 -0.4319
 2292POSM   C2A26888  18.873  24.698   9.886  0.0448  0.1076  0.0314
 2292POSM   C3A26889  18.456  24.465  10.037  0.1011  0.1910  0.1504
 2292POSM   C1B26890  19.836  24.318   9.656 -0.1110  0.0338  0.2513
 2292POSM   D2B26891  20.053  24.043   9.956 -0.4715  0.0995 -0.0398
 2292POSM   C3B26892  20.114  24.215  10.349 -0.0349 -0.1518 -0.1390
 2292POSM   C4B26893  19.823  24.402  10.643 -0.4396  0.0963  0.1602
 2293DOPE   NH326894  22.053  27.108   8.948  0.0480  0.0907  0.1529
 2293DOPE   PO426895  22.148  27.374   8.911 -0.0374  0.2411 -0.1989
 2293DOPE   GL126896  22.407  27.372   9.189 -0.6472  0.0997 -0.4110
 2293DOPE   GL226897  22.376  27.136   9.434 -0.0257  0.0304  0.3033
 2293DOPE   C1A26898  22.413  27.652   9.581  0.2314  0.0080  0.1682
 2293DOPE   D2A26899  22.448  27.694  10.089  0.0123  0.1774 -0.2040
 2293DOPE   C3A26900  22.102  27.818  10.394  0.1191  0.0691 -0.0335
 2293DOPE   C4A26901  21.660  27.921  10.364 -0.1850 -0.2054 -0.2170
 2293DOPE   C1B26902  22.508  27.150   9.908 -0.1784  0.1950 -0.1203
 2293DOPE   D2B26903  22.684  27.060  10.358  0.1260 -0.0083  0.0555
 2293DOPE   C3B26904  22.960  26.879  10.676 -0.1317  0.1340  0.2540
 2293DOPE   C4B26905  22.985  26.798  11.132 -0.2585  0.0868 -0.2590
 2294DOPE   NH326906  22.643  33.430   9.797 -0.0152 -0.1125  0.0274
 2294DOPE   PO426907  22.825  33.417  10.094  0.4110  0.5286 -0.0245
 2294DOPE   GL126908  22.956  33.426  10.516  0.6244  0.0519  0.1194
 2294DOPE   GL226909  22.704  33.344  10.654  0.0864  0.5982  0.0814
 2294DOPE   C1A26910  23.065  33.672  10.874  0.0139  0.1944  0.3239
 2294DOPE   D2A26911  23.004  33.704  11.312  0.0485 -0.0721 -0.2519
 2294DOPE   C3A26912  22.745  33.680  11.724 -0.2168  0.0766 -0.0629
 2294DOPE   C4A26913  22.518  33.399  12.017  0.2220  0.1239 -0.2273
 2294DOPE   C1B26914  22.573  33.698  10.942 -0.0787 -0.1970  0.5362
 2294DOPE   D2B26915  22.777  34.084  11.044  0.0213 -0.4124 -0.2238
 2294DOPE   C3B26916  22.942  34.220  11.428  0.0133  0.0524  0.0007
 2294DOPE   C4B26917  23.097  34.210  11.877  0.0012  0.0101 -0.3696
 2295DOPE   NH326918  18.192  28.870  10.366 -0.0291  0.0166 -0.1203
 2295DOPE   PO426919  17.909  28.932  10.513 -0.2477 -0.1177 -0.3993
 2295DOPE   GL126920  18.213  28.911  10.825 -0.0787  0.5447  0.2050
 2295DOPE   GL226921  18.080  29.049  10.998  0.0902 -0.0911 -0.0606
 2295DOPE   C1A26922  18.566  28.955  11.152 -0.0090 -0.0497 -0.2159
 2295DOPE   D2A26923  18.890  29.042  11.488  0.1427 -0.1915  0.0256
 2295DOPE   C3A26924  19.320  28.927  11.372 -0.3148  0.0537  0.0869
 2295DOPE   C4A26925  19.711  28.764  11.430 -0.1030  0.0717  0.1075
 2295DOPE   C1B26926  18.119  29.057  11.434 -0.2172 -0.4596 -0.0604
 2295DOPE   D2B26927  17.865  29.338  11.724 -0.1950 -0.0257 -0.2216
 2295DOPE   C3B26928  17.528  29.333  12.022  0.3962  0.1235 -0.4094
 2295DOPE   C4B26929  17.389  29.269  12.524  0.0652 -0.2951  0.3879
 2296DOPE   NH326930  11.663  24.129  10.316 -0.0957  0.0539  0.0988
 2296DOPE   PO426931  11.352  24.199  10.256  0.2710 -0.3913  0.0041
 2296DOPE   GL126932  11.243  24.076  10.597  0.1186 -0.2335  0.2794
 2296DOPE   GL226933  11.054  23.893  10.596  0.3355 -0.0725  0.2010
 2296DOPE   C1A26934  11.310  24.033  11.064  0.1703  0.0047  0.0948
 2296DOPE   D2A26935  11.283  24.204  11.476 -0.2160 -0.2420 -0.3491
 2296DOPE   C3A26936  11.260  24.581  11.756  0.0152 -0.0487 -0.1287
 2296DOPE   C4A26937  11.121  24.754  12.177  0.0089 -0.0789 -0.3646
 2296DOPE   C1B26938  10.836  23.673  10.914 -0.2659  0.2369 -0.1899
 2296DOPE   D2B26939  10.943  23.853  11.328  0.0805  0.1220 -0.2002
 2296DOPE   C3B26940  10.921  23.437  11.529  0.1724 -0.3827  0.0321
 2296DOPE   C4B26941  10.876  23.028  11.657  0.1746  0.2146  0.0813
 2297POSM   NC326942  12.205  26.041  10.563  0.1652 -0.2682  0.2511
 2297POSM   PO426943  11.827  26.238  10.601  0.0572  0.1800 -0.1065
 2297POSM   AM126944  11.853  26.039  10.861 -0.3991  0.0901  0.5272
 2297POSM   AM226945  12.029  25.976  11.069  0.0152  0.0409 -0.0072
 2297POSM   T1A26946  11.608  25.812  11.219  0.0446  0.0525  0.1826
 2297POSM   C2A26947  11.361  25.658  11.597  0.1116 -0.0909 -0.0926
 2297POSM   C3A26948  11.265  25.657  12.085 -0.1282  0.0057  0.5524
 2297POSM   C1B26949  12.179  25.783  11.249 -0.1555  0.1107  0.0295
 2297POSM   D2B26950  12.209  25.495  11.608 -0.0698 -0.2322 -0.0181
 2297POSM   C3B26951  12.511  25.873  11.740 -0.0212  0.0158  0.2512
 2297POSM   C4B26952  12.982  25.923  11.951 -0.1627 -0.1768  0.1416
 2298DOPC   NC326953  19.684  33.391  10.235  0.0190 -0.1458  0.2750
 2298DOPC   PO426954  20.030  33.256  10.017  0.1912  0.0816 -0.2450
 2298DOPC   GL126955  19.843  32.964  10.314  0.0444  0.3302  0.2629
 2298DOPC   GL226956  19.923  32.763  10.548  0.2474  0.2971 -0.1625
 2298DOPC   C1A26957  19.774  33.195  10.712  0.0819 -0.2185  0.1118
 2298DOPC   D2A26958  19.865  33.085  11.165  0.0426  0.2311  0.3035
 2298DOPC   C3A26959  19.546  33.317  11.390  0.0488  0.0235 -0.0899
 2298DOPC   C4A26960  19.530  33.759  11.590 -0.1071 -0.0451 -0.2221
 2298DOPC   C1B26961  20.241  32.920  10.785 -0.4526 -0.0447 -0.0263
 2298DOPC   D2B26962  20.723  32.826  10.940 -0.1933  0.1965 -0.1477
 2298DOPC   C3B26963  20.953  33.003  11.354 -0.0096 -0.1161  0.0569
 2298DOPC   C4B26964  20.906  33.338  11.644 -0.2053  0.2597  0.0951
 2299DOPC   NC326965  16.345  33.411  11.413 -0.0538 -0.0391 -0.1218
 2299DOPC   PO426966  15.936  33.277  11.399 -0.1078 -0.0782  0.0919
 2299DOPC   GL126967  15.699  33.356  11.714  0.4547  0.1675 -0.1900
 2299DOPC   GL226968  15.822  33.219  11.902 -0.1991 -0.0232 -0.0167
 2299DOPC   C1A26969  15.635  33.679  12.017  0.1279 -0.2236  0.0796
 2299DOPC   D2A26970  15.604  34.048  12.278 -0.1668 -0.1839  0.1755
 2299DOPC   C3A26971  15.843  34.118  12.683 -0.2824 -0.0921 -0.1160
 2299DOPC   C4A26972  16.031  34.248  13.100 -0.0815  0.1599 -0.3498
 2299DOPC   C1B26973  15.624  33.266  12.360 -0.2179 -0.0258 -0.2204
 2299DOPC   D2B26974  15.418  33.359  12.754 -0.1417  0.1043 -0.0293
 2299DOPC   C3B26975  15.529  33.761  12.871 -0.0256  0.0656  0.0463
 2299DOPC   C4B26976  15.594  34.038  13.272 -0.0767 -0.1459  0.2864
 2300POSM   NC326977  14.176  29.032  10.980  0.1245 -0.1474 -0.2500
 2300POSM   PO426978  14.150  29.422  11.078  0.3246 -0.2333 -0.2074
 2300POSM   AM126979  14.258  29.306  11.364 -0.1204 -0.1967  0.0331
 2300POSM   AM226980  14.104  29.287  11.576  0.0333  0.1528 -0.1843
 2300POSM   T1A26981  14.450  28.979  11.670 -0.0823 -0.0877 -0.0651
 2300POSM   C2A26982  14.231  28.513  11.797 -0.2299 -0.2735  0.2341
 2300POSM   C3A26983  13.987  28.172  12.015  0.2743  0.2965  0.5048
 2300POSM   C1B26984  14.191  29.493  11.842 -0.0959 -0.0812  0.1329
 2300POSM   D2B26985  14.190  29.707  12.283  0.1544 -0.0358  0.0103
 2300POSM   C3B26986  13.782  29.838  12.480  0.1872 -0.0570  0.3845
 2300POSM   C4B26987  13.643  30.147  12.824 -0.1905  0.1093  0.0277
 2301POSM   NC326988  18.498  29.028   9.994  0.0986  0.0956  0.1985
 2301POSM   PO426989  18.452  28.664   9.970 -0.0070  0.1413  0.1603
 2301POSM   AM126990  18.608  28.612  10.219  0.4169  0.1305  0.0496
 2301POSM   AM226991  18.682  28.730  10.443  0.3643 -0.1194 -0.4562
 2301POSM   T1A26992  18.977  28.347  10.422  0.0915 -0.0318 -0.2203
 2301POSM   C2A26993  19.372  28.275  10.607  0.0357 -0.0180  0.3475
 2301POSM   C3A26994  19.481  28.104  10.984 -0.1174 -0.0909  0.2109
 2301POSM   C1B26995  18.598  28.716  10.754 -0.2929  0.2758  0.1772
 2301POSM   D2B26996  18.471  28.470  11.110  0.1477 -0.2503 -0.0784
 2301POSM   C3B26997  18.702  28.609  11.501  0.0253  0.2316  0.2477
 2301POSM   C4B26998  18.822  28.749  11.934  0.2108 -0.1738 -0.1424
 2302DOPS   CNO26999  22.150  25.751   8.535  0.2263 -0.3742  0.5786
 2302DOPS   PO427000  22.514  25.761   8.568  0.0016 -0.0611  0.0290
 2302DOPS   GL127001  22.807  25.696   8.835  0.1047 -0.0743 -0.3629
 2302DOPS   GL227002  22.925  26.001   8.943 -0.0664  0.0933  0.2093
 2302DOPS   C1A27003  22.581  25.771   9.210 -0.0612  0.3560 -0.0578
 2302DOPS   D2A27004  22.138  25.759   9.269 -0.3151 -0.2504 -0.2102
 2302DOPS   C3A27005  21.857  25.479   9.453 -0.1434  0.0628 -0.2166
 2302DOPS   C4A27006  21.729  25.419   9.915  0.0857 -0.1212  0.0882
 2302DOPS   C1B27007  23.111  25.777   9.253 -0.0584  0.1463 -0.1162
 2302DOPS   D2B27008  23.433  25.987   9.514 -0.0701 -0.0027 -0.0479
 2302DOPS   C3B27009  23.714  26.142   9.827 -0.1239  0.0357 -0.0526
 2302DOPS   C4B27010  24.016  26.165  10.202 -0.1209 -0.0614 -0.0180
 2303DOPE   NH327011  17.872  31.974  10.505  0.1793 -0.0906  0.3522
 2303DOPE   PO427012  18.045  32.073  10.769 -0.0021 -0.0138 -0.3732
 2303DOPE   GL127013  18.347  32.071  10.942  0.2325  0.2411  0.4247
 2303DOPE   GL227014  18.339  31.824  11.096  0.0303  0.2978 -0.0218
 2303DOPE   C1A27015  18.583  32.204  11.335  0.1652 -0.0229  0.0669
 2303DOPE   D2A27016  18.788  32.553  11.568 -0.2604 -0.1230  0.1035
 2303DOPE   C3A27017  18.648  32.952  11.779  0.2924 -0.2289  0.0674
 2303DOPE   C4A27018  18.585  33.362  11.550 -0.2450 -0.2036  0.0351
 2303DOPE   C1B27019  18.694  31.579  11.299 -0.1802  0.0599 -0.0648
 2303DOPE   D2B27020  18.970  31.242  11.406  0.3459  0.1129 -0.1704
 2303DOPE   C3B27021  19.117  30.971  11.797  0.2671  0.2428 -0.1696
 2303DOPE   C4B27022  18.868  31.150  12.156 -0.1632 -0.2346  0.0818
 2304DOPC   NC327023  19.171  29.744   9.176 -0.1602 -0.0404  0.1146
 2304DOPC   PO427024  19.373  29.592   9.466 -0.0350  0.0790 -0.0382
 2304DOPC   GL127025  19.533  29.429   9.757  0.1032  0.3369 -0.1139
 2304DOPC   GL227026  19.711  29.212   9.671 -0.0147  0.0625  0.1946
 2304DOPC   C1A27027  19.940  29.512   9.974  0.1003 -0.1228 -0.3475
 2304DOPC   D2A27028  20.011  29.291  10.395  0.1849 -0.0856  0.2894
 2304DOPC   C3A27029  20.057  29.349  10.850  0.0583  0.0422 -0.0560
 2304DOPC   C4A27030  19.784  29.418  11.255  0.1165  0.1397 -0.3567
 2304DOPC   C1B27031  19.465  29.048  10.036  0.0621 -0.0677 -0.0407
 2304DOPC   D2B27032  19.398  29.062  10.491 -0.2524 -0.2636  0.1696
 2304DOPC   C3B27033  19.160  28.729  10.693  0.1715  0.1591  0.0239
 2304DOPC   C4B27034  19.012  28.582  11.139 -0.0569 -0.0395 -0.1022
 2305DOPC   NC327035  17.795  31.087  10.581 -0.3243 -0.1691  0.0566
 2305DOPC   PO427036  17.800  31.065  10.960  0.1505 -0.0797 -0.0383
 2305DOPC   GL127037  17.865  31.137  11.443 -0.1301 -0.1913  0.0411
 2305DOPC   GL227038  18.045  30.925  11.392  0.1974 -0.1461 -0.3197
 2305DOPC   C1A27039  18.011  31.337  11.847 -0.2744 -0.0328  0.1014
 2305DOPC   D2A27040  18.399  31.657  11.837 -0.0611 -0.0847  0.0429
 2305DOPC   C3A27041  18.796  31.500  11.792 -0.0835 -0.0099  0.1261
 2305DOPC   C4A27042  19.262  31.565  11.819  0.0045  0.0049  0.0863
 2305DOPC   C1B27043  18.020  30.821  11.807 -0.1069 -0.0706 -0.1640
 2305DOPC   D2B27044  17.873  30.559  12.139 -0.0722  0.2024  0.0848
 2305DOPC   C3B27045  17.686  30.742  12.587  0.1150 -0.1385 -0.0200
 2305DOPC   C4B27046  17.591  31.175  12.763  0.1587 -0.0431  0.1369
 2306DOPC   NC327047  16.838  32.683  11.279 -0.4390  0.1090 -0.1539
 2306DOPC   PO427048  17.091  32.601  10.997 -0.1055  0.0972  0.1868
 2306DOPC   GL127049  17.376  32.625  11.325 -0.1209 -0.0915 -0.1582
 2306DOPC   GL227050  17.376  32.335  11.334 -0.0690 -0.0113 -0.2641
 2306DOPC   C1A27051  17.408  32.635  11.780  0.0563 -0.1522  0.0676
 2306DOPC   D2A27052  17.649  32.516  12.222 -0.0288 -0.1262  0.1108
 2306DOPC   C3A27053  17.662  32.730  12.669  0.3328 -0.2739  0.0257
 2306DOPC   C4A27054  17.658  32.848  13.097  0.0965 -0.0075 -0.1971
 2306DOPC   C1B27055  17.555  31.969  11.566  0.1436 -0.1816 -0.0291
 2306DOPC   D2B27056  17.838  31.784  11.940 -0.0785 -0.1592  0.0100
 2306DOPC   C3B27057  17.677  32.028  12.276  0.2467 -0.2904 -0.1836
 2306DOPC   C4B27058  17.270  31.854  12.452  0.1354  0.1951  0.0860
 2307DOPE   NH327059  18.615  23.839   9.056 -0.2002  0.0054  0.0842
 2307DOPE   PO427060  18.501  23.525   9.097  0.0383 -0.1677  0.0607
 2307DOPE   GL127061  18.453  23.452   9.560 -0.1709  0.3486 -0.1430
 2307DOPE   GL227062  18.710  23.550   9.639 -0.1245  0.1079  0.0441
 2307DOPE   C1A27063  18.573  23.086   9.795 -0.1457 -0.0574  0.1456
 2307DOPE   D2A27064  18.219  22.818  10.012 -0.1020 -0.0464  0.0006
 2307DOPE   C3A27065  18.062  22.757  10.442  0.1221 -0.1864  0.0559
 2307DOPE   C4A27066  17.909  22.527  10.821 -0.4444 -0.0111 -0.3358
 2307DOPE   C1B27067  19.113  23.275   9.649 -0.2381  0.0780  0.2711
 2307DOPE   D2B27068  19.489  22.968   9.592 -0.1426  0.0585 -0.1071
 2307DOPE   C3B27069  19.937  23.037   9.513 -0.1703 -0.1763 -0.0668
 2307DOPE   C4B27070  20.330  23.022   9.723  0.1420  0.0263 -0.0514
 2308DOPC   NC327071  22.250  32.443   9.998 -0.2297 -0.1863 -0.0607
 2308DOPC   PO427072  22.522  32.255   9.775  0.0822 -0.0352  0.2703
 2308DOPC   GL127073  22.613  31.865   9.887 -0.0079  0.2243  0.5767
 2308DOPC   GL227074  22.728  31.929  10.115  0.0190 -0.3171  0.0027
 2308DOPC   C1A27075  22.408  31.515  10.119  0.0661 -0.0607  0.1992
 2308DOPC   D2A27076  22.369  31.455  10.530  0.0993 -0.1765  0.1022
 2308DOPC   C3A27077  22.099  31.244  10.859 -0.0056 -0.0927 -0.1545
 2308DOPC   C4A27078  21.958  31.103  11.284 -0.1591  0.4072  0.1043
 2308DOPC   C1B27079  22.709  31.789  10.564 -0.0470  0.0777 -0.0644
 2308DOPC   D2B27080  22.938  31.642  10.964 -0.0045 -0.3173 -0.0735
 2308DOPC   C3B27081  23.410  31.744  11.042 -0.4281  0.0757 -0.0294
 2308DOPC   C4B27082  23.733  31.918  10.737  0.0600 -0.0601 -0.1870
 2309POSM   NC327083  14.569  30.557  11.056 -0.1527 -0.2668 -0.3262
 2309POSM   PO427084  14.873  30.512  11.312  0.0417  0.0786  0.0514
 2309POSM   AM127085  14.969  30.306  11.526  0.0603  0.0268  0.1328
 2309POSM   AM227086  15.229  30.227  11.675 -0.1947 -0.3036 -0.0236
 2309POSM   T1A27087  14.901  29.938  11.849  0.1887 -0.0136  0.4331
 2309POSM   C2A27088  14.631  29.699  12.106  0.0620  0.0198  0.1813
 2309POSM   C3A27089  14.524  29.340  12.302 -0.0724 -0.1362  0.0654
 2309POSM   C1B27090  15.360  30.049  11.953  0.2307  0.1232  0.0965
 2309POSM   D2B27091  15.519  29.958  12.373 -0.0053 -0.2223  0.0906
 2309POSM   C3B27092  15.347  29.796  12.710 -0.1355  0.0910  0.0775
 2309POSM   C4B27093  15.062  29.840  13.070 -0.0281 -0.2831  0.1103
 2310DOPS   CNO27094  14.243  23.649   9.862  0.1174  0.0796 -0.1087
 2310DOPS   PO427095  14.539  23.849  10.025  0.1013 -0.1882  0.0218
 2310DOPS   GL127096  14.417  23.599  10.360  0.1555 -0.1343  0.2145
 2310DOPS   GL227097  14.556  23.390  10.238 -0.1379  0.3908 -0.1563
 2310DOPS   C1A27098  14.195  23.782  10.824 -0.0511  0.0202  0.0516
 2310DOPS   D2A27099  14.079  24.195  11.069  0.1906 -0.1446 -0.2810
 2310DOPS   C3A27100  13.997  24.421  11.495  0.1437  0.2434  0.1545
 2310DOPS   C4A27101  14.191  24.527  11.910 -0.2733 -0.1975  0.0411
 2310DOPS   C1B27102  14.432  23.324  10.673  0.1185  0.2484 -0.2636
 2310DOPS   D2B27103  14.277  23.371  11.097 -0.0241  0.4513  0.0205
 2310DOPS   C3B27104  14.514  23.363  11.481 -0.1731 -0.0682  0.2284
 2310DOPS   C4B27105  14.542  23.650  11.843 -0.0441 -0.2250 -0.0724
 2311DOPE   NH327106  13.151  29.266  11.005  0.1837 -0.1554  0.0267
 2311DOPE   PO427107  13.032  29.091  11.260  0.2987 -0.1385 -0.1036
 2311DOPE   GL127108  13.141  29.089  11.526 -0.1573 -0.3510 -0.0113
 2311DOPE   GL227109  13.425  28.954  11.586  0.0771 -0.2309 -0.2224
 2311DOPE   C1A27110  13.160  29.449  11.860  0.1513  0.1635  0.2314
 2311DOPE   D2A27111  13.312  29.539  12.306  0.0320 -0.0516  0.1251
 2311DOPE   C3A27112  13.332  29.751  12.732  0.0594  0.2425 -0.1369
 2311DOPE   C4A27113  13.102  30.007  13.029 -0.0064  0.2446  0.0724
 2311DOPE   C1B27114  13.469  29.102  12.028 -0.2806 -0.2064  0.2419
 2311DOPE   D2B27115  13.506  29.019  12.514  0.1877 -0.0989  0.0645
 2311DOPE   C3B27116  13.705  29.340  12.741 -0.0593  0.1292 -0.2153
 2311DOPE   C4B27117  13.708  29.736  13.062  0.1241  0.0277 -0.2749
 2312POSM   NC327118  13.244  26.510  10.868 -0.1298  0.1411 -0.0830
 2312POSM   PO427119  12.880  26.463  10.845 -0.2895  0.0041 -0.3321
 2312POSM   AM127120  12.761  26.398  11.136 -0.1203 -0.3654  0.0517
 2312POSM   AM227121  12.661  26.611  11.324 -0.0578 -0.2727  0.4430
 2312POSM   T1A27122  12.387  26.182  11.361  0.1239 -0.0564 -0.0558
 2312POSM   C2A27123  12.042  26.036  11.622  0.1594  0.2866  0.0351
 2312POSM   C3A27124  11.781  25.718  11.875  0.0464  0.0527 -0.1473
 2312POSM   C1B27125  12.662  26.493  11.602  0.0301  0.0638  0.0869
 2312POSM   D2B27126  12.473  26.316  11.995  0.4471  0.3973 -0.1455
 2312POSM   C3B27127  12.380  26.698  12.215 -0.0634  0.1110 -0.0213
 2312POSM   C4B27128  12.362  26.983  12.560  0.0161  0.1531 -0.3128
 2313DOPC   NC327129  18.164  28.474  10.682  0.0362 -0.1952 -0.0587
 2313DOPC   PO427130  18.305  28.318  10.348 -0.0073 -0.2363 -0.1874
 2313DOPC   GL127131  18.607  28.268  10.666  0.3411 -0.0549  0.0727
 2313DOPC   GL227132  18.455  28.040  10.867 -0.0018 -0.0231  0.0625
 2313DOPC   C1A27133  18.973  28.157  10.934 -0.1993  0.0256 -0.0757
 2313DOPC   D2A27134  19.114  27.877  11.307 -0.1440 -0.3882  0.0047
 2313DOPC   C3A27135  19.541  27.949  11.498 -0.0150  0.0221  0.1222
 2313DOPC   C4A27136  19.974  28.000  11.594  0.0440  0.1746  0.1983
 2313DOPC   C1B27137  18.677  28.049  11.315  0.0810  0.1966  0.1204
 2313DOPC   D2B27138  18.871  28.205  11.691 -0.1459  0.0760  0.3507
 2313DOPC   C3B27139  19.224  28.354  11.552 -0.0323  0.2279 -0.1135
 2313DOPC   C4B27140  19.655  28.377  11.710  0.0826  0.0178  0.1767
 2314DOPS   CNO27141  14.665  26.000   9.975  0.1707  0.0735  0.1956
 2314DOPS   PO427142  14.632  26.141  10.327  0.1483  0.1112 -0.2619
 2314DOPS   GL127143  14.646  26.097  10.654 -0.3134 -0.1426 -0.2395
 2314DOPS   GL227144  14.751  26.278  10.864  0.0577 -0.0969  0.0585
 2314DOPS   C1A27145  14.846  25.793  10.938  0.0643  0.0637  0.1484
 2314DOPS   D2A27146  14.766  25.502  11.345 -0.1666 -0.1492 -0.0879
 2314DOPS   C3A27147  14.700  25.108  11.543  0.3689  0.1655 -0.1475
 2314DOPS   C4A27148  14.644  24.616  11.565  0.2433 -0.2772 -0.0316
 2314DOPS   C1B27149  14.718  26.116  11.315 -0.1106 -0.3469  0.3045
 2314DOPS   D2B27150  14.571  25.843  11.624  0.1884 -0.0728 -0.0602
 2314DOPS   C3B27151  14.241  25.847  11.931 -0.2843  0.0328  0.0103
 2314DOPS   C4B27152  14.059  25.824  12.359  0.0327 -0.2364 -0.1964
 2315DOPC   NC327153  13.571  28.273  11.021 -0.3277  0.1455  0.0226
 2315DOPC   PO427154  13.580  27.892  11.043  0.0855 -0.2038 -0.0671
 2315DOPC   GL127155  13.557  28.017  11.390 -0.0894 -0.1964 -0.1437
 2315DOPC   GL227156  13.783  27.817  11.527 -0.0757  0.3103  0.0466
 2315DOPC   C1A27157  13.695  28.450  11.598  0.1805  0.0887 -0.0541
 2315DOPC   D2A27158  13.407  28.600  11.952 -0.1112 -0.1135  0.1677
 2315DOPC   C3A27159  13.723  28.625  12.263 -0.0246 -0.1163  0.1199
 2315DOPC   C4A27160  13.764  28.598  12.702 -0.1599 -0.1001 -0.2983
 2315DOPC   C1B27161  13.350  27.687  11.622 -0.1183 -0.0811  0.0451
 2315DOPC   D2B27162  13.087  27.638  12.042 -0.2935  0.0310 -0.1771
 2315DOPC   C3B27163  13.095  28.026  12.266 -0.0895  0.1434  0.3990
 2315DOPC   C4B27164  13.418  28.257  12.462  0.0033 -0.1276 -0.0058
 2316DOPC   NC327165  16.602  27.282  10.654 -0.0176  0.3985  0.0592
 2316DOPC   PO427166  16.435  27.646  10.648  0.1621 -0.1210 -0.1183
 2316DOPC   GL127167  16.674  27.575  11.027 -0.2856 -0.2015 -0.0449
 2316DOPC   GL227168  16.763  27.805  11.202  0.3020 -0.2269  0.0585
 2316DOPC   C1A27169  16.655  27.371  11.477 -0.0360 -0.0254 -0.3255
 2316DOPC   D2A27170  16.683  27.283  11.937  0.1540  0.0879 -0.1953
 2316DOPC   C3A27171  16.474  27.540  12.362 -0.0486  0.0592  0.4408
 2316DOPC   C4A27172  16.453  27.755  12.724  0.3084  0.0292  0.1400
 2316DOPC   C1B27173  16.570  27.984  11.526 -0.2291  0.0553 -0.1613
 2316DOPC   D2B27174  16.346  27.785  11.906 -0.5149 -0.2324 -0.1194
 2316DOPC   C3B27175  16.592  28.016  12.236  0.5676 -0.0373  0.1483
 2316DOPC   C4B27176  16.612  28.308  12.614 -0.0231 -0.3581  0.0295
 2317DOPE   NH327177  17.072  25.318   9.477 -0.0202  0.1837 -0.0842
 2317DOPE   PO427178  17.340  25.398   9.538  0.4029  0.0669  0.1198
 2317DOPE   GL127179  17.536  25.215   9.815 -0.2103 -0.1827  0.0600
 2317DOPE   GL227180  17.782  25.181   9.703 -0.0043  0.2824 -0.0938
 2317DOPE   C1A27181  17.525  24.906  10.199  0.4698 -0.0366 -0.3497
 2317DOPE   D2A27182  17.720  24.790  10.639 -0.1466 -0.0381 -0.4831
 2317DOPE   C3A27183  17.504  25.096  10.964 -0.1384  0.1331  0.0387
 2317DOPE   C4A27184  17.461  25.270  11.374 -0.1273 -0.1865 -0.0028
 2317DOPE   C1B27185  18.068  25.163  10.075 -0.0602 -0.4190  0.1046
 2317DOPE   D2B27186  18.172  25.074  10.496  0.0150 -0.5101 -0.1115
 2317DOPE   C3B27187  18.184  24.796  10.850 -0.0019 -0.1008 -0.0038
 2317DOPE   C4B27188  18.299  24.334  10.987 -0.0029 -0.0898  0.1695
 2318DOPC   NC327189  14.355  25.588  10.106  0.1826 -0.1848 -0.4211
 2318DOPC   PO427190  14.197  25.878  10.305 -0.0352  0.1425  0.0140
 2318DOPC   GL127191  14.123  25.660  10.583 -0.1796  0.0222  0.1915
 2318DOPC   GL227192  13.903  25.636  10.793 -0.0191 -0.1560  0.1803
 2318DOPC   C1A27193  14.451  25.507  10.922 -0.0003 -0.0967  0.1949
 2318DOPC   D2A27194  14.296  25.456  11.403 -0.0985  0.1223  0.0943
 2318DOPC   C3A27195  14.308  25.300  11.831 -0.2305  0.2057  0.0750
 2318DOPC   C4A27196  14.128  25.362  12.203  0.4590  0.2148 -0.0958
 2318DOPC   C1B27197  13.687  25.977  11.042  0.0714 -0.0265  0.1865
 2318DOPC   D2B27198  13.792  26.288  11.419 -0.2340 -0.1596 -0.0136
 2318DOPC   C3B27199  14.075  26.286  11.859 -0.0151  0.0853 -0.3418
 2318DOPC   C4B27200  14.230  26.250  12.270 -0.0987 -0.1366 -0.0451
 2319DOPC   NC327201  19.965   1.013  10.046 -0.0789  0.2603 -0.1085
 2319DOPC   PO427202  19.889   0.718  10.233 -0.0371  0.0146 -0.3247
 2319DOPC   GL127203  19.722   0.700  10.651 -0.3110  0.1341  0.2112
 2319DOPC   GL227204  19.473   0.577  10.795 -0.3335 -0.0170 -0.1959
 2319DOPC   C1A27205  19.795   0.844  11.021  0.3331 -0.0988  0.1632
 2319DOPC   D2A27206  20.078   1.110  11.301  0.0532 -0.1508 -0.3505
 2319DOPC   C3A27207  20.483   1.221  11.122  0.0786 -0.4619  0.2242
 2319DOPC   C4A27208  20.819   1.086  10.839  0.0498 -0.0703 -0.3849
 2319DOPC   C1B27209  19.402   0.457  11.169 -0.1819 -0.2769 -0.2592
 2319DOPC   D2B27210  19.158   0.173  11.433  0.1366  0.1643  0.5532
 2319DOPC   C3B27211  19.134   0.079  11.853 -0.0765  0.2975  0.0016
 2319DOPC   C4B27212  19.226  -0.038  12.285 -0.0329  0.2199  0.0157
 2320POSM   NC327213  14.909   0.180  11.169  0.3282 -0.2336  0.0141
 2320POSM   PO427214  15.298   0.193  11.194 -0.0177  0.3014 -0.1065
 2320POSM   AM127215  15.563   0.303  11.342  0.1188  0.2644 -0.5014
 2320POSM   AM227216  15.758   0.478  11.384 -0.2037  0.0714 -0.1741
 2320POSM   T1A27217  15.810   0.290  11.806 -0.2403  0.1813 -0.2742
 2320POSM   C2A27218  15.742   0.631  12.124 -0.0173 -0.0139 -0.0976
 2320POSM   C3A27219  15.909   0.642  12.564 -0.1073  0.1433  0.1714
 2320POSM   C1B27220  15.659   0.711  11.583  0.0492 -0.0450 -0.2253
 2320POSM   D2B27221  15.430   0.981  11.881 -0.1672  0.0417 -0.0417
 2320POSM   C3B27222  15.509   0.978  12.340  0.1449  0.0696  0.0272
 2320POSM   C4B27223  15.383   1.170  12.685 -0.1648 -0.1398  0.0677
 2321DOPE   NH327224  17.650  26.573  10.295 -0.0025  0.0933  0.0637
 2321DOPE   PO427225  17.885  26.734  10.426  0.0036  0.1405  0.1263
 2321DOPE   GL127226  17.935  26.501  10.720 -0.2780 -0.0159 -0.1406
 2321DOPE   GL227227  17.765  26.694  10.906 -0.2097  0.1549 -0.2778
 2321DOPE   C1A27228  18.192  26.116  10.711  0.2792  0.1422 -0.1730
 2321DOPE   D2A27229  18.367  25.882  11.100  0.4131  0.0114  0.2540
 2321DOPE   C3A27230  18.678  25.529  11.090 -0.0855  0.1763  0.2503
 2321DOPE   C4A27231  19.087  25.321  11.097  0.2236  0.2522  0.0691
 2321DOPE   C1B27232  17.766  27.065  11.202 -0.0249 -0.0302  0.1527
 2321DOPE   D2B27233  17.504  27.089  11.603  0.0713  0.0010 -0.1229
 2321DOPE   C3B27234  17.638  27.346  11.972 -0.1876  0.0867 -0.0060
 2321DOPE   C4B27235  17.688  27.245  12.426 -0.1349  0.1484  0.0745
 2322DOPS   CNO27236  17.811  28.108  10.287  0.3141 -0.0058 -0.0497
 2322DOPS   PO427237  17.925  28.021  10.662 -0.1208 -0.0431  0.2265
 2322DOPS   GL127238  17.914  28.200  10.974  0.0910  0.0650 -0.0115
 2322DOPS   GL227239  17.831  28.029  11.163  0.1845  0.0929 -0.2724
 2322DOPS   C1A27240  17.991  28.552  11.254 -0.0838 -0.0546 -0.0679
 2322DOPS   D2A27241  18.137  28.592  11.651  0.0370 -0.1209  0.0649
 2322DOPS   C3A27242  18.360  28.578  12.061  0.2715  0.0343  0.0519
 2322DOPS   C4A27243  18.736  28.318  12.187  0.0780 -0.1014  0.1392
 2322DOPS   C1B27244  18.166  28.131  11.456  0.1720  0.0775 -0.1151
 2322DOPS   D2B27245  18.432  28.039  11.790 -0.1951 -0.0045 -0.1239
 2322DOPS   C3B27246  18.775  27.727  11.873  0.1849  0.0506  0.0217
 2322DOPS   C4B27247  19.271  27.673  11.776 -0.3349  0.0435  0.0286
 2323DOPC   NC327248  15.536  34.023  10.936 -0.1987  0.0229  0.3636
 2323DOPC   PO427249  15.524  33.959  11.340 -0.2589  0.0617  0.0993
 2323DOPC   GL127250  15.887  34.016  11.476 -0.0042  0.2312  0.2096
 2323DOPC   GL227251  15.983  33.779  11.669 -0.0485 -0.0940 -0.0797
 2323DOPC   C1A27252  15.925  34.294  11.854  0.0430 -0.0074 -0.2592
 2323DOPC   D2A27253  16.104  34.090  12.219  0.2018  0.0987  0.0454
 2323DOPC   C3A27254  16.335  34.183  12.600  0.1586  0.4389 -0.3665
 2323DOPC   C4A27255  16.775  34.150  12.754  0.1666  0.1571 -0.0363
 2323DOPC   C1B27256  16.119  33.597  12.059  0.0828 -0.0519 -0.1539
 2323DOPC   D2B27257  15.909  33.667  12.481 -0.2727 -0.2905 -0.0796
 2323DOPC   C3B27258  16.050  33.757  12.933 -0.2956  0.0168 -0.2291
 2323DOPC   C4B27259  15.925  33.663  13.334 -0.2147 -0.1135 -0.2433
 2324DOPE   NH327260  13.060  28.020  10.980  0.1160 -0.0104 -0.2588
 2324DOPE   PO427261  13.115  28.236  11.236  0.1054 -0.2301  0.4626
 2324DOPE   GL127262  13.004  28.218  11.593 -0.2060  0.3128  0.2556
 2324DOPE   GL227263  13.329  28.133  11.776 -0.1883 -0.0260  0.0191
 2324DOPE   C1A27264  12.946  28.404  12.012  0.2672  0.1775 -0.1056
 2324DOPE   D2A27265  12.954  28.489  12.470 -0.2030 -0.3313 -0.3031
 2324DOPE   C3A27266  13.270  28.654  12.782  0.3110 -0.2785  0.2061
 2324DOPE   C4A27267  13.544  28.964  13.028 -0.0036 -0.1131  0.2788
 2324DOPE   C1B27268  13.604  27.917  12.133  0.1058  0.1083 -0.3196
 2324DOPE   D2B27269  13.836  28.019  12.504 -0.0829 -0.1534 -0.0022
 2324DOPE   C3B27270  13.894  28.154  12.966 -0.1748 -0.2593 -0.3654
 2324DOPE   C4B27271  14.160  28.175  13.378  0.4763  0.0248 -0.2054
 2325DOPE   NH327272  19.031  30.024  10.299 -0.0831 -0.0391 -0.2294
 2325DOPE   PO427273  18.854  29.867  10.534 -0.1687 -0.1317 -0.0777
 2325DOPE   GL127274  18.929  29.544  10.730 -0.0108 -0.0573  0.3305
 2325DOPE   GL227275  19.120  29.797  10.939  0.1235 -0.0120 -0.2145
 2325DOPE   C1A27276  18.964  29.419  11.202 -0.0669 -0.0184  0.0707
 2325DOPE   D2A27277  18.774  29.532  11.593 -0.0911 -0.1587 -0.2129
 2325DOPE   C3A27278  18.352  29.515  11.471 -0.1868 -0.0241 -0.1570
 2325DOPE   C4A27279  17.979  29.527  11.195 -0.2581  0.1686  0.0943
 2325DOPE   C1B27280  18.894  30.088  11.203 -0.2552  0.0418  0.0973
 2325DOPE   D2B27281  19.017  30.477  11.431  0.0130 -0.0350  0.0427
 2325DOPE   C3B27282  19.116  30.349  11.903  0.0540 -0.0230  0.2435
 2325DOPE   C4B27283  19.464  30.230  12.165  0.2692  0.0891 -0.0321
 2326POSM   NC327284  20.195  31.429   9.805  0.0465  0.2921 -0.0835
 2326POSM   PO427285  20.567  31.425   9.766 -0.5295 -0.1447  0.0077
 2326POSM   AM127286  20.722  31.257   9.969 -0.1288  0.3034 -0.0661
 2326POSM   AM227287  20.878  31.314  10.157 -0.0539 -0.3240  0.0177
 2326POSM   T1A27288  20.596  30.888  10.239  0.0977 -0.2076  0.1763
 2326POSM   C2A27289  20.342  30.630  10.461 -0.0998  0.0254  0.1536
 2326POSM   C3A27290  20.062  30.323  10.329  0.0290 -0.1172 -0.1004
 2326POSM   C1B27291  20.799  31.434  10.457 -0.3513 -0.1381  0.1856
 2326POSM   D2B27292  20.750  31.802  10.683  0.1505  0.1460  0.1153
 2326POSM   C3B27293  21.176  31.961  10.689  0.1239  0.0587 -0.0877
 2326POSM   C4B27294  21.664  31.891  10.684  0.0801  0.0098  0.0240
 2327POSM   NC327295  19.480   1.522  10.254  0.0367 -0.1182 -0.0448
 2327POSM   PO427296  19.849   1.554  10.081 -0.0241 -0.0855 -0.1441
 2327POSM   AM127297  19.948   1.395  10.336 -0.1766  0.2013  0.0729
 2327POSM   AM227298  19.829   1.159  10.490  0.1509  0.2356 -0.1472
 2327POSM   T1A27299  20.181   1.408  10.759  0.0079 -0.1687 -0.2141
 2327POSM   C2A27300  20.064   1.648  11.068 -0.2775  0.0809 -0.1134
 2327POSM   C3A27301  20.016   1.921  11.380  0.1223 -0.0996 -0.1506
 2327POSM   C1B27302  19.518   1.130  10.630 -0.0405 -0.0054  0.1381
 2327POSM   D2B27303  19.222   0.938  11.000  0.2269  0.0136  0.3484
 2327POSM   C3B27304  19.331   0.949  11.403 -0.0082 -0.2401  0.1045
 2327POSM   C4B27305  19.746   0.801  11.535  0.2258  0.2120  0.0281
 2328DOPC   NC327306  12.522  26.775  10.554  0.2525 -0.1982  0.1020
 2328DOPC   PO427307  12.657  26.919  10.877  0.1699 -0.1374  0.1613
 2328DOPC   GL127308  12.322  26.865  11.059  0.1312 -0.4093 -0.1426
 2328DOPC   GL227309  12.373  27.025  11.348 -0.0065 -0.0871  0.1054
 2328DOPC   C1A27310  12.170  26.597  11.392 -0.2595  0.0026  0.1542
 2328DOPC   D2A27311  11.744  26.526  11.505  0.1279  0.1599  0.0654
 2328DOPC   C3A27312  11.507  26.148  11.615 -0.2415  0.2417  0.0709
 2328DOPC   C4A27313  11.157  26.057  11.322  0.0475  0.3906 -0.3056
 2328DOPC   C1B27314  12.193  26.855  11.796 -0.2023 -0.1705  0.3560
 2328DOPC   D2B27315  11.982  26.456  11.937 -0.3125 -0.1187 -0.1740
 2328DOPC   C3B27316  12.076  26.017  12.132  0.0814 -0.3546  0.3422
 2328DOPC   C4B27317  12.177  25.552  12.102  0.1985 -0.1614 -0.2359
 2329DOPC   NC327318  17.271   0.030  11.089  0.0755  0.2615  0.1339
 2329DOPC   PO427319  16.996  -0.205  10.929  0.1080 -0.0791 -0.0610
 2329DOPC   GL127320  16.995  -0.254  11.334 -0.3495  0.0171  0.1071
 2329DOPC   GL227321  16.692  -0.205  11.461 -0.2236 -0.2136 -0.3371
 2329DOPC   C1A27322  17.069   0.021  11.748 -0.1430  0.5227 -0.1973
 2329DOPC   D2A27323  17.164   0.436  11.831  0.0268 -0.1523 -0.1116
 2329DOPC   C3A27324  17.303   0.851  11.709  0.1698  0.0795  0.0773
 2329DOPC   C4A27325  17.296   1.345  11.695  0.0487 -0.2847 -0.1420
 2329DOPC   C1B27326  16.942  -0.474  11.741  0.0121  0.2105  0.0494
 2329DOPC   D2B27327  16.974  -0.698  12.170 -0.2038 -0.0079 -0.3025
 2329DOPC   C3B27328  16.962  -0.913  12.565 -0.0622  0.0121 -0.2830
 2329DOPC   C4B27329  16.902  -1.290  12.888 -0.1158  0.0179 -0.1110
 2330DOPC   NC327330  17.547  32.285  10.831 -0.0581 -0.0015 -0.3340
 2330DOPC   PO427331  17.583  31.929  10.902 -0.1608 -0.2848 -0.2864
 2330DOPC   GL127332  17.711  31.764  11.218 -0.0641  0.3372  0.3139
 2330DOPC   GL227333  17.572  31.494  11.320 -0.0319 -0.2068  0.0416
 2330DOPC   C1A27334  18.075  31.857  11.535 -0.0980  0.2192  0.0485
 2330DOPC   D2A27335  18.402  32.099  11.721 -0.4032  0.0937  0.0138
 2330DOPC   C3A27336  18.600  32.402  11.979  0.2722 -0.2871 -0.0154
 2330DOPC   C4A27337  18.795  32.520  12.388 -0.1912 -0.1014 -0.0438
 2330DOPC   C1B27338  17.340  31.235  11.665 -0.1245 -0.0567 -0.1683
 2330DOPC   D2B27339  17.161  31.240  12.097  0.3636 -0.2827  0.1417
 2330DOPC   C3B27340  16.712  31.124  12.187  0.2824 -0.2417  0.2436
 2330DOPC   C4B27341  16.317  30.945  11.978 -0.5330  0.1770  0.1300
 2331POSM   NC327342  15.067  28.956  10.449  0.1028 -0.1243  0.1022
 2331POSM   PO427343  15.210  29.128  10.810  0.2428  0.0160 -0.1234
 2331POSM   AM127344  15.143  29.058  11.123  0.1081  0.0841  0.2080
 2331POSM   AM227345  15.326  28.938  11.293 -0.1633 -0.2079 -0.2227
 2331POSM   T1A27346  14.918  28.912  11.563 -0.0991 -0.0187  0.1458
 2331POSM   C2A27347  15.020  28.575  11.927  0.0331  0.3337 -0.2876
 2331POSM   C3A27348  15.022  28.317  12.304 -0.1871  0.0089 -0.3063
 2331POSM   C1B27349  15.416  28.814  11.585  0.2040  0.0839 -0.0562
 2331POSM   D2B27350  15.512  28.455  11.914  0.0767  0.2800 -0.2089
 2331POSM   C3B27351  15.658  28.522  12.330 -0.2141  0.3512  0.1704
 2331POSM   C4B27352  15.695  28.339  12.758 -0.2938  0.3280 -0.1874
 2332DOPC   NC327353  13.832  34.227  12.100  0.2387  0.3114 -0.0226
 2332DOPC   PO427354  14.164  33.994  11.936 -0.0228 -0.1936 -0.0041
 2332DOPC   GL127355  14.317  33.809  12.299 -0.1296  0.1111 -0.3162
 2332DOPC   GL227356  14.493  33.590  12.413  0.3473 -0.1358  0.2702
 2332DOPC   C1A27357  14.063  33.972  12.643 -0.0159 -0.0022 -0.0375
 2332DOPC   D2A27358  13.908  34.321  12.881  0.1023 -0.0535  0.1392
 2332DOPC   C3A27359  14.136  34.536  13.244 -0.2016 -0.1789  0.2040
 2332DOPC   C4A27360  14.466  34.324  13.479  0.2138 -0.2111 -0.2300
 2332DOPC   C1B27361  14.413  33.698  12.855 -0.4362  0.1540  0.1542
 2332DOPC   D2B27362  14.352  33.692  13.307 -0.1978  0.1853  0.1029
 2332DOPC   C3B27363  14.309  33.373  13.644 -0.0175 -0.2353 -0.0806
 2332DOPC   C4B27364  14.695  33.167  13.860 -0.2232  0.1191 -0.0491
 2333POSM   NC327365  22.266  28.906   8.742  0.3997  0.3357  0.0050
 2333POSM   PO427366  22.551  28.845   8.936 -0.1575 -0.0161 -0.0474
 2333POSM   AM127367  22.522  28.945   9.251 -0.3484 -0.0214 -0.2710
 2333POSM   AM227368  22.291  29.111   9.344  0.2740 -0.0879 -0.1408
 2333POSM   T1A27369  22.560  28.997   9.752  0.3672 -0.1439 -0.1242
 2333POSM   C2A27370  22.592  28.775  10.189 -0.0170  0.2856  0.0471
 2333POSM   C3A27371  22.553  28.799  10.614 -0.0288  0.1558 -0.1161
 2333POSM   C1B27372  22.086  29.130   9.635 -0.0627 -0.1200  0.2429
 2333POSM   D2B27373  22.221  29.264  10.018  0.0472  0.0374  0.1304
 2333POSM   C3B27374  22.626  29.352  10.184  0.2496 -0.2173 -0.0544
 2333POSM   C4B27375  22.689  29.270  10.630  0.1489  0.1027 -0.1865
 2334DOPS   CNO27376  19.122  27.360   9.670 -0.0842  0.1864 -0.2526
 2334DOPS   PO427377  19.167  27.027   9.857  0.1151  0.0562 -0.0633
 2334DOPS   GL127378  19.310  27.038  10.242  0.1481  0.2454  0.1169
 2334DOPS   GL227379  19.275  26.771  10.382 -0.1081  0.0471  0.0184
 2334DOPS   C1A27380  19.577  27.082  10.636 -0.0228  0.2390  0.1623
 2334DOPS   D2A27381  19.842  27.338  10.885  0.0294  0.1078 -0.0389
 2334DOPS   C3A27382  20.144  27.138  11.205  0.0946  0.0288  0.0692
 2334DOPS   C4A27383  20.034  26.871  11.543  0.3075 -0.1238  0.0693
 2334DOPS   C1B27384  19.640  26.523  10.400  0.3926  0.1950  0.2398
 2334DOPS   D2B27385  19.731  26.377  10.817 -0.1208 -0.1696 -0.0350
 2334DOPS   C3B27386  19.949  26.427  11.242  0.1267 -0.0984 -0.1241
 2334DOPS   C4B27387  20.001  26.250  11.659  0.2180  0.2802 -0.0420
 2335DOPC   NC327388  18.313  29.723  10.465  0.0506 -0.1584  0.0337
 2335DOPC   PO427389  18.284  29.354  10.329 -0.0643  0.1697  0.0709
 2335DOPC   GL127390  18.467  29.179  10.633  0.0686 -0.2950  0.0485
 2335DOPC   GL227391  18.443  29.399  10.813 -0.0555 -0.1888 -0.0765
 2335DOPC   C1A27392  18.908  29.120  10.811 -0.1247 -0.0921 -0.0191
 2335DOPC   D2A27393  19.299  29.305  10.889  0.2271  0.0504 -0.0077
 2335DOPC   C3A27394  19.573  29.039  10.986  0.0227  0.1373  0.3338
 2335DOPC   C4A27395  19.544  28.593  10.998  0.1706  0.1424  0.2297
 2335DOPC   C1B27396  18.526  29.734  11.054  0.1611 -0.0078  0.2100
 2335DOPC   D2B27397  18.438  30.010  11.422  0.1107 -0.0718  0.1762
 2335DOPC   C3B27398  18.546  29.901  11.863  0.1038 -0.0617 -0.0795
 2335DOPC   C4B27399  18.624  29.666  12.253  0.0968  0.0297 -0.3478
 2336DOPS   CNO27400  12.839  33.840  12.170  0.0424  0.0711 -0.0948
 2336DOPS   PO427401  12.885  33.759  12.534  0.1141  0.1369 -0.0868
 2336DOPS   GL127402  12.725  33.787  12.928  0.3502  0.0077  0.2721
 2336DOPS   GL227403  12.891  33.564  13.097 -0.1887 -0.0244 -0.1747
 2336DOPS   C1A27404  12.727  34.041  13.345  0.1923 -0.0037  0.1299
 2336DOPS   D2A27405  12.837  34.039  13.752 -0.1119 -0.0199 -0.0228
 2336DOPS   C3A27406  12.498  34.096  14.051 -0.1872 -0.2051 -0.0123
 2336DOPS   C4A27407  12.304  34.397  14.361 -0.0027  0.0614  0.2927
 2336DOPS   C1B27408  12.705  33.212  13.388 -0.0921  0.0628 -0.1876
 2336DOPS   D2B27409  12.441  33.025  13.732 -0.1042  0.1582  0.0772
 2336DOPS   C3B27410  12.426  33.127  14.181 -0.2589 -0.1567  0.1891
 2336DOPS   C4B27411  12.178  33.229  14.560  0.0893  0.1291  0.2193
 2337DOPE   NH327412  14.585  32.717  11.876 -0.0862 -0.0631  0.5100
 2337DOPE   PO427413  14.313  32.524  11.836  0.3391 -0.0317 -0.1845
 2337DOPE   GL127414  14.474  32.394  12.207 -0.2418 -0.1982 -0.1605
 2337DOPE   GL227415  14.617  32.153  12.029 -0.0027 -0.0953  0.1984
 2337DOPE   C1A27416  14.530  32.422  12.620  0.0347 -0.2572  0.2227
 2337DOPE   D2A27417  14.655  32.739  12.971 -0.0937  0.2177  0.2421
 2337DOPE   C3A27418  14.383  32.597  13.379 -0.1924  0.1698  0.0751
 2337DOPE   C4A27419  14.350  32.687  13.842  0.1071  0.2758  0.1197
 2337DOPE   C1B27420  14.494  31.943  12.486 -0.0554 -0.1583 -0.1846
 2337DOPE   D2B27421  14.225  31.727  12.844  0.1773  0.1230 -0.2880
 2337DOPE   C3B27422  13.798  31.957  12.854 -0.2973  0.0633 -0.2166
 2337DOPE   C4B27423  13.435  32.217  13.037  0.1634  0.1026  0.2455
 2338DOPE   NH327424  20.670  26.291   9.156  0.3984 -0.1036  0.1899
 2338DOPE   PO427425  20.930  26.421   9.073 -0.4362 -0.1741 -0.0829
 2338DOPE   GL127426  21.056  26.472   9.457 -0.3198 -0.1016  0.0943
 2338DOPE   GL227427  21.188  26.724   9.481 -0.0917 -0.0742  0.0298
 2338DOPE   C1A27428  20.888  26.347   9.871  0.0191 -0.5052 -0.4315
 2338DOPE   D2A27429  20.493  26.413  10.139  0.2574  0.0618 -0.2766
 2338DOPE   C3A27430  20.545  26.674  10.518 -0.1425 -0.0159 -0.0521
 2338DOPE   C4A27431  20.357  26.981  10.775 -0.4836  0.0409  0.2238
 2338DOPE   C1B27432  21.240  26.701   9.888 -0.2900  0.0153  0.1652
 2338DOPE   D2B27433  21.238  26.772  10.317  0.4040  0.0014  0.2388
 2338DOPE   C3B27434  21.499  26.480  10.606  0.1239 -0.0375  0.4069
 2338DOPE   C4B27435  21.331  26.175  10.951  0.0927 -0.3666  0.4836
 2339DOPE   NH327436  17.599  27.668  10.166 -0.0140 -0.0597 -0.5003
 2339DOPE   PO427437  17.719  27.596  10.440 -0.3478 -0.1646 -0.2843
 2339DOPE   GL127438  17.633  27.681  10.787 -0.1081  0.3021 -0.0828
 2339DOPE   GL227439  17.426  27.448  10.913 -0.0075 -0.1181  0.2153
 2339DOPE   C1A27440  17.857  27.532  11.149  0.2109  0.0908  0.1155
 2339DOPE   D2A27441  17.974  27.662  11.572  0.2415  0.1348 -0.1309
 2339DOPE   C3A27442  18.167  27.500  11.979  0.1733 -0.0667 -0.2245
 2339DOPE   C4A27443  18.091  27.552  12.403 -0.3363  0.0715  0.0518
 2339DOPE   C1B27444  17.169  27.390  11.350  0.1405  0.2819  0.1607
 2339DOPE   D2B27445  17.168  27.389  11.799 -0.0204  0.1313  0.2760
 2339DOPE   C3B27446  17.117  27.000  11.973  0.3227 -0.2027 -0.1437
 2339DOPE   C4B27447  17.000  26.652  12.257  0.0590  0.0736 -0.0466
 2340DOPC   NC327448  16.330  25.661  10.041 -0.1810 -0.3902  0.0430
 2340DOPC   PO427449  16.260  25.273   9.946  0.3225  0.0734 -0.1355
 2340DOPC   GL127450  16.140  25.273  10.331  0.2647  0.1370 -0.0927
 2340DOPC   GL227451  15.941  25.104  10.322  0.0811  0.1869  0.0957
 2340DOPC   C1A27452  16.296  25.435  10.706 -0.2236 -0.0467 -0.0623
 2340DOPC   D2A27453  16.131  25.290  11.098 -0.0128 -0.2183  0.3007
 2340DOPC   C3A27454  16.123  25.173  11.560  0.4723 -0.1700 -0.0582
 2340DOPC   C4A27455  16.197  25.193  12.015  0.0347  0.0425 -0.0045
 2340DOPC   C1B27456  15.939  24.996  10.762  0.5159 -0.1778 -0.2773
 2340DOPC   D2B27457  16.339  24.893  10.913 -0.2773 -0.0053  0.0527
 2340DOPC   C3B27458  16.454  24.896  11.339  0.1579  0.3235 -0.4170
 2340DOPC   C4B27459  16.706  24.554  11.626 -0.0607  0.0329  0.1215
 2341DOPS   CNO27460  21.511  30.544   9.205  0.2461 -0.1832  0.0696
 2341DOPS   PO427461  21.584  30.759   9.507 -0.0193  0.1147  0.0642
 2341DOPS   GL127462  21.613  30.730   9.869 -0.4791  0.1053  0.1776
 2341DOPS   GL227463  21.355  30.751   9.965 -0.1356  0.1832  0.0652
 2341DOPS   C1A27464  21.882  30.694  10.291 -0.2789 -0.0995 -0.0207
 2341DOPS   D2A27465  22.239  30.916  10.490 -0.1652  0.2166 -0.2591
 2341DOPS   C3A27466  22.311  30.780  10.905  0.1877 -0.0079 -0.1101
 2341DOPS   C4A27467  22.171  30.631  11.313  0.1852 -0.1321  0.1422
 2341DOPS   C1B27468  21.443  30.530  10.344 -0.1443 -0.1329  0.0533
 2341DOPS   D2B27469  21.594  30.168  10.536  0.0001 -0.1918  0.0907
 2341DOPS   C3B27470  21.993  30.168  10.381  0.1343 -0.2204  0.1313
 2341DOPS   C4B27471  22.281  30.129  10.040  0.2031 -0.0113 -0.0521
 2342DOPS   CNO27472  19.084  31.874   9.988 -0.0251 -0.0323  0.0319
 2342DOPS   PO427473  18.903  31.748  10.316 -0.1337  0.0311  0.2213
 2342DOPS   GL127474  19.312  31.692  10.533  0.3248  0.1437 -0.0075
 2342DOPS   GL227475  19.176  31.710  10.820 -0.1413  0.1880  0.1921
 2342DOPS   C1A27476  19.716  31.742  10.767 -0.1378 -0.1785 -0.1164
 2342DOPS   D2A27477  20.004  31.988  11.091  0.1759  0.2896  0.0867
 2342DOPS   C3A27478  19.752  32.317  11.397 -0.1296  0.3746  0.1355
 2342DOPS   C4A27479  19.582  32.771  11.425 -0.0075  0.1552 -0.1517
 2342DOPS   C1B27480  19.040  31.947  11.211 -0.0407 -0.2703  0.3502
 2342DOPS   D2B27481  18.927  32.087  11.660 -0.0194  0.0176  0.0744
 2342DOPS   C3B27482  18.849  31.964  12.050 -0.2353  0.2702  0.3796
 2342DOPS   C4B27483  18.564  32.073  12.412 -0.0810  0.1614 -0.0788
 2343DOPC   NC327484  17.531  33.001  11.091 -0.2278  0.0782 -0.0937
 2343DOPC   PO427485  17.733  32.672  11.064  0.2722  0.2286  0.2163
 2343DOPC   GL127486  17.830  32.467  11.371  0.2130  0.3455  0.1527
 2343DOPC   GL227487  18.064  32.310  11.256 -0.0195 -0.0262  0.0220
 2343DOPC   C1A27488  17.876  32.313  11.801 -0.0281 -0.0185  0.0220
 2343DOPC   D2A27489  18.165  32.241  12.140  0.0482 -0.0580 -0.1465
 2343DOPC   C3A27490  18.080  32.101  12.545 -0.2502  0.2538 -0.0574
 2343DOPC   C4A27491  18.054  31.904  12.979 -0.3219  0.0498  0.2751
 2343DOPC   C1B27492  18.294  32.549  11.590  0.0565 -0.2599 -0.2714
 2343DOPC   D2B27493  18.175  32.811  11.940 -0.3509 -0.0534  0.0168
 2343DOPC   C3B27494  18.459  32.871  12.227 -0.0684  0.2303 -0.2349
 2343DOPC   C4B27495  18.892  32.998  12.189  0.3192 -0.1975  0.1537
 2344DOPS   CNO27496  13.738  28.554  10.569 -0.1491  0.0527  0.4538
 2344DOPS   PO427497  13.762  28.701  10.907 -0.2573 -0.2287  0.1748
 2344DOPS   GL127498  14.021  28.622  11.203 -0.4744 -0.3527  0.4519
 2344DOPS   GL227499  14.012  28.826  11.428 -0.1499 -0.0766  0.0809
 2344DOPS   C1A27500  14.473  28.559  11.287  0.1109  0.2323  0.4158
 2344DOPS   D2A27501  14.784  28.317  11.549 -0.2672 -0.2641 -0.1256
 2344DOPS   C3A27502  14.467  28.016  11.622 -0.1066  0.2346 -0.0598
 2344DOPS   C4A27503  14.072  28.165  11.429 -0.0265 -0.0754 -0.0452
 2344DOPS   C1B27504  13.874  28.888  11.842 -0.1742 -0.0904  0.0587
 2344DOPS   D2B27505  14.200  28.786  12.166 -0.1777 -0.1140  0.1476
 2344DOPS   C3B27506  14.259  28.506  12.536 -0.1644 -0.0251  0.1850
 2344DOPS   C4B27507  14.299  28.100  12.687  0.1782  0.0969 -0.0366
 2345DOPS   CNO27508  15.823  29.782  10.868  0.1990 -0.1758  0.1445
 2345DOPS   PO427509  15.916  29.638  11.156 -0.1168 -0.0676 -0.1983
 2345DOPS   GL127510  15.728  29.347  11.425  0.2976  0.0712 -0.1906
 2345DOPS   GL227511  15.889  29.098  11.442 -0.2722  0.0348  0.0670
 2345DOPS   C1A27512  15.635  29.239  11.852 -0.2051 -0.1845  0.2952
 2345DOPS   D2A27513  15.363  28.933  12.083 -0.0165  0.1169  0.0247
 2345DOPS   C3A27514  15.438  28.932  12.510 -0.0350  0.2560  0.0337
 2345DOPS   C4A27515  15.398  29.160  12.876 -0.2057  0.1298  0.0470
 2345DOPS   C1B27516  16.131  29.277  11.765  0.1953  0.0005  0.1117
 2345DOPS   D2B27517  16.512  29.349  11.979 -0.2928 -0.0011  0.2939
 2345DOPS   C3B27518  16.879  29.114  12.060  0.2351  0.3980 -0.0369
 2345DOPS   C4B27519  17.249  28.876  12.127 -0.0321 -0.0195  0.0869
 2346DOPC   NC327520  13.092  32.411  12.370  0.0925 -0.1492 -0.0015
 2346DOPC   PO427521  13.181  32.611  12.031 -0.0354 -0.0265 -0.1509
 2346DOPC   GL127522  13.540  32.652  12.285  0.1046  0.0638  0.2721
 2346DOPC   GL227523  13.785  32.802  12.254 -0.0305  0.1171  0.3525
 2346DOPC   C1A27524  13.685  32.388  12.636  0.1625  0.1442  0.0798
 2346DOPC   D2A27525  13.847  32.586  13.033 -0.1272  0.3089  0.0837
 2346DOPC   C3A27526  13.923  32.199  13.305  0.4246 -0.1096 -0.1016
 2346DOPC   C4A27527  13.806  32.052  13.766  0.1657 -0.1751  0.3274
 2346DOPC   C1B27528  14.044  32.864  12.667 -0.0685 -0.1562  0.1171
 2346DOPC   D2B27529  14.172  32.968  13.099 -0.0182  0.1012 -0.1146
 2346DOPC   C3B27530  13.985  32.846  13.486  0.2537  0.0754 -0.0860
 2346DOPC   C4B27531  13.703  32.532  13.648 -0.2750  0.0613 -0.4019
 2347DOPE   NH327532  23.356  24.378   8.620  0.0287  0.0221  0.1003
 2347DOPE   PO427533  23.630  24.206   8.595  0.0599 -0.2436  0.0460
 2347DOPE   GL127534  23.603  23.902   8.962 -0.1004 -0.0625  0.2403
 2347DOPE   GL227535  23.815  23.774   8.831  0.0941 -0.2435 -0.0189
 2347DOPE   C1A27536  23.526  24.090   9.407 -0.0534  0.2858  0.0263
 2347DOPE   D2A27537  23.615  24.228   9.883 -0.0898 -0.3628 -0.0658
 2347DOPE   C3A27538  23.643  24.648  10.068 -0.3725  0.1249  0.1813
 2347DOPE   C4A27539  23.925  25.023  10.081 -0.0297  0.4537 -0.1452
 2347DOPE   C1B27540  24.148  23.873   9.071 -0.2216 -0.0716  0.5008
 2347DOPE   D2B27541  24.372  23.790   9.433  0.1402 -0.1069  0.1664
 2347DOPE   C3B27542  24.568  24.118   9.600  0.0896 -0.0058  0.0788
 2347DOPE   C4B27543  24.623  24.625   9.562 -0.0473 -0.2257  0.0153
 2348DOPE   NH327544  11.645   0.513  12.847  0.1249 -0.0215  0.1923
 2348DOPE   PO427545  11.766   0.224  12.776 -0.1568 -0.0399  0.0542
 2348DOPE   GL127546  11.904   0.179  13.133 -0.0901 -0.4371  0.2295
 2348DOPE   GL227547  12.025   0.445  13.235 -0.0849  0.0620 -0.2249
 2348DOPE   C1A27548  12.290   0.041  13.284  0.3361  0.0253  0.1209
 2348DOPE   D2A27549  12.484  -0.069  13.668 -0.2691 -0.1921 -0.0771
 2348DOPE   C3A27550  12.868   0.175  13.597  0.1196 -0.2709  0.0969
 2348DOPE   C4A27551  13.140   0.396  13.917  0.0715  0.1501  0.1739
 2348DOPE   C1B27552  11.743   0.352  13.603 -0.0155  0.0530 -0.2487
 2348DOPE   D2B27553  11.488   0.052  13.748  0.0407  0.1356 -0.0703
 2348DOPE   C3B27554  11.574  -0.372  13.878  0.3022  0.0730 -0.0103
 2348DOPE   C4B27555  11.503  -0.658  14.204  0.2077 -0.1317  0.0031
 2349POSM   NC327556  16.824  26.508  10.147  0.2013 -0.0454  0.2014
 2349POSM   PO427557  17.166  26.660  10.249  0.0353  0.2933  0.0621
 2349POSM   AM127558  17.172  26.523  10.556  0.1417 -0.0108  0.2078
 2349POSM   AM227559  17.401  26.409  10.681 -0.4056 -0.1743  0.3441
 2349POSM   T1A27560  17.056  26.554  11.009 -0.4399  0.0608 -0.0327
 2349POSM   C2A27561  17.339  26.505  11.343 -0.0755  0.1902 -0.2630
 2349POSM   C3A27562  17.589  26.470  11.715  0.0532 -0.0999 -0.0647
 2349POSM   C1B27563  17.633  26.192  10.867 -0.2315 -0.1228  0.1879
 2349POSM   D2B27564  17.959  26.194  11.153  0.1575  0.2435 -0.0815
 2349POSM   C3B27565  17.961  26.618  11.396  0.1517 -0.1623  0.0737
 2349POSM   C4B27566  18.160  27.052  11.459 -0.0107  0.1072 -0.0836
 2350DOPS   CNO27567  22.307  31.821   9.525  0.0944  0.0732  0.0287
 2350DOPS   PO427568  22.067  32.074   9.683  0.1914  0.1096 -0.2614
 2350DOPS   GL127569  22.166  31.927   9.985 -0.0948  0.2768 -0.1416
 2350DOPS   GL227570  21.872  31.870  10.120  0.0601 -0.2487 -0.0038
 2350DOPS   C1A27571  22.279  32.025  10.411  0.0877  0.1308  0.0530
 2350DOPS   D2A27572  22.445  32.088  10.840  0.0368 -0.1264  0.0568
 2350DOPS   C3A27573  22.583  31.840  11.275 -0.1566  0.0619 -0.4385
 2350DOPS   C4A27574  22.738  31.471  11.491 -0.3431 -0.0097 -0.0264
 2350DOPS   C1B27575  21.847  32.253  10.388  0.0991  0.0611 -0.0557
 2350DOPS   D2B27576  22.206  32.516  10.576 -0.0202 -0.2858  0.1835
 2350DOPS   C3B27577  22.210  32.521  11.026  0.1493 -0.0676 -0.5047
 2350DOPS   C4B27578  22.312  32.766  11.355  0.1899 -0.0475 -0.2358
 2351DOPC   NC327579  17.247  23.489   8.908 -0.1431  0.1992  0.0361
 2351DOPC   PO427580  17.614  23.369   8.840 -0.0642  0.4479  0.4125
 2351DOPC   GL127581  17.606  23.340   9.235 -0.1157 -0.1234 -0.1764
 2351DOPC   GL227582  17.695  23.626   9.271  0.0973  0.1116  0.0899
 2351DOPC   C1A27583  17.857  23.244   9.601 -0.2349  0.1219 -0.2279
 2351DOPC   D2A27584  18.080  23.318   9.982 -0.0791 -0.1879 -0.1307
 2351DOPC   C3A27585  18.482  23.490  10.174  0.0567  0.0206 -0.0617
 2351DOPC   C4A27586  18.937  23.327  10.159 -0.0961  0.0767 -0.2168
 2351DOPC   C1B27587  17.811  23.716   9.726 -0.0290  0.0718 -0.5074
 2351DOPC   D2B27588  17.728  23.673  10.154  0.0420 -0.0479 -0.1317
 2351DOPC   C3B27589  17.388  23.836  10.425 -0.0681 -0.2515 -0.0509
 2351DOPC   C4B27590  17.134  23.735  10.784 -0.2142  0.2595  0.0129
 2352DOPE   NH327591  11.715  25.739  10.554 -0.2509 -0.0248  0.1016
 2352DOPE   PO427592  11.865  25.467  10.489  0.1546 -0.3101 -0.2458
 2352DOPE   GL127593  11.967  25.291  10.791  0.0237  0.0836 -0.1613
 2352DOPE   GL227594  11.882  25.504  10.979  0.1223  0.0761 -0.2766
 2352DOPE   C1A27595  12.231  25.205  11.206 -0.1531  0.2353  0.1742
 2352DOPE   D2A27596  12.266  24.972  11.666 -0.0520  0.0216 -0.1401
 2352DOPE   C3A27597  12.514  24.605  11.644 -0.1767 -0.1724  0.0563
 2352DOPE   C4A27598  12.685  24.218  11.735  0.0172 -0.1366  0.2687
 2352DOPE   C1B27599  11.779  25.406  11.449 -0.3212 -0.2471  0.1245
 2352DOPE   D2B27600  11.850  25.204  11.864  0.3114 -0.0565 -0.0873
 2352DOPE   C3B27601  12.039  25.006  12.247  0.0518 -0.1539  0.1572
 2352DOPE   C4B27602  11.911  24.657  12.480  0.0322  0.3004 -0.0092
 2353DOPS   CNO27603  18.643  24.354   9.045 -0.1085 -0.2220 -0.1499
 2353DOPS   PO427604  18.287  24.312   9.117  0.0891 -0.0711 -0.2506
 2353DOPS   GL127605  18.274  24.115   9.392  0.1376  0.3720  0.1401
 2353DOPS   GL227606  18.295  23.842   9.446  0.2260  0.1914  0.0029
 2353DOPS   C1A27607  17.967  24.286   9.696  0.0697 -0.4202  0.1172
 2353DOPS   D2A27608  17.691  24.154  10.045  0.1064  0.0378 -0.0037
 2353DOPS   C3A27609  18.029  24.057  10.377  0.3149  0.1495  0.0431
 2353DOPS   C4A27610  18.345  23.851  10.661  0.0840  0.0195 -0.2090
 2353DOPS   C1B27611  18.319  23.924   9.890 -0.1129  0.0286  0.3514
 2353DOPS   D2B27612  18.661  23.985  10.256 -0.1115  0.1908  0.0146
 2353DOPS   C3B27613  18.925  24.348  10.236 -0.1298 -0.1717 -0.0558
 2353DOPS   C4B27614  19.270  24.647  10.238 -0.2290  0.0803 -0.1252
 2354DOPS   CNO27615  18.255   0.009  10.296 -0.1659 -0.3572 -0.3103
 2354DOPS   PO427616  18.560  -0.160  10.267 -0.2319 -0.0484  0.1408
 2354DOPS   GL127617  18.794  -0.278  10.492  0.1859 -0.0311 -0.2112
 2354DOPS   GL227618  19.083  -0.482  10.464  0.1614  0.1044  0.0090
 2354DOPS   C1A27619  18.908  -0.390  10.903  0.2657 -0.3140 -0.2260
 2354DOPS   D2A27620  19.206  -0.495  11.204 -0.0141 -0.2664 -0.0980
 2354DOPS   C3A27621  19.637  -0.531  11.091 -0.0878 -0.2697 -0.1554
 2354DOPS   C4A27622  20.038  -0.355  11.152 -0.1137  0.0625  0.2749
 2354DOPS   C1B27623  19.444  -0.397  10.666  0.0052 -0.2925 -0.2472
 2354DOPS   D2B27624  19.804  -0.121  10.725 -0.0255 -0.0270  0.0642
 2354DOPS   C3B27625  19.894   0.118  11.097 -0.0650  0.1986  0.3263
 2354DOPS   C4B27626  19.691   0.273  11.502  0.1425  0.0497  0.0740
 2355DOPE   NH327627  10.544   0.357  12.803  0.0308  0.2475 -0.2467
 2355DOPE   PO427628  10.594   0.330  13.143  0.0212  0.0260 -0.3780
 2355DOPE   GL127629  10.441   0.288  13.451 -0.3036  0.2021  0.0407
 2355DOPE   GL227630  10.216   0.411  13.569  0.2074  0.2071 -0.4398
 2355DOPE   C1A27631  10.720   0.324  13.843 -0.2056 -0.1205 -0.1296
 2355DOPE   D2A27632  11.045   0.344  14.118 -0.1953 -0.1072 -0.1560
 2355DOPE   C3A27633  11.165   0.687  14.366 -0.2042  0.0085 -0.0461
 2355DOPE   C4A27634  11.069   0.694  14.818 -0.0655 -0.1696 -0.1465
 2355DOPE   C1B27635  10.328   0.022  13.797 -0.3053  0.2522  0.2704
 2355DOPE   D2B27636  10.483   0.140  14.233  0.1146 -0.0351  0.0926
 2355DOPE   C3B27637  10.605  -0.229  14.608 -0.0990  0.1340  0.4740
 2355DOPE   C4B27638  11.014  -0.493  14.750 -0.0625  0.0722  0.1421
 2356DOPE   NH327639  17.149  28.735  10.678  0.1469 -0.3251 -0.1717
 2356DOPE   PO427640  16.919  28.665  10.900  0.0253 -0.2701 -0.1583
 2356DOPE   GL127641  17.013  28.760  11.278  0.3116  0.1635 -0.2608
 2356DOPE   GL227642  17.235  28.807  11.290 -0.0350  0.1130 -0.0359
 2356DOPE   C1A27643  17.172  28.606  11.713  0.2889 -0.1781  0.3137
 2356DOPE   D2A27644  17.374  28.327  12.040  0.2253  0.2017  0.0164
 2356DOPE   C3A27645  17.430  28.465  12.456  0.0445 -0.1344  0.2133
 2356DOPE   C4A27646  17.518  28.351  12.919 -0.2552 -0.2783 -0.0517
 2356DOPE   C1B27647  17.462  28.410  11.304  0.3349 -0.2783 -0.0143
 2356DOPE   D2B27648  17.747  28.272  11.611 -0.0969  0.1361 -0.3870
 2356DOPE   C3B27649  17.850  28.448  12.046  0.0274 -0.2563 -0.0655
 2356DOPE   C4B27650  17.776  28.829  12.384 -0.1322  0.0707 -0.0560
 2357POSM   NC327651  22.365  23.904   8.541 -0.1816  0.0649  0.3222
 2357POSM   PO427652  22.246  23.534   8.611  0.1530  0.0175  0.1348
 2357POSM   AM127653  22.345  23.594   8.941 -0.5164 -0.0525  0.1131
 2357POSM   AM227654  22.477  23.842   9.038 -0.0503 -0.1718  0.0019
 2357POSM   T1A27655  22.336  23.276   9.342  0.1416  0.2295 -0.2639
 2357POSM   C2A27656  22.105  22.976   9.535  0.2096 -0.0830  0.1871
 2357POSM   C3A27657  22.206  22.532   9.696  0.0778  0.3921  0.0456
 2357POSM   C1B27658  22.520  24.053   9.269  0.2449 -0.0518  0.1113
 2357POSM   D2B27659  22.631  24.084   9.742 -0.2548  0.0788 -0.1599
 2357POSM   C3B27660  23.023  24.028   9.765 -0.0452  0.0054 -0.1490
 2357POSM   C4B27661  23.426  23.801   9.811 -0.1340 -0.2360  0.0551
 2358DOPC   NC327662  18.811  26.746   9.968 -0.1391 -0.0160  0.0103
 2358DOPC   PO427663  18.924  26.662   9.599 -0.1930  0.1851  0.1287
 2358DOPC   GL127664  19.059  26.260   9.782 -0.2042  0.6394  0.3936
 2358DOPC   GL227665  19.054  25.983   9.688 -0.1427  0.5370  0.1192
 2358DOPC   C1A27666  19.173  26.139  10.190 -0.1974 -0.3127  0.4525
 2358DOPC   D2A27667  19.235  26.331  10.649  0.3212  0.1339 -0.0453
 2358DOPC   C3A27668  19.309  26.726  10.869  0.0817  0.1901 -0.0165
 2358DOPC   C4A27669  19.204  27.120  11.068 -0.1898 -0.0879  0.1129
 2358DOPC   C1B27670  19.273  25.733   9.894  0.1656 -0.2237  0.0622
 2358DOPC   D2B27671  19.427  25.580  10.307  0.1273  0.1135  0.4863
 2358DOPC   C3B27672  19.310  25.269  10.600 -0.1748 -0.3548 -0.0665
 2358DOPC   C4B27673  19.115  24.874  10.607 -0.2790 -0.1351 -0.1202
 2359DOPC   NC327674  16.388  29.698  10.935  0.0849  0.0140  0.0978
 2359DOPC   PO427675  16.751  29.570  10.860 -0.2383  0.4114  0.1531
 2359DOPC   GL127676  16.811  29.405  11.222  0.0712  0.0802 -0.3177
 2359DOPC   GL227677  16.700  29.595  11.426  0.0296  0.1495  0.2173
 2359DOPC   C1A27678  16.679  29.057  11.538  0.2129 -0.0005 -0.1045
 2359DOPC   D2A27679  16.456  28.875  11.954  0.1466  0.1689 -0.0627
 2359DOPC   C3A27680  16.410  28.759  12.364  0.3659 -0.2930  0.0060
 2359DOPC   C4A27681  16.233  28.670  12.766 -0.0127  0.1421 -0.3240
 2359DOPC   C1B27682  16.815  29.689  11.845  0.0680 -0.1712  0.1544
 2359DOPC   D2B27683  16.867  29.606  12.326  0.0901 -0.0678 -0.0172
 2359DOPC   C3B27684  16.687  29.596  12.711 -0.0972 -0.3452  0.2840
 2359DOPC   C4B27685  16.401  29.493  13.056  0.1804  0.0371 -0.0388
 2360DOPE   NH327686  21.804  33.428   9.424 -0.0124 -0.2327  0.3442
 2360DOPE   PO427687  21.714  33.553   9.694 -0.1701 -0.0484  0.1970
 2360DOPE   GL127688  21.658  33.606  10.062 -0.1153 -0.1276  0.2244
 2360DOPE   GL227689  21.550  33.267  10.057  0.3183  0.1475 -0.1224
 2360DOPE   C1A27690  21.937  33.700  10.366  0.0819  0.1043 -0.3949
 2360DOPE   D2A27691  22.207  33.457  10.698  0.2643  0.1888  0.0241
 2360DOPE   C3A27692  22.160  33.619  11.144 -0.0211  0.0757  0.1601
 2360DOPE   C4A27693  21.791  33.811  11.314  0.0733  0.1183  0.1645
 2360DOPE   C1B27694  21.543  32.919  10.378 -0.0982  0.0564 -0.2031
 2360DOPE   D2B27695  21.771  32.730  10.684  0.1082  0.3382 -0.2239
 2360DOPE   C3B27696  22.159  32.973  10.788  0.2225 -0.0324 -0.2268
 2360DOPE   C4B27697  22.445  33.171  11.056  0.1058  0.2019  0.0535
 2361POSM   NC327698  20.349  34.271  10.297  0.0002 -0.0200  0.1756
 2361POSM   PO427699  20.090  34.512  10.109  0.1913  0.0290 -0.4081
 2361POSM   AM127700  20.044  34.637  10.367 -0.0187 -0.1049 -0.0993
 2361POSM   AM227701  19.966  34.821  10.582 -0.0195 -0.0340  0.2584
 2361POSM   T1A27702  20.343  34.484  10.743  0.0566  0.2966 -0.2551
 2361POSM   C2A27703  20.417  34.495  11.212  0.3383  0.2477  0.0344
 2361POSM   C3A27704  20.168  34.495  11.660 -0.1296 -0.4706  0.2354
 2361POSM   C1B27705  20.147  34.946  10.870  0.2985  0.1975  0.0111
 2361POSM   D2B27706  20.129  35.027  11.351 -0.0682 -0.0804  0.0496
 2361POSM   C3B27707  20.358  35.299  11.600  0.0399  0.2417 -0.1344
 2361POSM   C4B27708  20.700  35.612  11.850  0.1187 -0.0454  0.0957
 2362DOPE   NH327709  17.960  31.546  10.828 -0.2222  0.2267 -0.0522
 2362DOPE   PO427710  18.199  31.382  10.743 -0.3449  0.3075  0.0750
 2362DOPE   GL127711  18.327  31.367  11.225  0.0499  0.3134 -0.2562
 2362DOPE   GL227712  18.490  31.128  11.125  0.0389  0.0114 -0.1227
 2362DOPE   C1A27713  18.480  31.114  11.609 -0.3451 -0.1650 -0.0316
 2362DOPE   D2A27714  18.427  31.024  12.069 -0.3534 -0.1567 -0.0548
 2362DOPE   C3A27715  18.310  31.413  12.286 -0.0233  0.0321  0.0077
 2362DOPE   C4A27716  18.007  31.606  12.490 -0.1487 -0.0761  0.1503
 2362DOPE   C1B27717  18.794  30.792  11.122 -0.1444  0.0623  0.1136
 2362DOPE   D2B27718  19.250  30.831  11.173 -0.0231  0.2062 -0.3227
 2362DOPE   C3B27719  19.470  30.680  11.573  0.1247  0.2548  0.1799
 2362DOPE   C4B27720  19.698  30.531  11.866 -0.0664 -0.2073  0.2719
 2363DOPC   NC327721  20.942  27.636   9.753 -0.2390 -0.2221 -0.4586
 2363DOPC   PO427722  20.915  28.000   9.588  0.3652 -0.0733 -0.1312
 2363DOPC   GL127723  20.880  28.046  10.058  0.2136 -0.2099 -0.3897
 2363DOPC   GL227724  20.880  28.337  10.082  0.0475 -0.0225  0.3852
 2363DOPC   C1A27725  20.857  28.057  10.504 -0.0896 -0.0646  0.0971
 2363DOPC   D2A27726  21.119  28.054  10.846  0.6027  0.0913 -0.1954
 2363DOPC   C3A27727  21.141  28.376  11.189 -0.0430  0.0767 -0.3073
 2363DOPC   C4A27728  20.962  28.858  11.268 -0.1823 -0.0071 -0.1543
 2363DOPC   C1B27729  21.221  28.374  10.393 -0.0009 -0.2933 -0.3879
 2363DOPC   D2B27730  21.546  28.309  10.739  0.0907  0.0917 -0.1977
 2363DOPC   C3B27731  21.670  27.882  10.847  0.0951 -0.4807  0.1412
 2363DOPC   C4B27732  21.623  27.472  11.090 -0.1987 -0.2695 -0.0207
 2364DOPS   CNO27733  12.198  24.181  10.320  0.1139 -0.0507  0.4157
 2364DOPS   PO427734  12.116  24.559  10.178 -0.3606  0.0248 -0.0119
 2364DOPS   GL127735  11.785  24.535  10.469  0.2795  0.0863 -0.2859
 2364DOPS   GL227736  11.956  24.422  10.672 -0.0280 -0.2713 -0.0226
 2364DOPS   C1A27737  11.532  24.573  10.857 -0.1348  0.1577  0.2053
 2364DOPS   D2A27738  11.534  24.579  11.292  0.2428  0.0251  0.0874
 2364DOPS   C3A27739  11.703  24.866  11.547  0.3301  0.0406  0.0812
 2364DOPS   C4A27740  11.729  24.685  11.991  0.1561 -0.0554 -0.0752
 2364DOPS   C1B27741  11.947  24.096  11.002  0.1634 -0.3200 -0.0002
 2364DOPS   D2B27742  11.914  23.712  11.133 -0.1305 -0.0216  0.1740
 2364DOPS   C3B27743  11.995  23.704  11.590 -0.0264 -0.2848  0.0598
 2364DOPS   C4B27744  12.233  24.025  11.896  0.1471 -0.3393  0.1587
 2365DOPE   NH327745  14.578  33.596  11.905  0.0225 -0.0605 -0.4002
 2365DOPE   PO427746  14.889  33.643  11.912  0.1985 -0.0305 -0.1668
 2365DOPE   GL127747  14.934  33.601  12.256  0.0372  0.2508 -0.5857
 2365DOPE   GL227748  15.216  33.684  12.409  0.1127 -0.1839 -0.1870
 2365DOPE   C1A27749  14.975  33.227  12.528  0.0387 -0.0754  0.0333
 2365DOPE   D2A27750  15.053  33.092  12.978 -0.0377 -0.3066  0.1483
 2365DOPE   C3A27751  15.389  32.977  13.207 -0.1783 -0.0087 -0.3111
 2365DOPE   C4A27752  15.529  32.975  13.668 -0.3571 -0.0299  0.0878
 2365DOPE   C1B27753  14.978  33.687  12.800 -0.3755  0.1469  0.1529
 2365DOPE   D2B27754  15.031  33.517  13.277  0.3056 -0.0500  0.0971
 2365DOPE   C3B27755  14.741  33.655  13.624  0.0448  0.3599 -0.0144
 2365DOPE   C4B27756  14.371  33.916  13.762 -0.0707 -0.1249  0.2253
 2366DOPE   NH327757  15.656  30.749  11.153 -0.1153 -0.0482  0.0894
 2366DOPE   PO427758  15.374  30.628  11.240  0.0986 -0.2450 -0.1751
 2366DOPE   GL127759  15.131  30.709  11.631  0.5057  0.0578  0.0147
 2366DOPE   GL227760  15.033  30.954  11.828  0.2305  0.0091  0.1352
 2366DOPE   C1A27761  15.241  30.601  12.051 -0.1556  0.0742  0.0146
 2366DOPE   D2A27762  15.323  30.568  12.484  0.3653  0.2156 -0.1855
 2366DOPE   C3A27763  15.719  30.360  12.617  0.1503 -0.1727 -0.2251
 2366DOPE   C4A27764  16.134  30.397  12.790 -0.1446  0.1301 -0.1752
 2366DOPE   C1B27765  14.857  30.830  12.281 -0.1683  0.0216 -0.0147
 2366DOPE   D2B27766  14.860  30.473  12.650 -0.2230 -0.3502  0.0840
 2366DOPE   C3B27767  15.240  30.239  12.800  0.0049  0.0688  0.4504
 2366DOPE   C4B27768  15.610  30.020  13.071 -0.0872 -0.0259 -0.0145
 2367DOPS   CNO27769  22.808   2.543   9.994  0.1486  0.1345  0.0091
 2367DOPS   PO427770  22.584   2.761  10.217  0.2170  0.0328 -0.0414
 2367DOPS   GL127771  22.730   2.522  10.550 -0.1666 -0.1062 -0.0290
 2367DOPS   GL227772  22.955   2.623  10.625 -0.0215 -0.2419  0.0997
 2367DOPS   C1A27773  22.720   2.060  10.585  0.0973 -0.0648 -0.2344
 2367DOPS   D2A27774  22.558   1.628  10.521 -0.0118  0.1585  0.2823
 2367DOPS   C3A27775  22.742   1.252  10.695 -0.0821  0.1258 -0.0243
 2367DOPS   C4A27776  22.975   0.868  10.809  0.1835  0.4316  0.1035
 2367DOPS   C1B27777  23.366   2.608  10.878 -0.1619  0.1650 -0.1434
 2367DOPS   D2B27778  23.688   2.311  11.003 -0.0359 -0.1892 -0.2786
 2367DOPS   C3B27779  23.606   2.000  11.348 -0.2614  0.3919  0.2262
 2367DOPS   C4B27780  23.650   1.612  11.635 -0.0888  0.0693  0.1412
 2368DOPE   NH327781  20.674  26.991   9.134  0.2721  0.0143 -0.0714
 2368DOPE   PO427782  20.669  26.770   9.345 -0.0332  0.0728 -0.0128
 2368DOPE   GL127783  20.602  26.638   9.658  0.1486  0.0907 -0.0417
 2368DOPE   GL227784  20.283  26.654   9.734  0.3208 -0.1109 -0.0218
 2368DOPE   C1A27785  20.737  26.873  10.047 -0.0938  0.3200 -0.3330
 2368DOPE   D2A27786  21.054  27.180  10.098 -0.0130 -0.2567 -0.1512
 2368DOPE   C3A27787  20.918  27.079  10.535  0.1195 -0.0176  0.3075
 2368DOPE   C4A27788  20.851  27.096  11.015 -0.1191  0.1829 -0.0306
 2368DOPE   C1B27789  19.962  26.512  10.009 -0.3859 -0.1795  0.1195
 2368DOPE   D2B27790  20.078  26.275  10.426  0.1881 -0.1582 -0.0604
 2368DOPE   C3B27791  20.191  26.481  10.813  0.1515  0.1840  0.0112
 2368DOPE   C4B27792  20.423  26.690  11.198 -0.1445  0.0244  0.0780
 2369DOPS   CNO27793  14.962  25.601  10.236 -0.2977 -0.2503  0.1210
 2369DOPS   PO427794  14.835  25.240  10.232  0.3818  0.1514  0.1972
 2369DOPS   GL127795  14.962  25.356  10.613 -0.1659  0.4658 -0.2124
 2369DOPS   GL227796  14.764  25.103  10.714 -0.1057 -0.1135 -0.0761
 2369DOPS   C1A27797  15.059  25.248  11.064 -0.2827 -0.0163  0.1238
 2369DOPS   D2A27798  15.242  25.313  11.495  0.0522 -0.2649 -0.0568
 2369DOPS   C3A27799  14.918  25.509  11.807  0.0215 -0.1736 -0.1209
 2369DOPS   C4A27800  15.036  25.709  12.153 -0.1739  0.3279 -0.1209
 2369DOPS   C1B27801  14.729  24.772  10.976 -0.0516  0.1545 -0.0569
 2369DOPS   D2B27802  14.337  24.631  11.148  0.1451  0.0735 -0.4103
 2369DOPS   C3B27803  14.216  24.891  11.525 -0.0624 -0.0936 -0.1641
 2369DOPS   C4B27804  13.826  24.964  11.810  0.0561  0.1887 -0.1495
 2370DOPS   CNO27805  22.804  24.152   8.585  0.1184  0.0776 -0.2631
 2370DOPS   PO427806  22.500  24.398   8.706  0.1566 -0.1703 -0.0500
 2370DOPS   GL127807  22.431  24.654   9.047 -0.0247  0.0965  0.3830
 2370DOPS   GL227808  22.631  24.882   9.149  0.1472  0.1181 -0.1336
 2370DOPS   C1A27809  22.419  24.591   9.518  0.0198  0.3823  0.0895
 2370DOPS   D2A27810  22.452  24.483   9.996  0.2675 -0.0582 -0.2444
 2370DOPS   C3A27811  22.784  24.504  10.306 -0.1748  0.2297  0.0728
 2370DOPS   C4A27812  22.812  24.301  10.735  0.0344  0.1706  0.0760
 2370DOPS   C1B27813  22.978  24.894   9.435  0.0128  0.0716  0.0475
 2370DOPS   D2B27814  23.323  24.838   9.719 -0.2679 -0.1957  0.2688
 2370DOPS   C3B27815  23.754  24.647   9.598 -0.0576  0.1101  0.1692
 2370DOPS   C4B27816  24.115  24.745   9.333 -0.1393 -0.3325  0.0945
 2371DOPC   NC327817  15.001  28.659  10.979 -0.1334 -0.2745  0.2704
 2371DOPC   PO427818  15.244  28.407  11.145  0.1713  0.2031  0.2195
 2371DOPC   GL127819  15.284  28.332  11.550 -0.0739 -0.0649  0.1253
 2371DOPC   GL227820  15.497  28.109  11.500 -0.1414 -0.1298 -0.1970
 2371DOPC   C1A27821  15.119  28.056  11.908 -0.3414  0.2049 -0.0360
 2371DOPC   D2A27822  14.704  27.914  12.198  0.1734  0.1335  0.1478
 2371DOPC   C3A27823  14.857  27.923  12.636  0.1706 -0.3585 -0.0530
 2371DOPC   C4A27824  15.004  27.711  13.024 -0.2163 -0.2222 -0.1008
 2371DOPC   C1B27825  15.614  27.957  11.916  0.0383 -0.0434 -0.1562
 2371DOPC   D2B27826  15.960  27.844  12.205  0.2281  0.1855 -0.1353
 2371DOPC   C3B27827  15.700  27.844  12.588  0.2459  0.0687 -0.2536
 2371DOPC   C4B27828  15.297  28.033  12.818  0.4782  0.0088  0.1668
 2372DOPC   NC327829  20.981  31.682   9.835  0.0111 -0.0128  0.0588
 2372DOPC   PO427830  21.396  31.665   9.910  0.1253  0.0740  0.2531
 2372DOPC   GL127831  21.476  31.618  10.243 -0.1658  0.3234 -0.1671
 2372DOPC   GL227832  21.290  31.499  10.392  0.3271  0.0847  0.0274
 2372DOPC   C1A27833  21.849  31.514  10.479  0.1515  0.0242  0.2819
 2372DOPC   D2A27834  22.083  31.774  10.761  0.1570  0.0668 -0.0647
 2372DOPC   C3A27835  22.046  32.005  11.132  0.0456  0.1672 -0.1805
 2372DOPC   C4A27836  22.306  32.210  11.411  0.0133 -0.0929 -0.0952
 2372DOPC   C1B27837  21.397  31.549  10.815 -0.0642  0.1244  0.0370
 2372DOPC   D2B27838  21.733  31.608  11.172  0.2759 -0.3290  0.2546
 2372DOPC   C3B27839  21.892  31.789  11.572  0.0685  0.4479 -0.4291
 2372DOPC   C4B27840  21.677  32.034  11.864  0.1810  0.1965 -0.1235
 2373DOPE   NH327841  18.713  27.084   9.643  0.0073  0.0370 -0.1030
 2373DOPE   PO427842  18.641  27.244   9.926 -0.0457  0.2372 -0.1824
 2373DOPE   GL127843  18.662  27.280  10.320  0.3947 -0.2550 -0.2512
 2373DOPE   GL227844  18.730  27.002  10.432  0.1630  0.0306 -0.0734
 2373DOPE   C1A27845  19.065  27.318  10.582 -0.1114  0.0174 -0.4221
 2373DOPE   D2A27846  19.252  27.628  10.820  0.3218 -0.1407 -0.0479
 2373DOPE   C3A27847  19.513  27.547  11.257 -0.3275  0.1876 -0.2800
 2373DOPE   C4A27848  19.998  27.536  11.353 -0.2160 -0.2416 -0.2293
 2373DOPE   C1B27849  18.838  26.866  10.858 -0.2508 -0.1469 -0.1928
 2373DOPE   D2B27850  18.771  26.973  11.305  0.0291  0.1022  0.3318
 2373DOPE   C3B27851  19.063  26.828  11.560 -0.0518  0.0168 -0.1509
 2373DOPE   C4B27852  19.430  26.553  11.544 -0.1866  0.0056  0.1857
 2374DOPC   NC327853  22.326   0.051  10.030  0.3450 -0.1283 -0.2125
 2374DOPC   PO427854  22.134  -0.124   9.772 -0.0286 -0.3808 -0.1265
 2374DOPC   GL127855  21.844  -0.072  10.083  0.1352  0.2042 -0.1243
 2374DOPC   GL227856  21.852   0.183  10.237 -0.3536 -0.0341 -0.1948
 2374DOPC   C1A27857  21.701  -0.152  10.520 -0.1192 -0.0154  0.0912
 2374DOPC   D2A27858  21.401  -0.491  10.619  0.0092  0.0572  0.2350
 2374DOPC   C3A27859  21.261  -0.717  11.012  0.0109 -0.3282  0.0676
 2374DOPC   C4A27860  20.906  -0.943  11.231  0.2775 -0.0954  0.1103
 2374DOPC   C1B27861  22.112   0.163  10.558  0.2348 -0.0982 -0.2546
 2374DOPC   D2B27862  22.400   0.157  10.853 -0.3982 -0.1322 -0.1529
 2374DOPC   C3B27863  22.738  -0.068  10.612  0.0765 -0.0307  0.0426
 2374DOPC   C4B27864  23.188  -0.103  10.320 -0.2036 -0.0863 -0.2077
 2375POSM   NC327865  17.933  26.369   9.643 -0.2393 -0.0520 -0.1066
 2375POSM   PO427866  17.998  26.021   9.773 -0.3315  0.0869 -0.0937
 2375POSM   AM127867  17.972  25.790  10.005 -0.2608  0.0028  0.3135
 2375POSM   AM227868  17.769  25.608  10.021 -0.2730  0.0722  0.0923
 2375POSM   T1A27869  18.051  25.542  10.442  0.0055  0.0167 -0.4258
 2375POSM   C2A27870  18.026  25.336  10.881  0.2506 -0.0593  0.3420
 2375POSM   C3A27871  17.937  25.114  11.274  0.0303  0.1547  0.1724
 2375POSM   C1B27872  17.598  25.423  10.221 -0.1244  0.0407  0.3191
 2375POSM   D2B27873  17.331  25.204  10.513 -0.2078 -0.1373  0.0737
 2375POSM   C3B27874  17.265  25.468  10.885  0.0358 -0.0513  0.2391
 2375POSM   C4B27875  17.108  25.573  11.224  0.0119 -0.1266  0.1616
 2376DOPC   NC327876  12.925  31.115  11.521 -0.0620  0.1580  0.0489
 2376DOPC   PO427877  12.663  31.167  11.833 -0.1198  0.1512 -0.1677
 2376DOPC   GL127878  13.045  31.219  12.048 -0.0900  0.0630 -0.0918
 2376DOPC   GL227879  12.944  31.013  12.209  0.2680 -0.0676 -0.0120
 2376DOPC   C1A27880  13.116  31.351  12.497 -0.1189 -0.0218 -0.0083
 2376DOPC   D2A27881  13.051  31.314  12.936 -0.2659 -0.0751 -0.0853
 2376DOPC   C3A27882  13.399  31.263  13.242  0.3491  0.1026  0.0494
 2376DOPC   C4A27883  13.791  31.254  13.514 -0.2576 -0.0390  0.0757
 2376DOPC   C1B27884  12.890  30.880  12.641  0.2269 -0.4691 -0.1028
 2376DOPC   D2B27885  12.758  30.932  13.071 -0.0811  0.0900  0.0816
 2376DOPC   C3B27886  13.008  30.784  13.442 -0.1851  0.3801 -0.0551
 2376DOPC   C4B27887  13.452  30.811  13.551  0.0557 -0.0774  0.1839
 2377DOPC   NC327888  16.206  32.320  10.718 -0.1647 -0.1536  0.0375
 2377DOPC   PO427889  16.625  32.301  10.818  0.1147  0.1702 -0.3286
 2377DOPC   GL127890  16.817  32.255  11.232  0.4105  0.1592  0.0684
 2377DOPC   GL227891  16.586  32.259  11.413  0.2685 -0.2485  0.1995
 2377DOPC   C1A27892  16.988  32.303  11.651 -0.1032 -0.1372 -0.5400
 2377DOPC   D2A27893  17.289  32.146  11.978  0.0223  0.0285 -0.0396
 2377DOPC   C3A27894  17.337  31.688  11.946 -0.2681  0.1686 -0.0601
 2377DOPC   C4A27895  17.596  31.380  12.264 -0.1342  0.0642 -0.1283
 2377DOPC   C1B27896  16.503  32.465  11.799 -0.3417  0.0234 -0.2445
 2377DOPC   D2B27897  16.201  32.348  12.063 -0.0464 -0.1889 -0.1395
 2377DOPC   C3B27898  16.390  32.283  12.465 -0.1987  0.0328 -0.3737
 2377DOPC   C4B27899  16.739  32.505  12.727  0.1007 -0.1075  0.0934
 2378DOPE   NH327900  15.416  33.037  11.656 -0.2741 -0.1827  0.0837
 2378DOPE   PO427901  15.238  32.835  11.852  0.1567 -0.0650 -0.2759
 2378DOPE   GL127902  15.504  32.932  12.121  0.1092  0.3655 -0.2194
 2378DOPE   GL227903  15.373  32.818  12.406  0.3116  0.0856  0.1165
 2378DOPE   C1A27904  15.882  32.690  12.278 -0.2368 -0.1850 -0.0371
 2378DOPE   D2A27905  16.149  32.671  12.638 -0.0919  0.0245  0.1374
 2378DOPE   C3A27906  16.421  32.976  12.805 -0.1378  0.1551  0.0926
 2378DOPE   C4A27907  16.368  33.245  13.169 -0.0133 -0.0075 -0.1610
 2378DOPE   C1B27908  15.661  32.928  12.713  0.2143 -0.3097 -0.1739
 2378DOPE   D2B27909  15.853  32.845  13.156  0.1130  0.4297 -0.1703
 2378DOPE   C3B27910  16.237  32.634  13.106 -0.1561  0.3350  0.2328
 2378DOPE   C4B27911  16.698  32.468  13.224  0.0717 -0.1296  0.0033
 2379DOPE   NH327912  14.642  34.136  11.876 -0.0318 -0.3822 -0.3831
 2379DOPE   PO427913  14.693  34.030  12.160 -0.0473 -0.0960 -0.0350
 2379DOPE   GL127914  14.902  34.031  12.450  0.2061 -0.0806 -0.1227
 2379DOPE   GL227915  14.708  34.199  12.639 -0.1353 -0.1163 -0.2243
 2379DOPE   C1A27916  15.288  34.179  12.617 -0.2405  0.3662 -0.2373
 2379DOPE   D2A27917  15.598  34.494  12.805 -0.0448  0.0151  0.2416
 2379DOPE   C3A27918  16.053  34.668  12.752 -0.0474 -0.1032 -0.0586
 2379DOPE   C4A27919  16.487  34.593  12.915  0.3973  0.2479  0.0422
 2379DOPE   C1B27920  14.785  34.433  13.054  0.0847  0.2823 -0.2326
 2379DOPE   D2B27921  15.025  34.484  13.435  0.0874  0.3369 -0.2510
 2379DOPE   C3B27922  15.197  34.770  13.746 -0.2620  0.1721  0.4254
 2379DOPE   C4B27923  15.276  35.256  13.907  0.0380  0.0442 -0.0180
 2380DOPC   NC327924  12.528  30.422  11.551  0.0510 -0.1473 -0.0161
 2380DOPC   PO427925  12.418  30.297  11.918  0.0207 -0.0144 -0.0666
 2380DOPC   GL127926  12.304  30.304  12.300 -0.1483  0.0002  0.1952
 2380DOPC   GL227927  12.183  30.618  12.438  0.4785 -0.3541  0.1408
 2380DOPC   C1A27928  12.463  30.033  12.650  0.0097  0.1672  0.0535
 2380DOPC   D2A27929  12.424  30.056  13.148  0.1757  0.0980 -0.1496
 2380DOPC   C3A27930  12.343  29.612  13.282 -0.0207 -0.2221 -0.2476
 2380DOPC   C4A27931  12.014  29.323  13.294  0.0594  0.0659  0.0058
 2380DOPC   C1B27932  12.439  30.548  12.777  0.2866  0.0429  0.1428
 2380DOPC   D2B27933  12.767  30.366  12.995  0.1010  0.0294 -0.2122
 2380DOPC   C3B27934  12.824  30.227  13.419 -0.0309 -0.2070  0.2197
 2380DOPC   C4B27935  12.716  29.823  13.507 -0.1059 -0.2537 -0.1728
 2381DOPE   NH327936  21.371  31.220   9.591  0.0390 -0.1716 -0.0414
 2381DOPE   PO427937  21.128  31.225   9.770 -0.0416  0.1411 -0.2459
 2381DOPE   GL127938  21.277  31.167  10.040  0.0762  0.4021 -0.3611
 2381DOPE   GL227939  21.672  31.140   9.992 -0.1502  0.1410 -0.1404
 2381DOPE   C1A27940  21.102  30.949  10.380  0.3541 -0.0901 -0.0109
 2381DOPE   D2A27941  21.210  30.760  10.803 -0.0175  0.4600  0.0129
 2381DOPE   C3A27942  21.483  30.455  10.968 -0.1608  0.0582  0.2050
 2381DOPE   C4A27943  21.771  30.146  11.108 -0.1749 -0.0684 -0.1887
 2381DOPE   C1B27944  21.584  31.057  10.436 -0.0936  0.1665 -0.2269
 2381DOPE   D2B27945  21.811  30.897  10.825 -0.0315  0.1751 -0.1667
 2381DOPE   C3B27946  21.935  30.469  10.792  0.1737  0.1128 -0.1805
 2381DOPE   C4B27947  22.113  29.983  10.783 -0.1915  0.0451  0.0240
 2382DOPS   CNO27948  17.496  33.352  10.754 -0.0805 -0.0100  0.1077
 2382DOPS   PO427949  17.320  33.687  10.677  0.0465 -0.1485 -0.2308
 2382DOPS   GL127950  17.273  33.579  11.120  0.2632 -0.0529  0.2254
 2382DOPS   GL227951  17.487  33.430  11.266 -0.0381  0.2700  0.5736
 2382DOPS   C1A27952  17.214  33.681  11.579  0.2115 -0.0027 -0.2114
 2382DOPS   D2A27953  17.130  33.372  11.898  0.1198 -0.0110 -0.0927
 2382DOPS   C3A27954  17.360  33.449  12.306 -0.2720 -0.1760 -0.0352
 2382DOPS   C4A27955  17.728  33.507  12.512 -0.2524  0.5038  0.0632
 2382DOPS   C1B27956  17.715  33.681  11.529 -0.0269 -0.1778 -0.4008
 2382DOPS   D2B27957  17.903  34.089  11.449 -0.1738  0.1063  0.0640
 2382DOPS   C3B27958  17.934  34.286  11.859 -0.0542 -0.1264 -0.2139
 2382DOPS   C4B27959  17.965  34.100  12.343 -0.0310 -0.3166  0.1622
 2383DOPC   NC327960  15.723   0.384  10.812 -0.0866  0.0371  0.0815
 2383DOPC   PO427961  16.063   0.195  10.956  0.2008  0.0346 -0.2252
 2383DOPC   GL127962  16.249   0.283  11.301 -0.0046  0.0205 -0.3163
 2383DOPC   GL227963  16.147   0.044  11.477 -0.0519 -0.0133 -0.1661
 2383DOPC   C1A27964  16.230   0.521  11.710  0.0529 -0.2918  0.1314
 2383DOPC   D2A27965  16.244   0.667  12.180  0.4186 -0.2652  0.3520
 2383DOPC   C3A27966  16.429   0.680  12.577 -0.1978  0.3789  0.0345
 2383DOPC   C4A27967  16.318   0.546  12.982 -0.0935 -0.0245  0.1788
 2383DOPC   C1B27968  16.418   0.070  11.785  0.2112  0.2053 -0.1002
 2383DOPC   D2B27969  16.650   0.373  12.047 -0.3869 -0.0376 -0.1219
 2383DOPC   C3B27970  16.726   0.293  12.471  0.0988  0.3410 -0.3098
 2383DOPC   C4B27971  16.832   0.557  12.822  0.1983 -0.0915  0.1218
 2384POSM   NC327972  19.828  31.995   9.501  0.0755 -0.3373  0.0285
 2384POSM   PO427973  20.080  31.979   9.862  0.2418 -0.1427 -0.0019
 2384POSM   AM127974  20.002  32.104  10.146 -0.1907 -0.1211 -0.0575
 2384POSM   AM227975  19.934  32.193  10.363 -0.1693  0.1049  0.0987
 2384POSM   T1A27976  20.145  31.888  10.636  0.0986 -0.0108 -0.0074
 2384POSM   C2A27977  20.354  31.547  10.897 -0.3258 -0.0677  0.0447
 2384POSM   C3A27978  20.032  31.412  11.218  0.1260 -0.2053  0.0857
 2384POSM   C1B27979  19.799  32.262  10.685 -0.0739  0.0850 -0.0493
 2384POSM   D2B27980  19.446  32.189  10.971  0.2377  0.0485 -0.1503
 2384POSM   C3B27981  19.533  31.829  11.259 -0.0130  0.0391  0.1657
 2384POSM   C4B27982  19.834  31.732  11.633 -0.1923  0.0648 -0.0922
 2385DOPC   NC327983  14.764  31.000  11.455  0.1397 -0.0835 -0.0543
 2385DOPC   PO427984  14.813  31.356  11.525  0.1743  0.1039  0.1016
 2385DOPC   GL127985  14.504  31.298  11.799  0.2221 -0.1438  0.0365
 2385DOPC   GL227986  14.594  31.122  11.954  0.1197 -0.2307  0.0654
 2385DOPC   C1A27987  14.165  31.266  12.158 -0.0506  0.0681  0.4507
 2385DOPC   D2A27988  13.968  30.919  12.419 -0.0479  0.0934 -0.0146
 2385DOPC   C3A27989  14.021  30.979  12.888 -0.0562 -0.0146 -0.1831
 2385DOPC   C4A27990  14.070  30.867  13.314  0.2456  0.3376 -0.2386
 2385DOPC   C1B27991  14.570  31.241  12.376  0.1385 -0.0107 -0.0037
 2385DOPC   D2B27992  14.558  31.332  12.806  0.1495 -0.1598 -0.0345
 2385DOPC   C3B27993  14.714  30.951  12.997 -0.0595 -0.0711  0.1491
 2385DOPC   C4B27994  14.869  30.544  13.203  0.1278  0.0141  0.2514
 2386POSM   NC327995  16.128  30.860  10.955  0.1291  0.0458  0.0556
 2386POSM   PO427996  16.391  31.049  11.147 -0.1402 -0.2938 -0.0638
 2386POSM   AM127997  16.558  31.130  11.410  0.0656  0.1288  0.1829
 2386POSM   AM227998  16.724  31.324  11.532 -0.0194  0.0052 -0.0677
 2386POSM   T1A27999  16.761  30.891  11.772  0.1908 -0.1832 -0.0269
 2386POSM   C2A28000  17.034  30.631  12.028 -0.0527  0.0062  0.0164
 2386POSM   C3A28001  17.380  30.371  12.321 -0.1484 -0.2878  0.0338
 2386POSM   C1B28002  16.863  31.497  11.781 -0.2481  0.0345  0.0543
 2386POSM   D2B28003  16.890  31.630  12.170 -0.4488  0.2235  0.2133
 2386POSM   C3B28004  17.081  31.367  12.532 -0.3934  0.1183  0.1316
 2386POSM   C4B28005  16.775  31.015  12.715  0.0578  0.1745  0.0496
 2387DOPE   NH328006  15.112  30.008  11.205  0.0077  0.1014 -0.2917
 2387DOPE   PO428007  14.832  29.960  11.233 -0.1291  0.0201  0.0715
 2387DOPE   GL128008  14.544  29.715  11.364 -0.0459  0.1191  0.0610
 2387DOPE   GL228009  14.275  29.795  11.403  0.4944 -0.0201 -0.0993
 2387DOPE   C1A28010  14.688  29.375  11.688 -0.0076 -0.2591  0.0332
 2387DOPE   D2A28011  14.902  29.217  12.022  0.1287 -0.1879 -0.1343
 2387DOPE   C3A28012  14.709  28.867  12.324 -0.1406  0.5948  0.1009
 2387DOPE   C4A28013  14.570  28.429  12.130  0.3964 -0.2518 -0.1466
 2387DOPE   C1B28014  14.235  30.019  11.837  0.1731 -0.1900 -0.1922
 2387DOPE   D2B28015  14.441  30.179  12.240 -0.1511  0.1011 -0.1119
 2387DOPE   C3B28016  14.310  30.021  12.642 -0.1386  0.1003 -0.1521
 2387DOPE   C4B28017  14.157  29.654  12.894  0.1718  0.1226  0.2077
 2388DOPE   NH328018  20.602  32.501   9.795 -0.0862  0.2886  0.0745
 2388DOPE   PO428019  20.758  32.701   9.860  0.1546 -0.0303 -0.1969
 2388DOPE   GL128020  20.740  32.511  10.261 -0.1650  0.0051  0.1760
 2388DOPE   GL228021  21.047  32.542  10.194 -0.1390 -0.3272 -0.3847
 2388DOPE   C1A28022  20.925  32.380  10.685  0.1834  0.1358  0.0439
 2388DOPE   D2A28023  20.971  32.304  11.114 -0.0257  0.1573 -0.0791
 2388DOPE   C3A28024  20.583  32.519  11.375  0.0847  0.1910 -0.0350
 2388DOPE   C4A28025  20.245  32.250  11.557  0.0507  0.1232 -0.1372
 2388DOPE   C1B28026  21.413  32.419  10.554 -0.0190 -0.3381 -0.2923
 2388DOPE   D2B28027  21.644  32.325  10.943  0.2376 -0.2033  0.3342
 2388DOPE   C3B28028  21.446  32.331  11.374  0.0925 -0.0245 -0.3358
 2388DOPE   C4B28029  21.167  32.249  11.724 -0.1266  0.0145  0.1162
 2389DOPS   CNO28030  20.927  24.092   8.825  0.2189 -0.2467 -0.3499
 2389DOPS   PO428031  20.861  24.440   8.693 -0.1292 -0.0897 -0.1583
 2389DOPS   GL128032  21.021  24.541   9.068 -0.2340  0.0409 -0.1104
 2389DOPS   GL228033  21.216  24.290   9.174  0.1914  0.1368 -0.1088
 2389DOPS   C1A28034  20.855  24.521   9.522 -0.2609 -0.1286 -0.4658
 2389DOPS   D2A28035  20.934  24.695   9.931 -0.0422 -0.1992  0.1294
 2389DOPS   C3A28036  21.123  24.429  10.244 -0.0939  0.0742 -0.0400
 2389DOPS   C4A28037  21.529  24.212  10.201  0.1588  0.1043 -0.0873
 2389DOPS   C1B28038  21.207  24.074   9.603 -0.1984 -0.2927  0.1486
 2389DOPS   D2B28039  21.153  23.920  10.027 -0.2032  0.0251  0.0256
 2389DOPS   C3B28040  21.002  23.976  10.459  0.1103  0.3894  0.2772
 2389DOPS   C4B28041  21.020  24.143  10.899  0.1302  0.1637  0.2280
 2390DOPE   NH328042  12.179  24.923  10.510  0.2258  0.1147 -0.2028
 2390DOPE   PO428043  12.451  25.043  10.555 -0.1505  0.2329  0.0796
 2390DOPE   GL128044  12.639  25.134  10.867  0.4255 -0.0482 -0.2390
 2390DOPE   GL228045  12.516  24.863  10.996  0.0466 -0.1850  0.1721
 2390DOPE   C1A28046  12.945  25.121  11.142 -0.0029  0.0947 -0.0125
 2390DOPE   D2A28047  13.311  25.088  11.442  0.4518 -0.1052  0.0279
 2390DOPE   C3A28048  13.321  24.928  11.905  0.2623 -0.3388 -0.0340
 2390DOPE   C4A28049  13.135  24.876  12.313  0.1157 -0.0099  0.0813
 2390DOPE   C1B28050  12.301  24.515  11.177 -0.1958 -0.1493 -0.2784
 2390DOPE   D2B28051  12.017  24.498  11.549 -0.0197 -0.0357 -0.1119
 2390DOPE   C3B28052  11.751  24.131  11.453 -0.0435 -0.0127  0.0022
 2390DOPE   C4B28053  11.534  23.702  11.495 -0.2234  0.0733 -0.1062
 2391DOPE   NH328054  21.795  23.620   8.752  0.0969  0.3016  0.2033
 2391DOPE   PO428055  21.906  23.909   8.829 -0.2205 -0.0088  0.0217
 2391DOPE   GL128056  21.983  23.917   9.219 -0.2464  0.3904  0.1844
 2391DOPE   GL228057  22.034  23.703   9.300  0.0653  0.1433 -0.1730
 2391DOPE   C1A28058  22.113  24.211   9.574  0.1735  0.0927 -0.1224
 2391DOPE   D2A28059  21.907  24.425   9.887 -0.2121 -0.2683 -0.2656
 2391DOPE   C3A28060  22.085  24.345  10.328  0.0499  0.3941  0.2665
 2391DOPE   C4A28061  22.359  24.091  10.577  0.0259 -0.1041 -0.0653
 2391DOPE   C1B28062  22.309  23.760   9.636 -0.1622 -0.1920 -0.4507
 2391DOPE   D2B28063  22.344  23.853  10.083  0.1886  0.1105 -0.2658
 2391DOPE   C3B28064  22.716  23.980  10.268 -0.0809  0.0779 -0.1954
 2391DOPE   C4B28065  23.213  23.993  10.397 -0.2320 -0.4345  0.0912
 2392POSM   NC328066  23.747  31.600   9.285  0.1019  0.2222  0.0561
 2392POSM   PO428067  23.686  31.580   9.679 -0.3352  0.0947 -0.0278
 2392POSM   AM128068  23.622  31.691  10.021 -0.1175 -0.0542  0.1962
 2392POSM   AM228069  23.577  31.641  10.314  0.1328  0.2000  0.0500
 2392POSM   T1A28070  23.454  32.069  10.229  0.0842  0.0251 -0.1861
 2392POSM   C2A28071  23.054  32.314  10.227  0.0916  0.4492  0.1946
 2392POSM   C3A28072  22.663  32.341  10.448 -0.0661 -0.4226 -0.0353
 2392POSM   C1B28073  23.380  31.518  10.594  0.0542 -0.0830  0.0558
 2392POSM   D2B28074  23.338  31.282  10.921 -0.0529 -0.4481 -0.0515
 2392POSM   C3B28075  23.465  30.853  10.956 -0.0781 -0.0471  0.0474
 2392POSM   C4B28076  23.692  30.563  11.234  0.1930  0.0519  0.0100
 2393DOPC   NC328077  24.838  31.350   9.548 -0.0581 -0.0860  0.0020
 2393DOPC   PO428078  24.847  31.573   9.839  0.1435  0.2659 -0.1336
 2393DOPC   GL128079  24.910  31.525  10.274 -0.2203  0.2000 -0.1272
 2393DOPC   GL228080  24.699  31.659  10.435 -0.1950  0.0745  0.0523
 2393DOPC   C1A28081  24.917  31.190  10.621 -0.0245  0.3683 -0.1746
 2393DOPC   D2A28082  24.963  31.264  11.104 -0.1863 -0.1936  0.0412
 2393DOPC   C3A28083  25.243  31.022  11.382 -0.1025 -0.1974 -0.0886
 2393DOPC   C4A28084  25.569  31.175  11.689  0.0692  0.0523 -0.0347
 2393DOPC   C1B28085  24.627  31.589  10.904 -0.0551 -0.2040  0.1981
 2393DOPC   D2B28086  24.381  31.299  11.190  0.1704  0.0062 -0.0687
 2393DOPC   C3B28087  24.168  31.423  11.536 -0.0035 -0.0045 -0.0596
 2393DOPC   C4B28088  23.931  31.607  11.898 -0.3330  0.1190  0.3478
 2394DOPC   NC328089  15.244  25.111   9.976  0.0566 -0.2343  0.1739
 2394DOPC   PO428090  15.361  25.216  10.330  0.1120 -0.2574  0.2059
 2394DOPC   GL128091  15.431  25.040  10.702  0.0711  0.1876  0.1992
 2394DOPC   GL228092  15.209  24.789  10.698  0.0472  0.2949 -0.1120
 2394DOPC   C1A28093  15.599  25.148  11.124  0.0788 -0.2123  0.0967
 2394DOPC   D2A28094  15.646  25.105  11.547  0.2098  0.2544 -0.1647
 2394DOPC   C3A28095  15.483  25.254  11.973 -0.0168  0.3169 -0.0153
 2394DOPC   C4A28096  15.310  25.213  12.377 -0.1042  0.0725 -0.2529
 2394DOPC   C1B28097  15.287  24.727  11.166  0.0340  0.1079  0.0042
 2394DOPC   D2B28098  15.220  24.700  11.581 -0.2106 -0.1932 -0.0708
 2394DOPC   C3B28099  15.488  24.646  11.937 -0.1661 -0.0796 -0.0324
 2394DOPC   C4B28100  15.830  24.356  12.101 -0.4974 -0.0739 -0.0571
 2395DOPE   NH328101  15.484  25.740  10.289 -0.0924  0.0694  0.1154
 2395DOPE   PO428102  15.732  25.567  10.192  0.0930  0.1251  0.0250
 2395DOPE   GL128103  15.680  25.445  10.636  0.0211 -0.2249 -0.1628
 2395DOPE   GL228104  15.369  25.504  10.754 -0.0910  0.2874 -0.0108
 2395DOPE   C1A28105  15.886  25.674  10.991 -0.1827  0.2508  0.1783
 2395DOPE   D2A28106  15.878  25.558  11.477  0.0194  0.2060 -0.0067
 2395DOPE   C3A28107  15.900  25.587  11.891 -0.0126 -0.3056  0.0084
 2395DOPE   C4A28108  15.892  25.441  12.334 -0.0989  0.1472 -0.0519
 2395DOPE   C1B28109  15.336  25.659  11.142  0.1861  0.1575  0.0311
 2395DOPE   D2B28110  15.285  25.793  11.616  0.0470 -0.1334  0.0467
 2395DOPE   C3B28111  15.644  26.049  11.799  0.4002  0.4836 -0.0624
 2395DOPE   C4B28112  16.073  26.014  11.872  0.3009  0.1338 -0.0070
 2396DOPE   NH328113  19.255  25.668   9.296  0.1653  0.0822  0.0708
 2396DOPE   PO428114  19.301  25.992   9.264 -0.1615  0.0967  0.1152
 2396DOPE   GL128115  19.580  25.898   9.530 -0.0123  0.1189 -0.0110
 2396DOPE   GL228116  19.550  26.120   9.709  0.2312  0.1329 -0.0618
 2396DOPE   C1A28117  19.830  25.638   9.862  0.0997  0.0982 -0.0616
 2396DOPE   D2A28118  20.049  25.252   9.835  0.0434 -0.1906 -0.0464
 2396DOPE   C3A28119  19.805  24.801   9.891 -0.1945 -0.0335  0.2429
 2396DOPE   C4A28120  19.708  24.448  10.146  0.0015  0.0161 -0.0832
 2396DOPE   C1B28121  19.636  26.138  10.148 -0.2412 -0.2218  0.2624
 2396DOPE   D2B28122  19.580  25.999  10.550 -0.1103 -0.0210  0.0621
 2396DOPE   C3B28123  19.245  25.836  10.796 -0.3127  0.1560 -0.0481
 2396DOPE   C4B28124  18.843  26.032  10.995  0.0789 -0.6842  0.0417
 2397POSM   NC328125  18.369  24.792   9.017 -0.0150  0.0919  0.1576
 2397POSM   PO428126  18.529  25.147   9.110  0.3529 -0.0253  0.0262
 2397POSM   AM128127  18.414  25.149   9.423 -0.2334 -0.1945 -0.3307
 2397POSM   AM228128  18.231  25.013   9.545 -0.0942  0.1448 -0.4020
 2397POSM   T1A28129  18.567  25.180   9.884  0.0738  0.2693  0.2263
 2397POSM   C2A28130  18.493  25.379  10.277  0.2242  0.0253 -0.1777
 2397POSM   C3A28131  18.450  25.680  10.659 -0.1099  0.0492 -0.3437
 2397POSM   C1B28132  18.203  24.778   9.764 -0.5536 -0.2864 -0.0990
 2397POSM   D2B28133  18.002  24.604  10.105  0.2636 -0.1004  0.1154
 2397POSM   C3B28134  18.265  24.521  10.471 -0.1236 -0.1644  0.3507
 2397POSM   C4B28135  18.682  24.528  10.711  0.0958 -0.1367 -0.1572
 2398POSM   NC328136  18.403  27.875  10.355  0.2731  0.1701  0.0354
 2398POSM   PO428137  18.192  27.590  10.192  0.2420  0.0237  0.1026
 2398POSM   AM128138  18.230  27.500  10.502 -0.2983 -0.3189 -0.0736
 2398POSM   AM228139  18.154  27.590  10.780 -0.0376  0.1163  0.0172
 2398POSM   T1A28140  18.426  27.166  10.828 -0.2440 -0.0257  0.0972
 2398POSM   C2A28141  18.311  26.776  11.009  0.1865 -0.2741  0.1188
 2398POSM   C3A28142  18.446  26.351  11.213  0.1260 -0.0094  0.3364
 2398POSM   C1B28143  18.329  27.633  11.119  0.0663 -0.0402  0.1520
 2398POSM   D2B28144  18.540  27.513  11.507  0.1245 -0.1135 -0.1047
 2398POSM   C3B28145  18.498  27.163  11.796 -0.3161 -0.0193 -0.2023
 2398POSM   C4B28146  18.360  27.115  12.301  0.0019  0.0685 -0.0078
 2399POSM   NC328147  13.801  33.269  12.009  0.1311  0.1770  0.0316
 2399POSM   PO428148  14.146  33.392  12.100 -0.2115 -0.2797 -0.0033
 2399POSM   AM128149  14.077  33.319  12.395 -0.4169 -0.0383 -0.2254
 2399POSM   AM228150  14.074  33.472  12.632  0.1047  0.1767  0.0759
 2399POSM   T1A28151  14.478  33.169  12.667  0.0871  0.1099 -0.0539
 2399POSM   C2A28152  14.590  33.279  13.149 -0.2845  0.2129 -0.3210
 2399POSM   C3A28153  14.750  32.880  13.433 -0.0755 -0.2100  0.0482
 2399POSM   C1B28154  14.025  33.369  12.942  0.0294  0.0902 -0.1412
 2399POSM   D2B28155  13.916  33.379  13.392 -0.1162 -0.1383  0.0230
 2399POSM   C3B28156  13.922  33.705  13.706 -0.2571 -0.0908  0.1557
 2399POSM   C4B28157  13.936  33.981  14.153  0.1379  0.1251 -0.0072
 2400POSM   NC328158  22.516  28.416   8.505 -0.0643 -0.1714 -0.2687
 2400POSM   PO428159  22.334  28.226   8.842  0.2614 -0.2880 -0.0563
 2400POSM   AM128160  22.479  28.330   9.113  0.0306  0.3560 -0.0316
 2400POSM   AM228161  22.664  28.456   9.300  0.2722 -0.1660 -0.1042
 2400POSM   T1A28162  22.819  28.005   9.313  0.1803 -0.0262 -0.1247
 2400POSM   C2A28163  23.284  27.880   9.315  0.0584  0.2561 -0.0490
 2400POSM   C3A28164  23.669  27.702   9.268 -0.0633 -0.2002  0.0993
 2400POSM   C1B28165  22.692  28.455   9.663  0.0579 -0.0294 -0.0638
 2400POSM   D2B28166  23.008  28.381   9.977 -0.2435  0.1351  0.2055
 2400POSM   C3B28167  23.207  28.216  10.364 -0.2065 -0.0089  0.0095
 2400POSM   C4B28168  23.601  27.989  10.418 -0.1998 -0.0882  0.0585
 2401DOPC   NC328169  16.195  30.182  10.818  0.0286 -0.0613  0.1103
 2401DOPC   PO428170  16.013  30.370  11.130  0.0757 -0.1267 -0.0107
 2401DOPC   GL128171  16.255  29.966  11.306 -0.0196 -0.5089 -0.1019
 2401DOPC   GL228172  16.080  30.022  11.490  0.0433 -0.0464 -0.3941
 2401DOPC   C1A28173  16.574  30.084  11.563  0.0908 -0.0828  0.2296
 2401DOPC   D2A28174  16.656  30.305  11.962  0.1360 -0.4410  0.1930
 2401DOPC   C3A28175  16.954  30.089  12.258 -0.2590 -0.3000 -0.0637
 2401DOPC   C4A28176  17.436  29.899  12.462 -0.1206 -0.1356 -0.0535
 2401DOPC   C1B28177  16.297  29.859  11.858 -0.0515 -0.2161  0.1264
 2401DOPC   D2B28178  16.431  29.815  12.281  0.0999 -0.0174  0.2566
 2401DOPC   C3B28179  16.447  30.229  12.435 -0.2528 -0.1012  0.0199
 2401DOPC   C4B28180  16.656  30.659  12.282 -0.0543  0.1813 -0.1922
 2402DOPC   NC328181  20.778  24.905   9.183 -0.0593  0.2751 -0.0143
 2402DOPC   PO428182  21.096  25.002   8.968 -0.2586 -0.2187  0.0089
 2402DOPC   GL128183  21.188  25.089   9.353 -0.3329 -0.0921  0.2000
 2402DOPC   GL228184  21.261  24.826   9.410  0.2325  0.0611 -0.3882
 2402DOPC   C1A28185  21.198  25.263   9.745 -0.2516  0.0333 -0.3033
 2402DOPC   D2A28186  21.281  25.235  10.225  0.2652 -0.3675  0.2144
 2402DOPC   C3A28187  21.171  25.298  10.641 -0.0664  0.0080 -0.1917
 2402DOPC   C4A28188  21.001  25.009  10.927 -0.0961  0.1578  0.1685
 2402DOPC   C1B28189  21.668  24.961   9.651  0.2784  0.1533 -0.4407
 2402DOPC   D2B28190  22.061  24.998   9.881 -0.1767 -0.1241 -0.2967
 2402DOPC   C3B28191  22.146  24.870  10.294  0.1354  0.2805 -0.2103
 2402DOPC   C4B28192  22.348  24.707  10.686 -0.0454  0.0315  0.0337
 2403DOPE   NH328193  21.093  30.682   9.453 -0.2076 -0.1768  0.1930
 2403DOPE   PO428194  21.059  30.417   9.273 -0.0571 -0.1422  0.1274
 2403DOPE   GL128195  20.968  30.128   9.585 -0.1424 -0.2749  0.1646
 2403DOPE   GL228196  20.768  29.898   9.517 -0.0171 -0.4334 -0.0932
 2403DOPE   C1A28197  21.155  29.751   9.748  0.0188 -0.1356  0.2308
 2403DOPE   D2A28198  21.533  29.534  10.001 -0.0491 -0.1939 -0.1619
 2403DOPE   C3A28199  21.408  29.720  10.398  0.1420 -0.0772 -0.0723
 2403DOPE   C4A28200  21.095  29.542  10.662 -0.2362  0.0754  0.2532
 2403DOPE   C1B28201  20.649  29.862   9.929 -0.1841 -0.0522  0.0614
 2403DOPE   D2B28202  20.613  30.147  10.357 -0.2501  0.0515  0.2180
 2403DOPE   C3B28203  20.605  29.922  10.764 -0.1353  0.0969  0.0820
 2403DOPE   C4B28204  20.956  29.728  11.095  0.0482 -0.0004  0.1342
 2404DOPC   NC328205  19.403  28.483  10.132 -0.0769 -0.2259  0.2310
 2404DOPC   PO428206  19.322  28.283   9.786  0.1954 -0.2398  0.2764
 2404DOPC   GL128207  19.132  28.021  10.103 -0.0545 -0.2035  0.0108
 2404DOPC   GL228208  19.349  27.942  10.240 -0.1130  0.0903 -0.1422
 2404DOPC   C1A28209  18.923  27.839  10.495  0.2605 -0.0149 -0.0079
 2404DOPC   D2A28210  18.619  27.571  10.711  0.2282  0.0816 -0.1916
 2404DOPC   C3A28211  18.864  27.464  11.051  0.1974 -0.2498  0.2511
 2404DOPC   C4A28212  19.046  27.344  11.486 -0.2205 -0.1450 -0.3236
 2404DOPC   C1B28213  19.651  27.825  10.603 -0.2532  0.2158  0.2999
 2404DOPC   D2B28214  19.917  27.878  10.958 -0.0797 -0.0248  0.0271
 2404DOPC   C3B28215  19.948  28.288  11.163 -0.2583 -0.0062  0.2758
 2404DOPC   C4B28216  20.106  28.504  11.571 -0.0328  0.3249  0.0111
 2405DOPC   NC328217  19.070  32.415   9.871 -0.2316  0.1088  0.1696
 2405DOPC   PO428218  19.189  32.814   9.849  0.2635 -0.1444 -0.0495
 2405DOPC   GL128219  19.309  33.119  10.175 -0.1356 -0.1121  0.0399
 2405DOPC   GL228220  19.409  32.967  10.455 -0.1639 -0.0472 -0.2739
 2405DOPC   C1A28221  19.183  33.409  10.537 -0.1574  0.0919  0.0349
 2405DOPC   D2A28222  18.916  33.570  10.943 -0.1940 -0.0313 -0.0356
 2405DOPC   C3A28223  19.120  33.529  11.372 -0.3628 -0.2230  0.2606
 2405DOPC   C4A28224  19.056  33.596  11.813  0.0444 -0.3542 -0.1140
 2405DOPC   C1B28225  19.531  32.788  10.862  0.0861 -0.1478  0.2004
 2405DOPC   D2B28226  19.978  32.575  11.007 -0.0695  0.1148 -0.3508
 2405DOPC   C3B28227  20.080  32.706  11.408 -0.1123 -0.1497  0.0532
 2405DOPC   C4B28228  19.924  33.036  11.690  0.0213 -0.0049  0.2470
 2406DOPS   CNO28229  19.414   2.021  10.129  0.2308 -0.0414  0.2087
 2406DOPS   PO428230  19.136   1.869  10.370 -0.0900  0.2417  0.1182
 2406DOPS   GL128231  19.257   1.688  10.696  0.0527 -0.2340  0.0387
 2406DOPS   GL228232  19.541   1.659  10.824 -0.3329 -0.0006 -0.0061
 2406DOPS   C1A28233  19.038   1.415  11.033  0.2963 -0.2571 -0.1546
 2406DOPS   D2A28234  18.796   1.240  11.312  0.1607  0.1218 -0.3428
 2406DOPS   C3A28235  18.595   1.459  11.699 -0.0021 -0.1594  0.0172
 2406DOPS   C4A28236  18.783   1.448  12.087  0.0724  0.2857 -0.2429
 2406DOPS   C1B28237  19.631   1.353  11.174 -0.4442  0.2777  0.0521
 2406DOPS   D2B28238  19.550   1.406  11.609 -0.1494 -0.1271  0.1620
 2406DOPS   C3B28239  19.094   1.311  11.755  0.0494  0.0924 -0.2302
 2406DOPS   C4B28240  18.774   0.987  11.775  0.1151  0.0881 -0.0103
 2407POSM   NC328241  20.167  29.780   9.205 -0.0783  0.1349 -0.3163
 2407POSM   PO428242  20.312  29.484   9.062  0.0970  0.2091 -0.2291
 2407POSM   AM128243  20.431  29.323   9.276  0.0401 -0.1033  0.0262
 2407POSM   AM228244  20.341  29.141   9.476 -0.4248  0.2135 -0.0443
 2407POSM   T1A28245  20.759  29.366   9.593 -0.1169  0.4054 -0.0645
 2407POSM   C2A28246  21.059  29.249   9.857  0.0919  0.3349 -0.0348
 2407POSM   C3A28247  21.197  29.139  10.285  0.2528  0.1775 -0.1575
 2407POSM   C1B28248  20.570  28.933   9.664  0.0191 -0.1884  0.0229
 2407POSM   D2B28249  20.723  28.811  10.106 -0.1075  0.3676 -0.1428
 2407POSM   C3B28250  20.906  28.764  10.536  0.0625 -0.1784 -0.1719
 2407POSM   C4B28251  20.921  29.106  10.814 -0.2292  0.4620  0.2881
 2408DOPS   CNO28252  16.903  33.426  10.886  0.1616 -0.0841  0.1594
 2408DOPS   PO428253  17.030  33.083  10.941 -0.0153  0.1030 -0.1296
 2408DOPS   GL128254  17.090  33.136  11.204 -0.3741  0.1149  0.0402
 2408DOPS   GL228255  16.882  33.223  11.460  0.0634 -0.3700 -0.0253
 2408DOPS   C1A28256  17.338  33.068  11.587 -0.2296 -0.0790 -0.2076
 2408DOPS   D2A28257  17.647  33.247  11.897 -0.1076 -0.0515 -0.1202
 2408DOPS   C3A28258  17.853  33.070  12.266  0.2446  0.1782  0.1230
 2408DOPS   C4A28259  18.116  33.085  12.658  0.0398  0.1409 -0.2346
 2408DOPS   C1B28260  16.628  33.306  11.785 -0.0697  0.0173  0.0064
 2408DOPS   D2B28261  16.581  33.264  12.270 -0.0515 -0.0937 -0.3554
 2408DOPS   C3B28262  16.154  33.207  12.440  0.1134  0.0969  0.1976
 2408DOPS   C4B28263  15.986  33.245  12.881 -0.0099  0.1839  0.2483
 2409POSM   NC328264  12.856  29.486  11.446 -0.2650  0.1630 -0.3958
 2409POSM   PO428265  13.010  29.745  11.157  0.0454 -0.1624  0.0937
 2409POSM   AM128266  13.246  29.709  11.424 -0.0256  0.1259  0.3070
 2409POSM   AM228267  13.414  29.459  11.417  0.0546 -0.5136 -0.0371
 2409POSM   T1A28268  13.418  29.913  11.824  0.2175 -0.1172 -0.1227
 2409POSM   C2A28269  13.445  30.107  12.240  0.1378 -0.2633 -0.0249
 2409POSM   C3A28270  13.089  30.164  12.571  0.2225 -0.5923 -0.3090
 2409POSM   C1B28271  13.649  29.437  11.655 -0.1067  0.3099 -0.2198
 2409POSM   D2B28272  13.762  29.592  12.043 -0.0733  0.3103 -0.2090
 2409POSM   C3B28273  13.943  29.234  12.265 -0.0655 -0.4244 -0.1763
 2409POSM   C4B28274  14.171  29.040  12.628  0.0949 -0.0734  0.1892
 2410DOPC   NC328275  15.935  32.240  11.586 -0.1101 -0.2505 -0.0725
 2410DOPC   PO428276  15.921  31.845  11.650 -0.0271 -0.2202  0.1172
 2410DOPC   GL128277  15.827  31.851  12.048 -0.3403  0.1435 -0.0084
 2410DOPC   GL228278  16.007  31.675  12.215 -0.0652 -0.0585 -0.2477
 2410DOPC   C1A28279  15.364  31.859  12.165  0.3240 -0.0258  0.0589
 2410DOPC   D2A28280  15.005  31.988  12.414  0.1408 -0.1782  0.1120
 2410DOPC   C3A28281  15.044  32.307  12.777  0.0339 -0.1020 -0.1998
 2410DOPC   C4A28282  14.976  32.437  13.255 -0.1202 -0.0886  0.0853
 2410DOPC   C1B28283  15.664  31.644  12.481  0.0686  0.0111  0.2770
 2410DOPC   D2B28284  15.413  31.942  12.702  0.0831  0.1220  0.1446
 2410DOPC   C3B28285  15.297  31.976  13.144  0.2852  0.5099  0.0336
 2410DOPC   C4B28286  15.253  32.152  13.546 -0.2917  0.3393  0.2081
 2411DOPC   NC328287  21.481  28.657   9.353 -0.0514 -0.2262  0.5596
 2411DOPC   PO428288  21.362  28.313   9.235 -0.1245 -0.1164  0.0043
 2411DOPC   GL128289  21.235  28.412   9.615  0.0653  0.1157 -0.0481
 2411DOPC   GL228290  21.292  28.239   9.819 -0.2763  0.1120 -0.1017
 2411DOPC   C1A28291  21.299  28.749   9.958  0.0711 -0.0574  0.3909
 2411DOPC   D2A28292  21.521  28.758  10.360  0.0528  0.1454  0.3221
 2411DOPC   C3A28293  21.366  28.882  10.744 -0.1019  0.0433 -0.3955
 2411DOPC   C4A28294  21.501  28.748  11.177 -0.0045  0.0629  0.1407
 2411DOPC   C1B28295  21.263  27.814  10.158 -0.3190  0.3597 -0.0452
 2411DOPC   D2B28296  21.327  27.457  10.421 -0.0827  0.0639  0.1134
 2411DOPC   C3B28297  21.779  27.482  10.518  0.2689 -0.0201 -0.0111
 2411DOPC   C4B28298  22.102  27.330  10.206  0.0685 -0.1669  0.1553
 2412DOPC   NC328299  13.409  23.531   9.525 -0.1202 -0.3195  0.0929
 2412DOPC   PO428300  13.352  23.114   9.566  0.1729  0.3430  0.0635
 2412DOPC   GL128301  13.461  22.936  10.002 -0.2758  0.1822 -0.0110
 2412DOPC   GL228302  13.735  22.856   9.951 -0.1365 -0.2849  0.0661
 2412DOPC   C1A28303  13.564  23.078  10.399 -0.0201 -0.3253  0.2598
 2412DOPC   D2A28304  13.967  22.995  10.647 -0.0102  0.1119  0.0925
 2412DOPC   C3A28305  13.984  22.806  11.052 -0.0721  0.2789 -0.1417
 2412DOPC   C4A28306  13.880  22.360  11.163 -0.0925 -0.0242  0.0068
 2412DOPC   C1B28307  13.548  22.569  10.293  0.0440 -0.0631 -0.2449
 2412DOPC   D2B28308  13.659  22.429  10.708  0.1854  0.0767 -0.1072
 2412DOPC   C3B28309  13.320  22.478  11.002 -0.1286 -0.2238  0.0156
 2412DOPC   C4B28310  13.046  22.616  11.321 -0.0179 -0.1210 -0.0125
 2413POSM   NC328311  20.282   0.477   9.992  0.3782  0.0157  0.4000
 2413POSM   PO428312  20.384   0.883   9.828  0.0919  0.1447  0.1091
 2413POSM   AM128313  20.397   0.893  10.163  0.1281 -0.1494  0.3183
 2413POSM   AM228314  20.295   1.045  10.389  0.0386  0.3202 -0.1358
 2413POSM   T1A28315  20.704   0.687  10.530 -0.0925  0.0884  0.0924
 2413POSM   C2A28316  20.736   0.340  10.833 -0.0202  0.2870 -0.0986
 2413POSM   C3A28317  20.914   0.130  11.214 -0.1520 -0.0467 -0.1690
 2413POSM   C1B28318  20.301   0.889  10.705 -0.1185  0.2085 -0.1738
 2413POSM   D2B28319  20.517   0.717  11.085  0.1161  0.2658 -0.0336
 2413POSM   C3B28320  20.832   0.988  11.377 -0.1008  0.1562 -0.1107
 2413POSM   C4B28321  21.140   1.251  11.631 -0.0149 -0.0608  0.2088
 2414POSM   NC328322  15.324  27.913  10.977  0.4235 -0.1469  0.3355
 2414POSM   PO428323  15.640  28.154  10.823 -0.0856 -0.1055  0.0205
 2414POSM   AM128324  15.768  28.023  11.117 -0.2186 -0.2897 -0.0958
 2414POSM   AM228325  15.697  27.796  11.247 -0.2299 -0.3420  0.1717
 2414POSM   T1A28326  16.058  28.042  11.538 -0.1167  0.1034  0.1147
 2414POSM   C2A28327  16.230  28.301  11.956 -0.0363 -0.3889  0.1427
 2414POSM   C3A28328  16.129  28.296  12.415 -0.1491 -0.1460 -0.1587
 2414POSM   C1B28329  15.766  27.503  11.320  0.0948 -0.1240 -0.4127
 2414POSM   D2B28330  15.811  27.069  11.260  0.2745 -0.2751 -0.1717
 2414POSM   C3B28331  15.839  26.784  11.563 -0.0206  0.0452 -0.4059
 2414POSM   C4B28332  15.852  26.490  11.906 -0.0198  0.0226  0.0161
 2415DOPE   NH328333  18.244  27.051  10.310 -0.1354  0.2206  0.1617
 2415DOPE   PO428334  18.342  26.884  10.084 -0.0433 -0.1628  0.0884
 2415DOPE   GL128335  18.420  26.670  10.407 -0.0427 -0.1907 -0.2003
 2415DOPE   GL228336  18.628  26.491  10.334 -0.1849  0.1012  0.0091
 2415DOPE   C1A28337  18.582  26.415  10.781 -0.0335 -0.2334 -0.2219
 2415DOPE   D2A28338  18.936  26.472  11.109 -0.0553 -0.1806  0.1055
 2415DOPE   C3A28339  18.823  26.209  11.505  0.0856  0.0586  0.0066
 2415DOPE   C4A28340  18.616  25.822  11.670 -0.0670  0.0093  0.1555
 2415DOPE   C1B28341  18.728  26.064  10.517  0.1826 -0.0267  0.4177
 2415DOPE   D2B28342  18.950  25.657  10.453 -0.0635  0.0014  0.2089
 2415DOPE   C3B28343  18.804  25.302  10.680 -0.0251  0.0071 -0.5190
 2415DOPE   C4B28344  18.718  25.015  11.005  0.0328 -0.0581 -0.0872
 2416DOPS   CNO28345  23.373  27.810   8.772  0.0941 -0.1775 -0.0583
 2416DOPS   PO428346  23.324  28.141   8.674  0.2238  0.0030  0.0356
 2416DOPS   GL128347  23.469  28.422   8.908 -0.1863  0.2396 -0.1283
 2416DOPS   GL228348  23.562  28.240   9.105 -0.0350 -0.1143  0.2634
 2416DOPS   C1A28349  23.496  28.728   9.288  0.0162 -0.0832  0.0032
 2416DOPS   D2A28350  23.671  28.515   9.662  0.0286 -0.2588  0.3089
 2416DOPS   C3A28351  23.766  28.590  10.068  0.1659 -0.0117  0.0755
 2416DOPS   C4A28352  23.736  28.469  10.490  0.2763 -0.0612  0.1648
 2416DOPS   C1B28353  23.858  28.155   9.427 -0.1932 -0.0735  0.0190
 2416DOPS   D2B28354  24.183  28.296   9.766  0.0439 -0.2113 -0.0143
 2416DOPS   C3B28355  24.382  27.930   9.988 -0.2982 -0.0277 -0.3566
 2416DOPS   C4B28356  24.813  27.674   9.999  0.1476 -0.1822  0.0163
 2417DOPE   NH328357  22.057   1.019  10.102  0.0107  0.0333 -0.1657
 2417DOPE   PO428358  22.373   1.037  10.206  0.1245  0.3708  0.2549
 2417DOPE   GL128359  22.397   0.797  10.538 -0.3556 -0.0040 -0.0190
 2417DOPE   GL228360  22.459   0.584  10.342  0.1226 -0.2535 -0.1412
 2417DOPE   C1A28361  22.500   0.792  10.968  0.1598 -0.1014 -0.1042
 2417DOPE   D2A28362  22.475   0.597  11.362 -0.2411 -0.0575 -0.0103
 2417DOPE   C3A28363  22.181   0.291  11.530  0.0288 -0.0060 -0.0035
 2417DOPE   C4A28364  21.853   0.166  11.854 -0.1337 -0.4503  0.0229
 2417DOPE   C1B28365  22.801   0.413  10.627  0.0875 -0.0439  0.1082
 2417DOPE   D2B28366  22.913   0.446  11.118 -0.0987 -0.1827  0.1331
 2417DOPE   C3B28367  23.206   0.113  11.294 -0.0364 -0.0167 -0.1846
 2417DOPE   C4B28368  23.453  -0.191  11.541  0.0466  0.1681  0.3076
 2418DOPC   NC328369  12.317  28.986  11.794 -0.0080 -0.1359 -0.3232
 2418DOPC   PO428370  12.043  28.782  11.949 -0.0775 -0.2412 -0.0933
 2418DOPC   GL128371  12.062  28.941  12.293 -0.2481  0.2739  0.2973
 2418DOPC   GL228372  12.019  29.206  12.247 -0.2263  0.0546  0.0428
 2418DOPC   C1A28373  12.317  28.694  12.606 -0.2067  0.2074  0.1410
 2418DOPC   D2A28374  12.626  28.454  12.883  0.2158 -0.0478  0.2237
 2418DOPC   C3A28375  12.543  28.178  13.241  0.0287 -0.1589 -0.1190
 2418DOPC   C4A28376  12.402  27.923  13.570  0.0239  0.3742  0.3347
 2418DOPC   C1B28377  12.422  29.141  12.531 -0.2134  0.1026  0.0334
 2418DOPC   D2B28378  12.787  28.933  12.767 -0.1013  0.0511  0.0584
 2418DOPC   C3B28379  12.996  29.153  13.113  0.2425 -0.1101 -0.0154
 2418DOPC   C4B28380  13.310  29.504  13.239 -0.0607 -0.0518 -0.2137
 2419DOPC   NC328381  15.626  29.258  10.993  0.2540 -0.2606 -0.0931
 2419DOPC   PO428382  15.391  29.586  11.011  0.3364 -0.2606 -0.1328
 2419DOPC   GL128383  15.409  29.740  11.436  0.2067 -0.0705  0.1446
 2419DOPC   GL228384  15.603  29.818  11.577 -0.2069  0.1001  0.2623
 2419DOPC   C1A28385  15.274  29.578  11.890  0.5874  0.0511 -0.3051
 2419DOPC   D2A28386  15.110  29.633  12.284 -0.0969  0.0893  0.2895
 2419DOPC   C3A28387  15.013  29.255  12.513 -0.1059 -0.1522  0.1407
 2419DOPC   C4A28388  14.725  28.961  12.803  0.1818  0.1044  0.0373
 2419DOPC   C1B28389  15.809  29.682  11.985  0.0823 -0.1456  0.0697
 2419DOPC   D2B28390  15.614  29.468  12.306 -0.0075  0.1363 -0.3126
 2419DOPC   C3B28391  15.851  29.671  12.647 -0.0761  0.1817 -0.0106
 2419DOPC   C4B28392  16.212  29.837  12.771 -0.0870 -0.2528 -0.2188
 2420POSM   NC328393  22.204  28.111   9.405 -0.1464 -0.1822 -0.1790
 2420POSM   PO428394  21.914  28.190   9.163 -0.1139  0.0275 -0.2357
 2420POSM   AM128395  21.859  28.385   9.411  0.2841  0.2165  0.1315
 2420POSM   AM228396  21.755  28.256   9.687  0.0087 -0.1665  0.0925
 2420POSM   T1A28397  21.776  28.749   9.763  0.2763  0.2433 -0.1815
 2420POSM   C2A28398  21.751  29.081  10.070  0.2881  0.3141 -0.2227
 2420POSM   C3A28399  21.647  29.214  10.451 -0.0061  0.2442  0.0609
 2420POSM   C1B28400  21.745  28.303  10.034 -0.0410 -0.1898  0.0222
 2420POSM   D2B28401  21.951  28.354  10.400 -0.1459 -0.2424  0.1881
 2420POSM   C3B28402  22.099  28.781  10.288 -0.0229 -0.1738 -0.0306
 2420POSM   C4B28403  22.173  29.171  10.505  0.0902  0.0452  0.0705
 2421POSM   NC328404  12.183   0.426  12.773 -0.1126  0.0936 -0.0408
 2421POSM   PO428405  12.144   0.792  12.832  0.0476  0.2691  0.2100
 2421POSM   AM128406  12.241   0.909  13.094 -0.3282  0.0158  0.1072
 2421POSM   AM228407  12.378   0.839  13.302 -0.0474  0.3768 -0.1244
 2421POSM   T1A28408  12.516   1.333  13.183  0.1767  0.3515 -0.0825
 2421POSM   C2A28409  12.404   1.800  13.317 -0.0026  0.0621 -0.0923
 2421POSM   C3A28410  12.287   2.004  13.707  0.0665 -0.1931  0.2862
 2421POSM   C1B28411  12.411   1.057  13.606 -0.1621 -0.1681 -0.0655
 2421POSM   D2B28412  12.534   0.924  14.025 -0.0251  0.0120 -0.1569
 2421POSM   C3B28413  12.663   0.466  14.074  0.1467  0.0732  0.1884
 2421POSM   C4B28414  12.752   0.040  14.114  0.1443  0.1455  0.1209
 2422DOPS   CNO28415  20.114  24.462   8.963  0.2678 -0.3891 -0.3149
 2422DOPS   PO428416  20.409  24.713   8.932  0.2182  0.0609  0.2188
 2422DOPS   GL128417  20.348  24.796   9.273  0.6690  0.2915 -0.1945
 2422DOPS   GL228418  20.164  24.678   9.492 -0.1577 -0.2382  0.2582
 2422DOPS   C1A28419  20.601  24.971   9.624 -0.1061 -0.2362  0.0223
 2422DOPS   D2A28420  20.574  25.000  10.111  0.0227 -0.4920  0.1059
 2422DOPS   C3A28421  20.857  24.920  10.438  0.0408 -0.1747  0.0470
 2422DOPS   C4A28422  20.804  24.584  10.720  0.0014 -0.1386 -0.1486
 2422DOPS   C1B28423  20.234  24.555   9.949  0.1808 -0.0713  0.2295
 2422DOPS   D2B28424  20.469  24.586  10.297  0.0160 -0.4525 -0.0502
 2422DOPS   C3B28425  20.367  24.406  10.734  0.0263  0.0614  0.1690
 2422DOPS   C4B28426  20.563  24.163  11.040  0.0858  0.3322  0.0299
 2423POSM   NC328427  14.580  25.183   9.770  0.0294  0.1996  0.0137
 2423POSM   PO428428  14.211  25.086   9.951  0.1871 -0.0400 -0.0747
 2423POSM   AM128429  14.323  24.904  10.228  0.1231 -0.2981 -0.3065
 2423POSM   AM228430  14.540  24.730  10.298 -0.3255  0.2233  0.3876
 2423POSM   T1A28431  14.298  24.776  10.699  0.0730  0.1047  0.0655
 2423POSM   C2A28432  14.165  25.059  11.036  0.2071 -0.1318 -0.0079
 2423POSM   C3A28433  13.847  25.355  11.229  0.3663  0.1195 -0.4480
 2423POSM   C1B28434  14.670  24.555  10.508 -0.0622 -0.3103 -0.3540
 2423POSM   D2B28435  15.026  24.353  10.777  0.0090  0.2610 -0.3846
 2423POSM   C3B28436  15.047  23.927  10.933  0.2294  0.2829  0.1253
 2423POSM   C4B28437  15.409  23.620  11.064 -0.1415 -0.1685 -0.0126
 2424DOPE   NH328438  17.001  30.600  10.788  0.2722 -0.3649 -0.0128
 2424DOPE   PO428439  17.108  30.339  10.970  0.0871  0.1345  0.1602
 2424DOPE   GL128440  17.354  30.538  11.218  0.0659 -0.1790  0.0820
 2424DOPE   GL228441  17.648  30.534  11.298  0.1396  0.0097 -0.1466
 2424DOPE   C1A28442  17.345  30.764  11.666  0.1105  0.0511 -0.0518
 2424DOPE   D2A28443  17.522  30.901  12.062 -0.0297  0.1756 -0.2110
 2424DOPE   C3A28444  17.213  30.876  12.406 -0.0434  0.0258  0.0471
 2424DOPE   C4A28445  17.009  30.517  12.605 -0.0330 -0.0237  0.3031
 2424DOPE   C1B28446  17.592  30.373  11.726  0.1454  0.3059  0.1453
 2424DOPE   D2B28447  17.784  30.044  12.025 -0.0882  0.1265  0.0558
 2424DOPE   C3B28448  17.907  30.149  12.457 -0.1510  0.0178  0.2082
 2424DOPE   C4B28449  18.128  30.558  12.556  0.1705  0.0596  0.0696
 2425DOPE   NH328450  13.858  25.309  10.225 -0.0642  0.2701  0.0110
 2425DOPE   PO428451  13.611  25.312  10.431 -0.0571 -0.3681 -0.1991
 2425DOPE   GL128452  13.579  25.314  10.789 -0.0208  0.0256  0.2481
 2425DOPE   GL228453  13.481  25.068  10.972 -0.1668  0.2042 -0.2248
 2425DOPE   C1A28454  13.290  25.524  11.145 -0.2037 -0.1603  0.1854
 2425DOPE   D2A28455  13.289  25.815  11.506 -0.3809 -0.1679  0.0641
 2425DOPE   C3A28456  13.548  26.022  11.819  0.0173 -0.1733  0.0310
 2425DOPE   C4A28457  13.694  26.213  12.169  0.1803  0.0265  0.2224
 2425DOPE   C1B28458  13.300  24.659  11.168 -0.1226  0.1097 -0.0908
 2425DOPE   D2B28459  13.315  24.137  11.242  0.3528 -0.3953  0.2180
 2425DOPE   C3B28460  13.186  24.062  11.691  0.2794 -0.1631 -0.3065
 2425DOPE   C4B28461  12.947  23.999  12.087  0.2274 -0.1147  0.0306
 2426DOPE   NH328462  12.933  24.834  10.325 -0.1173 -0.0797 -0.1320
 2426DOPE   PO428463  12.870  24.693  10.601 -0.1155 -0.2143  0.1163
 2426DOPE   GL128464  12.938  24.305  10.542  0.2682  0.2848  0.0345
 2426DOPE   GL228465  12.917  24.222  10.854 -0.0571 -0.4146  0.1786
 2426DOPE   C1A28466  12.771  23.838  10.603 -0.5446  0.1219 -0.0662
 2426DOPE   D2A28467  12.813  23.413  10.794 -0.0284  0.3095 -0.1490
 2426DOPE   C3A28468  13.201  23.223  10.776 -0.0687 -0.1062  0.2137
 2426DOPE   C4A28469  13.480  22.926  10.915 -0.1201  0.1189 -0.4595
 2426DOPE   C1B28470  12.825  24.440  11.269  0.1896 -0.1948 -0.2652
 2426DOPE   D2B28471  13.009  24.608  11.648  0.0278  0.3515  0.0935
 2426DOPE   C3B28472  12.766  24.710  12.065 -0.3857 -0.1555  0.1587
 2426DOPE   C4B28473  12.544  25.035  12.281 -0.3810 -0.2492  0.1657
 2427DOPS   CNO28474  15.940  25.873   9.879 -0.0412  0.0364  0.3374
 2427DOPS   PO428475  15.744  26.115  10.063 -0.5883  0.2165  0.3984
 2427DOPS   GL128476  15.861  26.004  10.404  0.2475 -0.1764 -0.2355
 2427DOPS   GL228477  16.014  25.819  10.454  0.2919 -0.1366  0.0420
 2427DOPS   C1A28478  15.580  26.012  10.804  0.1132 -0.0121 -0.0218
 2427DOPS   D2A28479  15.644  26.040  11.237 -0.0787  0.1760 -0.2159
 2427DOPS   C3A28480  15.271  26.250  11.425 -0.0281  0.1578  0.3689
 2427DOPS   C4A28481  15.164  26.151  11.880  0.1147 -0.5192 -0.3573
 2427DOPS   C1B28482  16.431  26.014  10.538 -0.2285 -0.2017  0.3481
 2427DOPS   D2B28483  16.847  26.143  10.593 -0.2494  0.3116  0.0309
 2427DOPS   C3B28484  17.147  25.937  10.889  0.1997  0.0963  0.4644
 2427DOPS   C4B28485  17.411  25.977  11.289  0.0285  0.2741 -0.0791
 2428POSM   NC328486  19.749  25.328   8.716  0.0438  0.3064 -0.3482
 2428POSM   PO428487  19.565  25.283   9.051  0.1465 -0.2166  0.3939
 2428POSM   AM128488  19.506  25.194   9.329  0.5102 -0.1497 -0.1413
 2428POSM   AM228489  19.562  25.338   9.582 -0.2016 -0.1530 -0.0160
 2428POSM   T1A28490  19.116  25.151   9.649  0.3427  0.1788 -0.2041
 2428POSM   C2A28491  18.977  25.198  10.108 -0.2412 -0.1368 -0.0041
 2428POSM   C3A28492  18.717  24.875  10.360  0.1573 -0.2363  0.0241
 2428POSM   C1B28493  19.542  25.232   9.913  0.0580 -0.1913 -0.1257
 2428POSM   D2B28494  19.623  25.014  10.300 -0.2227  0.0187  0.2679
 2428POSM   C3B28495  20.029  24.828  10.317 -0.1202  0.0392 -0.1649
 2428POSM   C4B28496  20.407  25.006  10.592 -0.0519 -0.0776  0.0019
 2429POSM   NC328497  22.692  32.693  10.059  0.0296  0.0004  0.1946
 2429POSM   PO428498  22.483  32.903   9.800 -0.0858 -0.3325  0.2341
 2429POSM   AM128499  22.365  33.011  10.067  0.0482  0.2110 -0.1898
 2429POSM   AM228500  22.463  33.093  10.287  0.0179 -0.2888  0.0115
 2429POSM   T1A28501  21.965  33.125  10.359 -0.3249 -0.0568 -0.0106
 2429POSM   C2A28502  21.769  33.296  10.685 -0.0785  0.0064  0.1132
 2429POSM   C3A28503  21.699  33.728  10.834 -0.1424  0.0742 -0.1254
 2429POSM   C1B28504  22.522  32.852  10.531 -0.0869  0.0584 -0.0796
 2429POSM   D2B28505  22.708  32.675  10.926 -0.0910  0.0552  0.0934
 2429POSM   C3B28506  22.816  32.760  11.339 -0.1214 -0.1070 -0.0576
 2429POSM   C4B28507  23.088  32.652  11.660  0.0755  0.1043  0.1697
 2430DOPE   NH328508  19.861  26.160   9.155 -0.0705  0.0475  0.1829
 2430DOPE   PO428509  20.102  26.050   9.318  0.0814 -0.0840 -0.1505
 2430DOPE   GL128510  20.141  25.874   9.649 -0.1145 -0.0812 -0.1300
 2430DOPE   GL228511  20.079  26.039   9.916  0.2487 -0.3126  0.1211
 2430DOPE   C1A28512  20.371  25.605   9.949 -0.3769 -0.0574 -0.0396
 2430DOPE   D2A28513  20.225  25.328  10.300  0.0272 -0.1349  0.2853
 2430DOPE   C3A28514  20.328  25.663  10.557 -0.1200  0.1989 -0.0033
 2430DOPE   C4A28515  20.074  25.927  10.865  0.0055  0.0172 -0.0587
 2430DOPE   C1B28516  19.987  25.829  10.258 -0.1123 -0.0705 -0.0256
 2430DOPE   D2B28517  19.775  25.575  10.635 -0.0248  0.2487 -0.1619
 2430DOPE   C3B28518  19.962  25.169  10.760 -0.1817  0.1660  0.1423
 2430DOPE   C4B28519  20.057  24.824  10.903 -0.3465 -0.0932 -0.0103
 2431DOPS   CNO28520  12.408   0.263  12.311 -0.1412  0.2114 -0.1155
 2431DOPS   PO428521  12.680   0.118  12.477  0.2811 -0.1317  0.2001
 2431DOPS   GL128522  12.815   0.141  12.864  0.2325 -0.0842 -0.0463
 2431DOPS   GL228523  12.695  -0.120  12.984  0.2999 -0.1171 -0.1384
 2431DOPS   C1A28524  12.643   0.430  13.224 -0.2359  0.1411 -0.3222
 2431DOPS   D2A28525  12.386   0.486  13.628 -0.0446  0.3732  0.1125
 2431DOPS   C3A28526  12.249   0.215  13.980 -0.1340 -0.0751 -0.0560
 2431DOPS   C4A28527  11.869   0.181  14.156 -0.0954  0.0121 -0.0021
 2431DOPS   C1B28528  13.153  -0.074  13.154  0.1837 -0.2364  0.1810
 2431DOPS   D2B28529  13.542  -0.305  13.200 -0.2674  0.0875 -0.0183
 2431DOPS   C3B28530  13.695  -0.356  13.665  0.1209  0.1260 -0.0485
 2431DOPS   C4B28531  14.108  -0.179  13.885 -0.0427  0.0226  0.1749
 2432DOPE   NH328532  15.180  32.218  11.372 -0.2265 -0.1959 -0.0121
 2432DOPE   PO428533  15.419  32.462  11.458  0.1179  0.1743  0.1442
 2432DOPE   GL128534  15.494  32.411  11.895 -0.0304 -0.1162 -0.1404
 2432DOPE   GL228535  15.729  32.249  12.014  0.0758  0.0932 -0.2088
 2432DOPE   C1A28536  15.337  32.343  12.328 -0.1060 -0.0593 -0.2711
 2432DOPE   D2A28537  15.478  32.436  12.767 -0.0434 -0.2407 -0.0390
 2432DOPE   C3A28538  15.823  32.303  13.002  0.3112  0.0609 -0.0838
 2432DOPE   C4A28539  16.145  32.123  13.261 -0.0924 -0.0826 -0.0320
 2432DOPE   C1B28540  15.828  32.186  12.440 -0.0692 -0.3009 -0.2692
 2432DOPE   D2B28541  16.064  31.916  12.687 -0.0346 -0.1782  0.0177
 2432DOPE   C3B28542  16.470  31.814  12.838  0.1838 -0.2874 -0.0837
 2432DOPE   C4B28543  16.770  31.551  12.871 -0.0485 -0.1069  0.2025
 2433POSM   NC328544  13.109  25.215  10.581 -0.0314  0.2595 -0.0241
 2433POSM   PO428545  12.856  25.530  10.682  0.1367 -0.5194 -0.0907
 2433POSM   AM128546  12.858  25.563  11.005 -0.1408 -0.2089 -0.0737
 2433POSM   AM228547  12.656  25.509  11.187 -0.1723  0.0544 -0.4296
 2433POSM   T1A28548  12.808  25.968  11.323  0.0468  0.1285 -0.2902
 2433POSM   C2A28549  13.080  26.293  11.561 -0.1255  0.1180  0.0294
 2433POSM   C3A28550  13.273  26.551  11.901  0.1867 -0.2492  0.3812
 2433POSM   C1B28551  12.710  25.386  11.493 -0.1861 -0.0134 -0.0345
 2433POSM   D2B28552  12.893  25.085  11.749 -0.0811 -0.1642 -0.1405
 2433POSM   C3B28553  13.141  25.357  11.974 -0.1295  0.3002 -0.1668
 2433POSM   C4B28554  13.118  25.633  12.361  0.0168  0.1856  0.0751
 2434POSM   NC328555  12.934  34.275  12.280 -0.0031 -0.1711  0.5169
 2434POSM   PO428556  13.240  34.107  12.058 -0.3601  0.0674 -0.1474
 2434POSM   AM128557  13.384  34.009  12.376 -0.0615  0.0763 -0.6290
 2434POSM   AM228558  13.559  34.153  12.528  0.0570 -0.0662  0.1516
 2434POSM   T1A28559  13.486  33.714  12.771  0.1680  0.1241 -0.3642
 2434POSM   C2A28560  13.839  33.810  13.075  0.0939 -0.1581 -0.2631
 2434POSM   C3A28561  14.053  34.060  13.374  0.0222  0.2892  0.1693
 2434POSM   C1B28562  13.460  34.365  12.737 -0.1872  0.1108  0.2687
 2434POSM   D2B28563  13.598  34.675  13.028  0.1243 -0.2184 -0.0956
 2434POSM   C3B28564  13.250  34.880  13.192  0.2938  0.2872 -0.0430
 2434POSM   C4B28565  13.155  35.198  13.533 -0.2341 -0.2557 -0.0977
 2435DOPC   NC328566  13.383  31.115  11.636 -0.2212 -0.1402 -0.1531
 2435DOPC   PO428567  13.614  31.389  11.523 -0.1432  0.0833 -0.0546
 2435DOPC   GL128568  13.650  31.372  11.949 -0.1235 -0.0844  0.1181
 2435DOPC   GL228569  13.664  31.595  12.154 -0.2544 -0.5154 -0.0157
 2435DOPC   C1A28570  13.465  31.072  12.243  0.0926  0.1742  0.2267
 2435DOPC   D2A28571  13.550  31.106  12.745 -0.0980 -0.2059 -0.0154
 2435DOPC   C3A28572  13.264  30.831  12.973 -0.1565 -0.0237 -0.2313
 2435DOPC   C4A28573  13.259  30.437  13.234  0.3265  0.0149 -0.1225
 2435DOPC   C1B28574  13.899  31.517  12.548 -0.0999  0.3176  0.0870
 2435DOPC   D2B28575  13.862  31.414  13.068 -0.1053 -0.3571  0.2082
 2435DOPC   C3B28576  14.331  31.315  13.256 -0.0522  0.1166  0.1177
 2435DOPC   C4B28577  14.649  31.628  13.434  0.1771  0.0644 -0.3488
 2436POSM   NC328578  12.238  31.327  12.025 -0.0187 -0.2311 -0.1044
 2436POSM   PO428579  11.922  31.499  12.156 -0.1975 -0.2310 -0.1104
 2436POSM   AM128580  11.933  31.375  12.499 -0.0195  0.0676 -0.1861
 2436POSM   AM228581  11.675  31.439  12.707  0.1605  0.0426 -0.2996
 2436POSM   T1A28582  12.056  31.466  13.010  0.0203  0.1780 -0.2371
 2436POSM   C2A28583  12.061  31.730  13.355 -0.2372  0.3366 -0.1627
 2436POSM   C3A28584  12.101  32.128  13.641  0.0526  0.0048  0.1331
 2436POSM   C1B28585  11.558  31.619  12.996 -0.0536 -0.0454  0.0368
 2436POSM   D2B28586  11.548  32.004  13.252 -0.0547 -0.0534  0.1401
 2436POSM   C3B28587  11.621  31.781  13.627 -0.0900 -0.1883  0.1487
 2436POSM   C4B28588  11.366  31.415  13.819  0.0112 -0.1860  0.0368
 2437DOPE   NH328589  17.311  27.308  10.332 -0.0827 -0.2795 -0.2797
 2437DOPE   PO428590  17.108  27.261  10.576 -0.0773  0.0221 -0.1770
 2437DOPE   GL128591  17.063  27.196  10.939 -0.0834 -0.2503  0.0851
 2437DOPE   GL228592  17.253  26.981  11.058  0.0406 -0.1616 -0.0446
 2437DOPE   C1A28593  16.730  26.956  11.110 -0.1369 -0.2976  0.1724
 2437DOPE   D2A28594  16.332  26.888  11.404 -0.2515 -0.2006  0.1517
 2437DOPE   C3A28595  16.154  27.242  11.673  0.2589 -0.0823 -0.1173
 2437DOPE   C4A28596  15.847  27.530  11.850  0.0399 -0.4494 -0.3605
 2437DOPE   C1B28597  17.025  26.940  11.493 -0.0796  0.3843  0.3115
 2437DOPE   D2B28598  17.131  26.570  11.780  0.2501 -0.0051 -0.0095
 2437DOPE   C3B28599  17.161  26.124  11.758  0.0289 -0.2329 -0.1253
 2437DOPE   C4B28600  17.323  25.666  11.683  0.4927 -0.0862  0.0764
 2438DOPS   CNO28601  15.757  31.213  10.849 -0.1094  0.2410 -0.2738
 2438DOPS   PO428602  15.880  31.200  11.184  0.2384 -0.0654 -0.0412
 2438DOPS   GL128603  15.700  31.097  11.541 -0.1530 -0.2424  0.0452
 2438DOPS   GL228604  15.486  31.036  11.655 -0.0424 -0.0944 -0.3744
 2438DOPS   C1A28605  15.831  30.873  11.928  0.0836  0.3737 -0.0007
 2438DOPS   D2A28606  15.684  30.496  12.150 -0.2407 -0.3338 -0.2243
 2438DOPS   C3A28607  16.126  30.644  12.342 -0.1268  0.0306  0.1157
 2438DOPS   C4A28608  16.299  30.939  12.643  0.0640  0.0557  0.2512
 2438DOPS   C1B28609  15.405  31.041  12.136  0.0839  0.0155 -0.4862
 2438DOPS   D2B28610  15.236  31.019  12.564  0.1837 -0.2059  0.1697
 2438DOPS   C3B28611  15.270  30.834  12.978  0.0185 -0.1241  0.0308
 2438DOPS   C4B28612  15.341  30.503  13.242 -0.0784 -0.2565 -0.3211
 2439DOPC   NC328613  15.534  31.518  11.410  0.0697 -0.4272 -0.2232
 2439DOPC   PO428614  15.179  31.675  11.353 -0.0614  0.1234  0.0372
 2439DOPC   GL128615  15.250  31.462  11.737 -0.2778  0.0802  0.3272
 2439DOPC   GL228616  15.054  31.431  12.003 -0.0625 -0.1922  0.0127
 2439DOPC   C1A28617  15.667  31.429  11.980 -0.3019  0.1498 -0.2297
 2439DOPC   D2A28618  15.993  31.196  12.266  0.0857 -0.0014  0.0229
 2439DOPC   C3A28619  15.761  31.008  12.602 -0.3060  0.1400  0.0547
 2439DOPC   C4A28620  15.726  30.719  12.984 -0.0379  0.0519 -0.0592
 2439DOPC   C1B28621  14.972  31.498  12.475 -0.0967 -0.1118  0.1675
 2439DOPC   D2B28622  15.305  31.460  12.871 -0.0328  0.0258  0.2050
 2439DOPC   C3B28623  15.679  31.224  13.074 -0.1283 -0.1388  0.0637
 2439DOPC   C4B28624  15.785  30.923  13.403 -0.0744 -0.0790  0.0996
 2440DOPC   NC328625  20.944   2.115  10.580 -0.5551 -0.0584 -0.2579
 2440DOPC   PO428626  20.861   2.026  10.197  0.0758 -0.4133  0.1611
 2440DOPC   GL128627  20.553   1.988  10.406 -0.0310 -0.5022  0.0533
 2440DOPC   GL228628  20.412   2.244  10.427  0.0149 -0.1006  0.0792
 2440DOPC   C1A28629  20.572   1.871  10.886 -0.1005  0.2317 -0.1402
 2440DOPC   D2A28630  20.820   2.041  11.200  0.2138  0.3528 -0.1645
 2440DOPC   C3A28631  20.873   2.456  11.383 -0.0292 -0.1883 -0.1084
 2440DOPC   C4A28632  21.057   2.631  11.692  0.0267 -0.2955 -0.1000
 2440DOPC   C1B28633  20.118   2.189  10.870 -0.0520  0.1304  0.0285
 2440DOPC   D2B28634  19.820   2.351  11.130 -0.1381  0.0785 -0.1761
 2440DOPC   C3B28635  19.920   2.431  11.607 -0.2034 -0.1638  0.5542
 2440DOPC   C4B28636  20.074   2.200  11.950  0.0241  0.0547  0.0890
 2441DOPC   NC328637  15.164  27.217  10.539 -0.0433 -0.0957 -0.0701
 2441DOPC   PO428638  15.381  27.389  10.832  0.0042 -0.2619  0.1530
 2441DOPC   GL128639  15.320  27.434  11.170 -0.0427  0.0278 -0.0539
 2441DOPC   GL228640  15.127  27.273  11.312 -0.1568 -0.2443  0.3135
 2441DOPC   C1A28641  15.105  27.757  11.448 -0.1825  0.1148  0.1789
 2441DOPC   D2A28642  14.769  27.649  11.802  0.1296 -0.0591  0.0207
 2441DOPC   C3A28643  14.585  27.296  12.095  0.0401  0.0153  0.1602
 2441DOPC   C4A28644  14.671  26.930  12.337 -0.2691  0.0457 -0.3595
 2441DOPC   C1B28645  15.456  27.175  11.666 -0.1492  0.0982 -0.0688
 2441DOPC   D2B28646  15.792  27.059  11.974  0.0765 -0.0508 -0.1037
 2441DOPC   C3B28647  16.201  26.842  11.899  0.0555 -0.1997  0.2246
 2441DOPC   C4B28648  16.693  26.800  11.853 -0.1829 -0.0837  0.1922
 2442DOPS   CNO28649  16.354  32.631  11.125  0.0262  0.3316 -0.1747
 2442DOPS   PO428650  16.056  32.873  11.095  0.0627 -0.0863 -0.1243
 2442DOPS   GL128651  16.180  32.889  11.507  0.3794  0.0769 -0.1114
 2442DOPS   GL228652  16.477  32.903  11.540 -0.1701  0.2510 -0.2083
 2442DOPS   C1A28653  16.236  32.953  11.958 -0.1747 -0.1014 -0.2567
 2442DOPS   D2A28654  16.527  32.757  12.289 -0.2575  0.4050 -0.1592
 2442DOPS   C3A28655  16.982  32.975  12.484  0.0377  0.3476  0.0869
 2442DOPS   C4A28656  17.394  32.953  12.245 -0.0514 -0.1991  0.1213
 2442DOPS   C1B28657  16.873  32.817  11.774 -0.1194  0.1668 -0.0833
 2442DOPS   D2B28658  17.025  32.599  12.115  0.1825 -0.2698 -0.2781
 2442DOPS   C3B28659  17.228  32.547  12.528  0.0261 -0.0615  0.0783
 2442DOPS   C4B28660  17.213  32.449  12.960  0.0504  0.2737  0.0331
 2443POSM   NC328661  14.402  24.652   9.769  0.2887  0.0395  0.1961
 2443POSM   PO428662  14.601  24.324   9.894 -0.0759  0.1559 -0.0702
 2443POSM   AM128663  14.384  24.239  10.215  0.0530  0.2427  0.0653
 2443POSM   AM228664  14.418  24.098  10.439  0.0697 -0.0576  0.0866
 2443POSM   T1A28665  14.003  24.344  10.524 -0.0794 -0.2337  0.0859
 2443POSM   C2A28666  13.736  24.574  10.842  0.1804  0.2765 -0.2078
 2443POSM   C3A28667  13.775  24.810  11.273  0.2440 -0.0656  0.0166
 2443POSM   C1B28668  14.518  24.196  10.747 -0.1384 -0.3070 -0.0179
 2443POSM   D2B28669  14.722  24.291  11.157  0.2839 -0.2540  0.0994
 2443POSM   C3B28670  15.137  24.249  11.366 -0.0339 -0.1459  0.0498
 2443POSM   C4B28671  15.544  24.386  11.441  0.0043 -0.1438 -0.2943
 2444POSM   NC328672  17.994   0.467  10.966 -0.0837 -0.5527 -0.0826
 2444POSM   PO428673  17.734   0.763  11.083  0.3476 -0.0193 -0.1436
 2444POSM   AM128674  17.819   0.626  11.381 -0.0043  0.3097  0.0668
 2444POSM   AM228675  18.057   0.478  11.472  0.0938 -0.3322  0.1394
 2444POSM   T1A28676  17.719   0.608  11.874 -0.1153 -0.1171  0.2036
 2444POSM   C2A28677  17.604   0.537  12.311  0.1901 -0.3671  0.1612
 2444POSM   C3A28678  17.181   0.394  12.378  0.1394 -0.1475  0.1413
 2444POSM   C1B28679  18.150   0.222  11.675 -0.5483  0.1035 -0.0848
 2444POSM   D2B28680  18.378  -0.042  12.027  0.1076  0.0560 -0.1435
 2444POSM   C3B28681  18.769  -0.106  12.213  0.0158 -0.0964  0.1026
 2444POSM   C4B28682  18.894  -0.242  12.655 -0.0045  0.3164 -0.0466
 2445DOPE   NH328683  12.290  27.662  11.207 -0.1486  0.0438  0.2974
 2445DOPE   PO428684  12.521  27.840  11.013 -0.0019  0.1445 -0.1827
 2445DOPE   GL128685  12.734  27.961  11.352  0.5544 -0.2495 -0.2578
 2445DOPE   GL228686  12.967  27.761  11.395 -0.1824  0.0311  0.1414
 2445DOPE   C1A28687  12.768  27.954  11.836  0.0951  0.1749 -0.1431
 2445DOPE   D2A28688  12.540  27.796  12.209 -0.0792  0.0064 -0.2403
 2445DOPE   C3A28689  12.700  27.948  12.634 -0.0078  0.3418  0.1914
 2445DOPE   C4A28690  13.039  28.134  12.922  0.0930 -0.0602  0.3117
 2445DOPE   C1B28691  13.035  27.341  11.605 -0.1520 -0.1036 -0.0128
 2445DOPE   D2B28692  13.306  27.132  11.899  0.1187 -0.1701  0.0556
 2445DOPE   C3B28693  13.333  27.255  12.365 -0.0831  0.0864  0.1325
 2445DOPE   C4B28694  13.059  27.640  12.552  0.1131  0.2209 -0.0468
 2446DOPC   NC328695  15.938  23.912   9.688 -0.2790 -0.0844 -0.0795
 2446DOPC   PO428696  15.854  23.589   9.507  0.4156 -0.1680  0.2003
 2446DOPC   GL128697  15.907  23.235   9.658 -0.0807 -0.2355  0.0433
 2446DOPC   GL228698  15.983  23.353   9.889  0.1272  0.4592 -0.0452
 2446DOPC   C1A28699  15.924  22.831   9.946  0.2511  0.0486  0.0121
 2446DOPC   D2A28700  16.176  22.466   9.991  0.0196 -0.0376 -0.0986
 2446DOPC   C3A28701  16.434  22.066   9.902  0.1731  0.2499  0.1414
 2446DOPC   C4A28702  16.604  21.799   9.525 -0.6328  0.2696  0.0772
 2446DOPC   C1B28703  16.069  23.233  10.265 -0.3451  0.0591 -0.0956
 2446DOPC   D2B28704  16.298  22.940  10.489 -0.0245 -0.1043 -0.1018
 2446DOPC   C3B28705  16.684  23.055  10.634  0.0364 -0.1113 -0.0968
 2446DOPC   C4B28706  17.091  23.223  10.766 -0.0875 -0.4276 -0.0197
 2447POSM   NC328707  21.072  27.483   9.027  0.1215 -0.2436  0.1190
 2447POSM   PO428708  21.233  27.449   9.382  0.3519  0.0054 -0.1978
 2447POSM   AM128709  21.426  27.389   9.622  0.0559 -0.0290  0.2687
 2447POSM   AM228710  21.476  27.263   9.845  0.0596  0.1604  0.0864
 2447POSM   T1A28711  21.835  27.631   9.811 -0.0581 -0.4534  0.0380
 2447POSM   C2A28712  22.117  27.997   9.916  0.0725 -0.2839  0.1849
 2447POSM   C3A28713  22.259  28.429   9.843  0.2611 -0.1204  0.1890
 2447POSM   C1B28714  21.620  27.095  10.156 -0.5002 -0.3074 -0.0234
 2447POSM   D2B28715  21.648  26.921  10.566  0.1011 -0.3342  0.1185
 2447POSM   C3B28716  21.368  27.138  10.829  0.0245  0.0545 -0.0069
 2447POSM   C4B28717  21.108  27.537  10.902 -0.0100  0.2893 -0.3632
 2448POSM   NC328718  18.377  30.452   9.816  0.2559 -0.2241 -0.3776
 2448POSM   PO428719  18.176  30.545  10.165 -0.0292 -0.0566  0.1664
 2448POSM   AM128720  18.281  30.389  10.449 -0.1298  0.3108  0.2413
 2448POSM   AM228721  18.483  30.313  10.616  0.2132  0.2473  0.1355
 2448POSM   T1A28722  18.124  30.081  10.840 -0.1061  0.1802 -0.2257
 2448POSM   C2A28723  18.012  30.226  11.285 -0.2054  0.1943 -0.1960
 2448POSM   C3A28724  18.090  30.334  11.746  0.0183 -0.1726 -0.0548
 2448POSM   C1B28725  18.542  30.413  10.946 -0.0079 -0.1719 -0.0234
 2448POSM   D2B28726  18.408  30.612  11.354  0.1436  0.1198 -0.0331
 2448POSM   C3B28727  18.616  30.546  11.823 -0.0395 -0.2242  0.2894
 2448POSM   C4B28728  18.362  30.404  12.153 -0.0281 -0.0642 -0.1434
 2449DOPC   NC328729  26.435   9.087  13.901  0.0519 -0.1357  0.1967
 2449DOPC   PO428730  26.671   9.436  13.868 -0.1789  0.1815 -0.0905
 2449DOPC   GL128731  26.934   9.344  13.527  0.0326 -0.0541 -0.0895
 2449DOPC   GL228732  26.720   9.381  13.359  0.1550  0.1586 -0.1519
 2449DOPC   C1A28733  27.239   9.253  13.247  0.0600  0.1415  0.0588
 2449DOPC   D2A28734  27.593   9.236  12.942 -0.1238 -0.0935 -0.0848
 2449DOPC   C3A28735  27.809   9.494  12.573  0.2515  0.2187  0.0505
 2449DOPC   C4A28736  27.856   9.979  12.468  0.0274 -0.0056 -0.0064
 2449DOPC   C1B28737  26.935   9.740  13.277 -0.0439  0.2091 -0.4976
 2449DOPC   D2B28738  26.985   9.982  12.857 -0.1527 -0.0061 -0.0558
 2449DOPC   C3B28739  26.951   9.765  12.445  0.1722 -0.0063  0.4558
 2449DOPC   C4B28740  27.055   9.726  11.964  0.0229 -0.4864  0.1455
 2450DOPC   NC328741  31.823   3.966  16.137  0.1123 -0.0350 -0.0053
 2450DOPC   PO428742  31.562   4.202  15.932 -0.3267  0.2066  0.0786
 2450DOPC   GL128743  31.634   4.281  15.483  0.5143 -0.1018 -0.1146
 2450DOPC   GL228744  31.441   4.083  15.474  0.1080 -0.2969  0.0875
 2450DOPC   C1A28745  31.926   4.616  15.364 -0.1487  0.0161  0.0936
 2450DOPC   D2A28746  32.122   4.975  15.119  0.0750  0.1088 -0.2048
 2450DOPC   C3A28747  32.541   4.996  14.900  0.1879 -0.0940 -0.0043
 2450DOPC   C4A28748  32.518   4.640  14.571  0.0076 -0.0709 -0.0616
 2450DOPC   C1B28749  31.469   4.152  14.991 -0.2256  0.1985 -0.0927
 2450DOPC   D2B28750  31.613   4.189  14.604  0.2024 -0.1240  0.0231
 2450DOPC   C3B28751  31.359   4.159  14.297  0.1524 -0.3788  0.0053
 2450DOPC   C4B28752  31.346   4.211  13.830 -0.0634  0.0359  0.1642
 2451DOPE   NH328753  31.458  11.966  14.035 -0.0001  0.1585  0.0581
 2451DOPE   PO428754  31.216  12.111  13.940 -0.0139  0.1162  0.0840
 2451DOPE   GL128755  31.150  12.083  13.501  0.0828  0.0932 -0.1625
 2451DOPE   GL228756  30.905  12.206  13.505  0.2575 -0.1701 -0.0397
 2451DOPE   C1A28757  31.184  12.405  13.206  0.1445 -0.2601 -0.3428
 2451DOPE   D2A28758  31.149  12.646  12.803 -0.2526 -0.0255  0.0240
 2451DOPE   C3A28759  31.239  12.411  12.401 -0.0364  0.1224  0.1521
 2451DOPE   C4A28760  31.327  12.304  11.964  0.1563 -0.1258  0.1324
 2451DOPE   C1B28761  30.970  12.002  13.117  0.0946 -0.1784 -0.0336
 2451DOPE   D2B28762  30.861  12.064  12.668 -0.2691 -0.1137 -0.0711
 2451DOPE   C3B28763  31.002  11.679  12.495 -0.0889 -0.1401 -0.0060
 2451DOPE   C4B28764  31.386  11.450  12.293  0.1624  0.2134  0.1962
 2452DOPE   NH328765  24.555   9.153  13.689 -0.0455 -0.1299 -0.3112
 2452DOPE   PO428766  24.397   9.177  13.413  0.1275 -0.1443 -0.1439
 2452DOPE   GL128767  24.491   9.171  13.030  0.1735 -0.3483 -0.4414
 2452DOPE   GL228768  24.805   9.202  13.090  0.1294  0.2661 -0.1691
 2452DOPE   C1A28769  24.275   9.274  12.664  0.2058  0.0883  0.1439
 2452DOPE   D2A28770  24.569   9.469  12.343  0.0541  0.2773 -0.0666
 2452DOPE   C3A28771  24.819   9.894  12.285  0.2935  0.2695  0.0505
 2452DOPE   C4A28772  25.096  10.036  11.920 -0.0882 -0.0851  0.1633
 2452DOPE   C1B28773  24.804   9.064  12.620  0.1454  0.1732  0.0084
 2452DOPE   D2B28774  24.799   9.011  12.172 -0.1689 -0.2880 -0.2244
 2452DOPE   C3B28775  25.064   8.643  12.118 -0.1414  0.1337  0.0985
 2452DOPE   C4B28776  25.394   8.418  11.864  0.1323 -0.0428 -0.0629
 2453DOPC   NC328777  30.732  13.529  13.622  0.2112 -0.2615 -0.0480
 2453DOPC   PO428778  30.937  13.837  13.757  0.1831  0.0862 -0.0352
 2453DOPC   GL128779  31.029  13.924  13.417  0.2948  0.1456 -0.0114
 2453DOPC   GL228780  31.309  14.067  13.309  0.0419  0.3272 -0.2425
 2453DOPC   C1A28781  30.990  13.821  12.976  0.0076  0.0214 -0.0327
 2453DOPC   D2A28782  31.081  14.196  12.739 -0.1050 -0.0259  0.0217
 2453DOPC   C3A28783  31.045  14.421  12.357 -0.5859 -0.1056  0.1676
 2453DOPC   C4A28784  31.215  14.781  12.119  0.2721  0.1562 -0.3263
 2453DOPC   C1B28785  31.512  13.910  12.894 -0.0456 -0.0319  0.1135
 2453DOPC   D2B28786  31.573  14.035  12.516  0.1744 -0.2527  0.1584
 2453DOPC   C3B28787  31.614  13.667  12.182 -0.1241  0.2637 -0.0828
 2453DOPC   C4B28788  31.241  13.494  11.898 -0.0948 -0.0880  0.1552
 2454DOPC   NC328789   1.012  11.079  14.674 -0.0505  0.0028  0.0091
 2454DOPC   PO428790   1.058  11.436  14.577 -0.1602  0.0568 -0.1458
 2454DOPC   GL128791   0.992  11.559  14.147 -0.2786 -0.1600 -0.0743
 2454DOPC   GL228792   0.972  11.819  14.076 -0.0404 -0.1040  0.0091
 2454DOPC   C1A28793   1.029  11.273  13.733  0.0909 -0.2029 -0.0093
 2454DOPC   D2A28794   0.921  11.209  13.280 -0.0000  0.2242  0.0825
 2454DOPC   C3A28795   1.092  10.812  13.144 -0.1006 -0.1159 -0.0349
 2454DOPC   C4A28796   1.529  10.566  13.145 -0.2630 -0.1574  0.1353
 2454DOPC   C1B28797   0.611  11.584  13.902  0.3082  0.1427 -0.2815
 2454DOPC   D2B28798   0.542  11.218  13.611  0.1443 -0.1035  0.1887
 2454DOPC   C3B28799   0.325  11.199  13.171  0.0348  0.0610  0.0373
 2454DOPC   C4B28800   0.147  11.490  12.941 -0.0342  0.1451  0.5131
 2455POSM   NC328801  26.985   4.372  14.156 -0.0082  0.0335 -0.0082
 2455POSM   PO428802  26.828   4.551  13.828 -0.1746 -0.1003  0.2039
 2455POSM   AM128803  26.706   4.690  13.539 -0.2149 -0.2123  0.0432
 2455POSM   AM228804  26.755   4.654  13.213  0.0546 -0.1105 -0.2286
 2455POSM   T1A28805  26.225   4.770  13.336  0.0659  0.3056  0.1245
 2455POSM   C2A28806  26.033   4.477  13.069 -0.2360  0.1481  0.2017
 2455POSM   C3A28807  26.000   4.391  12.630  0.3527 -0.2990 -0.3167
 2455POSM   C1B28808  26.952   4.674  12.874  0.4244 -0.1051 -0.1759
 2455POSM   D2B28809  27.336   4.548  12.684  0.0832  0.1902  0.0774
 2455POSM   C3B28810  27.811   4.447  12.732 -0.1973 -0.1740  0.0151
 2455POSM   C4B28811  28.229   4.662  12.716 -0.0258  0.0003  0.2396
 2456DOPS   CNO28812  30.836  11.298  14.351  0.1168  0.3527 -0.0893
 2456DOPS   PO428813  31.024  10.963  14.361 -0.1325 -0.2207  0.0383
 2456DOPS   GL128814  31.325  10.790  14.055  0.1450  0.1601 -0.1482
 2456DOPS   GL228815  31.290  10.952  13.807 -0.1663  0.3370  0.0456
 2456DOPS   C1A28816  31.126  10.459  13.733 -0.1000 -0.1331  0.2193
 2456DOPS   D2A28817  31.039  10.172  13.394 -0.4269  0.1502 -0.3555
 2456DOPS   C3A28818  30.747  10.282  13.062  0.3622 -0.1980  0.2652
 2456DOPS   C4A28819  30.385  10.388  12.769 -0.0532 -0.0735 -0.1254
 2456DOPS   C1B28820  30.999  11.065  13.489 -0.1487  0.1102 -0.0187
 2456DOPS   D2B28821  30.951  11.179  13.017 -0.2348  0.0923 -0.0441
 2456DOPS   C3B28822  31.218  11.541  12.923 -0.0739  0.0350 -0.2953
 2456DOPS   C4B28823  31.621  11.664  12.682  0.0810  0.1137  0.3117
 2457DOPC   NC328824  26.873   3.601  13.871  0.1844  0.0304 -0.0298
 2457DOPC   PO428825  26.743   3.944  14.068 -0.5048  0.0531 -0.1152
 2457DOPC   GL128826  26.535   3.857  13.639  0.4871 -0.1897  0.1540
 2457DOPC   GL228827  26.619   4.119  13.575  0.1101 -0.0718  0.0974
 2457DOPC   C1A28828  26.670   3.774  13.169  0.1246 -0.0270  0.0586
 2457DOPC   D2A28829  26.706   3.742  12.716  0.1952 -0.1770  0.1567
 2457DOPC   C3A28830  26.466   3.489  12.431 -0.1371 -0.2417  0.2151
 2457DOPC   C4A28831  26.244   3.157  12.174 -0.2931  0.0215  0.0278
 2457DOPC   C1B28832  26.944   4.210  13.254 -0.1294  0.1466  0.0059
 2457DOPC   D2B28833  27.349   4.366  13.131 -0.1365  0.2571 -0.1141
 2457DOPC   C3B28834  27.292   4.799  13.316 -0.1727 -0.2450  0.1455
 2457DOPC   C4B28835  27.092   5.184  13.222  0.1721  0.1166 -0.0100
 2458DOPE   NH328836  25.382   7.360  14.002 -0.1085 -0.2585  0.0671
 2458DOPE   PO428837  25.217   7.654  13.872 -0.3665  0.0425  0.1934
 2458DOPE   GL128838  25.258   7.415  13.528 -0.0786 -0.2996 -0.0259
 2458DOPE   GL228839  24.934   7.325  13.437  0.0789  0.2631 -0.2659
 2458DOPE   C1A28840  25.644   7.294  13.200  0.0322 -0.1905  0.0872
 2458DOPE   D2A28841  25.878   7.057  12.996  0.1268  0.2109  0.3171
 2458DOPE   C3A28842  26.357   7.146  12.964  0.0557  0.0655 -0.0337
 2458DOPE   C4A28843  26.720   7.243  12.752  0.1079  0.1052 -0.0737
 2458DOPE   C1B28844  25.150   7.521  13.034 -0.1553 -0.2967 -0.0977
 2458DOPE   D2B28845  25.184   7.391  12.562 -0.2766 -0.1556  0.3105
 2458DOPE   C3B28846  24.881   7.170  12.288 -0.1897 -0.2012  0.1276
 2458DOPE   C4B28847  24.581   7.116  11.981  0.0858 -0.0124  0.0998
 2459POSM   NC328848  31.033  10.655  14.720 -0.0663  0.1705 -0.1307
 2459POSM   PO428849  30.718  10.433  14.556 -0.1077 -0.0454 -0.1172
 2459POSM   AM128850  30.699  10.282  14.255  0.2664  0.2242  0.2126
 2459POSM   AM228851  30.856  10.048  14.182  0.2130 -0.2974  0.1045
 2459POSM   T1A28852  30.627  10.287  13.778 -0.0029 -0.0288  0.1798
 2459POSM   C2A28853  30.740  10.576  13.453  0.1141 -0.1989 -0.2239
 2459POSM   C3A28854  31.047  10.685  13.149 -0.4207  0.0974  0.1196
 2459POSM   C1B28855  31.036   9.995  13.951  0.3383 -0.1948  0.2524
 2459POSM   D2B28856  31.451   9.989  13.742  0.0076 -0.0969  0.2161
 2459POSM   C3B28857  31.576  10.218  13.328  0.4612 -0.3212  0.0080
 2459POSM   C4B28858  31.360  10.353  12.924  0.2023  0.4852 -0.0643
 2460DOPS   CNO28859  28.192  13.831  13.562 -0.3316 -0.0139 -0.2831
 2460DOPS   PO428860  28.378  14.036  13.841 -0.3684 -0.0680 -0.2693
 2460DOPS   GL128861  28.365  14.167  13.389 -0.2335 -0.3440  0.0126
 2460DOPS   GL228862  28.171  14.193  13.202  0.2035  0.0198  0.1568
 2460DOPS   C1A28863  28.682  13.986  13.105 -0.1444 -0.0461 -0.2078
 2460DOPS   D2A28864  28.686  13.702  12.708 -0.1937 -0.4081  0.0073
 2460DOPS   C3A28865  29.031  13.669  12.390  0.2672 -0.0891  0.2000
 2460DOPS   C4A28866  29.459  13.661  12.307 -0.0533 -0.2737 -0.4653
 2460DOPS   C1B28867  28.182  13.999  12.795 -0.1669  0.2782 -0.0818
 2460DOPS   D2B28868  28.169  13.624  12.491 -0.3407  0.0366  0.3397
 2460DOPS   C3B28869  27.894  13.529  12.128  0.2269 -0.0552  0.0457
 2460DOPS   C4B28870  27.804  13.853  11.773 -0.0789  0.0361 -0.3173
 2461DOPC   NC328871  34.493   2.379  16.269  0.0984  0.0728  0.0243
 2461DOPC   PO428872  34.332   2.704  16.219 -0.0361 -0.2769 -0.1709
 2461DOPC   GL128873  34.506   2.898  15.886  0.2037  0.0733  0.1021
 2461DOPC   GL228874  34.489   3.241  15.843  0.1008  0.2008  0.1042
 2461DOPC   C1A28875  34.568   3.004  15.388 -0.1300 -0.1054  0.0902
 2461DOPC   D2A28876  34.350   3.164  14.978  0.1374  0.1101 -0.0743
 2461DOPC   C3A28877  34.121   2.816  14.844 -0.0167 -0.0737  0.0866
 2461DOPC   C4A28878  33.655   2.701  14.855  0.1787 -0.2092  0.0512
 2461DOPC   C1B28879  34.343   3.448  15.446 -0.4035 -0.1333  0.2136
 2461DOPC   D2B28880  34.642   3.572  15.049  0.2590  0.1016 -0.0523
 2461DOPC   C3B28881  34.449   3.950  14.821  0.1495  0.0934  0.2164
 2461DOPC   C4B28882  34.569   4.355  14.659  0.3723 -0.0539  0.2854
 2462DOPE   NH328883  28.883   6.005  15.060 -0.0895 -0.1818  0.0464
 2462DOPE   PO428884  28.627   6.079  14.887 -0.1941 -0.1980 -0.0897
 2462DOPE   GL128885  28.786   5.987  14.509  0.0982 -0.1962 -0.4380
 2462DOPE   GL228886  28.652   6.152  14.388  0.2188 -0.3626 -0.1274
 2462DOPE   C1A28887  29.125   5.805  14.258 -0.1738 -0.0302  0.0102
 2462DOPE   D2A28888  29.284   5.801  13.831 -0.2246  0.0795  0.2773
 2462DOPE   C3A28889  29.678   5.541  13.793 -0.0491  0.3254  0.0456
 2462DOPE   C4A28890  29.914   5.379  13.454 -0.3616  0.0987  0.0785
 2462DOPE   C1B28891  28.336   6.129  14.030  0.1280  0.0205 -0.0644
 2462DOPE   D2B28892  27.907   6.098  13.819  0.0301  0.1222 -0.0014
 2462DOPE   C3B28893  27.766   5.999  13.395  0.0430 -0.0737 -0.2456
 2462DOPE   C4B28894  27.812   6.061  12.971  0.0452 -0.3515  0.0662
 2463DOPE   NH328895  28.368   7.854  14.746  0.1514 -0.0987 -0.0073
 2463DOPE   PO428896  28.340   7.605  14.578  0.0393 -0.1488 -0.2420
 2463DOPE   GL128897  28.557   7.530  14.247  0.0207  0.1680 -0.2699
 2463DOPE   GL228898  28.641   7.271  14.280 -0.0491 -0.0404  0.2667
 2463DOPE   C1A28899  28.516   7.515  13.742 -0.2403 -0.1453 -0.2474
 2463DOPE   D2A28900  28.363   7.683  13.307  0.0923 -0.2308  0.1888
 2463DOPE   C3A28901  28.659   7.883  13.063  0.0225  0.1526 -0.4257
 2463DOPE   C4A28902  28.672   8.256  12.787 -0.0460  0.2179 -0.1721
 2463DOPE   C1B28903  28.694   6.830  14.192 -0.2179 -0.1357  0.0661
 2463DOPE   D2B28904  28.664   6.481  13.882  0.0283  0.1290 -0.0377
 2463DOPE   C3B28905  28.887   6.472  13.484 -0.0184  0.1656 -0.2953
 2463DOPE   C4B28906  29.325   6.517  13.299 -0.0380  0.2902  0.0480
 2464DOPC   NC328907  31.052  14.771  13.434 -0.2707 -0.1019 -0.1127
 2464DOPC   PO428908  31.319  14.501  13.507  0.0436 -0.1779  0.0958
 2464DOPC   GL128909  31.553  14.634  13.177  0.2069 -0.2427  0.4279
 2464DOPC   GL228910  31.591  14.386  13.029  0.0697 -0.0088 -0.1706
 2464DOPC   C1A28911  31.535  14.647  12.678 -0.0652 -0.1603 -0.1667
 2464DOPC   D2A28912  31.604  14.532  12.248 -0.0457  0.2505 -0.4732
 2464DOPC   C3A28913  31.465  14.283  11.921 -0.2166 -0.0365  0.1341
 2464DOPC   C4A28914  31.185  14.015  11.684  0.1624  0.2645  0.2251
 2464DOPC   C1B28915  31.938  14.217  12.730 -0.1964  0.0107 -0.1314
 2464DOPC   D2B28916  32.038  13.809  12.590  0.0951 -0.1848  0.1740
 2464DOPC   C3B28917  31.842  13.487  12.850  0.1390 -0.1197 -0.1705
 2464DOPC   C4B28918  31.966  13.135  13.118 -0.4098 -0.0128 -0.1068
 2465POSM   NC328919  32.341  10.700  14.779 -0.3608 -0.0703 -0.0334
 2465POSM   PO428920  32.641  10.500  14.841 -0.0698 -0.0920 -0.5050
 2465POSM   AM128921  32.486  10.332  14.582  0.0598 -0.0364 -0.2209
 2465POSM   AM228922  32.376  10.048  14.652 -0.3432 -0.0447 -0.3564
 2465POSM   T1A28923  32.270  10.468  14.139  0.2019  0.0403  0.0257
 2465POSM   C2A28924  32.332  10.531  13.720  0.1066 -0.0454 -0.0477
 2465POSM   C3A28925  32.224  10.251  13.360 -0.0883  0.0401  0.0135
 2465POSM   C1B28926  32.236  10.012  14.353 -0.1537  0.1617  0.1188
 2465POSM   D2B28927  32.364   9.834  13.911  0.0518  0.0728 -0.1997
 2465POSM   C3B28928  32.453   9.421  13.736  0.1009  0.1527 -0.3593
 2465POSM   C4B28929  32.176   9.059  13.569  0.3483 -0.0130  0.1962
 2466DOPE   NH328930  22.432  10.298  12.997 -0.0718  0.2161 -0.0821
 2466DOPE   PO428931  22.728  10.282  13.160 -0.2377  0.1985 -0.2459
 2466DOPE   GL128932  22.750  10.242  12.681 -0.1324  0.1858  0.0492
 2466DOPE   GL228933  23.027  10.428  12.645  0.3565  0.3593  0.1093
 2466DOPE   C1A28934  22.483  10.126  12.285 -0.0396  0.1267 -0.0856
 2466DOPE   D2A28935  22.306  10.103  11.810 -0.0362  0.1304 -0.0847
 2466DOPE   C3A28936  21.861  10.007  11.809  0.0214  0.1811  0.0930
 2466DOPE   C4A28937  21.613  10.378  11.855 -0.0375 -0.0208 -0.3064
 2466DOPE   C1B28938  23.023  10.193  12.296 -0.1401  0.0802  0.1251
 2466DOPE   D2B28939  23.411  10.143  12.082  0.0390  0.4508 -0.1253
 2466DOPE   C3B28940  23.504  10.000  11.677  0.0564 -0.0017 -0.2285
 2466DOPE   C4B28941  23.499  10.070  11.216 -0.3164  0.1517  0.2335
 2467DOPS   CNO28942  26.372   3.078  13.834 -0.1623 -0.2787  0.1518
 2467DOPS   PO428943  26.736   3.113  14.036 -0.1765  0.0932  0.3871
 2467DOPS   GL128944  26.907   3.096  13.613 -0.0032  0.1630 -0.1811
 2467DOPS   GL228945  27.018   3.244  13.384  0.1964  0.0135 -0.1466
 2467DOPS   C1A28946  26.594   2.983  13.228 -0.0640  0.1891 -0.1951
 2467DOPS   D2A28947  26.370   2.776  12.856 -0.0779  0.4262  0.4745
 2467DOPS   C3A28948  26.043   2.754  12.533 -0.3687  0.1633  0.0862
 2467DOPS   C4A28949  25.799   2.942  12.234  0.0409 -0.2382 -0.2308
 2467DOPS   C1B28950  27.048   3.452  12.997  0.2603 -0.3168  0.0028
 2467DOPS   D2B28951  27.045   3.459  12.516  0.1016 -0.1895  0.1794
 2467DOPS   C3B28952  26.883   3.821  12.247  0.0371 -0.2562  0.1773
 2467DOPS   C4B28953  26.668   4.030  11.864 -0.2250  0.1982  0.2092
 2468POSM   NC328954  30.731   9.757  14.585  0.2331  0.2041 -0.2529
 2468POSM   PO428955  30.389   9.952  14.473  0.0980 -0.2108 -0.3287
 2468POSM   AM128956  30.355   9.828  14.158 -0.0650  0.0909  0.0236
 2468POSM   AM228957  30.456   9.833  13.883 -0.1901 -0.1972  0.2150
 2468POSM   T1A28958  29.977   9.729  13.783  0.3154  0.1714  0.2261
 2468POSM   C2A28959  29.866   9.464  13.417 -0.1455  0.1409 -0.1300
 2468POSM   C3A28960  30.186   9.174  13.192  0.3427  0.0444  0.0363
 2468POSM   C1B28961  30.379   9.905  13.555  0.0422  0.0573 -0.1008
 2468POSM   D2B28962  30.175   9.734  13.211 -0.1280  0.1714  0.0001
 2468POSM   C3B28963  30.459   9.533  12.908 -0.0582  0.0740  0.0926
 2468POSM   C4B28964  30.464   9.141  12.601  0.2776  0.0184 -0.0582
 2469POSM   NC328965  28.676  10.258  14.548 -0.3050 -0.1009  0.0325
 2469POSM   PO428966  28.691   9.837  14.554 -0.0391  0.2538 -0.0397
 2469POSM   AM128967  28.523   9.716  14.287 -0.3169  0.0603 -0.1222
 2469POSM   AM228968  28.627   9.528  14.125 -0.2652 -0.1728 -0.0018
 2469POSM   T1A28969  28.337   9.823  13.830  0.1099 -0.1210 -0.1492
 2469POSM   C2A28970  28.398   9.776  13.374 -0.2707  0.0164 -0.0666
 2469POSM   C3A28971  28.632   9.837  12.952 -0.1065 -0.2486 -0.1753
 2469POSM   C1B28972  28.559   9.356  13.857  0.1568 -0.0789 -0.0976
 2469POSM   D2B28973  28.386   9.135  13.485 -0.2207  0.1394 -0.1493
 2469POSM   C3B28974  28.697   8.783  13.352 -0.1560 -0.1774 -0.0782
 2469POSM   C4B28975  28.778   8.778  12.919 -0.1146 -0.3196  0.0180
 2470DOPC   NC328976  26.073   0.170  14.472 -0.0262  0.0201 -0.2526
 2470DOPC   PO428977  25.968   0.115  14.120 -0.2182  0.1608  0.6737
 2470DOPC   GL128978  26.005   0.167  13.727  0.2821 -0.2107 -0.3539
 2470DOPC   GL228979  26.277   0.238  13.670  0.0075  0.2106  0.2746
 2470DOPC   C1A28980  25.793  -0.130  13.428 -0.0730  0.0263 -0.0690
 2470DOPC   D2A28981  25.592  -0.309  13.068 -0.4449  0.1882  0.0366
 2470DOPC   C3A28982  25.640  -0.328  12.648  0.2238  0.0333  0.2098
 2470DOPC   C4A28983  25.705  -0.579  12.297 -0.1170  0.3859  0.3751
 2470DOPC   C1B28984  26.317  -0.060  13.324 -0.0935  0.3657  0.0408
 2470DOPC   D2B28985  26.467  -0.280  12.962  0.1704 -0.0372 -0.0209
 2470DOPC   C3B28986  26.584  -0.084  12.513  0.0464  0.0639 -0.0233
 2470DOPC   C4B28987  26.507  -0.059  12.084 -0.0420 -0.0253  0.1502
 2471DOPS   CNO28988  30.973   6.396  15.638  0.0010  0.0488  0.2482
 2471DOPS   PO428989  30.990   6.257  15.306 -0.1964 -0.4079 -0.0708
 2471DOPS   GL128990  31.095   6.385  14.957  0.2093  0.1140 -0.0897
 2471DOPS   GL228991  31.200   6.707  14.884 -0.1688  0.3114 -0.1930
 2471DOPS   C1A28992  31.247   6.156  14.569 -0.2262  0.1255 -0.0246
 2471DOPS   D2A28993  31.598   6.073  14.186 -0.0618  0.3076  0.2675
 2471DOPS   C3A28994  31.480   6.031  13.752  0.1550 -0.0950  0.0366
 2471DOPS   C4A28995  31.642   5.911  13.392 -0.1117 -0.2069  0.1444
 2471DOPS   C1B28996  31.124   6.953  14.465  0.1053 -0.0407 -0.0456
 2471DOPS   D2B28997  30.857   7.244  14.278  0.1522  0.0459 -0.0781
 2471DOPS   C3B28998  31.024   7.308  13.862  0.2654  0.0684 -0.0024
 2471DOPS   C4B28999  31.375   7.149  13.631  0.2014 -0.1502 -0.3551
 2472DOPE   NH329000  30.484  11.928  13.645  0.0203  0.2285  0.2706
 2472DOPE   PO429001  30.408  12.241  13.660 -0.2096 -0.1795 -0.0389
 2472DOPE   GL129002  30.463  12.212  13.196  0.0938  0.0034 -0.0318
 2472DOPE   GL229003  30.337  11.998  13.161 -0.1753  0.2187 -0.0832
 2472DOPE   C1A29004  30.411  12.214  12.716 -0.0035  0.3320  0.0265
 2472DOPE   D2A29005  30.237  12.251  12.280 -0.1450  0.1287 -0.0509
 2472DOPE   C3A29006  30.442  12.516  12.034 -0.1362  0.0341  0.0380
 2472DOPE   C4A29007  30.635  12.950  12.008 -0.0197 -0.2725 -0.2671
 2472DOPE   C1B29008  30.661  11.675  12.892  0.0735 -0.1595  0.1014
 2472DOPE   D2B29009  30.616  11.296  12.677 -0.1936 -0.2418 -0.3729
 2472DOPE   C3B29010  31.042  11.168  12.513 -0.0342  0.0130 -0.0519
 2472DOPE   C4B29011  31.110  10.697  12.544  0.2168 -0.2756 -0.2488
 2473POSM   NC329012  31.497   5.599  15.619 -0.0263 -0.0375  0.3754
 2473POSM   PO429013  31.815   5.862  15.579  0.0202  0.1164 -0.0700
 2473POSM   AM129014  32.076   5.864  15.421  0.0588 -0.1059 -0.1915
 2473POSM   AM229015  32.141   5.961  15.167 -0.1493 -0.1734  0.2254
 2473POSM   T1A29016  32.601   5.896  15.434 -0.0551 -0.3751  0.0646
 2473POSM   C2A29017  33.051   6.126  15.369 -0.2059 -0.0562 -0.1594
 2473POSM   C3A29018  33.458   6.317  15.398 -0.0508  0.1911  0.0538
 2473POSM   C1B29019  32.165   5.866  14.840  0.3451 -0.0084 -0.0387
 2473POSM   D2B29020  32.028   5.718  14.432  0.1608 -0.0477 -0.1982
 2473POSM   C3B29021  32.271   5.593  14.084  0.0367  0.3069  0.0346
 2473POSM   C4B29022  32.653   5.650  13.743 -0.1400 -0.0133  0.1678
 2474POSM   NC329023  32.843   6.047  16.323  0.2376 -0.1280 -0.5035
 2474POSM   PO429024  32.820   5.637  16.249  0.2150  0.0205 -0.1622
 2474POSM   AM129025  32.790   5.421  15.986 -0.4909  0.1502  0.0224
 2474POSM   AM229026  32.667   5.421  15.740 -0.2399  0.2952 -0.1504
 2474POSM   T1A29027  33.058   4.980  15.804 -0.1503  0.1696  0.0356
 2474POSM   C2A29028  33.342   4.920  15.515 -0.2019  0.0258  0.1890
 2474POSM   C3A29029  33.752   4.708  15.597  0.1949 -0.0826 -0.2498
 2474POSM   C1B29030  32.903   5.415  15.499  0.0339  0.0610 -0.2186
 2474POSM   D2B29031  33.301   5.392  15.276 -0.3036 -0.2806 -0.0317
 2474POSM   C3B29032  33.405   5.858  15.157  0.3221 -0.4255  0.1765
 2474POSM   C4B29033  33.434   6.236  14.883  0.1115 -0.3150  0.2933
 2475DOPC   NC329034  25.185   9.574  14.069  0.2259 -0.2421  0.0973
 2475DOPC   PO429035  25.120   9.202  13.917  0.0329  0.2133 -0.0779
 2475DOPC   GL129036  25.243   9.103  13.468 -0.4820  0.3345  0.0272
 2475DOPC   GL229037  25.013   8.948  13.479  0.1979 -0.1741  0.2111
 2475DOPC   C1A29038  25.303   9.308  13.022  0.2190 -0.2015 -0.1546
 2475DOPC   D2A29039  25.603   9.386  12.650 -0.2259 -0.0350 -0.0267
 2475DOPC   C3A29040  25.879   9.714  12.463  0.0678  0.2559 -0.0223
 2475DOPC   C4A29041  26.073   9.867  12.014 -0.0105 -0.0643 -0.1769
 2475DOPC   C1B29042  25.070   8.783  12.989 -0.0621 -0.1633 -0.2358
 2475DOPC   D2B29043  25.277   8.925  12.581  0.1960 -0.2138  0.0885
 2475DOPC   C3B29044  25.195   9.274  12.281 -0.0053 -0.0386 -0.1249
 2475DOPC   C4B29045  24.931   9.471  11.957 -0.2096 -0.1712 -0.4103
 2476DOPC   NC329046  25.218   3.345  13.798  0.0697 -0.0730  0.3753
 2476DOPC   PO429047  25.515   3.528  13.825 -0.0661 -0.2514 -0.2858
 2476DOPC   GL129048  25.485   3.559  13.401 -0.1861  0.2908 -0.2447
 2476DOPC   GL229049  25.453   3.796  13.313 -0.1907  0.4554  0.2124
 2476DOPC   C1A29050  25.894   3.677  13.222 -0.0260  0.0278  0.3920
 2476DOPC   D2A29051  26.181   3.773  12.927  0.0977 -0.0366  0.2713
 2476DOPC   C3A29052  26.297   3.977  12.537 -0.0448 -0.3066  0.3175
 2476DOPC   C4A29053  26.226   4.238  12.183 -0.0682  0.0473  0.0900
 2476DOPC   C1B29054  25.264   3.971  12.939  0.0274  0.0511 -0.1503
 2476DOPC   D2B29055  24.984   4.198  12.603  0.2583  0.3983  0.4686
 2476DOPC   C3B29056  24.729   3.918  12.363 -0.0901 -0.1189 -0.0974
 2476DOPC   C4B29057  24.509   3.606  12.554  0.3085  0.2929  0.1839
 2477POSM   NC329058  27.919   1.188  14.334 -0.0973  0.1488 -0.1452
 2477POSM   PO429059  27.902   1.547  14.350  0.0524  0.0564 -0.2298
 2477POSM   AM129060  28.085   1.484  14.063 -0.2190  0.1605  0.2571
 2477POSM   AM229061  28.171   1.630  13.859  0.1206 -0.2184  0.2283
 2477POSM   T1A29062  28.129   1.114  13.678  0.0924  0.1596  0.2166
 2477POSM   C2A29063  28.151   0.772  13.432 -0.1420  0.1248 -0.0372
 2477POSM   C3A29064  28.208   0.702  12.987  0.1094 -0.3782  0.0490
 2477POSM   C1B29065  28.294   1.608  13.508 -0.0777  0.0370 -0.1913
 2477POSM   D2B29066  28.319   1.771  13.082  0.0978 -0.0825  0.2335
 2477POSM   C3B29067  27.926   1.993  12.893 -0.0589  0.0597 -0.1167
 2477POSM   C4B29068  27.771   2.374  12.666 -0.0140 -0.1465  0.1717
 2478POSM   NC329069   1.071   7.219  16.586  0.0045 -0.1220 -0.1770
 2478POSM   PO429070   1.198   7.591  16.534 -0.3820  0.2286 -0.1032
 2478POSM   AM129071   1.103   7.593  16.239  0.1974  0.2401  0.0887
 2478POSM   AM229072   1.284   7.591  15.983  0.2931 -0.0572  0.1085
 2478POSM   T1A29073   0.788   7.323  15.987  0.1356  0.1820  0.2928
 2478POSM   C2A29074   0.838   6.907  15.831 -0.0526  0.3041 -0.1081
 2478POSM   C3A29075   0.691   6.482  15.690 -0.0022  0.1827 -0.1804
 2478POSM   C1B29076   1.162   7.837  15.824  0.4635 -0.3588 -0.2561
 2478POSM   D2B29077   0.880   8.046  15.555  0.0740 -0.1948  0.2143
 2478POSM   C3B29078   0.908   8.070  15.085  0.0606 -0.0109 -0.0570
 2478POSM   C4B29079   1.272   7.934  14.822 -0.1014  0.1074  0.1648
 2479DOPE   NH329080  31.486  12.525  13.713  0.3274 -0.0533  0.0125
 2479DOPE   PO429081  31.649  12.769  13.798  0.0526 -0.1009  0.2107
 2479DOPE   GL129082  31.555  12.772  13.371  0.0186 -0.1145 -0.0153
 2479DOPE   GL229083  31.498  12.959  13.179  0.1023 -0.0981 -0.0812
 2479DOPE   C1A29084  31.616  12.522  12.939  0.4311 -0.2892  0.0267
 2479DOPE   D2A29085  31.763  12.534  12.494  0.1294 -0.2357 -0.0001
 2479DOPE   C3A29086  31.568  12.664  12.085 -0.0629  0.0552 -0.0285
 2479DOPE   C4A29087  31.543  12.581  11.571 -0.4467 -0.2094  0.1815
 2479DOPE   C1B29088  31.551  13.009  12.756  0.2185  0.1853 -0.2608
 2479DOPE   D2B29089  31.940  13.113  12.489  0.3639 -0.0281 -0.2212
 2479DOPE   C3B29090  31.770  13.135  12.079 -0.1699 -0.2446  0.2475
 2479DOPE   C4B29091  31.775  13.459  11.729 -0.2309 -0.1730 -0.0782
 2480DOPC   NC329092  27.977  10.549  14.186 -0.2243 -0.2086 -0.0369
 2480DOPC   PO429093  28.271  10.808  14.242 -0.0198 -0.1044  0.0929
 2480DOPC   GL129094  28.379  10.788  13.874  0.0008 -0.0544 -0.4390
 2480DOPC   GL229095  28.019  10.763  13.727  0.2468  0.1437  0.2973
 2480DOPC   C1A29096  28.490  11.126  13.521 -0.1649  0.1892 -0.1786
 2480DOPC   D2A29097  28.695  11.208  13.086 -0.1543  0.3510  0.1176
 2480DOPC   C3A29098  28.614  11.074  12.607  0.0559 -0.1164 -0.2347
 2480DOPC   C4A29099  28.618  10.859  12.224  0.0448  0.1069 -0.3410
 2480DOPC   C1B29100  27.892  10.936  13.318  0.0357 -0.2272 -0.1566
 2480DOPC   D2B29101  27.671  10.892  12.905 -0.1067 -0.2562 -0.0284
 2480DOPC   C3B29102  27.607  10.859  12.495 -0.1101 -0.0947 -0.0906
 2480DOPC   C4B29103  27.521  11.054  12.039  0.2507  0.2468 -0.0932
 2481DOPE   NH329104  32.686   7.777  15.364 -0.3203 -0.1027 -0.1797
 2481DOPE   PO429105  32.601   7.530  15.568  0.2345 -0.0396 -0.2962
 2481DOPE   GL129106  32.561   7.357  15.134  0.2472 -0.0315  0.2343
 2481DOPE   GL229107  32.851   7.353  15.045 -0.1575 -0.1564  0.1679
 2481DOPE   C1A29108  32.341   7.288  14.739 -0.0332 -0.0633 -0.0267
 2481DOPE   D2A29109  32.323   7.606  14.389 -0.2381  0.0355  0.0423
 2481DOPE   C3A29110  32.221   7.663  13.907 -0.1863 -0.4784 -0.0757
 2481DOPE   C4A29111  31.853   7.700  13.660 -0.2621 -0.1852 -0.0186
 2481DOPE   C1B29112  32.930   7.027  14.708  0.0290 -0.0479  0.1139
 2481DOPE   D2B29113  32.639   6.950  14.364  0.0162 -0.2209  0.2640
 2481DOPE   C3B29114  32.482   7.275  14.037  0.1109 -0.1230 -0.0914
 2481DOPE   C4B29115  32.219   7.284  13.623 -0.3318  0.1102 -0.1404
 2482DOPE   NH329116  32.306   3.028  16.316 -0.1191  0.0642  0.2572
 2482DOPE   PO429117  32.135   3.109  16.073  0.2293 -0.2261 -0.0394
 2482DOPE   GL129118  32.132   3.214  15.622  0.5063 -0.0248  0.1238
 2482DOPE   GL229119  32.144   2.916  15.610  0.2893  0.1344 -0.0310
 2482DOPE   C1A29120  31.939   3.276  15.172 -0.3034 -0.2350 -0.2600
 2482DOPE   D2A29121  32.144   3.673  15.032  0.1033 -0.0075 -0.2402
 2482DOPE   C3A29122  32.180   3.921  14.624 -0.0404  0.0894 -0.1247
 2482DOPE   C4A29123  32.364   3.975  14.251 -0.0127 -0.0818 -0.0671
 2482DOPE   C1B29124  32.230   2.888  15.118 -0.0208 -0.0353  0.0525
 2482DOPE   D2B29125  32.335   3.158  14.739  0.0448  0.0984 -0.2959
 2482DOPE   C3B29126  32.224   2.863  14.361  0.0108  0.2457  0.2561
 2482DOPE   C4B29127  32.314   2.430  14.244  0.0185  0.0600 -0.1177
 2483DOPE   NH329128  28.255   3.373  14.298  0.2737  0.0232  0.1434
 2483DOPE   PO429129  28.230   3.659  14.288  0.0350  0.3257  0.0949
 2483DOPE   GL129130  28.382   3.713  13.954  0.2313  0.0547  0.2079
 2483DOPE   GL229131  28.660   3.846  13.946 -0.0001 -0.2130  0.3418
 2483DOPE   C1A29132  28.357   3.349  13.676 -0.2418 -0.1618 -0.0500
 2483DOPE   D2A29133  28.445   3.395  13.225 -0.1099  0.1877  0.1297
 2483DOPE   C3A29134  28.492   3.321  12.738 -0.1595 -0.0433 -0.3593
 2483DOPE   C4A29135  28.698   3.293  12.340 -0.2653  0.2526  0.1646
 2483DOPE   C1B29136  29.121   3.987  13.848  0.0259  0.0300 -0.0762
 2483DOPE   D2B29137  29.374   3.846  13.533  0.0915 -0.0372 -0.1164
 2483DOPE   C3B29138  29.052   4.024  13.263 -0.1838 -0.0606 -0.3310
 2483DOPE   C4B29139  28.847   4.495  13.250  0.1993  0.3285  0.1358
 2484DOPS   CNO29140  22.734   7.951  13.487 -0.0378 -0.0952  0.0149
 2484DOPS   PO429141  22.497   7.632  13.549  0.1107 -0.1052 -0.0143
 2484DOPS   GL129142  22.450   7.440  13.151  0.0150 -0.3974 -0.0268
 2484DOPS   GL229143  22.387   7.696  12.986  0.2773 -0.2169  0.0628
 2484DOPS   C1A29144  22.202   7.268  12.797  0.0208  0.1532 -0.0819
 2484DOPS   D2A29145  22.145   6.941  12.469  0.0346  0.1350  0.3374
 2484DOPS   C3A29146  21.715   6.761  12.234 -0.0297  0.3573  0.4167
 2484DOPS   C4A29147  21.452   6.638  11.877  0.1586  0.1400 -0.1982
 2484DOPS   C1B29148  22.814   7.586  12.938 -0.2380 -0.1693  0.0050
 2484DOPS   D2B29149  23.263   7.556  12.828  0.0313  0.0941 -0.1632
 2484DOPS   C3B29150  23.494   7.681  12.468  0.0994  0.1023 -0.1116
 2484DOPS   C4B29151  23.725   7.616  12.060  0.0192 -0.3916 -0.1128
 2485DOPE   NH329152  29.515   8.907  14.831  0.0411 -0.0499  0.2356
 2485DOPE   PO429153  29.828   8.854  14.780  0.0525 -0.0373  0.2512
 2485DOPE   GL129154  30.018   8.812  14.486  0.0960  0.0157 -0.1692
 2485DOPE   GL229155  29.894   8.553  14.349  0.0513 -0.1918  0.2881
 2485DOPE   C1A29156  30.400   8.560  14.361  0.3449  0.1193 -0.1872
 2485DOPE   D2A29157  30.900   8.531  14.252  0.1031  0.1664 -0.0059
 2485DOPE   C3A29158  31.095   8.315  13.928  0.1564  0.1681  0.2378
 2485DOPE   C4A29159  31.083   8.123  13.555 -0.2063 -0.0179  0.0612
 2485DOPE   C1B29160  30.043   8.832  14.000  0.0213 -0.1372 -0.1594
 2485DOPE   D2B29161  30.234   8.858  13.631  0.0244 -0.0942 -0.2177
 2485DOPE   C3B29162  30.255   8.518  13.260  0.1254 -0.0216 -0.2294
 2485DOPE   C4B29163  30.140   8.130  13.127 -0.1544  0.0340  0.2168
 2486DOPE   NH329164  28.525   8.538  14.984  0.3405  0.2721  0.2140
 2486DOPE   PO429165  28.455   8.334  14.771 -0.2565 -0.2724  0.3032
 2486DOPE   GL129166  28.684   8.167  14.434  0.0389 -0.0578 -0.0508
 2486DOPE   GL229167  28.878   8.343  14.320  0.0215  0.1232 -0.4501
 2486DOPE   C1A29168  28.422   7.999  14.061 -0.1011  0.1176 -0.3022
 2486DOPE   D2A29169  28.193   8.059  13.690  0.0670 -0.1449  0.1323
 2486DOPE   C3A29170  27.824   7.893  13.477 -0.0343  0.0452 -0.2476
 2486DOPE   C4A29171  27.434   7.824  13.180  0.3636  0.0630 -0.1566
 2486DOPE   C1B29172  28.702   8.385  13.834  0.2950  0.1624 -0.1495
 2486DOPE   D2B29173  28.775   8.291  13.407  0.0466 -0.1198  0.0563
 2486DOPE   C3B29174  29.077   8.350  13.147  0.1627  0.1531  0.0185
 2486DOPE   C4B29175  29.307   8.735  13.008  0.0990  0.0395 -0.1585
 2487POSM   NC329176  26.221   1.334  14.354  0.1768  0.0149 -0.5418
 2487POSM   PO429177  26.210   1.078  14.101  0.2013 -0.1071  0.4204
 2487POSM   AM129178  26.013   0.907  13.913  0.1497 -0.0624 -0.0809
 2487POSM   AM229179  26.117   0.678  13.794 -0.1017 -0.1320  0.4008
 2487POSM   T1A29180  25.760   0.873  13.487  0.1209 -0.1248 -0.0446
 2487POSM   C2A29181  25.731   1.122  13.087  0.1200  0.2381 -0.1035
 2487POSM   C3A29182  25.970   1.119  12.675 -0.1413 -0.0625  0.0199
 2487POSM   C1B29183  26.199   0.671  13.411 -0.2052 -0.0395  0.2879
 2487POSM   D2B29184  26.129   0.730  12.908  0.0036  0.0662 -0.0968
 2487POSM   C3B29185  25.757   0.563  12.617 -0.0692 -0.3348  0.1684
 2487POSM   C4B29186  25.589   0.620  12.161  0.2308  0.0099  0.0416
 2488POSM   NC329187  28.007   6.135  14.543 -0.3936 -0.1289  0.0716
 2488POSM   PO429188  28.215   5.851  14.673 -0.1910  0.0288 -0.3543
 2488POSM   AM129189  28.375   5.734  14.390 -0.0697 -0.1931 -0.3691
 2488POSM   AM229190  28.572   5.480  14.367 -0.1842 -0.0518  0.0287
 2488POSM   T1A29191  28.301   5.562  13.947 -0.0956 -0.0204  0.0764
 2488POSM   C2A29192  28.358   5.769  13.578 -0.0065 -0.0799  0.0482
 2488POSM   C3A29193  28.311   5.859  13.121  0.1218 -0.0696  0.0173
 2488POSM   C1B29194  28.746   5.452  14.080 -0.1448  0.0824 -0.1118
 2488POSM   D2B29195  28.787   5.436  13.599 -0.2321  0.2584 -0.0746
 2488POSM   C3B29196  29.194   5.545  13.401 -0.0418 -0.0077 -0.0551
 2488POSM   C4B29197  29.454   5.260  13.177  0.2834  0.0989 -0.0871
 2489DOPC   NC329198  30.343   6.978  15.365 -0.0382  0.0316 -0.3121
 2489DOPC   PO429199  29.921   7.040  15.366  0.2964 -0.1372 -0.3886
 2489DOPC   GL129200  30.042   7.331  15.072 -0.0668 -0.2081  0.0148
 2489DOPC   GL229201  30.031   7.058  14.846 -0.1924 -0.1150  0.3700
 2489DOPC   C1A29202  29.961   7.542  14.626 -0.3195  0.2193 -0.2908
 2489DOPC   D2A29203  29.958   7.745  14.219 -0.0453 -0.2034  0.4222
 2489DOPC   C3A29204  30.212   8.131  14.285 -0.2336  0.0247 -0.1088
 2489DOPC   C4A29205  30.660   8.086  14.371 -0.2795  0.2801 -0.1877
 2489DOPC   C1B29206  29.765   7.009  14.437  0.3096  0.2022 -0.0641
 2489DOPC   D2B29207  29.820   7.138  14.043 -0.0055 -0.1323 -0.0492
 2489DOPC   C3B29208  29.852   7.525  13.752 -0.3508  0.2290  0.2432
 2489DOPC   C4B29209  30.124   7.915  13.801 -0.1248 -0.0795  0.4476
 2490DOPC   NC329210  27.543   8.079  14.526  0.0730  0.2218 -0.2712
 2490DOPC   PO429211  27.289   8.206  14.241  0.2135  0.3357  0.0454
 2490DOPC   GL129212  27.109   8.241  13.858  0.0205  0.0127 -0.0445
 2490DOPC   GL229213  26.758   8.214  13.861  0.0165  0.3238  0.3732
 2490DOPC   C1A29214  26.971   7.883  13.596 -0.1888  0.1911 -0.0346
 2490DOPC   D2A29215  26.980   8.021  13.157 -0.0735  0.1805 -0.1485
 2490DOPC   C3A29216  26.526   8.125  12.999 -0.0732 -0.1771  0.0897
 2490DOPC   C4A29217  26.199   8.036  12.711  0.1484  0.0731  0.0777
 2490DOPC   C1B29218  26.647   8.407  13.403  0.1050  0.0415  0.0252
 2490DOPC   D2B29219  26.802   8.569  13.046 -0.0913 -0.0311 -0.1433
 2490DOPC   C3B29220  26.958   9.002  12.971 -0.1090  0.1302  0.3213
 2490DOPC   C4B29221  27.060   9.451  12.814 -0.0379 -0.0924 -0.1635
 2491POSM   NC329222  24.873  12.373  13.733 -0.0413  0.3034  0.0516
 2491POSM   PO429223  25.049  12.206  13.451  0.1404  0.3044 -0.1275
 2491POSM   AM129224  25.119  12.029  13.209  0.0764  0.4364 -0.1054
 2491POSM   AM229225  24.989  11.978  12.968 -0.1337  0.0555  0.0090
 2491POSM   T1A29226  25.478  11.935  12.913  0.1121  0.0810  0.0033
 2491POSM   C2A29227  25.480  11.726  12.483  0.3814  0.1123 -0.0626
 2491POSM   C3A29228  25.606  11.492  12.122  0.1961  0.0071 -0.0921
 2491POSM   C1B29229  25.039  11.891  12.660  0.2427 -0.0766 -0.0861
 2491POSM   D2B29230  25.057  11.606  12.277 -0.0781  0.0377 -0.0567
 2491POSM   C3B29231  24.844  11.225  12.222 -0.1567  0.1170 -0.1875
 2491POSM   C4B29232  24.959  10.823  12.132 -0.2420  0.1296 -0.1084
 2492DOPC   NC329233  31.542   3.343  15.539 -0.0135  0.0117 -0.0704
 2492DOPC   PO429234  31.227   3.136  15.637 -0.0695 -0.0720  0.0973
 2492DOPC   GL129235  31.158   3.089  15.281 -0.0738  0.4648  0.1292
 2492DOPC   GL229236  30.933   3.276  15.195  0.2909 -0.1177  0.1005
 2492DOPC   C1A29237  31.424   3.302  14.957  0.0242 -0.2614  0.1090
 2492DOPC   D2A29238  31.392   3.377  14.506  0.1352  0.4576 -0.0210
 2492DOPC   C3A29239  31.282   3.679  14.160  0.2381  0.0706 -0.0150
 2492DOPC   C4A29240  30.987   3.900  13.812  0.2770 -0.2281 -0.0829
 2492DOPC   C1B29241  30.926   3.470  14.842 -0.0402 -0.0650 -0.2498
 2492DOPC   D2B29242  30.931   3.416  14.382  0.0631  0.0760 -0.1811
 2492DOPC   C3B29243  30.590   3.684  14.152  0.0932 -0.2196  0.0010
 2492DOPC   C4B29244  30.535   4.067  13.911  0.0002  0.0360 -0.0910
 2493POSM   NC329245  23.495   9.168  13.603 -0.0175 -0.1467 -0.0632
 2493POSM   PO429246  23.551   9.570  13.530  0.2362 -0.1012  0.2114
 2493POSM   AM129247  23.554   9.529  13.194  0.3429 -0.0606 -0.1672
 2493POSM   AM229248  23.563   9.659  12.927 -0.2251  0.0982  0.1610
 2493POSM   T1A29249  23.820   9.248  12.860  0.3726  0.0890 -0.0971
 2493POSM   C2A29250  23.894   8.854  12.688 -0.0211  0.1134  0.1466
 2493POSM   C3A29251  23.844   8.493  12.410  0.0639 -0.0676 -0.2955
 2493POSM   C1B29252  23.658   9.803  12.693 -0.1022  0.3647 -0.0932
 2493POSM   D2B29253  23.795   9.946  12.309 -0.2222  0.0948 -0.3259
 2493POSM   C3B29254  23.981   9.562  12.115  0.3090  0.1375 -0.0172
 2493POSM   C4B29255  24.333   9.257  11.961 -0.0725  0.1871  0.0533
 2494DOPC   NC329256  26.151   5.249  13.672 -0.0771 -0.0826 -0.0384
 2494DOPC   PO429257  25.801   5.085  13.802 -0.0673 -0.0703 -0.0747
 2494DOPC   GL129258  25.809   5.089  13.423 -0.0379  0.2863  0.0058
 2494DOPC   GL229259  25.741   4.769  13.392  0.1313 -0.0096  0.4193
 2494DOPC   C1A29260  26.109   5.222  13.096  0.3659 -0.3938 -0.1438
 2494DOPC   D2A29261  26.376   5.615  13.165  0.2344  0.3916 -0.1845
 2494DOPC   C3A29262  26.562   5.740  12.740  0.0216 -0.0043 -0.0118
 2494DOPC   C4A29263  26.732   5.940  12.363 -0.1017 -0.0410  0.2090
 2494DOPC   C1B29264  25.659   4.884  12.960  0.1413  0.0317  0.3740
 2494DOPC   D2B29265  25.527   5.181  12.614  0.0091 -0.0678  0.2623
 2494DOPC   C3B29266  25.498   5.166  12.137 -0.1480  0.2147  0.1259
 2494DOPC   C4B29267  25.688   4.927  11.804 -0.0740 -0.0111  0.1306
 2495POSM   NC329268  23.277  12.750  12.911  0.0464  0.0132  0.1466
 2495POSM   PO429269  23.433  12.387  12.950 -0.3706 -0.0846  0.3210
 2495POSM   AM129270  23.306  12.375  12.668 -0.3534 -0.4654  0.0355
 2495POSM   AM229271  23.133  12.496  12.502  0.0271  0.2443 -0.1078
 2495POSM   T1A29272  23.456  12.143  12.252 -0.1120 -0.0997 -0.1011
 2495POSM   C2A29273  23.676  12.098  11.905 -0.1319  0.0700  0.1597
 2495POSM   C3A29274  23.932  12.003  11.580  0.1219  0.0868 -0.2642
 2495POSM   C1B29275  23.103  12.496  12.153 -0.0566 -0.2049 -0.2958
 2495POSM   D2B29276  23.270  12.387  11.747  0.3820  0.1394 -0.0859
 2495POSM   C3B29277  23.147  12.429  11.350  0.3277 -0.1932  0.2295
 2495POSM   C4B29278  22.807  12.433  10.935  0.2845 -0.3391 -0.2030
 2496DOPE   NH329279  28.139   7.219  14.326  0.0232  0.0382  0.0677
 2496DOPE   PO429280  27.874   7.401  14.406  0.0939 -0.0272 -0.0257
 2496DOPE   GL129281  27.783   7.384  14.008  0.2687 -0.2092  0.2216
 2496DOPE   GL229282  28.028   7.545  13.947 -0.2014  0.0835 -0.0251
 2496DOPE   C1A29283  27.495   7.592  13.694  0.3124  0.1055  0.2658
 2496DOPE   D2A29284  27.190   7.434  13.440 -0.1032  0.0778  0.0692
 2496DOPE   C3A29285  27.186   7.177  13.055  0.0033 -0.1203 -0.0052
 2496DOPE   C4A29286  27.159   7.075  12.628  0.1532  0.3368 -0.1933
 2496DOPE   C1B29287  27.967   7.373  13.525 -0.4400 -0.0416 -0.1416
 2496DOPE   D2B29288  27.652   7.342  13.180 -0.0836  0.4962 -0.2647
 2496DOPE   C3B29289  27.414   7.504  12.814  0.0760  0.0782  0.1203
 2496DOPE   C4B29290  27.257   7.730  12.487  0.2467  0.2888  0.2867
 2497DOPC   NC329291  33.139   2.890  15.912  0.2400  0.0433  0.2629
 2497DOPC   PO429292  32.951   3.193  16.091 -0.1133 -0.2400 -0.0511
 2497DOPC   GL129293  33.044   3.298  15.709 -0.0836 -0.3707 -0.1184
 2497DOPC   GL229294  32.996   3.573  15.529 -0.1194 -0.1041  0.0015
 2497DOPC   C1A29295  33.115   3.188  15.288 -0.0658 -0.1093 -0.1420
 2497DOPC   D2A29296  33.354   3.160  14.919  0.1893 -0.4478  0.0624
 2497DOPC   C3A29297  33.335   2.983  14.487  0.2235 -0.0361 -0.1403
 2497DOPC   C4A29298  33.064   2.829  14.185 -0.1521 -0.2363 -0.1451
 2497DOPC   C1B29299  33.006   3.736  15.070  0.1140 -0.1276 -0.1911
 2497DOPC   D2B29300  33.192   3.688  14.637  0.0672  0.0327 -0.1306
 2497DOPC   C3B29301  33.665   3.678  14.620  0.1875 -0.1433  0.0967
 2497DOPC   C4B29302  34.066   3.600  14.413 -0.0049 -0.1870  0.1014
 2498DOPC   NC329303  28.953   2.427  15.059  0.0354 -0.1808  0.1378
 2498DOPC   PO429304  29.333   2.518  14.964  0.0487 -0.0286  0.2293
 2498DOPC   GL129305  29.522   2.610  14.731  0.2696 -0.1082  0.4693
 2498DOPC   GL229306  29.370   2.758  14.475  0.0597 -0.0846 -0.1096
 2498DOPC   C1A29307  29.786   2.374  14.481 -0.1008 -0.0668 -0.2098
 2498DOPC   D2A29308  30.161   2.364  14.253  0.0053 -0.3671  0.3101
 2498DOPC   C3A29309  30.315   2.009  14.006  0.1625  0.0238 -0.0602
 2498DOPC   C4A29310  30.059   1.664  13.736 -0.3680  0.1109  0.0052
 2498DOPC   C1B29311  29.509   2.954  14.076  0.0101  0.0594 -0.0048
 2498DOPC   D2B29312  29.685   3.001  13.609 -0.5401  0.2718 -0.0985
 2498DOPC   C3B29313  29.400   3.173  13.273 -0.1007  0.2225 -0.0361
 2498DOPC   C4B29314  29.380   3.583  13.088  0.0459  0.0237  0.2309
 2499DOPC   NC329315  26.956   6.929  14.341 -0.3075  0.3414 -0.1468
 2499DOPC   PO429316  26.756   6.684  14.091 -0.3040 -0.2105 -0.1587
 2499DOPC   GL129317  26.922   6.514  13.824 -0.1541 -0.2371  0.0728
 2499DOPC   GL229318  26.885   6.235  13.705  0.0935 -0.3523  0.0854
 2499DOPC   C1A29319  27.037   6.666  13.407  0.1096 -0.1428 -0.1871
 2499DOPC   D2A29320  27.028   6.627  12.918  0.1528  0.1521 -0.1454
 2499DOPC   C3A29321  26.698   6.753  12.649 -0.0718  0.0370 -0.0485
 2499DOPC   C4A29322  26.571   7.004  12.254 -0.1375  0.0179 -0.0887
 2499DOPC   C1B29323  27.045   6.070  13.297  0.1825 -0.3276 -0.1075
 2499DOPC   D2B29324  27.079   6.077  12.810 -0.2961  0.0876  0.2756
 2499DOPC   C3B29325  27.022   6.389  12.467  0.0346 -0.0039  0.0663
 2499DOPC   C4B29326  27.028   6.789  12.209  0.2446 -0.0270 -0.3909
 2500DOPC   NC329327  31.720  10.056  14.945 -0.1534  0.1400  0.2666
 2500DOPC   PO429328  31.580  10.101  14.584 -0.0307 -0.1800  0.0705
 2500DOPC   GL129329  31.566  10.085  14.226  0.0608  0.0517  0.1382
 2500DOPC   GL229330  31.711   9.876  14.150 -0.0819  0.2166  0.0214
 2500DOPC   C1A29331  31.558  10.416  13.925 -0.0973  0.2785 -0.3135
 2500DOPC   D2A29332  31.567  10.726  13.507  0.1348  0.0817 -0.1255
 2500DOPC   C3A29333  31.827  10.627  13.133  0.2340 -0.2466  0.0056
 2500DOPC   C4A29334  31.872  10.268  12.857 -0.1212  0.1604 -0.3168
 2500DOPC   C1B29335  31.939   9.931  13.698  0.2508  0.0912 -0.0277
 2500DOPC   D2B29336  32.189   9.729  13.402  0.0315 -0.1928  0.1648
 2500DOPC   C3B29337  32.262   9.951  12.954 -0.3600 -0.0606 -0.0237
 2500DOPC   C4B29338  32.327  10.273  12.654  0.2330  0.0922 -0.2033
 2501DOPS   CNO29339  30.472   5.013  15.665  0.1500  0.0810  0.2738
 2501DOPS   PO429340  30.607   5.367  15.634  0.1462  0.1981  0.1074
 2501DOPS   GL129341  30.706   5.362  15.263  0.3551 -0.1523  0.0395
 2501DOPS   GL229342  30.753   5.052  15.223  0.1536  0.0411 -0.1694
 2501DOPS   C1A29343  30.806   5.696  14.916  0.2525  0.0037 -0.1985
 2501DOPS   D2A29344  31.007   5.764  14.547  0.3514 -0.0735 -0.3382
 2501DOPS   C3A29345  31.059   5.914  14.115 -0.0278  0.1360  0.1016
 2501DOPS   C4A29346  31.000   6.182  13.756 -0.0750  0.1831  0.2829
 2501DOPS   C1B29347  30.724   5.145  14.790  0.0421 -0.1409  0.1421
 2501DOPS   D2B29348  30.627   5.290  14.370 -0.0433 -0.0638  0.0897
 2501DOPS   C3B29349  30.846   5.470  13.954 -0.1383  0.0258 -0.1272
 2501DOPS   C4B29350  31.166   5.701  13.705  0.0538  0.3030  0.0730
 2502DOPC   NC329351  28.938   3.978  14.338 -0.0558  0.2339 -0.3349
 2502DOPC   PO429352  28.539   4.068  14.408  0.0582  0.4095 -0.1038
 2502DOPC   GL129353  28.558   4.348  14.175  0.0182  0.0769 -0.3771
 2502DOPC   GL229354  28.473   4.607  14.079 -0.0083 -0.1237  0.2178
 2502DOPC   C1A29355  28.610   4.253  13.689  0.0879 -0.1134 -0.2320
 2502DOPC   D2A29356  28.568   3.834  13.434  0.0286 -0.0464 -0.0250
 2502DOPC   C3A29357  28.933   3.583  13.514  0.2826  0.0974  0.1937
 2502DOPC   C4A29358  28.853   3.130  13.528 -0.3549 -0.1989 -0.3725
 2502DOPC   C1B29359  28.403   4.671  13.641  0.2453 -0.0090  0.2268
 2502DOPC   D2B29360  28.376   4.859  13.219 -0.3386 -0.0032 -0.1137
 2502DOPC   C3B29361  27.904   4.934  13.139 -0.0147 -0.2294  0.2516
 2502DOPC   C4B29362  27.777   4.919  12.699  0.0328  0.2533  0.0330
 2503DOPS   CNO29363  30.262   7.503  15.436 -0.2977  0.1302  0.0365
 2503DOPS   PO429364  30.490   7.416  15.134  0.0129  0.2505  0.3244
 2503DOPS   GL129365  30.412   7.316  14.820 -0.2047 -0.0746  0.0493
 2503DOPS   GL229366  30.503   7.533  14.594  0.0346  0.2046 -0.1113
 2503DOPS   C1A29367  30.304   7.073  14.438  0.2096 -0.1700  0.2156
 2503DOPS   D2A29368  30.309   6.974  13.961  0.0392 -0.1070  0.0442
 2503DOPS   C3A29369  30.023   7.058  13.616  0.2526  0.0990 -0.0400
 2503DOPS   C4A29370  29.826   6.805  13.264  0.0810 -0.0640  0.1303
 2503DOPS   C1B29371  30.454   7.617  14.185 -0.2096 -0.1984 -0.1912
 2503DOPS   D2B29372  30.516   7.426  13.815  0.0423  0.2673  0.0289
 2503DOPS   C3B29373  30.804   7.638  13.535  0.0165 -0.1623 -0.2033
 2503DOPS   C4B29374  31.054   7.636  13.204 -0.3915 -0.1978  0.0193
 2504POSM   NC329375   2.144   2.830  16.436  0.2287 -0.2156 -0.1580
 2504POSM   PO429376   2.476   2.587  16.503 -0.0620  0.3431 -0.1626
 2504POSM   AM129377   2.519   2.578  16.153  0.0325 -0.2629 -0.2666
 2504POSM   AM229378   2.518   2.340  15.961  0.1512 -0.1669 -0.2364
 2504POSM   T1A29379   2.452   2.808  15.746  0.1391 -0.5378  0.2874
 2504POSM   C2A29380   2.410   2.705  15.235  0.3787  0.2635  0.0206
 2504POSM   C3A29381   2.312   2.578  14.788 -0.0482 -0.2588  0.0272
 2504POSM   C1B29382   2.704   2.391  15.673 -0.0083  0.1340 -0.0691
 2504POSM   D2B29383   2.954   2.690  15.361 -0.2092 -0.0514 -0.0989
 2504POSM   C3B29384   2.900   2.916  14.932  0.4422  0.2085 -0.1895
 2504POSM   C4B29385   2.641   3.020  14.538  0.0250  0.3047 -0.3679
 2505DOPS   CNO29386  27.374   7.220  14.159 -0.2220  0.1441 -0.2040
 2505DOPS   PO429387  27.603   6.903  14.223  0.0495 -0.0603  0.0869
 2505DOPS   GL129388  27.634   6.951  13.915  0.0408  0.2902  0.2151
 2505DOPS   GL229389  27.925   6.920  13.786  0.1144  0.0515  0.2551
 2505DOPS   C1A29390  27.495   6.941  13.468 -0.1923  0.2156 -0.4029
 2505DOPS   D2A29391  27.681   6.771  13.093  0.1730  0.1382 -0.0650
 2505DOPS   C3A29392  27.734   6.981  12.688 -0.1659 -0.2336  0.2239
 2505DOPS   C4A29393  27.563   7.196  12.334 -0.1254  0.2531 -0.4246
 2505DOPS   C1B29394  28.096   6.895  13.340 -0.1951 -0.4911 -0.0260
 2505DOPS   D2B29395  28.163   6.933  12.908 -0.2194 -0.0369  0.2085
 2505DOPS   C3B29396  28.049   7.330  12.913 -0.0222 -0.0351  0.5012
 2505DOPS   C4B29397  28.003   7.710  13.013 -0.0692 -0.0616  0.0982
 2506DOPS   CNO29398  23.618   5.395  13.825  0.1182  0.0001 -0.1662
 2506DOPS   PO429399  23.686   5.060  13.668 -0.0473  0.2220  0.1122
 2506DOPS   GL129400  23.730   4.953  13.218  0.3345  0.5358  0.0335
 2506DOPS   GL229401  24.000   4.943  13.297  0.1133 -0.3233 -0.1699
 2506DOPS   C1A29402  23.874   5.012  12.761 -0.5373  0.1871 -0.0229
 2506DOPS   D2A29403  24.229   5.002  12.384 -0.0996 -0.1119  0.0570
 2506DOPS   C3A29404  24.391   4.833  11.980  0.2538 -0.1123 -0.1882
 2506DOPS   C4A29405  24.100   4.717  11.630 -0.0201 -0.0895  0.0577
 2506DOPS   C1B29406  24.315   4.882  13.032 -0.2474  0.1545 -0.0981
 2506DOPS   D2B29407  24.702   4.686  12.812  0.5022 -0.0376  0.1227
 2506DOPS   C3B29408  24.700   4.871  12.366 -0.1182  0.1738  0.1788
 2506DOPS   C4B29409  24.969   5.249  12.334  0.1669  0.0757  0.1257
 2507DOPE   NH329410  27.272   5.158  14.421 -0.0125  0.1586 -0.1695
 2507DOPE   PO429411  27.368   5.023  14.148 -0.1313 -0.0307 -0.2515
 2507DOPE   GL129412  27.601   4.978  13.899 -0.0796 -0.0651 -0.0298
 2507DOPE   GL229413  27.804   5.126  13.823  0.1890  0.0821 -0.1109
 2507DOPE   C1A29414  27.732   4.678  13.521  0.3103  0.0810 -0.1297
 2507DOPE   D2A29415  28.062   4.476  13.232 -0.1782 -0.1067 -0.1804
 2507DOPE   C3A29416  28.426   4.209  13.110 -0.0395  0.0210 -0.1406
 2507DOPE   C4A29417  28.403   3.797  12.964 -0.1094 -0.1946  0.2105
 2507DOPE   C1B29418  27.488   5.188  13.499 -0.0184 -0.2418  0.0077
 2507DOPE   D2B29419  27.562   5.302  13.028 -0.0053 -0.0156 -0.1558
 2507DOPE   C3B29420  27.251   5.025  12.736 -0.4099  0.0051 -0.1840
 2507DOPE   C4B29421  27.032   4.823  12.374 -0.1096 -0.2959  0.0537
 2508DOPE   NH329422  32.541   3.309  15.818 -0.0779 -0.1149  0.2297
 2508DOPE   PO429423  32.582   2.995  15.833 -0.2132 -0.0167 -0.2950
 2508DOPE   GL129424  32.572   2.950  15.413 -0.0212  0.2119 -0.2396
 2508DOPE   GL229425  32.488   3.250  15.367  0.0630  0.0516 -0.0440
 2508DOPE   C1A29426  32.691   2.915  14.965 -0.0421  0.1799 -0.2779
 2508DOPE   D2A29427  32.890   3.201  14.645 -0.0200  0.2126  0.2265
 2508DOPE   C3A29428  32.641   3.155  14.249  0.2946  0.0202 -0.1771
 2508DOPE   C4A29429  32.604   2.848  13.883  0.1808 -0.0398 -0.1376
 2508DOPE   C1B29430  32.633   3.470  15.069 -0.0443 -0.0054  0.3115
 2508DOPE   D2B29431  32.590   3.600  14.607  0.1978  0.1146 -0.0040
 2508DOPE   C3B29432  32.232   3.407  14.340 -0.1684 -0.0930  0.2674
 2508DOPE   C4B29433  32.066   3.144  14.000 -0.3983  0.2309 -0.2517
 2509DOPE   NH329434  29.930  11.105  14.062 -0.2690 -0.1934  0.0205
 2509DOPE   PO429435  29.877  10.873  13.812 -0.4915 -0.1170  0.5381
 2509DOPE   GL129436  29.633  10.939  13.478  0.2602  0.1649  0.2204
 2509DOPE   GL229437  29.566  10.633  13.478  0.2320 -0.1581  0.1181
 2509DOPE   C1A29438  29.268  10.951  13.213  0.1960 -0.0476 -0.4747
 2509DOPE   D2A29439  29.098  11.100  12.823  0.2368 -0.1578  0.0982
 2509DOPE   C3A29440  29.269  11.254  12.468 -0.1082  0.3105  0.0117
 2509DOPE   C4A29441  29.603  11.479  12.227  0.1049  0.0646 -0.1751
 2509DOPE   C1B29442  29.731  10.710  13.080 -0.2379 -0.0396 -0.0574
 2509DOPE   D2B29443  29.916  10.521  12.681 -0.0353  0.3315 -0.2383
 2509DOPE   C3B29444  29.783  10.780  12.359  0.1991 -0.2443 -0.2099
 2509DOPE   C4B29445  29.426  10.902  12.047  0.0197  0.3372  0.0843
 2510DOPC   NC329446  29.631   7.918  14.679 -0.3167  0.0794  0.0617
 2510DOPC   PO429447  29.370   8.110  14.907  0.1534  0.1078  0.2200
 2510DOPC   GL129448  29.128   8.021  14.531  0.0977 -0.3278 -0.3077
 2510DOPC   GL229449  29.313   8.008  14.308 -0.1773 -0.2600  0.2569
 2510DOPC   C1A29450  28.888   7.844  14.137 -0.3326 -0.0034  0.2050
 2510DOPC   D2A29451  28.854   7.816  13.701 -0.0949 -0.0421  0.2929
 2510DOPC   C3A29452  28.908   7.482  13.390 -0.1222 -0.1853 -0.1203
 2510DOPC   C4A29453  28.974   7.387  12.970  0.0936  0.1173  0.0089
 2510DOPC   C1B29454  29.653   8.074  13.965  0.0149 -0.1936 -0.1055
 2510DOPC   D2B29455  29.747   8.009  13.483  0.2006  0.3054  0.1619
 2510DOPC   C3B29456  29.822   7.622  13.296  0.0246  0.2641  0.1634
 2510DOPC   C4B29457  29.642   7.383  13.016 -0.2689 -0.2720  0.1162
 2511DOPC   NC329458  34.097   6.135  15.975 -0.0264 -0.1796  0.0174
 2511DOPC   PO429459  34.331   5.860  16.144  0.0288 -0.0138 -0.1472
 2511DOPC   GL129460  34.418   5.820  15.746  0.2168 -0.2661 -0.3058
 2511DOPC   GL229461  34.494   6.142  15.641 -0.4793  0.0447 -0.1135
 2511DOPC   C1A29462  34.259   5.780  15.313  0.2160  0.1690 -0.1857
 2511DOPC   D2A29463  33.945   5.580  15.072  0.1267 -0.1381 -0.1386
 2511DOPC   C3A29464  33.584   5.633  14.761 -0.0477  0.2110 -0.1961
 2511DOPC   C4A29465  33.286   5.647  14.392 -0.0824  0.2384  0.0779
 2511DOPC   C1B29466  34.796   6.160  15.308  0.0838  0.1235 -0.1576
 2511DOPC   D2B29467  35.119   6.038  15.020  0.0516 -0.0133 -0.0713
 2511DOPC   C3B29468  35.214   6.210  14.607  0.0902 -0.0481 -0.0276
 2511DOPC   C4B29469  35.502   6.179  14.301  0.0178  0.2514  0.0440
 2512POSM   NC329470  26.059   6.648  14.499  0.1120 -0.2294 -0.2245
 2512POSM   PO429471  26.264   6.528  14.181 -0.0288 -0.3041 -0.2432
 2512POSM   AM129472  26.189   6.416  13.883 -0.0445 -0.3450  0.4839
 2512POSM   AM229473  26.351   6.226  13.718 -0.2267  0.1057 -0.0865
 2512POSM   T1A29474  26.060   6.482  13.406 -0.1285 -0.1942 -0.0529
 2512POSM   C2A29475  26.137   6.657  12.959  0.0192  0.2719 -0.0430
 2512POSM   C3A29476  25.904   6.517  12.601  0.1203 -0.0015 -0.2404
 2512POSM   C1B29477  26.485   6.106  13.404  0.1259  0.0984  0.1556
 2512POSM   D2B29478  26.648   6.312  13.041  0.2454  0.0019 -0.1559
 2512POSM   C3B29479  26.637   6.827  13.193  0.3771 -0.1431 -0.1807
 2512POSM   C4B29480  26.756   7.273  13.336  0.0905 -0.2955 -0.1802
 2513POSM   NC329481  26.331   8.983  14.445 -0.0283  0.1516 -0.1114
 2513POSM   PO429482  26.423   8.660  14.184 -0.1211 -0.2163 -0.1313
 2513POSM   AM129483  26.603   8.678  13.893  0.2474  0.2735 -0.5505
 2513POSM   AM229484  26.833   8.736  13.749 -0.0697 -0.0009 -0.2268
 2513POSM   T1A29485  26.519   8.927  13.461  0.2339  0.0595 -0.0366
 2513POSM   C2A29486  26.422   9.038  13.014  0.2176  0.0419  0.1130
 2513POSM   C3A29487  26.190   9.152  12.664 -0.0761 -0.0998 -0.3613
 2513POSM   C1B29488  27.032   8.825  13.472 -0.0132  0.1291  0.4137
 2513POSM   D2B29489  27.395   8.747  13.149  0.2398 -0.0836  0.2387
 2513POSM   C3B29490  27.273   8.654  12.721 -0.0238  0.1374  0.2029
 2513POSM   C4B29491  26.975   8.689  12.378 -0.0196  0.0610  0.3274
 2514DOPE   NH329492  25.668   4.707  14.109 -0.2814  0.2005  0.0309
 2514DOPE   PO429493  25.614   4.539  13.853  0.3096  0.1889 -0.1593
 2514DOPE   GL129494  25.786   4.288  13.529  0.1966 -0.0571  0.0114
 2514DOPE   GL229495  25.605   4.269  13.291  0.2509 -0.0213  0.1585
 2514DOPE   C1A29496  26.180   4.063  13.337 -0.0625  0.2545  0.1503
 2514DOPE   D2A29497  26.415   4.245  12.939  0.0650 -0.0838 -0.0546
 2514DOPE   C3A29498  26.388   4.636  12.740 -0.0872  0.2286  0.2800
 2514DOPE   C4A29499  26.075   4.937  12.713  0.4123 -0.2721 -0.1089
 2514DOPE   C1B29500  25.792   4.051  12.930  0.1593  0.1464 -0.1919
 2514DOPE   D2B29501  25.669   3.730  12.650 -0.2459 -0.1143 -0.1178
 2514DOPE   C3B29502  25.961   3.796  12.254 -0.1970  0.2095 -0.1029
 2514DOPE   C4B29503  26.268   3.708  11.969  0.3095  0.0221  0.1403
 2515DOPE   NH329504  23.853   6.271  14.168  0.2600 -0.1410  0.2247
 2515DOPE   PO429505  23.764   6.520  14.030 -0.0235  0.0343  0.1163
 2515DOPE   GL129506  23.813   6.692  13.617 -0.0821  0.0124 -0.0546
 2515DOPE   GL229507  23.549   6.691  13.428 -0.0427 -0.1218 -0.1352
 2515DOPE   C1A29508  23.924   6.475  13.248 -0.0062 -0.2891  0.1692
 2515DOPE   D2A29509  23.917   6.340  12.865  0.0571 -0.0124  0.3014
 2515DOPE   C3A29510  23.892   6.816  12.724 -0.0014  0.0673  0.0711
 2515DOPE   C4A29511  23.588   7.158  12.716 -0.3389 -0.2482  0.2813
 2515DOPE   C1B29512  23.378   6.680  13.024 -0.2305 -0.0036  0.0065
 2515DOPE   D2B29513  23.059   6.492  12.687 -0.0373 -0.2751  0.1251
 2515DOPE   C3B29514  22.978   6.432  12.257  0.2594 -0.0697  0.3564
 2515DOPE   C4B29515  22.998   6.069  11.943  0.1538  0.0549  0.0909
 2516DOPE   NH329516  27.674  13.268  13.473  0.1984  0.1988 -0.3094
 2516DOPE   PO429517  27.863  13.492  13.307  0.3931  0.3905 -0.4899
 2516DOPE   GL129518  27.920  13.739  13.099  0.2552  0.1553  0.2471
 2516DOPE   GL229519  27.803  13.552  12.839 -0.1416  0.1079 -0.2666
 2516DOPE   C1A29520  27.611  14.007  12.805 -0.2849 -0.2483 -0.1154
 2516DOPE   D2A29521  27.428  14.345  12.503 -0.0959 -0.0645 -0.1086
 2516DOPE   C3A29522  27.061  14.363  12.189  0.0368 -0.1216  0.2027
 2516DOPE   C4A29523  26.839  14.420  11.776  0.0802 -0.1598 -0.3277
 2516DOPE   C1B29524  28.018  13.185  12.595  0.0113 -0.2621  0.1644
 2516DOPE   D2B29525  28.121  13.049  12.131 -0.0493  0.1249 -0.0090
 2516DOPE   C3B29526  28.000  12.818  11.809 -0.3850  0.0561  0.4827
 2516DOPE   C4B29527  27.817  12.985  11.446 -0.2120  0.0649  0.1370
 2517DOPC   NC329528  23.906   0.683  13.453 -0.1364 -0.3395  0.0004
 2517DOPC   PO429529  23.594   0.873  13.418  0.2971  0.2195  0.4614
 2517DOPC   GL129530  23.487   0.773  13.103 -0.2592  0.1212 -0.0901
 2517DOPC   GL229531  23.257   0.708  13.085  0.0415  0.0767  0.1256
 2517DOPC   C1A29532  23.264   0.830  12.651  0.0311  0.3771 -0.0916
 2517DOPC   D2A29533  23.102   0.867  12.160  0.1904 -0.4112 -0.1360
 2517DOPC   C3A29534  22.588   0.777  12.177 -0.2170  0.2097  0.1147
 2517DOPC   C4A29535  22.315   0.572  12.512  0.0409  0.0060  0.0879
 2517DOPC   C1B29536  23.190   0.336  12.825  0.1036  0.1937 -0.1447
 2517DOPC   D2B29537  23.127   0.075  12.427 -0.0912 -0.1613  0.1072
 2517DOPC   C3B29538  22.984   0.401  12.126 -0.1697 -0.2541  0.1087
 2517DOPC   C4B29539  22.842   0.598  11.717  0.1101 -0.2199  0.0779
 2518DOPC   NC329540  24.545   6.291  13.752 -0.1115 -0.0725  0.3626
 2518DOPC   PO429541  24.864   6.243  13.545  0.1438 -0.0281 -0.0208
 2518DOPC   GL129542  25.110   5.972  13.367 -0.1393  0.1456  0.0712
 2518DOPC   GL229543  24.973   6.043  13.110 -0.0777 -0.0377  0.0279
 2518DOPC   C1A29544  25.267   5.587  13.139  0.2464  0.2189  0.1997
 2518DOPC   D2A29545  25.126   5.663  12.737 -0.0265  0.1708  0.0075
 2518DOPC   C3A29546  25.381   5.591  12.337 -0.0319  0.2523 -0.0504
 2518DOPC   C4A29547  25.659   5.796  12.040  0.1178 -0.0855 -0.0846
 2518DOPC   C1B29548  24.974   6.175  12.668  0.1718 -0.0420 -0.1955
 2518DOPC   D2B29549  24.973   6.435  12.309  0.1728 -0.1560 -0.3765
 2518DOPC   C3B29550  24.613   6.634  12.137 -0.0723  0.0062  0.0693
 2518DOPC   C4B29551  24.278   6.603  11.851  0.0155  0.0447  0.0870
 2519POSM   NC329552  25.914   3.044  14.154 -0.1399 -0.3211 -0.1530
 2519POSM   PO429553  25.624   2.996  13.878  0.2011  0.0484  0.2489
 2519POSM   AM129554  25.821   2.932  13.602 -0.4839  0.1315 -0.2012
 2519POSM   AM229555  25.907   2.708  13.431  0.0177  0.1111  0.1129
 2519POSM   T1A29556  26.160   3.232  13.306 -0.1298 -0.0109 -0.0271
 2519POSM   C2A29557  26.459   3.366  12.931 -0.1076 -0.1432 -0.4112
 2519POSM   C3A29558  26.766   3.026  12.668 -0.0288 -0.2295  0.0845
 2519POSM   C1B29559  25.844   2.801  13.120 -0.0633  0.0824  0.1951
 2519POSM   D2B29560  25.855   3.232  12.949  0.1729 -0.0815 -0.0643
 2519POSM   C3B29561  25.904   3.326  12.493 -0.1771 -0.1858 -0.0132
 2519POSM   C4B29562  25.583   3.435  12.177 -0.0893  0.2042 -0.3081
 2520DOPC   NC329563  24.926  10.455  13.117  0.2800 -0.2431 -0.0293
 2520DOPC   PO429564  24.641  10.638  13.300 -0.2037  0.2098 -0.2909
 2520DOPC   GL129565  24.512  10.558  12.879  0.1547 -0.2895 -0.0254
 2520DOPC   GL229566  24.265  10.790  12.718  0.3875  0.1551 -0.1528
 2520DOPC   C1A29567  24.568  10.415  12.430 -0.1625 -0.1960  0.2106
 2520DOPC   D2A29568  24.677  10.361  12.028 -0.0147 -0.4463 -0.0597
 2520DOPC   C3A29569  24.547  10.104  11.685 -0.0841 -0.0130 -0.0463
 2520DOPC   C4A29570  24.365   9.662  11.610  0.1796 -0.0816 -0.0832
 2520DOPC   C1B29571  24.161  10.850  12.286 -0.0573  0.3140 -0.0855
 2520DOPC   D2B29572  24.507  10.883  11.970 -0.0566 -0.0333 -0.1267
 2520DOPC   C3B29573  24.739  11.119  11.718  0.0573 -0.2247 -0.0262
 2520DOPC   C4B29574  24.894  11.505  11.802 -0.2531 -0.1209 -0.1456
 2521DOPE   NH329575  30.583   1.619  15.736  0.0598  0.2038  0.4526
 2521DOPE   PO429576  30.810   1.741  15.549  0.1612  0.1826  0.0280
 2521DOPE   GL129577  30.868   2.017  15.252 -0.0822  0.2706  0.0953
 2521DOPE   GL229578  30.968   2.301  15.387  0.1110 -0.1902  0.0710
 2521DOPE   C1A29579  31.027   2.140  14.839  0.0465  0.1588 -0.0963
 2521DOPE   D2A29580  31.094   2.333  14.475  0.1146 -0.1508 -0.4165
 2521DOPE   C3A29581  31.409   2.205  14.232 -0.2229  0.3916  0.1908
 2521DOPE   C4A29582  31.758   2.280  13.944  0.2217  0.0272  0.0029
 2521DOPE   C1B29583  31.163   2.623  15.100 -0.0694 -0.0190  0.1927
 2521DOPE   D2B29584  31.093   2.915  14.723  0.1362  0.0336 -0.2564
 2521DOPE   C3B29585  31.429   2.729  14.514 -0.0988  0.3330  0.2894
 2521DOPE   C4B29586  31.850   2.492  14.420 -0.0715 -0.0086 -0.1085
 2522DOPC   NC329587  27.963   8.763  14.273 -0.0359  0.2617 -0.0660
 2522DOPC   PO429588  27.854   8.414  14.194  0.1826  0.3355  0.1631
 2522DOPC   GL129589  27.765   8.319  13.796  0.0706 -0.0367  0.4291
 2522DOPC   GL229590  27.579   8.055  13.841 -0.2217 -0.2936  0.1512
 2522DOPC   C1A29591  27.850   8.429  13.337  0.2275  0.2172  0.3082
 2522DOPC   D2A29592  28.055   8.260  12.929  0.1874 -0.1587  0.0611
 2522DOPC   C3A29593  28.193   8.430  12.548 -0.0733 -0.1611  0.0933
 2522DOPC   C4A29594  28.575   8.651  12.453  0.0979  0.1865 -0.1938
 2522DOPC   C1B29595  27.382   8.193  13.493  0.0958  0.1434  0.1675
 2522DOPC   D2B29596  27.455   8.253  13.001 -0.1604  0.1618  0.1918
 2522DOPC   C3B29597  27.682   8.002  12.614 -0.0329 -0.2673  0.4832
 2522DOPC   C4B29598  27.830   7.586  12.560  0.1215  0.2570 -0.0313
 2523DOPE   NH329599  23.231   9.879  13.278  0.1469  0.0363 -0.3185
 2523DOPE   PO429600  23.180   9.992  12.987  0.0256  0.1363 -0.0829
 2523DOPE   GL129601  23.238  10.013  12.690 -0.0888 -0.4813  0.0738
 2523DOPE   GL229602  23.180   9.814  12.527  0.0849 -0.2139 -0.0294
 2523DOPE   C1A29603  23.518  10.376  12.543 -0.0065 -0.2396 -0.2795
 2523DOPE   D2A29604  23.692  10.552  12.149  0.0301 -0.1173  0.2422
 2523DOPE   C3A29605  23.608  10.478  11.746 -0.1908 -0.1094  0.0414
 2523DOPE   C4A29606  23.493  10.543  11.301 -0.2896 -0.1458  0.1287
 2523DOPE   C1B29607  23.395   9.658  12.149  0.2817 -0.4640 -0.0742
 2523DOPE   D2B29608  23.654   9.533  11.735 -0.2521  0.2132 -0.0315
 2523DOPE   C3B29609  24.002   9.258  11.584  0.0160  0.2276 -0.3437
 2523DOPE   C4B29610  24.229   9.005  11.295 -0.0514  0.1949 -0.0645
 2524DOPE   NH329611  33.605   2.328  15.974 -0.1000 -0.0236  0.0349
 2524DOPE   PO429612  33.532   2.596  16.049  0.4220  0.4260 -0.2046
 2524DOPE   GL129613  33.388   2.626  15.646 -0.1672 -0.2918 -0.2400
 2524DOPE   GL229614  33.241   2.360  15.611  0.2089  0.0648  0.1306
 2524DOPE   C1A29615  33.645   2.418  15.315 -0.1007 -0.1649 -0.1606
 2524DOPE   D2A29616  33.772   2.097  14.947  0.0995 -0.2692 -0.1879
 2524DOPE   C3A29617  33.950   2.347  14.588 -0.2157  0.3073 -0.0955
 2524DOPE   C4A29618  34.374   2.504  14.508 -0.0116  0.0043  0.0988
 2524DOPE   C1B29619  33.164   2.637  15.181  0.0271  0.0789 -0.1920
 2524DOPE   D2B29620  33.097   2.674  14.748 -0.3665  0.2353  0.0256
 2524DOPE   C3B29621  32.696   2.649  14.537  0.4523  0.2844  0.2401
 2524DOPE   C4B29622  32.247   2.506  14.759  0.1768 -0.0069 -0.1990
 2525DOPC   NC329623  27.528   2.928  13.984  0.0519  0.1757  0.2276
 2525DOPC   PO429624  27.165   2.882  13.919  0.0302 -0.4980 -0.0835
 2525DOPC   GL129625  27.201   2.776  13.535  0.2982 -0.3834 -0.3341
 2525DOPC   GL229626  27.480   2.784  13.447 -0.1738  0.0646  0.0716
 2525DOPC   C1A29627  27.087   2.849  13.083 -0.0254 -0.3373 -0.1659
 2525DOPC   D2A29628  27.304   3.090  12.811 -0.1370 -0.0827  0.0183
 2525DOPC   C3A29629  27.416   2.996  12.316 -0.2962 -0.0027 -0.0632
 2525DOPC   C4A29630  27.295   2.928  11.875  0.2748  0.1174 -0.0117
 2525DOPC   C1B29631  27.713   2.884  13.015 -0.0321  0.1094 -0.2620
 2525DOPC   D2B29632  27.916   2.923  12.623  0.1529  0.1919  0.1764
 2525DOPC   C3B29633  28.406   2.890  12.560  0.2552 -0.2925 -0.0774
 2525DOPC   C4B29634  28.852   2.908  12.655  0.1176 -0.0300  0.0102
 2526DOPC   NC329635  27.111   6.027  14.102  0.0526  0.2733 -0.0485
 2526DOPC   PO429636  27.477   6.099  14.073 -0.1352 -0.1188 -0.2679
 2526DOPC   GL129637  27.387   6.262  13.756 -0.1115  0.3866  0.0853
 2526DOPC   GL229638  27.453   6.519  13.795 -0.1828 -0.1780 -0.0367
 2526DOPC   C1A29639  27.385   6.388  13.304 -0.0976  0.1389  0.1512
 2526DOPC   D2A29640  27.488   6.409  12.834 -0.3796  0.1285  0.1013
 2526DOPC   C3A29641  27.445   6.071  12.509 -0.3339 -0.2245  0.1036
 2526DOPC   C4A29642  27.190   5.709  12.297  0.4562 -0.0929 -0.1592
 2526DOPC   C1B29643  27.806   6.532  13.497 -0.1920 -0.0640  0.3391
 2526DOPC   D2B29644  28.122   6.394  13.183 -0.0797  0.0118 -0.1043
 2526DOPC   C3B29645  28.514   6.606  13.011 -0.1647 -0.3819 -0.0524
 2526DOPC   C4B29646  28.941   6.597  12.807 -0.2286  0.3602  0.4727
 2527DOPC   NC329647  34.364  11.186  15.390 -0.0127 -0.2985  0.1141
 2527DOPC   PO429648  34.293  10.960  15.076  0.0494 -0.0971  0.0804
 2527DOPC   GL129649  34.215  10.747  14.732 -0.0443  0.1646  0.0972
 2527DOPC   GL229650  34.408  10.600  14.685  0.3588 -0.2248 -0.0626
 2527DOPC   C1A29651  33.860  10.687  14.447 -0.1055  0.1229 -0.0861
 2527DOPC   D2A29652  33.472  10.562  14.213 -0.3297 -0.2579  0.1016
 2527DOPC   C3A29653  33.492  10.393  13.776 -0.1049  0.3614 -0.1192
 2527DOPC   C4A29654  33.549  10.243  13.345  0.0294 -0.4531  0.2181
 2527DOPC   C1B29655  34.325  10.490  14.281  0.2261 -0.0399 -0.2666
 2527DOPC   D2B29656  33.956  10.433  13.997  0.0281  0.4325 -0.2794
 2527DOPC   C3B29657  33.914  10.104  13.701  0.0438 -0.1154 -0.0822
 2527DOPC   C4B29658  34.029   9.650  13.560 -0.0116 -0.3742 -0.1409
 2528DOPC   NC329659  23.057   3.486  13.554  0.0724  0.2457  0.0740
 2528DOPC   PO429660  22.827   3.171  13.691  0.4900  0.3964  0.2326
 2528DOPC   GL129661  22.821   2.889  13.365  0.5339  0.3721 -0.0514
 2528DOPC   GL229662  23.072   2.928  13.239 -0.1900 -0.0889  0.0870
 2528DOPC   C1A29663  22.697   2.858  12.935  0.0801  0.1592 -0.0954
 2528DOPC   D2A29664  22.602   2.852  12.436 -0.0613  0.1178  0.4415
 2528DOPC   C3A29665  22.263   2.895  12.119  0.0099  0.0337  0.1245
 2528DOPC   C4A29666  22.264   3.047  11.699  0.0171  0.0204  0.1562
 2528DOPC   C1B29667  22.902   3.312  13.062 -0.2547  0.0149  0.0660
 2528DOPC   D2B29668  22.559   3.423  12.752  0.3684  0.2533  0.0819
 2528DOPC   C3B29669  22.427   3.290  12.372 -0.1676  0.1562  0.0892
 2528DOPC   C4B29670  22.349   3.470  11.962 -0.1886  0.1700 -0.1167
 2529DOPC   NC329671  27.856   4.041  14.392 -0.3188 -0.1819  0.0158
 2529DOPC   PO429672  27.639   4.375  14.242  0.1789 -0.0980  0.0484
 2529DOPC   GL129673  27.810   4.245  13.892  0.2367 -0.2448  0.1419
 2529DOPC   GL229674  28.160   4.169  13.953 -0.2293  0.0138 -0.0894
 2529DOPC   C1A29675  27.669   4.186  13.482 -0.0361 -0.0334 -0.3447
 2529DOPC   D2A29676  27.889   4.024  13.093 -0.1382  0.2874 -0.0246
 2529DOPC   C3A29677  27.738   3.967  12.662  0.3657  0.3109 -0.0811
 2529DOPC   C4A29678  27.321   3.942  12.437 -0.0440 -0.1076 -0.0894
 2529DOPC   C1B29679  28.128   3.868  13.649 -0.2536  0.5786  0.1427
 2529DOPC   D2B29680  27.917   3.532  13.425 -0.0268  0.1938 -0.2468
 2529DOPC   C3B29681  28.001   3.520  12.971  0.2230 -0.0589  0.1801
 2529DOPC   C4B29682  28.039   3.641  12.533 -0.0098 -0.0437  0.1132
 2530DOPE   NH329683  32.376   6.875  15.946 -0.0140  0.0083  0.0901
 2530DOPE   PO429684  32.326   6.546  15.853  0.1452  0.0605  0.1218
 2530DOPE   GL129685  32.538   6.355  15.543  0.0035  0.0111  0.1227
 2530DOPE   GL229686  32.792   6.558  15.523 -0.0531 -0.2643 -0.2962
 2530DOPE   C1A29687  32.661   6.222  15.082 -0.1153  0.0704  0.0851
 2530DOPE   D2A29688  33.014   5.949  14.910  0.3157 -0.0458  0.0371
 2530DOPE   C3A29689  33.027   6.040  14.462 -0.0706 -0.1020  0.2503
 2530DOPE   C4A29690  33.131   6.351  14.047  0.0779  0.2232  0.0230
 2530DOPE   C1B29691  33.098   6.582  15.184 -0.0979  0.0013  0.2453
 2530DOPE   D2B29692  33.432   6.682  14.859  0.0046  0.1383  0.1910
 2530DOPE   C3B29693  33.691   6.460  14.560  0.0719 -0.3182 -0.3101
 2530DOPE   C4B29694  33.541   6.109  14.356 -0.1194 -0.1718  0.3123
 2531DOPE   NH329695  34.099   7.283  15.759  0.0960 -0.0559 -0.3212
 2531DOPE   PO429696  33.820   7.290  15.652  0.3867  0.1913  0.2182
 2531DOPE   GL129697  33.772   7.147  15.280  0.2818 -0.0996  0.1030
 2531DOPE   GL229698  33.997   7.319  15.218  0.0128  0.0824  0.1188
 2531DOPE   C1A29699  33.818   7.054  14.826  0.0322  0.0933  0.1084
 2531DOPE   D2A29700  33.775   6.970  14.383 -0.2163  0.1871  0.0889
 2531DOPE   C3A29701  33.644   6.599  14.115 -0.0755  0.4272  0.0425
 2531DOPE   C4A29702  33.718   6.219  13.900  0.0833  0.0253  0.3810
 2531DOPE   C1B29703  34.283   7.359  14.867 -0.0576  0.1923  0.0455
 2531DOPE   D2B29704  34.246   7.127  14.448  0.1921 -0.2230  0.1766
 2531DOPE   C3B29705  34.538   6.819  14.369 -0.1121  0.1683  0.0826
 2531DOPE   C4B29706  34.709   6.393  14.295  0.2125  0.2410  0.1833
 2532POSM   NC329707  27.418  10.386  14.115  0.5100  0.1773 -0.1807
 2532POSM   PO429708  27.612  10.130  14.281  0.0012  0.0821  0.4973
 2532POSM   AM129709  27.727  10.113  13.962 -0.2839 -0.0616  0.5255
 2532POSM   AM229710  27.592  10.120  13.722 -0.2779 -0.0606 -0.1394
 2532POSM   T1A29711  28.114  10.309  13.675  0.0931 -0.2138 -0.1094
 2532POSM   C2A29712  28.202  10.180  13.270 -0.2960  0.1294 -0.0399
 2532POSM   C3A29713  28.644  10.302  13.170 -0.0763 -0.0373 -0.2869
 2532POSM   C1B29714  27.805   9.962  13.447  0.0333  0.4856  0.1600
 2532POSM   D2B29715  27.897   9.820  13.006  0.0325 -0.0925 -0.6316
 2532POSM   C3B29716  28.187  10.096  12.783  0.1551 -0.2531 -0.2192
 2532POSM   C4B29717  28.274  10.254  12.349 -0.0703  0.2457  0.1734
 2533DOPC   NC329718  29.271   1.564  14.596 -0.0634  0.0848  0.0342
 2533DOPC   PO429719  28.884   1.649  14.568  0.2226  0.0731  0.0144
 2533DOPC   GL129720  28.956   1.804  14.229 -0.0458  0.0969  0.3408
 2533DOPC   GL229721  29.231   1.761  14.162 -0.0542 -0.0734  0.0872
 2533DOPC   C1A29722  28.506   1.909  14.049 -0.0704 -0.0719  0.1480
 2533DOPC   D2A29723  28.377   2.092  13.664 -0.0975  0.1192 -0.2241
 2533DOPC   C3A29724  28.272   2.323  13.293 -0.0501  0.0221 -0.3267
 2533DOPC   C4A29725  28.394   2.185  12.855 -0.1762  0.0706 -0.0379
 2533DOPC   C1B29726  29.316   2.184  14.094  0.0089 -0.0422  0.1147
 2533DOPC   D2B29727  29.684   2.501  14.063 -0.4092  0.2945  0.1533
 2533DOPC   C3B29728  29.932   2.840  14.345  0.0593 -0.2207  0.0840
 2533DOPC   C4B29729  29.839   3.021  14.737  0.1509 -0.2783 -0.1709
 2534POSM   NC329730  26.684   1.726  14.252  0.2234  0.0130  0.2187
 2534POSM   PO429731  26.686   1.414  14.051 -0.2195 -0.1312 -0.3315
 2534POSM   AM129732  26.451   1.401  13.805  0.0857  0.0286 -0.0997
 2534POSM   AM229733  26.285   1.228  13.659 -0.0349  0.1530  0.2467
 2534POSM   T1A29734  26.104   1.636  13.497 -0.0270 -0.2670 -0.2909
 2534POSM   C2A29735  26.110   2.118  13.436 -0.0518 -0.0026 -0.1146
 2534POSM   C3A29736  26.343   2.456  13.251 -0.0645 -0.2701 -0.0709
 2534POSM   C1B29737  26.187   1.178  13.357  0.1208 -0.2670 -0.1172
 2534POSM   D2B29738  26.285   1.455  12.935  0.0314 -0.1405  0.0976
 2534POSM   C3B29739  26.197   1.924  12.932 -0.1058  0.0976  0.2128
 2534POSM   C4B29740  26.144   2.306  12.676  0.0089  0.3330  0.1903
 2535POSM   NC329741  24.171  10.768  13.236  0.1701 -0.1448  0.3048
 2535POSM   PO429742  23.991  10.439  13.255  0.1217 -0.0621 -0.0306
 2535POSM   AM129743  24.117  10.309  12.977  0.3669  0.0402 -0.0207
 2535POSM   AM229744  23.996  10.218  12.716 -0.0863  0.0672  0.0249
 2535POSM   T1A29745  24.495  10.112  12.825 -0.1563  0.0577  0.0710
 2535POSM   C2A29746  24.957  10.145  12.688  0.1957 -0.2794 -0.0064
 2535POSM   C3A29747  25.155  10.348  12.305  0.1811 -0.2393 -0.1002
 2535POSM   C1B29748  24.072  10.352  12.397 -0.1067 -0.4030  0.0023
 2535POSM   D2B29749  24.208  10.450  12.006  0.2579 -0.1613  0.1809
 2535POSM   C3B29750  24.409  10.551  11.579 -0.2222 -0.3325  0.3331
 2535POSM   C4B29751  24.392  10.475  11.130  0.0529  0.0114 -0.3193
 2536DOPS   CNO29752  28.896   7.547  14.573 -0.1536  0.1256  0.3563
 2536DOPS   PO429753  29.253   7.581  14.637  0.2085  0.1188  0.2714
 2536DOPS   GL129754  29.273   7.517  14.259 -0.3319 -0.2251 -0.0282
 2536DOPS   GL229755  29.521   7.485  14.188 -0.2098  0.0094  0.1257
 2536DOPS   C1A29756  29.022   7.374  13.917 -0.2393 -0.0277  0.2179
 2536DOPS   D2A29757  28.975   6.953  13.669  0.0155 -0.3156  0.0959
 2536DOPS   C3A29758  29.268   6.679  13.789  0.0336  0.0900 -0.2015
 2536DOPS   C4A29759  29.763   6.613  13.721 -0.2569 -0.0347  0.1381
 2536DOPS   C1B29760  29.380   7.694  13.818 -0.1439  0.0642  0.0806
 2536DOPS   D2B29761  29.302   7.826  13.346  0.7582  0.1439  0.0862
 2536DOPS   C3B29762  29.104   7.860  12.931 -0.0120  0.0043 -0.0172
 2536DOPS   C4B29763  28.795   7.766  12.618  0.2106 -0.1480 -0.0214
 2537DOPC   NC329764  24.317  10.059  13.411  0.2306  0.1930  0.2110
 2537DOPC   PO429765  24.354   9.700  13.598  0.0335 -0.1734 -0.0651
 2537DOPC   GL129766  24.450   9.603  13.234 -0.3534  0.0855 -0.0045
 2537DOPC   GL229767  24.226   9.640  13.003  0.0742 -0.3300 -0.2676
 2537DOPC   C1A29768  24.663   9.574  12.805  0.0397  0.0998  0.0438
 2537DOPC   D2A29769  25.122   9.549  12.686  0.0348 -0.4256  0.0471
 2537DOPC   C3A29770  25.306   9.752  12.315  0.2314 -0.0594  0.2326
 2537DOPC   C4A29771  25.593   9.771  12.009  0.1033  0.1304  0.0591
 2537DOPC   C1B29772  24.163   9.728  12.546 -0.3817 -0.0667 -0.0420
 2537DOPC   D2B29773  24.334   9.914  12.191 -0.2895 -0.1675  0.0670
 2537DOPC   C3B29774  24.018   9.963  11.843  0.2642  0.1273 -0.3274
 2537DOPC   C4B29775  23.969  10.228  11.512 -0.5437 -0.2111 -0.1277
 2538DOPE   NH329776  27.470   9.625  14.374  0.1049 -0.4074 -0.0644
 2538DOPE   PO429777  27.450   9.454  14.080 -0.1340  0.3989 -0.1841
 2538DOPE   GL129778  27.542   9.609  13.738 -0.2716 -0.5044  0.1416
 2538DOPE   GL229779  27.354   9.719  13.528 -0.1313 -0.3912 -0.0927
 2538DOPE   C1A29780  27.758   9.427  13.412  0.0768 -0.2444  0.0930
 2538DOPE   D2A29781  28.134   9.409  13.127  0.1663  0.3320  0.2550
 2538DOPE   C3A29782  28.295   9.532  12.681 -0.0083  0.2269  0.0676
 2538DOPE   C4A29783  28.354   9.480  12.233  0.1214 -0.0518 -0.0372
 2538DOPE   C1B29784  27.387   9.697  13.080 -0.2175 -0.0445  0.1189
 2538DOPE   D2B29785  27.390   9.837  12.638 -0.3161 -0.1780 -0.2566
 2538DOPE   C3B29786  27.416   9.570  12.285  0.1903 -0.0615  0.0233
 2538DOPE   C4B29787  27.342   9.322  11.927 -0.2295  0.0656 -0.0400
 2539DOPE   NH329788  27.963   2.565  14.127  0.0071  0.2719  0.1459
 2539DOPE   PO429789  28.014   2.849  14.208 -0.2836  0.1955 -0.2459
 2539DOPE   GL129790  28.302   2.921  13.880  0.1375  0.1173  0.2217
 2539DOPE   GL229791  28.518   3.070  13.987 -0.0861  0.2375  0.0331
 2539DOPE   C1A29792  28.391   2.876  13.447  0.1287  0.3484 -0.0449
 2539DOPE   D2A29793  28.607   2.939  13.081  0.1679 -0.0461 -0.0315
 2539DOPE   C3A29794  28.918   3.289  13.042  0.0481 -0.1327 -0.0619
 2539DOPE   C4A29795  28.866   3.699  12.949 -0.0133 -0.1599 -0.1042
 2539DOPE   C1B29796  28.902   3.335  14.015 -0.0079  0.3110  0.2660
 2539DOPE   D2B29797  29.266   3.633  14.191  0.1170  0.1754  0.2186
 2539DOPE   C3B29798  29.590   3.864  14.404 -0.1532 -0.0169  0.1078
 2539DOPE   C4B29799  29.947   4.133  14.612 -0.0123  0.2853  0.2385
 2540DOPC   NC329800  29.805   5.226  15.173 -0.0952 -0.1319 -0.1977
 2540DOPC   PO429801  29.802   5.657  15.135 -0.0771 -0.1986 -0.0896
 2540DOPC   GL129802  29.903   5.499  14.766  0.0655 -0.0283  0.0638
 2540DOPC   GL229803  30.141   5.277  14.817 -0.2667 -0.1691  0.1896
 2540DOPC   C1A29804  30.199   5.724  14.494 -0.0646  0.0909  0.0198
 2540DOPC   D2A29805  30.585   5.764  14.262 -0.1497  0.1692 -0.1157
 2540DOPC   C3A29806  30.559   5.866  13.800 -0.2189 -0.1527 -0.0214
 2540DOPC   C4A29807  30.376   5.691  13.419 -0.1452 -0.2929  0.0212
 2540DOPC   C1B29808  30.176   4.950  14.551 -0.2339 -0.0848 -0.0249
 2540DOPC   D2B29809  30.474   4.821  14.265 -0.2862  0.3132  0.0096
 2540DOPC   C3B29810  30.456   4.558  13.904  0.0981  0.0130  0.2005
 2540DOPC   C4B29811  30.126   4.330  13.657  0.1227  0.2420 -0.0828
 2541POSM   NC329812  31.389   9.272  14.680 -0.0013  0.2120  0.3176
 2541POSM   PO429813  31.035   9.381  14.581  0.0915 -0.3241  0.2975
 2541POSM   AM129814  31.101   9.366  14.267  0.2505 -0.1881  0.1763
 2541POSM   AM229815  30.884   9.297  14.084  0.1276 -0.0494 -0.1249
 2541POSM   T1A29816  31.375   9.498  13.817 -0.1385 -0.2691 -0.0502
 2541POSM   C2A29817  31.355   9.729  13.389  0.3033  0.0922 -0.1504
 2541POSM   C3A29818  31.694   9.738  13.041 -0.3273 -0.0546  0.2892
 2541POSM   C1B29819  30.853   9.509  13.801  0.1203 -0.1187 -0.2913
 2541POSM   D2B29820  30.832   9.722  13.456  0.3198 -0.0251  0.3615
 2541POSM   C3B29821  30.972   9.791  13.044  0.2939  0.2649  0.1964
 2541POSM   C4B29822  31.013  10.113  12.691 -0.0887 -0.1291  0.2695
 2542POSM   NC329823  25.392  12.592  13.695 -0.1157 -0.0442 -0.2456
 2542POSM   PO429824  25.117  12.751  13.461 -0.3681  0.0329 -0.4721
 2542POSM   AM129825  25.232  12.658  13.159 -0.3394 -0.0014 -0.0415
 2542POSM   AM229826  25.307  12.799  12.916 -0.2647  0.0070 -0.0246
 2542POSM   T1A29827  25.281  12.366  12.767  0.0120 -0.4563  0.1252
 2542POSM   C2A29828  25.331  12.139  12.319  0.4546 -0.2084 -0.0275
 2542POSM   C3A29829  25.188  11.938  11.917 -0.0649 -0.0888  0.3045
 2542POSM   C1B29830  25.378  12.865  12.559  0.0802 -0.0399  0.0013
 2542POSM   D2B29831  25.556  12.803  12.080 -0.2424 -0.1116 -0.3370
 2542POSM   C3B29832  25.331  12.583  11.725  0.1154  0.0817  0.1211
 2542POSM   C4B29833  24.898  12.367  11.693  0.1679 -0.0931  0.1945
 2543DOPC   NC329834  31.371  11.460  14.420  0.2345  0.1350  0.0226
 2543DOPC   PO429835  31.262  11.367  14.051 -0.1353  0.0224 -0.2033
 2543DOPC   GL129836  31.373  11.402  13.668 -0.1556  0.0039  0.0221
 2543DOPC   GL229837  31.397  11.646  13.646 -0.2150 -0.0807 -0.0779
 2543DOPC   C1A29838  31.459  11.138  13.250  0.0104  0.0795 -0.0295
 2543DOPC   D2A29839  31.423  10.844  12.941 -0.2675 -0.2156 -0.2973
 2543DOPC   C3A29840  31.490  11.180  12.710  0.3355 -0.0886  0.2098
 2543DOPC   C4A29841  31.906  11.282  12.487 -0.2962 -0.2183  0.0337
 2543DOPC   C1B29842  31.049  11.605  13.431  0.0893 -0.0035  0.0228
 2543DOPC   D2B29843  30.638  11.471  13.312  0.1147  0.1073 -0.3115
 2543DOPC   C3B29844  30.424  11.159  13.115  0.1544 -0.1072  0.2195
 2543DOPC   C4B29845  30.225  10.996  12.734  0.2089 -0.2368  0.0128
 2544DOPS   CNO29846  27.747   6.655  14.606 -0.0645 -0.0635 -0.0748
 2544DOPS   PO429847  28.105   6.777  14.641  0.2264 -0.0678  0.0561
 2544DOPS   GL129848  28.077   6.812  14.168  0.0057 -0.2160  0.5953
 2544DOPS   GL229849  28.274   6.593  14.218  0.1434 -0.1938  0.0658
 2544DOPS   C1A29850  28.382   7.021  13.894 -0.0998 -0.1764 -0.1138
 2544DOPS   D2A29851  28.517   6.828  13.515  0.3336 -0.0243 -0.1882
 2544DOPS   C3A29852  28.455   7.218  13.210 -0.2997 -0.0221 -0.1044
 2544DOPS   C4A29853  28.472   7.411  12.766  0.3248  0.2895  0.1062
 2544DOPS   C1B29854  28.220   6.523  13.793 -0.2878  0.0719 -0.0948
 2544DOPS   D2B29855  28.488   6.214  13.516  0.2493  0.1710  0.0441
 2544DOPS   C3B29856  28.815   5.901  13.382  0.0324  0.0477 -0.3167
 2544DOPS   C4B29857  28.787   5.570  13.013  0.0965  0.1218  0.1531
 2545DOPE   NH329858  32.188   6.794  15.437 -0.2689 -0.1914  0.0471
 2545DOPE   PO429859  32.469   6.924  15.422  0.1366  0.1500  0.2922
 2545DOPE   GL129860  32.468   6.857  15.018  0.3369  0.0853  0.0326
 2545DOPE   GL229861  32.678   6.658  14.942 -0.0431 -0.0513  0.1177
 2545DOPE   C1A29862  32.183   6.822  14.651  0.1101 -0.1374 -0.0532
 2545DOPE   D2A29863  31.969   6.789  14.277 -0.1218 -0.1957 -0.0090
 2545DOPE   C3A29864  31.889   6.424  13.934 -0.1132 -0.1428 -0.0497
 2545DOPE   C4A29865  31.848   6.352  13.497  0.1274 -0.0684  0.3583
 2545DOPE   C1B29866  32.998   6.537  14.626  0.2298  0.0484 -0.0886
 2545DOPE   D2B29867  33.301   6.774  14.426  0.1605 -0.1294  0.0153
 2545DOPE   C3B29868  33.266   6.839  13.981 -0.4631 -0.0675  0.0184
 2545DOPE   C4B29869  33.368   6.596  13.637  0.1887  0.1220 -0.0587
 2546DOPS   CNO29870  26.738  10.858  14.122  0.1190 -0.0497 -0.1647
 2546DOPS   PO429871  26.460  10.732  13.910  0.1745  0.1578 -0.1889
 2546DOPS   GL129872  26.480  10.785  13.484  0.0234  0.1641  0.2238
 2546DOPS   GL229873  26.234  10.663  13.403 -0.2368  0.2166 -0.0636
 2546DOPS   C1A29874  26.584  10.788  13.052 -0.1216 -0.0820  0.0569
 2546DOPS   D2A29875  26.410  10.702  12.627  0.3784  0.2408 -0.0817
 2546DOPS   C3A29876  26.584  10.448  12.360 -0.3258  0.1500 -0.0301
 2546DOPS   C4A29877  26.717  10.590  11.871 -0.2849  0.0285 -0.1738
 2546DOPS   C1B29878  26.084  10.478  12.983 -0.1218 -0.3816  0.0629
 2546DOPS   D2B29879  25.795  10.474  12.675  0.0690 -0.3774  0.2539
 2546DOPS   C3B29880  25.906  10.627  12.260  0.1685 -0.0783  0.0541
 2546DOPS   C4B29881  25.696  10.776  11.896 -0.0662  0.0369 -0.0171
 2547DOPS   CNO29882  25.528   1.021  14.003  0.2765 -0.0817 -0.1918
 2547DOPS   PO429883  25.161   1.035  13.917  0.0842 -0.3097 -0.1849
 2547DOPS   GL129884  25.242   1.222  13.579 -0.0860 -0.2582  0.0970
 2547DOPS   GL229885  25.152   0.904  13.400 -0.0486  0.1151  0.3237
 2547DOPS   C1A29886  25.357   1.399  13.167 -0.3194 -0.1678  0.2372
 2547DOPS   D2A29887  25.162   1.586  12.752 -0.1110 -0.4123 -0.1832
 2547DOPS   C3A29888  25.323   1.740  12.376 -0.3109 -0.2291  0.0187
 2547DOPS   C4A29889  25.574   1.953  12.043  0.3752  0.2189 -0.2033
 2547DOPS   C1B29890  25.395   0.675  13.122  0.1302 -0.0817  0.1820
 2547DOPS   D2B29891  25.532   0.208  13.061 -0.2450  0.0592  0.1804
 2547DOPS   C3B29892  25.522   0.143  12.587 -0.2042 -0.0848  0.0764
 2547DOPS   C4B29893  25.641  -0.076  12.186  0.2227 -0.2716 -0.1537
 2548POSM   NC329894  26.038   7.796  14.311 -0.0368  0.0328  0.1779
 2548POSM   PO429895  25.858   7.474  14.187  0.0748  0.0629  0.3129
 2548POSM   AM129896  25.809   7.512  13.830  0.0655 -0.3923 -0.3647
 2548POSM   AM229897  25.976   7.497  13.596 -0.1749 -0.0873 -0.4691
 2548POSM   T1A29898  25.664   7.793  13.408 -0.1797 -0.0163  0.0482
 2548POSM   C2A29899  25.690   7.815  12.916 -0.1759  0.0007 -0.0924
 2548POSM   C3A29900  25.648   7.380  12.686  0.1354 -0.2425  0.1941
 2548POSM   C1B29901  26.050   7.590  13.235 -0.2453  0.0863 -0.0291
 2548POSM   D2B29902  26.156   7.562  12.819  0.2351  0.0938 -0.1589
 2548POSM   C3B29903  26.073   7.194  12.502  0.0760  0.3809 -0.0539
 2548POSM   C4B29904  25.771   7.101  12.179  0.2227 -0.1047  0.1404
 2549POSM   NC329905  31.449   8.483  14.889 -0.1490  0.2441 -0.3296
 2549POSM   PO429906  31.554   8.847  14.777  0.4876  0.0152  0.0333
 2549POSM   AM129907  31.607   8.787  14.458  0.0219 -0.2434 -0.3561
 2549POSM   AM229908  31.740   8.941  14.303 -0.3307  0.0450 -0.2358
 2549POSM   T1A29909  31.583   8.395  14.101 -0.0438  0.1032  0.2073
 2549POSM   C2A29910  31.557   8.203  13.685  0.1301 -0.1366  0.1879
 2549POSM   C3A29911  31.569   7.940  13.303  0.1173  0.0582  0.1830
 2549POSM   C1B29912  31.811   8.925  13.959 -0.2254 -0.0032 -0.2155
 2549POSM   D2B29913  31.782   8.759  13.507 -0.3669 -0.1190 -0.1890
 2549POSM   C3B29914  31.615   8.989  13.073 -0.1276 -0.0101  0.1489
 2549POSM   C4B29915  31.391   9.067  12.696 -0.2821  0.0005  0.2469
 2550DOPC   NC329916  25.117   2.878  13.852  0.0059 -0.0497  0.3483
 2550DOPC   PO429917  24.964   2.745  13.508 -0.2577 -0.1025 -0.1495
 2550DOPC   GL129918  24.727   2.543  13.220 -0.0311 -0.2036 -0.0873
 2550DOPC   GL229919  24.889   2.372  13.118 -0.0333  0.0841 -0.0792
 2550DOPC   C1A29920  24.461   2.805  12.929  0.1440  0.1613 -0.0571
 2550DOPC   D2A29921  24.371   3.263  12.853  0.1024 -0.0484 -0.0297
 2550DOPC   C3A29922  24.230   3.631  13.012 -0.0302  0.0004 -0.1521
 2550DOPC   C4A29923  24.431   4.060  13.092 -0.3448 -0.1882 -0.3806
 2550DOPC   C1B29924  24.863   2.574  12.699 -0.0641 -0.2276 -0.2297
 2550DOPC   D2B29925  24.815   2.437  12.243  0.1378 -0.1444 -0.0665
 2550DOPC   C3B29926  24.442   2.604  12.058  0.2527  0.2458  0.1287
 2550DOPC   C4B29927  23.986   2.581  12.138 -0.2412  0.1356 -0.0197
 2551POSM   NC329928  28.363  12.870  13.730  0.0333  0.1828  0.2252
 2551POSM   PO429929  28.570  12.497  13.630  0.2732  0.1012 -0.2242
 2551POSM   AM129930  28.404  12.488  13.308 -0.2282  0.4059 -0.0605
 2551POSM   AM229931  28.193  12.581  13.247  0.0633  0.0365  0.0525
 2551POSM   T1A29932  28.321  12.289  12.831 -0.0695 -0.0048  0.0231
 2551POSM   C2A29933  28.307  11.946  12.510 -0.0138 -0.0340  0.1295
 2551POSM   C3A29934  27.975  11.910  12.184 -0.1210 -0.2461 -0.1491
 2551POSM   C1B29935  28.152  12.736  12.984 -0.2403  0.0285 -0.0333
 2551POSM   D2B29936  28.110  12.661  12.502 -0.0171  0.2945  0.0123
 2551POSM   C3B29937  28.142  12.407  12.143 -0.1888 -0.3221 -0.0097
 2551POSM   C4B29938  28.228  12.038  11.792 -0.2190 -0.0387  0.0968
 2552DOPC   NC329939  31.481   7.823  15.487  0.2061 -0.1365  0.3044
 2552DOPC   PO429940  31.698   7.538  15.333 -0.1436  0.1099  0.0476
 2552DOPC   GL129941  31.699   7.423  15.018  0.3658 -0.1652  0.1177
 2552DOPC   GL229942  31.534   7.292  14.933  0.0802  0.0340 -0.0765
 2552DOPC   C1A29943  31.944   7.677  14.688 -0.3109  0.1190  0.3444
 2552DOPC   D2A29944  31.923   7.937  14.242 -0.2047  0.2342  0.1297
 2552DOPC   C3A29945  31.499   7.866  14.024  0.2107  0.3206  0.0473
 2552DOPC   C4A29946  31.358   7.637  13.624  0.2782 -0.0151 -0.0038
 2552DOPC   C1B29947  31.645   7.113  14.527  0.2343 -0.0835  0.0174
 2552DOPC   D2B29948  31.920   7.312  14.173 -0.1032  0.0892 -0.1049
 2552DOPC   C3B29949  31.815   7.057  13.821  0.2293  0.1187 -0.0884
 2552DOPC   C4B29950  31.630   6.799  13.510  0.1303  0.1038  0.0566
 2553POSM   NC329951  32.162   7.868  15.610  0.1677  0.1296 -0.0250
 2553POSM   PO429952  32.376   8.163  15.485  0.1870  0.0176  0.2519
 2553POSM   AM129953  32.386   8.052  15.173 -0.0303 -0.2913  0.3916
 2553POSM   AM229954  32.258   8.137  14.941 -0.0817 -0.0236 -0.0350
 2553POSM   T1A29955  32.518   7.724  14.827 -0.2533  0.0407  0.1616
 2553POSM   C2A29956  32.796   7.464  14.528  0.0572  0.1957  0.1528
 2553POSM   C3A29957  33.044   7.273  14.215 -0.0195  0.2081 -0.1070
 2553POSM   C1B29958  32.323   8.150  14.579 -0.0584 -0.1233  0.0043
 2553POSM   D2B29959  32.356   8.131  14.129  0.0624  0.0368  0.1804
 2553POSM   C3B29960  32.684   8.299  13.848  0.3873  0.1813  0.0949
 2553POSM   C4B29961  33.073   8.397  13.661 -0.1425 -0.0634 -0.0429
 2554POSM   NC329962  31.812   2.111  16.341 -0.1671  0.1701  0.1141
 2554POSM   PO429963  32.075   2.101  16.078 -0.0940 -0.1815 -0.0645
 2554POSM   AM129964  31.979   2.194  15.805  0.5483 -0.2567  0.1799
 2554POSM   AM229965  31.983   2.394  15.580 -0.0331 -0.0442 -0.0453
 2554POSM   T1A29966  31.821   1.915  15.426 -0.0192  0.0642  0.2247
 2554POSM   C2A29967  32.027   1.689  15.067  0.2175  0.1443 -0.1206
 2554POSM   C3A29968  31.999   1.548  14.554 -0.2378 -0.0477  0.2665
 2554POSM   C1B29969  32.272   2.527  15.424 -0.1278 -0.0789 -0.0035
 2554POSM   D2B29970  32.699   2.467  15.221  0.0745 -0.0719  0.0083
 2554POSM   C3B29971  32.779   2.278  14.850 -0.1261 -0.0005  0.0864
 2554POSM   C4B29972  32.918   1.935  14.634 -0.1696  0.0347  0.0536
 2555DOPC   NC329973  24.595   5.617  14.115  0.2298 -0.1340  0.4118
 2555DOPC   PO429974  24.370   5.751  13.789 -0.0468  0.1536  0.2691
 2555DOPC   GL129975  24.407   5.934  13.524  0.2349 -0.0433  0.0531
 2555DOPC   GL229976  24.618   5.807  13.382 -0.0623  0.3387 -0.2774
 2555DOPC   C1A29977  24.107   5.794  13.208 -0.0183 -0.0506  0.2302
 2555DOPC   D2A29978  23.701   5.781  12.871 -0.1040  0.1717 -0.2652
 2555DOPC   C3A29979  23.624   5.468  12.534  0.1085 -0.0622  0.0812
 2555DOPC   C4A29980  23.558   5.057  12.286  0.0611  0.2077  0.0355
 2555DOPC   C1B29981  24.516   5.775  12.987  0.1443  0.4254 -0.0296
 2555DOPC   D2B29982  24.178   5.986  12.686 -0.0373  0.4176 -0.2219
 2555DOPC   C3B29983  23.830   5.931  12.369  0.1197  0.3559  0.4756
 2555DOPC   C4B29984  23.476   6.122  12.083 -0.0443 -0.0531 -0.0733
 2556DOPE   NH329985  26.736   2.611  14.030 -0.2326 -0.0405  0.0276
 2556DOPE   PO429986  26.753   2.610  13.712 -0.0038  0.0094 -0.0770
 2556DOPE   GL129987  26.954   2.213  13.584  0.0138  0.2656  0.0606
 2556DOPE   GL229988  27.129   2.334  13.368 -0.1484 -0.0408  0.1061
 2556DOPE   C1A29989  26.995   1.727  13.487 -0.0960 -0.1694 -0.1087
 2556DOPE   D2A29990  26.942   1.317  13.619  0.0849 -0.0636  0.0379
 2556DOPE   C3A29991  26.773   0.956  13.461  0.0887 -0.1854  0.1728
 2556DOPE   C4A29992  26.556   0.950  13.063  0.0734  0.2077 -0.3002
 2556DOPE   C1B29993  27.360   2.429  12.976 -0.1233 -0.1044  0.1257
 2556DOPE   D2B29994  27.330   2.611  12.586 -0.1113  0.0989  0.1253
 2556DOPE   C3B29995  27.664   2.582  12.268 -0.0271 -0.1229 -0.0017
 2556DOPE   C4B29996  28.092   2.737  12.098 -0.1291 -0.2361  0.0742
 2557DOPC   NC329997  25.310   4.954  13.822 -0.0156  0.1000  0.1039
 2557DOPC   PO429998  24.976   4.864  13.677 -0.3111  0.0057  0.1399
 2557DOPC   GL129999  24.840   4.651  13.407 -0.0241  0.1800  0.0904
 2557DOPC   GL230000  24.798   4.884  13.204  0.2858  0.0638 -0.1624
 2557DOPC   C1A30001  25.087   4.479  13.040  0.2209 -0.2056 -0.0223
 2557DOPC   D2A30002  25.515   4.397  12.816  0.1043  0.1721 -0.1999
 2557DOPC   C3A30003  25.495   4.147  12.463 -0.2544  0.4916  0.0221
 2557DOPC   C4A30004  25.665   4.219  12.020 -0.5657 -0.0860 -0.1451
 2557DOPC   C1B30005  25.124   4.978  12.885  0.3762  0.0223  0.1385
 2557DOPC   D2B30006  25.190   4.684  12.582 -0.0414 -0.0585  0.3774
 2557DOPC   C3B30007  25.555   4.746  12.312  0.0640  0.3225 -0.1849
 2557DOPC   C4B30008  25.977   4.620  12.184 -0.0568 -0.1723 -0.1885
 2558POSM   NC330009  32.436   9.841  15.203 -0.3963  0.2818 -0.2100
 2558POSM   PO430010  32.101   9.809  15.043 -0.1200  0.3501  0.3079
 2558POSM   AM130011  32.201   9.614  14.749 -0.3090  0.2521 -0.2338
 2558POSM   AM230012  32.472   9.582  14.623  0.1932 -0.0666 -0.0424
 2558POSM   T1A30013  32.134   9.517  14.280  0.0651  0.2279  0.0693
 2558POSM   C2A30014  31.888   9.448  13.884  0.0859 -0.1428 -0.1737
 2558POSM   C3A30015  31.724   9.387  13.457  0.2054  0.1796  0.3133
 2558POSM   C1B30016  32.584   9.545  14.304 -0.1263 -0.1364 -0.3324
 2558POSM   D2B30017  32.877   9.717  13.973  0.0398 -0.0098  0.1418
 2558POSM   C3B30018  33.154   9.493  13.763 -0.0545  0.1411 -0.0276
 2558POSM   C4B30019  33.625   9.355  13.670 -0.1086 -0.0732 -0.2213
 2559POSM   NC330020  23.566  11.894  13.186  0.1359  0.0835 -0.0128
 2559POSM   PO430021  23.854  11.593  13.262  0.3144 -0.0682 -0.3767
 2559POSM   AM130022  24.081  11.426  13.064 -0.3204 -0.0427 -0.0136
 2559POSM   AM230023  24.017  11.171  12.928  0.2461  0.2416  0.0997
 2559POSM   T1A30024  24.368  11.452  12.664 -0.0147 -0.3037  0.0687
 2559POSM   C2A30025  24.817  11.474  12.661  0.0686  0.2086  0.0259
 2559POSM   C3A30026  25.229  11.427  12.793  0.3003  0.1726  0.1196
 2559POSM   C1B30027  23.927  11.285  12.611  0.1278 -0.0135 -0.1049
 2559POSM   D2B30028  24.159  11.350  12.198 -0.0370  0.1389  0.1527
 2559POSM   C3B30029  24.541  11.623  12.249 -0.3482 -0.0487 -0.2004
 2559POSM   C4B30030  24.717  11.953  11.987 -0.1172 -0.2744  0.0737
 2560POSM   NC330031  25.389   5.442  13.688  0.0754  0.0409  0.1733
 2560POSM   PO430032  25.747   5.560  13.865  0.1552  0.0028 -0.1217
 2560POSM   AM130033  25.754   5.659  13.544 -0.0246 -0.0660  0.0124
 2560POSM   AM230034  25.734   5.571  13.266  0.2460  0.0735 -0.2165
 2560POSM   T1A30035  25.971   5.998  13.291  0.0743 -0.3259 -0.2424
 2560POSM   C2A30036  26.149   6.017  12.888  0.3947  0.0119  0.2500
 2560POSM   C3A30037  26.381   6.323  12.569  0.0744  0.1495 -0.0702
 2560POSM   C1B30038  25.838   5.530  12.901  0.0904  0.1270  0.0341
 2560POSM   D2B30039  26.189   5.485  12.630  0.2229 -0.0002  0.0820
 2560POSM   C3B30040  26.332   5.660  12.216 -0.1352  0.0417  0.4078
 2560POSM   C4B30041  26.137   5.806  11.804 -0.0474 -0.2295  0.1139
 2561POSM   NC330042  25.955  10.670  13.839 -0.0444  0.1059  0.0204
 2561POSM   PO430043  25.545  10.651  13.857 -0.0304  0.1120  0.0482
 2561POSM   AM130044  25.552  10.709  13.512  0.1754 -0.2123  0.1832
 2561POSM   AM230045  25.742  10.791  13.312 -0.1493  0.0909  0.2142
 2561POSM   T1A30046  25.331  10.753  13.027 -0.0816  0.0589 -0.3639
 2561POSM   C2A30047  25.017  10.686  12.640 -0.1477  0.1841  0.1610
 2561POSM   C3A30048  24.659  10.941  12.568  0.2538  0.1774 -0.4660
 2561POSM   C1B30049  25.843  10.961  12.995 -0.0351 -0.1913  0.3808
 2561POSM   D2B30050  25.669  11.204  12.649 -0.0466 -0.0567 -0.0088
 2561POSM   C3B30051  25.280  11.129  12.374 -0.2515 -0.0372 -0.0727
 2561POSM   C4B30052  25.237  11.165  11.916 -0.2375  0.0391 -0.0040
 2562DOPC   NC330053  33.134   8.707  14.949  0.0406 -0.0055 -0.0296
 2562DOPC   PO430054  32.885   8.998  15.091 -0.2132  0.2726 -0.1796
 2562DOPC   GL130055  32.681   8.665  14.819  0.1672 -0.1790  0.3720
 2562DOPC   GL230056  32.374   8.544  14.789 -0.4210  0.0546 -0.0322
 2562DOPC   C1A30057  32.780   8.190  14.831  0.1645  0.2106  0.1099
 2562DOPC   D2A30058  32.740   7.934  14.499 -0.5267 -0.0273  0.0142
 2562DOPC   C3A30059  32.781   7.690  14.074  0.1269 -0.0164  0.1521
 2562DOPC   C4A30060  32.819   7.295  13.698 -0.3742 -0.0272 -0.0508
 2562DOPC   C1B30061  32.576   8.561  14.373  0.1138 -0.1110 -0.1844
 2562DOPC   D2B30062  32.966   8.664  14.182 -0.0172  0.0264  0.0957
 2562DOPC   C3B30063  33.066   8.912  13.777  0.0970 -0.3588 -0.0787
 2562DOPC   C4B30064  33.303   9.093  13.420 -0.0582  0.0398 -0.1491
 2563POSM   NC330065  32.295  11.691  14.877  0.0197  0.1064  0.1134
 2563POSM   PO430066  32.607  11.445  14.708  0.0728 -0.1724  0.3436
 2563POSM   AM130067  32.520  11.125  14.589  0.3129 -0.2143  0.0506
 2563POSM   AM230068  32.639  10.915  14.448 -0.1419  0.2899  0.2813
 2563POSM   T1A30069  32.164  10.889  14.311 -0.2460 -0.1178  0.2073
 2563POSM   C2A30070  31.897  10.823  13.908 -0.1458  0.0525  0.0755
 2563POSM   C3A30071  31.933  11.048  13.487  0.4040 -0.2589 -0.0633
 2563POSM   C1B30072  32.685  10.727  14.203  0.2173  0.0956 -0.2437
 2563POSM   D2B30073  32.989  10.586  13.866  0.1593  0.2967 -0.1002
 2563POSM   C3B30074  33.063  10.359  13.448  0.1341  0.2027 -0.0485
 2563POSM   C4B30075  32.713  10.226  13.099 -0.2568 -0.1474 -0.4044
 2564DOPS   CNO30076  29.306   4.788  15.508 -0.3413  0.1192 -0.1322
 2564DOPS   PO430077  29.400   4.874  15.125  0.0982  0.0627  0.2107
 2564DOPS   GL130078  29.579   5.067  14.847 -0.0292 -0.1567  0.5142
 2564DOPS   GL230079  29.333   5.262  14.767 -0.0339 -0.2294  0.0959
 2564DOPS   C1A30080  29.780   5.179  14.446 -0.3517  0.0265 -0.0741
 2564DOPS   D2A30081  30.127   5.293  14.171  0.1085 -0.2495  0.1320
 2564DOPS   C3A30082  30.452   5.165  13.894 -0.1065 -0.1664 -0.1336
 2564DOPS   C4A30083  30.667   5.324  13.555 -0.1425  0.2026 -0.0763
 2564DOPS   C1B30084  29.300   5.353  14.337  0.2373 -0.0358  0.3518
 2564DOPS   D2B30085  29.197   5.227  13.896 -0.3089 -0.1306  0.3684
 2564DOPS   C3B30086  29.636   5.070  13.788 -0.0314 -0.0235 -0.2360
 2564DOPS   C4B30087  30.000   4.818  13.988 -0.2643  0.1100  0.1753
 2565DOPS   CNO30088  24.325   8.757  13.983 -0.1166 -0.1353 -0.0745
 2565DOPS   PO430089  24.561   8.635  13.689 -0.2314 -0.0759  0.0979
 2565DOPS   GL130090  24.515   8.519  13.317  0.1932 -0.1255  0.0470
 2565DOPS   GL230091  24.602   8.709  13.164  0.1373  0.2655 -0.0001
 2565DOPS   C1A30092  24.804   8.346  12.976 -0.1142  0.1423 -0.1198
 2565DOPS   D2A30093  24.805   8.524  12.578 -0.2238 -0.1671  0.1290
 2565DOPS   C3A30094  25.023   8.212  12.330 -0.0186  0.0031 -0.3485
 2565DOPS   C4A30095  25.420   7.892  12.445  0.0953 -0.1826  0.0307
 2565DOPS   C1B30096  24.440   8.796  12.813  0.3460  0.1890  0.0089
 2565DOPS   D2B30097  24.289   8.766  12.427  0.0288 -0.2140  0.2274
 2565DOPS   C3B30098  24.290   8.432  12.106 -0.1631 -0.1959 -0.0945
 2565DOPS   C4B30099  24.195   8.250  11.746 -0.2449  0.0901  0.3818
 2566DOPS   CNO30100  29.942   9.216  14.401  0.0241 -0.0400  0.1421
 2566DOPS   PO430101  29.893   9.590  14.505  0.1478  0.1347  0.1248
 2566DOPS   GL130102  29.637   9.525  14.208 -0.1238 -0.2796 -0.1789
 2566DOPS   GL230103  29.537   9.630  14.003  0.0519 -0.1395 -0.2623
 2566DOPS   C1A30104  29.694   9.158  13.907 -0.2557  0.3355 -0.0300
 2566DOPS   D2A30105  29.733   8.917  13.516  0.0078  0.0074  0.0218
 2566DOPS   C3A30106  29.628   9.162  13.102  0.0530  0.0329  0.0071
 2566DOPS   C4A30107  29.510   9.330  12.655 -0.1021  0.1268  0.3859
 2566DOPS   C1B30108  29.289   9.412  13.631 -0.1573  0.0924  0.4402
 2566DOPS   D2B30109  29.176   9.106  13.305 -0.1964  0.1463 -0.1053
 2566DOPS   C3B30110  29.084   9.155  12.832  0.2673 -0.0850  0.4111
 2566DOPS   C4B30111  28.682   9.205  12.616  0.0758  0.1625  0.1950
 2567POSM   NC330112  28.862   5.060  14.434 -0.0429 -0.0319 -0.0428
 2567POSM   PO430113  28.995   4.867  14.773 -0.1007  0.6291 -0.4237
 2567POSM   AM130114  29.226   4.826  14.609 -0.1684  0.0823 -0.3204
 2567POSM   AM230115  29.486   4.667  14.673  0.1090 -0.0730 -0.1834
 2567POSM   T1A30116  29.429   4.850  14.143 -0.0379 -0.0778 -0.1526
 2567POSM   C2A30117  29.627   4.572  13.827  0.0540  0.2027 -0.0569
 2567POSM   C3A30118  29.761   4.745  13.395 -0.1059 -0.2112 -0.0082
 2567POSM   C1B30119  29.818   4.631  14.429 -0.0145 -0.3084  0.2810
 2567POSM   D2B30120  30.130   4.353  14.184  0.0597  0.1923  0.0097
 2567POSM   C3B30121  30.459   4.119  14.402 -0.2099  0.5308  0.0105
 2567POSM   C4B30122  30.506   3.723  14.648 -0.0121 -0.0843  0.3064
 2568DOPE   NH330123  29.697  12.868  13.696 -0.0872  0.2955 -0.0739
 2568DOPE   PO430124  29.905  13.112  13.648  0.0469  0.1538 -0.0744
 2568DOPE   GL130125  29.938  12.993  13.319 -0.0575 -0.1547  0.0040
 2568DOPE   GL230126  29.741  12.852  13.183  0.0881  0.2004  0.2204
 2568DOPE   C1A30127  30.117  12.816  12.883 -0.0891 -0.0160  0.0873
 2568DOPE   D2A30128  30.283  12.737  12.434  0.0756 -0.0442  0.0385
 2568DOPE   C3A30129  30.123  12.951  12.016  0.2836  0.2431  0.1336
 2568DOPE   C4A30130  30.330  13.191  11.672 -0.1840 -0.1050 -0.0230
 2568DOPE   C1B30131  29.560  12.771  12.794 -0.2578 -0.2044  0.0148
 2568DOPE   D2B30132  29.545  12.629  12.349  0.1980 -0.0393 -0.0106
 2568DOPE   C3B30133  29.874  12.491  12.056 -0.0047  0.1162  0.3803
 2568DOPE   C4B30134  29.959  12.138  11.780 -0.2977 -0.0130  0.0871
 2569POSM   NC330135  27.262   2.052  13.831 -0.0467 -0.0648 -0.3601
 2569POSM   PO430136  27.364   2.413  13.828 -0.0054  0.0998  0.1384
 2569POSM   AM130137  27.605   2.352  13.594  0.3653  0.0721  0.1736
 2569POSM   AM230138  27.850   2.230  13.609  0.0838 -0.1757  0.5207
 2569POSM   T1A30139  27.808   2.354  13.155 -0.0405 -0.1748  0.1315
 2569POSM   C2A30140  28.127   2.622  12.965 -0.2382  0.3019 -0.3273
 2569POSM   C3A30141  28.128   3.067  13.035  0.1658  0.1575  0.0715
 2569POSM   C1B30142  27.952   1.974  13.474  0.1447 -0.1756 -0.0937
 2569POSM   D2B30143  27.895   1.515  13.255 -0.0656 -0.0562 -0.1053
 2569POSM   C3B30144  27.997   1.513  12.799 -0.1776 -0.0711  0.1168
 2569POSM   C4B30145  28.208   1.424  12.400  0.1798  0.1987  0.1090
 2570DOPS   CNO30146  30.864   7.289  15.504  0.3064 -0.1027 -0.1283
 2570DOPS   PO430147  31.071   7.547  15.330 -0.0505 -0.1003 -0.3172
 2570DOPS   GL130148  31.125   7.546  14.880  0.3412 -0.3047  0.1142
 2570DOPS   GL230149  30.953   7.267  14.892 -0.2079 -0.1727 -0.0958
 2570DOPS   C1A30150  30.950   7.664  14.457  0.2302  0.0008  0.1666
 2570DOPS   D2A30151  30.973   7.763  13.976 -0.2028 -0.0322 -0.0632
 2570DOPS   C3A30152  30.664   8.039  13.889 -0.0205 -0.2920  0.0846
 2570DOPS   C4A30153  30.366   8.376  13.803 -0.0641  0.2817 -0.0397
 2570DOPS   C1B30154  30.678   6.891  14.771 -0.0661 -0.2981  0.0670
 2570DOPS   D2B30155  30.327   6.607  14.542  0.0898  0.1338 -0.2862
 2570DOPS   C3B30156  30.025   6.635  14.247 -0.0361  0.1873 -0.1843
 2570DOPS   C4B30157  29.596   6.635  14.232 -0.1279 -0.0403 -0.1369
 2571POSM   NC330158  33.450   6.736  16.045  0.0211  0.1953  0.0386
 2571POSM   PO430159  33.120   6.846  15.853 -0.3589  0.0977 -0.2402
 2571POSM   AM130160  33.320   6.825  15.600 -0.0023  0.2471  0.1546
 2571POSM   AM230161  33.571   6.845  15.519  0.0056 -0.1483 -0.1826
 2571POSM   T1A30162  33.303   7.070  15.123  0.1151 -0.0226 -0.1360
 2571POSM   C2A30163  33.333   7.303  14.702  0.0994 -0.1322  0.0308
 2571POSM   C3A30164  33.532   7.374  14.296  0.1065  0.0237 -0.0900
 2571POSM   C1B30165  33.778   6.709  15.256  0.4127 -0.1594  0.2190
 2571POSM   D2B30166  34.102   6.642  14.866  0.2135  0.0378 -0.0719
 2571POSM   C3B30167  34.146   6.544  14.420  0.2020 -0.2066 -0.0646
 2571POSM   C4B30168  34.192   6.366  14.036 -0.3156 -0.0949  0.1419
 2572POSM   NC330169  28.083   5.315  14.467 -0.1463  0.3797 -0.2018
 2572POSM   PO430170  27.717   5.296  14.308 -0.0688  0.0837  0.0043
 2572POSM   AM130171  27.639   5.465  14.054  0.1173 -0.0887  0.1620
 2572POSM   AM230172  27.421   5.493  13.892  0.2100 -0.0260 -0.0642
 2572POSM   T1A30173  27.898   5.620  13.688  0.0347 -0.0390  0.1468
 2572POSM   C2A30174  27.899   5.492  13.303  0.0131 -0.0724 -0.1779
 2572POSM   C3A30175  28.009   5.560  12.848  0.3191 -0.6537  0.0703
 2572POSM   C1B30176  27.273   5.634  13.591 -0.1007 -0.1067  0.0790
 2572POSM   D2B30177  27.366   5.802  13.115  0.0105  0.0470  0.0949
 2572POSM   C3B30178  27.496   5.636  12.716  0.1121 -0.0169 -0.0348
 2572POSM   C4B30179  27.685   5.329  12.414  0.1151 -0.0269 -0.2067
 2573POSM   NC330180  25.224   8.231  14.202  0.2043 -0.0265 -0.1463
 2573POSM   PO430181  24.973   8.165  13.898 -0.3194 -0.0540 -0.1398
 2573POSM   AM130182  25.038   8.065  13.583 -0.0979  0.4458 -0.0611
 2573POSM   AM230183  24.970   7.819  13.457  0.0333 -0.3747 -0.1937
 2573POSM   T1A30184  25.199   8.089  13.138  0.0750  0.0289 -0.0890
 2573POSM   C2A30185  25.310   8.380  12.766  0.0117  0.1135 -0.3425
 2573POSM   C3A30186  25.490   8.439  12.346  0.1871  0.2353 -0.0412
 2573POSM   C1B30187  24.768   7.853  13.218 -0.0143  0.0130 -0.0550
 2573POSM   D2B30188  24.587   7.907  12.809 -0.1609  0.0317  0.2293
 2573POSM   C3B30189  24.158   7.759  12.925  0.0046  0.2129  0.1329
 2573POSM   C4B30190  23.715   7.690  12.967  0.0299 -0.0809  0.2509
 2574DOPE   NH330191  33.571   7.732  15.809  0.2255  0.1326 -0.1989
 2574DOPE   PO430192  33.821   7.898  15.761  0.0094  0.1222 -0.0428
 2574DOPE   GL130193  34.099   7.725  15.483 -0.0528  0.0841  0.2311
 2574DOPE   GL230194  34.089   7.871  15.264  0.1384 -0.1200 -0.1529
 2574DOPE   C1A30195  34.526   7.513  15.380 -0.1247 -0.4909 -0.2593
 2574DOPE   D2A30196  34.776   7.236  15.170  0.0905 -0.0664  0.0761
 2574DOPE   C3A30197  35.177   7.136  15.388  0.0718 -0.0250 -0.1913
 2574DOPE   C4A30198  35.545   7.102  15.135 -0.1471 -0.2478 -0.0942
 2574DOPE   C1B30199  34.182   7.792  14.786  0.0574 -0.1951 -0.1491
 2574DOPE   D2B30200  34.090   8.051  14.331  0.0479 -0.0669 -0.0270
 2574DOPE   C3B30201  34.029   7.857  13.867  0.0754 -0.2233  0.3817
 2574DOPE   C4B30202  34.165   7.672  13.477 -0.0912  0.0944  0.3060
 2575DOPE   NH330203  24.284   8.278  13.900  0.2642 -0.2446  0.0024
 2575DOPE   PO430204  24.086   8.032  13.904  0.1314  0.2317 -0.0983
 2575DOPE   GL130205  24.185   7.987  13.524 -0.2315  0.3146  0.0211
 2575DOPE   GL230206  24.139   8.063  13.297 -0.2613 -0.0025  0.0518
 2575DOPE   C1A30207  24.331   7.604  13.345 -0.2744  0.0891  0.1986
 2575DOPE   D2A30208  24.603   7.405  12.996  0.0870  0.0094 -0.2475
 2575DOPE   C3A30209  24.483   7.455  12.525  0.1594 -0.1875  0.1104
 2575DOPE   C4A30210  24.305   7.569  12.120  0.1455 -0.3296 -0.1283
 2575DOPE   C1B30211  24.303   8.320  12.997  0.2271 -0.1847  0.3512
 2575DOPE   D2B30212  24.367   8.295  12.574 -0.0847 -0.2517 -0.1462
 2575DOPE   C3B30213  24.477   8.005  12.292  0.0913 -0.0332 -0.1613
 2575DOPE   C4B30214  24.870   7.714  12.276  0.0434  0.0578  0.1302
 2576DOPS   CNO30215  34.332   0.606  15.851  0.0489  0.0315 -0.0158
 2576DOPS   PO430216  34.160   0.935  15.743 -0.1724  0.1106  0.3117
 2576DOPS   GL130217  33.948   0.752  15.387  0.2062  0.0263  0.0541
 2576DOPS   GL230218  33.880   0.886  15.178  0.0140 -0.1480  0.0160
 2576DOPS   C1A30219  34.239   0.507  15.126  0.0603  0.0248 -0.0969
 2576DOPS   D2A30220  34.574   0.602  14.823 -0.1681  0.4731  0.1890
 2576DOPS   C3A30221  34.779   1.037  14.800  0.0312  0.0478  0.1080
 2576DOPS   C4A30222  34.974   1.172  14.389  0.0998  0.0795  0.0540
 2576DOPS   C1B30223  33.732   0.832  14.760 -0.3679  0.1003 -0.0063
 2576DOPS   D2B30224  33.658   0.726  14.356 -0.0837  0.1565  0.1012
 2576DOPS   C3B30225  34.015   0.753  14.041 -0.0318  0.3862 -0.0849
 2576DOPS   C4B30226  34.296   0.629  13.727  0.1222 -0.1568  0.0810
 2577DOPS   CNO30227  22.407   5.363  13.826 -0.2327 -0.0731 -0.0119
 2577DOPS   PO430228  22.319   5.710  13.903 -0.1914  0.1727  0.0149
 2577DOPS   GL130229  22.294   5.856  13.485 -0.1504  0.3493  0.1198
 2577DOPS   GL230230  22.246   5.606  13.344 -0.0434  0.2285  0.0486
 2577DOPS   C1A30231  22.424   6.007  13.061 -0.4402  0.0060  0.0423
 2577DOPS   D2A30232  22.499   6.329  12.758 -0.1630 -0.0436  0.1093
 2577DOPS   C3A30233  22.561   6.780  12.779 -0.1512 -0.3480 -0.0143
 2577DOPS   C4A30234  22.657   7.228  12.602 -0.0236 -0.1703 -0.2346
 2577DOPS   C1B30235  22.171   5.608  12.908  0.2059 -0.0557  0.0151
 2577DOPS   D2B30236  22.025   5.396  12.522  0.1903 -0.1099 -0.1156
 2577DOPS   C3B30237  21.881   5.458  12.138 -0.0641  0.0978  0.0416
 2577DOPS   C4B30238  21.901   5.434  11.711 -0.0844  0.0024  0.0323
 2578DOPE   NH330239  28.960   8.397  14.798 -0.0073  0.1988  0.0485
 2578DOPE   PO430240  28.969   8.715  14.875  0.1009  0.0714  0.3721
 2578DOPE   GL130241  29.092   8.721  14.496 -0.0500  0.2675 -0.4319
 2578DOPE   GL230242  29.118   9.009  14.519 -0.0522 -0.1541  0.0084
 2578DOPE   C1A30243  29.230   8.571  14.100  0.2863 -0.1663  0.0908
 2578DOPE   D2A30244  29.652   8.547  13.856  0.0417  0.2269  0.0818
 2578DOPE   C3A30245  29.615   8.435  13.407 -0.0927 -0.1191  0.1361
 2578DOPE   C4A30246  29.800   8.506  13.040 -0.0615 -0.1546  0.1135
 2578DOPE   C1B30247  28.894   9.110  14.146 -0.2166  0.0454  0.2645
 2578DOPE   D2B30248  28.907   9.089  13.697 -0.0960 -0.0829 -0.2845
 2578DOPE   C3B30249  29.169   8.664  13.581 -0.0261 -0.1462 -0.0564
 2578DOPE   C4B30250  29.190   8.254  13.676 -0.2031 -0.1435  0.1096
 2579DOPC   NC330251  27.212  11.409  13.763 -0.1174 -0.1065 -0.0192
 2579DOPC   PO430252  27.157  11.034  13.888 -0.4170  0.1122 -0.1172
 2579DOPC   GL130253  27.355  10.919  13.585 -0.2869  0.0049  0.0195
 2579DOPC   GL230254  27.417  10.627  13.634 -0.0674  0.3024 -0.2022
 2579DOPC   C1A30255  27.222  10.719  13.180  0.1310 -0.0882 -0.1078
 2579DOPC   D2A30256  27.130  10.931  12.818 -0.0433  0.0036 -0.1425
 2579DOPC   C3A30257  26.799  11.307  12.807  0.0440  0.1180 -0.7356
 2579DOPC   C4A30258  26.695  11.249  12.326  0.0732 -0.0140  0.0674
 2579DOPC   C1B30259  27.716  10.435  13.335 -0.0645 -0.0198 -0.4825
 2579DOPC   D2B30260  28.003  10.541  12.998  0.1028 -0.2114  0.0418
 2579DOPC   C3B30261  27.832  10.458  12.618  0.0674 -0.2012 -0.1613
 2579DOPC   C4B30262  27.701  10.497  12.178 -0.0659  0.0541 -0.1325
 2580DOPE   NH330263  30.272  10.374  14.264 -0.3097 -0.0187 -0.1112
 2580DOPE   PO430264  29.981  10.545  14.240 -0.3981 -0.0453  0.0636
 2580DOPE   GL130265  30.037  10.453  13.834  0.1305  0.1954 -0.1622
 2580DOPE   GL230266  30.240  10.577  13.620  0.3053 -0.0756 -0.4111
 2580DOPE   C1A30267  29.966  10.212  13.432  0.2309  0.3162  0.0252
 2580DOPE   D2A30268  29.818  10.132  13.004 -0.0699  0.0116  0.1453
 2580DOPE   C3A30269  29.478  10.128  12.663  0.0209 -0.2436 -0.0973
 2580DOPE   C4A30270  29.020  10.057  12.794  0.0626  0.1356 -0.2424
 2580DOPE   C1B30271  30.296  10.666  13.169 -0.2026 -0.0576 -0.0984
 2580DOPE   D2B30272  30.689  10.747  12.844  0.1925 -0.0384 -0.4630
 2580DOPE   C3B30273  30.650  10.831  12.436 -0.1041  0.0572 -0.1536
 2580DOPE   C4B30274  30.678  10.729  12.015 -0.1495 -0.2388 -0.1194
 2581DOPC   NC330275  24.346   3.642  13.569  0.3066 -0.1477 -0.1831
 2581DOPC   PO430276  24.050   3.670  13.876 -0.0024 -0.1118 -0.0956
 2581DOPC   GL130277  23.898   3.708  13.566  0.3007  0.0200  0.2491
 2581DOPC   GL230278  23.852   3.502  13.359  0.0561  0.1142  0.2668
 2581DOPC   C1A30279  23.701   3.950  13.165  0.1118  0.0811 -0.4384
 2581DOPC   D2A30280  23.883   3.875  12.772  0.5208  0.2835  0.0292
 2581DOPC   C3A30281  24.241   4.091  12.615 -0.0370 -0.0620 -0.0023
 2581DOPC   C4A30282  24.336   4.469  12.348 -0.4154  0.3988 -0.2370
 2581DOPC   C1B30283  23.430   3.525  13.076  0.0980  0.0013 -0.1467
 2581DOPC   D2B30284  23.099   3.668  12.742 -0.2606  0.3922 -0.0061
 2581DOPC   C3B30285  22.950   4.077  12.549 -0.1008  0.2350  0.0870
 2581DOPC   C4B30286  22.623   4.375  12.327 -0.2045  0.2279  0.0958
 2582DOPE   NH330287  31.995   4.073  15.683  0.1811  0.2687 -0.0622
 2582DOPE   PO430288  31.794   3.765  15.626 -0.0126 -0.1627  0.2200
 2582DOPE   GL130289  31.765   3.831  15.251  0.0212 -0.2027  0.3094
 2582DOPE   GL230290  31.502   3.712  15.140 -0.0364  0.1192 -0.1860
 2582DOPE   C1A30291  31.986   4.187  15.036  0.0326  0.0385  0.0714
 2582DOPE   D2A30292  32.088   4.369  14.584 -0.1363 -0.0252  0.0757
 2582DOPE   C3A30293  31.902   4.204  14.200 -0.0516 -0.3528 -0.3686
 2582DOPE   C4A30294  31.813   4.494  13.874  0.0389  0.0029  0.0994
 2582DOPE   C1B30295  31.740   3.716  14.756 -0.1636  0.1685 -0.2856
 2582DOPE   D2B30296  31.790   3.654  14.285 -0.3328  0.0802  0.0720
 2582DOPE   C3B30297  31.616   3.371  14.028 -0.3622  0.0981 -0.0099
 2582DOPE   C4B30298  31.240   3.188  13.794  0.1234 -0.0472  0.1832
 2583DOPE   NH330299  31.092   8.992  14.997  0.0424 -0.0265  0.0784
 2583DOPE   PO430300  30.869   8.815  14.814 -0.0481 -0.1973 -0.1751
 2583DOPE   GL130301  31.129   8.688  14.641  0.1233 -0.1703  0.0371
 2583DOPE   GL230302  31.186   8.874  14.400 -0.2744  0.0873  0.0260
 2583DOPE   C1A30303  31.263   8.254  14.462 -0.0601  0.0997 -0.2760
 2583DOPE   D2A30304  31.469   7.816  14.541  0.1855  0.0337 -0.2780
 2583DOPE   C3A30305  31.394   7.435  14.208  0.1553 -0.2124 -0.0136
 2583DOPE   C4A30306  31.429   6.979  14.112 -0.0244 -0.0964 -0.1912
 2583DOPE   C1B30307  31.272   8.930  13.979 -0.1602 -0.1875  0.1070
 2583DOPE   D2B30308  31.057   9.074  13.631 -0.1960 -0.0870 -0.0529
 2583DOPE   C3B30309  31.065   9.343  13.238  0.1336  0.1979 -0.0937
 2583DOPE   C4B30310  30.999   9.371  12.789 -0.2210  0.2494  0.3023
 2584DOPC   NC330311  25.845  33.576  14.253  0.1134  0.0281 -0.0597
 2584DOPC   PO430312  25.653  33.791  14.012  0.1099 -0.0808 -0.1295
 2584DOPC   GL130313  25.740  33.866  13.609  0.0105  0.1863 -0.3451
 2584DOPC   GL230314  25.490  33.974  13.567  0.1023 -0.2452  0.0559
 2584DOPC   C1A30315  25.978  33.930  13.257  0.0532  0.3819  0.0320
 2584DOPC   D2A30316  25.960  33.840  12.812 -0.0331 -0.2086 -0.1381
 2584DOPC   C3A30317  25.771  33.469  12.618  0.0337  0.1082 -0.3123
 2584DOPC   C4A30318  25.786  33.121  12.274 -0.1109  0.0698 -0.0432
 2584DOPC   C1B30319  25.333  33.663  13.243  0.1869 -0.1438 -0.2129
 2584DOPC   D2B30320  25.336  33.460  12.837  0.1752  0.2395  0.0048
 2584DOPC   C3B30321  25.231  33.683  12.438 -0.0981  0.1283  0.0218
 2584DOPC   C4B30322  25.298  33.877  11.991  0.1644  0.3558  0.1353
 2585DOPC   NC330323  32.176   4.707  16.339 -0.5415 -0.0223 -0.1530
 2585DOPC   PO430324  32.477   4.506  16.177 -0.1457 -0.1069  0.0363
 2585DOPC   GL130325  32.616   4.648  15.807 -0.0094  0.3051 -0.0195
 2585DOPC   GL230326  32.384   4.495  15.634  0.2054 -0.0270 -0.0714
 2585DOPC   C1A30327  32.603   4.992  15.498  0.1620  0.2679 -0.0303
 2585DOPC   D2A30328  32.469   5.363  15.235 -0.3973 -0.1938 -0.2883
 2585DOPC   C3A30329  32.589   5.732  14.949 -0.2031 -0.1742  0.0619
 2585DOPC   C4A30330  32.512   5.886  14.524  0.1120 -0.0418  0.1647
 2585DOPC   C1B30331  32.423   4.542  15.153 -0.1449 -0.1959 -0.2137
 2585DOPC   D2B30332  32.814   4.445  14.917 -0.1391 -0.1400 -0.0397
 2585DOPC   C3B30333  32.976   4.798  14.702 -0.4632  0.0735  0.0133
 2585DOPC   C4B30334  33.022   5.178  14.395  0.1196 -0.0784  0.0720
 2586DOPE   NH330335  29.158   4.448  15.014  0.0259  0.1724 -0.2861
 2586DOPE   PO430336  28.970   4.275  14.807 -0.1471 -0.1247 -0.0385
 2586DOPE   GL130337  29.141   4.360  14.563 -0.1542  0.5157 -0.1295
 2586DOPE   GL230338  28.962   4.501  14.257 -0.0891 -0.0956 -0.2727
 2586DOPE   C1A30339  29.402   4.280  14.164 -0.1608  0.1061 -0.0662
 2586DOPE   D2A30340  29.770   4.107  13.978 -0.0283  0.0726  0.0458
 2586DOPE   C3A30341  29.665   3.647  13.849  0.0586 -0.1240 -0.1454
 2586DOPE   C4A30342  29.305   3.272  13.772  0.1055 -0.1840 -0.1501
 2586DOPE   C1B30343  29.111   4.585  13.834 -0.1564  0.1965 -0.2699
 2586DOPE   D2B30344  29.299   4.364  13.518  0.1856  0.0041  0.3540
 2586DOPE   C3B30345  29.677   4.236  13.388 -0.2669  0.4241 -0.1135
 2586DOPE   C4B30346  30.043   4.328  13.092 -0.3471 -0.1411 -0.1108
 2587DOPE   NH330347  34.157   8.271  15.562 -0.0902  0.1666 -0.0239
 2587DOPE   PO430348  34.397   8.091  15.616 -0.2055 -0.0793 -0.2079
 2587DOPE   GL130349  34.524   8.099  15.338 -0.0786 -0.2421 -0.0167
 2587DOPE   GL230350  34.417   8.200  15.084 -0.1337  0.0596 -0.3289
 2587DOPE   C1A30351  34.641   7.788  15.011 -0.2038  0.0401  0.0986
 2587DOPE   D2A30352  34.846   7.620  14.625 -0.0494 -0.2137 -0.2833
 2587DOPE   C3A30353  35.015   7.841  14.230 -0.2263  0.2183  0.1210
 2587DOPE   C4A30354  35.301   8.171  14.250  0.3895 -0.2902 -0.3552
 2587DOPE   C1B30355  34.465   8.214  14.632  0.2926  0.0216  0.1026
 2587DOPE   D2B30356  34.576   8.189  14.166  0.1221 -0.0720 -0.4819
 2587DOPE   C3B30357  34.357   8.289  13.801  0.2157 -0.0762  0.0799
 2587DOPE   C4B30358  34.017   8.139  13.476 -0.0065  0.1167  0.1674
 2588DOPS   CNO30359  26.995   5.469  14.134 -0.1164  0.0831  0.0972
 2588DOPS   PO430360  26.677   5.296  14.121 -0.1724 -0.1271  0.1306
 2588DOPS   GL130361  26.644   5.444  13.774  0.4146 -0.4604 -0.2904
 2588DOPS   GL230362  26.720   5.698  13.774 -0.0635  0.3066 -0.1491
 2588DOPS   C1A30363  26.514   5.167  13.397 -0.1005  0.0163  0.1930
 2588DOPS   D2A30364  26.535   5.099  12.917 -0.0506  0.0299  0.1502
 2588DOPS   C3A30365  26.458   5.007  12.423 -0.2593 -0.2438  0.2125
 2588DOPS   C4A30366  26.493   4.794  12.019 -0.1745 -0.1483 -0.0948
 2588DOPS   C1B30367  26.833   5.640  13.347  0.0229  0.1490  0.0669
 2588DOPS   D2B30368  26.993   5.525  12.914 -0.3018 -0.0086 -0.2146
 2588DOPS   C3B30369  26.836   5.444  12.484  0.1559 -0.1804 -0.1483
 2588DOPS   C4B30370  26.777   5.295  12.079  0.1078 -0.0877  0.2221
 2589POSM   NC330371  29.251  12.113  13.420 -0.2109 -0.2005 -0.0816
 2589POSM   PO430372  29.010  11.963  13.734  0.0761  0.1212 -0.1833
 2589POSM   AM130373  28.796  12.030  13.506  0.3469 -0.2424 -0.0526
 2589POSM   AM230374  28.797  12.224  13.307  0.3346 -0.0127  0.2300
 2589POSM   T1A30375  28.495  11.751  13.162  0.3086 -0.2416 -0.1641
 2589POSM   C2A30376  28.603  11.559  12.691 -0.0779 -0.0355  0.0272
 2589POSM   C3A30377  28.838  11.483  12.318  0.0628 -0.1618 -0.0767
 2589POSM   C1B30378  28.935  12.072  13.017  0.0640 -0.1942  0.1658
 2589POSM   D2B30379  28.782  12.030  12.574 -0.0495 -0.0516  0.0782
 2589POSM   C3B30380  28.702  12.096  12.128 -0.0659  0.2030 -0.1034
 2589POSM   C4B30381  28.715  12.354  11.778 -0.0706 -0.0933 -0.1053
 2590DOPC   NC330382  23.528   8.101  13.905 -0.2116 -0.1781  0.1221
 2590DOPC   PO430383  23.671   8.182  13.545  0.1647 -0.0172  0.1949
 2590DOPC   GL130384  23.710   8.104  13.191  0.2918 -0.0694  0.0430
 2590DOPC   GL230385  23.830   8.395  13.130 -0.5086 -0.0345  0.0313
 2590DOPC   C1A30386  23.388   8.071  12.831  0.0188 -0.0279 -0.1404
 2590DOPC   D2A30387  23.010   7.947  12.550 -0.1348 -0.3155 -0.1541
 2590DOPC   C3A30388  22.853   7.654  12.305  0.2711 -0.2171  0.1940
 2590DOPC   C4A30389  22.789   7.295  11.951  0.1310  0.0770  0.0643
 2590DOPC   C1B30390  23.892   8.110  12.776  0.1813 -0.0750 -0.0764
 2590DOPC   D2B30391  23.995   7.947  12.376 -0.4635 -0.1377 -0.0451
 2590DOPC   C3B30392  23.788   8.118  11.968  0.1831  0.0035 -0.1260
 2590DOPC   C4B30393  23.751   7.952  11.507  0.0370 -0.0953  0.1334
 2591DOPC   NC330394  24.973   4.057  13.356  0.1021 -0.2289 -0.2552
 2591DOPC   PO430395  24.949   3.725  13.570  0.1635 -0.0426  0.0874
 2591DOPC   GL130396  24.975   3.685  13.127  0.2183 -0.0185 -0.1624
 2591DOPC   GL230397  24.790   3.483  13.023 -0.2535 -0.1073 -0.1454
 2591DOPC   C1A30398  25.298   3.440  12.893 -0.1492  0.0289 -0.2883
 2591DOPC   D2A30399  25.353   3.148  12.548 -0.2823  0.0958  0.1693
 2591DOPC   C3A30400  25.103   3.167  12.167  0.2571  0.1111 -0.1005
 2591DOPC   C4A30401  24.846   3.546  12.090 -0.1816 -0.3323  0.3015
 2591DOPC   C1B30402  24.938   3.051  12.963 -0.1722 -0.0283  0.4735
 2591DOPC   D2B30403  25.327   2.822  13.005 -0.0313  0.3662  0.2344
 2591DOPC   C3B30404  25.576   2.668  12.706  0.0391 -0.2431 -0.3443
 2591DOPC   C4B30405  25.734   2.382  12.335 -0.0473 -0.0533  0.1605
 2592DOPS   CNO30406  27.884  34.097  14.658 -0.1662 -0.3662 -0.1923
 2592DOPS   PO430407  27.635  34.239  14.460 -0.0856 -0.1245  0.2683
 2592DOPS   GL130408  27.768  34.256  14.099  0.0788 -0.3190  0.1949
 2592DOPS   GL230409  27.755  34.455  13.947 -0.2171  0.2249 -0.0632
 2592DOPS   C1A30410  27.585  34.130  13.653  0.1448  0.1374  0.3182
 2592DOPS   D2A30411  27.820  33.882  13.342  0.0726  0.1750  0.2604
 2592DOPS   C3A30412  27.849  34.265  13.032  0.1912 -0.0882  0.1690
 2592DOPS   C4A30413  28.144  34.458  12.728  0.1265  0.0257  0.0899
 2592DOPS   C1B30414  27.640  34.595  13.455  0.0329 -0.0617 -0.0319
 2592DOPS   D2B30415  27.415  34.627  12.985 -0.1902 -0.2400  0.0160
 2592DOPS   C3B30416  27.030  34.526  12.741 -0.1913  0.1128  0.0146
 2592DOPS   C4B30417  26.981  34.587  12.274 -0.1548  0.0114  0.2333
 2593DOPC   NC330418  32.890  11.597  14.348 -0.0068 -0.4878  0.1039
 2593DOPC   PO430419  32.648  11.917  14.422 -0.1255 -0.1692 -0.2252
 2593DOPC   GL130420  32.679  11.851  13.959 -0.1146  0.0639 -0.0770
 2593DOPC   GL230421  32.935  11.926  13.747 -0.0730  0.2367  0.3815
 2593DOPC   C1A30422  32.542  11.557  13.670  0.0605  0.0796 -0.2647
 2593DOPC   D2A30423  32.440  11.499  13.261 -0.1923 -0.1074  0.3859
 2593DOPC   C3A30424  32.435  11.037  13.276 -0.3505 -0.1964 -0.3561
 2593DOPC   C4A30425  32.599  10.637  13.317 -0.2389  0.2471 -0.0729
 2593DOPC   C1B30426  33.013  11.595  13.429  0.6026 -0.1488 -0.2020
 2593DOPC   D2B30427  32.893  11.164  13.508  0.0533 -0.0220 -0.1668
 2593DOPC   C3B30428  33.049  10.856  13.244 -0.0213  0.2903  0.1134
 2593DOPC   C4B30429  33.209  10.502  13.011  0.0654 -0.1318  0.1289
 2594POSM   NC330430  29.470   3.442  14.996 -0.1517 -0.2816  0.0494
 2594POSM   PO430431  29.557   3.781  15.200 -0.0192  0.4307 -0.0835
 2594POSM   AM130432  29.841   3.742  15.046  0.0631  0.3340  0.0948
 2594POSM   AM230433  29.989   3.534  14.961 -0.2131 -0.0351  0.2274
 2594POSM   T1A30434  30.248   3.996  14.978  0.1172 -0.0553  0.1508
 2594POSM   C2A30435  30.681   4.162  14.864 -0.1329  0.1669 -0.2116
 2594POSM   C3A30436  31.082   4.340  14.692 -0.0262  0.0023 -0.1245
 2594POSM   C1B30437  29.993   3.619  14.642 -0.3741 -0.1782  0.2544
 2594POSM   D2B30438  30.121   3.707  14.210 -0.2628  0.0306  0.1833
 2594POSM   C3B30439  30.158   3.736  13.735  0.1661 -0.0662  0.1315
 2594POSM   C4B30440  30.160   3.919  13.285  0.0229 -0.1774  0.1873
 2595DOPC   NC330441  28.906   3.134  15.331  0.1175  0.3014  0.1494
 2595DOPC   PO430442  28.756   2.911  15.019  0.1261 -0.0771 -0.0452
 2595DOPC   GL130443  28.873   3.166  14.721  0.4156 -0.2234 -0.4250
 2595DOPC   GL230444  28.793   3.052  14.446 -0.3143 -0.1233  0.1182
 2595DOPC   C1A30445  29.260   3.271  14.505 -0.1437 -0.1429  0.1035
 2595DOPC   D2A30446  29.734   3.341  14.312  0.4137  0.0652  0.4929
 2595DOPC   C3A30447  29.975   3.208  13.978  0.0217  0.1346 -0.1687
 2595DOPC   C4A30448  30.116   2.856  13.750  0.2883  0.1196 -0.4460
 2595DOPC   C1B30449  28.992   2.736  14.153 -0.2537 -0.1551  0.2332
 2595DOPC   D2B30450  29.185   2.599  13.768  0.1306  0.3016  0.0789
 2595DOPC   C3B30451  29.544   2.439  13.601  0.0670 -0.0704 -0.3261
 2595DOPC   C4B30452  29.862   2.619  13.307  0.0115  0.3724 -0.0389
 2596DOPC   NC330453  31.023   0.487  15.099 -0.0514  0.2081 -0.0065
 2596DOPC   PO430454  31.407   0.502  15.193  0.1422  0.2607  0.2555
 2596DOPC   GL130455  31.451   0.740  14.803 -0.2941  0.0058 -0.0456
 2596DOPC   GL230456  31.307   0.902  14.686  0.1018  0.2272 -0.0075
 2596DOPC   C1A30457  31.608   0.741  14.342  0.0312 -0.1834  0.4137
 2596DOPC   D2A30458  31.624   0.750  13.911 -0.1106 -0.2157 -0.1336
 2596DOPC   C3A30459  31.861   0.433  13.649 -0.0977 -0.1483  0.0202
 2596DOPC   C4A30460  31.891   0.008  13.540  0.0098  0.3817  0.2940
 2596DOPC   C1B30461  31.203   0.973  14.197 -0.1834  0.3847 -0.4170
 2596DOPC   D2B30462  31.330   1.108  13.788 -0.0304  0.0409 -0.0247
 2596DOPC   C3B30463  31.252   0.961  13.314 -0.1972  0.1137 -0.2353
 2596DOPC   C4B30464  30.881   0.749  13.119  0.0037 -0.2291 -0.2566
 2597DOPE   NH330465  28.215   0.246  14.188 -0.2217 -0.0247 -0.1785
 2597DOPE   PO430466  28.140  -0.062  14.253  0.0182  0.0125 -0.1300
 2597DOPE   GL130467  28.232  -0.080  13.836  0.4153 -0.1773 -0.5864
 2597DOPE   GL230468  28.104   0.101  13.673 -0.0776  0.0453  0.0435
 2597DOPE   C1A30469  28.395  -0.231  13.451 -0.1569  0.1148 -0.0660
 2597DOPE   D2A30470  28.825  -0.228  13.321 -0.1843 -0.1861  0.0380
 2597DOPE   C3A30471  29.034  -0.491  12.921 -0.1355 -0.0971 -0.2431
 2597DOPE   C4A30472  29.276  -0.690  12.599 -0.1419 -0.3461 -0.1423
 2597DOPE   C1B30473  27.831   0.484  13.757  0.0156  0.2246 -0.0958
 2597DOPE   D2B30474  27.692   0.860  13.604 -0.1036 -0.2552 -0.1731
 2597DOPE   C3B30475  27.715   1.011  13.140  0.3022  0.1142  0.2379
 2597DOPE   C4B30476  27.934   1.058  12.710 -0.4128  0.2658  0.2089
 2598POSM   NC330477  33.037   1.573  15.715  0.3794  0.1105 -0.6001
 2598POSM   PO430478  32.664   1.558  15.678  0.0167 -0.3382  0.1683
 2598POSM   AM130479  32.577   1.686  15.401  0.0396  0.2849  0.1584
 2598POSM   AM230480  32.463   1.888  15.237  0.3826  0.0190 -0.1484
 2598POSM   T1A30481  32.532   1.513  14.936  0.0612  0.0441 -0.4453
 2598POSM   C2A30482  32.585   1.597  14.497  0.2737  0.0190 -0.3516
 2598POSM   C3A30483  32.637   1.907  14.182  0.0278 -0.3524 -0.0662
 2598POSM   C1B30484  32.263   2.118  15.104  0.1881  0.1526  0.0472
 2598POSM   D2B30485  31.886   2.417  15.110 -0.1426  0.1847  0.1877
 2598POSM   C3B30486  31.737   2.768  14.895  0.0498  0.2184 -0.0779
 2598POSM   C4B30487  31.793   3.108  14.614  0.3826 -0.3377 -0.2431
 2599POSM   NC330488  26.772   8.295  14.392  0.0499  0.2179  0.1737
 2599POSM   PO430489  26.447   8.074  14.257 -0.0862 -0.2079 -0.0758
 2599POSM   AM130490  26.327   8.111  13.944 -0.2390 -0.0632 -0.0124
 2599POSM   AM230491  26.284   8.342  13.718 -0.1781  0.1987 -0.2864
 2599POSM   T1A30492  26.450   7.933  13.509 -0.3567 -0.0629 -0.1888
 2599POSM   C2A30493  26.550   7.664  13.149 -0.2094  0.2522 -0.1277
 2599POSM   C3A30494  26.971   7.601  12.950  0.1373 -0.1478 -0.0895
 2599POSM   C1B30495  26.046   8.318  13.463 -0.0826 -0.2042  0.2256
 2599POSM   D2B30496  25.680   8.296  13.152  0.0222  0.0900 -0.0476
 2599POSM   C3B30497  25.805   8.438  12.769 -0.1726  0.0625 -0.3352
 2599POSM   C4B30498  26.028   8.505  12.339  0.0023  0.0162 -0.1684
 2600DOPE   NH330499  24.350   2.173  14.054  0.0373 -0.2621 -0.0424
 2600DOPE   PO430500  24.346   1.966  13.819  0.0678  0.2556 -0.0710
 2600DOPE   GL130501  24.482   1.697  13.520 -0.0953 -0.0998  0.1751
 2600DOPE   GL230502  24.483   1.423  13.472 -0.1392  0.0376  0.1279
 2600DOPE   C1A30503  24.635   1.823  13.086  0.1190  0.1271  0.1983
 2600DOPE   D2A30504  24.811   2.053  12.736  0.0339 -0.0157  0.1428
 2600DOPE   C3A30505  24.766   1.949  12.238  0.1752  0.1374 -0.0638
 2600DOPE   C4A30506  24.743   1.622  11.893  0.0905  0.1604 -0.0483
 2600DOPE   C1B30507  24.238   1.335  13.090 -0.0390 -0.2664  0.2589
 2600DOPE   D2B30508  23.971   1.016  12.927  0.0529  0.0018  0.1470
 2600DOPE   C3B30509  23.579   1.206  12.788  0.1432 -0.1339 -0.1034
 2600DOPE   C4B30510  23.360   1.365  12.401  0.2296 -0.0629 -0.0710
 2601POSM   NC330511  24.107   4.892  14.115  0.5814  0.0492  0.0625
 2601POSM   PO430512  24.099   4.598  13.833 -0.1163  0.1230 -0.2463
 2601POSM   AM130513  23.942   4.582  13.534 -0.2681  0.1057  0.1992
 2601POSM   AM230514  23.681   4.591  13.483 -0.1648  0.2914 -0.0766
 2601POSM   T1A30515  23.972   4.493  13.044 -0.2473  0.0557 -0.0283
 2601POSM   C2A30516  23.758   4.534  12.620  0.1220  0.0797  0.0213
 2601POSM   C3A30517  23.567   4.413  12.266 -0.0360  0.0083  0.1187
 2601POSM   C1B30518  23.533   4.473  13.175  0.0562  0.0170 -0.1685
 2601POSM   D2B30519  23.311   4.356  12.781 -0.0692 -0.2286  0.0126
 2601POSM   C3B30520  23.444   3.973  12.509 -0.3633 -0.1007 -0.2253
 2601POSM   C4B30521  23.822   3.916  12.234 -0.1041 -0.4024 -0.1020
 2602DOPE   NH330522  28.278  12.019  13.525 -0.1611 -0.0270  0.0222
 2602DOPE   PO430523  28.018  12.174  13.619 -0.4777 -0.0505 -0.0235
 2602DOPE   GL130524  27.764  12.056  13.429  0.0595  0.3292  0.1319
 2602DOPE   GL230525  27.535  12.087  13.240 -0.1187  0.1120  0.1640
 2602DOPE   C1A30526  27.898  11.885  12.997 -0.0123  0.6023  0.4112
 2602DOPE   D2A30527  27.754  11.727  12.595 -0.3466 -0.1799  0.0814
 2602DOPE   C3A30528  27.652  11.511  12.251 -0.1341 -0.1999 -0.1764
 2602DOPE   C4A30529  27.492  11.552  11.800 -0.0101  0.1709 -0.0242
 2602DOPE   C1B30530  27.478  12.099  12.794  0.2182 -0.0422  0.1550
 2602DOPE   D2B30531  27.274  11.764  12.517 -0.0617  0.1639  0.0462
 2602DOPE   C3B30532  26.839  11.756  12.443 -0.0701  0.0819  0.2597
 2602DOPE   C4B30533  26.378  11.911  12.257 -0.0005 -0.0222  0.0082
 2603POSM   NC330534  24.123   5.324  13.762  0.1535  0.2464  0.0271
 2603POSM   PO430535  24.429   5.210  13.993 -0.0706 -0.2193  0.1613
 2603POSM   AM130536  24.585   5.353  13.711 -0.0043 -0.0255  0.1941
 2603POSM   AM230537  24.785   5.270  13.493 -0.3565 -0.0048 -0.1043
 2603POSM   T1A30538  24.385   5.352  13.224  0.0099  0.1697  0.1685
 2603POSM   C2A30539  24.174   5.432  12.817 -0.0388 -0.0462  0.0747
 2603POSM   C3A30540  24.117   5.521  12.386 -0.3685 -0.0232 -0.1317
 2603POSM   C1B30541  24.836   5.370  13.192 -0.0267  0.0354  0.2780
 2603POSM   D2B30542  24.636   5.240  12.806 -0.0595  0.0016 -0.4058
 2603POSM   C3B30543  24.624   5.524  12.513  0.1854 -0.0040 -0.1285
 2603POSM   C4B30544  24.872   5.794  12.263 -0.0736 -0.1161  0.0956
 2604DOPS   CNO30545  33.088   4.070  16.638 -0.1443 -0.3933  0.1306
 2604DOPS   PO430546  33.148   4.414  16.539  0.1923 -0.1109 -0.2480
 2604DOPS   GL130547  33.359   4.402  16.149 -0.1268 -0.0866  0.0378
 2604DOPS   GL230548  33.303   4.126  16.087 -0.2433  0.0663 -0.1654
 2604DOPS   C1A30549  33.257   4.488  15.697  0.0158  0.2944 -0.1185
 2604DOPS   D2A30550  32.921   4.628  15.413 -0.2668 -0.0537  0.0304
 2604DOPS   C3A30551  32.954   5.082  15.143  0.0894  0.1311  0.0686
 2604DOPS   C4A30552  33.021   5.489  14.901 -0.1188  0.2078 -0.2491
 2604DOPS   C1B30553  33.465   4.023  15.660  0.0707  0.3687  0.0130
 2604DOPS   D2B30554  33.866   4.236  15.490 -0.2168  0.1013  0.1324
 2604DOPS   C3B30555  34.112   3.972  15.194 -0.1008  0.2067  0.0738
 2604DOPS   C4B30556  34.107   3.589  14.909 -0.1265  0.2064 -0.1226
 2605DOPC   NC330557  28.781  10.060  14.116 -0.1994  0.1995  0.0020
 2605DOPC   PO430558  28.629  10.433  14.080  0.0969  0.2632  0.1115
 2605DOPC   GL130559  28.611  10.460  13.689 -0.0147 -0.0764  0.2509
 2605DOPC   GL230560  28.663  10.156  13.638  0.1110  0.1305  0.0892
 2605DOPC   C1A30561  28.333  10.688  13.388  0.0827 -0.4400  0.2508
 2605DOPC   D2A30562  28.254  10.978  13.005  0.2488  0.3739 -0.0365
 2605DOPC   C3A30563  28.227  10.731  12.543 -0.0410 -0.4032  0.0802
 2605DOPC   C4A30564  28.049  10.963  12.154  0.0377 -0.2284  0.1450
 2605DOPC   C1B30565  28.991   9.982  13.316 -0.1239 -0.2173  0.0523
 2605DOPC   D2B30566  29.200   9.644  13.050 -0.1617  0.0912  0.1371
 2605DOPC   C3B30567  29.015   9.597  12.578  0.3200  0.0612  0.0468
 2605DOPC   C4B30568  28.645   9.779  12.387  0.1086  0.3373 -0.1135
 2606DOPS   CNO30569  24.022  12.985  12.700 -0.2213 -0.0099 -0.1108
 2606DOPS   PO430570  23.835  12.796  12.965  0.0706 -0.1170  0.1387
 2606DOPS   GL130571  23.637  12.642  12.588 -0.0374 -0.1700  0.1009
 2606DOPS   GL230572  23.545  12.846  12.511 -0.0982  0.0212  0.1429
 2606DOPS   C1A30573  23.589  12.598  12.096  0.1329 -0.1708 -0.0656
 2606DOPS   D2A30574  23.756  12.506  11.662 -0.1856 -0.0853  0.2305
 2606DOPS   C3A30575  23.641  12.329  11.255  0.4135  0.0439 -0.0232
 2606DOPS   C4A30576  23.512  12.012  10.985  0.1155 -0.1715 -0.0859
 2606DOPS   C1B30577  23.359  13.017  12.113 -0.3742  0.1351  0.1239
 2606DOPS   D2B30578  23.080  13.148  11.756 -0.0773 -0.2216  0.1594
 2606DOPS   C3B30579  22.913  12.975  11.337  0.1300  0.1055  0.0612
 2606DOPS   C4B30580  23.088  12.821  10.937 -0.2428  0.0839 -0.0886
 2607DOPE   NH330581  32.154  11.853  14.455 -0.0890 -0.2393  0.1316
 2607DOPE   PO430582  31.903  12.022  14.362  0.3155  0.0634  0.3696
 2607DOPE   GL130583  31.920  11.819  13.955  0.0388 -0.1952  0.0729
 2607DOPE   GL230584  31.818  11.593  14.079 -0.3746  0.2056 -0.0977
 2607DOPE   C1A30585  32.034  11.725  13.507 -0.4043  0.0557 -0.0480
 2607DOPE   D2A30586  31.764  11.556  13.105  0.1097 -0.1521 -0.1205
 2607DOPE   C3A30587  31.870  11.112  12.983  0.0055  0.1045  0.1131
 2607DOPE   C4A30588  31.807  10.758  12.658 -0.2443 -0.1016 -0.0409
 2607DOPE   C1B30589  32.061  11.317  13.920 -0.0067 -0.0204 -0.1044
 2607DOPE   D2B30590  32.426  11.072  13.746  0.1426  0.0926 -0.1144
 2607DOPE   C3B30591  32.702  11.207  14.066 -0.0450  0.1804  0.2283
 2607DOPE   C4B30592  33.092  11.391  13.887 -0.1724  0.1274 -0.0743
 2608DOPC   NC330593  25.195   6.577  13.636  0.1254  0.1117 -0.1136
 2608DOPC   PO430594  25.065   6.922  13.683  0.1040 -0.1270  0.0897
 2608DOPC   GL130595  24.815   6.848  13.414  0.1418 -0.0771  0.2534
 2608DOPC   GL230596  24.713   6.653  13.206 -0.1045  0.0374 -0.4102
 2608DOPC   C1A30597  24.989   7.010  13.006 -0.0345  0.1818 -0.3148
 2608DOPC   D2A30598  24.900   6.811  12.615  0.0752 -0.0157 -0.0464
 2608DOPC   C3A30599  24.474   6.967  12.540  0.1525  0.3705 -0.1326
 2608DOPC   C4A30600  24.216   6.911  12.226  0.2130  0.1975 -0.0722
 2608DOPC   C1B30601  25.123   6.541  13.068 -0.3176 -0.3122 -0.0665
 2608DOPC   D2B30602  25.407   6.418  12.706  0.1319 -0.2546  0.0739
 2608DOPC   C3B30603  25.414   6.161  12.328  0.1211 -0.1165 -0.1960
 2608DOPC   C4B30604  25.179   6.033  11.951  0.0563 -0.2248  0.2105
 2609DOPS   CNO30605  23.240   5.686  13.763  0.0131  0.1841  0.0271
 2609DOPS   PO430606  23.351   5.791  14.146 -0.3652 -0.1837 -0.1163
 2609DOPS   GL130607  23.546   6.046  13.847  0.1688 -0.4470 -0.0940
 2609DOPS   GL230608  23.477   6.254  13.675  0.0216  0.0574  0.1419
 2609DOPS   C1A30609  23.676   5.793  13.460  0.0928  0.4333 -0.0241
 2609DOPS   D2A30610  23.823   5.406  13.207 -0.1081  0.2216  0.1500
 2609DOPS   C3A30611  23.466   5.273  12.958  0.1973 -0.2113  0.2578
 2609DOPS   C4A30612  23.354   4.868  12.691 -0.2544 -0.0895 -0.3277
 2609DOPS   C1B30613  23.533   6.175  13.171  0.3337  0.1634  0.0941
 2609DOPS   D2B30614  23.402   6.160  12.730  0.1857 -0.1249  0.3804
 2609DOPS   C3B30615  23.639   6.442  12.415  0.0211  0.0188  0.3898
 2609DOPS   C4B30616  24.062   6.465  12.368 -0.0787  0.2659  0.0564
 2610DOPC   NC330617  26.255   2.558  13.770 -0.4241  0.1812  0.0042
 2610DOPC   PO430618  26.342   2.277  13.973 -0.1852 -0.0685  0.4292
 2610DOPC   GL130619  26.534   2.095  13.673 -0.0410  0.0366  0.4049
 2610DOPC   GL230620  26.626   1.831  13.749 -0.0926  0.1392 -0.3160
 2610DOPC   C1A30621  26.662   2.038  13.198 -0.1186  0.0486  0.1262
 2610DOPC   D2A30622  26.872   2.407  12.921 -0.1353 -0.0124 -0.0235
 2610DOPC   C3A30623  26.580   2.513  12.571 -0.1636 -0.2026  0.0684
 2610DOPC   C4A30624  26.473   2.349  12.146  0.3869  0.1656 -0.3571
 2610DOPC   C1B30625  26.569   1.499  13.369  0.2265  0.1331 -0.0338
 2610DOPC   D2B30626  26.841   1.349  13.016 -0.1150 -0.2116 -0.0328
 2610DOPC   C3B30627  26.842   1.625  12.624 -0.0075 -0.3541 -0.1438
 2610DOPC   C4B30628  27.154   1.731  12.306  0.1992 -0.2272  0.0978
 2611DOPE   NH330629  34.119   9.957  15.125  0.0515  0.0020  0.1275
 2611DOPE   PO430630  33.841  10.050  15.062 -0.3990  0.0003 -0.3093
 2611DOPE   GL130631  33.809  10.211  14.668  0.0422  0.4711  0.0291
 2611DOPE   GL230632  34.032  10.214  14.608  0.1540  0.1207  0.0627
 2611DOPE   C1A30633  33.763  10.053  14.237 -0.1014  0.2399  0.2636
 2611DOPE   D2A30634  33.681   9.687  13.983 -0.3910  0.1753  0.1029
 2611DOPE   C3A30635  33.999   9.327  13.989  0.2512 -0.0363  0.0662
 2611DOPE   C4A30636  34.277   9.045  14.191 -0.0133 -0.3366 -0.1776
 2611DOPE   C1B30637  34.434  10.075  14.654 -0.0794  0.2834 -0.4683
 2611DOPE   D2B30638  34.581   9.881  14.316  0.0541 -0.0561  0.1939
 2611DOPE   C3B30639  34.547   9.464  14.165  0.2424 -0.0832 -0.0661
 2611DOPE   C4B30640  34.508   9.269  13.760  0.0246 -0.0006  0.3298
 2612POSM   NC330641  28.670  11.127  14.110  0.2164 -0.3142  0.2684
 2612POSM   PO430642  29.054  11.008  14.144  0.0378  0.3798  0.1504
 2612POSM   AM130643  28.943  10.747  13.933 -0.1535  0.0129  0.1226
 2612POSM   AM230644  29.113  10.522  13.846  0.2120 -0.2221 -0.3100
 2612POSM   T1A30645  28.873  10.733  13.421  0.1967 -0.2211  0.0031
 2612POSM   C2A30646  28.734  10.714  12.983  0.0378 -0.3490  0.2177
 2612POSM   C3A30647  28.679  10.496  12.548 -0.0687  0.2626  0.0847
 2612POSM   C1B30648  29.160  10.383  13.527 -0.0135 -0.0395 -0.1435
 2612POSM   D2B30649  29.328  10.375  13.083 -0.1032 -0.0423  0.1403
 2612POSM   C3B30650  29.180  10.544  12.687 -0.2738 -0.1221  0.2548
 2612POSM   C4B30651  29.070  10.833  12.392 -0.0093 -0.0426  0.0555
 2613DOPE   NH330652  28.235   9.542  14.642  0.0248 -0.3403  0.2205
 2613DOPE   PO430653  28.123   9.779  14.534 -0.0916 -0.0344 -0.2140
 2613DOPE   GL130654  28.228   9.420  14.212 -0.0047  0.0708 -0.1938
 2613DOPE   GL230655  28.329   9.130  14.278  0.2736 -0.1032 -0.3114
 2613DOPE   C1A30656  27.969   9.169  13.934 -0.1327 -0.0397  0.0052
 2613DOPE   D2A30657  27.821   8.768  13.748 -0.5570 -0.3071  0.1875
 2613DOPE   C3A30658  27.819   8.936  13.275  0.1846 -0.1034 -0.2185
 2613DOPE   C4A30659  27.787   8.691  12.813  0.2380  0.1449 -0.2622
 2613DOPE   C1B30660  28.413   8.891  13.925 -0.2976  0.0112 -0.0091
 2613DOPE   D2B30661  28.310   8.623  13.596 -0.2140 -0.0723 -0.1118
 2613DOPE   C3B30662  28.239   8.719  13.097 -0.0663  0.0033  0.3245
 2613DOPE   C4B30663  28.186   8.991  12.674 -0.0935 -0.3820 -0.1258
 2614POSM   NC330664  29.493   9.893  14.516 -0.1964  0.1165 -0.0622
 2614POSM   PO430665  29.193  10.099  14.585 -0.0960 -0.3058  0.0402
 2614POSM   AM130666  29.201  10.133  14.250 -0.0845 -0.0666  0.3509
 2614POSM   AM230667  29.472  10.153  14.111  0.0400 -0.0882  0.1016
 2614POSM   T1A30668  29.112   9.829  13.808 -0.0455 -0.2655 -0.4441
 2614POSM   C2A30669  28.818   9.579  13.532  0.0758  0.2739  0.1530
 2614POSM   C3A30670  28.763   9.416  13.108  0.0954 -0.1709 -0.3100
 2614POSM   C1B30671  29.598  10.089  13.781 -0.0155  0.3328 -0.0058
 2614POSM   D2B30672  29.533   9.919  13.354  0.0703  0.2507 -0.1853
 2614POSM   C3B30673  29.664   9.684  12.967  0.2578 -0.1663 -0.2567
 2614POSM   C4B30674  30.000   9.427  12.780  0.1543  0.1874 -0.1396
 2615DOPC   NC330675  31.302   7.094  15.284 -0.2893 -0.2196  0.2314
 2615DOPC   PO430676  31.685   7.054  15.361 -0.0901 -0.0360 -0.1636
 2615DOPC   GL130677  31.845   6.727  15.139 -0.1414  0.1573 -0.2252
 2615DOPC   GL230678  31.683   6.757  14.922  0.1439  0.0350 -0.0482
 2615DOPC   C1A30679  32.167   6.454  14.993  0.2141 -0.1747  0.0187
 2615DOPC   D2A30680  32.531   6.359  14.628  0.1094  0.0211  0.0984
 2615DOPC   C3A30681  32.635   6.478  14.211 -0.1838  0.0208 -0.0111
 2615DOPC   C4A30682  32.795   6.724  13.916 -0.0370  0.0847  0.1732
 2615DOPC   C1B30683  31.491   6.596  14.488  0.1181 -0.1699 -0.1426
 2615DOPC   D2B30684  31.259   6.440  14.136 -0.2700 -0.3182  0.1454
 2615DOPC   C3B30685  31.153   6.726  13.751  0.0428 -0.1587 -0.2227
 2615DOPC   C4B30686  30.970   6.831  13.296  0.2340  0.1563  0.0526
 2616DOPE   NH330687  30.535  12.587  14.172 -0.0251  0.1114  0.3426
 2616DOPE   PO430688  30.773  12.609  13.911  0.3030  0.2756 -0.0525
 2616DOPE   GL130689  30.872  12.692  13.494 -0.1692 -0.2772  0.0056
 2616DOPE   GL230690  30.642  12.616  13.328 -0.2931  0.0500 -0.0191
 2616DOPE   C1A30691  30.900  12.960  13.131  0.5826 -0.1261  0.0938
 2616DOPE   D2A30692  30.975  13.214  12.722  0.0215  0.0020 -0.0003
 2616DOPE   C3A30693  30.895  13.605  12.505  0.0111 -0.0299  0.0481
 2616DOPE   C4A30694  31.088  13.931  12.264 -0.1246 -0.1097  0.2251
 2616DOPE   C1B30695  30.626  12.696  12.838  0.0472  0.0828 -0.1797
 2616DOPE   D2B30696  30.718  12.523  12.410 -0.0002  0.3473 -0.0242
 2616DOPE   C3B30697  30.785  12.144  12.155  0.1858  0.0143  0.2001
 2616DOPE   C4B30698  30.487  11.874  11.971 -0.2359  0.0836  0.2241
 2617POSM   NC330699  29.208   0.775  14.919  0.0070  0.2508 -0.1065
 2617POSM   PO430700  29.186   1.153  14.845 -0.0962 -0.0908 -0.2392
 2617POSM   AM130701  29.402   1.063  14.584  0.2126 -0.0601 -0.7530
 2617POSM   AM230702  29.397   1.166  14.308 -0.0893 -0.0251  0.0430
 2617POSM   T1A30703  29.746   0.884  14.235  0.1456  0.0650  0.2082
 2617POSM   C2A30704  29.728   1.039  13.786 -0.0281  0.2353 -0.1041
 2617POSM   C3A30705  29.822   1.367  13.401  0.3042  0.0339  0.2352
 2617POSM   C1B30706  29.221   1.214  14.070 -0.2357  0.2127 -0.1324
 2617POSM   D2B30707  28.970   1.019  13.714  0.0860 -0.1303 -0.1380
 2617POSM   C3B30708  28.576   1.161  13.457  0.0721  0.0196 -0.0623
 2617POSM   C4B30709  28.220   1.163  13.197 -0.5043  0.0908 -0.0480
 2618DOPE   NH330710  32.129  12.464  13.849  0.1110  0.0256  0.0895
 2618DOPE   PO430711  31.892  12.312  13.961  0.0950  0.0337  0.3307
 2618DOPE   GL130712  31.669  12.073  13.602 -0.0345 -0.2492 -0.0421
 2618DOPE   GL230713  31.796  12.290  13.365 -0.2788 -0.2093  0.3386
 2618DOPE   C1A30714  31.446  11.914  13.248 -0.1836  0.1239  0.2715
 2618DOPE   D2A30715  31.350  12.081  12.829 -0.3408 -0.2600 -0.1269
 2618DOPE   C3A30716  31.534  12.041  12.365  0.1279 -0.1388  0.2236
 2618DOPE   C4A30717  31.819  12.217  12.008  0.2882  0.2513  0.2315
 2618DOPE   C1B30718  31.848  12.068  12.976  0.1578 -0.0177  0.1602
 2618DOPE   D2B30719  31.943  12.044  12.564 -0.2644 -0.1610  0.1419
 2618DOPE   C3B30720  32.242  12.206  12.294 -0.1164  0.1004 -0.0785
 2618DOPE   C4B30721  32.680  12.338  12.159 -0.1557  0.0710 -0.3062
 2619DOPE   NH330722  22.283   4.354  13.764 -0.2742  0.1325 -0.3119
 2619DOPE   PO430723  22.422   4.024  13.838 -0.0716 -0.0823  0.2551
 2619DOPE   GL130724  22.363   4.070  13.420 -0.1023  0.2356 -0.0486
 2619DOPE   GL230725  22.393   4.152  13.193 -0.2351  0.1038  0.2581
 2619DOPE   C1A30726  22.210   3.748  13.070 -0.0418  0.0172  0.1429
 2619DOPE   D2A30727  22.077   3.610  12.640  0.1094 -0.6216 -0.0417
 2619DOPE   C3A30728  21.681   3.931  12.460 -0.0475 -0.1653 -0.0114
 2619DOPE   C4A30729  21.312   4.171  12.525 -0.0081  0.0651  0.1595
 2619DOPE   C1B30730  22.685   4.345  12.875  0.1521 -0.2230 -0.1957
 2619DOPE   D2B30731  22.809   4.709  12.667  0.1060  0.2266  0.3042
 2619DOPE   C3B30732  23.099   4.575  12.327 -0.1858  0.1490  0.3367
 2619DOPE   C4B30733  23.284   4.710  11.932  0.1868  0.2607  0.0603
 2620DOPE   NH330734  32.058   8.530  15.367  0.1654 -0.0704  0.0081
 2620DOPE   PO430735  31.851   8.541  15.117  0.1196  0.0174  0.0632
 2620DOPE   GL130736  31.953   8.667  14.792 -0.3470  0.3307 -0.1076
 2620DOPE   GL230737  32.056   8.898  14.744  0.0443  0.0519  0.0510
 2620DOPE   C1A30738  32.056   8.494  14.365  0.0596 -0.4041  0.3918
 2620DOPE   D2A30739  32.217   8.562  13.950  0.1345  0.2677 -0.1523
 2620DOPE   C3A30740  32.152   8.273  13.647 -0.0237  0.0383 -0.0325
 2620DOPE   C4A30741  32.211   7.887  13.376  0.1241 -0.1509  0.1539
 2620DOPE   C1B30742  32.285   8.964  14.363 -0.1529 -0.1220  0.0532
 2620DOPE   D2B30743  32.585   9.008  14.009 -0.2132  0.0686 -0.3768
 2620DOPE   C3B30744  32.534   8.717  13.603  0.1427 -0.0117 -0.2329
 2620DOPE   C4B30745  32.256   8.599  13.299  0.0281 -0.2229 -0.1846
 2621DOPE   NH330746  24.098   2.295  13.528  0.2311  0.0238 -0.2049
 2621DOPE   PO430747  24.006   2.458  13.283  0.2322  0.2946  0.0661
 2621DOPE   GL130748  24.099   2.425  12.948  0.1123  0.0939  0.3469
 2621DOPE   GL230749  24.408   2.319  13.008 -0.0992 -0.2680 -0.0551
 2621DOPE   C1A30750  23.901   2.244  12.558 -0.2545  0.0882 -0.0842
 2621DOPE   D2A30751  23.806   1.864  12.351 -0.0101  0.1226  0.0905
 2621DOPE   C3A30752  23.577   2.138  12.068  0.1310 -0.2805  0.1719
 2621DOPE   C4A30753  23.394   2.384  11.699 -0.1101  0.1493  0.3596
 2621DOPE   C1B30754  24.407   2.298  12.530  0.1101 -0.0489  0.3540
 2621DOPE   D2B30755  24.228   2.171  12.132  0.0162 -0.0386  0.1367
 2621DOPE   C3B30756  24.476   2.180  11.737 -0.2328 -0.0928 -0.1120
 2621DOPE   C4B30757  24.549   2.458  11.335  0.0708  0.0569  0.1650
 2622POSM   NC330758  30.536   0.694  14.889 -0.1238 -0.0251  0.0088
 2622POSM   PO430759  30.797   0.903  15.161  0.3124  0.1295  0.2552
 2622POSM   AM130760  30.929   1.176  14.994  0.4765  0.0700  0.2012
 2622POSM   AM230761  30.886   1.487  15.077  0.1213  0.2626 -0.0980
 2622POSM   T1A30762  31.114   1.369  14.605  0.0685 -0.1498  0.1176
 2622POSM   C2A30763  31.165   1.582  14.227  0.0518 -0.3235  0.3099
 2622POSM   C3A30764  31.469   1.744  13.953  0.1003 -0.0486  0.2062
 2622POSM   C1B30765  31.130   1.703  15.014 -0.1055 -0.0498  0.1166
 2622POSM   D2B30766  31.515   1.980  15.008 -0.3569 -0.1491  0.2395
 2622POSM   C3B30767  31.849   2.136  14.733  0.3220 -0.3350 -0.0070
 2622POSM   C4B30768  32.253   1.924  14.626  0.0758 -0.0127  0.0908
 2623DOPE   NH330769  30.390   9.458  14.482 -0.2257 -0.2139  0.2053
 2623DOPE   PO430770  30.543   9.204  14.461 -0.0506 -0.0256 -0.2435
 2623DOPE   GL130771  30.461   9.142  14.102  0.3436  0.0189 -0.0401
 2623DOPE   GL230772  30.216   9.324  14.008  0.0825  0.1603  0.1468
 2623DOPE   C1A30773  30.679   8.777  13.902  0.4497 -0.4945  0.0799
 2623DOPE   D2A30774  30.770   8.583  13.469 -0.1078  0.0908 -0.1343
 2623DOPE   C3A30775  30.622   8.176  13.359 -0.0725 -0.0667 -0.0975
 2623DOPE   C4A30776  30.632   7.845  13.032 -0.3095 -0.0250 -0.0048
 2623DOPE   C1B30777  30.384   9.401  13.587  0.1402 -0.1507  0.0856
 2623DOPE   D2B30778  30.618   9.059  13.348  0.0915  0.3613  0.1039
 2623DOPE   C3B30779  30.548   8.847  12.976  0.0232 -0.1183 -0.1301
 2623DOPE   C4B30780  30.702   8.378  12.924  0.1479  0.1214  0.1564
 2624DOPE   NH330781  33.607  13.453  13.740 -0.0205 -0.2426 -0.1419
 2624DOPE   PO430782  33.398  13.290  13.934  0.2116 -0.2074 -0.3067
 2624DOPE   GL130783  33.243  13.201  13.680  0.0502 -0.0976 -0.2217
 2624DOPE   GL230784  33.424  13.007  13.551  0.0620  0.0776  0.0355
 2624DOPE   C1A30785  33.225  13.410  13.272 -0.3175  0.0293  0.3078
 2624DOPE   D2A30786  33.231  13.265  12.833  0.0118  0.0606 -0.1134
 2624DOPE   C3A30787  32.962  13.586  12.634  0.1658 -0.0579  0.3478
 2624DOPE   C4A30788  32.980  13.742  12.195 -0.2156  0.0585  0.2000
 2624DOPE   C1B30789  33.494  12.907  13.095 -0.1996 -0.3562 -0.0523
 2624DOPE   D2B30790  33.416  12.742  12.677  0.0809  0.1448  0.0650
 2624DOPE   C3B30791  33.238  13.038  12.400  0.1391 -0.1247  0.2072
 2624DOPE   C4B30792  32.908  13.271  12.177  0.2459 -0.0170  0.1987
 2625POSM   NC330793  31.487   6.491  16.048 -0.1614 -0.1340  0.1267
 2625POSM   PO430794  31.444   6.293  15.722 -0.1959 -0.1468 -0.3047
 2625POSM   AM130795  31.483   6.163  15.445  0.1492  0.3072 -0.3281
 2625POSM   AM230796  31.374   5.962  15.259 -0.2200 -0.2369 -0.0977
 2625POSM   T1A30797  31.614   6.292  14.941 -0.2806 -0.0133  0.1743
 2625POSM   C2A30798  31.918   6.263  14.587 -0.1804  0.0903  0.1755
 2625POSM   C3A30799  32.183   6.154  14.222  0.0413  0.2342  0.3231
 2625POSM   C1B30800  31.269   5.690  15.074 -0.3750  0.0025 -0.0362
 2625POSM   D2B30801  31.298   5.362  14.757  0.1945 -0.0714  0.0089
 2625POSM   C3B30802  31.105   5.287  14.343  0.1488 -0.0812  0.1427
 2625POSM   C4B30803  31.330   5.168  14.006  0.1059  0.2000 -0.0072
 2626DOPC   NC330804  25.595   9.011  13.894 -0.0664  0.0995  0.2799
 2626DOPC   PO430805  25.873   9.289  13.907 -0.0679 -0.1213  0.2254
 2626DOPC   GL130806  26.151   9.337  13.629 -0.2769  0.0014  0.2406
 2626DOPC   GL230807  26.089   9.113  13.510 -0.0888  0.2328 -0.2198
 2626DOPC   C1A30808  26.203   9.491  13.204  0.0007 -0.1888 -0.3031
 2626DOPC   D2A30809  26.577   9.622  12.922  0.0296 -0.2144  0.0054
 2626DOPC   C3A30810  26.673   9.258  12.556  0.0219 -0.0779  0.1088
 2626DOPC   C4A30811  26.900   9.176  12.176 -0.3261  0.0739 -0.0290
 2626DOPC   C1B30812  25.798   9.220  13.206  0.2651  0.0917 -0.1332
 2626DOPC   D2B30813  25.715   9.675  13.111  0.1848 -0.1200  0.1752
 2626DOPC   C3B30814  26.063   9.930  12.855 -0.2461  0.0646 -0.0456
 2626DOPC   C4B30815  26.106  10.135  12.440  0.3221 -0.1889 -0.0104
 2627DOPE   NH330816  25.374   1.561  13.913  0.3670  0.2104  0.0710
 2627DOPE   PO430817  25.283   1.832  13.921  0.3752 -0.0041 -0.0734
 2627DOPE   GL130818  25.541   1.767  13.538 -0.0389  0.0225  0.1557
 2627DOPE   GL230819  25.537   2.043  13.439  0.2969 -0.0644 -0.0655
 2627DOPE   C1A30820  25.807   1.711  13.136 -0.0029  0.3073  0.1109
 2627DOPE   D2A30821  25.639   1.480  12.764 -0.0218  0.1809  0.1563
 2627DOPE   C3A30822  25.781   1.576  12.349 -0.0642  0.0932  0.0432
 2627DOPE   C4A30823  25.995   1.664  11.897  0.2026 -0.0449  0.0507
 2627DOPE   C1B30824  25.729   2.237  13.055 -0.1729  0.0277 -0.0663
 2627DOPE   D2B30825  25.748   1.979  12.654 -0.1603  0.2331 -0.0856
 2627DOPE   C3B30826  26.056   1.950  12.340 -0.0050  0.0369  0.0830
 2627DOPE   C4B30827  25.984   2.185  11.886  0.1371 -0.0401 -0.1571
 2628DOPC   NC330828  34.421   6.790  16.405 -0.0650 -0.1834  0.0830
 2628DOPC   PO430829  34.244   6.555  16.182  0.0649  0.2317 -0.0458
 2628DOPC   GL130830  34.221   6.584  15.772 -0.0003 -0.2696  0.1052
 2628DOPC   GL230831  34.119   6.801  15.678 -0.0941  0.1261  0.0034
 2628DOPC   C1A30832  34.271   6.462  15.335 -0.3091 -0.0770 -0.1080
 2628DOPC   D2A30833  34.420   6.221  14.951  0.1044  0.1935 -0.2040
 2628DOPC   C3A30834  34.661   5.821  14.970  0.1016 -0.2731 -0.1939
 2628DOPC   C4A30835  34.782   5.471  14.714 -0.3310 -0.0299  0.3004
 2628DOPC   C1B30836  34.361   6.959  15.291 -0.1889  0.1634 -0.0161
 2628DOPC   D2B30837  34.482   6.936  14.830  0.0471  0.0393 -0.4106
 2628DOPC   C3B30838  34.906   7.102  14.702 -0.1045  0.1469 -0.0082
 2628DOPC   C4B30839  35.179   7.211  14.409  0.3585  0.1112 -0.0189
 2629POSM   NC330840  25.204   0.505  14.200  0.1808 -0.0775 -0.2169
 2629POSM   PO430841  25.188   0.187  14.051  0.3718  0.0046 -0.2915
 2629POSM   AM130842  25.192   0.324  13.768 -0.0208  0.0298  0.1200
 2629POSM   AM230843  25.411   0.578  13.673 -0.1356  0.1509 -0.0881
 2629POSM   T1A30844  25.087   0.366  13.257  0.2140 -0.1316 -0.0964
 2629POSM   C2A30845  25.175   0.439  12.798 -0.3307 -0.0358 -0.2629
 2629POSM   C3A30846  25.155   0.618  12.364 -0.1131  0.0739 -0.2740
 2629POSM   C1B30847  25.645   0.343  13.546  0.1263 -0.0008  0.1756
 2629POSM   D2B30848  25.962   0.240  13.225  0.1618 -0.3504 -0.2068
 2629POSM   C3B30849  25.993  -0.092  12.841 -0.1662 -0.2238 -0.0918
 2629POSM   C4B30850  26.086  -0.211  12.437 -0.2025  0.1621 -0.3233
 2630DOPE   NH330851  29.883   3.555  15.587 -0.3248  0.1376 -0.0557
 2630DOPE   PO430852  30.138   3.565  15.452  0.1907 -0.0379  0.1848
 2630DOPE   GL130853  30.550   3.500  15.297  0.2228 -0.0625  0.0229
 2630DOPE   GL230854  30.651   3.796  15.229 -0.1993  0.1028 -0.2630
 2630DOPE   C1A30855  30.465   3.283  14.876  0.1595 -0.0728 -0.1124
 2630DOPE   D2A30856  30.265   3.160  14.461  0.0315 -0.1688  0.2154
 2630DOPE   C3A30857  30.452   3.209  14.038  0.0203 -0.2210 -0.0343
 2630DOPE   C4A30858  30.769   3.406  13.765  0.0550 -0.2553 -0.1379
 2630DOPE   C1B30859  31.070   3.917  15.072 -0.1172  0.0654 -0.1714
 2630DOPE   D2B30860  31.217   3.807  14.689  0.0965 -0.1184 -0.2846
 2630DOPE   C3B30861  30.912   3.964  14.411  0.0371  0.0309  0.0893
 2630DOPE   C4B30862  30.837   4.326  14.185  0.3016  0.1523 -0.2020
 2631DOPE   NH330863  32.141   5.407  15.625 -0.0448 -0.0427  0.4058
 2631DOPE   PO430864  31.900   5.228  15.596  0.2339  0.2431  0.0623
 2631DOPE   GL130865  32.052   5.475  15.155 -0.2039 -0.0147  0.1979
 2631DOPE   GL230866  31.759   5.656  15.114 -0.0559  0.1367 -0.3506
 2631DOPE   C1A30867  32.175   5.334  14.752 -0.5322  0.0983  0.3258
 2631DOPE   D2A30868  32.555   5.320  14.483 -0.3426  0.1497  0.1424
 2631DOPE   C3A30869  32.856   5.620  14.224  0.3464  0.0010 -0.1125
 2631DOPE   C4A30870  33.097   5.810  13.910  0.0090  0.3125 -0.0747
 2631DOPE   C1B30871  31.632   5.842  14.710 -0.2167 -0.0482 -0.1233
 2631DOPE   D2B30872  31.425   5.651  14.369 -0.1522  0.0474  0.0282
 2631DOPE   C3B30873  31.714   5.577  14.030  0.0810  0.0465 -0.0022
 2631DOPE   C4B30874  31.881   5.488  13.589 -0.1522  0.0175 -0.1695
 2632POSM   NC330875  27.136   1.125  14.048  0.1119  0.0537  0.0834
 2632POSM   PO430876  27.441   1.234  14.312  0.0757  0.0813  0.0103
 2632POSM   AM130877  27.541   1.326  14.010 -0.1780 -0.5606 -0.0308
 2632POSM   AM230878  27.500   1.281  13.713 -0.1691 -0.1955  0.0054
 2632POSM   T1A30879  27.655   1.709  13.691  0.2003 -0.0228  0.2046
 2632POSM   C2A30880  27.410   1.946  13.369  0.1916  0.3513  0.1659
 2632POSM   C3A30881  27.108   1.884  13.024  0.1015 -0.2428  0.0458
 2632POSM   C1B30882  27.412   1.392  13.400 -0.2416 -0.3457  0.2408
 2632POSM   D2B30883  27.386   1.464  12.935 -0.0281 -0.0074  0.0166
 2632POSM   C3B30884  27.448   1.071  12.735 -0.3581 -0.0777 -0.0370
 2632POSM   C4B30885  27.433   0.624  12.824  0.1544 -0.2769 -0.0594
 2633DOPS   CNO30886  30.097   1.409  14.704 -0.1974  0.2111  0.0856
 2633DOPS   PO430887  29.723   1.335  14.744 -0.0555 -0.5095 -0.0482
 2633DOPS   GL130888  29.680   1.540  14.349 -0.0057  0.1970  0.1172
 2633DOPS   GL230889  29.865   1.345  14.226 -0.2906  0.0686 -0.1028
 2633DOPS   C1A30890  29.546   1.546  13.888  0.1652  0.0231 -0.0683
 2633DOPS   D2A30891  29.152   1.549  13.635 -0.1099 -0.4904  0.1122
 2633DOPS   C3A30892  29.284   1.698  13.211 -0.1472  0.0867 -0.2705
 2633DOPS   C4A30893  28.970   1.600  12.913  0.0584 -0.1771  0.3636
 2633DOPS   C1B30894  30.291   1.512  14.148 -0.0705 -0.4265 -0.0409
 2633DOPS   D2B30895  30.696   1.228  14.235  0.2801 -0.1091  0.1526
 2633DOPS   C3B30896  30.924   1.391  13.867 -0.2440  0.1118 -0.2773
 2633DOPS   C4B30897  31.156   1.654  13.593  0.1494 -0.2844  0.0966
 2634DOPC   NC330898  25.927   9.717  13.597  0.1844  0.3043 -0.1845
 2634DOPC   PO430899  25.944  10.051  13.820 -0.1749  0.1674 -0.0547
 2634DOPC   GL130900  25.899  10.290  13.537 -0.1750 -0.1034  0.3437
 2634DOPC   GL230901  26.017  10.145  13.319 -0.0080  0.0280 -0.2523
 2634DOPC   C1A30902  25.554  10.292  13.182  0.1658 -0.1524  0.4413
 2634DOPC   D2A30903  25.483  10.044  12.779 -0.2405 -0.2749 -0.2511
 2634DOPC   C3A30904  25.612  10.155  12.314  0.2175 -0.2043 -0.3565
 2634DOPC   C4A30905  25.535  10.263  11.887 -0.0350 -0.3656  0.1173
 2634DOPC   C1B30906  26.462  10.050  13.106  0.1960 -0.4312  0.1907
 2634DOPC   D2B30907  26.537  10.010  12.624  0.0038  0.1837  0.1587
 2634DOPC   C3B30908  26.399   9.601  12.382  0.0621 -0.1967  0.3018
 2634DOPC   C4B30909  26.306   9.264  12.211 -0.1260 -0.1934  0.2785
 2635POSM   NC330910  28.576   6.635  14.642 -0.3102  0.1308 -0.1710
 2635POSM   PO430911  28.799   6.780  14.949 -0.1079  0.0703 -0.1389
 2635POSM   AM130912  28.983   6.862  14.654 -0.2165 -0.0732  0.2356
 2635POSM   AM230913  29.077   7.020  14.467  0.0649 -0.0886 -0.0868
 2635POSM   T1A30914  29.088   6.531  14.252  0.0059  0.1278 -0.2789
 2635POSM   C2A30915  29.086   6.221  13.877  0.1923 -0.1135 -0.1483
 2635POSM   C3A30916  28.772   5.902  13.855  0.0921 -0.0046  0.4501
 2635POSM   C1B30917  29.264   6.999  14.168  0.1996 -0.0505 -0.1207
 2635POSM   D2B30918  29.425   7.196  13.759  0.3443 -0.0238 -0.1561
 2635POSM   C3B30919  29.360   7.085  13.315  0.1210  0.0516 -0.1133
 2635POSM   C4B30920  28.935   6.925  13.178  0.1054 -0.0577  0.2403
 2636DOPE   NH330921  29.539   2.403  15.433  0.0364 -0.1356  0.1371
 2636DOPE   PO430922  29.616   2.195  15.192  0.1612 -0.0171 -0.0195
 2636DOPE   GL130923  29.754   2.183  14.880 -0.2400 -0.1332 -0.2470
 2636DOPE   GL230924  29.644   1.932  14.692 -0.1440 -0.2213 -0.0122
 2636DOPE   C1A30925  30.183   2.182  14.710  0.1879  0.3442 -0.1786
 2636DOPE   D2A30926  30.574   2.226  14.575  0.2148 -0.0796 -0.0056
 2636DOPE   C3A30927  30.633   2.462  14.259 -0.0595  0.0079  0.1176
 2636DOPE   C4A30928  30.529   2.615  13.866  0.1016 -0.0451 -0.2979
 2636DOPE   C1B30929  29.919   1.909  14.345 -0.1128 -0.1383 -0.0465
 2636DOPE   D2B30930  29.835   2.057  13.914  0.0768  0.3556 -0.1852
 2636DOPE   C3B30931  30.087   2.342  13.694 -0.1580  0.2090  0.2688
 2636DOPE   C4B30932  30.368   2.557  13.403 -0.0277  0.0985 -0.2467
 2637DOPS   CNO30933  28.282   1.892  14.540 -0.1530 -0.2079  0.0510
 2637DOPS   PO430934  28.167   2.242  14.531  0.2328  0.0485  0.2742
 2637DOPS   GL130935  28.512   2.438  14.446 -0.2104 -0.1902  0.0333
 2637DOPS   GL230936  28.518   2.704  14.355  0.1798 -0.1983  0.1482
 2637DOPS   C1A30937  28.844   2.240  14.204 -0.0147 -0.0538  0.4092
 2637DOPS   D2A30938  28.892   2.106  13.784 -0.1601  0.1696  0.2899
 2637DOPS   C3A30939  29.136   2.207  13.418 -0.0914  0.0805  0.0097
 2637DOPS   C4A30940  29.382   2.412  13.102 -0.3306 -0.1503 -0.1623
 2637DOPS   C1B30941  28.604   2.496  13.879 -0.0504 -0.4163  0.0789
 2637DOPS   D2B30942  28.734   2.534  13.418 -0.1683  0.0908  0.0752
 2637DOPS   C3B30943  29.108   2.787  13.269  0.1553  0.0673  0.0807
 2637DOPS   C4B30944  29.302   2.876  12.867 -0.0674 -0.0045 -0.3155
 2638DOPS   CNO30945  29.892  11.593  14.014  0.2883 -0.1057 -0.0555
 2638DOPS   PO430946  30.258  11.548  13.868  0.1070  0.3183  0.1152
 2638DOPS   GL130947  30.214  11.516  13.407 -0.1306  0.0900 -0.2892
 2638DOPS   GL230948  30.073  11.625  13.297 -0.1339  0.3904 -0.1086
 2638DOPS   C1A30949  29.963  11.165  13.190  0.0658  0.0327 -0.1415
 2638DOPS   D2A30950  29.661  11.108  12.809 -0.0984 -0.0229  0.1258
 2638DOPS   C3A30951  29.940  11.228  12.445  0.0624 -0.1866 -0.1099
 2638DOPS   C4A30952  30.234  11.015  12.186 -0.2302  0.4600 -0.1464
 2638DOPS   C1B30953  30.181  11.512  12.843  0.0576  0.4784 -0.1702
 2638DOPS   D2B30954  30.380  11.777  12.493  0.1627 -0.0774  0.1651
 2638DOPS   C3B30955  30.590  11.434  12.238  0.0935  0.3862  0.0933
 2638DOPS   C4B30956  30.549  11.225  11.813 -0.0060  0.0307  0.0624
 2639DOPE   NH330957   1.720   2.134  16.138  0.0860  0.0215  0.2785
 2639DOPE   PO430958   1.536   2.373  16.069  0.1012  0.3168  0.0327
 2639DOPE   GL130959   1.584   2.384  15.706 -0.0556 -0.0899 -0.0972
 2639DOPE   GL230960   1.820   2.220  15.662 -0.1245  0.0782  0.1335
 2639DOPE   C1A30961   1.407   2.691  15.391 -0.1359 -0.0169 -0.1756
 2639DOPE   D2A30962   1.430   2.672  14.921 -0.1240  0.1802 -0.2163
 2639DOPE   C3A30963   1.775   2.563  14.611 -0.0891 -0.1448 -0.2659
 2639DOPE   C4A30964   2.123   2.743  14.364  0.1313  0.0885  0.2414
 2639DOPE   C1B30965   1.878   2.375  15.187  0.2895  0.1578 -0.0236
 2639DOPE   D2B30966   1.919   2.818  15.068 -0.3505 -0.1528  0.2058
 2639DOPE   C3B30967   1.946   2.981  14.745 -0.1360 -0.0460  0.1653
 2639DOPE   C4B30968   1.610   3.101  14.422  0.4369  0.2345 -0.3969
 2640DOPC   NC330969  27.093   3.131  14.365  0.0850  0.1169 -0.0348
 2640DOPC   PO430970  27.299   3.369  14.105  0.2213  0.1495  0.1560
 2640DOPC   GL130971  27.275   3.369  13.708  0.1383  0.0810  0.0667
 2640DOPC   GL230972  27.489   3.329  13.596 -0.0883  0.3317  0.0067
 2640DOPC   C1A30973  27.176   3.730  13.380 -0.3501  0.2597  0.5141
 2640DOPC   D2A30974  27.254   3.905  12.936 -0.3254  0.0071  0.2297
 2640DOPC   C3A30975  26.940   4.170  12.706  0.0657 -0.1525  0.2663
 2640DOPC   C4A30976  26.689   4.378  12.372 -0.3818  0.0859  0.1163
 2640DOPC   C1B30977  27.524   3.409  13.126  0.0187 -0.0322  0.1679
 2640DOPC   D2B30978  27.568   3.480  12.669 -0.0248 -0.0114  0.1282
 2640DOPC   C3B30979  27.759   3.325  12.297  0.0573  0.2771  0.0738
 2640DOPC   C4B30980  27.792   3.070  11.927 -0.0294  0.1816 -0.1678
 2641DOPS   CNO30981  33.059   7.616  15.788  0.2029 -0.0705 -0.0575
 2641DOPS   PO430982  33.156   7.869  15.540 -0.3121 -0.1522  0.2323
 2641DOPS   GL130983  33.245   7.596  15.272 -0.3934  0.0332  0.4745
 2641DOPS   GL230984  33.555   7.713  15.303 -0.2327  0.2250 -0.2316
 2641DOPS   C1A30985  33.085   7.717  14.833  0.3365  0.0989 -0.1386
 2641DOPS   D2A30986  33.209   7.733  14.387  0.0302 -0.2223 -0.0280
 2641DOPS   C3A30987  33.297   7.579  13.917 -0.2227 -0.0478 -0.3134
 2641DOPS   C4A30988  33.363   7.571  13.459  0.1661  0.0056 -0.3972
 2641DOPS   C1B30989  33.699   7.774  14.899  0.3384  0.3031  0.0134
 2641DOPS   D2B30990  33.876   7.458  14.563  0.2524 -0.0373 -0.0512
 2641DOPS   C3B30991  33.989   7.434  14.124 -0.2960 -0.2441  0.1760
 2641DOPS   C4B30992  33.739   7.488  13.717  0.0255  0.0927  0.0478
 2642DOPE   NH330993  27.050   9.699  13.928 -0.0819 -0.0278 -0.0717
 2642DOPE   PO430994  27.206   9.963  13.975  0.0299  0.1305  0.0945
 2642DOPE   GL130995  27.173  10.252  13.646 -0.2059 -0.2119  0.1156
 2642DOPE   GL230996  26.916  10.162  13.572  0.0865 -0.0293  0.1641
 2642DOPE   C1A30997  27.291  10.126  13.238 -0.2096  0.3857  0.0776
 2642DOPE   D2A30998  27.528  10.243  12.874  0.1303 -0.0464 -0.0798
 2642DOPE   C3A30999  27.309  10.271  12.431 -0.0109 -0.1225  0.0392
 2642DOPE   C4A31000  26.948  10.204  12.155 -0.0976 -0.0486 -0.4019
 2642DOPE   C1B31001  26.873  10.358  13.175 -0.0326  0.0234  0.1192
 2642DOPE   D2B31002  26.888  10.514  12.785  0.1256  0.0814 -0.0052
 2642DOPE   C3B31003  26.926  10.814  12.364  0.2668  0.0654  0.1363
 2642DOPE   C4B31004  26.951  11.008  11.919 -0.1332  0.0260 -0.1490
 2643DOPE   NH331005  29.793   6.157  15.382  0.0496 -0.0462 -0.0268
 2643DOPE   PO431006  30.047   6.261  15.227 -0.0589  0.3821 -0.1532
 2643DOPE   GL131007  30.157   6.157  14.899 -0.0166  0.2519 -0.2142
 2643DOPE   GL231008  29.837   6.028  14.763  0.0577  0.3597  0.2282
 2643DOPE   C1A31009  30.443   6.155  14.541  0.1136  0.2277  0.2614
 2643DOPE   D2A31010  30.833   6.271  14.325  0.0028  0.2011  0.0323
 2643DOPE   C3A31011  30.767   6.742  14.164  0.1302  0.0123  0.2270
 2643DOPE   C4A31012  30.703   6.914  13.708 -0.0027  0.1274  0.1788
 2643DOPE   C1B31013  29.991   6.122  14.310  0.1226 -0.1153  0.2437
 2643DOPE   D2B31014  30.320   6.300  14.019 -0.2006 -0.0415  0.3031
 2643DOPE   C3B31015  30.260   6.509  13.617 -0.1238 -0.1804 -0.1220
 2643DOPE   C4B31016  30.374   6.776  13.276  0.2292 -0.1888  0.0106
 2644DOPE   NH331017  28.621   5.538  14.927 -0.1801 -0.2427  0.1376
 2644DOPE   PO431018  28.908   5.579  14.810 -0.1664 -0.1004 -0.0645
 2644DOPE   GL131019  29.154   5.891  14.714 -0.2373 -0.0301  0.0435
 2644DOPE   GL231020  29.410   5.726  14.692 -0.0986 -0.3377  0.0917
 2644DOPE   C1A31021  29.417   6.193  14.431  0.3399  0.0245 -0.0346
 2644DOPE   D2A31022  29.557   6.221  13.996  0.0056  0.0316  0.0202
 2644DOPE   C3A31023  29.573   6.090  13.524  0.0205  0.0097  0.2282
 2644DOPE   C4A31024  29.624   5.746  13.301 -0.1124 -0.3403  0.1478
 2644DOPE   C1B31025  29.655   5.767  14.282 -0.0347  0.0428 -0.0320
 2644DOPE   D2B31026  30.033   5.761  13.991 -0.4714 -0.3240 -0.3181
 2644DOPE   C3B31027  30.027   5.972  13.611  0.1412  0.3934  0.1432
 2644DOPE   C4B31028  30.175   6.121  13.216  0.0825  0.0045  0.3229
 2645DOPC   NC331029  32.729  12.331  13.914  0.0023 -0.1018  0.1574
 2645DOPC   PO431030  32.600  12.614  13.703  0.2583  0.0473  0.0210
 2645DOPC   GL131031  32.578  12.431  13.424  0.2446 -0.0328 -0.0234
 2645DOPC   GL231032  32.287  12.332  13.344 -0.1548  0.1259 -0.0558
 2645DOPC   C1A31033  32.678  12.006  13.298  0.0243 -0.3558 -0.2296
 2645DOPC   D2A31034  32.822  11.750  12.953  0.1645  0.1438 -0.3952
 2645DOPC   C3A31035  32.572  11.480  12.633  0.2891  0.0241 -0.0568
 2645DOPC   C4A31036  32.317  11.150  12.794  0.1662 -0.1259 -0.0170
 2645DOPC   C1B31037  32.128  12.466  12.948  0.0745  0.0639  0.0519
 2645DOPC   D2B31038  32.268  12.701  12.573 -0.0424  0.0181  0.1850
 2645DOPC   C3B31039  32.059  12.669  12.129 -0.0678  0.2193 -0.1026
 2645DOPC   C4B31040  31.925  12.838  11.710 -0.1536 -0.2117  0.1567
 2646POSM   NC331041  25.772   6.228  14.199  0.1465  0.1180 -0.1298
 2646POSM   PO431042  25.735   6.565  13.993 -0.2186  0.0097  0.1395
 2646POSM   AM131043  25.684   6.479  13.644 -0.2348  0.0868  0.0962
 2646POSM   AM231044  25.586   6.285  13.440  0.0309  0.0800  0.0579
 2646POSM   T1A31045  25.561   6.762  13.251 -0.2002 -0.0469  0.2500
 2646POSM   C2A31046  25.427   6.947  12.847 -0.0684  0.1031 -0.4154
 2646POSM   C3A31047  25.353   6.911  12.340  0.2079  0.1084  0.0002
 2646POSM   C1B31048  25.539   6.173  13.152 -0.1459  0.0366 -0.0409
 2646POSM   D2B31049  25.544   5.962  12.795  0.3750  0.0200  0.1490
 2646POSM   C3B31050  25.917   5.951  12.455 -0.1594  0.1093 -0.2567
 2646POSM   C4B31051  26.112   6.198  12.157  0.2743 -0.1450 -0.0592
 2647POSM   NC331052  21.079   9.180  13.229  0.0847  0.0711  0.1271
 2647POSM   PO431053  21.287   9.127  12.948 -0.1609 -0.2085 -0.0086
 2647POSM   AM131054  21.574   9.077  12.805  0.3497  0.2920 -0.2402
 2647POSM   AM231055  21.792   9.128  12.620  0.1906 -0.0677 -0.0251
 2647POSM   T1A31056  21.886   8.664  12.714 -0.1139 -0.0802  0.2465
 2647POSM   C2A31057  22.119   8.294  12.541 -0.1347  0.2477  0.3074
 2647POSM   C3A31058  21.925   7.917  12.356 -0.1055 -0.0189  0.2134
 2647POSM   C1B31059  21.962   9.086  12.327 -0.0932 -0.1799 -0.0617
 2647POSM   D2B31060  22.216   9.068  11.943 -0.1260 -0.3953 -0.1801
 2647POSM   C3B31061  22.211   8.707  11.618  0.2110 -0.0082 -0.0987
 2647POSM   C4B31062  22.122   8.262  11.494  0.4487  0.1052  0.0481
 2648DOPC   NC331063  27.779   4.811  14.394 -0.0687  0.2138 -0.0686
 2648DOPC   PO431064  28.124   4.858  14.612  0.2292 -0.0187 -0.0723
 2648DOPC   GL131065  28.444   5.003  14.327 -0.1327 -0.5846 -0.0649
 2648DOPC   GL231066  28.269   5.073  14.092 -0.2054 -0.2198 -0.3084
 2648DOPC   C1A31067  28.794   4.930  13.963 -0.4118 -0.2443  0.5831
 2648DOPC   D2A31068  28.814   4.982  13.495  0.1471  0.0038  0.3183
 2648DOPC   C3A31069  29.235   4.847  13.390 -0.2328  0.1152 -0.3023
 2648DOPC   C4A31070  29.423   4.574  13.096 -0.1226 -0.1336 -0.2054
 2648DOPC   C1B31071  28.350   5.161  13.599 -0.0848 -0.0315 -0.3108
 2648DOPC   D2B31072  28.369   5.396  13.249 -0.0348  0.3492  0.1633
 2648DOPC   C3B31073  28.423   5.203  12.846  0.3437  0.0865 -0.2010
 2648DOPC   C4B31074  28.457   5.045  12.427  0.3068  0.0475  0.1274
 2649DOPC   NC331075  30.970   4.931  15.757 -0.0736 -0.1978 -0.0093
 2649DOPC   PO431076  31.285   5.210  15.737  0.0794  0.0729 -0.1510
 2649DOPC   GL131077  31.501   5.098  15.380 -0.1239  0.2216 -0.3007
 2649DOPC   GL231078  31.245   5.208  15.206  0.2881  0.3042  0.0804
 2649DOPC   C1A31079  31.695   5.168  14.956  0.1925 -0.1494 -0.0151
 2649DOPC   D2A31080  31.723   5.303  14.526 -0.0397 -0.2427 -0.2370
 2649DOPC   C3A31081  32.057   5.157  14.221 -0.1782 -0.0847 -0.0961
 2649DOPC   C4A31082  32.535   5.182  14.001 -0.4462 -0.3722 -0.3133
 2649DOPC   C1B31083  31.194   4.896  14.804  0.1467 -0.4233 -0.1696
 2649DOPC   D2B31084  31.500   4.824  14.416 -0.2900  0.2185  0.0778
 2649DOPC   C3B31085  31.326   4.676  14.059  0.0049 -0.0485 -0.0761
 2649DOPC   C4B31086  31.309   4.706  13.615  0.0654  0.4168  0.0143
 2650DOPS   CNO31087  25.449   8.266  13.680  0.3025 -0.1119  0.6044
 2650DOPS   PO431088  25.618   8.467  13.977 -0.0374 -0.1017 -0.1171
 2650DOPS   GL131089  25.696   8.607  13.539 -0.1515 -0.0942  0.1520
 2650DOPS   GL231090  25.504   8.735  13.351  0.4310 -0.2531  0.2829
 2650DOPS   C1A31091  25.966   8.710  13.168  0.2218  0.3172  0.1153
 2650DOPS   D2A31092  26.297   8.528  12.910  0.0024  0.0398  0.3018
 2650DOPS   C3A31093  26.485   8.760  12.600 -0.0945 -0.1958 -0.0190
 2650DOPS   C4A31094  26.455   8.813  12.143  0.2588  0.1650 -0.2432
 2650DOPS   C1B31095  25.561   8.836  12.932 -0.0261 -0.2972 -0.2091
 2650DOPS   D2B31096  25.806   8.908  12.540  0.3320 -0.1226 -0.1083
 2650DOPS   C3B31097  25.833   9.261  12.216  0.1004 -0.1917 -0.1578
 2650DOPS   C4B31098  25.985   9.443  11.827  0.0042  0.0031 -0.0761
 2651DOPE   NH331099  29.725   1.746  15.536  0.0951 -0.1092  0.2171
 2651DOPE   PO431100  30.097   1.674  15.557 -0.0841  0.2808  0.1388
 2651DOPE   GL131101  30.327   1.948  15.378 -0.0553  0.1674 -0.1775
 2651DOPE   GL231102  30.131   2.241  15.418 -0.2040  0.0593 -0.0774
 2651DOPE   C1A31103  30.557   1.865  14.977 -0.1958 -0.0285 -0.3293
 2651DOPE   D2A31104  30.574   1.669  14.554 -0.3270  0.2200 -0.0039
 2651DOPE   C3A31105  30.742   1.857  14.185  0.4655 -0.0551  0.2288
 2651DOPE   C4A31106  30.978   2.183  13.931 -0.0649  0.1052 -0.0928
 2651DOPE   C1B31107  30.469   2.318  15.119 -0.1790  0.3315  0.1369
 2651DOPE   D2B31108  30.655   2.629  14.883 -0.4266  0.3240  0.3477
 2651DOPE   C3B31109  30.677   2.929  14.504 -0.0526 -0.0223 -0.1331
 2651DOPE   C4B31110  30.857   2.917  14.096 -0.1690 -0.3104 -0.0961
 2652DOPS   CNO31111  29.992   4.419  15.252  0.1228  0.0669 -0.1617
 2652DOPS   PO431112  30.269   4.699  15.272 -0.2274  0.0959  0.4318
 2652DOPS   GL131113  30.450   4.448  15.057 -0.0949  0.1656 -0.0682
 2652DOPS   GL231114  30.251   4.479  14.737  0.0047  0.2628 -0.1363
 2652DOPS   C1A31115  30.937   4.470  15.124 -0.1674  0.0601 -0.0012
 2652DOPS   D2A31116  31.362   4.635  15.229  0.1485  0.0431 -0.0121
 2652DOPS   C3A31117  31.737   4.627  14.907 -0.1930 -0.2491 -0.1240
 2652DOPS   C4A31118  32.003   4.852  14.630  0.0360 -0.1254 -0.1785
 2652DOPS   C1B31119  30.704   4.667  14.717  0.0439 -0.1083  0.0399
 2652DOPS   D2B31120  31.028   4.728  14.376 -0.3297 -0.0141 -0.1815
 2652DOPS   C3B31121  30.864   4.865  13.940 -0.0139  0.0164  0.3433
 2652DOPS   C4B31122  30.846   4.856  13.458 -0.2133 -0.1978  0.2036
 2653DOPE   NH331123   2.422   0.971  12.040 -0.0326  0.1992  0.1295
 2653DOPE   PO431124   2.422   0.772  11.767  0.2905  0.1107  0.3948
 2653DOPE   GL131125   2.423   0.340  11.711  0.0771  0.1534  0.4578
 2653DOPE   GL231126   2.177   0.285  11.862  0.0322 -0.0814 -0.1755
 2653DOPE   C1A31127   2.458  -0.133  11.719 -0.1055 -0.1049 -0.1145
 2653DOPE   D2A31128   2.725  -0.481  11.887  0.1117  0.2118  0.0273
 2653DOPE   C3A31129   2.748  -0.407  12.327 -0.2881 -0.0950  0.0514
 2653DOPE   C4A31130   2.685  -0.505  12.782  0.0219  0.0072 -0.1389
 2653DOPE   C1B31131   2.461   0.088  12.193  0.0249  0.1292 -0.3799
 2653DOPE   D2B31132   2.540   0.217  12.679  0.1162 -0.2236  0.0408
 2653DOPE   C3B31133   2.311  -0.043  12.991 -0.1051 -0.1471  0.2993
 2653DOPE   C4B31134   1.868  -0.170  12.977 -0.0017 -0.0384  0.0635
 2654DOPS   CNO31135  24.887   5.170   9.763  0.0259  0.1965  0.0459
 2654DOPS   PO431136  24.655   5.115  10.069 -0.1175 -0.1906 -0.0739
 2654DOPS   GL131137  24.477   5.249  10.435  0.2214 -0.2711 -0.0640
 2654DOPS   GL231138  24.676   5.560  10.471  0.3055 -0.1283 -0.0074
 2654DOPS   C1A31139  24.607   5.173  10.884 -0.3511 -0.0228  0.3046
 2654DOPS   D2A31140  24.762   5.249  11.261  0.1953 -0.2656 -0.1863
 2654DOPS   C3A31141  24.836   5.266  11.726 -0.2031 -0.0778  0.1712
 2654DOPS   C4A31142  24.479   5.412  12.057 -0.1587 -0.3139  0.1306
 2654DOPS   C1B31143  24.463   5.650  10.857 -0.0528 -0.1099 -0.0155
 2654DOPS   D2B31144  24.570   5.658  11.315  0.1552  0.3248  0.1013
 2654DOPS   C3B31145  24.266   5.555  11.596 -0.1816  0.0653  0.0564
 2654DOPS   C4B31146  23.991   5.195  11.792  0.1305 -0.0691 -0.1558
 2655DOPE   NH331147  32.324   2.653  11.780  0.0556 -0.3968  0.0999
 2655DOPE   PO431148  32.025   2.600  11.946 -0.3195 -0.1206 -0.0239
 2655DOPE   GL131149  31.940   2.460  12.279  0.0157  0.2494 -0.1789
 2655DOPE   GL231150  31.638   2.459  12.393 -0.1230  0.0303 -0.3328
 2655DOPE   C1A31151  32.049   2.353  12.694  0.1626 -0.0813 -0.1242
 2655DOPE   D2A31152  31.902   2.099  13.039  0.0277  0.0454  0.1083
 2655DOPE   C3A31153  31.512   1.975  13.276  0.0023  0.0174  0.0505
 2655DOPE   C4A31154  31.354   2.151  13.635 -0.0313 -0.1192 -0.3227
 2655DOPE   C1B31155  31.542   2.422  12.813 -0.0283  0.0763  0.4495
 2655DOPE   D2B31156  31.525   2.458  13.281 -0.0554  0.3942 -0.2525
 2655DOPE   C3B31157  31.730   2.819  13.602  0.2306  0.1427 -0.1343
 2655DOPE   C4B31158  31.665   2.891  14.064  0.3722 -0.1119 -0.2169
 2656DOPE   NH331159   1.503   1.875  11.834 -0.0313 -0.0932 -0.2847
 2656DOPE   PO431160   1.681   2.084  12.009 -0.0063  0.1065  0.3230
 2656DOPE   GL131161   1.648   2.066  12.382 -0.1198  0.2728  0.2709
 2656DOPE   GL231162   1.711   1.795  12.402 -0.1062  0.0735  0.1012
 2656DOPE   C1A31163   2.024   2.166  12.631  0.0734 -0.0725 -0.2657
 2656DOPE   D2A31164   2.117   2.206  13.142  0.1261  0.0478 -0.2570
 2656DOPE   C3A31165   1.993   2.550  13.387 -0.1677 -0.1645 -0.1603
 2656DOPE   C4A31166   1.858   2.988  13.445  0.2609 -0.1694 -0.0465
 2656DOPE   C1B31167   1.596   2.010  12.811 -0.0298 -0.0035  0.1178
 2656DOPE   D2B31168   1.575   2.108  13.293 -0.3493  0.0056 -0.1215
 2656DOPE   C3B31169   1.934   2.076  13.599  0.0275  0.0235 -0.1220
 2656DOPE   C4B31170   2.303   1.903  13.798 -0.1814  0.2288  0.0152
 2657DOPC   NC331171  33.574   3.226  12.459  0.2166 -0.1298  0.0701
 2657DOPC   PO431172  33.487   3.589  12.380 -0.0357  0.3072 -0.1491
 2657DOPC   GL131173  33.240   3.549  12.656 -0.3442  0.2487 -0.1952
 2657DOPC   GL231174  33.331   3.721  12.872  0.0191  0.0670 -0.2765
 2657DOPC   C1A31175  33.149   3.125  12.859 -0.2500  0.4262 -0.1183
 2657DOPC   D2A31176  33.174   2.996  13.322  0.0077  0.0451 -0.2627
 2657DOPC   C3A31177  32.896   3.181  13.669  0.2022  0.2102 -0.0288
 2657DOPC   C4A31178  32.799   3.595  13.919 -0.0900  0.1127 -0.3256
 2657DOPC   C1B31179  33.446   3.431  13.206 -0.0090  0.1691  0.0052
 2657DOPC   D2B31180  33.650   3.190  13.567 -0.0530  0.0514  0.1548
 2657DOPC   C3B31181  33.384   3.117  13.931  0.3243 -0.2114  0.1168
 2657DOPC   C4B31182  33.123   3.345  14.215  0.0698  0.0654 -0.0626
 2658DOPC   NC331183  27.483   9.253   9.965 -0.1512  0.1456 -0.1500
 2658DOPC   PO431184  27.845   9.426  10.094 -0.1024 -0.1538  0.1453
 2658DOPC   GL131185  27.662   9.283  10.577  0.2099 -0.3031  0.0108
 2658DOPC   GL231186  27.383   9.199  10.454 -0.3092 -0.1836  0.1935
 2658DOPC   C1A31187  27.384   9.296  11.000  0.0957 -0.1728  0.0602
 2658DOPC   D2A31188  27.306   9.371  11.431 -0.0474  0.4048 -0.2981
 2658DOPC   C3A31189  27.138   8.946  11.625 -0.2182  0.1037 -0.0179
 2658DOPC   C4A31190  26.880   8.737  11.859  0.2457  0.0156  0.1804
 2658DOPC   C1B31191  27.007   9.080  10.654 -0.0809 -0.0781 -0.0560
 2658DOPC   D2B31192  26.611   8.868  10.739 -0.0427  0.1080 -0.0542
 2658DOPC   C3B31193  26.675   8.502  10.961  0.5038 -0.3691 -0.1197
 2658DOPC   C4B31194  26.847   8.404  11.371 -0.3928  0.0965 -0.1636
 2659DOPE   NH331195  25.129   8.512   9.803  0.1470  0.1692 -0.0773
 2659DOPE   PO431196  24.879   8.501  10.001  0.0737 -0.2962 -0.2711
 2659DOPE   GL131197  24.732   8.600  10.365 -0.3791  0.1202 -0.1734
 2659DOPE   GL231198  24.663   8.882  10.503  0.4874 -0.0250  0.0114
 2659DOPE   C1A31199  24.309   8.575  10.602  0.3212 -0.0621 -0.1574
 2659DOPE   D2A31200  24.012   8.301  10.810  0.1118 -0.0160 -0.1267
 2659DOPE   C3A31201  24.128   8.119  11.185  0.0786 -0.2865 -0.0103
 2659DOPE   C4A31202  24.214   7.668  11.421  0.0061  0.0615 -0.0354
 2659DOPE   C1B31203  24.641   8.909  10.953 -0.0273 -0.2188 -0.0290
 2659DOPE   D2B31204  24.977   8.654  11.194  0.0086  0.0794 -0.0090
 2659DOPE   C3B31205  24.955   8.531  11.608  0.2771 -0.1529 -0.0446
 2659DOPE   C4B31206  24.725   8.330  11.884 -0.2340 -0.1429  0.0576
 2660DOPE   NH331207   0.502   7.329  12.392 -0.0962  0.1128 -0.0768
 2660DOPE   PO431208   0.345   7.303  12.145  0.0016  0.0681 -0.0547
 2660DOPE   GL131209   0.117   7.593  12.295  0.2068 -0.0993 -0.0720
 2660DOPE   GL231210   0.015   7.927  12.217 -0.1268 -0.3172 -0.1852
 2660DOPE   C1A31211   0.055   7.492  12.776 -0.1227  0.1724  0.1085
 2660DOPE   D2A31212   0.138   7.664  13.209  0.0336  0.2893 -0.1221
 2660DOPE   C3A31213  -0.002   8.076  13.309  0.1406 -0.0374  0.1996
 2660DOPE   C4A31214  -0.241   8.385  13.061  0.2616 -0.1479  0.2716
 2660DOPE   C1B31215   0.207   8.315  12.408 -0.0353 -0.0991 -0.2177
 2660DOPE   D2B31216   0.272   8.682  12.649 -0.0586  0.1630  0.1107
 2660DOPE   C3B31217   0.165   8.754  13.071  0.1664  0.0626  0.1088
 2660DOPE   C4B31218  -0.084   8.688  13.461 -0.0899 -0.2222 -0.1789
 2661DOPE   NH331219  30.654   5.231  10.850  0.0279 -0.1994  0.1326
 2661DOPE   PO431220  30.634   4.957  11.049  0.0072  0.5432 -0.0495
 2661DOPE   GL131221  30.544   5.030  11.417  0.0763 -0.1663 -0.0053
 2661DOPE   GL231222  30.626   4.860  11.625  0.2034  0.1200  0.0118
 2661DOPE   C1A31223  30.401   5.321  11.707 -0.0606 -0.3282  0.4527
 2661DOPE   D2A31224  30.131   5.291  12.082 -0.0149  0.1320 -0.1190
 2661DOPE   C3A31225  30.073   5.293  12.552  0.1650 -0.0596 -0.2417
 2661DOPE   C4A31226  29.949   5.459  12.987  0.0230 -0.0280  0.0165
 2661DOPE   C1B31227  30.287   4.861  11.929 -0.2817  0.4730 -0.0116
 2661DOPE   D2B31228  29.996   4.532  12.071 -0.1418 -0.1097 -0.0178
 2661DOPE   C3B31229  30.015   4.725  12.508  0.0293 -0.0636 -0.0151
 2661DOPE   C4B31230  30.021   4.921  12.970 -0.0175  0.0307 -0.1878
 2662POSM   NC331231  25.912  10.558  10.054  0.2140 -0.0897 -0.1269
 2662POSM   PO431232  25.558  10.514   9.933 -0.0964 -0.0066 -0.0619
 2662POSM   AM131233  25.300  10.558  10.178  0.0946  0.1242  0.0201
 2662POSM   AM231234  25.086  10.382  10.099  0.2625 -0.1117  0.1241
 2662POSM   T1A31235  25.103  10.546  10.644  0.2732  0.0631 -0.0287
 2662POSM   C2A31236  24.759  10.319  10.811  0.0238  0.1170 -0.4364
 2662POSM   C3A31237  24.843  10.271  11.315 -0.1331 -0.2013 -0.0226
 2662POSM   C1B31238  24.804  10.236  10.289 -0.2979 -0.0888  0.1022
 2662POSM   D2B31239  24.340  10.296  10.204 -0.2159 -0.2620 -0.1794
 2662POSM   C3B31240  23.967  10.575  10.253  0.0989 -0.1373  0.4170
 2662POSM   C4B31241  23.526  10.690  10.357 -0.0810  0.2725 -0.2703
 2663DOPE   NH331242  29.556   8.680  11.169  0.0915 -0.1085 -0.2042
 2663DOPE   PO431243  29.347   8.592  10.932 -0.0837  0.1683  0.1796
 2663DOPE   GL131244  29.124   8.434  11.365 -0.2889  0.0841 -0.1488
 2663DOPE   GL231245  29.362   8.368  11.508  0.2189 -0.3409  0.0660
 2663DOPE   C1A31246  28.749   8.448  11.601  0.0409 -0.0376 -0.0826
 2663DOPE   D2A31247  28.292   8.544  11.776  0.2660  0.2613 -0.0739
 2663DOPE   C3A31248  28.043   8.784  12.228  0.0730  0.1346  0.1292
 2663DOPE   C4A31249  27.729   9.080  12.372  0.2390 -0.3195 -0.0741
 2663DOPE   C1B31250  29.206   8.788  11.604 -0.2132 -0.0123  0.0768
 2663DOPE   D2B31251  29.246   9.108  11.894  0.2517  0.0989  0.1716
 2663DOPE   C3B31252  28.919   9.225  12.151  0.1611  0.1605  0.1170
 2663DOPE   C4B31253  28.491   9.020  12.156  0.4389  0.5086 -0.0313
 2664POSM   NC331254  30.405   8.334  11.294  0.2555  0.1014  0.0268
 2664POSM   PO431255  30.200   7.998  11.355 -0.2018  0.1175  0.2372
 2664POSM   AM131256  30.035   7.868  11.622 -0.1362 -0.0224 -0.3942
 2664POSM   AM231257  30.114   7.626  11.770 -0.0719  0.0869  0.0608
 2664POSM   T1A31258  29.986   7.926  12.123 -0.1142 -0.0247  0.0497
 2664POSM   C2A31259  29.800   8.083  12.477  0.1184 -0.1847  0.1966
 2664POSM   C3A31260  29.633   7.948  12.886  0.2654 -0.3478  0.0369
 2664POSM   C1B31261  30.239   7.442  12.008 -0.1878 -0.0602 -0.5212
 2664POSM   D2B31262  30.215   7.312  12.459  0.0395 -0.1032 -0.1878
 2664POSM   C3B31263  30.604   7.384  12.729  0.4136  0.0670  0.1957
 2664POSM   C4B31264  31.012   7.572  12.710 -0.0504  0.1827 -0.0916
 2665POSM   NC331265  24.678   0.256   9.933  0.0607 -0.0154 -0.1911
 2665POSM   PO431266  24.914   0.473  10.120 -0.1948  0.0177  0.1085
 2665POSM   AM131267  24.785   0.362  10.373  0.5298  0.0830  0.2527
 2665POSM   AM231268  24.578   0.274  10.513  0.3122  0.0081 -0.2368
 2665POSM   T1A31269  24.922   0.150  10.830 -0.1150 -0.2802  0.0174
 2665POSM   C2A31270  25.046  -0.155  11.114  0.0534 -0.4136 -0.1252
 2665POSM   C3A31271  25.306  -0.345  11.527  0.1569  0.1162 -0.1714
 2665POSM   C1B31272  24.422   0.298  10.819 -0.0080 -0.0802 -0.0373
 2665POSM   D2B31273  24.177   0.278  11.204  0.0121  0.1996  0.0243
 2665POSM   C3B31274  24.421   0.368  11.549  0.0027  0.2741 -0.2800
 2665POSM   C4B31275  24.464   0.107  11.935  0.0300 -0.0986  0.0467
 2666DOPC   NC331276  34.217   8.937  11.283 -0.2245 -0.0421 -0.3485
 2666DOPC   PO431277  33.936   8.893  11.565 -0.0228 -0.4174 -0.2046
 2666DOPC   GL131278  33.692   8.904  11.835  0.2243 -0.0178  0.0338
 2666DOPC   GL231279  33.467   8.744  11.859  0.0478  0.1452  0.0469
 2666DOPC   C1A31280  33.765   8.900  12.308  0.0920 -0.0649  0.0234
 2666DOPC   D2A31281  33.509   9.025  12.684 -0.3142 -0.1725  0.2731
 2666DOPC   C3A31282  33.683   9.196  13.093 -0.0997 -0.1123 -0.0003
 2666DOPC   C4A31283  34.158   9.187  13.255  0.1510 -0.1674 -0.1661
 2666DOPC   C1B31284  33.305   9.097  12.007  0.1620  0.0779 -0.1040
 2666DOPC   D2B31285  33.429   9.413  12.310 -0.1144 -0.0333  0.1243
 2666DOPC   C3B31286  33.149   9.710  12.575 -0.1463 -0.1731  0.0132
 2666DOPC   C4B31287  33.205   9.948  12.992 -0.0439  0.0501  0.2618
 2667DOPC   NC331288  30.986   8.689  11.293  0.0973 -0.3860  0.0455
 2667DOPC   PO431289  31.053   9.056  11.319  0.0008  0.0554  0.0265
 2667DOPC   GL131290  31.243   8.947  11.566 -0.1513  0.4729 -0.3950
 2667DOPC   GL231291  31.042   8.846  11.840  0.2796 -0.1725 -0.3235
 2667DOPC   C1A31292  31.525   8.857  11.964 -0.2102 -0.1268  0.1157
 2667DOPC   D2A31293  31.753   8.943  12.345 -0.2380 -0.0209  0.0014
 2667DOPC   C3A31294  32.183   8.900  12.411 -0.1045  0.0085 -0.1082
 2667DOPC   C4A31295  32.520   9.117  12.606 -0.0875 -0.1481 -0.0704
 2667DOPC   C1B31296  31.097   8.950  12.274 -0.1268  0.1135  0.1157
 2667DOPC   D2B31297  30.958   8.864  12.682 -0.2270  0.0432  0.1964
 2667DOPC   C3B31298  31.122   8.868  13.120 -0.3242 -0.3161  0.0183
 2667DOPC   C4B31299  31.269   8.650  13.491  0.0545 -0.4344 -0.2298
 2668DOPC   NC331300  27.977   4.003  10.458  0.3388 -0.0482 -0.1255
 2668DOPC   PO431301  28.361   3.980  10.363 -0.4355  0.1111  0.2292
 2668DOPC   GL131302  28.253   4.152  10.811 -0.1774  0.0903  0.0440
 2668DOPC   GL231303  28.447   4.128  11.028  0.2414 -0.0047  0.1126
 2668DOPC   C1A31304  27.987   4.156  11.216  0.0133 -0.2481  0.0624
 2668DOPC   D2A31305  27.873   4.018  11.627 -0.0713 -0.1568 -0.0080
 2668DOPC   C3A31306  27.443   4.108  11.819  0.1584 -0.1807 -0.1742
 2668DOPC   C4A31307  27.161   4.336  12.127  0.0874  0.1428 -0.3180
 2668DOPC   C1B31308  28.494   4.331  11.432  0.1328 -0.0500 -0.2574
 2668DOPC   D2B31309  28.250   4.602  11.676 -0.1005 -0.0572  0.3368
 2668DOPC   C3B31310  27.850   4.399  11.893  0.1204  0.3187  0.0440
 2668DOPC   C4B31311  27.657   4.344  12.300  0.0700 -0.2920  0.1226
 2669DOPE   NH331312  30.924   0.916  11.277 -0.1918  0.1536 -0.1376
 2669DOPE   PO431313  30.975   1.077  11.520  0.0877  0.2977 -0.1708
 2669DOPE   GL131314  31.065   0.892  11.890  0.3272 -0.1025  0.0218
 2669DOPE   GL231315  30.747   0.814  11.923  0.0877  0.3605  0.0782
 2669DOPE   C1A31316  31.431   0.672  12.109  0.1508 -0.1444 -0.2432
 2669DOPE   D2A31317  31.558   0.843  12.479  0.0632 -0.3098 -0.0620
 2669DOPE   C3A31318  31.675   0.669  12.873 -0.1408 -0.0462 -0.2644
 2669DOPE   C4A31319  31.428   0.485  13.238  0.0799 -0.3151 -0.0758
 2669DOPE   C1B31320  30.452   0.770  12.243 -0.0907  0.1541  0.0476
 2669DOPE   D2B31321  30.092   0.833  12.620 -0.0756 -0.0781 -0.3641
 2669DOPE   C3B31322  29.705   0.607  12.495 -0.2571  0.0171 -0.2287
 2669DOPE   C4B31323  29.441   0.698  12.147  0.0698  0.1493  0.1977
 2670POSM   NC331324  28.753   1.300  10.458 -0.0457 -0.0925  0.2002
 2670POSM   PO431325  28.350   1.322  10.391 -0.0762 -0.0001  0.2258
 2670POSM   AM131326  28.311   1.281  10.722  0.2067 -0.0954 -0.0862
 2670POSM   AM231327  28.186   1.431  10.972  0.0280  0.2469  0.0038
 2670POSM   T1A31328  28.367   1.024  11.136  0.5116 -0.0069  0.2851
 2670POSM   C2A31329  28.418   1.034  11.564  0.0019 -0.0257 -0.0741
 2670POSM   C3A31330  28.325   1.116  12.021  0.1746 -0.1601  0.1815
 2670POSM   C1B31331  27.867   1.311  11.089 -0.4218 -0.0712  0.1434
 2670POSM   D2B31332  27.516   1.248  11.428 -0.1822  0.0643  0.0048
 2670POSM   C3B31333  27.459   1.292  11.885  0.3532 -0.0171  0.0361
 2670POSM   C4B31334  27.579   1.296  12.303  0.0593  0.0124  0.1297
 2671DOPE   NH331335  24.952  11.047   9.504  0.0891  0.1048 -0.1132
 2671DOPE   PO431336  25.035  11.266   9.712  0.1342 -0.0948  0.1290
 2671DOPE   GL131337  24.934  11.147  10.087 -0.0400 -0.1528  0.2145
 2671DOPE   GL231338  24.884  10.841  10.015 -0.0562 -0.1545 -0.0377
 2671DOPE   C1A31339  25.134  11.144  10.483 -0.1449  0.2730 -0.1262
 2671DOPE   D2A31340  25.485  11.200  10.691 -0.1709 -0.2368  0.1800
 2671DOPE   C3A31341  25.441  11.447  11.099  0.2361 -0.1034  0.1254
 2671DOPE   C4A31342  25.107  11.311  11.336  0.0466  0.0779  0.2934
 2671DOPE   C1B31343  24.796  10.808  10.436  0.2769  0.2227  0.0099
 2671DOPE   D2B31344  24.656  10.948  10.905 -0.3267  0.0814 -0.0096
 2671DOPE   C3B31345  24.380  10.987  11.304  0.0794 -0.0210  0.0485
 2671DOPE   C4B31346  24.193  11.190  11.642  0.4443  0.0213 -0.1880
 2672DOPC   NC331347  32.427   1.433  11.715 -0.0390  0.2188 -0.1804
 2672DOPC   PO431348  32.771   1.568  11.780  0.0039  0.1961  0.0051
 2672DOPC   GL131349  32.628   1.452  12.189 -0.3240  0.1919 -0.2270
 2672DOPC   GL231350  32.854   1.406  12.325 -0.0379 -0.1471 -0.0138
 2672DOPC   C1A31351  32.454   1.152  12.450 -0.0005 -0.3313  0.0969
 2672DOPC   D2A31352  32.033   1.068  12.599 -0.0420  0.2520 -0.0843
 2672DOPC   C3A31353  31.899   1.070  13.042 -0.0147 -0.2006 -0.2564
 2672DOPC   C4A31354  31.731   0.887  13.392  0.3351  0.2126 -0.3046
 2672DOPC   C1B31355  32.599   1.545  12.687  0.4052  0.2079  0.0390
 2672DOPC   D2B31356  32.346   1.575  13.080  0.1889  0.2484 -0.1426
 2672DOPC   C3B31357  32.253   1.181  13.373  0.0424  0.1064 -0.0688
 2672DOPC   C4B31358  31.960   1.059  13.739  0.1293 -0.1617 -0.2125
 2673POSM   NC331359  31.374  34.375  11.182 -0.0534  0.1469 -0.2204
 2673POSM   PO431360  31.686  34.366  11.425 -0.2715 -0.1356 -0.0110
 2673POSM   AM131361  31.648  34.482  11.739  0.0837 -0.0695 -0.1413
 2673POSM   AM231362  31.679  34.351  11.985 -0.1362  0.1310 -0.0577
 2673POSM   T1A31363  31.279  34.599  12.013 -0.2620 -0.0648  0.2153
 2673POSM   C2A31364  31.036  34.572  12.400 -0.2311 -0.2856 -0.5013
 2673POSM   C3A31365  30.837  34.347  12.735  0.2974 -0.0350 -0.0125
 2673POSM   C1B31366  31.502  34.196  12.205  0.0098 -0.0746 -0.0751
 2673POSM   D2B31367  31.539  33.906  12.584  0.1161 -0.0394 -0.3731
 2673POSM   C3B31368  31.674  33.898  13.040 -0.1947 -0.4653  0.2267
 2673POSM   C4B31369  31.956  34.054  13.391 -0.0525 -0.2756  0.1807
 2674DOPE   NH331370  30.351   6.952  11.667 -0.1399  0.0618 -0.1003
 2674DOPE   PO431371  30.151   7.162  11.457 -0.2934  0.3141  0.0664
 2674DOPE   GL131372  29.921   7.214  11.720  0.1329 -0.0707  0.4394
 2674DOPE   GL231373  29.775   6.960  11.818  0.2121 -0.0246  0.0491
 2674DOPE   C1A31374  29.791   7.337  12.199 -0.0369  0.0038 -0.0286
 2674DOPE   D2A31375  29.761   7.580  12.610 -0.1632 -0.0425  0.0962
 2674DOPE   C3A31376  30.104   7.630  12.893  0.2550 -0.0819  0.1572
 2674DOPE   C4A31377  30.302   7.674  13.331  0.0370  0.0827 -0.0355
 2674DOPE   C1B31378  29.439   6.657  11.987 -0.1665 -0.1238 -0.0253
 2674DOPE   D2B31379  29.129   6.602  12.364  0.0040  0.1157  0.0417
 2674DOPE   C3B31380  29.199   6.209  12.632 -0.2380  0.0567 -0.0459
 2674DOPE   C4B31381  29.168   5.865  13.028 -0.0919  0.0016  0.2288
 2675DOPE   NH331382  22.645   3.276  10.304 -0.1474 -0.3359 -0.0762
 2675DOPE   PO431383  22.337   3.254  10.318  0.1340 -0.0642  0.0565
 2675DOPE   GL131384  22.367   3.180  10.809 -0.1920 -0.1692  0.2365
 2675DOPE   GL231385  22.447   2.895  10.762 -0.4027  0.1850 -0.2487
 2675DOPE   C1A31386  22.128   3.252  11.217  0.3227 -0.2670  0.1447
 2675DOPE   D2A31387  21.875   3.374  11.621 -0.0118  0.0725  0.0287
 2675DOPE   C3A31388  21.871   3.712  11.938 -0.0152  0.1322  0.3194
 2675DOPE   C4A31389  21.894   4.202  11.965 -0.1403  0.1468 -0.0001
 2675DOPE   C1B31390  22.361   2.817  11.251  0.0736 -0.0378  0.2160
 2675DOPE   D2B31391  22.620   2.638  11.615  0.1551  0.1272  0.2393
 2675DOPE   C3B31392  22.888   2.333  11.838  0.1879  0.0951  0.2746
 2675DOPE   C4B31393  23.165   1.972  11.741 -0.0346  0.4242 -0.2374
 2676DOPC   NC331394  26.545   8.470  10.417 -0.2447  0.1122 -0.2914
 2676DOPC   PO431395  26.956   8.575  10.387 -0.0739  0.1698  0.0899
 2676DOPC   GL131396  27.150   8.334  10.656 -0.0994 -0.2116 -0.2602
 2676DOPC   GL231397  26.903   8.112  10.661  0.0181 -0.2657 -0.1166
 2676DOPC   C1A31398  27.224   8.338  11.109  0.0849  0.0199  0.3112
 2676DOPC   D2A31399  27.360   8.505  11.511 -0.0567 -0.0587 -0.1223
 2676DOPC   C3A31400  27.608   8.492  11.926 -0.3654 -0.1191  0.2676
 2676DOPC   C4A31401  27.565   8.493  12.390 -0.0200 -0.0756  0.1216
 2676DOPC   C1B31402  26.757   7.890  11.047 -0.0832  0.3284 -0.3011
 2676DOPC   D2B31403  26.591   7.905  11.553  0.0005  0.2726  0.1036
 2676DOPC   C3B31404  26.427   7.562  11.883 -0.2039 -0.2106  0.0390
 2676DOPC   C4B31405  26.427   7.460  12.341 -0.1358 -0.0894 -0.0713
 2677DOPE   NH331406  24.543   9.554   9.377 -0.2988 -0.0171  0.0224
 2677DOPE   PO431407  24.672   9.800   9.541  0.0522 -0.1967  0.4381
 2677DOPE   GL131408  24.456   9.630   9.856 -0.1186 -0.2374 -0.0758
 2677DOPE   GL231409  24.667   9.477   9.989  0.0616 -0.3328 -0.2845
 2677DOPE   C1A31410  24.465   9.819  10.311 -0.2117 -0.1996  0.0954
 2677DOPE   D2A31411  24.390  10.056  10.669  0.3109 -0.1193 -0.2277
 2677DOPE   C3A31412  24.599   9.850  11.045 -0.1133  0.0055 -0.1278
 2677DOPE   C4A31413  24.832   9.721  11.404 -0.1236  0.0118  0.3075
 2677DOPE   C1B31414  24.940   9.666  10.383  0.0380 -0.2260 -0.3522
 2677DOPE   D2B31415  25.132  10.005  10.548  0.1830 -0.0308 -0.4114
 2677DOPE   C3B31416  25.223  10.181  10.992  0.0502  0.0638  0.2215
 2677DOPE   C4B31417  25.299  10.055  11.445 -0.1314 -0.5249  0.3143
 2678POSM   NC331418  29.410   8.123  11.014 -0.1811 -0.0263 -0.0390
 2678POSM   PO431419  29.040   7.971  11.058 -0.0701  0.0090 -0.0033
 2678POSM   AM131420  29.081   7.918  11.393  0.1194  0.0775 -0.0440
 2678POSM   AM231421  29.185   7.660  11.435  0.2250 -0.0713  0.2381
 2678POSM   T1A31422  29.178   8.054  11.877  0.0712 -0.0648 -0.2501
 2678POSM   C2A31423  29.246   8.111  12.301  0.0550 -0.5564 -0.2108
 2678POSM   C3A31424  29.149   8.380  12.667 -0.1418  0.0126  0.2893
 2678POSM   C1B31425  29.078   7.537  11.731 -0.0993  0.1426  0.2255
 2678POSM   D2B31426  28.934   7.692  12.137 -0.1550  0.0865 -0.0096
 2678POSM   C3B31427  28.783   7.268  12.321  0.0291  0.1513 -0.2839
 2678POSM   C4B31428  28.598   6.936  12.633  0.1872 -0.1067 -0.1565
 2679DOPC   NC331429  31.951  10.501  10.260 -0.2525  0.1091  0.0240
 2679DOPC   PO431430  31.613  10.673  10.334  0.0453  0.1905  0.0204
 2679DOPC   GL131431  31.604  10.706  10.754 -0.1345 -0.0249 -0.5283
 2679DOPC   GL231432  31.567  11.030  10.735  0.2954 -0.1020  0.0827
 2679DOPC   C1A31433  31.685  10.791  11.222  0.0126 -0.2863 -0.0160
 2679DOPC   D2A31434  31.435  11.022  11.598  0.0025 -0.0880  0.1825
 2679DOPC   C3A31435  31.471  11.469  11.789  0.0894  0.3942  0.0597
 2679DOPC   C4A31436  31.796  11.646  12.058 -0.1261  0.1708  0.2131
 2679DOPC   C1B31437  31.569  11.443  10.845  0.0684  0.0664  0.1707
 2679DOPC   D2B31438  31.459  11.907  10.857  0.4938  0.0152  0.0475
 2679DOPC   C3B31439  31.168  11.998  11.231 -0.0714 -0.3514 -0.1091
 2679DOPC   C4B31440  31.487  11.904  11.538  0.2330  0.2298  0.1050
 2680POSM   NC331441  31.222  11.868   9.668  0.1425  0.1790 -0.2366
 2680POSM   PO431442  30.830  11.850   9.635  0.2344  0.0864  0.5762
 2680POSM   AM131443  30.713  11.836   9.948 -0.2919 -0.1577  0.0515
 2680POSM   AM231444  30.831  11.702  10.178  0.1706 -0.2043 -0.0811
 2680POSM   T1A31445  30.640  12.138  10.334  0.1504 -0.0189  0.0662
 2680POSM   C2A31446  30.618  12.469  10.688  0.1346  0.0338 -0.2467
 2680POSM   C3A31447  30.237  12.623  10.916 -0.1666 -0.2749 -0.1826
 2680POSM   C1B31448  30.693  11.570  10.508 -0.3269 -0.0477  0.2882
 2680POSM   D2B31449  30.534  11.414  10.893 -0.0586 -0.0164 -0.0840
 2680POSM   C3B31450  30.589  11.571  11.322 -0.3033 -0.2964  0.2118
 2680POSM   C4B31451  30.767  11.944  11.586 -0.4127 -0.0144  0.0953
 2681DOPE   NH331452  28.895   0.065  10.672 -0.2703 -0.0904  0.5170
 2681DOPE   PO431453  29.046   0.122  10.958 -0.1355  0.0251  0.0761
 2681DOPE   GL131454  28.872   0.248  11.314 -0.1229  0.3913  0.0857
 2681DOPE   GL231455  28.931   0.120  11.555 -0.1116  0.1485 -0.2462
 2681DOPE   C1A31456  28.779   0.591  11.609 -0.0796  0.3426 -0.0412
 2681DOPE   D2A31457  28.429   0.610  11.966 -0.2857 -0.2250  0.0336
 2681DOPE   C3A31458  28.338   0.166  12.148 -0.3679 -0.2758 -0.1874
 2681DOPE   C4A31459  28.097  -0.199  12.260  0.2321  0.3235  0.1763
 2681DOPE   C1B31460  28.471   0.162  11.663  0.2705 -0.0097 -0.0264
 2681DOPE   D2B31461  28.040   0.032  11.777  0.1082  0.1741  0.3072
 2681DOPE   C3B31462  27.772   0.354  12.056  0.0259  0.3514 -0.0653
 2681DOPE   C4B31463  27.417   0.434  12.295 -0.3139  0.2053  0.1393
 2682DOPC   NC331464  31.785   4.634  11.835  0.2330  0.2387  0.0157
 2682DOPC   PO431465  31.988   4.290  11.874 -0.0242  0.0454  0.0067
 2682DOPC   GL131466  31.772   4.245  12.223  0.0528 -0.2413 -0.2882
 2682DOPC   GL231467  31.479   4.259  12.171 -0.0010 -0.1975 -0.0834
 2682DOPC   C1A31468  31.668   4.256  12.685 -0.0036  0.1552 -0.3156
 2682DOPC   D2A31469  31.469   4.392  13.063  0.1425  0.2644 -0.3327
 2682DOPC   C3A31470  31.699   4.179  13.443 -0.4222 -0.0209 -0.0027
 2682DOPC   C4A31471  31.651   3.853  13.780 -0.3537 -0.1646 -0.1515
 2682DOPC   C1B31472  31.299   4.534  12.515  0.1201  0.0324  0.0075
 2682DOPC   D2B31473  30.884   4.797  12.451  0.0270  0.0185 -0.3942
 2682DOPC   C3B31474  30.849   4.961  12.039  0.2085  0.4141 -0.3189
 2682DOPC   C4B31475  30.917   5.220  11.697 -0.2469  0.1686  0.0212
 2683DOPE   NH331476   0.647   3.025  12.543 -0.0710 -0.0799  0.2117
 2683DOPE   PO431477   0.334   2.876  12.570 -0.1633  0.3285 -0.1060
 2683DOPE   GL131478   0.322   2.775  12.884 -0.0975  0.0417 -0.1528
 2683DOPE   GL231479   0.258   2.500  12.945  0.2200 -0.2120 -0.1209
 2683DOPE   C1A31480   0.352   2.976  13.288  0.1098  0.0245 -0.1030
 2683DOPE   D2A31481   0.621   3.146  13.694  0.1516 -0.1872 -0.3321
 2683DOPE   C3A31482   0.982   3.316  13.829 -0.4562  0.4176  0.1277
 2683DOPE   C4A31483   1.215   3.661  14.036  0.0697 -0.1133  0.1089
 2683DOPE   C1B31484   0.125   2.498  13.399  0.3527  0.0328  0.0668
 2683DOPE   D2B31485  -0.126   2.445  13.820  0.1816 -0.2034  0.0260
 2683DOPE   C3B31486  -0.099   2.807  14.064  0.0103  0.0986  0.0644
 2683DOPE   C4B31487  -0.161   3.203  14.277  0.0021 -0.1088 -0.3809
 2684POSM   NC331488  26.717   4.527   9.896 -0.4304  0.0124  0.0722
 2684POSM   PO431489  26.355   4.553  10.036 -0.2493  0.1512  0.1807
 2684POSM   AM131490  26.476   4.530  10.358  0.0821 -0.0729  0.1701
 2684POSM   AM231491  26.482   4.693  10.604 -0.1375 -0.0040 -0.0932
 2684POSM   T1A31492  26.357   4.264  10.763  0.1001  0.4122 -0.0693
 2684POSM   C2A31493  26.294   4.096  11.147 -0.0081 -0.1297 -0.1888
 2684POSM   C3A31494  26.608   3.887  11.404  0.0331 -0.1744  0.2635
 2684POSM   C1B31495  26.733   4.657  10.857 -0.1102  0.4623 -0.1568
 2684POSM   D2B31496  26.826   4.862  11.292  0.1516  0.0423 -0.0486
 2684POSM   C3B31497  26.469   4.981  11.513  0.2034  0.0483 -0.3988
 2684POSM   C4B31498  26.011   5.040  11.473 -0.2087 -0.1149  0.2749
 2685DOPC   NC331499  28.577   7.868  10.885  0.1747  0.3598  0.2885
 2685DOPC   PO431500  28.308   7.587  10.844  0.2610 -0.1888 -0.2181
 2685DOPC   GL131501  28.467   7.544  11.239  0.2012  0.0546 -0.0769
 2685DOPC   GL231502  28.738   7.547  11.282  0.0733  0.0206 -0.1173
 2685DOPC   C1A31503  28.190   7.508  11.566  0.2523 -0.2155  0.2756
 2685DOPC   D2A31504  28.059   7.560  11.967  0.0059  0.1293 -0.1314
 2685DOPC   C3A31505  28.365   7.601  12.212 -0.3293  0.1472  0.0857
 2685DOPC   C4A31506  28.258   7.857  12.586  0.1746 -0.1592 -0.1253
 2685DOPC   C1B31507  28.872   7.130  11.519 -0.3232  0.0379 -0.2062
 2685DOPC   D2B31508  28.857   6.875  11.889 -0.1530 -0.2286  0.1206
 2685DOPC   C3B31509  28.467   6.780  12.148  0.1981 -0.0769  0.1326
 2685DOPC   C4B31510  28.122   7.104  12.341  0.1370  0.2369  0.3035
 2686POSM   NC331511  31.271   1.501  11.410 -0.0120 -0.1546 -0.2163
 2686POSM   PO431512  31.247   1.703  11.754  0.0012 -0.2649  0.1546
 2686POSM   AM131513  31.285   1.543  12.032  0.0722 -0.2011 -0.0707
 2686POSM   AM231514  31.155   1.589  12.297  0.3286 -0.0283  0.0948
 2686POSM   T1A31515  31.148   1.104  12.272 -0.0214  0.2123 -0.0207
 2686POSM   C2A31516  30.863   1.038  12.569 -0.0977 -0.4503  0.1235
 2686POSM   C3A31517  30.532   0.823  12.759 -0.2288  0.3665  0.4333
 2686POSM   C1B31518  31.010   1.534  12.626 -0.2073  0.1939 -0.1576
 2686POSM   D2B31519  30.876   1.329  12.997  0.1696  0.1251 -0.2233
 2686POSM   C3B31520  30.817   1.691  13.271  0.0920  0.0176  0.2379
 2686POSM   C4B31521  30.554   1.787  13.607  0.0198  0.1988 -0.1644
 2687POSM   NC331522  23.052   7.644  10.017  0.0129 -0.0555 -0.2575
 2687POSM   PO431523  22.967   7.252  10.085 -0.0375  0.0310  0.0429
 2687POSM   AM131524  23.008   7.229  10.401 -0.2153  0.2108  0.1544
 2687POSM   AM231525  23.141   7.043  10.616 -0.0441  0.2584  0.4537
 2687POSM   T1A31526  22.966   7.518  10.859  0.1019 -0.0216  0.1514
 2687POSM   C2A31527  22.804   7.783  11.174 -0.0766  0.0648 -0.0975
 2687POSM   C3A31528  22.443   7.844  11.460 -0.1751  0.0343  0.1355
 2687POSM   C1B31529  23.146   6.966  10.952 -0.0196 -0.0640  0.4049
 2687POSM   D2B31530  23.320   6.657  11.218  0.0115 -0.3460  0.0009
 2687POSM   C3B31531  23.033   6.465  11.525 -0.1198  0.1000  0.3085
 2687POSM   C4B31532  22.645   6.496  11.834  0.2876  0.1209 -0.0180
 2688DOPC   NC331533  29.429   0.877  10.850 -0.4909  0.0508 -0.1627
 2688DOPC   PO431534  29.550   1.220  10.936 -0.0649 -0.1905 -0.0685
 2688DOPC   GL131535  29.320   1.201  11.298 -0.0623 -0.1670 -0.0034
 2688DOPC   GL231536  29.452   0.997  11.410 -0.1396 -0.0534 -0.0131
 2688DOPC   C1A31537  29.228   1.486  11.653  0.4022  0.1370 -0.2191
 2688DOPC   D2A31538  29.093   1.706  11.972  0.1632 -0.2211  0.0125
 2688DOPC   C3A31539  29.264   1.770  12.421 -0.0133  0.2249  0.0154
 2688DOPC   C4A31540  29.633   1.594  12.697 -0.3505 -0.2006 -0.0065
 2688DOPC   C1B31541  29.541   1.078  11.856  0.0501  0.0052 -0.1274
 2688DOPC   D2B31542  29.285   1.337  12.113 -0.2642  0.2084 -0.0720
 2688DOPC   C3B31543  29.005   1.224  12.450  0.5867 -0.2425 -0.2931
 2688DOPC   C4B31544  29.146   0.815  12.657 -0.0408 -0.2058  0.1503
 2689DOPE   NH331545  25.666   2.636   9.842 -0.0820 -0.2446 -0.2059
 2689DOPE   PO431546  25.372   2.485   9.863  0.1001  0.0956  0.3186
 2689DOPE   GL131547  25.332   2.410  10.198  0.1285  0.2637 -0.1215
 2689DOPE   GL231548  25.279   2.121  10.425  0.0680 -0.3752  0.2146
 2689DOPE   C1A31549  25.308   2.715  10.572 -0.0071  0.0470  0.1928
 2689DOPE   D2A31550  25.459   2.674  11.023 -0.0831 -0.1457  0.1429
 2689DOPE   C3A31551  25.145   2.541  11.360 -0.2053  0.2312 -0.0162
 2689DOPE   C4A31552  24.880   2.694  11.772 -0.0313  0.0640 -0.0802
 2689DOPE   C1B31553  25.516   2.242  10.825 -0.0688 -0.1732 -0.0970
 2689DOPE   D2B31554  25.594   2.214  11.279  0.2855  0.0996 -0.2337
 2689DOPE   C3B31555  25.851   2.504  11.472 -0.0018 -0.0740 -0.0715
 2689DOPE   C4B31556  25.961   2.666  11.884 -0.0210 -0.0494  0.0095
 2690POSM   NC331557  27.294  12.965   9.341  0.0640 -0.2543  0.2158
 2690POSM   PO431558  27.021  12.954   9.615  0.0240  0.0355 -0.4249
 2690POSM   AM131559  26.907  13.011   9.939 -0.3145 -0.3893  0.6577
 2690POSM   AM231560  26.935  12.852  10.193 -0.1260  0.1310  0.0804
 2690POSM   T1A31561  27.039  13.288  10.350 -0.3667 -0.1771 -0.1404
 2690POSM   C2A31562  27.139  13.505  10.772 -0.1595 -0.1645 -0.0364
 2690POSM   C3A31563  27.333  13.858  11.042  0.0910  0.0984 -0.0427
 2690POSM   C1B31564  27.053  12.815  10.509  0.0431  0.1656 -0.2058
 2690POSM   D2B31565  27.223  13.006  10.905 -0.0402 -0.2751 -0.0729
 2690POSM   C3B31566  27.294  12.809  11.287 -0.2745  0.0931 -0.0788
 2690POSM   C4B31567  27.005  12.573  11.544 -0.2190 -0.0911  0.0518
 2691POSM   NC331568  27.996   3.153  10.167  0.1300  0.0167 -0.0975
 2691POSM   PO431569  28.030   3.535  10.268  0.0486  0.0504 -0.0878
 2691POSM   AM131570  27.914   3.478  10.579 -0.0880  0.0240 -0.1140
 2691POSM   AM231571  27.906   3.217  10.752 -0.2756 -0.1152 -0.0193
 2691POSM   T1A31572  27.476   3.435  10.847  0.0455 -0.0426 -0.0771
 2691POSM   C2A31573  27.163   3.558  11.189  0.0352  0.1419 -0.1219
 2691POSM   C3A31574  27.075   3.798  11.582  0.1268 -0.3052  0.3493
 2691POSM   C1B31575  27.942   3.276  11.098 -0.2140 -0.0824  0.0214
 2691POSM   D2B31576  28.079   3.380  11.541 -0.2714 -0.0100 -0.0558
 2691POSM   C3B31577  27.990   3.646  11.886 -0.3786 -0.3354 -0.1887
 2691POSM   C4B31578  27.730   3.891  12.170 -0.0521 -0.1916  0.0484
 2692DOPS   CNO31579  30.691   5.865  10.641  0.0233  0.1220 -0.2070
 2692DOPS   PO431580  30.483   5.689  10.913  0.1522 -0.1050  0.0807
 2692DOPS   GL131581  30.284   5.463  11.258 -0.0894  0.1342  0.0688
 2692DOPS   GL231582  30.136   5.200  11.208 -0.1907 -0.0336 -0.2719
 2692DOPS   C1A31583  30.020   5.597  11.578 -0.0294 -0.1403  0.0257
 2692DOPS   D2A31584  29.666   5.617  11.946 -0.0881  0.1509 -0.0084
 2692DOPS   C3A31585  29.413   5.326  12.296  0.0432  0.0182  0.1844
 2692DOPS   C4A31586  29.064   5.367  12.627 -0.1121 -0.0895 -0.0184
 2692DOPS   C1B31587  29.918   5.143  11.621  0.1894  0.0368 -0.0270
 2692DOPS   D2B31588  29.529   5.107  11.838 -0.0097 -0.1844  0.1799
 2692DOPS   C3B31589  29.491   4.828  12.218 -0.0423 -0.1164  0.0094
 2692DOPS   C4B31590  29.573   5.019  12.686 -0.2072 -0.2785  0.1466
 2693DOPC   NC331591  25.750  11.725   9.614  0.3501  0.0337 -0.3943
 2693DOPC   PO431592  25.546  11.439   9.804  0.2822  0.2101  0.3277
 2693DOPC   GL131593  25.435  11.406  10.194  0.2887 -0.2581 -0.0412
 2693DOPC   GL231594  25.654  11.516  10.309 -0.2649  0.0641 -0.3803
 2693DOPC   C1A31595  25.208  11.604  10.491 -0.0047 -0.0995 -0.4307
 2693DOPC   D2A31596  24.757  11.845  10.530  0.1291  0.0852 -0.4074
 2693DOPC   C3A31597  24.445  11.668  10.785  0.1098  0.2131  0.0086
 2693DOPC   C4A31598  24.199  11.280  10.920  0.1296  0.0667  0.1033
 2693DOPC   C1B31599  25.645  11.775  10.681  0.0090 -0.3653  0.4626
 2693DOPC   D2B31600  25.574  12.205  10.953  0.2502 -0.0218  0.1046
 2693DOPC   C3B31601  25.808  12.546  11.148  0.0564 -0.1377  0.3775
 2693DOPC   C4B31602  25.925  12.675  11.560 -0.2737 -0.2691 -0.1599
 2694POSM   NC331603  24.857   6.637   9.921  0.0420  0.1553  0.0718
 2694POSM   PO431604  25.220   6.643  10.066  0.0390 -0.2010  0.3938
 2694POSM   AM131605  25.298   6.686  10.400 -0.0330  0.1095 -0.1014
 2694POSM   AM231606  25.392   6.501  10.594  0.1747 -0.3274  0.1348
 2694POSM   T1A31607  25.181   6.936  10.829  0.1460  0.0046 -0.1459
 2694POSM   C2A31608  24.965   7.323  10.944 -0.0025 -0.0083 -0.1647
 2694POSM   C3A31609  24.911   7.627  11.328 -0.3129 -0.1481  0.2312
 2694POSM   C1B31610  25.204   6.370  10.809 -0.1506  0.0071  0.2348
 2694POSM   D2B31611  24.852   6.362  11.120  0.1380 -0.1311 -0.2336
 2694POSM   C3B31612  24.955   6.054  11.501 -0.0650  0.4121 -0.0204
 2694POSM   C4B31613  24.693   5.760  11.782 -0.0270  0.3493  0.0660
 2695DOPE   NH331614  29.978   2.997  10.867  0.0588 -0.2330  0.2586
 2695DOPE   PO431615  29.820   3.246  10.929  0.0967  0.0256  0.0286
 2695DOPE   GL131616  29.542   3.239  11.031  0.3829  0.0631 -0.0911
 2695DOPE   GL231617  29.459   3.523  11.203 -0.0847 -0.3907  0.2196
 2695DOPE   C1A31618  29.434   2.901  11.363  0.3214 -0.0731  0.1353
 2695DOPE   D2A31619  29.193   2.830  11.793 -0.0647  0.3845  0.0598
 2695DOPE   C3A31620  28.942   3.199  11.882 -0.0852  0.0617  0.0848
 2695DOPE   C4A31621  29.015   3.590  12.084  0.1067 -0.1372 -0.2447
 2695DOPE   C1B31622  29.116   3.302  11.407 -0.0925  0.1861 -0.0610
 2695DOPE   D2B31623  28.643   3.244  11.482  0.0343  0.0141  0.2877
 2695DOPE   C3B31624  28.538   2.847  11.819 -0.1589  0.4586 -0.0164
 2695DOPE   C4B31625  28.847   2.745  12.191  0.1741 -0.0626 -0.0315
 2696POSM   NC331626  23.626   7.958   9.640 -0.2184 -0.2469 -0.0562
 2696POSM   PO431627  23.498   7.959   9.996  0.3543  0.0342 -0.0344
 2696POSM   AM131628  23.231   8.076  10.130  0.4720 -0.1011 -0.0046
 2696POSM   AM231629  23.120   8.003  10.393 -0.0542 -0.4151 -0.3146
 2696POSM   T1A31630  23.048   8.493  10.367  0.2659 -0.0182  0.1039
 2696POSM   C2A31631  23.049   8.754  10.770 -0.1086  0.0700  0.3648
 2696POSM   C3A31632  22.806   9.044  10.993  0.1895  0.2024 -0.0267
 2696POSM   C1B31633  23.303   7.802  10.671  0.0244 -0.0646  0.0066
 2696POSM   D2B31634  23.395   7.846  11.145 -0.0166 -0.1317 -0.0236
 2696POSM   C3B31635  23.101   8.102  11.352 -0.4114  0.1291  0.0429
 2696POSM   C4B31636  22.766   8.314  11.631 -0.2146  0.1181  0.1205
 2697POSM   NC331637  25.884   8.762  10.050 -0.1384  0.0492 -0.1529
 2697POSM   PO431638  26.208   8.766  10.189  0.2023 -0.0633 -0.1940
 2697POSM   AM131639  26.154   8.795  10.506 -0.1750  0.2265  0.1858
 2697POSM   AM231640  26.086   8.567  10.690  0.1790 -0.2165  0.4449
 2697POSM   T1A31641  26.242   9.048  10.946  0.3598  0.3237  0.0769
 2697POSM   C2A31642  26.275   9.398  11.252 -0.1093 -0.0066 -0.1434
 2697POSM   C3A31643  26.298   9.704  11.586 -0.0669 -0.0629  0.1920
 2697POSM   C1B31644  26.115   8.581  11.008  0.3497  0.1066 -0.0286
 2697POSM   D2B31645  25.960   8.636  11.449 -0.1179  0.1736  0.0271
 2697POSM   C3B31646  26.040   8.333  11.821 -0.1284  0.2387 -0.0905
 2697POSM   C4B31647  26.224   7.978  12.077 -0.2112  0.2077 -0.0699
 2698POSM   NC331648  26.216   9.554  10.145 -0.0573  0.0240 -0.2297
 2698POSM   PO431649  26.011   9.256  10.003 -0.0471 -0.0967 -0.0972
 2698POSM   AM131650  25.824   9.252  10.272  0.0979  0.1406 -0.1932
 2698POSM   AM231651  25.672   9.043  10.399 -0.2063 -0.1478  0.1986
 2698POSM   T1A31652  25.931   9.434  10.748 -0.2219  0.0687 -0.3886
 2698POSM   C2A31653  25.818   9.649  11.141  0.3080  0.1763  0.2137
 2698POSM   C3A31654  25.798   9.838  11.562  0.2100 -0.3722 -0.2026
 2698POSM   C1B31655  25.736   8.949  10.693 -0.0652  0.1814 -0.2005
 2698POSM   D2B31656  25.587   8.718  11.090  0.0816  0.1297 -0.0789
 2698POSM   C3B31657  25.487   8.811  11.540  0.1980 -0.1813 -0.1053
 2698POSM   C4B31658  25.662   8.804  12.031  0.0958  0.0535  0.0482
 2699DOPS   CNO31659  33.536   4.842  11.921  0.1878 -0.0084 -0.4092
 2699DOPS   PO431660  33.172   4.870  12.113  0.1526  0.2228  0.1883
 2699DOPS   GL131661  33.049   4.631  12.435  0.4147 -0.0301 -0.1438
 2699DOPS   GL231662  33.011   4.843  12.580  0.1140  0.1880  0.0449
 2699DOPS   C1A31663  33.079   4.506  12.897  0.1240 -0.0118 -0.2538
 2699DOPS   D2A31664  33.189   4.375  13.355  0.2803 -0.0256 -0.0407
 2699DOPS   C3A31665  32.825   4.513  13.621  0.1541 -0.3003  0.1739
 2699DOPS   C4A31666  32.788   4.759  13.988  0.0442 -0.1567  0.0306
 2699DOPS   C1B31667  32.824   4.961  13.022 -0.1274  0.1123 -0.1492
 2699DOPS   D2B31668  32.826   5.112  13.516  0.0193  0.3590 -0.4545
 2699DOPS   C3B31669  33.078   5.241  13.875 -0.0077 -0.1488  0.1209
 2699DOPS   C4B31670  33.472   5.406  14.001 -0.1176 -0.1272 -0.0084
 2700POSM   NC331671  30.226   0.348  10.946 -0.0777  0.1262  0.1542
 2700POSM   PO431672  30.179   0.437  11.332 -0.1207 -0.0508 -0.1346
 2700POSM   AM131673  30.154   0.561  11.631 -0.1598  0.2262 -0.0562
 2700POSM   AM231674  30.302   0.493  11.859 -0.1259 -0.0189  0.0438
 2700POSM   T1A31675  29.919   0.816  12.026  0.2160  0.0901  0.0978
 2700POSM   C2A31676  30.085   1.230  12.276 -0.1103  0.1307  0.2811
 2700POSM   C3A31677  30.101   1.633  12.454 -0.0784 -0.0152 -0.5200
 2700POSM   C1B31678  30.163   0.385  12.122  0.1693  0.0817  0.0894
 2700POSM   D2B31679  30.036   0.246  12.567  0.4321  0.1091  0.1698
 2700POSM   C3B31680  29.816  -0.171  12.702  0.0806  0.1448  0.1429
 2700POSM   C4B31681  29.708  -0.468  12.896  0.0835  0.1917 -0.2143
 2701DOPE   NH331682  32.892   3.584  11.968  0.2234  0.0514  0.5687
 2701DOPE   PO431683  33.076   3.816  12.132 -0.0394  0.0363  0.2552
 2701DOPE   GL131684  32.844   3.702  12.393  0.0313 -0.0010  0.2908
 2701DOPE   GL231685  32.582   3.832  12.325 -0.3153  0.1555  0.1388
 2701DOPE   C1A31686  32.732   3.458  12.793 -0.0595  0.0623  0.2385
 2701DOPE   D2A31687  32.861   3.368  13.205 -0.2901 -0.4612  0.2995
 2701DOPE   C3A31688  33.132   3.617  13.536  0.4978 -0.1171 -0.2089
 2701DOPE   C4A31689  33.376   3.651  13.898 -0.1454 -0.0460 -0.2262
 2701DOPE   C1B31690  32.838   3.950  12.759 -0.1143  0.2358  0.2307
 2701DOPE   D2B31691  33.017   3.945  13.172  0.4169  0.1616  0.2726
 2701DOPE   C3B31692  32.899   4.048  13.632  0.0783  0.0133  0.1405
 2701DOPE   C4B31693  32.603   4.309  13.988  0.0669 -0.1010 -0.2562
 2702DOPE   NH331694  33.000   9.246  11.146 -0.4207 -0.0514  0.1669
 2702DOPE   PO431695  33.080   9.144  11.380  0.1205 -0.0525 -0.2338
 2702DOPE   GL131696  33.029   9.299  11.716 -0.2085 -0.0271  0.3193
 2702DOPE   GL231697  32.787   9.426  11.797  0.0732  0.1042 -0.0219
 2702DOPE   C1A31698  33.210   9.695  11.899  0.0201  0.0631 -0.1352
 2702DOPE   D2A31699  33.573   9.913  12.081 -0.0298 -0.0459 -0.3906
 2702DOPE   C3A31700  33.485  10.070  12.518  0.0826  0.2939 -0.1408
 2702DOPE   C4A31701  33.668  10.219  12.821  0.1069 -0.2619 -0.1373
 2702DOPE   C1B31702  32.607   9.785  12.048 -0.0703  0.3424  0.1698
 2702DOPE   D2B31703  32.502  10.219  12.177 -0.0664 -0.1418  0.0213
 2702DOPE   C3B31704  32.855  10.494  12.013  0.0654  0.0557  0.0010
 2702DOPE   C4B31705  32.995  10.810  12.300  0.1113 -0.0312  0.2206
 2703DOPE   NH331706  30.390   8.835  10.823 -0.0548  0.0073  0.0882
 2703DOPE   PO431707  30.627   8.762  11.013 -0.2453 -0.0622  0.0419
 2703DOPE   GL131708  30.552   8.752  11.412 -0.2544 -0.1860  0.4890
 2703DOPE   GL231709  30.559   8.993  11.523  0.1486 -0.0372  0.0888
 2703DOPE   C1A31710  30.618   8.502  11.803  0.1461 -0.1105 -0.1547
 2703DOPE   D2A31711  30.363   8.367  12.143  0.1301 -0.0044  0.1082
 2703DOPE   C3A31712  29.945   8.539  12.217  0.1919  0.2563  0.3202
 2703DOPE   C4A31713  29.630   8.588  12.554  0.1654  0.0140 -0.0771
 2703DOPE   C1B31714  30.665   9.157  11.929 -0.0740 -0.1119 -0.1929
 2703DOPE   D2B31715  30.872   9.407  12.247  0.0154  0.2983  0.0491
 2703DOPE   C3B31716  30.582   9.754  12.450 -0.2020 -0.0028  0.0115
 2703DOPE   C4B31717  30.151   9.883  12.637  0.1160  0.3176 -0.1885
 2704DOPE   NH331718  23.611   2.653   9.715 -0.1048  0.0562 -0.2353
 2704DOPE   PO431719  23.439   2.755   9.963  0.0246 -0.0424 -0.0120
 2704DOPE   GL131720  23.326   2.498  10.295 -0.3434 -0.3500  0.2960
 2704DOPE   GL231721  23.170   2.301  10.267  0.0204  0.0567 -0.0277
 2704DOPE   C1A31722  23.702   2.354  10.531 -0.0895  0.0918 -0.4245
 2704DOPE   D2A31723  23.691   1.891  10.689  0.2977  0.0110 -0.3319
 2704DOPE   C3A31724  23.620   1.585  11.052 -0.4382 -0.0770  0.0240
 2704DOPE   C4A31725  23.796   1.255  11.324 -0.1805 -0.1706  0.1461
 2704DOPE   C1B31726  23.206   2.207  10.696  0.0641 -0.1332  0.1557
 2704DOPE   D2B31727  23.175   2.130  11.201 -0.1073 -0.1842  0.4228
 2704DOPE   C3B31728  22.794   2.089  11.453  0.2524 -0.3267 -0.0299
 2704DOPE   C4B31729  22.380   2.064  11.707 -0.1993  0.0645  0.0955
 2705POSM   NC331730  25.489   4.384   9.525  0.1374  0.3690 -0.0751
 2705POSM   PO431731  25.363   4.065   9.772 -0.0777  0.3221 -0.0654
 2705POSM   AM131732  25.247   4.099  10.074  0.3923  0.1836 -0.4130
 2705POSM   AM231733  25.360   4.197  10.307  0.1752 -0.1500  0.0048
 2705POSM   T1A31734  25.119   3.836  10.472 -0.0328 -0.1574  0.3213
 2705POSM   C2A31735  25.145   3.780  10.930 -0.0765 -0.0417 -0.1967
 2705POSM   C3A31736  25.232   3.950  11.370 -0.1336 -0.1219  0.2432
 2705POSM   C1B31737  25.410   4.246  10.600  0.0464 -0.2149  0.0885
 2705POSM   D2B31738  25.595   4.053  11.005  0.0094 -0.2958 -0.1641
 2705POSM   C3B31739  25.864   4.042  11.345  0.0467 -0.0408 -0.1569
 2705POSM   C4B31740  26.205   4.173  11.619  0.4161  0.1760  0.1022
 2706DOPC   NC331741  32.653   9.760  11.492  0.3583  0.2596 -0.1157
 2706DOPC   PO431742  32.335   9.725  11.240 -0.1923  0.0370  0.0500
 2706DOPC   GL131743  32.237   9.933  11.610  0.0846 -0.1627 -0.1820
 2706DOPC   GL231744  32.076   9.677  11.675  0.2451 -0.1604 -0.2712
 2706DOPC   C1A31745  32.214  10.384  11.775 -0.1763  0.3334 -0.2918
 2706DOPC   D2A31746  32.335  10.794  11.937  0.0338 -0.2686 -0.2847
 2706DOPC   C3A31747  32.415  10.738  12.441 -0.1599  0.1432  0.1856
 2706DOPC   C4A31748  32.305  10.679  12.907  0.0784  0.0734  0.1272
 2706DOPC   C1B31749  32.137   9.932  12.048  0.2821  0.1592 -0.1119
 2706DOPC   D2B31750  31.944  10.255  12.319 -0.0966  0.0625  0.1365
 2706DOPC   C3B31751  31.875  10.693  12.150 -0.0470  0.1623  0.1109
 2706DOPC   C4B31752  31.531  10.925  12.307  0.1275 -0.0806 -0.1518
 2707DOPC   NC331753  28.973   9.694  10.396  0.1057 -0.0763  0.0683
 2707DOPC   PO431754  28.973   9.926  10.076 -0.0960  0.0447  0.1407
 2707DOPC   GL131755  28.998  10.149  10.520  0.0419  0.0621  0.3269
 2707DOPC   GL231756  28.947  10.381  10.458 -0.1812  0.0871  0.0343
 2707DOPC   C1A31757  28.770   9.984  10.909 -0.1701  0.2612  0.0390
 2707DOPC   D2A31758  28.676   9.948  11.340 -0.1646 -0.0512 -0.1348
 2707DOPC   C3A31759  28.636  10.392  11.577  0.3319 -0.1239 -0.2589
 2707DOPC   C4A31760  28.271  10.607  11.873  0.0968  0.0027 -0.1475
 2707DOPC   C1B31761  28.875  10.479  10.911  0.1105  0.1062 -0.0672
 2707DOPC   D2B31762  29.012  10.671  11.324 -0.1841 -0.0709  0.4678
 2707DOPC   C3B31763  29.140  11.026  11.569  0.0175 -0.0508 -0.0689
 2707DOPC   C4B31764  29.103  11.251  12.004  0.0335  0.0816  0.0353
 2708POSM   NC331765  25.904   6.568   9.944  0.2583  0.0354  0.0372
 2708POSM   PO431766  25.670   6.295   9.916  0.3463 -0.0980  0.1828
 2708POSM   AM131767  25.732   6.283  10.239 -0.2382  0.1881 -0.3118
 2708POSM   AM231768  25.683   6.148  10.474  0.2991 -0.2693  0.0770
 2708POSM   T1A31769  26.014   6.424  10.640 -0.0293  0.0289 -0.2006
 2708POSM   C2A31770  26.228   6.481  11.018  0.1060  0.3973 -0.1387
 2708POSM   C3A31771  26.569   6.500  11.292  0.0646  0.1029 -0.1618
 2708POSM   C1B31772  25.679   6.140  10.792  0.0580 -0.0811 -0.1125
 2708POSM   D2B31773  25.749   6.282  11.232  0.1384  0.2929 -0.1940
 2708POSM   C3B31774  25.591   6.182  11.666  0.0336  0.1031  0.2029
 2708POSM   C4B31775  25.696   6.489  12.021 -0.2291  0.0948 -0.1098
 2709POSM   NC331776  29.781   7.278  10.692 -0.0891  0.1665 -0.4033
 2709POSM   PO431777  29.992   7.414  10.998 -0.2537  0.3429  0.3756
 2709POSM   AM131778  29.859   7.523  11.299  0.5234  0.0989 -0.0612
 2709POSM   AM231779  29.706   7.738  11.351 -0.1997  0.1909 -0.2073
 2709POSM   T1A31780  29.581   7.476  11.755 -0.0420  0.0743  0.1795
 2709POSM   C2A31781  29.418   7.682  12.126  0.0355  0.1559  0.2936
 2709POSM   C3A31782  29.284   7.570  12.572  0.0946  0.1816 -0.2374
 2709POSM   C1B31783  29.608   7.952  11.633 -0.0632  0.1924 -0.0786
 2709POSM   D2B31784  29.599   8.257  11.967  0.2974 -0.2956  0.1264
 2709POSM   C3B31785  29.310   8.557  12.154  0.0253 -0.0082  0.1798
 2709POSM   C4B31786  29.106   8.826  12.420  0.2383 -0.1743  0.3451
 2710DOPS   CNO31787  32.557   4.976  11.711  0.0740 -0.1008  0.0144
 2710DOPS   PO431788  32.244   4.829  11.749  0.4208 -0.2646 -0.1769
 2710DOPS   GL131789  32.179   4.785  12.177 -0.0283  0.0650 -0.2824
 2710DOPS   GL231790  32.064   5.069  12.177  0.0413  0.0720 -0.0268
 2710DOPS   C1A31791  32.028   4.570  12.619 -0.5006 -0.1996 -0.1163
 2710DOPS   D2A31792  31.963   4.614  13.095 -0.0625  0.0298  0.2237
 2710DOPS   C3A31793  31.728   4.853  13.381  0.2150  0.1725  0.0494
 2710DOPS   C4A31794  31.730   4.988  13.822 -0.0353  0.1221  0.1129
 2710DOPS   C1B31795  31.787   5.002  12.490 -0.3426 -0.2588 -0.1602
 2710DOPS   D2B31796  31.496   4.853  12.805 -0.0992 -0.1822 -0.0143
 2710DOPS   C3B31797  31.202   5.090  13.010 -0.2029  0.0243 -0.2505
 2710DOPS   C4B31798  30.917   5.426  13.088 -0.0388  0.0979  0.0414
 2711DOPE   NH331799  31.134   9.524  11.022 -0.0128  0.0455  0.1673
 2711DOPE   PO431800  31.394   9.461  11.197 -0.0369 -0.1773 -0.0101
 2711DOPE   GL131801  31.108   9.696  11.449 -0.1764  0.5183  0.1793
 2711DOPE   GL231802  31.064   9.455  11.631 -0.0885 -0.1038  0.1077
 2711DOPE   C1A31803  31.207  10.051  11.759  0.3482 -0.1605 -0.0828
 2711DOPE   D2A31804  31.064  10.044  12.185  0.2359 -0.2208 -0.0167
 2711DOPE   C3A31805  30.694  10.336  12.325 -0.1772  0.0938  0.0325
 2711DOPE   C4A31806  30.304  10.499  12.275  0.4912  0.0427 -0.0455
 2711DOPE   C1B31807  31.313   9.364  11.979 -0.0147  0.0265 -0.1327
 2711DOPE   D2B31808  31.451   9.503  12.412  0.1788  0.2639  0.1846
 2711DOPE   C3B31809  31.856   9.322  12.612  0.2829 -0.2534 -0.2607
 2711DOPE   C4B31810  32.132   9.403  13.006  0.2620  0.0712 -0.0796
 2712DOPC   NC331811  29.299   6.115  11.236  0.1490  0.3346 -0.0636
 2712DOPC   PO431812  29.644   6.177  11.049 -0.0399  0.2217 -0.0126
 2712DOPC   GL131813  29.686   6.171  11.468  0.0680  0.0395  0.1431
 2712DOPC   GL231814  29.600   5.879  11.515  0.1075 -0.1179 -0.3207
 2712DOPC   C1A31815  29.491   6.137  11.904  0.1848  0.0045  0.0345
 2712DOPC   D2A31816  29.572   6.325  12.363  0.1060 -0.2628 -0.1228
 2712DOPC   C3A31817  29.932   6.512  12.591 -0.1455 -0.2058  0.0597
 2712DOPC   C4A31818  30.271   6.509  12.857 -0.1573  0.0832 -0.2944
 2712DOPC   C1B31819  29.172   5.857  11.731  0.3484 -0.0992  0.2558
 2712DOPC   D2B31820  29.039   5.649  12.126  0.1927  0.1026 -0.1562
 2712DOPC   C3B31821  28.918   5.822  12.600 -0.2222 -0.0533 -0.2743
 2712DOPC   C4B31822  28.754   6.162  12.955  0.0569  0.1411 -0.1662
 2713DOPC   NC331823  28.408   6.243  10.754  0.0444  0.2762  0.1658
 2713DOPC   PO431824  28.708   6.532  10.730 -0.1165 -0.1256 -0.1612
 2713DOPC   GL131825  28.669   6.463  11.152 -0.3259 -0.2710 -0.0246
 2713DOPC   GL231826  28.377   6.483  11.254  0.2862 -0.3799 -0.1352
 2713DOPC   C1A31827  28.746   6.156  11.494  0.0725 -0.0883 -0.0386
 2713DOPC   D2A31828  28.665   5.851  11.820  0.1345 -0.0662 -0.0303
 2713DOPC   C3A31829  28.489   5.838  12.250 -0.3289 -0.2310 -0.0587
 2713DOPC   C4A31830  28.466   5.655  12.627  0.1241  0.0669  0.0468
 2713DOPC   C1B31831  28.488   6.624  11.654 -0.2769 -0.0589 -0.4120
 2713DOPC   D2B31832  28.402   6.312  11.997 -0.0284  0.2783  0.1430
 2713DOPC   C3B31833  28.021   6.256  12.234 -0.0618 -0.0425  0.1179
 2713DOPC   C4B31834  28.033   6.509  12.581 -0.2060  0.0486 -0.0688
 2714DOPC   NC331835  29.343  11.072  10.267  0.1627  0.0006  0.2242
 2714DOPC   PO431836  29.024  10.854  10.207 -0.0251  0.0706 -0.2380
 2714DOPC   GL131837  28.782  11.182  10.344  0.3826 -0.3695  0.4851
 2714DOPC   GL231838  28.859  11.457  10.394 -0.2551  0.1976  0.0753
 2714DOPC   C1A31839  28.408  11.382  10.628 -0.0189 -0.0255 -0.0178
 2714DOPC   D2A31840  28.615  11.532  11.057 -0.0261 -0.5555  0.0380
 2714DOPC   C3A31841  28.701  11.375  11.466 -0.2857 -0.2266  0.2651
 2714DOPC   C4A31842  28.591  11.246  11.897 -0.3344  0.3879  0.2988
 2714DOPC   C1B31843  29.044  11.710  10.812  0.2927  0.0815  0.2166
 2714DOPC   D2B31844  29.418  11.945  10.950 -0.3625  0.0565  0.2766
 2714DOPC   C3B31845  29.480  11.920  11.391 -0.0687  0.1070  0.1247
 2714DOPC   C4B31846  29.721  11.700  11.786  0.0938  0.1290 -0.4273
 2715DOPE   NH331847  30.561   0.213  11.560  0.0130 -0.2770  0.0166
 2715DOPE   PO431848  30.814   0.455  11.521  0.3440 -0.2141 -0.1047
 2715DOPE   GL131849  30.823   0.341  11.941  0.0076 -0.1543  0.3082
 2715DOPE   GL231850  30.667   0.170  12.054 -0.0201 -0.2518 -0.1815
 2715DOPE   C1A31851  30.979   0.569  12.288  0.0618 -0.0516 -0.3012
 2715DOPE   D2A31852  31.174   0.585  12.709  0.0115  0.1611 -0.1491
 2715DOPE   C3A31853  31.252   1.000  12.818 -0.1216  0.0753 -0.0154
 2715DOPE   C4A31854  31.457   1.346  12.881 -0.2769 -0.0663 -0.1142
 2715DOPE   C1B31855  30.515   0.366  12.502 -0.2838  0.0948 -0.0998
 2715DOPE   D2B31856  30.295   0.363  12.963  0.0978 -0.3024  0.1153
 2715DOPE   C3B31857  29.845   0.390  13.048 -0.1335 -0.5359 -0.0492
 2715DOPE   C4B31858  29.436   0.347  12.803 -0.0699 -0.1548 -0.0436
 2716DOPC   NC331859  31.487   8.965  11.128 -0.0170 -0.2897  0.1972
 2716DOPC   PO431860  31.821   8.869  11.318 -0.1025 -0.3589  0.0372
 2716DOPC   GL131861  31.950   8.959  11.785  0.2773  0.2976  0.0907
 2716DOPC   GL231862  32.046   8.678  11.900  0.0430 -0.1534 -0.0043
 2716DOPC   C1A31863  31.847   9.317  12.042 -0.1160 -0.3642 -0.0648
 2716DOPC   D2A31864  31.704   9.797  12.093  0.2027 -0.1701 -0.3235
 2716DOPC   C3A31865  31.737  10.175  11.886  0.1347 -0.1341 -0.0056
 2716DOPC   C4A31866  31.780  10.606  11.645 -0.0610  0.1914  0.2521
 2716DOPC   C1B31867  31.709   8.448  12.134 -0.0600 -0.1848  0.3102
 2716DOPC   D2B31868  31.733   8.062  12.313  0.2893  0.2077 -0.3369
 2716DOPC   C3B31869  31.925   8.093  12.740  0.1541  0.2436  0.0257
 2716DOPC   C4B31870  31.799   8.380  13.132  0.0174 -0.0113 -0.0500
 2717POSM   NC331871  27.983   4.879  10.637  0.1427  0.1602 -0.1428
 2717POSM   PO431872  27.669   4.793  10.370  0.0839  0.0970 -0.0498
 2717POSM   AM131873  27.568   5.083  10.552 -0.0967  0.0404  0.0077
 2717POSM   AM231874  27.617   5.215  10.782 -0.0445  0.1701 -0.1437
 2717POSM   T1A31875  27.290   5.540  10.608 -0.1140  0.0101  0.0495
 2717POSM   C2A31876  26.943   5.822  10.714  0.0145 -0.2749  0.1186
 2717POSM   C3A31877  26.647   5.967  10.979 -0.3589  0.0878 -0.3054
 2717POSM   C1B31878  27.611   5.283  11.148 -0.1653  0.2806  0.0680
 2717POSM   D2B31879  27.477   5.568  11.501 -0.0235  0.0291 -0.1075
 2717POSM   C3B31880  27.321   5.846  11.776  0.0153  0.0391 -0.1867
 2717POSM   C4B31881  27.128   6.175  12.011 -0.2379  0.1422 -0.1726
 2718DOPS   CNO31882  26.727   2.055  10.424 -0.3316 -0.2158  0.0276
 2718DOPS   PO431883  26.476   1.828  10.566  0.0961 -0.0969  0.1019
 2718DOPS   GL131884  26.628   1.780  10.807 -0.1114  0.2218 -0.1555
 2718DOPS   GL231885  26.942   1.691  10.857  0.0186 -0.0734 -0.0072
 2718DOPS   C1A31886  26.488   1.893  11.209  0.1556 -0.1157  0.0228
 2718DOPS   D2A31887  26.431   1.982  11.701 -0.0043 -0.1752  0.1300
 2718DOPS   C3A31888  26.529   1.764  12.109 -0.2290 -0.1202 -0.1644
 2718DOPS   C4A31889  26.337   1.524  12.457 -0.1193  0.0587  0.2976
 2718DOPS   C1B31890  26.658   1.429  11.127 -0.0108  0.0721 -0.4517
 2718DOPS   D2B31891  26.636   1.484  11.592  0.0792 -0.1039 -0.2320
 2718DOPS   C3B31892  26.964   1.386  11.951 -0.0452 -0.0796  0.2612
 2718DOPS   C4B31893  27.109   1.131  12.306  0.0566  0.0960  0.0175
 2719DOPE   NH331894  25.006   7.503   9.960  0.0050  0.2554  0.3964
 2719DOPE   PO431895  24.852   7.240   9.999  0.2206  0.1428 -0.3974
 2719DOPE   GL131896  24.712   7.438  10.348 -0.0802 -0.0127  0.0852
 2719DOPE   GL231897  24.918   7.546  10.483 -0.0849 -0.0459 -0.0870
 2719DOPE   C1A31898  24.444   7.496  10.713 -0.1619  0.1357 -0.2876
 2719DOPE   D2A31899  24.052   7.455  10.900 -0.1139  0.2435 -0.2221
 2719DOPE   C3A31900  23.840   7.848  10.950 -0.1530 -0.0291  0.0559
 2719DOPE   C4A31901  23.650   8.294  11.150 -0.0063  0.0417 -0.0247
 2719DOPE   C1B31902  25.116   7.854  10.793  0.2746 -0.0511  0.4457
 2719DOPE   D2B31903  24.976   8.159  11.111 -0.0626  0.0082 -0.0612
 2719DOPE   C3B31904  25.053   8.042  11.578  0.0945 -0.0036  0.2046
 2719DOPE   C4B31905  25.245   7.954  11.973  0.0383 -0.1426  0.2435
 2720POSM   NC331906  23.266   3.644  10.034 -0.4415  0.1730 -0.0798
 2720POSM   PO431907  23.602   3.520  10.150 -0.0090 -0.0309  0.0944
 2720POSM   AM131908  23.465   3.484  10.459 -0.1163 -0.2055  0.2395
 2720POSM   AM231909  23.391   3.304  10.647 -0.2348  0.1797 -0.0800
 2720POSM   T1A31910  23.307   3.690  10.910  0.1424  0.2344 -0.3249
 2720POSM   C2A31911  23.481   3.761  11.323  0.0675  0.3944 -0.0433
 2720POSM   C3A31912  23.697   3.621  11.746  0.1994 -0.0195  0.1316
 2720POSM   C1B31913  23.361   3.176  10.979 -0.2320 -0.3588 -0.2984
 2720POSM   D2B31914  23.299   3.083  11.372  0.0995 -0.2404  0.0148
 2720POSM   C3B31915  22.849   3.076  11.489  0.1708 -0.0844  0.1379
 2720POSM   C4B31916  22.720   3.031  11.942 -0.1284  0.2392 -0.2512
 2721DOPC   NC331917  29.901   4.037  11.150 -0.0628 -0.1037 -0.2861
 2721DOPC   PO431918  29.548   4.181  11.070  0.0377  0.0223 -0.2153
 2721DOPC   GL131919  29.412   4.276  11.373 -0.2618  0.0476 -0.0230
 2721DOPC   GL231920  29.294   4.003  11.544 -0.0859 -0.3073  0.5317
 2721DOPC   C1A31921  28.966   4.385  11.605 -0.0386 -0.1990  0.1910
 2721DOPC   D2A31922  28.786   4.124  11.964 -0.0853  0.3009 -0.1557
 2721DOPC   C3A31923  28.789   4.330  12.318 -0.0935 -0.2695 -0.0684
 2721DOPC   C4A31924  28.737   4.338  12.760 -0.0802  0.0494  0.0064
 2721DOPC   C1B31925  29.307   3.973  12.008 -0.3321  0.3706  0.2720
 2721DOPC   D2B31926  29.516   4.053  12.403  0.1652  0.1102 -0.1017
 2721DOPC   C3B31927  29.141   4.001  12.606  0.3423 -0.0826 -0.2014
 2721DOPC   C4B31928  28.706   3.869  12.475 -0.0113 -0.0235 -0.1956
 2722DOPS   CNO31929  24.774   2.724   9.736 -0.2747  0.0221 -0.0692
 2722DOPS   PO431930  24.756   2.965   9.992 -0.0186 -0.3382  0.1105
 2722DOPS   GL131931  24.860   3.106  10.295 -0.1366 -0.4696  0.1441
 2722DOPS   GL231932  24.731   2.893  10.523  0.0338 -0.0834 -0.0710
 2722DOPS   C1A31933  24.720   3.497  10.544  0.2213  0.0990 -0.0966
 2722DOPS   D2A31934  24.293   3.470  10.763 -0.0559 -0.0688 -0.2862
 2722DOPS   C3A31935  24.247   3.292  11.212 -0.1304 -0.0494  0.0542
 2722DOPS   C4A31936  24.215   3.407  11.647 -0.1371  0.1454 -0.2816
 2722DOPS   C1B31937  24.569   3.104  10.828 -0.1672  0.1058 -0.0327
 2722DOPS   D2B31938  24.857   3.352  11.114  0.4198 -0.1694  0.0525
 2722DOPS   C3B31939  24.897   3.547  11.518 -0.0385  0.1136 -0.1080
 2722DOPS   C4B31940  25.247   3.509  11.815 -0.2011 -0.2870 -0.0363
 2723DOPC   NC331941  27.906   4.419  10.165  0.3535 -0.1212 -0.2092
 2723DOPC   PO431942  28.135   4.437  10.466 -0.0168  0.1915 -0.1599
 2723DOPC   GL131943  27.930   4.384  10.851 -0.0419 -0.3885 -0.1320
 2723DOPC   GL231944  27.681   4.424  10.819  0.0966  0.2369  0.1340
 2723DOPC   C1A31945  28.053   4.681  11.203 -0.1198 -0.1407  0.2727
 2723DOPC   D2A31946  27.840   4.833  11.576  0.2591  0.0214 -0.0763
 2723DOPC   C3A31947  27.663   5.214  11.783 -0.0547  0.0865 -0.0889
 2723DOPC   C4A31948  27.283   5.302  11.999  0.3867  0.2114  0.1444
 2723DOPC   C1B31949  27.561   4.806  11.031 -0.1091  0.0511  0.1184
 2723DOPC   D2B31950  27.307   4.914  11.403  0.0580  0.4498  0.0640
 2723DOPC   C3B31951  27.368   4.693  11.845  0.1605 -0.0854 -0.2249
 2723DOPC   C4B31952  27.517   4.876  12.247  0.1938  0.0995 -0.0274
 2724DOPC   NC331953  29.079   3.555  10.720  0.2586 -0.0724  0.3787
 2724DOPC   PO431954  28.807   3.797  10.550 -0.0573  0.2378 -0.1868
 2724DOPC   GL131955  28.592   3.640  10.876  0.3229 -0.3442 -0.1620
 2724DOPC   GL231956  28.322   3.657  10.725 -0.0727 -0.1205 -0.0517
 2724DOPC   C1A31957  28.348   3.754  11.314 -0.1384  0.1561  0.0417
 2724DOPC   D2A31958  28.343   3.949  11.715 -0.4093 -0.1897  0.0353
 2724DOPC   C3A31959  28.296   3.972  12.165 -0.2224 -0.1951 -0.3124
 2724DOPC   C4A31960  28.227   4.185  12.640  0.2897 -0.1638  0.2530
 2724DOPC   C1B31961  27.922   3.771  10.922  0.1142 -0.0766 -0.4579
 2724DOPC   D2B31962  27.655   3.608  11.280 -0.1743 -0.0495 -0.3250
 2724DOPC   C3B31963  27.542   3.547  11.735  0.2468  0.2453  0.2190
 2724DOPC   C4B31964  27.325   3.493  12.076 -0.2685  0.1906  0.0814
 2725DOPE   NH331965  31.668   2.199  11.902  0.0276  0.2831  0.3064
 2725DOPE   PO431966  31.443   2.416  11.913  0.2515 -0.2721  0.1468
 2725DOPE   GL131967  31.249   2.331  12.127 -0.0864  0.1451 -0.0035
 2725DOPE   GL231968  31.318   2.044  12.255  0.0711 -0.2680  0.1018
 2725DOPE   C1A31969  31.093   2.493  12.541 -0.0673 -0.3198  0.2670
 2725DOPE   D2A31970  31.072   2.509  13.035 -0.0561  0.0477  0.1282
 2725DOPE   C3A31971  30.837   2.181  13.272  0.2681 -0.0324  0.1425
 2725DOPE   C4A31972  30.428   2.095  13.191 -0.0432 -0.1103  0.0795
 2725DOPE   C1B31973  30.865   2.025  12.455  0.0974 -0.1457 -0.1027
 2725DOPE   D2B31974  30.697   2.235  12.817  0.0892 -0.1800  0.1222
 2725DOPE   C3B31975  30.636   2.682  12.998  0.1256  0.0576  0.0753
 2725DOPE   C4B31976  30.931   2.987  12.937  0.0312 -0.0687 -0.0017
 2726DOPC   NC331977  23.406   3.984  10.462 -0.1251  0.0972  0.2421
 2726DOPC   PO431978  23.696   4.248  10.455  0.0845 -0.0365 -0.1044
 2726DOPC   GL131979  23.764   4.095  10.721  0.0191  0.5064 -0.1102
 2726DOPC   GL231980  23.608   4.096  10.974  0.1975 -0.3267 -0.0264
 2726DOPC   C1A31981  24.165   3.911  10.847 -0.0915  0.2473 -0.0228
 2726DOPC   D2A31982  24.483   3.839  11.185 -0.2572  0.0415 -0.3719
 2726DOPC   C3A31983  24.405   3.954  11.612 -0.3434  0.1889 -0.0060
 2726DOPC   C4A31984  24.339   3.785  12.097 -0.1697  0.0199  0.1204
 2726DOPC   C1B31985  23.593   4.416  11.339  0.1704  0.1713  0.1160
 2726DOPC   D2B31986  23.594   4.812  11.548  0.2286  0.5201 -0.3416
 2726DOPC   C3B31987  23.842   5.151  11.338  0.2221 -0.0146  0.1050
 2726DOPC   C4B31988  24.123   5.417  11.170  0.2288 -0.0208  0.0495
 2727DOPC   NC331989  30.761  12.468   9.520  0.3144  0.1101  0.1909
 2727DOPC   PO431990  31.075  12.643   9.604  0.2328 -0.0525  0.0898
 2727DOPC   GL131991  30.869  12.531   9.973 -0.1669 -0.0930 -0.3946
 2727DOPC   GL231992  30.983  12.255   9.989  0.2160  0.1914  0.1663
 2727DOPC   C1A31993  30.535  12.669  10.240 -0.0351  0.2340  0.1548
 2727DOPC   D2A31994  30.302  12.902  10.521 -0.1278 -0.0066  0.0307
 2727DOPC   C3A31995  30.335  13.102  10.904  0.3863  0.2901  0.1368
 2727DOPC   C4A31996  30.248  13.425  11.188 -0.0285 -0.1306  0.0044
 2727DOPC   C1B31997  31.222  12.399  10.307  0.0308  0.1082 -0.2470
 2727DOPC   D2B31998  31.167  12.516  10.760 -0.1054 -0.2762 -0.0423
 2727DOPC   C3B31999  31.428  12.400  11.100 -0.0519  0.2201 -0.1367
 2727DOPC   C4B32000  31.839  12.396  11.042  0.0768 -0.1626  0.1270
 2728POSM   NC332001  29.695  11.816   9.286 -0.1525  0.2238  0.2490
 2728POSM   PO432002  29.488  12.094   9.475 -0.0839 -0.3404 -0.0444
 2728POSM   AM132003  29.629  12.228   9.742 -0.0644 -0.1278  0.1745
 2728POSM   AM232004  29.875  12.226   9.913  0.2610  0.1948  0.0799
 2728POSM   T1A32005  29.530  12.461  10.212 -0.0827  0.0715  0.1102
 2728POSM   C2A32006  29.400  12.708  10.607  0.0292  0.1902  0.3543
 2728POSM   C3A32007  29.233  12.879  11.017  0.3450 -0.2063 -0.0589
 2728POSM   C1B32008  29.944  12.071  10.223  0.3747 -0.0324 -0.1854
 2728POSM   D2B32009  29.874  11.815  10.641  0.2793  0.1643  0.2551
 2728POSM   C3B32010  29.505  11.492  10.598  0.0346  0.0830 -0.2105
 2728POSM   C4B32011  29.164  11.232  10.722  0.2260  0.0896  0.2061
 2729DOPE   NH332012  28.668   4.377  10.479  0.1760  0.2067 -0.3386
 2729DOPE   PO432013  28.947   4.280  10.596  0.0358 -0.2296 -0.3293
 2729DOPE   GL132014  28.997   4.069  10.866  0.0481 -0.2388  0.1964
 2729DOPE   GL232015  29.025   4.291  11.099 -0.1191  0.0032 -0.3213
 2729DOPE   C1A32016  28.896   3.774  11.202 -0.3861 -0.0936  0.1148
 2729DOPE   D2A32017  28.820   3.718  11.652 -0.1567  0.0878 -0.1012
 2729DOPE   C3A32018  28.468   3.529  11.913 -0.1138  0.0710 -0.0578
 2729DOPE   C4A32019  28.218   3.230  12.148 -0.2246  0.0804  0.1290
 2729DOPE   C1B32020  28.899   4.688  11.273  0.0553  0.0969  0.0018
 2729DOPE   D2B32021  28.554   5.010  11.504 -0.0058  0.1010 -0.0322
 2729DOPE   C3B32022  28.359   4.986  11.903 -0.1531 -0.0807 -0.0423
 2729DOPE   C4B32023  27.968   4.959  12.192 -0.0067  0.1684 -0.1405
 2730DOPS   CNO32024  26.946   2.777   9.911  0.0661  0.1655  0.1358
 2730DOPS   PO432025  27.195   2.741  10.232  0.1964  0.0186  0.0974
 2730DOPS   GL132026  26.967   2.870  10.538  0.0047 -0.1018 -0.2943
 2730DOPS   GL232027  27.176   2.996  10.727 -0.1442  0.1231 -0.3763
 2730DOPS   C1A32028  26.559   2.811  10.799 -0.1265  0.7198 -0.1531
 2730DOPS   D2A32029  26.222   3.062  11.060  0.0968 -0.0348 -0.1533
 2730DOPS   C3A32030  25.988   2.982  11.405 -0.1011 -0.0650 -0.0916
 2730DOPS   C4A32031  25.714   3.199  11.755  0.1854 -0.1362  0.0470
 2730DOPS   C1B32032  27.008   2.796  11.059  0.2269  0.3417 -0.1287
 2730DOPS   D2B32033  26.696   2.844  11.386 -0.1443  0.0660 -0.1060
 2730DOPS   C3B32034  26.724   2.720  11.824  0.0678  0.0616  0.1239
 2730DOPS   C4B32035  26.918   2.939  12.193 -0.1904 -0.2114 -0.1808
 2731DOPC   NC332036  27.610  10.955   9.922 -0.0846 -0.0821  0.2649
 2731DOPC   PO432037  28.008  10.978   9.975  0.1234  0.1185 -0.1934
 2731DOPC   GL132038  27.806  11.029  10.308 -0.1062  0.1127  0.0202
 2731DOPC   GL232039  27.799  10.736  10.438 -0.2406  0.1715 -0.2339
 2731DOPC   C1A32040  27.972  11.112  10.701 -0.2542 -0.0320 -0.1330
 2731DOPC   D2A32041  28.221  11.169  11.094 -0.0858  0.1849 -0.2235
 2731DOPC   C3A32042  28.147  11.069  11.511  0.0975  0.0613 -0.1992
 2731DOPC   C4A32043  27.819  10.802  11.749 -0.2014  0.0845  0.0726
 2731DOPC   C1B32044  27.528  10.518  10.655 -0.0283  0.1286  0.0660
 2731DOPC   D2B32045  27.057  10.643  10.637 -0.2688 -0.1115 -0.0397
 2731DOPC   C3B32046  26.824  10.695  11.059 -0.3106 -0.5129  0.1070
 2731DOPC   C4B32047  26.738  10.834  11.442  0.1528  0.1893 -0.1927
 2732DOPE   NH332048  25.177   4.565  10.021  0.2895  0.1958 -0.1232
 2732DOPE   PO432049  24.969   4.701  10.232  0.2195 -0.0353  0.1699
 2732DOPE   GL132050  25.078   4.722  10.630 -0.0332  0.0017  0.1421
 2732DOPE   GL232051  24.982   4.425  10.641 -0.2461  0.1786  0.2679
 2732DOPE   C1A32052  24.857   4.766  11.080  0.0325 -0.1792 -0.0826
 2732DOPE   D2A32053  24.761   4.727  11.545 -0.1024 -0.0274 -0.3150
 2732DOPE   C3A32054  24.463   4.415  11.799 -0.1002 -0.2529 -0.3264
 2732DOPE   C4A32055  24.089   4.198  11.918  0.2842  0.2727  0.1322
 2732DOPE   C1B32056  25.096   4.297  10.987 -0.3136 -0.4577  0.0370
 2732DOPE   D2B32057  24.792   4.216  11.388  0.2641  0.0124  0.0828
 2732DOPE   C3B32058  24.930   3.998  11.772  0.2609  0.3861 -0.0882
 2732DOPE   C4B32059  25.267   3.939  12.070  0.0891  0.6121 -0.0147
 2733DOPE   NH332060  28.388   5.362  10.167  0.0845 -0.3292 -0.1474
 2733DOPE   PO432061  28.367   5.669  10.259 -0.0370 -0.1256 -0.1360
 2733DOPE   GL132062  28.313   5.533  10.632 -0.0862  0.0762 -0.1331
 2733DOPE   GL232063  28.181   5.806  10.707  0.0836  0.1782 -0.0993
 2733DOPE   C1A32064  28.220   5.260  11.006 -0.3018 -0.0653 -0.1496
 2733DOPE   D2A32065  28.063   5.180  11.429  0.1655  0.0206  0.0841
 2733DOPE   C3A32066  27.976   5.633  11.513 -0.0254 -0.5657 -0.2307
 2733DOPE   C4A32067  27.726   5.997  11.368 -0.0584  0.2251 -0.1066
 2733DOPE   C1B32068  27.890   5.672  10.999  0.0667  0.0843  0.0835
 2733DOPE   D2B32069  27.441   5.830  10.986 -0.0226 -0.2354 -0.1479
 2733DOPE   C3B32070  27.090   5.898  11.316 -0.0522 -0.1288  0.1453
 2733DOPE   C4B32071  26.640   6.023  11.445  0.2876 -0.2243  0.1765
 2734POSM   NC332072  32.153   9.176  11.472  0.3713  0.2455  0.1637
 2734POSM   PO432073  32.565   9.214  11.433 -0.0629  0.2011  0.0559
 2734POSM   AM132074  32.582   9.009  11.657 -0.1932 -0.2270  0.1662
 2734POSM   AM232075  32.399   9.043  11.905  0.3745 -0.0274  0.1195
 2734POSM   T1A32076  32.801   9.071  12.170  0.0299 -0.2181 -0.1866
 2734POSM   C2A32077  32.786   9.439  12.403 -0.2365 -0.0267 -0.0967
 2734POSM   C3A32078  32.687   9.840  12.560 -0.0553 -0.0164  0.2241
 2734POSM   C1B32079  32.364   9.320  12.057 -0.0662  0.0468 -0.0856
 2734POSM   D2B32080  32.263   9.499  12.423 -0.0603 -0.1034 -0.0708
 2734POSM   C3B32081  31.920   9.820  12.577  0.3248  0.1343  0.1268
 2734POSM   C4B32082  31.479  10.000  12.549  0.2155 -0.1900  0.5107
 2735POSM   NC332083  34.313   9.791  11.169 -0.0816 -0.3663 -0.0483
 2735POSM   PO432084  33.975   9.970  11.075 -0.1491  0.1276 -0.0172
 2735POSM   AM132085  33.720  10.147  11.214 -0.1098 -0.1670 -0.1958
 2735POSM   AM232086  33.511  10.061  11.376 -0.0304  0.0746  0.1428
 2735POSM   T1A32087  33.458  10.554  11.408  0.0536 -0.3318  0.1804
 2735POSM   C2A32088  33.097  10.682  11.646 -0.0497 -0.0068 -0.0663
 2735POSM   C3A32089  32.722  10.946  11.718  0.2910  0.3980 -0.3013
 2735POSM   C1B32090  33.433  10.171  11.718 -0.0729  0.1415  0.2709
 2735POSM   D2B32091  33.357  10.493  12.053 -0.0452  0.3004  0.4056
 2735POSM   C3B32092  33.346  10.548  12.536 -0.0268 -0.1543 -0.0043
 2735POSM   C4B32093  33.222  10.955  12.741 -0.0684 -0.0587 -0.0599
 2736DOPC   NC332094  24.264   5.999   9.768  0.1310 -0.1972  0.0015
 2736DOPC   PO432095  24.506   6.252   9.997 -0.0576 -0.1841  0.0254
 2736DOPC   GL132096  24.449   6.031  10.343 -0.0416  0.1815 -0.1038
 2736DOPC   GL232097  24.324   6.022  10.593 -0.2472  0.1385 -0.0075
 2736DOPC   C1A32098  24.786   5.978  10.703 -0.0695  0.1875 -0.0188
 2736DOPC   D2A32099  25.088   5.900  11.050 -0.1526  0.1002 -0.3873
 2736DOPC   C3A32100  25.197   5.557  11.403 -0.1818  0.2225  0.2964
 2736DOPC   C4A32101  25.319   5.469  11.841  0.2377 -0.3189 -0.0901
 2736DOPC   C1B32102  24.360   6.291  11.003  0.1387 -0.0864  0.1501
 2736DOPC   D2B32103  24.442   6.538  11.378  0.1422  0.3991 -0.2576
 2736DOPC   C3B32104  24.802   6.708  11.613 -0.4406 -0.1537 -0.1509
 2736DOPC   C4B32105  25.211   6.552  11.844  0.1143  0.0191  0.2345
 2737DOPC   NC332106  27.533  10.223  10.257 -0.1701 -0.3120 -0.2951
 2737DOPC   PO432107  27.193  10.087  10.126 -0.3420 -0.1633  0.0811
 2737DOPC   GL132108  27.131  10.172  10.527 -0.2589  0.1500  0.2377
 2737DOPC   GL232109  26.883  10.038  10.654  0.1223 -0.1219  0.0984
 2737DOPC   C1A32110  27.347  10.143  10.940 -0.1983 -0.0138  0.0163
 2737DOPC   D2A32111  27.788  10.286  11.081  0.0032 -0.1984 -0.1419
 2737DOPC   C3A32112  27.877  10.730  11.230  0.0024 -0.0591 -0.1987
 2737DOPC   C4A32113  27.676  11.094  11.280 -0.0642  0.1288  0.1898
 2737DOPC   C1B32114  26.605  10.281  10.926  0.1823 -0.0062 -0.2864
 2737DOPC   D2B32115  26.454  10.406  11.370 -0.0523 -0.0321  0.2077
 2737DOPC   C3B32116  26.615  10.101  11.687 -0.3184  0.1383 -0.1760
 2737DOPC   C4B32117  26.553   9.926  12.071  0.3496  0.0405  0.1109
 2738DOPC   NC332118  28.337   6.963  10.376 -0.1939 -0.1693  0.0627
 2738DOPC   PO432119  28.063   7.127  10.561 -0.1157 -0.0595 -0.0141
 2738DOPC   GL132120  27.988   7.151  10.913 -0.0426 -0.2520  0.0506
 2738DOPC   GL232121  28.186   7.174  11.142 -0.0024  0.2181 -0.0819
 2738DOPC   C1A32122  27.714   7.137  11.292 -0.0702  0.1325 -0.3473
 2738DOPC   D2A32123  27.665   7.147  11.763  0.0423 -0.2567  0.0706
 2738DOPC   C3A32124  27.245   7.238  11.989  0.0909 -0.3988 -0.1560
 2738DOPC   C4A32125  26.927   7.362  12.299 -0.0023  0.3954  0.2480
 2738DOPC   C1B32126  28.077   6.918  11.498  0.1168  0.3135 -0.3410
 2738DOPC   D2B32127  28.010   6.736  11.889 -0.1282  0.2028  0.4055
 2738DOPC   C3B32128  27.742   6.740  12.196  0.1794 -0.1489 -0.2268
 2738DOPC   C4B32129  27.416   6.675  12.421 -0.0825 -0.0091  0.0219
 2739POSM   NC332130  25.280   5.053  10.163 -0.1701 -0.0215 -0.2739
 2739POSM   PO432131  25.178   5.407  10.167 -0.1794  0.3900  0.1123
 2739POSM   AM132132  25.189   5.501  10.503  0.0627 -0.3289  0.0528
 2739POSM   AM232133  25.061   5.508  10.761  0.0226 -0.0145  0.1808
 2739POSM   T1A32134  25.542   5.616  10.825 -0.3917 -0.1054 -0.0987
 2739POSM   C2A32135  25.721   5.806  11.273 -0.1045  0.1874  0.1404
 2739POSM   C3A32136  25.810   5.459  11.640 -0.1580 -0.3559  0.0474
 2739POSM   C1B32137  25.206   5.305  10.983  0.2025 -0.0834  0.2186
 2739POSM   D2B32138  25.496   5.200  11.360  0.0452 -0.0840  0.0631
 2739POSM   C3B32139  25.226   4.910  11.581  0.0968 -0.0611 -0.0589
 2739POSM   C4B32140  25.116   4.863  12.028 -0.1290  0.0024  0.1123
 2740DOPC   NC332141  23.614  10.292   9.971 -0.1041  0.0321 -0.5521
 2740DOPC   PO432142  23.473  10.255   9.610  0.0558  0.0606 -0.2654
 2740DOPC   GL132143  23.216  10.133   9.846  0.0702 -0.0916 -0.0253
 2740DOPC   GL232144  23.088  10.308  10.015  0.3210  0.0904 -0.0917
 2740DOPC   C1A32145  22.980   9.854  10.132  0.1863 -0.0815 -0.0013
 2740DOPC   D2A32146  22.904   9.752  10.568  0.0580 -0.1395  0.0080
 2740DOPC   C3A32147  22.930   9.583  11.003  0.2699  0.0864 -0.2819
 2740DOPC   C4A32148  22.777   9.531  11.464 -0.2787  0.4221 -0.0832
 2740DOPC   C1B32149  23.112  10.261  10.472 -0.2513 -0.1871  0.1012
 2740DOPC   D2B32150  23.136  10.037  10.902 -0.0535  0.1200  0.1936
 2740DOPC   C3B32151  23.073   9.947  11.361  0.0537 -0.1547  0.2163
 2740DOPC   C4B32152  23.158   9.635  11.731  0.1144 -0.0923  0.0960
 2741POSM   NC332153  33.288   5.341  11.938 -0.1729  0.2827  0.0233
 2741POSM   PO432154  32.917   5.347  11.771 -0.1184  0.0511 -0.0508
 2741POSM   AM132155  32.820   5.252  12.052  0.0202 -0.2151 -0.0900
 2741POSM   AM232156  32.941   5.292  12.311  0.2323  0.0393  0.2288
 2741POSM   T1A32157  32.455   5.179  12.367 -0.1760  0.2148  0.1029
 2741POSM   C2A32158  32.252   5.030  12.715 -0.0647  0.0894 -0.3675
 2741POSM   C3A32159  32.033   5.193  13.080  0.0115 -0.0117 -0.0568
 2741POSM   C1B32160  33.065   5.349  12.635 -0.0173  0.2672  0.2431
 2741POSM   D2B32161  32.975   5.450  13.063 -0.1033 -0.2086  0.1115
 2741POSM   C3B32162  33.343   5.302  13.349 -0.1514 -0.2370 -0.1476
 2741POSM   C4B32163  33.708   5.081  13.640  0.1473 -0.2039  0.3729
 2742DOPS   CNO32164  31.556   3.918  11.762 -0.0221 -0.3403  0.0014
 2742DOPS   PO432165  31.377   3.825  12.085  0.0764 -0.0639  0.1700
 2742DOPS   GL132166  31.637   3.705  12.376  0.2577  0.1788  0.0876
 2742DOPS   GL232167  31.457   3.451  12.476  0.3009 -0.2492  0.2139
 2742DOPS   C1A32168  31.608   3.761  12.849 -0.1940  0.3332 -0.0580
 2742DOPS   D2A32169  31.347   3.730  13.244 -0.0631  0.4145 -0.2773
 2742DOPS   C3A32170  31.119   4.097  13.349  0.0345  0.1026 -0.0877
 2742DOPS   C4A32171  30.830   4.349  13.583  0.2083 -0.1709  0.0769
 2742DOPS   C1B32172  31.138   3.404  12.885  0.0373 -0.1554  0.2509
 2742DOPS   D2B32173  30.978   3.355  13.345 -0.1881 -0.0997  0.0511
 2742DOPS   C3B32174  30.815   2.935  13.545 -0.1580  0.0921 -0.0953
 2742DOPS   C4B32175  30.909   2.521  13.587 -0.0421  0.0656  0.1500
 2743DOPC   NC332176  30.213   4.498  11.594  0.4896 -0.0457 -0.0173
 2743DOPC   PO432177  30.096   4.548  11.246  0.0381 -0.0304  0.0989
 2743DOPC   GL132178  29.771   4.650  11.391  0.0510 -0.1964  0.7829
 2743DOPC   GL232179  29.716   4.826  11.135 -0.0170 -0.1858 -0.0707
 2743DOPC   C1A32180  29.340   4.793  11.518 -0.3230  0.2393 -0.1590
 2743DOPC   D2A32181  28.965   4.854  11.769 -0.0592  0.0503 -0.2050
 2743DOPC   C3A32182  28.637   4.582  11.912 -0.1265  0.2501  0.1053
 2743DOPC   C4A32183  28.261   4.476  12.135  0.0270 -0.0383  0.1497
 2743DOPC   C1B32184  29.608   5.211  11.138  0.4217 -0.0781 -0.5481
 2743DOPC   D2B32185  29.334   5.463  11.477  0.2265  0.0512 -0.2315
 2743DOPC   C3B32186  28.940   5.432  11.686  0.0394 -0.1195 -0.0535
 2743DOPC   C4B32187  28.673   5.333  12.047  0.1263 -0.1828 -0.0092
 2744DOPS   CNO32188  23.385   8.855   9.741  0.0423 -0.0856 -0.1530
 2744DOPS   PO432189  23.773   8.854   9.702  0.0107 -0.3191  0.0965
 2744DOPS   GL132190  23.899   8.831  10.047 -0.0511 -0.1845 -0.1866
 2744DOPS   GL232191  24.067   8.952  10.172 -0.3111 -0.1116  0.1289
 2744DOPS   C1A32192  23.800   8.608  10.472  0.3849  0.0381  0.0152
 2744DOPS   D2A32193  23.720   8.778  10.906  0.0950 -0.1024 -0.0431
 2744DOPS   C3A32194  23.353   8.718  11.142  0.2929  0.1453 -0.0865
 2744DOPS   C4A32195  22.938   8.651  11.349 -0.2576 -0.1323  0.2297
 2744DOPS   C1B32196  24.389   9.257  10.256  0.1732  0.1454 -0.3448
 2744DOPS   D2B32197  24.655   9.419  10.625  0.0280 -0.2692  0.0672
 2744DOPS   C3B32198  24.982   9.339  10.927  0.0664  0.2122 -0.0726
 2744DOPS   C4B32199  25.096   9.089  11.350  0.0535 -0.1252  0.1635
 2745DOPE   NH332200  28.086   9.777   9.849  0.1145 -0.1787 -0.1569
 2745DOPE   PO432201  28.133  10.053  10.001  0.1906  0.1532 -0.0518
 2745DOPE   GL132202  28.249  10.066  10.257  0.2266  0.2618 -0.1469
 2745DOPE   GL232203  28.424  10.028  10.425 -0.0432  0.0009  0.2429
 2745DOPE   C1A32204  27.990  10.257  10.595 -0.0300 -0.1391 -0.1434
 2745DOPE   D2A32205  28.110  10.670  10.830  0.0632  0.0107 -0.2813
 2745DOPE   C3A32206  28.360  10.700  11.195 -0.3360 -0.0915  0.1542
 2745DOPE   C4A32207  28.596  10.878  11.516  0.1129 -0.1578  0.0700
 2745DOPE   C1B32208  28.442  10.459  10.520 -0.2459  0.4334 -0.2112
 2745DOPE   D2B32209  28.547  10.890  10.739  0.1200 -0.3505  0.1231
 2745DOPE   C3B32210  28.799  11.070  11.073  0.1467 -0.0165  0.0909
 2745DOPE   C4B32211  29.138  11.410  11.200  0.1391  0.1437 -0.0881
 2746DOPE   NH332212  34.244   4.206  12.384  0.2551  0.0025 -0.0041
 2746DOPE   PO432213  34.047   4.453  12.378 -0.0875 -0.0741 -0.1095
 2746DOPE   GL132214  33.857   4.558  12.729  0.0500  0.2505  0.2963
 2746DOPE   GL232215  33.613   4.414  12.839 -0.1906 -0.0070  0.3074
 2746DOPE   C1A32216  33.934   4.543  13.211  0.0054 -0.1605  0.1042
 2746DOPE   D2A32217  33.716   4.614  13.631 -0.0715  0.3077  0.0553
 2746DOPE   C3A32218  33.773   4.508  14.096  0.0645  0.0564  0.0463
 2746DOPE   C4A32219  33.928   4.216  14.436 -0.3449  0.0424 -0.1886
 2746DOPE   C1B32220  33.519   4.081  13.143  0.2984 -0.1415  0.1130
 2746DOPE   D2B32221  33.601   4.088  13.621  0.1223 -0.1129  0.1835
 2746DOPE   C3B32222  33.259   4.298  13.874  0.3369 -0.0060  0.2181
 2746DOPE   C4B32223  33.032   4.462  14.265 -0.2066 -0.0362 -0.0992
 2747DOPE   NH332224  31.779   5.525  11.571  0.0101  0.1031  0.0262
 2747DOPE   PO432225  31.822   5.215  11.737 -0.1446 -0.0358  0.0275
 2747DOPE   GL132226  31.393   5.316  11.801 -0.2461 -0.1637  0.0777
 2747DOPE   GL232227  31.348   4.981  11.869  0.0269  0.5694 -0.0691
 2747DOPE   C1A32228  31.173   5.257  12.212  0.1219  0.0837 -0.0407
 2747DOPE   D2A32229  30.871   5.376  12.594 -0.0846 -0.1322  0.1893
 2747DOPE   C3A32230  30.737   5.003  12.912 -0.1433  0.0450 -0.1800
 2747DOPE   C4A32231  30.946   4.599  13.035  0.0995  0.0317 -0.0386
 2747DOPE   C1B32232  31.155   4.586  11.980 -0.0287 -0.1572  0.1387
 2747DOPE   D2B32233  30.907   4.209  12.185 -0.0281 -0.3035 -0.1652
 2747DOPE   C3B32234  30.873   4.288  12.653 -0.1516 -0.3471  0.0807
 2747DOPE   C4B32235  30.653   4.181  13.080 -0.0237 -0.1792 -0.0591
 2748DOPC   NC332236  28.251   2.514  10.532 -0.1835  0.0042  0.3097
 2748DOPC   PO432237  28.034   2.767  10.399  0.2411  0.1319 -0.0108
 2748DOPC   GL132238  27.923   2.730  10.853  0.1716 -0.0659 -0.0313
 2748DOPC   GL232239  28.067   2.515  10.989  0.0629  0.1502  0.0347
 2748DOPC   C1A32240  27.630   2.900  11.100 -0.1610  0.2279 -0.1383
 2748DOPC   D2A32241  27.398   3.114  11.412 -0.1609 -0.0065 -0.1452
 2748DOPC   C3A32242  26.988   3.270  11.668  0.0334  0.3015 -0.0928
 2748DOPC   C4A32243  26.724   3.436  11.977  0.1184  0.0020  0.0434
 2748DOPC   C1B32244  28.427   2.743  11.157 -0.1099  0.1259 -0.0346
 2748DOPC   D2B32245  28.845   2.755  11.387  0.0853 -0.3582  0.2092
 2748DOPC   C3B32246  29.177   2.428  11.418 -0.2122  0.4914 -0.1713
 2748DOPC   C4B32247  29.339   2.014  11.567  0.0327  0.1858 -0.3701
 2749DOPS   CNO32248  32.254   7.518  11.153  0.1138  0.0026 -0.0954
 2749DOPS   PO432249  32.153   7.327  11.461  0.2416 -0.1246 -0.0121
 2749DOPS   GL132250  32.053   7.265  11.784 -0.0274 -0.1166  0.0310
 2749DOPS   GL232251  32.196   7.469  11.907  0.0977  0.1073  0.1000
 2749DOPS   C1A32252  31.850   7.118  12.150  0.1376 -0.0699 -0.0413
 2749DOPS   D2A32253  31.536   7.198  12.475  0.4994  0.0503  0.1002
 2749DOPS   C3A32254  31.714   6.982  12.823 -0.1393  0.0351 -0.0920
 2749DOPS   C4A32255  31.875   6.674  13.112  0.0388  0.2403 -0.0980
 2749DOPS   C1B32256  31.744   7.597  12.046 -0.0655 -0.2637 -0.1699
 2749DOPS   D2B32257  31.413   7.672  12.393 -0.1613  0.2228 -0.0999
 2749DOPS   C3B32258  31.320   8.094  12.581 -0.0805 -0.0406  0.0029
 2749DOPS   C4B32259  31.191   8.215  13.020 -0.4559  0.1679  0.2682
 2750DOPS   CNO32260  31.373  11.431  10.364  0.2211 -0.1162 -0.1198
 2750DOPS   PO432261  31.352  11.476   9.972  0.0197  0.0623  0.0135
 2750DOPS   GL132262  31.237  11.875  10.173  0.0337  0.1053  0.2607
 2750DOPS   GL232263  31.528  11.963  10.222 -0.0621 -0.0142 -0.0456
 2750DOPS   C1A32264  31.032  11.942  10.582  0.2188 -0.0234  0.0859
 2750DOPS   D2A32265  30.732  11.896  10.955 -0.1826  0.1105  0.1534
 2750DOPS   C3A32266  30.517  12.240  11.152  0.0362 -0.0384 -0.1320
 2750DOPS   C4A32267  30.425  12.249  11.558  0.1036 -0.4016 -0.0613
 2750DOPS   C1B32268  31.891  11.686  10.322  0.0033 -0.2062  0.0755
 2750DOPS   D2B32269  32.010  11.474  10.665 -0.1993 -0.0621  0.1018
 2750DOPS   C3B32270  32.367  11.586  10.955  0.2982 -0.0223  0.0319
 2750DOPS   C4B32271  32.770  11.565  11.150  0.0905 -0.1851 -0.2186
 2751DOPC   NC332272  29.704  10.278  10.267  0.0519 -0.0811  0.0841
 2751DOPC   PO432273  29.419  10.013  10.368  0.3556  0.3459  0.0229
 2751DOPC   GL132274  29.560  10.235  10.709  0.0295  0.1076 -0.1315
 2751DOPC   GL232275  29.333  10.258  10.865  0.1957 -0.0588 -0.2232
 2751DOPC   C1A32276  29.714  10.292  11.149  0.1429  0.1923 -0.0354
 2751DOPC   D2A32277  29.573  10.160  11.551  0.3890 -0.2626  0.2751
 2751DOPC   C3A32278  29.280  10.447  11.717  0.1999  0.3108  0.0857
 2751DOPC   C4A32279  28.911  10.675  11.867  0.0822  0.2844 -0.5529
 2751DOPC   C1B32280  29.162  10.231  11.291 -0.2150 -0.0035  0.0154
 2751DOPC   D2B32281  29.018  10.064  11.711  0.0231  0.0383  0.3224
 2751DOPC   C3B32282  28.869   9.622  11.827  0.0808 -0.1439  0.1458
 2751DOPC   C4B32283  28.488   9.360  11.795  0.0154  0.2263  0.1208
 2752DOPS   CNO32284  26.806   5.042   9.977  0.5427 -0.1620  0.0391
 2752DOPS   PO432285  26.900   4.788  10.268  0.1615 -0.0183 -0.3026
 2752DOPS   GL132286  27.161   4.792  10.508 -0.0608  0.4070 -0.2035
 2752DOPS   GL232287  27.233   4.636  10.654 -0.0511  0.0070  0.1134
 2752DOPS   C1A32288  27.133   5.064  10.893  0.2049  0.0389  0.1213
 2752DOPS   D2A32289  27.119   5.456  11.140 -0.0340 -0.0697 -0.1641
 2752DOPS   C3A32290  26.931   5.472  11.584  0.0799 -0.2108 -0.0385
 2752DOPS   C4A32291  26.665   5.806  11.860  0.0633  0.2025  0.0305
 2752DOPS   C1B32292  27.159   4.479  11.022 -0.3205 -0.1495  0.0341
 2752DOPS   D2B32293  27.139   4.271  11.419  0.0559  0.1651  0.4133
 2752DOPS   C3B32294  26.893   4.484  11.748 -0.0581  0.0031  0.0987
 2752DOPS   C4B32295  26.926   4.901  11.822 -0.0809 -0.0637 -0.1196
 2753DOPS   CNO32296  26.548   7.948  10.090  0.1258  0.1033  0.2184
 2753DOPS   PO432297  26.449   8.011  10.469 -0.2767 -0.3073  0.1526
 2753DOPS   GL132298  26.282   8.045  10.830 -0.0719  0.0101  0.1133
 2753DOPS   GL232299  26.029   8.043  10.842 -0.0020  0.0246  0.0169
 2753DOPS   C1A32300  26.334   8.242  11.274 -0.1738  0.2950  0.2483
 2753DOPS   D2A32301  26.429   8.534  11.614  0.2711  0.0239 -0.1904
 2753DOPS   C3A32302  26.643   8.267  11.980 -0.0352  0.3161 -0.1770
 2753DOPS   C4A32303  26.583   8.237  12.454  0.0237 -0.3230  0.2987
 2753DOPS   C1B32304  25.897   7.900  11.236  0.0026  0.1166  0.2359
 2753DOPS   D2B32305  26.101   7.856  11.618 -0.1437  0.0831  0.1428
 2753DOPS   C3B32306  25.909   7.616  11.955 -0.1084  0.3570 -0.0606
 2753DOPS   C4B32307  25.881   7.731  12.428 -0.1122  0.1644  0.1012
 2754DOPC   NC332308  27.820   8.837  10.074  0.3417  0.3829 -0.2545
 2754DOPC   PO432309  27.866   8.879  10.464  0.1514  0.0021  0.0066
 2754DOPC   GL132310  27.582   8.887  10.780  0.0824  0.0889 -0.2373
 2754DOPC   GL232311  27.333   8.754  10.801 -0.1819 -0.3854 -0.0862
 2754DOPC   C1A32312  27.602   8.841  11.277  0.2883 -0.3989  0.0668
 2754DOPC   D2A32313  27.634   8.916  11.777  0.1044  0.0927 -0.1770
 2754DOPC   C3A32314  27.290   8.877  12.101  0.3548  0.2179 -0.1838
 2754DOPC   C4A32315  27.241   9.118  12.501 -0.1309 -0.2015 -0.2043
 2754DOPC   C1B32316  27.103   8.830  11.151 -0.1537  0.1933 -0.2183
 2754DOPC   D2B32317  26.634   8.888  11.268 -0.0346  0.0899 -0.0152
 2754DOPC   C3B32318  26.549   9.036  11.676  0.1278  0.0650 -0.1691
 2754DOPC   C4B32319  26.113   8.982  11.817 -0.1382 -0.0457 -0.0611
 2755DOPE   NH332320  33.818   0.152  11.266 -0.0457 -0.2002  0.0107
 2755DOPE   PO432321  33.661   0.137  11.521 -0.0151  0.0723 -0.0277
 2755DOPE   GL132322  33.562   0.081  11.907  0.3378  0.1478  0.2669
 2755DOPE   GL232323  33.726  -0.115  12.084  0.2387  0.0963 -0.3034
 2755DOPE   C1A32324  33.443   0.174  12.341  0.0402  0.5368  0.4423
 2755DOPE   D2A32325  33.375   0.098  12.788 -0.1152 -0.1245  0.1599
 2755DOPE   C3A32326  33.168   0.159  13.191 -0.2503 -0.1691  0.0403
 2755DOPE   C4A32327  32.912   0.001  13.570  0.0838 -0.1183 -0.0038
 2755DOPE   C1B32328  33.852  -0.074  12.560  0.4444  0.1116  0.0114
 2755DOPE   D2B32329  33.718  -0.279  12.964 -0.0025 -0.5287  0.1539
 2755DOPE   C3B32330  33.619  -0.707  13.004 -0.1350 -0.1657  0.1611
 2755DOPE   C4B32331  33.735  -1.142  13.105 -0.1261  0.2934 -0.0614
 2756DOPE   NH332332  23.651   9.904   9.208 -0.1422  0.0699 -0.0287
 2756DOPE   PO432333  23.929  10.074   9.262  0.2622 -0.2882 -0.0082
 2756DOPE   GL132334  23.761   9.889   9.688 -0.4543  0.0516 -0.2730
 2756DOPE   GL232335  23.489   9.718   9.668 -0.2452  0.0832 -0.1618
 2756DOPE   C1A32336  23.979   9.961  10.098  0.4038  0.0954 -0.0281
 2756DOPE   D2A32337  23.852   9.975  10.523 -0.1498 -0.1620  0.2304
 2756DOPE   C3A32338  23.977  10.091  10.985 -0.4038 -0.0337 -0.0668
 2756DOPE   C4A32339  23.969   9.792  11.309  0.3985 -0.3095  0.1155
 2756DOPE   C1B32340  23.518   9.773  10.147 -0.3194  0.0951  0.2374
 2756DOPE   D2B32341  23.380   9.713  10.553 -0.0374 -0.0625 -0.0528
 2756DOPE   C3B32342  23.614   9.675  10.929  0.0131 -0.2241 -0.1087
 2756DOPE   C4B32343  23.766   9.302  11.180 -0.0973 -0.0690 -0.3139
 2757POSM   NC332344  30.991   3.013  11.339  0.1232  0.1356 -0.0528
 2757POSM   PO432345  31.181   3.377  11.373  0.0373  0.2593  0.0100
 2757POSM   AM132346  31.019   3.365  11.682 -0.0742 -0.0454  0.0061
 2757POSM   AM232347  30.850   3.172  11.790  0.1280 -0.0646 -0.5141
 2757POSM   T1A32348  30.945   3.406  12.209 -0.0212  0.0622  0.3481
 2757POSM   C2A32349  31.100   3.787  12.481  0.1217 -0.2122  0.0555
 2757POSM   C3A32350  31.100   3.961  12.886 -0.0030  0.1080 -0.0905
 2757POSM   C1B32351  30.624   3.014  11.998 -0.1383  0.3667  0.0354
 2757POSM   D2B32352  30.245   2.969  12.238  0.3515 -0.3311  0.1464
 2757POSM   C3B32353  29.896   3.154  12.581  0.3804 -0.1947  0.1121
 2757POSM   C4B32354  29.946   3.032  13.043  0.0212  0.0399  0.2359
 2758DOPS   CNO32355  33.748  10.585  10.275 -0.3662  0.0910  0.0532
 2758DOPS   PO432356  33.497  10.855  10.375 -0.0320  0.0018  0.1321
 2758DOPS   GL132357  33.352  10.985  10.775  0.3035 -0.2414  0.0785
 2758DOPS   GL232358  33.456  11.008  11.038 -0.0920 -0.4232  0.0516
 2758DOPS   C1A32359  33.300  11.440  10.959  0.1755 -0.0918 -0.0887
 2758DOPS   D2A32360  33.157  11.895  10.891 -0.0131  0.3191 -0.1858
 2758DOPS   C3A32361  32.723  12.050  11.013  0.0155 -0.0647 -0.1716
 2758DOPS   C4A32362  32.300  12.240  11.032 -0.1339  0.1991 -0.2041
 2758DOPS   C1B32363  33.557  11.084  11.475  0.0726 -0.3107 -0.1103
 2758DOPS   D2B32364  33.237  11.072  11.856  0.1247  0.0854  0.1630
 2758DOPS   C3B32365  33.312  11.209  12.339  0.1844 -0.1612 -0.0174
 2758DOPS   C4B32366  33.097  11.513  12.556  0.1310 -0.1808  0.0487
 2759DOPC   NC332367  30.398   3.202  11.054  0.1152 -0.0918 -0.2412
 2759DOPC   PO432368  30.565   3.238  11.399  0.1895 -0.2582 -0.1410
 2759DOPC   GL132369  30.305   3.299  11.697  0.1206 -0.3949 -0.2664
 2759DOPC   GL232370  30.257   3.623  11.712  0.2758 -0.1002 -0.4532
 2759DOPC   C1A32371  30.044   3.423  12.094 -0.0346 -0.0427 -0.2179
 2759DOPC   D2A32372  30.122   3.652  12.475  0.2604  0.0844 -0.2046
 2759DOPC   C3A32373  30.153   3.481  12.884  0.0853 -0.2990 -0.1223
 2759DOPC   C4A32374  29.887   3.499  13.267  0.0167 -0.2328 -0.0311
 2759DOPC   C1B32375  30.519   3.569  12.088 -0.1453 -0.3061 -0.2114
 2759DOPC   D2B32376  30.604   3.516  12.546  0.0682  0.3405 -0.2916
 2759DOPC   C3B32377  30.666   3.680  12.976 -0.0106  0.2573 -0.1982
 2759DOPC   C4B32378  30.616   3.722  13.403 -0.0454 -0.2584 -0.1116
 2760DOPE   NH332379  24.247   4.733  10.082  0.3283 -0.3236 -0.1653
 2760DOPE   PO432380  24.061   4.666  10.373  0.1424  0.0699  0.1653
 2760DOPE   GL132381  23.813   4.887  10.612  0.3664  0.2401  0.1408
 2760DOPE   GL232382  24.045   5.044  10.801  0.1693 -0.1927  0.0379
 2760DOPE   C1A32383  23.594   4.824  10.999 -0.0270  0.0559  0.0272
 2760DOPE   D2A32384  23.126   4.739  11.125 -0.1042  0.2613 -0.1483
 2760DOPE   C3A32385  23.074   4.570  11.498  0.2193  0.1722 -0.1818
 2760DOPE   C4A32386  22.926   4.362  11.847 -0.0535 -0.3893 -0.2291
 2760DOPE   C1B32387  24.262   4.867  11.155 -0.2727  0.1974  0.0304
 2760DOPE   D2B32388  24.380   4.452  11.303 -0.0615  0.0282 -0.0147
 2760DOPE   C3B32389  24.483   4.316  10.870  0.2196 -0.2160  0.3378
 2760DOPE   C4B32390  24.679   3.957  10.732  0.0922  0.4818  0.0328
 2761DOPS   CNO32391  30.560   1.353  11.474  0.1017  0.4765  0.2390
 2761DOPS   PO432392  30.162   1.350  11.504 -0.2060  0.0273  0.1192
 2761DOPS   GL132393  30.078   1.483  11.872  0.3153  0.2513  0.3616
 2761DOPS   GL232394  30.369   1.650  11.933 -0.1489 -0.1462 -0.0580
 2761DOPS   C1A32395  29.710   1.520  12.200 -0.0631 -0.3102 -0.0759
 2761DOPS   D2A32396  29.602   1.134  12.533 -0.0519  0.3212 -0.0259
 2761DOPS   C3A32397  29.392   1.265  12.926  0.1383 -0.1033 -0.1143
 2761DOPS   C4A32398  29.039   1.212  13.246 -0.2106  0.2898  0.0759
 2761DOPS   C1B32399  30.554   1.573  12.364 -0.1512  0.1158 -0.0486
 2761DOPS   D2B32400  30.431   1.345  12.691  0.0453 -0.2101 -0.2811
 2761DOPS   C3B32401  29.996   1.232  12.907 -0.2117  0.1015 -0.2657
 2761DOPS   C4B32402  29.703   0.853  12.997  0.4330  0.2571  0.2928
 2762DOPS   CNO32403  32.975  10.738  10.541 -0.0367 -0.2486 -0.1161
 2762DOPS   PO432404  33.123  10.581  10.848 -0.0005 -0.4329 -0.0564
 2762DOPS   GL132405  32.994  10.674  11.225  0.1926  0.0332 -0.0479
 2762DOPS   GL232406  32.693  10.629  11.144 -0.1436  0.1748 -0.4674
 2762DOPS   C1A32407  33.001  11.121  11.345 -0.2622 -0.0294  0.1659
 2762DOPS   D2A32408  32.931  11.506  11.639  0.0676 -0.0216  0.0325
 2762DOPS   C3A32409  33.176  11.724  11.974  0.1972 -0.2209 -0.0105
 2762DOPS   C4A32410  33.480  11.698  12.342 -0.1730 -0.0738  0.0896
 2762DOPS   C1B32411  32.664  10.365  11.554 -0.0075  0.0358  0.0026
 2762DOPS   D2B32412  32.923  10.085  11.767 -0.0064  0.0641 -0.2552
 2762DOPS   C3B32413  33.033  10.092  12.258  0.3692  0.0865 -0.1410
 2762DOPS   C4B32414  32.899  10.338  12.553  0.1558 -0.0844  0.1206
 2763DOPE   NH332415  23.247   9.345   9.175  0.0004 -0.7420 -0.2486
 2763DOPE   PO432416  23.137   9.637   9.095 -0.0978  0.1029 -0.1237
 2763DOPE   GL132417  23.038   9.579   9.505 -0.1400 -0.1393  0.2076
 2763DOPE   GL232418  23.031   9.252   9.603  0.0246  0.1914  0.3717
 2763DOPE   C1A32419  22.665   9.658   9.760 -0.0268  0.3066 -0.2587
 2763DOPE   D2A32420  22.496   9.571  10.169  0.1123 -0.0503  0.1923
 2763DOPE   C3A32421  22.398   9.804  10.542 -0.1559 -0.1852 -0.2236
 2763DOPE   C4A32422  22.171   9.905  10.934  0.2360  0.0459 -0.1724
 2763DOPE   C1B32423  23.003   9.405  10.009 -0.0165  0.2939  0.1226
 2763DOPE   D2B32424  23.038   9.245  10.397  0.2182  0.0878  0.0324
 2763DOPE   C3B32425  22.609   9.301  10.604 -0.0435  0.1406 -0.4758
 2763DOPE   C4B32426  22.463   9.434  11.026  0.0640 -0.0965 -0.5428
 2764DOPE   NH332427  28.792   5.784  10.572  0.0083  0.2999  0.0854
 2764DOPE   PO432428  28.858   5.541  10.795 -0.2437 -0.0578  0.0392
 2764DOPE   GL132429  28.496   5.767  10.985  0.3290  0.1795  0.0110
 2764DOPE   GL232430  28.599   5.721  11.198 -0.2974  0.0329 -0.2266
 2764DOPE   C1A32431  28.229   6.042  11.204 -0.1423  0.0455  0.0775
 2764DOPE   D2A32432  28.130   6.222  11.624  0.0671  0.1223 -0.2222
 2764DOPE   C3A32433  28.052   5.907  11.897 -0.1388 -0.2462 -0.0988
 2764DOPE   C4A32434  27.676   5.676  12.074  0.0561  0.0396  0.0635
 2764DOPE   C1B32435  28.499   5.478  11.532 -0.2179 -0.0908 -0.3276
 2764DOPE   D2B32436  28.183   5.415  11.862  0.1145 -0.1580 -0.0436
 2764DOPE   C3B32437  28.094   5.571  12.284  0.1730  0.0346 -0.1163
 2764DOPE   C4B32438  27.879   5.868  12.492  0.0078 -0.2911 -0.2121
 2765POSM   NC332439  32.981   1.957  11.586 -0.1551 -0.1049  0.0532
 2765POSM   PO432440  32.597   2.060  11.621  0.1333 -0.0966 -0.0043
 2765POSM   AM132441  32.648   1.999  11.941  0.2534  0.1113 -0.0151
 2765POSM   AM232442  32.912   1.967  12.099 -0.1354  0.4480 -0.0350
 2765POSM   T1A32443  32.596   1.950  12.441  0.1211  0.0170  0.0261
 2765POSM   C2A32444  32.430   2.009  12.836 -0.1821  0.2201 -0.2024
 2765POSM   C3A32445  32.470   2.062  13.305 -0.1590 -0.0196 -0.1125
 2765POSM   C1B32446  33.092   1.804  12.379  0.0422 -0.0779  0.0177
 2765POSM   D2B32447  33.174   1.583  12.758 -0.1241  0.1216  0.0887
 2765POSM   C3B32448  33.618   1.444  12.870  0.2466  0.1843 -0.0238
 2765POSM   C4B32449  34.011   1.365  13.057 -0.0622  0.0870 -0.2000
 2766DOPC   NC332450  30.935   6.489  11.344 -0.0842 -0.1203 -0.0996
 2766DOPC   PO432451  30.574   6.550  11.468 -0.1454  0.0704  0.0775
 2766DOPC   GL132452  30.359   6.428  11.818 -0.1903 -0.1556  0.2137
 2766DOPC   GL232453  30.529   6.505  12.067 -0.3157 -0.2472 -0.2602
 2766DOPC   C1A32454  29.939   6.521  12.030  0.0825 -0.0785  0.2402
 2766DOPC   D2A32455  29.814   6.874  12.326  0.1115  0.2458  0.0624
 2766DOPC   C3A32456  29.925   6.966  12.764 -0.1003 -0.0201  0.1491
 2766DOPC   C4A32457  30.173   7.242  13.110 -0.0510 -0.0650 -0.1081
 2766DOPC   C1B32458  30.345   6.212  12.386  0.1229 -0.3094  0.0605
 2766DOPC   D2B32459  30.533   6.063  12.766 -0.0090  0.0831  0.0356
 2766DOPC   C3B32460  30.457   5.612  12.833 -0.1314 -0.1738  0.0281
 2766DOPC   C4B32461  30.391   5.251  13.126  0.0444 -0.0928 -0.0252
 2767DOPC   NC332462  27.412   6.097  10.521  0.1992 -0.0757 -0.0015
 2767DOPC   PO432463  27.527   6.376  10.272 -0.1709 -0.2655  0.3807
 2767DOPC   GL132464  27.654   6.499  10.649 -0.2758 -0.0456 -0.2750
 2767DOPC   GL232465  27.658   6.828  10.619 -0.2094 -0.2823  0.1208
 2767DOPC   C1A32466  27.807   6.704  11.056 -0.0449  0.3398  0.0764
 2767DOPC   D2A32467  27.736   6.483  11.452 -0.0400 -0.0093 -0.2754
 2767DOPC   C3A32468  27.298   6.257  11.527  0.2129  0.0218 -0.0443
 2767DOPC   C4A32469  26.918   6.474  11.691 -0.1994  0.0709 -0.2189
 2767DOPC   C1B32470  27.376   6.788  10.949 -0.2535 -0.2439  0.1651
 2767DOPC   D2B32471  27.314   6.866  11.394  0.3096 -0.0168  0.1471
 2767DOPC   C3B32472  27.372   6.695  11.773  0.0887 -0.0771  0.2288
 2767DOPC   C4B32473  27.592   6.289  11.951 -0.2693  0.0115 -0.1123
 2768DOPE   NH332474  30.887  13.449   9.475  0.0636 -0.0878 -0.1231
 2768DOPE   PO432475  31.008  13.158   9.559  0.0560 -0.0665  0.2350
 2768DOPE   GL132476  31.218  12.977   9.943  0.2360  0.0011 -0.4169
 2768DOPE   GL232477  30.985  12.965  10.136  0.3589 -0.1976 -0.1009
 2768DOPE   C1A32478  31.376  13.049  10.399 -0.0857 -0.1330  0.2346
 2768DOPE   D2A32479  31.178  13.023  10.836 -0.3033  0.2646 -0.1564
 2768DOPE   C3A32480  31.156  12.751  11.211  0.3064 -0.0959  0.2530
 2768DOPE   C4A32481  30.921  12.522  11.541 -0.0955 -0.1301  0.3506
 2768DOPE   C1B32482  30.782  12.918  10.569 -0.0649 -0.1676  0.2211
 2768DOPE   D2B32483  30.706  12.803  11.008 -0.1404 -0.0940 -0.3875
 2768DOPE   C3B32484  30.457  12.736  11.398  0.4527  0.0733  0.3145
 2768DOPE   C4B32485  30.064  12.619  11.582  0.1134  0.2983 -0.2097
 2769POSM   NC332486  34.207  14.548  10.127 -0.4279  0.2115  0.2961
 2769POSM   PO432487  33.842  14.672  10.062 -0.1018  0.2844  0.3146
 2769POSM   AM132488  33.699  14.606  10.312  0.3222  0.1611 -0.0875
 2769POSM   AM232489  33.758  14.723  10.559 -0.1323 -0.1208 -0.1905
 2769POSM   T1A32490  33.397  14.365  10.602  0.2544 -0.1143  0.0495
 2769POSM   C2A32491  33.094  14.373  10.916  0.2610 -0.0611 -0.0178
 2769POSM   C3A32492  32.652  14.551  11.036 -0.0983  0.0977  0.0347
 2769POSM   C1B32493  33.456  14.871  10.708 -0.0597 -0.1753 -0.2779
 2769POSM   D2B32494  33.223  15.170  10.971 -0.2544  0.0701 -0.2820
 2769POSM   C3B32495  33.155  15.654  10.896  0.0334 -0.0061 -0.1393
 2769POSM   C4B32496  33.146  16.002  10.615  0.1204 -0.0225  0.0468
 2770DOPE   NH332497  30.982   5.770  11.014  0.2234  0.0079 -0.1523
 2770DOPE   PO432498  30.909   6.001  11.236  0.1166  0.2233 -0.0149
 2770DOPE   GL132499  30.537   5.861  11.503 -0.0250 -0.1132 -0.0765
 2770DOPE   GL232500  30.360   5.989  11.460 -0.0172 -0.2719  0.3503
 2770DOPE   C1A32501  30.372   5.823  11.931  0.0459 -0.2217  0.0741
 2770DOPE   D2A32502  30.286   5.687  12.364 -0.1659  0.2087 -0.1653
 2770DOPE   C3A32503  30.021   5.947  12.735 -0.0759  0.1818  0.1759
 2770DOPE   C4A32504  29.636   6.145  13.020 -0.1805  0.0026  0.0969
 2770DOPE   C1B32505  30.023   6.088  11.748 -0.1927  0.2519 -0.0256
 2770DOPE   D2B32506  29.901   5.996  12.184 -0.3869 -0.0158  0.0990
 2770DOPE   C3B32507  29.496   5.794  12.351  0.3935  0.0130 -0.1208
 2770DOPE   C4B32508  29.463   5.570  12.763 -0.0695  0.1809 -0.5016
 2771DOPC   NC332509  29.613   7.135  11.269  0.3989 -0.0462 -0.2484
 2771DOPC   PO432510  29.419   7.037  10.894 -0.2742 -0.3980 -0.2928
 2771DOPC   GL132511  29.160   6.941  11.262 -0.1198  0.0646 -0.0469
 2771DOPC   GL232512  29.039   6.632  11.427 -0.0845  0.0490  0.0164
 2771DOPC   C1A32513  29.310   7.055  11.689 -0.0913  0.0020 -0.4034
 2771DOPC   D2A32514  29.265   7.209  12.158 -0.0878 -0.0583  0.3499
 2771DOPC   C3A32515  29.442   7.130  12.585 -0.0176  0.0346 -0.2212
 2771DOPC   C4A32516  29.400   6.772  12.870  0.2772  0.3103 -0.0651
 2771DOPC   C1B32517  28.983   6.387  11.844 -0.0493  0.0246  0.0565
 2771DOPC   D2B32518  28.912   6.159  12.185 -0.0468 -0.2842  0.2042
 2771DOPC   C3B32519  28.607   6.371  12.508  0.1652  0.0442  0.0619
 2771DOPC   C4B32520  28.300   6.157  12.746  0.2301  0.0075 -0.1524
 2772DOPS   CNO32521  25.625   3.465   9.632 -0.0739 -0.0912 -0.0932
 2772DOPS   PO432522  25.567   3.226   9.908 -0.0354 -0.0026  0.3186
 2772DOPS   GL132523  25.686   3.331  10.327  0.2091  0.2950 -0.1301
 2772DOPS   GL232524  25.409   3.244  10.463  0.2488 -0.0767  0.1197
 2772DOPS   C1A32525  25.994   3.315  10.674 -0.0101  0.2617  0.0643
 2772DOPS   D2A32526  25.703   3.152  10.983  0.0127 -0.1422  0.2662
 2772DOPS   C3A32527  25.629   3.524  11.298 -0.1423  0.0045 -0.0719
 2772DOPS   C4A32528  25.610   3.786  11.684  0.0476  0.1577  0.2297
 2772DOPS   C1B32529  25.207   3.123  10.872  0.1524  0.1611 -0.2761
 2772DOPS   D2B32530  25.301   3.126  11.402 -0.0819 -0.0456  0.1880
 2772DOPS   C3B32531  25.412   2.789  11.710 -0.2472  0.2361  0.0619
 2772DOPS   C4B32532  25.445   2.379  11.747 -0.2681  0.0664 -0.2607
 2773DOPE   NH332533  27.126   8.951  10.088 -0.0042 -0.0200  0.0728
 2773DOPE   PO432534  27.015   9.222   9.994 -0.0072  0.0004  0.1252
 2773DOPE   GL132535  27.124   9.537  10.245 -0.0479 -0.2090  0.2194
 2773DOPE   GL232536  27.442   9.642  10.265  0.0385  0.0266 -0.1241
 2773DOPE   C1A32537  27.095   9.555  10.694  0.1209 -0.0241  0.1849
 2773DOPE   D2A32538  26.996   9.824  11.120  0.0210 -0.0023  0.1935
 2773DOPE   C3A32539  26.562   9.840  11.205 -0.0125  0.1375 -0.0247
 2773DOPE   C4A32540  26.124  10.005  11.160  0.1970  0.0478  0.0712
 2773DOPE   C1B32541  27.552   9.699  10.713  0.1430  0.2590  0.0208
 2773DOPE   D2B32542  27.545   9.759  11.190 -0.1503  0.0566  0.3647
 2773DOPE   C3B32543  27.273  10.052  11.456 -0.3783 -0.1327 -0.1647
 2773DOPE   C4B32544  27.064  10.419  11.466  0.0479  0.1795 -0.1005
 2774DOPE   NH332545  26.871   6.812   9.931 -0.1685  0.0953 -0.1362
 2774DOPE   PO432546  26.786   6.541   9.986  0.3060 -0.2412 -0.2823
 2774DOPE   GL132547  26.581   6.498  10.312 -0.0853  0.0260  0.0935
 2774DOPE   GL232548  26.412   6.729  10.421 -0.0509  0.0988  0.4387
 2774DOPE   C1A32549  26.827   6.437  10.721 -0.0444 -0.1740 -0.2951
 2774DOPE   D2A32550  27.018   6.354  11.116  0.0088  0.2114 -0.1105
 2774DOPE   C3A32551  27.431   6.326  11.052  0.1858  0.2455 -0.1825
 2774DOPE   C4A32552  27.844   6.173  10.870  0.1907 -0.1385 -0.1110
 2774DOPE   C1B32553  26.555   6.828  10.850  0.2397 -0.4061  0.0206
 2774DOPE   D2B32554  26.890   6.899  11.195  0.1822 -0.2345  0.2260
 2774DOPE   C3B32555  26.750   7.344  11.229  0.1701 -0.1127 -0.3900
 2774DOPE   C4B32556  26.367   7.575  11.199  0.1381 -0.2117 -0.1908
 2775DOPS   CNO32557  32.944  14.323   9.732  0.4476 -0.1120 -0.2426
 2775DOPS   PO432558  33.026  14.123  10.004  0.0371  0.0701  0.1688
 2775DOPS   GL132559  33.042  14.113  10.378 -0.2171  0.0408 -0.3124
 2775DOPS   GL232560  32.859  14.277  10.487 -0.2830 -0.0762 -0.1465
 2775DOPS   C1A32561  32.834  13.710  10.475  0.1442  0.3485  0.2486
 2775DOPS   D2A32562  32.764  13.456  10.812  0.0901 -0.4828 -0.3650
 2775DOPS   C3A32563  32.512  13.371  11.162  0.0544 -0.0511 -0.0369
 2775DOPS   C4A32564  32.169  13.245  11.472 -0.3511  0.1527 -0.1346
 2775DOPS   C1B32565  32.699  14.054  10.852  0.1935  0.3181  0.1945
 2775DOPS   D2B32566  32.837  13.769  11.195 -0.2083 -0.1901  0.2444
 2775DOPS   C3B32567  33.039  13.804  11.623 -0.2111  0.0935  0.0461
 2775DOPS   C4B32568  33.439  13.888  11.892  0.2514  0.0266 -0.1085
 2776DOPE   NH332569   0.418   2.200  12.135 -0.1990  0.2028 -0.3855
 2776DOPE   PO432570   0.355   2.336  12.416  0.0895  0.0163 -0.1135
 2776DOPE   GL132571   0.598   2.308  12.788 -0.1450 -0.0078  0.1706
 2776DOPE   GL232572   0.697   2.561  12.972  0.0680  0.1307 -0.0225
 2776DOPE   C1A32573   0.452   2.087  13.181  0.1183  0.0030  0.1499
 2776DOPE   D2A32574   0.085   2.055  13.488 -0.0522 -0.0368 -0.1368
 2776DOPE   C3A32575   0.125   1.965  13.935  0.0181  0.1332 -0.0148
 2776DOPE   C4A32576   0.158   2.132  14.312  0.1627  0.1317 -0.0809
 2776DOPE   C1B32577   0.621   2.589  13.434  0.0812  0.3167 -0.0210
 2776DOPE   D2B32578   0.894   2.747  13.793  0.0110  0.2816 -0.0959
 2776DOPE   C3B32579   1.117   2.458  14.055  0.0934  0.0856  0.1250
 2776DOPE   C4B32580   1.380   2.141  13.936  0.1717 -0.0439  0.1943
 2777DOPS   CNO32581  29.101   0.531  10.669 -0.3164  0.0955 -0.0239
 2777DOPS   PO432582  28.942   0.891  10.623  0.1912 -0.0117 -0.0036
 2777DOPS   GL132583  28.944   1.171  10.930 -0.2093  0.1610  0.0803
 2777DOPS   GL232584  28.734   1.306  10.979  0.0714 -0.2703  0.0924
 2777DOPS   C1A32585  28.905   1.018  11.337 -0.1775 -0.3531  0.0242
 2777DOPS   D2A32586  29.066   1.022  11.750  0.0086  0.3002 -0.0804
 2777DOPS   C3A32587  28.888   0.875  12.142 -0.1795  0.0968  0.1397
 2777DOPS   C4A32588  28.575   0.966  12.450  0.2305 -0.0877 -0.0608
 2777DOPS   C1B32589  28.605   1.446  11.375  0.1255  0.2358  0.2641
 2777DOPS   D2B32590  28.767   1.351  11.792 -0.0388 -0.3508 -0.1853
 2777DOPS   C3B32591  28.697   1.481  12.236  0.1538  0.1543  0.0597
 2777DOPS   C4B32592  28.619   1.837  12.569 -0.0261 -0.0788 -0.0953
 2778DOPS   CNO32593  33.328   2.199  11.872  0.2568  0.0882  0.3483
 2778DOPS   PO432594  32.979   2.410  11.874  0.0027 -0.1976 -0.3089
 2778DOPS   GL132595  32.877   2.438  12.293  0.2359  0.3958 -0.6056
 2778DOPS   GL232596  33.147   2.300  12.376  0.0494 -0.1895  0.2502
 2778DOPS   C1A32597  32.628   2.434  12.647 -0.1028  0.0585  0.0031
 2778DOPS   D2A32598  32.354   2.594  13.051 -0.1077 -0.0199  0.1267
 2778DOPS   C3A32599  32.490   2.557  13.496  0.0748  0.0995  0.2752
 2778DOPS   C4A32600  32.984   2.593  13.578  0.1535  0.0476 -0.2333
 2778DOPS   C1B32601  33.156   2.120  12.774 -0.2411  0.0667  0.0955
 2778DOPS   D2B32602  33.339   1.922  13.142 -0.1896  0.2303  0.0517
 2778DOPS   C3B32603  33.038   1.977  13.472 -0.0869  0.0447  0.3871
 2778DOPS   C4B32604  33.105   2.054  13.870  0.0186  0.0488  0.2831
 2779DOPC   NC332605  27.585   2.555  10.449  0.0010 -0.1180  0.0901
 2779DOPC   PO432606  27.827   2.272  10.623 -0.2915  0.0084 -0.2209
 2779DOPC   GL132607  27.626   2.237  10.953  0.1361  0.0024  0.1329
 2779DOPC   GL232608  27.481   2.431  10.918 -0.3339  0.2059 -0.1809
 2779DOPC   C1A32609  27.772   2.349  11.381  0.1501  0.2183  0.1192
 2779DOPC   D2A32610  27.767   2.431  11.799 -0.0498  0.2315 -0.0655
 2779DOPC   C3A32611  27.905   2.140  12.042  0.1748 -0.0479 -0.0399
 2779DOPC   C4A32612  28.167   1.949  12.381 -0.0053 -0.3151  0.0524
 2779DOPC   C1B32613  27.336   2.535  11.378  0.0230  0.2403 -0.2224
 2779DOPC   D2B32614  27.289   2.363  11.817  0.1284  0.2404  0.0385
 2779DOPC   C3B32615  26.986   2.355  12.138  0.1736 -0.0857 -0.0842
 2779DOPC   C4B32616  26.910   2.143  12.531 -0.7370  0.1573 -0.1057
 2780DOPC   NC332617  31.244   7.670  11.870 -0.1306 -0.2093  0.0362
 2780DOPC   PO432618  31.052   7.430  11.595 -0.1318  0.0612 -0.0563
 2780DOPC   GL132619  30.930   7.097  11.801 -0.2029  0.2104  0.1279
 2780DOPC   GL232620  30.850   6.831  11.797  0.1277 -0.0855 -0.0784
 2780DOPC   C1A32621  30.613   7.159  12.190 -0.1178 -0.2654 -0.2907
 2780DOPC   D2A32622  30.451   6.833  12.467  0.3750 -0.2491 -0.2133
 2780DOPC   C3A32623  30.589   6.906  12.896  0.0168  0.1658 -0.0106
 2780DOPC   C4A32624  30.670   7.223  13.229  0.0843  0.1786 -0.0000
 2780DOPC   C1B32625  31.029   6.712  12.214 -0.1285  0.1469 -0.0068
 2780DOPC   D2B32626  30.966   6.442  12.551  0.0668 -0.2897 -0.1857
 2780DOPC   C3B32627  30.848   6.422  13.008  0.0167  0.0593  0.2513
 2780DOPC   C4B32628  30.878   6.005  13.304  0.1685 -0.0605 -0.1149
 2781DOPE   NH332629  30.632   4.408  11.290  0.0055 -0.1551 -0.1587
 2781DOPE   PO432630  30.759   4.317  11.573  0.4683  0.0751  0.0036
 2781DOPE   GL132631  30.548   4.312  11.853 -0.0082 -0.2208 -0.1605
 2781DOPE   GL232632  30.348   4.132  11.914 -0.1969  0.1090 -0.0191
 2781DOPE   C1A32633  30.501   4.546  12.278 -0.0035  0.1271  0.1703
 2781DOPE   D2A32634  30.450   4.540  12.740 -0.1062 -0.4774  0.1079
 2781DOPE   C3A32635  30.466   4.686  13.152  0.1333 -0.0677  0.2309
 2781DOPE   C4A32636  30.258   4.916  13.542  0.0284 -0.1368  0.0983
 2781DOPE   C1B32637  30.497   4.075  12.363 -0.0019 -0.0176 -0.2307
 2781DOPE   D2B32638  30.302   4.044  12.753  0.0665  0.1004  0.1764
 2781DOPE   C3B32639  29.865   3.962  12.869  0.1940 -0.0555 -0.1182
 2781DOPE   C4B32640  29.487   4.111  12.969 -0.2051 -0.2068  0.0133
 2782DOPC   NC332641  33.341  11.658  10.531 -0.1691 -0.0518  0.4097
 2782DOPC   PO432642  33.493  11.846  10.192 -0.0055 -0.5014 -0.0430
 2782DOPC   GL132643  33.408  12.092  10.466 -0.4218 -0.2284 -0.2096
 2782DOPC   GL232644  33.713  12.021  10.623  0.3745  0.2905  0.0531
 2782DOPC   C1A32645  32.972  12.240  10.594  0.0834 -0.1797  0.3374
 2782DOPC   D2A32646  32.729  12.584  10.504  0.0586  0.0658 -0.0389
 2782DOPC   C3A32647  32.509  12.911  10.787 -0.1885  0.0810  0.2678
 2782DOPC   C4A32648  32.174  13.232  10.783 -0.2247  0.0655 -0.2033
 2782DOPC   C1B32649  33.677  11.816  11.056  0.2039  0.0015  0.1972
 2782DOPC   D2B32650  33.393  11.626  11.448 -0.0808 -0.2689 -0.1818
 2782DOPC   C3B32651  33.014  11.921  11.475  0.0817  0.2049  0.4366
 2782DOPC   C4B32652  32.545  11.943  11.527 -0.2827  0.0999  0.1456
 2783POSM   NC332653  30.859   2.525  11.287  0.2976 -0.1740 -0.2669
 2783POSM   PO432654  30.655   2.192  11.362 -0.1560 -0.2155 -0.4129
 2783POSM   AM132655  30.639   2.220  11.687  0.0740  0.4467 -0.0491
 2783POSM   AM232656  30.426   2.147  11.861 -0.2274  0.0881 -0.2141
 2783POSM   T1A32657  30.738   2.446  12.136 -0.1577 -0.2033  0.3117
 2783POSM   C2A32658  30.451   2.562  12.490 -0.1766  0.2706 -0.1009
 2783POSM   C3A32659  30.133   2.584  12.851  0.0180 -0.1330  0.1979
 2783POSM   C1B32660  30.341   2.052  12.168  0.0023 -0.0871 -0.1865
 2783POSM   D2B32661  30.235   2.090  12.609  0.1189 -0.2084 -0.0087
 2783POSM   C3B32662  30.060   1.851  12.936 -0.0149 -0.1380  0.0025
 2783POSM   C4B32663  30.259   1.536  13.209  0.0284 -0.0607 -0.2710
 2784DOPC   NC332664  27.350   7.315  10.472  0.1166 -0.2731 -0.0070
 2784DOPC   PO432665  27.346   7.710  10.401 -0.2078  0.0155  0.3219
 2784DOPC   GL132666  27.446   7.658  10.783 -0.0065  0.0156  0.0005
 2784DOPC   GL232667  27.253   7.827  10.913  0.0215 -0.0439  0.0079
 2784DOPC   C1A32668  27.236   7.292  11.051  0.1129  0.1630 -0.0941
 2784DOPC   D2A32669  27.178   7.331  11.535 -0.3840  0.1592  0.2875
 2784DOPC   C3A32670  26.762   7.151  11.734  0.2563 -0.0749 -0.1584
 2784DOPC   C4A32671  26.534   6.772  11.796 -0.1565 -0.0896  0.0945
 2784DOPC   C1B32672  27.125   7.771  11.363  0.2292  0.0639  0.0216
 2784DOPC   D2B32673  26.983   7.676  11.783  0.1831 -0.0480  0.0824
 2784DOPC   C3B32674  26.834   7.869  12.180 -0.3635  0.0073 -0.0239
 2784DOPC   C4B32675  26.662   7.782  12.632 -0.0807  0.0427 -0.0222
 2785DOPC   NC332676  30.671  10.177  10.536  0.0757 -0.0978  0.1359
 2785DOPC   PO432677  30.298  10.262  10.459 -0.1762 -0.0572 -0.3522
 2785DOPC   GL132678  30.276  10.347  10.817  0.0966 -0.0752  0.0773
 2785DOPC   GL232679  30.336  10.090  10.966  0.1037 -0.1465 -0.0187
 2785DOPC   C1A32680  30.392  10.523  11.216 -0.2622 -0.0842 -0.0572
 2785DOPC   D2A32681  30.522  10.963  11.340  0.2233  0.0474 -0.1569
 2785DOPC   C3A32682  30.193  11.311  11.390 -0.0635 -0.1044 -0.2161
 2785DOPC   C4A32683  30.125  11.727  11.493 -0.0503 -0.1450 -0.2796
 2785DOPC   C1B32684  30.193  10.153  11.398  0.2302  0.1110  0.1746
 2785DOPC   D2B32685  30.052  10.329  11.833  0.1076 -0.1851 -0.0629
 2785DOPC   C3B32686  29.679  10.490  11.990  0.0336  0.0636  0.0328
 2785DOPC   C4B32687  29.288  10.350  12.202  0.0683  0.1597  0.2068
 2786DOPE   NH332688  26.796   9.817  10.035 -0.0389 -0.1496  0.1641
 2786DOPE   PO432689  26.564   9.929  10.235  0.2448 -0.0174  0.3634
 2786DOPE   GL132690  26.359  10.146  10.532  0.0736  0.2293 -0.1884
 2786DOPE   GL232691  26.213   9.842  10.613  0.0615 -0.1490  0.2276
 2786DOPE   C1A32692  26.106  10.374  10.828 -0.2888 -0.0333  0.0817
 2786DOPE   D2A32693  25.940  10.549  11.187  0.3049 -0.2316  0.1337
 2786DOPE   C3A32694  26.013  10.314  11.617 -0.0284 -0.2832 -0.0522
 2786DOPE   C4A32695  26.232  10.353  11.978 -0.0875 -0.3251 -0.0658
 2786DOPE   C1B32696  26.513   9.542  10.817 -0.1013 -0.2688 -0.0056
 2786DOPE   D2B32697  26.849   9.354  11.148  0.1355  0.2447  0.0901
 2786DOPE   C3B32698  26.830   9.537  11.530  0.2159  0.2350  0.1688
 2786DOPE   C4B32699  26.594   9.509  11.900 -0.2820  0.2873 -0.0519
 2787DOPE   NH332700  24.850  11.612  10.033 -0.0440  0.0434  0.2613
 2787DOPE   PO432701  24.695  11.680   9.749  0.3632  0.3293  0.1052
 2787DOPE   GL132702  24.515  11.331  10.028 -0.0959  0.0575  0.3299
 2787DOPE   GL232703  24.265  11.342  10.034  0.2534  0.0778 -0.1057
 2787DOPE   C1A32704  24.629  11.324  10.471  0.3911  0.0205  0.0175
 2787DOPE   D2A32705  24.919  11.386  10.867 -0.1679 -0.0294 -0.1221
 2787DOPE   C3A32706  24.651  11.494  11.227 -0.1859 -0.4042 -0.1807
 2787DOPE   C4A32707  24.478  11.638  11.670  0.2725  0.0785 -0.0096
 2787DOPE   C1B32708  24.354  10.961  10.258  0.3209  0.2338 -0.0076
 2787DOPE   D2B32709  24.303  10.659  10.627  0.0655 -0.0951 -0.1009
 2787DOPE   C3B32710  23.838  10.585  10.747 -0.1752  0.0526 -0.2894
 2787DOPE   C4B32711  23.487  10.355  10.814  0.0179 -0.0748 -0.1140
 2788DOPC   NC332712  20.644   5.951   9.825 -0.2017  0.2294 -0.0673
 2788DOPC   PO432713  20.789   6.238  10.062  0.4791 -0.2292 -0.0635
 2788DOPC   GL132714  21.121   6.194  10.328  0.1870  0.2006  0.1282
 2788DOPC   GL232715  20.986   6.001  10.491  0.2321  0.0142  0.0175
 2788DOPC   C1A32716  21.364   6.405  10.701  0.1272 -0.0569 -0.0988
 2788DOPC   D2A32717  21.387   6.661  11.023  0.4392 -0.2071  0.0761
 2788DOPC   C3A32718  21.268   6.485  11.388 -0.0644  0.0813  0.0609
 2788DOPC   C4A32719  21.289   6.112  11.648 -0.1006  0.3606 -0.0984
 2788DOPC   C1B32720  20.697   5.975  10.794  0.3100  0.1584 -0.4215
 2788DOPC   D2B32721  20.506   5.838  11.167  0.1042 -0.2562 -0.0695
 2788DOPC   C3B32722  20.352   6.056  11.505 -0.0558 -0.0366  0.1317
 2788DOPC   C4B32723  20.002   6.127  11.832  0.1118  0.4064 -0.0004
 2789DOPE   NH332724  33.036   6.372  11.984  0.1106  0.1627 -0.0236
 2789DOPE   PO432725  33.318   6.272  11.980 -0.2951  0.0557 -0.0252
 2789DOPE   GL132726  33.219   6.366  12.440  0.0945 -0.0979  0.4646
 2789DOPE   GL232727  32.997   6.189  12.465  0.0793 -0.0953 -0.3556
 2789DOPE   C1A32728  33.317   6.725  12.739  0.5533 -0.0065 -0.2499
 2789DOPE   D2A32729  33.323   7.159  12.780 -0.0697  0.2008 -0.0815
 2789DOPE   C3A32730  33.192   7.145  13.199 -0.2605 -0.5036  0.2277
 2789DOPE   C4A32731  33.345   7.152  13.627  0.0286 -0.3497 -0.0210
 2789DOPE   C1B32732  32.963   6.090  12.905 -0.2052  0.1348  0.0703
 2789DOPE   D2B32733  32.736   5.917  13.273  0.1362 -0.1526  0.0909
 2789DOPE   C3B32734  32.856   6.168  13.660  0.1080  0.1431 -0.3043
 2789DOPE   C4B32735  32.720   6.036  14.059  0.1142  0.1234  0.0205
 2790DOPS   CNO32736  30.871  10.612  10.290 -0.0525 -0.0932  0.0187
 2790DOPS   PO432737  31.186  10.373  10.367  0.0336 -0.2533  0.1327
 2790DOPS   GL132738  31.069  10.549  10.760 -0.3530  0.5121 -0.0393
 2790DOPS   GL232739  31.307  10.364  10.916 -0.0907 -0.2477  0.0439
 2790DOPS   C1A32740  30.711  10.856  10.864 -0.1043  0.0800  0.2809
 2790DOPS   D2A32741  30.281  11.020  10.887 -0.0440  0.1169 -0.0028
 2790DOPS   C3A32742  29.959  10.801  11.184  0.0211  0.1491 -0.1304
 2790DOPS   C4A32743  29.692  10.625  11.532  0.0718 -0.0657 -0.1443
 2790DOPS   C1B32744  31.213  10.797  11.107 -0.1645  0.0827 -0.0699
 2790DOPS   D2B32745  30.957  11.128  11.209  0.0835  0.0407 -0.0613
 2790DOPS   C3B32746  31.001  11.433  11.566 -0.0280 -0.2308  0.2849
 2790DOPS   C4B32747  30.970  11.711  11.979 -0.0422  0.1335  0.2205
 2791DOPC   NC332748  24.156  11.689   9.654  0.0653  0.1574  0.1394
 2791DOPC   PO432749  24.366  12.012   9.564  0.0901 -0.2265 -0.0813
 2791DOPC   GL132750  24.441  12.057   9.989  0.1932 -0.2156  0.2107
 2791DOPC   GL232751  24.399  11.790  10.124  0.1472  0.0506 -0.0221
 2791DOPC   C1A32752  24.385  12.225  10.436 -0.1129 -0.1301  0.1483
 2791DOPC   D2A32753  24.367  12.293  10.910  0.0727  0.2188  0.3192
 2791DOPC   C3A32754  24.706  11.980  10.984  0.2427  0.1489 -0.0904
 2791DOPC   C4A32755  25.167  11.834  10.982  0.3015 -0.3120 -0.1839
 2791DOPC   C1B32756  23.971  12.024  10.174  0.1599  0.0484 -0.2327
 2791DOPC   D2B32757  23.557  11.914  10.480  0.3139 -0.0226 -0.1347
 2791DOPC   C3B32758  23.107  12.082  10.562  0.0862 -0.1383 -0.3557
 2791DOPC   C4B32759  22.684  12.201  10.454  0.2345 -0.0858 -0.1564
 2792POSM   NC332760  31.466   9.828  10.754 -0.2232 -0.1117 -0.1570
 2792POSM   PO432761  31.095   9.924  10.715  0.1112  0.1320 -0.0669
 2792POSM   AM132762  30.924  10.027  10.940  0.0745 -0.2481 -0.2050
 2792POSM   AM232763  30.802   9.868  11.152 -0.1862 -0.0460  0.3043
 2792POSM   T1A32764  30.875  10.431  11.307 -0.3862  0.1728 -0.3406
 2792POSM   C2A32765  30.985  10.794  11.651 -0.2935  0.0058 -0.0858
 2792POSM   C3A32766  31.075  11.101  12.036 -0.0541  0.0633  0.3506
 2792POSM   C1B32767  30.617  10.016  11.370  0.0779 -0.0498  0.4541
 2792POSM   D2B32768  30.610  10.289  11.729  0.1099  0.1609  0.0979
 2792POSM   C3B32769  30.335  10.723  11.706  0.0025  0.0076  0.0453
 2792POSM   C4B32770  29.934  10.914  11.857  0.0390 -0.1377  0.2850
 2793DOPC   NC332771  23.771   6.776   9.912 -0.0331 -0.1032  0.0913
 2793DOPC   PO432772  23.826   7.115   9.976  0.4544 -0.0293 -0.0822
 2793DOPC   GL132773  23.873   7.174  10.292 -0.4602  0.0358 -0.0802
 2793DOPC   GL232774  24.101   7.338  10.408  0.2100 -0.2013 -0.1195
 2793DOPC   C1A32775  23.633   7.279  10.704 -0.1657  0.2302  0.0872
 2793DOPC   D2A32776  23.458   7.345  11.134 -0.3250  0.1420  0.5675
 2793DOPC   C3A32777  23.814   7.259  11.406 -0.1277  0.0685 -0.0639
 2793DOPC   C4A32778  24.093   7.152  11.721 -0.0932  0.0622 -0.2700
 2793DOPC   C1B32779  24.387   7.023  10.510 -0.0240 -0.1164  0.0688
 2793DOPC   D2B32780  24.269   6.768  10.889 -0.1317  0.2968  0.1031
 2793DOPC   C3B32781  24.261   7.088  11.198  0.0763 -0.2755 -0.1791
 2793DOPC   C4B32782  24.495   7.281  11.503 -0.0318 -0.0670  0.0094
 2794POSM   NC332783  30.403   9.723  10.455 -0.0565  0.5365  0.0927
 2794POSM   PO432784  30.674   9.625  10.745  0.1430 -0.2493  0.0896
 2794POSM   AM132785  30.435   9.637  10.938 -0.1653 -0.2570  0.0756
 2794POSM   AM232786  30.368   9.605  11.221 -0.3777 -0.0298 -0.1041
 2794POSM   T1A32787  29.959   9.801  11.050  0.1115 -0.0756 -0.0792
 2794POSM   C2A32788  29.562   9.707  11.240  0.3027 -0.1698 -0.0996
 2794POSM   C3A32789  29.350   9.668  11.640 -0.2379  0.1769  0.1856
 2794POSM   C1B32790  30.524   9.550  11.529 -0.0330 -0.3067 -0.3454
 2794POSM   D2B32791  30.670   9.790  11.930 -0.3182 -0.0277 -0.0454
 2794POSM   C3B32792  30.328  10.041  12.181 -0.0051 -0.1309 -0.0124
 2794POSM   C4B32793  29.907  10.190  12.278  0.1650 -0.1544 -0.3106
 2795DOPE   NH332794  25.703   8.035   9.982  0.0072  0.0927 -0.0927
 2795DOPE   PO432795  25.593   8.350  10.001  0.1388 -0.0415 -0.1005
 2795DOPE   GL132796  25.383   8.242  10.344  0.0984 -0.0770  0.2050
 2795DOPE   GL232797  25.092   8.245  10.369 -0.3507 -0.2315 -0.0426
 2795DOPE   C1A32798  25.388   8.307  10.841  0.1069  0.3039  0.1702
 2795DOPE   D2A32799  25.395   8.340  11.335 -0.1576 -0.2952 -0.0588
 2795DOPE   C3A32800  25.630   8.068  11.636  0.1861 -0.2103  0.2317
 2795DOPE   C4A32801  25.692   8.039  12.089  0.1364 -0.1619 -0.1015
 2795DOPE   C1B32802  24.861   8.460  10.743 -0.1656 -0.0772 -0.3466
 2795DOPE   D2B32803  24.492   8.431  11.051  0.0240 -0.0476 -0.0336
 2795DOPE   C3B32804  24.451   8.590  11.464  0.0524  0.2287  0.0581
 2795DOPE   C4B32805  24.278   8.814  11.775 -0.0767 -0.2302  0.1638
 2796DOPE   NH332806  31.512   7.065  11.392 -0.1687  0.1321  0.1051
 2796DOPE   PO432807  31.238   6.871  11.414 -0.1993  0.1751  0.1941
 2796DOPE   GL132808  31.308   6.930  11.837 -0.2255 -0.3931  0.4438
 2796DOPE   GL232809  31.427   7.183  11.952  0.0554  0.0648 -0.0342
 2796DOPE   C1A32810  31.532   6.674  12.153  0.1229 -0.1189  0.0170
 2796DOPE   D2A32811  31.648   6.524  12.606 -0.0787  0.0419  0.1336
 2796DOPE   C3A32812  32.008   6.289  12.871 -0.0525 -0.1851  0.1835
 2796DOPE   C4A32813  32.314   6.290  13.199  0.1990  0.3767  0.1183
 2796DOPE   C1B32814  31.103   7.297  12.230  0.0400  0.2565 -0.1382
 2796DOPE   D2B32815  31.118   7.072  12.656 -0.1825  0.1391 -0.2350
 2796DOPE   C3B32816  31.275   6.732  12.981 -0.0862 -0.1019 -0.0735
 2796DOPE   C4B32817  31.416   6.417  13.198  0.1058  0.1862 -0.2675
 2797DOPS   CNO32818  30.180  34.288  11.012 -0.0767  0.0212 -0.3267
 2797DOPS   PO432819  30.381  34.322  11.339 -0.0755  0.2243  0.1439
 2797DOPS   GL132820  30.346  34.022  11.612 -0.2670  0.0074 -0.1627
 2797DOPS   GL232821  30.519  34.172  11.786  0.1295  0.2392  0.3291
 2797DOPS   C1A32822  30.105  33.934  12.032  0.0156  0.0239 -0.0982
 2797DOPS   D2A32823  30.104  33.949  12.504  0.0678  0.1122 -0.0501
 2797DOPS   C3A32824  30.175  33.718  12.868  0.0071  0.2690  0.0080
 2797DOPS   C4A32825  30.068  33.493  13.271  0.2761  0.0076 -0.3796
 2797DOPS   C1B32826  30.558  33.782  12.088 -0.1171  0.0593  0.1510
 2797DOPS   D2B32827  30.537  33.602  12.582 -0.0156 -0.1043  0.0239
 2797DOPS   C3B32828  30.657  33.921  12.967  0.2675  0.1166  0.0787
 2797DOPS   C4B32829  30.633  34.357  13.170 -0.1010  0.3880  0.1370
 2798DOPE   NH332830  24.660   1.744  10.106 -0.0548  0.2084 -0.0954
 2798DOPE   PO432831  24.325   1.681  10.104 -0.2257 -0.2139  0.0144
 2798DOPE   GL132832  24.359   1.642  10.517  0.1311 -0.0902 -0.1033
 2798DOPE   GL232833  24.169   1.661  10.671 -0.1682 -0.0831 -0.0779
 2798DOPE   C1A32834  24.644   1.835  10.785 -0.1033  0.3176  0.3725
 2798DOPE   D2A32835  24.541   1.985  11.250 -0.4069 -0.1463  0.1431
 2798DOPE   C3A32836  24.929   2.092  11.509  0.0021  0.2017 -0.2123
 2798DOPE   C4A32837  25.116   1.997  11.868 -0.3803 -0.0936 -0.5154
 2798DOPE   C1B32838  24.304   1.561  11.048  0.0507  0.0825 -0.0321
 2798DOPE   D2B32839  24.595   1.396  11.402  0.0634 -0.0623 -0.1302
 2798DOPE   C3B32840  24.886   1.174  11.680  0.2454 -0.1698 -0.1740
 2798DOPE   C4B32841  24.935   1.021  12.094  0.2796  0.0442 -0.3400
 2799DOPE   NH332842  32.724   0.625  11.578  0.0217  0.0471  0.0903
 2799DOPE   PO432843  32.559   0.374  11.465  0.2728 -0.0425  0.0120
 2799DOPE   GL132844  32.861   0.231  11.795 -0.0627  0.2805  0.0594
 2799DOPE   GL232845  32.560   0.338  11.953 -0.3251 -0.0852 -0.3819
 2799DOPE   C1A32846  33.011   0.172  12.264  0.2438  0.1350 -0.0163
 2799DOPE   D2A32847  33.000  -0.091  12.589 -0.0744  0.1779  0.0439
 2799DOPE   C3A32848  32.754  -0.117  13.035  0.2495 -0.0872 -0.0853
 2799DOPE   C4A32849  32.488  -0.279  13.413  0.1637  0.0530  0.3980
 2799DOPE   C1B32850  32.176   0.205  12.202 -0.0219 -0.0300  0.1933
 2799DOPE   D2B32851  31.686   0.295  12.224 -0.3254  0.0968  0.2435
 2799DOPE   C3B32852  31.501   0.221  12.620 -0.2723 -0.0872 -0.0590
 2799DOPE   C4B32853  31.352  -0.141  12.793 -0.0090  0.1896  0.0696
 2800POSM   NC332854  33.642   9.638  11.193  0.0380 -0.1910  0.2521
 2800POSM   PO432855  33.976   9.416  11.162  0.3275  0.3213  0.1654
 2800POSM   AM132856  34.018   9.446  11.483 -0.1206 -0.0551  0.0672
 2800POSM   AM232857  34.268   9.504  11.633  0.3097  0.2209 -0.0452
 2800POSM   T1A32858  33.894   9.590  11.935  0.4242 -0.0943 -0.1027
 2800POSM   C2A32859  33.965   9.826  12.340  0.3765  0.1843  0.2933
 2800POSM   C3A32860  34.106  10.040  12.695 -0.3321 -0.1947 -0.3419
 2800POSM   C1B32861  34.385   9.613  11.980  0.1564  0.0744 -0.0154
 2800POSM   D2B32862  34.431   9.806  12.385 -0.2315  0.0223  0.1556
 2800POSM   C3B32863  34.803   9.709  12.638 -0.3100 -0.3802  0.1573
 2800POSM   C4B32864  35.215   9.649  12.621  0.1387 -0.1500  0.0718
 2801DOPC   NC332865  34.126   8.465  11.410  0.1409  0.0127  0.4834
 2801DOPC   PO432866  34.410   8.581  11.617 -0.0413 -0.1362 -0.1836
 2801DOPC   GL132867  34.164   8.652  11.903 -0.1424 -0.2028  0.2354
 2801DOPC   GL232868  33.973   8.424  11.874  0.0595  0.0824 -0.0982
 2801DOPC   C1A32869  34.263   8.768  12.318  0.0541 -0.4386  0.1443
 2801DOPC   D2A32870  33.999   8.683  12.702 -0.2193 -0.3155 -0.0428
 2801DOPC   C3A32871  33.905   8.767  13.182  0.0179  0.0957  0.0844
 2801DOPC   C4A32872  33.916   8.857  13.674  0.3442  0.2374  0.2013
 2801DOPC   C1B32873  33.662   8.434  12.157 -0.0177  0.3517 -0.2168
 2801DOPC   D2B32874  33.509   8.537  12.602  0.0790  0.0297  0.1220
 2801DOPC   C3B32875  33.328   8.639  12.976 -0.0740 -0.1195 -0.0685
 2801DOPC   C4B32876  32.953   8.447  13.138  0.1254 -0.0958  0.0313
 2802DOPC   NC332877  28.321  34.437  10.635 -0.0876 -0.3168 -0.1261
 2802DOPC   PO432878  28.041  34.443  10.349  0.3698 -0.2357  0.2583
 2802DOPC   GL132879  27.919  34.170  10.612 -0.0459 -0.2063  0.1704
 2802DOPC   GL232880  27.707  34.199  10.806 -0.2097  0.4721 -0.1262
 2802DOPC   C1A32881  28.166  34.043  10.977 -0.0909  0.0007  0.1499
 2802DOPC   D2A32882  28.236  33.900  11.411  0.2342 -0.1379  0.1288
 2802DOPC   C3A32883  28.189  33.622  11.813 -0.1307 -0.0075  0.1185
 2802DOPC   C4A32884  28.230  33.827  12.231 -0.0391 -0.1229  0.1782
 2802DOPC   C1B32885  27.330  34.189  11.096  0.3160 -0.0621 -0.0997
 2802DOPC   D2B32886  27.070  34.162  11.453  0.1033  0.0002 -0.0309
 2802DOPC   C3B32887  27.096  34.024  11.905 -0.0493 -0.3192  0.0721
 2802DOPC   C4B32888  27.174  33.807  12.336 -0.1250 -0.0668 -0.1608
 2803DOPE   NH332889  24.892   2.487  10.160 -0.2102 -0.0974 -0.1462
 2803DOPE   PO432890  24.833   2.155  10.284  0.3680  0.0377 -0.1793
 2803DOPE   GL132891  24.907   2.352  10.606 -0.1664  0.3038 -0.0420
 2803DOPE   GL232892  24.620   2.396  10.686  0.1797  0.0552  0.1398
 2803DOPE   C1A32893  24.964   2.106  11.017 -0.1777 -0.2299 -0.0778
 2803DOPE   D2A32894  25.237   1.834  11.225  0.0583  0.0098  0.1401
 2803DOPE   C3A32895  25.178   1.543  11.583  0.2828 -0.3673 -0.0427
 2803DOPE   C4A32896  25.284   1.446  12.001 -0.2059  0.1630 -0.2322
 2803DOPE   C1B32897  24.929   2.666  10.905 -0.1968 -0.1316 -0.1105
 2803DOPE   D2B32898  24.857   2.916  11.300 -0.0411  0.1471 -0.2951
 2803DOPE   C3B32899  24.462   2.960  11.511  0.2540 -0.1232  0.1299
 2803DOPE   C4B32900  24.162   2.934  11.858  0.0845 -0.4737 -0.1963
 2804DOPE   NH332901  32.263   6.007  11.932  0.2122 -0.0530  0.1679
 2804DOPE   PO432902  32.117   5.861  11.793  0.0290 -0.2628  0.1469
 2804DOPE   GL132903  31.922   5.702  11.985 -0.1725 -0.1561 -0.1391
 2804DOPE   GL232904  31.968   5.716  12.260 -0.3183 -0.1858 -0.0650
 2804DOPE   C1A32905  31.495   5.892  12.087 -0.0442  0.0543  0.0232
 2804DOPE   D2A32906  31.312   6.220  12.308 -0.4831  0.1711  0.0507
 2804DOPE   C3A32907  31.324   6.141  12.771  0.1742 -0.0983  0.2103
 2804DOPE   C4A32908  31.298   5.772  13.045 -0.1488 -0.4095 -0.3115
 2804DOPE   C1B32909  32.090   5.510  12.652 -0.1386  0.2584  0.1922
 2804DOPE   D2B32910  32.547   5.416  12.818  0.0100 -0.0205 -0.0868
 2804DOPE   C3B32911  32.526   5.468  13.295  0.1084 -0.0982  0.3311
 2804DOPE   C4B32912  32.276   5.154  13.561 -0.0657 -0.2524  0.1050
 2805POSM   NC332913  29.522   0.343  10.883  0.0921  0.1778 -0.2726
 2805POSM   PO432914  29.746   0.625  11.049  0.2304  0.1937  0.3343
 2805POSM   AM132915  29.606   0.517  11.314 -0.0847  0.1480  0.1183
 2805POSM   AM232916  29.728   0.396  11.583  0.0061 -0.1243  0.0163
 2805POSM   T1A32917  29.282   0.524  11.678  0.1423 -0.0629 -0.4182
 2805POSM   C2A32918  29.146   0.328  12.028 -0.0853  0.1888 -0.2106
 2805POSM   C3A32919  28.786   0.387  12.262 -0.2495 -0.0856  0.2100
 2805POSM   C1B32920  29.688   0.316  11.917  0.0269  0.1467  0.0824
 2805POSM   D2B32921  29.558   0.182  12.321 -0.2691 -0.2046  0.0942
 2805POSM   C3B32922  29.413  -0.212  12.398  0.2671 -0.3757  0.0867
 2805POSM   C4B32923  29.102  -0.505  12.167  0.3542 -0.0783 -0.0045
 2806POSM   NC332924  31.620   6.331  11.744 -0.2533  0.0641  0.3300
 2806POSM   PO432925  31.287   6.313  11.604 -0.0075 -0.3782 -0.0273
 2806POSM   AM132926  31.068   6.110  11.708  0.0279 -0.0031 -0.0449
 2806POSM   AM232927  30.806   6.218  11.749  0.0567  0.2552  0.1912
 2806POSM   T1A32928  30.902   5.702  11.959 -0.0445  0.1538  0.1422
 2806POSM   C2A32929  30.618   5.381  12.124  0.1710 -0.0789  0.1131
 2806POSM   C3A32930  30.481   5.059  12.421 -0.0574 -0.0187 -0.0586
 2806POSM   C1B32931  30.900   6.195  12.076 -0.1791 -0.0033  0.1173
 2806POSM   D2B32932  30.926   5.886  12.408 -0.2152  0.0173 -0.0115
 2806POSM   C3B32933  31.304   5.734  12.538 -0.0301 -0.1345 -0.1748
 2806POSM   C4B32934  31.477   5.331  12.687 -0.4093 -0.2234  0.1426
 2807POSM   NC332935  20.572   8.834   9.801 -0.1202 -0.2729 -0.0568
 2807POSM   PO432936  20.731   8.496   9.662 -0.1621  0.2870  0.0336
 2807POSM   AM132937  20.853   8.296   9.878  0.0381 -0.2046 -0.2155
 2807POSM   AM232938  20.673   8.141  10.098 -0.2392 -0.1279  0.1171
 2807POSM   T1A32939  21.081   8.184  10.292 -0.1941  0.0335 -0.1653
 2807POSM   C2A32940  21.184   8.330  10.753 -0.0118  0.0832 -0.0135
 2807POSM   C3A32941  21.350   8.521  11.148 -0.3306 -0.0911 -0.1998
 2807POSM   C1B32942  20.645   8.063  10.398  0.0969  0.1691 -0.1570
 2807POSM   D2B32943  20.562   8.306  10.777  0.2661 -0.5815 -0.2523
 2807POSM   C3B32944  20.785   8.336  11.130 -0.3633  0.1469 -0.3243
 2807POSM   C4B32945  20.914   8.634  11.449  0.2761 -0.0870 -0.1283
 2808POSM   NC332946  31.972   3.874  12.144  0.3031  0.1109  0.1669
 2808POSM   PO432947  31.829   3.539  12.026 -0.1123 -0.1740  0.0277
 2808POSM   AM132948  31.813   3.327  12.276  0.0836 -0.0113 -0.0632
 2808POSM   AM232949  31.894   3.038  12.357 -0.2775  0.1169  0.1439
 2808POSM   T1A32950  31.816   3.321  12.769 -0.0266 -0.2877  0.0127
 2808POSM   C2A32951  31.791   3.473  13.179 -0.1271 -0.1979 -0.0322
 2808POSM   C3A32952  31.892   3.316  13.572 -0.3067  0.0236  0.0773
 2808POSM   C1B32953  31.890   2.813  12.617  0.0175 -0.3958  0.1697
 2808POSM   D2B32954  31.928   2.890  13.085 -0.3966  0.1465  0.1635
 2808POSM   C3B32955  32.010   2.500  13.367 -0.2193 -0.2977 -0.0534
 2808POSM   C4B32956  31.950   2.047  13.557 -0.3265 -0.0595  0.0055
 2809DOPC   NC332957  26.145   7.598  10.691  0.2904 -0.0653 -0.0327
 2809DOPC   PO432958  26.394   7.448  10.455 -0.2879 -0.0504 -0.1655
 2809DOPC   GL132959  26.286   7.186  10.814  0.1203 -0.1936  0.0949
 2809DOPC   GL232960  26.105   7.009  10.750  0.0529  0.0578  0.0765
 2809DOPC   C1A32961  26.319   7.021  11.252 -0.0767  0.1463  0.2187
 2809DOPC   D2A32962  26.095   6.725  11.557  0.1144  0.0033  0.2882
 2809DOPC   C3A32963  25.660   6.853  11.600  0.1553 -0.1763 -0.1239
 2809DOPC   C4A32964  25.259   7.069  11.787  0.0208 -0.0785  0.1842
 2809DOPC   C1B32965  25.987   7.335  11.061  0.2978 -0.1088 -0.2357
 2809DOPC   D2B32966  25.997   7.302  11.534  0.0772  0.1964  0.4346
 2809DOPC   C3B32967  26.203   7.101  11.889 -0.0274 -0.0126  0.0957
 2809DOPC   C4B32968  26.143   6.723  12.195 -0.0684 -0.0096 -0.0933
 2810DOPC   NC332969  31.667   2.874  11.763 -0.1108 -0.1106  0.0514
 2810DOPC   PO432970  31.270   2.950  11.751 -0.2952  0.1865  0.1248
 2810DOPC   GL132971  31.187   2.774  12.109 -0.1677 -0.1560 -0.0130
 2810DOPC   GL232972  31.398   2.888  12.225 -0.1881  0.0193 -0.0486
 2810DOPC   C1A32973  30.868   2.942  12.447  0.2534  0.1603 -0.1501
 2810DOPC   D2A32974  30.447   3.073  12.655 -0.1318  0.2665 -0.0625
 2810DOPC   C3A32975  30.485   3.182  13.106  0.0575  0.1109  0.0187
 2810DOPC   C4A32976  30.348   3.202  13.542  0.0400 -0.2286  0.0850
 2810DOPC   C1B32977  31.450   3.036  12.721 -0.0876  0.0085 -0.3179
 2810DOPC   D2B32978  31.411   3.170  13.188 -0.2533 -0.1203  0.2353
 2810DOPC   C3B32979  31.277   2.828  13.450  0.0586 -0.0118  0.0064
 2810DOPC   C4B32980  31.330   2.581  13.865 -0.3346  0.0804 -0.0064
 2811DOPE   NH332981  32.007   8.088  11.080  0.2168 -0.0816 -0.1486
 2811DOPE   PO432982  31.927   7.856  11.333  0.1902 -0.0943  0.1690
 2811DOPE   GL132983  31.930   8.017  11.741  0.0361  0.3457 -0.1701
 2811DOPE   GL232984  32.112   7.963  11.995 -0.1994  0.0167 -0.2430
 2811DOPE   C1A32985  31.523   8.139  11.835  0.0339  0.2750  0.1923
 2811DOPE   D2A32986  31.198   8.263  12.072  0.0543 -0.0979  0.2360
 2811DOPE   C3A32987  31.339   8.573  12.412  0.1380  0.3128 -0.1535
 2811DOPE   C4A32988  31.756   8.550  12.649  0.0575  0.1944  0.2810
 2811DOPE   C1B32989  32.281   7.766  12.363 -0.1682 -0.3090  0.0547
 2811DOPE   D2B32990  32.351   7.681  12.791  0.3168  0.3174 -0.1314
 2811DOPE   C3B32991  32.815   7.827  12.851 -0.2066 -0.0080  0.0790
 2811DOPE   C4B32992  33.107   8.169  12.662 -0.0452  0.2925  0.0286
 2812DOPC   NC332993  31.062   7.801  11.267  0.1400  0.1403  0.2453
 2812DOPC   PO432994  30.717   7.877  11.356 -0.1074  0.0192  0.0276
 2812DOPC   GL132995  30.755   7.825  11.783 -0.1032 -0.1425  0.2803
 2812DOPC   GL232996  30.448   7.909  11.886  0.2694 -0.1586 -0.3751
 2812DOPC   C1A32997  30.896   7.734  12.239 -0.1846 -0.0586 -0.2104
 2812DOPC   D2A32998  30.806   8.017  12.570 -0.0473 -0.0245  0.0971
 2812DOPC   C3A32999  30.808   8.422  12.382 -0.1432 -0.2445 -0.3661
 2812DOPC   C4A33000  30.605   8.789  12.228 -0.1439  0.0348 -0.2162
 2812DOPC   C1B33001  30.433   7.834  12.341  0.1759  0.1742 -0.1089
 2812DOPC   D2B33002  30.275   8.062  12.696 -0.0588  0.2791  0.1901
 2812DOPC   C3B33003  30.217   8.487  12.686  0.1525  0.2093 -0.2464
 2812DOPC   C4B33004  29.975   8.899  12.793  0.0469  0.1025  0.1358
 2813DOPC   NC333005  32.534  10.509  10.702 -0.2751  0.2666 -0.0743
 2813DOPC   PO433006  32.154  10.585  10.702  0.2813  0.0734 -0.0206
 2813DOPC   GL133007  32.226  10.394  11.156  0.1582  0.1930 -0.3891
 2813DOPC   GL233008  32.248  10.629  11.368  0.0198  0.0785 -0.0794
 2813DOPC   C1A33009  31.822  10.274  11.314  0.0632 -0.0656  0.3737
 2813DOPC   D2A33010  31.384  10.454  11.463  0.1702  0.2612 -0.2840
 2813DOPC   C3A33011  31.392  10.590  11.901  0.3129  0.2595 -0.0773
 2813DOPC   C4A33012  31.476  10.447  12.377  0.1303  0.0556  0.0903
 2813DOPC   C1B33013  32.048  10.993  11.541  0.0577 -0.3248 -0.0268
 2813DOPC   D2B33014  31.948  11.164  11.964  0.2059  0.0107 -0.0955
 2813DOPC   C3B33015  32.361  11.201  12.268 -0.0046  0.3311 -0.3508
 2813DOPC   C4B33016  32.802  11.313  12.240  0.0331 -0.2020 -0.1216
 2814DOPS   CNO33017  31.224  13.961  10.077 -0.1617 -0.0238 -0.2891
 2814DOPS   PO433018  31.136  13.851   9.708  0.0854 -0.0848 -0.4062
 2814DOPS   GL133019  30.827  13.726  10.011 -0.0965 -0.0089  0.1059
 2814DOPS   GL233020  30.746  13.835  10.282 -0.0437 -0.1038 -0.1035
 2814DOPS   C1A33021  30.964  13.455  10.478 -0.0249 -0.0618 -0.0871
 2814DOPS   D2A33022  30.748  13.351  10.904  0.0248  0.1146  0.4753
 2814DOPS   C3A33023  30.679  13.182  11.326 -0.1459 -0.1938  0.1523
 2814DOPS   C4A33024  30.939  13.118  11.694 -0.4384  0.0610  0.2111
 2814DOPS   C1B33025  30.890  13.972  10.704  0.3022 -0.0412 -0.0442
 2814DOPS   D2B33026  31.044  14.313  11.028 -0.1445 -0.1322 -0.0920
 2814DOPS   C3B33027  30.786  14.283  11.415  0.2794  0.4470 -0.1464
 2814DOPS   C4B33028  30.968  14.456  11.812  0.0732  0.1215 -0.0881
 2815POSM   NC333029  32.734   4.492  11.825 -0.0120  0.0570 -0.2182
 2815POSM   PO433030  32.817   4.276  12.127  0.0418 -0.2031  0.0483
 2815POSM   AM133031  32.656   4.275  12.389  0.2053 -0.0183  0.1046
 2815POSM   AM233032  32.669   4.413  12.595 -0.2459 -0.1278 -0.4297
 2815POSM   T1A33033  32.222   4.150  12.604 -0.3550  0.2528  0.0444
 2815POSM   C2A33034  31.982   4.077  13.033  0.2529 -0.0315  0.1104
 2815POSM   C3A33035  31.984   3.814  13.434 -0.1163 -0.1310  0.3325
 2815POSM   C1B33036  32.500   4.595  12.806 -0.1397  0.1213 -0.1407
 2815POSM   D2B33037  32.418   4.664  13.209  0.1877 -0.0829  0.2750
 2815POSM   C3B33038  32.340   4.704  13.677  0.3314  0.1247 -0.0821
 2815POSM   C4B33039  32.193   4.675  14.126  0.0208  0.1404 -0.0377
 2816DOPS   CNO33040  29.928   8.503  10.854 -0.0319  0.0455 -0.0903
 2816DOPS   PO433041  29.887   8.320  11.207 -0.4647 -0.0126  0.3774
 2816DOPS   GL133042  29.872   8.392  11.542  0.1086  0.0470 -0.2245
 2816DOPS   GL233043  30.116   8.358  11.714  0.1661 -0.1009 -0.1489
 2816DOPS   C1A33044  29.651   8.720  11.837  0.1184  0.0292  0.1835
 2816DOPS   D2A33045  29.569   8.940  12.243  0.0680  0.2753 -0.2083
 2816DOPS   C3A33046  29.913   9.251  12.326  0.0418  0.3179 -0.1081
 2816DOPS   C4A33047  30.339   9.399  12.177 -0.1177  0.3889  0.1049
 2816DOPS   C1B33048  30.221   8.817  11.837  0.1115  0.1615 -0.2573
 2816DOPS   D2B33049  30.138   9.238  11.784  0.0782  0.1719 -0.0308
 2816DOPS   C3B33050  29.704   9.330  11.884  0.2012 -0.0688  0.1474
 2816DOPS   C4B33051  29.405   9.496  12.247 -0.1061 -0.0577 -0.3760
 2817POSM   NC333052  25.282   7.803  10.239 -0.3681 -0.0652  0.1390
 2817POSM   PO433053  25.581   7.586  10.108 -0.1992  0.0910  0.0234
 2817POSM   AM133054  25.534   7.457  10.383  0.4503 -0.1350  0.0771
 2817POSM   AM233055  25.413   7.509  10.634  0.2778 -0.0419  0.1172
 2817POSM   T1A33056  25.639   7.109  10.727  0.2141 -0.0836 -0.0321
 2817POSM   C2A33057  25.682   6.733  11.033 -0.0922 -0.1324  0.0318
 2817POSM   C3A33058  25.340   6.515  11.257  0.1014 -0.1431  0.0404
 2817POSM   C1B33059  25.548   7.636  10.893  0.0939  0.3349  0.1971
 2817POSM   D2B33060  25.369   7.821  11.270 -0.1941 -0.1448  0.1798
 2817POSM   C3B33061  25.384   7.598  11.657  0.1836 -0.1460  0.0811
 2817POSM   C4B33062  25.406   7.478  12.119  0.0261 -0.0832 -0.0326
 2818DOPC   NC333063  25.373  10.116   9.656  0.1959 -0.1012 -0.1841
 2818DOPC   PO433064  25.450  10.001  10.059  0.2282 -0.2321  0.0949
 2818DOPC   GL133065  25.517  10.234  10.387  0.0085  0.0847 -0.0364
 2818DOPC   GL233066  25.764  10.379  10.484  0.0617 -0.0840 -0.0164
 2818DOPC   C1A33067  25.620   9.978  10.732  0.1649  0.0371 -0.1147
 2818DOPC   D2A33068  25.679  10.168  11.127  0.2767 -0.0715 -0.3323
 2818DOPC   C3A33069  25.430  10.526  11.355 -0.0220  0.0376 -0.1860
 2818DOPC   C4A33070  25.345  10.867  11.549 -0.1056  0.0295  0.0849
 2818DOPC   C1B33071  25.536  10.578  10.835 -0.1974 -0.2164  0.1303
 2818DOPC   D2B33072  25.170  10.879  11.014  0.1643 -0.1609 -0.1229
 2818DOPC   C3B33073  24.902  10.767  11.380  0.1177 -0.0075 -0.1745
 2818DOPC   C4B33074  25.067  10.513  11.769  0.0957 -0.2679  0.0810
 2819DOPC   NC333075  32.234   6.798  11.769 -0.1052  0.3608  0.0968
 2819DOPC   PO433076  32.106   6.437  11.715 -0.1036  0.1918 -0.0029
 2819DOPC   GL133077  31.959   6.453  12.004 -0.2361  0.0981  0.1100
 2819DOPC   GL233078  31.941   6.244  12.218  0.2355 -0.2452 -0.1141
 2819DOPC   C1A33079  32.050   6.723  12.401 -0.2120  0.3605 -0.1653
 2819DOPC   D2A33080  32.244   6.824  12.802  0.1368  0.0610  0.2343
 2819DOPC   C3A33081  32.187   7.228  12.961 -0.3672  0.0578 -0.3294
 2819DOPC   C4A33082  31.845   7.373  13.215 -0.1429  0.3319  0.1030
 2819DOPC   C1B33083  31.708   5.963  12.600 -0.3129 -0.0390 -0.2325
 2819DOPC   D2B33084  31.814   5.711  12.977 -0.0100 -0.0542 -0.1267
 2819DOPC   C3B33085  31.520   5.382  13.249 -0.1361 -0.2770 -0.1860
 2819DOPC   C4B33086  31.218   5.198  13.501 -0.0280 -0.3311  0.3609
 2820DOPC   NC333087  25.621   1.900  10.037 -0.0489 -0.2490 -0.0299
 2820DOPC   PO433088  25.621   1.516   9.945  0.0802 -0.1098 -0.1747
 2820DOPC   GL133089  25.677   1.407  10.300  0.3180 -0.0848  0.0315
 2820DOPC   GL233090  25.382   1.319  10.413  0.2359  0.0222 -0.0176
 2820DOPC   C1A33091  25.808   1.304  10.688 -0.2325  0.0087  0.0948
 2820DOPC   D2A33092  25.659   1.331  11.099 -0.1791  0.0592  0.0356
 2820DOPC   C3A33093  25.292   1.093  11.311 -0.1090  0.0077  0.0589
 2820DOPC   C4A33094  25.040   0.766  11.479 -0.1759 -0.0432  0.0037
 2820DOPC   C1B33095  25.252   1.121  10.798 -0.1457  0.1168 -0.0872
 2820DOPC   D2B33096  25.218   0.721  11.045  0.0840  0.0205 -0.2723
 2820DOPC   C3B33097  25.540   0.708  11.356 -0.1796  0.2484 -0.0573
 2820DOPC   C4B33098  25.937   0.970  11.520  0.0413 -0.0210 -0.0057
 2821POSM   NC333099  32.279  11.543   9.721  0.0016 -0.0528  0.5036
 2821POSM   PO433100  32.204  11.911   9.827 -0.1654 -0.2019  0.0794
 2821POSM   AM133101  32.113  12.089  10.139  0.0846 -0.1661  0.3715
 2821POSM   AM233102  31.917  12.258  10.253 -0.0900  0.0805  0.0623
 2821POSM   T1A33103  32.008  12.008  10.672  0.0153  0.3049  0.1792
 2821POSM   C2A33104  31.950  11.895  11.151 -0.1815  0.0556  0.1806
 2821POSM   C3A33105  32.013  11.870  11.608  0.0144 -0.0745  0.0462
 2821POSM   C1B33106  31.710  12.368  10.537 -0.2014  0.2648 -0.1867
 2821POSM   D2B33107  31.576  12.762  10.793 -0.2116 -0.1187 -0.0614
 2821POSM   C3B33108  31.652  13.024  11.174 -0.0105  0.0538 -0.0432
 2821POSM   C4B33109  31.876  13.465  11.168  0.2862  0.1766 -0.0413
 2822POSM   NC333110  27.286   3.791   9.616  0.1606  0.0672 -0.2711
 2822POSM   PO433111  27.213   3.873  10.003  0.1532 -0.0670  0.0248
 2822POSM   AM133112  27.100   3.841  10.331  0.2664  0.3685  0.1396
 2822POSM   AM233113  26.908   3.808  10.516  0.2591 -0.0484  0.1906
 2822POSM   T1A33114  27.341   3.913  10.762 -0.0493  0.1861 -0.0645
 2822POSM   C2A33115  27.540   4.069  11.162  0.0447 -0.1422  0.5466
 2822POSM   C3A33116  27.588   4.409  11.434 -0.3381 -0.0417  0.1880
 2822POSM   C1B33117  27.007   3.548  10.703 -0.0174  0.0482 -0.1523
 2822POSM   D2B33118  26.796   3.252  10.976 -0.0335  0.2315 -0.0113
 2822POSM   C3B33119  26.485   3.395  11.252 -0.0406 -0.0256 -0.1804
 2822POSM   C4B33120  26.336   3.217  11.676  0.0540 -0.0600 -0.0458
 2823DOPE   NH333121  30.547   3.831  11.412  0.2820  0.0401  0.0251
 2823DOPE   PO433122  30.319   4.034  11.405 -0.2173 -0.0105 -0.0152
 2823DOPE   GL133123  30.022   4.048  11.593  0.0537  0.1169 -0.1480
 2823DOPE   GL233124  29.817   4.223  11.563  0.1467 -0.0019  0.1383
 2823DOPE   C1A33125  29.845   3.987  12.044 -0.1911 -0.0371 -0.0297
 2823DOPE   D2A33126  29.976   4.233  12.435  0.0704  0.0681 -0.2477
 2823DOPE   C3A33127  29.616   4.478  12.628  0.0616  0.0086  0.0058
 2823DOPE   C4A33128  29.184   4.554  12.654  0.0625 -0.0438 -0.1730
 2823DOPE   C1B33129  29.463   4.464  11.833 -0.0915 -0.0804  0.0402
 2823DOPE   D2B33130  29.162   4.519  12.115 -0.2499  0.0661 -0.0307
 2823DOPE   C3B33131  28.979   4.878  12.338  0.2200 -0.0517 -0.1856
 2823DOPE   C4B33132  28.786   4.854  12.772  0.0856  0.1909 -0.0009
 2824DOPS   CNO33133   0.644   4.265  12.112  0.0240 -0.1157 -0.0764
 2824DOPS   PO433134   0.539   4.344  12.452  0.1954 -0.0663 -0.1647
 2824DOPS   GL133135   0.454   4.393  12.848 -0.0495 -0.1467  0.0299
 2824DOPS   GL233136   0.706   4.506  13.045  0.0147  0.1140  0.0334
 2824DOPS   C1A33137   0.444   4.069  13.138 -0.1605  0.1696 -0.1959
 2824DOPS   D2A33138   0.312   3.671  13.374  0.3319  0.2738  0.0298
 2824DOPS   C3A33139   0.513   3.586  13.781 -0.2544 -0.1898 -0.2813
 2824DOPS   C4A33140   0.710   3.680  14.207 -0.0802  0.0174  0.4802
 2824DOPS   C1B33141   1.139   4.441  13.221  0.2354  0.2883 -0.2244
 2824DOPS   D2B33142   1.345   4.158  13.562  0.0446  0.1185  0.2640
 2824DOPS   C3B33143   1.227   3.709  13.527  0.1604  0.0591  0.3489
 2824DOPS   C4B33144   1.363   3.269  13.277  0.1024  0.0639  0.0214
 2825DOPE   NH333145  34.091  13.127  10.444 -0.0253 -0.1528  0.1682
 2825DOPE   PO433146  33.899  13.352  10.325 -0.1783  0.0318 -0.1326
 2825DOPE   GL133147  33.664  13.301  10.647 -0.1404 -0.1515  0.1926
 2825DOPE   GL233148  33.840  13.408  10.856 -0.0898 -0.1501 -0.0289
 2825DOPE   C1A33149  33.259  13.262  10.893  0.4153 -0.1491  0.0637
 2825DOPE   D2A33150  32.927  12.964  11.010 -0.2138 -0.0804 -0.0255
 2825DOPE   C3A33151  32.699  12.781  11.341 -0.0505  0.1621  0.1628
 2825DOPE   C4A33152  32.552  12.443  11.507  0.1490  0.0213 -0.1284
 2825DOPE   C1B33153  33.951  13.504  11.285  0.2786  0.0737  0.0670
 2825DOPE   D2B33154  33.892  13.854  11.589 -0.1083  0.1906  0.0449
 2825DOPE   C3B33155  33.936  14.147  11.993 -0.1370 -0.1041  0.0958
 2825DOPE   C4B33156  34.040  14.380  12.430 -0.0489 -0.1457  0.1152
 2826DOPC   NC333157  25.965   4.824  10.029  0.1419 -0.2686  0.0026
 2826DOPC   PO433158  25.597   4.767   9.892  0.1465  0.1561  0.0941
 2826DOPC   GL133159  25.722   4.606  10.338  0.3957  0.0001  0.1690
 2826DOPC   GL233160  25.490   4.679  10.484  0.1254  0.1941 -0.3116
 2826DOPC   C1A33161  25.976   4.206  10.485 -0.2174 -0.0432  0.1079
 2826DOPC   D2A33162  26.127   3.781  10.566 -0.0642 -0.2815  0.2281
 2826DOPC   C3A33163  26.040   3.687  11.036 -0.1347  0.0671  0.1283
 2826DOPC   C4A33164  26.088   3.622  11.494  0.1926  0.1575 -0.2793
 2826DOPC   C1B33165  25.410   4.746  10.949 -0.0754 -0.0815 -0.0373
 2826DOPC   D2B33166  25.441   4.445  11.290 -0.1495 -0.1356 -0.2309
 2826DOPC   C3B33167  25.191   4.404  11.687  0.0205 -0.0150 -0.1460
 2826DOPC   C4B33168  24.992   4.393  12.089  0.2257  0.0447  0.0008
 2827DOPC   NC333169  29.230   1.832  10.363  0.1623  0.0012  0.0946
 2827DOPC   PO433170  29.049   1.746  10.693 -0.2056 -0.0896 -0.1723
 2827DOPC   GL133171  28.959   1.936  10.974 -0.0761  0.2025  0.3912
 2827DOPC   GL233172  29.202   2.194  10.990  0.0026  0.0052  0.1441
 2827DOPC   C1A33173  28.813   1.888  11.400 -0.0726 -0.0651  0.0623
 2827DOPC   D2A33174  28.681   1.900  11.825 -0.0197 -0.0927 -0.0232
 2827DOPC   C3A33175  28.289   1.595  11.850 -0.2013 -0.2570 -0.2283
 2827DOPC   C4A33176  28.041   1.305  11.575 -0.1816 -0.0098 -0.0944
 2827DOPC   C1B33177  29.081   2.656  10.964  0.1317  0.1848 -0.2147
 2827DOPC   D2B33178  29.088   3.044  10.790 -0.3502 -0.0480 -0.1470
 2827DOPC   C3B33179  28.780   3.263  11.018  0.1479  0.1929 -0.1675
 2827DOPC   C4B33180  28.381   3.166  10.930 -0.1520  0.0451  0.0952
 2828POSM   NC333181  32.497   5.615  12.203  0.1848 -0.1194  0.1056
 2828POSM   PO433182  32.726   5.956  12.082 -0.1860 -0.1756  0.2491
 2828POSM   AM133183  32.553   6.048  12.319  0.1072 -0.0402 -0.3664
 2828POSM   AM233184  32.329   6.010  12.469 -0.1610  0.0221 -0.0550
 2828POSM   T1A33185  32.507   6.386  12.651 -0.0781  0.1880 -0.0541
 2828POSM   C2A33186  32.727   6.491  13.054 -0.1401  0.5980 -0.2017
 2828POSM   C3A33187  32.945   6.706  13.430  0.0046 -0.0038  0.2291
 2828POSM   C1B33188  32.313   5.926  12.853 -0.1417 -0.2288  0.1453
 2828POSM   D2B33189  32.161   5.850  13.282  0.0308  0.1617  0.3549
 2828POSM   C3B33190  32.109   5.994  13.675 -0.0060  0.1238  0.2071
 2828POSM   C4B33191  32.434   6.395  13.717  0.1306 -0.3882  0.0336
 2829POSM   NC333192  25.149  12.614   9.887  0.1981 -0.1220 -0.0659
 2829POSM   PO433193  25.374  12.290   9.973  0.2943  0.2292 -0.1392
 2829POSM   AM133194  25.553  12.420  10.230 -0.1366 -0.1602 -0.2276
 2829POSM   AM233195  25.797  12.428  10.347  0.0363 -0.2202  0.1416
 2829POSM   T1A33196  25.512  12.611  10.707 -0.1420 -0.0026 -0.3443
 2829POSM   C2A33197  25.178  12.818  10.987 -0.1680  0.0870  0.1366
 2829POSM   C3A33198  25.064  12.909  11.464 -0.0487 -0.0723  0.0125
 2829POSM   C1B33199  25.839  12.224  10.559  0.1976 -0.2565 -0.0192
 2829POSM   D2B33200  26.130  11.995  10.826  0.1825 -0.4420  0.1480
 2829POSM   C3B33201  25.874  11.675  11.057 -0.0536  0.0732 -0.3871
 2829POSM   C4B33202  25.526  11.874  11.343 -0.1133  0.3369 -0.1884
 2830DOPS   CNO33203  30.178   3.553  10.702 -0.4961  0.1039 -0.0558
 2830DOPS   PO433204  30.276   3.730  10.997 -0.0083  0.1501  0.1518
 2830DOPS   GL133205  30.074   3.677  11.317 -0.0086 -0.0641  0.2815
 2830DOPS   GL233206  30.032   3.419  11.338 -0.3111 -0.1254 -0.2084
 2830DOPS   C1A33207  29.703   3.667  11.608  0.0531 -0.0309 -0.0997
 2830DOPS   D2A33208  29.419   3.423  11.841  0.0222 -0.0790  0.3367
 2830DOPS   C3A33209  29.555   3.567  12.179  0.1034  0.0443 -0.0993
 2830DOPS   C4A33210  29.642   3.658  12.596 -0.3137  0.4286  0.3141
 2830DOPS   C1B33211  29.835   3.176  11.710  0.0220 -0.2630 -0.2126
 2830DOPS   D2B33212  29.701   3.020  12.089 -0.0357 -0.2602 -0.3681
 2830DOPS   C3B33213  29.320   3.104  12.279 -0.1018  0.0975  0.1617
 2830DOPS   C4B33214  29.137   3.395  12.572 -0.2371 -0.0668 -0.1825
 2831POSM   NC333215  25.998   3.009   9.822  0.0064 -0.0894  0.0437
 2831POSM   PO433216  26.332   2.822   9.918  0.0813 -0.3890 -0.0828
 2831POSM   AM133217  26.344   2.949  10.210 -0.1349 -0.1041  0.0464
 2831POSM   AM233218  26.247   2.945  10.432  0.1244  0.0914  0.3280
 2831POSM   T1A33219  26.526   3.333  10.580  0.0913 -0.1283  0.0332
 2831POSM   C2A33220  26.568   3.710  10.870  0.0147  0.0237  0.1237
 2831POSM   C3A33221  26.844   4.070  10.915 -0.1762 -0.0624  0.2851
 2831POSM   C1B33222  26.074   2.740  10.630 -0.0387  0.1144 -0.1495
 2831POSM   D2B33223  26.092   2.536  11.060  0.1956  0.2547  0.3112
 2831POSM   C3B33224  26.078   2.126  10.945 -0.0286  0.1328  0.0633
 2831POSM   C4B33225  25.704   1.806  11.012  0.2209 -0.1011  0.1239
 2832DOPE   NH333226  28.690   8.998  10.345  0.1182  0.3148 -0.2457
 2832DOPE   PO433227  28.598   9.269  10.472 -0.2332  0.1015 -0.2546
 2832DOPE   GL133228  28.348   9.395  10.733  0.3002  0.1654 -0.4139
 2832DOPE   GL233229  28.118   9.387  10.598  0.1313 -0.0870 -0.1107
 2832DOPE   C1A33230  28.173   9.818  10.810 -0.0567  0.2440 -0.1740
 2832DOPE   D2A33231  28.288  10.218  11.064  0.1615  0.1131 -0.2378
 2832DOPE   C3A33232  28.167  10.333  11.489 -0.2958  0.1247 -0.1470
 2832DOPE   C4A33233  27.928  10.173  11.844  0.1035  0.1632 -0.0323
 2832DOPE   C1B33234  27.965   9.397  11.027  0.0705  0.1294 -0.2675
 2832DOPE   D2B33235  27.851   9.419  11.505 -0.0846  0.1294  0.0011
 2832DOPE   C3B33236  27.625   9.768  11.750  0.1766  0.2632  0.2314
 2832DOPE   C4B33237  27.442  10.074  12.029  0.1881 -0.3734  0.1843
 2833DOPE   NH333238  24.051   2.041   9.843  0.0433 -0.0279 -0.3481
 2833DOPE   PO433239  23.980   2.369   9.958  0.0792 -0.0696  0.0482
 2833DOPE   GL133240  24.082   2.331  10.312  0.0502  0.1879  0.1523
 2833DOPE   GL233241  24.295   2.106  10.333 -0.1488 -0.1293 -0.1391
 2833DOPE   C1A33242  24.157   2.698  10.633 -0.2106  0.1201 -0.1357
 2833DOPE   D2A33243  24.229   2.757  11.076 -0.1091 -0.1031 -0.3763
 2833DOPE   C3A33244  24.136   2.595  11.499 -0.3291 -0.2079 -0.1006
 2833DOPE   C4A33245  23.869   2.332  11.685 -0.1094  0.0425 -0.1345
 2833DOPE   C1B33246  24.191   2.179  10.759 -0.2931  0.3053  0.1018
 2833DOPE   D2B33247  24.059   2.106  11.246  0.3421 -0.0278  0.0358
 2833DOPE   C3B33248  24.132   1.806  11.527 -0.0501 -0.1226  0.1356
 2833DOPE   C4B33249  24.145   1.363  11.596  0.0396 -0.0516  0.1768
 2834DOPE   NH333250  24.147   1.267  10.346 -0.1037  0.1521 -0.1929
 2834DOPE   PO433251  24.043   0.950  10.318  0.1829  0.1203 -0.1085
 2834DOPE   GL133252  23.838   1.071  10.684 -0.4329  0.2984  0.2155
 2834DOPE   GL233253  24.026   1.200  10.883  0.1391  0.1289 -0.0018
 2834DOPE   C1A33254  23.504   1.007  11.014  0.0376  0.1805  0.1196
 2834DOPE   D2A33255  23.278   0.770  11.316  0.1656  0.2891  0.1172
 2834DOPE   C3A33256  22.878   0.973  11.259 -0.1100  0.1128  0.0205
 2834DOPE   C4A33257  22.676   1.374  11.240 -0.1029 -0.0595 -0.0446
 2834DOPE   C1B33258  24.235   1.013  11.221 -0.1568  0.2254 -0.1872
 2834DOPE   D2B33259  24.486   0.897  11.638 -0.2372 -0.0279  0.0965
 2834DOPE   C3B33260  24.420   1.183  11.951 -0.0510  0.0019  0.1445
 2834DOPE   C4B33261  24.278   1.654  12.019 -0.0736  0.0558  0.2944
 2835DOPS   CNO33262  28.184   1.769  10.214  0.1315 -0.0464  0.2099
 2835DOPS   PO433263  28.274   2.000  10.494 -0.0474 -0.0187 -0.2208
 2835DOPS   GL133264  28.132   1.956  10.845 -0.0074  0.2930  0.3038
 2835DOPS   GL233265  28.405   2.125  10.956  0.0040 -0.1173 -0.2708
 2835DOPS   C1A33266  28.273   1.836  11.306 -0.0189  0.0360 -0.2003
 2835DOPS   D2A33267  28.200   2.058  11.662  0.1365  0.0129 -0.1188
 2835DOPS   C3A33268  28.259   2.512  11.575 -0.1482 -0.1819  0.0032
 2835DOPS   C4A33269  28.040   2.896  11.494 -0.0237 -0.1870 -0.0864
 2835DOPS   C1B33270  28.662   2.347  11.285 -0.1013 -0.0290  0.0415
 2835DOPS   D2B33271  28.764   2.361  11.723  0.2454  0.0131  0.1430
 2835DOPS   C3B33272  28.423   2.371  12.095 -0.3894  0.0770  0.0135
 2835DOPS   C4B33273  28.244   2.472  12.472 -0.0698 -0.1456  0.1383
 2836POSM   NC333274  29.809   2.059  11.160 -0.0029  0.0615 -0.0733
 2836POSM   PO433275  30.172   2.209  11.157 -0.1666  0.0203 -0.0386
 2836POSM   AM133276  30.098   2.322  11.423  0.0231 -0.0872 -0.0746
 2836POSM   AM233277  29.916   2.349  11.594 -0.2325 -0.3429  0.1950
 2836POSM   T1A33278  30.165   2.534  11.918  0.0086  0.2815  0.0969
 2836POSM   C2A33279  30.015   2.496  12.298 -0.2188  0.0764 -0.2068
 2836POSM   C3A33280  29.697   2.675  12.616 -0.2628 -0.2445  0.0088
 2836POSM   C1B33281  29.609   2.441  11.699  0.2710 -0.1683  0.2067
 2836POSM   D2B33282  29.450   2.611  12.118 -0.1312  0.4933  0.1082
 2836POSM   C3B33283  29.350   2.347  12.490  0.1965  0.1614 -0.0932
 2836POSM   C4B33284  29.206   2.089  12.785 -0.0400 -0.0908 -0.3566
 2837POSM   NC333285  33.632   5.766  11.875 -0.1761  0.1368 -0.0604
 2837POSM   PO433286  33.886   5.718  12.164  0.2186 -0.0468  0.1908
 2837POSM   AM133287  33.772   5.930  12.389 -0.1715 -0.0712  0.3384
 2837POSM   AM233288  33.610   6.140  12.439 -0.1112  0.1429  0.3004
 2837POSM   T1A33289  33.863   5.932  12.874  0.1965 -0.1549  0.0737
 2837POSM   C2A33290  33.899   6.331  13.186  0.2919 -0.2801  0.1598
 2837POSM   C3A33291  33.907   6.614  13.518  0.0225 -0.2962  0.2683
 2837POSM   C1B33292  33.462   6.175  12.796 -0.0051 -0.0794  0.1418
 2837POSM   D2B33293  33.266   6.371  13.170 -0.3370 -0.0565  0.1398
 2837POSM   C3B33294  33.339   6.124  13.591 -0.0514  0.1178  0.1734
 2837POSM   C4B33295  33.628   5.791  13.678 -0.0954  0.3541 -0.2991
 2838DOPE   NH333296  32.819   2.848  12.061  0.1964  0.2093 -0.0352
 2838DOPE   PO433297  32.634   3.089  11.948 -0.2704  0.0003  0.0840
 2838DOPE   GL133298  32.588   3.269  12.265 -0.0750 -0.2090 -0.0949
 2838DOPE   GL233299  32.278   3.397  12.245  0.2051  0.0993 -0.2135
 2838DOPE   C1A33300  32.314   3.156  12.659 -0.4133  0.5481  0.0345
 2838DOPE   D2A33301  32.293   3.365  13.041  0.4023  0.1709 -0.1294
 2838DOPE   C3A33302  32.424   3.524  13.510  0.1350  0.2515 -0.2280
 2838DOPE   C4A33303  32.203   3.718  13.846  0.0355 -0.1924 -0.1105
 2838DOPE   C1B33304  32.140   3.608  12.620  0.5268  0.0111  0.4310
 2838DOPE   D2B33305  32.387   3.825  12.930 -0.0200  0.3190 -0.0393
 2838DOPE   C3B33306  32.496   4.077  13.250  0.2477  0.1043  0.0219
 2838DOPE   C4B33307  32.285   4.244  13.567  0.0818 -0.0331 -0.0345
 2839DOPS   CNO33308  23.714  10.926   9.094 -0.0807 -0.1929 -0.1337
 2839DOPS   PO433309  23.546  10.914   9.459 -0.1152 -0.0555 -0.1886
 2839DOPS   GL133310  23.552  11.157   9.906  0.0209 -0.2124 -0.1466
 2839DOPS   GL233311  23.715  10.847   9.904 -0.0999  0.0812  0.3037
 2839DOPS   C1A33312  23.135  11.351   9.862 -0.0411  0.0826  0.1849
 2839DOPS   D2A33313  22.831  11.369  10.237 -0.2152 -0.1518  0.0495
 2839DOPS   C3A33314  22.834  11.590  10.609 -0.0410 -0.0142  0.4704
 2839DOPS   C4A33315  22.510  11.888  10.861 -0.1388  0.1371 -0.1698
 2839DOPS   C1B33316  23.814  11.084  10.238  0.2351 -0.3059  0.1637
 2839DOPS   D2B33317  23.685  11.179  10.656  0.1856 -0.0567  0.0961
 2839DOPS   C3B33318  23.358  10.949  10.964  0.1115 -0.5546 -0.1268
 2839DOPS   C4B33319  23.068  10.906  11.369 -0.2187  0.0899 -0.1061
 2840DOPE   NH333320  28.326   8.709  10.563  0.1188 -0.0020  0.3042
 2840DOPE   PO433321  28.592   8.526  10.571 -0.0849  0.0754 -0.2101
 2840DOPE   GL133322  28.614   8.828  10.916  0.3447 -0.0003  0.1188
 2840DOPE   GL233323  28.622   9.095  10.980 -0.3196  0.0404  0.2163
 2840DOPE   C1A33324  28.441   8.761  11.318  0.2164  0.1803  0.2241
 2840DOPE   D2A33325  28.123   9.017  11.480  0.0802  0.2130  0.0944
 2840DOPE   C3A33326  28.078   9.200  11.932 -0.3921 -0.3026  0.0984
 2840DOPE   C4A33327  27.930   9.604  12.102 -0.1520 -0.0895 -0.0281
 2840DOPE   C1B33328  28.413   9.404  11.315  0.1939 -0.1066 -0.1122
 2840DOPE   D2B33329  28.197   9.825  11.468  0.0902 -0.0423 -0.0565
 2840DOPE   C3B33330  28.411   9.978  11.875  0.1527 -0.2367 -0.4818
 2840DOPE   C4B33331  28.716  10.235  12.072  0.0245  0.0961  0.3212
 2841POSM   NC333332  24.324   3.147  10.367  0.0290 -0.0523 -0.3380
 2841POSM   PO433333  24.059   3.346  10.205  0.0690  0.0237  0.3316
 2841POSM   AM133334  23.903   3.281  10.475 -0.0474  0.0338 -0.0000
 2841POSM   AM233335  23.904   3.084  10.683 -0.3689  0.1932 -0.1621
 2841POSM   T1A33336  23.766   3.474  10.944  0.0326  0.1781 -0.1268
 2841POSM   C2A33337  23.988   3.681  11.309  0.2972  0.0892 -0.1397
 2841POSM   C3A33338  23.981   4.106  11.369  0.2837  0.0242  0.0539
 2841POSM   C1B33339  23.747   2.942  10.987  0.0315  0.1648  0.0905
 2841POSM   D2B33340  23.648   2.676  11.361  0.2086 -0.2356 -0.0324
 2841POSM   C3B33341  23.714   2.780  11.768  0.2638 -0.4395 -0.3162
 2841POSM   C4B33342  23.471   2.594  12.127  0.2128  0.0002  0.1655
 2842POSM   NC333343  24.022   9.589   9.394 -0.0359  0.1022 -0.1214
 2842POSM   PO433344  23.722   9.341   9.385  0.2963  0.2317 -0.0256
 2842POSM   AM133345  23.762   9.338   9.721 -0.1340  0.3901  0.1520
 2842POSM   AM233346  23.898   9.470   9.922 -0.1259  0.0809 -0.2138
 2842POSM   T1A33347  23.562   9.250  10.189  0.0773 -0.0337 -0.0418
 2842POSM   C2A33348  23.775   9.272  10.636  0.0995 -0.2598  0.3107
 2842POSM   C3A33349  24.121   9.073  10.793 -0.1408 -0.0739  0.0700
 2842POSM   C1B33350  23.990   9.519  10.233  0.2209  0.1064 -0.2745
 2842POSM   D2B33351  24.135   9.565  10.740 -0.2039 -0.2969  0.1756
 2842POSM   C3B33352  24.376   9.429  11.157  0.2467  0.1277 -0.1916
 2842POSM   C4B33353  24.608   9.245  11.560 -0.3507  0.3031 -0.1221
 2843DOPC   NC333354  28.283   8.398  10.935 -0.2554 -0.0451 -0.1778
 2843DOPC   PO433355  27.929   8.459  10.782 -0.1959 -0.0614 -0.0329
 2843DOPC   GL133356  27.764   8.438  11.139 -0.4552  0.0304  0.2705
 2843DOPC   GL233357  27.873   8.448  11.453  0.1638  0.1881  0.1355
 2843DOPC   C1A33358  27.578   8.048  11.369 -0.3194  0.1892  0.1617
 2843DOPC   D2A33359  27.399   8.029  11.819  0.3697  0.1330 -0.0363
 2843DOPC   C3A33360  27.190   8.175  12.151 -0.2228 -0.0853  0.0242
 2843DOPC   C4A33361  27.122   8.204  12.631 -0.1542 -0.1443  0.2317
 2843DOPC   C1B33362  27.978   8.053  11.751 -0.0921 -0.1007 -0.0343
 2843DOPC   D2B33363  27.985   8.130  12.182 -0.2140 -0.0859 -0.1501
 2843DOPC   C3B33364  28.489   8.061  12.193 -0.2686 -0.1032 -0.1852
 2843DOPC   C4B33365  28.834   8.315  12.147 -0.0126  0.0693  0.0006
 2844POSM   NC333366  23.024   5.985  10.609 -0.3585 -0.3506 -0.0850
 2844POSM   PO433367  22.948   6.239  10.257  0.1184  0.0177  0.0020
 2844POSM   AM133368  23.269   6.276  10.355  0.0879 -0.3013 -0.0523
 2844POSM   AM233369  23.498   6.443  10.385  0.2478 -0.3150 -0.0613
 2844POSM   T1A33370  23.458   6.209  10.839  0.0567 -0.1954  0.0399
 2844POSM   C2A33371  23.485   6.135  11.318 -0.2136  0.0734  0.2651
 2844POSM   C3A33372  23.521   6.402  11.678  0.4392  0.2140  0.1092
 2844POSM   C1B33373  23.565   6.683  10.661  0.0295  0.1468 -0.1704
 2844POSM   D2B33374  23.658   6.946  11.061 -0.3172  0.1135  0.2747
 2844POSM   C3B33375  23.778   6.797  11.495  0.0913  0.1529 -0.0494
 2844POSM   C4B33376  23.759   6.760  11.974  0.0442 -0.4017  0.1906
 2845DOPE   NH333377  30.325   1.832  11.450 -0.1836  0.0025  0.1035
 2845DOPE   PO433378  30.003   1.834  11.548  0.1328 -0.0005  0.0526
 2845DOPE   GL133379  29.729   1.987  11.758 -0.1135 -0.1642 -0.0479
 2845DOPE   GL233380  29.893   1.977  11.998 -0.0609  0.1215  0.0935
 2845DOPE   C1A33381  29.431   2.154  12.055 -0.0481  0.2321 -0.1230
 2845DOPE   D2A33382  28.984   2.184  12.160  0.0894  0.1130  0.0341
 2845DOPE   C3A33383  28.812   2.310  12.549  0.1557 -0.2952 -0.0767
 2845DOPE   C4A33384  28.859   2.501  12.927 -0.5425 -0.0226 -0.0441
 2845DOPE   C1B33385  29.775   2.091  12.444  0.1891 -0.0163  0.2698
 2845DOPE   D2B33386  29.792   2.256  12.886  0.5186 -0.2759  0.3819
 2845DOPE   C3B33387  29.766   2.116  13.338  0.0742 -0.0493 -0.0752
 2845DOPE   C4B33388  29.425   1.971  13.663 -0.0613 -0.1535  0.0669
 2846DOPS   CNO33389  26.055   5.947   9.863 -0.2972 -0.0720  0.0526
 2846DOPS   PO433390  25.963   5.765  10.224  0.2529 -0.3253  0.3274
 2846DOPS   GL133391  26.135   5.767  10.510  0.2019 -0.0893 -0.1390
 2846DOPS   GL233392  26.013   5.792  10.719 -0.0781  0.0269  0.1720
 2846DOPS   C1A33393  26.471   5.481  10.617 -0.0098 -0.0174 -0.0785
 2846DOPS   D2A33394  26.635   5.174  10.902 -0.1479 -0.1819  0.1848
 2846DOPS   C3A33395  26.333   4.874  11.065  0.0567 -0.2501  0.0183
 2846DOPS   C4A33396  26.475   4.517  11.357  0.0066  0.1605  0.0242
 2846DOPS   C1B33397  26.171   5.902  11.144  0.1978 -0.5758 -0.2188
 2846DOPS   D2B33398  26.167   6.200  11.486 -0.2361 -0.1201  0.2107
 2846DOPS   C3B33399  26.447   6.253  11.821  0.0255 -0.0102 -0.0279
 2846DOPS   C4B33400  26.617   6.467  12.187 -0.0780  0.1516  0.0988
 2847DOPC   NC333401  24.996   9.848   9.923  0.2445 -0.3319 -0.0879
 2847DOPC   PO433402  25.117   9.508   9.770  0.0528  0.1846 -0.3042
 2847DOPC   GL133403  25.156   9.411  10.111  0.0443  0.0739  0.1045
 2847DOPC   GL233404  25.410   9.498  10.168  0.1356  0.1211 -0.2620
 2847DOPC   C1A33405  25.039   9.145  10.433 -0.3040  0.1419 -0.2659
 2847DOPC   D2A33406  25.231   8.950  10.813  0.2872 -0.2510 -0.1455
 2847DOPC   C3A33407  25.559   9.227  11.064  0.1083 -0.0959 -0.2066
 2847DOPC   C4A33408  25.881   9.118  11.336  0.2676  0.4260  0.0598
 2847DOPC   C1B33409  25.345   9.475  10.640  0.1031 -0.2007  0.0139
 2847DOPC   D2B33410  25.337   9.671  11.003  0.4572 -0.0860 -0.0020
 2847DOPC   C3B33411  25.320   9.584  11.481 -0.1938  0.1278 -0.1662
 2847DOPC   C4B33412  25.415   9.268  11.748 -0.1634  0.2334 -0.2661
 2848DOPC   NC333413  32.746  10.986  10.133 -0.0445 -0.1429 -0.4779
 2848DOPC   PO433414  32.664  11.217  10.452 -0.1279  0.3590 -0.0252
 2848DOPC   GL133415  32.332  11.184  10.712  0.4422 -0.3203  0.1163
 2848DOPC   GL233416  32.459  10.975  10.842 -0.0474 -0.2129 -0.3813
 2848DOPC   C1A33417  32.015  11.127  11.008  0.3281  0.1510  0.1268
 2848DOPC   D2A33418  31.754  11.273  11.297  0.0733  0.0619 -0.1636
 2848DOPC   C3A33419  31.348  11.529  11.252 -0.4921 -0.0877 -0.1864
 2848DOPC   C4A33420  31.018  11.499  10.965 -0.0031  0.1500  0.0458
 2848DOPC   C1B33421  32.456  11.113  11.239 -0.2134 -0.2418 -0.0637
 2848DOPC   D2B33422  32.294  11.426  11.488 -0.0657 -0.0987  0.3147
 2848DOPC   C3B33423  32.404  11.603  11.974  0.1095 -0.1410  0.3272
 2848DOPC   C4B33424  32.245  11.677  12.362  0.0319 -0.1331  0.0253
 2849DOPC   NC333425  25.676   5.344  10.130  0.0168 -0.1466  0.1426
 2849DOPC   PO433426  26.013   5.282   9.931  0.1165 -0.1331 -0.0790
 2849DOPC   GL133427  25.926   5.088  10.389  0.1425  0.1243  0.1231
 2849DOPC   GL233428  26.024   5.305  10.572 -0.1696 -0.1431 -0.1596
 2849DOPC   C1A33429  25.985   4.754  10.684 -0.2987 -0.0875 -0.0735
 2849DOPC   D2A33430  25.781   4.489  10.836 -0.0215 -0.2896  0.0296
 2849DOPC   C3A33431  26.002   4.561  11.245  0.1579 -0.0189 -0.2556
 2849DOPC   C4A33432  26.163   4.662  11.691 -0.0260 -0.1386 -0.1089
 2849DOPC   C1B33433  26.122   5.320  11.048  0.0355 -0.2784 -0.1750
 2849DOPC   D2B33434  26.358   5.551  11.384  0.3199  0.1339 -0.2011
 2849DOPC   C3B33435  26.311   5.339  11.844  0.1101 -0.2028 -0.3602
 2849DOPC   C4B33436  26.053   5.147  12.154 -0.2572 -0.2230  0.0317
 2850DOPS   CNO33437  30.148   9.285  10.925  0.0845 -0.1080  0.1666
 2850DOPS   PO433438  29.842   9.052  10.904 -0.0799  0.0858  0.0548
 2850DOPS   GL133439  29.771   9.110  11.271 -0.0649 -0.1285 -0.0399
 2850DOPS   GL233440  29.967   9.387  11.363 -0.1146 -0.0344  0.0268
 2850DOPS   C1A33441  29.402   9.265  11.421 -0.2570  0.3256 -0.0989
 2850DOPS   D2A33442  28.937   9.379  11.387 -0.0121 -0.3092 -0.0503
 2850DOPS   C3A33443  28.757   9.013  11.650 -0.1136  0.1787  0.0065
 2850DOPS   C4A33444  28.869   8.758  11.993 -0.3294 -0.2973 -0.0217
 2850DOPS   C1B33445  29.961   9.759  11.697  0.3071  0.3614  0.1813
 2850DOPS   D2B33446  29.917   9.739  12.107 -0.0769  0.0154 -0.1710
 2850DOPS   C3B33447  29.523   9.982  12.071 -0.2194 -0.0925  0.1056
 2850DOPS   C4B33448  29.134   9.908  12.156 -0.2096 -0.1766 -0.0225
 2851POSM   NC333449  24.379   0.600  10.170  0.1217  0.0301 -0.1475
 2851POSM   PO433450  24.535   0.910  10.332 -0.1043 -0.0060 -0.1935
 2851POSM   AM133451  24.427   0.792  10.625  0.1275  0.1828 -0.0914
 2851POSM   AM233452  24.159   0.701  10.723  0.1117 -0.2174  0.1545
 2851POSM   T1A33453  24.537   0.665  11.096 -0.0765  0.2353 -0.1522
 2851POSM   C2A33454  24.815   0.315  11.293  0.0042  0.2009  0.1204
 2851POSM   C3A33455  24.917   0.013  11.625 -0.1408 -0.2895 -0.0217
 2851POSM   C1B33456  24.028   0.675  10.983  0.2589 -0.2762  0.2641
 2851POSM   D2B33457  23.863   0.648  11.450  0.1519 -0.0862  0.0432
 2851POSM   C3B33458  23.549   0.981  11.652  0.1553 -0.0679 -0.0274
 2851POSM   C4B33459  23.216   1.210  11.711 -0.0052  0.2136  0.0589
 2852POSM   NC333460  29.889  10.703   9.614  0.0156  0.2496 -0.3011
 2852POSM   PO433461  30.141  10.967   9.709  0.1545  0.3160 -0.1249
 2852POSM   AM133462  30.183  10.974  10.024  0.0142  0.0285 -0.1964
 2852POSM   AM233463  30.237  11.165  10.248 -0.2300  0.0909 -0.1064
 2852POSM   T1A33464  29.857  10.954  10.404 -0.1724  0.2880  0.2283
 2852POSM   C2A33465  29.667  11.113  10.823 -0.0475 -0.0508 -0.0381
 2852POSM   C3A33466  29.437  10.944  11.198 -0.1727  0.1548 -0.1401
 2852POSM   C1B33467  30.140  11.378  10.539  0.0526  0.2836  0.0169
 2852POSM   D2B33468  30.055  11.501  10.957 -0.3582  0.3949 -0.1692
 2852POSM   C3B33469  29.663  11.449  11.221 -0.0281 -0.1879  0.1315
 2852POSM   C4B33470  29.688  11.228  11.588 -0.1542  0.1500 -0.0722
 2853DOPE   NH333471  22.183   8.536   9.216  0.0820  0.0326  0.1379
 2853DOPE   PO433472  22.274   8.843   9.274 -0.1196  0.1366  0.3222
 2853DOPE   GL133473  22.470   9.006   9.489 -0.3585  0.1012  0.1387
 2853DOPE   GL233474  22.500   9.296   9.400  0.2077 -0.1019 -0.0159
 2853DOPE   C1A33475  22.674   8.974   9.916 -0.0279  0.1693  0.0458
 2853DOPE   D2A33476  23.024   8.855  10.095 -0.2279 -0.1542  0.0033
 2853DOPE   C3A33477  23.380   8.915  10.471 -0.1038  0.0406 -0.0229
 2853DOPE   C4A33478  23.313   9.180  10.816 -0.1679 -0.2296  0.1833
 2853DOPE   C1B33479  22.249   9.238   9.826  0.3356 -0.2531 -0.0620
 2853DOPE   D2B33480  22.167   9.217  10.244 -0.0726 -0.2998  0.0218
 2853DOPE   C3B33481  22.057   9.496  10.551  0.0070  0.2028 -0.0235
 2853DOPE   C4B33482  21.964   9.440  10.988  0.2642 -0.0821 -0.1459
 2854DOPC   NC333483  27.082   2.376  10.605  0.0828 -0.0211 -0.0845
 2854DOPC   PO433484  27.279   2.070  10.535  0.0240  0.3808 -0.1055
 2854DOPC   GL133485  27.263   1.991  10.944 -0.3307  0.1997 -0.2103
 2854DOPC   GL233486  27.022   2.116  11.066 -0.0409  0.0692 -0.1048
 2854DOPC   C1A33487  27.356   2.028  11.411 -0.2306 -0.3064 -0.0611
 2854DOPC   D2A33488  27.373   1.870  11.875  0.2948 -0.1044  0.0693
 2854DOPC   C3A33489  27.438   2.148  12.246 -0.1209  0.2994 -0.3810
 2854DOPC   C4A33490  27.469   1.965  12.708 -0.1049  0.0093 -0.1384
 2854DOPC   C1B33491  26.764   2.315  11.392  0.0088  0.0714 -0.0107
 2854DOPC   D2B33492  26.286   2.371  11.500 -0.2839  0.1229  0.0481
 2854DOPC   C3B33493  26.019   1.970  11.400 -0.0255 -0.1017  0.0509
 2854DOPC   C4B33494  25.618   1.788  11.568  0.1296 -0.0642 -0.0136
 2855POSM   NC333495  33.404   2.844  11.757  0.1765 -0.2560 -0.1267
 2855POSM   PO433496  33.278   2.813  12.125  0.0450  0.2973  0.1342
 2855POSM   AM133497  33.148   2.792  12.420  0.0097 -0.3126  0.4742
 2855POSM   AM233498  32.872   2.855  12.555  0.2993 -0.1449 -0.1069
 2855POSM   T1A33499  33.180   2.566  12.892 -0.1828  0.0071  0.2966
 2855POSM   C2A33500  32.888   2.285  13.122  0.1017 -0.0670 -0.0806
 2855POSM   C3A33501  32.829   1.817  13.001  0.1823 -0.2343 -0.0012
 2855POSM   C1B33502  32.724   2.887  12.855  0.0609  0.2932 -0.0997
 2855POSM   D2B33503  32.546   2.987  13.251  0.2784  0.4503 -0.1301
 2855POSM   C3B33504  32.213   2.972  13.526  0.1268 -0.0559 -0.3396
 2855POSM   C4B33505  32.120   2.623  13.859  0.1718  0.0025 -0.0379
 2856POSM   NC333506  28.596   8.039  10.353 -0.4114  0.2884 -0.0851
 2856POSM   PO433507  28.253   8.036  10.589  0.0127 -0.1154  0.0458
 2856POSM   AM133508  28.055   7.985  10.863 -0.0347 -0.0940  0.2004
 2856POSM   AM233509  28.132   7.946  11.152  0.0231 -0.0322 -0.1410
 2856POSM   T1A33510  27.737   7.647  11.099  0.1749 -0.0140 -0.1696
 2856POSM   C2A33511  27.635   7.589  11.560 -0.1790 -0.1593  0.0216
 2856POSM   C3A33512  27.545   7.611  12.028  0.2393 -0.2540 -0.4483
 2856POSM   C1B33513  28.420   8.016  11.407  0.1982 -0.1523  0.1599
 2856POSM   D2B33514  28.678   7.846  11.712 -0.0162  0.0683  0.0502
 2856POSM   C3B33515  28.615   7.368  11.848 -0.1364 -0.0567 -0.0755
 2856POSM   C4B33516  28.264   7.156  11.878  0.1542 -0.2318  0.0188
 2857DOPC   NC333517  25.482  21.734  12.371 -0.2676 -0.0828 -0.4648
 2857DOPC   PO433518  25.690  22.040  12.509 -0.3002  0.3312  0.0058
 2857DOPC   GL133519  25.414  22.148  12.247 -0.0308 -0.0866 -0.0621
 2857DOPC   GL233520  25.673  22.352  12.098  0.1651 -0.2679 -0.4065
 2857DOPC   C1A33521  25.478  21.928  11.850 -0.0225 -0.0572  0.2075
 2857DOPC   D2A33522  25.860  21.869  11.582  0.0782 -0.1717  0.2913
 2857DOPC   C3A33523  26.154  22.065  11.356 -0.2199 -0.1602  0.1209
 2857DOPC   C4A33524  26.549  22.342  11.238 -0.1824  0.0329  0.1384
 2857DOPC   C1B33525  26.013  22.085  11.993 -0.0046  0.0029 -0.1686
 2857DOPC   D2B33526  26.399  21.849  11.784 -0.1625  0.2435 -0.0457
 2857DOPC   C3B33527  26.470  21.534  11.445  0.1656  0.1229 -0.0425
 2857DOPC   C4B33528  26.518  21.332  10.986 -0.3698  0.0625 -0.3494
 2858DOPC   NC333529  32.016  17.350  13.906 -0.0095  0.2500 -0.2838
 2858DOPC   PO433530  32.158  17.163  13.588  0.5854  0.2100  0.0830
 2858DOPC   GL133531  32.084  17.166  13.179  0.3966  0.1813 -0.0318
 2858DOPC   GL233532  32.297  17.045  13.108 -0.1298  0.4160 -0.0335
 2858DOPC   C1A33533  31.869  17.009  12.827  0.3968 -0.3402  0.1807
 2858DOPC   D2A33534  31.746  16.733  12.507  0.1404 -0.0156  0.0474
 2858DOPC   C3A33535  31.376  17.003  12.466 -0.1437  0.1805 -0.3579
 2858DOPC   C4A33536  31.031  17.216  12.740  0.0181  0.2787 -0.1732
 2858DOPC   C1B33537  32.305  16.798  12.697 -0.0500  0.0921  0.0377
 2858DOPC   D2B33538  32.236  16.727  12.223  0.0134  0.1848 -0.5439
 2858DOPC   C3B33539  31.894  16.478  12.015  0.0619  0.0813 -0.0840
 2858DOPC   C4B33540  31.952  16.200  11.634  0.0037  0.3050 -0.2734
 2859DOPE   NH333541  32.612  22.730  13.795 -0.1312  0.1716 -0.2375
 2859DOPE   PO433542  32.560  22.846  13.479  0.0466  0.1725  0.0517
 2859DOPE   GL133543  32.564  22.959  13.117 -0.0065  0.2996 -0.4578
 2859DOPE   GL233544  32.334  22.956  12.949 -0.1539  0.0812  0.0468
 2859DOPE   C1A33545  32.967  23.175  13.005  0.1918 -0.0957  0.2953
 2859DOPE   D2A33546  33.391  23.034  13.148  0.2707 -0.2716  0.2037
 2859DOPE   C3A33547  33.679  22.672  13.072 -0.0292 -0.1240 -0.1510
 2859DOPE   C4A33548  34.041  22.612  12.795 -0.1282 -0.0428 -0.0224
 2859DOPE   C1B33549  31.997  22.955  12.624  0.0667  0.1251  0.1186
 2859DOPE   D2B33550  31.734  22.683  12.344 -0.1805 -0.1261 -0.0673
 2859DOPE   C3B33551  31.756  22.517  11.945 -0.1811 -0.2332 -0.0371
 2859DOPE   C4B33552  31.901  22.741  11.538  0.5825  0.2314  0.0032
 2860DOPE   NH333553  24.391  22.728  12.503  0.1798 -0.0248  0.2541
 2860DOPE   PO433554  24.297  22.993  12.294  0.3930 -0.1532  0.0254
 2860DOPE   GL133555  24.185  22.819  11.959 -0.4351 -0.1352 -0.0171
 2860DOPE   GL233556  24.225  22.545  12.039  0.0242 -0.0043 -0.0554
 2860DOPE   C1A33557  24.031  22.914  11.533 -0.2598  0.0137 -0.1455
 2860DOPE   D2A33558  23.670  23.156  11.297  0.0005  0.2044  0.1703
 2860DOPE   C3A33559  23.357  22.988  10.936 -0.0810 -0.0302 -0.1362
 2860DOPE   C4A33560  23.192  23.085  10.505 -0.3027 -0.4433 -0.1373
 2860DOPE   C1B33561  23.989  22.451  11.657  0.1997  0.1954  0.1098
 2860DOPE   D2B33562  23.863  22.341  11.251  0.4437 -0.0682 -0.2790
 2860DOPE   C3B33563  23.521  22.530  11.069  0.1675 -0.3927 -0.0346
 2860DOPE   C4B33564  23.346  22.473  10.667 -0.0711 -0.0754  0.1628
 2861DOPC   NC333565  31.618  24.074  14.236  0.1463 -0.1204 -0.0147
 2861DOPC   PO433566  31.706  24.199  13.873 -0.1263  0.0741 -0.0221
 2861DOPC   GL133567  31.818  23.975  13.563 -0.2134  0.2722  0.0971
 2861DOPC   GL233568  31.597  23.867  13.455 -0.0116 -0.2763  0.0824
 2861DOPC   C1A33569  31.965  24.116  13.137 -0.0573  0.3689 -0.0605
 2861DOPC   D2A33570  32.104  24.305  12.706 -0.0629  0.1012 -0.1767
 2861DOPC   C3A33571  31.871  24.483  12.368 -0.3731  0.2156  0.1028
 2861DOPC   C4A33572  31.867  24.900  12.146 -0.3106  0.1502 -0.2188
 2861DOPC   C1B33573  31.506  24.261  13.223  0.0655  0.0537  0.0980
 2861DOPC   D2B33574  31.567  24.406  12.757  0.0262 -0.0964  0.0118
 2861DOPC   C3B33575  31.376  24.410  12.369  0.1659 -0.1623  0.3784
 2861DOPC   C4B33576  31.530  24.593  11.949 -0.0041 -0.0874  0.1856
 2862DOPC   NC333577   0.185  22.720  14.056  0.1734 -0.0368  0.2198
 2862DOPC   PO433578   0.090  23.070  14.283  0.1866  0.0189  0.2721
 2862DOPC   GL133579   0.395  23.148  14.028 -0.4894  0.1160  0.2814
 2862DOPC   GL233580   0.512  23.305  13.865 -0.1478  0.3013  0.1035
 2862DOPC   C1A33581   0.502  22.863  13.690  0.2893  0.1128 -0.0058
 2862DOPC   D2A33582   0.495  22.721  13.265 -0.1936 -0.0724  0.1330
 2862DOPC   C3A33583   0.532  23.067  12.982 -0.1834 -0.1853  0.1212
 2862DOPC   C4A33584   0.321  23.083  12.567  0.3554 -0.1349  0.0806
 2862DOPC   C1B33585   0.176  23.198  13.582 -0.0466 -0.0468  0.1762
 2862DOPC   D2B33586   0.066  23.174  13.166 -0.2302  0.2888 -0.1655
 2862DOPC   C3B33587  -0.132  23.189  12.806  0.1176 -0.0425 -0.2003
 2862DOPC   C4B33588  -0.319  23.433  12.434 -0.0606  0.1747  0.1641
 2863POSM   NC333589  24.536  17.949  13.076  0.0401 -0.1800 -0.0750
 2863POSM   PO433590  24.658  17.650  13.275  0.0382 -0.1373 -0.0745
 2863POSM   AM133591  24.613  17.429  13.002  0.3582 -0.0391 -0.4688
 2863POSM   AM233592  24.780  17.337  12.797 -0.1982 -0.0623 -0.1943
 2863POSM   T1A33593  24.334  17.461  12.585  0.2971 -0.1001  0.0786
 2863POSM   C2A33594  24.341  17.595  12.171  0.1724 -0.0961 -0.2482
 2863POSM   C3A33595  24.008  17.559  11.877  0.3862 -0.0366  0.2808
 2863POSM   C1B33596  24.738  17.075  12.546  0.2974 -0.1864  0.3465
 2863POSM   D2B33597  24.735  16.825  12.189  0.2424 -0.1036 -0.1167
 2863POSM   C3B33598  24.354  16.591  12.056  0.1862 -0.0143 -0.0523
 2863POSM   C4B33599  24.014  16.296  11.938  0.2071 -0.2127 -0.0596
 2864DOPS   CNO33600  32.454  22.205  13.599  0.6096 -0.1266 -0.0250
 2864DOPS   PO433601  32.823  22.332  13.590  0.0489 -0.0345 -0.1193
 2864DOPS   GL133602  32.779  22.147  13.185 -0.3560 -0.0911  0.1865
 2864DOPS   GL233603  33.126  22.032  13.154  0.1209  0.0029 -0.0182
 2864DOPS   C1A33604  32.747  22.245  12.743  0.2980 -0.1536  0.1883
 2864DOPS   D2A33605  33.015  22.399  12.421 -0.2897 -0.1269  0.2972
 2864DOPS   C3A33606  33.352  22.102  12.236  0.0828 -0.0909 -0.0623
 2864DOPS   C4A33607  33.797  22.050  12.087  0.0820 -0.3508 -0.0304
 2864DOPS   C1B33608  33.180  22.370  12.864  0.0072  0.2543 -0.0164
 2864DOPS   D2B33609  33.043  22.789  12.738 -0.5268 -0.0804 -0.2633
 2864DOPS   C3B33610  33.463  22.868  12.645  0.1334  0.0459 -0.2119
 2864DOPS   C4B33611  33.791  22.904  12.293  0.1173 -0.3218 -0.0559
 2865DOPC   NC333612  29.113  15.200  13.267  0.2531 -0.0001 -0.1978
 2865DOPC   PO433613  29.240  15.449  13.593  0.4719 -0.0365  0.2804
 2865DOPC   GL133614  29.061  15.646  13.220  0.0239  0.3037 -0.2085
 2865DOPC   GL233615  29.298  15.843  13.260 -0.0221  0.0720  0.0211
 2865DOPC   C1A33616  29.346  15.486  12.882 -0.2337  0.1412 -0.2054
 2865DOPC   D2A33617  29.347  15.479  12.444 -0.2080 -0.0376 -0.0075
 2865DOPC   C3A33618  29.503  15.068  12.321 -0.3111  0.1449 -0.0630
 2865DOPC   C4A33619  29.466  14.638  12.142  0.0069  0.0888 -0.0822
 2865DOPC   C1B33620  29.113  15.920  12.829 -0.0923 -0.1923 -0.5263
 2865DOPC   D2B33621  28.809  16.159  12.585  0.0615 -0.0013 -0.0149
 2865DOPC   C3B33622  28.627  16.123  12.181  0.4277  0.1167 -0.0029
 2865DOPC   C4B33623  28.365  16.029  11.793  0.1780  0.0496 -0.1345
 2866DOPE   NH333624  25.319  18.609  13.214  0.2427  0.1378 -0.3513
 2866DOPE   PO433625  25.430  18.485  12.951  0.0180 -0.0323  0.0169
 2866DOPE   GL133626  25.527  18.252  12.733  0.0765 -0.0280 -0.0397
 2866DOPE   GL233627  25.332  18.080  12.627 -0.2545 -0.0676 -0.1535
 2866DOPE   C1A33628  25.756  18.219  12.263 -0.2248 -0.1511  0.1854
 2866DOPE   D2A33629  25.992  17.958  11.991  0.4588  0.0133  0.2091
 2866DOPE   C3A33630  25.881  17.946  11.561  0.0477  0.1643 -0.0201
 2866DOPE   C4A33631  25.621  18.186  11.245 -0.1908  0.1949  0.0989
 2866DOPE   C1B33632  25.216  18.027  12.184 -0.2799  0.1647 -0.2276
 2866DOPE   D2B33633  25.447  17.927  11.798 -0.0098  0.0991  0.0578
 2866DOPE   C3B33634  25.196  17.825  11.427  0.2841 -0.0539 -0.0508
 2866DOPE   C4B33635  25.167  17.485  11.053 -0.2923 -0.2058 -0.4087
 2867POSM   NC333636  32.536  21.707  13.367  0.1886  0.2428 -0.4475
 2867POSM   PO433637  32.652  21.408  13.576 -0.1204 -0.0641  0.0103
 2867POSM   AM133638  32.869  21.350  13.361 -0.2386 -0.0313 -0.5103
 2867POSM   AM233639  33.030  21.508  13.165 -0.5305 -0.1247 -0.2785
 2867POSM   T1A33640  32.895  21.108  12.907  0.1467  0.0061 -0.0235
 2867POSM   C2A33641  33.042  21.057  12.488  0.1961  0.2237 -0.4213
 2867POSM   C3A33642  33.084  20.867  12.059  0.2741 -0.2555  0.0614
 2867POSM   C1B33643  33.020  21.664  12.858 -0.0599 -0.1429  0.2084
 2867POSM   D2B33644  33.181  21.710  12.429 -0.1815  0.0691  0.0235
 2867POSM   C3B33645  33.052  21.393  12.121 -0.2843 -0.0455  0.1623
 2867POSM   C4B33646  32.692  21.205  11.880 -0.0622  0.2426  0.1081
 2868DOPS   CNO33647  29.119  25.642  13.574  0.0999  0.1411  0.0650
 2868DOPS   PO433648  29.383  25.350  13.519 -0.0743 -0.0822 -0.1999
 2868DOPS   GL133649  29.454  25.189  13.057 -0.0413 -0.0941 -0.2069
 2868DOPS   GL233650  29.613  25.443  13.048  0.0551  0.2797 -0.0796
 2868DOPS   C1A33651  29.667  25.043  12.625 -0.2346 -0.0850 -0.2107
 2868DOPS   D2A33652  29.840  25.049  12.208 -0.0617 -0.2135 -0.1490
 2868DOPS   C3A33653  29.885  24.791  11.767  0.2707 -0.0211  0.1967
 2868DOPS   C4A33654  29.545  24.547  11.525 -0.1483 -0.1277  0.1456
 2868DOPS   C1B33655  29.593  25.548  12.575  0.3179 -0.3356 -0.0967
 2868DOPS   D2B33656  29.593  25.504  12.128 -0.1426 -0.2637  0.0443
 2868DOPS   C3B33657  29.737  25.308  11.732  0.2397  0.1770 -0.0092
 2868DOPS   C4B33658  29.622  25.052  11.387  0.0809 -0.5257 -0.0045
 2869DOPC   NC333659  33.664  14.740  14.452  0.1105 -0.0751  0.1042
 2869DOPC   PO433660  33.545  14.612  14.111 -0.1912 -0.0946 -0.0561
 2869DOPC   GL133661  33.602  14.627  13.693  0.1937  0.0950  0.1381
 2869DOPC   GL233662  33.882  14.433  13.673 -0.3355 -0.2856 -0.1214
 2869DOPC   C1A33663  33.748  14.715  13.267 -0.1283  0.0073 -0.0710
 2869DOPC   D2A33664  33.850  14.635  12.837 -0.1892 -0.0260 -0.1277
 2869DOPC   C3A33665  33.474  14.537  12.555 -0.0781  0.2162 -0.3432
 2869DOPC   C4A33666  33.120  14.523  12.300  0.1597  0.0251  0.0786
 2869DOPC   C1B33667  33.531  14.241  13.420  0.1402  0.0846 -0.0495
 2869DOPC   D2B33668  33.401  14.345  13.026  0.0689  0.0415 -0.1797
 2869DOPC   C3B33669  33.733  14.122  12.769  0.0256  0.0306  0.2263
 2869DOPC   C4B33670  33.921  13.727  12.503 -0.0133 -0.2057  0.2050
 2870DOPE   NH333671  29.060  16.726  13.508 -0.0173 -0.1709  0.0845
 2870DOPE   PO433672  29.092  16.403  13.611 -0.0422  0.1438 -0.1076
 2870DOPE   GL133673  29.043  16.231  13.237  0.2115  0.1940 -0.1050
 2870DOPE   GL233674  28.877  16.374  13.160 -0.0286 -0.1357  0.0322
 2870DOPE   C1A33675  29.304  16.364  12.848  0.1512  0.0770 -0.0038
 2870DOPE   D2A33676  29.574  16.677  12.765  0.3840 -0.2177  0.0074
 2870DOPE   C3A33677  29.568  16.828  12.320  0.3308  0.0890 -0.1687
 2870DOPE   C4A33678  29.584  17.110  11.962 -0.1959  0.0166  0.0258
 2870DOPE   C1B33679  28.797  16.641  12.791  0.2516  0.4607  0.2691
 2870DOPE   D2B33680  28.891  16.583  12.370 -0.4543  0.1758  0.0732
 2870DOPE   C3B33681  29.033  16.930  12.080  0.3931 -0.0657  0.2656
 2870DOPE   C4B33682  28.935  17.317  11.811  0.0972 -0.2136  0.0314
 2871DOPE   NH333683  27.677  17.336  13.177 -0.0820 -0.0355 -0.1807
 2871DOPE   PO433684  27.375  17.398  13.075  0.0224 -0.0039  0.1085
 2871DOPE   GL133685  27.309  17.137  12.883  0.0933  0.1653  0.3337
 2871DOPE   GL233686  27.233  16.887  13.052 -0.0770 -0.2002  0.3564
 2871DOPE   C1A33687  27.383  16.907  12.482  0.1832 -0.0183 -0.1154
 2871DOPE   D2A33688  27.283  16.766  12.119 -0.0067  0.1391 -0.1700
 2871DOPE   C3A33689  27.472  16.707  11.677  0.2503  0.3210 -0.2429
 2871DOPE   C4A33690  27.319  16.600  11.274  0.2073 -0.0522  0.1759
 2871DOPE   C1B33691  27.035  16.596  12.735  0.1787 -0.0090  0.1894
 2871DOPE   D2B33692  26.912  16.481  12.362 -0.0695  0.1070 -0.0081
 2871DOPE   C3B33693  26.809  16.823  12.026 -0.0835  0.1865 -0.2674
 2871DOPE   C4B33694  26.958  17.066  11.650 -0.0957  0.0014  0.0875
 2872DOPC   NC333695  32.035  26.752  13.984  0.0305  0.0328  0.0497
 2872DOPC   PO433696  32.237  26.410  13.913 -0.3383  0.2308 -0.1705
 2872DOPC   GL133697  32.149  26.672  13.567 -0.1164 -0.3142 -0.0024
 2872DOPC   GL233698  31.884  26.478  13.507  0.1029  0.1193 -0.2154
 2872DOPC   C1A33699  32.271  26.400  13.220 -0.1801 -0.3313  0.1106
 2872DOPC   D2A33700  32.190  26.354  12.780 -0.1222  0.2202  0.1342
 2872DOPC   C3A33701  31.866  26.583  12.446  0.0027  0.0647 -0.2867
 2872DOPC   C4A33702  31.417  26.604  12.186  0.0027  0.1681  0.0753
 2872DOPC   C1B33703  31.806  26.232  13.121 -0.1843  0.0286 -0.0660
 2872DOPC   D2B33704  31.797  26.052  12.648  0.0128 -0.1559 -0.2405
 2872DOPC   C3B33705  31.562  25.984  12.288  0.3469  0.4447 -0.1033
 2872DOPC   C4B33706  31.282  26.184  11.920 -0.0584  0.0901  0.0796
 2873POSM   NC333707  31.994  19.209  13.729 -0.1957 -0.2741 -0.4721
 2873POSM   PO433708  31.644  19.161  13.597  0.2968 -0.0525 -0.1107
 2873POSM   AM133709  31.607  19.106  13.296 -0.3997 -0.2922  0.3463
 2873POSM   AM233710  31.796  19.090  13.079  0.0343 -0.0573  0.0302
 2873POSM   T1A33711  31.335  19.166  12.881 -0.1506  0.1502  0.1232
 2873POSM   C2A33712  31.058  19.105  12.452  0.0822 -0.0610  0.1109
 2873POSM   C3A33713  31.040  18.817  12.071  0.1306  0.0097 -0.1081
 2873POSM   C1B33714  31.825  19.300  12.848 -0.0080  0.0521  0.0383
 2873POSM   D2B33715  31.973  19.419  12.359  0.0880  0.0195  0.1785
 2873POSM   C3B33716  31.653  19.731  12.175  0.0426 -0.1621  0.0121
 2873POSM   C4B33717  31.522  19.750  11.730  0.3195  0.1268  0.0490
 2874DOPE   NH333718  24.136  23.246  12.702 -0.1724  0.1268  0.0707
 2874DOPE   PO433719  23.905  23.017  12.648 -0.1956 -0.0730  0.1083
 2874DOPE   GL133720  23.892  23.218  12.249 -0.0531 -0.2169  0.3687
 2874DOPE   GL233721  24.064  23.437  12.194 -0.1986 -0.3001 -0.1911
 2874DOPE   C1A33722  23.684  23.145  11.843  0.0960 -0.0961 -0.0220
 2874DOPE   D2A33723  23.570  22.786  11.599 -0.2553  0.0019  0.1848
 2874DOPE   C3A33724  23.176  22.971  11.444 -0.0953 -0.4261 -0.4126
 2874DOPE   C4A33725  22.840  23.050  11.147  0.2371 -0.1399  0.2152
 2874DOPE   C1B33726  24.078  23.400  11.707 -0.0328 -0.1834 -0.1176
 2874DOPE   D2B33727  24.050  23.413  11.236  0.1765  0.3903  0.0762
 2874DOPE   C3B33728  24.215  23.191  10.827 -0.0163  0.0345  0.0395
 2874DOPE   C4B33729  24.098  23.352  10.444 -0.1713  0.1923 -0.2013
 2875DOPS   CNO33730  26.193  13.970  13.813 -0.2475  0.0855 -0.0656
 2875DOPS   PO433731  25.902  14.058  13.628  0.1726 -0.2051  0.0802
 2875DOPS   GL133732  26.076  13.842  13.335  0.2358 -0.0642  0.1942
 2875DOPS   GL233733  26.163  13.556  13.416  0.3155 -0.1679 -0.1327
 2875DOPS   C1A33734  26.231  13.947  12.902 -0.2626 -0.2133  0.0278
 2875DOPS   D2A33735  26.176  13.844  12.431  0.2012 -0.1493 -0.1727
 2875DOPS   C3A33736  25.932  13.552  12.172 -0.3721  0.0707  0.1494
 2875DOPS   C4A33737  25.916  13.135  12.053 -0.1783  0.0951  0.2045
 2875DOPS   C1B33738  26.469  13.494  13.120  0.0895  0.2141 -0.1009
 2875DOPS   D2B33739  26.795  13.216  13.005 -0.2079 -0.1797 -0.2172
 2875DOPS   C3B33740  27.162  13.432  12.783 -0.0025  0.0021  0.1586
 2875DOPS   C4B33741  27.419  13.650  12.512 -0.0484 -0.2203  0.1830
 2876POSM   NC333742  31.024  20.863  13.737 -0.1618  0.0940 -0.0123
 2876POSM   PO433743  31.022  20.783  13.369 -0.0807 -0.0742  0.1086
 2876POSM   AM133744  30.985  20.823  13.034 -0.1857 -0.0815 -0.0727
 2876POSM   AM233745  30.817  20.727  12.861  0.0275 -0.0783 -0.1233
 2876POSM   T1A33746  31.207  20.969  12.598  0.0379  0.1122  0.1126
 2876POSM   C2A33747  31.461  20.839  12.200 -0.0233  0.0750 -0.1332
 2876POSM   C3A33748  31.576  20.605  11.806  0.2549  0.2969 -0.1067
 2876POSM   C1B33749  30.907  20.492  12.636  0.1550  0.1502 -0.2812
 2876POSM   D2B33750  31.150  20.482  12.265 -0.0638  0.1584  0.0530
 2876POSM   C3B33751  31.058  20.627  11.826 -0.4603 -0.3001  0.2334
 2876POSM   C4B33752  31.269  20.663  11.443  0.0419 -0.0099 -0.0208
 2877POSM   NC333753  26.390  20.507  12.601  0.1012  0.0450  0.0589
 2877POSM   PO433754  26.127  20.279  12.755  0.2687  0.1609 -0.4496
 2877POSM   AM133755  25.917  20.372  12.553 -0.3378 -0.2835  0.4347
 2877POSM   AM233756  25.935  20.586  12.398 -0.0469  0.1150  0.0651
 2877POSM   T1A33757  25.657  20.289  12.157 -0.2014 -0.2416 -0.0058
 2877POSM   C2A33758  25.533  19.911  11.922 -0.4132  0.1444 -0.0862
 2877POSM   C3A33759  25.557  19.480  11.653  0.0927  0.0654  0.6230
 2877POSM   C1B33760  26.099  20.512  12.119  0.0338  0.3603  0.0077
 2877POSM   D2B33761  26.430  20.649  11.761  0.0464 -0.1587  0.1045
 2877POSM   C3B33762  26.320  20.539  11.350 -0.0743  0.0903  0.0323
 2877POSM   C4B33763  26.331  20.350  10.969  0.0339 -0.0060 -0.2584
 2878DOPC   NC333764  27.207  14.609  13.441 -0.2429 -0.1337 -0.0425
 2878DOPC   PO433765  27.178  14.221  13.430  0.1920 -0.1691  0.1101
 2878DOPC   GL133766  26.988  14.247  13.094 -0.1856 -0.0545  0.0549
 2878DOPC   GL233767  27.090  14.281  12.832 -0.1902  0.1380 -0.0332
 2878DOPC   C1A33768  26.563  14.351  12.907 -0.3299  0.0247 -0.0170
 2878DOPC   D2A33769  26.175  14.389  12.632  0.0437  0.3282  0.2831
 2878DOPC   C3A33770  26.061  14.279  12.207  0.0352 -0.3738 -0.1012
 2878DOPC   C4A33771  25.930  13.982  11.881  0.0730  0.1176 -0.1718
 2878DOPC   C1B33772  27.052  13.969  12.507 -0.3501  0.0089 -0.0030
 2878DOPC   D2B33773  26.731  13.687  12.281 -0.1455  0.4590 -0.2204
 2878DOPC   C3B33774  26.876  13.264  12.324  0.2881  0.2792  0.1737
 2878DOPC   C4B33775  27.046  12.964  12.550  0.0514  0.0902  0.1915
 2879DOPS   CNO33776  31.133  17.967  13.861  0.0942  0.1613 -0.2731
 2879DOPS   PO433777  31.063  17.983  13.466 -0.0502  0.1627 -0.1632
 2879DOPS   GL133778  31.140  17.764  13.137  0.2271 -0.1209 -0.0801
 2879DOPS   GL233779  30.819  17.872  12.988  0.0873  0.2454 -0.2446
 2879DOPS   C1A33780  31.281  17.689  12.699 -0.1348  0.0249  0.0500
 2879DOPS   D2A33781  31.145  17.499  12.306  0.1391 -0.3155  0.0675
 2879DOPS   C3A33782  31.509  17.456  12.102 -0.2457 -0.2244 -0.1585
 2879DOPS   C4A33783  31.855  17.486  11.764 -0.3111  0.2778 -0.0080
 2879DOPS   C1B33784  30.726  17.749  12.578 -0.1624  0.1031 -0.0786
 2879DOPS   D2B33785  30.742  17.728  12.042  0.2340 -0.0222 -0.1016
 2879DOPS   C3B33786  30.765  17.988  11.693  0.2520 -0.0675  0.0475
 2879DOPS   C4B33787  30.902  18.063  11.222 -0.1587  0.1611 -0.0736
 2880DOPE   NH333788  32.881  23.639  13.735 -0.0637 -0.0524  0.1050
 2880DOPE   PO433789  32.675  23.506  13.524 -0.0619  0.0568  0.1482
 2880DOPE   GL133790  32.700  23.568  13.126  0.3441  0.4238  0.3404
 2880DOPE   GL233791  32.516  23.436  12.954  0.0379  0.0050  0.2277
 2880DOPE   C1A33792  32.894  23.718  12.736  0.0043 -0.1341 -0.2815
 2880DOPE   D2A33793  32.774  23.712  12.296 -0.0173 -0.0360 -0.0269
 2880DOPE   C3A33794  32.763  23.373  12.020  0.1663  0.0128 -0.0106
 2880DOPE   C4A33795  32.779  23.105  11.696 -0.0541  0.0058  0.0635
 2880DOPE   C1B33796  32.681  23.205  12.575 -0.0745  0.2952  0.1091
 2880DOPE   D2B33797  32.807  22.872  12.299  0.1449  0.0850 -0.1385
 2880DOPE   C3B33798  33.209  22.898  12.025 -0.0370 -0.0732 -0.0444
 2880DOPE   C4B33799  33.610  22.827  11.712  0.1389 -0.3464  0.2614
 2881POSM   NC333800  33.321  17.824  13.608 -0.1472 -0.0992 -0.0148
 2881POSM   PO433801  33.106  18.120  13.645  0.3481  0.2816  0.0977
 2881POSM   AM133802  32.951  18.024  13.376  0.0639 -0.1993  0.3103
 2881POSM   AM233803  32.819  17.836  13.284 -0.1176  0.1802  0.1822
 2881POSM   T1A33804  32.978  17.896  12.862 -0.1968  0.1378 -0.1190
 2881POSM   C2A33805  33.031  17.847  12.418 -0.1589  0.0472  0.1188
 2881POSM   C3A33806  32.932  17.867  11.991  0.0563 -0.1536  0.0431
 2881POSM   C1B33807  32.533  17.864  13.088 -0.3613  0.0544  0.2279
 2881POSM   D2B33808  32.316  17.773  12.658 -0.0653  0.0078 -0.1417
 2881POSM   C3B33809  32.545  18.007  12.277  0.0437 -0.1160  0.1225
 2881POSM   C4B33810  32.505  18.320  11.917 -0.1107  0.0165 -0.2995
 2882POSM   NC333811  33.696  15.911  13.303 -0.4171 -0.0459  0.0064
 2882POSM   PO433812  33.819  15.594  13.508  0.0075 -0.0024  0.3020
 2882POSM   AM133813  33.889  15.468  13.228  0.0297  0.0282 -0.0877
 2882POSM   AM233814  33.815  15.292  13.061 -0.2614  0.1122 -0.0503
 2882POSM   T1A33815  34.024  15.591  12.734  0.1690  0.1505  0.0404
 2882POSM   C2A33816  34.097  15.369  12.342 -0.0594 -0.1351  0.1765
 2882POSM   C3A33817  34.393  15.237  12.042 -0.3645 -0.2632 -0.1732
 2882POSM   C1B33818  33.770  15.137  12.769  0.1755  0.1020  0.1470
 2882POSM   D2B33819  33.442  15.087  12.435  0.2914 -0.0929 -0.0258
 2882POSM   C3B33820  33.642  15.191  11.994 -0.1038 -0.1196 -0.0491
 2882POSM   C4B33821  33.773  15.403  11.586 -0.3085 -0.1644  0.2339
 2883DOPC   NC333822  23.290  21.288  12.206  0.0247  0.0176  0.0137
 2883DOPC   PO433823  22.889  21.240  12.119 -0.1024 -0.3142  0.1456
 2883DOPC   GL133824  22.887  21.516  11.768  0.0783 -0.2015  0.1012
 2883DOPC   GL233825  22.968  21.338  11.570 -0.1677 -0.0897 -0.1269
 2883DOPC   C1A33826  22.677  21.824  11.470  0.2043  0.2885 -0.1530
 2883DOPC   D2A33827  22.627  21.990  11.043 -0.3377 -0.0281 -0.1634
 2883DOPC   C3A33828  22.431  21.762  10.678  0.0391  0.1316  0.1808
 2883DOPC   C4A33829  22.152  21.628  10.322  0.1325 -0.2490  0.0697
 2883DOPC   C1B33830  22.696  20.968  11.485  0.4384 -0.2083  0.4415
 2883DOPC   D2B33831  22.590  20.726  11.160  0.1302 -0.4311  0.3660
 2883DOPC   C3B33832  22.710  20.925  10.747  0.1058 -0.3467  0.1082
 2883DOPC   C4B33833  23.051  20.961  10.444 -0.1780 -0.5270  0.0793
 2884DOPC   NC333834  25.874  12.294  13.727  0.3560 -0.2238  0.0477
 2884DOPC   PO433835  25.552  12.093  13.767  0.0147 -0.3166 -0.1156
 2884DOPC   GL133836  25.840  12.015  13.375  0.1012 -0.1939 -0.4271
 2884DOPC   GL233837  25.956  11.832  13.388 -0.0862 -0.0512 -0.1436
 2884DOPC   C1A33838  25.881  12.199  12.963 -0.2998 -0.1432  0.0558
 2884DOPC   D2A33839  26.006  12.216  12.489  0.1122 -0.1233 -0.0713
 2884DOPC   C3A33840  26.035  12.630  12.350  0.1823 -0.0042  0.0542
 2884DOPC   C4A33841  26.195  12.709  11.941 -0.3514  0.0421 -0.2688
 2884DOPC   C1B33842  25.909  11.732  12.933  0.1501  0.0441 -0.3284
 2884DOPC   D2B33843  26.016  11.695  12.519 -0.2151  0.0229  0.0147
 2884DOPC   C3B33844  25.888  11.889  12.139  0.2848 -0.0229 -0.1302
 2884DOPC   C4B33845  25.736  12.329  12.045  0.1182 -0.1614  0.0244
 2885POSM   NC333846  28.674  13.710  13.606  0.2492  0.0321 -0.1962
 2885POSM   PO433847  28.559  13.302  13.584 -0.2686 -0.0645  0.1028
 2885POSM   AM133848  28.584  13.121  13.322 -0.1425 -0.1428 -0.1811
 2885POSM   AM233849  28.730  12.878  13.300  0.2227  0.2466  0.0988
 2885POSM   T1A33850  28.457  13.254  12.862 -0.3526 -0.2139  0.3528
 2885POSM   C2A33851  28.528  13.131  12.412 -0.2803 -0.0953  0.1844
 2885POSM   C3A33852  28.458  13.422  11.995 -0.0065 -0.0194  0.0602
 2885POSM   C1B33853  28.635  12.814  12.966  0.0546  0.2649 -0.0498
 2885POSM   D2B33854  28.574  12.591  12.563 -0.0112  0.1813 -0.2173
 2885POSM   C3B33855  28.538  12.694  12.134  0.1048 -0.1467  0.1309
 2885POSM   C4B33856  28.479  12.986  11.746  0.0294 -0.0461 -0.1394
 2886POSM   NC333857  34.021  19.544  13.203  0.4173 -0.0226  0.1122
 2886POSM   PO433858  33.821  19.275  13.324  0.0820 -0.2913  0.2847
 2886POSM   AM133859  33.699  19.161  13.022  0.0982 -0.4549 -0.0324
 2886POSM   AM233860  33.462  19.116  12.911 -0.1078  0.0540 -0.0430
 2886POSM   T1A33861  33.845  19.152  12.542 -0.1320  0.0298  0.2087
 2886POSM   C2A33862  34.000  19.261  12.102  0.2580 -0.0235 -0.2309
 2886POSM   C3A33863  34.284  19.291  11.694  0.0835  0.0200  0.1009
 2886POSM   C1B33864  33.254  19.195  12.661 -0.1687 -0.0787  0.2283
 2886POSM   D2B33865  33.018  19.542  12.438 -0.0708  0.0617 -0.2208
 2886POSM   C3B33866  33.141  19.707  12.049 -0.1359 -0.0213  0.0079
 2886POSM   C4B33867  33.241  20.045  11.732 -0.3728 -0.1036 -0.0564
 2887DOPE   NH333868  33.370  23.689  14.003  0.0219  0.0806 -0.1533
 2887DOPE   PO433869  33.295  23.425  13.826 -0.0206 -0.2494  0.0051
 2887DOPE   GL133870  33.303  23.596  13.443 -0.2204  0.1588  0.2943
 2887DOPE   GL233871  33.115  23.560  13.241  0.0002  0.0753  0.1401
 2887DOPE   C1A33872  33.720  23.571  13.218 -0.1466  0.0317  0.0410
 2887DOPE   D2A33873  34.015  23.610  12.844  0.1092 -0.0238 -0.3415
 2887DOPE   C3A33874  34.132  23.977  12.579  0.2366 -0.3923  0.0133
 2887DOPE   C4A33875  34.107  24.258  12.191  0.0709 -0.0126 -0.0575
 2887DOPE   C1B33876  33.337  23.454  12.863  0.1406 -0.0778 -0.2802
 2887DOPE   D2B33877  33.215  23.334  12.372 -0.2501 -0.1130  0.0085
 2887DOPE   C3B33878  33.288  23.388  11.931 -0.1772  0.4026 -0.0865
 2887DOPE   C4B33879  33.378  23.262  11.466 -0.0333 -0.0966 -0.0419
 2888DOPC   NC333880  31.382  23.396  13.584 -0.2641 -0.2252  0.0639
 2888DOPC   PO433881  31.728  23.251  13.479 -0.2386  0.1938 -0.0049
 2888DOPC   GL133882  31.616  23.286  13.093  0.0866  0.1064 -0.1438
 2888DOPC   GL233883  31.403  23.473  13.050 -0.0062 -0.2400  0.0965
 2888DOPC   C1A33884  31.458  22.927  12.829  0.0824 -0.1133  0.1013
 2888DOPC   D2A33885  31.772  22.544  12.795 -0.0161 -0.3412 -0.0540
 2888DOPC   C3A33886  31.841  22.167  12.561  0.1183 -0.2138  0.0350
 2888DOPC   C4A33887  31.891  22.081  12.099 -0.0564  0.0173  0.0133
 2888DOPC   C1B33888  31.466  23.508  12.584  0.0099 -0.1705  0.1483
 2888DOPC   D2B33889  31.682  23.364  12.220  0.0631 -0.1700  0.0716
 2888DOPC   C3B33890  31.542  22.978  12.012 -0.1597 -0.2064 -0.1035
 2888DOPC   C4B33891  31.451  22.940  11.582  0.0460 -0.1744 -0.2428
 2889DOPE   NH333892  31.406  18.666  13.410 -0.0777  0.0489  0.3163
 2889DOPE   PO433893  31.427  18.337  13.535 -0.0293 -0.2973  0.0635
 2889DOPE   GL133894  31.376  18.165  13.147 -0.4580  0.0401 -0.0139
 2889DOPE   GL233895  31.070  18.304  13.020 -0.3295 -0.1514 -0.0552
 2889DOPE   C1A33896  31.618  18.145  12.766 -0.3710 -0.1519  0.0146
 2889DOPE   D2A33897  31.694  17.834  12.430 -0.0763  0.0835  0.0011
 2889DOPE   C3A33898  32.053  17.824  12.093  0.4541 -0.2386 -0.1894
 2889DOPE   C4A33899  32.338  17.862  11.785  0.1139 -0.1998 -0.0536
 2889DOPE   C1B33900  30.989  18.208  12.598 -0.1119 -0.0003  0.1521
 2889DOPE   D2B33901  31.174  17.953  12.244  0.2154  0.0314  0.0494
 2889DOPE   C3B33902  31.433  18.149  11.920  0.3034 -0.2799  0.2150
 2889DOPE   C4B33903  31.843  18.200  11.669 -0.1474 -0.0894 -0.2258
 2890DOPE   NH333904  32.384  15.849  13.810  0.1628 -0.0581 -0.2826
 2890DOPE   PO433905  32.095  15.768  13.631 -0.0064 -0.0300 -0.1072
 2890DOPE   GL133906  32.041  15.843  13.177 -0.3268  0.1386 -0.0450
 2890DOPE   GL233907  31.797  15.656  13.124  0.2677  0.0863 -0.0175
 2890DOPE   C1A33908  32.160  15.909  12.724  0.1490  0.1137  0.0073
 2890DOPE   D2A33909  32.469  15.849  12.386  0.2442  0.1973  0.2552
 2890DOPE   C3A33910  32.921  15.835  12.419 -0.1605  0.1144  0.0664
 2890DOPE   C4A33911  33.270  15.591  12.239 -0.1727  0.3565  0.2508
 2890DOPE   C1B33912  31.774  15.525  12.680  0.2506 -0.0584 -0.1490
 2890DOPE   D2B33913  31.755  15.421  12.218 -0.1667  0.2906  0.0064
 2890DOPE   C3B33914  31.399  15.603  11.985  0.1996  0.0554 -0.0884
 2890DOPE   C4B33915  31.291  15.884  11.670  0.0198  0.2687 -0.0430
 2891DOPE   NH333916  28.883  14.807  13.806  0.3837 -0.1470  0.3271
 2891DOPE   PO433917  28.763  15.104  13.604 -0.2267  0.0140  0.2940
 2891DOPE   GL133918  28.766  14.792  13.272  0.1547  0.3585  0.0692
 2891DOPE   GL233919  28.469  14.681  13.278 -0.2833 -0.1163 -0.2951
 2891DOPE   C1A33920  28.833  14.966  12.851 -0.0986 -0.1213  0.4003
 2891DOPE   D2A33921  29.028  15.122  12.508 -0.0019 -0.0810  0.0025
 2891DOPE   C3A33922  29.055  14.901  12.079  0.0156  0.1430  0.1659
 2891DOPE   C4A33923  29.089  14.482  11.869 -0.0455  0.0135 -0.0867
 2891DOPE   C1B33924  28.481  14.571  12.863 -0.0222 -0.0928  0.1814
 2891DOPE   D2B33925  28.650  14.640  12.432  0.3850  0.1333 -0.2457
 2891DOPE   C3B33926  28.557  15.051  12.216 -0.3217  0.0774  0.1581
 2891DOPE   C4B33927  28.721  15.217  11.803 -0.0850 -0.0202 -0.1748
 2892DOPS   CNO33928  23.917  18.314  12.689 -0.2424 -0.0393  0.1507
 2892DOPS   PO433929  24.117  18.142  12.963  0.0816 -0.2235  0.1661
 2892DOPS   GL133930  24.368  18.108  12.671 -0.4324  0.0560 -0.0744
 2892DOPS   GL233931  24.505  18.360  12.634 -0.3407 -0.1903 -0.4290
 2892DOPS   C1A33932  24.096  18.011  12.300  0.0807 -0.0131  0.0367
 2892DOPS   D2A33933  24.192  18.035  11.876  0.0340  0.1397 -0.0097
 2892DOPS   C3A33934  23.955  17.947  11.482  0.2301 -0.0903 -0.1839
 2892DOPS   C4A33935  23.734  17.839  11.082  0.2759 -0.0148 -0.0935
 2892DOPS   C1B33936  24.626  18.138  12.257 -0.0929  0.2018  0.0421
 2892DOPS   D2B33937  24.865  17.899  11.889 -0.2791  0.1608  0.1674
 2892DOPS   C3B33938  24.557  17.604  11.663 -0.0478  0.0240 -0.1561
 2892DOPS   C4B33939  24.405  17.233  11.394  0.0587 -0.0983 -0.0935
 2893DOPE   NH333940  29.471  19.359  13.610  0.0063 -0.0288  0.0914
 2893DOPE   PO433941  29.534  19.300  13.277 -0.0847  0.0168  0.2914
 2893DOPE   GL133942  29.527  18.932  13.042  0.1768 -0.2314 -0.2998
 2893DOPE   GL233943  29.522  18.650  12.884 -0.0808  0.1956  0.0638
 2893DOPE   C1A33944  29.617  19.074  12.557 -0.6009  0.4039  0.0283
 2893DOPE   D2A33945  29.509  18.857  12.173 -0.2511 -0.2072 -0.0990
 2893DOPE   C3A33946  29.418  19.026  11.751 -0.0664 -0.2990 -0.0879
 2893DOPE   C4A33947  29.653  18.903  11.348 -0.0209  0.2305 -0.1309
 2893DOPE   C1B33948  29.267  18.735  12.609 -0.1168  0.0308  0.0355
 2893DOPE   D2B33949  29.124  18.582  12.180 -0.3141 -0.0740 -0.4389
 2893DOPE   C3B33950  28.967  18.547  11.731  0.1526 -0.1679 -0.3444
 2893DOPE   C4B33951  28.556  18.414  11.583 -0.0619 -0.1888 -0.1050
 2894DOPE   NH333952  25.220  19.845  13.143 -0.2292  0.1375  0.0418
 2894DOPE   PO433953  25.287  20.038  12.871  0.2740  0.3013 -0.2505
 2894DOPE   GL133954  25.094  20.174  12.528  0.0265  0.3586 -0.1814
 2894DOPE   GL233955  25.273  19.977  12.357 -0.0465 -0.0866  0.1546
 2894DOPE   C1A33956  25.124  20.326  12.085 -0.1486 -0.0170  0.0503
 2894DOPE   D2A33957  25.467  20.475  11.753  0.3277  0.0565  0.0002
 2894DOPE   C3A33958  25.386  20.479  11.325 -0.0186 -0.1924 -0.0001
 2894DOPE   C4A33959  25.142  20.798  11.204  0.1842 -0.0503  0.0785
 2894DOPE   C1B33960  25.092  19.715  12.001  0.2068 -0.0896 -0.0157
 2894DOPE   D2B33961  24.962  19.630  11.594 -0.1383 -0.1650 -0.2560
 2894DOPE   C3B33962  25.137  19.602  11.213  0.0218 -0.0098 -0.0074
 2894DOPE   C4B33963  25.435  19.687  10.886  0.2489  0.2782 -0.2390
 2895POSM   NC333964  25.857  13.600  13.876  0.0883 -0.3406  0.1098
 2895POSM   PO433965  25.583  13.530  13.570  0.2338 -0.1745  0.5598
 2895POSM   AM133966  25.750  13.392  13.306 -0.4027  0.3419  0.2185
 2895POSM   AM233967  25.765  13.479  13.018 -0.3581  0.0738 -0.0660
 2895POSM   T1A33968  26.122  13.107  13.120 -0.0204 -0.0337  0.1274
 2895POSM   C2A33969  26.355  12.961  12.688 -0.1374 -0.0580 -0.0084
 2895POSM   C3A33970  26.567  12.844  12.281  0.0852  0.2619  0.2113
 2895POSM   C1B33971  26.019  13.500  12.827 -0.3052 -0.0931 -0.0837
 2895POSM   D2B33972  26.448  13.477  12.628 -0.3582 -0.0594  0.0492
 2895POSM   C3B33973  26.376  13.304  12.245 -0.0167 -0.1269  0.3689
 2895POSM   C4B33974  26.338  13.151  11.784 -0.1420 -0.0662  0.2170
 2896POSM   NC333975  28.467  16.196  13.828 -0.1814 -0.1169  0.1640
 2896POSM   PO433976  28.563  16.506  13.620 -0.0883  0.2649  0.1089
 2896POSM   AM133977  28.435  16.304  13.356  0.1174 -0.0044 -0.3122
 2896POSM   AM233978  28.466  16.039  13.313 -0.1961 -0.0373  0.3496
 2896POSM   T1A33979  28.018  16.171  13.082  0.2083  0.2629 -0.0397
 2896POSM   C2A33980  27.889  16.023  12.670  0.0185  0.2452  0.0791
 2896POSM   C3A33981  27.920  15.993  12.186  0.1395 -0.0187  0.1384
 2896POSM   C1B33982  28.650  15.927  13.053 -0.0347 -0.2059 -0.1086
 2896POSM   D2B33983  28.781  15.570  12.794  0.1618 -0.0153  0.0212
 2896POSM   C3B33984  28.455  15.304  12.620 -0.0924 -0.0869  0.1313
 2896POSM   C4B33985  28.098  15.465  12.361  0.1848  0.0918 -0.1936
 2897DOPC   NC333986  29.154  18.223  13.011  0.2665 -0.2582  0.2867
 2897DOPC   PO433987  29.024  18.497  13.201 -0.0360 -0.2396  0.0718
 2897DOPC   GL133988  28.754  18.476  12.990  0.1178  0.0343  0.1195
 2897DOPC   GL233989  28.587  18.270  13.121 -0.0959 -0.0427  0.2688
 2897DOPC   C1A33990  28.848  18.341  12.599 -0.0181 -0.1257  0.1096
 2897DOPC   D2A33991  28.627  18.310  12.231 -0.0905  0.0201  0.3221
 2897DOPC   C3A33992  28.432  18.638  12.045 -0.1257 -0.1633  0.0906
 2897DOPC   C4A33993  28.413  19.127  12.010  0.1422 -0.4502  0.2743
 2897DOPC   C1B33994  28.398  18.246  12.640  0.3132 -0.2207  0.0409
 2897DOPC   D2B33995  28.065  18.318  12.294  0.0706 -0.0961  0.1550
 2897DOPC   C3B33996  27.977  18.750  12.188 -0.2494 -0.0913 -0.0939
 2897DOPC   C4B33997  27.692  19.002  11.965  0.0786  0.2528 -0.1117
 2898DOPC   NC333998  26.204  21.958  12.535  0.1700  0.0429 -0.2531
 2898DOPC   PO433999  26.527  21.847  12.780 -0.0506  0.2213 -0.2949
 2898DOPC   GL134000  26.574  21.535  12.459 -0.1049  0.2643 -0.0141
 2898DOPC   GL234001  26.395  21.562  12.252  0.0041 -0.0592 -0.4062
 2898DOPC   C1A34002  26.930  21.339  12.208 -0.1872 -0.1561 -0.2581
 2898DOPC   D2A34003  27.381  21.424  12.111 -0.1293 -0.1535 -0.1939
 2898DOPC   C3A34004  27.619  21.264  11.711  0.0945  0.1027 -0.1108
 2898DOPC   C4A34005  27.711  20.838  11.566  0.1931 -0.1401 -0.1429
 2898DOPC   C1B34006  26.471  21.233  11.952  0.0158  0.3232  0.3103
 2898DOPC   D2B34007  26.739  21.028  11.598  0.0137  0.0987  0.0613
 2898DOPC   C3B34008  26.705  20.810  11.188  0.1576 -0.3931  0.2292
 2898DOPC   C4B34009  26.570  20.723  10.751 -0.1362 -0.0565 -0.0105
 2899POSM   NC334010  26.866  22.254  13.027 -0.1719 -0.2491  0.1834
 2899POSM   PO434011  27.023  22.028  12.830  0.2514  0.2300  0.3274
 2899POSM   AM134012  27.038  21.959  12.509 -0.2213 -0.2009 -0.2838
 2899POSM   AM234013  26.809  21.955  12.353 -0.0640 -0.5195 -0.2270
 2899POSM   T1A34014  27.284  21.901  12.084  0.0995  0.2743 -0.1243
 2899POSM   C2A34015  27.346  21.667  11.654 -0.5206  0.1988  0.0147
 2899POSM   C3A34016  27.469  21.515  11.229  0.1206  0.1258  0.0265
 2899POSM   C1B34017  26.791  21.832  12.036 -0.0718  0.2394  0.1000
 2899POSM   D2B34018  26.907  21.455  11.739 -0.2170 -0.1710  0.2581
 2899POSM   C3B34019  26.931  21.459  11.267 -0.1049  0.0298 -0.0742
 2899POSM   C4B34020  27.063  21.193  10.944 -0.0483  0.1400  0.0496
 2900DOPC   NC334021  32.466  15.676  13.363  0.0116  0.2101 -0.1501
 2900DOPC   PO434022  32.622  15.437  13.587 -0.0092  0.0062 -0.0115
 2900DOPC   GL134023  32.543  15.281  13.232  0.1213  0.0015 -0.1484
 2900DOPC   GL234024  32.751  15.307  13.049  0.3477 -0.0547 -0.3327
 2900DOPC   C1A34025  32.161  15.277  12.964 -0.1332 -0.1462 -0.1088
 2900DOPC   D2A34026  32.225  15.354  12.467 -0.1794  0.1736  0.2331
 2900DOPC   C3A34027  32.440  15.125  12.153  0.1920 -0.0526  0.3337
 2900DOPC   C4A34028  32.545  14.879  11.746  0.0565  0.0266 -0.1172
 2900DOPC   C1B34029  33.101  15.557  12.822 -0.2149 -0.0398 -0.0775
 2900DOPC   D2B34030  33.543  15.706  12.770 -0.3422  0.3377  0.1291
 2900DOPC   C3B34031  33.731  15.857  12.400 -0.2435  0.2170  0.1165
 2900DOPC   C4B34032  33.672  15.771  11.923  0.0523 -0.0314  0.0444
 2901POSM   NC334033  23.378  22.509  12.355  0.1641 -0.0271  0.0513
 2901POSM   PO434034  23.298  22.119  12.368  0.1208 -0.1027 -0.0919
 2901POSM   AM134035  23.282  22.112  12.009 -0.2104  0.1612 -0.1408
 2901POSM   AM234036  23.398  22.310  11.884 -0.1959  0.0635 -0.1674
 2901POSM   T1A34037  23.180  21.835  11.582  0.0944 -0.0378  0.1906
 2901POSM   C2A34038  23.348  21.469  11.301 -0.2157  0.2324  0.2747
 2901POSM   C3A34039  23.616  21.164  11.112  0.0740 -0.2179 -0.0291
 2901POSM   C1B34040  23.401  22.311  11.569  0.0249 -0.0375 -0.0766
 2901POSM   D2B34041  23.539  21.992  11.210  0.0258  0.3014  0.0486
 2901POSM   C3B34042  23.243  21.782  10.929 -0.1360 -0.5582 -0.0591
 2901POSM   C4B34043  22.983  21.958  10.641 -0.2011  0.0384  0.1077
 2902DOPC   NC334044  26.001  19.638  12.837  0.1943  0.0343 -0.0764
 2902DOPC   PO434045  25.641  19.540  12.987  0.0811 -0.1787  0.3190
 2902DOPC   GL134046  25.536  19.439  12.640  0.1988  0.1002  0.2270
 2902DOPC   GL234047  25.230  19.375  12.758 -0.0306 -0.0027  0.1091
 2902DOPC   C1A34048  25.783  19.650  12.304 -0.1737 -0.0605 -0.3728
 2902DOPC   D2A34049  26.139  19.663  12.018  0.0503  0.0760  0.2069
 2902DOPC   C3A34050  25.965  19.835  11.617  0.0701 -0.2737  0.1024
 2902DOPC   C4A34051  26.040  20.074  11.272  0.1627 -0.0824 -0.0324
 2902DOPC   C1B34052  25.231  19.360  12.335  0.0029 -0.0250 -0.0674
 2902DOPC   D2B34053  25.153  19.270  11.868 -0.1287 -0.2053  0.2626
 2902DOPC   C3B34054  25.520  18.971  11.768  0.1355  0.6190  0.2383
 2902DOPC   C4B34055  25.805  18.576  11.740 -0.1139  0.0894  0.1221
 2903POSM   NC334056  27.638  23.620  12.936 -0.2000  0.1422  0.1255
 2903POSM   PO434057  27.581  23.233  12.867  0.0012 -0.1304  0.0477
 2903POSM   AM134058  27.659  23.342  12.578 -0.1122 -0.0370  0.1268
 2903POSM   AM234059  27.541  23.251  12.331 -0.0003  0.4693  0.2058
 2903POSM   T1A34060  27.919  23.522  12.151 -0.3292  0.1179 -0.2025
 2903POSM   C2A34061  28.085  23.632  11.724  0.0386  0.0436 -0.0838
 2903POSM   C3A34062  28.042  23.943  11.369 -0.1978  0.3235 -0.1931
 2903POSM   C1B34063  27.640  23.049  12.123 -0.1938 -0.1586  0.2396
 2903POSM   D2B34064  27.404  22.839  11.752  0.4588 -0.1382 -0.1100
 2903POSM   C3B34065  27.377  22.964  11.284 -0.1210  0.0241  0.0312
 2903POSM   C4B34066  27.550  23.167  10.898  0.0143 -0.2126 -0.1514
 2904DOPE   NH334067  27.519  18.105  13.100 -0.0980  0.4297 -0.0725
 2904DOPE   PO434068  27.307  17.915  13.073 -0.1197 -0.1581 -0.0231
 2904DOPE   GL134069  27.118  18.015  12.715  0.3767 -0.0111 -0.1254
 2904DOPE   GL234070  27.211  18.301  12.717 -0.0172  0.2406  0.0922
 2904DOPE   C1A34071  27.194  17.817  12.317 -0.1714  0.0397 -0.0446
 2904DOPE   D2A34072  27.232  17.825  11.800  0.0540 -0.2533  0.1887
 2904DOPE   C3A34073  26.974  17.571  11.488  0.1415  0.0122 -0.1872
 2904DOPE   C4A34074  26.588  17.343  11.229  0.1299 -0.1459  0.1446
 2904DOPE   C1B34075  27.072  18.614  12.442 -0.0320 -0.1375 -0.2563
 2904DOPE   D2B34076  26.694  18.716  12.214 -0.0719  0.0687  0.2422
 2904DOPE   C3B34077  26.267  18.682  12.281 -0.0206 -0.2213  0.0355
 2904DOPE   C4B34078  25.837  18.731  12.225 -0.0128 -0.0782  0.0751
 2905DOPC   NC334079  32.340  13.948  13.529  0.1547  0.2718 -0.0385
 2905DOPC   PO434080  32.285  14.305  13.634 -0.3168  0.0656  0.2406
 2905DOPC   GL134081  32.154  14.388  13.230 -0.1982 -0.3815 -0.3489
 2905DOPC   GL234082  32.091  14.096  13.147  0.1008  0.1965 -0.0073
 2905DOPC   C1A34083  32.442  14.412  12.867 -0.2635  0.1248 -0.0461
 2905DOPC   D2A34084  32.367  14.315  12.407 -0.0208  0.2155 -0.1058
 2905DOPC   C3A34085  32.801  14.188  12.242 -0.0556  0.1542  0.0684
 2905DOPC   C4A34086  33.110  14.226  11.922  0.1775  0.1651 -0.0591
 2905DOPC   C1B34087  32.487  13.935  13.030  0.0725  0.1899  0.0943
 2905DOPC   D2B34088  32.566  13.855  12.578  0.0537 -0.1047  0.1442
 2905DOPC   C3B34089  32.456  13.826  12.199  0.1436  0.0423 -0.0564
 2905DOPC   C4B34090  32.460  14.074  11.811  0.0612 -0.1682  0.3456
 2906DOPC   NC334091  28.200  15.230  13.547 -0.1250 -0.0587  0.0244
 2906DOPC   PO434092  27.861  14.989  13.621 -0.1521 -0.0378  0.1434
 2906DOPC   GL134093  27.719  14.965  13.238  0.0313 -0.0469 -0.0339
 2906DOPC   GL234094  28.006  14.846  13.112 -0.2821  0.3233 -0.1693
 2906DOPC   C1A34095  27.615  15.238  12.856 -0.2505 -0.1099  0.0327
 2906DOPC   D2A34096  27.306  15.122  12.532  0.1142  0.0108  0.1379
 2906DOPC   C3A34097  27.221  15.424  12.166  0.1958  0.1152 -0.3751
 2906DOPC   C4A34098  27.494  15.714  11.933 -0.1275 -0.4631 -0.0341
 2906DOPC   C1B34099  28.197  14.912  12.681 -0.1316  0.0765 -0.0565
 2906DOPC   D2B34100  28.006  14.934  12.282  0.0253 -0.0100  0.0237
 2906DOPC   C3B34101  28.130  15.169  11.939  0.2784 -0.2817  0.2021
 2906DOPC   C4B34102  28.152  15.488  11.579  0.0649 -0.1729 -0.0035
 2907DOPC   NC334103  26.837  17.828  13.145  0.1552 -0.2042 -0.2925
 2907DOPC   PO434104  26.773  18.240  13.053  0.3107 -0.2656 -0.2771
 2907DOPC   GL134105  26.638  18.004  12.717 -0.3716 -0.2709  0.2443
 2907DOPC   GL234106  26.351  17.880  12.841 -0.3899 -0.0483  0.0128
 2907DOPC   C1A34107  26.818  18.191  12.314  0.3011 -0.1258 -0.0674
 2907DOPC   D2A34108  27.184  18.299  12.042  0.0075  0.0140 -0.1726
 2907DOPC   C3A34109  27.168  18.504  11.634  0.2584  0.2343  0.1126
 2907DOPC   C4A34110  26.945  18.704  11.352 -0.0689  0.0756 -0.0888
 2907DOPC   C1B34111  26.272  18.108  12.407  0.3217  0.0805 -0.1114
 2907DOPC   D2B34112  26.466  18.070  11.985  0.1975 -0.2269  0.0817
 2907DOPC   C3B34113  26.350  18.238  11.543  0.1545 -0.1150  0.1090
 2907DOPC   C4B34114  26.157  18.428  11.159 -0.1654  0.1156  0.0787
 2908DOPC   NC334115  32.130  21.319  13.433  0.2823 -0.0080 -0.3488
 2908DOPC   PO434116  31.696  21.343  13.520 -0.1210 -0.0064 -0.0488
 2908DOPC   GL134117  31.641  21.288  13.133  0.1224  0.0699  0.3343
 2908DOPC   GL234118  31.432  21.073  13.017  0.3791  0.0831  0.2209
 2908DOPC   C1A34119  32.021  21.086  12.872 -0.1446 -0.0658 -0.1843
 2908DOPC   D2A34120  32.430  21.019  12.679 -0.0691 -0.0536  0.0307
 2908DOPC   C3A34121  32.553  21.316  12.355 -0.6324 -0.0333 -0.0718
 2908DOPC   C4A34122  32.718  21.692  12.337  0.0059  0.1000 -0.1017
 2908DOPC   C1B34123  31.587  21.215  12.638 -0.4148 -0.1397 -0.2900
 2908DOPC   D2B34124  31.286  21.346  12.289 -0.0335  0.2729 -0.0399
 2908DOPC   C3B34125  31.334  21.293  11.848 -0.1285  0.0264  0.0015
 2908DOPC   C4B34126  31.385  21.154  11.481  0.0848 -0.0929 -0.0012
 2909DOPS   CNO34127  28.061  17.649  13.912  0.0238  0.2811 -0.0989
 2909DOPS   PO434128  27.953  17.540  13.550  0.0068 -0.0433  0.2126
 2909DOPS   GL134129  28.104  17.428  13.182 -0.1563 -0.0389 -0.1256
 2909DOPS   GL234130  28.116  17.159  13.161  0.0638  0.1440  0.1521
 2909DOPS   C1A34131  28.223  17.750  12.820 -0.0900  0.0061  0.1834
 2909DOPS   D2A34132  28.060  17.704  12.394 -0.1048  0.1252 -0.3185
 2909DOPS   C3A34133  28.233  17.892  11.999 -0.0317 -0.0117 -0.1697
 2909DOPS   C4A34134  28.081  18.254  11.735  0.0360 -0.0113  0.0862
 2909DOPS   C1B34135  28.017  17.294  12.735  0.0405  0.1457  0.1934
 2909DOPS   D2B34136  28.043  17.208  12.277  0.2484  0.0022 -0.0708
 2909DOPS   C3B34137  27.951  17.446  11.880 -0.0701 -0.0266 -0.1722
 2909DOPS   C4B34138  27.813  17.183  11.555  0.0069 -0.3215  0.0335
 2910DOPC   NC334139  29.729  17.821  13.370 -0.0445 -0.2048 -0.2077
 2910DOPC   PO434140  29.911  17.508  13.454 -0.1783  0.0133  0.0127
 2910DOPC   GL134141  29.916  17.391  13.039 -0.1799  0.1374 -0.0483
 2910DOPC   GL234142  29.834  17.028  12.922  0.0064  0.0072  0.0147
 2910DOPC   C1A34143  30.213  17.573  12.775 -0.0221  0.2925 -0.2462
 2910DOPC   D2A34144  30.240  17.664  12.306  0.2361 -0.3293  0.2973
 2910DOPC   C3A34145  29.912  17.464  12.049 -0.2379  0.1080  0.0374
 2910DOPC   C4A34146  29.920  17.381  11.638 -0.1299 -0.5374 -0.0931
 2910DOPC   C1B34147  29.697  17.301  12.537  0.0821  0.0689  0.2397
 2910DOPC   D2B34148  29.298  17.284  12.364 -0.4999  0.0060 -0.1702
 2910DOPC   C3B34149  29.282  17.612  12.030 -0.0956  0.3606  0.1112
 2910DOPC   C4B34150  29.639  17.794  11.752 -0.0729  0.0878 -0.1488
 2911DOPS   CNO34151  30.011  19.339  13.627 -0.0658  0.0247 -0.1488
 2911DOPS   PO434152  30.199  19.173  13.372  0.0503 -0.1929 -0.1818
 2911DOPS   GL134153  30.357  19.276  13.018 -0.1507  0.2798 -0.3752
 2911DOPS   GL234154  30.467  19.016  12.971  0.2761 -0.2924 -0.0074
 2911DOPS   C1A34155  30.760  19.413  12.802 -0.1712  0.0282 -0.1778
 2911DOPS   D2A34156  31.081  19.621  12.625  0.0404  0.0708  0.1283
 2911DOPS   C3A34157  31.454  19.429  12.481  0.0868  0.2350  0.1406
 2911DOPS   C4A34158  31.515  19.012  12.285  0.2750  0.0901 -0.0927
 2911DOPS   C1B34159  30.362  19.144  12.529 -0.2069  0.1594  0.0992
 2911DOPS   D2B34160  30.032  18.983  12.270  0.2252  0.0766 -0.0239
 2911DOPS   C3B34161  30.194  19.012  11.876 -0.0923 -0.0725 -0.0272
 2911DOPS   C4B34162  30.437  19.172  11.548  0.1883  0.2715 -0.3835
 2912POSM   NC334163  33.701  12.447  14.525  0.1397  0.1886 -0.2122
 2912POSM   PO434164  33.342  12.493  14.430  0.1817  0.1901 -0.0290
 2912POSM   AM134165  33.439  12.339  14.149  0.0806  0.1660 -0.0403
 2912POSM   AM234166  33.405  12.148  13.913 -0.0390  0.3056  0.1792
 2912POSM   T1A34167  33.883  12.104  14.012  0.0595 -0.1405 -0.0545
 2912POSM   C2A34168  34.331  12.108  13.853 -0.0518  0.1982  0.2704
 2912POSM   C3A34169  34.716  12.131  13.573 -0.0042  0.0355  0.0160
 2912POSM   C1B34170  33.487  11.987  13.668  0.1444 -0.0631  0.0665
 2912POSM   D2B34171  33.662  11.841  13.268 -0.3218  0.0710 -0.0267
 2912POSM   C3B34172  33.803  11.441  13.106  0.1405 -0.1977 -0.0888
 2912POSM   C4B34173  34.066  11.071  12.999  0.3211  0.0734 -0.1619
 2913DOPS   CNO34174  26.887  17.204  13.176  0.0282 -0.2503 -0.0476
 2913DOPS   PO434175  26.533  17.112  13.175 -0.1488  0.3641  0.1802
 2913DOPS   GL134176  26.518  16.939  12.770  0.4139  0.0383 -0.4245
 2913DOPS   GL234177  26.462  16.625  12.785  0.0335  0.2188 -0.0619
 2913DOPS   C1A34178  26.865  17.075  12.565 -0.0048 -0.0489 -0.2052
 2913DOPS   D2A34179  27.063  17.185  12.186 -0.3937 -0.3605 -0.0269
 2913DOPS   C3A34180  26.701  17.425  11.926  0.1577 -0.2260 -0.3041
 2913DOPS   C4A34181  26.422  17.686  11.667 -0.0134  0.2129 -0.0509
 2913DOPS   C1B34182  26.421  16.634  12.344  0.1246 -0.0410 -0.0619
 2913DOPS   D2B34183  26.134  16.358  12.217  0.0278  0.3621  0.1943
 2913DOPS   C3B34184  26.190  16.010  11.890 -0.1728 -0.1084 -0.0109
 2913DOPS   C4B34185  26.094  15.566  11.885 -0.0011  0.1445  0.0412
 2914DOPS   CNO34186  22.145  13.713  12.963  0.1466  0.0740  0.2854
 2914DOPS   PO434187  22.187  13.684  12.577 -0.0672  0.0256 -0.1392
 2914DOPS   GL134188  21.890  13.438  12.392 -0.1120 -0.6886 -0.3097
 2914DOPS   GL234189  21.827  13.686  12.212 -0.3138 -0.2073  0.0817
 2914DOPS   C1A34190  21.849  13.215  11.969 -0.0662 -0.0186 -0.0411
 2914DOPS   D2A34191  21.647  12.825  11.787 -0.1303  0.0497  0.1931
 2914DOPS   C3A34192  21.814  12.915  11.347 -0.0703 -0.2943  0.2213
 2914DOPS   C4A34193  22.097  13.026  11.018  0.0050  0.2427 -0.1110
 2914DOPS   C1B34194  21.603  13.884  11.853  0.1655 -0.0569 -0.0059
 2914DOPS   D2B34195  21.695  14.063  11.399 -0.4316 -0.0426 -0.2241
 2914DOPS   C3B34196  21.370  14.170  11.118 -0.2498 -0.3023  0.2607
 2914DOPS   C4B34197  21.315  13.950  10.693  0.4394 -0.1935  0.0083
 2915DOPE   NH334198  24.987  17.219  13.250 -0.5953  0.0292 -0.0522
 2915DOPE   PO434199  25.160  16.927  13.187  0.2775  0.0849  0.1194
 2915DOPE   GL134200  25.253  16.964  12.801 -0.1355  0.0908 -0.4307
 2915DOPE   GL234201  25.288  17.221  12.801 -0.0992 -0.0869 -0.2589
 2915DOPE   C1A34202  25.177  17.128  12.348 -0.1549 -0.4160  0.1155
 2915DOPE   D2A34203  25.187  16.937  11.889  0.0058  0.1210 -0.4556
 2915DOPE   C3A34204  25.627  17.104  11.822 -0.0115  0.0894 -0.0238
 2915DOPE   C4A34205  25.982  17.422  11.822 -0.1326 -0.0757 -0.4067
 2915DOPE   C1B34206  25.369  17.586  12.547  0.1026 -0.1396  0.2479
 2915DOPE   D2B34207  25.785  17.783  12.454  0.2770  0.2579  0.1814
 2915DOPE   C3B34208  26.223  17.604  12.376  0.1712  0.2155 -0.0838
 2915DOPE   C4B34209  26.706  17.724  12.335  0.1660  0.0338 -0.0768
 2916DOPE   NH334210  31.372  14.039  13.814 -0.1255 -0.0153 -0.5059
 2916DOPE   PO434211  31.471  13.723  13.784  0.1087 -0.1201  0.2517
 2916DOPE   GL134212  31.380  13.607  13.444 -0.1838  0.4416  0.0569
 2916DOPE   GL234213  31.170  13.456  13.434  0.3972 -0.2405 -0.4718
 2916DOPE   C1A34214  31.341  13.453  12.981 -0.1865 -0.1713 -0.1252
 2916DOPE   D2A34215  31.397  13.392  12.520  0.0618  0.1136 -0.1529
 2916DOPE   C3A34216  31.281  13.069  12.212  0.0652 -0.5207 -0.0522
 2916DOPE   C4A34217  31.020  12.691  12.057 -0.2302 -0.1044  0.1388
 2916DOPE   C1B34218  30.821  13.431  13.144 -0.2922 -0.0433 -0.0853
 2916DOPE   D2B34219  30.538  13.192  12.914 -0.2851  0.2784 -0.0677
 2916DOPE   C3B34220  30.542  13.193  12.455  0.2387 -0.2671 -0.2276
 2916DOPE   C4B34221  30.706  13.416  12.072  0.0778 -0.1735 -0.2986
 2917DOPE   NH334222  31.033  25.238  13.925  0.0083 -0.2689 -0.2116
 2917DOPE   PO434223  31.332  25.319  13.851  0.1633 -0.0697  0.1025
 2917DOPE   GL134224  31.260  25.111  13.538 -0.3020  0.1085  0.0773
 2917DOPE   GL234225  31.344  25.210  13.294  0.0242 -0.3323 -0.0720
 2917DOPE   C1A34226  31.187  24.702  13.387 -0.4015 -0.0026 -0.4749
 2917DOPE   D2A34227  30.963  24.353  13.196  0.3582 -0.2992  0.0942
 2917DOPE   C3A34228  30.681  24.464  12.818  0.0586  0.0614 -0.2027
 2917DOPE   C4A34229  30.697  24.452  12.375 -0.1956 -0.2663  0.2242
 2917DOPE   C1B34230  31.559  25.269  12.869  0.0230  0.1856  0.0260
 2917DOPE   D2B34231  31.576  25.522  12.455 -0.4084  0.0289  0.0921
 2917DOPE   C3B34232  31.446  25.262  12.056 -0.0418  0.1910  0.2001
 2917DOPE   C4B34233  31.145  24.981  11.783 -0.0263  0.5190  0.0221
 2918DOPC   NC334234  26.951  19.479  13.136 -0.0109  0.0070  0.1437
 2918DOPC   PO434235  27.018  19.722  12.856 -0.1106 -0.0478 -0.0005
 2918DOPC   GL134236  26.930  19.500  12.607 -0.6426 -0.0732  0.0053
 2918DOPC   GL234237  26.943  19.186  12.512 -0.0959  0.0154 -0.1279
 2918DOPC   C1A34238  26.630  19.645  12.315  0.2378  0.1143 -0.3239
 2918DOPC   D2A34239  26.638  19.855  11.928  0.2020 -0.1441 -0.0753
 2918DOPC   C3A34240  26.309  20.151  11.898 -0.0066 -0.0719  0.0881
 2918DOPC   C4A34241  25.958  20.372  11.661  0.2285  0.1455  0.2470
 2918DOPC   C1B34242  26.953  19.266  12.129  0.0800  0.0485  0.0899
 2918DOPC   D2B34243  26.864  18.952  11.787  0.0822  0.0613 -0.0887
 2918DOPC   C3B34244  26.717  18.512  11.748 -0.0086 -0.0836 -0.0754
 2918DOPC   C4B34245  26.871  18.100  11.637 -0.1914  0.0850 -0.0017
 2919DOPC   NC334246   2.950  17.417  13.408  0.1533 -0.0052 -0.1315
 2919DOPC   PO434247   2.578  17.407  13.400  0.2216  0.1103  0.0492
 2919DOPC   GL134248   2.561  17.392  13.003  0.3087  0.2703  0.2016
 2919DOPC   GL234249   2.261  17.343  12.935 -0.0117 -0.0552 -0.1262
 2919DOPC   C1A34250   2.513  17.523  12.587  0.2664 -0.0348  0.0960
 2919DOPC   D2A34251   2.823  17.723  12.310 -0.3669 -0.0759 -0.2947
 2919DOPC   C3A34252   3.155  17.602  12.011 -0.1841 -0.2444 -0.0852
 2919DOPC   C4A34253   3.542  17.566  11.697  0.0815  0.0084 -0.0311
 2919DOPC   C1B34254   2.026  17.382  12.591  0.1554 -0.2441 -0.0758
 2919DOPC   D2B34255   1.730  17.292  12.270  0.2286 -0.3459  0.0238
 2919DOPC   C3B34256   1.553  17.569  11.951 -0.1581 -0.0465 -0.0081
 2919DOPC   C4B34257   1.478  17.959  11.674  0.3039  0.0885 -0.2482
 2920POSM   NC334258  24.718  19.267  12.683 -0.0968  0.1986 -0.0811
 2920POSM   PO434259  24.646  18.872  12.830 -0.0286 -0.0742 -0.0478
 2920POSM   AM134260  24.783  18.800  12.557 -0.2422  0.0816 -0.0515
 2920POSM   AM234261  25.021  18.923  12.418  0.1202  0.0848  0.0280
 2920POSM   T1A34262  24.631  18.666  12.081 -0.0542  0.0923 -0.0751
 2920POSM   C2A34263  24.576  18.370  11.744  0.0452 -0.0117 -0.0372
 2920POSM   C3A34264  24.434  18.097  11.444 -0.1095  0.1894 -0.1951
 2920POSM   C1B34265  25.101  18.859  12.164  0.3467  0.1538 -0.3019
 2920POSM   D2B34266  24.981  18.821  11.683 -0.2515  0.0475 -0.0955
 2920POSM   C3B34267  25.166  19.054  11.353 -0.1491  0.1041  0.2930
 2920POSM   C4B34268  25.512  19.247  11.134  0.0895 -0.0695  0.0742
 2921POSM   NC334269  26.676  22.367  12.575 -0.0243 -0.2116  0.0012
 2921POSM   PO434270  26.352  22.543  12.604  0.1421  0.0690  0.1170
 2921POSM   AM134271  26.285  22.489  12.273 -0.0290 -0.0208 -0.2616
 2921POSM   AM234272  26.499  22.344  12.089  0.0790 -0.1475 -0.1171
 2921POSM   T1A34273  26.147  22.529  11.811 -0.1001  0.1208 -0.1148
 2921POSM   C2A34274  25.781  22.505  11.563  0.2545 -0.1090  0.0906
 2921POSM   C3A34275  25.616  22.569  11.141 -0.0047  0.2644 -0.0769
 2921POSM   C1B34276  26.620  22.324  11.759 -0.2129  0.0607  0.2189
 2921POSM   D2B34277  26.840  22.047  11.519 -0.0246 -0.1089 -0.0324
 2921POSM   C3B34278  27.023  22.234  11.130  0.0097 -0.0268 -0.3467
 2921POSM   C4B34279  27.385  22.443  10.916  0.1879 -0.1319  0.0864
 2922DOPE   NH334280  23.378  16.055  12.372  0.0005  0.0330 -0.2424
 2922DOPE   PO434281  23.327  15.785  12.515  0.2364 -0.0731  0.0862
 2922DOPE   GL134282  23.369  15.446  12.270 -0.0029  0.1524  0.2424
 2922DOPE   GL234283  23.394  15.576  11.992  0.0963  0.1664  0.2162
 2922DOPE   C1A34284  23.779  15.343  12.088 -0.2176  0.2287  0.1467
 2922DOPE   D2A34285  24.066  15.168  11.821 -0.2893 -0.1978 -0.4023
 2922DOPE   C3A34286  24.076  15.254  11.373  0.2912 -0.2697  0.0653
 2922DOPE   C4A34287  24.250  15.386  10.914  0.2275 -0.0483  0.3596
 2922DOPE   C1B34288  23.747  15.866  11.898  0.1523 -0.3914  0.3956
 2922DOPE   D2B34289  23.842  16.113  11.486 -0.1946 -0.1451 -0.3217
 2922DOPE   C3B34290  23.722  16.572  11.472 -0.4127  0.1237  0.0729
 2922DOPE   C4B34291  23.408  16.898  11.501  0.3772  0.0996 -0.3247
 2923DOPE   NH334292  24.507  16.422  13.297 -0.0870 -0.2001 -0.0014
 2923DOPE   PO434293  24.824  16.439  13.233  0.2187  0.0389  0.0021
 2923DOPE   GL134294  24.808  16.365  12.911 -0.0753  0.1992  0.1213
 2923DOPE   GL234295  24.793  16.576  12.715 -0.2605 -0.1555 -0.0877
 2923DOPE   C1A34296  24.592  16.066  12.655  0.1462 -0.1012  0.0572
 2923DOPE   D2A34297  24.331  16.002  12.297  0.0811  0.0012 -0.0185
 2923DOPE   C3A34298  24.413  16.090  11.803  0.0658 -0.1217  0.1521
 2923DOPE   C4A34299  24.472  16.130  11.344  0.3417  0.2304  0.0392
 2923DOPE   C1B34300  25.214  16.647  12.476  0.0079  0.1288  0.2105
 2923DOPE   D2B34301  25.271  16.476  12.080  0.2578 -0.0430 -0.1423
 2923DOPE   C3B34302  25.216  16.080  11.851  0.4166 -0.1745  0.0919
 2923DOPE   C4B34303  25.301  16.005  11.404  0.0949  0.0004  0.1018
 2924DOPE   NH334304  29.613  25.782  13.500 -0.1524 -0.3083  0.0141
 2924DOPE   PO434305  29.423  25.981  13.324  0.1863  0.2235 -0.2766
 2924DOPE   GL134306  29.531  25.944  12.976  0.3370  0.2460  0.0676
 2924DOPE   GL234307  29.304  25.862  12.821 -0.3499  0.1180  0.0212
 2924DOPE   C1A34308  29.725  26.039  12.560  0.0312 -0.0205  0.4430
 2924DOPE   D2A34309  29.700  26.028  12.101  0.0152  0.2703 -0.4367
 2924DOPE   C3A34310  29.494  25.801  11.808  0.0396  0.0288 -0.1131
 2924DOPE   C4A34311  29.362  25.704  11.379 -0.3068 -0.0834 -0.0542
 2924DOPE   C1B34312  29.180  25.805  12.363  0.3530 -0.1093 -0.3218
 2924DOPE   D2B34313  28.998  25.762  11.903 -0.2622 -0.2707 -0.0479
 2924DOPE   C3B34314  29.223  25.364  11.749  0.0506 -0.3953 -0.1243
 2924DOPE   C4B34315  29.132  24.919  11.637  0.0295  0.1054 -0.1392
 2925DOPC   NC334316  21.968  11.869  12.590  0.1577 -0.2564 -0.2464
 2925DOPC   PO434317  22.113  11.766  12.933 -0.0632  0.2111  0.0736
 2925DOPC   GL134318  22.394  11.891  12.532  0.0941 -0.2209 -0.4083
 2925DOPC   GL234319  22.474  11.599  12.586  0.0307  0.0964 -0.1567
 2925DOPC   C1A34320  22.307  12.070  12.094 -0.2665 -0.0452  0.1205
 2925DOPC   D2A34321  22.370  12.282  11.637 -0.1054  0.3204 -0.1794
 2925DOPC   C3A34322  21.915  12.365  11.470 -0.0520 -0.0753  0.1864
 2925DOPC   C4A34323  21.506  12.534  11.374  0.1448  0.0295  0.0263
 2925DOPC   C1B34324  22.572  11.359  12.162 -0.0777 -0.1159  0.0456
 2925DOPC   D2B34325  22.834  11.392  11.749  0.2761 -0.0916  0.1920
 2925DOPC   C3B34326  22.998  11.718  11.521 -0.1114  0.0938 -0.0270
 2925DOPC   C4B34327  23.437  11.950  11.500  0.2778  0.3279  0.0972
 2926DOPC   NC334328  23.558  18.917  12.043  0.3259  0.3915  0.4440
 2926DOPC   PO434329  23.899  18.909  12.203  0.0097  0.0854 -0.1267
 2926DOPC   GL134330  23.992  18.895  11.859  0.1435 -0.2037  0.1901
 2926DOPC   GL234331  24.265  18.780  11.745 -0.1565 -0.0381  0.0543
 2926DOPC   C1A34332  23.628  18.767  11.609  0.1501  0.0709  0.0135
 2926DOPC   D2A34333  23.229  18.672  11.379  0.3226  0.2552 -0.0286
 2926DOPC   C3A34334  22.948  18.977  11.252  0.1731  0.1608 -0.0493
 2926DOPC   C4A34335  22.655  19.231  11.508 -0.1844  0.4296  0.3849
 2926DOPC   C1B34336  24.114  18.472  11.475 -0.0216 -0.3028  0.2673
 2926DOPC   D2B34337  24.252  18.627  11.045  0.2446  0.1390  0.0509
 2926DOPC   C3B34338  24.034  18.976  10.842 -0.0701  0.0888 -0.1923
 2926DOPC   C4B34339  23.647  19.190  10.799  0.1757 -0.0370  0.2652
 2927POSM   NC334340  27.835  15.812  13.813  0.1059 -0.1248  0.4729
 2927POSM   PO434341  28.221  15.761  13.655  0.0930  0.1942  0.4110
 2927POSM   AM134342  28.110  15.760  13.353  0.3291  0.1667 -0.1934
 2927POSM   AM234343  28.180  15.559  13.180  0.1938 -0.0299  0.0152
 2927POSM   T1A34344  27.773  15.643  12.952 -0.2962 -0.3313  0.1819
 2927POSM   C2A34345  27.669  15.607  12.457  0.2341 -0.2733 -0.2218
 2927POSM   C3A34346  27.695  15.255  12.164  0.1670  0.3159 -0.2315
 2927POSM   C1B34347  28.246  15.669  12.900 -0.1792  0.0472 -0.3339
 2927POSM   D2B34348  28.361  15.829  12.519 -0.2240  0.1134 -0.1579
 2927POSM   C3B34349  28.587  15.548  12.178  0.2137 -0.1534 -0.2190
 2927POSM   C4B34350  29.046  15.442  12.073 -0.1802  0.1991  0.2834
 2928DOPC   NC334351  28.464  22.335  12.864 -0.1989 -0.2536  0.1045
 2928DOPC   PO434352  28.158  22.091  13.040 -0.2205 -0.1267 -0.0182
 2928DOPC   GL134353  27.969  22.002  12.645  0.0626 -0.0908 -0.1371
 2928DOPC   GL234354  28.158  22.172  12.516  0.1481  0.0671  0.1334
 2928DOPC   C1A34355  27.844  22.032  12.185 -0.1476  0.2257 -0.3238
 2928DOPC   D2A34356  27.831  21.633  11.937  0.2495 -0.0886  0.0092
 2928DOPC   C3A34357  27.804  21.802  11.524 -0.1229  0.0342 -0.3104
 2928DOPC   C4A34358  27.926  21.825  11.125  0.2451  0.0997  0.0299
 2928DOPC   C1B34359  28.229  22.279  12.050 -0.3184  0.2301 -0.1599
 2928DOPC   D2B34360  28.285  22.635  11.774  0.3198 -0.1106 -0.0770
 2928DOPC   C3B34361  28.331  22.839  11.375  0.3333  0.0596 -0.1683
 2928DOPC   C4B34362  28.492  23.040  10.967 -0.1019 -0.3511 -0.1982
 2929DOPE   NH334363  29.490  14.410  14.004  0.0169  0.1373  0.1728
 2929DOPE   PO434364  29.196  14.411  13.876 -0.0669 -0.0102  0.1862
 2929DOPE   GL134365  29.311  14.462  13.575  0.3653 -0.3653 -0.0142
 2929DOPE   GL234366  29.196  14.658  13.360 -0.0247 -0.2764 -0.1035
 2929DOPE   C1A34367  29.340  14.221  13.189  0.1946 -0.3568 -0.0964
 2929DOPE   D2A34368  29.522  13.784  13.032 -0.2097 -0.0914 -0.1551
 2929DOPE   C3A34369  29.794  13.692  12.696  0.2398  0.2004 -0.1312
 2929DOPE   C4A34370  30.001  13.610  12.321  0.4192 -0.2775  0.0157
 2929DOPE   C1B34371  28.942  14.451  13.004  0.2612  0.0747  0.1215
 2929DOPE   D2B34372  28.709  14.210  12.632 -0.1256  0.0707 -0.2783
 2929DOPE   C3B34373  28.434  14.170  12.338 -0.1011 -0.3215 -0.1665
 2929DOPE   C4B34374  28.197  13.867  12.078  0.1137 -0.0049  0.1015
 2930DOPC   NC334375  26.213  21.440  12.744 -0.1844  0.0886 -0.0909
 2930DOPC   PO434376  25.872  21.541  12.574  0.0867  0.1484  0.4098
 2930DOPC   GL134377  25.794  21.388  12.220 -0.1577 -0.1856  0.2761
 2930DOPC   GL234378  25.916  21.648  12.081  0.1827  0.0840 -0.2300
 2930DOPC   C1A34379  25.495  21.427  11.914 -0.1676 -0.2580  0.4522
 2930DOPC   D2A34380  25.395  21.206  11.524  0.0964 -0.2613 -0.0496
 2930DOPC   C3A34381  25.600  21.129  11.149  0.0029  0.0603 -0.1770
 2930DOPC   C4A34382  25.694  21.011  10.706 -0.1187  0.1101 -0.1251
 2930DOPC   C1B34383  26.025  21.382  11.732 -0.2889  0.0963 -0.2584
 2930DOPC   D2B34384  26.205  21.054  11.494 -0.0844 -0.0429  0.1640
 2930DOPC   C3B34385  26.140  20.999  11.022 -0.3019  0.0566  0.0439
 2930DOPC   C4B34386  26.082  20.662  10.670 -0.0203 -0.1833  0.1041
 2931DOPE   NH334387  22.450  22.843  12.483  0.1817  0.0055 -0.3336
 2931DOPE   PO434388  22.539  22.719  12.226  0.4376  0.0245  0.1324
 2931DOPE   GL134389  22.598  22.796  11.804  0.0339 -0.1046 -0.1994
 2931DOPE   GL234390  22.442  22.609  11.682  0.2536  0.0509  0.1133
 2931DOPE   C1A34391  22.405  23.047  11.437 -0.2800  0.0972 -0.1819
 2931DOPE   D2A34392  22.415  23.063  10.910  0.2536 -0.1634  0.1553
 2931DOPE   C3A34393  22.187  23.054  10.533  0.0691 -0.2515  0.1703
 2931DOPE   C4A34394  21.866  23.383  10.384 -0.1620  0.0157  0.0708
 2931DOPE   C1B34395  22.760  22.366  11.405  0.4206 -0.1214  0.2216
 2931DOPE   D2B34396  23.063  22.294  11.037 -0.1764  0.0807 -0.0590
 2931DOPE   C3B34397  22.775  22.489  10.790 -0.0756 -0.0118  0.0252
 2931DOPE   C4B34398  22.690  22.877  10.495 -0.0737  0.1223 -0.0077
 2932DOPE   NH334399  31.973  13.539  13.888 -0.1575 -0.0419 -0.0264
 2932DOPE   PO434400  32.162  13.491  13.644  0.3339  0.1826  0.0197
 2932DOPE   GL134401  32.390  13.501  13.341 -0.1193 -0.1435 -0.4279
 2932DOPE   GL234402  32.456  13.246  13.316  0.0107  0.3176  0.3495
 2932DOPE   C1A34403  32.288  13.434  12.893  0.2937 -0.0454  0.2140
 2932DOPE   D2A34404  32.312  13.430  12.428  0.0286 -0.0621  0.0238
 2932DOPE   C3A34405  32.212  13.246  12.026 -0.0798  0.0874  0.1249
 2932DOPE   C4A34406  32.409  12.904  11.761 -0.1272 -0.2471 -0.2837
 2932DOPE   C1B34407  32.488  12.824  13.087  0.2868  0.0185 -0.2270
 2932DOPE   D2B34408  32.667  12.407  12.928 -0.0513 -0.1683 -0.3136
 2932DOPE   C3B34409  32.389  12.041  12.754  0.1169 -0.0022 -0.2831
 2932DOPE   C4B34410  32.144  11.663  12.857 -0.3462 -0.1266  0.0744
 2933DOPC   NC334411  24.615  14.936  12.797 -0.1357  0.2970 -0.4994
 2933DOPC   PO434412  24.266  15.062  12.883 -0.1365  0.0248  0.3481
 2933DOPC   GL134413  24.297  14.937  12.482  0.2452  0.3631  0.0270
 2933DOPC   GL234414  24.015  14.960  12.433 -0.1804  0.0109 -0.0031
 2933DOPC   C1A34415  24.344  14.814  12.041  0.1925 -0.1241 -0.0204
 2933DOPC   D2A34416  24.458  14.888  11.568  0.0539 -0.0728 -0.2749
 2933DOPC   C3A34417  24.751  15.202  11.418  0.1259 -0.1442  0.1258
 2933DOPC   C4A34418  24.588  15.587  11.255 -0.1662 -0.1860 -0.1470
 2933DOPC   C1B34419  23.835  14.759  12.079  0.1028  0.0602 -0.1144
 2933DOPC   D2B34420  23.620  14.406  11.907  0.0760 -0.4238 -0.0054
 2933DOPC   C3B34421  23.300  14.541  11.590  0.3911  0.1028 -0.0199
 2933DOPC   C4B34422  22.893  14.571  11.314 -0.1835  0.2355  0.3842
 2934DOPC   NC334423  25.609  17.881  13.053 -0.1283 -0.0278 -0.0646
 2934DOPC   PO434424  25.908  17.626  13.007  0.1089 -0.2810 -0.0438
 2934DOPC   GL134425  25.887  17.368  12.746 -0.6432 -0.0896  0.1116
 2934DOPC   GL234426  25.746  17.103  12.981 -0.2095  0.1149  0.0439
 2934DOPC   C1A34427  25.797  17.329  12.311  0.0356  0.0606  0.2184
 2934DOPC   D2A34428  25.427  17.520  12.113  0.2294  0.1183  0.2095
 2934DOPC   C3A34429  25.142  17.485  11.778  0.2087 -0.2021  0.0240
 2934DOPC   C4A34430  24.882  17.265  11.397  0.0168  0.1911  0.0028
 2934DOPC   C1B34431  25.600  16.909  12.580 -0.0257  0.1150  0.0662
 2934DOPC   D2B34432  25.687  16.674  12.215 -0.1318  0.0487  0.2070
 2934DOPC   C3B34433  26.026  16.919  12.081 -0.1058  0.1322  0.0279
 2934DOPC   C4B34434  26.380  17.017  11.826  0.1080 -0.0587  0.0740
 2935DOPC   NC334435  33.846  18.888  13.665  0.0184 -0.4694 -0.5134
 2935DOPC   PO434436  34.031  18.814  13.327 -0.3403  0.3342  0.0718
 2935DOPC   GL134437  34.136  19.139  13.044 -0.1939 -0.0308 -0.3570
 2935DOPC   GL234438  34.230  18.975  12.800 -0.2716  0.0394 -0.0720
 2935DOPC   C1A34439  34.181  19.426  12.665 -0.0890 -0.3265  0.0907
 2935DOPC   D2A34440  34.234  19.719  12.302  0.0956  0.2759  0.1372
 2935DOPC   C3A34441  34.115  19.698  11.863  0.0561  0.2270  0.4902
 2935DOPC   C4A34442  34.028  19.727  11.411  0.4029 -0.1724 -0.2554
 2935DOPC   C1B34443  34.310  18.922  12.300  0.0599  0.0354  0.4020
 2935DOPC   D2B34444  34.496  18.932  11.923 -0.2997  0.1608  0.0429
 2935DOPC   C3B34445  34.167  18.779  11.575  0.3593  0.2445  0.0454
 2935DOPC   C4B34446  33.849  18.459  11.448  0.1050 -0.2046  0.0346
 2936DOPC   NC334447  23.346  10.799  12.907 -0.0308  0.1998  0.1687
 2936DOPC   PO434448  23.065  11.004  13.033  0.1623 -0.3930  0.1596
 2936DOPC   GL134449  23.009  10.917  12.615 -0.1318 -0.0105  0.2127
 2936DOPC   GL234450  22.761  11.138  12.527  0.2907 -0.0822 -0.2911
 2936DOPC   C1A34451  23.165  10.687  12.230 -0.0761 -0.0583 -0.0626
 2936DOPC   D2A34452  23.069  10.499  11.824  0.1887  0.1032  0.1003
 2936DOPC   C3A34453  22.808  10.112  11.772 -0.0636 -0.0075  0.2005
 2936DOPC   C4A34454  22.781   9.748  12.057 -0.2438 -0.1200 -0.2213
 2936DOPC   C1B34455  22.828  10.948  12.090 -0.0187  0.1297 -0.3289
 2936DOPC   D2B34456  22.728  10.841  11.669 -0.2880  0.0821  0.0652
 2936DOPC   C3B34457  22.590  11.157  11.380  0.2675 -0.1067 -0.0945
 2936DOPC   C4B34458  22.560  11.606  11.267  0.1459  0.1557  0.1103
 2937DOPC   NC334459  27.758  17.070  13.607  0.0190  0.1288 -0.0888
 2937DOPC   PO434460  27.599  16.732  13.434 -0.0905 -0.0572  0.1381
 2937DOPC   GL134461  27.838  16.835  13.111  0.1325 -0.4194  0.1288
 2937DOPC   GL234462  27.719  16.894  12.897  0.1807 -0.1487  0.1858
 2937DOPC   C1A34463  28.245  16.613  12.949  0.2191 -0.0808 -0.0614
 2937DOPC   D2A34464  28.313  16.345  12.617  0.1197 -0.2511  0.0876
 2937DOPC   C3A34465  28.265  16.403  12.147 -0.0143 -0.1709  0.0305
 2937DOPC   C4A34466  28.097  16.815  11.935  0.0145 -0.0290  0.1432
 2937DOPC   C1B34467  27.892  16.691  12.500  0.1054 -0.3563  0.0405
 2937DOPC   D2B34468  27.749  16.485  12.131  0.1228 -0.2939 -0.1693
 2937DOPC   C3B34469  27.882  16.362  11.748  0.0988 -0.2677  0.0076
 2937DOPC   C4B34470  28.085  16.172  11.374  0.2892 -0.0463  0.0998
 2938DOPE   NH334471   0.187  19.488  13.983 -0.0091  0.0388  0.0065
 2938DOPE   PO434472   0.235  19.305  13.738  0.1177 -0.1141  0.0238
 2938DOPE   GL134473   0.309  19.453  13.343 -0.0509 -0.0094 -0.0016
 2938DOPE   GL234474   0.607  19.466  13.180 -0.0543 -0.1339  0.0862
 2938DOPE   C1A34475   0.083  19.308  12.953 -0.0029 -0.0895 -0.3643
 2938DOPE   D2A34476   0.250  18.952  12.757  0.2413  0.1816 -0.0123
 2938DOPE   C3A34477   0.342  18.892  12.357 -0.2926  0.0476  0.0198
 2938DOPE   C4A34478   0.664  19.045  12.139 -0.1521 -0.0377 -0.0627
 2938DOPE   C1B34479   0.381  19.661  12.830  0.1564  0.0284  0.1538
 2938DOPE   D2B34480   0.125  19.944  12.594 -0.2078 -0.0824  0.3152
 2938DOPE   C3B34481   0.208  19.843  12.137  0.1906  0.0660  0.0813
 2938DOPE   C4B34482   0.415  19.948  11.754  0.0019  0.3834  0.2526
 2939DOPE   NH334483  32.661  18.603  13.908  0.0022 -0.0547  0.0380
 2939DOPE   PO434484  32.499  18.742  13.634 -0.2240 -0.0161 -0.0348
 2939DOPE   GL134485  32.500  18.542  13.257  0.3648 -0.1481 -0.1270
 2939DOPE   GL234486  32.775  18.350  13.104 -0.1869 -0.1676 -0.0564
 2939DOPE   C1A34487  32.234  18.653  12.867  0.3656 -0.0563 -0.1382
 2939DOPE   D2A34488  31.884  18.808  12.597  0.0029  0.1757  0.0613
 2939DOPE   C3A34489  31.965  18.796  12.197  0.1085  0.0153  0.2140
 2939DOPE   C4A34490  31.823  19.170  11.921  0.0128 -0.0824  0.1329
 2939DOPE   C1B34491  32.603  18.293  12.653 -0.4497  0.0458 -0.0483
 2939DOPE   D2B34492  32.440  18.562  12.345  0.0053 -0.0562 -0.0601
 2939DOPE   C3B34493  32.722  18.747  12.106  0.0331 -0.4469  0.1624
 2939DOPE   C4B34494  33.112  18.884  11.887 -0.1594  0.1424 -0.3563
 2940POSM   NC334495  29.210  20.151  13.441  0.2121  0.3269  0.2151
 2940POSM   PO434496  29.268  19.764  13.306 -0.0504  0.1934  0.2873
 2940POSM   AM134497  29.167  19.610  13.032 -0.1205  0.1129 -0.0639
 2940POSM   AM234498  29.190  19.349  12.903  0.1369 -0.0362  0.1907
 2940POSM   T1A34499  29.198  19.730  12.535  0.0727  0.2164  0.0046
 2940POSM   C2A34500  29.352  19.972  12.126 -0.2306  0.0336  0.0634
 2940POSM   C3A34501  29.317  20.251  11.784  0.0121  0.0139  0.2919
 2940POSM   C1B34502  29.121  19.192  12.598  0.0319 -0.0920  0.0306
 2940POSM   D2B34503  28.794  18.924  12.314 -0.2279 -0.1580 -0.0415
 2940POSM   C3B34504  28.401  18.873  12.502  0.0124 -0.0798 -0.1507
 2940POSM   C4B34505  27.931  18.961  12.678  0.1609  0.4227 -0.0515
 2941DOPC   NC334506  29.945  12.465  13.557  0.0908 -0.0216 -0.1933
 2941DOPC   PO434507  29.609  12.423  13.409 -0.1465 -0.1073 -0.1053
 2941DOPC   GL134508  29.356  12.459  13.064 -0.0461 -0.3860  0.2283
 2941DOPC   GL234509  29.077  12.571  13.147  0.0138  0.0368 -0.2038
 2941DOPC   C1A34510  29.404  12.163  12.707  0.0895 -0.0937 -0.0212
 2941DOPC   D2A34511  29.561  12.096  12.263 -0.3998 -0.3697  0.1724
 2941DOPC   C3A34512  29.920  11.849  12.235 -0.1227 -0.2442 -0.1394
 2941DOPC   C4A34513  30.113  11.515  12.107  0.1040 -0.0021 -0.0709
 2941DOPC   C1B34514  29.112  12.600  12.679 -0.0985 -0.1432  0.0971
 2941DOPC   D2B34515  29.046  12.442  12.235  0.0607  0.0570 -0.1467
 2941DOPC   C3B34516  29.417  12.530  11.926  0.2952 -0.0314  0.0411
 2941DOPC   C4B34517  29.661  12.876  11.701 -0.0262  0.2219  0.2018
 2942POSM   NC334518  25.794  14.911  13.543 -0.0720 -0.0401 -0.0692
 2942POSM   PO434519  25.380  14.981  13.704 -0.3382  0.2025 -0.2665
 2942POSM   AM134520  25.375  15.038  13.372  0.0820 -0.1485  0.0969
 2942POSM   AM234521  25.430  15.276  13.164 -0.1747 -0.0068 -0.3203
 2942POSM   T1A34522  25.644  14.903  12.983 -0.2111  0.0145 -0.0164
 2942POSM   C2A34523  25.691  15.103  12.562  0.0402  0.0533 -0.3319
 2942POSM   C3A34524  25.507  15.357  12.231  0.0756  0.1837  0.1403
 2942POSM   C1B34525  25.224  15.383  12.836  0.1343  0.2363  0.1820
 2942POSM   D2B34526  25.100  15.616  12.400 -0.0852  0.1225  0.2719
 2942POSM   C3B34527  24.734  15.773  12.125 -0.0687 -0.0334  0.0717
 2942POSM   C4B34528  24.799  15.825  11.647  0.2461  0.3596  0.3409
 2943POSM   NC334529  25.316  22.297  12.631  0.0776 -0.0093 -0.1656
 2943POSM   PO434530  25.333  22.690  12.549 -0.1587 -0.0929 -0.0528
 2943POSM   AM134531  25.267  22.665  12.244  0.0041 -0.2772  0.2527
 2943POSM   AM234532  25.076  22.542  12.060  0.2501 -0.1320  0.1603
 2943POSM   T1A34533  25.366  22.749  11.763  0.1486 -0.2139  0.0328
 2943POSM   C2A34534  25.400  22.971  11.376 -0.3001  0.0820  0.1032
 2943POSM   C3A34535  25.167  23.292  11.102  0.1761  0.0436 -0.0446
 2943POSM   C1B34536  25.145  22.324  11.832 -0.0978  0.1261  0.0581
 2943POSM   D2B34537  25.201  22.430  11.402 -0.0501 -0.3230  0.1722
 2943POSM   C3B34538  25.489  22.101  11.372 -0.1676 -0.1481  0.1409
 2943POSM   C4B34539  25.548  21.621  11.291  0.0995 -0.0458  0.0305
 2944DOPS   CNO34540  30.244  21.161  13.296 -0.0910 -0.1410 -0.1562
 2944DOPS   PO434541  30.538  21.016  13.133  0.0570 -0.0003 -0.2910
 2944DOPS   GL134542  30.399  20.952  12.800  0.0737  0.0737 -0.1438
 2944DOPS   GL234543  30.130  20.807  12.923 -0.0074 -0.5347 -0.1723
 2944DOPS   C1A34544  30.299  20.995  12.356 -0.0769  0.1975 -0.1897
 2944DOPS   D2A34545  30.374  21.358  12.018  0.2301 -0.1621  0.1765
 2944DOPS   C3A34546  30.849  21.494  12.021  0.1261  0.0860 -0.1915
 2944DOPS   C4A34547  31.182  21.805  11.951 -0.3940  0.3047  0.1589
 2944DOPS   C1B34548  29.984  20.632  12.514  0.3821  0.1737  0.1935
 2944DOPS   D2B34549  30.016  20.349  12.167 -0.1257 -0.5268  0.1199
 2944DOPS   C3B34550  30.316  20.038  11.958  0.2659  0.1247 -0.3983
 2944DOPS   C4B34551  30.698  19.943  12.147 -0.1095 -0.0773  0.1742
 2945DOPC   NC334552  28.939  20.532  12.841 -0.1728  0.1193  0.0387
 2945DOPC   PO434553  28.593  20.664  13.001  0.0834  0.1498  0.4292
 2945DOPC   GL134554  28.515  20.313  12.850  0.2712 -0.0770 -0.1016
 2945DOPC   GL234555  28.530  20.415  12.530 -0.1036  0.2033  0.0625
 2945DOPC   C1A34556  28.312  19.952  12.620 -0.0686 -0.0403  0.2688
 2945DOPC   D2A34557  27.976  19.834  12.449  0.2918 -0.2349  0.1734
 2945DOPC   C3A34558  27.601  19.994  12.136 -0.0989  0.4919  0.3022
 2945DOPC   C4A34559  27.095  19.885  12.064  0.0577  0.0150  0.0004
 2945DOPC   C1B34560  28.732  20.019  12.366  0.0880 -0.1682 -0.2696
 2945DOPC   D2B34561  28.879  19.848  11.948  0.0845  0.1103 -0.2244
 2945DOPC   C3B34562  29.062  19.521  11.582  0.4189 -0.3441 -0.2051
 2945DOPC   C4B34563  29.437  19.439  11.279 -0.2026  0.0422  0.1648
 2946DOPE   NH334564  26.827  18.729  12.951 -0.0122  0.0982 -0.1181
 2946DOPE   PO434565  26.741  19.053  12.963 -0.3466 -0.3501  0.3338
 2946DOPE   GL134566  26.570  18.952  12.619 -0.1601  0.2629  0.2232
 2946DOPE   GL234567  26.302  18.890  12.735  0.1009 -0.2721  0.3135
 2946DOPE   C1A34568  26.387  19.164  12.248 -0.0331  0.1051 -0.0082
 2946DOPE   D2A34569  26.435  19.290  11.786 -0.0324 -0.1614 -0.3729
 2946DOPE   C3A34570  26.162  19.387  11.434  0.0338  0.1938  0.0899
 2946DOPE   C4A34571  26.290  19.497  11.041 -0.2603  0.1636  0.2420
 2946DOPE   C1B34572  25.972  19.174  12.535  0.0752 -0.2918  0.0721
 2946DOPE   D2B34573  25.701  19.213  12.156 -0.1314 -0.0456 -0.2334
 2946DOPE   C3B34574  25.990  19.103  11.821  0.1793 -0.0121  0.0567
 2946DOPE   C4B34575  26.272  18.729  11.710  0.2399  0.0299 -0.0743
 2947DOPE   NH334576  27.023  12.695  13.865 -0.0095 -0.0415 -0.2581
 2947DOPE   PO434577  26.842  12.782  13.651  0.0282 -0.2481 -0.0100
 2947DOPE   GL134578  26.839  12.798  13.229 -0.1668 -0.2053 -0.3353
 2947DOPE   GL234579  26.524  12.835  13.216 -0.0190 -0.3969 -0.1347
 2947DOPE   C1A34580  27.193  12.749  12.951 -0.1902 -0.0998  0.0511
 2947DOPE   D2A34581  27.546  12.644  12.620  0.0150 -0.0289  0.2574
 2947DOPE   C3A34582  27.660  12.705  12.192 -0.2090  0.2432 -0.2622
 2947DOPE   C4A34583  27.458  12.563  11.810 -0.0536 -0.2150 -0.2030
 2947DOPE   C1B34584  26.715  12.652  12.832  0.1247  0.0825  0.5623
 2947DOPE   D2B34585  26.557  12.363  12.439 -0.2017 -0.6331 -0.1549
 2947DOPE   C3B34586  26.748  12.158  12.038 -0.0868  0.1365  0.0567
 2947DOPE   C4B34587  26.950  12.073  11.679 -0.0992  0.0117 -0.1695
 2948DOPC   NC334588  30.808  17.016  14.023 -0.0631  0.1750  0.2032
 2948DOPC   PO434589  30.633  16.746  13.789 -0.1847  0.0298  0.0584
 2948DOPC   GL134590  30.740  16.671  13.323 -0.3597 -0.1888 -0.2470
 2948DOPC   GL234591  30.465  16.683  13.214  0.1834 -0.1812 -0.0074
 2948DOPC   C1A34592  30.816  16.765  12.836 -0.0769  0.3621  0.1074
 2948DOPC   D2A34593  30.626  16.833  12.455 -0.3091 -0.0186  0.0138
 2948DOPC   C3A34594  31.026  16.843  12.155 -0.0441  0.2925 -0.1567
 2948DOPC   C4A34595  31.362  16.589  12.231 -0.1999 -0.1690 -0.3863
 2948DOPC   C1B34596  30.074  16.516  12.932  0.0219  0.0366  0.1811
 2948DOPC   D2B34597  29.700  16.194  12.986 -0.2753  0.0920 -0.2522
 2948DOPC   C3B34598  29.493  16.016  12.543 -0.1280  0.2395 -0.0112
 2948DOPC   C4B34599  29.128  15.940  12.229 -0.0172 -0.1420 -0.0155
 2949POSM   NC334600  31.689  20.560  13.667  0.0390  0.1081  0.0575
 2949POSM   PO434601  31.510  20.881  13.526  0.4049  0.2209 -0.0597
 2949POSM   AM134602  31.519  20.691  13.260  0.0646  0.2890  0.1660
 2949POSM   AM234603  31.620  20.442  13.193 -0.1489  0.1614  0.1082
 2949POSM   T1A34604  31.605  20.672  12.755  0.2454  0.1102 -0.0020
 2949POSM   C2A34605  31.936  20.700  12.407  0.0651  0.2669 -0.3296
 2949POSM   C3A34606  32.330  20.911  12.184 -0.0438  0.0181  0.2570
 2949POSM   C1B34607  31.412  20.278  12.976  0.2201 -0.0924 -0.2252
 2949POSM   D2B34608  31.241  20.100  12.530 -0.1845 -0.1725  0.2013
 2949POSM   C3B34609  31.597  20.269  12.340 -0.2171 -0.1118 -0.1915
 2949POSM   C4B34610  31.793  20.153  11.900 -0.0132  0.2166  0.3231
 2950POSM   NC334611  27.508  22.797  13.059  0.1945 -0.3266 -0.0277
 2950POSM   PO434612  27.197  22.601  12.908 -0.4868 -0.2438 -0.0309
 2950POSM   AM134613  27.110  22.446  12.638  0.0357  0.4571  0.2250
 2950POSM   AM234614  27.294  22.329  12.477  0.2251  0.2372  0.2579
 2950POSM   T1A34615  26.936  22.411  12.155 -0.1019 -0.0990  0.0172
 2950POSM   C2A34616  27.071  22.540  11.708 -0.2375  0.0256  0.0693
 2950POSM   C3A34617  27.362  22.501  11.379  0.0649  0.0653 -0.0727
 2950POSM   C1B34618  27.423  22.462  12.202  0.0856 -0.2190 -0.0146
 2950POSM   D2B34619  27.553  22.242  11.818  0.3320 -0.2146  0.3008
 2950POSM   C3B34620  27.854  22.400  11.478 -0.0692 -0.1209 -0.0193
 2950POSM   C4B34621  27.835  22.678  11.062  0.2474 -0.1004  0.2827
 2951DOPC   NC334622  33.309  22.178  13.600  0.0406  0.2067  0.0281
 2951DOPC   PO434623  33.601  21.994  13.832  0.1982  0.0009 -0.0012
 2951DOPC   GL134624  33.748  22.113  13.385 -0.1339  0.0139  0.0439
 2951DOPC   GL234625  33.608  22.191  13.163  0.0400  0.0272  0.2065
 2951DOPC   C1A34626  34.103  22.427  13.242  0.1175  0.1368 -0.0185
 2951DOPC   D2A34627  34.491  22.546  13.026 -0.1145  0.1497  0.1164
 2951DOPC   C3A34628  34.534  22.704  12.618 -0.2202 -0.1109  0.1423
 2951DOPC   C4A34629  34.748  22.701  12.225  0.1960 -0.0082 -0.0670
 2951DOPC   C1B34630  33.490  21.963  12.787  0.2163 -0.0278 -0.0549
 2951DOPC   D2B34631  33.687  21.721  12.420 -0.0541 -0.0016  0.0986
 2951DOPC   C3B34632  33.535  21.605  11.992 -0.1323  0.0374  0.1526
 2951DOPC   C4B34633  33.777  21.434  11.656  0.1742  0.0978 -0.1119
 2952DOPS   CNO34634  26.792  21.229  12.723  0.2384  0.1569 -0.0880
 2952DOPS   PO434635  26.533  20.976  12.747  0.0292  0.3306 -0.2140
 2952DOPS   GL134636  26.465  21.137  12.393 -0.0276 -0.1503 -0.2643
 2952DOPS   GL234637  26.202  21.013  12.311  0.2120 -0.1276  0.0344
 2952DOPS   C1A34638  26.657  20.811  12.175  0.3179 -0.4450  0.1177
 2952DOPS   D2A34639  26.841  20.418  12.078 -0.0663  0.1500  0.0640
 2952DOPS   C3A34640  26.847  20.400  11.589  0.1311 -0.1955 -0.1151
 2952DOPS   C4A34641  26.588  20.089  11.340  0.1505 -0.1751  0.2437
 2952DOPS   C1B34642  25.971  20.888  11.886 -0.2608 -0.0445 -0.0127
 2952DOPS   D2B34643  25.820  20.789  11.492  0.0844  0.1999 -0.1094
 2952DOPS   C3B34644  25.781  20.609  11.064 -0.0110  0.2372  0.4197
 2952DOPS   C4B34645  25.738  20.141  10.926 -0.0525  0.0337 -0.0841
 2953DOPE   NH334646  33.801  17.844  13.650  0.0694  0.0288  0.2602
 2953DOPE   PO434647  33.780  17.751  13.329  0.0285  0.0686 -0.1696
 2953DOPE   GL134648  33.764  17.845  13.004 -0.0557 -0.0162  0.1520
 2953DOPE   GL234649  34.068  17.813  12.901  0.2966 -0.0600  0.1849
 2953DOPE   C1A34650  33.524  18.043  12.722  0.2281  0.2000 -0.1380
 2953DOPE   D2A34651  33.571  18.383  12.430 -0.0560 -0.2882  0.0492
 2953DOPE   C3A34652  33.394  18.800  12.318 -0.3659  0.1325  0.2326
 2953DOPE   C4A34653  33.403  19.250  12.129 -0.1067  0.0124  0.2133
 2953DOPE   C1B34654  33.966  18.242  12.770 -0.2391  0.3028  0.1689
 2953DOPE   D2B34655  33.990  18.619  12.537 -0.0446  0.1590  0.2202
 2953DOPE   C3B34656  33.907  18.723  12.085 -0.0684 -0.5087  0.0832
 2953DOPE   C4B34657  33.654  18.892  11.778 -0.0846  0.0271  0.1423
 2954DOPS   CNO34658  27.499  18.473  13.598  0.1518  0.1730 -0.0986
 2954DOPS   PO434659  27.754  18.490  13.268 -0.1425 -0.0279 -0.1352
 2954DOPS   GL134660  27.838  18.497  12.829 -0.1308  0.2442 -0.2373
 2954DOPS   GL234661  27.582  18.638  12.804  0.0098 -0.3674  0.0247
 2954DOPS   C1A34662  27.732  18.101  12.573 -0.0835  0.1450  0.1211
 2954DOPS   D2A34663  27.641  17.673  12.684  0.1264  0.0507  0.0364
 2954DOPS   C3A34664  27.528  17.357  12.378  0.0157 -0.2222  0.4825
 2954DOPS   C4A34665  27.627  17.058  12.075 -0.0983 -0.4059  0.2961
 2954DOPS   C1B34666  27.566  18.497  12.391 -0.1824  0.0987  0.0300
 2954DOPS   D2B34667  27.699  18.246  12.019  0.3960  0.4625  0.1129
 2954DOPS   C3B34668  27.620  17.795  12.051  0.1128  0.2877  0.2783
 2954DOPS   C4B34669  27.375  17.431  11.927  0.2437 -0.1237  0.0996
 2955DOPS   CNO34670  26.240  12.688  13.766  0.2224 -0.1372  0.0591
 2955DOPS   PO434671  26.397  12.362  13.668  0.1393 -0.1597  0.1495
 2955DOPS   GL134672  26.766  12.310  13.358  0.2958  0.0382 -0.0552
 2955DOPS   GL234673  26.588  12.301  13.164  0.0369  0.0094 -0.0359
 2955DOPS   C1A34674  27.031  12.215  13.018 -0.0059 -0.1612 -0.1921
 2955DOPS   D2A34675  27.022  12.269  12.551 -0.1062  0.1780  0.4098
 2955DOPS   C3A34676  27.170  12.559  12.277  0.2527  0.3444  0.1369
 2955DOPS   C4A34677  27.065  12.944  11.979 -0.0776  0.1860  0.1338
 2955DOPS   C1B34678  26.264  12.446  12.851  0.1748 -0.2911  0.1199
 2955DOPS   D2B34679  25.817  12.637  12.789 -0.0166  0.1829  0.2037
 2955DOPS   C3B34680  25.824  13.077  12.565 -0.0097 -0.1483 -0.0671
 2955DOPS   C4B34681  25.549  13.461  12.524 -0.1240 -0.3618  0.1416
 2956POSM   NC334682  24.012  20.849  12.512 -0.0658 -0.0322  0.0840
 2956POSM   PO434683  23.679  21.030  12.341 -0.1598 -0.3331 -0.3450
 2956POSM   AM134684  23.596  20.995  11.998  0.2028  0.0627 -0.0485
 2956POSM   AM234685  23.414  20.861  11.823 -0.0036  0.0499 -0.0884
 2956POSM   T1A34686  23.798  21.010  11.532  0.0212 -0.0139  0.1395
 2956POSM   C2A34687  24.044  20.791  11.240 -0.0030 -0.0322 -0.0644
 2956POSM   C3A34688  24.125  20.859  10.794  0.1111 -0.2055 -0.1719
 2956POSM   C1B34689  23.294  20.967  11.558 -0.3463 -0.0799  0.1084
 2956POSM   D2B34690  23.068  21.069  11.119  0.0264  0.2071  0.0112
 2956POSM   C3B34691  23.267  21.310  10.803  0.2080 -0.0036 -0.1799
 2956POSM   C4B34692  23.243  21.397  10.327 -0.0831  0.0648 -0.0687
 2957POSM   NC334693  31.566  17.843  13.524  0.3139 -0.0880 -0.1529
 2957POSM   PO434694  31.947  17.838  13.683  0.1860  0.5938 -0.2143
 2957POSM   AM134695  32.079  17.828  13.383 -0.0198  0.2352  0.4869
 2957POSM   AM234696  32.104  17.622  13.201 -0.2888  0.2642  0.2526
 2957POSM   T1A34697  32.082  18.055  12.936 -0.1240  0.2336  0.0907
 2957POSM   C2A34698  32.086  18.279  12.486  0.2808 -0.2157  0.2165
 2957POSM   C3A34699  32.041  18.354  12.047 -0.4419 -0.0565 -0.0425
 2957POSM   C1B34700  32.062  17.504  12.893  0.1523 -0.1906 -0.2603
 2957POSM   D2B34701  32.243  17.280  12.509 -0.1279 -0.2156 -0.0861
 2957POSM   C3B34702  31.943  17.157  12.193  0.1950  0.0799 -0.0819
 2957POSM   C4B34703  31.570  16.981  12.029  0.4427 -0.0159  0.1944
 2958DOPC   NC334704  24.315  14.179  12.870 -0.1081  0.0840 -0.0717
 2958DOPC   PO434705  24.255  14.539  12.717 -0.4736  0.2516  0.1049
 2958DOPC   GL134706  24.236  14.484  12.364  0.0975 -0.0654 -0.3856
 2958DOPC   GL234707  24.224  14.135  12.396  0.1051 -0.0391 -0.3895
 2958DOPC   C1A34708  24.546  14.349  12.051 -0.1993 -0.1580  0.2775
 2958DOPC   D2A34709  24.769  14.394  11.623  0.3425 -0.0785  0.2151
 2958DOPC   C3A34710  25.160  14.213  11.429 -0.0608 -0.0697 -0.1103
 2958DOPC   C4A34711  25.440  14.086  11.063  0.0834 -0.0833 -0.1995
 2958DOPC   C1B34712  24.068  14.255  12.009  0.1248 -0.2379  0.1413
 2958DOPC   D2B34713  24.222  14.454  11.646 -0.3550  0.0360  0.0203
 2958DOPC   C3B34714  23.831  14.676  11.489 -0.0706 -0.0329 -0.0369
 2958DOPC   C4B34715  23.579  15.049  11.638 -0.2400 -0.3592 -0.1310
 2959POSM   NC334716  29.620  24.105  13.330 -0.0694  0.4256  0.2636
 2959POSM   PO434717  29.942  24.144  13.522  0.0330 -0.1088 -0.0779
 2959POSM   AM134718  30.089  24.116  13.256 -0.2441 -0.2451 -0.2338
 2959POSM   AM234719  30.039  24.151  12.992 -0.3868  0.2519 -0.0703
 2959POSM   T1A34720  30.530  24.017  12.983  0.2521 -0.1189 -0.4706
 2959POSM   C2A34721  30.557  23.830  12.527 -0.1431  0.1367 -0.0444
 2959POSM   C3A34722  30.726  23.488  12.272  0.2538 -0.0295 -0.2487
 2959POSM   C1B34723  30.185  24.196  12.655  0.1760 -0.2468 -0.2667
 2959POSM   D2B34724  30.356  24.161  12.205 -0.0204 -0.1902  0.2519
 2959POSM   C3B34725  30.132  24.068  11.859  0.1948  0.3282 -0.4467
 2959POSM   C4B34726  30.003  24.155  11.442  0.3933 -0.1762  0.0296
 2960DOPC   NC334727  29.731  18.568  13.806  0.1986  0.0400 -0.0400
 2960DOPC   PO434728  30.011  18.428  13.598 -0.3075  0.4893  0.0373
 2960DOPC   GL134729  30.081  18.297  13.272  0.3548 -0.0681 -0.3291
 2960DOPC   GL234730  30.134  18.048  13.137  0.2645  0.1794  0.1453
 2960DOPC   C1A34731  30.424  18.445  13.028 -0.1320 -0.2770 -0.0870
 2960DOPC   D2A34732  30.262  18.589  12.583 -0.2765 -0.0012  0.1553
 2960DOPC   C3A34733  30.118  18.536  12.124  0.2615  0.0328 -0.1487
 2960DOPC   C4A34734  29.807  18.659  11.798  0.0176  0.3112 -0.1991
 2960DOPC   C1B34735  30.375  18.051  12.753  0.2080 -0.0524 -0.0083
 2960DOPC   D2B34736  30.511  18.103  12.308  0.1267 -0.2354  0.0232
 2960DOPC   C3B34737  30.878  18.292  12.107  0.0312 -0.3742 -0.2913
 2960DOPC   C4B34738  31.060  18.394  11.685 -0.1757 -0.1182 -0.2382
 2961POSM   NC334739  27.372  21.228  12.574  0.1568  0.1547  0.0016
 2961POSM   PO434740  27.705  21.067  12.834  0.1826  0.1955  0.3265
 2961POSM   AM134741  27.765  20.910  12.561  0.1339 -0.3405  0.3144
 2961POSM   AM234742  27.929  20.697  12.548 -0.1572  0.0003 -0.4857
 2961POSM   T1A34743  27.715  20.761  12.075  0.1317 -0.0243  0.1763
 2961POSM   C2A34744  27.895  20.443  11.735 -0.2845 -0.1619  0.1961
 2961POSM   C3A34745  27.973  20.349  11.310 -0.2732  0.0239  0.4809
 2961POSM   C1B34746  28.127  20.832  12.276  0.1188 -0.1035 -0.3475
 2961POSM   D2B34747  28.382  20.743  11.919  0.0697  0.1656 -0.0282
 2961POSM   C3B34748  28.491  20.438  11.593  0.0550  0.1462  0.2601
 2961POSM   C4B34749  28.529  20.349  11.164 -0.2662 -0.1271  0.0850
 2962POSM   NC334750  30.436  14.285  13.802  0.0186 -0.0763  0.5078
 2962POSM   PO434751  30.440  13.937  13.952  0.2034 -0.0324 -0.0952
 2962POSM   AM134752  30.442  13.867  13.638 -0.1213  0.0512 -0.0490
 2962POSM   AM234753  30.572  13.983  13.414  0.2685  0.2482 -0.1054
 2962POSM   T1A34754  30.274  13.588  13.250  0.1377 -0.1770 -0.0909
 2962POSM   C2A34755  30.082  13.359  12.938  0.0716  0.1992  0.1098
 2962POSM   C3A34756  29.953  13.151  12.529 -0.0252  0.1278  0.0396
 2962POSM   C1B34757  30.537  13.947  13.088  0.1266 -0.0886  0.0624
 2962POSM   D2B34758  30.405  13.674  12.715  0.0609  0.0427 -0.1196
 2962POSM   C3B34759  30.388  13.924  12.305  0.0289  0.1258 -0.0382
 2962POSM   C4B34760  30.684  13.943  11.942 -0.0569  0.0495 -0.2995
 2963DOPC   NC334761  23.861  13.792  12.592  0.0846 -0.2211 -0.4138
 2963DOPC   PO434762  24.079  13.497  12.717  0.2184 -0.0741  0.2298
 2963DOPC   GL134763  23.853  13.389  12.386 -0.3841  0.2499 -0.1484
 2963DOPC   GL234764  23.633  13.431  12.277  0.2561 -0.0864  0.2827
 2963DOPC   C1A34765  24.057  13.462  11.933 -0.1840 -0.1326  0.2008
 2963DOPC   D2A34766  24.115  13.192  11.603 -0.3375 -0.3341  0.2851
 2963DOPC   C3A34767  23.818  12.981  11.264  0.2771  0.2942 -0.1166
 2963DOPC   C4A34768  23.684  12.912  10.802  0.0622  0.0176  0.3171
 2963DOPC   C1B34769  23.520  13.541  11.827 -0.0118  0.1763 -0.2089
 2963DOPC   D2B34770  23.343  13.382  11.415  0.1150  0.1630 -0.0623
 2963DOPC   C3B34771  23.456  13.302  10.983 -0.0680 -0.3070 -0.0948
 2963DOPC   C4B34772  23.392  13.294  10.514  0.1276 -0.0242  0.1237
 2964DOPE   NH334773  25.126  15.814  13.707 -0.2584 -0.5268 -0.2728
 2964DOPE   PO434774  25.140  16.058  13.497  0.3232  0.2246  0.2198
 2964DOPE   GL134775  25.223  16.233  13.145  0.3568  0.3929 -0.1999
 2964DOPE   GL234776  25.254  16.009  12.941 -0.1779  0.1517 -0.0512
 2964DOPE   C1A34777  25.485  16.465  12.886 -0.3995  0.1332  0.1042
 2964DOPE   D2A34778  25.953  16.533  12.684 -0.1064 -0.1873  0.2721
 2964DOPE   C3A34779  26.106  17.010  12.549 -0.1588 -0.1239 -0.0398
 2964DOPE   C4A34780  26.418  17.158  12.336  0.0445 -0.2234 -0.0334
 2964DOPE   C1B34781  25.125  16.145  12.514 -0.1195 -0.0490 -0.3630
 2964DOPE   D2B34782  24.799  16.297  12.173  0.1171  0.1464  0.1949
 2964DOPE   C3B34783  24.837  16.473  11.780 -0.2401 -0.2313  0.0753
 2964DOPE   C4B34784  25.103  16.689  11.501  0.0746 -0.0297 -0.1023
 2965DOPC   NC334785  24.688  17.875  13.724  0.0938  0.3111  0.0365
 2965DOPC   PO434786  24.807  18.170  13.478 -0.3708 -0.2432  0.2279
 2965DOPC   GL134787  24.949  18.143  13.027 -0.2695 -0.1723  0.1181
 2965DOPC   GL234788  24.933  18.412  12.872  0.1165 -0.0715  0.1932
 2965DOPC   C1A34789  24.834  17.921  12.618 -0.0980 -0.2319 -0.0084
 2965DOPC   D2A34790  24.868  17.579  12.313  0.0812  0.2592  0.1580
 2965DOPC   C3A34791  24.726  17.276  12.000 -0.0969 -0.1606 -0.1633
 2965DOPC   C4A34792  24.654  16.908  11.712  0.1049  0.0945  0.0575
 2965DOPC   C1B34793  25.022  18.383  12.483 -0.3177 -0.0761  0.0265
 2965DOPC   D2B34794  25.417  18.532  12.336 -0.4206  0.0239 -0.2575
 2965DOPC   C3B34795  25.310  18.435  11.888  0.1049 -0.2191 -0.1782
 2965DOPC   C4B34796  25.311  18.589  11.462  0.3926  0.0438  0.2945
 2966POSM   NC334797  33.024  20.460  13.758  0.1355  0.2904  0.0645
 2966POSM   PO434798  32.631  20.446  13.813 -0.1053 -0.2813  0.2187
 2966POSM   AM134799  32.550  20.541  13.505  0.1429  0.1621  0.1753
 2966POSM   AM234800  32.629  20.442  13.279  0.0317  0.0256 -0.6554
 2966POSM   T1A34801  32.401  20.875  13.157  0.1176 -0.3567 -0.0257
 2966POSM   C2A34802  32.451  21.312  13.084  0.3460  0.3172 -0.1268
 2966POSM   C3A34803  32.478  21.543  12.770 -0.0658  0.1307  0.2300
 2966POSM   C1B34804  32.514  20.229  13.060 -0.1338 -0.0605  0.0396
 2966POSM   D2B34805  32.434  20.043  12.566 -0.0449  0.1509  0.0405
 2966POSM   C3B34806  32.861  20.145  12.351 -0.4666 -0.1261  0.1145
 2966POSM   C4B34807  33.029  20.310  12.042  0.0484 -0.0828 -0.1028
 2967POSM   NC334808  25.062  24.521  12.374 -0.2493 -0.0376 -0.2475
 2967POSM   PO434809  25.281  24.239  12.433 -0.2767 -0.0036 -0.0164
 2967POSM   AM134810  25.279  24.114  12.136 -0.0579 -0.2095  0.2079
 2967POSM   AM234811  25.277  23.875  12.009 -0.0950 -0.0016 -0.3695
 2967POSM   T1A34812  25.245  24.198  11.625  0.1516 -0.0392 -0.1575
 2967POSM   C2A34813  24.901  24.305  11.330  0.0627  0.2357 -0.0985
 2967POSM   C3A34814  24.518  24.534  11.276  0.2232  0.2788  0.0526
 2967POSM   C1B34815  25.083  23.588  11.897  0.0514 -0.0464 -0.1954
 2967POSM   D2B34816  25.057  23.181  11.634  0.1980 -0.1803  0.1794
 2967POSM   C3B34817  24.863  22.891  11.298  0.0371 -0.1834 -0.1609
 2967POSM   C4B34818  24.841  22.472  11.076 -0.0001  0.2305 -0.0389
 2968POSM   NC334819  24.926  20.687  12.552  0.3327  0.0931  0.0437
 2968POSM   PO434820  24.899  21.092  12.657 -0.0647 -0.2072  0.1971
 2968POSM   AM134821  24.880  21.115  12.288  0.3752 -0.1125 -0.1819
 2968POSM   AM234822  24.768  21.280  12.077  0.1819  0.1503 -0.1958
 2968POSM   T1A34823  25.086  20.910  11.903  0.2580  0.2141  0.0313
 2968POSM   C2A34824  24.937  20.557  11.613 -0.1197 -0.0786  0.1306
 2968POSM   C3A34825  24.916  20.259  11.218 -0.1044 -0.0437  0.1602
 2968POSM   C1B34826  24.953  21.418  11.898 -0.2050  0.3594  0.0579
 2968POSM   D2B34827  25.091  21.562  11.483  0.0028  0.2288 -0.0739
 2968POSM   C3B34828  25.149  21.292  11.069  0.0433 -0.2557  0.0584
 2968POSM   C4B34829  25.211  21.078  10.698  0.1276  0.0079 -0.4435
 2969POSM   NC334830  27.664  22.297  12.788 -0.0985 -0.0892 -0.1970
 2969POSM   PO434831  27.985  22.517  12.838  0.1648 -0.2168  0.0364
 2969POSM   AM134832  28.036  22.670  12.561 -0.2035 -0.1888  0.6016
 2969POSM   AM234833  27.915  22.561  12.314  0.0299 -0.3227 -0.1184
 2969POSM   T1A34834  28.177  22.971  12.163  0.0975 -0.0415  0.0260
 2969POSM   C2A34835  28.169  23.168  11.767  0.0024 -0.0777  0.2051
 2969POSM   C3A34836  28.427  23.392  11.418 -0.3984 -0.1889  0.1138
 2969POSM   C1B34837  27.856  22.598  11.980 -0.0363  0.2698 -0.0494
 2969POSM   D2B34838  27.884  22.870  11.577 -0.0430 -0.0504 -0.1183
 2969POSM   C3B34839  27.707  23.268  11.664  0.1300  0.1833  0.1071
 2969POSM   C4B34840  27.560  23.662  11.418 -0.3101  0.4550  0.4164
 2970DOPC   NC334841   0.244  20.003  14.100 -0.1351 -0.0506  0.1214
 2970DOPC   PO434842  -0.005  20.123  13.847 -0.1241 -0.0713  0.2414
 2970DOPC   GL134843   0.202  20.126  13.469 -0.3351 -0.0615  0.0529
 2970DOPC   GL234844   0.353  19.965  13.217  0.2436 -0.2209 -0.0994
 2970DOPC   C1A34845   0.072  20.319  13.058 -0.1148 -0.4231  0.0820
 2970DOPC   D2A34846   0.298  20.512  12.712 -0.3199 -0.2959  0.1933
 2970DOPC   C3A34847   0.178  20.409  12.260 -0.0572 -0.0505  0.2692
 2970DOPC   C4A34848   0.081  20.388  11.801 -0.1805  0.1575  0.2060
 2970DOPC   C1B34849  -0.025  19.798  13.080 -0.1344 -0.0032 -0.0596
 2970DOPC   D2B34850  -0.376  19.928  12.788 -0.1689  0.0443  0.1426
 2970DOPC   C3B34851  -0.751  20.124  12.633  0.2727  0.0221 -0.2182
 2970DOPC   C4B34852  -1.145  19.901  12.476  0.0109  0.1381  0.0557
 2971POSM   NC334853  33.391  20.648  14.032  0.1473  0.0535 -0.0397
 2971POSM   PO434854  33.395  20.928  13.741 -0.0642 -0.0670 -0.1683
 2971POSM   AM134855  33.378  20.696  13.523  0.1124 -0.0513  0.4313
 2971POSM   AM234856  33.212  20.551  13.306  0.1721  0.0426  0.1239
 2971POSM   T1A34857  33.666  20.484  13.139  0.1384  0.4159 -0.2443
 2971POSM   C2A34858  34.041  20.456  12.894 -0.2769 -0.1277 -0.1924
 2971POSM   C3A34859  34.250  20.439  12.490 -0.3652 -0.3064  0.0033
 2971POSM   C1B34860  33.163  20.681  12.949  0.3602 -0.1629  0.2694
 2971POSM   D2B34861  33.565  20.701  12.696 -0.0117 -0.3416  0.1660
 2971POSM   C3B34862  33.767  20.630  12.252  0.0220 -0.0688 -0.1375
 2971POSM   C4B34863  34.209  20.658  11.960  0.2969 -0.1686 -0.1899
 2972DOPS   CNO34864  27.402  19.765  13.222 -0.0214  0.0660 -0.1678
 2972DOPS   PO434865  27.467  19.409  13.254 -0.1398 -0.0011  0.0815
 2972DOPS   GL134866  27.355  19.446  12.857  0.2020  0.2395 -0.0417
 2972DOPS   GL234867  27.581  19.335  12.743  0.0904  0.1069  0.2039
 2972DOPS   C1A34868  27.379  19.544  12.367  0.1196  0.1232 -0.2051
 2972DOPS   D2A34869  27.379  19.477  11.913 -0.0987 -0.0756 -0.2603
 2972DOPS   C3A34870  26.980  19.600  11.668  0.0145  0.0535  0.0740
 2972DOPS   C4A34871  26.553  19.647  11.459  0.0609 -0.3947 -0.0350
 2972DOPS   C1B34872  27.475  19.072  12.383  0.3020 -0.1720  0.0803
 2972DOPS   D2B34873  27.257  18.875  12.058 -0.3005 -0.1542 -0.2544
 2972DOPS   C3B34874  27.378  19.014  11.605 -0.0192  0.3160 -0.1255
 2972DOPS   C4B34875  27.344  19.076  11.118 -0.1098 -0.1691  0.1156
 2973DOPS   CNO34876  21.894  22.117  12.071 -0.2205  0.0318 -0.1444
 2973DOPS   PO434877  21.583  22.326  12.123  0.0247  0.1979  0.2745
 2973DOPS   GL134878  21.697  22.516  11.799 -0.0079  0.0760 -0.3284
 2973DOPS   GL234879  21.511  22.452  11.593  0.2871 -0.0591 -0.3593
 2973DOPS   C1A34880  21.995  22.595  11.403  0.2227 -0.1765 -0.1707
 2973DOPS   D2A34881  21.975  22.690  10.949 -0.0116  0.0824  0.0795
 2973DOPS   C3A34882  22.235  22.561  10.605  0.0056  0.2133  0.0930
 2973DOPS   C4A34883  22.419  22.629  10.189 -0.2502 -0.0085  0.1419
 2973DOPS   C1B34884  21.623  22.317  11.146 -0.1573 -0.1150 -0.0107
 2973DOPS   D2B34885  21.691  22.296  10.686 -0.3258 -0.0987 -0.2229
 2973DOPS   C3B34886  22.095  22.075  10.540  0.3079  0.1979 -0.0969
 2973DOPS   C4B34887  22.519  22.191  10.440  0.1940 -0.3085 -0.2409
 2974DOPS   CNO34888  29.759  20.582  13.225 -0.0205 -0.2288  0.1978
 2974DOPS   PO434889  29.387  20.521  13.100 -0.2327  0.2471  0.0857
 2974DOPS   GL134890  29.418  20.463  12.755  0.0498  0.0156 -0.2579
 2974DOPS   GL234891  29.481  20.206  12.675  0.1899 -0.0905  0.1909
 2974DOPS   C1A34892  29.066  20.369  12.426 -0.3337 -0.0089  0.0432
 2974DOPS   D2A34893  28.839  20.350  11.985 -0.2032  0.1714 -0.1295
 2974DOPS   C3A34894  28.407  20.118  11.918  0.1409  0.0743  0.1813
 2974DOPS   C4A34895  28.334  19.711  12.150  0.1358  0.0997 -0.0531
 2974DOPS   C1B34896  29.539  20.524  12.283  0.1492  0.0474 -0.3922
 2974DOPS   D2B34897  29.762  20.644  11.879  0.0671 -0.1313  0.0177
 2974DOPS   C3B34898  30.239  20.747  11.922  0.1156  0.2375 -0.0970
 2974DOPS   C4B34899  30.578  20.943  11.711  0.3316  0.0463  0.2609
 2975POSM   NC334900  31.930  16.243  13.518  0.0725  0.2743  0.2338
 2975POSM   PO434901  31.588  16.431  13.635  0.0016 -0.2978 -0.1891
 2975POSM   AM134902  31.530  16.178  13.391 -0.2179 -0.1357  0.2628
 2975POSM   AM234903  31.464  15.927  13.358 -0.2383 -0.0967 -0.3169
 2975POSM   T1A34904  31.541  16.048  12.877  0.0390  0.0125  0.1335
 2975POSM   C2A34905  31.560  16.173  12.428  0.4303  0.0004  0.0293
 2975POSM   C3A34906  31.511  16.190  11.944 -0.1895  0.0560  0.0034
 2975POSM   C1B34907  31.291  15.689  13.161  0.2155 -0.0792 -0.0081
 2975POSM   D2B34908  31.241  15.454  12.766  0.0031 -0.1473 -0.6242
 2975POSM   C3B34909  31.261  15.701  12.438 -0.0650  0.1167  0.0305
 2975POSM   C4B34910  31.081  15.990  12.136 -0.5436  0.1204 -0.0936
 2976DOPE   NH334911  30.771  22.978  13.157 -0.0753  0.2186  0.1686
 2976DOPE   PO434912  30.575  22.831  13.391  0.1224  0.1047  0.0567
 2976DOPE   GL134913  30.679  22.582  13.049  0.2525  0.2613  0.0949
 2976DOPE   GL234914  30.442  22.621  12.829  0.2952  0.2504  0.2860
 2976DOPE   C1A34915  31.018  22.654  12.760 -0.0893 -0.0045  0.0095
 2976DOPE   D2A34916  31.248  22.756  12.421  0.2030  0.2907 -0.2698
 2976DOPE   C3A34917  31.267  22.606  11.956 -0.1374 -0.1297  0.3667
 2976DOPE   C4A34918  31.110  22.379  11.647 -0.1216 -0.2522  0.0379
 2976DOPE   C1B34919  30.051  22.802  12.706 -0.0602 -0.4417  0.0208
 2976DOPE   D2B34920  29.765  22.751  12.357  0.1575 -0.1642  0.0772
 2976DOPE   C3B34921  29.703  22.942  11.933 -0.0140 -0.0634 -0.0720
 2976DOPE   C4B34922  29.742  22.974  11.506  0.1214  0.0972 -0.0174
 2977POSM   NC334923  27.399  13.758  13.147 -0.0604  0.1913  0.2147
 2977POSM   PO434924  27.264  13.659  13.519  0.1673 -0.1043 -0.0859
 2977POSM   AM134925  26.965  13.727  13.432 -0.1616  0.0369 -0.0515
 2977POSM   AM234926  26.862  13.792  13.145 -0.0516  0.0833 -0.0924
 2977POSM   T1A34927  26.616  14.098  13.372 -0.2359 -0.0555 -0.0760
 2977POSM   C2A34928  26.224  14.349  13.202 -0.0507  0.0250  0.0245
 2977POSM   C3A34929  26.116  14.754  12.933  0.1385 -0.0506 -0.4093
 2977POSM   C1B34930  26.737  13.849  12.820 -0.0092  0.0795  0.1108
 2977POSM   D2B34931  26.584  14.121  12.473 -0.2454 -0.0034  0.2621
 2977POSM   C3B34932  26.557  14.096  12.031  0.1864 -0.1091 -0.0342
 2977POSM   C4B34933  26.318  14.209  11.674 -0.0653  0.1292  0.1222
 2978DOPS   CNO34934  28.948  17.456  13.590  0.0714 -0.0126  0.1032
 2978DOPS   PO434935  29.048  17.198  13.329 -0.0139 -0.2833 -0.1422
 2978DOPS   GL134936  29.018  17.302  12.924  0.0048  0.2344 -0.0409
 2978DOPS   GL234937  29.123  17.041  12.829 -0.5219  0.1725 -0.0999
 2978DOPS   C1A34938  29.253  17.631  12.703  0.0551 -0.1743 -0.3020
 2978DOPS   D2A34939  29.076  17.934  12.412  0.1608  0.2044 -0.0116
 2978DOPS   C3A34940  29.392  18.240  12.578  0.2422 -0.0784 -0.2810
 2978DOPS   C4A34941  29.672  18.503  12.428 -0.0274  0.1199  0.0121
 2978DOPS   C1B34942  28.863  17.249  12.505 -0.3230  0.2878  0.1429
 2978DOPS   D2B34943  28.494  17.377  12.179  0.1254 -0.3143 -0.0902
 2978DOPS   C3B34944  28.441  17.187  11.873 -0.0296 -0.1837 -0.4350
 2978DOPS   C4B34945  28.278  17.132  11.444 -0.0809 -0.0368  0.1611
 2979POSM   NC334946  34.069  16.707  13.379  0.0539  0.3552  0.0778
 2979POSM   PO434947  34.336  16.940  13.591 -0.2010 -0.1499 -0.2471
 2979POSM   AM134948  34.448  17.022  13.317  0.1847  0.1163 -0.0768
 2979POSM   AM234949  34.562  17.222  13.179  0.0295  0.1583  0.1801
 2979POSM   T1A34950  34.536  16.839  12.845 -0.1162 -0.1396 -0.0022
 2979POSM   C2A34951  34.600  16.843  12.364 -0.0677  0.0212  0.0671
 2979POSM   C3A34952  34.943  16.715  12.093 -0.1819 -0.0260 -0.0909
 2979POSM   C1B34953  34.477  17.376  12.930 -0.0721  0.4344  0.1195
 2979POSM   D2B34954  34.323  17.553  12.528  0.2395  0.0667  0.0259
 2979POSM   C3B34955  34.481  17.777  12.172  0.1403  0.1517 -0.1641
 2979POSM   C4B34956  34.808  18.033  12.332 -0.0723  0.1817 -0.2141
 2980POSM   NC334957  26.721  16.007  13.513  0.1109  0.1417 -0.0676
 2980POSM   PO434958  26.903  15.775  13.286  0.1022 -0.2092 -0.2595
 2980POSM   AM134959  26.828  15.572  13.020 -0.2501  0.0153 -0.2811
 2980POSM   AM234960  26.576  15.558  12.869  0.0932  0.2123  0.2015
 2980POSM   T1A34961  26.868  15.323  12.589 -0.3157 -0.0288  0.2337
 2980POSM   C2A34962  26.936  15.015  12.237 -0.4782 -0.0465 -0.0055
 2980POSM   C3A34963  26.799  14.903  11.796  0.3080  0.0229  0.1200
 2980POSM   C1B34964  26.459  15.589  12.573 -0.0935 -0.2006  0.1574
 2980POSM   D2B34965  26.541  15.670  12.115 -0.2662 -0.1458 -0.1254
 2980POSM   C3B34966  26.559  15.657  11.616  0.0565  0.2194 -0.1802
 2980POSM   C4B34967  26.815  15.610  11.209 -0.0638  0.3397 -0.0662
 2981POSM   NC334968  24.567  21.891  12.764 -0.0237  0.0500  0.2159
 2981POSM   PO434969  24.189  21.769  12.644  0.1598  0.0037 -0.1752
 2981POSM   AM134970  24.205  21.844  12.353 -0.0642 -0.3686 -0.0142
 2981POSM   AM234971  24.517  21.916  12.259  0.0125  0.2079  0.2145
 2981POSM   T1A34972  24.150  21.982  11.880 -0.2017  0.0823 -0.0942
 2981POSM   C2A34973  24.325  21.974  11.466 -0.1350 -0.2051 -0.1569
 2981POSM   C3A34974  24.409  22.204  11.088  0.2644  0.0948 -0.0968
 2981POSM   C1B34975  24.544  21.703  11.979 -0.2505  0.0072  0.2878
 2981POSM   D2B34976  24.552  21.515  11.552  0.5806 -0.4380  0.1480
 2981POSM   C3B34977  24.254  21.382  11.321 -0.1469 -0.1386 -0.2443
 2981POSM   C4B34978  24.086  21.314  10.870 -0.0932 -0.0297 -0.2490
 2982DOPE   NH334979   0.218  20.559  14.132  0.1217  0.2094  0.0355
 2982DOPE   PO434980   0.138  20.831  13.989 -0.2801  0.0334  0.2922
 2982DOPE   GL134981   0.258  21.081  13.685  0.2453  0.0624  0.4958
 2982DOPE   GL234982   0.054  21.004  13.470 -0.2047  0.0363 -0.0197
 2982DOPE   C1A34983   0.420  21.325  13.294  0.0751 -0.1500  0.1222
 2982DOPE   D2A34984   0.471  21.403  12.811 -0.0031  0.0878 -0.1751
 2982DOPE   C3A34985   0.300  21.032  12.642 -0.2010  0.1138 -0.2396
 2982DOPE   C4A34986  -0.009  20.945  12.321 -0.1874  0.2433 -0.1780
 2982DOPE   C1B34987   0.268  20.814  13.122  0.2143 -0.0983  0.0462
 2982DOPE   D2B34988   0.714  20.845  12.919  0.1558  0.0091  0.1288
 2982DOPE   C3B34989   0.679  20.729  12.448  0.2588 -0.4046 -0.0802
 2982DOPE   C4B34990   0.979  20.566  12.125 -0.0881 -0.3006 -0.0337
 2983DOPE   NH334991  24.050  19.277  12.548 -0.1794  0.0212 -0.0429
 2983DOPE   PO434992  23.855  19.485  12.427 -0.1639 -0.2654 -0.0873
 2983DOPE   GL134993  23.733  19.343  12.092  0.1674  0.1369 -0.3338
 2983DOPE   GL234994  23.583  19.547  11.955  0.1461 -0.0175  0.2079
 2983DOPE   C1A34995  23.813  19.248  11.633 -0.1812  0.0475  0.0822
 2983DOPE   D2A34996  23.960  18.980  11.297  0.1396  0.2430 -0.3346
 2983DOPE   C3A34997  23.734  18.627  11.121 -0.2500  0.0380  0.3007
 2983DOPE   C4A34998  23.449  18.757  10.936  0.2818  0.0858 -0.0085
 2983DOPE   C1B34999  23.468  19.728  11.529  0.0385 -0.1049 -0.0578
 2983DOPE   D2B35000  23.299  19.726  11.110 -0.0610 -0.4738  0.0146
 2983DOPE   C3B35001  23.482  19.649  10.749 -0.1652 -0.0844 -0.1143
 2983DOPE   C4B35002  23.642  19.449  10.374  0.1558 -0.0534 -0.0182
 2984DOPS   CNO35003  33.741  11.327  15.137 -0.0126 -0.0914 -0.1834
 2984DOPS   PO435004  33.508  11.358  14.881 -0.3220 -0.1693 -0.0242
 2984DOPS   GL135005  33.668  11.322  14.463 -0.1432 -0.0768  0.3324
 2984DOPS   GL235006  33.421  11.422  14.380  0.0502  0.2261 -0.2296
 2984DOPS   C1A35007  33.612  11.081  14.053 -0.1042 -0.0055  0.0055
 2984DOPS   D2A35008  33.305  10.964  13.669  0.0675 -0.0227 -0.1128
 2984DOPS   C3A35009  33.538  10.904  13.243 -0.1694 -0.0182  0.2771
 2984DOPS   C4A35010  33.668  10.809  12.845  0.1436  0.1266 -0.0055
 2984DOPS   C1B35011  33.581  11.573  14.006 -0.2111 -0.1354  0.3343
 2984DOPS   D2B35012  33.558  11.389  13.575 -0.3309 -0.0858  0.4986
 2984DOPS   C3B35013  33.856  11.059  13.598 -0.0138 -0.2444 -0.0249
 2984DOPS   C4B35014  33.934  10.597  13.454  0.0700  0.1693 -0.2303
 2985DOPS   CNO35015  22.241  16.869  12.450 -0.1890 -0.0383 -0.1226
 2985DOPS   PO435016  21.955  17.038  12.226  0.1744  0.0515 -0.0583
 2985DOPS   GL135017  22.180  16.895  11.962 -0.2120  0.3130 -0.0755
 2985DOPS   GL235018  22.495  16.933  12.055  0.1252 -0.1784 -0.0713
 2985DOPS   C1A35019  22.217  16.556  11.703  0.2933  0.0714 -0.1027
 2985DOPS   D2A35020  22.060  16.503  11.261 -0.1438 -0.0633  0.0906
 2985DOPS   C3A35021  22.234  16.076  11.178 -0.5177 -0.2677 -0.1012
 2985DOPS   C4A35022  22.482  15.877  10.878 -0.1677 -0.0232 -0.2119
 2985DOPS   C1B35023  22.479  16.919  11.569 -0.0632  0.1266 -0.0164
 2985DOPS   D2B35024  22.490  16.857  11.073  0.1870  0.1595  0.1365
 2985DOPS   C3B35025  22.151  16.835  10.794  0.0804  0.2355  0.0086
 2985DOPS   C4B35026  21.978  17.047  10.481  0.1360  0.1233  0.3198
 2986DOPE   NH335027  27.591  20.556  12.943 -0.1665  0.0996  0.0646
 2986DOPE   PO435028  27.370  20.659  12.757 -0.0267  0.0766 -0.1583
 2986DOPE   GL135029  27.359  20.710  12.417  0.0110  0.0162  0.1158
 2986DOPE   GL235030  27.079  20.840  12.385  0.1499  0.0564  0.1102
 2986DOPE   C1A35031  27.312  20.489  11.980 -0.0075 -0.1221  0.6058
 2986DOPE   D2A35032  27.329  20.290  11.588  0.1174 -0.3037 -0.1017
 2986DOPE   C3A35033  27.554  19.856  11.658 -0.1085  0.2461 -0.0836
 2986DOPE   C4A35034  27.972  19.953  11.826 -0.1023 -0.0627  0.0270
 2986DOPE   C1B35035  27.115  20.937  11.966  0.0974  0.1158 -0.2271
 2986DOPE   D2B35036  27.193  21.123  11.537 -0.2393  0.0257  0.0143
 2986DOPE   C3B35037  27.243  20.789  11.229 -0.0160  0.1929  0.1183
 2986DOPE   C4B35038  27.549  20.464  11.055  0.0372 -0.0562 -0.1104
 2987DOPC   NC335039  29.705  23.373  12.921  0.4516 -0.0202  0.2048
 2987DOPC   PO435040  29.666  23.698  13.087  0.2307 -0.0391  0.2909
 2987DOPC   GL135041  29.758  23.766  12.669  0.1071 -0.0470 -0.2759
 2987DOPC   GL235042  30.025  23.758  12.710  0.0971  0.1616 -0.0557
 2987DOPC   C1A35043  29.778  23.832  12.207 -0.0549  0.2532 -0.1007
 2987DOPC   D2A35044  29.638  23.891  11.753  0.1041  0.0656 -0.2792
 2987DOPC   C3A35045  29.505  24.102  11.382  0.1840  0.2068 -0.0110
 2987DOPC   C4A35046  29.490  24.340  10.991 -0.0951  0.1095  0.0072
 2987DOPC   C1B35047  30.228  23.601  12.253 -0.0018 -0.0504  0.0171
 2987DOPC   D2B35048  30.440  23.493  11.839  0.1231  0.2323  0.0603
 2987DOPC   C3B35049  30.216  23.605  11.465  0.3919 -0.2923 -0.1695
 2987DOPC   C4B35050  30.128  23.735  11.015  0.1825 -0.0436  0.2231
 2988DOPE   NH335051  29.559  21.928  13.348 -0.0785  0.0880  0.3555
 2988DOPE   PO435052  29.737  21.867  13.109  0.2364  0.0162  0.3382
 2988DOPE   GL135053  29.629  21.706  12.718 -0.0993 -0.2185 -0.1104
 2988DOPE   GL235054  29.889  21.787  12.638  0.0518  0.2093  0.1712
 2988DOPE   C1A35055  29.474  21.374  12.403  0.2653 -0.1777  0.0307
 2988DOPE   D2A35056  29.668  21.019  12.268 -0.2197 -0.3846  0.1905
 2988DOPE   C3A35057  29.939  21.146  11.856  0.1332  0.1829 -0.2411
 2988DOPE   C4A35058  30.151  21.157  11.430 -0.0881  0.0350 -0.1256
 2988DOPE   C1B35059  29.920  21.598  12.224  0.2014 -0.2775  0.1455
 2988DOPE   D2B35060  30.090  21.695  11.743  0.0975  0.0497  0.2842
 2988DOPE   C3B35061  29.773  21.576  11.469 -0.1133  0.0754  0.4165
 2988DOPE   C4B35062  29.283  21.626  11.396 -0.3253  0.0258 -0.4467
 2989DOPC   NC335063  23.177  14.098  12.849  0.0826  0.1611 -0.0734
 2989DOPC   PO435064  23.485  13.873  12.866  0.3708  0.0779 -0.0599
 2989DOPC   GL135065  23.462  13.932  12.434 -0.0130  0.1440  0.0053
 2989DOPC   GL235066  23.237  13.838  12.201  0.0128  0.0556 -0.1744
 2989DOPC   C1A35067  23.735  13.906  12.074 -0.0856  0.0615 -0.0140
 2989DOPC   D2A35068  23.919  13.937  11.677  0.1989  0.0804  0.0681
 2989DOPC   C3A35069  23.940  14.242  11.306 -0.0472 -0.1470 -0.0273
 2989DOPC   C4A35070  24.276  14.410  11.122  0.0668  0.0807 -0.0060
 2989DOPC   C1B35071  23.167  13.976  11.847 -0.4061  0.1067 -0.0980
 2989DOPC   D2B35072  23.427  13.986  11.490  0.2133 -0.1453  0.0340
 2989DOPC   C3B35073  23.260  14.228  11.130  0.4404  0.2762 -0.2001
 2989DOPC   C4B35074  23.103  14.525  10.847  0.1971 -0.0186 -0.0201
 2990DOPE   NH335075  32.540  16.815  13.538 -0.0046  0.4438  0.1950
 2990DOPE   PO435076  32.733  16.996  13.328  0.0159  0.3224  0.2823
 2990DOPE   GL135077  32.728  16.868  12.849 -0.0310  0.1349 -0.0970
 2990DOPE   GL235078  33.006  16.725  12.925  0.1578  0.1409  0.2506
 2990DOPE   C1A35079  32.834  17.054  12.404 -0.2296  0.0505  0.0865
 2990DOPE   D2A35080  33.018  17.328  12.158 -0.0944  0.1433  0.0838
 2990DOPE   C3A35081  33.304  17.544  11.864  0.0684  0.2157 -0.3453
 2990DOPE   C4A35082  33.384  17.927  11.557  0.0337 -0.2388 -0.0323
 2990DOPE   C1B35083  32.944  16.540  12.479 -0.0551 -0.4659  0.0840
 2990DOPE   D2B35084  32.708  16.406  12.124  0.2809 -0.0564  0.2195
 2990DOPE   C3B35085  32.315  16.226  12.115  0.2004 -0.0266 -0.1404
 2990DOPE   C4B35086  31.943  15.948  12.153 -0.3197 -0.3213 -0.0485
 2991DOPE   NH335087  29.784  19.700  13.346 -0.0769 -0.0012 -0.0839
 2991DOPE   PO435088  30.066  19.637  13.210 -0.0896  0.1702 -0.0399
 2991DOPE   GL135089  30.107  19.876  12.907  0.1627 -0.0951  0.0335
 2991DOPE   GL235090  30.014  20.146  12.907 -0.1737  0.0757  0.1812
 2991DOPE   C1A35091  30.404  19.735  12.579 -0.0585 -0.2654  0.0192
 2991DOPE   D2A35092  30.704  19.486  12.318  0.0753  0.1401 -0.1898
 2991DOPE   C3A35093  31.097  19.680  12.110  0.0712  0.2168 -0.0911
 2991DOPE   C4A35094  31.232  20.104  11.982 -0.3657 -0.1182 -0.1797
 2991DOPE   C1B35095  29.834  19.938  12.446  0.1122 -0.3970  0.2341
 2991DOPE   D2B35096  29.840  19.840  11.991  0.1015 -0.1415 -0.0825
 2991DOPE   C3B35097  29.538  19.773  11.701  0.0740  0.2743 -0.1944
 2991DOPE   C4B35098  29.263  19.908  11.380  0.0813  0.0660  0.0048
 2992DOPC   NC335099  26.183  11.090  13.620  0.1490  0.0543  0.1178
 2992DOPC   PO435100  26.250  11.459  13.667 -0.1780 -0.0593 -0.1148
 2992DOPC   GL135101  26.464  11.363  13.333  0.1254  0.1002  0.0911
 2992DOPC   GL235102  26.261  11.474  13.128 -0.1667  0.2618  0.0662
 2992DOPC   C1A35103  26.924  11.261  13.299  0.1469  0.1892  0.0796
 2992DOPC   D2A35104  27.368  11.200  13.246 -0.1246 -0.1672 -0.0443
 2992DOPC   C3A35105  27.445  11.318  12.827  0.1284  0.1400 -0.0982
 2992DOPC   C4A35106  27.198  11.261  12.413 -0.1056  0.2509  0.0437
 2992DOPC   C1B35107  26.281  11.287  12.687 -0.2616  0.2925 -0.2332
 2992DOPC   D2B35108  26.066  11.260  12.264 -0.0450  0.1810  0.2095
 2992DOPC   C3B35109  25.968  11.205  11.810 -0.0889 -0.1528  0.0633
 2992DOPC   C4B35110  26.118  11.443  11.463 -0.1999 -0.0336  0.3276
 2993DOPC   NC335111  32.838  16.407  13.574  0.2243 -0.3242  0.0023
 2993DOPC   PO435112  32.438  16.344  13.598 -0.3547  0.0491 -0.3789
 2993DOPC   GL135113  32.309  16.190  13.247 -0.2325 -0.0279  0.0812
 2993DOPC   GL235114  32.435  16.083  13.059  0.0992  0.0163 -0.0933
 2993DOPC   C1A35115  31.953  16.316  12.997  0.1288  0.0720 -0.4119
 2993DOPC   D2A35116  31.571  16.560  13.100  0.0968  0.0513 -0.0391
 2993DOPC   C3A35117  31.322  16.564  12.725  0.0133 -0.2554  0.2394
 2993DOPC   C4A35118  30.962  16.405  12.549  0.1090  0.1243  0.1090
 2993DOPC   C1B35119  32.587  15.691  12.831  0.1457 -0.1626 -0.1512
 2993DOPC   D2B35120  32.771  15.371  12.504 -0.0959  0.2255  0.0724
 2993DOPC   C3B35121  32.834  15.490  12.089  0.2627  0.2332  0.4476
 2993DOPC   C4B35122  32.911  15.856  11.809  0.1151  0.2102 -0.3117
 2994DOPE   NH335123  29.944  15.107  13.871 -0.2885  0.2169 -0.3804
 2994DOPE   PO435124  29.730  15.217  13.635 -0.0730  0.1006  0.4488
 2994DOPE   GL135125  29.804  15.322  13.138 -0.0922 -0.1374 -0.2095
 2994DOPE   GL235126  29.617  14.992  13.155 -0.0703  0.1268  0.0819
 2994DOPE   C1A35127  29.780  15.562  12.713  0.1735  0.1412 -0.0500
 2994DOPE   D2A35128  29.795  15.723  12.243  0.2832  0.0457  0.1837
 2994DOPE   C3A35129  30.128  15.511  11.919  0.2136 -0.1851 -0.2989
 2994DOPE   C4A35130  30.358  15.117  11.949  0.2841 -0.3140  0.1440
 2994DOPE   C1B35131  29.311  14.884  12.860 -0.1001  0.0307  0.1182
 2994DOPE   D2B35132  29.141  14.568  12.508 -0.0472  0.3547  0.3360
 2994DOPE   C3B35133  29.236  14.201  12.216  0.0700 -0.1220  0.3543
 2994DOPE   C4B35134  29.247  13.836  11.937  0.4317  0.1429 -0.0729
 2995DOPE   NH335135   0.854  20.764  14.103 -0.3399  0.0331  0.0336
 2995DOPE   PO435136   0.630  20.727  13.909  0.0558 -0.0796  0.0640
 2995DOPE   GL135137   0.945  20.951  13.700  0.3300 -0.2178 -0.4144
 2995DOPE   GL235138   0.841  21.189  13.560 -0.1256 -0.2357 -0.1293
 2995DOPE   C1A35139   1.262  20.845  13.390 -0.0890 -0.1462  0.2952
 2995DOPE   D2A35140   1.414  20.915  12.935  0.0129  0.0260  0.2866
 2995DOPE   C3A35141   1.483  20.490  12.682 -0.0551  0.0637  0.0283
 2995DOPE   C4A35142   1.863  20.386  12.416  0.3149 -0.2558 -0.2231
 2995DOPE   C1B35143   0.976  21.177  13.084 -0.0737 -0.0939  0.0540
 2995DOPE   D2B35144   0.986  21.274  12.602  0.2256  0.1473  0.0380
 2995DOPE   C3B35145   1.248  21.431  12.277 -0.1524 -0.1445  0.2816
 2995DOPE   C4B35146   1.213  21.829  12.139  0.3213 -0.1716  0.1256
 2996DOPS   CNO35147  23.507  16.489  13.165  0.2328  0.1181  0.3882
 2996DOPS   PO435148  23.729  16.385  12.878 -0.1181  0.2131 -0.0436
 2996DOPS   GL135149  23.831  16.730  12.702  0.1698 -0.2869  0.2176
 2996DOPS   GL235150  24.095  16.671  12.604  0.0459 -0.2146  0.0486
 2996DOPS   C1A35151  23.783  16.723  12.242 -0.1726 -0.1747 -0.2700
 2996DOPS   D2A35152  23.699  16.960  11.874 -0.0921 -0.0106  0.2423
 2996DOPS   C3A35153  23.887  17.040  11.439  0.1100 -0.3756 -0.4811
 2996DOPS   C4A35154  23.998  17.496  11.327  0.2801 -0.1907 -0.0341
 2996DOPS   C1B35155  24.264  16.978  12.308 -0.1797  0.1150 -0.0383
 2996DOPS   D2B35156  24.225  17.139  11.873 -0.1343 -0.2619 -0.1047
 2996DOPS   C3B35157  24.179  16.746  11.631  0.0475  0.2661 -0.2586
 2996DOPS   C4B35158  24.214  16.723  11.177 -0.1887  0.1750 -0.0926
 2997POSM   NC335159  31.344  25.762  13.461 -0.1112  0.0114  0.0831
 2997POSM   PO435160  31.025  25.653  13.685  0.2886  0.2037  0.5074
 2997POSM   AM135161  30.977  25.514  13.378  0.3386  0.1193  0.1106
 2997POSM   AM235162  30.850  25.239  13.263 -0.3136 -0.1100  0.0631
 2997POSM   T1A35163  30.961  25.678  12.906  0.1769  0.1032  0.2795
 2997POSM   C2A35164  30.767  26.107  12.827 -0.2395 -0.3829 -0.1782
 2997POSM   C3A35165  30.947  26.351  12.481 -0.0619  0.4950  0.4176
 2997POSM   C1B35166  30.946  25.203  12.956  0.0259 -0.0287 -0.0232
 2997POSM   D2B35167  31.128  25.336  12.534  0.0493  0.1652  0.0066
 2997POSM   C3B35168  30.843  25.250  12.151  0.0240  0.1770 -0.0761
 2997POSM   C4B35169  30.613  25.491  11.894 -0.1890 -0.2920  0.1676
 2998DOPC   NC335170  22.569  16.502  12.647 -0.0955 -0.0817  0.0586
 2998DOPC   PO435171  22.912  16.521  12.463  0.0610 -0.0427  0.0855
 2998DOPC   GL135172  23.051  16.326  12.148  0.1095 -0.0946  0.0098
 2998DOPC   GL235173  22.861  16.191  12.070  0.1203  0.1484 -0.2036
 2998DOPC   C1A35174  22.817  16.543  11.762  0.1203 -0.0514 -0.3077
 2998DOPC   D2A35175  22.548  16.422  11.383  0.0786  0.0560  0.2647
 2998DOPC   C3A35176  22.766  16.261  11.042 -0.1346 -0.0374 -0.0900
 2998DOPC   C4A35177  23.015  16.004  10.732  0.0977 -0.1720  0.0387
 2998DOPC   C1B35178  22.767  16.067  11.631  0.3621  0.5098  0.2031
 2998DOPC   D2B35179  22.967  15.845  11.266  0.0265  0.2224 -0.1963
 2998DOPC   C3B35180  23.430  15.844  11.129 -0.0974 -0.0691  0.1559
 2998DOPC   C4B35181  23.857  15.769  11.087  0.0471 -0.2915 -0.0205
 2999DOPC   NC335182  26.178  15.683  14.041  0.0167 -0.0601  0.3449
 2999DOPC   PO435183  26.194  15.733  13.638 -0.0885 -0.0283 -0.0286
 2999DOPC   GL135184  26.023  15.449  13.398  0.2489 -0.1814 -0.1770
 2999DOPC   GL235185  26.215  15.346  13.255 -0.1376 -0.0817  0.0054
 2999DOPC   C1A35186  25.772  15.630  13.050  0.1076  0.0788 -0.0681
 2999DOPC   D2A35187  25.636  15.797  12.667  0.1897  0.0854 -0.0029
 2999DOPC   C3A35188  25.611  16.191  12.402 -0.6250  0.3110 -0.0162
 2999DOPC   C4A35189  25.730  16.258  11.982 -0.0225 -0.1365 -0.0598
 2999DOPC   C1B35190  26.102  15.391  12.827  0.2431  0.1907 -0.2925
 2999DOPC   D2B35191  26.088  15.341  12.367 -0.0601  0.0657 -0.0052
 2999DOPC   C3B35192  26.049  15.022  11.986 -0.0206  0.1602 -0.2031
 2999DOPC   C4B35193  25.939  14.867  11.490  0.2588 -0.0484  0.3610
 3000DOPS   CNO35194  24.781  14.030  13.132 -0.1504  0.2911 -0.0281
 3000DOPS   PO435195  24.712  14.413  13.092 -0.0882  0.2977 -0.1918
 3000DOPS   GL135196  24.748  14.452  12.729  0.0484 -0.4118 -0.2220
 3000DOPS   GL235197  24.662  14.206  12.525  0.1391  0.3294  0.3897
 3000DOPS   C1A35198  24.727  14.699  12.311 -0.4710  0.1899 -0.0478
 3000DOPS   D2A35199  24.871  14.898  11.845  0.0950 -0.1821  0.1233
 3000DOPS   C3A35200  25.076  15.252  11.943  0.1195 -0.0573  0.2432
 3000DOPS   C4A35201  25.290  15.535  11.646  0.3101  0.0576 -0.2521
 3000DOPS   C1B35202  24.962  13.994  12.204 -0.0189 -0.1056  0.0259
 3000DOPS   D2B35203  25.285  13.657  12.149 -0.0504 -0.1780  0.0873
 3000DOPS   C3B35204  25.589  13.478  11.823 -0.2086  0.0647  0.0350
 3000DOPS   C4B35205  25.555  13.064  11.608 -0.0229 -0.0915 -0.0980
 3001DOPC   NC335206  34.106  23.783  14.003 -0.1831  0.2128  0.0489
 3001DOPC   PO435207  33.791  23.986  14.230 -0.0780  0.2404  0.0357
 3001DOPC   GL135208  33.709  24.117  13.832  0.1584 -0.1005 -0.0472
 3001DOPC   GL235209  33.753  23.911  13.613  0.0480  0.1509  0.1476
 3001DOPC   C1A35210  33.785  24.539  13.658  0.2960  0.1834 -0.0510
 3001DOPC   D2A35211  34.034  24.476  13.314  0.0866  0.1832  0.3340
 3001DOPC   C3A35212  34.378  24.545  13.034 -0.1495 -0.0075  0.2697
 3001DOPC   C4A35213  34.666  24.500  12.675  0.1998 -0.0100  0.0160
 3001DOPC   C1B35214  34.129  24.110  13.636 -0.2109  0.0574 -0.1383
 3001DOPC   D2B35215  34.501  24.173  13.364 -0.0080 -0.0739  0.3156
 3001DOPC   C3B35216  34.517  24.064  12.875 -0.4099  0.0151 -0.1018
 3001DOPC   C4B35217  34.621  24.069  12.439 -0.1242  0.0761 -0.0365
 3002POSM   NC335218  33.358  15.778  13.622 -0.1279  0.1798  0.1112
 3002POSM   PO435219  33.287  16.180  13.631 -0.0279 -0.0241 -0.0131
 3002POSM   AM135220  33.132  16.119  13.328  0.0006 -0.3341 -0.0697
 3002POSM   AM235221  33.265  16.126  13.074 -0.1644  0.3214  0.3066
 3002POSM   T1A35222  32.866  16.288  12.923 -0.0770 -0.0936 -0.1468
 3002POSM   C2A35223  32.514  16.356  12.594 -0.0178  0.1283  0.1232
 3002POSM   C3A35224  32.049  16.363  12.503  0.1621  0.2880  0.1265
 3002POSM   C1B35225  33.339  16.181  12.760 -0.0629  0.0783  0.0306
 3002POSM   D2B35226  33.282  16.095  12.330 -0.2098  0.0415  0.0591
 3002POSM   C3B35227  33.193  16.346  11.944  0.1243  0.0354  0.1684
 3002POSM   C4B35228  33.086  16.767  11.785  0.0240  0.0912 -0.3870
 3003DOPC   NC335229  28.011  14.472  13.566  0.1997 -0.3165  0.3162
 3003DOPC   PO435230  27.641  14.448  13.602 -0.0884  0.0583 -0.3987
 3003DOPC   GL135231  27.710  14.429  13.199 -0.0520 -0.0218  0.3574
 3003DOPC   GL235232  27.464  14.513  13.076  0.0313 -0.2590 -0.0623
 3003DOPC   C1A35233  27.978  14.417  12.831 -0.2903  0.0162 -0.1313
 3003DOPC   D2A35234  27.987  14.487  12.348 -0.0896  0.0871 -0.0257
 3003DOPC   C3A35235  27.801  13.996  12.333  0.1994 -0.4036 -0.0919
 3003DOPC   C4A35236  27.371  14.018  12.114 -0.1430  0.3037  0.3137
 3003DOPC   C1B35237  27.619  14.776  12.658 -0.0654 -0.1399 -0.0719
 3003DOPC   D2B35238  27.459  14.730  12.189 -0.0962  0.0754  0.1989
 3003DOPC   C3B35239  27.304  15.000  11.852 -0.2578  0.1288 -0.1866
 3003DOPC   C4B35240  26.969  15.323  11.692 -0.2453 -0.0058  0.2433
 3004DOPC   NC335241  33.235  14.967  13.811 -0.1313  0.0265 -0.2863
 3004DOPC   PO435242  33.115  15.252  13.567  0.5386 -0.1021  0.3462
 3004DOPC   GL135243  33.251  14.924  13.277  0.2605 -0.1297 -0.0312
 3004DOPC   GL235244  33.226  15.067  13.006 -0.0275  0.1364 -0.1169
 3004DOPC   C1A35245  32.959  14.619  13.049 -0.1702  0.1715  0.0300
 3004DOPC   D2A35246  32.895  14.331  12.710 -0.2610 -0.0386  0.3295
 3004DOPC   C3A35247  33.216  14.073  12.542  0.2394 -0.0406  0.2837
 3004DOPC   C4A35248  33.526  14.179  12.236 -0.2158 -0.0316  0.2817
 3004DOPC   C1B35249  33.092  14.892  12.674  0.4121 -0.0166 -0.2829
 3004DOPC   D2B35250  32.978  14.996  12.242 -0.0648 -0.0524  0.2255
 3004DOPC   C3B35251  33.168  15.189  11.852 -0.1886  0.1595  0.0070
 3004DOPC   C4B35252  33.099  15.448  11.488 -0.0624 -0.2494  0.1293
 3005DOPE   NH335253  28.029  11.899  14.041  0.0285 -0.1940  0.1452
 3005DOPE   PO435254  27.885  11.617  14.124  0.0757  0.0537 -0.3050
 3005DOPE   GL135255  27.921  11.631  13.704  0.3682 -0.0935  0.0081
 3005DOPE   GL235256  28.164  11.539  13.671  0.0267 -0.1173  0.3180
 3005DOPE   C1A35257  27.574  11.634  13.387  0.0786 -0.3961 -0.0633
 3005DOPE   D2A35258  27.210  11.670  13.089  0.1331 -0.2483 -0.0955
 3005DOPE   C3A35259  26.774  11.796  13.096  0.2571 -0.0871  0.2106
 3005DOPE   C4A35260  26.425  11.844  12.781 -0.0689  0.2646 -0.2043
 3005DOPE   C1B35261  28.072  11.395  13.206 -0.0030 -0.0302 -0.0494
 3005DOPE   D2B35262  27.928  11.293  12.739  0.2553 -0.0870  0.0882
 3005DOPE   C3B35263  28.122  11.445  12.349 -0.3395  0.0056 -0.2129
 3005DOPE   C4B35264  28.421  11.663  12.069  0.2240  0.1675 -0.1671
 3006POSM   NC335265  32.789  14.144  14.071  0.0443  0.1537  0.0769
 3006POSM   PO435266  32.818  14.085  13.689  0.1610  0.0159  0.0555
 3006POSM   AM135267  32.785  13.999  13.367  0.0644  0.0508 -0.0232
 3006POSM   AM235268  32.947  14.063  13.138  0.4903 -0.2452 -0.1317
 3006POSM   T1A35269  32.796  13.593  13.082 -0.2114  0.0625 -0.0599
 3006POSM   C2A35270  32.708  13.198  12.849 -0.4318  0.1618  0.0574
 3006POSM   C3A35271  32.683  12.970  12.467 -0.0114 -0.1420  0.0204
 3006POSM   C1B35272  33.157  13.896  13.021  0.3499  0.3267  0.0412
 3006POSM   D2B35273  33.540  13.657  12.796  0.3267  0.0719  0.0852
 3006POSM   C3B35274  33.410  13.541  12.366  0.4158 -0.2476  0.0729
 3006POSM   C4B35275  33.263  13.435  11.904 -0.0092  0.1260  0.1515
 3007POSM   NC335276  23.763  20.529  12.057 -0.0697  0.1984 -0.3824
 3007POSM   PO435277  24.029  20.317  12.306 -0.0077  0.1730  0.0061
 3007POSM   AM135278  24.230  20.301  12.013 -0.1365 -0.0621 -0.0729
 3007POSM   AM235279  24.296  20.494  11.796 -0.2569  0.0946 -0.2282
 3007POSM   T1A35280  24.684  20.193  11.834 -0.1446 -0.2902 -0.0488
 3007POSM   C2A35281  25.108  20.087  11.699  0.1238 -0.0759  0.1128
 3007POSM   C3A35282  25.444  19.969  11.426  0.1798 -0.2043  0.1837
 3007POSM   C1B35283  24.470  20.516  11.431 -0.2957  0.1235 -0.1810
 3007POSM   D2B35284  24.615  20.782  11.135  0.1681  0.1790  0.1885
 3007POSM   C3B35285  24.840  20.608  10.789  0.1884 -0.2282  0.2211
 3007POSM   C4B35286  25.322  20.529  10.802 -0.1569 -0.1511  0.0787
 3008DOPE   NH335287  24.408  13.252  12.956 -0.1875  0.0001 -0.2777
 3008DOPE   PO435288  24.641  13.201  12.682 -0.4909  0.1343  0.0667
 3008DOPE   GL135289  24.867  13.400  12.336  0.1218 -0.2890  0.1247
 3008DOPE   GL235290  24.973  13.067  12.332  0.1186  0.0088  0.1129
 3008DOPE   C1A35291  24.730  13.355  11.902  0.1683  0.3802  0.2452
 3008DOPE   D2A35292  24.650  13.529  11.454  0.0943 -0.0462  0.0620
 3008DOPE   C3A35293  24.223  13.610  11.293 -0.2425 -0.0062  0.4391
 3008DOPE   C4A35294  23.801  13.551  11.363  0.3151  0.3496  0.1664
 3008DOPE   C1B35295  25.139  13.085  11.924 -0.2711  0.0879  0.1008
 3008DOPE   D2B35296  25.088  13.365  11.540  0.0773  0.1800 -0.1711
 3008DOPE   C3B35297  24.898  13.231  11.129 -0.0445  0.2941 -0.0395
 3008DOPE   C4B35298  24.426  13.172  11.108 -0.1300  0.3568  0.0462
 3009POSM   NC335299  24.891  13.675  12.689  0.1655 -0.2914  0.0917
 3009POSM   PO435300  24.486  13.744  12.736 -0.0493 -0.0539 -0.2412
 3009POSM   AM135301  24.448  13.595  12.468  0.1295 -0.1032 -0.0695
 3009POSM   AM235302  24.356  13.369  12.312 -0.0109 -0.2859 -0.1198
 3009POSM   T1A35303  24.447  13.765  12.009  0.1245 -0.1287  0.2723
 3009POSM   C2A35304  24.469  13.996  11.585  0.0407  0.1368  0.1578
 3009POSM   C3A35305  24.703  14.137  11.207 -0.0899  0.0631 -0.1031
 3009POSM   C1B35306  24.328  13.070  12.098  0.3120  0.0052 -0.2507
 3009POSM   D2B35307  24.181  12.755  11.831  0.0765 -0.0821  0.0531
 3009POSM   C3B35308  24.200  12.671  11.409 -0.1075 -0.2017 -0.3791
 3009POSM   C4B35309  24.019  12.612  10.995  0.0790  0.0212 -0.2501
 3010DOPE   NH335310  29.726  24.558  13.792 -0.2246  0.3885 -0.1350
 3010DOPE   PO435311  29.515  24.532  13.569 -0.1498 -0.1227  0.0265
 3010DOPE   GL135312  29.590  24.699  13.146 -0.1711 -0.0308  0.0710
 3010DOPE   GL235313  29.586  24.476  13.018 -0.0845  0.3033  0.3096
 3010DOPE   C1A35314  29.256  24.748  12.823 -0.2153 -0.0627  0.1990
 3010DOPE   D2A35315  29.305  24.434  12.560  0.0367 -0.0211  0.1137
 3010DOPE   C3A35316  29.698  24.322  12.438 -0.2158  0.0864  0.0044
 3010DOPE   C4A35317  30.058  24.542  12.196  0.0348 -0.2253 -0.0747
 3010DOPE   C1B35318  29.956  24.614  12.777 -0.1622 -0.0653  0.5255
 3010DOPE   D2B35319  30.300  24.854  12.609  0.1258 -0.3259 -0.0750
 3010DOPE   C3B35320  30.786  24.902  12.533 -0.1781 -0.3904  0.0414
 3010DOPE   C4B35321  31.113  24.837  12.242 -0.0461 -0.2185 -0.2763
 3011POSM   NC335322  23.309  17.594  12.938  0.1093  0.0241 -0.2440
 3011POSM   PO435323  23.614  17.374  13.064  0.0894  0.1260  0.0221
 3011POSM   AM135324  23.688  17.351  12.760 -0.0979  0.1325  0.0205
 3011POSM   AM235325  23.797  17.167  12.578  0.0746 -0.3872 -0.3928
 3011POSM   T1A35326  23.836  17.570  12.323  0.2788  0.2521  0.0465
 3011POSM   C2A35327  23.706  17.925  12.050 -0.1010 -0.0143  0.1623
 3011POSM   C3A35328  23.817  18.310  11.912  0.1176  0.0591 -0.0063
 3011POSM   C1B35329  23.574  17.166  12.288 -0.1846 -0.0562 -0.1985
 3011POSM   D2B35330  23.414  17.329  11.883  0.0984  0.1092 -0.0649
 3011POSM   C3B35331  23.059  17.644  11.810  0.2132  0.0125 -0.3487
 3011POSM   C4B35332  22.624  17.558  11.547  0.2409  0.2404 -0.0446
 3012DOPS   CNO35333  34.179  15.896  13.796 -0.2180 -0.0835 -0.0216
 3012DOPS   PO435334  34.516  15.934  13.715  0.3707  0.0157 -0.0701
 3012DOPS   GL135335  34.550  15.995  13.268  0.0139  0.2622 -0.2103
 3012DOPS   GL235336  34.281  15.764  13.221 -0.1883  0.1321  0.1155
 3012DOPS   C1A35337  34.388  16.265  12.915 -0.0342 -0.0602 -0.1573
 3012DOPS   D2A35338  34.238  16.530  12.548  0.2880  0.1910  0.3567
 3012DOPS   C3A35339  34.484  16.356  12.229  0.2342  0.2471 -0.3477
 3012DOPS   C4A35340  34.819  16.213  11.920  0.2097 -0.0228  0.3785
 3012DOPS   C1B35341  34.520  15.804  12.804  0.1887 -0.1945  0.0889
 3012DOPS   D2B35342  34.778  16.087  12.580  0.2013 -0.2221 -0.0822
 3012DOPS   C3B35343  34.975  16.522  12.538 -0.1099  0.1219  0.3663
 3012DOPS   C4B35344  35.376  16.775  12.595 -0.1042 -0.2372  0.0364
 3013DOPC   NC335345  29.687  21.004  13.511 -0.0641  0.0893  0.0227
 3013DOPC   PO435346  29.341  21.019  13.317  0.0902  0.1034  0.2159
 3013DOPC   GL135347  29.324  20.896  12.783 -0.2384 -0.0390 -0.2370
 3013DOPC   GL235348  29.551  20.970  12.784  0.1937 -0.2238 -0.1496
 3013DOPC   C1A35349  29.151  20.871  12.375 -0.2491  0.3390  0.1042
 3013DOPC   D2A35350  28.866  20.825  12.052  0.0064 -0.0271  0.0957
 3013DOPC   C3A35351  28.945  20.750  11.619 -0.2225 -0.1689 -0.2194
 3013DOPC   C4A35352  29.074  20.513  11.233  0.2042  0.1558  0.0680
 3013DOPC   C1B35353  29.918  21.308  12.658 -0.0236  0.1311 -0.0932
 3013DOPC   D2B35354  30.374  21.411  12.520  0.1542 -0.0267 -0.0449
 3013DOPC   C3B35355  30.722  21.678  12.735  0.0135 -0.0149  0.0135
 3013DOPC   C4B35356  31.132  21.822  12.530  0.1907 -0.0159 -0.0096
 3014DOPS   CNO35357  26.710  23.215  12.967 -0.1510 -0.1201  0.0462
 3014DOPS   PO435358  26.728  22.827  12.897 -0.4296 -0.3254 -0.1937
 3014DOPS   GL135359  26.848  22.755  12.480 -0.1186  0.0930  0.3309
 3014DOPS   GL235360  26.629  22.931  12.438 -0.0108 -0.0555  0.2458
 3014DOPS   C1A35361  27.086  22.938  12.081  0.3310  0.1380 -0.3173
 3014DOPS   D2A35362  27.257  23.300  11.853  0.2324  0.0553  0.0097
 3014DOPS   C3A35363  27.410  23.711  12.017 -0.0666 -0.2841 -0.0116
 3014DOPS   C4A35364  27.717  24.037  12.056 -0.0545 -0.0825  0.1857
 3014DOPS   C1B35365  26.515  22.820  12.028 -0.0579 -0.1152 -0.0842
 3014DOPS   D2B35366  26.486  22.808  11.587 -0.0693  0.2924  0.1635
 3014DOPS   C3B35367  26.209  22.663  11.282  0.1735 -0.2642 -0.1984
 3014DOPS   C4B35368  25.936  22.893  10.938  0.0353  0.2552 -0.3421
 3015DOPE   NH335369  30.552  19.551  13.369  0.0253  0.0468 -0.0261
 3015DOPE   PO435370  30.830  19.716  13.443 -0.2067  0.1446 -0.1074
 3015DOPE   GL135371  30.988  19.765  13.119 -0.1955  0.3102  0.1314
 3015DOPE   GL235372  31.294  19.737  13.048  0.0933  0.0558  0.0409
 3015DOPE   C1A35373  30.839  20.016  12.739 -0.0319  0.2557  0.1878
 3015DOPE   D2A35374  30.484  20.265  12.598  0.0395 -0.2948  0.4625
 3015DOPE   C3A35375  30.605  20.508  12.200 -0.0448  0.1094 -0.0662
 3015DOPE   C4A35376  30.798  20.934  12.179 -0.2826  0.0554 -0.2940
 3015DOPE   C1B35377  31.629  19.842  12.755 -0.0727  0.1250 -0.1847
 3015DOPE   D2B35378  31.954  20.104  12.626  0.1876 -0.0539  0.0202
 3015DOPE   C3B35379  32.155  19.888  12.194  0.0336 -0.1814 -0.2825
 3015DOPE   C4B35380  32.261  19.635  11.839 -0.0507 -0.1585 -0.2307
 3016DOPC   NC335381  23.146  19.899  12.047 -0.0026 -0.2615 -0.3007
 3016DOPC   PO435382  23.406  20.082  12.303  0.0023  0.0595 -0.2690
 3016DOPC   GL135383  23.603  20.132  11.886 -0.2586 -0.1500  0.0047
 3016DOPC   GL235384  23.804  20.043  11.961 -0.0751 -0.2749  0.0925
 3016DOPC   C1A35385  23.627  20.433  11.593  0.1579  0.2127  0.3990
 3016DOPC   D2A35386  23.596  20.605  11.253  0.0241 -0.1299  0.3450
 3016DOPC   C3A35387  23.827  20.465  10.878  0.1393  0.2466 -0.1560
 3016DOPC   C4A35388  24.027  20.105  10.719 -0.0428 -0.0566 -0.2419
 3016DOPC   C1B35389  23.940  19.793  11.638 -0.0340 -0.0814 -0.2877
 3016DOPC   D2B35390  24.246  19.423  11.465  0.0642 -0.0953 -0.2998
 3016DOPC   C3B35391  24.313  19.294  11.023  0.0540  0.1497 -0.0145
 3016DOPC   C4B35392  24.481  19.143  10.657  0.0208 -0.0644  0.1417
 3017DOPS   CNO35393  22.538  14.964  13.069 -0.1998  0.0354  0.0820
 3017DOPS   PO435394  22.493  14.893  12.704  0.2058 -0.1006  0.3468
 3017DOPS   GL135395  22.451  14.478  12.493  0.3991 -0.1510  0.1351
 3017DOPS   GL235396  22.661  14.578  12.376  0.0764 -0.0757 -0.0062
 3017DOPS   C1A35397  22.346  14.459  12.031  0.0687  0.3317  0.2384
 3017DOPS   D2A35398  22.371  14.206  11.595 -0.3617 -0.0158 -0.0509
 3017DOPS   C3A35399  22.803  14.141  11.474 -0.0726  0.0736  0.1493
 3017DOPS   C4A35400  23.003  13.807  11.250 -0.1429  0.0731  0.1228
 3017DOPS   C1B35401  22.589  14.911  12.099 -0.1629  0.0238 -0.0684
 3017DOPS   D2B35402  22.489  15.134  11.666 -0.1561 -0.3066 -0.2506
 3017DOPS   C3B35403  22.570  14.935  11.275  0.4816 -0.0763  0.3235
 3017DOPS   C4B35404  22.540  14.901  10.779  0.0959  0.1142 -0.1405
 3018DOPC   NC335405  26.119  16.227  13.496  0.1549  0.3476 -0.1685
 3018DOPC   PO435406  26.373  16.343  13.196 -0.1440  0.0489 -0.3343
 3018DOPC   GL135407  26.352  16.175  12.797 -0.2488 -0.1069 -0.2467
 3018DOPC   GL235408  26.148  16.029  12.738 -0.1611 -0.2221  0.1594
 3018DOPC   C1A35409  26.573  16.108  12.380 -0.1244 -0.1563  0.2372
 3018DOPC   D2A35410  26.640  16.237  11.986 -0.0011 -0.0063 -0.0374
 3018DOPC   C3A35411  26.322  16.543  11.764 -0.2354 -0.1681 -0.0014
 3018DOPC   C4A35412  25.946  16.716  11.587  0.3775 -0.1336  0.0316
 3018DOPC   C1B35413  25.976  15.795  12.354  0.0178  0.0877 -0.1229
 3018DOPC   D2B35414  25.657  15.744  12.021 -0.0662  0.0642 -0.1429
 3018DOPC   C3B35415  25.733  15.867  11.596 -0.2502  0.1441  0.2451
 3018DOPC   C4B35416  25.947  15.861  11.183 -0.2958 -0.2774  0.3480
 3019DOPE   NH335417  33.597  21.451  13.548  0.1728  0.2164 -0.0424
 3019DOPE   PO435418  33.517  21.704  13.410  0.3034  0.0485 -0.1661
 3019DOPE   GL135419  33.694  21.677  13.155 -0.0543 -0.0091 -0.1457
 3019DOPE   GL235420  33.519  21.517  12.964  0.0098 -0.0439 -0.0214
 3019DOPE   C1A35421  33.955  21.871  12.816 -0.0546 -0.0377  0.0986
 3019DOPE   D2A35422  33.997  22.221  12.549 -0.0084  0.0344 -0.2013
 3019DOPE   C3A35423  33.612  22.412  12.567 -0.0487 -0.1052  0.0277
 3019DOPE   C4A35424  33.537  22.556  12.154 -0.1794 -0.0378 -0.1901
 3019DOPE   C1B35425  33.496  21.290  12.571 -0.0334  0.1234 -0.0880
 3019DOPE   D2B35426  33.558  21.075  12.177 -0.1747 -0.0700  0.2248
 3019DOPE   C3B35427  33.893  21.023  11.869 -0.1999 -0.1774  0.1773
 3019DOPE   C4B35428  34.261  21.018  11.604  0.2060  0.0208  0.1318
 3020POSM   NC335429  32.060  21.833  13.998 -0.0617  0.0957 -0.0349
 3020POSM   PO435430  32.034  21.759  13.589 -0.1049  0.0138 -0.0530
 3020POSM   AM135431  31.890  21.746  13.293 -0.0316 -0.0821 -0.0671
 3020POSM   AM235432  31.922  21.621  13.079 -0.0923  0.3048  0.0514
 3020POSM   T1A35433  31.633  22.049  12.972  0.0956  0.1936 -0.0534
 3020POSM   C2A35434  31.393  22.283  12.659  0.2411 -0.1888  0.3817
 3020POSM   C3A35435  31.382  22.225  12.239 -0.0661  0.1662 -0.0998
 3020POSM   C1B35436  31.903  21.604  12.748  0.2649  0.1407  0.0581
 3020POSM   D2B35437  31.626  21.647  12.404 -0.1823 -0.0128  0.0913
 3020POSM   C3B35438  31.754  21.602  11.979 -0.1794  0.2493  0.1045
 3020POSM   C4B35439  31.573  21.812  11.649  0.2837 -0.0512 -0.2138
 3021DOPE   NH335440  28.889  19.429  13.437 -0.1147 -0.1635 -0.0279
 3021DOPE   PO435441  28.722  19.348  13.137  0.0711  0.1308 -0.0203
 3021DOPE   GL135442  28.693  19.442  12.812  0.1081 -0.0175 -0.3812
 3021DOPE   GL235443  28.732  19.644  12.663 -0.0313 -0.0771 -0.0364
 3021DOPE   C1A35444  28.289  19.447  12.594  0.4327  0.0280 -0.0279
 3021DOPE   D2A35445  27.932  19.393  12.270  0.3137 -0.3197  0.1227
 3021DOPE   C3A35446  27.890  19.450  11.812 -0.1981 -0.2213 -0.0102
 3021DOPE   C4A35447  27.959  19.577  11.336 -0.1315 -0.1450 -0.0312
 3021DOPE   C1B35448  28.743  19.466  12.242  0.2978  0.2101  0.3016
 3021DOPE   D2B35449  29.186  19.393  12.064 -0.2576 -0.0325  0.1969
 3021DOPE   C3B35450  29.620  19.400  12.165  0.0060  0.1376 -0.0676
 3021DOPE   C4B35451  29.945  19.457  12.495 -0.0716  0.0094  0.0710
 3022POSM   NC335452  31.973  22.385  13.312  0.0010  0.0456  0.0785
 3022POSM   PO435453  32.328  22.504  13.211  0.0657  0.1264 -0.1596
 3022POSM   AM135454  32.374  22.441  12.886 -0.3590  0.2229  0.0642
 3022POSM   AM235455  32.246  22.537  12.632 -0.4564  0.0985 -0.2324
 3022POSM   T1A35456  32.310  22.056  12.569 -0.4091 -0.0560  0.2171
 3022POSM   C2A35457  32.118  21.685  12.331 -0.0065 -0.3325  0.2980
 3022POSM   C3A35458  32.004  21.238  12.357 -0.0465 -0.0461  0.1010
 3022POSM   C1B35459  32.480  22.519  12.391  0.0197 -0.2305 -0.1538
 3022POSM   D2B35460  32.642  22.175  12.100  0.1134  0.4686  0.3372
 3022POSM   C3B35461  32.368  21.827  11.976 -0.2357  0.1062 -0.1860
 3022POSM   C4B35462  32.059  21.827  11.667  0.2548  0.0396 -0.1186
 3023DOPC   NC335463  30.366  15.863  13.679 -0.2299  0.1622  0.0059
 3023DOPC   PO435464  30.657  15.644  13.655 -0.0746 -0.0321  0.1996
 3023DOPC   GL135465  30.655  15.663  13.236  0.1878 -0.1032 -0.0989
 3023DOPC   GL235466  30.805  15.937  13.222 -0.0466 -0.0405  0.1884
 3023DOPC   C1A35467  30.507  15.689  12.811  0.1172  0.1682 -0.0620
 3023DOPC   D2A35468  30.300  15.643  12.421  0.1187  0.1752 -0.0600
 3023DOPC   C3A35469  30.081  15.328  12.460  0.2690 -0.0009  0.1219
 3023DOPC   C4A35470  29.808  15.068  12.673  0.0726 -0.3902 -0.1883
 3023DOPC   C1B35471  30.559  16.251  12.891  0.2321  0.0925 -0.2628
 3023DOPC   D2B35472  30.343  16.416  12.559 -0.1251 -0.0166  0.1583
 3023DOPC   C3B35473  30.162  16.501  12.128 -0.0072 -0.5397  0.0816
 3023DOPC   C4B35474  30.247  16.359  11.678  0.2684  0.0932  0.1975
 3024DOPE   NH335475  30.154  22.648  13.228 -0.2455  0.0494  0.0049
 3024DOPE   PO435476  30.322  22.384  13.293 -0.1176  0.2132 -0.2273
 3024DOPE   GL135477  30.516  22.204  13.007  0.4171  0.0575 -0.1397
 3024DOPE   GL235478  30.306  22.033  12.756 -0.1821  0.1151  0.0892
 3024DOPE   C1A35479  30.826  22.205  12.678  0.1965  0.0259 -0.0800
 3024DOPE   D2A35480  30.862  22.132  12.164 -0.1782 -0.2745  0.1203
 3024DOPE   C3A35481  30.647  22.344  11.840 -0.5812 -0.1624  0.1136
 3024DOPE   C4A35482  30.517  22.333  11.362 -0.0935  0.0232 -0.1299
 3024DOPE   C1B35483  30.481  21.838  12.348  0.0689  0.0661  0.0384
 3024DOPE   D2B35484  30.550  21.865  11.906  0.0580 -0.3728 -0.1644
 3024DOPE   C3B35485  30.931  21.944  11.559  0.3622 -0.1934  0.1977
 3024DOPE   C4B35486  31.233  22.034  11.261 -0.0225  0.0171 -0.3146
 3025POSM   NC335487  29.822  13.594  13.402  0.0965  0.0861  0.0714
 3025POSM   PO435488  29.484  13.387  13.546  0.1986 -0.0717  0.1564
 3025POSM   AM135489  29.426  13.299  13.240  0.1596  0.3168 -0.0010
 3025POSM   AM235490  29.568  13.304  12.999 -0.2300  0.0375 -0.0786
 3025POSM   T1A35491  29.100  13.062  12.939 -0.0576  0.2343 -0.0543
 3025POSM   C2A35492  29.020  13.048  12.423  0.2732  0.1770  0.2240
 3025POSM   C3A35493  28.928  13.250  12.068  0.4036 -0.1555  0.0480
 3025POSM   C1B35494  29.458  13.287  12.700 -0.3186 -0.0246  0.1046
 3025POSM   D2B35495  29.500  13.194  12.272  0.1525  0.0947  0.1644
 3025POSM   C3B35496  29.795  13.342  12.003 -0.2103  0.1271  0.2939
 3025POSM   C4B35497  29.863  13.460  11.541  0.1420  0.0796 -0.1586
 3026DOPE   NH335498  32.292  23.253  13.348 -0.1314  0.1903  0.0605
 3026DOPE   PO435499  32.169  23.532  13.437  0.1267 -0.2052 -0.0738
 3026DOPE   GL135500  31.963  23.599  13.128  0.2141 -0.0736 -0.0010
 3026DOPE   GL235501  32.016  23.329  12.950  0.1294 -0.1627  0.1774
 3026DOPE   C1A35502  31.901  23.816  12.712 -0.0041 -0.2441 -0.0208
 3026DOPE   D2A35503  31.767  24.002  12.326 -0.1256 -0.1235  0.1276
 3026DOPE   C3A35504  31.448  23.863  11.995  0.2929  0.2923  0.0227
 3026DOPE   C4A35505  31.479  23.447  11.748  0.0708  0.2070  0.0175
 3026DOPE   C1B35506  32.156  23.405  12.561 -0.4880  0.1187 -0.1871
 3026DOPE   D2B35507  32.362  23.176  12.224  0.0005  0.0853 -0.1107
 3026DOPE   C3B35508  32.198  22.802  12.095 -0.0275 -0.0863  0.0540
 3026DOPE   C4B35509  32.287  22.394  11.865 -0.1530 -0.0721 -0.3315
 3027DOPE   NH335510  22.656  13.198  12.771 -0.1939  0.0439 -0.1701
 3027DOPE   PO435511  22.602  13.525  12.867  0.3820 -0.0637 -0.0928
 3027DOPE   GL135512  22.707  13.594  12.471  0.1447  0.0341 -0.0388
 3027DOPE   GL235513  22.509  13.407  12.385  0.1413  0.0150 -0.0552
 3027DOPE   C1A35514  22.989  13.457  12.094  0.3809  0.0825  0.1571
 3027DOPE   D2A35515  22.895  13.565  11.673 -0.1351  0.2533  0.0283
 3027DOPE   C3A35516  22.490  13.739  11.456  0.0789 -0.1947 -0.0955
 3027DOPE   C4A35517  22.150  14.027  11.205 -0.1045 -0.1941  0.0957
 3027DOPE   C1B35518  22.271  13.077  12.112 -0.3188 -0.1933 -0.2214
 3027DOPE   D2B35519  22.143  12.868  11.722 -0.1757 -0.0266  0.0221
 3027DOPE   C3B35520  22.419  12.725  11.330  0.1065 -0.0142 -0.0866
 3027DOPE   C4B35521  22.565  12.923  10.895  0.0021  0.1621 -0.0977
 3028DOPE   NH335522  32.266  19.932  14.006  0.0936  0.2300  0.1971
 3028DOPE   PO435523  32.369  19.640  13.937  0.1083  0.0689  0.1469
 3028DOPE   GL135524  32.569  19.491  13.576  0.1614  0.0915 -0.2764
 3028DOPE   GL235525  32.595  19.247  13.439 -0.0753 -0.0095  0.0143
 3028DOPE   C1A35526  32.586  19.699  13.139  0.0569 -0.2270  0.1772
 3028DOPE   D2A35527  32.905  19.926  12.776  0.2947  0.1693 -0.2147
 3028DOPE   C3A35528  32.855  20.373  12.760 -0.0882  0.4040 -0.0412
 3028DOPE   C4A35529  32.825  20.654  12.441  0.1214 -0.0440  0.2773
 3028DOPE   C1B35530  32.641  18.926  13.042 -0.0636 -0.1705 -0.0195
 3028DOPE   D2B35531  32.854  18.758  12.656 -0.2313  0.1464 -0.0164
 3028DOPE   C3B35532  32.922  19.087  12.341 -0.2407  0.1131 -0.0567
 3028DOPE   C4B35533  32.711  19.365  11.999  0.0858  0.3634 -0.0828
 3029DOPE   NH335534  22.913  12.402  12.974 -0.1588 -0.2689 -0.0711
 3029DOPE   PO435535  22.817  12.730  12.903 -0.2850 -0.0976 -0.0578
 3029DOPE   GL135536  22.693  12.718  12.533 -0.0789  0.1722 -0.0735
 3029DOPE   GL235537  22.626  12.376  12.521  0.0619 -0.0747 -0.0383
 3029DOPE   C1A35538  22.783  12.952  12.113  0.1713  0.0845 -0.2548
 3029DOPE   D2A35539  22.567  13.150  11.753  0.0482 -0.1497  0.1780
 3029DOPE   C3A35540  22.432  13.540  11.939  0.2190 -0.0504 -0.0495
 3029DOPE   C4A35541  22.667  13.906  12.016 -0.2658  0.1788 -0.1457
 3029DOPE   C1B35542  22.607  12.474  12.092 -0.0050 -0.0681  0.0936
 3029DOPE   D2B35543  22.776  12.536  11.629  0.0855  0.0808  0.3053
 3029DOPE   C3B35544  22.726  12.195  11.327  0.1020 -0.0244 -0.3215
 3029DOPE   C4B35545  23.006  11.901  11.094 -0.3447  0.1026  0.1203
 3030POSM   NC335546  31.761  15.105  13.909  0.1803  0.0148 -0.1671
 3030POSM   PO435547  31.412  14.951  13.775  0.0085 -0.0128  0.1255
 3030POSM   AM135548  31.440  14.985  13.475  0.3383  0.1502  0.5930
 3030POSM   AM235549  31.615  15.068  13.288 -0.0008 -0.0474  0.3057
 3030POSM   T1A35550  31.237  14.886  12.983  0.2091 -0.2236  0.0963
 3030POSM   C2A35551  31.008  14.912  12.540 -0.3443  0.2403 -0.3101
 3030POSM   C3A35552  30.745  14.891  12.120 -0.0545 -0.2408 -0.2262
 3030POSM   C1B35553  31.628  15.175  12.989  0.0653  0.1539  0.1742
 3030POSM   D2B35554  31.615  15.090  12.496  0.0484 -0.0192  0.2508
 3030POSM   C3B35555  31.222  15.221  12.262 -0.0187  0.1783  0.0035
 3030POSM   C4B35556  31.029  15.346  11.846  0.1804 -0.0886  0.1007
 3031DOPE   NH335557  31.352  19.882  13.496 -0.2578  0.0078 -0.1485
 3031DOPE   PO435558  31.623  20.071  13.558  0.0633 -0.0833  0.1238
 3031DOPE   GL135559  31.800  19.976  13.155 -0.3480  0.1786 -0.2600
 3031DOPE   GL235560  32.064  20.105  13.195 -0.1078  0.0228 -0.2127
 3031DOPE   C1A35561  32.139  19.717  12.905 -0.0488  0.3003 -0.0012
 3031DOPE   D2A35562  32.276  19.285  12.935 -0.2436  0.0712  0.1414
 3031DOPE   C3A35563  32.419  19.100  12.502 -0.2546 -0.1513  0.3684
 3031DOPE   C4A35564  32.318  19.075  12.074 -0.0323 -0.2024  0.0604
 3031DOPE   C1B35565  32.056  20.486  13.035 -0.2295  0.4429  0.2996
 3031DOPE   D2B35566  32.342  20.563  12.698  0.3168 -0.0785  0.0967
 3031DOPE   C3B35567  32.310  20.424  12.248 -0.0015 -0.0284  0.1981
 3031DOPE   C4B35568  32.142  20.538  11.834  0.0692 -0.0328 -0.1515
 3032DOPE   NH335569  32.238  24.153  13.696  0.1588 -0.0976  0.1095
 3032DOPE   PO435570  32.563  24.046  13.615 -0.0379  0.3112  0.2467
 3032DOPE   GL135571  32.526  23.979  13.271 -0.0080  0.1052 -0.1723
 3032DOPE   GL235572  32.760  24.003  13.162  0.3198 -0.1762 -0.2530
 3032DOPE   C1A35573  32.433  23.889  12.812  0.0407 -0.1056  0.0743
 3032DOPE   D2A35574  32.277  23.978  12.381 -0.2211  0.0314  0.0397
 3032DOPE   C3A35575  32.261  23.626  12.036 -0.1587  0.1995 -0.4947
 3032DOPE   C4A35576  31.933  23.627  11.703  0.0169  0.0969 -0.2617
 3032DOPE   C1B35577  33.092  24.270  13.030 -0.0567  0.3058  0.0118
 3032DOPE   D2B35578  33.381  24.442  12.730  0.2073  0.1718 -0.3318
 3032DOPE   C3B35579  33.755  24.374  12.919  0.2887 -0.0018  0.1160
 3032DOPE   C4B35580  34.088  24.045  13.077 -0.0150 -0.0568 -0.2006
 3033POSM   NC335581  31.449  16.454  14.096 -0.1924  0.0387  0.0514
 3033POSM   PO435582  31.124  16.672  13.898 -0.2040  0.1658 -0.1045
 3033POSM   AM135583  31.142  16.638  13.574  0.3349  0.2014  0.1770
 3033POSM   AM235584  31.176  16.478  13.346  0.0520 -0.2396  0.0586
 3033POSM   T1A35585  31.144  16.918  13.159 -0.1104 -0.0945  0.2168
 3033POSM   C2A35586  31.497  17.256  12.989  0.1937 -0.0775  0.0421
 3033POSM   C3A35587  31.689  17.390  12.569  0.0837  0.0030  0.1000
 3033POSM   C1B35588  31.136  16.208  13.111 -0.2881  0.3308 -0.3335
 3033POSM   D2B35589  31.006  15.988  12.787 -0.1934 -0.3043 -0.0024
 3033POSM   C3B35590  30.679  16.013  12.417 -0.3068  0.0337 -0.2566
 3033POSM   C4B35591  30.260  16.035  12.124 -0.1282  0.0623  0.0549
 3034DOPC   NC335592  24.516  21.420  12.452 -0.0760 -0.1872 -0.0028
 3034DOPC   PO435593  24.411  21.057  12.314 -0.2618  0.0683 -0.2738
 3034DOPC   GL135594  24.241  21.204  12.085 -0.0562  0.0287 -0.0171
 3034DOPC   GL235595  24.057  20.990  11.972 -0.1786  0.0838  0.1921
 3034DOPC   C1A35596  24.079  21.527  11.757 -0.2230  0.0309 -0.3043
 3034DOPC   D2A35597  23.880  21.712  11.396 -0.1298 -0.0290 -0.1474
 3034DOPC   C3A35598  23.985  21.855  10.978 -0.0179  0.0204 -0.0806
 3034DOPC   C4A35599  23.714  22.131  10.733  0.2972 -0.1092  0.2122
 3034DOPC   C1B35600  24.427  20.958  11.669  0.2824 -0.0437 -0.0836
 3034DOPC   D2B35601  24.766  21.167  11.383 -0.1623  0.1292  0.0875
 3034DOPC   C3B35602  24.692  21.404  11.006  0.2005 -0.1771 -0.0582
 3034DOPC   C4B35603  24.434  21.706  10.788  0.3464 -0.2872  0.0044
 3035DOPE   NH335604  25.444  13.998  13.415  0.2731 -0.1933 -0.1234
 3035DOPE   PO435605  25.275  14.184  13.194 -0.3123 -0.2484 -0.2813
 3035DOPE   GL135606  25.607  14.052  12.971  0.0034  0.2373 -0.3024
 3035DOPE   GL235607  25.659  14.344  12.860  0.1116 -0.0916  0.0564
 3035DOPE   C1A35608  25.733  13.961  12.523  0.0930 -0.0127  0.2829
 3035DOPE   D2A35609  25.553  14.205  12.205  0.0796 -0.0376 -0.1874
 3035DOPE   C3A35610  25.394  14.103  11.832  0.3359  0.0714 -0.0440
 3035DOPE   C4A35611  25.642  13.986  11.499  0.3313  0.0428 -0.1781
 3035DOPE   C1B35612  25.731  14.609  12.500  0.0857  0.2195 -0.1670
 3035DOPE   D2B35613  25.542  14.824  12.128 -0.0648  0.0399  0.6007
 3035DOPE   C3B35614  25.577  15.151  11.797 -0.0825  0.0111 -0.1126
 3035DOPE   C4B35615  25.874  15.372  11.499  0.1013 -0.1633 -0.0939
 3036DOPC   NC335616  33.004  19.517  13.792  0.0796 -0.1761 -0.1819
 3036DOPC   PO435617  32.941  19.888  13.632 -0.2902 -0.2173  0.2444
 3036DOPC   GL135618  33.059  19.813  13.251 -0.0621 -0.0257  0.4002
 3036DOPC   GL235619  33.030  20.124  13.180  0.0477 -0.0781 -0.0973
 3036DOPC   C1A35620  33.295  19.635  12.907 -0.1459  0.1619 -0.0447
 3036DOPC   D2A35621  33.693  19.633  12.660  0.0433 -0.0891 -0.0006
 3036DOPC   C3A35622  33.683  19.701  12.187 -0.0051  0.1888  0.1589
 3036DOPC   C4A35623  33.658  19.487  11.781 -0.3584  0.0822  0.0763
 3036DOPC   C1B35624  33.345  20.220  12.841 -0.2661 -0.1536  0.3649
 3036DOPC   D2B35625  33.354  20.395  12.419  0.4856  0.0807  0.2112
 3036DOPC   C3B35626  33.560  20.167  12.104  0.2132  0.0951  0.1155
 3036DOPC   C4B35627  34.058  20.178  11.981  0.0504 -0.1371  0.0967
 3037POSM   NC335628  27.720  12.517  13.661 -0.2582 -0.1985 -0.1142
 3037POSM   PO435629  27.881  12.851  13.631 -0.0872  0.2526  0.2302
 3037POSM   AM135630  27.781  12.817  13.312 -0.0726  0.0256  0.0230
 3037POSM   AM235631  27.672  12.626  13.165 -0.3706  0.1148 -0.1086
 3037POSM   T1A35632  27.595  13.057  12.891 -0.2070  0.0973 -0.2785
 3037POSM   C2A35633  27.489  13.100  12.420  0.0766  0.3513  0.0483
 3037POSM   C3A35634  27.315  13.365  12.091  0.4255  0.1638 -0.1647
 3037POSM   C1B35635  27.830  12.393  12.987  0.5721 -0.1404  0.1337
 3037POSM   D2B35636  27.917  12.230  12.564 -0.0941 -0.2432  0.0995
 3037POSM   C3B35637  27.565  12.156  12.318  0.0060 -0.3143  0.0216
 3037POSM   C4B35638  27.206  11.996  12.085 -0.0498  0.1750  0.3042
 3038DOPE   NH335639  31.864  14.536  13.890  0.0120 -0.0145  0.1103
 3038DOPE   PO435640  32.135  14.723  13.938  0.0182  0.1535 -0.0640
 3038DOPE   GL135641  31.996  14.784  13.498  0.0507 -0.2975  0.0096
 3038DOPE   GL235642  32.294  14.811  13.482  0.1682  0.1060  0.2300
 3038DOPE   C1A35643  31.970  14.725  13.000  0.0262 -0.0273 -0.2664
 3038DOPE   D2A35644  32.118  14.913  12.611 -0.0202 -0.1366 -0.1390
 3038DOPE   C3A35645  31.974  14.845  12.212 -0.1544 -0.0009 -0.0186
 3038DOPE   C4A35646  32.215  14.539  11.919 -0.0242  0.0071 -0.1139
 3038DOPE   C1B35647  32.462  14.848  13.081 -0.4742 -0.1681  0.2609
 3038DOPE   D2B35648  32.610  14.858  12.596 -0.0419  0.2730 -0.0081
 3038DOPE   C3B35649  32.674  14.656  12.184 -0.0414  0.1803  0.1572
 3038DOPE   C4B35650  32.973  14.704  11.801 -0.3217  0.2220 -0.1062
 3039DOPE   NH335651   0.286  16.680  13.811  0.1041  0.0257  0.3148
 3039DOPE   PO435652   0.342  16.879  13.573 -0.0408 -0.0034 -0.0276
 3039DOPE   GL135653   0.664  16.839  13.430  0.1946  0.0164  0.0652
 3039DOPE   GL235654   0.530  16.965  13.142 -0.0187  0.0675  0.1676
 3039DOPE   C1A35655   0.789  16.608  13.048 -0.2122 -0.2021 -0.3012
 3039DOPE   D2A35656   1.186  16.387  12.983 -0.3330  0.1588  0.0630
 3039DOPE   C3A35657   1.261  16.437  12.510  0.1081 -0.1886 -0.0310
 3039DOPE   C4A35658   1.259  16.335  12.055  0.0145 -0.0620  0.3841
 3039DOPE   C1B35659   0.397  17.179  12.753 -0.0231  0.0680  0.1543
 3039DOPE   D2B35660   0.176  17.339  12.336  0.1526  0.0704  0.1553
 3039DOPE   C3B35661  -0.187  17.199  12.151 -0.1088 -0.4717 -0.2474
 3039DOPE   C4B35662  -0.470  17.138  11.780 -0.1504  0.3296 -0.1963
 3040POSM   NC335663  25.123  14.614  13.344 -0.1841  0.0615  0.0625
 3040POSM   PO435664  24.923  14.919  13.186 -0.0700  0.0732 -0.2305
 3040POSM   AM135665  25.055  14.857  12.913 -0.3226 -0.1926  0.0560
 3040POSM   AM235666  25.181  14.643  12.839  0.2269 -0.1116  0.0857
 3040POSM   T1A35667  25.006  15.090  12.488 -0.4256  0.0839  0.1173
 3040POSM   C2A35668  24.676  15.245  12.264 -0.2651 -0.1069 -0.0479
 3040POSM   C3A35669  24.541  15.385  11.825  0.1182 -0.0242  0.1371
 3040POSM   C1B35670  25.222  14.548  12.504  0.0475 -0.0813  0.1095
 3040POSM   D2B35671  25.131  14.522  12.053  0.0389 -0.0797  0.0836
 3040POSM   C3B35672  25.466  14.583  11.672 -0.1145 -0.0778  0.0498
 3040POSM   C4B35673  25.503  14.642  11.204 -0.0194 -0.0673 -0.0076
 3041DOPS   CNO35674  30.972  14.612  13.934  0.0326 -0.1008 -0.0733
 3041DOPS   PO435675  30.892  14.323  13.680  0.2136 -0.2629  0.0998
 3041DOPS   GL135676  30.764  14.346  13.336 -0.0570 -0.0820 -0.0425
 3041DOPS   GL235677  30.943  14.473  13.093 -0.0422 -0.3600  0.0505
 3041DOPS   C1A35678  30.376  14.428  13.078 -0.2088  0.0473  0.2755
 3041DOPS   D2A35679  30.130  14.747  12.794 -0.0660 -0.1917 -0.3630
 3041DOPS   C3A35680  30.083  14.744  12.324  0.2442 -0.0155 -0.0664
 3041DOPS   C4A35681  29.884  14.948  11.949  0.0276 -0.0002 -0.0631
 3041DOPS   C1B35682  30.723  14.904  13.006 -0.1126 -0.1631 -0.1273
 3041DOPS   D2B35683  30.779  15.329  12.979 -0.1651 -0.2243 -0.0096
 3041DOPS   C3B35684  30.750  15.391  12.461 -0.0718  0.3334  0.0713
 3041DOPS   C4B35685  30.634  15.501  12.067  0.0691  0.0054 -0.1706
 3042DOPC   NC335686  28.123  21.557  12.759 -0.5028 -0.1459  0.0624
 3042DOPC   PO435687  27.715  21.551  12.718 -0.1062  0.0339  0.0613
 3042DOPC   GL135688  27.955  21.524  12.343  0.0709  0.0474  0.1246
 3042DOPC   GL235689  27.837  21.230  12.245 -0.1126 -0.0097  0.2740
 3042DOPC   C1A35690  28.285  21.740  12.120  0.0452  0.1959  0.0121
 3042DOPC   D2A35691  28.402  21.633  11.681 -0.2409 -0.1924 -0.1335
 3042DOPC   C3A35692  28.375  21.650  11.232  0.1843 -0.3318  0.0131
 3042DOPC   C4A35693  28.323  21.868  10.797  0.3482  0.3208  0.1665
 3042DOPC   C1B35694  28.091  21.227  11.840 -0.1944 -0.0983  0.0388
 3042DOPC   D2B35695  28.067  21.368  11.446  0.2843  0.1578 -0.2841
 3042DOPC   C3B35696  27.756  21.130  11.167  0.1874  0.1172  0.2070
 3042DOPC   C4B35697  27.636  20.879  10.742 -0.3572 -0.2226 -0.1495
 3043POSM   NC335698  28.285  17.897  13.385 -0.1769  0.1123  0.2197
 3043POSM   PO435699  28.650  17.869  13.518  0.1887 -0.1529  0.3354
 3043POSM   AM135700  28.736  17.713  13.257  0.1535 -0.3169  0.5490
 3043POSM   AM235701  28.930  17.672  13.088 -0.1118  0.1477 -0.1988
 3043POSM   T1A35702  28.571  17.342  12.956  0.0937 -0.1927  0.2298
 3043POSM   C2A35703  28.408  17.034  12.696  0.0512  0.0813 -0.1317
 3043POSM   C3A35704  28.468  16.827  12.326 -0.1402 -0.0307 -0.2233
 3043POSM   C1B35705  28.798  17.814  12.807  0.0305 -0.2077 -0.0259
 3043POSM   D2B35706  28.563  17.849  12.384 -0.1489 -0.0289  0.1911
 3043POSM   C3B35707  28.710  17.898  11.947 -0.1210  0.2934  0.0612
 3043POSM   C4B35708  29.101  18.071  11.878 -0.2823  0.0062  0.1096
 3044DOPE   NH335709  29.408  11.648  14.178  0.1549  0.0399 -0.0389
 3044DOPE   PO435710  29.161  11.542  13.918 -0.1237 -0.1239  0.4729
 3044DOPE   GL135711  29.215  11.558  13.529  0.0584 -0.2933 -0.0626
 3044DOPE   GL235712  28.986  11.667  13.323 -0.0312 -0.1916  0.1137
 3044DOPE   C1A35713  29.472  11.397  13.162 -0.1255  0.0455 -0.0941
 3044DOPE   D2A35714  29.645  11.628  12.751  0.1307 -0.1303  0.4800
 3044DOPE   C3A35715  29.911  12.003  12.751  0.1045 -0.0792  0.2609
 3044DOPE   C4A35716  29.917  12.447  12.561  0.0746 -0.1337  0.0258
 3044DOPE   C1B35717  29.076  11.596  12.868 -0.2816  0.2850  0.5068
 3044DOPE   D2B35718  29.166  11.760  12.455 -0.2403  0.4544  0.0743
 3044DOPE   C3B35719  29.188  11.757  12.029  0.0674  0.1605 -0.0475
 3044DOPE   C4B35720  29.238  11.551  11.644 -0.0177 -0.0988 -0.2687
 3045DOPS   CNO35721  26.149  15.229  13.845 -0.1678  0.0328  0.1203
 3045DOPS   PO435722  26.300  14.972  13.566 -0.0419 -0.1471  0.2503
 3045DOPS   GL135723  26.490  14.902  13.194  0.2952 -0.1376 -0.2825
 3045DOPS   GL235724  26.806  14.719  13.195 -0.0618  0.0619 -0.0393
 3045DOPS   C1A35725  26.475  15.026  12.750  0.0030  0.1145  0.1504
 3045DOPS   D2A35726  26.251  14.871  12.409  0.1514  0.2531  0.1383
 3045DOPS   C3A35727  26.487  15.174  12.110  0.1008  0.0167  0.0875
 3045DOPS   C4A35728  26.330  15.188  11.641 -0.0263  0.1284 -0.1131
 3045DOPS   C1B35729  26.906  14.724  12.679 -0.0529  0.2169 -0.2055
 3045DOPS   D2B35730  26.670  14.579  12.311  0.1529  0.0868 -0.0564
 3045DOPS   C3B35731  26.406  14.649  11.929 -0.1644  0.0082  0.3365
 3045DOPS   C4B35732  26.437  14.709  11.463 -0.2591 -0.1325 -0.1144
 3046DOPS   CNO35733  29.324  21.404  12.913 -0.1275  0.2735 -0.1366
 3046DOPS   PO435734  29.211  21.793  12.944  0.2488 -0.0908  0.2149
 3046DOPS   GL135735  29.004  21.714  12.639 -0.2725 -0.2115 -0.3243
 3046DOPS   GL235736  29.274  21.831  12.456  0.0648 -0.0552 -0.5603
 3046DOPS   C1A35737  28.820  21.728  12.194  0.1933 -0.2022  0.2454
 3046DOPS   D2A35738  28.909  21.609  11.747  0.0149  0.2408  0.3253
 3046DOPS   C3A35739  28.863  21.948  11.381  0.1207 -0.0680  0.3184
 3046DOPS   C4A35740  28.786  22.022  10.927  0.0480 -0.1244  0.2619
 3046DOPS   C1B35741  29.397  21.705  12.008  0.1485  0.2114 -0.2349
 3046DOPS   D2B35742  29.662  21.998  11.750 -0.3467 -0.0289  0.0711
 3046DOPS   C3B35743  29.815  22.380  11.915  0.0699  0.0371 -0.2350
 3046DOPS   C4B35744  30.207  22.654  11.839 -0.1732 -0.2386 -0.1915
 3047DOPE   NH335745  33.428  12.840  14.054  0.4032  0.2717 -0.1970
 3047DOPE   PO435746  33.729  12.790  14.007  0.2379  0.0015 -0.3257
 3047DOPE   GL135747  33.711  12.446  13.765  0.0449  0.2423  0.3685
 3047DOPE   GL235748  33.469  12.554  13.626 -0.1901 -0.2321  0.1553
 3047DOPE   C1A35749  33.960  12.133  13.480  0.0572 -0.0908 -0.1773
 3047DOPE   D2A35750  34.305  11.895  13.378 -0.2983 -0.2899 -0.1682
 3047DOPE   C3A35751  34.542  12.079  12.996  0.0294  0.0455 -0.0885
 3047DOPE   C4A35752  34.921  11.926  12.740 -0.1763  0.0611  0.2246
 3047DOPE   C1B35753  33.530  12.324  13.250  0.4090  0.1014 -0.0142
 3047DOPE   D2B35754  33.463  12.253  12.795  0.0072 -0.2948 -0.0925
 3047DOPE   C3B35755  33.063  12.077  12.605  0.2842  0.0605  0.0531
 3047DOPE   C4B35756  32.728  11.878  12.352 -0.0423 -0.2486  0.2478
 3048DOPC   NC335757  30.361  17.602  13.251  0.0640  0.1444  0.0240
 3048DOPC   PO435758  30.724  17.584  13.363  0.1759  0.0413  0.1138
 3048DOPC   GL135759  30.660  17.456  12.941 -0.5605  0.2651  0.1133
 3048DOPC   GL235760  30.691  17.190  13.023 -0.2262  0.3381  0.0559
 3048DOPC   C1A35761  30.568  17.302  12.512  0.0931  0.1468 -0.2313
 3048DOPC   D2A35762  30.460  17.270  12.040  0.0492  0.0563 -0.0227
 3048DOPC   C3A35763  30.504  16.798  11.873  0.2939  0.0758  0.2126
 3048DOPC   C4A35764  30.680  16.480  12.131 -0.1101  0.0573  0.1891
 3048DOPC   C1B35765  30.316  16.994  12.852 -0.0244 -0.0677  0.0831
 3048DOPC   D2B35766  30.116  16.858  12.469 -0.2840 -0.0853 -0.0071
 3048DOPC   C3B35767  30.051  16.975  12.030 -0.0984  0.1082 -0.1597
 3048DOPC   C4B35768  30.127  16.916  11.568 -0.0823  0.0950  0.1365
 3049DOPS   CNO35769  33.258  18.845  13.917 -0.3177  0.2241 -0.3047
 3049DOPS   PO435770  32.964  18.996  13.776 -0.2253 -0.0096 -0.0356
 3049DOPS   GL135771  33.019  19.009  13.318  0.0018  0.0662  0.2654
 3049DOPS   GL235772  33.121  19.266  13.190  0.0013 -0.1785  0.0047
 3049DOPS   C1A35773  33.190  18.703  12.997  0.2193 -0.2096  0.0029
 3049DOPS   D2A35774  33.107  18.345  12.711  0.0560  0.1958 -0.1744
 3049DOPS   C3A35775  33.041  18.327  12.227 -0.1512 -0.0509  0.0638
 3049DOPS   C4A35776  32.953  18.385  11.780  0.2120  0.2015  0.1432
 3049DOPS   C1B35777  32.742  19.405  12.831  0.1802 -0.1757 -0.1466
 3049DOPS   D2B35778  32.507  19.528  12.417 -0.3298  0.1205 -0.4952
 3049DOPS   C3B35779  32.643  19.823  12.075 -0.1538 -0.1107  0.6039
 3049DOPS   C4B35780  32.727  19.713  11.623  0.0403  0.0618 -0.1259
 3050DOPE   NH335781  28.739  21.016  13.343 -0.2860  0.1552  0.1699
 3050DOPE   PO435782  28.498  21.118  13.144 -0.1687 -0.0599  0.1908
 3050DOPE   GL135783  28.587  21.287  12.744 -0.0313  0.5064  0.0600
 3050DOPE   GL235784  28.507  21.434  12.504  0.2307 -0.1406  0.1402
 3050DOPE   C1A35785  28.976  21.315  12.492  0.0140  0.0864 -0.2213
 3050DOPE   D2A35786  29.163  21.296  12.010  0.0026 -0.0369 -0.3290
 3050DOPE   C3A35787  29.383  21.001  11.787  0.2317 -0.1350 -0.0895
 3050DOPE   C4A35788  29.713  20.867  11.450 -0.0987  0.1854  0.2384
 3050DOPE   C1B35789  28.579  21.273  12.050 -0.3192  0.2056 -0.1575
 3050DOPE   D2B35790  28.614  21.204  11.568 -0.1039 -0.0479 -0.0474
 3050DOPE   C3B35791  29.046  21.185  11.387  0.0514 -0.2518 -0.2741
 3050DOPE   C4B35792  29.341  20.914  11.147  0.1659  0.2704  0.2071
 3051DOPE   NH335793  30.873  18.373  13.691 -0.0403 -0.4004 -0.1890
 3051DOPE   PO435794  30.922  18.640  13.519 -0.2109  0.0997 -0.2924
 3051DOPE   GL135795  30.776  18.723  13.152 -0.0749  0.2527  0.0844
 3051DOPE   GL235796  31.077  18.829  13.056  0.1122 -0.0237 -0.1077
 3051DOPE   C1A35797  30.760  18.757  12.671  0.1146  0.1020 -0.0978
 3051DOPE   D2A35798  30.588  18.825  12.240  0.1862 -0.0315 -0.1670
 3051DOPE   C3A35799  30.705  19.170  11.924  0.0391  0.4076  0.4156
 3051DOPE   C4A35800  30.878  19.460  11.621  0.1836  0.1117 -0.0968
 3051DOPE   C1B35801  31.335  18.633  12.690 -0.1389 -0.2393 -0.0281
 3051DOPE   D2B35802  31.308  18.432  12.268 -0.1577 -0.1525 -0.1482
 3051DOPE   C3B35803  31.538  18.623  11.914 -0.1942  0.0710  0.1679
 3051DOPE   C4B35804  31.865  18.797  11.594  0.1837 -0.0856  0.4389
 3052DOPE   NH335805  29.696  15.677  13.841  0.3859  0.1940  0.0557
 3052DOPE   PO435806  29.775  15.796  13.506  0.2284  0.2068  0.2712
 3052DOPE   GL135807  30.150  15.602  13.209  0.1145 -0.3538  0.1406
 3052DOPE   GL235808  30.020  15.787  13.062 -0.0724  0.0042 -0.0749
 3052DOPE   C1A35809  30.244  15.251  12.924 -0.0472 -0.2652 -0.0382
 3052DOPE   D2A35810  30.461  15.035  12.598 -0.0903 -0.0086  0.1385
 3052DOPE   C3A35811  30.599  14.618  12.596  0.1027  0.2429 -0.4293
 3052DOPE   C4A35812  30.574  14.177  12.666  0.0742 -0.2346 -0.2990
 3052DOPE   C1B35813  30.079  16.004  12.671 -0.0761  0.0967  0.0215
 3052DOPE   D2B35814  29.835  16.394  12.457  0.0802  0.1953 -0.0172
 3052DOPE   C3B35815  29.371  16.395  12.256 -0.2576 -0.1485 -0.2118
 3052DOPE   C4B35816  29.010  16.335  11.904 -0.5268  0.4171 -0.2403
 3053DOPC   NC335817   0.357  23.486  14.398  0.2046 -0.0686 -0.2448
 3053DOPC   PO435818   0.098  23.800  14.351  0.0694 -0.1384  0.3169
 3053DOPC   GL135819   0.059  23.985  13.937  0.2854 -0.1455  0.3948
 3053DOPC   GL235820   0.104  24.259  13.922  0.0001  0.2184  0.2217
 3053DOPC   C1A35821   0.364  23.735  13.697  0.1728 -0.2034 -0.2622
 3053DOPC   D2A35822   0.522  23.422  13.331  0.0235  0.1428  0.0729
 3053DOPC   C3A35823   0.454  23.598  12.877  0.0236  0.1214 -0.1800
 3053DOPC   C4A35824   0.621  23.853  12.545 -0.2202  0.0120 -0.1660
 3053DOPC   C1B35825  -0.179  24.557  13.684 -0.4031 -0.1499 -0.2254
 3053DOPC   D2B35826  -0.135  24.929  13.392 -0.2601  0.0090  0.0729
 3053DOPC   C3B35827   0.304  25.057  13.197  0.3567 -0.1570 -0.0406
 3053DOPC   C4B35828   0.550  24.923  12.865  0.0710 -0.0831  0.1818
 3054POSM   NC335829  24.307  19.987  12.633  0.0390  0.1470 -0.3385
 3054POSM   PO435830  24.411  19.605  12.660  0.0276  0.1904 -0.0600
 3054POSM   AM135831  24.466  19.523  12.344  0.0364  0.0973  0.1347
 3054POSM   AM235832  24.623  19.429  12.148 -0.4792 -0.0284 -0.1164
 3054POSM   T1A35833  24.501  19.750  11.856 -0.0145  0.2710 -0.1064
 3054POSM   C2A35834  24.366  20.051  11.513 -0.5469 -0.0342  0.1927
 3054POSM   C3A35835  24.018  20.242  11.307  0.2078  0.0816 -0.0479
 3054POSM   C1B35836  24.655  19.191  11.851 -0.2825  0.0981 -0.1600
 3054POSM   D2B35837  24.552  19.000  11.393  0.2312  0.3716 -0.0343
 3054POSM   C3B35838  24.762  18.599  11.289 -0.2538 -0.0447  0.2829
 3054POSM   C4B35839  24.941  18.244  11.468  0.1330  0.0354 -0.2885
 3055POSM   NC335840  23.682  24.002  12.749  0.0531  0.1747 -0.1507
 3055POSM   PO435841  23.998  23.780  12.669  0.0437 -0.3411 -0.1797
 3055POSM   AM135842  23.925  23.835  12.343 -0.1104  0.0753 -0.0517
 3055POSM   AM235843  23.993  24.016  12.114 -0.0515 -0.2109 -0.0355
 3055POSM   T1A35844  23.670  23.655  11.889  0.1794 -0.1519  0.0853
 3055POSM   C2A35845  23.335  23.482  11.588  0.2826 -0.2002  0.0784
 3055POSM   C3A35846  23.147  23.474  11.173  0.2462  0.2467 -0.0741
 3055POSM   C1B35847  24.115  23.871  11.869  0.0378  0.3077  0.2202
 3055POSM   D2B35848  24.363  23.734  11.450  0.0805 -0.0922  0.1845
 3055POSM   C3B35849  24.563  24.018  11.064 -0.1816  0.1265 -0.1334
 3055POSM   C4B35850  24.703  24.132  10.582 -0.1353 -0.0894  0.0711
 3056DOPC   NC335851  27.076  16.628  13.557 -0.1685  0.1746 -0.0979
 3056DOPC   PO435852  27.139  16.331  13.343  0.0284  0.1248 -0.1401
 3056DOPC   GL135853  27.377  16.478  13.116 -0.1525 -0.1359 -0.2182
 3056DOPC   GL235854  27.593  16.413  13.103 -0.0668  0.0389  0.1213
 3056DOPC   C1A35855  27.532  16.430  12.654 -0.4030  0.0342  0.2146
 3056DOPC   D2A35856  27.402  16.128  12.302 -0.0987  0.2741 -0.0594
 3056DOPC   C3A35857  27.284  16.326  11.921  0.0242  0.0432  0.0001
 3056DOPC   C4A35858  26.945  16.491  11.646  0.0259 -0.1243 -0.2123
 3056DOPC   C1B35859  27.446  15.981  12.889 -0.0013  0.1255  0.1682
 3056DOPC   D2B35860  27.175  15.679  12.709 -0.0117 -0.0268 -0.0588
 3056DOPC   C3B35861  26.978  15.813  12.333  0.0940  0.2086  0.0446
 3056DOPC   C4B35862  26.968  15.832  11.882  0.1123  0.1154  0.2220
 3057DOPC   NC335863  29.438  18.568  13.391 -0.1440 -0.0617 -0.0003
 3057DOPC   PO435864  29.603  18.270  13.298  0.0902  0.0025  0.1210
 3057DOPC   GL135865  29.649  18.236  12.984  0.0863  0.1376  0.0607
 3057DOPC   GL235866  29.923  18.347  12.842 -0.0561  0.0811  0.1996
 3057DOPC   C1A35867  29.698  17.847  12.790 -0.2481  0.0484 -0.0213
 3057DOPC   D2A35868  29.601  17.827  12.361 -0.0311  0.2444 -0.2244
 3057DOPC   C3A35869  29.536  18.186  12.064  0.1056 -0.1662 -0.0926
 3057DOPC   C4A35870  29.410  18.387  11.626 -0.0296  0.0609 -0.2075
 3057DOPC   C1B35871  29.976  18.099  12.468 -0.0224 -0.3787 -0.0182
 3057DOPC   D2B35872  29.994  18.041  12.053  0.1171  0.3065 -0.0408
 3057DOPC   C3B35873  30.289  18.212  11.716 -0.0522 -0.3144 -0.1600
 3057DOPC   C4B35874  30.522  18.614  11.676  0.0396  0.0723  0.6955
 3058DOPS   CNO35875  25.286  21.915  12.940  0.2294 -0.3481  0.3323
 3058DOPS   PO435876  24.968  22.113  12.924  0.1279 -0.2676 -0.1066
 3058DOPS   GL135877  24.926  22.132  12.525 -0.1667  0.0893  0.4285
 3058DOPS   GL235878  24.762  22.343  12.425 -0.0508 -0.1790 -0.1255
 3058DOPS   C1A35879  25.031  21.971  12.100  0.0398 -0.0914 -0.1915
 3058DOPS   D2A35880  24.871  21.967  11.648 -0.0066 -0.2236 -0.1405
 3058DOPS   C3A35881  25.000  21.954  11.208  0.2319  0.0385  0.4221
 3058DOPS   C4A35882  25.348  21.874  10.902 -0.1286  0.2313 -0.1333
 3058DOPS   C1B35883  24.656  22.285  12.003 -0.1251  0.1080  0.0719
 3058DOPS   D2B35884  24.586  22.415  11.575  0.1810 -0.0314  0.3515
 3058DOPS   C3B35885  24.332  22.635  11.252 -0.2379 -0.1978  0.2875
 3058DOPS   C4B35886  23.966  22.784  11.082  0.2121 -0.0061 -0.2350
 3059DOPE   NH335887  29.961  13.901  13.880  0.1216  0.0157 -0.1474
 3059DOPE   PO435888  29.951  14.228  13.894 -0.3101  0.0540  0.2743
 3059DOPE   GL135889  30.157  14.296  13.467  0.0169 -0.2492  0.1052
 3059DOPE   GL235890  30.076  14.018  13.385 -0.4630 -0.4040 -0.2475
 3059DOPE   C1A35891  29.843  14.473  13.178  0.0835  0.3503 -0.1316
 3059DOPE   D2A35892  29.705  14.586  12.733  0.1289  0.0471 -0.3241
 3059DOPE   C3A35893  29.504  14.156  12.673 -0.0895  0.1101  0.0835
 3059DOPE   C4A35894  29.140  13.842  12.804 -0.0868  0.0718 -0.0739
 3059DOPE   C1B35895  30.063  14.049  12.914  0.3511 -0.0528 -0.1721
 3059DOPE   D2B35896  30.057  14.264  12.565 -0.2797 -0.0574 -0.1138
 3059DOPE   C3B35897  29.779  14.107  12.247 -0.2369  0.2348  0.0052
 3059DOPE   C4B35898  29.805  13.834  11.913  0.0260 -0.1076 -0.0107
 3060DOPS   CNO35899  33.204  17.168  13.266  0.1783  0.5263 -0.1106
 3060DOPS   PO435900  33.030  17.429  13.469  0.1160 -0.5147 -0.1232
 3060DOPS   GL135901  32.935  17.496  13.063 -0.3375 -0.1213  0.1452
 3060DOPS   GL235902  32.712  17.363  12.996  0.2754 -0.1174 -0.2435
 3060DOPS   C1A35903  33.189  17.309  12.763  0.1620  0.1133 -0.0285
 3060DOPS   D2A35904  33.415  17.524  12.362 -0.1630 -0.5544 -0.4646
 3060DOPS   C3A35905  33.447  17.988  12.175 -0.2587  0.3748  0.0135
 3060DOPS   C4A35906  33.559  18.357  11.840  0.1888 -0.5179  0.0755
 3060DOPS   C1B35907  32.743  17.501  12.538  0.1211  0.4829 -0.3448
 3060DOPS   D2B35908  32.597  17.566  12.070  0.0121 -0.1072  0.0589
 3060DOPS   C3B35909  32.266  17.282  11.839 -0.1081  0.2121 -0.1179
 3060DOPS   C4B35910  32.036  16.878  11.771 -0.1250  0.2173  0.1314
 3061DOPE   NH335911   0.426  14.836  10.221  0.3434 -0.1664 -0.0392
 3061DOPE   PO435912   0.205  14.642  10.073 -0.0073 -0.0924 -0.2007
 3061DOPE   GL135913   0.078  14.745  10.488  0.0741 -0.1759  0.0174
 3061DOPE   GL235914  -0.189  14.729  10.578  0.0664 -0.2343 -0.2845
 3061DOPE   C1A35915   0.105  14.707  10.963 -0.2473  0.0228  0.1993
 3061DOPE   D2A35916  -0.143  14.570  11.369  0.0887 -0.0700 -0.0010
 3061DOPE   C3A35917  -0.586  14.409  11.413 -0.2060  0.3222  0.1316
 3061DOPE   C4A35918  -0.962  14.379  11.627 -0.1709  0.0166 -0.0819
 3061DOPE   C1B35919  -0.394  14.783  10.975  0.1202 -0.3098 -0.2907
 3061DOPE   D2B35920  -0.705  14.978  11.258 -0.1084  0.1321  0.0195
 3061DOPE   C3B35921  -0.992  14.852  11.614  0.3810 -0.0420 -0.2175
 3061DOPE   C4B35922  -1.007  14.695  12.026  0.1721  0.1719  0.0792
 3062DOPS   CNO35923  23.184  14.740   8.793 -0.1665  0.0896 -0.0879
 3062DOPS   PO435924  23.509  14.551   8.890  0.4285 -0.2783  0.0874
 3062DOPS   GL135925  23.642  14.428   9.253  0.1167 -0.4331 -0.1378
 3062DOPS   GL235926  23.550  14.200   9.388  0.0148  0.3099  0.2157
 3062DOPS   C1A35927  24.020  14.418   9.516  0.2102  0.2804 -0.1002
 3062DOPS   D2A35928  24.328  14.626   9.811  0.0542  0.0424  0.1373
 3062DOPS   C3A35929  24.799  14.527   9.892  0.1241  0.0005 -0.1635
 3062DOPS   C4A35930  25.054  14.441  10.271  0.0563 -0.1847 -0.2919
 3062DOPS   C1B35931  23.886  13.959   9.654 -0.0757 -0.4204 -0.0245
 3062DOPS   D2B35932  24.051  13.711  10.000  0.2177 -0.1861  0.1866
 3062DOPS   C3B35933  24.160  13.929  10.434 -0.2690 -0.0839 -0.3696
 3062DOPS   C4B35934  24.112  14.311  10.695  0.0100 -0.1159  0.0126
 3063DOPE   NH335935  31.388  14.870   9.613  0.3099  0.2321 -0.0288
 3063DOPE   PO435936  31.605  14.850   9.817  0.3541  0.0301  0.1901
 3063DOPE   GL135937  31.665  14.719  10.198  0.2036  0.0941 -0.0806
 3063DOPE   GL235938  31.477  14.486  10.203 -0.1044  0.0983 -0.1487
 3063DOPE   C1A35939  31.745  15.003  10.557  0.2613  0.1353 -0.2423
 3063DOPE   D2A35940  32.054  14.893  10.896 -0.0301  0.0606  0.0260
 3063DOPE   C3A35941  31.881  14.637  11.254 -0.2009 -0.2487 -0.2563
 3063DOPE   C4A35942  31.663  14.650  11.696  0.1990 -0.0695  0.0510
 3063DOPE   C1B35943  31.552  14.555  10.681 -0.3005  0.1940 -0.3095
 3063DOPE   D2B35944  31.365  14.813  11.035 -0.3456  0.0611  0.0913
 3063DOPE   C3B35945  30.880  14.886  11.091  0.0466  0.0461  0.1541
 3063DOPE   C4B35946  30.724  15.155  11.458 -0.0336  0.2098  0.5266
 3064DOPE   NH335947  33.706  16.523  10.137  0.2215 -0.0351  0.2134
 3064DOPE   PO435948  33.530  16.673   9.927 -0.1177 -0.1466  0.0760
 3064DOPE   GL135949  33.552  17.065  10.139 -0.2652 -0.1020  0.4434
 3064DOPE   GL235950  33.692  17.001  10.295  0.2662 -0.1075 -0.2543
 3064DOPE   C1A35951  33.431  17.155  10.680 -0.1625 -0.2101  0.2388
 3064DOPE   D2A35952  33.183  17.418  10.987  0.1930 -0.0466  0.3184
 3064DOPE   C3A35953  32.766  17.273  11.171  0.2144 -0.1662 -0.0761
 3064DOPE   C4A35954  32.404  17.524  11.425 -0.2530  0.0214 -0.1237
 3064DOPE   C1B35955  33.563  16.718  10.667 -0.1433  0.1733 -0.2654
 3064DOPE   D2B35956  33.212  16.533  10.919 -0.4399 -0.2259 -0.2301
 3064DOPE   C3B35957  33.362  16.115  11.089  0.2177 -0.2038 -0.0785
 3064DOPE   C4B35958  33.462  15.896  11.495  0.0122  0.1553 -0.0423
 3065DOPC   NC335959  32.034  14.576   9.951 -0.0794  0.0312 -0.1684
 3065DOPC   PO435960  31.778  14.244   9.918 -0.1685  0.0039 -0.0177
 3065DOPC   GL135961  31.945  14.226  10.342  0.0095 -0.0865  0.2984
 3065DOPC   GL235962  32.013  14.543  10.473  0.1202  0.0115  0.1070
 3065DOPC   C1A35963  32.305  13.915  10.498  0.1242 -0.2054  0.0989
 3065DOPC   D2A35964  32.299  13.742  10.920 -0.1523  0.2253 -0.0739
 3065DOPC   C3A35965  32.337  13.714  11.404 -0.0204 -0.1113  0.1911
 3065DOPC   C4A35966  32.681  13.560  11.718  0.0786  0.2077 -0.2933
 3065DOPC   C1B35967  32.213  14.339  10.834  0.0941 -0.2430  0.0019
 3065DOPC   D2B35968  32.277  14.310  11.315  0.0557 -0.0159  0.4870
 3065DOPC   C3B35969  31.921  14.177  11.598  0.0239  0.0194 -0.1336
 3065DOPC   C4B35970  31.927  14.029  12.064 -0.0430 -0.2999  0.1703
 3066DOPC   NC335971  26.725  19.270   8.978 -0.0455 -0.2700  0.1254
 3066DOPC   PO435972  26.605  19.291   9.375 -0.3383 -0.4199 -0.0391
 3066DOPC   GL135973  26.412  19.461   9.672  0.0827 -0.3098  0.3137
 3066DOPC   GL235974  26.581  19.629   9.859 -0.1281  0.0236 -0.1726
 3066DOPC   C1A35975  26.002  19.495   9.846 -0.0922  0.1096 -0.1288
 3066DOPC   D2A35976  25.547  19.626   9.794 -0.0348  0.0764 -0.0745
 3066DOPC   C3A35977  25.327  19.731  10.159 -0.1379 -0.3716  0.0159
 3066DOPC   C4A35978  25.510  19.999  10.471 -0.1011 -0.3833  0.0168
 3066DOPC   C1B35979  26.280  19.687  10.188  0.0764 -0.0556  0.0048
 3066DOPC   D2B35980  25.818  19.641  10.291 -0.1814  0.1244 -0.3542
 3066DOPC   C3B35981  25.864  19.605  10.732 -0.0067 -0.0831 -0.0042
 3066DOPC   C4B35982  25.836  19.611  11.163  0.1716  0.0231 -0.2477
 3067DOPE   NH335983  23.940  22.652   8.546  0.0831 -0.1304 -0.1071
 3067DOPE   PO435984  24.282  22.619   8.615 -0.0494 -0.4576 -0.3644
 3067DOPE   GL135985  24.407  22.528   8.973 -0.1158 -0.3322  0.2251
 3067DOPE   GL235986  24.455  22.848   9.183 -0.1999  0.0572  0.1474
 3067DOPE   C1A35987  24.272  22.358   9.400 -0.1187 -0.1106 -0.0592
 3067DOPE   D2A35988  24.000  22.455   9.789 -0.1327  0.3014  0.1630
 3067DOPE   C3A35989  24.050  22.356  10.239  0.0446  0.2257  0.2890
 3067DOPE   C4A35990  24.208  22.144  10.651  0.0251 -0.1230 -0.1660
 3067DOPE   C1B35991  24.385  22.807   9.605 -0.2606 -0.4861 -0.0974
 3067DOPE   D2B35992  24.288  23.033   9.984  0.1141  0.1560  0.0039
 3067DOPE   C3B35993  24.256  22.853  10.393 -0.1696  0.0606  0.5333
 3067DOPE   C4B35994  24.474  22.588  10.719 -0.0212  0.0319  0.4763
 3068DOPE   NH335995   0.238  22.977  10.399  0.2524 -0.0730 -0.0055
 3068DOPE   PO435996   0.291  23.073  10.689  0.1318  0.0614 -0.1985
 3068DOPE   GL135997   0.139  22.854  10.906  0.0886  0.1373  0.2781
 3068DOPE   GL235998  -0.097  23.021  11.045  0.0053  0.2187 -0.0725
 3068DOPE   C1A35999   0.218  22.771  11.350 -0.2427 -0.0949  0.1031
 3068DOPE   D2A36000   0.183  22.997  11.710  0.3677 -0.0191  0.2050
 3068DOPE   C3A36001   0.120  23.166  12.131  0.1596 -0.0073 -0.0293
 3068DOPE   C4A36002   0.224  23.535  12.412  0.0165 -0.0354 -0.0570
 3068DOPE   C1B36003  -0.458  23.280  10.980 -0.3394 -0.1540  0.0925
 3068DOPE   D2B36004  -0.746  23.549  11.264 -0.2709 -0.2229 -0.1840
 3068DOPE   C3B36005  -0.401  23.727  11.487 -0.2111 -0.0404  0.0984
 3068DOPE   C4B36006  -0.226  24.117  11.688  0.1217  0.0778  0.0019
 3069DOPE   NH336007  29.247  18.260   9.793  0.5187 -0.0026 -0.0518
 3069DOPE   PO436008  29.561  18.274   9.840  0.1533 -0.0830 -0.3111
 3069DOPE   GL136009  29.579  18.100  10.122  0.2083 -0.1623 -0.2500
 3069DOPE   GL236010  29.349  18.182  10.267  0.0254  0.1302  0.1208
 3069DOPE   C1A36011  29.734  17.762  10.380 -0.2829 -0.0378  0.3025
 3069DOPE   D2A36012  29.768  17.366  10.557 -0.4036  0.0556  0.0935
 3069DOPE   C3A36013  29.641  17.150  10.982 -0.0546 -0.1484 -0.0369
 3069DOPE   C4A36014  29.599  17.015  11.426  0.3605  0.2675 -0.0523
 3069DOPE   C1B36015  29.508  18.189  10.697  0.0387 -0.3276 -0.1931
 3069DOPE   D2B36016  29.402  18.529  11.062 -0.0612 -0.0205 -0.0414
 3069DOPE   C3B36017  29.321  18.974  10.978 -0.0757  0.0341  0.0255
 3069DOPE   C4B36018  29.706  19.128  10.780 -0.1945  0.0109  0.0341
 3070POSM   NC336019  25.313  21.300   8.986 -0.1598  0.0565  0.0110
 3070POSM   PO436020  25.584  21.001   8.838 -0.2758 -0.2396  0.0240
 3070POSM   AM136021  25.433  20.830   9.089 -0.0244 -0.3109  0.0710
 3070POSM   AM236022  25.497  20.548   9.206  0.0909 -0.0308 -0.2536
 3070POSM   T1A36023  25.066  20.863   9.395  0.0860  0.1184 -0.0397
 3070POSM   C2A36024  24.989  20.539   9.748 -0.1600 -0.0058 -0.1042
 3070POSM   C3A36025  25.016  20.065   9.853 -0.1979  0.1406 -0.2255
 3070POSM   C1B36026  25.559  20.544   9.556 -0.0677 -0.2919  0.1462
 3070POSM   D2B36027  25.578  20.678   9.959 -0.1706 -0.2051 -0.2274
 3070POSM   C3B36028  25.342  20.907  10.263  0.0205  0.0560  0.4825
 3070POSM   C4B36029  24.963  21.107  10.254  0.1252 -0.0247  0.2030
 3071DOPE   NH336030  28.680  20.350   9.334  0.0059 -0.0533  0.0090
 3071DOPE   PO436031  28.914  20.166   9.393 -0.0865 -0.2441 -0.1379
 3071DOPE   GL136032  28.729  20.068   9.773 -0.0957 -0.1676  0.0529
 3071DOPE   GL236033  28.938  19.929   9.882  0.0051  0.1630 -0.5081
 3071DOPE   C1A36034  28.574  20.137  10.192  0.4276 -0.0533  0.1778
 3071DOPE   D2A36035  28.457  20.176  10.631  0.0572 -0.1496  0.1748
 3071DOPE   C3A36036  28.909  20.310  10.741  0.1212 -0.0221  0.1316
 3071DOPE   C4A36037  29.251  20.631  10.656 -0.2032  0.2839  0.1402
 3071DOPE   C1B36038  29.058  20.207  10.238  0.0583  0.0277  0.3323
 3071DOPE   D2B36039  29.267  20.034  10.587  0.0625  0.1880  0.2680
 3071DOPE   C3B36040  29.598  20.189  10.849  0.2491  0.2501 -0.1260
 3071DOPE   C4B36041  29.516  20.307  11.232  0.1427  0.0613  0.0235
 3072POSM   NC336042  31.329  19.640   9.773  0.0123 -0.1230  0.0908
 3072POSM   PO436043  31.171  19.277   9.734  0.0648 -0.0433  0.1009
 3072POSM   AM136044  31.406  19.190   9.996 -0.0628 -0.1261 -0.4339
 3072POSM   AM236045  31.597  19.377  10.130  0.0556 -0.0614  0.4451
 3072POSM   T1A36046  31.539  19.055  10.469 -0.1227  0.0427 -0.1448
 3072POSM   C2A36047  31.518  18.754  10.870  0.0814  0.0020  0.0418
 3072POSM   C3A36048  31.365  18.758  11.343  0.1464 -0.0011  0.2448
 3072POSM   C1B36049  31.417  19.519  10.396  0.2523  0.0816  0.2865
 3072POSM   D2B36050  31.190  19.652  10.790  0.0053 -0.0693 -0.4428
 3072POSM   C3B36051  31.205  20.036  10.947  0.1080 -0.3989  0.0820
 3072POSM   C4B36052  31.486  20.349  10.834 -0.1097 -0.1869  0.2102
 3073POSM   NC336053  23.427  13.027   8.830  0.1434  0.2610  0.0176
 3073POSM   PO436054  23.036  12.970   8.946  0.1431 -0.1632 -0.1207
 3073POSM   AM136055  23.130  13.002   9.225  0.0747  0.1138  0.3154
 3073POSM   AM236056  23.341  13.141   9.308 -0.2331 -0.3087 -0.1659
 3073POSM   T1A36057  23.244  12.812   9.646  0.0872  0.1320 -0.0693
 3073POSM   C2A36058  23.528  12.825  10.030  0.1426 -0.3172  0.0244
 3073POSM   C3A36059  23.831  13.074  10.224 -0.0884  0.0111 -0.0997
 3073POSM   C1B36060  23.111  13.263   9.544 -0.1114  0.0135 -0.3721
 3073POSM   D2B36061  22.853  13.499   9.821 -0.5885 -0.2801  0.0990
 3073POSM   C3B36062  23.025  13.592  10.222 -0.1318 -0.1986  0.1433
 3073POSM   C4B36063  23.012  13.670  10.717 -0.2020  0.0253 -0.1450
 3074DOPC   NC336064   0.054  22.232  10.012 -0.1922 -0.3054  0.0327
 3074DOPC   PO436065  -0.310  22.173  10.166 -0.2663 -0.0668  0.0573
 3074DOPC   GL136066  -0.515  22.077  10.477  0.0461 -0.1090 -0.0574
 3074DOPC   GL236067  -0.676  22.313  10.480  0.1230 -0.0062  0.0208
 3074DOPC   C1A36068  -0.455  22.131  10.940 -0.0416 -0.1974 -0.2839
 3074DOPC   D2A36069  -0.149  21.906  11.288  0.1329  0.1609 -0.0446
 3074DOPC   C3A36070  -0.180  22.254  11.570 -0.2560 -0.0938 -0.1634
 3074DOPC   C4A36071  -0.002  22.576  11.782 -0.0762  0.1607 -0.4082
 3074DOPC   C1B36072  -0.888  22.282  10.882 -0.2511 -0.1617 -0.1583
 3074DOPC   D2B36073  -0.720  22.366  11.302  0.0671 -0.1584 -0.0674
 3074DOPC   C3B36074  -1.039  22.317  11.644  0.1030 -0.1797 -0.3978
 3074DOPC   C4B36075  -1.369  22.350  11.926 -0.1356 -0.0543 -0.1456
 3075DOPC   NC336076  32.578  25.313  10.190  0.2980  0.2236 -0.1449
 3075DOPC   PO436077  32.785  25.047  10.013 -0.1407 -0.1932  0.2761
 3075DOPC   GL136078  32.830  24.743  10.207  0.0816  0.1493 -0.0335
 3075DOPC   GL236079  32.565  24.675  10.309 -0.0214 -0.0193  0.0032
 3075DOPC   C1A36080  32.864  24.328  10.444 -0.1721 -0.1487  0.0625
 3075DOPC   D2A36081  32.534  24.061  10.558  0.0677 -0.1586  0.0466
 3075DOPC   C3A36082  32.731  23.629  10.548  0.1438 -0.0822 -0.0975
 3075DOPC   C4A36083  33.108  23.437  10.709  0.1538  0.0503  0.2312
 3075DOPC   C1B36084  32.376  24.547  10.667 -0.1086  0.0965  0.2029
 3075DOPC   D2B36085  32.169  24.458  11.095 -0.2595 -0.2050  0.3235
 3075DOPC   C3B36086  32.216  24.576  11.592  0.1270 -0.1178  0.1847
 3075DOPC   C4B36087  32.572  24.867  11.793 -0.1204 -0.3428  0.2730
 3076DOPC   NC336088  25.008  17.381   9.563 -0.4863  0.1655 -0.3221
 3076DOPC   PO436089  25.381  17.544   9.474 -0.1816  0.1668  0.0071
 3076DOPC   GL136090  25.512  17.463   9.793 -0.0323 -0.1800 -0.1112
 3076DOPC   GL236091  25.391  17.746   9.931  0.0236  0.0802  0.0490
 3076DOPC   C1A36092  25.370  17.250  10.170  0.1079  0.1070 -0.1169
 3076DOPC   D2A36093  25.571  17.278  10.593 -0.2085 -0.0426  0.0751
 3076DOPC   C3A36094  25.671  17.367  11.000 -0.2544 -0.1270  0.0319
 3076DOPC   C4A36095  25.554  17.478  11.453 -0.0363 -0.0118 -0.1891
 3076DOPC   C1B36096  25.773  18.001   9.967  0.4057  0.2561 -0.0853
 3076DOPC   D2B36097  25.987  18.360  10.225  0.0171  0.0652  0.1943
 3076DOPC   C3B36098  25.902  18.474  10.631 -0.0571 -0.2149 -0.0380
 3076DOPC   C4B36099  25.716  18.692  10.998 -0.0779 -0.3106  0.0400
 3077DOPE   NH336100  26.600  14.295   9.771  0.0233  0.1855 -0.0671
 3077DOPE   PO436101  26.521  13.981   9.851 -0.0705 -0.0135  0.3545
 3077DOPE   GL136102  26.440  13.728  10.093  0.3145 -0.0662  0.0817
 3077DOPE   GL236103  26.742  13.703  10.180  0.1702  0.2613  0.2427
 3077DOPE   C1A36104  26.101  13.428  10.259 -0.3207 -0.0834 -0.2413
 3077DOPE   D2A36105  25.688  13.456  10.451  0.0284 -0.1603 -0.3894
 3077DOPE   C3A36106  25.254  13.630  10.334 -0.2101  0.1407 -0.1626
 3077DOPE   C4A36107  24.809  13.583  10.418  0.3285  0.0841  0.0115
 3077DOPE   C1B36108  26.657  13.859  10.599  0.1490 -0.1506  0.1013
 3077DOPE   D2B36109  26.764  13.708  11.013 -0.0512  0.2630 -0.1362
 3077DOPE   C3B36110  26.945  13.579  11.354  0.0260 -0.4347 -0.0906
 3077DOPE   C4B36111  27.003  13.597  11.810  0.5626 -0.0717  0.0985
 3078POSM   NC336112  28.497  11.798  10.233 -0.0655  0.3525  0.0388
 3078POSM   PO436113  28.796  11.796   9.985  0.2359  0.2383  0.0008
 3078POSM   AM136114  28.939  11.949  10.290  0.0758 -0.0622 -0.0129
 3078POSM   AM236115  28.904  12.096  10.562 -0.2084  0.0130 -0.2739
 3078POSM   T1A36116  29.384  12.118  10.523  0.1048  0.3630 -0.0210
 3078POSM   C2A36117  29.717  12.312  10.692 -0.3584  0.1542 -0.0937
 3078POSM   C3A36118  30.035  12.242  11.100  0.2240  0.0962  0.0675
 3078POSM   C1B36119  28.632  12.063  10.817  0.4955 -0.2804 -0.0941
 3078POSM   D2B36120  28.366  12.035  11.272 -0.0437  0.2082  0.2461
 3078POSM   C3B36121  28.228  11.616  11.470  0.0268  0.0229  0.0946
 3078POSM   C4B36122  27.926  11.421  11.850  0.1245  0.3030  0.1374
 3079DOPE   NH336123  25.610  22.449   8.450 -0.2898 -0.1074 -0.0895
 3079DOPE   PO436124  25.768  22.244   8.677 -0.0130  0.2061  0.1083
 3079DOPE   GL136125  25.579  22.017   8.778 -0.3409  0.0450  0.0225
 3079DOPE   GL236126  25.304  22.116   8.762  0.0108  0.1235 -0.0104
 3079DOPE   C1A36127  25.589  21.769   9.150 -0.1435  0.0817  0.0635
 3079DOPE   D2A36128  25.508  21.568   9.592  0.0531  0.0994 -0.0395
 3079DOPE   C3A36129  25.818  21.226   9.859 -0.0494  0.1973 -0.0454
 3079DOPE   C4A36130  26.215  21.154   9.969 -0.3848  0.2665  0.1787
 3079DOPE   C1B36131  25.232  22.199   9.171 -0.0935  0.3816 -0.4420
 3079DOPE   D2B36132  24.825  22.433   9.320 -0.3061  0.1961 -0.3970
 3079DOPE   C3B36133  24.670  22.400   9.729 -0.1600  0.0589 -0.0580
 3079DOPE   C4B36134  24.570  22.381  10.199 -0.0717 -0.1627 -0.2219
 3080DOPC   NC336135  32.952  14.615  10.180 -0.2372 -0.3233  0.3209
 3080DOPC   PO436136  32.628  14.719  10.380  0.0212  0.1793  0.1756
 3080DOPC   GL136137  32.464  15.038  10.554 -0.4335  0.0113 -0.1151
 3080DOPC   GL236138  32.648  15.250  10.490 -0.0728 -0.3202  0.0894
 3080DOPC   C1A36139  32.208  15.329  10.780 -0.3135  0.1733  0.0744
 3080DOPC   D2A36140  32.103  15.379  11.287  0.0838 -0.0296  0.0543
 3080DOPC   C3A36141  31.722  15.075  11.460  0.1875 -0.1735  0.2626
 3080DOPC   C4A36142  31.526  15.131  11.867 -0.2674 -0.1994  0.2225
 3080DOPC   C1B36143  32.646  15.509  10.854  0.1123  0.2169 -0.1767
 3080DOPC   D2B36144  32.619  15.615  11.307 -0.0732  0.2238 -0.1491
 3080DOPC   C3B36145  32.439  15.324  11.595  0.4556 -0.1797  0.0623
 3080DOPC   C4B36146  32.056  15.249  11.845  0.1510 -0.0212  0.0340
 3081POSM   NC336147  28.994  12.994  10.426  0.2195 -0.1223  0.4641
 3081POSM   PO436148  28.766  13.227  10.170 -0.0333  0.0919 -0.2956
 3081POSM   AM136149  28.598  13.318  10.486  0.0334  0.1757  0.1485
 3081POSM   AM236150  28.670  13.467  10.695  0.0475  0.1728 -0.3612
 3081POSM   T1A36151  28.229  13.389  10.779 -0.1885 -0.1287  0.0179
 3081POSM   C2A36152  28.053  13.364  11.194  0.2981 -0.1361 -0.0015
 3081POSM   C3A36153  28.073  13.377  11.698  0.0567  0.1605 -0.0265
 3081POSM   C1B36154  28.650  13.629  10.993 -0.2434 -0.0600 -0.1436
 3081POSM   D2B36155  28.678  13.930  11.394 -0.1844  0.0136 -0.0120
 3081POSM   C3B36156  29.028  14.064  11.551 -0.0627 -0.3379  0.0277
 3081POSM   C4B36157  29.467  14.193  11.701 -0.0053 -0.1814 -0.2128
 3082DOPE   NH336158  32.743  20.650   9.675 -0.0620  0.3321  0.1754
 3082DOPE   PO436159  32.526  20.640   9.866  0.0715  0.0995  0.1343
 3082DOPE   GL136160  32.455  20.545  10.286  0.1235  0.2440  0.0923
 3082DOPE   GL236161  32.461  20.224  10.244  0.4108  0.1460 -0.4873
 3082DOPE   C1A36162  32.744  20.507  10.653  0.0012  0.2719  0.2009
 3082DOPE   D2A36163  32.752  20.620  11.107  0.1472  0.1815  0.0422
 3082DOPE   C3A36164  32.906  20.384  11.426  0.2128  0.1442  0.2394
 3082DOPE   C4A36165  33.240  20.554  11.659  0.1620 -0.1088 -0.0932
 3082DOPE   C1B36166  32.296  20.250  10.702 -0.1122  0.1731  0.0060
 3082DOPE   D2B36167  32.348  20.353  11.105  0.1266  0.0345 -0.1316
 3082DOPE   C3B36168  32.226  20.749  11.234  0.3030 -0.2074 -0.2583
 3082DOPE   C4B36169  32.340  21.058  11.563 -0.0545  0.1086 -0.0518
 3083DOPE   NH336170  21.610  15.843   8.919  0.1754 -0.2932  0.1592
 3083DOPE   PO436171  21.926  15.898   8.900 -0.2971 -0.0630 -0.1559
 3083DOPE   GL136172  21.890  15.890   9.288 -0.2558  0.0219 -0.3734
 3083DOPE   GL236173  22.105  16.078   9.358  0.3176 -0.1210  0.1604
 3083DOPE   C1A36174  22.021  15.604   9.657 -0.2503  0.0951 -0.4099
 3083DOPE   D2A36175  22.191  15.170   9.794 -0.0836  0.0034  0.3529
 3083DOPE   C3A36176  21.936  15.083  10.177 -0.1608  0.0196  0.3557
 3083DOPE   C4A36177  21.664  15.235  10.507 -0.3488 -0.0615  0.2531
 3083DOPE   C1B36178  22.323  16.481   9.281  0.1507 -0.1033  0.0926
 3083DOPE   D2B36179  22.421  16.908   9.215 -0.0540 -0.0724 -0.1014
 3083DOPE   C3B36180  22.399  17.108   9.608  0.0530  0.0874  0.0176
 3083DOPE   C4B36181  22.173  17.153  10.010  0.0387 -0.1723 -0.1278
 3084DOPC   NC336182  27.105  17.341   9.547 -0.2737 -0.0507 -0.4244
 3084DOPC   PO436183  27.268  17.707   9.477  0.2253  0.0967  0.0246
 3084DOPC   GL136184  27.310  17.782   9.885  0.1317 -0.0015  0.1468
 3084DOPC   GL236185  27.208  17.578  10.008 -0.2317 -0.0541 -0.2142
 3084DOPC   C1A36186  27.095  18.105  10.137  0.0917 -0.0156  0.0753
 3084DOPC   D2A36187  26.933  18.291  10.538 -0.0461 -0.0263 -0.0817
 3084DOPC   C3A36188  26.845  18.135  10.927 -0.3170 -0.2028  0.2332
 3084DOPC   C4A36189  26.524  17.961  11.177  0.3366 -0.0727  0.2178
 3084DOPC   C1B36190  27.486  17.848  10.337  0.2106  0.2345  0.1001
 3084DOPC   D2B36191  27.455  18.291  10.571  0.2346 -0.1766 -0.0364
 3084DOPC   C3B36192  27.333  18.410  10.961 -0.0853 -0.1475  0.0069
 3084DOPC   C4B36193  27.528  18.644  11.261  0.0787  0.0154  0.2366
 3085DOPE   NH336194  24.708  21.779   8.389  0.0248  0.0901  0.0070
 3085DOPE   PO436195  24.820  21.924   8.650  0.1849 -0.1102 -0.4726
 3085DOPE   GL136196  24.811  21.938   9.082 -0.3471  0.0747 -0.0997
 3085DOPE   GL236197  25.053  21.755   9.085 -0.1691  0.0697  0.0377
 3085DOPE   C1A36198  24.510  21.903   9.410  0.0462 -0.2152  0.2383
 3085DOPE   D2A36199  24.341  22.021   9.846  0.2394 -0.2384  0.2222
 3085DOPE   C3A36200  24.487  21.935  10.309 -0.0629 -0.2015  0.0950
 3085DOPE   C4A36201  24.730  22.171  10.699 -0.2653  0.0331  0.1240
 3085DOPE   C1B36202  24.975  21.845   9.502  0.2220 -0.0584  0.2807
 3085DOPE   D2B36203  24.839  21.994   9.896 -0.0604 -0.3804  0.0106
 3085DOPE   C3B36204  24.941  21.932  10.332  0.2076  0.3026 -0.1158
 3085DOPE   C4B36205  24.978  21.597  10.675  0.0464 -0.0609  0.0625
 3086POSM   NC336206  31.433  18.837   9.662 -0.0814 -0.0615 -0.1440
 3086POSM   PO436207  31.770  18.671   9.710 -0.3404  0.1988  0.0242
 3086POSM   AM136208  32.025  18.600   9.961  0.0897  0.2705 -0.2293
 3086POSM   AM236209  31.944  18.488  10.202 -0.0391 -0.2781 -0.2388
 3086POSM   T1A36210  32.422  18.708  10.188 -0.0553 -0.3684 -0.2618
 3086POSM   C2A36211  32.692  18.524  10.465 -0.1239 -0.3269 -0.1072
 3086POSM   C3A36212  32.769  18.213  10.758 -0.0001  0.3297 -0.2006
 3086POSM   C1B36213  31.949  18.639  10.431 -0.1840 -0.5625 -0.0428
 3086POSM   D2B36214  32.002  19.023  10.749  0.2569  0.1472  0.1238
 3086POSM   C3B36215  32.157  18.979  11.188 -0.1877  0.2043  0.0046
 3086POSM   C4B36216  32.298  19.288  11.550 -0.0198  0.0775 -0.0729
 3087DOPC   NC336217  31.634  20.838   9.823 -0.1509  0.1159  0.2107
 3087DOPC   PO436218  31.447  20.509   9.932  0.0521 -0.0558  0.1980
 3087DOPC   GL136219  31.384  20.652  10.324  0.2562  0.0837 -0.0273
 3087DOPC   GL236220  31.577  20.778  10.489 -0.0423 -0.0014  0.0716
 3087DOPC   C1A36221  31.164  20.983  10.586 -0.3584 -0.0295 -0.0290
 3087DOPC   D2A36222  31.196  21.120  11.014  0.2853 -0.3682  0.1498
 3087DOPC   C3A36223  30.896  21.049  11.216 -0.0793  0.2468  0.0374
 3087DOPC   C4A36224  30.563  20.760  11.225  0.0385  0.1520 -0.1662
 3087DOPC   C1B36225  31.559  20.803  10.972 -0.1037  0.0390  0.0376
 3087DOPC   D2B36226  31.749  20.821  11.391  0.1034  0.0966 -0.0431
 3087DOPC   C3B36227  31.818  21.040  11.807  0.1121 -0.0300  0.0265
 3087DOPC   C4B36228  32.161  21.324  11.921 -0.0786  0.3066 -0.1985
 3088POSM   NC336229  30.553  24.287   9.980 -0.1963  0.2211 -0.2425
 3088POSM   PO436230  30.665  24.667   9.897 -0.0429  0.0819 -0.0039
 3088POSM   AM136231  30.605  24.750  10.218 -0.3601 -0.0792 -0.1501
 3088POSM   AM236232  30.551  25.018  10.318 -0.0074 -0.2504 -0.1444
 3088POSM   T1A36233  30.423  24.681  10.698 -0.1707  0.1004 -0.1067
 3088POSM   C2A36234  30.458  24.790  11.154  0.0100  0.0121  0.0626
 3088POSM   C3A36235  30.351  24.650  11.584  0.1553  0.2464  0.1298
 3088POSM   C1B36236  30.591  25.288  10.549  0.5305  0.0808 -0.1429
 3088POSM   D2B36237  30.579  25.615  10.925  0.1373  0.1600  0.1378
 3088POSM   C3B36238  30.394  25.332  11.209 -0.3941 -0.1674  0.0554
 3088POSM   C4B36239  30.219  25.171  11.593 -0.1188  0.1829 -0.1835
 3089DOPE   NH336240  28.935  12.911   9.639  0.1604  0.0083  0.0600
 3089DOPE   PO436241  28.814  12.787   9.874 -0.2847  0.0163 -0.0717
 3089DOPE   GL136242  28.640  12.623  10.297  0.1061 -0.0077 -0.5012
 3089DOPE   GL236243  28.461  12.762  10.477  0.2552 -0.0677  0.1676
 3089DOPE   C1A36244  28.864  12.591  10.684 -0.5764 -0.0275 -0.0817
 3089DOPE   D2A36245  29.067  12.328  11.030 -0.0443 -0.0647  0.4812
 3089DOPE   C3A36246  28.955  11.958  11.307  0.1739 -0.0664  0.1472
 3089DOPE   C4A36247  28.729  11.778  11.667 -0.0427 -0.4139  0.0412
 3089DOPE   C1B36248  28.510  12.977  10.807  0.3796 -0.2502 -0.4180
 3089DOPE   D2B36249  28.710  13.173  11.139  0.0340 -0.0515  0.0448
 3089DOPE   C3B36250  28.921  13.021  11.509  0.0490 -0.0336  0.3623
 3089DOPE   C4B36251  29.064  12.809  11.906  0.0812  0.1193 -0.0530
 3090DOPC   NC336252  32.577  17.820   9.798 -0.1744  0.1862 -0.0644
 3090DOPC   PO436253  32.917  17.731   9.668 -0.0360 -0.3563 -0.0621
 3090DOPC   GL136254  32.978  17.728  10.011 -0.1775  0.0050  0.0624
 3090DOPC   GL236255  32.832  17.468  10.139 -0.1884 -0.0813  0.0865
 3090DOPC   C1A36256  32.749  17.956  10.326  0.0592 -0.0112 -0.2639
 3090DOPC   D2A36257  32.460  17.744  10.629 -0.2178  0.0023 -0.0857
 3090DOPC   C3A36258  32.302  18.044  11.004 -0.4558  0.0194  0.3317
 3090DOPC   C4A36259  32.470  18.133  11.427  0.2130 -0.2030 -0.0392
 3090DOPC   C1B36260  32.916  17.603  10.624 -0.2693 -0.1969  0.0211
 3090DOPC   D2B36261  32.733  17.745  11.026  0.0475  0.1187 -0.2048
 3090DOPC   C3B36262  32.890  17.711  11.454 -0.0856  0.0240  0.4325
 3090DOPC   C4B36263  32.893  17.338  11.694 -0.2169  0.0597 -0.0973
 3091DOPE   NH336264  32.159  13.468   9.914  0.1897 -0.0469 -0.2816
 3091DOPE   PO436265  32.166  13.148   9.964 -0.0550 -0.2415 -0.1198
 3091DOPE   GL136266  31.896  12.988  10.321  0.0108  0.1896  0.2854
 3091DOPE   GL236267  31.845  13.256  10.404 -0.0863 -0.2574  0.0504
 3091DOPE   C1A36268  32.068  12.737  10.706 -0.3060  0.2162  0.0139
 3091DOPE   D2A36269  32.183  12.781  11.209  0.0975  0.2163 -0.0138
 3091DOPE   C3A36270  32.050  12.422  11.488 -0.1194 -0.0266  0.0824
 3091DOPE   C4A36271  32.243  12.232  11.801 -0.0792  0.2447  0.1158
 3091DOPE   C1B36272  31.617  13.351  10.780  0.1646  0.0390 -0.2517
 3091DOPE   D2B36273  31.211  13.518  10.966 -0.0690  0.1047 -0.3061
 3091DOPE   C3B36274  31.263  13.297  11.345  0.1446 -0.1653 -0.0065
 3091DOPE   C4B36275  31.450  13.049  11.740  0.2866  0.3171  0.2111
 3092POSM   NC336276  23.239  15.682   8.777  0.0107  0.1850  0.1213
 3092POSM   PO436277  23.435  15.992   8.935 -0.2364  0.0280 -0.1796
 3092POSM   AM136278  23.426  15.864   9.276  0.0093  0.1496  0.2348
 3092POSM   AM236279  23.614  15.724   9.462 -0.2637  0.3793  0.2260
 3092POSM   T1A36280  23.105  15.790   9.672 -0.0650  0.2381  0.1282
 3092POSM   C2A36281  22.673  15.627   9.697 -0.2768  0.3364  0.0592
 3092POSM   C3A36282  22.323  15.666  10.013  0.1717  0.2451 -0.2068
 3092POSM   C1B36283  23.764  15.881   9.705 -0.1936 -0.2443  0.2543
 3092POSM   D2B36284  23.926  16.194  10.014 -0.2108  0.0855  0.2425
 3092POSM   C3B36285  24.199  15.978  10.316  0.0255 -0.5508  0.2480
 3092POSM   C4B36286  24.309  15.584  10.470 -0.3645  0.1163  0.1056
 3093DOPC   NC336287  30.348  20.867   9.775 -0.1033 -0.1193 -0.0189
 3093DOPC   PO436288  30.641  20.649   9.627  0.0996 -0.0317  0.0442
 3093DOPC   GL136289  30.729  20.586  10.017  0.3667  0.2617 -0.3341
 3093DOPC   GL236290  30.869  20.752  10.192 -0.0254  0.0780  0.3207
 3093DOPC   C1A36291  30.513  20.388  10.352  0.4865 -0.1301  0.0632
 3093DOPC   D2A36292  30.173  20.276  10.581  0.0446  0.1644 -0.0320
 3093DOPC   C3A36293  30.085  20.360  11.076  0.0613 -0.1658 -0.1344
 3093DOPC   C4A36294  30.167  20.587  11.471 -0.1091  0.1505 -0.1154
 3093DOPC   C1B36295  30.641  20.874  10.543 -0.2837 -0.1064  0.0320
 3093DOPC   D2B36296  30.451  21.247  10.703  0.1456  0.0725 -0.1805
 3093DOPC   C3B36297  30.519  21.320  11.130 -0.0872  0.2890  0.1181
 3093DOPC   C4B36298  30.580  21.434  11.560 -0.0603  0.0239 -0.0952
 3094POSM   NC336299  31.127  15.413   9.693  0.2603  0.0033  0.0404
 3094POSM   PO436300  31.160  15.814   9.718 -0.0141 -0.2000 -0.0095
 3094POSM   AM136301  30.961  15.807   9.951 -0.0131  0.3657 -0.0812
 3094POSM   AM236302  30.956  15.600  10.127 -0.0880  0.0568  0.1938
 3094POSM   T1A36303  30.555  15.797  10.271 -0.0948 -0.2313  0.0967
 3094POSM   C2A36304  30.213  15.564  10.555  0.0616  0.0366 -0.2265
 3094POSM   C3A36305  29.931  15.379  10.895  0.0708 -0.3110 -0.0414
 3094POSM   C1B36306  31.012  15.720  10.445  0.0508 -0.1620  0.0155
 3094POSM   D2B36307  30.801  15.710  10.859  0.2091 -0.1955  0.0338
 3094POSM   C3B36308  30.948  15.565  11.210  0.5822  0.0434 -0.0831
 3094POSM   C4B36309  31.234  15.228  11.215  0.1510 -0.0914  0.2952
 3095POSM   NC336310  25.255  18.665   8.751  0.0174 -0.1807 -0.1960
 3095POSM   PO436311  25.323  18.988   9.002 -0.1220  0.3303 -0.1368
 3095POSM   AM136312  25.270  18.848   9.310  0.0588 -0.0013 -0.1386
 3095POSM   AM236313  25.050  18.852   9.487  0.0281  0.2661  0.0337
 3095POSM   T1A36314  25.512  18.992   9.719 -0.2356 -0.3142 -0.0061
 3095POSM   C2A36315  25.679  19.194  10.152  0.0653  0.3026 -0.2711
 3095POSM   C3A36316  25.466  19.389  10.536  0.2177  0.2453  0.0069
 3095POSM   C1B36317  25.014  18.854   9.819 -0.2020 -0.4760 -0.0334
 3095POSM   D2B36318  25.125  18.688  10.259  0.0652 -0.2837 -0.0113
 3095POSM   C3B36319  25.008  19.022  10.561  0.6366  0.2149 -0.2064
 3095POSM   C4B36320  24.884  19.214  10.951 -0.0323  0.1535 -0.0459
 3096DOPC   NC336321  26.427  16.084   9.686  0.1241  0.1966 -0.4664
 3096DOPC   PO436322  26.366  16.471   9.589 -0.0154 -0.1987 -0.0647
 3096DOPC   GL136323  26.204  16.408   9.935 -0.1564 -0.0553  0.0332
 3096DOPC   GL236324  26.406  16.422  10.151  0.1168  0.1407 -0.0404
 3096DOPC   C1A36325  25.820  16.575  10.193  0.0291  0.1206  0.0521
 3096DOPC   D2A36326  25.484  16.764  10.529 -0.0851 -0.3141 -0.3414
 3096DOPC   C3A36327  25.316  16.988  10.885  0.2296 -0.2644 -0.0827
 3096DOPC   C4A36328  25.508  16.983  11.313 -0.1230  0.2322 -0.0528
 3096DOPC   C1B36329  26.524  16.492  10.655 -0.2426  0.0086  0.0874
 3096DOPC   D2B36330  26.315  16.561  11.033  0.0718 -0.1076  0.1007
 3096DOPC   C3B36331  25.907  16.379  11.236  0.0031 -0.1653 -0.3173
 3096DOPC   C4B36332  25.559  16.413  11.568 -0.1624  0.1526 -0.0656
 3097DOPE   NH336333  25.617  14.717   9.321  0.0338 -0.1406 -0.4899
 3097DOPE   PO436334  25.846  14.718   9.546 -0.0579 -0.1329 -0.4485
 3097DOPE   GL136335  25.675  14.922   9.856 -0.1652  0.2597 -0.2806
 3097DOPE   GL236336  25.393  14.900   9.780  0.2390  0.0778 -0.2394
 3097DOPE   C1A36337  25.762  15.233  10.184 -0.1305 -0.3218  0.2359
 3097DOPE   D2A36338  25.755  15.683  10.236 -0.3117 -0.1917  0.1800
 3097DOPE   C3A36339  25.830  15.848  10.666 -0.2549  0.0828  0.1516
 3097DOPE   C4A36340  26.192  16.135  10.848 -0.4542  0.2936 -0.2734
 3097DOPE   C1B36341  25.411  14.795  10.243  0.1811  0.2199 -0.1074
 3097DOPE   D2B36342  25.408  14.532  10.634 -0.0809  0.2529  0.0544
 3097DOPE   C3B36343  25.088  14.480  10.914  0.0577 -0.1996 -0.0908
 3097DOPE   C4B36344  24.937  14.730  11.291  0.0525 -0.0356  0.0015
 3098POSM   NC336345  27.710  22.264   9.172 -0.2579  0.3075 -0.0635
 3098POSM   PO436346  27.304  22.433   9.226 -0.2052  0.1359 -0.0636
 3098POSM   AM136347  27.227  22.337   9.522  0.0618 -0.3397  0.1017
 3098POSM   AM236348  27.184  22.501   9.755 -0.0329  0.1652  0.1278
 3098POSM   T1A36349  27.204  22.002   9.905 -0.0225  0.2375  0.0815
 3098POSM   C2A36350  27.137  21.875  10.299 -0.0640 -0.0616  0.2642
 3098POSM   C3A36351  27.348  21.952  10.714 -0.1184 -0.0391  0.0265
 3098POSM   C1B36352  27.203  22.541  10.101 -0.2132  0.1626  0.3230
 3098POSM   D2B36353  27.103  22.319  10.504  0.0781 -0.1708 -0.2722
 3098POSM   C3B36354  26.733  22.090  10.718  0.1456 -0.2660  0.0368
 3098POSM   C4B36355  26.658  21.822  11.099 -0.1612  0.1853 -0.1046
 3099POSM   NC336356  26.361  15.572   9.071 -0.1831  0.0387  0.0863
 3099POSM   PO436357  26.197  15.678   9.411  0.3099 -0.1470  0.0697
 3099POSM   AM136358  26.347  15.578   9.690  0.0611 -0.3021  0.2521
 3099POSM   AM236359  26.582  15.509   9.808  0.1053  0.1314 -0.2089
 3099POSM   T1A36360  26.202  15.460  10.132 -0.0718 -0.0640  0.0076
 3099POSM   C2A36361  26.059  15.365  10.578 -0.0471  0.3016  0.1531
 3099POSM   C3A36362  25.912  15.433  11.000  0.0719  0.2284 -0.2520
 3099POSM   C1B36363  26.649  15.718  10.048  0.0610 -0.3252 -0.2886
 3099POSM   D2B36364  26.441  16.016  10.415  0.0774  0.1503  0.3517
 3099POSM   C3B36365  26.093  16.262  10.429 -0.0075 -0.0184  0.2465
 3099POSM   C4B36366  25.870  16.524  10.737 -0.0956 -0.0068 -0.4423
 3100DOPS   CNO36367  29.475  19.134   9.408 -0.2520  0.1081  0.1985
 3100DOPS   PO436368  29.597  19.160   9.750  0.1696 -0.0899  0.0122
 3100DOPS   GL136369  29.705  19.199  10.087 -0.1509 -0.1461 -0.2107
 3100DOPS   GL236370  29.592  19.411  10.178  0.0629 -0.0649 -0.0551
 3100DOPS   C1A36371  30.018  19.410  10.397  0.1532  0.0014 -0.0443
 3100DOPS   D2A36372  30.146  19.303  10.816 -0.2174 -0.0001 -0.0878
 3100DOPS   C3A36373  29.896  19.289  11.214 -0.4099 -0.0793 -0.1326
 3100DOPS   C4A36374  29.910  19.351  11.701 -0.2422  0.2313  0.0009
 3100DOPS   C1B36375  29.320  19.102  10.391 -0.1304 -0.0411 -0.0694
 3100DOPS   D2B36376  29.020  18.827  10.632  0.1894  0.2534 -0.0464
 3100DOPS   C3B36377  28.656  19.076  10.813 -0.1544 -0.0462  0.2687
 3100DOPS   C4B36378  28.598  19.543  10.840 -0.0828 -0.4672 -0.4226
 3101DOPC   NC336379  26.089  21.968   9.093  0.0249  0.2438 -0.0372
 3101DOPC   PO436380  26.240  21.580   9.024 -0.0175 -0.1951 -0.1586
 3101DOPC   GL136381  26.323  21.724   9.372 -0.3188  0.1130 -0.0001
 3101DOPC   GL236382  26.362  21.991   9.525  0.4637 -0.0206  0.2863
 3101DOPC   C1A36383  26.163  21.594   9.780  0.0175 -0.0315  0.0836
 3101DOPC   D2A36384  26.128  21.540  10.233  0.1811  0.1650  0.0644
 3101DOPC   C3A36385  25.704  21.375  10.279 -0.0996  0.1758 -0.2041
 3101DOPC   C4A36386  25.305  21.497  10.297 -0.1394 -0.1845  0.0894
 3101DOPC   C1B36387  26.295  22.060   9.963 -0.1851  0.0329  0.3808
 3101DOPC   D2B36388  26.463  21.885  10.319  0.0366  0.1080  0.1399
 3101DOPC   C3B36389  26.287  21.934  10.776 -0.1136 -0.2917 -0.0279
 3101DOPC   C4B36390  25.855  21.901  10.957  0.1895 -0.2830  0.2444
 3102POSM   NC336391  23.570  17.629   8.787 -0.1587 -0.0416 -0.1049
 3102POSM   PO436392  23.821  17.909   8.969  0.2238 -0.5545 -0.2929
 3102POSM   AM136393  23.853  17.979   9.282 -0.0291 -0.3971 -0.0977
 3102POSM   AM236394  24.062  18.126   9.472 -0.1705  0.0043  0.0600
 3102POSM   T1A36395  23.752  17.836   9.771  0.1915  0.0781 -0.1064
 3102POSM   C2A36396  23.611  17.705  10.198  0.0630 -0.0426  0.2828
 3102POSM   C3A36397  23.446  17.648  10.648  0.1253  0.1867 -0.1467
 3102POSM   C1B36398  24.047  18.254   9.789  0.0750 -0.0483  0.1535
 3102POSM   D2B36399  23.931  18.156  10.211  0.0421  0.0890  0.1685
 3102POSM   C3B36400  24.188  17.953  10.594  0.2789 -0.0653  0.0320
 3102POSM   C4B36401  24.296  17.803  11.009  0.0926 -0.0513 -0.1434
 3103DOPE   NH336402  27.995  14.338   9.905  0.0581 -0.0031  0.2182
 3103DOPE   PO436403  27.946  14.642   9.958 -0.0557 -0.1078 -0.0476
 3103DOPE   GL136404  27.895  14.871  10.240  0.0972 -0.2553  0.0811
 3103DOPE   GL236405  27.631  14.721  10.393  0.1415  0.2060  0.1333
 3103DOPE   C1A36406  28.180  15.065  10.559 -0.1754  0.0073 -0.2440
 3103DOPE   D2A36407  28.155  15.447  10.798  0.1743  0.0528  0.0077
 3103DOPE   C3A36408  28.403  15.236  11.147 -0.0017  0.0255 -0.1974
 3103DOPE   C4A36409  28.328  14.941  11.523  0.1261 -0.2505  0.0735
 3103DOPE   C1B36410  27.726  15.083  10.678  0.0876  0.2284  0.1275
 3103DOPE   D2B36411  27.531  15.427  10.914 -0.1922 -0.1749  0.0066
 3103DOPE   C3B36412  27.755  15.707  11.240 -0.0783 -0.1485 -0.1331
 3103DOPE   C4B36413  27.873  15.840  11.680  0.1553 -0.0189 -0.2520
 3104POSM   NC336414  25.971  19.789   8.802  0.1155  0.0400 -0.1517
 3104POSM   PO436415  25.607  19.792   8.781  0.3347  0.0897  0.2747
 3104POSM   AM136416  25.665  19.815   9.119 -0.2422  0.0376  0.0289
 3104POSM   AM236417  25.825  20.011   9.278 -0.1630  0.1422 -0.2522
 3104POSM   T1A36418  25.299  19.776   9.456 -0.0590  0.0415  0.1597
 3104POSM   C2A36419  25.136  19.407   9.716 -0.1152 -0.2075  0.1000
 3104POSM   C3A36420  25.153  19.249  10.127 -0.0664  0.0094  0.1775
 3104POSM   C1B36421  25.682  20.070   9.554  0.2035 -0.3466 -0.2148
 3104POSM   D2B36422  25.558  20.183  10.022  0.1025  0.0081  0.2329
 3104POSM   C3B36423  25.203  20.375  10.226  0.0409 -0.3260  0.0013
 3104POSM   C4B36424  24.837  20.644  10.197 -0.1868 -0.0803  0.1219
 3105POSM   NC336425  26.833  21.045   9.252  0.1296 -0.2611 -0.1546
 3105POSM   PO436426  27.151  20.824   9.135 -0.0412 -0.3851 -0.2024
 3105POSM   AM136427  27.158  20.845   9.470  0.0413  0.0057 -0.1790
 3105POSM   AM236428  26.953  20.733   9.605 -0.1423  0.2205  0.0281
 3105POSM   T1A36429  27.288  20.994   9.896 -0.4022 -0.1533  0.2095
 3105POSM   C2A36430  27.432  20.738  10.238  0.2537  0.1128 -0.0255
 3105POSM   C3A36431  27.685  20.475  10.492 -0.0389 -0.0466 -0.0878
 3105POSM   C1B36432  26.998  20.573   9.910  0.1192 -0.1408  0.1809
 3105POSM   D2B36433  26.931  20.384  10.345 -0.2018 -0.2158 -0.1490
 3105POSM   C3B36434  26.535  20.192  10.441  0.1663  0.3632  0.1102
 3105POSM   C4B36435  26.374  19.909  10.774 -0.1511  0.3813 -0.1097
 3106POSM   NC336436  26.625  20.286   8.790  0.0150 -0.2010  0.3007
 3106POSM   PO436437  26.235  20.236   8.675 -0.2797 -0.0980  0.0975
 3106POSM   AM136438  26.177  20.196   8.991 -0.1845  0.0971  0.0033
 3106POSM   AM236439  26.366  20.156   9.205 -0.4352  0.2318 -0.0727
 3106POSM   T1A36440  26.074  20.410   9.487  0.0176  0.0905  0.0374
 3106POSM   C2A36441  26.091  20.692   9.848 -0.0399  0.1027  0.1935
 3106POSM   C3A36442  25.978  20.875  10.284 -0.0889  0.1327  0.2597
 3106POSM   C1B36443  26.335  19.987   9.530  0.0634 -0.0357  0.1848
 3106POSM   D2B36444  26.023  20.027   9.904  0.2574 -0.1766 -0.0076
 3106POSM   C3B36445  25.934  20.199  10.301 -0.0912  0.1216 -0.1958
 3106POSM   C4B36446  25.656  20.540  10.462  0.0473  0.2209  0.2785
 3107DOPS   CNO36447  31.331  18.350   9.765  0.0872  0.2623 -0.2692
 3107DOPS   PO436448  31.306  17.996   9.759  0.0703  0.2235 -0.2766
 3107DOPS   GL136449  31.384  18.253  10.177  0.2057 -0.1463 -0.1196
 3107DOPS   GL236450  31.197  18.030  10.369  0.0938 -0.1396  0.1284
 3107DOPS   C1A36451  31.636  18.291  10.562  0.1957 -0.2343  0.2533
 3107DOPS   D2A36452  31.814  18.362  10.988 -0.2863 -0.0964  0.3357
 3107DOPS   C3A36453  32.176  18.506  11.316 -0.2225  0.1642  0.3129
 3107DOPS   C4A36454  32.317  18.774  11.649  0.0954 -0.1792  0.1264
 3107DOPS   C1B36455  31.287  17.589  10.436 -0.0088  0.3385  0.2610
 3107DOPS   D2B36456  31.617  17.363  10.728 -0.2695 -0.0219 -0.0965
 3107DOPS   C3B36457  31.736  17.340  11.150  0.1874  0.1578 -0.1568
 3107DOPS   C4B36458  31.396  17.292  11.500  0.0496  0.0617  0.3367
 3108POSM   NC336459  27.341  15.478   9.442 -0.3350  0.2660  0.0625
 3108POSM   PO436460  26.991  15.377   9.506 -0.1999  0.1466  0.3885
 3108POSM   AM136461  27.058  15.599   9.767 -0.0511  0.0567 -0.0529
 3108POSM   AM236462  27.174  15.506  10.027 -0.0389 -0.1332 -0.0073
 3108POSM   T1A36463  26.916  16.063   9.921 -0.1533  0.0478  0.2443
 3108POSM   C2A36464  26.915  16.452  10.231 -0.3406 -0.1018 -0.0255
 3108POSM   C3A36465  26.635  16.838  10.307 -0.0418 -0.0622 -0.1230
 3108POSM   C1B36466  27.075  15.489  10.374 -0.2233  0.1606  0.4574
 3108POSM   D2B36467  27.046  15.483  10.784  0.0328 -0.2150  0.1654
 3108POSM   C3B36468  26.805  15.114  10.771 -0.0963  0.2255 -0.0094
 3108POSM   C4B36469  26.377  14.987  10.661  0.1252 -0.3918  0.1905
 3109DOPE   NH336470  31.076  17.476   9.929 -0.1200 -0.1881  0.0538
 3109DOPE   PO436471  31.206  17.185   9.929  0.1457 -0.3177  0.0284
 3109DOPE   GL136472  31.139  17.015  10.256  0.0003  0.2550  0.0581
 3109DOPE   GL236473  31.347  17.042  10.401 -0.0802 -0.2972  0.2757
 3109DOPE   C1A36474  30.920  17.203  10.619 -0.4189  0.2500  0.0352
 3109DOPE   D2A36475  30.659  17.497  10.929  0.1829  0.1315  0.4788
 3109DOPE   C3A36476  30.796  17.559  11.420  0.0569 -0.1746 -0.2439
 3109DOPE   C4A36477  31.135  17.686  11.750  0.2684  0.2324 -0.0604
 3109DOPE   C1B36478  31.342  16.940  10.853  0.0715 -0.0145  0.3026
 3109DOPE   D2B36479  31.231  16.652  11.216 -0.0654  0.1955  0.1250
 3109DOPE   C3B36480  31.132  16.888  11.587 -0.0021  0.1026 -0.0790
 3109DOPE   C4B36481  30.987  17.245  11.901 -0.0681 -0.1154 -0.1953
 3110DOPE   NH336482   0.465  24.819  10.540 -0.1174 -0.0872 -0.1021
 3110DOPE   PO436483   0.586  24.993  10.782  0.1794 -0.1161 -0.2612
 3110DOPE   GL136484   0.466  24.910  11.169 -0.0025 -0.2630  0.1629
 3110DOPE   GL236485   0.569  25.169  11.297  0.0913 -0.3507 -0.2157
 3110DOPE   C1A36486   0.655  24.680  11.532 -0.1868  0.0329 -0.4133
 3110DOPE   D2A36487   0.854  24.388  11.832  0.1351  0.0243 -0.0858
 3110DOPE   C3A36488   0.895  24.648  12.210  0.0523 -0.0437 -0.0325
 3110DOPE   C4A36489   0.940  24.873  12.574 -0.0005 -0.0097 -0.0189
 3110DOPE   C1B36490   0.103  25.122  11.384 -0.4095 -0.1651 -0.1775
 3110DOPE   D2B36491  -0.282  25.029  11.666 -0.1333 -0.0415  0.1015
 3110DOPE   C3B36492  -0.212  25.258  12.036  0.2958 -0.1562 -0.3075
 3110DOPE   C4B36493   0.058  25.508  12.279  0.0869 -0.0478  0.0338
 3111DOPE   NH336494  28.487  19.519   9.654  0.3490  0.2413 -0.6726
 3111DOPE   PO436495  28.519  19.204   9.724 -0.0184 -0.0295 -0.2752
 3111DOPE   GL136496  28.439  19.107  10.156  0.1015 -0.0500 -0.1467
 3111DOPE   GL236497  28.720  18.956  10.217 -0.0442  0.0507  0.0126
 3111DOPE   C1A36498  28.244  18.991  10.528 -0.1296  0.1027 -0.1906
 3111DOPE   D2A36499  28.205  19.300  10.906  0.0411 -0.1635 -0.0808
 3111DOPE   C3A36500  28.427  19.360  11.281 -0.1280 -0.0974  0.1637
 3111DOPE   C4A36501  28.532  19.586  11.710  0.2902 -0.0032  0.0180
 3111DOPE   C1B36502  28.886  19.344  10.446  0.1795  0.1147  0.1959
 3111DOPE   D2B36503  29.171  19.496  10.796 -0.2009 -0.2044 -0.2892
 3111DOPE   C3B36504  28.979  19.250  11.137 -0.0732 -0.0726  0.0413
 3111DOPE   C4B36505  29.105  18.925  11.396  0.0130  0.1389 -0.0852
 3112DOPE   NH336506  26.592  12.752   9.647  0.0262  0.1406  0.0286
 3112DOPE   PO436507  26.356  12.925   9.702  0.2145  0.2344  0.0899
 3112DOPE   GL136508  26.291  12.837  10.055  0.1824 -0.2292  0.2342
 3112DOPE   GL236509  26.043  12.946  10.097 -0.0686 -0.0892  0.3607
 3112DOPE   C1A36510  26.513  12.851  10.488 -0.0787 -0.0475  0.5219
 3112DOPE   D2A36511  26.416  12.905  10.930 -0.0347  0.0491 -0.1215
 3112DOPE   C3A36512  26.369  12.806  11.397 -0.0579 -0.1474 -0.0980
 3112DOPE   C4A36513  26.532  12.461  11.630 -0.1554 -0.1462  0.0740
 3112DOPE   C1B36514  25.989  13.025  10.578 -0.1578 -0.1540  0.1531
 3112DOPE   D2B36515  25.711  13.065  10.912 -0.3113  0.0016 -0.2324
 3112DOPE   C3B36516  25.934  13.176  11.302  0.3550  0.1197  0.3654
 3112DOPE   C4B36517  26.013  13.543  11.566 -0.0547 -0.1054 -0.1331
 3113POSM   NC336518  23.556  13.708   9.278 -0.0687 -0.0416 -0.1909
 3113POSM   PO436519  23.310  13.948   9.052  0.1203 -0.1378 -0.1850
 3113POSM   AM136520  23.137  13.979   9.323 -0.2161  0.0178 -0.0688
 3113POSM   AM236521  23.166  13.822   9.593 -0.2446  0.0453  0.1304
 3113POSM   T1A36522  23.173  14.304   9.691  0.2136  0.2589  0.3987
 3113POSM   C2A36523  23.179  14.407  10.154  0.0085 -0.1477  0.2272
 3113POSM   C3A36524  23.227  14.156  10.523  0.0270  0.0658 -0.0216
 3113POSM   C1B36525  23.374  13.883   9.876 -0.1375  0.1290 -0.2948
 3113POSM   D2B36526  23.603  13.704  10.229  0.0199  0.0302  0.0897
 3113POSM   C3B36527  23.605  13.771  10.660 -0.2973  0.1396 -0.0679
 3113POSM   C4B36528  23.985  13.842  10.915  0.0618  0.4266 -0.1892
 3114DOPC   NC336529  33.805  21.831  10.151 -0.1544 -0.1049 -0.1788
 3114DOPC   PO436530  33.928  21.518  10.097  0.2915 -0.0535  0.1741
 3114DOPC   GL136531  33.767  21.441  10.447 -0.1113 -0.1177 -0.0266
 3114DOPC   GL236532  33.810  21.675  10.641 -0.1037  0.2647  0.2096
 3114DOPC   C1A36533  33.619  21.328  10.887  0.1749 -0.2869  0.0556
 3114DOPC   D2A36534  33.248  21.285  11.225 -0.0977  0.1895 -0.1169
 3114DOPC   C3A36535  33.135  21.454  11.622 -0.0462 -0.0588  0.0241
 3114DOPC   C4A36536  32.944  21.790  11.888 -0.0149 -0.6140 -0.0994
 3114DOPC   C1B36537  33.698  21.806  11.059  0.0243  0.3899 -0.1236
 3114DOPC   D2B36538  33.793  21.911  11.533  0.1662 -0.0013 -0.4197
 3114DOPC   C3B36539  34.194  21.805  11.766 -0.0539 -0.0818  0.0362
 3114DOPC   C4B36540  34.175  21.754  12.240 -0.0448  0.4282  0.1137
 3115DOPC   NC336541  29.520  24.380   9.597 -0.1124 -0.0855  0.0235
 3115DOPC   PO436542  29.502  24.001   9.442  0.1260  0.0726 -0.1324
 3115DOPC   GL136543  29.411  23.870   9.753 -0.1274 -0.2555  0.0554
 3115DOPC   GL236544  29.439  23.641   9.833 -0.2717  0.0273 -0.2099
 3115DOPC   C1A36545  29.285  23.856  10.215  0.0287  0.0916 -0.1354
 3115DOPC   D2A36546  29.502  23.545  10.484 -0.1857 -0.0215  0.2677
 3115DOPC   C3A36547  29.250  23.405  10.821  0.0850 -0.2026 -0.2218
 3115DOPC   C4A36548  29.158  23.568  11.322 -0.4406 -0.1642  0.0122
 3115DOPC   C1B36549  29.820  23.765  10.110 -0.0924  0.2178  0.1354
 3115DOPC   D2B36550  29.968  23.660  10.533  0.0110  0.0965 -0.1656
 3115DOPC   C3B36551  29.789  23.360  10.828  0.1769 -0.0956  0.3358
 3115DOPC   C4B36552  29.748  22.874  10.967 -0.1977 -0.2217  0.1313
 3116POSM   NC336553  24.343  17.877   9.057 -0.2672 -0.2570  0.2629
 3116POSM   PO436554  24.668  18.055   9.194 -0.0127  0.0957 -0.0803
 3116POSM   AM136555  24.599  18.225   9.478 -0.1738  0.1850  0.2471
 3116POSM   AM236556  24.524  18.095   9.686 -0.0973 -0.3792 -0.0030
 3116POSM   T1A36557  24.444  18.615   9.793  0.1096 -0.4636 -0.1946
 3116POSM   C2A36558  24.198  18.704  10.177 -0.2242 -0.3015 -0.0816
 3116POSM   C3A36559  23.813  18.686  10.444 -0.1407  0.2951  0.2865
 3116POSM   C1B36560  24.645  17.803   9.938 -0.1218 -0.1182 -0.3193
 3116POSM   D2B36561  24.991  17.579  10.176 -0.1960 -0.4412  0.1589
 3116POSM   C3B36562  25.212  17.667  10.567  0.2358  0.0736  0.1487
 3116POSM   C4B36563  25.480  17.838  10.862 -0.0947 -0.0066 -0.1520
 3117POSM   NC336564  31.868  19.027   9.376 -0.0011 -0.1628  0.2089
 3117POSM   PO436565  31.678  19.270   9.578  0.1350 -0.3115 -0.0815
 3117POSM   AM136566  31.913  19.198   9.785 -0.1571 -0.2403 -0.0471
 3117POSM   AM236567  31.947  19.035  10.003 -0.3538 -0.1909 -0.0422
 3117POSM   T1A36568  32.423  19.276   9.967  0.1933  0.2056  0.1174
 3117POSM   C2A36569  32.776  19.412  10.201  0.3872 -0.1476 -0.1689
 3117POSM   C3A36570  32.918  19.531  10.607  0.0590 -0.1059 -0.1398
 3117POSM   C1B36571  32.071  19.096  10.269  0.1776 -0.0120  0.0966
 3117POSM   D2B36572  32.446  19.266  10.554 -0.2973 -0.1531 -0.1747
 3117POSM   C3B36573  32.285  19.464  10.888  0.1752 -0.0822 -0.0011
 3117POSM   C4B36574  31.925  19.472  11.182 -0.3215 -0.2602 -0.1630
 3118DOPS   CNO36575  30.849  14.225   9.910 -0.0138 -0.5269  0.3047
 3118DOPS   PO436576  30.485  14.366  10.041 -0.1690  0.3913 -0.1160
 3118DOPS   GL136577  30.534  14.389  10.438 -0.0924  0.1519 -0.0182
 3118DOPS   GL236578  30.573  14.697  10.469 -0.1177 -0.2000 -0.0473
 3118DOPS   C1A36579  30.328  14.122  10.758 -0.1841  0.0855  0.2104
 3118DOPS   D2A36580  30.543  13.908  11.137  0.0807 -0.1135 -0.2655
 3118DOPS   C3A36581  30.558  13.682  11.498  0.1488  0.1721  0.1822
 3118DOPS   C4A36582  30.270  13.626  11.851  0.1680  0.1399 -0.1713
 3118DOPS   C1B36583  30.600  14.549  10.924  0.3291 -0.0628  0.5822
 3118DOPS   D2B36584  30.396  14.548  11.325 -0.0835  0.1891  0.0149
 3118DOPS   C3B36585  30.517  14.641  11.762 -0.0137  0.2966 -0.0507
 3118DOPS   C4B36586  30.415  14.358  12.118  0.1750  0.1941 -0.2578
 3119DOPE   NH336587  31.155  21.193   9.323  0.0222  0.3644 -0.0109
 3119DOPE   PO436588  31.377  21.175   9.573  0.2811 -0.1596 -0.1646
 3119DOPE   GL136589  31.435  21.315   9.957  0.1004  0.0974 -0.3414
 3119DOPE   GL236590  31.480  21.176  10.200 -0.0862 -0.1161  0.1866
 3119DOPE   C1A36591  31.497  21.667  10.286 -0.0990  0.2608  0.2404
 3119DOPE   D2A36592  31.417  21.771  10.784  0.2713 -0.2532  0.1231
 3119DOPE   C3A36593  31.719  21.552  11.073 -0.1603 -0.1021  0.2239
 3119DOPE   C4A36594  31.971  21.364  11.417  0.2347  0.2248  0.3601
 3119DOPE   C1B36595  31.718  21.351  10.569  0.0216  0.1555 -0.1359
 3119DOPE   D2B36596  31.932  21.741  10.615  0.0932  0.0705  0.0367
 3119DOPE   C3B36597  32.044  21.971  11.053 -0.0531  0.0366  0.0523
 3119DOPE   C4B36598  32.415  21.899  11.314  0.0211  0.2059 -0.0280
 3120DOPC   NC336599  28.952  15.388   9.519 -0.0511 -0.0240  0.1144
 3120DOPC   PO436600  29.242  15.325   9.791  0.1029 -0.1629 -0.2449
 3120DOPC   GL136601  29.277  15.471  10.098 -0.0003  0.1535  0.3234
 3120DOPC   GL236602  29.014  15.495  10.218  0.1121 -0.2121 -0.0954
 3120DOPC   C1A36603  29.470  15.525  10.507 -0.2860  0.0149  0.0840
 3120DOPC   D2A36604  29.386  15.460  10.950  0.1119 -0.1257  0.1104
 3120DOPC   C3A36605  29.475  15.151  11.208 -0.2047 -0.0718  0.2802
 3120DOPC   C4A36606  29.764  14.860  11.428 -0.1310  0.0046  0.0471
 3120DOPC   C1B36607  28.944  15.553  10.635 -0.2997  0.1797  0.0719
 3120DOPC   D2B36608  29.027  15.125  10.819 -0.3359  0.1414  0.1500
 3120DOPC   C3B36609  28.973  15.173  11.266 -0.4256 -0.1732 -0.0977
 3120DOPC   C4B36610  29.104  15.511  11.523 -0.1285 -0.1092  0.0530
 3121DOPC   NC336611  29.978  19.595   9.904  0.2041 -0.3122  0.0367
 3121DOPC   PO436612  30.250  19.908   9.902 -0.1921  0.1953  0.1315
 3121DOPC   GL136613  30.112  20.002  10.224 -0.2651  0.2166  0.3806
 3121DOPC   GL236614  30.306  19.799  10.424 -0.1795  0.0866  0.0463
 3121DOPC   C1A36615  29.728  19.906  10.472  0.1678  0.3368 -0.1736
 3121DOPC   D2A36616  29.664  19.612  10.805 -0.3797  0.0755  0.2752
 3121DOPC   C3A36617  29.795  19.744  11.211 -0.3431  0.0832  0.1289
 3121DOPC   C4A36618  29.974  20.112  11.473  0.0520  0.1111  0.0265
 3121DOPC   C1B36619  30.212  19.863  10.869  0.3494 -0.2617  0.1939
 3121DOPC   D2B36620  30.345  19.613  11.239  0.2380  0.0758 -0.0790
 3121DOPC   C3B36621  30.415  19.649  11.697  0.1931  0.1066  0.1862
 3121DOPC   C4B36622  30.262  19.492  12.116  0.1609  0.1698  0.1230
 3122DOPC   NC336623  29.322  22.838   9.791  0.0822 -0.3775 -0.1659
 3122DOPC   PO436624  29.248  23.190   9.700 -0.0850  0.1793 -0.2233
 3122DOPC   GL136625  29.293  23.251   9.982  0.0281 -0.0446 -0.2446
 3122DOPC   GL236626  29.533  23.115  10.147  0.2026  0.1470  0.0870
 3122DOPC   C1A36627  29.051  23.280  10.365  0.2457  0.0139 -0.0079
 3122DOPC   D2A36628  28.692  23.310  10.578 -0.0349  0.0023  0.2180
 3122DOPC   C3A36629  28.803  23.369  11.064 -0.0927  0.1545 -0.1247
 3122DOPC   C4A36630  28.736  23.836  11.216  0.0917 -0.2279  0.0261
 3122DOPC   C1B36631  29.444  23.003  10.569 -0.0775  0.0548  0.0583
 3122DOPC   D2B36632  29.303  22.581  10.743 -0.1507 -0.0525 -0.3500
 3122DOPC   C3B36633  29.277  22.228  11.024 -0.1345  0.0635 -0.2879
 3122DOPC   C4B36634  29.279  22.176  11.461  0.0274 -0.0896  0.0983
 3123DOPE   NH336635  28.099  13.286   9.597 -0.0076 -0.3537 -0.1008
 3123DOPE   PO436636  27.892  13.175   9.803 -0.1663  0.2516  0.1303
 3123DOPE   GL136637  27.716  13.091  10.130  0.5797  0.2327  0.5396
 3123DOPE   GL236638  27.529  13.145  10.413 -0.0026 -0.1541 -0.1104
 3123DOPE   C1A36639  27.979  12.972  10.508 -0.3166 -0.0833 -0.0971
 3123DOPE   D2A36640  27.966  12.809  10.921  0.0662  0.0017  0.4486
 3123DOPE   C3A36641  28.283  12.912  11.269 -0.1057 -0.0056 -0.1253
 3123DOPE   C4A36642  28.311  12.491  11.510 -0.2241 -0.0913 -0.1627
 3123DOPE   C1B36643  27.632  13.226  10.801  0.1058  0.1131  0.0893
 3123DOPE   D2B36644  27.440  13.418  11.177  0.1185  0.0558 -0.0933
 3123DOPE   C3B36645  27.357  13.250  11.577  0.1845  0.0302  0.1959
 3123DOPE   C4B36646  27.683  13.202  11.873  0.2548  0.3093  0.0288
 3124DOPC   NC336647  34.173  20.544   9.210 -0.0166  0.0283  0.0970
 3124DOPC   PO436648  34.012  20.221   9.423  0.3796 -0.2826  0.3556
 3124DOPC   GL136649  34.093  20.154   9.770 -0.4074  0.0323  0.1517
 3124DOPC   GL236650  34.306  19.965   9.825 -0.2928 -0.1263  0.0104
 3124DOPC   C1A36651  33.910  20.170  10.203 -0.1187 -0.2827  0.1058
 3124DOPC   D2A36652  33.916  20.497  10.531 -0.2801 -0.2150 -0.1196
 3124DOPC   C3A36653  34.217  20.539  10.908 -0.0835  0.0145 -0.1393
 3124DOPC   C4A36654  34.379  20.608  11.366 -0.0100 -0.0688 -0.1315
 3124DOPC   C1B36655  34.380  19.796  10.241 -0.0985 -0.0162 -0.0222
 3124DOPC   D2B36656  34.264  19.461  10.563 -0.3266 -0.0730 -0.2326
 3124DOPC   C3B36657  33.869  19.517  10.796 -0.3343  0.1540  0.1421
 3124DOPC   C4B36658  33.590  19.376  11.124 -0.1263 -0.0364  0.1251
 3125POSM   NC336659  25.389  15.737   9.054 -0.1449  0.0816  0.1681
 3125POSM   PO436660  25.323  16.080   9.287 -0.0370 -0.1775 -0.2159
 3125POSM   AM136661  25.408  16.193   9.600 -0.0153  0.1754  0.2475
 3125POSM   AM236662  25.358  16.407   9.781 -0.0328  0.0433  0.1765
 3125POSM   T1A36663  25.551  16.150  10.070 -0.4912 -0.0876  0.0200
 3125POSM   C2A36664  25.559  16.205  10.526  0.3011 -0.3131  0.1627
 3125POSM   C3A36665  25.505  16.210  10.978  0.1110 -0.2144 -0.0316
 3125POSM   C1B36666  25.387  16.680  10.039  0.1699  0.0847  0.2435
 3125POSM   D2B36667  25.053  16.914  10.270  0.0585  0.0390 -0.1141
 3125POSM   C3B36668  24.958  16.722  10.666  0.1987 -0.2607  0.2913
 3125POSM   C4B36669  24.824  16.956  11.069  0.0655 -0.0297  0.1979
 3126DOPS   CNO36670  26.371  10.371   9.955  0.1779 -0.1307 -0.1428
 3126DOPS   PO436671  26.368  10.701  10.129  0.1122 -0.0133 -0.1061
 3126DOPS   GL136672  26.516  11.045  10.402  0.4502 -0.5597  0.2570
 3126DOPS   GL236673  26.821  11.012  10.438  0.3139 -0.0316 -0.0499
 3126DOPS   C1A36674  26.344  10.974  10.848  0.0285 -0.0419  0.0323
 3126DOPS   D2A36675  26.217  10.975  11.258 -0.0475 -0.0799 -0.0877
 3126DOPS   C3A36676  26.299  10.856  11.669 -0.0814 -0.2847 -0.1345
 3126DOPS   C4A36677  26.364  10.859  12.147 -0.1579 -0.0825 -0.1263
 3126DOPS   C1B36678  27.019  11.166  10.831 -0.1890  0.0483 -0.2253
 3126DOPS   D2B36679  27.125  11.099  11.245 -0.0371  0.2238 -0.0817
 3126DOPS   C3B36680  27.345  10.883  11.579 -0.0256  0.3217  0.1741
 3126DOPS   C4B36681  27.208  10.548  11.905  0.2128 -0.1032 -0.2778
 3127DOPE   NH336682  25.369  18.388   9.210  0.0051 -0.0122 -0.2056
 3127DOPE   PO436683  25.043  18.407   9.236  0.4138  0.5078 -0.3040
 3127DOPE   GL136684  24.986  18.415   9.603  0.1144  0.0836 -0.0779
 3127DOPE   GL236685  25.277  18.473   9.694  0.2531  0.1846  0.0686
 3127DOPE   C1A36686  24.826  18.310  10.040 -0.5183  0.1516 -0.0056
 3127DOPE   D2A36687  24.387  18.259  10.160 -0.0314 -0.1046 -0.2429
 3127DOPE   C3A36688  24.339  18.468  10.579  0.1353 -0.1522 -0.1036
 3127DOPE   C4A36689  24.681  18.668  10.781 -0.1333 -0.0108  0.3601
 3127DOPE   C1B36690  25.301  18.215  10.071  0.1475  0.1116 -0.1432
 3127DOPE   D2B36691  25.279  18.178  10.469 -0.2872  0.0279 -0.0439
 3127DOPE   C3B36692  24.839  18.230  10.542  0.1148  0.0833  0.1426
 3127DOPE   C4B36693  24.583  18.182  10.920 -0.0087  0.2734  0.2895
 3128POSM   NC336694  22.634  11.123   9.186 -0.0945  0.2525  0.0896
 3128POSM   PO436695  22.838  11.479   9.200  0.1557 -0.0390 -0.2331
 3128POSM   AM136696  22.639  11.637   9.440 -0.1530 -0.4215  0.4399
 3128POSM   AM236697  22.430  11.806   9.477  0.1439 -0.1711  0.4019
 3128POSM   T1A36698  22.594  11.696   9.907 -0.6139  0.1346 -0.0175
 3128POSM   C2A36699  22.415  11.644  10.321 -0.1583  0.0236  0.3328
 3128POSM   C3A36700  22.371  11.363  10.681  0.0753 -0.1308  0.1032
 3128POSM   C1B36701  22.173  11.968   9.634  0.2918  0.1200  0.1923
 3128POSM   D2B36702  21.982  12.322   9.834 -0.1127 -0.2808 -0.2471
 3128POSM   C3B36703  22.141  12.524  10.277  0.3135  0.2408  0.0839
 3128POSM   C4B36704  22.327  12.522  10.687  0.1580  0.0609 -0.1036
 3129DOPC   NC336705  30.803  18.465  10.128 -0.2545  0.2087  0.0209
 3129DOPC   PO436706  31.034  18.753  10.023  0.2004  0.1091  0.1814
 3129DOPC   GL136707  31.186  18.820  10.387 -0.2289  0.0300  0.1114
 3129DOPC   GL236708  31.165  18.549  10.483 -0.2666  0.0579  0.0707
 3129DOPC   C1A36709  31.080  19.136  10.732 -0.0741 -0.0110  0.1068
 3129DOPC   D2A36710  31.171  19.277  11.223  0.1711  0.0519 -0.0528
 3129DOPC   C3A36711  31.445  19.604  11.269 -0.1855  0.4678  0.2011
 3129DOPC   C4A36712  31.396  20.052  11.369  0.3519 -0.0802  0.5098
 3129DOPC   C1B36713  30.789  18.745  10.640 -0.0553  0.1346  0.0606
 3129DOPC   D2B36714  30.396  18.659  10.762  0.2004  0.0132  0.3139
 3129DOPC   C3B36715  30.359  18.213  10.946 -0.3678 -0.0254 -0.0779
 3129DOPC   C4B36716  30.434  17.938  11.308  0.0548 -0.1996  0.1107
 3130DOPS   CNO36717  26.271  11.552   9.620 -0.1007  0.2248 -0.0724
 3130DOPS   PO436718  26.105  11.648   9.954 -0.1491  0.5103 -0.2274
 3130DOPS   GL136719  26.107  11.651  10.389 -0.1793  0.2902  0.2061
 3130DOPS   GL236720  26.358  11.625  10.466  0.0306  0.1292  0.0717
 3130DOPS   C1A36721  25.994  11.345  10.749  0.0030  0.0910 -0.3772
 3130DOPS   D2A36722  25.800  10.961  10.951  0.2221  0.2473 -0.0484
 3130DOPS   C3A36723  25.733  11.084  11.375 -0.3358  0.0243 -0.2451
 3130DOPS   C4A36724  25.568  11.422  11.608  0.0899  0.0007  0.0262
 3130DOPS   C1B36725  26.608  11.395  10.765  0.2609  0.1753  0.0732
 3130DOPS   D2B36726  26.663  11.236  11.177 -0.0603 -0.2922 -0.4109
 3130DOPS   C3B36727  26.623  11.287  11.629  0.6227  0.0854 -0.3581
 3130DOPS   C4B36728  26.405  11.555  11.904  0.1954  0.0184 -0.4986
 3131DOPC   NC336729  22.265  13.545   8.943  0.0952  0.2610  0.0491
 3131DOPC   PO436730  22.489  13.879   8.986  0.2008 -0.0576 -0.0053
 3131DOPC   GL136731  22.476  13.849   9.356 -0.3028 -0.0456  0.3646
 3131DOPC   GL236732  22.461  13.538   9.418 -0.1425  0.3731  0.1726
 3131DOPC   C1A36733  22.698  14.030   9.660  0.1390 -0.1721  0.1456
 3131DOPC   D2A36734  22.872  14.033  10.097 -0.2039  0.3024 -0.2786
 3131DOPC   C3A36735  22.751  14.244  10.502  0.3445 -0.0093 -0.2743
 3131DOPC   C4A36736  22.750  14.171  10.948 -0.1137 -0.1875  0.0892
 3131DOPC   C1B36737  22.236  13.698   9.807  0.2494  0.1746 -0.0776
 3131DOPC   D2B36738  22.031  13.719  10.181  0.1731  0.4054 -0.2632
 3131DOPC   C3B36739  22.019  13.477  10.535  0.2818 -0.1497  0.0249
 3131DOPC   C4B36740  21.684  13.241  10.751 -0.4090  0.0182  0.3014
 3132DOPC   NC336741  26.692  16.675   9.826  0.1350 -0.2115  0.1336
 3132DOPC   PO436742  26.987  16.804   9.599  0.0452  0.2928 -0.1060
 3132DOPC   GL136743  27.039  16.995   9.876 -0.3980  0.1029 -0.2541
 3132DOPC   GL236744  27.141  16.875  10.110  0.3287 -0.2443 -0.4438
 3132DOPC   C1A36745  26.892  17.286  10.252  0.3203 -0.0330  0.3080
 3132DOPC   D2A36746  26.731  17.405  10.630 -0.3028  0.1018 -0.0920
 3132DOPC   C3A36747  27.084  17.369  10.938  0.1488 -0.1447  0.0947
 3132DOPC   C4A36748  27.313  17.298  11.358  0.1504  0.0832 -0.3070
 3132DOPC   C1B36749  27.157  16.947  10.576 -0.2923 -0.2374  0.0167
 3132DOPC   D2B36750  26.848  16.926  10.936  0.0865 -0.3112  0.0539
 3132DOPC   C3B36751  26.417  17.035  10.824 -0.1785  0.2397 -0.1751
 3132DOPC   C4B36752  26.104  17.405  10.774 -0.4915  0.0696  0.0552
 3133DOPE   NH336753  28.959  14.208  10.003  0.0498  0.0235 -0.0918
 3133DOPE   PO436754  28.995  14.097  10.271 -0.1531 -0.1729 -0.1119
 3133DOPE   GL136755  29.081  14.147  10.661  0.0818  0.2631 -0.1182
 3133DOPE   GL236756  29.081  13.819  10.735 -0.0157 -0.0908  0.0282
 3133DOPE   C1A36757  28.841  14.254  11.066 -0.0825  0.0185 -0.0264
 3133DOPE   D2A36758  28.517  14.425  11.377 -0.0799  0.2492  0.2403
 3133DOPE   C3A36759  28.450  14.246  11.779  0.1914  0.2058 -0.1243
 3133DOPE   C4A36760  28.773  13.957  12.080  0.1126  0.2126  0.2810
 3133DOPE   C1B36761  29.140  13.742  11.192 -0.1539  0.1320  0.0122
 3133DOPE   D2B36762  29.514  13.767  11.507  0.2386  0.2889 -0.1421
 3133DOPE   C3B36763  29.993  13.874  11.440 -0.1131 -0.0008  0.0142
 3133DOPE   C4B36764  30.324  14.154  11.642 -0.1806 -0.1723  0.0283
 3134DOPC   NC336765  23.876  12.459   9.140 -0.3237 -0.3333  0.0321
 3134DOPC   PO436766  23.883  12.848   9.000 -0.2487 -0.1617 -0.0649
 3134DOPC   GL136767  23.885  12.821   9.462 -0.0310  0.1216  0.0438
 3134DOPC   GL236768  23.733  12.639   9.613 -0.0444 -0.1617 -0.3475
 3134DOPC   C1A36769  24.098  12.949   9.816  0.2550  0.0007 -0.1181
 3134DOPC   D2A36770  24.385  12.942  10.213  0.0068  0.0139 -0.0672
 3134DOPC   C3A36771  24.178  13.023  10.620 -0.1200 -0.0361  0.0248
 3134DOPC   C4A36772  23.980  13.316  10.943  0.0206  0.0798  0.2101
 3134DOPC   C1B36773  24.041  12.454   9.910  0.2084  0.4311 -0.1019
 3134DOPC   D2B36774  24.006  12.479  10.363  0.1088  0.0910 -0.0381
 3134DOPC   C3B36775  23.943  12.143  10.706 -0.0996 -0.2422 -0.0073
 3134DOPC   C4B36776  24.088  11.908  11.090  0.1943  0.0845  0.2367
 3135DOPC   NC336777  31.491  24.252   9.927  0.1750  0.2766 -0.4305
 3135DOPC   PO436778  31.442  24.595   9.721  0.1608 -0.4016  0.1133
 3135DOPC   GL136779  31.306  24.652  10.122  0.1473 -0.1860 -0.0610
 3135DOPC   GL236780  31.075  24.471  10.206  0.0432 -0.1840  0.0915
 3135DOPC   C1A36781  31.375  24.705  10.580  0.1163 -0.1317  0.4059
 3135DOPC   D2A36782  31.303  24.918  10.982  0.0137  0.1551  0.3697
 3135DOPC   C3A36783  30.836  25.072  11.058 -0.2570  0.1797 -0.0197
 3135DOPC   C4A36784  30.736  25.058  11.521 -0.3415 -0.0201  0.2406
 3135DOPC   C1B36785  30.821  24.338  10.521  0.2191  0.2842  0.0492
 3135DOPC   D2B36786  30.554  24.098  10.846  0.1964 -0.0786  0.2985
 3135DOPC   C3B36787  30.437  24.258  11.220 -0.0954  0.0843 -0.1688
 3135DOPC   C4B36788  30.771  24.121  11.495  0.1336 -0.2300 -0.3196
 3136POSM   NC336789  28.408  24.865   9.772 -0.0575 -0.2162  0.0096
 3136POSM   PO436790  28.139  24.574   9.702 -0.1516 -0.0974 -0.1195
 3136POSM   AM136791  27.996  24.411   9.948  0.0584 -0.1562  0.2174
 3136POSM   AM236792  27.846  24.505  10.157  0.4465 -0.3090 -0.0040
 3136POSM   T1A36793  27.996  24.016  10.288 -0.1239 -0.1346 -0.0568
 3136POSM   C2A36794  28.214  23.642  10.513 -0.0754  0.0797 -0.0265
 3136POSM   C3A36795  28.382  23.567  10.962 -0.1573  0.1779 -0.0730
 3136POSM   C1B36796  27.976  24.484  10.470  0.0553  0.0870 -0.2111
 3136POSM   D2B36797  28.313  24.526  10.786  0.0845 -0.0506 -0.1984
 3136POSM   C3B36798  28.508  24.367  11.171  0.1218  0.0802  0.1021
 3136POSM   C4B36799  28.504  24.151  11.529  0.0779  0.1649  0.1368
 3137DOPE   NH336800  28.304  15.781   9.932  0.0011 -0.0625  0.1909
 3137DOPE   PO436801  28.000  15.879   9.803  0.2153  0.0144 -0.3042
 3137DOPE   GL136802  27.804  16.052  10.175 -0.0407 -0.4003  0.0236
 3137DOPE   GL236803  27.600  16.207  10.068 -0.1336 -0.0089 -0.1960
 3137DOPE   C1A36804  27.872  16.416  10.433  0.0946 -0.0270 -0.2804
 3137DOPE   D2A36805  28.072  16.554  10.837  0.4158 -0.0493  0.2421
 3137DOPE   C3A36806  28.362  16.925  10.856  0.3082  0.2356 -0.0707
 3137DOPE   C4A36807  28.336  17.427  10.961 -0.1144  0.0419  0.0497
 3137DOPE   C1B36808  27.257  16.025  10.321 -0.0648  0.1058 -0.0430
 3137DOPE   D2B36809  26.895  15.887  10.558  0.1525 -0.1137  0.4322
 3137DOPE   C3B36810  26.718  16.035  10.975  0.0627 -0.1229  0.1266
 3137DOPE   C4B36811  26.443  16.120  11.328 -0.2193 -0.1558  0.1777
 3138DOPS   CNO36812  24.141  15.151   9.015  0.0569  0.2070  0.0227
 3138DOPS   PO436813  23.997  15.278   9.340  0.3087  0.1633  0.2571
 3138DOPS   GL136814  23.708  15.310   9.629 -0.0163  0.1982 -0.1913
 3138DOPS   GL236815  23.461  15.183   9.701 -0.1101 -0.0400 -0.1492
 3138DOPS   C1A36816  23.530  15.593   9.995 -0.0058  0.1640  0.1457
 3138DOPS   D2A36817  23.683  15.926  10.299 -0.0720  0.0981 -0.0596
 3138DOPS   C3A36818  23.508  16.138  10.687  0.1491  0.1656 -0.1869
 3138DOPS   C4A36819  23.546  16.317  11.108 -0.2143 -0.1219  0.0064
 3138DOPS   C1B36820  23.089  15.357   9.932  0.0244 -0.1713  0.1627
 3138DOPS   D2B36821  23.069  15.381  10.391  0.3961  0.2337 -0.1345
 3138DOPS   C3B36822  23.391  15.650  10.596 -0.2538  0.0373 -0.2352
 3138DOPS   C4B36823  23.810  15.583  10.634  0.1978 -0.0683 -0.2697
 3139DOPC   NC336824  28.561  22.656   9.542  0.1550 -0.1268 -0.0395
 3139DOPC   PO436825  28.894  22.901   9.475 -0.1631 -0.1776 -0.1299
 3139DOPC   GL136826  28.870  22.925   9.903 -0.0706  0.2024 -0.0672
 3139DOPC   GL236827  28.591  22.979  10.034 -0.0792 -0.0086 -0.0995
 3139DOPC   C1A36828  29.108  22.732  10.293  0.0727  0.2093 -0.0004
 3139DOPC   D2A36829  28.847  22.768  10.650 -0.0296  0.1607 -0.0045
 3139DOPC   C3A36830  29.092  22.962  11.024  0.1453  0.0403  0.2196
 3139DOPC   C4A36831  29.350  22.683  11.266  0.0067  0.3434  0.1417
 3139DOPC   C1B36832  28.360  23.370  10.110  0.1107  0.2425  0.3458
 3139DOPC   D2B36833  27.913  23.463  10.153  0.0784 -0.2333 -0.2027
 3139DOPC   C3B36834  27.705  23.159  10.430  0.3827 -0.1084 -0.0032
 3139DOPC   C4B36835  27.636  22.745  10.610 -0.0314 -0.3069 -0.0142
 3140DOPE   NH336836  23.132  16.363   8.802  0.0201 -0.2168 -0.0193
 3140DOPE   PO436837  22.865  16.210   8.752  0.2398 -0.0312  0.3290
 3140DOPE   GL136838  22.707  16.354   9.080  0.1623 -0.2538 -0.0082
 3140DOPE   GL236839  22.839  16.660   9.118  0.0464  0.3022  0.0773
 3140DOPE   C1A36840  22.786  16.173   9.513 -0.1236 -0.1419  0.1874
 3140DOPE   D2A36841  22.358  16.098   9.782 -0.0739  0.0409  0.0983
 3140DOPE   C3A36842  22.304  16.077  10.266 -0.1561 -0.0294  0.0158
 3140DOPE   C4A36843  22.057  16.066  10.637 -0.1817 -0.0452 -0.1937
 3140DOPE   C1B36844  22.772  16.656   9.548 -0.0016 -0.3789 -0.0537
 3140DOPE   D2B36845  22.677  16.530   9.934  0.0582  0.1927 -0.2456
 3140DOPE   C3B36846  22.797  16.038   9.997  0.1439  0.1107 -0.1125
 3140DOPE   C4B36847  23.126  15.844  10.233  0.0714 -0.1611 -0.2512
 3141DOPE   NH336848  28.175  17.611   9.817 -0.3105  0.1585  0.2763
 3141DOPE   PO436849  28.511  17.649   9.827 -0.3156  0.0396  0.3570
 3141DOPE   GL136850  28.473  17.622  10.265  0.0186  0.2745 -0.3178
 3141DOPE   GL236851  28.394  17.349  10.437  0.3020  0.1106  0.1409
 3141DOPE   C1A36852  28.301  17.866  10.636 -0.2842  0.1553  0.0893
 3141DOPE   D2A36853  28.410  17.888  11.078 -0.2825  0.1306 -0.0160
 3141DOPE   C3A36854  28.375  18.346  11.084  0.3302  0.2708  0.0865
 3141DOPE   C4A36855  28.243  18.806  11.045 -0.0726  0.1143  0.0948
 3141DOPE   C1B36856  27.983  17.458  10.518  0.1297  0.0398  0.0510
 3141DOPE   D2B36857  27.747  17.807  10.747  0.2481  0.3405  0.1430
 3141DOPE   C3B36858  27.917  17.655  11.151  0.1361 -0.1382  0.0295
 3141DOPE   C4B36859  28.269  17.699  11.505  0.2401 -0.3828 -0.2077
 3142POSM   NC336860  31.661  21.671   9.749 -0.0242  0.2131 -0.0177
 3142POSM   PO436861  32.017  21.740   9.613 -0.1531 -0.1039  0.0694
 3142POSM   AM136862  32.131  21.617   9.928  0.1029  0.3007  0.4193
 3142POSM   AM236863  31.954  21.448  10.112  0.2431 -0.1261 -0.0724
 3142POSM   T1A36864  32.348  21.517  10.339  0.3098  0.0643 -0.0046
 3142POSM   C2A36865  32.734  21.324  10.525 -0.1017  0.2330  0.0108
 3142POSM   C3A36866  33.124  21.349  10.723 -0.0191 -0.0484 -0.1230
 3142POSM   C1B36867  32.024  21.154  10.259 -0.2033  0.2881  0.0210
 3142POSM   D2B36868  32.150  20.782  10.535  0.1883 -0.1279  0.0639
 3142POSM   C3B36869  31.967  20.513  10.873  0.3919 -0.1673 -0.0163
 3142POSM   C4B36870  31.903  20.289  11.271  0.0758  0.0725  0.0806
 3143POSM   NC336871  33.891  25.265  10.489  0.0553 -0.2598 -0.0698
 3143POSM   PO436872  33.720  25.264  10.136  0.1666  0.1530 -0.0849
 3143POSM   AM136873  33.468  25.173  10.317 -0.0009  0.3923 -0.1903
 3143POSM   AM236874  33.389  25.329  10.542  0.0744 -0.0472 -0.0313
 3143POSM   T1A36875  33.126  24.868  10.546 -0.0985  0.1622 -0.0113
 3143POSM   C2A36876  32.800  24.657  10.898  0.1496 -0.1074 -0.0930
 3143POSM   C3A36877  32.606  24.685  11.295  0.0042  0.0438  0.1075
 3143POSM   C1B36878  33.474  25.123  10.847 -0.1171 -0.1565  0.3104
 3143POSM   D2B36879  33.429  24.636  11.031 -0.0697 -0.1868 -0.0016
 3143POSM   C3B36880  33.414  24.479  11.511  0.3001  0.1352 -0.2162
 3143POSM   C4B36881  33.612  24.223  11.864 -0.1292  0.1150 -0.0011
 3144DOPC   NC336882  23.523  17.045   8.696 -0.1829  0.0608 -0.2351
 3144DOPC   PO436883  23.740  17.214   9.026  0.1407 -0.1777 -0.3590
 3144DOPC   GL136884  23.957  17.378   9.280 -0.1283  0.0204 -0.2152
 3144DOPC   GL236885  24.042  17.585   9.310  0.1390 -0.1020  0.3140
 3144DOPC   C1A36886  23.782  17.299   9.720 -0.2438 -0.0353  0.0141
 3144DOPC   D2A36887  23.501  17.120  10.015 -0.2343 -0.1033 -0.1825
 3144DOPC   C3A36888  23.683  17.230  10.442  0.0312  0.0181  0.1363
 3144DOPC   C4A36889  23.775  17.240  10.848  0.1369  0.4291 -0.0112
 3144DOPC   C1B36890  24.196  17.749   9.726  0.1816 -0.0062 -0.0126
 3144DOPC   D2B36891  24.100  17.643  10.142 -0.1424  0.2509  0.1264
 3144DOPC   C3B36892  24.092  17.455  10.581  0.0845  0.3359 -0.0041
 3144DOPC   C4B36893  24.413  17.338  10.873  0.0720  0.1211 -0.2505
 3145DOPC   NC336894  28.577  21.868   9.381  0.0703 -0.2136  0.1597
 3145DOPC   PO436895  28.649  22.187   9.607  0.2395 -0.0952  0.1277
 3145DOPC   GL136896  28.636  21.972   9.833 -0.1852 -0.3017  0.0735
 3145DOPC   GL236897  28.702  22.090  10.097 -0.3841 -0.2417  0.1140
 3145DOPC   C1A36898  28.467  21.607  10.049 -0.1775  0.0868  0.0279
 3145DOPC   D2A36899  28.292  21.493  10.425  0.0224 -0.1245  0.0841
 3145DOPC   C3A36900  28.554  21.359  10.743 -0.0154 -0.0279 -0.2051
 3145DOPC   C4A36901  28.820  21.564  11.048  0.2349 -0.0905  0.2885
 3145DOPC   C1B36902  28.737  21.810  10.457  0.3379 -0.1174 -0.0385
 3145DOPC   D2B36903  29.102  21.562  10.516 -0.1694 -0.2789  0.2705
 3145DOPC   C3B36904  29.284  21.344  10.935  0.0408 -0.1914 -0.0208
 3145DOPC   C4B36905  29.714  21.311  11.085  0.1702 -0.0999 -0.0094
 3146DOPC   NC336906  30.339  21.584   9.326 -0.1322  0.0089  0.0254
 3146DOPC   PO436907  30.077  21.859   9.451  0.1388  0.2448  0.0804
 3146DOPC   GL136908  30.311  21.691   9.800  0.1622 -0.1501 -0.2264
 3146DOPC   GL236909  30.092  21.606   9.986  0.0052 -0.0996 -0.1136
 3146DOPC   C1A36910  30.634  21.644  10.152  0.1219  0.4836  0.0971
 3146DOPC   D2A36911  30.973  21.753  10.478 -0.0178  0.2402 -0.3278
 3146DOPC   C3A36912  30.907  21.502  10.877 -0.1302  0.1231 -0.4821
 3146DOPC   C4A36913  31.047  21.555  11.354 -0.1853 -0.0277  0.3850
 3146DOPC   C1B36914  30.181  21.551  10.448  0.0276 -0.0064  0.1847
 3146DOPC   D2B36915  30.447  21.810  10.708 -0.0699  0.1807 -0.1477
 3146DOPC   C3B36916  30.360  22.273  10.754 -0.3039 -0.0789 -0.1309
 3146DOPC   C4B36917  30.211  22.632  10.576 -0.3577  0.0532 -0.0389
 3147POSM   NC336918  24.821  16.270   9.143  0.3110  0.0113 -0.0034
 3147POSM   PO436919  24.822  15.893   9.121  0.0669 -0.0073 -0.0056
 3147POSM   AM136920  24.891  15.834   9.424  0.2559  0.2535 -0.2250
 3147POSM   AM236921  24.924  16.080   9.617 -0.0084  0.1368  0.4469
 3147POSM   T1A36922  24.803  15.637   9.876 -0.2443  0.0080  0.0748
 3147POSM   C2A36923  24.695  15.381  10.202 -0.1986  0.3336 -0.2560
 3147POSM   C3A36924  24.593  15.151  10.580  0.0892 -0.2029  0.2521
 3147POSM   C1B36925  25.054  16.087   9.939 -0.0402  0.0949  0.1195
 3147POSM   D2B36926  25.059  16.376  10.298  0.0827  0.0133 -0.0624
 3147POSM   C3B36927  25.038  16.189  10.738  0.4571  0.1784 -0.1673
 3147POSM   C4B36928  24.899  15.977  11.119 -0.2961  0.1194 -0.1547
 3148DOPC   NC336929  26.610  23.545   8.561 -0.0453  0.2004 -0.0210
 3148DOPC   PO436930  26.548  23.920   8.679  0.0784  0.1575 -0.3435
 3148DOPC   GL136931  26.536  24.019   9.098 -0.0544 -0.0141 -0.0091
 3148DOPC   GL236932  26.323  23.952   9.211  0.0053  0.1052 -0.0168
 3148DOPC   C1A36933  26.775  24.127   9.483 -0.1710 -0.0343  0.0830
 3148DOPC   D2A36934  26.925  24.140   9.918 -0.1944  0.3347 -0.2826
 3148DOPC   C3A36935  26.660  24.319  10.281  0.2548 -0.2232  0.0870
 3148DOPC   C4A36936  26.398  24.671  10.424 -0.2774 -0.3095  0.1670
 3148DOPC   C1B36937  26.347  24.363   9.505 -0.0716 -0.3623 -0.2461
 3148DOPC   D2B36938  26.298  24.485   9.893  0.1580  0.0803  0.1125
 3148DOPC   C3B36939  26.187  24.952   9.927 -0.1207 -0.1289  0.2974
 3148DOPC   C4B36940  26.044  25.255   9.678 -0.1082 -0.3208 -0.0058
 3149POSM   NC336941  33.957  16.811   9.708  0.2056  0.0268 -0.0391
 3149POSM   PO436942  33.908  17.102   9.908 -0.2097 -0.2289  0.2545
 3149POSM   AM136943  33.866  17.375  10.103 -0.2775  0.4902  0.2217
 3149POSM   AM236944  34.014  17.494  10.320  0.0090  0.1553  0.0818
 3149POSM   T1A36945  33.694  17.834  10.188  0.0584 -0.2703  0.0884
 3149POSM   C2A36946  33.706  18.283  10.314 -0.0571 -0.1068 -0.0110
 3149POSM   C3A36947  33.613  18.676  10.476  0.0363 -0.0782 -0.1191
 3149POSM   C1B36948  33.833  17.447  10.575  0.0839  0.2040  0.3388
 3149POSM   D2B36949  33.680  17.481  11.008 -0.1738  0.4614  0.0015
 3149POSM   C3B36950  33.649  17.494  11.489 -0.3030 -0.0595 -0.1982
 3149POSM   C4B36951  33.830  17.617  11.895  0.0045 -0.1080  0.1494
 3150DOPS   CNO36952  29.629  14.146   9.583 -0.2076  0.1465  0.4132
 3150DOPS   PO436953  29.532  14.322   9.883 -0.2098  0.3654 -0.0963
 3150DOPS   GL136954  29.803  14.274  10.270 -0.1094  0.4618 -0.2403
 3150DOPS   GL236955  30.052  14.272  10.300  0.0064  0.0743 -0.1915
 3150DOPS   C1A36956  29.677  14.221  10.704 -0.1143 -0.1269  0.3474
 3150DOPS   D2A36957  30.007  14.350  11.033  0.3728  0.1610 -0.2259
 3150DOPS   C3A36958  29.822  14.371  11.466 -0.5384  0.0800  0.0240
 3150DOPS   C4A36959  29.975  14.448  11.892  0.1114 -0.0818  0.0106
 3150DOPS   C1B36960  29.930  13.825  10.495 -0.0902  0.0019  0.3210
 3150DOPS   D2B36961  29.957  13.350  10.549  0.0728  0.0635  0.2108
 3150DOPS   C3B36962  29.816  13.341  10.960 -0.3469 -0.3265  0.0383
 3150DOPS   C4B36963  29.969  13.063  11.290  0.2085 -0.0439  0.0061
 3151DOPC   NC336964  28.513  18.056  10.206  0.0566 -0.0048 -0.2040
 3151DOPC   PO436965  28.913  17.962  10.133  0.0340  0.0281  0.2780
 3151DOPC   GL136966  28.929  17.785  10.554  0.1642 -0.0835 -0.4301
 3151DOPC   GL236967  29.268  17.679  10.527 -0.1275 -0.4947  0.0333
 3151DOPC   C1A36968  28.834  17.484  10.869 -0.3454  0.2677 -0.2176
 3151DOPC   D2A36969  28.679  17.503  11.318 -0.2196  0.2456  0.0519
 3151DOPC   C3A36970  28.910  17.877  11.428  0.1662  0.1441  0.0380
 3151DOPC   C4A36971  29.009  18.291  11.305  0.0200  0.2977  0.1843
 3151DOPC   C1B36972  29.562  17.675  10.871  0.0211  0.1863  0.0713
 3151DOPC   D2B36973  29.909  17.953  10.990  0.1352 -0.3172  0.0967
 3151DOPC   C3B36974  30.015  17.799  11.435 -0.1136  0.0948  0.0983
 3151DOPC   C4B36975  30.331  17.648  11.771 -0.0263 -0.1903 -0.1575
 3152DOPS   CNO36976  24.229  23.587   8.657  0.1442  0.1140  0.2805
 3152DOPS   PO436977  23.999  23.294   8.534  0.0972 -0.0348  0.2091
 3152DOPS   GL136978  23.746  23.314   8.961 -0.1979 -0.0430 -0.3435
 3152DOPS   GL236979  23.854  23.011   8.961 -0.2362 -0.1169 -0.0197
 3152DOPS   C1A36980  23.725  23.603   9.342  0.1442 -0.1295 -0.2015
 3152DOPS   D2A36981  23.974  23.826   9.723  0.2862  0.2289 -0.0139
 3152DOPS   C3A36982  23.826  23.789  10.120  0.1529 -0.0407 -0.1986
 3152DOPS   C4A36983  23.668  23.933  10.555 -0.3983  0.0044  0.3408
 3152DOPS   C1B36984  23.789  22.674   9.270  0.1355 -0.2191  0.3710
 3152DOPS   D2B36985  23.617  22.269   9.416 -0.6225  0.0049  0.0625
 3152DOPS   C3B36986  23.404  22.178   9.827  0.0027  0.2303  0.1340
 3152DOPS   C4B36987  23.031  22.125  10.077  0.2763  0.0546  0.3340
 3153DOPE   NH336988  27.819  22.817   9.122  0.1459 -0.1502  0.0145
 3153DOPE   PO436989  28.108  22.756   9.246  0.1523 -0.0246 -0.2090
 3153DOPE   GL136990  27.910  22.756   9.599  0.0592  0.2618  0.0304
 3153DOPE   GL236991  27.660  22.607   9.547  0.0436  0.0879 -0.0763
 3153DOPE   C1A36992  28.026  22.897  10.056  0.0920 -0.0753 -0.0730
 3153DOPE   D2A36993  28.250  22.968  10.406  0.3142  0.1079  0.1559
 3153DOPE   C3A36994  28.028  23.083  10.764 -0.2825  0.3519 -0.1239
 3153DOPE   C4A36995  27.904  23.200  11.216 -0.4915  0.3360 -0.2968
 3153DOPE   C1B36996  27.696  22.479  10.004  0.0054  0.0234  0.5597
 3153DOPE   D2B36997  27.608  22.265  10.405 -0.0503 -0.0618 -0.0830
 3153DOPE   C3B36998  27.751  22.184  10.832  0.0389  0.4953  0.0367
 3153DOPE   C4B36999  27.505  22.084  11.206 -0.1693 -0.1061  0.1509
 3154DOPE   NH337000  32.247  15.651   9.623 -0.0395  0.3358  0.1661
 3154DOPE   PO437001  32.060  15.642   9.872 -0.2945  0.0361  0.1281
 3154DOPE   GL137002  31.963  15.720  10.221  0.0515  0.0224  0.1404
 3154DOPE   GL237003  32.197  15.609  10.395 -0.0427 -0.1511  0.0311
 3154DOPE   C1A37004  31.798  15.507  10.611  0.2712 -0.1952 -0.1723
 3154DOPE   D2A37005  31.702  15.217  10.979  0.2215  0.0003 -0.0237
 3154DOPE   C3A37006  31.668  15.614  11.191 -0.1514 -0.0858 -0.0412
 3154DOPE   C4A37007  31.945  15.733  11.561 -0.3255 -0.3906 -0.3395
 3154DOPE   C1B37008  32.160  15.851  10.806 -0.0742  0.0169  0.0386
 3154DOPE   D2B37009  32.401  16.103  11.181  0.0103 -0.0307 -0.3393
 3154DOPE   C3B37010  32.491  15.988  11.672  0.2000 -0.0661  0.3839
 3154DOPE   C4B37011  32.273  15.674  11.971 -0.1284  0.0703 -0.2247
 3155DOPE   NH337012  30.402  14.763   9.729 -0.0144  0.0466  0.1666
 3155DOPE   PO437013  30.090  14.910   9.642  0.1019  0.4147  0.0832
 3155DOPE   GL137014  30.069  15.168   9.953  0.3663  0.2000 -0.0895
 3155DOPE   GL237015  30.337  15.384  10.059  0.1822  0.0549  0.0694
 3155DOPE   C1A37016  29.928  15.114  10.435  0.1756  0.2145  0.2114
 3155DOPE   D2A37017  29.562  15.051  10.719  0.0269 -0.2108 -0.0850
 3155DOPE   C3A37018  29.613  14.697  10.984 -0.3367 -0.2694 -0.1531
 3155DOPE   C4A37019  29.416  14.273  11.184 -0.0038 -0.0133 -0.1431
 3155DOPE   C1B37020  30.646  15.309  10.368 -0.0469 -0.1408 -0.0306
 3155DOPE   D2B37021  30.556  15.209  10.788  0.2422  0.1308  0.1409
 3155DOPE   C3B37022  30.399  15.541  11.113  0.1945 -0.1201 -0.1151
 3155DOPE   C4B37023  30.401  15.564  11.554 -0.1101  0.3728  0.0968
 3156DOPC   NC337024  26.031  15.210   9.655 -0.1150  0.0609 -0.0985
 3156DOPC   PO437025  26.198  14.921   9.857 -0.0662 -0.1235 -0.2239
 3156DOPC   GL137026  26.207  14.817  10.256  0.5121  0.3554 -0.0536
 3156DOPC   GL237027  26.171  14.551  10.320 -0.1096 -0.0084 -0.1522
 3156DOPC   C1A37028  25.850  14.891  10.523  0.1211 -0.1440  0.2935
 3156DOPC   D2A37029  25.765  14.954  10.949 -0.0615 -0.2981  0.4875
 3156DOPC   C3A37030  25.513  15.176  11.271 -0.1999 -0.0752 -0.0189
 3156DOPC   C4A37031  25.215  14.989  11.536  0.0848 -0.0001  0.2089
 3156DOPC   C1B37032  25.869  14.374  10.572 -0.0954  0.0907  0.1751
 3156DOPC   D2B37033  25.905  14.159  10.983 -0.1282  0.0062 -0.0995
 3156DOPC   C3B37034  25.926  14.383  11.407  0.0144 -0.0714  0.1102
 3156DOPC   C4B37035  25.888  14.499  11.830  0.0715 -0.1721  0.2383
 3157DOPS   CNO37036   1.029  20.799   9.778  0.3275  0.1284  0.5056
 3157DOPS   PO437037   1.059  20.570  10.087 -0.3070 -0.1008 -0.1474
 3157DOPS   GL137038   1.101  20.499  10.452  0.1283 -0.0416  0.0527
 3157DOPS   GL237039   1.347  20.525  10.572 -0.0595  0.0543  0.1881
 3157DOPS   C1A37040   0.940  20.326  10.888  0.0525  0.1165  0.0125
 3157DOPS   D2A37041   1.054  20.339  11.297  0.1068  0.0089  0.2189
 3157DOPS   C3A37042   0.839  20.221  11.698  0.3228 -0.0080 -0.2653
 3157DOPS   C4A37043   0.566  20.454  11.980 -0.1781  0.0264  0.1758
 3157DOPS   C1B37044   1.374  20.566  10.989  0.0701 -0.1417  0.0405
 3157DOPS   D2B37045   1.486  20.519  11.468 -0.0186 -0.1650  0.0815
 3157DOPS   C3B37046   1.093  20.695  11.655 -0.2429  0.0023  0.0131
 3157DOPS   C4B37047   0.754  20.937  11.825 -0.3135  0.1978 -0.1653
 3158DOPS   CNO37048  30.984  25.290   9.426  0.1997 -0.2585 -0.0386
 3158DOPS   PO437049  31.055  25.428   9.797 -0.2763 -0.2723  0.0215
 3158DOPS   GL137050  31.091  25.208  10.110  0.0815 -0.0156  0.2481
 3158DOPS   GL237051  31.033  24.992  10.211  0.2001 -0.1175 -0.1074
 3158DOPS   C1A37052  31.073  25.382  10.564 -0.1534  0.0227  0.3342
 3158DOPS   D2A37053  31.277  25.453  10.955  0.1348 -0.1587  0.0032
 3158DOPS   C3A37054  31.008  25.442  11.319 -0.3376  0.0901  0.0397
 3158DOPS   C4A37055  30.726  25.704  11.481  0.0121  0.2353  0.0169
 3158DOPS   C1B37056  30.899  24.861  10.601 -0.0473  0.1748 -0.1097
 3158DOPS   D2B37057  30.855  24.497  10.973 -0.2027 -0.5267 -0.3749
 3158DOPS   C3B37058  30.992  24.657  11.382  0.0225  0.1004  0.0717
 3158DOPS   C4B37059  31.373  24.733  11.458  0.2402 -0.1815  0.0065
 3159DOPC   NC337060  32.918  21.897   9.516  0.0130 -0.1810  0.4831
 3159DOPC   PO437061  32.624  22.153   9.580 -0.5075 -0.2211  0.2080
 3159DOPC   GL137062  32.767  22.021   9.943  0.1617 -0.3163 -0.2108
 3159DOPC   GL237063  32.528  21.882  10.003  0.0076  0.0590 -0.1445
 3159DOPC   C1A37064  32.829  22.357  10.315  0.0034  0.2968 -0.2065
 3159DOPC   D2A37065  32.565  22.559  10.673  0.3101 -0.0803  0.3302
 3159DOPC   C3A37066  32.669  22.327  11.093 -0.1340 -0.2877  0.0607
 3159DOPC   C4A37067  32.823  22.171  11.560  0.0205  0.2324  0.1157
 3159DOPC   C1B37068  32.402  22.070  10.370  0.2461  0.1607  0.0533
 3159DOPC   D2B37069  32.049  22.422  10.460 -0.2568  0.2307  0.1181
 3159DOPC   C3B37070  31.864  22.828  10.574  0.0582 -0.4039 -0.0237
 3159DOPC   C4B37071  31.741  22.957  10.977 -0.0263 -0.2554 -0.2397
 3160DOPS   CNO37072  22.930  15.252   8.713 -0.0868 -0.2942 -0.2870
 3160DOPS   PO437073  23.217  15.227   8.930  0.3285 -0.1814 -0.0950
 3160DOPS   GL137074  23.373  14.891   9.257  0.0084  0.0574  0.0928
 3160DOPS   GL237075  23.155  14.951   9.433 -0.2786  0.0243 -0.4320
 3160DOPS   C1A37076  23.587  14.657   9.619 -0.0766  0.1989  0.3322
 3160DOPS   D2A37077  23.648  14.338   9.904 -0.3931  0.0263 -0.0385
 3160DOPS   C3A37078  23.707  14.157  10.391 -0.0177  0.3317  0.0884
 3160DOPS   C4A37079  23.654  14.243  10.859  0.1444  0.4613 -0.4467
 3160DOPS   C1B37080  23.059  14.827   9.905 -0.0332 -0.4544 -0.0840
 3160DOPS   D2B37081  22.979  14.867  10.350 -0.1668 -0.1316 -0.1319
 3160DOPS   C3B37082  23.040  15.040  10.831  0.0679 -0.3399 -0.1624
 3160DOPS   C4B37083  23.252  15.388  10.980  0.0953 -0.1279  0.2242
 3161DOPS   CNO37084  28.248  17.143   9.611  0.0682  0.2537 -0.2388
 3161DOPS   PO437085  28.013  16.962   9.863 -0.0567 -0.1368  0.2009
 3161DOPS   GL137086  28.141  16.988  10.200 -0.1143 -0.3235  0.0922
 3161DOPS   GL237087  28.334  16.800  10.320  0.0974 -0.1096 -0.1361
 3161DOPS   C1A37088  27.918  16.896  10.539 -0.1660 -0.0817  0.0841
 3161DOPS   D2A37089  27.619  16.740  10.867 -0.1851  0.4399  0.1576
 3161DOPS   C3A37090  27.722  16.318  11.029 -0.0084 -0.1213  0.1901
 3161DOPS   C4A37091  27.522  16.139  11.393  0.3901 -0.1621  0.3682
 3161DOPS   C1B37092  28.505  16.439  10.604  0.0786 -0.1284 -0.1107
 3161DOPS   D2B37093  28.403  16.250  11.038 -0.2022  0.0857  0.4716
 3161DOPS   C3B37094  28.432  16.590  11.317  0.1352 -0.1007 -0.1214
 3161DOPS   C4B37095  28.581  16.646  11.748 -0.0185  0.0945  0.3481
 3162DOPC   NC337096  27.648  21.734   9.097  0.2001  0.0289  0.4336
 3162DOPC   PO437097  28.019  21.777   9.260 -0.3321  0.1788  0.2074
 3162DOPC   GL137098  28.007  21.701   9.572 -0.1964  0.1234  0.2262
 3162DOPC   GL237099  28.159  21.918   9.744 -0.2042 -0.0094  0.0717
 3162DOPC   C1A37100  27.940  21.473   9.952  0.0304  0.0527  0.0286
 3162DOPC   D2A37101  27.805  21.336  10.333  0.1420 -0.3317  0.3231
 3162DOPC   C3A37102  27.435  21.490  10.602 -0.1089  0.0124 -0.2582
 3162DOPC   C4A37103  26.975  21.616  10.709  0.0409  0.2209  0.3297
 3162DOPC   C1B37104  28.142  22.120  10.198 -0.1602 -0.0419  0.0951
 3162DOPC   D2B37105  28.101  22.484  10.440 -0.0560 -0.0632 -0.0695
 3162DOPC   C3B37106  28.235  22.468  10.897  0.2470  0.2002 -0.1335
 3162DOPC   C4B37107  28.331  22.151  11.168 -0.3268 -0.5902 -0.0044
 3163DOPE   NH337108  33.473  13.909   9.853 -0.1499  0.3473  0.1536
 3163DOPE   PO437109  33.674  13.686   9.925  0.4444  0.0603  0.0182
 3163DOPE   GL137110  33.623  13.785  10.294 -0.1161 -0.1500  0.1831
 3163DOPE   GL237111  33.391  13.720  10.446  0.2211 -0.0283  0.2048
 3163DOPE   C1A37112  33.717  13.975  10.752 -0.2067 -0.0855 -0.0551
 3163DOPE   D2A37113  33.654  14.012  11.189  0.0544  0.0540  0.2216
 3163DOPE   C3A37114  33.235  14.129  11.315 -0.1753 -0.0054 -0.0628
 3163DOPE   C4A37115  32.813  14.226  11.430 -0.2398 -0.5002  0.2563
 3163DOPE   C1B37116  33.205  13.775  10.866 -0.1369 -0.0424  0.1879
 3163DOPE   D2B37117  33.350  13.627  11.338 -0.0787  0.2355  0.0034
 3163DOPE   C3B37118  33.054  13.327  11.419 -0.0899 -0.1582 -0.0662
 3163DOPE   C4B37119  32.928  13.023  11.724  0.1211 -0.0426  0.1274
 3164DOPE   NH337120  24.620  24.386   8.351  0.2623  0.2023 -0.2607
 3164DOPE   PO437121  24.899  24.424   8.487 -0.1633  0.0763  0.3078
 3164DOPE   GL137122  24.760  24.325   8.782 -0.1465 -0.3708 -0.0705
 3164DOPE   GL237123  24.704  24.586   8.941 -0.1481  0.1104 -0.3218
 3164DOPE   C1A37124  24.959  24.303   9.232 -0.1104  0.1052  0.2293
 3164DOPE   D2A37125  25.052  24.173   9.656  0.1771  0.0858  0.0367
 3164DOPE   C3A37126  24.752  24.360   9.976  0.0126 -0.0582  0.2789
 3164DOPE   C4A37127  24.529  24.582  10.331  0.3628 -0.0213 -0.1640
 3164DOPE   C1B37128  24.374  24.291   9.194 -0.0298 -0.4678 -0.0706
 3164DOPE   D2B37129  24.080  24.243   9.546 -0.2364 -0.1665 -0.1484
 3164DOPE   C3B37130  24.132  24.515   9.923  0.2870  0.0486  0.0495
 3164DOPE   C4B37131  24.357  24.849   9.897 -0.1680  0.2254  0.1368
 3165POSM   NC337132  28.275  16.218   9.573  0.1582  0.2177  0.0598
 3165POSM   PO437133  28.640  16.156   9.660 -0.0380 -0.0385 -0.0217
 3165POSM   AM137134  28.685  16.167   9.981  0.1416 -0.0352 -0.0663
 3165POSM   AM237135  28.448  16.219  10.152 -0.3025 -0.0638  0.1327
 3165POSM   T1A37136  28.982  15.988  10.392  0.0252  0.2550 -0.1221
 3165POSM   C2A37137  29.282  15.932  10.736  0.2238  0.0638 -0.2404
 3165POSM   C3A37138  29.544  16.242  11.002 -0.0758 -0.0968  0.4873
 3165POSM   C1B37139  28.256  16.065  10.353 -0.0568  0.1388 -0.5192
 3165POSM   D2B37140  28.053  16.025  10.781  0.1231 -0.0919  0.0839
 3165POSM   C3B37141  28.237  15.783  11.144 -0.2670 -0.3988  0.2406
 3165POSM   C4B37142  28.589  15.707  11.474 -0.0770 -0.1237  0.4228
 3166DOPS   CNO37143  34.398  23.262  10.147  0.0644 -0.0720 -0.0778
 3166DOPS   PO437144  34.041  23.192  10.179 -0.0824 -0.1386 -0.2088
 3166DOPS   GL137145  33.780  22.927  10.349  0.3017  0.0596  0.1509
 3166DOPS   GL237146  33.752  23.107  10.595 -0.1040 -0.1223  0.1636
 3166DOPS   C1A37147  33.494  22.689  10.654 -0.0362  0.2167 -0.1634
 3166DOPS   D2A37148  33.139  22.450  10.742 -0.1137  0.0866  0.1098
 3166DOPS   C3A37149  33.191  22.314  11.221  0.1322  0.3333  0.2533
 3166DOPS   C4A37150  33.274  21.898  11.489  0.0288  0.3397 -0.1682
 3166DOPS   C1B37151  33.600  23.508  10.792  0.1514  0.0319 -0.0652
 3166DOPS   D2B37152  33.282  23.627  11.109 -0.1218 -0.2525  0.2292
 3166DOPS   C3B37153  32.834  23.749  11.032  0.2698 -0.0999 -0.1349
 3166DOPS   C4B37154  32.511  24.021  11.038 -0.0634 -0.0180  0.1358
 3167DOPC   NC337155  28.616  14.006  10.690  0.0566 -0.0706 -0.1822
 3167DOPC   PO437156  28.507  13.855  10.342 -0.0958 -0.1903 -0.4270
 3167DOPC   GL137157  28.276  13.751  10.568 -0.0080  0.1015 -0.3031
 3167DOPC   GL237158  28.089  14.017  10.601 -0.0265 -0.0799 -0.1343
 3167DOPC   C1A37159  28.270  13.864  11.027 -0.0289 -0.3175 -0.1939
 3167DOPC   D2A37160  28.191  13.758  11.424 -0.4138 -0.2261  0.3650
 3167DOPC   C3A37161  28.503  13.474  11.470 -0.0858  0.0123 -0.0165
 3167DOPC   C4A37162  28.867  13.555  11.722  0.1104  0.0693 -0.2231
 3167DOPC   C1B37163  27.804  13.716  10.857  0.1977 -0.0834  0.2293
 3167DOPC   D2B37164  27.725  13.759  11.320  0.0187 -0.0489 -0.1298
 3167DOPC   C3B37165  27.420  14.100  11.540  0.0079  0.1634 -0.2146
 3167DOPC   C4B37166  27.266  14.504  11.721  0.1648  0.0224  0.2016
 3168DOPE   NH337167  22.166  12.805   8.683  0.0562  0.2177  0.2154
 3168DOPE   PO437168  22.249  13.106   8.697 -0.0762  0.0484 -0.0234
 3168DOPE   GL137169  22.245  13.069   9.110  0.1694  0.0509 -0.2049
 3168DOPE   GL237170  21.995  12.950   9.160 -0.1178 -0.2657  0.0979
 3168DOPE   C1A37171  22.145  13.229   9.531 -0.0634  0.2021  0.1458
 3168DOPE   D2A37172  21.998  13.244   9.995  0.2178 -0.0066  0.1384
 3168DOPE   C3A37173  22.212  13.041  10.410  0.0361  0.0265 -0.1335
 3168DOPE   C4A37174  22.583  12.772  10.381 -0.2196 -0.0644 -0.0417
 3168DOPE   C1B37175  22.094  12.720   9.548 -0.1313 -0.1039 -0.1740
 3168DOPE   D2B37176  22.331  12.843   9.891 -0.0922 -0.1861 -0.2547
 3168DOPE   C3B37177  22.516  13.268  10.061  0.0174 -0.1004 -0.1414
 3168DOPE   C4B37178  22.519  13.647  10.244 -0.1608  0.2872  0.1573
 3169DOPS   CNO37179  28.638  14.209   9.595  0.0693  0.1175  0.0254
 3169DOPS   PO437180  28.490  14.255   9.937  0.2150  0.1643 -0.3661
 3169DOPS   GL137181  28.433  14.342  10.379 -0.1231 -0.3735 -0.0244
 3169DOPS   GL237182  28.171  14.438  10.354  0.0500 -0.0770 -0.2296
 3169DOPS   C1A37183  28.683  14.624  10.680 -0.0032 -0.0386  0.0426
 3169DOPS   D2A37184  28.645  14.838  11.071 -0.1337 -0.1219  0.0624
 3169DOPS   C3A37185  28.787  14.794  11.505 -0.0406  0.1703 -0.0511
 3169DOPS   C4A37186  28.586  14.675  11.887 -0.1807 -0.1645 -0.0147
 3169DOPS   C1B37187  27.916  14.620  10.719  0.3194  0.2004  0.1114
 3169DOPS   D2B37188  28.076  14.813  11.100  0.1600  0.2527  0.0238
 3169DOPS   C3B37189  27.847  15.202  11.275 -0.2367 -0.1806 -0.1603
 3169DOPS   C4B37190  27.664  15.299  11.642 -0.0428  0.1617  0.3621
 3170DOPS   CNO37191  32.785  20.937  10.196  0.1044 -0.1015 -0.3124
 3170DOPS   PO437192  33.033  21.098  10.001  0.0762 -0.2085  0.0058
 3170DOPS   GL137193  33.217  20.994  10.338  0.0207  0.0366  0.2984
 3170DOPS   GL237194  33.445  21.146  10.297  0.0804  0.0696  0.2365
 3170DOPS   C1A37195  33.097  20.879  10.773 -0.1218 -0.0126  0.1692
 3170DOPS   D2A37196  33.233  20.809  11.213 -0.1212 -0.0132  0.2017
 3170DOPS   C3A37197  32.856  20.891  11.533 -0.0477  0.1722  0.3093
 3170DOPS   C4A37198  32.665  20.626  11.821  0.2981  0.0932  0.0314
 3170DOPS   C1B37199  33.618  20.902  10.605 -0.0805  0.3677 -0.2390
 3170DOPS   D2B37200  33.713  20.599  10.960 -0.0756  0.0943  0.3086
 3170DOPS   C3B37201  33.870  20.493  11.407 -0.0078 -0.0764 -0.1388
 3170DOPS   C4B37202  33.741  20.588  11.765  0.0895 -0.0503  0.1456
 3171DOPE   NH337203  21.597  22.845   8.567  0.0922 -0.1644  0.0197
 3171DOPE   PO437204  21.719  23.156   8.617 -0.1327 -0.3401 -0.0776
 3171DOPE   GL137205  21.622  23.078   9.012 -0.2593 -0.1328  0.0199
 3171DOPE   GL237206  21.548  23.277   9.110  0.1430 -0.1439  0.0255
 3171DOPE   C1A37207  21.378  23.040   9.453  0.0033  0.2952 -0.0907
 3171DOPE   D2A37208  21.184  23.130   9.865  0.1271 -0.1877 -0.1917
 3171DOPE   C3A37209  20.742  23.055  10.058 -0.1403 -0.2559 -0.3610
 3171DOPE   C4A37210  20.546  22.875  10.473 -0.2675 -0.1171  0.0054
 3171DOPE   C1B37211  21.736  23.385   9.505  0.1847  0.0581 -0.0978
 3171DOPE   D2B37212  21.950  23.380   9.925 -0.1490  0.0642  0.3457
 3171DOPE   C3B37213  22.068  22.937  10.031 -0.0613 -0.1824  0.3101
 3171DOPE   C4B37214  21.940  22.530  10.121  0.2466 -0.2549 -0.3601
 3172DOPE   NH337215  28.567  18.732   9.785  0.2537  0.3592  0.0734
 3172DOPE   PO437216  28.270  18.818   9.878 -0.0044  0.0288  0.0784
 3172DOPE   GL137217  28.344  18.624  10.230 -0.0614  0.0996 -0.2573
 3172DOPE   GL237218  28.023  18.501  10.176 -0.1362 -0.1704 -0.0101
 3172DOPE   C1A37219  28.542  18.619  10.663 -0.0622  0.0740  0.0102
 3172DOPE   D2A37220  28.832  18.667  11.035 -0.1958 -0.0042  0.0199
 3172DOPE   C3A37221  28.613  18.904  11.360 -0.2411  0.0094 -0.1663
 3172DOPE   C4A37222  28.858  19.098  11.754 -0.1411  0.0099 -0.3131
 3172DOPE   C1B37223  28.071  18.420  10.644 -0.3642 -0.1796  0.2437
 3172DOPE   D2B37224  27.870  18.386  11.020 -0.2138 -0.3702 -0.2694
 3172DOPE   C3B37225  27.766  18.100  11.338 -0.0927  0.1449 -0.0173
 3172DOPE   C4B37226  27.718  17.715  11.573 -0.0364  0.0643 -0.0295
 3173POSM   NC337227  34.122  13.780  10.648  0.2939 -0.2601  0.2571
 3173POSM   PO437228  34.315  14.134  10.449  0.1800  0.1792 -0.1538
 3173POSM   AM137229  34.181  14.244  10.725  0.1692  0.2733  0.0612
 3173POSM   AM237230  34.217  14.201  10.997 -0.2193  0.1580 -0.1885
 3173POSM   T1A37231  33.733  14.448  10.945 -0.0024  0.1807 -0.0734
 3173POSM   C2A37232  33.419  14.653  11.186 -0.2165 -0.1834 -0.1577
 3173POSM   C3A37233  32.947  14.811  11.323  0.0607  0.2137 -0.0623
 3173POSM   C1B37234  34.179  13.911  11.178 -0.2821 -0.0398 -0.2823
 3173POSM   D2B37235  34.421  13.604  11.421 -0.0800  0.0659 -0.0420
 3173POSM   C3B37236  34.753  13.824  11.695 -0.0926 -0.1178 -0.0015
 3173POSM   C4B37237  35.018  14.106  11.915 -0.0268 -0.0981 -0.0679
 3174DOPC   NC337238  29.929  15.748   9.603  0.0397  0.0462  0.0025
 3174DOPC   PO437239  29.934  15.851   9.980 -0.0288  0.4589  0.4312
 3174DOPC   GL137240  30.048  15.927  10.311 -0.1413 -0.0479 -0.2163
 3174DOPC   GL237241  30.170  16.197  10.320  0.2386  0.0912 -0.1075
 3174DOPC   C1A37242  29.820  15.881  10.720  0.0389  0.1743  0.0949
 3174DOPC   D2A37243  29.802  15.768  11.177  0.1474 -0.0893  0.0752
 3174DOPC   C3A37244  29.702  15.554  11.596 -0.0932 -0.0224  0.1982
 3174DOPC   C4A37245  29.494  15.326  11.914 -0.2879 -0.1823  0.1896
 3174DOPC   C1B37246  30.339  16.011  10.741 -0.1065  0.1245  0.0515
 3174DOPC   D2B37247  30.250  16.105  11.196 -0.0731  0.0575 -0.0488
 3174DOPC   C3B37248  30.026  15.937  11.637 -0.2232  0.0565 -0.1197
 3174DOPC   C4B37249  29.839  16.208  11.909  0.0649  0.1383 -0.4759
 3175DOPC   NC337250  27.702  19.458   9.645  0.0441 -0.2345 -0.0112
 3175DOPC   PO437251  27.429  19.220   9.507  0.0106  0.0501  0.4018
 3175DOPC   GL137252  27.219  19.213   9.850  0.0218 -0.3521 -0.0500
 3175DOPC   GL237253  26.928  19.219   9.773  0.4250 -0.0546  0.3946
 3175DOPC   C1A37254  27.040  19.534  10.186  0.2457  0.0005 -0.2201
 3175DOPC   D2A37255  26.705  19.746  10.456  0.4463 -0.1078  0.1259
 3175DOPC   C3A37256  26.826  19.739  10.905 -0.3632 -0.2275  0.1072
 3175DOPC   C4A37257  27.001  19.896  11.249 -0.2759  0.0112 -0.1433
 3175DOPC   C1B37258  26.672  19.089  10.107  0.0186 -0.0759  0.0072
 3175DOPC   D2B37259  26.510  19.225  10.526 -0.0388  0.4158  0.3157
 3175DOPC   C3B37260  26.783  19.103  10.872 -0.0072  0.0720 -0.2248
 3175DOPC   C4B37261  26.856  19.196  11.322  0.0850 -0.2810 -0.1738
 3176DOPE   NH337262  34.085  22.646  10.155 -0.1203  0.3641 -0.1321
 3176DOPE   PO437263  34.394  22.727  10.180  0.2260  0.3301  0.0455
 3176DOPE   GL137264  34.393  22.589  10.513 -0.4375  0.0382  0.0882
 3176DOPE   GL237265  34.366  22.342  10.594 -0.0219  0.1241  0.0624
 3176DOPE   C1A37266  34.001  22.692  10.754 -0.1669  0.3206  0.0495
 3176DOPE   D2A37267  33.817  22.867  11.126 -0.2307 -0.1252  0.0403
 3176DOPE   C3A37268  34.135  22.761  11.445 -0.2596 -0.0563  0.0151
 3176DOPE   C4A37269  33.995  22.485  11.816  0.0145 -0.1439  0.1691
 3176DOPE   C1B37270  34.453  22.403  11.071  0.2377 -0.0954 -0.0877
 3176DOPE   D2B37271  34.798  22.277  11.386  0.1364  0.0056 -0.1103
 3176DOPE   C3B37272  34.981  22.488  11.731  0.0536 -0.0424 -0.1610
 3176DOPE   C4B37273  35.135  22.841  11.879 -0.1297  0.1378  0.1195
 3177POSM   NC337274  33.524  23.904   9.472  0.1068  0.1740  0.3328
 3177POSM   PO437275  33.409  23.958   9.822 -0.2333  0.0981  0.1528
 3177POSM   AM137276  33.336  23.911  10.154 -0.0752 -0.3376 -0.0456
 3177POSM   AM237277  33.181  23.761  10.339 -0.1337  0.0322 -0.1145
 3177POSM   T1A37278  33.647  23.968  10.590  0.0437  0.4231  0.0226
 3177POSM   C2A37279  33.949  23.858  10.879 -0.1137  0.2402 -0.0012
 3177POSM   C3A37280  34.339  23.657  11.040 -0.2327 -0.4485 -0.5137
 3177POSM   C1B37281  33.125  23.910  10.585  0.0304 -0.0706 -0.0530
 3177POSM   D2B37282  32.991  24.207  10.965 -0.1772 -0.0697  0.0707
 3177POSM   C3B37283  32.780  24.242  11.392  0.2739  0.1287 -0.0892
 3177POSM   C4B37284  32.635  24.331  11.834 -0.1344 -0.3043 -0.2036
 3178DOPE   NH337285  29.261  18.859   9.865 -0.0924 -0.2346  0.1811
 3178DOPE   PO437286  29.036  18.680   9.809  0.3210  0.1511 -0.3010
 3178DOPE   GL137287  29.072  18.606  10.185  0.0022  0.4968  0.1888
 3178DOPE   GL237288  28.879  18.412  10.284  0.6215 -0.1135 -0.1066
 3178DOPE   C1A37289  29.436  18.605  10.485  0.0637  0.3066 -0.0911
 3178DOPE   D2A37290  29.908  18.699  10.555 -0.1957  0.1489 -0.1591
 3178DOPE   C3A37291  29.952  18.761  10.983  0.0722  0.0726  0.2191
 3178DOPE   C4A37292  30.152  18.723  11.394 -0.0612 -0.0417  0.0854
 3178DOPE   C1B37293  29.051  18.343  10.693 -0.3015 -0.0717  0.0931
 3178DOPE   D2B37294  29.094  17.978  10.935 -0.0840  0.3022 -0.0673
 3178DOPE   C3B37295  29.463  18.004  11.229  0.2704 -0.2384 -0.2689
 3178DOPE   C4B37296  29.831  18.321  11.361 -0.2365 -0.1211  0.1880
 3179DOPC   NC337297  28.929  17.442  10.196  0.0320  0.1797 -0.1234
 3179DOPC   PO437298  29.204  17.218  10.100 -0.3954 -0.2149  0.1737
 3179DOPC   GL137299  28.940  16.978  10.313  0.3888  0.0982 -0.0213
 3179DOPC   GL237300  28.790  17.108  10.510  0.0942  0.0903  0.2073
 3179DOPC   C1A37301  28.983  16.679  10.647  0.1555 -0.0270 -0.4445
 3179DOPC   D2A37302  28.959  16.290  10.972  0.0355  0.2216  0.2956
 3179DOPC   C3A37303  28.824  16.215  11.415 -0.1554 -0.0911 -0.1249
 3179DOPC   C4A37304  28.885  15.898  11.786  0.0237  0.2453  0.1416
 3179DOPC   C1B37305  28.805  17.001  10.981  0.1211 -0.2148 -0.1187
 3179DOPC   D2B37306  28.761  16.959  11.432 -0.3063  0.3599  0.2861
 3179DOPC   C3B37307  29.226  16.812  11.638  0.0971  0.1573  0.0037
 3179DOPC   C4B37308  29.654  16.638  11.798 -0.2534  0.5639  0.0415
 3180DOPS   CNO37309  23.508  12.180   9.010 -0.0378 -0.0872  0.0438
 3180DOPS   PO437310  23.386  12.241   9.377  0.0688 -0.1018 -0.0249
 3180DOPS   GL137311  23.131  12.422   9.705 -0.1774 -0.0390  0.0611
 3180DOPS   GL237312  22.927  12.195   9.756 -0.2700  0.1702 -0.1316
 3180DOPS   C1A37313  23.068  12.534  10.208  0.1204 -0.0647 -0.1013
 3180DOPS   D2A37314  23.259  12.832  10.503  0.1710  0.0018  0.2443
 3180DOPS   C3A37315  22.899  13.112  10.544  0.0585  0.1024 -0.1891
 3180DOPS   C4A37316  22.541  13.365  10.629  0.0822 -0.0250 -0.1378
 3180DOPS   C1B37317  23.066  11.825  10.040 -0.1116  0.0818 -0.0892
 3180DOPS   D2B37318  23.330  11.540  10.260  0.0677  0.0602 -0.2245
 3180DOPS   C3B37319  23.281  11.531  10.714 -0.3474 -0.1368  0.0970
 3180DOPS   C4B37320  23.086  11.370  11.165 -0.2113 -0.2403 -0.1738
 3181DOPE   NH337321  26.720  21.483   9.078 -0.1746 -0.1214 -0.0100
 3181DOPE   PO437322  26.800  21.727   9.251 -0.2381 -0.0057  0.2015
 3181DOPE   GL137323  26.892  21.882   9.614  0.5915  0.1577 -0.1053
 3181DOPE   GL237324  26.684  21.768   9.767  0.1282  0.0096  0.0549
 3181DOPE   C1A37325  26.754  22.276   9.883 -0.3263  0.0751  0.1965
 3181DOPE   D2A37326  26.587  22.365  10.260  0.0076 -0.2740 -0.0114
 3181DOPE   C3A37327  26.350  22.393  10.655 -0.0039 -0.2460  0.2000
 3181DOPE   C4A37328  25.951  22.440  10.841 -0.0792  0.0546  0.1639
 3181DOPE   C1B37329  26.741  21.539  10.150 -0.0857  0.1656 -0.0413
 3181DOPE   D2B37330  26.483  21.274  10.476  0.2977  0.0678 -0.2460
 3181DOPE   C3B37331  26.080  21.377  10.710 -0.3095 -0.1477 -0.2367
 3181DOPE   C4B37332  25.979  21.469  11.170 -0.1364 -0.0529  0.0721
 3182DOPE   NH337333  22.537  14.320   9.221  0.3177  0.1201  0.0024
 3182DOPE   PO437334  22.559  14.486   8.972 -0.1741 -0.0085 -0.2002
 3182DOPE   GL137335  22.399  14.772   9.196 -0.0359  0.1722 -0.2436
 3182DOPE   GL237336  22.155  14.774   9.362  0.2079  0.3831 -0.0399
 3182DOPE   C1A37337  22.558  14.712   9.662 -0.0204  0.4139  0.0500
 3182DOPE   D2A37338  22.693  14.486  10.052 -0.0094 -0.1296 -0.2741
 3182DOPE   C3A37339  22.378  14.769  10.302 -0.2014  0.3242 -0.0485
 3182DOPE   C4A37340  21.958  14.766  10.530 -0.0813  0.1474  0.3539
 3182DOPE   C1B37341  22.077  14.711   9.777  0.1631  0.4470  0.2425
 3182DOPE   D2B37342  21.771  14.445  10.027 -0.0794  0.0002  0.1583
 3182DOPE   C3B37343  21.830  14.136  10.378 -0.0524  0.2645  0.0196
 3182DOPE   C4B37344  21.838  13.878  10.801 -0.0182  0.1055 -0.1126
 3183DOPS   CNO37345   0.287  25.899  10.527 -0.3726  0.0250  0.1201
 3183DOPS   PO437346   0.205  26.241  10.583 -0.0575  0.0967  0.2164
 3183DOPS   GL137347   0.225  26.362  10.957  0.2713 -0.0749  0.0867
 3183DOPS   GL237348   0.435  26.533  10.964 -0.1140 -0.3102  0.1810
 3183DOPS   C1A37349   0.136  26.185  11.353 -0.0704  0.0889 -0.3602
 3183DOPS   D2A37350   0.075  26.016  11.788  0.1711 -0.0857  0.2208
 3183DOPS   C3A37351  -0.241  26.267  12.051  0.2302  0.0966  0.1967
 3183DOPS   C4A37352  -0.563  26.543  12.232 -0.5739 -0.0989 -0.1705
 3183DOPS   C1B37353   0.481  26.516  11.431 -0.1262  0.0911  0.4082
 3183DOPS   D2B37354   0.455  26.292  11.857 -0.0983  0.0945 -0.2670
 3183DOPS   C3B37355   0.209  26.486  12.205  0.2521  0.0274  0.0750
 3183DOPS   C4B37356  -0.152  26.703  12.372 -0.3122  0.2126  0.2029
 3184DOPE   NH337357   0.139  15.625  10.013 -0.3258  0.1192 -0.0547
 3184DOPE   PO437358  -0.137  15.489   9.985  0.0658 -0.2159 -0.0047
 3184DOPE   GL137359  -0.166  15.452  10.412  0.3521 -0.0522  0.2637
 3184DOPE   GL237360  -0.088  15.726  10.456 -0.1679 -0.1401 -0.2329
 3184DOPE   C1A37361  -0.225  15.189  10.784 -0.3321 -0.2420 -0.2562
 3184DOPE   D2A37362  -0.067  15.067  11.257 -0.0373 -0.3146  0.0937
 3184DOPE   C3A37363  -0.363  14.943  11.627 -0.2382 -0.0517  0.1772
 3184DOPE   C4A37364  -0.532  14.592  11.889  0.0783 -0.0857  0.2777
 3184DOPE   C1B37365  -0.392  15.703  10.711 -0.0479  0.0652 -0.2671
 3184DOPE   D2B37366  -0.675  15.802  11.058 -0.0432  0.1528 -0.0600
 3184DOPE   C3B37367  -0.506  15.911  11.483 -0.1253 -0.0942  0.3578
 3184DOPE   C4B37368  -0.360  16.317  11.687  0.1631  0.4336  0.1716
 3185DOPS   CNO37369  27.896  12.316   9.363  0.1072 -0.1606  0.3445
 3185DOPS   PO437370  27.535  12.311   9.511 -0.3785 -0.1747 -0.0726
 3185DOPS   GL137371  27.458  12.315   9.904 -0.0441 -0.3924 -0.4590
 3185DOPS   GL237372  27.263  12.440  10.077  0.1282 -0.2928  0.2814
 3185DOPS   C1A37373  27.553  12.138  10.311  0.0887 -0.2798  0.0878
 3185DOPS   D2A37374  27.739  11.990  10.660 -0.3400  0.1681  0.0202
 3185DOPS   C3A37375  27.436  12.013  11.012 -0.0907  0.0326 -0.0278
 3185DOPS   C4A37376  27.363  12.230  11.461 -0.1001 -0.2609 -0.2245
 3185DOPS   C1B37377  27.605  12.672  10.335 -0.2490  0.0410  0.2689
 3185DOPS   D2B37378  27.594  12.504  10.766 -0.0947 -0.2428  0.3185
 3185DOPS   C3B37379  27.156  12.338  10.811 -0.1328 -0.0426 -0.0621
 3185DOPS   C4B37380  26.878  12.202  11.149  0.2106  0.0508  0.1088
 3186DOPS   CNO37381  33.973  15.176   9.905 -0.1735 -0.4143 -0.0692
 3186DOPS   PO437382  33.639  15.322   9.853  0.0180 -0.1106  0.2250
 3186DOPS   GL137383  33.398  15.425  10.171  0.0409 -0.0892 -0.1427
 3186DOPS   GL237384  33.261  15.654  10.289 -0.0976  0.2542  0.2108
 3186DOPS   C1A37385  33.117  15.204  10.478  0.0895 -0.1047 -0.0871
 3186DOPS   D2A37386  32.952  14.883  10.756  0.0271  0.0303 -0.0315
 3186DOPS   C3A37387  32.598  15.081  11.021 -0.1348  0.0413 -0.2095
 3186DOPS   C4A37388  32.306  14.940  11.304 -0.1332 -0.0417  0.2707
 3186DOPS   C1B37389  33.594  15.688  10.597  0.1323 -0.1758  0.1553
 3186DOPS   D2B37390  33.751  15.285  10.854 -0.0550  0.1397 -0.2779
 3186DOPS   C3B37391  34.101  15.427  11.181 -0.2053 -0.0280  0.3346
 3186DOPS   C4B37392  34.284  15.483  11.605 -0.1358  0.1618  0.2017
 3187DOPC   NC337393  25.756  14.461  10.074  0.1334 -0.2493  0.0722
 3187DOPC   PO437394  26.118  14.342   9.873  0.4087 -0.0169 -0.2501
 3187DOPC   GL137395  26.238  14.116  10.257  0.1147 -0.1279  0.3339
 3187DOPC   GL237396  26.061  13.937  10.346 -0.3713  0.1326  0.1112
 3187DOPC   C1A37397  26.365  14.246  10.703 -0.0315  0.1854 -0.3848
 3187DOPC   D2A37398  26.123  14.643  10.932  0.0402 -0.1585  0.2591
 3187DOPC   C3A37399  26.390  15.045  11.107  0.3020  0.0883 -0.2644
 3187DOPC   C4A37400  26.777  15.083  11.262 -0.0628 -0.0909 -0.0080
 3187DOPC   C1B37401  26.149  13.811  10.787  0.1792  0.0193  0.0418
 3187DOPC   D2B37402  26.235  13.397  10.960  0.1320  0.0497 -0.0153
 3187DOPC   C3B37403  26.492  13.326  11.324  0.0902  0.0787  0.0460
 3187DOPC   C4B37404  26.868  13.085  11.545  0.0635 -0.0475  0.1698
 3188DOPC   NC337405   1.692  19.781  10.086 -0.1205 -0.1968 -0.2459
 3188DOPC   PO437406   1.348  19.617   9.963 -0.0226  0.0531  0.1165
 3188DOPC   GL137407   1.036  19.693  10.287 -0.3689  0.0245  0.0808
 3188DOPC   GL237408   0.989  19.413  10.415  0.2569 -0.3738  0.2236
 3188DOPC   C1A37409   0.887  19.770  10.742 -0.1725 -0.0142  0.2936
 3188DOPC   D2A37410   0.866  19.887  11.195 -0.0727 -0.0521  0.3554
 3188DOPC   C3A37411   0.821  19.701  11.597 -0.0696 -0.0451 -0.0351
 3188DOPC   C4A37412   0.919  19.252  11.800 -0.0742  0.1928  0.2299
 3188DOPC   C1B37413   0.844  19.206  10.786 -0.2200  0.2847  0.6290
 3188DOPC   D2B37414   0.480  18.936  10.959  0.0233  0.0246 -0.0436
 3188DOPC   C3B37415   0.321  18.577  10.677  0.3292  0.2229 -0.1974
 3188DOPC   C4B37416  -0.007  18.212  10.590  0.0476  0.1410 -0.0750
 3189DOPE   NH337417  28.042  15.059   9.647  0.2883 -0.1684 -0.0191
 3189DOPE   PO437418  28.068  15.369   9.694  0.0790 -0.0746  0.1207
 3189DOPE   GL137419  28.198  15.297  10.107 -0.1282  0.2323  0.2635
 3189DOPE   GL237420  28.022  15.456  10.250  0.0025 -0.1810  0.0277
 3189DOPE   C1A37421  28.502  15.548  10.371 -0.0681 -0.1193  0.0489
 3189DOPE   D2A37422  28.538  15.865  10.728  0.0479 -0.1534  0.0965
 3189DOPE   C3A37423  28.865  15.830  11.062  0.2547 -0.4316 -0.1420
 3189DOPE   C4A37424  29.251  15.929  11.277  0.0776  0.0216 -0.0020
 3189DOPE   C1B37425  27.620  15.679  10.426 -0.0361  0.0733 -0.1278
 3189DOPE   D2B37426  27.562  16.048  10.685 -0.2415 -0.0266  0.0946
 3189DOPE   C3B37427  27.226  15.993  11.017  0.2206 -0.1710 -0.3367
 3189DOPE   C4B37428  26.911  16.077  11.434  0.1306  0.0141 -0.0505
 3190DOPC   NC337429  33.827  24.340  10.147  0.1141 -0.0105 -0.1166
 3190DOPC   PO437430  34.058  24.640  10.171  0.1181 -0.2986 -0.2336
 3190DOPC   GL137431  34.119  24.439  10.536 -0.0004 -0.1701  0.3445
 3190DOPC   GL237432  34.272  24.394  10.781 -0.3439  0.2322  0.2534
 3190DOPC   C1A37433  33.800  24.350  10.875 -0.1217  0.0386 -0.0472
 3190DOPC   D2A37434  33.445  24.114  10.981  0.1283  0.2301  0.3523
 3190DOPC   C3A37435  33.212  24.051  11.429  0.0391 -0.0355 -0.0214
 3190DOPC   C4A37436  33.112  24.252  11.827  0.0995  0.1490  0.0735
 3190DOPC   C1B37437  34.165  24.188  11.187 -0.3449 -0.2188  0.1809
 3190DOPC   D2B37438  33.737  24.111  11.335  0.1234 -0.1301 -0.3443
 3190DOPC   C3B37439  33.624  23.794  11.679 -0.2462  0.0435 -0.2625
 3190DOPC   C4B37440  33.761  23.377  11.778 -0.6498  0.2000 -0.0507
 3191POSM   NC337441  27.577  15.181  10.132 -0.0784  0.1100  0.0664
 3191POSM   PO437442  27.398  15.126   9.743 -0.5076  0.1035 -0.0359
 3191POSM   AM137443  27.154  15.018   9.962 -0.0482  0.2129  0.1006
 3191POSM   AM237444  27.091  14.911  10.241  0.2208 -0.1857 -0.1405
 3191POSM   T1A37445  26.720  15.198  10.195 -0.1308 -0.1441 -0.2922
 3191POSM   C2A37446  26.593  15.496  10.518  0.0356  0.2979  0.2275
 3191POSM   C3A37447  26.357  15.659  10.855 -0.2794 -0.0994 -0.1426
 3191POSM   C1B37448  27.213  15.004  10.500 -0.0492  0.0130  0.0892
 3191POSM   D2B37449  27.246  15.013  10.959  0.0273 -0.1597 -0.0007
 3191POSM   C3B37450  27.272  15.283  11.327 -0.1894  0.4343 -0.2006
 3191POSM   C4B37451  27.284  15.709  11.474  0.2550 -0.2144  0.0748
 3192DOPC   NC337452  27.857  19.844   9.344  0.1028  0.0943  0.1087
 3192DOPC   PO437453  28.098  19.781   9.631  0.3312 -0.1609 -0.0875
 3192DOPC   GL137454  27.839  19.753   9.978  0.1976 -0.1962 -0.0619
 3192DOPC   GL237455  27.570  19.859  10.017 -0.2115  0.1207  0.0362
 3192DOPC   C1A37456  27.734  19.541  10.413  0.1353  0.0645 -0.1323
 3192DOPC   D2A37457  27.793  19.597  10.847  0.0488 -0.0068  0.1349
 3192DOPC   C3A37458  27.819  20.072  10.830  0.1544 -0.0904  0.0879
 3192DOPC   C4A37459  28.076  20.477  10.818 -0.0147 -0.3065 -0.1248
 3192DOPC   C1B37460  27.423  19.995  10.433 -0.1164 -0.0855  0.1478
 3192DOPC   D2B37461  27.240  20.130  10.815 -0.2164 -0.2264 -0.1555
 3192DOPC   C3B37462  27.472  19.934  11.177  0.0420 -0.2068 -0.0652
 3192DOPC   C4B37463  27.423  19.488  11.378 -0.0975 -0.0177  0.0080
 3193DOPC   NC337464  29.610  21.139   9.201  0.1188  0.0581 -0.2364
 3193DOPC   PO437465  29.835  21.325   9.416  0.2404  0.0362  0.0331
 3193DOPC   GL137466  29.735  21.471   9.722 -0.0756  0.0561  0.0633
 3193DOPC   GL237467  29.555  21.728   9.703 -0.0686  0.1306 -0.0138
 3193DOPC   C1A37468  29.451  21.306  10.034  0.0062 -0.0366  0.0615
 3193DOPC   D2A37469  29.072  21.073  10.285  0.3113 -0.0883 -0.0575
 3193DOPC   C3A37470  28.932  21.005  10.758 -0.0896  0.2380 -0.0509
 3193DOPC   C4A37471  28.724  20.877  11.173 -0.0567 -0.0247 -0.0112
 3193DOPC   C1B37472  29.706  21.929  10.117  0.1617 -0.0028  0.0159
 3193DOPC   D2B37473  29.515  22.155  10.490 -0.1472  0.0586  0.0896
 3193DOPC   C3B37474  29.070  22.226  10.485 -0.1236 -0.1473  0.0186
 3193DOPC   C4B37475  28.607  22.317  10.547 -0.0229 -0.2211  0.0042
 3194DOPE   NH337476  26.109  21.092   8.827  0.1151  0.1012 -0.2554
 3194DOPE   PO437477  26.459  21.109   8.875  0.0158  0.2644 -0.0570
 3194DOPE   GL137478  26.387  21.123   9.246 -0.0053 -0.0152  0.0860
 3194DOPE   GL237479  26.432  21.300   9.424 -0.0110  0.1525 -0.3108
 3194DOPE   C1A37480  26.035  20.936   9.436 -0.0084 -0.3234  0.2144
 3194DOPE   D2A37481  25.578  21.044   9.410 -0.0286 -0.0004  0.0004
 3194DOPE   C3A37482  25.240  21.066   9.817 -0.1205 -0.2582  0.1353
 3194DOPE   C4A37483  24.768  21.030   9.803  0.0483  0.0784  0.1462
 3194DOPE   C1B37484  26.519  20.886   9.620 -0.0402 -0.0598 -0.2293
 3194DOPE   D2B37485  26.555  20.431   9.642 -0.0312 -0.0802 -0.2100
 3194DOPE   C3B37486  26.377  20.315   9.993  0.0457  0.1011  0.2307
 3194DOPE   C4B37487  26.411  20.676  10.237  0.0374  0.0609  0.1093
 3195DOPE   NH337488  25.493  23.555   8.687  0.0260 -0.0928  0.0148
 3195DOPE   PO437489  25.668  23.832   8.633  0.1017  0.3960 -0.0926
 3195DOPE   GL137490  25.700  23.917   9.030  0.5491  0.2136 -0.3732
 3195DOPE   GL237491  25.425  23.988   9.072 -0.1812  0.1013  0.2471
 3195DOPE   C1A37492  25.781  23.667   9.411 -0.0103  0.1198 -0.0369
 3195DOPE   D2A37493  25.834  23.527   9.872  0.0360 -0.0897  0.1887
 3195DOPE   C3A37494  26.079  23.215  10.148  0.0511 -0.1457  0.1024
 3195DOPE   C4A37495  26.198  23.007  10.513 -0.1901 -0.3269 -0.1357
 3195DOPE   C1B37496  25.422  24.404   9.388 -0.1734  0.1969  0.1456
 3195DOPE   D2B37497  25.540  24.858   9.433  0.0746  0.1801  0.1211
 3195DOPE   C3B37498  25.600  24.872   9.875  0.2337 -0.1509 -0.0151
 3195DOPE   C4B37499  25.794  24.871  10.255  0.2634  0.2812  0.2606
 3196DOPC   NC337500  23.244  18.461   8.255 -0.3068 -0.0019  0.2003
 3196DOPC   PO437501  23.083  18.270   8.549 -0.0441  0.2255 -0.1727
 3196DOPC   GL137502  22.823  18.135   8.857  0.1611 -0.1801  0.1807
 3196DOPC   GL237503  22.908  18.172   9.102  0.2033 -0.1328  0.0088
 3196DOPC   C1A37504  22.469  18.023   9.188 -0.1073 -0.2331  0.2047
 3196DOPC   D2A37505  22.305  17.966   9.548  0.0425 -0.0150  0.3334
 3196DOPC   C3A37506  22.412  17.797   9.976 -0.1896 -0.2529 -0.0267
 3196DOPC   C4A37507  22.183  17.612  10.250  0.0112  0.2207 -0.3918
 3196DOPC   C1B37508  22.804  18.081   9.551 -0.3046  0.1483 -0.1156
 3196DOPC   D2B37509  22.627  18.380   9.835 -0.1014 -0.1045 -0.0355
 3196DOPC   C3B37510  22.380  18.801   9.902 -0.4338  0.0942  0.0766
 3196DOPC   C4B37511  22.279  19.287   9.871 -0.1019 -0.0815  0.3531
 3197DOPE   NH337512  33.025  19.461   9.389  0.1888  0.2666  0.0430
 3197DOPE   PO437513  33.045  19.254   9.634  0.0201 -0.3701 -0.1761
 3197DOPE   GL137514  33.067  19.157  10.047 -0.0901 -0.0191 -0.2519
 3197DOPE   GL237515  32.905  18.925  10.140  0.0599  0.4684 -0.1436
 3197DOPE   C1A37516  33.383  19.130  10.352  0.2346  0.1088  0.1985
 3197DOPE   D2A37517  33.408  19.024  10.770 -0.0518 -0.1799  0.2407
 3197DOPE   C3A37518  33.157  19.115  11.169 -0.0078  0.1003 -0.1199
 3197DOPE   C4A37519  33.104  19.419  11.561 -0.1122 -0.2357  0.3261
 3197DOPE   C1B37520  32.807  18.999  10.595 -0.0057  0.2287 -0.0932
 3197DOPE   D2B37521  32.659  19.062  11.042  0.2788  0.1331 -0.0082
 3197DOPE   C3B37522  32.745  19.487  11.130 -0.0923 -0.2101 -0.1919
 3197DOPE   C4B37523  33.129  19.808  11.157 -0.0799  0.3133  0.1405
 3198DOPS   CNO37524  31.148  23.838   9.928 -0.0704  0.0712  0.3741
 3198DOPS   PO437525  30.778  23.824   9.945 -0.0859 -0.1371 -0.2030
 3198DOPS   GL137526  30.781  23.954  10.275  0.1796  0.3325 -0.0256
 3198DOPS   GL237527  30.485  23.962  10.349  0.0987  0.0876 -0.1975
 3198DOPS   C1A37528  31.047  23.945  10.656 -0.0281  0.0644  0.3442
 3198DOPS   D2A37529  31.128  23.982  11.086  0.0931 -0.1170  0.0427
 3198DOPS   C3A37530  31.379  24.369  11.074 -0.1195  0.5552  0.1358
 3198DOPS   C4A37531  31.793  24.484  10.838  0.2251  0.0581  0.0396
 3198DOPS   C1B37532  30.099  24.189  10.529 -0.0982 -0.3292  0.0894
 3198DOPS   D2B37533  30.019  24.195  10.951  0.0748 -0.0014  0.1323
 3198DOPS   C3B37534  29.963  24.617  11.042  0.0506  0.0436 -0.0389
 3198DOPS   C4B37535  30.082  25.045  10.995 -0.1219 -0.4513  0.1590
 3199DOPC   NC337536  29.878  23.366   9.837  0.2248 -0.0245 -0.1598
 3199DOPC   PO437537  29.833  23.049   9.702  0.0026 -0.0243 -0.0210
 3199DOPC   GL137538  29.988  22.874  10.001  0.2579 -0.1573 -0.1508
 3199DOPC   GL237539  29.775  22.639  10.083 -0.3873 -0.1160 -0.0939
 3199DOPC   C1A37540  29.963  23.038  10.427  0.0855 -0.1772 -0.0742
 3199DOPC   D2A37541  30.253  23.086  10.779 -0.2326 -0.1017  0.1092
 3199DOPC   C3A37542  30.158  23.140  11.242 -0.1332  0.3759 -0.0898
 3199DOPC   C4A37543  30.180  23.106  11.669 -0.1786 -0.0054 -0.4112
 3199DOPC   C1B37544  29.707  22.640  10.488 -0.0848  0.0796 -0.1259
 3199DOPC   D2B37545  29.775  22.369  10.859  0.4014 -0.1165  0.1014
 3199DOPC   C3B37546  30.087  22.612  11.113  0.0357  0.0031 -0.0966
 3199DOPC   C4B37547  30.424  22.785  11.355 -0.0565 -0.1742  0.2955
 3200POSM   NC337548  30.858  20.257   9.424  0.0539  0.0363  0.1788
 3200POSM   PO437549  31.159  20.089   9.631  0.2030 -0.0327  0.1721
 3200POSM   AM137550  31.175  20.116   9.981  0.2349  0.0395  0.1162
 3200POSM   AM237551  31.066  20.268  10.170  0.0906  0.0390 -0.2063
 3200POSM   T1A37552  31.358  19.995  10.451 -0.4184 -0.1567 -0.1862
 3200POSM   C2A37553  31.668  19.830  10.737 -0.1686  0.1181 -0.0790
 3200POSM   C3A37554  32.012  19.906  10.945  0.3238  0.0286 -0.3697
 3200POSM   C1B37555  31.031  20.434  10.518  0.0212  0.0217 -0.2491
 3200POSM   D2B37556  31.078  20.595  10.970 -0.1676  0.0836  0.1098
 3200POSM   C3B37557  30.925  20.276  11.268 -0.4187  0.2021  0.1684
 3200POSM   C4B37558  30.466  20.126  11.324 -0.2088 -0.0520  0.1618
 3201DOPC   NC337559  24.825  19.259   9.246 -0.0566  0.0243 -0.0544
 3201DOPC   PO437560  24.811  19.637   9.100 -0.1792 -0.1188 -0.1062
 3201DOPC   GL137561  24.687  19.734   9.501 -0.1549  0.1015  0.6855
 3201DOPC   GL237562  24.451  19.607   9.544 -0.2423 -0.2183  0.0911
 3201DOPC   C1A37563  24.637  19.794   9.949 -0.0468  0.2853  0.1089
 3201DOPC   D2A37564  24.358  19.847  10.357 -0.0406 -0.1239  0.0585
 3201DOPC   C3A37565  24.520  19.715  10.732  0.0076  0.0008 -0.0679
 3201DOPC   C4A37566  24.672  19.807  11.229 -0.0916  0.2235 -0.4220
 3201DOPC   C1B37567  24.653  19.227   9.732  0.0005 -0.0141 -0.1604
 3201DOPC   D2B37568  24.608  19.067  10.170  0.4331  0.0517  0.2573
 3201DOPC   C3B37569  24.746  19.486  10.322 -0.1707  0.0174  0.0725
 3201DOPC   C4B37570  25.000  19.630  10.609 -0.0296  0.2554  0.1673
 3202POSM   NC337571  29.728  20.491   9.600  0.5039 -0.0715 -0.1276
 3202POSM   PO437572  29.883  20.785   9.464  0.2026  0.2173  0.1752
 3202POSM   AM137573  29.814  20.897   9.797  0.1219  0.4312 -0.1379
 3202POSM   AM237574  29.956  21.100   9.947  0.1650 -0.3577 -0.0272
 3202POSM   T1A37575  29.569  20.856  10.188 -0.0119  0.0344  0.2601
 3202POSM   C2A37576  29.474  21.082  10.528 -0.2172  0.1772  0.2960
 3202POSM   C3A37577  29.622  21.505  10.602 -0.1366 -0.1474 -0.0392
 3202POSM   C1B37578  29.871  21.194  10.259 -0.2751  0.0716  0.0115
 3202POSM   D2B37579  29.966  21.138  10.693  0.1296  0.1932  0.3083
 3202POSM   C3B37580  30.259  20.744  10.837 -0.1863  0.0983 -0.2485
 3202POSM   C4B37581  30.549  20.431  10.844 -0.2766 -0.1055  0.2758
 3203DOPE   NH337582  25.738  18.740   9.222  0.0406 -0.1376 -0.0267
 3203DOPE   PO437583  25.902  18.498   9.392  0.0510  0.1707  0.0632
 3203DOPE   GL137584  25.853  18.457   9.779  0.4960 -0.0309 -0.2658
 3203DOPE   GL237585  26.074  18.707   9.848  0.1115 -0.3532  0.1506
 3203DOPE   C1A37586  25.587  18.640  10.144 -0.0577  0.0072 -0.0228
 3203DOPE   D2A37587  25.479  18.788  10.567 -0.0841 -0.1291  0.0296
 3203DOPE   C3A37588  25.238  18.531  10.888 -0.1541 -0.1335 -0.2005
 3203DOPE   C4A37589  25.065  18.125  10.970 -0.1228  0.2404 -0.0352
 3203DOPE   C1B37590  26.196  18.946  10.198  0.1259 -0.0657  0.0506
 3203DOPE   D2B37591  25.982  19.094  10.531 -0.0370  0.1717 -0.1789
 3203DOPE   C3B37592  25.928  19.147  10.927  0.2137  0.2027 -0.3491
 3203DOPE   C4B37593  25.906  18.955  11.395 -0.2586  0.2943 -0.0799
 3204DOPE   NH337594  32.149  20.250   9.885 -0.0499 -0.0353  0.2378
 3204DOPE   PO437595  32.318  19.979   9.840  0.3348 -0.0763 -0.3637
 3204DOPE   GL137596  32.194  19.771  10.152  0.1867 -0.5106  0.3104
 3204DOPE   GL237597  31.938  19.840  10.338  0.0181  0.0378 -0.3120
 3204DOPE   C1A37598  32.382  19.796  10.573 -0.1100  0.0934  0.1984
 3204DOPE   D2A37599  32.607  19.916  10.987 -0.1208  0.0243 -0.0713
 3204DOPE   C3A37600  32.362  19.868  11.354 -0.4427  0.5186 -0.1379
 3204DOPE   C4A37601  32.402  20.136  11.739 -0.0116  0.3205 -0.1658
 3204DOPE   C1B37602  31.909  19.444  10.572  0.1331  0.0450  0.1245
 3204DOPE   D2B37603  31.620  19.251  10.921 -0.2242 -0.1606 -0.0056
 3204DOPE   C3B37604  31.637  19.174  11.412  0.2537  0.2526  0.2485
 3204DOPE   C4B37605  31.357  19.200  11.774 -0.3817 -0.1333  0.0131
 3205DOPS   CNO37606  30.530  13.800   9.213 -0.1293  0.1600  0.1151
 3205DOPS   PO437607  30.365  13.487   9.376  0.0956  0.1042  0.1143
 3205DOPS   GL137608  30.245  13.413   9.786 -0.1815 -0.2913 -0.0912
 3205DOPS   GL237609  30.550  13.360   9.862  0.3278 -0.1695 -0.1218
 3205DOPS   C1A37610  30.181  13.042  10.060 -0.3070  0.1779 -0.0041
 3205DOPS   D2A37611  29.985  12.632  10.189  0.0805 -0.1752  0.0591
 3205DOPS   C3A37612  30.217  12.406  10.504  0.1589  0.2620  0.1803
 3205DOPS   C4A37613  30.318  11.950  10.670 -0.0197 -0.2073 -0.3682
 3205DOPS   C1B37614  30.469  13.321  10.339  0.2018 -0.2048  0.2848
 3205DOPS   D2B37615  30.394  13.593  10.688  0.0379  0.1364 -0.0001
 3205DOPS   C3B37616  30.042  13.816  10.957  0.1133  0.1479  0.3676
 3205DOPS   C4B37617  29.603  13.816  10.989  0.1616 -0.0755  0.1857
 3206DOPE   NH337618  22.816  12.048   9.319  0.0828 -0.1844 -0.0401
 3206DOPE   PO437619  22.580  12.227   9.135 -0.0216 -0.3224 -0.0476
 3206DOPE   GL137620  22.493  12.537   9.463  0.2610 -0.1884 -0.0590
 3206DOPE   GL237621  22.442  12.395   9.650  0.2870 -0.0407 -0.1534
 3206DOPE   C1A37622  22.785  12.699   9.797 -0.3874  0.2687  0.1116
 3206DOPE   D2A37623  23.040  13.016   9.998  0.2965  0.0645 -0.1160
 3206DOPE   C3A37624  23.400  13.304   9.947 -0.3713 -0.0797 -0.0375
 3206DOPE   C4A37625  23.749  13.489   9.738  0.2677  0.0351 -0.0948
 3206DOPE   C1B37626  22.380  12.111  10.109 -0.0165  0.0610 -0.2309
 3206DOPE   D2B37627  22.172  12.033  10.507  0.0306 -0.1621 -0.0766
 3206DOPE   C3B37628  22.024  11.708  10.819  0.1847 -0.0177 -0.2279
 3206DOPE   C4B37629  22.130  11.408  11.194 -0.3419  0.0000 -0.1129
 3207DOPE   NH337630  31.566  13.583   9.816  0.1097 -0.0382 -0.1269
 3207DOPE   PO437631  31.754  13.685  10.074  0.0822  0.0303  0.0356
 3207DOPE   GL137632  31.568  13.858  10.370 -0.0022 -0.0311 -0.0892
 3207DOPE   GL237633  31.403  13.671  10.455  0.0432 -0.2779 -0.2140
 3207DOPE   C1A37634  31.860  13.955  10.715  0.1811 -0.2595  0.0664
 3207DOPE   D2A37635  31.953  13.944  11.182 -0.3876 -0.1776  0.1019
 3207DOPE   C3A37636  31.518  13.773  11.293 -0.1500 -0.0874 -0.0564
 3207DOPE   C4A37637  31.070  13.866  11.259  0.1452 -0.3175 -0.1393
 3207DOPE   C1B37638  31.340  14.063  10.724  0.0016  0.1970 -0.1792
 3207DOPE   D2B37639  31.567  14.273  11.079  0.2324  0.2164  0.2137
 3207DOPE   C3B37640  31.307  14.504  11.395 -0.0256 -0.2530  0.3031
 3207DOPE   C4B37641  31.153  14.909  11.646  0.0564  0.0520  0.1173
 3208POSM   NC337642   0.197  21.303   9.844  0.1801  0.0976  0.3927
 3208POSM   PO437643  -0.180  21.241   9.871  0.2876  0.2774  0.0609
 3208POSM   AM137644  -0.163  21.296  10.195  0.0387  0.1653  0.1446
 3208POSM   AM237645  -0.256  21.162  10.441 -0.1760  0.0387 -0.0434
 3208POSM   T1A37646   0.103  21.335  10.649  0.0970 -0.1309 -0.2179
 3208POSM   C2A37647   0.162  21.473  11.101 -0.0803 -0.0228 -0.0057
 3208POSM   C3A37648  -0.040  21.463  11.509  0.2499 -0.0360  0.0015
 3208POSM   C1B37649  -0.413  21.181  10.676 -0.0905 -0.2279  0.2540
 3208POSM   D2B37650  -0.519  20.994  11.064 -0.0449 -0.0608  0.0377
 3208POSM   C3B37651  -0.785  21.035  11.379  0.1703 -0.0965  0.0093
 3208POSM   C4B37652  -1.080  21.005  11.723 -0.1942 -0.0093 -0.2176
 3209DOPC   NC337653   0.100  19.510   9.859 -0.0261  0.2799 -0.0347
 3209DOPC   PO437654   0.307  19.231  10.063  0.0670 -0.0390  0.1475
 3209DOPC   GL137655   0.208  19.438  10.382 -0.2611 -0.1186 -0.0597
 3209DOPC   GL237656   0.472  19.578  10.342 -0.2290 -0.0924  0.4173
 3209DOPC   C1A37657   0.318  19.481  10.785 -0.1643 -0.2383  0.1561
 3209DOPC   D2A37658   0.424  19.565  11.204  0.0060  0.1347 -0.2767
 3209DOPC   C3A37659   0.067  19.685  11.549 -0.3091 -0.2744  0.1663
 3209DOPC   C4A37660  -0.181  20.098  11.533  0.1886  0.1090  0.1427
 3209DOPC   C1B37661   0.238  19.905  10.558  0.0052 -0.1872  0.0695
 3209DOPC   D2B37662  -0.151  20.165  10.478  0.0831  0.0199 -0.1313
 3209DOPC   C3B37663  -0.480  19.994  10.732  0.2901  0.0148  0.2626
 3209DOPC   C4B37664  -0.456  20.138  11.152 -0.0291  0.2487  0.0104
 3210DOPC   NC337665  27.894  13.491  10.396  0.0023 -0.3339  0.0163
 3210DOPC   PO437666  27.628  13.621  10.083  0.5001 -0.0380  0.0110
 3210DOPC   GL137667  27.489  13.769  10.493 -0.0890 -0.5049  0.0327
 3210DOPC   GL237668  27.220  13.880  10.410  0.1499  0.0704  0.0028
 3210DOPC   C1A37669  27.618  14.157  10.716  0.0419 -0.2611  0.0489
 3210DOPC   D2A37670  27.922  14.232  11.060  0.1990  0.0669  0.0564
 3210DOPC   C3A37671  27.945  14.477  11.464  0.1603 -0.1024 -0.1232
 3210DOPC   C4A37672  27.913  14.267  11.915 -0.1610 -0.1816  0.0025
 3210DOPC   C1B37673  27.049  14.115  10.741  0.0968  0.0891 -0.0100
 3210DOPC   D2B37674  26.960  14.201  11.176 -0.0283  0.0848 -0.1235
 3210DOPC   C3B37675  26.725  13.985  11.554  0.0948  0.0638 -0.2183
 3210DOPC   C4B37676  26.468  13.652  11.781  0.0231 -0.1355  0.3258
 3211DOPE   NH337677  27.038  12.279   9.658  0.0963 -0.2958  0.0854
 3211DOPE   PO437678  27.014  12.016   9.853 -0.0392 -0.0204  0.3013
 3211DOPE   GL137679  27.068  12.090  10.299  0.1881  0.4546 -0.0631
 3211DOPE   GL237680  26.873  12.261  10.413 -0.1084  0.3902 -0.1194
 3211DOPE   C1A37681  27.178  11.832  10.662  0.0473  0.2094 -0.1754
 3211DOPE   D2A37682  27.100  11.630  11.047 -0.0287  0.1442  0.2251
 3211DOPE   C3A37683  27.101  11.591  11.477 -0.2317 -0.1328 -0.1628
 3211DOPE   C4A37684  26.964  11.584  11.973 -0.0246  0.0878 -0.0815
 3211DOPE   C1B37685  26.679  11.932  10.721 -0.3518 -0.0341  0.0942
 3211DOPE   D2B37686  26.648  11.755  11.136 -0.0746 -0.0753  0.2180
 3211DOPE   C3B37687  26.416  11.953  11.440 -0.1721  0.0946  0.0553
 3211DOPE   C4B37688  26.235  12.169  11.851 -0.1590  0.0908 -0.0470
 3212DOPE   NH337689  32.105  16.411   9.723 -0.3479 -0.2902 -0.1141
 3212DOPE   PO437690  31.927  16.188   9.882 -0.1037 -0.1022 -0.0377
 3212DOPE   GL137691  31.621  16.264  10.236  0.4152 -0.1043  0.2177
 3212DOPE   GL237692  31.843  16.149  10.406 -0.1674  0.2850 -0.2701
 3212DOPE   C1A37693  31.502  16.449  10.646  0.0344 -0.0819  0.1360
 3212DOPE   D2A37694  31.680  16.594  11.080 -0.1492 -0.0869  0.1122
 3212DOPE   C3A37695  32.075  16.496  11.268 -0.4388 -0.0019 -0.0084
 3212DOPE   C4A37696  32.432  16.456  11.590 -0.0831  0.0522 -0.1198
 3212DOPE   C1B37697  31.598  15.953  10.760  0.0647 -0.0685 -0.3229
 3212DOPE   D2B37698  31.300  15.612  10.855 -0.2179  0.0165  0.2699
 3212DOPE   C3B37699  31.160  15.176  10.685 -0.1768 -0.0203 -0.1589
 3212DOPE   C4B37700  31.042  14.759  10.518 -0.4228 -0.0293  0.3313
 3213POSM   NC337701  26.820  14.943   9.674  0.0971  0.3526 -0.1254
 3213POSM   PO437702  26.997  14.594   9.780  0.0580  0.1182 -0.1814
 3213POSM   AM137703  27.005  14.457  10.104 -0.0947  0.3391  0.3508
 3213POSM   AM237704  27.163  14.396  10.287  0.1600 -0.0982 -0.1882
 3213POSM   T1A37705  26.745  14.654  10.491  0.3535  0.1207 -0.1679
 3213POSM   C2A37706  26.754  14.559  10.927  0.1023  0.5036 -0.0473
 3213POSM   C3A37707  26.963  14.661  11.322 -0.2112 -0.2343  0.1231
 3213POSM   C1B37708  27.239  14.551  10.616 -0.1276  0.0197 -0.2948
 3213POSM   D2B37709  27.475  14.542  10.972 -0.2002  0.0023 -0.1713
 3213POSM   C3B37710  27.554  14.830  11.358 -0.0442  0.2921  0.0423
 3213POSM   C4B37711  27.797  14.867  11.719  0.2078 -0.1488 -0.3830
 3214POSM   NC337712  29.499  16.617   9.711  0.1975  0.1067 -0.0778
 3214POSM   PO437713  29.368  16.713  10.063  0.1973 -0.0076  0.0560
 3214POSM   AM137714  29.413  16.905  10.325 -0.2136 -0.2003  0.3540
 3214POSM   AM237715  29.566  16.937  10.545  0.2150 -0.3112  0.0098
 3214POSM   T1A37716  29.190  17.138  10.787  0.0309 -0.0989 -0.1257
 3214POSM   C2A37717  29.196  17.371  11.188  0.1419  0.0027 -0.0147
 3214POSM   C3A37718  29.260  17.600  11.568  0.0973  0.0074 -0.0642
 3214POSM   C1B37719  29.476  16.726  10.761  0.2288  0.0113 -0.0078
 3214POSM   D2B37720  29.274  16.682  11.189  0.0029  0.1147 -0.0581
 3214POSM   C3B37721  29.383  16.358  11.435 -0.0596 -0.0055  0.0344
 3214POSM   C4B37722  29.382  15.990  11.810 -0.0879 -0.0730 -0.1364
 3215POSM   NC337723  26.808  22.251   9.382 -0.1115 -0.4676  0.0946
 3215POSM   PO437724  26.813  22.613   9.336  0.1484  0.1646 -0.0541
 3215POSM   AM137725  26.558  22.685   9.525 -0.0767 -0.1839  0.0101
 3215POSM   AM237726  26.329  22.864   9.527 -0.0903  0.1721  0.1337
 3215POSM   T1A37727  26.238  22.635   9.926  0.0221  0.3474  0.1296
 3215POSM   C2A37728  25.925  22.598  10.230  0.0553  0.2500  0.2471
 3215POSM   C3A37729  25.628  22.706  10.573  0.0927  0.3425 -0.0864
 3215POSM   C1B37730  26.465  23.044   9.797 -0.3551 -0.1531 -0.1582
 3215POSM   D2B37731  26.702  23.184  10.139  0.0685  0.1606 -0.1801
 3215POSM   C3B37732  26.661  23.290  10.556 -0.0220 -0.0652 -0.1133
 3215POSM   C4B37733  26.566  23.619  10.853 -0.0423  0.0025  0.1580
 3216POSM   NC337734  31.375  16.661  10.114 -0.3138 -0.0872  0.2122
 3216POSM   PO437735  31.763  16.675   9.956 -0.0555  0.0897  0.0022
 3216POSM   AM137736  31.848  16.670  10.271  0.0157 -0.0615 -0.0421
 3216POSM   AM237737  31.824  16.822  10.520 -0.2778 -0.0730 -0.0284
 3216POSM   T1A37738  32.075  16.451  10.654 -0.3312  0.2168 -0.1241
 3216POSM   C2A37739  32.486  16.173  10.601 -0.2427  0.2644 -0.1031
 3216POSM   C3A37740  32.701  15.790  10.401  0.0007  0.2875 -0.4721
 3216POSM   C1B37741  32.011  16.994  10.781 -0.2148 -0.2294 -0.1539
 3216POSM   D2B37742  32.121  17.002  11.205 -0.0431 -0.2775  0.1260
 3216POSM   C3B37743  32.512  16.924  11.494 -0.1863 -0.2203 -0.1099
 3216POSM   C4B37744  32.568  16.830  11.945 -0.1064 -0.0494  0.1769
 3217DOPC   NC337745  27.699  18.220   9.416 -0.0144  0.1520  0.1966
 3217DOPC   PO437746  27.768  18.498   9.705  0.2880  0.0552  0.1418
 3217DOPC   GL137747  27.556  18.733   9.868 -0.1811 -0.0532 -0.0745
 3217DOPC   GL237748  27.709  19.017   9.943 -0.0143 -0.1377  0.2123
 3217DOPC   C1A37749  27.270  18.747  10.246 -0.0413 -0.1051 -0.1947
 3217DOPC   D2A37750  27.116  18.785  10.688 -0.0854  0.0702 -0.0200
 3217DOPC   C3A37751  26.703  18.575  10.926 -0.0910  0.1072 -0.0475
 3217DOPC   C4A37752  26.454  18.799  11.271  0.1273  0.0826 -0.0724
 3217DOPC   C1B37753  27.710  18.880  10.400 -0.0118  0.0399  0.1601
 3217DOPC   D2B37754  27.733  19.075  10.860  0.1621  0.3209 -0.0872
 3217DOPC   C3B37755  27.857  19.019  11.348  0.1671 -0.3240 -0.1538
 3217DOPC   C4B37756  28.139  18.807  11.638 -0.0131 -0.1137 -0.1683
 3218DOPC   NC337757  29.714  12.778   9.833  0.2643  0.0317  0.2185
 3218DOPC   PO437758  29.510  12.924   9.548 -0.0036 -0.1277  0.0144
 3218DOPC   GL137759  29.569  13.212   9.905  0.4914  0.2182 -0.1582
 3218DOPC   GL237760  29.535  13.483  10.050 -0.0071  0.0537  0.0351
 3218DOPC   C1A37761  29.719  13.012  10.299  0.0560  0.1174 -0.1254
 3218DOPC   D2A37762  29.836  12.890  10.716 -0.2239 -0.0314 -0.1448
 3218DOPC   C3A37763  29.731  12.704  11.091 -0.0342 -0.2143  0.3658
 3218DOPC   C4A37764  29.672  12.413  11.446 -0.1078 -0.0849 -0.0292
 3218DOPC   C1B37765  29.431  13.418  10.517  0.1040  0.1440  0.2955
 3218DOPC   D2B37766  29.123  13.290  10.850  0.0746 -0.0037 -0.0074
 3218DOPC   C3B37767  29.318  13.282  11.280  0.0834 -0.1497 -0.0204
 3218DOPC   C4B37768  29.354  13.367  11.724  0.0874 -0.0938 -0.1325
 3219DOPE   NH337769  30.717  19.709   9.696 -0.1363  0.1768  0.4055
 3219DOPE   PO437770  30.893  19.772   9.982 -0.2095  0.1381 -0.0148
 3219DOPE   GL137771  30.950  19.692  10.400 -0.2688  0.0946 -0.0036
 3219DOPE   GL237772  30.752  19.977  10.474 -0.1440 -0.1355 -0.1788
 3219DOPE   C1A37773  30.603  19.415  10.609 -0.0327 -0.0433 -0.0581
 3219DOPE   D2A37774  30.729  19.303  11.042  0.4559  0.0843 -0.0473
 3219DOPE   C3A37775  30.897  18.915  11.153 -0.1906  0.0902  0.4260
 3219DOPE   C4A37776  30.679  18.531  11.177  0.2261  0.1637  0.0460
 3219DOPE   C1B37777  30.701  19.892  10.928 -0.1278 -0.0037 -0.1632
 3219DOPE   D2B37778  30.925  19.711  11.227  0.3996  0.1336  0.2230
 3219DOPE   C3B37779  30.819  19.992  11.648 -0.1838  0.2862  0.0165
 3219DOPE   C4B37780  30.593  20.373  11.740  0.0766 -0.0578 -0.1133
 3220DOPC   NC337781  29.745  19.593   9.462 -0.2282 -0.2543  0.0859
 3220DOPC   PO437782  29.851  19.952   9.568  0.1000 -0.0502  0.1164
 3220DOPC   GL137783  29.838  20.100   9.925 -0.1503 -0.0466  0.0063
 3220DOPC   GL237784  29.568  19.917   9.992  0.2190  0.2882 -0.0422
 3220DOPC   C1A37785  30.106  20.480  10.095  0.0521 -0.0123  0.2698
 3220DOPC   D2A37786  30.199  20.849  10.299  0.3004  0.2218  0.0650
 3220DOPC   C3A37787  30.466  21.169  10.183 -0.0297  0.2125 -0.1146
 3220DOPC   C4A37788  30.969  21.272  10.164  0.2878 -0.0706  0.1613
 3220DOPC   C1B37789  29.229  19.722  10.226  0.0868  0.1521 -0.1031
 3220DOPC   D2B37790  28.852  19.809  10.579 -0.3161  0.0104  0.1499
 3220DOPC   C3B37791  28.908  19.905  11.028 -0.1274  0.3503 -0.2828
 3220DOPC   C4B37792  28.804  20.076  11.510  0.0684 -0.4507  0.1883
 3221DOPC   NC337793  33.340  21.603  10.132  0.2948  0.1036  0.0166
 3221DOPC   PO437794  33.283  21.921   9.939  0.0544  0.1037  0.0429
 3221DOPC   GL137795  33.179  22.024  10.313 -0.1884 -0.0759 -0.1918
 3221DOPC   GL237796  33.467  22.022  10.505  0.0435  0.1181  0.0788
 3221DOPC   C1A37797  32.780  21.848  10.451  0.1708  0.0331 -0.3141
 3221DOPC   D2A37798  32.463  21.707  10.800 -0.2080 -0.0387 -0.0397
 3221DOPC   C3A37799  32.312  21.390  10.974 -0.0067 -0.0169 -0.1132
 3221DOPC   C4A37800  31.967  21.069  10.900 -0.2263  0.0659  0.1865
 3221DOPC   C1B37801  33.213  21.799  10.917 -0.0113 -0.1564  0.0496
 3221DOPC   D2B37802  32.856  21.806  11.133  0.0103  0.1816  0.1943
 3221DOPC   C3B37803  32.762  21.346  11.145 -0.0118  0.1160  0.1739
 3221DOPC   C4B37804  32.628  21.010  10.876  0.1849  0.0758  0.0874
 3222DOPS   CNO37805  31.834  23.920   9.673 -0.1114 -0.2700 -0.2152
 3222DOPS   PO437806  31.745  23.625   9.839  0.0953 -0.1140 -0.1096
 3222DOPS   GL137807  31.610  23.792  10.138  0.1531 -0.2157 -0.3397
 3222DOPS   GL237808  31.753  23.690  10.396  0.1941 -0.1330 -0.3003
 3222DOPS   C1A37809  31.290  23.617  10.445  0.0208  0.2535  0.0612
 3222DOPS   D2A37810  31.233  23.530  10.852 -0.0429 -0.2220 -0.0693
 3222DOPS   C3A37811  31.174  23.479  11.313  0.2928  0.0448 -0.1512
 3222DOPS   C4A37812  30.901  23.672  11.706 -0.1922  0.1786 -0.2213
 3222DOPS   C1B37813  31.808  23.450  10.760  0.2608  0.0685  0.2802
 3222DOPS   D2B37814  31.996  23.387  11.154 -0.0408  0.0099  0.1605
 3222DOPS   C3B37815  32.336  23.068  11.239  0.3297  0.0662 -0.2029
 3222DOPS   C4B37816  32.500  22.711  11.336  0.4791 -0.0131  0.1002
 3223POSM   NC337817  33.611  18.146   9.380 -0.2210  0.1098  0.0087
 3223POSM   PO437818  33.427  17.819   9.433  0.0219 -0.1497  0.1482
 3223POSM   AM137819  33.376  17.757   9.759  0.0869 -0.1152 -0.2058
 3223POSM   AM237820  33.337  17.466   9.880  0.3125 -0.0917 -0.2042
 3223POSM   T1A37821  33.253  18.015  10.147 -0.2713  0.1975  0.0655
 3223POSM   C2A37822  33.281  18.198  10.572  0.1998  0.1504  0.1385
 3223POSM   C3A37823  33.542  18.378  10.928 -0.0657 -0.1842 -0.0567
 3223POSM   C1B37824  33.372  17.479  10.189 -0.2967 -0.1071  0.0215
 3223POSM   D2B37825  33.415  17.685  10.591 -0.1080  0.1201  0.1450
 3223POSM   C3B37826  33.258  17.936  11.014  0.3626 -0.0732 -0.0336
 3223POSM   C4B37827  33.057  18.202  11.327  0.5469 -0.3220 -0.0147
 3224DOPS   CNO37828  32.922  23.934   9.897  0.2061  0.1026  0.0527
 3224DOPS   PO437829  32.545  23.896   9.994  0.0365  0.1377  0.1268
 3224DOPS   GL137830  32.248  23.793  10.302 -0.2126  0.3386 -0.3098
 3224DOPS   GL237831  32.278  23.505  10.486  0.2364 -0.1919  0.2742
 3224DOPS   C1A37832  32.079  24.011  10.690  0.2091  0.4061  0.3360
 3224DOPS   D2A37833  32.027  23.962  11.113  0.0683  0.0716  0.1217
 3224DOPS   C3A37834  32.266  24.089  11.495 -0.0407  0.0670  0.1722
 3224DOPS   C4A37835  32.635  23.840  11.745  0.1357  0.1332 -0.2623
 3224DOPS   C1B37836  32.421  23.473  10.944 -0.0351  0.2536 -0.1257
 3224DOPS   D2B37837  32.497  23.584  11.353 -0.1657  0.0672  0.2022
 3224DOPS   C3B37838  32.339  23.278  11.716  0.1812 -0.0932  0.3323
 3224DOPS   C4B37839  31.939  23.160  11.819  0.2619 -0.3883 -0.0975
 3225POSM   NC337840  25.137  16.532   9.385  0.3605  0.0394 -0.0311
 3225POSM   PO437841  25.522  16.653   9.292  0.1570  0.0942  0.4241
 3225POSM   AM137842  25.495  16.815   9.579 -0.2060 -0.3203  0.0979
 3225POSM   AM237843  25.290  17.016   9.713  0.1323  0.0212  0.0606
 3225POSM   T1A37844  25.760  17.026   9.968  0.2093 -0.1321 -0.0815
 3225POSM   C2A37845  25.849  17.433  10.153 -0.0602 -0.0512  0.1234
 3225POSM   C3A37846  25.626  17.739  10.338 -0.1185  0.0694 -0.0852
 3225POSM   C1B37847  24.970  16.849   9.749  0.2713 -0.1515  0.1854
 3225POSM   D2B37848  24.585  16.743  10.020  0.1607  0.0655  0.1090
 3225POSM   C3B37849  24.599  17.076  10.418  0.1695  0.1145  0.2158
 3225POSM   C4B37850  24.961  17.256  10.625 -0.1017 -0.1649 -0.2629
 3226DOPC   NC337851  27.486  21.129   9.364 -0.2486  0.1929  0.1133
 3226DOPC   PO437852  27.192  21.387   9.271 -0.0051  0.1777 -0.1002
 3226DOPC   GL137853  27.183  21.342   9.672 -0.0626 -0.0996 -0.1079
 3226DOPC   GL237854  26.868  21.327   9.665 -0.1539 -0.1495 -0.1067
 3226DOPC   C1A37855  27.405  21.511  10.054  0.2613  0.1803 -0.2148
 3226DOPC   D2A37856  27.730  21.857  10.175  0.2176 -0.1021 -0.2657
 3226DOPC   C3A37857  27.872  21.744  10.589 -0.0608  0.0218  0.0949
 3226DOPC   C4A37858  28.061  21.430  10.867 -0.5592  0.0823  0.0209
 3226DOPC   C1B37859  26.773  21.003  10.000  0.1771  0.1375  0.1054
 3226DOPC   D2B37860  26.957  20.989  10.445 -0.1706 -0.0368  0.0606
 3226DOPC   C3B37861  27.180  20.700  10.685 -0.1108  0.1769 -0.0345
 3226DOPC   C4B37862  26.996  20.394  11.115 -0.1126 -0.1916  0.1469
 3227DOPC   NC337863  30.452  17.848   9.557 -0.1546  0.1758 -0.3218
 3227DOPC   PO437864  30.398  18.048   9.876 -0.1723  0.1342 -0.0391
 3227DOPC   GL137865  30.571  18.048  10.296 -0.3057 -0.0675  0.3886
 3227DOPC   GL237866  30.410  18.275  10.458 -0.1214 -0.0525  0.1541
 3227DOPC   C1A37867  30.333  17.825  10.668 -0.0010 -0.0312  0.0184
 3227DOPC   D2A37868  30.070  17.488  10.927  0.1661  0.2564  0.2608
 3227DOPC   C3A37869  30.253  17.330  11.303 -0.0127 -0.3318 -0.1037
 3227DOPC   C4A37870  30.575  17.083  11.493  0.0139  0.1056  0.0518
 3227DOPC   C1B37871  30.794  18.239  10.710 -0.1806  0.0414 -0.4100
 3227DOPC   D2B37872  31.143  18.382  10.988  0.3379 -0.1133  0.2209
 3227DOPC   C3B37873  31.413  18.247  11.319  0.0373 -0.2927 -0.0489
 3227DOPC   C4B37874  31.512  17.842  11.460  0.1220 -0.1266  0.1049
 3228DOPC   NC337875  24.299  13.079   9.284 -0.2904  0.0555 -0.0886
 3228DOPC   PO437876  24.524  13.394   9.283 -0.5115  0.1741 -0.2036
 3228DOPC   GL137877  24.536  13.220   9.632 -0.1980 -0.2267  0.1076
 3228DOPC   GL237878  24.607  12.902   9.690  0.2151  0.1458  0.2148
 3228DOPC   C1A37879  24.648  13.350  10.026  0.1346 -0.3627  0.0481
 3228DOPC   D2A37880  24.335  13.449  10.402  0.2859 -0.1070  0.0895
 3228DOPC   C3A37881  24.493  13.550  10.819 -0.0683 -0.1328 -0.2104
 3228DOPC   C4A37882  24.844  13.653  10.980 -0.0665  0.0497  0.0675
 3228DOPC   C1B37883  24.646  12.583  10.027 -0.1765  0.0735 -0.1008
 3228DOPC   D2B37884  24.877  12.376  10.330 -0.3761 -0.1516  0.1552
 3228DOPC   C3B37885  25.050  12.256  10.745  0.0493  0.1031 -0.1034
 3228DOPC   C4B37886  25.204  12.391  11.174 -0.2015  0.1975  0.0110
 3229POSM   NC337887  32.277  22.651   9.665 -0.2071  0.1113 -0.0368
 3229POSM   PO437888  32.395  23.006   9.676 -0.0232 -0.0426 -0.1318
 3229POSM   AM137889  32.200  23.007   9.963 -0.1082  0.1751 -0.0287
 3229POSM   AM237890  32.104  22.810  10.113 -0.2469 -0.1430  0.2426
 3229POSM   T1A37891  31.863  23.228  10.285  0.1161  0.1567  0.2046
 3229POSM   C2A37892  31.467  23.150  10.491 -0.1707  0.0899 -0.2932
 3229POSM   C3A37893  31.014  23.235  10.529  0.2902  0.1289  0.1682
 3229POSM   C1B37894  32.277  22.997  10.356 -0.1152  0.1591 -0.0542
 3229POSM   D2B37895  32.277  22.979  10.788  0.1185 -0.0202 -0.2848
 3229POSM   C3B37896  32.092  22.567  10.980 -0.0545 -0.0293  0.0840
 3229POSM   C4B37897  32.181  22.340  11.374 -0.1884 -0.0057 -0.1725
 3230POSM   NC337898  24.613  14.246   9.058 -0.1902 -0.0827 -0.0332
 3230POSM   PO437899  24.508  13.929   9.201  0.1958 -0.3076 -0.3856
 3230POSM   AM137900  24.339  13.952   9.516 -0.0235 -0.0151 -0.0181
 3230POSM   AM237901  24.406  13.737   9.663 -0.0925 -0.1049  0.0048
 3230POSM   T1A37902  24.223  14.172   9.959  0.0781  0.0813  0.2232
 3230POSM   C2A37903  24.017  14.544  10.205  0.2215 -0.4417 -0.4991
 3230POSM   C3A37904  23.717  14.645  10.552  0.1313 -0.1633  0.3712
 3230POSM   C1B37905  24.530  13.797   9.969 -0.1458 -0.0389  0.2207
 3230POSM   D2B37906  24.727  14.057  10.268 -0.4433 -0.1615  0.0119
 3230POSM   C3B37907  24.485  14.412  10.339 -0.1767  0.1700  0.0323
 3230POSM   C4B37908  24.300  14.885  10.296 -0.1234  0.0732  0.2994
 3231DOPE   NH337909  27.579  16.753   9.655  0.3612 -0.2967 -0.5019
 3231DOPE   PO437910  27.461  17.040   9.739 -0.1388  0.0054 -0.0410
 3231DOPE   GL137911  27.607  17.077  10.033 -0.0137  0.0268  0.1257
 3231DOPE   GL237912  27.616  16.817  10.184  0.0814 -0.3078  0.0321
 3231DOPE   C1A37913  27.507  17.240  10.419 -0.1029  0.0850  0.1677
 3231DOPE   D2A37914  27.653  17.330  10.868 -0.0826 -0.1228 -0.2337
 3231DOPE   C3A37915  27.941  17.060  11.095  0.1549 -0.1419 -0.1808
 3231DOPE   C4A37916  27.841  16.709  11.384 -0.1833 -0.1410  0.2079
 3231DOPE   C1B37917  27.398  16.498  10.478 -0.1081 -0.0704  0.0785
 3231DOPE   D2B37918  27.025  16.329  10.720 -0.0428 -0.1831  0.0631
 3231DOPE   C3B37919  26.879  16.472  11.116  0.1660  0.0096  0.0812
 3231DOPE   C4B37920  26.647  16.755  11.391  0.2565 -0.2370 -0.2269
 3232DOPS   CNO37921  34.336  16.410   9.805  0.0278 -0.1285  0.0211
 3232DOPS   PO437922  34.169  16.590  10.085 -0.2161  0.0993  0.0446
 3232DOPS   GL137923  34.102  16.619  10.459  0.0322  0.3123  0.0833
 3232DOPS   GL237924  34.394  16.688  10.577  0.0667 -0.0668  0.2118
 3232DOPS   C1A37925  33.972  16.956  10.727  0.0307 -0.1129  0.4071
 3232DOPS   D2A37926  34.020  17.148  11.130 -0.0486 -0.1365 -0.1682
 3232DOPS   C3A37927  33.689  16.984  11.354 -0.0131  0.4253 -0.1249
 3232DOPS   C4A37928  33.266  17.141  11.442  0.2080 -0.1429  0.0037
 3232DOPS   C1B37929  34.167  16.592  10.991  0.2003  0.2422 -0.1645
 3232DOPS   D2B37930  34.114  16.731  11.410  0.1227  0.0648 -0.0722
 3232DOPS   C3B37931  33.748  16.632  11.690 -0.0265 -0.2404 -0.0407
 3232DOPS   C4B37932  33.672  16.243  11.980 -0.0805  0.0724  0.2480
 3233DOPE   NH337933   0.029  24.646  10.332 -0.0918 -0.0867 -0.1165
 3233DOPE   PO437934   0.214  24.412  10.483 -0.1154  0.2152 -0.1199
 3233DOPE   GL137935   0.226  24.514  10.920 -0.2964 -0.2036 -0.0019
 3233DOPE   GL237936   0.070  24.801  10.826  0.1408  0.1909 -0.0756
 3233DOPE   C1A37937   0.218  24.636  11.366 -0.1574 -0.0442 -0.2877
 3233DOPE   D2A37938   0.171  24.438  11.785 -0.2353  0.3629  0.1761
 3233DOPE   C3A37939   0.041  24.532  12.194 -0.0861 -0.2082 -0.0704
 3233DOPE   C4A37940  -0.060  24.899  12.463  0.2053 -0.2626 -0.0702
 3233DOPE   C1B37941  -0.200  24.824  11.165 -0.0892  0.0996 -0.2902
 3233DOPE   D2B37942  -0.571  24.584  11.312  0.3473  0.1705 -0.1567
 3233DOPE   C3B37943  -0.486  24.555  11.759  0.0343  0.0228 -0.0147
 3233DOPE   C4B37944  -0.472  24.846  12.128 -0.0485 -0.1460  0.0454
 3234DOPC   NC337945  24.225  17.070   9.092 -0.1464 -0.0651 -0.4026
 3234DOPC   PO437946  24.516  17.305   9.156 -0.0177  0.1530  0.0804
 3234DOPC   GL137947  24.511  17.186   9.528  0.1676 -0.0920  0.1207
 3234DOPC   GL237948  24.273  17.106   9.659 -0.2105 -0.1476 -0.0273
 3234DOPC   C1A37949  24.614  17.306   9.944 -0.0829  0.4313 -0.2019
 3234DOPC   D2A37950  24.557  17.585  10.344  0.0601  0.0305 -0.0846
 3234DOPC   C3A37951  24.728  17.720  10.709  0.0760  0.3936 -0.0302
 3234DOPC   C4A37952  24.776  17.774  11.189  0.1628 -0.2223  0.4025
 3234DOPC   C1B37953  24.121  17.112  10.116  0.1340  0.2614  0.2156
 3234DOPC   D2B37954  24.107  16.944  10.540 -0.0518  0.1748 -0.1816
 3234DOPC   C3B37955  24.453  16.731  10.758  0.0503  0.0373 -0.0953
 3234DOPC   C4B37956  24.503  16.272  10.627 -0.1132  0.0766 -0.0122
 3235DOPC   NC337957  25.714  12.680   9.855 -0.1849 -0.0222  0.1404
 3235DOPC   PO437958  25.486  13.020   9.810  0.0998  0.1585  0.4142
 3235DOPC   GL137959  25.499  13.128  10.176  0.1169  0.2398 -0.3312
 3235DOPC   GL237960  25.618  12.909  10.324 -0.0365 -0.0722 -0.0346
 3235DOPC   C1A37961  25.251  13.165  10.609 -0.1482  0.1249  0.0101
 3235DOPC   D2A37962  25.348  13.485  10.929 -0.0053 -0.1643 -0.3199
 3235DOPC   C3A37963  25.171  13.764  11.280  0.2222 -0.4554 -0.2320
 3235DOPC   C4A37964  24.900  13.811  11.710  0.0853  0.0193  0.1725
 3235DOPC   C1B37965  25.171  12.771  10.375  0.1899  0.2092  0.1153
 3235DOPC   D2B37966  24.753  12.991  10.529  0.1024 -0.0915  0.2472
 3235DOPC   C3B37967  24.563  12.747  10.859 -0.1996  0.2600  0.1558
 3235DOPC   C4B37968  24.697  12.589  11.250  0.2736 -0.4046  0.0183
 3236POSM   NC337969  33.960  19.732   9.435 -0.2840  0.0702  0.0914
 3236POSM   PO437970  34.164  19.442   9.607 -0.1732 -0.0950  0.2441
 3236POSM   AM137971  33.958  19.410   9.906 -0.5456 -0.1554 -0.0255
 3236POSM   AM237972  33.808  19.266  10.073  0.3169 -0.0052 -0.0390
 3236POSM   T1A37973  33.852  19.700  10.355  0.0457 -0.0209  0.0094
 3236POSM   C2A37974  33.536  20.068  10.529  0.2790 -0.0217  0.0096
 3236POSM   C3A37975  33.362  20.463  10.540 -0.1918 -0.2967 -0.3068
 3236POSM   C1B37976  33.876  19.132  10.401  0.0396  0.1037 -0.1146
 3236POSM   D2B37977  33.973  18.981  10.806  0.2930 -0.2150  0.2794
 3236POSM   C3B37978  33.699  18.837  11.141  0.0785 -0.0439 -0.1112
 3236POSM   C4B37979  33.345  18.646  11.439 -0.0796 -0.2609 -0.2682
 3237POSM   NC337980  26.458  22.787   8.998  0.1099 -0.1319 -0.2366
 3237POSM   PO437981  26.359  22.434   9.198 -0.2881  0.0839  0.2481
 3237POSM   AM137982  26.119  22.325   9.366 -0.0450 -0.2207  0.0956
 3237POSM   AM237983  25.971  22.385   9.564 -0.0370  0.1261 -0.3539
 3237POSM   T1A37984  25.882  21.930   9.570 -0.1978 -0.2746  0.0102
 3237POSM   C2A37985  25.807  21.904  10.003 -0.1612 -0.0010  0.5173
 3237POSM   C3A37986  25.979  22.124  10.452 -0.1210 -0.2339  0.2592
 3237POSM   C1B37987  25.722  22.333   9.821  0.1077 -0.0135  0.3290
 3237POSM   D2B37988  25.573  22.281  10.266  0.2282  0.1041 -0.2088
 3237POSM   C3B37989  25.516  21.892  10.477  0.0024 -0.0093 -0.2233
 3237POSM   C4B37990  25.543  21.470  10.719  0.3372  0.3294  0.1245
 3238DOPS   CNO37991  30.249  16.188   9.809 -0.0418  0.0529 -0.0924
 3238DOPS   PO437992  30.106  16.553   9.798 -0.0744 -0.0790 -0.1436
 3238DOPS   GL137993  30.386  16.546  10.136 -0.1838 -0.2231  0.0424
 3238DOPS   GL237994  30.233  16.638  10.419  0.0547 -0.2141  0.0486
 3238DOPS   C1A37995  30.666  16.346  10.499 -0.3874  0.3717  0.2355
 3238DOPS   D2A37996  30.747  16.263  10.963  0.3658  0.2937 -0.2107
 3238DOPS   C3A37997  30.738  16.003  11.326  0.3739  0.0161  0.1055
 3238DOPS   C4A37998  30.718  16.021  11.738 -0.0145 -0.0488 -0.2012
 3238DOPS   C1B37999  30.297  16.471  10.841  0.0208  0.1726 -0.0084
 3238DOPS   D2B38000  30.404  16.617  11.258  0.2476  0.2458  0.3198
 3238DOPS   C3B38001  30.795  16.504  11.488 -0.3180 -0.0275  0.0724
 3238DOPS   C4B38002  31.139  16.422  11.775 -0.0142  0.0088 -0.1766
 3239POSM   NC338003  27.170  11.458   9.718  0.1850  0.1651 -0.3836
 3239POSM   PO438004  27.117  11.220  10.101 -0.0821 -0.1762 -0.2186
 3239POSM   AM138005  27.316  11.219  10.382  0.0553  0.2293  0.1002
 3239POSM   AM238006  27.579  11.365  10.478 -0.0051  0.1613  0.0148
 3239POSM   T1A38007  27.458  10.975  10.812 -0.4139 -0.0701  0.0507
 3239POSM   C2A38008  27.394  10.603  11.112  0.0250 -0.1042  0.2500
 3239POSM   C3A38009  27.602  10.437  11.537  0.0233  0.1694  0.2436
 3239POSM   C1B38010  27.562  11.473  10.796  0.1027 -0.0846  0.1156
 3239POSM   D2B38011  27.538  11.547  11.271  0.0133  0.0732 -0.0513
 3239POSM   C3B38012  27.789  11.886  11.556  0.0936  0.1033 -0.1087
 3239POSM   C4B38013  27.840  12.297  11.783 -0.0583 -0.2890  0.2731
 3240DOPE   NH338014  30.965  22.367   9.363  0.1892 -0.0460 -0.0924
 3240DOPE   PO438015  31.074  22.084   9.498 -0.2876 -0.0849 -0.1823
 3240DOPE   GL138016  30.829  22.192   9.782 -0.4174  0.1145  0.1334
 3240DOPE   GL238017  30.928  22.049  10.065  0.0281  0.1196 -0.0365
 3240DOPE   C1A38018  30.447  22.068  10.043 -0.2225  0.1585  0.2918
 3240DOPE   D2A38019  30.099  22.184  10.334 -0.1346 -0.1401  0.0800
 3240DOPE   C3A38020  29.940  21.949  10.666  0.2378 -0.2779  0.0746
 3240DOPE   C4A38021  30.116  21.621  11.019  0.0155  0.1664 -0.0343
 3240DOPE   C1B38022  31.202  22.319  10.290  0.2225 -0.1567 -0.0296
 3240DOPE   D2B38023  31.585  22.220  10.540 -0.3830 -0.0838  0.0249
 3240DOPE   C3B38024  31.630  22.243  11.009  0.0182 -0.0070 -0.0588
 3240DOPE   C4B38025  31.662  22.304  11.453  0.0792  0.1590  0.0015
 3241DOPE   NH338026  25.928  13.884   9.870  0.2002  0.0897  0.0220
 3241DOPE   PO438027  25.675  14.034   9.932  0.0071  0.1463 -0.1064
 3241DOPE   GL138028  25.625  13.846  10.259 -0.0759 -0.1177 -0.2231
 3241DOPE   GL238029  25.428  14.099  10.340  0.2353  0.0974  0.0953
 3241DOPE   C1A38030  25.686  13.820  10.729 -0.0764 -0.1534  0.3849
 3241DOPE   D2A38031  25.786  13.693  11.170 -0.3289  0.1439  0.3755
 3241DOPE   C3A38032  26.210  13.879  11.297 -0.1136 -0.2384 -0.0392
 3241DOPE   C4A38033  26.505  14.256  11.220  0.0426 -0.1286 -0.0328
 3241DOPE   C1B38034  25.117  14.060  10.629  0.1027  0.3067 -0.1199
 3241DOPE   D2B38035  24.619  14.094  10.726  0.1847  0.0014  0.2511
 3241DOPE   C3B38036  24.585  14.547  10.762 -0.2063  0.2970  0.0960
 3241DOPE   C4B38037  24.598  14.940  10.998  0.0800 -0.1187  0.2612
 3242DOPE   NH338038  26.161  12.128   9.904  0.2224  0.0444 -0.0295
 3242DOPE   PO438039  26.171  12.428   9.959 -0.1337 -0.2385 -0.1274
 3242DOPE   GL138040  26.295  12.471  10.327 -0.0850 -0.0615  0.0369
 3242DOPE   GL238041  26.355  12.236  10.385  0.1189  0.0764  0.0644
 3242DOPE   C1A38042  26.122  12.504  10.795 -0.4792  0.1507  0.1251
 3242DOPE   D2A38043  26.328  12.363  11.145 -0.3559  0.0168  0.1356
 3242DOPE   C3A38044  25.961  12.125  11.333 -0.3870  0.2548 -0.0820
 3242DOPE   C4A38045  25.886  11.823  11.668 -0.0043 -0.0429 -0.2012
 3242DOPE   C1B38046  26.592  12.440  10.772  0.2640 -0.0068 -0.0121
 3242DOPE   D2B38047  26.863  12.740  10.985 -0.1120  0.1017 -0.3481
 3242DOPE   C3B38048  26.797  13.165  10.818  0.1947 -0.0956  0.0142
 3242DOPE   C4B38049  26.526  13.414  10.527 -0.0189 -0.4340 -0.1378
 3243DOPS   CNO38050  24.937  14.957   8.990  0.1704 -0.2424 -0.0046
 3243DOPS   PO438051  25.110  14.924   9.328  0.0877 -0.2000  0.1160
 3243DOPS   GL138052  25.082  15.196   9.628 -0.0368  0.0257 -0.1881
 3243DOPS   GL238053  24.796  15.133   9.707  0.0815  0.0739  0.0114
 3243DOPS   C1A38054  25.281  15.424   9.996  0.1926  0.3525  0.4328
 3243DOPS   D2A38055  25.230  15.766  10.288 -0.2288  0.1010  0.1336
 3243DOPS   C3A38056  25.316  15.772  10.725 -0.3864  0.0126  0.0833
 3243DOPS   C4A38057  25.477  15.677  11.140  0.2672 -0.0608  0.1766
 3243DOPS   C1B38058  24.963  14.984  10.105 -0.1015  0.1578  0.0806
 3243DOPS   D2B38059  25.030  14.825  10.525 -0.1382 -0.0819  0.2506
 3243DOPS   C3B38060  25.211  14.957  10.909 -0.1432 -0.0381  0.0198
 3243DOPS   C4B38061  25.071  15.437  11.021 -0.1173  0.2631 -0.0817
 3244POSM   NC338062  28.817  15.037   9.945 -0.1971  0.1512  0.4524
 3244POSM   PO438063  28.780  14.660  10.004  0.1545  0.1115 -0.0258
 3244POSM   AM138064  29.032  14.570  10.252  0.3038 -0.2320 -0.1379
 3244POSM   AM238065  29.325  14.516  10.286  0.0641  0.0058  0.2130
 3244POSM   T1A38066  29.149  14.645  10.724 -0.2252  0.0456  0.1009
 3244POSM   C2A38067  29.204  14.766  11.200 -0.2122 -0.0440 -0.0921
 3244POSM   C3A38068  29.262  14.919  11.661  0.2609 -0.3252 -0.1678
 3244POSM   C1B38069  29.598  14.659  10.427 -0.0870  0.1434 -0.1161
 3244POSM   D2B38070  29.997  14.695  10.619  0.0173 -0.0789 -0.2578
 3244POSM   C3B38071  30.087  14.949  11.048 -0.3191 -0.1484  0.0377
 3244POSM   C4B38072  30.060  15.269  11.387 -0.0635 -0.1996  0.3070
 3245POSM   NC338073  30.776  17.020   9.740 -0.0821 -0.0921 -0.1243
 3245POSM   PO438074  30.671  17.394   9.655 -0.1791  0.1335 -0.2104
 3245POSM   AM138075  30.632  17.413   9.963 -0.2145  0.3408  0.0348
 3245POSM   AM238076  30.667  17.220  10.173 -0.2122  0.1255 -0.6508
 3245POSM   T1A38077  30.751  17.637  10.379 -0.0592 -0.0058 -0.2717
 3245POSM   C2A38078  30.990  17.768  10.711  0.0982 -0.0693  0.1332
 3245POSM   C3A38079  31.457  17.890  10.837  0.3025 -0.2598  0.2621
 3245POSM   C1B38080  30.530  17.062  10.410  0.2281 -0.2969 -0.0597
 3245POSM   D2B38081  30.392  17.011  10.841 -0.0157 -0.0300 -0.4741
 3245POSM   C3B38082  29.978  16.829  11.070  0.0160 -0.2361 -0.1383
 3245POSM   C4B38083  29.868  16.439  11.344 -0.0287 -0.0571  0.0162
 3246DOPE   NH338084  31.431  16.309   9.775  0.2010 -0.0649 -0.0373
 3246DOPE   PO438085  31.095  16.359   9.774  0.1472  0.0264 -0.0990
 3246DOPE   GL138086  31.090  16.343  10.144  0.3466  0.1271  0.2372
 3246DOPE   GL238087  31.204  16.137  10.201 -0.0455  0.0084 -0.0272
 3246DOPE   C1A38088  31.068  16.585  10.521  0.0748 -0.0381 -0.1122
 3246DOPE   D2A38089  30.764  16.760  10.882 -0.0358  0.2846  0.0025
 3246DOPE   C3A38090  30.890  17.139  11.113  0.0319 -0.0134 -0.1335
 3246DOPE   C4A38091  31.208  17.525  11.090 -0.1018  0.1544  0.0948
 3246DOPE   C1B38092  31.139  16.114  10.657 -0.0989 -0.0575 -0.2947
 3246DOPE   D2B38093  31.191  16.144  11.121 -0.3481 -0.1594 -0.1524
 3246DOPE   C3B38094  31.499  16.281  11.426  0.4934 -0.5550  0.2587
 3246DOPE   C4B38095  31.619  16.646  11.639 -0.1217 -0.0449 -0.0374
 3247DOPS   CNO38096  25.067  23.969   8.703 -0.3214 -0.1638 -0.1580
 3247DOPS   PO438097  25.008  23.624   8.593 -0.0293  0.0169  0.2893
 3247DOPS   GL138098  25.010  23.570   9.032 -0.1294  0.1152 -0.3364
 3247DOPS   GL238099  25.234  23.505   9.121 -0.0241  0.2062 -0.0226
 3247DOPS   C1A38100  24.878  23.776   9.408  0.3651 -0.0623  0.1643
 3247DOPS   D2A38101  24.764  23.786   9.844  0.0634  0.1333  0.0208
 3247DOPS   C3A38102  24.396  23.987  10.060  0.0308  0.0756 -0.1446
 3247DOPS   C4A38103  24.144  24.088  10.432 -0.0855 -0.1619  0.3394
 3247DOPS   C1B38104  25.341  23.726   9.515  0.0471  0.0515 -0.2125
 3247DOPS   D2B38105  25.272  23.789   9.916 -0.1217  0.0400  0.1477
 3247DOPS   C3B38106  25.355  23.612  10.356 -0.1340 -0.2739 -0.3547
 3247DOPS   C4B38107  25.259  23.247  10.594  0.0995  0.1996 -0.3268
 3248DOPE   NH338108  30.769  23.002   9.551  0.1084  0.3077 -0.1227
 3248DOPE   PO438109  30.733  22.681   9.679  0.2555  0.0871 -0.2423
 3248DOPE   GL138110  30.508  22.828   9.985  0.2802  0.1074 -0.0399
 3248DOPE   GL238111  30.366  22.570  10.054  0.0849  0.0741 -0.1194
 3248DOPE   C1A38112  30.654  22.906  10.436  0.0875 -0.1448 -0.0691
 3248DOPE   D2A38113  30.621  22.700  10.846 -0.0175  0.2107  0.0094
 3248DOPE   C3A38114  30.912  22.489  11.085  0.3606  0.3630  0.1765
 3248DOPE   C4A38115  31.336  22.611  11.239  0.0362 -0.1068  0.1156
 3248DOPE   C1B38116  30.635  22.428  10.323  0.0187  0.0191 -0.1687
 3248DOPE   D2B38117  30.891  22.234  10.631 -0.0074 -0.0835 -0.1487
 3248DOPE   C3B38118  30.750  22.012  11.024 -0.1379  0.0056 -0.2089
 3248DOPE   C4B38119  30.464  21.822  11.294 -0.3150 -0.1142 -0.2725
 3249POSM   NC338120  22.210  11.873   8.970 -0.2240 -0.0527 -0.1079
 3249POSM   PO438121  22.323  11.483   9.030 -0.1145 -0.0531 -0.1194
 3249POSM   AM138122  21.996  11.470   9.125 -0.5380  0.2629 -0.1630
 3249POSM   AM238123  21.810  11.648   9.241  0.1620 -0.1346 -0.3041
 3249POSM   T1A38124  21.724  11.182   9.429  0.3363  0.2169 -0.1890
 3249POSM   C2A38125  21.399  10.905   9.480 -0.3231 -0.2381  0.1025
 3249POSM   C3A38126  20.980  10.975   9.394 -0.0934 -0.0730  0.2712
 3249POSM   C1B38127  21.780  11.631   9.562  0.1196  0.0938 -0.0739
 3249POSM   D2B38128  21.589  11.403   9.917  0.0783  0.0351 -0.0311
 3249POSM   C3B38129  21.476  11.207  10.355  0.2927 -0.2463  0.2008
 3249POSM   C4B38130  21.208  11.265  10.745 -0.1424  0.1245  0.3043
 3250POSM   NC338131  24.927  25.350   8.457 -0.0439 -0.3495  0.0983
 3250POSM   PO438132  25.276  25.310   8.661  0.0988 -0.1068 -0.2919
 3250POSM   AM138133  25.155  25.208   8.901  0.0792 -0.1184 -0.0962
 3250POSM   AM238134  24.988  25.001   9.017  0.2295 -0.0903 -0.0216
 3250POSM   T1A38135  25.082  25.354   9.376 -0.1642 -0.0081  0.2474
 3250POSM   C2A38136  25.239  25.227   9.853  0.0766 -0.2064  0.1367
 3250POSM   C3A38137  25.257  24.919  10.248 -0.2665 -0.0471  0.0878
 3250POSM   C1B38138  25.080  24.791   9.254  0.0306 -0.1839 -0.1550
 3250POSM   D2B38139  25.076  24.710   9.723  0.0009 -0.1914 -0.2198
 3250POSM   C3B38140  24.787  24.892  10.097  0.0254  0.1788  0.1874
 3250POSM   C4B38141  24.441  25.167  10.268  0.0197  0.1365 -0.0438
 3251DOPC   NC338142  28.144  20.954   9.789 -0.0844 -0.2055  0.1275
 3251DOPC   PO438143  28.008  20.692   9.508 -0.0564  0.1951  0.2182
 3251DOPC   GL138144  27.915  20.602   9.913  0.1952  0.1231 -0.1794
 3251DOPC   GL238145  27.909  20.302  10.031 -0.0272 -0.2476  0.1611
 3251DOPC   C1A38146  28.149  20.649  10.305  0.0156 -0.2438  0.5084
 3251DOPC   D2A38147  28.152  21.018  10.536  0.0187  0.0087  0.0449
 3251DOPC   C3A38148  28.262  21.011  10.986 -0.1343  0.0894 -0.1013
 3251DOPC   C4A38149  28.201  20.922  11.447  0.0316 -0.2198  0.1415
 3251DOPC   C1B38150  28.027  19.997  10.331 -0.2619 -0.0749  0.1832
 3251DOPC   D2B38151  28.207  19.650  10.594  0.3262 -0.0566  0.2401
 3251DOPC   C3B38152  28.253  19.864  10.987 -0.0277 -0.0783  0.2240
 3251DOPC   C4B38153  28.303  19.929  11.405  0.1951 -0.0620  0.1203
 3252POSM   NC338154  24.564  21.203   8.740  0.3284  0.0825  0.1005
 3252POSM   PO438155  24.859  21.440   8.731  0.0600  0.1825  0.1792
 3252POSM   AM138156  24.810  21.385   9.055  0.0290  0.1079 -0.0156
 3252POSM   AM238157  24.602  21.291   9.238 -0.0524 -0.0947  0.1938
 3252POSM   T1A38158  25.065  21.397   9.461  0.0687  0.0830 -0.0114
 3252POSM   C2A38159  25.052  21.545   9.915  0.0140 -0.0484 -0.1461
 3252POSM   C3A38160  25.334  21.889   9.926  0.1128  0.3426  0.2579
 3252POSM   C1B38161  24.489  21.438   9.507  0.1287 -0.3965  0.3017
 3252POSM   D2B38162  24.577  21.560   9.933  0.4405 -0.0040  0.1823
 3252POSM   C3B38163  24.617  21.455  10.382  0.1170  0.2394 -0.1193
 3252POSM   C4B38164  24.600  21.055  10.672 -0.1462  0.0766  0.3523
 3253DOPE   NH338165  24.564  15.154   9.252  0.1516  0.1153 -0.1744
 3253DOPE   PO438166  24.545  15.480   9.372  0.3513  0.0722  0.0831
 3253DOPE   GL138167  24.458  15.436   9.718 -0.1448  0.0971 -0.1295
 3253DOPE   GL238168  24.324  15.137   9.764 -0.0088 -0.1240  0.3374
 3253DOPE   C1A38169  24.126  15.502   9.986  0.0016  0.2172 -0.1400
 3253DOPE   D2A38170  23.786  15.257  10.217  0.1100  0.0168  0.0526
 3253DOPE   C3A38171  24.027  15.127  10.591  0.0715  0.1575 -0.0027
 3253DOPE   C4A38172  24.082  14.905  11.003  0.1151  0.1971 -0.1943
 3253DOPE   C1B38173  23.895  14.929   9.911  0.3050  0.2178 -0.0539
 3253DOPE   D2B38174  23.480  14.853  10.151 -0.0561  0.2596  0.1552
 3253DOPE   C3B38175  23.442  15.061  10.552 -0.1648  0.1228  0.1372
 3253DOPE   C4B38176  23.710  15.232  10.939 -0.1342 -0.1225 -0.0313
 3254DOPS   CNO38177  26.241  17.444   9.273  0.4514  0.2113  0.0696
 3254DOPS   PO438178  26.407  17.686   9.501  0.1086 -0.2558  0.0815
 3254DOPS   GL138179  26.160  17.764   9.901  0.0579  0.1504 -0.2540
 3254DOPS   GL238180  26.426  17.583  10.059 -0.0815  0.0075  0.0451
 3254DOPS   C1A38181  26.121  17.838  10.355  0.0039 -0.0854 -0.0965
 3254DOPS   D2A38182  25.944  18.014  10.733 -0.0368  0.1571  0.0495
 3254DOPS   C3A38183  25.965  17.805  11.099  0.0500  0.2302  0.2661
 3254DOPS   C4A38184  26.140  17.475  11.277  0.2092 -0.2333 -0.0652
 3254DOPS   C1B38185  26.294  17.259  10.303  0.0402  0.1098  0.3045
 3254DOPS   D2B38186  25.953  16.980  10.476  0.0416 -0.0395  0.0621
 3254DOPS   C3B38187  25.945  16.958  10.947 -0.2410  0.1380  0.0397
 3254DOPS   C4B38188  26.193  17.011  11.324  0.0195 -0.0597 -0.2660
 3255DOPC   NC338189  27.053  18.726   9.752 -0.0561 -0.1621  0.1540
 3255DOPC   PO438190  26.874  18.457   9.502  0.0413  0.0869 -0.4226
 3255DOPC   GL138191  26.750  18.346   9.808 -0.3092 -0.3389  0.2433
 3255DOPC   GL238192  26.488  18.370   9.857  0.0683  0.0543 -0.0002
 3255DOPC   C1A38193  26.751  18.636  10.180 -0.4123  0.1808 -0.2108
 3255DOPC   D2A38194  26.438  18.694  10.529  0.0176  0.0734 -0.0908
 3255DOPC   C3A38195  26.353  18.249  10.702 -0.0722  0.0501  0.1334
 3255DOPC   C4A38196  26.393  17.802  10.745 -0.0396 -0.0783 -0.2305
 3255DOPC   C1B38197  26.574  18.090  10.222  0.1486 -0.0683 -0.1717
 3255DOPC   D2B38198  26.818  17.769  10.364  0.1120 -0.0443  0.0999
 3255DOPC   C3B38199  27.123  17.832  10.651 -0.0154 -0.1080  0.1370
 3255DOPC   C4B38200  27.220  17.869  11.113 -0.0656  0.2026  0.3548
 3256DOPC   NC338201  33.415  22.667  10.152  0.0975 -0.0790  0.0659
 3256DOPC   PO438202  33.306  22.982   9.962 -0.3628 -0.2087 -0.1716
 3256DOPC   GL138203  33.052  23.181  10.266 -0.3872 -0.3059  0.0019
 3256DOPC   GL238204  33.258  23.057  10.472 -0.0962 -0.1567  0.1635
 3256DOPC   C1A38205  32.720  23.082  10.569 -0.3298 -0.1707 -0.1294
 3256DOPC   D2A38206  32.828  22.958  10.979  0.0974 -0.1648  0.0823
 3256DOPC   C3A38207  32.882  23.283  11.249 -0.0680  0.0231  0.0385
 3256DOPC   C4A38208  33.003  23.627  11.573 -0.2839 -0.1123 -0.1755
 3256DOPC   C1B38209  33.342  23.069  10.960  0.0814 -0.1272  0.2198
 3256DOPC   D2B38210  33.365  22.762  11.263  0.0895  0.0553 -0.1371
 3256DOPC   C3B38211  32.943  22.691  11.421  0.0268 -0.1138 -0.4980
 3256DOPC   C4B38212  32.735  22.652  11.812  0.2591  0.0568 -0.0500
 3257DOPC   NC338213  24.194  15.775   9.528  0.1071  0.0985 -0.3392
 3257DOPC   PO438214  24.435  15.989   9.444  0.0484  0.1220  0.0352
 3257DOPC   GL138215  24.477  15.962   9.873 -0.1661  0.1281  0.0680
 3257DOPC   GL238216  24.418  16.285   9.890  0.0779 -0.3934  0.0319
 3257DOPC   C1A38217  24.686  15.876  10.275  0.2283 -0.1038  0.2046
 3257DOPC   D2A38218  24.802  15.647  10.626 -0.2131 -0.1873 -0.2219
 3257DOPC   C3A38219  25.104  15.321  10.544 -0.2619 -0.3933 -0.1300
 3257DOPC   C4A38220  25.534  15.302  10.652 -0.0900 -0.1794  0.0601
 3257DOPC   C1B38221  24.218  16.518  10.261  0.1075  0.1911 -0.0768
 3257DOPC   D2B38222  23.883  16.399  10.530 -0.2633 -0.2723 -0.0974
 3257DOPC   C3B38223  24.070  16.294  10.917 -0.1733  0.0055 -0.0371
 3257DOPC   C4B38224  24.313  15.895  10.908 -0.0945  0.1223 -0.1123
 3258DOPS   CNO38225  31.383  22.625   9.288  0.2330  0.1505 -0.0516
 3258DOPS   PO438226  31.370  22.867   9.579  0.4552  0.1128  0.1309
 3258DOPS   GL138227  31.094  22.939   9.903  0.3271 -0.0690 -0.0701
 3258DOPS   GL238228  31.040  22.772  10.169 -0.2782  0.0660 -0.2535
 3258DOPS   C1A38229  30.743  23.166  10.094 -0.2348 -0.1465  0.1224
 3258DOPS   D2A38230  30.373  23.321  10.376 -0.3386  0.2160 -0.2010
 3258DOPS   C3A38231  30.659  23.485  10.758 -0.3755  0.1598 -0.0356
 3258DOPS   C4A38232  30.745  23.689  11.193 -0.2234 -0.0182 -0.1247
 3258DOPS   C1B38233  31.113  22.715  10.591 -0.0525 -0.0905  0.0676
 3258DOPS   D2B38234  31.281  23.007  10.924 -0.3435  0.0929  0.0175
 3258DOPS   C3B38235  30.870  23.126  11.104 -0.0547 -0.1029 -0.0548
 3258DOPS   C4B38236  30.645  23.261  11.463 -0.2951  0.1528 -0.0754
 3259POSM   NC338237  23.475  11.451   9.468 -0.1632  0.1398  0.0947
 3259POSM   PO438238  23.667  11.784   9.399 -0.3545 -0.1413 -0.1802
 3259POSM   AM138239  23.694  11.815   9.692  0.4245 -0.2393 -0.2250
 3259POSM   AM238240  23.576  11.672   9.899  0.0841  0.2498 -0.0895
 3259POSM   T1A38241  23.452  12.174   9.970  0.0683 -0.3711 -0.1126
 3259POSM   C2A38242  23.507  12.397  10.411  0.0859 -0.1662  0.2781
 3259POSM   C3A38243  23.400  12.475  10.863  0.0419  0.2295 -0.0444
 3259POSM   C1B38244  23.853  11.545  10.087 -0.4136 -0.1351 -0.0078
 3259POSM   D2B38245  24.087  11.488  10.467 -0.1178  0.1827  0.0478
 3259POSM   C3B38246  23.805  11.621  10.760  0.1793  0.1001 -0.1409
 3259POSM   C4B38247  23.543  11.559  11.153  0.0065  0.3039 -0.0477
 3260POSM   NC338248  29.068  23.682   9.463  0.0880 -0.1162  0.2495
 3260POSM   PO438249  28.701  23.846   9.425  0.0836  0.1354  0.0644
 3260POSM   AM138250  28.647  23.858   9.728 -0.0594 -0.1663  0.0219
 3260POSM   AM238251  28.450  24.015   9.839 -0.2925 -0.0478 -0.1392
 3260POSM   T1A38252  28.718  23.718  10.209  0.0681  0.0770 -0.2150
 3260POSM   C2A38253  28.945  23.741  10.615  0.4904  0.1631  0.0220
 3260POSM   C3A38254  29.164  23.951  10.928  0.1590  0.0271 -0.0533
 3260POSM   C1B38255  28.468  24.195  10.154 -0.1386 -0.1311  0.0647
 3260POSM   D2B38256  28.485  24.088  10.614  0.2967  0.1428 -0.0632
 3260POSM   C3B38257  28.121  23.955  10.842  0.1136  0.1078 -0.0708
 3260POSM   C4B38258  27.865  23.590  10.824 -0.2043  0.1134 -0.0660
 3261DOPE   NH338259  23.952  19.176   9.056  0.2259  0.1535  0.0546
 3261DOPE   PO438260  23.766  18.906   9.137  0.2095  0.2686  0.0900
 3261DOPE   GL138261  23.756  18.892   9.525 -0.0472 -0.0791  0.0215
 3261DOPE   GL238262  24.013  18.681   9.549 -0.1450  0.3672 -0.0413
 3261DOPE   C1A38263  24.109  19.061   9.814 -0.0546 -0.3414 -0.0215
 3261DOPE   D2A38264  24.313  19.413  10.046  0.1597 -0.1934 -0.2323
 3261DOPE   C3A38265  24.175  19.832   9.848 -0.3293 -0.0638  0.1297
 3261DOPE   C4A38266  24.085  20.164   9.577 -0.3064  0.2152  0.3679
 3261DOPE   C1B38267  23.777  18.649   9.877 -0.2346  0.1280 -0.3828
 3261DOPE   D2B38268  23.688  19.032  10.123 -0.0590  0.1372 -0.3803
 3261DOPE   C3B38269  24.031  19.183  10.422  0.0157 -0.0296  0.1664
 3261DOPE   C4B38270  23.995  19.612  10.614 -0.0739  0.2146  0.1561
 3262DOPC   NC338271  28.060  12.534  10.223  0.0008  0.0455  0.1245
 3262DOPC   PO438272  28.285  12.239  10.139 -0.3097 -0.1307  0.1587
 3262DOPC   GL138273  28.385  12.243  10.508 -0.3194  0.1587 -0.3200
 3262DOPC   GL238274  28.129  12.280  10.646  0.1897 -0.0056  0.1164
 3262DOPC   C1A38275  28.212  11.821  10.717 -0.2823  0.0326 -0.0513
 3262DOPC   D2A38276  27.945  11.674  11.072 -0.0400  0.1703  0.0113
 3262DOPC   C3A38277  27.914  12.107  11.112 -0.0453  0.1628  0.4594
 3262DOPC   C4A38278  27.789  12.523  11.331 -0.2014 -0.2743  0.0637
 3262DOPC   C1B38279  28.397  12.463  11.001 -0.0241  0.1104  0.0224
 3262DOPC   D2B38280  28.769  12.699  11.194  0.3090 -0.1690 -0.1268
 3262DOPC   C3B38281  29.143  12.558  11.454 -0.1076  0.0663 -0.1036
 3262DOPC   C4B38282  29.154  12.152  11.748 -0.0410  0.0477  0.2466
 3263POSM   NC338283  32.282  17.344   9.422 -0.0838 -0.0561 -0.0669
 3263POSM   PO438284  31.996  17.514   9.659  0.0063  0.0355 -0.1321
 3263POSM   AM138285  32.075  17.475   9.985 -0.0900  0.3429 -0.1572
 3263POSM   AM238286  32.329  17.537  10.146 -0.0745  0.0643  0.0520
 3263POSM   T1A38287  31.988  17.628  10.463 -0.0173 -0.2483 -0.0432
 3263POSM   C2A38288  31.930  17.887  10.813  0.2164 -0.0241 -0.2816
 3263POSM   C3A38289  31.953  17.838  11.268  0.0749  0.4042  0.3093
 3263POSM   C1B38290  32.373  17.270  10.336 -0.0441 -0.0900  0.1927
 3263POSM   D2B38291  32.383  16.843  10.477 -0.0494 -0.2619  0.3151
 3263POSM   C3B38292  32.543  16.679  10.883  0.1781 -0.1347 -0.2039
 3263POSM   C4B38293  32.932  16.804  11.152  0.0840 -0.2643  0.1199
 3264POSM   NC338294  29.190  20.967   8.910  0.1345 -0.1286 -0.1156
 3264POSM   PO438295  28.968  20.810   9.185  0.2311  0.0584  0.1003
 3264POSM   AM138296  28.967  20.758   9.508  0.2594  0.3720 -0.0446
 3264POSM   AM238297  29.101  20.597   9.671 -0.0833  0.6113 -0.0215
 3264POSM   T1A38298  28.668  20.607   9.873 -0.0949  0.3130  0.0972
 3264POSM   C2A38299  28.732  20.598  10.351 -0.0328  0.0181  0.0396
 3264POSM   C3A38300  28.504  20.705  10.733  0.1100  0.1424 -0.1248
 3264POSM   C1B38301  29.297  20.527   9.906 -0.0295  0.1930 -0.1471
 3264POSM   D2B38302  29.552  20.352  10.248 -0.1544 -0.0962 -0.0425
 3264POSM   C3B38303  29.796  20.605  10.534  0.0048  0.2345  0.1494
 3264POSM   C4B38304  29.705  20.671  10.968  0.0442 -0.0865 -0.2448
 3265DOPC   NC338305  27.599  30.801  13.563  0.1280  0.0112  0.0129
 3265DOPC   PO438306  27.589  31.161  13.483 -0.0939  0.1683  0.0739
 3265DOPC   GL138307  27.894  31.370  13.261  0.1954  0.1836  0.0266
 3265DOPC   GL238308  27.749  31.633  13.200 -0.1034 -0.1511 -0.0822
 3265DOPC   C1A38309  28.338  31.270  13.034  0.2083  0.2544  0.2248
 3265DOPC   D2A38310  28.729  30.983  13.180  0.1959  0.1989 -0.0132
 3265DOPC   C3A38311  29.014  30.814  12.821  0.3092 -0.1830  0.1315
 3265DOPC   C4A38312  29.267  30.894  12.452 -0.3344 -0.0529  0.1841
 3265DOPC   C1B38313  27.849  31.489  12.768  0.0042  0.0100 -0.2453
 3265DOPC   D2B38314  27.700  31.554  12.339  0.0839  0.2225  0.1667
 3265DOPC   C3B38315  27.487  31.924  12.182 -0.0832 -0.3065  0.0170
 3265DOPC   C4B38316  27.658  32.385  12.206  0.3646 -0.1165  0.1203
 3266DOPC   NC338317  31.017  26.858  13.534 -0.1735 -0.1995  0.0387
 3266DOPC   PO438318  30.938  27.229  13.651 -0.0717 -0.2175  0.0386
 3266DOPC   GL138319  30.982  27.201  13.192  0.1322 -0.1644 -0.1501
 3266DOPC   GL238320  30.958  27.491  13.209 -0.0240 -0.0797  0.0060
 3266DOPC   C1A38321  31.116  27.362  12.788 -0.2149 -0.0564  0.1638
 3266DOPC   D2A38322  31.054  27.693  12.511  0.2314  0.0583  0.1424
 3266DOPC   C3A38323  31.277  27.699  12.126  0.0098 -0.0778 -0.0986
 3266DOPC   C4A38324  31.513  27.902  11.775 -0.1848 -0.0193 -0.0700
 3266DOPC   C1B38325  30.620  27.443  12.891 -0.0251  0.0734  0.0960
 3266DOPC   D2B38326  30.496  27.332  12.520  0.1475  0.3443 -0.0897
 3266DOPC   C3B38327  30.758  27.425  12.181  0.1337  0.2978  0.2351
 3266DOPC   C4B38328  30.711  27.241  11.738  0.0254  0.3153  0.1248
 3267DOPE   NH338329  32.963  33.359  15.429 -0.1445 -0.0774 -0.2590
 3267DOPE   PO438330  32.948  33.204  15.132 -0.1348  0.2202  0.0254
 3267DOPE   GL138331  32.757  33.320  14.791  0.2861 -0.2130 -0.2290
 3267DOPE   GL238332  32.812  33.270  14.443 -0.1518  0.0381 -0.2692
 3267DOPE   C1A38333  32.693  33.773  14.743 -0.0366 -0.1264  0.1139
 3267DOPE   D2A38334  32.689  34.301  14.626 -0.1090  0.0432 -0.1924
 3267DOPE   C3A38335  33.105  34.395  14.395 -0.0511 -0.0663 -0.1761
 3267DOPE   C4A38336  33.584  34.375  14.344 -0.3341  0.0472 -0.1416
 3267DOPE   C1B38337  33.076  32.971  14.342 -0.0218  0.0875  0.0499
 3267DOPE   D2B38338  33.274  32.624  14.133  0.1107 -0.4460  0.2172
 3267DOPE   C3B38339  33.476  32.784  13.795  0.2051 -0.1818  0.0306
 3267DOPE   C4B38340  33.436  33.196  13.553 -0.1574  0.2695  0.1441
 3268DOPE   NH338341  23.846  32.894  13.655 -0.0483  0.4700 -0.5069
 3268DOPE   PO438342  24.134  32.989  13.697  0.0117  0.0447  0.0155
 3268DOPE   GL138343  24.359  33.011  13.330 -0.0598  0.1253 -0.4174
 3268DOPE   GL238344  24.637  32.916  13.369  0.1237  0.0148 -0.0285
 3268DOPE   C1A38345  24.258  33.032  12.898  0.1543 -0.1631  0.1143
 3268DOPE   D2A38346  24.430  33.158  12.435 -0.3594  0.0109 -0.1992
 3268DOPE   C3A38347  24.503  33.195  11.948  0.4651 -0.0692  0.1004
 3268DOPE   C4A38348  24.842  33.086  11.643  0.1093  0.1300 -0.1029
 3268DOPE   C1B38349  24.535  32.610  13.019 -0.0552 -0.0551 -0.0367
 3268DOPE   D2B38350  24.388  32.595  12.570 -0.1396 -0.0834 -0.1511
 3268DOPE   C3B38351  24.681  32.772  12.304 -0.3317  0.0444  0.0498
 3268DOPE   C4B38352  25.070  32.901  12.081 -0.0635 -0.1345 -0.1612
 3269DOPC   NC338353  33.816   1.835  16.225  0.0240 -0.1100  0.0758
 3269DOPC   PO438354  33.841   1.907  15.848  0.0095 -0.5176  0.1621
 3269DOPC   GL138355  34.036   1.856  15.459 -0.3333  0.2399 -0.2785
 3269DOPC   GL238356  33.739   1.812  15.357 -0.1847  0.1520 -0.0985
 3269DOPC   C1A38357  34.209   1.765  15.072  0.4148 -0.1206  0.0165
 3269DOPC   D2A38358  34.510   1.515  14.844 -0.0572  0.0252 -0.1293
 3269DOPC   C3A38359  34.449   1.329  14.387 -0.0583 -0.0351  0.2052
 3269DOPC   C4A38360  34.558   0.957  14.177  0.1806  0.0687  0.0691
 3269DOPC   C1B38361  33.779   1.487  15.016 -0.0736 -0.0181 -0.4117
 3269DOPC   D2B38362  33.996   1.506  14.600  0.0875  0.1254 -0.0804
 3269DOPC   C3B38363  33.969   1.186  14.286  0.2885 -0.0317 -0.1861
 3269DOPC   C4B38364  34.229   1.214  13.840 -0.0960 -0.0074 -0.0438
 3270DOPC   NC338365  33.700  32.821  15.470 -0.0838  0.2574 -0.1190
 3270DOPC   PO438366  33.974  33.094  15.473  0.2317  0.1690  0.0714
 3270DOPC   GL138367  33.940  33.490  15.169 -0.0426  0.0349 -0.0164
 3270DOPC   GL238368  34.228  33.475  15.110  0.2359 -0.0325 -0.0667
 3270DOPC   C1A38369  33.971  33.709  14.742 -0.1984  0.0715 -0.0172
 3270DOPC   D2A38370  34.216  33.559  14.396  0.1335 -0.2861 -0.1178
 3270DOPC   C3A38371  34.220  33.609  13.951 -0.0598 -0.2976 -0.0462
 3270DOPC   C4A38372  34.424  33.877  13.636 -0.5089 -0.0746  0.1070
 3270DOPC   C1B38373  34.252  33.198  14.733 -0.0661  0.0577 -0.0487
 3270DOPC   D2B38374  33.953  33.096  14.367  0.0834 -0.0342 -0.0528
 3270DOPC   C3B38375  33.539  33.258  14.499 -0.0541 -0.0158 -0.3887
 3270DOPC   C4B38376  33.213  33.524  14.681  0.1253  0.1046 -0.1007
 3271POSM   NC338377  25.650  28.216  12.893  0.2028  0.3006 -0.0703
 3271POSM   PO438378  25.579  27.844  12.846 -0.0908 -0.0053 -0.2488
 3271POSM   AM138379  25.666  27.765  12.500 -0.1784 -0.2950 -0.4567
 3271POSM   AM238380  25.617  27.569  12.329  0.0363 -0.1812 -0.0209
 3271POSM   T1A38381  26.008  27.922  12.204 -0.0148 -0.0805  0.2399
 3271POSM   C2A38382  26.361  28.017  11.978 -0.0628  0.0412 -0.0790
 3271POSM   C3A38383  26.549  28.107  11.547 -0.1733  0.0387  0.2053
 3271POSM   C1B38384  25.500  27.747  12.059  0.1397 -0.0110  0.1421
 3271POSM   D2B38385  25.595  27.882  11.609  0.2297  0.0021 -0.2083
 3271POSM   C3B38386  25.646  28.117  11.218 -0.1281  0.2376  0.3707
 3271POSM   C4B38387  25.593  28.344  10.842  0.0680  0.0487 -0.0895
 3272DOPS   CNO38388  31.638  33.289  15.392 -0.2617 -0.0599  0.1947
 3272DOPS   PO438389  31.859  33.501  15.169  0.2578  0.1461  0.0753
 3272DOPS   GL138390  31.785  33.616  14.727 -0.2794 -0.1624 -0.2653
 3272DOPS   GL238391  32.025  33.757  14.636 -0.0530 -0.0967 -0.0249
 3272DOPS   C1A38392  31.569  33.387  14.386  0.0402  0.0667 -0.3552
 3272DOPS   D2A38393  31.660  33.152  14.001  0.2870  0.0678  0.0246
 3272DOPS   C3A38394  31.741  32.779  13.705  0.0844  0.1189 -0.2436
 3272DOPS   C4A38395  31.963  32.351  13.731  0.0895 -0.1191  0.1065
 3272DOPS   C1B38396  32.190  34.157  14.429 -0.2433  0.1054 -0.0855
 3272DOPS   D2B38397  32.542  34.204  14.173  0.0759  0.1883 -0.1016
 3272DOPS   C3B38398  32.560  33.900  13.803  0.0679  0.1479 -0.2683
 3272DOPS   C4B38399  32.432  33.744  13.386 -0.0044 -0.0694 -0.0848
 3273DOPC   NC338400  28.104  25.310  13.773 -0.0551  0.2242 -0.0840
 3273DOPC   PO438401  27.878  25.268  13.462 -0.2358  0.0953 -0.0294
 3273DOPC   GL138402  28.061  25.098  13.185 -0.2945 -0.2657 -0.3476
 3273DOPC   GL238403  28.095  24.820  13.025  0.0178 -0.0543 -0.3965
 3273DOPC   C1A38404  27.968  25.242  12.806  0.1175 -0.0365 -0.1073
 3273DOPC   D2A38405  27.865  25.562  12.454  0.0459  0.0450  0.0041
 3273DOPC   C3A38406  27.553  25.883  12.486 -0.1533 -0.1621 -0.2403
 3273DOPC   C4A38407  27.468  26.306  12.665 -0.0434 -0.0543 -0.1662
 3273DOPC   C1B38408  28.330  24.857  12.555  0.3156 -0.0303  0.0531
 3273DOPC   D2B38409  28.595  25.028  12.294 -0.2313 -0.0633  0.2655
 3273DOPC   C3B38410  28.940  24.804  12.121 -0.1104 -0.0257 -0.1248
 3273DOPC   C4B38411  29.098  24.443  11.824  0.4738 -0.2800  0.0056
 3274DOPE   NH338412  25.076  29.463  13.324  0.2911  0.1037 -0.1517
 3274DOPE   PO438413  25.173  29.219  13.126  0.1206 -0.0443 -0.0969
 3274DOPE   GL138414  25.396  29.406  12.904 -0.1409 -0.2022  0.0427
 3274DOPE   GL238415  25.554  29.122  12.759  0.0145  0.1710  0.2193
 3274DOPE   C1A38416  25.371  29.655  12.556 -0.1229 -0.2134  0.0085
 3274DOPE   D2A38417  25.279  30.041  12.432  0.0600 -0.0167  0.1007
 3274DOPE   C3A38418  25.454  30.439  12.346  0.2078  0.5133 -0.1442
 3274DOPE   C4A38419  25.584  30.853  12.120 -0.1335 -0.2185  0.2135
 3274DOPE   C1B38420  25.893  29.059  12.423 -0.1780  0.0393  0.5419
 3274DOPE   D2B38421  26.054  28.949  11.988  0.4763  0.0039 -0.0501
 3274DOPE   C3B38422  25.719  28.750  11.735 -0.3296  0.0379 -0.2451
 3274DOPE   C4B38423  25.432  28.410  11.542  0.0564 -0.1234 -0.1335
 3275POSM   NC338424  32.032  32.215  14.598  0.0180  0.2151 -0.0847
 3275POSM   PO438425  32.382  32.382  14.666 -0.0224  0.0096 -0.3326
 3275POSM   AM138426  32.468  32.381  14.349  0.1118  0.1721 -0.2763
 3275POSM   AM238427  32.334  32.497  14.137  0.1424  0.2910 -0.0297
 3275POSM   T1A38428  32.832  32.501  13.996 -0.0086  0.1358 -0.1478
 3275POSM   C2A38429  33.079  32.629  13.649 -0.2593 -0.0802  0.2498
 3275POSM   C3A38430  33.043  32.963  13.301 -0.0582  0.2191 -0.2410
 3275POSM   C1B38431  32.385  32.572  13.760  0.1328  0.3243  0.2261
 3275POSM   D2B38432  32.601  32.734  13.385 -0.1507 -0.2196 -0.3812
 3275POSM   C3B38433  32.465  32.972  12.999 -0.0530  0.3644  0.0653
 3275POSM   C4B38434  32.303  33.365  12.732 -0.1453  0.2334 -0.2405
 3276DOPS   CNO38435  28.434   0.321  14.625  0.0145 -0.4585  0.2256
 3276DOPS   PO438436  28.134   0.556  14.577 -0.0277  0.0508 -0.1250
 3276DOPS   GL138437  28.274   0.853  14.289  0.4485 -0.2186 -0.3756
 3276DOPS   GL238438  28.173   0.709  14.055 -0.0722 -0.1634 -0.3254
 3276DOPS   C1A38439  28.472   1.181  14.026  0.1120 -0.0964  0.0590
 3276DOPS   D2A38440  28.722   1.513  13.824 -0.1584 -0.4859  0.3184
 3276DOPS   C3A38441  28.716   1.642  13.354 -0.0940  0.0622  0.0790
 3276DOPS   C4A38442  28.746   2.072  13.178  0.1272 -0.0410  0.3065
 3276DOPS   C1B38443  28.543   0.769  13.785 -0.1718 -0.1236  0.2759
 3276DOPS   D2B38444  28.747   0.691  13.351 -0.4133 -0.0768 -0.4146
 3276DOPS   C3B38445  28.676   1.007  12.990 -0.0120 -0.1323  0.2097
 3276DOPS   C4B38446  28.512   1.398  12.765 -0.0671 -0.1719 -0.0071
 3277DOPC   NC338447  31.227  27.548  13.825 -0.1719 -0.0673 -0.0843
 3277DOPC   PO438448  31.386  27.886  13.918  0.3623 -0.0507 -0.1643
 3277DOPC   GL138449  31.507  27.789  13.568 -0.4220  0.0919 -0.2003
 3277DOPC   GL238450  31.226  27.894  13.402  0.0171  0.1817 -0.3201
 3277DOPC   C1A38451  31.906  27.642  13.377  0.1876  0.1125  0.1336
 3277DOPC   D2A38452  32.196  27.958  13.169  0.2079  0.0126  0.1715
 3277DOPC   C3A38453  32.515  27.733  12.889  0.2117  0.0281  0.0070
 3277DOPC   C4A38454  32.682  27.265  12.827  0.2570 -0.1901  0.0980
 3277DOPC   C1B38455  31.521  27.776  13.081  0.2092 -0.3742 -0.1703
 3277DOPC   D2B38456  31.560  27.709  12.648  0.0539  0.1976 -0.0174
 3277DOPC   C3B38457  31.983  27.683  12.611 -0.3425 -0.3175  0.1091
 3277DOPC   C4B38458  32.369  27.488  12.490 -0.2205  0.3073  0.1084
 3278DOPE   NH338459  28.763  28.774  13.210 -0.0491 -0.1101 -0.0007
 3278DOPE   PO438460  28.613  28.537  13.050  0.2857  0.0663 -0.0075
 3278DOPE   GL138461  28.572  28.831  12.782 -0.0148 -0.2670 -0.4112
 3278DOPE   GL238462  28.679  28.658  12.577  0.0109 -0.5035 -0.4437
 3278DOPE   C1A38463  28.494  29.073  12.416 -0.2881  0.0637  0.0455
 3278DOPE   D2A38464  28.710  29.473  12.341 -0.0202 -0.0128 -0.0992
 3278DOPE   C3A38465  28.992  29.709  11.997 -0.3337 -0.2268 -0.5242
 3278DOPE   C4A38466  29.061  30.128  11.908 -0.1227  0.0332  0.0506
 3278DOPE   C1B38467  28.715  28.676  12.124  0.0791  0.0724 -0.1488
 3278DOPE   D2B38468  28.745  28.808  11.679 -0.0718 -0.3462  0.0454
 3278DOPE   C3B38469  28.347  28.985  11.503  0.1367 -0.0323 -0.1007
 3278DOPE   C4B38470  28.071  29.334  11.372 -0.2141  0.3138 -0.0796
 3279DOPE   NH338471  27.575  28.640  13.263 -0.0911 -0.1936  0.0595
 3279DOPE   PO438472  27.698  28.651  12.975  0.1750  0.1484  0.2507
 3279DOPE   GL138473  27.544  28.829  12.649  0.2041  0.0110 -0.1783
 3279DOPE   GL238474  27.350  28.938  12.829 -0.1138 -0.2225  0.1879
 3279DOPE   C1A38475  27.752  28.668  12.238 -0.0149  0.0771  0.2100
 3279DOPE   D2A38476  27.888  28.915  11.853 -0.1402  0.2900 -0.5074
 3279DOPE   C3A38477  28.182  29.131  12.009 -0.0821 -0.1394 -0.0617
 3279DOPE   C4A38478  28.577  29.203  11.939  0.1338  0.0025 -0.0617
 3279DOPE   C1B38479  27.191  28.993  12.399  0.0650 -0.1700 -0.0237
 3279DOPE   D2B38480  27.213  28.812  11.927  0.0178 -0.0893  0.1700
 3279DOPE   C3B38481  27.337  29.112  11.543  0.0608 -0.1169 -0.0375
 3279DOPE   C4B38482  27.642  29.125  11.182  0.4448  0.2877 -0.1947
 3280DOPC   NC338483  32.258   1.199  15.274 -0.1997  0.2704  0.1238
 3280DOPC   PO438484  32.264   0.820  15.392 -0.0095  0.2516  0.0297
 3280DOPC   GL138485  32.374   0.837  15.000  0.1207 -0.0741  0.0941
 3280DOPC   GL238486  32.332   0.549  14.896  0.1457  0.2251  0.0275
 3280DOPC   C1A38487  32.435   1.114  14.642  0.0497 -0.2014  0.0331
 3280DOPC   D2A38488  32.742   1.193  14.266 -0.0211 -0.2984 -0.1111
 3280DOPC   C3A38489  32.545   0.958  13.907  0.0667  0.4662 -0.1106
 3280DOPC   C4A38490  32.188   0.662  13.932 -0.0281  0.2479 -0.1327
 3280DOPC   C1B38491  32.183   0.721  14.529  0.1717 -0.0918 -0.1152
 3280DOPC   D2B38492  32.145   1.087  14.232  0.0222  0.1271  0.1021
 3280DOPC   C3B38493  32.371   1.460  14.102 -0.3252 -0.0875 -0.1623
 3280DOPC   C4B38494  32.427   1.741  13.751  0.0147  0.0609 -0.2585
 3281POSM   NC338495  32.136  30.511  14.308  0.0131  0.1923 -0.1343
 3281POSM   PO438496  32.337  30.180  14.180  0.1414  0.1894  0.2139
 3281POSM   AM138497  32.460  30.207  13.879 -0.4450 -0.2090  0.1794
 3281POSM   AM238498  32.309  30.105  13.606 -0.3167 -0.2893  0.3018
 3281POSM   T1A38499  32.760  30.410  13.506  0.1441 -0.1636  0.3178
 3281POSM   C2A38500  33.062  30.787  13.403  0.0062 -0.0641  0.1746
 3281POSM   C3A38501  33.519  30.872  13.251  0.2421  0.1654  0.2062
 3281POSM   C1B38502  32.240  30.259  13.288 -0.0022  0.0730  0.0158
 3281POSM   D2B38503  32.379  30.183  12.842  0.0916 -0.1765 -0.2117
 3281POSM   C3B38504  32.296  30.052  12.417  0.1764 -0.0965 -0.0673
 3281POSM   C4B38505  31.863  30.019  12.160 -0.0163 -0.0277  0.1781
 3282DOPE   NH338506  22.853  33.764  13.761 -0.0335 -0.1620 -0.1722
 3282DOPE   PO438507  23.138  33.757  13.608  0.1298 -0.2739 -0.1074
 3282DOPE   GL138508  23.121  33.962  13.340  0.1167  0.0097 -0.0319
 3282DOPE   GL238509  22.914  34.085  13.296 -0.1112  0.1970  0.1620
 3282DOPE   C1A38510  23.302  33.897  12.917 -0.0132 -0.0814 -0.2303
 3282DOPE   D2A38511  23.405  34.184  12.568  0.3399  0.2807 -0.2982
 3282DOPE   C3A38512  23.577  34.077  12.142 -0.1819 -0.1492  0.0700
 3282DOPE   C4A38513  23.829  33.948  11.787  0.2961  0.1336  0.0260
 3282DOPE   C1B38514  23.275  34.369  13.130  0.0281  0.0065 -0.1650
 3282DOPE   D2B38515  23.603  34.616  12.935 -0.1019 -0.1617  0.0198
 3282DOPE   C3B38516  23.626  34.677  12.491  0.2131  0.0067 -0.0265
 3282DOPE   C4B38517  23.465  34.548  12.074  0.2884 -0.0079  0.1187
 3283DOPS   CNO38518  28.208  24.079  13.461 -0.3743  0.0154  0.0501
 3283DOPS   PO438519  27.991  24.328  13.276 -0.0807 -0.2994 -0.2656
 3283DOPS   GL138520  27.863  24.421  12.849  0.2619 -0.0599 -0.3768
 3283DOPS   GL238521  27.641  24.613  12.943 -0.0875  0.0264  0.0930
 3283DOPS   C1A38522  27.963  24.528  12.401  0.0934 -0.4581  0.2654
 3283DOPS   D2A38523  27.690  24.655  12.040  0.2225  0.1958  0.0210
 3283DOPS   C3A38524  27.345  24.335  11.909 -0.2815 -0.4251  0.0927
 3283DOPS   C4A38525  27.235  24.027  11.541  0.3020 -0.1054 -0.0973
 3283DOPS   C1B38526  27.673  24.905  12.675  0.0519  0.2276 -0.0072
 3283DOPS   D2B38527  27.878  25.065  12.304  0.1372  0.0497 -0.1509
 3283DOPS   C3B38528  28.199  24.919  11.987 -0.2395  0.2459  0.0154
 3283DOPS   C4B38529  28.549  24.621  11.894  0.1169  0.1171  0.1718
 3284POSM   NC338530  30.354  32.868  14.924  0.0334  0.1455  0.0299
 3284POSM   PO438531  30.570  33.190  14.957 -0.1183 -0.0314  0.0325
 3284POSM   AM138532  30.621  33.087  14.625  0.3918  0.0725  0.2841
 3284POSM   AM238533  30.738  33.051  14.363 -0.0144 -0.1127 -0.0365
 3284POSM   T1A38534  30.296  32.849  14.310 -0.1446 -0.0560 -0.0145
 3284POSM   C2A38535  29.935  33.024  14.167 -0.1032  0.0055 -0.0226
 3284POSM   C3A38536  29.767  33.369  13.840 -0.0830 -0.0850 -0.2571
 3284POSM   C1B38537  30.714  33.110  14.031  0.0164  0.1486  0.1132
 3284POSM   D2B38538  30.797  32.864  13.646 -0.1150  0.0466  0.1205
 3284POSM   C3B38539  30.953  33.226  13.382 -0.0861 -0.0735 -0.1788
 3284POSM   C4B38540  31.081  33.613  13.095  0.0152  0.1607 -0.1155
 3285POSM   NC338541  28.331  31.172  14.064 -0.0226  0.1574  0.0890
 3285POSM   PO438542  28.210  31.537  14.151 -0.1826  0.0360 -0.1070
 3285POSM   AM138543  28.216  31.699  13.879 -0.1059 -0.2224 -0.0677
 3285POSM   AM238544  28.463  31.868  13.804 -0.2368 -0.0413  0.0409
 3285POSM   T1A38545  28.241  31.706  13.400  0.1797 -0.1204  0.0942
 3285POSM   C2A38546  28.320  31.768  12.947  0.1090  0.3729  0.1021
 3285POSM   C3A38547  28.721  31.890  12.719 -0.0428  0.1077  0.0166
 3285POSM   C1B38548  28.646  31.904  13.539  0.3536  0.0924 -0.1310
 3285POSM   D2B38549  28.878  32.043  13.182  0.2228  0.1187  0.0712
 3285POSM   C3B38550  29.198  32.389  13.212 -0.2569  0.0553 -0.3492
 3285POSM   C4B38551  29.517  32.682  13.408 -0.2693 -0.0824  0.1793
 3286DOPC   NC338552  28.514  23.040  13.344 -0.2612  0.2792 -0.0438
 3286DOPC   PO438553  28.852  23.066  13.135  0.1136 -0.1510 -0.1425
 3286DOPC   GL138554  28.918  23.127  12.778 -0.1173 -0.2734  0.0659
 3286DOPC   GL238555  28.982  23.002  12.454 -0.2261 -0.1601  0.0115
 3286DOPC   C1A38556  28.523  23.242  12.540  0.0118  0.0061 -0.0496
 3286DOPC   D2A38557  28.424  23.522  12.168  0.1456  0.0581 -0.0378
 3286DOPC   C3A38558  28.558  23.729  11.797  0.1980 -0.1465  0.3747
 3286DOPC   C4A38559  28.971  23.948  11.747  0.2137 -0.0604  0.1287
 3286DOPC   C1B38560  28.684  23.079  12.092  0.2556  0.0251 -0.1546
 3286DOPC   D2B38561  28.689  22.993  11.663 -0.0223  0.2647  0.2627
 3286DOPC   C3B38562  29.090  23.126  11.468 -0.3834  0.3367 -0.0700
 3286DOPC   C4B38563  29.473  23.178  11.219  0.0873  0.1073 -0.1593
 3287DOPS   CNO38564  31.339  29.621  13.959 -0.0153  0.1563  0.1714
 3287DOPS   PO438565  31.716  29.658  14.017  0.3050 -0.0494  0.0357
 3287DOPS   GL138566  31.737  29.524  13.550 -0.1546 -0.2997 -0.0964
 3287DOPS   GL238567  31.445  29.485  13.524  0.1748  0.4702  0.1891
 3287DOPS   C1A38568  31.622  29.712  13.143  0.5000  0.0462 -0.1933
 3287DOPS   D2A38569  31.583  29.583  12.665 -0.2435  0.0505 -0.4710
 3287DOPS   C3A38570  31.225  29.674  12.393 -0.5133  0.0191 -0.0879
 3287DOPS   C4A38571  30.889  29.770  12.080  0.1224  0.1936  0.0112
 3287DOPS   C1B38572  31.632  29.217  13.175 -0.0780 -0.0424  0.1235
 3287DOPS   D2B38573  31.932  29.190  12.833  0.1240  0.0652  0.0178
 3287DOPS   C3B38574  31.818  29.123  12.431 -0.0741  0.3001  0.0426
 3287DOPS   C4B38575  31.791  29.011  11.977  0.2059  0.1691 -0.3161
 3288DOPE   NH338576  33.464   1.399  15.437 -0.2665 -0.2322  0.1320
 3288DOPE   PO438577  33.192   1.205  15.389 -0.1716 -0.3385 -0.4578
 3288DOPE   GL138578  32.962   1.349  15.089  0.2039 -0.2903  0.0426
 3288DOPE   GL238579  32.810   1.084  15.012  0.3242 -0.0923 -0.0112
 3288DOPE   C1A38580  33.142   1.441  14.667 -0.0676  0.0797 -0.2566
 3288DOPE   D2A38581  33.110   1.684  14.236 -0.2029 -0.0783 -0.0021
 3288DOPE   C3A38582  33.263   1.580  13.799 -0.0890  0.0098  0.2308
 3288DOPE   C4A38583  33.238   1.512  13.315 -0.2390  0.1187  0.0313
 3288DOPE   C1B38584  32.823   0.773  14.669 -0.1231 -0.0276  0.0036
 3288DOPE   D2B38585  32.902   0.610  14.274 -0.1481  0.0650  0.0360
 3288DOPE   C3B38586  32.554   0.359  14.153 -0.1059  0.2168 -0.1285
 3288DOPE   C4B38587  32.174   0.139  14.506 -0.2906  0.0404  0.1654
 3289POSM   NC338588  33.579  29.215  13.804 -0.0532  0.3757 -0.0398
 3289POSM   PO438589  33.486  28.838  13.738 -0.2744 -0.1121 -0.3235
 3289POSM   AM138590  33.446  28.847  13.435  0.0277 -0.1401 -0.0093
 3289POSM   AM238591  33.314  28.720  13.232 -0.6157 -0.1253  0.0588
 3289POSM   T1A38592  33.764  28.780  13.027 -0.3223 -0.0059  0.5011
 3289POSM   C2A38593  34.003  28.716  12.688  0.1039  0.0339  0.0767
 3289POSM   C3A38594  34.374  28.540  12.552 -0.3161  0.1620 -0.0136
 3289POSM   C1B38595  33.402  28.402  13.129  0.0651 -0.1786 -0.0027
 3289POSM   D2B38596  33.551  28.043  12.877  0.0015  0.0790  0.2871
 3289POSM   C3B38597  33.878  27.779  12.597  0.0935 -0.2785 -0.0024
 3289POSM   C4B38598  34.174  27.469  12.803 -0.0586  0.2699  0.3851
 3290POSM   NC338599   0.039  26.066  14.584  0.1032 -0.2936  0.1402
 3290POSM   PO438600  -0.003  26.342  14.301 -0.0821 -0.0464 -0.1448
 3290POSM   AM138601   0.070  26.335  13.970  0.0956  0.3950  0.1662
 3290POSM   AM238602   0.208  26.545  13.876 -0.1344  0.0069 -0.0206
 3290POSM   T1A38603   0.279  26.056  13.612  0.0797 -0.0436 -0.0339
 3290POSM   C2A38604   0.383  25.779  13.267 -0.1079  0.1770 -0.4075
 3290POSM   C3A38605   0.207  25.700  12.830 -0.2077 -0.1042  0.3143
 3290POSM   C1B38606   0.174  26.576  13.546 -0.1974 -0.0928  0.1501
 3290POSM   D2B38607   0.052  26.633  13.062 -0.0059  0.0523 -0.0710
 3290POSM   C3B38608  -0.095  27.019  12.818  0.0797  0.1349 -0.1735
 3290POSM   C4B38609  -0.023  27.199  12.371  0.4881  0.0547 -0.0781
 3291DOPC   NC338610  25.935  31.318  13.717  0.2841 -0.0223 -0.0639
 3291DOPC   PO438611  26.290  31.473  13.863 -0.3547 -0.2587  0.0429
 3291DOPC   GL138612  26.222  31.772  13.538 -0.1228  0.2716 -0.4746
 3291DOPC   GL238613  26.014  31.669  13.318  0.0750 -0.0926  0.1100
 3291DOPC   C1A38614  26.269  32.142  13.351 -0.1298  0.0867  0.1161
 3291DOPC   D2A38615  26.362  32.383  12.933  0.0735 -0.1001 -0.1426
 3291DOPC   C3A38616  26.150  32.399  12.523 -0.1569 -0.1195 -0.0754
 3291DOPC   C4A38617  26.189  32.202  12.105  0.0524 -0.0940 -0.0230
 3291DOPC   C1B38618  25.873  31.561  12.897  0.0703  0.0507  0.0909
 3291DOPC   D2B38619  26.072  31.258  12.592  0.2513  0.1243  0.1355
 3291DOPC   C3B38620  26.394  31.414  12.320  0.2749  0.0283  0.0109
 3291DOPC   C4B38621  26.385  31.750  12.006  0.1075 -0.0926 -0.1494
 3292DOPC   NC338622  24.481  26.666  12.325 -0.2352 -0.2297 -0.2334
 3292DOPC   PO438623  24.656  26.278  12.291 -0.1053  0.1298  0.1471
 3292DOPC   GL138624  24.330  26.274  12.079  0.0936  0.2367  0.1722
 3292DOPC   GL238625  24.333  26.477  11.920 -0.1395 -0.1301  0.0313
 3292DOPC   C1A38626  23.992  26.081  11.800  0.0076 -0.1325 -0.0400
 3292DOPC   D2A38627  23.710  26.178  11.363 -0.1402 -0.0763  0.2808
 3292DOPC   C3A38628  23.890  26.461  11.018  0.0541  0.4816  0.4151
 3292DOPC   C4A38629  23.941  26.467  10.560 -0.0283  0.0258  0.0637
 3292DOPC   C1B38630  24.259  26.331  11.464 -0.1950  0.3029  0.0960
 3292DOPC   D2B38631  24.366  26.495  11.037 -0.3873  0.0219 -0.0710
 3292DOPC   C3B38632  24.761  26.575  10.865  0.1801 -0.4299  0.0387
 3292DOPC   C4B38633  25.218  26.674  10.819  0.0639  0.3775 -0.1770
 3293POSM   NC338634  29.024  23.855  13.068  0.2321  0.0108 -0.1524
 3293POSM   PO438635  29.152  23.509  12.947  0.1776  0.0101  0.2974
 3293POSM   AM138636  29.344  23.485  12.661  0.0580 -0.1966  0.3370
 3293POSM   AM238637  29.315  23.462  12.402 -0.0010 -0.2538 -0.0267
 3293POSM   T1A38638  29.808  23.339  12.405  0.1805 -0.1600 -0.0460
 3293POSM   C2A38639  30.194  23.131  12.206  0.1601  0.3083  0.2027
 3293POSM   C3A38640  30.564  22.936  12.020 -0.3356  0.0941 -0.3651
 3293POSM   C1B38641  29.373  23.172  12.233 -0.0015  0.0195  0.0203
 3293POSM   D2B38642  29.174  22.879  11.909 -0.0258 -0.1186  0.1646
 3293POSM   C3B38643  29.409  22.566  11.740  0.0439 -0.0574  0.1686
 3293POSM   C4B38644  29.742  22.417  11.445 -0.1257 -0.2021 -0.0307
 3294POSM   NC338645  34.350  28.358  14.299 -0.1942 -0.3346 -0.0399
 3294POSM   PO438646  34.228  28.643  14.056  0.0348 -0.0373  0.0591
 3294POSM   AM138647  34.388  28.757  13.779 -0.3811  0.0109 -0.0206
 3294POSM   AM238648  34.582  28.700  13.600  0.0354 -0.1265 -0.0870
 3294POSM   T1A38649  34.305  29.012  13.353  0.3183 -0.0701  0.1798
 3294POSM   C2A38650  34.095  29.387  13.134 -0.0095  0.0501  0.0061
 3294POSM   C3A38651  33.904  29.775  13.271  0.0872  0.0633  0.0446
 3294POSM   C1B38652  34.849  28.541  13.511 -0.0297 -0.0717 -0.1272
 3294POSM   D2B38653  35.258  28.336  13.310  0.0655 -0.0830 -0.0229
 3294POSM   C3B38654  35.405  27.927  13.389 -0.2995  0.1182  0.2927
 3294POSM   C4B38655  35.605  27.665  13.705  0.0496 -0.1595 -0.0666
 3295DOPE   NH338656  31.706   0.747  15.533 -0.1533  0.2016  0.0645
 3295DOPE   PO438657  31.796   1.047  15.540  0.1073 -0.5030 -0.0477
 3295DOPE   GL138658  31.835   1.148  15.157  0.2699 -0.1603 -0.2778
 3295DOPE   GL238659  31.880   0.895  15.080 -0.2338 -0.0419 -0.2439
 3295DOPE   C1A38660  31.581   1.431  14.869  0.0863 -0.1081 -0.2800
 3295DOPE   D2A38661  31.470   1.775  14.575 -0.0069  0.0475 -0.1109
 3295DOPE   C3A38662  31.773   1.923  14.277  0.4130 -0.3298  0.0719
 3295DOPE   C4A38663  32.178   1.982  14.107 -0.1175 -0.1898 -0.0007
 3295DOPE   C1B38664  31.824   1.006  14.694  0.1022 -0.1163 -0.1239
 3295DOPE   D2B38665  31.669   1.249  14.328 -0.0930  0.0339 -0.2819
 3295DOPE   C3B38666  31.907   1.538  13.966 -0.0360 -0.2168  0.0389
 3295DOPE   C4B38667  32.010   1.557  13.490 -0.1685 -0.0234  0.0538
 3296DOPC   NC338668  29.131   0.121  14.122 -0.2587 -0.3127  0.2140
 3296DOPC   PO438669  29.357   0.250  14.365  0.1355  0.0879  0.2169
 3296DOPC   GL138670  29.702   0.427  14.146  0.6706  0.1352  0.1099
 3296DOPC   GL238671  29.996   0.434  14.328 -0.2718 -0.0955 -0.1751
 3296DOPC   C1A38672  29.705   0.235  13.707  0.3605 -0.0339  0.2194
 3296DOPC   D2A38673  29.624  -0.021  13.322  0.0024 -0.1242 -0.0526
 3296DOPC   C3A38674  30.025  -0.129  13.137  0.0021  0.1043 -0.0912
 3296DOPC   C4A38675  30.298  -0.190  12.815 -0.3037 -0.0615  0.0132
 3296DOPC   C1B38676  30.050   0.562  13.844 -0.0421 -0.0661 -0.0829
 3296DOPC   D2B38677  30.199   0.323  13.513 -0.1380 -0.0861  0.0763
 3296DOPC   C3B38678  30.663   0.357  13.294  0.3128  0.3303 -0.2163
 3296DOPC   C4B38679  31.054   0.185  13.125  0.0136  0.0851 -0.0573
 3297DOPE   NH338680  31.405  30.052  14.216  0.3247  0.1799 -0.2183
 3297DOPE   PO438681  31.428  30.209  13.940  0.0315 -0.0536 -0.1357
 3297DOPE   GL138682  31.505  30.345  13.671  0.2217  0.0409  0.1794
 3297DOPE   GL238683  31.219  30.476  13.590  0.0911 -0.0595 -0.0495
 3297DOPE   C1A38684  31.476  30.232  13.228  0.3370 -0.0495  0.2743
 3297DOPE   D2A38685  31.371  30.433  12.802  0.0091  0.0653 -0.0421
 3297DOPE   C3A38686  31.495  30.177  12.469 -0.1824 -0.1894  0.0566
 3297DOPE   C4A38687  31.433  30.172  12.007 -0.2009 -0.3726 -0.0356
 3297DOPE   C1B38688  30.938  30.366  13.287 -0.3462  0.1236  0.2762
 3297DOPE   D2B38689  30.838  30.659  12.979  0.0016 -0.2219 -0.1852
 3297DOPE   C3B38690  30.552  30.718  12.624 -0.2769  0.1403  0.3018
 3297DOPE   C4B38691  30.477  31.038  12.295  0.0010 -0.2602 -0.1616
 3298DOPE   NH338692  33.889  27.472  13.740  0.2270  0.0830  0.1406
 3298DOPE   PO438693  33.548  27.530  13.749 -0.2793  0.0325  0.2887
 3298DOPE   GL138694  33.692  27.609  13.360  0.3132 -0.6239 -0.0901
 3298DOPE   GL238695  33.706  27.937  13.391  0.0671 -0.2131  0.1807
 3298DOPE   C1A38696  34.032  27.812  13.120 -0.1680 -0.1225  0.2737
 3298DOPE   D2A38697  34.431  27.995  13.059  0.4713  0.2280  0.2146
 3298DOPE   C3A38698  34.480  27.922  12.655 -0.0936 -0.0953 -0.0984
 3298DOPE   C4A38699  34.377  27.637  12.288 -0.0353  0.1228  0.2749
 3298DOPE   C1B38700  33.251  27.814  13.290 -0.0283  0.0082 -0.1192
 3298DOPE   D2B38701  32.968  27.648  13.039  0.2053  0.1849 -0.0245
 3298DOPE   C3B38702  33.038  27.752  12.563 -0.0327  0.0893 -0.2680
 3298DOPE   C4B38703  33.050  28.219  12.407 -0.0268  0.1261 -0.2283
 3299DOPE   NH338704  29.761  27.486  13.600  0.2012 -0.1289  0.1645
 3299DOPE   PO438705  29.577  27.602  13.401  0.2999  0.0406 -0.0681
 3299DOPE   GL138706  29.520  27.475  13.026 -0.1355  0.2381  0.1442
 3299DOPE   GL238707  29.636  27.680  12.853 -0.2184  0.2382 -0.0314
 3299DOPE   C1A38708  29.252  27.436  12.647  0.2753  0.2444 -0.0972
 3299DOPE   D2A38709  29.460  27.396  12.228  0.4456 -0.2176  0.0053
 3299DOPE   C3A38710  29.739  27.569  11.928 -0.3331 -0.0300 -0.0373
 3299DOPE   C4A38711  29.939  27.782  11.543  0.1805 -0.2069 -0.1466
 3299DOPE   C1B38712  29.618  27.870  12.377 -0.2229  0.0437  0.0166
 3299DOPE   D2B38713  29.275  27.864  12.095 -0.0029  0.1715 -0.0181
 3299DOPE   C3B38714  29.114  28.173  11.816 -0.0925 -0.1872 -0.0077
 3299DOPE   C4B38715  28.960  28.388  11.405  0.0707  0.0276 -0.0873
 3300DOPS   CNO38716  24.270  29.922  13.386  0.3108 -0.3752 -0.4863
 3300DOPS   PO438717  24.297  29.628  13.176 -0.0534 -0.0546  0.0212
 3300DOPS   GL138718  24.689  29.644  12.961 -0.1213  0.2229  0.0328
 3300DOPS   GL238719  24.700  29.517  12.699 -0.3889  0.0649 -0.1940
 3300DOPS   C1A38720  25.091  29.945  12.907 -0.1212 -0.0559 -0.0556
 3300DOPS   D2A38721  25.240  30.357  12.968 -0.3055  0.2427  0.1585
 3300DOPS   C3A38722  25.728  30.473  12.984  0.0126  0.1452 -0.1821
 3300DOPS   C4A38723  26.138  30.573  12.772 -0.1164 -0.1980  0.1020
 3300DOPS   C1B38724  24.930  29.666  12.316  0.0485  0.0459  0.1411
 3300DOPS   D2B38725  25.128  29.835  11.956 -0.0341  0.0680 -0.1478
 3300DOPS   C3B38726  25.125  30.294  11.909  0.1562 -0.0101 -0.2053
 3300DOPS   C4B38727  25.195  30.566  11.567  0.1178 -0.2045  0.1162
 3301DOPE   NH338728  31.112  32.283  14.656  0.1813  0.2938 -0.2501
 3301DOPE   PO438729  31.180  32.203  14.382 -0.2539  0.1544  0.2275
 3301DOPE   GL138730  31.340  32.270  14.025 -0.1922  0.3753 -0.1648
 3301DOPE   GL238731  31.571  32.080  13.967  0.1298  0.2445  0.2961
 3301DOPE   C1A38732  31.203  32.418  13.645  0.2888 -0.1446  0.1769
 3301DOPE   D2A38733  31.167  32.727  13.267  0.1620 -0.3347 -0.0053
 3301DOPE   C3A38734  31.343  32.784  12.814  0.1334 -0.2023 -0.1037
 3301DOPE   C4A38735  31.411  32.481  12.517  0.0514 -0.1962  0.0084
 3301DOPE   C1B38736  31.939  31.871  13.698 -0.1150  0.0018  0.1339
 3301DOPE   D2B38737  31.845  31.662  13.275  0.4124 -0.3749  0.1141
 3301DOPE   C3B38738  31.404  31.710  13.052  0.1192 -0.0320 -0.1465
 3301DOPE   C4B38739  31.202  31.598  12.651 -0.2577 -0.1910  0.1028
 3302DOPE   NH338740  26.262  30.419  13.873  0.0505 -0.1378  0.2561
 3302DOPE   PO438741  26.252  30.140  13.745 -0.0862  0.0763 -0.0869
 3302DOPE   GL138742  26.249  30.071  13.397 -0.0629  0.0828  0.0327
 3302DOPE   GL238743  26.209  29.768  13.401  0.2019 -0.2610 -0.0600
 3302DOPE   C1A38744  26.515  30.267  13.057 -0.0170 -0.0119  0.2184
 3302DOPE   D2A38745  26.652  30.441  12.641  0.1225  0.0649 -0.2527
 3302DOPE   C3A38746  26.457  30.287  12.241 -0.3208  0.0101 -0.0946
 3302DOPE   C4A38747  26.639  30.213  11.810 -0.0767 -0.1141  0.0802
 3302DOPE   C1B38748  26.077  29.914  12.984  0.0459 -0.1136  0.0608
 3302DOPE   D2B38749  26.294  30.011  12.607  0.2815 -0.1296  0.2320
 3302DOPE   C3B38750  26.210  29.918  12.167 -0.1578  0.3318 -0.0967
 3302DOPE   C4B38751  26.041  29.580  11.927  0.1694  0.0995 -0.2135
 3303POSM   NC338752  29.206  22.700  13.078  0.1618  0.4348  0.0163
 3303POSM   PO438753  28.860  22.630  12.869 -0.1088  0.2184 -0.2216
 3303POSM   AM138754  28.914  22.566  12.561 -0.0993 -0.0899 -0.3295
 3303POSM   AM238755  29.150  22.558  12.434  0.0692 -0.1606 -0.0199
 3303POSM   T1A38756  28.777  22.575  12.063  0.2862 -0.0735  0.2292
 3303POSM   C2A38757  28.756  22.432  11.596  0.1617  0.0270  0.2093
 3303POSM   C3A38758  28.638  22.574  11.132 -0.2247  0.1616  0.2720
 3303POSM   C1B38759  29.268  22.416  12.150 -0.2230 -0.1471 -0.1762
 3303POSM   D2B38760  29.119  22.065  11.865 -0.0501 -0.0589 -0.4416
 3303POSM   C3B38761  28.638  22.071  11.872  0.0695  0.0612  0.0950
 3303POSM   C4B38762  28.234  22.066  11.631 -0.0283  0.1032  0.0398
 3304POSM   NC338763  28.415  28.908  13.548 -0.0071 -0.1037  0.1577
 3304POSM   PO438764  28.158  28.819  13.249  0.4426 -0.0507 -0.2365
 3304POSM   AM138765  28.123  28.770  12.937 -0.1318 -0.1141  0.0815
 3304POSM   AM238766  28.017  28.932  12.684 -0.2618 -0.0077  0.1046
 3304POSM   T1A38767  28.186  28.620  12.403  0.1434  0.0618 -0.0213
 3304POSM   C2A38768  28.197  28.580  11.962  0.0978 -0.2150 -0.0074
 3304POSM   C3A38769  28.073  28.575  11.511  0.0222 -0.3059  0.1285
 3304POSM   C1B38770  27.933  29.116  12.493  0.2063  0.0148  0.2014
 3304POSM   D2B38771  27.609  29.153  12.139 -0.0105 -0.0499 -0.0363
 3304POSM   C3B38772  27.761  29.412  11.766 -0.0924  0.0240 -0.0661
 3304POSM   C4B38773  27.436  29.605  11.432 -0.0902 -0.0374 -0.2099
 3305DOPC   NC338774  30.302  30.629  13.758 -0.1681  0.0710  0.0219
 3305DOPC   PO438775  30.201  30.289  13.606  0.0307  0.0082  0.3578
 3305DOPC   GL138776  30.219  30.337  13.176  0.1122 -0.0230  0.1006
 3305DOPC   GL238777  30.460  30.266  13.104 -0.1131  0.0293 -0.1128
 3305DOPC   C1A38778  30.116  30.650  12.885  0.0659  0.0157 -0.0772
 3305DOPC   D2A38779  30.094  31.122  12.717  0.0446  0.4477  0.1306
 3305DOPC   C3A38780  30.187  31.481  13.012  0.2070  0.3750  0.3556
 3305DOPC   C4A38781  30.452  31.510  13.374 -0.3948 -0.1035  0.1041
 3305DOPC   C1B38782  30.647  30.152  12.731 -0.0439 -0.0332  0.0614
 3305DOPC   D2B38783  30.445  29.901  12.412  0.1639 -0.2436  0.0576
 3305DOPC   C3B38784  30.098  30.004  12.140  0.0970 -0.3202 -0.1244
 3305DOPC   C4B38785  29.805  29.724  11.890 -0.0537  0.1294 -0.1304
 3306DOPC   NC338786  27.811  32.275  13.829  0.1808  0.1911 -0.4934
 3306DOPC   PO438787  27.447  32.142  13.711  0.1718  0.0511  0.3180
 3306DOPC   GL138788  27.435  31.926  13.394 -0.1290 -0.2423  0.1666
 3306DOPC   GL238789  27.256  31.978  13.184  0.2611 -0.0409 -0.0498
 3306DOPC   C1A38790  27.661  32.251  13.087 -0.0659 -0.1457 -0.2531
 3306DOPC   D2A38791  27.789  32.512  12.656  0.1352 -0.1099 -0.1380
 3306DOPC   C3A38792  27.622  32.893  12.487  0.1814 -0.0232  0.0079
 3306DOPC   C4A38793  27.368  33.175  12.170 -0.1841  0.2811  0.2475
 3306DOPC   C1B38794  27.380  31.969  12.761 -0.1602 -0.0159 -0.0971
 3306DOPC   D2B38795  27.206  31.628  12.504 -0.0626 -0.0336 -0.1879
 3306DOPC   C3B38796  27.174  31.566  12.075 -0.1962  0.0982  0.2258
 3306DOPC   C4B38797  27.600  31.487  11.830  0.1229 -0.0752  0.0896
 3307POSM   NC338798  26.819  34.236  14.216 -0.1511 -0.0507  0.2322
 3307POSM   PO438799  26.459  34.126  14.230  0.0553  0.0849  0.3164
 3307POSM   AM138800  26.519  33.885  14.000  0.2262 -0.0669  0.0909
 3307POSM   AM238801  26.777  33.782  13.965 -0.0692  0.1883  0.0308
 3307POSM   T1A38802  26.451  33.788  13.529  0.5234 -0.1308  0.2700
 3307POSM   C2A38803  26.139  33.472  13.456  0.1095  0.2334  0.0596
 3307POSM   C3A38804  25.755  33.431  13.177 -0.2811  0.2859 -0.2663
 3307POSM   C1B38805  26.919  33.955  13.726  0.0019  0.0620 -0.1683
 3307POSM   D2B38806  26.892  34.097  13.298 -0.3258 -0.3282  0.1981
 3307POSM   C3B38807  26.828  34.558  13.244  0.2490 -0.0228 -0.0552
 3307POSM   C4B38808  27.008  34.961  13.119 -0.0823  0.1064 -0.1304
 3308DOPC   NC338809  33.405  25.803  14.024 -0.3390  0.2234 -0.0781
 3308DOPC   PO438810  32.987  25.780  14.029  0.0107  0.0778 -0.3797
 3308DOPC   GL138811  33.180  25.592  13.588  0.1825  0.0627 -0.1712
 3308DOPC   GL238812  33.280  25.318  13.658 -0.3254  0.3084 -0.2061
 3308DOPC   C1A38813  33.021  25.603  13.111  0.1019  0.2017  0.0563
 3308DOPC   D2A38814  33.169  25.621  12.657 -0.0727  0.0218 -0.0670
 3308DOPC   C3A38815  32.941  25.774  12.306  0.2317  0.1107  0.1564
 3308DOPC   C4A38816  32.938  25.848  11.881  0.0648 -0.2878  0.2859
 3308DOPC   C1B38817  33.242  25.166  13.212 -0.3020  0.2370 -0.1515
 3308DOPC   D2B38818  33.234  25.144  12.722  0.2036 -0.1278 -0.1134
 3308DOPC   C3B38819  33.658  25.011  12.507 -0.1983  0.0952 -0.0563
 3308DOPC   C4B38820  34.052  25.171  12.473 -0.1015  0.0679 -0.2166
 3309POSM   NC338821  23.482  30.514  13.119 -0.2120 -0.2590 -0.1472
 3309POSM   PO438822  23.727  30.209  13.244  0.0755 -0.0322  0.1991
 3309POSM   AM138823  23.979  30.228  13.034  0.1434  0.0495 -0.1010
 3309POSM   AM238824  23.942  30.296  12.766  0.0730 -0.1648  0.1502
 3309POSM   T1A38825  24.431  30.201  12.815 -0.2417 -0.2508  0.2939
 3309POSM   C2A38826  24.698  30.051  12.525 -0.0156 -0.0203  0.0020
 3309POSM   C3A38827  24.622  29.956  12.058  0.1569 -0.3117  0.4285
 3309POSM   C1B38828  24.051  30.374  12.438  0.0526 -0.0224  0.0904
 3309POSM   D2B38829  24.151  30.453  12.002 -0.1607 -0.0977 -0.1964
 3309POSM   C3B38830  23.828  30.776  11.772 -0.2479  0.0344 -0.1068
 3309POSM   C4B38831  23.641  31.165  11.852 -0.1033 -0.0278  0.1163
 3310DOPC   NC338832  26.294  26.690  13.139  0.0145 -0.5335 -0.0101
 3310DOPC   PO438833  26.026  26.930  12.980  0.0539  0.0560 -0.3250
 3310DOPC   GL138834  26.136  27.052  12.638  0.1156 -0.0978 -0.2491
 3310DOPC   GL238835  26.115  26.811  12.508  0.0228  0.0786 -0.1562
 3310DOPC   C1A38836  26.150  27.424  12.320  0.2773 -0.1344  0.1206
 3310DOPC   D2A38837  26.156  27.543  11.860  0.0600 -0.0829 -0.0947
 3310DOPC   C3A38838  26.568  27.587  11.640  0.1524 -0.2111 -0.0993
 3310DOPC   C4A38839  27.016  27.420  11.625 -0.0913 -0.0270 -0.1768
 3310DOPC   C1B38840  26.108  26.899  12.084  0.0900  0.0392  0.0352
 3310DOPC   D2B38841  26.215  26.894  11.651 -0.3543  0.1137 -0.0130
 3310DOPC   C3B38842  26.180  27.280  11.384  0.2328  0.0207  0.3484
 3310DOPC   C4B38843  25.920  27.606  11.142  0.0441 -0.0865  0.1801
 3311POSM   NC338844  24.923  34.306  13.737  0.1979  0.1411  0.2620
 3311POSM   PO438845  24.679  34.622  13.699 -0.0459 -0.0414 -0.1878
 3311POSM   AM138846  24.743  34.540  13.390  0.0463  0.1324  0.0395
 3311POSM   AM238847  24.591  34.553  13.163 -0.1591 -0.0373 -0.2454
 3311POSM   T1A38848  25.058  34.514  12.926 -0.2520  0.0253 -0.2219
 3311POSM   C2A38849  25.083  34.283  12.500 -0.2662  0.1121  0.1288
 3311POSM   C3A38850  24.873  33.969  12.295  0.2258  0.1293  0.1255
 3311POSM   C1B38851  24.622  34.765  12.932  0.2267 -0.1258 -0.3475
 3311POSM   D2B38852  24.660  34.948  12.512  0.1476  0.2587 -0.0435
 3311POSM   C3B38853  24.866  34.633  12.232 -0.1308 -0.0917 -0.1981
 3311POSM   C4B38854  25.162  34.328  12.010 -0.0136  0.2577 -0.1846
 3312DOPE   NH338855  26.754  31.148  13.657  0.3544  0.0921  0.1870
 3312DOPE   PO438856  27.077  31.189  13.697  0.1746 -0.0407 -0.0142
 3312DOPE   GL138857  27.017  31.464  13.380 -0.1343  0.1278 -0.0533
 3312DOPE   GL238858  27.221  31.305  13.210  0.0632  0.0328 -0.0408
 3312DOPE   C1A38859  26.920  31.699  12.976 -0.0569  0.0993  0.0577
 3312DOPE   D2A38860  26.757  31.764  12.528  0.1583  0.3697 -0.1587
 3312DOPE   C3A38861  26.800  32.019  12.140 -0.0395  0.2929  0.1536
 3312DOPE   C4A38862  26.624  32.357  11.902  0.1673  0.0740 -0.0398
 3312DOPE   C1B38863  27.399  31.224  12.767  0.0809  0.1462  0.0087
 3312DOPE   D2B38864  27.616  31.004  12.418 -0.0525 -0.0693  0.2006
 3312DOPE   C3B38865  27.370  31.154  12.088  0.2692 -0.0195 -0.1366
 3312DOPE   C4B38866  27.204  31.123  11.655  0.1305  0.0171  0.2609
 3313DOPC   NC338867   0.917  26.481  14.578 -0.1738  0.0336 -0.0390
 3313DOPC   PO438868   0.663  26.521  14.243 -0.2255 -0.0011  0.0543
 3313DOPC   GL138869   0.626  26.320  13.961 -0.2005 -0.1640  0.2882
 3313DOPC   GL238870   0.763  26.101  13.872  0.1699  0.0448 -0.1873
 3313DOPC   C1A38871   0.654  26.364  13.492 -0.0225  0.2641  0.1166
 3313DOPC   D2A38872   0.491  26.314  13.058 -0.1395  0.0001 -0.0546
 3313DOPC   C3A38873   0.249  26.341  12.726  0.0153  0.0445 -0.3026
 3313DOPC   C4A38874   0.141  26.022  12.350 -0.0652  0.2487 -0.0860
 3313DOPC   C1B38875   1.119  26.251  13.556  0.1958 -0.1625 -0.1095
 3313DOPC   D2B38876   1.445  26.212  13.217 -0.2390 -0.1053  0.1979
 3313DOPC   C3B38877   1.527  25.772  13.073 -0.0915 -0.0298  0.1917
 3313DOPC   C4B38878   1.689  25.352  13.183 -0.0203  0.2344  0.1204
 3314DOPC   NC338879  29.853  26.230  12.981 -0.1035  0.1098  0.1375
 3314DOPC   PO438880  29.799  26.286  13.410 -0.1757  0.1034 -0.0867
 3314DOPC   GL138881  29.556  26.518  13.117 -0.3705  0.2347 -0.2418
 3314DOPC   GL238882  29.285  26.391  13.018  0.3823 -0.0825  0.1704
 3314DOPC   C1A38883  29.806  26.650  12.741  0.0325 -0.0561 -0.2277
 3314DOPC   D2A38884  30.047  26.420  12.456 -0.0616 -0.1875 -0.0532
 3314DOPC   C3A38885  30.111  26.531  12.032  0.0220 -0.0256 -0.1637
 3314DOPC   C4A38886  30.093  26.595  11.600 -0.0878  0.3503 -0.2695
 3314DOPC   C1B38887  29.280  26.491  12.631  0.0478 -0.2415 -0.2363
 3314DOPC   D2B38888  29.314  26.308  12.254 -0.0012  0.1747  0.1046
 3314DOPC   C3B38889  29.668  26.617  12.194  0.2043 -0.3650 -0.1600
 3314DOPC   C4B38890  29.720  26.984  11.933 -0.0441  0.0500  0.1692
 3315DOPC   NC338891  26.593  28.260  12.907  0.0575 -0.1692 -0.2067
 3315DOPC   PO438892  26.427  27.918  13.115 -0.0475  0.0056  0.1168
 3315DOPC   GL138893  26.705  27.823  12.777 -0.3322  0.0255 -0.3817
 3315DOPC   GL238894  26.556  27.585  12.641 -0.0166  0.1149  0.0495
 3315DOPC   C1A38895  26.853  28.042  12.341  0.1322 -0.2440  0.5011
 3315DOPC   D2A38896  26.816  28.376  12.007  0.0208  0.3207 -0.0810
 3315DOPC   C3A38897  27.024  28.357  11.573 -0.2184 -0.0688 -0.2689
 3315DOPC   C4A38898  27.066  28.221  11.148  0.1560  0.1199  0.1949
 3315DOPC   C1B38899  26.658  27.656  12.158  0.2482  0.1325 -0.1711
 3315DOPC   D2B38900  26.909  27.905  11.867 -0.0828  0.3352  0.0315
 3315DOPC   C3B38901  27.307  27.842  11.689  0.0396  0.2141 -0.0156
 3315DOPC   C4B38902  27.724  27.875  11.922  0.2528  0.0573  0.0477
 3316DOPC   NC338903  33.321  32.283  14.545  0.0196  0.1660  0.0676
 3316DOPC   PO438904  33.710  32.193  14.701  0.1767 -0.4362 -0.0084
 3316DOPC   GL138905  33.696  32.242  14.292 -0.3098 -0.2590 -0.1713
 3316DOPC   GL238906  33.969  32.360  14.215 -0.1385  0.1556  0.4042
 3316DOPC   C1A38907  33.466  32.228  13.913  0.0427  0.2566  0.1055
 3316DOPC   D2A38908  33.427  32.277  13.529 -0.0144  0.0406  0.0472
 3316DOPC   C3A38909  33.484  32.523  13.137  0.0253  0.0178  0.0391
 3316DOPC   C4A38910  33.467  32.702  12.725 -0.0872 -0.1958 -0.1580
 3316DOPC   C1B38911  34.017  32.345  13.708  0.1591 -0.1353 -0.1019
 3316DOPC   D2B38912  33.875  32.232  13.323  0.2062  0.1224  0.0847
 3316DOPC   C3B38913  33.929  32.358  12.871 -0.0885 -0.0899  0.3525
 3316DOPC   C4B38914  33.963  32.564  12.458  0.0088  0.0870 -0.2334
 3317DOPS   CNO38915  28.905  28.521  13.635 -0.2389  0.2957 -0.2814
 3317DOPS   PO438916  29.149  28.792  13.611  0.1093 -0.1070  0.0132
 3317DOPS   GL138917  29.179  28.985  13.247 -0.2305 -0.1309  0.0435
 3317DOPS   GL238918  29.019  29.070  12.927  0.2413 -0.0592 -0.1831
 3317DOPS   C1A38919  29.476  29.001  12.929  0.0818  0.0692  0.0804
 3317DOPS   D2A38920  29.521  29.258  12.594  0.2468  0.0181 -0.0748
 3317DOPS   C3A38921  29.755  29.239  12.217  0.0686  0.0126  0.5664
 3317DOPS   C4A38922  29.804  29.019  11.798 -0.0374 -0.1862  0.1288
 3317DOPS   C1B38923  29.036  29.104  12.521  0.0425 -0.2730  0.1003
 3317DOPS   D2B38924  29.084  29.086  12.117  0.3536  0.2474  0.0718
 3317DOPS   C3B38925  29.377  29.405  11.907 -0.1866  0.2214 -0.2916
 3317DOPS   C4B38926  29.349  29.784  11.669  0.1826  0.3373  0.3196
 3318DOPC   NC338927  29.455  28.383  13.642  0.1347  0.1338  0.0382
 3318DOPC   PO438928  29.839  28.457  13.686  0.1030  0.1071  0.5555
 3318DOPC   GL138929  29.908  28.670  13.352  0.3379 -0.0109  0.2690
 3318DOPC   GL238930  29.672  28.777  13.303 -0.2094  0.0598  0.1895
 3318DOPC   C1A38931  29.839  28.517  12.914 -0.0583  0.3340 -0.0763
 3318DOPC   D2A38932  29.532  28.312  12.612  0.1788  0.0046 -0.0483
 3318DOPC   C3A38933  29.221  27.935  12.614  0.1596  0.3187  0.3026
 3318DOPC   C4A38934  28.883  27.698  12.412  0.4396  0.3104 -0.3016
 3318DOPC   C1B38935  29.982  28.999  13.081  0.0520 -0.3172 -0.2308
 3318DOPC   D2B38936  29.984  29.087  12.652 -0.0537  0.0177  0.1120
 3318DOPC   C3B38937  30.159  28.892  12.286 -0.0117 -0.1806 -0.3086
 3318DOPC   C4B38938  30.296  28.802  11.849  0.2299 -0.1322 -0.0734
 3319DOPS   CNO38939  30.918  32.812  14.861  0.1024  0.1894 -0.0725
 3319DOPS   PO438940  31.238  32.822  14.713  0.0991  0.0357 -0.0623
 3319DOPS   GL138941  31.160  32.917  14.296  0.1741  0.2354  0.3305
 3319DOPS   GL238942  31.030  32.682  14.183  0.1952 -0.2071  0.4192
 3319DOPS   C1A38943  31.145  33.318  14.125  0.4169 -0.1360 -0.2240
 3319DOPS   D2A38944  31.388  33.520  13.834 -0.0302 -0.0132  0.0607
 3319DOPS   C3A38945  31.695  33.794  13.982 -0.2854  0.1489 -0.2181
 3319DOPS   C4A38946  32.104  34.089  13.942 -0.2072  0.0001 -0.0321
 3319DOPS   C1B38947  31.237  32.835  13.875 -0.0775  0.2884  0.0612
 3319DOPS   D2B38948  31.444  33.162  13.547  0.1139 -0.0982 -0.1879
 3319DOPS   C3B38949  31.349  33.204  13.069 -0.0062 -0.2695 -0.4228
 3319DOPS   C4B38950  31.242  33.350  12.669  0.1236  0.1768  0.0630
 3320POSM   NC338951   1.621  24.838  14.203 -0.1453 -0.0083  0.0349
 3320POSM   PO438952   1.559  24.479  14.304  0.2576 -0.1335  0.0834
 3320POSM   AM138953   1.396  24.239  14.194 -0.1897 -0.0060  0.0309
 3320POSM   AM238954   1.170  24.179  14.054 -0.3332  0.0118  0.3774
 3320POSM   T1A38955   1.350  23.780  14.277 -0.0668  0.1190 -0.1333
 3320POSM   C2A38956   1.269  23.351  14.201  0.1391 -0.1200  0.2932
 3320POSM   C3A38957   1.432  23.249  13.809  0.0437  0.1215  0.0422
 3320POSM   C1B38958   1.074  24.114  13.713  0.2362 -0.0953 -0.2010
 3320POSM   D2B38959   0.992  24.166  13.228 -0.0040  0.2154 -0.1176
 3320POSM   C3B38960   1.316  24.230  12.879  0.0475  0.2179 -0.1247
 3320POSM   C4B38961   1.544  24.077  12.491 -0.2421  0.0711  0.0888
 3321DOPS   CNO38962  27.211  28.661  13.818 -0.0034  0.1521  0.2328
 3321DOPS   PO438963  27.143  28.471  13.507 -0.0972 -0.0386  0.0990
 3321DOPS   GL138964  27.096  28.287  13.085  0.2620  0.2584  0.0208
 3321DOPS   GL238965  27.193  28.465  12.940  0.1806 -0.2916 -0.3062
 3321DOPS   C1A38966  27.246  28.014  12.701  0.0697 -0.1949 -0.0814
 3321DOPS   D2A38967  27.589  27.899  12.429 -0.2577 -0.0510 -0.1600
 3321DOPS   C3A38968  27.933  28.195  12.249  0.1782  0.1450 -0.0656
 3321DOPS   C4A38969  28.401  28.105  12.265 -0.1102  0.0552 -0.0114
 3321DOPS   C1B38970  27.254  28.495  12.419 -0.2257 -0.1976  0.1280
 3321DOPS   D2B38971  27.320  28.253  12.006 -0.1880  0.1806 -0.1440
 3321DOPS   C3B38972  27.703  28.392  11.816 -0.3658  0.1272 -0.3528
 3321DOPS   C4B38973  28.120  28.119  11.731  0.0219 -0.0717  0.0230
 3322DOPS   CNO38974  24.539  27.170  12.664  0.0011 -0.4075  0.0518
 3322DOPS   PO438975  24.774  26.917  12.599  0.0383  0.2243 -0.2464
 3322DOPS   GL138976  24.854  26.956  12.221 -0.1794  0.1122  0.1408
 3322DOPS   GL238977  24.666  27.149  12.067 -0.0855 -0.2194  0.3261
 3322DOPS   C1A38978  24.790  26.732  11.855 -0.1880  0.0231  0.0634
 3322DOPS   D2A38979  24.737  26.306  11.694 -0.0124 -0.0591  0.0144
 3322DOPS   C3A38980  24.740  26.239  11.246  0.1906  0.3300 -0.2534
 3322DOPS   C4A38981  24.745  25.892  10.942 -0.2168  0.2588  0.0429
 3322DOPS   C1B38982  24.777  27.187  11.598  0.1509 -0.3508  0.0043
 3322DOPS   D2B38983  24.829  27.557  11.324  0.1353  0.0124  0.0250
 3322DOPS   C3B38984  24.587  27.703  10.959  0.4989 -0.1600  0.2776
 3322DOPS   C4B38985  24.564  27.863  10.549 -0.0998 -0.1513 -0.1485
 3323DOPE   NH338986  25.117  28.352  12.995 -0.0861  0.1387 -0.3588
 3323DOPE   PO438987  25.209  28.305  12.684 -0.0027 -0.1542  0.0389
 3323DOPE   GL138988  25.360  28.279  12.385  0.3352 -0.3664 -0.2122
 3323DOPE   GL238989  25.670  28.203  12.396  0.1794 -0.4777 -0.0908
 3323DOPE   C1A38990  25.213  28.164  11.948 -0.3240  0.1510  0.0372
 3323DOPE   D2A38991  25.114  27.965  11.589 -0.1196  0.0229  0.1396
 3323DOPE   C3A38992  25.085  28.140  11.133  0.0823 -0.2411 -0.0882
 3323DOPE   C4A38993  24.981  28.387  10.745 -0.3319 -0.2431  0.1625
 3323DOPE   C1B38994  25.736  28.259  11.922 -0.2305  0.2660  0.0357
 3323DOPE   D2B38995  25.966  28.309  11.571 -0.0984  0.0821 -0.1536
 3323DOPE   C3B38996  26.112  27.868  11.477 -0.2559  0.0665 -0.0445
 3323DOPE   C4B38997  26.414  27.757  11.149 -0.0571  0.0371  0.1478
 3324DOPE   NH338998  31.915  25.576  13.709 -0.1614  0.0480 -0.3602
 3324DOPE   PO438999  31.806  25.304  13.534 -0.1770  0.0860 -0.0308
 3324DOPE   GL139000  31.859  25.075  13.238  0.3465 -0.0513 -0.0725
 3324DOPE   GL239001  32.048  25.220  13.016  0.3833 -0.2022 -0.1239
 3324DOPE   C1A39002  31.582  24.818  13.042 -0.1261 -0.0948  0.1969
 3324DOPE   D2A39003  31.157  24.671  12.772  0.2560  0.0488 -0.1263
 3324DOPE   C3A39004  31.092  24.185  12.756  0.1284 -0.1563 -0.1400
 3324DOPE   C4A39005  31.447  23.926  12.851  0.1468  0.0482 -0.0162
 3324DOPE   C1B39006  32.275  25.324  12.620 -0.1424  0.1372 -0.2718
 3324DOPE   D2B39007  32.238  25.240  12.192 -0.0819  0.2222  0.0541
 3324DOPE   C3B39008  31.929  25.441  11.937 -0.1331  0.0405  0.2709
 3324DOPE   C4B39009  31.572  25.791  11.816 -0.0075 -0.1835  0.0823
 3325DOPE   NH339010  30.350  34.445  14.765 -0.1286 -0.0140  0.2894
 3325DOPE   PO439011  30.439  34.737  14.774 -0.3618  0.4035 -0.0606
 3325DOPE   GL139012  30.497  34.754  14.443  0.2231  0.2152  0.1105
 3325DOPE   GL239013  30.614  34.470  14.333 -0.1634 -0.0572  0.0515
 3325DOPE   C1A39014  30.404  35.171  14.200  0.3676  0.0623 -0.0727
 3325DOPE   D2A39015  30.156  35.504  14.011  0.2671  0.1369 -0.0583
 3325DOPE   C3A39016  30.291  35.734  13.607  0.1328  0.1182 -0.1230
 3325DOPE   C4A39017  30.426  35.563  13.179 -0.0428 -0.1032 -0.0451
 3325DOPE   C1B39018  30.821  34.071  14.201 -0.2267  0.1077  0.0334
 3325DOPE   D2B39019  30.963  34.003  13.766  0.2667  0.2365 -0.1670
 3325DOPE   C3B39020  30.695  33.815  13.431 -0.1627  0.3264  0.1122
 3325DOPE   C4B39021  30.540  33.457  13.132 -0.0861  0.0760  0.3620
 3326DOPC   NC339022  29.761  30.277  13.783  0.1104 -0.2466  0.0141
 3326DOPC   PO439023  29.801  30.671  13.828 -0.0243 -0.0398 -0.2103
 3326DOPC   GL139024  29.884  30.744  13.491 -0.0784 -0.0390  0.0675
 3326DOPC   GL239025  29.850  30.491  13.335 -0.1127 -0.2615  0.0444
 3326DOPC   C1A39026  29.849  31.110  13.182 -0.0593 -0.0099  0.2975
 3326DOPC   D2A39027  29.706  31.446  12.898  0.1229  0.1325 -0.2271
 3326DOPC   C3A39028  29.573  31.362  12.494 -0.3828  0.4264  0.2610
 3326DOPC   C4A39029  29.225  31.416  12.197  0.6252 -0.0377 -0.1198
 3326DOPC   C1B39030  29.800  30.142  13.043 -0.0898  0.2885  0.0082
 3326DOPC   D2B39031  30.082  30.057  12.712 -0.1652  0.1966  0.0003
 3326DOPC   C3B39032  30.257  30.372  12.421  0.1244  0.0896 -0.0698
 3326DOPC   C4B39033  30.656  30.335  12.249 -0.2902 -0.4147 -0.1524
 3327DOPC   NC339034   1.213  27.414  14.430  0.0146  0.0507 -0.0557
 3327DOPC   PO439035   1.600  27.539  14.382  0.0501  0.2168  0.0601
 3327DOPC   GL139036   1.705  27.559  13.984  0.3505 -0.1221  0.0432
 3327DOPC   GL239037   1.978  27.547  13.963 -0.1535  0.1101  0.2208
 3327DOPC   C1A39038   1.600  27.546  13.595 -0.0291  0.0559  0.1558
 3327DOPC   D2A39039   1.219  27.524  13.253  0.1291  0.2233  0.1662
 3327DOPC   C3A39040   1.190  27.514  12.789 -0.0459 -0.0116  0.0889
 3327DOPC   C4A39041   1.157  27.427  12.332 -0.1100  0.0525 -0.0962
 3327DOPC   C1B39042   2.139  27.391  13.552 -0.1548  0.0611  0.1033
 3327DOPC   D2B39043   2.237  27.296  13.142  0.4847 -0.1781  0.0523
 3327DOPC   C3B39044   2.613  27.322  12.890  0.0611  0.1199 -0.0937
 3327DOPC   C4B39045   2.962  27.306  12.576 -0.1549  0.0631 -0.0394
 3328POSM   NC339046  26.279  28.999  13.795 -0.3745  0.1555 -0.0559
 3328POSM   PO439047  26.228  28.814  13.477 -0.2025  0.1119  0.2187
 3328POSM   AM139048  26.274  29.006  13.246 -0.1708 -0.3566  0.1705
 3328POSM   AM239049  26.319  29.251  13.148 -0.0144  0.0388 -0.0454
 3328POSM   T1A39050  26.275  28.896  12.797  0.5322  0.0318 -0.0187
 3328POSM   C2A39051  26.445  29.019  12.412  0.1339  0.3342 -0.2256
 3328POSM   C3A39052  26.776  28.946  12.094 -0.0154  0.1191  0.0727
 3328POSM   C1B39053  26.268  29.443  12.870  0.0131  0.4286  0.1028
 3328POSM   D2B39054  26.207  29.462  12.417 -0.4015 -0.1399  0.0208
 3328POSM   C3B39055  26.470  29.340  12.076  0.0208 -0.0718  0.0239
 3328POSM   C4B39056  26.342  29.113  11.662 -0.1523  0.3992  0.1987
 3329POSM   NC339057  26.897  33.314  14.291 -0.0248  0.0254  0.1487
 3329POSM   PO439058  26.563  33.356  14.115  0.1023 -0.4256  0.0541
 3329POSM   AM139059  26.536  33.266  13.793  0.1558 -0.0974  0.0807
 3329POSM   AM239060  26.337  33.072  13.731  0.2477 -0.3530  0.0460
 3329POSM   T1A39061  26.575  33.264  13.240  0.1549  0.3486 -0.1396
 3329POSM   C2A39062  26.303  33.375  12.865 -0.0702  0.0137 -0.0056
 3329POSM   C3A39063  26.396  33.721  12.623 -0.0534  0.2798  0.1409
 3329POSM   C1B39064  26.194  33.006  13.448  0.0059  0.2408 -0.1217
 3329POSM   D2B39065  25.767  32.926  13.264 -0.3040  0.2682  0.0731
 3329POSM   C3B39066  25.770  32.980  12.743  0.1228 -0.2217  0.1437
 3329POSM   C4B39067  25.602  32.637  12.450 -0.1983  0.0718 -0.0577
 3330DOPE   NH339068  26.030  26.096  12.902 -0.4285 -0.0461  0.1363
 3330DOPE   PO439069  26.104  26.403  12.830 -0.0997 -0.2533  0.1968
 3330DOPE   GL139070  25.839  26.238  12.526 -0.2699 -0.4372 -0.1178
 3330DOPE   GL239071  25.969  26.120  12.239 -0.0631 -0.1125 -0.1513
 3330DOPE   C1A39072  25.607  26.486  12.189 -0.0306  0.1042  0.1190
 3330DOPE   D2A39073  25.212  26.587  11.934  0.3228  0.0063 -0.0713
 3330DOPE   C3A39074  25.285  26.994  11.771  0.0485  0.2079 -0.2053
 3330DOPE   C4A39075  25.180  27.195  11.330 -0.2036 -0.3008 -0.0209
 3330DOPE   C1B39076  26.288  25.882  12.073 -0.0899  0.4924  0.0899
 3330DOPE   D2B39077  26.651  25.822  11.787 -0.0392 -0.0091  0.4747
 3330DOPE   C3B39078  26.577  25.993  11.338  0.0381 -0.2862 -0.3286
 3330DOPE   C4B39079  26.501  26.269  10.927  0.0465  0.0729  0.1106
 3331DOPE   NH339080  23.926  28.130  12.615 -0.1368  0.2974  0.0272
 3331DOPE   PO439081  24.261  28.100  12.663  0.0106 -0.0251 -0.4311
 3331DOPE   GL139082  24.312  28.113  12.294 -0.3009  0.0449 -0.1384
 3331DOPE   GL239083  24.115  28.240  12.106  0.1260 -0.1261 -0.4725
 3331DOPE   C1A39084  24.531  28.080  11.841 -0.3965 -0.0164 -0.0171
 3331DOPE   D2A39085  24.655  28.093  11.429  0.1420 -0.1851 -0.2396
 3331DOPE   C3A39086  24.339  28.158  11.074 -0.0992 -0.1694  0.0543
 3331DOPE   C4A39087  24.144  28.275  10.670 -0.1777 -0.1890  0.1451
 3331DOPE   C1B39088  24.009  27.976  11.785 -0.1801 -0.1406  0.0301
 3331DOPE   D2B39089  24.196  27.829  11.400 -0.0407  0.1072 -0.3457
 3331DOPE   C3B39090  24.068  27.762  10.948  0.0207  0.1986 -0.1365
 3331DOPE   C4B39091  24.076  27.799  10.495 -0.0308  0.3513  0.4923
 3332DOPE   NH339092  26.783   0.540  14.280 -0.2155 -0.0258 -0.0061
 3332DOPE   PO439093  27.014   0.665  14.067 -0.2617  0.4337  0.1997
 3332DOPE   GL139094  27.183   0.881  13.689 -0.0770 -0.2307  0.1229
 3332DOPE   GL239095  27.190   0.569  13.590  0.4589 -0.1156 -0.3305
 3332DOPE   C1A39096  27.224   0.917  13.232 -0.1835 -0.0397  0.0260
 3332DOPE   D2A39097  27.005   0.905  12.826  0.0467 -0.2792 -0.0582
 3332DOPE   C3A39098  26.990   0.654  12.404 -0.2149 -0.1212 -0.0590
 3332DOPE   C4A39099  26.604   0.392  12.285 -0.1662 -0.0879 -0.3285
 3332DOPE   C1B39100  27.470   0.515  13.305  0.0013  0.1478  0.2214
 3332DOPE   D2B39101  27.874   0.390  13.119 -0.1368 -0.1277  0.0105
 3332DOPE   C3B39102  27.836   0.344  12.639  0.0130  0.1285 -0.1620
 3332DOPE   C4B39103  27.570  -0.043  12.547 -0.3606 -0.0642  0.2116
 3333DOPC   NC339104  23.765  27.481  12.643 -0.0975  0.1909 -0.1089
 3333DOPC   PO439105  23.386  27.490  12.557 -0.0022 -0.5198 -0.2936
 3333DOPC   GL139106  23.465  27.221  12.183 -0.0126 -0.1163 -0.2340
 3333DOPC   GL239107  23.746  27.366  12.178 -0.4964  0.1336  0.1606
 3333DOPC   C1A39108  23.210  27.304  11.821  0.2230 -0.2417  0.0223
 3333DOPC   D2A39109  22.897  27.255  11.472  0.0599 -0.0799  0.0397
 3333DOPC   C3A39110  23.208  27.249  11.145 -0.0992  0.0708 -0.1867
 3333DOPC   C4A39111  23.364  27.230  10.701  0.0094  0.2133  0.0800
 3333DOPC   C1B39112  23.646  27.534  11.754 -0.0597  0.0531  0.2510
 3333DOPC   D2B39113  23.671  27.784  11.402 -0.2011  0.0630  0.0715
 3333DOPC   C3B39114  23.502  27.713  11.012  0.1782 -0.0219 -0.0197
 3333DOPC   C4B39115  23.321  27.678  10.590 -0.4412 -0.0499 -0.0385
 3334DOPC   NC339116  24.394  30.645  13.918  0.0512 -0.0715  0.0231
 3334DOPC   PO439117  24.517  30.767  13.567  0.0302 -0.0319 -0.0896
 3334DOPC   GL139118  24.578  30.690  13.145 -0.1682  0.1511 -0.1039
 3334DOPC   GL239119  24.774  30.416  13.155  0.1477  0.1275  0.0364
 3334DOPC   C1A39120  24.327  30.781  12.787  0.2750 -0.1257 -0.2301
 3334DOPC   D2A39121  24.446  30.925  12.331  0.0751  0.1424 -0.3815
 3334DOPC   C3A39122  24.184  31.053  11.915  0.4023 -0.1751  0.1286
 3334DOPC   C4A39123  24.264  30.900  11.495  0.1906  0.1521 -0.1013
 3334DOPC   C1B39124  24.795  30.507  12.711  0.1054 -0.0378  0.0958
 3334DOPC   D2B39125  24.586  30.473  12.268 -0.1284  0.4123  0.1207
 3334DOPC   C3B39126  24.664  30.472  11.843 -0.1167 -0.3176 -0.0646
 3334DOPC   C4B39127  24.685  30.114  11.617  0.1411  0.0014  0.1701
 3335POSM   NC339128  27.232  26.914  13.122 -0.2124 -0.2369  0.0930
 3335POSM   PO439129  26.839  26.854  13.137  0.2600  0.0365 -0.3802
 3335POSM   AM139130  26.723  26.641  12.897 -0.2106 -0.1342  0.1320
 3335POSM   AM239131  26.517  26.601  12.670  0.1487  0.1427 -0.1567
 3335POSM   T1A39132  26.931  26.330  12.579  0.2168  0.3521 -0.1599
 3335POSM   C2A39133  27.234  26.311  12.239  0.1473  0.0761 -0.2829
 3335POSM   C3A39134  27.555  26.071  12.012 -0.1066 -0.1599 -0.3034
 3335POSM   C1B39135  26.657  26.642  12.382 -0.0387  0.0038  0.0642
 3335POSM   D2B39136  26.847  26.803  11.982 -0.1893  0.3021  0.0901
 3335POSM   C3B39137  27.050  27.229  12.113  0.1336 -0.0605  0.0723
 3335POSM   C4B39138  27.092  27.653  12.380  0.1815  0.0554 -0.3646
 3336DOPC   NC339139  28.457  34.108  14.146 -0.1651 -0.3197  0.0753
 3336DOPC   PO439140  28.098  33.927  14.254 -0.0918  0.1035  0.0632
 3336DOPC   GL139141  28.226  33.641  14.053  0.2823 -0.2140  0.1814
 3336DOPC   GL239142  28.419  33.667  13.811 -0.1937  0.2339 -0.1950
 3336DOPC   C1A39143  27.819  33.551  13.828 -0.1012  0.3519  0.1185
 3336DOPC   D2A39144  27.574  33.289  13.541  0.0542 -0.0828 -0.1105
 3336DOPC   C3A39145  27.550  33.489  13.117  0.0426 -0.0619  0.2100
 3336DOPC   C4A39146  27.672  33.608  12.631  0.0853  0.0288 -0.0245
 3336DOPC   C1B39147  28.181  33.331  13.545 -0.1112 -0.3452  0.2068
 3336DOPC   D2B39148  27.967  33.078  13.220  0.1941 -0.0428  0.1103
 3336DOPC   C3B39149  28.099  33.159  12.815  0.0918  0.2078  0.2337
 3336DOPC   C4B39150  27.947  33.252  12.416 -0.0605 -0.1797  0.1049
 3337DOPE   NH339151  32.406  25.675  14.101 -0.0534  0.0245  0.0938
 3337DOPE   PO439152  32.385  25.531  13.795  0.1641  0.0375 -0.1843
 3337DOPE   GL139153  32.330  25.472  13.396 -0.0617 -0.1783 -0.0965
 3337DOPE   GL239154  32.223  25.687  13.293  0.2586  0.3649  0.0379
 3337DOPE   C1A39155  32.576  25.364  13.018  0.2547 -0.0304 -0.1814
 3337DOPE   D2A39156  32.757  25.187  12.655 -0.3076 -0.2411  0.1308
 3337DOPE   C3A39157  32.684  25.064  12.267  0.1112  0.2464  0.3354
 3337DOPE   C4A39158  32.716  25.352  11.874 -0.0898  0.0522 -0.1978
 3337DOPE   C1B39159  32.064  25.699  12.842  0.1774  0.0367 -0.2665
 3337DOPE   D2B39160  32.024  25.717  12.383  0.3259 -0.4015  0.1115
 3337DOPE   C3B39161  32.190  26.144  12.360  0.1232  0.2255 -0.1668
 3337DOPE   C4B39162  32.287  26.611  12.234  0.0387  0.1299 -0.3849
 3338DOPC   NC339163  24.853  31.069  13.392 -0.0635 -0.3698 -0.0772
 3338DOPC   PO439164  25.061  30.752  13.484  0.1429  0.0258  0.2699
 3338DOPC   GL139165  25.078  30.846  13.081 -0.1007  0.1408  0.2368
 3338DOPC   GL239166  25.364  30.896  13.039  0.0155  0.0855  0.1116
 3338DOPC   C1A39167  24.777  30.998  12.796  0.2231 -0.0211  0.0297
 3338DOPC   D2A39168  24.390  31.266  12.684  0.1098 -0.1407  0.0123
 3338DOPC   C3A39169  24.675  31.526  12.418 -0.3251  0.0637  0.0120
 3338DOPC   C4A39170  24.964  31.408  12.091 -0.0538  0.0989 -0.1292
 3338DOPC   C1B39171  25.240  30.863  12.671  0.2452 -0.1022 -0.0170
 3338DOPC   D2B39172  25.060  30.824  12.212  0.1530 -0.1297  0.1400
 3338DOPC   C3B39173  25.134  31.027  11.850 -0.4045 -0.2720  0.0362
 3338DOPC   C4B39174  25.153  31.467  11.648  0.1741 -0.2288  0.0085
 3339DOPE   NH339175  23.139  32.313  14.001 -0.0796  0.1612 -0.1229
 3339DOPE   PO439176  23.082  32.327  13.674  0.1150 -0.0009 -0.2802
 3339DOPE   GL139177  23.127  32.322  13.277  0.2144  0.1395  0.0969
 3339DOPE   GL239178  23.374  32.430  13.093  0.0421  0.0298  0.1832
 3339DOPE   C1A39179  22.898  32.636  12.996  0.1430 -0.1997  0.2249
 3339DOPE   D2A39180  22.898  32.811  12.541 -0.1764 -0.0401 -0.1195
 3339DOPE   C3A39181  22.583  32.892  12.203 -0.2404 -0.0737 -0.0912
 3339DOPE   C4A39182  22.692  33.002  11.774 -0.0423 -0.1963  0.2644
 3339DOPE   C1B39183  23.533  32.147  12.726  0.0834  0.1030  0.0398
 3339DOPE   D2B39184  23.800  31.930  12.421 -0.2828 -0.1177  0.2127
 3339DOPE   C3B39185  23.722  32.304  12.145 -0.0362 -0.0707 -0.1196
 3339DOPE   C4B39186  24.186  32.527  12.140  0.3117 -0.0017 -0.2575
 3340DOPE   NH339187  32.968  24.592  14.100 -0.1393  0.1217  0.0566
 3340DOPE   PO439188  32.943  24.842  13.907 -0.0458  0.1583 -0.1530
 3340DOPE   GL139189  32.963  24.979  13.574 -0.1821 -0.1047  0.0247
 3340DOPE   GL239190  32.720  25.062  13.411 -0.2179 -0.0557 -0.1166
 3340DOPE   C1A39191  32.992  24.731  13.163  0.1368  0.1457  0.3729
 3340DOPE   D2A39192  32.864  24.748  12.709 -0.3803 -0.1361 -0.0096
 3340DOPE   C3A39193  33.102  24.644  12.327  0.1714  0.0880 -0.1457
 3340DOPE   C4A39194  33.038  24.859  11.949 -0.1646 -0.5152  0.1477
 3340DOPE   C1B39195  32.503  24.899  13.056 -0.2189 -0.6160 -0.1462
 3340DOPE   D2B39196  32.350  24.749  12.583  0.2990 -0.0444 -0.0298
 3340DOPE   C3B39197  32.334  24.548  12.162 -0.0796 -0.0924  0.0113
 3340DOPE   C4B39198  32.096  24.184  11.987 -0.3129  0.0796 -0.2636
 3341DOPC   NC339199  25.250  26.990  12.509 -0.0966 -0.1621 -0.2172
 3341DOPC   PO439200  25.630  27.059  12.455 -0.4032  0.1336  0.2742
 3341DOPC   GL139201  25.671  27.080  12.034 -0.0290  0.1080 -0.0060
 3341DOPC   GL239202  25.702  27.299  11.869 -0.2836  0.0310  0.0749
 3341DOPC   C1A39203  25.723  26.670  11.731  0.2592  0.4331 -0.3260
 3341DOPC   D2A39204  25.744  26.329  11.391  0.0447  0.0908 -0.1393
 3341DOPC   C3A39205  25.701  26.331  10.920 -0.3084  0.2129 -0.0610
 3341DOPC   C4A39206  26.002  26.250  10.610 -0.1631  0.1451 -0.1207
 3341DOPC   C1B39207  25.633  27.194  11.464 -0.3378 -0.1736 -0.3441
 3341DOPC   D2B39208  25.611  27.120  10.986  0.1400 -0.1925 -0.3126
 3341DOPC   C3B39209  25.217  27.310  10.754 -0.0950 -0.3479  0.2139
 3341DOPC   C4B39210  24.945  27.490  10.388  0.1333 -0.0302 -0.1430
 3342DOPC   NC339211  26.691  27.515  13.093  0.1483 -0.0442 -0.1265
 3342DOPC   PO439212  26.942  27.266  12.915  0.0138  0.0693  0.1191
 3342DOPC   GL139213  26.974  27.222  12.620  0.3524  0.2257 -0.1017
 3342DOPC   GL239214  27.104  26.904  12.603 -0.1778  0.0594  0.1013
 3342DOPC   C1A39215  26.609  27.156  12.339 -0.2731 -0.1121  0.1178
 3342DOPC   D2A39216  26.571  27.152  11.879 -0.2126 -0.0438  0.1314
 3342DOPC   C3A39217  26.796  26.993  11.518  0.2476  0.1654  0.1249
 3342DOPC   C4A39218  26.942  26.917  11.075  0.0124  0.2443  0.0110
 3342DOPC   C1B39219  27.420  26.919  12.240  0.0466  0.3290  0.2009
 3342DOPC   D2B39220  27.291  26.973  11.788  0.1727  0.0203  0.2491
 3342DOPC   C3B39221  27.318  26.775  11.353  0.0734  0.0879  0.0915
 3342DOPC   C4B39222  27.424  26.853  10.862  0.3272 -0.0641 -0.1095
 3343DOPC   NC339223  34.108  30.040  14.188 -0.2907  0.0589 -0.0398
 3343DOPC   PO439224  34.422  30.145  13.972 -0.1109  0.2316  0.5259
 3343DOPC   GL139225  34.376  30.314  13.636 -0.2922  0.1063  0.1143
 3343DOPC   GL239226  34.202  30.126  13.420  0.5065  0.0898  0.0664
 3343DOPC   C1A39227  34.584  30.426  13.206 -0.1221  0.2361 -0.0599
 3343DOPC   D2A39228  34.599  30.160  12.821 -0.2073  0.0011 -0.1602
 3343DOPC   C3A39229  34.992  30.009  12.775  0.0772 -0.3523 -0.0490
 3343DOPC   C4A39230  35.395  30.074  12.989 -0.0398  0.3529  0.0815
 3343DOPC   C1B39231  34.114  30.063  12.982 -0.2004 -0.0886  0.2081
 3343DOPC   D2B39232  34.158  29.974  12.551  0.2717 -0.2192  0.1554
 3343DOPC   C3B39233  34.045  30.376  12.374  0.0576  0.0250  0.1368
 3343DOPC   C4B39234  33.808  30.796  12.372  0.1227  0.1646 -0.1106
 3344DOPC   NC339235  23.258  25.966  12.480 -0.0883 -0.0297  0.2450
 3344DOPC   PO439236  23.629  26.068  12.397  0.5272  0.1955  0.0656
 3344DOPC   GL139237  23.579  25.993  12.009 -0.0544 -0.2244 -0.3300
 3344DOPC   GL239238  23.319  25.845  12.032  0.3503 -0.1189  0.0680
 3344DOPC   C1A39239  23.676  25.670  11.667  0.0629 -0.0629 -0.1805
 3344DOPC   D2A39240  24.086  25.603  11.531 -0.2109  0.0365 -0.1611
 3344DOPC   C3A39241  24.155  25.894  11.185 -0.0926  0.0647  0.0286
 3344DOPC   C4A39242  24.297  26.077  10.778  0.0704 -0.1726 -0.3504
 3344DOPC   C1B39243  23.223  25.920  11.594  0.3226  0.1683  0.4464
 3344DOPC   D2B39244  23.365  25.832  11.151 -0.1405 -0.0958  0.0780
 3344DOPC   C3B39245  23.730  25.494  11.217 -0.3075 -0.0100 -0.1889
 3344DOPC   C4B39246  24.081  25.233  11.165 -0.1691  0.0238 -0.0312
 3345DOPC   NC339247  28.415  27.959  13.203 -0.0565 -0.2434 -0.2785
 3345DOPC   PO439248  28.792  28.114  13.223 -0.1334  0.3780  0.0906
 3345DOPC   GL139249  28.926  28.291  12.782  0.0290  0.0097  0.1871
 3345DOPC   GL239250  28.672  28.186  12.680  0.0598  0.4441 -0.3714
 3345DOPC   C1A39251  29.199  28.655  12.655  0.1050 -0.1521 -0.0635
 3345DOPC   D2A39252  29.612  28.771  12.458 -0.1053 -0.2715 -0.1297
 3345DOPC   C3A39253  29.822  28.495  12.142  0.1529  0.0442 -0.1334
 3345DOPC   C4A39254  30.085  28.325  11.768 -0.1178  0.0362 -0.0072
 3345DOPC   C1B39255  28.977  28.328  12.347 -0.0663  0.0636 -0.1657
 3345DOPC   D2B39256  29.189  28.616  12.040  0.0721 -0.0342  0.1079
 3345DOPC   C3B39257  29.305  28.733  11.598  0.2657 -0.0269 -0.0817
 3345DOPC   C4B39258  29.541  28.883  11.281 -0.1734 -0.0639 -0.1243
 3346DOPE   NH339259  33.144  30.602  14.300 -0.1936  0.0706  0.0024
 3346DOPE   PO439260  33.359  30.410  14.144 -0.3211 -0.1883 -0.2346
 3346DOPE   GL139261  33.316  30.385  13.703  0.1008  0.4553  0.3668
 3346DOPE   GL239262  33.442  30.701  13.756  0.3678  0.2610 -0.1517
 3346DOPE   C1A39263  33.149  30.253  13.274  0.1775  0.1325  0.0468
 3346DOPE   D2A39264  32.809  30.415  12.999  0.3765  0.1827 -0.1298
 3346DOPE   C3A39265  32.425  30.738  12.903  0.2139 -0.2044 -0.2980
 3346DOPE   C4A39266  32.121  30.981  13.182  0.1047  0.0633  0.0884
 3346DOPE   C1B39267  33.227  31.123  13.748 -0.0283 -0.0142  0.0475
 3346DOPE   D2B39268  33.030  31.405  13.477 -0.0767 -0.1524 -0.0363
 3346DOPE   C3B39269  32.737  31.755  13.553  0.0415 -0.2311 -0.0027
 3346DOPE   C4B39270  32.397  32.149  13.423  0.1889 -0.1521  0.0121
 3347DOPE   NH339271  32.172  29.750  13.947  0.1895  0.1195 -0.0049
 3347DOPE   PO439272  32.192  29.620  13.658  0.2602  0.0729 -0.0263
 3347DOPE   GL139273  32.050  29.572  13.260 -0.4329 -0.1874  0.1166
 3347DOPE   GL239274  32.098  29.831  13.216  0.0019 -0.1961 -0.0546
 3347DOPE   C1A39275  32.035  29.679  12.782  0.1012 -0.0599 -0.0844
 3347DOPE   D2A39276  32.029  29.544  12.381 -0.1304 -0.1191 -0.1382
 3347DOPE   C3A39277  31.648  29.568  12.078  0.1575  0.6018 -0.0549
 3347DOPE   C4A39278  31.308  29.763  11.768 -0.2089 -0.2033 -0.0919
 3347DOPE   C1B39279  31.877  30.145  12.921 -0.0035 -0.0805 -0.0282
 3347DOPE   D2B39280  31.964  30.392  12.538  0.0331  0.0155  0.0335
 3347DOPE   C3B39281  31.634  30.694  12.413  0.2579 -0.0252 -0.2651
 3347DOPE   C4B39282  31.560  31.109  12.306 -0.1015 -0.2470 -0.0855
 3348POSM   NC339283  31.205  31.752  14.168 -0.1301 -0.0665 -0.0814
 3348POSM   PO439284  30.856  31.538  14.164  0.2114 -0.3965 -0.3868
 3348POSM   AM139285  30.743  31.650  13.897 -0.0862  0.3636 -0.0150
 3348POSM   AM239286  30.826  31.699  13.624 -0.0669  0.1348  0.1300
 3348POSM   T1A39287  30.399  31.924  13.666  0.0152 -0.1866 -0.1275
 3348POSM   C2A39288  30.201  32.268  13.580  0.0119 -0.1957 -0.4290
 3348POSM   C3A39289  30.121  32.618  13.312 -0.0028 -0.0828 -0.1079
 3348POSM   C1B39290  30.913  31.971  13.525  0.1221  0.2140 -0.3092
 3348POSM   D2B39291  31.041  32.197  13.155 -0.1837 -0.1764 -0.1628
 3348POSM   C3B39292  31.448  32.202  12.926  0.1154  0.2086 -0.1609
 3348POSM   C4B39293  31.823  32.466  12.849 -0.0995  0.2847  0.1175
 3349DOPC   NC339294  30.251  25.030  13.456 -0.4910  0.0664  0.4024
 3349DOPC   PO439295  30.071  25.400  13.467 -0.1659 -0.1833 -0.0551
 3349DOPC   GL139296  30.251  25.395  13.078 -0.1373 -0.2204  0.0792
 3349DOPC   GL239297  30.472  25.208  12.932  0.0231  0.1381 -0.2350
 3349DOPC   C1A39298  30.028  25.353  12.673 -0.1380 -0.4954 -0.1525
 3349DOPC   D2A39299  30.312  25.292  12.296 -0.3589 -0.3199 -0.0558
 3349DOPC   C3A39300  30.403  24.944  12.050  0.3903 -0.1574  0.3675
 3349DOPC   C4A39301  30.724  24.695  11.915  0.5096  0.1989  0.2952
 3349DOPC   C1B39302  30.620  25.506  12.583  0.1231 -0.1269  0.0573
 3349DOPC   D2B39303  30.867  25.738  12.316  0.2578 -0.1373  0.1182
 3349DOPC   C3B39304  30.753  25.969  11.904  0.1062  0.1676 -0.2438
 3349DOPC   C4B39305  30.403  26.156  11.651 -0.0267 -0.0143  0.2300
 3350POSM   NC339306  26.604  24.779  12.979  0.1862  0.0254  0.2227
 3350POSM   PO439307  26.381  24.800  12.654  0.1347 -0.2150  0.1707
 3350POSM   AM139308  26.488  24.781  12.340 -0.1730 -0.3028 -0.0885
 3350POSM   AM239309  26.432  24.646  12.109 -0.3037  0.0134  0.3022
 3350POSM   T1A39310  26.893  24.794  12.015  0.0509 -0.0226  0.0392
 3350POSM   C2A39311  27.065  24.604  11.632  0.0434  0.0218 -0.2227
 3350POSM   C3A39312  26.973  24.415  11.175  0.1180  0.0032  0.3354
 3350POSM   C1B39313  26.242  24.696  11.825  0.0843  0.2166 -0.0228
 3350POSM   D2B39314  26.120  24.717  11.370 -0.1735  0.1847  0.1567
 3350POSM   C3B39315  25.988  24.411  11.063  0.1374  0.0264  0.2703
 3350POSM   C4B39316  25.895  24.084  10.763  0.0772  0.2775 -0.0433
 3351POSM   NC339317  24.732  33.648  14.074  0.0331 -0.3891 -0.0343
 3351POSM   PO439318  24.914  33.298  13.990 -0.0627 -0.0084 -0.0888
 3351POSM   AM139319  24.944  33.366  13.667  0.0892 -0.1296 -0.0250
 3351POSM   AM239320  25.101  33.283  13.459  0.1500 -0.2160 -0.0125
 3351POSM   T1A39321  24.815  33.755  13.320 -0.2708  0.3114  0.0994
 3351POSM   C2A39322  24.731  34.116  13.074 -0.1881  0.3616  0.0085
 3351POSM   C3A39323  24.519  34.363  12.706  0.1720 -0.0475 -0.2197
 3351POSM   C1B39324  24.922  33.232  13.169  0.0654 -0.1677 -0.0605
 3351POSM   D2B39325  24.816  33.012  12.829 -0.1360  0.2605 -0.1674
 3351POSM   C3B39326  24.870  33.304  12.463  0.3368 -0.1281  0.1765
 3351POSM   C4B39327  24.968  33.427  12.015 -0.3056 -0.2152 -0.0594
 3352DOPS   CNO39328  30.234  30.391  14.184 -0.2434  0.2844 -0.1110
 3352DOPS   PO439329  30.501  30.233  13.987  0.1133 -0.0754  0.0569
 3352DOPS   GL139330  30.671  30.347  13.635 -0.1557  0.0733 -0.2543
 3352DOPS   GL239331  30.640  30.047  13.496 -0.2292 -0.3155 -0.4751
 3352DOPS   C1A39332  30.740  30.774  13.481  0.1270 -0.1719  0.1179
 3352DOPS   D2A39333  30.867  31.129  13.162  0.4486 -0.0948  0.0147
 3352DOPS   C3A39334  30.909  31.568  13.120 -0.4385 -0.2454 -0.0054
 3352DOPS   C4A39335  30.588  31.930  13.111  0.0387  0.0242 -0.0860
 3352DOPS   C1B39336  30.706  29.850  13.113 -0.2499  0.3014 -0.2336
 3352DOPS   D2B39337  30.815  29.585  12.734  0.2098  0.1357 -0.0891
 3352DOPS   C3B39338  30.929  29.231  12.449 -0.1076  0.3178  0.1681
 3352DOPS   C4B39339  30.604  29.091  12.105 -0.1324 -0.0465 -0.4963
 3353DOPC   NC339340  26.553  32.344  14.360  0.2645 -0.2636 -0.0184
 3353DOPC   PO439341  26.728  32.468  14.055 -0.1742 -0.1750  0.0524
 3353DOPC   GL139342  26.935  32.248  13.803 -0.0354 -0.2971 -0.2125
 3353DOPC   GL239343  27.064  32.434  13.610 -0.2414 -0.3478 -0.0684
 3353DOPC   C1A39344  26.773  32.186  13.324  0.0403 -0.1433  0.1195
 3353DOPC   D2A39345  26.871  32.181  12.798  0.1262 -0.0790 -0.1168
 3353DOPC   C3A39346  27.165  32.259  12.435 -0.2961 -0.3184 -0.1807
 3353DOPC   C4A39347  27.191  32.234  11.955  0.0226 -0.0742  0.1696
 3353DOPC   C1B39348  27.078  32.549  13.179 -0.1685 -0.3020  0.1100
 3353DOPC   D2B39349  27.194  32.585  12.727 -0.0741 -0.0610 -0.1336
 3353DOPC   C3B39350  27.024  32.857  12.390  0.4332 -0.2621  0.1023
 3353DOPC   C4B39351  26.626  32.925  12.217 -0.2024  0.1497  0.0765
 3354DOPE   NH339352  28.377  29.814  13.609  0.2345  0.2109 -0.0924
 3354DOPE   PO439353  28.079  29.825  13.491  0.4715 -0.3001 -0.1775
 3354DOPE   GL139354  28.283  29.970  13.137  0.0180  0.0367  0.2202
 3354DOPE   GL239355  28.066  30.114  12.977  0.0952  0.2054  0.0906
 3354DOPE   C1A39356  28.599  29.921  12.794 -0.2220 -0.0106  0.3666
 3354DOPE   D2A39357  28.813  29.986  12.389 -0.3258 -0.0080  0.2156
 3354DOPE   C3A39358  28.578  30.053  11.988  0.0725  0.0891  0.0936
 3354DOPE   C4A39359  28.422  30.212  11.579  0.0981  0.0446 -0.1354
 3354DOPE   C1B39360  27.703  30.024  12.672 -0.1918  0.1144 -0.1668
 3354DOPE   D2B39361  27.329  29.890  12.460 -0.3683 -0.0319 -0.0936
 3354DOPE   C3B39362  27.294  29.545  12.165 -0.2836  0.0277  0.1242
 3354DOPE   C4B39363  27.000  29.350  11.909 -0.1787 -0.0832 -0.1040
 3355DOPE   NH339364  27.344  25.605  13.405 -0.1747 -0.3227 -0.0776
 3355DOPE   PO439365  27.193  25.453  13.208 -0.1137  0.1082  0.3022
 3355DOPE   GL139366  27.269  25.619  12.870 -0.2709  0.0696  0.2234
 3355DOPE   GL239367  27.198  25.881  12.870  0.2275 -0.0588  0.1725
 3355DOPE   C1A39368  27.406  25.328  12.523 -0.0300  0.2021  0.1259
 3355DOPE   D2A39369  27.476  25.549  12.107 -0.3989 -0.2302  0.2020
 3355DOPE   C3A39370  27.371  25.527  11.668  0.0698  0.0708 -0.1032
 3355DOPE   C4A39371  27.446  25.410  11.243  0.1991  0.0394  0.0589
 3355DOPE   C1B39372  27.070  25.799  12.436 -0.0245 -0.1284  0.1536
 3355DOPE   D2B39373  27.140  25.858  11.916  0.1098  0.0415  0.3215
 3355DOPE   C3B39374  27.099  25.890  11.434  0.1537  0.0045  0.3203
 3355DOPE   C4B39375  27.051  25.994  11.002  0.2662 -0.0980  0.4239
 3356DOPC   NC339376  30.434  29.711  13.845 -0.1826  0.1544 -0.1145
 3356DOPC   PO439377  30.746  29.503  13.992 -0.2261 -0.1251 -0.0554
 3356DOPC   GL139378  30.904  29.505  13.651 -0.2660 -0.3901  0.1394
 3356DOPC   GL239379  30.891  29.395  13.396 -0.0406  0.1506 -0.0861
 3356DOPC   C1A39380  31.146  29.843  13.359  0.1056 -0.2354  0.0814
 3356DOPC   D2A39381  31.127  29.952  12.879  0.2401 -0.2252 -0.1183
 3356DOPC   C3A39382  31.004  30.079  12.437  0.0737 -0.1364 -0.2017
 3356DOPC   C4A39383  31.168  30.496  12.231 -0.0692  0.1442  0.4180
 3356DOPC   C1B39384  31.148  29.401  13.018 -0.1846  0.1248  0.1099
 3356DOPC   D2B39385  31.354  29.139  12.660 -0.0057  0.2897  0.1539
 3356DOPC   C3B39386  31.213  28.694  12.799 -0.0408  0.0756  0.1039
 3356DOPC   C4B39387  30.755  28.655  12.953 -0.0647  0.1032  0.0398
 3357POSM   NC339388  30.893  33.568  15.157  0.1078 -0.0582 -0.1117
 3357POSM   PO439389  31.315  33.566  15.171  0.3021  0.1295 -0.1332
 3357POSM   AM139390  31.335  33.695  14.856 -0.3605 -0.3437  0.0500
 3357POSM   AM239391  31.451  33.901  14.823 -0.2125  0.0612 -0.0245
 3357POSM   T1A39392  31.183  33.713  14.401 -0.1458 -0.0125  0.1925
 3357POSM   C2A39393  31.298  34.080  14.124  0.3728  0.2852  0.3618
 3357POSM   C3A39394  31.518  34.234  13.772 -0.1010  0.0260  0.0506
 3357POSM   C1B39395  31.542  34.051  14.555  0.0532  0.2341  0.0931
 3357POSM   D2B39396  31.761  34.357  14.235  0.1191 -0.0002  0.2102
 3357POSM   C3B39397  32.105  34.577  14.016 -0.0035  0.4007  0.0765
 3357POSM   C4B39398  32.326  34.738  13.669 -0.2160 -0.1794  0.0595
 3358POSM   NC339399  27.035  32.543  14.826  0.0299  0.0662  0.1132
 3358POSM   PO439400  27.003  32.725  14.474 -0.0730 -0.3525 -0.0111
 3358POSM   AM139401  27.008  32.879  14.193 -0.0884  0.2220 -0.2263
 3358POSM   AM239402  26.812  32.957  13.922  0.0096  0.1831  0.2351
 3358POSM   T1A39403  27.228  32.913  13.779 -0.1224 -0.0441  0.0262
 3358POSM   C2A39404  27.148  33.061  13.356 -0.1431  0.2509  0.1755
 3358POSM   C3A39405  26.972  33.089  12.972 -0.0522  0.0294 -0.0686
 3358POSM   C1B39406  26.764  32.903  13.577 -0.2367 -0.0008  0.3065
 3358POSM   D2B39407  26.623  32.724  13.217  0.1047  0.0922  0.1872
 3358POSM   C3B39408  26.718  32.685  12.767 -0.0056  0.0055  0.0798
 3358POSM   C4B39409  26.673  32.469  12.411  0.0782 -0.0798 -0.1790
 3359DOPC   NC339410  32.367  34.231  15.568  0.0185  0.2222  0.0640
 3359DOPC   PO439411  32.107  34.323  15.341  0.0424 -0.2409 -0.1685
 3359DOPC   GL139412  32.101  34.566  14.983 -0.0687 -0.6491  0.0116
 3359DOPC   GL239413  32.397  34.607  15.021  0.2877  0.0152  0.0502
 3359DOPC   C1A39414  31.724  34.655  14.653 -0.0914 -0.4891  0.1756
 3359DOPC   D2A39415  31.439  34.713  14.319 -0.3324  0.1628 -0.2659
 3359DOPC   C3A39416  31.465  34.721  13.896  0.1649 -0.0459  0.2642
 3359DOPC   C4A39417  31.117  34.947  13.603  0.0228  0.0442 -0.1063
 3359DOPC   C1B39418  32.718  34.830  14.742 -0.0939 -0.0176  0.1779
 3359DOPC   D2B39419  33.179  34.835  14.655 -0.0745 -0.2220 -0.0544
 3359DOPC   C3B39420  33.270  34.843  14.181  0.3123 -0.2557  0.3672
 3359DOPC   C4B39421  33.323  34.640  13.751  0.0691 -0.4527  0.2146
 3360DOPS   CNO39422  26.835  29.515  13.768  0.1826 -0.0878  0.0952
 3360DOPS   PO439423  26.518  29.364  13.601  0.0909  0.3720  0.0317
 3360DOPS   GL139424  26.655  29.581  13.332  0.3057  0.0140  0.1011
 3360DOPS   GL239425  26.827  29.446  13.162 -0.1354  0.1046 -0.2615
 3360DOPS   C1A39426  26.618  29.779  12.879  0.0616  0.0143  0.0342
 3360DOPS   D2A39427  26.868  29.985  12.546  0.0517 -0.0782 -0.2679
 3360DOPS   C3A39428  26.987  30.261  12.227 -0.3708 -0.0606  0.1107
 3360DOPS   C4A39429  27.281  30.362  11.915  0.3712 -0.2538 -0.0320
 3360DOPS   C1B39430  26.712  29.108  12.854  0.0849  0.3707 -0.1455
 3360DOPS   D2B39431  26.842  28.727  12.727  0.2166  0.2193  0.1284
 3360DOPS   C3B39432  26.636  28.485  12.425  0.5526  0.0677  0.0844
 3360DOPS   C4B39433  26.400  28.092  12.429 -0.2520  0.2350 -0.0363
 3361DOPE   NH339434   0.465  27.277  14.332  0.0979  0.1528  0.1341
 3361DOPE   PO439435   0.318  27.551  14.224  0.1172 -0.3508  0.1597
 3361DOPE   GL139436   0.477  27.552  13.876 -0.1752 -0.0456  0.4030
 3361DOPE   GL239437   0.244  27.531  13.722  0.3055  0.0102  0.2156
 3361DOPE   C1A39438   0.696  27.336  13.512 -0.2542 -0.1132  0.0560
 3361DOPE   D2A39439   0.729  27.353  13.043  0.3112  0.0517 -0.3731
 3361DOPE   C3A39440   0.755  27.714  12.759 -0.1711  0.2441  0.4631
 3361DOPE   C4A39441   0.884  27.997  12.425 -0.1100 -0.0795  0.0278
 3361DOPE   C1B39442   0.293  27.573  13.229 -0.1901 -0.1869 -0.4276
 3361DOPE   D2B39443   0.199  27.404  12.830  0.2265 -0.0795 -0.1344
 3361DOPE   C3B39444   0.382  27.553  12.458 -0.0542 -0.4581 -0.1315
 3361DOPE   C4B39445   0.515  27.813  12.113 -0.0634 -0.1957  0.0255
 3362DOPS   CNO39446  28.502  30.423  13.724 -0.1566  0.1355  0.4627
 3362DOPS   PO439447  28.307  30.372  13.400  0.0981 -0.0246 -0.1027
 3362DOPS   GL139448  28.469  30.443  13.018 -0.2634  0.2113  0.1049
 3362DOPS   GL239449  28.221  30.589  12.998 -0.1812  0.2274 -0.0654
 3362DOPS   C1A39450  28.445  30.354  12.563  0.1286  0.0119  0.2548
 3362DOPS   D2A39451  28.085  30.147  12.404 -0.0134  0.3209  0.2556
 3362DOPS   C3A39452  28.086  30.218  11.979  0.1459  0.2585  0.1368
 3362DOPS   C4A39453  27.970  30.425  11.558 -0.0987 -0.3929 -0.0321
 3362DOPS   C1B39454  28.415  30.890  12.687 -0.1386 -0.3757 -0.0124
 3362DOPS   D2B39455  28.692  30.997  12.328  0.2729 -0.0576  0.0062
 3362DOPS   C3B39456  28.503  31.218  12.074 -0.1554  0.2949  0.1348
 3362DOPS   C4B39457  28.157  31.448  11.935 -0.1162  0.1489  0.1603
 3363DOPS   CNO39458  25.663  25.291  12.822  0.2764  0.1554 -0.0975
 3363DOPS   PO439459  25.695  25.249  12.437  0.1327  0.0084  0.1572
 3363DOPS   GL139460  25.848  25.341  12.145 -0.0429 -0.1028 -0.1355
 3363DOPS   GL239461  26.128  25.336  12.141 -0.1777  0.1352  0.2478
 3363DOPS   C1A39462  25.855  25.583  11.725 -0.1997  0.1053 -0.1901
 3363DOPS   D2A39463  25.976  25.630  11.311 -0.1268  0.0024  0.1777
 3363DOPS   C3A39464  25.970  25.218  11.106  0.0978 -0.0474 -0.0715
 3363DOPS   C4A39465  26.194  24.870  10.870  0.0755  0.1864  0.0325
 3363DOPS   C1B39466  26.330  25.494  11.679 -0.0149 -0.0240 -0.0376
 3363DOPS   D2B39467  26.711  25.559  11.370 -0.4559  0.1053 -0.2977
 3363DOPS   C3B39468  26.958  25.171  11.218  0.1110  0.1081  0.0590
 3363DOPS   C4B39469  27.115  24.812  10.948 -0.2573  0.4082 -0.1809
 3364POSM   NC339470  25.236  32.521  13.956 -0.0175 -0.2581 -0.2244
 3364POSM   PO439471  24.844  32.434  13.954  0.1581  0.3077  0.0812
 3364POSM   AM139472  24.849  32.438  13.601  0.0558  0.1705  0.1940
 3364POSM   AM239473  24.679  32.332  13.433 -0.0588 -0.0870 -0.0290
 3364POSM   T1A39474  25.007  32.653  13.178 -0.3454 -0.0015  0.1836
 3364POSM   C2A39475  25.314  33.006  12.974 -0.1247  0.2570 -0.1611
 3364POSM   C3A39476  25.333  33.153  12.483 -0.0996  0.0749  0.1111
 3364POSM   C1B39477  24.873  32.174  13.217  0.2920 -0.0318 -0.0466
 3364POSM   D2B39478  25.201  31.920  13.082  0.0447  0.2424 -0.0339
 3364POSM   C3B39479  25.466  31.750  12.687  0.3123 -0.0211  0.3694
 3364POSM   C4B39480  25.574  31.334  12.510 -0.2586 -0.1474  0.1264
 3365POSM   NC339481  31.429  28.335  14.150  0.1843 -0.1561  0.0869
 3365POSM   PO439482  31.812  28.349  14.080  0.1224  0.1328 -0.0469
 3365POSM   AM139483  31.639  28.408  13.774  0.1068  0.0484 -0.0709
 3365POSM   AM239484  31.572  28.629  13.593 -0.1358  0.0131 -0.0595
 3365POSM   T1A39485  31.742  28.236  13.309  0.2498 -0.0155  0.2526
 3365POSM   C2A39486  31.797  28.221  12.848 -0.0424 -0.6479  0.3106
 3365POSM   C3A39487  32.229  28.140  12.674  0.1877  0.2249 -0.3864
 3365POSM   C1B39488  31.544  28.698  13.219  0.5288 -0.0215  0.1773
 3365POSM   D2B39489  31.678  28.757  12.751 -0.2019 -0.0172 -0.1376
 3365POSM   C3B39490  31.512  28.796  12.316  0.0449 -0.3712  0.1860
 3365POSM   C4B39491  31.321  28.832  11.835 -0.2535  0.0217 -0.1916
 3366DOPC   NC339492  26.333  23.720  12.536  0.2324  0.0879 -0.0939
 3366DOPC   PO439493  26.176  24.055  12.745 -0.2648  0.3681 -0.1008
 3366DOPC   GL139494  26.027  24.013  12.361 -0.0331 -0.0617  0.2707
 3366DOPC   GL239495  25.726  24.017  12.426  0.0816  0.0524 -0.0393
 3366DOPC   C1A39496  26.176  24.179  11.937  0.0796  0.0664 -0.1358
 3366DOPC   D2A39497  26.114  24.154  11.460  0.3722  0.0554 -0.2697
 3366DOPC   C3A39498  26.337  23.975  11.061  0.1103 -0.3628 -0.0437
 3366DOPC   C4A39499  26.402  24.028  10.626  0.0554  0.1077 -0.1485
 3366DOPC   C1B39500  25.795  23.778  12.006 -0.0735  0.1267 -0.1641
 3366DOPC   D2B39501  25.891  23.492  11.666  0.0224  0.0654  0.1112
 3366DOPC   C3B39502  25.951  23.701  11.246 -0.0543  0.5588  0.1815
 3366DOPC   C4B39503  26.085  23.587  10.846  0.0990 -0.1505 -0.0538
 3367POSM   NC339504  28.654   0.753  14.638  0.1268  0.0982 -0.2816
 3367POSM   PO439505  28.998   0.565  14.561 -0.0029 -0.0151  0.0681
 3367POSM   AM139506  29.080   0.641  14.263 -0.2064 -0.0200 -0.3248
 3367POSM   AM239507  29.307   0.717  14.181  0.0340 -0.1236 -0.0596
 3367POSM   T1A39508  28.994   0.491  13.786  0.1811 -0.3084  0.1628
 3367POSM   C2A39509  29.036   0.215  13.403 -0.2369  0.1271 -0.1082
 3367POSM   C3A39510  29.225  -0.020  13.054 -0.0142 -0.0164 -0.1861
 3367POSM   C1B39511  29.440   0.646  13.893  0.1269 -0.0330  0.1654
 3367POSM   D2B39512  29.648   0.623  13.452  0.1220  0.0544 -0.1286
 3367POSM   C3B39513  30.093   0.825  13.399 -0.0276  0.1411 -0.2875
 3367POSM   C4B39514  30.493   0.727  13.549  0.1757  0.0779 -0.0356
 3368DOPC   NC339515  32.054  31.291  14.619  0.2011 -0.0811  0.3264
 3368DOPC   PO439516  32.182  31.566  14.377 -0.0988 -0.3196 -0.0573
 3368DOPC   GL139517  32.343  31.694  14.011 -0.3616  0.0453 -0.1091
 3368DOPC   GL239518  32.406  31.463  13.798 -0.0413  0.1421 -0.3723
 3368DOPC   C1A39519  32.520  32.049  13.888 -0.0920 -0.0477  0.1198
 3368DOPC   D2A39520  32.952  32.167  13.595  0.0391 -0.3464  0.1328
 3368DOPC   C3A39521  32.816  32.026  13.189  0.0969  0.0230 -0.1553
 3368DOPC   C4A39522  32.746  31.576  13.039  0.0987 -0.1291 -0.0379
 3368DOPC   C1B39523  32.327  31.515  13.381 -0.0989 -0.0127 -0.1856
 3368DOPC   D2B39524  32.176  31.634  12.959  0.0705 -0.1814 -0.0890
 3368DOPC   C3B39525  32.247  31.209  12.755  0.0293 -0.1287 -0.1549
 3368DOPC   C4B39526  32.549  31.021  12.494 -0.1448  0.0263 -0.0167
 3369POSM   NC339527  29.734  29.261  14.040 -0.0962 -0.1519  0.0598
 3369POSM   PO439528  30.129  29.349  14.080  0.1648  0.0483 -0.2056
 3369POSM   AM139529  30.134  29.375  13.784  0.0518  0.2677  0.0936
 3369POSM   AM239530  29.955  29.374  13.593  0.1113  0.4025 -0.0204
 3369POSM   T1A39531  30.352  29.485  13.350 -0.1279  0.1419  0.1810
 3369POSM   C2A39532  30.144  29.520  12.954  0.2055  0.4034  0.0899
 3369POSM   C3A39533  29.861  29.621  12.661  0.0088 -0.0922 -0.0648
 3369POSM   C1B39534  29.776  29.447  13.277 -0.1404  0.0923 -0.5077
 3369POSM   D2B39535  29.491  29.578  12.953  0.3481 -0.0656 -0.1281
 3369POSM   C3B39536  29.318  29.967  12.723 -0.0058 -0.0523 -0.3794
 3369POSM   C4B39537  29.461  30.461  12.852  0.0338 -0.0905 -0.1268
 3370POSM   NC339538  33.318  26.716  13.969  0.0562  0.0808  0.0827
 3370POSM   PO439539  33.566  26.376  14.034  0.1684 -0.0701 -0.0133
 3370POSM   AM139540  33.535  26.261  13.738 -0.0454  0.1330  0.0312
 3370POSM   AM239541  33.355  26.116  13.554  0.0529  0.2859 -0.0780
 3370POSM   T1A39542  33.901  26.086  13.375  0.0949 -0.2564 -0.0695
 3370POSM   C2A39543  33.978  25.655  13.078 -0.0379 -0.1412  0.0689
 3370POSM   C3A39544  34.179  25.667  12.657  0.2015  0.3629 -0.1089
 3370POSM   C1B39545  33.046  26.096  13.372  0.2382  0.2352 -0.0628
 3370POSM   D2B39546  32.615  26.011  13.155  0.0784  0.0118 -0.1543
 3370POSM   C3B39547  32.567  25.793  12.686 -0.1548 -0.2176 -0.1400
 3370POSM   C4B39548  32.493  25.686  12.221  0.1525 -0.1513 -0.2609
 3371DOPC   NC339549  25.126  28.813  12.843 -0.0903  0.0345  0.0717
 3371DOPC   PO439550  25.402  28.733  13.086  0.0395 -0.0088  0.1664
 3371DOPC   GL139551  25.551  28.646  12.702  0.0279  0.0120  0.1714
 3371DOPC   GL239552  25.824  28.660  12.669 -0.2406 -0.0230 -0.0260
 3371DOPC   C1A39553  25.548  28.741  12.268 -0.0058  0.3212 -0.1214
 3371DOPC   D2A39554  25.257  28.808  11.933  0.2136 -0.0313 -0.2228
 3371DOPC   C3A39555  25.350  28.948  11.486  0.3467 -0.1876 -0.2639
 3371DOPC   C4A39556  25.049  29.127  11.181  0.0682 -0.2493 -0.1823
 3371DOPC   C1B39557  26.106  28.540  12.302 -0.1589 -0.1649  0.2754
 3371DOPC   D2B39558  26.315  28.502  11.945  0.0882 -0.3484  0.3837
 3371DOPC   C3B39559  26.634  28.670  11.626  0.2902 -0.0568 -0.1077
 3371DOPC   C4B39560  26.877  28.988  11.425 -0.1170  0.1893  0.0996
 3372DOPE   NH339561  26.115  25.708  12.536  0.2872  0.1251  0.1558
 3372DOPE   PO439562  25.824  25.722  12.548 -0.0595 -0.1562  0.0231
 3372DOPE   GL139563  25.760  25.749  12.140  0.2683 -0.1303 -0.0752
 3372DOPE   GL239564  25.456  25.559  12.129  0.2075 -0.2014  0.2553
 3372DOPE   C1A39565  25.512  26.085  11.924  0.1361  0.0825  0.1662
 3372DOPE   D2A39566  25.272  26.238  11.580 -0.1419  0.0812  0.1925
 3372DOPE   C3A39567  25.202  26.268  11.141 -0.0381 -0.0956 -0.2342
 3372DOPE   C4A39568  25.229  26.028  10.784 -0.2946 -0.1251 -0.1616
 3372DOPE   C1B39569  25.244  25.633  11.779  0.0778 -0.2961  0.2361
 3372DOPE   D2B39570  25.145  25.824  11.348 -0.1418 -0.0102 -0.0625
 3372DOPE   C3B39571  25.510  25.842  11.104  0.1500  0.1086  0.2166
 3372DOPE   C4B39572  25.822  25.660  10.862 -0.1970 -0.2918 -0.1161
 3373DOPC   NC339573  23.366  29.465  12.802  0.0545 -0.0054  0.0394
 3373DOPC   PO439574  23.130  29.269  12.547  0.0454  0.0164 -0.1034
 3373DOPC   GL139575  22.966  29.321  12.180 -0.3040 -0.6065  0.2676
 3373DOPC   GL239576  22.687  29.353  12.128  0.0805  0.1251 -0.0701
 3373DOPC   C1A39577  23.182  29.426  11.816 -0.2320 -0.0712  0.0754
 3373DOPC   D2A39578  23.173  29.605  11.384  0.0993  0.1283  0.2132
 3373DOPC   C3A39579  23.589  29.643  11.099  0.1682  0.1961  0.2440
 3373DOPC   C4A39580  24.039  29.598  11.024  0.0087  0.0476  0.1503
 3373DOPC   C1B39581  22.738  29.626  11.741  0.0563  0.2569  0.1433
 3373DOPC   D2B39582  22.761  29.833  11.298 -0.0795  0.1390  0.1366
 3373DOPC   C3B39583  22.705  29.741  10.826  0.1500  0.1303 -0.1476
 3373DOPC   C4B39584  22.427  29.792  10.414  0.0858  0.1629  0.0583
 3374POSM   NC339585  33.325  31.829  14.803 -0.0055  0.0450  0.0655
 3374POSM   PO439586  33.158  31.559  14.595 -0.2647  0.0812 -0.2484
 3374POSM   AM139587  33.034  31.630  14.302 -0.5621 -0.1465 -0.0468
 3374POSM   AM239588  32.858  31.536  14.112  0.2399 -0.0514 -0.1974
 3374POSM   T1A39589  33.261  31.656  13.898  0.3098 -0.0457 -0.0403
 3374POSM   C2A39590  33.424  31.802  13.483 -0.0398  0.2145  0.0380
 3374POSM   C3A39591  33.851  31.755  13.320 -0.1297  0.2702 -0.0070
 3374POSM   C1B39592  32.819  31.258  13.947 -0.1093  0.2227 -0.2433
 3374POSM   D2B39593  32.621  31.007  13.613 -0.2232 -0.1869  0.3428
 3374POSM   C3B39594  32.729  31.090  13.208  0.3527  0.0044 -0.0111
 3374POSM   C4B39595  33.127  31.129  13.032  0.0843 -0.1330 -0.1938
 3375POSM   NC339596  26.206  32.670  14.017 -0.0473 -0.2048 -0.0847
 3375POSM   PO439597  25.799  32.698  14.102  0.2069  0.2525 -0.1096
 3375POSM   AM139598  25.748  32.641  13.765  0.2862 -0.1136  0.2254
 3375POSM   AM239599  25.923  32.482  13.593  0.2143  0.2552  0.0800
 3375POSM   T1A39600  25.502  32.544  13.297  0.2075  0.1101  0.0186
 3375POSM   C2A39601  25.473  32.365  12.868  0.0645  0.1792 -0.2267
 3375POSM   C3A39602  25.261  32.187  12.553  0.1310  0.1755  0.0486
 3375POSM   C1B39603  26.060  32.527  13.275  0.1813  0.2186 -0.2561
 3375POSM   D2B39604  26.202  32.829  12.990  0.1302 -0.1275 -0.1510
 3375POSM   C3B39605  26.261  32.893  12.552  0.0098  0.1771  0.0002
 3375POSM   C4B39606  26.132  32.794  12.070 -0.2301  0.2191 -0.0019
 3376POSM   NC339607  27.047  28.906  13.180  0.1908 -0.0779  0.2814
 3376POSM   PO439608  27.366  29.125  13.324 -0.0549 -0.1442 -0.1259
 3376POSM   AM139609  27.245  29.322  13.083  0.3538 -0.1083  0.1382
 3376POSM   AM239610  27.403  29.441  12.862 -0.0246  0.1027 -0.0737
 3376POSM   T1A39611  27.147  29.839  12.966 -0.0070  0.1079  0.2788
 3376POSM   C2A39612  27.200  30.291  12.771 -0.2112  0.2517  0.0891
 3376POSM   C3A39613  27.189  30.667  12.400 -0.2083 -0.2018 -0.1571
 3376POSM   C1B39614  27.146  29.413  12.637 -0.2036  0.0202 -0.1127
 3376POSM   D2B39615  26.728  29.475  12.457  0.1562 -0.0987 -0.0655
 3376POSM   C3B39616  26.784  29.819  12.113  0.0950  0.0933  0.1462
 3376POSM   C4B39617  27.168  29.925  11.808 -0.1323  0.4527  0.1271
 3377POSM   NC339618  27.528  33.309  14.209  0.1505 -0.0501  0.0973
 3377POSM   PO439619  27.772  33.208  14.490  0.1434 -0.4395  0.2745
 3377POSM   AM139620  27.973  33.170  14.227  0.0329  0.0000 -0.1377
 3377POSM   AM239621  27.987  33.011  14.007  0.0961  0.0665 -0.1092
 3377POSM   T1A39622  28.458  33.134  14.065 -0.0662  0.2578  0.0323
 3377POSM   C2A39623  28.782  32.924  13.850  0.1559  0.3138 -0.2779
 3377POSM   C3A39624  29.033  32.765  13.535  0.1357 -0.2206  0.0493
 3377POSM   C1B39625  27.897  32.862  13.718  0.1366 -0.0027  0.3180
 3377POSM   D2B39626  27.593  32.754  13.384  0.1598  0.0999  0.0339
 3377POSM   C3B39627  27.474  33.024  12.984 -0.2745  0.3377 -0.2070
 3377POSM   C4B39628  27.310  33.263  12.647  0.0728 -0.2248 -0.0691
 3378DOPC   NC339629   1.359  29.894  14.477  0.0864 -0.0332 -0.1879
 3378DOPC   PO439630   1.053  30.044  14.232 -0.1234  0.1537  0.1639
 3378DOPC   GL139631   1.125  30.003  13.871 -0.1201  0.1221  0.2741
 3378DOPC   GL239632   0.885  29.959  13.619 -0.0155  0.0301  0.3140
 3378DOPC   C1A39633   1.444  29.886  13.578  0.0084  0.1130 -0.1066
 3378DOPC   D2A39634   1.499  29.461  13.365  0.1189  0.0535 -0.0008
 3378DOPC   C3A39635   1.761  29.563  12.976 -0.1744  0.1683 -0.1390
 3378DOPC   C4A39636   1.688  29.759  12.530  0.0168  0.0058  0.0275
 3378DOPC   C1B39637   1.170  30.288  13.373 -0.0069  0.0404  0.2793
 3378DOPC   D2B39638   1.410  30.529  13.127 -0.4049  0.2228 -0.1345
 3378DOPC   C3B39639   1.303  30.546  12.669  0.2925 -0.1797  0.0432
 3378DOPC   C4B39640   0.959  30.663  12.433 -0.1431 -0.1180  0.0805
 3379POSM   NC339641  34.007  31.373  14.408  0.0059  0.0222  0.1293
 3379POSM   PO439642  33.624  31.420  14.470  0.1460  0.0510 -0.1096
 3379POSM   AM139643  33.663  31.468  14.139 -0.4512  0.1653 -0.0450
 3379POSM   AM239644  33.666  31.303  13.947 -0.0096 -0.2674  0.1530
 3379POSM   T1A39645  33.942  31.776  13.813  0.0133 -0.1086 -0.1703
 3379POSM   C2A39646  34.301  31.866  13.500 -0.1683  0.1798 -0.3299
 3379POSM   C3A39647  34.719  31.988  13.439 -0.1389 -0.0753  0.3259
 3379POSM   C1B39648  33.620  31.337  13.644 -0.0880 -0.0676 -0.0774
 3379POSM   D2B39649  33.491  31.394  13.255  0.4079 -0.1276  0.0010
 3379POSM   C3B39650  33.882  31.487  12.907 -0.0193 -0.0487 -0.3076
 3379POSM   C4B39651  33.852  31.808  12.573  0.0063  0.0383 -0.2156
 3380DOPS   CNO39652  28.831  29.042  13.849 -0.1611  0.2139 -0.0563
 3380DOPS   PO439653  28.865  29.184  13.500 -0.3694  0.2189 -0.2642
 3380DOPS   GL139654  29.063  29.412  13.250  0.0998 -0.0528 -0.4846
 3380DOPS   GL239655  29.192  29.627  13.390  0.1537 -0.1311 -0.1087
 3380DOPS   C1A39656  28.905  29.527  12.834  0.2522 -0.0612  0.1064
 3380DOPS   D2A39657  29.170  29.560  12.460 -0.0801  0.0134 -0.0657
 3380DOPS   C3A39658  29.411  29.887  12.206  0.4027 -0.1343 -0.0208
 3380DOPS   C4A39659  29.597  30.186  11.880  0.0977 -0.1258  0.0409
 3380DOPS   C1B39660  29.033  30.071  13.172  0.0001  0.2285  0.0539
 3380DOPS   D2B39661  28.922  30.358  12.841  0.2156  0.2587 -0.3931
 3380DOPS   C3B39662  29.178  30.362  12.442 -0.2819  0.0219  0.0954
 3380DOPS   C4B39663  29.430  30.611  12.132 -0.0934  0.0151  0.0204
 3381DOPS   CNO39664  22.837  29.416  12.950  0.0429 -0.0749 -0.2782
 3381DOPS   PO439665  22.928  29.792  12.893 -0.3665 -0.2952  0.2938
 3381DOPS   GL139666  22.899  30.020  12.557  0.1782 -0.4990 -0.1304
 3381DOPS   GL239667  22.956  29.774  12.334 -0.2030 -0.0782  0.0999
 3381DOPS   C1A39668  23.179  30.190  12.227  0.3089  0.3069  0.0062
 3381DOPS   D2A39669  23.587  30.322  12.085  0.0497 -0.1732  0.2470
 3381DOPS   C3A39670  23.629  30.315  11.661  0.3216  0.1106 -0.0945
 3381DOPS   C4A39671  23.436  30.038  11.331 -0.1327 -0.0456  0.1131
 3381DOPS   C1B39672  22.559  29.941  12.078 -0.0396  0.0173  0.2854
 3381DOPS   D2B39673  22.269  30.075  11.793 -0.0648  0.0699 -0.2014
 3381DOPS   C3B39674  22.387  30.167  11.399  0.0664  0.0545 -0.3342
 3381DOPS   C4B39675  22.535  30.184  10.941  0.4602  0.1360  0.1562
 3382DOPS   CNO39676  29.536  30.458  14.201 -0.0057 -0.1053  0.2717
 3382DOPS   PO439677  29.287  30.696  14.065 -0.0587 -0.2061  0.0527
 3382DOPS   GL139678  29.359  30.816  13.670  0.1994  0.0768  0.1063
 3382DOPS   GL239679  29.292  31.113  13.625 -0.1520 -0.0795  0.0138
 3382DOPS   C1A39680  29.421  30.719  13.257  0.2034 -0.2542 -0.0554
 3382DOPS   D2A39681  29.524  30.934  12.871  0.0546  0.1319 -0.2212
 3382DOPS   C3A39682  29.756  30.766  12.486  0.0789  0.1043 -0.1324
 3382DOPS   C4A39683  29.729  30.308  12.374 -0.1902  0.0610 -0.0054
 3382DOPS   C1B39684  29.208  31.231  13.215 -0.0432  0.0753 -0.0330
 3382DOPS   D2B39685  29.177  31.389  12.763  0.1117 -0.0828  0.2213
 3382DOPS   C3B39686  29.141  31.785  12.525 -0.1510 -0.3664  0.0532
 3382DOPS   C4B39687  29.157  32.221  12.689  0.4654  0.0344  0.2009
 3383POSM   NC339688  29.434  26.666  13.537  0.3491  0.1292  0.0080
 3383POSM   PO439689  29.542  27.017  13.421  0.1615  0.3014 -0.0922
 3383POSM   AM139690  29.547  27.040  13.129  0.1400 -0.6219 -0.1368
 3383POSM   AM239691  29.393  26.907  12.905 -0.3094  0.1860  0.1417
 3383POSM   T1A39692  29.760  27.220  12.662  0.2605 -0.1506 -0.0933
 3383POSM   C2A39693  30.029  27.472  12.308  0.0170 -0.2147  0.1900
 3383POSM   C3A39694  30.232  27.467  11.898 -0.2940  0.2092 -0.3406
 3383POSM   C1B39695  29.342  26.985  12.568  0.2146  0.1552 -0.1401
 3383POSM   D2B39696  29.267  26.938  12.165 -0.1764  0.1439  0.0683
 3383POSM   C3B39697  29.331  27.256  11.797  0.2548  0.0567 -0.5118
 3383POSM   C4B39698  29.313  27.719  11.646  0.0604  0.2846  0.1780
 3384DOPE   NH339699  31.233   0.269  15.614  0.1248  0.2954 -0.0421
 3384DOPE   PO439700  31.225   0.052  15.374  0.1911 -0.1291 -0.2278
 3384DOPE   GL139701  31.223  -0.128  14.975 -0.1655  0.1499  0.2345
 3384DOPE   GL239702  31.302   0.154  14.855 -0.1565  0.0429 -0.2286
 3384DOPE   C1A39703  31.122  -0.150  14.512 -0.0404 -0.0607 -0.0656
 3384DOPE   D2A39704  31.013  -0.011  14.085 -0.2751  0.0287  0.1080
 3384DOPE   C3A39705  31.105  -0.067  13.659  0.0533  0.1019  0.0936
 3384DOPE   C4A39706  31.436  -0.003  13.358  0.3741  0.1983 -0.1971
 3384DOPE   C1B39707  31.024   0.378  14.548  0.1719  0.0942  0.1435
 3384DOPE   D2B39708  31.039   0.509  14.106 -0.0021  0.3179  0.0747
 3384DOPE   C3B39709  30.841   0.890  13.882 -0.0927  0.0258 -0.0958
 3384DOPE   C4B39710  30.842   1.079  13.497  0.0835 -0.1757 -0.1407
 3385POSM   NC339711  28.423  24.379  13.081 -0.0926  0.0749 -0.0406
 3385POSM   PO439712  28.573  23.997  12.991  0.4032 -0.0402 -0.1241
 3385POSM   AM139713  28.665  23.948  12.694 -0.4364 -0.6301 -0.0543
 3385POSM   AM239714  28.845  23.721  12.545 -0.1781  0.1525 -0.4962
 3385POSM   T1A39715  28.489  23.996  12.240  0.1997  0.0185  0.1371
 3385POSM   C2A39716  28.176  24.170  11.883  0.0368  0.2506 -0.2974
 3385POSM   C3A39717  27.837  24.395  11.674 -0.0132  0.0840 -0.0603
 3385POSM   C1B39718  28.917  23.720  12.215  0.0254 -0.0740 -0.1202
 3385POSM   D2B39719  29.002  23.430  11.872 -0.2660 -0.2485 -0.0327
 3385POSM   C3B39720  29.453  23.331  11.730  0.0227  0.1083 -0.2014
 3385POSM   C4B39721  29.884  23.452  11.880 -0.1622  0.0053  0.0219
 3386DOPS   CNO39722  31.852  30.919  14.411 -0.2613  0.0482  0.0243
 3386DOPS   PO439723  31.485  30.982  14.406 -0.1582 -0.2617 -0.5040
 3386DOPS   GL139724  31.557  31.138  14.063 -0.1455 -0.2460 -0.0194
 3386DOPS   GL239725  31.291  31.240  14.010 -0.2177 -0.1067 -0.2846
 3386DOPS   C1A39726  31.395  30.935  13.640 -0.1955 -0.2514  0.2049
 3386DOPS   D2A39727  31.275  30.791  13.198 -0.0641 -0.0061 -0.1896
 3386DOPS   C3A39728  31.296  31.004  12.806 -0.0652 -0.1610  0.2715
 3386DOPS   C4A39729  31.050  31.162  12.440 -0.0457  0.1052  0.0070
 3386DOPS   C1B39730  31.524  31.566  13.809 -0.0157  0.0376  0.1613
 3386DOPS   D2B39731  31.428  31.907  13.535  0.0607 -0.1353  0.0689
 3386DOPS   C3B39732  31.671  32.265  13.326  0.2167  0.0802  0.2492
 3386DOPS   C4B39733  31.658  32.779  13.223  0.1164  0.1254 -0.1160
 3387POSM   NC339734  32.949  29.479  13.916 -0.1383  0.0315 -0.0057
 3387POSM   PO439735  32.666  29.768  13.836  0.1108 -0.0780  0.1630
 3387POSM   AM139736  32.657  29.855  13.513  0.1352 -0.2393 -0.0431
 3387POSM   AM239737  32.548  29.681  13.301 -0.0597  0.2898  0.0531
 3387POSM   T1A39738  32.880  29.923  13.056 -0.2628  0.4111 -0.1635
 3387POSM   C2A39739  33.147  30.048  12.682 -0.1770 -0.3300 -0.0523
 3387POSM   C3A39740  33.581  30.091  12.511 -0.1450  0.1867 -0.1716
 3387POSM   C1B39741  32.490  29.658  13.001 -0.1811  0.1661 -0.3634
 3387POSM   D2B39742  32.667  29.734  12.606  0.0078  0.0077 -0.3341
 3387POSM   C3B39743  32.748  30.220  12.546 -0.2051 -0.0787 -0.1164
 3387POSM   C4B39744  32.877  30.644  12.470  0.0822  0.2334 -0.0143
 3388POSM   NC339745  27.706  27.591  13.289 -0.1494  0.1734  0.0431
 3388POSM   PO439746  27.462  27.352  13.133 -0.1210  0.0036  0.0325
 3388POSM   AM139747  27.474  27.211  12.841 -0.0223  0.2556  0.0346
 3388POSM   AM239748  27.423  27.272  12.572 -0.0079  0.0100 -0.0503
 3388POSM   T1A39749  27.618  26.752  12.626 -0.0852 -0.1409 -0.3252
 3388POSM   C2A39750  27.967  26.438  12.440 -0.1661  0.0948  0.0984
 3388POSM   C3A39751  28.360  26.518  12.168  0.1643 -0.0945  0.1498
 3388POSM   C1B39752  27.467  27.443  12.252 -0.1111 -0.0005 -0.1832
 3388POSM   D2B39753  27.553  27.344  11.798 -0.2655 -0.0897 -0.0899
 3388POSM   C3B39754  27.755  26.953  11.565 -0.1952  0.0848 -0.2962
 3388POSM   C4B39755  27.885  26.989  11.129 -0.0163 -0.2447  0.1752
 3389POSM   NC339756  26.111  30.518  13.299 -0.2098  0.0285 -0.2217
 3389POSM   PO439757  25.990  30.788  13.607 -0.0761  0.1436 -0.1692
 3389POSM   AM139758  26.183  30.947  13.398 -0.3195  0.0978 -0.2996
 3389POSM   AM239759  26.186  31.134  13.210 -0.0851 -0.1993  0.1024
 3389POSM   T1A39760  26.571  30.817  13.029 -0.0667  0.0654 -0.1932
 3389POSM   C2A39761  26.886  30.978  12.776 -0.1843  0.0003  0.0264
 3389POSM   C3A39762  26.971  31.146  12.354  0.2535 -0.0134 -0.1758
 3389POSM   C1B39763  25.956  30.939  13.002 -0.3992 -0.3364  0.2756
 3389POSM   D2B39764  25.726  30.872  12.634 -0.0418  0.1765  0.2903
 3389POSM   C3B39765  26.062  30.780  12.325 -0.0099 -0.1545  0.2766
 3389POSM   C4B39766  26.152  30.551  11.843  0.2255  0.0654 -0.0549
 3390DOPE   NH339767   0.276  30.458  14.184  0.0520  0.0936  0.0037
 3390DOPE   PO439768   0.217  30.683  14.433 -0.0694 -0.1207 -0.2019
 3390DOPE   GL139769  -0.000  30.895  14.146  0.1884  0.0288  0.2424
 3390DOPE   GL239770  -0.033  30.678  13.949  0.1316 -0.0590  0.2490
 3390DOPE   C1A39771   0.073  31.059  13.709  0.1216 -0.2391 -0.0987
 3390DOPE   D2A39772   0.043  31.188  13.194  0.2870  0.1219 -0.0318
 3390DOPE   C3A39773   0.181  31.632  13.098 -0.3389 -0.0548  0.1183
 3390DOPE   C4A39774   0.454  31.927  12.893 -0.0373 -0.1605  0.0244
 3390DOPE   C1B39775   0.297  30.576  13.669 -0.1651  0.1884  0.3060
 3390DOPE   D2B39776   0.474  30.203  13.416 -0.2305 -0.4039  0.3935
 3390DOPE   C3B39777   0.597  30.440  13.063  0.0020 -0.1506  0.1452
 3390DOPE   C4B39778   0.555  30.572  12.634  0.2350 -0.2386 -0.1102
 3391DOPE   NH339779  23.688  31.235  13.512  0.0656 -0.0915 -0.1925
 3391DOPE   PO439780  23.739  31.156  13.228 -0.2234  0.3663 -0.3025
 3391DOPE   GL139781  23.624  31.321  12.918  0.0687  0.0727 -0.0349
 3391DOPE   GL239782  23.873  31.196  12.711 -0.0658  0.5090 -0.3021
 3391DOPE   C1A39783  23.497  31.595  12.648 -0.0671  0.0437 -0.1077
 3391DOPE   D2A39784  23.478  31.659  12.137 -0.2250  0.0608  0.1878
 3391DOPE   C3A39785  23.024  31.795  11.942  0.1148  0.0561  0.2609
 3391DOPE   C4A39786  22.581  31.865  11.803  0.1582 -0.0021 -0.0384
 3391DOPE   C1B39787  24.070  31.322  12.298  0.1165 -0.1888 -0.3712
 3391DOPE   D2B39788  24.431  31.516  12.030 -0.1136 -0.0745  0.1354
 3391DOPE   C3B39789  24.715  31.849  11.847 -0.1001 -0.1806 -0.1674
 3391DOPE   C4B39790  24.723  32.240  11.567 -0.1553 -0.3572  0.0325
 3392DOPS   CNO39791  34.271  25.491  14.581 -0.2893  0.0740  0.3430
 3392DOPS   PO439792  34.518  25.527  14.277 -0.4810  0.3358 -0.0379
 3392DOPS   GL139793  34.390  25.291  13.972  0.1848  0.0308 -0.0580
 3392DOPS   GL239794  34.355  25.379  13.710 -0.1939  0.1460  0.0163
 3392DOPS   C1A39795  34.707  25.036  13.702  0.0640 -0.2316  0.2665
 3392DOPS   D2A39796  34.738  24.662  13.468 -0.0129 -0.2245  0.0841
 3392DOPS   C3A39797  34.876  24.511  13.102 -0.1486  0.0921  0.1759
 3392DOPS   C4A39798  35.235  24.435  12.811  0.1208  0.2154 -0.0913
 3392DOPS   C1B39799  34.431  25.570  13.280  0.3577 -0.0432  0.0690
 3392DOPS   D2B39800  34.269  25.288  12.969 -0.1534  0.1033 -0.0651
 3392DOPS   C3B39801  34.568  25.265  12.706  0.0567  0.1540 -0.0567
 3392DOPS   C4B39802  34.874  25.065  12.403 -0.0918 -0.0822  0.1741
 3393DOPS   CNO39803  24.638  28.376  13.098  0.1450 -0.0983 -0.2152
 3393DOPS   PO439804  24.696  28.462  12.748  0.0503  0.0027  0.1385
 3393DOPS   GL139805  24.577  28.401  12.396  0.0225  0.1077  0.2624
 3393DOPS   GL239806  24.742  28.259  12.241  0.1225  0.3386  0.0971
 3393DOPS   C1A39807  24.341  28.699  12.137 -0.2694  0.1047  0.0916
 3393DOPS   D2A39808  24.352  29.054  11.844 -0.1905  0.3514  0.0611
 3393DOPS   C3A39809  23.993  29.055  11.513 -0.0340 -0.0915 -0.0849
 3393DOPS   C4A39810  23.807  29.127  11.110  0.1454 -0.0085  0.2619
 3393DOPS   C1B39811  24.806  28.484  11.896 -0.2710  0.2650 -0.3187
 3393DOPS   D2B39812  24.925  28.596  11.458  0.1081 -0.0406 -0.0419
 3393DOPS   C3B39813  25.235  28.615  11.115  0.0401 -0.1934 -0.0317
 3393DOPS   C4B39814  25.331  28.784  10.669  0.3641 -0.0174  0.0848
 3394DOPE   NH339815  28.912  32.132  14.431 -0.1572 -0.1724  0.0986
 3394DOPE   PO439816  28.626  32.274  14.451  0.0619 -0.0928  0.0088
 3394DOPE   GL139817  28.729  32.225  14.000  0.2644 -0.1802 -0.4060
 3394DOPE   GL239818  29.008  32.327  13.971  0.1330 -0.2519  0.2538
 3394DOPE   C1A39819  28.738  32.371  13.537  0.0721  0.0461 -0.0111
 3394DOPE   D2A39820  28.706  32.493  13.083  0.0337  0.0780  0.1100
 3394DOPE   C3A39821  28.305  32.700  12.848 -0.0386  0.2995  0.1514
 3394DOPE   C4A39822  28.232  32.858  12.353 -0.0943 -0.1809  0.0828
 3394DOPE   C1B39823  29.432  32.580  13.898  0.0719  0.3192  0.0852
 3394DOPE   D2B39824  29.878  32.600  13.811 -0.2614 -0.0136  0.2984
 3394DOPE   C3B39825  29.897  32.997  13.526  0.2360  0.2241 -0.2075
 3394DOPE   C4B39826  29.728  33.037  13.098  0.3585  0.2498 -0.2724
 3395DOPC   NC339827  28.502  33.696  14.979 -0.0847  0.0044  0.2047
 3395DOPC   PO439828  28.861  33.569  14.799  0.3421 -0.0994  0.1306
 3395DOPC   GL139829  28.926  33.554  14.406 -0.0008  0.0622 -0.0836
 3395DOPC   GL239830  28.724  33.501  14.182  0.2116 -0.2389 -0.3810
 3395DOPC   C1A39831  29.209  33.244  14.127  0.3904  0.1833 -0.1847
 3395DOPC   D2A39832  29.428  33.071  13.764  0.1521 -0.3135 -0.1177
 3395DOPC   C3A39833  29.218  33.154  13.356  0.2258  0.0926  0.2754
 3395DOPC   C4A39834  29.222  32.883  13.049  0.2069 -0.1203 -0.0079
 3395DOPC   C1B39835  28.827  33.434  13.654 -0.0341  0.2536 -0.0419
 3395DOPC   D2B39836  29.010  33.635  13.267 -0.1441  0.2755 -0.2485
 3395DOPC   C3B39837  29.031  33.406  12.849  0.0765  0.0801 -0.0145
 3395DOPC   C4B39838  29.138  33.284  12.391 -0.0360  0.0758  0.0517
 3396DOPE   NH339839  29.114  31.169  14.105  0.3285 -0.2339  0.1099
 3396DOPE   PO439840  28.811  31.246  13.990 -0.1477  0.0420  0.0708
 3396DOPE   GL139841  28.828  31.243  13.576 -0.3261 -0.0362 -0.1379
 3396DOPE   GL239842  28.627  31.449  13.576 -0.4790 -0.1425  0.2870
 3396DOPE   C1A39843  29.126  31.654  13.504 -0.3044 -0.0248  0.2066
 3396DOPE   D2A39844  29.368  32.071  13.599  0.0057 -0.0239 -0.1860
 3396DOPE   C3A39845  29.762  32.214  13.324 -0.0199 -0.1075 -0.2838
 3396DOPE   C4A39846  30.113  32.079  13.076  0.1947  0.1479  0.0288
 3396DOPE   C1B39847  28.749  31.508  13.115  0.1439  0.0637 -0.2301
 3396DOPE   D2B39848  28.665  31.379  12.610  0.1457 -0.2680  0.0019
 3396DOPE   C3B39849  28.764  31.589  12.205 -0.0897  0.0088  0.1182
 3396DOPE   C4B39850  28.593  31.704  11.794 -0.2230  0.3459  0.1855
 3397DOPC   NC339851  23.341  27.709  12.113  0.0986 -0.1966 -0.3277
 3397DOPC   PO439852  23.558  28.024  12.231 -0.0646 -0.4374  0.2866
 3397DOPC   GL139853  23.423  28.066  11.805  0.0514 -0.0194  0.0939
 3397DOPC   GL239854  23.616  28.280  11.732 -0.1478 -0.0700  0.0725
 3397DOPC   C1A39855  23.372  28.188  11.334 -0.1639 -0.0546 -0.1356
 3397DOPC   D2A39856  23.219  28.083  10.914 -0.0364  0.2166 -0.0097
 3397DOPC   C3A39857  22.832  27.975  10.760  0.0110  0.0505 -0.0005
 3397DOPC   C4A39858  22.512  27.686  10.605 -0.0040  0.1307 -0.3349
 3397DOPC   C1B39859  23.936  28.225  11.357 -0.2066  0.0288 -0.0192
 3397DOPC   D2B39860  23.712  28.293  10.963 -0.1266  0.2721  0.0412
 3397DOPC   C3B39861  23.330  28.543  10.966 -0.0372 -0.1037 -0.1820
 3397DOPC   C4B39862  23.025  28.566  10.667 -0.1747 -0.1385 -0.1442
 3398DOPE   NH339863  33.668  28.428  13.577  0.1300  0.1506  0.0095
 3398DOPE   PO439864  33.937  28.283  13.684 -0.3094 -0.1727 -0.0913
 3398DOPE   GL139865  34.106  28.173  13.340  0.1467  0.0373  0.0988
 3398DOPE   GL239866  34.227  28.497  13.265  0.0946 -0.2771 -0.2271
 3398DOPE   C1A39867  34.007  28.255  12.868  0.3893 -0.3004  0.1292
 3398DOPE   D2A39868  33.967  28.247  12.407 -0.2050 -0.0297 -0.0870
 3398DOPE   C3A39869  34.429  28.200  12.205 -0.2303  0.1561  0.0991
 3398DOPE   C4A39870  34.649  28.055  11.860 -0.3426  0.2553 -0.2965
 3398DOPE   C1B39871  34.605  28.455  13.047 -0.1988 -0.0272  0.0000
 3398DOPE   D2B39872  34.982  28.516  12.867 -0.3289 -0.0747 -0.1041
 3398DOPE   C3B39873  35.326  28.786  13.017 -0.0263  0.3044 -0.1255
 3398DOPE   C4B39874  35.563  29.208  12.936  0.0995  0.0775  0.2635
 3399DOPE   NH339875   0.206  32.073  14.414 -0.1464 -0.0369 -0.0995
 3399DOPE   PO439876  -0.101  32.217  14.449 -0.0207  0.1767  0.1376
 3399DOPE   GL139877  -0.090  32.350  14.059  0.0493  0.0119 -0.3007
 3399DOPE   GL239878   0.007  32.090  13.932  0.0957 -0.0967  0.1425
 3399DOPE   C1A39879  -0.343  32.728  13.921 -0.2292  0.0587  0.1432
 3399DOPE   D2A39880  -0.554  33.123  13.871  0.2968  0.3788 -0.1887
 3399DOPE   C3A39881  -0.617  33.487  13.638  0.1613 -0.1781  0.1494
 3399DOPE   C4A39882  -0.991  33.684  13.462 -0.3265 -0.2158 -0.0059
 3399DOPE   C1B39883   0.017  32.446  13.601 -0.3382 -0.1406  0.1153
 3399DOPE   D2B39884   0.133  32.791  13.279  0.0538 -0.1901 -0.2092
 3399DOPE   C3B39885   0.254  33.247  13.232 -0.1465  0.2608  0.0586
 3399DOPE   C4B39886   0.506  33.548  13.057 -0.2435  0.0497 -0.1362
 3400DOPC   NC339887  26.122  22.926  12.459 -0.1265  0.1557  0.1302
 3400DOPC   PO439888  26.232  23.266  12.606 -0.0912  0.0586 -0.1126
 3400DOPC   GL139889  26.263  23.276  12.232  0.1541 -0.1347  0.3026
 3400DOPC   GL239890  26.221  23.529  12.117  0.1276  0.1273 -0.0654
 3400DOPC   C1A39891  26.072  23.050  11.875  0.1032 -0.1384 -0.2726
 3400DOPC   D2A39892  25.854  23.003  11.510  0.0031  0.2248 -0.1402
 3400DOPC   C3A39893  25.737  23.283  11.186 -0.1047 -0.1543 -0.2791
 3400DOPC   C4A39894  25.516  23.606  10.858  0.1252  0.2613  0.2214
 3400DOPC   C1B39895  26.454  23.275  11.766 -0.0449  0.0420  0.1495
 3400DOPC   D2B39896  26.880  23.093  11.614 -0.1160  0.1674  0.3769
 3400DOPC   C3B39897  26.743  22.925  11.212 -0.2675  0.0535  0.0361
 3400DOPC   C4B39898  26.428  22.890  10.918 -0.2273  0.3104 -0.1119
 3401DOPC   NC339899   2.170  28.094  14.658  0.0897  0.0635 -0.1541
 3401DOPC   PO439900   2.041  27.838  14.411  0.3279 -0.2421  0.0682
 3401DOPC   GL139901   2.098  27.962  14.025 -0.2756 -0.1917 -0.2238
 3401DOPC   GL239902   2.288  28.187  13.985 -0.1337  0.4250 -0.0358
 3401DOPC   C1A39903   1.916  27.927  13.570  0.1558  0.0600  0.2218
 3401DOPC   D2A39904   1.790  27.641  13.134 -0.0791  0.1992  0.0880
 3401DOPC   C3A39905   1.744  27.799  12.736  0.1569  0.1529  0.2093
 3401DOPC   C4A39906   1.392  27.867  12.476 -0.0224  0.0647  0.0362
 3401DOPC   C1B39907   2.267  28.268  13.542 -0.2638 -0.1286  0.0156
 3401DOPC   D2B39908   2.506  28.241  13.188 -0.1661  0.1955 -0.2266
 3401DOPC   C3B39909   2.382  28.301  12.726  0.1692 -0.0822 -0.0646
 3401DOPC   C4B39910   2.113  28.058  12.470 -0.1045  0.1023 -0.0863
 3402DOPE   NH339911  28.052  26.876  13.375  0.0264 -0.1338  0.0257
 3402DOPE   PO439912  27.935  27.134  13.189  0.1725 -0.1393  0.1945
 3402DOPE   GL139913  27.910  26.991  12.850 -0.3358  0.1262 -0.0291
 3402DOPE   GL239914  28.133  26.777  12.794  0.2851 -0.2549 -0.0060
 3402DOPE   C1A39915  27.950  27.110  12.410  0.0308 -0.2949  0.3405
 3402DOPE   D2A39916  27.973  26.784  12.020  0.1776  0.1924  0.5375
 3402DOPE   C3A39917  27.585  26.530  11.874  0.1833 -0.0352 -0.0158
 3402DOPE   C4A39918  27.206  26.311  11.719 -0.4617  0.2764 -0.1595
 3402DOPE   C1B39919  28.431  26.891  12.519  0.2527  0.2849 -0.2146
 3402DOPE   D2B39920  28.415  27.072  12.135  0.1350  0.0915 -0.1597
 3402DOPE   C3B39921  28.814  26.923  11.913 -0.1256  0.1083  0.1353
 3402DOPE   C4B39922  28.841  26.556  11.591  0.1021 -0.1200 -0.2544
 3403DOPE   NH339923   0.270  29.470  14.216  0.1331  0.2972  0.1416
 3403DOPE   PO439924   0.257  29.773  14.100  0.0039 -0.2813  0.1455
 3403DOPE   GL139925   0.259  29.950  13.718  0.1150 -0.0527  0.1860
 3403DOPE   GL239926   0.036  29.797  13.609 -0.1222 -0.0301  0.0419
 3403DOPE   C1A39927   0.405  29.767  13.283 -0.0301  0.2861 -0.0864
 3403DOPE   D2A39928   0.212  29.383  13.120 -0.0758 -0.0587 -0.2244
 3403DOPE   C3A39929   0.402  29.165  12.781 -0.0555  0.1246  0.1299
 3403DOPE   C4A39930   0.705  29.019  12.531 -0.0127 -0.1192 -0.0427
 3403DOPE   C1B39931  -0.058  29.798  13.147 -0.1282  0.3367  0.0104
 3403DOPE   D2B39932   0.033  29.632  12.718 -0.3597  0.1294  0.1718
 3403DOPE   C3B39933  -0.197  29.517  12.387  0.1385  0.0327 -0.0391
 3403DOPE   C4B39934  -0.557  29.741  12.164 -0.1272 -0.1610  0.0977
 3404DOPS   CNO39935  24.647  29.214  13.267  0.1019  0.0934 -0.0672
 3404DOPS   PO439936  24.676  28.935  13.043  0.0598  0.0333  0.4352
 3404DOPS   GL139937  24.757  28.885  12.607  0.2004 -0.1934 -0.0375
 3404DOPS   GL239938  24.487  28.926  12.518  0.1473  0.3139 -0.1320
 3404DOPS   C1A39939  25.142  29.105  12.490 -0.2749  0.1182  0.1369
 3404DOPS   D2A39940  25.216  29.340  12.114  0.0787 -0.2152  0.2854
 3404DOPS   C3A39941  25.583  29.225  11.851 -0.1581  0.0295 -0.0902
 3404DOPS   C4A39942  25.876  29.215  11.495 -0.0793  0.0735 -0.3251
 3404DOPS   C1B39943  24.755  29.017  12.135  0.1570 -0.0801 -0.2600
 3404DOPS   D2B39944  24.932  29.123  11.699 -0.2858 -0.1510  0.3311
 3404DOPS   C3B39945  25.253  29.523  11.617 -0.2945  0.1554  0.2550
 3404DOPS   C4B39946  25.703  29.688  11.536 -0.1398 -0.1305  0.0879
 3405POSM   NC339947  27.333   0.046  14.640 -0.1695  0.0210  0.2486
 3405POSM   PO439948  27.040   0.126  14.344  0.1179 -0.0525 -0.5101
 3405POSM   AM139949  26.951   0.137  13.986  0.2658  0.3091  0.1183
 3405POSM   AM239950  26.838   0.276  13.800 -0.1593  0.0504  0.0201
 3405POSM   T1A39951  27.187   0.003  13.551 -0.1661 -0.0760  0.0958
 3405POSM   C2A39952  27.344  -0.275  13.206  0.1563 -0.2925  0.1499
 3405POSM   C3A39953  27.293  -0.414  12.755  0.1036  0.2075  0.0478
 3405POSM   C1B39954  26.703   0.455  13.511 -0.1919  0.2320  0.0327
 3405POSM   D2B39955  26.488   0.428  13.113  0.0096 -0.0843 -0.0353
 3405POSM   C3B39956  26.563   0.653  12.702 -0.0458 -0.1291 -0.0880
 3405POSM   C4B39957  26.594   1.056  12.520  0.2916 -0.1001 -0.0351
 3406DOPC   NC339958  23.335  29.975  13.171  0.1669 -0.3142 -0.0077
 3406DOPC   PO439959  23.425  30.043  12.821  0.1198  0.2900 -0.0024
 3406DOPC   GL139960  23.451  29.770  12.494 -0.0263 -0.1561  0.2955
 3406DOPC   GL239961  23.708  29.780  12.489 -0.1921 -0.2259  0.2046
 3406DOPC   C1A39962  23.477  29.800  12.035  0.5169 -0.0528 -0.0970
 3406DOPC   D2A39963  23.134  29.966  11.745  0.0313 -0.1920  0.1728
 3406DOPC   C3A39964  23.144  30.449  11.813 -0.1852 -0.2639 -0.2459
 3406DOPC   C4A39965  23.323  30.821  12.062 -0.0118 -0.0863  0.0970
 3406DOPC   C1B39966  23.978  29.948  12.117  0.1862  0.3067 -0.2682
 3406DOPC   D2B39967  24.239  29.682  11.832 -0.0899  0.2649 -0.0457
 3406DOPC   C3B39968  24.298  29.436  11.465  0.1194 -0.0006  0.0435
 3406DOPC   C4B39969  24.533  29.075  11.323  0.0435  0.0460 -0.2596
 3407DOPC   NC339970  25.314  27.458  12.728 -0.0200 -0.2195 -0.1270
 3407DOPC   PO439971  24.918  27.463  12.636  0.0017 -0.1500  0.1656
 3407DOPC   GL139972  24.825  27.596  12.381 -0.1671  0.0983  0.4765
 3407DOPC   GL239973  24.560  27.728  12.301 -0.1953  0.3562  0.1361
 3407DOPC   C1A39974  24.861  27.653  11.888 -0.1473  0.0495  0.2705
 3407DOPC   D2A39975  25.267  27.508  11.692 -0.1729 -0.0231 -0.2818
 3407DOPC   C3A39976  25.363  27.639  11.200 -0.3287 -0.1566  0.0392
 3407DOPC   C4A39977  25.566  27.826  10.789  0.0717  0.0736 -0.0879
 3407DOPC   C1B39978  24.349  27.611  11.914 -0.2969  0.1379  0.0988
 3407DOPC   D2B39979  24.096  27.367  11.563 -0.0837  0.1014 -0.1081
 3407DOPC   C3B39980  24.384  27.245  11.275  0.0430  0.0676  0.1562
 3407DOPC   C4B39981  24.743  27.080  10.989 -0.3225 -0.2815 -0.1162
 3408DOPS   CNO39982  26.650  24.292  12.907  0.2544 -0.0683  0.3574
 3408DOPS   PO439983  26.833  23.974  12.762  0.2438  0.1343  0.0899
 3408DOPS   GL139984  26.786  23.783  12.423  0.0019  0.0209 -0.0541
 3408DOPS   GL239985  26.751  23.471  12.535  0.2669 -0.0274 -0.1164
 3408DOPS   C1A39986  26.558  23.899  12.010 -0.3093 -0.0297  0.2180
 3408DOPS   D2A39987  26.505  23.881  11.520 -0.2086 -0.0318 -0.1211
 3408DOPS   C3A39988  26.841  23.924  11.242  0.1147 -0.0216 -0.0952
 3408DOPS   C4A39989  26.926  24.100  10.790  0.2741 -0.4552 -0.0676
 3408DOPS   C1B39990  26.873  23.388  12.119 -0.0958  0.0627  0.2674
 3408DOPS   D2B39991  26.899  23.570  11.694  0.1050  0.3712 -0.3232
 3408DOPS   C3B39992  26.620  23.461  11.339  0.0750  0.1072 -0.2628
 3408DOPS   C4B39993  26.198  23.292  11.335 -0.0560 -0.0686  0.0432
 3409DOPC   NC339994  32.436   2.080  15.729 -0.1913 -0.0714 -0.3402
 3409DOPC   PO439995  32.833   2.061  15.751 -0.2272  0.1356 -0.0173
 3409DOPC   GL139996  32.962   2.036  15.316  0.0652  0.1464 -0.1782
 3409DOPC   GL239997  33.007   1.773  15.255 -0.0860  0.1538  0.0485
 3409DOPC   C1A39998  33.312   2.201  15.025 -0.0264  0.0341 -0.1356
 3409DOPC   D2A39999  33.377   2.227  14.599  0.1034  0.1923  0.3801
 3409DOPC   C3A40000  32.997   2.327  14.290  0.1721 -0.1421  0.0936
 3409DOPC   C4A40001  32.713   2.380  13.935  0.0236  0.0417  0.1485
 3409DOPC   C1B40002  33.386   1.777  14.944 -0.1950  0.0509 -0.0174
 3409DOPC   D2B40003  33.534   1.713  14.511  0.0942 -0.0930  0.0831
 3409DOPC   C3B40004  33.814   1.959  14.339 -0.1867 -0.3797 -0.1642
 3409DOPC   C4B40005  33.967   2.321  14.092  0.0037 -0.2190 -0.0665
 3410POSM   NC340006  30.133  28.190  14.044 -0.1107 -0.0610 -0.2392
 3410POSM   PO440007  30.423  28.110  13.791  0.1332 -0.0180  0.4278
 3410POSM   AM140008  30.654  28.243  13.518 -0.1871 -0.1662  0.0704
 3410POSM   AM240009  30.812  28.438  13.382  0.1108 -0.3118 -0.1626
 3410POSM   T1A40010  30.530  28.264  13.019  0.0827 -0.0008 -0.1969
 3410POSM   C2A40011  30.715  28.199  12.611 -0.0299 -0.1145  0.3500
 3410POSM   C3A40012  30.740  28.034  12.141 -0.0313 -0.0698  0.0688
 3410POSM   C1B40013  31.154  28.357  13.190  0.0351  0.3183  0.3270
 3410POSM   D2B40014  31.275  28.108  12.805  0.0358 -0.2107 -0.0841
 3410POSM   C3B40015  31.297  28.374  12.400 -0.0378 -0.0022  0.1338
 3410POSM   C4B40016  31.192  28.346  11.979  0.2595  0.2841  0.0238
 3411DOPC   NC340017  29.193  24.815  13.373  0.0909  0.1937 -0.0331
 3411DOPC   PO440018  28.950  25.099  13.446  0.3112 -0.0116 -0.0419
 3411DOPC   GL140019  28.970  25.110  13.016 -0.2034  0.4249 -0.0009
 3411DOPC   GL240020  29.063  25.452  13.096  0.0282  0.1392 -0.0137
 3411DOPC   C1A40021  28.766  24.813  12.721  0.1480  0.0390  0.2828
 3411DOPC   D2A40022  28.603  24.526  12.368 -0.0947  0.1571 -0.2523
 3411DOPC   C3A40023  28.918  24.200  12.284 -0.1244 -0.1373 -0.0398
 3411DOPC   C4A40024  29.308  23.999  12.167 -0.0391  0.1444  0.0467
 3411DOPC   C1B40025  29.167  25.351  12.641 -0.1957 -0.2420 -0.0582
 3411DOPC   D2B40026  29.251  25.200  12.208  0.1102  0.0693 -0.1084
 3411DOPC   C3B40027  29.447  24.768  12.088 -0.0113  0.1197  0.3141
 3411DOPC   C4B40028  29.556  24.361  11.966  0.0179 -0.0167  0.1795
 3412DOPC   NC340029  30.750  23.091  13.802 -0.0800  0.2058 -0.3369
 3412DOPC   PO440030  30.803  23.318  13.520  0.0171 -0.0857 -0.3564
 3412DOPC   GL140031  30.910  23.384  13.165  0.1930  0.3594  0.0482
 3412DOPC   GL240032  30.637  23.536  13.085 -0.3992 -0.2692 -0.2332
 3412DOPC   C1A40033  31.053  23.193  12.724 -0.0359  0.3148  0.0720
 3412DOPC   D2A40034  31.218  23.223  12.292 -0.0914  0.1291 -0.1342
 3412DOPC   C3A40035  31.050  23.130  11.856 -0.0302  0.0189  0.3100
 3412DOPC   C4A40036  30.934  22.858  11.504  0.1206 -0.0792  0.3387
 3412DOPC   C1B40037  30.994  23.665  12.785  0.0117 -0.0112 -0.0587
 3412DOPC   D2B40038  31.140  23.864  12.416 -0.1502 -0.2014 -0.0382
 3412DOPC   C3B40039  31.061  24.185  12.080  0.1523 -0.1083  0.0237
 3412DOPC   C4B40040  31.228  24.280  11.653 -0.1171 -0.2142 -0.0656
 3413DOPE   NH340041  29.478  22.155  12.785  0.0040  0.0095  0.1054
 3413DOPE   PO440042  29.473  22.466  12.763 -0.1563 -0.2472 -0.1350
 3413DOPE   GL140043  29.761  22.237  12.449  0.2246  0.1957  0.2322
 3413DOPE   GL240044  29.648  22.041  12.239  0.3249 -0.0051 -0.1392
 3413DOPE   C1A40045  30.203  22.471  12.398  0.0423 -0.0468  0.2103
 3413DOPE   D2A40046  30.668  22.566  12.334  0.2083 -0.2095  0.2210
 3413DOPE   C3A40047  30.662  22.965  12.576  0.1683  0.0812  0.0200
 3413DOPE   C4A40048  30.352  23.364  12.674  0.0372  0.0096  0.3099
 3413DOPE   C1B40049  30.086  22.070  12.114 -0.3921 -0.1146 -0.2249
 3413DOPE   D2B40050  30.190  22.159  11.658  0.2649 -0.0915 -0.1263
 3413DOPE   C3B40051  29.921  22.044  11.275 -0.1669 -0.0485 -0.1125
 3413DOPE   C4B40052  29.590  21.792  11.057  0.1458 -0.1332 -0.2688
 3414POSM   NC340053  32.863  24.507  13.579  0.1560  0.0526 -0.2206
 3414POSM   PO440054  32.515  24.554  13.781  0.1115  0.2931  0.0932
 3414POSM   AM140055  32.388  24.541  13.473 -0.3219 -0.4102 -0.3140
 3414POSM   AM240056  32.511  24.445  13.270 -0.1735  0.0711  0.1236
 3414POSM   T1A40057  32.090  24.665  13.109 -0.1595  0.1542  0.1730
 3414POSM   C2A40058  31.915  24.873  12.701 -0.1069 -0.0465  0.0309
 3414POSM   C3A40059  31.520  24.958  12.442  0.1228 -0.3115  0.1727
 3414POSM   C1B40060  32.543  24.434  12.924  0.3782 -0.0500 -0.1952
 3414POSM   D2B40061  32.666  24.319  12.513 -0.0215 -0.1287  0.0736
 3414POSM   C3B40062  33.068  24.078  12.502 -0.0590  0.1015  0.1824
 3414POSM   C4B40063  33.244  23.848  12.084 -0.2033  0.1230 -0.0611
 3415POSM   NC340064  24.045  31.897  13.718  0.1409  0.0422  0.3405
 3415POSM   PO440065  24.082  31.505  13.683  0.0667 -0.1288  0.2482
 3415POSM   AM140066  24.122  31.482  13.332 -0.0704 -0.1703 -0.1480
 3415POSM   AM240067  24.394  31.500  13.206  0.3050  0.0524  0.0956
 3415POSM   T1A40068  24.062  31.653  12.866 -0.0397  0.1399  0.0668
 3415POSM   C2A40069  24.258  31.739  12.465 -0.3881 -0.0429  0.3008
 3415POSM   C3A40070  24.270  32.048  12.094  0.2117 -0.1083 -0.0559
 3415POSM   C1B40071  24.672  31.589  12.976  0.3653  0.1930 -0.2743
 3415POSM   D2B40072  24.847  31.898  12.744  0.0472 -0.0469 -0.0671
 3415POSM   C3B40073  24.729  32.130  12.320 -0.1425 -0.2252  0.3211
 3415POSM   C4B40074  24.891  32.448  11.986 -0.3875  0.2127 -0.0570
 3416DOPE   NH340075  25.235  25.313  12.559  0.0502 -0.0469  0.1322
 3416DOPE   PO440076  25.112  25.572  12.498 -0.1427 -0.4599  0.1441
 3416DOPE   GL140077  24.861  25.558  12.259  0.1454 -0.3219  0.0779
 3416DOPE   GL240078  24.806  25.305  12.016 -0.2306  0.2024  0.0641
 3416DOPE   C1A40079  24.760  25.818  11.875  0.3870  0.1380  0.3314
 3416DOPE   D2A40080  24.638  25.837  11.500  0.0033  0.1057  0.2646
 3416DOPE   C3A40081  24.488  25.525  11.190  0.1835 -0.2484 -0.0265
 3416DOPE   C4A40082  24.295  25.570  10.760  0.1232 -0.2822 -0.4871
 3416DOPE   C1B40083  24.591  25.292  11.589 -0.2323 -0.0904 -0.0365
 3416DOPE   D2B40084  24.486  25.026  11.231  0.0771 -0.0108 -0.0786
 3416DOPE   C3B40085  24.659  25.217  10.865  0.0486  0.1892 -0.0918
 3416DOPE   C4B40086  25.075  25.070  10.683 -0.0061 -0.0632 -0.2449
 3417POSM   NC340087  24.282  25.543  11.968 -0.0126 -0.0523  0.0973
 3417POSM   PO440088  24.324  25.270  12.280  0.0566 -0.1966  0.3402
 3417POSM   AM140089  24.427  25.033  12.059 -0.0391 -0.0685  0.3830
 3417POSM   AM240090  24.567  24.790  12.036 -0.0265  0.0235  0.4740
 3417POSM   T1A40091  24.214  24.848  11.703  0.0851  0.1002 -0.0332
 3417POSM   C2A40092  24.053  24.740  11.287 -0.1580  0.2412  0.2026
 3417POSM   C3A40093  24.152  24.865  10.844 -0.0100 -0.1161  0.4295
 3417POSM   C1B40094  24.738  24.749  11.696  0.0013  0.0744 -0.2413
 3417POSM   D2B40095  24.941  24.811  11.275  0.0152  0.0440  0.3430
 3417POSM   C3B40096  25.118  24.654  10.882 -0.2341  0.1147  0.3836
 3417POSM   C4B40097  25.539  24.615  10.666 -0.2216 -0.1715  0.0966
 3418DOPE   NH340098  29.071  33.980  14.905  0.0723  0.1091  0.2787
 3418DOPE   PO440099  28.936  34.000  14.606  0.1143 -0.1162  0.2865
 3418DOPE   GL140100  29.067  34.144  14.304 -0.1287  0.0026  0.1062
 3418DOPE   GL240101  28.955  34.005  14.097 -0.0617  0.0008 -0.0360
 3418DOPE   C1A40102  29.436  34.145  14.013  0.0672 -0.1167 -0.2177
 3418DOPE   D2A40103  29.825  33.896  13.931  0.1617  0.0499  0.3565
 3418DOPE   C3A40104  30.211  33.760  13.724  0.2053 -0.1073 -0.1127
 3418DOPE   C4A40105  30.288  33.955  13.288  0.1314  0.0789  0.0299
 3418DOPE   C1B40106  28.799  33.922  13.662  0.2841  0.2639  0.0390
 3418DOPE   D2B40107  28.532  33.775  13.273  0.0150 -0.1669 -0.0152
 3418DOPE   C3B40108  28.421  34.088  12.931 -0.0417  0.2843 -0.2115
 3418DOPE   C4B40109  28.002  34.010  12.644  0.1649  0.0802 -0.0220
 3419POSM   NC340110  22.753  28.975  12.671  0.0902  0.1878  0.1185
 3419POSM   PO440111  22.459  28.719  12.640 -0.2411 -0.0249 -0.1647
 3419POSM   AM140112  22.375  28.671  12.312  0.0163 -0.0209 -0.1067
 3419POSM   AM240113  22.155  28.578  12.164 -0.0327 -0.2193  0.0997
 3419POSM   T1A40114  22.407  28.947  11.892  0.0256  0.0938 -0.0023
 3419POSM   C2A40115  22.411  29.054  11.451  0.1031  0.2811 -0.3876
 3419POSM   C3A40116  22.599  29.359  11.135 -0.2668  0.2428  0.2485
 3419POSM   C1B40117  22.190  28.497  11.873  0.0173  0.0488 -0.0284
 3419POSM   D2B40118  22.154  28.222  11.490 -0.3771 -0.0983 -0.1567
 3419POSM   C3B40119  21.938  27.873  11.309  0.1688 -0.3243 -0.3991
 3419POSM   C4B40120  22.083  27.651  10.920 -0.2529 -0.2358 -0.0395
 3420DOPS   CNO40121  34.416  27.280  14.311  0.2869  0.1764  0.2392
 3420DOPS   PO440122  34.456  27.170  13.930 -0.0447 -0.0330 -0.1666
 3420DOPS   GL140123  34.477  27.167  13.567 -0.1009  0.1352  0.3368
 3420DOPS   GL240124  34.307  27.363  13.400 -0.0066  0.0142  0.2353
 3420DOPS   C1A40125  34.826  27.066  13.305 -0.3980  0.2228 -0.0730
 3420DOPS   D2A40126  35.224  26.820  13.385 -0.1877  0.2624 -0.3029
 3420DOPS   C3A40127  35.477  26.493  13.127 -0.1778  0.1252 -0.1477
 3420DOPS   C4A40128  35.744  26.279  12.783 -0.2762 -0.0655  0.2005
 3420DOPS   C1B40129  33.979  27.191  13.095 -0.2849  0.0777  0.3038
 3420DOPS   D2B40130  33.597  27.008  12.925 -0.0205 -0.2097 -0.1043
 3420DOPS   C3B40131  33.595  26.705  12.654 -0.1675  0.2076 -0.1277
 3420DOPS   C4B40132  33.571  26.281  12.455 -0.0576  0.1358  0.2280
 3421DOPC   NC340133  30.292  31.396  14.019  0.0597 -0.2348  0.1113
 3421DOPC   PO440134  29.923  31.515  14.064 -0.0347 -0.1142  0.0506
 3421DOPC   GL140135  29.913  31.486  13.694 -0.2501  0.2519  0.1518
 3421DOPC   GL240136  29.798  31.215  13.671 -0.0544  0.0993 -0.0940
 3421DOPC   C1A40137  29.685  31.638  13.364  0.0884 -0.2061  0.1042
 3421DOPC   D2A40138  29.342  31.852  13.128  0.0409 -0.0343 -0.1340
 3421DOPC   C3A40139  29.612  31.970  12.772 -0.0588 -0.1128 -0.1458
 3421DOPC   C4A40140  30.035  32.179  12.590  0.1282  0.2432 -0.1737
 3421DOPC   C1B40141  30.206  31.106  13.548 -0.0115 -0.0647  0.0121
 3421DOPC   D2B40142  30.376  30.935  13.171  0.0709 -0.1959  0.1563
 3421DOPC   C3B40143  30.579  31.279  12.795  0.1204  0.0037 -0.1595
 3421DOPC   C4B40144  30.587  31.709  12.672  0.0729  0.0169 -0.1045
 3422DOPS   CNO40145  23.941   1.187  13.493  0.2959  0.0771 -0.0286
 3422DOPS   PO440146  24.189   1.028  13.722 -0.1809  0.1375  0.4418
 3422DOPS   GL140147  24.286   0.906  13.358  0.2238  0.1050 -0.1083
 3422DOPS   GL240148  24.617   0.904  13.442  0.0756 -0.0405  0.0116
 3422DOPS   C1A40149  24.329   0.687  13.031 -0.1648 -0.0995 -0.0621
 3422DOPS   D2A40150  24.239   0.749  12.540  0.0404 -0.0046 -0.0411
 3422DOPS   C3A40151  24.486   0.703  12.143 -0.0156 -0.1996 -0.2984
 3422DOPS   C4A40152  24.836   0.492  11.908  0.1514 -0.1828  0.1515
 3422DOPS   C1B40153  24.771   0.920  13.014 -0.0429 -0.0061 -0.0558
 3422DOPS   D2B40154  25.137   1.020  12.749 -0.2222 -0.1263 -0.3456
 3422DOPS   C3B40155  25.403   1.078  12.379 -0.0500  0.1321 -0.1133
 3422DOPS   C4B40156  25.791   1.133  12.081  0.0605  0.0852  0.0781
 3423DOPE   NH340157   0.042  32.512  14.952  0.2488  0.0421  0.2362
 3423DOPE   PO440158   0.289  32.476  14.752  0.2757  0.1722  0.3048
 3423DOPE   GL140159   0.181  32.576  14.310  0.2832 -0.2729 -0.1463
 3423DOPE   GL240160  -0.002  32.760  14.456 -0.1421 -0.0734 -0.0049
 3423DOPE   C1A40161   0.226  32.795  13.921 -0.2645  0.2095  0.1481
 3423DOPE   D2A40162   0.549  32.915  13.721  0.1292  0.1563 -0.3342
 3423DOPE   C3A40163   0.691  32.833  13.268  0.0980 -0.0393  0.1205
 3423DOPE   C4A40164   0.542  33.049  12.882 -0.1585  0.1566 -0.0046
 3423DOPE   C1B40165  -0.084  33.163  14.180  0.3165  0.3842 -0.1169
 3423DOPE   D2B40166  -0.005  33.205  13.724 -0.1758  0.4045 -0.0596
 3423DOPE   C3B40167  -0.294  32.973  13.470  0.0375 -0.4192  0.0949
 3423DOPE   C4B40168  -0.624  32.768  13.231 -0.1241 -0.4061  0.0595
 3424DOPC   NC340169  24.965  31.967  13.859  0.0038 -0.1131  0.0698
 3424DOPC   PO440170  25.317  31.780  13.865 -0.0738  0.1292 -0.3510
 3424DOPC   GL140171  25.344  31.803  13.506  0.1896 -0.4666  0.0438
 3424DOPC   GL240172  25.440  31.556  13.422 -0.0169 -0.1875  0.1014
 3424DOPC   C1A40173  25.674  32.024  13.213  0.0400  0.1789 -0.2209
 3424DOPC   D2A40174  25.891  32.133  12.858 -0.0450  0.1376 -0.2303
 3424DOPC   C3A40175  25.729  32.171  12.364  0.0664  0.1014  0.0886
 3424DOPC   C4A40176  25.762  32.032  11.918 -0.0022  0.2754 -0.0809
 3424DOPC   C1B40177  25.211  31.420  13.039 -0.1110 -0.0474  0.0196
 3424DOPC   D2B40178  25.117  31.430  12.600 -0.3148 -0.1008 -0.2402
 3424DOPC   C3B40179  25.093  31.804  12.299  0.1593  0.2930  0.0705
 3424DOPC   C4B40180  25.228  32.105  11.961 -0.3479  0.4956 -0.0349
 3425DOPS   CNO40181  24.188  26.815  12.802  0.1526  0.2315  0.0944
 3425DOPS   PO440182  23.978  27.009  12.567 -0.1155  0.1300 -0.1417
 3425DOPS   GL140183  23.761  26.869  12.172  0.0803 -0.6031 -0.0674
 3425DOPS   GL240184  24.042  26.934  12.068  0.3143 -0.3198 -0.0969
 3425DOPS   C1A40185  23.727  27.041  11.737  0.3743 -0.1672 -0.0890
 3425DOPS   D2A40186  23.687  27.247  11.321  0.3167 -0.1795  0.1900
 3425DOPS   C3A40187  23.829  27.122  10.894  0.1281 -0.2530 -0.0443
 3425DOPS   C4A40188  23.915  26.928  10.522 -0.0684 -0.2423  0.1463
 3425DOPS   C1B40189  24.315  26.940  11.707  0.1860  0.1545  0.3038
 3425DOPS   D2B40190  24.533  26.763  11.362  0.0429  0.2000 -0.1875
 3425DOPS   C3B40191  25.032  26.670  11.414  0.4745  0.0751  0.0661
 3425DOPS   C4B40192  25.489  26.732  11.273  0.0823 -0.1371  0.1156
 3426DOPC   NC340193  26.834  25.528  12.822 -0.4339 -0.0755 -0.0621
 3426DOPC   PO440194  26.553  25.780  12.906 -0.2336  0.5211 -0.1422
 3426DOPC   GL140195  26.627  25.986  12.603  0.2464 -0.3399  0.1833
 3426DOPC   GL240196  26.410  26.169  12.503  0.3348 -0.1222 -0.0639
 3426DOPC   C1A40197  26.768  26.149  12.156 -0.2148  0.0036  0.2169
 3426DOPC   D2A40198  26.687  26.373  11.753 -0.0897  0.0508 -0.1424
 3426DOPC   C3A40199  26.872  26.358  11.345 -0.0981 -0.0113  0.0728
 3426DOPC   C4A40200  27.320  26.348  11.177  0.0685  0.0321 -0.1289
 3426DOPC   C1B40201  26.336  26.414  12.103 -0.0697  0.2945  0.3178
 3426DOPC   D2B40202  26.197  26.220  11.690 -0.0535 -0.0499 -0.1066
 3426DOPC   C3B40203  26.246  26.488  11.322  0.5107  0.0394  0.0062
 3426DOPC   C4B40204  25.997  26.775  11.041 -0.1399  0.2752  0.3107
 3427DOPE   NH340205   0.485  30.922  14.089  0.0639  0.1310 -0.0651
 3427DOPE   PO440206   0.487  31.212  14.294 -0.1735  0.2140 -0.0955
 3427DOPE   GL140207   0.168  31.275  14.085  0.1082 -0.3227 -0.0963
 3427DOPE   GL240208   0.031  31.361  14.298  0.2552 -0.0421 -0.0433
 3427DOPE   C1A40209   0.240  31.531  13.647  0.1137  0.1068 -0.0769
 3427DOPE   D2A40210   0.598  31.547  13.365  0.1725  0.1015 -0.0794
 3427DOPE   C3A40211   0.597  31.281  13.041  0.1138 -0.3297  0.1013
 3427DOPE   C4A40212   0.874  30.879  12.923  0.1742  0.3036  0.0588
 3427DOPE   C1B40213  -0.170  31.507  13.914  0.1161 -0.2793 -0.0118
 3427DOPE   D2B40214  -0.384  31.397  13.543 -0.0164  0.1360  0.0081
 3427DOPE   C3B40215  -0.474  31.109  13.232 -0.0749 -0.1326  0.1620
 3427DOPE   C4B40216  -0.294  31.062  12.781 -0.3958  0.1510 -0.0641
 3428POSM   NC340217  29.815  32.070  13.895 -0.1339  0.1332 -0.0032
 3428POSM   PO440218  30.070  32.239  14.185  0.2803  0.0706  0.0676
 3428POSM   AM140219  30.271  32.401  14.039  0.2685 -0.3051 -0.0186
 3428POSM   AM240220  30.531  32.398  13.902  0.3429 -0.1970  0.0336
 3428POSM   T1A40221  30.320  32.847  13.828 -0.1375 -0.1723 -0.0180
 3428POSM   C2A40222  30.256  33.315  13.966  0.0539  0.1501  0.3309
 3428POSM   C3A40223  30.026  33.633  14.232 -0.0430  0.3619 -0.1422
 3428POSM   C1B40224  30.647  32.382  13.629 -0.0955 -0.3067 -0.0093
 3428POSM   D2B40225  30.664  32.488  13.151 -0.0561 -0.0871 -0.0698
 3428POSM   C3B40226  30.519  32.250  12.719  0.0750  0.1390  0.1648
 3428POSM   C4B40227  30.474  32.066  12.309 -0.1153  0.3178 -0.0266
 3429DOPE   NH340228  27.331  30.241  13.495  0.5419 -0.0052  0.2482
 3429DOPE   PO440229  27.271  30.470  13.261  0.1071 -0.3463 -0.2669
 3429DOPE   GL140230  27.634  30.591  13.041  0.2845  0.1296 -0.1795
 3429DOPE   GL240231  27.635  30.868  13.044 -0.0192 -0.4070 -0.0769
 3429DOPE   C1A40232  27.859  30.597  12.618 -0.1610 -0.0792 -0.0872
 3429DOPE   D2A40233  28.161  30.712  12.287 -0.2923  0.0307  0.5539
 3429DOPE   C3A40234  27.831  30.713  12.009 -0.0060  0.0796  0.1601
 3429DOPE   C4A40235  27.643  30.887  11.629 -0.0972 -0.0946  0.1772
 3429DOPE   C1B40236  27.968  31.062  12.796 -0.0284 -0.0995 -0.1031
 3429DOPE   D2B40237  28.155  31.250  12.408  0.0026  0.0814 -0.2299
 3429DOPE   C3B40238  28.246  31.679  12.437 -0.1910 -0.0526  0.1756
 3429DOPE   C4B40239  27.895  31.950  12.646 -0.0745 -0.1413  0.4239
 3430POSM   NC340240  30.067  33.816  15.254  0.1964  0.1130 -0.1402
 3430POSM   PO440241  30.304  33.565  15.198  0.2731  0.1234  0.0155
 3430POSM   AM140242  30.449  33.605  14.905 -0.0144  0.3206  0.1205
 3430POSM   AM240243  30.682  33.640  14.701 -0.3166 -0.1904  0.2248
 3430POSM   T1A40244  30.335  33.941  14.508  0.0004 -0.1923 -0.1818
 3430POSM   C2A40245  30.276  34.085  14.098 -0.0289  0.2237 -0.0491
 3430POSM   C3A40246  30.502  34.164  13.773 -0.3775 -0.1342  0.2602
 3430POSM   C1B40247  30.668  33.642  14.356 -0.1991 -0.0535  0.2674
 3430POSM   D2B40248  30.621  33.634  13.923 -0.1817 -0.1797 -0.0616
 3430POSM   C3B40249  30.517  33.298  13.588  0.0794  0.0596  0.0784
 3430POSM   C4B40250  30.473  32.950  13.290 -0.0234 -0.1600  0.3640
 3431DOPC   NC340251  30.494  27.366  13.396  0.1178 -0.0275  0.2323
 3431DOPC   PO440252  30.236  27.607  13.588 -0.0055 -0.2374  0.1848
 3431DOPC   GL140253  30.077  27.712  13.240 -0.0449  0.1459 -0.2248
 3431DOPC   GL240254  29.996  27.447  13.178 -0.0584 -0.1501  0.1582
 3431DOPC   C1A40255  30.049  28.016  12.892 -0.1561 -0.1118 -0.1747
 3431DOPC   D2A40256  30.069  28.217  12.527  0.1932 -0.1224  0.0044
 3431DOPC   C3A40257  30.380  28.384  12.199  0.1312  0.1461  0.0142
 3431DOPC   C4A40258  30.719  28.551  11.914 -0.0087 -0.2990  0.2061
 3431DOPC   C1B40259  30.186  27.534  12.799 -0.0873  0.1360 -0.0086
 3431DOPC   D2B40260  30.416  27.783  12.472 -0.2933  0.0556 -0.0095
 3431DOPC   C3B40261  30.093  27.899  12.083  0.1627 -0.0582 -0.2826
 3431DOPC   C4B40262  29.669  28.018  11.873  0.1600 -0.2223 -0.1434
 3432DOPE   NH340263  28.897   0.056  14.560 -0.1297  0.3893  0.2227
 3432DOPE   PO440264  28.685  -0.002  14.350  0.0437 -0.2042  0.3393
 3432DOPE   GL140265  28.634   0.120  14.017 -0.0942  0.1111 -0.3554
 3432DOPE   GL240266  28.718  -0.105  13.805 -0.0293  0.1567  0.2181
 3432DOPE   C1A40267  28.587   0.273  13.583 -0.0913 -0.2019 -0.0240
 3432DOPE   D2A40268  28.420   0.307  13.144  0.2249  0.3785  0.0855
 3432DOPE   C3A40269  28.806   0.485  12.904  0.0565  0.0606  0.1055
 3432DOPE   C4A40270  29.198   0.713  13.151 -0.0011  0.0140 -0.0563
 3432DOPE   C1B40271  29.164  -0.197  13.636 -0.1108  0.0185 -0.0914
 3432DOPE   D2B40272  29.360  -0.519  13.328  0.2170 -0.0078  0.1426
 3432DOPE   C3B40273  29.796  -0.504  13.384  0.2139 -0.4386 -0.2151
 3432DOPE   C4B40274  30.029  -0.197  13.653  0.0587  0.1292 -0.2629
 3433POSM   NC340275  30.490  25.882  13.705  0.0118 -0.0258 -0.0777
 3433POSM   PO440276  30.413  26.126  13.399  0.1925  0.0192  0.1698
 3433POSM   AM140277  30.349  26.179  13.082 -0.2439  0.1135  0.0410
 3433POSM   AM240278  30.319  26.437  13.018 -0.1946  0.1587 -0.1037
 3433POSM   T1A40279  30.277  25.919  12.636 -0.0502 -0.0484  0.2667
 3433POSM   C2A40280  30.463  26.071  12.289  0.1416 -0.0213 -0.0933
 3433POSM   C3A40281  30.601  26.435  12.013  0.1482  0.4894 -0.2505
 3433POSM   C1B40282  30.442  26.547  12.694  0.1373  0.1051 -0.2687
 3433POSM   D2B40283  30.620  26.796  12.398 -0.1474 -0.1849 -0.0788
 3433POSM   C3B40284  30.929  26.817  11.973  0.3626  0.1168  0.1436
 3433POSM   C4B40285  31.212  26.644  11.645  0.1094  0.2726 -0.2040
 3434DOPE   NH340286  33.179  34.307  15.712  0.1432  0.1947 -0.0352
 3434DOPE   PO440287  33.213  34.374  15.391 -0.0333 -0.0390  0.1440
 3434DOPE   GL140288  33.378  34.296  15.017  0.1449  0.0408 -0.0545
 3434DOPE   GL240289  33.500  34.528  14.918  0.1458  0.1567 -0.1361
 3434DOPE   C1A40290  33.232  34.013  14.723 -0.0617 -0.1457 -0.0050
 3434DOPE   D2A40291  32.931  33.976  14.425 -0.0201 -0.0298 -0.0433
 3434DOPE   C3A40292  32.902  33.645  14.102  0.1121 -0.0782  0.1434
 3434DOPE   C4A40293  32.957  33.548  13.651 -0.2952 -0.1248  0.0095
 3434DOPE   C1B40294  33.807  34.186  14.718  0.3271 -0.4221  0.2559
 3434DOPE   D2B40295  33.812  33.932  14.328  0.0909 -0.1551  0.0527
 3434DOPE   C3B40296  33.364  33.885  14.143 -0.1144 -0.2802  0.0295
 3434DOPE   C4B40297  33.151  33.983  13.802  0.0982  0.1127  0.3079
 3435DOPE   NH340298  24.269  29.222  12.870 -0.0559  0.0762  0.1882
 3435DOPE   PO440299  23.970  29.282  12.766 -0.0971 -0.0404 -0.4575
 3435DOPE   GL140300  24.069  29.473  12.382  0.4465 -0.0130 -0.1398
 3435DOPE   GL240301  24.425  29.416  12.256 -0.1063  0.0466  0.3411
 3435DOPE   C1A40302  23.916  29.292  11.982 -0.1004  0.0418  0.3611
 3435DOPE   D2A40303  23.783  29.570  11.622 -0.1345  0.1073  0.1736
 3435DOPE   C3A40304  23.935  29.949  11.554  0.1755 -0.0458 -0.0023
 3435DOPE   C4A40305  24.105  30.385  11.451  0.0709  0.0176 -0.0188
 3435DOPE   C1B40306  24.705  29.466  11.895  0.2227  0.0359 -0.1805
 3435DOPE   D2B40307  24.730  29.601  11.451 -0.1366 -0.1683  0.3693
 3435DOPE   C3B40308  24.584  29.489  11.039 -0.2730  0.2083 -0.4097
 3435DOPE   C4B40309  24.286  29.179  10.877 -0.1759  0.2518 -0.0454
 3436DOPE   NH340310  31.373  30.462  14.497  0.1625  0.2589  0.1266
 3436DOPE   PO440311  31.622  30.476  14.295 -0.0587 -0.4219  0.0545
 3436DOPE   GL140312  31.742  30.668  13.986 -0.0446  0.4353  0.2648
 3436DOPE   GL240313  31.952  30.907  13.890 -0.0117 -0.0043  0.3111
 3436DOPE   C1A40314  31.856  30.553  13.494  0.2346  0.1543  0.0355
 3436DOPE   D2A40315  31.758  30.618  13.062 -0.0458  0.0181  0.1954
 3436DOPE   C3A40316  31.790  31.007  12.848 -0.0998  0.1278  0.2944
 3436DOPE   C4A40317  31.668  31.420  12.715  0.0909 -0.0393  0.0876
 3436DOPE   C1B40318  31.857  31.181  13.525 -0.0842 -0.0521 -0.2790
 3436DOPE   D2B40319  31.508  31.242  13.269  0.0015 -0.3081  0.2304
 3436DOPE   C3B40320  31.137  31.368  13.520  0.2180 -0.0520  0.1782
 3436DOPE   C4B40321  30.699  31.244  13.663  0.1350  0.0490 -0.3091
 3437DOPE   NH340322  24.768  25.250  12.668  0.0916  0.1037  0.0678
 3437DOPE   PO440323  24.815  24.996  12.440  0.0986 -0.2127 -0.1071
 3437DOPE   GL140324  25.106  24.936  12.149  0.0368 -0.3870  0.0056
 3437DOPE   GL240325  25.286  25.139  12.064  0.2454  0.1874  0.3664
 3437DOPE   C1A40326  25.249  24.684  11.803  0.2162 -0.1723 -0.3366
 3437DOPE   D2A40327  25.558  24.541  11.508 -0.2657  0.1826  0.0058
 3437DOPE   C3A40328  25.624  24.814  11.117 -0.1492  0.2878 -0.1493
 3437DOPE   C4A40329  25.555  25.094  10.748  0.2213 -0.1413  0.2006
 3437DOPE   C1B40330  25.085  25.205  11.632  0.0133 -0.1213  0.2769
 3437DOPE   D2B40331  24.932  25.327  11.222 -0.2996  0.1354  0.1297
 3437DOPE   C3B40332  25.163  25.526  10.836 -0.0203 -0.2029  0.1381
 3437DOPE   C4B40333  25.399  25.474  10.447 -0.0041 -0.0908 -0.2088
 3438POSM   NC340334  34.012  27.170  14.125 -0.0030  0.2454 -0.0189
 3438POSM   PO440335  33.717  26.983  13.985  0.0268  0.3697  0.2465
 3438POSM   AM140336  33.724  26.747  13.766  0.1252  0.2326 -0.1899
 3438POSM   AM240337  33.902  26.547  13.693 -0.3869  0.2769  0.2045
 3438POSM   T1A40338  33.630  26.618  13.284 -0.1167 -0.1692 -0.2020
 3438POSM   C2A40339  33.310  26.355  13.020  0.0792  0.1042 -0.0183
 3438POSM   C3A40340  33.117  26.179  12.650  0.0546 -0.2469 -0.1803
 3438POSM   C1B40341  34.189  26.440  13.580 -0.0302 -0.1542 -0.0481
 3438POSM   D2B40342  34.449  26.126  13.301  0.0496 -0.0952  0.0974
 3438POSM   C3B40343  34.330  26.031  12.921 -0.1749  0.0002  0.0548
 3438POSM   C4B40344  34.296  26.233  12.540 -0.1093  0.2912  0.1092
 3439DOPE   NH340345  31.723  32.900  14.471 -0.1471 -0.2003 -0.1007
 3439DOPE   PO440346  31.996  32.748  14.556 -0.1919  0.1168 -0.2146
 3439DOPE   GL140347  32.189  32.974  14.363 -0.2640  0.3495  0.1420
 3439DOPE   GL240348  32.089  32.967  14.088 -0.1191 -0.1455  0.2287
 3439DOPE   C1A40349  32.592  32.924  14.136 -0.0670  0.3420  0.0441
 3439DOPE   D2A40350  32.940  33.070  13.879 -0.0481 -0.0190  0.1220
 3439DOPE   C3A40351  33.302  33.383  14.011  0.1756  0.2302  0.1727
 3439DOPE   C4A40352  33.723  33.509  14.131 -0.1059  0.1914 -0.1976
 3439DOPE   C1B40353  32.152  32.976  13.592 -0.3628 -0.2366  0.0125
 3439DOPE   D2B40354  32.109  32.612  13.331  0.2773  0.1272 -0.0449
 3439DOPE   C3B40355  32.213  32.248  12.975 -0.0804 -0.6664 -0.2480
 3439DOPE   C4B40356  31.869  31.978  12.841 -0.0449  0.0823  0.0269
 3440DOPE   NH340357  33.621   0.977  15.679  0.2220  0.2705 -0.0091
 3440DOPE   PO440358  33.487   0.792  15.405 -0.2351 -0.4648  0.0595
 3440DOPE   GL140359  33.481   1.125  15.073 -0.2617 -0.0827 -0.1901
 3440DOPE   GL240360  33.273   0.942  14.897  0.3214 -0.1900  0.1754
 3440DOPE   C1A40361  33.587   1.233  14.624 -0.1519  0.0647  0.0838
 3440DOPE   D2A40362  33.460   1.325  14.165  0.2588 -0.1017 -0.1427
 3440DOPE   C3A40363  33.722   1.134  13.818  0.1517 -0.0964 -0.1075
 3440DOPE   C4A40364  33.928   1.439  13.540 -0.0197 -0.0662 -0.0586
 3440DOPE   C1B40365  33.213   0.962  14.472 -0.0678 -0.0930  0.0680
 3440DOPE   D2B40366  33.253   0.903  13.987  0.0960  0.0172 -0.2971
 3440DOPE   C3B40367  33.536   0.600  13.779 -0.1387 -0.2044  0.1998
 3440DOPE   C4B40368  33.784   0.483  13.381  0.0003  0.3895 -0.1693
 3441POSM   NC340369  30.316  26.604  13.469 -0.0493 -0.3146 -0.2546
 3441POSM   PO440370  30.518  26.876  13.604  0.3132  0.0666  0.1930
 3441POSM   AM140371  30.588  26.922  13.274  0.3325 -0.1520  0.4206
 3441POSM   AM240372  30.384  26.901  13.093  0.2663  0.2185 -0.1484
 3441POSM   T1A40373  30.814  26.931  12.860 -0.1680 -0.1272 -0.3404
 3441POSM   C2A40374  31.164  26.838  12.504 -0.1614  0.2329 -0.2455
 3441POSM   C3A40375  31.276  27.145  12.155 -0.0281 -0.2175  0.0620
 3441POSM   C1B40376  30.207  26.997  12.810 -0.1950 -0.2363  0.1311
 3441POSM   D2B40377  30.126  26.936  12.333  0.1439  0.2587 -0.0342
 3441POSM   C3B40378  30.331  26.973  11.915 -0.1640  0.0875 -0.2536
 3441POSM   C4B40379  30.302  27.067  11.439  0.2285 -0.2403  0.0517
 3442DOPC   NC340380  27.014  31.865  13.613 -0.0323 -0.1361 -0.3531
 3442DOPC   PO440381  26.745  31.628  13.785 -0.0524 -0.0478 -0.1335
 3442DOPC   GL140382  26.617  31.735  13.365 -0.0376  0.0188 -0.2631
 3442DOPC   GL240383  26.515  31.488  13.349  0.1884  0.0763 -0.0597
 3442DOPC   C1A40384  26.485  31.909  12.944  0.5904  0.1072  0.0245
 3442DOPC   D2A40385  26.231  31.846  12.551  0.0368 -0.0865 -0.0315
 3442DOPC   C3A40386  25.899  31.726  12.243  0.1093 -0.1973 -0.1457
 3442DOPC   C4A40387  25.467  31.580  12.096 -0.2115  0.1791  0.2233
 3442DOPC   C1B40388  26.545  31.300  12.906  0.1231 -0.2574 -0.2349
 3442DOPC   D2B40389  26.433  30.964  12.572 -0.0559  0.0530 -0.1808
 3442DOPC   C3B40390  26.577  30.841  12.159  0.0803 -0.2744  0.0655
 3442DOPC   C4B40391  26.957  30.720  11.934  0.0787  0.0802  0.0277
 3443DOPE   NH340392  26.146  25.230  12.635  0.1330 -0.1827  0.1461
 3443DOPE   PO440393  26.419  25.324  12.698 -0.1480 -0.0146  0.3396
 3443DOPE   GL140394  26.576  25.404  12.355  0.0530 -0.2101 -0.3294
 3443DOPE   GL240395  26.647  25.648  12.288 -0.1025  0.1015  0.1510
 3443DOPE   C1A40396  26.561  25.104  11.996  0.1585  0.0487 -0.2603
 3443DOPE   D2A40397  26.605  25.121  11.555 -0.1832  0.0042 -0.0925
 3443DOPE   C3A40398  26.586  24.811  11.270  0.4012  0.0329 -0.2940
 3443DOPE   C4A40399  26.491  24.465  10.977 -0.0910  0.0937 -0.3646
 3443DOPE   C1B40400  26.999  25.408  12.041  0.1394  0.0822  0.0823
 3443DOPE   D2B40401  27.111  25.166  11.680 -0.0514 -0.2127 -0.0262
 3443DOPE   C3B40402  27.455  24.891  11.461 -0.0589  0.2434  0.1017
 3443DOPE   C4B40403  27.493  24.434  11.354  0.0385  0.0219  0.1171
 3444DOPC   NC340404   0.423  27.911  14.538 -0.1191 -0.0972 -0.2176
 3444DOPC   PO440405   0.750  28.115  14.561 -0.2834 -0.0382 -0.1331
 3444DOPC   GL140406   0.709  28.287  14.198  0.0561  0.1663 -0.0048
 3444DOPC   GL240407   1.013  28.378  14.193 -0.0137  0.1130  0.1424
 3444DOPC   C1A40408   0.638  28.102  13.758  0.2143 -0.0217 -0.0522
 3444DOPC   D2A40409   0.272  27.997  13.526  0.1978 -0.0835 -0.0301
 3444DOPC   C3A40410   0.412  28.042  13.073 -0.2187  0.2570  0.2975
 3444DOPC   C4A40411   0.416  28.119  12.611 -0.1942  0.2740  0.0764
 3444DOPC   C1B40412   1.141  28.361  13.754  0.1059 -0.1062  0.1661
 3444DOPC   D2B40413   1.391  28.032  13.465  0.2765  0.2446  0.0893
 3444DOPC   C3B40414   1.305  28.147  13.030 -0.1358 -0.0216 -0.1937
 3444DOPC   C4B40415   0.926  28.251  12.864  0.4187  0.2508 -0.6005
 3445POSM   NC340416  25.271  24.535  12.871  0.0810  0.1178 -0.2033
 3445POSM   PO440417  25.374  24.807  12.563 -0.0091 -0.0882 -0.1195
 3445POSM   AM140418  25.535  24.686  12.315 -0.1116  0.1469 -0.1940
 3445POSM   AM240419  25.656  24.504  12.202  0.0288 -0.0388  0.0783
 3445POSM   T1A40420  25.729  24.822  11.901  0.1403 -0.0007  0.0282
 3445POSM   C2A40421  25.728  25.101  11.598  0.0390  0.0776 -0.2488
 3445POSM   C3A40422  25.478  25.316  11.277  0.0043 -0.1024  0.0244
 3445POSM   C1B40423  25.664  24.296  11.952 -0.0438 -0.0121  0.0004
 3445POSM   D2B40424  25.659  24.024  11.574  0.1968 -0.1699 -0.0202
 3445POSM   C3B40425  25.487  24.189  11.157 -0.0296 -0.3375  0.0061
 3445POSM   C4B40426  25.178  24.104  10.843 -0.5223 -0.0508  0.1392
 3446DOPE   NH340427  32.575  26.741  13.727 -0.1194 -0.0710 -0.0493
 3446DOPE   PO440428  32.825  26.721  13.904  0.2152 -0.2599 -0.4204
 3446DOPE   GL140429  33.026  26.850  13.567 -0.0298  0.1353 -0.0142
 3446DOPE   GL240430  33.093  26.578  13.506  0.1787  0.1402 -0.1112
 3446DOPE   C1A40431  33.105  26.858  13.109  0.2388 -0.1065  0.1122
 3446DOPE   D2A40432  33.037  26.682  12.693 -0.1472  0.4885 -0.0632
 3446DOPE   C3A40433  33.134  26.801  12.251  0.4478  0.1060  0.2068
 3446DOPE   C4A40434  33.274  27.102  11.944  0.2449  0.1782 -0.0869
 3446DOPE   C1B40435  32.785  26.479  13.173  0.3046 -0.1872 -0.0971
 3446DOPE   D2B40436  32.656  26.315  12.797  0.0137  0.2781  0.0558
 3446DOPE   C3B40437  32.713  26.429  12.309  0.1835 -0.2478  0.1207
 3446DOPE   C4B40438  32.755  26.729  11.959  0.0986 -0.1048 -0.0112
 3447DOPE   NH340439  33.079  27.684  13.804 -0.0745  0.1076 -0.2874
 3447DOPE   PO440440  32.763  27.705  13.755 -0.0135  0.4265  0.0611
 3447DOPE   GL140441  32.889  27.424  13.456 -0.0987  0.0054  0.1357
 3447DOPE   GL240442  32.701  27.223  13.526  0.0790 -0.0569  0.1345
 3447DOPE   C1A40443  33.261  27.272  13.222 -0.0976 -0.0363 -0.1112
 3447DOPE   D2A40444  33.476  27.510  12.823 -0.0815 -0.1739  0.0235
 3447DOPE   C3A40445  33.489  27.175  12.524 -0.0025 -0.0914  0.2128
 3447DOPE   C4A40446  33.697  26.961  12.129  0.1071 -0.2005  0.0231
 3447DOPE   C1B40447  32.582  26.941  13.210 -0.0256 -0.2013 -0.0567
 3447DOPE   D2B40448  32.469  26.754  12.770  0.1691  0.1514  0.0923
 3447DOPE   C3B40449  32.705  26.912  12.410 -0.0847 -0.0758  0.0785
 3447DOPE   C4B40450  32.835  27.358  12.319 -0.1031  0.0766  0.3737
 3448POSM   NC340451  27.643  24.105  13.044 -0.0762  0.1246  0.0838
 3448POSM   PO440452  27.313  23.961  12.884 -0.4254  0.1332  0.2925
 3448POSM   AM140453  27.317  24.075  12.613 -0.0817  0.0152  0.3787
 3448POSM   AM240454  27.463  24.284  12.491  0.3052  0.0795  0.2828
 3448POSM   T1A40455  27.087  24.036  12.184  0.3618 -0.0291  0.3177
 3448POSM   C2A40456  26.822  24.292  11.893  0.1963 -0.0638  0.0615
 3448POSM   C3A40457  26.550  24.369  11.476 -0.0782 -0.1223 -0.1526
 3448POSM   C1B40458  27.406  24.609  12.396 -0.0136 -0.3636 -0.1271
 3448POSM   D2B40459  27.357  24.994  12.109 -0.0693  0.1741 -0.0605
 3448POSM   C3B40460  27.658  25.149  11.798  0.3512 -0.0549  0.0355
 3448POSM   C4B40461  28.042  25.173  11.549  0.1807 -0.1255  0.1604
 3449DOPS   CNO40462  31.277  26.971  14.058  0.2095  0.0844 -0.1131
 3449DOPS   PO440463  31.524  26.776  13.875  0.4432 -0.0786  0.1336
 3449DOPS   GL140464  31.469  27.062  13.460 -0.2093 -0.2403  0.2373
 3449DOPS   GL240465  31.426  27.334  13.432  0.0258  0.0473  0.3168
 3449DOPS   C1A40466  31.308  26.786  13.140 -0.2675 -0.0583 -0.0491
 3449DOPS   D2A40467  31.095  26.496  12.907  0.1598  0.0689  0.0637
 3449DOPS   C3A40468  31.299  26.148  13.112  0.1213  0.0978 -0.2536
 3449DOPS   C4A40469  31.594  25.740  13.064  0.1957 -0.1089  0.0644
 3449DOPS   C1B40470  31.582  27.270  13.030 -0.0664 -0.0870 -0.3055
 3449DOPS   D2B40471  31.537  27.206  12.598 -0.2208  0.1011  0.2475
 3449DOPS   C3B40472  31.740  27.016  12.257  0.3027  0.0831 -0.1212
 3449DOPS   C4B40473  31.760  26.893  11.844  0.2367 -0.1940 -0.1272
 3450DOPC   NC340474  27.551  33.871  14.202 -0.1206 -0.2094 -0.3439
 3450DOPC   PO440475  27.236  33.680  14.262  0.1992  0.1949  0.2515
 3450DOPC   GL140476  27.323  33.614  13.893 -0.4044  0.0066  0.2038
 3450DOPC   GL240477  27.135  33.412  13.798  0.0313  0.3138 -0.1286
 3450DOPC   C1A40478  27.287  33.785  13.501  0.0478 -0.1282 -0.2422
 3450DOPC   D2A40479  27.145  33.720  13.045 -0.3776 -0.4086 -0.1164
 3450DOPC   C3A40480  26.926  33.534  12.706  0.0946 -0.2890  0.1966
 3450DOPC   C4A40481  26.642  33.215  12.599 -0.0299 -0.2127  0.1382
 3450DOPC   C1B40482  26.895  33.539  13.450  0.0116 -0.4550  0.3033
 3450DOPC   D2B40483  26.659  33.711  13.083  0.1119 -0.0615  0.0287
 3450DOPC   C3B40484  26.818  34.017  12.741  0.0763 -0.1247  0.4362
 3450DOPC   C4B40485  26.693  33.996  12.304 -0.2041  0.1109 -0.0972
 3451POSM   NC340486  27.712  29.476  13.434 -0.0348  0.1488 -0.0150
 3451POSM   PO440487  28.064  29.264  13.421 -0.0508 -0.4003  0.1031
 3451POSM   AM140488  28.142  29.461  13.191  0.1475 -0.0108  0.1385
 3451POSM   AM240489  28.005  29.608  13.012  0.1572  0.2773  0.1119
 3451POSM   T1A40490  28.368  29.482  12.732  0.0281  0.0780  0.1474
 3451POSM   C2A40491  28.310  29.720  12.348  0.1763 -0.0285 -0.1002
 3451POSM   C3A40492  28.194  29.638  11.908 -0.1593  0.0566 -0.0483
 3451POSM   C1B40493  27.864  29.569  12.751 -0.3133 -0.0874  0.1436
 3451POSM   D2B40494  27.808  29.593  12.306 -0.0334 -0.0500  0.2412
 3451POSM   C3B40495  27.650  29.961  12.123  0.1965  0.1043  0.2551
 3451POSM   C4B40496  27.560  30.334  12.292  0.2469 -0.0554 -0.2321
 3452DOPE   NH340497  29.132  27.286  13.238  0.4013  0.1882 -0.2796
 3452DOPE   PO440498  28.827  27.196  13.116 -0.2547  0.0674  0.2503
 3452DOPE   GL140499  28.986  27.075  12.849  0.1761  0.1175 -0.1542
 3452DOPE   GL240500  28.875  26.800  12.782 -0.3690 -0.1560 -0.4306
 3452DOPE   C1A40501  28.887  27.200  12.409 -0.2662  0.1103 -0.2562
 3452DOPE   D2A40502  28.896  27.417  11.961  0.0546  0.1966  0.0180
 3452DOPE   C3A40503  28.735  27.858  11.914  0.0097  0.1058 -0.0548
 3452DOPE   C4A40504  28.616  28.319  11.794 -0.0298 -0.2021 -0.0516
 3452DOPE   C1B40505  28.806  26.634  12.345  0.0099  0.0078 -0.0855
 3452DOPE   D2B40506  28.819  26.316  12.013 -0.4661  0.0991  0.0553
 3452DOPE   C3B40507  29.191  26.198  11.798 -0.0768 -0.0852 -0.2138
 3452DOPE   C4B40508  29.569  26.307  11.580  0.0292 -0.2528 -0.0033
 3453DOPS   CNO40509  28.391  25.679  13.550 -0.1486  0.0537  0.3427
 3453DOPS   PO440510  28.650  25.536  13.318 -0.1977  0.1136  0.0830
 3453DOPS   GL140511  28.748  25.583  12.787  0.3119  0.0405 -0.0911
 3453DOPS   GL240512  28.515  25.409  12.711 -0.0377 -0.0015  0.0306
 3453DOPS   C1A40513  28.811  25.460  12.302  0.1589  0.1540 -0.0457
 3453DOPS   D2A40514  28.690  25.412  11.941 -0.1652  0.0401  0.0252
 3453DOPS   C3A40515  28.653  25.077  11.630  0.0381 -0.1466 -0.4357
 3453DOPS   C4A40516  28.738  24.732  11.364 -0.2494  0.2781  0.3041
 3453DOPS   C1B40517  28.315  25.462  12.328  0.1758 -0.1371 -0.0713
 3453DOPS   D2B40518  28.019  25.455  11.959 -0.0434 -0.0851 -0.1832
 3453DOPS   C3B40519  27.830  25.762  11.696 -0.3105 -0.0296  0.1908
 3453DOPS   C4B40520  27.577  25.983  11.429  0.2004 -0.3388  0.1675
 3454DOPS   CNO40521  29.233  34.051  15.377 -0.1892 -0.0029 -0.0971
 3454DOPS   PO440522  29.541  33.954  15.159  0.0629  0.0954  0.0676
 3454DOPS   GL140523  29.601  33.932  14.772 -0.3811 -0.1039  0.0160
 3454DOPS   GL240524  29.429  33.818  14.648 -0.2249 -0.1211 -0.0288
 3454DOPS   C1A40525  29.814  34.148  14.454  0.0367 -0.2918 -0.1612
 3454DOPS   D2A40526  29.844  34.436  14.114  0.0787  0.3561 -0.1180
 3454DOPS   C3A40527  30.215  34.604  13.950 -0.1323  0.2195  0.0833
 3454DOPS   C4A40528  30.606  34.804  13.812 -0.0019 -0.1405 -0.3611
 3454DOPS   C1B40529  29.394  33.719  14.247  0.3395  0.1139 -0.1707
 3454DOPS   D2B40530  29.232  33.743  13.781  0.0302 -0.1488 -0.1752
 3454DOPS   C3B40531  29.505  33.552  13.477 -0.0981 -0.1556  0.0650
 3454DOPS   C4B40532  29.453  33.536  13.017 -0.0219  0.1311  0.0532
 3455DOPE   NH340533  33.667  24.938  14.007  0.0657  0.0960  0.1642
 3455DOPE   PO440534  33.414  24.729  14.095  0.0784 -0.3209 -0.1333
 3455DOPE   GL140535  33.325  24.568  13.729 -0.0553 -0.0601  0.3854
 3455DOPE   GL240536  33.385  24.783  13.554  0.0675 -0.1160  0.0343
 3455DOPE   C1A40537  33.480  24.326  13.338 -0.2542 -0.3129  0.1322
 3455DOPE   D2A40538  33.428  23.937  13.116  0.0491  0.2490  0.1271
 3455DOPE   C3A40539  33.486  23.893  12.639  0.1226  0.0160 -0.1494
 3455DOPE   C4A40540  33.662  23.526  12.478  0.1495  0.0327  0.2292
 3455DOPE   C1B40541  33.541  24.800  13.154  0.0980 -0.0454 -0.3238
 3455DOPE   D2B40542  33.985  24.834  12.946  0.1773  0.1064 -0.1602
 3455DOPE   C3B40543  34.041  24.588  12.568  0.2477 -0.2298  0.0495
 3455DOPE   C4B40544  33.701  24.280  12.412  0.0831 -0.1889  0.0523
 3456DOPC   NC340545  28.924  25.950  13.131 -0.1816 -0.1573  0.1409
 3456DOPC   PO440546  28.830  26.317  13.285 -0.1712 -0.0607  0.4794
 3456DOPC   GL140547  28.760  26.310  12.822 -0.0265  0.0593  0.0838
 3456DOPC   GL240548  28.485  26.366  12.712 -0.1200  0.0528  0.3252
 3456DOPC   C1A40549  28.803  26.076  12.464  0.0249 -0.0156  0.3764
 3456DOPC   D2A40550  28.515  25.920  12.112 -0.1663 -0.2322  0.2699
 3456DOPC   C3A40551  28.356  25.752  11.706  0.1075 -0.2422  0.0736
 3456DOPC   C4A40552  28.453  25.465  11.377  0.2117  0.0708 -0.0611
 3456DOPC   C1B40553  28.275  26.027  12.536  0.1879  0.0383 -0.0156
 3456DOPC   D2B40554  28.068  25.891  12.188 -0.1261  0.1557  0.2174
 3456DOPC   C3B40555  28.034  26.169  11.867  0.0131 -0.0285  0.0442
 3456DOPC   C4B40556  28.371  26.379  11.614  0.0751 -0.1740 -0.3131
 3457DOPS   CNO40557  33.135  29.900  13.681  0.2302  0.1967  0.1113
 3457DOPS   PO440558  33.418  29.675  13.794  0.2290 -0.2098  0.1854
 3457DOPS   GL140559  33.546  29.607  13.471  0.1702  0.1130  0.1460
 3457DOPS   GL240560  33.276  29.690  13.274  0.2144  0.0404 -0.0749
 3457DOPS   C1A40561  33.553  29.319  13.122 -0.1151  0.3820  0.2439
 3457DOPS   D2A40562  33.489  29.168  12.686 -0.0836 -0.0452  0.1902
 3457DOPS   C3A40563  33.836  29.166  12.324  0.2210 -0.4407  0.0313
 3457DOPS   C4A40564  33.766  29.333  11.844 -0.0215 -0.0466 -0.0537
 3457DOPS   C1B40565  33.217  29.595  12.830 -0.1033  0.1104  0.0581
 3457DOPS   D2B40566  33.406  29.627  12.439 -0.2889  0.1637  0.0307
 3457DOPS   C3B40567  33.444  29.828  12.024 -0.2773 -0.2237  0.1826
 3457DOPS   C4B40568  33.146  29.859  11.624  0.1417 -0.1152 -0.0581
 3458DOPE   NH340569  28.067  32.766  14.517 -0.1423  0.0420 -0.0858
 3458DOPE   PO440570  28.033  32.579  14.255  0.1062 -0.1252 -0.1471
 3458DOPE   GL140571  28.242  32.613  13.948  0.1701  0.2515 -0.4042
 3458DOPE   GL240572  28.332  32.361  13.899  0.1367  0.4641  0.2953
 3458DOPE   C1A40573  28.366  32.773  13.537  0.1969  0.2939 -0.2239
 3458DOPE   D2A40574  28.627  33.036  13.215 -0.4615  0.0390  0.3817
 3458DOPE   C3A40575  28.482  33.377  12.986  0.0587  0.0055 -0.1317
 3458DOPE   C4A40576  28.104  33.583  13.045 -0.1639 -0.3327 -0.1979
 3458DOPE   C1B40577  28.200  32.275  13.478  0.2457 -0.0376 -0.2200
 3458DOPE   D2B40578  28.149  32.236  12.977  0.1088  0.0235  0.1524
 3458DOPE   C3B40579  28.428  32.272  12.634 -0.0389 -0.3637 -0.3094
 3458DOPE   C4B40580  28.660  32.524  12.301  0.0482  0.0132  0.0290
 3459DOPE   NH340581  32.042  33.159  14.816  0.1684  0.1728 -0.1164
 3459DOPE   PO440582  32.288  33.311  14.635  0.0807 -0.0518  0.0604
 3459DOPE   GL140583  32.316  33.429  14.270 -0.2083  0.0539 -0.2066
 3459DOPE   GL240584  32.025  33.440  14.236 -0.1579 -0.0095 -0.1946
 3459DOPE   C1A40585  32.520  33.362  13.847 -0.1273  0.1904 -0.0179
 3459DOPE   D2A40586  32.640  33.281  13.427 -0.0954 -0.0038  0.1473
 3459DOPE   C3A40587  32.682  33.448  13.015 -0.0124 -0.0237  0.0983
 3459DOPE   C4A40588  32.568  33.814  12.753  0.1239  0.1697 -0.0677
 3459DOPE   C1B40589  32.063  33.522  13.750 -0.0660  0.0634  0.0119
 3459DOPE   D2B40590  31.707  33.577  13.427 -0.1610 -0.1691 -0.2441
 3459DOPE   C3B40591  31.368  33.881  13.443  0.1274 -0.1867  0.0810
 3459DOPE   C4B40592  31.110  34.131  13.173 -0.2614  0.1061  0.0014
 3460DOPE   NH340593  31.040  29.106  13.842 -0.3036  0.3646 -0.0977
 3460DOPE   PO440594  31.000  28.785  13.748 -0.2728  0.2809  0.0160
 3460DOPE   GL140595  30.699  28.898  13.517 -0.0386  0.0004 -0.1030
 3460DOPE   GL240596  30.542  29.120  13.584 -0.1005 -0.3157 -0.1277
 3460DOPE   C1A40597  30.364  28.724  13.231 -0.0653 -0.0912 -0.2619
 3460DOPE   D2A40598  30.274  28.662  12.797 -0.1255  0.0188  0.1317
 3460DOPE   C3A40599  30.630  28.719  12.478 -0.0574  0.1833  0.0722
 3460DOPE   C4A40600  31.028  28.726  12.239 -0.1200 -0.0963  0.1117
 3460DOPE   C1B40601  30.594  29.099  13.105 -0.4741  0.0176 -0.1783
 3460DOPE   D2B40602  30.502  29.161  12.632  0.0309 -0.3732 -0.1462
 3460DOPE   C3B40603  30.298  29.440  12.332  0.0335  0.4249 -0.1018
 3460DOPE   C4B40604  30.206  29.326  11.875 -0.4089 -0.0463  0.3237
 3461DOPC   NC340605   0.318  33.165  14.661  0.1876 -0.1435  0.0462
 3461DOPC   PO440606   0.564  32.917  14.515  0.0593 -0.0200  0.0489
 3461DOPC   GL140607   0.813  32.959  14.171  0.0165 -0.2512 -0.0100
 3461DOPC   GL240608   0.988  32.665  14.138 -0.2932 -0.1452  0.0316
 3461DOPC   C1A40609   0.926  33.319  13.895  0.2371  0.1993  0.1846
 3461DOPC   D2A40610   0.788  33.530  13.540  0.1445 -0.0102  0.2559
 3461DOPC   C3A40611   0.489  33.888  13.520  0.1572 -0.1490  0.2362
 3461DOPC   C4A40612   0.256  34.287  13.607  0.1350 -0.0214 -0.1874
 3461DOPC   C1B40613   1.060  32.833  13.735 -0.3071 -0.1112 -0.1668
 3461DOPC   D2B40614   1.119  33.132  13.434  0.2875  0.1673 -0.0806
 3461DOPC   C3B40615   0.988  33.342  13.040  0.0833  0.0793 -0.4519
 3461DOPC   C4B40616   0.838  33.457  12.651  0.1638  0.0570 -0.4722
 3462POSM   NC340617  25.975  29.244  13.531  0.2671  0.2488 -0.0258
 3462POSM   PO440618  25.676  29.490  13.590 -0.1872  0.1889  0.0211
 3462POSM   AM140619  25.680  29.570  13.278 -0.2052 -0.0105  0.0733
 3462POSM   AM240620  25.822  29.478  13.061 -0.0721  0.1660  0.1012
 3462POSM   T1A40621  25.603  29.941  12.924 -0.1260 -0.0560 -0.0877
 3462POSM   C2A40622  25.830  30.013  12.510 -0.3141  0.2735  0.2665
 3462POSM   C3A40623  25.925  30.347  12.233 -0.1078 -0.0807  0.0840
 3462POSM   C1B40624  25.821  29.526  12.740  0.0912  0.0677 -0.0357
 3462POSM   D2B40625  25.765  29.558  12.300 -0.2260 -0.1861 -0.3045
 3462POSM   C3B40626  25.612  29.900  12.055  0.0263 -0.2938 -0.0479
 3462POSM   C4B40627  25.576  30.218  11.725  0.0709 -0.2342 -0.1937
 3463POSM   NC340628  21.596  33.638  13.520  0.0665  0.1406 -0.0076
 3463POSM   PO440629  21.939  33.667  13.352 -0.0027 -0.0954 -0.0310
 3463POSM   AM140630  21.837  33.719  13.089 -0.2584 -0.1192 -0.2719
 3463POSM   AM240631  21.595  33.745  12.980  0.2113 -0.2507  0.1037
 3463POSM   T1A40632  21.847  33.447  12.668 -0.0626  0.1203 -0.0592
 3463POSM   C2A40633  22.077  33.385  12.270 -0.1667  0.3525  0.2843
 3463POSM   C3A40634  21.976  33.537  11.772  0.0158 -0.1014  0.0855
 3463POSM   C1B40635  21.371  33.670  12.701 -0.0371 -0.1745  0.2744
 3463POSM   D2B40636  21.196  33.271  12.490 -0.0598  0.1000 -0.0994
 3463POSM   C3B40637  21.097  33.091  12.064 -0.0929  0.0610  0.1848
 3463POSM   C4B40638  20.815  32.810  11.911 -0.1100 -0.1123 -0.1170
 3464DOPC   NC340639  27.697  28.198  12.802  0.3255  0.3143  0.4015
 3464DOPC   PO440640  27.915  27.949  13.018  0.2361 -0.1533  0.1534
 3464DOPC   GL140641  27.995  27.880  12.637 -0.2292  0.2229  0.3034
 3464DOPC   GL240642  28.281  27.821  12.710 -0.4295  0.4048 -0.1972
 3464DOPC   C1A40643  27.903  27.569  12.297 -0.2617  0.1918 -0.0708
 3464DOPC   D2A40644  28.021  27.277  11.924  0.1693 -0.0052 -0.0794
 3464DOPC   C3A40645  27.953  27.469  11.514  0.1290  0.0933  0.1033
 3464DOPC   C4A40646  28.174  27.456  11.092  0.0362 -0.1464  0.5193
 3464DOPC   C1B40647  28.435  27.472  12.454  0.1830  0.0170 -0.0735
 3464DOPC   D2B40648  28.393  27.539  12.005 -0.2696 -0.6121  0.1634
 3464DOPC   C3B40649  28.464  27.242  11.665 -0.1800 -0.1567 -0.2541
 3464DOPC   C4B40650  28.250  26.857  11.590  0.1088 -0.0122 -0.0710
 3465DOPC   NC340651  31.959  29.267  13.918 -0.0390  0.2322  0.0960
 3465DOPC   PO440652  31.621  29.125  13.802  0.1282  0.1803 -0.0884
 3465DOPC   GL140653  31.974  28.932  13.578  0.1965 -0.0913 -0.1038
 3465DOPC   GL240654  32.093  29.149  13.407 -0.3060 -0.1827  0.3220
 3465DOPC   C1A40655  32.052  28.729  13.128 -0.1716 -0.1463  0.1621
 3465DOPC   D2A40656  32.164  28.804  12.632 -0.0187 -0.2749  0.2955
 3465DOPC   C3A40657  32.017  28.410  12.367  0.5017 -0.1738  0.2322
 3465DOPC   C4A40658  31.656  28.045  12.246  0.0406  0.0979 -0.0456
 3465DOPC   C1B40659  32.386  29.166  12.971 -0.2542  0.0428  0.0037
 3465DOPC   D2B40660  32.637  28.922  12.640  0.3873 -0.2402  0.0267
 3465DOPC   C3B40661  33.114  28.772  12.591  0.0131 -0.2023  0.1759
 3465DOPC   C4B40662  33.473  28.459  12.603 -0.1932 -0.0003  0.2542
 3466DOPS   CNO40663  24.360  32.236  13.935  0.0702 -0.0229 -0.1606
 3466DOPS   PO440664  24.027  32.381  13.815  0.0269  0.5628  0.0902
 3466DOPS   GL140665  24.191  32.321  13.474 -0.1518 -0.0212 -0.0295
 3466DOPS   GL240666  24.170  32.561  13.348 -0.2005  0.0212 -0.1302
 3466DOPS   C1A40667  24.352  32.044  13.197 -0.2632  0.3417 -0.0216
 3466DOPS   D2A40668  24.436  32.127  12.817  0.1133  0.2329 -0.0186
 3466DOPS   C3A40669  24.829  32.403  12.716  0.1535  0.0703 -0.0157
 3466DOPS   C4A40670  25.106  32.696  12.637  0.0732 -0.3158 -0.0827
 3466DOPS   C1B40671  23.962  32.641  12.977 -0.2358 -0.1475 -0.1221
 3466DOPS   D2B40672  23.820  32.495  12.599  0.2966 -0.2671  0.2215
 3466DOPS   C3B40673  23.829  32.817  12.283 -0.0184 -0.0570 -0.3264
 3466DOPS   C4B40674  23.938  33.080  11.916  0.0554 -0.0778 -0.0958
 3467DOPE   NH340675  32.179  27.520  13.922 -0.0848  0.0986 -0.0432
 3467DOPE   PO440676  32.301  27.254  13.915 -0.2963 -0.1006 -0.1954
 3467DOPE   GL140677  32.237  27.268  13.465  0.1079  0.0223 -0.0978
 3467DOPE   GL240678  32.388  27.527  13.349  0.1739 -0.1711  0.0395
 3467DOPE   C1A40679  32.124  26.894  13.144 -0.1649  0.0372  0.0026
 3467DOPE   D2A40680  31.759  26.754  12.900  0.2524 -0.2969  0.0383
 3467DOPE   C3A40681  31.499  26.400  12.712 -0.1786  0.0374  0.0267
 3467DOPE   C4A40682  31.256  26.007  12.644 -0.1901 -0.1720  0.0972
 3467DOPE   C1B40683  32.137  27.355  12.963 -0.0093  0.1246  0.1492
 3467DOPE   D2B40684  32.045  27.033  12.617 -0.1814  0.1634 -0.1785
 3467DOPE   C3B40685  32.221  27.099  12.225 -0.0819 -0.2389  0.1943
 3467DOPE   C4B40686  32.525  27.198  11.840 -0.4203  0.0898 -0.1556
 3468DOPS   CNO40687  32.646  28.118  14.074 -0.1852  0.0991  0.1871
 3468DOPS   PO440688  32.690  28.359  13.790  0.2798 -0.1986 -0.1896
 3468DOPS   GL140689  32.806  28.366  13.383  0.2638 -0.3281 -0.0691
 3468DOPS   GL240690  32.871  28.102  13.320  0.0459 -0.0302  0.0184
 3468DOPS   C1A40691  32.885  28.682  13.050  0.1905  0.0286 -0.0557
 3468DOPS   D2A40692  33.059  29.111  12.961 -0.0367  0.2359  0.0884
 3468DOPS   C3A40693  32.965  29.308  12.529  0.0501  0.0194 -0.1562
 3468DOPS   C4A40694  32.980  29.567  12.157  0.2065  0.0170 -0.2608
 3468DOPS   C1B40695  32.743  28.222  12.863 -0.2329 -0.0996  0.0508
 3468DOPS   D2B40696  32.591  28.453  12.548  0.0423  0.0858  0.0080
 3468DOPS   C3B40697  32.585  28.409  12.047  0.0871  0.0695  0.3134
 3468DOPS   C4B40698  32.684  28.663  11.618 -0.1295 -0.0502 -0.0782
 3469DOPE   NH340699   0.443  26.558  10.271 -0.0667  0.3022 -0.1768
 3469DOPE   PO440700   0.590  26.836  10.413  0.0101 -0.2090 -0.2044
 3469DOPE   GL140701   0.559  26.987  10.807 -0.1551 -0.6258 -0.1293
 3469DOPE   GL240702   0.726  27.275  10.882 -0.0347 -0.0028 -0.0018
 3469DOPE   C1A40703   0.187  27.081  11.121  0.2218 -0.0041 -0.0958
 3469DOPE   D2A40704   0.062  27.063  11.589  0.0346 -0.1468 -0.4460
 3469DOPE   C3A40705   0.223  26.909  11.968 -0.0586 -0.1163 -0.0358
 3469DOPE   C4A40706   0.610  26.681  12.206 -0.2042  0.1541  0.1285
 3469DOPE   C1B40707   0.667  27.133  11.331 -0.0217 -0.0198 -0.2335
 3469DOPE   D2B40708   0.709  26.895  11.740 -0.4921 -0.0872 -0.2868
 3469DOPE   C3B40709   0.983  27.010  12.141 -0.2009  0.2687  0.0487
 3469DOPE   C4B40710   1.231  26.934  12.519 -0.0044  0.3025  0.2122
 3470DOPS   CNO40711  26.341  27.567   9.218 -0.1727 -0.1729 -0.0683
 3470DOPS   PO440712  26.725  27.685   9.313  0.5530  0.1576 -0.0917
 3470DOPS   GL140713  26.604  27.682   9.708  0.4433  0.3025  0.1550
 3470DOPS   GL240714  26.323  27.794   9.663  0.0927  0.0987  0.2994
 3470DOPS   C1A40715  26.623  27.320   9.997  0.1977  0.2612 -0.2031
 3470DOPS   D2A40716  26.555  27.062  10.401  0.2222  0.1817  0.5132
 3470DOPS   C3A40717  26.744  27.276  10.747  0.4604  0.2950  0.0577
 3470DOPS   C4A40718  26.798  27.383  11.167  0.1122 -0.0997 -0.0529
 3470DOPS   C1B40719  26.147  28.092   9.995 -0.1734 -0.0152  0.2295
 3470DOPS   D2B40720  26.188  28.182  10.447 -0.1413 -0.0583 -0.3429
 3470DOPS   C3B40721  26.183  27.731  10.685  0.2764  0.0535  0.0224
 3470DOPS   C4B40722  26.235  27.262  10.869 -0.0139 -0.1656 -0.0065
 3471DOPE   NH340723  32.533  27.424   9.917 -0.3445  0.2738 -0.0817
 3471DOPE   PO440724  32.507  27.419  10.221 -0.0704  0.0549 -0.0831
 3471DOPE   GL140725  32.378  27.373  10.586 -0.0429  0.0967 -0.0475
 3471DOPE   GL240726  32.656  27.346  10.773  0.0221  0.3124 -0.1446
 3471DOPE   C1A40727  32.219  27.205  11.008  0.2064  0.0760  0.0448
 3471DOPE   D2A40728  32.205  27.164  11.491  0.0889 -0.0445  0.0167
 3471DOPE   C3A40729  32.068  27.456  11.860  0.0544 -0.2332  0.2219
 3471DOPE   C4A40730  31.746  27.540  12.141  0.2055 -0.3762 -0.2930
 3471DOPE   C1B40731  32.628  27.391  11.260 -0.0682  0.2141  0.1539
 3471DOPE   D2B40732  32.401  27.670  11.514 -0.1783  0.2071 -0.0573
 3471DOPE   C3B40733  32.548  27.687  11.971  0.0485 -0.4152 -0.0854
 3471DOPE   C4B40734  32.590  27.909  12.389 -0.1735  0.1429  0.0074
 3472DOPE   NH340735  32.622  26.028   9.901  0.1480  0.1948 -0.0206
 3472DOPE   PO440736  32.706  25.762   9.847  0.0405 -0.1691 -0.2088
 3472DOPE   GL140737  32.703  25.745  10.313  0.0097  0.0679  0.3520
 3472DOPE   GL240738  33.018  25.662  10.448  0.2355 -0.0660  0.0639
 3472DOPE   C1A40739  32.415  25.584  10.603 -0.1515 -0.0771 -0.3278
 3472DOPE   D2A40740  32.459  25.483  11.053 -0.1347  0.0133 -0.0417
 3472DOPE   C3A40741  32.789  25.163  11.208 -0.0882 -0.2748 -0.0396
 3472DOPE   C4A40742  33.077  24.829  11.430  0.5499  0.2171 -0.0782
 3472DOPE   C1B40743  32.948  25.314  10.745 -0.0171 -0.0732  0.1342
 3472DOPE   D2B40744  32.627  25.014  10.684 -0.1041 -0.3351 -0.1620
 3472DOPE   C3B40745  32.323  25.022  10.961  0.0782  0.0050 -0.1133
 3472DOPE   C4B40746  32.305  25.082  11.433  0.2934  0.0776  0.0723
 3473DOPC   NC340747  32.017  26.601   9.680 -0.3445  0.1952  0.1309
 3473DOPC   PO440748  32.064  26.203   9.790  0.0095  0.0208 -0.0043
 3473DOPC   GL140749  32.133  26.076  10.181 -0.0815 -0.0525 -0.1146
 3473DOPC   GL240750  32.346  26.066  10.348  0.3043 -0.1581  0.2692
 3473DOPC   C1A40751  31.959  25.745  10.505  0.1262 -0.3336  0.0579
 3473DOPC   D2A40752  31.582  25.831  10.769 -0.2680  0.0514  0.2999
 3473DOPC   C3A40753  31.635  25.743  11.207 -0.1256 -0.1313 -0.1199
 3473DOPC   C4A40754  31.441  25.399  11.549 -0.2074 -0.0276 -0.3665
 3473DOPC   C1B40755  32.227  25.982  10.812 -0.2780 -0.0724 -0.1428
 3473DOPC   D2B40756  32.065  25.983  11.183 -0.1169 -0.0942 -0.2394
 3473DOPC   C3B40757  31.974  26.172  11.615 -0.2257  0.1240 -0.0144
 3473DOPC   C4B40758  31.757  26.285  12.015 -0.1569  0.2015 -0.1023
 3474DOPC   NC340759  26.065  31.160  10.218 -0.1566 -0.2690  0.1077
 3474DOPC   PO440760  25.815  30.880  10.079  0.0692 -0.0687  0.0635
 3474DOPC   GL140761  25.826  30.642  10.306 -0.0638 -0.1032  0.1031
 3474DOPC   GL240762  25.557  30.592  10.430 -0.3116  0.0069 -0.0005
 3474DOPC   C1A40763  25.892  30.219  10.464  0.0104 -0.5956 -0.1102
 3474DOPC   D2A40764  25.838  30.038  10.887 -0.0359 -0.0766 -0.0343
 3474DOPC   C3A40765  25.514  29.795  11.099 -0.1787  0.2291 -0.0475
 3474DOPC   C4A40766  25.107  29.660  11.091 -0.2869 -0.0590  0.2018
 3474DOPC   C1B40767  25.094  30.525  10.507 -0.1885 -0.1714 -0.1877
 3474DOPC   D2B40768  24.712  30.776  10.332  0.1088 -0.0929 -0.3434
 3474DOPC   C3B40769  24.330  30.751  10.509  0.0302  0.1045  0.0452
 3474DOPC   C4B40770  24.093  30.951  10.900  0.0856  0.1672  0.0027
 3475DOPE   NH340771  22.994  31.085   9.386 -0.0616  0.3182 -0.0844
 3475DOPE   PO440772  23.180  31.370   9.390  0.4235 -0.4103  0.1602
 3475DOPE   GL140773  23.077  31.580   9.733 -0.3794  0.1434 -0.1205
 3475DOPE   GL240774  22.913  31.351   9.939 -0.2385 -0.1254  0.3455
 3475DOPE   C1A40775  23.093  31.678  10.228 -0.1316  0.2266  0.2412
 3475DOPE   D2A40776  23.141  32.003  10.594 -0.0366 -0.0608 -0.3407
 3475DOPE   C3A40777  22.942  32.085  11.058 -0.3321  0.0955 -0.0332
 3475DOPE   C4A40778  22.810  32.263  11.529 -0.0842 -0.4946  0.1132
 3475DOPE   C1B40779  23.193  31.207  10.312 -0.0344  0.1842  0.0235
 3475DOPE   D2B40780  23.589  30.906  10.268 -0.2304  0.0359 -0.0955
 3475DOPE   C3B40781  23.845  30.685  10.613  0.0796 -0.1274  0.2810
 3475DOPE   C4B40782  24.183  30.457  10.933 -0.3266 -0.1866  0.2852
 3476DOPE   NH340783   2.622  33.519  10.447  0.0268 -0.0668 -0.2654
 3476DOPE   PO440784   2.335  33.412  10.380  0.0335 -0.0074  0.1342
 3476DOPE   GL140785   2.244  33.482  10.750 -0.1209  0.0022  0.0025
 3476DOPE   GL240786   2.309  33.190  10.875 -0.0308 -0.1019 -0.0860
 3476DOPE   C1A40787   1.964  33.347  11.151  0.2198  0.1731 -0.3101
 3476DOPE   D2A40788   1.917  33.517  11.602  0.0645 -0.0238  0.3163
 3476DOPE   C3A40789   2.176  33.903  11.794 -0.0286 -0.3046 -0.0723
 3476DOPE   C4A40790   2.016  34.231  12.015 -0.1520  0.1355  0.1654
 3476DOPE   C1B40791   2.380  33.144  11.316  0.2638 -0.0165 -0.1479
 3476DOPE   D2B40792   2.321  33.209  11.752  0.2133 -0.1308  0.2228
 3476DOPE   C3B40793   2.650  33.448  12.020  0.1685  0.0489 -0.0860
 3476DOPE   C4B40794   2.699  33.541  12.474  0.0215  0.1409 -0.0620
 3477DOPE   NH340795  30.727  29.462   9.912  0.0286  0.3173  0.2026
 3477DOPE   PO440796  30.498  29.490   9.692  0.1864  0.0180  0.2561
 3477DOPE   GL140797  30.132  29.578   9.927  0.3173 -0.0748 -0.1206
 3477DOPE   GL240798  30.275  29.542  10.194  0.1137  0.0466  0.0415
 3477DOPE   C1A40799  29.906  29.215  10.117  0.2306 -0.1752 -0.2186
 3477DOPE   D2A40800  29.611  28.858  10.122  0.2901 -0.1562  0.1214
 3477DOPE   C3A40801  29.230  28.748  10.400 -0.2137  0.3004 -0.1950
 3477DOPE   C4A40802  28.980  28.572  10.757 -0.1519 -0.3648  0.2606
 3477DOPE   C1B40803  30.551  29.651  10.525 -0.0281 -0.0478 -0.0266
 3477DOPE   D2B40804  30.866  29.807  10.854  0.0760  0.1158  0.0380
 3477DOPE   C3B40805  30.605  29.616  11.188  0.5444  0.1462  0.2609
 3477DOPE   C4B40806  30.628  29.593  11.632 -0.2248  0.1032 -0.1871
 3478POSM   NC340807  25.436  32.571  10.036  0.0043 -0.1968  0.1356
 3478POSM   PO440808  25.079  32.348  10.120 -0.0520 -0.1543  0.0254
 3478POSM   AM140809  25.014  32.137  10.392 -0.0611 -0.0529 -0.1909
 3478POSM   AM240810  25.123  31.924  10.523 -0.1556 -0.0461  0.0490
 3478POSM   T1A40811  24.658  32.102  10.754  0.1400 -0.0924 -0.0206
 3478POSM   C2A40812  24.542  31.960  11.222  0.1196 -0.0208  0.1506
 3478POSM   C3A40813  24.248  31.931  11.544 -0.3438  0.1866 -0.4369
 3478POSM   C1B40814  25.041  31.864  10.814  0.5601  0.3360  0.0266
 3478POSM   D2B40815  25.054  31.812  11.292  0.1338 -0.2081  0.3052
 3478POSM   C3B40816  24.722  31.548  11.451 -0.0922 -0.4126  0.0936
 3478POSM   C4B40817  24.714  31.070  11.607  0.1549  0.1482 -0.0366
 3479DOPE   NH340818  27.381  32.892  10.318  0.1318 -0.0082  0.2944
 3479DOPE   PO440819  27.105  32.927  10.130  0.1231 -0.0832 -0.1020
 3479DOPE   GL140820  26.944  32.919  10.473 -0.0670  0.1377  0.0047
 3479DOPE   GL240821  27.000  32.596  10.548 -0.0228 -0.1223  0.2168
 3479DOPE   C1A40822  26.729  32.867  10.864  0.1194  0.1118  0.1416
 3479DOPE   D2A40823  26.685  32.705  11.308 -0.2840  0.0668  0.0006
 3479DOPE   C3A40824  26.548  32.300  11.369  0.2827 -0.0274  0.0309
 3479DOPE   C4A40825  26.376  31.939  11.539 -0.2365 -0.2279  0.2070
 3479DOPE   C1B40826  27.013  32.482  10.953 -0.2125 -0.2023  0.2331
 3479DOPE   D2B40827  27.056  32.338  11.367  0.5033  0.0159 -0.1749
 3479DOPE   C3B40828  27.055  32.631  11.694 -0.3927 -0.2295 -0.3054
 3479DOPE   C4B40829  26.988  33.075  11.892  0.0703  0.2740  0.0974
 3480POSM   NC340830  30.886  33.236  10.899 -0.0171 -0.1092 -0.0830
 3480POSM   PO440831  31.057  32.867  10.868  0.0443  0.1688 -0.0074
 3480POSM   AM140832  31.109  32.872  11.186 -0.0999  0.0385 -0.3318
 3480POSM   AM240833  31.165  32.692  11.354  0.2571 -0.1396 -0.4631
 3480POSM   T1A40834  31.425  33.002  11.593  0.1849  0.1448  0.1077
 3480POSM   C2A40835  31.677  33.112  11.970 -0.2055  0.2447  0.0432
 3480POSM   C3A40836  32.046  33.142  12.215  0.0440 -0.0462 -0.1280
 3480POSM   C1B40837  31.174  32.529  11.684 -0.1797  0.1865  0.1708
 3480POSM   D2B40838  31.032  32.373  12.081 -0.1450  0.1727 -0.1931
 3480POSM   C3B40839  31.381  32.064  12.168  0.0244 -0.0357 -0.0971
 3480POSM   C4B40840  31.592  31.857  12.485  0.1532  0.0675  0.3073
 3481POSM   NC340841  23.691  26.427   8.197 -0.0026 -0.1974  0.0855
 3481POSM   PO440842  23.412  26.138   8.216 -0.0618  0.1061 -0.2045
 3481POSM   AM140843  23.513  26.069   8.495  0.0691  0.0852 -0.0538
 3481POSM   AM240844  23.396  25.994   8.771 -0.0781 -0.1965 -0.2583
 3481POSM   T1A40845  23.893  25.825   8.769 -0.1726 -0.0156  0.2868
 3481POSM   C2A40846  23.884  25.354   8.725  0.2168  0.0691 -0.3710
 3481POSM   C3A40847  23.842  24.882   8.722  0.0165 -0.1599 -0.2247
 3481POSM   C1B40848  23.414  26.233   9.019  0.0820 -0.0804 -0.1520
 3481POSM   D2B40849  23.686  26.592   9.212  0.3045  0.0965  0.2368
 3481POSM   C3B40850  23.942  26.592   9.582 -0.2081  0.0608 -0.2122
 3481POSM   C4B40851  23.934  26.607  10.050 -0.1944 -0.0297  0.0038
 3482DOPC   NC340852   4.211  33.161  10.850  0.2077  0.4002  0.2110
 3482DOPC   PO440853   3.902  32.930  10.895  0.0311 -0.2638  0.2956
 3482DOPC   GL140854   3.559  32.757  11.119 -0.3132 -0.3039  0.0303
 3482DOPC   GL240855   3.578  32.452  11.107  0.4086 -0.0080  0.1713
 3482DOPC   C1A40856   3.641  32.566  11.592 -0.0096  0.0753  0.1583
 3482DOPC   D2A40857   3.533  32.597  12.024  0.3327  0.2006 -0.1408
 3482DOPC   C3A40858   3.139  32.583  12.170  0.1926 -0.0116  0.3275
 3482DOPC   C4A40859   2.680  32.682  12.354  0.0028  0.3426 -0.1233
 3482DOPC   C1B40860   3.318  32.234  11.392 -0.0744 -0.0039  0.0204
 3482DOPC   D2B40861   3.238  32.286  11.815  0.2407 -0.2614 -0.2296
 3482DOPC   C3B40862   3.102  31.991  12.153 -0.1641  0.1247  0.1704
 3482DOPC   C4B40863   2.936  31.615  12.301 -0.4332 -0.2726 -0.2645
 3483DOPC   NC340864   2.257  32.892  10.385 -0.1643  0.0007 -0.0344
 3483DOPC   PO440865   1.953  32.605  10.468  0.0625 -0.1504  0.0902
 3483DOPC   GL140866   2.001  32.406  10.831 -0.3311  0.2335 -0.1771
 3483DOPC   GL240867   2.096  32.736  10.983  0.1330  0.1506  0.2736
 3483DOPC   C1A40868   1.886  32.304  11.251  0.0419  0.0305 -0.2224
 3483DOPC   D2A40869   1.845  32.497  11.679 -0.0380  0.0689 -0.3175
 3483DOPC   C3A40870   1.896  32.238  12.021  0.1151  0.0307  0.3904
 3483DOPC   C4A40871   1.852  32.308  12.446 -0.0313  0.1878 -0.2077
 3483DOPC   C1B40872   1.868  32.870  11.369 -0.0552 -0.1776  0.3326
 3483DOPC   D2B40873   1.913  32.966  11.841  0.0698  0.0229  0.1811
 3483DOPC   C3B40874   1.896  32.735  12.227 -0.0592  0.0482 -0.0861
 3483DOPC   C4B40875   2.052  32.746  12.648 -0.3221 -0.0798  0.1048
 3484DOPC   NC340876  28.334  31.270  10.393 -0.3921 -0.0626  0.2319
 3484DOPC   PO440877  28.375  30.921  10.142 -0.2042 -0.0161  0.0176
 3484DOPC   GL140878  28.188  30.787  10.448 -0.0587  0.0432  0.0880
 3484DOPC   GL240879  28.072  30.528  10.432 -0.3565  0.0070 -0.0519
 3484DOPC   C1A40880  28.341  30.946  10.847 -0.1717  0.0826  0.3839
 3484DOPC   D2A40881  28.679  31.246  10.968 -0.0645  0.2386 -0.1955
 3484DOPC   C3A40882  28.504  31.553  11.241  0.0705 -0.2220 -0.0902
 3484DOPC   C4A40883  28.132  31.631  11.503 -0.2081  0.0864 -0.1966
 3484DOPC   C1B40884  28.298  30.434  10.745 -0.1951 -0.2683 -0.0973
 3484DOPC   D2B40885  28.313  30.089  11.092 -0.3759  0.2158  0.0502
 3484DOPC   C3B40886  28.636  29.709  11.082  0.1071 -0.0442 -0.0852
 3484DOPC   C4B40887  28.588  29.254  11.100 -0.2888 -0.0083 -0.2474
 3485DOPE   NH340888  29.884  26.486   9.801  0.0994  0.0766  0.0210
 3485DOPE   PO440889  30.040  26.319  10.043 -0.3576  0.0152  0.0493
 3485DOPE   GL140890  29.874  25.994  10.335  0.0374 -0.2036  0.3434
 3485DOPE   GL240891  29.743  26.202  10.572 -0.0598  0.2501 -0.1512
 3485DOPE   C1A40892  29.778  25.509  10.414  0.3578 -0.2910  0.1528
 3485DOPE   D2A40893  29.717  25.380  10.857  0.1144  0.1626 -0.3037
 3485DOPE   C3A40894  29.899  25.501  11.288 -0.0164  0.0222  0.0933
 3485DOPE   C4A40895  29.819  25.941  11.443 -0.1132 -0.1337  0.0233
 3485DOPE   C1B40896  29.328  26.264  10.658 -0.1507  0.0731  0.0131
 3485DOPE   D2B40897  28.882  26.199  10.710  0.1269 -0.2897 -0.2738
 3485DOPE   C3B40898  28.726  26.119  11.157  0.2322 -0.0590  0.2432
 3485DOPE   C4B40899  28.797  25.989  11.549 -0.2519  0.1721  0.0370
 3486POSM   NC340900  29.666  25.458   9.516  0.2136  0.0616  0.2177
 3486POSM   PO440901  29.414  25.742   9.415 -0.2709 -0.2839 -0.1491
 3486POSM   AM140902  29.278  25.717   9.730 -0.0495 -0.0580 -0.0656
 3486POSM   AM240903  29.046  25.776   9.882 -0.1335 -0.1470  0.1695
 3486POSM   T1A40904  29.343  25.493  10.173  0.0519 -0.0050 -0.2008
 3486POSM   C2A40905  29.315  25.037  10.290  0.1428 -0.4342 -0.1024
 3486POSM   C3A40906  29.254  24.638  10.468  0.0621 -0.0611  0.2744
 3486POSM   C1B40907  28.890  25.549  10.070  0.0308  0.0852 -0.1333
 3486POSM   D2B40908  28.411  25.439  10.289 -0.1775  0.1787 -0.2203
 3486POSM   C3B40909  28.404  25.228  10.712  0.1175 -0.0756 -0.2213
 3486POSM   C4B40910  28.428  25.013  11.094  0.1871  0.2966  0.1590
 3487DOPE   NH340911  24.390  33.126  10.179  0.0915 -0.2753  0.2284
 3487DOPE   PO440912  24.748  33.055  10.113 -0.1114  0.0431  0.2229
 3487DOPE   GL140913  25.089  33.062  10.382 -0.1020  0.1354  0.4038
 3487DOPE   GL240914  25.093  32.795  10.354 -0.2116  0.0925  0.0299
 3487DOPE   C1A40915  25.303  33.323  10.721 -0.2166 -0.0626 -0.0942
 3487DOPE   D2A40916  25.476  33.576  11.061 -0.0750  0.1704  0.0932
 3487DOPE   C3A40917  25.217  33.656  11.502 -0.0310  0.1750  0.0332
 3487DOPE   C4A40918  24.880  33.905  11.745 -0.3897 -0.2072  0.0551
 3487DOPE   C1B40919  24.863  32.591  10.689 -0.0100  0.1926 -0.2568
 3487DOPE   D2B40920  24.459  32.598  10.940  0.0343  0.0784 -0.1845
 3487DOPE   C3B40921  24.351  32.416  11.334  0.0211 -0.1845  0.3333
 3487DOPE   C4B40922  24.066  32.351  11.703 -0.0747 -0.1291 -0.0363
 3488DOPC   NC340923  32.294  24.300  10.176 -0.1455  0.2268  0.2812
 3488DOPC   PO440924  31.986  24.064  10.082  0.2228  0.0411 -0.2351
 3488DOPC   GL140925  31.756  24.296  10.312 -0.0859 -0.0965  0.0204
 3488DOPC   GL240926  31.481  24.251  10.460 -0.2239 -0.1844  0.2235
 3488DOPC   C1A40927  31.986  24.691  10.412  0.0384 -0.2527  0.3345
 3488DOPC   D2A40928  32.114  25.123  10.506 -0.0335 -0.0710  0.3229
 3488DOPC   C3A40929  31.972  25.399  10.844  0.0824 -0.3120 -0.0261
 3488DOPC   C4A40930  32.011  25.478  11.322 -0.0802  0.0760 -0.2189
 3488DOPC   C1B40931  31.524  23.948  10.800  0.0626  0.2329  0.4947
 3488DOPC   D2B40932  31.556  23.772  11.212  0.3860  0.2274  0.1689
 3488DOPC   C3B40933  31.696  24.032  11.565  0.2768 -0.0954  0.1333
 3488DOPC   C4B40934  31.782  24.444  11.470 -0.0081  0.1815  0.5689
 3489POSM   NC340935  31.800  25.729   9.703 -0.2175  0.0157 -0.4424
 3489POSM   PO440936  31.579  25.376   9.758 -0.1705  0.0376  0.0604
 3489POSM   AM140937  31.554  25.540  10.052  0.1540  0.2572  0.3661
 3489POSM   AM240938  31.458  25.417  10.271 -0.0006  0.1234  0.2666
 3489POSM   T1A40939  31.371  25.883  10.345  0.3449  0.2592  0.1430
 3489POSM   C2A40940  31.331  26.254  10.659 -0.1374 -0.3703 -0.1702
 3489POSM   C3A40941  31.390  26.693  10.766  0.1686  0.2100 -0.0132
 3489POSM   C1B40942  31.531  25.125  10.391 -0.2108 -0.0906  0.1084
 3489POSM   D2B40943  31.738  24.939  10.764  0.2108 -0.1545 -0.0840
 3489POSM   C3B40944  31.809  24.940  11.225 -0.1604  0.0364 -0.2189
 3489POSM   C4B40945  31.877  24.973  11.675  0.3067  0.1273 -0.3098
 3490DOPE   NH340946   0.947  29.048  10.170 -0.1325  0.0625 -0.2872
 3490DOPE   PO440947   1.029  29.301  10.376 -0.0173 -0.0022 -0.1949
 3490DOPE   GL140948   0.860  29.311  10.825 -0.0746 -0.1119 -0.3679
 3490DOPE   GL240949   0.604  29.434  10.782 -0.1890  0.1761 -0.0606
 3490DOPE   C1A40950   0.868  29.233  11.287  0.2110  0.1187 -0.1704
 3490DOPE   D2A40951   0.829  28.987  11.694  0.4121 -0.0808 -0.0409
 3490DOPE   C3A40952   0.902  28.783  12.072  0.2887  0.0945 -0.0762
 3490DOPE   C4A40953   0.808  28.557  12.468 -0.0487 -0.4248  0.3683
 3490DOPE   C1B40954   0.415  29.351  11.183 -0.4315  0.0098 -0.2198
 3490DOPE   D2B40955   0.280  29.452  11.580  0.3873 -0.1695  0.3472
 3490DOPE   C3B40956   0.626  29.395  11.918 -0.1737 -0.1204  0.0885
 3490DOPE   C4B40957   0.781  29.487  12.304  0.2120 -0.1618 -0.0589
 3491DOPE   NH340958  22.991  30.221   9.066  0.0921  0.0104  0.0102
 3491DOPE   PO440959  22.923  30.423   9.330  0.4050  0.0793 -0.0778
 3491DOPE   GL140960  23.095  30.659   9.594 -0.2368 -0.0184 -0.1539
 3491DOPE   GL240961  23.347  30.754   9.459 -0.1289 -0.2855 -0.1112
 3491DOPE   C1A40962  23.300  30.575  10.024  0.1307 -0.0349  0.3227
 3491DOPE   D2A40963  23.288  30.571  10.510 -0.0104  0.0040 -0.0216
 3491DOPE   C3A40964  23.520  30.351  10.861  0.0404  0.3173 -0.4140
 3491DOPE   C4A40965  23.872  30.115  11.025  0.1142  0.0720  0.1966
 3491DOPE   C1B40966  23.669  30.839   9.764 -0.3302 -0.2666  0.1561
 3491DOPE   D2B40967  23.839  31.198   9.952 -0.1518 -0.0171  0.0036
 3491DOPE   C3B40968  23.938  31.198  10.435 -0.0890  0.2462  0.3462
 3491DOPE   C4B40969  23.852  31.340  10.840 -0.1047  0.1994 -0.0761
 3492DOPC   NC340970  28.309  32.047  10.108 -0.1876 -0.1096  0.0678
 3492DOPC   PO440971  28.398  32.217  10.451  0.0224  0.1358  0.1779
 3492DOPC   GL140972  28.178  32.001  10.683  0.1271 -0.5720 -0.4024
 3492DOPC   GL240973  28.343  31.805  10.747  0.0539 -0.2880 -0.0638
 3492DOPC   C1A40974  27.894  31.881  10.983 -0.0421 -0.0004 -0.0702
 3492DOPC   D2A40975  27.745  31.968  11.445 -0.0541 -0.1318  0.1021
 3492DOPC   C3A40976  27.331  31.892  11.636  0.1707 -0.0777 -0.0785
 3492DOPC   C4A40977  26.879  31.926  11.673 -0.1431 -0.1212 -0.1364
 3492DOPC   C1B40978  27.958  31.660  10.526 -0.3365 -0.3904  0.1034
 3492DOPC   D2B40979  27.562  31.631  10.757 -0.0507 -0.2616  0.1644
 3492DOPC   C3B40980  27.275  31.237  10.760  0.3337  0.1046  0.1786
 3492DOPC   C4B40981  27.320  30.796  10.877 -0.2590  0.3270  0.3874
 3493DOPE   NH340982  24.402  31.830   9.708  0.2021  0.1729  0.3523
 3493DOPE   PO440983  24.167  31.678   9.862  0.0207  0.3441 -0.0580
 3493DOPE   GL140984  24.298  31.590  10.145 -0.2146 -0.0561  0.3703
 3493DOPE   GL240985  24.408  31.290  10.192 -0.1693  0.0061  0.3545
 3493DOPE   C1A40986  24.188  31.674  10.616  0.2260 -0.0285  0.0680
 3493DOPE   D2A40987  24.131  31.766  11.053  0.0270 -0.2026 -0.1453
 3493DOPE   C3A40988  23.748  31.686  11.358  0.0023  0.0657  0.0410
 3493DOPE   C4A40989  23.668  31.976  11.745  0.2520  0.0478  0.0675
 3493DOPE   C1B40990  24.409  31.258  10.597 -0.1191  0.0611 -0.3189
 3493DOPE   D2B40991  24.574  30.908  10.887  0.1609  0.0567 -0.1372
 3493DOPE   C3B40992  24.653  30.481  10.754 -0.0229 -0.0135  0.0768
 3493DOPE   C4B40993  24.406  30.122  10.554  0.0999  0.2293 -0.2043
 3494POSM   NC340994  31.452  29.932   9.905 -0.0563 -0.2336  0.1443
 3494POSM   PO440995  31.120  29.862   9.717  0.0888 -0.1423 -0.2054
 3494POSM   AM140996  30.994  29.932  10.002 -0.4227 -0.0408  0.1155
 3494POSM   AM240997  30.788  29.993  10.189 -0.0262 -0.0784 -0.0640
 3494POSM   T1A40998  31.167  29.819  10.459  0.0757  0.1646 -0.0212
 3494POSM   C2A40999  31.555  29.715  10.740 -0.1975 -0.0848  0.0885
 3494POSM   C3A41000  31.731  29.763  11.167 -0.0840 -0.4712 -0.1693
 3494POSM   C1B41001  30.744  30.153  10.529 -0.0634  0.0737  0.2154
 3494POSM   D2B41002  30.867  30.333  10.922  0.2719 -0.1751 -0.2046
 3494POSM   C3B41003  30.776  30.832  10.875 -0.1599 -0.0394  0.2236
 3494POSM   C4B41004  30.779  31.202  11.079 -0.0218 -0.1063 -0.0124
 3495DOPC   NC341005  31.891  33.005  11.353 -0.3284 -0.2622 -0.2707
 3495DOPC   PO441006  32.128  32.830  11.073  0.0093 -0.1234  0.2249
 3495DOPC   GL141007  32.264  32.763  11.448  0.0876  0.3423 -0.4629
 3495DOPC   GL241008  32.442  32.942  11.454 -0.2400  0.2221 -0.0791
 3495DOPC   C1A41009  32.005  32.825  11.828  0.1534  0.1594  0.1096
 3495DOPC   D2A41010  31.677  32.631  12.103  0.0133 -0.0973  0.1199
 3495DOPC   C3A41011  31.762  32.860  12.554 -0.1395  0.3632 -0.0267
 3495DOPC   C4A41012  31.978  32.966  12.907 -0.1084 -0.0647 -0.2315
 3495DOPC   C1B41013  32.532  32.854  11.917 -0.0599  0.1651 -0.1459
 3495DOPC   D2B41014  32.245  32.650  12.254  0.2296 -0.0515 -0.0076
 3495DOPC   C3B41015  32.253  32.203  12.413 -0.0153 -0.2807 -0.2497
 3495DOPC   C4B41016  32.505  31.934  12.698  0.3945  0.0557  0.3134
 3496POSM   NC341017  32.952   0.120  11.195 -0.1926  0.0391  0.0610
 3496POSM   PO441018  32.619  -0.062  11.119  0.0505 -0.1179 -0.1389
 3496POSM   AM141019  32.597  -0.113  11.460  0.7295 -0.3113  0.0267
 3496POSM   AM241020  32.760  -0.222  11.660  0.0134  0.2588  0.0262
 3496POSM   T1A41021  32.360  -0.145  11.923 -0.2601 -0.1483 -0.0116
 3496POSM   C2A41022  32.150  -0.370  12.231  0.0935 -0.3180 -0.1893
 3496POSM   C3A41023  31.901  -0.097  12.517  0.1602 -0.0705  0.0370
 3496POSM   C1B41024  32.833  -0.208  11.994 -0.1278 -0.0024  0.1695
 3496POSM   D2B41025  32.602  -0.207  12.405  0.0912 -0.0260 -0.0175
 3496POSM   C3B41026  32.386   0.085  12.651 -0.3162  0.1864  0.2205
 3496POSM   C4B41027  32.367   0.324  13.066  0.1408  0.0388 -0.2651
 3497DOPE   NH341028  30.199  24.540   9.584  0.2601  0.0318 -0.1302
 3497DOPE   PO441029  29.928  24.610   9.774  0.3269  0.0584  0.2095
 3497DOPE   GL141030  29.765  24.424  10.030  0.1262  0.2850  0.5384
 3497DOPE   GL241031  29.654  24.659  10.172  0.1320  0.0366 -0.1071
 3497DOPE   C1A41032  29.302  24.355  10.046  0.2129 -0.1130 -0.2406
 3497DOPE   D2A41033  28.927  24.235  10.368 -0.1138 -0.2235 -0.2410
 3497DOPE   C3A41034  28.982  24.353  10.776 -0.1692  0.0282  0.0854
 3497DOPE   C4A41035  28.855  24.808  10.889 -0.2434 -0.2650  0.0231
 3497DOPE   C1B41036  29.714  24.455  10.574  0.1631 -0.1067  0.1558
 3497DOPE   D2B41037  29.651  23.997  10.549 -0.1725 -0.0258  0.0727
 3497DOPE   C3B41038  29.664  23.816  10.940  0.1983 -0.2681  0.0253
 3497DOPE   C4B41039  29.650  23.601  11.341  0.2347 -0.2684  0.5013
 3498DOPC   NC341040  33.475  29.526  10.383 -0.1090 -0.0053  0.0284
 3498DOPC   PO441041  33.744  29.271  10.289 -0.0667  0.1412 -0.2755
 3498DOPC   GL141042  33.815  29.222  10.608 -0.1549  0.1399 -0.0379
 3498DOPC   GL241043  33.540  28.995  10.626 -0.0713 -0.1295 -0.0589
 3498DOPC   C1A41044  34.059  29.063  10.978  0.1473 -0.0794 -0.1619
 3498DOPC   D2A41045  34.407  28.926  11.262 -0.0498  0.1279  0.1658
 3498DOPC   C3A41046  34.449  29.068  11.653  0.1606  0.3570 -0.1777
 3498DOPC   C4A41047  34.246  29.251  11.953 -0.1557 -0.1661 -0.0854
 3498DOPC   C1B41048  33.568  29.222  11.042  0.0698 -0.1557  0.0748
 3498DOPC   D2B41049  33.401  29.549  11.330  0.2130 -0.1271  0.1496
 3498DOPC   C3B41050  33.256  29.379  11.730 -0.3424 -0.1179  0.1489
 3498DOPC   C4B41051  33.372  29.183  12.147 -0.1344  0.2796  0.0312
 3499DOPE   NH341052   1.668  25.557  10.828  0.2816 -0.2865  0.0580
 3499DOPE   PO441053   1.927  25.420  10.753  0.0453 -0.0783 -0.3127
 3499DOPE   GL141054   2.036  25.384  11.111 -0.0945 -0.1196  0.0095
 3499DOPE   GL241055   1.889  25.106  11.166  0.2111  0.1153 -0.2316
 3499DOPE   C1A41056   1.879  25.585  11.485  0.2435  0.0397  0.1723
 3499DOPE   D2A41057   1.742  25.878  11.788  0.1076 -0.0193  0.2623
 3499DOPE   C3A41058   1.858  25.845  12.208 -0.1610  0.0265  0.1235
 3499DOPE   C4A41059   1.986  25.612  12.624  0.0483  0.1210  0.0136
 3499DOPE   C1B41060   2.065  25.060  11.619 -0.3304 -0.0400 -0.0233
 3499DOPE   D2B41061   2.291  24.961  12.016  0.1676  0.3049  0.1282
 3499DOPE   C3B41062   2.442  25.332  12.294 -0.1817 -0.1883  0.2732
 3499DOPE   C4B41063   2.468  25.392  12.761 -0.0971  0.0028  0.1571
 3500POSM   NC341064  23.814  28.071   8.623 -0.0748  0.3723  0.2328
 3500POSM   PO441065  24.176  28.086   8.581  0.0414 -0.1278  0.1849
 3500POSM   AM141066  24.322  28.314   8.796 -0.1733  0.3407 -0.1975
 3500POSM   AM241067  24.553  28.332   8.945 -0.0476  0.2501 -0.1922
 3500POSM   T1A41068  24.147  28.533   9.220  0.0188  0.1276 -0.1922
 3500POSM   C2A41069  24.107  28.801   9.630  0.0534 -0.0068  0.0186
 3500POSM   C3A41070  24.319  29.184   9.704 -0.2869  0.0098  0.1707
 3500POSM   C1B41071  24.676  28.193   9.246 -0.1761 -0.2050 -0.0038
 3500POSM   D2B41072  24.680  28.093   9.669  0.0745 -0.2017  0.1687
 3500POSM   C3B41073  24.764  28.298  10.039 -0.1214  0.4458 -0.1937
 3500POSM   C4B41074  24.564  28.380  10.435 -0.2635 -0.2177 -0.3277
 3501DOPC   NC341075  31.298  31.606  10.649 -0.1307  0.2564 -0.0425
 3501DOPC   PO441076  31.682  31.658  10.612  0.0690 -0.1676  0.1591
 3501DOPC   GL141077  31.763  31.261  10.928  0.0159 -0.0401  0.0696
 3501DOPC   GL241078  32.051  31.084  10.955 -0.5939 -0.2818 -0.1395
 3501DOPC   C1A41079  31.677  31.115  11.322 -0.1439  0.0951  0.0336
 3501DOPC   D2A41080  31.579  30.729  11.489  0.0362  0.1190  0.1353
 3501DOPC   C3A41081  31.255  30.775  11.818 -0.1603  0.0470 -0.2340
 3501DOPC   C4A41082  30.859  30.727  11.999  0.1637 -0.0204  0.1480
 3501DOPC   C1B41083  32.163  30.994  11.460  0.0661  0.2475  0.0864
 3501DOPC   D2B41084  31.906  30.876  11.855 -0.0583 -0.0244  0.0915
 3501DOPC   C3B41085  32.058  30.565  12.098 -0.0571  0.2819 -0.0438
 3501DOPC   C4B41086  32.464  30.549  12.239  0.0630  0.0499 -0.1148
 3502POSM   NC341087  30.348  26.699   9.799  0.1231 -0.3197  0.1826
 3502POSM   PO441088  30.251  27.106   9.783  0.1240  0.2872  0.0504
 3502POSM   AM141089  30.212  27.272  10.070  0.2879  0.2662 -0.2066
 3502POSM   AM241090  30.028  27.398  10.249  0.0393  0.3246  0.2360
 3502POSM   T1A41091  30.461  27.254  10.495 -0.0885  0.1991 -0.2180
 3502POSM   C2A41092  30.480  26.914  10.792  0.2566 -0.0748 -0.2626
 3502POSM   C3A41093  30.469  26.560  11.087  0.0862 -0.4094  0.0337
 3502POSM   C1B41094  29.971  27.476  10.545 -0.3302 -0.1876 -0.0950
 3502POSM   D2B41095  29.884  27.640  10.966 -0.0972 -0.1831  0.2359
 3502POSM   C3B41096  29.718  27.364  11.279  0.2314  0.0562 -0.0444
 3502POSM   C4B41097  29.835  26.916  11.347  0.1099 -0.0223  0.1967
 3503POSM   NC341098  24.205  29.003   8.253  0.1670  0.3052 -0.0160
 3503POSM   PO441099  23.963  28.917   8.582 -0.0936 -0.1141 -0.4123
 3503POSM   AM141100  24.041  29.074   8.922 -0.0450 -0.3835 -0.1426
 3503POSM   AM241101  23.988  29.023   9.185  0.1495  0.0008 -0.5207
 3503POSM   T1A41102  24.245  29.434   9.236 -0.2878 -0.0011 -0.3841
 3503POSM   C2A41103  24.290  29.821   9.456 -0.0095 -0.3982  0.0740
 3503POSM   C3A41104  24.376  30.004   9.849  0.0986  0.2427 -0.0222
 3503POSM   C1B41105  23.859  29.182   9.387 -0.3690  0.0948  0.1402
 3503POSM   D2B41106  23.655  29.271   9.784 -0.1045 -0.1580 -0.0527
 3503POSM   C3B41107  23.831  29.070  10.171 -0.0656 -0.1568  0.0416
 3503POSM   C4B41108  23.921  29.306  10.554  0.1510  0.1735  0.2268
 3504DOPC   NC341109  27.932  23.929   9.791 -0.1898 -0.0677  0.0404
 3504DOPC   PO441110  27.670  24.130   9.606  0.2342 -0.1979 -0.0312
 3504DOPC   GL141111  27.487  24.254   9.918  0.1350  0.6409  0.0458
 3504DOPC   GL241112  27.442  24.025  10.141 -0.1019  0.1936  0.2929
 3504DOPC   C1A41113  27.156  24.563  10.115 -0.0733 -0.2175  0.0693
 3504DOPC   D2A41114  26.922  24.572  10.558 -0.3589  0.0241 -0.0634
 3504DOPC   C3A41115  26.660  24.895  10.789  0.1795  0.0550 -0.3772
 3504DOPC   C4A41116  26.462  25.249  11.042 -0.0681  0.0832 -0.1290
 3504DOPC   C1B41117  27.447  24.301  10.498 -0.0346 -0.2158  0.2483
 3504DOPC   D2B41118  27.686  24.407  10.885  0.0083 -0.1487  0.0975
 3504DOPC   C3B41119  27.923  24.740  11.180  0.1573 -0.0501 -0.0012
 3504DOPC   C4B41120  28.244  24.737  11.486 -0.1851  0.2889 -0.4104
 3505DOPE   NH341121  25.382  24.273   8.449  0.0159 -0.1192 -0.1818
 3505DOPE   PO441122  25.712  24.351   8.582 -0.1229 -0.0941 -0.4024
 3505DOPE   GL141123  25.753  24.401   8.945 -0.1325  0.1182 -0.2157
 3505DOPE   GL241124  25.961  24.668   9.123  0.0267 -0.2195  0.0055
 3505DOPE   C1A41125  25.920  24.200   9.308  0.2301 -0.2063 -0.0984
 3505DOPE   D2A41126  26.042  24.042   9.690  0.2460 -0.3118 -0.1662
 3505DOPE   C3A41127  25.749  23.971  10.082  0.1579  0.3004  0.1383
 3505DOPE   C4A41128  25.481  24.157  10.427  0.1216 -0.0319  0.1209
 3505DOPE   C1B41129  25.971  24.687   9.571  0.0991 -0.1707 -0.1785
 3505DOPE   D2B41130  25.784  24.458   9.951 -0.0745  0.1407 -0.0764
 3505DOPE   C3B41131  25.363  24.410  10.046  0.4311  0.1134 -0.2177
 3505DOPE   C4B41132  25.043  24.503  10.350  0.0203  0.1144  0.2019
 3506POSM   NC341133  28.018   0.933  10.312 -0.0619  0.0238  0.3004
 3506POSM   PO441134  27.863   1.283  10.411 -0.3826  0.1511 -0.3341
 3506POSM   AM141135  27.740   1.439  10.665  0.1015  0.1007 -0.0819
 3506POSM   AM241136  27.744   1.764  10.777 -0.1900 -0.0685  0.0566
 3506POSM   T1A41137  27.386   1.497  11.020  0.0716 -0.0113 -0.1529
 3506POSM   C2A41138  27.066   1.520  11.369  0.1969 -0.2805  0.1678
 3506POSM   C3A41139  26.936   1.850  11.717  0.1928  0.1196 -0.3070
 3506POSM   C1B41140  27.772   1.774  11.099  0.1063 -0.0402  0.1582
 3506POSM   D2B41141  27.786   1.789  11.551 -0.0030  0.0296 -0.0579
 3506POSM   C3B41142  27.802   1.635  12.000 -0.4196  0.0492  0.0273
 3506POSM   C4B41143  27.725   1.717  12.424 -0.1147  0.2011  0.0605
 3507POSM   NC341144  25.643  26.501   8.824 -0.1337 -0.3129 -0.2022
 3507POSM   PO441145  25.804  26.817   8.791 -0.0151  0.2225  0.0954
 3507POSM   AM141146  25.911  26.778   9.073 -0.2071 -0.0472 -0.1187
 3507POSM   AM241147  25.776  26.670   9.319  0.1366  0.3732 -0.0115
 3507POSM   T1A41148  25.948  27.123   9.425  0.0462 -0.0111 -0.0361
 3507POSM   C2A41149  26.204  27.289   9.787 -0.2403 -0.1539 -0.0553
 3507POSM   C3A41150  26.245  27.575  10.181  0.3622 -0.1221 -0.0243
 3507POSM   C1B41151  25.822  26.389   9.485  0.0845  0.1857  0.1870
 3507POSM   D2B41152  26.063  26.137   9.696 -0.2789  0.2090  0.3318
 3507POSM   C3B41153  26.302  26.118  10.128  0.0480 -0.4309  0.1217
 3507POSM   C4B41154  26.623  26.114  10.420  0.1273 -0.5394 -0.2662
 3508DOPS   CNO41155  32.205  30.171  10.351 -0.2822 -0.1430 -0.2300
 3508DOPS   PO441156  32.183  29.801  10.217 -0.1062 -0.1535  0.1431
 3508DOPS   GL141157  32.062  29.708  10.653  0.3092  0.1005 -0.1438
 3508DOPS   GL241158  32.062  29.460  10.896 -0.0031  0.1680 -0.1171
 3508DOPS   C1A41159  31.862  30.112  10.852 -0.1424  0.1123 -0.0757
 3508DOPS   D2A41160  31.831  30.290  11.314 -0.4088  0.0317  0.1189
 3508DOPS   C3A41161  31.812  29.982  11.671 -0.0119 -0.0179  0.1272
 3508DOPS   C4A41162  32.104  29.674  11.834  0.1716 -0.1735 -0.1279
 3508DOPS   C1B41163  32.161  29.424  11.341  0.2686  0.0569 -0.3257
 3508DOPS   D2B41164  32.268  29.091  11.624  0.3720  0.1569  0.2407
 3508DOPS   C3B41165  32.209  29.236  12.036 -0.3336 -0.0447  0.0997
 3508DOPS   C4B41166  32.447  29.352  12.439 -0.0083 -0.0820 -0.1904
 3509DOPC   NC341167  25.099  30.664   9.821 -0.0079 -0.0777 -0.0239
 3509DOPC   PO441168  25.197  31.000   9.651 -0.1630 -0.4443  0.1624
 3509DOPC   GL141169  25.327  31.186   9.987  0.0730  0.3188 -0.3899
 3509DOPC   GL241170  25.315  30.966  10.171  0.0451  0.5389 -0.1516
 3509DOPC   C1A41171  25.322  31.410  10.396  0.0180 -0.3756  0.2009
 3509DOPC   D2A41172  25.359  31.501  10.843 -0.0167 -0.1664 -0.1144
 3509DOPC   C3A41173  25.495  31.479  11.283  0.2707  0.2048 -0.2036
 3509DOPC   C4A41174  25.468  31.791  11.622  0.0478  0.2383 -0.0478
 3509DOPC   C1B41175  25.352  31.008  10.597 -0.3705  0.0134  0.1146
 3509DOPC   D2B41176  25.356  30.737  10.956 -0.0294 -0.2025  0.1467
 3509DOPC   C3B41177  24.950  30.681  11.132 -0.2311 -0.1031  0.0263
 3509DOPC   C4B41178  24.558  30.526  11.253  0.0008 -0.2910  0.1602
 3510POSM   NC341179  23.498  28.942   8.796  0.1109 -0.2286  0.2288
 3510POSM   PO441180  23.175  28.763   8.661  0.4375 -0.1747 -0.3545
 3510POSM   AM141181  23.152  28.742   9.015 -0.1463 -0.3853 -0.3096
 3510POSM   AM241182  23.017  28.827   9.284  0.0571  0.1070  0.0435
 3510POSM   T1A41183  23.182  28.382   9.397  0.0063 -0.1923  0.0940
 3510POSM   C2A41184  23.354  28.126   9.770  0.4058 -0.3572 -0.0122
 3510POSM   C3A41185  23.721  28.060   9.949 -0.3236  0.2665  0.0948
 3510POSM   C1B41186  23.093  28.911   9.627 -0.0198  0.0835  0.1624
 3510POSM   D2B41187  23.351  28.864   9.891  0.0595 -0.1532 -0.0393
 3510POSM   C3B41188  23.428  28.781  10.361  0.0504 -0.2246 -0.1066
 3510POSM   C4B41189  23.696  28.911  10.694  0.0880 -0.3124  0.0266
 3511DOPE   NH341190  28.501  26.085   9.037 -0.0361 -0.2262 -0.2847
 3511DOPE   PO441191  28.506  25.840   9.177 -0.0067 -0.1600  0.0438
 3511DOPE   GL141192  28.506  26.000   9.550 -0.1703  0.4070  0.2175
 3511DOPE   GL241193  28.272  26.127   9.515  0.0483  0.0470  0.0436
 3511DOPE   C1A41194  28.468  25.847   9.960 -0.3387 -0.1597  0.2768
 3511DOPE   D2A41195  28.557  26.043  10.415 -0.0920  0.1355  0.0999
 3511DOPE   C3A41196  28.785  25.689  10.633  0.0780  0.3854  0.0388
 3511DOPE   C4A41197  28.927  25.679  11.111 -0.1947 -0.3709  0.2270
 3511DOPE   C1B41198  27.921  25.951   9.730  0.1162  0.1669 -0.0943
 3511DOPE   D2B41199  28.007  25.795  10.185  0.0471 -0.2645  0.0627
 3511DOPE   C3B41200  28.077  25.870  10.644  0.1063 -0.1069 -0.0371
 3511DOPE   C4B41201  28.379  25.710  10.936 -0.1510 -0.0799 -0.2000
 3512POSM   NC341202  23.799  32.579   9.720 -0.0009 -0.1079  0.0409
 3512POSM   PO441203  24.048  32.863   9.824  0.2254 -0.1321 -0.1825
 3512POSM   AM141204  24.091  32.705  10.105 -0.1936 -0.3159 -0.2559
 3512POSM   AM241205  23.966  32.763  10.317  0.2830 -0.1212  0.0703
 3512POSM   T1A41206  24.301  32.441  10.470  0.1201 -0.0673 -0.1096
 3512POSM   C2A41207  24.133  32.201  10.843  0.0860  0.2194  0.3640
 3512POSM   C3A41208  23.799  32.146  11.183  0.0279  0.2835  0.4784
 3512POSM   C1B41209  24.118  32.939  10.585 -0.0244 -0.0716  0.0085
 3512POSM   D2B41210  24.100  33.008  11.031  0.1116 -0.0397  0.3754
 3512POSM   C3B41211  23.938  33.386  11.091 -0.3930 -0.0678  0.0154
 3512POSM   C4B41212  23.809  33.660  11.386  0.2089 -0.0665  0.2269
 3513POSM   NC341213  27.124  31.096   9.571  0.1567 -0.0245 -0.0624
 3513POSM   PO441214  26.989  31.460   9.628 -0.0867  0.1501  0.5537
 3513POSM   AM141215  26.979  31.381   9.924 -0.0176 -0.0510  0.0925
 3513POSM   AM241216  26.994  31.191  10.121 -0.0291  0.1014 -0.0751
 3513POSM   T1A41217  27.210  31.585  10.318 -0.0000 -0.1300 -0.0550
 3513POSM   C2A41218  27.057  31.822  10.727 -0.0334  0.0529 -0.2210
 3513POSM   C3A41219  27.259  31.978  11.121  0.1257 -0.1095  0.2185
 3513POSM   C1B41220  26.818  31.299  10.418  0.2147 -0.2383 -0.0084
 3513POSM   D2B41221  26.738  31.460  10.861  0.1259 -0.3604 -0.3123
 3513POSM   C3B41222  27.064  31.495  11.155  0.0127 -0.0073  0.2137
 3513POSM   C4B41223  27.515  31.564  11.284 -0.3413  0.3440 -0.2198
 3514POSM   NC341224  26.485  30.578   9.491 -0.1555 -0.0059  0.1849
 3514POSM   PO441225  26.237  30.270   9.594  0.0864 -0.1581  0.0937
 3514POSM   AM141226  26.239  30.114   9.854 -0.0136 -0.2611 -0.1193
 3514POSM   AM241227  26.297  30.116  10.165 -0.0336 -0.4072 -0.0744
 3514POSM   T1A41228  26.068  29.696  10.042  0.1528  0.0594 -0.2112
 3514POSM   C2A41229  26.054  29.308  10.238 -0.0461  0.2029 -0.0628
 3514POSM   C3A41230  25.770  29.120  10.554  0.2086  0.1219 -0.1688
 3514POSM   C1B41231  26.377  30.200  10.490  0.0854 -0.0746  0.0494
 3514POSM   D2B41232  26.510  30.327  10.887  0.0791 -0.0085 -0.2666
 3514POSM   C3B41233  26.277  30.378  11.291  0.3897  0.0913  0.0931
 3514POSM   C4B41234  26.155  30.066  11.658 -0.1872  0.0556  0.2445
 3515DOPS   CNO41235  33.769  29.904  10.127  0.1392  0.0435  0.1761
 3515DOPS   PO441236  33.550  30.218  10.111 -0.0296  0.4076 -0.0567
 3515DOPS   GL141237  33.483  30.000  10.454 -0.1802  0.1060  0.2519
 3515DOPS   GL241238  33.185  29.975  10.456  0.0665 -0.1933  0.1505
 3515DOPS   C1A41239  33.500  29.856  10.883  0.1553  0.0025 -0.2481
 3515DOPS   D2A41240  33.411  30.088  11.263  0.0834  0.0412  0.2516
 3515DOPS   C3A41241  33.655  29.978  11.633  0.1150 -0.1635 -0.0169
 3515DOPS   C4A41242  33.716  30.292  11.968 -0.0715  0.1166 -0.0148
 3515DOPS   C1B41243  33.037  30.115  10.944 -0.0266  0.0356  0.0758
 3515DOPS   D2B41244  32.778  30.079  11.307  0.0500 -0.2187 -0.0073
 3515DOPS   C3B41245  32.653  29.731  11.607 -0.2061 -0.3145  0.0357
 3515DOPS   C4B41246  32.702  29.346  11.865  0.3028 -0.0883  0.1703
 3516POSM   NC341247  30.560  27.452   9.806  0.0894  0.2231  0.1413
 3516POSM   PO441248  30.471  27.830   9.650  0.0991  0.0648  0.1123
 3516POSM   AM141249  30.396  27.868   9.981  0.1944  0.0918 -0.2179
 3516POSM   AM241250  30.507  27.718  10.226 -0.0473  0.0789 -0.0704
 3516POSM   T1A41251  30.084  28.128  10.284 -0.1759  0.1183  0.1457
 3516POSM   C2A41252  30.040  28.200  10.714  0.2705 -0.0348 -0.1666
 3516POSM   C3A41253  29.985  28.130  11.172 -0.0236 -0.3816  0.1311
 3516POSM   C1B41254  30.404  27.704  10.590  0.1326  0.4039 -0.0678
 3516POSM   D2B41255  30.432  27.776  11.037 -0.1850 -0.0004 -0.0437
 3516POSM   C3B41256  30.636  27.619  11.432  0.0310 -0.0383  0.2845
 3516POSM   C4B41257  31.014  27.621  11.718  0.0136  0.3200  0.1187
 3517DOPE   NH341258  34.472  27.725  10.604  0.2705 -0.1126 -0.0653
 3517DOPE   PO441259  34.598  28.048  10.589  0.1977  0.2458  0.1574
 3517DOPE   GL141260  34.471  28.032  10.960  0.1213  0.1727  0.1072
 3517DOPE   GL241261  34.350  28.320  10.964 -0.1500 -0.1751  0.1347
 3517DOPE   C1A41262  34.484  27.884  11.366  0.0265 -0.1693 -0.4727
 3517DOPE   D2A41263  34.692  27.546  11.597  0.2435 -0.0740 -0.2898
 3517DOPE   C3A41264  34.369  27.459  11.855 -0.0545  0.1041 -0.0504
 3517DOPE   C4A41265  34.150  27.892  11.919 -0.0453 -0.0882  0.0013
 3517DOPE   C1B41266  34.064  28.565  11.191  0.1587  0.0762 -0.0036
 3517DOPE   D2B41267  33.966  28.917  11.546  0.0886 -0.2673 -0.1720
 3517DOPE   C3B41268  33.510  28.982  11.513 -0.0294  0.0055 -0.3908
 3517DOPE   C4B41269  33.125  28.932  11.773 -0.1068 -0.1318  0.1425
 3518DOPE   NH341270  33.770   0.509  11.895  0.2298  0.4390  0.3053
 3518DOPE   PO441271  33.714   0.827  11.840  0.0482  0.0114 -0.0137
 3518DOPE   GL141272  33.792   0.836  12.240  0.1532 -0.1944  0.5709
 3518DOPE   GL241273  33.654   1.113  12.313 -0.3133 -0.2227 -0.0549
 3518DOPE   C1A41274  33.821   0.482  12.589  0.0845  0.0792  0.1071
 3518DOPE   D2A41275  33.963   0.273  12.981 -0.1609  0.0723  0.0823
 3518DOPE   C3A41276  33.805  -0.041  13.329  0.3704 -0.4469 -0.3670
 3518DOPE   C4A41277  33.491  -0.319  13.483 -0.1219 -0.0030  0.0086
 3518DOPE   C1B41278  33.337   1.084  12.596  0.0285 -0.1968  0.0396
 3518DOPE   D2B41279  33.170   1.129  13.074 -0.2426  0.0028 -0.1481
 3518DOPE   C3B41280  32.793   1.342  13.205  0.4420 -0.1045 -0.0979
 3518DOPE   C4B41281  32.744   1.406  13.645 -0.0371  0.3003 -0.1317
 3519DOPE   NH341282  27.336  32.520   9.953 -0.0161 -0.1284  0.0068
 3519DOPE   PO441283  27.455  32.384  10.232 -0.0924 -0.4809  0.0577
 3519DOPE   GL141284  27.508  32.502  10.550  0.3300  0.1563  0.1588
 3519DOPE   GL241285  27.355  32.207  10.663  0.0366  0.1532 -0.0874
 3519DOPE   C1A41286  27.793  32.701  10.778 -0.1801  0.0202 -0.3454
 3519DOPE   D2A41287  27.654  32.832  11.236 -0.0406 -0.0898  0.3730
 3519DOPE   C3A41288  27.986  32.915  11.580 -0.0034  0.2683  0.1507
 3519DOPE   C4A41289  28.265  33.141  11.825 -0.0535 -0.1255 -0.2361
 3519DOPE   C1B41290  27.537  32.385  11.079 -0.0040  0.0763  0.2352
 3519DOPE   D2B41291  27.502  32.378  11.552  0.1773 -0.2069 -0.0683
 3519DOPE   C3B41292  27.523  32.815  11.766  0.0677  0.2571 -0.1402
 3519DOPE   C4B41293  27.864  32.976  12.038 -0.0604  0.0063 -0.1193
 3520DOPE   NH341294  21.500  26.586   9.062  0.1807 -0.3535 -0.0571
 3520DOPE   PO441295  21.673  26.812   8.885 -0.0634  0.2220  0.2746
 3520DOPE   GL141296  21.978  26.609   9.159  0.1231  0.1224  0.2496
 3520DOPE   GL241297  22.102  26.762   9.335  0.0971  0.1629  0.2239
 3520DOPE   C1A41298  22.182  26.230   9.294 -0.1366  0.0217 -0.1485
 3520DOPE   D2A41299  22.415  25.984   9.639  0.1609  0.1652  0.0201
 3520DOPE   C3A41300  22.213  25.579   9.846 -0.2317  0.2855  0.0266
 3520DOPE   C4A41301  22.140  25.342  10.212  0.0197  0.1723 -0.0859
 3520DOPE   C1B41302  22.526  26.611   9.607  0.0052  0.0985  0.2038
 3520DOPE   D2B41303  22.893  26.519   9.887  0.3089 -0.1206  0.0044
 3520DOPE   C3B41304  22.819  26.428  10.303 -0.1514  0.4493  0.1273
 3520DOPE   C4B41305  22.822  25.989  10.427  0.2177 -0.2982  0.0665
 3521POSM   NC341306  23.023  27.457   8.531 -0.1534 -0.2194  0.3081
 3521POSM   PO441307  23.317  27.223   8.462  0.3132  0.1254 -0.1071
 3521POSM   AM141308  23.372  27.269   8.777  0.1087  0.3951  0.0584
 3521POSM   AM241309  23.260  27.376   9.034  0.0133  0.0249  0.0041
 3521POSM   T1A41310  23.689  27.074   9.075 -0.1929 -0.1359  0.0909
 3521POSM   C2A41311  23.872  27.207   9.501  0.0292 -0.2614  0.1139
 3521POSM   C3A41312  24.076  27.093   9.853 -0.0977 -0.1663 -0.0294
 3521POSM   C1B41313  23.024  27.444   9.305 -0.2769 -0.0716 -0.2325
 3521POSM   D2B41314  23.046  27.718   9.712 -0.2257 -0.1129 -0.0824
 3521POSM   C3B41315  22.717  27.982   9.834 -0.1696 -0.1156  0.1636
 3521POSM   C4B41316  22.526  28.197  10.226  0.3465 -0.1273 -0.0178
 3522DOPC   NC341317   1.933  31.226  10.549  0.2265  0.1983  0.0742
 3522DOPC   PO441318   1.694  31.533  10.613  0.1006 -0.0681  0.1759
 3522DOPC   GL141319   1.595  31.747  10.937  0.0188  0.1618 -0.1772
 3522DOPC   GL241320   1.545  31.542  11.127 -0.1003  0.2064  0.3362
 3522DOPC   C1A41321   1.428  32.051  11.257 -0.0138 -0.0069 -0.2346
 3522DOPC   D2A41322   1.300  32.255  11.679 -0.0595  0.0438  0.0515
 3522DOPC   C3A41323   1.417  32.235  12.119  0.0216 -0.1573  0.0058
 3522DOPC   C4A41324   1.402  32.207  12.539  0.1852 -0.2428 -0.0516
 3522DOPC   C1B41325   1.621  31.444  11.581 -0.2048 -0.3838 -0.3305
 3522DOPC   D2B41326   1.871  31.334  11.968 -0.2342  0.0612 -0.0653
 3522DOPC   C3B41327   2.179  31.598  12.266 -0.0333 -0.2271 -0.0806
 3522DOPC   C4B41328   2.563  31.827  12.506 -0.0438  0.2188 -0.4705
 3523DOPC   NC341329  29.859  33.171  10.990  0.0629 -0.1888 -0.2645
 3523DOPC   PO441330  29.773  33.538  10.985  0.0575  0.0569 -0.0150
 3523DOPC   GL141331  29.692  33.587  11.335  0.3599 -0.3314  0.0357
 3523DOPC   GL241332  29.644  33.294  11.419 -0.0638 -0.0170  0.0917
 3523DOPC   C1A41333  29.972  33.606  11.718 -0.1183  0.4341  0.1371
 3523DOPC   D2A41334  29.985  33.474  12.196 -0.0197 -0.1428 -0.0314
 3523DOPC   C3A41335  30.057  33.184  12.475 -0.0702  0.0141  0.2141
 3523DOPC   C4A41336  30.053  32.709  12.663 -0.0955  0.0597  0.2465
 3523DOPC   C1B41337  29.888  33.045  11.697  0.1020  0.1267 -0.3377
 3523DOPC   D2B41338  30.200  32.808  11.971  0.1866  0.0643  0.0817
 3523DOPC   C3B41339  30.061  32.447  12.197  0.1213  0.2632  0.0544
 3523DOPC   C4B41340  30.019  31.970  12.137 -0.1421  0.2036 -0.1391
 3524POSM   NC341341  25.436  29.432   8.586 -0.3368  0.1088 -0.2331
 3524POSM   PO441342  25.494  29.264   8.970  0.0591  0.3176 -0.0110
 3524POSM   AM141343  25.395  29.278   9.289 -0.0217 -0.0013 -0.5384
 3524POSM   AM241344  25.219  29.466   9.460 -0.1710  0.0253  0.1016
 3524POSM   T1A41345  25.388  28.993   9.694  0.0062  0.2153  0.2868
 3524POSM   C2A41346  25.112  28.658   9.933 -0.0640 -0.2612 -0.0595
 3524POSM   C3A41347  25.236  28.494  10.292 -0.0806 -0.0573 -0.0178
 3524POSM   C1B41348  25.255  29.545   9.785 -0.1530 -0.0663 -0.2336
 3524POSM   D2B41349  25.184  29.618  10.264  0.0112  0.1408  0.1431
 3524POSM   C3B41350  25.362  29.454  10.671  0.1497 -0.2696 -0.0864
 3524POSM   C4B41351  25.606  29.187  11.016 -0.1845 -0.0984  0.0879
 3525POSM   NC341352  34.199  30.289  10.176  0.3662  0.0382 -0.2488
 3525POSM   PO441353  34.266  29.961  10.011 -0.0886  0.0782 -0.1218
 3525POSM   AM141354  34.196  29.853  10.337  0.4279 -0.0496  0.0869
 3525POSM   AM241355  34.155  29.594  10.482  0.0660 -0.0474  0.5876
 3525POSM   T1A41356  34.295  30.022  10.781 -0.1008 -0.1078 -0.1276
 3525POSM   C2A41357  34.381  30.207  11.232 -0.3701  0.1400 -0.1526
 3525POSM   C3A41358  34.116  30.269  11.560  0.1029  0.1072  0.1367
 3525POSM   C1B41359  34.040  29.559  10.798  0.1193 -0.5117  0.0642
 3525POSM   D2B41360  33.929  29.792  11.201  0.2149 -0.0300  0.0254
 3525POSM   C3B41361  33.862  30.223  11.024 -0.2151  0.1694  0.0941
 3525POSM   C4B41362  34.051  30.660  11.128  0.0333 -0.1564 -0.0574
 3526DOPS   CNO41363  32.262  26.985  10.145 -0.2336  0.2465  0.1809
 3526DOPS   PO441364  32.657  26.898  10.108  0.1080  0.1031  0.1343
 3526DOPS   GL141365  32.704  26.961  10.533 -0.1056  0.0860  0.4714
 3526DOPS   GL241366  32.496  26.871  10.600 -0.1322  0.2383  0.1237
 3526DOPS   C1A41367  32.790  26.928  10.999 -0.0174  0.1243  0.1244
 3526DOPS   D2A41368  32.658  26.942  11.442 -0.0560 -0.0576 -0.2712
 3526DOPS   C3A41369  32.969  27.254  11.630 -0.2558  0.0926  0.4554
 3526DOPS   C4A41370  33.310  27.531  11.584 -0.0651  0.0056 -0.3464
 3526DOPS   C1B41371  32.172  26.612  10.609  0.0115 -0.2304 -0.1339
 3526DOPS   D2B41372  31.868  26.229  10.541 -0.0214  0.1026 -0.1181
 3526DOPS   C3B41373  31.725  26.304  10.958 -0.0438 -0.1268 -0.0869
 3526DOPS   C4B41374  31.522  26.253  11.388 -0.0537 -0.4759  0.0249
 3527DOPE   NH341375   1.222  31.977  10.629 -0.1494  0.1050 -0.1576
 3527DOPE   PO441376   1.213  32.266  10.729 -0.0020  0.0167  0.1273
 3527DOPE   GL141377   1.018  32.228  11.105  0.5707 -0.2391 -0.0526
 3527DOPE   GL241378   0.730  32.362  11.178 -0.3261 -0.0921 -0.1623
 3527DOPE   C1A41379   0.869  32.069  11.515 -0.1125  0.1465  0.1409
 3527DOPE   D2A41380   0.888  32.108  11.964  0.2139 -0.1407 -0.2485
 3527DOPE   C3A41381   0.957  32.454  12.309  0.2545 -0.2605 -0.2526
 3527DOPE   C4A41382   0.784  32.532  12.687 -0.3490 -0.1843  0.2965
 3527DOPE   C1B41383   0.565  32.482  11.608  0.1384  0.0797 -0.1479
 3527DOPE   D2B41384   0.506  32.558  12.050  0.0681 -0.1060  0.2652
 3527DOPE   C3B41385   0.361  32.336  12.452  0.0516  0.1732  0.2353
 3527DOPE   C4B41386   0.015  32.598  12.695  0.2520 -0.3268  0.0763
 3528DOPC   NC341387  31.111  28.252  10.064 -0.1539 -0.1680 -0.2454
 3528DOPC   PO441388  31.004  28.590   9.913  0.2850 -0.0341 -0.0931
 3528DOPC   GL141389  30.932  28.835  10.251 -0.1045  0.1592 -0.2280
 3528DOPC   GL241390  30.630  28.943  10.233 -0.2391  0.2711 -0.2589
 3528DOPC   C1A41391  30.756  28.823  10.665 -0.3250  0.1197 -0.1747
 3528DOPC   D2A41392  30.710  28.744  11.137  0.0385 -0.0775  0.3270
 3528DOPC   C3A41393  30.443  28.517  11.378 -0.2939  0.5837 -0.1702
 3528DOPC   C4A41394  30.405  28.061  11.470  0.2785  0.1925  0.1006
 3528DOPC   C1B41395  30.229  28.956  10.508 -0.1438 -0.4517 -0.0548
 3528DOPC   D2B41396  29.794  28.799  10.617 -0.1032 -0.0569 -0.0509
 3528DOPC   C3B41397  29.818  28.558  11.003  0.1034 -0.1187  0.0610
 3528DOPC   C4B41398  29.898  28.621  11.457  0.3819  0.0322 -0.2902
 3529DOPC   NC341399  29.722  30.692  10.503  0.1961 -0.1113 -0.1007
 3529DOPC   PO441400  29.738  31.055  10.628  0.0261  0.0722 -0.2147
 3529DOPC   GL141401  29.813  31.003  10.953  0.3186 -0.1678 -0.1182
 3529DOPC   GL241402  29.884  30.696  11.021  0.0500 -0.2550  0.0539
 3529DOPC   C1A41403  29.944  31.018  11.408 -0.2947  0.0809 -0.0986
 3529DOPC   D2A41404  30.211  30.954  11.785 -0.0807  0.2374 -0.0510
 3529DOPC   C3A41405  30.441  30.547  11.840 -0.1606  0.1385 -0.0305
 3529DOPC   C4A41406  30.500  30.071  11.777 -0.1216 -0.0534  0.2153
 3529DOPC   C1B41407  30.128  30.589  11.362  0.1327 -0.1740  0.2494
 3529DOPC   D2B41408  30.042  30.210  11.599 -0.3119 -0.1780 -0.3111
 3529DOPC   C3B41409  30.201  29.805  11.455  0.3196  0.0644  0.2755
 3529DOPC   C4B41410  30.118  29.570  11.039  0.2016 -0.1034 -0.0823
 3530DOPC   NC341411  28.134  33.673  10.103  0.0687  0.0902 -0.1397
 3530DOPC   PO441412  28.236  33.939  10.332  0.0583 -0.2798 -0.0934
 3530DOPC   GL141413  27.929  33.671  10.585  0.0604  0.1115 -0.0806
 3530DOPC   GL241414  27.732  33.679  10.490 -0.0075  0.2713  0.1882
 3530DOPC   C1A41415  27.887  33.590  10.991  0.1838 -0.2988 -0.3769
 3530DOPC   D2A41416  27.658  33.381  11.243 -0.0425 -0.0789 -0.0882
 3530DOPC   C3A41417  27.799  33.335  11.698  0.0302  0.2541  0.0587
 3530DOPC   C4A41418  27.688  33.548  12.113  0.2073  0.0126 -0.1891
 3530DOPC   C1B41419  27.452  33.740  10.865  0.0777 -0.0028  0.2312
 3530DOPC   D2B41420  27.356  33.729  11.318  0.3817 -0.1229  0.1743
 3530DOPC   C3B41421  27.530  33.793  11.705 -0.0989  0.0962  0.1466
 3530DOPC   C4B41422  27.576  34.022  12.111 -0.0188 -0.2985 -0.0512
 3531DOPE   NH341423  31.800  28.032   9.905 -0.1788  0.0883  0.3555
 3531DOPE   PO441424  31.626  28.189  10.102 -0.3717 -0.1975  0.1019
 3531DOPE   GL141425  31.529  28.107  10.459 -0.0097  0.4107 -0.2576
 3531DOPE   GL241426  31.451  28.362  10.534 -0.2396 -0.1307 -0.2861
 3531DOPE   C1A41427  31.401  27.713  10.752 -0.0209 -0.6483  0.0154
 3531DOPE   D2A41428  31.349  27.283  10.728 -0.2965  0.0710  0.0721
 3531DOPE   C3A41429  30.973  27.011  10.704 -0.1240  0.1362  0.3278
 3531DOPE   C4A41430  30.892  26.631  10.487  0.2263 -0.1071 -0.1043
 3531DOPE   C1B41431  31.203  28.179  10.917  0.0403 -0.2331 -0.0733
 3531DOPE   D2B41432  30.967  27.853  11.050 -0.2641  0.3704  0.2424
 3531DOPE   C3B41433  31.132  27.455  11.287 -0.3618 -0.0056  0.2828
 3531DOPE   C4B41434  31.171  27.141  11.619  0.0253 -0.0222  0.1178
 3532DOPC   NC341435  33.196  32.187  11.295 -0.0937 -0.0267  0.2076
 3532DOPC   PO441436  33.027  32.424  11.029  0.0896 -0.1252  0.1437
 3532DOPC   GL141437  32.817  32.622  11.325  0.6013  0.4986  0.2856
 3532DOPC   GL241438  32.826  32.372  11.610 -0.1294  0.1720 -0.0082
 3532DOPC   C1A41439  32.991  32.833  11.759  0.2610 -0.1931 -0.1534
 3532DOPC   D2A41440  32.969  33.053  12.145 -0.0021  0.1488 -0.2382
 3532DOPC   C3A41441  32.628  32.877  12.406 -0.0780  0.0278  0.0237
 3532DOPC   C4A41442  32.444  32.588  12.703 -0.0993 -0.0896 -0.3383
 3532DOPC   C1B41443  33.190  32.438  11.922  0.0682  0.1532 -0.3929
 3532DOPC   D2B41444  33.646  32.291  12.168  0.0434 -0.1284  0.1880
 3532DOPC   C3B41445  33.488  32.215  12.610 -0.0945 -0.1425 -0.0533
 3532DOPC   C4B41446  33.588  31.949  12.936 -0.3503  0.0310 -0.1964
 3533POSM   NC341447  27.285  26.025   9.194 -0.2575 -0.0397 -0.4239
 3533POSM   PO441448  27.141  26.304   9.046  0.1619 -0.1715  0.0196
 3533POSM   AM141449  27.036  26.398   9.353  0.2208  0.1442  0.2339
 3533POSM   AM241450  26.797  26.335   9.553  0.2788 -0.1205  0.1899
 3533POSM   T1A41451  27.178  26.473   9.820 -0.0757 -0.1322 -0.0348
 3533POSM   C2A41452  27.258  26.782  10.170 -0.1566  0.0969  0.2453
 3533POSM   C3A41453  27.031  26.945  10.504 -0.1450 -0.0836 -0.1141
 3533POSM   C1B41454  26.718  26.335   9.905  0.1622  0.0433  0.0841
 3533POSM   D2B41455  26.810  26.566  10.249  0.2012  0.1313 -0.2847
 3533POSM   C3B41456  26.542  26.633  10.589 -0.0572 -0.3881 -0.2434
 3533POSM   C4B41457  26.466  26.791  11.003  0.2070 -0.0999  0.1338
 3534DOPS   CNO41458  27.776  23.630   9.318  0.0600  0.0516 -0.1342
 3534DOPS   PO441459  27.668  23.298   9.173  0.1449  0.1334  0.0474
 3534DOPS   GL141460  27.586  23.065   9.503 -0.0099 -0.2566 -0.0583
 3534DOPS   GL241461  27.338  22.928   9.413  0.0051  0.0305  0.1630
 3534DOPS   C1A41462  27.559  22.954   9.966  0.0221 -0.1794  0.1985
 3534DOPS   D2A41463  27.240  22.958  10.304  0.1421 -0.1249 -0.1591
 3534DOPS   C3A41464  27.062  23.062  10.788  0.0091  0.1715  0.1407
 3534DOPS   C4A41465  27.102  23.327  11.137  0.1336 -0.2430  0.2588
 3534DOPS   C1B41466  27.051  23.034   9.773 -0.0124 -0.0506  0.3300
 3534DOPS   D2B41467  26.768  22.747   9.991 -0.1114  0.0696 -0.2286
 3534DOPS   C3B41468  26.685  22.787  10.482 -0.0720 -0.1499 -0.1171
 3534DOPS   C4B41469  26.824  22.577  10.835  0.1646 -0.1362  0.2041
 3535DOPE   NH341470  23.642  29.836   8.707  0.0013 -0.1817  0.1851
 3535DOPE   PO441471  23.410  29.975   8.939 -0.2655  0.0023 -0.1627
 3535DOPE   GL141472  23.439  29.701   9.249 -0.1280 -0.0505 -0.2243
 3535DOPE   GL241473  23.279  29.919   9.398  0.1571 -0.2782  0.0325
 3535DOPE   C1A41474  23.766  29.790   9.595 -0.3804  0.0203 -0.0588
 3535DOPE   D2A41475  24.057  29.577   9.888 -0.3718  0.3419 -0.1607
 3535DOPE   C3A41476  24.172  29.754  10.300 -0.0663 -0.2831  0.1902
 3535DOPE   C4A41477  24.511  29.636  10.573 -0.1670 -0.0831  0.1461
 3535DOPE   C1B41478  23.336  29.771   9.857  0.3782  0.0301  0.3642
 3535DOPE   D2B41479  23.561  29.534  10.197  0.0102  0.3316  0.1975
 3535DOPE   C3B41480  23.430  29.400  10.606  0.2131 -0.0559 -0.1934
 3535DOPE   C4B41481  23.159  29.038  10.716  0.2280  0.2426 -0.0104
 3536POSM   NC341482  25.086  28.125   8.855  0.2918 -0.1859 -0.1066
 3536POSM   PO441483  25.320  27.940   8.619  0.2964  0.0659  0.1865
 3536POSM   AM141484  25.373  27.792   8.928  0.1168 -0.0101 -0.0594
 3536POSM   AM241485  25.531  27.627   9.097 -0.1125 -0.1740 -0.0565
 3536POSM   T1A41486  25.127  27.809   9.371 -0.0924  0.0320 -0.0105
 3536POSM   C2A41487  25.295  27.664   9.783 -0.2077  0.2097  0.1064
 3536POSM   C3A41488  25.383  27.408  10.156 -0.1934  0.0870  0.3886
 3536POSM   C1B41489  25.777  27.685   9.335  0.1560 -0.0042  0.1113
 3536POSM   D2B41490  25.785  27.815   9.794 -0.2518 -0.3335 -0.2263
 3536POSM   C3B41491  25.822  27.834  10.237 -0.1616  0.0826 -0.1067
 3536POSM   C4B41492  25.714  28.258  10.379 -0.1323  0.1071  0.3533
 3537DOPC   NC341493  29.382  31.289  10.382 -0.2553  0.2672 -0.0161
 3537DOPC   PO441494  29.354  30.936  10.288 -0.1609  0.1199  0.1076
 3537DOPC   GL141495  29.287  30.939  10.686  0.0195  0.0712 -0.0523
 3537DOPC   GL241496  29.155  31.159  10.791  0.1250  0.0492 -0.1415
 3537DOPC   C1A41497  29.357  30.712  11.099  0.0682 -0.0645  0.2477
 3537DOPC   D2A41498  29.500  30.891  11.428  0.0385 -0.1121 -0.2461
 3537DOPC   C3A41499  29.735  30.639  11.703 -0.0276 -0.2137 -0.0108
 3537DOPC   C4A41500  29.989  30.540  12.018 -0.1014  0.0481 -0.3589
 3537DOPC   C1B41501  29.185  31.169  11.207 -0.1154  0.0145  0.2732
 3537DOPC   D2B41502  28.905  31.401  11.542 -0.0284 -0.0472  0.0538
 3537DOPC   C3B41503  28.527  31.162  11.590 -0.1621  0.0636  0.3933
 3537DOPC   C4B41504  28.222  30.929  11.800 -0.2906  0.0756 -0.1357
 3538DOPS   CNO41505  26.843  25.873   9.021 -0.0653 -0.0684 -0.1141
 3538DOPS   PO441506  26.571  25.624   9.137  0.0728 -0.1536  0.0270
 3538DOPS   GL141507  26.189  25.697   9.414 -0.3072 -0.0295  0.3487
 3538DOPS   GL241508  26.279  25.978   9.264  0.0584  0.0155  0.4134
 3538DOPS   C1A41509  26.115  25.690   9.883  0.0012 -0.3117  0.2396
 3538DOPS   D2A41510  26.241  25.680  10.349 -0.0709  0.5333 -0.0638
 3538DOPS   C3A41511  26.365  25.793  10.804 -0.1304 -0.0503 -0.3050
 3538DOPS   C4A41512  26.080  26.040  11.094  0.1663 -0.2054  0.1441
 3538DOPS   C1B41513  26.487  25.927   9.699 -0.1775 -0.0425 -0.0167
 3538DOPS   D2B41514  26.665  25.736  10.083  0.2237  0.1093  0.0510
 3538DOPS   C3B41515  26.751  25.636  10.473 -0.0797  0.0243 -0.0525
 3538DOPS   C4B41516  27.050  25.494  10.843  0.0006 -0.1305 -0.2007
 3539DOPC   NC341517  26.466  29.776   9.691 -0.4284  0.0982  0.1876
 3539DOPC   PO441518  26.746  29.526   9.706  0.1188  0.4984 -0.0721
 3539DOPC   GL141519  26.556  29.448  10.120 -0.1496 -0.0474 -0.1642
 3539DOPC   GL241520  26.792  29.412  10.289  0.0343 -0.0939 -0.1075
 3539DOPC   C1A41521  26.338  29.692  10.474  0.1869 -0.1023  0.0493
 3539DOPC   D2A41522  26.296  29.875  10.883  0.0455 -0.1535 -0.3485
 3539DOPC   C3A41523  26.630  29.883  11.181  0.4808 -0.3218 -0.2255
 3539DOPC   C4A41524  27.069  30.003  11.295 -0.4116  0.1737  0.1278
 3539DOPC   C1B41525  26.816  29.069  10.560  0.0866  0.3331 -0.1592
 3539DOPC   D2B41526  26.643  29.038  11.015  0.1297 -0.1607 -0.0019
 3539DOPC   C3B41527  26.540  29.422  11.151 -0.0870 -0.0328 -0.1713
 3539DOPC   C4B41528  26.199  29.679  11.296 -0.0667  0.2340  0.0864
 3540DOPC   NC341529  27.216  29.457   9.610 -0.1132  0.3509 -0.1090
 3540DOPC   PO441530  27.522  29.203   9.567  0.0565 -0.3665 -0.1921
 3540DOPC   GL141531  27.498  29.261   9.964  0.0879 -0.2357 -0.2811
 3540DOPC   GL241532  27.179  29.200  10.043  0.0267  0.0533  0.0634
 3540DOPC   C1A41533  27.552  28.793  10.093 -0.0546 -0.2546 -0.0341
 3540DOPC   D2A41534  27.533  28.419  10.403 -0.0911  0.0735  0.1375
 3540DOPC   C3A41535  27.488  28.386  10.847  0.2773  0.2788  0.2724
 3540DOPC   C4A41536  27.617  28.304  11.295  0.0744 -0.2089 -0.1845
 3540DOPC   C1B41537  27.221  29.307  10.506 -0.0933  0.0628 -0.2172
 3540DOPC   D2B41538  27.192  29.339  10.972  0.0534 -0.0595  0.0764
 3540DOPC   C3B41539  26.945  29.524  11.389  0.1353  0.1022 -0.0380
 3540DOPC   C4B41540  26.665  29.734  11.659 -0.1143  0.1420  0.2255
 3541DOPE   NH341541  29.309  28.130   9.316 -0.0354  0.2134 -0.1177
 3541DOPE   PO441542  29.603  28.066   9.392 -0.3070  0.2881  0.0424
 3541DOPE   GL141543  29.672  28.057   9.816  0.1741  0.2202  0.2864
 3541DOPE   GL241544  29.574  27.802   9.869  0.2619 -0.1375 -0.1048
 3541DOPE   C1A41545  29.609  28.313  10.216  0.1785  0.0916  0.1350
 3541DOPE   D2A41546  29.439  28.413  10.658 -0.2836  0.3515 -0.1063
 3541DOPE   C3A41547  29.340  28.395  11.081 -0.2442  0.2199  0.1706
 3541DOPE   C4A41548  29.479  28.260  11.493 -0.0115  0.2890  0.0560
 3541DOPE   C1B41549  29.589  27.785  10.330 -0.1608 -0.1250 -0.0508
 3541DOPE   D2B41550  29.597  27.976  10.750  0.0221 -0.2954  0.0612
 3541DOPE   C3B41551  29.425  27.823  11.197  0.0084 -0.0255 -0.1411
 3541DOPE   C4B41552  29.193  27.435  11.292 -0.1111 -0.4472  0.2144
 3542DOPC   NC341553  26.326  25.959   8.753 -0.0630 -0.0884 -0.1856
 3542DOPC   PO441554  25.986  26.136   8.711  0.0254  0.2232 -0.0014
 3542DOPC   GL141555  25.815  26.017   9.109  0.0948 -0.2376  0.0588
 3542DOPC   GL241556  25.536  26.090   9.081 -0.0727  0.0050  0.4043
 3542DOPC   C1A41557  25.743  25.837   9.549 -0.1600  0.2957  0.2633
 3542DOPC   D2A41558  25.434  25.718   9.885 -0.1381  0.3470 -0.3008
 3542DOPC   C3A41559  25.309  25.935  10.276 -0.4012  0.1753  0.0375
 3542DOPC   C4A41560  24.968  26.217  10.421 -0.0099  0.0077 -0.0283
 3542DOPC   C1B41561  25.286  26.407   9.277 -0.2961 -0.2606 -0.3058
 3542DOPC   D2B41562  25.289  26.656   9.700 -0.3888 -0.2118 -0.2113
 3542DOPC   C3B41563  25.246  26.488  10.121  0.0758 -0.1494 -0.4915
 3542DOPC   C4B41564  25.530  26.345  10.469  0.1333  0.0552 -0.1504
 3543DOPC   NC341565  30.075  33.818  11.298  0.0639  0.2173 -0.1423
 3543DOPC   PO441566  29.730  34.007  11.218  0.0560  0.4153 -0.1646
 3543DOPC   GL141567  29.870  34.101  11.625 -0.0395 -0.1365 -0.4435
 3543DOPC   GL241568  29.651  34.297  11.599  0.1183 -0.2635  0.0386
 3543DOPC   C1A41569  29.552  33.857  11.914  0.0592  0.4092  0.0239
 3543DOPC   D2A41570  29.623  33.828  12.325 -0.2411  0.0771  0.0644
 3543DOPC   C3A41571  29.610  33.407  12.509  0.2653 -0.2227 -0.0403
 3543DOPC   C4A41572  29.531  32.939  12.612  0.2078  0.2364 -0.1665
 3543DOPC   C1B41573  29.286  34.355  11.858  0.0345  0.0477 -0.3461
 3543DOPC   D2B41574  28.850  34.393  12.012 -0.0347  0.0633  0.1208
 3543DOPC   C3B41575  28.610  34.221  12.376  0.0573  0.0417  0.2498
 3543DOPC   C4B41576  28.641  34.509  12.795  0.4136 -0.0734 -0.1297
 3544POSM   NC341577  29.334  33.762  11.069  0.0301 -0.0034 -0.0858
 3544POSM   PO441578  29.023  33.609  10.868 -0.0894 -0.1125 -0.1015
 3544POSM   AM141579  28.993  33.401  11.186  0.3590  0.0789  0.1638
 3544POSM   AM241580  29.179  33.329  11.420 -0.0312 -0.0131  0.2501
 3544POSM   T1A41581  28.701  33.511  11.636 -0.0314  0.4584 -0.2241
 3544POSM   C2A41582  28.691  33.726  12.022  0.1699  0.1462 -0.0897
 3544POSM   C3A41583  28.797  33.750  12.465  0.2851  0.1479  0.1344
 3544POSM   C1B41584  29.246  33.080  11.598 -0.1692  0.0720 -0.0906
 3544POSM   D2B41585  29.230  32.697  11.910 -0.2096 -0.1361 -0.3124
 3544POSM   C3B41586  29.128  32.808  12.373  0.4476  0.0660  0.0314
 3544POSM   C4B41587  28.760  32.875  12.676 -0.0753 -0.1520 -0.3195
 3545DOPE   NH341588  28.585  29.977   9.869 -0.1582 -0.0096  0.0964
 3545DOPE   PO441589  28.901  30.033   9.963  0.4053  0.1060  0.2123
 3545DOPE   GL141590  29.065  30.038  10.348 -0.0479  0.0506  0.0127
 3545DOPE   GL241591  29.158  29.783  10.424 -0.0353  0.1311 -0.0463
 3545DOPE   C1A41592  28.997  30.062  10.788 -0.1795  0.1958 -0.0067
 3545DOPE   D2A41593  29.033  30.300  11.160  0.1405  0.0467  0.2879
 3545DOPE   C3A41594  28.864  29.998  11.411 -0.3972  0.2813  0.1003
 3545DOPE   C4A41595  28.596  29.677  11.624 -0.0629  0.1086 -0.1309
 3545DOPE   C1B41596  28.840  29.473  10.489  0.3267 -0.1130 -0.2847
 3545DOPE   D2B41597  28.379  29.492  10.675  0.1046 -0.1762 -0.1655
 3545DOPE   C3B41598  28.029  29.199  10.840  0.0189 -0.0458 -0.3986
 3545DOPE   C4B41599  27.971  28.772  11.008 -0.0297 -0.1067  0.0303
 3546DOPS   CNO41600  28.005  28.778   9.040 -0.0647 -0.2089  0.0709
 3546DOPS   PO441601  27.858  28.436   9.238 -0.2477  0.0032 -0.3585
 3546DOPS   GL141602  27.877  28.302   9.620  0.2019  0.0363 -0.2333
 3546DOPS   GL241603  28.028  28.516   9.806  0.0955  0.0048  0.0956
 3546DOPS   C1A41604  27.624  28.191   9.987  0.1748 -0.1596  0.1072
 3546DOPS   D2A41605  27.682  27.971  10.360  0.0767  0.1278 -0.0829
 3546DOPS   C3A41606  27.858  28.099  10.753  0.1827 -0.0826  0.0590
 3546DOPS   C4A41607  28.069  28.009  11.135  0.1030 -0.0235 -0.0410
 3546DOPS   C1B41608  28.082  28.244  10.225 -0.2597  0.0399  0.3283
 3546DOPS   D2B41609  28.228  27.912  10.494 -0.0670  0.0065 -0.0253
 3546DOPS   C3B41610  27.956  27.648  10.641 -0.2403  0.1145  0.0681
 3546DOPS   C4B41611  27.719  27.421  10.920  0.0568  0.0368  0.0406
 3547DOPC   NC341612  28.700   0.636  10.999 -0.3443 -0.1659  0.3284
 3547DOPC   PO441613  28.533   0.290  10.954  0.0698  0.1015  0.0879
 3547DOPC   GL141614  28.380   0.541  11.295  0.0901  0.3261 -0.1106
 3547DOPC   GL241615  28.075   0.629  11.153  0.2215  0.2408 -0.1432
 3547DOPC   C1A41616  28.081   0.550  11.631 -0.1934 -0.3404 -0.3405
 3547DOPC   D2A41617  27.866   0.847  11.924  0.0302 -0.0687 -0.2883
 3547DOPC   C3A41618  28.065   0.714  12.336 -0.0890  0.0552 -0.1069
 3547DOPC   C4A41619  28.373   0.427  12.565  0.0678 -0.1497 -0.0868
 3547DOPC   C1B41620  27.644   0.814  11.207 -0.1348 -0.1562 -0.3439
 3547DOPC   D2B41621  27.176   0.843  11.209 -0.1604  0.0899 -0.0696
 3547DOPC   C3B41622  26.932   0.992  11.576 -0.0199  0.0518  0.2059
 3547DOPC   C4B41623  26.454   0.936  11.532  0.1109  0.1794  0.0852
 3548DOPE   NH341624  24.974  27.612   8.542  0.0443 -0.0728 -0.1536
 3548DOPE   PO441625  25.015  27.339   8.454 -0.3162  0.2235  0.0696
 3548DOPE   GL141626  25.059  27.199   8.787 -0.1819 -0.0414  0.1139
 3548DOPE   GL241627  25.067  27.406   9.029 -0.0067 -0.0759 -0.1185
 3548DOPE   C1A41628  24.661  27.124   8.987  0.0435 -0.1863  0.1718
 3548DOPE   D2A41629  24.427  27.037   9.406  0.1787  0.0337  0.1156
 3548DOPE   C3A41630  24.460  26.840   9.816  0.2402  0.0935  0.0041
 3548DOPE   C4A41631  24.763  26.615  10.028 -0.1522  0.0006  0.0307
 3548DOPE   C1B41632  24.900  27.193   9.409  0.0453  0.1248 -0.2087
 3548DOPE   D2B41633  24.985  27.136   9.896  0.2164  0.1931  0.1964
 3548DOPE   C3B41634  24.630  27.087  10.182 -0.1528  0.1825 -0.0269
 3548DOPE   C4B41635  24.336  26.718  10.320 -0.2580 -0.0473 -0.2047
 3549DOPE   NH341636  30.336  31.721  10.641  0.1780 -0.1472 -0.1126
 3549DOPE   PO441637  30.409  31.437  10.583 -0.3824 -0.1303  0.1884
 3549DOPE   GL141638  30.302  31.451  11.014 -0.2602  0.1597  0.2092
 3549DOPE   GL241639  30.016  31.421  10.976  0.3627 -0.4157 -0.0210
 3549DOPE   C1A41640  30.461  31.498  11.468 -0.3851  0.4844 -0.3440
 3549DOPE   D2A41641  30.705  31.520  11.904  0.2435 -0.1481  0.2226
 3549DOPE   C3A41642  30.322  31.548  12.164  0.1828 -0.2614  0.0167
 3549DOPE   C4A41643  30.048  31.643  12.579  0.0782 -0.1764 -0.0804
 3549DOPE   C1B41644  29.649  31.384  11.257 -0.3712 -0.0355  0.1975
 3549DOPE   D2B41645  29.403  31.369  11.639 -0.2717 -0.0446  0.1900
 3549DOPE   C3B41646  29.592  31.184  11.941 -0.0897 -0.2301 -0.1522
 3549DOPE   C4B41647  29.984  31.088  12.227 -0.2305 -0.1670 -0.1442
 3550POSM   NC341648  33.839  32.233  10.908  0.0876  0.2607  0.0631
 3550POSM   PO441649  33.441  32.105  10.802 -0.2826 -0.1909  0.2926
 3550POSM   AM141650  33.492  31.896  11.038  0.2364 -0.3524  0.0494
 3550POSM   AM241651  33.653  31.939  11.309  0.1507  0.1294  0.2938
 3550POSM   T1A41652  33.693  31.470  11.228 -0.0703  0.1001 -0.2244
 3550POSM   C2A41653  33.547  31.179  11.496  0.2721  0.0605 -0.2481
 3550POSM   C3A41654  33.525  30.869  11.849  0.0805  0.0951  0.2461
 3550POSM   C1B41655  33.585  32.000  11.613  0.3173  0.0860 -0.1623
 3550POSM   D2B41656  33.324  31.937  12.019 -0.0133  0.2263 -0.0157
 3550POSM   C3B41657  33.416  31.651  12.338  0.0467  0.2394 -0.0354
 3550POSM   C4B41658  33.390  31.449  12.764 -0.1390  0.2178  0.2954
 3551POSM   NC341659  33.386  33.964  10.900 -0.1346  0.1778 -0.0334
 3551POSM   PO441660  33.424  33.791  11.249  0.0546 -0.2280  0.3243
 3551POSM   AM141661  33.616  33.739  11.514  0.1962 -0.3130 -0.1578
 3551POSM   AM241662  33.520  33.722  11.812  0.1059 -0.3509  0.2637
 3551POSM   T1A41663  33.837  33.345  11.672 -0.0047  0.1062  0.0646
 3551POSM   C2A41664  33.844  32.896  11.533  0.1203  0.1816  0.2507
 3551POSM   C3A41665  34.024  32.531  11.366 -0.1132 -0.3305  0.1967
 3551POSM   C1B41666  33.524  33.617  12.115  0.0382  0.0902  0.3075
 3551POSM   D2B41667  33.413  33.217  12.365 -0.2094  0.1562 -0.1201
 3551POSM   C3B41668  33.329  33.227  12.855 -0.1664  0.0639  0.0542
 3551POSM   C4B41669  33.139  33.447  13.150 -0.1192 -0.1201 -0.1820
 3552DOPC   NC341670  25.162  28.406   8.409  0.0447 -0.0802 -0.3179
 3552DOPC   PO441671  24.939  28.571   8.692 -0.0906  0.0975  0.2363
 3552DOPC   GL141672  25.084  28.641   9.028  0.0501 -0.3028  0.2554
 3552DOPC   GL241673  25.134  28.446   9.258 -0.3233 -0.2523 -0.1234
 3552DOPC   C1A41674  25.003  28.906   9.417 -0.0616 -0.2268  0.0467
 3552DOPC   D2A41675  24.889  29.106   9.824  0.0629  0.1481 -0.2749
 3552DOPC   C3A41676  24.762  29.382  10.165  0.4709 -0.2035  0.0991
 3552DOPC   C4A41677  24.308  29.217  10.275  0.1724 -0.2272  0.2729
 3552DOPC   C1B41678  25.167  28.232   9.675  0.1789 -0.0902  0.0085
 3552DOPC   D2B41679  25.369  28.097  10.036  0.0029  0.1339  0.0034
 3552DOPC   C3B41680  25.073  27.967  10.324 -0.0195  0.0823 -0.2183
 3552DOPC   C4B41681  25.034  27.813  10.774  0.0352  0.0835 -0.0127
 3553DOPC   NC341682  26.868   0.546  10.121  0.0018  0.0562  0.2977
 3553DOPC   PO441683  27.136   0.445  10.394 -0.1393  0.2301  0.2511
 3553DOPC   GL141684  27.179   0.335  10.775 -0.0815  0.0067  0.2688
 3553DOPC   GL241685  27.015   0.456  10.972 -0.6401 -0.0367 -0.3064
 3553DOPC   C1A41686  27.498   0.181  11.069  0.1576 -0.0509 -0.1082
 3553DOPC   D2A41687  27.766   0.286  11.409  0.0098 -0.2768  0.3308
 3553DOPC   C3A41688  27.576   0.580  11.686  0.1083 -0.2224  0.0006
 3553DOPC   C4A41689  27.265   0.812  11.962 -0.0355  0.1122  0.2608
 3553DOPC   C1B41690  27.160   0.375  11.407  0.0804 -0.1177 -0.0302
 3553DOPC   D2B41691  27.279   0.119  11.783  0.0481  0.0771 -0.2438
 3553DOPC   C3B41692  27.553  -0.165  11.611 -0.2899  0.1020 -0.0388
 3553DOPC   C4B41693  27.757  -0.458  11.308  0.2699  0.3795  0.0619
 3554DOPC   NC341694  30.366  32.464  10.824  0.0428 -0.0625 -0.1746
 3554DOPC   PO441695  30.028  32.657  10.898 -0.2709 -0.0586 -0.2190
 3554DOPC   GL141696  29.774  32.730  11.236  0.0915 -0.2075 -0.1317
 3554DOPC   GL241697  29.492  32.786  11.193  0.0465  0.0894 -0.1368
 3554DOPC   C1A41698  29.729  32.557  11.653  0.1899  0.2189 -0.0596
 3554DOPC   D2A41699  29.575  32.330  12.026 -0.1805 -0.2927 -0.2275
 3554DOPC   C3A41700  29.627  32.478  12.456 -0.2289  0.1672  0.2546
 3554DOPC   C4A41701  29.659  32.452  12.929  0.0011 -0.1062  0.0094
 3554DOPC   C1B41702  29.022  32.727  11.258  0.0392  0.0246 -0.0403
 3554DOPC   D2B41703  28.786  32.331  11.437  0.0175 -0.0932 -0.1276
 3554DOPC   C3B41704  28.764  32.222  11.863  0.2795 -0.0901  0.0971
 3554DOPC   C4B41705  28.646  32.052  12.285 -0.0747 -0.1972  0.1846
 3555POSM   NC341706  25.498  28.800   9.107 -0.5085  0.0788 -0.2169
 3555POSM   PO441707  25.806  28.539   9.137 -0.1312 -0.3320 -0.1003
 3555POSM   AM141708  25.904  28.514   9.440 -0.2655  0.1902 -0.1738
 3555POSM   AM241709  25.782  28.341   9.641  0.1038  0.0894 -0.4417
 3555POSM   T1A41710  26.197  28.578   9.795 -0.1529 -0.1450  0.2600
 3555POSM   C2A41711  26.222  28.685  10.284 -0.1117 -0.0162  0.1517
 3555POSM   C3A41712  26.338  29.029  10.562  0.3342 -0.0052 -0.1205
 3555POSM   C1B41713  25.693  28.500   9.893  0.1223  0.0622  0.1083
 3555POSM   D2B41714  25.653  28.730  10.285 -0.3961  0.0992  0.3117
 3555POSM   C3B41715  25.871  28.688  10.672 -0.1751 -0.0500 -0.0878
 3555POSM   C4B41716  25.737  28.718  11.178 -0.1435  0.0394  0.0013
 3556DOPC   NC341717  25.505  33.451   9.530  0.1432  0.0341 -0.1026
 3556DOPC   PO441718  25.503  33.526   9.947  0.0496 -0.0881 -0.0573
 3556DOPC   GL141719  25.651  33.640  10.282 -0.2284  0.0387 -0.4070
 3556DOPC   GL241720  25.447  33.810  10.443 -0.3218  0.0218  0.1758
 3556DOPC   C1A41721  25.840  33.491  10.675  0.0319 -0.1340 -0.0542
 3556DOPC   D2A41722  25.977  33.552  11.125  0.1495  0.0136  0.0971
 3556DOPC   C3A41723  26.127  33.239  11.363  0.2427  0.1018 -0.1270
 3556DOPC   C4A41724  25.980  33.179  11.770  0.1012  0.1459  0.1253
 3556DOPC   C1B41725  25.340  33.979  10.860  0.2409  0.0222  0.2325
 3556DOPC   D2B41726  25.598  34.363  11.098  0.4483  0.0468  0.1539
 3556DOPC   C3B41727  25.359  34.673  11.343  0.0892  0.0198  0.1474
 3556DOPC   C4B41728  25.292  34.860  11.789 -0.0871  0.3622  0.1897
 3557POSM   NC341729   1.812  28.527  10.103  0.3018 -0.0727 -0.0954
 3557POSM   PO441730   1.581  28.255  10.134 -0.2939  0.1730 -0.0737
 3557POSM   AM141731   1.577  28.351  10.464 -0.1639  0.0694  0.2182
 3557POSM   AM241732   1.719  28.530  10.639 -0.0068  0.0858  0.2313
 3557POSM   T1A41733   1.518  28.169  10.894 -0.3298  0.2020  0.0648
 3557POSM   C2A41734   1.172  28.181  11.222  0.0823 -0.0380  0.1093
 3557POSM   C3A41735   0.878  27.968  11.390 -0.4684 -0.1928  0.0224
 3557POSM   C1B41736   1.627  28.720  10.897 -0.0211  0.0008 -0.1887
 3557POSM   D2B41737   1.783  29.075  11.180 -0.0009 -0.0155 -0.2300
 3557POSM   C3B41738   1.841  28.811  11.510 -0.0507 -0.1044 -0.1134
 3557POSM   C4B41739   1.916  28.530  11.831 -0.3382 -0.0384  0.1998
 3558DOPS   CNO41740  32.107  27.765   9.612  0.0073  0.1280  0.0863
 3558DOPS   PO441741  32.003  27.512   9.881  0.3074  0.2631  0.1092
 3558DOPS   GL141742  32.021  27.403  10.297 -0.0842  0.1282  0.2188
 3558DOPS   GL241743  31.921  27.573  10.601 -0.2013  0.3518 -0.1076
 3558DOPS   C1A41744  31.924  27.059  10.600  0.2484  0.1563 -0.3701
 3558DOPS   D2A41745  31.957  26.797  10.971  0.3229  0.0368  0.0179
 3558DOPS   C3A41746  31.978  26.720  11.409 -0.0415  0.0954 -0.1838
 3558DOPS   C4A41747  32.236  26.793  11.781 -0.3344  0.0280  0.0504
 3558DOPS   C1B41748  31.778  27.351  11.013 -0.1690 -0.0088 -0.3372
 3558DOPS   D2B41749  31.617  27.075  11.334  0.0857 -0.1371 -0.4205
 3558DOPS   C3B41750  31.185  26.961  11.146  0.0679 -0.1434 -0.0738
 3558DOPS   C4B41751  31.015  26.547  11.058  0.2734  0.0477 -0.1708
 3559DOPC   NC341752  28.840  32.000  10.435  0.1593  0.1267 -0.0104
 3559DOPC   PO441753  29.176  32.257  10.422 -0.0514 -0.0103 -0.0626
 3559DOPC   GL141754  29.193  32.075  10.795  0.0636  0.3348 -0.2959
 3559DOPC   GL241755  29.276  32.168  11.039  0.0176  0.0868  0.0119
 3559DOPC   C1A41756  28.729  32.101  10.967  0.1719  0.0420 -0.2290
 3559DOPC   D2A41757  28.416  32.017  11.292 -0.4147 -0.4493  0.1881
 3559DOPC   C3A41758  28.274  32.071  11.718 -0.1682 -0.0856 -0.2002
 3559DOPC   C4A41759  28.006  31.931  12.047  0.1676  0.2532 -0.4198
 3559DOPC   C1B41760  29.589  31.904  11.366  0.2504  0.0203 -0.3711
 3559DOPC   D2B41761  29.575  31.849  11.830 -0.2023  0.1065 -0.0093
 3559DOPC   C3B41762  29.127  31.842  11.964  0.0519 -0.2951 -0.0592
 3559DOPC   C4B41763  29.079  32.225  12.239 -0.0755  0.1923 -0.0457
 3560DOPS   CNO41764  22.779  33.862   9.537 -0.1939  0.0533  0.2737
 3560DOPS   PO441765  23.108  33.797   9.714 -0.3408 -0.3507  0.1621
 3560DOPS   GL141766  23.190  33.772  10.078 -0.0156  0.2647  0.4341
 3560DOPS   GL241767  22.899  33.978  10.127 -0.2503 -0.0590 -0.2657
 3560DOPS   C1A41768  23.294  33.940  10.502  0.0565  0.1046  0.0664
 3560DOPS   D2A41769  23.623  34.285  10.598  0.1190  0.2782 -0.0385
 3560DOPS   C3A41770  23.700  34.481  11.031  0.2430 -0.2869 -0.0146
 3560DOPS   C4A41771  23.850  34.171  11.350  0.1789 -0.0466 -0.2685
 3560DOPS   C1B41772  22.725  33.959  10.555  0.0436  0.0993 -0.2036
 3560DOPS   D2B41773  22.358  34.115  10.735 -0.1416 -0.0842  0.0054
 3560DOPS   C3B41774  22.319  34.276  11.199 -0.2151  0.0310  0.2099
 3560DOPS   C4B41775  21.931  34.376  11.476  0.3066 -0.0737 -0.1636
 3561DOPE   NH341776  26.089   0.382  10.429 -0.1164  0.0206  0.3165
 3561DOPE   PO441777  26.350   0.535  10.384  0.0664  0.0105  0.1326
 3561DOPE   GL141778  26.274   0.568  10.826 -0.2028  0.0817 -0.1414
 3561DOPE   GL241779  26.503   0.414  10.957 -0.1218  0.1263  0.2743
 3561DOPE   C1A41780  26.150   0.571  11.320 -0.0612 -0.0005  0.0647
 3561DOPE   D2A41781  25.848   0.521  11.665 -0.0203 -0.1378 -0.1073
 3561DOPE   C3A41782  26.215   0.651  11.975  0.0973  0.0479  0.0623
 3561DOPE   C4A41783  26.087   0.753  12.389  0.3436  0.2304  0.1909
 3561DOPE   C1B41784  26.629   0.449  11.423 -0.1142 -0.1381 -0.0340
 3561DOPE   D2B41785  26.842   0.514  11.794 -0.1122 -0.0329  0.0439
 3561DOPE   C3B41786  26.660   0.934  11.974  0.1264 -0.1871  0.0519
 3561DOPE   C4B41787  26.299   1.142  12.121  0.1876  0.1537 -0.0897
 3562DOPE   NH341788  34.313  26.009  10.386 -0.0886 -0.0497  0.2048
 3562DOPE   PO441789  34.279  25.719  10.567  0.2965  0.1096  0.2128
 3562DOPE   GL141790  34.461  25.743  10.819 -0.0131 -0.2099  0.1353
 3562DOPE   GL241791  34.401  26.018  10.941 -0.0215 -0.3980  0.1593
 3562DOPE   C1A41792  34.586  25.709  11.274  0.0808 -0.0060  0.0429
 3562DOPE   D2A41793  34.722  25.546  11.667 -0.2392 -0.5119  0.0009
 3562DOPE   C3A41794  34.912  25.138  11.814  0.0969 -0.0397  0.1968
 3562DOPE   C4A41795  34.968  24.753  12.021  0.2003  0.0995  0.0516
 3562DOPE   C1B41796  34.137  25.823  11.214 -0.4765  0.0723  0.1450
 3562DOPE   D2B41797  34.186  25.542  11.580  0.1483  0.1494 -0.0118
 3562DOPE   C3B41798  34.173  25.758  11.987 -0.0396  0.1253 -0.0505
 3562DOPE   C4B41799  33.887  25.951  12.339 -0.1207 -0.0268 -0.0156
 3563DOPE   NH341800  29.032  29.278   9.575  0.0180  0.0819  0.2252
 3563DOPE   PO441801  28.743  29.158   9.475  0.0311  0.1338 -0.1844
 3563DOPE   GL141802  28.780  28.966   9.811 -0.2395 -0.2966  0.2564
 3563DOPE   GL241803  28.873  28.724   9.755 -0.3257 -0.2224 -0.1392
 3563DOPE   C1A41804  28.775  29.015  10.279  0.1450  0.0307  0.1495
 3563DOPE   D2A41805  28.913  29.058  10.724  0.2492 -0.1156 -0.0738
 3563DOPE   C3A41806  29.082  29.395  10.959  0.3741  0.2207  0.2677
 3563DOPE   C4A41807  29.187  29.777  11.119  0.0169  0.1058  0.0555
 3563DOPE   C1B41808  28.912  28.509  10.144 -0.3735 -0.0483  0.0464
 3563DOPE   D2B41809  28.941  28.134  10.466 -0.1881  0.0342 -0.0838
 3563DOPE   C3B41810  28.903  28.138  10.967 -0.0399  0.0082  0.0594
 3563DOPE   C4B41811  28.945  27.886  11.348  0.1649  0.1103  0.1045
 3564DOPC   NC341812  29.123  26.818   9.598 -0.1278  0.0564 -0.0816
 3564DOPC   PO441813  29.417  26.727   9.821 -0.2735 -0.0222 -0.1999
 3564DOPC   GL141814  29.228  26.931  10.078 -0.2781  0.1652  0.1891
 3564DOPC   GL241815  28.932  26.902  10.033 -0.1862 -0.0198 -0.0973
 3564DOPC   C1A41816  29.168  27.100  10.503 -0.2566  0.0248 -0.1319
 3564DOPC   D2A41817  29.079  27.113  10.919 -0.0844  0.3277  0.0599
 3564DOPC   C3A41818  29.347  26.911  11.257  0.1928 -0.1077  0.2684
 3564DOPC   C4A41819  29.310  26.753  11.689 -0.2301  0.0409  0.0329
 3564DOPC   C1B41820  28.668  27.021  10.340 -0.0791  0.1351  0.1646
 3564DOPC   D2B41821  28.659  27.231  10.755  0.1168  0.0390  0.2535
 3564DOPC   C3B41822  28.671  27.404  11.230 -0.2988  0.0233 -0.1005
 3564DOPC   C4B41823  28.412  27.715  11.505 -0.0265  0.0505 -0.2146
 3565DOPS   CNO41824  33.456  30.672  10.420 -0.2359  0.2559 -0.1968
 3565DOPS   PO441825  33.532  31.068  10.441  0.1525 -0.0505  0.1646
 3565DOPS   GL141826  33.292  31.009  10.775  0.1344  0.2686 -0.1256
 3565DOPS   GL241827  33.073  31.191  10.733  0.1321 -0.0500  0.1041
 3565DOPS   C1A41828  33.455  30.836  11.163  0.0913 -0.1099  0.0040
 3565DOPS   D2A41829  33.593  30.527  11.454  0.0477  0.1212  0.0180
 3565DOPS   C3A41830  33.948  30.678  11.662  0.2249 -0.1531 -0.0125
 3565DOPS   C4A41831  34.300  30.581  11.952 -0.0285 -0.1749  0.0416
 3565DOPS   C1B41832  33.006  31.043  11.173  0.0547 -0.1071  0.2291
 3565DOPS   D2B41833  33.070  31.100  11.646 -0.0080 -0.0502 -0.0416
 3565DOPS   C3B41834  33.030  30.765  12.003  0.1611 -0.0476 -0.0375
 3565DOPS   C4B41835  33.262  30.400  12.277 -0.1375 -0.0504  0.2021
 3566DOPS   CNO41836  30.688   0.079  10.968  0.0660  0.2688 -0.2502
 3566DOPS   PO441837  30.917   0.023  11.258  0.4645  0.2363 -0.0784
 3566DOPS   GL141838  30.903  -0.089  11.642  0.0234 -0.3380 -0.2648
 3566DOPS   GL241839  30.915  -0.395  11.509 -0.2714 -0.0317 -0.1317
 3566DOPS   C1A41840  30.999  -0.293  12.019 -0.1257  0.0518 -0.1438
 3566DOPS   D2A41841  30.696  -0.310  12.324 -0.0542 -0.0407 -0.1911
 3566DOPS   C3A41842  30.293  -0.147  12.288 -0.1159 -0.0468  0.2001
 3566DOPS   C4A41843  29.848  -0.152  12.103  0.0709  0.2740 -0.1531
 3566DOPS   C1B41844  30.718  -0.832  11.620 -0.1575  0.1222 -0.0433
 3566DOPS   D2B41845  30.895  -1.141  11.916 -0.3017  0.4085 -0.2427
 3566DOPS   C3B41846  31.117  -0.869  12.178 -0.0838 -0.2123 -0.0075
 3566DOPS   C4B41847  31.007  -0.699  12.658 -0.0089  0.0664 -0.0919
 3567DOPC   NC341848  32.573  33.948  11.265  0.0455 -0.1573  0.0694
 3567DOPC   PO441849  32.925  34.064  11.281  0.1390 -0.1294 -0.1104
 3567DOPC   GL141850  33.133  34.010  11.624  0.1555 -0.2710 -0.0471
 3567DOPC   GL241851  33.015  33.831  11.771  0.4346  0.1321  0.0492
 3567DOPC   C1A41852  33.334  34.071  12.057 -0.1383 -0.1123 -0.2325
 3567DOPC   D2A41853  33.429  34.184  12.511 -0.3088 -0.1211 -0.0800
 3567DOPC   C3A41854  33.221  34.083  12.916 -0.1360 -0.0568  0.0806
 3567DOPC   C4A41855  32.974  33.911  13.297  0.0620  0.1247 -0.2215
 3567DOPC   C1B41856  32.982  33.531  12.130 -0.0679  0.0001 -0.0354
 3567DOPC   D2B41857  32.898  33.338  12.575  0.3819  0.1351  0.5571
 3567DOPC   C3B41858  32.984  32.921  12.713  0.3909  0.0501  0.1827
 3567DOPC   C4B41859  32.933  32.549  12.894  0.0705  0.1138  0.0226
 3568DOPS   CNO41860  26.786  28.606   9.014 -0.0523 -0.1142  0.1897
 3568DOPS   PO441861  26.957  28.538   9.344  0.3543  0.1861 -0.1199
 3568DOPS   GL141862  26.794  28.543   9.738  0.1263  0.2923  0.0983
 3568DOPS   GL241863  27.084  28.456   9.899  0.2109  0.0888  0.1280
 3568DOPS   C1A41864  26.644  28.295  10.096  0.2999  0.1133 -0.0156
 3568DOPS   D2A41865  26.721  28.315  10.507 -0.2797  0.3223  0.0154
 3568DOPS   C3A41866  26.394  28.531  10.749 -0.1046 -0.0284  0.0666
 3568DOPS   C4A41867  26.168  28.209  11.005  0.0283 -0.2701  0.2694
 3568DOPS   C1B41868  27.121  28.155  10.177  0.4598 -0.1037  0.0251
 3568DOPS   D2B41869  27.119  28.035  10.655  0.0532 -0.3649 -0.0070
 3568DOPS   C3B41870  27.461  27.895  10.882  0.1408 -0.1461  0.1665
 3568DOPS   C4B41871  27.630  27.798  11.289  0.0754 -0.1971  0.2030
 3569DOPS   CNO41872  27.531  30.710   9.592  0.0187 -0.1284 -0.0182
 3569DOPS   PO441873  27.474  30.993   9.875 -0.0390  0.0294  0.1649
 3569DOPS   GL141874  27.472  31.197  10.313 -0.2133  0.1482 -0.1041
 3569DOPS   GL241875  27.432  30.927  10.352 -0.0627 -0.1253  0.0250
 3569DOPS   C1A41876  27.844  31.217  10.626  0.2499 -0.1592 -0.3068
 3569DOPS   D2A41877  28.069  31.386  11.000 -0.0552  0.1307 -0.1034
 3569DOPS   C3A41878  28.134  31.054  11.313 -0.2534  0.0932 -0.2254
 3569DOPS   C4A41879  28.347  30.659  11.310 -0.1740 -0.0578  0.3089
 3569DOPS   C1B41880  27.006  30.865  10.479 -0.1934  0.0117 -0.0478
 3569DOPS   D2B41881  26.762  30.724  10.810  0.2243 -0.2576  0.1550
 3569DOPS   C3B41882  26.812  30.987  11.225  0.2367  0.4016  0.1017
 3569DOPS   C4B41883  26.568  30.893  11.586 -0.0490  0.1082 -0.0206
 3570DOPC   NC341884  25.242  31.873  10.044  0.0112 -0.2819 -0.1151
 3570DOPC   PO441885  25.576  31.858   9.891 -0.0870  0.0882  0.2180
 3570DOPC   GL141886  25.607  31.953  10.359 -0.0978 -0.1842  0.0191
 3570DOPC   GL241887  25.519  32.261  10.417 -0.1336  0.1140 -0.3781
 3570DOPC   C1A41888  25.625  31.888  10.834 -0.0764 -0.2827 -0.0614
 3570DOPC   D2A41889  25.475  31.996  11.166  0.0430 -0.1099  0.1029
 3570DOPC   C3A41890  25.497  32.257  11.513  0.2886 -0.1359 -0.3908
 3570DOPC   C4A41891  25.588  32.490  11.894  0.2193  0.0184 -0.0811
 3570DOPC   C1B41892  25.281  32.324  10.808 -0.1270 -0.1204 -0.1473
 3570DOPC   D2B41893  25.011  32.271  11.135  0.0464  0.4360  0.2286
 3570DOPC   C3B41894  24.821  32.664  11.268 -0.3431 -0.1169  0.0024
 3570DOPC   C4B41895  24.619  33.038  11.132  0.0199  0.0334  0.4367
 3571DOPE   NH341896  33.565  25.733  10.217 -0.1418  0.0273  0.0248
 3571DOPE   PO441897  33.786  25.904  10.305 -0.0882  0.0388 -0.2845
 3571DOPE   GL141898  33.696  25.756  10.672 -0.0240 -0.0905 -0.3264
 3571DOPE   GL241899  33.854  25.612  10.865 -0.0565 -0.1382  0.0232
 3571DOPE   C1A41900  33.307  25.701  10.867  0.0460  0.0211 -0.3943
 3571DOPE   D2A41901  32.956  25.718  11.124 -0.2909 -0.0853 -0.0057
 3571DOPE   C3A41902  32.737  25.731  11.480  0.0592 -0.0633  0.3912
 3571DOPE   C4A41903  32.346  25.599  11.702  0.3245 -0.0459 -0.3511
 3571DOPE   C1B41904  33.632  25.616  11.216  0.0747  0.1278  0.0065
 3571DOPE   D2B41905  33.268  25.379  11.273 -0.0538  0.0524 -0.0747
 3571DOPE   C3B41906  33.226  25.469  11.720 -0.1055 -0.0300  0.0443
 3571DOPE   C4B41907  33.328  25.370  12.242 -0.1048  0.0832  0.0419
 3572DOPE   NH341908  23.997  33.805   9.728 -0.0723 -0.1975  0.2955
 3572DOPE   PO441909  23.995  33.716  10.008  0.0625 -0.2120 -0.2409
 3572DOPE   GL141910  23.589  33.676  10.271 -0.0203  0.0080  0.0379
 3572DOPE   GL241911  23.796  33.810  10.442 -0.0236 -0.2548 -0.2061
 3572DOPE   C1A41912  23.533  33.496  10.726  0.0586  0.0044  0.1916
 3572DOPE   D2A41913  23.428  33.422  11.161 -0.2937  0.1880 -0.0304
 3572DOPE   C3A41914  23.742  33.083  11.424  0.0206  0.2383 -0.2607
 3572DOPE   C4A41915  24.111  32.834  11.488 -0.0228 -0.3106  0.0706
 3572DOPE   C1B41916  23.753  33.895  10.926 -0.0524 -0.2087 -0.2966
 3572DOPE   D2B41917  23.369  33.989  11.154  0.0021  0.0315 -0.1165
 3572DOPE   C3B41918  23.200  34.312  10.869 -0.1449  0.0573 -0.1936
 3572DOPE   C4B41919  23.257  34.735  10.676 -0.1531  0.3392 -0.2888
 3573POSM   NC341920  28.300  27.106   9.411 -0.2820  0.1835 -0.2258
 3573POSM   PO441921  28.051  27.405   9.310 -0.0670 -0.0275  0.0964
 3573POSM   AM141922  27.854  27.207   9.535 -0.3462 -0.0010  0.0782
 3573POSM   AM241923  27.890  27.101   9.760  0.3593 -0.0631  0.1372
 3573POSM   T1A41924  27.471  27.264   9.824 -0.1283 -0.0647  0.2592
 3573POSM   C2A41925  27.038  27.063   9.834  0.0425  0.0894  0.0700
 3573POSM   C3A41926  26.762  26.800   9.577 -0.1569 -0.1083  0.0014
 3573POSM   C1B41927  27.804  26.953  10.058  0.0553 -0.2481  0.1192
 3573POSM   D2B41928  27.766  26.878  10.498 -0.2848 -0.0738  0.0400
 3573POSM   C3B41929  27.802  26.585  10.799 -0.0728 -0.1637  0.2774
 3573POSM   C4B41930  27.857  26.138  10.995  0.1005 -0.1902 -0.0385
 3574DOPS   CNO41931  33.670  33.453  10.769  0.1338 -0.0281 -0.0758
 3574DOPS   PO441932  33.779  33.122  10.898 -0.0765 -0.0377 -0.1972
 3574DOPS   GL141933  34.109  33.080  11.147 -0.2291 -0.4323 -0.0323
 3574DOPS   GL241934  34.396  32.935  11.108  0.0081  0.4609 -0.1116
 3574DOPS   C1A41935  34.292  33.167  11.577 -0.5982  0.1368 -0.1247
 3574DOPS   D2A41936  34.607  33.191  11.943  0.3223  0.1117  0.1738
 3574DOPS   C3A41937  34.636  32.849  12.267  0.1648 -0.1676 -0.1928
 3574DOPS   C4A41938  34.412  32.438  12.233 -0.3158 -0.0517  0.3675
 3574DOPS   C1B41939  34.722  33.036  11.403 -0.0018  0.1954  0.1890
 3574DOPS   D2B41940  34.965  32.970  11.739 -0.0321  0.3145  0.2100
 3574DOPS   C3B41941  35.078  33.420  11.817 -0.2036  0.0731  0.0239
 3574DOPS   C4B41942  35.084  33.593  12.212  0.1035 -0.2280 -0.2276
 3575DOPC   NC341943  31.937  29.236  10.025  0.0734 -0.1255  0.1851
 3575DOPC   PO441944  32.148  28.869  10.036  0.1848  0.2532 -0.1608
 3575DOPC   GL141945  31.970  28.868  10.371  0.2194  0.0520  0.1186
 3575DOPC   GL241946  31.811  29.086  10.549 -0.2734  0.1526  0.1388
 3575DOPC   C1A41947  31.853  28.571  10.727 -0.0422  0.3834  0.2387
 3575DOPC   D2A41948  31.562  28.527  11.041 -0.0832  0.0752 -0.2175
 3575DOPC   C3A41949  31.521  28.525  11.492  0.2332  0.0469  0.2105
 3575DOPC   C4A41950  31.666  28.405  11.880  0.0155 -0.2142 -0.2470
 3575DOPC   C1B41951  31.698  29.011  11.000 -0.2039  0.0138  0.0984
 3575DOPC   D2B41952  31.719  28.999  11.489  0.0701  0.0722 -0.1883
 3575DOPC   C3B41953  31.427  29.289  11.689  0.2655 -0.0542 -0.1232
 3575DOPC   C4B41954  31.048  29.240  11.979  0.0458 -0.0122  0.1583
 3576DOPE   NH341955  24.594  28.353   8.295 -0.0705 -0.0692 -0.0731
 3576DOPE   PO441956  24.715  28.141   8.537 -0.0257 -0.0776 -0.4177
 3576DOPE   GL141957  24.531  27.805   8.773  0.1586  0.2046  0.3370
 3576DOPE   GL241958  24.726  27.780   8.933 -0.3151  0.1308 -0.3639
 3576DOPE   C1A41959  24.307  27.518   9.081 -0.2613 -0.1373 -0.0579
 3576DOPE   D2A41960  24.119  27.768   9.484 -0.0825  0.0133  0.1301
 3576DOPE   C3A41961  23.988  27.601   9.879 -0.0700 -0.4091  0.0190
 3576DOPE   C4A41962  23.871  27.393  10.284 -0.3978 -0.1803 -0.2984
 3576DOPE   C1B41963  24.656  27.628   9.382 -0.3856  0.1000 -0.2445
 3576DOPE   D2B41964  24.424  27.481   9.747  0.0665  0.1911 -0.0495
 3576DOPE   C3B41965  24.349  27.506  10.209 -0.0247 -0.1407  0.0559
 3576DOPE   C4B41966  24.305  27.389  10.602 -0.1470  0.2240 -0.0132
 3577DOPS   CNO41967  28.943  28.325   9.029  0.0768 -0.1920 -0.3697
 3577DOPS   PO441968  28.921  28.447   9.384 -0.2335 -0.0444 -0.1879
 3577DOPS   GL141969  29.145  28.341   9.696 -0.0277 -0.1310 -0.2254
 3577DOPS   GL241970  29.444  28.415   9.739  0.2432 -0.1819  0.2346
 3577DOPS   C1A41971  29.200  28.042  10.095 -0.1783  0.1179 -0.0451
 3577DOPS   D2A41972  29.170  27.595  10.207 -0.0325 -0.0273  0.0049
 3577DOPS   C3A41973  28.771  27.678  10.480  0.1677  0.0237  0.0549
 3577DOPS   C4A41974  28.556  27.791  10.850  0.1874  0.2611  0.1877
 3577DOPS   C1B41975  29.845  28.543   9.866 -0.1510 -0.0279 -0.3117
 3577DOPS   D2B41976  30.238  28.622  10.085  0.0284  0.1482 -0.2580
 3577DOPS   C3B41977  30.387  28.485  10.465 -0.1819  0.0855 -0.0635
 3577DOPS   C4B41978  30.304  28.625  10.912 -0.0235 -0.2723 -0.0668
 3578DOPS   CNO41979  34.098  32.329  10.463 -0.0849  0.0766 -0.0362
 3578DOPS   PO441980  34.238  32.012  10.680  0.3495 -0.0162  0.1527
 3578DOPS   GL141981  34.294  31.948  11.061 -0.1730  0.3558 -0.2955
 3578DOPS   GL241982  34.102  31.792  11.200 -0.1018  0.2754  0.0702
 3578DOPS   C1A41983  34.390  32.093  11.491 -0.1949 -0.3292  0.2103
 3578DOPS   D2A41984  34.069  32.216  11.787  0.1587  0.0825  0.0721
 3578DOPS   C3A41985  34.177  31.922  12.214  0.6538  0.1657 -0.1746
 3578DOPS   C4A41986  34.312  32.154  12.585  0.0528 -0.1334  0.1088
 3578DOPS   C1B41987  33.963  31.613  11.622 -0.2122 -0.0593  0.1193
 3578DOPS   D2B41988  33.810  31.615  12.043 -0.1403  0.3797  0.1324
 3578DOPS   C3B41989  33.817  31.337  12.450 -0.0229  0.0068  0.2538
 3578DOPS   C4B41990  33.665  31.043  12.771 -0.1577 -0.1241 -0.0228
 3579DOPE   NH341991  21.401  33.901   9.689 -0.0094  0.3360 -0.1278
 3579DOPE   PO441992  21.094  33.842   9.787 -0.0760 -0.0181  0.0057
 3579DOPE   GL141993  21.103  33.659  10.092  0.3190  0.1129  0.0349
 3579DOPE   GL241994  21.006  33.836  10.344 -0.3464  0.1176  0.2921
 3579DOPE   C1A41995  21.357  33.560  10.492 -0.0047  0.0456 -0.0033
 3579DOPE   D2A41996  21.269  33.330  10.874  0.2294  0.2577 -0.0824
 3579DOPE   C3A41997  21.437  33.427  11.309 -0.2367 -0.0012  0.3222
 3579DOPE   C4A41998  21.545  33.224  11.718 -0.1525 -0.0843 -0.1194
 3579DOPE   C1B41999  20.724  33.700  10.728  0.2531 -0.1010  0.0864
 3579DOPE   D2B42000  20.618  33.295  10.943  0.1691  0.0924  0.0921
 3579DOPE   C3B42001  20.370  33.138  11.289  0.0942  0.1178  0.1166
 3579DOPE   C4B42002  20.431  32.850  11.655  0.0090  0.1995  0.1014
 3580DOPE   NH342003  28.074  30.557   9.945  0.2245  0.0096 -0.4364
 3580DOPE   PO442004  28.248  30.284   9.984  0.0158 -0.0391  0.0833
 3580DOPE   GL142005  27.939  30.052  10.098  0.2511 -0.3217  0.1876
 3580DOPE   GL242006  27.749  29.978   9.959 -0.0032  0.1556  0.2141
 3580DOPE   C1A42007  27.685  30.113  10.487  0.0082 -0.0337  0.1916
 3580DOPE   D2A42008  27.333  30.381  10.587  0.0809  0.2486  0.0643
 3580DOPE   C3A42009  27.094  30.400  10.984  0.0373 -0.1912 -0.0708
 3580DOPE   C4A42010  26.779  30.513  11.350 -0.2855  0.1106  0.0430
 3580DOPE   C1B42011  27.723  29.671  10.283 -0.4067  0.0743  0.2013
 3580DOPE   D2B42012  27.710  29.556  10.688 -0.1496 -0.0557 -0.0255
 3580DOPE   C3B42013  27.911  29.772  11.047  0.1926  0.0180  0.1218
 3580DOPE   C4B42014  27.898  29.857  11.528 -0.1408  0.0381 -0.1553
 3581POSM   NC342015   0.350  25.409  10.947 -0.3309 -0.0366 -0.2319
 3581POSM   PO442016   0.186  25.255  10.630 -0.1152  0.0319 -0.1568
 3581POSM   AM142017  -0.120  25.262  10.703  0.0249 -0.0329 -0.3258
 3581POSM   AM242018  -0.207  25.336  10.965 -0.2400  0.1710 -0.2364
 3581POSM   T1A42019  -0.547  24.961  10.824 -0.2826  0.0343  0.0685
 3581POSM   C2A42020  -0.902  24.766  10.563  0.0978 -0.1436 -0.1201
 3581POSM   C3A42021  -1.150  24.363  10.483 -0.0256 -0.0231  0.1980
 3581POSM   C1B42022  -0.481  25.244  11.215 -0.1635 -0.0105  0.0035
 3581POSM   D2B42023  -0.898  25.033  11.300 -0.1408  0.1663  0.0930
 3581POSM   C3B42024  -0.973  24.926  11.767 -0.1849  0.3023  0.2447
 3581POSM   C4B42025  -0.948  24.641  12.084 -0.2163  0.1234 -0.1786
 3582DOPC   NC342026  33.389  29.044   9.699 -0.2728 -0.0423 -0.2136
 3582DOPC   PO442027  33.292  29.189  10.066  0.0998 -0.5443 -0.1529
 3582DOPC   GL142028  33.126  29.111  10.411  0.1179  0.1689 -0.1653
 3582DOPC   GL242029  32.821  29.248  10.500  0.1707  0.0568  0.2120
 3582DOPC   C1A42030  33.202  29.410  10.762 -0.0343  0.1174 -0.1315
 3582DOPC   D2A42031  32.847  29.548  10.952  0.2578  0.0973 -0.1017
 3582DOPC   C3A42032  32.455  29.827  11.045 -0.0559  0.0781 -0.0073
 3582DOPC   C4A42033  32.195  29.936  11.387 -0.0665  0.1106  0.1970
 3582DOPC   C1B42034  32.915  28.885  10.797  0.2289 -0.0837  0.1540
 3582DOPC   D2B42035  33.126  28.595  11.119  0.0464  0.2163 -0.0486
 3582DOPC   C3B42036  32.790  28.311  11.296  0.0708 -0.0464 -0.0355
 3582DOPC   C4B42037  32.380  28.276  11.533  0.1884 -0.0283 -0.0079
 3583DOPC   NC342038  30.315  30.001  10.015 -0.2970  0.1342 -0.1800
 3583DOPC   PO442039  29.906  30.037   9.974  0.1277 -0.0182  0.2302
 3583DOPC   GL142040  29.793  30.287  10.226  0.2562 -0.0635 -0.2152
 3583DOPC   GL242041  29.607  30.133  10.438 -0.1040 -0.0865 -0.0360
 3583DOPC   C1A42042  30.013  30.307  10.629  0.1854 -0.1917 -0.1966
 3583DOPC   D2A42043  29.961  30.141  11.089 -0.0765 -0.1178  0.0343
 3583DOPC   C3A42044  29.725  29.801  11.283 -0.3262 -0.2617 -0.0491
 3583DOPC   C4A42045  29.857  29.418  11.493 -0.1185 -0.1028 -0.0772
 3583DOPC   C1B42046  29.531  29.706  10.721  0.0466 -0.0507 -0.0044
 3583DOPC   D2B42047  29.599  29.359  11.076  0.2074 -0.0632  0.0012
 3583DOPC   C3B42048  29.354  29.299  11.465 -0.1109  0.2116 -0.2260
 3583DOPC   C4B42049  28.957  29.241  11.633 -0.2037  0.0548 -0.1258
 3584DOPE   NH342050  31.663   0.994  11.695 -0.2782 -0.0665 -0.1064
 3584DOPE   PO442051  31.477   1.237  11.752  0.1332 -0.1302 -0.2166
 3584DOPE   GL142052  31.564   1.219  12.123  0.0362 -0.5317  0.1408
 3584DOPE   GL242053  31.862   1.127  12.140  0.1932 -0.1579 -0.0745
 3584DOPE   C1A42054  31.665   1.516  12.451  0.0988  0.0776 -0.2750
 3584DOPE   D2A42055  31.526   1.839  12.689 -0.0507 -0.2529 -0.1428
 3584DOPE   C3A42056  31.099   1.939  12.907 -0.0783 -0.2327 -0.0272
 3584DOPE   C4A42057  30.660   1.760  12.837  0.1310  0.1974 -0.0386
 3584DOPE   C1B42058  32.044   0.721  12.195  0.0567 -0.2075  0.0943
 3584DOPE   D2B42059  32.162   0.503  12.577  0.1595  0.1803 -0.1577
 3584DOPE   C3B42060  31.918   0.241  12.885 -0.0336 -0.1419  0.1178
 3584DOPE   C4B42061  32.024  -0.154  12.986  0.0990 -0.0683  0.1053
 3585POSM   NC342062   0.551  33.386  11.249  0.1138  0.1916 -0.2403
 3585POSM   PO442063   0.431  33.748  11.076 -0.0359  0.2287 -0.0398
 3585POSM   AM142064   0.254  33.746  11.351  0.4675 -0.0442 -0.0904
 3585POSM   AM242065   0.207  33.914  11.594 -0.2402  0.1018  0.0102
 3585POSM   T1A42066  -0.098  33.587  11.711  0.3155  0.1451  0.1168
 3585POSM   C2A42067  -0.354  33.425  12.078 -0.2901 -0.2089  0.2012
 3585POSM   C3A42068  -0.248  33.146  12.429 -0.1860 -0.0611 -0.2319
 3585POSM   C1B42069   0.263  33.832  11.930  0.0497  0.1665 -0.1496
 3585POSM   D2B42070   0.085  33.574  12.260  0.1555 -0.0317  0.3890
 3585POSM   C3B42071   0.310  33.280  12.452 -0.1804 -0.2254  0.2016
 3585POSM   C4B42072   0.673  33.040  12.294 -0.0053  0.1918  0.0833
 3586DOPE   NH342073  29.419  29.939  10.015  0.0958 -0.2102 -0.1968
 3586DOPE   PO442074  29.307  29.625   9.946 -0.0915 -0.1155 -0.2970
 3586DOPE   GL142075  29.527  29.483  10.170  0.1929 -0.4253  0.4420
 3586DOPE   GL242076  29.800  29.637  10.277 -0.0290  0.2086 -0.1363
 3586DOPE   C1A42077  29.360  29.265  10.523  0.1683  0.1191  0.0205
 3586DOPE   D2A42078  29.389  28.955  10.829 -0.1904 -0.1869 -0.0312
 3586DOPE   C3A42079  29.066  28.893  11.140 -0.0488  0.0017  0.2188
 3586DOPE   C4A42080  28.655  28.711  11.192 -0.1625  0.2206  0.0047
 3586DOPE   C1B42081  29.897  29.351  10.638  0.2503  0.1860 -0.3028
 3586DOPE   D2B42082  29.999  29.042  10.973  0.0934  0.1096 -0.0253
 3586DOPE   C3B42083  30.436  29.166  10.954  0.0458  0.0034  0.2605
 3586DOPE   C4B42084  30.848  29.278  10.838  0.0773 -0.3039 -0.0788
 3587DOPC   NC342085  31.915  31.112  10.391 -0.0779 -0.0865 -0.4330
 3587DOPC   PO442086  32.249  30.918  10.454  0.0443 -0.3458  0.3900
 3587DOPC   GL142087  32.232  30.585  10.775  0.1949  0.3328  0.2155
 3587DOPC   GL242088  31.929  30.619  10.764  0.0421  0.0792 -0.1518
 3587DOPC   C1A42089  32.288  30.433  11.144 -0.0782  0.2523  0.1450
 3587DOPC   D2A42090  32.218  30.426  11.614  0.1838  0.0390 -0.0575
 3587DOPC   C3A42091  32.382  30.117  11.890  0.1742 -0.0109 -0.0742
 3587DOPC   C4A42092  32.515  29.737  12.119 -0.2774 -0.1341  0.0679
 3587DOPC   C1B42093  31.564  30.600  11.036  0.1823  0.1288  0.1519
 3587DOPC   D2B42094  31.164  30.819  11.205 -0.1080  0.2084 -0.2426
 3587DOPC   C3B42095  30.929  30.497  11.400  0.0173 -0.1197 -0.0894
 3587DOPC   C4B42096  30.946  30.300  11.822  0.1687 -0.4390 -0.0820
 3588DOPS   CNO42097  22.937  24.647   8.895 -0.0125 -0.1321 -0.1957
 3588DOPS   PO442098  22.753  24.857   8.648 -0.4154  0.1437  0.0699
 3588DOPS   GL142099  23.011  25.146   8.846  0.2791  0.2940  0.0290
 3588DOPS   GL242100  23.170  25.098   8.996 -0.3526  0.1607 -0.2379
 3588DOPS   C1A42101  22.815  25.317   9.185  0.0626  0.0529 -0.2093
 3588DOPS   D2A42102  22.842  25.553   9.607 -0.0459 -0.4016  0.2805
 3588DOPS   C3A42103  23.002  25.246   9.934  0.3147 -0.0340 -0.0290
 3588DOPS   C4A42104  23.143  24.896  10.187  0.1637 -0.2639 -0.0513
 3588DOPS   C1B42105  23.661  25.098   9.229 -0.1448 -0.1873 -0.0226
 3588DOPS   D2B42106  23.657  25.189   9.698  0.0233  0.2417  0.2726
 3588DOPS   C3B42107  23.532  25.279  10.199  0.1681  0.2525  0.1879
 3588DOPS   C4B42108  23.446  25.047  10.598  0.2080 -0.2292  0.1515
 3589DOPE   NH342109  25.749   0.084  10.229  0.0347  0.0591 -0.0490
 3589DOPE   PO442110  25.483   0.169  10.101 -0.0987  0.5011 -0.2049
 3589DOPE   GL142111  25.354   0.489  10.318 -0.1695  0.4449  0.0527
 3589DOPE   GL242112  25.200   0.404  10.523 -0.0101  0.0375 -0.2792
 3589DOPE   C1A42113  25.596   0.808  10.526 -0.3865 -0.0133  0.2123
 3589DOPE   D2A42114  25.815   0.850  10.967 -0.0686  0.0871 -0.0827
 3589DOPE   C3A42115  26.226   1.008  10.998  0.1482  0.0738 -0.1091
 3589DOPE   C4A42116  26.689   0.895  11.059  0.0082  0.1932 -0.0067
 3589DOPE   C1B42117  25.515   0.386  10.833 -0.2094 -0.0922 -0.2721
 3589DOPE   D2B42118  25.792   0.304  11.182  0.3627  0.0732 -0.1703
 3589DOPE   C3B42119  25.736   0.028  11.539 -0.0461 -0.0946 -0.1063
 3589DOPE   C4B42120  26.002  -0.214  11.847 -0.1737 -0.0364  0.2100
 3590DOPE   NH342121  29.182  30.565   9.808 -0.1436  0.1252 -0.2756
 3590DOPE   PO442122  29.207  30.442  10.111  0.1026  0.2211  0.0775
 3590DOPE   GL142123  28.927  30.503  10.463  0.0855  0.2291  0.1612
 3590DOPE   GL242124  29.223  30.480  10.621 -0.0801  0.0180  0.1190
 3590DOPE   C1A42125  28.868  30.701  10.862  0.4496  0.3165  0.1811
 3590DOPE   D2A42126  28.821  30.820  11.336 -0.1274  0.1253  0.2203
 3590DOPE   C3A42127  28.703  30.580  11.735  0.0417 -0.0427 -0.0285
 3590DOPE   C4A42128  28.703  30.512  12.153  0.3504  0.0253  0.1756
 3590DOPE   C1B42129  29.434  30.202  10.921 -0.1000  0.0552  0.3045
 3590DOPE   D2B42130  29.532  30.282  11.360 -0.1969 -0.1574 -0.0378
 3590DOPE   C3B42131  29.221  30.512  11.656 -0.4220 -0.0051  0.1453
 3590DOPE   C4B42132  29.093  30.968  11.796 -0.0489 -0.1243  0.0113
 3591DOPS   CNO42133  33.165   0.787  11.468 -0.2031 -0.4409 -0.1355
 3591DOPS   PO442134  33.322   0.487  11.685 -0.1601 -0.1155 -0.1654
 3591DOPS   GL142135  33.265   0.559  12.091 -0.3142  0.5556 -0.2285
 3591DOPS   GL242136  32.998   0.635  11.996 -0.1332  0.0865  0.2732
 3591DOPS   C1A42137  33.287   0.562  12.598  0.0428 -0.1594  0.0652
 3591DOPS   D2A42138  33.375   0.610  13.017  0.1741 -0.0178 -0.0573
 3591DOPS   C3A42139  33.179   0.637  13.475 -0.2348 -0.0926 -0.3598
 3591DOPS   C4A42140  32.871   0.439  13.760 -0.1935  0.1449 -0.1126
 3591DOPS   C1B42141  32.958   0.938  12.318 -0.0647  0.0251  0.0157
 3591DOPS   D2B42142  32.779   0.900  12.753 -0.0926 -0.1196 -0.2890
 3591DOPS   C3B42143  32.406   0.846  12.919 -0.0438  0.0692 -0.1342
 3591DOPS   C4B42144  32.192   0.696  13.332 -0.3845 -0.2264 -0.1547
 3592DOPE   NH342145  33.164  26.790  10.060 -0.0112  0.1220 -0.0205
 3592DOPE   PO442146  33.297  26.542  10.213  0.0714  0.2172 -0.1941
 3592DOPE   GL142147  32.910  26.499  10.318  0.1045  0.2811 -0.2679
 3592DOPE   GL242148  32.822  26.182  10.315 -0.1396  0.0158 -0.0951
 3592DOPE   C1A42149  32.697  26.462  10.720  0.1147  0.0224  0.1808
 3592DOPE   D2A42150  32.405  26.649  11.097  0.0036 -0.1269 -0.4345
 3592DOPE   C3A42151  32.434  26.405  11.526 -0.0295 -0.0300 -0.1730
 3592DOPE   C4A42152  32.451  26.147  11.891  0.2014  0.0423  0.2765
 3592DOPE   C1B42153  32.735  25.966  10.740  0.1124  0.0828  0.0176
 3592DOPE   D2B42154  32.578  26.101  11.162  0.0759  0.0000 -0.0297
 3592DOPE   C3B42155  32.870  26.489  11.277  0.1294 -0.2691 -0.0143
 3592DOPE   C4B42156  33.088  26.753  11.597  0.1200  0.1702  0.4849
 3593DOPS   CNO42157  27.985  26.932   9.023  0.0201  0.0883  0.0509
 3593DOPS   PO442158  27.889  26.800   9.358 -0.0558  0.3100  0.0013
 3593DOPS   GL142159  28.112  26.527   9.630 -0.3322 -0.0447  0.5128
 3593DOPS   GL242160  28.226  26.734   9.837 -0.0019  0.0832  0.3304
 3593DOPS   C1A42161  27.826  26.377   9.972  0.2089 -0.1353 -0.1253
 3593DOPS   D2A42162  27.670  26.180  10.378  0.0416 -0.1026  0.2460
 3593DOPS   C3A42163  27.341  26.312  10.714 -0.0940  0.2496  0.0694
 3593DOPS   C4A42164  26.934  26.461  10.805  0.0663  0.0570 -0.0750
 3593DOPS   C1B42165  28.190  26.807  10.303  0.1480  0.1744 -0.0969
 3593DOPS   D2B42166  28.354  26.704  10.754 -0.2078  0.3856  0.0141
 3593DOPS   C3B42167  28.171  26.536  11.150  0.0682 -0.0552 -0.1675
 3593DOPS   C4B42168  27.875  26.428  11.418  0.3574 -0.2083 -0.0735
 3594DOPS   CNO42169   0.618  25.726  10.160  0.2968  0.2360  0.1868
 3594DOPS   PO442170   0.731  26.112  10.219  0.0733  0.1594  0.5374
 3594DOPS   GL142171   0.662  26.096  10.816 -0.0391 -0.1012  0.1404
 3594DOPS   GL242172   0.455  25.931  10.999  0.0021 -0.1206 -0.0326
 3594DOPS   C1A42173   0.835  26.292  11.195  0.0291  0.3854  0.0659
 3594DOPS   D2A42174   1.092  26.547  11.499  0.0188  0.1072 -0.2273
 3594DOPS   C3A42175   1.083  26.519  11.943  0.1173 -0.6173  0.0207
 3594DOPS   C4A42176   1.332  26.464  12.332  0.2026  0.0766 -0.0950
 3594DOPS   C1B42177   0.541  25.899  11.494  0.3043 -0.0599  0.0878
 3594DOPS   D2B42178   0.580  25.791  11.946  0.1902 -0.1311  0.2769
 3594DOPS   C3B42179   0.956  25.724  12.225  0.0353  0.1748 -0.0581
 3594DOPS   C4B42180   1.365  25.924  12.127 -0.0140  0.6027  0.3573
 3595DOPC   NC342181  26.193  27.085   8.827 -0.2784 -0.0334 -0.2019
 3595DOPC   PO442182  26.446  26.897   9.069 -0.0473  0.0312 -0.1540
 3595DOPC   GL142183  26.312  26.853   9.466  0.1498 -0.0166  0.3047
 3595DOPC   GL242184  26.322  26.552   9.500  0.1136 -0.0661  0.0936
 3595DOPC   C1A42185  26.442  26.768   9.939 -0.2550  0.0794  0.2424
 3595DOPC   D2A42186  26.191  26.584  10.263  0.2322 -0.0866 -0.1147
 3595DOPC   C3A42187  25.956  26.924  10.547  0.1101  0.0854  0.0114
 3595DOPC   C4A42188  25.833  27.389  10.597 -0.0332 -0.1962  0.0900
 3595DOPC   C1B42189  25.958  26.731   9.818 -0.1211 -0.1582 -0.3095
 3595DOPC   D2B42190  25.675  26.712  10.179  0.3183  0.2336 -0.2795
 3595DOPC   C3B42191  25.342  26.983  10.418 -0.2571  0.0658  0.2067
 3595DOPC   C4B42192  24.904  26.871  10.495 -0.0672 -0.2974  0.1709
 3596DOPC   NC342193  32.444  31.855  10.646 -0.1661 -0.0204  0.1538
 3596DOPC   PO442194  32.752  31.644  10.521 -0.0645 -0.2076  0.1087
 3596DOPC   GL142195  32.788  31.570  10.932 -0.0457  0.0815 -0.3588
 3596DOPC   GL242196  32.528  31.334  10.926  0.0829 -0.3420  0.1274
 3596DOPC   C1A42197  33.150  31.551  11.175  0.1845 -0.0657 -0.0971
 3596DOPC   D2A42198  33.292  31.608  11.583 -0.1077  0.0831 -0.0889
 3596DOPC   C3A42199  33.374  31.342  11.932  0.0321  0.1905  0.0953
 3596DOPC   C4A42200  33.336  31.026  12.316 -0.4741  0.0275 -0.0200
 3596DOPC   C1B42201  32.675  31.349  11.371  0.1969 -0.1007  0.3434
 3596DOPC   D2B42202  32.600  31.491  11.809  0.0885 -0.0782  0.3987
 3596DOPC   C3B42203  32.249  31.267  12.040  0.0555 -0.2765  0.0075
 3596DOPC   C4B42204  32.025  30.992  12.374 -0.2831  0.0539  0.3033
 3597DOPE   NH342205  28.489  28.691   9.347 -0.0994  0.0143  0.0402
 3597DOPE   PO442206  28.277  28.887   9.465 -0.1748  0.0253  0.1944
 3597DOPE   GL142207  28.431  28.676   9.779  0.1905  0.5923  0.2098
 3597DOPE   GL242208  28.519  28.409   9.796 -0.1364  0.0743  0.0189
 3597DOPE   C1A42209  28.185  28.724  10.204  0.0949  0.3132  0.0885
 3597DOPE   D2A42210  28.043  28.521  10.621 -0.3079  0.0127  0.1650
 3597DOPE   C3A42211  28.334  28.352  10.867  0.2066  0.0341 -0.1519
 3597DOPE   C4A42212  28.519  28.146  11.279  0.0130  0.2897 -0.0127
 3597DOPE   C1B42213  28.274  28.012   9.729  0.0390 -0.1250 -0.1211
 3597DOPE   D2B42214  27.975  27.669   9.826 -0.0259  0.1638  0.0299
 3597DOPE   C3B42215  27.780  27.498  10.203 -0.0798 -0.0459  0.0386
 3597DOPE   C4B42216  27.483  27.301  10.472  0.2745  0.2073  0.2579
 3598DOPC   NC342217  33.654  34.178  11.627 -0.0919  0.0719 -0.0130
 3598DOPC   PO442218  33.837  34.112  11.247 -0.1406  0.0168  0.3671
 3598DOPC   GL142219  34.107  34.045  11.553  0.1010 -0.0404  0.0269
 3598DOPC   GL242220  34.200  34.282  11.774  0.0637  0.2123  0.0178
 3598DOPC   C1A42221  33.964  33.878  11.950 -0.0053 -0.2412 -0.1396
 3598DOPC   D2A42222  33.892  33.814  12.459  0.0925  0.3967  0.0144
 3598DOPC   C3A42223  33.829  33.382  12.665 -0.1597  0.1655 -0.0170
 3598DOPC   C4A42224  33.827  32.971  12.777 -0.0695  0.1699 -0.0059
 3598DOPC   C1B42225  34.284  34.178  12.216  0.0912 -0.0084 -0.3676
 3598DOPC   D2B42226  34.445  33.935  12.564  0.1732 -0.0690 -0.0480
 3598DOPC   C3B42227  34.146  34.009  12.925  0.0466  0.0432 -0.0374
 3598DOPC   C4B42228  33.947  33.943  13.324  0.4147 -0.2593  0.1658
 3599POSM   NC342229  27.348  25.180   9.220  0.1080  0.4279 -0.3635
 3599POSM   PO442230  27.202  25.520   9.055 -0.2056 -0.0255 -0.0078
 3599POSM   AM142231  27.101  25.582   9.333 -0.3025  0.1972  0.3833
 3599POSM   AM242232  26.900  25.756   9.480 -0.3737  0.0765  0.0403
 3599POSM   T1A42233  27.142  25.492   9.826 -0.1043  0.4168  0.2178
 3599POSM   C2A42234  27.377  25.438  10.206  0.0524  0.0791  0.1090
 3599POSM   C3A42235  27.753  25.505  10.456  0.0179 -0.3105 -0.2218
 3599POSM   C1B42236  27.043  25.951   9.740 -0.2368  0.0529  0.0335
 3599POSM   D2B42237  27.058  26.110  10.187  0.2751 -0.0224  0.0841
 3599POSM   C3B42238  27.328  25.871  10.460 -0.2808 -0.4173  0.1094
 3599POSM   C4B42239  27.540  25.796  10.911 -0.0823  0.1854 -0.1437
 3600DOPC   NC342240  26.644  31.766  10.215 -0.0744  0.0206 -0.0124
 3600DOPC   PO442241  26.448  32.081  10.030 -0.0522 -0.1076 -0.0191
 3600DOPC   GL142242  26.485  32.279  10.389 -0.0975  0.5560 -0.0429
 3600DOPC   GL242243  26.199  32.198  10.463 -0.2433 -0.1322  0.1071
 3600DOPC   C1A42244  26.610  32.027  10.754  0.2004 -0.0150  0.1054
 3600DOPC   D2A42245  26.786  31.876  11.198  0.0929 -0.0071  0.4148
 3600DOPC   C3A42246  26.704  31.454  11.470 -0.0660 -0.4662  0.0684
 3600DOPC   C4A42247  26.797  31.248  11.910 -0.0273  0.0705 -0.5075
 3600DOPC   C1B42248  26.132  32.050  10.923  0.2541 -0.1155  0.0570
 3600DOPC   D2B42249  25.947  31.992  11.315 -0.2072 -0.2123 -0.3502
 3600DOPC   C3B42250  26.079  32.350  11.590 -0.2126 -0.1781  0.2315
 3600DOPC   C4B42251  26.360  32.708  11.656 -0.2335 -0.1356 -0.0654
 3601DOPC   NC342252  31.809  33.853  11.576  0.1070 -0.2704  0.0412
 3601DOPC   PO442253  31.855  33.529  11.342  0.0552  0.1831  0.3136
 3601DOPC   GL142254  32.195  33.682  11.523  0.2658  0.1421  0.0468
 3601DOPC   GL242255  32.129  33.481  11.778 -0.1950  0.1184  0.0250
 3601DOPC   C1A42256  32.525  33.857  11.797 -0.2696  0.2350  0.1913
 3601DOPC   D2A42257  32.635  33.845  12.239  0.2788  0.0054 -0.0818
 3601DOPC   C3A42258  33.006  33.898  12.479  0.1316  0.1769  0.2545
 3601DOPC   C4A42259  33.361  33.647  12.600  0.0557  0.2366 -0.1084
 3601DOPC   C1B42260  31.768  33.574  12.022 -0.0276 -0.0295  0.0183
 3601DOPC   D2B42261  31.666  33.456  12.430 -0.0736  0.0460 -0.1824
 3601DOPC   C3B42262  31.829  33.461  12.872  0.0310 -0.1601  0.2917
 3601DOPC   C4B42263  32.119  33.347  13.227  0.1139  0.1866 -0.1133
 3602DOPE   NH342264  26.641  32.865   9.874 -0.1405  0.1144 -0.2004
 3602DOPE   PO442265  26.481  33.091   9.899  0.0331  0.1655  0.1870
 3602DOPE   GL142266  26.307  33.044  10.198  0.4696  0.1923  0.0396
 3602DOPE   GL242267  26.110  33.145  10.346  0.0222 -0.1199  0.2752
 3602DOPE   C1A42268  26.414  32.724  10.529  0.1219  0.0719  0.1273
 3602DOPE   D2A42269  26.363  32.481  10.906  0.0206  0.2605  0.1455
 3602DOPE   C3A42270  26.187  32.730  11.167 -0.0250 -0.0963 -0.1333
 3602DOPE   C4A42271  25.882  32.811  11.508 -0.1527 -0.1478 -0.2225
 3602DOPE   C1B42272  26.171  33.071  10.794 -0.3743 -0.0313  0.1442
 3602DOPE   D2B42273  25.727  33.028  11.068 -0.0406  0.1549 -0.0861
 3602DOPE   C3B42274  25.623  33.266  11.436 -0.1305 -0.0744  0.0466
 3602DOPE   C4B42275  25.476  33.210  11.854  0.3334 -0.1598  0.0999
 3603DOPE   NH342276  26.745   0.155  10.526  0.1239  0.1100  0.1727
 3603DOPE   PO442277  26.507   0.038  10.426 -0.2501  0.1244  0.0260
 3603DOPE   GL142278  26.384  -0.079  10.793  0.2340 -0.0941  0.1245
 3603DOPE   GL242279  26.122   0.058  10.843  0.2831  0.1338  0.2480
 3603DOPE   C1A42280  26.513  -0.326  11.123  0.0381 -0.0853  0.1794
 3603DOPE   D2A42281  26.368  -0.733  11.302  0.1968  0.1217 -0.2102
 3603DOPE   C3A42282  26.227  -0.807  11.726  0.3262 -0.2140 -0.1213
 3603DOPE   C4A42283  26.163  -0.685  12.197 -0.1562 -0.0683 -0.1525
 3603DOPE   C1B42284  26.187   0.051  11.332 -0.0565  0.1082 -0.0415
 3603DOPE   D2B42285  26.317   0.215  11.715  0.3683 -0.0618 -0.1607
 3603DOPE   C3B42286  26.096   0.227  12.167 -0.0053 -0.1227  0.0768
 3603DOPE   C4B42287  26.218   0.291  12.581 -0.5654 -0.2340  0.0338
 3604DOPC   NC342288  22.085  30.862   9.642 -0.0439 -0.2057  0.2370
 3604DOPC   PO442289  22.302  31.153   9.467 -0.1480 -0.1153  0.0914
 3604DOPC   GL142290  22.509  31.155   9.774  0.0039 -0.2872 -0.0021
 3604DOPC   GL242291  22.375  31.021   9.996  0.0309  0.1532  0.1830
 3604DOPC   C1A42292  22.812  30.855   9.891 -0.1848  0.0244 -0.1845
 3604DOPC   D2A42293  22.864  30.489  10.186  0.2476 -0.0903 -0.0578
 3604DOPC   C3A42294  22.795  30.689  10.654 -0.1510 -0.1450  0.1248
 3604DOPC   C4A42295  22.887  30.792  11.103 -0.0808  0.4865 -0.2847
 3604DOPC   C1B42296  22.678  31.084  10.334  0.1034 -0.0509 -0.2116
 3604DOPC   D2B42297  22.800  31.284  10.719  0.1121  0.0666 -0.0444
 3604DOPC   C3B42298  22.584  31.225  11.065 -0.0237 -0.1801  0.2996
 3604DOPC   C4B42299  22.482  30.952  11.450 -0.0161 -0.0800 -0.0689
 3605DOPE   NH342300   1.096  28.485  10.742  0.1139 -0.0730  0.3370
 3605DOPE   PO442301   0.891  28.677  10.562  0.1646  0.0742 -0.1230
 3605DOPE   GL142302   0.846  28.839  10.915 -0.1227  0.0313 -0.0171
 3605DOPE   GL242303   0.608  28.957  10.932 -0.1448  0.1528 -0.1292
 3605DOPE   C1A42304   1.203  28.779  11.191 -0.1546  0.0755 -0.0766
 3605DOPE   D2A42305   1.536  28.478  11.387 -0.0497  0.2089  0.1544
 3605DOPE   C3A42306   1.734  28.095  11.636  0.0361 -0.1158 -0.1074
 3605DOPE   C4A42307   1.705  28.168  12.078 -0.0554  0.1060  0.0921
 3605DOPE   C1B42308   0.468  28.909  11.379  0.0776  0.1149  0.1051
 3605DOPE   D2B42309   0.396  28.893  11.868  0.1955 -0.3759  0.2558
 3605DOPE   C3B42310   0.224  29.256  12.202 -0.2736 -0.3933 -0.1268
 3605DOPE   C4B42311   0.307  29.713  12.259  0.2307 -0.0581 -0.1722
 3606DOPS   CNO42312  30.210  33.709  10.824 -0.0645  0.1495 -0.3138
 3606DOPS   PO442313  30.293  33.352  10.813  0.2806 -0.1564 -0.0534
 3606DOPS   GL142314  30.500  33.380  11.091 -0.1256 -0.1458  0.1116
 3606DOPS   GL242315  30.267  33.333  11.312  0.2365 -0.1377 -0.1546
 3606DOPS   C1A42316  30.781  33.176  11.390  0.0556 -0.2317  0.0213
 3606DOPS   D2A42317  30.778  32.887  11.712  0.1165  0.1237  0.0158
 3606DOPS   C3A42318  30.974  32.865  12.066  0.2073  0.1674 -0.0684
 3606DOPS   C4A42319  31.299  32.955  12.341  0.2116 -0.0183  0.1248
 3606DOPS   C1B42320  30.441  33.313  11.733 -0.1845 -0.2730  0.0692
 3606DOPS   D2B42321  30.497  33.246  12.167  0.3439 -0.1573  0.2452
 3606DOPS   C3B42322  30.835  33.163  12.491 -0.0996  0.0543  0.0417
 3606DOPS   C4B42323  30.897  32.914  12.882 -0.0410 -0.0056  0.0448
 3607DOPC   NC342324  26.446   1.835  10.058  0.1317 -0.2271  0.2626
 3607DOPC   PO442325  26.107   1.937  10.223 -0.1638 -0.0600  0.3257
 3607DOPC   GL142326  25.944   1.986  10.498 -0.1254  0.4629 -0.1726
 3607DOPC   GL242327  26.035   1.716  10.668 -0.0059 -0.1114 -0.0816
 3607DOPC   C1A42328  25.564   1.754  10.560 -0.0792  0.3886 -0.1094
 3607DOPC   D2A42329  25.111   1.712  10.659 -0.1980  0.0222 -0.1747
 3607DOPC   C3A42330  25.012   1.497  11.026 -0.1362  0.0831  0.0256
 3607DOPC   C4A42331  24.835   1.079  11.104 -0.0461  0.1995 -0.0133
 3607DOPC   C1B42332  26.161   1.526  11.094  0.0463 -0.3183 -0.2793
 3607DOPC   D2B42333  26.152   1.411  11.539 -0.0160 -0.2785 -0.1214
 3607DOPC   C3B42334  25.626   1.318  11.601  0.1189 -0.2562  0.1784
 3607DOPC   C4B42335  25.368   0.922  11.790  0.0668  0.2260  0.0349
 3608POSM   NC342336  33.313  31.044   9.995  0.3602  0.1780 -0.0140
 3608POSM   PO442337  33.031  30.890  10.211 -0.0136  0.1543 -0.0101
 3608POSM   AM142338  32.902  30.861  10.521 -0.0126 -0.0976 -0.0008
 3608POSM   AM242339  32.672  30.891  10.694  0.4098  0.1847  0.1312
 3608POSM   T1A42340  33.005  30.644  10.976  0.1832  0.0350  0.1041
 3608POSM   C2A42341  33.076  30.466  11.386 -0.1227  0.0964  0.0074
 3608POSM   C3A42342  33.259  30.331  11.731 -0.0312  0.1931  0.1771
 3608POSM   C1B42343  32.557  30.835  11.036 -0.0952  0.0455  0.1577
 3608POSM   D2B42344  32.741  30.743  11.454  0.0705 -0.0457  0.0440
 3608POSM   C3B42345  32.738  30.429  11.776 -0.3354 -0.0476 -0.3112
 3608POSM   C4B42346  32.913  30.108  12.050  0.2360  0.1654  0.0564
 3609DOPC   NC342347  27.086  30.723   9.980  0.2868  0.0589  0.1741
 3609DOPC   PO442348  26.726  30.818   9.897  0.1006  0.0232  0.0502
 3609DOPC   GL142349  26.633  30.854  10.283 -0.4108 -0.5209 -0.1245
 3609DOPC   GL242350  26.463  30.675  10.377 -0.2996 -0.1245 -0.0740
 3609DOPC   C1A42351  26.386  31.143  10.634 -0.1367  0.2259 -0.2220
 3609DOPC   D2A42352  26.348  31.221  11.079  0.2405  0.0802  0.0423
 3609DOPC   C3A42353  26.152  30.926  11.344 -0.1251  0.0251 -0.1943
 3609DOPC   C4A42354  26.048  31.041  11.815  0.4368  0.0972 -0.4432
 3609DOPC   C1B42355  26.193  30.697  10.786  0.1185 -0.3114 -0.1957
 3609DOPC   D2B42356  25.796  30.535  10.852 -0.0559 -0.0729 -0.2358
 3609DOPC   C3B42357  25.494  30.320  11.179 -0.0203 -0.4676  0.4350
 3609DOPC   C4B42358  25.178  30.036  11.445 -0.2328 -0.1913 -0.5309
 3610POSM   NC342359  28.971  33.357  10.454  0.3458 -0.1757  0.0589
 3610POSM   PO442360  29.088  33.011  10.542  0.0335 -0.1562  0.0769
 3610POSM   AM142361  28.818  32.970  10.696  0.0676  0.0001  0.0361
 3610POSM   AM242362  28.640  33.111  10.884  0.0299  0.0808 -0.1966
 3610POSM   T1A42363  28.578  32.599  10.935  0.0169  0.1177  0.2045
 3610POSM   C2A42364  28.191  32.398  11.007  0.0871 -0.4475 -0.0203
 3610POSM   C3A42365  27.969  32.413  11.403  0.1644  0.2122  0.3139
 3610POSM   C1B42366  28.707  33.086  11.232  0.2124  0.0609  0.0514
 3610POSM   D2B42367  28.756  32.893  11.668 -0.2730  0.0320 -0.0767
 3610POSM   C3B42368  28.791  33.154  11.983  0.0527 -0.2896  0.2001
 3610POSM   C4B42369  28.541  33.356  12.303 -0.1043  0.0724  0.0110
 3611DOPE   NH342370  25.836  30.307   9.923 -0.2113  0.3403 -0.2045
 3611DOPE   PO442371  25.504  30.445   9.915 -0.1492 -0.1449  0.1163
 3611DOPE   GL142372  25.362  30.222  10.137  0.1354  0.0471  0.0475
 3611DOPE   GL242373  25.556  29.961  10.182 -0.2617 -0.0354 -0.2274
 3611DOPE   C1A42374  25.360  30.092  10.590 -0.1449  0.1703  0.7013
 3611DOPE   D2A42375  25.124  30.159  10.971  0.2757 -0.4458  0.2017
 3611DOPE   C3A42376  24.739  30.033  11.102 -0.1213  0.0366 -0.0841
 3611DOPE   C4A42377  24.348  29.893  11.307 -0.2012 -0.1541 -0.0765
 3611DOPE   C1B42378  25.814  29.711  10.534 -0.1044  0.0498  0.1595
 3611DOPE   D2B42379  25.990  29.487  10.809 -0.0992 -0.0345  0.0855
 3611DOPE   C3B42380  26.137  29.097  11.060 -0.1602 -0.1263 -0.0774
 3611DOPE   C4B42381  26.207  28.670  11.346  0.1877  0.1486 -0.3379
 3612DOPE   NH342382   1.189  29.977  10.667  0.2349  0.2085  0.4024
 3612DOPE   PO442383   0.971  29.741  10.644 -0.3048 -0.0370  0.2332
 3612DOPE   GL142384   1.076  29.610  10.964  0.0795 -0.2128  0.0820
 3612DOPE   GL242385   0.843  29.701  11.194 -0.1921  0.0916 -0.0469
 3612DOPE   C1A42386   1.320  29.264  11.112 -0.1480  0.1940 -0.1447
 3612DOPE   D2A42387   1.456  29.271  11.539  0.0481  0.0091  0.1796
 3612DOPE   C3A42388   1.472  28.889  11.846  0.1194 -0.2527 -0.1843
 3612DOPE   C4A42389   1.576  28.658  12.196  0.1057 -0.3149 -0.2366
 3612DOPE   C1B42390   1.034  29.607  11.593  0.1784 -0.1324 -0.1794
 3612DOPE   D2B42391   0.982  29.848  11.986 -0.0585 -0.3970 -0.0355
 3612DOPE   C3B42392   1.319  29.720  12.266 -0.1234  0.1399  0.0687
 3612DOPE   C4B42393   1.331  29.416  12.599  0.1354 -0.2928  0.0477
 3613DOPS   CNO42394  30.127  25.714   9.520  0.1692  0.2122  0.2569
 3613DOPS   PO442395  30.169  25.413   9.733  0.2147 -0.0721 -0.1169
 3613DOPS   GL142396  30.197  25.394  10.139  0.0986  0.3505 -0.0433
 3613DOPS   GL242397  30.027  25.127  10.292 -0.1051  0.0853  0.3082
 3613DOPS   C1A42398  30.366  25.742  10.428  0.1648 -0.2643  0.0249
 3613DOPS   D2A42399  30.123  25.768  10.819  0.1331 -0.0737  0.3425
 3613DOPS   C3A42400  30.260  25.841  11.217 -0.0193 -0.0879  0.0877
 3613DOPS   C4A42401  30.263  25.654  11.629 -0.0650  0.1431 -0.0667
 3613DOPS   C1B42402  29.759  24.983  10.618  0.2499  0.2721 -0.2452
 3613DOPS   D2B42403  29.431  24.890  10.910  0.0954 -0.2311  0.0837
 3613DOPS   C3B42404  29.224  24.659  11.220 -0.2830  0.0248 -0.0263
 3613DOPS   C4B42405  29.049  24.295  11.337  0.1275  0.1316  0.3537
 3614DOPE   NH342406  22.657  26.304   8.523 -0.3149 -0.0030 -0.2724
 3614DOPE   PO442407  22.658  26.636   8.571  0.0067 -0.0508 -0.1574
 3614DOPE   GL142408  22.878  26.561   8.916 -0.2519  0.0884 -0.3160
 3614DOPE   GL242409  22.645  26.390   9.077  0.1860 -0.2070  0.0932
 3614DOPE   C1A42410  23.159  26.551   9.299 -0.1342 -0.0188 -0.0773
 3614DOPE   D2A42411  23.443  26.529   9.682 -0.2143 -0.1823  0.0144
 3614DOPE   C3A42412  23.549  26.901   9.835  0.2011 -0.2804 -0.0709
 3614DOPE   C4A42413  23.442  27.134  10.209  0.0237 -0.4134  0.0796
 3614DOPE   C1B42414  22.890  26.185   9.467  0.1236 -0.0430  0.1737
 3614DOPE   D2B42415  22.930  25.975   9.892 -0.0988 -0.4729 -0.0147
 3614DOPE   C3B42416  23.244  26.224  10.104 -0.3666  0.1319  0.2336
 3614DOPE   C4B42417  23.308  26.646  10.334 -0.3524 -0.0960  0.0985
 3615DOPE   NH342418  31.091  25.875   9.533  0.0716 -0.2714 -0.1171
 3615DOPE   PO442419  31.313  25.812   9.746  0.2706 -0.2163 -0.0684
 3615DOPE   GL142420  31.093  25.853   9.991 -0.3863  0.0748  0.1997
 3615DOPE   GL242421  30.869  25.714  10.228 -0.1087 -0.0437 -0.0596
 3615DOPE   C1A42422  30.946  26.207  10.256  0.3033  0.2165 -0.1042
 3615DOPE   D2A42423  30.610  26.214  10.550 -0.3478  0.1977  0.1330
 3615DOPE   C3A42424  30.688  26.112  10.945 -0.2320  0.3737  0.1290
 3615DOPE   C4A42425  30.875  26.233  11.391  0.1192 -0.0432  0.1338
 3615DOPE   C1B42426  30.968  25.863  10.644  0.1403 -0.0434 -0.0286
 3615DOPE   D2B42427  31.191  25.908  11.057  0.1200 -0.2411  0.2020
 3615DOPE   C3B42428  31.202  25.842  11.502  0.3315 -0.0067 -0.0074
 3615DOPE   C4B42429  31.117  25.625  11.895 -0.1077 -0.0513 -0.2130
 3616POSM   NC342430  34.168   0.880  11.602  0.2542 -0.0211  0.0754
 3616POSM   PO442431  34.218   0.674  11.951  0.1143  0.1343  0.0758
 3616POSM   AM142432  34.301   0.722  12.273 -0.2501 -0.3281  0.3223
 3616POSM   AM242433  34.389   0.923  12.440  0.6920 -0.0897  0.0251
 3616POSM   T1A42434  34.351   0.495  12.722 -0.0820 -0.0714 -0.0479
 3616POSM   C2A42435  34.694   0.318  12.989  0.3275 -0.1529 -0.1290
 3616POSM   C3A42436  35.005   0.104  13.281  0.0353  0.0073 -0.1283
 3616POSM   C1B42437  34.130   0.948  12.644  0.1290  0.0201 -0.0689
 3616POSM   D2B42438  33.744   0.949  12.823  0.3755  0.2911  0.0620
 3616POSM   C3B42439  33.685   1.062  13.264  0.5517  0.0542 -0.1138
 3616POSM   C4B42440  33.299   1.136  13.576 -0.0697 -0.0756 -0.0470
 3617DOPC   NC342441   1.490  32.778  10.397 -0.2749 -0.3235 -0.1390
 3617DOPC   PO442442   1.103  32.945  10.456  0.0299 -0.0014 -0.1514
 3617DOPC   GL142443   1.233  32.931  10.804 -0.3054  0.0315 -0.1573
 3617DOPC   GL242444   0.980  32.736  10.983 -0.2020 -0.1350  0.1000
 3617DOPC   C1A42445   1.392  33.012  11.247  0.1888 -0.0107 -0.0205
 3617DOPC   D2A42446   1.396  32.915  11.703 -0.3555  0.1712 -0.1589
 3617DOPC   C3A42447   1.351  32.808  12.185 -0.1930  0.1112  0.0140
 3617DOPC   C4A42448   1.483  32.810  12.604  0.0890  0.0174  0.1467
 3617DOPC   C1B42449   1.079  32.644  11.409  0.5029  0.2435  0.1127
 3617DOPC   D2B42450   0.958  32.719  11.875  0.1923  0.0928 -0.0571
 3617DOPC   C3B42451   1.003  33.184  11.922  0.0463  0.0718 -0.1304
 3617DOPC   C4B42452   1.108  33.467  12.277  0.0534 -0.0048  0.0867
 3618DOPC   NC342453  28.927  25.910   9.411 -0.0881 -0.0719  0.1296
 3618DOPC   PO442454  29.182  26.202   9.576 -0.0216 -0.0800 -0.0007
 3618DOPC   GL142455  29.045  26.442   9.885  0.2504 -0.0681 -0.0940
 3618DOPC   GL242456  28.939  26.241  10.052  0.0551 -0.0052 -0.2183
 3618DOPC   C1A42457  29.163  26.537  10.347  0.0898 -0.2907  0.3728
 3618DOPC   D2A42458  29.321  26.709  10.768 -0.2314 -0.1643  0.1102
 3618DOPC   C3A42459  29.696  27.027  10.830 -0.1987  0.1535  0.5279
 3618DOPC   C4A42460  30.107  27.172  10.988  0.1545  0.2862 -0.1025
 3618DOPC   C1B42461  29.109  25.964  10.332 -0.1628 -0.0974  0.1298
 3618DOPC   D2B42462  29.331  25.757  10.701  0.0713  0.2300  0.2284
 3618DOPC   C3B42463  29.578  25.993  10.999  0.0043 -0.4458 -0.0543
 3618DOPC   C4B42464  30.048  26.195  11.010 -0.0385  0.4050  0.0527
 3619DOPE   NH342465  27.264  23.776   9.170 -0.0247  0.1370 -0.2848
 3619DOPE   PO442466  27.172  23.427   9.224 -0.5062 -0.5954 -0.0149
 3619DOPE   GL142467  27.334  23.382   9.611 -0.0437 -0.0544 -0.0674
 3619DOPE   GL242468  27.472  23.668   9.677 -0.1541 -0.0672 -0.3044
 3619DOPE   C1A42469  27.363  23.387  10.131  0.2296 -0.0072 -0.0003
 3619DOPE   D2A42470  27.110  23.515  10.497 -0.0323  0.0240  0.0386
 3619DOPE   C3A42471  27.349  23.701  10.840  0.0047  0.1879 -0.1891
 3619DOPE   C4A42472  27.394  24.065  11.071 -0.1745  0.2802 -0.0915
 3619DOPE   C1B42473  27.072  23.680   9.927  0.1637 -0.0930  0.0961
 3619DOPE   D2B42474  26.804  23.817  10.283 -0.0228  0.3080 -0.0684
 3619DOPE   C3B42475  26.376  23.634  10.350  0.1759 -0.1634  0.0144
 3619DOPE   C4B42476  25.911  23.583  10.348  0.1015  0.2919 -0.0981
 3620DOPE   NH342477  32.386  27.907  10.020 -0.0751 -0.0338 -0.1388
 3620DOPE   PO442478  32.118  27.894  10.244 -0.3775  0.0963  0.2261
 3620DOPE   GL142479  31.961  28.064  10.538  0.2198  0.1516  0.2488
 3620DOPE   GL242480  32.190  28.229  10.727 -0.4174  0.0191 -0.0773
 3620DOPE   C1A42481  31.745  28.081  10.905  0.1863 -0.2645 -0.4143
 3620DOPE   D2A42482  31.541  27.890  11.292  0.0104  0.3028 -0.0738
 3620DOPE   C3A42483  31.240  28.127  11.453 -0.0525 -0.0151 -0.1289
 3620DOPE   C4A42484  30.796  28.103  11.669  0.0633  0.2186  0.0074
 3620DOPE   C1B42485  32.168  28.307  11.127  0.1282  0.0191 -0.2005
 3620DOPE   D2B42486  31.893  28.174  11.455 -0.0430 -0.2325 -0.2058
 3620DOPE   C3B42487  32.067  27.936  11.793  0.0471 -0.1390 -0.3487
 3620DOPE   C4B42488  32.149  27.923  12.218  0.2859  0.0039 -0.1056
 3621POSM   NC342489  29.503  27.303   9.814  0.2255 -0.0764  0.1511
 3621POSM   PO442490  29.772  27.065   9.612 -0.1088 -0.1494  0.0148
 3621POSM   AM142491  29.838  27.032   9.944 -0.3050  0.1223 -0.2136
 3621POSM   AM242492  30.039  26.885  10.139 -0.3977  0.2182  0.0944
 3621POSM   T1A42493  29.645  27.135  10.372  0.1339 -0.2199 -0.0657
 3621POSM   C2A42494  29.491  27.475  10.678  0.0755  0.2695  0.0598
 3621POSM   C3A42495  29.131  27.740  10.807 -0.0327  0.1177 -0.0136
 3621POSM   C1B42496  30.081  26.940  10.459  0.1697 -0.1193 -0.0133
 3621POSM   D2B42497  29.996  26.662  10.909  0.1486 -0.2746  0.0632
 3621POSM   C3B42498  29.590  26.476  11.098  0.1714 -0.1030 -0.0726
 3621POSM   C4B42499  29.158  26.410  11.223  0.0741 -0.1384 -0.2040
 3622POSM   NC342500  30.346  30.884   9.884  0.2869  0.1140  0.3285
 3622POSM   PO442501  30.058  30.850  10.178  0.1497 -0.1322 -0.0748
 3622POSM   AM142502  30.203  30.829  10.474  0.0260 -0.0217  0.1289
 3622POSM   AM242503  30.249  30.970  10.720  0.1392  0.2749 -0.0377
 3622POSM   T1A42504  30.411  30.501  10.800 -0.0789  0.0521 -0.0342
 3622POSM   C2A42505  30.436  30.023  10.887  0.4564 -0.1485 -0.2115
 3622POSM   C3A42506  30.095  29.843  10.620 -0.1361  0.1029  0.0037
 3622POSM   C1B42507  30.310  31.002  11.064 -0.2963 -0.2068 -0.1587
 3622POSM   D2B42508  30.534  30.816  11.376  0.0891  0.0702 -0.1536
 3622POSM   C3B42509  30.753  31.088  11.663  0.2604  0.1286  0.2384
 3622POSM   C4B42510  31.090  31.197  11.958 -0.0243 -0.2046  0.0984
 3623POSM   NC342511  25.793  32.507   9.614 -0.0326  0.0743 -0.2689
 3623POSM   PO442512  25.896  32.782   9.908  0.1999  0.0192  0.1415
 3623POSM   AM142513  25.821  32.773  10.204  0.2885  0.0483  0.0447
 3623POSM   AM242514  25.903  32.665  10.453  0.0633 -0.0071 -0.1040
 3623POSM   T1A42515  25.526  32.823  10.675  0.0446  0.1195 -0.2200
 3623POSM   C2A42516  25.131  32.936  10.931 -0.0454 -0.1318  0.0361
 3623POSM   C3A42517  25.194  33.207  11.281  0.1121  0.1523 -0.0038
 3623POSM   C1B42518  25.948  32.539  10.686  0.0912 -0.1434 -0.3187
 3623POSM   D2B42519  25.795  32.383  11.112  0.1593  0.2905  0.3324
 3623POSM   C3B42520  25.387  32.675  11.205 -0.1881 -0.2064  0.1321
 3623POSM   C4B42521  25.204  32.700  11.595 -0.3040 -0.1023 -0.0238
 3624POSM   NC342522   0.065  29.193   9.847  0.1907 -0.2073  0.1152
 3624POSM   PO442523   0.092  29.480  10.122  0.0224 -0.2050  0.0092
 3624POSM   AM142524   0.147  29.379  10.420 -0.1133 -0.0047 -0.0332
 3624POSM   AM242525   0.147  29.450  10.655  0.2126  0.0275 -0.0265
 3624POSM   T1A42526   0.131  28.961  10.695  0.0375 -0.0230 -0.0060
 3624POSM   C2A42527   0.230  28.594  11.002 -0.0853 -0.3392 -0.0135
 3624POSM   C3A42528   0.063  28.500  11.385 -0.3721 -0.5498  0.2048
 3624POSM   C1B42529  -0.019  29.394  10.942 -0.1460  0.2895  0.5017
 3624POSM   D2B42530  -0.320  29.394  11.339 -0.1479  0.0746  0.0425
 3624POSM   C3B42531  -0.182  29.729  11.746  0.0408 -0.0653 -0.0132
 3624POSM   C4B42532  -0.102  29.983  12.122  0.2510 -0.1284  0.0255
 3625DOPC   NC342533  28.043  29.823   9.287  0.0700 -0.3770  0.0235
 3625DOPC   PO442534  28.130  29.906   9.663 -0.1272  0.1463  0.1045
 3625DOPC   GL142535  28.219  29.634  10.023 -0.2372  0.1336  0.2622
 3625DOPC   GL242536  28.304  29.816  10.239  0.1387  0.0567 -0.1072
 3625DOPC   C1A42537  27.981  29.260  10.175 -0.1237 -0.0874  0.1252
 3625DOPC   D2A42538  27.647  29.037  10.465 -0.0369  0.3276 -0.0830
 3625DOPC   C3A42539  27.300  28.875  10.777 -0.1784  0.0360  0.2448
 3625DOPC   C4A42540  27.305  28.736  11.219 -0.0919  0.4377 -0.1619
 3625DOPC   C1B42541  28.116  29.985  10.656  0.0022 -0.0747  0.0381
 3625DOPC   D2B42542  27.847  30.314  10.916  0.0184 -0.1591  0.2473
 3625DOPC   C3B42543  27.864  30.720  10.810  0.1085  0.0726  0.3060
 3625DOPC   C4B42544  27.622  31.067  11.121  0.2874 -0.1225 -0.0301
 3626DOPC   NC342545  31.519  27.817   9.455  0.0950  0.3004 -0.0045
 3626DOPC   PO442546  31.346  27.852   9.806 -0.1667 -0.2686  0.1874
 3626DOPC   GL142547  31.258  27.802  10.159  0.1109  0.0115  0.0390
 3626DOPC   GL242548  31.144  27.552  10.177  0.2386  0.1573 -0.4312
 3626DOPC   C1A42549  30.979  27.944  10.519  0.0009  0.1614 -0.7317
 3626DOPC   D2A42550  30.676  28.187  10.814  0.1243  0.3512  0.3941
 3626DOPC   C3A42551  30.799  28.273  11.190  0.0027 -0.2222  0.0505
 3626DOPC   C4A42552  30.985  28.554  11.504  0.3365 -0.2557  0.0409
 3626DOPC   C1B42553  30.905  27.471  10.558 -0.3767 -0.0918  0.2414
 3626DOPC   D2B42554  30.655  27.369  10.965 -0.0404 -0.0389  0.0345
 3626DOPC   C3B42555  30.694  27.001  11.224  0.1257  0.1024 -0.1537
 3626DOPC   C4B42556  30.613  26.653  11.555 -0.0185  0.2020 -0.0128
 3627DOPE   NH342557  32.435  32.473  11.137  0.0189  0.0916 -0.0811
 3627DOPE   PO442558  32.536  32.170  11.166 -0.2378  0.3883  0.0292
 3627DOPE   GL142559  32.562  31.771  11.232 -0.0244  0.2253 -0.0225
 3627DOPE   GL242560  32.808  31.812  11.382 -0.0237 -0.0770  0.0538
 3627DOPE   C1A42561  32.235  31.477  11.359 -0.1247 -0.0932 -0.3510
 3627DOPE   D2A42562  31.823  31.538  11.470 -0.0381  0.0108 -0.1407
 3627DOPE   C3A42563  31.747  31.855  11.791  0.0808 -0.0110 -0.0929
 3627DOPE   C4A42564  31.899  32.206  12.076  0.3941 -0.1079  0.0335
 3627DOPE   C1B42565  32.876  31.901  11.875  0.0835  0.1736  0.0761
 3627DOPE   D2B42566  32.938  31.561  12.111 -0.0305  0.0894  0.1133
 3627DOPE   C3B42567  32.766  31.166  12.089 -0.1442 -0.3722  0.1019
 3627DOPE   C4B42568  32.488  30.859  11.883  0.1370  0.0234  0.4617
 3628DOPC   NC342569  31.283  32.381  10.974  0.1331  0.0616 -0.1442
 3628DOPC   PO442570  31.232  32.016  10.879  0.1746 -0.2008  0.1556
 3628DOPC   GL142571  31.153  31.839  11.268  0.3183  0.1502 -0.1644
 3628DOPC   GL242572  31.020  32.101  11.387  0.3950 -0.0688 -0.1537
 3628DOPC   C1A42573  31.284  31.652  11.695  0.0178  0.0242 -0.1477
 3628DOPC   D2A42574  31.335  31.559  12.150 -0.1312 -0.0815 -0.0427
 3628DOPC   C3A42575  31.819  31.573  12.157  0.1866 -0.0976 -0.1804
 3628DOPC   C4A42576  32.072  31.712  12.500 -0.2966  0.1054  0.1248
 3628DOPC   C1B42577  30.858  31.994  11.790 -0.2063 -0.3334 -0.0434
 3628DOPC   D2B42578  30.920  31.816  12.192  0.3117  0.2603 -0.2478
 3628DOPC   C3B42579  31.017  32.101  12.556  0.1152 -0.0387 -0.1037
 3628DOPC   C4B42580  30.923  32.540  12.563  0.2139  0.0641 -0.0740
 3629DOPC   NC342581   3.398  31.946  10.747  0.2002  0.2922  0.1395
 3629DOPC   PO442582   3.478  31.587  10.723  0.0078 -0.0560  0.0237
 3629DOPC   GL142583   3.356  31.532  11.067  0.0542  0.0660  0.0987
 3629DOPC   GL242584   3.448  31.707  11.219 -0.2377  0.0951  0.1123
 3629DOPC   C1A42585   2.982  31.824  11.230 -0.1283  0.0018  0.2163
 3629DOPC   D2A42586   2.831  32.256  11.285 -0.2144 -0.0602  0.1559
 3629DOPC   C3A42587   2.826  32.508  11.654 -0.0220 -0.3292  0.0853
 3629DOPC   C4A42588   2.719  32.869  11.887  0.2077 -0.0803  0.2876
 3629DOPC   C1B42589   3.278  31.822  11.619  0.0882 -0.0325 -0.0970
 3629DOPC   D2B42590   2.863  31.887  11.716 -0.1490  0.0311 -0.1685
 3629DOPC   C3B42591   2.642  32.184  11.977 -0.6236 -0.2138  0.0953
 3629DOPC   C4B42592   2.317  32.191  12.308 -0.0327 -0.0211  0.0348
 3630DOPS   CNO42593  32.152   0.663  11.661 -0.2853  0.0028  0.0466
 3630DOPS   PO442594  32.359   0.983  11.621  0.1768 -0.1052 -0.3873
 3630DOPS   GL142595  32.336   1.102  12.023 -0.2231 -0.0137  0.1844
 3630DOPS   GL242596  32.470   0.816  12.106  0.0315  0.1556  0.2343
 3630DOPS   C1A42597  32.161   1.505  12.231 -0.0794  0.0092 -0.0941
 3630DOPS   D2A42598  32.108   1.727  12.621  0.0412 -0.0339  0.2333
 3630DOPS   C3A42599  31.799   1.639  13.030  0.1200  0.1983 -0.0591
 3630DOPS   C4A42600  31.520   1.416  13.335  0.1441 -0.0320 -0.2369
 3630DOPS   C1B42601  32.644   0.497  12.435 -0.2914  0.3310  0.0072
 3630DOPS   D2B42602  32.857   0.297  12.778 -0.2978  0.1150 -0.1258
 3630DOPS   C3B42603  32.832   0.589  13.138  0.0825  0.1297  0.0206
 3630DOPS   C4B42604  32.605   0.836  13.464 -0.0638 -0.0548  0.2619
 3631POSM   NC342605   1.118  30.771  10.953 -0.0663  0.0878 -0.2191
 3631POSM   PO442606   1.098  30.460  10.719  0.1670 -0.1102  0.1826
 3631POSM   AM142607   1.052  30.310  11.021 -0.2927  0.1432  0.1255
 3631POSM   AM242608   0.969  30.335  11.308  0.3118  0.1257  0.2754
 3631POSM   T1A42609   1.295  29.960  11.252 -0.0859 -0.3401 -0.0088
 3631POSM   C2A42610   1.515  29.768  11.627  0.2320 -0.0335 -0.1271
 3631POSM   C3A42611   1.728  29.889  12.041 -0.1372  0.0660  0.1487
 3631POSM   C1B42612   0.779  30.401  11.556 -0.5101  0.1922 -0.0862
 3631POSM   D2B42613   0.364  30.570  11.811  0.1120 -0.3962 -0.3905
 3631POSM   C3B42614   0.377  30.878  12.192  0.1370  0.0079  0.0037
 3631POSM   C4B42615   0.621  31.049  12.485 -0.1126  0.0251  0.0182
 3632DOPS   CNO42616  32.673  33.757  10.634 -0.0098  0.4452  0.0227
 3632DOPS   PO442617  32.733  33.397  10.776 -0.0032 -0.0300 -0.2275
 3632DOPS   GL142618  32.739  33.389  11.243  0.0495  0.0116  0.0449
 3632DOPS   GL242619  32.987  33.525  11.333 -0.1345 -0.3073  0.0393
 3632DOPS   C1A42620  32.710  33.358  11.692 -0.0099 -0.0225  0.0593
 3632DOPS   D2A42621  32.520  33.346  12.116 -0.0714 -0.1371  0.2381
 3632DOPS   C3A42622  32.164  33.612  12.294  0.0225  0.1088  0.1190
 3632DOPS   C4A42623  32.052  33.884  12.660  0.1248  0.0417  0.0230
 3632DOPS   C1B42624  33.196  33.312  11.687 -0.1404  0.1880  0.2464
 3632DOPS   D2B42625  33.466  32.933  11.825 -0.0313  0.1957 -0.3037
 3632DOPS   C3B42626  33.440  32.734  12.264  0.0715  0.0336  0.0568
 3632DOPS   C4B42627  33.139  32.470  12.462  0.1583  0.0248  0.0030
 3633POSM   NC342628  24.797  29.552   8.630  0.1035  0.1502 -0.2205
 3633POSM   PO442629  24.594  29.177   8.539  0.0455  0.1762  0.2262
 3633POSM   AM142630  24.553  29.214   8.876 -0.0790  0.3478  0.2087
 3633POSM   AM242631  24.540  28.977   9.059 -0.1713 -0.0500  0.0032
 3633POSM   T1A42632  24.734  29.372   9.312 -0.0031 -0.1410  0.0196
 3633POSM   C2A42633  24.678  29.536   9.747 -0.5549 -0.0871 -0.1190
 3633POSM   C3A42634  24.875  29.824   9.968  0.1212  0.1055  0.1145
 3633POSM   C1B42635  24.578  28.760   9.340 -0.3581 -0.3779 -0.0039
 3633POSM   D2B42636  24.590  28.722   9.784  0.1663  0.0615  0.1921
 3633POSM   C3B42637  24.268  28.612  10.101  0.0203 -0.1980 -0.0585
 3633POSM   C4B42638  24.230  28.787  10.534 -0.0666 -0.0510  0.1429
 3634DOPC   NC342639  26.461  33.581   9.996 -0.1075  0.1265 -0.0544
 3634DOPC   PO442640  26.102  33.747  10.102 -0.1215  0.0124 -0.1918
 3634DOPC   GL142641  26.390  33.786  10.395 -0.3364 -0.2673 -0.1914
 3634DOPC   GL242642  26.431  33.519  10.523 -0.2979 -0.1049  0.0425
 3634DOPC   C1A42643  26.233  33.908  10.831  0.0090 -0.1918  0.1897
 3634DOPC   D2A42644  25.983  34.081  11.145 -0.0135  0.0442 -0.2924
 3634DOPC   C3A42645  25.734  33.805  11.452  0.2027 -0.1354 -0.5561
 3634DOPC   C4A42646  25.758  33.606  11.847  0.0561  0.0008 -0.4492
 3634DOPC   C1B42647  26.489  33.417  10.973 -0.1645 -0.1353  0.1765
 3634DOPC   D2B42648  26.670  33.203  11.365 -0.0930  0.0198 -0.3160
 3634DOPC   C3B42649  26.501  33.168  11.810 -0.1151 -0.0248  0.1493
 3634DOPC   C4B42650  26.231  33.284  12.209 -0.2581  0.2661  0.0907
 3635DOPC   NC342651  32.534  28.623  10.158 -0.1296 -0.1288 -0.3391
 3635DOPC   PO442652  32.516  28.257  10.320 -0.0208 -0.3989 -0.1325
 3635DOPC   GL142653  32.440  28.570  10.602  0.0627  0.0519  0.0549
 3635DOPC   GL242654  32.526  28.569  10.886 -0.0980  0.1164  0.0606
 3635DOPC   C1A42655  32.215  28.946  10.731  0.5153  0.2652  0.0253
 3635DOPC   D2A42656  32.499  29.239  10.945  0.0249 -0.1382  0.0318
 3635DOPC   C3A42657  32.703  29.182  11.366 -0.0273  0.0812  0.1436
 3635DOPC   C4A42658  33.111  29.127  11.265  0.1346 -0.1352 -0.0626
 3635DOPC   C1B42659  32.332  28.736  11.231 -0.0167  0.0654  0.3593
 3635DOPC   D2B42660  32.084  28.636  11.620 -0.3818 -0.1609 -0.0935
 3635DOPC   C3B42661  32.215  28.766  12.088 -0.1973 -0.1680 -0.0510
 3635DOPC   C4B42662  32.690  28.862  12.148 -0.3952  0.1711 -0.1431
 3636DOPC   NC342663  24.512  26.013   8.621  0.1442  0.0752  0.0130
 3636DOPC   PO442664  24.578  26.388   8.742 -0.0051  0.0930  0.3338
 3636DOPC   GL142665  24.322  26.265   9.061  0.0717  0.1220  0.1038
 3636DOPC   GL242666  24.330  25.981   9.077 -0.1155 -0.0485 -0.2925
 3636DOPC   C1A42667  24.417  26.435   9.457 -0.1058  0.0161  0.3270
 3636DOPC   D2A42668  24.399  26.343   9.890 -0.1532 -0.2822 -0.0713
 3636DOPC   C3A42669  24.490  26.250  10.325  0.0348 -0.1017 -0.5892
 3636DOPC   C4A42670  24.596  25.789  10.463 -0.1083 -0.1617  0.0665
 3636DOPC   C1B42671  24.143  25.570   9.135  0.0794 -0.1259  0.1079
 3636DOPC   D2B42672  24.143  25.255   9.419 -0.0315  0.0271 -0.3674
 3636DOPC   C3B42673  24.215  25.364   9.879  0.0759  0.2166  0.2448
 3636DOPC   C4B42674  24.395  25.770  10.025 -0.2957 -0.1932  0.0946
 3637POSM   NC342675   0.185  31.879  10.476  0.2320 -0.1913  0.1174
 3637POSM   PO442676   0.174  32.268  10.564  0.2744  0.0114  0.2234
 3637POSM   AM142677   0.312  32.352  10.865  0.0879 -0.5053 -0.2648
 3637POSM   AM242678   0.248  32.266  11.111  0.0861  0.1708 -0.2285
 3637POSM   T1A42679   0.492  32.768  11.121  0.1228  0.1245 -0.0241
 3637POSM   C2A42680   0.833  33.033  11.411  0.0819 -0.0690 -0.1623
 3637POSM   C3A42681   1.124  33.335  11.420  0.2510 -0.0420  0.2408
 3637POSM   C1B42682   0.136  32.508  11.326  0.2218  0.2553 -0.0821
 3637POSM   D2B42683   0.054  32.672  11.764  0.1745  0.1466  0.3291
 3637POSM   C3B42684  -0.373  32.725  11.906 -0.0330 -0.3706 -0.2253
 3637POSM   C4B42685  -0.671  33.058  12.160  0.0701 -0.2711 -0.2474
 3638POSM   NC342686  25.684  27.208   8.454  0.1950 -0.1095 -0.2678
 3638POSM   PO442687  25.455  27.418   8.660 -0.4731 -0.1777 -0.2348
 3638POSM   AM142688  25.533  27.236   8.930  0.0025 -0.0810 -0.1934
 3638POSM   AM242689  25.402  26.982   9.049  0.0981  0.1580  0.0326
 3638POSM   T1A42690  25.454  27.247   9.433  0.1530  0.1572  0.1054
 3638POSM   C2A42691  25.621  27.144   9.865  0.0153  0.0844  0.2448
 3638POSM   C3A42692  25.880  27.205  10.174  0.0768  0.0657  0.3218
 3638POSM   C1B42693  25.118  26.839   9.112  0.0040 -0.0297  0.0750
 3638POSM   D2B42694  24.847  26.624   9.463  0.0737  0.1377 -0.0008
 3638POSM   C3B42695  24.849  26.208   9.691  0.1496 -0.0205  0.1817
 3638POSM   C4B42696  24.878  25.892  10.040  0.1359  0.2217 -0.0409
 3639DOPE   NH342697  28.905  27.379   8.989 -0.1396  0.0318 -0.2567
 3639DOPE   PO442698  28.715  27.337   9.242  0.1483 -0.3014  0.3214
 3639DOPE   GL142699  28.739  27.217   9.624 -0.1298 -0.0675 -0.4495
 3639DOPE   GL242700  28.942  27.307   9.778 -0.0428  0.3371 -0.0535
 3639DOPE   C1A42701  28.383  27.181   9.971  0.0306  0.0961  0.2039
 3639DOPE   D2A42702  28.244  27.362  10.312  0.0138 -0.2587  0.1526
 3639DOPE   C3A42703  28.114  27.137  10.713  0.0740 -0.0238  0.0544
 3639DOPE   C4A42704  28.368  27.012  11.145  0.1113 -0.1504 -0.1022
 3639DOPE   C1B42705  28.717  27.599  10.023 -0.0169 -0.2777  0.2156
 3639DOPE   D2B42706  28.596  28.048  10.117  0.1534 -0.0119  0.0450
 3639DOPE   C3B42707  28.526  28.399  10.424 -0.1764 -0.0953 -0.2040
 3639DOPE   C4B42708  28.442  28.820  10.639  0.0395 -0.0942 -0.4031
 3640DOPS   CNO42709   2.073  27.137  10.162  0.1308 -0.0821  0.0096
 3640DOPS   PO442710   1.845  27.425  10.271  0.0105  0.5074  0.0215
 3640DOPS   GL142711   1.938  27.618  10.666  0.2800  0.1455  0.0869
 3640DOPS   GL242712   2.232  27.609  10.774  0.0791 -0.0610  0.0358
 3640DOPS   C1A42713   1.999  27.332  11.097  0.0504 -0.0831 -0.2060
 3640DOPS   D2A42714   1.584  27.174  11.300  0.3757 -0.3115 -0.2654
 3640DOPS   C3A42715   1.623  27.208  11.752  0.0035 -0.4163  0.4585
 3640DOPS   C4A42716   1.692  27.239  12.245  0.0296 -0.1417 -0.2874
 3640DOPS   C1B42717   2.215  27.807  11.200  0.0523 -0.1640  0.1478
 3640DOPS   D2B42718   2.262  28.191  11.436  0.1662 -0.1092 -0.0965
 3640DOPS   C3B42719   2.707  28.354  11.576 -0.2849  0.1260  0.2043
 3640DOPS   C4B42720   3.148  28.254  11.676  0.1352  0.0940 -0.1695
 3641DOPE   NH342721  33.777   1.532  11.880  0.2097  0.0920  0.1160
 3641DOPE   PO442722  33.767   1.884  11.911  0.1207  0.1699  0.2194
 3641DOPE   GL142723  33.513   1.829  12.247 -0.5053  0.3565 -0.1331
 3641DOPE   GL242724  33.483   1.564  12.322 -0.4510  0.1046 -0.0749
 3641DOPE   C1A42725  33.613   1.905  12.706 -0.0550  0.0862  0.0592
 3641DOPE   D2A42726  33.943   1.900  13.012  0.0423 -0.2276 -0.4035
 3641DOPE   C3A42727  33.767   1.936  13.436 -0.0079  0.1261 -0.2929
 3641DOPE   C4A42728  33.580   1.983  13.859  0.3194  0.0454 -0.2515
 3641DOPE   C1B42729  33.938   1.470  12.410 -0.1054  0.2258 -0.1298
 3641DOPE   D2B42730  34.323   1.606  12.540 -0.2868 -0.1761 -0.2775
 3641DOPE   C3B42731  34.459   1.353  12.877  0.0496  0.0707  0.1208
 3641DOPE   C4B42732  34.400   1.173  13.326 -0.1143  0.0342 -0.0214
 3642DOPC   NC342733  24.305  30.839   8.849 -0.1674 -0.2970  0.1790
 3642DOPC   PO442734  23.910  30.769   8.978  0.1721 -0.1215  0.0518
 3642DOPC   GL142735  23.811  30.632   9.388  0.2458 -0.0998  0.3583
 3642DOPC   GL242736  23.917  30.320   9.312  0.0684 -0.0178 -0.0606
 3642DOPC   C1A42737  23.514  30.319   9.647 -0.0092 -0.0968 -0.4138
 3642DOPC   D2A42738  23.053  30.177   9.788  0.2814  0.3947  0.3623
 3642DOPC   C3A42739  22.932  29.863  10.096  0.1082  0.4080  0.5130
 3642DOPC   C4A42740  23.086  29.611  10.376  0.1175  0.0935  0.2650
 3642DOPC   C1B42741  24.099  30.402   9.720 -0.1042 -0.1119 -0.0730
 3642DOPC   D2B42742  24.275  30.371  10.171 -0.0121 -0.3272  0.0233
 3642DOPC   C3B42743  23.936  30.181  10.468  0.2356  0.4850 -0.0474
 3642DOPC   C4B42744  23.761  29.763  10.555 -0.2337 -0.1947 -0.0098
 3643DOPC   NC342745  26.969  28.075   9.441 -0.2757 -0.2139 -0.2245
 3643DOPC   PO442746  27.250  27.860   9.215  0.3407  0.0176 -0.2347
 3643DOPC   GL142747  27.287  27.798   9.692  0.1476 -0.5556 -0.3475
 3643DOPC   GL242748  27.040  27.663   9.767 -0.1803  0.0791  0.1978
 3643DOPC   C1A42749  27.320  27.664  10.149 -0.0133 -0.0887  0.2039
 3643DOPC   D2A42750  27.059  27.515  10.473  0.0258 -0.3721 -0.4039
 3643DOPC   C3A42751  27.257  27.390  10.896  0.1121 -0.0181 -0.0664
 3643DOPC   C4A42752  27.450  27.240  11.316 -0.0257 -0.2468 -0.0479
 3643DOPC   C1B42753  26.772  27.792  10.131  0.1672 -0.2011 -0.1623
 3643DOPC   D2B42754  26.636  27.819  10.532  0.1678 -0.0775  0.0529
 3643DOPC   C3B42755  26.820  27.777  10.912 -0.0886 -0.3128 -0.3485
 3643DOPC   C4B42756  27.116  27.757  11.246  0.1803  0.1396  0.1817
 3644POSM   NC342757   0.568  29.605  10.329  0.0804 -0.0200 -0.0094
 3644POSM   PO442758   0.690  29.972  10.302  0.0025  0.0591 -0.1865
 3644POSM   AM142759   0.593  30.026  10.621 -0.0214  0.1552  0.5484
 3644POSM   AM242760   0.664  30.097  10.882  0.1539 -0.1667 -0.0565
 3644POSM   T1A42761   0.262  29.808  10.908 -0.3520 -0.0597 -0.2320
 3644POSM   C2A42762   0.172  29.868  11.346  0.0383  0.1605 -0.1353
 3644POSM   C3A42763   0.087  30.147  11.705 -0.1376 -0.0650 -0.1572
 3644POSM   C1B42764   0.556  30.118  11.157  0.1359 -0.1720  0.0129
 3644POSM   D2B42765   0.620  29.892  11.603 -0.2357 -0.1904 -0.1326
 3644POSM   C3B42766   0.522  30.136  12.021 -0.0916 -0.1482  0.0515
 3644POSM   C4B42767   0.210  30.298  12.321  0.1373  0.2974  0.2380
 3645POSM   NC342768  23.330  32.724   9.563  0.1360 -0.0238 -0.0566
 3645POSM   PO442769  23.533  33.050   9.691 -0.0174 -0.1524  0.4163
 3645POSM   AM142770  23.500  32.938  10.004 -0.0740 -0.3120  0.0614
 3645POSM   AM242771  23.454  32.655  10.094 -0.3608  0.2052 -0.0766
 3645POSM   T1A42772  23.543  33.034  10.500 -0.5413 -0.0762  0.1460
 3645POSM   C2A42773  23.581  33.000  10.941  0.0333  0.1290  0.1264
 3645POSM   C3A42774  23.341  32.803  11.240  0.1377 -0.2724 -0.0998
 3645POSM   C1B42775  23.535  32.503  10.381 -0.0210  0.0727  0.1144
 3645POSM   D2B42776  23.755  32.559  10.743 -0.0138  0.0921  0.1244
 3645POSM   C3B42777  23.798  32.618  11.156 -0.1243 -0.1815  0.0547
 3645POSM   C4B42778  23.613  32.560  11.566  0.3175 -0.1423 -0.0489
 3646DOPS   CNO42779  31.715  29.627  10.284  0.0543  0.2530 -0.5304
 3646DOPS   PO442780  31.495  29.348  10.235  0.3329  0.0434  0.0206
 3646DOPS   GL142781  31.282  29.179  10.561  0.4227 -0.2459 -0.1237
 3646DOPS   GL242782  31.302  28.874  10.544  0.0641  0.3513 -0.0108
 3646DOPS   C1A42783  31.319  29.378  11.000  0.2297  0.1148 -0.1527
 3646DOPS   D2A42784  31.160  29.651  11.266 -0.0070  0.0042  0.3540
 3646DOPS   C3A42785  30.874  29.988  11.354  0.1047 -0.2551  0.1028
 3646DOPS   C4A42786  30.508  30.284  11.311  0.1709  0.0851  0.1257
 3646DOPS   C1B42787  31.217  28.875  10.950 -0.0314  0.1986 -0.1596
 3646DOPS   D2B42788  31.122  28.992  11.417  0.0141 -0.3536  0.1089
 3646DOPS   C3B42789  30.662  29.064  11.539  0.2109  0.0365  0.1662
 3646DOPS   C4B42790  30.233  29.083  11.413 -0.2071  0.0833  0.1492
 3647POSM   NC342791  24.734  24.668   7.968  0.2058 -0.1011 -0.0120
 3647POSM   PO442792  24.738  24.877   8.286 -0.1622 -0.1755 -0.0994
 3647POSM   AM142793  24.624  24.808   8.587  0.0397  0.1293 -0.1933
 3647POSM   AM242794  24.520  25.038   8.759 -0.1459  0.1557  0.1518
 3647POSM   T1A42795  24.215  24.612   8.826  0.1371 -0.0254 -0.1070
 3647POSM   C2A42796  23.782  24.452   8.987 -0.0098  0.1534  0.0520
 3647POSM   C3A42797  23.372  24.649   9.195  0.2624  0.4164  0.3158
 3647POSM   C1B42798  24.507  25.150   9.099  0.2156  0.0298  0.0603
 3647POSM   D2B42799  24.630  25.145   9.535  0.1327  0.3160 -0.3343
 3647POSM   C3B42800  24.766  25.383   9.890  0.0566 -0.0119 -0.2348
 3647POSM   C4B42801  24.929  25.466  10.303  0.0538 -0.1044  0.1635
 3648DOPE   NH342802  29.890  31.831   9.928 -0.0975  0.2135  0.0802
 3648DOPE   PO442803  29.666  31.645  10.106 -0.1597 -0.3016  0.3761
 3648DOPE   GL142804  29.791  31.851  10.436  0.0872 -0.1125 -0.0569
 3648DOPE   GL242805  29.805  31.559  10.581  0.2824 -0.2682 -0.1695
 3648DOPE   C1A42806  29.746  31.971  10.892 -0.0989  0.0194  0.1195
 3648DOPE   D2A42807  29.881  32.279  11.245  0.0707 -0.1298  0.0394
 3648DOPE   C3A42808  30.010  32.161  11.666  0.2604 -0.3030 -0.1000
 3648DOPE   C4A42809  30.352  31.906  11.814 -0.1668 -0.2139  0.0764
 3648DOPE   C1B42810  29.412  31.618  10.852  0.0023  0.3016  0.1366
 3648DOPE   D2B42811  28.995  31.621  11.038  0.1361 -0.0150 -0.0023
 3648DOPE   C3B42812  29.067  31.875  11.429 -0.1565  0.0392  0.1035
 3648DOPE   C4B42813  29.285  32.216  11.664 -0.0980  0.1166 -0.1192
 3649DOPE   NH342814  26.029  24.941   8.687  0.0774 -0.0287  0.1744
 3649DOPE   PO442815  26.285  24.773   8.723 -0.2396  0.2430 -0.0414
 3649DOPE   GL142816  26.265  25.029   9.051 -0.0449 -0.0427 -0.4971
 3649DOPE   GL242817  26.313  25.149   9.278  0.2107 -0.1665  0.0552
 3649DOPE   C1A42818  25.838  25.192   9.182 -0.0951 -0.2611 -0.0900
 3649DOPE   D2A42819  25.590  25.322   9.544  0.0405  0.1686 -0.2048
 3649DOPE   C3A42820  25.695  25.346  10.019 -0.0457  0.1020  0.1794
 3649DOPE   C4A42821  25.890  25.354  10.439  0.0226 -0.1195  0.2429
 3649DOPE   C1B42822  26.490  24.831   9.507 -0.1828  0.0837  0.0701
 3649DOPE   D2B42823  26.795  24.613   9.758  0.2707  0.2540  0.0386
 3649DOPE   C3B42824  26.781  24.876  10.176  0.0475 -0.2155  0.0926
 3649DOPE   C4B42825  26.976  25.162  10.446  0.0658  0.1314  0.1884
 3650DOPE   NH342826  25.556  25.799   8.597 -0.1210 -0.1249  0.0867
 3650DOPE   PO442827  25.342  26.025   8.563  0.1904  0.0836  0.0673
 3650DOPE   GL142828  25.161  25.836   8.949 -0.1981  0.1456 -0.0060
 3650DOPE   GL242829  24.975  25.715   8.773  0.0441  0.1276 -0.3559
 3650DOPE   C1A42830  25.207  25.863   9.406 -0.2020  0.1713  0.3509
 3650DOPE   D2A42831  25.344  26.182   9.710 -0.0052  0.1782 -0.3331
 3650DOPE   C3A42832  25.710  26.160  10.029  0.1978  0.0624  0.1062
 3650DOPE   C4A42833  25.786  25.881  10.359  0.0191  0.1447  0.1848
 3650DOPE   C1B42834  24.785  25.661   9.123 -0.1121  0.5294 -0.1707
 3650DOPE   D2B42835  24.573  25.731   9.554 -0.1547  0.2884  0.4641
 3650DOPE   C3B42836  24.177  25.974   9.577 -0.0090 -0.4615  0.5365
 3650DOPE   C4B42837  23.898  26.112   9.273  0.0103 -0.1536  0.0311
 3651DOPS   CNO42838  28.368  26.566   9.296 -0.0076  0.0049 -0.1737
 3651DOPS   PO442839  28.632  26.768   9.485 -0.1751  0.2291  0.0138
 3651DOPS   GL142840  28.652  26.648   9.841 -0.3893 -0.0691  0.0870
 3651DOPS   GL242841  28.570  26.381   9.753 -0.2614 -0.0043 -0.0486
 3651DOPS   C1A42842  28.604  26.555  10.279  0.0877 -0.0221  0.0105
 3651DOPS   D2A42843  28.851  26.713  10.658  0.0478 -0.2612  0.0573
 3651DOPS   C3A42844  28.782  26.681  11.086 -0.1614  0.0321  0.1095
 3651DOPS   C4A42845  28.891  26.991  11.437  0.1287 -0.4340 -0.0549
 3651DOPS   C1B42846  28.278  26.246  10.083  0.2566  0.0751 -0.0362
 3651DOPS   D2B42847  28.114  26.331  10.494  0.0587 -0.1368  0.3675
 3651DOPS   C3B42848  28.379  26.200  10.851  0.0733  0.0365  0.0901
 3651DOPS   C4B42849  28.268  26.032  11.327 -0.0559 -0.2612  0.2745
 3652POSM   NC342850  31.148  31.362  10.132 -0.0019  0.1075  0.3116
 3652POSM   PO442851  31.488  31.296  10.253 -0.1882 -0.2447 -0.2276
 3652POSM   AM142852  31.469  31.165  10.575  0.0308 -0.0496  0.0457
 3652POSM   AM242853  31.273  30.975  10.663 -0.1601  0.2288 -0.0073
 3652POSM   T1A42854  31.297  31.240  11.066 -0.2010 -0.1644  0.2028
 3652POSM   C2A42855  31.197  31.180  11.501  0.0196  0.0819  0.2665
 3652POSM   C3A42856  31.553  31.212  11.801  0.3862 -0.0303 -0.0595
 3652POSM   C1B42857  31.271  30.634  10.625 -0.0595  0.1058  0.1406
 3652POSM   D2B42858  31.397  30.240  10.680  0.3025  0.0463 -0.3351
 3652POSM   C3B42859  31.355  30.158  11.100  0.0021  0.2242  0.0535
 3652POSM   C4B42860  31.345  30.221  11.530  0.1787 -0.0388 -0.0387
 3653POSM   NC342861   0.423  28.573  10.544  0.0648  0.2827 -0.0224
 3653POSM   PO442862   0.633  28.232  10.546 -0.0094  0.1420  0.2833
 3653POSM   AM142863   0.656  28.314  10.851 -0.2325 -0.2207  0.1841
 3653POSM   AM242864   0.485  28.179  11.105 -0.3903 -0.0518  0.0204
 3653POSM   T1A42865   0.773  28.524  11.281  0.2600  0.0765 -0.2339
 3653POSM   C2A42866   1.113  28.463  11.635 -0.1428 -0.1886 -0.3096
 3653POSM   C3A42867   1.175  28.296  12.048 -0.0996  0.2444  0.1784
 3653POSM   C1B42868   0.440  28.162  11.464 -0.0456 -0.1942  0.0358
 3653POSM   D2B42869   0.687  28.236  11.841 -0.1669 -0.5047  0.0221
 3653POSM   C3B42870   0.425  28.415  12.125  0.0907 -0.0970 -0.0417
 3653POSM   C4B42871   0.261  28.774  12.409 -0.0806  0.2100 -0.1471
 3654DOPE   NH342872  32.484  27.832  10.555 -0.1883 -0.2681 -0.0820
 3654DOPE   PO442873  32.758  27.826  10.342 -0.3766 -0.0268  0.2198
 3654DOPE   GL142874  32.875  27.945  10.735 -0.2474 -0.0760 -0.0381
 3654DOPE   GL242875  32.937  28.208  10.676  0.1153  0.2289  0.0991
 3654DOPE   C1A42876  32.573  27.944  11.076 -0.0317  0.2177  0.0312
 3654DOPE   D2A42877  32.151  27.700  11.044 -0.1144  0.2836  0.0021
 3654DOPE   C3A42878  31.956  27.645  11.444 -0.0142 -0.1507 -0.2130
 3654DOPE   C4A42879  31.633  27.482  11.699  0.0246 -0.0339 -0.4170
 3654DOPE   C1B42880  33.177  28.100  11.067 -0.0580 -0.1239  0.0181
 3654DOPE   D2B42881  33.241  28.063  11.531 -0.1220  0.1502 -0.1651
 3654DOPE   C3B42882  33.047  28.386  11.825 -0.1615  0.2461 -0.3595
 3654DOPE   C4B42883  33.121  28.600  12.142 -0.1250 -0.0467 -0.1748
 3655DOPS   CNO42884  25.018   0.015  10.193 -0.2732 -0.0026  0.0595
 3655DOPS   PO442885  24.636  -0.129  10.182  0.0993  0.0336 -0.3138
 3655DOPS   GL142886  24.860  -0.358  10.449 -0.0852  0.0771  0.3025
 3655DOPS   GL242887  24.688  -0.257  10.703  0.1617 -0.2279  0.2473
 3655DOPS   C1A42888  24.892  -0.765  10.724 -0.1991  0.1742  0.0734
 3655DOPS   D2A42889  24.895  -0.682  11.224 -0.2184 -0.2482  0.2096
 3655DOPS   C3A42890  24.739  -1.053  11.380  0.0288 -0.3039  0.2129
 3655DOPS   C4A42891  24.284  -1.249  11.441 -0.1156  0.2632  0.2248
 3655DOPS   C1B42892  24.547  -0.111  11.116  0.1744 -0.1607  0.3723
 3655DOPS   D2B42893  24.409  -0.185  11.563 -0.0574 -0.0178  0.5577
 3655DOPS   C3B42894  24.249  -0.597  11.513 -0.0961  0.0846 -0.1483
 3655DOPS   C4B42895  24.180  -0.922  11.848  0.0880 -0.1221 -0.1757
 3656DOPE   NH342896  31.997  31.773  10.971  0.0963 -0.0821  0.3558
 3656DOPE   PO442897  32.049  32.071  10.951  0.0144  0.2056 -0.0727
 3656DOPE   GL142898  32.103  32.058  11.333  0.2010 -0.1956 -0.2116
 3656DOPE   GL242899  32.087  32.334  11.458 -0.4017 -0.1629  0.0297
 3656DOPE   C1A42900  32.276  31.848  11.727 -0.0549 -0.1164 -0.2187
 3656DOPE   D2A42901  32.450  31.861  12.157 -0.2502 -0.0258  0.1188
 3656DOPE   C3A42902  32.594  31.519  12.447  0.2811  0.1149 -0.3916
 3656DOPE   C4A42903  32.965  31.253  12.572 -0.1464 -0.1811 -0.0330
 3656DOPE   C1B42904  32.341  32.304  11.875  0.0678 -0.1985 -0.0686
 3656DOPE   D2B42905  32.652  32.389  12.163 -0.3254  0.0187  0.0355
 3656DOPE   C3B42906  32.911  32.016  12.340  0.1619  0.1447  0.0894
 3656DOPE   C4B42907  33.117  31.873  12.779 -0.1185  0.1393 -0.0119
 3657POSM   NC342908  23.317  26.821   8.797  0.1860 -0.1954  0.0351
 3657POSM   PO442909  22.970  26.971   8.723  0.1515 -0.2915 -0.0349
 3657POSM   AM142910  22.986  26.977   9.062 -0.4449 -0.1943  0.0898
 3657POSM   AM242911  22.817  26.878   9.261 -0.2705 -0.0247  0.2050
 3657POSM   T1A42912  23.301  27.064   9.431  0.1225  0.0868  0.2916
 3657POSM   C2A42913  23.477  27.453   9.668 -0.2886 -0.1438  0.0261
 3657POSM   C3A42914  23.396  27.683  10.098 -0.1146  0.1422 -0.1781
 3657POSM   C1B42915  22.884  26.944   9.611 -0.1118  0.2405  0.1128
 3657POSM   D2B42916  23.062  26.927  10.065 -0.4158  0.0924  0.1782
 3657POSM   C3B42917  22.981  27.384  10.129 -0.0122  0.0150 -0.1605
 3657POSM   C4B42918  22.912  27.812  10.274 -0.1789 -0.2126  0.0792
 3658POSM   NC342919  24.136   0.953   9.815  0.0110  0.0921 -0.1692
 3658POSM   PO442920  23.889   0.663   9.906 -0.0807  0.3301 -0.0854
 3658POSM   AM142921  23.859   0.535  10.171  0.3298 -0.0741  0.0843
 3658POSM   AM242922  23.929   0.352  10.373 -0.3791  0.3092  0.3831
 3658POSM   T1A42923  23.579   0.593  10.604 -0.3298 -0.0383  0.1873
 3658POSM   C2A42924  23.574   0.467  11.031  0.1796 -0.1244  0.1025
 3658POSM   C3A42925  23.649   0.241  11.428  0.1770  0.1319  0.0377
 3658POSM   C1B42926  24.006   0.205  10.643  0.2121  0.1204 -0.1098
 3658POSM   D2B42927  24.149  -0.184  10.866 -0.2806  0.0128 -0.0622
 3658POSM   C3B42928  24.371  -0.603  10.950  0.1299 -0.0008  0.3607
 3658POSM   C4B42929  24.483  -1.052  10.929  0.2006  0.0538  0.0761
 3659DOPC   NC342930  27.112  33.995  10.477  0.0682 -0.2536 -0.0223
 3659DOPC   PO442931  26.868  33.755  10.291  0.1354  0.2190 -0.2088
 3659DOPC   GL142932  26.893  33.602  10.643  0.5915  0.1581  0.1742
 3659DOPC   GL242933  26.990  33.365  10.759  0.0296 -0.0444  0.4830
 3659DOPC   C1A42934  26.889  33.772  11.086  0.0706  0.0728  0.2655
 3659DOPC   D2A42935  26.810  33.730  11.572  0.2767 -0.0363  0.0513
 3659DOPC   C3A42936  26.585  34.111  11.716 -0.0709 -0.0872 -0.1120
 3659DOPC   C4A42937  26.734  34.495  11.606  0.1061 -0.0516 -0.1849
 3659DOPC   C1B42938  27.134  33.338  11.138 -0.0423  0.1247  0.1343
 3659DOPC   D2B42939  27.282  33.340  11.564  0.3895 -0.2722  0.2293
 3659DOPC   C3B42940  27.156  33.493  11.925 -0.2221  0.1305 -0.3119
 3659DOPC   C4B42941  26.796  33.436  12.184  0.0102  0.0416 -0.1607
 3660POSM   NC342942  25.041  30.898   9.179  0.2905 -0.0853  0.0872
 3660POSM   PO442943  24.711  30.673   9.081 -0.0536 -0.1074  0.1821
 3660POSM   AM142944  24.671  30.695   9.410 -0.3832  0.4111  0.1210
 3660POSM   AM242945  24.665  30.901   9.617  0.0783 -0.1354  0.3204
 3660POSM   T1A42946  24.682  30.362   9.776 -0.1302  0.1101 -0.2943
 3660POSM   C2A42947  24.751  30.244  10.218  0.1190 -0.2856  0.2137
 3660POSM   C3A42948  24.909  29.922  10.519  0.1502 -0.1252  0.2953
 3660POSM   C1B42949  24.426  30.812   9.867 -0.2958  0.0238  0.0098
 3660POSM   D2B42950  24.055  30.821  10.132  0.2844  0.0327 -0.0193
 3660POSM   C3B42951  23.784  30.447  10.092  0.0567  0.1229  0.3218
 3660POSM   C4B42952  23.752  29.978  10.066 -0.2362  0.1871 -0.0670
 3661DOPE   NH342953  27.646  24.627   9.682  0.2363 -0.0327 -0.1894
 3661DOPE   PO442954  27.527  24.803   9.449 -0.1890  0.0738  0.1416
 3661DOPE   GL142955  27.208  24.922   9.612 -0.2976 -0.0910  0.1509
 3661DOPE   GL242956  27.243  25.001   9.906 -0.1983 -0.0112  0.0377
 3661DOPE   C1A42957  26.840  25.120   9.761  0.1667 -0.0875  0.2371
 3661DOPE   D2A42958  26.533  25.436   9.614  0.0324 -0.0817  0.2302
 3661DOPE   C3A42959  26.430  25.327  10.066  0.1672  0.0458 -0.0657
 3661DOPE   C4A42960  26.369  25.226  10.503  0.0507 -0.0373  0.0228
 3661DOPE   C1B42961  27.529  24.925  10.272  0.1247 -0.0982  0.0482
 3661DOPE   D2B42962  27.756  24.873  10.686 -0.1369  0.3246 -0.0245
 3661DOPE   C3B42963  27.916  25.228  10.953 -0.0723  0.1116 -0.0648
 3661DOPE   C4B42964  27.955  25.613  11.254  0.0138  0.1987 -0.0689
 3662DOPS   CNO42965  27.588  29.545   9.236  0.1122 -0.0192  0.3748
 3662DOPS   PO442966  27.540  29.866   9.469 -0.0575 -0.0891 -0.1853
 3662DOPS   GL142967  27.334  29.852   9.855 -0.1797 -0.1099  0.0395
 3662DOPS   GL242968  27.266  29.677  10.043 -0.4428  0.1797  0.3840
 3662DOPS   C1A42969  27.187  30.206  10.111 -0.2163  0.1012 -0.1746
 3662DOPS   D2A42970  26.857  30.336  10.417 -0.0860 -0.0338  0.1308
 3662DOPS   C3A42971  26.869  30.045  10.729 -0.1734  0.1004 -0.1451
 3662DOPS   C4A42972  26.767  29.608  10.780 -0.2562  0.2677 -0.1698
 3662DOPS   C1B42973  27.237  29.838  10.473  0.1932  0.0920 -0.2577
 3662DOPS   D2B42974  27.406  29.844  10.874  0.1901  0.4147 -0.0952
 3662DOPS   C3B42975  27.532  30.122  11.204  0.0793  0.0210 -0.2533
 3662DOPS   C4B42976  27.438  30.550  11.335  0.0291  0.1829  0.0996
 3663DOPC   NC342977  25.771  31.378   9.894 -0.1419 -0.0688 -0.0242
 3663DOPC   PO442978  26.049  31.553   9.699  0.1023  0.1295  0.1743
 3663DOPC   GL142979  26.224  31.614  10.134  0.1358  0.1488 -0.5580
 3663DOPC   GL242980  25.995  31.783  10.162 -0.1362 -0.1232 -0.3227
 3663DOPC   C1A42981  26.303  31.632  10.582  0.2017 -0.0535  0.0066
 3663DOPC   D2A42982  26.017  31.573  10.919  0.2566 -0.2690 -0.1381
 3663DOPC   C3A42983  26.047  31.419  11.396  0.0775  0.1481 -0.0232
 3663DOPC   C4A42984  25.908  31.525  11.811  0.2074  0.5056  0.0713
 3663DOPC   C1B42985  25.809  31.522  10.459  0.0515  0.1648  0.3634
 3663DOPC   D2B42986  25.868  31.091  10.647 -0.0995 -0.1916 -0.1634
 3663DOPC   C3B42987  25.691  31.067  11.082 -0.1830  0.1744  0.0060
 3663DOPC   C4B42988  25.729  30.710  11.455  0.2087  0.1182 -0.0060
 3664DOPC   NC342989   0.738  34.176  11.211 -0.0731  0.1077  0.1735
 3664DOPC   PO442990   1.000  34.251  11.482 -0.3066 -0.0255 -0.0122
 3664DOPC   GL142991   0.983  34.191  11.951  0.4340  0.1622  0.0778
 3664DOPC   GL242992   0.803  33.986  11.994 -0.1658  0.0691 -0.6732
 3664DOPC   C1A42993   1.213  34.003  12.272 -0.0704 -0.5539 -0.2741
 3664DOPC   D2A42994   1.194  33.802  12.683 -0.0173  0.1127  0.3893
 3664DOPC   C3A42995   1.402  33.331  12.704  0.1028  0.1729 -0.2411
 3664DOPC   C4A42996   1.698  33.053  12.997 -0.2310  0.3647  0.1892
 3664DOPC   C1B42997   1.110  33.681  11.792 -0.0703  0.0169 -0.1047
 3664DOPC   D2B42998   1.499  33.372  11.795  0.0328  0.1716 -0.1309
 3664DOPC   C3B42999   1.545  33.266  12.187 -0.2053  0.1945 -0.0102
 3664DOPC   C4B43000   1.848  33.151  12.518  0.2482 -0.0229 -0.1067
 3665DOPC   NC343001  26.681  29.106   8.897 -0.1249 -0.1207 -0.5352
 3665DOPC   PO443002  26.548  29.028   9.268 -0.0626  0.1708  0.2347
 3665DOPC   GL143003  26.248  29.005   9.605 -0.0585  0.2176  0.0018
 3665DOPC   GL243004  26.452  29.103   9.852 -0.1313  0.1277  0.0683
 3665DOPC   C1A43005  25.855  29.036   9.864 -0.1707 -0.3332 -0.0152
 3665DOPC   D2A43006  25.600  29.343  10.121 -0.1385 -0.0279  0.0274
 3665DOPC   C3A43007  25.205  29.070  10.274 -0.3855 -0.2229  0.1020
 3665DOPC   C4A43008  24.810  28.813  10.323 -0.0510  0.1874  0.0337
 3665DOPC   C1B43009  26.698  28.794  10.066  0.0417  0.2827 -0.1401
 3665DOPC   D2B43010  27.024  28.669  10.345  0.1666  0.2975  0.2555
 3665DOPC   C3B43011  26.913  28.607  10.793  0.0771 -0.0736  0.1416
 3665DOPC   C4B43012  26.655  28.505  11.174  0.1236 -0.1256 -0.3486
 3666DOPS   CNO43013  30.561  32.157  10.400 -0.3559  0.2433  0.0907
 3666DOPS   PO443014  30.710  32.066  10.724 -0.2010  0.0170 -0.0687
 3666DOPS   GL143015  30.593  32.064  11.133  0.0738  0.2931 -0.3543
 3666DOPS   GL243016  30.287  32.033  11.078 -0.0229  0.0196  0.2571
 3666DOPS   C1A43017  30.585  32.329  11.526  0.0123 -0.0889  0.1721
 3666DOPS   D2A43018  30.565  32.444  11.989 -0.1289  0.2776  0.2294
 3666DOPS   C3A43019  30.508  32.709  12.370  0.1046 -0.0035  0.0440
 3666DOPS   C4A43020  30.465  32.988  12.740 -0.0524  0.1266 -0.1697
 3666DOPS   C1B43021  30.048  31.719  11.357  0.1432  0.1567 -0.1220
 3666DOPS   D2B43022  30.027  31.467  11.755 -0.1157  0.0746  0.0604
 3666DOPS   C3B43023  29.808  31.575  12.133  0.1768 -0.1526  0.1184
 3666DOPS   C4B43024  29.514  31.869  12.289  0.0320 -0.1727 -0.1175
 3667POSM   NC343025  26.110  23.688   8.840  0.0591 -0.3493 -0.0302
 3667POSM   PO443026  26.268  23.322   8.823  0.0184  0.0637  0.3004
 3667POSM   AM143027  26.287  23.207   9.134  0.0833  0.3402  0.0619
 3667POSM   AM243028  26.405  23.344   9.305  0.1344 -0.1546 -0.1520
 3667POSM   T1A43029  25.923  23.151   9.508 -0.1236  0.0962 -0.0333
 3667POSM   C2A43030  25.755  22.860   9.771 -0.1762 -0.1196 -0.1620
 3667POSM   C3A43031  25.427  22.714  10.043 -0.2947  0.0422 -0.0561
 3667POSM   C1B43032  26.335  23.522   9.596 -0.2093 -0.0799  0.2912
 3667POSM   D2B43033  26.452  23.894   9.856 -0.4291  0.3123 -0.2382
 3667POSM   C3B43034  26.217  24.107  10.180  0.0488 -0.3294 -0.0731
 3667POSM   C4B43035  26.027  24.393  10.475 -0.0849 -0.2212 -0.0330
 3668POSM   NC343036  28.694  34.007  10.778  0.1423 -0.2190  0.4016
 3668POSM   PO443037  29.062  34.085  10.834  0.0227 -0.1407 -0.0179
 3668POSM   AM143038  29.075  34.172  11.154 -0.2037 -0.1105  0.0777
 3668POSM   AM243039  29.241  34.157  11.375 -0.3905  0.3541 -0.0339
 3668POSM   T1A43040  28.761  34.154  11.543  0.1905  0.3169 -0.0805
 3668POSM   C2A43041  28.419  34.093  11.855 -0.2799  0.1583 -0.0708
 3668POSM   C3A43042  27.960  34.065  11.800 -0.3453  0.0022  0.1809
 3668POSM   C1B43043  29.188  33.861  11.603  0.0286 -0.0282  0.1135
 3668POSM   D2B43044  29.153  33.501  11.874  0.1330 -0.1065 -0.2301
 3668POSM   C3B43045  29.538  33.335  11.987 -0.0429  0.0976  0.0969
 3668POSM   C4B43046  29.700  32.836  12.127 -0.0165  0.1229  0.0744
 3669DOPE   NH343047  22.058  30.124   9.373 -0.0187 -0.3866  0.4062
 3669DOPE   PO443048  21.959  30.409   9.424 -0.1181 -0.0509 -0.1054
 3669DOPE   GL143049  22.027  30.380   9.796 -0.1381  0.1705 -0.0552
 3669DOPE   GL243050  21.768  30.337   9.929 -0.3215  0.0544 -0.0866
 3669DOPE   C1A43051  22.339  30.552  10.132  0.1333  0.1435 -0.0057
 3669DOPE   D2A43052  22.465  30.298  10.481  0.1737  0.5042 -0.2826
 3669DOPE   C3A43053  22.891  30.153  10.569 -0.0453 -0.1319  0.0099
 3669DOPE   C4A43054  23.302  30.037  10.404  0.0178  0.1465 -0.2138
 3669DOPE   C1B43055  21.471  30.044  10.043  0.0098  0.1679 -0.0527
 3669DOPE   D2B43056  21.033  29.977  10.188 -0.2468 -0.0904 -0.1383
 3669DOPE   C3B43057  20.816  29.567  10.221 -0.0685  0.1936  0.1729
 3669DOPE   C4B43058  20.449  29.297  10.118 -0.0193  0.0769  0.0375
 3670DOPC   NC343059  28.877  24.599   9.089 -0.3762 -0.1330 -0.4372
 3670DOPC   PO443060  29.242  24.587   9.246  0.0015  0.1983 -0.1811
 3670DOPC   GL143061  29.119  24.607   9.639 -0.1531 -0.3201  0.1176
 3670DOPC   GL243062  29.257  24.789   9.833 -0.1827  0.2234 -0.1344
 3670DOPC   C1A43063  28.824  24.525  10.015 -0.2141  0.2566  0.1287
 3670DOPC   D2A43064  28.401  24.673  10.269  0.0003  0.0362 -0.1455
 3670DOPC   C3A43065  28.070  25.055  10.231 -0.0550 -0.1626 -0.4153
 3670DOPC   C4A43066  27.751  25.241   9.888 -0.1453  0.0406 -0.3485
 3670DOPC   C1B43067  28.881  25.059  10.000 -0.2332  0.0982 -0.1526
 3670DOPC   D2B43068  28.776  25.104  10.438 -0.2585  0.2683  0.0668
 3670DOPC   C3B43069  29.024  25.242  10.831  0.2228 -0.0795 -0.0035
 3670DOPC   C4B43070  28.965  25.177  11.269 -0.1261  0.0104  0.0428
 3671POSM   NC343071  33.079  27.568  10.597 -0.1803  0.3407  0.1511
 3671POSM   PO443072  33.297  27.266  10.679 -0.0601 -0.2130 -0.4342
 3671POSM   AM143073  33.316  27.467  10.972  0.1064 -0.1069  0.0473
 3671POSM   AM243074  33.111  27.586  11.123  0.2987  0.1158  0.0270
 3671POSM   T1A43075  33.580  27.794  11.267 -0.1150 -0.1098 -0.0152
 3671POSM   C2A43076  33.674  27.931  11.742  0.0938 -0.1266  0.0174
 3671POSM   C3A43077  33.343  28.116  12.064 -0.0204  0.1366 -0.1870
 3671POSM   C1B43078  32.961  27.757  11.318  0.2427 -0.1647  0.2022
 3671POSM   D2B43079  32.814  27.990  11.666  0.1471 -0.0478  0.0558
 3671POSM   C3B43080  33.037  27.732  11.990  0.2740  0.0652 -0.3183
 3671POSM   C4B43081  33.450  27.572  12.102  0.1677  0.0591 -0.0749
 3672POSM   NC343082  28.237  33.127  10.036 -0.0883 -0.1722  0.2018
 3672POSM   PO443083  28.310  33.308  10.385  0.0167  0.1367 -0.0030
 3672POSM   AM143084  28.120  33.265  10.642 -0.2620  0.2259  0.1675
 3672POSM   AM243085  28.101  33.159  10.922  0.2995  0.2065 -0.0779
 3672POSM   T1A43086  27.610  33.250  10.722  0.1016 -0.2693 -0.0168
 3672POSM   C2A43087  27.271  32.931  10.816 -0.0514 -0.0845  0.0888
 3672POSM   C3A43088  27.180  32.855  11.274 -0.2456 -0.0374 -0.0359
 3672POSM   C1B43089  28.212  32.888  11.067  0.0700  0.0377 -0.1698
 3672POSM   D2B43090  28.410  32.638  11.398  0.5012  0.1240  0.1651
 3672POSM   C3B43091  28.353  32.559  11.866  0.0769 -0.0512  0.1278
 3672POSM   C4B43092  28.127  32.411  12.205 -0.0981 -0.2544 -0.1438
 3673G1HFO Head43093  15.243  20.359  17.813  0.2339  0.1188 -0.3060
 3673G1HFO Head43094  15.308  20.466  18.098 -0.4214 -0.0946 -0.1918
 3673G1HFO Head43095  15.141  20.749  18.446 -0.3796  0.0457  0.0521
 3673G1HFO Head43096  15.138  20.444  18.444  0.2636 -0.0392  0.3588
 3673G1HFO link43097  15.344  20.321  18.317  0.0387  0.4284  0.4154
 3673G1HFO link43098  15.591  20.288  18.439  0.2759  0.0798  0.1530
 3673G1HFO Tail43099  15.871  20.254  18.259 -0.0019  0.0964  0.5912
 3673G1HFO Tail43100  15.894  19.921  18.314 -0.1834  0.0063 -0.0273
 3673G1HFO Tail43101  15.815  19.664  18.147  0.2447 -0.0770 -0.4495
 3673G1HFO Tail43102  15.832  19.223  18.200  0.0352  0.2556 -0.1316
 3673G1HFO Tail43103  15.753  20.289  17.922  0.2806 -0.2719 -0.0107
 3673G1HFO Tail43104  15.736  20.091  17.769 -0.0009 -0.2466 -0.0188
 3673G1HFO Tail43105  15.841  20.101  17.536 -0.0715 -0.1450 -0.0821
 3673G1HFO Tail43106  15.919  20.157  17.305  0.2660 -0.0187  0.1420
 3673G1HFO Tail43107  16.034  20.259  17.124  0.1697 -0.1695 -0.0715
 3674G1HFO Head43108  15.861  13.187  19.233  0.0462  0.2344 -0.1308
 3674G1HFO Head43109  16.074  13.252  19.458  0.0127 -0.1499  0.5244
 3674G1HFO Head43110  16.341  13.330  19.930  0.1063  0.1793  0.0393
 3674G1HFO Head43111  16.143  13.528  19.743  0.1175  0.0345  0.1523
 3674G1HFO link43112  16.149  13.513  19.487  0.5331  0.2000 -0.3462
 3674G1HFO link43113  16.277  13.692  19.318 -0.0697  0.2561 -0.1739
 3674G1HFO Tail43114  16.518  13.605  19.112 -0.1404  0.0753  0.2463
 3674G1HFO Tail43115  16.541  13.931  18.947 -0.1036 -0.1340  0.1101
 3674G1HFO Tail43116  16.465  14.255  19.005 -0.1693 -0.0212  0.3461
 3674G1HFO Tail43117  16.617  14.580  19.238 -0.4357  0.1040  0.1115
 3674G1HFO Tail43118  16.755  13.648  19.351 -0.1995 -0.0478 -0.0174
 3674G1HFO Tail43119  16.994  13.760  19.291 -0.1549  0.1515  0.1610
 3674G1HFO Tail43120  17.074  13.753  19.037 -0.3138 -0.0552 -0.0318
 3674G1HFO Tail43121  17.157  13.694  18.803 -0.2915  0.1054  0.0013
 3674G1HFO Tail43122  17.177  13.671  18.565 -0.1917 -0.0420 -0.1977
 3675G1HFO Head43123  19.988  18.809  16.115  0.0205  0.0749 -0.0621
 3675G1HFO Head43124  19.966  18.788  16.391  0.2308 -0.4994 -0.0986
 3675G1HFO Head43125  20.518  19.239  16.457  0.0207  0.2613  0.0872
 3675G1HFO Head43126  20.193  19.134  16.380  0.0955  0.3514 -0.1613
 3675G1HFO link43127  20.064  18.985  16.559 -0.3425 -0.6847 -0.2269
 3675G1HFO link43128  19.907  19.109  16.757  0.2741 -0.0088 -0.1077
 3675G1HFO Tail43129  19.721  18.945  16.978 -0.3238  0.0336 -0.0297
 3675G1HFO Tail43130  19.761  18.622  16.858  0.3836 -0.1291 -0.2077
 3675G1HFO Tail43131  19.638  18.408  16.645 -0.1015 -0.0228  0.1132
 3675G1HFO Tail43132  19.277  18.186  16.539 -0.0204 -0.2416  0.2259
 3675G1HFO Tail43133  19.932  18.938  17.260 -0.1632  0.6084 -0.0358
 3675G1HFO Tail43134  20.119  18.750  17.295 -0.0645 -0.0008 -0.0429
 3675G1HFO Tail43135  20.041  18.503  17.277 -0.0767  0.1052 -0.0977
 3675G1HFO Tail43136  20.008  18.250  17.290  0.0661  0.2619  0.1066
 3675G1HFO Tail43137  19.968  18.020  17.251  0.0559 -0.1303  0.2065
 3676G1HFO Head43138  17.748  17.263  16.982  0.1163  0.0827 -0.1837
 3676G1HFO Head43139  17.430  17.359  16.956 -0.0170 -0.5578 -0.2566
 3676G1HFO Head43140  17.623  17.388  16.545 -0.0849  0.0168  0.0147
 3676G1HFO Head43141  17.425  17.613  16.635 -0.0057 -0.6965 -0.0509
 3676G1HFO link43142  17.364  17.607  16.881  0.0805  0.0498  0.4406
 3676G1HFO link43143  17.340  17.833  17.049  0.1067  0.1613  0.1991
 3676G1HFO Tail43144  17.124  18.065  16.987 -0.0007  0.2252  0.2548
 3676G1HFO Tail43145  17.014  17.991  16.673 -0.0157  0.3786  0.2153
 3676G1HFO Tail43146  16.756  18.091  16.492 -0.4999  0.4220 -0.2284
 3676G1HFO Tail43147  16.359  17.980  16.409 -0.1063 -0.1337 -0.0915
 3676G1HFO Tail43148  16.871  17.988  17.189 -0.1824  0.0044 -0.2159
 3676G1HFO Tail43149  16.692  18.165  17.239  0.0287  0.0085  0.0795
 3676G1HFO Tail43150  16.765  18.398  17.318 -0.0204  0.1144  0.0513
 3676G1HFO Tail43151  16.856  18.609  17.424 -0.2887 -0.1457 -0.2086
 3676G1HFO Tail43152  16.935  18.760  17.583 -0.3239  0.0628 -0.1203
 3677G1HFO Head43153  19.587  14.322  20.627 -0.4764  0.0369  0.1314
 3677G1HFO Head43154  19.470  14.151  20.423 -0.0833  0.0068 -0.0600
 3677G1HFO Head43155  18.859  14.431  20.464  0.0877 -0.0803  0.2940
 3677G1HFO Head43156  19.117  14.319  20.558 -0.0038 -0.1792  0.2326
 3677G1HFO link43157  19.202  14.105  20.444 -0.2904  0.2928 -0.6511
 3677G1HFO link43158  19.072  13.955  20.252 -0.0400  0.0447  0.0098
 3677G1HFO Tail43159  18.960  14.108  19.973 -0.3221 -0.3357  0.1107
 3677G1HFO Tail43160  18.638  14.243  20.049 -0.2557 -0.1854 -0.0237
 3677G1HFO Tail43161  18.438  14.475  19.968 -0.2506 -0.0747 -0.1308
 3677G1HFO Tail43162  18.411  14.794  19.685 -0.2320 -0.0502  0.3705
 3677G1HFO Tail43163  19.146  14.395  19.960  0.2513 -0.1313  0.0422
 3677G1HFO Tail43164  19.252  14.467  20.171  0.0743 -0.2062 -0.4246
 3677G1HFO Tail43165  19.509  14.528  20.158 -0.0671 -0.0086 -0.3045
 3677G1HFO Tail43166  19.752  14.585  20.120 -0.1894 -0.2274 -0.3151
 3677G1HFO Tail43167  19.981  14.579  20.128 -0.0143  0.1427  0.0802
 3678G1HFO Head43168  17.720  20.636  17.826 -0.3661  0.2184  0.0171
 3678G1HFO Head43169  17.937  20.506  17.964  0.4366  0.4372  0.2738
 3678G1HFO Head43170  17.687  20.261  17.546 -0.0977 -0.0970  0.3534
 3678G1HFO Head43171  17.766  20.159  17.816  0.1200  0.0057 -0.3442
 3678G1HFO link43172  17.943  20.249  17.966 -0.1794 -0.0355  0.3844
 3678G1HFO link43173  18.121  20.082  18.116  0.0370  0.1095  0.2461
 3678G1HFO Tail43174  18.023  19.774  18.203  0.0010 -0.0897 -0.0646
 3678G1HFO Tail43175  18.031  19.803  18.558  0.2882  0.2616 -0.0940
 3678G1HFO Tail43176  18.239  19.900  18.766 -0.3045  0.2560  0.0726
 3678G1HFO Tail43177  18.176  19.994  19.205 -0.3951  0.3711 -0.0959
 3678G1HFO Tail43178  17.678  19.779  18.144  0.2567  0.1657  0.0056
 3678G1HFO Tail43179  17.537  19.561  18.179  0.0384  0.0080 -0.0531
 3678G1HFO Tail43180  17.478  19.424  17.962  0.0444 -0.1597 -0.1436
 3678G1HFO Tail43181  17.377  19.279  17.780  0.1040  0.0686  0.0093
 3678G1HFO Tail43182  17.266  19.109  17.658  0.1928  0.0816  0.0217
 3679G1HFO Head43183  14.688  18.987  20.640  0.2089  0.3653  0.0532
 3679G1HFO Head43184  14.843  18.883  20.433  0.2893 -0.0229  0.0893
 3679G1HFO Head43185  14.622  18.530  20.854  0.0024  0.2057  0.0224
 3679G1HFO Head43186  14.833  18.500  20.659 -0.1836  0.2227  0.1692
 3679G1HFO link43187  14.882  18.639  20.438 -0.2178 -0.0967 -0.0116
 3679G1HFO link43188  14.989  18.509  20.208  0.2138 -0.2210 -0.0947
 3679G1HFO Tail43189  15.186  18.272  20.273  0.0818 -0.1819 -0.4119
 3679G1HFO Tail43190  15.055  18.003  20.099  0.2552 -0.0118 -0.0851
 3679G1HFO Tail43191  14.811  17.820  20.163 -0.0058  0.0874 -0.0158
 3679G1HFO Tail43192  14.640  17.580  20.469 -0.1563  0.1253 -0.0037
 3679G1HFO Tail43193  15.454  18.378  20.075  0.0973 -0.0959 -0.3716
 3679G1HFO Tail43194  15.520  18.328  19.827  0.2938 -0.1409 -0.1217
 3679G1HFO Tail43195  15.638  18.516  19.688 -0.0677 -0.0933 -0.0366
 3679G1HFO Tail43196  15.800  18.663  19.549 -0.1301  0.0928  0.0853
 3679G1HFO Tail43197  15.907  18.820  19.418  0.0757  0.3046  0.1889
 3680G1HFO Head43198  14.293  19.013  19.855  0.2817 -0.0322 -0.0423
 3680G1HFO Head43199  14.428  18.770  19.870 -0.1754 -0.0365  0.5306
 3680G1HFO Head43200  14.771  19.235  19.910 -0.3393 -0.1576  0.2962
 3680G1HFO Head43201  14.789  18.953  19.994  0.1077 -0.0103  0.0105
 3680G1HFO link43202  14.685  18.769  19.833  0.0728  0.0882  0.2269
 3680G1HFO link43203  14.843  18.589  19.678 -0.1870 -0.0301 -0.1902
 3680G1HFO Tail43204  15.162  18.597  19.704 -0.3762  0.2730 -0.0811
 3680G1HFO Tail43205  15.270  18.419  19.428 -0.2739  0.1206  0.3008
 3680G1HFO Tail43206  15.202  18.265  19.165 -0.1346  0.3617  0.1419
 3680G1HFO Tail43207  15.023  17.883  19.074  0.1255 -0.0083 -0.1902
 3680G1HFO Tail43208  15.185  18.910  19.559 -0.3953  0.2535 -0.2198
 3680G1HFO Tail43209  15.367  18.985  19.388  0.1043  0.0097  0.2060
 3680G1HFO Tail43210  15.559  19.131  19.486 -0.2060  0.0925  0.0059
 3680G1HFO Tail43211  15.758  19.289  19.531  0.1428 -0.1399 -0.1375
 3680G1HFO Tail43212  15.941  19.402  19.625  0.0361 -0.0416 -0.4106
 3681G1HFO Head43213  15.145  19.771  20.568  0.0804  0.1321 -0.0344
 3681G1HFO Head43214  15.487  19.929  20.574  0.0241  0.2040  0.0350
 3681G1HFO Head43215  15.220  20.492  20.952 -0.0193  0.0459  0.1506
 3681G1HFO Head43216  15.255  20.182  20.827 -0.1935  0.1764  0.2991
 3681G1HFO link43217  15.514  20.106  20.764  0.1657  0.3127 -0.0916
 3681G1HFO link43218  15.750  20.236  20.855  0.0572 -0.3048 -0.3227
 3681G1HFO Tail43219  16.031  20.166  20.711  0.0722 -0.2882  0.0151
 3681G1HFO Tail43220  16.066  19.858  20.842  0.2040  0.2579  0.0886
 3681G1HFO Tail43221  16.034  19.724  21.134 -0.3482  0.2356  0.1026
 3681G1HFO Tail43222  16.200  19.737  21.536  0.4857 -0.2209 -0.1022
 3681G1HFO Tail43223  15.907  20.058  20.393  0.1647 -0.2822 -0.0707
 3681G1HFO Tail43224  16.025  20.089  20.161  0.1150 -0.3213 -0.0641
 3681G1HFO Tail43225  16.081  20.339  20.097 -0.2241 -0.1916  0.1615
 3681G1HFO Tail43226  16.157  20.556  19.990 -0.0562 -0.1947  0.2836
 3681G1HFO Tail43227  16.271  20.729  19.889 -0.0493 -0.4305  0.1118
 3682G1HFO Head43228  13.704  17.601  17.909 -0.0670  0.0045  0.2248
 3682G1HFO Head43229  13.937  17.543  18.110 -0.2826  0.0089  0.1667
 3682G1HFO Head43230  13.746  16.926  18.078 -0.0864 -0.1896 -0.0711
 3682G1HFO Head43231  13.915  17.176  17.924  0.0444 -0.4946  0.2671
 3682G1HFO link43232  14.098  17.324  18.064  0.1173 -0.1813  0.1843
 3682G1HFO link43233  14.376  17.277  18.105  0.1839 -0.2021 -0.0037
 3682G1HFO Tail43234  14.491  16.975  18.053 -0.2070 -0.1511 -0.0853
 3682G1HFO Tail43235  14.261  16.834  17.850  0.0781 -0.1823  0.2940
 3682G1HFO Tail43236  14.067  16.586  17.867 -0.2159  0.0289 -0.0915
 3682G1HFO Tail43237  13.765  16.363  17.644  0.0154 -0.1368 -0.5256
 3682G1HFO Tail43238  14.721  17.090  17.806 -0.0240  0.0710  0.1725
 3682G1HFO Tail43239  14.689  17.312  17.680  0.1797  0.0675 -0.1707
 3682G1HFO Tail43240  14.692  17.547  17.805  0.0126  0.3517 -0.1141
 3682G1HFO Tail43241  14.721  17.768  17.917 -0.0647  0.0889  0.2174
 3682G1HFO Tail43242  14.712  17.936  18.074 -0.2010 -0.3221  0.3785
 3683G1HFO Head43243  20.856  15.017  17.413 -0.0187  0.2090  0.1157
 3683G1HFO Head43244  20.762  14.772  17.608 -0.2752 -0.4004 -0.1354
 3683G1HFO Head43245  20.558  14.274  17.485  0.0967  0.0731  0.2958
 3683G1HFO Head43246  20.545  14.456  17.751  0.1743 -0.0317 -0.0298
 3683G1HFO link43247  20.517  14.719  17.711  0.3151 -0.3778  0.0055
 3683G1HFO link43248  20.285  14.830  17.599  0.1391 -0.1706 -0.1011
 3683G1HFO Tail43249  20.153  15.108  17.736  0.3532 -0.1901 -0.4216
 3683G1HFO Tail43250  20.308  15.354  17.531  0.0701  0.3609  0.0878
 3683G1HFO Tail43251  20.545  15.350  17.322 -0.3358 -0.3811 -0.2791
 3683G1HFO Tail43252  20.667  15.240  16.932  0.1772  0.1284 -0.0438
 3683G1HFO Tail43253  19.836  15.104  17.605  0.1631 -0.2939 -0.0048
 3683G1HFO Tail43254  19.660  14.990  17.768  0.0623 -0.0408  0.0083
 3683G1HFO Tail43255  19.417  15.069  17.756  0.0681  0.0587 -0.0921
 3683G1HFO Tail43256  19.193  15.190  17.766  0.0542 -0.1277 -0.1725
 3683G1HFO Tail43257  19.024  15.335  17.819 -0.1014  0.1965  0.2434
 3684G1HFO Head43258  16.064  14.016  17.450  0.0439  0.1014  0.1308
 3684G1HFO Head43259  15.818  14.189  17.523 -0.0704  0.0561 -0.0080
 3684G1HFO Head43260  15.353  14.282  17.992 -0.0803 -0.1145  0.3006
 3684G1HFO Head43261  15.596  14.178  17.860  0.4181  0.3179  0.1045
 3684G1HFO link43262  15.776  14.333  17.740 -0.2864 -0.0193 -0.3126
 3684G1HFO link43263  15.951  14.506  17.875  0.0530 -0.0329 -0.1597
 3684G1HFO Tail43264  15.868  14.631  18.168  0.2120 -0.5020 -0.1414
 3684G1HFO Tail43265  16.155  14.833  18.182 -0.0945  0.4007 -0.4624
 3684G1HFO Tail43266  16.402  14.782  18.377  0.0943  0.3615 -0.3858
 3684G1HFO Tail43267  16.562  14.752  18.773  0.2673  0.0032 -0.3206
 3684G1HFO Tail43268  15.647  14.887  18.086 -0.1760  0.2763 -0.1274
 3684G1HFO Tail43269  15.595  14.963  17.827  0.0857  0.0920  0.2110
 3684G1HFO Tail43270  15.555  14.765  17.654 -0.2029  0.1468 -0.2607
 3684G1HFO Tail43271  15.514  14.552  17.525 -0.1141  0.2154  0.2400
 3684G1HFO Tail43272  15.433  14.394  17.367  0.3246  0.0104  0.2097
 3685G1HFO Head43273  18.326  15.271  21.356 -0.0162  0.0033  0.2349
 3685G1HFO Head43274  18.246  15.299  21.033 -0.2631 -0.3140  0.1442
 3685G1HFO Head43275  18.171  15.755  21.290  0.0124 -0.1257  0.4333
 3685G1HFO Head43276  17.950  15.560  21.142 -0.6007 -0.0950  0.0311
 3685G1HFO link43277  18.019  15.407  20.946  0.1473  0.8051  0.3630
 3685G1HFO link43278  17.920  15.407  20.670 -0.3288 -0.4138  0.2012
 3685G1HFO Tail43279  17.764  15.664  20.554  0.1922 -0.5064 -0.2859
 3685G1HFO Tail43280  17.444  15.556  20.493 -0.1981  0.0153 -0.3989
 3685G1HFO Tail43281  17.370  15.337  20.266  0.2023 -0.0758 -0.0001
 3685G1HFO Tail43282  17.084  15.295  19.938  0.2678 -0.1866 -0.1477
 3685G1HFO Tail43283  17.703  15.818  20.850  0.1484  0.0925  0.1470
 3685G1HFO Tail43284  17.458  15.802  20.950 -0.1557  0.1571  0.1318
 3685G1HFO Tail43285  17.343  16.001  21.049 -0.1554 -0.1250 -0.0551
 3685G1HFO Tail43286  17.210  16.174  21.184  0.0350 -0.0254 -0.0160
 3685G1HFO Tail43287  17.037  16.286  21.303 -0.0449 -0.0853 -0.1144
 3686G1HFO Head43288  21.530  15.286  17.872 -0.5123  0.2740 -0.1056
 3686G1HFO Head43289  21.207  15.284  17.739 -0.2249 -0.0245  0.1279
 3686G1HFO Head43290  21.534  15.730  17.594  0.1825 -0.0398 -0.1965
 3686G1HFO Head43291  21.266  15.702  17.753 -0.0005  0.1640  0.1727
 3686G1HFO link43292  21.078  15.496  17.755  0.3686 -0.0609  0.2574
 3686G1HFO link43293  20.795  15.546  17.678 -0.2851  0.0006 -0.1724
 3686G1HFO Tail43294  20.597  15.747  17.845  0.2682  0.2463 -0.0392
 3686G1HFO Tail43295  20.433  15.492  18.020  0.0679 -0.1897  0.7210
 3686G1HFO Tail43296  20.371  15.361  18.301  0.2310 -0.1030  0.4637
 3686G1HFO Tail43297  20.160  15.398  18.674 -0.0143  0.2490 -0.0518
 3686G1HFO Tail43298  20.852  15.872  18.034 -0.0630  0.1011  0.4970
 3686G1HFO Tail43299  20.850  15.855  18.287 -0.0090 -0.1464 -0.1625
 3686G1HFO Tail43300  21.080  15.917  18.407  0.1817 -0.0695  0.0763
 3686G1HFO Tail43301  21.266  15.993  18.560  0.0757  0.0373  0.0693
 3686G1HFO Tail43302  21.422  16.115  18.696 -0.0532  0.1811 -0.0912
 3687G1HFO Head43303  17.585  19.254  20.309  0.2634 -0.2018  0.0091
 3687G1HFO Head43304  17.268  19.221  20.378  0.2927 -0.1535 -0.3524
 3687G1HFO Head43305  17.427  19.335  19.852 -0.0900  0.3246  0.0807
 3687G1HFO Head43306  17.199  19.126  20.000  0.4132  0.1732 -0.3413
 3687G1HFO link43307  17.093  19.171  20.209  0.3743  0.3213  0.0241
 3687G1HFO link43308  16.810  19.256  20.253  0.0801  0.0765 -0.2002
 3687G1HFO Tail43309  16.628  19.120  20.487 -0.2029  0.1740 -0.1833
 3687G1HFO Tail43310  16.442  19.384  20.589  0.1031 -0.2266 -0.2937
 3687G1HFO Tail43311  16.296  19.443  20.880  0.1821  0.0687  0.2367
 3687G1HFO Tail43312  16.134  19.256  21.239 -0.0560 -0.2639  0.2006
 3687G1HFO Tail43313  16.391  18.976  20.277 -0.0718  0.0837 -0.0089
 3687G1HFO Tail43314  16.135  19.043  20.310  0.1673  0.1375  0.2842
 3687G1HFO Tail43315  15.941  18.966  20.157  0.1075 -0.2985 -0.0514
 3687G1HFO Tail43316  15.737  18.879  20.034  0.0510 -0.0648 -0.1735
 3687G1HFO Tail43317  15.516  18.862  19.937  0.0353  0.1748 -0.1115
 3688G1HFO Head43318  21.361  16.865  19.679 -0.2196 -0.0037 -0.0882
 3688G1HFO Head43319  21.370  16.631  19.937  0.0953  0.3370 -0.0743
 3688G1HFO Head43320  20.751  16.477  20.163 -0.2833  0.0845 -0.4034
 3688G1HFO Head43321  21.055  16.458  20.154  0.0540 -0.2056  0.0936
 3688G1HFO link43322  21.198  16.435  19.938  0.5139 -0.2056  0.2201
 3688G1HFO link43323  21.139  16.315  19.687 -0.1118 -0.2612 -0.2201
 3688G1HFO Tail43324  20.845  16.211  19.608  0.2369 -0.5032  0.2817
 3688G1HFO Tail43325  20.802  16.334  19.282 -0.1544  0.0716  0.6026
 3688G1HFO Tail43326  20.750  16.594  19.105  0.2620  0.0578  0.0851
 3688G1HFO Tail43327  20.855  17.017  19.031 -0.1144  0.1212  0.2517
 3688G1HFO Tail43328  20.905  15.870  19.535 -0.1170 -0.0148 -0.0080
 3688G1HFO Tail43329  20.724  15.722  19.404  0.1020  0.0403  0.0143
 3688G1HFO Tail43330  20.560  15.850  19.248  0.1603 -0.0353 -0.1076
 3688G1HFO Tail43331  20.395  15.944  19.067  0.3145  0.2114 -0.0183
 3688G1HFO Tail43332  20.279  15.972  18.861 -0.2041  0.3701  0.1784
 3689G1HFO Head43333  16.180  15.366  18.529  0.1572  0.1117 -0.2405
 3689G1HFO Head43334  16.017  15.526  18.791 -0.1213  0.4230  0.4202
 3689G1HFO Head43335  16.197  16.056  19.114  0.4695 -0.2941  0.1210
 3689G1HFO Head43336  16.141  15.863  18.938 -0.1689  0.1589 -0.1880
 3689G1HFO link43337  16.135  15.606  18.994  0.4180 -0.1472 -0.3692
 3689G1HFO link43338  16.139  15.465  19.243  0.1106  0.0802 -0.1171
 3689G1HFO Tail43339  16.192  15.575  19.544 -0.0864 -0.1699 -0.1692
 3689G1HFO Tail43340  16.089  15.913  19.557  0.3765  0.3262 -0.0114
 3689G1HFO Tail43341  15.823  16.053  19.689  0.0572  0.2547 -0.1465
 3689G1HFO Tail43342  15.634  16.455  19.725  0.1878  0.2219  0.2703
 3689G1HFO Tail43343  15.929  15.434  19.747 -0.1779  0.2594 -0.1084
 3689G1HFO Tail43344  15.711  15.571  19.793 -0.3208 -0.2303 -0.1345
 3689G1HFO Tail43345  15.508  15.467  19.914  0.1019  0.1798 -0.0329
 3689G1HFO Tail43346  15.287  15.383  20.011  0.2922  0.3343 -0.0617
 3689G1HFO Tail43347  15.058  15.314  20.028  0.0314  0.0817 -0.2603
 3690G1HFO Head43348  17.781  16.022  19.766  0.0206 -0.6188 -0.4163
 3690G1HFO Head43349  17.626  16.208  19.986 -0.1099 -0.1795 -0.2154
 3690G1HFO Head43350  17.133  16.367  19.513  0.0778 -0.0959 -0.0189
 3690G1HFO Head43351  17.384  16.306  19.634 -0.0040 -0.1176 -0.0146
 3690G1HFO link43352  17.402  16.337  19.899 -0.3459  0.2013  0.0750
 3690G1HFO link43353  17.192  16.376  20.083 -0.4512  0.0696 -0.4216
 3690G1HFO Tail43354  17.011  16.657  20.106 -0.4275 -0.0387  0.0092
 3690G1HFO Tail43355  16.798  16.624  19.843  0.3895 -0.0852 -0.1202
 3690G1HFO Tail43356  16.488  16.560  19.804  0.1652  0.0911  0.2926
 3690G1HFO Tail43357  16.143  16.327  19.965 -0.1603 -0.2781  0.0690
 3690G1HFO Tail43358  16.866  16.585  20.390  0.3789  0.1956  0.3209
 3690G1HFO Tail43359  16.988  16.480  20.597 -0.1809 -0.0547  0.0809
 3690G1HFO Tail43360  17.182  16.303  20.562 -0.1723  0.1103  0.0828
 3690G1HFO Tail43361  17.365  16.139  20.493  0.2623 -0.1972  0.1729
 3690G1HFO Tail43362  17.568  16.026  20.480  0.0406  0.1021  0.0808
 3691G1HFO Head43363  20.045  17.221  21.288 -0.6268 -0.1857 -0.3701
 3691G1HFO Head43364  19.780  17.348  21.223  0.2552 -0.0796 -0.2254
 3691G1HFO Head43365  20.035  17.344  20.670 -0.2580 -0.4556  0.1955
 3691G1HFO Head43366  19.776  17.298  20.821 -0.3964  0.0865  0.1044
 3691G1HFO link43367  19.685  17.447  21.007 -0.2279 -0.0508 -0.5787
 3691G1HFO link43368  19.418  17.548  20.989  0.1612 -0.3301 -0.0486
 3691G1HFO Tail43369  19.251  17.562  20.700 -0.2187  0.3679  0.1190
 3691G1HFO Tail43370  18.922  17.529  20.792  0.2497  0.3428 -0.1187
 3691G1HFO Tail43371  18.645  17.617  20.662  0.1694 -0.1531  0.1805
 3691G1HFO Tail43372  18.480  17.997  20.492 -0.2155 -0.0694  0.3824
 3691G1HFO Tail43373  19.242  17.903  20.641  0.1787  0.0099  0.1898
 3691G1HFO Tail43374  19.458  18.057  20.624  0.0614  0.0784  0.0471
 3691G1HFO Tail43375  19.670  17.942  20.720  0.1994 -0.1171  0.0760
 3691G1HFO Tail43376  19.853  17.807  20.819 -0.0680  0.1148  0.1838
 3691G1HFO Tail43377  19.986  17.669  20.958 -0.1407  0.1804  0.2393
 3692G1HFO Head43378  15.077  17.401  15.668  0.3005 -0.0024 -0.0611
 3692G1HFO Head43379  15.030  17.609  15.945 -0.2708 -0.0904 -0.0325
 3692G1HFO Head43380  15.405  17.866  15.670 -0.0049  0.0938  0.1673
 3692G1HFO Head43381  15.434  17.803  15.978  0.0877  0.4398  0.5487
 3692G1HFO link43382  15.245  17.667  16.116  0.0201  0.1116 -0.1541
 3692G1HFO link43383  15.281  17.584  16.392  0.0856  0.0109  0.2897
 3692G1HFO Tail43384  15.061  17.417  16.577 -0.1994  0.1225 -0.0050
 3692G1HFO Tail43385  15.230  17.090  16.577 -0.0417  0.0435 -0.2726
 3692G1HFO Tail43386  15.509  16.974  16.453  0.6282 -0.3038  0.1681
 3692G1HFO Tail43387  15.938  17.015  16.514 -0.0690 -0.0469 -0.0663
 3692G1HFO Tail43388  15.119  17.551  16.898  0.4816 -0.0396 -0.3336
 3692G1HFO Tail43389  15.200  17.388  17.101 -0.3472  0.0114  0.4182
 3692G1HFO Tail43390  15.415  17.246  17.064 -0.0972  0.1572  0.0474
 3692G1HFO Tail43391  15.599  17.070  17.037 -0.1873 -0.0681  0.0057
 3692G1HFO Tail43392  15.751  16.904  16.967 -0.2665 -0.1113  0.2607
 3693G1HFO Head43393  17.092  16.469  16.605 -0.2128 -0.1196  0.0894
 3693G1HFO Head43394  16.959  16.342  16.361 -0.3612 -0.3703 -0.0736
 3693G1HFO Head43395  16.448  16.277  16.641  0.0727 -0.0041  0.2254
 3693G1HFO Head43396  16.582  16.256  16.361 -0.5621  0.0869 -0.2056
 3693G1HFO link43397  16.742  16.458  16.306  0.3869  0.0544  0.2894
 3693G1HFO link43398  16.672  16.725  16.383  0.0962 -0.0908  0.1379
 3693G1HFO Tail43399  16.356  16.822  16.400 -0.2643  0.1728  0.0010
 3693G1HFO Tail43400  16.366  17.087  16.176 -0.4888  0.1147 -0.0886
 3693G1HFO Tail43401  16.231  17.365  16.199 -0.3325 -0.3503 -0.0392
 3693G1HFO Tail43402  16.124  17.688  15.924  0.1470  0.2248  0.5380
 3693G1HFO Tail43403  16.225  16.593  16.189  0.1015 -0.1393 -0.1162
 3693G1HFO Tail43404  16.326  16.474  15.981 -0.0090  0.0352  0.4053
 3693G1HFO Tail43405  16.566  16.547  15.896  0.0338  0.2259 -0.1428
 3693G1HFO Tail43406  16.766  16.635  15.775 -0.0829 -0.2171 -0.2107
 3693G1HFO Tail43407  16.951  16.654  15.637 -0.2056  0.2046 -0.0323
 3694G1HFO Head43408  18.695  18.223  18.143  0.0575 -0.1614 -0.0061
 3694G1HFO Head43409  18.648  18.481  18.249  0.1564 -0.1262  0.1159
 3694G1HFO Head43410  19.149  18.353  18.212  0.2153 -0.1703  0.0732
 3694G1HFO Head43411  19.009  18.399  18.477 -0.1931 -0.3111 -0.1023
 3694G1HFO link43412  18.775  18.529  18.462  0.0121  0.3157 -0.3855
 3694G1HFO link43413  18.658  18.678  18.663  0.0098  0.1593  0.0654
 3694G1HFO Tail43414  18.848  18.821  18.898  0.1608 -0.1104 -0.3074
 3694G1HFO Tail43415  18.594  19.016  19.036 -0.2460 -0.0167 -0.0863
 3694G1HFO Tail43416  18.593  19.252  19.230 -0.1609  0.0287  0.3851
 3694G1HFO Tail43417  18.329  19.555  19.347  0.2501 -0.0559 -0.2288
 3694G1HFO Tail43418  18.883  18.583  19.126 -0.1104 -0.0132 -0.1934
 3694G1HFO Tail43419  19.119  18.552  19.248 -0.0119  0.0230  0.0025
 3694G1HFO Tail43420  19.337  18.537  19.093  0.1856  0.2926  0.0938
 3694G1HFO Tail43421  19.542  18.516  18.944 -0.0288 -0.1022 -0.0373
 3694G1HFO Tail43422  19.731  18.455  18.816  0.2794  0.0409 -0.0569
 3695G1HFO Head43423  19.112  17.680  18.478 -0.0180  0.4687 -0.0512
 3695G1HFO Head43424  18.953  17.926  18.473 -0.2604 -0.0914  0.4318
 3695G1HFO Head43425  19.024  17.642  18.944 -0.1685  0.1179 -0.0949
 3695G1HFO Head43426  18.809  17.789  18.843  0.0606 -0.1405  0.0759
 3695G1HFO link43427  18.828  18.004  18.682 -0.0006 -0.4176 -0.2268
 3695G1HFO link43428  18.607  18.180  18.659  0.1081  0.1602 -0.1454
 3695G1HFO Tail43429  18.331  18.149  18.828  0.4237 -0.0890  0.0787
 3695G1HFO Tail43430  18.180  18.458  18.804  0.0535 -0.0545  0.1417
 3695G1HFO Tail43431  18.275  18.729  18.943  0.7138 -0.0308 -0.1247
 3695G1HFO Tail43432  18.079  19.094  19.061  0.3010 -0.1066  0.3364
 3695G1HFO Tail43433  18.157  17.950  18.616 -0.0564 -0.3053  0.0056
 3695G1HFO Tail43434  18.106  17.702  18.693 -0.2049 -0.3414  0.1878
 3695G1HFO Tail43435  18.284  17.564  18.821 -0.1060 -0.0839 -0.0068
 3695G1HFO Tail43436  18.483  17.458  18.936  0.1523  0.1978 -0.0929
 3695G1HFO Tail43437  18.675  17.412  19.055 -0.1356 -0.2816 -0.2245
 3696G1HFO Head43438  20.902  19.002  18.970 -0.0883 -0.0742  0.1040
 3696G1HFO Head43439  20.806  18.740  18.883 -0.0177 -0.3951  0.1924
 3696G1HFO Head43440  21.457  18.609  18.683  0.3483  0.2092  0.1040
 3696G1HFO Head43441  21.190  18.570  18.814  0.3041 -0.1383  0.2478
 3696G1HFO link43442  20.952  18.610  18.709  0.0352  0.2892 -0.2997
 3696G1HFO link43443  20.864  18.496  18.451  0.0559 -0.1557 -0.0794
 3696G1HFO Tail43444  20.674  18.218  18.396  0.2806  0.2530 -0.2049
 3696G1HFO Tail43445  20.491  18.315  18.121  0.0337  0.3491 -0.3186
 3696G1HFO Tail43446  20.196  18.249  18.000  0.3897  0.1692  0.0618
 3696G1HFO Tail43447  19.873  17.943  17.987 -0.1565  0.0908 -0.1815
 3696G1HFO Tail43448  20.900  18.030  18.187 -0.0511 -0.2508 -0.2825
 3696G1HFO Tail43449  20.818  17.808  18.095 -0.0804  0.1121  0.2987
 3696G1HFO Tail43450  20.784  17.603  18.256  0.0591 -0.0367 -0.1612
 3696G1HFO Tail43451  20.769  17.418  18.433 -0.2587  0.1012  0.0968
 3696G1HFO Tail43452  20.735  17.292  18.625  0.0693  0.1264 -0.2401
 3697G1HFO Head43453  17.279  18.881  21.965 -0.0635  0.0580 -0.1393
 3697G1HFO Head43454  17.107  18.771  21.759  0.2373  0.4227  0.0158
 3697G1HFO Head43455  16.786  18.504  22.212 -0.1902  0.0272 -0.1194
 3697G1HFO Head43456  17.035  18.502  22.053 -0.0899 -0.1226 -0.0685
 3697G1HFO link43457  17.015  18.527  21.792  0.2265  0.0647 -0.0793
 3697G1HFO link43458  16.820  18.388  21.629 -0.0253 -0.4940  0.2255
 3697G1HFO Tail43459  16.654  18.538  21.386  0.1948  0.4102  0.1313
 3697G1HFO Tail43460  16.917  18.706  21.249  0.0001  0.1156  0.1804
 3697G1HFO Tail43461  17.085  18.956  21.345  0.5007 -0.0121  0.1038
 3697G1HFO Tail43462  17.134  19.221  21.663 -0.3060 -0.0609  0.1295
 3697G1HFO Tail43463  16.625  18.288  21.162 -0.0403  0.0223 -0.1292
 3697G1HFO Tail43464  16.803  18.091  21.144 -0.2181 -0.0366 -0.0904
 3697G1HFO Tail43465  16.752  17.917  20.961 -0.0593 -0.0028 -0.0281
 3697G1HFO Tail43466  16.723  17.755  20.772  0.0400 -0.1411 -0.1673
 3697G1HFO Tail43467  16.643  17.640  20.588 -0.0460 -0.3283  0.1024
 3698G1HFO Head43468  17.604  19.262  15.516  0.1140 -0.1072  0.0606
 3698G1HFO Head43469  17.582  19.028  15.678  0.1126  0.3019  0.1121
 3698G1HFO Head43470  17.173  18.949  15.385  0.0742 -0.0822 -0.2870
 3698G1HFO Head43471  17.409  18.693  15.495  0.0813 -0.0606  0.0805
 3698G1HFO link43472  17.638  18.770  15.587 -0.4723 -0.1773 -0.0088
 3698G1HFO link43473  17.781  18.594  15.747 -0.0440  0.1511 -0.0521
 3698G1HFO Tail43474  17.986  18.713  15.976  0.3105 -0.0388  0.0422
 3698G1HFO Tail43475  18.270  18.644  15.812  0.1490 -0.2277 -0.1473
 3698G1HFO Tail43476  18.312  18.428  15.591 -0.2938  0.0969  0.1898
 3698G1HFO Tail43477  18.144  18.291  15.226  0.4833 -0.2326 -0.1371
 3698G1HFO Tail43478  17.890  19.050  15.951 -0.0866  0.0015 -0.1121
 3698G1HFO Tail43479  17.805  19.177  16.177  0.0005  0.1818 -0.0671
 3698G1HFO Tail43480  17.734  19.430  16.141 -0.1064  0.3774 -0.0869
 3698G1HFO Tail43481  17.710  19.669  16.089 -0.0387 -0.0029  0.0083
 3698G1HFO Tail43482  17.668  19.871  15.983 -0.2305 -0.2372  0.0280
 3699G1HFO Head43483  14.264  15.014  18.499  0.2968 -0.2943  0.1440
 3699G1HFO Head43484  14.215  15.152  18.250  0.2908 -0.0968  0.2770
 3699G1HFO Head43485  13.934  14.712  18.152 -0.2659  0.2409 -0.0238
 3699G1HFO Head43486  14.179  14.810  17.987 -0.1491  0.0310 -0.0256
 3699G1HFO link43487  14.263  15.053  18.014  0.0658  0.0810  0.2554
 3699G1HFO link43488  14.444  15.180  17.823  0.0143  0.1183  0.0961
 3699G1HFO Tail43489  14.765  15.157  17.883  0.5059  0.2409 -0.2455
 3699G1HFO Tail43490  14.844  15.490  17.842  0.1418 -0.1253 -0.1748
 3699G1HFO Tail43491  15.141  15.632  17.779 -0.4613 -0.0645  0.1214
 3699G1HFO Tail43492  15.343  16.004  17.651 -0.1013 -0.0190  0.0706
 3699G1HFO Tail43493  14.718  15.162  18.247 -0.3911  0.0360  0.0274
 3699G1HFO Tail43494  14.754  15.367  18.410 -0.2188  0.2726 -0.0887
 3699G1HFO Tail43495  14.552  15.516  18.450 -0.0617 -0.1076 -0.1739
 3699G1HFO Tail43496  14.373  15.697  18.468  0.2038 -0.2764 -0.1574
 3699G1HFO Tail43497  14.208  15.846  18.548  0.1136 -0.1954 -0.0353
 3700G1HFO Head43498  19.824  20.250  15.958  0.3071  0.1937  0.1315
 3700G1HFO Head43499  19.533  20.374  15.983 -0.3761 -0.1314 -0.0970
 3700G1HFO Head43500  19.085  20.634  16.325  0.2088  0.0328  0.1112
 3700G1HFO Head43501  19.351  20.471  16.346  0.1096  0.4346 -0.5073
 3700G1HFO link43502  19.379  20.282  16.167  0.5236  0.2637  0.2444
 3700G1HFO link43503  19.227  20.043  16.142 -0.3711  0.3102 -0.0999
 3700G1HFO Tail43504  19.090  19.896  16.404 -0.5891 -0.0974  0.0523
 3700G1HFO Tail43505  18.898  19.668  16.208 -0.0591 -0.4263  0.4484
 3700G1HFO Tail43506  18.652  19.455  16.251  0.1574 -0.2040 -0.0722
 3700G1HFO Tail43507  18.229  19.445  16.166 -0.1362  0.4088 -0.0460
 3700G1HFO Tail43508  19.340  19.662  16.463 -0.7078  0.0512  0.0246
 3700G1HFO Tail43509  19.307  19.429  16.563 -0.1172 -0.1169  0.0924
 3700G1HFO Tail43510  19.139  19.267  16.446 -0.2615  0.0141 -0.4526
 3700G1HFO Tail43511  19.001  19.112  16.305  0.3036  0.1186 -0.0285
 3700G1HFO Tail43512  18.927  18.938  16.178  0.1306 -0.1494  0.0785
 3701G1HFO Head43513  16.697  17.650  15.694 -0.1308 -0.2210 -0.3668
 3701G1HFO Head43514  16.954  17.592  15.592 -0.3089  0.2555  0.0716
 3701G1HFO Head43515  17.314  17.721  15.144  0.1467 -0.0796 -0.1038
 3701G1HFO Head43516  17.173  17.886  15.390 -0.2224 -0.1211 -0.5646
 3701G1HFO link43517  17.143  17.774  15.632 -0.2213  0.0093  0.4455
 3701G1HFO link43518  17.309  17.791  15.864  0.1751  0.2047  0.0063
 3701G1HFO Tail43519  17.207  17.668  16.165 -0.1548 -0.1739  0.2096
 3701G1HFO Tail43520  16.855  17.633  16.169  0.2727 -0.0069 -0.2289
 3701G1HFO Tail43521  16.612  17.569  16.373  0.2611  0.1083  0.3299
 3701G1HFO Tail43522  16.500  17.258  16.663  0.3278 -0.0141 -0.1363
 3701G1HFO Tail43523  17.284  17.347  16.144  0.0467  0.0937  0.0365
 3701G1HFO Tail43524  17.269  17.197  16.348 -0.0755  0.1582 -0.1372
 3701G1HFO Tail43525  17.244  16.937  16.304 -0.1851 -0.1044  0.1506
 3701G1HFO Tail43526  17.262  16.690  16.232  0.0052  0.1426 -0.1506
 3701G1HFO Tail43527  17.268  16.485  16.112  0.0720 -0.0135 -0.2544
 3702G1HFO Head43528  18.652  13.711  17.867 -0.1610 -0.1349 -0.2633
 3702G1HFO Head43529  18.406  13.914  17.960  0.3728 -0.0848  0.4032
 3702G1HFO Head43530  17.981  13.367  18.196  0.2131  0.1505 -0.2530
 3702G1HFO Head43531  18.226  13.568  18.107  0.1438 -0.0946  0.2117
 3702G1HFO link43532  18.171  13.793  18.028 -0.3110 -0.5544 -0.3065
 3702G1HFO link43533  17.955  13.957  18.122 -0.1255 -0.0426 -0.1208
 3702G1HFO Tail43534  17.970  14.271  18.192 -0.3489  0.6157  0.3087
 3702G1HFO Tail43535  18.301  14.310  18.295 -0.0391 -0.1186  0.0146
 3702G1HFO Tail43536  18.584  14.312  18.145 -0.1372 -0.0904  0.4039
 3702G1HFO Tail43537  18.919  14.046  18.077 -0.3366  0.0874  0.1450
 3702G1HFO Tail43538  18.012  14.414  17.880 -0.1069  0.2075  0.2372
 3702G1HFO Tail43539  18.204  14.580  17.831 -0.2263 -0.0255 -0.0954
 3702G1HFO Tail43540  18.426  14.475  17.746 -0.1704 -0.0069 -0.2582
 3702G1HFO Tail43541  18.645  14.362  17.710 -0.1098  0.0444 -0.0973
 3702G1HFO Tail43542  18.814  14.198  17.680  0.0979  0.1061 -0.1838
 3703G1HFO Head43543  17.175  19.740  15.792  0.1199  0.0932 -0.1668
 3703G1HFO Head43544  17.325  19.447  15.913  0.2677 -0.1491  0.1058
 3703G1HFO Head43545  16.794  19.063  15.706  0.0374 -0.2591  0.6617
 3703G1HFO Head43546  16.945  19.287  15.863  0.3476  0.1454 -0.1290
 3703G1HFO link43547  17.182  19.236  15.959  0.4587 -0.0339  0.3294
 3703G1HFO link43548  17.286  18.978  16.017 -0.1869  0.2110  0.0237
 3703G1HFO Tail43549  17.319  18.847  16.316  0.2444 -0.0783 -0.0101
 3703G1HFO Tail43550  17.653  18.721  16.300  0.3578  0.0499 -0.0478
 3703G1HFO Tail43551  17.925  18.841  16.414  0.2581  0.1917  0.0419
 3703G1HFO Tail43552  18.359  18.820  16.379 -0.1930 -0.3466 -0.0097
 3703G1HFO Tail43553  17.394  19.145  16.499  0.0344  0.1275 -0.1792
 3703G1HFO Tail43554  17.388  19.391  16.397  0.0324 -0.3097  0.0502
 3703G1HFO Tail43555  17.315  19.582  16.554  0.0481  0.3829 -0.1347
 3703G1HFO Tail43556  17.206  19.761  16.697  0.3199  0.1373 -0.0053
 3703G1HFO Tail43557  17.166  19.913  16.867  0.1675  0.1321 -0.1519
 3704G1HFO Head43558  22.222  16.884  18.570  0.5393 -0.3240 -0.2780
 3704G1HFO Head43559  21.922  16.800  18.514 -0.5315 -0.1902  0.0218
 3704G1HFO Head43560  21.757  16.836  19.170  0.1131 -0.0680  0.1151
 3704G1HFO Head43561  21.835  16.890  18.908  0.0566 -0.2567  0.2195
 3704G1HFO link43562  21.780  16.729  18.704  0.2349  0.2371 -0.3179
 3704G1HFO link43563  21.537  16.611  18.658 -0.0094  0.2152  0.1537
 3704G1HFO Tail43564  21.484  16.392  18.416 -0.3394  0.1274 -0.3631
 3704G1HFO Tail43565  21.176  16.498  18.279 -0.0323  0.0554  0.2303
 3704G1HFO Tail43566  20.901  16.364  18.183  0.2445  0.3933 -0.2577
 3704G1HFO Tail43567  20.506  16.217  18.310 -0.1157 -0.0044 -0.0055
 3704G1HFO Tail43568  21.718  16.488  18.185 -0.0143  0.4110 -0.1291
 3704G1HFO Tail43569  21.669  16.618  17.961 -0.2818 -0.0054  0.2189
 3704G1HFO Tail43570  21.433  16.732  17.934 -0.1603  0.4077 -0.2107
 3704G1HFO Tail43571  21.190  16.794  17.911  0.0791 -0.2199 -0.1772
 3704G1HFO Tail43572  20.955  16.814  17.943 -0.2535 -0.1933 -0.2439
 3705G1HFO Head43573  14.985  18.422  21.874 -0.2152 -0.4883  0.1912
 3705G1HFO Head43574  14.981  18.757  21.875 -0.2387  0.2479  0.3892
 3705G1HFO Head43575  15.319  18.551  22.165  0.0185 -0.2733  0.0979
 3705G1HFO Head43576  15.341  18.813  22.094 -0.2980 -0.2129  0.0243
 3705G1HFO link43577  15.207  18.905  21.887  0.3433 -0.1678  0.3934
 3705G1HFO link43578  15.331  19.076  21.690  0.0022  0.0405  0.4361
 3705G1HFO Tail43579  15.269  19.013  21.366  0.0834  0.1919  0.0282
 3705G1HFO Tail43580  15.582  18.917  21.261  0.0214 -0.1243 -0.0918
 3705G1HFO Tail43581  15.841  18.800  21.383 -0.0523  0.2312  0.0431
 3705G1HFO Tail43582  16.197  18.938  21.585 -0.3133  0.0656 -0.0066
 3705G1HFO Tail43583  15.134  18.698  21.434  0.3416 -0.3287  0.0150
 3705G1HFO Tail43584  15.291  18.516  21.559 -0.1399 -0.0238  0.0756
 3705G1HFO Tail43585  15.497  18.607  21.685  0.0754  0.2309  0.0210
 3705G1HFO Tail43586  15.727  18.671  21.787 -0.1689  0.2845 -0.0777
 3705G1HFO Tail43587  15.956  18.667  21.865  0.1647 -0.1659  0.0516
 3706G1HFO Head43588  13.144  17.467  20.286  0.0943  0.0349 -0.1126
 3706G1HFO Head43589  13.433  17.304  20.259 -0.3653 -0.1320  0.0184
 3706G1HFO Head43590  13.224  17.525  19.772 -0.1986  0.1322  0.2946
 3706G1HFO Head43591  13.396  17.290  19.859  0.1121 -0.3972 -0.6747
 3706G1HFO link43592  13.577  17.280  20.036  0.2523  0.5817 -0.1518
 3706G1HFO link43593  13.834  17.165  20.032 -0.0153 -0.1193  0.1088
 3706G1HFO Tail43594  13.911  16.863  19.936 -0.1453  0.2058  0.1091
 3706G1HFO Tail43595  14.128  16.898  19.679 -0.1338 -0.0238  0.0239
 3706G1HFO Tail43596  14.113  17.032  19.386 -0.0984 -0.3748  0.3023
 3706G1HFO Tail43597  14.342  17.257  19.081  0.0049  0.2609  0.1761
 3706G1HFO Tail43598  14.131  16.740  20.197 -0.0452  0.1790  0.0516
 3706G1HFO Tail43599  14.237  16.497  20.168 -0.0335  0.0766  0.2317
 3706G1HFO Tail43600  14.487  16.501  20.099  0.2642 -0.4608 -0.0250
 3706G1HFO Tail43601  14.736  16.457  20.079  0.0611  0.0011 -0.0186
 3706G1HFO Tail43602  14.938  16.353  20.092 -0.4108 -0.1079 -0.1524
 3707G1HFO Head43603  20.570  17.952  20.808 -0.1146 -0.1191  0.2349
 3707G1HFO Head43604  20.345  17.775  20.707  0.3654 -0.3321  0.3136
 3707G1HFO Head43605  20.155  18.229  20.892 -0.0736  0.2871  0.4293
 3707G1HFO Head43606  20.144  18.130  20.594 -0.1831  0.2498 -0.2212
 3707G1HFO link43607  20.158  17.867  20.536  0.1041 -0.3754 -0.0393
 3707G1HFO link43608  20.034  17.750  20.316  0.4664  0.3731 -0.1424
 3707G1HFO Tail43609  20.099  17.857  20.025  0.0366 -0.0497 -0.0639
 3707G1HFO Tail43610  20.257  17.599  19.888 -0.2748 -0.2548  0.3090
 3707G1HFO Tail43611  20.208  17.295  19.789  0.0112 -0.1816 -0.0052
 3707G1HFO Tail43612  20.342  16.901  19.911  0.0019  0.0467  0.1060
 3707G1HFO Tail43613  19.825  17.795  19.839  0.2438  0.0506 -0.1230
 3707G1HFO Tail43614  19.720  17.556  19.763 -0.0570 -0.1107 -0.0570
 3707G1HFO Tail43615  19.470  17.527  19.795 -0.0441  0.0879  0.0624
 3707G1HFO Tail43616  19.215  17.546  19.802 -0.1436  0.0157  0.1506
 3707G1HFO Tail43617  18.995  17.569  19.867  0.0125  0.1856  0.2735
 3708G1HFO Head43618  20.980  16.731  16.235 -0.2118  0.1087 -0.0067
 3708G1HFO Head43619  20.888  16.652  16.506 -0.1319  0.4951  0.2464
 3708G1HFO Head43620  20.568  16.541  16.086 -0.5184  0.1809 -0.0523
 3708G1HFO Head43621  20.528  16.716  16.345  0.2103 -0.4107 -0.3088
 3708G1HFO link43622  20.628  16.638  16.565 -0.0719 -0.0544  0.0022
 3708G1HFO link43623  20.514  16.580  16.818 -0.2667 -0.1238 -0.3106
 3708G1HFO Tail43624  20.541  16.288  16.935  0.3348  0.2993 -0.1282
 3708G1HFO Tail43625  20.200  16.222  17.048  0.0760 -0.3881 -0.2645
 3708G1HFO Tail43626  20.028  15.976  17.113  0.0137 -0.0715 -0.3258
 3708G1HFO Tail43627  19.988  15.611  17.346 -0.0692  0.1026  0.0650
 3708G1HFO Tail43628  20.546  16.085  16.638 -0.0918  0.1353 -0.2314
 3708G1HFO Tail43629  20.613  16.187  16.403  0.1808  0.2840  0.0545
 3708G1HFO Tail43630  20.864  16.203  16.343 -0.2278  0.1154 -0.1016
 3708G1HFO Tail43631  21.115  16.250  16.325 -0.0461  0.2771  0.0909
 3708G1HFO Tail43632  21.325  16.285  16.245 -0.3158 -0.0965  0.3194
 3709G1HFO Head43633  18.219  16.626  17.230 -0.3740  0.0755 -0.0904
 3709G1HFO Head43634  18.509  16.732  17.206  0.0582 -0.1234 -0.1639
 3709G1HFO Head43635  19.186  16.556  17.098  0.0563  0.2442 -0.2984
 3709G1HFO Head43636  18.940  16.721  17.143  0.1759  0.0483 -0.2892
 3709G1HFO link43637  18.714  16.576  17.191 -0.2437 -0.0925 -0.1892
 3709G1HFO link43638  18.729  16.296  17.145 -0.1325 -0.3579 -0.3812
 3709G1HFO Tail43639  18.705  16.069  17.389  0.2923 -0.1691 -0.1777
 3709G1HFO Tail43640  18.506  15.807  17.251  0.1735 -0.2241  0.1737
 3709G1HFO Tail43641  18.561  15.559  17.066 -0.1213 -0.2541  0.3628
 3709G1HFO Tail43642  18.810  15.205  17.081 -0.3207 -0.2209  0.1002
 3709G1HFO Tail43643  19.032  15.956  17.369 -0.2425  0.0911  0.1600
 3709G1HFO Tail43644  19.170  15.836  17.568 -0.0549  0.0319  0.5109
 3709G1HFO Tail43645  19.325  15.625  17.520 -0.1343 -0.0341 -0.0725
 3709G1HFO Tail43646  19.487  15.449  17.430  0.0117 -0.0936  0.1599
 3709G1HFO Tail43647  19.604  15.301  17.287 -0.0426  0.0014 -0.1556
 3710G1HFO Head43648  15.534  18.880  18.050  0.1220  0.2348 -0.1100
 3710G1HFO Head43649  15.691  18.671  17.841  0.1288  0.0566  0.0695
 3710G1HFO Head43650  15.383  18.308  17.914 -0.3438 -0.0348 -0.3372
 3710G1HFO Head43651  15.465  18.388  17.633  0.2806  0.0680 -0.1805
 3710G1HFO link43652  15.598  18.602  17.588 -0.2757  0.2256  0.4456
 3710G1HFO link43653  15.716  18.674  17.334 -0.0162 -0.7130  0.3458
 3710G1HFO Tail43654  15.957  18.899  17.303 -0.1776  0.0343 -0.2772
 3710G1HFO Tail43655  16.146  18.743  17.053 -0.3328 -0.0247 -0.2388
 3710G1HFO Tail43656  16.209  18.462  16.921 -0.1234 -0.4194 -0.3061
 3710G1HFO Tail43657  15.995  18.093  16.785 -0.1511 -0.0741  0.0395
 3710G1HFO Tail43658  15.779  19.110  17.101  0.3567 -0.2720  0.1597
 3710G1HFO Tail43659  15.541  19.227  17.147 -0.0944 -0.3279 -0.1290
 3710G1HFO Tail43660  15.477  19.414  16.971 -0.0831  0.1600  0.0315
 3710G1HFO Tail43661  15.416  19.618  16.835  0.0299 -0.0557  0.1918
 3710G1HFO Tail43662  15.301  19.796  16.724 -0.2971  0.1121  0.0162
 3711G1HFO Head43663  18.250  17.922  20.097 -0.0603 -0.0727  0.4658
 3711G1HFO Head43664  18.148  18.163  19.978 -0.4060 -0.0136 -0.2076
 3711G1HFO Head43665  18.334  18.443  20.403 -0.0529 -0.3122  0.1893
 3711G1HFO Head43666  18.450  18.415  20.110  0.1975  0.2045 -0.3002
 3711G1HFO link43667  18.311  18.333  19.909  0.1330  0.2679  0.3471
 3711G1HFO link43668  18.426  18.356  19.647  0.0498 -0.2812  0.2908
 3711G1HFO Tail43669  18.541  18.633  19.539 -0.3226  0.0302 -0.3760
 3711G1HFO Tail43670  18.252  18.803  19.451  0.6937 -0.1984 -0.1094
 3711G1HFO Tail43671  17.937  18.765  19.395 -0.1258 -0.0252  0.2176
 3711G1HFO Tail43672  17.557  18.967  19.370  0.4767 -0.0713  0.0023
 3711G1HFO Tail43673  18.599  18.801  19.836  0.1423  0.0337 -0.1472
 3711G1HFO Tail43674  18.407  18.820  20.007 -0.1008  0.3669 -0.0014
 3711G1HFO Tail43675  18.476  18.868  20.269 -0.2024  0.0847  0.2025
 3711G1HFO Tail43676  18.588  18.899  20.500  0.1494  0.0167  0.0476
 3711G1HFO Tail43677  18.697  18.852  20.701  0.0854  0.2815 -0.1785
 3712G1HFO Head43678  18.176  13.684  19.568 -0.0520 -0.3404 -0.1669
 3712G1HFO Head43679  18.147  13.916  19.326  0.1544 -0.4514 -0.1768
 3712G1HFO Head43680  17.888  13.479  18.846 -0.1021  0.0935  0.3771
 3712G1HFO Head43681  17.991  13.631  19.073  0.1535 -0.0206 -0.2638
 3712G1HFO link43682  18.141  13.850  19.070 -0.4587  0.4002 -0.3837
 3712G1HFO link43683  18.364  13.881  18.902 -0.0978  0.1142 -0.1614
 3712G1HFO Tail43684  18.387  14.152  18.704 -0.2581 -0.2723 -0.0760
 3712G1HFO Tail43685  18.082  14.303  18.798  0.4280  0.0771 -0.0888
 3712G1HFO Tail43686  17.958  14.562  18.925 -0.0277  0.0684 -0.1558
 3712G1HFO Tail43687  17.589  14.721  19.073 -0.0792  0.1583 -0.0664
 3712G1HFO Tail43688  18.626  14.342  18.886  0.1128 -0.2871 -0.1331
 3712G1HFO Tail43689  18.830  14.226  19.015 -0.0493 -0.1228 -0.0434
 3712G1HFO Tail43690  19.064  14.345  19.034 -0.2989 -0.0604  0.0440
 3712G1HFO Tail43691  19.268  14.500  19.048 -0.0577 -0.1848 -0.3600
 3712G1HFO Tail43692  19.423  14.682  19.065  0.4585  0.1109  0.0019
 3713G1HFO Head43693  16.733  17.601  20.143  0.2751  0.0698  0.1020
 3713G1HFO Head43694  16.531  17.510  19.907  0.0070  0.1211 -0.2374
 3713G1HFO Head43695  16.300  17.389  20.400  0.1158 -0.0045 -0.1036
 3713G1HFO Head43696  16.227  17.304  20.130  0.2874  0.2265  0.1670
 3713G1HFO link43697  16.397  17.283  19.942  0.1258 -0.4962  0.1875
 3713G1HFO link43698  16.434  17.051  19.785  0.1607  0.0464  0.3220
 3713G1HFO Tail43699  16.171  16.878  19.665 -0.3943 -0.6431 -0.3669
 3713G1HFO Tail43700  16.005  16.859  19.963 -0.4694 -0.1521 -0.1113
 3713G1HFO Tail43701  15.698  16.909  20.026 -0.1148 -0.1190  0.0333
 3713G1HFO Tail43702  15.368  17.188  20.014  0.0628 -0.1967  0.1458
 3713G1HFO Tail43703  16.010  17.134  19.512 -0.0352 -0.1320 -0.1221
 3713G1HFO Tail43704  16.100  17.379  19.536  0.0008 -0.1585  0.1848
 3713G1HFO Tail43705  16.081  17.504  19.757 -0.1146 -0.1737  0.0515
 3713G1HFO Tail43706  16.077  17.669  19.956 -0.2890  0.1189 -0.1913
 3713G1HFO Tail43707  16.045  17.759  20.173 -0.1559  0.0041  0.3354
 3714G1HFO Head43708  17.368  15.530  22.111  0.0481 -0.0046  0.1543
 3714G1HFO Head43709  17.527  15.687  21.905  0.0281 -0.3513  0.2568
 3714G1HFO Head43710  17.880  15.201  21.601 -0.0432  0.0390  0.0698
 3714G1HFO Head43711  17.674  15.358  21.757  0.1151 -0.2514 -0.0982
 3714G1HFO link43712  17.589  15.583  21.688  0.3000  0.2503  0.1014
 3714G1HFO link43713  17.682  15.719  21.464 -0.0044 -0.0081 -0.2476
 3714G1HFO Tail43714  17.616  16.033  21.407 -0.0478 -0.1124 -0.1145
 3714G1HFO Tail43715  17.698  16.192  21.704 -0.0728 -0.1920 -0.0234
 3714G1HFO Tail43716  17.939  16.184  21.899  0.1227  0.1124  0.1134
 3714G1HFO Tail43717  17.993  16.206  22.331  0.2756  0.0077  0.2259
 3714G1HFO Tail43718  17.886  16.131  21.199 -0.0061  0.3238 -0.1312
 3714G1HFO Tail43719  17.879  16.304  21.007 -0.1070  0.0848  0.1942
 3714G1HFO Tail43720  17.667  16.431  20.942 -0.1813 -0.2516  0.0160
 3714G1HFO Tail43721  17.475  16.596  20.896  0.1147 -0.2810 -0.0252
 3714G1HFO Tail43722  17.341  16.779  20.822 -0.0219 -0.0110  0.1835
 3715G1HFO Head43723  17.989  13.764  20.546  0.0109  0.4565  0.0959
 3715G1HFO Head43724  17.817  14.047  20.491  0.1296 -0.0973 -0.1828
 3715G1HFO Head43725  17.235  13.722  20.565  0.0888  0.0405  0.3861
 3715G1HFO Head43726  17.518  13.793  20.605 -0.0669  0.3840  0.0556
 3715G1HFO link43727  17.568  14.048  20.574 -0.2972 -0.2526 -0.8892
 3715G1HFO link43728  17.380  14.259  20.545  0.1882  0.0091  0.0041
 3715G1HFO Tail43729  17.461  14.527  20.362  0.1305  0.4351  0.4095
 3715G1HFO Tail43730  17.321  14.761  20.579 -0.1027 -0.3076 -0.0113
 3715G1HFO Tail43731  17.267  15.076  20.572  0.2507  0.0366  0.3886
 3715G1HFO Tail43732  16.922  15.340  20.637  0.1474 -0.1125  0.1770
 3715G1HFO Tail43733  17.785  14.557  20.467 -0.1016 -0.4534  0.0308
 3715G1HFO Tail43734  17.878  14.807  20.510 -0.5560  0.0753  0.2710
 3715G1HFO Tail43735  17.919  14.899  20.746  0.1042  0.3031  0.1031
 3715G1HFO Tail43736  17.927  14.999  20.980  0.1527  0.0899  0.0012
 3715G1HFO Tail43737  17.877  15.073  21.192 -0.0511 -0.0003  0.0412
 3716G1HFO Head43738  13.601  16.345  20.567  0.6063 -0.2114  0.0154
 3716G1HFO Head43739  13.802  16.274  20.811  0.2039 -0.0450 -0.0973
 3716G1HFO Head43740  14.365  16.457  21.149  0.2665  0.0451 -0.0230
 3716G1HFO Head43741  14.084  16.405  21.110 -0.0424  0.1113  0.0304
 3716G1HFO link43742  14.001  16.435  20.859  0.1702 -0.1303  0.2062
 3716G1HFO link43743  14.159  16.578  20.671 -0.3001 -0.1002  0.0648
 3716G1HFO Tail43744  14.463  16.697  20.754  0.3424  0.1117  0.1102
 3716G1HFO Tail43745  14.563  16.850  20.463  0.3236  0.2173 -0.4446
 3716G1HFO Tail43746  14.620  17.131  20.374  0.1752 -0.4955 -0.0069
 3716G1HFO Tail43747  14.831  17.346  20.054 -0.1256  0.4332 -0.3203
 3716G1HFO Tail43748  14.363  16.931  20.979 -0.0442 -0.0727  0.2379
 3716G1HFO Tail43749  14.346  17.185  20.895 -0.1159 -0.0677 -0.1060
 3716G1HFO Tail43750  14.288  17.358  21.081 -0.0467 -0.2373 -0.1475
 3716G1HFO Tail43751  14.223  17.538  21.237  0.1544 -0.2241  0.1101
 3716G1HFO Tail43752  14.132  17.657  21.406  0.2878 -0.0734 -0.2270
 3717G1HFO Head43753  20.814  17.704  20.030 -0.0413 -0.2481 -0.2419
 3717G1HFO Head43754  20.794  17.994  19.952 -0.1393 -0.0421  0.1656
 3717G1HFO Head43755  20.681  18.497  20.019 -0.1668 -0.0942 -0.3057
 3717G1HFO Head43756  20.618  18.326  19.779 -0.0643  0.0155  0.1404
 3717G1HFO link43757  20.657  18.070  19.769 -0.7537  0.6580  0.0158
 3717G1HFO link43758  20.553  17.880  19.575  0.0300  0.1655  0.2346
 3717G1HFO Tail43759  20.271  17.960  19.412 -0.0624 -0.0904 -0.2520
 3717G1HFO Tail43760  20.095  17.656  19.429  0.0288  0.1146  0.1558
 3717G1HFO Tail43761  19.828  17.523  19.310 -0.3835 -0.3328 -0.2313
 3717G1HFO Tail43762  19.701  17.298  18.957 -0.0122 -0.0240  0.1225
 3717G1HFO Tail43763  20.129  18.139  19.662 -0.0746 -0.1118  0.0461
 3717G1HFO Tail43764  19.907  18.263  19.606 -0.1608 -0.0191  0.0690
 3717G1HFO Tail43765  19.795  18.187  19.382 -0.0727  0.0602 -0.0462
 3717G1HFO Tail43766  19.661  18.097  19.188  0.1134 -0.3361 -0.0643
 3717G1HFO Tail43767  19.599  18.050  18.967  0.1445  0.2572  0.3198
 3718G1HFO Head43768  19.998  19.677  20.194  0.1225 -0.1217 -0.4047
 3718G1HFO Head43769  20.218  19.464  20.231 -0.1512  0.1694 -0.0160
 3718G1HFO Head43770  20.486  18.893  20.353 -0.1231  0.2785  0.4502
 3718G1HFO Head43771  20.332  19.144  20.444  0.2864  0.1258 -0.0054
 3718G1HFO link43772  20.151  19.225  20.292 -0.1314 -0.1557  0.1355
 3718G1HFO link43773  19.944  19.077  20.156  0.0457 -0.0831  0.0124
 3718G1HFO Tail43774  19.998  18.933  19.869 -0.2994 -0.0059 -0.2539
 3718G1HFO Tail43775  19.700  18.731  19.909 -0.2784 -0.0333  0.1540
 3718G1HFO Tail43776  19.581  18.578  20.154 -0.4814 -0.2870  0.3053
 3718G1HFO Tail43777  19.261  18.292  20.256 -0.1745  0.0532 -0.0068
 3718G1HFO Tail43778  20.211  18.680  19.999  0.0036 -0.1415  0.2290
 3718G1HFO Tail43779  20.123  18.463  20.101 -0.1039 -0.0222  0.2851
 3718G1HFO Tail43780  20.298  18.295  20.210  0.1452 -0.1718  0.0771
 3718G1HFO Tail43781  20.457  18.116  20.287 -0.2133 -0.3225 -0.0719
 3718G1HFO Tail43782  20.571  17.915  20.335  0.2413 -0.0144 -0.2142
 3719G1HFO Head43783  16.374  15.330  21.568  0.1915 -0.5236 -0.3516
 3719G1HFO Head43784  16.524  15.177  21.383  0.1936  0.0909 -0.3186
 3719G1HFO Head43785  16.591  14.709  21.315  0.0484 -0.0951  0.2778
 3719G1HFO Head43786  16.543  14.911  21.076  0.1041  0.1376 -0.1474
 3719G1HFO link43787  16.451  15.164  21.143 -0.2428  0.5164 -0.1148
 3719G1HFO link43788  16.386  15.365  20.968 -0.2364 -0.4332  0.2075
 3719G1HFO Tail43789  16.588  15.614  20.905 -0.0109  0.3412  0.1946
 3719G1HFO Tail43790  16.464  15.753  20.614 -0.3069 -0.2903  0.3898
 3719G1HFO Tail43791  16.330  15.699  20.330  0.2819  0.1239 -0.1316
 3719G1HFO Tail43792  15.988  15.807  20.086  0.0004  0.3992 -0.1567
 3719G1HFO Tail43793  16.449  15.862  21.107 -0.2353  0.0951  0.0194
 3719G1HFO Tail43794  16.602  16.014  21.270  0.0649  0.0743 -0.0030
 3719G1HFO Tail43795  16.831  15.909  21.351  0.1521  0.0024 -0.0245
 3719G1HFO Tail43796  17.036  15.815  21.467  0.0397 -0.0091  0.2403
 3719G1HFO Tail43797  17.246  15.731  21.511  0.4558  0.2177  0.3256
 3720G1HFO Head43798  18.302  16.437  21.111 -0.0324  0.0763  0.0817
 3720G1HFO Head43799  18.156  16.609  20.858 -0.2434  0.6094  0.1501
 3720G1HFO Head43800  17.764  16.876  20.687 -0.1347 -0.1361 -0.2100
 3720G1HFO Head43801  17.962  16.704  20.521 -0.0720 -0.0301  0.1166
 3720G1HFO link43802  18.143  16.538  20.621 -0.1212  0.0812  0.2564
 3720G1HFO link43803  18.382  16.448  20.481  0.1312 -0.0123 -0.2687
 3720G1HFO Tail43804  18.685  16.454  20.601  0.2652 -0.2310  0.0800
 3720G1HFO Tail43805  18.852  16.661  20.357  0.2791 -0.2076 -0.2337
 3720G1HFO Tail43806  19.096  16.874  20.344  0.0537 -0.1036 -0.0222
 3720G1HFO Tail43807  19.147  17.297  20.340  0.2311  0.0864 -0.0337
 3720G1HFO Tail43808  18.611  16.705  20.837 -0.3449  0.1602  0.3667
 3720G1HFO Tail43809  18.648  16.959  20.796  0.0024  0.1459 -0.1752
 3720G1HFO Tail43810  18.886  17.056  20.822 -0.2410  0.2685  0.0541
 3720G1HFO Tail43811  19.136  17.098  20.819 -0.2446  0.1945 -0.0151
 3720G1HFO Tail43812  19.358  17.123  20.887  0.0969  0.0623  0.3228
 3721G1HFO Head43813  17.698  13.449  20.365 -0.4695 -0.5803  0.1619
 3721G1HFO Head43814  17.991  13.294  20.375 -0.1764  0.0906  0.5212
 3721G1HFO Head43815  18.590  13.313  20.829 -0.0537 -0.2079 -0.3489
 3721G1HFO Head43816  18.271  13.327  20.691  0.0105 -0.1786  0.1784
 3721G1HFO link43817  18.225  13.400  20.446 -0.0446  0.0866  0.1845
 3721G1HFO link43818  18.424  13.480  20.262 -0.2745  0.1831  0.0656
 3721G1HFO Tail43819  18.481  13.803  20.184 -0.0103 -0.0811  0.7873
 3721G1HFO Tail43820  18.639  13.750  19.864  0.2714 -0.0442  0.2178
 3721G1HFO Tail43821  18.938  13.733  19.739 -0.0809  0.3387  0.1309
 3721G1HFO Tail43822  19.205  13.726  19.391  0.1459 -0.2446  0.0192
 3721G1HFO Tail43823  18.187  13.883  20.059 -0.1274  0.0567  0.3403
 3721G1HFO Tail43824  17.972  13.732  20.023 -0.0983 -0.4016  0.2207
 3721G1HFO Tail43825  17.753  13.850  20.089 -0.1329 -0.1576 -0.1098
 3721G1HFO Tail43826  17.513  13.951  20.117 -0.0702 -0.0577  0.0567
 3721G1HFO Tail43827  17.312  14.050  20.202 -0.3555 -0.0463 -0.0959
 3722G1HFO Head43828  16.664  16.547  19.210 -0.2116 -0.0847 -0.2154
 3722G1HFO Head43829  16.446  16.448  19.008  0.0012  0.0371 -0.3051
 3722G1HFO Head43830  16.612  16.847  18.802 -0.0533  0.0759  0.0594
 3722G1HFO Head43831  16.298  16.801  18.852 -0.1618 -0.3752 -0.3222
 3722G1HFO link43832  16.223  16.587  18.948  0.1880  0.1118  0.1064
 3722G1HFO link43833  15.988  16.458  18.860  0.2176  0.0609 -0.2759
 3722G1HFO Tail43834  16.021  16.200  18.650 -0.0542 -0.0510 -0.3046
 3722G1HFO Tail43835  15.929  16.336  18.353  0.1914 -0.3271 -0.1447
 3722G1HFO Tail43836  15.673  16.365  18.174  0.3782  0.1025 -0.0832
 3722G1HFO Tail43837  15.486  16.466  17.794  0.2433 -0.1051  0.0528
 3722G1HFO Tail43838  16.369  16.205  18.610 -0.1958  0.2445 -0.2043
 3722G1HFO Tail43839  16.535  16.116  18.783 -0.1257  0.0311  0.1062
 3722G1HFO Tail43840  16.571  15.865  18.811 -0.0311 -0.1256  0.0161
 3722G1HFO Tail43841  16.550  15.611  18.833  0.1094 -0.0934 -0.1645
 3722G1HFO Tail43842  16.550  15.384  18.812 -0.5306  0.1530  0.1241
 3723G1HFO Head43843  19.375  13.229  18.940  0.0962 -0.2368 -0.0719
 3723G1HFO Head43844  19.354  13.547  18.996  0.0042 -0.0777  0.1769
 3723G1HFO Head43845  19.997  13.882  19.015 -0.2039 -0.0369 -0.2023
 3723G1HFO Head43846  19.733  13.670  18.991 -0.0193 -0.0406  0.1752
 3723G1HFO link43847  19.492  13.733  18.877 -0.0519  0.1388 -0.0420
 3723G1HFO link43848  19.400  14.001  18.879 -0.0919  0.0741 -0.0973
 3723G1HFO Tail43849  19.579  14.239  18.732 -0.2910 -0.5952 -0.2565
 3723G1HFO Tail43850  19.759  14.355  18.988  0.2542  0.0125 -0.1002
 3723G1HFO Tail43851  19.701  14.450  19.289  0.5368  0.2781  0.0835
 3723G1HFO Tail43852  19.353  14.572  19.516 -0.3178  0.1055 -0.0148
 3723G1HFO Tail43853  19.808  14.061  18.554 -0.1046  0.0955  0.0155
 3723G1HFO Tail43854  19.927  14.136  18.336  0.0422 -0.0347 -0.0855
 3723G1HFO Tail43855  19.802  14.268  18.147 -0.0033 -0.0119  0.0712
 3723G1HFO Tail43856  19.668  14.419  17.987 -0.1207  0.2875 -0.0535
 3723G1HFO Tail43857  19.561  14.484  17.794  0.1187  0.0429  0.2411
 3724G1HFO Head43858  15.279  17.909  17.626 -0.1829  0.0284  0.0734
 3724G1HFO Head43859  15.242  17.674  17.804 -0.3077 -0.0541 -0.3846
 3724G1HFO Head43860  14.897  17.654  17.343  0.0107  0.5480 -0.4044
 3724G1HFO Head43861  15.067  17.432  17.507 -0.0897 -0.1359  0.2309
 3724G1HFO link43862  15.111  17.450  17.758 -0.6603 -0.5421  0.2728
 3724G1HFO link43863  15.196  17.237  17.909 -0.0019  0.3887  0.0231
 3724G1HFO Tail43864  15.305  16.955  17.769 -0.1991 -0.0235 -0.0022
 3724G1HFO Tail43865  15.054  16.711  17.832 -0.2598  0.0511  0.0430
 3724G1HFO Tail43866  15.027  16.395  17.842  0.3947  0.1808  0.1846
 3724G1HFO Tail43867  15.073  16.088  18.143  0.4871 -0.1973 -0.0100
 3724G1HFO Tail43868  15.215  17.017  17.437  0.2008  0.2186  0.2687
 3724G1HFO Tail43869  14.972  16.953  17.359 -0.0945 -0.1799  0.0519
 3724G1HFO Tail43870  14.838  17.083  17.184 -0.1039 -0.1447 -0.0114
 3724G1HFO Tail43871  14.742  17.198  16.977 -0.1782 -0.1590  0.0956
 3724G1HFO Tail43872  14.730  17.326  16.785  0.1028  0.0619  0.1615
 3725G1HFO Head43873  19.718  15.545  15.910 -0.1971  0.0530 -0.3817
 3725G1HFO Head43874  19.842  15.837  15.961  0.0157  0.1747  0.0429
 3725G1HFO Head43875  19.777  16.058  15.495 -0.2641  0.2530  0.0069
 3725G1HFO Head43876  19.602  16.095  15.747 -0.1069  0.1779 -0.0761
 3725G1HFO link43877  19.689  16.026  16.005 -0.3790 -0.1532 -0.4108
 3725G1HFO link43878  19.629  16.163  16.253 -0.1680 -0.0438  0.1682
 3725G1HFO Tail43879  19.492  16.009  16.492 -0.0685  0.5382 -0.1106
 3725G1HFO Tail43880  19.601  15.686  16.435  0.0712  0.1110 -0.0945
 3725G1HFO Tail43881  19.883  15.519  16.394 -0.1586  0.1741  0.1090
 3725G1HFO Tail43882  20.297  15.424  16.536  0.0212 -0.0784  0.0206
 3725G1HFO Tail43883  19.717  16.083  16.751  0.1056  0.0658  0.1475
 3725G1HFO Tail43884  19.884  16.280  16.710  0.0422 -0.0332  0.1989
 3725G1HFO Tail43885  19.852  16.479  16.864  0.0548 -0.0015 -0.1101
 3725G1HFO Tail43886  19.867  16.689  17.001  0.1369 -0.0893 -0.2605
 3725G1HFO Tail43887  19.837  16.857  17.168  0.0488 -0.1401 -0.0061
 3726G1HFO Head43888  19.984  19.012  15.643 -0.3683 -0.0624  0.0237
 3726G1HFO Head43889  19.722  18.899  15.764  0.1928 -0.3915  0.4941
 3726G1HFO Head43890  19.844  18.660  15.308  0.0152 -0.1340 -0.1869
 3726G1HFO Head43891  19.824  18.562  15.583  0.4329  0.5410  0.2202
 3726G1HFO link43892  19.672  18.662  15.773  0.2205  0.0822  0.0280
 3726G1HFO link43893  19.640  18.509  16.012 -0.4971  0.0775  0.1553
 3726G1HFO Tail43894  19.352  18.486  16.182  0.1392 -0.0892  0.0091
 3726G1HFO Tail43895  19.352  18.808  16.363  0.0873  0.0119  0.3122
 3726G1HFO Tail43896  19.343  18.875  16.665  0.3191 -0.1144 -0.1132
 3726G1HFO Tail43897  19.340  19.203  16.951 -0.1041  0.1468  0.4381
 3726G1HFO Tail43898  19.122  18.569  15.933 -0.0151  0.1436 -0.4674
 3726G1HFO Tail43899  19.242  18.597  15.695  0.0812  0.3870 -0.1110
 3726G1HFO Tail43900  19.379  18.404  15.593  0.1849  0.1019  0.2927
 3726G1HFO Tail43901  19.509  18.192  15.528 -0.0795  0.1201 -0.2076
 3726G1HFO Tail43902  19.658  18.013  15.523  0.1007  0.1964  0.0232
 3727G1HFO Head43903  19.204  15.476  19.750  0.1052  0.1825 -0.0610
 3727G1HFO Head43904  18.956  15.371  19.804  0.1243  0.1687 -0.0461
 3727G1HFO Head43905  18.255  15.574  19.771  0.0684  0.2508  0.2594
 3727G1HFO Head43906  18.530  15.394  19.774  0.2461 -0.1001  0.1854
 3727G1HFO link43907  18.755  15.515  19.718  0.3306  0.1677 -0.0879
 3727G1HFO link43908  18.773  15.787  19.646  0.4017  0.2307  0.1597
 3727G1HFO Tail43909  18.551  15.916  19.429 -0.0516 -0.1115 -0.0477
 3727G1HFO Tail43910  18.728  16.135  19.234  0.0116  0.1365 -0.2960
 3727G1HFO Tail43911  19.006  16.267  19.268 -0.2248  0.1553 -0.2361
 3727G1HFO Tail43912  19.229  16.608  19.091 -0.0158  0.0170 -0.2265
 3727G1HFO Tail43913  18.527  15.648  19.210 -0.1750 -0.3157  0.1048
 3727G1HFO Tail43914  18.491  15.401  19.296  0.2011  0.2222 -0.0592
 3727G1HFO Tail43915  18.699  15.264  19.357 -0.3139 -0.0152  0.0682
 3727G1HFO Tail43916  18.903  15.136  19.436 -0.0781 -0.2585 -0.1098
 3727G1HFO Tail43917  19.061  15.010  19.565  0.2649  0.1294  0.1235
 3728G1HFO Head43918  15.852  13.936  21.146 -0.2111 -0.0455 -0.1733
 3728G1HFO Head43919  15.983  14.021  20.893  0.1135 -0.4045  0.2551
 3728G1HFO Head43920  15.638  13.601  20.878 -0.1421 -0.3656  0.0235
 3728G1HFO Head43921  15.717  13.771  20.648  0.1130 -0.3459 -0.1668
 3728G1HFO link43922  15.948  13.908  20.670 -0.0003  0.1907  0.1402
 3728G1HFO link43923  16.135  13.903  20.449 -0.0804 -0.3082 -0.0191
 3728G1HFO Tail43924  16.361  14.142  20.426 -0.1015  0.2283  0.3156
 3728G1HFO Tail43925  16.248  14.329  20.143  0.0092  0.0096 -0.2155
 3728G1HFO Tail43926  16.017  14.559  20.147 -0.0239  0.2307 -0.2662
 3728G1HFO Tail43927  15.818  14.848  20.410 -0.1089 -0.4344  0.0578
 3728G1HFO Tail43928  16.240  14.365  20.677  0.1350 -0.0948  0.2820
 3728G1HFO Tail43929  16.193  14.623  20.631  0.0428 -0.0250 -0.3599
 3728G1HFO Tail43930  16.156  14.781  20.834 -0.1507 -0.1094 -0.1012
 3728G1HFO Tail43931  16.080  14.949  21.010 -0.0541  0.1722  0.0176
 3728G1HFO Tail43932  16.015  15.148  21.129 -0.0881  0.1207  0.1438
 3729G1HFO Head43933  16.256  14.750  16.743  0.2425 -0.0432  0.1952
 3729G1HFO Head43934  16.392  14.716  17.031  0.3031  0.1633  0.0869
 3729G1HFO Head43935  16.541  14.341  16.768 -0.0152 -0.3025 -0.1264
 3729G1HFO Head43936  16.725  14.473  16.988  0.0273 -0.5340  0.0646
 3729G1HFO link43937  16.651  14.692  17.072 -0.2985  0.1485  0.2945
 3729G1HFO link43938  16.827  14.902  17.106  0.0420 -0.0239  0.3436
 3729G1HFO Tail43939  17.144  14.903  16.986  0.4715 -0.1556 -0.1603
 3729G1HFO Tail43940  17.126  14.626  16.781  0.0987 -0.1471  0.2053
 3729G1HFO Tail43941  17.352  14.433  16.664 -0.4450 -0.0533  0.1839
 3729G1HFO Tail43942  17.756  14.458  16.517  0.0042 -0.0263  0.0682
 3729G1HFO Tail43943  17.116  15.156  16.754  0.1413  0.2332 -0.3078
 3729G1HFO Tail43944  17.048  15.112  16.502 -0.1433  0.5264 -0.0963
 3729G1HFO Tail43945  17.154  14.914  16.359 -0.0209 -0.0985  0.0865
 3729G1HFO Tail43946  17.289  14.719  16.253  0.0323  0.1971 -0.0726
 3729G1HFO Tail43947  17.424  14.530  16.221 -0.0946 -0.0911  0.1108
 3730G1HFO Head43948  15.748  13.900  19.098 -0.1925 -0.3325  0.2531
 3730G1HFO Head43949  15.916  13.954  18.834  0.0963 -0.3421  0.2530
 3730G1HFO Head43950  15.559  13.565  18.680  0.3027 -0.3889  0.1834
 3730G1HFO Head43951  15.579  13.858  18.643 -0.4091 -0.0972  0.0989
 3730G1HFO link43952  15.809  13.992  18.633 -0.5452 -0.3004 -0.0375
 3730G1HFO link43953  15.844  14.211  18.444 -0.1445  0.4168  0.0980
 3730G1HFO Tail43954  16.017  14.472  18.534  0.2369 -0.4928  0.0856
 3730G1HFO Tail43955  16.005  14.472  18.882 -0.0368  0.3263 -0.0790
 3730G1HFO Tail43956  16.190  14.621  19.105  0.1976 -0.2996  0.2524
 3730G1HFO Tail43957  16.123  14.825  19.477 -0.1473 -0.1728  0.2195
 3730G1HFO Tail43958  16.324  14.345  18.500 -0.0701  0.3307  0.0629
 3730G1HFO Tail43959  16.374  14.091  18.492  0.1817 -0.0673  0.0241
 3730G1HFO Tail43960  16.185  13.907  18.459 -0.0501  0.0305 -0.1685
 3730G1HFO Tail43961  16.019  13.726  18.396 -0.2906  0.0800 -0.3250
 3730G1HFO Tail43962  15.844  13.592  18.328  0.1058 -0.0057  0.5396
 3731G1HFO Head43963  15.353  16.416  22.202  0.1618  0.0760 -0.0610
 3731G1HFO Head43964  15.237  16.721  22.222 -0.1584  0.0680 -0.2882
 3731G1HFO Head43965  14.897  17.286  22.209 -0.1213 -0.0655 -0.3461
 3731G1HFO Head43966  14.922  16.960  22.199 -0.3419  0.0996 -0.0099
 3731G1HFO link43967  15.078  16.820  22.050 -0.0354  0.3699  0.2990
 3731G1HFO link43968  15.013  16.690  21.798  0.2345 -0.0501  0.2144
 3731G1HFO Tail43969  15.254  16.549  21.614  0.5732  0.0106  0.1103
 3731G1HFO Tail43970  15.344  16.788  21.383 -0.2269  0.1605  0.1199
 3731G1HFO Tail43971  15.233  16.910  21.096 -0.2937 -0.1576 -0.3632
 3731G1HFO Tail43972  14.866  16.941  20.864  0.4608  0.0951 -0.2179
 3731G1HFO Tail43973  15.533  16.602  21.811  0.0014 -0.0034  0.0700
 3731G1HFO Tail43974  15.576  16.830  21.928  0.0697 -0.0049 -0.1283
 3731G1HFO Tail43975  15.666  17.029  21.791  0.0465  0.4374 -0.1284
 3731G1HFO Tail43976  15.778  17.184  21.626  0.0723 -0.1500 -0.1705
 3731G1HFO Tail43977  15.914  17.340  21.521 -0.0090  0.0646 -0.0296
 3732G1HFO Head43978  14.745  20.263  18.223  0.2829  0.1983 -0.0861
 3732G1HFO Head43979  15.005  20.131  18.096 -0.4089 -0.2889  0.1181
 3732G1HFO Head43980  14.855  19.965  18.666  0.1012  0.3789 -0.1451
 3732G1HFO Head43981  15.111  20.049  18.499  0.1683  0.1933  0.0100
 3732G1HFO link43982  15.161  19.980  18.259  0.3576 -0.3653  0.3288
 3732G1HFO link43983  15.413  19.931  18.146 -0.0704 -0.1440  0.0236
 3732G1HFO Tail43984  15.453  19.786  17.857  0.2866  0.1275  0.2303
 3732G1HFO Tail43985  15.425  19.453  17.903  0.1417 -0.2087 -0.0321
 3732G1HFO Tail43986  15.186  19.231  17.899 -0.2200  0.5989  0.2124
 3732G1HFO Tail43987  15.105  18.793  17.844  0.0735  0.1010 -0.2316
 3732G1HFO Tail43988  15.141  19.835  17.741  0.0041 -0.3726  0.1546
 3732G1HFO Tail43989  15.038  19.668  17.580  0.0618 -0.2913  0.0083
 3732G1HFO Tail43990  14.810  19.736  17.478 -0.1900  0.0103  0.0793
 3732G1HFO Tail43991  14.615  19.843  17.377  0.2431  0.0264  0.0623
 3732G1HFO Tail43992  14.408  19.948  17.352  0.2201 -0.1440 -0.2056
 3733G1HFO Head43993  14.869  16.000  21.558 -0.1060  0.0993  0.0208
 3733G1HFO Head43994  14.674  16.123  21.390  0.0107 -0.0106 -0.1808
 3733G1HFO Head43995  14.233  16.100  21.486  0.0895  0.2304 -0.1359
 3733G1HFO Head43996  14.349  15.975  21.221 -0.1924 -0.1788  0.1703
 3733G1HFO link43997  14.606  16.040  21.155  0.2184  0.3870  0.1647
 3733G1HFO link43998  14.671  16.138  20.901  0.0322  0.0721 -0.3252
 3733G1HFO Tail43999  14.774  16.447  20.830 -0.1729 -0.4539 -0.1377
 3733G1HFO Tail44000  15.005  16.377  20.575  0.1501  0.0830  0.0893
 3733G1HFO Tail44001  15.293  16.471  20.442  0.1158 -0.3956  0.0216
 3733G1HFO Tail44002  15.627  16.731  20.512  0.3521 -0.1903 -0.2153
 3733G1HFO Tail44003  15.026  16.490  21.075  0.1341  0.0201 -0.0196
 3733G1HFO Tail44004  14.942  16.544  21.318 -0.2212 -0.5510 -0.3340
 3733G1HFO Tail44005  14.818  16.775  21.359 -0.1044  0.0995  0.1082
 3733G1HFO Tail44006  14.647  16.959  21.386 -0.2488 -0.1641  0.1585
 3733G1HFO Tail44007  14.542  17.159  21.452  0.0727  0.1157  0.2420
 3734G1HFO Head44008  14.730  17.318  16.307  0.1950 -0.4989 -0.0521
 3734G1HFO Head44009  14.766  17.079  16.141 -0.2422 -0.2316 -0.3181
 3734G1HFO Head44010  14.663  16.739  15.811 -0.1416 -0.0622 -0.0410
 3734G1HFO Head44011  14.902  16.935  15.776  0.3585  0.3371 -0.0880
 3734G1HFO link44012  14.971  17.094  15.968  0.4057 -0.1104 -0.5089
 3734G1HFO link44013  15.233  17.108  16.070  0.3506 -0.0842 -0.0970
 3734G1HFO Tail44014  15.438  17.316  15.943 -0.0766  0.1305 -0.3957
 3734G1HFO Tail44015  15.715  17.326  16.160  0.0291 -0.0909  0.0116
 3734G1HFO Tail44016  15.802  17.535  16.374 -0.2991  0.5716  0.0951
 3734G1HFO Tail44017  16.072  17.541  16.706  0.1645 -0.0174  0.2416
 3734G1HFO Tail44018  15.583  17.121  15.706  0.0458 -0.0207 -0.0937
 3734G1HFO Tail44019  15.629  16.866  15.749 -0.1579  0.3077 -0.5031
 3734G1HFO Tail44020  15.438  16.723  15.862 -0.1089 -0.3111  0.2249
 3734G1HFO Tail44021  15.238  16.572  15.919 -0.1775 -0.0940 -0.0842
 3734G1HFO Tail44022  15.021  16.485  15.936  0.3622 -0.1660  0.1060
 3735G1HFO Head44023  16.590  18.153  18.828  0.1835  0.1465  0.2139
 3735G1HFO Head44024  16.294  18.078  18.926 -0.0812 -0.2072 -0.1248
 3735G1HFO Head44025  16.002  18.663  18.685  0.0465 -0.2348 -0.0141
 3735G1HFO Head44026  16.192  18.458  18.818  0.0564 -0.0824  0.1147
 3735G1HFO link44027  16.094  18.220  18.885  0.1031  0.0282 -0.3195
 3735G1HFO link44028  15.832  18.154  18.806 -0.1590  0.1907  0.1850
 3735G1HFO Tail44029  15.564  18.086  19.019 -0.2663 -0.3315 -0.3787
 3735G1HFO Tail44030  15.608  17.761  19.062 -0.2308  0.1177  0.2563
 3735G1HFO Tail44031  15.594  17.572  19.296 -0.2600 -0.1666  0.2201
 3735G1HFO Tail44032  15.295  17.397  19.549  0.0412  0.1560  0.0701
 3735G1HFO Tail44033  15.689  18.173  19.337 -0.1428 -0.1542  0.1607
 3735G1HFO Tail44034  15.930  18.173  19.440  0.1765  0.5486  0.0485
 3735G1HFO Tail44035  16.113  18.301  19.319 -0.0530 -0.0798 -0.0591
 3735G1HFO Tail44036  16.324  18.418  19.237  0.0705  0.2090  0.1246
 3735G1HFO Tail44037  16.500  18.511  19.110 -0.1487 -0.1177 -0.0885
 3736G1HFO Head44038  16.105  17.777  22.758  0.0054 -0.2493 -0.1911
 3736G1HFO Head44039  16.192  17.698  22.471 -0.0343 -0.2376  0.3479
 3736G1HFO Head44040  16.296  17.265  22.833  0.2339 -0.2667  0.0583
 3736G1HFO Head44041  16.228  17.284  22.528 -0.1777 -0.1196 -0.1182
 3736G1HFO link44042  16.303  17.482  22.394  0.4137 -0.0286 -0.2161
 3736G1HFO link44043  16.483  17.485  22.179  0.0147  0.2355  0.1392
 3736G1HFO Tail44044  16.487  17.709  21.938  0.0537 -0.0638 -0.4106
 3736G1HFO Tail44045  16.294  17.531  21.708 -0.2551 -0.3213 -0.1921
 3736G1HFO Tail44046  16.384  17.433  21.416 -0.0126  0.0639  0.0638
 3736G1HFO Tail44047  16.342  17.556  21.003  0.1123  0.2891 -0.0220
 3736G1HFO Tail44048  16.254  17.935  22.046 -0.1242  0.0330 -0.1654
 3736G1HFO Tail44049  15.998  17.859  22.124 -0.0933  0.1311 -0.0481
 3736G1HFO Tail44050  15.962  17.601  22.096  0.1360  0.1125  0.2135
 3736G1HFO Tail44051  15.985  17.357  22.086  0.3937  0.0700 -0.2310
 3736G1HFO Tail44052  15.960  17.126  22.115 -0.2799 -0.2919  0.0416
 3737G1HFO Head44053  20.772  14.659  16.550  0.5120  0.2954 -0.1817
 3737G1HFO Head44054  20.470  14.551  16.710  0.1723 -0.1611  0.5040
 3737G1HFO Head44055  20.482  14.662  17.196  0.0012  0.0306 -0.0736
 3737G1HFO Head44056  20.256  14.623  17.031 -0.4203  0.0669  0.2444
 3737G1HFO link44057  20.275  14.723  16.793  0.0811 -0.3044  0.3439
 3737G1HFO link44058  20.237  15.006  16.739 -0.1567  0.1660 -0.1277
 3737G1HFO Tail44059  20.218  15.249  16.965  0.0984  0.3309 -0.0089
 3737G1HFO Tail44060  19.915  15.367  16.892 -0.1376 -0.2125 -0.2099
 3737G1HFO Tail44061  19.779  15.641  16.935  0.5148  0.0325  0.2224
 3737G1HFO Tail44062  19.626  15.941  17.201  0.4768  0.0460 -0.3917
 3737G1HFO Tail44063  20.104  15.053  17.206 -0.0821 -0.0215 -0.0350
 3737G1HFO Tail44064  19.918  14.872  17.160 -0.2312 -0.2409  0.2239
 3737G1HFO Tail44065  19.771  14.908  16.947 -0.0357 -0.0003  0.0401
 3737G1HFO Tail44066  19.633  14.906  16.737 -0.0995  0.0809  0.0567
 3737G1HFO Tail44067  19.474  14.975  16.578 -0.0626  0.2846 -0.0040
 3738G1HFO Head44068  15.975  16.829  17.372 -0.2349  0.0538  0.0155
 3738G1HFO Head44069  15.753  16.929  17.507 -0.4628 -0.1192 -0.4436
 3738G1HFO Head44070  15.516  17.554  17.424  0.4161  0.2829  0.1477
 3738G1HFO Head44071  15.547  17.313  17.543  0.5992 -0.0669 -0.1926
 3738G1HFO link44072  15.767  17.200  17.584 -0.3087  0.6173 -0.1248
 3738G1HFO link44073  16.015  17.335  17.614 -0.0011  0.0097 -0.0732
 3738G1HFO Tail44074  16.028  17.645  17.698 -0.3020 -0.1225 -0.1452
 3738G1HFO Tail44075  15.974  17.809  17.419  0.0479 -0.0811  0.3108
 3738G1HFO Tail44076  16.094  17.777  17.122 -0.1431 -0.0691  0.0804
 3738G1HFO Tail44077  16.482  17.694  16.911  0.0053 -0.0460  0.0709
 3738G1HFO Tail44078  15.709  17.684  17.837 -0.0512  0.1657 -0.0550
 3738G1HFO Tail44079  15.653  17.538  18.039 -0.2177  0.1621  0.1834
 3738G1HFO Tail44080  15.684  17.286  18.012  0.1071  0.1880  0.0414
 3738G1HFO Tail44081  15.717  17.030  18.032 -0.0762 -0.1647 -0.0024
 3738G1HFO Tail44082  15.700  16.802  18.038 -0.4398  0.1203  0.2225
 3739G1HFO Head44083  18.224  17.257  15.183 -0.1251 -0.4556  0.1007
 3739G1HFO Head44084  18.496  17.268  15.408  0.2670  0.0669 -0.1424
 3739G1HFO Head44085  19.138  17.188  15.461 -0.1481  0.1562  0.0590
 3739G1HFO Head44086  18.865  17.190  15.575 -0.5106 -0.1482 -0.4943
 3739G1HFO link44087  18.639  17.074  15.472  0.0346  0.3956  0.4016
 3739G1HFO link44088  18.537  16.805  15.521 -0.0820  0.0549 -0.1498
 3739G1HFO Tail44089  18.715  16.526  15.564  0.5340 -0.1265 -0.2846
 3739G1HFO Tail44090  18.824  16.560  15.889  0.0992 -0.5805 -0.0484
 3739G1HFO Tail44091  18.693  16.488  16.176 -0.1665  0.3520  0.2749
 3739G1HFO Tail44092  18.571  16.134  16.403 -0.4998  0.1524 -0.0858
 3739G1HFO Tail44093  18.471  16.286  15.616  0.2500  0.0870 -0.0145
 3739G1HFO Tail44094  18.229  16.325  15.522  0.2303  0.1214  0.0570
 3739G1HFO Tail44095  18.077  16.122  15.477  0.0027  0.0338  0.1705
 3739G1HFO Tail44096  17.887  15.950  15.423  0.0410  0.0271  0.0159
 3739G1HFO Tail44097  17.752  15.771  15.369  0.0556 -0.3124  0.2738
 3740G1HFO Head44098  19.288  19.928  18.710 -0.0118 -0.1083  0.0728
 3740G1HFO Head44099  19.043  20.060  18.652 -0.2703 -0.4874 -0.0994
 3740G1HFO Head44100  18.435  20.316  18.900 -0.1897  0.3540  0.3726
 3740G1HFO Head44101  18.718  20.281  18.817  0.3589  0.0418  0.1695
 3740G1HFO link44102  18.844  20.054  18.817  0.0953 -0.0257  0.0962
 3740G1HFO link44103  18.859  19.850  19.027  0.0645 -0.1760  0.0527
 3740G1HFO Tail44104  18.840  19.524  18.963 -0.5986 -0.2622 -0.2231
 3740G1HFO Tail44105  18.500  19.538  18.867  0.2217 -0.0269 -0.1319
 3740G1HFO Tail44106  18.298  19.335  18.715 -0.4646 -0.0467  0.0637
 3740G1HFO Tail44107  18.280  18.932  18.544  0.0671 -0.0524 -0.3426
 3740G1HFO Tail44108  19.007  19.508  18.662  0.0622 -0.4590 -0.0225
 3740G1HFO Tail44109  18.885  19.559  18.434  0.2082 -0.0291 -0.0165
 3740G1HFO Tail44110  18.733  19.762  18.433 -0.1348  0.0153  0.0952
 3740G1HFO Tail44111  18.592  19.969  18.458  0.0420 -0.2988  0.1022
 3740G1HFO Tail44112  18.443  20.153  18.446 -0.1543  0.1148  0.1494
 3741G1HFO Head44113  16.225  19.843  22.236 -0.2708 -0.0124 -0.2586
 3741G1HFO Head44114  16.487  19.621  22.269  0.1243  0.3231 -0.2405
 3741G1HFO Head44115  16.978  20.007  22.035  0.2674 -0.0267  0.0322
 3741G1HFO Head44116  16.854  19.780  22.221 -0.3039  0.2445 -0.0792
 3741G1HFO link44117  16.688  19.633  22.104  0.1486 -0.2861  0.5963
 3741G1HFO link44118  16.675  19.642  21.818  0.0310  0.0740 -0.2461
 3741G1HFO Tail44119  16.829  19.852  21.633 -0.3748 -0.1486 -0.4001
 3741G1HFO Tail44120  17.148  19.720  21.630  0.3456  0.2317 -0.1777
 3741G1HFO Tail44121  17.445  19.820  21.577 -0.2056 -0.1363  0.0341
 3741G1HFO Tail44122  17.769  19.824  21.306 -0.2235  0.3039  0.0043
 3741G1HFO Tail44123  16.710  19.753  21.317  0.4320  0.2713  0.3785
 3741G1HFO Tail44124  16.522  19.569  21.307  0.4280  0.1507  0.0391
 3741G1HFO Tail44125  16.560  19.350  21.444 -0.2772 -0.3868 -0.0095
 3741G1HFO Tail44126  16.657  19.155  21.571  0.2048 -0.1168  0.2339
 3741G1HFO Tail44127  16.692  18.932  21.649  0.2381 -0.0535 -0.0251
 3742G1HFO Head44128  13.908  15.209  20.714 -0.0218 -0.0672 -0.1305
 3742G1HFO Head44129  13.994  15.352  20.403  0.5861 -0.0557 -0.3111
 3742G1HFO Head44130  13.816  15.857  20.690 -0.0546  0.2685 -0.3917
 3742G1HFO Head44131  13.702  15.625  20.529  0.1866 -0.1447  0.0703
 3742G1HFO link44132  13.837  15.542  20.298  0.0485 -0.3334 -0.4255
 3742G1HFO link44133  13.943  15.708  20.082 -0.0170 -0.4633 -0.0855
 3742G1HFO Tail44134  14.060  15.997  20.168 -0.5316  0.1160 -0.3070
 3742G1HFO Tail44135  13.919  16.231  19.938 -0.1423  0.0821 -0.1530
 3742G1HFO Tail44136  14.075  16.389  19.732  0.1418 -0.1001  0.4075
 3742G1HFO Tail44137  14.488  16.501  19.640 -0.0596 -0.1307 -0.0287
 3742G1HFO Tail44138  14.391  15.984  20.065 -0.2465  0.0483  0.3068
 3742G1HFO Tail44139  14.456  16.110  19.855 -0.1494 -0.1151  0.2427
 3742G1HFO Tail44140  14.700  16.100  19.760  0.0606  0.0287  0.2119
 3742G1HFO Tail44141  14.918  16.107  19.644 -0.1262  0.0345 -0.1717
 3742G1HFO Tail44142  15.116  16.055  19.534  0.2247 -0.3278  0.1093
 3743G1HFO Head44143  18.552  17.732  18.432 -0.1183  0.0488 -0.0907
 3743G1HFO Head44144  18.669  17.620  18.158 -0.7242 -0.0775 -0.2727
 3743G1HFO Head44145  19.165  17.987  17.866 -0.4834 -0.1921  0.0730
 3743G1HFO Head44146  18.937  17.885  18.027 -0.1030 -0.1041 -0.1882
 3743G1HFO link44147  18.929  17.636  18.127  0.3083  0.4003 -0.1578
 3743G1HFO link44148  19.092  17.426  18.064  0.3905  0.4086  0.2316
 3743G1HFO Tail44149  19.251  17.395  17.773  0.2621 -0.1932 -0.5760
 3743G1HFO Tail44150  19.053  17.583  17.570 -0.1281  0.1070 -0.0108
 3743G1HFO Tail44151  19.063  17.662  17.266  0.4937  0.2804 -0.5743
 3743G1HFO Tail44152  19.255  17.537  16.900 -0.2223 -0.0201  0.2617
 3743G1HFO Tail44153  19.552  17.542  17.821 -0.0508 -0.4428 -0.0337
 3743G1HFO Tail44154  19.790  17.430  17.786 -0.0747  0.0277  0.2284
 3743G1HFO Tail44155  19.953  17.545  17.620 -0.0633  0.0125 -0.2519
 3743G1HFO Tail44156  20.135  17.655  17.488 -0.0119 -0.1615  0.0168
 3743G1HFO Tail44157  20.318  17.799  17.437  0.0776  0.3116 -0.0862
 3744G1HFO Head44158  18.940  15.531  15.456 -0.0757 -0.1653 -0.1595
 3744G1HFO Head44159  18.944  15.666  15.772  0.1157  0.2081 -0.2169
 3744G1HFO Head44160  18.942  16.104  15.466  0.2394  0.0027  0.1916
 3744G1HFO Head44161  19.134  16.074  15.718 -0.0303 -0.1531  0.1988
 3744G1HFO link44162  19.129  15.848  15.851 -0.3334  0.0596 -0.0097
 3744G1HFO link44163  19.309  15.784  16.054  0.0612 -0.0862 -0.2071
 3744G1HFO Tail44164  19.186  15.720  16.348  0.2351 -0.1025  0.0315
 3744G1HFO Tail44165  18.833  15.743  16.263 -0.3296  0.2017 -0.1538
 3744G1HFO Tail44166  18.576  15.644  16.402  0.3066 -0.2413 -0.3334
 3744G1HFO Tail44167  18.329  15.289  16.399 -0.0374 -0.0186 -0.0446
 3744G1HFO Tail44168  19.224  15.365  16.368  0.0888  0.3441  0.2136
 3744G1HFO Tail44169  19.123  15.203  16.183  0.1768 -0.0525  0.0256
 3744G1HFO Tail44170  18.905  15.293  16.073  0.3216  0.0733  0.0058
 3744G1HFO Tail44171  18.667  15.351  16.004 -0.0928  0.0224  0.1255
 3744G1HFO Tail44172  18.447  15.348  15.912 -0.2313 -0.2152 -0.0740
 3745G1HFO Head44173  15.295  19.804  20.063 -0.0742  0.3122 -0.1825
 3745G1HFO Head44174  15.622  19.815  20.019  0.3521 -0.0339 -0.0212
 3745G1HFO Head44175  15.269  19.851  19.528 -0.1228  0.1688 -0.1566
 3745G1HFO Head44176  15.503  19.647  19.658 -0.1708 -0.2014  0.1527
 3745G1HFO link44177  15.710  19.754  19.792 -0.1654 -0.2258  0.3257
 3745G1HFO link44178  15.928  19.887  19.669 -0.2844  0.0791 -0.1711
 3745G1HFO Tail44179  16.055  19.785  19.385 -0.2045 -0.3484  0.0521
 3745G1HFO Tail44180  16.221  20.090  19.273  0.2251 -0.1529  0.3477
 3745G1HFO Tail44181  16.514  20.159  19.299 -0.3872 -0.0581  0.0894
 3745G1HFO Tail44182  16.892  19.951  19.284 -0.1371 -0.4222 -0.0254
 3745G1HFO Tail44183  16.359  19.650  19.489  0.0339  0.1813  0.3775
 3745G1HFO Tail44184  16.542  19.797  19.590 -0.3921  0.0446  0.0295
 3745G1HFO Tail44185  16.751  19.694  19.710  0.0520  0.4609  0.0468
 3745G1HFO Tail44186  16.913  19.565  19.861 -0.0050  0.1198  0.0106
 3745G1HFO Tail44187  17.092  19.497  20.003 -0.0279  0.0386  0.0267
 3746G1HFO Head44188  18.060  13.255  19.317  0.0610 -0.1399 -0.2640
 3746G1HFO Head44189  17.768  13.380  19.328  0.1186  0.0655  0.1600
 3746G1HFO Head44190  17.628  13.442  19.818  0.2536 -0.1768 -0.2825
 3746G1HFO Head44191  17.701  13.689  19.614  0.1915 -0.3801 -0.1899
 3746G1HFO link44192  17.718  13.639  19.369 -0.1446 -0.5289 -0.3058
 3746G1HFO link44193  17.582  13.819  19.191 -0.1006 -0.1107 -0.3768
 3746G1HFO Tail44194  17.729  14.103  19.101 -0.1990 -0.1578 -0.5498
 3746G1HFO Tail44195  17.468  14.213  18.903 -0.0755 -0.0929  0.0046
 3746G1HFO Tail44196  17.373  14.476  18.735  0.0470 -0.1863 -0.2238
 3746G1HFO Tail44197  17.363  14.559  18.304  0.1315 -0.0343 -0.0805
 3746G1HFO Tail44198  17.713  14.288  19.395 -0.0344  0.0824 -0.0384
 3746G1HFO Tail44199  17.821  14.185  19.612 -0.2017  0.0062  0.1519
 3746G1HFO Tail44200  18.076  14.193  19.632 -0.3971  0.1103  0.0741
 3746G1HFO Tail44201  18.334  14.181  19.642  0.0594  0.3797  0.2108
 3746G1HFO Tail44202  18.561  14.179  19.576 -0.1925  0.0100 -0.2837
 3747G1HFO Head44203  19.219  16.335  18.051  0.5368  0.1470 -0.0808
 3747G1HFO Head44204  19.356  16.596  17.973  0.4520  0.3980 -0.0103
 3747G1HFO Head44205  18.933  16.489  17.567 -0.3104 -0.0923  0.3210
 3747G1HFO Head44206  19.026  16.647  17.756  0.5471 -0.2811  0.0162
 3747G1HFO link44207  19.295  16.713  17.759 -0.2426 -0.4548  0.6358
 3747G1HFO link44208  19.467  16.710  17.529 -0.1540  0.1202 -0.2976
 3747G1HFO Tail44209  19.523  16.422  17.361 -0.3688 -0.1249  0.0193
 3747G1HFO Tail44210  19.862  16.368  17.402  0.1868  0.0411 -0.2522
 3747G1HFO Tail44211  20.029  16.144  17.529 -0.4366  0.2290  0.0468
 3747G1HFO Tail44212  20.316  16.138  17.866 -0.3258 -0.2328  0.1112
 3747G1HFO Tail44213  19.420  16.212  17.611  0.0534 -0.2042 -0.0603
 3747G1HFO Tail44214  19.572  15.995  17.675  0.0385  0.6332 -0.0331
 3747G1HFO Tail44215  19.602  15.958  17.931 -0.2557 -0.1150 -0.1806
 3747G1HFO Tail44216  19.640  15.902  18.175  0.0172 -0.0073 -0.0949
 3747G1HFO Tail44217  19.628  15.791  18.381 -0.0065  0.1327 -0.1735
 3748G1HFO Head44218  17.162  14.531  15.794  0.2552  0.2107 -0.2362
 3748G1HFO Head44219  17.478  14.642  15.756 -0.4237  0.0336 -0.4010
 3748G1HFO Head44220  17.789  14.104  16.160  0.2102  0.2631 -0.2443
 3748G1HFO Head44221  17.629  14.256  15.904  0.0154 -0.2996  0.3225
 3748G1HFO link44222  17.665  14.520  15.908 -0.3502 -0.1942 -0.3723
 3748G1HFO link44223  17.882  14.655  16.040 -0.0369 -0.0426  0.2582
 3748G1HFO Tail44224  17.812  14.884  16.266 -0.0142  0.2987 -0.0913
 3748G1HFO Tail44225  18.059  14.828  16.479 -0.1693  0.1690  0.4262
 3748G1HFO Tail44226  18.085  14.664  16.759  0.1651 -0.1025  0.1511
 3748G1HFO Tail44227  17.874  14.349  16.983  0.1182 -0.0541 -0.1425
 3748G1HFO Tail44228  17.925  15.167  16.100 -0.0099  0.3576  0.1414
 3748G1HFO Tail44229  17.755  15.291  15.951  0.1353  0.0866  0.0590
 3748G1HFO Tail44230  17.510  15.198  15.948 -0.0849  0.0524 -0.0509
 3748G1HFO Tail44231  17.286  15.100  15.912 -0.0128 -0.0629  0.1838
 3748G1HFO Tail44232  17.066  15.028  15.904 -0.0908 -0.1124  0.1273
 3749G1HFO Head44233  19.180  18.493  21.469 -0.2499  0.0273 -0.2324
 3749G1HFO Head44234  19.465  18.444  21.320  0.6901 -0.2669  0.1704
 3749G1HFO Head44235  19.849  18.646  20.954 -0.0587  0.0559  0.3172
 3749G1HFO Head44236  19.728  18.397  20.984  0.2155  0.4688 -0.0067
 3749G1HFO link44237  19.469  18.384  21.055  0.0793  0.1252 -0.0992
 3749G1HFO link44238  19.250  18.244  20.943 -0.0548 -0.1138 -0.0638
 3749G1HFO Tail44239  18.955  18.248  21.096 -0.1593  0.1063 -0.2344
 3749G1HFO Tail44240  18.775  18.012  20.900  0.1127 -0.1923  0.1810
 3749G1HFO Tail44241  18.475  17.955  20.913  0.4836 -0.2118 -0.1114
 3749G1HFO Tail44242  18.120  17.915  21.185 -0.1237 -0.2138  0.2335
 3749G1HFO Tail44243  19.027  18.032  21.348 -0.0558  0.0509  0.0002
 3749G1HFO Tail44244  19.192  17.836  21.301  0.1558  0.1476  0.1209
 3749G1HFO Tail44245  19.441  17.898  21.292  0.2689 -0.2490 -0.0377
 3749G1HFO Tail44246  19.677  17.994  21.252  0.1544 -0.0689  0.0705
 3749G1HFO Tail44247  19.871  18.117  21.252 -0.0711 -0.3159  0.0493
 3750G1HFO Head44248  20.345  14.823  20.121  0.0459  0.1447 -0.0522
 3750G1HFO Head44249  20.105  14.990  20.077  0.2582 -0.1377  0.2017
 3750G1HFO Head44250  20.363  15.139  20.520  0.0656 -0.1124  0.3050
 3750G1HFO Head44251  20.150  15.257  20.387  0.4949  0.2686  0.1330
 3750G1HFO link44252  19.971  15.109  20.254  0.4090  0.3793  0.3827
 3750G1HFO link44253  19.690  15.173  20.221 -0.1306 -0.1869  0.0810
 3750G1HFO Tail44254  19.431  14.974  20.177 -0.4592  0.0183 -0.2087
 3750G1HFO Tail44255  19.155  15.211  20.196  0.2524  0.0573 -0.0678
 3750G1HFO Tail44256  19.132  15.456  20.414  0.2893  0.2092  0.1746
 3750G1HFO Tail44257  19.361  15.776  20.576 -0.0718  0.1592  0.3829
 3750G1HFO Tail44258  19.454  14.941  19.837 -0.0644  0.4171 -0.0724
 3750G1HFO Tail44259  19.465  15.149  19.690 -0.0114 -0.0453 -0.3771
 3750G1HFO Tail44260  19.429  15.133  19.447  0.1688  0.1109  0.0865
 3750G1HFO Tail44261  19.367  15.087  19.202  0.0401  0.0397  0.2051
 3750G1HFO Tail44262  19.275  15.092  18.995 -0.2016 -0.1890  0.1805
 3751G1HFO Head44263  16.845  17.125  20.022 -0.0912 -0.1155  0.0056
 3751G1HFO Head44264  16.664  17.129  20.271  0.3576 -0.0306 -0.0483
 3751G1HFO Head44265  16.753  17.131  20.791 -0.0129 -0.1375  0.4351
 3751G1HFO Head44266  16.690  16.895  20.637  0.1068 -0.0916  0.1745
 3751G1HFO link44267  16.591  16.909  20.397  0.1010 -0.1984  0.3881
 3751G1HFO link44268  16.389  16.721  20.308  0.0256  0.0234  0.4166
 3751G1HFO Tail44269  16.323  16.429  20.484 -0.1670 -0.2291 -0.0405
 3751G1HFO Tail44270  16.517  16.209  20.288 -0.0600 -0.1818  0.3098
 3751G1HFO Tail44271  16.805  16.063  20.288  0.4041  0.4749 -0.1418
 3751G1HFO Tail44272  16.961  15.658  20.282 -0.0947  0.2133 -0.1819
 3751G1HFO Tail44273  16.537  16.498  20.770 -0.0274  0.0178  0.1013
 3751G1HFO Tail44274  16.655  16.335  20.942  0.2622  0.2133 -0.4311
 3751G1HFO Tail44275  16.808  16.145  20.869  0.2610  0.0328 -0.1815
 3751G1HFO Tail44276  16.953  15.957  20.773  0.2451 -0.2721  0.0247
 3751G1HFO Tail44277  17.075  15.753  20.744  0.2038 -0.0397 -0.0515
 3752G1HFO Head44278  16.581  18.666  18.675  0.3629 -0.0773  0.1328
 3752G1HFO Head44279  16.827  18.550  18.695 -0.5538 -0.3763  0.1476
 3752G1HFO Head44280  17.274  18.178  18.489  0.1242  0.2248  0.1071
 3752G1HFO Head44281  17.214  18.484  18.681  0.0801 -0.1196  0.2428
 3752G1HFO link44282  17.044  18.660  18.588 -0.2411  0.2811 -0.2693
 3752G1HFO link44283  17.105  18.939  18.616  0.1480 -0.0136 -0.3573
 3752G1HFO Tail44284  17.107  19.058  18.920 -0.3655  0.3434  0.0479
 3752G1HFO Tail44285  16.751  19.106  18.933 -0.1646  0.1037  0.2069
 3752G1HFO Tail44286  16.561  19.344  18.872  0.0668 -0.0013  0.3090
 3752G1HFO Tail44287  16.554  19.769  18.849  0.4733  0.2251 -0.0094
 3752G1HFO Tail44288  17.128  18.766  19.101 -0.1767  0.0752  0.1224
 3752G1HFO Tail44289  16.925  18.606  19.116 -0.0316  0.2769  0.1839
 3752G1HFO Tail44290  16.845  18.530  19.353 -0.2750 -0.1260 -0.2253
 3752G1HFO Tail44291  16.768  18.465  19.590 -0.2071 -0.1028  0.3195
 3752G1HFO Tail44292  16.684  18.348  19.777 -0.1903 -0.2111  0.1446
 3753G1HFO Head44293  18.535  17.738  17.766 -0.0878 -0.0889 -0.4010
 3753G1HFO Head44294  18.599  17.575  17.505 -0.2918 -0.1918  0.2521
 3753G1HFO Head44295  18.547  17.259  17.858 -0.1164 -0.0563  0.3250
 3753G1HFO Head44296  18.386  17.251  17.624 -0.2296 -0.0577  0.0683
 3753G1HFO link44297  18.448  17.400  17.406  0.0817  0.1443 -0.2267
 3753G1HFO link44298  18.489  17.280  17.165 -0.1519 -0.0773 -0.1377
 3753G1HFO Tail44299  18.501  17.424  16.866 -0.4713 -0.2899  0.1359
 3753G1HFO Tail44300  18.721  17.692  16.953 -0.1125 -0.1688  0.1411
 3753G1HFO Tail44301  18.673  17.910  17.161  0.0655 -0.0858 -0.1264
 3753G1HFO Tail44302  18.836  18.069  17.529 -0.0451  0.1203  0.0802
 3753G1HFO Tail44303  18.717  17.227  16.702 -0.1163  0.0548  0.3067
 3753G1HFO Tail44304  18.866  17.054  16.837 -0.0859 -0.1548  0.1889
 3753G1HFO Tail44305  19.063  16.937  16.718  0.0222 -0.0171  0.0301
 3753G1HFO Tail44306  19.280  16.811  16.648 -0.0565 -0.1932  0.2577
 3753G1HFO Tail44307  19.491  16.716  16.641  0.1080  0.1657 -0.1384
 3754G1HFO Head44308  15.997  14.917  17.569 -0.6287  0.0515  0.0730
 3754G1HFO Head44309  16.219  15.104  17.696 -0.2546 -0.1068  0.3832
 3754G1HFO Head44310  16.629  15.037  17.980 -0.0162  0.1233 -0.3944
 3754G1HFO Head44311  16.375  15.214  18.061 -0.4883  0.2057  0.0234
 3754G1HFO link44312  16.174  15.189  17.945 -0.2152  0.0837  0.0421
 3754G1HFO link44313  15.930  15.250  18.075  0.1863 -0.1204  0.0889
 3754G1HFO Tail44314  15.736  15.509  18.012  0.0467 -0.2494 -0.5956
 3754G1HFO Tail44315  15.727  15.568  17.681  0.2208 -0.1339  0.4647
 3754G1HFO Tail44316  15.516  15.643  17.469 -0.2057 -0.1015  0.1829
 3754G1HFO Tail44317  15.431  15.952  17.161 -0.0735  0.0914  0.1247
 3754G1HFO Tail44318  15.433  15.336  17.985  0.1557  0.0470 -0.1566
 3754G1HFO Tail44319  15.225  15.371  18.155  0.1225 -0.0555  0.1274
 3754G1HFO Tail44320  15.213  15.579  18.306  0.1848 -0.1143  0.0465
 3754G1HFO Tail44321  15.164  15.756  18.477  0.0991 -0.0459  0.0980
 3754G1HFO Tail44322  15.124  15.959  18.590  0.1082 -0.0709 -0.0429
 3755G1HFO Head44323  18.847  18.434  22.324 -0.1435  0.1594  0.2335
 3755G1HFO Head44324  18.648  18.610  22.143 -0.0500  0.3524 -0.1286
 3755G1HFO Head44325  18.375  18.201  22.522  0.0861  0.0199  0.0669
 3755G1HFO Head44326  18.437  18.270  22.191  0.0113  0.0055 -0.1350
 3755G1HFO link44327  18.434  18.495  22.079  0.0188 -0.3247 -0.2538
 3755G1HFO link44328  18.274  18.562  21.843 -0.0329  0.0907  0.2885
 3755G1HFO Tail44329  18.272  18.833  21.648 -0.0535 -0.2780  0.1733
 3755G1HFO Tail44330  18.271  18.693  21.334 -0.2888 -0.0831 -0.0805
 3755G1HFO Tail44331  18.192  18.416  21.193 -0.1285 -0.0022 -0.3281
 3755G1HFO Tail44332  18.086  18.248  20.802 -0.0644  0.1675  0.1817
 3755G1HFO Tail44333  17.950  18.986  21.687  0.1467  0.1819 -0.0464
 3755G1HFO Tail44334  17.769  18.971  21.491  0.0061  0.0221 -0.1624
 3755G1HFO Tail44335  17.582  18.784  21.514  0.0233  0.0129  0.1273
 3755G1HFO Tail44336  17.415  18.591  21.480 -0.1688  0.1148  0.0571
 3755G1HFO Tail44337  17.226  18.453  21.467 -0.0291 -0.0860  0.1411
 3756G1HFO Head44338  22.160  17.082  18.122  0.1349  0.2840  0.1363
 3756G1HFO Head44339  22.014  17.270  18.341  0.2327  0.2842  0.1679
 3756G1HFO Head44340  21.984  17.284  18.824 -0.3491  0.1309  0.1119
 3756G1HFO Head44341  21.739  17.343  18.625  0.2758 -0.3214  0.1432
 3756G1HFO link44342  21.741  17.262  18.390 -0.3227 -0.3530  0.5134
 3756G1HFO link44343  21.538  17.102  18.275 -0.1046 -0.2948 -0.0863
 3756G1HFO Tail44344  21.321  16.931  18.432 -0.0050  0.0191 -0.3002
 3756G1HFO Tail44345  21.359  17.087  18.755  0.0218 -0.3899 -0.0996
 3756G1HFO Tail44346  21.383  16.959  19.041 -0.5412  0.1490  0.0731
 3756G1HFO Tail44347  21.164  16.679  19.295 -0.2544  0.0885  0.0679
 3756G1HFO Tail44348  21.067  17.085  18.304  0.3841 -0.3567  0.0911
 3756G1HFO Tail44349  21.112  17.268  18.108 -0.0856  0.2429 -0.0848
 3756G1HFO Tail44350  21.239  17.486  18.172 -0.1606 -0.1062  0.0543
 3756G1HFO Tail44351  21.339  17.728  18.189  0.0001  0.3543 -0.0929
 3756G1HFO Tail44352  21.389  17.952  18.156 -0.3603  0.2929  0.1544
 3757G1HFO Head44353  15.985  15.562  21.348 -0.1984  0.0491  0.3119
 3757G1HFO Head44354  16.031  15.601  21.021  0.4904 -0.4616 -0.2871
 3757G1HFO Head44355  15.562  15.688  21.227  0.0974 -0.0297 -0.1372
 3757G1HFO Head44356  15.707  15.840  21.046  0.0725  0.1406 -0.1199
 3757G1HFO link44357  15.862  15.729  20.882  0.1511 -0.1155 -0.2148
 3757G1HFO link44358  15.921  15.807  20.608 -0.2739  0.3069 -0.2857
 3757G1HFO Tail44359  16.108  16.070  20.540 -0.4220 -0.4966 -0.1698
 3757G1HFO Tail44360  15.895  16.297  20.367  0.2346 -0.2565  0.2876
 3757G1HFO Tail44361  15.689  16.306  20.126 -0.0370  0.2872  0.0318
 3757G1HFO Tail44362  15.325  16.144  19.950  0.2290  0.1764  0.2910
 3757G1HFO Tail44363  16.076  16.225  20.841 -0.1689 -0.0440 -0.0107
 3757G1HFO Tail44364  15.954  16.448  20.869  0.1425 -0.2356 -0.0706
 3757G1HFO Tail44365  16.085  16.685  20.844  0.0657  0.0226 -0.0477
 3757G1HFO Tail44366  16.211  16.898  20.788  0.2820  0.1644  0.0365
 3757G1HFO Tail44367  16.301  17.089  20.677  0.0855 -0.0813  0.0938
 3758G1HFO Head44368  13.554  16.786  18.584 -0.2698  0.2731 -0.2125
 3758G1HFO Head44369  13.808  16.623  18.585 -0.0410  0.0628  0.4817
 3758G1HFO Head44370  13.898  16.142  18.652  0.0331  0.1102  0.2398
 3758G1HFO Head44371  14.090  16.369  18.808 -0.2216  0.0594  0.0121
 3758G1HFO link44372  14.003  16.618  18.787  0.3788  0.1638 -0.2964
 3758G1HFO link44373  14.164  16.851  18.821  0.2479  0.6226  0.1320
 3758G1HFO Tail44374  14.506  16.847  18.822  0.1844 -0.2129  0.5604
 3758G1HFO Tail44375  14.589  16.795  19.139  0.0209  0.1273 -0.1165
 3758G1HFO Tail44376  14.627  16.952  19.419  0.1363  0.0746  0.3231
 3758G1HFO Tail44377  14.929  17.159  19.633 -0.3339  0.0726 -0.0253
 3758G1HFO Tail44378  14.539  16.522  18.710  0.0199  0.1042 -0.2384
 3758G1HFO Tail44379  14.771  16.388  18.735 -0.2191 -0.2138  0.0816
 3758G1HFO Tail44380  14.952  16.433  18.547  0.0211 -0.1509  0.2338
 3758G1HFO Tail44381  15.113  16.498  18.351  0.1586  0.0514  0.3784
 3758G1HFO Tail44382  15.248  16.609  18.193 -0.3516 -0.6596  0.1368
 3759G1HFO Head44383  20.805  17.542  16.024  0.2368 -0.1402 -0.4228
 3759G1HFO Head44384  20.496  17.534  15.936 -0.2798  0.3157  0.0909
 3759G1HFO Head44385  20.699  18.045  16.062 -0.1740 -0.0323 -0.0738
 3759G1HFO Head44386  20.411  17.938  15.983  0.1169  0.0499  0.1437
 3759G1HFO link44387  20.319  17.701  16.047 -0.1454 -0.2402 -0.1506
 3759G1HFO link44388  20.070  17.648  16.180  0.1934 -0.3305  0.0515
 3759G1HFO Tail44389  19.965  17.708  16.487  0.2335 -0.2555  0.0330
 3759G1HFO Tail44390  19.635  17.600  16.437 -0.1271 -0.2383  0.1146
 3759G1HFO Tail44391  19.342  17.743  16.352  0.1989 -0.1353 -0.3943
 3759G1HFO Tail44392  18.943  17.835  16.496  0.1001 -0.3443  0.0270
 3759G1HFO Tail44393  20.052  17.409  16.631  0.2294  0.0594 -0.2214
 3759G1HFO Tail44394  19.922  17.175  16.603  0.3243  0.1590  0.3994
 3759G1HFO Tail44395  19.717  17.139  16.772  0.1557  0.1581  0.2503
 3759G1HFO Tail44396  19.542  17.126  16.962  0.0177 -0.0159  0.1079
 3759G1HFO Tail44397  19.368  17.066  17.109  0.0288 -0.0497  0.5365
 3760G1HFO Head44398  13.448  17.722  20.719 -0.2307  0.0906 -0.0682
 3760G1HFO Head44399  13.427  17.531  20.922  0.3301 -0.4069  0.3423
 3760G1HFO Head44400  13.303  16.975  21.066  0.1860 -0.0580 -0.3229
 3760G1HFO Head44401  13.511  17.171  21.111  0.0435  0.3972  0.2347
 3760G1HFO link44402  13.566  17.318  20.922 -0.2508 -0.0181  0.5998
 3760G1HFO link44403  13.817  17.317  20.769 -0.1211  0.2133 -0.5248
 3760G1HFO Tail44404  13.816  17.252  20.464 -0.2774 -0.0449  0.1647
 3760G1HFO Tail44405  14.153  17.184  20.406  0.1617  0.2057  0.1124
 3760G1HFO Tail44406  14.279  17.183  20.111 -0.1224  0.2649 -0.1633
 3760G1HFO Tail44407  14.569  16.942  19.905 -0.0016 -0.0769  0.2579
 3760G1HFO Tail44408  13.669  16.920  20.481 -0.2317  0.1380 -0.1166
 3760G1HFO Tail44409  13.716  16.741  20.666 -0.1540 -0.1962  0.2195
 3760G1HFO Tail44410  13.791  16.834  20.897 -0.0387 -0.2587  0.0926
 3760G1HFO Tail44411  13.887  16.951  21.097 -0.3915 -0.4005  0.0609
 3760G1HFO Tail44412  13.991  17.112  21.246  0.1776  0.4695  0.0882
 3761G1HFO Head44413  18.514  15.797  18.627 -0.0546 -0.2307  0.2153
 3761G1HFO Head44414  18.572  15.524  18.476 -0.0140  0.0628  0.0927
 3761G1HFO Head44415  18.791  15.967  18.292  0.2623  0.1153  0.2923
 3761G1HFO Head44416  18.946  15.701  18.410 -0.1261  0.3403  0.1042
 3761G1HFO link44417  18.809  15.481  18.376 -0.3131  0.5123 -0.2661
 3761G1HFO link44418  18.895  15.245  18.248  0.0474  0.2756  0.2568
 3761G1HFO Tail44419  19.206  15.121  18.216 -0.2371  0.3468 -0.3610
 3761G1HFO Tail44420  19.384  15.401  18.124 -0.3780  0.2685 -0.0877
 3761G1HFO Tail44421  19.595  15.481  17.896  0.0218  0.2900 -0.3265
 3761G1HFO Tail44422  20.011  15.621  17.811 -0.2696  0.0241  0.1441
 3761G1HFO Tail44423  19.271  15.014  18.557  0.1393 -0.0930  0.5975
 3761G1HFO Tail44424  19.303  14.758  18.607  0.1092  0.0722  0.0157
 3761G1HFO Tail44425  19.559  14.675  18.600 -0.0692 -0.1173  0.2797
 3761G1HFO Tail44426  19.803  14.608  18.576  0.2560 -0.1805  0.1120
 3761G1HFO Tail44427  20.015  14.536  18.616 -0.1482 -0.0476 -0.2148
 3762G1HFO Head44428  17.382  17.419  15.535 -0.0339 -0.0769  0.1215
 3762G1HFO Head44429  17.627  17.448  15.752 -0.1906  0.0079 -0.4881
 3762G1HFO Head44430  17.745  16.998  15.328  0.1972 -0.1877  0.2534
 3762G1HFO Head44431  17.824  17.121  15.611 -0.0127  0.3235 -0.3212
 3762G1HFO link44432  17.865  17.380  15.666  0.0978 -0.1863  0.0452
 3762G1HFO link44433  18.073  17.557  15.609  0.1334 -0.1698  0.0853
 3762G1HFO Tail44434  18.028  17.867  15.513  0.0317 -0.4354  0.1439
 3762G1HFO Tail44435  18.093  18.025  15.811 -0.0889 -0.3156  0.0543
 3762G1HFO Tail44436  18.316  18.228  15.954  0.0096  0.0635 -0.0581
 3762G1HFO Tail44437  18.421  18.352  16.352 -0.2288  0.2001 -0.0629
 3762G1HFO Tail44438  17.673  17.875  15.501  0.2656 -0.1396  0.2086
 3762G1HFO Tail44439  17.550  18.098  15.423  0.0172 -0.1765  0.1203
 3762G1HFO Tail44440  17.436  18.222  15.606 -0.0084 -0.2586 -0.0870
 3762G1HFO Tail44441  17.370  18.349  15.814  0.1002  0.2039  0.0214
 3762G1HFO Tail44442  17.322  18.524  15.958  0.1880 -0.0603  0.0373
 3763G1HFO Head44443  13.954  14.908  19.563 -0.3558 -0.0262 -0.0265
 3763G1HFO Head44444  14.240  14.956  19.710 -0.1148  0.0338  0.4794
 3763G1HFO Head44445  14.025  14.942  20.170  0.0238  0.1976 -0.1596
 3763G1HFO Head44446  14.125  15.192  20.044  0.2819  0.2370  0.0766
 3763G1HFO link44447  14.280  15.180  19.839 -0.3461 -0.1349 -0.4035
 3763G1HFO link44448  14.407  15.400  19.698 -0.1302  0.2443 -0.4231
 3763G1HFO Tail44449  14.264  15.528  19.446  0.4226  0.0328  0.0781
 3763G1HFO Tail44450  14.191  15.847  19.554 -0.4976  0.1683  0.0329
 3763G1HFO Tail44451  14.296  16.149  19.459  0.2134  0.3885 -0.2240
 3763G1HFO Tail44452  14.175  16.487  19.235  0.1995  0.2249 -0.4720
 3763G1HFO Tail44453  14.549  15.586  19.280 -0.1501  0.1326 -0.2679
 3763G1HFO Tail44454  14.703  15.789  19.343 -0.0916 -0.1651 -0.0029
 3763G1HFO Tail44455  14.887  15.872  19.175 -0.1181  0.1922 -0.0758
 3763G1HFO Tail44456  15.077  15.965  19.043  0.0359  0.1762  0.2306
 3763G1HFO Tail44457  15.243  16.112  18.966  0.0762 -0.2733 -0.0090
 3764G1HFO Head44458  18.208  21.210  16.315 -0.3223 -0.1523 -0.1019
 3764G1HFO Head44459  18.308  20.969  16.180 -0.2963  0.2624  0.0336
 3764G1HFO Head44460  18.644  20.778  16.546  0.3219  0.0518  0.2926
 3764G1HFO Head44461  18.341  20.734  16.515 -0.2680 -0.0210 -0.2126
 3764G1HFO link44462  18.226  20.747  16.272  0.4041 -0.0681  0.2880
 3764G1HFO link44463  18.122  20.527  16.126  0.0694 -0.1123 -0.1690
 3764G1HFO Tail44464  17.937  20.302  16.258 -0.0559 -0.1925 -0.2431
 3764G1HFO Tail44465  18.085  20.000  16.149  0.1104 -0.0862  0.3848
 3764G1HFO Tail44466  18.377  19.873  16.064 -0.1714  0.2266 -0.2244
 3764G1HFO Tail44467  18.554  19.609  15.767 -0.2254 -0.1754  0.3248
 3764G1HFO Tail44468  18.044  20.279  16.589 -0.0298 -0.1257  0.0175
 3764G1HFO Tail44469  18.296  20.258  16.641  0.1100 -0.0129  0.4367
 3764G1HFO Tail44470  18.478  20.268  16.450 -0.0654  0.2632 -0.1431
 3764G1HFO Tail44471  18.652  20.231  16.271  0.0845  0.1238  0.2622
 3764G1HFO Tail44472  18.846  20.216  16.132  0.0120  0.0779 -0.1178
 3765G1HFO Head44473  15.664  18.904  20.542  0.2920 -0.0265  0.2986
 3765G1HFO Head44474  15.560  18.630  20.502  0.1115  0.0286  0.3454
 3765G1HFO Head44475  15.074  18.792  20.930 -0.1101  0.0790  0.1287
 3765G1HFO Head44476  15.196  18.788  20.688 -0.1792  0.0884  0.1901
 3765G1HFO link44477  15.315  18.574  20.611  0.3277 -0.1182 -0.6347
 3765G1HFO link44478  15.252  18.313  20.716 -0.2640  0.0535  0.1191
 3765G1HFO Tail44479  15.476  18.138  20.880  0.1074 -0.2621 -0.4459
 3765G1HFO Tail44480  15.528  17.891  20.657 -0.2246  0.2176 -0.1916
 3765G1HFO Tail44481  15.590  17.566  20.698  0.4787  0.1896 -0.0313
 3765G1HFO Tail44482  15.408  17.176  20.597 -0.3139 -0.0837 -0.0595
 3765G1HFO Tail44483  15.790  18.320  20.839  0.1290  0.2093  0.3319
 3765G1HFO Tail44484  16.009  18.234  20.960 -0.0946 -0.1070  0.1025
 3765G1HFO Tail44485  16.236  18.249  20.833  0.0676 -0.1866  0.2738
 3765G1HFO Tail44486  16.432  18.273  20.677 -0.0822 -0.0577 -0.1988
 3765G1HFO Tail44487  16.647  18.298  20.591 -0.1394  0.2245 -0.1052
 3766G1HFO Head44488  17.399  17.929  22.715 -0.1063  0.1825  0.1669
 3766G1HFO Head44489  17.431  17.644  22.693 -0.0120  0.0861 -0.1999
 3766G1HFO Head44490  17.784  17.146  22.368  0.0922 -0.4658 -0.0614
 3766G1HFO Head44491  17.541  17.338  22.454 -0.2795  0.0795  0.3626
 3766G1HFO link44492  17.588  17.584  22.514 -0.2658  0.0222 -0.1821
 3766G1HFO link44493  17.814  17.735  22.428 -0.0550 -0.1621 -0.1444
 3766G1HFO Tail44494  17.898  17.735  22.103  0.2340 -0.3392 -0.1627
 3766G1HFO Tail44495  18.112  17.476  22.105 -0.1177 -0.1457  0.1505
 3766G1HFO Tail44496  18.275  17.351  21.867 -0.0851  0.3761 -0.2068
 3766G1HFO Tail44497  18.334  16.982  21.628 -0.2814  0.0292  0.0311
 3766G1HFO Tail44498  17.606  17.544  21.986  0.2514 -0.2814  0.3752
 3766G1HFO Tail44499  17.369  17.577  22.090 -0.1585  0.0387  0.0273
 3766G1HFO Tail44500  17.280  17.794  22.192  0.1267 -0.1411  0.0249
 3766G1HFO Tail44501  17.224  18.033  22.269 -0.0062  0.0658  0.0250
 3766G1HFO Tail44502  17.167  18.219  22.392  0.0468 -0.1411  0.1103
 3767G1HFO Head44503  15.406  17.999  18.642  0.1244  0.2893  0.4109
 3767G1HFO Head44504  15.391  18.280  18.721 -0.4601  0.2598  0.0052
 3767G1HFO Head44505  15.115  18.681  18.300 -0.3873 -0.0127 -0.2847
 3767G1HFO Head44506  15.161  18.636  18.586 -0.2260  0.1445  0.1900
 3767G1HFO link44507  15.152  18.387  18.675  0.6361 -0.2010 -0.1757
 3767G1HFO link44508  14.929  18.277  18.822  0.2285 -0.2111 -0.0274
 3767G1HFO Tail44509  14.710  18.436  18.995  0.3631 -0.3748 -0.0168
 3767G1HFO Tail44510  14.726  18.238  19.286  0.1777 -0.3218  0.0704
 3767G1HFO Tail44511  14.938  18.104  19.482 -0.1628  0.3911  0.2001
 3767G1HFO Tail44512  15.337  17.927  19.539 -0.0507 -0.0177 -0.0311
 3767G1HFO Tail44513  14.915  18.685  19.145  0.4313 -0.1227  0.0573
 3767G1HFO Tail44514  15.097  18.787  18.987 -0.2141 -0.1873 -0.1897
 3767G1HFO Tail44515  15.339  18.677  18.980 -0.2573  0.1873  0.1490
 3767G1HFO Tail44516  15.567  18.571  19.013 -0.4980  0.0547 -0.1181
 3767G1HFO Tail44517  15.787  18.501  19.076 -0.0058 -0.1210  0.0985
 3768G1HFO Head44518  18.281  20.335  20.710  0.2415  0.1181  0.0124
 3768G1HFO Head44519  18.342  20.026  20.805 -0.2526 -0.1497  0.1682
 3768G1HFO Head44520  18.367  19.765  21.210  0.0521  0.1760 -0.2322
 3768G1HFO Head44521  18.190  19.701  20.945  0.1263 -0.3566  0.5327
 3768G1HFO link44522  18.201  19.846  20.717 -0.3610  0.1988 -0.7356
 3768G1HFO link44523  18.138  19.790  20.449  0.0097  0.0014 -0.0195
 3768G1HFO Tail44524  17.896  19.583  20.364  0.8155 -0.0488  0.0620
 3768G1HFO Tail44525  17.940  19.555  20.010 -0.0350  0.0562  0.0657
 3768G1HFO Tail44526  17.872  19.658  19.720  0.2631 -0.7044 -0.1450
 3768G1HFO Tail44527  17.659  19.528  19.368  0.1907 -0.0037  0.1103
 3768G1HFO Tail44528  18.027  19.262  20.427 -0.1109 -0.0865  0.3337
 3768G1HFO Tail44529  18.199  19.242  20.630  0.1083  0.0296  0.3137
 3768G1HFO Tail44530  18.393  19.415  20.647  0.0293  0.3624 -0.0987
 3768G1HFO Tail44531  18.565  19.608  20.665 -0.1520 -0.0722  0.2432
 3768G1HFO Tail44532  18.682  19.816  20.675  0.0802  0.3493 -0.0724
 3769G1HFO Head44533  16.258  20.644  20.935 -0.2188 -0.0383 -0.0243
 3769G1HFO Head44534  16.463  20.437  20.783  0.0623 -0.1432  0.1075
 3769G1HFO Head44535  16.010  20.599  20.498  0.2372 -0.0660  0.2101
 3769G1HFO Head44536  16.286  20.610  20.467 -0.3689 -0.0614  0.0817
 3769G1HFO link44537  16.434  20.403  20.530 -0.0433  0.3492 -0.1701
 3769G1HFO link44538  16.436  20.144  20.411 -0.1016  0.0543 -0.1681
 3769G1HFO Tail44539  16.514  20.073  20.091  0.2242 -0.0123 -0.1399
 3769G1HFO Tail44540  16.850  19.968  20.110  0.0176  0.0983 -0.0401
 3769G1HFO Tail44541  17.073  20.034  19.901 -0.1246 -0.2052 -0.3228
 3769G1HFO Tail44542  17.263  19.832  19.562 -0.1917  0.0736  0.2079
 3769G1HFO Tail44543  16.367  19.768  20.063 -0.1488  0.2246 -0.0337
 3769G1HFO Tail44544  16.529  19.555  20.043  0.2214  0.2581  0.4768
 3769G1HFO Tail44545  16.424  19.340  19.945 -0.4068 -0.1237  0.1366
 3769G1HFO Tail44546  16.306  19.149  19.817  0.0070 -0.1397  0.0742
 3769G1HFO Tail44547  16.156  18.981  19.742  0.3692 -0.0381 -0.1583
 3770G1HFO Head44548  19.577  19.642  19.969  0.0482  0.1835  0.1727
 3770G1HFO Head44549  19.313  19.701  19.791 -0.3086 -0.3891  0.3436
 3770G1HFO Head44550  18.884  20.065  20.012  0.0535 -0.1320 -0.2228
 3770G1HFO Head44551  18.905  19.806  19.818  0.1111 -0.2745 -0.0736
 3770G1HFO link44552  19.106  19.614  19.869  0.2483 -0.4567  0.1071
 3770G1HFO link44553  19.089  19.369  20.003 -0.0920  0.1697  0.4565
 3770G1HFO Tail44554  19.372  19.214  20.088 -0.1262  0.0200 -0.3240
 3770G1HFO Tail44555  19.243  18.884  20.136 -0.0659  0.2452  0.2203
 3770G1HFO Tail44556  18.976  18.727  20.254  0.1429 -0.6983 -0.0103
 3770G1HFO Tail44557  18.884  18.419  20.552 -0.0999 -0.3023  0.2028
 3770G1HFO Tail44558  19.501  19.186  19.783  0.0353 -0.0150  0.1923
 3770G1HFO Tail44559  19.695  19.347  19.705  0.1445  0.2054  0.2008
 3770G1HFO Tail44560  19.715  19.417  19.441  0.1314 -0.2567  0.0133
 3770G1HFO Tail44561  19.739  19.531  19.220 -0.0689  0.0790  0.0264
 3770G1HFO Tail44562  19.803  19.590  18.999  0.3750 -0.1764  0.2449
 3771G1HFO Head44563  13.067  17.993  18.379 -0.2614  0.0407  0.0472
 3771G1HFO Head44564  13.255  17.723  18.428 -0.6167  0.0735 -0.0422
 3771G1HFO Head44565  13.343  18.236  18.745 -0.2538 -0.3301  0.0078
 3771G1HFO Head44566  13.395  17.905  18.770  0.0450  0.3909 -0.0615
 3771G1HFO link44567  13.483  17.745  18.573  0.1023  0.1883  0.2580
 3771G1HFO link44568  13.703  17.587  18.541 -0.0156 -0.2473 -0.0410
 3771G1HFO Tail44569  13.698  17.268  18.595 -0.1311 -0.0743 -0.1325
 3771G1HFO Tail44570  13.989  17.176  18.431 -0.3002 -0.1037 -0.0310
 3771G1HFO Tail44571  14.299  17.113  18.497  0.1080 -0.6637  0.1235
 3771G1HFO Tail44572  14.634  17.297  18.726 -0.0006 -0.0555  0.1938
 3771G1HFO Tail44573  13.854  17.288  18.922  0.4552 -0.2130  0.2139
 3771G1HFO Tail44574  13.988  17.512  18.960  0.3205  0.0777 -0.0395
 3771G1HFO Tail44575  14.159  17.573  18.773  0.1791  0.0597 -0.2735
 3771G1HFO Tail44576  14.314  17.605  18.569  0.0022 -0.2483  0.0060
 3771G1HFO Tail44577  14.414  17.612  18.357  0.1342  0.0261  0.0584
 3772G1HFO Head44578  20.890  17.513  16.907 -0.1383 -0.0142 -0.2429
 3772G1HFO Head44579  20.881  17.367  17.201 -0.3469  0.2317 -0.0458
 3772G1HFO Head44580  21.142  17.786  17.248 -0.0211 -0.1257 -0.0251
 3772G1HFO Head44581  20.855  17.745  17.329  0.1337 -0.4057  0.1722
 3772G1HFO link44582  20.778  17.494  17.400 -0.8365  0.1996 -0.1862
 3772G1HFO link44583  20.538  17.407  17.547 -0.0483  0.3034  0.1424
 3772G1HFO Tail44584  20.534  17.459  17.876  0.1737 -0.6124  0.1368
 3772G1HFO Tail44585  20.207  17.412  17.996  0.3627 -0.2211  0.0083
 3772G1HFO Tail44586  20.018  17.186  18.078  0.1485  0.0717 -0.3329
 3772G1HFO Tail44587  19.620  17.066  17.990 -0.0672  0.1356  0.3487
 3772G1HFO Tail44588  20.633  17.137  17.982  0.1158 -0.2079  0.0811
 3772G1HFO Tail44589  20.512  16.925  17.892 -0.2342 -0.0810 -0.1837
 3772G1HFO Tail44590  20.279  16.974  17.776  0.2710  0.0867  0.1558
 3772G1HFO Tail44591  20.037  16.966  17.657 -0.0240  0.2509 -0.2035
 3772G1HFO Tail44592  19.831  16.887  17.583  0.0441 -0.1533 -0.0514
 3773G1HFO Head44593  17.548  18.702  18.881  0.0587  0.1279  0.1375
 3773G1HFO Head44594  17.826  18.667  19.015  0.1683  0.2681  0.0607
 3773G1HFO Head44595  17.758  18.232  18.672  0.2645 -0.2846  0.5386
 3773G1HFO Head44596  17.740  18.242  18.968 -0.2560 -0.0897  0.0053
 3773G1HFO link44597  17.882  18.419  19.119 -0.2202  0.1537  0.5592
 3773G1HFO link44598  18.042  18.345  19.355  0.0263  0.2135  0.1387
 3773G1HFO Tail44599  17.900  18.268  19.643  0.1382 -0.3286 -0.1022
 3773G1HFO Tail44600  17.998  18.558  19.826  0.0133 -0.1180  0.2756
 3773G1HFO Tail44601  17.889  18.860  19.812  0.2891  0.0258 -0.0628
 3773G1HFO Tail44602  17.928  19.220  19.580  0.0801  0.2316  0.0450
 3773G1HFO Tail44603  17.575  18.387  19.597  0.2106  0.1016  0.0312
 3773G1HFO Tail44604  17.522  18.469  19.353  0.1408 -0.0451  0.0385
 3773G1HFO Tail44605  17.350  18.360  19.209 -0.1170 -0.0547  0.0465
 3773G1HFO Tail44606  17.200  18.217  19.060 -0.2718 -0.0062  0.0425
 3773G1HFO Tail44607  17.048  18.135  18.902 -0.1872  0.2433 -0.0913
 3774G1HFO Head44608  18.478  14.348  16.390  0.2352  0.0556 -0.0174
 3774G1HFO Head44609  18.386  14.589  16.196  0.2024  0.1750 -0.2174
 3774G1HFO Head44610  18.286  14.684  15.711  0.3562 -0.1007 -0.3593
 3774G1HFO Head44611  18.428  14.892  15.921  0.2799  0.3175 -0.1585
 3774G1HFO link44612  18.522  14.795  16.141 -0.2650 -0.0497 -0.0012
 3774G1HFO link44613  18.805  14.853  16.219 -0.0269 -0.1232  0.1124
 3774G1HFO Tail44614  18.862  14.913  16.544  0.1741 -0.2613  0.2279
 3774G1HFO Tail44615  18.779  15.253  16.558  0.0751 -0.0682  0.0821
 3774G1HFO Tail44616  18.906  15.507  16.673 -0.0797 -0.0170  0.1609
 3774G1HFO Tail44617  18.801  15.905  16.795 -0.1624  0.0318 -0.2498
 3774G1HFO Tail44618  18.586  14.776  16.646  0.3090 -0.0354  0.0112
 3774G1HFO Tail44619  18.566  14.663  16.879  0.1867  0.0849  0.0910
 3774G1HFO Tail44620  18.708  14.452  16.928 -0.0834  0.0485 -0.0100
 3774G1HFO Tail44621  18.881  14.262  16.937  0.0352 -0.2297  0.0083
 3774G1HFO Tail44622  18.990  14.064  16.975 -0.1926 -0.0043  0.1336
 3775G1HFO Head44623  16.208  21.069  17.776 -0.1827  0.1008 -0.2151
 3775G1HFO Head44624  16.404  20.817  17.775 -0.0462 -0.0183 -0.0023
 3775G1HFO Head44625  16.872  20.581  17.882  0.5248  0.1293  0.1859
 3775G1HFO Head44626  16.593  20.445  17.873  0.3112  0.1188  0.3279
 3775G1HFO link44627  16.357  20.590  17.915 -0.2906  0.0037 -0.4185
 3775G1HFO link44628  16.138  20.578  18.098 -0.0358  0.0644  0.3415
 3775G1HFO Tail44629  16.139  20.724  18.386 -0.0827  0.1362  0.3558
 3775G1HFO Tail44630  16.250  20.469  18.583 -0.0352  0.2915  0.0965
 3775G1HFO Tail44631  16.205  20.158  18.575  0.5362 -0.0410 -0.0767
 3775G1HFO Tail44632  16.055  19.819  18.815 -0.0928 -0.0308  0.0143
 3775G1HFO Tail44633  16.433  20.910  18.321  0.1212 -0.1117 -0.3747
 3775G1HFO Tail44634  16.649  20.761  18.266 -0.3488 -0.2173 -0.5197
 3775G1HFO Tail44635  16.667  20.523  18.358 -0.1478  0.1180  0.0831
 3775G1HFO Tail44636  16.724  20.288  18.447 -0.3284  0.0044  0.2500
 3775G1HFO Tail44637  16.760  20.054  18.467 -0.1565 -0.3194 -0.3011
 3776G1HFO Head44638  17.299  13.764  17.074 -0.1228  0.0964 -0.2151
 3776G1HFO Head44639  17.406  14.079  17.115 -0.3703  0.5021  0.1199
 3776G1HFO Head44640  18.053  13.931  17.250  0.2514 -0.1088 -0.1596
 3776G1HFO Head44641  17.777  13.901  17.244  0.1544  0.1406  0.2446
 3776G1HFO link44642  17.604  14.104  17.298  0.4353 -0.1574 -0.0941
 3776G1HFO link44643  17.675  14.330  17.435  0.0693 -0.1820 -0.1917
 3776G1HFO Tail44644  17.471  14.551  17.546  0.2834 -0.1843 -0.5389
 3776G1HFO Tail44645  17.369  14.353  17.845  0.0067 -0.2109 -0.0406
 3776G1HFO Tail44646  17.557  14.188  18.048  0.2271 -0.0422  0.0958
 3776G1HFO Tail44647  17.649  14.177  18.475  0.2684  0.0497  0.2596
 3776G1HFO Tail44648  17.709  14.745  17.716 -0.1500  0.1537  0.1898
 3776G1HFO Tail44649  17.720  14.746  17.981 -0.1137  0.0107  0.0445
 3776G1HFO Tail44650  17.605  14.936  18.115 -0.0001 -0.0546  0.0198
 3776G1HFO Tail44651  17.460  15.120  18.208 -0.0887 -0.0711  0.3084
 3776G1HFO Tail44652  17.284  15.274  18.252  0.0715  0.1745  0.4290
 3777G1HFO Head44653  15.354  17.220  19.067 -0.0860 -0.0580 -0.0453
 3777G1HFO Head44654  15.463  17.144  18.839  0.1710 -0.4832  0.1810
 3777G1HFO Head44655  15.669  17.523  18.577  0.1890  0.1039 -0.1968
 3777G1HFO Head44656  15.812  17.296  18.669 -0.2970 -0.3578  0.0419
 3777G1HFO link44657  15.723  17.108  18.812  0.0260  0.1655 -0.0390
 3777G1HFO link44658  15.875  16.937  18.982 -0.1513 -0.2382  0.0789
 3777G1HFO Tail44659  15.736  16.699  19.156  0.2921 -0.1454  0.2540
 3777G1HFO Tail44660  15.584  16.884  19.413 -0.2847  0.3811 -0.3077
 3777G1HFO Tail44661  15.349  16.842  19.625  0.2248 -0.0845 -0.1410
 3777G1HFO Tail44662  15.280  16.654  20.007 -0.0087  0.1214 -0.1747
 3777G1HFO Tail44663  15.443  16.668  18.963 -0.0046  0.1930 -0.4442
 3777G1HFO Tail44664  15.431  16.687  18.697 -0.2211  0.2074 -0.1923
 3777G1HFO Tail44665  15.635  16.758  18.552 -0.0379 -0.2172 -0.1423
 3777G1HFO Tail44666  15.860  16.803  18.437  0.0342  0.0984 -0.0689
 3777G1HFO Tail44667  16.077  16.873  18.385  0.1669 -0.1778  0.1449
 3778G1HFO Head44668  17.209  20.817  18.864 -0.1542 -0.0315 -0.1118
 3778G1HFO Head44669  17.064  20.583  18.723 -0.3571  0.2311 -0.2234
 3778G1HFO Head44670  17.625  20.506  18.808 -0.0985  0.1263  0.4713
 3778G1HFO Head44671  17.391  20.325  18.691 -0.1465  0.1430 -0.0959
 3778G1HFO link44672  17.179  20.413  18.555  0.2875  0.0646 -0.1886
 3778G1HFO link44673  17.167  20.443  18.271  0.2086 -0.0604 -0.1623
 3778G1HFO Tail44674  17.426  20.476  18.076  0.2830  0.0196  0.0450
 3778G1HFO Tail44675  17.648  20.281  18.245  0.0305 -0.0927  0.0762
 3778G1HFO Tail44676  17.657  20.071  18.474 -0.2152  0.2637  0.1472
 3778G1HFO Tail44677  17.569  19.658  18.620  0.2460 -0.1986  0.0322
 3778G1HFO Tail44678  17.314  20.255  17.842 -0.2600  0.1365 -0.0701
 3778G1HFO Tail44679  17.270  20.001  17.915 -0.4428  0.0196  0.2270
 3778G1HFO Tail44680  17.241  19.944  18.164 -0.0702  0.0363 -0.1380
 3778G1HFO Tail44681  17.225  19.910  18.422  0.0609  0.0126  0.3274
 3778G1HFO Tail44682  17.160  19.904  18.644  0.1926 -0.0384 -0.0782
 3779G1HFO Head44683  21.546  18.763  17.678  0.0111 -0.2527 -0.1084
 3779G1HFO Head44684  21.325  18.569  17.790  0.2344 -0.4670  0.2609
 3779G1HFO Head44685  21.581  18.662  18.167  0.3619 -0.1816 -0.2678
 3779G1HFO Head44686  21.270  18.728  18.167 -0.1529  0.2551  0.1331
 3779G1HFO link44687  21.154  18.644  17.948 -0.2458 -0.1044  0.0282
 3779G1HFO link44688  20.885  18.570  17.947  0.0238 -0.1742  0.0849
 3779G1HFO Tail44689  20.743  18.386  17.722  0.0284 -0.4954 -0.1101
 3779G1HFO Tail44690  20.707  18.627  17.466  0.0114 -0.2106  0.0056
 3779G1HFO Tail44691  20.565  18.601  17.178  0.1602 -0.0004 -0.1289
 3779G1HFO Tail44692  20.650  18.475  16.771 -0.3141  0.0184  0.0606
 3779G1HFO Tail44693  20.999  18.171  17.605  0.3248  0.0227 -0.3630
 3779G1HFO Tail44694  21.135  18.007  17.752 -0.2803  0.0260 -0.0151
 3779G1HFO Tail44695  21.069  17.755  17.725  0.0430  0.1780 -0.2088
 3779G1HFO Tail44696  21.033  17.498  17.744 -0.1103  0.1449 -0.1378
 3779G1HFO Tail44697  20.955  17.277  17.701 -0.3491  0.1017 -0.1296
 3780G1HFO Head44698  18.192  20.662  19.254  0.2176 -0.0069  0.1674
 3780G1HFO Head44699  17.961  20.504  19.324  0.0925 -0.1833 -0.1346
 3780G1HFO Head44700  18.020  20.915  19.747  0.0108 -0.2753 -0.1366
 3780G1HFO Head44701  17.867  20.880  19.471  0.2364  0.5180 -0.1268
 3780G1HFO link44702  17.757  20.653  19.388  0.6108  0.0870  0.2345
 3780G1HFO link44703  17.486  20.643  19.281  0.0089 -0.0444  0.1438
 3780G1HFO Tail44704  17.302  20.360  19.238  0.1382 -0.0903 -0.3754
 3780G1HFO Tail44705  17.569  20.166  19.236  0.3535  0.1362  0.0391
 3780G1HFO Tail44706  17.640  19.920  19.055  0.1731 -0.1054  0.1392
 3780G1HFO Tail44707  17.947  19.599  19.011 -0.0058  0.0814 -0.1356
 3780G1HFO Tail44708  17.153  20.335  19.559  0.0243  0.1170  0.0734
 3780G1HFO Tail44709  16.950  20.470  19.650  0.2611  0.0152 -0.0314
 3780G1HFO Tail44710  16.733  20.343  19.690  0.3275 -0.1197 -0.0334
 3780G1HFO Tail44711  16.491  20.264  19.726 -0.1947 -0.1401 -0.2305
 3780G1HFO Tail44712  16.298  20.139  19.715 -0.1710 -0.1786  0.0658
 3781G1HFO Head44713  13.836  19.943  18.317 -0.1708 -0.5477  0.2923
 3781G1HFO Head44714  14.079  19.772  18.225  0.1024 -0.4492  0.2403
 3781G1HFO Head44715  14.172  19.474  18.670 -0.0523  0.0354 -0.1468
 3781G1HFO Head44716  14.197  19.747  18.595  0.2533 -0.1403 -0.1336
 3781G1HFO link44717  14.287  19.818  18.361 -0.2292  0.2886  0.4986
 3781G1HFO link44718  14.556  19.797  18.290  0.1279 -0.1188 -0.0218
 3781G1HFO Tail44719  14.731  19.515  18.291  0.2426  0.1146  0.0420
 3781G1HFO Tail44720  14.836  19.484  17.959 -0.3696 -0.1964  0.1231
 3781G1HFO Tail44721  14.749  19.338  17.676 -0.1436 -0.1970 -0.5135
 3781G1HFO Tail44722  14.694  18.928  17.543 -0.0329 -0.1887  0.0732
 3781G1HFO Tail44723  15.017  19.600  18.446 -0.0277  0.0298  0.5694
 3781G1HFO Tail44724  15.263  19.548  18.342  0.3045  0.2218 -0.0847
 3781G1HFO Tail44725  15.449  19.518  18.506 -0.0994 -0.0763 -0.0441
 3781G1HFO Tail44726  15.668  19.491  18.633 -0.3297  0.2599  0.5805
 3781G1HFO Tail44727  15.842  19.394  18.763 -0.0849 -0.1391  0.0163
 3782G1HFO Head44728  17.309  16.049  18.613 -0.3374  0.0251 -0.0459
 3782G1HFO Head44729  17.036  15.886  18.745 -0.1856  0.2305 -0.2068
 3782G1HFO Head44730  17.193  15.357  19.004  0.0016 -0.0463 -0.0162
 3782G1HFO Head44731  16.968  15.587  19.049 -0.0298 -0.2777 -0.0804
 3782G1HFO link44732  16.991  15.844  19.010 -0.2517  0.2599 -0.6126
 3782G1HFO link44733  16.826  16.049  19.143  0.0869 -0.1575  0.1148
 3782G1HFO Tail44734  16.549  15.962  19.300  0.4024  0.1933  0.0204
 3782G1HFO Tail44735  16.606  15.629  19.387  0.2861 -0.2020 -0.0410
 3782G1HFO Tail44736  16.559  15.352  19.246  0.1233 -0.0159 -0.2006
 3782G1HFO Tail44737  16.804  15.057  19.068 -0.3271 -0.0076  0.0644
 3782G1HFO Tail44738  16.529  16.141  19.605  0.2848  0.1674 -0.0823
 3782G1HFO Tail44739  16.427  16.020  19.816 -0.1009 -0.2219  0.2074
 3782G1HFO Tail44740  16.508  15.787  19.893 -0.2025 -0.0247  0.0357
 3782G1HFO Tail44741  16.550  15.559  19.990 -0.0114  0.0631 -0.0579
 3782G1HFO Tail44742  16.652  15.369  20.083 -0.2212  0.0992 -0.1305
 3783G1HFO Head44743  20.209  15.501  16.056 -0.2908 -0.1414  0.0426
 3783G1HFO Head44744  20.371  15.673  15.865 -0.0547  0.2023 -0.2899
 3783G1HFO Head44745  20.648  15.673  16.357  0.0521 -0.3416  0.7636
 3783G1HFO Head44746  20.669  15.836  16.094  0.3879 -0.0752  0.1002
 3783G1HFO link44747  20.466  15.902  15.936  0.0077  0.0891 -0.2409
 3783G1HFO link44748  20.297  16.131  15.971 -0.0345  0.2243 -0.2795
 3783G1HFO Tail44749  20.057  16.185  16.193  0.2052  0.1429  0.2455
 3783G1HFO Tail44750  20.152  15.906  16.379  0.1851  0.0715 -0.2425
 3783G1HFO Tail44751  20.169  15.896  16.684  0.1063 -0.1208  0.2584
 3783G1HFO Tail44752  20.371  15.661  16.997  0.0524  0.1504  0.3013
 3783G1HFO Tail44753  20.231  16.391  16.425  0.1388  0.0377  0.3447
 3783G1HFO Tail44754  20.142  16.627  16.488  0.3369 -0.2568  0.2152
 3783G1HFO Tail44755  19.948  16.746  16.353  0.2630  0.1151 -0.1076
 3783G1HFO Tail44756  19.733  16.827  16.235  0.2287  0.0061 -0.0682
 3783G1HFO Tail44757  19.516  16.891  16.189  0.0910  0.2163 -0.2245
 3784G1HFO Head44758  16.385  16.407  21.946  0.3984 -0.2984 -0.0273
 3784G1HFO Head44759  16.454  16.701  21.898 -0.1392  0.1282 -0.0798
 3784G1HFO Head44760  16.798  16.682  22.359 -0.1011  0.1157 -0.1402
 3784G1HFO Head44761  16.781  16.584  22.089 -0.2160  0.0509  0.3117
 3784G1HFO link44762  16.690  16.740  21.881  0.0525  0.1527 -0.6903
 3784G1HFO link44763  16.827  16.801  21.647  0.2828  0.0050 -0.1410
 3784G1HFO Tail44764  16.802  17.107  21.513 -0.0776  0.0483 -0.4471
 3784G1HFO Tail44765  17.098  17.168  21.330 -0.0661 -0.0896 -0.0942
 3784G1HFO Tail44766  17.180  17.123  21.030  0.1059  0.0889 -0.1098
 3784G1HFO Tail44767  17.464  17.306  20.754  0.0557  0.0167 -0.0303
 3784G1HFO Tail44768  16.604  17.077  21.229  0.1504 -0.1865 -0.3094
 3784G1HFO Tail44769  16.557  16.839  21.123  0.0824  0.2013  0.1214
 3784G1HFO Tail44770  16.553  16.619  21.262  0.1518 -0.1760  0.0285
 3784G1HFO Tail44771  16.537  16.430  21.426 -0.0255  0.0508 -0.1030
 3784G1HFO Tail44772  16.460  16.249  21.543  0.0176  0.0803  0.2337
 3785G1HFO Head44773  16.711  15.749  15.624 -0.2225 -0.1784  0.0223
 3785G1HFO Head44774  17.020  15.818  15.652 -0.0143 -0.5488 -0.3078
 3785G1HFO Head44775  16.925  15.405  15.393 -0.0126 -0.1121 -0.1160
 3785G1HFO Head44776  17.085  15.396  15.652  0.0613 -0.2124 -0.0604
 3785G1HFO link44777  17.178  15.614  15.727 -0.3298 -0.0871 -0.3553
 3785G1HFO link44778  17.439  15.646  15.831 -0.0903  0.0660 -0.0549
 3785G1HFO Tail44779  17.458  15.792  16.120 -0.3455  0.6248  0.1448
 3785G1HFO Tail44780  17.798  15.685  16.215 -0.0438 -0.2212 -0.4409
 3785G1HFO Tail44781  17.946  15.550  16.460 -0.0329  0.1320  0.0096
 3785G1HFO Tail44782  17.917  15.269  16.794  0.1040 -0.2502  0.0871
 3785G1HFO Tail44783  17.507  16.111  16.041  0.0219 -0.1454  0.0495
 3785G1HFO Tail44784  17.727  16.238  16.133  0.0065 -0.3341 -0.1458
 3785G1HFO Tail44785  17.744  16.505  16.094  0.2041  0.2563 -0.0894
 3785G1HFO Tail44786  17.713  16.753  16.053  0.2239 -0.3780 -0.0809
 3785G1HFO Tail44787  17.743  16.974  15.994 -0.0939 -0.1785  0.0251
 3786G1HFO Head44788  15.024  20.287  19.403  0.1703  0.0037  0.2772
 3786G1HFO Head44789  14.850  20.148  19.178  0.0400 -0.3808 -0.0459
 3786G1HFO Head44790  14.695  19.617  19.551  0.0333  0.0091  0.1841
 3786G1HFO Head44791  14.865  19.814  19.439  0.1333  0.3313  0.2875
 3786G1HFO link44792  14.797  19.904  19.187  0.0322 -0.4090  0.1330
 3786G1HFO link44793  14.572  19.786  19.046 -0.3627 -0.1374 -0.1815
 3786G1HFO Tail44794  14.518  19.459  19.025  0.1412 -0.0529 -0.0432
 3786G1HFO Tail44795  14.622  19.408  18.704  0.1149  0.0261  0.3240
 3786G1HFO Tail44796  14.524  19.191  18.476  0.2886  0.3185 -0.1972
 3786G1HFO Tail44797  14.660  19.023  18.086  0.0866  0.0839 -0.1798
 3786G1HFO Tail44798  14.809  19.345  19.196 -0.2142 -0.1447  0.3707
 3786G1HFO Tail44799  15.047  19.281  19.108  0.0408  0.4803 -0.0114
 3786G1HFO Tail44800  15.040  19.185  18.859  0.0314  0.1480  0.1286
 3786G1HFO Tail44801  15.051  19.137  18.612  0.1883  0.1506  0.1287
 3786G1HFO Tail44802  15.016  19.131  18.377 -0.1350  0.1185  0.0564
 3787G1HFO Head44803  14.557  20.119  16.822  0.0078  0.2047  0.0732
 3787G1HFO Head44804  14.779  19.899  16.972 -0.2898  0.1233 -0.3280
 3787G1HFO Head44805  14.512  19.326  16.668 -0.2744  0.2166 -0.2350
 3787G1HFO Head44806  14.540  19.579  16.843 -0.0768 -0.0023  0.1677
 3787G1HFO link44807  14.746  19.642  16.989 -0.1987 -0.3521  0.1108
 3787G1HFO link44808  14.986  19.481  17.032  0.4009  0.2886 -0.2692
 3787G1HFO Tail44809  14.960  19.172  17.153 -0.3124  0.1605  0.2012
 3787G1HFO Tail44810  15.189  18.982  16.951  0.4759 -0.2983 -0.0853
 3787G1HFO Tail44811  15.468  18.808  16.977  0.1760 -0.3739  0.2001
 3787G1HFO Tail44812  15.768  18.611  16.756 -0.0320  0.2513  0.1743
 3787G1HFO Tail44813  15.151  19.227  17.435  0.0149 -0.2342  0.1093
 3787G1HFO Tail44814  15.330  19.043  17.481  0.4658  0.2186  0.1154
 3787G1HFO Tail44815  15.555  19.103  17.592 -0.0463  0.1811  0.0048
 3787G1HFO Tail44816  15.795  19.128  17.684  0.0841 -0.0922 -0.2545
 3787G1HFO Tail44817  16.014  19.120  17.779  0.3196  0.2549  0.1270
 3788G1HFO Head44818  17.417  15.891  22.498  0.2108 -0.1478 -0.1229
 3788G1HFO Head44819  17.175  15.859  22.340 -0.2150 -0.4413 -0.4687
 3788G1HFO Head44820  16.808  15.601  22.193 -0.1654  0.0208  0.3485
 3788G1HFO Head44821  16.959  15.781  21.995  0.0616 -0.0375 -0.2030
 3788G1HFO link44822  17.185  15.890  22.082  0.1221  0.1277  0.2484
 3788G1HFO link44823  17.316  16.105  21.955 -0.5067  0.1405  0.3612
 3788G1HFO Tail44824  17.219  16.220  21.663  0.2703 -0.0911  0.1671
 3788G1HFO Tail44825  16.893  16.230  21.778  0.1596  0.0099  0.0167
 3788G1HFO Tail44826  16.686  16.008  21.782  0.2522 -0.1223 -0.0884
 3788G1HFO Tail44827  16.396  15.813  22.037 -0.0337  0.0987 -0.1630
 3788G1HFO Tail44828  17.336  16.542  21.692  0.0379 -0.0712  0.0131
 3788G1HFO Tail44829  17.413  16.670  21.488  0.1267 -0.2632 -0.0192
 3788G1HFO Tail44830  17.241  16.700  21.291 -0.0616  0.2213  0.0859
 3788G1HFO Tail44831  17.040  16.721  21.130 -0.2016  0.3675  0.0874
 3788G1HFO Tail44832  16.885  16.680  20.962  0.0211  0.0181  0.1020
 3789G1HFO Head44833  15.821  16.197  21.990 -0.1622 -0.1702 -0.2376
 3789G1HFO Head44834  15.947  16.270  21.730  0.0322 -0.1978  0.0420
 3789G1HFO Head44835  15.861  15.742  21.816  0.0686  0.2608  0.2285
 3789G1HFO Head44836  15.745  15.926  21.547 -0.1455 -0.1404  0.0511
 3789G1HFO link44837  15.829  16.185  21.495 -0.5122 -0.3847 -0.2648
 3789G1HFO link44838  15.774  16.346  21.263  0.0891 -0.2196  0.1459
 3789G1HFO Tail44839  15.470  16.429  21.156  0.3193  0.3031 -0.0777
 3789G1HFO Tail44840  15.512  16.325  20.820 -0.0801 -0.0691 -0.3011
 3789G1HFO Tail44841  15.569  16.059  20.655 -0.2122 -0.2794 -0.0591
 3789G1HFO Tail44842  15.494  15.810  20.293 -0.0457  0.0787  0.3116
 3789G1HFO Tail44843  15.287  16.156  21.295 -0.2143 -0.0135  0.1295
 3789G1HFO Tail44844  15.146  15.985  21.160 -0.3171  0.0225 -0.1481
 3789G1HFO Tail44845  15.148  15.969  20.895 -0.0493 -0.2621  0.0348
 3789G1HFO Tail44846  15.133  15.944  20.647  0.0985  0.0241 -0.0080
 3789G1HFO Tail44847  15.123  15.976  20.413  0.1826  0.1717 -0.2592
 3790G1HFO Head44848  19.707  18.343  21.718  0.2580 -0.0252  0.0319
 3790G1HFO Head44849  19.470  18.175  21.739 -0.1276  0.2185  0.2399
 3790G1HFO Head44850  19.743  17.655  22.125 -0.1055 -0.0600  0.0527
 3790G1HFO Head44851  19.620  17.899  22.018 -0.0336 -0.0915  0.0649
 3790G1HFO link44852  19.476  17.907  21.800 -0.3084 -0.6198 -0.5417
 3790G1HFO link44853  19.255  17.733  21.753 -0.3421 -0.0628  0.4181
 3790G1HFO Tail44854  19.283  17.417  21.782 -0.2464  0.5218 -0.3642
 3790G1HFO Tail44855  18.954  17.330  21.764  0.0353 -0.0783  0.0466
 3790G1HFO Tail44856  18.785  17.157  21.577  0.5457  0.4515 -0.2289
 3790G1HFO Tail44857  18.610  17.173  21.170  0.0294  0.0340  0.2547
 3790G1HFO Tail44858  19.371  17.327  21.465  0.1650 -0.2652 -0.0480
 3790G1HFO Tail44859  19.181  17.297  21.291 -0.0777  0.1036  0.5363
 3790G1HFO Tail44860  18.985  17.462  21.295  0.0277  0.3144 -0.0429
 3790G1HFO Tail44861  18.781  17.609  21.281 -0.1769 -0.2370 -0.3384
 3790G1HFO Tail44862  18.630  17.788  21.310 -0.1285 -0.4439 -0.1581
 3791G1HFO Head44863  13.124  18.517  17.896 -0.2350  0.1457 -0.2357
 3791G1HFO Head44864  13.335  18.780  17.958 -0.0788 -0.2948  0.4496
 3791G1HFO Head44865  12.915  19.042  17.772  0.0766  0.2074  0.0413
 3791G1HFO Head44866  13.219  19.092  17.696  0.1654 -0.0121  0.2709
 3791G1HFO link44867  13.414  18.917  17.754 -0.5874 -0.2154 -0.1685
 3791G1HFO link44868  13.689  18.969  17.681 -0.0195 -0.0294  0.1481
 3791G1HFO Tail44869  13.893  19.159  17.872 -0.0134  0.0375 -0.2017
 3791G1HFO Tail44870  14.209  19.033  17.786  0.2974  0.1771  0.5493
 3791G1HFO Tail44871  14.319  18.716  17.810 -0.0962 -0.0716 -0.1959
 3791G1HFO Tail44872  14.712  18.525  17.888  0.3312 -0.0898  0.1682
 3791G1HFO Tail44873  13.851  18.983  18.183 -0.6912 -0.2274 -0.0994
 3791G1HFO Tail44874  13.886  18.716  18.193 -0.3164  0.5224 -0.1511
 3791G1HFO Tail44875  13.786  18.572  18.001  0.1236  0.0636  0.0323
 3791G1HFO Tail44876  13.696  18.478  17.780 -0.1330 -0.0406  0.0180
 3791G1HFO Tail44877  13.558  18.419  17.598 -0.1436  0.2543 -0.4044
 3792G1HFO Head44878  14.026  18.422  20.147  0.0195  0.2185 -0.3378
 3792G1HFO Head44879  14.270  18.374  20.003 -0.1050 -0.0041  0.0103
 3792G1HFO Head44880  14.265  18.258  20.537  0.1280  0.1117  0.0520
 3792G1HFO Head44881  14.476  18.118  20.321  0.0363 -0.2937  0.0095
 3792G1HFO link44882  14.462  18.180  20.060 -0.1433  0.0518 -0.4136
 3792G1HFO link44883  14.628  18.068  19.854  0.0327  0.4258  0.3098
 3792G1HFO Tail44884  14.615  17.751  19.757  0.0023  0.0753  0.0341
 3792G1HFO Tail44885  14.967  17.688  19.723  0.3346  0.0810  0.0129
 3792G1HFO Tail44886  15.204  17.667  19.929 -0.3470 -0.0693 -0.0693
 3792G1HFO Tail44887  15.261  17.625  20.352 -0.3585 -0.0763  0.1612
 3792G1HFO Tail44888  14.538  17.790  19.411  0.1573  0.0186 -0.0605
 3792G1HFO Tail44889  14.317  17.737  19.275  0.0048  0.2665 -0.2040
 3792G1HFO Tail44890  14.117  17.607  19.387  0.0263 -0.1993  0.1333
 3792G1HFO Tail44891  13.903  17.506  19.484 -0.2872  0.0691  0.0232
 3792G1HFO Tail44892  13.706  17.462  19.612 -0.0854  0.0639  0.2240
 3793G1HFO Head44893  17.064  15.559  17.397  0.0558 -0.1778 -0.6615
 3793G1HFO Head44894  17.115  15.310  17.205 -0.2301 -0.1474  0.1947
 3793G1HFO Head44895  17.544  15.589  17.057 -0.6382 -0.2518  0.0801
 3793G1HFO Head44896  17.546  15.292  17.114  0.3257  0.0023  0.0667
 3793G1HFO link44897  17.339  15.171  17.237 -0.0411 -0.0850 -0.8432
 3793G1HFO link44898  17.349  14.940  17.402 -0.2063 -0.4131  0.0185
 3793G1HFO Tail44899  17.077  14.838  17.564  0.2483  0.3033 -0.3492
 3793G1HFO Tail44900  17.154  14.897  17.912 -0.0439  0.0233 -0.1994
 3793G1HFO Tail44901  17.024  14.899  18.195  0.0727  0.2875 -0.4758
 3793G1HFO Tail44902  16.755  15.136  18.450  0.1072 -0.1222  0.4984
 3793G1HFO Tail44903  16.850  15.107  17.514 -0.1948 -0.2772 -0.2492
 3793G1HFO Tail44904  16.595  15.051  17.491  0.0658  0.2588 -0.3274
 3793G1HFO Tail44905  16.530  14.801  17.517 -0.2600 -0.1429  0.1715
 3793G1HFO Tail44906  16.412  14.578  17.516  0.0683 -0.0731 -0.2273
 3793G1HFO Tail44907  16.294  14.388  17.587 -0.0982 -0.2682 -0.2632
 3794G1HFO Head44908  21.438  14.852  18.913 -0.1682  0.1695  0.1002
 3794G1HFO Head44909  21.202  14.740  19.055  0.0005  0.3524  0.0836
 3794G1HFO Head44910  21.094  15.034  19.374  0.1027  0.2561 -0.2264
 3794G1HFO Head44911  20.875  14.948  19.158 -0.0756  0.3653 -0.0808
 3794G1HFO link44912  20.954  14.791  18.972  0.0717  0.1537  0.0915
 3794G1HFO link44913  20.853  14.817  18.714  0.1318 -0.0541  0.3111
 3794G1HFO Tail44914  20.696  15.072  18.580  0.3023 -0.2869  0.1001
 3794G1HFO Tail44915  20.404  14.924  18.458 -0.0785  0.2981  0.1707
 3794G1HFO Tail44916  20.095  14.983  18.461  0.3485  0.0072 -0.2689
 3794G1HFO Tail44917  19.733  14.941  18.215 -0.2875  0.2406  0.3766
 3794G1HFO Tail44918  20.552  15.163  18.877 -0.1544 -0.1812  0.2448
 3794G1HFO Tail44919  20.581  15.410  18.969  0.1718  0.0961  0.1028
 3794G1HFO Tail44920  20.809  15.460  19.077  0.1688  0.1558  0.1644
 3794G1HFO Tail44921  21.022  15.470  19.208  0.2483 -0.0535 -0.2827
 3794G1HFO Tail44922  21.177  15.503  19.377  0.4312  0.1028  0.2070
 3795G1HFO Head44923  20.292  16.725  20.381 -0.2301  0.2087 -0.1289
 3795G1HFO Head44924  20.149  16.971  20.476  0.2725 -0.0444 -0.1586
 3795G1HFO Head44925  20.575  17.286  20.295 -0.1605 -0.0851 -0.2773
 3795G1HFO Head44926  20.276  17.362  20.299 -0.2043  0.2482  0.0968
 3795G1HFO link44927  20.096  17.166  20.286  0.3299  0.0990  0.3451
 3795G1HFO link44928  19.854  17.194  20.120  0.0466  0.1292  0.0346
 3795G1HFO Tail44929  19.812  16.964  19.890  0.3978  0.0674  0.1009
 3795G1HFO Tail44930  19.821  16.662  20.072 -0.0776 -0.2392  0.2167
 3795G1HFO Tail44931  20.012  16.415  20.145  0.2024 -0.0070 -0.1331
 3795G1HFO Tail44932  20.365  16.209  20.022  0.0486  0.3952  0.0262
 3795G1HFO Tail44933  19.480  17.035  19.791 -0.1533  0.0185  0.0082
 3795G1HFO Tail44934  19.299  17.074  19.976  0.1760 -0.1329 -0.2811
 3795G1HFO Tail44935  19.053  16.995  19.916  0.0777 -0.1117  0.0150
 3795G1HFO Tail44936  18.816  16.909  19.901 -0.1634 -0.1098 -0.0256
 3795G1HFO Tail44937  18.585  16.878  19.914  0.0671 -0.0601  0.2720
 3796G1HFO Head44938  15.419  14.048  19.534 -0.2629  0.3129 -0.1582
 3796G1HFO Head44939  15.457  14.110  19.835  0.4028  0.0278 -0.4982
 3796G1HFO Head44940  14.936  14.129  19.793  0.0484 -0.1236  0.1527
 3796G1HFO Head44941  15.119  14.381  19.912 -0.1098  0.3241 -0.2365
 3796G1HFO link44942  15.363  14.337  19.958  0.2294 -0.2064 -0.4428
 3796G1HFO link44943  15.547  14.541  20.047  0.3217 -0.6095 -0.1860
 3796G1HFO Tail44944  15.452  14.848  20.118  0.2107  0.0312  0.1021
 3796G1HFO Tail44945  15.708  15.030  19.961  0.3323 -0.0562  0.1711
 3796G1HFO Tail44946  16.026  15.028  19.977  0.0186 -0.1442  0.1269
 3796G1HFO Tail44947  16.331  14.857  20.222 -0.3280  0.0003 -0.1258
 3796G1HFO Tail44948  15.193  14.862  19.884 -0.0590 -0.2195 -0.2589
 3796G1HFO Tail44949  15.182  15.046  19.685  0.0467 -0.1087 -0.1064
 3796G1HFO Tail44950  15.394  15.111  19.567  0.0926  0.1975 -0.3489
 3796G1HFO Tail44951  15.604  15.167  19.443  0.0516  0.0131  0.0459
 3796G1HFO Tail44952  15.814  15.176  19.346 -0.0504  0.2367  0.0846
 3797G1HFO Head44953  20.414  18.884  19.054 -0.1505  0.0788 -0.1129
 3797G1HFO Head44954  20.594  18.884  19.311  0.1550  0.0593 -0.0394
 3797G1HFO Head44955  20.437  19.094  19.827  0.1301 -0.3026 -0.1633
 3797G1HFO Head44956  20.629  18.896  19.698 -0.1481 -0.3592  0.0249
 3797G1HFO link44957  20.519  18.741  19.523  0.2612 -0.1714  0.4762
 3797G1HFO link44958  20.280  18.585  19.557 -0.1466 -0.2994  0.0319
 3797G1HFO Tail44959  19.977  18.717  19.487 -0.2135 -0.1601 -0.0434
 3797G1HFO Tail44960  20.105  19.033  19.451  0.1461  0.0463 -0.2384
 3797G1HFO Tail44961  20.120  19.280  19.258 -0.4744  0.1894  0.2012
 3797G1HFO Tail44962  20.365  19.419  18.923 -0.0188 -0.0985 -0.3329
 3797G1HFO Tail44963  19.981  18.615  19.161 -0.1267 -0.1367  0.4313
 3797G1HFO Tail44964  20.172  18.460  19.054  0.4543 -0.0462 -0.1818
 3797G1HFO Tail44965  20.128  18.213  19.021  0.0954  0.0777  0.0507
 3797G1HFO Tail44966  20.133  17.960  19.013  0.0358  0.0031  0.0326
 3797G1HFO Tail44967  20.078  17.725  19.009 -0.1000  0.0925 -0.2358
 3798G1HFO Head44968  20.348  19.540  18.409 -0.2581 -0.1819  0.0402
 3798G1HFO Head44969  20.098  19.491  18.586 -0.0953  0.4807 -0.0091
 3798G1HFO Head44970  20.324  19.991  18.616 -0.3374  0.0017 -0.1908
 3798G1HFO Head44971  20.062  19.853  18.754  0.0587 -0.4179  0.2688
 3798G1HFO link44972  19.920  19.684  18.602 -0.3843 -0.1440 -0.0902
 3798G1HFO link44973  19.642  19.666  18.579 -0.0771  0.0743 -0.1669
 3798G1HFO Tail44974  19.476  19.393  18.678 -0.3810 -0.2229 -0.1953
 3798G1HFO Tail44975  19.379  19.287  18.361  0.3824 -0.1951 -0.1061
 3798G1HFO Tail44976  19.077  19.259  18.257 -0.1783  0.1959  0.5827
 3798G1HFO Tail44977  18.809  19.451  17.969 -0.2248  0.0967 -0.2628
 3798G1HFO Tail44978  19.738  19.187  18.730 -0.2176 -0.3667 -0.1748
 3798G1HFO Tail44979  19.834  19.163  18.976 -0.1908 -0.1699 -0.0304
 3798G1HFO Tail44980  19.698  19.042  19.150 -0.1943  0.3469 -0.1320
 3798G1HFO Tail44981  19.561  18.929  19.334 -0.0276 -0.1099 -0.1722
 3798G1HFO Tail44982  19.380  18.865  19.476 -0.0846 -0.3128  0.1911
 3799G1HFO Head44983  16.813  16.866  22.820  0.1829  0.3150  0.0772
 3799G1HFO Head44984  17.069  16.670  22.809 -0.1114  0.5745 -0.1353
 3799G1HFO Head44985  17.635  16.358  22.652  0.2389  0.0258  0.2705
 3799G1HFO Head44986  17.493  16.561  22.814 -0.0282  0.3696  0.0446
 3799G1HFO link44987  17.311  16.721  22.694  0.0589  0.2128 -0.0241
 3799G1HFO link44988  17.350  16.856  22.440 -0.1611  0.3369 -0.0360
 3799G1HFO Tail44989  17.287  16.718  22.143 -0.3959  0.0465  0.0853
 3799G1HFO Tail44990  17.373  16.958  21.907 -0.0410  0.1595 -0.2511
 3799G1HFO Tail44991  17.198  17.149  21.724 -0.1890 -0.2732 -0.2143
 3799G1HFO Tail44992  16.939  17.502  21.750  0.2662  0.2853  0.1346
 3799G1HFO Tail44993  17.570  16.505  22.154 -0.2595 -0.3241  0.1693
 3799G1HFO Tail44994  17.792  16.556  22.015  0.3681  0.1225 -0.2320
 3799G1HFO Tail44995  17.822  16.796  21.928 -0.0583  0.2525 -0.1765
 3799G1HFO Tail44996  17.854  17.040  21.864  0.1278  0.0998 -0.0847
 3799G1HFO Tail44997  17.844  17.250  21.760 -0.1887  0.1499 -0.1566
 3800G1HFO Head44998  19.278  20.187  16.749 -0.2633 -0.3821  0.0388
 3800G1HFO Head44999  19.115  19.967  16.893  0.3725  0.3788  0.2085
 3800G1HFO Head45000  18.803  20.372  16.778  0.0421  0.0410  0.1153
 3800G1HFO Head45001  18.815  20.104  16.645 -0.1833  0.1323 -0.1241
 3800G1HFO link45002  18.879  19.892  16.791  0.2985 -0.3697  1.0956
 3800G1HFO link45003  18.829  19.627  16.688  0.4464 -0.1821 -0.2092
 3800G1HFO Tail45004  18.851  19.387  16.900 -0.3480  0.0159 -0.3177
 3800G1HFO Tail45005  19.062  19.548  17.135  0.0396 -0.0512 -0.1501
 3800G1HFO Tail45006  19.228  19.431  17.391  0.0657 -0.1731 -0.0007
 3800G1HFO Tail45007  19.185  19.179  17.720 -0.5701  0.0653 -0.1205
 3800G1HFO Tail45008  18.544  19.450  17.063 -0.4226  0.0059  0.0864
 3800G1HFO Tail45009  18.401  19.245  17.167 -0.2232  0.0097  0.0519
 3800G1HFO Tail45010  18.388  19.015  17.039 -0.0367 -0.0537 -0.2682
 3800G1HFO Tail45011  18.375  18.808  16.886  0.0726 -0.2547  0.1129
 3800G1HFO Tail45012  18.319  18.605  16.792  0.0717  0.1431  0.1373
 3801G1HFO Head45013  19.604  17.925  17.524  0.1826 -0.5399 -0.4188
 3801G1HFO Head45014  19.528  17.663  17.358 -0.0412 -0.4927  0.3000
 3801G1HFO Head45015  19.479  17.180  17.515 -0.2818  0.2105 -0.0079
 3801G1HFO Head45016  19.717  17.309  17.336  0.1871  0.3057  0.1558
 3801G1HFO link45017  19.717  17.557  17.231  0.1251  0.1442 -0.1987
 3801G1HFO link45018  19.749  17.597  16.953 -0.2730 -0.4336  0.3135
 3801G1HFO Tail45019  19.631  17.866  16.800 -0.0665 -0.4268  0.1211
 3801G1HFO Tail45020  19.427  18.012  17.019 -0.1765  0.0915  0.1663
 3801G1HFO Tail45021  19.122  18.095  17.076  0.5716 -0.3552 -0.0425
 3801G1HFO Tail45022  18.786  18.190  16.831  0.0203  0.2772 -0.0343
 3801G1HFO Tail45023  19.899  18.084  16.839 -0.0760  0.1693 -0.1280
 3801G1HFO Tail45024  20.139  17.986  16.786  0.2350  0.3055  0.1405
 3801G1HFO Tail45025  20.259  17.784  16.887  0.1248  0.0604  0.1883
 3801G1HFO Tail45026  20.361  17.595  17.013 -0.1588  0.0835 -0.0789
 3801G1HFO Tail45027  20.471  17.392  17.086 -0.0222 -0.0777  0.0175
 3802G1HFO Head45028  19.766  20.042  19.090  0.1186  0.1978 -0.2972
 3802G1HFO Head45029  19.427  20.063  19.128  0.1343  0.5500 -0.1572
 3802G1HFO Head45030  19.187  20.126  19.559  0.3079 -0.1659 -0.2955
 3802G1HFO Head45031  19.100  19.934  19.360 -0.0791 -0.1875 -0.5514
 3802G1HFO link45032  19.290  19.854  19.187 -0.0278  0.3071  0.4612
 3802G1HFO link45033  19.301  19.593  19.088  0.1222 -0.5938 -0.0718
 3802G1HFO Tail45034  19.285  19.319  19.271 -0.0683  0.1402 -0.0692
 3802G1HFO Tail45035  19.003  19.403  19.451 -0.0010  0.0910 -0.2425
 3802G1HFO Tail45036  18.759  19.597  19.426  0.1512 -0.1277 -0.1395
 3802G1HFO Tail45037  18.577  19.970  19.520  0.0263  0.0554  0.3301
 3802G1HFO Tail45038  19.157  19.120  19.013  0.3801 -0.0057  0.0469
 3802G1HFO Tail45039  19.318  18.983  18.852 -0.0155 -0.0583 -0.3166
 3802G1HFO Tail45040  19.213  18.897  18.629 -0.1667 -0.3998 -0.0120
 3802G1HFO Tail45041  19.149  18.820  18.400  0.0011  0.3525  0.0348
 3802G1HFO Tail45042  19.103  18.820  18.176 -0.0109  0.1622  0.1212
 3803G1HFO Head45043  20.238  19.472  17.076 -0.0618 -0.0346 -0.1089
 3803G1HFO Head45044  20.225  19.321  17.380 -0.0377  0.0986 -0.3453
 3803G1HFO Head45045  20.363  19.003  16.936 -0.6414  0.0499  0.0435
 3803G1HFO Head45046  20.480  19.064  17.217 -0.4544 -0.0754 -0.0374
 3803G1HFO link45047  20.327  19.083  17.415  0.3668 -0.4934  0.4988
 3803G1HFO link45048  20.341  18.926  17.645  0.0427  0.1122  0.0056
 3803G1HFO Tail45049  20.109  18.925  17.875  0.3549 -0.6561  0.3357
 3803G1HFO Tail45050  19.862  18.757  17.700 -0.2701  0.0367 -0.2748
 3803G1HFO Tail45051  19.555  18.774  17.638  0.1722  0.4134 -0.0895
 3803G1HFO Tail45052  19.278  18.860  17.311  0.3814 -0.1615 -0.2102
 3803G1HFO Tail45053  20.200  18.715  18.101 -0.0339 -0.1106  0.1170
 3803G1HFO Tail45054  20.102  18.700  18.347 -0.1864 -0.1765  0.2081
 3803G1HFO Tail45055  20.268  18.619  18.538  0.1561 -0.1905 -0.0699
 3803G1HFO Tail45056  20.435  18.512  18.687  0.1956  0.2514 -0.2746
 3803G1HFO Tail45057  20.578  18.371  18.807 -0.0706  0.2438 -0.0522
 3804G1HFO Head45058  16.698  14.798  16.583  0.1587  0.2674 -0.3259
 3804G1HFO Head45059  16.590  15.077  16.637 -0.2099 -0.3174  0.0202
 3804G1HFO Head45060  16.419  15.016  16.178 -0.1274  0.0733 -0.2421
 3804G1HFO Head45061  16.637  15.239  16.240 -0.3576  0.0434 -0.2479
 3804G1HFO link45062  16.712  15.274  16.491 -0.0694 -0.0344 -0.1004
 3804G1HFO link45063  16.769  15.533  16.597  0.1573 -0.4985 -0.2699
 3804G1HFO Tail45064  16.768  15.792  16.389 -0.1470  0.1248  0.1295
 3804G1HFO Tail45065  17.085  15.906  16.420 -0.1062  0.2227 -0.2911
 3804G1HFO Tail45066  17.321  15.904  16.648 -0.2653 -0.0963  0.0853
 3804G1HFO Tail45067  17.765  15.867  16.707  0.2671  0.1770 -0.2463
 3804G1HFO Tail45068  16.786  15.618  16.081  0.0360  0.1586  0.0846
 3804G1HFO Tail45069  16.978  15.440  16.058 -0.0676 -0.0246  0.0266
 3804G1HFO Tail45070  17.176  15.444  16.232  0.3257 -0.2663  0.0486
 3804G1HFO Tail45071  17.354  15.411  16.403  0.0572 -0.1966 -0.0716
 3804G1HFO Tail45072  17.494  15.338  16.582 -0.1737 -0.5365  0.0015
 3805G1HFO Head45073  18.331  20.576  17.010  0.3215  0.2663  0.1530
 3805G1HFO Head45074  18.340  20.276  17.107 -0.0582  0.1984 -0.3562
 3805G1HFO Head45075  17.883  19.908  17.217  0.2175 -0.0693  0.0214
 3805G1HFO Head45076  17.998  20.077  16.975  0.0322  0.0780 -0.5300
 3805G1HFO link45077  18.246  20.072  16.950  0.2123  0.1155 -0.5106
 3805G1HFO link45078  18.405  19.890  16.801  0.2123  0.1390 -0.1044
 3805G1HFO Tail45079  18.289  19.725  16.538  0.2126 -0.1301 -0.1688
 3805G1HFO Tail45080  18.368  19.389  16.623 -0.1358  0.2963 -0.1235
 3805G1HFO Tail45081  18.651  19.198  16.603  0.1343 -0.0091  0.2528
 3805G1HFO Tail45082  18.938  18.980  16.855  0.2557 -0.0184 -0.1658
 3805G1HFO Tail45083  17.946  19.769  16.577 -0.2303  0.6521 -0.4037
 3805G1HFO Tail45084  17.770  19.574  16.538 -0.0812  0.1141  0.2227
 3805G1HFO Tail45085  17.832  19.333  16.617  0.0808 -0.1105  0.3230
 3805G1HFO Tail45086  17.875  19.117  16.740 -0.1471  0.0107  0.0408
 3805G1HFO Tail45087  17.954  18.934  16.885 -0.3371 -0.4786 -0.1894
 3806G1HFO Head45088  21.327  15.916  19.315 -0.2280  0.2303 -0.0127
 3806G1HFO Head45089  21.340  15.781  19.035  0.0041  0.2308  0.2216
 3806G1HFO Head45090  21.180  15.259  18.786 -0.2245 -0.1084 -0.2142
 3806G1HFO Head45091  21.201  15.560  18.697 -0.4628 -0.3042 -0.2232
 3806G1HFO link45092  21.123  15.759  18.883  0.0539 -0.2074 -0.3736
 3806G1HFO link45093  20.901  15.943  18.905 -0.0334 -0.2814 -0.0371
 3806G1HFO Tail45094  20.890  16.206  18.714  0.2934  0.1670 -0.1140
 3806G1HFO Tail45095  20.576  16.343  18.787  0.0549  0.4376 -0.1929
 3806G1HFO Tail45096  20.343  16.511  18.629 -0.0736 -0.1603  0.0724
 3806G1HFO Tail45097  19.978  16.735  18.682  0.1388  0.0017  0.0483
 3806G1HFO Tail45098  21.109  16.415  18.869  0.1019  0.1514 -0.2086
 3806G1HFO Tail45099  21.104  16.664  18.801  0.3190  0.5495 -0.0735
 3806G1HFO Tail45100  20.904  16.750  18.654 -0.0175  0.0707 -0.3180
 3806G1HFO Tail45101  20.704  16.790  18.510  0.2170 -0.1639  0.1494
 3806G1HFO Tail45102  20.551  16.803  18.328  0.0871  0.0824 -0.2627
 3807G1HFO Head45103  17.844  17.967  17.347  0.1025 -0.0970  0.0392
 3807G1HFO Head45104  17.942  18.183  17.135 -0.1664  0.0277  0.1943
 3807G1HFO Head45105  18.326  18.068  17.471  0.2810 -0.1058  0.3324
 3807G1HFO Head45106  18.302  18.299  17.313 -0.4879  0.0313  0.0855
 3807G1HFO link45107  18.088  18.386  17.191 -0.0391  0.3201 -0.4743
 3807G1HFO link45108  17.985  18.645  17.201  0.2562 -0.1942  0.1681
 3807G1HFO Tail45109  17.884  18.773  17.489  0.0456 -0.2499 -0.1286
 3807G1HFO Tail45110  18.128  19.021  17.487 -0.2710 -0.1250  0.3789
 3807G1HFO Tail45111  18.445  19.026  17.548  0.1559  0.3512 -0.0086
 3807G1HFO Tail45112  18.812  19.134  17.351  0.2237 -0.1324  0.0135
 3807G1HFO Tail45113  17.623  18.971  17.379 -0.0643  0.3944 -0.4838
 3807G1HFO Tail45114  17.572  19.052  17.127  0.1648 -0.1293 -0.0622
 3807G1HFO Tail45115  17.564  19.305  17.090 -0.2249 -0.0999  0.1728
 3807G1HFO Tail45116  17.565  19.549  17.012 -0.0296 -0.0364 -0.0964
 3807G1HFO Tail45117  17.615  19.762  16.928  0.2437  0.0303  0.0747
 3808G1HFO Head45118  17.412  17.731  20.432 -0.0230  0.1465  0.0933
 3808G1HFO Head45119  17.231  17.795  20.668  0.1466 -0.2009 -0.1170
 3808G1HFO Head45120  16.872  18.228  20.192 -0.1940  0.1246  0.1963
 3808G1HFO Head45121  16.964  17.960  20.393 -0.3070  0.2538 -0.0958
 3808G1HFO link45122  17.069  18.002  20.630 -0.1328 -0.2515  0.0261
 3808G1HFO link45123  17.086  18.264  20.741 -0.3252  0.1727 -0.1031
 3808G1HFO Tail45124  17.180  18.358  21.046 -0.3610 -0.0939  0.0735
 3808G1HFO Tail45125  17.424  18.135  21.127  0.1005  0.1683 -0.1398
 3808G1HFO Tail45126  17.573  18.085  21.391 -0.3590  0.0570  0.7038
 3808G1HFO Tail45127  17.942  18.210  21.590 -0.0758  0.2868  0.2681
 3808G1HFO Tail45128  17.388  18.628  20.954  0.2633 -0.2125  0.3422
 3808G1HFO Tail45129  17.368  18.879  21.046  0.0370  0.0716 -0.0034
 3808G1HFO Tail45130  17.214  19.047  20.905 -0.2916 -0.0446  0.0711
 3808G1HFO Tail45131  17.062  19.206  20.777  0.1002 -0.0416  0.2984
 3808G1HFO Tail45132  16.965  19.393  20.680 -0.0755 -0.0809 -0.0148
 3809G1HFO Head45133  15.675  18.597  15.937  0.0421 -0.2900 -0.0204
 3809G1HFO Head45134  15.751  18.751  16.213 -0.1342  0.1994  0.0804
 3809G1HFO Head45135  15.172  19.032  16.033 -0.0285 -0.0425  0.1382
 3809G1HFO Head45136  15.330  18.776  16.161  0.0188  0.0065  0.0350
 3809G1HFO link45137  15.525  18.823  16.343  0.0274 -0.2566 -0.2102
 3809G1HFO link45138  15.518  18.997  16.570  0.1045 -0.0377  0.0937
 3809G1HFO Tail45139  15.766  19.198  16.661  0.3551  0.2827  0.1971
 3809G1HFO Tail45140  16.046  19.017  16.557  0.3413 -0.1649  0.1645
 3809G1HFO Tail45141  16.166  18.889  16.287 -0.0467  0.1428  0.2447
 3809G1HFO Tail45142  16.124  18.848  15.843  0.1788  0.2720  0.0729
 3809G1HFO Tail45143  15.780  19.394  16.384 -0.1398  0.2380 -0.0069
 3809G1HFO Tail45144  15.548  19.463  16.271  0.0062 -0.1754 -0.1657
 3809G1HFO Tail45145  15.338  19.450  16.416 -0.0870 -0.2508  0.0714
 3809G1HFO Tail45146  15.132  19.398  16.551 -0.0696 -0.1659  0.1696
 3809G1HFO Tail45147  14.954  19.278  16.648 -0.1322 -0.1056 -0.0201
 3810G1HFO Head45148  16.960  18.182  22.872  0.0641 -0.2482  0.0483
 3810G1HFO Head45149  16.847  18.348  22.622  0.3793 -0.3593 -0.0869
 3810G1HFO Head45150  16.149  18.579  22.619  0.1942  0.2010  0.0570
 3810G1HFO Head45151  16.466  18.554  22.580  0.1815  0.0590  0.0571
 3810G1HFO link45152  16.586  18.330  22.578 -0.0255  0.0570  0.0234
 3810G1HFO link45153  16.452  18.097  22.478 -0.1980 -0.1846  0.2527
 3810G1HFO Tail45154  16.607  17.860  22.328 -0.1412 -0.0087 -0.3475
 3810G1HFO Tail45155  16.774  18.066  22.083  0.2124 -0.0713  0.1343
 3810G1HFO Tail45156  17.022  18.081  21.871  0.0113  0.3949 -0.0424
 3810G1HFO Tail45157  17.100  17.959  21.452  0.1162 -0.0125 -0.3018
 3810G1HFO Tail45158  16.883  17.806  22.561 -0.0584  0.3356 -0.3337
 3810G1HFO Tail45159  17.016  17.589  22.569  0.0680  0.2295  0.0989
 3810G1HFO Tail45160  17.001  17.431  22.366  0.1452  0.3219  0.0038
 3810G1HFO Tail45161  16.978  17.234  22.205  0.0646 -0.0103  0.1499
 3810G1HFO Tail45162  16.911  17.089  22.036 -0.0655 -0.1314  0.0568
 3811G1HFO Head45163  14.035  15.513  21.096  0.0859 -0.1345 -0.0411
 3811G1HFO Head45164  14.304  15.579  21.064 -0.2642  0.3183  0.1520
 3811G1HFO Head45165  14.600  14.914  21.152  0.0464 -0.2138 -0.3301
 3811G1HFO Head45166  14.540  15.262  21.167 -0.2069 -0.2035  0.2345
 3811G1HFO link45167  14.453  15.391  20.961 -0.2035 -0.2440 -0.4603
 3811G1HFO link45168  14.397  15.275  20.704 -0.1774 -0.2185 -0.0356
 3811G1HFO Tail45169  14.629  15.153  20.494 -0.0148  0.1299  0.2086
 3811G1HFO Tail45170  14.523  14.838  20.436 -0.1024  0.1000  0.0283
 3811G1HFO Tail45171  14.427  14.667  20.186  0.0150  0.2781  0.0889
 3811G1HFO Tail45172  14.601  14.532  19.817  0.1554  0.1481  0.2693
 3811G1HFO Tail45173  14.572  15.321  20.200 -0.1222  0.2633  0.3120
 3811G1HFO Tail45174  14.418  15.529  20.177  0.1211 -0.1688 -0.3506
 3811G1HFO Tail45175  14.337  15.646  20.403  0.0700 -0.1810 -0.0570
 3811G1HFO Tail45176  14.299  15.746  20.632  0.0653 -0.0713 -0.0185
 3811G1HFO Tail45177  14.256  15.901  20.804 -0.2414 -0.0308 -0.2549
 3812G1HFO Head45178  21.499  17.806  19.922  0.0692 -0.0680 -0.1253
 3812G1HFO Head45179  21.530  17.705  19.608  0.0869 -0.1388  0.0066
 3812G1HFO Head45180  21.914  18.146  19.411  0.5533 -0.0087  0.0992
 3812G1HFO Head45181  21.556  18.096  19.446  0.0376 -0.1898 -0.2177
 3812G1HFO link45182  21.454  17.858  19.423  0.0129 -0.2308  0.3971
 3812G1HFO link45183  21.329  17.788  19.176  0.1049 -0.0590 -0.0750
 3812G1HFO Tail45184  21.355  17.480  19.038 -0.2046  0.2845 -0.1928
 3812G1HFO Tail45185  21.192  17.299  19.272  0.1665  0.3832 -0.3943
 3812G1HFO Tail45186  20.918  17.237  19.385 -0.0508 -0.2758  0.2758
 3812G1HFO Tail45187  20.622  17.363  19.666 -0.2080 -0.0116 -0.0907
 3812G1HFO Tail45188  21.104  17.484  18.785 -0.3390  0.1083  0.2030
 3812G1HFO Tail45189  20.980  17.708  18.743  0.0549 -0.1497  0.1028
 3812G1HFO Tail45190  21.112  17.903  18.625 -0.2136 -0.0274 -0.3049
 3812G1HFO Tail45191  21.235  18.111  18.538  0.1893 -0.2188  0.0219
 3812G1HFO Tail45192  21.297  18.296  18.403  0.1286  0.3339  0.3095
 3813G1HFO Head45193  21.662  14.918  18.192  0.0211 -0.4017 -0.1922
 3813G1HFO Head45194  21.562  15.149  18.370 -0.1318  0.5558 -0.0988
 3813G1HFO Head45195  21.311  14.740  18.469 -0.0112 -0.0740 -0.0096
 3813G1HFO Head45196  21.172  15.005  18.373  0.2794  0.0746  0.2522
 3813G1HFO link45197  21.310  15.215  18.350  0.3309  0.2393  0.3191
 3813G1HFO link45198  21.217  15.424  18.188 -0.3535 -0.3832 -0.0033
 3813G1HFO Tail45199  20.896  15.471  18.179  0.1951 -0.3705 -0.1046
 3813G1HFO Tail45200  20.792  15.161  18.097 -0.0584 -0.0852  0.0428
 3813G1HFO Tail45201  20.517  15.028  17.965  0.0881  0.0960  0.1171
 3813G1HFO Tail45202  20.220  14.713  18.076 -0.0565  0.2168  0.2529
 3813G1HFO Tail45203  20.811  15.475  18.514  0.4526 -0.2817 -0.1012
 3813G1HFO Tail45204  20.643  15.640  18.625 -0.2890 -0.2474  0.0833
 3813G1HFO Tail45205  20.450  15.749  18.478 -0.3301 -0.0372  0.1223
 3813G1HFO Tail45206  20.244  15.816  18.345  0.5068 -0.0114 -0.1293
 3813G1HFO Tail45207  20.063  15.832  18.185 -0.1428  0.2005  0.0493
 3814G1HFO Head45208  13.476  15.061  17.869 -0.5281 -0.0744 -0.0868
 3814G1HFO Head45209  13.736  15.093  18.098 -0.1829 -0.1192  0.0133
 3814G1HFO Head45210  13.292  15.581  18.441 -0.0076 -0.1220  0.1086
 3814G1HFO Head45211  13.479  15.295  18.366  0.1305 -0.0068  0.0619
 3814G1HFO link45212  13.708  15.298  18.266  0.0551  0.2022 -0.2686
 3814G1HFO link45213  13.884  15.512  18.264  0.1224  0.0652  0.3953
 3814G1HFO Tail45214  13.969  15.688  18.003  0.0141  0.0237  0.0307
 3814G1HFO Tail45215  13.959  16.014  18.149  0.0052 -0.1893 -0.0301
 3814G1HFO Tail45216  14.130  16.282  18.143 -0.1174 -0.3847 -0.2535
 3814G1HFO Tail45217  14.187  16.678  18.323  0.0245 -0.2987  0.1634
 3814G1HFO Tail45218  14.311  15.625  18.017  0.1697 -0.1714 -0.0229
 3814G1HFO Tail45219  14.473  15.832  18.064  0.2407  0.0519  0.4985
 3814G1HFO Tail45220  14.621  15.914  17.866  0.1046  0.2590 -0.1763
 3814G1HFO Tail45221  14.752  16.028  17.679  0.0737  0.0851 -0.1838
 3814G1HFO Tail45222  14.891  16.071  17.498 -0.5229 -0.4613 -0.2208
 3815G1HFO Head45223  15.426  18.063  21.936 -0.2999  0.1059 -0.1520
 3815G1HFO Head45224  15.507  18.096  21.651 -0.2353 -0.1622 -0.0168
 3815G1HFO Head45225  15.763  18.366  22.115  0.3156  0.2253 -0.0231
 3815G1HFO Head45226  15.861  18.160  21.840  0.1274 -0.1336  0.3564
 3815G1HFO link45227  15.754  18.190  21.607  0.3531 -0.1443 -0.1434
 3815G1HFO link45228  15.863  18.331  21.378 -0.2873  0.2563  0.3645
 3815G1HFO Tail45229  16.194  18.353  21.310 -0.6970  0.0467 -0.3620
 3815G1HFO Tail45230  16.214  18.669  21.154 -0.1140 -0.1619  0.0085
 3815G1HFO Tail45231  16.407  18.777  20.921 -0.0070 -0.0230 -0.0068
 3815G1HFO Tail45232  16.806  18.724  20.777  0.1442  0.1909  0.1161
 3815G1HFO Tail45233  16.305  18.406  21.631 -0.0232  0.0023 -0.0749
 3815G1HFO Tail45234  16.425  18.210  21.764 -0.2546  0.3455  0.2888
 3815G1HFO Tail45235  16.501  18.019  21.608  0.0181 -0.3014  0.0038
 3815G1HFO Tail45236  16.615  17.851  21.447  0.2019 -0.1213 -0.0793
 3815G1HFO Tail45237  16.764  17.694  21.353 -0.3134  0.1685  0.1250
 3816G1HFO Head45238  18.032  16.344  16.481  0.1228 -0.1935 -0.2201
 3816G1HFO Head45239  18.315  16.513  16.439  0.0943  0.2880 -0.1914
 3816G1HFO Head45240  18.680  16.611  16.731  0.3422 -0.2682 -0.2359
 3816G1HFO Head45241  18.473  16.836  16.613 -0.2454 -0.0719  0.1604
 3816G1HFO link45242  18.319  16.775  16.401 -0.7134 -0.2966 -0.1639
 3816G1HFO link45243  18.085  16.908  16.311 -0.0938  0.0909  0.0370
 3816G1HFO Tail45244  18.066  17.223  16.241  0.0894  0.1701  0.0756
 3816G1HFO Tail45245  18.391  17.335  16.334 -0.2061 -0.0693 -0.0972
 3816G1HFO Tail45246  18.503  17.604  16.467 -0.4129  0.2896 -0.1023
 3816G1HFO Tail45247  18.383  17.972  16.644 -0.0620  0.2677  0.5588
 3816G1HFO Tail45248  18.140  17.210  15.897 -0.0418 -0.3044 -0.2431
 3816G1HFO Tail45249  18.374  17.121  15.811  0.0125 -0.1440 -0.1379
 3816G1HFO Tail45250  18.526  17.009  15.996 -0.0341 -0.2860  0.1441
 3816G1HFO Tail45251  18.661  16.941  16.204  0.0647 -0.2238  0.1497
 3816G1HFO Tail45252  18.815  16.883  16.361 -0.1178  0.0854  0.2524
 3817G1HFO Head45253  13.524  15.727  18.823  0.2738  0.0334  0.0060
 3817G1HFO Head45254  13.850  15.722  18.801 -0.0836  0.0722  0.1749
 3817G1HFO Head45255  13.799  16.214  19.258  0.0230 -0.0303 -0.2977
 3817G1HFO Head45256  13.810  15.904  19.193  0.0117 -0.1296  0.1457
 3817G1HFO link45257  13.965  15.839  18.993  0.2195 -0.0706 -0.2767
 3817G1HFO link45258  14.244  15.870  18.990  0.0633  0.2466 -0.4067
 3817G1HFO Tail45259  14.431  16.131  18.891 -0.0848  0.0154  0.4343
 3817G1HFO Tail45260  14.597  16.226  19.175 -0.0067 -0.0460  0.1083
 3817G1HFO Tail45261  14.866  16.368  19.311 -0.0552 -0.2007  0.0893
 3817G1HFO Tail45262  15.306  16.388  19.316 -0.2477  0.2923 -0.4638
 3817G1HFO Tail45263  14.694  15.969  18.705 -0.1135  0.2356  0.0001
 3817G1HFO Tail45264  14.692  15.956  18.431  0.2342 -0.2158 -0.1020
 3817G1HFO Tail45265  14.637  16.176  18.296 -0.0078 -0.0767 -0.2143
 3817G1HFO Tail45266  14.619  16.399  18.175  0.0990 -0.2963 -0.3328
 3817G1HFO Tail45267  14.615  16.579  18.024  0.0548  0.2598  0.2945
 3818G1HFO Head45268  19.274  13.495  18.481  0.0144 -0.0261 -0.1242
 3818G1HFO Head45269  19.252  13.729  18.276 -0.1045  0.0678  0.2802
 3818G1HFO Head45270  19.611  13.509  18.056  0.0629  0.0184 -0.1647
 3818G1HFO Head45271  19.647  13.829  18.171  0.2786  0.1918 -0.0490
 3818G1HFO link45272  19.438  13.926  18.283 -0.2706  0.0388  0.0844
 3818G1HFO link45273  19.353  14.199  18.316 -0.2046  0.3841 -0.0130
 3818G1HFO Tail45274  19.189  14.301  18.596  0.1975  0.0494  0.0963
 3818G1HFO Tail45275  18.960  14.525  18.488 -0.0748  0.4599  0.1234
 3818G1HFO Tail45276  18.649  14.529  18.480 -0.0803  0.0809 -0.3445
 3818G1HFO Tail45277  18.337  14.772  18.657 -0.2767 -0.0698  0.1967
 3818G1HFO Tail45278  18.960  14.036  18.626 -0.2906 -0.1509  0.0692
 3818G1HFO Tail45279  19.027  13.815  18.742 -0.1552  0.2074  0.1332
 3818G1HFO Tail45280  18.917  13.754  18.967 -0.1848  0.0915 -0.0329
 3818G1HFO Tail45281  18.777  13.733  19.182  0.1315 -0.3581  0.0214
 3818G1HFO Tail45282  18.652  13.789  19.375  0.0278 -0.1743  0.2675
 3819G1HFO Head45283  16.069  14.522  21.596 -0.1041  0.0020  0.0313
 3819G1HFO Head45284  16.046  14.664  21.324 -0.4732  0.4066  0.0756
 3819G1HFO Head45285  15.545  14.796  21.489  0.4267 -0.1160 -0.0662
 3819G1HFO Head45286  15.670  14.809  21.240  0.0019  0.1277  0.2707
 3819G1HFO link45287  15.849  14.633  21.178  0.0593  0.3743 -0.1027
 3819G1HFO link45288  15.842  14.439  20.968 -0.1605  0.0850 -0.0027
 3819G1HFO Tail45289  15.777  14.516  20.652  0.1805  0.0187 -0.0040
 3819G1HFO Tail45290  15.760  14.219  20.501  0.3895 -0.0210  0.0577
 3819G1HFO Tail45291  15.754  14.135  20.193  0.0077 -0.1369 -0.0822
 3819G1HFO Tail45292  16.006  13.965  19.887 -0.1459  0.1184  0.0179
 3819G1HFO Tail45293  15.443  14.552  20.624  0.0228  0.2211 -0.0204
 3819G1HFO Tail45294  15.331  14.780  20.664  0.1768  0.0249 -0.0079
 3819G1HFO Tail45295  15.451  14.967  20.818 -0.1940 -0.0573 -0.0087
 3819G1HFO Tail45296  15.526  15.167  20.957 -0.0399  0.0328 -0.2321
 3819G1HFO Tail45297  15.647  15.353  21.036  0.0354  0.0024  0.0976
 3820G1HFO Head45298  20.172  19.965  17.253  0.2046 -0.0067  0.2673
 3820G1HFO Head45299  19.958  19.732  17.410  0.3164 -0.0294  0.2227
 3820G1HFO Head45300  20.390  19.905  17.771 -0.3438 -0.1717 -0.0303
 3820G1HFO Head45301  20.094  19.828  17.778 -0.3556  0.2325  0.2689
 3820G1HFO link45302  20.036  19.633  17.641 -0.1860  0.2350 -0.4637
 3820G1HFO link45303  19.945  19.388  17.756  0.0703 -0.1337  0.3342
 3820G1HFO Tail45304  19.622  19.326  17.802  0.0817  0.2830 -0.1602
 3820G1HFO Tail45305  19.575  19.218  17.469 -0.1374  0.0555  0.1754
 3820G1HFO Tail45306  19.692  19.334  17.206 -0.2391  0.0884 -0.0152
 3820G1HFO Tail45307  19.604  19.592  16.878 -0.3412 -0.1755 -0.1087
 3820G1HFO Tail45308  19.626  19.034  17.991 -0.1470 -0.0286 -0.3201
 3820G1HFO Tail45309  19.741  18.990  18.217 -0.0471  0.1260 -0.2145
 3820G1HFO Tail45310  19.662  18.768  18.343 -0.1368 -0.2288  0.2979
 3820G1HFO Tail45311  19.554  18.554  18.422  0.0309 -0.1205 -0.0152
 3820G1HFO Tail45312  19.502  18.330  18.467 -0.0086  0.0981 -0.1501
 3821G1HFO Head45313  20.261  14.257  19.257  0.0971  0.0065  0.2580
 3821G1HFO Head45314  20.138  14.533  19.195 -0.0869 -0.3418  0.1517
 3821G1HFO Head45315  20.292  14.240  18.764 -0.3893 -0.1177 -0.0493
 3821G1HFO Head45316  20.377  14.507  18.852  0.3270 -0.3399  0.2271
 3821G1HFO link45317  20.207  14.650  18.983 -0.2191 -0.2913  0.2137
 3821G1HFO link45318  20.156  14.917  18.900 -0.0374  0.3589  0.1503
 3821G1HFO Tail45319  19.928  15.107  19.070 -0.1951  0.4128  0.2354
 3821G1HFO Tail45320  19.696  15.110  18.824  0.3802 -0.0271 -0.2523
 3821G1HFO Tail45321  19.675  15.244  18.551 -0.3857  0.4950  0.0604
 3821G1HFO Tail45322  19.940  15.408  18.257  0.0178  0.1842 -0.0786
 3821G1HFO Tail45323  19.832  14.852  19.283 -0.1838  0.2795 -0.1945
 3821G1HFO Tail45324  19.848  14.856  19.551  0.1078 -0.1105  0.1671
 3821G1HFO Tail45325  19.911  15.086  19.654 -0.1338 -0.0786  0.1411
 3821G1HFO Tail45326  19.948  15.299  19.789 -0.2300 -0.1646 -0.1609
 3821G1HFO Tail45327  20.047  15.473  19.920  0.0282 -0.0259 -0.0914
 3822G1HFO Head45328  19.554  20.604  18.458  0.1925  0.1523 -0.0566
 3822G1HFO Head45329  19.297  20.381  18.421 -0.1357 -0.0792 -0.5371
 3822G1HFO Head45330  19.751  20.180  18.591  0.1162 -0.1534 -0.2652
 3822G1HFO Head45331  19.605  20.095  18.344 -0.0711 -0.3702 -0.4177
 3822G1HFO link45332  19.344  20.125  18.349 -0.4692  0.2217 -0.1036
 3822G1HFO link45333  19.148  19.958  18.236  0.1935 -0.0960 -0.0523
 3822G1HFO Tail45334  19.203  19.668  18.094 -0.0787 -0.0135 -0.0433
 3822G1HFO Tail45335  19.136  19.727  17.767 -0.3442 -0.2173 -0.0485
 3822G1HFO Tail45336  18.901  19.590  17.579  0.1984 -0.3431 -0.0901
 3822G1HFO Tail45337  18.475  19.540  17.591 -0.3396  0.0263 -0.0876
 3822G1HFO Tail45338  19.551  19.660  18.096  0.2019  0.1060  0.1561
 3822G1HFO Tail45339  19.714  19.739  17.899 -0.1944  0.0323 -0.3141
 3822G1HFO Tail45340  19.609  19.748  17.657 -0.0694 -0.1499 -0.1222
 3822G1HFO Tail45341  19.531  19.736  17.417  0.1194  0.2427 -0.0730
 3822G1HFO Tail45342  19.407  19.772  17.221  0.2264 -0.1494 -0.3690
 3823G1HFO Head45343  14.051  19.703  19.169 -0.0738  0.1629 -0.0758
 3823G1HFO Head45344  13.984  19.382  19.125 -0.1338  0.1489  0.1619
 3823G1HFO Head45345  13.524  19.727  19.019 -0.1514  0.0910  0.0418
 3823G1HFO Head45346  13.689  19.542  18.842  0.3625 -0.1878 -0.2734
 3823G1HFO link45347  13.801  19.341  18.912 -0.3540  0.2847 -0.0612
 3823G1HFO link45348  13.840  19.105  18.737 -0.2713 -0.2623  0.6616
 3823G1HFO Tail45349  14.085  18.880  18.774  0.1806  0.2169  0.0544
 3823G1HFO Tail45350  14.232  18.886  18.475 -0.1121  0.3329  0.2494
 3823G1HFO Tail45351  14.292  18.707  18.222 -0.1661  0.4415  0.3101
 3823G1HFO Tail45352  14.206  18.315  18.029  0.0719 -0.3405  0.0135
 3823G1HFO Tail45353  14.304  19.067  18.968 -0.4323  0.1967  0.0336
 3823G1HFO Tail45354  14.560  18.980  18.988  0.0322  0.0220  0.3240
 3823G1HFO Tail45355  14.632  18.842  18.788 -0.0134 -0.0725  0.1181
 3823G1HFO Tail45356  14.699  18.703  18.582 -0.0319 -0.1649 -0.0436
 3823G1HFO Tail45357  14.705  18.585  18.376 -0.0083 -0.2394 -0.0799
 3824G1HFO Head45358  17.733  18.333  18.085 -0.2884  0.1115 -0.0148
 3824G1HFO Head45359  17.911  18.553  17.916  0.8296 -0.4642  0.0529
 3824G1HFO Head45360  18.176  18.340  18.325 -0.0700  0.0480 -0.0843
 3824G1HFO Head45361  18.224  18.534  18.162 -0.1253  0.0257  0.1194
 3824G1HFO link45362  18.051  18.710  18.061 -0.1992  0.1187  0.1278
 3824G1HFO link45363  18.118  18.972  17.987  0.0594  0.1078  0.6762
 3824G1HFO Tail45364  17.903  19.234  18.005  0.2912  0.1882  0.3062
 3824G1HFO Tail45365  17.933  19.328  18.331  0.2571  0.0762  0.0997
 3824G1HFO Tail45366  17.864  19.274  18.621  0.0620  0.0862 -0.1131
 3824G1HFO Tail45367  17.563  19.248  18.952 -0.1813 -0.1828  0.1012
 3824G1HFO Tail45368  18.060  19.504  17.863  0.0797 -0.0846  0.1876
 3824G1HFO Tail45369  17.961  19.698  17.724 -0.0693  0.3163  0.3006
 3824G1HFO Tail45370  18.118  19.884  17.659 -0.0076  0.1372 -0.0316
 3824G1HFO Tail45371  18.254  20.090  17.596 -0.3104  0.0437  0.2914
 3824G1HFO Tail45372  18.417  20.267  17.595  0.1976  0.2506 -0.0709
 3825G1HFO Head45373  16.271  19.578  18.472 -0.3978 -0.1012  0.3551
 3825G1HFO Head45374  16.218  19.472  18.179  0.1058  0.0473  0.2067
 3825G1HFO Head45375  16.465  18.779  18.132 -0.0268 -0.0768  0.3215
 3825G1HFO Head45376  16.284  19.040  18.163 -0.0749  0.1103  0.0266
 3825G1HFO link45377  16.376  19.277  18.067  0.1373  0.3823  0.0946
 3825G1HFO link45378  16.654  19.320  17.987 -0.0909 -0.1474  0.0157
 3825G1HFO Tail45379  16.782  19.238  17.690  0.4018 -0.0650 -0.2427
 3825G1HFO Tail45380  16.563  19.010  17.597  0.2553 -0.3316 -0.2387
 3825G1HFO Tail45381  16.350  19.030  17.391  0.1556  0.2677  0.2876
 3825G1HFO Tail45382  16.252  19.275  17.048  0.0816  0.1860  0.0804
 3825G1HFO Tail45383  16.683  19.486  17.458  0.3665  0.1028 -0.2713
 3825G1HFO Tail45384  16.549  19.705  17.545  0.1378 -0.2232 -0.2354
 3825G1HFO Tail45385  16.668  19.885  17.684  0.1575  0.1030  0.1795
 3825G1HFO Tail45386  16.761  20.040  17.855 -0.1393  0.0382 -0.1199
 3825G1HFO Tail45387  16.883  20.142  18.026  0.2085  0.1991 -0.3782
 3826G1HFO Head45388  16.329  19.366  21.941  0.1989  0.3499  0.2903
 3826G1HFO Head45389  16.073  19.192  21.970 -0.1639  0.1656 -0.1173
 3826G1HFO Head45390  15.618  19.263  22.353  0.1019 -0.4817  0.4281
 3826G1HFO Head45391  15.639  19.224  22.035 -0.0665 -0.1753  0.2290
 3826G1HFO link45392  15.847  19.261  21.881  0.0868 -0.5526  0.1502
 3826G1HFO link45393  15.803  19.245  21.596 -0.2446  0.1157 -0.3203
 3826G1HFO Tail45394  15.562  19.409  21.450 -0.2136  0.2139 -0.1832
 3826G1HFO Tail45395  15.649  19.727  21.585 -0.2486 -0.1274 -0.3352
 3826G1HFO Tail45396  15.759  20.001  21.503  0.1230 -0.3438 -0.5751
 3826G1HFO Tail45397  16.119  20.175  21.321  0.0652 -0.0727  0.0195
 3826G1HFO Tail45398  15.680  19.436  21.132  0.3067  0.0034 -0.0241
 3826G1HFO Tail45399  15.626  19.659  20.987  0.1355 -0.0501  0.1394
 3826G1HFO Tail45400  15.518  19.861  21.097 -0.2063 -0.1491  0.1138
 3826G1HFO Tail45401  15.446  20.068  21.227  0.0476 -0.0559 -0.0405
 3826G1HFO Tail45402  15.334  20.209  21.381  0.5164  0.3148 -0.0734
 3827G1HFO Head45403  19.624  19.349  20.495 -0.1931  0.1926  0.1559
 3827G1HFO Head45404  19.626  19.031  20.558 -0.1428  0.0629 -0.2603
 3827G1HFO Head45405  19.918  19.258  20.860  0.1836 -0.0936  0.0024
 3827G1HFO Head45406  20.017  19.053  20.702  0.5170 -0.2004 -0.0089
 3827G1HFO link45407  19.869  18.937  20.522  0.0734 -0.1123 -0.0419
 3827G1HFO link45408  19.944  18.680  20.426  0.1812  0.0003  0.0406
 3827G1HFO Tail45409  19.809  18.418  20.537 -0.6027  0.2481  0.3047
 3827G1HFO Tail45410  19.484  18.549  20.593 -0.1246  0.0795 -0.0220
 3827G1HFO Tail45411  19.335  18.670  20.854  0.1295 -0.0061 -0.0155
 3827G1HFO Tail45412  18.951  18.713  21.045  0.2806 -0.3796  0.0392
 3827G1HFO Tail45413  19.780  18.179  20.282 -0.4616  0.2087 -0.0516
 3827G1HFO Tail45414  19.757  18.242  20.027  0.0307  0.3704 -0.1392
 3827G1HFO Tail45415  19.537  18.167  19.903  0.0296 -0.0187 -0.0862
 3827G1HFO Tail45416  19.303  18.090  19.821 -0.3904  0.3718 -0.0749
 3827G1HFO Tail45417  19.081  18.006  19.813  0.2553  0.1817 -0.0708
 3828G1HFO Head45418  16.518  13.767  17.561  0.4880  0.0249 -0.0946
 3828G1HFO Head45419  16.546  14.024  17.647 -0.2389  0.3854  0.2948
 3828G1HFO Head45420  16.380  13.646  18.000  0.0271  0.0537  0.0373
 3828G1HFO Head45421  16.562  13.851  18.051  0.0961 -0.2885  0.4373
 3828G1HFO link45422  16.546  14.080  17.915  0.2088 -0.2590  0.0580
 3828G1HFO link45423  16.435  14.322  18.018  0.1224 -0.4738  0.1059
 3828G1HFO Tail45424  16.613  14.603  18.039 -0.3512  0.4851  0.0139
 3828G1HFO Tail45425  16.797  14.534  18.296 -0.4888  0.1989 -0.3423
 3828G1HFO Tail45426  16.776  14.420  18.588 -0.1127 -0.4027 -0.0732
 3828G1HFO Tail45427  16.981  14.177  18.889 -0.2482  0.0688  0.0078
 3828G1HFO Tail45428  16.865  14.515  17.807 -0.0555 -0.0559 -0.3268
 3828G1HFO Tail45429  16.817  14.409  17.568  0.1840 -0.2130 -0.0674
 3828G1HFO Tail45430  16.992  14.447  17.384  0.2425 -0.1187 -0.0347
 3828G1HFO Tail45431  17.184  14.512  17.238 -0.2887 -0.3382  0.0702
 3828G1HFO Tail45432  17.406  14.551  17.147  0.0367  0.1890 -0.1800
 3829G1HFO Head45433  19.050  17.725  15.616  0.2100  0.1754  0.1760
 3829G1HFO Head45434  19.369  17.637  15.549  0.1062 -0.1393  0.0406
 3829G1HFO Head45435  19.619  17.300  15.303  0.0456  0.2362 -0.1398
 3829G1HFO Head45436  19.733  17.425  15.550 -0.2679 -0.0297  0.1442
 3829G1HFO link45437  19.574  17.583  15.701 -0.4780 -0.2402  0.2198
 3829G1HFO link45438  19.625  17.692  15.952  0.2363  0.2248  0.0281
 3829G1HFO Tail45439  19.640  18.017  15.975 -0.0901  0.3538 -0.1984
 3829G1HFO Tail45440  19.293  18.097  16.042  0.2790 -0.0204  0.1398
 3829G1HFO Tail45441  19.006  17.945  16.006 -0.0227 -0.1950  0.5627
 3829G1HFO Tail45442  18.607  17.919  16.176 -0.2891 -0.0551  0.2032
 3829G1HFO Tail45443  19.765  18.069  16.297 -0.5416  0.1302  0.0508
 3829G1HFO Tail45444  20.023  18.094  16.345  0.1865 -0.2710  0.1016
 3829G1HFO Tail45445  20.086  18.306  16.475 -0.0420 -0.1177  0.1783
 3829G1HFO Tail45446  20.169  18.479  16.639  0.3840  0.2673  0.3310
 3829G1HFO Tail45447  20.212  18.607  16.829 -0.1399  0.0486  0.1692
 3830G1HFO Head45448  17.585  21.005  21.305  0.1203  0.0422 -0.2212
 3830G1HFO Head45449  17.509  20.698  21.148 -0.1770  0.0431 -0.0221
 3830G1HFO Head45450  17.683  20.288  21.573 -0.2239 -0.0093 -0.0506
 3830G1HFO Head45451  17.799  20.478  21.361 -0.0552  0.1369  0.2787
 3830G1HFO link45452  17.693  20.515  21.116  0.1367 -0.2128 -0.2716
 3830G1HFO link45453  17.838  20.459  20.869 -0.1629 -0.1429  0.1501
 3830G1HFO Tail45454  17.675  20.254  20.660  0.0340  0.1470  0.3084
 3830G1HFO Tail45455  17.868  20.286  20.383 -0.0968  0.2453 -0.2057
 3830G1HFO Tail45456  17.838  20.310  20.052 -0.0206  0.4178 -0.2527
 3830G1HFO Tail45457  17.943  20.096  19.692 -0.3024 -0.0030  0.1234
 3830G1HFO Tail45458  17.826  19.956  20.794  0.1266 -0.4940  0.3511
 3830G1HFO Tail45459  17.675  19.750  20.851  0.1061 -0.2607 -0.1825
 3830G1HFO Tail45460  17.461  19.693  20.703 -0.0988  0.0710  0.0490
 3830G1HFO Tail45461  17.287  19.653  20.524 -0.2320  0.1122 -0.0229
 3830G1HFO Tail45462  17.119  19.676  20.365 -0.3120 -0.3016 -0.3267
 3831G1HFO Head45463  16.253  16.763  15.238  0.2893 -0.2913 -0.1424
 3831G1HFO Head45464  16.534  16.781  15.399 -0.2178 -0.1680 -0.0603
 3831G1HFO Head45465  16.227  17.274  15.624 -0.2512 -0.0774  0.0862
 3831G1HFO Head45466  16.473  17.087  15.632 -0.2788  0.5563 -0.1514
 3831G1HFO link45467  16.654  17.018  15.458 -0.2972  0.0957 -0.2025
 3831G1HFO link45468  16.936  17.066  15.490  0.1352  0.2328  0.0474
 3831G1HFO Tail45469  17.049  17.223  15.761 -0.0160 -0.1937  0.5576
 3831G1HFO Tail45470  16.856  17.103  16.008 -0.5089  0.1326  0.2001
 3831G1HFO Tail45471  16.847  17.180  16.310 -0.2954  0.1744 -0.1909
 3831G1HFO Tail45472  16.970  17.475  16.603  0.0635 -0.2130 -0.2262
 3831G1HFO Tail45473  17.343  17.041  15.802  0.1084  0.0906  0.2534
 3831G1HFO Tail45474  17.457  16.885  15.624 -0.1968 -0.2280  0.0332
 3831G1HFO Tail45475  17.430  16.626  15.648 -0.1101  0.3025 -0.2076
 3831G1HFO Tail45476  17.382  16.379  15.644  0.0084 -0.0889  0.0048
 3831G1HFO Tail45477  17.398  16.143  15.611  0.0507  0.2328 -0.1787
 3832G1HFO Head45478  15.485  16.200  18.604  0.1394  0.0079 -0.1207
 3832G1HFO Head45479  15.646  15.954  18.596 -0.0851  0.2449  0.2699
 3832G1HFO Head45480  15.767  15.966  18.032  0.0275 -0.0261  0.3132
 3832G1HFO Head45481  15.551  15.854  18.198  0.0781  0.0745 -0.1771
 3832G1HFO link45482  15.589  15.762  18.446 -0.2883  0.4770 -0.5459
 3832G1HFO link45483  15.672  15.493  18.527  0.0957  0.3040  0.2568
 3832G1HFO Tail45484  15.594  15.205  18.397  0.0416  0.0653  0.0834
 3832G1HFO Tail45485  15.856  15.002  18.526 -0.0370  0.0080  0.0020
 3832G1HFO Tail45486  16.001  14.903  18.784  0.0604  0.0838 -0.0882
 3832G1HFO Tail45487  16.291  15.065  19.059  0.1989 -0.1971 -0.0346
 3832G1HFO Tail45488  15.310  15.109  18.589 -0.0042 -0.0224  0.2859
 3832G1HFO Tail45489  15.111  15.037  18.436  0.2206 -0.3254 -0.0649
 3832G1HFO Tail45490  15.122  14.933  18.197 -0.1528  0.0650 -0.0533
 3832G1HFO Tail45491  15.097  14.845  17.962 -0.1206 -0.1199 -0.0687
 3832G1HFO Tail45492  15.073  14.705  17.775  0.0595 -0.0901  0.2056
 3833G1HFO Head45493  13.303  18.847  19.371  0.1662 -0.2234 -0.0570
 3833G1HFO Head45494  13.131  18.767  19.095 -0.3104  0.0652  0.4557
 3833G1HFO Head45495  12.780  18.837  18.777  0.0390 -0.2084 -0.0813
 3833G1HFO Head45496  13.075  18.695  18.696 -0.1768 -0.2146  0.2161
 3833G1HFO link45497  13.247  18.644  18.910 -0.0099 -0.0153  0.0872
 3833G1HFO link45498  13.536  18.666  18.885  0.0608 -0.2341  0.1588
 3833G1HFO Tail45499  13.678  18.715  18.588  0.3020  0.0873  0.3177
 3833G1HFO Tail45500  13.885  18.447  18.602  0.0886 -0.2045 -0.1168
 3833G1HFO Tail45501  14.187  18.425  18.487 -0.0798  0.2047 -0.0762
 3833G1HFO Tail45502  14.477  18.109  18.407  0.1112 -0.1601  0.2122
 3833G1HFO Tail45503  13.416  18.579  18.381  0.0544 -0.0428  0.0982
 3833G1HFO Tail45504  13.418  18.353  18.247 -0.0170 -0.4382 -0.1735
 3833G1HFO Tail45505  13.598  18.186  18.320  0.0950  0.0824 -0.0664
 3833G1HFO Tail45506  13.806  18.063  18.387  0.2449  0.2434  0.0993
 3833G1HFO Tail45507  14.015  17.960  18.398  0.1441  0.1289 -0.1420
 3834G1HFO Head45508  14.169  16.052  16.975 -0.0457  0.0089 -0.4784
 3834G1HFO Head45509  14.266  16.344  16.905 -0.3685  0.7603 -0.1505
 3834G1HFO Head45510  14.419  16.854  16.786  0.0903 -0.4148 -0.2222
 3834G1HFO Head45511  14.509  16.591  16.671  0.2137 -0.0907  0.1856
 3834G1HFO link45512  14.508  16.364  16.800 -0.0014 -0.0953 -0.3436
 3834G1HFO link45513  14.667  16.144  16.721 -0.5320 -0.2077 -0.0736
 3834G1HFO Tail45514  14.569  15.835  16.742  0.3050  0.6226  0.1692
 3834G1HFO Tail45515  14.860  15.674  16.661 -0.3259  0.1953  0.3647
 3834G1HFO Tail45516  15.137  15.676  16.815 -0.4353  0.4112 -0.0629
 3834G1HFO Tail45517  15.368  15.393  17.081  0.0869 -0.2970  0.1516
 3834G1HFO Tail45518  14.592  15.808  17.104 -0.0998  0.2025  0.0513
 3834G1HFO Tail45519  14.505  15.988  17.276  0.0670  0.0317  0.1174
 3834G1HFO Tail45520  14.563  16.238  17.220  0.0520  0.0651 -0.1473
 3834G1HFO Tail45521  14.648  16.463  17.148  0.0115  0.1165  0.1434
 3834G1HFO Tail45522  14.736  16.681  17.149 -0.0203  0.2856  0.2692
 3835G1HFO Head45523  20.907  16.976  16.869  0.2980  0.2759 -0.0961
 3835G1HFO Head45524  21.212  16.967  16.792 -0.3281  0.2677 -0.2231
 3835G1HFO Head45525  21.818  16.958  17.179  0.0770  0.0990 -0.0451
 3835G1HFO Head45526  21.586  16.978  16.935 -0.3570  0.2103  0.1680
 3835G1HFO link45527  21.381  17.155  16.929 -0.2752  0.3981  0.1804
 3835G1HFO link45528  21.299  17.278  17.167 -0.2478  0.0097  0.0796
 3835G1HFO Tail45529  21.230  17.109  17.440 -0.2681 -0.3109 -0.2875
 3835G1HFO Tail45530  20.955  16.946  17.349  0.1203  0.0073 -0.0648
 3835G1HFO Tail45531  20.711  16.834  17.531 -0.1444 -0.0059 -0.1674
 3835G1HFO Tail45532  20.640  16.500  17.810  0.1409  0.1801 -0.1104
 3835G1HFO Tail45533  21.450  16.836  17.460 -0.0101  0.0224 -0.1681
 3835G1HFO Tail45534  21.476  16.671  17.258  0.3827  0.1302  0.1682
 3835G1HFO Tail45535  21.257  16.606  17.114  0.0354  0.1441  0.2436
 3835G1HFO Tail45536  21.072  16.511  16.963  0.1268  0.0084  0.0384
 3835G1HFO Tail45537  20.933  16.366  16.838  0.0777 -0.1684 -0.0379
 3836G1HFO Head45538  18.465  19.186  15.418  0.0236 -0.3031 -0.2212
 3836G1HFO Head45539  18.472  18.862  15.425 -0.2361  0.3220  0.2613
 3836G1HFO Head45540  18.495  19.040  15.930  0.2752  0.2223 -0.2571
 3836G1HFO Head45541  18.703  18.819  15.788 -0.1611 -0.2499  0.3867
 3836G1HFO link45542  18.643  18.709  15.552  0.0011  0.0175 -0.0293
 3836G1HFO link45543  18.768  18.468  15.449  0.2067 -0.3946 -0.1308
 3836G1HFO Tail45544  18.814  18.189  15.618  0.0519  0.0139  0.1261
 3836G1HFO Tail45545  18.730  18.303  15.939  0.0638 -0.0134 -0.0877
 3836G1HFO Tail45546  18.884  18.317  16.211 -0.5265 -0.1126 -0.3715
 3836G1HFO Tail45547  18.928  18.569  16.575 -0.0415 -0.2041  0.0739
 3836G1HFO Tail45548  18.497  18.030  15.529  0.0973 -0.1598  0.1384
 3836G1HFO Tail45549  18.488  17.765  15.538 -0.3126 -0.1768 -0.0783
 3836G1HFO Tail45550  18.586  17.642  15.740 -0.0427 -0.1765  0.2311
 3836G1HFO Tail45551  18.711  17.560  15.949 -0.0609  0.3719 -0.0060
 3836G1HFO Tail45552  18.828  17.433  16.105 -0.0807 -0.2790  0.2131
 3837G1HFO Head45553  17.736  18.368  17.576  0.4079 -0.2231 -0.0070
 3837G1HFO Head45554  17.966  18.179  17.724 -0.0328  0.1745  0.2878
 3837G1HFO Head45555  18.163  17.885  18.111 -0.1025  0.1155 -0.2212
 3837G1HFO Head45556  18.288  18.077  17.907 -0.3287 -0.0678  0.0020
 3837G1HFO link45557  18.176  18.287  17.833 -0.0218 -0.6618  0.1431
 3837G1HFO link45558  18.336  18.505  17.719 -0.0988  0.1060 -0.0256
 3837G1HFO Tail45559  18.658  18.453  17.652  0.4415 -0.3733 -0.0984
 3837G1HFO Tail45560  18.675  18.601  17.328 -0.0909  0.0066 -0.1489
 3837G1HFO Tail45561  18.875  18.546  17.087 -0.1861 -0.0531  0.2398
 3837G1HFO Tail45562  19.288  18.507  16.961 -0.1026  0.1039  0.1336
 3837G1HFO Tail45563  18.785  18.713  17.852 -0.0615  0.0567 -0.0577
 3837G1HFO Tail45564  18.607  18.887  17.948 -0.2644 -0.1832  0.0670
 3837G1HFO Tail45565  18.626  18.979  18.194  0.0480 -0.0860  0.2053
 3837G1HFO Tail45566  18.684  19.088  18.417  0.1568  0.1092 -0.1162
 3837G1HFO Tail45567  18.771  19.119  18.631 -0.1511 -0.0312 -0.3146
 3838G1HFO Head45568  18.374  16.507  19.214 -0.0506  0.5283 -0.1551
 3838G1HFO Head45569  18.466  16.687  19.467  0.5870  0.1781 -0.0992
 3838G1HFO Head45570  19.134  16.684  19.563  0.1866  0.1885 -0.0003
 3838G1HFO Head45571  18.896  16.658  19.370 -0.0129  0.2818  0.1573
 3838G1HFO link45572  18.692  16.810  19.425 -0.0271  0.0400  0.7056
 3838G1HFO link45573  18.704  17.101  19.433 -0.1566 -0.1196  0.1147
 3838G1HFO Tail45574  18.969  17.271  19.519 -0.2928  0.0566 -0.5509
 3838G1HFO Tail45575  19.200  17.179  19.253  0.0119 -0.0946  0.1041
 3838G1HFO Tail45576  19.445  16.970  19.279  0.6148  0.0881 -0.1140
 3838G1HFO Tail45577  19.864  16.895  19.185 -0.0887  0.2118  0.2125
 3838G1HFO Tail45578  18.869  17.585  19.455  0.1822 -0.3653 -0.0493
 3838G1HFO Tail45579  18.619  17.660  19.405  0.1833  0.1097 -0.1227
 3838G1HFO Tail45580  18.573  17.879  19.288  0.1015  0.0026 -0.1536
 3838G1HFO Tail45581  18.546  18.122  19.207  0.0950 -0.0206 -0.0973
 3838G1HFO Tail45582  18.490  18.350  19.194 -0.0368 -0.2435 -0.0343
 3839G1HFO Head45583  16.577  13.955  20.783  0.2904  0.0664  0.0803
 3839G1HFO Head45584  16.813  14.165  20.673 -0.1287 -0.0510  0.1261
 3839G1HFO Head45585  16.778  14.227  21.175  0.1091 -0.0822  0.0333
 3839G1HFO Head45586  16.689  14.435  20.964  0.0553  0.1284 -0.2064
 3839G1HFO link45587  16.776  14.412  20.713  0.2324  0.4070 -0.2440
 3839G1HFO link45588  16.725  14.592  20.507 -0.0049 -0.2760 -0.2228
 3839G1HFO Tail45589  16.806  14.902  20.561 -0.2492  0.1129  0.0223
 3839G1HFO Tail45590  16.827  15.019  20.238  0.1321  0.0271 -0.0517
 3839G1HFO Tail45591  16.791  14.935  19.939  0.0708  0.2782  0.0274
 3839G1HFO Tail45592  17.000  14.726  19.612 -0.0647 -0.1249 -0.0112
 3839G1HFO Tail45593  16.481  15.051  20.622 -0.0114 -0.0015 -0.0081
 3839G1HFO Tail45594  16.434  15.290  20.516 -0.2328  0.0613 -0.1329
 3839G1HFO Tail45595  16.204  15.314  20.417  0.1796 -0.0262 -0.2595
 3839G1HFO Tail45596  15.977  15.371  20.304 -0.1351 -0.1540 -0.1885
 3839G1HFO Tail45597  15.763  15.447  20.273  0.0012  0.0752 -0.1815
 3840G1HFO Head45598  13.269  18.322  19.229  0.1756 -0.3451  0.1907
 3840G1HFO Head45599  13.484  18.143  19.196  0.2510  0.1476  0.0226
 3840G1HFO Head45600  13.162  18.017  19.670  0.1010  0.0912  0.4353
 3840G1HFO Head45601  13.410  17.897  19.543 -0.1292 -0.0667 -0.0710
 3840G1HFO link45602  13.591  18.031  19.397 -0.2149 -0.1983 -0.3440
 3840G1HFO link45603  13.861  18.015  19.449 -0.2211  0.1143  0.1131
 3840G1HFO Tail45604  14.016  18.187  19.676 -0.2706  0.0335  0.0047
 3840G1HFO Tail45605  14.108  17.939  19.896  0.4223  0.4277 -0.0190
 3840G1HFO Tail45606  14.131  17.616  19.891 -0.0914 -0.1946 -0.0157
 3840G1HFO Tail45607  14.368  17.353  19.669 -0.0668 -0.3382 -0.0961
 3840G1HFO Tail45608  14.291  18.246  19.509  0.4146 -0.1175 -0.2777
 3840G1HFO Tail45609  14.321  18.449  19.335 -0.0966  0.0256 -0.3503
 3840G1HFO Tail45610  14.443  18.669  19.412 -0.1267 -0.1619  0.3509
 3840G1HFO Tail45611  14.566  18.895  19.436 -0.0269  0.0837 -0.1257
 3840G1HFO Tail45612  14.708  19.072  19.491  0.2971 -0.0485  0.1464
 3841G1HFO Head45613  17.819  20.469  17.119 -0.3007 -0.1713  0.6440
 3841G1HFO Head45614  17.783  20.580  16.829  0.2525 -0.4138 -0.2539
 3841G1HFO Head45615  17.184  20.772  16.471 -0.2064  0.0682 -0.2237
 3841G1HFO Head45616  17.466  20.756  16.632 -0.0205 -0.3621  0.1994
 3841G1HFO link45617  17.585  20.521  16.679  0.1251  0.5441  0.1190
 3841G1HFO link45618  17.502  20.251  16.641  0.1280 -0.0531 -0.2378
 3841G1HFO Tail45619  17.557  20.122  16.341 -0.0017 -0.1433 -0.0862
 3841G1HFO Tail45620  17.248  19.978  16.243 -0.4362  0.0582 -0.0097
 3841G1HFO Tail45621  17.042  19.729  16.207  0.1704  0.1672  0.1987
 3841G1HFO Tail45622  16.656  19.574  16.042  0.1299  0.4177 -0.0014
 3841G1HFO Tail45623  17.503  20.406  16.134 -0.1163  0.3468 -0.3108
 3841G1HFO Tail45624  17.658  20.457  15.915  0.4695  0.1581 -0.3193
 3841G1HFO Tail45625  17.798  20.272  15.796 -0.1389  0.0882 -0.0612
 3841G1HFO Tail45626  17.930  20.081  15.683 -0.0572 -0.2020 -0.0690
 3841G1HFO Tail45627  18.060  19.895  15.637 -0.1376  0.2902 -0.0008
 3842G1HFO Head45628  17.928  15.096  18.990  0.4182 -0.4072 -0.4400
 3842G1HFO Head45629  17.772  15.299  19.091  0.2380 -0.3364 -0.0994
 3842G1HFO Head45630  18.081  15.652  18.851 -0.3177 -0.1621  0.0973
 3842G1HFO Head45631  18.089  15.535  19.121  0.0709 -0.0771 -0.0596
 3842G1HFO link45632  17.867  15.483  19.241  0.0476 -0.9962 -0.2415
 3842G1HFO link45633  17.831  15.493  19.521 -0.3296  0.0390 -0.0145
 3842G1HFO Tail45634  17.528  15.447  19.644  0.0924 -0.1120  0.2413
 3842G1HFO Tail45635  17.476  15.179  19.436  0.0072  0.1370  0.0594
 3842G1HFO Tail45636  17.218  15.039  19.313  0.4659  0.3031 -0.0208
 3842G1HFO Tail45637  17.094  14.672  19.086  0.1344 -0.1192 -0.1768
 3842G1HFO Tail45638  17.616  15.258  19.929  0.2239  0.1877  0.1180
 3842G1HFO Tail45639  17.667  15.005  19.940  0.2384  0.6436  0.1576
 3842G1HFO Tail45640  17.611  14.843  19.743 -0.0698  0.0323 -0.1027
 3842G1HFO Tail45641  17.516  14.682  19.563  0.0629  0.1670 -0.0732
 3842G1HFO Tail45642  17.369  14.556  19.421 -0.1169  0.0608 -0.1291
 3843G1HFO Head45643  15.812  20.439  16.421  0.1594 -0.1660  0.1666
 3843G1HFO Head45644  16.018  20.323  16.674 -0.1995  0.0851 -0.2011
 3843G1HFO Head45645  15.708  19.918  16.403 -0.2068 -0.0099  0.1045
 3843G1HFO Head45646  15.837  19.942  16.666 -0.1171 -0.0920 -0.2181
 3843G1HFO link45647  16.034  20.076  16.720 -0.0804  0.4216 -0.1698
 3843G1HFO link45648  16.275  19.956  16.802 -0.0631 -0.4075 -0.5591
 3843G1HFO Tail45649  16.565  20.091  16.712  0.1257 -0.6811 -0.2006
 3843G1HFO Tail45650  16.662  19.851  16.481 -0.0541 -0.2199 -0.2555
 3843G1HFO Tail45651  16.773  19.574  16.542  0.0049 -0.3815  0.4708
 3843G1HFO Tail45652  16.933  19.216  16.350  0.0666 -0.1249 -0.1534
 3843G1HFO Tail45653  16.439  20.358  16.498  0.0051  0.3673  0.2618
 3843G1HFO Tail45654  16.299  20.305  16.284  0.1761  0.0110  0.2720
 3843G1HFO Tail45655  16.232  20.064  16.212 -0.0735  0.4192  0.0914
 3843G1HFO Tail45656  16.156  19.820  16.176  0.3535 -0.1065 -0.1705
 3843G1HFO Tail45657  16.077  19.613  16.083 -0.0935 -0.0081  0.0174
 3844G1HFO Head45658  21.231  15.007  16.934  0.2204  0.1559  0.2179
 3844G1HFO Head45659  21.107  15.206  16.762 -0.0089  0.0807 -0.1261
 3844G1HFO Head45660  21.536  15.612  17.077  0.0647 -0.2699  0.0075
 3844G1HFO Head45661  21.474  15.412  16.875  0.1607 -0.1126  0.0891
 3844G1HFO link45662  21.245  15.435  16.732  0.3824  0.5840 -0.1525
 3844G1HFO link45663  21.189  15.645  16.561 -0.1601 -0.0842  0.2008
 3844G1HFO Tail45664  21.047  15.925  16.646 -0.1509  0.0968  0.2166
 3844G1HFO Tail45665  20.885  15.794  16.944  0.0323 -0.1506  0.5250
 3844G1HFO Tail45666  20.716  15.963  17.165 -0.2744 -0.1422  0.0743
 3844G1HFO Tail45667  20.373  15.871  17.436  0.0958 -0.1667 -0.2988
 3844G1HFO Tail45668  21.332  16.089  16.782 -0.0010 -0.0346 -0.3531
 3844G1HFO Tail45669  21.404  16.072  17.025  0.0970 -0.2125  0.0177
 3844G1HFO Tail45670  21.226  16.052  17.216  0.0929  0.0204  0.0227
 3844G1HFO Tail45671  21.068  16.007  17.409 -0.0349 -0.0820 -0.0389
 3844G1HFO Tail45672  20.931  16.035  17.588  0.0024 -0.2787  0.0556
 3845G1HFO Head45673  14.235  17.377  17.186 -0.2156 -0.0319 -0.1605
 3845G1HFO Head45674  14.523  17.542  17.201  0.3827 -0.1039 -0.1405
 3845G1HFO Head45675  14.210  18.129  16.982  0.4620  0.0311 -0.4550
 3845G1HFO Head45676  14.273  17.855  17.100  0.6601  0.0326 -0.3353
 3845G1HFO link45677  14.507  17.810  17.262  0.4432 -0.4026 -0.2447
 3845G1HFO link45678  14.543  17.928  17.519 -0.0127  0.4001 -0.1125
 3845G1HFO Tail45679  14.456  18.242  17.578  0.3309 -0.0513  0.2489
 3845G1HFO Tail45680  14.509  18.411  17.272  0.3483  0.0672  0.1313
 3845G1HFO Tail45681  14.530  18.732  17.182  0.3243  0.2359 -0.1411
 3845G1HFO Tail45682  14.710  18.935  16.845 -0.0995 -0.2010  0.0171
 3845G1HFO Tail45683  14.120  18.209  17.518  0.3115 -0.2330  0.1349
 3845G1HFO Tail45684  14.010  18.000  17.424 -0.0612 -0.0037 -0.1802
 3845G1HFO Tail45685  14.082  17.767  17.515 -0.2360 -0.0188  0.2002
 3845G1HFO Tail45686  14.174  17.553  17.612  0.0769  0.0574 -0.0118
 3845G1HFO Tail45687  14.209  17.332  17.673 -0.6334  0.2282 -0.0318
 3846G1HFO Head45688  14.589  17.529  21.828  0.2186  0.2982 -0.0623
 3846G1HFO Head45689  14.601  17.569  21.514 -0.3442 -0.0423 -0.1885
 3846G1HFO Head45690  15.068  17.612  21.832  0.4092  0.0013  0.1670
 3846G1HFO Head45691  15.025  17.521  21.535  0.1959  0.1159  0.1361
 3846G1HFO link45692  14.823  17.665  21.408  0.0199  0.2758  0.4094
 3846G1HFO link45693  14.850  17.812  21.167  0.1196 -0.0368 -0.3322
 3846G1HFO Tail45694  15.111  17.796  20.958  0.2665  0.4396  0.0247
 3846G1HFO Tail45695  15.054  17.474  20.853 -0.1154  0.2436  0.1465
 3846G1HFO Tail45696  14.982  17.317  20.577  0.1802 -0.2274 -0.0506
 3846G1HFO Tail45697  15.027  16.917  20.387  0.0539 -0.0428  0.1462
 3846G1HFO Tail45698  15.003  17.931  20.676  0.1184  0.1246  0.2132
 3846G1HFO Tail45699  14.783  18.079  20.659  0.2725 -0.0593  0.0904
 3846G1HFO Tail45700  14.580  18.024  20.814  0.1322  0.1627  0.0555
 3846G1HFO Tail45701  14.370  17.938  20.934 -0.2591 -0.0506 -0.1133
 3846G1HFO Tail45702  14.156  17.916  21.055  0.0470  0.3065  0.0883
 3847G1HFO Head45703  18.451  17.675  22.599  0.1509 -0.0561  0.0881
 3847G1HFO Head45704  18.280  17.745  22.375 -0.0505  0.1455 -0.0528
 3847G1HFO Head45705  18.804  17.938  22.460 -0.1985 -0.1165 -0.3377
 3847G1HFO Head45706  18.646  17.855  22.208  0.3126  0.0979  0.0651
 3847G1HFO link45707  18.390  17.880  22.185 -0.0442 -0.2073  0.1811
 3847G1HFO link45708  18.237  17.979  21.951 -0.0798 -0.0051  0.2228
 3847G1HFO Tail45709  18.319  17.856  21.658  0.4857 -0.1083  0.1059
 3847G1HFO Tail45710  18.440  18.145  21.522  0.2738 -0.0679  0.2634
 3847G1HFO Tail45711  18.578  18.236  21.269 -0.0144 -0.1228  0.0738
 3847G1HFO Tail45712  18.508  18.450  20.890 -0.0864 -0.3952  0.2577
 3847G1HFO Tail45713  18.612  17.693  21.765 -0.0302  0.2586 -0.0247
 3847G1HFO Tail45714  18.823  17.827  21.809 -0.0650 -0.0861 -0.2653
 3847G1HFO Tail45715  18.792  18.085  21.811  0.2476 -0.0601 -0.1140
 3847G1HFO Tail45716  18.792  18.340  21.796 -0.0699 -0.1386 -0.2049
 3847G1HFO Tail45717  18.785  18.560  21.724  0.3585 -0.0555  0.1820
 3848G1HFO Head45718  15.514  15.612  16.511  0.2210 -0.3398 -0.1568
 3848G1HFO Head45719  15.416  15.827  16.301  0.0849 -0.3042  0.0396
 3848G1HFO Head45720  15.139  16.047  15.927  0.0593 -0.3337 -0.2371
 3848G1HFO Head45721  15.455  16.089  16.010  0.0488 -0.0948 -0.3877
 3848G1HFO link45722  15.581  15.903  16.122  0.0852  0.3529  0.0446
 3848G1HFO link45723  15.864  15.916  16.153 -0.1078 -0.2391 -0.2784
 3848G1HFO Tail45724  16.054  16.180  16.129  0.0028 -0.2253  0.1378
 3848G1HFO Tail45725  16.317  16.032  15.979  0.2262  0.1589 -0.1279
 3848G1HFO Tail45726  16.632  16.006  16.041  0.1814 -0.1595 -0.0642
 3848G1HFO Tail45727  17.004  16.181  15.901 -0.0801 -0.0927 -0.1176
 3848G1HFO Tail45728  15.867  16.356  15.879 -0.0600  0.1722 -0.1343
 3848G1HFO Tail45729  15.920  16.309  15.626 -0.0941  0.3383 -0.1070
 3848G1HFO Tail45730  16.161  16.285  15.544  0.1646  0.1611  0.3532
 3848G1HFO Tail45731  16.407  16.256  15.489  0.1067  0.2048  0.3374
 3848G1HFO Tail45732  16.625  16.176  15.472 -0.0494  0.2754  0.1124
 3849G1HFO Head45733  19.061  20.869  17.557  0.0165 -0.1553 -0.3455
 3849G1HFO Head45734  18.910  20.887  17.857  0.0076  0.1747  0.3124
 3849G1HFO Head45735  18.814  20.388  18.365  0.1966  0.2110 -0.0815
 3849G1HFO Head45736  18.780  20.667  18.217 -0.2101  0.1413  0.5531
 3849G1HFO link45737  18.813  20.662  17.961  0.1191  0.2180 -0.2263
 3849G1HFO link45738  18.777  20.419  17.811 -0.3989  0.3332  0.2105
 3849G1HFO Tail45739  18.919  20.138  17.877 -0.2660  0.4046  0.3419
 3849G1HFO Tail45740  18.674  19.921  17.799  0.1988  0.2024  0.0611
 3849G1HFO Tail45741  18.455  19.802  17.992 -0.0390  0.0711  0.4971
 3849G1HFO Tail45742  18.396  19.448  18.230 -0.2235 -0.2244  0.3158
 3849G1HFO Tail45743  19.092  20.158  17.565  0.1887  0.1617  0.1286
 3849G1HFO Tail45744  19.067  20.013  17.345  0.2760  0.1021  0.1415
 3849G1HFO Tail45745  18.818  19.939  17.301 -0.1997 -0.0294  0.3530
 3849G1HFO Tail45746  18.568  19.901  17.265 -0.0425 -0.0263 -0.1646
 3849G1HFO Tail45747  18.349  19.816  17.280  0.1210 -0.2217  0.1729
 3850G1HFO Head45748  18.371  14.093  16.921 -0.1707 -0.0380 -0.2591
 3850G1HFO Head45749  18.286  14.328  17.106  0.1203  0.5052 -0.1969
 3850G1HFO Head45750  18.550  13.963  17.415  0.2809 -0.1337 -0.0494
 3850G1HFO Head45751  18.644  14.191  17.292 -0.3281 -0.0763  0.2876
 3850G1HFO link45752  18.462  14.388  17.277  0.3146 -0.2291 -0.2569
 3850G1HFO link45753  18.521  14.674  17.314 -0.2618  0.3430 -0.1562
 3850G1HFO Tail45754  18.297  14.899  17.327 -0.1717 -0.2550 -0.2389
 3850G1HFO Tail45755  18.308  14.989  16.995 -0.0060  0.1992 -0.0245
 3850G1HFO Tail45756  18.383  15.234  16.821  0.1207 -0.0602 -0.0919
 3850G1HFO Tail45757  18.234  15.642  16.745  0.0750  0.1625  0.2617
 3850G1HFO Tail45758  18.019  14.676  17.302 -0.1321  0.0304 -0.0362
 3850G1HFO Tail45759  17.777  14.762  17.266 -0.2022 -0.0145  0.1433
 3850G1HFO Tail45760  17.713  14.842  17.031  0.0331  0.2421  0.1714
 3850G1HFO Tail45761  17.604  14.920  16.819  0.0581  0.1585  0.2758
 3850G1HFO Tail45762  17.503  14.921  16.606  0.1188  0.4141 -0.6446
 3851G1HFO Head45763  17.313  20.640  17.429  0.2560 -0.0450  0.0566
 3851G1HFO Head45764  17.286  20.570  17.116  0.1916  0.3459 -0.2210
 3851G1HFO Head45765  17.029  20.293  16.588 -0.2910 -0.4871  0.2756
 3851G1HFO Head45766  17.049  20.332  16.900  0.0478 -0.1346  0.3677
 3851G1HFO link45767  17.258  20.345  17.024  0.0433  0.6705 -0.5132
 3851G1HFO link45768  17.368  20.122  17.171 -0.2821  0.0685  0.0020
 3851G1HFO Tail45769  17.274  20.045  17.478  0.5255 -0.2761  0.2363
 3851G1HFO Tail45770  17.132  19.732  17.423 -0.1981  0.2216  0.1716
 3851G1HFO Tail45771  17.183  19.491  17.223  0.2311 -0.1634 -0.0830
 3851G1HFO Tail45772  17.042  19.291  16.852 -0.1302 -0.1637  0.1186
 3851G1HFO Tail45773  16.995  20.265  17.491 -0.1551 -0.1512 -0.2659
 3851G1HFO Tail45774  16.813  20.246  17.305 -0.1591  0.1868  0.1106
 3851G1HFO Tail45775  16.757  20.014  17.201 -0.0873  0.0131 -0.0885
 3851G1HFO Tail45776  16.725  19.800  17.068  0.0693 -0.0465  0.1777
 3851G1HFO Tail45777  16.648  19.627  16.930 -0.0005 -0.2356 -0.0935
 3852G1HFO Head45778  14.463  14.952  17.139 -0.1041  0.0478  0.2556
 3852G1HFO Head45779  14.188  15.099  17.103  0.1731  0.0929  0.2236
 3852G1HFO Head45780  14.341  15.473  16.614  0.0813  0.1537  0.0480
 3852G1HFO Head45781  14.377  15.419  16.938  0.3426 -0.0770 -0.0650
 3852G1HFO link45782  14.175  15.338  17.091 -0.0931  0.1608 -0.1043
 3852G1HFO link45783  14.034  15.510  17.264  0.7309 -0.2180  0.1515
 3852G1HFO Tail45784  14.114  15.575  17.569  0.0703 -0.1295  0.2325
 3852G1HFO Tail45785  14.459  15.550  17.552 -0.1355  0.1626  0.1723
 3852G1HFO Tail45786  14.668  15.359  17.413 -0.0814 -0.0596  0.1576
 3852G1HFO Tail45787  14.861  15.330  17.000  0.0586  0.0458  0.4273
 3852G1HFO Tail45788  14.078  15.937  17.587 -0.0338 -0.0015  0.2179
 3852G1HFO Tail45789  14.195  16.074  17.776 -0.4641  0.0477 -0.0877
 3852G1HFO Tail45790  14.333  16.287  17.709  0.1522  0.1549 -0.2257
 3852G1HFO Tail45791  14.506  16.471  17.643  0.3294  0.0568  0.1351
 3852G1HFO Tail45792  14.675  16.605  17.564  0.2352 -0.0239  0.1367
 3853G1HFO Head45793  15.174  19.360  21.056  0.1409 -0.0239 -0.0064
 3853G1HFO Head45794  15.390  19.196  20.871  0.3132 -0.5413  0.0263
 3853G1HFO Head45795  14.976  19.342  20.376  0.5442  0.1914 -0.1800
 3853G1HFO Head45796  15.091  19.269  20.599  0.2969 -0.0240 -0.0284
 3853G1HFO link45797  15.369  19.247  20.612  0.1341  0.2976  0.1248
 3853G1HFO link45798  15.538  19.430  20.469  0.1066 -0.1078 -0.0066
 3853G1HFO Tail45799  15.811  19.539  20.607 -0.0543 -0.0044  0.3818
 3853G1HFO Tail45800  15.920  19.265  20.781 -0.1743 -0.4690 -0.2406
 3853G1HFO Tail45801  16.097  19.008  20.734 -0.1191  0.2314 -0.1119
 3853G1HFO Tail45802  16.041  18.612  20.558  0.0576 -0.1249  0.2001
 3853G1HFO Tail45803  16.007  19.565  20.309  0.1006  0.2062  0.0881
 3853G1HFO Tail45804  15.958  19.420  20.094  0.0755 -0.0737 -0.3131
 3853G1HFO Tail45805  15.719  19.378  20.028 -0.0292  0.0671  0.1387
 3853G1HFO Tail45806  15.473  19.330  19.982  0.1661 -0.1045  0.0034
 3853G1HFO Tail45807  15.260  19.237  19.946 -0.0582 -0.1362  0.0193
 3854G1HFO Head45808  16.008  17.696  20.658 -0.1471 -0.1365 -0.2184
 3854G1HFO Head45809  15.921  17.856  20.896  0.0859 -0.4678 -0.1785
 3854G1HFO Head45810  15.910  17.309  20.901 -0.2019  0.0323 -0.0975
 3854G1HFO Head45811  15.866  17.517  21.125 -0.4362 -0.2352  0.2496
 3854G1HFO link45812  15.730  17.760  21.049 -0.3287  0.4418  0.1546
 3854G1HFO link45813  15.585  17.911  21.247 -0.0096  0.1786 -0.2292
 3854G1HFO Tail45814  15.380  17.751  21.441 -0.1100 -0.1650  0.2299
 3854G1HFO Tail45815  15.354  17.434  21.274 -0.1137 -0.1361 -0.2154
 3854G1HFO Tail45816  15.528  17.282  21.078  0.2093  0.0766 -0.1027
 3854G1HFO Tail45817  15.653  16.894  20.956 -0.2492  0.1871 -0.0246
 3854G1HFO Tail45818  15.594  17.620  21.670 -0.0649 -0.0727 -0.4220
 3854G1HFO Tail45819  15.842  17.733  21.721  0.3096  0.2026  0.0181
 3854G1HFO Tail45820  15.980  17.813  21.504  0.1586 -0.0656  0.0731
 3854G1HFO Tail45821  16.120  17.877  21.304  0.0904 -0.2677 -0.3207
 3854G1HFO Tail45822  16.304  17.961  21.175 -0.2598  0.0679 -0.0316
 3855G1HFO Head45823  15.721  15.211  18.945  0.0651  0.0720  0.2799
 3855G1HFO Head45824  15.454  15.222  19.015  0.3654 -0.3380 -0.1377
 3855G1HFO Head45825  14.875  15.552  18.840  0.1439 -0.2524 -0.0135
 3855G1HFO Head45826  15.089  15.361  18.876 -0.0161  0.1204 -0.1597
 3855G1HFO link45827  15.320  15.438  18.928  0.2814 -0.1985 -0.0418
 3855G1HFO link45828  15.434  15.702  18.898 -0.0564  0.1449  0.0504
 3855G1HFO Tail45829  15.742  15.776  19.020  0.1584  0.1945 -0.0787
 3855G1HFO Tail45830  15.711  16.122  19.084  0.1612  0.1402  0.0766
 3855G1HFO Tail45831  15.809  16.294  19.327 -0.1491 -0.0037 -0.2520
 3855G1HFO Tail45832  16.186  16.499  19.415 -0.0274 -0.1156  0.0915
 3855G1HFO Tail45833  15.695  15.658  19.340  0.0662  0.1494  0.0109
 3855G1HFO Tail45834  15.501  15.743  19.493  0.0558  0.0854 -0.0265
 3855G1HFO Tail45835  15.279  15.613  19.469 -0.0304 -0.2158  0.2548
 3855G1HFO Tail45836  15.090  15.464  19.406 -0.0297  0.0396 -0.0389
 3855G1HFO Tail45837  14.896  15.335  19.396  0.2073  0.1133 -0.2485
 3856G1HFO Head45838  13.829  18.961  19.255 -0.1407  0.1626 -0.1701
 3856G1HFO Head45839  14.055  18.760  19.240  0.2916 -0.3211  0.0464
 3856G1HFO Head45840  13.677  18.507  19.383 -0.5473  0.1640 -0.2471
 3856G1HFO Head45841  13.868  18.407  19.164  0.0176  0.2185 -0.1375
 3856G1HFO link45842  14.038  18.560  19.053  0.1974  0.4214 -0.0839
 3856G1HFO link45843  14.256  18.451  18.902  0.2494  0.3326 -0.2632
 3856G1HFO Tail45844  14.238  18.143  18.785 -0.1206 -0.1303  0.3906
 3856G1HFO Tail45845  14.479  17.971  18.956 -0.0860 -0.1487 -0.2286
 3856G1HFO Tail45846  14.613  17.672  18.960  0.1835 -0.0356 -0.0657
 3856G1HFO Tail45847  14.810  17.409  19.218  0.0366  0.0377 -0.2537
 3856G1HFO Tail45848  13.976  18.054  18.979 -0.1503  0.3198 -0.1958
 3856G1HFO Tail45849  13.791  17.896  18.877 -0.1296 -0.2973  0.0291
 3856G1HFO Tail45850  13.657  17.753  19.049 -0.0982 -0.0081  0.1053
 3856G1HFO Tail45851  13.505  17.603  19.178 -0.0562  0.0671  0.1208
 3856G1HFO Tail45852  13.380  17.513  19.346  0.1246 -0.0031  0.4413
 3857G1HFO Head45853  17.937  17.729  19.618 -0.3560 -0.3597 -0.0540
 3857G1HFO Head45854  18.208  17.856  19.533  0.3934 -0.4489  0.0634
 3857G1HFO Head45855  18.600  17.351  19.881 -0.0741  0.1230 -0.2169
 3857G1HFO Head45856  18.353  17.539  19.782  0.1912  0.0591  0.3143
 3857G1HFO link45857  18.410  17.784  19.678  0.3318  0.0827 -0.0603
 3857G1HFO link45858  18.631  17.942  19.756  0.0147 -0.1161 -0.2179
 3857G1HFO Tail45859  18.671  18.066  20.067  0.1501 -0.1067  0.1710
 3857G1HFO Tail45860  18.899  17.857  20.239 -0.3585  0.3927  0.0233
 3857G1HFO Tail45861  19.217  17.846  20.219 -0.2729  0.2325  0.4324
 3857G1HFO Tail45862  19.551  17.592  20.350 -0.1041  0.1050  0.2572
 3857G1HFO Tail45863  18.872  18.370  19.985 -0.1539  0.0108 -0.0045
 3857G1HFO Tail45864  18.871  18.469  19.732 -0.2387 -0.0967  0.0326
 3857G1HFO Tail45865  18.917  18.295  19.542 -0.2927  0.1066  0.0545
 3857G1HFO Tail45866  19.006  18.129  19.368 -0.3371 -0.0314 -0.1319
 3857G1HFO Tail45867  19.041  17.988  19.187 -0.0507  0.0248  0.1904
 3858G1HFO Head45868  18.355  16.075  21.721  0.0245 -0.2137  0.1592
 3858G1HFO Head45869  18.165  16.183  21.532 -0.2528 -0.3325 -0.2222
 3858G1HFO Head45870  18.241  16.494  22.003 -0.0728 -0.0528 -0.0174
 3858G1HFO Head45871  18.329  16.527  21.702 -0.1445 -0.4123 -0.3365
 3858G1HFO link45872  18.142  16.461  21.535 -0.1208  0.4119 -0.0891
 3858G1HFO link45873  17.903  16.592  21.466 -0.0239 -0.0868  0.1926
 3858G1HFO Tail45874  17.895  16.746  21.176  0.6146 -0.0175 -0.0213
 3858G1HFO Tail45875  17.648  16.983  21.236 -0.2824 -0.0763 -0.2343
 3858G1HFO Tail45876  17.582  17.193  21.462 -0.4706 -0.5427  0.1382
 3858G1HFO Tail45877  17.370  17.571  21.468  0.2185 -0.3582  0.1288
 3858G1HFO Tail45878  18.163  16.937  21.143 -0.2457 -0.0091 -0.0630
 3858G1HFO Tail45879  18.161  17.134  20.963  0.0816 -0.0397  0.1069
 3858G1HFO Tail45880  18.233  17.071  20.727 -0.2445 -0.1086  0.0143
 3858G1HFO Tail45881  18.317  16.985  20.503 -0.0936  0.2560  0.0987
 3858G1HFO Tail45882  18.346  16.872  20.301  0.1903  0.1679  0.0730
 3859G1HFO Head45883  18.590  14.872  21.140  0.2284 -0.2253 -0.2703
 3859G1HFO Head45884  18.398  14.877  20.885 -0.2854 -0.5872 -0.2614
 3859G1HFO Head45885  18.123  14.591  21.228 -0.0668  0.0725  0.0095
 3859G1HFO Head45886  18.132  14.554  20.956  0.2360  0.2996  0.1544
 3859G1HFO link45887  18.291  14.659  20.784  0.0183 -0.0145 -0.0282
 3859G1HFO link45888  18.291  14.563  20.508 -0.0962  0.0232 -0.0126
 3859G1HFO Tail45889  18.377  14.811  20.307  0.2421 -0.1797  0.1818
 3859G1HFO Tail45890  18.092  14.838  20.117  0.0951  0.1253 -0.1359
 3859G1HFO Tail45891  18.002  14.673  19.860 -0.1586 -0.1963  0.3709
 3859G1HFO Tail45892  17.970  14.701  19.425 -0.2223  0.2702 -0.2163
 3859G1HFO Tail45893  18.323  15.092  20.506 -0.1642  0.0911 -0.2141
 3859G1HFO Tail45894  18.417  15.317  20.430  0.2246 -0.2417  0.1336
 3859G1HFO Tail45895  18.352  15.509  20.595 -0.3939  0.0018  0.0549
 3859G1HFO Tail45896  18.307  15.718  20.735  0.1878  0.0634  0.0801
 3859G1HFO Tail45897  18.190  15.874  20.868 -0.1185 -0.1433 -0.3265
 3860G1HFO Head45898  17.293  18.050  17.559  0.1663 -0.1571  0.0181
 3860G1HFO Head45899  17.161  18.248  17.442  0.0384 -0.1008  0.7249
 3860G1HFO Head45900  17.280  18.532  17.802  0.0237 -0.0666  0.2545
 3860G1HFO Head45901  17.347  18.625  17.514 -0.0746  0.1180 -0.2310
 3860G1HFO link45902  17.294  18.455  17.332 -0.1120  0.3351 -0.0832
 3860G1HFO link45903  17.471  18.401  17.115 -0.2981  0.4739  0.1839
 3860G1HFO Tail45904  17.510  18.604  16.865 -0.2268  0.1814 -0.0349
 3860G1HFO Tail45905  17.809  18.513  16.776 -0.0626 -0.3936  0.1845
 3860G1HFO Tail45906  17.953  18.393  16.509  0.1996  0.0333  0.3870
 3860G1HFO Tail45907  18.001  17.998  16.318  0.1152 -0.0159 -0.1107
 3860G1HFO Tail45908  17.358  18.418  16.624  0.1806  0.1768  0.2986
 3860G1HFO Tail45909  17.481  18.209  16.519 -0.0724  0.0215 -0.1073
 3860G1HFO Tail45910  17.636  18.079  16.680 -0.0863  0.0052  0.3094
 3860G1HFO Tail45911  17.762  17.900  16.815  0.0558 -0.2236 -0.2926
 3860G1HFO Tail45912  17.803  17.724  16.962 -0.1123 -0.2652  0.1118
 3861G1HFO Head45913  15.065  16.125  16.443 -0.1478  0.1083  0.1455
 3861G1HFO Head45914  15.225  16.349  16.322 -0.4004  0.2010 -0.0120
 3861G1HFO Head45915  14.817  16.603  16.336 -0.3206  0.0406 -0.3271
 3861G1HFO Head45916  15.056  16.712  16.319 -0.3102  0.1404 -0.2548
 3861G1HFO link45917  15.244  16.586  16.433  0.1414  0.2422  0.0794
 3861G1HFO link45918  15.373  16.628  16.687 -0.1794 -0.0472  0.1982
 3861G1HFO Tail45919  15.437  16.382  16.890 -0.2004 -0.1682 -0.1149
 3861G1HFO Tail45920  15.097  16.258  16.915 -0.1828  0.1869  0.0109
 3861G1HFO Tail45921  14.965  16.034  17.076 -0.3636 -0.0264 -0.2538
 3861G1HFO Tail45922  15.009  15.684  17.326  0.1184 -0.0164 -0.0149
 3861G1HFO Tail45923  15.548  16.135  16.671 -0.0294  0.1410 -0.2092
 3861G1HFO Tail45924  15.631  16.166  16.411  0.0465  0.0001 -0.2500
 3861G1HFO Tail45925  15.676  16.405  16.342  0.1709  0.0073  0.1147
 3861G1HFO Tail45926  15.702  16.636  16.235  0.0021 -0.0283 -0.0685
 3861G1HFO Tail45927  15.787  16.833  16.141  0.0727  0.0657  0.0164
 3862G1HFO Head45928  16.460  13.824  20.049 -0.5066 -0.4777  0.0244
 3862G1HFO Head45929  16.710  13.857  19.849 -0.1675 -0.3314 -0.1359
 3862G1HFO Head45930  16.787  13.599  20.295  0.0195 -0.3801 -0.2178
 3862G1HFO Head45931  16.941  13.836  20.178  0.2445 -0.0557  0.0866
 3862G1HFO link45932  16.959  13.888  19.926 -0.0053 -0.2248 -0.2356
 3862G1HFO link45933  17.163  13.824  19.748 -0.3524 -0.3929  0.4883
 3862G1HFO Tail45934  17.365  14.056  19.627  0.0031 -0.2202  0.1589
 3862G1HFO Tail45935  17.175  14.166  19.355 -0.1428 -0.4511  0.0925
 3862G1HFO Tail45936  16.858  14.211  19.308  0.4215  0.2520  0.1156
 3862G1HFO Tail45937  16.483  14.074  19.482  0.2513 -0.1154  0.0496
 3862G1HFO Tail45938  17.238  14.316  19.844 -0.0228  0.1925  0.0337
 3862G1HFO Tail45939  17.399  14.484  19.971 -0.0653  0.1203 -0.3290
 3862G1HFO Tail45940  17.652  14.412  19.993 -0.0321 -0.2798 -0.1074
 3862G1HFO Tail45941  17.888  14.341  20.059 -0.1913  0.0082 -0.0306
 3862G1HFO Tail45942  18.089  14.309  20.183 -0.0518  0.0795  0.3665
 3863G1HFO Head45943  16.181  19.416  19.104  0.0575 -0.0899  0.0687
 3863G1HFO Head45944  16.104  19.173  19.284  0.4661  0.3229 -0.3393
 3863G1HFO Head45945  16.240  19.020  18.788 -0.3796  0.1564  0.5801
 3863G1HFO Head45946  16.207  18.862  19.027  0.2225  0.0199  0.2387
 3863G1HFO link45947  16.241  18.945  19.271 -0.1581 -0.2135  0.6342
 3863G1HFO link45948  16.428  18.860  19.439  0.0461  0.1582 -0.1508
 3863G1HFO Tail45949  16.727  18.983  19.455  0.0658  0.1028 -0.3015
 3863G1HFO Tail45950  16.654  19.302  19.369  0.2730  0.3729  0.1662
 3863G1HFO Tail45951  16.833  19.502  19.177 -0.1450 -0.0930  0.3463
 3863G1HFO Tail45952  17.244  19.633  19.076  0.2636 -0.5076  0.3541
 3863G1HFO Tail45953  16.802  19.051  19.805  0.0522  0.1286 -0.0557
 3863G1HFO Tail45954  16.727  18.884  19.999  0.0963  0.2895  0.2530
 3863G1HFO Tail45955  16.907  18.798  20.163  0.1820  0.1145 -0.3159
 3863G1HFO Tail45956  17.067  18.737  20.351  0.3185 -0.1437  0.0394
 3863G1HFO Tail45957  17.256  18.734  20.493  0.0656 -0.3642  0.3282
 3864G1HFO Head45958  15.706  21.340  19.531 -0.2376  0.1488 -0.2130
 3864G1HFO Head45959  15.976  21.384  19.427 -0.0411 -0.0136 -0.0013
 3864G1HFO Head45960  16.013  21.083  19.886  0.2875  0.3600  0.4968
 3864G1HFO Head45961  16.233  21.151  19.691 -0.1764  0.0992  0.0986
 3864G1HFO link45962  16.178  21.213  19.442  0.0026  0.4624  0.5415
 3864G1HFO link45963  16.314  21.096  19.219  0.2678 -0.1859 -0.0902
 3864G1HFO Tail45964  16.538  20.866  19.270 -0.0177  0.4217  0.2456
 3864G1HFO Tail45965  16.680  20.973  19.562  0.1732 -0.3368 -0.0530
 3864G1HFO Tail45966  16.781  20.834  19.823  0.0319  0.2433 -0.1846
 3864G1HFO Tail45967  16.605  20.573  20.149 -0.1774  0.0587 -0.0041
 3864G1HFO Tail45968  16.340  20.612  19.409 -0.1248 -0.0709  0.2128
 3864G1HFO Tail45969  16.099  20.667  19.483  0.0561  0.1473  0.1505
 3864G1HFO Tail45970  15.927  20.475  19.508  0.0503  0.3549 -0.2089
 3864G1HFO Tail45971  15.716  20.336  19.551  0.0618 -0.1398  0.3763
 3864G1HFO Tail45972  15.563  20.186  19.647  0.1354  0.2161  0.0934
 3865G1HFO Head45973  17.069  21.065  20.438 -0.2976 -0.0872 -0.0073
 3865G1HFO Head45974  17.322  20.914  20.328  0.0603  0.0822  0.0753
 3865G1HFO Head45975  17.904  21.280  20.426 -0.1429 -0.0353  0.2098
 3865G1HFO Head45976  17.565  21.250  20.363 -0.4223 -0.2356 -0.4946
 3865G1HFO link45977  17.508  21.047  20.214 -0.3372 -0.4438 -0.1065
 3865G1HFO link45978  17.620  21.014  19.959 -0.1396 -0.0422  0.0781
 3865G1HFO Tail45979  17.478  20.842  19.720  0.0252  0.2646 -0.3382
 3865G1HFO Tail45980  17.617  20.515  19.760  0.2337 -0.0085 -0.0147
 3865G1HFO Tail45981  17.518  20.217  19.752  0.2533 -0.2225 -0.1649
 3865G1HFO Tail45982  17.544  19.827  19.974 -0.3384 -0.2971  0.2935
 3865G1HFO Tail45983  17.182  20.798  19.894 -0.0091  0.3348  0.6187
 3865G1HFO Tail45984  17.107  20.620  20.063  0.1485 -0.0698 -0.2198
 3865G1HFO Tail45985  17.266  20.429  20.124  0.1568  0.1117  0.2167
 3865G1HFO Tail45986  17.417  20.239  20.212  0.2526 -0.0485  0.0300
 3865G1HFO Tail45987  17.496  20.050  20.329 -0.1740  0.2300 -0.0335
 3866G1HFO Head45988  16.830  15.041  21.743 -0.1883  0.0962  0.2133
 3866G1HFO Head45989  16.890  14.932  21.499  0.3159  0.1288  0.2908
 3866G1HFO Head45990  17.132  14.500  21.440 -0.0877  0.2860  0.4226
 3866G1HFO Head45991  17.243  14.759  21.335 -0.2362 -0.3512 -0.3528
 3866G1HFO link45992  17.119  14.993  21.394 -0.4506 -0.0257  0.3386
 3866G1HFO link45993  17.243  15.249  21.459 -0.2503  0.0127  0.0832
 3866G1HFO Tail45994  17.330  15.485  21.234  0.0216 -0.1754  0.1862
 3866G1HFO Tail45995  17.497  15.250  21.004 -0.2018 -0.1730 -0.1761
 3866G1HFO Tail45996  17.484  14.936  20.954  0.1806  0.0133 -0.0021
 3866G1HFO Tail45997  17.656  14.537  21.037  0.1574  0.3376  0.2423
 3866G1HFO Tail45998  17.033  15.525  21.098  0.0496 -0.0623 -0.0464
 3866G1HFO Tail45999  16.871  15.331  21.133 -0.2655 -0.3134 -0.2433
 3866G1HFO Tail46000  16.932  15.095  21.036  0.2051  0.0942 -0.1902
 3866G1HFO Tail46001  17.032  14.879  20.947  0.0395  0.0856  0.0608
 3866G1HFO Tail46002  17.128  14.661  20.936 -0.3010  0.1306 -0.0655
 3867G1HFO Head46003  20.070  15.416  21.023  0.0844  0.1764  0.1955
 3867G1HFO Head46004  20.086  15.517  20.721  0.2424 -0.0328  0.2670
 3867G1HFO Head46005  19.434  15.285  20.725 -0.1397 -0.1028 -0.0755
 3867G1HFO Head46006  19.737  15.273  20.645 -0.2640 -0.0339 -0.0017
 3867G1HFO link46007  19.880  15.510  20.552  0.5104  0.2724 -0.0213
 3867G1HFO link46008  19.826  15.668  20.324  0.2425 -0.4084  0.0365
 3867G1HFO Tail46009  19.917  15.984  20.298 -0.7079 -0.3372  0.1334
 3867G1HFO Tail46010  19.907  16.015  19.963 -0.3467  0.1044  0.2123
 3867G1HFO Tail46011  19.906  16.268  19.756 -0.0520  0.0545  0.0619
 3867G1HFO Tail46012  19.650  16.566  19.566 -0.1271 -0.0186 -0.1166
 3867G1HFO Tail46013  19.612  16.162  20.373 -0.4591 -0.0904  0.0850
 3867G1HFO Tail46014  19.550  16.379  20.242 -0.1771  0.1270 -0.2295
 3867G1HFO Tail46015  19.332  16.400  20.119 -0.0450 -0.0297 -0.1024
 3867G1HFO Tail46016  19.127  16.460  19.979  0.0622  0.1795  0.2047
 3867G1HFO Tail46017  18.921  16.441  19.880 -0.2857 -0.1322  0.3017
 3868G1HFO Head46018  18.114  15.878  19.412  0.0900  0.0536  0.0236
 3868G1HFO Head46019  17.848  15.915  19.251  0.2565 -0.1479 -0.1626
 3868G1HFO Head46020  17.877  16.383  19.192 -0.2929  0.2283  0.1353
 3868G1HFO Head46021  17.655  16.257  19.339 -0.0104  0.6480  0.0629
 3868G1HFO link46022  17.613  16.009  19.353 -0.2282 -0.3154  0.6471
 3868G1HFO link46023  17.432  15.854  19.503  0.0354  0.0220  0.2232
 3868G1HFO Tail46024  17.133  15.786  19.408 -0.0035 -0.0454 -0.3924
 3868G1HFO Tail46025  17.123  15.452  19.523 -0.0211  0.0261  0.0098
 3868G1HFO Tail46026  16.884  15.247  19.549  0.1518  0.0919  0.3585
 3868G1HFO Tail46027  16.471  15.192  19.666  0.1240 -0.3164 -0.2264
 3868G1HFO Tail46028  16.922  15.901  19.660 -0.0320  0.0494  0.2851
 3868G1HFO Tail46029  17.007  16.016  19.886 -0.1811 -0.3649  0.3864
 3868G1HFO Tail46030  17.236  15.918  19.974  0.0549  0.1440 -0.1002
 3868G1HFO Tail46031  17.442  15.792  20.045 -0.2625  0.0796 -0.0590
 3868G1HFO Tail46032  17.659  15.704  20.075 -0.0919 -0.2981  0.0820
 3869G1HFO Head46033  17.270  15.436  17.866 -0.0183 -0.1380  0.0170
 3869G1HFO Head46034  17.460  15.212  17.748 -0.0350  0.1414  0.6044
 3869G1HFO Head46035  17.628  15.798  17.717 -0.0237  0.2658  0.1661
 3869G1HFO Head46036  17.564  15.533  17.525 -0.3252  0.2784 -0.5710
 3869G1HFO link46037  17.672  15.295  17.605  0.2058  0.0854 -0.2080
 3869G1HFO link46038  17.861  15.162  17.430 -0.1675  0.2113 -0.0017
 3869G1HFO Tail46039  18.089  15.315  17.248 -0.1610  0.1628  0.5489
 3869G1HFO Tail46040  18.022  15.643  17.298  0.0815 -0.0275 -0.1777
 3869G1HFO Tail46041  18.003  15.892  17.108  0.1393 -0.0187  0.1285
 3869G1HFO Tail46042  18.276  16.202  16.973 -0.0344  0.1481  0.0742
 3869G1HFO Tail46043  18.373  15.324  17.467 -0.1914  0.1607 -0.2039
 3869G1HFO Tail46044  18.601  15.187  17.457  0.1659 -0.0659  0.0246
 3869G1HFO Tail46045  18.660  15.033  17.669  0.0088 -0.1747  0.0609
 3869G1HFO Tail46046  18.689  14.885  17.869  0.1810 -0.0592 -0.1682
 3869G1HFO Tail46047  18.686  14.805  18.091 -0.0199  0.0997  0.0473
 3870G1HFO Head46048  14.860  17.771  16.363 -0.2570  0.0693 -0.2009
 3870G1HFO Head46049  15.017  17.963  16.580  0.0365 -0.0779 -0.0665
 3870G1HFO Head46050  14.596  18.174  16.430 -0.3042 -0.1287 -0.4050
 3870G1HFO Head46051  14.908  18.309  16.452 -0.0668  0.2364 -0.1189
 3870G1HFO link46052  15.134  18.159  16.462 -0.1518 -0.7719  0.2049
 3870G1HFO link46053  15.327  18.146  16.259 -0.1959  0.1653  0.0953
 3870G1HFO Tail46054  15.621  18.001  16.321 -0.1573  0.2155 -0.0027
 3870G1HFO Tail46055  15.828  18.291  16.320 -0.0367 -0.0434 -0.2913
 3870G1HFO Tail46056  16.065  18.446  16.498 -0.0326 -0.1279  0.3989
 3870G1HFO Tail46057  16.497  18.463  16.499 -0.1439 -0.0718 -0.2126
 3870G1HFO Tail46058  15.557  17.973  16.644 -0.0216  0.2036 -0.1655
 3870G1HFO Tail46059  15.537  18.186  16.803 -0.2269 -0.1523 -0.0970
 3870G1HFO Tail46060  15.307  18.278  16.848  0.0282 -0.1163 -0.1589
 3870G1HFO Tail46061  15.098  18.394  16.940  0.1919 -0.1313 -0.1309
 3870G1HFO Tail46062  14.924  18.543  16.996 -0.3553 -0.0974  0.0580
 3871G1HFO Head46063  18.247  19.226  21.354 -0.1078  0.0134 -0.0968
 3871G1HFO Head46064  18.077  19.511  21.481  0.1350  0.0199  0.0051
 3871G1HFO Head46065  18.107  19.970  21.656 -0.2936  0.0093  0.0489
 3871G1HFO Head46066  17.854  19.745  21.707 -0.2597 -0.0762  0.1028
 3871G1HFO link46067  17.847  19.512  21.616  0.1601 -0.0857  0.0329
 3871G1HFO link46068  17.596  19.390  21.564  0.0674 -0.1380 -0.0395
 3871G1HFO Tail46069  17.535  19.233  21.294 -0.1181 -0.0146  0.1401
 3871G1HFO Tail46070  17.271  19.437  21.198 -0.2343  0.0586 -0.0855
 3871G1HFO Tail46071  16.961  19.394  21.196  0.1620 -0.2387  0.3004
 3871G1HFO Tail46072  16.639  19.148  21.035 -0.4218  0.0957  0.0850
 3871G1HFO Tail46073  17.792  19.344  21.087  0.2150 -0.0145  0.1690
 3871G1HFO Tail46074  17.961  19.158  20.997  0.2491 -0.4052  0.1621
 3871G1HFO Tail46075  17.911  18.911  21.083  0.0793 -0.1017  0.2133
 3871G1HFO Tail46076  17.840  18.670  21.133  0.0399  0.0833 -0.2645
 3871G1HFO Tail46077  17.733  18.478  21.202 -0.0544 -0.1563  0.4359
 3872G1HFO Head46078  18.455  15.126  15.467  0.0196 -0.2178 -0.2020
 3872G1HFO Head46079  18.281  15.391  15.487 -0.3133 -0.0284  0.1073
 3872G1HFO Head46080  17.774  14.931  15.606  0.2253 -0.1842  0.0227
 3872G1HFO Head46081  18.061  15.134  15.696  0.0108 -0.4291  0.4709
 3872G1HFO link46082  18.077  15.398  15.617  0.0157  0.0518 -0.2196
 3872G1HFO link46083  18.002  15.617  15.780 -0.2668  0.0353  0.0587
 3872G1HFO Tail46084  18.230  15.730  16.006  0.3792  0.2216  0.1884
 3872G1HFO Tail46085  18.523  15.832  15.857  0.0482 -0.0471  0.2194
 3872G1HFO Tail46086  18.721  16.073  15.886  0.1999 -0.4658 -0.0066
 3872G1HFO Tail46087  19.047  16.202  16.139  0.0786 -0.0338 -0.0547
 3872G1HFO Tail46088  18.110  16.035  16.063 -0.1933 -0.1946  0.1939
 3872G1HFO Tail46089  18.281  16.235  16.077 -0.3024  0.3826 -0.0810
 3872G1HFO Tail46090  18.211  16.467  15.979 -0.0084 -0.0812  0.1272
 3872G1HFO Tail46091  18.145  16.671  15.836 -0.1055 -0.1123  0.0766
 3872G1HFO Tail46092  18.068  16.805  15.653  0.0474 -0.0422  0.1038
 3873G1HFO Head46093  21.167  18.311  19.221  0.1622 -0.2410 -0.1419
 3873G1HFO Head46094  20.970  18.109  19.029 -0.0298 -0.2768  0.2484
 3873G1HFO Head46095  20.597  18.403  19.232  0.4051  0.0486  0.0568
 3873G1HFO Head46096  20.565  18.130  19.127  0.0220  0.2124 -0.2076
 3873G1HFO link46097  20.777  17.967  19.113  0.3941 -0.2304  0.2120
 3873G1HFO link46098  20.811  17.693  19.213  0.0434 -0.0772 -0.1800
 3873G1HFO Tail46099  20.726  17.456  19.009  0.2715  0.2957 -0.0766
 3873G1HFO Tail46100  20.482  17.325  19.210  0.1165  0.3566 -0.1820
 3873G1HFO Tail46101  20.445  17.027  19.347  0.0937 -0.0240 -0.1681
 3873G1HFO Tail46102  20.674  16.771  19.602 -0.1747 -0.0680  0.0696
 3873G1HFO Tail46103  20.489  17.640  18.813  0.5035  0.1106  0.1935
 3873G1HFO Tail46104  20.557  17.831  18.649 -0.1192  0.0658 -0.2190
 3873G1HFO Tail46105  20.357  17.983  18.570  0.2397 -0.5614  0.1057
 3873G1HFO Tail46106  20.164  18.138  18.508 -0.3232  0.0169 -0.0137
 3873G1HFO Tail46107  19.964  18.238  18.452  0.1830 -0.0595  0.2970
 3874G1HFO Head46108  18.979  15.805  18.862  0.0720  0.2550  0.1684
 3874G1HFO Head46109  19.231  15.980  18.919  0.1196 -0.0261 -0.1674
 3874G1HFO Head46110  19.074  15.572  19.253  0.1804 -0.1089  0.2437
 3874G1HFO Head46111  19.158  15.871  19.310  0.3714 -0.1571 -0.0726
 3874G1HFO link46112  19.324  16.015  19.159  0.0375  0.2735  0.0352
 3874G1HFO link46113  19.564  16.145  19.258  0.1886 -0.0934 -0.0706
 3874G1HFO Tail46114  19.676  16.426  19.119 -0.1497  0.3549  0.4457
 3874G1HFO Tail46115  19.989  16.328  19.076 -0.0223 -0.1971  0.1561
 3874G1HFO Tail46116  20.252  16.473  19.048  0.0874 -0.1638  0.3381
 3874G1HFO Tail46117  20.380  16.885  18.974  0.1492 -0.0353 -0.0298
 3874G1HFO Tail46118  19.610  16.392  18.787  0.1045  0.0622  0.0689
 3874G1HFO Tail46119  19.588  16.154  18.679 -0.0740 -0.1746 -0.0276
 3874G1HFO Tail46120  19.725  15.955  18.802  0.1688  0.2228 -0.0897
 3874G1HFO Tail46121  19.876  15.804  18.937 -0.1555  0.0216 -0.1554
 3874G1HFO Tail46122  20.025  15.642  19.027 -0.1096 -0.1956  0.1299
 3875G1HFO Head46123  15.077  14.898  18.946  0.0294  0.0799  0.1929
 3875G1HFO Head46124  15.171  14.949  19.227 -0.0806  0.0194  0.1519
 3875G1HFO Head46125  14.706  14.791  19.265  0.0518  0.1282  0.1312
 3875G1HFO Head46126  14.909  14.727  19.464 -0.1888  0.0033  0.1547
 3875G1HFO link46127  15.162  14.743  19.394 -0.1704  0.4281  0.0058
 3875G1HFO link46128  15.371  14.580  19.528  0.1238  0.0003  0.0612
 3875G1HFO Tail46129  15.653  14.716  19.568  0.0825 -0.1003 -0.1153
 3875G1HFO Tail46130  15.863  14.444  19.671 -0.0153  0.2970 -0.1291
 3875G1HFO Tail46131  16.167  14.390  19.668 -0.5740  0.2404 -0.3067
 3875G1HFO Tail46132  16.518  14.603  19.815 -0.3661  0.0044  0.3257
 3875G1HFO Tail46133  15.712  14.744  19.206  0.0655  0.1889  0.1718
 3875G1HFO Tail46134  15.509  14.805  19.036 -0.0256 -0.1955 -0.1771
 3875G1HFO Tail46135  15.507  14.704  18.804  0.0595  0.1367 -0.0383
 3875G1HFO Tail46136  15.491  14.615  18.562 -0.1306 -0.0524  0.0634
 3875G1HFO Tail46137  15.416  14.529  18.356 -0.0303  0.0113  0.0264
 3876G1HFO Head46138  16.515  19.966  20.899 -0.5745  0.0500  0.2991
 3876G1HFO Head46139  16.774  20.124  20.920 -0.5242  0.1337  0.1488
 3876G1HFO Head46140  16.610  20.248  21.452  0.1827  0.1853  0.2921
 3876G1HFO Head46141  16.581  20.393  21.184 -0.2127 -0.1759  0.3652
 3876G1HFO link46142  16.780  20.360  21.026  0.1455  0.1314 -0.0802
 3876G1HFO link46143  16.966  20.554  20.944 -0.4522  0.0529 -0.0540
 3876G1HFO Tail46144  17.044  20.638  20.640  0.0322  0.2603  0.0928
 3876G1HFO Tail46145  17.379  20.583  20.609  0.1296 -0.2358  0.1595
 3876G1HFO Tail46146  17.650  20.722  20.519 -0.1695 -0.0901 -0.2067
 3876G1HFO Tail46147  18.012  20.710  20.264  0.2520 -0.3010  0.2925
 3876G1HFO Tail46148  16.945  20.334  20.489  0.1400 -0.6928 -0.1371
 3876G1HFO Tail46149  17.047  20.119  20.578 -0.0146  0.0600  0.0115
 3876G1HFO Tail46150  17.206  20.129  20.782 -0.2797 -0.0139  0.3188
 3876G1HFO Tail46151  17.370  20.184  20.969  0.1386 -0.0419  0.1424
 3876G1HFO Tail46152  17.543  20.178  21.111 -0.1921 -0.0786  0.0824
 3877G1HFO Head46153  16.730  18.045  15.989 -0.0576  0.3880  0.3978
 3877G1HFO Head46154  16.916  18.080  15.796  0.2352 -0.0189  0.1951
 3877G1HFO Head46155  16.979  18.511  15.226  0.0934  0.2125 -0.0220
 3877G1HFO Head46156  16.992  18.288  15.423 -0.3764 -0.0969 -0.0577
 3877G1HFO link46157  16.939  18.320  15.680 -0.2585 -0.3048  0.0636
 3877G1HFO link46158  16.890  18.586  15.806 -0.1477 -0.0421  0.0242
 3877G1HFO Tail46159  16.585  18.688  15.855 -0.2242 -0.2691  0.1314
 3877G1HFO Tail46160  16.418  18.423  15.974 -0.2024 -0.1618  0.0183
 3877G1HFO Tail46161  16.125  18.320  16.041 -0.0423  0.1668 -0.0109
 3877G1HFO Tail46162  15.823  18.055  15.873  0.1689 -0.0193  0.2831
 3877G1HFO Tail46163  16.662  18.848  16.167 -0.1263 -0.1648 -0.1068
 3877G1HFO Tail46164  16.851  18.756  16.330 -0.4399  0.0810 -0.3296
 3877G1HFO Tail46165  16.944  18.509  16.304 -0.0065  0.1093 -0.0270
 3877G1HFO Tail46166  17.062  18.296  16.246 -0.1084  0.0977  0.0455
 3877G1HFO Tail46167  17.233  18.137  16.191 -0.0898  0.1537  0.0528
 3878G1HFO Head46168  19.907  13.428  20.276 -0.1476  0.1809  0.2554
 3878G1HFO Head46169  19.777  13.566  20.062 -0.2831  0.1628  0.1395
 3878G1HFO Head46170  19.891  13.962  20.395  0.1457  0.1573 -0.4369
 3878G1HFO Head46171  19.799  13.971  20.102  0.2081 -0.0910  0.2233
 3878G1HFO link46172  19.887  13.773  19.942 -0.0690  0.6526 -0.2812
 3878G1HFO link46173  19.933  13.782  19.661  0.0805 -0.0125  0.4133
 3878G1HFO Tail46174  19.936  14.067  19.484 -0.2072  0.0517 -0.0249
 3878G1HFO Tail46175  19.623  14.007  19.330 -0.2870 -0.0707  0.1343
 3878G1HFO Tail46176  19.363  14.153  19.322  0.0263 -0.0716  0.2957
 3878G1HFO Tail46177  18.979  14.201  19.534  0.1558 -0.0245 -0.0657
 3878G1HFO Tail46178  19.821  14.278  19.728  0.3122  0.2270 -0.2542
 3878G1HFO Tail46179  19.564  14.280  19.780  0.0450  0.4416  0.0467
 3878G1HFO Tail46180  19.451  14.048  19.804  0.0410 -0.0368  0.0095
 3878G1HFO Tail46181  19.366  13.810  19.826 -0.1373  0.0416 -0.0662
 3878G1HFO Tail46182  19.334  13.591  19.902  0.0330 -0.0983  0.0766
 3879G1HFO Head46183  19.246  14.572  16.854  0.2051  0.3125  0.1298
 3879G1HFO Head46184  19.493  14.443  16.997 -0.1748 -0.2007  0.0995
 3879G1HFO Head46185  20.073  14.443  17.379  0.1901  0.2355 -0.1002
 3879G1HFO Head46186  19.742  14.356  17.295 -0.3781  0.4835 -0.0462
 3879G1HFO link46187  19.547  14.528  17.249 -0.0451  0.2377  0.0781
 3879G1HFO link46188  19.535  14.799  17.346  0.1705 -0.0334 -0.0155
 3879G1HFO Tail46189  19.279  14.998  17.318 -0.0874 -0.0473  0.1009
 3879G1HFO Tail46190  19.297  15.095  16.976 -0.0588  0.1623  0.0682
 3879G1HFO Tail46191  19.411  15.372  16.849 -0.2215 -0.2680 -0.1048
 3879G1HFO Tail46192  19.301  15.781  16.853  0.1663 -0.1624  0.0992
 3879G1HFO Tail46193  19.026  14.780  17.293  0.2013  0.0602 -0.4262
 3879G1HFO Tail46194  18.983  14.604  17.481  0.0413 -0.3332 -0.1693
 3879G1HFO Tail46195  19.090  14.635  17.713 -0.1264  0.2177 -0.1169
 3879G1HFO Tail46196  19.181  14.683  17.945 -0.1245 -0.0689 -0.1519
 3879G1HFO Tail46197  19.234  14.694  18.175  0.2261  0.0706  0.7665
 3880G1HFO Head46198  20.874  15.380  19.693  0.1186  0.1071 -0.3449
 3880G1HFO Head46199  20.674  15.257  19.480  0.1173  0.4575  0.0509
 3880G1HFO Head46200  20.540  15.255  19.975  0.1564 -0.3645 -0.4113
 3880G1HFO Head46201  20.373  15.156  19.728  0.1725  0.2220  0.3902
 3880G1HFO link46202  20.414  15.278  19.504  0.2197  0.0932  0.0142
 3880G1HFO link46203  20.260  15.480  19.386  0.4049  0.0282 -0.1876
 3880G1HFO Tail46204  20.000  15.630  19.531 -0.1678  0.3595 -0.4428
 3880G1HFO Tail46205  20.002  15.938  19.422  0.2268 -0.0806  0.1473
 3880G1HFO Tail46206  20.216  16.183  19.456  0.5084 -0.2554  0.2028
 3880G1HFO Tail46207  20.232  16.626  19.477  0.2923 -0.3246 -0.2696
 3880G1HFO Tail46208  19.736  15.479  19.368  0.0568  0.1222 -0.1203
 3880G1HFO Tail46209  19.547  15.616  19.270 -0.3585 -0.1458 -0.2590
 3880G1HFO Tail46210  19.460  15.580  19.032 -0.0667  0.3001  0.3317
 3880G1HFO Tail46211  19.419  15.559  18.779  0.0631  0.0276 -0.3240
 3880G1HFO Tail46212  19.339  15.492  18.568  0.1156 -0.4968  0.2192
 3881G1HFO Head46213  15.271  14.576  21.121 -0.0557  0.0239 -0.0108
 3881G1HFO Head46214  15.017  14.741  21.060  0.1756  0.1647 -0.2763
 3881G1HFO Head46215  15.036  15.245  21.490  0.0358 -0.0378 -0.0972
 3881G1HFO Head46216  15.179  15.060  21.236 -0.2706  0.3022  0.1341
 3881G1HFO link46217  15.076  14.975  21.011  0.4601  0.1139 -0.1499
 3881G1HFO link46218  14.976  15.140  20.810  0.1594 -0.2435 -0.1370
 3881G1HFO Tail46219  15.177  15.217  20.577 -0.4637 -0.1840 -0.0529
 3881G1HFO Tail46220  15.083  14.980  20.340 -0.0489  0.0451 -0.0421
 3881G1HFO Tail46221  14.830  14.940  20.123  0.2762 -0.2658  0.0142
 3881G1HFO Tail46222  14.753  15.091  19.738  0.1042 -0.1297  0.3181
 3881G1HFO Tail46223  14.975  15.476  20.459  0.1554  0.2035 -0.0946
 3881G1HFO Tail46224  14.772  15.576  20.578  0.2418 -0.0911  0.2672
 3881G1HFO Tail46225  14.787  15.604  20.841  0.0784 -0.1282  0.0817
 3881G1HFO Tail46226  14.759  15.655  21.087  0.0039  0.1147 -0.2478
 3881G1HFO Tail46227  14.692  15.645  21.315 -0.0042 -0.2449 -0.0576
 3882G1HFO Head46228  21.171  18.597  17.344 -0.0574 -0.1155 -0.0366
 3882G1HFO Head46229  20.975  18.387  17.183  0.1096 -0.1777  0.1749
 3882G1HFO Head46230  21.463  18.194  17.337  0.3766 -0.0820  0.1105
 3882G1HFO Head46231  21.354  18.256  17.062 -0.0545  0.3411 -0.2492
 3882G1HFO link46232  21.095  18.229  17.027 -0.5697  0.3351 -0.4903
 3882G1HFO link46233  20.965  18.098  16.821 -0.2678  0.0220  0.0502
 3882G1HFO Tail46234  20.672  17.952  16.843 -0.1073 -0.3919 -0.0540
 3882G1HFO Tail46235  20.533  18.151  17.105  0.3463 -0.3493  0.0429
 3882G1HFO Tail46236  20.543  18.176  17.399 -0.0498  0.3809 -0.1659
 3882G1HFO Tail46237  20.548  17.938  17.770 -0.0835  0.2055  0.0299
 3882G1HFO Tail46238  20.517  18.052  16.544 -0.1069  0.0182  0.2607
 3882G1HFO Tail46239  20.421  17.873  16.388 -0.0336  0.0209  0.2085
 3882G1HFO Tail46240  20.463  17.623  16.447  0.0562  0.3115  0.2081
 3882G1HFO Tail46241  20.539  17.390  16.517 -0.0225 -0.3556  0.0297
 3882G1HFO Tail46242  20.544  17.164  16.573  0.3190 -0.0514 -0.1623
 3883G1HFO Head46243  15.093  20.188  17.342  0.1423  0.2678  0.1842
 3883G1HFO Head46244  15.166  19.970  17.147  0.0694 -0.1773 -0.0567
 3883G1HFO Head46245  15.532  20.265  16.882 -0.1492 -0.2317 -0.1389
 3883G1HFO Head46246  15.598  19.971  17.043  0.1624 -0.1373  0.1495
 3883G1HFO link46247  15.391  19.847  17.161  0.1724 -0.1717 -0.7082
 3883G1HFO link46248  15.444  19.666  17.381  0.1473  0.1828  0.2616
 3883G1HFO Tail46249  15.734  19.513  17.420  0.2524 -0.1734 -0.5571
 3883G1HFO Tail46250  15.927  19.640  17.177  0.1070  0.3257 -0.1993
 3883G1HFO Tail46251  15.943  19.603  16.863 -0.5004 -0.0810  0.0043
 3883G1HFO Tail46252  16.263  19.491  16.565  0.0838 -0.1064 -0.4639
 3883G1HFO Tail46253  15.864  19.635  17.706 -0.1345 -0.1668 -0.3122
 3883G1HFO Tail46254  16.118  19.711  17.721 -0.4504 -0.0683 -0.0931
 3883G1HFO Tail46255  16.179  19.919  17.868 -0.0699  0.0530  0.2719
 3883G1HFO Tail46256  16.265  20.106  18.023 -0.0576  0.1488  0.1347
 3883G1HFO Tail46257  16.375  20.218  18.201 -0.3203 -0.0432 -0.0165
 3884G1HFO Head46258  19.696  16.431  21.428  0.1435 -0.0200  0.1365
 3884G1HFO Head46259  19.823  16.310  21.157  0.0532 -0.1944 -0.1538
 3884G1HFO Head46260  20.029  15.785  21.545 -0.1066  0.2317 -0.3658
 3884G1HFO Head46261  19.844  16.010  21.414 -0.1404  0.1454  0.0673
 3884G1HFO link46262  19.879  16.057  21.152  0.0565  0.5525 -0.4531
 3884G1HFO link46263  20.080  15.944  20.984 -0.1569  0.1231  0.0111
 3884G1HFO Tail46264  20.275  16.072  20.738  0.2855 -0.0824 -0.1757
 3884G1HFO Tail46265  20.337  15.825  20.503  0.0110 -0.1826  0.0657
 3884G1HFO Tail46266  20.272  15.735  20.198  0.2188  0.3609 -0.1317
 3884G1HFO Tail46267  20.368  15.802  19.769  0.0815  0.0165 -0.2305
 3884G1HFO Tail46268  20.042  16.282  20.582  0.4036  0.2454 -0.3473
 3884G1HFO Tail46269  19.973  16.491  20.716  0.0389  0.1455  0.1010
 3884G1HFO Tail46270  19.828  16.671  20.597  0.2749 -0.2493 -0.1294
 3884G1HFO Tail46271  19.670  16.864  20.523 -0.0223  0.1363  0.3065
 3884G1HFO Tail46272  19.496  16.985  20.436  0.1768 -0.2471  0.0078
 3885G1HFO Head46273  19.097  16.367  21.432 -0.2651  0.1433  0.0428
 3885G1HFO Head46274  19.265  16.504  21.230 -0.3916  0.0093  0.0382
 3885G1HFO Head46275  19.122  16.883  21.565 -0.2013  0.0891  0.2668
 3885G1HFO Head46276  19.065  16.887  21.235  0.1801  0.0351  0.0265
 3885G1HFO link46277  19.136  16.685  21.078 -0.3640  0.0856 -0.0605
 3885G1HFO link46278  19.106  16.646  20.805 -0.0104 -0.2399 -0.0226
 3885G1HFO Tail46279  19.320  16.516  20.581  0.2899 -0.5796  0.1185
 3885G1HFO Tail46280  19.520  16.341  20.803 -0.0250  0.1840  0.0296
 3885G1HFO Tail46281  19.667  16.064  20.797  0.6792 -0.4533  0.0393
 3885G1HFO Tail46282  19.675  15.687  21.018  0.1399 -0.0846  0.0174
 3885G1HFO Tail46283  19.114  16.250  20.503 -0.0979 -0.3124  0.1058
 3885G1HFO Tail46284  18.968  16.144  20.696  0.0448  0.1463  0.0491
 3885G1HFO Tail46285  18.909  15.896  20.673  0.1660  0.0555 -0.0937
 3885G1HFO Tail46286  18.818  15.662  20.694  0.2262  0.1838 -0.0780
 3885G1HFO Tail46287  18.761  15.431  20.653 -0.2993 -0.1758 -0.2867
 3886G1HFO Head46288  18.161  15.829  17.708  0.1587 -0.1182 -0.1885
 3886G1HFO Head46289  18.029  15.535  17.740  0.0639  0.5902  0.3840
 3886G1HFO Head46290  18.156  14.971  17.758  0.3382 -0.0995 -0.1963
 3886G1HFO Head46291  18.011  15.167  17.932  0.4641 -0.1361 -0.1189
 3886G1HFO link46292  18.085  15.412  17.945  0.0742  0.4807 -0.0367
 3886G1HFO link46293  18.179  15.507  18.197 -0.0715 -0.1880 -0.0083
 3886G1HFO Tail46294  18.220  15.309  18.455 -0.3445  0.2584 -0.0806
 3886G1HFO Tail46295  17.908  15.164  18.473  0.0957  0.3578  0.0522
 3886G1HFO Tail46296  17.639  15.139  18.651 -0.1878  0.0123 -0.3072
 3886G1HFO Tail46297  17.260  14.952  18.625  0.0556  0.2947  0.2579
 3886G1HFO Tail46298  18.399  15.064  18.320 -0.0175 -0.1304 -0.0579
 3886G1HFO Tail46299  18.288  14.865  18.191  0.2510  0.1406  0.0995
 3886G1HFO Tail46300  18.077  14.748  18.294 -0.3841  0.0243  0.0084
 3886G1HFO Tail46301  17.881  14.662  18.430  0.1482 -0.1128  0.0084
 3886G1HFO Tail46302  17.722  14.638  18.597 -0.1679 -0.0846 -0.1506
 3887G1HFO Head46303  18.762  16.511  18.114 -0.3551 -0.0730  0.2185
 3887G1HFO Head46304  18.790  16.829  18.195 -0.0116  0.0294  0.2230
 3887G1HFO Head46305  18.776  17.307  18.543  0.2970 -0.1407 -0.2899
 3887G1HFO Head46306  18.968  17.113  18.405 -0.4054 -0.1385  0.3060
 3887G1HFO link46307  18.929  16.863  18.401  0.0728 -0.4092  0.0943
 3887G1HFO link46308  19.076  16.674  18.547  0.1851 -0.0493  0.0035
 3887G1HFO Tail46309  19.383  16.720  18.680  0.1456 -0.2216  0.0524
 3887G1HFO Tail46310  19.534  16.810  18.381  0.1960 -0.0402 -0.0775
 3887G1HFO Tail46311  19.845  16.844  18.285  0.1430 -0.2443 -0.2868
 3887G1HFO Tail46312  20.183  16.630  18.122 -0.1791 -0.1632  0.1296
 3887G1HFO Tail46313  19.323  17.033  18.813  0.0555  0.2465  0.2708
 3887G1HFO Tail46314  19.291  17.234  18.648 -0.1054  0.2486 -0.0537
 3887G1HFO Tail46315  19.503  17.320  18.524  0.0574  0.1383  0.1459
 3887G1HFO Tail46316  19.675  17.407  18.363  0.1420  0.0713  0.2531
 3887G1HFO Tail46317  19.809  17.541  18.223  0.0427 -0.0831  0.2208
 3888G1HFO Head46318  18.265  18.701  22.443  0.0413 -0.1365 -0.2831
 3888G1HFO Head46319  18.083  18.574  22.252  0.0306  0.1910  0.3188
 3888G1HFO Head46320  18.421  18.998  22.013 -0.4929  0.1772  0.0078
 3888G1HFO Head46321  18.095  18.977  22.108  0.1582 -0.0422 -0.4700
 3888G1HFO link46322  17.943  18.737  22.111 -0.9521  0.0982  0.1961
 3888G1HFO link46323  17.716  18.661  21.961 -0.1581  0.1359 -0.0496
 3888G1HFO Tail46324  17.492  18.458  22.096  0.2885  0.0254 -0.1023
 3888G1HFO Tail46325  17.468  18.237  21.846  0.4033 -0.0597  0.1844
 3888G1HFO Tail46326  17.574  17.951  21.799 -0.2042 -0.1310  0.2570
 3888G1HFO Tail46327  17.899  17.704  21.626 -0.0497 -0.0501 -0.4473
 3888G1HFO Tail46328  17.691  18.237  22.307 -0.0808  0.0081  0.0533
 3888G1HFO Tail46329  17.812  18.325  22.513 -0.1964 -0.3157 -0.4024
 3888G1HFO Tail46330  17.897  18.139  22.681 -0.1358 -0.0208 -0.0359
 3888G1HFO Tail46331  17.964  17.982  22.874 -0.0271 -0.0387 -0.2141
 3888G1HFO Tail46332  18.088  17.862  23.037 -0.1846 -0.3063  0.2066
 3889LEFL  Drug46333  21.435  17.457  17.802 -0.1655  0.1972  0.0644
 3889LEFL  Drug46334  21.400  17.166  17.816 -0.0623  0.1903  0.1883
 3889LEFL  Drug46335  21.591  17.140  17.827 -0.0760  0.2959  0.9119
 3889LEFL  Drug46336  21.757  16.975  17.764 -0.1290 -0.3603 -0.1299
 3889LEFL  Drug46337  21.827  16.822  17.591  0.0345  0.2406 -0.1276
 3889LEFL  Drug46338  22.071  16.757  17.426  0.3624 -0.0939  0.4714
 3889LEFL  Drug46339  21.798  16.639  17.469  0.2879 -0.0240  0.2030
 3889LEFL  Drug46340  21.878  16.486  17.306  0.5468  0.1801  0.1341
 3890LEFL  Drug46341  15.720  19.369  19.093  0.2862 -0.0342 -0.0363
 3890LEFL  Drug46342  15.442  19.276  19.090  0.3178 -0.1580  0.4850
 3890LEFL  Drug46343  15.382  19.446  19.020  0.2452 -0.5122 -0.3709
 3890LEFL  Drug46344  15.251  19.652  19.031 -0.0077 -0.0235 -0.3036
 3890LEFL  Drug46345  15.166  19.836  18.900  0.3094 -0.2075  0.0032
 3890LEFL  Drug46346  15.404  19.927  18.739  0.2020  0.1313  0.0330
 3890LEFL  Drug46347  15.198  20.055  18.916  0.4058 -0.2552  0.5616
 3890LEFL  Drug46348  15.329  20.249  18.877  0.2621 -0.2476  0.0842
 3891LEFL  Drug46349  20.352  17.234  18.763 -0.0198 -0.0643  0.4452
 3891LEFL  Drug46350  20.084  17.173  18.866 -0.1035  0.1652  0.3665
 3891LEFL  Drug46351  20.002  17.248  18.708  0.0216 -0.1320  0.1565
 3891LEFL  Drug46352  20.016  17.459  18.626 -0.1339  0.1065 -0.0961
 3891LEFL  Drug46353  20.110  17.606  18.473  0.1174  0.0969  0.1632
 3891LEFL  Drug46354  20.405  17.570  18.423  0.0886 -0.0295  0.0810
 3891LEFL  Drug46355  20.179  17.723  18.298  0.0237 -0.3179 -0.1582
 3891LEFL  Drug46356  20.346  17.809  18.153 -0.0735  0.2861  0.0728
 3892LEFL  Drug46357  15.095  15.569  21.328 -0.4244 -0.1504 -0.1714
 3892LEFL  Drug46358  15.188  15.421  21.093 -0.0883  0.0519 -0.1694
 3892LEFL  Drug46359  15.243  15.584  21.006 -0.3126  0.1617 -0.1073
 3892LEFL  Drug46360  15.386  15.563  20.787 -0.0303 -0.0126  0.1805
 3892LEFL  Drug46361  15.558  15.504  20.613 -0.2489 -0.1673  0.0215
 3892LEFL  Drug46362  15.593  15.224  20.508  0.2604 -0.2484  0.3878
 3892LEFL  Drug46363  15.759  15.422  20.661 -0.1169  0.2377  0.1816
 3892LEFL  Drug46364  15.910  15.248  20.719  0.0379  0.3019 -0.0237
 3893LEFL  Drug46365  16.268  15.022  17.212  0.1325  0.1227  0.0222
 3893LEFL  Drug46366  16.035  14.988  17.037  0.0944  0.0151  0.0930
 3893LEFL  Drug46367  15.928  14.929  17.186  0.1656 -0.0295  0.1265
 3893LEFL  Drug46368  15.666  14.956  17.211 -0.0158 -0.2587 -0.2814
 3893LEFL  Drug46369  15.455  15.070  17.308 -0.2693 -0.2923 -0.2364
 3893LEFL  Drug46370  15.487  15.209  17.573  0.5039 -0.1587 -0.3868
 3893LEFL  Drug46371  15.259  15.110  17.404 -0.0039 -0.0742  0.2296
 3893LEFL  Drug46372  15.130  15.193  17.585 -0.2118 -0.1935  0.1365
 3894LEFL  Drug46373  17.381  19.355  18.449  0.3486 -0.0120 -0.1133
 3894LEFL  Drug46374  17.263  19.363  18.717  0.0465 -0.1239 -0.2407
 3894LEFL  Drug46375  17.181  19.534  18.679  0.5732  0.1808 -0.0657
 3894LEFL  Drug46376  16.935  19.540  18.629 -0.0103 -0.2387  0.1114
 3894LEFL  Drug46377  16.832  19.684  18.446 -0.0496 -0.0892 -0.0600
 3894LEFL  Drug46378  16.887  19.654  18.152 -0.2615 -0.0696 -0.1022
 3894LEFL  Drug46379  16.648  19.709  18.325 -0.1305 -0.0438  0.0710
 3894LEFL  Drug46380  16.538  19.742  18.118  0.0023 -0.1904 -0.0242
 3895LEFL  Drug46381  15.736  16.887  21.358  0.4245  0.1072  0.0584
 3895LEFL  Drug46382  15.932  17.077  21.254  0.3811  0.1535  0.0608
 3895LEFL  Drug46383  16.060  16.935  21.224  0.3066  0.1414 -0.2169
 3895LEFL  Drug46384  16.141  16.708  21.293  0.2419 -0.5967 -0.2863
 3895LEFL  Drug46385  16.147  16.556  21.510  0.2901  0.1304 -0.2667
 3895LEFL  Drug46386  15.869  16.647  21.581  0.1620 -0.3140 -0.1819
 3895LEFL  Drug46387  16.142  16.659  21.706  0.1481 -0.0497 -0.1747
 3895LEFL  Drug46388  16.032  16.748  21.897  0.0932 -0.0548 -0.2037
 3896LEFL  Drug46389  17.803  19.410  20.707  0.1251 -0.3046 -0.1864
 3896LEFL  Drug46390  17.553  19.284  20.792 -0.0572  0.2167  0.0763
 3896LEFL  Drug46391  17.617  19.111  20.734 -0.3572  0.0298  0.2910
 3896LEFL  Drug46392  17.766  18.951  20.647 -0.1605  0.3809  0.6247
 3896LEFL  Drug46393  17.786  18.715  20.692 -0.2097  0.1101 -0.2928
 3896LEFL  Drug46394  17.642  18.584  20.463 -0.2471  0.0247 -0.2207
 3896LEFL  Drug46395  17.734  18.504  20.737 -0.3989  0.1908 -0.1206
 3896LEFL  Drug46396  17.617  18.303  20.692  0.0667 -0.0853 -0.1284
 3897LEFL  Drug46397  20.245  17.050  16.397 -0.3709 -0.3575 -0.5281
 3897LEFL  Drug46398  20.132  17.207  16.178 -0.6004 -0.2273 -0.3185
 3897LEFL  Drug46399  19.952  17.163  16.234 -0.5829  0.4888  0.3912
 3897LEFL  Drug46400  19.764  17.265  16.109  0.3885 -0.1743  0.0782
 3897LEFL  Drug46401  19.537  17.335  16.173  0.4718  0.5222 -0.1219
 3897LEFL  Drug46402  19.468  17.306  15.882  0.1198  0.4094 -0.0296
 3897LEFL  Drug46403  19.361  17.459  16.117 -0.1487 -0.1629  0.2292
 3897LEFL  Drug46404  19.226  17.560  15.951  0.0976 -0.1842  0.0133
 3898LEFL  Drug46405  14.441  17.588  20.817 -0.0077  0.3650  0.2293
 3898LEFL  Drug46406  14.281  17.729  20.617  0.2166  0.5330  0.1662
 3898LEFL  Drug46407  14.123  17.712  20.726  0.0927  0.4391 -0.0263
 3898LEFL  Drug46408  13.888  17.746  20.787  0.0574  0.0896 -0.0058
 3898LEFL  Drug46409  13.807  17.709  21.011 -0.1333 -0.1140 -0.1596
 3898LEFL  Drug46410  13.607  17.787  21.222 -0.0488 -0.1490 -0.0657
 3898LEFL  Drug46411  13.789  17.555  21.170  0.1981  0.0243  0.0171
 3898LEFL  Drug46412  13.734  17.502  21.394 -0.0366 -0.1672 -0.0831
 3899LEFL  Drug46413  17.752  16.193  15.737  0.1507 -0.1662 -0.2250
 3899LEFL  Drug46414  17.785  16.478  15.681  0.2577 -0.1500 -0.0828
 3899LEFL  Drug46415  17.811  16.442  15.493  0.3448 -0.0746 -0.0856
 3899LEFL  Drug46416  17.696  16.479  15.283 -0.2712 -0.0911 -0.1801
 3899LEFL  Drug46417  17.469  16.581  15.219 -0.1716  0.0733 -0.1294
 3899LEFL  Drug46418  17.535  16.798  15.021 -0.3008  0.5359  0.3234
 3899LEFL  Drug46419  17.348  16.764  15.253 -0.0505  0.0522  0.4596
 3899LEFL  Drug46420  17.308  16.996  15.223  0.0153  0.0105  0.0240
 3900LEFL  Drug46421  16.841  14.320  19.773 -0.0960 -0.0044  0.2400
 3900LEFL  Drug46422  16.767  14.166  20.011 -0.0717  0.1950  0.3785
 3900LEFL  Drug46423  16.931  14.216  20.099 -0.0101  0.1775  0.2750
 3900LEFL  Drug46424  17.014  14.368  20.281 -0.0073  0.1326 -0.4290
 3900LEFL  Drug46425  17.108  14.590  20.271  0.2875 -0.1905  0.1157
 3900LEFL  Drug46426  16.960  14.632  20.013  0.3552 -0.6342  0.0006
 3900LEFL  Drug46427  17.205  14.744  20.144  0.0245 -0.0232  0.1145
 3900LEFL  Drug46428  17.211  14.905  19.970  0.1385  0.2284  0.3478
 3901LEFL  Drug46429  19.794  16.688  17.947 -0.1993 -0.2295  0.1418
 3901LEFL  Drug46430  19.720  16.479  17.755 -0.3167 -0.1551  0.1059
 3901LEFL  Drug46431  19.756  16.341  17.885 -0.3793 -0.1988  0.0772
 3901LEFL  Drug46432  19.684  16.379  18.140 -0.1498 -0.1618 -0.2922
 3901LEFL  Drug46433  19.791  16.427  18.353 -0.1698 -0.1826 -0.0969
 3901LEFL  Drug46434  20.034  16.277  18.257 -0.0962  0.0168 -0.2247
 3901LEFL  Drug46435  19.884  16.307  18.515 -0.1325 -0.3038 -0.2075
 3901LEFL  Drug46436  20.065  16.179  18.600  0.0209  0.1395  0.1500
 3902LEFL  Drug46437  18.176  18.755  20.572  0.5091  0.2494  0.2144
 3902LEFL  Drug46438  18.140  18.684  20.854  0.1491 -0.4737 -0.0037
 3902LEFL  Drug46439  18.268  18.817  20.908 -0.2674 -0.2748  0.5377
 3902LEFL  Drug46440  18.355  19.052  20.996 -0.0307 -0.1701  0.1600
 3902LEFL  Drug46441  18.525  19.232  20.990 -0.1143 -0.2358  0.3306
 3902LEFL  Drug46442  18.698  19.011  21.098 -0.0173 -0.1742  0.3021
 3902LEFL  Drug46443  18.736  19.253  20.924 -0.2308 -0.4446 -0.1296
 3902LEFL  Drug46444  18.944  19.151  20.873 -0.2008 -0.2690 -0.3618
 3903LEFL  Drug46445  14.809  17.009  16.598 -0.1489 -0.3092 -0.6813
 3903LEFL  Drug46446  14.883  16.764  16.740 -0.0263  0.1254  0.0310
 3903LEFL  Drug46447  14.962  16.866  16.884 -0.4843  0.5849 -0.0311
 3903LEFL  Drug46448  15.176  16.898  16.993 -0.2401  0.0533 -0.1077
 3903LEFL  Drug46449  15.297  16.728  17.131  0.1714  0.1765  0.1053
 3903LEFL  Drug46450  15.410  16.584  17.369  0.6622  0.3472 -0.0177
 3903LEFL  Drug46451  15.154  16.579  17.213  0.4110  0.0983  0.3910
 3903LEFL  Drug46452  15.079  16.448  17.395 -0.1334 -0.3521 -0.1390
 3904LEFL  Drug46453  20.605  18.448  16.096 -0.2406  0.5366  0.2109
 3904LEFL  Drug46454  20.370  18.280  16.145  0.0836 -0.0402 -0.1545
 3904LEFL  Drug46455  20.253  18.415  16.070 -0.2264  0.0950  0.5334
 3904LEFL  Drug46456  20.076  18.417  15.889  0.1289 -0.3580 -0.1435
 3904LEFL  Drug46457  19.975  18.229  15.771 -0.5969 -0.3955  0.2045
 3904LEFL  Drug46458  20.028  18.027  15.988  0.4536 -0.3294  0.0358
 3904LEFL  Drug46459  20.034  18.032  15.688 -0.2224 -0.2120  0.0176
 3904LEFL  Drug46460  20.058  17.796  15.704 -0.4073 -0.2315  0.0244
 3905LEFL  Drug46461  17.761  15.117  20.289  0.0710 -0.2394 -0.0096
 3905LEFL  Drug46462  17.949  15.342  20.290  0.0455 -0.2177 -0.1093
 3905LEFL  Drug46463  18.090  15.230  20.221  0.0781 -0.2496  0.0084
 3905LEFL  Drug46464  18.074  15.250  19.974  0.4729 -0.3054 -0.4035
 3905LEFL  Drug46465  18.216  15.105  19.827 -0.2035  0.1049  0.0311
 3905LEFL  Drug46466  17.947  15.040  19.708 -0.3000  0.3263  0.1262
 3905LEFL  Drug46467  18.206  15.156  19.611 -0.1799 -0.0475 -0.0070
 3905LEFL  Drug46468  18.111  15.126  19.396 -0.1447  0.0243 -0.0324
 3906LEFL  Drug46469  19.888  18.453  18.100 -0.2233  0.3456 -0.0623
 3906LEFL  Drug46470  19.718  18.229  18.181  0.0197  0.1274 -0.1466
 3906LEFL  Drug46471  19.568  18.303  18.084 -0.1953  0.2487  0.2677
 3906LEFL  Drug46472  19.486  18.524  17.985 -0.2028  0.1832 -0.3508
 3906LEFL  Drug46473  19.264  18.534  17.866  0.3572  0.3293 -0.2782
 3906LEFL  Drug46474  19.140  18.728  17.671 -0.4337  0.0610 -0.0616
 3906LEFL  Drug46475  19.168  18.430  17.695  0.0071  0.1067  0.0467
 3906LEFL  Drug46476  19.113  18.420  17.465  0.1183 -0.0254  0.0251
 3907LEFL  Drug46477  14.521  17.564  20.085 -0.0609  0.5268 -0.0103
 3907LEFL  Drug46478  14.324  17.744  20.206 -0.5586  0.1947 -0.3077
 3907LEFL  Drug46479  14.209  17.596  20.249 -0.0402 -0.0887  0.1625
 3907LEFL  Drug46480  13.988  17.667  20.297  0.0792 -0.0092  0.4171
 3907LEFL  Drug46481  13.796  17.563  20.152  0.2128  0.3035  0.2251
 3907LEFL  Drug46482  13.602  17.737  20.302  0.4053  0.4304  0.3291
 3907LEFL  Drug46483  13.689  17.703  20.017  0.0231  0.1740  0.2397
 3907LEFL  Drug46484  13.484  17.799  19.948  0.0047 -0.1082 -0.1110
 3908LEFL  Drug46485  17.773  17.983  20.961 -0.1988  0.2088 -0.1560
 3908LEFL  Drug46486  17.602  17.793  20.818 -0.0177  0.2072 -0.3719
 3908LEFL  Drug46487  17.559  17.702  20.982 -0.3348  0.2921 -0.4052
 3908LEFL  Drug46488  17.704  17.489  21.100 -0.0547  0.1711  0.0939
 3908LEFL  Drug46489  17.873  17.440  21.285 -0.2243  0.0086  0.6074
 3908LEFL  Drug46490  18.027  17.226  21.430  0.2253 -0.0605  0.0452
 3908LEFL  Drug46491  18.088  17.490  21.301 -0.1595 -0.0153 -0.0529
 3908LEFL  Drug46492  18.316  17.440  21.344 -0.1906  0.1513  0.3257
 3909LEFL  Drug46493  14.690  18.527  16.737  0.0051 -0.1406  0.1589
 3909LEFL  Drug46494  14.630  18.605  16.461  0.0883 -0.6112  0.0036
 3909LEFL  Drug46495  14.683  18.788  16.497  0.4566 -0.6300 -0.3994
 3909LEFL  Drug46496  14.735  18.987  16.408 -0.3903 -0.3351  0.1080
 3909LEFL  Drug46497  14.976  19.017  16.375  0.2835  0.0276  0.1529
 3909LEFL  Drug46498  14.998  18.723  16.316  0.4007  0.0994 -0.1727
 3909LEFL  Drug46499  15.092  18.910  16.531  0.3106 -0.1026  0.0441
 3909LEFL  Drug46500  15.167  18.704  16.621  0.0904 -0.2979 -0.2077
 3910LEFL  Drug46501  19.035  14.878  19.981  0.2634  0.0707 -0.1751
 3910LEFL  Drug46502  18.778  14.736  19.974  0.3940 -0.1782 -0.0011
 3910LEFL  Drug46503  18.682  14.901  20.003  0.2427 -0.2385 -0.1558
 3910LEFL  Drug46504  18.730  15.070  20.177 -0.0577 -0.3048  0.4114
 3910LEFL  Drug46505  18.853  15.092  20.385 -0.3143  0.1215 -0.1541
 3910LEFL  Drug46506  18.822  14.897  20.613  0.0041 -0.1105 -0.3065
 3910LEFL  Drug46507  18.976  15.149  20.561 -0.3664  0.1565 -0.1292
 3910LEFL  Drug46508  19.027  15.130  20.792  0.0673  0.2466 -0.2139
 3911LEFL  Drug46509  16.264  19.487  17.425 -0.1148 -0.2389 -0.0487
 3911LEFL  Drug46510  16.320  19.683  17.215 -0.3065 -0.4589 -0.3081
 3911LEFL  Drug46511  16.220  19.819  17.309 -0.1745 -0.3445 -0.3313
 3911LEFL  Drug46512  16.344  20.031  17.340 -0.0534 -0.2169 -0.1122
 3911LEFL  Drug46513  16.470  20.183  17.486  0.1637  0.1236  0.0697
 3911LEFL  Drug46514  16.432  20.481  17.469  0.2876  0.1433  0.1351
 3911LEFL  Drug46515  16.305  20.254  17.616  0.0639  0.1378 -0.0643
 3911LEFL  Drug46516  16.128  20.404  17.664  0.1887  0.3220 -0.1770
 3912LEFL  Drug46517  18.352  17.543  20.981 -0.1370 -0.2663 -0.1274
 3912LEFL  Drug46518  18.064  17.521  20.930 -0.2241  0.2642  0.1085
 3912LEFL  Drug46519  18.090  17.567  20.744 -0.2163 -0.3377 -0.0473
 3912LEFL  Drug46520  18.232  17.576  20.539 -0.1717 -0.0210 -0.3936
 3912LEFL  Drug46521  18.416  17.449  20.435 -0.3316 -0.4667 -0.1602
 3912LEFL  Drug46522  18.574  17.251  20.598  0.1094 -0.0254 -0.0394
 3912LEFL  Drug46523  18.557  17.331  20.310  0.0867 -0.0908 -0.0560
 3912LEFL  Drug46524  18.725  17.168  20.274  0.1107 -0.0425 -0.1651
 3913LEFL  Drug46525  21.584  15.454  18.596  0.2569 -0.3524 -0.1290
 3913LEFL  Drug46526  21.723  15.492  18.341  0.0547  0.1914 -0.1639
 3913LEFL  Drug46527  21.582  15.607  18.277 -0.1080  0.1463  0.1067
 3913LEFL  Drug46528  21.457  15.786  18.213  0.4830 -0.3469 -0.0819
 3913LEFL  Drug46529  21.506  16.023  18.188 -0.3603 -0.0996  0.1135
 3913LEFL  Drug46530  21.522  16.044  17.889 -0.2215 -0.2663  0.1084
 3913LEFL  Drug46531  21.343  16.149  18.105 -0.1906  0.0386 -0.0118
 3913LEFL  Drug46532  21.214  16.236  17.927 -0.2275 -0.3084 -0.1569
 3914LEFL  Drug46533  18.852  16.173  19.613  0.1398  0.2647 -0.1555
 3914LEFL  Drug46534  18.599  16.318  19.643  0.1092  0.1192  0.3219
 3914LEFL  Drug46535  18.529  16.180  19.759  0.2069 -0.1892  0.0213
 3914LEFL  Drug46536  18.423  15.980  19.871  0.0233 -0.2922 -0.4940
 3914LEFL  Drug46537  18.420  15.843  20.090 -0.1599 -0.1017  0.0843
 3914LEFL  Drug46538  18.565  15.769  20.343  0.2996  0.0165 -0.1398
 3914LEFL  Drug46539  18.598  15.717  20.049 -0.2544 -0.1542 -0.1769
 3914LEFL  Drug46540  18.744  15.547  20.126 -0.0471  0.1583  0.1355
 3915LEFL  Drug46541  14.690  17.327  20.795 -0.4839 -0.0984  0.1453
 3915LEFL  Drug46542  14.670  17.449  21.061 -0.2984 -0.3008  0.2534
 3915LEFL  Drug46543  14.730  17.285  21.145  0.2429 -0.2134  0.0562
 3915LEFL  Drug46544  14.950  17.265  21.235 -0.2558 -0.2543  0.2504
 3915LEFL  Drug46545  15.057  17.147  21.430  0.0469 -0.3082 -0.1131
 3915LEFL  Drug46546  14.870  17.154  21.665 -0.2480 -0.3410 -0.3435
 3915LEFL  Drug46547  15.165  17.123  21.622 -0.1347  0.1350  0.0505
 3915LEFL  Drug46548  15.181  17.157  21.856 -0.1510  0.1421  0.0509
 3916LEFL  Drug46549  15.240  16.244  15.577 -0.2479 -0.0537  0.3420
 3916LEFL  Drug46550  15.510  16.307  15.669 -0.1397  0.1769 -0.1151
 3916LEFL  Drug46551  15.560  16.120  15.663 -0.1615  0.1512  0.3183
 3916LEFL  Drug46552  15.695  15.917  15.722 -0.1172 -0.2308 -0.2054
 3916LEFL  Drug46553  15.912  15.916  15.610  0.0209 -0.3886 -0.2422
 3916LEFL  Drug46554  16.037  15.919  15.336  0.2265 -0.0071 -0.1465
 3916LEFL  Drug46555  16.125  15.856  15.616  0.0987 -0.1035 -0.1271
 3916LEFL  Drug46556  16.338  15.830  15.515  0.1577  0.0582 -0.0477
 3917LEFL  Drug46557  19.264  17.075  18.216 -0.0207 -0.1700 -0.0418
 3917LEFL  Drug46558  19.089  16.948  18.018  0.3473 -0.0389 -0.4577
 3917LEFL  Drug46559  19.160  17.059  17.877  0.2124  0.4499 -0.1487
 3917LEFL  Drug46560  19.065  17.066  17.647  0.2037 -0.0897 -0.0211
 3917LEFL  Drug46561  19.035  16.931  17.461  0.0642 -0.0366  0.1319
 3917LEFL  Drug46562  18.757  17.016  17.382  0.0164  0.0673  0.4055
 3917LEFL  Drug46563  19.037  17.073  17.290 -0.0602 -0.2042 -0.0110
 3917LEFL  Drug46564  18.951  17.264  17.180  0.0850 -0.2123 -0.1389
 3918LEFL  Drug46565  17.916  19.966  20.145 -0.1017 -0.0332 -0.0156
 3918LEFL  Drug46566  18.172  20.099  20.098 -0.0294 -0.0503  0.3180
 3918LEFL  Drug46567  18.248  19.937  20.026 -0.2353  0.1731 -0.4485
 3918LEFL  Drug46568  18.390  19.780  19.879 -0.1520  0.1653 -0.1253
 3918LEFL  Drug46569  18.521  19.575  19.873  0.2675  0.1210 -0.3159
 3918LEFL  Drug46570  18.724  19.385  19.759  0.0753  0.0311 -0.5101
 3918LEFL  Drug46571  18.425  19.408  19.763  0.0810  0.0574 -0.0618
 3918LEFL  Drug46572  18.429  19.198  19.654  0.2219  0.1170 -0.1729
 3919LEFL  Drug46573  15.819  17.801  19.548  0.0943  0.1306  0.2754
 3919LEFL  Drug46574  15.712  18.016  19.715  0.0099  0.3957 -0.1139
 3919LEFL  Drug46575  15.714  17.902  19.871  0.0936  0.6889  0.1049
 3919LEFL  Drug46576  15.570  17.888  20.087  0.1555 -0.0562 -0.3824
 3919LEFL  Drug46577  15.611  18.049  20.281  0.0520  0.4736 -0.1487
 3919LEFL  Drug46578  15.715  18.302  20.406 -0.2870  0.4409  0.2096
 3919LEFL  Drug46579  15.811  18.020  20.372  0.0003  0.5627 -0.0048
 3919LEFL  Drug46580  16.016  18.110  20.451  0.3184  0.0479 -0.2201
 3920LEFL  Drug46581  15.837  18.759  20.965  0.1032  0.1250 -0.0100
 3920LEFL  Drug46582  15.560  18.817  20.890  0.1322  0.2716 -0.0044
 3920LEFL  Drug46583  15.502  18.644  20.954  0.0889  0.1891 -0.2606
 3920LEFL  Drug46584  15.533  18.475  21.135  0.5416 -0.2734  0.2419
 3920LEFL  Drug46585  15.361  18.309  21.196  0.0458 -0.4258 -0.3151
 3920LEFL  Drug46586  15.180  18.069  21.190 -0.3773 -0.1228  0.0118
 3920LEFL  Drug46587  15.155  18.362  21.134  0.0170 -0.0771  0.0615
 3920LEFL  Drug46588  14.930  18.303  21.088  0.0001  0.1574 -0.1636
 3921LEFL  Drug46589  16.464  18.743  19.809  0.0378 -0.2566 -0.2225
 3921LEFL  Drug46590  16.352  18.495  19.701 -0.1396 -0.4465  0.3797
 3921LEFL  Drug46591  16.178  18.577  19.682  0.0194 -0.2275 -0.2191
 3921LEFL  Drug46592  16.039  18.588  19.899 -0.5141  0.5320  0.2382
 3921LEFL  Drug46593  16.146  18.601  20.113 -0.3946  0.0176  0.0060
 3921LEFL  Drug46594  16.252  18.391  20.300 -0.6218 -0.1630 -0.0659
 3921LEFL  Drug46595  16.368  18.595  20.113 -0.3857  0.1933  0.4573
 3921LEFL  Drug46596  16.576  18.551  20.218 -0.2320 -0.2667 -0.0190
 3922LEFL  Drug46597  19.099  18.896  20.637  0.5047  0.1154 -0.0542
 3922LEFL  Drug46598  19.274  19.079  20.490  0.4177  0.1996 -0.0533
 3922LEFL  Drug46599  19.121  19.164  20.407  0.3763  0.1463 -0.0315
 3922LEFL  Drug46600  18.908  19.285  20.469 -0.1124  0.4574 -0.0128
 3922LEFL  Drug46601  18.676  19.310  20.367 -0.2813  0.1169  0.0224
 3922LEFL  Drug46602  18.668  19.188  20.092 -0.4257 -0.7314  0.3892
 3922LEFL  Drug46603  18.470  19.309  20.283 -0.4177 -0.6324  0.3352
 3922LEFL  Drug46604  18.318  19.292  20.102 -0.0143 -0.0865 -0.0711
 3923LEFL  Drug46605  20.027  17.320  17.097 -0.0322  0.3413  0.4101
 3923LEFL  Drug46606  20.098  17.128  17.306  0.1873 -0.3571 -0.2821
 3923LEFL  Drug46607  20.270  17.212  17.330 -0.1507  0.1735  0.4575
 3923LEFL  Drug46608  20.443  17.006  17.284 -0.2365 -0.1750  0.3209
 3923LEFL  Drug46609  20.391  16.787  17.343  0.0004  0.5124  0.3694
 3923LEFL  Drug46610  20.104  16.696  17.359  0.0453  0.2687 -0.1223
 3923LEFL  Drug46611  20.353  16.660  17.522 -0.0378 -0.1286 -0.0783
 3923LEFL  Drug46612  20.214  16.528  17.661 -0.1091 -0.0716 -0.0966
 3924LEFL  Drug46613  19.440  16.304  16.916  0.0953 -0.1380  0.1335
 3924LEFL  Drug46614  19.284  16.100  17.057 -0.1596 -0.1486 -0.1583
 3924LEFL  Drug46615  19.120  16.167  16.981 -0.0709  0.1317 -0.1078
 3924LEFL  Drug46616  19.015  16.278  16.776 -0.3219  0.0457  0.5242
 3924LEFL  Drug46617  19.026  16.465  16.619  0.2791  0.2376  0.2434
 3924LEFL  Drug46618  19.253  16.390  16.436 -0.2625 -0.3266 -0.2195
 3924LEFL  Drug46619  19.016  16.574  16.426  0.2596  0.4043  0.3378
 3924LEFL  Drug46620  19.119  16.655  16.228  0.0444 -0.1240  0.0012
 3925LEFL  Drug46621  17.949  18.343  16.097  0.0265  0.3679 -0.1287
 3925LEFL  Drug46622  17.658  18.352  16.127  0.0313 -0.0423  0.0944
 3925LEFL  Drug46623  17.655  18.174  16.201  0.3363 -0.0579  0.0725
 3925LEFL  Drug46624  17.625  17.923  16.165  0.3899 -0.1522  0.3210
 3925LEFL  Drug46625  17.717  17.724  16.050  0.0986  0.1245  0.0985
 3925LEFL  Drug46626  17.859  17.571  16.267  0.1253  0.2289  0.1545
 3925LEFL  Drug46627  17.929  17.684  15.998 -0.0374 -0.3329 -0.1302
 3925LEFL  Drug46628  18.155  17.673  16.068 -0.0943  0.4047  0.2052
 3926LEFL  Drug46629  16.529  19.170  16.711 -0.1715  0.1120 -0.0144
 3926LEFL  Drug46630  16.450  18.891  16.664  0.1138  0.0302 -0.0149
 3926LEFL  Drug46631  16.635  18.838  16.645  0.1607  0.2545 -0.2069
 3926LEFL  Drug46632  16.888  18.890  16.714  0.1914 -0.0600  0.0531
 3926LEFL  Drug46633  17.105  18.761  16.708  0.3333 -0.1248 -0.0622
 3926LEFL  Drug46634  17.308  18.937  16.844 -0.0573  0.0942  0.2476
 3926LEFL  Drug46635  17.105  18.733  16.929  0.1943 -0.2990 -0.0837
 3926LEFL  Drug46636  17.207  18.772  17.139  0.1594  0.1689 -0.1478
 3927LEFL  Drug46637  16.634  17.424  22.560 -0.0555  0.1017 -0.1188
 3927LEFL  Drug46638  16.715  17.142  22.561 -0.0617  0.0997 -0.1600
 3927LEFL  Drug46639  16.605  17.106  22.407 -0.0799  0.1197 -0.1516
 3927LEFL  Drug46640  16.506  17.035  22.210 -0.0529  0.0339  0.1335
 3927LEFL  Drug46641  16.344  17.112  22.013  0.4254  0.0735 -0.3236
 3927LEFL  Drug46642  16.549  17.085  21.794  0.1743 -0.6139 -0.4880
 3927LEFL  Drug46643  16.250  17.071  21.816  0.1601 -0.0031 -0.1834
 3927LEFL  Drug46644  16.255  17.004  21.589  0.1252  0.1502 -0.2301
 3928LEFL  Drug46645  16.213  16.259  21.251  0.3248 -0.2921 -0.1157
 3928LEFL  Drug46646  16.058  16.010  21.249  0.1078 -0.1652  0.2661
 3928LEFL  Drug46647  16.126  15.962  21.423  0.2938 -0.0940  0.2147
 3928LEFL  Drug46648  16.294  15.815  21.559 -0.0660 -0.3465  0.0908
 3928LEFL  Drug46649  16.524  15.715  21.532  0.3175  0.1021 -0.1693
 3928LEFL  Drug46650  16.663  15.530  21.340  0.2686  0.0916 -0.1947
 3928LEFL  Drug46651  16.701  15.617  21.625 -0.1395 -0.5329  0.0595
 3928LEFL  Drug46652  16.870  15.451  21.626  0.0908 -0.3000  0.2597
 3929LEFL  Drug46653  14.296  16.112  20.478 -0.1576  0.1994  0.4470
 3929LEFL  Drug46654  14.517  16.304  20.497 -0.0446  0.1629 -0.3547
 3929LEFL  Drug46655  14.647  16.162  20.477 -0.1038 -0.1288  0.9489
 3929LEFL  Drug46656  14.715  15.941  20.390  0.0081 -0.4275 -0.0117
 3929LEFL  Drug46657  14.755  15.797  20.189 -0.1949  0.4652 -0.2551
 3929LEFL  Drug46658  15.043  15.768  20.105 -0.1598 -0.0014  0.0162
 3929LEFL  Drug46659  14.777  15.787  19.968 -0.0067  0.4020 -0.2335
 3929LEFL  Drug46660  14.887  15.685  19.785  0.1608 -0.1031  0.1376
 3930LEFL  Drug46661  16.002  16.723  20.420  0.5518  0.0078 -0.3613
 3930LEFL  Drug46662  16.074  17.005  20.389  0.1284  0.1639  0.0351
 3930LEFL  Drug46663  15.909  17.060  20.473  0.0817 -0.2012  0.1913
 3930LEFL  Drug46664  15.874  17.313  20.367 -0.0205  0.7006 -0.1925
 3930LEFL  Drug46665  15.682  17.421  20.253  0.2732  0.0852 -0.2927
 3930LEFL  Drug46666  15.785  17.271  20.014 -0.2463  0.3781 -0.7125
 3930LEFL  Drug46667  15.608  17.508  20.063 -0.1910  0.2892 -0.0281
 3930LEFL  Drug46668  15.617  17.514  19.826 -0.3692  0.0016 -0.0453
 3931LEFL  Drug46669  19.995  18.846  18.774  0.3847 -0.2494  0.0934
 3931LEFL  Drug46670  20.162  19.074  18.695  0.2027 -0.1653 -0.0498
 3931LEFL  Drug46671  20.113  19.049  18.510 -0.2045  0.0162  0.0274
 3931LEFL  Drug46672  20.161  19.144  18.298  0.3101  0.2999  0.2004
 3931LEFL  Drug46673  20.057  19.296  18.119  0.2419 -0.2505  0.0828
 3931LEFL  Drug46674  19.819  19.390  18.276  0.2303 -0.1332 -0.0035
 3931LEFL  Drug46675  20.033  19.516  18.109  0.3967 -0.2309  0.1354
 3931LEFL  Drug46676  19.979  19.717  18.223 -0.0349 -0.2976  0.0547
 3932LEFL  Drug46677  17.103  19.105  17.237  0.2076  0.0426  0.1254
 3932LEFL  Drug46678  16.814  19.088  17.278  0.2307 -0.2562  0.1787
 3932LEFL  Drug46679  16.800  18.946  17.148  0.2905  0.0404 -0.1576
 3932LEFL  Drug46680  16.622  18.787  17.087  0.5637  0.1609 -0.1323
 3932LEFL  Drug46681  16.556  18.600  16.916  0.1205 -0.1315  0.1395
 3932LEFL  Drug46682  16.594  18.303  16.889  0.2560 -0.0913 -0.1258
 3932LEFL  Drug46683  16.754  18.550  16.829 -0.0529  0.0509 -0.3782
 3932LEFL  Drug46684  16.901  18.410  16.707 -0.0423 -0.1136 -0.1803
 3933LEFL  Drug46685  19.165  15.450  17.151 -0.0608 -0.0745  0.0770
 3933LEFL  Drug46686  19.045  15.316  17.382 -0.1248  0.2320  0.2245
 3933LEFL  Drug46687  18.938  15.471  17.421 -0.0502  0.3268  0.0574
 3933LEFL  Drug46688  18.804  15.626  17.557 -0.4059  0.1746  0.0608
 3933LEFL  Drug46689  18.668  15.654  17.757  0.1504  0.2088  0.3989
 3933LEFL  Drug46690  18.535  15.641  18.026  0.0266  0.3763  0.3467
 3933LEFL  Drug46691  18.594  15.449  17.803  0.3487  0.1795  0.5964
 3933LEFL  Drug46692  18.474  15.294  17.935  0.3423 -0.3803 -0.0429
 3934LEFL  Drug46693  19.625  18.612  17.265 -0.0344  0.1832 -0.0812
 3934LEFL  Drug46694  19.501  18.347  17.287  0.4359 -0.0670 -0.3776
 3934LEFL  Drug46695  19.546  18.338  17.475  0.1433 -0.0407 -0.3042
 3934LEFL  Drug46696  19.712  18.339  17.654  0.0417  0.3945 -0.6420
 3934LEFL  Drug46697  19.929  18.223  17.704  0.0085 -0.0077  0.0558
 3934LEFL  Drug46698  20.199  18.103  17.646 -0.0292 -0.0778  0.0235
 3934LEFL  Drug46699  20.080  18.378  17.654  0.0401 -0.0480  0.0247
 3934LEFL  Drug46700  20.303  18.454  17.633 -0.0357  0.1355 -0.1318
 3935LEFL  Drug46701  19.122  16.573  15.637  0.1060 -0.2688 -0.2162
 3935LEFL  Drug46702  19.268  16.817  15.706  0.1594 -0.3401 -0.0738
 3935LEFL  Drug46703  19.113  16.889  15.795  0.0360 -0.1684 -0.4191
 3935LEFL  Drug46704  19.045  17.058  15.965 -0.2056  0.0491  0.0743
 3935LEFL  Drug46705  19.106  17.126  16.189  0.0285 -0.1010  0.2290
 3935LEFL  Drug46706  19.035  17.335  16.394  0.6608  0.4720 -0.1175
 3935LEFL  Drug46707  19.250  17.128  16.358  0.0370 -0.2580  0.2244
 3935LEFL  Drug46708  19.359  17.237  16.538  0.1296 -0.0046  0.0165
 3936LEFL  Drug46709  17.948  13.228  17.511 -0.0895  0.2102  0.0050
 3936LEFL  Drug46710  17.822  13.145  17.762 -0.0740  0.0406 -0.0430
 3936LEFL  Drug46711  17.781  13.328  17.806  0.3032  0.0524  0.2855
 3936LEFL  Drug46712  17.873  13.550  17.765  0.1278  0.3459  0.5007
 3936LEFL  Drug46713  18.063  13.688  17.696 -0.1998 -0.3200 -0.6446
 3936LEFL  Drug46714  17.868  13.906  17.625 -0.3588 -0.3071 -0.1823
 3936LEFL  Drug46715  18.165  13.882  17.660 -0.3484 -0.1446 -0.1548
 3936LEFL  Drug46716  18.176  14.111  17.603 -0.3801 -0.0760  0.1058
 3937LEFL  Drug46717  17.987  13.955  18.518 -0.2220  0.2345  0.4372
 3937LEFL  Drug46718  18.239  13.845  18.416 -0.3686  0.3238 -0.0294
 3937LEFL  Drug46719  18.182  13.665  18.456 -0.4501  0.2551 -0.4335
 3937LEFL  Drug46720  18.336  13.487  18.535 -0.2127  0.1015 -0.2876
 3937LEFL  Drug46721  18.564  13.470  18.462  0.2865  0.0020  0.1239
 3937LEFL  Drug46722  18.676  13.671  18.656  0.4857  0.3185 -0.3111
 3937LEFL  Drug46723  18.598  13.667  18.366 -0.0712 -0.0716 -0.1638
 3937LEFL  Drug46724  18.605  13.903  18.394 -0.4144 -0.0614 -0.1435
 3938LEFL  Drug46725  19.530  17.876  19.548 -0.1236 -0.1171  0.3992
 3938LEFL  Drug46726  19.310  17.719  19.435  0.1051 -0.2463  0.1266
 3938LEFL  Drug46727  19.377  17.747  19.256  0.0037  0.2626  0.1603
 3938LEFL  Drug46728  19.497  17.635  19.073 -0.2533 -0.0236 -0.1182
 3938LEFL  Drug46729  19.700  17.715  18.969  0.0761 -0.0967  0.0152
 3938LEFL  Drug46730  19.523  17.756  18.729  0.2172 -0.1515 -0.0998
 3938LEFL  Drug46731  19.816  17.775  18.789  0.1580  0.0829  0.1263
 3938LEFL  Drug46732  19.816  17.846  18.563  0.0657 -0.0044  0.0990
 3939LEFL  Drug46733  18.660  15.359  21.003  0.5706 -0.2361  0.0983
 3939LEFL  Drug46734  18.538  15.563  21.174  0.0023 -0.4004 -0.1007
 3939LEFL  Drug46735  18.710  15.646  21.204 -0.2487  0.2414 -0.3587
 3939LEFL  Drug46736  18.837  15.847  21.122 -0.0752  0.4234 -0.1502
 3939LEFL  Drug46737  19.054  15.944  21.144 -0.2663  0.1960  0.4384
 3939LEFL  Drug46738  19.270  15.932  20.935 -0.3837 -0.0151  0.3282
 3939LEFL  Drug46739  19.245  16.032  21.216 -0.2197  0.2515  0.2497
 3939LEFL  Drug46740  19.473  16.091  21.188 -0.1622 -0.0962 -0.0590
 3940LEFL  Drug46741  17.282  14.190  17.466  0.1391  0.3934  0.1631
 3940LEFL  Drug46742  17.050  14.015  17.429  0.4555 -0.0287  0.1388
 3940LEFL  Drug46743  16.996  14.041  17.612  0.0941  0.3101 -0.0086
 3940LEFL  Drug46744  16.983  14.037  17.868  0.0503 -0.1414 -0.1296
 3940LEFL  Drug46745  16.932  14.160  18.077  0.2040 -0.5383 -0.2573
 3940LEFL  Drug46746  16.825  14.129  18.357 -0.1504  0.4303 -0.2691
 3940LEFL  Drug46747  17.091  14.184  18.230  0.0778 -0.3483 -0.1546
 3940LEFL  Drug46748  17.157  14.218  18.455  0.2651 -0.2434 -0.2236
 3941LEFL  Drug46749  21.456  16.143  17.533  0.0077  0.0914 -0.1014
 3941LEFL  Drug46750  21.446  16.398  17.677  0.0820 -0.0640  0.1826
 3941LEFL  Drug46751  21.305  16.462  17.562  0.0548  0.0794  0.2941
 3941LEFL  Drug46752  21.062  16.461  17.508 -0.3968 -0.0708  0.1786
 3941LEFL  Drug46753  20.916  16.378  17.332  0.0061 -0.0048 -0.2289
 3941LEFL  Drug46754  20.708  16.569  17.229 -0.2050 -0.0762  0.0587
 3941LEFL  Drug46755  20.713  16.329  17.409  0.0774 -0.2710 -0.2043
 3941LEFL  Drug46756  20.477  16.318  17.400  0.0559  0.1994 -0.3339
 3942LEFL  Drug46757  17.618  19.887  17.504 -0.3545 -0.0688 -0.0982
 3942LEFL  Drug46758  17.455  19.663  17.600 -0.5298 -0.0185 -0.2751
 3942LEFL  Drug46759  17.496  19.560  17.442 -0.0463 -0.1960 -0.0450
 3942LEFL  Drug46760  17.719  19.444  17.471  0.3828  0.4204  0.2127
 3942LEFL  Drug46761  17.925  19.435  17.388 -0.2134 -0.1741 -0.0403
 3942LEFL  Drug46762  17.992  19.269  17.147 -0.6039  0.0707 -0.3234
 3942LEFL  Drug46763  18.010  19.558  17.224 -0.5295  0.0009 -0.0767
 3942LEFL  Drug46764  18.083  19.588  17.001  0.2982  0.2712  0.2135
 3943LEFL  Drug46765  17.158  20.114  21.509 -0.4689 -0.5704  0.2634
 3943LEFL  Drug46766  17.030  20.196  21.259  0.3680  0.2855  0.0886
 3943LEFL  Drug46767  17.018  20.013  21.200 -0.7061  0.3380  0.0592
 3943LEFL  Drug46768  17.087  19.813  21.107 -0.3099  0.2982  0.0147
 3943LEFL  Drug46769  17.023  19.693  20.905 -0.1347 -0.2968  0.0549
 3943LEFL  Drug46770  16.737  19.601  20.914 -0.2106 -0.0981 -0.2511
 3943LEFL  Drug46771  16.903  19.780  20.740  0.1419 -0.3498 -0.1790
 3943LEFL  Drug46772  16.731  19.755  20.579 -0.1362 -0.1316  0.0798
 3944LEFL  Drug46773  15.599  17.276  16.632 -0.5606  0.1324 -0.7314
 3944LEFL  Drug46774  15.500  17.541  16.711 -0.1216  0.0817  0.0309
 3944LEFL  Drug46775  15.626  17.548  16.857  0.0523 -0.4477 -0.0820
 3944LEFL  Drug46776  15.554  17.707  17.039  0.0706 -0.0390  0.3484
 3944LEFL  Drug46777  15.615  17.870  17.221 -0.2955  0.2247  0.2344
 3944LEFL  Drug46778  15.648  18.064  17.449  0.0394  0.1473  0.2531
 3944LEFL  Drug46779  15.739  18.044  17.164 -0.1390  0.1021  0.1986
 3944LEFL  Drug46780  15.828  18.259  17.212 -0.1709  0.1915 -0.1286
 3945LEFL  Drug46781  19.016  16.284  21.028 -0.1705  0.2044  0.1426
 3945LEFL  Drug46782  18.753  16.406  21.070 -0.0968  0.4842 -0.1828
 3945LEFL  Drug46783  18.672  16.282  20.947 -0.1155  0.4162 -0.1019
 3945LEFL  Drug46784  18.557  16.083  20.882 -0.0196 -0.3611  0.1000
 3945LEFL  Drug46785  18.471  16.088  20.636 -0.4048  0.2797 -0.1501
 3945LEFL  Drug46786  18.345  16.057  20.364  0.0991  0.0386 -0.3619
 3945LEFL  Drug46787  18.616  16.128  20.472 -0.0790  0.0581  0.0791
 3945LEFL  Drug46788  18.680  16.119  20.244 -0.0970 -0.1432  0.0812
 3946LEFL  Drug46789  18.647  14.553  19.381  0.0559 -0.2976  0.3487
 3946LEFL  Drug46790  18.883  14.653  19.522 -0.0444 -0.0275  0.3284
 3946LEFL  Drug46791  18.994  14.622  19.367  0.0804 -0.3905  0.4841
 3946LEFL  Drug46792  18.957  14.790  19.192  0.1748  0.1519  0.0261
 3946LEFL  Drug46793  18.994  14.871  18.969 -0.3030 -0.0932  0.2535
 3946LEFL  Drug46794  18.755  14.712  18.879 -0.3326  0.1597 -0.1241
 3946LEFL  Drug46795  18.894  14.964  18.794  0.1777 -0.0831 -0.0232
 3946LEFL  Drug46796  18.753  14.957  18.604 -0.1280  0.2896  0.1856
 3947LEFL  Drug46797  16.062  20.825  18.729  0.0859 -0.0655 -0.1874
 3947LEFL  Drug46798  16.246  20.818  18.956 -0.0813 -0.1008 -0.0525
 3947LEFL  Drug46799  16.250  20.625  18.952 -0.0369 -0.0992 -0.1140
 3947LEFL  Drug46800  16.468  20.515  19.008  0.0409  0.1781  0.1420
 3947LEFL  Drug46801  16.696  20.502  18.886  0.1893  0.0007 -0.1443
 3947LEFL  Drug46802  16.651  20.206  18.858  0.2126 -0.0058 -0.1145
 3947LEFL  Drug46803  16.870  20.384  18.959 -0.1404 -0.0049  0.6839
 3947LEFL  Drug46804  16.997  20.184  18.963 -0.2840 -0.1210  0.0116
 3948LEFL  Drug46805  18.382  14.186  19.175  0.3969  0.3720 -0.3576
 3948LEFL  Drug46806  18.172  14.386  19.216 -0.0416 -0.1796  0.1813
 3948LEFL  Drug46807  18.299  14.509  19.294 -0.2458  0.0045  0.2291
 3948LEFL  Drug46808  18.360  14.757  19.213  0.0363 -0.1328  0.1576
 3948LEFL  Drug46809  18.353  14.934  19.044 -0.0299  0.0221 -0.0902
 3948LEFL  Drug46810  18.625  15.057  19.012 -0.0092  0.0787  0.2852
 3948LEFL  Drug46811  18.342  15.134  18.948  0.0607  0.0183 -0.1085
 3948LEFL  Drug46812  18.451  15.307  18.828  0.2234 -0.1042 -0.1392
 3949LEFL  Drug46813  17.316  18.289  19.933 -0.0130 -0.2914  0.0524
 3949LEFL  Drug46814  17.106  18.460  19.820 -0.1725 -0.3729  0.2222
 3949LEFL  Drug46815  17.225  18.612  19.820 -0.2606 -0.3039  0.2135
 3949LEFL  Drug46816  17.121  18.763  19.628 -0.2894 -0.1443  0.0658
 3949LEFL  Drug46817  17.143  18.977  19.518  0.4634  0.1272 -0.2931
 3949LEFL  Drug46818  17.018  19.125  19.287 -0.1065  0.0030 -0.0719
 3949LEFL  Drug46819  17.125  19.194  19.559  0.0310  0.0677 -0.1418
 3949LEFL  Drug46820  17.118  19.421  19.493 -0.0273  0.0531 -0.1858
 3950LEFL  Drug46821  19.520  15.816  20.087 -0.4132  0.1201 -0.5674
 3950LEFL  Drug46822  19.519  15.525  20.062  0.1068  0.0579  0.0348
 3950LEFL  Drug46823  19.617  15.535  19.896 -0.1644 -0.0883 -0.1383
 3950LEFL  Drug46824  19.636  15.708  19.728  0.0608 -0.0297 -0.0727
 3950LEFL  Drug46825  19.575  15.939  19.686  0.0425 -0.1807 -0.9154
 3950LEFL  Drug46826  19.309  15.912  19.826  0.4613  0.1696 -0.0121
 3950LEFL  Drug46827  19.437  16.107  19.637  0.1440  0.0926 -0.3127
 3950LEFL  Drug46828  19.228  16.217  19.629  0.1073  0.0515  0.0227
 3951LEFL  Drug46829  19.359  18.261  19.421 -0.6808  0.1095  0.1237
 3951LEFL  Drug46830  19.548  18.485  19.437 -0.0774 -0.3857  0.0715
 3951LEFL  Drug46831  19.489  18.527  19.616  0.0623 -0.2075  0.0772
 3951LEFL  Drug46832  19.286  18.591  19.762 -0.0764  0.5932  0.1737
 3951LEFL  Drug46833  19.097  18.738  19.730 -0.2092 -0.1681  0.3346
 3951LEFL  Drug46834  19.100  19.029  19.651 -0.1867 -0.1694  0.3301
 3951LEFL  Drug46835  19.001  18.772  19.532  0.3163 -0.2445  0.0566
 3951LEFL  Drug46836  18.867  18.918  19.402  0.0608 -0.3705  0.1743
 3952LEFL  Drug46837  17.476  20.627  18.435 -0.1807  0.2415  0.2066
 3952LEFL  Drug46838  17.583  20.770  18.203 -0.0994 -0.1095  0.0256
 3952LEFL  Drug46839  17.764  20.733  18.259 -0.1121  0.2689  0.3346
 3952LEFL  Drug46840  17.940  20.665  18.388  0.1836  0.0718 -0.1235
 3952LEFL  Drug46841  17.968  20.447  18.477 -0.7363  0.2448  0.1947
 3952LEFL  Drug46842  18.128  20.505  18.725  0.0475  0.5552 -0.3639
 3952LEFL  Drug46843  17.936  20.294  18.634  0.1278  0.1719  0.3230
 3952LEFL  Drug46844  17.958  20.211  18.855 -0.1551  0.1494  0.3450
 3953LEFL  Drug46845  15.228  18.536  17.396  0.0567 -0.0358 -0.1145
 3953LEFL  Drug46846  15.387  18.322  17.273  0.0717 -0.2364  0.2491
 3953LEFL  Drug46847  15.247  18.194  17.307 -0.2016 -0.0479 -0.1272
 3953LEFL  Drug46848  15.213  17.979  17.196  0.0672 -0.1501 -0.0294
 3953LEFL  Drug46849  15.000  17.958  17.054 -0.0425  0.0123 -0.0708
 3953LEFL  Drug46850  14.844  18.144  17.231 -0.0164 -0.2285  0.2096
 3953LEFL  Drug46851  14.814  18.028  16.956 -0.0448  0.1668  0.0430
 3953LEFL  Drug46852  14.652  18.191  16.897 -0.2744 -0.0295  0.1265
 3954LEFL  Drug46853  15.439  14.204  18.567  0.2493  0.1002 -0.0667
 3954LEFL  Drug46854  15.613  14.251  18.798  0.1533  0.2314 -0.0204
 3954LEFL  Drug46855  15.466  14.322  18.900 -0.0164 -0.2474  0.0812
 3954LEFL  Drug46856  15.525  14.359  19.138 -0.0964 -0.0480  0.2443
 3954LEFL  Drug46857  15.677  14.316  19.329  0.2357  0.2677  0.7141
 3954LEFL  Drug46858  15.816  14.075  19.444  0.3127 -0.1870 -0.2764
 3954LEFL  Drug46859  15.883  14.291  19.248 -0.0204  0.2167  0.0465
 3954LEFL  Drug46860  16.080  14.163  19.219  0.1767  0.4572  0.2958
 3955LEFL  Drug46861  15.986  17.889  19.199 -0.0752 -0.0711  0.1520
 3955LEFL  Drug46862  16.224  17.744  19.287 -0.1766 -0.1154  0.3580
 3955LEFL  Drug46863  16.305  17.908  19.351 -0.0081 -0.0590  0.0097
 3955LEFL  Drug46864  16.285  17.949  19.587  0.0491 -0.0565 -0.2849
 3955LEFL  Drug46865  16.188  18.074  19.756 -0.0528 -0.2294 -0.1732
 3955LEFL  Drug46866  16.307  18.250  19.970  0.4949 -0.3131 -0.4028
 3955LEFL  Drug46867  16.034  18.147  19.899  0.3029 -0.2641  0.2374
 3955LEFL  Drug46868  15.959  18.255  20.096 -0.1279 -0.0150 -0.0556
 3956W        W46869  32.346   5.663  18.300 -0.1795 -0.2538 -0.1930
 3957W        W46870  22.347   1.142  29.452  0.0845  0.1515  0.1655
 3958W        W46871   6.919  27.095  26.422  0.1650 -0.1720  0.0661
 3959W        W46872  14.672   1.838  20.347  0.0302  0.0425 -0.1774
 3960W        W46873  23.254   6.177  22.659 -0.1498  0.0483 -0.0535
 3961W        W46874   1.719   5.635  18.129 -0.1367 -0.0403 -0.0821
 3962W        W46875  32.251  27.105  20.057  0.0327 -0.0374  0.1963
 3963W        W46876  28.041  11.554  20.789 -0.2917 -0.3982  0.2649
 3964W        W46877  27.700   0.706  18.994 -0.3530  0.0686 -0.2333
 3965W        W46878  30.079   2.457  20.657  0.2308 -0.0746  0.1174
 3966W        W46879   0.339   4.166  21.956  0.0707  0.0328  0.3868
 3967W        W46880   4.101  32.688  23.248 -0.4052  0.0397  0.2059
 3968W        W46881  32.689  25.365  27.962 -0.3203 -0.0099 -0.2486
 3969W        W46882   1.851  33.823  17.027 -0.1027  0.2393  0.1389
 3970W        W46883  32.159   1.477  26.573  0.0285 -0.1628  0.2233
 3971W        W46884  29.060  32.479  29.049  0.0789 -0.1048 -0.0132
 3972W        W46885  28.535  34.002  26.794  0.0670 -0.1394 -0.2271
 3973W        W46886  31.032  22.274  19.595 -0.0316 -0.0324 -0.0666
 3974W        W46887  28.689   5.746  17.015  0.0324  0.0610 -0.0771
 3975W        W46888  28.732   6.061  18.597 -0.3977  0.0455  0.1955
 3976W        W46889  34.445  13.044   9.112  0.3763  0.1660  0.1706
 3977W        W46890  32.276   0.352  17.341  0.0998  0.1929  0.3190
 3978W        W46891  11.911   8.236  23.762 -0.0738  0.2923  0.0389
 3979W        W46892  33.646   8.944  26.562 -0.0230  0.2746  0.0334
 3980W        W46893   2.812  11.708  25.011  0.2051  0.0596 -0.3118
 3981W        W46894   3.337   7.895  25.166 -0.0267  0.1448  0.2502
 3982W        W46895   0.402  25.334  23.805  0.2519 -0.2651  0.1369
 3983W        W46896   2.610  30.876  15.136  0.4499 -0.0229 -0.2883
 3984W        W46897  32.721   6.844  22.307  0.2650  0.2109  0.2572
 3985W        W46898  19.399   7.759  27.811  0.0431 -0.2158  0.2420
 3986W        W46899  13.017   2.035  19.240  0.0425  0.0397 -0.0446
 3987W        W46900   1.657  33.675  16.156 -0.3004 -0.1427  0.1994
 3988W        W46901   3.446   0.915  21.994 -0.0027 -0.1160  0.0320
 3989W        W46902   5.338  26.968  20.504  0.0132  0.1817 -0.1712
 3990W        W46903   5.258   5.810  26.554 -0.0942  0.0689  0.1767
 3991W        W46904   0.281  33.963  23.398 -0.3580  0.2645  0.0157
 3992W        W46905  23.371   9.529  23.160 -0.1822  0.1178 -0.0827
 3993W        W46906  31.128   4.111  17.579  0.2034  0.2994  0.0382
 3994W        W46907   2.501   9.982  17.438 -0.1582 -0.0216  0.1917
 3995W        W46908   1.538  11.524  22.188  0.2397 -0.1408  0.1089
 3996W        W46909   3.610  29.250  25.127  0.0308 -0.7185  0.0224
 3997W        W46910  33.821   6.795  21.634  0.2095  0.0193 -0.1016
 3998W        W46911  31.094  24.115  18.829 -0.1586 -0.3935  0.0334
 3999W        W46912  31.221  27.858  24.032  0.1166 -0.2523  0.0913
 4000W        W46913  32.026   4.471  15.956 -0.2168  0.2141  0.1002
 4001W        W46914  31.727  29.330  16.690 -0.0579 -0.1463 -0.0924
 4002W        W46915  10.725  31.832  16.017 -0.0852 -0.1298 -0.2725
 4003W        W46916  28.689   6.689  16.072 -0.1659 -0.2824 -0.3359
 4004W        W46917   7.221  33.459  17.241 -0.0543  0.0684 -0.0573
 4005W        W46918  24.512   3.970  13.917 -0.1828 -0.2313 -0.4504
 4006W        W46919   1.889  24.996  19.427  0.1737  0.2612 -0.0247
 4007W        W46920   8.182  32.960  18.065 -0.0553 -0.4403 -0.0736
 4008W        W46921  10.975  34.321  18.010 -0.0821  0.3748  0.2278
 4009W        W46922   6.309   4.947  17.702 -0.1898  0.2071  0.3811
 4010W        W46923  28.594  28.232  20.270  0.1945  0.0655  0.4045
 4011W        W46924   3.820  30.976   0.612  0.2680 -0.1105 -0.2537
 4012W        W46925  25.788   1.855  17.197  0.0237 -0.1791  0.0653
 4013W        W46926   5.815   0.174  19.762 -0.3265  0.1550  0.0377
 4014W        W46927   1.330  28.667  17.431 -0.1817 -0.0809  0.1893
 4015W        W46928  14.755   8.232  18.516  0.1123 -0.3662  0.2084
 4016W        W46929   5.227  33.660  18.558 -0.2532 -0.0160  0.0901
 4017W        W46930   2.520  29.439  14.683 -0.2319 -0.2191 -0.1148
 4018W        W46931  15.180   3.485  28.693 -0.0483 -0.0091 -0.2511
 4019W        W46932  34.229   4.106  27.953  0.3859 -0.0474 -0.0593
 4020W        W46933  30.218  25.906  26.951  0.1518  0.0366 -0.1197
 4021W        W46934  10.004   3.068  27.070 -0.1388  0.0796  0.1114
 4022W        W46935   6.083   3.953  19.081  0.1046  0.1231  0.2577
 4023W        W46936  33.993  32.257  24.427  0.0490  0.1405 -0.1427
 4024W        W46937  23.967  33.543  25.390  0.1294 -0.0193 -0.1472
 4025W        W46938   4.329   2.869   0.220 -0.0722 -0.0049 -0.1562
 4026W        W46939   9.047  23.859  22.682 -0.1069  0.3141  0.0374
 4027W        W46940  26.988  27.505  21.529 -0.0340  0.0166  0.0445
 4028W        W46941   6.006  28.869  19.783  0.0158 -0.0899 -0.2000
 4029W        W46942  28.685  10.271  28.973  0.0067  0.0158  0.3802
 4030W        W46943  30.648   7.900  20.454 -0.0186  0.0771  0.1351
 4031W        W46944  30.222   4.984  23.340 -0.1478 -0.3261  0.3302
 4032W        W46945  31.910  29.638  20.819  0.1264  0.0060  0.1924
 4033W        W46946   9.707   2.769  22.231 -0.0232 -0.3158  0.2138
 4034W        W46947  28.436   4.417  17.753 -0.1834  0.2653 -0.2348
 4035W        W46948  10.671   4.795  19.796  0.0289 -0.1432  0.1391
 4036W        W46949  11.365   0.247  20.882  0.3155 -0.4384 -0.1052
 4037W        W46950  15.544  11.318  14.581  0.1702 -0.2414  0.2123
 4038W        W46951  26.989  34.234   1.248 -0.1159  0.0140  0.0436
 4039W        W46952   4.936  31.224  21.397  0.2872 -0.1259 -0.2008
 4040W        W46953  21.642   3.102   2.798  0.0756  0.1591 -0.1052
 4041W        W46954  29.541  14.178  24.660 -0.0702 -0.3138  0.0064
 4042W        W46955  30.935  30.669  15.939 -0.2395  0.2406  0.0846
 4043W        W46956  29.765   1.584  19.616 -0.3874  0.0683 -0.0331
 4044W        W46957  25.211   2.303  17.311  0.1034 -0.1722 -0.0985
 4045W        W46958  33.777  32.465  21.333 -0.0084  0.3106 -0.0285
 4046W        W46959  32.688   7.617  17.879  0.2169  0.2279  0.2489
 4047W        W46960  32.844   0.601  25.536  0.0466  0.1274  0.0619
 4048W        W46961   3.658   3.473  26.848  0.1122 -0.1048  0.0024
 4049W        W46962   1.895   3.287  20.673 -0.0283 -0.2693  0.0961
 4050W        W46963  27.133  28.341  25.871 -0.1818 -0.4974 -0.0893
 4051W        W46964  31.853   8.735  16.146  0.0531 -0.1845 -0.1782
 4052W        W46965  31.494  30.172  18.436 -0.3849  0.0328  0.0938
 4053W        W46966   2.728   5.407  22.582  0.0573 -0.2239  0.0237
 4054W        W46967  25.366   1.340  16.746 -0.0797 -0.2164  0.1338
 4055W        W46968   0.020  21.256  15.413 -0.0605  0.1365 -0.0175
 4056W        W46969   4.513  32.795  20.213  0.1673 -0.3127  0.0048
 4057W        W46970  26.818  14.461  16.509  0.0277  0.0983 -0.0804
 4058W        W46971  26.326  17.409  18.760  0.1860  0.1328 -0.1020
 4059W        W46972  10.274  30.056  26.516  0.2377 -0.0715  0.5508
 4060W        W46973   6.245   5.657  20.461  0.0650 -0.1285  0.0728
 4061W        W46974   5.384  26.663  25.241  0.0289  0.0770  0.3406
 4062W        W46975  31.974  32.970  15.357 -0.0822 -0.0785  0.0529
 4063W        W46976  34.181  31.236  26.462  0.3745 -0.0864 -0.0949
 4064W        W46977   4.972  11.644  18.300  0.1874  0.1206 -0.1460
 4065W        W46978  30.272   4.662  26.810 -0.1667  0.1486 -0.0428
 4066W        W46979   1.208   1.693  20.600  0.0389 -0.1525  0.1778
 4067W        W46980  21.359  32.122  29.547 -0.1108  0.0984 -0.3884
 4068W        W46981   1.765  32.218   2.941  0.0620 -0.2507  0.1675
 4069W        W46982   3.200  10.090  24.755  0.1214  0.2876  0.3319
 4070W        W46983   7.490  15.430  20.425  0.1721  0.0132 -0.1901
 4071W        W46984   5.418   0.635  16.781 -0.0098 -0.0760  0.0271
 4072W        W46985  31.136  33.175  19.188 -0.0331 -0.0853 -0.0892
 4073W        W46986   2.221   3.992  24.427  0.0945  0.1716  0.0611
 4074W        W46987   4.202   6.339  24.276 -0.0360 -0.0444  0.1320
 4075W        W46988  29.077  28.727  18.906 -0.0515  0.1663 -0.1279
 4076W        W46989  33.732  14.837  24.614 -0.0458  0.0651 -0.0282
 4077W        W46990  15.468  26.950  26.714  0.1455  0.3377 -0.1937
 4078W        W46991  26.701  29.342  18.862 -0.2440  0.3468 -0.0990
 4079W        W46992   1.102   1.730  21.087  0.0971  0.0950 -0.0013
 4080W        W46993  20.021  22.499  18.241 -0.2367 -0.0127 -0.0986
 4081W        W46994  31.124   0.062  18.579 -0.0459  0.1403 -0.0069
 4082W        W46995  31.243   4.661  26.499 -0.0948 -0.0843 -0.0970
 4083W        W46996   7.493   1.308  21.674  0.2193 -0.2919  0.1743
 4084W        W46997  31.196  25.039  28.017  0.0050  0.0439  0.3508
 4085W        W46998  13.341   0.875  28.219  0.1017  0.0498 -0.0661
 4086W        W46999   6.677  25.912  19.247 -0.2875 -0.0674 -0.1089
 4087W        W47000   6.748  17.246  24.379 -0.1320 -0.0798  0.1229
 4088W        W47001  21.277   2.814  23.972 -0.0548 -0.1466 -0.0461
 4089W        W47002  29.607  32.426  14.392 -0.0132  0.2399 -0.0558
 4090W        W47003  28.304   6.067  18.329 -0.0456 -0.2902 -0.0820
 4091W        W47004   4.511  32.791  21.857 -0.1285  0.0143 -0.0548
 4092W        W47005  14.130   1.783  22.940 -0.1690 -0.2838  0.2685
 4093W        W47006   6.232   2.425  18.192  0.0924  0.1839  0.1631
 4094W        W47007   8.402   6.969  23.496 -0.0787  0.1802  0.2335
 4095W        W47008   4.603   4.432  26.767  0.1298 -0.1721  0.1824
 4096W        W47009  33.176   8.616  23.920 -0.0666  0.1183  0.0784
 4097W        W47010  30.022  34.021  21.731  0.2720 -0.0475 -0.4274
 4098W        W47011   1.248  30.614  25.110 -0.0559  0.1336 -0.1479
 4099W        W47012  24.356  31.371  23.111  0.0677 -0.1292 -0.1048
 4100W        W47013   2.464   7.073  18.469  0.1194  0.1024  0.1161
 4101W        W47014  12.770  29.631  20.649  0.2113  0.0251  0.4352
 4102W        W47015  30.647  24.945  17.616  0.3820  0.1134  0.0349
 4103W        W47016   1.421  31.604   1.567  0.4338  0.2746  0.0082
 4104W        W47017  33.486  29.131  19.540  0.1951 -0.0684  0.1851
 4105W        W47018   6.984   0.367  22.304 -0.0169 -0.0837  0.0603
 4106W        W47019   0.944  27.487  17.032 -0.1606  0.0677 -0.4063
 4107W        W47020  26.598   4.376  26.926 -0.2050 -0.1705  0.1941
 4108W        W47021  32.482   4.203  18.360  0.2322 -0.0461  0.0044
 4109W        W47022   1.905   7.269  20.830  0.3988 -0.2724 -0.0582
 4110W        W47023   8.689  17.260  23.268 -0.3092  0.1985 -0.1237
 4111W        W47024  29.744   4.515  16.753 -0.0000  0.1171 -0.1030
 4112W        W47025  28.312   5.122  27.318 -0.0253  0.0522  0.0172
 4113W        W47026   0.181  27.067  14.692  0.1555  0.3032 -0.1872
 4114W        W47027   3.513  33.536  23.214 -0.3438  0.1608 -0.0359
 4115W        W47028  33.161  12.710  17.491 -0.0003  0.2795 -0.1138
 4116W        W47029   0.540  31.276  21.673  0.4555 -0.1005 -0.2211
 4117W        W47030  29.220  28.365  22.434  0.0171 -0.1518 -0.0180
 4118W        W47031  33.068   1.637  27.380  0.0748  0.0073 -0.3001
 4119W        W47032  13.242   5.630  18.155  0.0427  0.1122 -0.2747
 4120W        W47033  22.511  29.496  27.869  0.0067 -0.0212  0.0959
 4121W        W47034   7.312   1.474  20.033  0.0441  0.1338  0.0993
 4122W        W47035   3.327  34.454   3.559 -0.2135 -0.1823 -0.1432
 4123W        W47036   0.299  30.857   4.818 -0.1020  0.3110  0.3143
 4124W        W47037  33.377  32.076  27.534 -0.0272 -0.0121 -0.2019
 4125W        W47038   2.638  32.962  22.898 -0.0679 -0.0900 -0.1328
 4126W        W47039   5.948   3.309  23.263  0.2018 -0.1501 -0.0259
 4127W        W47040  33.674  29.534  17.699 -0.1996 -0.0623  0.0700
 4128W        W47041   6.096   6.321  21.191  0.5019 -0.3231  0.0584
 4129W        W47042  27.041  10.749  14.882  0.0910  0.0426  0.1076
 4130W        W47043  27.776   3.714  18.895  0.0295 -0.0093  0.0579
 4131W        W47044  29.027  29.028  15.000 -0.1061 -0.1707 -0.2136
 4132W        W47045  16.584   3.060  17.061 -0.2517 -0.4144 -0.4954
 4133W        W47046  10.221  33.297  16.887 -0.0805 -0.0488  0.2042
 4134W        W47047  33.399   9.955  15.586 -0.0599  0.0059  0.0031
 4135W        W47048   2.291  24.734  23.915  0.0528 -0.2435 -0.2288
 4136W        W47049  32.743   1.804  22.973  0.0275  0.0010  0.1544
 4137W        W47050   6.096  10.688  28.290 -0.1544  0.2279  0.2519
 4138W        W47051  30.954  10.230  20.094  0.1309 -0.0571  0.2728
 4139W        W47052   6.229   1.571  24.223 -0.1886 -0.1151  0.1054
 4140W        W47053   0.934  29.839  17.985 -0.2021 -0.4276 -0.2260
 4141W        W47054  28.399  30.036  17.701 -0.0100  0.1965 -0.1117
 4142W        W47055  33.683   1.472  22.684  0.0770  0.0679  0.3222
 4143W        W47056   6.208  30.306  23.413 -0.1505  0.0214 -0.3353
 4144W        W47057  27.993   9.578  24.247 -0.3230 -0.2577  0.0057
 4145W        W47058  24.985  29.421  25.824 -0.0688 -0.2578  0.0029
 4146W        W47059  31.916   0.860  19.462 -0.1516 -0.0709 -0.3028
 4147W        W47060   4.274   9.556  28.202  0.1047  0.0625 -0.2244
 4148W        W47061  25.750  25.934  13.286 -0.0260 -0.0391 -0.1540
 4149W        W47062   7.085  17.742  18.378 -0.1428  0.0863  0.0657
 4150W        W47063   4.000   0.510  24.440  0.4234  0.1811  0.1572
 4151W        W47064   2.527   3.603  16.278  0.0432 -0.2084 -0.0396
 4152W        W47065  32.625  33.309  22.481 -0.2508 -0.0240  0.3506
 4153W        W47066  10.558   0.344  18.709 -0.0549  0.2321  0.1112
 4154W        W47067  33.483  30.786  24.270 -0.1363  0.0692 -0.4987
 4155W        W47068  19.515  33.494  19.303 -0.0434  0.0298  0.0812
 4156W        W47069  24.986   9.388  27.141  0.0064  0.0772  0.3205
 4157W        W47070   1.334   4.705  18.367  0.2618 -0.0918 -0.3271
 4158W        W47071  28.890   6.011  15.956 -0.2301 -0.1920 -0.0621
 4159W        W47072   2.325   1.385  21.231 -0.2228 -0.0900  0.2579
 4160W        W47073   0.746   9.764  16.685 -0.0444 -0.3568  0.0628
 4161W        W47074   2.588   0.615  28.391  0.1740 -0.1344  0.0700
 4162W        W47075   7.565   5.975  16.702 -0.2285  0.0806  0.0524
 4163W        W47076   6.696  32.126  18.550 -0.2843 -0.0990 -0.1061
 4164W        W47077  13.433  27.929  16.637  0.1553 -0.1514 -0.2017
 4165W        W47078   0.886  32.560  16.194 -0.1859  0.1291 -0.1610
 4166W        W47079   5.841  33.626  22.190 -0.6389  0.1799  0.1886
 4167W        W47080  19.197   5.620  21.019 -0.1734  0.3638 -0.0838
 4168W        W47081   0.790  31.456  29.156 -0.0559 -0.2106  0.0910
 4169W        W47082  23.863  10.861  18.480 -0.2387 -0.3436  0.3133
 4170W        W47083  33.667  30.982   0.047  0.2575 -0.1780 -0.1660
 4171W        W47084  32.563  20.715  18.278  0.0779  0.1156  0.0714
 4172W        W47085  31.088  33.475  23.360 -0.1052  0.2756  0.0028
 4173W        W47086   4.127  31.533  28.349  0.0523  0.3572  0.1487
 4174W        W47087  29.460  28.097  26.171 -0.3601 -0.0303 -0.0655
 4175W        W47088  11.417  31.477  25.545 -0.0679  0.2387  0.0989
 4176W        W47089  33.481  12.756  23.774 -0.2602  0.2998  0.1949
 4177W        W47090  16.463  32.715  27.695 -0.1040  0.3892  0.0601
 4178W        W47091   1.814  24.027  23.649  0.0028 -0.1819  0.1713
 4179W        W47092   6.944   3.727  19.035  0.1378  0.2407 -0.0473
 4180W        W47093  11.532   7.188  26.490  0.2029  0.4466 -0.1048
 4181W        W47094  34.495   0.483  17.282  0.0229  0.2579 -0.1018
 4182W        W47095   3.264   1.600  12.301 -0.2492 -0.0164 -0.1637
 4183W        W47096   6.191  21.453  14.265 -0.0036 -0.0228  0.0852
 4184W        W47097   8.395  34.081  19.938 -0.0987 -0.0262  0.3296
 4185W        W47098  32.072   1.394  25.989 -0.0538 -0.2219  0.0065
 4186W        W47099   8.348  28.587  26.010  0.1992 -0.1032 -0.0450
 4187W        W47100   2.717   5.754  20.831 -0.2240 -0.1268 -0.0603
 4188W        W47101   7.859   6.551  19.920  0.0979 -0.0940 -0.1906
 4189W        W47102  29.001   0.436  17.289 -0.1455 -0.1337  0.2144
 4190W        W47103   9.387  30.437  20.351  0.3107 -0.1967  0.1278
 4191W        W47104   2.631   9.730  25.205 -0.2095  0.1406 -0.0426
 4192W        W47105   3.655   5.796  20.318 -0.1115  0.1611 -0.2775
 4193W        W47106   3.021   3.880  20.965  0.0620  0.2534  0.2294
 4194W        W47107  28.160  23.431  13.070 -0.0454 -0.1337  0.3899
 4195W        W47108  21.710  33.238  24.855 -0.0350 -0.0057 -0.0181
 4196W        W47109   2.567  27.021  28.128 -0.0835 -0.1166 -0.4462
 4197W        W47110   3.242  28.521  19.146  0.2816  0.2343  0.0167
 4198W        W47111  10.254  33.677  19.173 -0.2382 -0.1012  0.2133
 4199W        W47112  33.509   0.137  18.824  0.0142  0.0668  0.0289
 4200W        W47113  32.781   4.722  23.906 -0.0506 -0.0711 -0.0337
 4201W        W47114   2.342  31.838  21.666 -0.2415 -0.0548 -0.1630
 4202W        W47115   2.667   5.809  24.958  0.0381  0.3350  0.4068
 4203W        W47116   5.962   5.448  18.759 -0.1942 -0.0605 -0.0122
 4204W        W47117  26.435  31.621  26.184  0.0797  0.5059 -0.4304
 4205W        W47118   5.485  34.076  18.460  0.0734  0.0484  0.0416
 4206W        W47119   4.042   3.689  27.286 -0.1568  0.2002  0.1160
 4207W        W47120  29.296   1.861  23.320 -0.2006  0.3601  0.2630
 4208W        W47121   8.478  24.853  27.824  0.0714 -0.0525  0.0619
 4209W        W47122  30.347   1.640  20.740  0.2115 -0.0514 -0.0801
 4210W        W47123  25.859   3.839  27.033 -0.2942  0.3852  0.1012
 4211W        W47124   4.617   1.272  18.343 -0.0890  0.1803  0.2384
 4212W        W47125  23.191   2.060  14.681 -0.1118  0.0621 -0.0645
 4213W        W47126   8.966   0.717  17.324  0.4193 -0.0080 -0.2346
 4214W        W47127   3.788   2.820  19.906 -0.3315 -0.1942  0.2559
 4215W        W47128   4.221  31.026  22.681 -0.3596  0.2943  0.3927
 4216W        W47129   2.408  25.859  28.576  0.0030 -0.2655  0.1094
 4217W        W47130   4.467   1.655  24.712  0.2247  0.2715 -0.1572
 4218W        W47131  32.043  32.089   3.516  0.1611  0.3291 -0.0778
 4219W        W47132   0.896  23.048  20.453 -0.5146 -0.0808 -0.1308
 4220W        W47133  24.085   2.490  24.011 -0.1820  0.1441  0.0008
 4221W        W47134  27.734   8.407   5.895 -0.1094  0.0555 -0.0151
 4222W        W47135  16.282   6.231  20.454  0.0668 -0.0320  0.1624
 4223W        W47136   2.358  25.470  22.829  0.0653  0.0138 -0.2084
 4224W        W47137  32.932  32.300  17.358  0.2456  0.1536  0.1337
 4225W        W47138  10.649   4.716  22.185  0.1000 -0.2680 -0.1590
 4226W        W47139   2.697  32.254  24.321 -0.1630  0.1751 -0.0373
 4227W        W47140   3.303  27.757  23.876 -0.1720 -0.2895  0.2940
 4228W        W47141  29.112  27.372  23.574  0.0702 -0.1603  0.0943
 4229W        W47142   0.805   0.968  17.842 -0.3505  0.2637 -0.1427
 4230W        W47143  10.035  32.678  22.652 -0.2047  0.1797  0.1268
 4231W        W47144  33.907   6.010  21.077  0.0311 -0.1220 -0.0600
 4232W        W47145  20.503   1.092  24.154 -0.1092  0.0762  0.0904
 4233W        W47146  33.128   1.554  29.320  0.0735 -0.0332 -0.2308
 4234W        W47147  28.773  27.006  22.122  0.2415 -0.0752 -0.2369
 4235W        W47148  33.674  32.934  20.408 -0.0511  0.0144 -0.2433
 4236W        W47149  10.972   6.505  17.420 -0.1139 -0.1332  0.3169
 4237W        W47150   7.975  30.022  19.869  0.1638  0.2836  0.4778
 4238W        W47151   8.256   0.675  21.095  0.1156  0.1357 -0.1126
 4239W        W47152  31.300   8.067  17.086 -0.0375 -0.1906 -0.1563
 4240W        W47153   2.121  31.607  26.742  0.2876 -0.1726 -0.2302
 4241W        W47154  30.293  30.182  17.364  0.1878 -0.0580 -0.0525
 4242W        W47155  32.051   1.397  20.363  0.0647 -0.2835 -0.0709
 4243W        W47156   4.416  32.782  26.792  0.2413 -0.3024 -0.0703
 4244W        W47157   0.630   3.147  19.703 -0.1241 -0.1622  0.2030
 4245W        W47158   0.197   9.373  28.282 -0.0592 -0.0178 -0.1750
 4246W        W47159  28.485  15.787  27.031 -0.1364  0.1059  0.0629
 4247W        W47160  32.308   0.268  27.980  0.0230  0.1183 -0.1886
 4248W        W47161   8.945   6.125  27.346 -0.4488  0.0677 -0.1699
 4249W        W47162   3.314  30.562  28.733  0.2220 -0.0610 -0.0577
 4250W        W47163   2.143  32.832  23.848 -0.0908 -0.1386  0.0723
 4251W        W47164   0.192   4.482  18.867 -0.1937  0.2329 -0.0105
 4252W        W47165   6.325  28.135  22.770 -0.1136  0.2120  0.1818
 4253W        W47166  32.989  33.050  27.821 -0.0402  0.1009 -0.2165
 4254W        W47167  31.736   1.011   2.774 -0.3281  0.0776  0.2129
 4255W        W47168  21.530  30.236  21.575  0.3010 -0.0255 -0.0280
 4256W        W47169   9.653   2.905  24.972 -0.1389 -0.4409 -0.0213
 4257W        W47170  12.157   1.770  18.279  0.0157  0.0730  0.0797
 4258W        W47171  34.215   3.405  18.919 -0.0132  0.0986  0.1255
 4259W        W47172   1.122   3.076  17.973 -0.1704  0.1844  0.2030
 4260W        W47173  29.042  15.518  27.181  0.0778  0.2071  0.0670
 4261W        W47174  11.509  29.442  18.490  0.1439  0.0676 -0.1651
 4262W        W47175   2.957   3.311  16.210 -0.3794 -0.0642 -0.0518
 4263W        W47176  33.697  33.498  29.646  0.2537 -0.2604 -0.1435
 4264W        W47177   4.181  31.235  23.123  0.1039  0.0191 -0.0176
 4265W        W47178  27.264  28.075   6.595 -0.1076  0.3557 -0.1320
 4266W        W47179   6.257   2.059  20.721  0.3118  0.1599  0.1385
 4267W        W47180  26.375   7.850  22.364  0.0536 -0.2312 -0.0252
 4268W        W47181   7.110   1.005  17.202 -0.0066  0.1580  0.2909
 4269W        W47182   6.373  29.911  18.168  0.3747 -0.1825 -0.0542
 4270W        W47183   8.455  19.013  28.537  0.0346 -0.1269  0.2901
 4271W        W47184   4.822  31.597  23.907 -0.0164  0.0450  0.1597
 4272W        W47185  10.548   2.594  22.866 -0.0363 -0.0957  0.2314
 4273W        W47186  34.238  26.407  26.824 -0.2576  0.0817 -0.3821
 4274W        W47187   1.863   0.481  23.323 -0.2495 -0.0419 -0.0735
 4275W        W47188  33.277   2.926  17.614  0.0577  0.0113 -0.0749
 4276W        W47189   0.309   0.121  16.492 -0.0955 -0.1701 -0.1176
 4277W        W47190   4.250  34.091  24.567  0.2605  0.0080  0.1099
 4278W        W47191  30.058   3.319  20.116  0.0666 -0.0578  0.0027
 4279W        W47192  31.486   4.436  17.960 -0.0497  0.1241  0.1942
 4280W        W47193  31.841  28.775  19.464 -0.0548 -0.1806 -0.1108
 4281W        W47194  26.050   3.893  29.075 -0.2623  0.3824 -0.2090
 4282W        W47195  24.746   4.596  27.802 -0.0703  0.2497  0.1546
 4283W        W47196   4.887   5.017  22.837 -0.1422 -0.0503 -0.0049
 4284W        W47197  33.074  12.615  16.907  0.5655  0.0346 -0.1308
 4285W        W47198   2.158  34.054  21.985 -0.0725  0.1188  0.0316
 4286W        W47199   2.082   0.206  19.850 -0.4298  0.0241 -0.0033
 4287W        W47200  29.939   1.322  21.662 -0.1440  0.1915 -0.0196
 4288W        W47201   8.140  27.548  17.835 -0.0687  0.4669  0.2929
 4289W        W47202   3.203  32.851  23.215  0.2668 -0.0326 -0.2156
 4290W        W47203   6.151  22.813  14.206 -0.1316  0.0585  0.2133
 4291W        W47204   0.444   3.013  23.378 -0.0387 -0.1027 -0.1773
 4292W        W47205   4.491   9.258  20.992 -0.0554 -0.0749  0.3254
 4293W        W47206   5.398   5.101  25.619 -0.1769  0.0691  0.1391
 4294W        W47207   8.152  17.250   2.571 -0.2113  0.0401 -0.0904
 4295W        W47208  33.884   7.534  16.190  0.1429  0.1961 -0.2428
 4296W        W47209  10.306  33.824  25.619 -0.1660 -0.1633  0.1693
 4297W        W47210   0.772   0.065  26.681 -0.2100 -0.0340  0.1159
 4298W        W47211  31.920  29.958  14.320  0.3415 -0.0191  0.1680
 4299W        W47212  32.920  25.080  27.564  0.0662 -0.0764 -0.2372
 4300W        W47213  24.827  34.342  26.410  0.1726  0.2329  0.3976
 4301W        W47214  33.836  22.531  22.068 -0.4530 -0.0648 -0.3939
 4302W        W47215   6.534  30.734  20.617 -0.1702  0.2104  0.2195
 4303W        W47216  28.804  10.026  27.678  0.3702 -0.1872 -0.4258
 4304W        W47217   0.777   0.458  18.048  0.3152  0.2266 -0.1016
 4305W        W47218   0.315   4.334   1.870 -0.1703 -0.3792  0.1428
 4306W        W47219  26.987   2.573  18.881  0.2275 -0.2689  0.0609
 4307W        W47220  28.971  25.223  15.363  0.0245  0.0403  0.1371
 4308W        W47221  30.793  32.346   0.722  0.3525 -0.0834 -0.1552
 4309W        W47222   1.377  32.551  20.190  0.0395 -0.1198  0.1442
 4310W        W47223   3.498  32.585  16.864 -0.1028 -0.1643  0.1106
 4311W        W47224  31.903  32.842  20.411 -0.1600  0.0262 -0.2289
 4312W        W47225  25.083  25.503  20.836  0.1069 -0.1801  0.1193
 4313W        W47226  32.511   0.443  20.084  0.2545  0.0360 -0.0038
 4314W        W47227  14.939  25.151  23.796  0.3702  0.3632 -0.1274
 4315W        W47228  28.938   0.839  19.446 -0.1765  0.1788  0.0565
 4316W        W47229  28.836  33.060  16.356 -0.2765  0.0586 -0.1318
 4317W        W47230  17.389  26.605  26.013 -0.2535 -0.0672  0.1372
 4318W        W47231   1.554  25.244  16.362 -0.3399  0.0616  0.0142
 4319W        W47232  29.393  28.860  14.405  0.1029 -0.0259 -0.1253
 4320W        W47233  12.201   2.490  21.850  0.1357  0.1168  0.0609
 4321W        W47234   8.459  13.841  18.214  0.3091  0.3227 -0.0118
 4322W        W47235   3.015  34.309  18.049  0.0662  0.1447  0.0173
 4323W        W47236   4.639   9.078  17.873  0.1307  0.1893  0.1800
 4324W        W47237   5.854  33.033  26.716 -0.4557  0.0531 -0.2126
 4325W        W47238  31.032  13.666  27.224 -0.1139 -0.3861  0.3160
 4326W        W47239   9.850   3.682  20.391  0.0901 -0.0331  0.0578
 4327W        W47240   4.338   3.420  20.916 -0.1451 -0.0136  0.0016
 4328W        W47241   6.604  33.637  22.702  0.1623 -0.2322 -0.0080
 4329W        W47242  34.475  25.817  22.669  0.0849 -0.2786 -0.0121
 4330W        W47243   3.692  30.825   2.595 -0.0900  0.1272  0.1940
 4331W        W47244  19.088   3.660  13.703  0.1559 -0.0483 -0.0967
 4332W        W47245  30.564  11.708  14.238 -0.1800 -0.0082 -0.0931
 4333W        W47246   9.757   4.094  22.851 -0.1748 -0.0659 -0.1996
 4334W        W47247   0.970   0.121   3.889 -0.1097  0.3199  0.1460
 4335W        W47248  11.137  19.060  19.987 -0.0752 -0.1911  0.2129
 4336W        W47249  33.668   4.297  29.413 -0.2950 -0.4854  0.2757
 4337W        W47250   7.681  26.213  23.303  0.3035 -0.2494 -0.2803
 4338W        W47251   5.974  28.129  16.775  0.0384 -0.0511 -0.0559
 4339W        W47252   4.526  26.383  27.541 -0.0182  0.1561  0.2769
 4340W        W47253  33.272  26.812  27.717 -0.0256  0.0689 -0.0628
 4341W        W47254  30.338  33.010  25.397  0.2408  0.2468 -0.0925
 4342W        W47255   4.239   2.282  17.742  0.2196  0.1843 -0.2180
 4343W        W47256  13.738  26.706  23.247 -0.0784 -0.0990 -0.0749
 4344W        W47257   7.490  29.721   2.209  0.0408  0.0927  0.0453
 4345W        W47258  32.050   3.482  20.585  0.1477  0.1923  0.3939
 4346W        W47259   9.794  15.595  22.256 -0.2274  0.1034 -0.1081
 4347W        W47260  34.289   2.589  16.670 -0.0299  0.0677 -0.1239
 4348W        W47261  30.954  29.291  18.980 -0.2509  0.2231  0.0464
 4349W        W47262  33.296   7.270  21.334  0.2654  0.1747 -0.1297
 4350W        W47263  30.978   4.484  22.561 -0.0325 -0.2326 -0.4781
 4351W        W47264   0.782  29.561  15.564  0.0481 -0.3093  0.0448
 4352W        W47265   3.637  33.321  20.182 -0.0201  0.3167  0.2310
 4353W        W47266  10.739  31.209  25.300 -0.0363 -0.0475 -0.0108
 4354W        W47267   1.626   5.916  22.730  0.3455 -0.1896  0.0042
 4355W        W47268  27.848  30.994   0.591 -0.1085 -0.2038  0.0267
 4356W        W47269  13.413  33.025  27.842  0.1322 -0.1342 -0.0137
 4357W        W47270  30.575   9.414  18.187 -0.1193  0.0641 -0.0222
 4358W        W47271  14.137  33.015  18.828  0.1001  0.0295 -0.2083
 4359W        W47272  34.054  30.520  16.427 -0.0528 -0.5902 -0.0729
 4360W        W47273  27.343   5.439  21.579 -0.1409 -0.1652 -0.0981
 4361W        W47274   1.329   1.483  24.791  0.1226 -0.1755 -0.2755
 4362W        W47275   3.275  27.197  24.724  0.4653 -0.2141 -0.0415
 4363W        W47276   0.835   5.280  18.783  0.0724  0.0782 -0.0699
 4364W        W47277   3.582   5.653  22.571 -0.1138 -0.0511  0.2358
 4365W        W47278  12.956  23.062  17.696  0.1068  0.1565 -0.1702
 4366W        W47279   1.203   9.492  19.632 -0.1128 -0.1394  0.1775
 4367W        W47280  32.183  33.963  18.380 -0.1989 -0.1167  0.0580
 4368W        W47281  30.379  33.989  15.553  0.0135 -0.0493 -0.0113
 4369W        W47282  34.012  28.992  28.013 -0.1946  0.4539  0.3221
 4370W        W47283  34.332   1.695  20.604 -0.0048  0.0989 -0.0345
 4371W        W47284  27.089   3.962  25.576  0.0960  0.0348  0.5978
 4372W        W47285   2.464   0.682  25.495 -0.0712 -0.1542 -0.2671
 4373W        W47286  11.779   3.433  23.614 -0.1658 -0.2197  0.0053
 4374W        W47287  31.523   3.790  19.587  0.3829 -0.1537 -0.1222
 4375W        W47288   7.353  30.520  20.080  0.3235 -0.2724  0.1932
 4376W        W47289   0.548  29.191  16.747 -0.2170  0.7270 -0.0406
 4377W        W47290  31.927  29.418  26.149  0.1386 -0.2677 -0.2023
 4378W        W47291   1.921   0.259  21.355 -0.0908 -0.3078 -0.0716
 4379W        W47292  25.920   7.138  20.998  0.2715 -0.4948  0.2461
 4380W        W47293   7.968  33.790  26.780  0.2453  0.1682 -0.2199
 4381W        W47294   0.283   8.224  18.549 -0.2442  0.2776  0.1379
 4382W        W47295   4.094   0.145  27.946 -0.0687 -0.1203  0.0746
 4383W        W47296   6.080  11.555  18.699  0.0958  0.0842 -0.0148
 4384W        W47297   6.820   7.155  20.567  0.1600  0.1826 -0.0492
 4385W        W47298  31.446   0.959  22.304  0.0029  0.1736 -0.1136
 4386W        W47299  26.651  12.584  22.318 -0.1106 -0.2363  0.0026
 4387W        W47300  23.556   6.663  18.643 -0.1669  0.2625  0.0869
 4388W        W47301  29.249  32.722  23.888  0.0162 -0.2149 -0.3641
 4389W        W47302   3.324   2.948  20.135 -0.0551 -0.0134 -0.1527
 4390W        W47303   6.823   0.989  20.962 -0.1355  0.3264 -0.2755
 4391W        W47304   5.096  29.725  17.524 -0.0058 -0.0722  0.2611
 4392W        W47305   0.977   7.809  25.544  0.1316  0.0376 -0.3718
 4393W        W47306  31.920   6.451  17.529  0.1372 -0.1241 -0.0641
 4394W        W47307   2.079   1.961  27.130  0.0059  0.4418  0.3301
 4395W        W47308   2.445  16.357  26.588 -0.0137 -0.1308  0.0010
 4396W        W47309   0.877  17.642  14.794 -0.2235  0.0593 -0.0087
 4397W        W47310  33.407   5.052   7.284  0.0238  0.0114  0.0648
 4398W        W47311   3.625   1.009  26.796  0.1970 -0.5534 -0.1724
 4399W        W47312  26.983   6.239  19.904 -0.3138 -0.0490  0.2421
 4400W        W47313  30.259  17.148  26.277 -0.0469 -0.1621 -0.1476
 4401W        W47314  29.928   3.152  28.739  0.1032 -0.1813  0.3961
 4402W        W47315   0.397   9.282  23.486  0.1303 -0.1213  0.0007
 4403W        W47316   3.537  24.131   4.676  0.0613  0.5267  0.1016
 4404W        W47317   4.010  34.448  16.744 -0.2521 -0.0727 -0.2510
 4405W        W47318  30.907   2.846  28.280  0.1049  0.1577  0.4482
 4406W        W47319  31.790  31.273  21.674 -0.2285 -0.2991 -0.2327
 4407W        W47320  31.458   2.688  18.949  0.2493 -0.1796  0.0267
 4408W        W47321   4.462   3.550  28.940 -0.0905  0.2887  0.0979
 4409W        W47322  14.914  29.669  20.779  0.0380 -0.3287  0.1154
 4410W        W47323  31.688  31.081  19.818  0.0608 -0.1013 -0.1359
 4411W        W47324   2.489  10.904  20.707 -0.0803 -0.0247 -0.1364
 4412W        W47325   8.858  10.391  27.324  0.0307  0.0272  0.5336
 4413W        W47326  27.228   2.199   5.421  0.0965 -0.0378  0.1418
 4414W        W47327  12.387  21.429  20.002 -0.1437  0.2984  0.5172
 4415W        W47328   8.731  30.708  28.364  0.0436 -0.2049 -0.2277
 4416W        W47329  34.276   0.739  25.193 -0.0862 -0.3153  0.0484
 4417W        W47330  31.483   1.796  28.085  0.0939  0.0108  0.1397
 4418W        W47331   4.264  28.244  22.850  0.0246  0.0952 -0.3415
 4419W        W47332  25.584   4.749  21.927 -0.0584 -0.0834 -0.1158
 4420W        W47333  33.792  20.701  24.615 -0.0411  0.0217  0.0597
 4421W        W47334   0.432  14.855  18.800  0.1971  0.3871  0.2753
 4422W        W47335  34.411   5.776  20.900  0.1721  0.0386 -0.1183
 4423W        W47336   3.470   1.173   2.576  0.3408  0.0456  0.0977
 4424W        W47337   4.508   7.861  20.745  0.1491  0.1565  0.1544
 4425W        W47338   6.103  31.152  22.997 -0.1123 -0.0368 -0.1854
 4426W        W47339  29.827   0.626   2.040 -0.2285 -0.0027 -0.1543
 4427W        W47340   0.620  24.041  26.712 -0.0375 -0.4275 -0.0055
 4428W        W47341   5.976  23.754  23.052  0.1107  0.2616 -0.1588
 4429W        W47342  32.763  19.362   2.033 -0.0751 -0.0986  0.0674
 4430W        W47343  10.060  26.884   1.670 -0.2947 -0.2118  0.0331
 4431W        W47344   0.447  29.820  22.477 -0.0843 -0.0506 -0.0784
 4432W        W47345  28.242   5.045  19.543  0.2793 -0.3633  0.1515
 4433W        W47346   0.331   8.698  22.138 -0.1895 -0.1337  0.2935
 4434W        W47347  29.137  23.045  20.735  0.3102 -0.0043 -0.0357
 4435W        W47348  12.088   5.901  21.670  0.0314  0.1737  0.0886
 4436W        W47349  23.578  25.434  14.980  0.1927 -0.2868  0.0948
 4437W        W47350  31.964   4.318  16.609 -0.0850 -0.0305  0.2683
 4438W        W47351  32.195   6.720  25.095 -0.3824  0.3353 -0.1742
 4439W        W47352   0.368  28.627  16.591  0.0640  0.0779 -0.0306
 4440W        W47353  32.208   2.141   1.598  0.2475  0.1238  0.1349
 4441W        W47354   2.769   0.173  22.103  0.3438 -0.0123 -0.0363
 4442W        W47355  26.087  25.336  28.528 -0.1402  0.0425  0.2579
 4443W        W47356   7.692  27.479  21.062 -0.0563  0.1107  0.1237
 4444W        W47357   4.917  31.864  25.499 -0.3190  0.0924 -0.1945
 4445W        W47358   6.872   3.631  18.142  0.0671 -0.0634  0.1617
 4446W        W47359  33.036  11.029   0.489  0.0349  0.0225 -0.1361
 4447W        W47360  23.524  33.265  21.526 -0.1346  0.1757 -0.0596
 4448W        W47361   3.262  32.932  19.912 -0.1944  0.0940 -0.1251
 4449W        W47362  27.921  13.647  26.672 -0.0546 -0.1642 -0.2805
 4450W        W47363   2.337  33.899   0.560 -0.2199  0.2565  0.0136
 4451W        W47364   5.958  25.183  19.258  0.1732  0.1372  0.0879
 4452W        W47365   2.489  10.983  18.901  0.2836 -0.3105 -0.1678
 4453W        W47366  13.257   4.803  25.128 -0.2539 -0.1199  0.0774
 4454W        W47367   1.980  33.633  27.454  0.3169  0.4280 -0.2868
 4455W        W47368   1.005  28.608   1.566  0.5042  0.1620  0.1202
 4456W        W47369   5.679   1.568  20.787  0.1732  0.1564  0.0436
 4457W        W47370  11.347  10.805   4.098 -0.1291 -0.0838 -0.0583
 4458W        W47371  33.228   3.203  21.421  0.2525 -0.1955 -0.1109
 4459W        W47372   1.922  29.982   4.847  0.0001 -0.1574  0.0507
 4460W        W47373   9.406  22.965   9.813  0.2078  0.3960  0.0756
 4461W        W47374   0.210  32.048  26.772 -0.0165  0.1993 -0.0935
 4462W        W47375   3.015  33.868  17.758 -0.1514 -0.1525  0.1243
 4463W        W47376  33.960   6.634  19.176  0.1992  0.1976 -0.1924
 4464W        W47377  26.038   4.767  15.434  0.1452 -0.1159  0.1470
 4465W        W47378  28.261  29.074  27.856  0.0313 -0.1864 -0.2043
 4466W        W47379   7.129  27.642  23.708  0.0161  0.0978  0.1021
 4467W        W47380  34.060   5.819  25.378  0.3472 -0.0286 -0.0475
 4468W        W47381  29.963   5.483  18.720  0.0854  0.2761 -0.0431
 4469W        W47382  25.916   1.100  29.012 -0.2038 -0.1623  0.1675
 4470W        W47383   2.689   0.658  21.949  0.2033 -0.0271 -0.0995
 4471W        W47384   8.452  29.513  17.927  0.1407 -0.3209  0.3324
 4472W        W47385   0.859   2.522  23.006 -0.1065  0.3094 -0.3528
 4473W        W47386   1.527  12.818  17.377 -0.1840 -0.0041  0.2389
 4474W        W47387   3.460  33.826   1.227 -0.3228  0.2878  0.2065
 4475W        W47388  28.829   6.608  24.905 -0.1446 -0.0277 -0.3639
 4476W        W47389   2.189  32.385  24.186  0.0334  0.1438 -0.1107
 4477W        W47390  12.037  33.107  21.896 -0.2042  0.1147  0.1697
 4478W        W47391  30.467  33.062  20.521 -0.0485  0.3745  0.1700
 4479W        W47392  28.390   2.596  29.054  0.0130 -0.2406  0.0028
 4480W        W47393   0.991   1.425  24.328  0.1612 -0.0855  0.2127
 4481W        W47394   0.417   1.316  21.426  0.1527 -0.1531  0.0382
 4482W        W47395  30.803  28.259  23.824  0.1428  0.1177  0.0115
 4483W        W47396  19.881  30.937  21.660  0.1604 -0.1340  0.0764
 4484W        W47397  28.820   8.551  20.468  0.0084 -0.2218  0.3242
 4485W        W47398   2.980   3.272  20.224  0.2618  0.0009 -0.0518
 4486W        W47399   4.774  32.920  18.688  0.1830 -0.2956 -0.0084
 4487W        W47400   9.903   5.496  22.210 -0.2398 -0.0172  0.1817
 4488W        W47401  28.235   7.619  24.448 -0.1098  0.2899 -0.0064
 4489W        W47402   9.862   1.639  18.849  0.0286  0.0863 -0.1640
 4490W        W47403   1.239   1.985  22.952  0.2486  0.0762 -0.1126
 4491W        W47404  33.720   1.374  28.096  0.1336  0.0727 -0.0899
 4492W        W47405   8.489   2.210   0.489  0.3553  0.0464 -0.0805
 4493W        W47406  26.963   4.781   6.269  0.0639  0.3163  0.0956
 4494W        W47407  29.120   2.884   0.406 -0.6610  0.4917 -0.2893
 4495W        W47408   8.642  26.571  26.246 -0.1092  0.0556 -0.0133
 4496W        W47409  24.652   9.021   2.559 -0.2703  0.0566 -0.2776
 4497W        W47410   6.653  32.342  21.622  0.3304  0.3114 -0.0928
 4498W        W47411   2.948   9.591   9.552 -0.1361  0.2346  0.2468
 4499W        W47412  11.155   1.265  21.194  0.2063  0.0986  0.2392
 4500W        W47413  27.137  13.541  20.807 -0.0358 -0.0006 -0.1136
 4501W        W47414  32.136   7.236  19.732  0.0402 -0.0689 -0.0793
 4502W        W47415  31.663  13.543  28.327 -0.2282 -0.0648 -0.0342
 4503W        W47416   5.248   9.704  21.434 -0.3157 -0.0362 -0.1516
 4504W        W47417   0.976  31.943  17.945  0.0962 -0.3609  0.1002
 4505W        W47418  26.007  32.957  21.623  0.2376 -0.0010  0.2097
 4506W        W47419  19.305  27.157  22.893 -0.1767 -0.1923  0.0503
 4507W        W47420  24.886   1.920  19.124 -0.0097 -0.2200  0.1655
 4508W        W47421  29.159   1.424  21.658 -0.1561  0.1355 -0.1363
 4509W        W47422   1.218   8.590   6.195 -0.2051 -0.2181 -0.1945
 4510W        W47423  14.230   4.808  27.358  0.4500  0.0347  0.0443
 4511W        W47424  18.209   5.132  18.679  0.3661 -0.1345 -0.0186
 4512W        W47425  30.489  31.295  29.015  0.0002  0.1455 -0.0393
 4513W        W47426  16.956  22.063  21.752  0.4308 -0.0372 -0.1909
 4514W        W47427  27.552   2.692  20.468  0.3253  0.3109 -0.1061
 4515W        W47428  31.900  13.325  20.285  0.1570 -0.0051 -0.2777
 4516W        W47429  28.240   2.879  25.608 -0.2737  0.0825 -0.0879
 4517W        W47430  21.439  11.377  13.304  0.1685 -0.1707  0.1102
 4518W        W47431  10.075  11.374  18.202  0.1540  0.0283  0.1909
 4519W        W47432  27.638   7.472  29.064  0.0718 -0.0767 -0.1814
 4520W        W47433  32.157  32.509  24.184  0.1270 -0.0533 -0.2227
 4521W        W47434   3.120   9.970  21.727 -0.1895 -0.2610 -0.1227
 4522W        W47435   2.408   0.469  22.574 -0.0163  0.0992 -0.2160
 4523W        W47436   0.005  11.111  18.912 -0.4418  0.0837 -0.0869
 4524W        W47437  31.780  33.755  27.347  0.0222 -0.0057  0.1283
 4525W        W47438   1.786  31.407  29.108  0.0514 -0.2232 -0.1889
 4526W        W47439  11.039   0.168  29.327 -0.2160  0.0305  0.1426
 4527W        W47440  32.495  18.470   6.991 -0.1884  0.2502  0.2025
 4528W        W47441  30.271   2.721  26.078 -0.0673  0.0893 -0.2929
 4529W        W47442   2.018   9.139  19.299 -0.4285 -0.2001 -0.3944
 4530W        W47443   1.150   7.847  21.963 -0.0230 -0.2259  0.0249
 4531W        W47444  12.464   3.946  19.110 -0.5553 -0.3213  0.3849
 4532W        W47445   0.143   3.808  26.228  0.2480 -0.2790 -0.4843
 4533W        W47446  28.809   0.586  15.488 -0.0738 -0.1864 -0.1562
 4534W        W47447  30.810   2.158  16.933  0.1175  0.1101 -0.3397
 4535W        W47448  31.125  27.597   3.192 -0.0314  0.3236 -0.0175
 4536W        W47449  33.081  33.374   9.973 -0.0788  0.0748 -0.3089
 4537W        W47450   3.384   5.087  19.947 -0.2100  0.1529 -0.0511
 4538W        W47451  23.634   4.181  22.026  0.5573  0.1610 -0.2964
 4539W        W47452  26.307  33.871  26.508 -0.0657 -0.2832  0.2744
 4540W        W47453  25.580  29.701  27.001 -0.1513  0.0966  0.2519
 4541W        W47454   6.208   6.054  27.552  0.2519  0.2184  0.1361
 4542W        W47455  19.653   3.784  14.436  0.0777  0.2073 -0.1079
 4543W        W47456  32.661  29.874  27.746  0.0418  0.0729  0.2148
 4544W        W47457   5.198   1.031   0.188  0.0863 -0.1714 -0.2811
 4545W        W47458  32.263   0.664  27.646 -0.0626  0.0228 -0.2541
 4546W        W47459  26.467  30.904  17.598  0.2942 -0.4555 -0.0233
 4547W        W47460   1.469   2.402  18.455  0.3536 -0.0235 -0.3015
 4548W        W47461  25.171  32.264  25.894 -0.1628 -0.0302  0.2059
 4549W        W47462  16.053   3.355  22.656 -0.1958  0.1906  0.1831
 4550W        W47463  25.860   0.180  17.283 -0.0566  0.3125  0.1299
 4551W        W47464  30.124   7.522  18.025  0.2031  0.1300  0.4688
 4552W        W47465   0.167   3.064  25.435 -0.0740  0.0265 -0.0285
 4553W        W47466   8.948   8.574  20.982 -0.0054  0.1168 -0.0668
 4554W        W47467   6.614   7.340  19.912  0.1261  0.0221 -0.2356
 4555W        W47468   7.785   0.795  20.958  0.1410  0.3319  0.1608
 4556W        W47469  10.017   4.204  25.599  0.3528  0.0386 -0.2333
 4557W        W47470  29.915  17.640  15.722  0.0243 -0.1252 -0.0373
 4558W        W47471   1.314   0.475  25.326  0.3335 -0.0639  0.0785
 4559W        W47472   7.882  26.008  22.885 -0.1057 -0.4542  0.0844
 4560W        W47473   4.954  15.955  29.046 -0.2548 -0.2793  0.3185
 4561W        W47474   9.897  31.731  26.533  0.2370 -0.2196  0.1262
 4562W        W47475   5.215  10.864  27.310  0.2935 -0.0688  0.2417
 4563W        W47476   6.675   1.072  11.866 -0.3349  0.1911 -0.0500
 4564W        W47477   1.234   2.599   0.886  0.0919  0.0284 -0.0344
 4565W        W47478  32.466   0.119  22.173 -0.2321  0.1523  0.2022
 4566W        W47479  33.154   1.923  23.643  0.0814  0.3035 -0.0433
 4567W        W47480  25.906  29.110  27.639  0.1598  0.2424 -0.0311
 4568W        W47481   1.095  24.140   6.471  0.3162 -0.2495  0.0152
 4569W        W47482   8.701  33.555  29.596  0.0581  0.1871  0.1279
 4570W        W47483   7.638  30.198  21.908  0.1630  0.1244  0.1036
 4571W        W47484   1.844   0.798  22.627 -0.0372 -0.0648 -0.2896
 4572W        W47485  33.171  33.434  29.756  0.1644 -0.0516  0.2622
 4573W        W47486   1.885  28.969  28.214 -0.2058 -0.2809  0.0378
 4574W        W47487  32.438  34.346  26.605 -0.2098 -0.1357 -0.0280
 4575W        W47488  11.258  23.448  22.152 -0.3781  0.1592 -0.0239
 4576W        W47489  27.143  31.849  28.905 -0.2575 -0.0114 -0.0063
 4577W        W47490  17.852  14.582  14.838  0.0836  0.2246  0.0247
 4578W        W47491   5.043   7.802  20.683  0.0852 -0.2118 -0.2020
 4579W        W47492  20.298  32.607   2.297 -0.1145 -0.3550  0.1410
 4580W        W47493   6.236   3.046  25.208  0.1080 -0.0393 -0.0298
 4581W        W47494   8.671  22.280  21.148 -0.0525  0.3329 -0.3351
 4582W        W47495   5.137   6.528  20.555  0.3312 -0.4205 -0.0918
 4583W        W47496   3.209  24.072  21.948  0.0628  0.3909  0.3711
 4584W        W47497  10.251   4.124  18.280 -0.1165  0.2315  0.1597
 4585W        W47498   1.706  33.784  20.511  0.3540  0.4718 -0.0842
 4586W        W47499   0.025  24.116  18.704 -0.0505  0.0495  0.0169
 4587W        W47500   9.294   0.458  20.259 -0.0968  0.2595 -0.1060
 4588W        W47501   2.227  23.456  16.385  0.2900 -0.1120  0.0831
 4589W        W47502  30.707   9.341  20.497 -0.2431  0.1208 -0.6437
 4590W        W47503   3.621   6.510  18.525 -0.0864  0.2076 -0.0146
 4591W        W47504   7.933  10.746  18.430  0.1833  0.1790  0.1694
 4592W        W47505   3.519   4.303  22.074 -0.0400 -0.0313 -0.2234
 4593W        W47506   3.323   4.676   2.972  0.2440  0.1673 -0.0503
 4594W        W47507   8.731  28.856  21.325 -0.0141  0.2268 -0.0439
 4595W        W47508   3.806   1.673  22.703 -0.0111  0.1595 -0.4023
 4596W        W47509   0.660   1.859  18.030  0.4841  0.0400  0.0290
 4597W        W47510   1.895   4.760  23.662  0.1461 -0.1115 -0.2329
 4598W        W47511   1.329   8.414  26.085 -0.0278  0.2608 -0.0772
 4599W        W47512   1.857  32.052  21.941  0.2653 -0.1649 -0.1997
 4600W        W47513  24.613   8.605  21.470 -0.2248 -0.1893  0.3013
 4601W        W47514   7.625   2.159  25.366  0.1927  0.0362 -0.0694
 4602W        W47515   8.525   4.784  21.276 -0.1486  0.2660  0.3413
 4603W        W47516  31.549   9.955  21.460  0.3757 -0.0296 -0.2079
 4604W        W47517   5.584   2.565   3.286 -0.2079 -0.0720  0.0686
 4605W        W47518   5.154   5.705  23.744  0.1061  0.2673  0.1481
 4606W        W47519  31.480   0.654  25.668 -0.1616 -0.1982 -0.0064
 4607W        W47520  30.805   5.720  20.223  0.0546  0.0362  0.0790
 4608W        W47521  26.890   7.209  20.921  0.0238  0.0324  0.0581
 4609W        W47522  29.777   5.646  22.808 -0.1067 -0.3445  0.0420
 4610W        W47523  33.401  33.773   1.769  0.1758  0.0090 -0.1662
 4611W        W47524   1.261   1.056  24.563  0.1594  0.0887  0.0772
 4612W        W47525   1.178  31.447  24.633  0.1534 -0.0218  0.0188
 4613W        W47526   8.584   2.348  23.686 -0.4709  0.0369  0.0732
 4614W        W47527   4.521   1.280  16.689  0.0837 -0.3240 -0.0688
 4615W        W47528  13.055   3.444  26.195  0.1044 -0.1696  0.1484
 4616W        W47529   7.126   0.005  17.242 -0.4015  0.3127 -0.0559
 4617W        W47530   0.239  32.003  14.913 -0.4191 -0.2717 -0.0265
 4618W        W47531   0.466   7.734  21.623  0.0711 -0.0378  0.5272
 4619W        W47532  15.429  10.491  23.790  0.1128 -0.3423  0.0034
 4620W        W47533  28.523   6.000  15.633 -0.2270  0.4088  0.1451
 4621W        W47534  29.698   1.006  19.104  0.0511  0.1054 -0.0910
 4622W        W47535   3.925   6.158  20.136  0.0064  0.1605 -0.3918
 4623W        W47536   3.399  26.353  21.669 -0.0271 -0.0324 -0.1679
 4624W        W47537  27.686  22.470   0.330  0.1792  0.0432 -0.0956
 4625W        W47538   6.345  20.418  29.590  0.0868  0.1983 -0.1805
 4626W        W47539   4.169   2.766  27.858  0.0845 -0.0301  0.0137
 4627W        W47540   2.234   2.203  22.308  0.0902 -0.2652  0.0172
 4628W        W47541   3.238   4.219  28.910 -0.2127  0.0141  0.1527
 4629W        W47542   2.960   9.804  21.229 -0.1958  0.2987  0.1388
 4630W        W47543  34.325   6.932   1.894  0.3201 -0.2523  0.2132
 4631W        W47544  32.299  34.072  27.465 -0.0189  0.2091  0.0080
 4632W        W47545   6.826   0.287  26.974  0.2313  0.0480  0.0660
 4633W        W47546  10.610   4.621   3.417  0.0280  0.0496  0.3332
 4634W        W47547  21.448   2.065  18.147 -0.1762  0.0400 -0.1714
 4635W        W47548   2.333  32.590  22.967 -0.0547  0.2044  0.3051
 4636W        W47549  30.610   8.915  20.702  0.1297  0.0886 -0.2604
 4637W        W47550  26.910  34.006  21.745  0.0014  0.1944  0.2817
 4638W        W47551  27.200  32.730  16.697 -0.2677 -0.1936 -0.2069
 4639W        W47552  33.119  30.855  26.384 -0.3590 -0.3199 -0.0564
 4640W        W47553  28.122   7.107  19.158  0.2081  0.1995 -0.0552
 4641W        W47554   8.615   7.903  24.318  0.2107  0.1840 -0.1554
 4642W        W47555  10.477   3.068  20.889 -0.1198  0.0760  0.3673
 4643W        W47556   4.234  34.219  17.876  0.1627  0.0679  0.3731
 4644W        W47557   2.505   0.055  17.124 -0.0550 -0.0583 -0.1025
 4645W        W47558   5.400  29.020  22.042  0.1462  0.1610 -0.3033
 4646W        W47559   0.595  28.619  28.843 -0.2702 -0.1916 -0.0128
 4647W        W47560  31.498   2.896  26.494 -0.0437 -0.1822  0.0301
 4648W        W47561  31.161   4.174   0.051 -0.1309  0.0626 -0.0770
 4649W        W47562  33.875   2.255  20.360 -0.1536  0.2217 -0.1489
 4650W        W47563   3.939   8.793  28.265  0.0001  0.0496  0.0073
 4651W        W47564  25.391   5.128  27.476  0.2218 -0.1895 -0.3091
 4652W        W47565   0.408  30.407  20.668  0.1426  0.2485 -0.2218
 4653W        W47566  24.843  30.916  21.378  0.1652  0.0828  0.3281
 4654W        W47567   5.373   2.579  18.002 -0.1803 -0.1025  0.0247
 4655W        W47568  21.891   2.491  23.826  0.1962 -0.1025 -0.0770
 4656W        W47569  32.339   2.651  19.512  0.0540 -0.2288  0.1217
 4657W        W47570  18.655  12.978  21.225 -0.3009  0.1957  0.1088
 4658W        W47571   5.686  32.839  18.689 -0.0711  0.0789  0.0591
 4659W        W47572   7.785  30.319  18.457 -0.3549 -0.2164 -0.0246
 4660W        W47573   9.719  27.954  28.178 -0.2367 -0.1640 -0.2780
 4661W        W47574  31.261   3.995  24.078  0.2406 -0.2251  0.1617
 4662W        W47575  11.984   6.371  20.833 -0.0805 -0.0858  0.2346
 4663W        W47576  31.595  31.023  18.187 -0.1727  0.0196  0.1145
 4664W        W47577   1.129   2.853  19.756 -0.0335 -0.0016 -0.2467
 4665W        W47578   4.525  27.522  21.908 -0.0010 -0.0921  0.0981
 4666W        W47579  11.584   4.108  22.894  0.2281 -0.3212  0.4398
 4667W        W47580  32.650  34.071   0.965  0.1812 -0.0782  0.2159
 4668W        W47581  32.396   2.256  21.069  0.2271  0.1694 -0.0452
 4669W        W47582  26.235  32.396  17.333 -0.2958 -0.2144 -0.0487
 4670W        W47583  30.761  28.171   5.185 -0.2652  0.0254 -0.1832
 4671W        W47584  12.605  29.526  28.606  0.1512  0.2854 -0.0268
 4672W        W47585   0.527   1.258  27.522  0.0121 -0.1288 -0.1067
 4673W        W47586   3.265  20.872  19.751 -0.0511  0.2875  0.3922
 4674W        W47587  29.562   7.996  26.474 -0.3378 -0.1156 -0.0073
 4675W        W47588   5.609   3.060   0.588 -0.1629  0.4806 -0.2241
 4676W        W47589  34.042   1.090  18.567 -0.0367  0.1698  0.1595
 4677W        W47590  31.188   9.226  24.956  0.1636 -0.2289  0.0258
 4678W        W47591   9.181  31.350  28.798  0.1555  0.0020 -0.0792
 4679W        W47592  10.736   3.053  25.225  0.0036 -0.0606  0.3049
 4680W        W47593  26.525   4.323  18.287 -0.0115 -0.0623 -0.0685
 4681W        W47594  15.450  27.961  26.123 -0.1638 -0.1140 -0.0295
 4682W        W47595  17.465  30.361  22.947  0.1599 -0.0346  0.1939
 4683W        W47596  31.102  31.606  27.739 -0.1230 -0.2444 -0.0909
 4684W        W47597  25.919  29.323  23.197 -0.3179 -0.0518  0.1279
 4685W        W47598   3.355  24.968   3.250  0.1847  0.1357 -0.0837
 4686W        W47599   6.347  33.325  22.153  0.3313 -0.0736  0.1903
 4687W        W47600  34.445  29.431  27.146  0.0406  0.1783 -0.1858
 4688W        W47601   2.254  31.366  25.779  0.1268  0.1603 -0.0402
 4689W        W47602  28.287   1.646  18.499 -0.1162 -0.2625  0.0351
 4690W        W47603   3.810  28.486  24.613  0.1121 -0.0161 -0.0133
 4691W        W47604   8.108   6.790  21.555  0.0286  0.3059  0.0338
 4692W        W47605  32.246   1.157   3.626 -0.1558  0.0838  0.2225
 4693W        W47606   4.746  26.508  26.620  0.2293  0.0142 -0.0546
 4694W        W47607   4.304   6.656  19.963 -0.0823 -0.1381  0.1700
 4695W        W47608   6.854  28.744  16.060  0.3865 -0.1035 -0.0786
 4696W        W47609  32.348  28.251  28.229  0.4323 -0.0632 -0.1310
 4697W        W47610   1.749  33.150  18.714  0.0894  0.1951  0.3885
 4698W        W47611  33.473  27.422  19.783 -0.0124  0.1108  0.0660
 4699W        W47612  15.439   6.617  25.767 -0.0465  0.1315 -0.3447
 4700W        W47613  28.412  29.336  15.752 -0.4809 -0.2282  0.1298
 4701W        W47614  31.031   4.729  16.594 -0.0782 -0.2565 -0.2547
 4702W        W47615   7.961  30.791  16.708  0.0605 -0.1163 -0.0360
 4703W        W47616   0.076  28.525  24.048 -0.4758  0.0651 -0.0573
 4704W        W47617  23.374   6.050  14.602 -0.0186 -0.0795  0.1344
 4705W        W47618   7.692  30.017  22.376 -0.0788 -0.2612  0.0137
 4706W        W47619  32.990  25.499  25.095  0.1748  0.1680 -0.0637
 4707W        W47620   4.043  30.520  25.655 -0.0192  0.2205 -0.1567
 4708W        W47621   4.281   7.339  23.859  0.1743  0.0223 -0.2686
 4709W        W47622   7.733  32.895  25.671  0.0371 -0.0642  0.0611
 4710W        W47623  33.928   0.362  17.222  0.0247 -0.1259  0.0015
 4711W        W47624  27.097  30.699  27.847 -0.1213 -0.2064  0.3666
 4712W        W47625   1.984   0.629  26.768 -0.3860 -0.2233  0.0089
 4713W        W47626  30.322   0.774  18.536  0.0733 -0.1687 -0.0663
 4714W        W47627   8.691   7.819  25.731 -0.2248  0.0167 -0.0517
 4715W        W47628  31.223   8.537  24.095  0.0770  0.0677  0.0299
 4716W        W47629  30.132  33.560  28.384 -0.0801  0.2708  0.1485
 4717W        W47630  14.121  26.506  18.196  0.2047 -0.0338 -0.1336
 4718W        W47631   5.891   0.154  23.255 -0.0673  0.2257 -0.3241
 4719W        W47632  10.389  21.949  21.222  0.1806  0.2376 -0.0068
 4720W        W47633   3.786  33.125  19.733  0.0882 -0.0156  0.1837
 4721W        W47634   5.667  34.368  24.100  0.1762 -0.4898  0.1981
 4722W        W47635  32.329  12.608  20.005 -0.2555 -0.1429  0.1108
 4723W        W47636   2.245   1.997  26.654  0.0327  0.0087  0.2254
 4724W        W47637  24.101   5.258  27.827  0.0892  0.5167 -0.0211
 4725W        W47638  21.778   5.521  16.543  0.3666  0.0640  0.1084
 4726W        W47639   2.944   2.214  22.079  0.2375 -0.1150  0.1099
 4727W        W47640   0.144   8.330  22.614  0.1046 -0.2867 -0.3766
 4728W        W47641  22.619   8.855  16.715 -0.1198 -0.1554 -0.3334
 4729W        W47642   0.252  32.841  22.414  0.0473  0.2333  0.0262
 4730W        W47643  22.144   2.823   1.160  0.2175  0.1804  0.1953
 4731W        W47644   9.299  28.849  23.725 -0.0020  0.3060  0.1336
 4732W        W47645   2.420   4.810  18.837  0.0942  0.0218  0.0548
 4733W        W47646  32.746  19.233  24.730  0.1035 -0.1164  0.1222
 4734W        W47647   3.012  28.143  15.913 -0.1005  0.1059  0.0374
 4735W        W47648   9.873   1.674  21.437 -0.1677  0.3822  0.1514
 4736W        W47649   3.464  29.559  16.280  0.2861  0.1785  0.1367
 4737W        W47650  33.110  31.939  17.651 -0.3453 -0.0342 -0.2043
 4738W        W47651  33.723   1.939   0.859 -0.1515 -0.0804 -0.0925
 4739W        W47652  27.410  31.489  17.312  0.2069 -0.1486 -0.0880
 4740W        W47653   7.930  29.181   3.088 -0.0320 -0.0690 -0.3198
 4741W        W47654   8.019  14.217  14.347  0.4132  0.0084 -0.0040
 4742W        W47655   8.213  30.841  18.845  0.0017 -0.3071  0.2150
 4743W        W47656   5.854   8.446  26.925 -0.1166  0.0947  0.0445
 4744W        W47657  29.729  30.458   3.565 -0.0226  0.2503  0.1368
 4745W        W47658  30.666  32.481  24.055 -0.0106 -0.2285  0.1966
 4746W        W47659  27.058   3.924  16.180  0.2674  0.0511  0.0109
 4747W        W47660   3.719   1.787  20.892  0.1300  0.1240  0.2022
 4748W        W47661   8.985  23.787   3.495  0.0140 -0.0035 -0.1328
 4749W        W47662  27.914  28.720  27.499  0.0209 -0.2166 -0.1649
 4750W        W47663   3.025  34.450  27.259 -0.2649 -0.0622 -0.0483
 4751W        W47664  32.747  11.214  17.912 -0.2740 -0.2289 -0.1676
 4752W        W47665   0.751  29.208   5.565 -0.0525 -0.0916  0.0129
 4753W        W47666   3.140  30.958  26.248 -0.1492  0.1073  0.3663
 4754W        W47667  15.453   5.371  20.863  0.0364 -0.2380 -0.0007
 4755W        W47668  33.670  34.226  24.854 -0.2028  0.2199  0.1383
 4756W        W47669  19.983  28.003  23.792  0.0486 -0.1531  0.1585
 4757W        W47670   6.744  22.157  25.254  0.1362  0.2619  0.2208
 4758W        W47671  12.293   2.231  23.490  0.0484  0.1483  0.0058
 4759W        W47672  30.690  32.914  24.516  0.1714  0.1886  0.1919
 4760W        W47673   4.196  32.130  29.014 -0.1803 -0.1947 -0.0427
 4761W        W47674   2.083   2.568  19.174 -0.2597 -0.0750  0.2114
 4762W        W47675   6.202  33.437  19.576 -0.2754 -0.0935 -0.2592
 4763W        W47676  33.720   7.721  11.170 -0.1485  0.4170 -0.3405
 4764W        W47677  27.505   8.951   3.622  0.1971 -0.1346 -0.0657
 4765W        W47678   2.157  32.953   8.816 -0.2097 -0.3192 -0.0706
 4766W        W47679  32.824   4.738  19.839 -0.1931 -0.2047 -0.3864
 4767W        W47680   5.893   6.940  20.036  0.2368 -0.0108  0.2983
 4768W        W47681  30.728   0.430  22.704  0.3025 -0.0145  0.1492
 4769W        W47682  32.726   1.199  25.729 -0.0803 -0.1018 -0.1664
 4770W        W47683   2.535  29.463  23.233  0.1248 -0.1301  0.1927
 4771W        W47684  32.894  12.657   1.645  0.0208  0.2365  0.3749
 4772W        W47685  29.501  10.578  27.801 -0.0102  0.1817  0.2237
 4773W        W47686   4.983  19.645  28.921 -0.3831  0.1081  0.1197
 4774W        W47687   7.725   0.701  28.157 -0.2127 -0.2066 -0.1122
 4775W        W47688   5.676   2.787  26.090 -0.1931 -0.2790 -0.1167
 4776W        W47689   8.005  29.285   0.908 -0.1456 -0.0080  0.2450
 4777W        W47690   3.509   0.636  28.221  0.0475  0.0746 -0.0259
 4778W        W47691  31.684  29.088  19.920 -0.3106 -0.0733 -0.0135
 4779W        W47692   4.098  29.111  25.143  0.2341 -0.2867  0.0410
 4780W        W47693   4.015  14.003  26.753 -0.1818 -0.1668 -0.1759
 4781W        W47694  31.097  30.803  21.481 -0.4265  0.0131 -0.0759
 4782W        W47695   8.257  33.978  19.033  0.4669 -0.0515  0.1090
 4783W        W47696  23.885  28.607  28.759  0.1049 -0.0586  0.0263
 4784W        W47697  33.095   4.337  27.801  0.1842 -0.0870  0.0634
 4785W        W47698   4.693   3.478  20.149  0.0991 -0.1241 -0.0628
 4786W        W47699   2.944  32.611  25.982  0.1213 -0.1426 -0.0306
 4787W        W47700  13.941  30.925  20.209  0.1720  0.2612  0.0519
 4788W        W47701   8.053   0.536  22.710  0.0458 -0.1492  0.1000
 4789W        W47702   1.457  28.657  22.932 -0.2099 -0.1492 -0.1940
 4790W        W47703   0.887  33.025   1.076 -0.0524 -0.1440 -0.2874
 4791W        W47704  28.817   7.490  21.035 -0.0932 -0.1607 -0.0230
 4792W        W47705  28.570  34.038   2.023 -0.0973 -0.0111 -0.0091
 4793W        W47706   2.557  13.601  24.261  0.0284 -0.1196  0.1686
 4794W        W47707   0.148  12.753   2.508 -0.0067 -0.0809  0.0954
 4795W        W47708   1.511   4.824   4.709  0.1843 -0.2432  0.1903
 4796W        W47709   5.736  32.631  24.631 -0.0930 -0.2908 -0.0417
 4797W        W47710   0.155  32.445  23.434  0.1237  0.1043  0.2966
 4798W        W47711   9.464  26.779  23.004  0.2815 -0.2427  0.0314
 4799W        W47712   6.356  11.687   2.218  0.2714  0.2263  0.1709
 4800W        W47713  25.994   7.262   1.950 -0.0394  0.3262 -0.1705
 4801W        W47714   9.377   0.181  18.334 -0.1863  0.2069 -0.0687
 4802W        W47715  22.253   4.460  27.514  0.0121  0.2233  0.1484
 4803W        W47716   3.062  33.592  24.668 -0.1600 -0.1174  0.1083
 4804W        W47717  21.313  33.397  16.428  0.2534 -0.1541  0.0097
 4805W        W47718   1.193   0.391  27.019 -0.0740  0.1030  0.0683
 4806W        W47719   8.168  33.595  19.796  0.1174  0.1886  0.1454
 4807W        W47720  31.691   2.423  26.374  0.2356 -0.0491 -0.0915
 4808W        W47721  33.084   2.175  28.154  0.0476 -0.1920 -0.0340
 4809W        W47722   3.925  30.372  23.601 -0.0328 -0.1637 -0.0991
 4810W        W47723  34.410  22.716   4.857 -0.0505  0.0925 -0.1104
 4811W        W47724   3.501   0.847  27.243 -0.5179 -0.1124  0.2820
 4812W        W47725  33.441   1.405  21.892  0.0490  0.1303  0.0230
 4813W        W47726  33.147  28.309  22.554 -0.1872 -0.1445 -0.1329
 4814W        W47727   6.987  25.512  26.154  0.1037 -0.2136 -0.0114
 4815W        W47728  10.565  33.797  21.902  0.0937 -0.1802 -0.0183
 4816W        W47729  10.020   9.297  26.964  0.2945 -0.2159  0.1498
 4817W        W47730  18.138  13.593  26.217 -0.3707  0.1349 -0.2363
 4818W        W47731  29.571   4.748  19.313 -0.4608  0.1732  0.0708
 4819W        W47732  23.727  14.863  21.671 -0.0137 -0.2380 -0.0666
 4820W        W47733   3.193  27.486  20.119 -0.1096  0.0629  0.1833
 4821W        W47734  10.379   3.989  24.423 -0.2228  0.0035  0.1288
 4822W        W47735   4.074  12.903  26.779 -0.1227 -0.0213  0.0467
 4823W        W47736   3.214   9.974  15.801  0.2427  0.2449 -0.0293
 4824W        W47737  18.113  10.824  17.442 -0.1256  0.1908 -0.0396
 4825W        W47738  16.082   6.430  19.298 -0.4345  0.0673  0.0550
 4826W        W47739  33.768  30.321  19.967  0.3661  0.0820  0.2963
 4827W        W47740   0.089   1.993  22.004 -0.1544 -0.1152  0.1022
 4828W        W47741  10.692  34.047  25.879 -0.0860  0.0097 -0.0327
 4829W        W47742  29.837   6.105  23.117 -0.0133  0.0645  0.0494
 4830W        W47743   2.678  22.405  23.289  0.2367 -0.1019 -0.0617
 4831W        W47744   2.170   1.690  22.268 -0.0416 -0.1422 -0.0825
 4832W        W47745  29.427  29.108   1.578 -0.0958  0.0718 -0.0850
 4833W        W47746   5.045   8.483  18.391 -0.4389 -0.0955 -0.3196
 4834W        W47747   9.834   8.441   4.711 -0.0278  0.2427 -0.0604
 4835W        W47748  11.151  33.150  25.671  0.0252 -0.1676 -0.1618
 4836W        W47749  11.804   3.788  26.341 -0.2293  0.1047 -0.0185
 4837W        W47750  23.239   5.155   5.449 -0.1367  0.0023  0.2248
 4838W        W47751  28.868  10.050  15.067  0.2852  0.0464  0.0883
 4839W        W47752   0.777  34.362   1.331 -0.0002 -0.3425 -0.1540
 4840W        W47753  21.621  11.242  20.910  0.1640  0.2352  0.2911
 4841W        W47754   9.638  11.793  20.581  0.3456  0.3434  0.0526
 4842W        W47755   6.486  26.992  16.803 -0.2081 -0.1960 -0.0161
 4843W        W47756  12.896   9.695  29.011  0.0637 -0.1799 -0.0255
 4844W        W47757  19.504   3.219   1.044  0.3829  0.0735  0.2912
 4845W        W47758  29.113  12.559  26.388  0.0098  0.2510 -0.0902
 4846W        W47759  12.445  34.388  23.178  0.0965 -0.0641  0.2066
 4847W        W47760  32.161  15.484  24.761  0.0053  0.0278  0.2012
 4848W        W47761  34.297   3.135   0.064 -0.1285 -0.0625 -0.1225
 4849W        W47762   3.106  32.104  20.509 -0.3177  0.2248 -0.1328
 4850W        W47763  13.997  10.876  28.346  0.0566 -0.1402  0.2723
 4851W        W47764   5.744  25.337  27.447  0.0593  0.0284  0.0699
 4852W        W47765   3.849  30.544  24.819 -0.1828 -0.1099 -0.3598
 4853W        W47766   2.366   4.091  27.283  0.2815  0.2052 -0.0953
 4854W        W47767  27.835   3.050  22.806 -0.0561 -0.1932  0.1499
 4855W        W47768  10.901  25.911  23.145 -0.0026 -0.1360  0.2025
 4856W        W47769   0.395   7.883  25.814 -0.1005 -0.2042  0.2864
 4857W        W47770   9.568  27.259   1.610 -0.0394  0.2400  0.1774
 4858W        W47771   7.637   6.234   1.483  0.0020  0.3707  0.2639
 4859W        W47772   9.042   1.950   3.244  0.0708  0.0829 -0.0446
 4860W        W47773   4.743  29.462  25.541 -0.3121  0.1245  0.3610
 4861W        W47774  10.382  10.299  25.091 -0.0989 -0.0663  0.3003
 4862W        W47775   2.496  29.358  22.752 -0.0679  0.2048 -0.3337
 4863W        W47776  34.258   2.921   9.262  0.0061 -0.4487  0.0260
 4864W        W47777   7.654  32.053  22.282  0.2493  0.1372 -0.3840
 4865W        W47778  29.844   8.453  20.297  0.1329 -0.2902 -0.0380
 4866W        W47779  14.571  29.802  17.381 -0.3359  0.2377  0.0457
 4867W        W47780  33.628   8.676  22.551  0.1826 -0.3141  0.0135
 4868W        W47781  30.371  25.548  28.237  0.0524  0.0002  0.2168
 4869W        W47782   2.504  32.224  17.077  0.1135  0.1831 -0.0465
 4870W        W47783  31.228  32.530   2.327 -0.0462 -0.1109  0.0120
 4871W        W47784   0.995  11.561  25.703  0.0365 -0.0960  0.0637
 4872W        W47785  29.939   0.721   4.348  0.0624  0.3316 -0.1399
 4873W        W47786  34.087   5.285  24.583 -0.2247 -0.0323 -0.0074
 4874W        W47787  31.674   5.113   3.243 -0.0106 -0.3559  0.2049
 4875W        W47788  25.020   5.907  28.217 -0.1981 -0.3240  0.1621
 4876W        W47789  30.933   2.556   1.282 -0.1152  0.3351 -0.0418
 4877W        W47790  12.498   1.243  16.641  0.3048  0.0897 -0.2321
 4878W        W47791   5.357  30.542   2.101 -0.2349 -0.2971 -0.0849
 4879W        W47792   3.266  22.876  25.362 -0.2664 -0.0974  0.0598
 4880W        W47793   0.138  12.196  23.635  0.1226  0.1939 -0.1388
 4881W        W47794  10.872   5.429  21.445 -0.4334 -0.3036  0.0397
 4882W        W47795   8.131  31.475   5.283 -0.0920  0.0101 -0.4421
 4883W        W47796  11.471  24.061  18.188 -0.0298  0.0234 -0.2375
 4884W        W47797  11.635   0.590  20.680  0.0232 -0.1742 -0.0451
 4885W        W47798   9.113  34.465  25.754  0.2488 -0.1452 -0.0524
 4886W        W47799  29.127  34.378  26.684  0.1132  0.0776 -0.1002
 4887W        W47800   3.360  22.435  24.392  0.0667 -0.0742  0.2857
 4888W        W47801  12.541   8.356  28.298  0.0908 -0.1619  0.0982
 4889W        W47802   5.636  16.410  29.110 -0.1135  0.1279 -0.2951
 4890W        W47803  30.897   8.926   2.870  0.0392 -0.1301 -0.2341
 4891W        W47804   1.849  33.484  22.600 -0.1379  0.2739  0.4101
 4892W        W47805   1.342  18.343  15.531  0.1140  0.0739  0.3083
 4893W        W47806  31.167  25.203  28.622  0.0609 -0.0275  0.0498
 4894W        W47807   7.075  21.981   1.044 -0.0199 -0.0918  0.0461
 4895W        W47808   2.302  32.030   0.095 -0.0801  0.1567 -0.1636
 4896W        W47809   0.678   3.913  17.523 -0.2642  0.1946 -0.2024
 4897W        W47810  31.410   5.390  24.002  0.0093  0.2556  0.0200
 4898W        W47811  31.533   1.579  24.586  0.2831 -0.0783 -0.3242
 4899W        W47812   2.832  32.969  26.371 -0.0644 -0.3584 -0.1475
 4900W        W47813  11.137  32.441   5.072 -0.0703  0.1246 -0.0017
 4901W        W47814   9.298   4.138  23.630  0.1911 -0.3323 -0.0439
 4902W        W47815   0.426  27.925  23.865  0.0932  0.0522 -0.1296
 4903W        W47816  14.379   5.645   1.873 -0.1613  0.1244 -0.0345
 4904W        W47817   4.321  26.842  25.218  0.3264  0.0946 -0.0188
 4905W        W47818   7.537  30.936  24.913  0.0451 -0.2598 -0.0773
 4906W        W47819  32.582  10.350   9.567 -0.1447 -0.0743  0.2422
 4907W        W47820  30.168   0.616  19.969  0.0896 -0.0213 -0.0043
 4908W        W47821  34.487   3.104  26.516 -0.2029  0.2642  0.0306
 4909W        W47822  31.801  32.974  21.963 -0.1576  0.3534 -0.0333
 4910W        W47823   2.938  29.450   3.782 -0.0086 -0.0571 -0.2707
 4911W        W47824   8.614   3.360  25.169  0.2019  0.0005 -0.1092
 4912W        W47825   7.657   0.676   3.451  0.0601  0.1706 -0.0908
 4913W        W47826   2.398   4.958  22.749 -0.1457  0.2029 -0.0999
 4914W        W47827   8.543   0.458  22.009  0.2216 -0.0544 -0.1746
 4915W        W47828  32.082   3.550  21.807  0.1384 -0.1133 -0.1978
 4916W        W47829  33.594   1.460  20.571 -0.0228  0.0869 -0.1324
 4917W        W47830   1.560   7.163  21.277 -0.1910  0.1761  0.3399
 4918W        W47831   7.580  28.989  18.329 -0.1134 -0.0806 -0.0691
 4919W        W47832   2.198  29.464  19.320  0.0800  0.3114 -0.0486
 4920W        W47833   6.368   1.377  23.116 -0.0041  0.3298  0.1842
 4921W        W47834   3.224   4.601  19.918  0.0655 -0.0337  0.0126
 4922W        W47835   8.947   5.470  19.869 -0.1396 -0.0276  0.2253
 4923W        W47836  34.055   3.012  21.209 -0.0280  0.3529  0.0265
 4924W        W47837  24.701   6.748  27.487 -0.1229  0.4424  0.1274
 4925W        W47838  32.071  26.963  17.031  0.2630 -0.0309 -0.0583
 4926W        W47839  25.832  29.114  20.908 -0.1824  0.1562  0.4405
 4927W        W47840  25.664  26.830  21.689 -0.1111  0.2296  0.2746
 4928W        W47841   7.881   2.131  27.918 -0.2909  0.0288 -0.2310
 4929W        W47842  33.903  15.728   5.293 -0.4477 -0.1208 -0.0953
 4930W        W47843   1.736   6.809  16.469 -0.1386 -0.1732  0.4613
 4931W        W47844   6.661   8.278  22.541  0.1509 -0.2436 -0.3148
 4932W        W47845  31.854   2.052  21.874  0.1143  0.1346  0.0136
 4933W        W47846   3.538   4.617   7.155 -0.0642 -0.1548 -0.2744
 4934W        W47847  33.550   4.169   0.073  0.1509  0.2189 -0.1546
 4935W        W47848   6.702   0.488   0.930  0.0186 -0.1305  0.0287
 4936W        W47849   4.824  33.747  20.519  0.2129  0.0325  0.2440
 4937W        W47850  32.400  32.912   5.319  0.0155 -0.2394 -0.0481
 4938W        W47851   3.990  27.420  27.706 -0.0905 -0.4503 -0.0826
 4939W        W47852   7.795   1.875  24.342 -0.0543 -0.0420 -0.0142
 4940W        W47853  31.589  30.336   2.128 -0.0452 -0.1817  0.0244
 4941W        W47854   1.498   1.554  27.143 -0.2328 -0.1490 -0.1206
 4942W        W47855  33.858   7.928  27.935  0.3258 -0.0053 -0.1515
 4943W        W47856   6.779  33.430   0.175 -0.2586 -0.3399 -0.4044
 4944W        W47857   0.679   7.481   1.337  0.2319  0.0052  0.2055
 4945W        W47858  33.913   1.522  26.212  0.0567  0.3914 -0.1775
 4946W        W47859   3.029   3.555  26.030 -0.1565  0.1306  0.1142
 4947W        W47860   4.020  32.553  28.867  0.0227  0.0399  0.0602
 4948W        W47861  30.166  10.994  26.083 -0.0586  0.1788  0.2537
 4949W        W47862   3.293   1.090   9.668  0.0576  0.0451  0.1527
 4950W        W47863   8.796   3.907  23.598 -0.2789 -0.0010  0.0409
 4951W        W47864   8.834   3.261  24.717  0.1323  0.1784  0.1378
 4952W        W47865  28.568  22.210  27.688 -0.3019 -0.2734 -0.1442
 4953W        W47866  11.902  11.943  14.863 -0.2625 -0.0890  0.4172
 4954W        W47867   1.591  31.183  19.014  0.2028 -0.0401  0.3778
 4955W        W47868  29.144  32.634  16.315 -0.0519 -0.2997  0.0526
 4956W        W47869  32.126  13.736   0.537 -0.1017  0.0724  0.0882
 4957W        W47870   1.010   5.144  18.344  0.0709  0.0667 -0.0290
 4958W        W47871   1.395   5.432  22.498 -0.0324 -0.0115 -0.1875
 4959W        W47872  31.314   6.037  21.740 -0.0762 -0.4772  0.0114
 4960W        W47873  30.677  31.188   0.886  0.2306 -0.0661 -0.0938
 4961W        W47874  33.385  29.913  21.779 -0.0103  0.0119 -0.2171
 4962W        W47875   2.235  32.858  15.806 -0.3400  0.1108  0.0321
 4963W        W47876   7.773  32.384  19.640  0.1884 -0.0090 -0.1866
 4964W        W47877  31.468  10.125  24.055  0.0951 -0.0263  0.0404
 4965W        W47878  33.872   3.001  22.862 -0.2312 -0.2108  0.1700
 4966W        W47879   2.182   2.559  26.844  0.0786  0.3001 -0.0455
 4967W        W47880  11.017   4.604  29.642  0.2353 -0.0040 -0.2363
 4968W        W47881  10.480  32.981  27.108  0.0576 -0.0342 -0.0752
 4969W        W47882  32.588  16.814  27.097 -0.2691 -0.2532  0.0246
 4970W        W47883  28.889  30.448  19.031  0.0901 -0.2715  0.1016
 4971W        W47884   3.327  30.089  28.426 -0.0567  0.0728  0.2859
 4972W        W47885  32.459  10.132  19.466 -0.2780 -0.2880 -0.1870
 4973W        W47886   3.518  32.309   1.789 -0.1283  0.0844  0.1777
 4974W        W47887  33.357  11.585  28.384 -0.0828 -0.1012 -0.2981
 4975W        W47888  31.555  28.002  22.613  0.0836  0.1892  0.0115
 4976W        W47889  11.931  27.796   6.166  0.0424 -0.3245 -0.1270
 4977W        W47890   1.851   2.904  21.027 -0.4042 -0.0815  0.0847
 4978W        W47891   3.603   9.955   2.513  0.3961  0.4143 -0.2105
 4979W        W47892   0.984   1.063  26.245  0.2840  0.2172 -0.0341
 4980W        W47893  34.011  31.337   1.521  0.0687  0.4782  0.2719
 4981W        W47894  32.011   6.382  16.455 -0.2987  0.0156  0.1371
 4982W        W47895  30.776  28.762   0.730 -0.1666 -0.2970  0.0712
 4983W        W47896  12.826  10.575  25.487 -0.0482 -0.1226  0.1013
 4984W        W47897  30.765   7.465  26.998  0.2770  0.0206 -0.3074
 4985W        W47898   4.709   8.342  20.659  0.4802 -0.0518 -0.3016
 4986W        W47899  29.595   9.442  20.316 -0.2016  0.1183  0.3297
 4987W        W47900   9.240  34.018  29.268  0.1028 -0.0090  0.0012
 4988W        W47901  30.593  10.563   0.045  0.0010  0.1082 -0.1797
 4989W        W47902  25.545  31.315  15.553  0.3407  0.3484 -0.0856
 4990W        W47903   8.491   4.094  28.288 -0.1599  0.0439 -0.2086
 4991W        W47904  34.123  30.595   3.760  0.3516 -0.2113  0.0161
 4992W        W47905   4.427  27.341  25.110 -0.3108  0.2433  0.1435
 4993W        W47906   2.571   9.025   3.850 -0.2262 -0.0079 -0.3322
 4994W        W47907   4.368   5.188   1.706  0.1058  0.1401 -0.2391
 4995W        W47908   6.055   6.384  25.185 -0.0683  0.0847  0.1356
 4996W        W47909   8.861   4.413  22.755  0.1851  0.0191  0.1177
 4997W        W47910  32.368   7.912  29.024 -0.1762 -0.0995 -0.1127
 4998W        W47911  29.317   3.785  25.530 -0.2317  0.0937 -0.2644
 4999W        W47912  11.215  33.008  22.552 -0.1621  0.3096 -0.0014
 5000W        W47913   0.117  27.311  24.462 -0.1886  0.1221  0.1519
 5001W        W47914   0.818   5.649  17.200 -0.0364 -0.0085  0.0786
 5002W        W47915   7.067  19.209   4.608 -0.1297  0.3336 -0.3885
 5003W        W47916   8.453   0.203  29.201  0.0411 -0.1255  0.4310
 5004W        W47917  31.171  32.566   0.928 -0.0334 -0.0695  0.1305
 5005W        W47918  30.965  30.027  13.873  0.1357 -0.0009  0.0423
 5006W        W47919  32.888  27.503  15.536 -0.0659  0.4441  0.1574
 5007W        W47920   3.283  32.943  29.518 -0.0309 -0.0172  0.0263
 5008W        W47921   6.708   9.048   2.578 -0.3602  0.1906  0.0293
 5009W        W47922  28.585   2.399  15.830  0.1425  0.0223 -0.0754
 5010W        W47923   3.271   4.858  17.432  0.1179  0.0858  0.1947
 5011W        W47924  31.265   9.651  25.408  0.0312 -0.1445 -0.1430
 5012W        W47925  32.863   4.899  21.645 -0.1109 -0.1666  0.0899
 5013W        W47926  16.047   7.230  21.325  0.0275 -0.0843  0.0065
 5014W        W47927   1.369  27.092  19.905  0.2973 -0.1259  0.2828
 5015W        W47928   6.934  32.748  23.249  0.1855  0.2313  0.1062
 5016W        W47929   6.135  28.783  18.754  0.0137 -0.0868 -0.0033
 5017W        W47930  30.033  32.227  16.160  0.2664 -0.1511 -0.0045
 5018W        W47931   0.771  12.662  28.556 -0.2092 -0.2189  0.1973
 5019W        W47932  14.679   0.233   0.694 -0.1443 -0.3264 -0.2986
 5020W        W47933   3.013  34.317  23.136  0.1228  0.0055  0.3431
 5021W        W47934   0.205  26.143  19.772  0.0779  0.0590  0.1088
 5022W        W47935   2.238  33.577  24.840  0.2478 -0.0948  0.1388
 5023W        W47936   1.084   8.245  17.622 -0.4052 -0.2967  0.0076
 5024W        W47937   7.142  32.143   4.551 -0.1890  0.1820  0.0213
 5025W        W47938  32.139  12.122  25.988  0.1350 -0.3614 -0.0896
 5026W        W47939  34.175   2.578  22.759  0.2808 -0.0960 -0.2505
 5027W        W47940  19.689   6.651  29.223 -0.0833 -0.1486 -0.0880
 5028W        W47941   1.752  33.414   1.122  0.0428  0.1036  0.1459
 5029W        W47942  31.671   6.145  18.086 -0.1137 -0.3511 -0.1520
 5030W        W47943  13.587  17.568  22.336  0.1782  0.0913  0.0631
 5031W        W47944   1.100   4.438   4.621 -0.0785 -0.1628 -0.0034
 5032W        W47945  20.422  33.578  22.519  0.0831  0.0290  0.3347
 5033W        W47946   4.272  32.944  25.552  0.1177 -0.0184 -0.0830
 5034W        W47947   7.964   5.601  27.920  0.0635 -0.2240 -0.0844
 5035W        W47948  33.431  32.668  29.321  0.2060 -0.0747 -0.2784
 5036W        W47949  10.351  32.881  29.379  0.1721 -0.0532 -0.2851
 5037W        W47950   4.995  29.220   0.249 -0.0242 -0.0186 -0.0767
 5038W        W47951   3.656  27.976  23.196 -0.2686  0.0534 -0.1512
 5039W        W47952  30.439   4.017  28.482  0.2883 -0.3021 -0.2114
 5040W        W47953  31.914  26.992  24.076  0.1286  0.1051 -0.1226
 5041W        W47954  24.102   8.390  27.594 -0.0340  0.0122  0.2293
 5042W        W47955  32.402   2.872  17.693 -0.2021  0.0774 -0.1330
 5043W        W47956  32.208  30.581  15.932 -0.2801  0.3358 -0.2901
 5044W        W47957   8.166  33.187  25.638  0.0727  0.1011 -0.2430
 5045W        W47958   1.377   0.986  20.154 -0.0637 -0.1459  0.3279
 5046W        W47959  25.897   7.703   2.128  0.0654 -0.0843 -0.1431
 5047W        W47960   3.495   4.241  16.880  0.3376 -0.2024 -0.1075
 5048W        W47961  25.305  21.287   0.875 -0.1099 -0.1967  0.5893
 5049W        W47962   4.161   5.369  29.302 -0.0839 -0.2190 -0.0623
 5050W        W47963   3.085   0.755   2.702 -0.0990 -0.0901  0.1541
 5051W        W47964  30.811  33.297  17.960  0.1333  0.0168 -0.0672
 5052W        W47965  31.767  11.400  29.759 -0.0124 -0.2133 -0.1081
 5053W        W47966  20.022  27.464   0.888 -0.1160 -0.0428  0.2209
 5054W        W47967  28.216  11.304   8.641  0.1445  0.0516  0.0608
 5055W        W47968  33.884  31.272  20.208  0.0696  0.0382 -0.5733
 5056W        W47969   4.259   3.766  20.497  0.0131  0.2183 -0.1630
 5057W        W47970   6.174  30.888  16.955  0.2033  0.0523 -0.2174
 5058W        W47971  33.047   1.983   1.462 -0.0125  0.1294  0.2152
 5059W        W47972   4.248  30.185  26.996 -0.1432  0.2394  0.0617
 5060W        W47973   3.682   1.238   6.540 -0.0660  0.4084  0.0333
 5061W        W47974  33.758  29.810   7.299 -0.0256 -0.1258 -0.1522
 5062W        W47975   2.466  12.338  21.213  0.1459 -0.1054  0.0399
 5063W        W47976  31.616   4.589  23.305 -0.0633 -0.0158  0.0245
 5064W        W47977  30.418  12.089  20.862 -0.1472  0.3209 -0.0417
 5065W        W47978  11.941  34.094  19.647 -0.1531 -0.0850 -0.1376
 5066W        W47979  15.712   5.557  19.889 -0.0081 -0.1524 -0.0300
 5067W        W47980   4.148   1.293   1.031  0.3418 -0.1315 -0.0989
 5068W        W47981  29.814   0.725   3.399 -0.1714 -0.0487  0.1696
 5069W        W47982  10.552  32.392  18.743  0.1408 -0.2103  0.0040
 5070W        W47983  12.724   5.745  17.715 -0.3379 -0.0688 -0.0890
 5071W        W47984  33.780  32.278  18.294 -0.0443  0.1374  0.0885
 5072W        W47985  33.110  27.266  27.790  0.3034 -0.1959 -0.0358
 5073W        W47986   5.395  33.954  24.015 -0.2227 -0.0707  0.3882
 5074W        W47987   2.047  33.822  24.424 -0.2132 -0.1223  0.0370
 5075W        W47988   0.956  33.339  27.422 -0.2786  0.0227  0.2346
 5076W        W47989   9.212  10.180  23.426 -0.1642 -0.1741 -0.0775
 5077W        W47990  32.131   8.310  22.061  0.1202  0.0437 -0.1961
 5078W        W47991  10.905   2.031  17.230 -0.0282  0.0339 -0.0663
 5079W        W47992  30.478   1.239  29.699 -0.1187  0.0498  0.2641
 5080W        W47993  34.410  32.441  22.352 -0.1676 -0.1459 -0.0186
 5081W        W47994   6.359  25.270  24.838  0.2026 -0.1655  0.0502
 5082W        W47995  31.747  28.078  19.201  0.1836  0.1679 -0.1502
 5083W        W47996   3.949  22.511  23.904 -0.0300  0.1144  0.0818
 5084W        W47997   0.348   3.243  24.313 -0.0566  0.0934 -0.0132
 5085W        W47998  16.089   6.506  14.233  0.1916  0.0755  0.0834
 5086W        W47999  11.293  18.613   0.872 -0.0229 -0.1382 -0.1582
 5087W        W48000  28.406  12.705  18.567 -0.2488 -0.2746 -0.4169
 5088W        W48001  34.082   8.048  29.672  0.2738  0.0012 -0.0077
 5089W        W48002   7.242   0.305  18.547  0.1066 -0.0647 -0.0918
 5090W        W48003   6.506  32.860  24.682 -0.1233  0.0706 -0.0621
 5091W        W48004  24.835   3.835  25.143  0.0376 -0.3129  0.1252
 5092W        W48005   1.003   4.683  27.412 -0.1401  0.3079 -0.0076
 5093W        W48006   8.035   4.491  27.253  0.1964  0.0850  0.2195
 5094W        W48007   6.411  32.946  18.820  0.3365  0.3137  0.1805
 5095W        W48008  25.177   3.461   1.151  0.2332  0.1917 -0.1411
 5096W        W48009  29.676   3.901  27.179  0.0973  0.0077 -0.1429
 5097W        W48010   0.967  33.470   5.259  0.2411 -0.0383 -0.0725
 5098W        W48011   3.233  33.250  23.542  0.1328  0.2478 -0.6088
 5099W        W48012   9.632  23.903  26.883  0.0918  0.0364  0.0448
 5100W        W48013   1.804  32.060  16.182 -0.1259 -0.1857 -0.2512
 5101W        W48014   8.862   2.436   1.687 -0.0053  0.3090  0.1801
 5102W        W48015   0.154  30.046  20.954  0.1636  0.3418 -0.0108
 5103W        W48016   8.934  32.672  22.055 -0.3410 -0.3566 -0.1949
 5104W        W48017   3.230  30.175  26.780 -0.2543  0.1115 -0.2763
 5105W        W48018  12.587  10.451   1.946  0.3408 -0.0142  0.0752
 5106W        W48019   4.644   4.452  29.115  0.1102  0.3322 -0.0370
 5107W        W48020   5.677   2.469   1.202 -0.0384  0.4472  0.1019
 5108W        W48021   0.221   4.858  25.002 -0.1932 -0.2798  0.0743
 5109W        W48022   7.542   4.976  21.037  0.1533  0.0002 -0.0847
 5110W        W48023   4.977  29.791  27.039  0.3408 -0.0059 -0.0282
 5111W        W48024   3.395  26.822   2.959  0.1673 -0.1943  0.2882
 5112W        W48025  12.359   9.751  28.155 -0.2331  0.1033 -0.1509
 5113W        W48026  33.890  32.689  22.838 -0.2192  0.0708 -0.1805
 5114W        W48027  30.902  32.652   7.833 -0.0340 -0.1524  0.0354
 5115W        W48028   1.240  12.777  21.301 -0.0739  0.0326  0.0760
 5116W        W48029   4.183   0.662   0.337  0.1358 -0.0623  0.0139
 5117W        W48030   1.654   7.400   3.881  0.2174 -0.0044  0.2583
 5118W        W48031  28.491  30.721   0.345  0.2108 -0.0636  0.3048
 5119W        W48032  25.940   2.232  21.113  0.0851  0.1684 -0.1222
 5120W        W48033   7.261  14.736  13.770 -0.3159  0.2605  0.0817
 5121W        W48034  18.370   5.753  27.895 -0.0129 -0.2990  0.3099
 5122W        W48035   4.651  24.619  25.500  0.3744  0.1156  0.0762
 5123W        W48036  19.619  26.843  27.959 -0.2919  0.3956 -0.1430
 5124W        W48037  32.530  25.702  25.040  0.1696  0.1665  0.0940
 5125W        W48038   0.258  10.119  26.674 -0.1286  0.0794  0.4086
 5126W        W48039   9.567  25.661  15.854  0.1817  0.3930 -0.0812
 5127W        W48040  30.264   4.021  25.972  0.0205  0.0395  0.0481
 5128W        W48041  27.340   3.141  20.304  0.0140 -0.2678 -0.1492
 5129W        W48042  25.636   2.820  20.020  0.1293 -0.0210  0.3024
 5130W        W48043  32.651  30.656  29.382 -0.1563  0.1579  0.0040
 5131W        W48044   8.057  15.764  27.382  0.3265  0.0979  0.1373
 5132W        W48045  22.986   2.017  23.089 -0.0484  0.0076  0.2263
 5133W        W48046  33.761  10.061  25.012 -0.2216 -0.0004  0.0983
 5134W        W48047   4.541   8.884   7.663  0.2028  0.1192 -0.0607
 5135W        W48048   9.461   6.352  19.103  0.0484 -0.0486  0.2207
 5136W        W48049   5.544  30.896   3.639  0.0137 -0.0392  0.1280
 5137W        W48050   7.642   2.530   2.366  0.1528  0.5419  0.0464
 5138W        W48051   4.976   5.128   6.494  0.0311 -0.2306 -0.1567
 5139W        W48052  31.422  28.020   0.741 -0.1033  0.4316 -0.2693
 5140W        W48053  22.048  30.498   8.038 -0.0076  0.1622  0.0480
 5141W        W48054  32.739  32.659   0.707 -0.1250 -0.3850 -0.0293
 5142W        W48055  12.199  31.761   4.942 -0.3550 -0.2619 -0.0023
 5143W        W48056   0.619  32.502   0.218  0.0707 -0.1776 -0.2527
 5144W        W48057   3.724   4.817  25.935  0.1760  0.3016  0.0072
 5145W        W48058   2.351  31.844  27.984 -0.1092 -0.3945 -0.1020
 5146W        W48059   3.338  32.548   4.325 -0.0709  0.3455 -0.1401
 5147W        W48060  27.263  25.425   0.900  0.0858 -0.1762 -0.0564
 5148W        W48061  20.916  32.550  28.237 -0.1135  0.0051  0.1296
 5149W        W48062   7.438   5.390  18.502 -0.1607 -0.5324  0.1139
 5150W        W48063   1.078  32.200  26.424  0.1954  0.1769 -0.1425
 5151W        W48064  25.789  27.854  23.558 -0.0994  0.1264 -0.1558
 5152W        W48065   4.801   6.407   7.837  0.0149  0.1220 -0.0198
 5153W        W48066   0.968   5.159  25.355 -0.0734 -0.2861  0.1478
 5154W        W48067   8.120  32.054  20.924 -0.2964 -0.0083 -0.1722
 5155W        W48068   1.070   1.595  17.517  0.1287 -0.0126  0.0409
 5156W        W48069   3.443   6.130   5.910 -0.1994 -0.3232 -0.2554
 5157W        W48070   6.165  20.087   3.260  0.1427  0.2192  0.0498
 5158W        W48071  33.088  30.461   7.654 -0.0984  0.3156 -0.2348
 5159W        W48072  12.338   8.344  17.973  0.2074 -0.1896  0.3759
 5160W        W48073  29.677   4.588   0.618 -0.0671  0.2292 -0.2538
 5161W        W48074   2.266  25.288  18.415 -0.0237 -0.1443 -0.1299
 5162W        W48075   7.496  33.981  27.026  0.0820 -0.2251 -0.0475
 5163W        W48076   5.988  14.472  22.030 -0.1974  0.0424 -0.2896
 5164W        W48077   2.905  34.396  22.565 -0.1365  0.0692 -0.2412
 5165W        W48078  33.999   8.386  20.767  0.0433 -0.0003 -0.0843
 5166W        W48079  28.681  33.978  23.031 -0.1663  0.0541  0.1626
 5167W        W48080   3.973  16.130  24.898 -0.3516 -0.5051 -0.0766
 5168W        W48081   3.833  34.009   2.546  0.3539  0.1271 -0.2075
 5169W        W48082  18.177  26.413   5.108 -0.0942 -0.1972  0.2274
 5170W        W48083   4.948   0.696  26.932 -0.1401  0.1263  0.0521
 5171W        W48084  25.227   4.031  19.710 -0.0261  0.1936  0.2011
 5172W        W48085  30.591  26.802   5.166 -0.2265 -0.3947  0.0925
 5173W        W48086   6.905  31.262   0.909 -0.1808  0.0754 -0.0904
 5174W        W48087  30.919  12.319  15.632 -0.1516 -0.2814  0.1788
 5175W        W48088  33.387  30.184  24.262 -0.3677 -0.0247  0.0630
 5176W        W48089  32.181  28.601  29.288  0.2497  0.0941 -0.0034
 5177W        W48090   2.911  14.047   2.532  0.1084 -0.1256 -0.1537
 5178W        W48091  31.155  25.677  19.941 -0.2363 -0.1209  0.2506
 5179W        W48092   3.165   7.345  22.996 -0.1991 -0.2459  0.1549
 5180W        W48093  34.496  29.947   4.670 -0.1773 -0.0545 -0.1119
 5181W        W48094  30.894  33.924  23.820 -0.0444  0.1549  0.1017
 5182W        W48095   1.019  29.621   4.858  0.0218 -0.0370  0.2281
 5183W        W48096   4.732   1.483  23.361  0.3213 -0.0562  0.2715
 5184W        W48097  32.455   2.422  28.436  0.2584  0.1961 -0.0725
 5185W        W48098  34.168  33.460  23.243  0.0729 -0.0325 -0.1462
 5186W        W48099  10.682   0.935  19.733 -0.1487 -0.2469 -0.0459
 5187W        W48100  28.600   5.669  20.720 -0.3858 -0.0413  0.0943
 5188W        W48101   1.737   0.203  24.948  0.1565  0.0078 -0.0322
 5189W        W48102   2.705   1.089  25.068  0.2245  0.0715 -0.0139
 5190W        W48103   1.241  34.385   4.632 -0.1189  0.1685 -0.1050
 5191W        W48104   0.646   6.555  25.415 -0.1200 -0.3317  0.3311
 5192W        W48105   7.716   5.128   0.182 -0.3577 -0.3479  0.0229
 5193W        W48106   2.510  11.734  29.026 -0.3519 -0.1014 -0.0788
 5194W        W48107  29.811   4.561  29.170 -0.1605  0.3611 -0.0553
 5195W        W48108  28.411   1.693  23.185 -0.0520  0.1339  0.1280
 5196W        W48109   3.642   5.664  17.924 -0.0536  0.4293 -0.0096
 5197W        W48110  33.004   6.844  24.851  0.0820  0.0624  0.0201
 5198W        W48111  10.725  18.826  25.036  0.4408 -0.0361 -0.3842
 5199W        W48112  12.150   9.878  16.451  0.1974 -0.0104  0.3389
 5200W        W48113  23.849  33.657  21.342  0.2040  0.1257  0.1387
 5201W        W48114   3.617  19.786  20.369 -0.0034 -0.0919 -0.0001
 5202W        W48115  11.505   9.565  21.972  0.1817 -0.1125 -0.0129
 5203W        W48116  10.510   4.670  24.614 -0.0389 -0.1449 -0.0767
 5204W        W48117   7.556  31.579  25.278 -0.0613  0.2285  0.3056
 5205W        W48118  33.938   1.043  22.929 -0.2845  0.2194 -0.1447
 5206W        W48119   4.963   6.742  29.493 -0.1152 -0.0992  0.0623
 5207W        W48120   5.947   2.455  19.491  0.0463 -0.1931 -0.1571
 5208W        W48121   2.283  18.985  26.048  0.3669  0.1605  0.0794
 5209W        W48122   3.210   6.624   2.158 -0.3883  0.1997  0.0493
 5210W        W48123   9.503   8.225  21.796  0.2751  0.0011  0.0687
 5211W        W48124  30.254  28.127   3.146 -0.1511 -0.0973  0.1831
 5212W        W48125   2.018   5.891  22.001 -0.0279  0.1793  0.1280
 5213W        W48126  31.234   1.531  27.702  0.0891 -0.0454  0.1580
 5214W        W48127   6.181   8.821  24.474  0.0165  0.1638 -0.0460
 5215W        W48128  13.758  30.519  28.066 -0.1849  0.0983 -0.0548
 5216W        W48129   6.683  31.362   0.453 -0.0482 -0.1273 -0.0510
 5217W        W48130  29.887   7.679  29.694 -0.4467  0.5546  0.1950
 5218W        W48131   1.176   7.716   0.290 -0.0144 -0.0249 -0.0361
 5219W        W48132  25.781  14.800  14.545 -0.1029 -0.2473  0.1248
 5220W        W48133  27.643  10.404  24.356 -0.3110  0.3512 -0.1838
 5221W        W48134   1.865  27.932  23.913 -0.1575 -0.2848 -0.1239
 5222W        W48135   1.083  11.695  21.980 -0.0452  0.2453  0.0952
 5223W        W48136  10.973  27.033   3.002 -0.0815 -0.1003 -0.0295
 5224W        W48137  26.347   0.991  20.651  0.1504 -0.1179  0.2033
 5225W        W48138   1.660   3.665  19.749  0.0198  0.0675 -0.0272
 5226W        W48139   8.715   2.197  27.588  0.2083  0.0924 -0.2958
 5227W        W48140   2.927  30.520  20.791  0.1039 -0.2125 -0.0189
 5228W        W48141   2.977  31.663   9.261  0.0208 -0.0806 -0.0544
 5229W        W48142  12.517  13.197  26.874  0.0845  0.1830 -0.1770
 5230W        W48143   8.030   9.261  27.644  0.0574  0.0373 -0.3749
 5231W        W48144   3.347  30.220   4.254 -0.1407  0.0795  0.2206
 5232W        W48145   8.132   9.614  24.202 -0.1330  0.0497  0.2501
 5233W        W48146   2.772  32.256  25.665  0.2460 -0.4044  0.2690
 5234W        W48147  33.261  28.879   5.040  0.1643  0.2548 -0.1850
 5235W        W48148   3.113  19.100   2.763 -0.1575  0.1805 -0.1225
 5236W        W48149  27.884   3.081  20.400  0.3144  0.1065  0.2703
 5237W        W48150  26.670  33.657   0.768 -0.1201  0.0302 -0.0530
 5238W        W48151  32.170  29.365  18.217  0.1280 -0.2620  0.1240
 5239W        W48152   7.614  30.086  25.546  0.1383  0.0245 -0.2389
 5240W        W48153   9.417   0.900  22.003  0.1382 -0.0047 -0.0389
 5241W        W48154   0.866  28.325   3.465 -0.1296  0.0694 -0.1824
 5242W        W48155   3.884   1.183  28.193 -0.3133 -0.1602 -0.1559
 5243W        W48156   9.200   1.493  25.793 -0.0873  0.1507 -0.2840
 5244W        W48157   2.623  32.113   3.324  0.0116  0.1855  0.0755
 5245W        W48158   6.171  31.562  19.232 -0.2324 -0.2023  0.0778
 5246W        W48159   2.191  33.553  26.111  0.0007 -0.1133  0.0401
 5247W        W48160   3.762  12.510  20.224  0.0873 -0.0712  0.0445
 5248W        W48161   6.522   3.835  27.357 -0.0244  0.1540  0.0196
 5249W        W48162   8.334  28.902  28.525  0.1953 -0.0163 -0.1018
 5250W        W48163  30.794   0.365  26.891  0.0803 -0.2637 -0.1932
 5251W        W48164  23.017  16.263  29.689 -0.2158 -0.1139 -0.0226
 5252W        W48165   8.424   1.889  29.136 -0.0925  0.2737 -0.1210
 5253W        W48166   1.049  11.277  20.892 -0.3211 -0.1271 -0.0222
 5254W        W48167   2.856   4.883   4.387 -0.0866  0.2255 -0.1375
 5255W        W48168  31.418  33.091  28.411  0.1411 -0.1293  0.1418
 5256W        W48169   6.160  31.384   1.049  0.3846  0.0705 -0.1184
 5257W        W48170   9.209   7.176   2.958 -0.3159  0.0747  0.2755
 5258W        W48171  11.684   0.891  29.155  0.0910 -0.0235 -0.2252
 5259W        W48172  30.302  10.717  21.325 -0.2814  0.1359  0.1433
 5260W        W48173   3.541   3.578  19.676 -0.1582 -0.0001  0.1567
 5261W        W48174  26.224  10.758   3.832 -0.3387  0.3338  0.0078
 5262W        W48175  25.030  10.512   0.990 -0.0480 -0.0070  0.2536
 5263W        W48176   5.446   3.233  23.980  0.1853 -0.2005  0.2087
 5264W        W48177  30.637   4.912  21.691 -0.2054 -0.1580 -0.2390
 5265W        W48178  10.312   1.305   0.857 -0.2120  0.0345 -0.1030
 5266W        W48179   3.149  11.863  27.580 -0.0086  0.0624 -0.0506
 5267W        W48180  13.343   5.911  25.696  0.0145 -0.0295 -0.1418
 5268W        W48181  30.524   0.117  24.940 -0.2689 -0.0317  0.0192
 5269W        W48182   7.681   7.589   5.261  0.2729 -0.2619 -0.1239
 5270W        W48183  10.524  25.026  21.099  0.5247 -0.2214  0.0671
 5271W        W48184   8.773  28.623  22.489 -0.2291  0.2015 -0.1542
 5272W        W48185   1.167  33.803  21.731  0.0245  0.3942  0.0762
 5273W        W48186  29.996  12.937  18.741 -0.2296  0.2766 -0.2561
 5274W        W48187  30.106   1.760  17.627 -0.3693  0.1757 -0.2603
 5275W        W48188  25.755   6.986   4.600  0.0878 -0.1241  0.1648
 5276W        W48189   9.988  33.657   3.389 -0.0654  0.3539  0.1544
 5277W        W48190   0.056   3.941  18.829  0.0634  0.3812 -0.1521
 5278W        W48191  25.770  11.466  27.968  0.1095  0.0481 -0.1540
 5279W        W48192  22.668  16.161  24.504 -0.0210 -0.3978  0.3155
 5280W        W48193  32.618   0.825  26.461  0.1409 -0.1423 -0.1463
 5281W        W48194  29.569   3.163  20.051 -0.0425 -0.1788  0.2553
 5282W        W48195  28.453  26.442  22.629  0.0445  0.1509  0.1349
 5283W        W48196   1.001   3.031  29.403  0.1446 -0.2398  0.1252
 5284W        W48197  32.063   6.597  18.831  0.2112 -0.0863  0.0708
 5285W        W48198  33.917   5.962  26.653  0.0756  0.0089  0.1938
 5286W        W48199   8.670  22.191  24.636 -0.0430  0.1850  0.1275
 5287W        W48200   6.443  34.155  17.760 -0.3061  0.2216 -0.0383
 5288W        W48201  30.803   3.400  23.598 -0.3091  0.1684 -0.1716
 5289W        W48202  27.473   2.446  18.790 -0.1781 -0.2356  0.1271
 5290W        W48203  29.810  22.505  28.688 -0.0814 -0.0280 -0.0589
 5291W        W48204  28.699   4.324   8.214  0.1799  0.1622  0.1287
 5292W        W48205   3.381  34.123  27.437  0.0742 -0.1612 -0.0206
 5293W        W48206   0.827   5.161  26.803 -0.2331  0.2679  0.1619
 5294W        W48207   0.335   5.892   1.028  0.0018 -0.2540  0.1725
 5295W        W48208   1.659   4.650  21.844  0.2207 -0.0416 -0.0282
 5296W        W48209   8.737   2.361   0.062  0.0108  0.0526  0.1042
 5297W        W48210   7.263  24.923  25.307  0.1765  0.1606  0.0886
 5298W        W48211   7.752  30.996  20.989  0.1162 -0.0654 -0.0095
 5299W        W48212   7.379   7.824  13.462  0.3589 -0.0418  0.0913
 5300W        W48213  17.369  32.155   3.812  0.0035  0.0401 -0.3830
 5301W        W48214  32.391   1.763  21.137 -0.1746  0.3019 -0.0198
 5302W        W48215   6.667  29.097  17.262  0.1779 -0.0410  0.2879
 5303W        W48216  19.340   2.024  21.998 -0.0694 -0.0214  0.1198
 5304W        W48217  12.303   4.529  28.412  0.0506 -0.1001 -0.0992
 5305W        W48218  32.435   4.053  21.801 -0.0520 -0.0314 -0.1822
 5306W        W48219   9.388  19.058  19.186 -0.0392  0.0289  0.0501
 5307W        W48220   5.994  32.203  21.136  0.2269 -0.1256 -0.2955
 5308W        W48221   8.907   5.220  25.477 -0.4862 -0.1031  0.0162
 5309W        W48222  25.902  11.254   9.472 -0.0417 -0.4216  0.2833
 5310W        W48223  30.943  24.377  26.323  0.1054 -0.3823  0.1884
 5311W        W48224   2.310   2.977  25.195 -0.0602  0.0227  0.1159
 5312W        W48225  30.542   6.011  25.324  0.0729  0.2229  0.0187
 5313W        W48226  33.407  18.622  23.462  0.2605 -0.2554 -0.0294
 5314W        W48227   0.903  14.834  24.139  0.0012  0.2013  0.3471
 5315W        W48228  33.972   6.540  22.475 -0.0940  0.0252 -0.0599
 5316W        W48229   9.188   2.418  23.123 -0.1148  0.0704 -0.1241
 5317W        W48230   8.085   4.502  19.085 -0.0441  0.1035 -0.1144
 5318W        W48231  34.435   1.741  29.382  0.0789 -0.0785  0.2196
 5319W        W48232  33.762   2.590   7.513  0.0190 -0.0232  0.0937
 5320W        W48233   6.275   2.351  25.718  0.0149  0.0131 -0.1388
 5321W        W48234   2.699   8.223  24.800  0.0112 -0.0957  0.1574
 5322W        W48235  27.021   9.200   0.329 -0.0381 -0.4233 -0.2671
 5323W        W48236  30.197  10.543  27.305 -0.0054  0.2804 -0.0503
 5324W        W48237   3.276  30.766   2.293 -0.0330 -0.0590  0.0457
 5325W        W48238  21.380  18.581  22.135  0.2673  0.1317 -0.0043
 5326W        W48239  16.130  28.623  28.812  0.0872 -0.0827  0.1896
 5327W        W48240  30.686  20.684   5.833  0.0164  0.2235  0.2559
 5328W        W48241   5.235   3.547   0.005 -0.2389  0.2514  0.2065
 5329W        W48242  32.052   2.595  23.618  0.0382 -0.3830 -0.2491
 5330W        W48243  28.831  11.128  24.357 -0.1905 -0.0455 -0.0744
 5331W        W48244  27.235   0.064  26.733  0.2153 -0.1365  0.1073
 5332W        W48245  33.582  11.118  27.790 -0.0223  0.0171 -0.3699
 5333W        W48246  11.466   8.064  15.898 -0.1076  0.2427  0.0321
 5334W        W48247  30.518  29.643  20.853  0.3044  0.0790  0.4632
 5335W        W48248   1.887  33.318  27.006  0.2642 -0.0738 -0.0338
 5336W        W48249  31.297  33.546  26.745 -0.0929  0.4896 -0.1380
 5337W        W48250   9.299  34.069  21.326  0.1379 -0.2935 -0.1235
 5338W        W48251  25.829  28.479  26.492 -0.3442  0.0021 -0.1119
 5339W        W48252  22.293   5.710   0.796  0.1103 -0.1206 -0.2385
 5340W        W48253   4.979   1.314  26.951  0.0200  0.2926 -0.1890
 5341W        W48254   5.653  31.805  18.533 -0.0501 -0.0283  0.1807
 5342W        W48255   1.425   7.406  29.697 -0.1146  0.2595 -0.0609
 5343W        W48256   8.699   1.926   1.455 -0.0206 -0.0419 -0.2349
 5344W        W48257  31.024   0.388   9.263  0.0635 -0.1842 -0.2894
 5345W        W48258   6.562   8.272  28.889 -0.6698  0.0512  0.0611
 5346W        W48259   4.516   6.077  21.779  0.0494 -0.0521 -0.1812
 5347W        W48260   3.281   7.859  19.040  0.1447 -0.1187  0.0949
 5348W        W48261  32.668   1.697  19.642 -0.2107  0.1273  0.1855
 5349W        W48262  13.825  31.259  18.993 -0.3400 -0.1569 -0.0272
 5350W        W48263   5.790  32.613   0.648 -0.3407  0.1124 -0.3732
 5351W        W48264  28.748  27.692  27.257 -0.2183 -0.2907 -0.2741
 5352W        W48265  28.272   6.293  21.541  0.1192 -0.2319 -0.3170
 5353W        W48266   7.255   3.593   1.664  0.3029  0.0876 -0.0777
 5354W        W48267   0.337   0.159  17.317 -0.0375 -0.1712 -0.0886
 5355W        W48268  29.799   6.610   1.492 -0.0445 -0.0963 -0.2338
 5356W        W48269  28.018  15.479  19.896  0.1428 -0.3273  0.0423
 5357W        W48270   1.059  27.080  19.311  0.0142 -0.1954  0.0962
 5358W        W48271   7.646  31.515  27.703  0.0927 -0.2456  0.0732
 5359W        W48272  26.067   0.735  21.026  0.1358 -0.0300 -0.0456
 5360W        W48273   1.627   6.639   5.463  0.1420 -0.3516 -0.1201
 5361W        W48274   1.849  33.351  24.527 -0.1854  0.0640 -0.0166
 5362W        W48275  31.400  24.177  18.203 -0.1028 -0.0183 -0.2675
 5363W        W48276   3.062  30.309  16.788  0.0222 -0.0536 -0.0261
 5364W        W48277   4.443  31.250  28.833 -0.2150  0.0642 -0.1173
 5365W        W48278   2.100   0.178  20.692  0.0640  0.2814  0.3994
 5366W        W48279   8.899  33.405   4.267  0.0061 -0.1843 -0.2646
 5367W        W48280  32.790   0.683  21.533 -0.1643 -0.0793 -0.1323
 5368W        W48281  34.207  10.663   6.586  0.1362 -0.0940 -0.0713
 5369W        W48282  34.355   8.504  23.046 -0.0921 -0.1909 -0.0795
 5370W        W48283   2.585   4.629  26.546 -0.3503 -0.1425 -0.0134
 5371W        W48284   4.691   7.262   6.864 -0.1624  0.0144 -0.0331
 5372W        W48285   6.231   7.900  10.957  0.0273  0.0931  0.1075
 5373W        W48286   6.157  22.652   4.972 -0.2353  0.1099 -0.0447
 5374W        W48287   1.190   5.234  28.105  0.1385  0.1905  0.2550
 5375W        W48288  10.564  11.448  23.965  0.3966  0.1023 -0.0320
 5376W        W48289   4.215   5.753  29.646  0.1440 -0.1262 -0.3242
 5377W        W48290   1.269  27.933  23.675  0.1559  0.2883  0.2321
 5378W        W48291  33.547   6.457  24.997  0.1206  0.1465 -0.1743
 5379W        W48292  11.887   2.710  20.909  0.1570  0.4039 -0.1548
 5380W        W48293   3.827   6.015   2.634  0.2976 -0.1897  0.2095
 5381W        W48294   9.148   5.240  29.502  0.2480  0.4640 -0.2786
 5382W        W48295  13.006   2.767   1.526 -0.0889 -0.0612 -0.2560
 5383W        W48296   9.383   8.861   1.587 -0.0423 -0.1022 -0.4351
 5384W        W48297   7.321   1.351  22.889  0.1882 -0.2048  0.0817
 5385W        W48298  31.230   6.068  23.396 -0.1118  0.0793  0.0600
 5386W        W48299  10.918   0.105  23.894  0.1888 -0.1135  0.1529
 5387W        W48300   3.571  22.079   5.678 -0.3136 -0.1823  0.1694
 5388W        W48301  10.583  30.985  26.838 -0.1843  0.0886 -0.2258
 5389W        W48302  30.991  30.873   1.173  0.2102  0.1902  0.4050
 5390W        W48303   2.217  11.286  25.236 -0.2580  0.1710 -0.0136
 5391W        W48304  33.998   4.714   1.319 -0.0503 -0.3667 -0.1731
 5392W        W48305  28.195  28.368  24.709 -0.0475  0.4198  0.3589
 5393W        W48306   9.464  12.384  25.605 -0.3855 -0.1796 -0.2238
 5394W        W48307   2.073   8.237  19.844  0.0851  0.0014 -0.0759
 5395W        W48308  32.609  11.618   1.852 -0.1189 -0.2813  0.0262
 5396W        W48309   2.593   1.404  19.949 -0.0461 -0.2286  0.0717
 5397W        W48310  33.865   1.292  27.005 -0.0690 -0.0391  0.1999
 5398W        W48311   3.311   8.080  25.615 -0.0162  0.0168 -0.1040
 5399W        W48312  30.963  10.234  27.538 -0.0981 -0.1931 -0.0633
 5400W        W48313   3.575  15.312   0.193  0.2675 -0.2067  0.0312
 5401W        W48314  34.134   5.271   0.570 -0.0661  0.0252 -0.2540
 5402W        W48315   1.390   6.315  17.615  0.1095  0.4421 -0.2129
 5403W        W48316   7.637  32.454  24.526 -0.0377 -0.1886 -0.1476
 5404W        W48317   6.016  12.402  21.011 -0.0552 -0.1412 -0.2764
 5405W        W48318  28.680  34.000   4.129  0.0874  0.1628 -0.0319
 5406W        W48319   8.172  15.258  19.573 -0.1734  0.2789 -0.0624
 5407W        W48320   5.512   6.619  23.380  0.1431  0.0240  0.1229
 5408W        W48321   3.288   0.722  16.146  0.1453 -0.1234 -0.1693
 5409W        W48322  33.858  15.450  26.697 -0.1906  0.0841 -0.0957
 5410W        W48323  29.229   1.113   3.770 -0.2340 -0.0499  0.1506
 5411W        W48324  32.795  14.226   1.539 -0.1255 -0.3326 -0.1074
 5412W        W48325   0.328  10.065  22.063  0.3921 -0.2316  0.2169
 5413W        W48326  33.922  17.208  23.902  0.0104 -0.1108 -0.0483
 5414W        W48327  33.301  11.524  22.859  0.1643 -0.2867 -0.0289
 5415W        W48328  33.199   8.427  21.336  0.2311 -0.0804  0.0133
 5416W        W48329  34.398   7.011   5.784 -0.3928 -0.0279  0.0453
 5417W        W48330   5.478  12.196  26.873 -0.0167  0.2089 -0.1823
 5418W        W48331   1.918  30.200  21.554 -0.4876 -0.0448  0.0868
 5419W        W48332   8.704   5.687  27.021 -0.0293  0.2440 -0.0540
 5420W        W48333   2.720   4.127  29.139  0.2414  0.2201  0.0828
 5421W        W48334  26.426   9.120  17.826  0.0502 -0.1192 -0.3834
 5422W        W48335   2.021   0.147   0.881 -0.0640  0.2754  0.0620
 5423W        W48336  29.095  32.404   0.057  0.0780  0.1861  0.0989
 5424W        W48337   9.231  27.061  23.843 -0.0929  0.1036 -0.0791
 5425W        W48338  30.271  34.201   9.410 -0.1444 -0.3256 -0.0820
 5426W        W48339  27.769   9.492  21.804 -0.1480 -0.1854 -0.2944
 5427W        W48340  30.165   3.754  27.134  0.0992  0.0650  0.2689
 5428W        W48341   1.248  32.380   5.770  0.3957 -0.0540  0.0892
 5429W        W48342   4.994  22.741  17.168 -0.1590 -0.0458 -0.1625
 5430W        W48343   5.969   2.650  27.531  0.1108  0.0531 -0.1285
 5431W        W48344  31.655   2.892  24.904  0.0109  0.1892 -0.0559
 5432W        W48345  34.385   4.614   4.715  0.3576 -0.1042  0.0504
 5433W        W48346   2.235   8.453  28.517  0.1841  0.0166  0.1108
 5434W        W48347  10.910   5.427  24.185  0.1194  0.0073 -0.1574
 5435W        W48348  27.378   2.971  28.230  0.0529 -0.1804  0.1177
 5436W        W48349  30.800   3.735  22.335  0.3054 -0.0719 -0.0218
 5437W        W48350   3.189  31.643   9.732  0.1744 -0.0089 -0.2478
 5438W        W48351   8.558   6.426   3.136  0.1458  0.1452 -0.0117
 5439W        W48352  19.163   1.593  23.070 -0.1018  0.0439 -0.1300
 5440W        W48353  32.653  21.426  21.010 -0.4224 -0.0021  0.1472
 5441W        W48354  28.700  33.358   8.834 -0.2196 -0.2224  0.0207
 5442W        W48355  15.327  28.737  25.082 -0.2601 -0.0483  0.2768
 5443W        W48356   0.288   0.203   1.027  0.0651  0.0638  0.1979
 5444W        W48357   9.066   6.175   1.345 -0.1981 -0.0807  0.0831
 5445W        W48358  33.690   0.820  29.397  0.3642 -0.0273  0.5301
 5446W        W48359  21.120   1.137  27.746 -0.0633  0.0367 -0.1220
 5447W        W48360   3.694  33.670   0.084 -0.2696  0.0637 -0.2271
 5448W        W48361   4.183  10.812  21.989  0.1491  0.1013 -0.0109
 5449W        W48362   8.615  29.546  21.151  0.3204 -0.1178 -0.2691
 5450W        W48363   9.350  25.567  26.831  0.2677  0.1958 -0.1698
 5451W        W48364  29.818   2.627  26.173 -0.0327  0.0882 -0.2175
 5452W        W48365  33.678   3.898  22.673 -0.1875  0.0049 -0.2176
 5453W        W48366  33.624   5.155  24.986  0.3150  0.3201 -0.0142
 5454W        W48367   9.635  20.018  25.172  0.2075 -0.0639  0.0870
 5455W        W48368   4.729   5.665  18.211 -0.3232 -0.1136 -0.3437
 5456W        W48369  27.391  31.889   1.654  0.0941  0.3264  0.0125
 5457W        W48370   8.354  29.272  29.534  0.2140  0.3261  0.0611
 5458W        W48371  32.923   9.586  27.851 -0.1818  0.3397  0.0917
 5459W        W48372  14.054  34.319   7.741  0.0432  0.3592 -0.2618
 5460W        W48373  25.792   1.913  25.020 -0.1340  0.1556 -0.4247
 5461W        W48374   8.853   1.719   1.884 -0.0254  0.0051  0.0895
 5462W        W48375  10.304   4.753  25.568 -0.1513  0.0078  0.1324
 5463W        W48376  29.768  33.488  17.845 -0.0144 -0.4672 -0.0296
 5464W        W48377   8.386  34.356  18.704  0.0847  0.0611  0.1567
 5465W        W48378   3.445   8.307  29.193 -0.2153 -0.4269  0.0988
 5466W        W48379   0.563   0.847   2.358 -0.2275  0.2108 -0.1211
 5467W        W48380  31.346  12.007   0.879  0.1988  0.0986  0.0079
 5468W        W48381  34.237   3.651  20.745 -0.0887 -0.0639  0.0926
 5469W        W48382   4.906  12.338  25.579 -0.1514 -0.1186 -0.2049
 5470W        W48383  27.393   8.970   3.089  0.1659 -0.3848 -0.0841
 5471W        W48384  33.727   8.911  20.902  0.4134 -0.0302 -0.2852
 5472W        W48385   2.566   8.784   5.864 -0.1587 -0.1125  0.4430
 5473W        W48386  32.298   3.102  22.008 -0.0783 -0.1879  0.2308
 5474W        W48387  11.833   3.584  17.787 -0.0199  0.0149  0.3571
 5475W        W48388   9.763  32.342   2.979 -0.2001 -0.3093  0.1919
 5476W        W48389  29.183  14.465   8.211  0.0674  0.1933 -0.1172
 5477W        W48390   2.329  14.523   2.905 -0.0340  0.0902 -0.2230
 5478W        W48391  17.291  31.543  26.074 -0.0530 -0.2099 -0.0811
 5479W        W48392  30.141  11.055  27.450  0.0268 -0.1679  0.1947
 5480W        W48393  11.397  12.759  28.823 -0.1029  0.3703 -0.0540
 5481W        W48394   4.179   4.941  18.572  0.0824  0.0582  0.1821
 5482W        W48395   9.969  31.412  19.306 -0.1435 -0.0656  0.1542
 5483W        W48396   3.942   3.395  27.691 -0.2999 -0.3201 -0.0095
 5484W        W48397   9.061  31.848  25.624  0.1391 -0.2488 -0.1037
 5485W        W48398   4.458   6.165  26.084  0.1695 -0.0974  0.1110
 5486W        W48399  15.697  33.575   3.768 -0.2507  0.2587 -0.0208
 5487W        W48400  10.857  30.442  25.273 -0.0376 -0.3482  0.1517
 5488W        W48401   7.048  25.167   9.948  0.1550 -0.1314 -0.1067
 5489W        W48402   0.747  14.946   5.574  0.0029  0.2009  0.0776
 5490W        W48403   3.478   3.306  27.816 -0.1322  0.1456  0.1445
 5491W        W48404  25.167   7.463  22.946  0.0165  0.0774  0.2531
 5492W        W48405  33.058   6.709   0.790 -0.0142 -0.0624  0.0631
 5493W        W48406   6.701   4.433  18.853  0.0498  0.0645  0.0132
 5494W        W48407  10.049  31.999   7.227  0.0980  0.0847  0.1688
 5495W        W48408   4.480   2.942   1.766  0.1970  0.1203 -0.0804
 5496W        W48409   5.055  25.238  19.157  0.3570 -0.3341  0.0674
 5497W        W48410  33.095   6.740  28.683 -0.1129 -0.2419  0.0539
 5498W        W48411  13.545   1.056   1.662 -0.2029 -0.3066 -0.1428
 5499W        W48412   3.859  32.342  16.544  0.1373  0.1221 -0.0737
 5500W        W48413  12.786   5.614  27.803  0.2821  0.0376 -0.0858
 5501W        W48414  32.509  30.862   1.210 -0.1205 -0.0615  0.2873
 5502W        W48415  10.791   4.778  18.691  0.3035  0.2808 -0.1590
 5503W        W48416   3.528   2.670  19.201 -0.5703  0.0010 -0.0315
 5504W        W48417  27.791  14.663   6.146 -0.0779  0.0576 -0.1860
 5505W        W48418  11.591   3.196  23.166  0.1765 -0.2795 -0.1221
 5506W        W48419  32.381  13.180  24.768 -0.0368 -0.2907  0.3103
 5507W        W48420   0.826  26.848  28.177 -0.0234  0.2756  0.1596
 5508W        W48421  29.546   4.942   7.936  0.0721 -0.2272  0.0700
 5509W        W48422   3.087  14.291  24.487 -0.1114  0.1955  0.0357
 5510W        W48423  25.317  31.472   9.665 -0.1150 -0.1133 -0.2457
 5511W        W48424   0.050  17.187  19.960 -0.0269  0.1855 -0.3134
 5512W        W48425   4.579  26.878  19.784 -0.2372 -0.1897  0.0726
 5513W        W48426   3.289  31.869  21.275  0.1485 -0.3965 -0.1395
 5514W        W48427  30.013  31.901  25.337  0.0284 -0.0334 -0.1461
 5515W        W48428   4.395   4.694  20.254  0.2177 -0.2976  0.0117
 5516W        W48429   4.476  34.170  21.901  0.0496 -0.2398  0.2272
 5517W        W48430   0.195   5.743   7.191  0.1302  0.2705  0.1273
 5518W        W48431  32.228   3.234  28.011 -0.2519 -0.2000  0.1241
 5519W        W48432  30.816  10.193   6.041 -0.3690  0.1235  0.2245
 5520W        W48433   7.410   3.779   2.870 -0.0798 -0.1964  0.0781
 5521W        W48434   9.537   7.273   7.634 -0.1761 -0.0814  0.0367
 5522W        W48435   2.227   1.066  26.450  0.0266  0.0585 -0.3235
 5523W        W48436  33.318  31.652   9.646  0.3761 -0.0166  0.1416
 5524W        W48437   2.197   1.727   2.578  0.0512 -0.0694  0.1277
 5525W        W48438  25.451  33.676  24.085 -0.1720 -0.0215 -0.0276
 5526W        W48439  31.613   6.332  22.252  0.3059  0.0824  0.2250
 5527W        W48440   7.652   8.824  22.864  0.1792 -0.0162 -0.3102
 5528W        W48441  32.473  34.173  23.880  0.0040 -0.0400  0.1432
 5529W        W48442   8.248   6.692   4.721  0.0843 -0.1230 -0.0759
 5530W        W48443  29.528  34.487   1.207 -0.5086 -0.2627 -0.0651
 5531W        W48444   4.932  28.795  22.578 -0.1445  0.2555 -0.1740
 5532W        W48445   6.807   6.771  29.560  0.1682  0.0687  0.0330
 5533W        W48446  10.578  32.851  11.769  0.0007  0.4735  0.0724
 5534W        W48447   1.740  34.400  22.177  0.0423  0.1114 -0.3675
 5535W        W48448   3.504  23.635  29.604 -0.1765 -0.2894  0.2229
 5536W        W48449   2.456  29.125  29.001 -0.1922 -0.0024 -0.0446
 5537W        W48450  11.672  26.142  19.581 -0.2580  0.2213 -0.4280
 5538W        W48451  31.164   2.014  22.168 -0.0845 -0.1324  0.1092
 5539W        W48452  34.059  33.342  22.563  0.4021 -0.0566 -0.0597
 5540W        W48453   6.151   7.539  23.772 -0.1002  0.0867 -0.2886
 5541W        W48454  33.887  18.117  14.702 -0.2461  0.0111  0.0131
 5542W        W48455  25.714  19.166   2.497  0.1596 -0.0262  0.1260
 5543W        W48456   2.241  33.222  27.322 -0.1429  0.0062  0.1548
 5544W        W48457   5.287  27.651  27.088 -0.0317 -0.1572  0.0468
 5545W        W48458   3.775  30.055  27.808  0.0781  0.2637  0.2200
 5546W        W48459   2.428  32.343  28.451 -0.3540  0.2838 -0.0852
 5547W        W48460   2.700  10.631  21.150  0.3588 -0.1269  0.4365
 5548W        W48461  28.166   0.604  20.050 -0.0744  0.1872  0.3560
 5549W        W48462   4.034  10.545   6.296 -0.0658 -0.0587  0.2463
 5550W        W48463   6.551  26.707  25.879 -0.0693  0.0662  0.0471
 5551W        W48464   1.867  34.132   2.201  0.1342 -0.4153 -0.1886
 5552W        W48465  25.680   6.172  18.364 -0.3446 -0.0577 -0.1461
 5553W        W48466   2.631  10.151  29.338  0.0084  0.0225 -0.2818
 5554W        W48467   7.337  11.214  22.305 -0.0258 -0.0300  0.0413
 5555W        W48468  27.194   0.421   9.003 -0.1215  0.1933  0.2140
 5556W        W48469   3.465  32.340   2.682 -0.3800 -0.0852  0.0875
 5557W        W48470  17.043   8.559   4.701 -0.0454  0.2665  0.0065
 5558W        W48471   0.949   0.082  17.765  0.2407 -0.1947 -0.2744
 5559W        W48472  31.538  27.421   9.793  0.1184 -0.0219 -0.1644
 5560W        W48473  32.491   8.863  25.038  0.0831 -0.2361  0.3096
 5561W        W48474  32.154   6.059   5.680  0.2223  0.1391 -0.2146
 5562W        W48475   3.677  21.408   8.529 -0.0834 -0.0331 -0.0475
 5563W        W48476   0.575  23.267   3.217  0.0702 -0.2033  0.0193
 5564W        W48477   0.862  32.788  24.849  0.2213  0.3182 -0.2121
 5565W        W48478   7.626  10.563   5.343 -0.1335  0.4204  0.0097
 5566W        W48479  30.723   0.521  23.183  0.1843  0.0269  0.0739
 5567W        W48480  32.755  13.876  18.989  0.2419 -0.2097 -0.0294
 5568W        W48481   4.806   3.123  17.638  0.2801  0.1660 -0.0104
 5569W        W48482  32.826   5.927  28.702  0.0440  0.1237  0.0388
 5570W        W48483   7.437  33.447   7.364  0.0044  0.1279 -0.0001
 5571W        W48484  28.398  26.266   0.453 -0.1755  0.2006  0.4702
 5572W        W48485  33.177   8.401   1.447 -0.4333 -0.0470 -0.1496
 5573W        W48486   2.143   9.535  16.159  0.0995 -0.2393  0.0802
 5574W        W48487   3.089  14.276  27.102  0.0241  0.1375 -0.0680
 5575W        W48488  31.187  30.299   5.217 -0.2440  0.1516  0.2012
 5576W        W48489   6.653  27.909  26.593  0.4481  0.0224  0.2814
 5577W        W48490  18.509  15.464  28.454 -0.1576 -0.0180  0.0334
 5578W        W48491  10.113  22.945  27.809 -0.0916 -0.2604  0.3055
 5579W        W48492  11.093  11.427   2.533  0.0832  0.1622  0.0687
 5580W        W48493   4.960  34.408  23.322 -0.0908  0.1314  0.2333
 5581W        W48494   8.602  11.718  28.983  0.5327 -0.1179 -0.0301
 5582W        W48495  27.711  22.103   9.675  0.0992 -0.0021 -0.3097
 5583W        W48496  31.665   4.379   3.881  0.0472 -0.3862  0.2263
 5584W        W48497  33.757   2.484  29.067  0.1196 -0.2142  0.1720
 5585W        W48498   9.203  33.151  27.102  0.1972  0.1539 -0.1703
 5586W        W48499  11.459   1.719   0.664  0.1927 -0.3925 -0.1245
 5587W        W48500   2.458   7.387   4.225 -0.0301  0.2639  0.1397
 5588W        W48501  33.266   1.001   0.151 -0.0089 -0.0020  0.2323
 5589W        W48502   2.642  34.049   0.933 -0.1476 -0.0940  0.1009
 5590W        W48503   3.261   8.192   5.289 -0.0392 -0.4891  0.2314
 5591W        W48504   7.785   9.105   0.099  0.0010 -0.1284 -0.1411
 5592W        W48505  34.297   3.345   1.619 -0.0071  0.1668  0.1981
 5593W        W48506  28.749  32.604   9.730 -0.1528  0.1045  0.3207
 5594W        W48507  10.098   9.169  26.033 -0.2061  0.0779  0.1145
 5595W        W48508  12.998  13.649   1.083  0.0451  0.1000  0.0828
 5596W        W48509  11.453  25.600   3.081 -0.2585  0.3237 -0.0637
 5597W        W48510   0.979  11.024  11.089  0.1585  0.2471  0.1244
 5598W        W48511  32.154   1.971  22.947 -0.0979 -0.0849  0.2806
 5599W        W48512  10.326  30.344   1.034 -0.0016  0.0791  0.0554
 5600W        W48513  14.239   2.043   2.810  0.2616 -0.1100 -0.2540
 5601W        W48514   1.105  28.477   5.477  0.2015 -0.0456 -0.0953
 5602W        W48515   3.154  29.342  21.397  0.2257 -0.0574  0.1446
 5603W        W48516  20.435  10.588   5.438  0.2235  0.0370 -0.1084
 5604W        W48517   7.627   2.098   7.617 -0.1961 -0.3202  0.2800
 5605W        W48518   7.522  14.956   2.812 -0.1160  0.0320 -0.4961
 5606W        W48519  10.982   4.537  24.687 -0.1828  0.1109  0.0799
 5607W        W48520   5.373   1.498  25.114  0.4291  0.0052  0.1960
 5608W        W48521   6.066  33.880   2.150  0.0779 -0.1775 -0.0627
 5609W        W48522  10.995  34.053  28.615 -0.1114  0.3191 -0.0700
 5610W        W48523   6.137   8.859  25.432  0.0460 -0.2361 -0.2050
 5611W        W48524  11.534  10.702   2.518 -0.3576  0.0576  0.1498
 5612W        W48525  30.649   7.227  29.296  0.1102  0.0121  0.1080
 5613W        W48526   1.560   6.358  21.931  0.1351  0.1009 -0.1038
 5614W        W48527   4.360   6.066   8.222 -0.0311 -0.0303  0.0638
 5615W        W48528   2.584   2.907  28.598  0.1294 -0.0441 -0.0805
 5616W        W48529  23.605   4.036  15.248 -0.0156  0.0645 -0.1651
 5617W        W48530   4.473   5.058   8.909 -0.0393  0.2532  0.0720
 5618W        W48531   3.774  23.399   7.664  0.1731  0.0601 -0.0289
 5619W        W48532  33.029  11.788   2.620 -0.0617 -0.0227  0.4196
 5620W        W48533   1.874   7.532   7.937 -0.0139  0.0096  0.3394
 5621W        W48534   8.962  29.406  28.749  0.1688 -0.0729  0.1090
 5622W        W48535   3.328   1.268  28.911 -0.0514 -0.4622  0.0175
 5623W        W48536  31.519   0.580  15.982  0.2596  0.4300  0.0110
 5624W        W48537   8.350  33.534  22.568  0.0019 -0.1598 -0.0943
 5625W        W48538  27.908  29.143  16.092  0.4567 -0.0130  0.0791
 5626W        W48539  34.413  32.141  21.875 -0.0271  0.1357 -0.0407
 5627W        W48540  10.340  31.368  18.907 -0.2222 -0.3139  0.0608
 5628W        W48541   4.027   0.352  20.197  0.0794  0.1539 -0.3515
 5629W        W48542  29.452  31.615  14.928  0.0785  0.0225  0.2134
 5630W        W48543  27.129   7.237  21.741 -0.0772 -0.1889  0.0791
 5631W        W48544   4.793  28.120  22.914  0.0588 -0.0380  0.4723
 5632W        W48545  33.023  24.007  25.057  0.0936 -0.3992  0.1778
 5633W        W48546  34.187   6.947  17.642 -0.0211  0.0458  0.1492
 5634W        W48547  33.566   3.469  23.033 -0.1347 -0.0825  0.0443
 5635W        W48548   9.093  30.955   0.883 -0.0189 -0.1371  0.2937
 5636W        W48549  34.094  12.056  16.688  0.1845  0.1334  0.1305
 5637W        W48550  29.730   8.928  19.150  0.1588  0.0259  0.0676
 5638W        W48551  33.863  28.950  20.188  0.1932  0.5253 -0.2415
 5639W        W48552   3.573  31.543  21.499 -0.1995 -0.1046 -0.0483
 5640W        W48553   2.395   1.528  25.086  0.0640  0.0127 -0.1037
 5641W        W48554   5.399   8.133  17.238 -0.4624  0.1100 -0.3644
 5642W        W48555   2.987   1.833  16.928 -0.1262  0.1448  0.0568
 5643W        W48556  15.372  31.250  26.059 -0.0913  0.0480 -0.1084
 5644W        W48557   7.507  12.415  19.887  0.0070 -0.0738  0.0181
 5645W        W48558  23.770   8.725  26.443  0.0129 -0.3747 -0.2148
 5646W        W48559  19.330  32.004  24.342  0.1245  0.0618  0.2605
 5647W        W48560  26.654  31.714  24.966  0.3311 -0.1331 -0.0168
 5648W        W48561  10.298   7.227  27.390  0.1552 -0.2514  0.0506
 5649W        W48562  29.353   9.799  15.290  0.1943  0.1194 -0.1470
 5650W        W48563  31.417  15.709  17.108 -0.1019  0.1562 -0.4655
 5651W        W48564   5.742  10.444  23.106 -0.0634 -0.1190 -0.3717
 5652W        W48565  10.461  19.592  25.792  0.1100  0.2358 -0.0385
 5653W        W48566  26.589   5.284  25.509 -0.1347  0.0188  0.2351
 5654W        W48567  33.416   1.002  21.327 -0.2974 -0.1312 -0.2515
 5655W        W48568   5.447   6.347  19.443  0.0383  0.2083  0.1651
 5656W        W48569   1.092  16.540  22.403  0.2497  0.2666 -0.1863
 5657W        W48570   1.192   8.307  18.211  0.3411 -0.1021 -0.4417
 5658W        W48571   3.451  10.131  18.367 -0.1059  0.1655  0.0257
 5659W        W48572   6.598  16.591  18.432 -0.1567 -0.1981 -0.1783
 5660W        W48573   2.692   8.903  17.331 -0.0929 -0.0523 -0.1031
 5661W        W48574  32.630   9.375  24.655 -0.3099  0.5221 -0.2180
 5662W        W48575  33.325   3.930  20.779 -0.2565  0.1953 -0.0008
 5663W        W48576  30.267  25.370  20.163 -0.2793  0.0048 -0.1087
 5664W        W48577  24.689  32.967  22.899 -0.1423 -0.3002  0.2406
 5665W        W48578  17.310  28.027  19.855 -0.0801 -0.1323  0.0080
 5666W        W48579   0.332   1.158  19.137 -0.0521 -0.1592 -0.0500
 5667W        W48580  29.789  32.107  25.804 -0.2082  0.3142  0.0160
 5668W        W48581   6.091   5.313  24.841 -0.1625 -0.0632  0.0955
 5669W        W48582  28.270   0.369  28.490 -0.0590  0.2020 -0.2566
 5670W        W48583   2.040   6.582  17.564 -0.0578  0.1226  0.2407
 5671W        W48584  30.657  11.067  21.199  0.1625 -0.0585 -0.1133
 5672W        W48585  30.310   5.604  20.578  0.0575 -0.0415 -0.0937
 5673W        W48586   3.243  30.237  21.057  0.2232 -0.2820 -0.1095
 5674W        W48587  33.559   6.790  19.909 -0.0358 -0.0596  0.1195
 5675W        W48588   1.424  28.779  17.929  0.3035 -0.1513 -0.1915
 5676W        W48589   1.453   3.680  23.246  0.1056 -0.0010 -0.4653
 5677W        W48590   0.019  32.176  18.971 -0.0201 -0.1114  0.0301
 5678W        W48591   3.133   6.514  22.275  0.0996 -0.1240  0.1435
 5679W        W48592   1.335  13.819  17.236 -0.1184 -0.2000 -0.0018
 5680W        W48593   2.826  10.250  16.741 -0.0905  0.3075 -0.1468
 5681W        W48594  31.218   6.509  17.185 -0.0367 -0.0641 -0.1693
 5682W        W48595  11.268  29.006  24.606 -0.2619 -0.0531 -0.3935
 5683W        W48596   2.025   2.559  16.002 -0.0581  0.0048 -0.0694
 5684W        W48597  33.944  26.021  29.243 -0.1777  0.0743 -0.1110
 5685W        W48598   0.960  12.621  20.847  0.2711 -0.1232 -0.1267
 5686W        W48599  30.284  31.088  14.616 -0.0174  0.1395  0.0835
 5687W        W48600  24.392   5.717  24.825  0.0481  0.0382 -0.1017
 5688W        W48601  16.207   0.411  16.113 -0.1602 -0.2284 -0.0412
 5689W        W48602  33.138  12.064  22.765 -0.0213  0.1794  0.1453
 5690W        W48603   6.191  29.724  26.477 -0.2274  0.0758  0.2898
 5691W        W48604   8.524  25.938   0.051 -0.1015  0.0079  0.0867
 5692W        W48605  31.113  11.743  24.767 -0.1409  0.2678  0.0370
 5693W        W48606   0.593   1.276  18.231 -0.0865  0.1943 -0.1868
 5694W        W48607   1.167  32.753  22.351  0.2206 -0.0069 -0.1082
 5695W        W48608   5.924  25.275  22.886  0.1904 -0.0529  0.0069
 5696W        W48609  29.233   8.043  20.404  0.0131 -0.1816 -0.1579
 5697W        W48610  29.323  10.449  21.514 -0.0029 -0.0604 -0.2850
 5698W        W48611  28.633  13.580  26.036 -0.4843  0.1811 -0.0490
 5699W        W48612   8.854  11.262  19.054  0.3100  0.0601 -0.1834
 5700W        W48613  32.508   9.461  17.668 -0.4818  0.1710  0.1378
 5701W        W48614   3.654  11.264  21.045  0.1852  0.2000  0.3555
 5702W        W48615   1.879  16.838  18.231 -0.1256 -0.1535 -0.2706
 5703W        W48616   6.350   9.154  21.000  0.1172  0.5639  0.1928
 5704W        W48617  33.239  12.441  15.512 -0.3530  0.1051  0.0159
 5705W        W48618   6.468  18.153  21.022 -0.1192 -0.2839 -0.0617
 5706W        W48619  28.074  33.755  15.632 -0.0388  0.3097 -0.1085
 5707W        W48620  31.574   4.999  28.580 -0.2065 -0.0117 -0.2478
 5708W        W48621  27.587   4.372  28.540 -0.0556  0.0730  0.2427
 5709W        W48622  21.090   8.725  25.335 -0.0107 -0.1191 -0.4527
 5710W        W48623   3.234   9.468  19.697  0.0427 -0.0551 -0.1665
 5711W        W48624   2.407   1.676  17.317  0.1933  0.0964  0.1017
 5712W        W48625   2.033   5.257  24.917  0.1956 -0.0463  0.0509
 5713W        W48626   8.431   5.432  20.559  0.2467 -0.0630 -0.1085
 5714W        W48627  32.752  33.215  25.062  0.1638  0.1656  0.0942
 5715W        W48628   1.632  32.643  19.562  0.1684  0.0487  0.0601
 5716W        W48629  27.770   6.260  14.915  0.0595  0.0681 -0.2210
 5717W        W48630   0.963  30.675  25.514  0.0079  0.2024 -0.0926
 5718W        W48631   1.297   6.949   3.779 -0.0470 -0.0114  0.1646
 5719W        W48632  32.107   5.125  17.209 -0.0945 -0.2261  0.0076
 5720W        W48633  26.495   2.339  19.622  0.2059  0.0521 -0.0247
 5721W        W48634  14.764   3.066  23.083 -0.1426  0.0262 -0.0304
 5722W        W48635  34.452   0.471  27.128  0.0019  0.1067 -0.3206
 5723W        W48636  32.250  11.487  17.200 -0.0873 -0.1292  0.2302
 5724W        W48637   6.733  18.583  28.083  0.1178 -0.2098  0.0251
 5725W        W48638  28.035  15.036  15.310 -0.1937  0.1772 -0.2751
 5726W        W48639   9.536   1.291  18.700  0.3010 -0.1654 -0.4226
 5727W        W48640   5.755   5.498  25.245  0.0651 -0.2680 -0.1493
 5728W        W48641   7.407  27.012  29.393 -0.0814 -0.0717  0.1966
 5729W        W48642   4.875   4.034  21.926 -0.2039 -0.0431 -0.2396
 5730W        W48643   3.428  14.645  22.686 -0.0854  0.0653  0.5766
 5731W        W48644  33.750   2.619  18.517 -0.1110  0.2151 -0.1541
 5732W        W48645  30.996  27.767  29.276  0.3255 -0.0513 -0.2817
 5733W        W48646   9.278  19.952  18.315 -0.2064 -0.0909 -0.2108
 5734W        W48647  10.975  11.674  23.351 -0.2676 -0.0219  0.0875
 5735W        W48648  34.491   5.630  22.021 -0.2102  0.1932  0.1265
 5736W        W48649  16.679  21.142  27.498  0.4069 -0.2248 -0.1033
 5737W        W48650   2.016   1.782  22.754  0.0347 -0.2391  0.1740
 5738W        W48651   4.038   6.492  20.909  0.4799  0.2118  0.0106
 5739W        W48652  33.830   3.873  19.541  0.0142 -0.0646  0.2332
 5740W        W48653   1.677   1.314  18.725 -0.1960 -0.1778  0.2916
 5741W        W48654  31.938  16.197  15.233  0.4386  0.1655 -0.3509
 5742W        W48655  31.994  13.006  21.648  0.0365  0.2007 -0.3490
 5743W        W48656   4.926   9.933  23.318  0.0781  0.0254  0.2145
 5744W        W48657  19.405   3.522  27.152  0.1590 -0.1891 -0.1273
 5745W        W48658  22.792   1.314  20.874  0.2732 -0.0721  0.0765
 5746W        W48659  30.805   5.189  17.149 -0.0207 -0.0334  0.1729
 5747W        W48660   6.081  12.860  15.330 -0.4624  0.2808 -0.1300
 5748W        W48661   0.458   1.398  19.934 -0.0726  0.0370  0.1982
 5749W        W48662   0.273  28.105  16.576 -0.0696 -0.1606  0.1807
 5750W        W48663   0.707   2.305  20.429 -0.2414  0.0445  0.0696
 5751W        W48664   7.422   1.555  23.972  0.2320 -0.1297  0.1972
 5752W        W48665   5.178   8.911  22.226  0.1858 -0.1030  0.1239
 5753W        W48666  29.276  16.029  24.318  0.0303 -0.0707 -0.3017
 5754W        W48667   0.452  16.574  15.132 -0.1500  0.1930  0.2844
 5755W        W48668  27.534  34.428  24.691  0.2627 -0.0121 -0.0665
 5756W        W48669   0.284   7.780  18.753 -0.0698  0.0638  0.1567
 5757W        W48670  26.306  32.638  25.923  0.2118  0.0541  0.3371
 5758W        W48671  26.767   8.153  19.856  0.2265  0.1269  0.3277
 5759W        W48672   5.380   9.211  27.581  0.1025 -0.3286  0.0354
 5760W        W48673  30.411   9.621  25.331  0.0812 -0.2602 -0.0030
 5761W        W48674   2.532  10.335  19.574 -0.0453  0.1701 -0.2907
 5762W        W48675  25.061   1.960  21.766 -0.0967 -0.1499  0.0164
 5763W        W48676  31.605   6.079  16.514  0.0447 -0.0778  0.2360
 5764W        W48677  29.016   5.272  24.295 -0.0623  0.0856  0.1206
 5765W        W48678  33.243   0.066  26.348 -0.0161  0.2607  0.2113
 5766W        W48679  32.379  12.516  16.231 -0.0058 -0.0082 -0.0508
 5767W        W48680   2.351   2.574  17.368 -0.2592 -0.1533 -0.1813
 5768W        W48681   5.426   1.306  21.223  0.0554 -0.2118 -0.1318
 5769W        W48682   6.306   0.204  29.381  0.2846 -0.0848  0.1580
 5770W        W48683   5.761   8.410  17.580  0.0855 -0.0529 -0.0482
 5771W        W48684   6.489   6.308  18.371 -0.0415 -0.0713  0.1172
 5772W        W48685  10.135  17.416  28.786  0.0130 -0.0861  0.2187
 5773W        W48686  24.683  16.647  23.524 -0.5944 -0.0365 -0.0428
 5774W        W48687  28.784   6.259  16.863 -0.0153  0.1559  0.2649
 5775W        W48688   4.824   2.744  22.314  0.1345  0.1654 -0.5084
 5776W        W48689  32.262  34.171  19.886  0.0731  0.0953 -0.1207
 5777W        W48690  27.970  11.840  18.373  0.0662  0.0811  0.0568
 5778W        W48691   5.425   4.234  28.085  0.2040 -0.0000  0.1807
 5779W        W48692   2.837  32.387  15.235 -0.2488  0.0018 -0.1439
 5780W        W48693   1.708  31.759  19.000  0.0689 -0.0010  0.2415
 5781W        W48694  34.000   5.624  19.359  0.1624  0.0344 -0.0117
 5782W        W48695  33.115  14.572  22.428  0.0365 -0.0222  0.0681
 5783W        W48696  33.070   1.723  19.324  0.2664  0.1790  0.0602
 5784W        W48697   0.523   7.459  17.646  0.2017  0.0893 -0.1165
 5785W        W48698   1.779   5.032  22.583 -0.1438  0.0435  0.5473
 5786W        W48699  25.697   6.162  14.661  0.0369 -0.2666  0.1039
 5787W        W48700  31.440  16.419  19.975 -0.1623  0.0903 -0.0026
 5788W        W48701  12.256  27.755  18.423  0.1433  0.2907  0.3233
 5789W        W48702   0.473   0.214  21.998 -0.0765  0.2804  0.1018
 5790W        W48703  33.964  30.216  27.418 -0.2670  0.0745 -0.1478
 5791W        W48704  31.979   9.909  27.744 -0.0966 -0.1484 -0.0026
 5792W        W48705  34.299   0.871  16.285  0.1059  0.0619  0.2493
 5793W        W48706   9.223   0.849  18.545  0.7311  0.0503  0.2620
 5794W        W48707   6.527  13.676  20.129  0.1523  0.2256  0.1377
 5795W        W48708   3.200   2.692  18.821 -0.1355 -0.0615 -0.2244
 5796W        W48709   0.608   0.632  28.186  0.0260 -0.0912  0.0434
 5797W        W48710   2.462   9.054  16.473  0.0498  0.0072 -0.3334
 5798W        W48711  11.593   4.470  18.814  0.0794 -0.1264 -0.1293
 5799W        W48712  32.370  12.109   1.491 -0.2298 -0.3052 -0.2579
 5800W        W48713  31.164  10.344  19.377 -0.1736  0.0429 -0.0254
 5801W        W48714  34.458   6.709  20.331 -0.0380  0.1519  0.1944
 5802W        W48715  30.649   3.594  18.511  0.1786 -0.1116 -0.0612
 5803W        W48716  29.216   7.927  27.542 -0.0221  0.2117  0.2118
 5804W        W48717  11.179   1.386  24.959 -0.2545  0.0803  0.1253
 5805W        W48718  30.498  12.043  16.997 -0.0081  0.1379  0.0280
 5806W        W48719  25.991  11.955  23.683 -0.5788  0.0599  0.3721
 5807W        W48720  26.004   7.863  17.627  0.0993  0.1482  0.2092
 5808W        W48721   1.837   5.880  25.402  0.2453 -0.1843  0.2138
 5809W        W48722  26.592   5.322  18.051 -0.2268  0.2900 -0.1005
 5810W        W48723  12.899   2.716  25.079 -0.0629 -0.0728 -0.0481
 5811W        W48724  23.168  11.535  21.545  0.0831  0.3854 -0.1159
 5812W        W48725   7.113  10.866  22.650 -0.1527  0.3703  0.0880
 5813W        W48726  33.071   2.983  18.945 -0.1679 -0.2281 -0.1198
 5814W        W48727   9.784  14.668  27.748  0.2890 -0.3866  0.0877
 5815W        W48728   2.475  33.409  25.653 -0.0738  0.3108  0.0038
 5816W        W48729  22.746   2.865  14.640  0.1841 -0.1346  0.1038
 5817W        W48730  30.406  22.111  21.551  0.2730  0.1546 -0.1454
 5818W        W48731   9.280  32.497  16.883 -0.1122 -0.2108 -0.3344
 5819W        W48732  33.162  12.206  19.397 -0.0888  0.2167 -0.0994
 5820W        W48733  21.896  11.554  18.409  0.4427 -0.1162 -0.1116
 5821W        W48734   1.218  10.448  19.918 -0.0509 -0.0749  0.0531
 5822W        W48735  27.905  34.002  28.466  0.3097 -0.0005 -0.0273
 5823W        W48736  20.184  33.177  25.849 -0.0708 -0.1366 -0.1734
 5824W        W48737  11.220  16.798  22.724  0.0348  0.0690 -0.2563
 5825W        W48738   1.473   4.293  20.572  0.0392  0.0623 -0.1295
 5826W        W48739  32.266   2.932  20.496 -0.1543  0.1757 -0.2657
 5827W        W48740  33.574   3.948  23.163 -0.0039  0.3232  0.1373
 5828W        W48741  25.052   2.962  25.141  0.1380  0.0235  0.0874
 5829W        W48742   4.141  23.333  18.493  0.0329  0.0071  0.2780
 5830W        W48743  29.699  18.428  22.673  0.0919 -0.1469  0.0594
 5831W        W48744  24.398   2.716  13.401 -0.0494  0.1086 -0.2034
 5832W        W48745  27.388  28.741  16.951  0.1735 -0.2099 -0.0233
 5833W        W48746   6.123  28.083  20.109 -0.2976  0.2308  0.2296
 5834W        W48747   4.726   0.772  28.615 -0.0055  0.1856  0.0997
 5835W        W48748   0.508  12.795  20.731 -0.0614  0.0525  0.0622
 5836W        W48749  33.145   5.334  17.071  0.0237 -0.1612  0.1713
 5837W        W48750  32.017   2.537  17.429 -0.3968 -0.0722  0.0498
 5838W        W48751  31.469  33.597   0.416 -0.2464 -0.0870  0.0526
 5839W        W48752  13.279   5.319  20.061 -0.0486 -0.1268  0.1668
 5840W        W48753  26.799  32.809  24.244  0.0041 -0.1219  0.1877
 5841W        W48754  10.247  34.257  19.743 -0.2677 -0.4378 -0.4142
 5842W        W48755  10.855   3.276  23.891  0.0611  0.0713  0.0884
 5843W        W48756   7.458  34.298  16.938  0.2208 -0.1017  0.1958
 5844W        W48757  30.787   0.757   0.886 -0.1463  0.0486 -0.2307
 5845W        W48758   1.954   3.268  25.407  0.0185 -0.0601 -0.0430
 5846W        W48759   0.771   0.413  19.608  0.0750 -0.2834 -0.1240
 5847W        W48760   0.764   7.122  21.810 -0.0469  0.2104  0.1044
 5848W        W48761  28.874  12.459  21.697 -0.2167 -0.0395  0.3038
 5849W        W48762  20.798  15.199  22.001 -0.0868  0.2127  0.1880
 5850W        W48763  13.717  11.285  18.949  0.6044 -0.0699  0.0373
 5851W        W48764  23.355   7.513  28.509  0.1718  0.2162 -0.2363
 5852W        W48765  30.359  18.464   5.316  0.1516 -0.2443  0.0151
 5853W        W48766   2.807  33.511  18.578 -0.0977  0.0988 -0.2664
 5854W        W48767   4.538  11.391  19.982  0.0456  0.1580  0.0109
 5855W        W48768   4.764   5.039  19.295 -0.1421 -0.0325  0.1273
 5856W        W48769   6.169   0.179  21.429  0.0002  0.0683  0.1277
 5857W        W48770  29.032   9.817  27.215  0.1267  0.4406  0.0234
 5858W        W48771   4.191  11.854  21.795  0.0038  0.1007  0.0651
 5859W        W48772  30.018   3.890  18.469 -0.0495  0.0474  0.5102
 5860W        W48773   5.687   5.381  27.486  0.4019  0.1461 -0.0248
 5861W        W48774  33.065   6.841  20.552  0.0008  0.1001 -0.1106
 5862W        W48775   2.076  24.570  29.558 -0.3377  0.4052  0.0694
 5863W        W48776   1.658   9.462  19.384  0.2937 -0.3462  0.4184
 5864W        W48777  28.700  33.033  24.459 -0.0859  0.1946  0.0962
 5865W        W48778  29.637   5.508  23.845  0.0202  0.0795 -0.0215
 5866W        W48779  32.950   0.247   2.023 -0.0717 -0.0119  0.0608
 5867W        W48780  33.134   4.897  16.699  0.1254 -0.2126 -0.2844
 5868W        W48781   9.392   4.073  21.445  0.0018  0.2119  0.3225
 5869W        W48782  15.805  33.024   0.353  0.1119  0.0561  0.2532
 5870W        W48783   2.400   1.423  17.828 -0.2937 -0.1437  0.3530
 5871W        W48784   3.545  11.918  22.420  0.0774  0.3983  0.2085
 5872W        W48785   0.923   8.302  17.117  0.1074 -0.2833 -0.2980
 5873W        W48786   2.287  31.603  27.541 -0.0956  0.0911  0.1593
 5874W        W48787   0.581  14.568  21.386 -0.0444 -0.3159 -0.2306
 5875W        W48788   5.648  32.180  23.962 -0.1106  0.0283  0.1082
 5876W        W48789  22.823   9.888  20.599 -0.1726 -0.0300 -0.1056
 5877W        W48790  34.362   5.627   0.904 -0.2103  0.1618  0.0627
 5878W        W48791   3.737  32.704  20.033 -0.0058  0.0424  0.1403
 5879W        W48792   8.113   3.389  17.026 -0.0854  0.0050  0.2427
 5880W        W48793   0.922  30.724  27.389 -0.0437 -0.2700 -0.3791
 5881W        W48794  32.144   9.720  17.391 -0.0073 -0.1012  0.2024
 5882W        W48795   8.066  13.241  18.418  0.1477  0.2438 -0.0618
 5883W        W48796   3.009  14.295  23.975  0.0456  0.0626 -0.4964
 5884W        W48797   3.844   6.245  17.303 -0.1674 -0.0615 -0.0651
 5885W        W48798  32.262  17.147  19.507  0.0862  0.2562 -0.0134
 5886W        W48799  30.339  15.244  18.657  0.2921 -0.0988 -0.4292
 5887W        W48800  34.332  15.022  21.134  0.2432  0.0929 -0.2555
 5888W        W48801  21.333   5.006  14.428 -0.0663 -0.0838 -0.1136
 5889W        W48802  29.228   9.415  18.689 -0.4062  0.0284  0.1370
 5890W        W48803  27.489   9.281  18.162  0.2066 -0.0842 -0.4337
 5891W        W48804   7.230   7.451  22.810  0.1722  0.0107 -0.1326
 5892W        W48805  32.587  33.485  25.834 -0.2834  0.2723 -0.1717
 5893W        W48806  29.605  13.274  18.699 -0.0033  0.2217  0.4021
 5894W        W48807  26.092   5.804  20.517 -0.2462 -0.1305 -0.3627
 5895W        W48808   3.327   1.605  16.610 -0.1471  0.1547 -0.1736
 5896W        W48809   4.733  14.100  17.498 -0.0129  0.0412 -0.0243
 5897W        W48810  29.215   3.725  25.056 -0.0987 -0.2321  0.2379
 5898W        W48811  30.572  14.810  18.418 -0.0786 -0.1664 -0.0543
 5899W        W48812  32.519  33.810  19.657 -0.0044  0.2043 -0.0430
 5900W        W48813  32.101   8.991  21.138  0.1028 -0.0663 -0.1721
 5901W        W48814  25.456  12.962  28.392 -0.1058  0.0235  0.0565
 5902W        W48815  10.840  10.549  18.574 -0.1874 -0.3330  0.0329
 5903W        W48816  27.764   7.997  24.629  0.0845  0.0339 -0.0072
 5904W        W48817   1.239   3.587  24.208 -0.1500  0.0373  0.2922
 5905W        W48818   6.924   3.510  24.565 -0.1185  0.2402 -0.0496
 5906W        W48819  33.501   2.814  18.145 -0.0328 -0.2228  0.2661
 5907W        W48820   5.456   0.208  16.538  0.0039 -0.0467 -0.0893
 5908W        W48821   4.073   1.958  24.411  0.0382 -0.0001  0.1461
 5909W        W48822   0.383   9.270  21.315 -0.1340  0.1276  0.0660
 5910W        W48823  27.871   4.719  16.671 -0.0831 -0.2089  0.0328
 5911W        W48824   2.437   2.938   1.524  0.2080  0.1973  0.0612
 5912W        W48825   6.921  34.150  27.712  0.1233  0.0821  0.2203
 5913W        W48826  13.804   0.203  18.432  0.1138  0.4369  0.0229
 5914W        W48827  25.117   1.081  14.438  0.2237 -0.2516 -0.1338
 5915W        W48828   0.204   7.582  20.310 -0.0286 -0.2719  0.0345
 5916W        W48829  28.149  27.660  23.200 -0.2600 -0.2288 -0.2478
 5917W        W48830   7.391   3.629  18.112  0.1820  0.1036  0.0426
 5918W        W48831  29.900   4.024  24.383 -0.1216  0.0934 -0.1210
 5919W        W48832  20.853   2.340  21.840 -0.1651 -0.0479 -0.1074
 5920W        W48833   2.600   6.531  20.983  0.1431 -0.0772  0.3388
 5921W        W48834  25.254  25.972  29.427  0.0944 -0.0086  0.1758
 5922W        W48835  27.300   9.128  16.272  0.3522  0.0647  0.0714
 5923W        W48836  24.949   3.127  16.318 -0.1497  0.0515 -0.3085
 5924W        W48837  11.592   1.700  20.386  0.1403  0.3233 -0.2521
 5925W        W48838  25.313  17.526  15.826 -0.0943 -0.0942  0.0499
 5926W        W48839   5.896  33.632  17.199  0.1799  0.0196 -0.0660
 5927W        W48840  10.087   1.219  23.204  0.2166 -0.3035 -0.1373
 5928W        W48841   7.130   6.898  22.845  0.0218 -0.0294 -0.1237
 5929W        W48842  33.409   2.206  26.499 -0.0122 -0.0380  0.4995
 5930W        W48843   3.447   9.932  19.994 -0.1355  0.1206  0.1280
 5931W        W48844   0.874   2.092  22.624  0.0932 -0.2781  0.1135
 5932W        W48845   7.331   7.925  21.524  0.2994 -0.2624  0.3690
 5933W        W48846  13.397   9.878  19.082 -0.0290  0.0754  0.1977
 5934W        W48847  32.239   8.657  19.303 -0.1057 -0.1303 -0.1201
 5935W        W48848   2.940   7.818  16.233  0.1250  0.0498 -0.1326
 5936W        W48849  30.656  28.384  26.753 -0.2550 -0.2264  0.1665
 5937W        W48850  18.638  10.120  17.322  0.0916  0.1574  0.2058
 5938W        W48851  17.306   2.726  18.669 -0.2951  0.0769 -0.0560
 5939W        W48852   7.924  33.190  27.392 -0.1602  0.2927 -0.2324
 5940W        W48853   1.961   5.430  22.212 -0.2525  0.0448 -0.0999
 5941W        W48854   0.890  10.084  21.361  0.0283  0.1503  0.1837
 5942W        W48855  13.136  29.473  24.864 -0.0051  0.1948 -0.2189
 5943W        W48856  29.511  10.193  15.012 -0.0356  0.0351  0.0775
 5944W        W48857   0.253   2.440  26.960 -0.0287  0.0056  0.0563
 5945W        W48858   2.267   9.599  17.738 -0.2112  0.0054  0.0067
 5946W        W48859  24.497   7.133  23.302 -0.0479 -0.0863 -0.0188
 5947W        W48860  25.706  13.725  26.214  0.0442 -0.0428  0.0954
 5948W        W48861  10.171   2.933  24.591  0.0835 -0.0614 -0.2082
 5949W        W48862  29.573   2.454  19.699 -0.1882 -0.1877 -0.0035
 5950W        W48863   0.072   3.445  22.720  0.1158 -0.1528  0.2080
 5951W        W48864  33.467  13.631  14.829 -0.2121  0.0207 -0.0338
 5952W        W48865   9.971  13.935  16.805  0.0486 -0.3987 -0.0019
 5953W        W48866   7.281  31.348  18.705  0.1488  0.2375  0.1526
 5954W        W48867   5.063   9.394  21.831 -0.2870  0.0596 -0.1695
 5955W        W48868  30.343  32.444  24.483  0.1229 -0.1659 -0.0471
 5956W        W48869  28.477   5.917  23.412 -0.1636 -0.0203  0.2285
 5957W        W48870  25.979  19.362  16.805 -0.0254  0.1492  0.4746
 5958W        W48871  29.766   7.077  18.006 -0.0474 -0.0462  0.0771
 5959W        W48872  32.319  11.701  22.455 -0.0480  0.2932  0.4526
 5960W        W48873  34.127   6.415  26.362  0.3528 -0.3436  0.0166
 5961W        W48874  31.768  12.357  15.416 -0.3700 -0.0476  0.1129
 5962W        W48875   7.768  11.974  16.834  0.1293 -0.0489 -0.1363
 5963W        W48876   4.387  11.636  25.216  0.3723 -0.3640  0.3014
 5964W        W48877   3.593  33.387  25.009  0.0488 -0.1769  0.2438
 5965W        W48878   4.112  11.168  19.030 -0.1416  0.0864 -0.1102
 5966W        W48879  33.714  32.804  17.385  0.1868 -0.3156 -0.3433
 5967W        W48880  34.431   9.643  22.053  0.1482 -0.1439  0.2269
 5968W        W48881   2.827   4.026  18.245  0.4420  0.1549  0.2316
 5969W        W48882  27.737  15.222  21.832  0.0778 -0.1487 -0.2882
 5970W        W48883  31.964   6.926  17.617 -0.0991  0.0303 -0.1528
 5971W        W48884  33.019   7.302  22.488  0.3544  0.2227 -0.0796
 5972W        W48885   8.450   2.599  23.309 -0.2945 -0.3837 -0.2031
 5973W        W48886   1.985   3.292  22.509 -0.3661 -0.0713 -0.2824
 5974W        W48887   8.884   1.240  27.212 -0.2129  0.1042  0.1101
 5975W        W48888   5.115   7.896  17.725  0.0573  0.1774 -0.2368
 5976W        W48889  33.575   4.914  23.054  0.0201 -0.0248  0.0525
 5977W        W48890   7.358   9.084  16.703 -0.0225 -0.1081  0.4144
 5978W        W48891  30.433   1.812  27.512 -0.1628  0.3466 -0.2743
 5979W        W48892   4.450   9.582  19.944 -0.0993 -0.1037  0.0426
 5980W        W48893   8.532  12.189  18.859  0.0116 -0.0315 -0.0267
 5981W        W48894  17.496   1.793  22.193 -0.1714  0.0802 -0.1533
 5982W        W48895   4.367   9.887  18.266 -0.2373  0.0694 -0.1339
 5983W        W48896  33.351  31.294  28.658 -0.0148 -0.0286  0.2517
 5984W        W48897   6.534   5.055  25.068  0.2893 -0.0847  0.2245
 5985W        W48898  31.502  31.557  20.766 -0.4508 -0.1682  0.0010
 5986W        W48899   7.152   5.754  23.271  0.3552  0.1095 -0.1659
 5987W        W48900   0.808  29.510  16.424  0.0956 -0.2761  0.2616
 5988W        W48901  31.352  31.942  17.834 -0.2955 -0.2246  0.0501
 5989W        W48902   3.447   6.725  17.603  0.0738 -0.1179 -0.1410
 5990W        W48903  31.771   7.748  15.888 -0.4340  0.1868  0.1148
 5991W        W48904  30.978   1.538  23.898  0.0027 -0.0708 -0.1024
 5992W        W48905   9.917  11.349  25.014  0.1980 -0.2591 -0.0108
 5993W        W48906  27.206  25.843  22.583  0.2540  0.0243 -0.1139
 5994W        W48907  28.027   1.022  25.622 -0.1657  0.0191 -0.0147
 5995W        W48908   3.826  14.954  22.035 -0.0182 -0.3026 -0.2910
 5996W        W48909  33.948  10.841  23.408 -0.0151 -0.2482 -0.0038
 5997W        W48910  10.239   9.315  17.846  0.0575  0.0500  0.3064
 5998W        W48911   3.430   6.539  20.637 -0.0925 -0.2527  0.0612
 5999W        W48912  28.919   5.780  19.509 -0.1198  0.0575  0.0719
 6000W        W48913   6.424  11.635  15.879  0.2131  0.1883  0.0796
 6001W        W48914  34.291   2.660  25.269  0.0143  0.3830 -0.1308
 6002W        W48915  19.081   4.490  19.889  0.2834  0.0377  0.0965
 6003W        W48916   0.909   8.046  26.109 -0.2582 -0.3256 -0.2603
 6004W        W48917  31.601   1.611   0.842 -0.1135  0.0703  0.3183
 6005W        W48918  30.128   2.914  25.309  0.2592 -0.1790 -0.3941
 6006W        W48919   4.231  12.206  18.722  0.1353  0.0016 -0.0253
 6007W        W48920  28.675  12.912  16.237 -0.2819 -0.0706 -0.1450
 6008W        W48921   8.332   2.574  17.491  0.4566  0.1542 -0.0848
 6009W        W48922   4.016  32.901  25.160 -0.2055 -0.2781  0.3054
 6010W        W48923  28.109   6.395  25.674 -0.2171  0.0907  0.0244
 6011W        W48924  14.823   5.213  16.671 -0.0199 -0.1941 -0.3672
 6012W        W48925  30.723  10.292  15.962 -0.0520 -0.1865  0.0036
 6013W        W48926   3.894   6.571  20.395  0.0745  0.1565  0.0252
 6014W        W48927   3.827  10.166  17.141  0.0285  0.3289  0.0270
 6015W        W48928  34.414   9.791  20.832 -0.1706 -0.2873 -0.2153
 6016W        W48929  32.517   2.381  18.010 -0.2010 -0.0203 -0.0612
 6017W        W48930   8.014   2.201  21.404 -0.2417  0.0481  0.1021
 6018W        W48931   7.353   8.196  24.056  0.0200 -0.2530 -0.0622
 6019W        W48932  27.751  33.770  22.586  0.0520 -0.0353  0.2316
 6020W        W48933  32.015  12.908  25.089 -0.0881 -0.4176  0.4742
 6021W        W48934   3.000  14.488  15.421  0.0769  0.0256 -0.1063
 6022W        W48935   0.429   9.553  17.665  0.1214 -0.0664  0.1280
 6023W        W48936  29.287  32.656  20.697  0.2288  0.0808 -0.1368
 6024W        W48937   2.666   1.818  26.468 -0.0248  0.0568 -0.4437
 6025W        W48938   1.781  13.128  18.936  0.1146  0.3329 -0.1942
 6026W        W48939   2.093   4.566  17.714 -0.1717  0.0985  0.1004
 6027W        W48940  23.769  12.338  27.401 -0.1330  0.1653  0.2448
 6028W        W48941  11.374   0.773  17.585 -0.2869  0.0111 -0.1046
 6029W        W48942   3.232   5.006  16.510 -0.1196  0.1197  0.1022
 6030W        W48943   4.898  16.645  21.178 -0.1294  0.0579 -0.1907
 6031W        W48944   0.780   3.699  24.380  0.1159 -0.1025 -0.2294
 6032W        W48945  31.800  10.998  14.697 -0.2962 -0.2017  0.0306
 6033W        W48946  23.276  29.903  21.301  0.0077 -0.0699  0.0855
 6034W        W48947  26.232  10.150  28.597 -0.1066 -0.1302  0.0979
 6035W        W48948  25.929  10.907  25.592 -0.1406  0.3660  0.2042
 6036W        W48949   4.109   7.345  23.320  0.1552  0.0394 -0.1905
 6037W        W48950  16.602   7.996   4.078 -0.3294  0.3061 -0.1432
 6038W        W48951   1.339   3.089  22.222 -0.2022 -0.0334  0.1577
 6039W        W48952   7.087   0.652  18.991 -0.1776  0.1037 -0.0179
 6040W        W48953  28.955   5.079  26.399 -0.0415  0.0928 -0.3046
 6041W        W48954   1.015  10.153  26.327 -0.3085  0.2433  0.1117
 6042W        W48955  31.687   4.791  27.746  0.6735  0.0371 -0.2040
 6043W        W48956  29.495   6.156   2.636 -0.2154 -0.0320 -0.2750
 6044W        W48957   7.527  24.850  15.670 -0.2270 -0.1523 -0.4916
 6045W        W48958  33.411   7.713  16.908  0.1278 -0.0060  0.1483
 6046W        W48959   2.284   6.169  25.301  0.4658 -0.2284 -0.1453
 6047W        W48960  29.735  17.378  19.406 -0.0403 -0.0009 -0.2313
 6048W        W48961  13.202   9.550  22.381 -0.2145  0.0751  0.1130
 6049W        W48962  26.553  34.304  17.585 -0.2079 -0.2157 -0.0044
 6050W        W48963  30.493   8.011  18.075 -0.1227 -0.1353  0.1872
 6051W        W48964   2.424   5.828   1.969 -0.2173 -0.1177 -0.1632
 6052W        W48965   2.348  27.762  24.630 -0.1606 -0.0251  0.2349
 6053W        W48966  22.990  29.645  13.770  0.1144 -0.1343 -0.2424
 6054W        W48967  28.711   2.979  19.588 -0.0171  0.3787 -0.2232
 6055W        W48968   1.013   9.840  20.892  0.3697  0.1313 -0.0853
 6056W        W48969   3.419   7.199  23.399  0.0081 -0.2598  0.3165
 6057W        W48970   4.401   0.506  27.576  0.0673 -0.0349  0.0329
 6058W        W48971  14.108   9.539  26.321 -0.2191  0.1120  0.1688
 6059W        W48972   9.495   2.769  23.992 -0.1829  0.1073 -0.3831
 6060W        W48973  33.627   4.314  27.498  0.1057 -0.1745 -0.1396
 6061W        W48974   1.775   3.734  16.988 -0.1089 -0.0453  0.0179
 6062W        W48975   2.418   0.492   0.003 -0.1207  0.2340  0.2139
 6063W        W48976   1.961  10.779  16.888  0.2158  0.1930  0.1730
 6064W        W48977  31.123   7.446  21.468 -0.0575  0.0568  0.1541
 6065W        W48978  11.376   6.421  22.249  0.0705 -0.1829 -0.0183
 6066W        W48979  10.899  13.118  25.893 -0.2581 -0.0418  0.0029
 6067W        W48980  33.498   3.429  25.628 -0.2848 -0.0142  0.2424
 6068W        W48981   9.668   6.825  19.210 -0.0425 -0.0215 -0.1627
 6069W        W48982  27.271   9.539  21.873 -0.1730  0.0179  0.0497
 6070W        W48983   5.876  20.984  15.509 -0.0103 -0.1843  0.0712
 6071W        W48984   8.861   6.349  25.185  0.0775 -0.0042  0.1458
 6072W        W48985  10.313   4.429  20.926  0.3307  0.2155  0.2965
 6073W        W48986  29.856   2.250  23.424 -0.1385 -0.2923  0.1165
 6074W        W48987  29.392   0.637  24.667  0.3067 -0.1004 -0.3904
 6075W        W48988   4.068  12.157  20.314 -0.4108 -0.0952 -0.5748
 6076W        W48989  30.163   3.858  24.877 -0.2544  0.2586  0.1722
 6077W        W48990  21.730  30.748   6.103  0.1112  0.2165 -0.3104
 6078W        W48991  33.255  10.825  22.257 -0.0657 -0.2260  0.0408
 6079W        W48992  31.777  13.641  28.839 -0.1204 -0.0798  0.0120
 6080W        W48993  25.212  10.091  18.406  0.2932  0.2088 -0.2274
 6081W        W48994  20.053   3.888  19.321 -0.0885  0.0493 -0.3993
 6082W        W48995  34.240   7.074  19.071 -0.2220  0.0882 -0.2814
 6083W        W48996  20.940  22.195  25.857 -0.0397 -0.3251  0.0151
 6084W        W48997  32.070  10.184  26.949 -0.2704  0.0896  0.0346
 6085W        W48998   0.574   7.577  29.423  0.1123  0.2770  0.4689
 6086W        W48999  12.590   4.548   0.917 -0.0284  0.0277 -0.2194
 6087W        W49000  24.147  29.949  21.455 -0.0142 -0.2955 -0.1659
 6088W        W49001  14.714   8.763  24.429 -0.2320  0.2118 -0.0749
 6089W        W49002  31.788  28.766  16.850 -0.2074  0.2010  0.1077
 6090W        W49003  33.242   0.754  22.388 -0.1200  0.4157 -0.0643
 6091W        W49004  32.841  31.737  22.501 -0.1302  0.0310 -0.2614
 6092W        W49005   1.692   9.289   9.793  0.1064 -0.2141 -0.0167
 6093W        W49006   7.465   2.703  17.916 -0.1165 -0.2232 -0.1974
 6094W        W49007   4.310   3.009  24.099  0.0717  0.0709 -0.3008
 6095W        W49008  23.824  30.646   0.911 -0.1823  0.2567 -0.0528
 6096W        W49009  27.024   8.212  26.335  0.1249 -0.0789 -0.2298
 6097W        W49010  31.854   9.762  22.667  0.3326  0.0212 -0.1678
 6098W        W49011  34.119  33.960  20.725 -0.1267 -0.0115 -0.2998
 6099W        W49012   0.372   5.955  26.621  0.1739  0.1207  0.1209
 6100W        W49013  14.601  33.639  28.106  0.1493 -0.0236 -0.0815
 6101W        W49014   1.800   0.592  27.739  0.3359 -0.2021 -0.1676
 6102W        W49015   3.163   8.648  22.354  0.0200  0.0823 -0.1284
 6103W        W49016  27.665   3.896  23.481 -0.0155 -0.2830 -0.4178
 6104W        W49017  33.036   1.493   0.068 -0.0700 -0.2276  0.0077
 6105W        W49018  33.663  12.202  15.356  0.2243 -0.0079 -0.0217
 6106W        W49019  24.510   4.429  17.456  0.1090 -0.0025  0.0855
 6107W        W49020   1.049   4.289  17.796 -0.0835 -0.1738  0.2874
 6108W        W49021   4.577  26.850   2.069  0.0536  0.0400 -0.2766
 6109W        W49022   3.721  28.235  19.554 -0.3464  0.0503 -0.1874
 6110W        W49023  29.143  30.022  21.157 -0.1760 -0.3064  0.2242
 6111W        W49024   9.395  17.863  19.519 -0.1363  0.1668  0.2956
 6112W        W49025  12.010   2.519  20.461 -0.0833 -0.1199  0.1147
 6113W        W49026   4.034   7.612  28.978  0.3078  0.0695  0.2425
 6114W        W49027  31.947  13.154  24.156  0.2288  0.0153  0.2010
 6115W        W49028  28.637   0.738   1.255  0.3917 -0.1861 -0.0423
 6116W        W49029   1.248  15.024  15.301  0.3038  0.2486  0.2399
 6117W        W49030  33.975   3.279   4.254 -0.0357 -0.0125 -0.1081
 6118W        W49031  34.191  30.091  16.712 -0.2824  0.0193  0.1177
 6119W        W49032  26.715   0.569  22.263  0.5234 -0.2725  0.1222
 6120W        W49033  34.019   6.887  23.123 -0.5736  0.2503  0.1429
 6121W        W49034  33.017  14.642  14.159 -0.0635  0.2631  0.0943
 6122W        W49035   4.304   3.160  18.615 -0.0617  0.0561  0.2194
 6123W        W49036  28.199   3.370  27.960 -0.0772  0.3301 -0.0950
 6124W        W49037  32.620   7.308  19.746 -0.3907 -0.3212  0.0770
 6125W        W49038   7.151  10.247  21.243  0.4635  0.5161 -0.2402
 6126W        W49039  31.710   6.348  21.756  0.3200 -0.1520  0.1403
 6127W        W49040  30.989  15.222  22.202  0.2566  0.0802 -0.1290
 6128W        W49041  26.646   0.150  22.624 -0.0138 -0.1364 -0.0188
 6129W        W49042  32.429   0.521  21.832  0.1390 -0.1545 -0.0330
 6130W        W49043   2.834  26.057  24.196 -0.0895  0.0392 -0.1261
 6131W        W49044  33.790  31.901  26.976 -0.2758 -0.1203  0.2770
 6132W        W49045  28.172  31.899  22.587 -0.0658 -0.0290 -0.0674
 6133W        W49046  33.629  14.759  15.693  0.0779 -0.0867  0.2414
 6134W        W49047  26.606  23.657   0.367 -0.0239  0.1177  0.0324
 6135W        W49048  33.647  32.730  18.295  0.0087 -0.2092 -0.1968
 6136W        W49049  26.333   7.670   5.388  0.1483  0.3950 -0.2795
 6137W        W49050   7.328  25.239  22.665  0.1229 -0.0540 -0.1851
 6138W        W49051  27.895   6.814  18.804  0.1583 -0.0151  0.0849
 6139W        W49052  33.879   1.625  17.700  0.1291  0.2204 -0.0945
 6140W        W49053  10.537   0.242  26.099 -0.1246  0.1852  0.0349
 6141W        W49054  32.692  31.722  21.362 -0.3207 -0.1558 -0.1898
 6142W        W49055  33.201   0.928  21.949  0.2052 -0.4195  0.1135
 6143W        W49056   5.218   9.069  16.948 -0.1884  0.2101  0.1846
 6144W        W49057  31.351  10.194  16.570  0.0475 -0.1223 -0.0866
 6145W        W49058  31.326   2.377  16.240 -0.1208 -0.1460  0.0516
 6146W        W49059  10.924   3.347  24.402 -0.0917 -0.0270  0.3216
 6147W        W49060  31.662   2.343  17.106 -0.1966  0.3980 -0.2053
 6148W        W49061   1.105  29.282  28.944 -0.1719  0.0776 -0.0808
 6149W        W49062  33.257   5.384  17.750 -0.1320 -0.1499 -0.0720
 6150W        W49063   8.838   6.045  25.821 -0.3549  0.2091 -0.2759
 6151W        W49064   0.792   3.931  28.298  0.0121 -0.1663  0.0208
 6152W        W49065   4.449  14.552  22.805 -0.3264  0.0095  0.3613
 6153W        W49066  31.564  28.477  23.724  0.3582 -0.0599 -0.3634
 6154W        W49067  32.000   2.024  18.486 -0.2705 -0.1985  0.1224
 6155W        W49068  33.317  13.592  26.169 -0.3261  0.1901 -0.1206
 6156W        W49069  10.957  29.330  26.424  0.1386 -0.2887 -0.0601
 6157W        W49070   1.969   3.110  25.927 -0.0017  0.0257 -0.3079
 6158W        W49071  29.263  12.346  24.180 -0.0866 -0.0880 -0.3514
 6159W        W49072  30.027  11.570  15.101 -0.2366  0.0252  0.1875
 6160W        W49073  16.547   6.302   0.985  0.4193 -0.1343  0.0473
 6161W        W49074  32.507  10.683  19.511 -0.3038  0.2672 -0.3840
 6162W        W49075   4.459  13.038  20.849  0.1291 -0.1557  0.3754
 6163W        W49076  27.064   3.315   2.076 -0.1670  0.1495 -0.1583
 6164W        W49077  27.080  32.135  18.474 -0.1773  0.1429 -0.1161
 6165W        W49078   0.542  19.979  15.578  0.3613  0.3130  0.3014
 6166W        W49079  25.392   6.781  15.451 -0.1554 -0.0476 -0.1193
 6167W        W49080   7.327   4.736  20.611 -0.1450 -0.3017 -0.1077
 6168W        W49081   5.534   4.194  21.101 -0.0022  0.2473 -0.1172
 6169W        W49082  31.849   9.216   0.068 -0.4513 -0.0583  0.0499
 6170W        W49083  26.251  31.803  29.394  0.2556 -0.1797  0.0342
 6171W        W49084  29.278  23.026  28.085 -0.1698  0.2100 -0.3619
 6172W        W49085   0.783  27.823  23.485  0.1884  0.2107  0.1533
 6173W        W49086  29.850   7.476  27.642 -0.1491 -0.1835 -0.2909
 6174W        W49087   1.997   9.242  16.616 -0.2664  0.5157  0.0876
 6175W        W49088  34.279  33.758  22.260 -0.1742  0.2991 -0.0018
 6176W        W49089   7.451   2.054  23.971  0.0713  0.0454 -0.4895
 6177W        W49090   0.232  11.805  17.505 -0.0941  0.1787 -0.2486
 6178W        W49091   2.521  11.121  23.961 -0.4081 -0.1374  0.0582
 6179W        W49092  15.110  32.674  27.976 -0.0395 -0.0020  0.1566
 6180W        W49093   7.865   7.210  24.309  0.4213 -0.3532  0.3897
 6181W        W49094   2.745   9.122  25.287  0.1037 -0.0701  0.1763
 6182W        W49095   6.117   3.784  23.376  0.1059 -0.0014 -0.0422
 6183W        W49096  30.830   4.138   1.366 -0.1409 -0.0216  0.2093
 6184W        W49097   5.394  17.180   1.349 -0.0762  0.1367 -0.1172
 6185W        W49098   9.675  12.019  22.621 -0.0629  0.1773 -0.4252
 6186W        W49099  28.449  34.274  16.219 -0.2310 -0.0470 -0.1980
 6187W        W49100  32.099   3.680  26.561  0.0253  0.0540  0.0970
 6188W        W49101  33.507   7.306  22.671  0.0509 -0.3569  0.0624
 6189W        W49102   0.969  32.907  18.248 -0.1972  0.5674  0.2557
 6190W        W49103  12.178  33.355  27.506 -0.2386  0.1174 -0.2189
 6191W        W49104  29.759   9.494  28.191  0.2097 -0.0454  0.0617
 6192W        W49105   8.760   7.615  24.762 -0.1441  0.0799  0.2852
 6193W        W49106   5.898  13.718  14.609 -0.2704  0.4106  0.0922
 6194W        W49107   7.003   6.196  26.120 -0.1484 -0.3579  0.1229
 6195W        W49108  22.090  29.534  17.092 -0.0542  0.3182 -0.3098
 6196W        W49109  32.448   3.995  15.881  0.0185  0.0480 -0.3698
 6197W        W49110  27.282  27.502  20.236 -0.0273 -0.0947 -0.3766
 6198W        W49111  30.187   8.731  17.435  0.1880  0.0402 -0.1874
 6199W        W49112   5.926   0.052  25.865 -0.1965 -0.1442  0.1017
 6200W        W49113   8.279   1.587  25.363 -0.0777 -0.0792  0.0990
 6201W        W49114  33.556   3.618  22.268 -0.3407  0.0357  0.0669
 6202W        W49115   2.287  19.049  27.121  0.1246 -0.1789 -0.1376
 6203W        W49116  26.150  26.953  21.764  0.2106 -0.0275 -0.2909
 6204W        W49117   4.436   3.677  22.277  0.0858 -0.0246 -0.2013
 6205W        W49118   0.130   6.173  22.987  0.0661  0.1672  0.0449
 6206W        W49119  33.661   7.264  23.635  0.0832 -0.0951 -0.0812
 6207W        W49120  29.663  13.558  23.942  0.2979  0.0693  0.1427
 6208W        W49121  14.064   9.635  24.191 -0.1093  0.1216  0.2447
 6209W        W49122   0.823   4.542  18.271  0.0039 -0.2217 -0.1084
 6210W        W49123   6.725   5.623  21.619  0.0006  0.1210  0.2753
 6211W        W49124  31.144  33.040   4.301 -0.0467  0.0593  0.1089
 6212W        W49125   2.700  32.024  17.532  0.0205 -0.0294 -0.2872
 6213W        W49126  32.769   7.039  21.645 -0.2202  0.0061 -0.1512
 6214W        W49127  31.525  33.050   3.878 -0.0488 -0.1552  0.1474
 6215W        W49128  31.216   3.987  22.074 -0.1814  0.2913  0.3681
 6216W        W49129  29.934   1.986   4.810  0.1033  0.2429  0.3014
 6217W        W49130  11.741   4.435  21.121  0.0214  0.0573 -0.0667
 6218W        W49131   0.958  27.294  25.846 -0.4300 -0.1298  0.0204
 6219W        W49132   2.287  14.861  24.726  0.3301 -0.0613  0.0647
 6220W        W49133  31.122   6.827   0.640  0.4777 -0.1266 -0.0854
 6221W        W49134   3.701  16.453  15.375 -0.0562 -0.1134  0.0332
 6222W        W49135  28.649   5.401  23.610 -0.2181  0.0357  0.1515
 6223W        W49136  32.418  34.470   2.845 -0.0582 -0.3053 -0.0158
 6224W        W49137  12.676  11.154  23.215 -0.1716 -0.1785  0.2373
 6225W        W49138  33.779   3.782  27.268  0.0590  0.0965 -0.0622
 6226W        W49139  12.698  33.917  26.133 -0.0406 -0.2066 -0.0580
 6227W        W49140   6.005   4.951  27.836  0.0311 -0.4155  0.1352
 6228W        W49141  30.141   2.967  22.316  0.1289  0.1510  0.1665
 6229W        W49142  10.866  12.913  26.812 -0.0131  0.1020 -0.0814
 6230W        W49143   6.955  30.730  23.854  0.2975  0.1734 -0.1653
 6231W        W49144  30.399   2.706  24.371 -0.2469  0.2007 -0.0003
 6232W        W49145  32.957  31.601  27.003  0.1347 -0.0394  0.2098
 6233W        W49146  33.930   2.069  26.606  0.3064 -0.1549 -0.0261
 6234W        W49147  29.744   4.077  29.098 -0.1991 -0.0467 -0.0189
 6235W        W49148   4.814   3.015  24.051  0.2937  0.0475 -0.0341
 6236W        W49149  14.605   8.176  14.362 -0.0199 -0.2049  0.2777
 6237W        W49150  33.711  25.822  17.774 -0.0040 -0.0237  0.0278
 6238W        W49151  29.509  12.095  24.943 -0.2932  0.1862  0.1543
 6239W        W49152   4.781  31.982  26.605  0.1021 -0.1231 -0.0289
 6240W        W49153  27.831   8.249  26.536  0.2832 -0.1194 -0.2149
 6241W        W49154  33.680   0.104  20.093 -0.2684  0.0184 -0.0037
 6242W        W49155   9.121  13.027  23.872  0.0274  0.2334  0.0634
 6243W        W49156  33.865   9.777  15.536 -0.1880 -0.2348  0.3083
 6244W        W49157   0.683   4.328  28.028 -0.1266  0.0157 -0.0731
 6245W        W49158   4.413  33.876  21.477  0.1832 -0.0738 -0.0432
 6246W        W49159   9.194  34.270   4.370  0.1190  0.0227  0.0621
 6247W        W49160   3.612  31.388  23.190  0.0793 -0.0032  0.0563
 6248W        W49161   9.302  15.407  24.726  0.2411 -0.0847  0.0643
 6249W        W49162   3.419   5.184  18.077  0.0268 -0.2588  0.1084
 6250W        W49163   3.270   2.681  17.856  0.0364  0.1811 -0.2382
 6251W        W49164   9.740   3.191  23.305 -0.1223 -0.1765 -0.1845
 6252W        W49165  26.714   1.560   0.501 -0.2291  0.0472 -0.1837
 6253W        W49166  32.840  33.659   0.310  0.1284 -0.1094  0.1398
 6254W        W49167  10.905  33.304  24.331 -0.0900 -0.2195  0.1788
 6255W        W49168  25.715  10.624  21.406 -0.3034  0.1266 -0.1641
 6256W        W49169   0.170   8.961   0.038  0.0156 -0.1228  0.0545
 6257W        W49170  28.407   8.632  18.912  0.0803  0.2059 -0.0719
 6258W        W49171  31.357   5.259  17.465  0.0705 -0.1334  0.1474
 6259W        W49172  31.169   6.166  22.315  0.1766  0.1559  0.1479
 6260W        W49173  31.928  34.170  24.672  0.2055  0.1517  0.1731
 6261W        W49174  32.620  11.397  25.038 -0.0481 -0.0947  0.0529
 6262W        W49175  25.214   3.778  14.211  0.1525  0.2190 -0.1436
 6263W        W49176   7.145  10.194  23.723  0.0782 -0.3171 -0.1440
 6264W        W49177  14.104   7.496  24.769  0.1933 -0.1381 -0.1250
 6265W        W49178   2.693  25.037  14.268 -0.0222 -0.0053  0.1683
 6266W        W49179  27.472   4.704  18.865 -0.1235  0.0025 -0.3922
 6267W        W49180   1.300  32.193   4.476  0.1636  0.1780 -0.4316
 6268W        W49181  13.779   6.876  20.838 -0.0081  0.1388 -0.3365
 6269W        W49182  25.386   3.343  29.392  0.2545 -0.0339  0.0190
 6270W        W49183  33.730  15.422  19.434  0.1236 -0.1488  0.1699
 6271W        W49184   2.373   3.711   2.427 -0.1108 -0.2844 -0.1576
 6272W        W49185   5.315  32.342  22.565  0.0486 -0.0306  0.3504
 6273W        W49186   5.536   2.225   8.627  0.0190  0.1965  0.1428
 6274W        W49187  34.272  14.106  13.893  0.0758 -0.1237 -0.1051
 6275W        W49188   0.525  11.665   1.499  0.2314 -0.1405 -0.1919
 6276W        W49189  31.598  30.921  28.442 -0.3598 -0.0782 -0.2029
 6277W        W49190  25.280   6.403  28.072  0.3396  0.3650  0.2927
 6278W        W49191  12.270  12.467  15.240 -0.0545  0.0269  0.0887
 6279W        W49192   7.831   7.428  20.769  0.1168 -0.1782 -0.2658
 6280W        W49193   1.699   0.511  25.747 -0.0633 -0.1041 -0.1007
 6281W        W49194   2.756  33.643  23.711  0.0870  0.0080 -0.1517
 6282W        W49195   3.574   2.923  26.567  0.1572 -0.0078 -0.1859
 6283W        W49196   7.569  30.537  24.615  0.2620  0.5155 -0.0579
 6284W        W49197   4.798   2.003  25.587 -0.3242 -0.0743  0.0434
 6285W        W49198  10.954   8.066  17.360  0.0343  0.2232 -0.1558
 6286W        W49199   1.933   2.541  22.094  0.1608 -0.0860 -0.1963
 6287W        W49200  33.729   0.315   1.505  0.2636  0.0743  0.1399
 6288W        W49201   2.556   3.879  18.686  0.1884  0.1700  0.0901
 6289W        W49202   6.254   0.727  19.535  0.0698  0.0526 -0.0964
 6290W        W49203   0.406  13.465  24.864  0.1338 -0.1175 -0.1232
 6291W        W49204  28.512   6.945  28.253  0.0872  0.0121  0.1141
 6292W        W49205  26.521   6.132   2.956 -0.0104 -0.0830 -0.0044
 6293W        W49206  32.197  11.519  16.561  0.3693  0.0266 -0.0174
 6294W        W49207   3.055   4.914  20.564  0.0283 -0.1175  0.1016
 6295W        W49208   2.047  13.926  29.351  0.0155 -0.1301 -0.2970
 6296W        W49209  33.233   7.721  22.921  0.0947 -0.1791 -0.0912
 6297W        W49210  34.189   9.789  18.720 -0.0149  0.1899  0.0536
 6298W        W49211   8.206  12.930  21.097  0.0630 -0.0368  0.1407
 6299W        W49212   5.210   0.632  19.657 -0.0569  0.0685  0.0906
 6300W        W49213   5.734  12.351  16.334  0.0444  0.1439 -0.1745
 6301W        W49214  19.630   7.162  27.866 -0.1073  0.0575  0.2325
 6302W        W49215  30.988   6.301   1.462  0.2643 -0.4401  0.0423
 6303W        W49216  15.419   7.057  16.647  0.0842  0.0211 -0.0818
 6304W        W49217  10.000  11.200  22.919  0.1747  0.0169  0.2380
 6305W        W49218   0.133  34.203  22.080  0.1364 -0.0531 -0.0176
 6306W        W49219  13.842  24.514  17.494  0.1479 -0.0030  0.4071
 6307W        W49220   2.071  28.403  25.650  0.1685 -0.3990  0.1966
 6308W        W49221  30.286  29.286  21.089 -0.1452  0.1514 -0.2512
 6309W        W49222   2.683   9.814  24.016 -0.0448  0.2978  0.0544
 6310W        W49223   0.951  29.945  19.239 -0.0055 -0.0487 -0.0065
 6311W        W49224   1.146   6.084  22.080  0.5608  0.1072 -0.1630
 6312W        W49225  32.903   1.131   2.398  0.0624  0.0088 -0.2848
 6313W        W49226  32.216   3.789  22.233 -0.2161  0.0806  0.0355
 6314W        W49227  26.038  32.831  17.051  0.1268  0.2308 -0.0203
 6315W        W49228  30.414  31.894  14.190  0.2104 -0.2907 -0.0808
 6316W        W49229   0.614   0.368   6.257  0.0404  0.0252  0.0039
 6317W        W49230  28.826   1.649  22.885 -0.0107  0.0143 -0.1444
 6318W        W49231  29.958  32.404  15.656  0.1759  0.1327  0.1387
 6319W        W49232  33.881  29.510   2.750  0.0244  0.0821 -0.2986
 6320W        W49233  31.790   6.658  15.695 -0.1543 -0.0796 -0.1978
 6321W        W49234  15.092   6.576  26.260 -0.1710 -0.2456  0.1791
 6322W        W49235   8.193   2.131   4.493  0.2015  0.0624 -0.1413
 6323W        W49236   0.637   1.320  25.657 -0.2776  0.1641  0.3449
 6324W        W49237   1.286   0.909  17.813  0.0172  0.1937  0.0314
 6325W        W49238  16.377   1.851  20.400 -0.0867  0.1445 -0.0137
 6326W        W49239   8.146  10.584  16.320 -0.1244 -0.1213 -0.1278
 6327W        W49240  31.609   3.204  22.036  0.2384  0.0428  0.1836
 6328W        W49241   3.062  31.062  20.250  0.0032  0.2570  0.0598
 6329W        W49242  34.428  17.445  26.975 -0.0989 -0.2971  0.0805
 6330W        W49243   1.079  27.310  25.310 -0.3070  0.1648 -0.0714
 6331W        W49244   6.680   4.389  18.378 -0.0910  0.2883  0.1297
 6332W        W49245   4.339  29.298  26.498 -0.1360 -0.1053 -0.1855
 6333W        W49246  29.778   0.990  26.659  0.2492 -0.0856  0.0608
 6334W        W49247  32.514  30.385  22.760  0.1217  0.0147 -0.2207
 6335W        W49248  31.797   0.851  26.971  0.1681  0.0529 -0.0141
 6336W        W49249  32.383   4.519   0.105 -0.0468 -0.2020 -0.2361
 6337W        W49250  32.955   9.015  15.622  0.1037 -0.0419 -0.1136
 6338W        W49251  33.741  33.270  22.956  0.2838  0.1347  0.2754
 6339W        W49252  31.086   8.832  23.653  0.2081 -0.0193 -0.0268
 6340W        W49253  32.466  33.956  19.047  0.1523 -0.0940 -0.1908
 6341W        W49254   2.011  12.650  15.712  0.1133 -0.2135 -0.1140
 6342W        W49255  33.040  30.841  28.582  0.0384  0.0165 -0.4040
 6343W        W49256   3.871  11.153  20.633 -0.1860 -0.1969 -0.0614
 6344W        W49257   7.790   0.184   3.129 -0.0450 -0.2622  0.0676
 6345W        W49258   3.651  29.864  23.419  0.1034  0.3196 -0.1200
 6346W        W49259  32.584   5.237  19.532 -0.2277 -0.1133  0.0146
 6347W        W49260   3.481   3.442  18.525  0.2695 -0.0088 -0.3754
 6348W        W49261  12.576  14.855   3.888 -0.0537 -0.1065  0.0077
 6349W        W49262   6.600   7.023  25.088 -0.0797  0.2012  0.1055
 6350W        W49263  11.409   3.438  22.672 -0.1782  0.0284  0.2092
 6351W        W49264  28.791   5.425  26.031 -0.0670  0.0142 -0.0577
 6352W        W49265  29.064  33.501  21.903  0.0671  0.0042  0.4366
 6353W        W49266  30.808  34.309  18.186  0.0503  0.1887  0.1818
 6354W        W49267  33.424  31.042  22.150  0.0891  0.1084 -0.4569
 6355W        W49268   3.707  13.590  16.490  0.3248 -0.3099 -0.1560
 6356W        W49269   1.717   1.287  22.805  0.3389 -0.0063 -0.1442
 6357W        W49270   5.582  15.472  27.259 -0.2575  0.3042  0.0314
 6358W        W49271   6.058  13.073  22.706  0.0474  0.0195 -0.0173
 6359W        W49272  30.774   9.943  20.468  0.0960 -0.1018  0.4257
 6360W        W49273   4.034  14.635  20.001  0.1286 -0.2424  0.0665
 6361W        W49274   7.277   6.287  17.567 -0.1586 -0.2010  0.1109
 6362W        W49275   4.877  14.233  22.981 -0.2330 -0.1725  0.1389
 6363W        W49276   2.690  31.980  18.573  0.1689 -0.2642  0.3201
 6364W        W49277  12.484   9.190  21.330  0.0575  0.1409  0.0688
 6365W        W49278   6.460  31.180  19.463  0.0349 -0.1715 -0.1379
 6366W        W49279   1.717   6.297  27.046  0.0722 -0.1233  0.0829
 6367W        W49280  27.974  27.347  13.664 -0.1520  0.0510 -0.2312
 6368W        W49281   3.492  34.109  20.587  0.0767  0.2779 -0.0041
 6369W        W49282  30.542   7.765  21.593 -0.4500  0.2989 -0.0102
 6370W        W49283  29.339  19.244  24.648 -0.6171  0.3829 -0.2411
 6371W        W49284  13.850   0.190  17.475 -0.2357  0.2117  0.4708
 6372W        W49285  28.545   5.774  24.362 -0.4325 -0.2847 -0.5056
 6373W        W49286   2.279  11.289  24.375 -0.2688 -0.0491 -0.2936
 6374W        W49287   8.515   6.179  17.113 -0.2392 -0.0123  0.0193
 6375W        W49288  32.407   3.715  28.656 -0.1921 -0.1194  0.0517
 6376W        W49289  33.171  33.984  22.270 -0.1098 -0.1767  0.1770
 6377W        W49290  29.527   3.759   2.957  0.1080  0.1559  0.0126
 6378W        W49291  26.906  31.690  15.711  0.1713 -0.1755  0.0978
 6379W        W49292   4.827  30.731  18.561 -0.1964  0.2341 -0.0471
 6380W        W49293  30.300  10.657  16.244 -0.0915 -0.1019 -0.0837
 6381W        W49294  24.983   1.217  15.250  0.1001 -0.3175  0.1343
 6382W        W49295   2.488   5.989  18.612 -0.0280  0.0718 -0.3803
 6383W        W49296   5.219   1.257  24.329  0.1363  0.0950 -0.2841
 6384W        W49297   7.305   2.930  23.392  0.5888 -0.1965 -0.0708
 6385W        W49298  31.126  34.074  23.350  0.0513 -0.0578  0.3146
 6386W        W49299   4.719   9.424  26.777 -0.0682 -0.0114 -0.1344
 6387W        W49300  10.024   1.121  24.706  0.1555  0.2978  0.1621
 6388W        W49301   8.816  21.370  20.371 -0.2925  0.0885  0.4969
 6389W        W49302  31.209  34.206  17.869 -0.0402 -0.1424  0.3238
 6390W        W49303   4.300  30.923  18.292  0.0202 -0.1885 -0.1631
 6391W        W49304   1.470  12.594  14.171  0.0754  0.0485  0.1012
 6392W        W49305  27.734  27.699  20.164  0.0482 -0.1399  0.0217
 6393W        W49306   4.334  26.022  21.709 -0.1986 -0.1823  0.0850
 6394W        W49307   8.930   8.840  23.156 -0.0284 -0.1651  0.1974
 6395W        W49308   1.670   5.459  17.691  0.1692  0.3047 -0.0565
 6396W        W49309   1.706  11.322  26.156 -0.1122 -0.0731 -0.1934
 6397W        W49310  34.291   0.272  18.268 -0.3767  0.0725  0.0638
 6398W        W49311  30.708   4.042  17.830  0.0210  0.2352 -0.1633
 6399W        W49312   3.586  15.589   6.462 -0.3113 -0.1602 -0.0266
 6400W        W49313  31.070  32.207  19.688  0.2198 -0.1618 -0.0636
 6401W        W49314   5.421   0.957  22.240  0.2728  0.1417  0.4182
 6402W        W49315  29.699   3.201  15.897 -0.0411  0.0994  0.2431
 6403W        W49316   3.483  14.396  15.204  0.1788 -0.1212 -0.2182
 6404W        W49317   2.107  14.209  14.807  0.0570  0.2242  0.0316
 6405W        W49318   1.982   1.294  21.859 -0.3167  0.3278  0.1223
 6406W        W49319   7.777  18.185  21.606 -0.0767  0.2919 -0.1151
 6407W        W49320   1.392  11.927  24.749 -0.1423 -0.1894 -0.2139
 6408W        W49321   5.005   5.874  24.743  0.0923 -0.2977  0.0959
 6409W        W49322  24.566  10.900  23.652 -0.2632 -0.0293  0.1057
 6410W        W49323  33.796  33.568  24.386  0.0818  0.0991 -0.1360
 6411W        W49324   8.550  10.556  25.821  0.0210 -0.0809 -0.0364
 6412W        W49325  33.462   4.544  16.904 -0.0207  0.1561  0.1563
 6413W        W49326  10.628   7.455   3.270 -0.1678  0.2623 -0.2742
 6414W        W49327   5.115  10.926  18.097 -0.0982 -0.1494 -0.0139
 6415W        W49328   8.358  13.402   0.788  0.3613  0.2342 -0.1118
 6416W        W49329  31.061  11.843  14.318  0.1055 -0.1895 -0.4833
 6417W        W49330   1.843   7.748  23.483 -0.1646  0.1042 -0.2461
 6418W        W49331   1.005   1.177  27.738  0.3318 -0.0465  0.0276
 6419W        W49332   4.511  32.280  24.645  0.1237 -0.0258  0.1627
 6420W        W49333   1.754  10.890  18.207  0.1615  0.0009 -0.0040
 6421W        W49334  24.714  15.112  15.373 -0.2916  0.1476  0.0348
 6422W        W49335  12.409  30.878  26.991 -0.0132 -0.0982 -0.1156
 6423W        W49336  11.012  11.964  26.630  0.0721  0.0725  0.2524
 6424W        W49337   1.345   6.085  17.068  0.1637 -0.2187  0.4748
 6425W        W49338   3.173   7.023  28.790  0.5789 -0.2907 -0.0844
 6426W        W49339  17.580   6.765   1.936  0.0402  0.1452  0.3339
 6427W        W49340   4.049   8.031  18.766 -0.2536  0.0464  0.3078
 6428W        W49341   5.328  33.655  19.165 -0.1714  0.0075 -0.0897
 6429W        W49342   2.891   2.322  23.552 -0.1288  0.0878  0.0388
 6430W        W49343  31.826  15.505  21.442  0.1310  0.1308 -0.0688
 6431W        W49344   4.052   6.908  16.989 -0.0752 -0.2085  0.0563
 6432W        W49345   4.377  33.241  25.104  0.0303  0.0282 -0.3585
 6433W        W49346   6.254   5.456  17.947 -0.1710  0.1524  0.2339
 6434W        W49347  25.774   2.983  29.360 -0.0088 -0.1353  0.1218
 6435W        W49348  34.029  32.227  26.064  0.0187 -0.0775  0.1053
 6436W        W49349  32.703   8.507  21.483  0.2960 -0.2641 -0.1791
 6437W        W49350   1.939   4.625  27.250  0.1763  0.1265  0.0747
 6438W        W49351  33.493  15.367  16.759 -0.2654 -0.2321  0.0677
 6439W        W49352   4.297   4.347  24.603  0.3102  0.1452 -0.2291
 6440W        W49353   1.141   3.847   2.576  0.1923  0.1982  0.2260
 6441W        W49354   5.296   6.391  21.572 -0.1751 -0.2883  0.1963
 6442W        W49355  11.108   2.470  28.187  0.1484  0.2339 -0.0494
 6443W        W49356   3.838   9.459   1.909 -0.0090 -0.1503  0.0604
 6444W        W49357   5.474  13.422  17.888  0.1854 -0.2381 -0.0132
 6445W        W49358  33.581   1.132  22.315  0.0396  0.0796 -0.2501
 6446W        W49359   5.428   3.965  18.212 -0.1566 -0.0415  0.0886
 6447W        W49360   3.713   5.785  17.380 -0.0462  0.0480  0.0505
 6448W        W49361  26.271   2.421  25.929  0.1867 -0.0911  0.2269
 6449W        W49362  34.455   1.698  22.861  0.0412  0.0180  0.0538
 6450W        W49363  22.067   6.028  29.359 -0.1430 -0.1150 -0.1295
 6451W        W49364   0.111   7.822  22.526  0.0691 -0.1489  0.2250
 6452W        W49365   0.151   9.352   1.001 -0.1085  0.1052 -0.1796
 6453W        W49366   1.474  11.718   0.177  0.0625 -0.2745  0.3036
 6454W        W49367  22.994   3.352  29.290 -0.0814 -0.0202 -0.1626
 6455W        W49368   0.401   0.445  26.611 -0.3701  0.1966 -0.3565
 6456W        W49369   2.301   2.027  28.153  0.0089  0.0576 -0.1431
 6457W        W49370   9.985  13.151  27.934  0.0329 -0.2950  0.0597
 6458W        W49371   0.555  21.675  26.892 -0.6186 -0.4495  0.0821
 6459W        W49372   1.984  11.527  24.044 -0.2765  0.0459 -0.0578
 6460W        W49373  27.817   4.682   1.020 -0.3043 -0.1481  0.1425
 6461W        W49374   0.656  15.394   0.674  0.2380 -0.0340 -0.0713
 6462W        W49375   1.064  11.430   0.499  0.2329  0.1650 -0.0953
 6463W        W49376   3.277   1.911  21.168  0.1577  0.1086 -0.2033
 6464W        W49377  28.317  11.048   0.996 -0.2474 -0.0765 -0.1253
 6465W        W49378  30.541  28.028  21.154  0.2549  0.0017 -0.0716
 6466W        W49379   6.489   3.793  28.940 -0.0831  0.0445  0.1309
 6467W        W49380   2.887  14.845   1.738  0.0840  0.1513  0.1110
 6468W        W49381  12.924   7.069  15.858  0.1772  0.1476 -0.0720
 6469W        W49382   2.453   5.788  24.132  0.1692  0.0940  0.1518
 6470W        W49383   0.200   6.629  29.512  0.2610 -0.0938  0.1489
 6471W        W49384  31.062  21.655  17.336  0.0840 -0.0155  0.1511
 6472W        W49385   0.857   7.761  21.135  0.1099 -0.0216  0.0439
 6473W        W49386  23.971  12.089  25.076 -0.0485  0.1844 -0.0528
 6474W        W49387  31.695   6.781   1.471  0.1850  0.0071  0.0864
 6475W        W49388  28.871   4.115  26.510  0.2969 -0.1856  0.0589
 6476W        W49389   7.387   2.915   3.730 -0.0671  0.0125  0.0969
 6477W        W49390  22.259   2.460  25.526 -0.2412  0.3968  0.0320
 6478W        W49391   7.187   0.493  26.468 -0.0461  0.0297 -0.0731
 6479W        W49392   6.677  17.329  25.170 -0.0169 -0.0714 -0.2253
 6480W        W49393  29.046  34.059  18.715 -0.0230 -0.1507 -0.1686
 6481W        W49394   9.924  30.244  26.131  0.2203 -0.0372  0.1526
 6482W        W49395  13.521  29.520  25.897  0.0878  0.2040  0.0149
 6483W        W49396  33.865  11.425  17.266 -0.1385  0.1107 -0.3737
 6484W        W49397   6.309   6.857  18.592 -0.0424 -0.3572  0.2771
 6485W        W49398  33.474  14.138  18.600 -0.0366  0.2691 -0.1761
 6486W        W49399  10.875   9.560   7.354 -0.2351 -0.2743  0.3037
 6487W        W49400  31.634   7.805  21.468 -0.0884 -0.1040  0.0806
 6488W        W49401  20.013  13.356  26.719 -0.2001  0.2418 -0.2054
 6489W        W49402   0.505  10.911  29.127 -0.1902 -0.0870 -0.1869
 6490W        W49403   1.648   8.544  25.572  0.3553 -0.2166 -0.0954
 6491W        W49404  31.186  15.505   0.485 -0.3604  0.2959  0.1551
 6492W        W49405   7.081  12.618   2.322 -0.2027  0.2025 -0.4789
 6493W        W49406   1.567  10.741  17.333  0.1999  0.1148  0.0259
 6494W        W49407  33.281  34.396  21.707 -0.2375  0.0283  0.0165
 6495W        W49408   7.965  11.420  16.888 -0.2351 -0.2041 -0.0124
 6496W        W49409   5.977   7.335  19.525  0.2702 -0.1093  0.1737
 6497W        W49410  30.871   0.951  26.895 -0.0010  0.3158  0.1849
 6498W        W49411   9.058   3.452  26.390 -0.0113 -0.1468 -0.2508
 6499W        W49412   5.659   0.341  18.481  0.2200 -0.0402 -0.0894
 6500W        W49413   3.134  10.336  25.549 -0.0571  0.0364 -0.0315
 6501W        W49414   8.635  22.274  15.447 -0.2650  0.3254 -0.1035
 6502W        W49415  32.921  10.966  19.104 -0.1548 -0.2393  0.0929
 6503W        W49416  12.308   7.926  28.020 -0.2437  0.1782  0.1422
 6504W        W49417   0.663  12.285  21.569 -0.2003  0.2073 -0.1886
 6505W        W49418   2.952   5.138   0.493 -0.1364 -0.3993 -0.0939
 6506W        W49419  10.058   7.766   2.071  0.0029  0.2370  0.0215
 6507W        W49420   9.186   9.506   4.030  0.1001  0.1019 -0.0970
 6508W        W49421  16.765   6.940  21.874 -0.1512 -0.2200 -0.0746
 6509W        W49422  33.555  31.100   1.454 -0.0570  0.1652 -0.2108
 6510W        W49423  28.322   7.331  22.784  0.1652 -0.1513 -0.0457
 6511W        W49424   1.336  30.292  19.012  0.1516  0.1733 -0.1841
 6512W        W49425   5.901   8.491  18.059  0.0916 -0.0181 -0.0800
 6513W        W49426  27.553   8.759  22.887  0.0107 -0.2916  0.1364
 6514W        W49427   8.434   5.677  20.980  0.3459  0.1986 -0.2652
 6515W        W49428  32.421  28.468  18.856 -0.2066  0.1288 -0.0162
 6516W        W49429  34.463   7.290  28.853  0.0426 -0.1353 -0.1178
 6517W        W49430   9.795   8.234   4.071 -0.2629  0.0980 -0.0038
 6518W        W49431   4.243   6.931  25.461  0.3062 -0.1337 -0.1828
 6519W        W49432   4.135   2.167  26.970  0.0756  0.0600  0.0663
 6520W        W49433  29.302   4.254  19.102  0.3517  0.3466 -0.2843
 6521W        W49434  30.564  14.959  17.798 -0.1080 -0.2066 -0.3986
 6522W        W49435   2.318   7.965  25.883 -0.1932 -0.4028 -0.3604
 6523W        W49436   6.796   7.605  27.567  0.0999  0.3336 -0.1346
 6524W        W49437  28.856  33.607  20.521  0.0007  0.4739 -0.1343
 6525W        W49438   1.979   9.824  21.535  0.0041  0.0589 -0.1383
 6526W        W49439   5.705  12.288  25.198  0.0222  0.0866  0.0002
 6527W        W49440   3.272  10.680  16.537 -0.0130  0.1860  0.1142
 6528W        W49441  32.407   7.098  27.439  0.0093  0.2120 -0.1426
 6529W        W49442   9.957   0.230   1.779  0.1340  0.0472 -0.1610
 6530W        W49443  29.304  31.595  18.579  0.1415  0.1533  0.0296
 6531W        W49444   0.845  32.652   5.758 -0.0279  0.0352  0.0914
 6532W        W49445  34.436  13.979  23.626  0.0113  0.1657 -0.1035
 6533W        W49446  33.031  15.093  29.128  0.0508 -0.0915  0.0857
 6534W        W49447   0.223  14.149  27.205  0.1374 -0.3409 -0.0800
 6535W        W49448   2.959   5.308  21.502 -0.0467 -0.0724 -0.1412
 6536W        W49449  34.224  13.181  24.126  0.1066 -0.0591 -0.0058
 6537W        W49450  33.634   3.473  17.072 -0.0919  0.2743 -0.0966
 6538W        W49451   2.947   8.313  18.376 -0.2605 -0.3521  0.0814
 6539W        W49452   5.214   2.855   1.257 -0.0577  0.1618 -0.1881
 6540W        W49453  22.833   6.253   6.298  0.0162  0.4344 -0.2544
 6541W        W49454   4.049  12.068   0.147 -0.0788 -0.2345  0.0126
 6542W        W49455  25.439   4.734   0.011  0.1973  0.1005  0.3360
 6543W        W49456  27.574  32.782  28.080  0.1614  0.0416 -0.0478
 6544W        W49457   3.873   9.570  29.257  0.0604 -0.0407 -0.1037
 6545W        W49458   5.293   8.738  25.804 -0.1525 -0.1699  0.0892
 6546W        W49459   1.572   6.298  16.333 -0.0367 -0.2060 -0.1835
 6547W        W49460  33.888   2.988  24.943  0.1389 -0.0719  0.1594
 6548W        W49461   8.001  10.309  22.679  0.2851 -0.1050  0.0922
 6549W        W49462   6.029   3.616  10.360 -0.0997  0.1120  0.1408
 6550W        W49463  33.801  31.770   2.483  0.0617 -0.0031 -0.0591
 6551W        W49464   3.168   6.979   3.053  0.1818  0.1606 -0.0100
 6552W        W49465  14.606  14.081  15.287  0.0145  0.1800  0.2688
 6553W        W49466   5.877   0.793  25.955 -0.1838 -0.0686  0.0898
 6554W        W49467   4.709   0.812   7.252 -0.0833 -0.1585 -0.1122
 6555W        W49468  10.673  34.406  28.350 -0.1093  0.1100 -0.0911
 6556W        W49469  23.996  19.312  18.588  0.0471  0.2501  0.4119
 6557W        W49470   1.307  11.552  16.918 -0.2332 -0.0926  0.1803
 6558W        W49471   7.833   2.212  21.900  0.1162 -0.0042 -0.2254
 6559W        W49472   9.565   5.108  22.794 -0.2612  0.2587  0.3060
 6560W        W49473  29.469   9.821  18.867  0.2388  0.5467 -0.2158
 6561W        W49474  11.601  14.912  25.528  0.1044 -0.1734 -0.0601
 6562W        W49475  14.607   7.738  20.513 -0.2150  0.0489  0.1215
 6563W        W49476   6.931   5.815  29.160  0.2114 -0.1314 -0.2300
 6564W        W49477  32.068   8.306  17.808 -0.0990 -0.0966 -0.0445
 6565W        W49478  31.426   5.331  22.698 -0.0082  0.0399  0.0268
 6566W        W49479  32.574   3.802  26.710  0.2040 -0.2759 -0.3271
 6567W        W49480   4.155   2.796   5.591 -0.0291 -0.2330  0.0692
 6568W        W49481  27.040   7.312  19.682 -0.0380 -0.4550 -0.1894
 6569W        W49482   5.540   4.518  23.851  0.0301  0.2218 -0.1056
 6570W        W49483   2.468   4.393  28.191 -0.1888  0.1974  0.0210
 6571W        W49484   0.642   1.891  20.115  0.1247  0.0164 -0.0696
 6572W        W49485   1.861  10.435   6.365 -0.0654  0.3306  0.4172
 6573W        W49486  32.030  28.104  26.905 -0.0608  0.1015  0.4008
 6574W        W49487   1.856   0.192   2.883  0.1228  0.1552  0.2261
 6575W        W49488   0.652  12.688  17.552  0.1706  0.0652 -0.0018
 6576W        W49489  26.266   9.757  25.776 -0.2151 -0.1433  0.0652
 6577W        W49490   1.254  20.251   0.410 -0.1634  0.1717  0.0708
 6578W        W49491   0.942   3.638  17.034  0.2034 -0.3971 -0.2544
 6579W        W49492   5.359   3.925  22.129 -0.0786  0.1385  0.0593
 6580W        W49493   2.627   3.941  25.174  0.1895 -0.0958  0.2534
 6581W        W49494   6.492   5.577  29.033 -0.1990  0.3180  0.2545
 6582W        W49495  33.779   9.603  25.212  0.3360  0.0545  0.0059
 6583W        W49496  34.216  14.382   0.133 -0.2302  0.1535 -0.0008
 6584W        W49497   1.832  11.384  27.510 -0.2843  0.0197 -0.0436
 6585W        W49498  29.669   7.772  21.061  0.1435 -0.1596 -0.5201
 6586W        W49499  15.639  11.916  25.561 -0.0419 -0.0456  0.2148
 6587W        W49500   3.734   4.228  25.489 -0.0895  0.2856  0.0643
 6588W        W49501   9.071   4.864  21.120  0.2580  0.1499  0.1298
 6589W        W49502  22.820  29.442   3.337  0.1891  0.1096  0.2647
 6590W        W49503   3.254   8.655  26.483  0.3229 -0.2311 -0.2546
 6591W        W49504   8.319   4.153   7.530  0.1112  0.1967  0.1381
 6592W        W49505   1.617  34.209  16.854  0.2503 -0.1731 -0.1362
 6593W        W49506   5.826   3.210  19.587  0.1606  0.2763  0.1701
 6594W        W49507   1.456  34.352   3.178  0.0440 -0.3620  0.0321
 6595W        W49508   7.686   6.020  17.187 -0.3204 -0.3416  0.0156
 6596W        W49509  13.427   3.573  17.728 -0.0689  0.0484  0.0905
 6597W        W49510   1.869   1.625  17.312  0.0614 -0.1854  0.0414
 6598W        W49511  10.121   4.854  29.582 -0.0372  0.1628  0.1120
 6599W        W49512   5.684   9.575  17.611  0.2424 -0.2153  0.1081
 6600W        W49513   3.484  33.689  27.708 -0.0469  0.2874 -0.2250
 6601W        W49514  23.447   5.617  24.549  0.2436 -0.1432 -0.0343
 6602W        W49515   5.365   4.268  24.336 -0.0273 -0.3543  0.1223
 6603W        W49516  20.753  12.626  21.801  0.2781 -0.0612 -0.0057
 6604W        W49517   1.426   9.142  17.540 -0.1840 -0.1307 -0.1317
 6605W        W49518  33.861   0.482  18.086 -0.3641  0.0571 -0.2553
 6606W        W49519  32.648   4.719  27.650 -0.0996  0.1296 -0.2972
 6607W        W49520   4.582   7.311  19.264  0.1606 -0.1061  0.0409
 6608W        W49521  23.325   4.353  26.677  0.1059 -0.2040  0.0575
 6609W        W49522   3.885  27.781  27.337  0.0126 -0.3101 -0.0342
 6610W        W49523  30.295   2.674  21.129  0.0982 -0.1988  0.1891
 6611W        W49524   5.320   2.991  24.907  0.0594 -0.2333 -0.1142
 6612W        W49525  32.954   3.862  19.543 -0.0536 -0.1013  0.0996
 6613W        W49526  32.598   8.179  26.301  0.0114  0.0173  0.1363
 6614W        W49527   8.586   3.145  28.377  0.2075 -0.2033 -0.0415
 6615W        W49528   9.556  11.201  23.197 -0.0703 -0.2949 -0.0219
 6616W        W49529  31.614   0.276  21.707 -0.0785 -0.1850  0.0614
 6617W        W49530  13.623   6.613  20.026 -0.0761  0.1958 -0.0985
 6618W        W49531   4.722   0.662  19.698 -0.1315  0.0730 -0.1652
 6619W        W49532  29.092  31.057   1.828  0.1389 -0.3430 -0.1371
 6620W        W49533   1.234  26.954  17.899 -0.1879  0.1696  0.1039
 6621W        W49534   0.768  13.847  17.941 -0.0338  0.1528 -0.1798
 6622W        W49535  31.231   6.128  20.789  0.0552 -0.0954  0.2700
 6623W        W49536   0.768   6.710  21.514 -0.3675  0.1258  0.2744
 6624W        W49537  31.954   4.036  20.089  0.2929  0.1093  0.2706
 6625W        W49538   1.832   0.365  29.005 -0.0836 -0.1451  0.0408
 6626W        W49539   3.210  29.545  22.574 -0.1645 -0.2090 -0.1276
 6627W        W49540  32.393   8.974  27.646  0.2502 -0.0582 -0.0971
 6628W        W49541  23.280   1.964  24.327  0.1612  0.0225  0.0029
 6629W        W49542  11.244  31.402  26.100 -0.2163  0.0240 -0.0152
 6630W        W49543   9.810   7.549  28.022 -0.0903 -0.1301  0.1334
 6631W        W49544   6.904  34.199  21.819 -0.1375 -0.1167  0.1363
 6632W        W49545   1.167   4.978   7.160  0.0349 -0.3304 -0.0403
 6633W        W49546  24.318   7.536  27.607 -0.1308  0.0543 -0.1488
 6634W        W49547  31.150  13.033   2.968 -0.1094 -0.2828  0.1267
 6635W        W49548   3.790   0.721  20.542 -0.0028  0.1599  0.0962
 6636W        W49549  24.072  10.148  22.110  0.0208 -0.0466 -0.2464
 6637W        W49550   1.294  28.306  18.135  0.0796  0.2016 -0.0333
 6638W        W49551   0.392   5.886  16.479  0.4386  0.0191  0.0545
 6639W        W49552   9.230   6.781  26.923 -0.0421  0.0392  0.0762
 6640W        W49553   4.014   8.858  24.428 -0.1693  0.3991 -0.1375
 6641W        W49554  30.120   1.157  22.619  0.2058  0.0419 -0.3131
 6642W        W49555   9.456   5.411  22.371  0.4014  0.2570  0.2664
 6643W        W49556   5.920  31.830  26.272 -0.3838  0.1507 -0.0810
 6644W        W49557   4.958  33.979  21.105  0.2487  0.2484 -0.2269
 6645W        W49558  31.142   3.349  23.214 -0.0140 -0.3036  0.0376
 6646W        W49559   9.216  15.428  20.423 -0.0052  0.0450 -0.0490
 6647W        W49560  33.663   7.937  21.167 -0.0129 -0.0052 -0.0297
 6648W        W49561   8.100   3.571  20.862 -0.2852  0.0400  0.1387
 6649W        W49562  33.713   0.585  22.075 -0.0051 -0.4197  0.4193
 6650W        W49563   4.132   6.191   3.650 -0.2061  0.0029  0.4568
 6651W        W49564  30.325  11.525  27.593 -0.1738  0.0192  0.2022
 6652W        W49565  34.239  33.578  23.750  0.3372  0.1612  0.0156
 6653W        W49566  29.619   9.058  28.401 -0.1063 -0.1449 -0.0681
 6654W        W49567  16.166   4.936  15.769 -0.2226 -0.0057  0.0689
 6655W        W49568  27.973  30.113  20.521 -0.0184  0.0243  0.0294
 6656W        W49569  12.392  30.987  29.115  0.0936 -0.0664  0.0532
 6657W        W49570  31.206   4.920  18.081 -0.2766  0.1033  0.0451
 6658W        W49571  33.225   2.154  21.465 -0.2289  0.1423  0.1396
 6659W        W49572  20.053  22.875  29.393 -0.3650  0.0255  0.1749
 6660W        W49573  33.866  10.766   3.463 -0.2734  0.2000 -0.0076
 6661W        W49574   5.865   5.366  20.205  0.0294 -0.0393 -0.0144
 6662W        W49575  15.265   2.876  16.412 -0.1203  0.1070  0.1376
 6663W        W49576   6.233  10.972  25.689 -0.0797  0.2522 -0.0998
 6664W        W49577  12.924   4.204  23.676  0.1054  0.1401  0.3052
 6665W        W49578   5.400  33.960   9.703  0.1005  0.1214  0.1958
 6666W        W49579   1.037   4.077   4.220 -0.0958  0.0521  0.5048
 6667W        W49580   7.466   2.871  27.539 -0.0474 -0.0941 -0.0823
 6668W        W49581   4.638  32.074  25.083  0.0111 -0.1315 -0.1707
 6669W        W49582  33.340   4.888  25.343 -0.1564  0.2730 -0.1198
 6670W        W49583  15.609  15.527  24.387 -0.0300 -0.0787 -0.1223
 6671W        W49584   4.866  10.706  18.483 -0.1164  0.1709  0.0836
 6672W        W49585  21.103  32.179  20.480 -0.0829 -0.0750 -0.1702
 6673W        W49586  33.652   2.032  24.966 -0.0935  0.2751 -0.0345
 6674W        W49587  16.342  32.589  24.474 -0.3602  0.1552  0.2486
 6675W        W49588  27.538  11.351  27.039 -0.1718 -0.1744  0.1304
 6676W        W49589  10.825   7.353  25.051 -0.0046 -0.0440 -0.0800
 6677W        W49590  33.964  11.708  29.236 -0.1214 -0.0825 -0.0205
 6678W        W49591   5.496   2.572  27.288 -0.3499 -0.2107  0.1376
 6679W        W49592   1.935   1.992  20.538  0.2778 -0.0665 -0.1926
 6680W        W49593  10.233   5.720  20.756  0.0571  0.3147  0.2027
 6681W        W49594  15.019   5.245  23.759 -0.2050  0.1585  0.0460
 6682W        W49595  13.853  27.703  27.248  0.1439 -0.1474 -0.0548
 6683W        W49596   3.741   2.539  17.782 -0.1134  0.3159 -0.1608
 6684W        W49597  30.676   2.391  21.433 -0.0200  0.2573  0.0540
 6685W        W49598  29.813   5.804  21.652  0.3369 -0.2632 -0.1390
 6686W        W49599   4.862  15.099  24.280 -0.0229  0.3699 -0.2487
 6687W        W49600  27.924   4.037  24.036 -0.3353  0.3020  0.0650
 6688W        W49601   4.043  15.843  19.057  0.2919 -0.2965 -0.0846
 6689W        W49602  18.092  12.033  21.888 -0.0923 -0.1153  0.1270
 6690W        W49603  33.500  14.676  22.891 -0.0886 -0.1299 -0.1368
 6691W        W49604  33.575   4.888  27.455 -0.0287 -0.1518  0.0205
 6692W        W49605  14.698  33.699  22.523  0.0868  0.0565  0.2133
 6693W        W49606   7.923  15.851  19.674 -0.1689  0.0787 -0.2798
 6694W        W49607  29.913   7.675  10.362  0.0817 -0.1714  0.3373
 6695W        W49608   5.833  13.615  20.051 -0.2803  0.0733 -0.1387
 6696W        W49609  12.754   4.749  25.097 -0.0651  0.0685 -0.3329
 6697W        W49610  11.034   2.264  26.420 -0.3100  0.0837  0.2925
 6698W        W49611   2.886   1.850  19.171 -0.1598 -0.1171 -0.2400
 6699W        W49612   3.841   2.931  27.514  0.0209  0.3978 -0.1917
 6700W        W49613   5.750  28.417  21.399 -0.2711 -0.0749 -0.1437
 6701W        W49614  31.317  13.977  20.481 -0.1251  0.1380 -0.4094
 6702W        W49615  11.270   5.478  25.938  0.1686  0.0429  0.1903
 6703W        W49616   8.961   8.398  24.478  0.0427 -0.0295 -0.0469
 6704W        W49617   5.175   2.394  23.940 -0.1798  0.1375  0.2831
 6705W        W49618  33.511   3.783  17.873  0.0256  0.1786 -0.0859
 6706W        W49619  34.363   8.463  18.759  0.2113  0.0267  0.0259
 6707W        W49620   8.691  10.936  17.936  0.0502  0.3231  0.1772
 6708W        W49621  15.439  11.487  17.554  0.0005 -0.1049  0.0525
 6709W        W49622  33.457  10.227  20.279 -0.3127 -0.0674  0.1042
 6710W        W49623  13.146   2.093  17.107 -0.2754  0.1998  0.1527
 6711W        W49624  25.498  10.264  27.010  0.3499  0.3241  0.1476
 6712W        W49625   0.260  33.044  27.765  0.0157 -0.1320 -0.0762
 6713W        W49626  33.529   5.094  24.489  0.0057  0.5967 -0.1434
 6714W        W49627  29.063   7.190  14.970  0.1913 -0.0080 -0.0079
 6715W        W49628   2.563   4.872  24.826 -0.6025 -0.2068 -0.1405
 6716W        W49629  13.646  27.767  27.877 -0.2007 -0.3155  0.3602
 6717W        W49630  25.593   1.275   2.354 -0.1469 -0.2304 -0.0469
 6718W        W49631  30.177   4.061  15.954 -0.0851  0.3613  0.0159
 6719W        W49632   4.237   9.016  24.842  0.0758 -0.3651  0.1248
 6720W        W49633   8.138   1.327  17.359 -0.0434  0.0624  0.1319
 6721W        W49634  30.626   4.261  25.730 -0.1890 -0.0445 -0.0990
 6722W        W49635   4.689  31.077  22.419 -0.0060 -0.0631  0.0064
 6723W        W49636  34.121  11.833  18.422 -0.0922 -0.0627  0.2841
 6724W        W49637   0.537   1.340  24.083  0.0950  0.0490 -0.0231
 6725W        W49638  27.187   6.780   2.611 -0.0890  0.0339  0.1099
 6726W        W49639   4.413  34.372  28.709  0.1694 -0.1092 -0.1655
 6727W        W49640  28.516  10.771  20.150  0.1166  0.0210 -0.0774
 6728W        W49641  32.936   8.075  16.726  0.0526 -0.1795 -0.3083
 6729W        W49642  28.049  12.030  26.631 -0.1259 -0.1550 -0.2421
 6730W        W49643  17.240   4.940  21.643 -0.1562  0.0085  0.2193
 6731W        W49644  29.007   0.982  17.289  0.0041 -0.0939  0.2607
 6732W        W49645   2.954  33.109   0.990  0.0051 -0.1205 -0.0926
 6733W        W49646   5.369  30.330  26.789 -0.1722 -0.1076  0.1248
 6734W        W49647   7.761  11.944  20.071 -0.2906 -0.3127 -0.1565
 6735W        W49648  26.492   6.084  23.485  0.2431  0.0400  0.1479
 6736W        W49649  10.481  32.917   6.337 -0.0371 -0.1035  0.3661
 6737W        W49650   2.845  10.885  27.299 -0.2615  0.2282 -0.0540
 6738W        W49651  33.594   7.264  16.994 -0.4276  0.2966  0.1567
 6739W        W49652   9.592  11.584  17.895  0.0799  0.1003  0.2134
 6740W        W49653   2.487  11.419  22.390 -0.0216 -0.0082  0.1153
 6741W        W49654  32.688   2.663  24.293 -0.1403 -0.0001 -0.2822
 6742W        W49655   3.137  12.387  26.614  0.0897  0.3314  0.1333
 6743W        W49656   9.173  10.470  26.595  0.0870 -0.2450 -0.0327
 6744W        W49657  27.469  34.032  25.352  0.6230 -0.2290  0.0146
 6745W        W49658  24.396  33.085  23.349 -0.2471 -0.2333 -0.2312
 6746W        W49659  16.846  11.753   5.819  0.0268 -0.1851 -0.0657
 6747W        W49660   1.864  31.008  26.369 -0.4072  0.0638  0.2288
 6748W        W49661   9.970  11.998  25.031 -0.1326 -0.0415  0.1558
 6749W        W49662  28.147  31.200  26.156  0.1567  0.1780  0.0431
 6750W        W49663   2.917   2.611  11.495 -0.0722  0.0288 -0.2097
 6751W        W49664  33.406  30.971  25.987  0.3948  0.1801  0.0964
 6752W        W49665   0.357  34.478  18.285 -0.0521  0.0060 -0.0304
 6753W        W49666   2.582  11.587  25.534  0.2013  0.2800 -0.1613
 6754W        W49667   1.608  30.688  28.534  0.2489  0.2916  0.1202
 6755W        W49668   0.889   4.865   7.540  0.0045 -0.1226 -0.2196
 6756W        W49669   0.545   5.667   2.180  0.0884  0.2227 -0.3577
 6757W        W49670   3.124  15.853  20.927  0.1671  0.2918  0.2485
 6758W        W49671  28.859   4.943  23.695 -0.1150  0.1284 -0.0239
 6759W        W49672  31.736   7.721  23.006 -0.2063 -0.0938 -0.0134
 6760W        W49673   3.825  32.139  26.643 -0.3445  0.0432  0.0013
 6761W        W49674  29.906  11.567  27.836 -0.0528 -0.3213 -0.0304
 6762W        W49675  30.147   5.575  21.384  0.0875  0.2303 -0.5583
 6763W        W49676   1.642   1.314  25.683 -0.3149 -0.1689 -0.1178
 6764W        W49677  33.392   8.515  26.843  0.3742 -0.2151 -0.0281
 6765W        W49678  30.423   8.895  28.035  0.2269  0.0797 -0.1256
 6766W        W49679   2.540   3.601  20.134 -0.1796 -0.3599  0.2969
 6767W        W49680  33.452   1.902  17.475  0.0428  0.0977 -0.0439
 6768W        W49681   3.138   3.791   1.205 -0.0982 -0.0500  0.0263
 6769W        W49682  24.658   9.222  21.211 -0.3410  0.1873  0.0150
 6770W        W49683   5.621   3.226  28.244 -0.0996  0.2155  0.1533
 6771W        W49684   5.117  12.534  18.869  0.0628 -0.0158 -0.4700
 6772W        W49685   4.127   4.444  18.223  0.0377  0.1570 -0.1309
 6773W        W49686  32.964   0.269   5.805 -0.1721 -0.2050 -0.0596
 6774W        W49687  29.143   8.297  24.954  0.0519  0.1759  0.3163
 6775W        W49688  34.062  33.127  29.746  0.4107  0.0343  0.0916
 6776W        W49689   9.688   2.679  26.222 -0.2771 -0.1346 -0.0842
 6777W        W49690   0.646   7.320  16.473 -0.4966  0.1099 -0.0470
 6778W        W49691  21.561  31.870  27.598 -0.1378 -0.0771 -0.0911
 6779W        W49692   7.179  33.126  23.399 -0.1563  0.0962 -0.2026
 6780W        W49693  30.839   3.889  26.102  0.1961  0.1094  0.0199
 6781W        W49694   5.459  30.327  25.772  0.0297 -0.0025  0.2132
 6782W        W49695   3.767  23.468   2.201  0.0111  0.5769 -0.4088
 6783W        W49696   3.248  34.470  22.203  0.1935 -0.0580 -0.1322
 6784W        W49697  12.968  34.221  25.133 -0.2742  0.4196  0.2969
 6785W        W49698   5.749   0.322  17.975  0.4717  0.3743  0.0469
 6786W        W49699  31.674   2.181  17.751 -0.0764  0.1657  0.0214
 6787W        W49700  11.383  10.728  28.100  0.1519  0.0242 -0.2085
 6788W        W49701   1.226   6.248  18.923 -0.1285  0.2118 -0.1247
 6789W        W49702  33.450   6.702  28.223  0.2242  0.0923  0.3558
 6790W        W49703   7.486   8.634  20.720 -0.0183  0.2277 -0.1010
 6791W        W49704  25.832  13.231  28.306  0.1093 -0.0571 -0.0869
 6792W        W49705  31.066   8.401  27.408  0.0423 -0.0918  0.0075
 6793W        W49706   0.738   0.370   3.102 -0.0597  0.2357 -0.1927
 6794W        W49707  14.538  19.167  22.130 -0.3514 -0.1033 -0.0276
 6795W        W49708   8.908   4.750  25.951 -0.0763  0.1106 -0.2066
 6796W        W49709  10.697   7.234   8.224  0.1343  0.2177 -0.0667
 6797W        W49710  28.093  11.405  25.729  0.1513  0.1191  0.0827
 6798W        W49711   7.814  12.588  17.592  0.0147  0.0478 -0.1781
 6799W        W49712   1.971   8.621  25.997  0.0499 -0.0421  0.0496
 6800W        W49713   4.926   0.330  23.047 -0.0726  0.0588  0.0160
 6801W        W49714   4.770  29.596  19.334 -0.0068  0.2107  0.1092
 6802W        W49715   9.588   5.493  19.068  0.5027 -0.0854 -0.2660
 6803W        W49716   8.435  12.074   4.857  0.0099 -0.2073  0.0872
 6804W        W49717   0.307   3.719  26.824 -0.0283  0.2093 -0.1439
 6805W        W49718  34.157   4.270  16.847 -0.2693  0.1257  0.0188
 6806W        W49719  33.832   7.842  29.315  0.3414 -0.0330  0.1853
 6807W        W49720  12.775   2.969  22.774  0.1352  0.1068 -0.2730
 6808W        W49721  31.735  16.716  14.430  0.0153  0.1506  0.2559
 6809W        W49722   0.234   0.767  19.467  0.0254  0.0402 -0.1434
 6810W        W49723   5.995  10.265  24.962 -0.1800 -0.1741  0.2985
 6811W        W49724   7.073   6.020  24.077  0.2959 -0.2374  0.0412
 6812W        W49725  32.337   9.121  22.453  0.2906  0.1327 -0.0371
 6813W        W49726   7.017  33.082  29.207  0.0048 -0.4053 -0.1112
 6814W        W49727   0.437  16.918   3.162  0.0261  0.1581 -0.2755
 6815W        W49728  33.887   2.814   7.103  0.0771 -0.3808  0.2319
 6816W        W49729   7.463  31.135  28.180  0.1907  0.0091  0.2705
 6817W        W49730   4.744   4.673   0.060 -0.3407 -0.0242 -0.0318
 6818W        W49731  16.154   8.013  26.363 -0.1189  0.3937 -0.3834
 6819W        W49732  33.824   5.380  27.440  0.0824 -0.2857  0.1660
 6820W        W49733   6.591   0.423  28.829 -0.0106 -0.0510 -0.2256
 6821W        W49734  32.709  10.288  23.480 -0.0642  0.0330 -0.2402
 6822W        W49735   3.215   0.357   0.739  0.3772  0.0557 -0.0177
 6823W        W49736   4.400  11.794  22.282  0.0432  0.2203  0.1231
 6824W        W49737  34.017   0.347  18.769  0.3811  0.0876 -0.0605
 6825W        W49738  32.293  14.241  26.879 -0.2183  0.0566  0.0436
 6826W        W49739   8.115  11.597  19.863 -0.0310  0.0904 -0.0139
 6827W        W49740  33.457   2.881   0.807 -0.2340  0.0327  0.0156
 6828W        W49741  13.643  17.302  15.007  0.0853 -0.1712 -0.0378
 6829W        W49742  34.429   9.808  28.705 -0.2531 -0.3191 -0.0662
 6830W        W49743   1.379  14.253  19.579  0.1847  0.1309  0.0337
 6831W        W49744  30.623  30.900   3.242  0.1405 -0.1935 -0.1803
 6832W        W49745  32.951   4.345  20.068  0.2128  0.3614  0.0910
 6833W        W49746  32.990   4.246  18.584  0.0298 -0.1455 -0.1046
 6834W        W49747  33.897  12.457   1.149  0.0129 -0.3697  0.2455
 6835W        W49748   0.630   6.886  21.021 -0.3166  0.1474  0.0013
 6836W        W49749   6.232  17.713   4.626 -0.0544 -0.4999 -0.0270
 6837W        W49750   7.095   7.219  18.681  0.1646 -0.2837  0.3345
 6838W        W49751  21.255   8.041   3.706  0.0639 -0.0190  0.0428
 6839W        W49752  32.532   3.132  25.568  0.1434 -0.1208  0.3713
 6840W        W49753  24.984  12.465  19.468  0.0915 -0.0010 -0.0390
 6841W        W49754   3.451   3.974  25.116  0.0313 -0.2354  0.3073
 6842W        W49755   2.687   0.564   3.271 -0.2153  0.0833 -0.2513
 6843W        W49756   3.797   6.026  29.688  0.0485  0.1709  0.0499
 6844W        W49757   1.026   9.614   5.274  0.0397  0.1055  0.0517
 6845W        W49758  31.929  10.273  15.987 -0.3238  0.1509 -0.0289
 6846W        W49759  26.971  33.939   5.324 -0.1299 -0.0511  0.2874
 6847W        W49760  29.046   7.698  24.816 -0.0837 -0.0639  0.2340
 6848W        W49761   2.752   1.741  27.952 -0.0740  0.3100 -0.2566
 6849W        W49762   0.351   1.977   1.555  0.1711 -0.0499  0.2061
 6850W        W49763  25.515   7.042  23.050 -0.0923 -0.0944 -0.0648
 6851W        W49764  12.767   5.682  24.294 -0.2359  0.1690  0.1040
 6852W        W49765   1.010  25.572  25.922  0.0091  0.1147  0.0833
 6853W        W49766  29.472  15.128  26.267 -0.0217  0.1151  0.1520
 6854W        W49767   0.736   7.397   2.005  0.1549 -0.0713  0.0645
 6855W        W49768  32.480  14.315  20.153  0.3394 -0.0872 -0.0221
 6856W        W49769   1.287   8.465   1.497  0.2939  0.1867 -0.2910
 6857W        W49770   1.423   9.303  18.259 -0.3419 -0.4037 -0.0199
 6858W        W49771  12.625  33.081  24.811 -0.1831 -0.2618 -0.0489
 6859W        W49772  31.776   0.630  24.767  0.1974 -0.2751 -0.0687
 6860W        W49773  33.263   1.529  21.393 -0.1771 -0.2591 -0.1623
 6861W        W49774  30.613  12.889  18.089 -0.2155  0.0582  0.0357
 6862W        W49775   4.462  13.970  22.056  0.1072  0.0683 -0.3742
 6863W        W49776   2.967   5.463   2.531 -0.0226 -0.1606 -0.1985
 6864W        W49777  34.443   6.875  26.972  0.0601 -0.0932 -0.0175
 6865W        W49778  32.778  20.582  21.469 -0.2239 -0.0670 -0.0257
 6866W        W49779  29.969   4.697  22.226  0.3405 -0.0673  0.0434
 6867W        W49780  32.118  12.164  28.534 -0.0315  0.0321 -0.0736
 6868W        W49781   7.766  10.657   1.200 -0.0066  0.2291  0.1875
 6869W        W49782  24.802   9.095  28.947  0.2381  0.2659 -0.0294
 6870W        W49783   4.090  32.640  19.720 -0.2225  0.3167 -0.0679
 6871W        W49784   6.745  17.673  13.231 -0.2366 -0.0823  0.0285
 6872W        W49785   6.535   1.719  28.964 -0.1221  0.0501 -0.0245
 6873W        W49786  25.828  20.407   0.359  0.1559 -0.1447 -0.0792
 6874W        W49787   4.797   6.625  21.507  0.2736 -0.1714  0.1780
 6875W        W49788  28.807   7.079   4.513 -0.1312  0.2696  0.2504
 6876W        W49789  28.011  18.307  21.434  0.0630 -0.0798 -0.0815
 6877W        W49790  34.116  34.367  22.092 -0.0006 -0.0883  0.2781
 6878W        W49791  30.828  30.636   2.857  0.2159  0.0179 -0.1748
 6879W        W49792  11.041   7.901  24.842 -0.2532 -0.0443  0.2302
 6880W        W49793  12.736   5.817  27.284  0.0849  0.2985  0.3822
 6881W        W49794  34.455  32.467  24.385 -0.2366 -0.0606 -0.2253
 6882W        W49795  23.166   9.874   1.712  0.0405  0.0458  0.1403
 6883W        W49796  13.228  13.899  21.938 -0.1883 -0.1679  0.0210
 6884W        W49797   6.379  29.057  10.918  0.2024 -0.1950  0.3956
 6885W        W49798  17.459   2.012   2.762 -0.2689  0.0446 -0.0818
 6886W        W49799  33.888   3.775  29.704  0.0414 -0.1252 -0.2754
 6887W        W49800  33.863  10.348   1.503  0.3310  0.2025 -0.0119
 6888W        W49801   3.199  14.421  26.392 -0.4070 -0.1682 -0.0664
 6889W        W49802   0.040   7.430  17.676 -0.2090  0.0631 -0.2831
 6890W        W49803   9.531   5.831  21.392 -0.1276 -0.1473 -0.2531
 6891W        W49804   7.397   1.302   5.790 -0.1436  0.1942 -0.0028
 6892W        W49805   0.808  15.646   8.333 -0.3255  0.1241  0.2887
 6893W        W49806  34.074   2.696  23.277  0.1730 -0.0947 -0.4069
 6894W        W49807  21.341   1.154   0.773  0.1870 -0.1338  0.1007
 6895W        W49808  10.542  10.449   1.380  0.1327 -0.1243  0.1245
 6896W        W49809  28.762   3.724   0.700 -0.1378 -0.2965 -0.0298
 6897W        W49810  34.454   6.540  19.310  0.2033  0.0703 -0.1101
 6898W        W49811   6.155  13.255   8.663 -0.0837 -0.2546 -0.2171
 6899W        W49812   3.029   9.407  20.707 -0.2340 -0.2152  0.0305
 6900W        W49813  32.974  17.812   7.107 -0.1295  0.2828  0.1518
 6901W        W49814   6.098   6.431  10.366  0.0550  0.0047 -0.2642
 6902W        W49815  17.836  14.018   1.291 -0.1160  0.0379 -0.2582
 6903W        W49816   8.057  17.618  17.546 -0.1920 -0.0166 -0.1380
 6904W        W49817  28.150  33.831   1.106  0.1435 -0.1034 -0.0300
 6905W        W49818  28.236  10.965   4.580  0.0026 -0.0100 -0.1023
 6906W        W49819  22.092  12.752   0.413 -0.1770  0.2895 -0.1946
 6907W        W49820   3.031  11.069  26.765 -0.0803 -0.2682  0.0432
 6908W        W49821   2.601   2.770  20.962  0.0896 -0.3569 -0.0505
 6909W        W49822  30.490   7.427   1.127 -0.0637  0.3142  0.1219
 6910W        W49823  31.454   3.079  21.486 -0.2217 -0.0620  0.0508
 6911W        W49824   1.542   9.137  28.401  0.1206  0.4300 -0.1044
 6912W        W49825   0.413   6.712  23.609  0.0499 -0.2141  0.0377
 6913W        W49826   1.633  14.145   3.726  0.0166  0.1422 -0.0130
 6914W        W49827  18.233   2.985   3.053 -0.0050  0.3445 -0.2421
 6915W        W49828   0.592   7.632   2.614 -0.0906  0.0601  0.1698
 6916W        W49829   4.294   5.729  28.452  0.0629  0.1691  0.1658
 6917W        W49830  33.304  26.443  29.778  0.0542  0.4267 -0.2550
 6918W        W49831   0.888   5.796   9.779 -0.1285 -0.2092  0.2464
 6919W        W49832   0.617  10.427  29.435  0.2501 -0.2847 -0.2681
 6920W        W49833   0.289   9.756  22.535 -0.2303 -0.0984 -0.2110
 6921W        W49834   2.201  17.069  27.582 -0.1378 -0.0015 -0.0746
 6922W        W49835  26.203   0.473  27.208 -0.2024  0.1961 -0.2369
 6923W        W49836  11.954  33.151  27.144  0.2791  0.4259 -0.0446
 6924W        W49837   0.705   1.804  16.063 -0.1130 -0.0091  0.1710
 6925W        W49838  15.985   5.530  18.232 -0.1077 -0.0975 -0.1295
 6926W        W49839   8.995  10.344  10.868  0.0565  0.0206 -0.0313
 6927W        W49840   7.469  13.847  27.360  0.1512  0.3314 -0.1150
 6928W        W49841  28.904   7.336   1.548 -0.0231  0.0850 -0.1053
 6929W        W49842   1.521  34.384  27.899 -0.2287  0.2000 -0.1409
 6930W        W49843   2.912  16.187   0.593 -0.4099  0.1070  0.0066
 6931W        W49844   3.363   7.250  22.526  0.1123  0.1018  0.0892
 6932W        W49845  25.446   1.250  23.600  0.0976  0.0503 -0.0240
 6933W        W49846  11.663   4.056   1.562  0.2864 -0.3226  0.3836
 6934W        W49847   3.156   2.911  27.764  0.1684 -0.1509  0.0822
 6935W        W49848  33.312   1.192   4.324  0.0924  0.0273 -0.0398
 6936W        W49849  14.786   1.720   3.851  0.1488 -0.0683 -0.0523
 6937W        W49850  30.515  12.538  26.687 -0.3946 -0.1946 -0.2254
 6938W        W49851  11.709  16.347  23.368  0.0571  0.0986 -0.0597
 6939W        W49852  12.277   3.625  26.771  0.0736 -0.2198 -0.1269
 6940W        W49853   5.638   2.744  18.538  0.0310 -0.0633  0.0935
 6941W        W49854  29.334   5.802   3.479 -0.0226 -0.0066  0.0034
 6942W        W49855   8.401   1.218  23.892  0.5461  0.0528 -0.0196
 6943W        W49856   3.208  14.903   3.071  0.1787 -0.2815 -0.0946
 6944W        W49857   7.557   8.093  26.431  0.3134 -0.2847  0.2746
 6945W        W49858  28.302   7.247   8.671  0.1713 -0.1871 -0.4177
 6946W        W49859  32.801   7.467   9.793 -0.1305 -0.1107 -0.0260
 6947W        W49860   5.918   8.741   4.020  0.1361  0.0019  0.0871
 6948W        W49861  23.176   1.803   6.833 -0.0659 -0.3298  0.0788
 6949W        W49862   1.019   4.982  29.232  0.0720 -0.0709  0.0416
 6950W        W49863   8.618   1.212  25.872 -0.1698 -0.0112  0.1108
 6951W        W49864   4.514   8.307   5.485 -0.1220  0.1424 -0.0236
 6952W        W49865  30.896   6.397  18.704 -0.0651  0.2843  0.0497
 6953W        W49866   7.108  12.413  20.372  0.0966 -0.0142  0.0487
 6954W        W49867   4.595  15.237  22.010  0.2691 -0.0590 -0.1144
 6955W        W49868   6.214   4.232  18.639 -0.1750  0.0919  0.1124
 6956W        W49869  27.717   4.766   0.308 -0.1140  0.1696  0.1092
 6957W        W49870   1.283   5.477  12.326 -0.1494 -0.1238 -0.0716
 6958W        W49871   8.094   3.816  26.453  0.0758  0.1238 -0.2312
 6959W        W49872  33.581   6.077  17.847 -0.3523 -0.2050  0.3467
 6960W        W49873  16.054   0.623   8.482 -0.1581  0.0165 -0.1553
 6961W        W49874  11.907  14.596  28.971  0.0219  0.2789 -0.0177
 6962W        W49875   4.673  16.894   2.754  0.0730  0.1088 -0.1119
 6963W        W49876   4.478   0.714  21.020  0.0263  0.0329  0.0508
 6964W        W49877   3.191   2.092  27.679  0.2685 -0.0078  0.1518
 6965W        W49878  33.960   3.610   8.162 -0.0997  0.1158 -0.0707
 6966W        W49879   2.833  15.117   0.170 -0.0107 -0.1774  0.1293
 6967W        W49880   8.524   4.314  27.034 -0.0178  0.0665 -0.1344
 6968W        W49881   0.452  12.416  24.987 -0.0413 -0.0337  0.1455
 6969W        W49882   0.228  32.278   5.422 -0.0061  0.0439  0.1174
 6970W        W49883  31.159   9.462  23.048 -0.1384  0.0688 -0.1650
 6971W        W49884   5.113   9.261   4.294  0.1336  0.5306 -0.0666
 6972W        W49885  28.513   9.309  26.199  0.0819  0.2958 -0.1784
 6973W        W49886  30.337  29.341   8.806  0.2625 -0.0803  0.1119
 6974W        W49887  33.992   3.146  20.688  0.1138 -0.0760 -0.0789
 6975W        W49888  27.590   6.431  24.252  0.0535  0.2012  0.2710
 6976W        W49889  17.245  10.135  28.351  0.0603 -0.0836 -0.0098
 6977W        W49890  26.489  23.084  29.367  0.0148 -0.1920 -0.0403
 6978W        W49891   5.812   1.337   3.610  0.1867  0.0971  0.0407
 6979W        W49892  28.392   4.474   0.648  0.2259 -0.2439 -0.0002
 6980W        W49893   4.736   2.728   1.167  0.0340  0.0561 -0.0634
 6981W        W49894   5.409   4.872  22.703  0.0025 -0.2333 -0.0746
 6982W        W49895   2.527   3.662  29.083  0.0108 -0.0858 -0.0768
 6983W        W49896   2.099  33.107  25.838 -0.2369 -0.0243  0.2169
 6984W        W49897  32.165  12.161  25.199  0.0233 -0.1374  0.0984
 6985W        W49898  32.049  14.339   0.276 -0.0744 -0.2336  0.2461
 6986W        W49899  10.373   6.578  24.685 -0.0896 -0.0610  0.2454
 6987W        W49900   4.659   7.673  27.110 -0.0185  0.0723  0.0176
 6988W        W49901  32.411  24.383   5.808 -0.1916 -0.3791  0.3858
 6989W        W49902  33.860   0.495  21.541  0.0630 -0.2046 -0.1069
 6990W        W49903  32.302   3.415  17.500 -0.1606  0.1605  0.2000
 6991W        W49904  30.537   4.249   2.496 -0.0881 -0.0250 -0.1793
 6992W        W49905   5.598  31.192  22.416 -0.3184  0.0552  0.0092
 6993W        W49906   7.352  33.747  28.710 -0.2436  0.1635  0.4146
 6994W        W49907   6.343  30.700  17.425 -0.0243 -0.2951  0.0091
 6995W        W49908  32.693   7.096  26.223  0.1199 -0.1111  0.1380
 6996W        W49909  10.026  10.462  29.460 -0.1807  0.1440  0.0611
 6997W        W49910  33.010   8.033   2.049  0.5686  0.1238 -0.3398
 6998W        W49911   4.190  21.042  27.304 -0.1934 -0.2057  0.3125
 6999W        W49912   7.840   5.617  27.378 -0.0068  0.1598 -0.1090
 7000W        W49913   5.596   5.461  23.925  0.3393 -0.0384  0.1986
 7001W        W49914  32.005   8.283  19.818  0.1037 -0.1261 -0.2027
 7002W        W49915   6.845   1.695   1.654  0.3738  0.0121 -0.4040
 7003W        W49916   2.039   4.455  23.272 -0.0329  0.0186  0.4563
 7004W        W49917   1.660  12.511  19.628  0.0085 -0.0226 -0.1810
 7005W        W49918  27.478   6.252   3.746  0.1162  0.0629 -0.0426
 7006W        W49919  28.864  13.136  26.250 -0.1910 -0.1754 -0.0356
 7007W        W49920  33.426   9.725  20.045  0.0318 -0.0768  0.2680
 7008W        W49921  29.797   2.388  25.142  0.0572 -0.1357 -0.1455
 7009W        W49922  27.173   6.936  13.834  0.1541 -0.2841 -0.0564
 7010W        W49923   8.973   0.385  27.318 -0.1808 -0.0370 -0.0877
 7011W        W49924  20.356   1.712  23.302  0.1310 -0.4382  0.1184
 7012W        W49925   2.517  12.891  25.423  0.1139 -0.0033 -0.1393
 7013W        W49926  29.364  19.351   1.234 -0.5168 -0.3100 -0.2916
 7014W        W49927   3.342   9.014  27.004 -0.0466  0.3037 -0.1770
 7015W        W49928  26.425  19.808  28.540 -0.3536  0.4337 -0.0984
 7016W        W49929  32.712  14.873  25.733  0.1660 -0.1111 -0.1398
 7017W        W49930  14.588   5.718   1.346 -0.0647  0.1538  0.3076
 7018W        W49931   5.567   3.128   6.668 -0.0702 -0.1100  0.0165
 7019W        W49932   2.363   1.871  21.347  0.3126 -0.0457 -0.0790
 7020W        W49933  33.249   8.748   3.178  0.3240 -0.0626 -0.1405
 7021W        W49934   6.123  13.952  20.349 -0.2624  0.0262 -0.0379
 7022W        W49935  24.152   8.835  27.345 -0.2800  0.0720 -0.1243
 7023W        W49936  33.191  11.803  21.535 -0.1234 -0.1301 -0.1180
 7024W        W49937  25.931  12.459  20.802 -0.1558 -0.2933 -0.2481
 7025W        W49938  27.484  12.037  24.798 -0.2120 -0.0143 -0.1001
 7026W        W49939  31.380  27.235  27.277  0.0371 -0.3049 -0.1259
 7027W        W49940   6.467   9.005  17.510 -0.3268 -0.1541  0.4712
 7028W        W49941   0.357   1.963  28.442 -0.0019 -0.1448 -0.0617
 7029W        W49942  13.192   7.479   0.554 -0.0491 -0.1347  0.2192
 7030W        W49943  32.669   4.882  21.200  0.0501  0.1422  0.0589
 7031W        W49944   5.148  33.272  26.653 -0.2429  0.2875  0.3371
 7032W        W49945   9.550  31.341  21.750  0.2357 -0.4178 -0.2248
 7033W        W49946  29.429  33.844  20.563 -0.1487  0.0309 -0.1068
 7034W        W49947  31.858   3.535  22.330  0.0447  0.0869  0.2615
 7035W        W49948   0.521  29.509   2.650 -0.0304  0.1435  0.2376
 7036W        W49949  30.354   2.817  18.681  0.0465 -0.2447 -0.0678
 7037W        W49950  29.751  32.967  17.526 -0.1964 -0.0549  0.1698
 7038W        W49951  28.011  20.671   0.667 -0.2403  0.1519  0.0754
 7039W        W49952  30.029  10.416  24.818  0.1394 -0.0558 -0.0778
 7040W        W49953   5.028  31.232   2.915  0.1124  0.1061 -0.0518
 7041W        W49954   5.519  21.468  23.796  0.2100 -0.0695  0.1183
 7042W        W49955   0.635   5.447  23.527 -0.0994  0.1932  0.0950
 7043W        W49956   4.445   2.709  13.620 -0.3808 -0.0325 -0.0492
 7044W        W49957  16.549   8.813   2.939 -0.0302  0.3737 -0.2432
 7045W        W49958   9.081   5.596  27.997  0.1555 -0.2101  0.1827
 7046W        W49959  12.152   8.957  21.621  0.0704  0.1992  0.1353
 7047W        W49960  26.583  13.391   0.182  0.1944 -0.3423 -0.2272
 7048W        W49961  27.480   4.019  24.700 -0.2753  0.0102 -0.2479
 7049W        W49962   2.865   6.517   8.176  0.2863  0.1699  0.0619
 7050W        W49963   4.007   5.406   1.273  0.2277 -0.2469 -0.0646
 7051W        W49964   4.024  34.132  25.006 -0.0353 -0.0372  0.0077
 7052W        W49965  26.834  20.411  28.645 -0.0268  0.0440  0.4969
 7053W        W49966  26.639   9.126  19.890 -0.1669 -0.2449 -0.3108
 7054W        W49967  29.158  12.538   3.820 -0.3118 -0.0617 -0.1030
 7055W        W49968   3.383  25.961  24.364  0.0406 -0.2658 -0.0240
 7056W        W49969   1.588   1.729   4.480  0.3084 -0.0773 -0.0247
 7057W        W49970   4.576   2.608  21.830 -0.1180 -0.0652  0.2239
 7058W        W49971  33.903  34.067  29.359  0.1806 -0.0298  0.2152
 7059W        W49972  31.251   6.086  19.763  0.0384 -0.2550 -0.1476
 7060W        W49973  32.284  30.213  27.460  0.0890 -0.1039  0.1153
 7061W        W49974  31.724   5.401   0.562  0.0080 -0.1001 -0.0412
 7062W        W49975   2.665  11.634  14.787 -0.2382 -0.0922 -0.1283
 7063W        W49976   5.405  10.893  20.170 -0.1253  0.2125 -0.3427
 7064W        W49977   3.420   4.153  17.697 -0.4679 -0.0868 -0.2456
 7065W        W49978  33.674  13.183  27.628 -0.1556  0.0637 -0.1181
 7066W        W49979   6.240   7.152   0.010 -0.0165  0.2616  0.1147
 7067W        W49980   0.345   3.712  24.117  0.0796 -0.1799  0.2515
 7068W        W49981  10.752  32.389  27.252 -0.0331  0.1103  0.0786
 7069W        W49982   0.313  12.465   4.483 -0.3209 -0.0960  0.2306
 7070W        W49983   7.750  12.898   6.074  0.0947 -0.1330  0.0899
 7071W        W49984   5.557   8.772   1.591  0.3367  0.3402 -0.3609
 7072W        W49985  29.642   0.992  29.529 -0.1622 -0.1913  0.0700
 7073W        W49986   8.420   1.409   1.743  0.0749 -0.1534  0.1081
 7074W        W49987   2.565   8.793  23.198  0.1479  0.1610  0.3786
 7075W        W49988   0.162   8.197  27.680 -0.0129  0.3844  0.2092
 7076W        W49989  31.518  16.638  18.017  0.0659 -0.1388  0.2796
 7077W        W49990   2.980   2.945  12.703 -0.0685 -0.0319  0.1057
 7078W        W49991   5.028   9.519  26.247 -0.2361  0.2178 -0.2155
 7079W        W49992   1.803  13.718   4.623 -0.4062 -0.1595  0.1835
 7080W        W49993  12.165  20.024  19.660  0.0817 -0.0374  0.0804
 7081W        W49994  16.301  12.842  12.629 -0.2099  0.0418  0.0233
 7082W        W49995   4.199  10.576  26.492 -0.0863  0.1549 -0.1139
 7083W        W49996  31.083   3.107  21.791 -0.1367  0.0883 -0.3845
 7084W        W49997   1.592  13.558  27.794  0.1323 -0.2795  0.0727
 7085W        W49998   2.334   7.518   1.009  0.1412 -0.0647  0.2251
 7086W        W49999  14.214   4.943  23.337 -0.1092 -0.1690  0.0425
 7087W        W50000   1.916  10.414  18.078 -0.2114 -0.1056 -0.0642
 7088W        W50001   8.331   2.574   7.240 -0.1374 -0.0328  0.1980
 7089W        W50002  26.326   1.564   3.528 -0.1416 -0.0343  0.1575
 7090W        W50003  34.178   4.256  19.573 -0.2993 -0.3028  0.2748
 7091W        W50004   3.556   6.271  23.559 -0.0976  0.1377  0.1343
 7092W        W50005   2.831   0.593  25.818  0.1675  0.2167 -0.3120
 7093W        W50006  29.061   8.932   7.614 -0.1085 -0.0738 -0.1375
 7094W        W50007  10.944  12.302  27.624  0.2256  0.3418 -0.1494
 7095W        W50008   4.748   6.773  22.823 -0.2514  0.0785 -0.0688
 7096W        W50009   8.639  16.501   0.457  0.0287 -0.1741  0.0407
 7097W        W50010   8.733   6.854  18.477  0.1395 -0.1572  0.0554
 7098W        W50011   7.010   9.191  26.317 -0.1305  0.0409 -0.2640
 7099W        W50012   5.288  24.933   3.769 -0.3029 -0.1620 -0.0418
 7100W        W50013   5.436   7.061  26.686  0.0190  0.3204  0.0517
 7101W        W50014  33.358  32.757  28.086 -0.1932  0.1078 -0.3533
 7102W        W50015   0.299   7.843  28.098 -0.0213 -0.0623 -0.2810
 7103W        W50016  33.649   7.956   2.849  0.0216 -0.0573  0.1050
 7104W        W50017  33.603   5.957  24.204  0.0336  0.0162  0.3086
 7105W        W50018   1.140   2.781   4.023 -0.1064 -0.1983  0.0776
 7106W        W50019  28.181   5.251  29.716  0.0079  0.1294 -0.0011
 7107W        W50020   2.314  16.527   0.139  0.0126  0.1656  0.1346
 7108W        W50021  12.877   8.793  23.031 -0.2104  0.0342 -0.1682
 7109W        W50022   5.394   7.213  22.551  0.1986  0.0380 -0.0606
 7110W        W50023   8.241   5.903  24.232 -0.1866 -0.0285  0.0824
 7111W        W50024  30.145   1.514  29.428  0.0487 -0.3920  0.2434
 7112W        W50025  32.903  34.483  26.866  0.0308  0.0675  0.0969
 7113W        W50026   8.056   8.297  19.061 -0.3443 -0.4051  0.1656
 7114W        W50027   2.120   6.944  20.049 -0.4499 -0.2174 -0.1335
 7115W        W50028   3.712  11.685  18.129  0.2014 -0.0443  0.3460
 7116W        W50029  21.606  10.769  24.497  0.0398 -0.0597 -0.2979
 7117W        W50030  25.074  16.019  29.206  0.2207 -0.3685 -0.2285
 7118W        W50031   7.260   9.594  26.499 -0.1083  0.2090  0.1595
 7119W        W50032  31.545   5.270   9.784 -0.2011  0.2020 -0.0893
 7120W        W50033  26.450   3.816  24.918  0.0355  0.1521  0.1608
 7121W        W50034  15.227   2.851  20.221 -0.0718  0.2636  0.1911
 7122W        W50035   0.897  15.304   7.756  0.1906  0.0922 -0.1663
 7123W        W50036   1.447   2.746   2.458  0.0506  0.0216 -0.2704
 7124W        W50037  28.712   2.378  20.344  0.3200 -0.0171 -0.2962
 7125W        W50038  27.927  18.775  29.286  0.3051  0.5370 -0.0848
 7126W        W50039   6.006   6.763   0.369 -0.1887  0.0324 -0.0519
 7127W        W50040   5.239  12.544   1.225 -0.0747  0.0153  0.3072
 7128W        W50041  33.882   5.541   0.994  0.0258 -0.0723  0.0821
 7129W        W50042   0.388   0.267  23.825  0.0163  0.1750 -0.1353
 7130W        W50043   8.724  16.681   1.048  0.3356  0.0681  0.0169
 7131W        W50044   6.345  11.401  17.994 -0.3020  0.0017  0.2229
 7132W        W50045  30.166   3.404   5.618  0.1239  0.2363 -0.0560
 7133W        W50046  31.259  18.118  26.469 -0.0876 -0.0727  0.1887
 7134W        W50047  29.718  12.729   1.472  0.0004 -0.1699  0.0757
 7135W        W50048   0.371  33.887  15.779 -0.0715  0.4420  0.0997
 7136W        W50049   7.112  14.997  17.820  0.0261  0.2791  0.2581
 7137W        W50050   2.599   6.753  23.886  0.0219 -0.3824  0.0105
 7138W        W50051  31.223   7.604  24.177 -0.2344 -0.1725  0.1081
 7139W        W50052  10.796   0.605  29.147 -0.4427 -0.0298 -0.2549
 7140W        W50053   1.359  17.125  21.284  0.0485 -0.0990 -0.1094
 7141W        W50054  16.392  28.945  20.531  0.3756 -0.1268  0.1491
 7142W        W50055   5.175  11.126  18.630 -0.0514  0.0800 -0.2866
 7143W        W50056  24.599   1.376  15.001 -0.0761 -0.0051 -0.1856
 7144W        W50057  33.454  10.713  29.751  0.0855 -0.2475  0.0230
 7145W        W50058  34.001   5.806  24.528  0.0854 -0.1261 -0.0085
 7146W        W50059  25.929   6.704  17.275 -0.1567 -0.2542 -0.3138
 7147W        W50060   7.016   7.509  27.985  0.1190  0.0861  0.0543
 7148W        W50061  27.368  17.816  26.497 -0.3279 -0.0056 -0.2146
 7149W        W50062  33.120   2.157   7.092 -0.1605  0.1443  0.4226
 7150W        W50063   6.476  14.269  20.178  0.0831 -0.1354 -0.1010
 7151W        W50064   4.919   0.500  27.449 -0.1809 -0.0697 -0.4012
 7152W        W50065  11.714   3.633  28.035  0.2636 -0.1986  0.3367
 7153W        W50066  34.219  24.931  25.016  0.0873  0.3472  0.0531
 7154W        W50067   3.536   9.573  26.163  0.1439  0.1082  0.2370
 7155W        W50068  30.319   6.795   3.750 -0.0391 -0.0072  0.2502
 7156W        W50069   1.964  14.023   2.892 -0.1744 -0.0259  0.0427
 7157W        W50070   6.384   9.716  22.109  0.1388  0.0529  0.1602
 7158W        W50071   2.050   5.097  27.206  0.2127  0.1985 -0.1002
 7159W        W50072  31.958   1.433   1.693 -0.2072 -0.0060  0.1223
 7160W        W50073   3.675  11.982  20.048  0.3869  0.0283 -0.0171
 7161W        W50074   0.853  33.511  18.595 -0.1914 -0.1745  0.0115
 7162W        W50075   1.061   3.271  21.741  0.1523 -0.0919 -0.0026
 7163W        W50076   2.115  33.116   0.904  0.2923 -0.1129  0.1853
 7164W        W50077  29.627   8.737  29.229  0.2023  0.0944  0.0475
 7165W        W50078   7.976   2.621  21.640  0.0789 -0.1182 -0.1012
 7166W        W50079   5.082  11.399   3.197  0.4572  0.0944  0.0067
 7167W        W50080  11.763  15.166  24.643  0.2776 -0.0790  0.0025
 7168W        W50081  24.936   7.934  17.621 -0.2321 -0.2517  0.2026
 7169W        W50082  31.268   9.641   2.441  0.0048 -0.0559 -0.0296
 7170W        W50083  26.667  13.590  27.839  0.1163 -0.0790  0.1568
 7171W        W50084  26.608  13.602  24.664  0.2515 -0.2723 -0.0676
 7172W        W50085  24.255  10.316   6.252 -0.3117 -0.0491 -0.1991
 7173W        W50086   2.421   5.962  26.695  0.2106  0.1064 -0.1238
 7174W        W50087   5.648   1.275  25.993 -0.0798  0.2521 -0.0925
 7175W        W50088   0.683  10.410  17.998 -0.2215 -0.3100 -0.2511
 7176W        W50089   4.367   6.688  24.656 -0.4052  0.0876 -0.0115
 7177W        W50090  29.173   0.993  22.058 -0.0433 -0.0929  0.1280
 7178W        W50091  26.161   5.680  27.410  0.0637  0.1073  0.1350
 7179W        W50092  16.703  15.350  11.549 -0.0292 -0.1755  0.1130
 7180W        W50093   0.541  12.057   1.943 -0.0412  0.1322 -0.2995
 7181W        W50094  26.227  17.510   5.850  0.0022  0.1296  0.0756
 7182W        W50095   2.989  26.285  23.773 -0.0355 -0.2064 -0.0926
 7183W        W50096   1.191   7.355  22.060 -0.0201  0.1247 -0.3046
 7184W        W50097  31.506   5.942   0.109 -0.2329 -0.3680  0.3011
 7185W        W50098   1.200   8.829  23.091  0.2763  0.2148  0.2102
 7186W        W50099   0.030   3.436  22.212 -0.3131  0.1513 -0.2465
 7187W        W50100  13.347   2.967  23.137  0.2397 -0.0496  0.2599
 7188W        W50101   6.056   4.143  26.639 -0.0193 -0.1248  0.0069
 7189W        W50102  18.906   5.831  29.386  0.0337 -0.1588  0.1557
 7190W        W50103   7.605   5.569  28.297 -0.0832  0.0376 -0.4483
 7191W        W50104  27.060  15.555  25.883  0.0286 -0.0460  0.3365
 7192W        W50105   2.328  14.053   1.506  0.0757 -0.1242  0.1058
 7193W        W50106  25.711   9.103   7.234  0.0810  0.0573  0.1421
 7194W        W50107   0.841  10.257   2.038 -0.1731 -0.4468 -0.2821
 7195W        W50108  33.641  17.021   4.323  0.1131 -0.3438  0.0049
 7196W        W50109  33.704  28.562   5.831 -0.1461  0.1795 -0.0539
 7197W        W50110  12.583   7.369  11.157  0.0736 -0.1115 -0.1337
 7198W        W50111  29.543   9.660  23.270 -0.1038  0.1112 -0.1576
 7199W        W50112   5.413   0.728  25.777 -0.2840 -0.2039  0.0023
 7200W        W50113  32.862   4.597   2.349 -0.0888 -0.1849 -0.2487
 7201W        W50114  12.211   4.239  21.175  0.2495  0.1614 -0.2791
 7202W        W50115   6.206   8.539  19.630 -0.3112 -0.2046  0.1838
 7203W        W50116  16.933   9.266   8.179 -0.3411  0.0569  0.2513
 7204W        W50117  32.347   5.795  25.101 -0.3074  0.1066  0.3237
 7205W        W50118   8.213   6.928  24.476 -0.1306 -0.0501 -0.0383
 7206W        W50119   8.931  13.226  24.376  0.0366 -0.2289 -0.1310
 7207W        W50120  32.152   5.118  22.040 -0.4394  0.2245  0.1754
 7208W        W50121   9.417  30.517   7.182  0.0481  0.3108 -0.0576
 7209W        W50122  31.667   1.138  21.781  0.0125  0.0333  0.1496
 7210W        W50123   2.379  34.344   5.797  0.0313  0.1082  0.0996
 7211W        W50124  30.416  27.694  27.220  0.1227 -0.0573 -0.1437
 7212W        W50125  26.549  32.808  27.554 -0.4126  0.1121 -0.3303
 7213W        W50126  33.196   3.451  24.983  0.0241  0.1135 -0.0429
 7214W        W50127  29.825   3.568  23.330 -0.1329  0.0398 -0.1963
 7215W        W50128  30.233   8.697  26.929 -0.2524  0.3074  0.2022
 7216W        W50129   4.803  30.380  22.171  0.1277 -0.2490 -0.0130
 7217W        W50130   3.130  15.272   3.440  0.1393 -0.1310  0.0706
 7218W        W50131  33.013  25.183   4.468 -0.0674  0.1081 -0.1402
 7219W        W50132  32.988  14.035  15.876  0.0347 -0.2103 -0.2209
 7220W        W50133   2.223   1.576  26.163 -0.0171  0.3822  0.1785
 7221W        W50134  31.588   8.137  20.450  0.0680 -0.1054 -0.1641
 7222W        W50135  26.515   5.620  15.866 -0.4495  0.3490 -0.1241
 7223W        W50136   4.402  16.244   3.591  0.2224 -0.0114 -0.0890
 7224W        W50137   2.258   0.148  23.434 -0.0550  0.0519  0.0315
 7225W        W50138  32.243   2.317  26.189 -0.1612  0.2811  0.2830
 7226W        W50139  24.766   6.982   2.771 -0.1899 -0.0142 -0.2277
 7227W        W50140  29.043  19.797  28.279  0.3335  0.1844  0.0831
 7228W        W50141   7.072   1.164   3.171 -0.1920  0.1128 -0.0708
 7229W        W50142  11.031   2.430  12.335 -0.3521  0.2384  0.2321
 7230W        W50143  33.534   4.788  28.008 -0.4245 -0.0955  0.0707
 7231W        W50144   4.725  24.454  22.729  0.2508  0.0427 -0.1218
 7232W        W50145  11.373  16.832  26.184 -0.2192  0.0879 -0.0592
 7233W        W50146  30.897   2.909  29.167  0.1045  0.2129  0.2725
 7234W        W50147   0.995   0.536  26.489  0.0228 -0.1657  0.3125
 7235W        W50148   7.404  10.698  18.046 -0.1882 -0.1331  0.3112
 7236W        W50149  30.893   8.029   6.443  0.1760  0.0045 -0.2525
 7237W        W50150   8.752  32.169  19.722  0.2003 -0.1954  0.2132
 7238W        W50151  33.196  19.368  17.279 -0.2749 -0.1389  0.0796
 7239W        W50152  11.014   4.608   0.795 -0.4126  0.3100  0.2594
 7240W        W50153  33.070   3.935   0.524 -0.4740 -0.0421 -0.0290
 7241W        W50154   6.026  27.329   8.151 -0.1352 -0.3384 -0.0878
 7242W        W50155  33.835  11.701  16.412  0.1243  0.1508 -0.0351
 7243W        W50156  31.103  12.024   4.927  0.3488  0.0029  0.2171
 7244W        W50157   0.024   7.622   8.801 -0.0517  0.0178 -0.1225
 7245W        W50158   6.930   1.989   3.824 -0.0601 -0.0729  0.2886
 7246W        W50159   2.322   8.240   9.834 -0.0246 -0.1373  0.1088
 7247W        W50160  30.865   8.370  25.994 -0.2057  0.0195  0.1645
 7248W        W50161   1.991   7.674   2.980  0.2916 -0.4083  0.0281
 7249W        W50162   5.703   1.450  22.339 -0.0560 -0.0741 -0.0798
 7250W        W50163  28.600   3.112   1.510  0.2705 -0.2676  0.1124
 7251W        W50164  30.883  10.477  28.994 -0.2448  0.0611  0.2237
 7252W        W50165  30.911  11.473  22.631 -0.2022  0.1203 -0.2677
 7253W        W50166   8.991   8.350  28.627  0.4401  0.0269  0.2171
 7254W        W50167  10.012  11.511  23.327  0.0494  0.0833  0.0594
 7255W        W50168   7.991   2.401   8.461  0.0145  0.0522  0.5986
 7256W        W50169   1.254   1.866  28.911  0.1374 -0.2067  0.1328
 7257W        W50170   0.189  33.354   9.201 -0.0092 -0.1338  0.0546
 7258W        W50171   6.726   2.670   4.720 -0.2937  0.0714  0.1245
 7259W        W50172   8.264  14.290   8.489 -0.2793  0.3664  0.0753
 7260W        W50173   5.879   4.914  25.753  0.0631 -0.2165 -0.2249
 7261W        W50174   4.284  32.487  25.067  0.0237  0.0494  0.2337
 7262W        W50175  34.110  30.546  23.456 -0.0674  0.0177  0.1639
 7263W        W50176  14.352   7.731  28.355 -0.0197 -0.0013 -0.0565
 7264W        W50177   8.056   9.912   0.540 -0.1552 -0.0118  0.4263
 7265W        W50178   9.188   2.068   4.112  0.2438 -0.1292 -0.0045
 7266W        W50179   4.952  20.441  16.895 -0.1649  0.0329  0.4661
 7267W        W50180   4.505   6.220  20.095  0.0085 -0.1091  0.0495
 7268W        W50181  12.086   8.825   3.789 -0.1729  0.0906 -0.1109
 7269W        W50182   9.389   5.727   0.120  0.1300  0.1752  0.0807
 7270W        W50183  30.516   5.013  25.720  0.0660  0.0483 -0.3981
 7271W        W50184   6.770   3.382  13.880  0.0656 -0.0186  0.4334
 7272W        W50185  33.668  11.328  23.285 -0.1390 -0.0094 -0.1430
 7273W        W50186  13.295   1.811  25.735  0.1374  0.2940  0.0575
 7274W        W50187  10.481  34.453   5.077  0.0261  0.1191 -0.1206
 7275W        W50188  32.269   8.464  10.056 -0.0465 -0.0199  0.2145
 7276W        W50189   5.015   2.361  28.033 -0.1280  0.1187  0.2408
 7277W        W50190  29.087  28.555   0.579 -0.0511  0.1369 -0.0508
 7278W        W50191  14.420   0.693  18.832  0.1880  0.3740  0.2265
 7279W        W50192   2.116  13.170  25.062 -0.2443 -0.1056 -0.1792
 7280W        W50193   0.408  16.215  23.556 -0.1535  0.1924 -0.0643
 7281W        W50194  11.807  14.645  28.279 -0.1535 -0.1618  0.1085
 7282W        W50195   5.231   6.857  12.927  0.2897  0.2853 -0.0752
 7283W        W50196  28.561  32.944   5.760 -0.0992  0.2951  0.2325
 7284W        W50197   7.094  24.891   4.944 -0.2779 -0.1885 -0.0172
 7285W        W50198  22.701  12.702  26.187 -0.1866 -0.1970 -0.1661
 7286W        W50199   7.402  12.120  24.256  0.1968 -0.2740 -0.0890
 7287W        W50200   5.651  32.433   5.958  0.1486 -0.5100 -0.3713
 7288W        W50201  31.767   8.969   1.276 -0.3338 -0.1369  0.0735
 7289W        W50202   8.904  13.302  20.504  0.1101 -0.1473  0.1307
 7290W        W50203  30.909  34.390  16.341  0.0703  0.0104 -0.0982
 7291W        W50204   0.905  12.213  17.674 -0.1774  0.0743  0.0341
 7292W        W50205   1.859  18.461  20.913 -0.2392  0.1938  0.3397
 7293W        W50206   0.410  12.109  16.178  0.1603  0.1126 -0.0046
 7294W        W50207   1.790  19.591  14.997  0.2363  0.1789  0.2073
 7295W        W50208   1.764   7.552  20.402 -0.0988 -0.1343 -0.0094
 7296W        W50209  29.724   3.974  21.696  0.1098 -0.0587  0.2866
 7297W        W50210  31.292  19.238  23.688 -0.0444  0.0773 -0.0929
 7298W        W50211   3.828  18.409  17.974  0.4785 -0.2335  0.1789
 7299W        W50212   1.250   8.348  24.196  0.4273  0.0560  0.0543
 7300W        W50213  32.324   2.842  26.847  0.0663  0.1599 -0.0594
 7301W        W50214  32.651   2.491  27.460 -0.0022 -0.0544  0.3616
 7302W        W50215   6.524  17.272  14.485 -0.0564 -0.0499 -0.0352
 7303W        W50216  25.564   2.357  22.062  0.1609  0.1052 -0.0278
 7304W        W50217  12.970  15.131  22.452  0.1146  0.0742  0.3802
 7305W        W50218  28.860  12.969  13.850  0.2308  0.1451 -0.4399
 7306W        W50219   5.173   5.097  26.112  0.2705 -0.0686 -0.1870
 7307W        W50220  27.606  15.596  18.466 -0.1161 -0.0198  0.2732
 7308W        W50221   1.856  13.667  20.591 -0.1459  0.0239  0.2210
 7309W        W50222   8.966  23.466  21.922  0.0959 -0.0133  0.3073
 7310W        W50223  25.509  33.932   1.990  0.0630 -0.3167  0.0203
 7311W        W50224   4.859  12.710  17.758 -0.0336  0.1616  0.0311
 7312W        W50225   4.481  10.310  21.571  0.2634 -0.0789  0.3672
 7313W        W50226  32.168   1.660  15.590  0.1592 -0.1635 -0.0275
 7314W        W50227  25.582  19.003  13.072 -0.0233  0.0314  0.0397
 7315W        W50228   8.774  18.774  23.082 -0.0148 -0.3270  0.1102
 7316W        W50229  10.766   5.829  17.053 -0.2673  0.3418 -0.1640
 7317W        W50230   6.585  15.931  23.959  0.0062  0.1308  0.0653
 7318W        W50231  30.010   2.061  19.593  0.0727  0.1831 -0.2994
 7319W        W50232   9.332  10.216  19.011  0.0775 -0.1591  0.0302
 7320W        W50233  29.834  14.814  19.129  0.0611  0.0514 -0.0329
 7321W        W50234   0.186  14.087  16.631  0.0944  0.0237 -0.1818
 7322W        W50235  34.319  12.038  18.836 -0.0189 -0.0325 -0.0539
 7323W        W50236   1.726   9.497  16.922  0.0686  0.0856 -0.0572
 7324W        W50237  24.147   7.673  15.091  0.0882  0.1323  0.1899
 7325W        W50238  27.355  11.225  18.190 -0.0155  0.1413  0.0119
 7326W        W50239  23.168   8.514  27.218 -0.1080 -0.2652 -0.1409
 7327W        W50240  32.080   5.868  23.094  0.1204 -0.0374  0.0115
 7328W        W50241   4.363   4.502  17.721 -0.3780  0.0099  0.0557
 7329W        W50242  31.139   3.950  15.935 -0.1656  0.2103  0.0459
 7330W        W50243   6.071  11.797  16.175  0.1355  0.1472 -0.1414
 7331W        W50244  28.057  31.962  21.835  0.1782 -0.2436 -0.0916
 7332W        W50245   1.775   9.046  19.756  0.0866 -0.0191  0.0852
 7333W        W50246  25.223  20.210  15.945 -0.0920  0.2946  0.1460
 7334W        W50247  30.516  23.786   0.894  0.1580  0.0091 -0.0877
 7335W        W50248  33.311   8.918  21.244 -0.0087 -0.1431 -0.0940
 7336W        W50249  22.564   6.872  29.753 -0.1664  0.1125 -0.2098
 7337W        W50250  29.653   3.668  26.315  0.2489  0.3419 -0.0675
 7338W        W50251  19.863  31.255  19.095  0.0199 -0.2402 -0.0205
 7339W        W50252   8.512   3.802  20.982 -0.0461  0.0192  0.0588
 7340W        W50253   4.612  23.523  24.661  0.2557 -0.0102  0.0112
 7341W        W50254  29.810  15.805  22.702  0.0399  0.0435  0.2551
 7342W        W50255   3.320  12.491  18.371 -0.0160  0.1285  0.0872
 7343W        W50256   4.697  14.651  23.210  0.1545  0.0938  0.2373
 7344W        W50257  29.312  12.562  17.744 -0.0278  0.0246  0.2133
 7345W        W50258  24.464   4.977  27.519 -0.1158  0.0132 -0.0102
 7346W        W50259  29.181  13.260  19.154  0.1046  0.0041  0.1676
 7347W        W50260   0.358  22.945  23.243 -0.0515 -0.0146 -0.3950
 7348W        W50261   8.133  20.209  16.868 -0.1803 -0.1032 -0.2178
 7349W        W50262   3.503   5.424  21.274 -0.1366  0.0358 -0.0463
 7350W        W50263  33.585  18.405  13.648  0.1360 -0.0095  0.2607
 7351W        W50264  32.309  18.009  16.952 -0.0106 -0.2782  0.1739
 7352W        W50265  33.117  14.610  18.865 -0.1914  0.1103 -0.2488
 7353W        W50266   7.026  32.527  18.266  0.0789 -0.0666 -0.0703
 7354W        W50267  17.095   9.423  15.272  0.1201  0.3124 -0.0281
 7355W        W50268   6.952  17.623  24.159  0.1616  0.3282 -0.1715
 7356W        W50269  31.781  16.325  19.421 -0.0492 -0.4124  0.2239
 7357W        W50270  27.940  15.965  22.905 -0.0036 -0.0534  0.1748
 7358W        W50271  29.740   7.749  23.314  0.0715 -0.1688  0.2397
 7359W        W50272   7.796  25.070  28.517  0.0618  0.1341  0.0372
 7360W        W50273  34.085  12.502  14.012  0.0584  0.0770  0.2039
 7361W        W50274   1.595  22.902  18.185  0.1205 -0.1497 -0.2335
 7362W        W50275   3.604   5.273  29.241 -0.0750  0.3837 -0.1293
 7363W        W50276   0.362  10.044  16.674 -0.5077 -0.0780 -0.2754
 7364W        W50277   3.199   4.107  19.126  0.5122 -0.0974 -0.2063
 7365W        W50278   4.974  14.966  15.547  0.0050  0.1467  0.1250
 7366W        W50279   2.152   9.676  25.081 -0.0704  0.0914 -0.2119
 7367W        W50280  30.722   4.033  18.867  0.3518 -0.3575 -0.2594
 7368W        W50281  26.855   2.095  23.699 -0.0227 -0.0546  0.3455
 7369W        W50282  13.244   3.457  18.230 -0.2436  0.0644 -0.4661
 7370W        W50283   7.475  11.419  25.781  0.2588  0.1379  0.0926
 7371W        W50284  30.123  19.784  13.664  0.2351  0.2842  0.0602
 7372W        W50285  31.573   7.183  18.133 -0.1942 -0.0724  0.1685
 7373W        W50286   0.387  13.361  18.811 -0.0404  0.2138  0.0911
 7374W        W50287   2.882  17.302  16.192 -0.1042  0.2158  0.2205
 7375W        W50288  26.302  15.011  17.299  0.0188 -0.0738 -0.0677
 7376W        W50289  31.033  34.266  20.415  0.3427 -0.1359 -0.0557
 7377W        W50290  30.790  11.636  18.138 -0.1539 -0.0839 -0.1374
 7378W        W50291  28.204  10.140  14.171 -0.1939  0.2239  0.2481
 7379W        W50292  29.873  15.880  16.409  0.0123 -0.0525 -0.2395
 7380W        W50293   1.599   3.431  18.996  0.0532  0.5501 -0.2423
 7381W        W50294  32.544  15.877  18.399  0.3442 -0.0828  0.3852
 7382W        W50295   1.751  12.692  16.209  0.0718 -0.2268 -0.0244
 7383W        W50296  26.629  10.190  22.807  0.1149  0.0487  0.0549
 7384W        W50297   7.334   3.209  19.824 -0.0566 -0.2881 -0.2419
 7385W        W50298  26.970  13.135  17.615 -0.1704 -0.2074  0.0184
 7386W        W50299   1.633   6.378  22.932  0.0606 -0.1623 -0.1075
 7387W        W50300   9.745  13.807  20.144 -0.0881  0.2150 -0.2253
 7388W        W50301  30.670  12.880  17.085 -0.1579 -0.0026 -0.2672
 7389W        W50302  22.183  21.719   0.556  0.0501  0.2626 -0.1348
 7390W        W50303  32.567   0.632  15.712 -0.1328  0.1670  0.1847
 7391W        W50304   1.679  12.190  28.515  0.2265  0.0519  0.0988
 7392W        W50305   1.631   6.889  22.609 -0.2575  0.1605 -0.0937
 7393W        W50306  27.421  23.492  15.867 -0.2021 -0.3657 -0.0403
 7394W        W50307  32.419  15.983  19.007  0.2719  0.1912  0.0640
 7395W        W50308   0.310  11.998  18.274  0.0845  0.0335 -0.0202
 7396W        W50309   8.151  23.831  27.109  0.0558 -0.1655  0.0092
 7397W        W50310  32.272  17.440  15.142 -0.1542 -0.1652  0.3436
 7398W        W50311  27.229  12.263  26.178 -0.3062  0.3161 -0.2722
 7399W        W50312  33.275   8.457  16.413 -0.1066 -0.1443  0.3519
 7400W        W50313   5.205  11.351  22.178  0.1262  0.1346 -0.0784
 7401W        W50314  24.065  15.468   1.829 -0.2951  0.0577 -0.0882
 7402W        W50315  29.742  10.262  19.052  0.2835 -0.0975 -0.1354
 7403W        W50316  33.093   8.301  21.784 -0.1454 -0.3179 -0.2225
 7404W        W50317   2.961  10.644  22.307 -0.1918 -0.0039 -0.0019
 7405W        W50318  31.553  10.970  27.394  0.3310  0.0944  0.0687
 7406W        W50319  31.732  11.466  14.850  0.0863 -0.1936  0.0026
 7407W        W50320   2.428   6.468  24.258 -0.0484  0.0362  0.0913
 7408W        W50321   3.310  16.113  16.126 -0.1056 -0.5447  0.1858
 7409W        W50322  32.003   8.690  17.432  0.0195 -0.2676  0.1200
 7410W        W50323   0.951  11.150  18.569 -0.0110 -0.1576  0.0498
 7411W        W50324  34.123   4.649  22.941  0.0532 -0.4805 -0.0350
 7412W        W50325   2.082   8.292  17.727  0.1865 -0.0111 -0.1579
 7413W        W50326  13.809  14.089  20.074  0.1570  0.2007 -0.0975
 7414W        W50327  31.573   4.382  25.189 -0.3626  0.3014  0.3030
 7415W        W50328   8.405  15.220  25.072 -0.4557 -0.2277 -0.0401
 7416W        W50329   1.704  15.923  13.846  0.0049 -0.3041  0.3265
 7417W        W50330   1.435   9.460  26.851 -0.1000 -0.0799  0.0630
 7418W        W50331  34.373  11.913  17.882 -0.3121 -0.2045  0.1941
 7419W        W50332  29.968  12.811  15.933 -0.1535 -0.1221 -0.0467
 7420W        W50333   0.962  10.139  15.937  0.0615  0.1197  0.1960
 7421W        W50334  29.302   5.314  24.729  0.0875 -0.1176  0.0201
 7422W        W50335  33.888   9.668  22.314 -0.2378  0.0676 -0.2713
 7423W        W50336  14.566   9.009  22.595  0.0216  0.2764 -0.1540
 7424W        W50337   7.294  17.016  23.346 -0.2830  0.0328  0.0116
 7425W        W50338  27.824  12.763  28.000 -0.0213 -0.1641  0.0900
 7426W        W50339  12.879   3.554  20.589  0.2194  0.2168 -0.0061
 7427W        W50340  24.132   0.904  27.861 -0.0520 -0.1245 -0.2623
 7428W        W50341  31.001  18.839  16.098 -0.2778  0.0046 -0.2327
 7429W        W50342  31.470   7.623  19.173  0.1003  0.0802  0.0541
 7430W        W50343  27.858  14.100  13.914 -0.1386 -0.4167  0.1727
 7431W        W50344   4.262  17.424  24.070  0.0790  0.3209  0.1132
 7432W        W50345   1.431   9.407  15.998 -0.0303  0.4752  0.2058
 7433W        W50346   4.365   9.652  17.606  0.3214  0.1595 -0.1675
 7434W        W50347  32.598  10.023   3.367  0.0437  0.1032  0.0502
 7435W        W50348  15.553  12.807  20.348  0.0256 -0.0861  0.0991
 7436W        W50349   0.944  20.236  24.494 -0.2509 -0.1508 -0.0008
 7437W        W50350  12.159   0.283  24.826  0.1196  0.1353 -0.0152
 7438W        W50351   2.900  11.228  23.651  0.0226 -0.0878  0.3850
 7439W        W50352   1.761   5.589  21.588  0.0652  0.4079  0.2178
 7440W        W50353  25.315   6.876  14.074  0.3022  0.0611 -0.0440
 7441W        W50354   4.903  21.958  25.546 -0.3152 -0.0032 -0.1239
 7442W        W50355  33.663  12.973  15.539 -0.0967 -0.0393 -0.0664
 7443W        W50356  31.720  15.468  25.635 -0.4045 -0.4064 -0.0761
 7444W        W50357   7.258  12.406  21.680 -0.0391 -0.2563  0.1601
 7445W        W50358  24.523  11.742  29.046  0.0760  0.3677  0.2579
 7446W        W50359  29.815   6.876  25.503  0.1517  0.2171  0.0958
 7447W        W50360  29.337  19.162  18.821 -0.0336  0.0746 -0.0208
 7448W        W50361  34.302  10.097  21.842 -0.0501 -0.2300  0.1094
 7449W        W50362   3.566   6.969  19.491  0.0402  0.2690 -0.1535
 7450W        W50363   0.034  12.492  22.737  0.0757  0.3022  0.0560
 7451W        W50364   7.779  10.124  23.633  0.0385 -0.2334 -0.0322
 7452W        W50365  32.914   9.585  18.592  0.0797  0.1243 -0.0333
 7453W        W50366  33.900  18.090  15.614 -0.2157 -0.0260 -0.3723
 7454W        W50367   8.639   0.418  23.400 -0.1926  0.1227  0.2454
 7455W        W50368  24.754   8.748  26.235  0.1117  0.0563 -0.2992
 7456W        W50369  25.828  12.699  26.060 -0.1032 -0.0004 -0.0222
 7457W        W50370   1.339   9.371  22.415  0.0840 -0.0934  0.0906
 7458W        W50371   7.657  29.362  23.640 -0.1049 -0.0235  0.1046
 7459W        W50372  25.090  16.957  27.241 -0.2822  0.2015 -0.0463
 7460W        W50373   9.145   8.541  24.956  0.3023  0.2116 -0.0176
 7461W        W50374   9.731   4.755  24.030  0.0700 -0.1112 -0.0660
 7462W        W50375  32.990  12.907  18.315 -0.0315  0.2051  0.1431
 7463W        W50376   2.818  20.702  27.331 -0.0175 -0.0292 -0.2521
 7464W        W50377   4.365  14.736  18.796  0.1191 -0.0796  0.0026
 7465W        W50378   0.438  10.155  19.328 -0.2138 -0.0125 -0.1931
 7466W        W50379  28.544  16.458  18.422  0.1474  0.0331  0.0626
 7467W        W50380  31.561   6.535  18.895 -0.2704 -0.0160 -0.0879
 7468W        W50381  27.956   1.480  25.463  0.1681 -0.0320 -0.4335
 7469W        W50382   4.003   6.658  19.462 -0.1562  0.1123 -0.0295
 7470W        W50383  32.611   3.358  17.092 -0.1447  0.0167  0.1817
 7471W        W50384   0.052  17.641  17.341 -0.3068  0.3395 -0.2547
 7472W        W50385   2.322   7.692  22.158  0.3638  0.1006  0.3665
 7473W        W50386   9.511  12.662  27.501  0.0493  0.3048 -0.1328
 7474W        W50387  31.636   6.531  27.113 -0.0467  0.2138 -0.0451
 7475W        W50388  31.836   6.300  22.891 -0.2536 -0.0451 -0.0605
 7476W        W50389   5.344   1.595  18.139 -0.0999 -0.0458  0.2596
 7477W        W50390  30.013  30.389  20.754 -0.0690 -0.2212  0.4416
 7478W        W50391  28.185  32.405  20.498 -0.0461 -0.2121  0.0450
 7479W        W50392  29.494  10.485  17.820  0.3862  0.0271 -0.3496
 7480W        W50393  27.821  18.420  17.600  0.0193  0.0855 -0.0249
 7481W        W50394   1.035   8.264  19.408  0.0883  0.1320  0.1092
 7482W        W50395   0.404  20.813  19.951 -0.1530  0.1866 -0.0331
 7483W        W50396   5.418  29.951  29.584  0.1977 -0.2891 -0.0622
 7484W        W50397  31.731  13.241  13.543 -0.1502  0.0704 -0.0773
 7485W        W50398  13.244   3.870  22.143 -0.3061 -0.0155 -0.0756
 7486W        W50399  31.253  16.868  14.426 -0.0729  0.1547 -0.0324
 7487W        W50400  31.663  13.488   0.411  0.0077  0.1291  0.0903
 7488W        W50401  33.988  15.523  18.030 -0.2711  0.1439 -0.0586
 7489W        W50402   4.465  10.917  28.667 -0.1166 -0.3372 -0.1403
 7490W        W50403  11.451  13.900  17.900 -0.2406  0.3174  0.0008
 7491W        W50404   7.911  20.229  16.120 -0.1229  0.1845  0.0850
 7492W        W50405   4.206  11.194  18.111 -0.0508  0.0761  0.1401
 7493W        W50406  31.500   9.068   0.470  0.0738 -0.2652 -0.1597
 7494W        W50407   8.773  32.673  23.752  0.0079  0.2884  0.1321
 7495W        W50408  10.167   6.273  17.580 -0.0148  0.0359  0.0279
 7496W        W50409  29.183  15.536   5.987 -0.0838 -0.1786 -0.1393
 7497W        W50410   1.150   1.983  21.805  0.1169 -0.0239  0.0423
 7498W        W50411   0.243   7.808  23.793  0.1928 -0.3342 -0.4823
 7499W        W50412  28.660   3.066  24.810 -0.3714 -0.1561  0.2206
 7500W        W50413   2.558  25.908  20.828 -0.1496 -0.2978 -0.4221
 7501W        W50414  25.818  16.900  22.466  0.0236 -0.3260  0.2416
 7502W        W50415   3.997  19.367  21.132 -0.0141  0.1367  0.0039
 7503W        W50416  31.495   9.371  21.698 -0.2468 -0.0038  0.0644
 7504W        W50417  25.357  11.727  13.454  0.0147 -0.2088 -0.0789
 7505W        W50418  33.106   3.647  18.423 -0.0623  0.3230  0.0357
 7506W        W50419   2.200   6.977  17.309  0.1858  0.0561  0.1470
 7507W        W50420   4.473  12.760  14.646 -0.1235 -0.2473  0.1490
 7508W        W50421   7.951   6.262  18.300 -0.0203  0.2186  0.1665
 7509W        W50422  27.174   7.229  24.800  0.2322 -0.0410 -0.1245
 7510W        W50423  32.013  14.459  25.658  0.4292  0.0405 -0.0953
 7511W        W50424  10.276  13.019  20.770  0.1952  0.2049 -0.1154
 7512W        W50425  28.190  11.218  14.022  0.1752 -0.3420 -0.0264
 7513W        W50426  30.691   9.371   0.271 -0.0385  0.0397 -0.1754
 7514W        W50427   5.145   4.854  23.759 -0.0317 -0.3107 -0.3073
 7515W        W50428  28.626  14.899  17.428  0.0795 -0.2601 -0.0161
 7516W        W50429  34.019   5.939  17.535  0.3243  0.0639 -0.1444
 7517W        W50430   3.595   5.377  23.530  0.1439  0.3831 -0.1034
 7518W        W50431   3.742  32.396  25.080 -0.0832  0.0935  0.2082
 7519W        W50432   1.818  20.203  28.474 -0.1092  0.1096  0.0228
 7520W        W50433   2.730   1.447  19.456  0.0212  0.0118 -0.0413
 7521W        W50434   5.760  27.232  17.490 -0.1363 -0.1081 -0.0160
 7522W        W50435  32.624  10.706  16.139  0.0400  0.0353 -0.3575
 7523W        W50436   4.953   9.183  27.841 -0.2357  0.1488  0.2179
 7524W        W50437  33.758   6.837  17.378  0.0431  0.0998 -0.2204
 7525W        W50438  21.374   6.940  28.064 -0.3597 -0.0976 -0.1710
 7526W        W50439   2.013  11.788  18.785 -0.3407 -0.1895 -0.2217
 7527W        W50440  11.413  13.867  27.329  0.1107  0.0754  0.0636
 7528W        W50441  28.120   8.833  23.630  0.0770  0.1861  0.1267
 7529W        W50442   3.263   8.855  19.004  0.0805  0.0981  0.0793
 7530W        W50443   8.626  18.396  14.659 -0.0815  0.2328  0.3421
 7531W        W50444   3.620   3.688  17.640  0.1070 -0.2913  0.0242
 7532W        W50445  33.532   7.161  22.215  0.1172 -0.0428 -0.4281
 7533W        W50446   3.409  14.214  17.669 -0.2137 -0.1226 -0.1001
 7534W        W50447   0.177   5.132  23.562  0.1262 -0.0292 -0.0883
 7535W        W50448   0.144  15.656  24.390 -0.2029  0.0063 -0.0674
 7536W        W50449  27.232  14.562  27.340  0.0848 -0.1948 -0.1892
 7537W        W50450  23.529   5.276  27.153  0.0316 -0.2765  0.0571
 7538W        W50451  29.005  13.296  19.671  0.1313  0.0279 -0.1547
 7539W        W50452   0.677   1.947  17.413  0.0738 -0.2284 -0.1517
 7540W        W50453   0.097  18.661  22.496 -0.0704  0.1546  0.0360
 7541W        W50454  34.311   7.381  18.164 -0.1122  0.0749 -0.1826
 7542W        W50455   2.007  11.509  22.713 -0.1007 -0.1057  0.4148
 7543W        W50456  33.547  16.582   1.586 -0.0495  0.0346 -0.0157
 7544W        W50457   1.800   9.617  21.025 -0.0574  0.1677 -0.2622
 7545W        W50458  31.540  10.332  17.073  0.2710 -0.3211  0.2984
 7546W        W50459  26.344  11.159  22.243 -0.1269 -0.1996  0.1198
 7547W        W50460  13.761   0.323  22.916 -0.0987 -0.1187 -0.2774
 7548W        W50461  31.814   5.013  16.160  0.2446  0.2231  0.0608
 7549W        W50462   0.780   9.552  22.511  0.0963  0.0257 -0.0259
 7550W        W50463   5.800   9.858  19.514  0.1624  0.2891  0.1560
 7551W        W50464  27.123  12.391  25.011  0.1276  0.0366  0.2054
 7552W        W50465  14.514  33.974  24.814 -0.0327 -0.0277  0.0865
 7553W        W50466  30.656   5.823  22.116 -0.1807  0.1547 -0.1306
 7554W        W50467  11.138   6.386  18.367  0.4552 -0.0536  0.0644
 7555W        W50468  32.595   4.399  21.339  0.2584 -0.0453  0.0530
 7556W        W50469   1.298  10.510  16.023 -0.0049  0.1349  0.1825
 7557W        W50470  31.238  17.938  19.070  0.0092  0.0745  0.3524
 7558W        W50471   2.488  14.902  15.631 -0.0928 -0.0028 -0.1607
 7559W        W50472  32.966  13.120  14.132  0.1944  0.3305  0.1027
 7560W        W50473   1.955   7.199  19.118 -0.2402  0.0440 -0.3084
 7561W        W50474  26.126   1.350  18.046  0.0535  0.2174 -0.1632
 7562W        W50475  20.656  20.298  12.788 -0.1414  0.1253 -0.3808
 7563W        W50476  30.921   9.665  17.747 -0.0610 -0.0865 -0.0847
 7564W        W50477  31.777  12.344  23.854  0.0819 -0.0077 -0.1969
 7565W        W50478  33.214   9.021  16.672  0.0032 -0.0745 -0.1724
 7566W        W50479   0.515  10.971  17.947  0.0535 -0.0886  0.1445
 7567W        W50480  28.240   7.747  20.820 -0.0662  0.1980 -0.0784
 7568W        W50481  32.966  19.196  14.653 -0.3231  0.0249 -0.4537
 7569W        W50482   3.586  17.296  21.439 -0.2595 -0.0908 -0.1209
 7570W        W50483   4.012  22.449  21.484  0.1856 -0.0399 -0.0953
 7571W        W50484   4.648  13.088  16.402  0.0007  0.1436 -0.0826
 7572W        W50485   1.255  33.796  15.826 -0.0337 -0.1858  0.0835
 7573W        W50486  21.245  33.789  16.063 -0.3658  0.0821 -0.0460
 7574W        W50487  28.287   2.428  24.772 -0.1727 -0.2842 -0.2073
 7575W        W50488  11.056  10.400  23.155  0.2095 -0.2405 -0.0285
 7576W        W50489  31.187  10.185   0.801  0.0155 -0.0420  0.0390
 7577W        W50490  27.228   9.352  15.209 -0.0080  0.2018 -0.2920
 7578W        W50491  25.580   3.682  19.932 -0.1307  0.0020 -0.1283
 7579W        W50492   1.342   7.751  22.374 -0.3412 -0.0220  0.2725
 7580W        W50493  29.665   6.163  21.933  0.1650 -0.3202 -0.1855
 7581W        W50494   8.162  12.541  16.335  0.0333 -0.2008  0.0385
 7582W        W50495   2.250  12.815  23.625 -0.0529  0.0764  0.1114
 7583W        W50496   5.508  32.749  18.223  0.0453  0.1375 -0.1132
 7584W        W50497   3.150   8.083  21.766  0.1643 -0.2119  0.0658
 7585W        W50498   8.343   3.058  22.410 -0.1961  0.2447  0.1652
 7586W        W50499   5.299  21.048  27.554  0.1695 -0.4585 -0.3593
 7587W        W50500  30.137  10.740  21.759 -0.1033 -0.2953  0.1025
 7588W        W50501  12.160  15.698  23.346  0.0001  0.1152  0.0970
 7589W        W50502  29.234  32.423  24.876  0.2800  0.0236  0.2661
 7590W        W50503  31.330  10.258  18.935 -0.1037 -0.1380 -0.1301
 7591W        W50504  31.751  13.806  16.243 -0.2061 -0.2049 -0.2498
 7592W        W50505   6.667  14.654  24.290 -0.1035 -0.2515  0.2391
 7593W        W50506   4.939  11.002  22.561 -0.0069 -0.4020 -0.1403
 7594W        W50507  25.532  21.600  19.344  0.0362 -0.1649 -0.0922
 7595W        W50508   4.976   8.438  24.946  0.0335  0.1094  0.0089
 7596W        W50509   0.019  15.090  25.270 -0.0349  0.3249  0.2994
 7597W        W50510  18.343   4.785  22.478 -0.3311  0.1840  0.1813
 7598W        W50511  28.329  15.557  19.476 -0.2274 -0.2312  0.1442
 7599W        W50512   0.866  34.200  25.822 -0.3064  0.0788 -0.0692
 7600W        W50513  27.007  16.590  26.149  0.0512 -0.0033 -0.2803
 7601W        W50514  31.062   2.058   4.112 -0.0322  0.3603  0.0743
 7602W        W50515  33.033  32.301  22.461  0.1918 -0.0817 -0.2684
 7603W        W50516  24.432   8.886  15.701 -0.0620 -0.1091 -0.1334
 7604W        W50517   8.113  33.996  20.390  0.1324 -0.2483  0.0177
 7605W        W50518   5.950  18.733  15.494 -0.2312  0.1082 -0.1731
 7606W        W50519   2.223  16.482  15.828  0.2267  0.1172  0.0580
 7607W        W50520  24.997  11.054  24.542 -0.4265  0.1737  0.0035
 7608W        W50521  15.324   8.957  20.225 -0.0891  0.0829  0.0138
 7609W        W50522   4.049  34.002  19.325  0.1303 -0.1882 -0.2053
 7610W        W50523  33.299   7.279  27.568  0.2801 -0.1213  0.0388
 7611W        W50524   9.208   8.714  17.032  0.2304 -0.3202  0.5967
 7612W        W50525  31.698  17.699  19.281  0.0503 -0.0939  0.1246
 7613W        W50526  28.892   8.333  19.034  0.0273 -0.1035  0.2562
 7614W        W50527  12.251   2.033  24.328 -0.3035  0.1186  0.3299
 7615W        W50528  31.098  14.560  19.705 -0.0032  0.0357  0.0092
 7616W        W50529   7.172  10.379  22.872 -0.1135  0.1784  0.0113
 7617W        W50530   4.911  16.108  21.172 -0.1292  0.0638  0.3840
 7618W        W50531  33.684  13.443  15.443 -0.0108  0.2349  0.3546
 7619W        W50532   1.261  14.292   1.299  0.0427  0.1697 -0.2320
 7620W        W50533   4.464   7.186  26.729  0.0254  0.0553 -0.3748
 7621W        W50534   3.999  15.298  15.424 -0.1961  0.1329 -0.0738
 7622W        W50535  33.854  18.831  20.885 -0.0108 -0.1861  0.1624
 7623W        W50536   1.594  12.081  23.249 -0.1534 -0.1370 -0.0292
 7624W        W50537  29.479   1.587  20.049 -0.2565 -0.1791  0.1620
 7625W        W50538  22.401  27.702  19.527 -0.1705 -0.0530  0.4663
 7626W        W50539   8.710  10.854  22.280 -0.2210 -0.1045  0.1047
 7627W        W50540  29.930  10.170  16.048 -0.1353 -0.0508  0.2854
 7628W        W50541  31.917  10.963  17.827  0.1031  0.0215 -0.0571
 7629W        W50542  13.540  14.750  26.560 -0.0967 -0.0117 -0.1918
 7630W        W50543   4.465  17.152  19.238  0.3305  0.1246 -0.1192
 7631W        W50544  12.816  18.875  16.249 -0.2328 -0.3902 -0.1707
 7632W        W50545  28.412   7.242  26.790  0.0614 -0.1551  0.0661
 7633W        W50546  33.333   0.371  27.862  0.0196  0.0873 -0.0084
 7634W        W50547   1.547  10.075  16.055  0.0159 -0.2081  0.1320
 7635W        W50548  27.015   5.614  18.061 -0.1092  0.2302 -0.0586
 7636W        W50549  34.431   7.322  27.854  0.2006  0.0091  0.3010
 7637W        W50550  30.351  10.846  14.003  0.2037  0.1084  0.0864
 7638W        W50551  28.920  12.682  15.143  0.1384  0.4634 -0.0282
 7639W        W50552  33.379   2.470  19.823  0.2427  0.3730  0.0052
 7640W        W50553   0.986  33.638  17.576  0.0425  0.0119 -0.1610
 7641W        W50554   2.507   4.277  24.787 -0.0759  0.2857  0.0485
 7642W        W50555  27.587   9.992  24.912  0.0115  0.1975 -0.1559
 7643W        W50556  27.263  32.299  17.634 -0.2632  0.1697 -0.2581
 7644W        W50557   8.459  11.374  16.644  0.1008 -0.2582 -0.4433
 7645W        W50558  31.811  14.195  18.423  0.0025  0.0477 -0.3349
 7646W        W50559   9.461   8.650  19.841  0.0509  0.2514 -0.2895
 7647W        W50560  33.351   6.452  27.002  0.2281 -0.2007 -0.1175
 7648W        W50561  10.532  16.680  23.309  0.1996  0.3353 -0.0223
 7649W        W50562   3.658  15.765  16.109 -0.0596 -0.2132 -0.1422
 7650W        W50563  30.426  10.197  22.734 -0.0377  0.2090  0.1792
 7651W        W50564  30.835  18.116  24.852  0.0406 -0.1375  0.0619
 7652W        W50565  29.236  14.624  20.355 -0.0530  0.2487  0.1565
 7653W        W50566  31.087  34.013  20.851 -0.0348  0.0365  0.2397
 7654W        W50567   6.077  14.305  15.864  0.1153 -0.1100  0.3187
 7655W        W50568  30.738   7.274  25.465  0.2361  0.1906 -0.1049
 7656W        W50569  33.594  20.567  21.912  0.3230 -0.1917 -0.4086
 7657W        W50570   8.709  12.467  18.167 -0.2353  0.3495  0.0433
 7658W        W50571  19.940   5.062  28.891 -0.0891  0.1850 -0.0008
 7659W        W50572   4.310   3.889  21.141 -0.1469  0.1527 -0.0379
 7660W        W50573   2.709   6.431  18.206  0.2704  0.0893 -0.1477
 7661W        W50574  34.418  11.632  15.863  0.2009  0.0567 -0.0975
 7662W        W50575   1.805  18.307  23.782  0.2181  0.4335 -0.1037
 7663W        W50576   4.579   2.988  20.992 -0.0996  0.0552  0.2330
 7664W        W50577   0.025   2.846  17.156 -0.0519  0.1673 -0.0786
 7665W        W50578  10.791  18.715  16.927 -0.0367 -0.1293  0.2398
 7666W        W50579   0.373   4.873  22.671  0.1666  0.1769 -0.0093
 7667W        W50580  29.521  13.292  18.195 -0.0715 -0.0711  0.0019
 7668W        W50581   3.487  16.570  16.764  0.0485  0.0502 -0.0676
 7669W        W50582   9.216  31.455  17.634  0.1972  0.3705  0.2414
 7670W        W50583  34.159  13.561  18.832  0.1777  0.0048  0.1650
 7671W        W50584  24.336   4.927  15.769 -0.0258 -0.2123  0.1814
 7672W        W50585   1.195   5.593  18.240  0.0445 -0.2628  0.0856
 7673W        W50586   9.066   4.181  28.361  0.0304 -0.0926  0.1439
 7674W        W50587  31.686  14.330   9.008  0.0142  0.0002  0.1167
 7675W        W50588   3.194   6.724  19.840 -0.0513 -0.0947 -0.1516
 7676W        W50589   7.690   9.037  19.168  0.0132  0.1864  0.0559
 7677W        W50590   2.855  13.028  16.805 -0.0051  0.0405 -0.1511
 7678W        W50591   1.973  11.178  20.083 -0.2098  0.2263  0.0063
 7679W        W50592  12.838   3.906  22.477  0.1110 -0.1699 -0.1265
 7680W        W50593  34.390  13.909  15.119 -0.0059  0.3609  0.0338
 7681W        W50594  27.319  12.666  21.200 -0.2582  0.3659  0.1667
 7682W        W50595   9.890  24.134  23.924  0.2207 -0.0443  0.1946
 7683W        W50596  13.335   6.706  26.233  0.2368 -0.0315  0.1854
 7684W        W50597   0.996   3.013  27.231 -0.1975  0.2500 -0.1208
 7685W        W50598  15.603  15.298  22.892  0.0500  0.1281  0.4118
 7686W        W50599   1.464  19.214  15.105 -0.1297  0.2396 -0.4605
 7687W        W50600   2.500   1.704  20.323 -0.0843  0.3834 -0.3232
 7688W        W50601  34.237  17.506  23.648 -0.0486  0.0505 -0.0197
 7689W        W50602   2.015   8.689  23.410 -0.0916  0.0866 -0.1318
 7690W        W50603   4.234  28.777  18.919  0.2585  0.0643  0.0730
 7691W        W50604  30.204  12.861  15.436  0.0013 -0.1887  0.1083
 7692W        W50605  34.169  11.660  24.604 -0.1491  0.1101 -0.2793
 7693W        W50606   3.529  18.010  15.309  0.2811 -0.5562  0.2523
 7694W        W50607   7.441   3.261  22.346 -0.1126 -0.0983  0.0182
 7695W        W50608   5.025  15.534  21.529  0.1779 -0.0888 -0.0913
 7696W        W50609   4.715   8.256  19.913  0.1136  0.0125  0.3570
 7697W        W50610  28.865  14.287  13.497  0.1811  0.1065 -0.0764
 7698W        W50611   4.388   7.180  22.542  0.1388  0.1522  0.0132
 7699W        W50612  32.316   1.168  25.496 -0.2723  0.0552  0.1827
 7700W        W50613   6.200  13.343  23.755 -0.0220  0.1106 -0.0050
 7701W        W50614  29.964  18.439  24.626  0.1180  0.0339 -0.2221
 7702W        W50615   4.274  23.042  19.050  0.1844  0.0666  0.1896
 7703W        W50616  28.688  11.201  23.831 -0.1373  0.1366 -0.1368
 7704W        W50617   8.354  11.871  15.158  0.1914  0.0646 -0.1161
 7705W        W50618  32.600   3.477  19.760  0.3092  0.1743 -0.4139
 7706W        W50619   1.608   8.007  23.895 -0.1680  0.0599 -0.0026
 7707W        W50620   7.713   7.455  23.059 -0.0657 -0.0315  0.1295
 7708W        W50621   8.263  15.758  22.538 -0.1017  0.0416 -0.0563
 7709W        W50622  12.387   7.054  29.350 -0.0983 -0.0259  0.0831
 7710W        W50623  33.913   4.995  18.269 -0.2320 -0.2377  0.0822
 7711W        W50624   6.458  12.171  22.924 -0.1500  0.0224 -0.0657
 7712W        W50625  32.342  14.028  19.171  0.0447 -0.0768 -0.1682
 7713W        W50626  29.875  13.626  19.625 -0.0074  0.1441 -0.0090
 7714W        W50627  32.912   0.915  21.065  0.2446 -0.0419  0.4286
 7715W        W50628  31.939  31.198  16.836 -0.0464  0.1392 -0.3566
 7716W        W50629  33.274   1.190  19.203  0.1005 -0.1993  0.1242
 7717W        W50630   4.981  17.793  28.074  0.3488  0.2110  0.2310
 7718W        W50631   4.823  16.356  24.642 -0.0664  0.1912  0.0910
 7719W        W50632   7.795   1.195  18.722  0.1377 -0.3138 -0.1024
 7720W        W50633  28.780   4.568  23.304 -0.0085 -0.2424  0.1127
 7721W        W50634   1.456  15.536  18.663 -0.2022  0.0118  0.2889
 7722W        W50635  28.413   8.281  16.044  0.0979 -0.0297  0.2005
 7723W        W50636   3.139  16.145   6.892  0.3559 -0.1182  0.3129
 7724W        W50637   0.143  12.005  24.528  0.1410 -0.3687  0.1402
 7725W        W50638  31.981   6.306  15.444  0.0213 -0.0362 -0.1223
 7726W        W50639  24.836  12.817  28.633 -0.0186 -0.0022  0.1143
 7727W        W50640   2.694   9.375  21.210  0.0361  0.1335  0.0767
 7728W        W50641   1.164   5.416  23.419  0.1123  0.0251 -0.1850
 7729W        W50642   2.438  12.233  18.112  0.1016 -0.1880  0.3099
 7730W        W50643   0.856   7.099  22.856  0.1112  0.0219 -0.0612
 7731W        W50644  32.631  17.363  15.500  0.0991 -0.0475  0.2363
 7732W        W50645   9.109   9.434  16.378 -0.2040 -0.3167  0.3872
 7733W        W50646  25.464  10.464  18.756  0.0369 -0.0708 -0.1859
 7734W        W50647  26.122   6.152  17.592  0.0474 -0.0782  0.0685
 7735W        W50648   9.337   9.915  20.130  0.2267  0.1115 -0.2617
 7736W        W50649   4.480  10.564  16.604  0.2663  0.0284 -0.1319
 7737W        W50650   3.563   6.386  24.254 -0.3937 -0.1057 -0.0326
 7738W        W50651   2.699   0.241  20.441 -0.2345 -0.2326  0.0004
 7739W        W50652   3.669   4.055  18.587 -0.0186  0.0684  0.0602
 7740W        W50653   3.603   9.712  22.288  0.1123 -0.0118 -0.1344
 7741W        W50654   3.685  21.083  15.430  0.1295 -0.0460  0.0092
 7742W        W50655  27.750  17.764   3.543  0.4635  0.1186 -0.3567
 7743W        W50656  27.400  15.812  16.970 -0.0205  0.0238 -0.0748
 7744W        W50657   6.500  10.277  24.929 -0.1465  0.0992 -0.2976
 7745W        W50658   6.612  13.437   0.182  0.0222 -0.2834  0.1369
 7746W        W50659  31.817  12.960  23.256  0.2821 -0.4309  0.2971
 7747W        W50660   4.153  22.567   1.258  0.2703  0.2076  0.0727
 7748W        W50661   0.449  14.533  23.970  0.0219  0.4820  0.2639
 7749W        W50662   9.196  18.095  29.374 -0.0805 -0.3458 -0.0452
 7750W        W50663  13.668   3.548  20.536  0.0231 -0.0243  0.1177
 7751W        W50664  25.646  21.461  19.822  0.4096 -0.0366  0.2712
 7752W        W50665  15.840  10.298  25.984  0.0255  0.2687 -0.0246
 7753W        W50666  34.437  18.758  14.460 -0.2047  0.2137  0.2249
 7754W        W50667  10.179   6.374  22.191 -0.1771  0.2240 -0.3468
 7755W        W50668  32.325   6.437  23.162 -0.1397  0.2588  0.1896
 7756W        W50669  33.873  10.322  26.132 -0.0423 -0.0158  0.0127
 7757W        W50670  31.561   3.415  29.462  0.3652 -0.1924  0.1404
 7758W        W50671   3.402   5.589   0.749 -0.0088  0.1227 -0.2343
 7759W        W50672  34.478   6.421  20.987  0.0372 -0.1073  0.0048
 7760W        W50673   3.701  15.820  19.685  0.0479 -0.3416  0.1114
 7761W        W50674   3.502   8.167   0.043 -0.2144 -0.0620 -0.0244
 7762W        W50675   9.995  14.438  24.581 -0.0861  0.1260  0.0200
 7763W        W50676   6.175   5.735  19.235  0.0095 -0.0681 -0.0220
 7764W        W50677   3.257  13.709  25.368  0.0736  0.1774 -0.0462
 7765W        W50678  11.049   4.829   1.810 -0.1306  0.0386 -0.3664
 7766W        W50679   7.624   2.225  17.901  0.0661  0.3061  0.0439
 7767W        W50680  17.300   8.969  19.939  0.1880 -0.3187 -0.2835
 7768W        W50681   0.952  11.158  18.007 -0.0466 -0.0557 -0.0311
 7769W        W50682   1.509  11.051  20.860 -0.0682  0.2146 -0.1119
 7770W        W50683   3.412  13.052  21.369 -0.5795  0.1191  0.1557
 7771W        W50684   5.418   3.212  21.881  0.1478  0.0025 -0.4036
 7772W        W50685   3.750   7.895  16.757 -0.1708  0.0607 -0.1671
 7773W        W50686   8.037   3.851  20.065 -0.0706 -0.2139  0.1474
 7774W        W50687  28.117   7.143  15.478  0.1517  0.0601  0.0528
 7775W        W50688  30.491  28.388  14.833  0.0518 -0.1813 -0.0823
 7776W        W50689   7.623  18.138  14.965  0.0284  0.1263 -0.1498
 7777W        W50690  32.438  32.443  17.283 -0.1207  0.1443 -0.1299
 7778W        W50691   6.015   1.719  17.403 -0.0915 -0.3413 -0.1516
 7779W        W50692   4.736  11.829  17.631 -0.3512 -0.0726 -0.1162
 7780W        W50693  15.591  11.750  16.549  0.1977  0.1304  0.1936
 7781W        W50694   4.672  24.883  19.371 -0.2121  0.0710  0.1701
 7782W        W50695   3.418   1.105  23.268 -0.0464 -0.0913  0.0896
 7783W        W50696  31.581   7.880   0.734 -0.1587 -0.3444  0.1188
 7784W        W50697   6.694   3.313  26.885 -0.0435  0.1212  0.1187
 7785W        W50698   3.442  13.529   2.965 -0.0255 -0.0453 -0.0058
 7786W        W50699  14.901   1.749  22.769 -0.1406 -0.0896  0.0106
 7787W        W50700   4.645  14.437  26.388 -0.1397  0.0875 -0.0492
 7788W        W50701  11.870   3.449  18.499 -0.2135  0.1404 -0.1158
 7789W        W50702   5.035   8.734   0.493 -0.0503  0.0738 -0.0748
 7790W        W50703  29.467  25.031  23.968 -0.0657 -0.0807 -0.2636
 7791W        W50704   5.340   9.529  23.180  0.1510  0.1734 -0.1954
 7792W        W50705  34.171  17.574  13.825 -0.3262  0.0110  0.2458
 7793W        W50706   1.614   7.433  17.867  0.0466  0.1381  0.0992
 7794W        W50707  13.175  11.969  24.705  0.0582  0.0073  0.1587
 7795W        W50708   1.039   3.759  20.248  0.4542 -0.0957 -0.0414
 7796W        W50709  30.559  14.092  19.235 -0.0665  0.1860  0.2775
 7797W        W50710   6.180  11.137  18.405  0.1883 -0.0308 -0.0115
 7798W        W50711  26.495  11.845  21.863  0.2948  0.1271 -0.0567
 7799W        W50712   7.431   0.325  20.525  0.0443 -0.2126  0.1563
 7800W        W50713   8.101   2.059  20.374 -0.1879 -0.1333 -0.0887
 7801W        W50714   6.137  25.494   8.580  0.1000 -0.1122  0.1420
 7802W        W50715  31.576   7.301  24.238 -0.2541  0.1781 -0.0233
 7803W        W50716  31.861   8.091  18.375 -0.2256 -0.1381  0.1794
 7804W        W50717   4.726   8.764  23.437  0.0525  0.1117 -0.2614
 7805W        W50718  31.475   8.493   4.307  0.0422  0.0863 -0.2894
 7806W        W50719   0.670  11.549  20.303 -0.2251 -0.1701  0.1574
 7807W        W50720   6.239   9.493  21.329 -0.2959 -0.0003 -0.2377
 7808W        W50721  15.236   8.709  18.738  0.3456 -0.0067 -0.4195
 7809W        W50722  29.847   7.543  22.859  0.0871 -0.4068 -0.3199
 7810W        W50723  28.039  12.284  20.062 -0.1990  0.1390 -0.1292
 7811W        W50724  11.287  15.633  22.279 -0.0887  0.1323  0.2455
 7812W        W50725  34.080   3.078  16.436  0.0183 -0.0662 -0.2118
 7813W        W50726   4.765  32.890  25.812 -0.2615  0.2912  0.1091
 7814W        W50727   2.281  12.072  20.249  0.1512 -0.3218 -0.0650
 7815W        W50728  25.836   3.322  20.278 -0.0256  0.1347 -0.2307
 7816W        W50729   7.186   8.804  17.084 -0.0191  0.1976  0.3090
 7817W        W50730  34.098  14.893  25.042  0.2798 -0.0723  0.0131
 7818W        W50731   6.995   7.350  18.098 -0.1674  0.2743 -0.0237
 7819W        W50732  33.686  17.685  24.794  0.1960  0.1439 -0.1163
 7820W        W50733  25.840  12.326  25.758 -0.0191  0.0156  0.2099
 7821W        W50734   8.091  17.051  25.513 -0.0893 -0.0292 -0.1597
 7822W        W50735   2.341  12.695   0.298  0.1744  0.2851  0.3504
 7823W        W50736  11.840  11.151  22.548  0.0087 -0.0924 -0.1002
 7824W        W50737   6.465   8.381  18.162  0.0306 -0.0029 -0.2433
 7825W        W50738   5.467   1.884  17.422  0.2077 -0.2894  0.0216
 7826W        W50739   6.864   5.710  22.207 -0.0791  0.2865  0.1608
 7827W        W50740  28.114  12.364   6.763 -0.0574 -0.0334 -0.0471
 7828W        W50741   5.668   5.234  28.559  0.1646  0.3337 -0.2247
 7829W        W50742  22.473  19.630  16.289  0.1768 -0.2677  0.5427
 7830W        W50743   9.272  12.068  15.460 -0.1341 -0.2326 -0.0330
 7831W        W50744   5.939   9.698  20.100  0.6218 -0.0667 -0.1799
 7832W        W50745  13.845  29.693  17.573  0.1160 -0.0602  0.2457
 7833W        W50746   3.117  16.879  20.809 -0.0811 -0.0029  0.3231
 7834W        W50747   5.105   8.163  20.272  0.0889  0.3515 -0.5072
 7835W        W50748   3.749  11.213  21.569  0.2294 -0.2059 -0.3425
 7836W        W50749  32.459   5.627  26.368  0.0418 -0.0931 -0.1851
 7837W        W50750  32.937  15.119  18.871 -0.1047  0.1068 -0.1938
 7838W        W50751   5.626  12.866  22.804 -0.0728  0.4277 -0.0218
 7839W        W50752   5.343   1.075  24.811  0.2149  0.1259 -0.1196
 7840W        W50753  26.171   0.255  21.448  0.1199  0.2664 -0.3417
 7841W        W50754  26.487   2.155  14.513  0.1269  0.2486 -0.0483
 7842W        W50755   7.328  12.016   2.510  0.1151 -0.2665 -0.0683
 7843W        W50756  24.505  25.608  16.080  0.0331 -0.0159  0.1623
 7844W        W50757   7.612  14.562  23.913  0.3380  0.2719  0.2250
 7845W        W50758  17.437  23.655  18.039 -0.2999  0.1454  0.0642
 7846W        W50759   2.808  28.061  26.507  0.1341  0.2220  0.5368
 7847W        W50760  29.486   3.233  23.081 -0.1647  0.0309  0.1615
 7848W        W50761  31.866  16.413  29.629 -0.0286 -0.1107 -0.0730
 7849W        W50762   6.095  12.818  24.144 -0.0196 -0.0723  0.1469
 7850W        W50763   3.313   2.459  22.601  0.0539 -0.2767  0.0808
 7851W        W50764  23.571   1.944  23.532  0.0680 -0.1291  0.1203
 7852W        W50765   8.843   4.416  23.518 -0.1941  0.0179 -0.2229
 7853W        W50766   5.918   7.002  18.304  0.0367  0.0010 -0.0660
 7854W        W50767   1.688   0.229  16.990 -0.0044  0.0178  0.0451
 7855W        W50768   8.930  11.352  17.762  0.3213  0.2199  0.0460
 7856W        W50769   4.853  19.995  19.828 -0.1324 -0.2158  0.2391
 7857W        W50770   2.947  13.563  26.908  0.0525 -0.1022 -0.1717
 7858W        W50771  26.656  19.223  13.802 -0.2230 -0.1724  0.0979
 7859W        W50772  31.405  16.720  19.464 -0.0460 -0.1039 -0.1946
 7860W        W50773  10.418  33.614  17.898  0.2008  0.0428 -0.1546
 7861W        W50774  27.893   3.518  23.707 -0.2463  0.0794 -0.2966
 7862W        W50775  25.073  16.294  17.716  0.2895 -0.1001 -0.0355
 7863W        W50776  31.450   3.813  18.360 -0.0677 -0.4653 -0.3022
 7864W        W50777  30.818  11.319  26.923  0.0157 -0.0970 -0.0772
 7865W        W50778   0.131   6.319  16.406  0.0407 -0.0282  0.0541
 7866W        W50779  32.155   3.485  18.868 -0.1761  0.0142  0.0580
 7867W        W50780  32.709  13.884  29.215 -0.1856  0.1522 -0.1925
 7868W        W50781   2.593   6.263  26.326 -0.0021  0.0956  0.0641
 7869W        W50782  10.888  13.855  28.873  0.5324 -0.0406 -0.0232
 7870W        W50783   0.329   3.459  10.872  0.3141 -0.1590 -0.0577
 7871W        W50784   1.908   6.120  18.429  0.1065  0.0780  0.0371
 7872W        W50785   2.959   2.636  20.204 -0.0213 -0.0096  0.2317
 7873W        W50786  23.949   4.103  20.112  0.0250 -0.0349  0.0019
 7874W        W50787  27.051   0.777  25.421  0.2489  0.0148  0.2038
 7875W        W50788   1.803   6.581  19.160 -0.0093 -0.0535  0.3739
 7876W        W50789   4.394  32.088   1.921 -0.3370 -0.2905  0.0482
 7877W        W50790  34.402   5.100  22.825 -0.2061 -0.3150  0.2044
 7878W        W50791   2.985  13.606  15.258 -0.1093  0.1758  0.0454
 7879W        W50792  30.042  10.110  15.137  0.0260 -0.3163 -0.3718
 7880W        W50793  32.091   6.027  17.308  0.0397  0.2190  0.0608
 7881W        W50794   4.362  21.617  20.785 -0.1790 -0.2361 -0.0724
 7882W        W50795   9.842   5.620  20.371  0.1389 -0.0996 -0.3696
 7883W        W50796   7.028   4.336  19.208 -0.4469  0.3489 -0.1660
 7884W        W50797  29.043   4.747  22.857 -0.1210 -0.1363 -0.0781
 7885W        W50798  33.376  11.472  21.834 -0.0967  0.0695  0.0225
 7886W        W50799   4.415   5.385  24.042 -0.0988  0.1579 -0.0800
 7887W        W50800  30.710  11.547  19.767 -0.2915 -0.0394 -0.1366
 7888W        W50801   4.053   5.567  23.043  0.4059  0.0018  0.0137
 7889W        W50802  10.975   5.634  26.344  0.0556 -0.4806  0.2095
 7890W        W50803  27.270   8.885  18.405 -0.3463 -0.1669  0.3548
 7891W        W50804   1.145   9.569  20.172  0.1761  0.2443 -0.2055
 7892W        W50805  32.203  18.538  21.019 -0.1015 -0.1784 -0.1055
 7893W        W50806   9.988   7.915  18.399 -0.0203 -0.2255 -0.0343
 7894W        W50807  34.301  18.005  15.001 -0.1264 -0.2859  0.0111
 7895W        W50808  32.934  10.411  16.389  0.3906 -0.0238  0.3787
 7896W        W50809  11.563  31.609  24.293 -0.1295  0.3315 -0.0541
 7897W        W50810   3.670  13.157  15.688 -0.2852 -0.0092 -0.0527
 7898W        W50811  33.446  17.020  20.261 -0.1694 -0.1062  0.0213
 7899W        W50812  33.032  34.413  17.319  0.6345 -0.2942  0.3343
 7900W        W50813  11.265   0.406  18.197 -0.0899 -0.3847 -0.0656
 7901W        W50814  30.198   8.877  15.559  0.1294  0.1708 -0.2635
 7902W        W50815  32.861   5.740  18.577  0.0243  0.0399  0.3586
 7903W        W50816  24.154   8.108  23.738 -0.2323  0.2861  0.0271
 7904W        W50817   6.947   6.138  18.270  0.0253  0.0667 -0.1154
 7905W        W50818  33.364  23.235  27.197  0.1643  0.1423 -0.1647
 7906W        W50819  30.852  12.436  19.010  0.1094  0.3321  0.0689
 7907W        W50820   1.918  12.429  23.103  0.2952  0.2399  0.0850
 7908W        W50821  32.362   0.121  29.245 -0.2627 -0.3390  0.0172
 7909W        W50822   5.433  16.861  21.271 -0.1322  0.1908 -0.3482
 7910W        W50823  10.600  25.886  29.339 -0.1649 -0.2249 -0.1243
 7911W        W50824  12.817   4.484  24.629  0.0850 -0.1370  0.0905
 7912W        W50825  25.983   9.510  26.081  0.1644 -0.0796 -0.2712
 7913W        W50826  26.677   6.331  20.801 -0.1492  0.0249 -0.4643
 7914W        W50827   8.047  10.882  20.988 -0.0568 -0.0166 -0.2631
 7915W        W50828  30.758   4.345  19.977 -0.1490 -0.1180 -0.2890
 7916W        W50829  31.610  28.307  19.617 -0.2734 -0.0764 -0.2272
 7917W        W50830  30.046   2.706  22.720 -0.2548 -0.2402  0.0250
 7918W        W50831  33.624   2.447  28.353 -0.4999  0.2660  0.2317
 7919W        W50832  28.053  14.619  23.228  0.0064  0.0077 -0.0302
 7920W        W50833  33.290  20.434  22.348 -0.0591  0.3125  0.1040
 7921W        W50834  33.405  16.358  24.852  0.0913 -0.0414 -0.1231
 7922W        W50835  32.315   3.006  27.435  0.3294 -0.0558  0.0668
 7923W        W50836   2.190   4.173  21.351  0.4093 -0.3819 -0.3230
 7924W        W50837  33.574   1.213  24.640 -0.3144  0.2689  0.1245
 7925W        W50838   5.988  25.264  18.205  0.1474 -0.3221  0.0670
 7926W        W50839  28.849  11.233  17.158  0.2570 -0.0456  0.1255
 7927W        W50840   8.654  13.232  20.976  0.0965 -0.4485 -0.1628
 7928W        W50841  26.799  10.372  24.579  0.0376  0.2251 -0.0439
 7929W        W50842  26.918   8.698  29.476 -0.1189 -0.2739  0.0199
 7930W        W50843   2.153   9.490   1.971 -0.1966  0.2760  0.0827
 7931W        W50844   2.940   4.967  17.117 -0.1606  0.0090 -0.3916
 7932W        W50845  34.216  29.086  17.448  0.0014  0.0575 -0.1605
 7933W        W50846   6.264   7.643  27.588 -0.1851 -0.0029  0.1254
 7934W        W50847   3.235  16.856  22.777 -0.0849 -0.0604  0.1144
 7935W        W50848   3.755   3.533  19.217  0.1406 -0.1378 -0.0594
 7936W        W50849   6.926   6.031  17.759 -0.0251 -0.1115  0.0792
 7937W        W50850   8.321   7.632  17.273 -0.0425 -0.0245  0.1326
 7938W        W50851   4.348   8.813   0.546  0.0221 -0.2943  0.0698
 7939W        W50852   1.054  31.585  20.155 -0.3698  0.0766  0.0571
 7940W        W50853  23.893  29.722  28.821 -0.1735  0.2807 -0.1234
 7941W        W50854  29.333  19.672  17.288 -0.1670  0.0997 -0.0415
 7942W        W50855   5.077   2.213  24.430 -0.0342  0.1146 -0.0457
 7943W        W50856  31.911  19.634  17.711 -0.0151 -0.0239  0.2855
 7944W        W50857   2.705  14.527  26.291 -0.0772  0.0879 -0.3027
 7945W        W50858  34.219   8.114  22.776  0.3773 -0.1529 -0.0756
 7946W        W50859  15.315   9.804  15.243  0.1733 -0.0348 -0.0419
 7947W        W50860   4.716   3.914  23.794  0.1712 -0.1563  0.3661
 7948W        W50861   6.775  12.955  26.022  0.1128 -0.0581  0.1977
 7949W        W50862   7.374   8.613   2.018 -0.2637  0.2514 -0.6118
 7950W        W50863  32.180  16.342  19.742  0.0982  0.1158 -0.2597
 7951W        W50864  31.806  12.093  19.405  0.0268 -0.2729 -0.3685
 7952W        W50865   8.532  21.871  29.179 -0.2908  0.1337  0.2073
 7953W        W50866  31.403   8.613  16.216  0.0047  0.3507 -0.0370
 7954W        W50867  31.898  11.841  23.693 -0.5618 -0.2781 -0.1157
 7955W        W50868   6.504   8.273  25.767  0.0017  0.0241 -0.3206
 7956W        W50869   0.912   5.499  24.943 -0.5616 -0.1936 -0.1597
 7957W        W50870   1.256   2.653  18.875 -0.0224 -0.0981 -0.2645
 7958W        W50871   5.278   2.200  20.430  0.0189  0.4736  0.0884
 7959W        W50872   2.462  15.314   4.504 -0.1965 -0.2582  0.2856
 7960W        W50873   1.542  13.392  24.019 -0.0667 -0.1810  0.3011
 7961W        W50874  30.119  15.319  20.450 -0.1559 -0.1660 -0.0659
 7962W        W50875   4.130   8.345  18.159  0.1120  0.1542 -0.0563
 7963W        W50876   5.645  21.071  13.280  0.0337  0.0801 -0.1992
 7964W        W50877  32.779   1.178  19.389 -0.1746  0.2306  0.1253
 7965W        W50878   7.869   4.917  24.871 -0.0980  0.2330 -0.3014
 7966W        W50879   4.343  10.445  19.703 -0.1434 -0.0888  0.0604
 7967W        W50880  31.495   0.336  22.963 -0.1452 -0.0757  0.1642
 7968W        W50881  25.853  11.545  19.265  0.2345 -0.1209  0.0113
 7969W        W50882   6.286   8.582  18.635  0.0472  0.1366 -0.2500
 7970W        W50883  31.375   5.882  25.286  0.0989 -0.3408  0.0242
 7971W        W50884  10.781   8.643  21.281  0.1490  0.1160 -0.0155
 7972W        W50885   4.229   0.588  23.482  0.0186  0.1236  0.1797
 7973W        W50886  25.977   1.557  27.648 -0.2964 -0.0855  0.0394
 7974W        W50887  30.833   6.227  21.784 -0.0080  0.0055 -0.0550
 7975W        W50888  29.891   6.446  18.929  0.0417 -0.0530  0.2425
 7976W        W50889  33.677  33.983  18.306  0.1389  0.2372 -0.1191
 7977W        W50890  32.306  14.774  27.791  0.2007  0.2478  0.0481
 7978W        W50891  30.723  10.214  16.480  0.2187 -0.1510 -0.1570
 7979W        W50892  33.080   2.158   2.078 -0.0073 -0.1899  0.0977
 7980W        W50893  33.707  16.890  17.028 -0.0258 -0.0986 -0.1656
 7981W        W50894   6.854  12.731  18.992  0.0412 -0.3323 -0.1968
 7982W        W50895  19.096   0.147  27.534  0.0681  0.0953  0.0446
 7983W        W50896  10.910  14.585  24.315 -0.0076 -0.0918 -0.2679
 7984W        W50897  24.653   1.936  23.908 -0.0498 -0.2842  0.0654
 7985W        W50898  33.495  25.221  23.486 -0.1893 -0.1076 -0.1456
 7986W        W50899   2.165  18.007  16.728 -0.1776  0.2757  0.1161
 7987W        W50900   6.305   6.852  21.312 -0.3022  0.1486  0.0366
 7988W        W50901  28.965   9.978  28.267  0.0395  0.2396  0.0428
 7989W        W50902  17.428   3.006  15.860  0.2374 -0.0206  0.3315
 7990W        W50903  15.476   9.560  17.785 -0.1978 -0.1440  0.1399
 7991W        W50904  33.155   7.583  17.321 -0.0452  0.1443 -0.0534
 7992W        W50905   2.941   4.625  22.067 -0.4955  0.0614  0.0619
 7993W        W50906   1.236   2.305   3.714 -0.1474  0.0810  0.1211
 7994W        W50907  10.378   6.586  16.758 -0.2409  0.1679 -0.1032
 7995W        W50908   0.493  17.841  21.432  0.1212 -0.3923 -0.1813
 7996W        W50909   9.582  23.632  15.095 -0.1697 -0.1071  0.0932
 7997W        W50910  30.570  18.566  26.984 -0.0331 -0.2575 -0.1680
 7998W        W50911  10.183  15.971  21.032 -0.1706 -0.3092  0.0544
 7999W        W50912  15.222  17.714  23.602 -0.1979  0.1245 -0.2026
 8000W        W50913  12.876   3.113  21.900 -0.2691  0.1839 -0.1107
 8001W        W50914  32.853  33.591  26.786 -0.1308  0.1498  0.2009
 8002W        W50915   6.325  31.635  20.412 -0.0290  0.0014  0.0535
 8003W        W50916   3.835  18.859  26.301 -0.0137  0.2846  0.2943
 8004W        W50917   2.709  23.692  16.298  0.1601 -0.1827 -0.0543
 8005W        W50918  14.676  13.185  13.769  0.2464 -0.1778 -0.3434
 8006W        W50919   3.625   0.252  19.898 -0.1062 -0.0823  0.2120
 8007W        W50920  34.000   8.717  17.866  0.1760 -0.3992  0.2377
 8008W        W50921  30.540  18.853  28.029 -0.0493  0.0401  0.1278
 8009W        W50922   0.511  12.307  26.964  0.0099 -0.0949  0.1015
 8010W        W50923   5.654  16.172  26.692 -0.0046 -0.1514  0.2225
 8011W        W50924   0.691   6.226   5.093  0.1979 -0.2424  0.2214
 8012W        W50925  31.823  15.224  26.145 -0.2486 -0.2857  0.0515
 8013W        W50926   2.156   5.731  24.998 -0.1901 -0.2063 -0.0852
 8014W        W50927   8.311   5.151  21.689  0.1147 -0.0496 -0.0130
 8015W        W50928   6.468   7.254   3.302 -0.2149 -0.0081  0.2127
 8016W        W50929  32.115   0.250  24.916 -0.0250  0.2843  0.0841
 8017W        W50930   6.789   6.207  19.229  0.2789  0.1531  0.1656
 8018W        W50931  26.567   9.142  19.319 -0.1465  0.0581  0.1110
 8019W        W50932  12.352  10.740  27.118  0.0050 -0.1297  0.1956
 8020W        W50933  30.721   9.500  21.980 -0.0374 -0.0607  0.1076
 8021W        W50934  14.195   6.809  15.712 -0.2714  0.0099  0.2173
 8022W        W50935   7.435   7.998  25.334  0.1417  0.0150 -0.0931
 8023W        W50936  32.228  14.700  28.685  0.1491  0.2584  0.0271
 8024W        W50937   7.688  12.396  17.135  0.0740 -0.1628 -0.2717
 8025W        W50938  28.984  12.128  28.063  0.1758 -0.1485  0.0390
 8026W        W50939   1.036  13.839  15.066 -0.1521  0.2576 -0.1856
 8027W        W50940   2.778  10.076  19.163 -0.1906 -0.2431 -0.3041
 8028W        W50941   0.355   7.033  24.647  0.5686 -0.0017  0.1176
 8029W        W50942  23.529  19.421  25.801 -0.0845 -0.0254 -0.0303
 8030W        W50943   1.346   9.874  15.670  0.3436  0.2663  0.1950
 8031W        W50944   8.092  14.438  21.247 -0.2315  0.1073  0.2457
 8032W        W50945   9.930   3.601   4.286 -0.0705  0.1735  0.0989
 8033W        W50946  10.210   3.948  19.785 -0.0152 -0.0307 -0.1172
 8034W        W50947   3.018  21.408  19.619 -0.1714  0.0839 -0.2816
 8035W        W50948  10.298   6.822  24.021 -0.3316 -0.0544  0.2831
 8036W        W50949  32.197  33.361  15.513  0.0047  0.0492  0.3403
 8037W        W50950   8.766  12.155  20.698 -0.1864  0.0958 -0.0475
 8038W        W50951  32.125   0.092  26.277  0.0547 -0.1296 -0.0741
 8039W        W50952  33.545  14.477   2.673  0.0443 -0.0558  0.1778
 8040W        W50953   1.537   7.008  19.903 -0.2976 -0.0872 -0.1453
 8041W        W50954   2.754   7.558  17.556  0.0572  0.2955  0.3396
 8042W        W50955   1.032   2.707  21.156  0.0013  0.0333  0.6114
 8043W        W50956   2.331  15.783  22.219 -0.0171 -0.0026 -0.0062
 8044W        W50957   5.641  15.938  13.691 -0.1661  0.0714 -0.0203
 8045W        W50958  30.478   3.569  24.170  0.0865  0.2002  0.0230
 8046W        W50959   1.281  16.313  17.281 -0.1871  0.0686  0.1792
 8047W        W50960  32.083   8.932  20.653  0.0523 -0.2248  0.0563
 8048W        W50961  31.928  10.598  27.220  0.0381  0.0897  0.0848
 8049W        W50962  16.066  19.334  14.618 -0.4902  0.0920  0.2043
 8050W        W50963  30.751   8.732  22.373 -0.0426 -0.1041  0.1517
 8051W        W50964   1.345   5.078  22.940  0.0141  0.0433  0.1198
 8052W        W50965   9.407  18.194  23.145  0.1092  0.0755  0.0159
 8053W        W50966   3.157  34.104   3.245  0.0602 -0.1265  0.3269
 8054W        W50967   4.597  17.106  14.166  0.0100 -0.2137 -0.1830
 8055W        W50968   8.657   5.709  22.897 -0.2462  0.0019  0.0104
 8056W        W50969   7.745  16.119  24.595 -0.1560  0.1340  0.2638
 8057W        W50970  33.021   8.397  19.991 -0.0836  0.0727  0.0757
 8058W        W50971  13.902   6.508  19.559 -0.2901 -0.2309  0.1788
 8059W        W50972  32.623  11.905  25.061  0.0368 -0.0769  0.2249
 8060W        W50973  10.051  14.297  20.763 -0.0321  0.1107 -0.1363
 8061W        W50974  30.263   5.556  24.570 -0.3163  0.2519  0.1574
 8062W        W50975   5.859  12.272  21.480  0.2351  0.0656 -0.0394
 8063W        W50976  22.789  13.687  27.589 -0.1366  0.1146  0.0195
 8064W        W50977   7.603   9.525  22.987 -0.0111  0.1832 -0.3440
 8065W        W50978  30.785   8.663   1.784  0.1228  0.2346 -0.0638
 8066W        W50979  15.478  13.242  26.245 -0.2690 -0.0042 -0.0305
 8067W        W50980   2.607   9.934   0.812 -0.1328  0.0886 -0.0078
 8068W        W50981   6.388  32.448  22.567 -0.1148  0.1788  0.0627
 8069W        W50982   1.754  30.579  25.040 -0.0752  0.1187 -0.1485
 8070W        W50983  33.810  13.325  23.301  0.1095  0.1056 -0.1283
 8071W        W50984   2.013  16.145   0.201  0.0131 -0.0121  0.1004
 8072W        W50985   5.896   3.767  24.520 -0.2025  0.0801  0.2373
 8073W        W50986  29.143  17.013  27.624  0.2155  0.1009 -0.1932
 8074W        W50987   2.731  12.582  27.575 -0.3438  0.2142 -0.3904
 8075W        W50988  28.135  33.693  27.718  0.0358  0.5615  0.0033
 8076W        W50989  33.758   7.107  20.347 -0.2048 -0.2867  0.4795
 8077W        W50990   8.120  13.045  17.533  0.1667 -0.2274  0.0678
 8078W        W50991  14.249  10.177  21.518  0.1183 -0.3749 -0.2548
 8079W        W50992   8.743   6.618  25.678 -0.1579 -0.1422 -0.3113
 8080W        W50993  19.165  12.162  18.458  0.0975 -0.1168 -0.1930
 8081W        W50994  11.315  10.997  25.536 -0.0589  0.0354 -0.0620
 8082W        W50995   4.620  33.654  20.978  0.2869 -0.1153  0.1782
 8083W        W50996  34.183  15.353  14.081 -0.2519  0.3856 -0.0757
 8084W        W50997  29.138   0.834  17.810 -0.3221 -0.2222  0.1226
 8085W        W50998  10.786   0.953  20.345  0.0287  0.0013 -0.2670
 8086W        W50999  11.924  13.971  19.115 -0.1508  0.5167 -0.0794
 8087W        W51000   1.698   5.521  18.604  0.0556 -0.2243  0.1224
 8088W        W51001  30.574   2.088  27.080  0.0745 -0.1323  0.0266
 8089W        W51002  26.012   8.337  28.012 -0.0955  0.1247  0.0975
 8090W        W51003   6.604   9.045  28.531  0.0397 -0.0087 -0.0500
 8091W        W51004  33.836  21.641  27.218 -0.2077  0.4041  0.4005
 8092W        W51005  22.114  10.497  22.583 -0.2478  0.0663  0.2046
 8093W        W51006   4.700   9.420  28.619 -0.0903  0.1116  0.0030
 8094W        W51007   5.965   2.837  20.758 -0.0570  0.0889  0.0289
 8095W        W51008  32.696   8.052  15.842  0.1321 -0.0244 -0.0083
 8096W        W51009   5.155   5.653   3.226 -0.2622 -0.3795 -0.1578
 8097W        W51010   6.405   0.650  25.933 -0.0418 -0.1806 -0.1797
 8098W        W51011   2.512  11.583  22.924  0.1543  0.0320 -0.0225
 8099W        W51012   5.147   9.545  16.730  0.0225  0.0720  0.3726
 8100W        W51013   3.293   2.833  23.495 -0.1548 -0.0274 -0.0586
 8101W        W51014   3.651   4.587  18.588  0.0090  0.1383  0.0644
 8102W        W51015  32.301   7.381   0.514  0.0968 -0.0690  0.4645
 8103W        W51016   3.976  13.027   0.222  0.3996 -0.0890 -0.1607
 8104W        W51017  12.270  28.836  17.821  0.1698 -0.0044  0.5085
 8105W        W51018  28.391   9.410  25.197 -0.3016  0.0404 -0.2965
 8106W        W51019   5.029   8.942  18.978  0.0332  0.2307  0.1465
 8107W        W51020  30.576   3.166  21.000  0.2203  0.2993  0.0493
 8108W        W51021  30.807  10.598  21.318  0.0050  0.2204 -0.1154
 8109W        W51022   9.667  10.185  25.981 -0.0464  0.3433  0.3210
 8110W        W51023   6.234   3.726  22.014  0.0765 -0.2388  0.0484
 8111W        W51024  26.531  27.994  22.027  0.0273  0.2277 -0.3597
 8112W        W51025  13.855   4.774  24.889 -0.2184 -0.0552 -0.0760
 8113W        W51026  10.895   7.745  26.935  0.0193 -0.1119  0.0296
 8114W        W51027   6.327  11.286   3.182 -0.0717 -0.0056 -0.1969
 8115W        W51028   6.130   7.556   5.781  0.0371 -0.0442  0.0815
 8116W        W51029  13.662   6.688  17.931 -0.1044  0.4903  0.0573
 8117W        W51030   7.406   4.011  16.923  0.0137  0.1001  0.1369
 8118W        W51031  32.783  14.891  13.463  0.0358 -0.2158 -0.4016
 8119W        W51032   1.324   4.280  24.588 -0.3589  0.0997  0.1402
 8120W        W51033  10.216   3.428  25.285  0.0101  0.0599 -0.1116
 8121W        W51034  33.612  12.317   8.911  0.0288 -0.2072 -0.0152
 8122W        W51035  31.413  18.227   4.513  0.2822  0.0918 -0.0244
 8123W        W51036   5.924  17.522  21.740 -0.0399  0.0304  0.1957
 8124W        W51037  11.518  11.321  17.606  0.0544  0.2057 -0.1895
 8125W        W51038   4.166  14.362  25.397  0.2601  0.4133 -0.0987
 8126W        W51039   4.598   5.313  25.465 -0.3889 -0.1420 -0.2253
 8127W        W51040   6.910   5.866  25.231 -0.5127 -0.3551  0.0471
 8128W        W51041  30.643  17.342  15.098 -0.1828  0.0816 -0.3177
 8129W        W51042   2.755  12.329  20.672  0.0932  0.2488  0.3320
 8130W        W51043  19.868  10.673  18.064 -0.1003  0.0827 -0.0997
 8131W        W51044   2.879   5.646  19.846  0.0369 -0.1163 -0.2547
 8132W        W51045  12.536  33.835  29.518  0.0217 -0.0981 -0.3088
 8133W        W51046   2.213  13.183  21.507 -0.1038  0.1113 -0.0811
 8134W        W51047  33.726  34.323  19.619 -0.1502  0.3314 -0.1115
 8135W        W51048  31.213  15.404   3.837  0.1594  0.1604  0.0674
 8136W        W51049  32.333  18.366  27.509 -0.2564  0.1272 -0.1508
 8137W        W51050   7.623  11.934  21.007 -0.0580 -0.0098 -0.0985
 8138W        W51051  11.834  34.404  19.997  0.1810 -0.1352  0.3019
 8139W        W51052   7.313  19.546  22.081 -0.1363  0.1310  0.0126
 8140W        W51053   2.728  12.671  15.432  0.1151  0.1348  0.2012
 8141W        W51054   1.521   3.500  22.075 -0.1134  0.0577 -0.3354
 8142W        W51055  28.693  10.073  17.742 -0.2176 -0.2204  0.0961
 8143W        W51056  30.827  11.930  21.867  0.1215  0.0516  0.1794
 8144W        W51057  34.423   8.746  17.486  0.0170  0.1904 -0.1170
 8145W        W51058   9.741  11.340   1.510  0.0930 -0.0906 -0.1396
 8146W        W51059  28.354  14.089  24.394  0.0182 -0.1950  0.0518
 8147W        W51060  28.578  33.901  22.536 -0.1939  0.0396  0.2265
 8148W        W51061  33.951  15.061  24.206 -0.0855  0.4160 -0.1974
 8149W        W51062   2.241  15.205  28.886 -0.1650  0.0045  0.0549
 8150W        W51063  23.981  16.864   4.934  0.0052 -0.0124  0.1245
 8151W        W51064  21.566   6.256  28.566  0.0583  0.2221  0.1197
 8152W        W51065   5.217   5.656  26.106 -0.0555 -0.1062 -0.3157
 8153W        W51066  26.836  33.908  23.628  0.0858  0.0038 -0.1746
 8154W        W51067  34.493   3.000  23.065 -0.1716 -0.1809  0.1860
 8155W        W51068   6.993   1.648  23.645 -0.0549  0.0357 -0.0816
 8156W        W51069   3.055  15.539   2.189 -0.1158  0.1098  0.0743
 8157W        W51070  31.126   0.885  16.232  0.2641  0.1850 -0.2844
 8158W        W51071   3.833  10.905  24.078  0.3706  0.0465 -0.1658
 8159W        W51072  15.110   8.526  21.417 -0.0795 -0.2264 -0.0311
 8160W        W51073   9.923  11.524  28.579 -0.1352 -0.0200 -0.1769
 8161W        W51074  27.589  10.460  20.190  0.0601 -0.5257  0.0258
 8162W        W51075  30.960  17.296  28.121  0.0640  0.0861  0.1078
 8163W        W51076   4.258  15.252  19.345 -0.4188 -0.1808  0.0710
 8164W        W51077  20.527   6.099   1.123  0.0996  0.2435  0.3213
 8165W        W51078  31.111  11.587  14.938 -0.2760 -0.2115 -0.4664
 8166W        W51079   0.760   8.455  28.486  0.1111  0.3009 -0.1458
 8167W        W51080  29.626  21.182  25.349 -0.1006  0.1178 -0.2099
 8168W        W51081   2.222  11.680   1.393 -0.2956 -0.1519  0.2942
 8169W        W51082   7.942  16.126  21.456 -0.0351 -0.0681 -0.0535
 8170W        W51083  32.328  12.805  22.898  0.2723 -0.4102 -0.1831
 8171W        W51084  32.344  12.453  22.471  0.0285 -0.4066  0.0789
 8172W        W51085   0.224  13.540  25.913 -0.2003 -0.0952 -0.2672
 8173W        W51086  23.071  16.388  27.763  0.0249 -0.1854  0.1725
 8174W        W51087  23.160  17.978  19.320  0.0990  0.0798  0.4335
 8175W        W51088  33.945   1.359   1.640  0.1602 -0.1765 -0.0910
 8176W        W51089   6.575  14.035  19.734 -0.0250 -0.0239 -0.4148
 8177W        W51090  28.482   9.749  17.383 -0.0422  0.3074 -0.3390
 8178W        W51091   0.190  12.116  26.096 -0.3343 -0.0593  0.1356
 8179W        W51092   0.693  12.109   0.395  0.1809  0.1183  0.3704
 8180W        W51093  10.805  34.447  25.076 -0.1520 -0.0755 -0.1436
 8181W        W51094   1.793   4.693  26.080  0.2065 -0.1132  0.3805
 8182W        W51095   8.982  20.170   0.102 -0.3317 -0.3045  0.2206
 8183W        W51096  32.587   8.427  21.943  0.0970 -0.0894  0.1388
 8184W        W51097   9.820   5.919  19.876  0.0362 -0.3437 -0.0301
 8185W        W51098   5.161   5.780  22.743 -0.0492 -0.0852  0.0628
 8186W        W51099   4.341   8.035  17.793  0.2547  0.0752  0.0657
 8187W        W51100   3.503  10.464   0.823  0.1919 -0.1446  0.2899
 8188W        W51101   8.097   8.601   1.115  0.1123 -0.0599  0.1933
 8189W        W51102  12.586   7.389  16.150  0.1237  0.0696 -0.0735
 8190W        W51103  10.405   4.242  20.439 -0.1430 -0.2442  0.2148
 8191W        W51104   3.511   9.627  18.324  0.0813 -0.1043  0.0645
 8192W        W51105   3.906   8.125  22.570 -0.1344 -0.2607  0.0818
 8193W        W51106  13.697  11.400  29.618  0.3146 -0.0564 -0.2569
 8194W        W51107  26.378   6.189  19.864  0.0084  0.0827  0.1398
 8195W        W51108  33.814   8.730  18.932 -0.1772 -0.1629  0.0300
 8196W        W51109   3.822   4.362  24.329 -0.1713  0.2330  0.1420
 8197W        W51110  21.616  16.900  28.939  0.0468  0.1744 -0.1663
 8198W        W51111   8.627   8.363  29.261  0.0274  0.0139  0.1950
 8199W        W51112   1.876  14.865   1.800  0.0252 -0.0320 -0.1291
 8200W        W51113  10.093   2.266  24.478 -0.1294  0.1336 -0.2325
 8201W        W51114  32.533   3.308  18.000 -0.1143 -0.0799  0.0673
 8202W        W51115  33.924   9.770  27.398  0.0933 -0.1509 -0.0158
 8203W        W51116  31.678   6.228   4.075 -0.1630  0.1080 -0.0356
 8204W        W51117   2.933  13.439   5.701 -0.2431 -0.1584  0.1073
 8205W        W51118  30.884  15.778  27.270  0.1970 -0.0107 -0.3710
 8206W        W51119   7.862   1.500  24.722  0.0684 -0.0594  0.0079
 8207W        W51120   5.512  16.313  20.456 -0.0540 -0.0191 -0.3830
 8208W        W51121   0.570  23.612   1.297  0.1107  0.1809  0.2028
 8209W        W51122  31.721  11.728  15.797 -0.0908 -0.0671  0.0914
 8210W        W51123  25.614  13.256  25.665  0.0989  0.0708  0.0842
 8211W        W51124   5.009  11.760  23.068 -0.1123 -0.2194 -0.0503
 8212W        W51125  31.096  19.367  17.837 -0.1958 -0.1721  0.1045
 8213W        W51126   6.819  25.951  24.388 -0.0689  0.0244  0.0419
 8214W        W51127   7.554  22.575  29.639 -0.1757 -0.0371  0.1828
 8215W        W51128   5.840  15.905  22.244 -0.2929 -0.1773  0.0163
 8216W        W51129   0.070  14.393  14.227 -0.0305  0.2515 -0.2956
 8217W        W51130   2.603  22.599   2.906  0.1171  0.2494 -0.0730
 8218W        W51131  12.123   1.803  22.694 -0.0481 -0.1491  0.1944
 8219W        W51132  32.371  13.083  21.346 -0.5111 -0.0512 -0.1517
 8220W        W51133   1.149   6.749  18.668 -0.0142 -0.3570 -0.0186
 8221W        W51134  27.423  12.121  29.141 -0.1013 -0.0641  0.1854
 8222W        W51135   1.379   8.662  17.627  0.1402  0.1342 -0.1699
 8223W        W51136  33.533   8.884  17.620 -0.1526 -0.0300  0.0648
 8224W        W51137   1.306   3.326  22.633  0.1084  0.0834  0.2730
 8225W        W51138  29.128  16.339  24.688 -0.1289 -0.4319  0.1248
 8226W        W51139   6.866   7.245  22.586 -0.0583  0.0767  0.1017
 8227W        W51140  32.403   6.994  18.739 -0.1806 -0.2206  0.2012
 8228W        W51141  29.272   3.385  23.840 -0.3234 -0.0437 -0.0827
 8229W        W51142  25.319  17.827  25.468  0.3833  0.1222  0.1574
 8230W        W51143   2.662  12.542   0.664 -0.0830  0.0245  0.0768
 8231W        W51144   0.766  16.468  17.118  0.2304 -0.1053  0.1453
 8232W        W51145  10.987  15.549  14.991  0.0353  0.0914  0.0953
 8233W        W51146   2.066   8.902  22.864  0.1649 -0.0228 -0.1377
 8234W        W51147  11.989  31.521   0.406  0.3068 -0.1240  0.2666
 8235W        W51148  29.191   7.497  23.969  0.1643 -0.1691  0.3277
 8236W        W51149  31.317   1.558   0.243 -0.1345  0.1386 -0.1725
 8237W        W51150   8.585   6.395  28.222  0.1648  0.0279 -0.1383
 8238W        W51151  21.588  11.667  21.158  0.1017 -0.1230  0.3178
 8239W        W51152   8.282  12.635  17.862 -0.0394  0.2875  0.2267
 8240W        W51153  33.598   2.620  24.147 -0.1553  0.0696  0.0004
 8241W        W51154   5.105  12.899  19.227  0.3075 -0.0026  0.0603
 8242W        W51155  25.816  23.807  17.803 -0.1270  0.0178  0.0359
 8243W        W51156   6.324  14.328   0.091  0.0639  0.0466  0.2091
 8244W        W51157  11.030   5.943  24.290 -0.0743  0.2564  0.1207
 8245W        W51158  34.000   5.215  19.948  0.1805 -0.1093  0.3005
 8246W        W51159   4.251   9.365   1.427 -0.0937  0.0318  0.1273
 8247W        W51160  29.800   9.387  16.883 -0.2928 -0.0792 -0.3030
 8248W        W51161   2.335   6.945  26.619 -0.3773 -0.3360  0.2265
 8249W        W51162   4.696  13.343  28.097 -0.0355 -0.1668 -0.1052
 8250W        W51163  29.072  33.649  28.910 -0.0158 -0.0331  0.4373
 8251W        W51164   9.851   7.520  23.535  0.2672  0.1492 -0.2548
 8252W        W51165   4.948  10.469   3.184 -0.2857 -0.1302 -0.0340
 8253W        W51166  29.094   1.481  24.225  0.1676  0.1710  0.0208
 8254W        W51167  10.598   9.905  27.566 -0.1135 -0.0208  0.0513
 8255W        W51168   8.067   2.009   0.094 -0.1161  0.2735 -0.0008
 8256W        W51169   1.717  11.006  21.387  0.1122  0.1281 -0.2658
 8257W        W51170   2.112  15.204  17.829  0.3025 -0.0165 -0.3793
 8258W        W51171   8.671  11.229  24.534 -0.0672 -0.0988  0.3023
 8259W        W51172   4.330  13.211  24.092  0.0208  0.1121 -0.3500
 8260W        W51173  21.534   1.617  18.582 -0.2125 -0.0092  0.0614
 8261W        W51174  27.358   9.378   4.612  0.0109  0.0012  0.0047
 8262W        W51175   3.100  11.182  21.072  0.0382 -0.0067  0.0246
 8263W        W51176  21.132   1.636  28.987 -0.0080  0.3360 -0.0075
 8264W        W51177  31.109  10.082  29.173  0.1043 -0.2677 -0.0453
 8265W        W51178  12.620  31.452  19.456  0.1035  0.2241 -0.1072
 8266W        W51179  10.169   5.771  17.530 -0.0450 -0.0203 -0.2833
 8267W        W51180  26.819  13.082  26.713 -0.0236  0.1194  0.0024
 8268W        W51181   3.073   0.778  16.675 -0.1845 -0.0158  0.0360
 8269W        W51182  32.018   4.890  25.814 -0.2149 -0.1242  0.0675
 8270W        W51183  33.602   8.894  27.145  0.0972  0.1285  0.0660
 8271W        W51184   2.607   9.524   1.725 -0.1291  0.1875  0.0589
 8272W        W51185  10.482   8.605  24.513 -0.1890 -0.3945 -0.3072
 8273W        W51186  33.703   9.251  21.288  0.1686  0.2645 -0.0336
 8274W        W51187  25.369  13.943  22.368 -0.0800 -0.0847 -0.1159
 8275W        W51188   0.432  15.247  19.161  0.3456 -0.0052 -0.1307
 8276W        W51189   2.900  20.141   4.644 -0.0879  0.1853  0.1075
 8277W        W51190  16.217   3.559  21.928  0.1036 -0.1436  0.0438
 8278W        W51191  32.387   6.811  19.625 -0.0586  0.2661 -0.1553
 8279W        W51192  33.142   5.153  24.822  0.1555 -0.1264 -0.3476
 8280W        W51193   9.187  26.742  27.241  0.0431  0.0594 -0.0631
 8281W        W51194  30.874   1.564   3.898 -0.2061 -0.1158 -0.2944
 8282W        W51195  32.977   3.031  20.919  0.0705  0.0946  0.2262
 8283W        W51196   1.003  13.075  17.620 -0.0832 -0.3050  0.1531
 8284W        W51197  32.564  16.984  23.479 -0.2222 -0.1663  0.0384
 8285W        W51198   6.669  13.166  23.520 -0.1686 -0.1414 -0.1918
 8286W        W51199  30.192  16.094  16.040 -0.2157 -0.0839 -0.1705
 8287W        W51200   1.550   7.928   3.957  0.0680  0.0887  0.0195
 8288W        W51201   1.942  33.692  23.485  0.3160  0.1596 -0.1436
 8289W        W51202  33.404  10.188  21.459 -0.1450  0.2329  0.0113
 8290W        W51203   9.141  12.398  27.181  0.0211 -0.2205  0.1136
 8291W        W51204   6.565  13.149  21.357 -0.1043  0.1874  0.0277
 8292W        W51205  24.453  16.648  25.061 -0.0670 -0.1745 -0.1149
 8293W        W51206  30.848  31.225  21.258 -0.1088  0.1771  0.2610
 8294W        W51207   4.196  16.719  25.043  0.0939 -0.2819  0.1204
 8295W        W51208   6.457   5.025   1.637  0.1115 -0.0323 -0.1070
 8296W        W51209   4.599   4.845  21.842  0.4738  0.1744  0.0846
 8297W        W51210  24.591  18.984  25.654  0.0137 -0.1349  0.1467
 8298W        W51211  32.434   1.197  19.845  0.1151  0.0584 -0.0989
 8299W        W51212  29.242  12.894  18.071  0.2230  0.0710  0.1405
 8300W        W51213   3.866  11.777   2.100  0.0139  0.4852 -0.0923
 8301W        W51214   4.285  19.164  28.264 -0.0474  0.0315 -0.1436
 8302W        W51215   1.181  16.024  23.587 -0.0926 -0.1124  0.1571
 8303W        W51216   7.779   9.504   3.075  0.1420 -0.2765  0.1653
 8304W        W51217   0.443  12.223  17.299 -0.0855 -0.3969  0.0815
 8305W        W51218  30.135   7.957  20.400  0.1705  0.2497  0.0525
 8306W        W51219  32.122   7.419  18.755 -0.0310  0.1371 -0.1758
 8307W        W51220  30.589   9.282  26.180 -0.2834 -0.1950  0.0598
 8308W        W51221   6.807  31.032  28.859 -0.0982  0.2482  0.4646
 8309W        W51222  29.143  13.231   8.705 -0.0783  0.2910  0.0382
 8310W        W51223   7.630  33.195  22.040  0.0521 -0.2174 -0.0144
 8311W        W51224  32.940   8.343   6.637 -0.1240 -0.0474 -0.0456
 8312W        W51225   3.953  12.857  17.161 -0.2025  0.1051 -0.0370
 8313W        W51226  29.461   8.782  21.881 -0.0761  0.0042  0.0474
 8314W        W51227  12.800  13.524  15.772  0.1475  0.1867 -0.2384
 8315W        W51228   4.639  13.069  18.347  0.1414  0.0900 -0.2155
 8316W        W51229  34.484   7.248   3.779  0.0408 -0.1275 -0.0735
 8317W        W51230  32.840   9.073  17.035 -0.1660 -0.1245 -0.1454
 8318W        W51231  29.812   6.914  29.221  0.2408 -0.1198  0.0722
 8319W        W51232  23.068   3.617  24.325  0.1634  0.0448 -0.1027
 8320W        W51233  10.795  20.053  28.297 -0.0395 -0.1986  0.0557
 8321W        W51234  18.206  20.180  28.993  0.1422 -0.0050  0.3905
 8322W        W51235   3.990  11.192  27.883 -0.0891 -0.1204 -0.0371
 8323W        W51236   4.720  14.317   0.197 -0.1574  0.0421  0.1961
 8324W        W51237   9.261  16.376  22.716  0.1047  0.2524 -0.2764
 8325W        W51238   9.910   8.287  26.578 -0.0966 -0.2522  0.2430
 8326W        W51239  27.380   9.212  20.962  0.1213 -0.1581  0.1885
 8327W        W51240   9.465   3.359  20.847 -0.1126  0.3022  0.0066
 8328W        W51241   6.413  10.432  24.083 -0.0328  0.0542 -0.3203
 8329W        W51242  29.426  14.654  26.046  0.1827  0.3735  0.1000
 8330W        W51243  27.832   7.802  18.889 -0.0243  0.0940 -0.0519
 8331W        W51244  30.313   5.404  27.883  0.1941  0.0318  0.0300
 8332W        W51245   8.539   6.607  20.277 -0.3633  0.2768  0.4944
 8333W        W51246   9.457  18.007   4.271 -0.2652  0.2299  0.0615
 8334W        W51247   6.693  16.464  19.418 -0.1552  0.4623 -0.4006
 8335W        W51248  33.005   8.904  18.789  0.2587  0.0107 -0.0207
 8336W        W51249   2.521   2.614  19.888  0.0234  0.0038  0.1992
 8337W        W51250   9.805  32.667  17.617 -0.0680  0.0812 -0.0391
 8338W        W51251  12.325   0.360  22.946 -0.4100 -0.1671  0.2431
 8339W        W51252   8.175   4.812  18.016 -0.1046 -0.0692  0.0187
 8340W        W51253  34.183   8.135  17.357  0.1346  0.0038  0.1373
 8341W        W51254  29.021   8.053  24.021 -0.3141  0.0385 -0.0816
 8342W        W51255   5.916   9.890  21.871 -0.0252 -0.1427  0.1046
 8343W        W51256   1.113   8.449  28.059 -0.0503  0.0588  0.0341
 8344W        W51257  30.579   4.554  24.232 -0.1863  0.0881 -0.3219
 8345W        W51258   4.946   6.285  22.835  0.1519  0.2658 -0.0808
 8346W        W51259   1.405   2.724   0.395 -0.3183  0.3628  0.3978
 8347W        W51260  33.652   8.485  21.122  0.0121 -0.1069 -0.5501
 8348W        W51261  10.183   8.619  22.838 -0.0214 -0.2855 -0.0500
 8349W        W51262  11.692   9.320  19.172 -0.0235 -0.0731 -0.2262
 8350W        W51263  32.642  19.711  26.817 -0.0547 -0.2973 -0.1286
 8351W        W51264  13.845   9.462  17.950 -0.2440  0.0138  0.2172
 8352W        W51265  30.654  12.841  24.880  0.1330 -0.4215  0.2524
 8353W        W51266  30.964  20.241  26.342  0.0443  0.1565 -0.2138
 8354W        W51267  27.482  11.148  23.060  0.1504 -0.1509  0.1168
 8355W        W51268   0.052   0.120  22.292 -0.1027 -0.0021  0.3114
 8356W        W51269  32.390  17.664  29.370 -0.1153 -0.0365  0.1138
 8357W        W51270  10.908  16.199  16.213 -0.0533  0.0489  0.0823
 8358W        W51271  12.289  30.579   4.247  0.2052  0.1626 -0.0708
 8359W        W51272   0.133  12.448  20.486 -0.1266 -0.0452  0.0349
 8360W        W51273   4.105  11.716  18.967 -0.0568 -0.2672  0.0961
 8361W        W51274   5.244   9.546  29.557  0.2391 -0.0265  0.1326
 8362W        W51275   3.389   8.652  18.053 -0.0682  0.1375 -0.0981
 8363W        W51276   6.732  10.192  24.443  0.1323 -0.0809  0.3071
 8364W        W51277  31.499   6.524  19.966 -0.0710 -0.0751  0.0402
 8365W        W51278  29.669  12.962  26.948  0.1725  0.1444  0.0145
 8366W        W51279   5.614  11.550   5.670 -0.1775  0.0861  0.3145
 8367W        W51280  32.452  14.234  21.099 -0.1999 -0.3745 -0.0072
 8368W        W51281   5.269  32.189  16.560 -0.0714 -0.1723 -0.0959
 8369W        W51282   7.535   9.869  28.650 -0.0536  0.0977  0.0320
 8370W        W51283  30.735  14.677   2.756 -0.1815 -0.1741  0.3671
 8371W        W51284   2.889  10.373  29.772  0.0106  0.0195  0.0341
 8372W        W51285  29.007  21.914  26.976 -0.2056 -0.0071 -0.0557
 8373W        W51286   3.849  12.263  28.078 -0.1683 -0.1522  0.0689
 8374W        W51287  34.286   5.362  16.246 -0.2396  0.2623 -0.0414
 8375W        W51288  31.663   2.822  17.131  0.0162  0.3517 -0.0742
 8376W        W51289   6.652  15.402  19.154 -0.4039  0.0758  0.2580
 8377W        W51290   6.887   0.884  19.870  0.0143  0.0134  0.1006
 8378W        W51291  31.992   6.388  21.323 -0.0674 -0.0910  0.0888
 8379W        W51292   6.491   1.534  27.058  0.1587 -0.1792 -0.2220
 8380W        W51293  27.302  10.476  27.241  0.1384 -0.2429 -0.0854
 8381W        W51294   7.585   5.281  26.244  0.3417  0.1122  0.0821
 8382W        W51295   6.086  12.798  18.728  0.2119  0.0524  0.0029
 8383W        W51296   8.445   6.851  19.867 -0.3604  0.2706 -0.0227
 8384W        W51297  33.823  33.227  17.192 -0.0177  0.0976  0.0848
 8385W        W51298   8.396   3.701  22.463 -0.0253  0.1011  0.0945
 8386W        W51299  27.644   0.981  26.808  0.0733  0.0756  0.0477
 8387W        W51300   1.123  10.288  22.893 -0.0341  0.2566 -0.4187
 8388W        W51301  33.348  13.838  27.854 -0.0447 -0.1277 -0.1219
 8389W        W51302  32.948  10.644   9.749  0.0239 -0.2908 -0.0640
 8390W        W51303  16.266   9.392  21.070  0.1205 -0.1683 -0.0540
 8391W        W51304   2.272   3.238  26.751  0.1692  0.3040 -0.0418
 8392W        W51305   6.088  11.279  26.915  0.1705 -0.0025 -0.0442
 8393W        W51306   3.402   6.734  25.374 -0.1158 -0.2612  0.0930
 8394W        W51307  16.757   2.592  19.089 -0.0014  0.0867  0.1835
 8395W        W51308  14.150   4.416  25.144  0.1249  0.1925  0.1996
 8396W        W51309   0.163  15.900  20.203 -0.0316 -0.0629 -0.0879
 8397W        W51310   7.941   4.488  23.242  0.2167 -0.1972 -0.0318
 8398W        W51311   9.391  20.489  28.305  0.0289  0.2176 -0.4580
 8399W        W51312   7.161   9.242  23.765  0.3060 -0.1629 -0.0334
 8400W        W51313  28.148  13.604  27.804  0.0527  0.1826  0.1257
 8401W        W51314  10.698  32.099  17.764 -0.1374 -0.2249 -0.3377
 8402W        W51315   3.228   6.837  19.012  0.0608  0.0768  0.3925
 8403W        W51316  26.293  16.936  24.605 -0.1208  0.1276  0.1402
 8404W        W51317   9.058   6.668  26.503 -0.2546 -0.0858  0.1904
 8405W        W51318   3.177   8.246  24.367  0.0976  0.1931  0.1641
 8406W        W51319   1.741  34.337  24.012 -0.0978 -0.0918 -0.0803
 8407W        W51320  32.768  33.937  17.232  0.1888  0.2686 -0.1706
 8408W        W51321   1.523  16.684  18.533 -0.2075 -0.1225 -0.0815
 8409W        W51322   6.154  12.058   0.448 -0.1488 -0.1790 -0.0717
 8410W        W51323   1.094   7.089  18.158  0.1773  0.1198  0.1116
 8411W        W51324  25.800   4.645  15.959 -0.0021 -0.0973  0.0290
 8412W        W51325   3.743   1.937  18.736  0.0842  0.0951  0.2389
 8413W        W51326   6.396   8.001  19.196  0.1558 -0.1738  0.1264
 8414W        W51327   7.250  18.121  26.603  0.2799  0.0639  0.0197
 8415W        W51328  25.983   8.051  24.484  0.2809 -0.0595  0.1776
 8416W        W51329   9.565  28.611  20.807 -0.1951 -0.1943  0.0925
 8417W        W51330  30.400  15.311  27.993 -0.1534 -0.1301 -0.0703
 8418W        W51331   7.517  20.218  19.559 -0.0886 -0.1591 -0.1031
 8419W        W51332   6.447   9.194  28.102 -0.2609  0.0329  0.0622
 8420W        W51333  30.388  16.619  16.882  0.0052  0.2336  0.0781
 8421W        W51334  25.863  18.220  25.879  0.1902 -0.5278 -0.1853
 8422W        W51335  12.483  29.336   3.808 -0.1029  0.0132  0.1129
 8423W        W51336   2.292   6.206  23.309 -0.0607 -0.0232  0.0901
 8424W        W51337  29.235  27.415   5.215 -0.2796 -0.1403  0.0082
 8425W        W51338  29.321   7.288  21.978 -0.0124  0.1096 -0.1201
 8426W        W51339   9.486   4.067   2.798  0.3729 -0.1023 -0.0242
 8427W        W51340  27.168  10.122  24.231  0.3107  0.2281  0.0607
 8428W        W51341   5.357  11.685  29.192  0.0305 -0.3397  0.0978
 8429W        W51342   3.081  19.323  24.653  0.2097 -0.2439 -0.5212
 8430W        W51343  12.239  34.009  16.714  0.0773 -0.1325  0.1681
 8431W        W51344   6.358  27.845  20.850 -0.1155 -0.0075 -0.0705
 8432W        W51345   7.032   8.194  26.375 -0.0723 -0.1384 -0.0889
 8433W        W51346   4.599   9.608  23.032  0.2896  0.2863  0.1249
 8434W        W51347  25.269  16.034  21.136  0.0884  0.0705  0.2830
 8435W        W51348   0.147  27.082  28.895 -0.2225 -0.2559  0.0304
 8436W        W51349   0.246   8.873  26.466 -0.1380 -0.0073 -0.1470
 8437W        W51350  13.021  19.188  26.882  0.1783 -0.0751  0.0156
 8438W        W51351  32.171   5.597   6.076  0.0810  0.0482  0.0917
 8439W        W51352   3.984   5.737  21.078 -0.1934  0.0870 -0.0488
 8440W        W51353  27.718   2.300   5.167 -0.1134 -0.2733  0.0052
 8441W        W51354  22.460   6.668   4.573  0.0316 -0.2044  0.0599
 8442W        W51355   3.028   9.059  24.273 -0.2506 -0.3044  0.0556
 8443W        W51356  24.310  11.661  21.660 -0.2678  0.0333  0.0653
 8444W        W51357   8.271   8.719  26.359 -0.4393  0.4301 -0.0651
 8445W        W51358  31.348  22.060  19.209  0.2584  0.0600 -0.0473
 8446W        W51359  30.599   0.545   6.400  0.0977 -0.1455  0.1572
 8447W        W51360  34.143  10.896   9.356 -0.4070  0.0919 -0.0200
 8448W        W51361   2.191   2.058  29.169 -0.1759  0.2754 -0.3450
 8449W        W51362  13.775  13.570  29.282 -0.0299  0.0413  0.1469
 8450W        W51363   5.013  11.775  17.238 -0.1338 -0.0335 -0.1507
 8451W        W51364   9.524   9.089  25.943 -0.4036  0.0104  0.3264
 8452W        W51365  33.876   7.800  28.521  0.1015 -0.0166 -0.2512
 8453W        W51366  32.419   5.535  23.314 -0.0980 -0.2070  0.0683
 8454W        W51367   5.762  16.135  21.237  0.0018 -0.1482 -0.2336
 8455W        W51368   0.356   9.853  25.144 -0.0759  0.0669  0.0351
 8456W        W51369   9.281   1.466  22.945  0.0557 -0.1462  0.0054
 8457W        W51370  33.419   9.319   0.360 -0.2198 -0.1275  0.2149
 8458W        W51371  18.811  10.311  28.685 -0.1605  0.1365  0.1174
 8459W        W51372  18.217   2.397   1.822  0.2860  0.2278 -0.0609
 8460W        W51373  33.790   6.062  23.275  0.0616 -0.0655 -0.2713
 8461W        W51374  29.164  12.955  25.337  0.0285  0.1694  0.2735
 8462W        W51375  30.456   4.798  17.459  0.4017 -0.0675 -0.0452
 8463W        W51376   9.882  11.285  19.373 -0.0016 -0.1637  0.0413
 8464W        W51377   1.559  13.712  22.414 -0.0122 -0.2538 -0.1441
 8465W        W51378   0.923  16.940   0.833 -0.3019  0.3629  0.3638
 8466W        W51379  27.121  12.800   1.893 -0.2177  0.3742  0.1504
 8467W        W51380  23.885  12.450  13.357 -0.2318 -0.3187 -0.3424
 8468W        W51381  32.890   2.151  20.624  0.2797  0.1611 -0.2047
 8469W        W51382  27.282  10.268  14.733 -0.0519 -0.0119 -0.0107
 8470W        W51383   4.335  11.044  18.548 -0.1057  0.3394 -0.0222
 8471W        W51384  26.399   5.972  29.747  0.1813  0.0298  0.1067
 8472W        W51385  23.136   3.790  26.203 -0.3528  0.1778  0.3614
 8473W        W51386  28.202  13.872  27.005 -0.0445  0.2324 -0.3018
 8474W        W51387   0.240   7.424  26.886 -0.3256 -0.1526 -0.0844
 8475W        W51388   7.443  13.775  17.840 -0.0238  0.2925 -0.1426
 8476W        W51389   2.391  32.604  28.916 -0.0756 -0.2209 -0.0328
 8477W        W51390  33.977   2.368  27.096  0.1896 -0.1156  0.4923
 8478W        W51391   2.131   4.890   1.637 -0.0467  0.1304 -0.0095
 8479W        W51392   9.830   5.151  18.095 -0.0000 -0.0638 -0.0886
 8480W        W51393   1.031   7.533  21.553  0.1525 -0.0885  0.0176
 8481W        W51394  28.884  11.806  14.214 -0.0347  0.0028 -0.0295
 8482W        W51395  33.904  14.329   1.783 -0.3826  0.3013  0.1413
 8483W        W51396  30.012   0.433   0.453 -0.1123 -0.1135  0.2974
 8484W        W51397  26.829   9.611  21.073  0.2426  0.1495  0.0505
 8485W        W51398  28.043  10.137  20.055 -0.0390 -0.0031 -0.0600
 8486W        W51399  12.880  32.982  22.251 -0.1530 -0.1541 -0.1416
 8487W        W51400   1.322   4.595  23.796  0.1800  0.0228 -0.2948
 8488W        W51401   0.382  12.873  18.784 -0.0594 -0.0286 -0.0381
 8489W        W51402   3.796  14.126  14.920  0.1492  0.0191  0.0071
 8490W        W51403   8.290  14.125  22.977  0.3673 -0.1092 -0.1283
 8491W        W51404   7.108   3.109   0.375  0.0310  0.0279 -0.0483
 8492W        W51405  29.614   7.487  21.509 -0.3585  0.1484 -0.4014
 8493W        W51406   7.065  12.246  28.481  0.0962 -0.1774 -0.2154
 8494W        W51407   4.223   4.858  23.314  0.2197 -0.2590 -0.1255
 8495W        W51408  33.197  16.330  20.948  0.2829  0.1393 -0.0034
 8496W        W51409   6.214   5.523  21.002  0.4088  0.0351 -0.0192
 8497W        W51410   9.985   8.190   6.537  0.0408  0.0739 -0.0813
 8498W        W51411  28.319  25.191  27.398  0.0484 -0.1104 -0.0952
 8499W        W51412  30.205   5.831  21.925 -0.0080  0.1428 -0.2841
 8500W        W51413  11.695   4.457  25.602 -0.0247  0.2394 -0.2123
 8501W        W51414   6.459  13.284  25.769  0.2828 -0.2666 -0.0124
 8502W        W51415   8.657   9.593   3.112 -0.1328  0.2799 -0.0256
 8503W        W51416  22.988   1.491   2.733 -0.1598  0.1625 -0.1481
 8504W        W51417   1.990  15.406   4.370 -0.2878 -0.1118  0.1306
 8505W        W51418   0.093  10.765   0.817 -0.0970 -0.0606  0.0775
 8506W        W51419   6.097  33.097  27.347  0.2171 -0.1718  0.2442
 8507W        W51420  26.663  17.166  24.873  0.2759  0.0870  0.0298
 8508W        W51421   1.074  13.870   6.823  0.3848 -0.0743 -0.0022
 8509W        W51422   4.664  34.137  26.501 -0.1517  0.3180  0.0223
 8510W        W51423   5.181   9.052   0.904  0.4558 -0.0500 -0.0229
 8511W        W51424  29.663  16.026  20.022  0.0163  0.0204  0.2569
 8512W        W51425   9.449   7.020   3.942  0.2266 -0.3802 -0.0589
 8513W        W51426  14.372  17.350   6.019 -0.1036 -0.4533 -0.0136
 8514W        W51427   9.214  13.386   7.038 -0.0321 -0.1308  0.2869
 8515W        W51428   6.508   0.611  28.270  0.1207 -0.3278 -0.1823
 8516W        W51429   1.547  14.602   2.207  0.2447 -0.0304  0.0446
 8517W        W51430  32.547  11.266  26.875 -0.0316 -0.2128 -0.2779
 8518W        W51431  31.035  10.247  26.354 -0.0287  0.0629  0.1312
 8519W        W51432   0.286  10.325  17.112 -0.1986  0.2367 -0.0703
 8520W        W51433  29.016   6.445   0.458  0.2420  0.0524  0.0525
 8521W        W51434  27.654  16.928  26.973  0.0130 -0.1020  0.4260
 8522W        W51435  12.096  16.156  19.433  0.0704 -0.1899  0.3479
 8523W        W51436   5.207  14.779  28.901 -0.0826  0.2757  0.0530
 8524W        W51437  11.622   2.464   5.205  0.2500 -0.0118 -0.1160
 8525W        W51438   5.554   6.613   2.657  0.1101  0.1419 -0.0544
 8526W        W51439   6.218   4.771  26.293  0.2173 -0.2189  0.3189
 8527W        W51440   3.965  14.960  28.535 -0.2267 -0.0683 -0.2693
 8528W        W51441  19.906   4.598   3.844  0.1135 -0.2449 -0.1372
 8529W        W51442  29.545  12.848  19.057  0.0916  0.0401 -0.3959
 8530W        W51443   8.061  11.653  25.743  0.2891  0.0531  0.3838
 8531W        W51444   2.113   5.355  22.688 -0.0296  0.3374  0.1867
 8532W        W51445   1.318   6.274  24.825  0.1148 -0.0564 -0.0406
 8533W        W51446  11.100   6.028  26.571 -0.0757  0.1405  0.0480
 8534W        W51447   5.890  31.344  19.633 -0.0768 -0.0936  0.0266
 8535W        W51448  30.957  14.815   8.876  0.4097 -0.0017  0.1580
 8536W        W51449   2.569   8.216  19.253  0.3385  0.0757  0.1287
 8537W        W51450  32.289  11.073  16.273 -0.1010  0.0222  0.1751
 8538W        W51451   5.451  11.611   6.171  0.0960  0.1487  0.2583
 8539W        W51452   4.392  19.751  22.433  0.2020 -0.1474 -0.2805
 8540W        W51453   3.986   3.919  24.463  0.0382 -0.0205  0.3816
 8541W        W51454  31.885  17.466  27.346 -0.2774  0.0693  0.0711
 8542W        W51455  32.663   9.211  27.260 -0.1756 -0.0052 -0.0392
 8543W        W51456   4.301  14.609  26.075 -0.1472  0.0988  0.1957
 8544W        W51457   9.204  13.044  29.465 -0.1266 -0.1158  0.2910
 8545W        W51458  22.846   0.343   0.886  0.0737  0.0327 -0.2198
 8546W        W51459   3.284  11.546  23.711 -0.0303  0.3314  0.1379
 8547W        W51460   5.938   0.106  28.055 -0.0336 -0.2009 -0.0384
 8548W        W51461   4.498   3.963  25.407  0.0199 -0.2458 -0.0150
 8549W        W51462  12.343   8.434  27.201  0.4014  0.2352  0.1317
 8550W        W51463   2.561   6.078  21.177  0.2046 -0.0438  0.3108
 8551W        W51464   7.264   8.963  28.646 -0.0892  0.2678  0.1106
 8552W        W51465   4.023  14.460   1.918 -0.0724 -0.3572  0.4351
 8553W        W51466  22.582  11.223  24.288  0.2019 -0.0325 -0.1813
 8554W        W51467   0.329  18.360  18.466  0.1803 -0.0492 -0.1759
 8555W        W51468   5.154  10.355   8.050 -0.2066 -0.1534 -0.0881
 8556W        W51469  31.400  23.300  26.965 -0.2101 -0.0794 -0.4817
 8557W        W51470   6.304  29.625  20.140 -0.1590  0.0414  0.1318
 8558W        W51471  33.344  11.951  24.201 -0.2880  0.1009  0.2348
 8559W        W51472  11.256  14.747   3.578 -0.1840 -0.0453  0.1798
 8560W        W51473  25.281  17.706  20.799 -0.3408  0.0875  0.0910
 8561W        W51474   9.477  11.995  26.705  0.1344  0.2640 -0.0696
 8562W        W51475   4.419  16.197  16.772  0.0598  0.0385  0.0671
 8563W        W51476  34.201   7.098  21.402 -0.0182 -0.1867  0.2855
 8564W        W51477  32.568  13.134  13.796 -0.1226 -0.0273  0.3305
 8565W        W51478   5.022   8.912  27.416  0.1162  0.0552  0.1883
 8566W        W51479  33.419   8.514  26.357  0.0592  0.0453  0.3660
 8567W        W51480  32.177  11.961  27.463 -0.0037  0.1036  0.1681
 8568W        W51481  31.332  23.308  23.194 -0.1077 -0.1003 -0.2410
 8569W        W51482   7.674   4.795  21.525 -0.1826 -0.1574 -0.2374
 8570W        W51483  31.102  20.127  20.053 -0.0097  0.4009  0.1141
 8571W        W51484  30.310  33.555  20.684 -0.0029  0.1314 -0.1914
 8572W        W51485  30.526  17.252   1.445  0.1203  0.0744 -0.0703
 8573W        W51486  30.869   0.229  24.565 -0.2723 -0.1032 -0.0844
 8574W        W51487  34.480  19.577  20.520  0.1226  0.0307 -0.0026
 8575W        W51488   6.814   9.950  20.380  0.0653 -0.1552 -0.2018
 8576W        W51489   8.487  10.013   4.074  0.3167 -0.2254  0.0700
 8577W        W51490   7.667  16.989  22.981  0.2113 -0.1746  0.2784
 8578W        W51491  28.598   9.560  26.604 -0.4503 -0.0202 -0.0428
 8579W        W51492   3.615  14.780  27.520  0.0589 -0.0032 -0.0246
 8580W        W51493  30.575  14.596  20.279 -0.0439 -0.1304 -0.0903
 8581W        W51494  29.499  10.114  28.042  0.2949  0.1072 -0.0911
 8582W        W51495  13.831  18.464  23.665 -0.2453  0.0348  0.0093
 8583W        W51496  31.155   6.379  19.174  0.0651  0.0427 -0.1248
 8584W        W51497   3.773  11.591   5.036  0.2606 -0.0478 -0.1706
 8585W        W51498  29.375   9.647  19.491 -0.0397 -0.0406  0.2484
 8586W        W51499  31.136   7.741  29.723 -0.1031  0.0372 -0.2376
 8587W        W51500  25.700  32.624  29.679 -0.2740  0.0995  0.1479
 8588W        W51501   7.887   7.903  20.698  0.2279  0.1611  0.1754
 8589W        W51502   5.264  30.605   1.345  0.2339 -0.0751 -0.2799
 8590W        W51503   7.313  10.100  25.110 -0.2111  0.2784  0.0442
 8591W        W51504   6.150   9.299  27.319 -0.1599 -0.3752 -0.1337
 8592W        W51505  33.926  10.568  24.386  0.0051 -0.0793 -0.2747
 8593W        W51506  33.431  10.089   1.224 -0.2193 -0.1128  0.3625
 8594W        W51507   7.533  12.395   2.026  0.2982 -0.0205 -0.0677
 8595W        W51508   2.851   5.074  25.181  0.0087  0.3234  0.1407
 8596W        W51509  22.059  12.694   7.300  0.0230 -0.0251 -0.0406
 8597W        W51510  31.630  20.436  18.022 -0.0464 -0.0495 -0.1745
 8598W        W51511   1.882  18.046  28.489 -0.0100  0.1523 -0.1090
 8599W        W51512   1.484  15.749  28.273  0.0798 -0.0182  0.2277
 8600W        W51513   1.658   1.991  29.588 -0.0265 -0.0027 -0.0240
 8601W        W51514   2.658   4.129  21.514  0.0480 -0.0055 -0.0641
 8602W        W51515   0.847  10.963   0.785 -0.1392  0.1900 -0.3246
 8603W        W51516  32.344   3.258  26.485 -0.1709  0.0254  0.0651
 8604W        W51517  12.450   6.120  21.400 -0.1617 -0.0405  0.1021
 8605W        W51518   5.394  12.660  23.618 -0.1552 -0.0534  0.0244
 8606W        W51519  29.157  17.611   2.632 -0.0184  0.0553  0.2054
 8607W        W51520  16.489  33.094   1.072  0.2394  0.1050  0.0215
 8608W        W51521   8.699  12.615  27.293  0.0027  0.0443 -0.1326
 8609W        W51522  10.631   3.456  19.038 -0.0207  0.1906 -0.1354
 8610W        W51523  30.491  13.868  26.381 -0.3733 -0.2404  0.1616
 8611W        W51524   2.195  16.558  19.615  0.1284  0.0296  0.0948
 8612W        W51525   1.977   5.083  20.786  0.2062  0.1436  0.0801
 8613W        W51526  30.337   0.971  17.166  0.1186  0.0010 -0.1378
 8614W        W51527  12.231  15.225  12.867  0.0491  0.0216 -0.1705
 8615W        W51528  26.195  11.326   3.690 -0.0453  0.1711 -0.1667
 8616W        W51529   9.239   9.501  18.790 -0.1707 -0.1172 -0.2979
 8617W        W51530  32.215  13.713  17.443  0.0843 -0.1191  0.1646
 8618W        W51531  29.168  13.347  28.168 -0.0698 -0.1395 -0.2357
 8619W        W51532   9.315  17.423  24.649  0.1612  0.1396  0.2155
 8620W        W51533   9.618  12.208  19.608  0.0673 -0.2837 -0.4114
 8621W        W51534   0.950   1.588  21.539 -0.1840  0.3397  0.1340
 8622W        W51535  18.806  25.426  25.393 -0.0600 -0.0919  0.1005
 8623W        W51536   6.258   5.849  21.477 -0.2519  0.0794 -0.2495
 8624W        W51537  10.648  22.910  26.517  0.0160  0.0595 -0.0015
 8625W        W51538   3.039  12.540  16.975 -0.2585  0.0767  0.2078
 8626W        W51539   4.261  12.760   7.179  0.3430 -0.3335 -0.0775
 8627W        W51540  28.200  19.377  24.756  0.2408 -0.1686 -0.3073
 8628W        W51541   3.360  16.854  27.278 -0.2081 -0.1024  0.0559
 8629W        W51542  10.149   9.818  24.906 -0.0364 -0.0383  0.0099
 8630W        W51543  29.347  10.995  21.395 -0.1088 -0.0277  0.0605
 8631W        W51544  30.992   2.301  20.130  0.1348  0.2405  0.0681
 8632W        W51545  10.052   6.993   3.363 -0.1963 -0.1913  0.0271
 8633W        W51546  24.370  13.352  19.717  0.0396  0.2122  0.1336
 8634W        W51547  31.697  13.515   8.081 -0.0523 -0.2139  0.0220
 8635W        W51548  31.742  32.757  15.921  0.0470  0.1887  0.1600
 8636W        W51549  27.263  12.762   3.222  0.2120 -0.1400  0.0842
 8637W        W51550  14.838   6.311  24.916  0.2905  0.0291  0.1071
 8638W        W51551  16.969  17.460  27.776 -0.2144  0.1808  0.1862
 8639W        W51552  30.910   4.908  24.003  0.0342 -0.2604 -0.1659
 8640W        W51553   0.328   3.617  16.695 -0.0949 -0.0628 -0.1683
 8641W        W51554   0.516   6.300  25.862 -0.0391  0.0162 -0.0130
 8642W        W51555   5.545   0.921  22.753 -0.0972 -0.1850  0.0355
 8643W        W51556  14.986  15.270  29.295 -0.1302  0.1716 -0.2268
 8644W        W51557   0.029   5.956   5.395 -0.1635  0.1013  0.0197
 8645W        W51558   1.569  13.010   7.093 -0.0370 -0.1117  0.1199
 8646W        W51559  28.607  32.817  18.870 -0.3722  0.4044 -0.0252
 8647W        W51560   9.243   9.909   5.722 -0.0905 -0.0543 -0.2359
 8648W        W51561  33.043  22.196   4.345 -0.0783 -0.0108  0.1564
 8649W        W51562  32.171  15.610  26.110  0.3820 -0.0736 -0.1130
 8650W        W51563   0.370  13.617  25.315 -0.3217  0.4135  0.0316
 8651W        W51564   2.674   6.208   6.277  0.0977  0.0788 -0.0074
 8652W        W51565   1.087  14.814  25.719 -0.1432  0.0671 -0.0965
 8653W        W51566  31.767  13.575  25.342 -0.1462 -0.4134 -0.0303
 8654W        W51567  34.456  23.660   2.013  0.4727 -0.0182  0.0824
 8655W        W51568  33.870   6.926   0.882  0.1932 -0.1590 -0.2305
 8656W        W51569   1.856   9.614  25.465 -0.3727  0.1834  0.1334
 8657W        W51570  11.878   7.980  22.430  0.0116 -0.1396 -0.2846
 8658W        W51571  29.308  22.944  25.835 -0.3737 -0.1089  0.1739
 8659W        W51572  32.868   4.018  18.129  0.4275  0.2659 -0.1525
 8660W        W51573   1.881   5.076   0.054  0.2496 -0.0754 -0.2113
 8661W        W51574  29.583  15.832  20.724 -0.0926  0.0793  0.1681
 8662W        W51575  33.031  13.425   2.276  0.1462  0.2344 -0.0474
 8663W        W51576  21.290  15.455  20.187 -0.2230  0.2211 -0.0231
 8664W        W51577  10.646  20.618  29.090  0.2504 -0.0262  0.0865
 8665W        W51578   9.111   6.507  17.781 -0.1218 -0.0710  0.0952
 8666W        W51579  28.535  13.856  27.470 -0.1095  0.0547  0.0435
 8667W        W51580  31.194  10.799  28.787  0.2857  0.1287  0.0382
 8668W        W51581  10.583  24.045  27.996  0.0914  0.0797 -0.0944
 8669W        W51582  29.037  17.117  27.171 -0.0026  0.0711  0.4612
 8670W        W51583   9.403  15.890  27.236 -0.3452  0.1927  0.0900
 8671W        W51584  27.542  12.661  25.966 -0.1704 -0.3644 -0.0054
 8672W        W51585   1.850  13.961   1.741  0.0765 -0.1816  0.1296
 8673W        W51586   2.027   8.294  29.331 -0.1642  0.0876 -0.0798
 8674W        W51587   7.417  15.277  22.650 -0.1853  0.1431  0.1507
 8675W        W51588  27.551  11.888   7.676  0.0314  0.1362 -0.1927
 8676W        W51589   6.005  11.001   4.497 -0.3220 -0.1016  0.0898
 8677W        W51590  22.121   2.254  26.767  0.2363 -0.3179 -0.3449
 8678W        W51591   0.990  13.867  28.756  0.0279  0.3300  0.0839
 8679W        W51592   7.473  18.132  23.866  0.0259  0.1800 -0.1813
 8680W        W51593  32.809  21.257  27.225 -0.0473 -0.0940 -0.2756
 8681W        W51594   3.149  12.834  27.192 -0.2370  0.1446 -0.2768
 8682W        W51595  33.771   2.798  28.660  0.0861  0.1458  0.0479
 8683W        W51596  28.900  17.547   8.490  0.0415 -0.0911  0.1218
 8684W        W51597  23.421  24.484   1.767 -0.1684 -0.1223  0.2603
 8685W        W51598   4.164  22.164  17.168  0.2343 -0.0451  0.1850
 8686W        W51599   2.126   9.713   0.954  0.1140 -0.1758 -0.4266
 8687W        W51600  33.856  16.662  29.101 -0.1763 -0.0720  0.0922
 8688W        W51601   4.095  11.819   8.950 -0.2768  0.1520  0.0449
 8689W        W51602   6.629  19.738   4.061 -0.1834  0.1147  0.0140
 8690W        W51603   7.989  15.685  21.042  0.0040 -0.0987 -0.3637
 8691W        W51604   1.872  17.033   4.160  0.3012 -0.1652 -0.0908
 8692W        W51605  34.004   8.779  27.361 -0.2255 -0.0075  0.0492
 8693W        W51606  30.865   7.974  26.264 -0.3308  0.2685  0.0019
 8694W        W51607   6.788  10.669   0.379  0.1933 -0.2312  0.0330
 8695W        W51608  23.942   5.323  26.807  0.2134  0.1171  0.2552
 8696W        W51609  32.395   4.651   7.823  0.1693  0.4602 -0.1529
 8697W        W51610  30.685  15.907  26.762 -0.0997 -0.2438 -0.1017
 8698W        W51611  32.590  11.649  19.921 -0.1125  0.1860  0.1209
 8699W        W51612  31.469  15.567  24.162  0.0728 -0.2210  0.0369
 8700W        W51613  34.424  12.019   0.100 -0.3152 -0.1895  0.1764
 8701W        W51614  32.536   0.892   1.183 -0.0710  0.1751 -0.1689
 8702W        W51615  33.777  12.560  21.788  0.2515 -0.0925  0.0139
 8703W        W51616  32.028  31.483   1.777 -0.1277  0.4974 -0.3038
 8704W        W51617   1.595   8.121  19.061 -0.2228 -0.1624 -0.0726
 8705W        W51618  30.596  11.321   1.507  0.2142  0.0590  0.0326
 8706W        W51619  14.286   0.982   7.947 -0.0124 -0.0608  0.0342
 8707W        W51620   2.468  13.797  14.994  0.0825 -0.1726  0.3457
 8708W        W51621   5.113   9.754  24.250 -0.0579  0.2068 -0.1571
 8709W        W51622  32.422  10.447   4.461  0.1624  0.1135  0.0870
 8710W        W51623  34.490   8.374   1.322 -0.0978 -0.0316 -0.2633
 8711W        W51624   1.660  12.666  19.095  0.0388 -0.1219 -0.0797
 8712W        W51625   2.944   9.196  19.246  0.1602  0.1668 -0.1180
 8713W        W51626  25.624   7.937   4.762 -0.3670 -0.1190 -0.1378
 8714W        W51627   8.850   4.367   4.168  0.3378 -0.1988 -0.3709
 8715W        W51628   3.217   9.995  25.964  0.6773 -0.0552 -0.2291
 8716W        W51629   8.820  26.568  28.483 -0.1668 -0.0762  0.1401
 8717W        W51630  33.116   5.393  25.295 -0.1865  0.1839  0.1167
 8718W        W51631   4.751  12.393   1.827 -0.2499  0.3428  0.0874
 8719W        W51632   7.124   5.462  18.016  0.1523  0.0239  0.0127
 8720W        W51633  28.875  17.258  25.697  0.1900 -0.1855  0.1626
 8721W        W51634   1.873   8.560  19.045 -0.0416  0.0369  0.1807
 8722W        W51635   4.479  30.247  25.994 -0.0144 -0.0428 -0.1704
 8723W        W51636   6.600   3.724   6.155 -0.1948  0.1221  0.0062
 8724W        W51637  11.081  17.307  22.813 -0.0040  0.2289  0.1716
 8725W        W51638  33.965  14.566  22.399 -0.0523 -0.2673  0.0544
 8726W        W51639   5.340   6.681   0.914 -0.0291 -0.3040  0.3984
 8727W        W51640   9.971  20.668  18.827 -0.2796  0.1172 -0.2480
 8728W        W51641  30.467  12.808  28.339  0.1181  0.2465  0.1628
 8729W        W51642  31.788   7.765  17.724 -0.3013 -0.0413 -0.1124
 8730W        W51643   1.069  18.360  29.048  0.0767  0.2022  0.0595
 8731W        W51644  29.060   6.084   1.473 -0.1930 -0.0085  0.2659
 8732W        W51645   5.636   9.663   5.686 -0.0986 -0.0073  0.2392
 8733W        W51646   4.796  10.651   1.024 -0.2522 -0.2161 -0.0851
 8734W        W51647  30.886  20.498  29.167  0.0343 -0.4799  0.1531
 8735W        W51648  30.209   9.476  24.019 -0.3718  0.4832  0.2038
 8736W        W51649  32.862   6.359  20.350  0.3710  0.1750 -0.0617
 8737W        W51650  28.895  13.823   4.116  0.0256 -0.0611 -0.1596
 8738W        W51651  30.298   3.059   4.248  0.0149  0.1287 -0.1146
 8739W        W51652   1.363   7.915  24.575 -0.2972 -0.3482 -0.1684
 8740W        W51653  10.639   9.054   0.357 -0.0974  0.0015  0.1347
 8741W        W51654  33.773  11.382  29.726  0.3466 -0.2937  0.0790
 8742W        W51655   3.167  11.674   0.587  0.1935  0.3052  0.1540
 8743W        W51656  30.724  17.691  27.406 -0.0991 -0.2978 -0.1096
 8744W        W51657  31.177  17.485  13.476  0.4030 -0.1844  0.2200
 8745W        W51658  20.610   4.038   5.081 -0.0232  0.1758  0.0169
 8746W        W51659  26.593   3.730  23.715 -0.0321 -0.1744 -0.2974
 8747W        W51660   1.794   9.101  28.825 -0.1680  0.1792  0.1470
 8748W        W51661  26.670  12.496  23.211  0.1241 -0.3122 -0.0157
 8749W        W51662   1.253   4.631   4.070 -0.0154  0.2652 -0.1359
 8750W        W51663  31.274   9.446   0.682 -0.1136  0.0063  0.1892
 8751W        W51664   5.239  11.344  16.573  0.0514  0.0233 -0.0204
 8752W        W51665  10.336   9.678  26.649  0.2944 -0.2414 -0.3400
 8753W        W51666   8.802  12.674  24.517 -0.0176 -0.0128  0.0876
 8754W        W51667  34.311  13.069  22.644 -0.3309  0.0517 -0.2709
 8755W        W51668  33.009   9.744   8.889  0.1150  0.1643  0.1565
 8756W        W51669  11.697   3.582   0.220  0.3344 -0.0811  0.4251
 8757W        W51670  33.645   9.593  25.934  0.1929 -0.3667 -0.2107
 8758W        W51671   5.225   6.890  28.897  0.2824  0.0057  0.0213
 8759W        W51672  29.682  11.537  29.209 -0.2370 -0.2097  0.0437
 8760W        W51673  33.889  10.689  23.862  0.1617  0.0554 -0.3908
 8761W        W51674   4.843  22.318   3.268  0.0785 -0.2236 -0.1086
 8762W        W51675  29.213   4.769  20.548 -0.0089  0.2478  0.2705
 8763W        W51676   8.828  12.947   3.324  0.2090  0.0523 -0.1943
 8764W        W51677   3.169   8.596  24.076  0.0299  0.0303  0.1380
 8765W        W51678   1.723  18.991  28.942  0.2695 -0.1361 -0.1546
 8766W        W51679  32.733   9.007  16.563 -0.1817  0.1282 -0.0139
 8767W        W51680  30.198  17.822  22.197 -0.0753 -0.0890 -0.2347
 8768W        W51681  16.876   9.400  27.739 -0.2238  0.0230  0.2395
 8769W        W51682  17.260  10.594  23.380 -0.0841 -0.0829 -0.1276
 8770W        W51683  33.314   6.124  22.223 -0.0356 -0.2963  0.2516
 8771W        W51684  24.711  20.519   0.001  0.0034 -0.1086 -0.0599
 8772W        W51685  33.928   8.444  29.316  0.1846  0.0886  0.2195
 8773W        W51686  11.227  11.283  28.665 -0.0238  0.0803 -0.1581
 8774W        W51687  28.096  16.209   7.559 -0.2813  0.4860 -0.1474
 8775W        W51688  34.284   9.318  28.024 -0.1048  0.1373  0.0294
 8776W        W51689   7.660   2.322  24.856  0.0371 -0.0263 -0.3106
 8777W        W51690   4.487  11.538  27.061 -0.0698  0.0229 -0.0899
 8778W        W51691  28.690  11.904   1.249 -0.1270 -0.0788  0.3416
 8779W        W51692  10.784   2.554  26.794 -0.0386  0.2256  0.2741
 8780W        W51693  34.382  11.974  25.706  0.0434 -0.0797 -0.2803
 8781W        W51694  32.542  10.245  25.754  0.1969 -0.0806  0.2803
 8782W        W51695   8.783   7.309  27.872 -0.1617 -0.0047 -0.1940
 8783W        W51696  14.901   8.923  26.849  0.0981 -0.0671  0.0281
 8784W        W51697  29.214   7.874  27.037 -0.4167 -0.1978  0.2445
 8785W        W51698  28.263  19.373  19.083 -0.0116 -0.0129  0.1207
 8786W        W51699  12.758  33.171  28.819  0.2161 -0.0108  0.1227
 8787W        W51700   5.645  17.665  19.930  0.0630  0.0260 -0.2032
 8788W        W51701   5.505   8.589   9.639  0.1220  0.2202  0.0665
 8789W        W51702   1.485  13.211   6.113 -0.0367 -0.1527  0.0804
 8790W        W51703  17.700   7.818  25.190  0.1630  0.3338 -0.0877
 8791W        W51704   3.874   3.980  19.927  0.5417  0.0080 -0.0461
 8792W        W51705   4.370   9.975  25.195 -0.2301  0.1361 -0.0945
 8793W        W51706   1.580  17.149  25.330  0.0547  0.0075 -0.2522
 8794W        W51707  33.912   8.814  23.480  0.2632  0.0538  0.1522
 8795W        W51708  32.790   3.535   0.533 -0.0171  0.0106 -0.0263
 8796W        W51709   4.246  13.656   7.621  0.0139 -0.2244  0.0020
 8797W        W51710   8.712   7.251  19.996  0.0936  0.0837  0.2964
 8798W        W51711   9.907   4.490  18.169  0.1087 -0.0046  0.0229
 8799W        W51712   2.838  12.041  25.693 -0.0802 -0.1834 -0.1996
 8800W        W51713  29.463   6.476  22.277 -0.1824  0.0492  0.1333
 8801W        W51714   3.817  14.137   0.250  0.1084  0.1807 -0.1387
 8802W        W51715   1.408  10.454   2.109  0.0460  0.1272 -0.2947
 8803W        W51716   0.129   4.527  24.432  0.0988 -0.0727  0.1442
 8804W        W51717   8.656  26.554  24.326 -0.0175  0.2247 -0.0532
 8805W        W51718  12.445  15.262  25.196 -0.1380 -0.2194 -0.2892
 8806W        W51719  26.560  18.475  23.602  0.0731 -0.0492  0.0217
 8807W        W51720  30.985  13.353  21.900  0.0181 -0.1957 -0.0902
 8808W        W51721   9.006  12.483  27.708 -0.0237  0.0299  0.0858
 8809W        W51722   2.062   5.988  11.610  0.0446  0.1076 -0.3244
 8810W        W51723   5.370   6.811  19.622  0.0981 -0.4716 -0.1250
 8811W        W51724  12.688  13.601   8.582 -0.0581  0.0369 -0.1661
 8812W        W51725   4.674  16.963   1.678  0.0090  0.0404  0.0714
 8813W        W51726   6.473  16.116   3.646 -0.3800  0.0352  0.3748
 8814W        W51727   6.575  18.108  27.738  0.1257  0.1143  0.1429
 8815W        W51728   1.395   8.059  20.480 -0.1285 -0.0451  0.4080
 8816W        W51729   9.163  11.099  28.954  0.0075  0.2070  0.1527
 8817W        W51730   1.375  13.563   2.403  0.0373  0.1895  0.1760
 8818W        W51731   8.283   1.932  21.873  0.5367  0.1548  0.0357
 8819W        W51732  21.850  34.299  27.719 -0.1525 -0.1797  0.0609
 8820W        W51733  11.488   9.081  29.021 -0.0608 -0.2642  0.0972
 8821W        W51734   2.624  33.397  26.258  0.0873 -0.0567  0.0602
 8822W        W51735   7.268  10.032   2.536  0.2381  0.4330  0.0034
 8823W        W51736  13.649   9.280  22.347 -0.1226  0.1701 -0.0178
 8824W        W51737   2.976   8.234  25.274 -0.2594 -0.0111 -0.2288
 8825W        W51738   1.112  33.977  18.332  0.3071  0.0472  0.0449
 8826W        W51739  33.487  10.162   3.611 -0.0044 -0.2176 -0.2904
 8827W        W51740  32.846  11.720  17.913  0.1646  0.4177 -0.5615
 8828W        W51741   6.174   9.835  27.337  0.1069 -0.1390 -0.2389
 8829W        W51742  12.191  27.560   2.156  0.0784 -0.1092 -0.0476
 8830W        W51743   4.208   3.974  23.685  0.0614  0.1344 -0.2238
 8831W        W51744   9.923  13.580  27.485 -0.1646 -0.0254 -0.2279
 8832W        W51745   7.319  33.698  29.221 -0.1662  0.1561  0.1502
 8833W        W51746  10.443   2.075   8.356  0.1751  0.1700 -0.2156
 8834W        W51747  10.737  12.902   5.656  0.1595 -0.0868 -0.0401
 8835W        W51748   8.644   6.590  26.205  0.0189  0.3299  0.1116
 8836W        W51749  31.343  13.405  28.669 -0.1666 -0.2085  0.0687
 8837W        W51750   2.352   9.923  18.701  0.2052 -0.1130  0.1106
 8838W        W51751   2.263  14.040  14.031 -0.1949  0.2343 -0.1618
 8839W        W51752   1.043   3.129  16.926 -0.1248  0.0222  0.3110
 8840W        W51753   9.293  17.115  25.054 -0.0766  0.1106 -0.0570
 8841W        W51754  26.301   5.087  29.289 -0.1445  0.0113 -0.2224
 8842W        W51755  28.432   6.280  24.387  0.0481  0.1417 -0.1326
 8843W        W51756  11.349   7.238   4.483 -0.0332  0.0289 -0.2035
 8844W        W51757   4.205  34.019  22.357 -0.1133 -0.0526 -0.1449
 8845W        W51758   9.675   5.856  18.305 -0.1118  0.0359 -0.3894
 8846W        W51759  10.931   0.520   1.764  0.0212  0.2130  0.1082
 8847W        W51760  16.099   9.548  26.579  0.3861 -0.0363  0.0793
 8848W        W51761  32.487  17.285  24.367  0.0858  0.1647  0.0969
 8849W        W51762   4.796   4.096  19.397  0.0724 -0.1952 -0.1556
 8850W        W51763   3.175  18.013   1.817  0.1034  0.0360  0.0394
 8851W        W51764  17.413  15.640  26.677  0.1238 -0.0664 -0.1893
 8852W        W51765  28.647  12.973   0.276  0.2965 -0.1842 -0.4055
 8853W        W51766   0.692  14.322  18.895 -0.2760  0.0838  0.0374
 8854W        W51767   1.798  11.697  24.539  0.1819  0.1610 -0.0517
 8855W        W51768   8.863  15.689  24.466 -0.0278 -0.1865  0.2984
 8856W        W51769  10.361  22.592   5.092 -0.2156 -0.2112  0.1133
 8857W        W51770  33.428   8.641  24.398 -0.0613  0.0751  0.0968
 8858W        W51771   6.470  15.020   6.860 -0.3569  0.1374  0.0115
 8859W        W51772   4.516   0.119  25.087 -0.1204 -0.1576 -0.2878
 8860W        W51773   4.513  13.601  17.553  0.1524 -0.4794 -0.1636
 8861W        W51774   0.296   9.562  16.869  0.0535 -0.2760  0.2300
 8862W        W51775  30.626   7.706   4.658  0.2564 -0.1273  0.2153
 8863W        W51776   3.324  10.991  24.252 -0.0688  0.0826  0.2426
 8864W        W51777   5.896  18.479  21.156  0.3710 -0.1118 -0.3314
 8865W        W51778   1.076  23.694  29.441 -0.5700 -0.0192  0.0375
 8866W        W51779  31.232  13.100  25.746 -0.3436  0.0932  0.1408
 8867W        W51780   4.493   3.857  24.602 -0.2054  0.0871 -0.1850
 8868W        W51781  23.582   4.525  27.843 -0.2059  0.0261  0.2849
 8869W        W51782  29.170  14.646   9.061  0.0134  0.1217  0.0990
 8870W        W51783   1.132   5.936  26.646  0.0413  0.1447 -0.0535
 8871W        W51784   7.935  17.034  25.041  0.6164  0.0019  0.0524
 8872W        W51785  33.635  15.285  25.779 -0.1232  0.2917  0.0651
 8873W        W51786  33.207   5.149  23.257 -0.0061  0.0661 -0.1446
 8874W        W51787   1.658   1.877  24.357  0.0986 -0.0715 -0.0279
 8875W        W51788  34.406  11.040  21.186  0.0872  0.1886 -0.0720
 8876W        W51789  10.923   9.236  29.272  0.0640  0.1114 -0.1406
 8877W        W51790  30.539   9.284   3.102 -0.2915  0.2727  0.0578
 8878W        W51791  28.352  16.249  21.891 -0.0205  0.2841  0.0367
 8879W        W51792   6.321  13.090  19.414 -0.1274 -0.1126  0.3858
 8880W        W51793  26.848  25.113   7.581  0.0442 -0.1864 -0.0975
 8881W        W51794   3.456   7.156  27.699 -0.3860  0.0642 -0.2626
 8882W        W51795   2.973   9.067  22.619  0.2122 -0.1457  0.0497
 8883W        W51796   1.513  15.233  22.038 -0.1284 -0.0855  0.0051
 8884W        W51797  10.860  34.338  29.715  0.1303 -0.1425  0.1327
 8885W        W51798   5.357   7.932  22.622  0.0780 -0.0172 -0.0088
 8886W        W51799  32.374  14.742  17.410  0.0808 -0.1632  0.0646
 8887W        W51800  22.447   2.696  20.618  0.0882  0.2774 -0.2520
 8888W        W51801  29.743  15.400  10.121 -0.0372 -0.1208  0.1611
 8889W        W51802   2.779   9.538   4.235 -0.0821  0.1592 -0.1315
 8890W        W51803  13.335   3.917  23.708  0.3268  0.0729 -0.3133
 8891W        W51804   2.039  20.528   2.101  0.2103 -0.2374 -0.2262
 8892W        W51805  30.845  19.509   0.765  0.1779  0.2921  0.2816
 8893W        W51806  30.756  23.285  28.599 -0.1025  0.2688  0.2477
 8894W        W51807  13.014   8.591  24.813  0.0624 -0.0970 -0.1244
 8895W        W51808  13.106  16.445   4.531 -0.1726  0.1082  0.0737
 8896W        W51809   3.256  31.813   6.138 -0.2525 -0.3826 -0.0362
 8897W        W51810  11.378  19.018   8.607 -0.4167 -0.1120 -0.0390
 8898W        W51811   6.848   6.910   3.142 -0.0585  0.0686 -0.1905
 8899W        W51812  13.641  21.520   1.210  0.1411  0.0097 -0.3857
 8900W        W51813   3.646   1.426   9.732  0.2865  0.1261 -0.4270
 8901W        W51814  32.951  10.913   3.270  0.2269 -0.2772  0.2492
 8902W        W51815  11.457   3.028   1.308 -0.1560 -0.2914 -0.3778
 8903W        W51816   0.581  15.316  24.452 -0.0279  0.2851 -0.2509
 8904W        W51817   6.552   7.037   0.633 -0.0106 -0.1797  0.2787
 8905W        W51818   4.165   5.952   0.361 -0.1584 -0.0643 -0.0794
 8906W        W51819   4.059   8.036  21.436  0.0079 -0.1228 -0.2375
 8907W        W51820  23.518  11.098  24.482 -0.1237 -0.2537 -0.1069
 8908W        W51821   4.251  19.073  24.074  0.2015  0.1756 -0.2785
 8909W        W51822   4.956  12.954  25.348 -0.2483  0.0168 -0.0769
 8910W        W51823   6.642   5.607  28.158  0.1022  0.0241 -0.0625
 8911W        W51824  28.299  20.806   1.514 -0.0479  0.2391 -0.0057
 8912W        W51825  30.713  11.321  23.283 -0.1697 -0.2059 -0.1606
 8913W        W51826   2.821  10.354   4.047  0.0219  0.0314  0.0360
 8914W        W51827   5.933  18.253  18.374  0.2199  0.1961  0.2574
 8915W        W51828   0.192   6.373  25.474 -0.3768 -0.2942  0.2363
 8916W        W51829   3.419   9.334   2.705  0.2016  0.0686 -0.0213
 8917W        W51830  10.468  15.392   3.817 -0.0831 -0.1340 -0.0605
 8918W        W51831  26.930   3.125  19.573 -0.1817  0.0437  0.1956
 8919W        W51832   4.788   9.725   4.269  0.2783  0.1035 -0.0117
 8920W        W51833   8.476  15.661   6.943  0.1565 -0.0888  0.1329
 8921W        W51834  34.349  33.079   7.252  0.4017  0.0431  0.0034
 8922W        W51835  32.017   9.526  27.343 -0.2923  0.1341 -0.1514
 8923W        W51836  15.625  14.480  21.879  0.2742 -0.0948 -0.2377
 8924W        W51837  27.352   8.346  22.626  0.2372 -0.1036  0.1369
 8925W        W51838  26.043  15.259   4.743 -0.0271 -0.0119 -0.2627
 8926W        W51839   0.625  15.708  28.719  0.1526 -0.1049  0.0488
 8927W        W51840  33.044   9.938  20.257  0.4169  0.0435  0.2337
 8928W        W51841   3.908  12.818  20.967 -0.5321  0.1356  0.1878
 8929W        W51842   2.636  16.570  26.161  0.0635 -0.3897  0.0899
 8930W        W51843  30.910   9.515  28.620  0.1198  0.0712 -0.0998
 8931W        W51844  12.408  34.091  25.783 -0.3047 -0.1090  0.0940
 8932W        W51845   9.278   7.557   3.644  0.0530 -0.2307 -0.0684
 8933W        W51846   8.118   9.156  23.634 -0.2674  0.0070  0.0113
 8934W        W51847  31.246   9.964  17.505  0.1953 -0.3944  0.1756
 8935W        W51848   3.100   1.038  24.171  0.2439  0.0475 -0.1880
 8936W        W51849  33.705  32.561  23.781  0.3038 -0.1031 -0.3131
 8937W        W51850  33.530   9.001  21.783 -0.1265 -0.0097 -0.2012
 8938W        W51851  26.545  23.186   2.092 -0.0762  0.4968  0.1838
 8939W        W51852  29.633   9.659   1.932  0.0668 -0.3161  0.1773
 8940W        W51853  10.561  15.847   6.339  0.0410 -0.0484  0.0834
 8941W        W51854  12.712  14.353  23.725 -0.0413 -0.2119  0.1286
 8942W        W51855   1.435   5.364  25.357 -0.1491 -0.2361 -0.0631
 8943W        W51856   1.036   6.270  25.345  0.2118 -0.3303  0.0571
 8944W        W51857  32.432  29.643  25.592  0.2822 -0.3085  0.1741
 8945W        W51858  33.566  29.261   8.765 -0.4101 -0.2509  0.0108
 8946W        W51859   5.144   9.969   2.962  0.0201 -0.0911  0.2137
 8947W        W51860   0.898  13.750  26.604 -0.0367  0.1458  0.1709
 8948W        W51861   4.941  16.013  24.985  0.1386 -0.0847 -0.0495
 8949W        W51862  12.241  15.417  17.690 -0.0199  0.1097  0.1902
 8950W        W51863  31.120   5.047  23.543 -0.1106 -0.2156  0.2463
 8951W        W51864  32.583   9.329  22.087  0.1661 -0.5291 -0.1362
 8952W        W51865   0.737  10.483  28.920  0.1190 -0.0117  0.0083
 8953W        W51866   9.069   5.240  25.954  0.0557  0.0603  0.0473
 8954W        W51867  11.718  12.889   3.562  0.1898  0.1173  0.0511
 8955W        W51868  26.501  13.195  27.594 -0.1084 -0.0575 -0.1979
 8956W        W51869   7.724  32.177   7.232 -0.1219 -0.2399  0.1922
 8957W        W51870   5.614   7.370  20.754  0.0494  0.3235 -0.2025
 8958W        W51871   4.957  15.916  24.436 -0.2097  0.3812  0.3411
 8959W        W51872  30.573  12.487  15.184  0.1113 -0.0711  0.3752
 8960W        W51873   1.186  27.264  16.639 -0.0587 -0.0547  0.1145
 8961W        W51874   2.961   6.423  21.384  0.0378  0.1732 -0.0201
 8962W        W51875  18.920  10.857  13.911 -0.0720  0.0726  0.2668
 8963W        W51876  31.546   9.354  19.394  0.4941 -0.0899  0.1944
 8964W        W51877   0.401  19.170  14.578  0.3576  0.0038 -0.0926
 8965W        W51878   7.941  11.143  22.786 -0.1363 -0.1145  0.3791
 8966W        W51879   7.106  14.967  14.676  0.2644  0.0968 -0.0509
 8967W        W51880   3.831  16.750  16.073  0.1614  0.0145  0.0902
 8968W        W51881   7.969   7.573  19.530  0.1057 -0.0857 -0.0146
 8969W        W51882   2.617   9.492  17.316 -0.0657 -0.1843 -0.3444
 8970W        W51883  26.500  34.241  15.302 -0.0755 -0.2686  0.1379
 8971W        W51884   9.371  16.476  24.033 -0.1517  0.0251  0.0819
 8972W        W51885  24.914  18.421  19.018  0.2734  0.1897  0.1116
 8973W        W51886  20.795  19.622  20.895  0.0371  0.0039 -0.2158
 8974W        W51887   0.123  17.293  22.740  0.0399  0.0431 -0.3363
 8975W        W51888  22.740  26.164  13.499 -0.1464  0.1493  0.1046
 8976W        W51889  31.558   8.736  27.122  0.1822  0.1278  0.2094
 8977W        W51890  10.522  15.285  15.122  0.2897  0.1895 -0.0667
 8978W        W51891   9.204  16.330  17.193 -0.0252  0.1532 -0.1048
 8979W        W51892  32.601  27.271  15.850  0.2808  0.0690  0.0197
 8980W        W51893  25.998  12.758  15.079  0.1008 -0.0014 -0.0477
 8981W        W51894   3.316  34.139  16.669  0.0230 -0.2169  0.0687
 8982W        W51895  31.480  18.331  22.130  0.1425  0.1448 -0.1716
 8983W        W51896  11.244   1.731  25.376  0.0671  0.0022  0.0813
 8984W        W51897   3.473   9.301  17.532  0.0635 -0.1158 -0.2472
 8985W        W51898   1.578  15.138  27.053  0.3274  0.0004 -0.0243
 8986W        W51899  31.103  13.578  15.931 -0.2215  0.1919 -0.2960
 8987W        W51900   1.436  12.984  26.899 -0.1836 -0.2283  0.2071
 8988W        W51901   2.852  13.029  14.082 -0.0493  0.1122 -0.2455
 8989W        W51902   5.910  21.428   1.398 -0.0663  0.0141 -0.1367
 8990W        W51903  31.335   2.061  25.091  0.2004  0.0043  0.2634
 8991W        W51904  12.728  22.030  14.447  0.2816 -0.1287 -0.2900
 8992W        W51905   7.009  27.080  16.350 -0.1201 -0.0692  0.1040
 8993W        W51906  30.777  17.167  15.905  0.0902 -0.2547 -0.1442
 8994W        W51907   5.456  33.988  19.640  0.0016 -0.2240 -0.1871
 8995W        W51908   0.727  16.874  24.661  0.1755  0.1322 -0.0774
 8996W        W51909   5.168   7.624  22.254  0.0753 -0.1580 -0.2355
 8997W        W51910  10.196  13.074  20.243 -0.0932  0.0238 -0.1538
 8998W        W51911  32.191  14.230  17.326  0.1418  0.1544 -0.0053
 8999W        W51912   1.004  19.338  19.061  0.1472  0.1393  0.0934
 9000W        W51913   4.973  18.351  22.598 -0.1369 -0.4005  0.0692
 9001W        W51914   5.918  14.127  19.038  0.0472  0.2490  0.2254
 9002W        W51915  32.301   3.677  15.543  0.4294  0.0572 -0.1914
 9003W        W51916   2.156  33.870  19.091  0.3227 -0.1330  0.2004
 9004W        W51917   8.596  16.745  14.794  0.0489  0.1026  0.1339
 9005W        W51918  30.745  13.312  15.686 -0.0146  0.2822  0.1918
 9006W        W51919  10.526  12.211  22.592  0.0717 -0.0712 -0.1174
 9007W        W51920   0.834  10.219  16.461  0.0193 -0.1940 -0.1830
 9008W        W51921  30.307  19.536  20.873  0.0076  0.2320  0.1647
 9009W        W51922  15.274  14.428  14.259 -0.1288 -0.0053  0.0388
 9010W        W51923   3.156  14.706   1.268 -0.1027  0.0545 -0.1105
 9011W        W51924  24.944  12.047  15.062  0.1814  0.0451  0.1179
 9012W        W51925  29.128  11.412  17.561  0.0280  0.1485  0.1843
 9013W        W51926   9.899  20.269  13.026  0.0818  0.3744  0.3383
 9014W        W51927  11.655   6.504  18.335 -0.2836 -0.0260  0.0973
 9015W        W51928  32.993  11.931  27.591 -0.0430  0.1892  0.0546
 9016W        W51929  33.956  10.268  22.237  0.0964 -0.1564 -0.1261
 9017W        W51930   7.141  14.546  17.520  0.1897  0.3193  0.1097
 9018W        W51931   0.169   8.202  19.078  0.0726  0.3690 -0.3857
 9019W        W51932  28.698  12.212  14.495 -0.0989  0.0065 -0.2131
 9020W        W51933   1.750  14.270  15.513 -0.0326  0.1148 -0.0560
 9021W        W51934   1.221   2.585  16.986 -0.0722 -0.1098  0.1961
 9022W        W51935  21.969  19.124  17.546 -0.3574 -0.0474  0.0126
 9023W        W51936   4.737  13.235  25.667 -0.0660 -0.1355 -0.0152
 9024W        W51937  11.071   3.942  20.522  0.1179  0.4195  0.0205
 9025W        W51938   6.259  19.724  29.206  0.3971  0.2493  0.3911
 9026W        W51939  31.855   9.183  26.182 -0.4019  0.0735 -0.1710
 9027W        W51940  29.374  33.048  26.316 -0.1852 -0.0093  0.0464
 9028W        W51941   4.220   5.764  17.327 -0.2263 -0.1718  0.2679
 9029W        W51942   2.622  17.521  28.930 -0.2882 -0.1103 -0.1843
 9030W        W51943   2.685  14.454  20.384 -0.2810 -0.1466 -0.1259
 9031W        W51944  27.890  19.272  16.258  0.0005 -0.1968 -0.0236
 9032W        W51945   7.829  10.393  18.854 -0.2566 -0.0437 -0.2116
 9033W        W51946   0.045  17.153  14.020  0.0826 -0.0964  0.0580
 9034W        W51947   5.063  10.852  23.237 -0.1074 -0.0727 -0.1735
 9035W        W51948   1.587  10.578  15.640  0.0276  0.1558  0.3089
 9036W        W51949  11.852   8.095  16.273 -0.0688  0.2318  0.4845
 9037W        W51950  27.235   4.206  19.573  0.2570  0.1044 -0.2761
 9038W        W51951  22.892  17.568  13.269 -0.0906 -0.1892 -0.0701
 9039W        W51952  28.916  14.064  22.312  0.0087 -0.0685  0.3766
 9040W        W51953   7.635   7.891  17.620  0.0418  0.1353  0.1270
 9041W        W51954  34.014  12.877  14.428  0.3461 -0.1955 -0.2055
 9042W        W51955  28.928  17.893  14.460 -0.2151  0.0741  0.0402
 9043W        W51956  31.244   3.387  20.133 -0.1281 -0.0800  0.3776
 9044W        W51957  11.489  11.688  20.142 -0.0558  0.1777 -0.1212
 9045W        W51958  34.195  11.352  18.447  0.0776 -0.3472  0.0656
 9046W        W51959   9.090  21.723  18.798 -0.0414  0.4065  0.0517
 9047W        W51960  27.905  14.837  28.199 -0.0924  0.0627 -0.0679
 9048W        W51961  11.485  20.074  20.059 -0.2942  0.0525 -0.0395
 9049W        W51962  24.665  18.489  26.313 -0.1865 -0.0174  0.0001
 9050W        W51963   2.228  12.010  15.814 -0.1997 -0.2415 -0.0049
 9051W        W51964  23.575  12.321  17.733 -0.0898  0.2514 -0.0696
 9052W        W51965  28.688  15.143  25.815 -0.2132 -0.0514  0.0798
 9053W        W51966  32.141   3.546  23.360  0.2016 -0.0353  0.0311
 9054W        W51967  32.527  14.148  17.785 -0.2603  0.1150 -0.0253
 9055W        W51968  14.372  10.003  19.220 -0.1933 -0.2996  0.1281
 9056W        W51969  26.620  23.008  26.299  0.0200 -0.3120 -0.0033
 9057W        W51970  27.844  15.660  21.324  0.3646  0.0473 -0.0549
 9058W        W51971   7.581   8.579  17.370  0.1855  0.2966  0.1324
 9059W        W51972  30.044  19.646  14.602 -0.0826 -0.1296 -0.1400
 9060W        W51973   2.702  20.397  21.350  0.0619 -0.0441  0.3868
 9061W        W51974  31.774  26.150  18.614  0.0520 -0.0378  0.0152
 9062W        W51975  33.915  33.010  23.568 -0.2714  0.0443 -0.1390
 9063W        W51976   3.803  18.158  21.217  0.1699  0.0259  0.1588
 9064W        W51977  28.758  24.870  13.878 -0.2890 -0.1184  0.2573
 9065W        W51978  32.471  11.399  28.873  0.0248 -0.3779  0.3646
 9066W        W51979   7.077  19.215  17.943  0.0613  0.2044 -0.1989
 9067W        W51980  32.033   7.990  20.213 -0.3700 -0.0739 -0.0540
 9068W        W51981  33.338  12.201  22.331  0.0365  0.0957 -0.2034
 9069W        W51982   3.346   1.930  22.727 -0.0797 -0.2458 -0.2244
 9070W        W51983   2.405  18.046  14.000 -0.2639  0.0478  0.2177
 9071W        W51984   5.710  13.027  23.745 -0.0070 -0.1306  0.3793
 9072W        W51985   4.596  15.820  22.823  0.1021  0.0574 -0.0254
 9073W        W51986  14.878  10.091  18.514  0.0242  0.1458 -0.1547
 9074W        W51987  12.089  16.746  16.971 -0.4798  0.0328  0.2291
 9075W        W51988   2.535  18.168  16.133  0.3469  0.0363  0.3663
 9076W        W51989  27.734  14.150  22.653 -0.2099  0.1011 -0.0890
 9077W        W51990   8.164  21.597  14.192  0.0243 -0.0001 -0.2724
 9078W        W51991   4.845  13.615  20.031 -0.3413  0.0737  0.1091
 9079W        W51992  26.027   7.136  22.959  0.1728  0.2332 -0.1017
 9080W        W51993  27.511   5.115  19.512  0.2319 -0.1621 -0.1297
 9081W        W51994  32.882  23.091  14.623 -0.2124  0.1490  0.0068
 9082W        W51995  28.558  14.786  16.830  0.0684  0.0784 -0.0925
 9083W        W51996   1.333   2.030  22.300 -0.2355  0.1283 -0.1219
 9084W        W51997  29.145  13.838  13.381 -0.1058  0.4093  0.1384
 9085W        W51998   3.448   9.079  26.100 -0.3745 -0.0301  0.0288
 9086W        W51999  30.106   9.314  25.117  0.1140 -0.0782  0.0425
 9087W        W52000   4.477  14.620  17.714 -0.0809 -0.0841  0.0151
 9088W        W52001   3.147  15.643  15.917  0.1468 -0.3461 -0.3693
 9089W        W52002  26.096  19.156  18.738 -0.1009 -0.1532  0.3598
 9090W        W52003  10.470  24.070  20.624  0.0079 -0.3862 -0.0064
 9091W        W52004  31.271  17.090  19.783 -0.4874 -0.1258  0.0648
 9092W        W52005  27.497   1.359  24.990  0.0350 -0.0941  0.2233
 9093W        W52006  11.241   8.016  19.854  0.0461 -0.2767 -0.1242
 9094W        W52007   0.638  32.007  27.848  0.0057 -0.0372  0.1725
 9095W        W52008   8.306   4.376  20.567  0.1583  0.2590  0.2345
 9096W        W52009  33.942   7.393  22.189  0.3379 -0.0875  0.2400
 9097W        W52010   7.673  19.438   2.637 -0.1082 -0.2583  0.0813
 9098W        W52011  32.512  10.609  17.312 -0.4410  0.2514 -0.1873
 9099W        W52012  17.551  16.016  13.219  0.1965 -0.0284  0.1013
 9100W        W52013  31.551   5.597  16.592  0.0715  0.2199 -0.1019
 9101W        W52014  31.826  10.748  15.931  0.1620 -0.2243  0.0466
 9102W        W52015   4.138  12.673  18.860  0.3239  0.2276 -0.0682
 9103W        W52016  31.588  30.834  21.577 -0.2520 -0.0863 -0.0846
 9104W        W52017   6.215  14.614  20.483 -0.1044  0.2922  0.1015
 9105W        W52018   7.118   7.613  23.326 -0.0150  0.1502 -0.0936
 9106W        W52019   7.722   6.551  28.359 -0.0927 -0.2153 -0.1802
 9107W        W52020  33.341  13.234  23.609 -0.0707 -0.3328  0.2918
 9108W        W52021  28.134  20.040  20.875  0.2667  0.2308 -0.1135
 9109W        W52022  34.245  14.419  15.687  0.0485 -0.1166  0.0046
 9110W        W52023  33.349  21.084  13.201 -0.2332 -0.2558  0.1320
 9111W        W52024   4.092  17.369  19.628 -0.1250 -0.0016  0.1019
 9112W        W52025  32.345  13.703  20.975 -0.0327  0.0205  0.1136
 9113W        W52026  29.696  28.414  27.827 -0.0134 -0.3181  0.0300
 9114W        W52027  13.811  21.959  16.943  0.1822  0.0059 -0.2042
 9115W        W52028   1.871  19.540  19.691  0.3473 -0.2484 -0.1165
 9116W        W52029   3.859  15.885  22.353 -0.0878  0.2663 -0.0365
 9117W        W52030  31.758  12.673  19.317  0.1845 -0.3166 -0.0791
 9118W        W52031   2.406  14.294  19.608  0.0345 -0.3353  0.0259
 9119W        W52032   2.235  21.736  20.095  0.1148 -0.1203  0.1194
 9120W        W52033   8.609  11.427  23.024 -0.1157 -0.0404 -0.3144
 9121W        W52034  29.710  11.561  14.576  0.2541  0.1135  0.3327
 9122W        W52035  33.407  10.650  17.049 -0.0742 -0.1509 -0.1703
 9123W        W52036  31.660  23.346  19.812  0.3585  0.0906 -0.1633
 9124W        W52037  33.874  33.277  26.604  0.1497  0.2813  0.0157
 9125W        W52038  31.645  12.118  21.365  0.1394 -0.1062  0.0881
 9126W        W52039  24.949  10.543  23.583  0.0186 -0.0200  0.1175
 9127W        W52040   5.655   5.605  19.811  0.2577 -0.0029 -0.0190
 9128W        W52041   5.164   8.906  21.651  0.2978 -0.0005 -0.0648
 9129W        W52042   0.017  18.140  27.111 -0.1342  0.0129  0.2456
 9130W        W52043  22.188   9.458  17.965  0.4630  0.0293  0.1465
 9131W        W52044  29.411   9.197  21.609  0.2623  0.0518 -0.1867
 9132W        W52045   2.349   0.440  21.617  0.2297 -0.1425  0.0093
 9133W        W52046   3.133   9.056  21.979 -0.1446 -0.1245  0.0519
 9134W        W52047  29.025  11.164  21.685  0.0500  0.1940  0.0568
 9135W        W52048  27.546  14.309  19.301 -0.0173 -0.2377  0.1226
 9136W        W52049  30.726   8.718  29.276 -0.1515 -0.1299  0.2258
 9137W        W52050   0.256  13.161  23.900  0.0487 -0.2684  0.0854
 9138W        W52051  26.232  21.543  25.272  0.1092 -0.1022  0.0982
 9139W        W52052  32.704   1.061  15.541 -0.0092 -0.2147  0.1139
 9140W        W52053   1.010  11.032  20.022 -0.0276  0.1854  0.1308
 9141W        W52054  25.702  10.865  20.780 -0.0680  0.0402 -0.0814
 9142W        W52055  31.139  18.057  22.487  0.0077  0.2397  0.2006
 9143W        W52056  11.751   9.457  22.742 -0.1353  0.0644 -0.0849
 9144W        W52057   0.888  10.696  16.293  0.0020  0.0193  0.2584
 9145W        W52058   4.836   9.898  20.009  0.1708 -0.0702 -0.2604
 9146W        W52059   0.165   5.694  18.112  0.0793  0.1820  0.0904
 9147W        W52060   6.470  23.235  17.119  0.0635  0.2367 -0.2393
 9148W        W52061   4.347  11.111  24.560 -0.4761 -0.0942 -0.0286
 9149W        W52062  26.686  20.345  17.416 -0.1537  0.1087 -0.1688
 9150W        W52063  26.032  25.581  17.524 -0.0696  0.2186 -0.0674
 9151W        W52064  11.494  13.696  23.988  0.0744 -0.2817 -0.0655
 9152W        W52065   6.235  14.010  21.974 -0.0114  0.2393  0.0458
 9153W        W52066   2.169  15.296  16.596 -0.0414 -0.1829  0.0388
 9154W        W52067   5.021  12.114  19.167 -0.0300 -0.1168 -0.2831
 9155W        W52068   9.246   6.724  22.606 -0.1775  0.1887  0.1161
 9156W        W52069   8.829  18.422  12.703  0.1702  0.1339 -0.0977
 9157W        W52070   8.128  10.976  17.001 -0.1426 -0.0568  0.2601
 9158W        W52071  33.455  18.869  13.399  0.0965 -0.0765 -0.2311
 9159W        W52072  26.492  12.122  17.661 -0.0456  0.0265  0.0817
 9160W        W52073  30.202  15.733  23.006 -0.0869 -0.0728 -0.4171
 9161W        W52074  27.053  10.019  19.674  0.1420 -0.2563  0.3142
 9162W        W52075  26.492   7.859  14.757 -0.1978  0.0458 -0.3256
 9163W        W52076   8.829   3.460  25.883  0.0959  0.3410  0.2412
 9164W        W52077  26.120  20.587  16.723 -0.0629  0.2158 -0.3978
 9165W        W52078  11.637   9.008  16.832 -0.0019  0.0671 -0.1350
 9166W        W52079  31.408  25.152  27.218  0.0178  0.1568  0.2274
 9167W        W52080  29.450   6.240  20.993 -0.1289  0.1548  0.3847
 9168W        W52081  32.488  15.236  25.981  0.2516  0.0802  0.0491
 9169W        W52082   8.665  25.552  25.216 -0.0538 -0.2977 -0.1773
 9170W        W52083  23.664  14.674  22.367  0.2099 -0.0120  0.0270
 9171W        W52084  24.085  13.879  23.061  0.0830  0.0758  0.0480
 9172W        W52085  32.559   7.636  18.851 -0.1363 -0.1770 -0.1579
 9173W        W52086   3.173  20.588  27.789  0.0108  0.0899 -0.0320
 9174W        W52087  29.654  10.455  28.334 -0.0266  0.1467 -0.0760
 9175W        W52088   8.299  23.381  21.368 -0.2202  0.6153 -0.0852
 9176W        W52089   2.824   4.763  19.184  0.1457 -0.0585 -0.0721
 9177W        W52090   1.961   8.219  23.611 -0.1442  0.1092 -0.1306
 9178W        W52091   8.650  15.949  18.429 -0.1043  0.1771  0.0458
 9179W        W52092  27.789  33.988  17.627  0.1032  0.0578  0.1120
 9180W        W52093   2.601  13.535  27.711 -0.4309  0.3804 -0.1020
 9181W        W52094  33.208   3.795  22.869 -0.1943 -0.3609  0.1382
 9182W        W52095   1.791  18.898  25.841 -0.3233 -0.2133 -0.0890
 9183W        W52096   1.269   7.499  17.413  0.0148  0.0284  0.0804
 9184W        W52097  24.007   6.789  19.417 -0.1171 -0.1760 -0.2339
 9185W        W52098   6.618  17.040  15.483  0.1445  0.0523  0.2838
 9186W        W52099  22.136  12.167  22.795  0.0937  0.0911  0.4201
 9187W        W52100  32.896   3.001  24.620  0.1339  0.2766  0.0259
 9188W        W52101  30.759  17.442  17.875  0.3103  0.2884  0.1147
 9189W        W52102   2.650  14.816  18.468  0.1215  0.0658 -0.0391
 9190W        W52103   7.520   2.726  24.544 -0.0173  0.1334 -0.1590
 9191W        W52104  25.729   9.894  16.968 -0.0363 -0.1454 -0.1894
 9192W        W52105  31.043  13.206  24.727  0.0146 -0.0564  0.0172
 9193W        W52106   9.089   8.173  21.376  0.0892  0.1381  0.0656
 9194W        W52107  17.481  17.650  13.664 -0.2361  0.0399  0.3313
 9195W        W52108  27.635  15.185  22.713  0.3511 -0.0109  0.2589
 9196W        W52109   2.552  32.619  18.364  0.1968  0.1127  0.0452
 9197W        W52110  30.419   8.962  18.400 -0.0772  0.1687 -0.0400
 9198W        W52111  22.682   5.008   2.009 -0.0181  0.1932 -0.1279
 9199W        W52112   0.276  13.725  17.307 -0.1920 -0.2438 -0.1650
 9200W        W52113   4.573  28.790  17.936  0.1710  0.1568 -0.1978
 9201W        W52114   4.738  18.729  17.504  0.0656 -0.1085 -0.1614
 9202W        W52115  34.434  16.645  20.606  0.2848 -0.0442  0.2017
 9203W        W52116  10.829  10.759  29.017 -0.2521 -0.2941 -0.1853
 9204W        W52117  10.802  14.372  22.523  0.1902 -0.1998 -0.0626
 9205W        W52118   2.214  13.821   6.047 -0.2921 -0.5852 -0.1628
 9206W        W52119  34.272  10.714  15.589 -0.1477 -0.0098  0.1209
 9207W        W52120  29.688   5.823  17.910  0.0571  0.0743  0.3131
 9208W        W52121  30.185  20.415  28.498 -0.0212 -0.0280 -0.0975
 9209W        W52122  29.427  11.838  21.896  0.1767 -0.3441 -0.2506
 9210W        W52123  27.639  25.986  24.844 -0.1307  0.1579 -0.3175
 9211W        W52124   0.735   7.843  23.771  0.0857  0.0956 -0.1936
 9212W        W52125   9.422  15.493  23.755 -0.3840 -0.0550  0.1095
 9213W        W52126  32.653  16.704  13.988 -0.0522  0.0763  0.1157
 9214W        W52127  10.873  12.556  20.045  0.2030 -0.0341 -0.0780
 9215W        W52128   4.698  16.486  21.620 -0.0124 -0.1154 -0.1431
 9216W        W52129   7.415  14.583  18.884 -0.1269  0.3426 -0.0036
 9217W        W52130  33.124  15.956   3.836 -0.2647  0.2613  0.1246
 9218W        W52131   2.482  11.067  20.167 -0.1136 -0.0182 -0.0169
 9219W        W52132   8.839  12.077  28.213 -0.1372  0.0859  0.1977
 9220W        W52133   5.372  18.023  17.168 -0.0369  0.3434 -0.0104
 9221W        W52134   4.272  14.912  26.861 -0.1399  0.0283 -0.1973
 9222W        W52135   9.349  14.279  17.715 -0.0177 -0.2818 -0.0392
 9223W        W52136   6.854  12.382  21.317  0.4179  0.1293  0.0604
 9224W        W52137   3.234  22.643  24.926 -0.1682 -0.0584 -0.2123
 9225W        W52138  28.748  30.551  24.501 -0.1578  0.2817  0.1133
 9226W        W52139   0.397  13.005  13.925 -0.1649 -0.1900  0.0869
 9227W        W52140  10.670  16.738  18.777  0.4452 -0.1132  0.0248
 9228W        W52141  30.625  17.913  13.752  0.1185 -0.1521  0.0144
 9229W        W52142   0.540  21.361  17.420 -0.2417  0.1147 -0.2228
 9230W        W52143  11.079  23.010  18.871  0.0321 -0.3910  0.2714
 9231W        W52144  32.341   5.719  18.816  0.1359  0.1034 -0.2686
 9232W        W52145  32.446  13.809  24.177  0.2332  0.2230  0.2736
 9233W        W52146  31.801  21.395  20.120  0.0822  0.1304 -0.2253
 9234W        W52147  18.244  13.885  26.778  0.4147  0.0067  0.3485
 9235W        W52148   1.629  20.665  15.930 -0.0627 -0.0800  0.0798
 9236W        W52149  32.514  16.982  19.107  0.4658 -0.3262 -0.0796
 9237W        W52150   2.703   6.814  20.637  0.1643  0.0973  0.0527
 9238W        W52151   6.799  14.238  15.463 -0.4231 -0.1075 -0.5720
 9239W        W52152   3.027  15.235  18.707  0.1271  0.4553  0.2232
 9240W        W52153  30.161  18.935  20.021  0.3298 -0.1888 -0.1103
 9241W        W52154   0.012  14.007  24.681 -0.0641 -0.0705  0.0291
 9242W        W52155  34.404  11.532  23.625  0.1084  0.1678  0.3071
 9243W        W52156   5.598  20.519  17.713 -0.0314  0.0350  0.1464
 9244W        W52157  27.987  19.174  18.243 -0.0869 -0.4983 -0.0888
 9245W        W52158   2.628  11.592  24.056 -0.0050  0.0568  0.3102
 9246W        W52159  11.000  15.140  21.351 -0.1076  0.2340  0.2147
 9247W        W52160   0.440  21.067  16.451  0.1029  0.0802 -0.3631
 9248W        W52161   1.203   7.975  18.642  0.2632 -0.1652 -0.0752
 9249W        W52162  33.168  13.634  19.335  0.2776  0.2469  0.2619
 9250W        W52163   1.612  13.858  26.698 -0.3161  0.2814  0.1502
 9251W        W52164   9.470  10.744  15.323  0.1433 -0.2420  0.1976
 9252W        W52165   4.011   7.869  20.942  0.3769  0.0529 -0.1348
 9253W        W52166  11.059  15.123  14.778  0.1351 -0.0792 -0.0883
 9254W        W52167  34.088  12.917   1.070  0.1044  0.1667  0.2846
 9255W        W52168   1.276   7.276  19.050  0.6690 -0.2397 -0.0639
 9256W        W52169  22.880   3.151  23.921 -0.3243  0.0955  0.0451
 9257W        W52170   7.604  17.121  15.040  0.1619 -0.0170  0.0763
 9258W        W52171   3.266  14.431  16.290 -0.1585 -0.0693 -0.0132
 9259W        W52172   0.545  20.866  14.898  0.1729  0.0358 -0.2311
 9260W        W52173  33.662  19.156  17.264  0.0116 -0.1558  0.2353
 9261W        W52174  29.929   2.348  19.149 -0.0730  0.0715  0.1420
 9262W        W52175   3.347  11.833  23.224  0.1788  0.0390 -0.0973
 9263W        W52176  33.768  21.994  19.307 -0.2623 -0.1143  0.2557
 9264W        W52177   5.201   3.575  20.345  0.1189  0.0334  0.1886
 9265W        W52178   1.778  10.559  16.198  0.0677  0.1329 -0.0533
 9266W        W52179   7.659  34.024  21.474 -0.2798 -0.1418 -0.2445
 9267W        W52180  23.953  11.901  21.500  0.1738  0.3943  0.1836
 9268W        W52181  32.289  15.277  16.343  0.1920 -0.2480  0.1487
 9269W        W52182  10.014  10.310  19.689  0.0065  0.2822 -0.0711
 9270W        W52183  24.895  13.782  19.894 -0.0566  0.0417 -0.1999
 9271W        W52184  31.219   9.715  24.903  0.0574 -0.2489  0.2814
 9272W        W52185   4.405  10.489  25.176  0.1546 -0.0434 -0.0059
 9273W        W52186  10.116  19.191  18.245  0.2867 -0.1315 -0.1747
 9274W        W52187  33.889   3.463  19.306 -0.1548  0.0330 -0.1854
 9275W        W52188  29.599  20.133  26.231  0.3055 -0.1639 -0.1489
 9276W        W52189   3.999  22.442  23.010  0.0116  0.2256 -0.1481
 9277W        W52190  30.036  20.672  24.562 -0.0409 -0.0797 -0.2837
 9278W        W52191  32.885   5.259  23.632  0.1382  0.1081 -0.0820
 9279W        W52192   1.658   8.017  19.990  0.2201  0.0294 -0.2683
 9280W        W52193   4.448  14.701  27.733 -0.1321 -0.0941  0.3807
 9281W        W52194   7.321  12.562  22.795 -0.2956  0.1926 -0.0187
 9282W        W52195  25.922   7.633  15.450  0.2222 -0.0972  0.2124
 9283W        W52196   5.477  10.044  19.192  0.1792  0.0246  0.4822
 9284W        W52197  11.788  19.303  18.851 -0.0375 -0.1393  0.2133
 9285W        W52198  28.031  12.189  17.477 -0.0776 -0.4209 -0.1677
 9286W        W52199  33.815   9.950  21.844 -0.2056 -0.3039  0.1116
 9287W        W52200  11.086  12.355  16.324 -0.1632 -0.2610  0.1436
 9288W        W52201  28.683  18.236  19.990 -0.2996  0.1060  0.0545
 9289W        W52202   4.358  15.603  23.220 -0.0177 -0.1067  0.1523
 9290W        W52203   1.036  23.969  22.445 -0.0666  0.0306  0.0014
 9291W        W52204   2.225   7.876  17.414 -0.0838  0.0589  0.0887
 9292W        W52205  28.714  16.304  20.561  0.2969 -0.1680  0.0573
 9293W        W52206   1.252  14.711  19.603  0.2448  0.1467 -0.1862
 9294W        W52207   4.600  10.126  21.122  0.0933 -0.0012  0.1312
 9295W        W52208  28.215  14.428  22.757 -0.0834 -0.0602  0.0171
 9296W        W52209  12.491  27.634  26.739  0.1087  0.0511 -0.0367
 9297W        W52210  28.094  16.493   0.331  0.0681 -0.4203  0.1221
 9298W        W52211  11.634  10.042  22.870 -0.1849 -0.1132 -0.1174
 9299W        W52212   4.448   6.814  18.305  0.3660 -0.0689 -0.1203
 9300W        W52213  33.035   8.384  20.500  0.0367 -0.1532  0.1684
 9301W        W52214  28.784  10.380  17.374 -0.1738  0.1080 -0.4813
 9302W        W52215  30.584   9.282  18.967  0.1804 -0.1234  0.0405
 9303W        W52216   4.195   7.756  19.267 -0.2333 -0.2321  0.2311
 9304W        W52217  25.697  12.941  17.619 -0.0186 -0.0162  0.3080
 9305W        W52218   3.094  19.216  13.522  0.0166 -0.1497 -0.0150
 9306W        W52219   2.065  16.484  16.321  0.2818 -0.0537 -0.3278
 9307W        W52220  15.406  20.401  15.479  0.3695  0.2170  0.2681
 9308W        W52221  32.723  14.483  23.297 -0.2709  0.0884 -0.2275
 9309W        W52222  26.044  18.351  27.337  0.3130  0.1112 -0.2161
 9310W        W52223   7.204  18.247  20.159 -0.0095  0.1591 -0.1007
 9311W        W52224  32.617  10.797  21.491 -0.1640  0.1426  0.1797
 9312W        W52225   3.969  10.176  19.649 -0.0033 -0.1617  0.0876
 9313W        W52226   0.269  18.184   0.085  0.1051  0.0281  0.3838
 9314W        W52227   6.601  15.863  13.762 -0.0345  0.1567  0.0971
 9315W        W52228  21.488   3.027  22.639  0.1898 -0.2275 -0.3656
 9316W        W52229  15.685   8.115  24.491  0.1886 -0.3162 -0.2598
 9317W        W52230   8.036  17.937  26.028  0.1223  0.0776 -0.0516
 9318W        W52231  32.193  11.156  14.969  0.2371 -0.1102  0.1663
 9319W        W52232   1.134  11.996   0.560 -0.3325 -0.0437 -0.0295
 9320W        W52233  30.270  11.378  21.238 -0.1522  0.3999 -0.1022
 9321W        W52234  28.159   7.581  24.930 -0.2730  0.0452 -0.1130
 9322W        W52235  15.662  15.250  13.632  0.1139  0.1264  0.1064
 9323W        W52236   7.090  13.824  15.241 -0.1191  0.0762 -0.0128
 9324W        W52237  30.111  21.345  28.723 -0.2804 -0.2822  0.3990
 9325W        W52238   0.339  16.860  27.651 -0.2661 -0.2157  0.3964
 9326W        W52239   1.687   6.003  18.995  0.1979 -0.0160  0.0286
 9327W        W52240   2.713  13.554  18.582  0.1905 -0.0954  0.1391
 9328W        W52241   8.610  14.078  27.165 -0.1862  0.2210 -0.1937
 9329W        W52242   8.605  10.356  15.506  0.1318  0.0216 -0.0811
 9330W        W52243   4.720  18.869  25.839 -0.1606 -0.4471  0.1771
 9331W        W52244  10.371  23.055  14.961  0.0020 -0.0818  0.0453
 9332W        W52245   7.212  17.704  24.594 -0.0651 -0.0457  0.1374
 9333W        W52246  21.845  26.086  20.007 -0.1469  0.0267  0.3968
 9334W        W52247   4.702  11.122  18.868 -0.4713  0.3375 -0.1781
 9335W        W52248   5.941  12.891  29.390  0.3150  0.0353  0.1849
 9336W        W52249   0.884  15.792  17.928  0.0040 -0.2662 -0.0243
 9337W        W52250  33.431  10.087  26.036 -0.0859 -0.3107  0.2086
 9338W        W52251   8.860  18.590  18.694  0.1451 -0.0933  0.3840
 9339W        W52252  33.543   8.259  27.690  0.2968 -0.0399 -0.0824
 9340W        W52253   4.528   8.862  24.443  0.0182 -0.2992 -0.1265
 9341W        W52254  31.351  13.308  20.940 -0.1068 -0.1811  0.0960
 9342W        W52255  29.763  23.674   1.509 -0.0146  0.1932 -0.1465
 9343W        W52256   8.671  14.569  23.796 -0.1294 -0.2215 -0.0509
 9344W        W52257   7.081  23.870  14.894 -0.0591  0.0790 -0.2011
 9345W        W52258   8.773  13.604  25.466 -0.1964 -0.1734 -0.1086
 9346W        W52259  21.415  14.354  23.267 -0.1056  0.2066 -0.0121
 9347W        W52260   1.814  11.749  15.784 -0.1112  0.3454  0.2433
 9348W        W52261  34.420  19.269  14.439  0.1780  0.3906  0.2789
 9349W        W52262  33.906   9.906  22.897 -0.1099  0.2165 -0.0885
 9350W        W52263  16.295  21.326  25.935 -0.2416 -0.2269  0.0886
 9351W        W52264  30.203  11.987  24.515  0.1659 -0.0640  0.1530
 9352W        W52265   6.363   4.738  23.210 -0.2335  0.0512 -0.0559
 9353W        W52266  25.448  10.774  22.104  0.1581  0.0249  0.0849
 9354W        W52267  25.781  23.143  17.201  0.0942 -0.1087  0.0143
 9355W        W52268   9.496  20.508  18.270 -0.2547  0.1047  0.0844
 9356W        W52269  26.589  10.420  17.150  0.1528 -0.1596 -0.2442
 9357W        W52270   1.934   6.651  19.659  0.0511  0.2397 -0.3984
 9358W        W52271   1.668  10.889  19.306  0.3730 -0.2586 -0.1952
 9359W        W52272  10.981  10.841  22.118  0.3503 -0.3620  0.0595
 9360W        W52273   6.421  30.047  24.310  0.2122 -0.0361  0.2357
 9361W        W52274   1.094   3.716  16.145 -0.0003  0.2833  0.0227
 9362W        W52275   1.392  15.529  22.431  0.0914  0.1344  0.0524
 9363W        W52276  22.822  20.356  22.417  0.2823 -0.0509 -0.1078
 9364W        W52277   4.236  15.245  14.009 -0.0805  0.3247  0.0689
 9365W        W52278  22.410   9.464  16.041 -0.1084 -0.1191 -0.1855
 9366W        W52279   0.699  16.537  26.181  0.0521 -0.2233  0.2557
 9367W        W52280   6.683  19.074  27.068  0.1167 -0.0700  0.1525
 9368W        W52281   6.604  28.270  21.019  0.0363  0.3803  0.0169
 9369W        W52282  28.841  15.088  23.245 -0.1236 -0.0704 -0.0812
 9370W        W52283   0.047  15.111  18.495 -0.0891  0.2082  0.1137
 9371W        W52284   6.238  14.869  26.335 -0.0432  0.4129  0.0826
 9372W        W52285  28.788  15.466   0.800 -0.1210  0.0710 -0.0981
 9373W        W52286  30.415  17.109  23.355  0.2714 -0.1356 -0.1579
 9374W        W52287   8.283  15.858  20.156 -0.3324  0.1266  0.1232
 9375W        W52288   1.148  18.686  20.640 -0.3116 -0.1620  0.3048
 9376W        W52289   5.038  18.643   5.976  0.0847 -0.1086 -0.1346
 9377W        W52290   7.463  10.655  17.212 -0.0796 -0.2099 -0.0708
 9378W        W52291   3.988  14.985  17.799  0.1320  0.1972 -0.1251
 9379W        W52292  27.303  14.478  21.745  0.3170 -0.2556 -0.0734
 9380W        W52293   1.033   8.311  22.915 -0.1598 -0.1915 -0.2968
 9381W        W52294  31.143  20.330  28.538  0.1098 -0.0625  0.1762
 9382W        W52295   7.653  21.128  17.452  0.0111  0.3672  0.0329
 9383W        W52296  30.113  15.121  23.862  0.0313 -0.0191  0.0288
 9384W        W52297   6.974  16.079  15.330  0.2363  0.1056 -0.1523
 9385W        W52298   8.670  12.732  25.050 -0.1131 -0.0815  0.3030
 9386W        W52299   8.621  34.189  17.807 -0.0389  0.1716 -0.2500
 9387W        W52300   6.782  20.419  28.322  0.2667 -0.1605  0.2561
 9388W        W52301  33.664  14.789  26.083  0.0922 -0.1375  0.1254
 9389W        W52302  31.842   3.740  26.094  0.1905  0.0908  0.0109
 9390W        W52303  31.150   6.945  20.583  0.2325  0.0874 -0.0361
 9391W        W52304   4.101  15.659  20.552 -0.0465 -0.2502  0.0953
 9392W        W52305  26.419   9.890  15.187  0.3714 -0.0694 -0.1627
 9393W        W52306  25.620  20.936  19.933  0.0656  0.1332  0.1115
 9394W        W52307  33.040  17.021  18.389 -0.3771  0.1667 -0.2351
 9395W        W52308   1.372  15.402  29.053 -0.0563 -0.2153  0.3668
 9396W        W52309   2.676  17.360   2.857 -0.2219  0.0296  0.1303
 9397W        W52310  22.716   9.242  29.727  0.0732 -0.1180 -0.0022
 9398W        W52311   0.266  12.122  15.297  0.1118 -0.2872  0.2080
 9399W        W52312   2.416  15.313  22.414  0.1932 -0.3185 -0.2193
 9400W        W52313  17.371  18.044  25.413 -0.1328 -0.0962 -0.0793
 9401W        W52314  33.743  25.552  17.000  0.0503  0.1702  0.0118
 9402W        W52315   1.002  16.632  25.726 -0.0120  0.1367  0.0233
 9403W        W52316   0.249   8.330   7.169 -0.5737  0.0493 -0.0492
 9404W        W52317   6.951   8.054  19.227 -0.2761 -0.1388  0.3409
 9405W        W52318  11.351  11.167  27.285  0.0500  0.3227  0.2542
 9406W        W52319   7.571  10.200   3.788 -0.3045  0.1664 -0.1841
 9407W        W52320  23.925   9.009  18.166 -0.0140 -0.1521 -0.1653
 9408W        W52321   4.067  17.269  15.494  0.1827  0.0517  0.0139
 9409W        W52322  26.264  12.350  23.514  0.1383 -0.2072  0.1923
 9410W        W52323   2.766  13.470   3.714 -0.2265 -0.0573 -0.3421
 9411W        W52324   8.780  18.539  19.774 -0.1360  0.0718  0.1321
 9412W        W52325   0.135  18.096  14.416  0.1039 -0.2484 -0.3314
 9413W        W52326   9.428   4.893  20.525  0.0542 -0.0594  0.0461
 9414W        W52327   6.324  12.091  25.208  0.0838  0.2603  0.2447
 9415W        W52328   0.834  17.107  18.225  0.1174 -0.0215 -0.1004
 9416W        W52329   8.531  13.723  17.689 -0.1220 -0.0964  0.3144
 9417W        W52330  28.632  17.915  20.377 -0.0783  0.1570 -0.1098
 9418W        W52331  28.946  10.434  25.510 -0.4366  0.1236  0.2335
 9419W        W52332  12.279  10.977  20.199  0.2259  0.1202 -0.1888
 9420W        W52333   9.960  14.038   1.622 -0.1460 -0.1821 -0.1861
 9421W        W52334  30.955   6.533  21.407  0.0090  0.1481  0.3278
 9422W        W52335   1.347  14.852  13.714  0.0233  0.3580 -0.0395
 9423W        W52336  27.937  18.602   0.320  0.1705 -0.0631  0.0293
 9424W        W52337   5.388   8.695  22.799  0.1421 -0.0872 -0.1365
 9425W        W52338  31.713   7.687   3.591 -0.0521 -0.1029  0.0492
 9426W        W52339  31.436   9.975  26.580  0.0211 -0.2283  0.1726
 9427W        W52340  34.094  18.333  13.722  0.0970 -0.2764  0.1700
 9428W        W52341   5.119  18.661  18.242  0.0806 -0.3824 -0.1611
 9429W        W52342  32.918  13.276  19.797  0.2452  0.2100  0.3811
 9430W        W52343  33.773  12.670  28.281 -0.3224 -0.1957 -0.0885
 9431W        W52344  21.544  17.095  16.487  0.0763 -0.2108 -0.0415
 9432W        W52345   8.611  15.003  19.549  0.1171  0.0046 -0.2456
 9433W        W52346  32.935  13.666  14.841 -0.1026 -0.5272  0.1542
 9434W        W52347   0.798  16.703  22.766 -0.3076 -0.2528 -0.1615
 9435W        W52348   1.707  14.735  23.851 -0.1237 -0.0404 -0.2242
 9436W        W52349  13.696  10.493  24.168 -0.0733  0.2314 -0.0944
 9437W        W52350  24.201  21.052  21.985  0.1761  0.0954  0.2005
 9438W        W52351  21.936  14.639  24.780  0.2066 -0.0200 -0.0432
 9439W        W52352  24.946  20.306  13.723  0.0237  0.0209  0.1112
 9440W        W52353  29.052  15.259   3.666 -0.2150  0.1271 -0.2030
 9441W        W52354   8.609  16.951  20.479 -0.2883 -0.2311 -0.0190
 9442W        W52355   4.144  11.015  21.227  0.1983  0.2088  0.2392
 9443W        W52356   3.586  22.327  23.416 -0.0741  0.0298 -0.0635
 9444W        W52357  12.848  16.246  17.489 -0.1449 -0.0260 -0.1410
 9445W        W52358   8.396  15.391  20.144 -0.1647 -0.1966  0.3347
 9446W        W52359   0.107  13.572  16.853 -0.2365 -0.0253 -0.2343
 9447W        W52360  33.513  14.103  21.029  0.1319 -0.0043  0.1134
 9448W        W52361  12.380  11.619  22.416 -0.0752 -0.0306  0.3522
 9449W        W52362  27.604  15.328   1.356  0.2267  0.0336 -0.0440
 9450W        W52363  33.589   5.918  19.506  0.3102 -0.0627  0.1405
 9451W        W52364  32.421   2.202  19.667  0.1386  0.1031  0.3094
 9452W        W52365  30.543   5.707  19.828 -0.2863 -0.1221  0.1484
 9453W        W52366  33.969  11.926  19.891  0.3041  0.0013 -0.1448
 9454W        W52367   8.171  13.766  23.824  0.1874  0.1026 -0.0341
 9455W        W52368   7.687  10.856  21.936  0.0454 -0.1075  0.0076
 9456W        W52369   7.015  14.404  23.088 -0.0674 -0.0089  0.4583
 9457W        W52370  28.040  24.789  27.086  0.0696  0.1092  0.1457
 9458W        W52371   3.371  18.519  23.086 -0.1896 -0.2556  0.1686
 9459W        W52372   0.965  15.553  24.715  0.3503 -0.1263 -0.0444
 9460W        W52373   0.605  18.382  15.229  0.2253  0.2308  0.0114
 9461W        W52374   4.420  12.678  24.624  0.0879  0.0191  0.1881
 9462W        W52375   3.391   5.532  19.533 -0.0348  0.3602 -0.1560
 9463W        W52376  30.646  10.433  20.457 -0.0512 -0.2035 -0.2776
 9464W        W52377   7.719  10.664  22.937 -0.1378 -0.3993  0.1048
 9465W        W52378  10.283  33.888  23.675  0.1187  0.2922  0.0378
 9466W        W52379   6.298   8.485  17.599 -0.1379  0.0105 -0.0870
 9467W        W52380   5.291  16.368  21.390 -0.2653 -0.1243  0.0204
 9468W        W52381  11.532  13.512  16.158  0.2775 -0.0844  0.3130
 9469W        W52382   8.058  11.079  19.986 -0.1462  0.1264  0.0384
 9470W        W52383  31.743  14.673  20.815  0.0331  0.0529  0.0147
 9471W        W52384   5.727  11.991  17.811  0.0908 -0.0039  0.0307
 9472W        W52385  28.593  24.337  14.787 -0.0424 -0.1322 -0.0691
 9473W        W52386  31.761  15.917  16.723 -0.0273  0.1384 -0.1163
 9474W        W52387  33.870  22.851  19.608 -0.4463 -0.4926 -0.0285
 9475W        W52388   6.558  16.082  22.406  0.3480  0.1076  0.0744
 9476W        W52389   7.122   5.015   5.899  0.2523  0.3943  0.0594
 9477W        W52390   6.169  14.076  15.356 -0.0811  0.1040 -0.0624
 9478W        W52391   5.860  20.683  24.446 -0.0654  0.1140 -0.2471
 9479W        W52392  20.985  15.553   0.410 -0.1115 -0.2112 -0.0396
 9480W        W52393  17.025  21.327   8.192 -0.5562  0.0755  0.1804
 9481W        W52394  12.231   9.273  27.731  0.1946 -0.2491 -0.0964
 9482W        W52395   6.528   6.061  21.867 -0.1682  0.1434 -0.1034
 9483W        W52396   9.787  10.168  21.224 -0.3748 -0.0829 -0.2628
 9484W        W52397  33.216  18.232  26.178  0.0083 -0.1777 -0.0405
 9485W        W52398   2.613   8.887   2.595  0.3474 -0.0669  0.2871
 9486W        W52399  32.126  21.445  19.232  0.0340 -0.0501 -0.1129
 9487W        W52400  29.681  17.472  22.179  0.1209 -0.1819 -0.1248
 9488W        W52401   1.804  15.312  20.519  0.0267  0.3598 -0.0709
 9489W        W52402  11.531   7.826   8.400  0.1746  0.0193  0.1340
 9490W        W52403   1.779  22.709  24.571  0.1261 -0.1835  0.1135
 9491W        W52404   5.235  20.501  16.452 -0.1456 -0.3875  0.0623
 9492W        W52405  13.968  19.811  21.525 -0.0880  0.1649  0.0864
 9493W        W52406   9.159  14.436  21.805  0.3577  0.1609 -0.0502
 9494W        W52407   9.865   8.953  27.800 -0.1109 -0.1503 -0.1875
 9495W        W52408  17.592   5.107  19.802 -0.0286  0.0261 -0.1026
 9496W        W52409  13.709  11.323  14.292  0.0608  0.1714  0.1867
 9497W        W52410   1.770  13.930  25.725 -0.0903  0.2700 -0.0518
 9498W        W52411   8.157   4.515  16.932  0.3144  0.1523  0.3522
 9499W        W52412  28.490  17.504  21.264 -0.0581 -0.1623  0.2826
 9500W        W52413   2.456  10.802  22.310  0.1224 -0.1369 -0.1896
 9501W        W52414  34.001   2.088  17.650 -0.3937 -0.0912 -0.1297
 9502W        W52415   6.793   3.595  25.588  0.1289 -0.0478 -0.1978
 9503W        W52416  33.056  32.548  27.587  0.2298 -0.2168  0.0568
 9504W        W52417  32.111  10.079  17.838 -0.2300  0.1853  0.1688
 9505W        W52418  12.087   1.767  25.052  0.0921 -0.4072 -0.0915
 9506W        W52419  20.683   9.350   2.793 -0.1214  0.0016  0.0400
 9507W        W52420  28.414  11.225  14.520 -0.1861 -0.0381 -0.5605
 9508W        W52421   3.601  10.612  25.606  0.0889  0.1806 -0.2695
 9509W        W52422   5.595  15.606  23.824 -0.0497 -0.0193  0.1080
 9510W        W52423  27.951  10.786  24.424 -0.3253 -0.4516  0.0819
 9511W        W52424   8.718  14.333  15.887 -0.0971 -0.0127 -0.1934
 9512W        W52425  32.127  16.372  16.151 -0.1048  0.3349 -0.0066
 9513W        W52426   5.855   9.115  18.451 -0.1503 -0.0145  0.2194
 9514W        W52427   0.707  15.021  20.235  0.2749  0.0322 -0.1055
 9515W        W52428   4.811  11.964  24.335 -0.1336 -0.0752 -0.1707
 9516W        W52429   2.787  15.150  24.322  0.1165  0.0155 -0.2072
 9517W        W52430  32.157  15.033  19.406 -0.1327  0.2175  0.1168
 9518W        W52431  24.293  17.953  20.920  0.1894  0.1967 -0.5000
 9519W        W52432  27.002   9.231  23.197  0.0219 -0.4384 -0.2646
 9520W        W52433   7.172   1.768  19.095 -0.0544 -0.2766  0.0217
 9521W        W52434   4.133  16.668  16.674 -0.0521 -0.3152  0.0874
 9522W        W52435   1.205   8.332  19.879  0.2350 -0.1197  0.1012
 9523W        W52436  33.490  16.198  19.537 -0.2830  0.1191 -0.4094
 9524W        W52437   2.745  12.072  27.396  0.1111  0.0090  0.1711
 9525W        W52438  31.889  16.581  22.853  0.1160  0.1066  0.4469
 9526W        W52439   1.948  14.945  25.249  0.1151 -0.0941 -0.1708
 9527W        W52440   4.389  20.470  15.283  0.2711 -0.0764  0.0754
 9528W        W52441  31.239  18.535  14.055  0.0825 -0.1209 -0.0499
 9529W        W52442  30.787   2.387  16.159 -0.0249 -0.1225  0.1222
 9530W        W52443  27.818  23.173  19.513 -0.1811  0.1666 -0.0644
 9531W        W52444   4.298  18.454  14.243  0.1324 -0.1703 -0.1713
 9532W        W52445   4.537  29.147   0.471  0.0438 -0.1258  0.0248
 9533W        W52446  10.326  13.559   0.671  0.0468  0.1426 -0.0437
 9534W        W52447  31.452  12.416  20.453 -0.1608 -0.3127  0.1317
 9535W        W52448  32.854  25.922  24.080  0.0158 -0.1772  0.0755
 9536W        W52449  29.202  18.380  19.161 -0.1488  0.0047 -0.0884
 9537W        W52450  26.304   8.494  15.215  0.0865  0.3120  0.0240
 9538W        W52451  29.739  12.999  15.357 -0.3619  0.0001  0.0515
 9539W        W52452   1.007  12.484  22.085 -0.1526  0.0350 -0.0933
 9540W        W52453   3.887  11.691  22.147  0.2418 -0.1746 -0.1383
 9541W        W52454  23.120  11.499  17.296  0.1400  0.3085  0.0453
 9542W        W52455   5.305  14.108  20.721  0.0228 -0.0317  0.2281
 9543W        W52456   6.596  10.733  21.612  0.3132  0.0257  0.1317
 9544W        W52457   6.415   0.983  21.375 -0.1334 -0.0548  0.2246
 9545W        W52458   8.219   7.949  24.762 -0.3776  0.2448 -0.1953
 9546W        W52459   4.260   9.756  21.423  0.1171  0.0188 -0.1983
 9547W        W52460   4.451  13.599  19.108  0.0953  0.0840 -0.0671
 9548W        W52461  29.736  15.946  17.322 -0.2063  0.1575 -0.0568
 9549W        W52462   3.000  13.491  24.601 -0.1255 -0.0255  0.0875
 9550W        W52463  29.541   7.445   1.150 -0.2857  0.2996 -0.1769
 9551W        W52464   8.097  28.198  18.538  0.3452 -0.2981 -0.0042
 9552W        W52465  31.495   8.774  20.542 -0.2117 -0.0000 -0.0295
 9553W        W52466  29.092  23.030  23.006 -0.1859  0.0773  0.3275
 9554W        W52467   9.007  21.389  26.163 -0.6102 -0.1388  0.3500
 9555W        W52468   1.195  21.671  27.568  0.0215  0.4025 -0.0392
 9556W        W52469   7.981  26.568  20.905 -0.0453  0.1076  0.2593
 9557W        W52470  33.758  10.225  29.109 -0.4035 -0.4038  0.1726
 9558W        W52471  28.789  15.859  16.665  0.3449  0.1886  0.2794
 9559W        W52472   3.107   6.459  29.262  0.3002  0.0823  0.4178
 9560W        W52473   7.620  19.003  15.954  0.0616  0.0441 -0.0638
 9561W        W52474  31.891  22.228  15.450  0.1331 -0.0882 -0.0232
 9562W        W52475   6.751   4.130  24.427 -0.4444 -0.6236  0.3195
 9563W        W52476   2.384   6.548  20.260 -0.2014 -0.1235  0.0961
 9564W        W52477   1.663  17.411  27.139  0.1862  0.0596 -0.5429
 9565W        W52478   2.956  25.394  25.551  0.1691  0.2894 -0.1681
 9566W        W52479   0.280  19.829  20.131  0.0491  0.3656  0.1288
 9567W        W52480  33.391  24.890  28.503 -0.3595 -0.1221  0.1071
 9568W        W52481   2.748  13.808  23.135 -0.0455 -0.0072  0.0076
 9569W        W52482   8.292  14.907  16.347  0.1136 -0.1172  0.1468
 9570W        W52483  10.793  16.579   1.657  0.0491 -0.1059  0.0385
 9571W        W52484  11.498  14.883  24.957  0.0567 -0.2123  0.0047
 9572W        W52485   1.219   8.634  29.319  0.5069  0.0001 -0.2427
 9573W        W52486   0.750  12.397  29.587 -0.1915  0.0572  0.2047
 9574W        W52487   6.513  16.185  16.015  0.1860 -0.0101  0.2785
 9575W        W52488  27.342   8.884  26.055 -0.0602  0.3079 -0.2811
 9576W        W52489  27.462  12.238  17.765 -0.1044  0.3716 -0.0544
 9577W        W52490   1.581  14.751  15.605  0.2079 -0.0313  0.5165
 9578W        W52491  13.734   4.205  19.776  0.0789 -0.0078  0.0616
 9579W        W52492   3.650   9.211  19.047  0.2021  0.0158  0.2415
 9580W        W52493   2.934   5.480  18.305 -0.2145  0.0351 -0.0892
 9581W        W52494   6.382   7.109  16.715  0.0803 -0.1473 -0.1414
 9582W        W52495   6.219  17.064   0.203  0.0026  0.2647 -0.0045
 9583W        W52496  29.973   5.428  20.958  0.0917  0.1127  0.1142
 9584W        W52497  28.172  32.710  22.878  0.0156 -0.4279 -0.1353
 9585W        W52498  29.714  15.977   3.215  0.2684 -0.1026  0.0727
 9586W        W52499   6.158  10.375  22.850 -0.1571  0.1475  0.0584
 9587W        W52500  27.499  21.117   0.987  0.0521 -0.3057  0.4207
 9588W        W52501   6.043   8.921  22.328 -0.0081 -0.2196 -0.0129
 9589W        W52502   2.146  34.243  16.937 -0.0361 -0.0688  0.0359
 9590W        W52503   7.952   4.147   0.408 -0.0655 -0.2134  0.0966
 9591W        W52504  30.460   4.995   1.351 -0.3078  0.0091 -0.1546
 9592W        W52505  32.553   4.571  24.877 -0.2373  0.0175  0.1112
 9593W        W52506  27.938   9.670  24.770  0.0848  0.1214  0.0920
 9594W        W52507   0.081  13.490  19.307 -0.0037  0.1522  0.0930
 9595W        W52508   5.000  11.558  18.844  0.1786 -0.2092 -0.0448
 9596W        W52509  11.560   6.195  28.304 -0.0677 -0.0189 -0.1461
 9597W        W52510  30.587  16.657  18.874 -0.0948  0.2556 -0.1751
 9598W        W52511   3.155  11.496  16.638 -0.1453 -0.1109 -0.0568
 9599W        W52512  21.905   3.297  25.378  0.1095  0.0577 -0.0507
 9600W        W52513  32.749  21.171  17.564 -0.1301  0.1401  0.1236
 9601W        W52514  33.561  14.337  22.569 -0.2960  0.0415 -0.0573
 9602W        W52515  29.230  23.625  18.585 -0.0242  0.2127 -0.0810
 9603W        W52516   3.211  16.054  20.065 -0.5218 -0.3397 -0.0872
 9604W        W52517  29.909  19.313  23.736  0.0173 -0.3632 -0.2432
 9605W        W52518  11.476  22.311  15.575 -0.2577 -0.0703  0.4412
 9606W        W52519  25.275  17.251  25.431  0.2340 -0.1837 -0.1737
 9607W        W52520   6.205   6.439  25.638 -0.0279  0.2240 -0.0327
 9608W        W52521  25.603  15.940  19.760  0.2430  0.3145 -0.0316
 9609W        W52522  31.813  10.366  21.209  0.3200 -0.1072 -0.2387
 9610W        W52523  27.199   5.119  23.197  0.2047 -0.1621  0.0620
 9611W        W52524  11.985  18.568  28.232 -0.0395 -0.0328 -0.0953
 9612W        W52525  32.650   5.505  17.895  0.0190  0.1399  0.2243
 9613W        W52526   8.577  15.622  27.011  0.1673 -0.0713 -0.1069
 9614W        W52527   2.335  15.137  21.943 -0.2919 -0.0619  0.1334
 9615W        W52528   7.984  15.138  25.974 -0.1467  0.1597 -0.0836
 9616W        W52529   1.580  20.489  17.038  0.2671  0.4437  0.2180
 9617W        W52530  23.246  15.633  25.579  0.0353 -0.2038  0.1581
 9618W        W52531  25.612   7.685  16.346  0.1799  0.1263  0.3026
 9619W        W52532   9.180   8.642  21.452 -0.1335 -0.3350  0.0313
 9620W        W52533   1.943  12.087  17.754 -0.0890  0.1777 -0.0114
 9621W        W52534   1.230  16.078  22.550 -0.2066  0.1626 -0.1781
 9622W        W52535  10.478  12.838  15.744  0.1123  0.0197  0.3163
 9623W        W52536  15.365   9.344   4.306 -0.0381 -0.4041  0.0895
 9624W        W52537  31.907  18.648  15.850 -0.0775 -0.2979  0.2269
 9625W        W52538  22.444  21.453   8.294 -0.0375 -0.1330 -0.3358
 9626W        W52539   1.812  20.202  23.097  0.3536 -0.2422 -0.1918
 9627W        W52540  26.611  23.760  18.752  0.0207  0.1338  0.3774
 9628W        W52541  34.482  16.840  21.277  0.0617 -0.1709 -0.3974
 9629W        W52542   4.131  14.003  22.928  0.1084  0.0151  0.0766
 9630W        W52543   1.943  13.445  29.165  0.1337 -0.0885  0.1907
 9631W        W52544  30.184   9.789  17.164  0.2007 -0.1345 -0.1294
 9632W        W52545  24.611  25.623  20.910 -0.0785 -0.0507  0.1069
 9633W        W52546  15.641  24.120  20.456  0.0773  0.3864  0.2926
 9634W        W52547   2.587  17.636  22.411 -0.0070  0.4145 -0.1775
 9635W        W52548  10.014  15.957  24.645  0.0049  0.2896 -0.0242
 9636W        W52549  11.475  15.924  28.133 -0.2219  0.1437  0.0284
 9637W        W52550   8.219  10.423  20.657 -0.1626  0.1215  0.0088
 9638W        W52551  33.067  12.092  14.257  0.1164  0.0856 -0.3815
 9639W        W52552  34.472  10.075  23.367  0.2608  0.0927  0.0824
 9640W        W52553   0.278  10.928  19.303 -0.0205 -0.1565 -0.1585
 9641W        W52554   3.488   8.909  22.831  0.1088  0.0217  0.3193
 9642W        W52555  32.973  18.916  25.534  0.0659 -0.0468 -0.2592
 9643W        W52556  30.849  10.772  13.932  0.2226  0.3024 -0.0555
 9644W        W52557   6.907  17.585  26.026  0.3650  0.0021  0.0151
 9645W        W52558   0.937  18.471  25.106  0.2423 -0.1400 -0.2120
 9646W        W52559   0.584   9.152  21.800  0.2612  0.2316  0.0480
 9647W        W52560  10.679   5.665  22.416  0.0985 -0.1280  0.3991
 9648W        W52561   2.079  18.504  13.802  0.1867  0.1369  0.2999
 9649W        W52562   2.878  17.853  16.013 -0.0800  0.0018 -0.0623
 9650W        W52563   6.561  16.354  25.421 -0.4325  0.0343  0.4920
 9651W        W52564  32.743   7.695  16.150  0.0345 -0.0416  0.1912
 9652W        W52565  25.017  19.780  20.266  0.0190 -0.4023  0.0481
 9653W        W52566   0.584  20.589  19.487  0.1252 -0.1395 -0.1339
 9654W        W52567   8.762   5.408  23.334 -0.1256 -0.1175 -0.1025
 9655W        W52568  33.220  20.867  16.667  0.1547  0.1228 -0.3348
 9656W        W52569  26.312  28.950  27.952  0.2848  0.0787  0.4477
 9657W        W52570   5.605   9.271  21.474  0.1457 -0.1080 -0.1170
 9658W        W52571  11.664  13.869  22.882 -0.1162  0.0335  0.2462
 9659W        W52572   0.819   1.836  18.914 -0.1727 -0.0829 -0.0690
 9660W        W52573  18.853   8.630  27.158 -0.0559 -0.0092  0.1342
 9661W        W52574   3.212  20.321  17.730 -0.0333 -0.1992  0.0864
 9662W        W52575  32.151  18.274  15.039  0.1175  0.3576  0.1442
 9663W        W52576   2.389  18.930  23.907 -0.1243  0.0233  0.0377
 9664W        W52577  28.815  19.325  20.942 -0.0801  0.0804  0.3769
 9665W        W52578  33.220   8.015  18.648  0.3340  0.0356  0.0914
 9666W        W52579  34.239  12.749  21.823 -0.0018  0.3115 -0.0059
 9667W        W52580  32.577  14.934  20.702  0.2621 -0.1028 -0.0071
 9668W        W52581   6.427  16.840  19.840 -0.0560 -0.1382  0.1733
 9669W        W52582   4.073  13.370  26.131  0.0128  0.0704  0.0469
 9670W        W52583   5.331  16.558  19.513  0.0434  0.1062  0.1214
 9671W        W52584  28.260  13.421  26.322 -0.0273  0.1589 -0.0459
 9672W        W52585   7.073   9.303  16.261 -0.1162  0.1054 -0.1015
 9673W        W52586   1.144  16.398  15.581 -0.2316  0.1442 -0.0747
 9674W        W52587  32.840  14.159   4.147  0.1350 -0.1048  0.0735
 9675W        W52588  12.749  17.222  15.534 -0.0441 -0.0455 -0.0626
 9676W        W52589   0.465   8.988  20.709  0.4303  0.0194  0.1438
 9677W        W52590   0.201  14.663  14.817 -0.2115  0.0938  0.2424
 9678W        W52591  32.847   9.579  20.666 -0.3249  0.0919  0.1630
 9679W        W52592   4.944  23.243  17.662  0.1199 -0.2408  0.0783
 9680W        W52593  25.424   9.087  26.258 -0.0903  0.0003  0.1390
 9681W        W52594  29.812  27.916  20.397  0.0161  0.3586 -0.2779
 9682W        W52595  32.471  17.792  25.771  0.2448 -0.0809  0.0532
 9683W        W52596   2.646  12.397  22.751 -0.1405 -0.1412  0.3198
 9684W        W52597   1.716  10.357  19.961  0.0162 -0.0630 -0.0168
 9685W        W52598  25.843  15.916  22.188  0.2873  0.1705  0.4163
 9686W        W52599  32.422  15.938  22.581 -0.1107  0.1390  0.1462
 9687W        W52600   8.381   7.337  20.433 -0.1334  0.1070 -0.2126
 9688W        W52601  21.965  20.664  18.747  0.2555  0.1305  0.0330
 9689W        W52602   5.838  16.768  18.933  0.3322 -0.0422 -0.0372
 9690W        W52603  12.649  18.496  13.053  0.2746  0.1775 -0.0077
 9691W        W52604   0.868   8.906  27.948  0.1927  0.0048 -0.2256
 9692W        W52605  26.477   4.313   0.135  0.3575  0.1130  0.0540
 9693W        W52606   2.524   9.982  20.322 -0.0644 -0.0239 -0.0224
 9694W        W52607  31.750  21.235  14.437 -0.1649 -0.0587  0.3000
 9695W        W52608   9.457  19.298  15.610 -0.2706 -0.4036  0.0095
 9696W        W52609  33.976   3.707  23.298  0.2409  0.1081 -0.0831
 9697W        W52610  31.644   8.735  22.808 -0.0122 -0.0898 -0.1806
 9698W        W52611  12.822  18.231  25.136  0.2146  0.4050  0.1289
 9699W        W52612  27.026  20.144   1.617 -0.1702 -0.1682 -0.0884
 9700W        W52613   4.749  12.902  17.302  0.1296  0.0350  0.0833
 9701W        W52614   5.726  15.837  19.875 -0.0628 -0.0895 -0.0258
 9702W        W52615  24.145   9.334  22.246  0.1281  0.0842 -0.1699
 9703W        W52616  21.328  21.773  17.258  0.0783  0.0715  0.3667
 9704W        W52617  27.768   5.956  19.389 -0.2728 -0.0555  0.0817
 9705W        W52618   1.252  22.978  28.706 -0.0743 -0.3903 -0.0688
 9706W        W52619   3.868   9.134  27.010 -0.0175  0.0784  0.0835
 9707W        W52620   7.461   6.414  24.134  0.1621  0.1653 -0.0128
 9708W        W52621   9.843  12.199  21.314 -0.0371  0.0699  0.2264
 9709W        W52622  26.232  20.797  23.293  0.1757  0.1323 -0.0773
 9710W        W52623  10.738   9.932  17.974  0.1049  0.1413 -0.4952
 9711W        W52624  19.970   9.690   7.695  0.1972 -0.2173  0.1838
 9712W        W52625   3.812  14.311  20.349 -0.0279  0.1774  0.4380
 9713W        W52626  11.264   8.097  24.295  0.1609  0.0860  0.3121
 9714W        W52627  30.026   6.638  15.583 -0.4029  0.2789 -0.0388
 9715W        W52628  11.640   4.987  19.650  0.2314  0.0724  0.1353
 9716W        W52629   9.972   5.886  27.985  0.0718  0.0846 -0.3620
 9717W        W52630  32.587   1.540  16.482  0.0705 -0.1730  0.2757
 9718W        W52631  31.474  21.940  18.755  0.0142 -0.3644  0.1905
 9719W        W52632  12.506   4.955  25.533 -0.0713 -0.1059 -0.1417
 9720W        W52633   5.326   0.549  19.144  0.0789 -0.2265  0.1070
 9721W        W52634   2.323  12.500  29.209 -0.1448 -0.6029 -0.0518
 9722W        W52635  31.072  18.202  22.982 -0.1932  0.0792 -0.0721
 9723W        W52636   7.278  16.173  13.742  0.1746 -0.3282 -0.0818
 9724W        W52637  10.120  26.589  16.360  0.1627 -0.2126 -0.2954
 9725W        W52638   0.963   8.821  17.033  0.3847  0.3155  0.2376
 9726W        W52639  27.771   7.022  23.461 -0.3053  0.2365  0.0756
 9727W        W52640  12.721  10.871  27.518  0.0051 -0.3203 -0.0514
 9728W        W52641  30.386  18.321  18.297  0.3354 -0.2176 -0.0565
 9729W        W52642   5.295   6.426  17.528  0.0948  0.0699 -0.4599
 9730W        W52643  26.000  14.016  25.904  0.1927  0.0798  0.0130
 9731W        W52644   8.046  15.430  22.910  0.0718  0.1274  0.0334
 9732W        W52645  29.503  18.245   3.927  0.1845  0.0754 -0.0041
 9733W        W52646   5.274  10.408  23.426  0.1330  0.0891 -0.4009
 9734W        W52647   2.325  19.723  29.371  0.0236  0.1520  0.1242
 9735W        W52648  29.435  13.125  22.758 -0.2189  0.1215 -0.2668
 9736W        W52649   3.778  15.293  27.526  0.4068 -0.0769 -0.0740
 9737W        W52650   2.727   6.532  19.849  0.1421  0.0697  0.3002
 9738W        W52651  20.893   4.647  25.228  0.0095  0.1878 -0.1238
 9739W        W52652   3.997  12.868  23.804 -0.1314  0.1483 -0.0899
 9740W        W52653   2.836  33.132  24.462 -0.0120 -0.0526 -0.4681
 9741W        W52654   2.810   4.296  26.826  0.1362 -0.1362  0.2764
 9742W        W52655  32.977  18.362  19.541 -0.5019  0.1484 -0.1589
 9743W        W52656   4.884   8.730  20.905 -0.3014  0.3630  0.2208
 9744W        W52657   2.843  16.069  15.137  0.4187  0.2516 -0.0394
 9745W        W52658  32.635  10.307  28.642 -0.2466  0.0598  0.0594
 9746W        W52659   2.057  17.550  23.260  0.2480  0.1479 -0.1521
 9747W        W52660  27.009   8.485  26.811  0.4118 -0.0156 -0.0290
 9748W        W52661  10.064  16.958  25.029 -0.0040  0.0150  0.0337
 9749W        W52662   3.166   8.224  20.851  0.1234  0.2108 -0.1368
 9750W        W52663  26.895   9.339  16.030  0.3693 -0.0332  0.2518
 9751W        W52664  32.252  24.196  21.362 -0.2982 -0.2477 -0.0158
 9752W        W52665   1.271  21.932  17.943 -0.0527  0.1808  0.1261
 9753W        W52666   5.360  17.686  14.366 -0.0669  0.2982  0.1226
 9754W        W52667   0.540  15.759  21.180  0.1968  0.1681  0.0571
 9755W        W52668   1.102  19.722  17.561  0.0229  0.0627 -0.0627
 9756W        W52669   3.132  19.443  14.425 -0.0839 -0.1534 -0.1443
 9757W        W52670   1.436   4.425  27.192 -0.3464 -0.0056 -0.1251
 9758W        W52671   0.876   4.679  16.916 -0.2086  0.0560  0.0136
 9759W        W52672  13.463   4.153  29.287  0.1748  0.3142  0.2121
 9760W        W52673  32.095  20.833  21.636 -0.2776 -0.1955 -0.1230
 9761W        W52674  30.623   4.679  22.918  0.0264 -0.0398 -0.2313
 9762W        W52675  12.450  16.611  19.413 -0.2215  0.1200  0.1223
 9763W        W52676   3.681  32.575  27.625  0.0248 -0.0772 -0.1740
 9764W        W52677   0.240  18.458  14.839  0.1607  0.1335 -0.0312
 9765W        W52678   2.084  25.822  15.060 -0.1598 -0.0997 -0.1350
 9766W        W52679   7.026  15.464  28.160  0.3048  0.0963  0.3330
 9767W        W52680   0.517   4.597  27.154 -0.1527 -0.1650 -0.3635
 9768W        W52681  18.398  15.607  23.659 -0.1564  0.0027  0.1440
 9769W        W52682  32.273   6.540  23.738  0.1753 -0.0160  0.1812
 9770W        W52683  23.466   3.113  29.398 -0.1939 -0.2788  0.0698
 9771W        W52684   0.449  16.580   2.176  0.1557  0.0481  0.1442
 9772W        W52685  28.185   7.900  28.445  0.2611 -0.2917  0.1308
 9773W        W52686   1.881  21.375  22.383  0.0735  0.0170 -0.2246
 9774W        W52687  10.790  12.785  20.906 -0.0291 -0.2332 -0.3359
 9775W        W52688  11.085  25.395  22.161  0.2623 -0.1843  0.0038
 9776W        W52689  27.893  24.824  28.597 -0.0406 -0.1077  0.1465
 9777W        W52690  30.954  12.415  24.535 -0.1138 -0.0173 -0.0246
 9778W        W52691  24.949  17.735  23.045  0.1409 -0.3391 -0.0882
 9779W        W52692  27.861   9.666  23.251 -0.0364 -0.1597  0.0386
 9780W        W52693  27.816   2.384  28.183 -0.3206  0.3235 -0.0293
 9781W        W52694   6.076  11.951  16.656  0.0722 -0.0589 -0.0793
 9782W        W52695   4.947  13.114  21.042  0.1826 -0.0325  0.2084
 9783W        W52696  27.710  17.992  22.252 -0.0431 -0.2036 -0.1055
 9784W        W52697  31.949  20.043  26.025  0.0099  0.3549  0.3851
 9785W        W52698  34.376  21.064  21.475 -0.1680  0.0930 -0.1975
 9786W        W52699  10.582  19.080   2.907  0.2591 -0.0695 -0.1122
 9787W        W52700  26.544  21.291  18.377 -0.2539 -0.0621  0.3937
 9788W        W52701  12.651  17.194  22.973 -0.0012 -0.0126 -0.1349
 9789W        W52702  33.574  19.913  21.083 -0.0007  0.2263  0.1066
 9790W        W52703  33.823  14.905  27.865  0.0593 -0.1965 -0.2586
 9791W        W52704   4.043  17.764   3.998  0.2784  0.0192  0.1920
 9792W        W52705  32.117  21.386  18.245 -0.1846 -0.2993 -0.1618
 9793W        W52706   3.967   0.436  19.148  0.2129  0.3951  0.0181
 9794W        W52707   0.251  15.750  15.875  0.1584 -0.4451 -0.0163
 9795W        W52708  30.122  25.679   1.739 -0.0054 -0.2514 -0.2178
 9796W        W52709   2.504  15.586  21.811 -0.0231 -0.1056  0.0342
 9797W        W52710  12.168   7.847  20.088 -0.3091 -0.0365 -0.0491
 9798W        W52711   4.587  11.152  26.732  0.0476 -0.0961 -0.4566
 9799W        W52712  29.696  18.003  22.308  0.3162 -0.1047  0.0229
 9800W        W52713   4.146  19.627  19.194 -0.0201 -0.3037 -0.2778
 9801W        W52714  27.533  33.726  20.527  0.0680 -0.0125  0.0374
 9802W        W52715   4.217  14.072   0.547 -0.0396 -0.1715  0.0431
 9803W        W52716  33.872  11.686  14.673  0.1639  0.1656  0.1011
 9804W        W52717   5.546  22.319  23.363  0.3273 -0.1275  0.2235
 9805W        W52718  11.611  17.508  17.423 -0.2014  0.0072  0.0432
 9806W        W52719  17.708  10.837  27.590 -0.1021  0.0256  0.1794
 9807W        W52720  12.794  15.479  18.525  0.0454 -0.0138  0.0353
 9808W        W52721  30.910  18.911  26.850  0.1824 -0.0313 -0.2085
 9809W        W52722   8.091   7.509  23.988 -0.0151 -0.0403  0.1754
 9810W        W52723  16.875  10.120  22.056 -0.1085 -0.0817 -0.0669
 9811W        W52724   3.998  18.117  15.583 -0.0373 -0.0646 -0.0913
 9812W        W52725   6.678   5.940  18.669  0.3132 -0.2268 -0.0908
 9813W        W52726   3.485   7.725  24.294  0.1596  0.1324 -0.3923
 9814W        W52727  33.838  19.091  28.442  0.0830 -0.1999  0.0792
 9815W        W52728   0.823  11.470  16.799 -0.0468 -0.0755  0.1141
 9816W        W52729   3.119   8.593  25.641 -0.3462  0.0663  0.1932
 9817W        W52730   8.336  17.718  18.531  0.1202  0.0499 -0.1366
 9818W        W52731   5.180  14.133  19.510  0.1083 -0.0317 -0.2449
 9819W        W52732   3.678  11.949  23.710 -0.1331 -0.0202  0.1262
 9820W        W52733  31.631  18.665   4.469  0.4468 -0.1612  0.0770
 9821W        W52734   1.235   6.805  21.123 -0.3476 -0.1478 -0.1081
 9822W        W52735   5.611  20.189   7.583 -0.0993  0.0305 -0.2182
 9823W        W52736   1.860  12.967  17.686 -0.2428 -0.0513  0.2504
 9824W        W52737  12.275  16.332  24.278 -0.2698  0.0692 -0.1002
 9825W        W52738   6.212  12.071   4.559 -0.0031 -0.0343  0.3598
 9826W        W52739   7.795  11.828  25.136 -0.0246  0.0892 -0.1301
 9827W        W52740  11.927  18.682  17.550  0.3837 -0.0301  0.1603
 9828W        W52741  14.500  15.735  23.584 -0.1422  0.2089  0.1821
 9829W        W52742   4.314   8.241  25.556  0.2054 -0.1488 -0.0539
 9830W        W52743  32.196   5.826  24.625 -0.2698  0.0330 -0.1289
 9831W        W52744   3.152  15.707  26.193 -0.0184  0.0790  0.0344
 9832W        W52745   0.604  19.709  26.421  0.1221  0.1205 -0.4179
 9833W        W52746  30.117   3.327  17.504 -0.1663 -0.0117  0.2562
 9834W        W52747  18.202   1.297  22.342  0.3027  0.1861 -0.2300
 9835W        W52748  32.947  13.859  24.188 -0.1344  0.1648  0.0268
 9836W        W52749  32.488  13.096  29.399 -0.0596  0.0286  0.1838
 9837W        W52750   7.967   6.463  21.117  0.0660  0.0115 -0.0738
 9838W        W52751  31.871  21.474  27.074 -0.1361  0.0886 -0.1031
 9839W        W52752  32.420   6.519  17.879 -0.0304  0.1328  0.0982
 9840W        W52753  32.084  18.273  24.422 -0.0044  0.3260 -0.1341
 9841W        W52754   7.360  13.596  17.104 -0.4775  0.0632 -0.2527
 9842W        W52755  20.155  27.204  27.374  0.3313 -0.0189  0.1182
 9843W        W52756   5.818   8.951  28.183  0.1197  0.0259  0.0555
 9844W        W52757   2.777  10.606  25.823 -0.1207 -0.2244  0.0825
 9845W        W52758   2.962  16.660  17.563 -0.2590 -0.1606 -0.0221
 9846W        W52759  28.374  22.509  26.856  0.1904 -0.1870  0.1519
 9847W        W52760  28.009   9.566  28.682  0.3297  0.0425 -0.0110
 9848W        W52761  11.137  11.875  25.193  0.0331 -0.0197  0.2996
 9849W        W52762  24.889  18.520  22.727 -0.2703 -0.4001 -0.0951
 9850W        W52763   8.398  10.356  26.263  0.0664 -0.0472 -0.1349
 9851W        W52764   2.494  13.329  23.339  0.2642 -0.1733 -0.0628
 9852W        W52765  22.158  13.918  28.190  0.0736 -0.0834 -0.1777
 9853W        W52766   8.967  16.754   0.178 -0.2962 -0.0003  0.2114
 9854W        W52767  30.756  33.117  19.534  0.1928  0.1889 -0.2452
 9855W        W52768  11.923  16.762   2.585  0.0815  0.4065  0.0781
 9856W        W52769  33.324   4.755  21.884  0.1822 -0.0853  0.0667
 9857W        W52770  31.503  26.033  22.112  0.1527 -0.0278 -0.3220
 9858W        W52771  32.994  11.184  22.651  0.0845 -0.1490  0.2850
 9859W        W52772  33.555  34.020   0.959 -0.2572  0.2529  0.2566
 9860W        W52773   7.500   0.918  28.561 -0.1179 -0.2579  0.0266
 9861W        W52774   6.980  13.429  21.683  0.1517  0.3094 -0.2447
 9862W        W52775   8.918   7.374  27.096  0.4172  0.0755 -0.1892
 9863W        W52776  25.525  10.422  23.969 -0.2801 -0.0444 -0.0584
 9864W        W52777  30.675  19.544  28.059 -0.0832 -0.3074  0.0328
 9865W        W52778  11.670  15.034   1.572 -0.1662  0.1085  0.0014
 9866W        W52779  31.065   8.933  17.640 -0.2157  0.4178 -0.1160
 9867W        W52780  10.220   6.531   8.664  0.0735 -0.2964 -0.1412
 9868W        W52781   2.365  18.782  18.311  0.2089 -0.3269 -0.3363
 9869W        W52782  11.984   5.007  16.237  0.0340  0.0575 -0.2343
 9870W        W52783  32.453  17.253  25.609  0.1891  0.0049 -0.2108
 9871W        W52784   2.920  14.809  15.865 -0.2758  0.2342  0.0261
 9872W        W52785   7.876   7.242  27.002  0.1909 -0.0060  0.0450
 9873W        W52786  33.968   8.618  17.298 -0.3032 -0.4671 -0.2535
 9874W        W52787  12.888  17.482  18.514  0.1418  0.0391  0.0755
 9875W        W52788  33.200   3.470  20.842  0.0835 -0.0225 -0.1011
 9876W        W52789  12.798  15.601  17.009  0.0470 -0.0158 -0.0275
 9877W        W52790   7.653  17.984  26.374 -0.4695  0.3000 -0.3510
 9878W        W52791  10.105  11.602  20.805  0.0693  0.2009  0.1589
 9879W        W52792  13.572  17.548   8.553 -0.0736 -0.1567  0.1624
 9880W        W52793  11.525  16.616  23.792 -0.0215  0.1356  0.0594
 9881W        W52794   3.556  10.780  28.559  0.0076  0.0113 -0.0869
 9882W        W52795  14.575  14.064  13.145 -0.0445 -0.0288 -0.1217
 9883W        W52796  16.843   9.568  26.739 -0.0594 -0.0172  0.3630
 9884W        W52797   5.949   3.751  25.676 -0.1191 -0.3236 -0.2166
 9885W        W52798   0.717   4.283  25.644  0.0683  0.1223  0.3337
 9886W        W52799  33.937  18.317  22.108  0.1598 -0.1880 -0.1112
 9887W        W52800   9.541  23.810  16.709  0.3535 -0.0613  0.2009
 9888W        W52801  29.264  10.914  17.245 -0.0341  0.0287  0.0501
 9889W        W52802  31.648  15.457   6.632  0.0412 -0.0428 -0.0517
 9890W        W52803   3.817  10.434  16.684  0.1345 -0.1439 -0.1299
 9891W        W52804  33.880  14.313  25.837  0.0699 -0.2130  0.3109
 9892W        W52805   6.438  19.524  14.019 -0.2063 -0.0349 -0.1930
 9893W        W52806   9.423  22.257   0.065  0.1654 -0.0065 -0.0719
 9894W        W52807  27.828   5.646  23.829 -0.1496 -0.0576 -0.2910
 9895W        W52808   8.242  13.712  21.385  0.0027  0.1697 -0.1037
 9896W        W52809   0.229  23.488  20.628  0.0375  0.3995 -0.2925
 9897W        W52810   3.295  14.905  25.435  0.0285  0.2146 -0.0163
 9898W        W52811  34.129   0.875  20.163  0.1355 -0.2109  0.1101
 9899W        W52812   3.652   0.746  25.049 -0.2328  0.3647  0.1741
 9900W        W52813   4.793  19.850  16.050  0.4299 -0.0847  0.0948
 9901W        W52814  30.011  10.440  18.652  0.0561  0.4566 -0.0026
 9902W        W52815  31.965  31.753  24.285  0.2214 -0.0660  0.0241
 9903W        W52816  33.078  11.504  16.664  0.1273  0.0459 -0.0368
 9904W        W52817   8.779  11.650  27.506 -0.1688 -0.4923  0.0676
 9905W        W52818  10.879  18.856  27.630  0.0912 -0.1932 -0.0733
 9906W        W52819  10.326  14.125  20.270 -0.0372 -0.0101  0.0173
 9907W        W52820   5.706   7.611  16.502  0.2479 -0.3549 -0.1084
 9908W        W52821  33.845   8.624  26.241 -0.0633  0.0420  0.0236
 9909W        W52822   6.458  18.365  27.223 -0.2693  0.1109 -0.1118
 9910W        W52823  30.451   9.190  25.671  0.0731  0.2567 -0.1004
 9911W        W52824  31.046  15.478  24.513 -0.0795  0.0872  0.3067
 9912W        W52825   8.679  12.895   5.172  0.1533  0.1720 -0.0442
 9913W        W52826  28.309   9.354  22.933 -0.2233 -0.1408 -0.2190
 9914W        W52827   9.114   6.454  25.988  0.0370 -0.3103  0.0343
 9915W        W52828  24.606  26.526  23.077 -0.0292  0.0268 -0.2078
 9916W        W52829  34.324  16.507  17.117  0.0160  0.1142  0.0224
 9917W        W52830  28.906  15.005  20.907 -0.2815 -0.0630  0.2616
 9918W        W52831   2.378  12.921  15.127 -0.0847 -0.0007  0.2246
 9919W        W52832  12.089  19.212  24.883 -0.1415  0.0228 -0.0885
 9920W        W52833   3.740  20.736  18.586  0.1424 -0.1522 -0.1348
 9921W        W52834  30.438  19.432  14.879 -0.1282  0.1764 -0.1384
 9922W        W52835  29.265  22.834  19.708 -0.1599 -0.2506  0.0202
 9923W        W52836  28.932  18.011  25.429  0.1436  0.0386 -0.2203
 9924W        W52837   7.497  22.111  25.758 -0.3774 -0.0568  0.0842
 9925W        W52838  33.878  17.240  18.808 -0.0111  0.1251 -0.2263
 9926W        W52839  26.608  21.727  17.501  0.0965 -0.0850 -0.0690
 9927W        W52840   8.149  14.544  16.014 -0.0261  0.0640  0.2943
 9928W        W52841  34.037   5.557  21.297  0.1794  0.1751  0.3542
 9929W        W52842  28.099  27.608  25.077  0.0886  0.2480  0.1316
 9930W        W52843  29.843  12.377  28.965 -0.0109  0.0073 -0.2611
 9931W        W52844  15.788  13.534   1.533 -0.2338 -0.0265 -0.0109
 9932W        W52845   0.428  10.627  20.520 -0.3395  0.0151  0.3980
 9933W        W52846  28.472   8.499   1.843  0.0377 -0.1088  0.0325
 9934W        W52847  21.931   6.164  17.816 -0.0924 -0.1082 -0.0639
 9935W        W52848  34.102   4.257  27.390 -0.2445 -0.1940 -0.1555
 9936W        W52849   5.683   5.548  18.357 -0.0439 -0.0826  0.2077
 9937W        W52850  33.450   3.767  29.464  0.0782  0.0195  0.1594
 9938W        W52851   0.810  14.873  21.031 -0.3128 -0.0745 -0.0281
 9939W        W52852  22.618  19.801  13.297 -0.0362 -0.0426 -0.1018
 9940W        W52853  32.605  30.172   4.933  0.1597 -0.0109  0.0127
 9941W        W52854  33.755  18.830  28.005 -0.1994  0.3903 -0.0977
 9942W        W52855  21.262  15.228  24.550 -0.0410  0.0588 -0.0856
 9943W        W52856   8.876  12.608  20.167 -0.1801 -0.0884 -0.1296
 9944W        W52857  28.278  12.011  16.209 -0.0509 -0.2878  0.0745
 9945W        W52858   6.123   7.650  17.644 -0.1322  0.4096 -0.0964
 9946W        W52859   9.945   5.143  20.604  0.0552  0.0900  0.0458
 9947W        W52860   3.752  21.934  16.583 -0.0466  0.0877 -0.0093
 9948W        W52861   6.589  16.521  20.753 -0.2252  0.0670  0.2633
 9949W        W52862   5.515  20.979  19.339 -0.2381 -0.0553 -0.0018
 9950W        W52863   2.854  11.292  20.643 -0.2553 -0.1591  0.1139
 9951W        W52864   9.270  13.617   1.441  0.0464  0.1399  0.1487
 9952W        W52865   0.435  12.818  29.378 -0.0085  0.4659 -0.0619
 9953W        W52866   5.162  14.215  29.292 -0.1296  0.0864  0.1853
 9954W        W52867  29.732  10.312  22.414  0.0642 -0.3009 -0.1338
 9955W        W52868   1.754  10.172  23.440  0.0024  0.3186 -0.0623
 9956W        W52869  15.372   2.879  26.443  0.0107  0.3116 -0.0134
 9957W        W52870   0.620  14.904  17.707 -0.2096 -0.3398  0.1880
 9958W        W52871   4.220  14.377  18.137  0.1300  0.0711  0.2204
 9959W        W52872  31.109   2.271  21.700 -0.0481  0.0801  0.0066
 9960W        W52873  11.221   3.614  25.919 -0.3497  0.3958  0.0433
 9961W        W52874  30.571  17.427  22.419 -0.0487  0.1487  0.2105
 9962W        W52875  29.783  16.202  28.777  0.2115  0.1412  0.0781
 9963W        W52876   9.464  11.985  24.573  0.0501  0.1185  0.1735
 9964W        W52877   3.884  24.566  23.304 -0.1221  0.2229 -0.2859
 9965W        W52878   1.167  16.009  14.675  0.3148  0.0518  0.2748
 9966W        W52879   4.620  12.437  27.096 -0.2179  0.0975  0.0175
 9967W        W52880   1.557  11.793  16.560  0.2105  0.3334  0.1814
 9968W        W52881  12.558   7.547   0.378 -0.4083 -0.3770 -0.0784
 9969W        W52882   8.065  19.408  14.560 -0.2623  0.3160  0.1622
 9970W        W52883   7.290  21.257   3.150  0.0289  0.1915 -0.0475
 9971W        W52884  31.483   8.863  24.862 -0.2181 -0.1167  0.0271
 9972W        W52885   0.193   0.939  18.172  0.1281  0.1081 -0.0286
 9973W        W52886   2.042  20.141  27.198 -0.1083 -0.0980 -0.0288
 9974W        W52887  10.084   5.894  19.421 -0.1662 -0.1934  0.0705
 9975W        W52888   3.545  15.293  23.886  0.0075  0.2387 -0.0786
 9976W        W52889   7.283  15.506  18.673  0.3374 -0.1258  0.0556
 9977W        W52890   6.437  16.014  27.595  0.1280  0.2145  0.0261
 9978W        W52891   0.070  14.820  19.254  0.2494 -0.1543 -0.1366
 9979W        W52892   7.169  10.174  27.329  0.1284  0.1242  0.0227
 9980W        W52893  13.108  11.987  20.480 -0.4476 -0.0532 -0.1156
 9981W        W52894  32.114  17.613  15.605  0.1628 -0.2750 -0.5216
 9982W        W52895  33.512  11.487  16.143 -0.1426 -0.0691  0.2815
 9983W        W52896  30.675  14.107   4.235 -0.0598  0.0737 -0.2197
 9984W        W52897   0.067  10.596  24.234 -0.0709 -0.0997  0.0503
 9985W        W52898   2.248   9.651  22.824  0.0741  0.2982 -0.2221
 9986W        W52899   2.431  17.270   0.179  0.1265  0.0797  0.0814
 9987W        W52900   0.350  20.276  25.387  0.1958  0.1466  0.3507
 9988W        W52901   1.807  17.319  22.407 -0.0842  0.1521  0.0457
 9989W        W52902  33.515   2.358  17.713 -0.0133  0.0040 -0.0181
 9990W        W52903   3.969  20.783   5.154  0.1007 -0.0926 -0.0396
 9991W        W52904  33.975  16.553   2.745  0.1981  0.0001  0.0785
 9992W        W52905   9.205  18.527   1.381 -0.2423  0.1567  0.2101
 9993W        W52906  32.776  10.692  20.934 -0.3234 -0.0630  0.1815
 9994W        W52907   9.059  14.442  16.973  0.0897 -0.0968  0.0776
 9995W        W52908   2.577  14.679  22.280  0.2005 -0.2200  0.2554
 9996W        W52909  10.530  18.890  18.140  0.1237  0.0706 -0.2147
 9997W        W52910  30.110  19.641  16.527 -0.1745  0.1811 -0.1339
 9998W        W52911   6.396  14.722  27.370  0.0479 -0.0545  0.0311
 9999W        W52912  12.426  13.873  19.132  0.1016  0.0367 -0.0481
10000W        W52913   2.802  32.052  29.531 -0.1936  0.0125 -0.0242
10001W        W52914   0.180   2.358  28.836 -0.1015  0.1225 -0.1689
10002W        W52915   4.540  14.841  19.268  0.0758 -0.5177 -0.0415
10003W        W52916  28.272  10.817   6.025  0.1227  0.1927 -0.3124
10004W        W52917   0.067   8.588  16.976  0.0249  0.0837  0.1777
10005W        W52918   0.360  11.323  29.465  0.2390 -0.1480  0.1379
10006W        W52919   7.089   4.582  24.391  0.0936 -0.0789  0.0587
10007W        W52920  11.723   5.438   1.981 -0.4082 -0.1952  0.0437
10008W        W52921   1.298  22.949  24.531  0.1866  0.2089  0.0359
10009W        W52922  22.807  22.316  19.561 -0.1109 -0.1477  0.0155
10010W        W52923   1.844   4.098  17.475 -0.3111 -0.3155 -0.0728
10011W        W52924  28.913  12.500   1.954  0.2131 -0.1533  0.2317
10012W        W52925  32.982  18.472  25.322 -0.3137  0.2975  0.0657
10013W        W52926  33.657  13.291  28.863  0.0069  0.0611 -0.1908
10014W        W52927   1.068  10.515  29.246  0.1333  0.0287 -0.1876
10015W        W52928  21.483  17.694  20.407 -0.0119 -0.1930 -0.3332
10016W        W52929  27.349  20.058  29.619 -0.1025  0.1963 -0.1370
10017W        W52930  32.251  16.551  20.644 -0.2504 -0.1189  0.2722
10018W        W52931   0.840  16.142  19.272  0.1471  0.4599  0.0211
10019W        W52932  11.212  13.573  25.598  0.2244  0.0245 -0.0755
10020W        W52933   7.083  21.011  28.308 -0.1637  0.1735  0.2934
10021W        W52934   5.415  17.682  27.809  0.2040  0.2496  0.1028
10022W        W52935  12.553   0.206  21.630  0.4889  0.0831 -0.2456
10023W        W52936  22.109  29.971  23.444  0.0839  0.3862 -0.0269
10024W        W52937  10.327  14.863  16.213  0.3032 -0.2354  0.0031
10025W        W52938   1.257  11.405  23.458 -0.0477 -0.0587 -0.1065
10026W        W52939  12.451   2.870  19.119  0.0732 -0.1101  0.0624
10027W        W52940  34.101  12.264  25.409 -0.1822  0.1683  0.0300
10028W        W52941  33.283  19.580  22.410 -0.1104 -0.0906  0.0588
10029W        W52942  33.965  17.116  13.947 -0.3004  0.2937  0.0029
10030W        W52943   1.306  11.392   3.937  0.1964  0.2409  0.2933
10031W        W52944  32.609   9.853  18.894  0.1670  0.0835  0.0307
10032W        W52945  28.855  22.540  29.426  0.1880  0.1422 -0.2847
10033W        W52946   7.701  26.693  25.713 -0.1859 -0.0093  0.1276
10034W        W52947  31.487   7.459   0.264  0.1328 -0.1911  0.3443
10035W        W52948   8.561  11.291  27.081 -0.1245  0.0487  0.2558
10036W        W52949   0.068  10.326  20.350  0.1098 -0.1432 -0.2092
10037W        W52950  28.068  19.347   1.114  0.1387 -0.4028 -0.0644
10038W        W52951  34.286  13.529  19.837  0.0468 -0.2626 -0.2713
10039W        W52952  25.165   8.236  22.912  0.3302  0.3443 -0.0685
10040W        W52953  12.452  11.123  28.873  0.2000  0.0559  0.0336
10041W        W52954  29.561   6.906  16.314  0.0560  0.1594  0.0657
10042W        W52955  33.195   5.003   1.164 -0.1371  0.4559  0.0169
10043W        W52956  32.861  19.093  17.101 -0.0790  0.1052  0.0603
10044W        W52957  12.484  12.824  16.223 -0.2286 -0.2145  0.0278
10045W        W52958  32.166  12.732   0.883  0.1610 -0.2376  0.3187
10046W        W52959  33.606   9.085  28.094  0.0318  0.1489 -0.1386
10047W        W52960  28.965  25.598  25.053  0.1754  0.2265 -0.2821
10048W        W52961   8.256  11.472  23.391  0.0343 -0.1304 -0.1609
10049W        W52962  30.661   8.572  23.393  0.0409 -0.1522  0.1498
10050W        W52963  13.053  18.747  27.096  0.0393  0.1414 -0.0693
10051W        W52964   4.046   9.376  27.405 -0.2851  0.2752 -0.0602
10052W        W52965  28.523  11.142   0.156 -0.1999 -0.3055  0.1624
10053W        W52966  21.721  15.400  24.728  0.0971 -0.2206  0.1735
10054W        W52967   3.205  10.399  19.214  0.0342 -0.1024  0.2441
10055W        W52968  32.798  14.518  26.108 -0.0244 -0.3026 -0.0732
10056W        W52969  11.689  14.778  29.511  0.3558 -0.0855  0.2080
10057W        W52970   0.016  22.545  20.826 -0.0748  0.0742 -0.0264
10058W        W52971   3.477  20.570  21.938 -0.4746  0.0094 -0.1280
10059W        W52972  31.367  14.505  15.690  0.3236 -0.0810 -0.0288
10060W        W52973   4.636  15.872  17.812  0.1111 -0.0426  0.1014
10061W        W52974  29.348  13.579  22.703  0.0242 -0.3420  0.0256
10062W        W52975  14.332  12.922  23.569  0.0617 -0.3426 -0.2044
10063W        W52976   6.524   6.100  22.732 -0.3123 -0.4453 -0.1639
10064W        W52977  26.594  19.375  17.425  0.0357 -0.0187 -0.0636
10065W        W52978  24.453  18.244  25.863  0.2732 -0.3014  0.0435
10066W        W52979   5.645  10.900  29.595 -0.0976 -0.1081 -0.2203
10067W        W52980  22.280  11.526  23.957  0.0705  0.0621  0.2406
10068W        W52981   3.831  23.247  19.062  0.0970 -0.0634 -0.3928
10069W        W52982   0.693   8.403  25.055  0.0167  0.0983 -0.1450
10070W        W52983   0.011  15.533  19.296 -0.0746  0.2664 -0.0043
10071W        W52984  32.142   4.956  20.517 -0.1377  0.1570  0.1340
10072W        W52985  31.261  20.185  28.013 -0.1283  0.0826  0.3791
10073W        W52986   1.566  21.061   6.095 -0.2894 -0.0635  0.1197
10074W        W52987   1.098  11.216  22.249  0.0655 -0.0397  0.1632
10075W        W52988   5.168  18.395  26.202 -0.1374  0.0094 -0.0417
10076W        W52989  31.602  10.766   0.237  0.0350  0.0619  0.0210
10077W        W52990  14.136   5.333  29.780  0.2751  0.1369  0.3715
10078W        W52991  26.089   9.587  23.607 -0.1864  0.1877 -0.0273
10079W        W52992   8.556  26.051   2.124 -0.0527 -0.1704 -0.0026
10080W        W52993  28.813  26.617   5.797 -0.4714 -0.0884  0.0912
10081W        W52994  26.857  17.495  23.992 -0.1231 -0.1068 -0.0844
10082W        W52995   2.252   5.351  23.204  0.0543 -0.1237  0.2056
10083W        W52996  33.416   0.807  16.570  0.0936  0.1005  0.1525
10084W        W52997  33.625  29.179  18.718  0.0756  0.0010 -0.1713
10085W        W52998   4.443  15.815  19.432 -0.1680 -0.1743  0.1490
10086W        W52999   8.203   9.164   4.822 -0.1191  0.2236 -0.0431
10087W        W53000  13.330   5.935  23.283 -0.1201  0.0497 -0.2712
10088W        W53001   1.536  17.577  24.244  0.1423 -0.1606  0.3072
10089W        W53002  31.498  16.851  20.200 -0.1598  0.0659  0.2170
10090W        W53003  33.164  11.439  23.445 -0.1577 -0.0229 -0.1417
10091W        W53004   1.195  19.208  22.595 -0.0790 -0.4326  0.1754
10092W        W53005   5.812   9.050  21.012 -0.0998  0.2684 -0.1988
10093W        W53006   5.177  16.367  26.883 -0.3570 -0.0875 -0.0101
10094W        W53007   9.737  15.576  25.002 -0.4564 -0.0433  0.0466
10095W        W53008  18.772  16.398   7.223 -0.3035 -0.1548 -0.0890
10096W        W53009  33.933  30.616  25.676  0.0992  0.2258  0.1609
10097W        W53010  31.997   1.254  22.940  0.0203 -0.0762 -0.0099
10098W        W53011   6.669  22.170  20.071 -0.0564 -0.2696 -0.0173
10099W        W53012   1.950  14.405  13.945  0.0184 -0.0083  0.1453
10100W        W53013   0.978  16.107   5.154 -0.2083 -0.0386  0.1637
10101W        W53014  32.120   5.818  20.522 -0.0859  0.1548 -0.0955
10102W        W53015  29.187  10.137  24.596 -0.0165 -0.3539 -0.2858
10103W        W53016  30.957  18.261   0.696 -0.2105  0.1502  0.0364
10104W        W53017   1.762  12.956  26.368  0.2755  0.0408 -0.0474
10105W        W53018  32.235  17.411  14.345  0.0874 -0.3130 -0.3253
10106W        W53019  26.231  19.739  22.646  0.0213 -0.2680  0.0362
10107W        W53020  33.109  16.952  23.341 -0.0037 -0.0832 -0.2975
10108W        W53021   3.714  22.697  28.124  0.1304  0.1625 -0.2761
10109W        W53022   3.218  21.704  24.804  0.0410  0.3256  0.0386
10110W        W53023   4.143  16.742  15.677 -0.0579 -0.0413  0.3694
10111W        W53024  10.124  17.898  18.835  0.2515 -0.0243  0.0645
10112W        W53025   4.732   8.822   5.449  0.3186  0.0047  0.1681
10113W        W53026   9.588  12.132  17.672 -0.0573  0.0610  0.1219
10114W        W53027   4.602   7.149  17.974 -0.0929  0.0023 -0.3487
10115W        W53028  34.045  14.378  21.885  0.2128  0.0611  0.0601
10116W        W53029  10.162   9.592  27.549  0.1163  0.0153 -0.0815
10117W        W53030   2.190  18.366  24.607 -0.1377 -0.2186 -0.0740
10118W        W53031   1.421   8.929  20.548  0.2352  0.0079  0.1348
10119W        W53032   4.973   9.895  25.894 -0.2472  0.4330 -0.0618
10120W        W53033  26.048  15.098  26.160  0.1998  0.2785 -0.1896
10121W        W53034   9.867  15.333  23.949  0.3554 -0.0528 -0.0055
10122W        W53035   5.619  22.152  16.812  0.1856 -0.0971  0.0099
10123W        W53036  15.004  20.059  25.733  0.0345 -0.4298  0.0764
10124W        W53037  32.315   5.588  17.417 -0.4301  0.0608 -0.2466
10125W        W53038  11.897  11.395  26.697  0.0424 -0.0686 -0.3181
10126W        W53039  31.006   7.345  25.861  0.0911 -0.0645  0.1060
10127W        W53040   8.429  12.382  25.336 -0.0682  0.0139 -0.0305
10128W        W53041  13.306   7.059  28.875 -0.1204  0.2885 -0.3760
10129W        W53042  13.738  16.483  24.923 -0.2293  0.1397 -0.1802
10130W        W53043   0.708   7.255  26.325  0.3389 -0.0902 -0.0400
10131W        W53044   5.656  18.002  29.367  0.3811  0.4652  0.2191
10132W        W53045  31.736  11.564  21.436 -0.1501  0.1287 -0.1500
10133W        W53046   6.993  16.670   1.782  0.0515 -0.2717  0.1574
10134W        W53047   6.107   7.928   0.254  0.0675  0.0014 -0.2356
10135W        W53048   3.690  24.231  23.642 -0.1027 -0.2064  0.2490
10136W        W53049  27.980  23.343  24.998  0.0943  0.0391 -0.0515
10137W        W53050  28.725  28.323  14.848  0.1288  0.2688 -0.1750
10138W        W53051   6.005  14.749  14.320  0.0781 -0.4200  0.0297
10139W        W53052  13.666  18.310   1.951 -0.1614 -0.0001 -0.0141
10140W        W53053  33.840   3.352  27.838 -0.5586  0.3141  0.1396
10141W        W53054  33.973  16.073  16.979  0.1452 -0.3575  0.1710
10142W        W53055   6.020  14.967   2.471 -0.2614 -0.2635  0.2710
10143W        W53056   9.380  16.743  21.757  0.0075  0.2296  0.0873
10144W        W53057   1.197   5.380  25.859 -0.0259 -0.0595 -0.0483
10145W        W53058   7.170   0.944  20.288 -0.1671 -0.1198  0.0394
10146W        W53059   5.151  17.336  28.270 -0.0690  0.2144  0.0473
10147W        W53060   8.637  23.036  17.596 -0.0188  0.1187 -0.0436
10148W        W53061   9.204  21.526  17.204 -0.1515  0.2194  0.0591
10149W        W53062   2.480  17.532  25.766  0.1230  0.0694  0.0868
10150W        W53063  27.410  10.956  29.773  0.0902  0.0225 -0.0236
10151W        W53064   9.994  19.184  12.927 -0.1312  0.0009  0.0455
10152W        W53065  31.576  10.609  25.051  0.5066 -0.1288  0.2536
10153W        W53066  26.224  25.139  27.505  0.2415  0.1378 -0.0559
10154W        W53067   5.426  23.685  20.423  0.0006 -0.0432  0.0635
10155W        W53068  29.836  16.205  20.816 -0.0046  0.1227  0.3073
10156W        W53069  33.673   1.801  22.294 -0.0385 -0.0918 -0.1459
10157W        W53070   4.790  10.210  26.220  0.4617 -0.2743  0.0186
10158W        W53071  13.927  21.703   7.514 -0.0539 -0.0761  0.1610
10159W        W53072  11.069  11.234  21.738  0.2888  0.0709 -0.0556
10160W        W53073   4.234  21.974  21.109 -0.1370 -0.2037  0.1691
10161W        W53074  27.869  23.049  24.602  0.0525  0.2561  0.1468
10162W        W53075  31.616  29.134  27.032  0.0998 -0.3362 -0.1603
10163W        W53076  13.570   9.190   5.817 -0.0063  0.0353 -0.1235
10164W        W53077  30.364  14.565  15.078 -0.1090  0.3706 -0.0707
10165W        W53078   7.958  19.087   0.372 -0.0707  0.1193  0.1720
10166W        W53079  33.926  16.405   0.636  0.0454 -0.0382 -0.1403
10167W        W53080  32.045   6.504   1.801  0.1606  0.0823 -0.1523
10168W        W53081  32.224  23.306  17.693  0.1529 -0.0356  0.0088
10169W        W53082   0.229  10.517  23.384  0.2672  0.1112  0.0116
10170W        W53083  20.750   2.202  28.289  0.1386 -0.0103 -0.4540
10171W        W53084   3.047  10.882  26.191  0.3863  0.1985 -0.1553
10172W        W53085  33.808  26.521   4.838 -0.3545  0.3906 -0.1964
10173W        W53086  17.031  22.265  23.687  0.1722 -0.2182  0.1529
10174W        W53087  10.058  16.412  28.801 -0.2831 -0.0340 -0.1021
10175W        W53088  32.408  12.555   2.680  0.0024  0.0553 -0.1247
10176W        W53089   2.716   1.288  26.398  0.1026 -0.0582  0.1480
10177W        W53090  14.050  16.750  28.621 -0.2191 -0.0172  0.0412
10178W        W53091  27.784   3.719  18.165 -0.1551  0.0077  0.0259
10179W        W53092  29.464  13.682  20.437 -0.1692  0.0705 -0.1463
10180W        W53093   9.184  17.679  26.556 -0.2092 -0.0663 -0.0266
10181W        W53094  31.993  10.443  28.548 -0.0199  0.1097  0.0035
10182W        W53095  33.177  15.621   0.299  0.1615  0.1868  0.2111
10183W        W53096   9.499  14.813  29.458 -0.0618  0.1568 -0.2245
10184W        W53097   3.201  12.934  28.548 -0.0327  0.1858  0.0362
10185W        W53098  32.663  13.557  17.564  0.2335  0.1210  0.3328
10186W        W53099  31.569  14.623   4.087  0.1153  0.2049  0.2752
10187W        W53100  21.872   7.824  27.520  0.0141 -0.0800 -0.3092
10188W        W53101   7.167  13.042  26.798 -0.1857  0.3585  0.4664
10189W        W53102   2.485   6.065  27.864 -0.1782  0.2921 -0.0411
10190W        W53103  28.580  13.921  28.496  0.0039  0.3104 -0.1614
10191W        W53104   4.211  11.084  27.197  0.1059 -0.0780  0.1734
10192W        W53105   3.811  15.544  26.218  0.4746 -0.1281  0.0751
10193W        W53106  30.987  21.816  24.700  0.0957 -0.1619 -0.1901
10194W        W53107  21.151  20.054  27.401  0.2345 -0.1929 -0.0290
10195W        W53108  29.720  25.557  17.073  0.0342 -0.2577  0.3224
10196W        W53109   7.280   4.866  26.044 -0.0070  0.1062 -0.0633
10197W        W53110   0.169   7.688  25.323  0.0329  0.1023  0.1111
10198W        W53111  32.656  15.523   0.139 -0.0159  0.0319 -0.0178
10199W        W53112  34.151  21.981  23.770  0.4019 -0.0595  0.2026
10200W        W53113  18.371   8.927  28.855 -0.3198  0.1942 -0.0985
10201W        W53114  22.670   9.102  28.291  0.1869  0.0445 -0.1348
10202W        W53115   3.993  14.951   3.300  0.1887  0.2069  0.1495
10203W        W53116   9.001  24.444  25.101  0.0317  0.1489 -0.0639
10204W        W53117  26.246  19.944   0.019 -0.3383  0.1770  0.1116
10205W        W53118   0.439  11.780  25.777  0.0953 -0.1238  0.1707
10206W        W53119   9.667   2.454  28.119  0.2429  0.0763  0.2466
10207W        W53120   7.581   8.405  18.514  0.0284  0.2411 -0.0486
10208W        W53121   2.487  14.926  25.156 -0.0134 -0.0458  0.1215
10209W        W53122  30.834   7.275  29.775  0.1133 -0.1806  0.2019
10210W        W53123  29.845   4.464  21.271  0.0527 -0.1524 -0.1485
10211W        W53124  34.076   5.838  18.044 -0.1183 -0.1144 -0.3010
10212W        W53125   9.042  15.125  21.227 -0.2609 -0.2161 -0.1438
10213W        W53126  25.559  15.534   4.950  0.1448 -0.0872 -0.1647
10214W        W53127  32.800  17.210  25.278 -0.0804  0.3488 -0.0051
10215W        W53128  33.257   5.691  28.968  0.3703 -0.0564 -0.1557
10216W        W53129  13.051  26.365  28.842  0.1797 -0.1261 -0.0666
10217W        W53130   4.297  28.691  24.600  0.2616  0.2904  0.0238
10218W        W53131   7.758  13.759  21.029  0.1370 -0.0559 -0.2428
10219W        W53132  24.090  15.665   2.588 -0.1888 -0.1786  0.0538
10220W        W53133  30.440  22.926   2.390 -0.3334  0.0553  0.2393
10221W        W53134   0.445   5.401  20.290 -0.1092  0.1369 -0.2876
10222W        W53135  30.634  22.206   3.535 -0.1035  0.0081  0.0323
10223W        W53136  25.984  18.656  21.658  0.2509  0.0470  0.3549
10224W        W53137   0.451  17.663  24.248 -0.1821  0.0383 -0.0588
10225W        W53138   2.065  11.785  22.247 -0.0152 -0.0084 -0.2174
10226W        W53139  27.389  10.357  25.256 -0.1006 -0.0840 -0.1292
10227W        W53140   0.741  11.053  20.575  0.1315  0.0929  0.3152
10228W        W53141   9.594  16.599   0.184  0.0589 -0.3429 -0.2491
10229W        W53142  17.202  11.747  24.317  0.0322 -0.0396  0.0885
10230W        W53143  22.322   4.270  22.166  0.1966 -0.1610 -0.1498
10231W        W53144  14.539   1.609  20.788 -0.2016  0.2120  0.0152
10232W        W53145  30.613   8.129  19.550  0.0348 -0.0696 -0.0647
10233W        W53146  34.119  26.912   4.164  0.1278 -0.0682  0.1126
10234W        W53147   3.470  17.115   6.868  0.1452  0.1551  0.2179
10235W        W53148   3.033  24.159  27.612 -0.2522 -0.1355  0.4386
10236W        W53149   1.941  21.008  27.326 -0.3392  0.1289  0.0750
10237W        W53150  23.934  15.440  23.876 -0.0163  0.2854  0.0318
10238W        W53151  29.087  14.224  27.842 -0.2507  0.0400  0.3239
10239W        W53152  27.751   8.690   4.039  0.4427 -0.1865  0.2585
10240W        W53153   5.408   1.120   7.657  0.3648  0.0200  0.0937
10241W        W53154   7.231   9.732  23.736  0.0907 -0.4595  0.1469
10242W        W53155   9.760  12.286  29.172 -0.0139 -0.2975  0.1543
10243W        W53156   9.072  14.096  19.039  0.2448 -0.5035  0.0132
10244W        W53157  30.305   6.525   5.701 -0.1004  0.0706 -0.0014
10245W        W53158  12.032   3.903  22.993 -0.2331 -0.2035  0.1050
10246W        W53159  33.964  18.781  29.157  0.3343 -0.0038  0.0439
10247W        W53160   4.381   9.327   2.796 -0.5310  0.1850  0.0904
10248W        W53161  31.186  12.379  21.668 -0.2026  0.3645  0.1291
10249W        W53162  28.248  21.840  24.941 -0.2308 -0.4076  0.0756
10250W        W53163   6.880  22.305   2.929 -0.1568 -0.2465 -0.0460
10251W        W53164   0.555   9.704   5.114 -0.0824  0.1744 -0.1640
10252W        W53165  28.576   7.226  24.567  0.2656 -0.0171 -0.1003
10253W        W53166  29.879  24.290  23.334  0.0529 -0.1013  0.0797
10254W        W53167   6.464  17.037  26.215  0.1682  0.1124  0.0153
10255W        W53168  33.349  17.936   0.434 -0.4179 -0.0805  0.0633
10256W        W53169  24.476  19.130  29.042  0.2764  0.3573 -0.0918
10257W        W53170  24.366  18.684  24.954 -0.1025  0.0565 -0.1309
10258W        W53171  10.720  18.892  19.358 -0.0201 -0.1847 -0.0224
10259W        W53172   4.264  15.153   1.145 -0.1017  0.0725  0.1148
10260W        W53173   6.812  22.024   2.124 -0.1795 -0.2409 -0.0893
10261W        W53174   1.582  16.208  18.867  0.3211 -0.2421  0.0867
10262W        W53175  32.576  12.072  15.322 -0.4292  0.1961 -0.3283
10263W        W53176  30.892  26.591   8.415 -0.0142  0.3808  0.1358
10264W        W53177  32.448  32.267   7.012 -0.2330 -0.3289  0.2574
10265W        W53178  28.641  24.248   0.948  0.1756 -0.3371  0.0116
10266W        W53179   9.253  14.646  26.304  0.1301  0.2006  0.1968
10267W        W53180  10.746  12.344  18.304  0.2255 -0.0012 -0.0859
10268W        W53181   2.692  11.353  18.215 -0.1011 -0.0503  0.0875
10269W        W53182   4.199  16.723  22.731 -0.4701 -0.2908 -0.1023
10270W        W53183   6.365  11.324  28.744 -0.2693 -0.0752  0.0618
10271W        W53184   4.938  15.670  28.646 -0.3951 -0.0019 -0.0252
10272W        W53185   4.232  13.633   3.383 -0.0203 -0.2502  0.2340
10273W        W53186  31.610   8.500  20.048  0.0314 -0.3721  0.0966
10274W        W53187  19.873  14.386  28.042  0.0313  0.0196 -0.2451
10275W        W53188   9.140  25.405  21.952 -0.3125  0.1359 -0.1904
10276W        W53189  32.354   0.524  24.535  0.0903  0.0953 -0.0269
10277W        W53190  23.738  11.851  17.858  0.1996 -0.0748 -0.0688
10278W        W53191  27.769   8.623  26.886 -0.3116  0.0919  0.3030
10279W        W53192   1.668   2.884   0.862  0.1461 -0.0847  0.1093
10280W        W53193   5.963   3.435   1.498 -0.2356  0.2895  0.1990
10281W        W53194  17.208   2.305  27.976  0.0820 -0.0645 -0.2102
10282W        W53195  34.308  17.309  21.959 -0.0770  0.1908 -0.0367
10283W        W53196   4.610  19.912   0.017 -0.3359 -0.2785 -0.1063
10284W        W53197  13.514  12.845  23.859 -0.2696  0.5531 -0.0897
10285W        W53198  32.078  16.202   2.440 -0.0700  0.0620  0.2561
10286W        W53199   7.333  18.637  25.261  0.1186  0.0227 -0.0308
10287W        W53200  31.099  12.696   3.715 -0.0837  0.0303  0.1268
10288W        W53201   2.100  17.031  23.994  0.0862  0.1466 -0.2959
10289W        W53202   4.178  30.512  23.188  0.1866 -0.1657 -0.2083
10290W        W53203  27.668  13.528  26.228  0.1579 -0.3000 -0.1575
10291W        W53204   8.175  13.784  28.751 -0.0945  0.1124  0.2096
10292W        W53205   8.522  10.748  27.874  0.0025  0.1089  0.0242
10293W        W53206  30.917  26.207   4.470 -0.3662  0.1348 -0.0434
10294W        W53207   3.120  13.937  28.576  0.1495  0.0616 -0.0023
10295W        W53208  32.284  25.129   8.779  0.0364  0.2230 -0.1312
10296W        W53209   3.482  14.495  25.180  0.0349 -0.1804  0.0182
10297W        W53210  26.331   9.581   0.932 -0.2745 -0.5922 -0.2453
10298W        W53211   2.919   5.747  29.032 -0.2900 -0.0426  0.3562
10299W        W53212  32.724   8.184  25.836 -0.0059 -0.2901  0.2856
10300W        W53213  17.399   6.897  21.691  0.1634 -0.0486 -0.1738
10301W        W53214   2.693  12.926   1.225  0.0357 -0.4371 -0.3845
10302W        W53215   2.906  13.174  15.504  0.4437  0.0011 -0.0648
10303W        W53216  34.479   8.241   2.189  0.1668 -0.0397 -0.2883
10304W        W53217   3.023  17.364   8.712  0.1458  0.2809 -0.1634
10305W        W53218  34.215  10.469  20.985 -0.1200 -0.3486 -0.2875
10306W        W53219  11.649  17.867   0.456  0.3778 -0.0217 -0.0408
10307W        W53220  12.945   3.696  17.481  0.1853  0.1722 -0.2028
10308W        W53221   0.535  11.813   5.631  0.1482 -0.0999 -0.1900
10309W        W53222  29.775  17.928  28.706 -0.0767  0.1707 -0.1920
10310W        W53223  34.469  18.205   2.913 -0.0736  0.0270  0.1964
10311W        W53224  26.907   9.714   0.281 -0.0639  0.1255 -0.0807
10312W        W53225  32.644  20.789   5.537 -0.2004 -0.0315 -0.1085
10313W        W53226  26.657  12.206   6.836  0.3911 -0.1066 -0.0024
10314W        W53227   3.491   0.248   6.538  0.0336 -0.3322 -0.0733
10315W        W53228   4.000   4.916  29.241 -0.0731 -0.1723 -0.1100
10316W        W53229   3.577  12.187  21.510  0.2029 -0.0295  0.0144
10317W        W53230  33.233  22.954  29.005  0.0014  0.0894 -0.0927
10318W        W53231  28.739  22.262   2.025 -0.0539  0.1758  0.2777
10319W        W53232   5.871  16.870  23.233 -0.2644 -0.2298  0.2395
10320W        W53233  25.602  14.439  28.860  0.0146 -0.0543  0.2215
10321W        W53234   1.957  17.354   2.082 -0.1269 -0.0577 -0.2720
10322W        W53235   4.946  15.860  26.106 -0.0700 -0.1903 -0.3781
10323W        W53236   5.731  23.112  26.945 -0.2217 -0.0285  0.3839
10324W        W53237  28.643  32.215   2.490  0.0119  0.1098  0.1139
10325W        W53238   0.877  18.178  28.051  0.1581 -0.2853 -0.0083
10326W        W53239  30.179  12.713   4.395  0.3256 -0.0266 -0.0587
10327W        W53240   5.955  21.276  17.472 -0.3756  0.1652 -0.3344
10328W        W53241  24.642  16.899   0.636 -0.2664  0.2388  0.1214
10329W        W53242   2.794  10.439   6.840  0.1514  0.0263  0.4236
10330W        W53243  25.070  20.132  21.381 -0.0336 -0.1881  0.2780
10331W        W53244   6.199   1.755   9.871 -0.2042  0.3807 -0.0791
10332W        W53245  31.322   8.650   0.199 -0.0590  0.0290  0.1489
10333W        W53246  10.093  20.845  27.921 -0.1376 -0.2997 -0.3408
10334W        W53247  29.870  23.261  18.127  0.1813 -0.0417  0.0149
10335W        W53248   6.444  15.960   4.115 -0.0755  0.0254  0.2602
10336W        W53249  30.110   3.485   2.342  0.3150  0.0866 -0.1322
10337W        W53250   0.285  16.237  28.053 -0.0666  0.1613  0.0330
10338W        W53251   0.478  25.962  26.478 -0.0455  0.0832 -0.0617
10339W        W53252   2.010   9.843   9.830  0.3791  0.0904  0.0863
10340W        W53253  26.764  23.595  29.205  0.2703  0.3052 -0.0790
10341W        W53254   2.829  13.102  18.347 -0.1168 -0.0269  0.3244
10342W        W53255  12.445  10.769  16.750  0.0245  0.3809  0.0290
10343W        W53256   4.146  15.935  29.609  0.1983 -0.0295 -0.5150
10344W        W53257  11.038   4.907   0.278  0.0966 -0.0884 -0.0995
10345W        W53258   6.757   9.990  26.976 -0.0903  0.1758 -0.3825
10346W        W53259   5.417  11.533  19.388  0.0841 -0.0029  0.0438
10347W        W53260   4.662   7.992   0.083  0.3083 -0.2100  0.2803
10348W        W53261   7.307  12.488  28.889 -0.2389 -0.3406  0.2123
10349W        W53262  30.358  13.642   4.670  0.0126 -0.1477  0.1466
10350W        W53263   4.213  11.619  26.116  0.1622 -0.1621  0.0412
10351W        W53264   5.107   7.742  17.190  0.2485  0.2294 -0.1953
10352W        W53265   4.244  11.405   4.020 -0.0394 -0.0334 -0.0594
10353W        W53266  28.144  13.561  22.246  0.1213  0.0833 -0.0252
10354W        W53267  30.502  11.628  26.633  0.1305  0.0790 -0.1928
10355W        W53268  33.517  17.196  17.841  0.0143  0.0994 -0.0921
10356W        W53269  33.358  12.699  29.766 -0.1770 -0.2359 -0.1262
10357W        W53270  32.187   9.477  28.131 -0.0317  0.1124  0.3321
10358W        W53271   3.839  10.322  20.666  0.1218  0.1194 -0.0702
10359W        W53272   6.779   2.834  17.336  0.0977 -0.4858  0.1816
10360W        W53273  15.540  20.699  27.330 -0.1793  0.1766  0.1417
10361W        W53274   5.992   9.158  26.259 -0.1551 -0.0464  0.0563
10362W        W53275  27.224  14.158   3.243 -0.0517 -0.3590 -0.2447
10363W        W53276  13.738  13.722   3.140  0.1733 -0.2779  0.2205
10364W        W53277  14.893  26.874   0.479 -0.0550  0.0673  0.1733
10365W        W53278  26.747  19.717  24.873  0.3468  0.0503  0.1639
10366W        W53279   5.902   4.647  21.839 -0.1283  0.2060 -0.4032
10367W        W53280  30.783  15.016   2.389  0.3456 -0.0999 -0.3892
10368W        W53281  11.546  14.724  25.995  0.0539  0.2698 -0.3086
10369W        W53282   5.387  14.276   3.712 -0.2586  0.1223  0.2679
10370W        W53283   1.463  13.380  15.428 -0.1983 -0.0444  0.2091
10371W        W53284   7.612  10.823  22.496  0.1202 -0.1476 -0.0336
10372W        W53285   3.864  27.634  28.738  0.1215 -0.0329 -0.0163
10373W        W53286   6.197  14.588  15.314 -0.2490 -0.1137  0.0818
10374W        W53287   6.476  10.701   1.815 -0.4049 -0.1713 -0.0910
10375W        W53288   0.485  17.474  14.995 -0.2099  0.1363  0.3269
10376W        W53289   3.570   7.821   7.647 -0.1476 -0.2246  0.3495
10377W        W53290  26.460  16.283  26.117 -0.0629  0.2136  0.0397
10378W        W53291   7.184  21.734  25.082 -0.2018  0.0656 -0.0432
10379W        W53292   1.483  19.696  23.550  0.1253 -0.1336 -0.0140
10380W        W53293   7.425  27.107  26.633 -0.0468 -0.1604 -0.0567
10381W        W53294   6.122   9.377  25.210  0.0464 -0.0128  0.0520
10382W        W53295  26.381  12.833   7.585  0.4133 -0.0823 -0.0919
10383W        W53296  31.769  13.475  19.660 -0.0279 -0.2988  0.0451
10384W        W53297  14.979   4.318  17.131 -0.1650  0.0343  0.0100
10385W        W53298   3.341  16.113  15.019  0.0160  0.1756  0.0360
10386W        W53299  27.121  10.290  28.026 -0.1785 -0.0128  0.1945
10387W        W53300   7.733  18.936   7.107  0.1338  0.4968  0.1762
10388W        W53301   1.923  13.829   1.235 -0.0323 -0.0080  0.1665
10389W        W53302  33.488  15.105  21.045  0.0840 -0.1108  0.2729
10390W        W53303   5.901  16.145   0.683 -0.0957  0.0877 -0.1572
10391W        W53304  11.771   8.084  26.738 -0.1634  0.0036 -0.1894
10392W        W53305   4.120  11.685  27.842  0.0061 -0.1426 -0.1424
10393W        W53306   4.986  10.767  28.985 -0.0307 -0.0583 -0.1960
10394W        W53307   8.859  18.663  28.041 -0.0897  0.0135 -0.3053
10395W        W53308   7.898  14.115  20.268  0.2750 -0.0098  0.0957
10396W        W53309   5.590  11.674  23.798  0.0482 -0.1182 -0.2098
10397W        W53310   7.009  10.088  16.754 -0.1270 -0.0815 -0.0029
10398W        W53311  29.199  17.866  25.037 -0.1454  0.0277 -0.0092
10399W        W53312   0.577  23.696  25.714 -0.1989  0.0566 -0.0678
10400W        W53313   9.533  11.964  23.731 -0.2026 -0.0588  0.0439
10401W        W53314  22.988  19.391   5.023 -0.2651  0.0213 -0.2421
10402W        W53315   4.302  16.722  19.082 -0.0572 -0.0998  0.4333
10403W        W53316  12.099  13.819   2.943  0.0585  0.1802  0.0702
10404W        W53317   8.130   9.701  25.917  0.2867  0.0577  0.1790
10405W        W53318   7.356  15.276   0.051 -0.1978  0.3298  0.0945
10406W        W53319  30.071  19.417  26.559 -0.1525  0.0296 -0.0164
10407W        W53320   2.944  10.528  27.610  0.0210 -0.1138  0.2799
10408W        W53321  29.586  15.132  15.370  0.1691 -0.0031  0.2044
10409W        W53322  16.755  15.737  12.758 -0.1892 -0.0540  0.0044
10410W        W53323  32.727   7.867  17.450  0.3641 -0.0635 -0.0955
10411W        W53324  16.104  12.489  22.560  0.1918 -0.1417  0.0429
10412W        W53325   3.432  11.962  19.332 -0.1034  0.0240 -0.1155
10413W        W53326  27.892   7.672   1.151 -0.0616  0.3689 -0.0514
10414W        W53327  31.949  11.070  25.606 -0.0078  0.1469  0.2856
10415W        W53328  32.702  24.892   9.588 -0.1324 -0.2175 -0.3976
10416W        W53329  31.673  18.277  20.335 -0.1946  0.1131 -0.1618
10417W        W53330  33.994  16.781  15.202 -0.1162  0.2304 -0.2822
10418W        W53331  10.601  20.404  26.901 -0.3731 -0.0225 -0.2836
10419W        W53332   4.201  11.478  20.945  0.0598  0.0122 -0.0108
10420W        W53333   8.760   5.585  19.151  0.3156 -0.3011 -0.2790
10421W        W53334   8.522  27.333  27.657  0.0475 -0.0708 -0.3435
10422W        W53335  23.655  11.293   1.647  0.0176  0.2363 -0.2475
10423W        W53336  28.768  17.577   4.964  0.0976  0.1592 -0.0012
10424W        W53337   3.851  23.050   2.627 -0.4389 -0.4210 -0.1936
10425W        W53338   6.983  10.163  19.268 -0.1170  0.0755  0.1646
10426W        W53339  16.740  23.886   9.006  0.1047 -0.1679 -0.1316
10427W        W53340   8.210  21.112   9.316  0.2667  0.1747 -0.2821
10428W        W53341   3.124  23.759  14.937 -0.2307 -0.1842  0.1781
10429W        W53342   7.778   8.012   4.157 -0.3526 -0.2961 -0.1089
10430W        W53343  32.605   7.289  23.928 -0.1785 -0.0540  0.0331
10431W        W53344  30.518  19.964  27.838  0.1793  0.1905 -0.3912
10432W        W53345  12.884  10.027   6.178 -0.0422  0.2576 -0.0983
10433W        W53346  11.777  23.586  17.400 -0.1876  0.1144  0.0210
10434W        W53347  32.627   3.312  23.326  0.0475 -0.0791 -0.2610
10435W        W53348   3.847  17.371   1.226  0.1732 -0.1405 -0.2056
10436W        W53349   3.960  22.564  27.180 -0.0180  0.0498 -0.0050
10437W        W53350   5.802  14.853  20.761 -0.2068  0.0844 -0.1169
10438W        W53351   7.733   5.786  24.139  0.0079 -0.2642 -0.0101
10439W        W53352  12.653  17.983  25.891 -0.3864 -0.2976 -0.1690
10440W        W53353   0.499   8.523  27.941 -0.2216 -0.0669 -0.5296
10441W        W53354  14.895   7.013  28.568  0.0481 -0.1611 -0.2519
10442W        W53355  30.131  16.039  24.841 -0.1998 -0.0669 -0.1198
10443W        W53356  34.363  19.929  24.714 -0.0463 -0.2999 -0.2591
10444W        W53357   3.965  15.514  28.698 -0.0246 -0.2052  0.0965
10445W        W53358  22.720  16.171  20.909 -0.1427  0.1829 -0.2528
10446W        W53359  10.823   0.383   2.274 -0.2109  0.0402  0.1661
10447W        W53360  34.451  22.718  29.042 -0.4053 -0.0053  0.2695
10448W        W53361  29.694  15.362  19.363 -0.2829  0.1780  0.2882
10449W        W53362   8.870   7.851  26.222 -0.3111 -0.0553  0.2298
10450W        W53363  29.767   1.578  27.148 -0.0843 -0.1682 -0.1103
10451W        W53364   3.368   4.696  22.338  0.0377 -0.4253  0.2690
10452W        W53365   3.249  17.534  27.926  0.0062 -0.2908  0.0202
10453W        W53366  34.454  15.553   0.292 -0.1690 -0.1014  0.1371
10454W        W53367  30.691   9.375  15.442 -0.0388  0.1749  0.0436
10455W        W53368  15.386  13.236  23.583  0.0810  0.2103 -0.0707
10456W        W53369   8.416  11.227   5.534  0.1214 -0.1867 -0.0188
10457W        W53370   6.414   6.932  29.210  0.1229  0.2798  0.0859
10458W        W53371   6.787   2.986   8.400 -0.1539  0.1742  0.0418
10459W        W53372   4.802   9.518   2.579 -0.1511  0.1759  0.2046
10460W        W53373  34.331  14.282   4.376 -0.0695  0.1748 -0.1571
10461W        W53374   3.984   7.193  27.021  0.0222 -0.0306  0.1996
10462W        W53375   7.261  14.140  25.286  0.1236 -0.0483  0.2554
10463W        W53376  22.770   2.197   0.613 -0.2624  0.3662 -0.0591
10464W        W53377  31.080  16.494  21.402  0.1110 -0.0712  0.1024
10465W        W53378  10.004  10.252  23.612 -0.1978 -0.3848  0.1155
10466W        W53379  32.046  19.403  28.839 -0.1794  0.2065 -0.0659
10467W        W53380  33.695  10.785  25.009  0.0812  0.0704  0.2493
10468W        W53381  23.820  27.008   8.577 -0.0867 -0.0961 -0.2053
10469W        W53382  31.529  20.213  23.754  0.0924  0.0592 -0.0869
10470W        W53383  10.471  15.378   4.782 -0.0633  0.1009  0.0361
10471W        W53384   7.620  11.410  25.292  0.2888  0.0017  0.3227
10472W        W53385  12.172   0.367  11.007  0.2106 -0.3441  0.1775
10473W        W53386   1.896  21.672  28.023 -0.0770 -0.0878  0.0926
10474W        W53387   5.012  13.194  26.132 -0.0684 -0.2806  0.0809
10475W        W53388  10.469   9.352  26.365 -0.0276 -0.0133  0.2434
10476W        W53389   6.095  11.839  23.146  0.0561 -0.1243 -0.0002
10477W        W53390  10.650   7.311   0.530  0.0728 -0.2867  0.1093
10478W        W53391   3.890  18.841   9.208 -0.2193  0.1827 -0.2689
10479W        W53392  34.057   5.066  17.728  0.1976  0.0769  0.2333
10480W        W53393  27.237   8.371   0.982 -0.0809  0.0101 -0.0854
10481W        W53394  31.002  21.170  29.593 -0.1671  0.2355 -0.2487
10482W        W53395  10.243   9.862   6.010 -0.0825 -0.0084 -0.1581
10483W        W53396   8.892  18.941   0.601  0.0235  0.4971 -0.1031
10484W        W53397  25.848  14.249  24.529  0.0717  0.2181  0.0218
10485W        W53398   2.231   7.640   3.533 -0.1919  0.1541  0.1107
10486W        W53399  13.189   7.725  26.024 -0.1444  0.4001  0.0165
10487W        W53400   5.148  11.112   4.161  0.2445  0.0652 -0.2805
10488W        W53401  31.243  24.449  24.941  0.2666  0.1146  0.1407
10489W        W53402  33.881   8.189  24.973  0.3589  0.0094 -0.4002
10490W        W53403   1.313  14.387  25.381  0.2271 -0.1151  0.0803
10491W        W53404  13.734  26.194  22.218  0.3186  0.1785 -0.1083
10492W        W53405   4.704  13.935  20.454 -0.2702 -0.1035  0.0376
10493W        W53406   5.274   4.061   2.504  0.1230  0.1417 -0.2853
10494W        W53407   9.252   9.533  23.859 -0.0810  0.0425 -0.2463
10495W        W53408   2.155  15.283  24.998 -0.1926  0.0289 -0.1202
10496W        W53409  25.442  28.322  20.492  0.0257 -0.2898 -0.3999
10497W        W53410  34.266  18.770  21.730 -0.1570  0.0449 -0.3696
10498W        W53411  15.858  13.922  25.029 -0.1403 -0.1480  0.3881
10499W        W53412   7.942  14.507  24.365 -0.1097  0.0311  0.0139
10500W        W53413   3.738  22.048  21.252  0.1018  0.2660 -0.4511
10501W        W53414  14.255  21.752  13.967  0.2883 -0.1883 -0.3518
10502W        W53415  33.399  12.777  26.836  0.1560  0.1061 -0.2352
10503W        W53416   0.451   9.242  20.266 -0.0639 -0.3030 -0.1555
10504W        W53417  19.070   8.295  22.709 -0.2697 -0.0208 -0.4229
10505W        W53418   3.198  10.019   2.783  0.2244 -0.0259 -0.2566
10506W        W53419   4.783   6.916   7.644  0.1231 -0.0376 -0.2590
10507W        W53420   3.267   8.382   1.008  0.0044  0.2777  0.4288
10508W        W53421   4.645   7.691  24.856 -0.1249  0.0317 -0.1752
10509W        W53422  11.873  13.024   4.834 -0.0236 -0.2541  0.1990
10510W        W53423   4.638   7.767  17.374  0.2496  0.1434 -0.1185
10511W        W53424  28.399  17.414  28.078  0.1100  0.2691  0.2634
10512W        W53425   2.175   3.623  25.721 -0.3189  0.0998  0.0867
10513W        W53426   8.606  11.193  20.052 -0.0452  0.1643  0.2383
10514W        W53427  34.329   6.311  27.381 -0.2395  0.2703 -0.0163
10515W        W53428  25.397   7.039   5.159 -0.0025 -0.2971  0.0755
10516W        W53429   2.933  13.161  21.244  0.2471  0.0747 -0.0848
10517W        W53430  32.312  27.423  29.673  0.0508 -0.1358 -0.0106
10518W        W53431   7.059  22.799   9.779  0.3598 -0.0096 -0.2129
10519W        W53432  32.922  22.292  25.646  0.3001 -0.2392  0.2098
10520W        W53433   1.689   6.481   4.524  0.4754 -0.4386 -0.0754
10521W        W53434   9.594  21.974  24.063 -0.1767 -0.2807 -0.2354
10522W        W53435   1.937  14.170  21.116 -0.0248  0.2287 -0.1526
10523W        W53436  33.538   6.447  23.457  0.0314  0.1981  0.0045
10524W        W53437  34.367  18.425  25.497  0.0470 -0.2844 -0.0591
10525W        W53438   0.258  14.643   1.443 -0.0350 -0.0946  0.0431
10526W        W53439  30.852  10.896   6.868  0.2299  0.1746  0.4107
10527W        W53440   9.774  29.894  26.495 -0.3419 -0.1094  0.4067
10528W        W53441   3.047  14.227  28.178 -0.1965 -0.0176  0.2474
10529W        W53442   5.092  21.207   6.598 -0.1890 -0.0517 -0.1857
10530W        W53443  15.339  16.129  21.764  0.1879 -0.3392  0.1087
10531W        W53444  30.327   5.720  28.304  0.1268  0.1789 -0.4614
10532W        W53445  19.687   6.050  22.195  0.0939 -0.1502  0.1376
10533W        W53446   3.256  18.861  26.765 -0.1600  0.0273  0.1246
10534W        W53447  28.684   7.961  26.267  0.3125  0.1816  0.1451
10535W        W53448   1.514  31.056  24.521 -0.0253 -0.2909 -0.0707
10536W        W53449  23.716   6.628   2.339  0.1956  0.1047 -0.1881
10537W        W53450  26.367  17.487   5.299 -0.1809 -0.3215 -0.0637
10538W        W53451   0.777   9.088   6.915 -0.1947  0.2256  0.1351
10539W        W53452   2.743  16.055   1.186 -0.0018  0.0568  0.1858
10540W        W53453  33.914  19.971   3.861 -0.4429 -0.0770  0.1804
10541W        W53454   5.222  15.925  26.519 -0.3177  0.0000  0.0951
10542W        W53455  24.574  20.637  23.549 -0.2646 -0.0126  0.2338
10543W        W53456   9.144  19.257  13.827  0.1742  0.2862  0.0919
10544W        W53457   0.622  14.647  22.272 -0.3074  0.4628 -0.3497
10545W        W53458   6.440  11.617  25.001 -0.1610 -0.3369  0.1068
10546W        W53459  17.660  12.525  25.680 -0.2801  0.1321  0.0068
10547W        W53460  32.851   5.051   3.672 -0.0430  0.2815 -0.0552
10548W        W53461  30.286  10.404  29.111 -0.0470  0.3093  0.2377
10549W        W53462  30.822  30.026  22.980  0.0366  0.0902 -0.0726
10550W        W53463   4.234  24.733  21.369 -0.2719  0.0049  0.3647
10551W        W53464   0.590  21.518   2.252  0.1407  0.0045  0.0996
10552W        W53465  23.862  12.614   5.350  0.1452  0.2656 -0.3775
10553W        W53466  30.926   8.657   1.137  0.0119  0.3778 -0.1494
10554W        W53467   3.780   3.116  23.805 -0.0720  0.1976 -0.2348
10555W        W53468  26.837  12.541  27.368  0.2343  0.1699 -0.0439
10556W        W53469   3.002   9.493  23.484  0.1508 -0.1481 -0.0833
10557W        W53470   5.286  30.083  18.591 -0.1547  0.1630 -0.2908
10558W        W53471  10.023  17.453  27.841  0.1335  0.2429  0.1197
10559W        W53472  27.339  15.656  27.880  0.1086  0.2714 -0.2916
10560W        W53473  10.496  14.819  15.567  0.2642  0.1107 -0.0856
10561W        W53474  10.029  15.167   4.846 -0.2161  0.0314  0.2207
10562W        W53475   3.455   5.334  17.504 -0.1570 -0.2339 -0.0894
10563W        W53476  26.758  19.403  18.346  0.0033 -0.3569  0.2699
10564W        W53477   1.574  15.734  23.714  0.0067 -0.0027  0.1363
10565W        W53478   8.687   9.269   0.014 -0.2161 -0.1782 -0.0727
10566W        W53479   7.700  27.607  22.886 -0.0755 -0.0985  0.1066
10567W        W53480  24.827   4.969   1.230  0.2998 -0.1277 -0.1641
10568W        W53481   0.723  17.280  24.349 -0.1136  0.0318 -0.1389
10569W        W53482  14.200   8.853  24.487 -0.0042  0.1927 -0.4475
10570W        W53483   2.935   9.663  24.850 -0.0660  0.1257  0.2120
10571W        W53484  29.337   6.768  20.888  0.3335 -0.0119 -0.4422
10572W        W53485  31.324  13.828  29.017 -0.1368 -0.0179  0.4590
10573W        W53486  32.685   1.789  24.872 -0.0589 -0.2122 -0.2315
10574W        W53487   2.298   9.226   0.343 -0.1682 -0.1099  0.3491
10575W        W53488   5.198   8.797  23.274 -0.3451 -0.2948 -0.4402
10576W        W53489  25.791  13.688   1.661 -0.2283 -0.2420  0.0818
10577W        W53490  29.929  14.777   3.989  0.1940 -0.0411  0.1547
10578W        W53491  25.963  16.574  22.794  0.0025  0.1440  0.1541
10579W        W53492   2.007  11.300  28.253  0.0609  0.2746  0.0068
10580W        W53493  30.226  11.585  22.567 -0.1265  0.1271  0.0068
10581W        W53494   7.424   9.582   3.908 -0.1088  0.3301 -0.0212
10582W        W53495   9.675  19.748   4.362 -0.1022 -0.0690 -0.0895
10583W        W53496  12.774  24.606  25.606 -0.0498 -0.0839  0.0816
10584W        W53497  33.880  17.415  22.347 -0.3420  0.0633  0.2734
10585W        W53498   5.270  20.731  22.388  0.1949 -0.3379 -0.0044
10586W        W53499  28.094  17.881   9.432  0.0432  0.1625  0.1906
10587W        W53500  24.240  27.398  27.640 -0.2823  0.4572  0.0541
10588W        W53501  33.234   5.043   0.205 -0.3124 -0.0860  0.1224
10589W        W53502   2.115  19.939  20.722 -0.1465  0.1245 -0.0074
10590W        W53503  17.050  10.436  22.951  0.0777 -0.1233 -0.0054
10591W        W53504   2.145  15.888  19.412  0.0663 -0.0273  0.2567
10592W        W53505  34.244  10.003  27.065  0.3873  0.0056 -0.3000
10593W        W53506  29.434  13.092  21.315 -0.3428 -0.3397  0.1450
10594W        W53507  10.601  16.583   2.940  0.0085 -0.1025 -0.1458
10595W        W53508  14.571  15.316  29.555  0.5041 -0.2468 -0.2053
10596W        W53509   8.982  16.818  25.343 -0.0772  0.0164 -0.1087
10597W        W53510  10.780  16.299   4.348  0.0382 -0.2973  0.0539
10598W        W53511  24.752   1.981  27.379  0.0638  0.1805 -0.3551
10599W        W53512  31.342  17.020   1.340 -0.1816 -0.2723  0.0664
10600W        W53513  11.155  14.084  23.765  0.1427 -0.1412  0.0825
10601W        W53514  28.711  11.790  20.955  0.2416  0.2571  0.2403
10602W        W53515  28.762  20.395   6.211  0.1421 -0.2330  0.3226
10603W        W53516  31.191  21.640   3.156 -0.0634  0.3945 -0.0223
10604W        W53517   4.868   8.752  28.043 -0.0222  0.3113 -0.1160
10605W        W53518   0.192  14.906  21.490  0.1551  0.1921  0.0378
10606W        W53519   2.082  12.358   1.657  0.1347  0.0545 -0.2378
10607W        W53520  26.716  24.008  24.342 -0.4024 -0.1446 -0.2026
10608W        W53521  31.433  13.159  25.063  0.1077  0.0916 -0.0663
10609W        W53522  26.861   6.539  26.330 -0.2329  0.0087 -0.0427
10610W        W53523   2.805  12.694  29.207  0.1325  0.2039 -0.0185
10611W        W53524  28.789  14.077  24.039 -0.0130  0.0603  0.2942
10612W        W53525   4.085   4.159   3.581  0.0856 -0.1991  0.2091
10613W        W53526   3.470   7.721   0.972 -0.1661  0.1729  0.0408
10614W        W53527   4.009  18.172  13.163  0.2553  0.0331  0.3345
10615W        W53528   1.698   7.020  23.881 -0.1512  0.0858 -0.1305
10616W        W53529   0.253  10.260   2.987  0.3532  0.0237  0.2506
10617W        W53530  28.614   3.871   3.884 -0.1292 -0.1764 -0.1221
10618W        W53531  29.084  16.577  27.425  0.2801  0.1199 -0.1727
10619W        W53532   4.878   5.630   1.679 -0.4708  0.0582  0.1559
10620W        W53533   4.117  25.435   9.478  0.0168  0.1075  0.0386
10621W        W53534   4.304  22.087  20.534  0.1847  0.1147 -0.1954
10622W        W53535   9.529  18.155  24.996 -0.2972  0.0417 -0.0649
10623W        W53536   4.070  17.593  24.509  0.0309 -0.0396  0.1286
10624W        W53537  28.807   8.460  16.346 -0.2519  0.1792 -0.2750
10625W        W53538   3.925  13.617  15.573  0.0681 -0.1633 -0.0209
10626W        W53539  23.552  12.718  15.091 -0.1150  0.1278 -0.1191
10627W        W53540   6.233   6.631  23.843  0.2052  0.0787 -0.1446
10628W        W53541   2.201  10.233  17.710 -0.2267  0.1711 -0.0413
10629W        W53542   2.791  23.864  17.077 -0.1255  0.3891  0.1617
10630W        W53543   0.292   2.584  15.845  0.4405  0.1143  0.1603
10631W        W53544   2.194  21.739  25.697  0.4188  0.1176  0.0383
10632W        W53545   6.783  23.103  20.624  0.0588  0.3927  0.3818
10633W        W53546   4.611  13.969  14.613  0.0918  0.1962  0.4243
10634W        W53547   0.338  17.757  19.047  0.1291 -0.2369  0.1258
10635W        W53548  31.154  23.065  18.628 -0.0709 -0.0193 -0.0815
10636W        W53549  34.394  11.164  20.223  0.1418 -0.3232  0.2337
10637W        W53550  24.059  20.867  24.594  0.0074  0.0553  0.1233
10638W        W53551  30.868   9.929  25.202 -0.0550 -0.0188 -0.2529
10639W        W53552  33.487  17.889  14.829 -0.0148 -0.0855 -0.0071
10640W        W53553  10.060  18.573  15.335 -0.0851  0.2621  0.1246
10641W        W53554  12.515  14.119  21.255  0.0182  0.0597  0.0614
10642W        W53555  30.721   9.757  17.276 -0.1020 -0.0443 -0.2471
10643W        W53556  31.947  20.356  21.827  0.0853 -0.0182 -0.5319
10644W        W53557   5.871  27.000  15.017 -0.1223 -0.0708  0.1491
10645W        W53558  29.733  21.711  18.043  0.0437  0.0172  0.1512
10646W        W53559  33.728  20.957  15.349  0.0962 -0.0741 -0.1272
10647W        W53560  26.070   9.558  29.559 -0.1303 -0.0034 -0.3116
10648W        W53561   4.569  11.970  29.523 -0.4386  0.0448  0.1473
10649W        W53562   1.406  26.290  21.862 -0.0517  0.2315 -0.1111
10650W        W53563   6.105  14.672  14.834 -0.0768  0.0718 -0.0981
10651W        W53564   9.665  31.174  19.577 -0.0621 -0.1872  0.2145
10652W        W53565   0.277  25.089  17.153  0.1575 -0.0057 -0.1509
10653W        W53566  31.377  17.794  22.120 -0.0450 -0.0434 -0.0052
10654W        W53567   2.866  14.206  16.734  0.0918 -0.2110  0.1020
10655W        W53568  23.182  24.707  18.995 -0.2639 -0.1437 -0.0789
10656W        W53569   1.310  27.775  24.184  0.0145  0.0461  0.1328
10657W        W53570   2.391  25.179  17.401 -0.0076 -0.1138  0.1017
10658W        W53571   5.839  28.391  16.249  0.1759 -0.1150  0.0788
10659W        W53572   5.910  24.294  16.183 -0.2046  0.4367 -0.0957
10660W        W53573  33.437  17.001  14.641 -0.2062 -0.1388 -0.1881
10661W        W53574  27.066  15.916  15.470  0.1834  0.2732  0.0301
10662W        W53575   7.488  14.462  19.955 -0.0510 -0.0016 -0.1699
10663W        W53576   5.787  10.520  20.352 -0.0821  0.1626 -0.1529
10664W        W53577  26.602  29.932  24.993 -0.1121 -0.1812  0.0123
10665W        W53578  31.689  23.813  14.664 -0.2134  0.1528  0.1205
10666W        W53579   4.396  13.482  20.204 -0.2769 -0.1505 -0.2078
10667W        W53580   4.497  17.440  14.579 -0.1125 -0.2509  0.0549
10668W        W53581   4.123  15.734  22.774  0.0268 -0.2633  0.2168
10669W        W53582  10.101  17.134  15.599  0.0567 -0.3956  0.1243
10670W        W53583  30.756  17.386  20.084  0.0981  0.2218 -0.0052
10671W        W53584   4.859  13.849  24.911  0.1608  0.2624  0.2805
10672W        W53585  32.644  19.864  28.325  0.0223 -0.0377 -0.0246
10673W        W53586  24.140  17.436  22.137 -0.0438 -0.2467  0.1887
10674W        W53587   0.437  11.747  17.036 -0.3391 -0.1392 -0.3064
10675W        W53588  30.988  18.197  18.116 -0.0228  0.0668  0.0866
10676W        W53589  32.856  12.432  18.314  0.2844 -0.1772  0.1439
10677W        W53590   5.628  13.946  19.596 -0.2402  0.1129 -0.1388
10678W        W53591   6.216  23.934  20.771  0.3502  0.3373 -0.1619
10679W        W53592  18.415  10.860  15.787  0.2282  0.0533  0.0874
10680W        W53593   5.781  11.008  21.972 -0.2872 -0.0865  0.1451
10681W        W53594   3.471  17.817  18.406 -0.1575 -0.3208  0.3313
10682W        W53595   3.559  18.922  18.892 -0.1078 -0.0609  0.4646
10683W        W53596   8.611  19.349  16.807 -0.1804 -0.0767 -0.1029
10684W        W53597  27.621  11.206  15.246  0.0191 -0.2350 -0.1809
10685W        W53598   9.117   7.177  18.558  0.2928 -0.1193 -0.4843
10686W        W53599   3.595  17.786  24.330 -0.1599 -0.1234 -0.0103
10687W        W53600  11.116  21.252  13.596 -0.0504  0.0824  0.1510
10688W        W53601   6.266   1.265  27.406  0.3477 -0.1217  0.1339
10689W        W53602   3.127  10.207  16.301  0.2586  0.0647  0.1689
10690W        W53603  31.924  16.478  24.029  0.0105  0.2414  0.0749
10691W        W53604   1.628  14.153  17.596 -0.0073 -0.1564  0.1637
10692W        W53605  33.069  19.076  22.114  0.2233  0.4913 -0.1600
10693W        W53606   7.954  14.382  29.511 -0.0727  0.1060 -0.1111
10694W        W53607  34.232  14.733  19.672 -0.1898  0.1116 -0.1183
10695W        W53608  29.349  17.668  13.706  0.0845  0.2393  0.1511
10696W        W53609  34.456  10.192  25.187  0.1060  0.2156  0.0510
10697W        W53610  27.739  15.234  19.099 -0.1215 -0.2884  0.0329
10698W        W53611  24.092  20.782  22.404  0.1330  0.0579  0.1412
10699W        W53612   2.985  12.130  19.051 -0.0810 -0.0250 -0.1970
10700W        W53613   9.429  16.636  15.284 -0.0078  0.1549  0.3282
10701W        W53614  22.975  17.738  14.265  0.4228 -0.1268  0.2021
10702W        W53615   3.065  11.161  20.077 -0.2647 -0.0808  0.1852
10703W        W53616   7.383  21.496  23.185  0.1307  0.1436 -0.0264
10704W        W53617  12.034  20.659  18.946 -0.2157 -0.0935  0.0796
10705W        W53618  30.544  16.613  17.362 -0.1569 -0.1337 -0.1570
10706W        W53619   3.233  12.201  21.878 -0.2287 -0.1087 -0.1642
10707W        W53620   6.196  10.176  17.192  0.1091  0.0550 -0.3647
10708W        W53621   4.129  17.861  16.540  0.1818 -0.2774 -0.0031
10709W        W53622  11.440   5.119  22.333  0.0638  0.1707  0.2411
10710W        W53623  14.493   0.632  21.272 -0.0826  0.2972 -0.2240
10711W        W53624   4.765  13.896  19.397  0.1813  0.1073  0.1363
10712W        W53625  32.177  14.649  14.660  0.0486  0.1545 -0.3356
10713W        W53626   2.840  22.900  15.252  0.1436 -0.2381  0.2605
10714W        W53627  26.108  16.748  13.086  0.0861 -0.0882  0.1282
10715W        W53628  30.373  16.832  14.212 -0.2659 -0.0609 -0.1782
10716W        W53629  28.740  15.343  19.677 -0.4344 -0.1090 -0.0446
10717W        W53630  11.532  19.127  18.201  0.0750 -0.1477 -0.0691
10718W        W53631   2.214  13.151  19.159  0.0106  0.1422  0.0733
10719W        W53632   2.334   9.500  15.708  0.0744 -0.0445 -0.0289
10720W        W53633  34.210  20.684  23.341 -0.2195  0.1664  0.2393
10721W        W53634   1.075  17.385  14.002  0.3624  0.1221  0.1931
10722W        W53635   4.372  14.450  20.649  0.2778  0.0063 -0.1114
10723W        W53636   4.362  10.305  23.083  0.3338  0.2247 -0.1111
10724W        W53637  31.735  15.783  14.945 -0.1381  0.0046 -0.0914
10725W        W53638   1.358  17.326  19.039  0.0561 -0.1445 -0.2678
10726W        W53639   0.219  22.724  18.751  0.1780  0.0911 -0.1844
10727W        W53640  30.649  11.434  24.267  0.0396 -0.0354 -0.0940
10728W        W53641  12.023  22.661  19.963 -0.0213  0.1913  0.1236
10729W        W53642   4.189  13.467  22.896  0.3023  0.2186  0.3150
10730W        W53643  24.000  17.492  15.792 -0.1865 -0.0085  0.0779
10731W        W53644   5.972  11.739  21.602 -0.3016 -0.0350 -0.0954
10732W        W53645   5.088  15.551  18.994  0.2492  0.2157  0.2071
10733W        W53646  30.166  13.045  16.828  0.2214 -0.0038  0.1804
10734W        W53647  33.757  18.656  25.983 -0.1285  0.0480  0.3875
10735W        W53648   4.877  20.606  17.329  0.2075 -0.2779  0.0701
10736W        W53649  11.824  19.361  26.001  0.0468  0.3187  0.0308
10737W        W53650  32.009  12.060  18.461 -0.0647 -0.0732  0.1067
10738W        W53651   3.497  30.530  16.430  0.0700  0.3383 -0.0134
10739W        W53652  32.153  24.150  18.959 -0.2706  0.2084 -0.0014
10740W        W53653  32.125  11.653  25.200  0.0173  0.1018 -0.0214
10741W        W53654   3.874  10.219  18.065 -0.3408  0.0468 -0.0283
10742W        W53655   8.291  15.837  24.320 -0.0270  0.2331  0.0371
10743W        W53656   2.589  22.100  22.385  0.1380 -0.1467  0.4863
10744W        W53657  34.273  19.836  17.233 -0.1519 -0.0626  0.1541
10745W        W53658  28.629  16.141  24.683 -0.0332  0.0105 -0.1995
10746W        W53659  33.684  23.760  15.290  0.5512  0.6027  0.1086
10747W        W53660  32.958  11.493  19.403  0.1577  0.1036  0.0140
10748W        W53661  24.487  18.945  23.641 -0.1625 -0.1279  0.0068
10749W        W53662   4.672  18.855  16.359 -0.2378 -0.0622  0.1901
10750W        W53663   6.049  14.067  17.478  0.0232  0.1605  0.1200
10751W        W53664   7.772  23.057  23.948  0.1819  0.2300  0.1606
10752W        W53665   7.210  27.148  22.178 -0.0360 -0.2272  0.1065
10753W        W53666  34.291  13.504  17.391  0.0174  0.1283  0.3216
10754W        W53667   4.745  15.445  19.338 -0.0989 -0.0046  0.0627
10755W        W53668  25.770  15.276  18.110  0.1301 -0.2130  0.2014
10756W        W53669  11.094  14.327  20.889  0.1016 -0.0446  0.1864
10757W        W53670  30.572  13.492  27.263  0.0568  0.0602  0.0220
10758W        W53671  30.990  13.955  14.938 -0.2465  0.1236  0.1352
10759W        W53672  30.286  15.709  20.168  0.1900 -0.1922  0.2391
10760W        W53673   7.776  12.681  19.566  0.3485 -0.1864 -0.0653
10761W        W53674  29.539  24.570  17.330 -0.0034  0.1649 -0.1480
10762W        W53675  32.477  18.511  19.520  0.1039  0.0128 -0.0749
10763W        W53676  33.665  20.272  15.167 -0.1056  0.4434 -0.0745
10764W        W53677   7.119  19.963  16.173  0.2345  0.2153 -0.1837
10765W        W53678   9.383  16.447  15.923  0.0352  0.1900  0.3787
10766W        W53679   7.166  25.493  20.864 -0.0569 -0.1750  0.2964
10767W        W53680   3.515  17.885  17.898  0.0219  0.0618 -0.0353
10768W        W53681   2.566  17.236  16.586 -0.0534  0.2607  0.2610
10769W        W53682  30.604  12.928  16.564 -0.0891 -0.0290 -0.2064
10770W        W53683   3.316  24.118  25.459  0.0658  0.3078  0.2209
10771W        W53684   2.679   7.909  19.672  0.1067 -0.3070  0.0586
10772W        W53685  30.514  13.700  23.257 -0.2712 -0.0288 -0.2898
10773W        W53686   6.402   8.411  21.545 -0.0717 -0.1366 -0.0325
10774W        W53687   2.627  21.987  21.809 -0.2414 -0.3603  0.0794
10775W        W53688   1.300  16.261  13.868 -0.0132 -0.0806  0.0744
10776W        W53689  13.905  19.589  12.998 -0.2011 -0.2065 -0.1577
10777W        W53690   6.338  17.584  16.896 -0.2795  0.0742  0.2879
10778W        W53691   9.042  34.361  20.566 -0.2245 -0.0871  0.1724
10779W        W53692   0.154  10.279  22.902  0.0132 -0.0193  0.3460
10780W        W53693  27.973  18.747  20.639  0.0493 -0.2671 -0.1512
10781W        W53694  32.830  16.973  16.178 -0.0694 -0.1660 -0.0533
10782W        W53695  10.839  22.862  18.368  0.1505 -0.2738 -0.0443
10783W        W53696   5.743  18.039  19.576  0.1511 -0.1058 -0.1246
10784W        W53697  32.407  10.880  27.243  0.3560 -0.3489 -0.2302
10785W        W53698   6.941  19.544  13.907  0.0768 -0.0435  0.0379
10786W        W53699   6.391  17.482  15.659 -0.2594  0.2596  0.1462
10787W        W53700  34.343  25.304  22.416 -0.1681 -0.1725 -0.1095
10788W        W53701  34.288  20.335  14.326 -0.0593  0.1079 -0.1582
10789W        W53702   3.597   1.929  18.286  0.2515 -0.0447  0.1768
10790W        W53703  30.211  17.387  24.275  0.3422  0.0282  0.0949
10791W        W53704   6.448   0.895  22.922  0.0115 -0.0278 -0.0716
10792W        W53705   3.591  21.434  20.361 -0.2811 -0.2550  0.2956
10793W        W53706  34.156  23.365  20.427  0.0972 -0.2576 -0.1327
10794W        W53707   1.499  18.762  17.880  0.4586 -0.1647 -0.1103
10795W        W53708  23.470  19.074  17.908  0.3591  0.3225 -0.3707
10796W        W53709   0.656  13.247  17.945  0.1083 -0.3736 -0.1420
10797W        W53710  29.726  17.577  25.789 -0.0551  0.2248  0.0418
10798W        W53711  13.694   2.878  16.615  0.1446 -0.0525  0.0341
10799W        W53712   0.070  17.606  14.161 -0.1741  0.1365  0.0531
10800W        W53713  32.734  24.113  29.559  0.1750  0.1968  0.4565
10801W        W53714  25.230  20.352  28.898  0.0844 -0.2466 -0.2972
10802W        W53715   5.216  14.214  16.370  0.1900 -0.0075  0.0049
10803W        W53716  11.084  14.580  26.731 -0.0652  0.2092 -0.1686
10804W        W53717  27.878  17.566  17.302  0.0750 -0.1804 -0.0277
10805W        W53718   0.973  16.856  15.230  0.0930  0.2363  0.0264
10806W        W53719   4.084   0.746  17.861 -0.3023 -0.2994  0.0722
10807W        W53720  24.205  24.398  15.242  0.0677  0.0993 -0.1344
10808W        W53721   9.246  23.348  25.139  0.1608 -0.1188  0.1007
10809W        W53722   7.669  20.188  26.837 -0.3677  0.0416 -0.2321
10810W        W53723  32.971  18.497  14.531  0.0450 -0.0032  0.1666
10811W        W53724   3.729  10.115  24.585 -0.1156  0.1212  0.1128
10812W        W53725   3.323  12.495  15.227 -0.1030 -0.1399  0.0765
10813W        W53726  30.176  25.775  29.550 -0.1609 -0.0059 -0.0667
10814W        W53727   5.573   9.124  23.054 -0.0272 -0.1504 -0.0563
10815W        W53728   7.504  10.336  17.672 -0.1003 -0.1180 -0.2042
10816W        W53729   9.746  23.399  16.948 -0.0596 -0.2651 -0.2142
10817W        W53730   8.382   6.861  19.187  0.0673 -0.2578 -0.1219
10818W        W53731  15.325  28.348  15.613  0.0449 -0.1960 -0.0309
10819W        W53732   7.681  21.801  15.516  0.4010  0.0330  0.1874
10820W        W53733  31.031  13.047  16.096  0.0023 -0.1513  0.1491
10821W        W53734  28.168   9.481  21.437  0.0036 -0.0745  0.1061
10822W        W53735   7.332  17.332  15.888 -0.0943 -0.2629  0.0580
10823W        W53736   6.722   4.837  21.249 -0.2642  0.2341 -0.0111
10824W        W53737   2.768  18.530  17.394 -0.3952  0.1669  0.3016
10825W        W53738  33.265   6.790  27.733 -0.2199  0.1499  0.0735
10826W        W53739   5.741  19.724  21.284 -0.1081 -0.0151 -0.1780
10827W        W53740   4.233  12.941  19.496 -0.2201  0.0083  0.0751
10828W        W53741  32.424   3.148  19.264 -0.1910 -0.1446  0.0414
10829W        W53742  33.275  14.162  13.992  0.1470  0.3231 -0.0181
10830W        W53743   5.449   0.074  18.830 -0.0585  0.0901 -0.1053
10831W        W53744   7.159  16.158  19.285  0.0584 -0.0680 -0.1593
10832W        W53745  29.893  19.683  26.013  0.1020 -0.0984 -0.2898
10833W        W53746  30.984  15.606  14.300 -0.2494 -0.3325 -0.2162
10834W        W53747  10.041  12.380  25.356  0.0313  0.0344 -0.2707
10835W        W53748  31.411  15.050  24.432  0.3618 -0.2409  0.4686
10836W        W53749  12.284  22.967  14.007  0.2856  0.1310  0.1824
10837W        W53750  32.598  17.648  22.803  0.3073  0.1967 -0.2570
10838W        W53751   1.962  23.472  14.906  0.1761  0.1640 -0.1494
10839W        W53752   5.571  11.302  16.160  0.2085  0.0493 -0.0546
10840W        W53753   2.423  22.455  14.608 -0.1677  0.4436  0.2551
10841W        W53754   5.428  17.719  16.633  0.2009 -0.0389  0.3084
10842W        W53755   7.545  21.411  17.902 -0.0327  0.0411 -0.1077
10843W        W53756   4.853  23.599  22.211 -0.0472  0.0160 -0.5974
10844W        W53757   3.735  18.700  16.811  0.0078  0.0247  0.2142
10845W        W53758   0.718  10.927  15.469 -0.0772 -0.2850 -0.0107
10846W        W53759  32.953  11.358  21.575  0.3426  0.1811 -0.1136
10847W        W53760  28.188   1.518  14.885  0.1106  0.2415  0.0880
10848W        W53761  31.885  12.938  18.140 -0.1211 -0.0832  0.0542
10849W        W53762   6.588  15.745  27.147 -0.0737 -0.0818 -0.1138
10850W        W53763   3.195   9.056  18.185  0.3574 -0.4060 -0.1432
10851W        W53764  31.372  16.219  17.066  0.0445 -0.0051 -0.2797
10852W        W53765   4.376  12.805  16.817 -0.1805  0.0983  0.0023
10853W        W53766   6.488  17.769  24.308 -0.4314 -0.0199  0.0374
10854W        W53767   4.526  14.740  16.693 -0.1109  0.1345 -0.1786
10855W        W53768   2.289  10.969  17.997 -0.0706  0.1595 -0.1354
10856W        W53769   7.844  18.935  21.069  0.0270  0.0989  0.0935
10857W        W53770  10.981  17.048  19.194 -0.1770  0.1273 -0.1379
10858W        W53771   2.130   6.712  23.738  0.1023  0.0972 -0.4412
10859W        W53772   2.284  14.793  17.503  0.2299 -0.1759 -0.2203
10860W        W53773  31.838   9.663  18.197 -0.0797 -0.0974 -0.1219
10861W        W53774  29.475  21.168  21.823  0.1940 -0.1646  0.0112
10862W        W53775  27.136   6.868  16.178  0.1396  0.2757  0.0189
10863W        W53776  28.823  21.085  23.975  0.4291  0.0471  0.2622
10864W        W53777  32.702  17.691  16.953  0.0791  0.1813 -0.4240
10865W        W53778   3.792  19.006  15.832 -0.2899  0.1180  0.1880
10866W        W53779  30.418  26.533  16.725 -0.0088  0.1122 -0.4254
10867W        W53780   3.553  18.344  21.777 -0.2275 -0.1543  0.0410
10868W        W53781   4.376   8.726  18.303  0.0137  0.1626 -0.1669
10869W        W53782   4.237  16.998  13.801  0.2309 -0.2747  0.1530
10870W        W53783   1.883  18.122  17.137  0.0273  0.0735 -0.2631
10871W        W53784   5.882  24.238  15.574 -0.3640 -0.0383 -0.0791
10872W        W53785  21.334   9.122  15.440 -0.2273  0.3056  0.2386
10873W        W53786  29.404  21.589  19.036  0.0037 -0.0709 -0.0484
10874W        W53787   7.400  14.335  23.464  0.0225  0.2337 -0.2373
10875W        W53788   1.307  21.392  23.921  0.1281 -0.0258  0.0368
10876W        W53789   2.301  15.788  17.011 -0.1894  0.0259 -0.0534
10877W        W53790   3.902  20.016  24.137 -0.0677 -0.1375  0.1076
10878W        W53791   3.240  14.322  18.108  0.2747  0.1090  0.1483
10879W        W53792  33.521   9.687  21.481 -0.1654  0.0196 -0.0697
10880W        W53793  17.308   7.255  19.004  0.0861  0.1895  0.2591
10881W        W53794   4.372  16.891  13.215  0.0946 -0.1896  0.0563
10882W        W53795   5.825  14.635  23.157  0.1442  0.0386 -0.0553
10883W        W53796   2.765  19.356  20.942  0.0272 -0.0394 -0.2506
10884W        W53797  32.418  25.334  16.363 -0.2886  0.1240  0.2229
10885W        W53798   4.855  14.382   9.615 -0.2217  0.0630 -0.0237
10886W        W53799  27.562  17.489  21.577 -0.3860 -0.0319  0.0349
10887W        W53800  31.993   9.884  21.302 -0.2333  0.0254  0.0518
10888W        W53801  33.754  30.069  18.099 -0.0151  0.1524  0.1311
10889W        W53802   3.648  11.454  25.958  0.0588 -0.0155 -0.0135
10890W        W53803   5.912   9.636  18.390 -0.3402 -0.2740  0.2034
10891W        W53804   1.524   8.108  23.366  0.0732 -0.1506  0.0946
10892W        W53805  29.685  13.801  18.172 -0.3447 -0.1604 -0.1493
10893W        W53806   6.353  14.512  17.453 -0.0065  0.1464 -0.1040
10894W        W53807   1.646  14.413  14.546 -0.0356 -0.2707  0.2261
10895W        W53808   1.742  13.029  16.995  0.1029  0.2415  0.0327
10896W        W53809  33.159  15.405  17.950 -0.2839 -0.1319  0.1574
10897W        W53810  10.990  19.173  13.463  0.0752 -0.1095 -0.1201
10898W        W53811   0.673  30.112  20.994  0.2006 -0.0263 -0.0931
10899W        W53812  32.444  23.573  15.303  0.0411  0.2922  0.0576
10900W        W53813  33.450  12.268  16.768  0.2162  0.0883  0.0483
10901W        W53814   8.037  16.815  15.576 -0.0750 -0.1368 -0.0366
10902W        W53815  30.368  17.750  17.808  0.0506  0.0390 -0.0635
10903W        W53816   0.888  21.464  17.778  0.2215 -0.1308 -0.0075
10904W        W53817   1.456  21.723  19.610  0.1350 -0.1616 -0.0515
10905W        W53818  31.259   8.901  19.251  0.2199  0.3994 -0.1132
10906W        W53819   6.951   2.782  17.834 -0.1450 -0.0776  0.1228
10907W        W53820   6.916   9.373  28.744  0.1269  0.3079 -0.0786
10908W        W53821   4.360  14.206  14.264 -0.0788  0.3228  0.1338
10909W        W53822  15.523   7.650  26.093 -0.1892 -0.1819 -0.2597
10910W        W53823  11.601  33.780  24.544  0.2242  0.1439  0.0794
10911W        W53824   4.941  11.253  20.224 -0.2124 -0.2028 -0.2048
10912W        W53825   1.307  22.357  22.603  0.1501 -0.1057  0.0746
10913W        W53826  33.470  18.227  16.916  0.0477 -0.0589  0.2908
10914W        W53827  27.931  13.704  16.146 -0.2714  0.1050  0.1595
10915W        W53828  33.712  14.001  13.908  0.0723 -0.2605  0.1280
10916W        W53829  34.263   5.580  22.547  0.3175  0.0984  0.3476
10917W        W53830  26.905  10.411  14.008  0.3330  0.0117  0.3438
10918W        W53831  14.102  26.538  24.259  0.1622  0.1563  0.1222
10919W        W53832   0.690  17.514  25.503 -0.0008  0.4553  0.0128
10920W        W53833   5.827  23.026  15.085 -0.0026  0.0428  0.1027
10921W        W53834   5.352  21.265  13.628 -0.1515  0.0760  0.1527
10922W        W53835   1.839  23.606  14.211  0.2001 -0.0517 -0.1355
10923W        W53836   5.398  19.415  24.651 -0.2299 -0.1114 -0.0045
10924W        W53837  29.230  24.598  16.053 -0.3581 -0.0503  0.2348
10925W        W53838   0.022  32.926  21.037  0.0829 -0.0878 -0.0886
10926W        W53839   0.404  15.658  19.732 -0.1519 -0.0045 -0.0438
10927W        W53840   1.126  15.987  18.889 -0.1520 -0.3939 -0.3542
10928W        W53841  28.875   4.691  17.083 -0.0020  0.2108 -0.0421
10929W        W53842   9.364  13.183  18.779 -0.0093  0.2561 -0.0167
10930W        W53843  24.743  18.910  21.636 -0.0201 -0.2107  0.4191
10931W        W53844   7.662   4.687  19.743  0.1258  0.1687  0.2666
10932W        W53845  25.051  18.353  19.986 -0.0924 -0.3015 -0.1265
10933W        W53846  32.621  13.736  22.593 -0.1675 -0.0904 -0.3698
10934W        W53847  33.310   1.598  20.157 -0.1341 -0.1104 -0.0079
10935W        W53848   7.579  16.412  19.173 -0.0148  0.2521 -0.0713
10936W        W53849  28.564   7.245  16.951  0.3708 -0.1462 -0.6162
10937W        W53850  10.849  18.665  21.695 -0.1894 -0.2875 -0.1461
10938W        W53851  31.786  15.964  19.013  0.2266  0.2403 -0.1273
10939W        W53852  31.908  17.238  16.765 -0.0825 -0.2146  0.2247
10940W        W53853   6.713  15.122  14.938  0.0312  0.4542 -0.2081
10941W        W53854   1.660  17.077  15.873  0.1193  0.0269  0.0236
10942W        W53855  34.453  21.676  15.150  0.0859 -0.0787  0.1561
10943W        W53856   8.565  16.027  21.474  0.0765 -0.2132 -0.2152
10944W        W53857   4.615  20.817  13.642  0.1125  0.2953 -0.0522
10945W        W53858   9.103  22.576  15.551  0.0287 -0.3443  0.2564
10946W        W53859  32.610  17.759  17.917 -0.0503 -0.1202 -0.0577
10947W        W53860   0.228  20.298  15.451  0.1757  0.0405 -0.1025
10948W        W53861   3.491  15.781  23.913 -0.2100  0.1000 -0.0138
10949W        W53862  11.873  10.441  18.434 -0.4362 -0.0913  0.0183
10950W        W53863  31.952  12.475  21.259  0.0040  0.2569 -0.1872
10951W        W53864   1.337  19.540  20.969 -0.1852 -0.0372 -0.1008
10952W        W53865   4.595  32.684  19.424  0.1035 -0.0751  0.2089
10953W        W53866   9.607  22.384  18.400 -0.1603  0.1710  0.1407
10954W        W53867  34.055  12.597  14.957 -0.1691  0.2688  0.2736
10955W        W53868   0.579  25.198  14.689 -0.0309 -0.0771  0.1334
10956W        W53869  26.892  30.953  16.695 -0.1735 -0.3342  0.1675
10957W        W53870  16.637  22.336  15.848 -0.0818 -0.2376  0.0082
10958W        W53871   5.563  18.790  24.645  0.2014  0.0604  0.0570
10959W        W53872  31.288  20.040  16.031  0.0070 -0.0129 -0.1962
10960W        W53873   8.289  24.880  23.501 -0.0317 -0.1862 -0.0578
10961W        W53874   3.559  24.443  17.681 -0.0093 -0.1046  0.0874
10962W        W53875   2.248  10.302  20.007 -0.0138 -0.3408  0.0067
10963W        W53876   1.518  16.892  15.009  0.2017 -0.1961  0.3169
10964W        W53877  33.151  24.602  15.476 -0.3448 -0.1023 -0.0958
10965W        W53878  32.322   9.881  23.591 -0.1548  0.1302 -0.0508
10966W        W53879  26.223  20.548  16.218 -0.0795 -0.1166 -0.0070
10967W        W53880   0.716  15.392  23.110 -0.4958  0.0226 -0.2013
10968W        W53881  12.539  16.404  21.225 -0.2612  0.4102  0.3702
10969W        W53882   3.641  32.505  23.170 -0.0656  0.1501  0.3998
10970W        W53883  31.517  13.874  18.160  0.1702 -0.1592  0.0380
10971W        W53884  33.247  11.918  20.688  0.1261 -0.1473  0.0069
10972W        W53885   3.592  27.944  17.508  0.2524 -0.0928  0.0406
10973W        W53886  28.372  12.170  18.823  0.1188 -0.1986 -0.3392
10974W        W53887   7.115   8.221  18.493 -0.1138 -0.1234 -0.2200
10975W        W53888   4.233  20.622  17.675 -0.0311 -0.0690  0.2309
10976W        W53889  29.781  12.615  17.461  0.0847  0.0925 -0.0932
10977W        W53890   5.371  18.263  25.119  0.3506  0.0842 -0.3023
10978W        W53891   4.616  27.332  16.309 -0.1896  0.1866  0.0367
10979W        W53892  10.335  28.353  23.764  0.3224  0.0834 -0.0744
10980W        W53893   5.271  20.360  20.525 -0.1836  0.1892 -0.1794
10981W        W53894  32.965   9.379  16.323  0.1104 -0.0281  0.2819
10982W        W53895   1.540  12.924  15.650  0.0346 -0.1577  0.1227
10983W        W53896   9.655   9.343  23.594  0.0072 -0.0870  0.2631
10984W        W53897   0.269  24.489  17.030  0.4064  0.2217 -0.0174
10985W        W53898   4.236  10.562  20.276  0.1115  0.0639  0.0266
10986W        W53899   7.844  15.875  15.819  0.1541  0.0815  0.1434
10987W        W53900  32.348  17.027  17.383  0.0542 -0.1375 -0.2782
10988W        W53901  10.877  19.099  22.509  0.0192 -0.0503  0.1428
10989W        W53902   0.986  14.995  22.321  0.0619 -0.1085  0.0178
10990W        W53903   0.972  24.583  16.118 -0.1225 -0.0900  0.0288
10991W        W53904   1.702  17.899  18.223 -0.1168  0.0233  0.1188
10992W        W53905   4.718  23.121  14.941 -0.1819 -0.0379 -0.1389
10993W        W53906   2.267  18.815  14.284 -0.2400 -0.0970  0.1376
10994W        W53907  12.464  18.909  15.321  0.0517  0.0849  0.1373
10995W        W53908   3.624  16.408  18.411  0.1434 -0.0183 -0.0154
10996W        W53909   8.221  15.080  23.687 -0.0189  0.0751  0.2894
10997W        W53910   0.484   1.414  17.088  0.4194  0.3433  0.3216
10998W        W53911   6.657  14.304  27.411 -0.0092  0.1575  0.3359
10999W        W53912  27.156  18.493  25.348 -0.3632  0.1810  0.2905
11000W        W53913   8.021  17.896  14.788 -0.1887 -0.0996  0.1579
11001W        W53914  34.029  13.136  20.509 -0.0652 -0.0892 -0.1555
11002W        W53915  34.035  13.504  21.673 -0.0732  0.2226  0.0058
11003W        W53916  14.902  13.765  13.474 -0.5572  0.1207 -0.0736
11004W        W53917   8.409  13.695  16.942  0.1738  0.1784  0.2744
11005W        W53918   5.535  28.218  16.963 -0.2350  0.0554  0.3170
11006W        W53919  12.266  12.413  26.313  0.2825 -0.1671 -0.0545
11007W        W53920   5.200  13.701  20.400  0.3310  0.3177 -0.0036
11008W        W53921   5.047  21.689  14.249  0.2001  0.0126  0.0005
11009W        W53922   8.810  23.611  23.008  0.1472  0.0940  0.1368
11010W        W53923  31.092  17.945  27.084 -0.0643  0.1908 -0.0232
11011W        W53924   4.641  29.993  15.384  0.3106  0.0325 -0.0962
11012W        W53925  33.164  13.916  18.270 -0.3077 -0.1972 -0.0227
11013W        W53926  17.054  23.340  16.850  0.0250  0.2112 -0.2271
11014W        W53927  16.814  10.011  18.294 -0.1657 -0.1733 -0.0796
11015W        W53928  31.804  12.491  16.386 -0.3293  0.1667 -0.3899
11016W        W53929   2.785  11.217  15.554 -0.1670  0.0527  0.0533
11017W        W53930  13.140  18.247  17.513 -0.4601  0.3708  0.2616
11018W        W53931  12.706  21.577  14.372  0.1828  0.0815 -0.0312
11019W        W53932  34.047  14.118  21.086  0.2304 -0.0855  0.1026
11020W        W53933   7.454  16.796  27.799  0.1456 -0.0426  0.3886
11021W        W53934  31.301   9.284  16.950  0.1730  0.3646  0.0705
11022W        W53935   7.207   9.436  17.699 -0.0483 -0.0884 -0.1777
11023W        W53936   8.166  11.639  22.920  0.2136 -0.0777  0.0483
11024W        W53937  32.118  24.589  16.505  0.0692 -0.0212  0.1241
11025W        W53938   3.111  17.699  22.573 -0.2409  0.0874  0.1334
11026W        W53939  10.216  14.061  17.782 -0.0222  0.3346  0.2742
11027W        W53940   6.916  23.806  24.691 -0.0082 -0.0930  0.4768
11028W        W53941  32.284  11.643  18.738  0.0210 -0.0187 -0.0862
11029W        W53942   1.486   3.426  20.399  0.1640 -0.1014  0.2044
11030W        W53943   0.290  10.931  15.892 -0.2825  0.1212  0.1174
11031W        W53944   9.618  15.894  14.318 -0.0418 -0.1660 -0.0614
11032W        W53945  17.509  16.676  12.687  0.2311  0.1050  0.1669
11033W        W53946   2.127  22.977  17.406  0.1915 -0.3536 -0.2168
11034W        W53947   4.204  11.342  21.978  0.2066 -0.2187  0.1673
11035W        W53948  28.634  27.336  21.770 -0.1364  0.0911 -0.2309
11036W        W53949  25.803  20.136  17.403 -0.0094 -0.3502 -0.2693
11037W        W53950   2.208  18.460  21.949  0.0808  0.2236 -0.2283
11038W        W53951   0.544  11.697  24.666 -0.2143 -0.0459 -0.2564
11039W        W53952  12.324  17.690  14.326 -0.1256 -0.1587  0.0796
11040W        W53953   4.316  17.509  13.932 -0.1991  0.2298 -0.1571
11041W        W53954   8.937  12.777  26.828 -0.2409 -0.1035 -0.2073
11042W        W53955   2.338  19.482  20.591 -0.1929 -0.4646  0.0407
11043W        W53956   1.933  19.328  15.470  0.1347  0.4460  0.0622
11044W        W53957  27.785  20.194  21.266  0.2163 -0.1319  0.0026
11045W        W53958  14.866  15.565   7.244  0.0177  0.0314 -0.4047
11046W        W53959   1.795   9.222  18.564  0.0893 -0.1302 -0.3008
11047W        W53960   6.924  18.973  17.545 -0.1007  0.0980  0.4512
11048W        W53961  33.535  11.373  25.636 -0.0146 -0.0530  0.1306
11049W        W53962   6.692  13.696  16.376 -0.0477 -0.1088 -0.1277
11050W        W53963  10.104  12.593  24.308 -0.4399  0.2455 -0.1243
11051W        W53964   1.274  18.342  18.143  0.1197 -0.3549  0.1617
11052W        W53965  30.820  11.979  22.606  0.4168 -0.0213 -0.0383
11053W        W53966   4.531  20.538  19.163 -0.0977  0.0831 -0.3377
11054W        W53967   2.751  14.434  18.207  0.0499 -0.1937 -0.0479
11055W        W53968   1.800   9.503  20.409  0.1970 -0.4078  0.0991
11056W        W53969  10.319   8.279  25.570  0.0070  0.0079  0.1743
11057W        W53970  32.009  16.477  21.087 -0.1266  0.0003  0.0795
11058W        W53971   0.039  13.531  29.228  0.0608 -0.1140  0.1751
11059W        W53972  34.067  31.023  19.642  0.1467  0.0797 -0.2340
11060W        W53973  31.756  33.419  27.725  0.1315 -0.2149  0.1414
11061W        W53974   7.012  19.952  20.722  0.3073 -0.1686  0.2788
11062W        W53975   2.760  26.200  28.578 -0.5126 -0.0409  0.0954
11063W        W53976   0.158  11.585  18.598 -0.0843  0.0199  0.0789
11064W        W53977  31.164  14.749  25.584  0.3228  0.0041 -0.1171
11065W        W53978   0.704  21.880  27.569 -0.3173  0.2913 -0.0719
11066W        W53979   2.983  16.857  24.662  0.1089 -0.4568  0.4554
11067W        W53980  11.388  23.884  19.702  0.1660 -0.2128  0.0523
11068W        W53981  26.465  12.621  28.337  0.1506 -0.1321  0.1361
11069W        W53982  10.102  17.962  20.035 -0.0726 -0.2126 -0.1067
11070W        W53983   7.688  18.820  20.573  0.3118  0.1837 -0.0760
11071W        W53984   4.119  18.187  17.322 -0.4959 -0.1287  0.0064
11072W        W53985   9.266  17.835  21.650  0.4285  0.2604 -0.0704
11073W        W53986   9.481  19.572  17.871 -0.2177 -0.2038 -0.1378
11074W        W53987  27.605  10.885  14.120 -0.0031 -0.0049 -0.1201
11075W        W53988  34.268  16.796  22.482 -0.2137  0.0079  0.0173
11076W        W53989   5.851  16.452  14.867  0.0200 -0.1991 -0.1994
11077W        W53990   5.159  15.504  24.194 -0.1794 -0.2479  0.2301
11078W        W53991   3.042  10.338  21.331 -0.0828  0.1768  0.2639
11079W        W53992   8.292  16.726  27.235  0.0639 -0.0586 -0.0153
11080W        W53993   0.471  18.452   5.772 -0.0575 -0.4362  0.2075
11081W        W53994   3.057   8.676  22.899  0.0587 -0.4071 -0.2422
11082W        W53995  15.410   7.583  19.431  0.0522 -0.1127  0.2404
11083W        W53996   6.204  25.047  27.459  0.1016  0.0145  0.0345
11084W        W53997  11.378  19.401  15.956  0.0843 -0.1530  0.0264
11085W        W53998  33.086   7.800  22.436  0.1952  0.1584 -0.1847
11086W        W53999   5.892  15.935  28.875 -0.3674 -0.1468 -0.0838
11087W        W54000  11.048  11.116  19.515 -0.1989  0.1409 -0.0115
11088W        W54001   0.978  14.717  18.567 -0.1464 -0.0508 -0.0899
11089W        W54002   8.305  16.956  28.242  0.2171 -0.2250 -0.0045
11090W        W54003  34.401   4.450  25.656 -0.0029 -0.0081  0.1476
11091W        W54004   3.468  20.448  15.581 -0.0426 -0.2886  0.1635
11092W        W54005  30.911  12.174  18.229  0.0781  0.0077 -0.0071
11093W        W54006   9.143   9.401  20.994 -0.0276  0.0590 -0.0160
11094W        W54007  33.909  10.736  15.928  0.0381 -0.0018  0.0815
11095W        W54008   2.161  20.960  18.109  0.1426  0.1631  0.0976
11096W        W54009   7.183  17.787  15.963 -0.2773 -0.0913 -0.2366
11097W        W54010  34.404  18.669  19.473 -0.2237 -0.3366 -0.2247
11098W        W54011  32.969  12.584  21.970 -0.3612  0.0184 -0.1093
11099W        W54012  12.752   0.998  25.253  0.0362  0.2373  0.1777
11100W        W54013  30.843  14.401  15.052 -0.2975  0.0317 -0.0942
11101W        W54014  33.606  16.282  15.079 -0.0363 -0.0555  0.0054
11102W        W54015   3.018  16.171  19.601  0.0817 -0.1106 -0.0653
11103W        W54016  20.036  21.814  15.812  0.1379  0.2085 -0.0827
11104W        W54017   3.826  23.127  17.139 -0.3700 -0.2322  0.1637
11105W        W54018   9.605  16.547  18.890  0.1851  0.0258 -0.1800
11106W        W54019  26.234  15.244  19.681  0.0305 -0.1092 -0.1115
11107W        W54020   4.666  24.726  20.414  0.1201  0.1054 -0.1403
11108W        W54021   3.118   2.427  19.305  0.4037 -0.0231  0.0438
11109W        W54022  28.963  15.894  17.718  0.2936 -0.0284  0.3032
11110W        W54023  31.773   9.025  20.194  0.2268 -0.0969 -0.3238
11111W        W54024  14.075  22.770  19.698 -0.4151 -0.2783  0.0410
11112W        W54025   6.016  12.979  22.220 -0.0529  0.0240 -0.0538
11113W        W54026  13.083  17.234  27.860 -0.2140  0.1826 -0.0760
11114W        W54027   5.278  20.301  15.059 -0.3714 -0.3729 -0.2571
11115W        W54028   0.292  15.377  15.191 -0.1550  0.1171  0.0925
11116W        W54029  28.984   3.952  18.274  0.1019  0.0289 -0.0378
11117W        W54030  32.012  16.019  21.534  0.0206 -0.0457  0.3086
11118W        W54031  29.648  12.089  17.732 -0.0278 -0.3901 -0.0153
11119W        W54032  34.273  18.768  16.084  0.0959  0.0273  0.0157
11120W        W54033   0.606  17.980  25.989  0.3101 -0.0392 -0.1552
11121W        W54034   6.953   8.882  22.381 -0.0026 -0.0883  0.1687
11122W        W54035  33.583  19.555  15.750 -0.2592 -0.4389  0.1520
11123W        W54036   1.150   9.169  18.727 -0.0730 -0.0849  0.0191
11124W        W54037  31.429  14.469  14.187 -0.2156  0.2958  0.0524
11125W        W54038   5.430   3.842  22.605  0.1966 -0.2915  0.0046
11126W        W54039   0.384  13.076  15.322  0.2992  0.2086  0.2930
11127W        W54040   5.630  12.589  24.607  0.0274 -0.1145  0.0946
11128W        W54041  31.283  16.858  29.593 -0.0113  0.2035  0.4278
11129W        W54042  30.302  11.290  14.275 -0.0055  0.1352  0.1445
11130W        W54043   2.174  12.543  17.783 -0.1365  0.1548 -0.2223
11131W        W54044   2.589  25.054  20.729  0.0809 -0.2852 -0.0985
11132W        W54045   4.395  21.109  21.985 -0.1087  0.0110  0.0616
11133W        W54046  12.298  16.230  12.928  0.0692 -0.0800 -0.0509
11134W        W54047   5.576   7.945  25.597  0.1067  0.0494  0.4107
11135W        W54048   2.887  16.356  16.064  0.4831  0.4720 -0.0713
11136W        W54049  30.895  24.350  27.593 -0.0634 -0.2213 -0.0623
11137W        W54050   3.287  10.692  20.084 -0.0598  0.1882 -0.0054
11138W        W54051   0.957  12.071  20.137 -0.0180 -0.0916  0.0097
11139W        W54052   2.356  15.362  13.903  0.3115  0.1985  0.2051
11140W        W54053  33.230  22.606  13.335 -0.2374  0.3298 -0.4297
11141W        W54054   6.500   3.639  18.953  0.0801  0.1248  0.0116
11142W        W54055   0.141  23.627  23.986 -0.0908 -0.1652  0.0327
11143W        W54056  10.644  17.143  23.810  0.3269 -0.0718  0.0082
11144W        W54057  13.827  23.808  23.603 -0.1955  0.2773 -0.2103
11145W        W54058   5.640  18.459  23.646 -0.0258 -0.1460  0.0678
11146W        W54059  28.258   9.975  22.212  0.1732 -0.1454  0.1140
11147W        W54060   3.121   9.495  22.809  0.1180  0.1782  0.0032
11148W        W54061   7.648  12.904  16.582 -0.1433 -0.0026  0.2772
11149W        W54062  29.952   8.966  28.806 -0.0510  0.4100 -0.3875
11150W        W54063   4.569  19.977  14.380  0.2861  0.0940 -0.1120
11151W        W54064  32.681   6.024  19.111  0.0257 -0.0513  0.0837
11152W        W54065   7.468  18.247   5.470 -0.1017 -0.1001 -0.1027
11153W        W54066  30.981  10.253  16.919  0.1804 -0.1295  0.1104
11154W        W54067   1.982  25.557  15.639  0.0731  0.0562  0.3985
11155W        W54068   1.342  17.436  18.497 -0.0606  0.0627  0.0801
11156W        W54069  34.121  25.295  19.090 -0.0800 -0.0797 -0.0623
11157W        W54070  26.062  22.403   2.065 -0.1530  0.2423 -0.4068
11158W        W54071   4.111  14.801  20.442  0.0299  0.0696 -0.2078
11159W        W54072   0.539  10.919  21.922  0.1453  0.0982  0.0488
11160W        W54073   4.537  27.047  19.175  0.0738  0.0558  0.2015
11161W        W54074   7.578  15.987   2.974  0.2374  0.0893 -0.0825
11162W        W54075   3.481  15.548  23.294 -0.0186 -0.1703 -0.1604
11163W        W54076   1.619  14.109  15.927 -0.1280 -0.1296 -0.1894
11164W        W54077   4.034  19.342   3.095 -0.0344 -0.0227 -0.4302
11165W        W54078  19.856  25.996  19.897 -0.0604  0.0703  0.1276
11166W        W54079   3.520  12.273  25.835 -0.2778  0.0648  0.1753
11167W        W54080   3.519  16.120  23.477 -0.0415 -0.2884 -0.1183
11168W        W54081   7.256  29.046  24.515  0.1552 -0.1181  0.3360
11169W        W54082  33.511  20.390  17.904 -0.1241  0.1368 -0.0083
11170W        W54083   0.365   4.991  19.910 -0.2507 -0.0172  0.3536
11171W        W54084  33.161  18.916  16.352  0.2363 -0.1898 -0.0095
11172W        W54085  32.946  14.035  23.201 -0.2864 -0.0810 -0.1855
11173W        W54086  19.215  18.761  25.966  0.0211  0.2761  0.1529
11174W        W54087   0.281  12.869  20.110  0.1430 -0.3406 -0.2301
11175W        W54088  10.259  18.563  28.942  0.1530 -0.3673 -0.0134
11176W        W54089  27.603  15.601   9.844  0.0701  0.1889  0.4773
11177W        W54090  13.030  24.190  17.138  0.2327  0.0286 -0.1066
11178W        W54091   2.406  13.881  18.757  0.0657  0.1362  0.1049
11179W        W54092   1.342  32.212  16.015 -0.3220  0.2494  0.1118
11180W        W54093   6.300  16.519  28.231 -0.1132  0.2435  0.1300
11181W        W54094   2.515  14.818  19.586 -0.1433 -0.0093  0.0475
11182W        W54095  10.293  20.058  13.312  0.0335  0.4896  0.1744
11183W        W54096  32.960  29.051   0.667 -0.5043  0.3760 -0.0254
11184W        W54097   2.207  14.829  23.617  0.0130  0.2590 -0.0107
11185W        W54098  31.551  26.066  14.419  0.0456 -0.3339 -0.0191
11186W        W54099   5.702  21.044  27.021  0.1782 -0.3307 -0.1886
11187W        W54100   5.136  18.467  23.840 -0.1223  0.1460  0.0265
11188W        W54101  23.914  15.166  17.479  0.0434 -0.0817  0.0301
11189W        W54102   3.548  10.109  25.618 -0.0852  0.3636 -0.1452
11190W        W54103  12.635  14.699  26.963  0.0141 -0.3365  0.1230
11191W        W54104  17.959  26.509  28.326  0.1404 -0.0642  0.2907
11192W        W54105   1.178  15.429  14.342  0.0286 -0.1980  0.0044
11193W        W54106  33.056  11.486  21.048 -0.2175 -0.1121  0.0681
11194W        W54107  31.988  14.056  27.233  0.0279  0.2090 -0.0592
11195W        W54108   2.530  12.863  21.297 -0.0517 -0.2037 -0.1255
11196W        W54109   5.550  15.589  29.406  0.0028  0.0268  0.1342
11197W        W54110  25.079  15.785  20.646  0.3208 -0.2497 -0.3372
11198W        W54111  15.052  27.263  22.634 -0.0357  0.2305  0.0764
11199W        W54112  14.465  23.484  17.831  0.0803 -0.1129 -0.1464
11200W        W54113  30.376  23.807  20.644 -0.0070 -0.1348  0.5377
11201W        W54114  15.031  10.924  13.725 -0.0117 -0.0956  0.2247
11202W        W54115   2.993  26.385  17.061 -0.0429 -0.0520 -0.1993
11203W        W54116  29.600  18.138  15.965 -0.1784 -0.0543  0.0109
11204W        W54117  26.586  32.039  16.000  0.1506  0.2319  0.0426
11205W        W54118   2.373  26.359  25.999 -0.1725  0.0965  0.0371
11206W        W54119  11.580   9.386  24.987 -0.0521 -0.3089  0.1586
11207W        W54120   7.892  27.255  18.876  0.1893  0.2261 -0.0251
11208W        W54121   4.694  15.656  21.138 -0.3006  0.4184 -0.0301
11209W        W54122  33.784  17.727  18.756 -0.1824 -0.3040  0.2087
11210W        W54123   2.431   8.411  20.099 -0.1217 -0.0198  0.1912
11211W        W54124  14.616  20.541  13.988  0.0819  0.1827 -0.0728
11212W        W54125   1.405  13.657  19.397  0.2002 -0.0452 -0.3405
11213W        W54126   8.019  14.759  22.422 -0.2132 -0.1008 -0.1345
11214W        W54127   2.613  22.074  20.201  0.1068 -0.0090 -0.0386
11215W        W54128  32.798  18.577  22.760  0.2115  0.0145 -0.1894
11216W        W54129  32.910   9.849  15.562 -0.0719 -0.0193  0.2264
11217W        W54130   3.185  19.135  21.809 -0.0635 -0.0247 -0.0506
11218W        W54131   0.344  20.260  24.153 -0.2957  0.0458  0.3298
11219W        W54132   4.447  15.528  14.854  0.1557  0.0981  0.2457
11220W        W54133  32.959  15.255   0.540  0.1081  0.0858 -0.1471
11221W        W54134  31.142  15.328  19.078  0.2518 -0.4152 -0.1528
11222W        W54135   9.118  14.182  20.403 -0.0671  0.1238 -0.0835
11223W        W54136   2.120  17.533  16.583  0.0857  0.0172 -0.1830
11224W        W54137  30.545  13.078  18.584  0.0138  0.2352 -0.1439
11225W        W54138  27.792  10.337  16.619  0.4270 -0.1057  0.0128
11226W        W54139  33.492   7.247  16.058 -0.0271  0.1046 -0.2482
11227W        W54140   6.996  13.377   1.569  0.0108  0.3623 -0.2196
11228W        W54141  32.715  11.659  20.685  0.0883  0.3408  0.2462
11229W        W54142  33.292  12.258  17.311 -0.1870 -0.2192 -0.3836
11230W        W54143   1.490   7.602  25.556  0.1190 -0.1347  0.2199
11231W        W54144  12.686  17.292  22.028  0.0882  0.3002 -0.2009
11232W        W54145   1.772   4.574  19.338 -0.0741 -0.2172  0.2737
11233W        W54146  25.081   8.966  26.675  0.0370  0.3676 -0.2753
11234W        W54147   3.941  12.646  24.291  0.2531 -0.0773 -0.3443
11235W        W54148  34.180  22.877  18.482  0.0332  0.1153  0.1593
11236W        W54149  10.919  22.114  16.897 -0.0613 -0.2348 -0.1053
11237W        W54150   3.994  18.750  20.472  0.2023  0.1914  0.1307
11238W        W54151   8.932  17.300  22.318  0.2534  0.0858 -0.1498
11239W        W54152  28.617  19.144  14.034 -0.3710 -0.0199  0.1365
11240W        W54153   0.912  19.398  18.248 -0.0239 -0.0665  0.2167
11241W        W54154   4.138  32.480  20.303  0.0924 -0.1461 -0.0313
11242W        W54155  31.785  22.306  18.947  0.2991  0.5046  0.0615
11243W        W54156   0.981  21.599  17.094 -0.0212 -0.0899 -0.1020
11244W        W54157   2.357  17.621  27.228  0.3735 -0.2257 -0.3809
11245W        W54158   6.720  11.441  20.058 -0.1347  0.2286 -0.0728
11246W        W54159   6.284   7.421  25.489 -0.0860 -0.3363  0.2701
11247W        W54160  20.966  13.995  13.201 -0.1308 -0.1847  0.2047
11248W        W54161  10.013   7.500  16.968  0.1122 -0.0565  0.0088
11249W        W54162   3.310  21.288  15.714  0.2057  0.0872  0.1910
11250W        W54163   6.052  19.037  18.794 -0.2337 -0.1685  0.2325
11251W        W54164   9.898  15.297  19.205 -0.0822 -0.1325  0.0200
11252W        W54165   2.354  20.525  24.502 -0.6082 -0.1174 -0.1255
11253W        W54166   4.668  11.765  21.476  0.2625 -0.0189  0.4993
11254W        W54167  31.219  12.905  21.780  0.2560 -0.3269  0.1788
11255W        W54168   8.671  21.321  16.631  0.0304  0.1837 -0.2028
11256W        W54169  19.591   9.192  14.395  0.1319  0.0888  0.2064
11257W        W54170   1.583   8.889   1.327 -0.3072  0.0625  0.2038
11258W        W54171  33.534  15.795  16.527  0.3309  0.3078 -0.1665
11259W        W54172   6.366  14.868  19.277  0.1742  0.0410 -0.2848
11260W        W54173  26.841  14.227  22.539  0.1780 -0.1335 -0.1219
11261W        W54174   5.254  26.875  17.474  0.0402  0.0383  0.2641
11262W        W54175   7.636  11.221  15.326  0.3630  0.1154 -0.1900
11263W        W54176   1.517   6.700  17.374 -0.0212 -0.0256 -0.1131
11264W        W54177  30.388  13.796  24.067  0.1832 -0.1045 -0.0077
11265W        W54178  33.255  18.680  20.744 -0.1168 -0.2137 -0.1375
11266W        W54179  11.804  19.456  12.426  0.3938  0.3786 -0.0902
11267W        W54180   9.750  12.274  20.273  0.1756 -0.2101  0.2287
11268W        W54181   8.225  28.247  25.024  0.1286 -0.0324 -0.1636
11269W        W54182  31.830  15.907  17.312  0.0597 -0.0264 -0.0966
11270W        W54183   3.937  14.109  21.324  0.2699  0.1581 -0.0433
11271W        W54184  34.155  13.061  23.147  0.0422 -0.2219  0.0534
11272W        W54185   7.363  28.244  22.587  0.1747 -0.2660 -0.1912
11273W        W54186  29.051   9.351   0.125 -0.0198 -0.3279  0.1919
11274W        W54187  33.972  14.994  20.665  0.0453  0.0948 -0.1874
11275W        W54188   3.562  24.547   0.323 -0.0982  0.2031 -0.2696
11276W        W54189  11.789  14.194  16.196  0.0098 -0.0649 -0.6024
11277W        W54190  12.220  22.777  15.023 -0.1325 -0.0375 -0.0582
11278W        W54191  33.771   8.154  26.421  0.2044  0.0736 -0.0804
11279W        W54192  26.587  24.549  14.516  0.1595 -0.2729  0.4904
11280W        W54193   2.152  20.271  20.373 -0.4041 -0.1484 -0.0874
11281W        W54194  25.566  22.888  27.955 -0.1619 -0.0608 -0.0204
11282W        W54195   8.306   5.666  19.427 -0.2600 -0.1109 -0.3529
11283W        W54196   5.510  15.442  20.068 -0.0651 -0.0937 -0.2102
11284W        W54197   8.359   6.497  20.747 -0.2816 -0.1441  0.2229
11285W        W54198  33.548  33.083  18.661  0.0461  0.2979  0.0977
11286W        W54199  34.302  28.560  14.890 -0.0611  0.0978 -0.1313
11287W        W54200   5.642  10.571  24.715 -0.3286  0.0025  0.3579
11288W        W54201  29.561  17.874  20.417 -0.0269  0.1857 -0.0825
11289W        W54202   0.497  15.152  22.183  0.0315 -0.1312 -0.2280
11290W        W54203   2.558  13.468  20.091  0.2021 -0.1335 -0.0230
11291W        W54204  30.914  13.631  23.547 -0.2791  0.0508 -0.0855
11292W        W54205   2.472  18.608  15.959 -0.2608 -0.0364  0.2161
11293W        W54206   4.350  13.688  26.435  0.1580 -0.2643 -0.0366
11294W        W54207   4.527  15.028  27.299 -0.0689  0.2551  0.2321
11295W        W54208  32.587  21.021  15.219 -0.0436  0.0454  0.0639
11296W        W54209   2.067  10.062  16.073  0.1714  0.1314 -0.0922
11297W        W54210   5.891  13.260  18.672  0.0049  0.2343  0.0789
11298W        W54211   4.562  10.750  22.942 -0.1248 -0.0022  0.1438
11299W        W54212  27.314  15.973  25.104 -0.3297 -0.0660  0.1270
11300W        W54213   0.648   5.980  23.647 -0.1762 -0.0643 -0.0347
11301W        W54214  33.969  14.742  15.350  0.2142 -0.1078 -0.4650
11302W        W54215  32.697  15.618  17.115 -0.4580 -0.1550  0.2723
11303W        W54216   1.671  13.037  19.439 -0.0937 -0.2548  0.1978
11304W        W54217  30.336  19.018  22.361  0.1303 -0.0513  0.1596
11305W        W54218   0.483   8.673  17.243 -0.2315  0.0295 -0.0909
11306W        W54219  18.526  16.695  12.831  0.1844 -0.3653  0.1825
11307W        W54220  27.538  16.692  22.167 -0.2350  0.0267  0.1295
11308W        W54221  31.832  20.738  28.958 -0.1957  0.0377  0.1735
11309W        W54222   9.934  17.275  17.988  0.1465 -0.1713 -0.1863
11310W        W54223   1.727  29.338  15.317 -0.0884  0.1444  0.2439
11311W        W54224  26.412  28.890  28.462 -0.0482  0.0530  0.1401
11312W        W54225   3.032  15.384  29.642 -0.0495  0.1159 -0.0516
11313W        W54226   0.713  16.499  20.531 -0.1443  0.0102 -0.2364
11314W        W54227   8.440  17.203  26.725  0.0644 -0.1514 -0.0754
11315W        W54228   2.954  16.535  27.188 -0.2424 -0.1656  0.0396
11316W        W54229   0.980  14.073  21.015 -0.1273  0.0771  0.0208
11317W        W54230   4.262  33.802  16.325  0.3481  0.2088 -0.0569
11318W        W54231   7.459  20.296  29.190  0.2305  0.1252 -0.0001
11319W        W54232  31.065   9.603  22.529  0.1314  0.2095 -0.0625
11320W        W54233  34.220  16.332  18.231  0.0105  0.0343  0.0747
11321W        W54234  10.640  15.289  18.641  0.1017  0.0818  0.1700
11322W        W54235  10.117  13.818  26.957 -0.3345 -0.0201  0.1203
11323W        W54236   0.976  12.888  15.790 -0.2920  0.2425 -0.1742
11324W        W54237   2.270  12.583  25.046  0.2628 -0.0118  0.1619
11325W        W54238  11.508  19.636  24.887  0.1899  0.2842  0.1276
11326W        W54239   3.103  20.277  23.593 -0.0331 -0.1068  0.2762
11327W        W54240   1.445  29.196  19.080 -0.3571  0.0024  0.1376
11328W        W54241  29.748  19.915  14.951 -0.0269  0.1532 -0.0011
11329W        W54242  18.549  13.660  16.115  0.0755 -0.1006 -0.2100
11330W        W54243  12.072  14.238  16.599  0.2756 -0.0184  0.0167
11331W        W54244   1.725  13.773  24.222  0.0340  0.1239  0.3261
11332W        W54245   7.355  12.718  16.935  0.2329 -0.3392 -0.3435
11333W        W54246   2.276  14.756   2.194 -0.3450  0.2779 -0.0142
11334W        W54247   8.908  20.203  19.272  0.0921 -0.1928 -0.2113
11335W        W54248  10.796  15.504  20.015  0.0776 -0.3032  0.0703
11336W        W54249   3.417  12.258  16.526  0.1782 -0.1209 -0.1683
11337W        W54250   2.963  16.359  20.949 -0.2118  0.0549 -0.0152
11338W        W54251   2.064  22.947  28.741  0.0691 -0.1880 -0.3624
11339W        W54252  10.535  12.292  24.453  0.0059 -0.2049  0.3105
11340W        W54253  22.245  14.268  24.016  0.2240  0.0862  0.0522
11341W        W54254  29.441  19.378  25.962 -0.2185  0.1598  0.0274
11342W        W54255   5.485  13.169  19.078  0.0226  0.2688 -0.0350
11343W        W54256   6.786  21.254  16.995  0.1459 -0.0447 -0.0980
11344W        W54257   7.713  22.391  22.059  0.1167 -0.0379 -0.2023
11345W        W54258  24.862  31.662  25.610  0.3686 -0.1895  0.1411
11346W        W54259  15.009  12.672  19.338  0.0994  0.1272 -0.1620
11347W        W54260  31.928   6.831  19.884  0.0889 -0.0205 -0.1388
11348W        W54261  32.097  23.772  16.860  0.2096  0.2371 -0.1666
11349W        W54262   2.887  25.234  18.384 -0.0521 -0.2028 -0.1134
11350W        W54263   2.955  14.757  18.812  0.2825  0.1015 -0.1733
11351W        W54264   5.733  21.718  23.058 -0.2861  0.0246  0.0777
11352W        W54265   2.893  20.859  16.085 -0.3502  0.1223 -0.0891
11353W        W54266   8.178  13.010  16.559 -0.0663  0.0595 -0.0230
11354W        W54267  10.651  24.249  21.622 -0.0186 -0.1550 -0.0631
11355W        W54268   5.507  14.405  15.074  0.2759  0.0882  0.2240
11356W        W54269  22.951  25.625  27.527 -0.0633  0.3786  0.3505
11357W        W54270  32.523  16.944  24.862  0.2103  0.0038  0.3062
11358W        W54271   3.526   3.824  29.764  0.1854  0.0378 -0.1242
11359W        W54272   4.404  25.931  15.242 -0.1024  0.0232 -0.3139
11360W        W54273  31.338  21.562  16.696 -0.0709  0.0178  0.0053
11361W        W54274  32.421  23.704  13.937 -0.0480  0.0913  0.0269
11362W        W54275  33.517  19.419  14.491  0.0181  0.1292 -0.0606
11363W        W54276  30.997  14.557  23.095  0.0397 -0.0966  0.4051
11364W        W54277   7.276  18.600   0.538 -0.2173  0.2722  0.0793
11365W        W54278   8.626   6.394  19.453 -0.0447 -0.3122  0.1113
11366W        W54279   4.831  11.747  20.357 -0.1578 -0.1592  0.0006
11367W        W54280   2.995  14.174  13.762 -0.1681  0.1781 -0.1378
11368W        W54281   2.470  11.843  29.691 -0.1108  0.5561  0.3630
11369W        W54282  25.237  22.189  23.192  0.0669 -0.0277  0.1166
11370W        W54283  27.029  20.788  22.553  0.0597 -0.0183  0.1087
11371W        W54284   6.766  21.433  16.505 -0.0425  0.4309  0.0093
11372W        W54285   8.261  13.633  24.308  0.0031  0.0909  0.1254
11373W        W54286   3.832  23.751  23.357  0.2969 -0.0504 -0.0332
11374W        W54287  14.913  13.151  17.493  0.1794 -0.2231  0.0360
11375W        W54288  24.481   7.984  24.199 -0.0255  0.0962  0.2406
11376W        W54289  34.447  27.418  28.006  0.1672  0.0301 -0.0262
11377W        W54290  32.219  22.637  17.263 -0.0951  0.3601 -0.0442
11378W        W54291   2.418  10.754  24.283  0.0615  0.0698 -0.2690
11379W        W54292  26.397  20.463  25.888 -0.1360 -0.1631 -0.2995
11380W        W54293   6.916  20.215  15.022  0.0696 -0.2163  0.1117
11381W        W54294   7.515  25.260  23.184 -0.1386 -0.1752 -0.1841
11382W        W54295   9.492  11.574  24.831  0.1184 -0.2017 -0.3117
11383W        W54296   2.803  26.723  16.741 -0.3026  0.1182  0.2446
11384W        W54297  10.676   6.725  22.920 -0.0881 -0.0111 -0.0318
11385W        W54298   8.685  21.626  17.135 -0.2101 -0.0738  0.2413
11386W        W54299  31.702  14.256  17.038  0.1140 -0.2385  0.1809
11387W        W54300  10.919  13.048  22.964 -0.3205 -0.0240 -0.1290
11388W        W54301   1.045  29.953  23.944  0.0315  0.3276  0.1838
11389W        W54302  32.050  25.955  20.068 -0.1307  0.0365  0.0365
11390W        W54303   7.160  21.068  23.841 -0.0469 -0.0685 -0.0983
11391W        W54304   1.067  14.018  19.134 -0.0602 -0.0086 -0.2431
11392W        W54305  32.311   5.426  16.119  0.2887 -0.1668 -0.1136
11393W        W54306  29.347  18.884  14.852 -0.3832 -0.1664 -0.2615
11394W        W54307   4.598  15.884  14.536 -0.0325  0.0510 -0.0142
11395W        W54308   6.357  13.089  25.306 -0.0148  0.2529 -0.5244
11396W        W54309  33.516  12.943  26.336 -0.0721 -0.0262 -0.0931
11397W        W54310  30.157   6.237  19.296  0.1143  0.0066  0.2715
11398W        W54311   3.268  12.847  15.678  0.0599  0.1171  0.3597
11399W        W54312  30.105  17.206  21.560  0.2265 -0.2306  0.1562
11400W        W54313   3.386   7.221  19.922 -0.0167 -0.0139 -0.3539
11401W        W54314   4.993  19.851  26.890 -0.1589 -0.2447  0.1483
11402W        W54315   3.741  10.876  17.965 -0.2847 -0.4217 -0.2889
11403W        W54316   3.704  22.317  14.189  0.0482  0.2631  0.2785
11404W        W54317  23.889  18.027  25.055  0.0227  0.3256  0.2490
11405W        W54318   0.494  19.655  14.428 -0.0777  0.0569 -0.1255
11406W        W54319  32.954  13.501  21.689 -0.4184  0.2114  0.2742
11407W        W54320   6.117  20.654  17.570  0.0688 -0.0093  0.1925
11408W        W54321  10.169  18.593  14.486  0.0448 -0.2766  0.0122
11409W        W54322   4.572  25.085  16.983  0.0144  0.1165 -0.0524
11410W        W54323   0.006  10.739  20.722 -0.1324  0.0103 -0.0426
11411W        W54324   2.003  13.440  23.168 -0.3028  0.1252 -0.5850
11412W        W54325  31.613  14.054   0.488 -0.0429 -0.0396  0.1030
11413W        W54326   6.827   7.257  27.120 -0.1951 -0.0311  0.1320
11414W        W54327   1.045  29.264  19.888  0.1211 -0.0814  0.0594
11415W        W54328  11.871  22.122   0.495 -0.1995 -0.0960 -0.0980
11416W        W54329  32.086  11.485  17.660 -0.3072  0.2908 -0.0303
11417W        W54330   2.337  14.283  16.706 -0.0018  0.0271 -0.4676
11418W        W54331  30.480  24.114  20.120 -0.2123 -0.0892 -0.0376
11419W        W54332  33.780  27.606  14.254  0.1574 -0.1575 -0.0806
11420W        W54333  11.077  17.309  19.982 -0.1286 -0.1109  0.1177
11421W        W54334  29.740  12.535  23.411  0.0028 -0.0057  0.0742
11422W        W54335  16.739  20.687  17.358  0.2182  0.0539  0.3227
11423W        W54336   5.743  20.481  13.364  0.4873 -0.2501 -0.0231
11424W        W54337   2.569  15.447  19.462  0.0076 -0.0339  0.2068
11425W        W54338   7.397  11.103  27.958 -0.2888  0.0888  0.1445
11426W        W54339   0.344  14.733  15.332  0.0254  0.0685  0.3048
11427W        W54340  18.779  10.951  14.455 -0.0811  0.1519 -0.0617
11428W        W54341  24.147  30.124   0.776 -0.1961  0.0482 -0.1703
11429W        W54342  10.039  12.605  18.763  0.3565  0.3240  0.1056
11430W        W54343  31.106  11.159  20.014  0.0963  0.0208  0.3075
11431W        W54344   5.206  25.851  24.031 -0.1306  0.2262 -0.4359
11432W        W54345   8.796  20.971  21.288  0.1832  0.0528 -0.3529
11433W        W54346   8.712  14.557  13.710  0.0290  0.1997 -0.0871
11434W        W54347   2.764  12.979  28.746 -0.0691  0.1855  0.1585
11435W        W54348  34.431  24.800  22.551 -0.1458  0.3907  0.0978
11436W        W54349   7.797  17.191   1.290  0.0265  0.1561 -0.0087
11437W        W54350   7.999   8.801  17.711  0.1853 -0.1862 -0.2712
11438W        W54351  20.894  18.002  28.771  0.1545  0.1791  0.3535
11439W        W54352   4.425  22.677  26.945  0.2368  0.1268 -0.0717
11440W        W54353   2.197  12.159  17.149  0.1860  0.3347 -0.0301
11441W        W54354  11.835  15.926  20.427  0.0300  0.1161  0.2455
11442W        W54355   4.593  20.240  26.061 -0.1717 -0.1259  0.1423
11443W        W54356   0.836  12.613  18.582 -0.2172 -0.0921 -0.3698
11444W        W54357  34.266  13.533  15.937  0.1530  0.3527  0.0151
11445W        W54358  20.079  18.931  12.418 -0.0810 -0.3726 -0.2449
11446W        W54359  34.334  22.368  21.748 -0.2023 -0.0790  0.0416
11447W        W54360  30.644  29.531   1.793  0.0460  0.1490 -0.1728
11448W        W54361  32.972  17.771  28.148 -0.2511 -0.0849 -0.3173
11449W        W54362   1.382   8.887  28.029  0.1564  0.2751  0.0263
11450W        W54363   9.195  24.811   2.167 -0.3043  0.0910 -0.2653
11451W        W54364   5.350   9.454  28.015  0.0987  0.0819  0.0860
11452W        W54365  31.201  23.508  23.719 -0.2246  0.1175  0.0331
11453W        W54366   1.593  20.899   4.295 -0.1409 -0.4372  0.0036
11454W        W54367   0.036  12.464  19.939  0.1395  0.0614  0.1819
11455W        W54368  31.537   8.162  17.962 -0.2488 -0.2002 -0.1445
11456W        W54369   4.898  25.263  21.063  0.0958 -0.2747 -0.2502
11457W        W54370  13.590  28.494  29.056  0.0050 -0.0249  0.1681
11458W        W54371   5.527  18.612  15.700 -0.2484 -0.1854 -0.0737
11459W        W54372   0.887  14.706  28.298  0.2637 -0.0272 -0.0866
11460W        W54373   4.655  19.287   1.489 -0.1489  0.3556 -0.2672
11461W        W54374  27.741  30.836  28.263 -0.1211  0.2047  0.2036
11462W        W54375  33.945  17.867  19.325  0.2742 -0.0285  0.2128
11463W        W54376   9.876  20.562   0.525 -0.0281  0.2708 -0.1885
11464W        W54377   5.373  22.998  20.204  0.1622  0.2111 -0.2249
11465W        W54378   3.630  16.984  20.469 -0.3311  0.3463 -0.1113
11466W        W54379  34.030  20.808  18.937 -0.1348  0.3530 -0.0442
11467W        W54380  30.003  27.132  14.056  0.1431  0.3699  0.1149
11468W        W54381   2.499  16.163   2.685  0.2574  0.0254  0.1065
11469W        W54382  31.806  20.484  24.695  0.1173  0.0131 -0.1333
11470W        W54383   1.353  20.887  27.524  0.1007 -0.2300  0.0334
11471W        W54384   3.102  10.054  23.722  0.0964  0.0813 -0.0247
11472W        W54385  32.569   9.478  16.827  0.0181  0.0666 -0.0989
11473W        W54386   4.767  18.880   1.021 -0.1838 -0.0272 -0.3399
11474W        W54387   1.730  18.906  26.413 -0.1632 -0.1978 -0.0044
11475W        W54388  13.583  20.080  20.973  0.1708  0.0729 -0.2015
11476W        W54389   9.692  16.013  29.617  0.1338  0.0496 -0.0622
11477W        W54390  32.139  25.443  19.829 -0.0069  0.0146 -0.1390
11478W        W54391   2.619   8.507  25.447 -0.0869  0.0697 -0.3603
11479W        W54392   5.094   7.397  23.365 -0.1860  0.2228 -0.2471
11480W        W54393   1.055  16.675  21.451 -0.2164  0.1945 -0.0342
11481W        W54394  10.317  16.521  19.065  0.0609  0.1917  0.0440
11482W        W54395  34.474  27.703   1.980 -0.2354  0.0281  0.0575
11483W        W54396   5.532   7.339  23.961  0.2033  0.2543 -0.1319
11484W        W54397   2.717  13.258  15.015 -0.4601  0.1778 -0.1118
11485W        W54398  32.483  26.219  16.616 -0.0857  0.0670  0.2223
11486W        W54399   1.998  20.214  16.759  0.2287  0.5098 -0.1437
11487W        W54400   1.698  18.709   4.832  0.0569 -0.0522 -0.0094
11488W        W54401   3.937  16.859  15.166 -0.0435  0.0550  0.1728
11489W        W54402  28.893  21.346  28.424  0.1813 -0.0809  0.2834
11490W        W54403  10.358  12.452  19.317  0.0652 -0.2059 -0.2588
11491W        W54404   1.768  17.356  16.264 -0.1337 -0.2157 -0.2506
11492W        W54405  10.066  19.842  26.054  0.4577 -0.1425 -0.0059
11493W        W54406  31.883  12.962  21.166 -0.1033 -0.0972  0.4069
11494W        W54407   5.725  16.601   0.796 -0.4890  0.3183 -0.0636
11495W        W54408  32.560   4.516  25.404  0.2036  0.2454 -0.0190
11496W        W54409  34.020  10.257  27.776  0.1185  0.0779  0.0742
11497W        W54410   4.176  25.536  14.457  0.1557 -0.2111  0.0256
11498W        W54411  33.131  15.474   1.018  0.1627 -0.0102  0.0119
11499W        W54412   2.384  12.088  27.774 -0.0282  0.1228  0.0759
11500W        W54413   8.449  15.960  27.657 -0.0941 -0.0430  0.1181
11501W        W54414   8.047  16.165  25.996 -0.0030 -0.1832 -0.0656
11502W        W54415   5.551  13.947  29.095 -0.0682  0.0675 -0.4008
11503W        W54416  33.216  25.143   3.196  0.3106 -0.3254 -0.1239
11504W        W54417  33.424  16.517  20.462  0.1071  0.0623 -0.2737
11505W        W54418   0.329  21.521  21.345  0.0598  0.1404  0.0880
11506W        W54419   5.287  12.302  15.095 -0.0133 -0.0509  0.0065
11507W        W54420  30.624  12.043  24.783  0.1195 -0.1048  0.1827
11508W        W54421   1.990  20.830  22.441  0.1159 -0.0387 -0.1821
11509W        W54422  15.408  10.419   2.092  0.4304 -0.0127 -0.1856
11510W        W54423  32.627   6.626  25.555  0.0746  0.0489  0.0212
11511W        W54424   1.725  24.699  23.089 -0.2689  0.2211 -0.1340
11512W        W54425  30.186  12.237  17.647 -0.0872 -0.1472 -0.1356
11513W        W54426   3.611   9.313  21.543 -0.0798  0.2659 -0.1707
11514W        W54427   4.601  17.899  19.123  0.2079 -0.1757  0.0241
11515W        W54428   5.518  22.441  29.435  0.0863 -0.1921  0.0994
11516W        W54429   0.596  18.376  17.623  0.5333  0.4811  0.0213
11517W        W54430   0.665  20.078  17.271 -0.2480  0.0447  0.1048
11518W        W54431   7.402  12.290  25.725  0.0974 -0.1646 -0.0505
11519W        W54432  26.728  23.099  27.268  0.4874 -0.1049 -0.2920
11520W        W54433  29.163   6.326  21.798 -0.0494 -0.0922  0.0762
11521W        W54434   0.234  15.328  27.842  0.0195  0.0648 -0.1813
11522W        W54435  34.080  15.923  17.437  0.0690 -0.4779  0.0235
11523W        W54436   5.685  17.205  23.843  0.1112  0.2808  0.0264
11524W        W54437  11.110  15.381  15.867 -0.0113  0.3684 -0.0475
11525W        W54438   1.670  16.663  26.446  0.1387  0.4026  0.2479
11526W        W54439  32.264   6.476   2.279  0.0135 -0.2900  0.2939
11527W        W54440  25.618   2.753   2.391  0.2381  0.0361 -0.1477
11528W        W54441  28.473  17.874   1.047 -0.0572 -0.0780 -0.0846
11529W        W54442   0.630  10.080  27.713 -0.0510  0.1629  0.0000
11530W        W54443   6.130  16.835  23.723  0.0232  0.1432 -0.1293
11531W        W54444  18.234   9.070  24.135 -0.0072  0.3297  0.0707
11532W        W54445  32.406  24.907  25.693  0.1237  0.2334  0.1462
11533W        W54446   9.494  22.157   1.486  0.0418 -0.0480 -0.0284
11534W        W54447   1.107  21.419  23.447  0.3431 -0.4446 -0.1802
11535W        W54448  27.045  16.272  17.911  0.0638  0.2346 -0.2006
11536W        W54449   1.906  17.854  24.603 -0.2390 -0.2449  0.3825
11537W        W54450  11.779   5.265  17.058 -0.1843  0.3776  0.1861
11538W        W54451   6.418  17.561  28.816 -0.1122 -0.1484 -0.0709
11539W        W54452   4.139  11.718  19.927  0.3566  0.1824  0.0224
11540W        W54453   8.543  17.517  19.625  0.1165  0.2691 -0.2641
11541W        W54454  33.644  19.863  26.809 -0.2352  0.2682  0.0159
11542W        W54455  27.626  17.486  18.271 -0.1432 -0.0545  0.1077
11543W        W54456  25.376  15.274  22.773 -0.1001 -0.1786 -0.0185
11544W        W54457  26.415  30.006  20.284 -0.3832  0.0616 -0.4547
11545W        W54458   9.343  13.083  28.949 -0.3819 -0.0697 -0.1206
11546W        W54459   0.880  22.446  25.645  0.1731 -0.0791 -0.1204
11547W        W54460   2.794  19.916  19.420  0.0221  0.2882 -0.0670
11548W        W54461   3.529  14.253  24.156 -0.0775  0.1199  0.0534
11549W        W54462  30.702  12.238  25.925  0.0412  0.1698  0.0093
11550W        W54463  12.116  19.784  24.920  0.0678  0.2501 -0.0395
11551W        W54464   5.070   9.445   1.645  0.1859 -0.2055 -0.0006
11552W        W54465   3.336  15.254   1.870  0.0956 -0.1103  0.2428
11553W        W54466   3.205  24.879  22.646  0.1788  0.0451 -0.0923
11554W        W54467  10.827  20.921   2.795  0.0786  0.0705  0.2462
11555W        W54468  34.423  13.994  17.076  0.2645  0.0188 -0.1149
11556W        W54469   1.545  10.375  23.849  0.0861 -0.2025 -0.2295
11557W        W54470  17.790   6.430  23.652 -0.1131  0.0077  0.1253
11558W        W54471  18.510  17.499  26.735  0.4672  0.3035 -0.0394
11559W        W54472  25.706  25.538  22.586 -0.0665 -0.0556  0.0251
11560W        W54473   6.114  18.826  23.017 -0.3823  0.0261  0.0451
11561W        W54474   1.772  13.787  20.026  0.0888 -0.2519 -0.1638
11562W        W54475   5.987  21.846   7.858 -0.3159 -0.1112 -0.0276
11563W        W54476   8.964  30.479  20.687 -0.0479 -0.0243 -0.1030
11564W        W54477   0.570  27.961  17.018 -0.0106 -0.2361  0.1707
11565W        W54478  31.422  14.262  23.122  0.1654 -0.2562  0.0328
11566W        W54479   4.171  21.787  16.192 -0.1694  0.0030  0.1144
11567W        W54480   3.865  16.601  19.460 -0.3387  0.0228  0.1986
11568W        W54481  10.959  23.103   2.428  0.2023 -0.2039 -0.0691
11569W        W54482   4.001  10.310  25.457  0.2128  0.1849 -0.1276
11570W        W54483  30.938  28.393  23.332 -0.2326 -0.2098  0.2219
11571W        W54484   4.953  20.254  29.575 -0.0922  0.1858  0.1593
11572W        W54485  20.337  28.833  26.038  0.0898 -0.1439  0.0742
11573W        W54486  32.165  17.803   2.765  0.0610  0.1170 -0.0936
11574W        W54487   3.731  13.512   0.858 -0.1110  0.3161 -0.2152
11575W        W54488  26.190  20.887  25.534 -0.0400  0.1233 -0.1483
11576W        W54489  33.249  10.157  22.891  0.0233  0.2273  0.2320
11577W        W54490   0.180  25.136  15.037  0.0792  0.2986  0.1581
11578W        W54491  28.124  22.503  27.336 -0.0766  0.1984  0.0994
11579W        W54492  31.584  10.649  24.122 -0.1802 -0.0981 -0.1274
11580W        W54493   8.183  13.392  24.751  0.0639  0.2072  0.4115
11581W        W54494  27.392  24.663  18.729 -0.0948  0.0178  0.5356
11582W        W54495   5.663  25.515  20.372 -0.0166 -0.0003  0.1071
11583W        W54496   2.973  14.678  13.556 -0.0251  0.3679  0.0267
11584W        W54497   5.713  19.586  19.566 -0.0858  0.1251 -0.1481
11585W        W54498  20.511  17.741  27.512 -0.0328 -0.0855  0.2265
11586W        W54499   5.398  14.304   6.910  0.1954 -0.1598 -0.2223
11587W        W54500   5.924  16.149  20.697 -0.2327 -0.1385 -0.2259
11588W        W54501   2.584  25.081  19.925  0.0878 -0.2054  0.0942
11589W        W54502   2.396  17.314  29.449 -0.0257  0.1498  0.0179
11590W        W54503   5.400  21.771  26.331  0.3119  0.0475  0.1622
11591W        W54504  10.690  24.725  15.338  0.0609  0.0484 -0.1053
11592W        W54505  30.932  14.159  26.477 -0.0124 -0.1266  0.1034
11593W        W54506   4.981  16.726  14.185 -0.0395 -0.1188  0.1114
11594W        W54507  28.873  25.111  19.786 -0.3666  0.3396 -0.1419
11595W        W54508  27.241  16.161   2.326 -0.0842 -0.3622  0.2728
11596W        W54509   4.029  24.395   1.902  0.2749 -0.0164 -0.0050
11597W        W54510  33.508  21.033  27.961 -0.5146  0.0956  0.1830
11598W        W54511  31.115  19.921  25.818  0.4116 -0.4990 -0.0638
11599W        W54512   8.364   8.330  23.950  0.2909  0.0534  0.1686
11600W        W54513   8.520  23.121  22.355  0.0767 -0.3002 -0.1027
11601W        W54514   2.328  26.259  29.343  0.0706  0.0101  0.1439
11602W        W54515   6.547  20.216  15.540 -0.1397  0.1458 -0.6704
11603W        W54516   0.794  23.322  28.114  0.0716 -0.0567 -0.1042
11604W        W54517  29.438   0.642  26.984  0.1942 -0.0649  0.3734
11605W        W54518  26.481  20.953  24.147  0.1094 -0.0785  0.2442
11606W        W54519  11.984   6.477   0.673 -0.1081  0.0078 -0.0232
11607W        W54520  29.332   8.779  25.409 -0.1772 -0.0951  0.1930
11608W        W54521   2.259  23.999  17.539  0.0914  0.0174 -0.0268
11609W        W54522  31.658  13.022  16.684  0.2399  0.0788 -0.0255
11610W        W54523  15.117  31.119  16.131 -0.1482  0.2289  0.1472
11611W        W54524  32.422  21.548  28.450  0.0112  0.2219 -0.3466
11612W        W54525   5.357  11.463  28.287  0.2441 -0.2531  0.0481
11613W        W54526   9.387  21.249  15.188 -0.0262 -0.4738  0.1211
11614W        W54527  26.837  10.672  22.991  0.0123 -0.1074  0.0509
11615W        W54528   3.050  20.596  29.540 -0.3811  0.0645 -0.3929
11616W        W54529   0.585  10.972  24.532 -0.0395 -0.0124 -0.3395
11617W        W54530   0.789  30.981   4.169  0.0411 -0.1888 -0.1714
11618W        W54531  10.694  22.871  13.598  0.1039  0.1737  0.0391
11619W        W54532   1.963  21.607  26.783 -0.0391  0.0392 -0.1475
11620W        W54533  29.754  10.971  26.471  0.1162  0.0233 -0.1069
11621W        W54534   0.574   5.754  24.109 -0.3319  0.1026  0.1816
11622W        W54535  30.448  16.808  24.967 -0.0757 -0.2781 -0.1489
11623W        W54536   8.328  23.920  14.572  0.2692 -0.3189 -0.0260
11624W        W54537   4.020  20.928  20.270  0.1316  0.0618  0.0429
11625W        W54538   6.312  15.656  18.601  0.0251  0.0120 -0.0112
11626W        W54539   5.371  14.158  28.378  0.4493  0.1903 -0.0261
11627W        W54540  30.565  16.906  22.183 -0.7328 -0.0611 -0.0321
11628W        W54541   3.729   7.362  22.985 -0.2332 -0.0995  0.2036
11629W        W54542  27.659  11.680  23.257 -0.1248  0.2108  0.0628
11630W        W54543   0.694   9.270  26.752  0.0747 -0.1634  0.4306
11631W        W54544  10.345  11.735  24.775  0.0847 -0.2142 -0.2306
11632W        W54545   9.226  14.408  18.644  0.1962  0.0177 -0.2573
11633W        W54546   6.373  10.954   0.450  0.1743 -0.1220 -0.0666
11634W        W54547  10.500  17.644  22.541  0.0886 -0.0888 -0.2443
11635W        W54548  29.730   9.580  24.967  0.1569 -0.2404 -0.2483
11636W        W54549  17.109  13.516  28.305 -0.2598 -0.0237 -0.2376
11637W        W54550   2.759  18.831  18.666  0.0154 -0.2276 -0.2130
11638W        W54551   6.420   6.134  19.542 -0.0533 -0.1406  0.0183
11639W        W54552  31.298  22.417   0.417 -0.0986  0.1863 -0.1179
11640W        W54553   5.791   8.483  18.963  0.3186 -0.2231 -0.1471
11641W        W54554   9.730  22.091  28.969 -0.2809  0.2562  0.3210
11642W        W54555  25.460  25.419  24.342  0.2730 -0.4055 -0.2315
11643W        W54556   1.440  22.285  21.232  0.0507  0.2522 -0.1388
11644W        W54557   1.447  19.539  27.566  0.1400  0.1969 -0.1644
11645W        W54558   5.383  10.345  29.532  0.1328  0.1293  0.2646
11646W        W54559   0.468  31.167  29.298  0.1274 -0.2491 -0.1487
11647W        W54560  34.355  26.798  16.680 -0.0137  0.0274 -0.0079
11648W        W54561  13.588   9.091  25.458 -0.2962 -0.0629  0.0229
11649W        W54562   2.717  16.403  23.792  0.1370 -0.1318  0.1785
11650W        W54563   6.076  15.633  23.743  0.2090  0.1740  0.0161
11651W        W54564  25.809  20.550  20.739 -0.0651 -0.1422  0.2001
11652W        W54565  11.808  15.981  20.926 -0.0704 -0.0352 -0.0342
11653W        W54566   3.041  10.957  21.911 -0.2887 -0.0459 -0.0983
11654W        W54567  29.627  18.781  24.385  0.1798  0.2618 -0.1505
11655W        W54568  32.500  17.866  15.254 -0.3429 -0.0466 -0.5037
11656W        W54569   6.353  25.515  20.652  0.1908 -0.0079  0.4171
11657W        W54570   0.008   4.656  19.474 -0.2361  0.0050 -0.1577
11658W        W54571   8.260  20.009   0.470  0.2596  0.0407 -0.1499
11659W        W54572   7.027  19.644  18.163 -0.1399  0.3143 -0.2882
11660W        W54573  33.910  19.893   0.356 -0.0530 -0.1477 -0.3645
11661W        W54574  13.637  27.374  21.942  0.0529  0.2206  0.2131
11662W        W54575   9.233  15.631  14.973 -0.1128 -0.0248  0.1338
11663W        W54576  16.107  12.809  18.637 -0.0340  0.0035 -0.0500
11664W        W54577   9.925  24.468  26.061  0.0140  0.1429 -0.0166
11665W        W54578  30.885  15.702  17.984  0.0367 -0.0010  0.0354
11666W        W54579  13.427  22.244  20.242  0.2774 -0.1777 -0.1173
11667W        W54580  30.483   0.742  22.371  0.0802 -0.0323  0.3301
11668W        W54581   1.225  12.095  18.509 -0.1393  0.0658 -0.0906
11669W        W54582   6.305  21.239  15.510 -0.0750 -0.3829  0.1093
11670W        W54583   5.823  10.511  22.086  0.0535  0.0409  0.1906
11671W        W54584  32.953  13.715  23.550  0.0919  0.0979  0.2081
11672W        W54585   4.358  24.237   0.984  0.3484  0.3527 -0.1529
11673W        W54586  16.459  11.528  19.467 -0.0106 -0.4177 -0.0703
11674W        W54587  33.009   6.545  21.495 -0.1070 -0.2398  0.1227
11675W        W54588  30.250  22.794  19.449 -0.3468  0.0007 -0.2704
11676W        W54589   3.665  24.661  20.288 -0.3211  0.0282 -0.1876
11677W        W54590   4.525  22.654  23.194  0.2496 -0.1623  0.0155
11678W        W54591   8.589  26.185  14.790  0.2707 -0.0840  0.3524
11679W        W54592  27.904  23.107  16.091  0.0950  0.0130  0.0931
11680W        W54593  31.573   8.001  24.537 -0.2661  0.0252 -0.0122
11681W        W54594  26.596  15.654  26.568 -0.0376 -0.1943 -0.2278
11682W        W54595   2.853  18.065  22.357 -0.2486  0.2761  0.1349
11683W        W54596  12.157  18.713  27.375 -0.0975  0.0895  0.0631
11684W        W54597   5.993  19.316  28.923 -0.1041  0.0338  0.0782
11685W        W54598   9.535  15.932  13.739 -0.0040  0.1018 -0.0174
11686W        W54599   0.743  22.376  26.750  0.2841  0.1126 -0.0215
11687W        W54600  29.481  11.361  21.767 -0.3188 -0.1855  0.1876
11688W        W54601   2.713  26.253  20.457  0.2340  0.1840 -0.0738
11689W        W54602  31.475  19.428  28.475  0.1061 -0.1658 -0.0105
11690W        W54603   7.066  14.848   0.407 -0.0612  0.0130  0.2293
11691W        W54604   3.250  25.607  19.640 -0.0722 -0.0673  0.0858
11692W        W54605   7.614  30.408  18.980 -0.2027 -0.2855 -0.3041
11693W        W54606   4.128   7.166  24.486  0.0540 -0.1529  0.3787
11694W        W54607  26.613   3.012  21.068 -0.1734  0.1324 -0.0261
11695W        W54608  21.823  14.724  26.773  0.2995  0.0921  0.1402
11696W        W54609   2.551  26.936  20.348 -0.0562 -0.1031 -0.0223
11697W        W54610  32.020  18.837  16.373 -0.0187 -0.1082 -0.0866
11698W        W54611   4.910  15.342  20.131  0.0153 -0.0604  0.1047
11699W        W54612   2.828  13.356  22.713 -0.1078  0.0802  0.2667
11700W        W54613  10.804  12.968  14.670  0.0584  0.2509  0.0999
11701W        W54614   5.250  23.412  18.120  0.1559 -0.0441 -0.2189
11702W        W54615  28.562  15.431  23.699 -0.0054 -0.1888 -0.1642
11703W        W54616  32.367  31.726  16.329  0.0377 -0.5114  0.1512
11704W        W54617  33.496  14.471  15.303  0.1899  0.0407 -0.2737
11705W        W54618   5.326  20.532  18.646  0.0931 -0.1037 -0.1184
11706W        W54619   2.305   3.129  21.722 -0.1355 -0.1715 -0.0607
11707W        W54620  34.113  19.802  22.476 -0.1308  0.2260  0.1156
11708W        W54621  32.773  19.632  20.944  0.1798 -0.2453  0.2438
11709W        W54622   7.389  20.548  14.187  0.0593 -0.1075 -0.2367
11710W        W54623  32.910   8.690  17.390  0.0192 -0.3074  0.1952
11711W        W54624  30.644  12.503  17.411  0.3418 -0.1401 -0.1821
11712W        W54625   1.857  17.587   3.844 -0.1615 -0.1063 -0.2372
11713W        W54626   5.939  14.017   7.024 -0.2164  0.1683  0.1362
11714W        W54627   7.348  11.571  21.207 -0.3393  0.0583  0.1041
11715W        W54628   1.823  22.074  29.571  0.1177  0.1049  0.1220
11716W        W54629  23.816  11.270  28.743  0.0255 -0.1183 -0.0481
11717W        W54630  11.255   9.731  28.845 -0.3234 -0.0041 -0.0266
11718W        W54631   5.043   8.150   6.823  0.0673 -0.2628 -0.1844
11719W        W54632  12.500   6.620  23.343  0.1691  0.2102 -0.0451
11720W        W54633  30.755  12.454  21.763  0.3604  0.0263  0.1120
11721W        W54634  29.997  25.127  27.502 -0.1886  0.0964  0.1665
11722W        W54635   0.769  20.622  21.651  0.3499 -0.0524 -0.2332
11723W        W54636  33.477  24.580  21.404  0.1744 -0.1539  0.1828
11724W        W54637  11.763  16.041  19.065 -0.1630  0.2090 -0.0222
11725W        W54638  11.455  15.237  25.904  0.1024  0.0477  0.0678
11726W        W54639   1.859  20.843  24.622 -0.1685  0.2815  0.0578
11727W        W54640  30.675   6.397  19.253 -0.1846 -0.1318  0.0083
11728W        W54641   3.709  17.565   5.643 -0.1590 -0.3191  0.0655
11729W        W54642  21.746  21.033  20.982 -0.1563  0.0154 -0.1558
11730W        W54643   6.681  18.523  16.075  0.0440  0.1135 -0.3252
11731W        W54644   1.163  29.515  19.411 -0.0112 -0.0214 -0.1059
11732W        W54645   8.810  18.162  25.445  0.0447  0.1615 -0.0319
11733W        W54646  33.223  20.728  29.163 -0.0778  0.0008  0.2842
11734W        W54647   2.260  16.450  20.509  0.4744 -0.2380 -0.0460
11735W        W54648   5.684  33.326  27.595 -0.3215 -0.1565  0.2111
11736W        W54649   7.533  15.008  26.349 -0.1709  0.0373 -0.1533
11737W        W54650  32.843   8.144  21.131  0.1741  0.0578  0.1441
11738W        W54651   3.192  27.621  17.483 -0.1299  0.2296  0.2513
11739W        W54652   1.649  14.823  19.885  0.1043  0.1481  0.0848
11740W        W54653  33.431  18.014  21.287  0.2146  0.0752  0.1533
11741W        W54654  27.657  12.580  17.290 -0.1099 -0.2532 -0.2372
11742W        W54655   7.295   9.428  25.937 -0.1494  0.0839 -0.2432
11743W        W54656  33.444  16.292  28.190  0.2034 -0.1106 -0.4312
11744W        W54657  28.850  24.298  28.906 -0.0726  0.1101 -0.0140
11745W        W54658  11.315  18.454  25.901 -0.2425  0.2280  0.1873
11746W        W54659   3.937  16.193  27.873 -0.3456 -0.0826  0.2076
11747W        W54660   9.286  21.288  18.782 -0.2027  0.0776  0.0404
11748W        W54661  30.157  16.642  19.306 -0.2934 -0.2328 -0.1868
11749W        W54662   7.039  24.181  18.487 -0.3353  0.1347  0.1107
11750W        W54663  33.084  19.616  23.516 -0.1088 -0.0928  0.0145
11751W        W54664   2.976  15.966  27.992 -0.2142  0.0702 -0.0408
11752W        W54665  26.271  13.199  20.307 -0.0112  0.1305  0.2649
11753W        W54666   0.336  21.611  25.507 -0.0437 -0.2238  0.0091
11754W        W54667  28.377  24.611  28.615  0.1443  0.2450  0.1380
11755W        W54668   7.457  14.660  21.934  0.2818 -0.1268  0.1092
11756W        W54669  34.285   8.000  18.707 -0.0405  0.0224 -0.0882
11757W        W54670   5.688  21.499  25.310 -0.0925 -0.0032  0.1855
11758W        W54671   5.822  13.285  20.894 -0.0508  0.0298  0.2427
11759W        W54672  33.773   6.457  15.799  0.1407  0.1725 -0.1372
11760W        W54673  10.784  16.381  25.615  0.3912  0.4166 -0.1374
11761W        W54674   1.107  20.467  29.213  0.1651  0.0420 -0.1236
11762W        W54675   1.315  28.070   1.689  0.1213  0.1027  0.0388
11763W        W54676  34.056  15.368  22.344  0.2397 -0.1253  0.0355
11764W        W54677   0.999  11.016  29.428 -0.1637 -0.1768  0.0839
11765W        W54678  15.533  12.592  29.632  0.2162 -0.0552 -0.2529
11766W        W54679   5.525  23.024   3.672 -0.0809 -0.1306 -0.0404
11767W        W54680  10.133  14.192  18.908  0.2543 -0.0844 -0.0619
11768W        W54681  13.005  28.243  18.424 -0.1178 -0.1021 -0.0245
11769W        W54682  25.647  29.201  21.451 -0.1704 -0.2807 -0.4578
11770W        W54683  24.839  13.259  19.869 -0.1643 -0.0565 -0.3519
11771W        W54684  30.287  34.113  19.514  0.1241  0.2738  0.0433
11772W        W54685  30.632   9.489  19.519 -0.1896 -0.0739 -0.3728
11773W        W54686   0.325  18.692   2.905  0.1248  0.0991  0.2145
11774W        W54687  28.875   9.776  19.661 -0.1377 -0.3128 -0.0443
11775W        W54688  21.224   6.697  23.232  0.0670  0.1192  0.3276
11776W        W54689   2.747  10.508  20.143  0.2675 -0.1901  0.2396
11777W        W54690  11.985  16.272  16.040  0.1344 -0.1592  0.0603
11778W        W54691   1.242  13.877  19.947  0.0109 -0.0176 -0.4666
11779W        W54692  33.416  28.549  23.088 -0.1761  0.1066  0.0131
11780W        W54693   0.628  21.204  14.058  0.2503  0.1295 -0.0535
11781W        W54694  27.965  33.633  22.161 -0.0327 -0.1098  0.0306
11782W        W54695  12.852   7.682  29.732  0.0184 -0.0262  0.0643
11783W        W54696   2.243  17.765  29.231 -0.1385  0.0024  0.1356
11784W        W54697   4.396  16.222  19.090  0.2327 -0.2989 -0.0810
11785W        W54698   1.518  21.060   8.774  0.0884  0.0812 -0.1094
11786W        W54699   5.537  14.829   4.567  0.0595 -0.1365  0.0633
11787W        W54700   2.689  13.328  21.673  0.1540 -0.0922  0.0770
11788W        W54701   5.194  12.169   2.585 -0.1571  0.0028 -0.2663
11789W        W54702   4.124  10.040  23.779 -0.0380  0.1073  0.1651
11790W        W54703   3.796  16.936  17.970  0.0656  0.0812  0.1560
11791W        W54704  12.596  13.278  17.277  0.0665  0.1654 -0.2324
11792W        W54705  26.614  21.869  27.987  0.0181 -0.1155 -0.4036
11793W        W54706  30.827  10.003  22.189 -0.4950 -0.0595 -0.0592
11794W        W54707   6.816  12.393  26.020  0.3190  0.0791 -0.0842
11795W        W54708   2.632  12.139   0.312 -0.0490 -0.1382 -0.0446
11796W        W54709   0.608  23.287  22.313  0.1266  0.0297 -0.0024
11797W        W54710   3.163  16.605  19.842 -0.0598  0.0502  0.0748
11798W        W54711  20.364  21.661  17.853 -0.1578 -0.0044  0.1367
11799W        W54712   6.247  10.379  21.450 -0.1699 -0.0833  0.1179
11800W        W54713  31.171  21.164  27.721  0.2511 -0.1423 -0.1545
11801W        W54714   1.220   1.491  18.846 -0.0301  0.2044  0.2100
11802W        W54715   4.467  27.994  15.655  0.1041 -0.0061  0.3995
11803W        W54716   6.434  13.013  15.662 -0.2549  0.2033  0.4041
11804W        W54717  28.608  10.802  17.146 -0.1863 -0.2276  0.3093
11805W        W54718   7.526  20.045  25.408  0.2435  0.2394  0.1256
11806W        W54719   0.746  20.798  29.423  0.2392  0.0983  0.5512
11807W        W54720   5.699   6.053  21.582  0.1908  0.0001 -0.0183
11808W        W54721   0.405  22.608  14.940  0.2185  0.0701 -0.2100
11809W        W54722   5.389  19.837   1.477  0.0400 -0.0888  0.0998
11810W        W54723   9.202  12.851  26.401 -0.2127 -0.0601  0.1508
11811W        W54724   5.092  27.697   1.430 -0.1523  0.1723  0.1410
11812W        W54725   0.727  11.753  29.725 -0.2792 -0.1387 -0.1904
11813W        W54726  32.406  23.101  24.398 -0.0684 -0.0776 -0.4175
11814W        W54727  33.719  30.680  27.541  0.0829  0.0900 -0.0491
11815W        W54728   0.621  17.878   5.475 -0.0609  0.0698  0.0408
11816W        W54729  12.625  33.243  17.512 -0.0624 -0.0505  0.1306
11817W        W54730   7.061   9.565  22.997 -0.0046 -0.4595  0.2836
11818W        W54731   5.292  13.808  21.934  0.1434 -0.2352  0.1844
11819W        W54732   9.012  14.897  24.776 -0.1779  0.3831 -0.0593
11820W        W54733   3.913   8.472  18.607  0.5496 -0.5550  0.0869
11821W        W54734   5.034  19.280  27.058  0.1279  0.1212  0.0334
11822W        W54735  30.840  30.439   0.026  0.1131 -0.2439 -0.3191
11823W        W54736  31.711  17.997  22.433 -0.2979 -0.0451  0.0563
11824W        W54737   0.400   7.007  22.658 -0.0085 -0.2766 -0.1026
11825W        W54738   2.657  15.474  27.830 -0.0190 -0.1589 -0.1041
11826W        W54739  33.686  16.422  18.243  0.0555  0.3444 -0.1079
11827W        W54740  10.145  16.189  27.946  0.0615 -0.1414 -0.4344
11828W        W54741  32.582  12.057   4.408  0.1276  0.1955 -0.0033
11829W        W54742  20.510  16.339  25.039 -0.0788  0.1752 -0.1095
11830W        W54743  32.466  18.336   5.486  0.1945  0.2465 -0.1342
11831W        W54744   0.746  33.694   8.487 -0.0589  0.3106 -0.0124
11832W        W54745   6.621  19.973   3.615  0.1604 -0.1107 -0.1660
11833W        W54746  10.440  16.398  17.956 -0.2748 -0.0734  0.2150
11834W        W54747   0.765  15.533  27.285  0.3448 -0.1015  0.1071
11835W        W54748  10.627  19.834   7.494 -0.0432  0.0700 -0.0232
11836W        W54749   7.747   6.631   4.510 -0.2111 -0.0152 -0.0213
11837W        W54750  20.601  24.387   1.100 -0.1748  0.0455 -0.0693
11838W        W54751   2.365  19.562   7.408 -0.2193  0.2478 -0.3289
11839W        W54752  32.623  16.312  21.759 -0.0611  0.3000 -0.1656
11840W        W54753  10.256  16.941  28.501  0.0933 -0.0771  0.3603
11841W        W54754   5.226  15.402  25.121  0.0458 -0.0664 -0.3119
11842W        W54755   4.616  11.775  23.821 -0.1341  0.0370  0.3046
11843W        W54756  33.697   5.135  23.526  0.0729 -0.1613  0.0070
11844W        W54757  28.588  32.062  28.686 -0.0539  0.0399 -0.0622
11845W        W54758  27.646  22.158  27.128  0.0527  0.1061  0.3216
11846W        W54759   4.054  16.092  26.299  0.0065  0.4197 -0.1095
11847W        W54760  30.198  17.948  20.662  0.1501  0.1390 -0.1598
11848W        W54761  25.928  19.903  27.747  0.2525 -0.1008 -0.3170
11849W        W54762   5.876  16.017  25.561 -0.3494 -0.3428  0.1118
11850W        W54763  28.903  20.949   0.860 -0.1851 -0.3683  0.1755
11851W        W54764  33.866  10.813  26.030 -0.0783  0.0418 -0.1958
11852W        W54765  23.193   7.069  26.537  0.2911  0.1363  0.2123
11853W        W54766  23.681  23.207  25.826  0.0145  0.1934  0.3513
11854W        W54767   2.274  16.405  15.307  0.3221  0.0224 -0.0586
11855W        W54768  34.070  21.796  26.246  0.2089 -0.1392 -0.1178
11856W        W54769   0.714   7.457  26.776 -0.0796  0.0547  0.0147
11857W        W54770   1.533   5.539  20.878  0.2083  0.0399 -0.1158
11858W        W54771   6.568  14.335  16.625  0.1456  0.0219  0.0839
11859W        W54772  13.541  23.127   6.251 -0.0375 -0.0322 -0.2948
11860W        W54773   4.824   9.944  18.463 -0.3034 -0.0217 -0.2469
11861W        W54774  33.572  17.614  17.550  0.2130  0.0892 -0.1753
11862W        W54775  33.289  16.704  21.950  0.1279  0.3700  0.0088
11863W        W54776   2.912  18.821  26.382  0.3410  0.1526  0.2180
11864W        W54777  31.362   9.890   0.478  0.0051 -0.0325 -0.3724
11865W        W54778  20.234  22.872  25.250  0.2369  0.2558  0.2791
11866W        W54779   2.018  21.957  27.104  0.1163 -0.0638  0.0721
11867W        W54780  32.595   9.885   1.591 -0.0863 -0.0289 -0.2297
11868W        W54781   6.940  19.598  21.421 -0.1748 -0.0442  0.3756
11869W        W54782  31.020  19.592   6.538  0.2369 -0.3189 -0.1085
11870W        W54783   2.518  15.328  18.660 -0.0741  0.1296 -0.1957
11871W        W54784   5.133  17.949  29.357 -0.3220  0.2144  0.1099
11872W        W54785   2.263  14.212   1.024  0.1765 -0.0388  0.0362
11873W        W54786   2.214   9.253  25.398 -0.1668  0.0278 -0.1337
11874W        W54787   3.014   6.397  12.369  0.3157  0.1924  0.0657
11875W        W54788  23.435  25.529  23.428  0.3363  0.0477 -0.1006
11876W        W54789  10.849   6.595   0.171 -0.1653  0.0438 -0.2342
11877W        W54790   3.991   8.471  17.209 -0.1774  0.1309 -0.3036
11878W        W54791  32.152  14.856  23.468 -0.1209 -0.0446 -0.0299
11879W        W54792  34.184  14.045  23.107  0.3122 -0.0030  0.0414
11880W        W54793  32.161   7.637  26.768 -0.0039 -0.0694  0.3248
11881W        W54794  29.560  23.322  22.913 -0.3343 -0.0790 -0.2691
11882W        W54795   4.296  22.400  26.100 -0.0410 -0.2384 -0.0270
11883W        W54796   6.902  26.230  28.512 -0.0334  0.1244 -0.1799
11884W        W54797  30.848  11.742  25.273 -0.0237 -0.1037  0.0665
11885W        W54798   9.369  11.389   4.249 -0.4168  0.3861  0.3884
11886W        W54799  29.034  20.666  15.887 -0.0108 -0.2450 -0.2695
11887W        W54800  32.846  17.450   1.684  0.1505  0.0464  0.1747
11888W        W54801  23.836  13.632  20.873 -0.3443  0.0468  0.1814
11889W        W54802   6.686  31.654  17.927 -0.1980 -0.2105 -0.5103
11890W        W54803  28.237  21.334   1.556  0.3076 -0.3261 -0.3012
11891W        W54804   7.810  16.539   5.780  0.3686 -0.0233  0.1063
11892W        W54805  29.258  18.371   6.442  0.1523 -0.4694 -0.1129
11893W        W54806   9.434  10.892   7.405 -0.1298 -0.1204 -0.1793
11894W        W54807   4.842  21.915   0.724 -0.0876 -0.0341 -0.1186
11895W        W54808   6.170  30.386   9.837  0.0334  0.0736 -0.0098
11896W        W54809   4.429  24.866  17.506 -0.3826 -0.1524 -0.0618
11897W        W54810  28.829  12.874  18.775 -0.0738  0.0061  0.1828
11898W        W54811  23.855  19.742  27.022 -0.1142  0.1149 -0.1871
11899W        W54812   3.742  18.826   8.203  0.0977  0.2174 -0.0071
11900W        W54813  34.274   2.631   1.305 -0.0919  0.2899 -0.1096
11901W        W54814  28.108  20.055   7.492  0.3000 -0.0224  0.0276
11902W        W54815   3.715  12.029  25.090 -0.1891  0.0979  0.3010
11903W        W54816   3.989   3.086   0.661 -0.1358 -0.1546 -0.0244
11904W        W54817  33.712  18.074  26.183 -0.1591 -0.0764  0.1212
11905W        W54818   1.678  10.165  25.883  0.1789 -0.2218  0.0244
11906W        W54819   3.972  17.432   6.233 -0.3484 -0.0926 -0.2169
11907W        W54820   3.364   9.189  29.077  0.2614 -0.1890 -0.3412
11908W        W54821   4.318  14.450   0.960  0.1191  0.4389  0.0977
11909W        W54822   2.422  13.532   5.622 -0.1278  0.0592 -0.1132
11910W        W54823  23.686  10.792   3.486 -0.2725  0.1915 -0.0220
11911W        W54824  29.837  23.329  21.656  0.3235  0.1571  0.0925
11912W        W54825   0.599  21.694  19.441 -0.0459 -0.1920  0.0427
11913W        W54826  33.780  24.859   7.275 -0.1777 -0.0128  0.0981
11914W        W54827  31.742  27.915  20.576 -0.0971 -0.0483 -0.0528
11915W        W54828   2.784  13.168  24.232  0.0073 -0.0671  0.1600
11916W        W54829  26.487  16.749   7.826 -0.4564  0.3708 -0.0713
11917W        W54830   0.641  27.100  25.477 -0.0735 -0.2557  0.0884
11918W        W54831  32.416  10.098   0.100 -0.1254  0.2167 -0.4308
11919W        W54832  32.812  11.967  25.901  0.0899 -0.0083  0.2542
11920W        W54833   2.880  15.520  21.257  0.0377  0.0878 -0.0109
11921W        W54834   4.407  27.834  26.322  0.2623 -0.0267 -0.0380
11922W        W54835  33.769  16.345  21.675  0.2114 -0.0239 -0.0674
11923W        W54836  26.500  19.802   2.819 -0.0408 -0.5117  0.0485
11924W        W54837  23.744  20.346  29.045 -0.0117 -0.0983  0.2249
11925W        W54838   0.311   7.048   1.220  0.0495  0.2094 -0.0021
11926W        W54839  33.201  13.645  18.772  0.1347 -0.0694  0.0706
11927W        W54840  28.653  23.889   3.169  0.2466 -0.2727  0.0989
11928W        W54841  15.549  18.965   5.914  0.0755 -0.1528 -0.1346
11929W        W54842  32.599  14.878   0.681 -0.1543  0.1659  0.4789
11930W        W54843   8.915  18.415   5.756 -0.0708  0.1379  0.0376
11931W        W54844  23.459  12.344  23.603 -0.2074 -0.1016  0.2515
11932W        W54845   0.593  16.177  25.808 -0.0672  0.0512 -0.0364
11933W        W54846  34.249  15.414  20.333 -0.1672 -0.2289  0.3378
11934W        W54847  11.335  15.480  24.518  0.2988  0.1032 -0.0208
11935W        W54848  31.617  16.778   0.166  0.1559  0.3392  0.0674
11936W        W54849   1.109  13.157  22.716 -0.0849 -0.1496  0.0188
11937W        W54850  31.678  14.626   0.574 -0.1269  0.3646 -0.2939
11938W        W54851  14.567  19.459  25.879 -0.0795  0.1394  0.2782
11939W        W54852  31.682  21.734   6.887 -0.2942 -0.1447 -0.0025
11940W        W54853  21.506   7.618  15.697  0.2042 -0.1253  0.2576
11941W        W54854   1.476  24.576  26.882  0.2101  0.0799 -0.0643
11942W        W54855  23.913  22.577  19.690 -0.0169 -0.1495 -0.0762
11943W        W54856   4.549  27.822   4.271  0.2110 -0.0506  0.1916
11944W        W54857   8.220  20.882  23.849  0.0765  0.3184  0.3422
11945W        W54858  18.136  12.532  16.608  0.1037  0.1693 -0.0124
11946W        W54859   4.023  10.121  21.751  0.0146  0.0812  0.0132
11947W        W54860  18.440  20.169  25.465 -0.0613  0.0274  0.0285
11948W        W54861  12.334  13.795   0.470  0.1576 -0.1856 -0.1094
11949W        W54862  33.543  30.299   6.949 -0.1691 -0.3127 -0.1350
11950W        W54863   8.066  22.530  25.500 -0.2327  0.1299  0.1612
11951W        W54864   9.677   4.324  23.786 -0.0363  0.2137  0.2403
11952W        W54865   5.579  14.897   0.233 -0.1534  0.3386  0.0875
11953W        W54866   9.292  16.449  25.829 -0.4348  0.1143 -0.2145
11954W        W54867  34.063  25.361  21.395  0.3747 -0.1882 -0.2642
11955W        W54868  30.247  25.886  23.576  0.0953 -0.1379  0.2309
11956W        W54869   8.980  11.493   4.605  0.0205  0.0077  0.0916
11957W        W54870  31.724  16.135   7.097  0.2526 -0.2227  0.1549
11958W        W54871  32.519  19.244   8.166  0.2007 -0.2908  0.0570
11959W        W54872   0.337  19.129   4.556 -0.1396 -0.2307  0.0179
11960W        W54873  34.392  22.200  25.983 -0.4062  0.1472 -0.0028
11961W        W54874  33.875  17.022   3.471  0.0550  0.2105  0.0871
11962W        W54875   8.730  25.806  19.033 -0.2079  0.1424 -0.0681
11963W        W54876   7.568  29.869  28.418 -0.0749 -0.1388  0.0021
11964W        W54877  33.348   8.015  27.009 -0.3272  0.0914  0.1061
11965W        W54878  32.570  10.391  27.077  0.0805 -0.0875 -0.2036
11966W        W54879  33.674  17.182  28.293  0.0873  0.0286 -0.0206
11967W        W54880  27.768   5.736  16.490  0.1535 -0.0480  0.1897
11968W        W54881   3.395   4.814   0.275  0.3839  0.0968  0.0075
11969W        W54882   5.042  18.896   0.456  0.0635 -0.0350  0.0920
11970W        W54883   3.317  22.232  26.408 -0.1575  0.2638 -0.1381
11971W        W54884  27.052  20.547   8.399 -0.2497  0.0985 -0.2602
11972W        W54885  34.224  12.557  24.936 -0.2778  0.1339 -0.1790
11973W        W54886  27.922  14.370  25.222 -0.2241 -0.1582  0.1810
11974W        W54887  30.411  16.333  14.090  0.0753 -0.2891  0.3219
11975W        W54888   0.275   7.391  25.860  0.1942 -0.2242  0.0682
11976W        W54889   2.571  15.679   2.442 -0.1671  0.4047 -0.2359
11977W        W54890   6.824  26.096  23.661 -0.0195 -0.0298 -0.1287
11978W        W54891  32.346  18.476   4.036  0.2471  0.0450 -0.1971
11979W        W54892  27.477  23.829  27.465  0.0313 -0.1471 -0.0621
11980W        W54893   3.411  25.362  26.380  0.2183 -0.0226 -0.0724
11981W        W54894   3.981  28.640  26.776 -0.2439 -0.1288  0.0807
11982W        W54895   2.342  14.841  26.960  0.3600  0.0625 -0.0564
11983W        W54896   9.481   9.814  21.071 -0.4076 -0.0683 -0.0061
11984W        W54897  33.113  21.645  28.690 -0.3797  0.0388 -0.0130
11985W        W54898  31.721  11.541  22.024 -0.2520  0.0477 -0.1626
11986W        W54899  29.401  29.028  24.384  0.1261  0.2086  0.0680
11987W        W54900   4.308  25.436   5.293 -0.1621 -0.0332 -0.1731
11988W        W54901  15.018   9.200   0.635  0.0630 -0.0537 -0.1021
11989W        W54902   7.402  22.012   1.495 -0.2167 -0.3393  0.0561
11990W        W54903   6.942  11.099  23.974  0.1666  0.0250  0.0871
11991W        W54904   3.433  16.382  19.356  0.0251 -0.0245  0.0058
11992W        W54905   4.608  29.166  19.530  0.1241 -0.2388  0.1480
11993W        W54906   6.781  12.434   5.082 -0.2509  0.2395  0.3805
11994W        W54907   4.634  18.199  26.863 -0.1549 -0.1192  0.0874
11995W        W54908   2.151   6.659  22.536  0.2585 -0.0235 -0.2823
11996W        W54909   6.778   8.148  28.442 -0.1057  0.1264  0.0091
11997W        W54910   3.637   7.788   8.700  0.2129  0.0831 -0.2917
11998W        W54911   2.583  21.580  27.587  0.1575 -0.0816  0.1620
11999W        W54912  33.832  18.382  27.684 -0.1173 -0.0925  0.3078
12000W        W54913  24.710  15.527   3.337  0.2229 -0.0323 -0.1050
12001W        W54914   2.042  16.287   8.752 -0.1908  0.0152 -0.0296
12002W        W54915   2.573  14.445   0.568  0.1911 -0.0774 -0.0729
12003W        W54916   5.948  17.371   2.760 -0.2826 -0.4573  0.4681
12004W        W54917   9.951  19.649  22.972 -0.2740 -0.2623  0.0323
12005W        W54918   1.117   0.031  28.735 -0.2967  0.1293  0.0425
12006W        W54919   5.052  20.175  26.289 -0.0711 -0.2349 -0.1989
12007W        W54920  20.377  15.626  25.042  0.2978 -0.0908 -0.4930
12008W        W54921  33.679  17.676  21.946  0.1845 -0.0039  0.0258
12009W        W54922  27.586  17.907   0.036 -0.1011  0.1251 -0.1191
12010W        W54923  28.141  15.369   9.163  0.0146 -0.0683 -0.2819
12011W        W54924   3.764  17.008  19.681 -0.2869 -0.2299  0.2345
12012W        W54925  24.652  15.323   8.819  0.1112  0.0154  0.2361
12013W        W54926  28.907  16.882  26.024 -0.0637  0.1724 -0.1541
12014W        W54927  22.578  17.598  25.159  0.3576 -0.2211 -0.4404
12015W        W54928   5.944  28.124  20.543 -0.1341  0.2081 -0.1937
12016W        W54929   9.660  14.452   1.454  0.0493 -0.1812 -0.3451
12017W        W54930   4.996  32.580  27.936  0.1702  0.0068  0.3166
12018W        W54931   0.099  16.103   4.918  0.3353  0.2032  0.2897
12019W        W54932   4.040  16.797   1.632  0.1029  0.0254  0.1174
12020W        W54933   7.799  17.897  25.546  0.0582  0.0271  0.2125
12021W        W54934  32.376  18.936  19.269 -0.3775 -0.3739  0.1389
12022W        W54935  34.187  23.666  29.531  0.1362 -0.0923  0.0199
12023W        W54936   1.773  15.711   1.338 -0.0939 -0.0050 -0.2841
12024W        W54937  27.031  21.196   8.829  0.1959  0.1396  0.1401
12025W        W54938   2.392   8.006  22.805  0.0217 -0.2560  0.0144
12026W        W54939   0.771  18.775   0.891  0.1863  0.0544 -0.1843
12027W        W54940  33.035  19.768  28.762  0.3462 -0.0735  0.0736
12028W        W54941   9.259  17.235   7.731  0.0837  0.0971 -0.1341
12029W        W54942   7.987   7.362   2.436 -0.2073 -0.0285  0.3016
12030W        W54943  34.492  16.834  22.940 -0.2418  0.4270  0.1756
12031W        W54944  31.541  24.983   4.027 -0.3225 -0.1295  0.0765
12032W        W54945   9.204  12.685  25.274 -0.0985 -0.1535 -0.0840
12033W        W54946   1.933  25.039  14.665 -0.0724  0.1185  0.1619
12034W        W54947   9.357  10.657   6.993 -0.3702 -0.0509 -0.1361
12035W        W54948  25.531   7.270  15.575  0.3119  0.2055 -0.3613
12036W        W54949  32.220  25.228  28.129 -0.1880 -0.0071  0.0075
12037W        W54950  31.268  23.385  24.307 -0.0485  0.1242  0.0168
12038W        W54951   1.501  21.608  28.479 -0.0891  0.2846  0.1806
12039W        W54952   1.521  17.455  29.666 -0.1544  0.3444 -0.1019
12040W        W54953  32.293   4.725   9.117  0.2525 -0.1447 -0.2225
12041W        W54954  14.056   1.706  25.034  0.1265 -0.1307  0.0429
12042W        W54955   2.768  21.324  23.961 -0.2473  0.1688  0.0732
12043W        W54956  31.691  13.310  22.423  0.1458  0.1898 -0.0787
12044W        W54957   6.441  21.192   0.201 -0.0079 -0.3813  0.0779
12045W        W54958   9.458  14.460   4.104 -0.0519  0.2009 -0.2399
12046W        W54959   8.528  27.607   1.820  0.0376  0.0156 -0.1159
12047W        W54960   7.787  25.843   4.854 -0.0386 -0.0299 -0.2400
12048W        W54961  23.448  18.866  20.816 -0.4441  0.3045  0.1061
12049W        W54962  13.153  16.043  19.788 -0.0142 -0.0752  0.0708
12050W        W54963   3.344  22.143  13.837  0.1855 -0.0955  0.3573
12051W        W54964   1.516  13.487  25.580 -0.0272  0.1668 -0.0438
12052W        W54965  15.527  18.590  28.572  0.0647 -0.2830 -0.3458
12053W        W54966  29.789  13.250  27.971 -0.2505  0.0177  0.1087
12054W        W54967  18.163  22.484  27.218 -0.1115  0.1733  0.0735
12055W        W54968   9.445  19.048  18.046 -0.2100 -0.0328 -0.0173
12056W        W54969  33.658  23.275   0.369 -0.3210 -0.0041  0.2292
12057W        W54970  10.275  11.232  22.382 -0.0412  0.4638 -0.2541
12058W        W54971  19.075  22.955  19.924  0.0207 -0.2280 -0.2164
12059W        W54972  30.232  30.375  26.008 -0.1482  0.2071 -0.0098
12060W        W54973   9.197  19.383   1.603 -0.1153  0.0839  0.1415
12061W        W54974   5.551  10.652  19.252  0.4244 -0.1016 -0.4424
12062W        W54975   5.759  25.054  23.906 -0.0215 -0.1092 -0.3386
12063W        W54976  29.855  23.894   8.094  0.0088  0.3541  0.0229
12064W        W54977   6.412  20.434  14.984 -0.0339 -0.1258 -0.1663
12065W        W54978   1.637  22.132  28.181 -0.0243 -0.1810  0.1805
12066W        W54979   4.323  22.625  27.496  0.1196  0.0503 -0.1913
12067W        W54980   7.945  19.660  28.552 -0.0607 -0.2966 -0.0542
12068W        W54981   3.718   7.577   0.556 -0.0513 -0.0989  0.3318
12069W        W54982   2.725  21.601  24.904  0.1191 -0.4105  0.1619
12070W        W54983  31.057  19.407  26.681 -0.0753  0.2355  0.0305
12071W        W54984   4.627  24.384  25.081 -0.0508  0.3192 -0.0208
12072W        W54985   5.653  12.417  28.108 -0.0400  0.2634 -0.0052
12073W        W54986  29.249  17.567  23.390 -0.1076  0.1541  0.0518
12074W        W54987   5.256  28.475  26.442  0.1018  0.0993  0.0752
12075W        W54988  33.443  25.821   3.115 -0.0864  0.1365  0.0196
12076W        W54989  11.136  20.486  19.876 -0.1561 -0.2492  0.2141
12077W        W54990  27.326  23.804  21.957  0.0554 -0.0840 -0.3410
12078W        W54991   4.524  22.580   0.033 -0.0147 -0.0489 -0.2603
12079W        W54992   6.243  16.159  28.597 -0.0575  0.1141 -0.3166
12080W        W54993   8.953  13.414  28.698  0.0997  0.1197 -0.2229
12081W        W54994  32.177  12.606  26.172  0.1136 -0.4027  0.0941
12082W        W54995  12.699  13.000  22.630 -0.2178 -0.0291  0.0844
12083W        W54996   4.568  30.634  27.011  0.1015  0.0193 -0.0048
12084W        W54997  32.802   8.743   2.324  0.0708  0.2809 -0.0958
12085W        W54998   4.318  11.399  23.782 -0.1534 -0.0562 -0.1283
12086W        W54999   8.392   7.731  27.001  0.1197  0.0210  0.1006
12087W        W55000  12.994  14.964   2.958  0.1567  0.1681  0.0195
12088W        W55001   2.931  16.203   2.443 -0.1079 -0.1415 -0.0808
12089W        W55002  29.017  25.177   5.127  0.1769  0.1238 -0.0779
12090W        W55003  33.620   9.220   3.060  0.0859  0.3657 -0.0576
12091W        W55004  33.522  22.138  19.843 -0.0659  0.2290 -0.0222
12092W        W55005   1.573  20.177   2.677 -0.2666  0.2580  0.1877
12093W        W55006   3.450  21.833   6.725 -0.2377  0.0664  0.1745
12094W        W55007   7.616   4.610   2.640 -0.1570  0.0145 -0.1478
12095W        W55008   1.381  25.933   4.065 -0.0049 -0.3529  0.3691
12096W        W55009  28.950  17.946  24.592 -0.1559  0.0113 -0.1007
12097W        W55010  10.517  17.886  25.035  0.1835 -0.0132  0.1364
12098W        W55011   0.693   3.923   6.436  0.0484 -0.2881  0.1075
12099W        W55012  33.549  19.938  28.747  0.1301 -0.2260  0.1784
12100W        W55013  30.671  10.478  26.038  0.0470 -0.1142  0.2242
12101W        W55014   5.585  13.257  27.845 -0.0257  0.4248  0.3569
12102W        W55015  32.105  21.661  25.492  0.1771  0.0887 -0.0354
12103W        W55016   4.312   8.847  29.329 -0.0898  0.0159  0.1375
12104W        W55017  32.249  15.204  28.717  0.2119 -0.1770 -0.0958
12105W        W55018   4.312   7.831   3.976  0.0056 -0.1116  0.1532
12106W        W55019  27.720  18.834  28.481  0.2386 -0.3170  0.1146
12107W        W55020  10.372  21.871  18.814 -0.1018 -0.2033 -0.1206
12108W        W55021  10.880  17.198  18.277  0.2476 -0.3542 -0.0837
12109W        W55022   2.774  16.642   7.449  0.5031 -0.0477 -0.2608
12110W        W55023   1.178  25.916  25.478  0.2704  0.1081 -0.1151
12111W        W55024   2.382   9.817  26.436 -0.0163 -0.3841  0.1270
12112W        W55025  33.370  12.405   1.418 -0.0418  0.1709 -0.1628
12113W        W55026  12.938  13.783  21.183  0.1833 -0.2181  0.1004
12114W        W55027  32.229  18.028  18.840 -0.0114 -0.0209  0.1233
12115W        W55028  30.591  19.388  20.332 -0.1585 -0.1622 -0.2717
12116W        W55029   3.119   4.092  21.818 -0.3245  0.0423 -0.2956
12117W        W55030  10.734   6.737  27.228 -0.0422 -0.0338 -0.2063
12118W        W55031   7.688  13.066  29.068 -0.4083  0.2270  0.1206
12119W        W55032  31.977  18.884   5.599  0.0872 -0.6930 -0.1182
12120W        W55033  28.645  18.826  28.272  0.1183 -0.0060  0.1123
12121W        W55034   2.091  25.880  10.551 -0.0183  0.2510  0.4254
12122W        W55035  26.581  18.473   1.224  0.0148 -0.0230  0.1288
12123W        W55036  30.601  15.192  20.270  0.0109  0.1022  0.0466
12124W        W55037   1.002  13.379  25.591 -0.2291 -0.0821  0.3024
12125W        W55038  10.861  15.132  27.486 -0.1031  0.1930  0.0119
12126W        W55039   4.247  11.964  20.820 -0.1310  0.0061  0.1213
12127W        W55040  33.477  17.525  29.523  0.1668  0.1370  0.1293
12128W        W55041  29.589   7.615  26.156  0.0569  0.2437  0.0622
12129W        W55042   1.644  19.744   2.416 -0.0121 -0.0253  0.2661
12130W        W55043   9.236  22.743   0.232  0.0596  0.1347 -0.1502
12131W        W55044   1.657  25.566  23.750  0.1412 -0.0808  0.0909
12132W        W55045  11.266  12.603  27.313  0.0897  0.0774  0.1550
12133W        W55046  11.894  14.156   3.936 -0.1232 -0.2372  0.4914
12134W        W55047  15.235   5.245   5.586 -0.4225 -0.0442 -0.2391
12135W        W55048  33.558   2.986   4.417  0.0287 -0.0055  0.1859
12136W        W55049  32.814  17.687   0.989  0.0942 -0.1001 -0.1605
12137W        W55050   4.733  28.427  23.426  0.1554 -0.1316 -0.0888
12138W        W55051  20.615  24.560  28.038  0.0806 -0.0403 -0.0129
12139W        W55052  25.627  20.506  29.259  0.0774 -0.4602 -0.2679
12140W        W55053  25.783  19.932   1.803 -0.0099  0.2590  0.1035
12141W        W55054   0.789  17.270  29.777  0.2863  0.0612 -0.2580
12142W        W55055   9.646  25.548   3.513 -0.2813 -0.2815 -0.0431
12143W        W55056  34.454  15.403   3.846 -0.1339 -0.0858 -0.3703
12144W        W55057  34.175  14.616  20.942  0.0015 -0.0615 -0.0440
12145W        W55058   0.604  27.731   0.025 -0.3863  0.2380 -0.0931
12146W        W55059   6.574  27.163  23.534 -0.1630 -0.0356  0.0978
12147W        W55060  31.950  13.537  21.687  0.2821  0.2028 -0.0246
12148W        W55061  11.198  13.320  19.597 -0.2524 -0.2458  0.0878
12149W        W55062   3.645  10.393  27.321  0.2428 -0.2417  0.0536
12150W        W55063  28.256  13.396  27.303  0.1950 -0.1260  0.1487
12151W        W55064  13.133  11.576  17.419  0.0453 -0.1587  0.3393
12152W        W55065   2.801  23.728   1.193  0.1745  0.0644 -0.3022
12153W        W55066   1.423  15.480  24.542  0.1646 -0.2924 -0.2677
12154W        W55067   9.095  16.641   0.713 -0.1032  0.0549  0.0337
12155W        W55068   1.068  21.898  22.674 -0.3101 -0.2092 -0.1186
12156W        W55069  14.691  16.573   2.141  0.0555 -0.0780  0.0108
12157W        W55070   1.583   7.816   6.660 -0.0743  0.0129  0.2538
12158W        W55071   0.319  18.566  20.945  0.4385 -0.0036 -0.0203
12159W        W55072  33.211  12.546  24.529  0.0655 -0.0714 -0.0501
12160W        W55073  11.080  22.452  23.372 -0.0025 -0.3083  0.0844
12161W        W55074   7.422  26.231   6.574 -0.0418 -0.2167 -0.3492
12162W        W55075   8.734  14.955  20.846  0.0375  0.1772 -0.1933
12163W        W55076   4.059  20.018  28.549 -0.0072 -0.2673  0.2067
12164W        W55077   5.874  16.603  28.635  0.0374  0.1961  0.0783
12165W        W55078   1.461  26.031  25.875 -0.1250  0.1685 -0.1641
12166W        W55079  31.874  27.253  25.877 -0.2041  0.0055  0.0550
12167W        W55080   1.073  19.785  28.452 -0.2492  0.1428 -0.0849
12168W        W55081   7.448  16.953  24.862 -0.2011  0.1291  0.0500
12169W        W55082   2.350  10.223  16.950 -0.3784  0.0004 -0.0311
12170W        W55083  33.723  17.437  24.304 -0.2240 -0.1389  0.2249
12171W        W55084  31.312  16.355  27.957  0.1431 -0.5103  0.1093
12172W        W55085   1.632   0.787  24.243 -0.0386  0.0579  0.3818
12173W        W55086   9.439  29.046  29.596  0.1944  0.2299 -0.0219
12174W        W55087  31.471  18.146   2.343 -0.5039  0.2280 -0.1201
12175W        W55088  22.936  18.164  24.052  0.0927  0.4870  0.0515
12176W        W55089  33.048  27.443   2.139 -0.0126 -0.2742  0.1381
12177W        W55090  11.958  11.335   2.545  0.0900  0.1287  0.1303
12178W        W55091   3.335   7.762  27.006 -0.2207 -0.0452  0.0452
12179W        W55092   8.981  11.038  15.884  0.0889 -0.0345  0.1425
12180W        W55093  32.948  31.434  28.416 -0.2847 -0.0026  0.0479
12181W        W55094   1.982  18.807  29.378 -0.0358 -0.0813  0.2512
12182W        W55095   2.012  25.486  27.520 -0.0724 -0.0500  0.3285
12183W        W55096   2.002  23.850   6.372 -0.2704  0.1875  0.0844
12184W        W55097   9.688  22.053  29.471  0.1362  0.0183 -0.0199
12185W        W55098  11.046  33.730  24.012 -0.1724  0.2919  0.2386
12186W        W55099   8.150  28.830   0.538  0.1242  0.1989 -0.0873
12187W        W55100   4.681  19.442  25.515 -0.1175  0.0675  0.0586
12188W        W55101   5.911   5.446   4.844 -0.0452 -0.0956 -0.0735
12189W        W55102  11.876  18.783   1.587  0.2109  0.2102  0.1682
12190W        W55103   7.326   4.114  26.902 -0.1040 -0.2719  0.2163
12191W        W55104  11.305  23.173  25.980  0.0743 -0.0208  0.1351
12192W        W55105  26.744  24.735  26.217 -0.3726 -0.1290 -0.0480
12193W        W55106  10.797  16.455   1.093 -0.1274 -0.0825  0.1599
12194W        W55107  11.673  13.937  27.846 -0.0941 -0.1293  0.0185
12195W        W55108  31.233  21.832   0.811  0.0264  0.0844  0.2460
12196W        W55109  14.306   7.482  27.960  0.2919 -0.3367  0.0309
12197W        W55110   8.330  18.670  19.557  0.1620  0.2420 -0.1696
12198W        W55111   3.955  21.326  17.047 -0.0510 -0.3946  0.1537
12199W        W55112   6.380   8.701   8.411 -0.0021 -0.1061  0.0969
12200W        W55113  25.753  18.083  29.579 -0.1431 -0.1023 -0.2674
12201W        W55114  27.814  31.535   0.910  0.2128  0.1988  0.4455
12202W        W55115  26.153  20.595  24.219 -0.0084 -0.1725  0.0889
12203W        W55116   0.949  31.168  22.529  0.1447  0.1162 -0.2718
12204W        W55117   4.968  20.672  27.004  0.2355 -0.0641 -0.1463
12205W        W55118  33.846  23.492  22.270 -0.0497 -0.0022  0.1125
12206W        W55119  10.978  21.592  23.443 -0.3981  0.0660 -0.1376
12207W        W55120   5.523  14.060  26.682  0.0619 -0.1259  0.0824
12208W        W55121  33.563   7.256   5.183 -0.0843  0.2667 -0.0853
12209W        W55122  11.321  27.485   5.618 -0.0735  0.0024 -0.1380
12210W        W55123   4.715  24.940  17.943  0.2932 -0.2567  0.1627
12211W        W55124  14.997   9.396  20.247 -0.2779  0.1066 -0.3205
12212W        W55125  31.265  15.207  24.888  0.4854  0.1008 -0.2858
12213W        W55126  29.987   2.598  27.002 -0.0060 -0.1797  0.1716
12214W        W55127  33.187   2.451   1.641  0.2879  0.2075  0.0401
12215W        W55128   7.544  16.604  24.318 -0.2906  0.2175 -0.3853
12216W        W55129   9.818  19.940  20.330  0.1122  0.1293 -0.2256
12217W        W55130  26.387  20.297   3.357  0.0264 -0.2636  0.2224
12218W        W55131  22.467  10.211  16.823 -0.2137  0.3373  0.1170
12219W        W55132  11.681  19.876   0.296 -0.3835 -0.0868 -0.1473
12220W        W55133  21.329  16.636   5.983  0.0861 -0.1310 -0.1347
12221W        W55134  28.011  20.474  26.969  0.1976  0.1033  0.0846
12222W        W55135   7.482  18.213  24.741  0.0004 -0.2053 -0.1675
12223W        W55136  32.230  18.972   8.526 -0.1293  0.2951 -0.1065
12224W        W55137  27.363  20.047   0.366  0.2920 -0.0827 -0.1711
12225W        W55138   4.065  13.758  23.399  0.1569  0.0021  0.0944
12226W        W55139  28.850   9.829   9.234  0.1105 -0.4459  0.3198
12227W        W55140   5.324  18.878   3.780  0.1745 -0.3454  0.0146
12228W        W55141  16.579  23.401  23.911 -0.0273  0.0333  0.1129
12229W        W55142  32.660  23.185   7.542  0.0781  0.1236 -0.0252
12230W        W55143   8.770  11.629  26.170  0.1290 -0.2519  0.0870
12231W        W55144  29.672  14.296   5.993  0.1616  0.0138 -0.0322
12232W        W55145  18.544  25.640   0.855 -0.1607  0.0588 -0.0689
12233W        W55146   6.217  22.182  18.548  0.1042 -0.0157 -0.0224
12234W        W55147   4.913  29.486   5.544  0.0509  0.0361 -0.0347
12235W        W55148   6.161  15.996   1.064  0.1117  0.0360  0.0381
12236W        W55149  12.776  14.124   2.567  0.2060 -0.0619 -0.1557
12237W        W55150  24.236  15.702   8.933  0.3095  0.0391 -0.0317
12238W        W55151  28.637  13.631   6.742  0.0692  0.0635 -0.1541
12239W        W55152   4.173   0.134  17.216 -0.1492  0.0068  0.1813
12240W        W55153  19.212  24.199  22.470 -0.0967  0.2101 -0.0589
12241W        W55154  11.869  11.718  25.198 -0.1398  0.1166  0.0367
12242W        W55155  33.100  18.054   4.122  0.1960 -0.0722 -0.1801
12243W        W55156  26.306   8.840  26.270  0.1810  0.1894 -0.1882
12244W        W55157   4.868  25.689   9.994  0.0240  0.0552 -0.0468
12245W        W55158   8.790  19.668  26.209  0.3756  0.2935 -0.1784
12246W        W55159  33.452  10.622   1.007  0.2211 -0.2561 -0.1277
12247W        W55160   2.348  19.531  28.014  0.0180  0.0621 -0.0981
12248W        W55161  12.611  14.705   0.225 -0.4008  0.1673 -0.1625
12249W        W55162   2.160  20.971   6.575 -0.0281  0.2580  0.3235
12250W        W55163   4.171   6.178   9.790 -0.1150  0.1001 -0.0229
12251W        W55164   2.256  22.565   0.189  0.3028 -0.1360  0.0200
12252W        W55165  27.749  19.071   1.396  0.0012  0.0753  0.0405
12253W        W55166  12.392  19.013   4.345  0.1099  0.1523 -0.1049
12254W        W55167  20.604  11.700   5.432  0.2325 -0.1437  0.0103
12255W        W55168  14.538  11.163   3.234  0.2315 -0.3014  0.0603
12256W        W55169   5.876  12.799  17.522 -0.2147 -0.3419 -0.2239
12257W        W55170  11.457   9.976  19.209 -0.0353  0.2468  0.0568
12258W        W55171  10.555  22.909  27.315 -0.3866  0.0842  0.2162
12259W        W55172  34.435  14.367   8.318 -0.0395  0.2136 -0.1801
12260W        W55173  24.776  26.091  29.255  0.0223  0.1377 -0.0782
12261W        W55174  34.123  11.714  25.082 -0.1137 -0.2813 -0.0545
12262W        W55175   1.972  23.460  28.554  0.1757  0.0221 -0.0977
12263W        W55176  31.952  30.360  24.052 -0.3369 -0.2149 -0.1037
12264W        W55177  28.185  14.028   2.334  0.0941 -0.0640 -0.1105
12265W        W55178   8.731   4.991  28.257 -0.0209 -0.1853 -0.0416
12266W        W55179  27.059  14.151  24.185  0.0353 -0.0286  0.2423
12267W        W55180  10.118  14.332   9.146 -0.2419 -0.0699 -0.0398
12268W        W55181   6.866  13.798  26.299 -0.2374  0.3509  0.1687
12269W        W55182   9.778  12.812  25.305 -0.2095 -0.1242  0.2686
12270W        W55183  34.432  13.775   7.612  0.1776 -0.1847 -0.2832
12271W        W55184   0.313  20.742   8.609  0.1627  0.1218  0.2606
12272W        W55185   9.724  18.967  28.313  0.0196  0.0888 -0.1664
12273W        W55186  23.776   9.404   4.527 -0.0364  0.4634  0.4468
12274W        W55187  32.047  26.252   9.269 -0.0247  0.0244  0.1046
12275W        W55188   3.741  19.486  19.925 -0.2552 -0.0581  0.3196
12276W        W55189  34.105  18.209  29.333  0.1753  0.2321 -0.0282
12277W        W55190  27.115  10.778  21.577  0.1164  0.0335  0.0858
12278W        W55191   8.926  16.079  25.892 -0.1806 -0.1254  0.1142
12279W        W55192   5.845  18.249   8.974  0.1329 -0.1926  0.1542
12280W        W55193  29.606  16.954  23.101  0.1217  0.1554  0.1451
12281W        W55194   7.441  12.691  22.071 -0.1584 -0.0892 -0.1673
12282W        W55195  22.752  17.680  22.677  0.3029 -0.0497 -0.0671
12283W        W55196   6.851  10.189   0.573 -0.1451 -0.1448  0.3432
12284W        W55197  32.956  15.744   3.184  0.3751 -0.1518 -0.2387
12285W        W55198   4.165  19.059   0.184 -0.1150  0.3540  0.0634
12286W        W55199   4.084  21.881   5.941  0.0308  0.3233  0.0477
12287W        W55200   2.194  25.832   3.464  0.1032  0.1129 -0.1619
12288W        W55201   3.307  28.657   0.208  0.0376  0.0627  0.2371
12289W        W55202   3.894  12.600   1.382 -0.3039 -0.2050 -0.1053
12290W        W55203   6.963   7.133  24.489  0.1482  0.1165 -0.2648
12291W        W55204  31.160  21.256  13.405 -0.3996 -0.0304 -0.2637
12292W        W55205   3.830  27.327  20.484 -0.0434 -0.2815 -0.0923
12293W        W55206   5.929  19.893  29.550 -0.0792 -0.2470 -0.0342
12294W        W55207   9.141  21.100  18.239  0.1213  0.2633 -0.0528
12295W        W55208  31.816   5.729  24.935 -0.2380  0.2340 -0.1906
12296W        W55209  14.422  10.139  18.311 -0.0728  0.0085  0.0913
12297W        W55210  27.239  22.887  17.130 -0.0697 -0.3620 -0.2925
12298W        W55211   4.927  20.966  16.580 -0.0435 -0.0743  0.1856
12299W        W55212  14.744  25.877  17.498  0.1034 -0.0897  0.2391
12300W        W55213   1.473  29.381  25.118  0.4381 -0.2588 -0.0177
12301W        W55214  27.816  18.720  17.107  0.1640  0.1083 -0.0276
12302W        W55215   6.599  20.794  13.678  0.0754 -0.1584 -0.1737
12303W        W55216   8.249  29.793  20.304  0.1547 -0.1104  0.4013
12304W        W55217   1.895  13.715  14.686  0.0187 -0.1487 -0.1153
12305W        W55218   9.974  16.973  17.603  0.1169  0.1237 -0.3221
12306W        W55219   0.471  23.519  14.969 -0.1282  0.0484 -0.1110
12307W        W55220  34.117  12.936  16.014 -0.0323 -0.0306 -0.1429
12308W        W55221  33.409  24.926  16.324 -0.2178 -0.0151 -0.0888
12309W        W55222  10.624  19.556  22.403 -0.4069 -0.0081  0.2359
12310W        W55223  14.472  21.864  16.948  0.0880 -0.1793  0.0304
12311W        W55224  34.208  23.388  23.224  0.3479  0.0836  0.0957
12312W        W55225   2.664  14.035  15.405 -0.1132 -0.0407 -0.0799
12313W        W55226  29.388  20.284  15.923  0.2241 -0.0750 -0.2646
12314W        W55227   0.168  18.707  21.978  0.0540  0.1542  0.1195
12315W        W55228  22.442  25.135  16.536 -0.0578 -0.1903  0.0237
12316W        W55229  32.503  24.862  16.829  0.2085 -0.1222  0.2850
12317W        W55230   4.159  16.499  20.723  0.2226 -0.1390  0.2481
12318W        W55231   1.594  17.441  20.777 -0.0435 -0.1935 -0.1095
12319W        W55232   4.235  28.473  14.545  0.2066  0.1425  0.0039
12320W        W55233   8.681  20.584  20.860  0.0197 -0.0694  0.1524
12321W        W55234  29.347  18.852  13.754  0.0101  0.1467  0.0528
12322W        W55235   4.965  23.717  18.975 -0.2688  0.3001 -0.1214
12323W        W55236   4.886  14.595  18.000 -0.0985 -0.0065  0.0403
12324W        W55237  33.575  25.904  24.954  0.0569  0.0939  0.2279
12325W        W55238   5.964  24.653  25.483 -0.0941  0.1812  0.1793
12326W        W55239  29.857  17.821  19.130  0.0556  0.1137  0.2114
12327W        W55240  17.545  27.747  16.894 -0.2366 -0.1103 -0.1428
12328W        W55241   1.616  23.575  20.581  0.1332 -0.1969 -0.0040
12329W        W55242  26.184  28.487  13.941 -0.1308 -0.0263  0.0717
12330W        W55243   2.239  18.949  22.145 -0.1612 -0.1088  0.3338
12331W        W55244   7.977  26.523  17.912  0.2493 -0.2110  0.0041
12332W        W55245  29.100  19.626  20.585  0.1253 -0.0927 -0.3212
12333W        W55246  27.468  21.337  27.739 -0.0665 -0.3259  0.1275
12334W        W55247  34.182  23.682  15.445  0.1887 -0.1988  0.1465
12335W        W55248  30.979   0.523  16.641  0.1581  0.1810  0.0602
12336W        W55249   3.459  24.869  14.897  0.0446  0.2976  0.0433
12337W        W55250   0.769  21.484  18.966 -0.0406  0.3539  0.1257
12338W        W55251  10.345  13.715  24.095 -0.4019 -0.3096 -0.1546
12339W        W55252  27.130  23.710   0.274  0.0100 -0.0923  0.2960
12340W        W55253   5.800   5.265  24.405 -0.3101  0.1861 -0.0321
12341W        W55254  29.115  20.101  17.606 -0.0484  0.3869 -0.0548
12342W        W55255  31.284  10.757  15.307 -0.0677 -0.2233  0.2787
12343W        W55256   1.396   9.965  21.754 -0.0844 -0.0530  0.0117
12344W        W55257  27.688  11.243  15.795 -0.0602  0.2054 -0.0590
12345W        W55258  34.383   9.775  16.545 -0.4826  0.3550  0.0492
12346W        W55259  29.203  19.863  18.068 -0.0693  0.0012  0.2216
12347W        W55260  27.377  21.017  17.816  0.2160 -0.1630 -0.2172
12348W        W55261   5.450  12.373  18.233 -0.1580 -0.0009 -0.1759
12349W        W55262  33.921  22.744  21.600 -0.1070  0.0628 -0.2390
12350W        W55263   2.857  18.234  27.559 -0.0672 -0.1012 -0.2054
12351W        W55264   0.210  19.084  16.059 -0.0269 -0.2593  0.0210
12352W        W55265   5.239  15.442  21.075  0.2974 -0.0566  0.1494
12353W        W55266   1.027  15.336  24.260  0.0117 -0.0484  0.1963
12354W        W55267  10.963  14.429  17.299 -0.2419  0.2813  0.0506
12355W        W55268   0.385  17.304  18.873  0.1007 -0.0197 -0.0848
12356W        W55269  23.545  20.670  24.647  0.0299  0.2223 -0.0154
12357W        W55270   7.963  24.090  15.188  0.4629 -0.0203  0.1534
12358W        W55271   9.853  16.147  23.705 -0.0263  0.4814  0.0291
12359W        W55272   3.110  27.983  26.918 -0.2681  0.1272  0.1977
12360W        W55273   2.579  30.808  21.809 -0.1921 -0.2299 -0.1234
12361W        W55274  17.836  17.964  15.025 -0.2686 -0.3115  0.1092
12362W        W55275   0.204  13.214  17.531 -0.0732 -0.0398  0.0153
12363W        W55276   5.283  22.897  21.833  0.2856  0.0502  0.0550
12364W        W55277   5.692  22.434  14.224  0.0051 -0.1638  0.0681
12365W        W55278   7.017  23.299  14.327  0.0161 -0.0797  0.1060
12366W        W55279   5.275  17.557  17.357 -0.0289 -0.4352 -0.0853
12367W        W55280  30.942   3.877   2.539 -0.2938 -0.0275  0.3056
12368W        W55281  30.137   9.218  18.036  0.1271 -0.0264  0.1443
12369W        W55282   3.859  21.058  19.499  0.0920 -0.0338 -0.3046
12370W        W55283   4.125  17.868  13.557 -0.2528  0.0074 -0.1242
12371W        W55284   1.575  11.734  18.614  0.5124 -0.0081  0.2130
12372W        W55285   7.193  15.153  22.133 -0.0987  0.1101  0.0588
12373W        W55286   8.018  15.633  15.028 -0.0828  0.2654 -0.1374
12374W        W55287   7.569  18.511  15.940 -0.0923  0.1599 -0.1060
12375W        W55288  13.861  29.468  23.780  0.0097  0.0406  0.2012
12376W        W55289   8.082  18.943  28.866 -0.0868 -0.0768  0.2628
12377W        W55290  30.540  18.608  15.345 -0.3002 -0.2138  0.1917
12378W        W55291   6.603   6.545  23.438 -0.2467 -0.1178 -0.2760
12379W        W55292  10.812  25.098  24.227  0.0040  0.1140  0.1345
12380W        W55293  12.825  17.474  21.549  0.0564 -0.1541 -0.0486
12381W        W55294   7.049  29.629  15.980 -0.2435  0.3784 -0.1242
12382W        W55295   2.322  18.602  15.444 -0.1812 -0.0694  0.2457
12383W        W55296  31.377  23.402  16.423  0.2303 -0.2923 -0.1882
12384W        W55297  23.981  21.450  12.302 -0.2224 -0.1760 -0.1668
12385W        W55298   0.003  15.391  13.713  0.1454  0.3437  0.1941
12386W        W55299  32.210  14.356  15.743  0.3257 -0.0353 -0.2564
12387W        W55300   6.117  13.919  27.163 -0.1109  0.2136 -0.1859
12388W        W55301  33.642  18.395  19.364  0.0584 -0.1807  0.1471
12389W        W55302  30.956  13.453  17.978 -0.1463  0.0707 -0.2916
12390W        W55303   3.124  16.409  17.037  0.3493  0.2522  0.0867
12391W        W55304  24.920  10.679  15.409 -0.5075  0.0205 -0.1915
12392W        W55305  13.597  20.554  22.790 -0.0101  0.1573  0.0267
12393W        W55306   1.773  15.724  19.791 -0.0827 -0.0154 -0.2528
12394W        W55307   7.176  30.988  18.393 -0.1176 -0.1317 -0.1179
12395W        W55308   3.211  31.219  17.885  0.1670  0.2435  0.1614
12396W        W55309  31.283  17.075  15.335 -0.1240  0.1457 -0.1128
12397W        W55310   1.380  14.322  16.291 -0.0652 -0.0345  0.0948
12398W        W55311  30.089  19.834  19.624  0.1011  0.0606  0.1765
12399W        W55312  14.454  22.546  18.950  0.1024 -0.1111  0.1764
12400W        W55313  33.199  21.171  19.098  0.1411 -0.0666 -0.0309
12401W        W55314   1.999  27.926  22.500  0.2437  0.0418  0.1827
12402W        W55315  31.182  11.021  20.560  0.4370 -0.1405  0.3457
12403W        W55316  11.887  26.688  18.548  0.2792  0.1637 -0.3859
12404W        W55317  11.878  13.420  20.868  0.1763  0.1579 -0.1230
12405W        W55318  10.827  17.479  13.435 -0.0481 -0.0951  0.0555
12406W        W55319   8.752  17.155  15.872  0.0851  0.1241 -0.0290
12407W        W55320  25.967  23.554  26.256 -0.3185  0.1073  0.1141
12408W        W55321   9.767  23.752  18.193 -0.0745  0.1607  0.0300
12409W        W55322  13.789  19.026  16.508 -0.1928  0.1823  0.2494
12410W        W55323   9.236  23.928  25.097  0.1616 -0.2673  0.1728
12411W        W55324   2.936  23.732  13.803 -0.0223  0.1905  0.1866
12412W        W55325   5.075   9.837  25.210  0.0241 -0.1944 -0.2212
12413W        W55326  32.927   9.902  19.263  0.2305 -0.0784 -0.0660
12414W        W55327  31.576  19.308  14.126  0.2939 -0.4690  0.2135
12415W        W55328   4.422  16.073  17.310 -0.2864  0.2629  0.0786
12416W        W55329  28.575  31.426  14.840 -0.0772  0.4468 -0.0677
12417W        W55330  32.270   6.880  22.440  0.1095  0.1197 -0.1632
12418W        W55331   2.422  29.361  16.687  0.0843  0.3416  0.2387
12419W        W55332  27.962  21.336  14.325  0.0857 -0.2955  0.0557
12420W        W55333  33.730  19.775  14.803 -0.0683  0.0823  0.1233
12421W        W55334   9.810  17.407  19.270  0.0541 -0.2583 -0.0247
12422W        W55335   6.121  25.173  13.965 -0.1637  0.4022  0.1784
12423W        W55336   3.268  15.211  27.376 -0.1807 -0.1871 -0.3138
12424W        W55337  28.095  34.475  15.923 -0.3628 -0.0078  0.1891
12425W        W55338  29.112  28.848  20.548  0.0366 -0.1788  0.2374
12426W        W55339   0.008  12.975  15.709  0.1366 -0.3957  0.0776
12427W        W55340   0.366  10.624  21.442  0.2848  0.0890 -0.1214
12428W        W55341   4.222  27.824  14.451  0.3989  0.1665  0.0380
12429W        W55342   1.001  23.054  21.666 -0.4452  0.4183 -0.3405
12430W        W55343   5.224  16.603  20.814  0.0738  0.0079 -0.0314
12431W        W55344   5.540  15.634  15.921  0.3991 -0.3254 -0.1492
12432W        W55345  32.002  16.910  21.373 -0.1380  0.0611  0.2213
12433W        W55346   5.109  15.582  20.588  0.0781  0.4553  0.1671
12434W        W55347  33.896  30.996  15.647 -0.1726 -0.1375  0.1437
12435W        W55348  30.089  15.906  19.731 -0.0319 -0.1200 -0.3634
12436W        W55349  24.272   6.993  27.562  0.0173 -0.0495  0.0961
12437W        W55350  27.691  19.228  20.522 -0.0059  0.1748 -0.1983
12438W        W55351  34.457  12.623  18.753 -0.0907  0.3099  0.4344
12439W        W55352   3.100  16.149  15.618 -0.0812  0.0582  0.0103
12440W        W55353  31.220  15.902  14.734 -0.1785 -0.1586 -0.3436
12441W        W55354   0.470  11.948  14.862 -0.0369 -0.1054  0.0935
12442W        W55355  11.103   8.095  22.499 -0.0092 -0.3290  0.0016
12443W        W55356  33.878  17.444   4.979  0.2484 -0.1586 -0.3288
12444W        W55357  29.743  26.689  21.195  0.1153  0.0573 -0.0456
12445W        W55358   6.282  28.060   0.625 -0.0647 -0.1678  0.0368
12446W        W55359   6.253  20.227  25.343  0.1981  0.0541 -0.0652
12447W        W55360  34.004  19.837   2.469 -0.0184 -0.2201  0.2342
12448W        W55361  30.305  23.012  14.875  0.0252 -0.1868  0.0115
12449W        W55362   7.165  20.204  24.919  0.1298 -0.0705 -0.1040
12450W        W55363  32.339  11.471  23.078 -0.0632  0.0553  0.1644
12451W        W55364  19.106  26.495  23.456 -0.0389 -0.1939 -0.2412
12452W        W55365   4.289  23.945  19.122 -0.1934 -0.1377  0.0368
12453W        W55366   2.864  26.744  18.591  0.0234  0.0429  0.1731
12454W        W55367  33.700  27.286  14.955 -0.0733  0.3230 -0.0796
12455W        W55368   1.958  21.569  20.939 -0.0786 -0.4413  0.2109
12456W        W55369   8.055  14.504  20.646  0.0590 -0.3368 -0.2986
12457W        W55370   5.073  18.143  18.228 -0.2262 -0.3056  0.1055
12458W        W55371   3.960  26.248  19.311  0.0913  0.2597  0.1155
12459W        W55372   2.804  20.996  19.503  0.3173 -0.3797 -0.1053
12460W        W55373  30.697  18.342  22.720  0.1295 -0.0539  0.0414
12461W        W55374  32.476  27.865  16.036 -0.2379  0.0967  0.1251
12462W        W55375   6.142  24.735  19.117 -0.0186 -0.4103 -0.0155
12463W        W55376  28.534  28.256  15.344  0.1543 -0.2593 -0.2264
12464W        W55377   7.056  17.631  21.101 -0.1240  0.0441 -0.3665
12465W        W55378   0.695  25.796  16.107 -0.2382 -0.2743  0.1982
12466W        W55379   1.926  23.433  15.885 -0.2945 -0.3615  0.1126
12467W        W55380   4.509  13.002  18.869 -0.2077  0.5554 -0.3779
12468W        W55381   0.238  17.551  16.214  0.2215  0.0149  0.0326
12469W        W55382  34.431   8.024  21.563 -0.0425  0.1491 -0.0037
12470W        W55383   0.851  24.455  14.274 -0.3979  0.1416 -0.3833
12471W        W55384  29.765   8.105  25.004 -0.1484  0.1518 -0.0048
12472W        W55385  27.359  19.244  15.658 -0.2342  0.1928 -0.3772
12473W        W55386   3.806  20.241  14.624  0.0827  0.0029 -0.1743
12474W        W55387   0.626  26.846  27.210  0.1040 -0.4727 -0.1146
12475W        W55388   0.770  13.772  23.482 -0.0835  0.4052 -0.0309
12476W        W55389   4.862  12.345  15.347  0.0256 -0.3111 -0.1896
12477W        W55390  23.418  20.760  22.909  0.1024 -0.3560 -0.0624
12478W        W55391   2.179  11.952  21.717 -0.3570 -0.3256  0.1030
12479W        W55392  29.965  27.190  16.160 -0.2725 -0.3761 -0.1471
12480W        W55393   4.371  24.344  14.032 -0.0539  0.3777  0.1363
12481W        W55394  20.374  19.444  14.943  0.0244  0.0065 -0.0331
12482W        W55395  31.937  26.130  23.409  0.2293  0.0185  0.1190
12483W        W55396   7.909  18.435  13.666  0.4035 -0.1401 -0.1240
12484W        W55397  33.139  21.428  17.780 -0.2892  0.0311  0.0688
12485W        W55398   5.475  22.029  14.992 -0.4757  0.0633 -0.0169
12486W        W55399  31.238  25.247  20.176  0.3779 -0.1034  0.0556
12487W        W55400   9.316  25.277  25.858 -0.1030  0.1549 -0.2079
12488W        W55401  27.940  22.696  29.541  0.1296  0.2353  0.1258
12489W        W55402  30.752  18.307  21.266  0.0372  0.0996  0.3164
12490W        W55403  34.044  16.452  23.387 -0.2166  0.0906 -0.3966
12491W        W55404   1.178  23.780  24.081 -0.1984  0.1615  0.1822
12492W        W55405   3.229  10.552  17.127  0.2929 -0.0462 -0.1307
12493W        W55406   3.579  18.732   0.766 -0.0326 -0.3641  0.4408
12494W        W55407   1.400  14.992  17.214 -0.1347  0.0953 -0.2069
12495W        W55408   4.419  23.490  20.263 -0.1152 -0.0542  0.0625
12496W        W55409  33.159  23.988  15.996  0.1028 -0.5211  0.2601
12497W        W55410   5.173  26.676  14.152  0.0584  0.0672 -0.0397
12498W        W55411   8.681  26.279  17.262  0.0678 -0.4846  0.3146
12499W        W55412   6.402  22.242   1.251  0.2182  0.0881  0.0890
12500W        W55413   8.249  15.415  23.355  0.0632 -0.0575  0.3080
12501W        W55414   5.854  12.397  18.512 -0.0213 -0.0161  0.1243
12502W        W55415  26.435  14.322  26.014  0.1730  0.1019  0.0653
12503W        W55416   2.496  25.833  19.173  0.0674  0.0037  0.1204
12504W        W55417  33.545  12.382  22.781 -0.0936  0.1312 -0.2534
12505W        W55418  10.105  21.678  16.479 -0.1067  0.1196  0.1372
12506W        W55419  33.170  10.481  23.258 -0.0832 -0.0289  0.0534
12507W        W55420   1.647  27.591   1.202 -0.1144  0.1434  0.1233
12508W        W55421   8.048  25.014  21.751 -0.1103  0.1969  0.0121
12509W        W55422   3.962  17.796  17.627  0.0937 -0.1390  0.0685
12510W        W55423   0.902  13.551  20.042  0.3567 -0.3482 -0.1217
12511W        W55424  30.981  24.415  22.963 -0.1343  0.0515  0.1165
12512W        W55425  33.484  31.365  14.973 -0.0200 -0.0365 -0.0512
12513W        W55426   4.416   8.258  17.330 -0.1137 -0.0720 -0.0636
12514W        W55427  29.723  25.486  22.171  0.0227  0.1501 -0.0422
12515W        W55428   7.095  18.591  22.730 -0.0346 -0.3008 -0.0274
12516W        W55429   6.252  26.929  14.648  0.0921  0.1117 -0.1191
12517W        W55430   1.988  13.159  15.710  0.0648  0.1866 -0.2078
12518W        W55431  23.445  17.253  18.719 -0.3223  0.1571 -0.0865
12519W        W55432   8.176  12.163  15.499 -0.0559 -0.0974 -0.1009
12520W        W55433   6.030  27.388  20.842 -0.0365  0.3247  0.0108
12521W        W55434   0.094  21.732  17.471  0.0282 -0.2828  0.1942
12522W        W55435  30.854  26.832  16.249  0.1250  0.0769  0.2718
12523W        W55436  30.976  28.552  15.593  0.0646 -0.3144  0.0323
12524W        W55437   3.942  14.433  24.263 -0.0005  0.1305 -0.0450
12525W        W55438  32.051   9.690  25.235 -0.2482  0.0453  0.3677
12526W        W55439  31.411  19.654  19.131  0.0734 -0.0564  0.0753
12527W        W55440  33.639  21.734  16.037 -0.0435 -0.0383  0.2358
12528W        W55441   6.314  18.931  18.410 -0.1075 -0.1377  0.2102
12529W        W55442   3.210  23.163  17.676 -0.0626  0.3685  0.0853
12530W        W55443  30.880   6.769  15.282  0.0978  0.2710  0.1120
12531W        W55444  11.232  12.196  19.998 -0.1625  0.0095 -0.3973
12532W        W55445  12.313  15.663   0.666 -0.1611  0.0790 -0.0305
12533W        W55446   6.498  15.301  21.153  0.0929  0.0795 -0.0067
12534W        W55447  32.743  27.458  18.652  0.1964 -0.1642 -0.1557
12535W        W55448  31.342  27.315  15.080  0.1373 -0.0278  0.1569
12536W        W55449   7.858  14.499  14.833  0.0376 -0.3452  0.2047
12537W        W55450   0.554  31.736  20.405 -0.2288 -0.0330 -0.1763
12538W        W55451   0.620  17.950  18.591 -0.3097 -0.2299  0.2514
12539W        W55452  10.377  22.523  17.550 -0.0744 -0.2345  0.2774
12540W        W55453   2.640  26.691  19.664 -0.1987  0.0366 -0.2010
12541W        W55454   7.448   9.802  18.080  0.3188  0.3494 -0.2955
12542W        W55455   5.036  14.798  16.977  0.3832 -0.2870 -0.0505
12543W        W55456  12.936  19.115  14.327 -0.0692  0.2064  0.2758
12544W        W55457   2.330  31.137  22.147  0.1771 -0.0715 -0.2897
12545W        W55458   4.989  28.288  18.708  0.2242 -0.3124 -0.0815
12546W        W55459  33.113  20.523  26.663 -0.1384  0.0820 -0.1174
12547W        W55460   7.728  22.812  19.456  0.1810 -0.2848 -0.0357
12548W        W55461   0.060  25.897  24.461 -0.1008  0.0824 -0.1213
12549W        W55462   6.395  12.348  22.412  0.0017 -0.2621 -0.2753
12550W        W55463   3.988  15.751  25.817 -0.0330 -0.1550  0.0898
12551W        W55464  32.220  19.546  23.580  0.2413 -0.1401 -0.3041
12552W        W55465   7.021  32.212  23.254 -0.0181 -0.0847  0.3344
12553W        W55466   2.224  25.874  23.253  0.1883 -0.1354  0.0062
12554W        W55467  31.361  28.149  17.392  0.0575  0.1213  0.0387
12555W        W55468   1.606  19.483  21.668 -0.1169  0.1563  0.0700
12556W        W55469   2.631  17.920  20.864 -0.1080  0.0503  0.1009
12557W        W55470   3.143  13.013  20.234  0.0990 -0.2045 -0.1279
12558W        W55471   4.820  26.761  17.679  0.1477 -0.0116 -0.1146
12559W        W55472   6.340  21.931  17.228  0.1890  0.0866 -0.0967
12560W        W55473   3.584  26.615  18.182 -0.1252 -0.1621 -0.0146
12561W        W55474   0.179  21.919  28.438  0.1177 -0.1746  0.0227
12562W        W55475   5.196  29.059  20.620  0.0122  0.1745  0.2264
12563W        W55476   1.734  34.295  19.968  0.2691 -0.0411  0.0167
12564W        W55477  34.011  25.927  23.125  0.2012 -0.0440 -0.3426
12565W        W55478   7.085  20.074  23.599  0.4104  0.1748  0.2182
12566W        W55479   7.212  25.306  27.282 -0.0478  0.3923  0.0334
12567W        W55480   6.815  23.637  17.135  0.1008  0.4466  0.2377
12568W        W55481  27.441   1.522  19.599  0.0712 -0.3004  0.1807
12569W        W55482   1.565  29.159  17.658 -0.1763  0.0258 -0.3716
12570W        W55483  30.321  15.839  15.063 -0.1191 -0.1422 -0.0854
12571W        W55484   9.057  19.228  15.316  0.4333 -0.2173 -0.2225
12572W        W55485   5.764  16.339  19.178  0.2380 -0.1996  0.1625
12573W        W55486  31.576  16.758  23.176 -0.2533 -0.0410  0.0934
12574W        W55487   7.804  21.809  13.898 -0.0852 -0.0649  0.0298
12575W        W55488   3.994  22.898  15.099 -0.0543  0.0710 -0.2331
12576W        W55489   0.677  24.293  17.197  0.1802  0.1752 -0.1401
12577W        W55490  29.868  17.011  15.832 -0.1872  0.2885  0.1874
12578W        W55491  26.806  15.385  15.657  0.0515 -0.2283  0.1767
12579W        W55492  32.209  14.903  16.931 -0.3096  0.1967 -0.5166
12580W        W55493   9.399  26.036  25.532 -0.2760  0.1205  0.2877
12581W        W55494   5.205  15.940  20.155 -0.0229 -0.0685 -0.5010
12582W        W55495  33.428  28.128  19.794  0.4615  0.0265  0.4571
12583W        W55496   3.889  18.100  22.097 -0.0910  0.0279 -0.0371
12584W        W55497  33.624  17.449  14.527  0.1040 -0.1523 -0.0799
12585W        W55498   4.427   9.182  17.327  0.2163 -0.0033  0.0679
12586W        W55499   9.665  15.166  18.106 -0.0559 -0.1979 -0.2557
12587W        W55500  31.625  31.248  15.625 -0.0830  0.0641 -0.1669
12588W        W55501  30.645  11.588  14.708 -0.3209  0.1290  0.1923
12589W        W55502   0.711  12.580  17.104  0.3017 -0.1366  0.2001
12590W        W55503   4.821  23.094  16.873  0.0437 -0.2126 -0.0112
12591W        W55504  30.917  24.730  25.786 -0.0546 -0.1664 -0.1158
12592W        W55505   0.375  17.068  18.423 -0.0414  0.0112  0.0702
12593W        W55506  18.188  13.622  16.875 -0.1210  0.2606  0.0513
12594W        W55507   7.890  27.425  16.373  0.1939  0.1009  0.1532
12595W        W55508  24.315  23.099   0.639  0.0490  0.3572  0.1971
12596W        W55509  20.973  24.927  18.262  0.1297 -0.1174  0.1471
12597W        W55510  13.593  28.842  19.634 -0.2356 -0.0457  0.0452
12598W        W55511  33.245  10.940  21.777 -0.0177 -0.0463 -0.3758
12599W        W55512   4.475  27.068  21.659 -0.0050 -0.3265  0.0458
12600W        W55513  10.977  18.739  16.389  0.2388 -0.1849  0.1007
12601W        W55514   5.276   2.086  19.193 -0.0111  0.1403  0.1200
12602W        W55515   8.330  18.196  17.470  0.0762 -0.4223  0.0755
12603W        W55516  31.890  25.892  14.115 -0.0836 -0.1707 -0.1147
12604W        W55517  13.977  18.892  15.270  0.0431  0.0620 -0.0145
12605W        W55518   1.794  20.868  15.461  0.0209 -0.0818 -0.0941
12606W        W55519   8.554  23.487  14.948  0.0429  0.3875 -0.3753
12607W        W55520   8.710  19.640  19.330 -0.1695  0.0868 -0.0914
12608W        W55521  32.139  14.297  16.289  0.1118 -0.2397 -0.2223
12609W        W55522  33.147  21.641  17.283  0.3841  0.0950  0.1218
12610W        W55523   4.723  26.900  18.294 -0.2014  0.4638 -0.0395
12611W        W55524   8.552  18.963  24.067 -0.0980 -0.2647  0.0052
12612W        W55525   6.299  18.557  21.486  0.0532 -0.2252 -0.0314
12613W        W55526  33.391  19.506  18.672  0.1123 -0.1723  0.1298
12614W        W55527   1.866  27.146  19.739  0.2502 -0.6480  0.0750
12615W        W55528   3.355  20.739  14.562 -0.0398  0.1663 -0.1331
12616W        W55529  28.487  26.199  21.784  0.2558 -0.0311  0.3384
12617W        W55530   1.342   8.193  25.555  0.1081  0.0669 -0.0908
12618W        W55531  28.560  18.270  16.244 -0.0964  0.1516 -0.0256
12619W        W55532  23.394  20.565  18.402  0.1219 -0.1279 -0.0378
12620W        W55533   1.437  18.477  18.929  0.0235  0.1103 -0.1640
12621W        W55534  32.889  23.642  18.853  0.2131 -0.4827  0.0254
12622W        W55535  28.814  16.278  15.963 -0.0009 -0.2184 -0.3292
12623W        W55536   3.894  19.899  13.733 -0.0166  0.1089 -0.1155
12624W        W55537   5.032  24.059  26.123 -0.3792 -0.3860 -0.1208
12625W        W55538  32.476  28.427  26.112  0.2595  0.1804 -0.0404
12626W        W55539   2.441  14.722  22.786  0.0448  0.0664 -0.0985
12627W        W55540  33.829   8.694  21.593 -0.1291 -0.3254 -0.2634
12628W        W55541  32.072  28.392  17.935  0.3031 -0.3123 -0.0505
12629W        W55542   1.152  13.334  18.096 -0.0717  0.0595 -0.1758
12630W        W55543  29.839  19.953  23.900  0.2348  0.1150 -0.0873
12631W        W55544  31.671  15.897  14.381  0.1206 -0.0618  0.5239
12632W        W55545   1.472  20.207  23.531 -0.1930 -0.4082 -0.0766
12633W        W55546   4.165  15.726  14.269 -0.0413 -0.0311  0.1597
12634W        W55547   2.964  17.321  19.199  0.0762 -0.1935 -0.0146
12635W        W55548   7.726  17.124  16.573  0.2154 -0.1633 -0.2083
12636W        W55549  31.533  11.773  27.221 -0.1687  0.1074 -0.1409
12637W        W55550  25.819  14.187  18.294 -0.0294  0.0761  0.2296
12638W        W55551  33.378  11.848  16.491 -0.3283 -0.0261 -0.0753
12639W        W55552   3.942  15.348  22.957  0.2226 -0.0974 -0.2023
12640W        W55553   9.426  16.332  21.387 -0.0144 -0.0222 -0.1443
12641W        W55554  12.637  24.567  18.254  0.3612  0.1788 -0.0843
12642W        W55555  32.337  20.792  17.590 -0.2690 -0.1822 -0.0871
12643W        W55556   8.313  31.191  20.057  0.1837  0.0276  0.2806
12644W        W55557   6.207  27.295  15.353 -0.2114 -0.3943  0.1909
12645W        W55558   4.316  18.292  23.410  0.1037  0.1132  0.2633
12646W        W55559  30.152  20.097  22.495  0.0455  0.0625 -0.0220
12647W        W55560  28.211  26.120  17.192 -0.1027 -0.6344  0.3884
12648W        W55561   1.839  25.863  24.700  0.0432  0.0221  0.1117
12649W        W55562  24.432  13.719  18.692 -0.4277  0.0615 -0.0679
12650W        W55563  12.807  26.925  20.801 -0.1530  0.0311  0.0112
12651W        W55564  27.324   0.312  23.389 -0.1597 -0.1414 -0.1560
12652W        W55565  13.686  26.074  16.096  0.1388 -0.0320 -0.0896
12653W        W55566   0.389  13.053  14.853 -0.0896 -0.2216 -0.0872
12654W        W55567  24.371  17.747  23.018  0.0912  0.3920  0.1955
12655W        W55568   0.455  25.518  20.258  0.2623  0.0077 -0.1789
12656W        W55569  30.302  29.749  20.327  0.2883 -0.1240 -0.0553
12657W        W55570   9.692  28.945  17.388  0.3138  0.2795  0.3054
12658W        W55571   4.667  22.372  22.268 -0.0208 -0.3006 -0.0080
12659W        W55572  27.330  26.376  18.367 -0.1009  0.1492  0.2698
12660W        W55573   1.524  17.606  13.267  0.1445 -0.3382 -0.0986
12661W        W55574  30.375  19.727  18.974 -0.1476  0.0483 -0.2987
12662W        W55575   5.837  20.413  15.187  0.0730  0.0661 -0.1425
12663W        W55576  27.758  19.417  29.763 -0.1371  0.0078 -0.1874
12664W        W55577   5.465  16.329  27.891  0.5123 -0.0991 -0.1265
12665W        W55578   1.837   9.779  23.919  0.2946 -0.0081  0.3143
12666W        W55579   1.421  18.968  13.954  0.0312  0.0862  0.0009
12667W        W55580   6.421  25.287  27.896  0.1634 -0.0339 -0.1151
12668W        W55581  12.139  22.858  23.878  0.1912 -0.0314 -0.0642
12669W        W55582   3.641  16.442  17.908 -0.0757  0.0226 -0.4444
12670W        W55583  10.060  15.719  16.378 -0.0212 -0.1916  0.0647
12671W        W55584   2.070  21.098  20.683 -0.1919 -0.0344  0.0505
12672W        W55585   2.891  18.558  25.760  0.1973 -0.3577 -0.0451
12673W        W55586  27.834  30.593  22.766  0.1105 -0.0029 -0.1613
12674W        W55587  12.873  22.393  18.821  0.2612 -0.2162 -0.1837
12675W        W55588  15.438  13.738  14.955 -0.0829 -0.0465  0.0651
12676W        W55589   5.804  12.516  21.914 -0.4768  0.0096  0.2530
12677W        W55590   2.991  19.277  16.373  0.1739  0.1599 -0.0636
12678W        W55591  19.263  17.727  14.084 -0.0376 -0.1488 -0.2786
12679W        W55592   2.588  16.865  21.116  0.0969 -0.0741 -0.2350
12680W        W55593  34.495  20.737  18.658  0.0341  0.4222  0.0915
12681W        W55594   2.745  23.471   6.923 -0.0576 -0.3775 -0.0202
12682W        W55595   0.962  22.049  15.672  0.2318 -0.4892  0.1666
12683W        W55596   8.933  10.641   9.811  0.2298  0.0628 -0.0392
12684W        W55597  10.916  18.996  24.678 -0.1143  0.3344  0.1137
12685W        W55598  33.967  15.430  21.814  0.1705  0.0627  0.0430
12686W        W55599   1.548  10.632  21.864 -0.2054 -0.2429 -0.2207
12687W        W55600  33.495  26.369  16.896  0.2898  0.0229 -0.1959
12688W        W55601   1.496  33.604  18.652 -0.3832 -0.2502  0.2203
12689W        W55602  28.827  15.924  15.046  0.1719 -0.2564 -0.0240
12690W        W55603  10.821  21.417  16.231 -0.4404  0.2058 -0.1292
12691W        W55604  31.902  19.769  25.430  0.0634  0.1138 -0.2572
12692W        W55605  26.090  23.092  23.255  0.0370  0.4926 -0.1782
12693W        W55606   1.700  19.507  26.510  0.2568 -0.0599 -0.1673
12694W        W55607   5.076  18.434  14.764 -0.0491 -0.0607 -0.0909
12695W        W55608   0.885  14.420  24.373  0.1818  0.0363 -0.3230
12696W        W55609   2.391  29.066  19.545 -0.0250 -0.2940  0.1764
12697W        W55610   7.913  22.181  22.908 -0.1491 -0.1008  0.0784
12698W        W55611  33.406  28.690  29.419  0.1411  0.3002  0.1521
12699W        W55612   5.582  19.911  17.167  0.0315  0.1962  0.0291
12700W        W55613  16.495  33.593  26.508 -0.2009  0.2565 -0.3212
12701W        W55614   6.156  15.069  24.314  0.1257  0.0121  0.1729
12702W        W55615  14.089  29.483  15.944  0.3171 -0.2477  0.3720
12703W        W55616   2.470  20.201  14.665 -0.2012  0.3703  0.2022
12704W        W55617  32.488  15.893  21.532  0.1188  0.0801 -0.1484
12705W        W55618  29.599  20.056  25.717 -0.2195 -0.1534 -0.1958
12706W        W55619   0.205  22.058  24.542  0.1969  0.0506 -0.3225
12707W        W55620   9.734  16.319  14.665 -0.1363  0.0291  0.0165
12708W        W55621   0.324  18.039  19.515 -0.2927 -0.1352  0.0667
12709W        W55622   2.262  17.027  13.680  0.0058  0.1960  0.0300
12710W        W55623   2.317  16.389  25.755 -0.0321 -0.0178  0.0309
12711W        W55624   6.096   9.676  16.748 -0.0272  0.0396 -0.0625
12712W        W55625  15.285  22.741  13.287  0.0478 -0.2475 -0.1687
12713W        W55626   4.034  19.472  14.418  0.3593 -0.0337 -0.2360
12714W        W55627  30.457  22.845  24.570 -0.1688 -0.2503  0.1017
12715W        W55628  23.494  31.454  19.770  0.1774 -0.1624 -0.0162
12716W        W55629  27.967  17.128  14.814 -0.0110  0.2094 -0.1743
12717W        W55630  30.533  22.730  25.368  0.3318  0.0404  0.0459
12718W        W55631   4.618  24.666  15.754 -0.1272 -0.3325  0.1610
12719W        W55632  31.913  20.943  17.995  0.0041  0.2947 -0.1269
12720W        W55633   3.618  22.409  15.637 -0.4244  0.1280 -0.0005
12721W        W55634   4.483  17.976  15.436  0.0999 -0.1091 -0.0319
12722W        W55635  28.857   2.579  17.647  0.1180 -0.0260 -0.2878
12723W        W55636  11.409  13.479  16.804  0.0457 -0.0060 -0.4425
12724W        W55637   0.810  27.478  23.053 -0.0179 -0.0073  0.0138
12725W        W55638   2.893  22.560  24.131  0.1238  0.2487  0.0550
12726W        W55639  12.657  23.094  23.497  0.0453  0.6550  0.0930
12727W        W55640  27.603  19.972  19.210  0.0901 -0.2294  0.1491
12728W        W55641  13.486  24.439  27.738  0.0468 -0.1161  0.2759
12729W        W55642  30.935  19.529  17.353  0.0994  0.1691  0.0805
12730W        W55643  27.883  23.679  19.600  0.1920  0.2506 -0.0412
12731W        W55644  32.540  30.622  24.559  0.3238 -0.2178  0.0678
12732W        W55645  27.840  18.346  18.076  0.3145  0.2632 -0.2574
12733W        W55646   6.850  28.497  22.736 -0.0645  0.3449  0.0768
12734W        W55647  10.082  15.777  18.278 -0.1061 -0.5400 -0.7765
12735W        W55648   6.609  12.704  28.291  0.1694  0.0577  0.0121
12736W        W55649   6.192  32.818  21.708  0.0286 -0.1311  0.0328
12737W        W55650  31.929  18.823  24.519 -0.0330  0.1897 -0.0911
12738W        W55651   0.534  11.614  20.757  0.0919 -0.1524  0.1058
12739W        W55652   2.326  25.375  21.505  0.1281  0.0828 -0.2620
12740W        W55653   7.475  22.914  22.533 -0.0288 -0.1107  0.0155
12741W        W55654  24.632  22.749  27.686  0.0146 -0.2919 -0.0822
12742W        W55655   2.364   0.120  19.436  0.0328  0.2105  0.0072
12743W        W55656  12.114  15.396  25.591  0.1755 -0.3008  0.2239
12744W        W55657   8.651  20.870  21.754  0.2001 -0.4042 -0.3076
12745W        W55658   3.551   7.718  28.946 -0.1500  0.0294  0.2289
12746W        W55659  33.515  16.818  20.937  0.1067 -0.1359 -0.1123
12747W        W55660  33.889  18.655  18.159 -0.1057  0.1050 -0.0143
12748W        W55661  11.155   6.652  16.176 -0.0596 -0.1508  0.6189
12749W        W55662  32.782  27.210  14.025 -0.2805 -0.2281  0.0957
12750W        W55663  33.904  12.511  18.174 -0.4430 -0.1254 -0.4181
12751W        W55664  32.221  24.701  28.214  0.2611  0.2582  0.2268
12752W        W55665   0.972  16.264  19.702 -0.2463  0.0085  0.0612
12753W        W55666  33.412  29.455  16.338 -0.5262  0.0072 -0.0837
12754W        W55667   4.955  19.969  25.841 -0.0491 -0.2325  0.1768
12755W        W55668  12.733   9.306  15.145 -0.1063  0.3108 -0.0319
12756W        W55669   1.561  20.204  14.548 -0.0888 -0.2368 -0.2102
12757W        W55670  31.001  22.515  25.347 -0.0641  0.0766  0.0597
12758W        W55671   5.360  16.691  24.633  0.1250 -0.0460 -0.0646
12759W        W55672   2.616  18.097  26.954  0.1464  0.2212  0.0254
12760W        W55673   5.523  26.128  15.524  0.2638 -0.0421 -0.1165
12761W        W55674   6.355  20.629  24.440  0.2414 -0.2082 -0.3273
12762W        W55675  33.014  15.000  18.272 -0.5296 -0.0442 -0.1507
12763W        W55676  28.662  18.416  17.113 -0.0239  0.0562 -0.0191
12764W        W55677  30.610  19.263  18.906  0.1249  0.0156 -0.0130
12765W        W55678   5.194   1.229  18.440 -0.0556  0.1300  0.2023
12766W        W55679  10.602  19.269  13.750 -0.1237  0.2904 -0.0208
12767W        W55680   6.557  21.216  14.593  0.2451  0.2223 -0.0641
12768W        W55681  31.521  26.139  26.548 -0.1361  0.1040 -0.0200
12769W        W55682   0.743  13.041  19.445 -0.1409 -0.1019 -0.0934
12770W        W55683   5.122  18.666  18.908 -0.1510 -0.1563  0.1111
12771W        W55684   0.150  17.650  21.673  0.1557 -0.3182  0.1261
12772W        W55685  25.879  24.100  23.641  0.2563 -0.0189 -0.0747
12773W        W55686   3.568  22.711  19.740  0.0318 -0.0096  0.1383
12774W        W55687  33.731  19.628  14.053  0.0129 -0.2293  0.2144
12775W        W55688   2.700  12.102  17.142 -0.1648  0.1303 -0.0437
12776W        W55689   8.901  17.647  14.230 -0.0354 -0.0022 -0.1586
12777W        W55690   2.614  12.903  26.275  0.2315  0.1494 -0.1516
12778W        W55691  33.975  23.212   4.082  0.0506  0.1640  0.4116
12779W        W55692   6.446  19.965  26.053  0.2828 -0.1868 -0.1386
12780W        W55693   4.415   9.962  19.524 -0.2199  0.0612  0.0185
12781W        W55694  26.402  24.346  26.279 -0.0335 -0.1916 -0.1669
12782W        W55695   7.276  21.176  16.837  0.1649 -0.0821  0.0359
12783W        W55696   1.833  17.267  19.187 -0.1950 -0.0795 -0.1316
12784W        W55697   1.586  16.976  19.978  0.0984  0.1195  0.0679
12785W        W55698   3.598   9.391  20.047 -0.2205  0.1746 -0.3026
12786W        W55699   0.980  21.903   0.814 -0.2465  0.0623  0.1239
12787W        W55700  34.206  26.423  23.059 -0.1194 -0.0470  0.1061
12788W        W55701   2.018  17.839  15.494  0.0871 -0.1931 -0.2477
12789W        W55702  28.465  20.919  24.693  0.3386 -0.1917 -0.1456
12790W        W55703   5.679  34.164  17.917  0.3292 -0.2775 -0.0307
12791W        W55704  27.372  20.102  18.171  0.1331 -0.1270  0.0486
12792W        W55705   2.116  19.131  22.731  0.0030 -0.1590  0.1929
12793W        W55706  33.396  21.316  23.347  0.1188  0.2485 -0.1954
12794W        W55707   9.563  19.975  15.304  0.3110  0.1554 -0.1111
12795W        W55708   7.474   0.378  19.013 -0.0615  0.3097  0.0217
12796W        W55709   2.549  13.496   3.257  0.3791 -0.0161 -0.1443
12797W        W55710  33.081  15.292  17.091  0.1529 -0.2101 -0.0577
12798W        W55711  14.060  31.584  16.570  0.0504  0.0860  0.1275
12799W        W55712  29.636  15.367  23.794 -0.1329  0.1236  0.0334
12800W        W55713  29.326  26.159  16.658 -0.0097  0.4372 -0.1717
12801W        W55714   2.529  23.858  18.051 -0.1034  0.0850 -0.1405
12802W        W55715   3.062  21.514  13.920 -0.1128  0.1596 -0.2054
12803W        W55716  27.207  19.161  26.119 -0.3316  0.1826 -0.0127
12804W        W55717   7.072  19.156  18.848  0.1969 -0.0329 -0.0134
12805W        W55718   8.706  29.082  27.429 -0.0641 -0.0550 -0.1338
12806W        W55719  31.537  20.881  22.515  0.0598 -0.1527 -0.1670
12807W        W55720   4.842  24.329  20.062 -0.2724  0.0474 -0.0849
12808W        W55721  31.284  27.517  18.149  0.1607  0.1893 -0.0165
12809W        W55722   1.813  32.578  14.331  0.1002 -0.2388 -0.6269
12810W        W55723  30.503  20.370  23.537  0.1685  0.1935 -0.0613
12811W        W55724   7.071  21.486  23.656  0.0299  0.0971 -0.1285
12812W        W55725   8.232  22.233  16.451 -0.1290 -0.1037 -0.0585
12813W        W55726   2.140  20.371   0.332  0.1587 -0.0540  0.1921
12814W        W55727  11.771  30.981  20.399 -0.0418  0.0058  0.0120
12815W        W55728  31.180  29.345  15.694 -0.1760  0.2106 -0.1520
12816W        W55729  22.227  20.273  23.531  0.0345 -0.1507 -0.0414
12817W        W55730  32.548  26.192  21.049  0.0441 -0.0349  0.0100
12818W        W55731   8.003  18.930   4.852 -0.2660 -0.0874 -0.0681
12819W        W55732   8.888  21.256  19.085 -0.0449  0.3426  0.0015
12820W        W55733   5.792  17.593  21.243 -0.0551  0.0565  0.1793
12821W        W55734   8.348  10.513  18.984 -0.1378 -0.0343 -0.1020
12822W        W55735   0.867   0.012  16.366  0.2530 -0.1016 -0.3401
12823W        W55736  28.753  22.869  28.400  0.2389 -0.1372 -0.2394
12824W        W55737  33.937  16.198  22.528  0.0327  0.3177  0.0208
12825W        W55738   1.929  21.489  14.180  0.0793 -0.0392 -0.0809
12826W        W55739  24.889  19.721  12.664  0.1265  0.3187  0.0661
12827W        W55740   0.979  30.766  22.219  0.0052 -0.1359 -0.0580
12828W        W55741  10.607  17.513  22.997 -0.2573  0.1111 -0.1453
12829W        W55742   6.797  14.246  26.493  0.2580 -0.1924 -0.3028
12830W        W55743  33.811   8.483  16.490  0.0363 -0.2477  0.4199
12831W        W55744   3.267  12.187  23.554 -0.1484  0.1183 -0.3326
12832W        W55745  15.219  20.441  12.168  0.1941  0.1247  0.1113
12833W        W55746  32.193  12.490  19.007  0.1620 -0.1461 -0.0266
12834W        W55747  33.267  22.115  15.150  0.1188  0.1478 -0.0787
12835W        W55748  11.740  20.828  15.928  0.0874  0.2631 -0.0698
12836W        W55749  31.743  26.404  15.272  0.1002 -0.0635 -0.1279
12837W        W55750  24.953  27.397  26.512 -0.1671 -0.0275 -0.0878
12838W        W55751  25.631  19.055  16.211  0.0612 -0.1008 -0.2008
12839W        W55752   1.660  28.237  17.201 -0.1922  0.0806 -0.1930
12840W        W55753   3.664  14.738  17.124 -0.0568  0.3884  0.1163
12841W        W55754  27.242  19.983  14.097  0.2480  0.0322 -0.1069
12842W        W55755   8.618  19.597  20.601  0.1248 -0.4429  0.0477
12843W        W55756  12.657  14.161  26.008  0.0131 -0.1316  0.6284
12844W        W55757   0.837  22.694  16.380 -0.3235  0.0111  0.1206
12845W        W55758  34.149  15.568  19.000  0.3208 -0.3220  0.0362
12846W        W55759  26.810  28.640  25.581 -0.0418  0.0473  0.3135
12847W        W55760  32.150  20.163  23.042 -0.1075 -0.0176  0.3497
12848W        W55761   8.615  28.794  24.307  0.3268 -0.0496 -0.1176
12849W        W55762  30.623  22.488  14.234 -0.3618 -0.0337 -0.0096
12850W        W55763  30.012  17.999  26.417 -0.2323  0.0435 -0.0899
12851W        W55764   1.068  13.546  22.339 -0.3467 -0.0835  0.0008
12852W        W55765   4.933  27.379  15.805 -0.0108  0.1357 -0.0212
12853W        W55766   4.022  23.382   5.447 -0.3919 -0.1594 -0.2663
12854W        W55767   2.858  27.325  27.692 -0.0820  0.2220  0.4197
12855W        W55768  32.347  28.859  19.299 -0.0267 -0.4052  0.1646
12856W        W55769  34.268  21.407  27.380 -0.3945 -0.0933 -0.1407
12857W        W55770   1.313  27.837  19.473  0.1731  0.0511 -0.3940
12858W        W55771   3.485  12.088  15.981  0.1065  0.0947 -0.1584
12859W        W55772   1.130  31.331  20.821  0.1401  0.1701 -0.2595
12860W        W55773  10.093  14.287  26.734 -0.2212 -0.1461 -0.3052
12861W        W55774   7.243  26.997  17.972 -0.1763 -0.2495  0.0658
12862W        W55775   0.197  14.957  16.230  0.0908 -0.3091  0.2199
12863W        W55776  29.152   8.046  15.441  0.1287  0.1396 -0.1872
12864W        W55777  30.993  25.257  25.557  0.0238  0.1316  0.2035
12865W        W55778  29.430  31.672  26.247  0.0149 -0.4032  0.0299
12866W        W55779  32.615  23.395  16.972  0.0166 -0.0021  0.0111
12867W        W55780   4.148  19.839   3.130  0.1141 -0.1439 -0.0557
12868W        W55781  27.209  13.676  21.272 -0.2995 -0.4221 -0.3043
12869W        W55782   3.225  15.659  17.331  0.0080  0.0143  0.0068
12870W        W55783  13.485  26.392  24.189 -0.1767  0.1784  0.0851
12871W        W55784  31.146  20.243  19.252 -0.0153  0.0065 -0.0581
12872W        W55785   2.981  24.184  14.363 -0.1075  0.0270  0.2497
12873W        W55786   3.645  16.941  26.245 -0.0047  0.3787  0.0754
12874W        W55787   3.696  21.101   1.578 -0.3231 -0.1500 -0.0558
12875W        W55788   3.824  18.298  16.504 -0.3642  0.2497 -0.1117
12876W        W55789   7.479   6.177  18.590 -0.0413  0.0374 -0.2080
12877W        W55790   3.509  15.742  13.599 -0.0363 -0.4039  0.1339
12878W        W55791  33.965  30.317  26.169  0.4037 -0.1931 -0.0030
12879W        W55792   0.559  13.609  16.512 -0.2792 -0.0809 -0.3345
12880W        W55793  34.446  14.038  20.718 -0.0487  0.1856 -0.0019
12881W        W55794  32.784  29.715  29.232 -0.2918 -0.0090 -0.3385
12882W        W55795   0.403  15.915  17.718  0.0100  0.0639 -0.0888
12883W        W55796  23.257  19.574  28.241 -0.1046 -0.4213 -0.0588
12884W        W55797  33.285  24.669  25.243 -0.2533 -0.1291 -0.1182
12885W        W55798   6.113  12.419  20.119 -0.2592 -0.2664  0.1784
12886W        W55799  10.454  30.220  17.240 -0.0077 -0.0770  0.0418
12887W        W55800   2.281  21.738  18.695  0.1463 -0.0796 -0.3423
12888W        W55801   3.565  14.494  16.669 -0.2250 -0.0663  0.2788
12889W        W55802   3.509  15.056  16.780  0.3840  0.3010  0.0949
12890W        W55803   5.034  24.854  14.704 -0.3059 -0.1408  0.2993
12891W        W55804  28.381  18.709  16.443  0.0547 -0.0815 -0.0504
12892W        W55805  32.301  17.955  14.625 -0.2629  0.2926  0.1392
12893W        W55806  26.729  20.428   3.713  0.0936 -0.3690  0.0905
12894W        W55807   4.303  23.879  23.274 -0.1378  0.1595 -0.0646
12895W        W55808   3.448  22.561  18.953  0.0738  0.0163  0.1120
12896W        W55809   2.854  24.377  15.585 -0.2121 -0.0917  0.2392
12897W        W55810   3.020  13.245  25.508 -0.3332 -0.2926  0.4349
12898W        W55811   1.856  26.676  19.742  0.0885  0.1321  0.2349
12899W        W55812   9.504  15.162  21.975 -0.3824  0.0689  0.1895
12900W        W55813  33.011  25.301  14.894  0.0951 -0.2218  0.1358
12901W        W55814   3.794  30.803  16.787 -0.1204  0.0147 -0.0839
12902W        W55815   2.006  18.270  14.268  0.0650 -0.0058  0.1246
12903W        W55816   8.167  21.562  13.470  0.0599  0.2168 -0.2779
12904W        W55817  26.789  19.771  29.430  0.0208  0.0879 -0.0538
12905W        W55818   8.068  28.793  18.189 -0.1053  0.0201  0.0279
12906W        W55819   5.262   9.833  18.358 -0.1359 -0.2621  0.0341
12907W        W55820  31.369  21.744  22.883  0.1209  0.1404  0.3181
12908W        W55821  24.660  23.381  23.243 -0.1264 -0.1606  0.2617
12909W        W55822   1.172   0.609  17.023 -0.2132  0.1850  0.0916
12910W        W55823  32.202  10.737  22.409 -0.1763 -0.0930  0.0984
12911W        W55824   3.254  13.551  20.417 -0.2445  0.0074  0.0348
12912W        W55825  25.694  22.035  22.065  0.0318 -0.0147 -0.2125
12913W        W55826   7.331  13.351  22.324  0.0393 -0.1255 -0.3155
12914W        W55827   5.869  25.700  18.023 -0.2661  0.1713  0.1680
12915W        W55828  30.707  14.541  23.527 -0.1666  0.0907  0.1043
12916W        W55829  31.154  14.537  16.628  0.1404  0.1889  0.0022
12917W        W55830   6.584  22.542  17.891  0.2325 -0.1296 -0.1738
12918W        W55831  30.618  19.656  19.495  0.0181  0.0888 -0.1697
12919W        W55832  11.011   8.756  16.717  0.1310 -0.0470 -0.0266
12920W        W55833  33.832  29.607  18.216 -0.1518  0.0358 -0.2055
12921W        W55834  32.642   7.669  26.441  0.1341 -0.1348  0.1768
12922W        W55835   2.352  23.496  17.270  0.1086  0.3422  0.2065
12923W        W55836   2.343  21.413  17.147 -0.1078  0.1775 -0.2245
12924W        W55837   4.068  23.591  21.674 -0.1096  0.1341 -0.0064
12925W        W55838   8.573  21.743  14.437 -0.0626 -0.1214  0.1875
12926W        W55839   0.326  19.382  20.868 -0.2114 -0.1537 -0.1951
12927W        W55840  26.619  23.607  22.608  0.0120 -0.1317  0.1573
12928W        W55841   4.828  17.851  27.424 -0.2919 -0.0098 -0.0251
12929W        W55842  30.988  20.178  13.224 -0.7043 -0.2735 -0.0160
12930W        W55843  32.953  17.273  23.696  0.0389 -0.0236 -0.0462
12931W        W55844  34.427  10.069  19.811  0.0071 -0.1063 -0.0975
12932W        W55845  23.314  20.314  25.494  0.1643 -0.1454 -0.2326
12933W        W55846  34.098   3.346  16.942 -0.1475 -0.0860  0.0724
12934W        W55847  22.074  21.613   1.417  0.3272 -0.1375  0.0805
12935W        W55848  26.471   8.164  20.602 -0.0045 -0.2759  0.1690
12936W        W55849   1.498  27.581  29.483 -0.2003 -0.2257  0.2131
12937W        W55850  10.796  25.060  28.107  0.1202  0.1823  0.1078
12938W        W55851  30.706  20.029   1.039  0.1213  0.1203 -0.0823
12939W        W55852   4.336  22.978  24.648 -0.5228 -0.1805 -0.0080
12940W        W55853  31.528  25.879  20.285 -0.4064 -0.1633  0.0851
12941W        W55854  30.827  25.240   0.831 -0.2744 -0.1057  0.2631
12942W        W55855  30.256  13.894  22.304  0.0684  0.2517 -0.0032
12943W        W55856   1.176  25.884  15.699 -0.2463  0.0006 -0.0495
12944W        W55857   7.283  18.761  26.094 -0.2654 -0.1971  0.1467
12945W        W55858  31.384  22.086  17.141 -0.0572 -0.1449  0.0500
12946W        W55859  28.695  31.506   1.862  0.0796  0.1942 -0.0938
12947W        W55860  24.575  15.651  20.905 -0.0790 -0.1402 -0.1044
12948W        W55861   1.699  27.775  17.951 -0.0915 -0.0901  0.3324
12949W        W55862   2.757  26.003  14.748 -0.3323  0.2415  0.1377
12950W        W55863   2.633  30.041  24.671 -0.1930  0.2744  0.1598
12951W        W55864  28.444  13.359   3.936 -0.1263 -0.2901  0.0705
12952W        W55865  30.992  13.796  24.016  0.1818 -0.2190 -0.0997
12953W        W55866  28.176  30.996  20.040  0.0557  0.1441  0.1328
12954W        W55867  29.396  18.160  16.655  0.1216  0.3273 -0.3826
12955W        W55868   4.974  19.524  15.790  0.1420  0.0311 -0.2234
12956W        W55869  32.279  18.957  28.685 -0.4412  0.0655 -0.0616
12957W        W55870  27.140   1.662   9.176 -0.2926 -0.0910  0.0737
12958W        W55871  13.941  25.030  16.448 -0.0225 -0.0168  0.1555
12959W        W55872   9.983  16.732  24.549  0.0346  0.0982  0.0057
12960W        W55873   7.462  12.749  16.166  0.0212  0.1845  0.3407
12961W        W55874   0.323  26.251  25.596 -0.1663 -0.1850  0.1858
12962W        W55875   3.558  25.394  21.904  0.4985 -0.1619  0.2530
12963W        W55876  31.797  24.973  18.663  0.0185 -0.4453 -0.1975
12964W        W55877   0.195  26.641  23.106  0.2605 -0.2231  0.1076
12965W        W55878   7.099  22.505  15.106  0.0893  0.0915  0.2238
12966W        W55879   4.832  16.504  28.164  0.0292 -0.0219  0.0698
12967W        W55880   4.568  13.135  17.732 -0.0414 -0.2875 -0.5187
12968W        W55881  29.616  30.283  20.218 -0.0898 -0.2216  0.0609
12969W        W55882   2.520   1.060  23.544  0.0777 -0.2254 -0.0094
12970W        W55883  30.522  28.064  16.111  0.1277 -0.1639 -0.1464
12971W        W55884  33.714   0.438   0.135  0.3646 -0.1153  0.0039
12972W        W55885  31.781  26.023  23.861 -0.0617  0.0877 -0.1856
12973W        W55886   3.941  19.473  16.024  0.0113  0.4147 -0.0099
12974W        W55887  13.912  13.017  12.949 -0.2579  0.0331 -0.2458
12975W        W55888   6.738  17.959  17.140  0.1107 -0.2405  0.3118
12976W        W55889  26.623  23.899  23.431 -0.0844  0.0095 -0.0257
12977W        W55890  29.261  25.254  18.136 -0.0224 -0.1538  0.1121
12978W        W55891  10.255  15.552  23.029 -0.0105  0.0287 -0.1268
12979W        W55892  29.679  13.908  14.425  0.2750  0.4315  0.2788
12980W        W55893  11.108  14.304  17.840  0.1760  0.2040  0.1326
12981W        W55894  26.691  11.134  18.866 -0.1591 -0.2364 -0.4167
12982W        W55895  23.242  32.628  21.431  0.1764  0.0261 -0.0354
12983W        W55896  31.048  11.269  15.334 -0.2620 -0.0090 -0.1703
12984W        W55897  10.671  13.443  20.024  0.0803  0.1353  0.2751
12985W        W55898   4.531  18.432  17.184 -0.0101 -0.2495  0.0484
12986W        W55899   5.119  23.449  14.729 -0.0153  0.2934 -0.0074
12987W        W55900   0.144  14.321  21.057 -0.0324 -0.2290 -0.1800
12988W        W55901   8.400  20.647  16.888  0.1296 -0.0440 -0.2509
12989W        W55902  29.158  23.525  24.534  0.2468  0.0782  0.1285
12990W        W55903  25.984  17.459   0.937 -0.1776  0.2710  0.1342
12991W        W55904   9.628  12.337  18.622 -0.0246  0.0178  0.4186
12992W        W55905  26.842  23.137  22.516 -0.2592  0.0912 -0.0797
12993W        W55906   9.884  11.495  22.494  0.2208 -0.1042  0.0296
12994W        W55907   9.153   5.949  20.614  0.0112 -0.1928  0.3021
12995W        W55908   1.582  19.694  13.138 -0.0033  0.2834 -0.1666
12996W        W55909  27.480  13.112  21.582  0.0266 -0.2746 -0.3750
12997W        W55910   3.861  32.550  20.724 -0.0916  0.0336  0.3568
12998W        W55911  27.239  17.782  18.181  0.0529 -0.1758 -0.0605
12999W        W55912   4.352  19.342  14.975  0.2807  0.1493  0.0570
13000W        W55913   7.130  18.612  21.995 -0.0327  0.1889 -0.2395
13001W        W55914   7.112  12.915  20.216  0.1915 -0.0642  0.2952
13002W        W55915  27.628  16.385  22.601 -0.1104  0.2089 -0.0157
13003W        W55916  28.951   4.652  26.722 -0.0574 -0.3959  0.2191
13004W        W55917  30.690  15.113  23.627  0.0631  0.3027 -0.0785
13005W        W55918   5.645  32.638  19.439  0.3664  0.0506  0.0729
13006W        W55919  34.354  13.570  26.789 -0.2042  0.2110  0.1813
13007W        W55920   0.796  12.017  21.065  0.0466 -0.0156 -0.1679
13008W        W55921   2.698  10.443  18.653 -0.1756 -0.2745 -0.0949
13009W        W55922   2.141  25.492  23.590 -0.2285 -0.1319 -0.3487
13010W        W55923  33.253  22.583  14.999 -0.0860 -0.0342 -0.0448
13011W        W55924  33.064  32.229  16.919 -0.1360 -0.1700 -0.2030
13012W        W55925  13.085   4.537  17.142 -0.2265 -0.1053  0.1921
13013W        W55926  32.357  20.860  13.800  0.0680  0.1935 -0.0921
13014W        W55927   2.217   7.264  24.933 -0.0027 -0.0870 -0.1793
13015W        W55928   7.546  19.800  19.805 -0.0551  0.0777 -0.3876
13016W        W55929  27.882  13.757  27.395  0.1421 -0.0029  0.0220
13017W        W55930  27.010  16.173  13.961 -0.0510 -0.1724  0.0087
13018W        W55931  31.646  22.348  17.963  0.0460 -0.1251 -0.1821
13019W        W55932  28.623  18.281  14.724  0.1697 -0.0669  0.1335
13020W        W55933  16.727  26.377   0.190 -0.0470  0.1140  0.1801
13021W        W55934   0.651   5.908  22.774  0.6063  0.3779  0.2763
13022W        W55935   3.698  29.855  22.814  0.2863  0.2559 -0.2525
13023W        W55936   4.745  16.798  22.868 -0.3213 -0.1079  0.0555
13024W        W55937  28.211  19.046   1.792  0.3895  0.1893  0.3475
13025W        W55938   0.040  20.466  16.374 -0.1389 -0.0345 -0.4197
13026W        W55939   8.090  24.251  15.680  0.1902 -0.0792  0.1530
13027W        W55940  25.803  14.127  15.292 -0.1856  0.0919 -0.0593
13028W        W55941   9.592  19.028  13.775  0.0198 -0.1859  0.1012
13029W        W55942  28.418   1.202  17.338  0.1216  0.2252  0.0218
13030W        W55943   4.876  22.505  24.184 -0.0865  0.1521  0.0869
13031W        W55944   0.767  27.397  26.411 -0.0161  0.1257  0.2871
13032W        W55945  34.218  19.170  19.654 -0.2935 -0.0179  0.2002
13033W        W55946   0.711   9.130  18.450  0.1742 -0.0446  0.0371
13034W        W55947   6.099  17.904  15.897  0.0386 -0.1922  0.1217
13035W        W55948  13.440  13.955  13.150 -0.2503 -0.0951  0.3324
13036W        W55949  28.143  28.876   3.667  0.0191 -0.1365 -0.1095
13037W        W55950   8.133  19.248  15.879 -0.0191  0.1173  0.2018
13038W        W55951  33.458  22.287  21.594 -0.1776 -0.1423 -0.0280
13039W        W55952  12.714  24.791  19.111 -0.1212  0.1095 -0.0662
13040W        W55953   4.477  14.219  18.573  0.2225  0.2702  0.1823
13041W        W55954   7.549  27.140   0.835 -0.0100 -0.1955 -0.0164
13042W        W55955   3.061  24.405  24.422 -0.3559 -0.0221  0.0784
13043W        W55956  34.105  17.787  14.355 -0.0329  0.3164 -0.0671
13044W        W55957   0.633  15.977  20.466 -0.0000  0.2343 -0.1545
13045W        W55958  10.984  17.684  29.727 -0.1321  0.4427  0.0098
13046W        W55959   0.534  11.229  14.627  0.0097  0.0978  0.1025
13047W        W55960  34.427  13.382  16.430  0.0176 -0.0339  0.1694
13048W        W55961   9.828  26.982  18.318  0.0626  0.2907  0.2097
13049W        W55962  31.153  20.865  21.456 -0.1771  0.2816  0.1077
13050W        W55963   2.575  21.389  15.280  0.1195 -0.1688 -0.0031
13051W        W55964   3.743  19.854  21.247  0.2881  0.2284 -0.1375
13052W        W55965  30.133  19.083  14.466 -0.0205  0.1147  0.3197
13053W        W55966   8.994  18.308  13.724 -0.2789 -0.2009 -0.0638
13054W        W55967  32.030  32.339  19.733 -0.0501  0.3677 -0.0841
13055W        W55968   3.945  13.770  17.506  0.1686 -0.0215  0.0030
13056W        W55969   1.808  20.571  14.840  0.0558 -0.2856 -0.0125
13057W        W55970  26.061  23.670  19.661 -0.0008  0.0248 -0.1331
13058W        W55971   1.598  27.108  14.694  0.3510  0.1352  0.3133
13059W        W55972   0.314  16.454  20.237  0.0304 -0.0630  0.1602
13060W        W55973   4.585  14.868  24.639  0.1871  0.0110  0.0699
13061W        W55974   3.575  13.632  17.014  0.1899 -0.1159  0.2194
13062W        W55975  33.418  18.489  19.924  0.0743  0.0059  0.0047
13063W        W55976   8.386  20.168  19.270 -0.0574  0.1203  0.1199
13064W        W55977   0.398  16.962  24.247 -0.0630 -0.2688 -0.1697
13065W        W55978   7.719  21.931  14.442 -0.0176 -0.0248  0.3414
13066W        W55979  33.763  25.385  27.252  0.1464  0.0649 -0.0581
13067W        W55980  25.764  18.873  21.248  0.1337 -0.1616  0.2023
13068W        W55981  34.102  21.806  15.721  0.1490  0.2192 -0.3101
13069W        W55982  22.143  21.118  27.653  0.3109 -0.0985  0.1550
13070W        W55983  31.521  17.284  21.918  0.2606  0.2404 -0.1777
13071W        W55984   4.802  25.088  15.540 -0.0717 -0.1062 -0.1792
13072W        W55985  30.740  22.698  17.347  0.0035  0.2051  0.1140
13073W        W55986  32.167  12.906  20.442  0.4107  0.0415  0.1709
13074W        W55987   2.317  17.547  28.571  0.2763  0.1216 -0.2828
13075W        W55988  28.411  26.508  17.400  0.0565 -0.1966  0.1415
13076W        W55989  24.883  19.573  22.822  0.2067 -0.1375 -0.2044
13077W        W55990   3.530   8.490  28.303 -0.1158 -0.1670 -0.0132
13078W        W55991   8.326  19.136  26.676 -0.1996  0.4606 -0.0673
13079W        W55992   2.190  22.922  26.584 -0.1408 -0.1020  0.0073
13080W        W55993  10.986  13.049  29.090 -0.0654  0.0558  0.3432
13081W        W55994  32.769  19.575  17.318 -0.0970  0.1400  0.0085
13082W        W55995   2.388  28.345  22.098  0.0193  0.0740  0.1353
13083W        W55996   7.885  22.223   1.610 -0.2244 -0.0162 -0.0139
13084W        W55997   2.409  18.536  16.479  0.1925  0.2654 -0.0424
13085W        W55998   5.602  18.928  18.129  0.0364  0.1695  0.1538
13086W        W55999   1.192   7.551  18.314 -0.0348 -0.4557 -0.1495
13087W        W56000   3.196  17.656  24.048  0.0829  0.2639  0.1045
13088W        W56001   2.552  20.430  20.158  0.2279  0.4662  0.1935
13089W        W56002  29.544  27.112  28.967  0.2469  0.2843 -0.2849
13090W        W56003   8.978  14.497  20.816  0.1140 -0.0973  0.1856
13091W        W56004   0.930  18.944  13.999  0.2946  0.2330 -0.1323
13092W        W56005   5.293  28.895  25.454  0.0937  0.1663  0.2128
13093W        W56006  10.363  22.619   0.977  0.0349 -0.0487 -0.0546
13094W        W56007   6.028  20.198  18.302 -0.0081 -0.1669  0.0704
13095W        W56008   1.642  15.045  23.243 -0.0988 -0.2644  0.0318
13096W        W56009  30.318  24.787  29.410 -0.0151  0.2180 -0.1436
13097W        W56010   1.175  10.311  22.096  0.0512 -0.0886 -0.1034
13098W        W56011  34.128  25.641  25.883 -0.4102  0.0530 -0.2275
13099W        W56012  12.898  18.095  22.208 -0.1886  0.1413  0.2527
13100W        W56013   7.601  25.569  29.574  0.2387  0.0797  0.2680
13101W        W56014  30.049  18.873   5.145  0.1884  0.0075  0.2977
13102W        W56015  30.110  27.622   8.360  0.0298 -0.3029  0.0217
13103W        W56016   1.510  28.085  26.902 -0.0699 -0.2653  0.1985
13104W        W56017  27.771   9.098  14.996  0.0537  0.0866  0.0217
13105W        W56018  10.017  25.048   3.960  0.0153  0.2487 -0.0048
13106W        W56019  34.473  15.583  28.224  0.2466 -0.1509  0.0880
13107W        W56020  30.217   6.391  25.421  0.1200  0.0843 -0.2698
13108W        W56021  12.337  21.662  23.276 -0.0963 -0.0952 -0.3327
13109W        W56022   0.875  26.828  17.329  0.0618  0.1591 -0.2692
13110W        W56023  31.412  19.193  20.876  0.1319 -0.0096 -0.4233
13111W        W56024   2.694  28.952  25.368 -0.0025 -0.3087 -0.3326
13112W        W56025   0.161  25.704  20.837 -0.1108  0.0458 -0.0690
13113W        W56026  24.199  11.383  26.775 -0.2413  0.2614 -0.2573
13114W        W56027  27.906  25.211   1.379  0.2636  0.1638  0.2953
13115W        W56028   4.326  21.186  13.698 -0.3744  0.3014  0.1087
13116W        W56029   4.610  32.109  20.981 -0.0100 -0.0887  0.1062
13117W        W56030  12.640  17.087  13.206 -0.1281  0.0460  0.0676
13118W        W56031   2.633  23.746  27.832 -0.2413  0.0337 -0.1474
13119W        W56032   3.074  17.166   0.751  0.4191  0.0548 -0.4863
13120W        W56033  20.653   0.969  27.895 -0.0629 -0.0655  0.1760
13121W        W56034   0.564  26.062  14.655  0.0156  0.3811 -0.1508
13122W        W56035  12.086  18.323  29.117 -0.2249  0.3097  0.2235
13123W        W56036  32.752  17.545  26.087 -0.2542  0.2109  0.1207
13124W        W56037  30.572   9.711  22.466  0.2361 -0.1536 -0.0066
13125W        W56038  31.128  10.872  23.244  0.2267  0.0352  0.1503
13126W        W56039   2.697  15.937  24.243 -0.1785 -0.1139 -0.2212
13127W        W56040  28.512  16.029  21.344 -0.0667  0.0231 -0.0886
13128W        W56041  33.804  20.975  27.226  0.0500  0.2100  0.1968
13129W        W56042   9.511  29.800  25.928 -0.0964 -0.1396  0.1277
13130W        W56043  26.305  18.441   3.055 -0.0313  0.1172  0.0351
13131W        W56044  33.548  24.225  22.553  0.2901 -0.1162  0.0835
13132W        W56045  34.137  30.967  28.829 -0.1449  0.2485  0.0801
13133W        W56046  25.227   6.941  28.812  0.1448 -0.0587 -0.2911
13134W        W56047  30.147  33.749  16.617 -0.3759 -0.0105 -0.2085
13135W        W56048   7.013  16.716  27.089  0.0637 -0.1941  0.1104
13136W        W56049   3.897  12.257  16.482  0.1045  0.4950  0.1790
13137W        W56050  26.352  32.020  27.042 -0.1332 -0.0032  0.0194
13138W        W56051  20.142   3.122  20.419 -0.3495  0.0611  0.1519
13139W        W56052   2.487  21.668  28.797  0.3500 -0.0157  0.0289
13140W        W56053  19.955  14.081  22.247 -0.1045 -0.0043  0.1506
13141W        W56054   1.499  23.251  24.132 -0.1075 -0.2458 -0.1771
13142W        W56055  28.792  16.146  22.895 -0.0589  0.0952  0.1867
13143W        W56056  31.799  30.254  29.502 -0.2598  0.0528 -0.0092
13144W        W56057   3.444  23.650  25.122 -0.0361 -0.2999 -0.1411
13145W        W56058   8.965  24.622  25.707  0.1453  0.2524 -0.0276
13146W        W56059   4.703  11.455  28.848  0.2525  0.3274 -0.0252
13147W        W56060   5.579  17.551  26.962 -0.1104 -0.0417 -0.1170
13148W        W56061   4.849  22.143  13.602  0.2633  0.4566  0.1208
13149W        W56062   2.330   2.618  23.089 -0.0606  0.0048 -0.0559
13150W        W56063  28.001  25.595   4.911  0.1791 -0.0796  0.2674
13151W        W56064   0.085  21.423  19.436  0.1176  0.1332  0.0003
13152W        W56065  25.153  17.627  13.507  0.1680 -0.0183  0.2133
13153W        W56066   0.394  26.553  15.442 -0.0020  0.1628 -0.3275
13154W        W56067   3.572  25.484  27.720 -0.0367  0.0335 -0.1721
13155W        W56068   0.250  16.403  21.274 -0.0354  0.3833  0.0123
13156W        W56069   2.959  23.028  28.537  0.1279  0.3393 -0.2996
13157W        W56070   0.246  16.235  18.156  0.1406  0.1126  0.1427
13158W        W56071  31.131  26.643  16.710  0.1027  0.0120  0.1705
13159W        W56072  33.512  23.144  23.041  0.1630 -0.1932  0.1511
13160W        W56073   3.778  27.470   1.838  0.2262  0.0542 -0.4302
13161W        W56074   6.944  28.115  24.896 -0.0304  0.1873  0.1594
13162W        W56075   6.409  14.644  25.135 -0.2626  0.0993 -0.1965
13163W        W56076   6.821   7.022  19.570  0.4294 -0.2077 -0.1869
13164W        W56077  29.637  26.819  19.323 -0.0619 -0.2816 -0.0995
13165W        W56078   0.700  30.822   1.124 -0.0106  0.1338  0.1381
13166W        W56079   7.160  22.034  26.485 -0.0329  0.1237  0.1190
13167W        W56080  11.641  23.158  23.930 -0.1745 -0.3883  0.3208
13168W        W56081   6.323  28.642  21.890  0.0846 -0.1744  0.1264
13169W        W56082   6.605  23.799   3.450 -0.0172 -0.0107 -0.1675
13170W        W56083  11.904  22.736   9.312  0.1732 -0.0271 -0.0524
13171W        W56084   6.751  19.814  23.877 -0.0909  0.1374  0.0075
13172W        W56085  29.493  23.855  20.107 -0.4172  0.0066  0.0583
13173W        W56086  27.076  24.313  18.631  0.1617 -0.0437 -0.1658
13174W        W56087  22.928  18.400  26.930 -0.2246  0.0412  0.1247
13175W        W56088   3.695  31.832   9.468 -0.5219  0.2088  0.3416
13176W        W56089   0.984  25.943  26.292 -0.0303 -0.0361  0.0972
13177W        W56090   0.915  22.699  24.896 -0.1725 -0.0139  0.0121
13178W        W56091   9.904  17.336  26.202 -0.2699 -0.1443 -0.0221
13179W        W56092  34.017  17.494  26.627 -0.3489  0.1040 -0.1369
13180W        W56093  31.935  24.760  17.474  0.0111  0.3136 -0.1065
13181W        W56094  10.369  19.199  15.142  0.0496 -0.2724 -0.2849
13182W        W56095   1.625  20.471  25.803 -0.0203 -0.0099 -0.2104
13183W        W56096  33.574  18.892   3.132  0.1722  0.1949 -0.0124
13184W        W56097  30.087  11.927  22.249  0.2787 -0.0334  0.1423
13185W        W56098  11.550  19.185  28.026  0.1502 -0.1195 -0.2887
13186W        W56099  32.932   0.136  18.720  0.0657 -0.1260 -0.1731
13187W        W56100  33.769   7.139  29.772  0.1225  0.0171  0.1033
13188W        W56101  32.511  19.185  13.965  0.1114  0.0941 -0.3641
13189W        W56102   2.898  12.555  25.583 -0.2692  0.1952 -0.0049
13190W        W56103  34.338   8.305  18.297 -0.0544  0.1320  0.0881
13191W        W56104   1.126  18.180  27.226  0.0286  0.1337  0.0843
13192W        W56105  14.231  15.257  24.257  0.1140 -0.2921  0.0872
13193W        W56106   8.186   9.480  22.379 -0.0220  0.1394  0.0966
13194W        W56107   8.927  25.786  21.044 -0.2260 -0.1223 -0.2866
13195W        W56108   7.497  25.024  20.038  0.3172 -0.2977  0.2070
13196W        W56109  18.724  25.461  17.238  0.1275  0.0406 -0.0379
13197W        W56110  33.666  28.557  17.662 -0.2171 -0.0174 -0.0490
13198W        W56111  34.438  28.096  20.685  0.2155 -0.2088 -0.2187
13199W        W56112   2.804  13.757  23.828  0.1333  0.3046  0.0787
13200W        W56113  32.317  13.657  26.731  0.0371  0.2814  0.1600
13201W        W56114   4.134  17.185   4.948 -0.1485  0.0868  0.0572
13202W        W56115   5.529  18.379  18.089  0.0087  0.1956 -0.0331
13203W        W56116  27.722  21.500   2.048  0.0447 -0.2753  0.1121
13204W        W56117   9.557  14.290  24.423  0.0417 -0.0277  0.0018
13205W        W56118  10.074  12.093  18.821  0.1899 -0.0331 -0.0235
13206W        W56119   1.719  25.168  16.914 -0.5067 -0.2864 -0.0811
13207W        W56120  32.114  27.400   1.232  0.0175  0.0363  0.2061
13208W        W56121  11.763  24.513  18.269  0.2187 -0.1273 -0.1120
13209W        W56122  33.140  17.092  17.538 -0.0585  0.0394  0.0612
13210W        W56123  30.418  26.169  26.193 -0.1151 -0.6409  0.1208
13211W        W56124   5.921  21.244  18.725 -0.0187  0.0495 -0.2077
13212W        W56125  16.131  24.955   7.860  0.0100  0.1032 -0.1707
13213W        W56126  32.951  10.178  10.698  0.2890  0.2185 -0.1235
13214W        W56127   6.983  14.192  19.947  0.0836 -0.2518 -0.1407
13215W        W56128  28.493  21.133   0.535 -0.0947  0.1897 -0.0693
13216W        W56129  10.819  19.326  27.530  0.0183  0.0847 -0.1706
13217W        W56130   0.195  20.000  16.905  0.0576  0.1403 -0.1981
13218W        W56131   7.568  27.351  17.870 -0.0003  0.2577 -0.0995
13219W        W56132   7.094  20.363  26.131  0.2867 -0.0475  0.0881
13220W        W56133  26.608  16.632  26.520  0.1581 -0.1316 -0.0600
13221W        W56134  30.955  25.960  23.354  0.1295  0.3572 -0.0652
13222W        W56135  28.601  30.317   4.474 -0.0724  0.0439 -0.0250
13223W        W56136   3.858  25.319  28.323  0.2454  0.0595  0.1326
13224W        W56137   7.005  13.367  15.133  0.0328 -0.4509  0.1749
13225W        W56138  29.576  14.674  26.541 -0.1078  0.2412 -0.1629
13226W        W56139  34.257  24.655  14.548 -0.1013  0.3175  0.1450
13227W        W56140   5.200  27.439  20.653  0.0297 -0.1049 -0.3762
13228W        W56141   0.994  22.597  15.440 -0.0636 -0.0574  0.0953
13229W        W56142   5.443  13.710  21.067  0.0477  0.1758  0.0006
13230W        W56143  13.254  26.946  18.067  0.0371 -0.1273  0.0649
13231W        W56144   7.211  15.906  28.641 -0.3572  0.1594  0.0385
13232W        W56145  32.361  33.538  15.914 -0.3315 -0.0282  0.0184
13233W        W56146  27.252  23.989  29.579 -0.1928  0.2497 -0.3596
13234W        W56147   4.739  23.023  24.320  0.0565  0.0633 -0.0315
13235W        W56148   3.613  23.486  26.913 -0.1364  0.1584  0.0963
13236W        W56149   0.735  24.986  17.805 -0.2199  0.0487  0.0964
13237W        W56150  33.838   3.942  26.791  0.1057  0.1023 -0.0123
13238W        W56151   7.596  13.735  16.420  0.0234  0.2446  0.0976
13239W        W56152   1.093  23.175  25.869  0.1391 -0.3694  0.1464
13240W        W56153   5.668  10.908  26.957  0.1521  0.0552 -0.0793
13241W        W56154   6.133  17.089  16.806 -0.2119  0.0814 -0.1620
13242W        W56155   5.794  30.076   5.894  0.0869 -0.3241  0.2714
13243W        W56156   6.916  20.854  14.798  0.0474 -0.2071  0.0232
13244W        W56157  34.480  24.579   2.209 -0.0797  0.1228 -0.1917
13245W        W56158   2.983  28.239  22.125 -0.2033  0.1581  0.1714
13246W        W56159  32.263  21.872  20.188 -0.2224  0.2742  0.2119
13247W        W56160   2.329  10.953  28.144  0.1079 -0.3207  0.1580
13248W        W56161   3.420   8.988   2.275 -0.2765 -0.1324  0.0431
13249W        W56162   6.877  21.538  14.794 -0.0802  0.0846  0.1051
13250W        W56163  27.251  17.168   6.966 -0.0497  0.0654  0.1635
13251W        W56164  20.860  14.169   3.787  0.3753  0.4200 -0.0814
13252W        W56165  11.444  24.384   4.700  0.1774  0.2443  0.0713
13253W        W56166   7.679  15.116   7.351 -0.3608 -0.1665  0.3007
13254W        W56167  32.155   4.083   0.067  0.0036 -0.1923  0.2746
13255W        W56168  28.551  16.817  16.790  0.0046 -0.0560 -0.1239
13256W        W56169   5.868  30.062  27.862  0.2476  0.2136 -0.1292
13257W        W56170  16.491  14.688  15.665 -0.3992  0.3566  0.0295
13258W        W56171  27.056  18.202  15.121 -0.0700  0.1654  0.2170
13259W        W56172   2.158  15.531  27.809 -0.0485  0.0837  0.1387
13260W        W56173  29.821  19.549  17.123  0.2647 -0.0321  0.3878
13261W        W56174   2.562  14.646  27.360  0.0121 -0.0172 -0.2658
13262W        W56175  23.110  19.910  26.902  0.2171 -0.1583  0.2305
13263W        W56176   5.498  23.946  28.575 -0.1579 -0.2748  0.1447
13264W        W56177  27.780  16.881   0.441  0.2437  0.1183  0.0443
13265W        W56178   0.816  18.140   4.154  0.1883  0.1775  0.1168
13266W        W56179   3.625  10.786  29.060  0.2300 -0.0482  0.2696
13267W        W56180  10.007  17.431  17.272  0.2300 -0.2941  0.0463
13268W        W56181  11.068  28.131  17.346 -0.0237  0.2621  0.0531
13269W        W56182   8.439  17.197   6.980 -0.1815 -0.2068  0.4447
13270W        W56183   2.443  13.824  17.470 -0.1407  0.0013  0.1480
13271W        W56184   5.101  25.147  23.069 -0.2320 -0.0072  0.2562
13272W        W56185  29.782  26.834  15.815  0.2472  0.3724  0.2165
13273W        W56186   0.206  13.907  26.274 -0.2429 -0.1911 -0.2345
13274W        W56187   2.253  24.694  22.675  0.2139 -0.1350 -0.1966
13275W        W56188   8.399  29.084  22.325  0.0907  0.1537 -0.0085
13276W        W56189  32.747  21.042  21.861 -0.0426  0.0755  0.1100
13277W        W56190  11.891  22.702  14.637 -0.2628  0.2926 -0.1106
13278W        W56191  32.648  25.869  22.047  0.0989 -0.1291  0.2534
13279W        W56192   1.079  13.345  19.631  0.3371  0.0205  0.0941
13280W        W56193   3.289  19.015  16.073  0.0494  0.5123 -0.2615
13281W        W56194   8.275  20.422   2.694 -0.1081  0.2804 -0.1079
13282W        W56195   2.843  22.159  18.290  0.0258 -0.2331 -0.0557
13283W        W56196  14.033   5.517  27.985 -0.1853  0.0166  0.0032
13284W        W56197   8.080  19.859  27.928 -0.1910 -0.0710 -0.1320
13285W        W56198   9.913  13.378  14.527 -0.1136  0.0560  0.0720
13286W        W56199   7.231  11.131  25.334  0.1152 -0.0282 -0.0640
13287W        W56200   0.144   3.046  20.512 -0.3344 -0.1325  0.2590
13288W        W56201  30.657  15.156  19.254 -0.0406  0.1030  0.2502
13289W        W56202  34.244  24.054  28.521  0.2383  0.0676 -0.0336
13290W        W56203  30.950  18.440  17.604  0.0998  0.0289  0.0425
13291W        W56204   5.635  10.384  28.231  0.1207  0.0278  0.0412
13292W        W56205  31.738  27.294  27.964  0.2744  0.1099  0.0701
13293W        W56206   5.834  19.328  23.100  0.1149 -0.0910 -0.0904
13294W        W56207  29.296  19.091  17.420 -0.0870  0.0385  0.0584
13295W        W56208  32.036  30.737  21.887  0.0341 -0.1045  0.1640
13296W        W56209  18.265  34.414  27.090  0.0388  0.1424 -0.0956
13297W        W56210   4.908  17.649   1.036 -0.0187  0.0271  0.1504
13298W        W56211  19.416  10.015  20.447  0.1237 -0.0202 -0.1625
13299W        W56212  14.660  18.146   0.780 -0.1616  0.3707 -0.2638
13300W        W56213  33.974  14.500  24.271 -0.0683  0.2228  0.0151
13301W        W56214   4.690  14.548  26.917  0.0973  0.1283  0.5523
13302W        W56215   7.864  16.065  25.116  0.2629  0.2091 -0.0010
13303W        W56216  10.719  29.388  25.206  0.3141 -0.1114 -0.2319
13304W        W56217   3.236  31.877  25.022 -0.4944 -0.0156  0.0179
13305W        W56218  25.977  31.425  19.276  0.1444  0.2575  0.3207
13306W        W56219   3.083  16.954  22.291 -0.0561 -0.2069 -0.1462
13307W        W56220  30.165  10.909  17.208 -0.2346 -0.2415 -0.3166
13308W        W56221  15.204  26.303  23.212  0.3467  0.3364  0.1456
13309W        W56222  31.407  29.696  23.640 -0.1674 -0.5061  0.1596
13310W        W56223   0.302  20.215  19.333 -0.0368 -0.0507  0.3437
13311W        W56224  23.174  27.908   3.418  0.4038 -0.1387  0.3929
13312W        W56225   9.219  17.801   0.493 -0.1061  0.0057 -0.0634
13313W        W56226   0.823  13.719  25.135  0.1698 -0.0007  0.3673
13314W        W56227  29.459  17.945   9.484  0.0948  0.3626  0.4362
13315W        W56228   2.582  29.053   0.201 -0.2315 -0.1850 -0.1409
13316W        W56229  25.845  19.528  25.403 -0.0699 -0.0922  0.2345
13317W        W56230  28.579  21.381  16.532  0.0539 -0.2290 -0.4367
13318W        W56231  28.420  29.796  19.500  0.1325 -0.1750  0.1969
13319W        W56232  31.258  34.332  17.292 -0.1121 -0.2287 -0.0939
13320W        W56233  28.341  20.184  24.309  0.1308  0.0333 -0.3022
13321W        W56234  28.552  21.247  27.028 -0.2291  0.0094 -0.0167
13322W        W56235   1.889  21.318  25.707 -0.1743  0.0725 -0.0327
13323W        W56236  31.002  15.627  15.747 -0.0370  0.3059 -0.1096
13324W        W56237   5.420   7.061  25.546  0.0062  0.0172  0.1673
13325W        W56238  10.395   8.073  17.269 -0.1550 -0.0265  0.1276
13326W        W56239   5.990  19.174  21.865 -0.0366  0.1679  0.0077
13327W        W56240  27.011   9.516  14.374 -0.0394  0.0639 -0.2430
13328W        W56241   9.702  17.644  24.462 -0.2168  0.0041  0.0344
13329W        W56242  22.533  23.847  24.948  0.1746 -0.0523  0.2040
13330W        W56243   1.695  22.113  15.091  0.2023  0.0363  0.0268
13331W        W56244   2.998  21.608  25.351 -0.0185 -0.1859  0.3159
13332W        W56245  19.699  13.511  27.499  0.0354  0.0378 -0.2236
13333W        W56246  30.027  28.909  13.724 -0.0622  0.0359 -0.0766
13334W        W56247   1.967  23.790  24.459  0.4274  0.2370  0.0263
13335W        W56248  34.050  31.502  16.901 -0.0817  0.1253 -0.3565
13336W        W56249  27.876  20.509  13.470 -0.1175 -0.1047  0.1936
13337W        W56250   5.618  16.079   1.212 -0.0487  0.0835  0.0047
13338W        W56251  10.099  21.193   1.809  0.2452  0.2052 -0.3329
13339W        W56252   3.801  18.179   0.690  0.1646 -0.1846  0.2268
13340W        W56253  34.339  18.148  20.802  0.0579  0.2442 -0.1667
13341W        W56254   4.557  18.581  22.194 -0.2979 -0.1133 -0.1837
13342W        W56255  30.141  21.808  15.722  0.0094 -0.0593  0.0408
13343W        W56256   7.730  16.183  21.041 -0.3025  0.3763  0.1782
13344W        W56257   7.336  18.159  27.435  0.0863 -0.2125 -0.1532
13345W        W56258   1.737  18.236  24.250  0.2674  0.0747 -0.4129
13346W        W56259  31.485  20.207  21.165 -0.1203  0.2151 -0.0535
13347W        W56260  12.448  20.684   6.130  0.1788  0.2140  0.2409
13348W        W56261  12.342   7.046  16.490 -0.1140  0.1800 -0.0642
13349W        W56262   5.082   9.711  22.829 -0.2827  0.2217 -0.4177
13350W        W56263  33.922  15.038  27.011  0.2245 -0.1931 -0.1782
13351W        W56264   1.291  14.795  22.923 -0.2522 -0.4054  0.2245
13352W        W56265  23.983  19.693  21.958  0.0770  0.4399  0.0615
13353W        W56266   1.968  21.264  24.381  0.0416  0.1774  0.1484
13354W        W56267   2.435  16.414  22.221 -0.2408 -0.0383 -0.2816
13355W        W56268   1.303  14.121   4.101  0.1103  0.2865 -0.0530
13356W        W56269  31.679   0.422   9.963  0.2853  0.1400 -0.0779
13357W        W56270   4.051  30.037  18.488  0.0258  0.0351 -0.1184
13358W        W56271  29.919   5.569  23.281  0.1097 -0.2111  0.0443
13359W        W56272   7.702  25.663  29.030  0.0566 -0.4158  0.1573
13360W        W56273  31.798  18.618  16.851 -0.0738 -0.1154  0.1385
13361W        W56274   6.494  32.595  19.368 -0.2286 -0.0012  0.2646
13362W        W56275   6.254  15.766  21.997 -0.0638 -0.4021  0.1846
13363W        W56276  32.300  25.226  20.945 -0.1399 -0.2908 -0.0280
13364W        W56277   8.898  30.482  23.422 -0.2420  0.0422 -0.2074
13365W        W56278   5.520  26.195  24.279 -0.2577 -0.2299 -0.0625
13366W        W56279   4.506  19.167   2.901 -0.1520 -0.1330  0.0166
13367W        W56280  25.274  20.691  26.614  0.1195 -0.0268  0.2441
13368W        W56281  31.345  23.346   8.355 -0.0854  0.1968  0.3746
13369W        W56282  27.056  27.153   2.491  0.0357  0.2452 -0.0063
13370W        W56283  27.268  13.207  22.067 -0.1962  0.2542 -0.1785
13371W        W56284   0.908  19.730  29.552 -0.1308 -0.1855 -0.2591
13372W        W56285   0.149  20.873  16.860 -0.2805 -0.0316 -0.1130
13373W        W56286  31.572  13.212  21.423  0.1196  0.2439  0.2147
13374W        W56287  32.230  14.306  24.313  0.0506 -0.1353 -0.1163
13375W        W56288   6.077  22.243  28.929  0.2333  0.2451 -0.1660
13376W        W56289   8.143  13.071   6.649 -0.1362  0.1074  0.2187
13377W        W56290   2.183  30.051   5.579 -0.0515 -0.1487 -0.0104
13378W        W56291   9.528  13.066  28.386 -0.1608 -0.0253  0.1762
13379W        W56292  10.056  16.860  13.522 -0.0862  0.0039  0.2253
13380W        W56293  22.651  13.731  28.128 -0.0288  0.0759 -0.0215
13381W        W56294  15.103  14.032  18.567  0.0658 -0.1144  0.0189
13382W        W56295   9.581  25.540   5.401  0.0907  0.0249  0.0594
13383W        W56296  23.648  14.623  13.926  0.0861 -0.2064  0.0306
13384W        W56297  33.222  26.670  23.921 -0.1228  0.0024 -0.1687
13385W        W56298   1.219  12.201  19.636  0.0547 -0.1783  0.0013
13386W        W56299  34.070  32.574  23.375 -0.0072 -0.2210  0.0222
13387W        W56300  30.670  20.741  28.607 -0.2124  0.2637 -0.0235
13388W        W56301  29.483  20.434   1.957  0.1320 -0.0468 -0.3971
13389W        W56302  26.166  19.329  25.800  0.0918 -0.0929 -0.0913
13390W        W56303   3.630  14.712  20.557 -0.1259  0.1133  0.1164
13391W        W56304  24.000  17.248  18.112 -0.1908  0.1300  0.0193
13392W        W56305  11.881  20.026  25.315  0.2322 -0.1272  0.1169
13393W        W56306   0.614  20.602  23.697  0.1461 -0.4737 -0.2165
13394W        W56307  33.399  11.524   0.725  0.0287  0.1489 -0.0303
13395W        W56308   4.677  19.691  20.388  0.0067 -0.0122  0.0679
13396W        W56309  30.851  19.511  15.244 -0.2542 -0.0196  0.3305
13397W        W56310   7.751  14.302  22.126 -0.0924 -0.1131 -0.2432
13398W        W56311   5.370   5.616  19.428 -0.2050 -0.1999 -0.3325
13399W        W56312  29.462  16.745  13.746 -0.3052  0.2710  0.0588
13400W        W56313  32.195  19.606  28.084 -0.3495 -0.0370  0.1641
13401W        W56314  28.843  19.844   3.847 -0.0677 -0.0917 -0.3994
13402W        W56315  32.305  22.341  24.967 -0.0185  0.1385 -0.0425
13403W        W56316  30.171  23.509  27.770 -0.0526  0.0554  0.3782
13404W        W56317  10.235  27.536  22.671  0.0611 -0.3994  0.1648
13405W        W56318  34.359  23.803  24.679 -0.1747  0.2244  0.1223
13406W        W56319  27.481   1.743   1.186 -0.2587 -0.1471  0.1595
13407W        W56320   2.859  20.030   0.955 -0.1322  0.1069 -0.0649
13408W        W56321  11.894  17.165  21.049  0.2247 -0.0786 -0.2174
13409W        W56322  33.197  29.267  17.792  0.2652 -0.2045  0.1218
13410W        W56323   0.470  21.625   2.749  0.0713  0.2454 -0.3065
13411W        W56324   5.638  19.201   2.064 -0.0945 -0.4358  0.4115
13412W        W56325  31.626  32.530  25.161 -0.2323 -0.2136 -0.4682
13413W        W56326   0.681  18.976  25.143  0.1083 -0.0538  0.2378
13414W        W56327   3.042  19.255   5.116 -0.1286 -0.1155  0.1438
13415W        W56328  28.297  21.344   2.304 -0.1602  0.1170 -0.3552
13416W        W56329   9.799  14.088  18.069 -0.4103 -0.6353 -0.0243
13417W        W56330   5.687   9.955  23.192  0.0930 -0.1511  0.0160
13418W        W56331   2.105  15.657  25.370 -0.1114  0.0978  0.0010
13419W        W56332   7.770  29.887  16.378 -0.2214 -0.3707 -0.0489
13420W        W56333   5.927  19.575  24.855  0.1351 -0.2483 -0.1639
13421W        W56334  19.823  12.400  28.644  0.1430  0.1381  0.0102
13422W        W56335  28.793  24.436  26.374  0.0615 -0.2623 -0.0820
13423W        W56336   8.474  12.170  24.369 -0.0026  0.3097  0.3549
13424W        W56337   6.794  20.981  27.468  0.1311  0.1324 -0.1109
13425W        W56338   0.769  28.461  26.651 -0.1035  0.2253 -0.1136
13426W        W56339  28.189  24.980  22.155 -0.0831 -0.0533  0.0722
13427W        W56340   2.660  21.727  25.839 -0.2908 -0.0638  0.1460
13428W        W56341  10.750  13.638  26.286  0.0364  0.0728  0.0408
13429W        W56342  31.342  19.407  15.469  0.1808 -0.0265 -0.1735
13430W        W56343  33.772   3.477  21.374  0.3730 -0.0344  0.1583
13431W        W56344  15.971  13.394  26.587 -0.2476  0.0252 -0.0845
13432W        W56345  31.503  32.919   0.197  0.3315  0.0553 -0.2190
13433W        W56346   9.733  15.400  27.307  0.1978 -0.0136  0.1094
13434W        W56347   5.254  16.598  25.967  0.3747  0.0580 -0.1373
13435W        W56348  33.407   6.499  26.129 -0.0722 -0.0805 -0.0331
13436W        W56349   1.561  33.512  27.984 -0.1251  0.0997  0.0332
13437W        W56350  31.050  24.059  20.192 -0.2151 -0.1422  0.1989
13438W        W56351  34.365  27.220  20.156 -0.2195 -0.0563 -0.1003
13439W        W56352  33.092  15.811   4.354  0.5745  0.0774  0.1367
13440W        W56353  28.700  17.787  25.836 -0.2262  0.0879 -0.2040
13441W        W56354   3.828  20.506  20.433  0.1292  0.3969  0.1185
13442W        W56355   1.511  23.701  22.422  0.1933 -0.0433 -0.0352
13443W        W56356  31.350  29.946  23.159  0.2021 -0.5815  0.1411
13444W        W56357  31.462  12.626  23.612  0.0136  0.1739  0.0055
13445W        W56358  27.818  22.657  28.998  0.1445  0.2669 -0.3895
13446W        W56359  20.092   6.447  15.565  0.1358  0.0427  0.0353
13447W        W56360   3.181   6.986  22.154 -0.1794 -0.2505  0.1967
13448W        W56361  28.474  15.390  20.681 -0.1712 -0.0396  0.0660
13449W        W56362  27.314   8.288  25.955 -0.2912  0.1032 -0.1404
13450W        W56363  33.325  14.855   1.185 -0.1485 -0.0096 -0.3102
13451W        W56364  25.884  19.594   0.895 -0.4224 -0.1171  0.1253
13452W        W56365   3.776  20.524  27.695  0.0633  0.2253  0.4012
13453W        W56366   1.515  12.931   0.275 -0.0340  0.0631  0.4354
13454W        W56367  32.360  20.526   0.002  0.1296  0.1179 -0.0409
13455W        W56368  33.395  29.772  26.611  0.2277 -0.0135  0.0388
13456W        W56369   7.845  28.444  20.776  0.1053  0.0613 -0.0995
13457W        W56370   6.828  26.549  18.654 -0.1223  0.2292 -0.1838
13458W        W56371   8.706  19.417  21.211 -0.0962  0.1756 -0.1283
13459W        W56372  13.108  24.027  25.674  0.1551  0.0649  0.0533
13460W        W56373  30.981  10.056  22.662  0.0291 -0.2590  0.1316
13461W        W56374  13.104  14.205  14.982 -0.1294  0.0548  0.1921
13462W        W56375   9.674  19.028  26.431 -0.3415  0.1720 -0.1137
13463W        W56376  29.874  17.036  25.980 -0.0142  0.2445  0.0902
13464W        W56377   4.882   9.084  17.445 -0.0053  0.1516 -0.0036
13465W        W56378   4.047  16.030  23.631 -0.4327  0.1995  0.0183
13466W        W56379  29.246  17.610  15.142 -0.0127 -0.0631 -0.1581
13467W        W56380  32.349  24.075  23.045 -0.1947 -0.2926 -0.3313
13468W        W56381  30.876  27.114  15.305 -0.2732 -0.1807  0.1174
13469W        W56382   2.622  13.428  19.546  0.2784 -0.2866 -0.2879
13470W        W56383  14.765   7.805  21.721  0.1101  0.0998 -0.4113
13471W        W56384  30.687  33.087  21.957 -0.2712  0.1677 -0.1015
13472W        W56385  28.121  13.970  25.492 -0.0808  0.0537 -0.4699
13473W        W56386   7.751  19.397  15.444  0.1121 -0.0238  0.0435
13474W        W56387   0.934  25.358  27.543  0.0820  0.0200 -0.0510
13475W        W56388   0.735  10.813  26.282 -0.2339  0.3960 -0.1992
13476W        W56389   2.105  11.738  25.391 -0.1097 -0.1128 -0.1191
13477W        W56390  32.571  27.761  15.227  0.2151  0.1241 -0.0483
13478W        W56391   0.250  25.687  15.851  0.1531  0.0864 -0.0919
13479W        W56392  33.061  29.748  14.659  0.0618  0.2024 -0.1436
13480W        W56393   7.023  15.396  24.536 -0.4135 -0.2264 -0.3240
13481W        W56394   0.841  26.247  25.700  0.1149 -0.0208 -0.3066
13482W        W56395   7.439  17.172   5.866 -0.1651  0.2420  0.2725
13483W        W56396  31.280  18.622   4.817  0.0154 -0.1512  0.2403
13484W        W56397   1.546  32.849  25.890  0.3392  0.0161 -0.0610
13485W        W56398  23.688   7.657  29.665  0.0429  0.1031 -0.0241
13486W        W56399  29.273  31.037   4.018 -0.3670 -0.4415 -0.0986
13487W        W56400  31.650   4.152  20.939  0.1502  0.2155  0.2300
13488W        W56401  34.219  25.794  21.631 -0.0228 -0.0434 -0.1476
13489W        W56402   3.855  23.542   1.512  0.1315  0.2682  0.0471
13490W        W56403   1.027  16.052  28.709  0.1459  0.2011 -0.2103
13491W        W56404  25.264   7.161  26.345  0.0199  0.1950 -0.0869
13492W        W56405   7.556  19.864  29.549 -0.2020  0.2191 -0.1378
13493W        W56406   9.471  22.466  20.460 -0.3198 -0.1868  0.1354
13494W        W56407   6.868  12.490   0.352  0.0681 -0.1334  0.4428
13495W        W56408   1.328  14.196  28.895 -0.0436  0.2385  0.0627
13496W        W56409   7.001  23.573  27.063  0.2366 -0.2789 -0.2576
13497W        W56410   2.076  13.711  26.459  0.4293  0.0698 -0.2320
13498W        W56411   9.620  15.102   6.121  0.0613  0.0307  0.5015
13499W        W56412   3.405  19.007  23.211 -0.0807 -0.0284  0.0851
13500W        W56413   5.507  26.888   8.025 -0.1225  0.4438 -0.0449
13501W        W56414  31.976  20.779  23.074 -0.0956  0.0525  0.1524
13502W        W56415   3.146  19.551  22.965  0.0448 -0.2962  0.0647
13503W        W56416  29.285  24.261  23.970  0.1687  0.1757  0.1546
13504W        W56417  31.327  25.440   0.947 -0.2335 -0.3111  0.1198
13505W        W56418   8.441  16.913  24.100  0.0577 -0.0295 -0.0250
13506W        W56419   7.016  14.133  16.433  0.2995 -0.0676  0.1705
13507W        W56420  25.897  19.581   6.316 -0.1047  0.0179  0.2024
13508W        W56421  33.723   6.898  27.544  0.0413  0.0317 -0.0008
13509W        W56422   1.403  19.893  15.960  0.1792 -0.2138  0.1326
13510W        W56423  26.623  23.532   3.942  0.0789  0.0318 -0.0973
13511W        W56424   3.701  27.287  27.312 -0.1015 -0.0804  0.2135
13512W        W56425   4.333  25.242  21.654 -0.0408  0.0309  0.0656
13513W        W56426   1.500  26.785  27.230  0.1686 -0.4005 -0.1360
13514W        W56427   8.779  10.684  25.308 -0.0459 -0.0892  0.0077
13515W        W56428  31.202  19.795  28.564  0.0585  0.2228  0.0034
13516W        W56429  10.218  11.295   5.407  0.2484 -0.0683 -0.1833
13517W        W56430  10.311  16.230  26.221  0.2448  0.1696 -0.1403
13518W        W56431   2.900  19.478   1.433  0.0660 -0.0949 -0.0362
13519W        W56432  33.373  25.523  17.421  0.2705 -0.2046  0.2024
13520W        W56433  33.832  13.379   4.509  0.3003  0.1580  0.1815
13521W        W56434  28.589  23.514  25.959 -0.1804 -0.0253  0.0138
13522W        W56435   0.635   2.672   1.548  0.1089  0.0539 -0.0606
13523W        W56436   1.739  19.929  19.311 -0.4202 -0.0835  0.4417
13524W        W56437   2.822  18.976  24.904 -0.0764 -0.1508 -0.0014
13525W        W56438  32.866  19.460  28.305 -0.0199  0.0323  0.1747
13526W        W56439  33.581  33.993  15.489 -0.1362 -0.1709 -0.2561
13527W        W56440  32.631  15.381  28.930 -0.2136 -0.0404  0.1964
13528W        W56441   8.686  19.166  26.292 -0.2864 -0.4499 -0.2645
13529W        W56442   7.565  24.396  27.444  0.1225  0.2741 -0.1925
13530W        W56443   1.071  11.689  29.148 -0.0834  0.3640  0.0565
13531W        W56444  22.935  13.280  19.867 -0.3283  0.0682  0.0383
13532W        W56445   5.633  18.345  26.544  0.1909 -0.0143 -0.3987
13533W        W56446   9.945  22.314  28.096 -0.3011 -0.4863  0.1906
13534W        W56447  25.373  25.521  29.136  0.1382 -0.3615 -0.1039
13535W        W56448   2.184  15.391  26.190 -0.1023 -0.0332  0.0822
13536W        W56449  29.574  21.285   4.276  0.0358  0.0815 -0.1660
13537W        W56450   4.703  16.080   1.903 -0.0675 -0.0512 -0.0416
13538W        W56451   0.568  18.767  14.303 -0.3467 -0.3086 -0.0705
13539W        W56452  32.268  28.928  14.374  0.1282  0.0190  0.0592
13540W        W56453  31.894  21.529   3.843 -0.0926 -0.1363  0.1158
13541W        W56454   0.329  17.745  23.418  0.0751 -0.1181 -0.2291
13542W        W56455  22.024  23.644   3.372  0.1618  0.0358 -0.1859
13543W        W56456   3.196  15.360  24.701  0.1287  0.1472  0.1261
13544W        W56457  21.510  28.547  13.275 -0.0514 -0.1455 -0.0788
13545W        W56458  30.353  21.415   0.541  0.0215  0.0783  0.0866
13546W        W56459  29.221  15.627   1.134  0.0059 -0.0404 -0.1853
13547W        W56460  25.738  21.259  14.016 -0.2263  0.0298 -0.1351
13548W        W56461  23.343  22.567  23.752 -0.2968 -0.0622  0.1187
13549W        W56462   4.041  22.040   6.802 -0.1047 -0.0120 -0.2719
13550W        W56463   8.862  17.731  24.040  0.2368  0.1137  0.2058
13551W        W56464  31.841  28.289   0.892 -0.1316  0.0950 -0.0091
13552W        W56465  30.568  29.768  15.779  0.2446 -0.1456 -0.0484
13553W        W56466  34.343  19.989  16.300 -0.0000  0.0367 -0.3028
13554W        W56467  28.252  31.302   6.467 -0.0520  0.0095  0.2958
13555W        W56468  27.531  17.308  14.553  0.0141  0.3993  0.0179
13556W        W56469  14.015  15.747   6.001  0.1069  0.1041  0.0135
13557W        W56470  26.725  17.428   6.923  0.0113 -0.0390 -0.0559
13558W        W56471  10.203  11.585   3.613  0.1375 -0.4075 -0.2352
13559W        W56472  30.842  24.287   7.273  0.3069 -0.1721  0.0619
13560W        W56473   0.178  29.486  20.392 -0.1363  0.0592 -0.1669
13561W        W56474   2.617  25.688   8.627 -0.0794 -0.1042  0.2209
13562W        W56475   2.009  25.582  25.847 -0.0602  0.1246  0.3028
13563W        W56476   5.941  13.327  24.321  0.1473 -0.0160 -0.1111
13564W        W56477  33.890  17.721  23.045  0.1860 -0.1796  0.2501
13565W        W56478   9.179  13.597  27.292 -0.1893 -0.0116 -0.0436
13566W        W56479   6.721  17.932   5.935  0.0589  0.0366  0.0243
13567W        W56480  28.847  25.494  22.685  0.0719  0.0618  0.2740
13568W        W56481   4.791  16.824  29.437  0.0832  0.0586  0.0270
13569W        W56482   0.821  15.682  29.578  0.0532  0.0308  0.1763
13570W        W56483   1.524  17.564  28.466 -0.0180  0.0080  0.3066
13571W        W56484   7.734  15.982  26.910 -0.0130  0.0740  0.1573
13572W        W56485   7.670  28.180   1.801 -0.0193 -0.1014 -0.2246
13573W        W56486  31.578  21.979   6.409 -0.3692  0.2831  0.2366
13574W        W56487  31.517  17.000   5.768 -0.1402 -0.1122  0.2611
13575W        W56488   7.787  16.453   1.120 -0.2163  0.0548  0.2241
13576W        W56489  12.577   6.719  24.930  0.3409  0.2869  0.3232
13577W        W56490  28.281  27.216  29.646 -0.0653 -0.0787  0.2166
13578W        W56491   3.144  19.617  20.528 -0.0377 -0.2556  0.2711
13579W        W56492  22.199  16.512   5.045  0.1937 -0.0748 -0.1622
13580W        W56493  24.730  16.641  26.240  0.0520 -0.5252  0.0415
13581W        W56494  33.474  24.031  18.414 -0.0244 -0.0501 -0.1856
13582W        W56495   1.229  25.748  27.658 -0.1743 -0.0691 -0.2156
13583W        W56496  22.829  20.764  25.563 -0.1836  0.2668 -0.0004
13584W        W56497   0.317  14.552  19.582  0.2331  0.1318 -0.0950
13585W        W56498  31.785  18.091  16.957 -0.2221 -0.1076  0.0267
13586W        W56499  33.979  10.301   3.474  0.2666  0.2555  0.0609
13587W        W56500  28.785  32.082   4.030  0.2006 -0.0868  0.3096
13588W        W56501  29.015  25.186  26.355 -0.2665 -0.3511  0.0185
13589W        W56502   2.959  25.490  29.092  0.2937 -0.0258 -0.0946
13590W        W56503   6.597  19.250   7.568  0.0622  0.1652 -0.1699
13591W        W56504   2.739  18.019  24.024  0.2725 -0.2039  0.1819
13592W        W56505  33.759  22.828   7.769  0.1589  0.0728 -0.0035
13593W        W56506   3.098  23.522   2.224 -0.0748 -0.1658  0.0681
13594W        W56507   7.820  28.442  26.326  0.0508  0.1637  0.0540
13595W        W56508   5.416   6.915  10.884 -0.0367 -0.0867  0.1375
13596W        W56509   0.115  24.401  22.677 -0.0083  0.3173  0.2682
13597W        W56510  26.516  16.292  28.985 -0.1178  0.3900 -0.0528
13598W        W56511  32.213  20.080   3.844 -0.0310 -0.0191  0.0310
13599W        W56512   2.758  22.814  27.573  0.4848 -0.0108  0.0884
13600W        W56513   1.577  19.766   1.531 -0.0404  0.2514 -0.0490
13601W        W56514   2.251  28.629  19.896  0.1547  0.0543 -0.0540
13602W        W56515   1.508  13.066  25.852 -0.0918  0.1036  0.3231
13603W        W56516  24.778  15.915  25.465  0.0166  0.1292  0.0006
13604W        W56517   4.935  31.302  25.423 -0.1701  0.0798  0.1986
13605W        W56518   2.248  27.728  27.245 -0.1589 -0.0017 -0.0367
13606W        W56519  32.929   7.965  19.025 -0.1016 -0.2190  0.4076
13607W        W56520  20.497  32.046   2.196 -0.2533 -0.2853 -0.1058
13608W        W56521  14.618  22.735  28.036  0.1466 -0.1091  0.2011
13609W        W56522   7.451  17.311  24.405  0.1787 -0.5097 -0.0404
13610W        W56523  28.707  21.839  22.438 -0.3498  0.0652 -0.0077
13611W        W56524  33.214  22.770   4.132  0.0321  0.0283 -0.0895
13612W        W56525   5.382  18.605  21.298 -0.0591 -0.0917  0.1605
13613W        W56526  29.782  31.471  28.394 -0.2126  0.2991  0.1846
13614W        W56527   8.197   8.706  26.832 -0.1030  0.1787  0.2427
13615W        W56528   7.938  25.106  19.627 -0.1411 -0.1478  0.0212
13616W        W56529   0.544  30.137  26.973 -0.1009 -0.0190 -0.1200
13617W        W56530  27.401  13.220  26.730 -0.2691  0.0521  0.4218
13618W        W56531   2.310  23.487   6.144 -0.0288 -0.0848  0.2737
13619W        W56532  24.888  23.057   2.293  0.4117 -0.2237 -0.1740
13620W        W56533   4.624  20.036   8.369  0.0094 -0.1838 -0.1667
13621W        W56534   3.522  17.273  27.076  0.0053  0.3096 -0.0638
13622W        W56535   8.575  18.645  26.394  0.2175  0.0582  0.0041
13623W        W56536  30.795  24.657  29.253  0.0231 -0.0353 -0.2626
13624W        W56537  33.926  24.183  27.298  0.1340 -0.2137  0.2463
13625W        W56538  28.795  23.241  24.244  0.0794  0.1553  0.0416
13626W        W56539  30.530  11.709  22.967 -0.1738  0.1266  0.0028
13627W        W56540   8.506  17.753  29.539 -0.1765 -0.0016  0.0683
13628W        W56541  12.118  27.299  29.663 -0.0097 -0.0484  0.0418
13629W        W56542  30.936  14.300   4.764 -0.3790 -0.0215  0.1029
13630W        W56543  30.652  17.380  26.055 -0.0673  0.1442  0.2007
13631W        W56544   0.503   1.619   3.607 -0.2916 -0.0615  0.1857
13632W        W56545   1.343  19.955  27.948 -0.1840 -0.1892  0.4290
13633W        W56546  29.990  14.231   2.626  0.0611  0.0130  0.2787
13634W        W56547   2.017  16.021  15.783 -0.3742 -0.1547  0.6948
13635W        W56548  12.269  23.442  29.448 -0.1311 -0.2091 -0.0632
13636W        W56549  31.282  17.065  24.308  0.2244 -0.1848 -0.1281
13637W        W56550  33.692  24.626   2.613  0.1077  0.2577 -0.4074
13638W        W56551   8.228  13.957   0.678  0.1654  0.4169 -0.1535
13639W        W56552  30.978  22.343  15.099 -0.0443  0.1166 -0.0082
13640W        W56553  33.633  11.336   2.897  0.2150  0.0075 -0.0477
13641W        W56554   7.795  15.707  26.512  0.1547 -0.1790 -0.3335
13642W        W56555   8.981  27.029   1.301 -0.1587 -0.5179 -0.0331
13643W        W56556  27.209  24.774   1.967  0.1072  0.0200 -0.0513
13644W        W56557  29.509  14.142  26.314 -0.0155  0.0885  0.1835
13645W        W56558   0.944  14.366   6.231 -0.1138  0.1928  0.1096
13646W        W56559   7.785  16.884   6.623 -0.1882  0.0564  0.0291
13647W        W56560   3.521  17.752   8.033 -0.2896  0.3267  0.1334
13648W        W56561   5.129  18.241   2.965 -0.1963  0.1916 -0.0776
13649W        W56562  28.235  24.378  19.035  0.0393  0.0737 -0.2928
13650W        W56563  32.590  17.579  21.580  0.1421 -0.0663 -0.0086
13651W        W56564   6.724  11.285  24.398  0.3486 -0.1074  0.1996
13652W        W56565   8.853  16.222  15.982 -0.1838 -0.3367  0.0285
13653W        W56566  31.454  11.359  25.768  0.0419 -0.0761  0.0822
13654W        W56567   6.155  11.921  24.684  0.0697 -0.0894  0.0066
13655W        W56568  28.490  34.372  18.001 -0.0862 -0.0053  0.2371
13656W        W56569  22.705  19.286  26.537  0.0133 -0.2206  0.0355
13657W        W56570  15.515  32.790  21.636  0.1400  0.1570 -0.1399
13658W        W56571  32.650  23.701   0.918 -0.3430  0.0011  0.0270
13659W        W56572  28.276  13.531  20.961 -0.3067  0.0599 -0.2797
13660W        W56573   4.847  12.636  20.148  0.0513  0.1276 -0.0774
13661W        W56574  13.824  28.046  20.237 -0.1165  0.0658 -0.0294
13662W        W56575   4.829  13.745   1.981  0.0382  0.0259  0.1938
13663W        W56576  24.102  26.115   1.360  0.3008  0.0054 -0.0862
13664W        W56577   1.933  29.371  17.085  0.1513  0.0308  0.2833
13665W        W56578   1.787  17.971  29.334  0.0726 -0.1536  0.2845
13666W        W56579   5.897  22.695  28.082 -0.0465  0.1643  0.0392
13667W        W56580   1.906  23.773   2.484  0.3307  0.3409 -0.1905
13668W        W56581   5.422  15.098   6.803  0.4549  0.2316  0.0073
13669W        W56582  28.870  17.856  23.624 -0.3702 -0.0037  0.0373
13670W        W56583   2.287  23.611  28.158  0.0817  0.2946  0.1708
13671W        W56584  29.697  29.356  24.903  0.0768  0.0747 -0.0703
13672W        W56585   2.035  10.844  23.131  0.3059 -0.1641  0.5324
13673W        W56586   2.604  17.059   4.804  0.1636  0.3100  0.2764
13674W        W56587   2.496  28.050  21.166  0.0290  0.0996  0.0806
13675W        W56588  28.252   9.497   1.711 -0.3053  0.3412 -0.0779
13676W        W56589  23.460  20.192   3.973  0.1782 -0.0764  0.2859
13677W        W56590   6.966  22.843   7.540  0.0371  0.1634  0.4428
13678W        W56591   6.403  26.019  20.771 -0.0198  0.0731  0.0764
13679W        W56592  29.961  16.811  23.521  0.0182 -0.0484  0.1846
13680W        W56593  12.327  19.139  24.064 -0.0842 -0.0821  0.0588
13681W        W56594  33.878  18.604  26.604  0.0710  0.0787  0.0061
13682W        W56595   6.256  27.319   1.369 -0.1979  0.3757  0.1026
13683W        W56596  31.816  33.518  29.196  0.1284  0.0518  0.0094
13684W        W56597   2.531  26.885  24.791 -0.1590 -0.0849  0.0815
13685W        W56598  10.033  24.661   0.017  0.1944  0.0712  0.3521
13686W        W56599  32.264  26.315   3.137  0.1673  0.3953 -0.2753
13687W        W56600  34.073  28.755  25.470  0.1570  0.0287  0.0796
13688W        W56601  18.941  15.908  25.906  0.4344  0.0066 -0.0990
13689W        W56602   5.475  11.646   1.433 -0.2108 -0.1097 -0.0026
13690W        W56603  33.932  21.274  21.504  0.0549  0.0907  0.0879
13691W        W56604   5.292  27.960  26.617 -0.2922 -0.2593 -0.1317
13692W        W56605  30.251  17.048  14.709 -0.2450  0.1595  0.0768
13693W        W56606   5.960  17.781   6.869  0.1335 -0.0208 -0.1851
13694W        W56607   3.603  26.175  25.605 -0.0551 -0.3492  0.1862
13695W        W56608   8.993  10.121  21.799 -0.2810  0.0955 -0.4736
13696W        W56609   6.089  19.169   1.186  0.3202  0.0025  0.1532
13697W        W56610   7.607  17.862  16.814  0.2747 -0.1041 -0.0912
13698W        W56611   1.128  24.224  23.271  0.0738  0.3410  0.0347
13699W        W56612   8.806  19.605  22.370 -0.2151 -0.1843  0.3653
13700W        W56613   0.449  13.688   1.674 -0.3554  0.1440 -0.0365
13701W        W56614  33.859  21.060  24.277 -0.3390  0.1435  0.1322
13702W        W56615  33.316  18.809   5.092  0.0309 -0.0519 -0.2472
13703W        W56616   1.278  18.116   6.227  0.1987 -0.1875  0.0497
13704W        W56617  28.588  12.626   7.017 -0.2153  0.0199 -0.2328
13705W        W56618  26.949  26.223  21.582  0.1020  0.0739  0.0287
13706W        W56619  26.800  20.917  28.729  0.1953 -0.0555 -0.3563
13707W        W56620  11.707  19.085   0.809 -0.0017  0.0650 -0.0660
13708W        W56621   2.403  10.602  27.205 -0.0379  0.1330  0.2050
13709W        W56622  28.960  22.096  27.959  0.0825  0.2064  0.1666
13710W        W56623   3.672  13.718   2.065  0.0388  0.1024  0.1225
13711W        W56624   6.519  29.198  18.538  0.0746  0.0685 -0.0770
13712W        W56625  33.070  21.868  29.222  0.1424 -0.2420  0.1778
13713W        W56626  10.249  28.021  24.251  0.1830  0.2586 -0.3632
13714W        W56627  32.919  13.770   0.230  0.0193  0.2890 -0.0024
13715W        W56628   3.968  19.667   0.703  0.0688  0.3839  0.1810
13716W        W56629   7.948  19.818   4.579 -0.1987 -0.0436 -0.0791
13717W        W56630   1.017  14.163  23.448  0.0309  0.1963  0.1487
13718W        W56631  11.748  22.543  23.007  0.2014 -0.0111  0.0818
13719W        W56632  32.114  28.871  26.881 -0.2464  0.0511  0.3945
13720W        W56633  22.738  23.658  29.780 -0.1174 -0.1771  0.0490
13721W        W56634   4.020  21.411   3.575  0.0695  0.3456 -0.1182
13722W        W56635  32.955  28.127   3.112 -0.1008 -0.3217 -0.2776
13723W        W56636  12.428  25.112  22.824  0.1091  0.2549 -0.0409
13724W        W56637   5.616  19.470   1.154  0.0471  0.2664 -0.1179
13725W        W56638  32.105  16.780  18.816 -0.1506  0.1266 -0.1494
13726W        W56639   0.305  16.090   0.361 -0.0959 -0.0057  0.2244
13727W        W56640   2.937  13.196   1.547  0.0584  0.0120 -0.1351
13728W        W56641   5.095  13.782  29.036  0.2223  0.0509  0.2950
13729W        W56642  34.161   6.428  16.656  0.0080  0.0778  0.1509
13730W        W56643  10.717  19.936   2.446 -0.0806  0.0493  0.3374
13731W        W56644  33.284  13.304  15.781  0.1946 -0.0072  0.0487
13732W        W56645   2.693  19.006   0.428 -0.1692 -0.0517 -0.1035
13733W        W56646  11.012  19.969  21.190  0.1170 -0.0301 -0.1055
13734W        W56647  23.486  23.750  25.810 -0.3163  0.1718 -0.2862
13735W        W56648   0.741   9.722   0.150 -0.0461 -0.1176 -0.0764
13736W        W56649   3.836  31.319  22.264 -0.1016  0.0075  0.0596
13737W        W56650  32.452  25.238  29.481 -0.4093 -0.1453 -0.0176
13738W        W56651  18.198  15.435  15.053 -0.0117 -0.1090  0.0012
13739W        W56652   9.286  15.251   4.708  0.1698  0.0679  0.4180
13740W        W56653  23.160  24.370  22.859  0.0812  0.2158  0.1766
13741W        W56654  17.364  11.352   0.401  0.0274  0.2684  0.0193
13742W        W56655   9.634  19.421  26.101 -0.2052 -0.0592  0.1334
13743W        W56656   5.229  13.127  23.972  0.0423  0.0392 -0.1522
13744W        W56657  31.395  28.706  23.296  0.2312  0.0174 -0.0231
13745W        W56658  30.880  14.011  18.775 -0.2465  0.2953 -0.0371
13746W        W56659  28.883  14.139   1.078  0.2920 -0.0791 -0.0102
13747W        W56660  11.711  15.837  23.623  0.2853 -0.3454 -0.1478
13748W        W56661  32.257   7.235  19.250 -0.1729 -0.2071  0.0954
13749W        W56662   6.698  12.665  23.364 -0.0329  0.0967 -0.1247
13750W        W56663  10.492  19.081  19.753  0.2353  0.1534 -0.2972
13751W        W56664   0.936  20.126  22.791 -0.1673  0.0267  0.0723
13752W        W56665   1.830  15.876  27.742  0.0563 -0.0712 -0.0611
13753W        W56666   0.696  24.129  27.908  0.1796  0.0380  0.0550
13754W        W56667   2.250  15.606  20.627 -0.0704 -0.0619 -0.0746
13755W        W56668   5.945  12.052  23.813  0.1812  0.1345  0.0753
13756W        W56669   0.217  29.085   2.566  0.5500 -0.0466 -0.2382
13757W        W56670  10.492  17.162   5.150  0.0516  0.1737 -0.2014
13758W        W56671   8.786  26.155  19.476 -0.0610 -0.1452 -0.1435
13759W        W56672   0.952  25.970  19.305  0.2036  0.3037 -0.0066
13760W        W56673   9.601  21.410  18.304 -0.1360 -0.1265 -0.0803
13761W        W56674  26.568  21.209   2.978 -0.0797 -0.4360  0.1010
13762W        W56675  24.052  15.290  29.348  0.0932 -0.2761 -0.3086
13763W        W56676   0.579   2.230  21.801  0.2185  0.3753 -0.4547
13764W        W56677  33.539  25.051  22.987 -0.2610 -0.0485 -0.3516
13765W        W56678  27.387  20.714  27.023 -0.2290 -0.5316 -0.0403
13766W        W56679   7.680  19.332  20.820  0.1012  0.0375  0.0132
13767W        W56680  33.091  16.599   2.705 -0.0428  0.0347 -0.1048
13768W        W56681   7.703  20.008   7.304  0.6091  0.0697 -0.1644
13769W        W56682  31.819   9.012  22.343 -0.1411 -0.2449  0.2585
13770W        W56683   6.313  12.890  23.715 -0.0873  0.0878 -0.5812
13771W        W56684  10.252  17.414  25.156  0.1971 -0.3813 -0.3438
13772W        W56685   6.353  12.808  25.844 -0.3175  0.0800  0.2244
13773W        W56686   9.589  26.493  20.084  0.1110 -0.0185  0.2097
13774W        W56687   6.306  14.542  27.955  0.2806 -0.0237  0.1661
13775W        W56688   2.888  21.626  26.606  0.2912  0.1376 -0.3625
13776W        W56689   5.255  25.925  15.143 -0.1860  0.4531 -0.4009
13777W        W56690  34.354  16.105  24.239 -0.0256 -0.3133 -0.1232
13778W        W56691  31.035  25.379  16.585 -0.0233 -0.0946  0.1750
13779W        W56692  17.727  12.732   5.784 -0.1430  0.1346 -0.1517
13780W        W56693   2.266  20.606  27.271 -0.0162  0.3202 -0.2232
13781W        W56694  29.655  17.926  17.853  0.1369 -0.0915  0.2464
13782W        W56695  20.730  24.322  22.126 -0.0527 -0.0144 -0.3518
13783W        W56696   7.297  12.580  25.252  0.0459  0.1166  0.0474
13784W        W56697   2.894  18.929   1.416 -0.2257 -0.1797 -0.3519
13785W        W56698  32.011  18.266   0.955  0.0147  0.2251  0.0866
13786W        W56699   2.219  22.399  24.671  0.1308 -0.1875 -0.0292
13787W        W56700  33.721  18.636   2.599  0.0481  0.3220 -0.3723
13788W        W56701  11.052  20.999  27.901  0.1423 -0.0421  0.2792
13789W        W56702  22.503  17.310  25.532  0.4598 -0.3912  0.1137
13790W        W56703  31.659  11.889  29.489 -0.1883  0.0334  0.0498
13791W        W56704  21.963  18.467  24.149  0.0825  0.0881 -0.0958
13792W        W56705   1.971   5.223  27.963 -0.2021 -0.2666 -0.0815
13793W        W56706  32.725  18.167  20.779  0.1052 -0.2209 -0.0232
13794W        W56707   4.195  15.763  18.514 -0.2692 -0.0371 -0.0507
13795W        W56708  23.706  21.686  24.269 -0.0583  0.6445  0.4057
13796W        W56709   2.747  18.803  26.838 -0.0924  0.0250 -0.0680
13797W        W56710  33.859  17.704  23.888 -0.1959 -0.0501  0.0847
13798W        W56711   2.261  19.481  22.395  0.1133 -0.3140  0.0777
13799W        W56712   6.067  23.552  21.016 -0.1258 -0.4105  0.3113
13800W        W56713   1.689  17.852  23.441 -0.1991 -0.1809 -0.3498
13801W        W56714   6.511  25.044  26.098 -0.4562 -0.1421  0.0446
13802W        W56715  33.592  25.468  23.929 -0.1284  0.0637 -0.1460
13803W        W56716   1.240  19.876  20.500  0.0157  0.1088  0.0524
13804W        W56717   6.309  27.162   9.578 -0.3418 -0.0136 -0.0304
13805W        W56718  31.413  25.024  21.413  0.1459  0.0504 -0.0395
13806W        W56719  21.849  17.341  20.384  0.1878 -0.1575 -0.0064
13807W        W56720   3.700  22.676  25.190  0.0859  0.1899  0.2270
13808W        W56721   3.694  13.533  21.351  0.1263  0.2345  0.1222
13809W        W56722  14.142  19.865  26.173 -0.0521  0.1793  0.0956
13810W        W56723  28.513  13.276  27.700 -0.0763  0.2276 -0.0667
13811W        W56724  32.145  23.647  26.546  0.1723  0.0293  0.0033
13812W        W56725   6.318   8.181  26.779 -0.0451  0.2415  0.2615
13813W        W56726  14.428  19.641  24.397  0.1499 -0.0130  0.2035
13814W        W56727   8.606  16.739   1.840 -0.1158 -0.0225  0.1269
13815W        W56728   0.455  26.829   0.226  0.0139  0.1851  0.2414
13816W        W56729   8.568  12.617   2.955 -0.3384 -0.1001 -0.2492
13817W        W56730   6.327  11.387  17.471  0.3989  0.0721 -0.0890
13818W        W56731   4.269  24.605  28.391  0.2959  0.1691 -0.0916
13819W        W56732  26.892  20.496  25.971 -0.2201  0.1205  0.2831
13820W        W56733  10.922  25.409   4.190 -0.3357 -0.0176 -0.0180
13821W        W56734  22.961  16.732  22.369 -0.0470 -0.2478 -0.2800
13822W        W56735   1.298  17.021  29.495 -0.0591 -0.0117 -0.1271
13823W        W56736  15.063  18.455  22.598 -0.3444  0.2066  0.3209
13824W        W56737  23.409  21.144   3.194  0.2016  0.0278  0.1020
13825W        W56738  27.296  26.969   0.958  0.0211  0.3055 -0.3355
13826W        W56739  11.519  24.397   1.204 -0.2350 -0.1215 -0.0030
13827W        W56740   1.673  28.542  27.805 -0.3146  0.0451  0.0478
13828W        W56741   6.943  13.506  21.167 -0.0161 -0.2962  0.4328
13829W        W56742   1.333  26.966  25.671 -0.3394  0.1775  0.0630
13830W        W56743  11.774  31.945   9.945  0.1243 -0.1468 -0.1377
13831W        W56744   4.482  33.973  22.854  0.1199 -0.1834  0.0974
13832W        W56745   4.218  15.454  18.036  0.0687  0.0662  0.0770
13833W        W56746   6.680   1.534  26.044 -0.2936 -0.2086  0.1804
13834W        W56747  17.936  11.817   0.422 -0.3034  0.0127 -0.1303
13835W        W56748  29.032  24.856  21.872  0.0174 -0.2253 -0.1469
13836W        W56749   8.661   3.648  24.332  0.2841  0.2648  0.0011
13837W        W56750   6.042  15.594   2.771 -0.4222  0.1153  0.1545
13838W        W56751  32.793  23.638  21.327  0.1021 -0.0069  0.1734
13839W        W56752  34.353  17.102  28.322  0.1484  0.0244 -0.0599
13840W        W56753  23.894  27.461  25.074  0.1092  0.1241  0.2425
13841W        W56754   3.698  26.168  28.158 -0.3552  0.3429 -0.0024
13842W        W56755   2.016  31.823   2.311 -0.0065 -0.0797  0.2365
13843W        W56756  31.354   6.635  29.074  0.0478  0.0307  0.2714
13844W        W56757  33.345  19.161  25.147  0.1406 -0.2312  0.4184
13845W        W56758  28.688  14.180   2.193  0.1383  0.1100  0.1776
13846W        W56759  19.375  18.171  26.569 -0.0469 -0.0853  0.0866
13847W        W56760  29.970  24.554  29.737  0.3749  0.0618 -0.0427
13848W        W56761   4.842  11.558   7.832  0.0869 -0.3510  0.2897
13849W        W56762  25.606  16.894   4.826  0.1198 -0.1914 -0.0744
13850W        W56763  31.506  18.960  23.293 -0.0361  0.0072 -0.0250
13851W        W56764   5.839  25.411  26.974  0.0297 -0.2570 -0.0295
13852W        W56765   3.250   5.237  22.684 -0.2185 -0.0404 -0.1260
13853W        W56766  13.250   9.860  24.555 -0.0883 -0.1149  0.0798
13854W        W56767  31.440  20.429  26.726  0.0837 -0.0510  0.1998
13855W        W56768   7.559  22.324   1.127  0.0291  0.3137  0.2205
13856W        W56769  33.934  22.256  25.857 -0.0171  0.0059  0.0171
13857W        W56770  15.846  14.113  15.238  0.2163 -0.0773 -0.2445
13858W        W56771  32.058  16.422  24.617 -0.0674  0.1014  0.0721
13859W        W56772  32.540  21.486  21.612 -0.1771 -0.0806 -0.1312
13860W        W56773  28.364  16.790  16.285  0.0123 -0.4202 -0.1962
13861W        W56774  29.200  13.179  20.392 -0.0703 -0.6826 -0.4041
13862W        W56775  34.493  16.190  22.824  0.1366  0.1788  0.0452
13863W        W56776   5.239  11.753  17.742  0.4209 -0.3658 -0.0503
13864W        W56777   6.226  22.316  25.227 -0.0522 -0.1679  0.3924
13865W        W56778   8.200   1.228   5.402  0.0844 -0.0865 -0.1838
13866W        W56779  20.868  26.875   1.227 -0.3001 -0.0574 -0.4480
13867W        W56780   1.258  20.306  28.352  0.2552  0.1390  0.1262
13868W        W56781   6.916  20.263   1.852 -0.0471 -0.1710 -0.0773
13869W        W56782  27.587  11.754   3.375 -0.0608 -0.0553  0.1438
13870W        W56783  26.413  25.540  24.308  0.2391  0.1264 -0.2282
13871W        W56784   2.130  24.482   8.615 -0.1627 -0.1063  0.0894
13872W        W56785  28.405  21.623   4.041 -0.3643  0.0797  0.0022
13873W        W56786  11.703   6.710  26.288  0.0958  0.1611  0.1162
13874W        W56787   3.405  21.355   0.504  0.3267 -0.0390  0.2165
13875W        W56788  32.399  28.067   1.870 -0.1151 -0.0313 -0.0569
13876W        W56789   8.054  19.912   0.918 -0.0729 -0.0275  0.2076
13877W        W56790   9.212  18.964  27.159 -0.1676  0.0795 -0.3267
13878W        W56791  34.325  14.866  22.148  0.0278  0.0827 -0.1757
13879W        W56792   9.120  25.186   3.030  0.0081  0.1932 -0.1444
13880W        W56793   2.534  21.926  24.590  0.0542 -0.0145  0.1676
13881W        W56794   1.465   9.159  29.202 -0.0212  0.3550 -0.4351
13882W        W56795  25.963  23.927  27.708  0.3630  0.2584  0.1587
13883W        W56796  27.420  28.045   3.364 -0.0802 -0.0632 -0.3536
13884W        W56797   9.764  27.664  21.902  0.0340 -0.0074  0.0281
13885W        W56798  31.474  25.998   5.730 -0.4170 -0.6341  0.0225
13886W        W56799   1.904  16.726  25.784 -0.0030  0.0756  0.0444
13887W        W56800   0.749  14.738  23.582 -0.0570 -0.3905  0.2280
13888W        W56801  33.708  14.199  21.481 -0.1521  0.2123 -0.2230
13889W        W56802   6.993  17.529   9.343 -0.0002  0.1500  0.0479
13890W        W56803   2.531  14.315  26.753  0.2530 -0.1035 -0.0901
13891W        W56804   5.864  11.633   9.736 -0.0143  0.1327 -0.0810
13892W        W56805  31.136  22.621  24.608  0.0378  0.1325 -0.0305
13893W        W56806   3.361   4.457  25.237 -0.2160 -0.1026 -0.0459
13894W        W56807  19.930  18.190   4.135 -0.0739  0.0615 -0.0136
13895W        W56808   2.583  20.976   0.914  0.1062 -0.1827 -0.1519
13896W        W56809   4.606  26.648  24.888  0.1450  0.1007 -0.2520
13897W        W56810  30.248  15.898   4.108  0.1931 -0.1890 -0.1876
13898W        W56811  30.936   9.230   4.761 -0.1837  0.0865 -0.3263
13899W        W56812  27.214  28.511  24.268 -0.1556 -0.3876  0.0839
13900W        W56813   4.360  31.625   6.467 -0.1664 -0.0310  0.0245
13901W        W56814   2.046  23.569  27.163  0.3501 -0.1924 -0.0058
13902W        W56815   3.383  25.527   4.231  0.2303  0.2206 -0.2764
13903W        W56816   6.386  20.976  19.965  0.0423 -0.1179 -0.0018
13904W        W56817   2.164  13.872  24.345 -0.0100 -0.3800  0.0709
13905W        W56818   4.094  19.480  25.595  0.0678 -0.0411 -0.0856
13906W        W56819   0.313  23.670   2.381 -0.0293  0.2215  0.2767
13907W        W56820  29.432  27.285   8.815  0.2299 -0.2151 -0.2681
13908W        W56821   8.892  20.267   0.640  0.2259 -0.0126  0.0254
13909W        W56822  29.943  27.586  26.622  0.2001  0.0965  0.0670
13910W        W56823   4.207  21.132   1.904 -0.3257  0.1354 -0.0314
13911W        W56824  14.333  11.909  21.344 -0.0506 -0.1314 -0.0145
13912W        W56825  26.344  22.080   0.082 -0.1443  0.0357  0.1708
13913W        W56826  30.311  22.463  23.650  0.1126  0.1014  0.1049
13914W        W56827   1.030  11.721  15.014  0.0493 -0.2348 -0.1021
13915W        W56828  12.949  21.744   6.326 -0.5370 -0.0122  0.0648
13916W        W56829   3.651  10.353   2.191 -0.0302 -0.2611 -0.1276
13917W        W56830   3.074  23.293  10.417  0.2077 -0.0455 -0.1363
13918W        W56831   6.664  19.805   0.654 -0.1843  0.1102  0.1594
13919W        W56832   5.594  28.650  26.911  0.1402 -0.1300 -0.0856
13920W        W56833   1.481  25.347   7.179  0.3638 -0.3014  0.0877
13921W        W56834   6.622  16.747   2.310  0.4014 -0.2433 -0.0810
13922W        W56835   4.863  19.413  21.643  0.1101  0.0091  0.2003
13923W        W56836   2.371  15.325  18.241  0.5849  0.1807  0.3127
13924W        W56837  31.572  19.765   5.637  0.1811 -0.0769 -0.1501
13925W        W56838   6.527  30.146  25.671  0.1981  0.0297 -0.0053
13926W        W56839   0.857  10.909  25.682 -0.1318  0.0961 -0.3344
13927W        W56840  27.325  18.209  28.587  0.2884 -0.0618 -0.0962
13928W        W56841  29.525  17.515  24.682  0.2617  0.1194 -0.0937
13929W        W56842  33.182  13.906   2.430  0.1509 -0.0735 -0.0166
13930W        W56843  29.237  24.193   5.600  0.1079  0.1122  0.1071
13931W        W56844   1.117  16.044   5.659  0.1016 -0.2667  0.1056
13932W        W56845   0.777  16.104   4.253  0.2618  0.2361  0.2816
13933W        W56846   3.354  16.809   0.466  0.0350 -0.0655 -0.0460
13934W        W56847   7.255  23.959  27.433  0.0727 -0.0503  0.2601
13935W        W56848   2.809  33.368   6.861 -0.2952  0.0940 -0.3227
13936W        W56849  30.599  21.179   8.985 -0.2650  0.0340 -0.2818
13937W        W56850   1.009  15.628  27.695 -0.0268  0.0568 -0.1003
13938W        W56851   4.464  25.138   1.238 -0.1249 -0.1702 -0.1204
13939W        W56852  28.187  18.766  22.025 -0.2033 -0.1967  0.1581
13940W        W56853   2.241  19.200  24.720 -0.1825 -0.0854 -0.1927
13941W        W56854   2.798  19.030  29.272  0.0676  0.1364 -0.0102
13942W        W56855   9.784  17.804  26.898  0.1170  0.1252 -0.1552
13943W        W56856  25.645  19.910  28.268  0.0608  0.2847 -0.0744
13944W        W56857  28.860  13.203  24.196 -0.2304  0.0935  0.1757
13945W        W56858  32.300  20.335  26.227 -0.0860 -0.0742 -0.1795
13946W        W56859   3.532  24.300   4.050  0.0482 -0.0267  0.0633
13947W        W56860  33.442  22.411   0.969 -0.1135  0.3544  0.4761
13948W        W56861   1.565  21.307  29.110  0.3471  0.0395  0.1544
13949W        W56862  25.840  11.310   8.180 -0.1371 -0.1562 -0.1975
13950W        W56863  11.960  22.869  28.739 -0.2155 -0.0948 -0.1820
13951W        W56864  31.201  28.596  25.448  0.2770  0.2514 -0.1524
13952W        W56865   1.321  14.162   0.761 -0.2889  0.0101 -0.0780
13953W        W56866  29.312   6.830  21.785 -0.2889  0.0444  0.4686
13954W        W56867   3.236  18.556   4.744 -0.0178 -0.1550  0.1766
13955W        W56868  28.601  24.164   6.384  0.2564  0.1158  0.0286
13956W        W56869  34.348  15.447  21.467  0.0333 -0.2418 -0.1876
13957W        W56870  14.857  17.566  23.276  0.1385  0.2633  0.2695
13958W        W56871   7.369  18.778  17.773  0.1530 -0.1051 -0.1764
13959W        W56872  31.645  21.584  19.130  0.1993 -0.2913 -0.1450
13960W        W56873  29.605  18.698  25.534 -0.0085 -0.0342  0.0247
13961W        W56874   3.351  23.670  21.453 -0.1810  0.3129 -0.3009
13962W        W56875   6.197   8.008  21.292  0.2356 -0.1001  0.1344
13963W        W56876  11.424  31.285  19.967 -0.1620 -0.2824 -0.1779
13964W        W56877  27.863  29.558  16.378  0.0123 -0.0954  0.0198
13965W        W56878  29.243  14.578  18.748  0.0802 -0.2025  0.1334
13966W        W56879  13.273  23.202  24.543  0.0849 -0.0678 -0.0254
13967W        W56880   9.379  24.225  15.951  0.0597 -0.1677  0.1845
13968W        W56881   2.317  17.282  22.574 -0.3906 -0.1761  0.1675
13969W        W56882  24.467  20.189  19.876  0.1946 -0.1020  0.0436
13970W        W56883  32.903  24.664  21.309 -0.1607 -0.0634  0.1292
13971W        W56884   2.334  30.363  16.558  0.0870  0.4505  0.0925
13972W        W56885   4.452  23.500  16.870  0.4221 -0.1709 -0.0306
13973W        W56886   2.313  17.560  20.439 -0.1227  0.2558 -0.0850
13974W        W56887   5.400  23.468  17.629 -0.1360  0.2525 -0.0488
13975W        W56888  32.267  27.423  16.217 -0.0982 -0.0627 -0.1576
13976W        W56889  25.955  32.091  19.421 -0.3771 -0.2750  0.3115
13977W        W56890  31.580  15.733  26.015  0.0103 -0.2279  0.2126
13978W        W56891   0.547  23.657  19.043 -0.1339 -0.0007 -0.0741
13979W        W56892   4.525  24.161  15.973 -0.0975 -0.1573 -0.0897
13980W        W56893  11.053  21.276  14.088  0.1694  0.0722  0.2062
13981W        W56894   2.879  30.025  20.674  0.2843  0.0518  0.1843
13982W        W56895   2.269  16.096  21.311 -0.1867 -0.3067 -0.2746
13983W        W56896  10.972  13.775  20.925 -0.3238  0.3445 -0.2276
13984W        W56897  34.303  27.713  16.126  0.0867  0.1206  0.3169
13985W        W56898   6.306  25.714  21.129 -0.0503  0.3691  0.0071
13986W        W56899   8.874  18.358  15.773 -0.0750 -0.1968 -0.0686
13987W        W56900   0.245  27.869  17.855 -0.0618  0.0906  0.0873
13988W        W56901  33.657  21.426   0.958 -0.0874  0.1643 -0.0209
13989W        W56902   0.239  26.693  18.325 -0.4460  0.1704  0.2360
13990W        W56903  33.478  17.735  16.276  0.2094  0.0918 -0.3127
13991W        W56904   0.548  19.469  15.616  0.0486  0.0613 -0.1262
13992W        W56905   5.232  18.096  20.526  0.3568  0.0769  0.0630
13993W        W56906  31.349  29.795  16.013  0.0879 -0.2883 -0.0599
13994W        W56907  30.827   2.392  28.515 -0.0846  0.0729  0.1596
13995W        W56908   3.800  26.734  16.281 -0.2254 -0.2120  0.1321
13996W        W56909  34.241  23.870  23.465  0.0512  0.3887 -0.0768
13997W        W56910  31.764  30.896   3.919  0.2338 -0.0912 -0.5117
13998W        W56911   1.213  20.227  20.045  0.1214  0.0429 -0.0377
13999W        W56912   0.780  20.295  15.912  0.1681  0.3949 -0.2940
14000W        W56913  29.843  29.755  19.237  0.2085 -0.0008 -0.1540
14001W        W56914   4.496  15.586   0.425 -0.1330  0.0560  0.0973
14002W        W56915   3.655  22.024  15.282 -0.0080  0.2285 -0.0073
14003W        W56916  27.518  14.880  18.017  0.2218 -0.0349 -0.1351
14004W        W56917  27.008  22.681  19.838  0.0424  0.2688  0.0023
14005W        W56918   1.660  19.326  26.033 -0.2020 -0.2460 -0.1306
14006W        W56919  31.143  21.212  26.523 -0.2399 -0.2368 -0.2850
14007W        W56920  13.341  18.934  16.866  0.1365 -0.1127 -0.0666
14008W        W56921   0.871  27.316  20.153 -0.1162 -0.2343  0.3423
14009W        W56922   6.089  19.029  14.644 -0.0310  0.0579  0.0749
14010W        W56923   1.591  22.009  22.820 -0.1297 -0.0788  0.4612
14011W        W56924   6.337  28.261  16.183  0.2663 -0.1751 -0.2680
14012W        W56925  31.792  16.829  19.808 -0.1944 -0.2980  0.3019
14013W        W56926   3.644  20.343  18.894  0.3721 -0.3096 -0.2047
14014W        W56927  19.017  31.280  16.892  0.1069  0.5438  0.4078
14015W        W56928  27.218  30.750  15.814 -0.2696 -0.0682 -0.0775
14016W        W56929   8.939  24.023  21.207 -0.0496  0.1947  0.1111
14017W        W56930  34.148  22.882  23.640  0.1004  0.1336 -0.1967
14018W        W56931   1.390  23.194   1.190  0.2846 -0.3835  0.3623
14019W        W56932   7.654  18.163  18.597  0.2339  0.1071 -0.2759
14020W        W56933   1.507  29.873  19.263 -0.0964 -0.1403 -0.2053
14021W        W56934   7.289  19.906  17.252  0.1849  0.1687  0.1445
14022W        W56935   6.550  22.013  16.343 -0.0763 -0.1364  0.1568
14023W        W56936  33.612   1.695  23.737 -0.1581  0.1856  0.0635
14024W        W56937  30.694  28.570  17.383  0.2941  0.2391  0.1729
14025W        W56938   7.674  21.720  14.920  0.2580 -0.2510 -0.0506
14026W        W56939   7.176  17.695  22.188 -0.1186  0.0889 -0.2755
14027W        W56940   3.754  26.212  23.541 -0.2194 -0.1634  0.1068
14028W        W56941   5.430   2.114  29.195  0.0267 -0.1461  0.0586
14029W        W56942  20.052  16.773  25.274  0.0779  0.0676 -0.1387
14030W        W56943  31.918  16.698  17.559  0.1561 -0.0504 -0.0080
14031W        W56944  28.134   4.010  16.213  0.3052  0.0246  0.2374
14032W        W56945  33.397  27.625  15.798 -0.3007 -0.1004 -0.1992
14033W        W56946  33.513  16.928  18.253 -0.1106  0.3502  0.0803
14034W        W56947   3.772  28.118  22.724  0.2130 -0.1713 -0.2710
14035W        W56948   2.864  22.121  14.576 -0.2804  0.3991 -0.0442
14036W        W56949  30.774  26.417  22.713  0.0285 -0.0380 -0.2677
14037W        W56950   4.528  15.325  18.449 -0.0171 -0.3634  0.0393
14038W        W56951  33.080  31.287  17.107 -0.0528  0.0827  0.0400
14039W        W56952   3.809  18.348  22.894 -0.0895 -0.0193 -0.2429
14040W        W56953  26.584  28.176  25.736  0.0955 -0.1820  0.3613
14041W        W56954  31.131  12.815  18.751  0.0321 -0.0388 -0.0764
14042W        W56955  31.295  15.934  18.166  0.0311  0.3874  0.0727
14043W        W56956   2.142  27.331  22.262  0.1623  0.0647 -0.0177
14044W        W56957  34.067  24.515  15.084  0.2332  0.1954  0.0670
14045W        W56958  31.562  21.848  20.263 -0.0338  0.0323 -0.0402
14046W        W56959  31.616  26.069  29.774 -0.1465 -0.0206 -0.0339
14047W        W56960   0.684  28.251  18.671 -0.0999 -0.2023  0.1336
14048W        W56961  33.653  22.848  24.190 -0.0825 -0.2115 -0.3372
14049W        W56962   1.180  22.891  16.910  0.0898  0.0427  0.1904
14050W        W56963  30.826  33.776  15.596 -0.2488 -0.4312 -0.0176
14051W        W56964  27.536  31.121  15.808  0.0635  0.0645  0.1260
14052W        W56965   2.046  17.395  19.648  0.4712  0.0111  0.0037
14053W        W56966   2.533  21.422  16.258 -0.1007  0.0334 -0.0857
14054W        W56967   3.857  16.307  15.844 -0.1073  0.6186 -0.1921
14055W        W56968  29.942  17.390  20.690 -0.2000  0.1520  0.0388
14056W        W56969   9.066  24.264  14.741  0.1933  0.0030 -0.0481
14057W        W56970  34.470  29.988  20.227  0.0924  0.1529 -0.0277
14058W        W56971   4.945  31.710  18.120 -0.0600 -0.0409 -0.1997
14059W        W56972   6.525  20.923  15.184  0.3521 -0.0314  0.2454
14060W        W56973   4.188  19.505  24.737  0.1195 -0.0659 -0.0753
14061W        W56974  10.648  28.998  16.111  0.1565  0.3648 -0.1336
14062W        W56975   9.052  25.880  17.855  0.0021  0.1231  0.2130
14063W        W56976   1.843  32.782  20.003 -0.2625 -0.1592 -0.0191
14064W        W56977   5.635  18.842  16.726 -0.0218  0.1515 -0.2956
14065W        W56978  28.269   6.064  20.831  0.0627 -0.1711  0.0430
14066W        W56979   0.705  28.653  13.799 -0.0507 -0.0356 -0.0376
14067W        W56980   2.488  22.016   3.995  0.3091  0.0117 -0.0952
14068W        W56981   3.982  28.153  16.474 -0.2720  0.0547  0.1573
14069W        W56982  30.195  17.694  21.669  0.3976  0.1059 -0.0852
14070W        W56983   4.389  30.214  26.529  0.1427 -0.2671 -0.1876
14071W        W56984  34.418  26.069  16.045 -0.4146  0.0898  0.0028
14072W        W56985   3.291  22.861  15.050  0.0153 -0.1016 -0.1512
14073W        W56986  32.507  18.340  15.394  0.1099  0.1220 -0.2242
14074W        W56987   2.505  26.824  27.548  0.0073  0.1401  0.0705
14075W        W56988  10.022  21.496  21.434  0.0796 -0.0348  0.2408
14076W        W56989   1.955  23.846  16.206 -0.3831  0.0246 -0.3454
14077W        W56990   3.342  17.356  14.698 -0.0452  0.2933  0.1233
14078W        W56991   2.748  16.861  21.947  0.2226 -0.0535 -0.0558
14079W        W56992   5.470  29.855  19.863  0.3681 -0.1735 -0.4305
14080W        W56993  10.223  26.205  16.672 -0.3978 -0.1121 -0.0446
14081W        W56994   0.590  18.712  21.669  0.4161 -0.0822  0.0651
14082W        W56995   6.354  28.171  25.068  0.1894 -0.0975 -0.2684
14083W        W56996  33.390  32.720  27.192 -0.0521 -0.0267 -0.0255
14084W        W56997  29.995  18.885  29.485  0.0122 -0.0121 -0.2515
14085W        W56998  34.274  18.502  16.716 -0.0117  0.1492  0.2820
14086W        W56999  24.476  20.943  21.058 -0.1572 -0.1141  0.1304
14087W        W57000  26.781  30.342  16.959 -0.0780 -0.2059  0.1364
14088W        W57001  31.506  32.258  24.802  0.2689  0.1411 -0.2238
14089W        W57002   6.366  18.314  14.515  0.0074  0.1336  0.2147
14090W        W57003   0.281  30.159  15.883  0.0177 -0.1129 -0.2034
14091W        W57004   1.744  18.067  22.455 -0.4178 -0.1159  0.0287
14092W        W57005  30.396  24.584  19.299 -0.2402  0.0275  0.0251
14093W        W57006   7.312  27.861  21.207  0.3402 -0.1025 -0.1580
14094W        W57007  33.259  24.977  21.605  0.1715 -0.0182  0.1015
14095W        W57008  30.676  15.172  13.445  0.0211  0.0243  0.0841
14096W        W57009   4.967  29.424  15.982 -0.0294 -0.0928  0.1999
14097W        W57010   6.288  24.699  23.164  0.2280  0.3427  0.0886
14098W        W57011   5.022  16.926  15.068 -0.1689  0.1916 -0.2941
14099W        W57012   1.592  24.746  16.579  0.0727 -0.1103 -0.0317
14100W        W57013  18.943  25.404  17.727  0.2713 -0.0852 -0.0170
14101W        W57014  32.612  23.988  14.989  0.1078  0.0277 -0.2166
14102W        W57015  33.023  22.775  25.801  0.0048  0.1424 -0.1936
14103W        W57016  10.715  16.414  16.628 -0.1684  0.1558  0.3043
14104W        W57017   3.105  15.438  24.132  0.0716 -0.0459  0.0270
14105W        W57018   4.518  23.966  14.563 -0.1362  0.0396 -0.1681
14106W        W57019   4.744  22.433  25.518 -0.1294  0.0108  0.0162
14107W        W57020   4.549  18.187  24.306 -0.0119 -0.1778 -0.0987
14108W        W57021   1.781  27.574  17.266  0.2641 -0.0886 -0.2320
14109W        W57022  31.452  21.382  14.853  0.1902 -0.0107  0.0090
14110W        W57023  32.329  25.509  19.370  0.3250  0.3146  0.0567
14111W        W57024   2.198  26.350  14.819  0.3588  0.0869  0.0555
14112W        W57025  30.441  26.448  16.205 -0.1561 -0.1326  0.2152
14113W        W57026  10.114  30.370  17.641  0.1856  0.0023 -0.1531
14114W        W57027  30.695  16.246  16.681  0.1026 -0.1186  0.4639
14115W        W57028   8.298  24.855  20.839 -0.1915 -0.1030  0.2068
14116W        W57029   2.993  31.860  22.542 -0.3339 -0.1560 -0.2542
14117W        W57030  34.440  23.770  18.303 -0.3232  0.0026 -0.1321
14118W        W57031  27.326  11.572  29.169 -0.0948 -0.0089 -0.1702
14119W        W57032   3.319  27.940  17.073 -0.0193 -0.0872  0.0806
14120W        W57033   8.543  22.630  27.059  0.0202  0.2804  0.0031
14121W        W57034  33.741  30.329  22.954 -0.0452 -0.2185 -0.1446
14122W        W57035  32.640  24.588  18.592  0.1739  0.1748 -0.0525
14123W        W57036  32.830  28.930  17.698  0.0202  0.1667  0.0202
14124W        W57037  10.712  20.007  19.096 -0.1043 -0.2645 -0.0227
14125W        W57038  22.878  24.078  18.872  0.0476  0.0875 -0.0094
14126W        W57039  32.645   1.818  23.566  0.0631 -0.1473  0.0812
14127W        W57040  32.009  18.820  14.540  0.1611 -0.0886  0.1869
14128W        W57041   4.231  22.583  20.419  0.1053 -0.1895  0.0247
14129W        W57042  28.626  21.472  22.859  0.3046  0.1991 -0.0241
14130W        W57043  30.019  20.391  21.430 -0.0126  0.0688 -0.1947
14131W        W57044   1.785  23.343  17.452  0.1833  0.0214 -0.0972
14132W        W57045  23.033  21.978  23.391 -0.2301 -0.2530 -0.0292
14133W        W57046  30.915  29.243  23.772 -0.2045 -0.0190  0.0787
14134W        W57047  28.463  28.865  20.791 -0.1919 -0.3685 -0.0711
14135W        W57048   5.672  27.990  25.301  0.0479  0.1219  0.0795
14136W        W57049  10.506  22.896  14.306  0.0111  0.0651 -0.0506
14137W        W57050  27.802  28.227  21.310  0.0763 -0.2371 -0.2373
14138W        W57051   4.940  21.371  28.109 -0.0157 -0.0227  0.1382
14139W        W57052  34.270  23.753  19.494 -0.0360  0.2435 -0.1771
14140W        W57053  32.438  33.847  16.789 -0.0156 -0.1513  0.1112
14141W        W57054  33.698  28.034  18.555 -0.4665 -0.1681 -0.1733
14142W        W57055  30.386  19.250  19.345 -0.2085  0.0216  0.0386
14143W        W57056  32.106  20.599  15.789  0.2217 -0.0871 -0.1316
14144W        W57057  29.139  26.848  25.257  0.1141 -0.1076  0.4860
14145W        W57058  32.543  17.621  20.965  0.0471  0.2662  0.0904
14146W        W57059   1.753  32.524  15.753  0.1490  0.0667  0.1631
14147W        W57060  33.477  29.677  20.473 -0.3721 -0.0653  0.1589
14148W        W57061   9.185  24.587  20.688 -0.0707  0.2058 -0.0957
14149W        W57062  28.867  24.579  23.935 -0.2831 -0.0899  0.0567
14150W        W57063   5.491  14.010  25.679  0.0847 -0.4529 -0.1350
14151W        W57064  24.219  15.286  22.227  0.0099 -0.0565 -0.0972
14152W        W57065   3.541  33.081  20.996  0.0169 -0.1967 -0.0536
14153W        W57066   1.235  18.407  17.654  0.0780 -0.1705  0.2588
14154W        W57067   1.035  24.465  15.086  0.0184  0.0054  0.1432
14155W        W57068   3.001  18.155  22.874  0.1924  0.1543  0.0123
14156W        W57069   3.989  25.926  16.438  0.2124 -0.2105 -0.1162
14157W        W57070   1.691  17.910   0.097  0.2606  0.1471  0.0645
14158W        W57071  34.480  16.672  14.254 -0.0076 -0.1169 -0.1328
14159W        W57072   0.511  29.218  21.425 -0.3507  0.0174  0.0941
14160W        W57073   4.039  24.645  18.415  0.1301 -0.0020 -0.0391
14161W        W57074   2.412  22.478  18.197  0.1371 -0.0042  0.1454
14162W        W57075  33.630  16.456  14.295  0.0589 -0.0978 -0.0392
14163W        W57076  11.883  23.378   2.913  0.0927  0.0253  0.2813
14164W        W57077  11.172  20.740  15.430 -0.3960 -0.0249 -0.2703
14165W        W57078  11.174  15.223  12.789  0.0814  0.1205 -0.2794
14166W        W57079  10.489  19.577  25.301  0.1182 -0.0680 -0.1521
14167W        W57080  33.218  20.272  15.654 -0.2437 -0.1916 -0.0789
14168W        W57081  11.001  21.336  17.610 -0.0650 -0.0136  0.0633
14169W        W57082  32.270  13.296  14.167  0.0478 -0.1557 -0.1282
14170W        W57083   7.140  26.222  26.741  0.0173 -0.0825 -0.3659
14171W        W57084  31.953   7.703  23.456 -0.1370  0.1130  0.0122
14172W        W57085  26.893  16.683  15.793  0.5469  0.1401  0.0116
14173W        W57086  33.769  23.333  13.801 -0.2814  0.0933  0.0244
14174W        W57087   7.550  25.817  28.002 -0.0701 -0.0897 -0.1619
14175W        W57088   5.124  20.009  20.223  0.0752 -0.2485  0.0223
14176W        W57089  31.173  27.300  21.578 -0.0985  0.1736 -0.1126
14177W        W57090   5.842  29.493  17.551 -0.0563 -0.0838  0.1437
14178W        W57091  33.964  16.287  19.751 -0.0000  0.3017 -0.0737
14179W        W57092   7.225  15.784  26.507 -0.1309  0.1641 -0.2341
14180W        W57093  33.997  22.554  20.719 -0.1096 -0.1865 -0.0691
14181W        W57094   4.296  20.227  16.812  0.2585 -0.1929 -0.1559
14182W        W57095  34.089  26.196  17.357 -0.1034 -0.1089  0.1006
14183W        W57096  10.552   0.307  18.062  0.1160 -0.0977  0.0446
14184W        W57097   1.167  28.042  14.924  0.2294  0.1617  0.1489
14185W        W57098   8.030  20.835  17.104  0.0424  0.0971  0.0371
14186W        W57099  28.835  28.958  15.774  0.0856 -0.0756 -0.1847
14187W        W57100  30.686  24.187  24.507 -0.0425 -0.0334 -0.0046
14188W        W57101   6.117  26.636  15.176 -0.1880  0.1488  0.0977
14189W        W57102   2.834  27.464  24.087  0.1141  0.0169  0.0632
14190W        W57103   1.944  32.765  28.010 -0.1081 -0.2541 -0.2072
14191W        W57104   2.894  30.731  19.372  0.0462  0.0750 -0.0667
14192W        W57105   0.545  16.798  14.477 -0.0468  0.0555  0.1222
14193W        W57106   8.433  17.685  22.945 -0.1513  0.0517 -0.0001
14194W        W57107  29.111  20.673  27.486 -0.0278  0.1950  0.1114
14195W        W57108   3.989  19.533  28.467 -0.0002 -0.1451 -0.1351
14196W        W57109   1.192  25.885  18.253  0.0006  0.1323  0.0586
14197W        W57110   4.378  21.978  14.662  0.0864  0.0745 -0.0008
14198W        W57111  31.884  27.880  15.846  0.1455 -0.0012 -0.3574
14199W        W57112  33.709  21.958  17.873  0.3484  0.1720 -0.0729
14200W        W57113   1.149   1.894  26.622  0.0646  0.1096  0.0449
14201W        W57114   3.830  24.201  25.319  0.0807 -0.2654  0.2474
14202W        W57115  25.254   0.073  27.098 -0.0098  0.0430 -0.2830
14203W        W57116  32.223  22.101  22.271  0.0825  0.0494  0.0751
14204W        W57117  24.236  27.675  16.972  0.3734 -0.0223  0.1825
14205W        W57118  26.202   3.574  14.612  0.1035  0.4486 -0.2669
14206W        W57119   5.659  17.671  19.262  0.0534 -0.1444 -0.0136
14207W        W57120   4.332  26.757  17.598  0.0740 -0.3366  0.1698
14208W        W57121   4.923  21.419  21.022  0.1554 -0.2070  0.1281
14209W        W57122   5.925  23.376  14.287  0.2685 -0.0122  0.5504
14210W        W57123   5.097   5.890  18.598  0.1297 -0.0273  0.0915
14211W        W57124   0.654  20.140  27.741 -0.1446 -0.0751  0.0014
14212W        W57125   0.679  32.067  21.897  0.1037  0.2223 -0.2626
14213W        W57126  29.332  31.430  22.869  0.1377  0.3842  0.2230
14214W        W57127   0.275  18.669  27.210  0.0914  0.0911 -0.1198
14215W        W57128   5.604  29.388  15.182 -0.0791  0.1099 -0.0327
14216W        W57129   6.237  22.045  16.712 -0.2412  0.1469  0.0722
14217W        W57130  11.715  26.884  20.047  0.0319 -0.0098 -0.0700
14218W        W57131   7.250  22.550  15.627  0.1259 -0.0418 -0.0592
14219W        W57132  26.102  24.627  14.242 -0.0971  0.1466  0.1537
14220W        W57133   6.329  21.561  16.411  0.0704  0.0010  0.1254
14221W        W57134   8.356   0.501  18.511 -0.0254 -0.1712  0.3707
14222W        W57135  32.980  14.984  15.076 -0.1852  0.0435  0.1928
14223W        W57136  30.034  29.987  26.531 -0.2810  0.0459  0.1136
14224W        W57137  23.206  30.287  17.615  0.0299  0.0241  0.1389
14225W        W57138  21.163  21.155  12.893 -0.0046  0.4515  0.0567
14226W        W57139  32.210  32.007  19.369 -0.3297  0.0285  0.2012
14227W        W57140   2.742  27.196  19.957 -0.0887  0.0856 -0.4052
14228W        W57141   0.234   1.335  17.877 -0.0781 -0.0211  0.2982
14229W        W57142   1.320  32.355  23.606 -0.1397 -0.1913  0.0371
14230W        W57143  20.254  14.242  13.435  0.1120  0.0474  0.0975
14231W        W57144   3.962  23.680  17.026  0.0244 -0.1219 -0.0555
14232W        W57145  33.951  29.128  18.370  0.0917  0.0629 -0.0466
14233W        W57146   2.671  20.513  15.468  0.0707  0.2485  0.1829
14234W        W57147   6.860  22.617  17.495 -0.2311 -0.0948  0.0540
14235W        W57148  30.289  16.303  17.887  0.2081 -0.0004  0.2907
14236W        W57149   2.582  33.446   0.252 -0.0075  0.1656  0.2698
14237W        W57150   4.187  27.823  19.703 -0.1227  0.2279  0.1322
14238W        W57151   2.972  21.704  23.174 -0.3038  0.0831  0.0730
14239W        W57152  33.185  17.111  19.271 -0.0881  0.0369  0.0652
14240W        W57153  17.187  23.931  19.284  0.1398  0.1982  0.0094
14241W        W57154   6.703  21.248  13.485 -0.0829 -0.1073  0.0978
14242W        W57155  29.547  27.883  22.628  0.0920  0.2322  0.2285
14243W        W57156   4.593  10.021  23.765 -0.1824 -0.0531  0.1212
14244W        W57157   6.650  11.543  15.462 -0.0983  0.1675 -0.2932
14245W        W57158   6.326  23.846  18.930 -0.0707  0.2193  0.1240
14246W        W57159  31.355  23.341  25.471  0.1120  0.1467  0.1071
14247W        W57160   5.085  24.064  21.615  0.0284 -0.0571  0.1193
14248W        W57161   4.104  17.986  14.114 -0.1364 -0.1365  0.5035
14249W        W57162  13.221  23.530  14.944  0.0739 -0.0182  0.0228
14250W        W57163   3.662  14.560  19.273 -0.3206  0.0922 -0.0281
14251W        W57164  33.598  21.454  20.941  0.1913 -0.2807  0.1511
14252W        W57165  30.888  28.831  18.106 -0.3443  0.1008  0.0594
14253W        W57166  28.583  27.870  19.614 -0.0782  0.0542  0.1333
14254W        W57167   6.657  18.993  19.839 -0.0344  0.1700  0.1639
14255W        W57168  33.642  29.874  14.491  0.1689  0.1324 -0.1588
14256W        W57169  30.276   0.832  15.974  0.0918 -0.2725  0.0664
14257W        W57170  28.191  31.265  17.952  0.0295 -0.1622  0.1299
14258W        W57171  28.796  20.575  22.183 -0.1544 -0.1343  0.0163
14259W        W57172   6.029  28.210  17.382  0.0341  0.5217 -0.1142
14260W        W57173   1.301  22.510  19.814  0.0296 -0.0652 -0.0484
14261W        W57174   7.376  27.461  16.236  0.1541 -0.2066 -0.0200
14262W        W57175   1.394  21.873  25.217  0.0319  0.1025 -0.0517
14263W        W57176   2.218  30.647  16.978  0.1227  0.2826 -0.0139
14264W        W57177  31.844  25.445  27.102  0.0967 -0.3517 -0.1424
14265W        W57178   3.885  21.382  13.597 -0.0688  0.0877  0.1303
14266W        W57179   2.652  13.216  17.359 -0.1092 -0.2160 -0.1898
14267W        W57180   5.683  11.384  25.174 -0.1218  0.1606  0.0721
14268W        W57181  32.153  20.705  15.307 -0.0098  0.1076 -0.1378
14269W        W57182   3.314  19.878  16.499 -0.0521  0.1938  0.1134
14270W        W57183  31.609  20.624  18.492 -0.0631  0.4154  0.0183
14271W        W57184   5.333  14.926  19.886 -0.0422 -0.2275 -0.2033
14272W        W57185  25.417  33.440  13.771  0.1810 -0.3118 -0.0277
14273W        W57186  30.644  27.477  20.969 -0.1023  0.0433 -0.0390
14274W        W57187   3.924  28.225  18.322 -0.2234  0.0960  0.1055
14275W        W57188   1.970  21.726  17.498  0.0686 -0.2156  0.0650
14276W        W57189  31.940  31.400  22.218  0.2937 -0.4231  0.0507
14277W        W57190  23.169  20.990  24.826  0.1347 -0.0828  0.3484
14278W        W57191  29.568  24.751  23.406 -0.2091 -0.0541 -0.2334
14279W        W57192   4.570  22.247  19.782  0.5835  0.1781 -0.0290
14280W        W57193   0.872  25.623  21.701 -0.0960  0.2565  0.4475
14281W        W57194   1.743  22.691  19.953 -0.0189 -0.0925 -0.2946
14282W        W57195   2.551  22.425  15.492 -0.1603  0.1726 -0.0350
14283W        W57196  33.700  28.571  19.700  0.2276 -0.3793  0.0307
14284W        W57197   0.109  16.731  15.487  0.0298  0.0826 -0.2753
14285W        W57198  29.778  29.512  19.768 -0.2863 -0.1553  0.0198
14286W        W57199  28.165  26.043  14.622 -0.0779 -0.0312 -0.1623
14287W        W57200  24.780   0.572  26.561  0.0635 -0.0343 -0.0800
14288W        W57201   3.551  24.520  15.229 -0.0511 -0.2692 -0.4583
14289W        W57202  31.669  24.615  15.675  0.1126 -0.1237  0.1708
14290W        W57203  30.730  31.656  17.119  0.1879 -0.0683 -0.3198
14291W        W57204  33.584  23.699  22.707 -0.0436  0.3568  0.0365
14292W        W57205   9.470  24.478  14.054  0.1238 -0.0503 -0.0308
14293W        W57206   5.278  25.619  28.286  0.0268  0.0693 -0.1323
14294W        W57207  25.121  31.477  14.836  0.0789 -0.1205  0.0760
14295W        W57208   6.870  21.078  17.723  0.1743 -0.3114  0.1594
14296W        W57209   0.915  20.720  15.195 -0.1472  0.0185  0.1076
14297W        W57210   1.864   9.420  27.187 -0.2437 -0.0574 -0.4070
14298W        W57211   5.151  22.856  18.860  0.0116 -0.0732 -0.2631
14299W        W57212   4.478  20.879  13.172  0.0588  0.1866 -0.1087
14300W        W57213   7.963  29.379  16.444  0.1825 -0.0895 -0.1232
14301W        W57214   4.534  19.069  23.100 -0.0166  0.4058 -0.0585
14302W        W57215   1.681   0.374  20.218  0.0882  0.2524 -0.1121
14303W        W57216  31.109  20.939  14.890 -0.1016 -0.0454  0.0466
14304W        W57217  32.617  18.832  15.353 -0.0658  0.1428  0.0695
14305W        W57218   3.924  27.779  14.048 -0.1105  0.0119 -0.0024
14306W        W57219   1.068  17.830  22.007  0.3984 -0.2074 -0.2569
14307W        W57220  34.260  18.513  18.616 -0.3830 -0.2211 -0.1003
14308W        W57221   2.973   1.099  21.916  0.2310  0.2290 -0.0414
14309W        W57222   3.760  21.263  17.806  0.0448  0.0923  0.1288
14310W        W57223  29.792  18.632  14.733  0.0206 -0.1166 -0.2890
14311W        W57224   8.350  33.204  16.706 -0.1154  0.1448  0.0113
14312W        W57225  11.156  26.174  16.386 -0.1067 -0.2454  0.3517
14313W        W57226  30.312  21.107  19.470 -0.1437  0.1699 -0.1187
14314W        W57227   4.919  26.589  18.906  0.0834 -0.1456 -0.0201
14315W        W57228  30.009  18.280  15.480  0.3252  0.0647 -0.2912
14316W        W57229   4.359  23.780  17.303 -0.1340 -0.1728 -0.3280
14317W        W57230  32.356  25.977  19.065  0.1015 -0.2412 -0.0010
14318W        W57231  33.101  27.216  16.014  0.0399  0.3178 -0.1435
14319W        W57232  33.305  31.610  22.749 -0.1435 -0.1756  0.1490
14320W        W57233   7.012  10.472  17.466  0.0465 -0.1701  0.0755
14321W        W57234  32.261  27.006  14.931  0.0038  0.0303  0.0505
14322W        W57235   4.049  22.088  18.556  0.1314  0.2246 -0.0514
14323W        W57236   5.035  30.606  16.541 -0.0879  0.1220  0.1480
14324W        W57237   4.906  25.466  15.920 -0.3807 -0.1529 -0.1913
14325W        W57238  26.457  22.827  19.022 -0.1442 -0.2747 -0.3088
14326W        W57239  31.439  26.286  17.787 -0.1235 -0.0697 -0.2331
14327W        W57240   4.686  25.605  19.855 -0.2969  0.0554 -0.0544
14328W        W57241  32.261  22.273  19.330 -0.0828  0.0736 -0.3071
14329W        W57242  27.655  31.527  25.690 -0.1693 -0.1731  0.0626
14330W        W57243   2.065  33.241  20.062 -0.0806  0.0084  0.1081
14331W        W57244  25.100  28.980  15.538  0.1898 -0.0422  0.2018
14332W        W57245   1.340  22.835  16.372 -0.0710 -0.0448  0.0676
14333W        W57246   4.718  18.593  23.135 -0.0803 -0.3167  0.1867
14334W        W57247   8.185  23.958  23.998 -0.1488 -0.4918 -0.1348
14335W        W57248   4.315  27.339  19.800 -0.3666  0.0164  0.0420
14336W        W57249   3.280  29.031  17.856 -0.0119 -0.0388  0.0851
14337W        W57250   7.997  20.073  19.576 -0.0663 -0.1306  0.1503
14338W        W57251   1.531  19.463  28.839  0.0191  0.1959  0.0208
14339W        W57252  29.928  28.551  15.632  0.2125 -0.2153  0.1075
14340W        W57253   2.708  17.388  15.740  0.2801 -0.2525 -0.4044
14341W        W57254  33.856  32.653  16.323 -0.0226  0.0744 -0.0738
14342W        W57255  26.494  20.147  24.930  0.1823 -0.0656  0.1905
14343W        W57256  33.661   0.532  23.116 -0.0307  0.1878 -0.1248
14344W        W57257  31.732  20.810  26.497 -0.0151  0.1646 -0.0796
14345W        W57258  29.350  15.979  14.694  0.2788 -0.0880  0.0589
14346W        W57259  29.976  12.000  15.374  0.2048  0.1322  0.0211
14347W        W57260   2.596  30.163  21.027 -0.0230 -0.0667 -0.1029
14348W        W57261   0.355  30.380  15.319 -0.2275 -0.0022 -0.1012
14349W        W57262   0.101  24.121  21.402  0.0942 -0.4183  0.1523
14350W        W57263  31.035  24.968  16.878 -0.4458  0.2139  0.1529
14351W        W57264   3.729  22.595  17.759 -0.0578  0.2359 -0.1478
14352W        W57265   3.927  25.200  23.672 -0.1095 -0.1254 -0.0340
14353W        W57266   6.485  26.392  18.343 -0.2362 -0.1035  0.0160
14354W        W57267  31.068  30.047  18.389  0.2842  0.2107 -0.0366
14355W        W57268   5.385  20.030  14.672  0.2869 -0.3288 -0.0630
14356W        W57269   6.243   4.683  18.515  0.0082 -0.0290  0.1893
14357W        W57270   7.447  24.261  22.135 -0.3513 -0.0109 -0.0895
14358W        W57271  33.524  27.870  21.942 -0.1169 -0.5403 -0.1566
14359W        W57272  30.358  22.812  16.787  0.0000 -0.1432 -0.2202
14360W        W57273  15.877  25.054  18.355 -0.2831 -0.2007 -0.2750
14361W        W57274   1.124  27.111  14.785 -0.0422  0.2295  0.0481
14362W        W57275   1.860  31.778  27.261 -0.0786  0.1907  0.2201
14363W        W57276   7.739  14.005  26.945  0.1976  0.0932 -0.1713
14364W        W57277  27.861  21.364  26.096  0.1308  0.1345 -0.0714
14365W        W57278   6.236  33.217  22.692  0.1379 -0.1736  0.1308
14366W        W57279   5.361   1.441  23.595  0.5039 -0.4349  0.2287
14367W        W57280   1.536  28.582  22.016  0.1091  0.1181  0.1301
14368W        W57281  34.437  11.205   0.056  0.2657  0.1077  0.2870
14369W        W57282   8.070  28.299  18.034 -0.2744 -0.2181  0.0371
14370W        W57283  32.927  29.352  17.394  0.2899  0.1750  0.0953
14371W        W57284  34.388  16.432  17.681  0.1737  0.1948  0.3087
14372W        W57285  23.893  21.000  22.905 -0.0127  0.3015  0.0145
14373W        W57286  32.415  16.706  21.135 -0.2869 -0.3383 -0.0632
14374W        W57287   4.568  21.269  21.536  0.0327 -0.2569 -0.2227
14375W        W57288  21.113   6.287  13.905  0.1736 -0.1645 -0.2157
14376W        W57289  31.042  19.020  16.566 -0.3426  0.1415 -0.2714
14377W        W57290  34.290  12.877  28.441 -0.2374 -0.2550 -0.0092
14378W        W57291   2.320  18.682   2.224 -0.1908  0.0606  0.2685
14379W        W57292  27.093  28.159  28.441  0.0291  0.2906 -0.1351
14380W        W57293  32.357  17.169  15.973  0.0790 -0.0107 -0.0636
14381W        W57294   0.883  29.736  20.735  0.2349 -0.0464  0.0051
14382W        W57295   2.265  20.005  23.068  0.1299 -0.0811  0.2426
14383W        W57296   1.923   4.743  19.758  0.1268 -0.1033  0.1068
14384W        W57297   4.664  19.563  23.942  0.5039 -0.0809  0.0469
14385W        W57298   9.708  24.344  19.957  0.1518  0.0403  0.1205
14386W        W57299   6.698  27.668  24.617 -0.0800 -0.1003 -0.0317
14387W        W57300   1.268  15.954  24.621 -0.3542  0.0000  0.1808
14388W        W57301  32.304  22.547  20.153  0.2370  0.0568 -0.0208
14389W        W57302   5.793  22.318  18.345  0.4968  0.1157  0.0077
14390W        W57303   3.866  31.628  19.741 -0.0955  0.2276 -0.2578
14391W        W57304  33.252  33.309  24.363 -0.1117  0.2414 -0.6139
14392W        W57305  28.598  27.086  17.475  0.2255  0.1478 -0.1325
14393W        W57306   2.435   4.924  18.016 -0.5005 -0.2556 -0.0285
14394W        W57307   1.171  30.187  16.133 -0.1341  0.0709  0.1707
14395W        W57308   4.871  18.598  21.137  0.0298  0.0774  0.0699
14396W        W57309  33.611  21.145  21.879 -0.1608  0.1027  0.1458
14397W        W57310   0.639  17.008  22.399  0.1325  0.0467 -0.1169
14398W        W57311   1.221   3.608  19.373 -0.2261 -0.1909  0.1909
14399W        W57312   9.302  12.476  23.904  0.1944 -0.4968  0.2588
14400W        W57313   1.282  13.352   1.129  0.0062  0.0970  0.0117
14401W        W57314   5.239  11.114  24.244 -0.0611 -0.0649  0.0513
14402W        W57315  28.848  20.040  14.983  0.1056  0.1976  0.5296
14403W        W57316   2.727  28.072  21.666  0.1696  0.1518  0.0223
14404W        W57317   1.834  26.820  20.208 -0.1399  0.3176 -0.2248
14405W        W57318  34.066  26.306  14.625  0.0720  0.1968  0.3377
14406W        W57319  24.624  29.513  16.089 -0.0015 -0.2333 -0.1451
14407W        W57320  31.131  34.031  25.435  0.0475  0.1904 -0.1172
14408W        W57321  34.095  31.726  21.783 -0.0123  0.0476 -0.2940
14409W        W57322   9.218  25.468  15.090 -0.1263  0.0486 -0.1594
14410W        W57323  29.637  27.799  17.986  0.5341  0.0341  0.0366
14411W        W57324  33.635  16.814  24.808 -0.0606 -0.0531  0.2595
14412W        W57325   5.260  22.017  23.044 -0.0303  0.3791  0.3254
14413W        W57326  30.658  24.778  13.136 -0.2078 -0.2623 -0.2468
14414W        W57327   0.147  20.786  26.937 -0.0640  0.3704 -0.0375
14415W        W57328   2.170  16.837  22.046  0.3454  0.2645  0.3825
14416W        W57329   4.648  14.819  21.424 -0.0117  0.2415 -0.1041
14417W        W57330   4.419  20.135  20.623 -0.5446 -0.1767  0.0692
14418W        W57331  10.264  22.021  26.350 -0.0992  0.1456  0.1517
14419W        W57332  22.973  11.798  19.945 -0.0549  0.0388 -0.0209
14420W        W57333  33.178  14.159  19.050 -0.0477  0.0191  0.3680
14421W        W57334  29.389  23.416  14.908 -0.3943  0.1847 -0.3401
14422W        W57335  11.696  20.469  12.412  0.0938 -0.3428 -0.0347
14423W        W57336   0.602  21.665   6.739  0.0070 -0.1559 -0.3256
14424W        W57337  29.855  16.236  22.285  0.0337 -0.1439 -0.1203
14425W        W57338  30.551  26.832  19.245 -0.0052 -0.2362  0.1932
14426W        W57339  34.426   8.772  24.167 -0.0215  0.2015 -0.0601
14427W        W57340  29.464  32.277  23.354 -0.1692  0.0203 -0.2478
14428W        W57341   6.183  21.844  24.089  0.0916 -0.0092  0.0447
14429W        W57342   2.000  18.366  16.190  0.5392  0.1811  0.2528
14430W        W57343   6.221  26.701  16.013  0.0253  0.1725 -0.2710
14431W        W57344   8.460  10.419  19.440  0.1595 -0.1054  0.1829
14432W        W57345   0.920  28.946  14.685 -0.0381  0.1966 -0.1425
14433W        W57346  12.178  17.151  12.902  0.1534  0.0534  0.1155
14434W        W57347  33.490  29.592  14.927  0.2116 -0.0457  0.1213
14435W        W57348   7.909  14.811  21.954 -0.2279 -0.3198  0.2709
14436W        W57349   8.192  23.084  15.101  0.4210 -0.2070 -0.1078
14437W        W57350  29.925  20.343  14.512 -0.0115  0.1199  0.2537
14438W        W57351  15.485  22.195  17.695 -0.0687  0.1579 -0.4496
14439W        W57352  10.791  19.366  17.564  0.0331 -0.1772 -0.0207
14440W        W57353  29.617  21.897  18.534 -0.2304 -0.0901 -0.1972
14441W        W57354  25.648  27.023  20.782  0.1197 -0.0169  0.2718
14442W        W57355  13.769  27.617   7.204 -0.0103  0.2354  0.0123
14443W        W57356   4.093  20.667  14.872 -0.1292  0.1837  0.2334
14444W        W57357  21.413  30.100  29.770 -0.0641 -0.1425  0.1316
14445W        W57358   1.430  19.119   0.178 -0.3044  0.1049 -0.1009
14446W        W57359  12.927  21.130  22.486 -0.1073  0.0252 -0.1132
14447W        W57360   3.165   4.537  18.853  0.0928  0.4198  0.1090
14448W        W57361  31.415  33.544  17.984 -0.2147  0.0710  0.0826
14449W        W57362   6.585  30.839  24.614  0.4768 -0.0551  0.5006
14450W        W57363   0.499  24.900  18.864  0.1280  0.0759 -0.2305
14451W        W57364   4.011  25.141  14.161 -0.1041  0.1849  0.0909
14452W        W57365  25.780  25.465  17.973  0.0698  0.1934 -0.0065
14453W        W57366  30.790  29.817  20.500  0.0563 -0.1743  0.2569
14454W        W57367  15.623  19.642  12.829  0.1352 -0.1505 -0.2611
14455W        W57368  28.108  28.069  15.119 -0.0912  0.1712  0.0484
14456W        W57369   4.520  15.306  14.394  0.1046 -0.3370 -0.1320
14457W        W57370  14.651  17.710  25.604  0.1140 -0.2483 -0.3619
14458W        W57371  30.463  20.062  13.773 -0.2616  0.3550 -0.0163
14459W        W57372   5.989  20.033  25.779  0.0481 -0.0516  0.1797
14460W        W57373   0.460  32.968  16.339 -0.0444 -0.2040  0.2149
14461W        W57374  31.412  20.522  17.547  0.0161  0.0345  0.1847
14462W        W57375  30.437  23.912  17.594 -0.2409 -0.0480  0.2828
14463W        W57376  25.748  22.790  23.487 -0.1249 -0.0717 -0.0075
14464W        W57377   3.335  28.385  24.801  0.1972 -0.0325  0.1009
14465W        W57378   3.240  22.748  26.690  0.0437  0.1700 -0.1514
14466W        W57379   3.861  25.207  20.650  0.1822 -0.2989 -0.1662
14467W        W57380  25.505  31.484  20.108  0.1014  0.0392  0.0702
14468W        W57381   4.428  16.963  23.213 -0.4100 -0.3062 -0.1822
14469W        W57382  31.192  17.523  19.477  0.1397  0.0303 -0.2902
14470W        W57383  25.711   1.187  20.237  0.2400 -0.2306 -0.0655
14471W        W57384  11.397  22.023  19.459 -0.0497  0.4208 -0.1312
14472W        W57385   2.687  16.535  15.524 -0.0510 -0.2285 -0.1930
14473W        W57386   7.689  21.843  27.336  0.0183 -0.0046 -0.0821
14474W        W57387  30.083  24.507  28.025  0.1731 -0.0110  0.0051
14475W        W57388   4.331  20.220  17.311  0.1002 -0.1262  0.4588
14476W        W57389  34.353  19.955  18.384 -0.2023 -0.1591  0.2298
14477W        W57390   0.831  28.291  21.915  0.0609  0.1780  0.3860
14478W        W57391  32.289  14.367  18.142  0.1752 -0.1263  0.3171
14479W        W57392   6.249  18.722  16.067  0.1319 -0.1314  0.1523
14480W        W57393   2.044  23.749  23.209 -0.1926  0.0871 -0.2391
14481W        W57394   0.072  18.397   0.552 -0.1292  0.0528  0.2788
14482W        W57395  34.325  23.955  15.893  0.1738 -0.2432  0.2691
14483W        W57396   1.550  30.509  22.725 -0.1138 -0.2102  0.0106
14484W        W57397   4.569  19.291  24.379 -0.1408  0.0791 -0.0326
14485W        W57398  10.402  25.441  19.820 -0.1075  0.1225 -0.1189
14486W        W57399   6.581  16.790  16.805  0.0319  0.0204  0.0190
14487W        W57400   3.598  32.521  15.650 -0.1333 -0.1890  0.0588
14488W        W57401  32.172  18.542  24.985 -0.0499 -0.2134 -0.1656
14489W        W57402  31.521  12.266  25.685 -0.1678  0.1455 -0.2604
14490W        W57403  26.560  26.496  13.963 -0.1740  0.0773 -0.0722
14491W        W57404   6.617  22.103  26.473  0.1699 -0.1263 -0.2816
14492W        W57405   1.637  13.669  17.884  0.1029 -0.1078 -0.0252
14493W        W57406   0.293  30.494  19.095 -0.3493 -0.0484  0.1343
14494W        W57407   6.577  24.534  27.644  0.2437 -0.2404 -0.0787
14495W        W57408  31.229  26.579  22.279 -0.0123 -0.0155 -0.0423
14496W        W57409  30.698  24.974  19.431  0.1685 -0.1876  0.1833
14497W        W57410  28.920  10.566  27.563  0.1055  0.0097 -0.0625
14498W        W57411   4.479  20.732  14.075 -0.1031 -0.0257 -0.1521
14499W        W57412   3.147  27.219  19.298  0.0052  0.2797 -0.3271
14500W        W57413  33.094  26.690  21.959  0.1752  0.2316  0.1180
14501W        W57414   2.560  30.264  17.060 -0.2995 -0.1772 -0.1050
14502W        W57415  29.868  17.291  17.665  0.2402 -0.3520 -0.0409
14503W        W57416  12.846   3.019  16.431  0.1127  0.0414  0.0046
14504W        W57417   2.947  31.760  20.926 -0.2671  0.1839  0.3871
14505W        W57418   7.372  22.277  26.940  0.3746  0.0905 -0.1556
14506W        W57419  32.474  26.749  16.874 -0.2178  0.1547  0.1416
14507W        W57420   5.415  26.025  26.449  0.0710 -0.1672 -0.2673
14508W        W57421  27.647  21.767  16.193  0.0259 -0.0931 -0.3430
14509W        W57422   6.894  20.145  18.121  0.0545 -0.0557 -0.1796
14510W        W57423  28.992  25.047  29.636  0.0900 -0.0441  0.0360
14511W        W57424   3.969  18.553   0.009 -0.0418 -0.0151 -0.0991
14512W        W57425  33.455  27.336  29.334 -0.0961  0.1411  0.0192
14513W        W57426  10.275  25.594  17.707 -0.0103 -0.2673 -0.0965
14514W        W57427  29.233  22.845  18.755 -0.0699  0.1810 -0.1340
14515W        W57428  32.960  22.913  16.840  0.0839  0.0500  0.2470
14516W        W57429   9.132  13.054  20.148 -0.2042 -0.3686 -0.1856
14517W        W57430   3.423  24.325  19.924 -0.2222 -0.0492 -0.1662
14518W        W57431  29.500  20.027  20.801 -0.2445 -0.2196  0.2354
14519W        W57432  29.328  32.351  25.632 -0.1418 -0.1556  0.1094
14520W        W57433  32.933  13.172  16.198 -0.2904 -0.0370 -0.1078
14521W        W57434  34.372  23.423  22.591 -0.2417  0.2076  0.0046
14522W        W57435   4.765  20.407  18.722 -0.0771 -0.2444  0.0982
14523W        W57436  31.756  21.784  22.541 -0.0943  0.2774  0.0868
14524W        W57437  10.551  27.542  18.510 -0.0223  0.0586 -0.0721
14525W        W57438  31.746  30.287  17.086 -0.1988  0.2877 -0.2309
14526W        W57439  34.146  26.855  19.906 -0.1147 -0.2113  0.2063
14527W        W57440  32.378  19.357  20.108  0.3187 -0.1192  0.2595
14528W        W57441   0.123  14.471  16.057  0.0976 -0.2335  0.3446
14529W        W57442  28.234   4.841  22.434 -0.0023  0.0770 -0.4662
14530W        W57443  26.902   1.844  14.748  0.3254  0.3261  0.1431
14531W        W57444  24.257  22.730   1.624 -0.0744 -0.2120 -0.1845
14532W        W57445   3.115  17.037  24.050  0.0259 -0.1561  0.2767
14533W        W57446   0.647  24.507  27.084  0.0987  0.2295 -0.2663
14534W        W57447  33.628  19.212  16.200 -0.1011 -0.0024 -0.3071
14535W        W57448  28.190  22.334   7.280 -0.1773  0.3171 -0.1157
14536W        W57449  27.631  28.383  25.819 -0.0368 -0.0721 -0.2611
14537W        W57450   4.725  31.835  19.818  0.1881  0.2798  0.1033
14538W        W57451  25.863  23.007  15.642 -0.2925  0.2029  0.2385
14539W        W57452   6.457  16.246  18.112  0.1249  0.0211  0.1037
14540W        W57453  29.794  24.596   3.853 -0.1873  0.4713  0.2185
14541W        W57454  31.457  18.614  19.176 -0.0463  0.0241 -0.0985
14542W        W57455   8.341  32.183  17.495  0.0152 -0.0863  0.0007
14543W        W57456  21.751   9.642  13.723 -0.1497  0.3917  0.1391
14544W        W57457   0.560  17.530  14.038 -0.1695  0.3122 -0.3505
14545W        W57458  33.771  27.832  14.857  0.1153 -0.2427  0.0995
14546W        W57459  33.898  32.513  29.534  0.1932 -0.2362 -0.1082
14547W        W57460   1.113  17.988  16.401  0.0884 -0.2107  0.2390
14548W        W57461   0.674  13.189  24.384 -0.1633  0.0624 -0.1349
14549W        W57462   2.168  29.077  24.873 -0.2768  0.0766 -0.2830
14550W        W57463   5.534  21.767  14.557 -0.2871 -0.1783 -0.2091
14551W        W57464   2.253  14.328  19.077  0.1724  0.3253 -0.4455
14552W        W57465   0.782  31.330  14.713 -0.0660  0.4788  0.0790
14553W        W57466   3.192  16.139  18.457  0.0745  0.2433 -0.0732
14554W        W57467  34.105  32.756  24.613  0.1337 -0.1423  0.1595
14555W        W57468  29.251  29.957  16.916 -0.0959 -0.0702  0.1968
14556W        W57469  27.973   4.798  17.763 -0.1224  0.2374  0.2244
14557W        W57470   2.554  23.896  20.662 -0.0976  0.0664 -0.0591
14558W        W57471   4.449  30.245  24.997 -0.0522 -0.1618 -0.3212
14559W        W57472   5.272  18.301  27.987  0.3413 -0.0109 -0.0809
14560W        W57473  30.101  27.150  13.579 -0.1861  0.2737  0.3297
14561W        W57474  32.296  29.788  14.765  0.1330 -0.0431 -0.0104
14562W        W57475   8.111  22.445  27.820  0.2507 -0.0008  0.0282
14563W        W57476  10.211  28.783  17.743 -0.3396  0.1647 -0.0075
14564W        W57477   4.007  25.971  15.833 -0.0524  0.0832  0.4267
14565W        W57478   1.753  13.602  15.736  0.4312 -0.1510  0.1382
14566W        W57479   0.415  15.205  16.665 -0.0563  0.0658  0.1482
14567W        W57480  31.208  26.274  15.167  0.1091 -0.3173  0.2419
14568W        W57481  27.644  25.597  18.824 -0.0017  0.3737 -0.3455
14569W        W57482  29.744  23.220   0.309 -0.1253 -0.0065 -0.2750
14570W        W57483   2.992  10.397  17.699 -0.0232 -0.2801 -0.0957
14571W        W57484   1.700  31.863  22.922 -0.1762 -0.0548  0.0775
14572W        W57485   3.646  30.306  20.681 -0.1284 -0.3043  0.0390
14573W        W57486   7.064  19.109  20.130  0.1057  0.1000 -0.2040
14574W        W57487   9.059  19.041  21.161  0.1537  0.1529 -0.0558
14575W        W57488   7.167  24.485  15.623  0.0220  0.1583  0.0661
14576W        W57489  21.231  29.141  24.878 -0.1016  0.0542  0.1072
14577W        W57490   6.868  26.668   8.834 -0.2325  0.1494 -0.1682
14578W        W57491  24.600   1.643  16.914 -0.1381  0.1022 -0.2990
14579W        W57492   5.915  26.395  15.713 -0.1614 -0.1487  0.0691
14580W        W57493  25.711  21.900  14.272  0.1872  0.0099  0.1864
14581W        W57494   5.420  12.270  22.249 -0.0131  0.0719 -0.2841
14582W        W57495  31.703  25.687  18.827  0.0676 -0.0989 -0.0788
14583W        W57496  34.033  20.521  27.498 -0.0302  0.1556  0.0765
14584W        W57497   5.160  28.888  19.688  0.2639  0.0499  0.1501
14585W        W57498   4.376  23.791  21.320  0.3276 -0.0205 -0.0932
14586W        W57499   5.368  27.464  26.421  0.2186  0.3067  0.0968
14587W        W57500   5.198  17.117  20.376 -0.0111  0.2213  0.2444
14588W        W57501   1.242  16.225  21.556  0.1005 -0.1155  0.0041
14589W        W57502   7.069   2.913   1.475 -0.0223  0.1748 -0.0858
14590W        W57503   4.150  24.796  19.453  0.1570 -0.0650  0.2025
14591W        W57504   5.964  25.237  15.955 -0.0112  0.0357  0.5087
14592W        W57505   2.787  19.281  25.322  0.0564 -0.0376  0.1026
14593W        W57506  31.548  19.794  15.645 -0.0266  0.0289 -0.0735
14594W        W57507  32.702  17.030  23.014 -0.0244  0.3034 -0.0989
14595W        W57508  24.053  15.102  15.357 -0.0194  0.1692 -0.0127
14596W        W57509  27.437  19.126  19.554  0.1865 -0.0666  0.0219
14597W        W57510  34.427  15.051  15.303  0.1291  0.0355  0.1498
14598W        W57511  12.417  20.273  18.497  0.2995 -0.0568 -0.1128
14599W        W57512  28.846  20.132  24.180 -0.0918 -0.1020  0.1960
14600W        W57513   3.681  15.001  20.087  0.1659  0.0024  0.1223
14601W        W57514  31.915  16.224  21.985  0.0767  0.0195 -0.1596
14602W        W57515   4.351  32.400  22.229  0.0381  0.0352  0.2689
14603W        W57516   1.429  23.044  20.704  0.5299  0.1706 -0.2523
14604W        W57517   6.722  15.793  28.377  0.0618 -0.2509  0.1455
14605W        W57518   1.433  33.291  15.820  0.1544  0.0601 -0.0309
14606W        W57519   5.681  20.402  25.853  0.0363 -0.0105  0.1517
14607W        W57520   2.002  20.545  17.774 -0.1955  0.4088 -0.0211
14608W        W57521  34.279  25.535  19.979 -0.0047  0.1047 -0.3109
14609W        W57522  28.755  17.965  20.951 -0.0822 -0.0307 -0.0706
14610W        W57523  33.763  21.305  18.909  0.1342 -0.1866 -0.2283
14611W        W57524   7.982  29.739  18.028 -0.0643 -0.0684 -0.2441
14612W        W57525   3.345  11.775   3.057  0.1229  0.0453  0.1088
14613W        W57526   1.145  16.088  16.346 -0.0620  0.1005 -0.1467
14614W        W57527  24.581  29.474  14.588  0.0443 -0.1352  0.2319
14615W        W57528   7.162  18.740  19.195 -0.2360  0.1636  0.2169
14616W        W57529   9.583  14.782  16.217 -0.0400  0.2209 -0.2741
14617W        W57530  33.105  17.039  22.384  0.0962 -0.2045 -0.0727
14618W        W57531   5.770  32.037  25.667 -0.0284 -0.1633 -0.1275
14619W        W57532  32.795  14.443  17.525 -0.0513  0.0473  0.0180
14620W        W57533   3.840  28.946  24.738 -0.3014  0.1228  0.2887
14621W        W57534   8.523  25.997  20.469 -0.0957  0.0343 -0.0468
14622W        W57535  31.193  14.895  18.336 -0.2447 -0.1992 -0.1483
14623W        W57536   8.661  14.406  19.795 -0.0682  0.3980  0.4104
14624W        W57537   6.867  21.888  23.398  0.0177  0.0073  0.0439
14625W        W57538   7.332  28.965  23.773 -0.1069  0.0911  0.0854
14626W        W57539   5.783  21.979  22.234  0.2812  0.0549 -0.0974
14627W        W57540  32.742  20.825  19.326 -0.0210  0.0756 -0.0452
14628W        W57541  33.234  24.987  23.834  0.0279  0.1625 -0.4327
14629W        W57542   4.154  26.818  19.413  0.3918 -0.0399 -0.0250
14630W        W57543  31.710  28.055  23.980 -0.0018  0.4166  0.0137
14631W        W57544  31.038  17.392  18.398  0.0703  0.2294 -0.1192
14632W        W57545  27.575  25.948  13.682 -0.0126 -0.1634 -0.3689
14633W        W57546  34.012  26.401  21.126 -0.0401 -0.0926 -0.1220
14634W        W57547  34.362  18.342  17.197 -0.0389 -0.1693 -0.1098
14635W        W57548  22.425  22.463  22.210 -0.1881  0.0236  0.2650
14636W        W57549   5.630  19.643  14.933 -0.0324  0.0292  0.0757
14637W        W57550   4.744  10.745  26.494 -0.0714 -0.2433 -0.1671
14638W        W57551   8.936  21.953  15.721 -0.1054 -0.0852  0.1234
14639W        W57552  11.152  16.961  18.708 -0.0608 -0.3123 -0.0243
14640W        W57553  31.788  21.647  24.141 -0.2669 -0.2290 -0.1183
14641W        W57554   0.673  19.745  16.638 -0.1229  0.3705 -0.1185
14642W        W57555   2.707  15.317  15.904 -0.0106 -0.2211 -0.0218
14643W        W57556  33.403  23.800  20.369 -0.1765 -0.3070 -0.1858
14644W        W57557  33.682  32.444  25.260 -0.0830 -0.0109 -0.1505
14645W        W57558   2.752  22.862  23.134 -0.2880  0.0251  0.2568
14646W        W57559  33.011  26.431  18.569  0.1304 -0.0050  0.0531
14647W        W57560   4.212  24.987  17.950 -0.0527  0.1269 -0.1770
14648W        W57561  27.005  25.944   0.837  0.0387  0.0129  0.0254
14649W        W57562   5.764  29.174   3.653  0.0973  0.0267  0.0977
14650W        W57563   5.230  29.339  16.434  0.0769  0.0115 -0.0764
14651W        W57564  32.832  20.924  13.539  0.1313 -0.1453  0.2903
14652W        W57565  33.020  16.104  18.306 -0.0494  0.3506  0.0540
14653W        W57566   1.988  23.299  25.493  0.2956  0.2411  0.2293
14654W        W57567  31.130  30.324  21.335  0.1417 -0.1224 -0.1173
14655W        W57568   5.854   4.636  24.899  0.0214 -0.1643  0.0119
14656W        W57569  33.272  19.468  14.966 -0.0296 -0.3550 -0.1353
14657W        W57570  30.962  22.688  23.299  0.1974 -0.2054  0.0829
14658W        W57571   2.613  20.472  24.088 -0.0631 -0.0596 -0.1023
14659W        W57572  14.952  21.701  16.967  0.1393 -0.2652  0.1387
14660W        W57573  31.149  13.208  14.461 -0.2151 -0.0981 -0.1064
14661W        W57574  31.772  30.171  16.616 -0.1944 -0.1046  0.0275
14662W        W57575  28.738  29.482  14.758 -0.1805  0.2278  0.0664
14663W        W57576   1.156  23.894  20.494 -0.3241  0.1499 -0.1113
14664W        W57577   0.735  32.274  18.864 -0.0539 -0.1414 -0.0220
14665W        W57578  31.471   6.384  24.980  0.1748  0.2394  0.2679
14666W        W57579   7.639  24.158  23.473  0.1816 -0.1868 -0.3648
14667W        W57580  14.668  26.632  18.963 -0.3916 -0.0879 -0.0568
14668W        W57581  29.792  27.872  24.139  0.0950 -0.1076 -0.1851
14669W        W57582   1.164  18.997  13.447  0.1299 -0.0048  0.1874
14670W        W57583  21.607   7.216  19.524 -0.2986  0.1543 -0.0648
14671W        W57584   3.942  24.383  20.707 -0.1276 -0.0286 -0.4353
14672W        W57585  34.297  17.361  14.973  0.0281 -0.0873 -0.0946
14673W        W57586  32.259  25.284  22.718  0.2023 -0.0293 -0.0763
14674W        W57587   4.109  28.634  21.328 -0.0835  0.2607 -0.2211
14675W        W57588  26.978  24.093  20.748 -0.0072  0.0156  0.1704
14676W        W57589   4.761  12.841  22.697 -0.2341  0.0156 -0.1037
14677W        W57590  33.790  29.607  23.503 -0.2824 -0.1511  0.0938
14678W        W57591  34.389  27.810  19.721 -0.0143 -0.1963 -0.0722
14679W        W57592   4.257  19.006  16.115  0.2474 -0.0988 -0.0843
14680W        W57593   0.198  27.571  14.765  0.0777 -0.0560 -0.3060
14681W        W57594  33.876  13.294  14.134 -0.2086  0.2180 -0.1769
14682W        W57595  31.350  19.481  20.467 -0.1622  0.2137  0.2755
14683W        W57596   8.197  22.567  15.114  0.0094 -0.3462  0.0730
14684W        W57597  33.664  10.010  16.449  0.3047 -0.1856 -0.1174
14685W        W57598   2.856  10.014  18.464 -0.0330  0.2366 -0.0404
14686W        W57599   0.579  28.175  22.682  0.0732  0.2088 -0.2443
14687W        W57600  25.173  19.790  19.782  0.2455 -0.0022 -0.3747
14688W        W57601   2.440  17.765  23.735 -0.3912  0.0179 -0.3196
14689W        W57602  30.475  18.501  25.093  0.2978 -0.3480 -0.0633
14690W        W57603   7.671  22.622  14.375 -0.1850 -0.1501  0.1540
14691W        W57604  25.891  27.547  16.649 -0.0227 -0.0654 -0.1761
14692W        W57605  22.210  10.872  23.328 -0.1257 -0.1125  0.0802
14693W        W57606   1.574  21.462  15.332 -0.0485  0.2426  0.1261
14694W        W57607  12.515  19.830   1.731 -0.1435  0.0652 -0.0104
14695W        W57608   4.400  25.091  28.568  0.1339  0.1668 -0.0104
14696W        W57609   0.463  29.525  13.720  0.1867  0.0187  0.0925
14697W        W57610   2.861  11.890  23.755  0.0505  0.4314  0.1138
14698W        W57611  28.206  33.714  20.414  0.1746  0.3086 -0.0754
14699W        W57612  28.667  30.856  18.721  0.3235 -0.0588  0.1726
14700W        W57613  11.792  22.770   7.395  0.3783  0.1076  0.1603
14701W        W57614   2.718  16.166  17.913 -0.0408  0.1818 -0.0852
14702W        W57615   8.365  22.653  22.390 -0.0602 -0.0374  0.1623
14703W        W57616   5.067  25.274  26.616 -0.0083 -0.1172 -0.1187
14704W        W57617   4.192  23.544  14.532  0.0043 -0.0490  0.2395
14705W        W57618  34.181  26.272   0.488 -0.0288  0.0621  0.3756
14706W        W57619   1.822  26.875  22.241  0.1531  0.2006 -0.0003
14707W        W57620  11.489  11.720  14.964 -0.0920 -0.0862 -0.2423
14708W        W57621  31.925  34.031   1.775 -0.3527 -0.2307  0.0171
14709W        W57622  31.557  19.485  23.276  0.3168 -0.1614  0.2482
14710W        W57623   2.229  21.324  19.078  0.0927 -0.0216  0.2750
14711W        W57624   1.417  16.253  22.103  0.3568  0.0553  0.3009
14712W        W57625  33.367  29.461  19.126  0.3793  0.1535 -0.1185
14713W        W57626  28.776  13.966  25.239 -0.2982 -0.0633 -0.3723
14714W        W57627   0.567  25.008  20.330  0.3305  0.0576 -0.0709
14715W        W57628  34.324  25.447  18.622 -0.0855  0.0030 -0.0715
14716W        W57629  31.547  24.826  16.807  0.1290  0.2291 -0.0985
14717W        W57630  33.303  11.407  24.241  0.0105  0.0785  0.0114
14718W        W57631  25.697   3.952  26.087  0.2598 -0.0566  0.3240
14719W        W57632   0.085  14.471  16.932  0.1120 -0.1167  0.0471
14720W        W57633   8.850  11.612   7.620  0.0555 -0.0626  0.1568
14721W        W57634   5.274  24.954  29.116  0.0581  0.0268 -0.0535
14722W        W57635  23.271  22.696  27.319 -0.0448  0.1892 -0.5033
14723W        W57636   6.352  32.342  16.931  0.1329  0.1887 -0.3848
14724W        W57637  29.295  18.448  22.902  0.0282 -0.2651 -0.0357
14725W        W57638  24.025  32.337  14.360  0.1118 -0.0375  0.2608
14726W        W57639   1.482  28.437  20.590 -0.0307  0.2546  0.0485
14727W        W57640   3.298  27.084  17.960 -0.2626 -0.0506  0.0154
14728W        W57641   3.741  14.605  21.644  0.0797 -0.1138  0.2588
14729W        W57642   3.528  29.168   2.391  0.5325  0.1841 -0.1015
14730W        W57643   7.330   5.447  21.053  0.5323 -0.2481  0.1076
14731W        W57644   8.828  20.241  14.713  0.3917  0.4213 -0.0185
14732W        W57645  30.937  28.349  15.122 -0.1589 -0.0473 -0.0963
14733W        W57646  24.009  26.483  16.790 -0.5078  0.1264 -0.0592
14734W        W57647  31.978  21.389  21.588  0.0384 -0.0954 -0.1659
14735W        W57648  29.449  14.162  21.035  0.1539  0.1071 -0.4049
14736W        W57649  24.282  24.118  15.697 -0.1891 -0.1544 -0.0122
14737W        W57650  30.181  13.873  18.005  0.1695 -0.3332  0.1900
14738W        W57651   0.609  28.875  22.696 -0.3837  0.1587  0.0173
14739W        W57652   3.885  22.713  15.877  0.2551 -0.0235  0.0706
14740W        W57653   8.339  25.739  27.686 -0.0218  0.0885 -0.1246
14741W        W57654  32.786  15.230  20.196 -0.0178 -0.0205  0.4341
14742W        W57655  33.311  21.977  14.218  0.0470  0.1256 -0.1517
14743W        W57656   5.206  18.262   7.197  0.2351  0.1223 -0.1249
14744W        W57657   9.409  29.790  17.877 -0.0171 -0.0466  0.0719
14745W        W57658   5.283  30.923  24.482  0.3532  0.1921  0.1415
14746W        W57659   7.718  17.066  14.196  0.0048 -0.0694  0.0577
14747W        W57660  29.299  21.149  20.089  0.2578  0.2309  0.0117
14748W        W57661  20.767  22.150  20.794  0.0350  0.0918 -0.1619
14749W        W57662   1.763  18.560  14.641  0.1457  0.3354  0.2790
14750W        W57663   5.461  25.977  16.885 -0.1061  0.0641 -0.1922
14751W        W57664   9.033  23.868  17.367 -0.1030 -0.1738  0.0461
14752W        W57665  10.756  33.652  25.353  0.2952  0.0254 -0.3799
14753W        W57666  33.443  21.364  21.419 -0.3082  0.5953  0.3852
14754W        W57667  24.585  27.215  22.738  0.0428 -0.4421 -0.4758
14755W        W57668   7.735  16.991  18.312  0.3911 -0.0269  0.1137
14756W        W57669  31.034  28.284  27.882  0.0423 -0.1650  0.0189
14757W        W57670  31.928   4.105  28.367  0.1107 -0.2346  0.1197
14758W        W57671   2.995  28.902  25.819  0.2390 -0.1060  0.0302
14759W        W57672   5.641  14.265  21.242  0.2506  0.1455 -0.0227
14760W        W57673   5.566  16.639  27.503 -0.0429 -0.2384  0.0039
14761W        W57674  31.624  30.251  16.110 -0.1191 -0.0401 -0.0123
14762W        W57675   4.111  12.908  25.359 -0.2056 -0.0848 -0.3720
14763W        W57676   0.537  33.835  22.914 -0.0899  0.1854  0.4005
14764W        W57677  34.164  30.984  21.721 -0.4140  0.1818  0.0788
14765W        W57678   5.758  19.075  15.977 -0.1903 -0.3202 -0.0709
14766W        W57679   9.010  21.051  26.526  0.2603 -0.0728  0.1594
14767W        W57680  22.391  21.506  23.204  0.2412  0.1158  0.0062
14768W        W57681   6.176  26.385  29.592 -0.1951 -0.1974  0.2587
14769W        W57682   6.060  15.443   5.569 -0.0436 -0.1524  0.3291
14770W        W57683   0.679  16.236  17.969  0.1446  0.0122  0.0636
14771W        W57684  33.984  27.602   0.589 -0.4385  0.1909  0.3916
14772W        W57685  34.001  18.273  27.121  0.0520 -0.1550 -0.1418
14773W        W57686   4.388  15.495   4.199  0.2404  0.1668 -0.0592
14774W        W57687   2.686  12.960  14.637  0.2314  0.2920  0.2951
14775W        W57688   2.357  14.405  14.371 -0.1188 -0.0060 -0.1693
14776W        W57689   7.315  26.259  20.004  0.1527 -0.0794 -0.0652
14777W        W57690   6.962  16.842  18.741  0.0820  0.1452 -0.2444
14778W        W57691  26.812  19.694  27.731  0.1555  0.1490 -0.0556
14779W        W57692  11.676  23.154  22.005 -0.1764 -0.4211 -0.0816
14780W        W57693  31.352  21.088  16.264 -0.0080 -0.0932 -0.0501
14781W        W57694   3.092   2.588   2.120  0.4663  0.3184  0.1642
14782W        W57695  27.243  22.024  19.003 -0.3856  0.3485 -0.1270
14783W        W57696  34.472  19.085  26.379  0.0114 -0.0503  0.2493
14784W        W57697   0.340  19.304  22.872  0.0490  0.0863 -0.1697
14785W        W57698  33.440   6.923  29.232 -0.3153 -0.1677 -0.2738
14786W        W57699   4.366  20.506   7.961  0.0041 -0.2312 -0.2735
14787W        W57700   9.088  19.961  25.063  0.1337  0.3737 -0.1923
14788W        W57701   1.331  15.920  15.418  0.1739  0.4049 -0.1395
14789W        W57702  29.681  27.016  25.995 -0.0765  0.1846  0.2408
14790W        W57703  11.637  17.693  26.027 -0.0409 -0.0716  0.1894
14791W        W57704  34.329  27.252   6.465  0.2524  0.1521 -0.0530
14792W        W57705  30.148  12.390  28.515 -0.1956  0.3643  0.0750
14793W        W57706  14.163  19.464  28.362  0.3540 -0.0953 -0.0305
14794W        W57707  26.385  33.082  17.834  0.0699 -0.0208  0.0007
14795W        W57708   1.315  19.333   8.640 -0.3678 -0.1414  0.1403
14796W        W57709   2.637  25.103  29.158 -0.1272  0.0404  0.1501
14797W        W57710   0.521  28.936  28.004 -0.0057 -0.2798 -0.1393
14798W        W57711  32.555  13.250  14.623 -0.2910  0.0672 -0.3329
14799W        W57712  32.105  21.815  17.286 -0.0557 -0.2356  0.0003
14800W        W57713   3.545  31.722  20.214  0.2156 -0.0950 -0.1501
14801W        W57714  23.738  19.837  25.737  0.2477  0.1649 -0.0969
14802W        W57715   3.332  18.672  17.703  0.2203 -0.0606  0.0030
14803W        W57716   1.366  21.712  23.111 -0.1032 -0.1155  0.0522
14804W        W57717   6.709  29.211  16.033 -0.0067  0.1017  0.0796
14805W        W57718   2.550  25.454  20.341  0.1386 -0.3601 -0.1137
14806W        W57719  33.467  11.116  20.958  0.2992 -0.1671 -0.0212
14807W        W57720   8.255  28.449  24.035  0.1102 -0.2078 -0.0864
14808W        W57721  31.121  21.500   2.071  0.1529  0.2827 -0.1920
14809W        W57722   0.655  13.083  25.325  0.0512 -0.2511 -0.2869
14810W        W57723  32.832   3.294   0.057 -0.2234 -0.1517 -0.1549
14811W        W57724   6.165  21.112   1.722  0.0469 -0.0724 -0.1647
14812W        W57725  13.493  23.594  19.636  0.4372  0.0536  0.0519
14813W        W57726   3.354  27.000  17.405 -0.0617  0.0715  0.1744
14814W        W57727  33.105  18.805   0.125 -0.0481 -0.0927  0.1693
14815W        W57728  29.691  32.675  26.012  0.0759 -0.1713 -0.2647
14816W        W57729  26.812  25.096  23.067  0.3493 -0.2677 -0.0483
14817W        W57730   9.009   0.388  24.882 -0.0923 -0.3029 -0.3223
14818W        W57731  34.096  27.820  22.680 -0.2276  0.0726  0.0703
14819W        W57732   0.562  27.717  26.052  0.2501  0.0848  0.2095
14820W        W57733  29.649  33.479  26.413 -0.1137  0.2557  0.1143
14821W        W57734  32.996   9.101  20.777 -0.1216 -0.1507  0.1511
14822W        W57735  28.343  18.397  22.679 -0.0836  0.0119 -0.1407
14823W        W57736   7.387  27.939  24.005 -0.0610 -0.2555 -0.0511
14824W        W57737   7.874  19.553  17.992 -0.0752  0.0209  0.2302
14825W        W57738   6.668  17.851  25.191 -0.2435 -0.5802 -0.4386
14826W        W57739   3.055  30.929  15.425 -0.1584  0.0843  0.1285
14827W        W57740  32.383  29.240   0.886  0.4564 -0.1170  0.0489
14828W        W57741   2.402  15.972  14.845 -0.1563 -0.0317 -0.0331
14829W        W57742  17.899  26.903  15.830  0.2637  0.2325 -0.0492
14830W        W57743   5.858  16.992  26.189 -0.0321 -0.0462 -0.0510
14831W        W57744  31.486  27.629  21.290  0.5386  0.2667 -0.0696
14832W        W57745   2.154  18.203  22.868  0.0596  0.0326 -0.2175
14833W        W57746  32.280   2.642  25.753 -0.0235 -0.0263 -0.2191
14834W        W57747  26.103  27.683  14.086  0.3269 -0.2241 -0.1215
14835W        W57748  30.691  23.640  20.290  0.0374  0.1483  0.3212
14836W        W57749  16.228  13.688   1.909  0.1564 -0.2440  0.2945
14837W        W57750   1.529  21.438  25.294 -0.2072  0.0269  0.2077
14838W        W57751   3.782  23.528  14.894  0.1228 -0.2597 -0.0585
14839W        W57752  34.269  23.949  25.211 -0.2518  0.1945 -0.2377
14840W        W57753  33.959  28.958  22.428 -0.0947  0.2272  0.1759
14841W        W57754   0.130  10.823  27.450 -0.2569 -0.0456 -0.0853
14842W        W57755  33.460  20.881   4.131 -0.1185 -0.0696 -0.1925
14843W        W57756   4.989  30.077  27.518  0.0375 -0.0282  0.1977
14844W        W57757   4.210  23.585  15.904  0.0677 -0.0747  0.0497
14845W        W57758   4.028  33.834  23.491 -0.2572  0.0441 -0.1850
14846W        W57759   0.775  28.029  17.914  0.2970 -0.1504  0.3993
14847W        W57760   3.995  21.379  14.089 -0.0376  0.1090 -0.0551
14848W        W57761  32.403  21.988  21.606 -0.1284 -0.1659 -0.2350
14849W        W57762  30.831  18.650  19.873  0.2033  0.0864  0.0577
14850W        W57763   0.761  21.065   9.395 -0.2243  0.1940 -0.2163
14851W        W57764  23.665  23.844  21.831  0.0280  0.0675  0.3147
14852W        W57765  29.472   9.558  17.761 -0.1617  0.0292 -0.0296
14853W        W57766   1.803  15.160  15.942  0.2000 -0.0401  0.2144
14854W        W57767  24.647  19.144   1.579  0.2403  0.2090  0.1205
14855W        W57768   5.807  19.311  23.943  0.1347  0.1292  0.0997
14856W        W57769   7.706  21.472   2.365  0.0945  0.0646  0.2467
14857W        W57770   0.023   2.800   0.432  0.0285  0.0868 -0.0556
14858W        W57771  32.759  19.644  25.889 -0.2322 -0.3511 -0.3533
14859W        W57772  24.550  16.174  27.459 -0.5316  0.0586 -0.1387
14860W        W57773   0.377  27.557  26.792  0.1138 -0.1722 -0.1256
14861W        W57774  34.353  28.745  23.235 -0.2848  0.0896 -0.0877
14862W        W57775  12.085  18.845   2.080  0.0350  0.0512 -0.0922
14863W        W57776   7.494  14.206  25.732 -0.0095  0.2125  0.1408
14864W        W57777  32.610  22.958  22.028  0.0766  0.3025  0.0328
14865W        W57778  33.559  16.284  23.889  0.0534 -0.4671  0.4029
14866W        W57779   2.529  29.235  20.139 -0.1701 -0.0337 -0.0159
14867W        W57780   3.028  22.938  17.057 -0.3945  0.1976 -0.0421
14868W        W57781  30.267  22.643   0.178  0.2314  0.2237  0.0947
14869W        W57782  31.287   0.615  26.871 -0.2649 -0.0958 -0.3838
14870W        W57783  25.771  28.939  29.044  0.1206 -0.0642  0.0581
14871W        W57784  28.615  19.219  14.635 -0.2600 -0.1421 -0.0634
14872W        W57785  32.251  25.966  25.438 -0.2573 -0.1025  0.2284
14873W        W57786   2.740  19.810  21.416  0.1555 -0.0277 -0.1660
14874W        W57787   0.190  26.815  14.261  0.2945  0.0052  0.0446
14875W        W57788   0.917  20.230  23.915  0.0448  0.3202 -0.1212
14876W        W57789  27.804  18.744  19.682  0.0027  0.1148 -0.1563
14877W        W57790  33.047  26.216  21.391  0.0624  0.0058 -0.1758
14878W        W57791   4.922  34.489  20.199 -0.2059 -0.1180  0.0009
14879W        W57792   7.643  32.043  20.857  0.3159 -0.2730  0.2661
14880W        W57793  27.728  28.570  17.299 -0.0092 -0.1519 -0.2032
14881W        W57794  27.305   8.314  23.642  0.2120  0.0938  0.3095
14882W        W57795  26.314  25.118  23.804 -0.0163 -0.1823 -0.2006
14883W        W57796   4.305  18.999  25.604  0.0020  0.1138  0.0401
14884W        W57797   8.367  15.242  20.667  0.2792  0.1797  0.2927
14885W        W57798  32.779  15.069  21.647 -0.0537  0.0493  0.1609
14886W        W57799  33.228  25.153  25.351 -0.1311 -0.3292  0.2068
14887W        W57800   1.363  33.718  26.226 -0.0822  0.2216 -0.3867
14888W        W57801  29.464  22.345  17.072 -0.0625  0.1110 -0.1424
14889W        W57802  33.845  24.129  24.997  0.2356  0.2103  0.0614
14890W        W57803  28.540  23.975  20.365 -0.0022 -0.1012  0.1063
14891W        W57804   2.108  25.562  25.354  0.2053  0.0139  0.1936
14892W        W57805  27.550   0.162  23.869  0.0403  0.0296  0.0717
14893W        W57806  24.364  21.022  27.583  0.0334  0.4102 -0.2574
14894W        W57807   4.196  25.998  22.229  0.2271  0.0875  0.0353
14895W        W57808   6.936  13.192   4.814 -0.1288  0.1061 -0.0409
14896W        W57809   2.785  24.934   3.807 -0.0909 -0.4200  0.1495
14897W        W57810   4.699  16.577  23.324 -0.0643 -0.2645 -0.0834
14898W        W57811   5.242  24.487  24.220  0.1193  0.1547 -0.0403
14899W        W57812  29.251  31.418  28.306 -0.2285 -0.1702 -0.0450
14900W        W57813  14.102  24.346  15.012  0.0094  0.2295 -0.0948
14901W        W57814  30.813  24.943  23.977  0.1108  0.5378 -0.1825
14902W        W57815  13.607  21.978  23.405 -0.0658 -0.3771  0.2107
14903W        W57816  33.116  12.885  24.111  0.0331  0.1956 -0.1736
14904W        W57817  33.575  26.861   1.438 -0.3394 -0.1042  0.1170
14905W        W57818  31.999  13.992   0.938  0.2804 -0.0980  0.1518
14906W        W57819  32.328  29.828  28.262  0.0270  0.1215  0.1003
14907W        W57820   4.484  21.246  20.145 -0.0635 -0.1478  0.1209
14908W        W57821   0.093  33.837  15.342 -0.2137 -0.3426  0.0592
14909W        W57822   5.442  16.986  25.666 -0.2827 -0.0546 -0.1555
14910W        W57823   1.954  20.282  21.747 -0.3365  0.3128  0.2735
14911W        W57824  25.407   0.475   1.776  0.0272 -0.0779 -0.2828
14912W        W57825  31.640  21.284  19.653 -0.0302 -0.5155 -0.2645
14913W        W57826   0.206  17.960  20.472  0.1541  0.1749  0.3501
14914W        W57827   1.164  25.077   5.449 -0.2164  0.1910 -0.1053
14915W        W57828  29.074  14.345  25.322 -0.1873  0.1776 -0.3580
14916W        W57829  28.300  29.072  25.948 -0.2479  0.1183  0.1283
14917W        W57830   0.114  25.283  27.251  0.0463  0.0863  0.0271
14918W        W57831  26.672  15.339  22.178  0.0904  0.3399  0.1474
14919W        W57832  34.101  21.510  23.738 -0.0279 -0.1160 -0.2012
14920W        W57833  25.944  24.467  14.986  0.0356 -0.0873  0.0495
14921W        W57834   5.020  14.292  14.872  0.0611 -0.0292  0.2733
14922W        W57835  28.571  16.921  23.772  0.4407 -0.0542  0.1885
14923W        W57836   7.983  26.056  20.720  0.1080  0.1489 -0.2759
14924W        W57837  18.864  20.836  13.207  0.0942  0.0643 -0.1894
14925W        W57838  22.135  21.657  22.825  0.1173  0.1116  0.0167
14926W        W57839  21.818  23.477  15.014  0.3371 -0.0696 -0.1296
14927W        W57840   4.689  21.821  24.213 -0.1821 -0.1966 -0.1518
14928W        W57841   4.256  22.499  17.769 -0.3961 -0.0310  0.0548
14929W        W57842   5.302  22.293  14.555 -0.2657 -0.0624  0.1807
14930W        W57843  29.840  17.791   8.623 -0.0392  0.0558 -0.0489
14931W        W57844   0.481  31.216  18.996  0.2700  0.0946  0.1573
14932W        W57845   7.040  31.687   4.678  0.1247 -0.1937 -0.0708
14933W        W57846   0.683  18.046  22.401 -0.2614 -0.2372  0.0077
14934W        W57847  31.172  10.823  21.606 -0.0321  0.0036 -0.1888
14935W        W57848  30.669  31.971  16.673 -0.0777 -0.2752 -0.0815
14936W        W57849  33.700  26.022  15.677 -0.0609 -0.3054  0.1507
14937W        W57850   3.629  24.941  26.572 -0.0232 -0.3201 -0.0330
14938W        W57851   8.759  16.866  27.017  0.2853 -0.1428  0.0661
14939W        W57852  34.126   9.408   0.963  0.3986 -0.2950 -0.1143
14940W        W57853  28.154  16.947  24.175  0.1256 -0.2361 -0.0353
14941W        W57854   4.458  34.243  18.369  0.2506  0.0385  0.0034
14942W        W57855   7.264  23.728   5.868 -0.0593 -0.1599  0.0643
14943W        W57856   2.234  25.353  16.928  0.2416  0.2075  0.0253
14944W        W57857   7.513  12.005  16.361 -0.2062 -0.0089 -0.0200
14945W        W57858  32.785  25.606  19.514  0.3689  0.1221  0.1369
14946W        W57859   2.197  23.616   2.821  0.1640  0.0917 -0.2187
14947W        W57860  34.026  27.679  28.060 -0.1405  0.0954  0.1102
14948W        W57861  30.441  18.703  13.562  0.0686  0.1282  0.3338
14949W        W57862   7.932  27.132  28.691  0.1597  0.4801  0.1958
14950W        W57863   7.879   6.166  24.439  0.0295 -0.1529 -0.0187
14951W        W57864  32.428  26.711  29.047  0.0207 -0.1803  0.1085
14952W        W57865   5.657  14.034   1.074  0.0397 -0.2148 -0.0493
14953W        W57866   8.749  26.987  25.071  0.4645  0.0360  0.1842
14954W        W57867   7.485  13.036  17.646  0.0090 -0.1337 -0.2117
14955W        W57868  33.295  22.642  26.624 -0.1418  0.1223 -0.3057
14956W        W57869   2.131  19.926  22.076  0.1791 -0.2906  0.0431
14957W        W57870  27.957  17.178  25.202  0.2361 -0.1588 -0.1421
14958W        W57871  34.464  31.994  22.602 -0.1833 -0.0278 -0.3569
14959W        W57872   3.566  30.260   0.888  0.0493 -0.2500 -0.2351
14960W        W57873  25.785  26.662  20.457  0.0983 -0.1145 -0.0008
14961W        W57874   7.642  27.631  19.570 -0.1039 -0.1698 -0.0487
14962W        W57875   4.001  12.449  26.661  0.2250 -0.1410 -0.4307
14963W        W57876  28.792  16.322  21.655  0.2517  0.0100 -0.0356
14964W        W57877   7.480  18.165  22.027  0.2441 -0.0878  0.0629
14965W        W57878  28.895  31.732  23.853 -0.1945 -0.1544 -0.2851
14966W        W57879   7.996  19.466  20.491  0.2270  0.1195 -0.0173
14967W        W57880  29.419  27.629  15.208 -0.3314 -0.3335  0.1624
14968W        W57881  29.387  19.039  23.660 -0.2607 -0.0763  0.3164
14969W        W57882  24.086  22.034  22.657  0.1134 -0.0214 -0.1991
14970W        W57883   7.415  28.142   2.267 -0.0695  0.0746 -0.1256
14971W        W57884  27.867  19.494  23.810 -0.0670 -0.0949  0.5279
14972W        W57885   8.034  22.670  16.608 -0.0542  0.3125  0.1492
14973W        W57886  31.722  18.400  23.623 -0.0949 -0.3103 -0.1795
14974W        W57887  27.035  21.358   0.156  0.3332 -0.0994  0.0607
14975W        W57888   7.960  26.279  15.794 -0.2516  0.3615 -0.2318
14976W        W57889  26.944  24.436   3.078  0.1482 -0.2943 -0.1108
14977W        W57890   4.863  15.439  24.645 -0.2474  0.0732  0.3510
14978W        W57891  30.661  17.108  28.558  0.1111  0.1807 -0.1702
14979W        W57892  10.561  20.205  25.017  0.2613  0.0132  0.3117
14980W        W57893  28.596  20.665  21.398  0.0142  0.1305  0.0273
14981W        W57894  26.577  29.842   1.584  0.1371  0.3111  0.1852
14982W        W57895  29.710  20.455  18.512 -0.2045  0.5717 -0.0236
14983W        W57896  33.792  33.152  24.088  0.0958 -0.3469 -0.0024
14984W        W57897  33.747  21.045   1.259  0.0590 -0.0812  0.3217
14985W        W57898  28.087  14.085  15.752 -0.0180  0.2057 -0.1594
14986W        W57899   1.258  31.841  14.321  0.1700 -0.1225  0.3480
14987W        W57900  34.365  24.478  24.303 -0.0101  0.0732 -0.1363
14988W        W57901  27.232  21.614  21.201 -0.1659 -0.0854  0.0130
14989W        W57902   9.610  25.387  23.714 -0.2204 -0.1316 -0.3167
14990W        W57903   2.413  29.796  16.877  0.3385  0.3292 -0.2203
14991W        W57904   2.078  21.782  24.220 -0.1103 -0.0395  0.1699
14992W        W57905   3.741  21.836  18.172 -0.3308  0.0308 -0.1854
14993W        W57906   0.593  22.507  23.042 -0.0054 -0.0823 -0.2616
14994W        W57907  26.635  30.660  21.312  0.0101 -0.1555 -0.2044
14995W        W57908  31.997  26.201  24.325  0.0562 -0.0197  0.0442
14996W        W57909   2.524  19.946  20.380  0.1046 -0.0658 -0.1813
14997W        W57910   2.406  20.921   1.445 -0.4093  0.0927 -0.3603
14998W        W57911   0.082  24.078  23.772 -0.1326  0.0681  0.2709
14999W        W57912  12.036  19.641  23.994  0.0199  0.1551 -0.2267
15000W        W57913  32.641   1.900  28.258 -0.0628 -0.1292 -0.4070
15001W        W57914  28.935  27.376  27.708 -0.3134 -0.2133 -0.0921
15002W        W57915   7.784  22.280  24.508 -0.2297  0.3044  0.1694
15003W        W57916   5.362  16.460  14.923  0.0595  0.2535  0.0222
15004W        W57917   0.299  21.034  15.781  0.0827 -0.0187 -0.0033
15005W        W57918   2.909  26.365  26.081 -0.0414  0.3111  0.0956
15006W        W57919   8.623  29.293  17.318  0.1032  0.0490 -0.1825
15007W        W57920  14.365  17.577  23.326  0.0088 -0.0212 -0.1486
15008W        W57921   4.288  12.727  17.468  0.3175 -0.0941  0.0021
15009W        W57922  27.099   7.257  15.230  0.1324 -0.1295 -0.1601
15010W        W57923  30.580   5.290  20.112  0.0330 -0.1318  0.0864
15011W        W57924  33.285  27.545   2.802 -0.0529 -0.2924 -0.0802
15012W        W57925   1.793  26.553  17.071  0.0621 -0.0445  0.0486
15013W        W57926   1.359  19.040  21.602 -0.2548  0.1094  0.0650
15014W        W57927  28.563  29.715  18.836 -0.4485 -0.1373  0.0222
15015W        W57928   5.265  14.357  23.257  0.1019  0.0386  0.0081
15016W        W57929   8.683  33.867  24.662  0.2244 -0.3378 -0.0639
15017W        W57930  21.125  23.080  14.440 -0.0101 -0.0644  0.0087
15018W        W57931  34.345  23.668   0.218  0.0548  0.0506  0.2102
15019W        W57932  26.918  24.777  24.621  0.2236  0.2648 -0.1557
15020W        W57933   8.290  26.265   4.572 -0.0608  0.0735 -0.0217
15021W        W57934  33.860  25.302  22.257  0.0318  0.2508  0.1787
15022W        W57935   3.636  18.982  29.094 -0.0424  0.1722 -0.3086
15023W        W57936  25.376   4.228   4.233 -0.2932 -0.0032  0.1962
15024W        W57937  29.157  31.007  29.193  0.0316  0.0185 -0.2019
15025W        W57938  24.790  18.321  23.647  0.0264  0.0218 -0.4029
15026W        W57939  29.273  21.822  29.709 -0.3198  0.0164  0.0571
15027W        W57940   3.181  15.541  14.457 -0.0287  0.0543  0.1972
15028W        W57941  25.485  17.938   5.789 -0.2017  0.0064 -0.2730
15029W        W57942   4.270  20.584  28.518 -0.5966  0.1676  0.1138
15030W        W57943   3.964  20.266  18.432 -0.1789  0.1657 -0.1338
15031W        W57944  27.379  33.234  27.943  0.1471  0.0101  0.0603
15032W        W57945  31.669  30.807   6.528 -0.1125 -0.1707 -0.1908
15033W        W57946  10.341  27.811  26.373  0.1268  0.1413  0.2152
15034W        W57947   0.001  25.790   1.328 -0.1610 -0.1697  0.0513
15035W        W57948  27.257  27.432  25.993 -0.1621  0.1845 -0.0461
15036W        W57949   2.135  26.708  25.696 -0.0169  0.0635 -0.2383
15037W        W57950   1.387  25.240   3.968 -0.0718 -0.1457  0.0803
15038W        W57951  34.464  24.157  14.778 -0.1190  0.0425  0.1260
15039W        W57952   3.612   1.350  25.212 -0.0742  0.4147 -0.0515
15040W        W57953   7.028  24.831  16.899 -0.0019  0.1721  0.0935
15041W        W57954   8.136  17.078  21.451  0.1515 -0.1514  0.1492
15042W        W57955   3.406  18.971  19.485  0.1301 -0.0679  0.1113
15043W        W57956   1.529   0.946  16.403 -0.4176  0.0329  0.2552
15044W        W57957  31.289  31.039  17.272  0.3550 -0.1008  0.1706
15045W        W57958  30.861  22.163  21.267 -0.1818 -0.1396 -0.4332
15046W        W57959   1.357  26.551  21.452  0.5049 -0.0839  0.2212
15047W        W57960   0.939  24.628   9.691  0.1194  0.4974  0.0496
15048W        W57961  28.756   1.582   2.384  0.1245  0.1257 -0.0983
15049W        W57962   4.038  20.897  25.031  0.0138  0.2771 -0.1419
15050W        W57963  32.398  27.126  24.215  0.0524 -0.0271  0.0777
15051W        W57964   5.111  24.206  18.968  0.1309  0.0150 -0.0529
15052W        W57965  29.660  32.830  24.160  0.0852 -0.0580  0.0831
15053W        W57966   4.962  19.704  18.968  0.1943 -0.1051  0.4404
15054W        W57967   0.325  22.646  24.295  0.0161  0.2656  0.0144
15055W        W57968  32.400  31.801  27.719  0.2031  0.1249 -0.0933
15056W        W57969   0.978  25.971  20.728  0.2533  0.0769  0.0722
15057W        W57970  10.164  16.446   1.000  0.2405  0.0804 -0.2014
15058W        W57971   1.034  29.163  18.776  0.3005 -0.1817 -0.2065
15059W        W57972   1.853  25.606  21.967 -0.0009 -0.1113 -0.1135
15060W        W57973   5.495  15.191  16.701  0.0100  0.0216 -0.2256
15061W        W57974  33.125   6.577  19.306 -0.0977 -0.1727 -0.2684
15062W        W57975  12.711  30.949  24.779 -0.0359 -0.0544  0.0059
15063W        W57976   0.193  27.669  19.145  0.0637  0.3127  0.1587
15064W        W57977  29.824  23.762  22.215 -0.0296  0.0011  0.0038
15065W        W57978  11.703  16.865  23.363 -0.2431  0.1075  0.1114
15066W        W57979   3.401  27.695   0.291  0.4431  0.1443  0.0437
15067W        W57980   0.205   1.005  18.670  0.2328 -0.0394  0.2680
15068W        W57981   6.832  20.684  22.609  0.4754  0.1543  0.1931
15069W        W57982   3.448  31.303  15.190  0.0434  0.0383 -0.0546
15070W        W57983  32.745  19.120  16.306 -0.3877  0.1971  0.1444
15071W        W57984  11.999  20.390   4.641 -0.3128 -0.2304 -0.3461
15072W        W57985  32.647  19.380  23.393 -0.0346 -0.2439 -0.1166
15073W        W57986   3.821  21.172   1.101  0.1048 -0.3134  0.2223
15074W        W57987   0.316  17.629  25.105  0.0331 -0.0096 -0.1449
15075W        W57988   7.327  22.780   2.285 -0.1252  0.0802 -0.1920
15076W        W57989   6.069  23.936  19.321 -0.1245  0.2338  0.0228
15077W        W57990  29.050  19.913  22.723 -0.0390  0.1417 -0.1521
15078W        W57991  24.459  14.540  25.828 -0.2848 -0.0206 -0.2264
15079W        W57992   1.348  32.665  28.989  0.2448  0.3525 -0.1640
15080W        W57993   0.987  23.203  16.192  0.1173 -0.1570 -0.1699
15081W        W57994   3.195  15.470  19.184  0.1690  0.1512  0.2469
15082W        W57995  13.314  22.018  19.783 -0.0713  0.0878  0.1651
15083W        W57996  32.930  23.612  27.029  0.2849  0.2390 -0.1251
15084W        W57997   5.760  16.391  24.963  0.0793  0.0964 -0.0850
15085W        W57998  25.606  24.107  27.977 -0.1686  0.0850  0.0928
15086W        W57999   4.315  15.192   0.200 -0.0478 -0.0367 -0.1721
15087W        W58000   2.213  10.331   2.859 -0.3554 -0.1066 -0.1821
15088W        W58001   5.625  27.741  20.777  0.3468  0.2237  0.4282
15089W        W58002   3.164  28.384  26.519  0.1479  0.2043  0.1671
15090W        W58003  31.389  13.913  15.677 -0.1334 -0.1618  0.1115
15091W        W58004   3.599  31.282  27.200  0.0310 -0.2344  0.2753
15092W        W58005   2.008  16.864   1.385 -0.2860 -0.2189  0.2348
15093W        W58006  29.877  28.506  28.360 -0.2041  0.0699  0.1296
15094W        W58007   2.024  13.262  23.615  0.4329 -0.0761  0.1335
15095W        W58008   4.342  25.995  14.691  0.0051  0.0773  0.2191
15096W        W58009  33.883  16.111  17.833 -0.1847  0.0017 -0.2971
15097W        W58010   3.222  22.595   2.114  0.2524  0.2292  0.1962
15098W        W58011  31.168  25.791  26.713  0.1019  0.2686  0.3988
15099W        W58012  10.989  15.259  23.231  0.1636  0.0301 -0.2517
15100W        W58013   0.990  30.248  26.690  0.2611  0.0600 -0.1441
15101W        W58014  34.185  29.661  27.508 -0.1762 -0.1866 -0.1285
15102W        W58015  30.706  31.992   1.707  0.0161  0.0433 -0.4521
15103W        W58016  32.302  29.335  19.203  0.0526 -0.3957 -0.0883
15104W        W58017  34.483  19.724  13.572  0.3887 -0.1407 -0.0145
15105W        W58018  30.982  27.821  21.268 -0.2270 -0.3426  0.0625
15106W        W58019   3.727  31.254   5.613  0.0631  0.0030 -0.0427
15107W        W58020  24.869  23.033  26.927 -0.0763 -0.2379 -0.0197
15108W        W58021  31.898  25.136  25.649  0.0619 -0.1727  0.1855
15109W        W58022  27.776  29.138  13.072 -0.1634  0.0682 -0.0420
15110W        W58023  33.510  22.938  13.749 -0.1279  0.3811 -0.0557
15111W        W58024   1.154  21.105   0.726  0.0656 -0.1050  0.0486
15112W        W58025  33.899  25.593  15.675 -0.1448 -0.1123 -0.2445
15113W        W58026   8.382  18.417  14.209  0.3086 -0.0188  0.2586
15114W        W58027  34.169   0.796   2.570  0.3954 -0.1361  0.1380
15115W        W58028  28.137  27.122  16.876  0.2205 -0.0055 -0.0424
15116W        W58029   6.335  27.649  26.962 -0.1245  0.2184 -0.0931
15117W        W58030   1.243  15.610  25.125  0.1513  0.1037  0.0584
15118W        W58031  31.004  18.509  22.356 -0.1361 -0.1163  0.4383
15119W        W58032  27.702  29.161  23.664 -0.3602  0.4417  0.1837
15120W        W58033   5.110  26.985  24.092  0.0154 -0.3179 -0.3435
15121W        W58034   1.962  12.930  23.178 -0.0920 -0.1684  0.0127
15122W        W58035   7.303  17.442   2.830 -0.1586 -0.2194  0.0881
15123W        W58036   2.729  10.009   2.863  0.3402  0.0814  0.1058
15124W        W58037  32.001  18.477  26.273  0.1568  0.0375 -0.4188
15125W        W58038   8.139  11.952  28.961 -0.2839  0.3650  0.1136
15126W        W58039   2.855  33.655   4.674 -0.0738  0.1001  0.0724
15127W        W58040  34.283  22.086   0.576 -0.1645 -0.1284 -0.0327
15128W        W58041  10.961  18.638  12.561 -0.0985 -0.0012  0.0986
15129W        W58042   6.862  17.447  15.699  0.3178  0.2515 -0.0395
15130W        W58043  31.331  22.892  24.103  0.0653  0.0056  0.0887
15131W        W58044   8.141  21.997  28.171 -0.1070  0.3350  0.1354
15132W        W58045  34.129  25.162  26.997  0.1254 -0.4061  0.2057
15133W        W58046  31.217   9.630  26.836  0.0253  0.1221 -0.3128
15134W        W58047   7.290  19.980  26.411 -0.1506 -0.0980 -0.4168
15135W        W58048  30.061  22.682  23.274  0.0619  0.2053  0.0167
15136W        W58049  31.219  13.560  21.467  0.2093 -0.0941 -0.2618
15137W        W58050  24.793  26.582  16.176 -0.3139 -0.1904 -0.0377
15138W        W58051  26.027  32.679   0.293  0.3348  0.0142 -0.0295
15139W        W58052   7.266  20.135  18.528 -0.2651  0.2441  0.1613
15140W        W58053   8.319  24.557  26.934  0.1140 -0.2745  0.0878
15141W        W58054  27.510  14.760  23.561 -0.0751 -0.1391  0.1667
15142W        W58055   6.972  23.543  27.570  0.2365  0.0763  0.0599
15143W        W58056  28.689  24.723  27.209  0.0337 -0.2347  0.3464
15144W        W58057  28.445  22.765  22.529 -0.0455  0.1537  0.2243
15145W        W58058   4.815  23.819  13.811 -0.2396 -0.0349 -0.1572
15146W        W58059   4.825   7.375   8.156  0.1621  0.1144 -0.2509
15147W        W58060  34.323  30.057  21.336 -0.1193 -0.2603  0.2537
15148W        W58061   7.835  21.567  21.927  0.3919 -0.0117  0.1104
15149W        W58062   1.421  25.711   0.253 -0.0493 -0.1765 -0.0356
15150W        W58063   5.137  15.252  27.286 -0.4968  0.0517  0.0422
15151W        W58064   3.927  21.041  15.843 -0.0053 -0.0299 -0.1095
15152W        W58065  33.004  23.579  25.712 -0.0752  0.2519 -0.0754
15153W        W58066  30.592  15.521  20.664 -0.1867  0.0540  0.1421
15154W        W58067  33.100  19.215  21.516 -0.1138 -0.3012 -0.0571
15155W        W58068  34.402  24.696  23.057  0.1188  0.2675 -0.1048
15156W        W58069   4.567  15.976   3.983 -0.1263  0.1537 -0.2148
15157W        W58070   0.204  26.285   0.953  0.0942  0.1648  0.0557
15158W        W58071   8.167  23.022  24.293 -0.0992  0.0010 -0.2346
15159W        W58072  29.794  23.788   9.082 -0.3172  0.1366 -0.1890
15160W        W58073   2.911  25.983  16.717  0.0305 -0.1215 -0.1836
15161W        W58074  28.220  24.231  25.202 -0.3119 -0.1872 -0.2293
15162W        W58075   9.702  26.295  29.217  0.0010 -0.0881 -0.0141
15163W        W58076   0.554  29.096  10.430 -0.2062  0.3442 -0.1299
15164W        W58077  16.225  18.877   1.926 -0.2091  0.1062 -0.1564
15165W        W58078  33.368   2.200   0.643  0.0854 -0.3259  0.1587
15166W        W58079  29.245  33.590  19.599  0.2779  0.0760  0.0954
15167W        W58080   3.046  29.196  10.516  0.0884 -0.0057 -0.3422
15168W        W58081  26.120  18.353  23.764 -0.1447  0.1892 -0.0871
15169W        W58082  30.071  30.203   8.886  0.1064  0.0975 -0.1167
15170W        W58083  24.304  32.218  17.081 -0.0105  0.0060  0.1131
15171W        W58084   2.468  25.864   3.974  0.5913 -0.1178 -0.0732
15172W        W58085  11.857  22.452  20.527 -0.0176 -0.1382 -0.1077
15173W        W58086   1.176  20.981   0.214  0.0682  0.1199 -0.1309
15174W        W58087   3.733  22.798  26.706  0.0461 -0.1563 -0.2800
15175W        W58088   0.148  18.608  15.311 -0.0525  0.1539 -0.1796
15176W        W58089   2.292  13.224   2.301 -0.0249  0.1909  0.1743
15177W        W58090  34.188  20.802  16.588 -0.1220 -0.0317  0.0263
15178W        W58091  32.655  28.926   1.284  0.1717 -0.1600  0.1765
15179W        W58092   3.392  27.443  20.564  0.1523 -0.1641  0.0346
15180W        W58093   0.209  32.522  25.231 -0.0228 -0.0677 -0.0452
15181W        W58094  34.387  11.021  26.235  0.0851 -0.1579  0.0529
15182W        W58095  11.305  26.861  28.850  0.4610  0.0013  0.2636
15183W        W58096  20.216  20.115  21.317  0.0528  0.3400  0.2983
15184W        W58097  28.292  15.548  24.723  0.0190  0.2756 -0.0064
15185W        W58098  26.815  32.479   4.429 -0.0730  0.2553  0.2377
15186W        W58099  26.255  13.719  23.735  0.0691 -0.2879 -0.0321
15187W        W58100   0.510  29.798  28.281 -0.0275 -0.1187 -0.2038
15188W        W58101  10.422  21.977   0.255 -0.0312  0.2847 -0.1998
15189W        W58102   0.400  27.045  26.776  0.3454  0.2151 -0.1202
15190W        W58103   1.327  23.429  26.230  0.0655 -0.0945 -0.0124
15191W        W58104  12.050  20.833   4.828  0.1133 -0.3827 -0.0775
15192W        W58105  28.984  26.747   1.818  0.2264 -0.1640 -0.1726
15193W        W58106  31.680  17.318   6.548 -0.1877 -0.0895  0.0457
15194W        W58107  33.083  24.239  27.956  0.2082  0.0306  0.0873
15195W        W58108  29.602  17.445  23.001  0.4999  0.2013 -0.0560
15196W        W58109  28.542  29.441  20.975 -0.2246 -0.1376  0.1564
15197W        W58110  25.730  32.001  22.727 -0.0921 -0.0993  0.1181
15198W        W58111  34.263  27.813  21.111 -0.1801  0.0119  0.0235
15199W        W58112   2.512  20.730  17.798 -0.1752  0.0120 -0.2270
15200W        W58113  14.831  17.682  26.959 -0.0855 -0.1444  0.3542
15201W        W58114  10.930  20.351   3.256  0.0972  0.0313 -0.0251
15202W        W58115   4.848  25.795  28.647 -0.0760 -0.1159  0.2768
15203W        W58116  33.308  30.601   9.826 -0.2037 -0.0718 -0.1961
15204W        W58117   3.922  10.737  24.488  0.2644  0.1408  0.2804
15205W        W58118  24.801  24.233  29.691  0.0050  0.0692 -0.1842
15206W        W58119   3.734  24.778  15.627  0.2437  0.3885 -0.4157
15207W        W58120  32.478  33.472  21.891  0.0433 -0.0703 -0.1047
15208W        W58121   5.852  19.142   3.557  0.0526 -0.2491  0.0429
15209W        W58122   4.139  15.389  17.463 -0.2061 -0.1329 -0.1018
15210W        W58123   2.331  15.530  19.038  0.0358  0.1938  0.0153
15211W        W58124   5.580  29.607  21.885 -0.0130 -0.3911 -0.0731
15212W        W58125  27.643  27.430  28.816 -0.2957  0.0888  0.4097
15213W        W58126  12.828  27.834  27.349 -0.0720  0.1132  0.0860
15214W        W58127  32.316  18.659   1.874  0.0941 -0.4074 -0.0262
15215W        W58128   8.546  22.198  26.107 -0.0217  0.0476 -0.2290
15216W        W58129   0.364  22.751  21.112 -0.4285  0.1323  0.1204
15217W        W58130  14.082  19.378  17.490 -0.0056 -0.0727  0.2178
15218W        W58131   6.741  23.381   1.090 -0.1162  0.4018 -0.2763
15219W        W58132  32.854  32.503  23.402  0.1763  0.1784 -0.1640
15220W        W58133  31.994  12.518   3.962  0.1131  0.1663  0.0934
15221W        W58134   0.525  21.045  18.639 -0.2434  0.3050 -0.1116
15222W        W58135  33.949  32.187  26.557 -0.0872 -0.0416 -0.0320
15223W        W58136   2.335  21.480   3.894  0.0341  0.0580  0.1415
15224W        W58137   1.911  18.958   2.189 -0.0171 -0.3299  0.0960
15225W        W58138   7.960  21.487   6.843  0.0189 -0.3019  0.1578
15226W        W58139  31.060   6.954  21.564 -0.2866 -0.3775  0.1116
15227W        W58140  33.947  13.869  26.508 -0.0455  0.3612  0.0372
15228W        W58141   7.123  27.271  15.118 -0.0005 -0.0640 -0.2284
15229W        W58142   1.187  16.131  27.420  0.0711 -0.1042  0.0919
15230W        W58143   3.096   9.711   5.803 -0.0917  0.2007 -0.0268
15231W        W58144   4.530  21.712  20.276  0.0931 -0.1379 -0.1725
15232W        W58145  33.550  17.316  26.735 -0.4203  0.0367 -0.1310
15233W        W58146   2.934  26.170   1.441  0.0402 -0.0847 -0.0350
15234W        W58147  15.834  14.467  23.034  0.2298 -0.0730 -0.0359
15235W        W58148   8.285   3.829   0.409  0.0222  0.0743  0.2391
15236W        W58149  32.805  20.771   1.396  0.1115 -0.2579  0.2053
15237W        W58150  30.464  23.504  28.925  0.1064 -0.2172 -0.1401
15238W        W58151   5.169   2.739  25.923  0.1739  0.0709  0.2195
15239W        W58152   8.029   1.346   6.756  0.0262 -0.0609  0.6871
15240W        W58153   2.088  28.557  18.415  0.1648 -0.0692  0.0239
15241W        W58154   2.417  19.989  28.970  0.3390 -0.1721 -0.0722
15242W        W58155  33.728  13.852   9.343  0.2566 -0.1141  0.0236
15243W        W58156   7.649  22.424  16.781  0.1214  0.0598 -0.1606
15244W        W58157   6.396  13.493  18.566 -0.0430 -0.2105  0.0157
15245W        W58158  30.691  24.177  16.159 -0.0952 -0.0233 -0.5082
15246W        W58159  26.299  30.568   1.962  0.6003  0.1983  0.2927
15247W        W58160  33.292  16.473  21.431  0.2267  0.3363  0.0148
15248W        W58161  10.106  22.716  15.759  0.0562 -0.2111 -0.1172
15249W        W58162  12.285  23.048  26.965  0.1549 -0.1450  0.0344
15250W        W58163  30.933   6.095  26.551  0.0828  0.0120  0.0137
15251W        W58164  33.165  25.299  19.191  0.1080 -0.1217  0.1127
15252W        W58165  33.083  27.141   3.113  0.0762  0.0832 -0.1699
15253W        W58166   0.839   7.934  25.075  0.2139 -0.0450  0.0555
15254W        W58167   1.590  15.906  28.810 -0.3227 -0.1501  0.1221
15255W        W58168  28.703  18.762  17.495  0.0666  0.2057  0.0608
15256W        W58169  29.870  30.987  28.243 -0.0675 -0.1704 -0.1147
15257W        W58170   0.668  26.303  22.812 -0.1022  0.2609 -0.1463
15258W        W58171  12.195  29.701  22.563 -0.2578 -0.1924 -0.0872
15259W        W58172  26.284  31.454  29.751  0.0629  0.0122 -0.2403
15260W        W58173  26.960  32.779   2.815 -0.0103 -0.1589 -0.0106
15261W        W58174   8.493  30.141  24.570  0.3073 -0.3585  0.3002
15262W        W58175  34.354  24.394  21.028  0.0043  0.1223  0.1504
15263W        W58176   2.456  27.509  29.666  0.0782  0.1217 -0.4430
15264W        W58177   6.904  19.109  29.552  0.0108 -0.0130 -0.1183
15265W        W58178   8.535  28.961   0.132  0.0205  0.2435 -0.1279
15266W        W58179   3.243  31.829  17.279  0.1914 -0.0729  0.0127
15267W        W58180  28.936  23.069  24.744  0.2725 -0.3681 -0.0409
15268W        W58181  25.531  29.338   2.957 -0.2062 -0.0685  0.3733
15269W        W58182   0.330  24.889  23.628  0.0174  0.1194 -0.0056
15270W        W58183   3.899  17.307  20.177  0.0574 -0.3966  0.2460
15271W        W58184   7.480  16.634   6.937  0.0536 -0.4112  0.1265
15272W        W58185   3.949  30.766   6.245 -0.2619  0.1101 -0.0735
15273W        W58186   1.058  28.229   0.815  0.3553  0.1383 -0.0996
15274W        W58187  33.960  11.973   0.347 -0.5323 -0.2335 -0.0037
15275W        W58188   1.612  30.198  28.586 -0.1613  0.1652 -0.2386
15276W        W58189  15.815  26.082   2.251  0.0710 -0.3103  0.1674
15277W        W58190  28.024  25.127  26.123 -0.4465  0.1557 -0.3926
15278W        W58191   6.461  26.137  24.883 -0.0248  0.0204 -0.0649
15279W        W58192   2.010  27.303  27.251  0.0687 -0.3122  0.1490
15280W        W58193   2.626  24.960  25.730  0.1455 -0.2578 -0.2040
15281W        W58194  12.156  19.252  19.965  0.0384 -0.1066 -0.0969
15282W        W58195   5.660  13.648  20.643 -0.1310 -0.2991 -0.3049
15283W        W58196  34.401   2.177  22.975  0.2093  0.0871 -0.1352
15284W        W58197  16.115  30.444   0.855  0.0507 -0.4093  0.1530
15285W        W58198  31.862  18.006  23.917  0.0251 -0.1821  0.1841
15286W        W58199  11.446  17.764  25.158 -0.3804  0.0660  0.1763
15287W        W58200   0.826  30.357  21.495 -0.0613  0.1778  0.0157
15288W        W58201   4.604  28.091   2.054  0.0222 -0.2612 -0.2930
15289W        W58202   1.705  26.155   0.035  0.0275  0.1887 -0.0345
15290W        W58203   3.654  21.633   1.263 -0.0883  0.1526 -0.2086
15291W        W58204  30.687  24.640  27.196 -0.0442 -0.1211 -0.0222
15292W        W58205   0.840  17.740  27.864  0.1477  0.2698  0.0951
15293W        W58206   5.494  22.609  25.977 -0.2628  0.1218 -0.0716
15294W        W58207   7.527  22.662   4.073 -0.1705 -0.0340  0.0251
15295W        W58208  18.157  17.602   5.831 -0.1321 -0.0856 -0.0648
15296W        W58209  29.073  25.110   2.371  0.1937  0.0723 -0.3771
15297W        W58210   8.859  24.660   0.701  0.3607  0.1767  0.2543
15298W        W58211   5.719  15.495  24.371  0.0439 -0.0574 -0.1925
15299W        W58212  21.565  18.918  12.043  0.0613  0.2539 -0.2598
15300W        W58213  21.689  32.892   0.455  0.1215 -0.3272  0.0348
15301W        W58214  30.803  23.230  19.898 -0.1943  0.1017  0.1161
15302W        W58215  30.248  32.653  26.778  0.0969 -0.2879  0.0402
15303W        W58216  32.923  21.816   7.891  0.1312 -0.1910 -0.2582
15304W        W58217  28.768  27.242  27.074  0.1527  0.3164 -0.2216
15305W        W58218   5.011  19.221  22.835 -0.1632 -0.1844  0.0421
15306W        W58219   2.800  25.269   2.815 -0.1100 -0.0084  0.0967
15307W        W58220  28.888  29.058  20.961  0.0050  0.3072  0.1705
15308W        W58221   3.124  13.199   6.698 -0.0689  0.0416 -0.0254
15309W        W58222  32.578  26.247  26.814  0.1029  0.0334  0.0779
15310W        W58223   0.060  21.433   3.038 -0.3333  0.1442  0.0179
15311W        W58224  13.427  26.404   7.412 -0.0483  0.0692  0.1855
15312W        W58225   1.086  20.566  27.191 -0.0568 -0.1118  0.3100
15313W        W58226  28.529  28.222  27.394  0.0127 -0.4186  0.1946
15314W        W58227   3.576  17.132   6.382 -0.0410  0.2698 -0.0703
15315W        W58228  24.948  26.084  26.273  0.0239 -0.4620 -0.0022
15316W        W58229   2.761  15.961  25.082 -0.0404  0.0228  0.1145
15317W        W58230  24.769  16.401  19.549 -0.5360  0.1534  0.1507
15318W        W58231  29.625  21.665   0.815 -0.1862 -0.1293 -0.2735
15319W        W58232  31.642  23.563  15.094 -0.3219  0.2730  0.4173
15320W        W58233  30.901  22.368   0.712  0.1119 -0.1831  0.3365
15321W        W58234   2.755  26.103  27.562 -0.2030  0.5318  0.1600
15322W        W58235  28.886  13.934  18.792  0.0092  0.1523 -0.0575
15323W        W58236   6.071  11.294  24.760 -0.2522 -0.0808  0.2992
15324W        W58237   1.508  18.544  22.227 -0.0628  0.0572  0.1223
15325W        W58238   2.896  16.475  26.687 -0.0164 -0.3312 -0.3193
15326W        W58239  34.487   3.806  21.809  0.1715 -0.0138 -0.1765
15327W        W58240  33.070  29.304  18.704 -0.0346  0.6177  0.1225
15328W        W58241   0.403  22.433  22.450 -0.2149 -0.1734  0.0565
15329W        W58242   3.875  15.541  24.932  0.1935  0.1548  0.3046
15330W        W58243   5.245  15.106   2.675  0.1849 -0.0423  0.5224
15331W        W58244   0.077  28.711  28.840  0.0790  0.4050 -0.2144
15332W        W58245  12.653  20.920   2.805 -0.0483 -0.0122  0.0712
15333W        W58246  16.730  25.021  13.753 -0.1818 -0.3344 -0.0156
15334W        W58247   3.121  30.494   2.813 -0.2919 -0.2116  0.1139
15335W        W58248  31.455  21.392  28.459 -0.3509 -0.0197  0.1825
15336W        W58249   6.252  29.599  21.329 -0.3824  0.0511 -0.1680
15337W        W58250  31.167  22.432  28.802 -0.0208 -0.4069  0.1578
15338W        W58251   2.935  24.540   7.009  0.1214  0.1973  0.2745
15339W        W58252   2.993  30.782   1.399 -0.1169  0.1059  0.1724
15340W        W58253  31.862  13.789   3.882 -0.0478  0.0710 -0.3738
15341W        W58254   6.376  22.811  23.147  0.1214 -0.2893 -0.2140
15342W        W58255  33.712  17.440   2.867 -0.2428 -0.1057  0.0545
15343W        W58256   4.667  28.918  27.993 -0.2390 -0.0257 -0.3339
15344W        W58257  11.359  14.411  25.654 -0.2688  0.0386 -0.2900
15345W        W58258   5.764  23.600   4.555  0.0370 -0.2674 -0.4572
15346W        W58259  30.457  10.222  26.483 -0.3261 -0.0436 -0.2179
15347W        W58260  32.158  25.499   2.268  0.2160 -0.2988  0.2877
15348W        W58261  32.015  17.372  21.691 -0.5221 -0.1754  0.1168
15349W        W58262   5.340  18.201  25.616 -0.0771  0.0837 -0.1872
15350W        W58263  25.699  30.336  24.818  0.0640  0.2585  0.2951
15351W        W58264   0.140  31.980  27.841 -0.1365  0.0222 -0.1982
15352W        W58265  18.067  19.633  23.365 -0.1104 -0.2811  0.0826
15353W        W58266  10.825  31.342  28.825  0.2318  0.3904  0.1554
15354W        W58267   7.292  27.934   3.160 -0.2289  0.1665 -0.2735
15355W        W58268   8.254  16.192   2.477 -0.3483  0.0600 -0.2198
15356W        W58269   3.220  20.479  28.760  0.1067  0.2152  0.3527
15357W        W58270   4.289  25.284  26.263  0.0184  0.2251 -0.0116
15358W        W58271  24.454  22.217   1.291 -0.0465  0.2321  0.2096
15359W        W58272   7.303  32.146   2.905 -0.0282  0.0823 -0.0300
15360W        W58273   0.567  26.584   7.632 -0.1691 -0.2680 -0.0269
15361W        W58274   4.196  22.318  23.500  0.2825 -0.0327  0.2981
15362W        W58275  33.784  23.920  23.618 -0.2896  0.0344 -0.1510
15363W        W58276  29.748  22.131  27.461 -0.1344 -0.1782 -0.0912
15364W        W58277   0.944  16.209  21.955  0.0171 -0.1048 -0.2053
15365W        W58278   1.534  29.298  18.123  0.3710  0.0520  0.1154
15366W        W58279  32.003  32.846  18.031  0.0872 -0.1316  0.0607
15367W        W58280  29.219  26.612  26.692  0.1129 -0.0343  0.1311
15368W        W58281   5.351  19.490  29.408  0.2034  0.5151 -0.1022
15369W        W58282  26.315  21.870   5.267  0.0559  0.0197 -0.2073
15370W        W58283  21.378  22.787  23.875  0.1367 -0.1296 -0.0654
15371W        W58284   8.136   9.351  25.503  0.1039  0.2471  0.2457
15372W        W58285   4.443  20.564   5.302  0.1757  0.1887  0.3190
15373W        W58286   7.452  11.838   3.022 -0.1575 -0.2197 -0.0690
15374W        W58287  30.163  15.065   3.545  0.2543  0.1570  0.4026
15375W        W58288  14.789   3.090  28.098 -0.1736  0.2200  0.0838
15376W        W58289  23.771  22.806  22.515  0.1602  0.0980 -0.1971
15377W        W58290  30.041  34.370  22.780  0.1310  0.1578  0.0301
15378W        W58291   5.309  27.253  16.095  0.1848 -0.0631 -0.2812
15379W        W58292  32.435  28.942  18.035  0.0969 -0.2121  0.0948
15380W        W58293  18.821  22.901   1.406 -0.2755  0.0002 -0.2365
15381W        W58294  34.423  26.784  26.504  0.1794 -0.1844 -0.3724
15382W        W58295  32.763  25.865  25.463 -0.1372  0.0125  0.2643
15383W        W58296   2.960  18.692  20.318  0.3205 -0.0386  0.3736
15384W        W58297  32.229  23.633  22.794  0.0433  0.4084  0.4824
15385W        W58298  34.002  11.089  19.922  0.0316  0.1006 -0.1805
15386W        W58299   6.077  14.944   0.223 -0.0116 -0.0690  0.2314
15387W        W58300   2.657  12.983   7.952  0.0242 -0.1402  0.0007
15388W        W58301  26.797  20.880   6.917  0.0376 -0.0886 -0.0226
15389W        W58302  30.290  32.922   6.382  0.1297  0.0844 -0.1337
15390W        W58303  23.610  18.612   0.268 -0.6384  0.0341  0.1179
15391W        W58304   2.667  15.724  28.303  0.0773 -0.0124  0.0395
15392W        W58305  32.996   1.707  17.641  0.0607 -0.2684  0.0269
15393W        W58306  31.580  23.830   9.162  0.0262 -0.0273  0.0352
15394W        W58307  32.569  16.130  24.276 -0.1593  0.0264  0.1268
15395W        W58308   6.518  23.780  24.301 -0.2627  0.0744  0.1264
15396W        W58309  28.649  19.500  24.997  0.1858  0.1652 -0.0669
15397W        W58310   2.973  21.699  23.714  0.1233 -0.0191 -0.2719
15398W        W58311  33.917  23.599  24.721  0.0735  0.1402 -0.2121
15399W        W58312   3.041  16.757  16.724  0.1844  0.1421  0.2277
15400W        W58313   6.003   9.403  24.038  0.1081  0.0655  0.0796
15401W        W58314   4.851  17.888  17.267 -0.0072 -0.0673  0.1652
15402W        W58315  32.268  25.864  27.566  0.0159  0.0643 -0.1343
15403W        W58316  10.374  22.946  24.714  0.0109  0.1378 -0.0638
15404W        W58317  32.298  28.657   7.610 -0.2956 -0.3256  0.0014
15405W        W58318  15.305  22.425  22.253 -0.1104  0.1225 -0.2893
15406W        W58319  14.164  21.912   8.457  0.1634  0.1560  0.0434
15407W        W58320  32.912  21.333  23.567 -0.0138  0.0235 -0.0675
15408W        W58321  29.610  31.237   2.720 -0.1724 -0.1115  0.2738
15409W        W58322   5.996  13.974  26.704 -0.1631 -0.0315 -0.1997
15410W        W58323   4.480  24.736  23.730 -0.2165  0.1610  0.1134
15411W        W58324  31.494  31.577  29.321  0.1371  0.2832 -0.0515
15412W        W58325  30.289  16.839  29.192  0.0194 -0.0822  0.1245
15413W        W58326  30.843  31.319  29.686 -0.0342  0.0413  0.0127
15414W        W58327   6.484  25.053   6.258 -0.0421 -0.0620  0.2285
15415W        W58328   1.934  22.927   6.290 -0.0420 -0.1101 -0.4778
15416W        W58329   8.291  12.789  28.385 -0.0237 -0.2012 -0.0785
15417W        W58330   2.494  25.431   3.681  0.0770 -0.2372 -0.0732
15418W        W58331  34.296  16.253  26.447 -0.1103  0.1686  0.0963
15419W        W58332  26.959   0.321  18.608 -0.4160 -0.1585 -0.1855
15420W        W58333  34.455  12.608  13.701 -0.1517  0.0527  0.0591
15421W        W58334  22.306  28.924  24.623 -0.0812 -0.1168 -0.1143
15422W        W58335  32.859  20.066  26.579 -0.3091 -0.0358 -0.2050
15423W        W58336  34.466   2.149   1.205 -0.1402 -0.0813 -0.2507
15424W        W58337   2.851  28.786   9.511 -0.0915  0.1723  0.2211
15425W        W58338  13.037  20.756  21.040  0.0174 -0.2626  0.2116
15426W        W58339  32.700  19.641  23.850  0.0232 -0.0315 -0.3534
15427W        W58340   1.009  19.014  20.216 -0.0770 -0.0226 -0.0603
15428W        W58341  28.861  18.911  20.599 -0.3078  0.1078 -0.0344
15429W        W58342   1.785  12.539   9.064  0.3480 -0.1241 -0.0081
15430W        W58343  29.022  28.478  23.719 -0.1213  0.1492 -0.0549
15431W        W58344   4.499  17.449  25.412 -0.3916  0.0704  0.1352
15432W        W58345   5.617  16.824  20.469  0.1332 -0.0044 -0.2495
15433W        W58346   4.635  17.759   7.388  0.0981 -0.1133 -0.1832
15434W        W58347  33.351  21.107  22.915 -0.3926  0.0739  0.1654
15435W        W58348  34.430   0.197  17.756 -0.2605 -0.1981 -0.4309
15436W        W58349   5.759  27.730  27.999  0.1714 -0.0212 -0.1744
15437W        W58350  22.740  19.682  17.933 -0.1465 -0.1942  0.0459
15438W        W58351  27.546  19.365  21.890  0.2198 -0.2643 -0.1159
15439W        W58352  14.233  18.261  25.210  0.1609  0.4852  0.1036
15440W        W58353  11.078  17.095  27.450 -0.0390 -0.1546  0.3477
15441W        W58354   0.749  32.765  19.373 -0.2679 -0.0539  0.0526
15442W        W58355   7.009  16.071   0.634  0.1061  0.2152 -0.0298
15443W        W58356  32.753   0.347  27.185  0.1705 -0.2522 -0.2643
15444W        W58357  31.017  30.121  28.750  0.0023 -0.2333  0.0684
15445W        W58358   8.649  32.806  21.625  0.3403  0.0553 -0.2443
15446W        W58359   4.430  23.919  17.797 -0.2095  0.0051 -0.3861
15447W        W58360   1.285  12.494  18.784 -0.0630 -0.1400  0.0053
15448W        W58361   2.237  30.402   3.164  0.0143 -0.0628  0.2862
15449W        W58362  31.829  12.563  17.528 -0.3572 -0.0129  0.1454
15450W        W58363   8.761  31.506  29.021  0.1216  0.0672  0.0506
15451W        W58364   7.994  17.610  29.479 -0.0251 -0.2191  0.4685
15452W        W58365   9.985  24.011   2.720  0.1741 -0.1872  0.0505
15453W        W58366   7.549  28.134   0.700 -0.0038  0.5254 -0.0447
15454W        W58367  31.042  18.091  22.021 -0.0339 -0.4170  0.0372
15455W        W58368  32.126  24.014  24.302 -0.2577 -0.0294 -0.0502
15456W        W58369  34.267  20.915   1.364 -0.2479 -0.2822 -0.1632
15457W        W58370  23.235  22.291  13.918  0.2375  0.0344 -0.1144
15458W        W58371  30.261  17.285  19.905 -0.2918  0.0847 -0.0709
15459W        W58372  34.392  24.899  23.954  0.1208  0.2015 -0.1773
15460W        W58373   4.723  11.232  25.318  0.0519 -0.4197 -0.1294
15461W        W58374  28.775  22.602  26.338 -0.1364  0.0160  0.4682
15462W        W58375  20.627  27.255  21.872 -0.1533  0.0481 -0.1613
15463W        W58376  30.251  24.947   9.905  0.1292  0.1329 -0.1385
15464W        W58377  27.201  23.103  21.701 -0.1236  0.0286  0.0031
15465W        W58378   4.422  19.705  25.183 -0.2240  0.0225 -0.0948
15466W        W58379  23.396  21.749   2.979 -0.1203 -0.1587  0.0885
15467W        W58380  14.234  10.029   1.409  0.2949  0.0228 -0.2546
15468W        W58381  34.200  19.430  26.124  0.1637 -0.0539 -0.0218
15469W        W58382   3.522  31.731   1.378  0.3041 -0.1541  0.3037
15470W        W58383  28.600  20.484  23.927  0.2075 -0.1878  0.2057
15471W        W58384  27.479  29.217  25.362 -0.0448  0.0522 -0.0068
15472W        W58385   9.213  24.729   4.214 -0.0949 -0.0923  0.1585
15473W        W58386  34.008  28.841  21.905 -0.0269  0.1900 -0.1534
15474W        W58387   7.414  28.571  21.153  0.2115 -0.2196 -0.1705
15475W        W58388  29.644  22.969  29.065 -0.0448 -0.2531 -0.3404
15476W        W58389  30.551  20.845  24.661  0.3716 -0.2601 -0.0078
15477W        W58390   5.887  20.732  27.357  0.1322  0.5045  0.0027
15478W        W58391   1.153  20.417  21.359  0.3914  0.4547 -0.2837
15479W        W58392   7.772  20.417  24.020  0.0093 -0.1900  0.0228
15480W        W58393   3.118  26.983   2.457  0.0717  0.1781  0.2856
15481W        W58394  31.699  19.154  27.394  0.1410 -0.1099 -0.0723
15482W        W58395  27.463  23.908   1.710  0.2925 -0.1989 -0.3135
15483W        W58396   7.474  21.939  22.956 -0.0004 -0.1266  0.2621
15484W        W58397  33.016  22.004  26.577 -0.0366 -0.0571  0.0514
15485W        W58398   8.339  13.197  23.243 -0.2472 -0.1746 -0.0116
15486W        W58399  24.561  26.863   2.299  0.4672 -0.2573  0.0717
15487W        W58400   9.510  24.407  26.487  0.4239  0.0486 -0.0057
15488W        W58401   3.052  22.745  27.130 -0.1848 -0.2970  0.1931
15489W        W58402  29.287  27.404  25.123  0.4766 -0.1894 -0.0477
15490W        W58403  31.844   8.603  28.596  0.0791  0.0154  0.3267
15491W        W58404  29.145  30.255   4.377  0.0411  0.0768 -0.3235
15492W        W58405  10.353   1.313  25.621 -0.4003 -0.0773  0.0879
15493W        W58406   0.094  24.120  23.272 -0.0660 -0.0370  0.3135
15494W        W58407   5.890  20.774   3.920 -0.0623 -0.2114  0.3889
15495W        W58408  22.544  20.562  20.145  0.0132 -0.1483  0.0229
15496W        W58409  26.199  18.136   0.121 -0.2280 -0.0404 -0.0914
15497W        W58410   1.208  32.668  17.418 -0.1200  0.0196 -0.2062
15498W        W58411  24.187  23.672  27.545  0.2025 -0.1227  0.3665
15499W        W58412  34.466  16.764   2.370 -0.1075  0.1373 -0.1550
15500W        W58413   5.190  12.949  15.123  0.1921  0.0162 -0.0926
15501W        W58414  26.275  16.710  17.851  0.1032  0.2734  0.3278
15502W        W58415   6.963  30.668  22.982 -0.2524  0.0629  0.1189
15503W        W58416   2.364  25.694  21.910  0.2405 -0.1504  0.1712
15504W        W58417  32.384  27.180  20.515  0.0411 -0.2178  0.0325
15505W        W58418  30.745  29.576   0.146  0.2205  0.1021 -0.3541
15506W        W58419  29.054  10.629  23.142  0.0582 -0.5246  0.1615
15507W        W58420   3.692  12.733  22.954  0.0057  0.3890  0.2612
15508W        W58421   2.098   3.544  10.468 -0.3596 -0.0591 -0.0357
15509W        W58422   3.424  21.511  29.464 -0.1683  0.2303  0.1885
15510W        W58423  12.316  15.459  18.483 -0.3761  0.3588  0.0887
15511W        W58424   5.968   1.613  27.619  0.0699  0.0336  0.1233
15512W        W58425  18.043  14.640  25.224  0.0229  0.0984 -0.1828
15513W        W58426   2.272  21.155   8.716  0.0002 -0.0771 -0.0303
15514W        W58427  28.219  26.086  29.750 -0.1453  0.1319  0.1716
15515W        W58428  15.776  18.988  19.016  0.1332 -0.0399  0.1164
15516W        W58429   5.056  24.167   5.729  0.1814 -0.1674  0.4367
15517W        W58430  10.926  29.871  25.090 -0.3260  0.0470  0.2803
15518W        W58431   9.080  19.797  22.034 -0.0086 -0.0713 -0.1232
15519W        W58432   1.829   1.799   2.254 -0.1643 -0.3183 -0.1040
15520W        W58433   6.388  16.483   6.927 -0.0582 -0.2136  0.0434
15521W        W58434  30.531  29.229  16.282 -0.2816  0.0603  0.3086
15522W        W58435  25.723  26.442  14.903  0.1872  0.1458 -0.0069
15523W        W58436   7.009  26.705  26.834 -0.0756  0.1099 -0.1710
15524W        W58437   0.579  27.247  23.989  0.1915 -0.1230  0.0194
15525W        W58438   2.323   1.944  18.260  0.0079  0.2096 -0.2858
15526W        W58439  31.128  22.413  24.146  0.3057  0.0950 -0.1967
15527W        W58440  31.458  25.925  24.310 -0.2852 -0.0271 -0.0964
15528W        W58441   3.029  23.637  23.010  0.0858 -0.2375  0.1317
15529W        W58442   3.195  20.694  21.105 -0.0177 -0.0144  0.1063
15530W        W58443   2.808  23.981  26.050 -0.0684 -0.2585  0.3335
15531W        W58444   0.737  24.703  28.573 -0.1434 -0.2047 -0.2193
15532W        W58445   0.315  27.462   2.272 -0.1499 -0.2347  0.1329
15533W        W58446  34.134  12.136  22.685  0.1822 -0.0277 -0.0513
15534W        W58447  33.495  26.423   5.675 -0.0556  0.0933  0.0782
15535W        W58448   9.516  19.085   3.009 -0.1832 -0.0690 -0.1038
15536W        W58449  32.115  15.356  18.358  0.0166 -0.1804 -0.2221
15537W        W58450  26.339  18.615  24.660  0.4079 -0.0807  0.4197
15538W        W58451  28.527  32.583   1.914  0.3530  0.0369  0.1150
15539W        W58452  21.588  13.593  17.819  0.0707  0.0862 -0.1219
15540W        W58453   4.010  19.766   2.271  0.1606 -0.0295  0.0619
15541W        W58454   4.710  21.028   1.383 -0.0743  0.0185  0.1390
15542W        W58455   0.128  26.413   3.632 -0.0178 -0.1617 -0.1760
15543W        W58456  10.889  22.760  24.213 -0.3910  0.0010 -0.0748
15544W        W58457  11.626  19.175   1.716  0.0905  0.1555  0.1118
15545W        W58458   3.933  21.996  23.743 -0.2026  0.3024 -0.2302
15546W        W58459   2.674  14.970   3.619  0.0758 -0.0789  0.3197
15547W        W58460   1.223  26.343  14.061  0.2079  0.0275 -0.0993
15548W        W58461  26.335  23.349  25.487  0.1481 -0.2889  0.0384
15549W        W58462  29.936  19.976  20.058  0.1651  0.2116 -0.0493
15550W        W58463   2.134  30.678  28.523 -0.3271  0.0812  0.0502
15551W        W58464  26.227   0.109  19.052  0.1990 -0.1260 -0.1295
15552W        W58465  26.648  21.918   3.597  0.0735  0.0496  0.1816
15553W        W58466  31.879  28.512  26.574 -0.0022 -0.6261  0.2929
15554W        W58467   2.669  21.661  19.884 -0.0320 -0.0077  0.0685
15555W        W58468   1.717  24.641   0.457 -0.3286  0.2166  0.0125
15556W        W58469   7.234  21.751   8.423  0.0183  0.0724 -0.1264
15557W        W58470   0.370  24.315  20.936  0.4450 -0.0792 -0.0294
15558W        W58471   4.691  29.560  17.294 -0.0797  0.1036 -0.0073
15559W        W58472  28.051  29.811   1.980  0.1851  0.0863 -0.4689
15560W        W58473  32.088  22.004   0.722  0.3002 -0.3626  0.0064
15561W        W58474   7.317  19.326   1.191 -0.2233  0.0379  0.0658
15562W        W58475   6.854  30.357   0.718  0.0546 -0.2762  0.3195
15563W        W58476  13.695  22.811  28.568 -0.0173  0.1103  0.0003
15564W        W58477  29.668   8.940  23.029 -0.1608 -0.0225  0.0769
15565W        W58478  24.812  32.701  24.254 -0.0746  0.1552 -0.1775
15566W        W58479   6.542  23.790  27.817  0.0997 -0.0695 -0.2883
15567W        W58480  11.424  22.452  25.230 -0.3172 -0.4014 -0.1306
15568W        W58481  24.137  31.844  23.232  0.0173 -0.0358  0.3734
15569W        W58482  29.547  16.164   5.107  0.0719 -0.1428  0.1510
15570W        W58483  34.277  20.188   1.135  0.1604  0.1872 -0.2774
15571W        W58484   2.906  19.766  25.133  0.1163 -0.0544 -0.2961
15572W        W58485  29.619  20.866  17.587 -0.2428  0.2499  0.0740
15573W        W58486  25.603  27.503  24.286 -0.1266 -0.0110 -0.1445
15574W        W58487  24.287  18.748  24.349  0.3340 -0.0829 -0.0916
15575W        W58488  10.458  26.888  27.436 -0.0817  0.3384  0.0840
15576W        W58489   0.830  22.012   4.209 -0.0326 -0.0235  0.0530
15577W        W58490   3.838  25.252   9.114 -0.2742 -0.1775  0.0527
15578W        W58491   0.236  33.703  29.490 -0.2331  0.3391 -0.1455
15579W        W58492  31.377  20.932  29.375 -0.0814  0.1436 -0.0594
15580W        W58493  34.146  18.577   2.307 -0.1918 -0.0542  0.0966
15581W        W58494   3.889  24.946   4.027  0.1287 -0.1734  0.0028
15582W        W58495  31.847  26.614  19.181 -0.0443  0.2293  0.1400
15583W        W58496   1.625  20.115  15.089 -0.3268  0.1185  0.1129
15584W        W58497   8.570  17.184   1.555 -0.2959 -0.0766 -0.1759
15585W        W58498   2.763  25.190   8.736  0.0310  0.1390  0.1821
15586W        W58499  29.751  22.779   4.155 -0.0461  0.1566 -0.0355
15587W        W58500   4.773  12.519   6.986  0.1873  0.3976  0.1848
15588W        W58501  33.779  21.284  29.189 -0.1881 -0.0330 -0.4695
15589W        W58502   7.286  17.219  22.010  0.1140 -0.1667  0.3170
15590W        W58503   0.823  27.264   0.188 -0.3754 -0.3487 -0.2352
15591W        W58504   5.552  23.374  29.376  0.3101 -0.0279 -0.0801
15592W        W58505   4.769  13.415  28.893 -0.2084 -0.0135 -0.0622
15593W        W58506  33.104  24.380   1.240 -0.0263  0.0163 -0.3652
15594W        W58507   3.321  29.067  22.881 -0.1713  0.2509  0.1140
15595W        W58508  10.079  24.761  21.077  0.2898 -0.0403 -0.2129
15596W        W58509   6.924  16.514   7.815  0.1937 -0.0503  0.0890
15597W        W58510   4.539  14.484   6.061  0.3702 -0.2333  0.0105
15598W        W58511   4.977  33.151  26.221  0.0515  0.1308  0.0546
15599W        W58512  13.489  15.299  26.581 -0.0476  0.3059 -0.2322
15600W        W58513   8.275  14.618  25.866 -0.0542 -0.0962  0.1837
15601W        W58514   6.806  30.984  22.594  0.2070  0.0493  0.5415
15602W        W58515   6.158  28.594   8.109 -0.4736 -0.1737 -0.2258
15603W        W58516   8.263  21.922  26.502  0.3468  0.0620 -0.1611
15604W        W58517   8.670  25.798   5.831 -0.1534 -0.2823  0.4051
15605W        W58518   1.163  26.655   6.448 -0.0682 -0.1199 -0.1257
15606W        W58519  31.197  21.679   0.018  0.2578 -0.2072  0.0842
15607W        W58520  34.399  17.314   4.309 -0.1941  0.2217 -0.3276
15608W        W58521   9.513  22.837   0.742 -0.0938  0.0013  0.3290
15609W        W58522   2.457  30.228  25.696 -0.0121  0.0774  0.0723
15610W        W58523   2.841  23.616   0.687  0.2046 -0.0790  0.1997
15611W        W58524   1.691  24.917   4.797 -0.1154  0.1946 -0.2285
15612W        W58525  32.043   8.540  20.274  0.1546  0.2288 -0.0782
15613W        W58526  34.389  18.986   0.223 -0.1150  0.0662  0.0524
15614W        W58527   3.774  20.635   3.255 -0.0239  0.1901  0.1532
15615W        W58528   6.244  13.682  27.704  0.0048 -0.3163 -0.0012
15616W        W58529  32.333   2.159  24.824 -0.2469  0.2460 -0.1323
15617W        W58530  26.193  32.137  24.740 -0.0637  0.1049 -0.2224
15618W        W58531   4.392   4.767  20.751  0.1052 -0.1708  0.1725
15619W        W58532   3.413  24.502  25.115 -0.0247 -0.0454  0.0193
15620W        W58533   8.024  22.949  28.637  0.0497 -0.0281 -0.1842
15621W        W58534  24.994  12.175  27.694 -0.3002 -0.0595 -0.1268
15622W        W58535   8.494  15.821  25.750  0.1095  0.0973 -0.0825
15623W        W58536   8.172   7.921   1.068  0.0460 -0.1021 -0.1588
15624W        W58537   8.111  18.183  18.387 -0.0276 -0.1849 -0.1050
15625W        W58538   2.805  24.988  19.015  0.0122  0.2571  0.0756
15626W        W58539   0.746  24.945  20.857 -0.3142 -0.2938 -0.1703
15627W        W58540  21.632  21.679  18.036  0.3215  0.2846 -0.1479
15628W        W58541   1.641  25.068  24.794 -0.0354  0.2789 -0.0442
15629W        W58542  27.148  29.896  16.081  0.1461 -0.0434  0.0497
15630W        W58543   1.312  27.777  15.513 -0.0508  0.0982  0.0081
15631W        W58544  31.989  28.848  18.252  0.1062 -0.2060 -0.0651
15632W        W58545   2.725  34.149  23.528  0.1354 -0.1174 -0.0131
15633W        W58546   4.871  23.631  26.778 -0.0143  0.0859  0.2528
15634W        W58547   1.678  24.980  17.437  0.2161 -0.2333 -0.1253
15635W        W58548   1.950  21.743  25.275 -0.0279  0.0794  0.2153
15636W        W58549   7.539  20.034  28.649 -0.2226 -0.0249 -0.1691
15637W        W58550   2.188  23.072  20.047 -0.2175 -0.2113  0.1899
15638W        W58551  27.798  22.394  13.291 -0.0467  0.4354 -0.0380
15639W        W58552   1.023   1.726  16.503 -0.2305 -0.1409  0.3268
15640W        W58553   4.973   1.072  21.577  0.0449  0.0213  0.0586
15641W        W58554  30.303  30.670  14.957 -0.2237  0.2799 -0.0700
15642W        W58555  13.417  16.901  22.001  0.1457 -0.2827 -0.1467
15643W        W58556   0.912  25.675  20.301 -0.0976 -0.0597 -0.1251
15644W        W58557  32.467  34.267  20.925  0.1518 -0.2698  0.0312
15645W        W58558  23.677  30.981  14.477 -0.3090  0.0773  0.0600
15646W        W58559   5.374   9.916  26.205  0.5045 -0.0668 -0.0136
15647W        W58560  30.719  12.089  26.749 -0.0530 -0.0961 -0.0226
15648W        W58561  10.208  22.017  20.150 -0.0491 -0.0629 -0.0811
15649W        W58562   1.255  32.859  20.950 -0.2788 -0.0456  0.1981
15650W        W58563  31.628  21.182  16.727 -0.0680 -0.1345 -0.3917
15651W        W58564   5.157   0.466  17.873 -0.1695 -0.1158 -0.1899
15652W        W58565  11.654  11.516  26.242  0.0656  0.0458 -0.1594
15653W        W58566  11.456  30.952  16.787  0.1652 -0.0875  0.3610
15654W        W58567   4.752   1.857  19.225 -0.0573 -0.1436 -0.0850
15655W        W58568   2.140  21.973  14.676 -0.0742  0.0843 -0.0936
15656W        W58569   2.065  24.432  17.276  0.0309  0.0283 -0.2582
15657W        W58570   5.285  33.545  26.118 -0.3285  0.0254  0.1676
15658W        W58571   0.407  27.902  16.033  0.0298  0.1144  0.0582
15659W        W58572  32.294  30.324  23.645  0.0979  0.0013 -0.0920
15660W        W58573  32.032  25.073  21.606 -0.1969  0.0173 -0.1803
15661W        W58574  30.904  14.320  15.902 -0.3033 -0.4259 -0.0257
15662W        W58575   1.668   0.490  16.524  0.2179  0.0052 -0.1196
15663W        W58576  31.640   1.817  19.986 -0.3488 -0.2289  0.2373
15664W        W58577   1.311  29.468  22.497  0.0307  0.0752 -0.0208
15665W        W58578  32.394  28.879  13.888 -0.1257  0.2180 -0.2251
15666W        W58579  32.325  27.114  18.525 -0.4860 -0.0098 -0.3454
15667W        W58580  31.469  27.413  16.724  0.3058  0.1988 -0.1309
15668W        W58581   4.514  22.951  16.487  0.2902  0.0869 -0.0672
15669W        W58582  33.359  32.869  16.240  0.0304  0.0595 -0.5758
15670W        W58583   1.841   1.168  23.887 -0.1354  0.1091  0.0403
15671W        W58584   1.318  23.908  17.110  0.1309  0.3413 -0.3460
15672W        W58585   6.976  25.847  25.789  0.3608 -0.0302 -0.1716
15673W        W58586   2.640  32.146  22.116 -0.1468  0.1855 -0.1485
15674W        W58587   1.186  23.044  14.677  0.1944  0.2457 -0.1055
15675W        W58588   7.901  23.722  15.848  0.0129  0.1469 -0.0477
15676W        W58589  32.432  26.707  20.340  0.1892  0.1149  0.0145
15677W        W58590   5.019  27.332  20.214 -0.0636 -0.2225 -0.1387
15678W        W58591  26.476  22.472  26.627  0.1631 -0.0166  0.2090
15679W        W58592   0.218  20.994  26.460  0.3460  0.2198  0.3253
15680W        W58593   8.404  22.634  16.256  0.0150  0.1230  0.0398
15681W        W58594  28.457  24.414  13.773  0.3247 -0.0581  0.2086
15682W        W58595   4.253  23.684  25.451  0.0034 -0.3317 -0.0334
15683W        W58596   6.676  19.302  20.317  0.0951  0.0654 -0.0544
15684W        W58597   8.057   5.646  18.275  0.1536 -0.1769 -0.3015
15685W        W58598   4.621  25.583  15.466 -0.2236 -0.0733  0.1588
15686W        W58599   4.317   1.771  21.995  0.0745 -0.1357  0.2502
15687W        W58600  32.408  23.627  26.985 -0.0161 -0.1769  0.0088
15688W        W58601  34.182  11.267  19.429  0.1754  0.1167  0.0445
15689W        W58602   4.026  18.356  21.661 -0.1514  0.0555 -0.1073
15690W        W58603  33.493   0.034  15.984  0.0934 -0.1286 -0.1230
15691W        W58604  30.157  29.724  16.578 -0.0122  0.1096 -0.2600
15692W        W58605   6.686  14.934  23.835  0.0171  0.0581 -0.1919
15693W        W58606  10.986  33.881  17.257  0.0721  0.0794 -0.1951
15694W        W58607  33.304   0.573   1.061  0.0119 -0.2394  0.4555
15695W        W58608   2.968  20.840  16.895 -0.4040 -0.1248 -0.0176
15696W        W58609   1.603  24.715  14.727  0.1905  0.2288 -0.2159
15697W        W58610   0.206  17.024  15.032 -0.0726  0.0288  0.1030
15698W        W58611   1.497  28.265  15.348 -0.3935  0.0253 -0.4047
15699W        W58612  26.416  28.997  16.869  0.2407 -0.0186 -0.0418
15700W        W58613   2.664  19.529  15.261  0.0395  0.0178  0.1071
15701W        W58614  10.807  15.047  20.840 -0.0335 -0.2558  0.1235
15702W        W58615   3.805  20.880  14.408 -0.3417  0.2662 -0.0210
15703W        W58616  26.678  23.621  14.197 -0.1811  0.0150  0.1769
15704W        W58617   6.816  18.648  18.394  0.4825 -0.3189 -0.1965
15705W        W58618  32.259  30.355  29.695 -0.0352  0.0136  0.1386
15706W        W58619  31.506  17.183  14.720  0.0887  0.3037  0.0590
15707W        W58620  33.422  25.795  22.169 -0.2331 -0.1518  0.4358
15708W        W58621   6.103  24.060  25.616  0.1222 -0.0639 -0.0240
15709W        W58622   2.884  26.777  19.159  0.0851  0.0572  0.1534
15710W        W58623   6.424  27.787  25.706 -0.0182  0.0762 -0.1878
15711W        W58624   0.955  26.026  14.364 -0.1417  0.0286 -0.2514
15712W        W58625   7.337  21.324  14.803 -0.2009 -0.0497  0.1691
15713W        W58626  30.332  30.004  23.420 -0.2453  0.3788  0.1505
15714W        W58627   0.649   1.373  16.586  0.0401  0.0967 -0.3698
15715W        W58628   9.350  16.064   1.398 -0.0146 -0.2084 -0.0111
15716W        W58629   8.918  31.694  18.467 -0.1587 -0.0129  0.0308
15717W        W58630  32.356  25.612   0.656  0.3774  0.0586 -0.1588
15718W        W58631  31.895  24.692  21.919 -0.1878 -0.2471 -0.1509
15719W        W58632  12.222  30.427  26.195  0.0549 -0.2022  0.1261
15720W        W58633  32.902  16.791  18.858 -0.1598 -0.4941  0.2606
15721W        W58634  25.632  16.062  17.790  0.1333 -0.0823  0.0898
15722W        W58635  29.361  30.365  17.222  0.2138  0.1971 -0.0984
15723W        W58636   8.097  17.153  17.874 -0.1827  0.2099  0.0024
15724W        W58637   5.326  25.235  14.540  0.3824 -0.2573  0.1931
15725W        W58638  33.922  26.278  17.985 -0.0984 -0.0966 -0.0756
15726W        W58639  29.097  23.242  14.106  0.0944 -0.1125  0.0264
15727W        W58640   4.622  10.993  22.115 -0.0809 -0.2500 -0.0364
15728W        W58641   6.250  29.244  27.174 -0.1023 -0.1598  0.2108
15729W        W58642  31.166  22.245  24.926  0.1426 -0.0007 -0.1003
15730W        W58643   4.757  30.451  17.010 -0.0778 -0.0789  0.0589
15731W        W58644   7.609  23.717  16.278 -0.2439  0.2268 -0.1108
15732W        W58645  29.851  17.825  14.458 -0.1188 -0.1423  0.2221
15733W        W58646  34.429  33.431  16.327  0.1048  0.1461  0.6122
15734W        W58647  31.464  20.765  20.590 -0.1455  0.4067  0.1520
15735W        W58648  33.903  30.933  22.219 -0.0183  0.1352  0.3144
15736W        W58649   6.626  24.233  17.998 -0.0739 -0.0150  0.5811
15737W        W58650   1.476  28.309  19.031 -0.2130  0.4342 -0.2710
15738W        W58651  31.863  31.885  21.992 -0.5381 -0.3797  0.1313
15739W        W58652   0.489  26.070  19.364 -0.1357 -0.3091 -0.1374
15740W        W58653   1.529  15.956  18.357  0.2608  0.1816  0.0909
15741W        W58654   1.078  27.336   1.480  0.1991  0.0314  0.0518
15742W        W58655  33.076  24.708  16.784 -0.2041  0.2668 -0.0056
15743W        W58656   3.168  24.675  26.345  0.0355 -0.1799  0.0370
15744W        W58657  29.674  29.783  24.503 -0.1362  0.0596  0.0120
15745W        W58658   0.344  32.492  16.193 -0.0221 -0.1211 -0.0697
15746W        W58659   7.966  29.697  17.484 -0.0199  0.1537 -0.3371
15747W        W58660  30.406  17.514  22.924  0.2016 -0.0003 -0.2573
15748W        W58661  32.196  12.861  17.714 -0.0237  0.3501 -0.2079
15749W        W58662   4.887  26.495  19.760 -0.1266 -0.0209 -0.1339
15750W        W58663   0.993  30.394  29.578  0.2849 -0.1230  0.2010
15751W        W58664   2.185  20.775  15.194  0.3040  0.0303 -0.2990
15752W        W58665  32.691  21.266  16.160  0.2809  0.0797  0.1254
15753W        W58666   1.874  33.053  17.746 -0.3279  0.1289  0.3254
15754W        W58667  18.163  29.445  19.214 -0.1770  0.3655 -0.0363
15755W        W58668   3.701  23.758  19.250  0.1481  0.1246 -0.1666
15756W        W58669   4.686  27.702  24.110 -0.0235  0.0274 -0.3398
15757W        W58670   0.334  25.940  23.013  0.0106  0.0106 -0.0628
15758W        W58671  34.434  28.714  25.103 -0.0246 -0.3495 -0.1427
15759W        W58672  27.394  13.649  27.190  0.2838  0.2660  0.3671
15760W        W58673   1.234  16.414  16.796  0.3271 -0.1494  0.1262
15761W        W58674  28.448  32.783  15.229  0.0549  0.0484 -0.2349
15762W        W58675  32.953  32.083  14.174 -0.0500 -0.2753 -0.2100
15763W        W58676   9.258  25.903  16.323 -0.2411 -0.0169  0.2732
15764W        W58677   3.829  31.096  18.972  0.2838  0.0102 -0.0621
15765W        W58678   3.694   1.467  18.532 -0.0526  0.2038  0.2066
15766W        W58679   1.602  23.024  18.729  0.3557  0.0922 -0.0735
15767W        W58680   1.820  28.007  24.747  0.0082  0.1106 -0.4535
15768W        W58681  32.179  29.778  17.865  0.0876 -0.0890 -0.0766
15769W        W58682  14.782  28.502  17.003 -0.2332  0.1956 -0.0925
15770W        W58683   1.566  27.291  17.756  0.2050  0.0873 -0.1023
15771W        W58684   1.960  20.980  14.527  0.1230  0.1274 -0.3232
15772W        W58685   4.971   0.119  19.669 -0.4247  0.2709  0.1119
15773W        W58686   1.833  17.154  23.472 -0.1336 -0.3554 -0.0731
15774W        W58687   0.207  23.153  14.804  0.1914 -0.1157 -0.1958
15775W        W58688   7.515  21.000  14.007 -0.0265  0.0373 -0.0458
15776W        W58689  31.483   2.050  16.683  0.1803 -0.0510  0.1067
15777W        W58690  32.231  24.165  18.314  0.3478  0.3329 -0.0412
15778W        W58691  31.180  20.366  18.283  0.2261 -0.2741 -0.3455
15779W        W58692   8.612  34.437   1.535  0.0661 -0.4383  0.3936
15780W        W58693  30.436  31.947  17.461 -0.0836 -0.3104  0.1451
15781W        W58694  22.622  31.792  15.127  0.3144  0.0364 -0.1050
15782W        W58695  33.884  30.041  16.349  0.2655 -0.0507  0.1380
15783W        W58696  23.341  30.258  22.891 -0.0738 -0.1206  0.2144
15784W        W58697   3.850  30.243  17.783  0.1663  0.0661  0.4980
15785W        W58698   6.633  15.737  25.212 -0.1110 -0.3562  0.0677
15786W        W58699  33.738   1.183  20.148  0.1839  0.1754 -0.1476
15787W        W58700  31.233  20.849  16.738 -0.0407 -0.3214 -0.1591
15788W        W58701   5.044  18.224  19.215 -0.3017  0.0751 -0.1069
15789W        W58702  33.464  21.686  18.238 -0.1693 -0.1018  0.1253
15790W        W58703   3.214  30.451  18.181 -0.0734 -0.2252 -0.0944
15791W        W58704  30.664   6.855  19.654  0.1522  0.2839 -0.1524
15792W        W58705   0.745  20.137  21.299  0.1340 -0.2326  0.1008
15793W        W58706  13.908  28.857  16.593 -0.1122 -0.1706  0.0275
15794W        W58707  12.615  15.040  19.863  0.0878  0.1847  0.2952
15795W        W58708   2.456  27.996  15.046  0.1229  0.2693 -0.1398
15796W        W58709  33.376  18.035  19.651  0.0937  0.0129  0.3283
15797W        W58710   2.769  31.681  17.140 -0.2519  0.3312  0.0063
15798W        W58711   1.907  18.068  19.612  0.0067 -0.2776  0.0930
15799W        W58712   6.001  30.193  16.536 -0.0495 -0.1412  0.2084
15800W        W58713   0.737  22.131  21.765  0.0339 -0.0686  0.0455
15801W        W58714  10.432   0.653  17.288  0.0768 -0.0714  0.2113
15802W        W58715   3.389  23.336  17.162  0.0755 -0.0964  0.1938
15803W        W58716  32.310  26.410  19.373  0.3157 -0.2249 -0.1374
15804W        W58717   0.111  22.687  23.756 -0.0629 -0.0188 -0.1521
15805W        W58718   0.673  25.551  19.443 -0.0706 -0.3902  0.0149
15806W        W58719   5.016  20.405  21.025 -0.3393 -0.4428 -0.2435
15807W        W58720   9.558  28.267   0.417 -0.2283  0.0368  0.0526
15808W        W58721   4.804  17.934  22.112  0.1843 -0.1059 -0.1248
15809W        W58722   5.924  21.332   2.896 -0.1904 -0.1109 -0.2188
15810W        W58723  29.863  32.886  14.704  0.0019  0.1658  0.0071
15811W        W58724  27.794  23.679  17.525 -0.1161  0.1509  0.2293
15812W        W58725  32.738  22.344  18.679 -0.2656  0.2285  0.2742
15813W        W58726  27.609  30.065  17.405  0.1197 -0.0323  0.2084
15814W        W58727  28.789  27.787  21.670  0.1302 -0.0991  0.0449
15815W        W58728   2.810  30.269  19.695  0.4099 -0.2219  0.1146
15816W        W58729   3.678  24.058  24.131  0.1895 -0.5337 -0.0869
15817W        W58730   2.349  33.581  20.462 -0.0050 -0.1041  0.4562
15818W        W58731   5.538  11.902  21.297 -0.1647 -0.1186 -0.2575
15819W        W58732  30.067  30.516  20.210 -0.0172  0.3869 -0.0684
15820W        W58733  32.836  24.061  14.036 -0.1091 -0.2032  0.1186
15821W        W58734  32.672  28.369  16.360  0.2181  0.3982 -0.1066
15822W        W58735   9.128  19.948  13.602  0.4788 -0.2939 -0.0285
15823W        W58736   0.484  23.718  21.356 -0.1256  0.2357 -0.2584
15824W        W58737   3.413  20.269  14.333 -0.1113  0.1445  0.1634
15825W        W58738   1.896  23.936  15.104 -0.1642  0.2281 -0.1454
15826W        W58739   2.509  19.183   3.565 -0.2474 -0.0143  0.2393
15827W        W58740   2.714  33.541  28.159 -0.0864  0.0191 -0.3070
15828W        W58741   4.588  22.278  18.848  0.1640 -0.0315  0.3979
15829W        W58742  26.975  22.750  20.834  0.3094 -0.0537  0.1836
15830W        W58743  31.054   5.195  26.488  0.2217 -0.0029 -0.0805
15831W        W58744  28.740  31.836  28.262  0.1083  0.4826 -0.0186
15832W        W58745   4.863  18.959  23.517  0.0736 -0.0041 -0.1733
15833W        W58746   3.178  22.456  19.404  0.1791  0.3956 -0.0532
15834W        W58747   0.720  20.184  19.104  0.0320  0.2104 -0.2949
15835W        W58748   2.214  27.959  18.479  0.0546  0.2201  0.1501
15836W        W58749  33.308  23.599  15.628 -0.0322 -0.0569 -0.0399
15837W        W58750  34.312  18.969  15.521  0.1424  0.0815 -0.0257
15838W        W58751   0.634  25.263  24.491 -0.1703  0.4166 -0.0128
15839W        W58752  26.257  23.811  18.121  0.0301  0.2051  0.0501
15840W        W58753   3.723  27.103  21.436  0.2521 -0.0100  0.0910
15841W        W58754   3.988  32.126  24.691 -0.0000 -0.0352 -0.2643
15842W        W58755  33.783  27.799  19.614 -0.4353  0.1570  0.2322
15843W        W58756  31.508  27.195  25.566  0.3377  0.2919  0.2605
15844W        W58757   2.233  22.576  29.083 -0.2808 -0.0292 -0.2276
15845W        W58758  23.772  28.241  18.997 -0.0938  0.1148  0.1061
15846W        W58759   0.936  26.183  21.697  0.0103  0.1213 -0.1939
15847W        W58760   7.051  19.717  18.639  0.1285 -0.4696 -0.0200
15848W        W58761   3.415  20.361  25.399 -0.3077 -0.1896  0.2255
15849W        W58762  25.038  27.444  17.379 -0.1512  0.2944  0.3764
15850W        W58763  33.023  33.205  17.795  0.3083 -0.1839 -0.2291
15851W        W58764  24.423  34.447  16.014  0.0499  0.1962 -0.2061
15852W        W58765   4.740  23.922  20.462 -0.3971 -0.1081  0.0406
15853W        W58766   0.453  33.018  18.343 -0.1231  0.3690  0.2730
15854W        W58767  32.832  24.283  16.724  0.2877  0.1298  0.1067
15855W        W58768   6.543  25.561  17.917 -0.5748 -0.1630 -0.0412
15856W        W58769  30.650   1.545  26.174  0.2375 -0.1768  0.2340
15857W        W58770  18.669  32.334  20.482 -0.1534 -0.1088 -0.0398
15858W        W58771  13.558  24.066  22.842  0.0332  0.2064 -0.0462
15859W        W58772  33.437  30.594  20.778  0.1875  0.0624  0.2597
15860W        W58773   0.416  20.347  20.852  0.2170  0.1905  0.0593
15861W        W58774  30.393  17.419  17.430 -0.0603 -0.0768  0.1005
15862W        W58775  11.146  26.674  21.324 -0.0638 -0.0947 -0.2045
15863W        W58776  29.180  23.028  16.189 -0.1604 -0.2586 -0.0180
15864W        W58777   5.133  12.194  25.141 -0.1348 -0.2344  0.0973
15865W        W58778   5.359  28.715  21.639  0.3241  0.1791  0.1020
15866W        W58779  32.074   2.702  19.972  0.2469 -0.0010  0.2193
15867W        W58780   5.529  18.320  24.134 -0.0888 -0.2108  0.1096
15868W        W58781  30.827  20.617  14.115  0.1376  0.1991  0.0282
15869W        W58782  29.928  24.695  15.274 -0.1254 -0.0203  0.0896
15870W        W58783  24.414  16.454  24.572 -0.2883  0.3838  0.0747
15871W        W58784   4.861  23.291  16.032  0.0930  0.1518  0.0506
15872W        W58785  27.135  23.726  21.072  0.0004 -0.0683 -0.0576
15873W        W58786   9.469  34.029  25.017  0.1845 -0.0163  0.3308
15874W        W58787   3.417  24.143  14.793  0.1593 -0.0029 -0.1144
15875W        W58788  32.450   0.143  15.932 -0.2150 -0.0263 -0.1028
15876W        W58789  28.524  25.580  23.450 -0.1456 -0.2126  0.0653
15877W        W58790  32.600  13.410  16.536 -0.1018 -0.0200  0.0950
15878W        W58791   0.455  18.663  18.035  0.0694 -0.1410 -0.1126
15879W        W58792   2.975  30.200  14.764 -0.2027  0.0438 -0.3405
15880W        W58793  34.486  18.611  18.151 -0.0301  0.0897  0.0540
15881W        W58794   1.089  28.826  15.756 -0.2676  0.3471  0.0229
15882W        W58795   9.232  29.500  20.573  0.1605  0.2670  0.1246
15883W        W58796   9.616   0.560  18.570 -0.0613 -0.0526 -0.0674
15884W        W58797  13.842  27.749  23.672  0.1016  0.0865  0.2029
15885W        W58798   2.100  25.585  17.985 -0.1422  0.0305  0.3112
15886W        W58799   1.555  17.167  28.113  0.0376  0.3384 -0.2173
15887W        W58800   8.257  25.412  24.661  0.0240 -0.0224  0.1877
15888W        W58801  25.730  28.181  15.349  0.0533  0.0212 -0.0659
15889W        W58802  10.815  23.357  18.633 -0.0368  0.1103 -0.1397
15890W        W58803  34.424  32.388  17.001  0.0064  0.2120 -0.3809
15891W        W58804  28.737  31.811  15.274  0.0543  0.1160  0.3858
15892W        W58805   5.433  20.626  27.158 -0.1887  0.3463  0.3043
15893W        W58806   7.560  19.803  22.871  0.0838  0.1622  0.2247
15894W        W58807   5.512  17.897  17.687  0.1901  0.2502  0.3736
15895W        W58808  31.987  23.174  13.976 -0.0658 -0.0791  0.0370
15896W        W58809   2.833  19.183  23.893 -0.2741  0.0493 -0.3126
15897W        W58810   2.900  24.278  18.363  0.1392  0.0454  0.0921
15898W        W58811   1.383  30.281  16.938  0.0164  0.1234  0.0169
15899W        W58812   2.291  26.444  13.873 -0.2439  0.1148 -0.1897
15900W        W58813  22.831  25.517  19.659 -0.0044 -0.0549 -0.0088
15901W        W58814  30.913  29.132  16.596 -0.1044 -0.0824  0.2394
15902W        W58815   1.401  33.522  22.805  0.2307 -0.1002  0.2212
15903W        W58816   5.815  30.745  18.311 -0.0218 -0.2340  0.1673
15904W        W58817  32.122  25.094  23.192  0.0428 -0.2449  0.0792
15905W        W58818   3.869  27.099  17.630 -0.0556  0.2961 -0.1814
15906W        W58819   9.725   5.947  19.107 -0.1635 -0.1200  0.0791
15907W        W58820  31.545  22.009  23.303  0.2419  0.0869 -0.0539
15908W        W58821   3.513  34.046  21.904  0.2539 -0.0230  0.0967
15909W        W58822   9.288  31.593  18.173 -0.1478 -0.2167  0.2386
15910W        W58823  27.229   0.678  21.476 -0.0994 -0.1311 -0.0931
15911W        W58824  33.636  30.066  14.024  0.3723 -0.0083 -0.4023
15912W        W58825  24.090  20.611  26.362 -0.0830  0.1544 -0.0741
15913W        W58826   5.689  27.738  17.463 -0.1209 -0.0197 -0.0221
15914W        W58827  32.992  15.858  24.141 -0.0814  0.0500 -0.1392
15915W        W58828   4.573  30.140  16.241 -0.2545 -0.0055 -0.0269
15916W        W58829   7.305  27.779  18.523 -0.1814 -0.0913  0.0217
15917W        W58830   2.326  31.353  24.116 -0.1419 -0.0178  0.3046
15918W        W58831  33.380  15.993  22.486 -0.0565 -0.1048  0.1565
15919W        W58832   4.374  17.239  21.969 -0.3214  0.1275  0.2132
15920W        W58833   1.919  19.877  22.634  0.1498 -0.2401 -0.0907
15921W        W58834   6.363  30.856  16.509  0.0787  0.1134 -0.0219
15922W        W58835  30.404  29.658  19.180 -0.3875  0.0945 -0.1495
15923W        W58836   5.634  16.489  16.233  0.1253 -0.0183  0.0149
15924W        W58837  34.189  26.014  16.458  0.2169  0.0011  0.1594
15925W        W58838  28.463   3.093  15.612 -0.3454  0.1266  0.0400
15926W        W58839  14.112  26.228  15.269  0.1316  0.1421 -0.2687
15927W        W58840   2.940  28.193  16.731 -0.4132  0.2058  0.0128
15928W        W58841  29.379  25.289  21.823 -0.1365 -0.0978 -0.1081
15929W        W58842  32.721  23.735  17.947  0.0554  0.2905 -0.1671
15930W        W58843   9.106  22.152  19.683 -0.3073  0.0144  0.0099
15931W        W58844   8.128  21.508  17.847  0.1800  0.2144 -0.0362
15932W        W58845  28.557  33.400  19.359  0.0012 -0.0800  0.1406
15933W        W58846   4.087  25.978  26.900  0.2450 -0.0523  0.1530
15934W        W58847  34.206  27.921  17.213 -0.2865 -0.1931  0.1155
15935W        W58848   4.255  21.247   1.369 -0.1342 -0.4133  0.3736
15936W        W58849   3.651  22.798  23.553 -0.4131  0.0581 -0.1865
15937W        W58850   0.744  10.054  22.372 -0.0720  0.0423  0.3864
15938W        W58851   6.579  23.122  15.799 -0.0869 -0.2909  0.2966
15939W        W58852   4.561  31.446  16.616  0.1778  0.0783 -0.0825
15940W        W58853  30.517  33.031  16.868 -0.0074 -0.1150 -0.0326
15941W        W58854  33.341  26.647  21.423 -0.1097 -0.0682  0.0256
15942W        W58855  33.956  29.569  16.225  0.0464  0.3238  0.2393
15943W        W58856   0.844  26.271  17.055 -0.1310 -0.0452 -0.1742
15944W        W58857   0.524  21.630  22.653 -0.1356  0.2577 -0.3893
15945W        W58858  32.778  19.695  16.203 -0.1107 -0.2453  0.4148
15946W        W58859   6.035  14.799  15.737  0.2497 -0.1585  0.2564
15947W        W58860   1.484  26.262  15.189  0.2088  0.1283  0.3317
15948W        W58861  32.490  17.275  20.137 -0.2571  0.0058 -0.0406
15949W        W58862   5.577  24.159  25.523 -0.0999  0.1899 -0.2177
15950W        W58863  34.464  15.162  18.952  0.0076 -0.0071  0.1343
15951W        W58864   0.937  30.782  17.810 -0.0912 -0.0455 -0.1987
15952W        W58865  32.819  29.696  18.457 -0.0724  0.0842 -0.0554
15953W        W58866   0.079  28.892  18.691  0.1561 -0.0966  0.2035
15954W        W58867  34.167  27.131  18.975 -0.3161 -0.2015  0.0528
15955W        W58868   2.838  28.652  26.292 -0.2815  0.1353  0.0470
15956W        W58869  33.785  32.537  17.822 -0.2551 -0.1084 -0.0570
15957W        W58870   6.577  13.023  22.416  0.0918  0.1551 -0.3986
15958W        W58871  29.499  25.266  23.363 -0.0727 -0.2289 -0.3154
15959W        W58872  29.469  30.185  21.478  0.4872  0.1548 -0.2485
15960W        W58873  21.596  23.249  18.255 -0.0151 -0.0224  0.2128
15961W        W58874  30.863  28.264  20.388 -0.1260  0.1537  0.0499
15962W        W58875  33.586   0.635  18.722  0.3712 -0.2154  0.1540
15963W        W58876  29.207  21.942  23.855 -0.2171  0.0789  0.0151
15964W        W58877  20.063  34.053  18.348  0.1060  0.1029 -0.1743
15965W        W58878   2.375  17.691  21.224  0.1034 -0.2185 -0.2286
15966W        W58879  31.965  28.571  15.149  0.1954 -0.2144 -0.1177
15967W        W58880   2.312  27.949  15.525 -0.1124  0.0940 -0.2051
15968W        W58881  33.812   2.003  18.148 -0.3650 -0.0832 -0.3732
15969W        W58882   5.932  30.301  17.394  0.2229  0.2758  0.3515
15970W        W58883  25.747  18.751  18.855 -0.2394  0.0637  0.0220
15971W        W58884   1.250  29.119  20.896  0.0016 -0.1345 -0.1286
15972W        W58885  30.918  24.593  17.382 -0.1767  0.3933 -0.0289
15973W        W58886  28.406  27.760  16.483  0.0190  0.2519 -0.3895
15974W        W58887  14.678  28.920  14.474  0.0464 -0.0830  0.2065
15975W        W58888  32.981  28.237  26.036 -0.0930  0.0034  0.1843
15976W        W58889   4.474  16.330  19.566 -0.0049 -0.1378 -0.0471
15977W        W58890   0.567  30.920  21.294  0.2735  0.0200  0.2199
15978W        W58891  18.834  19.657  13.322 -0.2346  0.2405 -0.1794
15979W        W58892   2.767  24.638  16.115  0.0238  0.0831 -0.4157
15980W        W58893  32.934  27.587  16.873  0.1513 -0.0539 -0.0089
15981W        W58894   2.567  19.621  18.690  0.2196  0.0369 -0.2303
15982W        W58895   4.113  13.816  15.096 -0.2034 -0.2041 -0.1221
15983W        W58896  30.187  20.034  18.084 -0.1543 -0.1985  0.0397
15984W        W58897   1.746  24.244  16.325 -0.0331 -0.0647  0.0256
15985W        W58898   0.370  21.801  27.936  0.0930 -0.2413  0.4138
15986W        W58899   3.269   3.837  20.478 -0.1517 -0.1724 -0.1111
15987W        W58900   3.816  33.064  22.392 -0.3976  0.0472  0.0346
15988W        W58901  33.543  27.451  17.586 -0.1495 -0.0819  0.0985
15989W        W58902  11.338  19.698  26.732 -0.0798 -0.0424  0.0919
15990W        W58903   1.300  34.074  19.771 -0.0571 -0.0232 -0.1779
15991W        W58904   9.334  24.772  18.212 -0.3208 -0.1352 -0.1581
15992W        W58905   0.147  23.610  25.416  0.0937 -0.1931  0.0547
15993W        W58906  33.481  22.029  26.250  0.2025  0.0143  0.1103
15994W        W58907   1.184  27.912  14.381 -0.0169  0.0288  0.1661
15995W        W58908   2.299  28.049  16.433  0.1593  0.1021 -0.2864
15996W        W58909  30.545  22.104  15.440  0.2534 -0.0118 -0.1426
15997W        W58910   6.180  18.527  28.471 -0.0586 -0.0419 -0.2285
15998W        W58911  28.044  18.092  17.273  0.1299  0.1105  0.0725
15999W        W58912   1.941  26.982  18.370  0.1806  0.2007  0.0876
16000W        W58913   4.531  23.720  22.847  0.3120  0.0149 -0.0747
16001W        W58914  26.412   3.599  14.009  0.1452 -0.1076 -0.1396
16002W        W58915   0.345  22.943  28.307 -0.0156 -0.0212  0.1880
16003W        W58916   4.587  28.071  17.229 -0.2044  0.0074 -0.1899
16004W        W58917   4.578  29.283  21.912  0.1096 -0.0384 -0.0957
16005W        W58918  33.999  32.250  17.346 -0.0215 -0.0420  0.1307
16006W        W58919   3.441   1.228  18.139 -0.2805  0.3438 -0.0477
16007W        W58920   0.588  23.136  17.092 -0.2251  0.1516 -0.2930
16008W        W58921  33.610  22.817  15.386 -0.2861  0.1330 -0.1061
16009W        W58922  32.500  28.407  15.130 -0.1565  0.4484 -0.0213
16010W        W58923   7.690  31.128  17.819 -0.0219  0.0215 -0.1611
16011W        W58924  33.380  19.003  14.855  0.2058 -0.1289  0.1710
16012W        W58925  32.723  19.450  14.299 -0.1464  0.1879 -0.1582
16013W        W58926   0.560  33.499  25.209  0.3553  0.1033  0.1065
16014W        W58927   5.681   8.566  20.833  0.1021  0.0274 -0.0992
16015W        W58928  21.962  28.844  25.545  0.2761  0.0078 -0.1960
16016W        W58929  11.640  12.654  17.308  0.5156  0.0884 -0.0451
16017W        W58930  13.323  18.417  21.002  0.0373  0.1747 -0.0661
16018W        W58931  30.912  25.700  19.136 -0.0238 -0.2215  0.1132
16019W        W58932   3.468  28.210  14.846 -0.2147  0.0535  0.4530
16020W        W58933   5.821  22.939  17.071 -0.0457  0.2518  0.1485
16021W        W58934  15.231  32.226  18.280 -0.0227  0.1161 -0.0632
16022W        W58935  10.206  33.762  16.746 -0.2673 -0.2032  0.2557
16023W        W58936   1.373  26.275  14.514 -0.0125 -0.0407  0.0894
16024W        W58937   4.466  27.451  18.806  0.0255 -0.1697 -0.3525
16025W        W58938   0.636  27.770  18.849 -0.2369  0.2615  0.0536
16026W        W58939  32.437  20.598  25.244  0.1712 -0.1957  0.0882
16027W        W58940   2.326  28.471  15.233 -0.1578  0.1238  0.0519
16028W        W58941   4.319  23.344  24.163  0.2336  0.2305  0.3954
16029W        W58942   3.904  28.633  16.206  0.0140  0.4749 -0.1955
16030W        W58943  34.428  29.114  19.131 -0.2576  0.1151  0.1867
16031W        W58944   8.344  15.895  16.048 -0.2158  0.1616 -0.1362
16032W        W58945  26.470  27.765  18.577 -0.4084  0.0722 -0.2743
16033W        W58946   2.277   0.032  20.256  0.0667 -0.1884 -0.2101
16034W        W58947   4.681  27.455  14.350  0.0861  0.2150 -0.0945
16035W        W58948   2.744  25.924  24.730  0.3247  0.0472 -0.0190
16036W        W58949  29.339  23.987  24.990 -0.0542  0.1830 -0.1547
16037W        W58950   9.537  23.031  15.735 -0.3353  0.1455 -0.1531
16038W        W58951  29.525  20.667  25.279 -0.3050  0.1458 -0.1197
16039W        W58952  33.044  21.245  15.324  0.0914  0.0829  0.1111
16040W        W58953  29.860  20.493  19.925 -0.0009 -0.2628  0.0804
16041W        W58954   1.592  31.312  18.060  0.1066  0.1975  0.0397
16042W        W58955  33.773  25.166  16.548 -0.0979  0.2015  0.1598
16043W        W58956  27.630   7.526  24.865 -0.0844 -0.0770 -0.0359
16044W        W58957  33.017   0.220  20.610 -0.2033 -0.1910 -0.2427
16045W        W58958  13.772  23.444  15.030  0.3047  0.2256  0.1076
16046W        W58959   8.861  20.351  24.827  0.0680  0.2670 -0.1805
16047W        W58960   3.018   3.605  23.757  0.0245 -0.0515  0.0264
16048W        W58961  30.097  22.104  23.395 -0.1257 -0.2140  0.1206
16049W        W58962  30.336  21.928  16.909 -0.0004  0.1291  0.3449
16050W        W58963   5.445  24.857  14.909  0.3009  0.5545  0.0797
16051W        W58964  23.638  25.243  15.816 -0.2148  0.0033  0.1128
16052W        W58965   7.237  22.141  18.337 -0.2602  0.3002  0.1544
16053W        W58966   0.695  16.986  23.673  0.1292  0.2192  0.1417
16054W        W58967  21.233  25.935  16.652 -0.1388  0.0608  0.0059
16055W        W58968   0.490  31.713  16.903  0.2943  0.0959  0.1847
16056W        W58969  33.289  28.046  21.423  0.1422  0.1496 -0.2669
16057W        W58970  33.423  33.764  18.719 -0.0027  0.1008 -0.4380
16058W        W58971   3.038  25.458  15.461  0.0003 -0.2367  0.2118
16059W        W58972   7.153  27.843  15.964  0.2147 -0.0629  0.0449
16060W        W58973   3.944  16.211  16.802 -0.0663  0.0078  0.0432
16061W        W58974  27.813  29.333  24.685  0.2704  0.1491 -0.0998
16062W        W58975  27.420   3.235  22.458 -0.0196 -0.1607 -0.0803
16063W        W58976   0.497  30.153   2.194 -0.0143 -0.1193  0.2622
16064W        W58977  31.694  27.649  16.311 -0.2553  0.1816  0.0620
16065W        W58978  31.875   0.109  17.257  0.1100  0.3445  0.2256
16066W        W58979   4.635  30.048  23.623  0.2753  0.0607 -0.1407
16067W        W58980  31.944  30.523   1.288  0.3759  0.2325  0.1905
16068W        W58981  30.262  32.019  14.686  0.2864 -0.2409 -0.0382
16069W        W58982   0.421  31.044  17.676  0.0427 -0.2548 -0.0790
16070W        W58983   6.326  21.562  28.246 -0.0509 -0.0953 -0.1907
16071W        W58984   2.479   1.362   4.577 -0.1663 -0.1009  0.0539
16072W        W58985  31.872  25.907  22.958 -0.1586 -0.0173 -0.1722
16073W        W58986   5.733  18.714  27.018 -0.0169  0.0627 -0.0722
16074W        W58987   4.341  33.656  18.998  0.2330  0.1389  0.2601
16075W        W58988   2.888  26.036  18.273 -0.0020 -0.0899  0.0459
16076W        W58989  31.541  22.254  21.899 -0.0329  0.0955 -0.2660
16077W        W58990  30.480  34.121  25.306  0.1654  0.2761 -0.0988
16078W        W58991  26.667   7.345  16.589  0.1193  0.0152  0.0879
16079W        W58992   1.563  27.163  16.278 -0.1053 -0.0282  0.3276
16080W        W58993   7.773  18.166  23.428 -0.2102  0.2227 -0.0255
16081W        W58994  31.821  28.951  23.611  0.0957  0.0357  0.1244
16082W        W58995  29.188   4.579   0.766  0.0114 -0.0889 -0.0471
16083W        W58996  25.936  22.146  21.031  0.0320 -0.0564 -0.1691
16084W        W58997   8.708  29.421  29.206  0.1734  0.2858  0.1042
16085W        W58998   8.857  33.778  23.665 -0.2736 -0.0172 -0.0800
16086W        W58999  30.170  31.389   6.059  0.1326  0.2471 -0.1822
16087W        W59000   1.566  22.677  24.105 -0.2637 -0.0159 -0.0284
16088W        W59001   0.948  29.705  14.578 -0.0589  0.0574 -0.0877
16089W        W59002  34.076  28.981  18.846  0.2430  0.3733  0.3821
16090W        W59003   0.973  27.751   1.802  0.1830  0.0201  0.3131
16091W        W59004   1.049  30.449  15.206 -0.0457 -0.1870 -0.1983
16092W        W59005  31.273  17.642  23.196 -0.1245  0.0563 -0.1785
16093W        W59006  27.232  28.293  17.887  0.1851  0.1458 -0.0275
16094W        W59007  32.933  27.413  14.579  0.1306 -0.2992  0.0384
16095W        W59008  13.553  29.152   2.342  0.2344  0.1217 -0.0173
16096W        W59009  30.596  19.467  17.904 -0.0641  0.0911  0.0641
16097W        W59010   3.858  19.424  17.771  0.1306 -0.2091  0.1916
16098W        W59011  29.423  19.805  15.909 -0.1104 -0.1779 -0.0041
16099W        W59012   5.945  22.214  17.560 -0.0822 -0.0534 -0.2450
16100W        W59013   7.081  25.846  15.669  0.0021  0.2366 -0.2308
16101W        W59014  25.963  34.140  14.302  0.2875 -0.1629  0.1157
16102W        W59015   9.893   2.836  23.673  0.0857 -0.0608  0.1911
16103W        W59016  34.301  23.398  27.190 -0.0353 -0.0841  0.0521
16104W        W59017   3.270   2.330   2.542 -0.1901 -0.1171 -0.2413
16105W        W59018  11.532  24.971  15.518 -0.0221 -0.2471  0.0999
16106W        W59019  31.797  16.184  18.128  0.0857  0.2404 -0.1376
16107W        W59020  27.482  23.994  14.992  0.0223  0.0285 -0.1064
16108W        W59021  27.803   1.837  25.738 -0.1478 -0.1938 -0.1135
16109W        W59022  32.772  26.888  15.324 -0.0720 -0.0767  0.1413
16110W        W59023   0.362  16.852  17.423 -0.1485 -0.0290  0.1336
16111W        W59024  31.482  30.070  18.918  0.2588 -0.0670  0.2143
16112W        W59025   1.983  28.389  23.722 -0.0936 -0.0605  0.1793
16113W        W59026   2.825  17.842  15.241 -0.3267 -0.1507 -0.0905
16114W        W59027   1.901   6.364  17.998 -0.1397 -0.2712  0.2398
16115W        W59028   3.878  25.586   3.548 -0.0648 -0.2519  0.0334
16116W        W59029  17.185  27.574  15.951  0.0005  0.2025 -0.1936
16117W        W59030   1.003  21.112  14.428  0.2460  0.1377 -0.0520
16118W        W59031  22.480  13.479  21.518 -0.0127 -0.2203  0.2239
16119W        W59032  30.767  30.718   2.315  0.1530 -0.0034 -0.4084
16120W        W59033   4.299  19.036  15.662 -0.3068 -0.2231 -0.1042
16121W        W59034  14.063  24.567  16.228  0.3487  0.0277 -0.2038
16122W        W59035   0.882  34.411  19.460  0.1996 -0.1256 -0.0701
16123W        W59036  27.952   6.154  20.407 -0.1573 -0.0898 -0.2725
16124W        W59037  14.979  27.861  21.094 -0.0958 -0.1625  0.1754
16125W        W59038  26.160  23.382  24.104  0.2540  0.0816 -0.0102
16126W        W59039  20.087  20.587   0.559  0.0005  0.2137  0.0532
16127W        W59040  29.799  18.741  21.184 -0.0725 -0.0999 -0.1853
16128W        W59041  31.619  24.229  24.210 -0.0809 -0.0888  0.2184
16129W        W59042   2.632  31.366   5.119  0.0951  0.1632 -0.2222
16130W        W59043   5.602   8.190  25.000 -0.0144  0.2107  0.1636
16131W        W59044   2.590  28.404  18.489 -0.0383  0.0057  0.1955
16132W        W59045   4.366  31.539  15.379 -0.2563 -0.1093 -0.0149
16133W        W59046  26.633  30.206  24.473 -0.2731  0.3447  0.2305
16134W        W59047   0.635  24.932  15.954 -0.0029  0.1811  0.1782
16135W        W59048  33.765  30.916  27.974 -0.2830 -0.0931 -0.1136
16136W        W59049   7.159  16.466  28.098 -0.0798  0.1106  0.2260
16137W        W59050   3.638  21.676  25.009 -0.1896  0.0090 -0.1470
16138W        W59051  33.139  31.737  28.844 -0.3236 -0.1929  0.0068
16139W        W59052  34.259  22.632  18.907  0.1678 -0.0973  0.2044
16140W        W59053   6.506  21.314   3.255 -0.0871  0.3070  0.2228
16141W        W59054   2.195  30.856  19.243 -0.2651 -0.1407  0.1181
16142W        W59055  13.782  31.556  25.732  0.3228  0.1281 -0.2620
16143W        W59056   7.221   0.921  25.814  0.1953  0.2429 -0.1126
16144W        W59057  29.957  24.560  17.059  0.1146 -0.0837  0.1975
16145W        W59058  33.458  24.963  22.024 -0.0781  0.1524  0.0560
16146W        W59059   2.166  29.860  22.873  0.0389  0.2531 -0.1824
16147W        W59060  33.979   2.764  24.500  0.0739 -0.0081  0.3603
16148W        W59061  32.583  27.499  19.978  0.0256  0.2402 -0.2076
16149W        W59062   1.847  28.639  18.856  0.1714 -0.0452  0.1129
16150W        W59063   0.262   7.715  16.675 -0.3299  0.1160 -0.2345
16151W        W59064  23.322  24.063  17.798  0.0162  0.1213  0.2378
16152W        W59065  20.052  30.829  23.912  0.2802 -0.0985 -0.0831
16153W        W59066   2.089  30.359  20.921 -0.2199 -0.1106 -0.2616
16154W        W59067  11.040  29.099  17.852 -0.0406 -0.0473 -0.2330
16155W        W59068  29.714  22.860  13.047 -0.2269  0.1752 -0.1683
16156W        W59069  28.878  30.622  17.217  0.0924 -0.1647  0.1650
16157W        W59070  29.773  17.189  21.170  0.1882 -0.1061  0.1248
16158W        W59071   0.238  30.839  20.332  0.0434  0.2436  0.4033
16159W        W59072  15.208  27.341  15.617 -0.0589 -0.0778 -0.0804
16160W        W59073  32.112  15.133  19.996  0.0940 -0.0331  0.4364
16161W        W59074   3.480  14.225  28.382 -0.2840 -0.1349  0.1097
16162W        W59075  24.451  26.489  14.951  0.0489 -0.1451 -0.1893
16163W        W59076   4.211  11.996  24.941 -0.2248  0.3345 -0.0090
16164W        W59077  29.722   0.210  28.741  0.0802  0.1242 -0.1852
16165W        W59078   5.105  15.439  26.832  0.0212  0.4780  0.0366
16166W        W59079   5.946  33.288  20.148  0.2050  0.4511 -0.1271
16167W        W59080   1.330   0.006  20.142 -0.3652 -0.1871 -0.2250
16168W        W59081   3.157  24.325  25.908  0.0316  0.1573 -0.2343
16169W        W59082   0.622  21.916  17.635 -0.1278 -0.4641 -0.1120
16170W        W59083  27.262  27.260  24.622  0.0350  0.3457  0.1385
16171W        W59084   9.921  29.985  18.003 -0.0822  0.2816  0.2063
16172W        W59085   0.959  27.260  17.623 -0.0707 -0.1149 -0.1192
16173W        W59086   0.621  27.794  20.088  0.1628  0.1017 -0.1436
16174W        W59087  33.468  26.336  19.382 -0.1339  0.0762  0.2330
16175W        W59088  34.215  23.421  17.340  0.3204  0.0206 -0.1476
16176W        W59089   2.670  20.946  15.137 -0.3098 -0.2238  0.2956
16177W        W59090   3.069  18.821  15.000  0.0848  0.0903  0.2491
16178W        W59091  24.343  28.123  24.639  0.1339 -0.2401 -0.0415
16179W        W59092  24.770  30.064  23.738 -0.3149  0.2289  0.4523
16180W        W59093   2.535  33.963  22.351 -0.0041 -0.0391  0.2248
16181W        W59094   4.019  19.074  21.557  0.0777  0.1948  0.1727
16182W        W59095  28.643  23.953  27.666  0.0127  0.3708  0.1409
16183W        W59096  34.355   2.205  18.989 -0.1917 -0.2103  0.0900
16184W        W59097   1.131  17.883  18.329 -0.0555  0.0945 -0.3512
16185W        W59098  29.283  19.880  16.377 -0.0738 -0.1919 -0.2458
16186W        W59099   9.136  16.919  25.851  0.3926  0.1860 -0.0137
16187W        W59100   5.144  20.284  22.148 -0.0978  0.0786 -0.1949
16188W        W59101  33.346   3.583  19.392  0.1746 -0.0627  0.1787
16189W        W59102  29.055  29.503  18.798 -0.2124  0.1685 -0.1017
16190W        W59103   0.643  13.105  18.399 -0.1527 -0.4511  0.0182
16191W        W59104   1.256  23.473  18.778  0.0670 -0.2464  0.2696
16192W        W59105  33.846  24.515  19.303  0.1263 -0.0965  0.3039
16193W        W59106  25.315   1.968  15.582  0.3762 -0.1890 -0.2206
16194W        W59107  32.843  29.335  21.090  0.4136  0.0662  0.1191
16195W        W59108  33.575  20.863  18.644 -0.2095 -0.2583  0.1956
16196W        W59109  29.090  25.799  14.028 -0.3469  0.0207 -0.2877
16197W        W59110   4.725  17.555  29.501 -0.2794  0.0605  0.1166
16198W        W59111  11.454  22.917  14.653  0.2773  0.1029 -0.1301
16199W        W59112   8.967  29.443  19.990 -0.1820  0.5304 -0.2468
16200W        W59113  21.887  20.083  26.092 -0.0458 -0.4543  0.2275
16201W        W59114   4.547  25.182  25.777  0.0899 -0.4473  0.1200
16202W        W59115   9.604  11.836  22.158  0.0329 -0.0012 -0.1693
16203W        W59116  32.721  15.637  26.158  0.1062  0.0018 -0.2045
16204W        W59117   9.774  29.764  19.780  0.0972 -0.0972 -0.1835
16205W        W59118  33.906  28.408  15.657  0.0506  0.1094  0.2759
16206W        W59119   9.986  12.828  27.431 -0.2277 -0.0085  0.0841
16207W        W59120  33.699  31.821  22.898  0.2766 -0.2360 -0.0386
16208W        W59121   2.078  17.206  20.122 -0.1380 -0.0057  0.0006
16209W        W59122  32.941  31.216  19.564  0.2074 -0.0993 -0.0342
16210W        W59123   5.382  21.825  25.452  0.1334 -0.4040  0.1429
16211W        W59124   2.120  21.103  26.872 -0.2177 -0.0419 -0.0137
16212W        W59125  28.773  24.558  16.956 -0.1061 -0.0013  0.0316
16213W        W59126  34.181  33.164  15.931 -0.1676  0.2577  0.0574
16214W        W59127  26.752  34.084  15.737  0.2422 -0.0644  0.1650
16215W        W59128   1.627  18.561  17.327 -0.2213 -0.0037 -0.2859
16216W        W59129   1.134  25.118  24.763  0.1077 -0.2016 -0.2971
16217W        W59130  33.887  16.686  20.511 -0.0770  0.2051 -0.2547
16218W        W59131   4.391  23.373  25.120  0.0902  0.0448  0.0252
16219W        W59132  32.046  27.825  18.138 -0.1976 -0.1342 -0.5918
16220W        W59133   4.332  19.435  23.560 -0.2178 -0.3766 -0.2720
16221W        W59134  10.735  25.115  19.664  0.1948  0.1135 -0.0679
16222W        W59135   8.862  24.654  27.074 -0.1068  0.1661  0.2078
16223W        W59136   6.158  26.197  14.206  0.1170 -0.2852  0.3746
16224W        W59137  30.103  29.730  27.701 -0.1579  0.2640 -0.3302
16225W        W59138   4.058  26.050  25.967 -0.2016 -0.1839 -0.0309
16226W        W59139   4.732   2.169  19.625  0.0918  0.3393  0.0646
16227W        W59140   2.986  15.099  19.592  0.2110  0.2796  0.0024
16228W        W59141  33.446  28.655  27.158 -0.0371  0.2240 -0.0742
16229W        W59142   6.616  24.890  23.992 -0.0653 -0.0459 -0.0351
16230W        W59143  30.365  30.594  19.427 -0.0750 -0.1468  0.0369
16231W        W59144   0.618  18.263  14.448 -0.3413  0.4172 -0.1317
16232W        W59145  33.274  28.425  18.680 -0.0684 -0.6270  0.0222
16233W        W59146  10.505  30.408  20.275 -0.0743  0.1178 -0.4141
16234W        W59147  22.801  23.037  28.117 -0.0519  0.0238 -0.0883
16235W        W59148  23.603   2.833  21.858 -0.0766 -0.0608 -0.2416
16236W        W59149  32.157   0.362  20.918 -0.1909 -0.0821  0.0359
16237W        W59150  26.604  22.221   4.578 -0.6363  0.3106  0.0478
16238W        W59151   5.124  34.049   2.319  0.1959 -0.2810  0.0533
16239W        W59152  30.413  29.141  15.399 -0.1826 -0.2217  0.1928
16240W        W59153  33.332  25.395  16.583 -0.1875 -0.1727  0.0864
16241W        W59154   1.885  28.900  25.707 -0.2290 -0.0538  0.1114
16242W        W59155  33.222  13.827  21.371  0.0299  0.0370 -0.1099
16243W        W59156   1.552  11.947  20.889  0.1964  0.2657  0.0100
16244W        W59157  31.384   0.023  27.501  0.3673  0.2203  0.2267
16245W        W59158  19.658  28.675  29.327 -0.0919  0.1635  0.3332
16246W        W59159  32.453  18.065  17.462  0.0326  0.1603 -0.0830
16247W        W59160  29.179  27.800  17.678  0.1250 -0.2269  0.0535
16248W        W59161   1.342  31.078  26.681 -0.1962 -0.1023  0.0469
16249W        W59162  32.886  26.420  15.548 -0.0299 -0.0852  0.0617
16250W        W59163  27.730  20.619  17.039 -0.2420 -0.4989 -0.2518
16251W        W59164   8.653  26.615  25.394 -0.0115  0.0313 -0.0418
16252W        W59165   0.110  30.166   0.091  0.3714  0.1118  0.1512
16253W        W59166   5.411  30.439  19.807  0.1185  0.1371 -0.2209
16254W        W59167   6.511  33.580  17.913 -0.2202 -0.1970  0.2992
16255W        W59168   6.322  24.974  25.257  0.2405  0.0404  0.1736
16256W        W59169  29.134  25.880  18.220 -0.0680  0.1453  0.0490
16257W        W59170  26.258  24.927  21.756 -0.3273  0.0927 -0.1581
16258W        W59171  14.537  15.629  24.887 -0.0916 -0.1769  0.0523
16259W        W59172   1.053  22.046  21.304 -0.0154  0.0631  0.1387
16260W        W59173  32.490  17.468  13.465 -0.1430 -0.3254 -0.4263
16261W        W59174   0.075  28.267  19.788  0.0343 -0.2350 -0.1029
16262W        W59175  25.528  21.843  24.736 -0.2619  0.1085  0.0825
16263W        W59176   1.257   4.143  22.723 -0.1256  0.3181 -0.4791
16264W        W59177   6.819  22.414  28.271  0.0803  0.1685 -0.1034
16265W        W59178   7.058   1.434  18.191  0.0956  0.1197 -0.1481
16266W        W59179  11.473  24.535  27.146 -0.0535  0.0130  0.1876
16267W        W59180  29.364  22.994  12.699 -0.1207 -0.1205  0.0176
16268W        W59181  32.571  18.520  24.110 -0.0202 -0.3626 -0.0982
16269W        W59182  31.351  32.647  22.156  0.4148 -0.0545  0.0328
16270W        W59183  31.347  29.072  16.934 -0.4339  0.2567  0.0970
16271W        W59184  11.712  31.516  17.960  0.2191  0.1223 -0.3127
16272W        W59185   9.362  18.632  20.190  0.1051 -0.1145  0.1980
16273W        W59186  10.891  32.052  19.690  0.1465  0.1002 -0.0555
16274W        W59187  23.010  22.676  29.747  0.0256  0.1752  0.4213
16275W        W59188  24.494   2.558  25.289  0.3072 -0.0632 -0.0873
16276W        W59189  23.625  25.283  21.103  0.0759 -0.0736 -0.0433
16277W        W59190   0.859  15.810  22.832  0.3214  0.0557 -0.0308
16278W        W59191  27.340  32.261  19.760 -0.0249  0.0444 -0.1093
16279W        W59192  25.403  22.298  24.243 -0.0297 -0.0460  0.2718
16280W        W59193  34.309  28.245  23.480 -0.2858 -0.1127  0.1715
16281W        W59194  31.509  18.164  21.626 -0.2431 -0.1643  0.0430
16282W        W59195  12.078  15.566  24.631  0.0092 -0.0623  0.0664
16283W        W59196   4.728  31.442  17.072  0.4281 -0.1003  0.2249
16284W        W59197   0.983  18.005  21.388  0.0281 -0.2005  0.1726
16285W        W59198  28.031  33.590  25.731 -0.2422  0.1373  0.1738
16286W        W59199  23.091  16.604  26.918  0.0150 -0.0659 -0.0174
16287W        W59200  33.936  19.718  29.090  0.0925 -0.1260  0.1674
16288W        W59201  12.008  27.158  15.690  0.2204  0.0528 -0.1485
16289W        W59202  30.804  21.291  14.437  0.3245 -0.2056 -0.0011
16290W        W59203  28.684  21.184   3.724 -0.2965  0.2354 -0.0165
16291W        W59204  31.145  32.247  26.053  0.1994 -0.3260  0.0065
16292W        W59205   2.424  19.917  19.818 -0.1207 -0.2299  0.0336
16293W        W59206  31.262  10.382  20.494 -0.2460 -0.0998  0.1960
16294W        W59207   9.301  28.884  16.550  0.4837  0.2304 -0.1973
16295W        W59208   3.107  23.567  16.716 -0.0073  0.0599 -0.1013
16296W        W59209  20.302  31.957  20.257 -0.3437 -0.1956  0.0083
16297W        W59210  31.284  31.044  23.657 -0.1803 -0.0678 -0.1300
16298W        W59211   3.858  18.673  26.790  0.0030  0.1744  0.0387
16299W        W59212   1.201  31.922  19.194  0.2277 -0.0608  0.2802
16300W        W59213   4.674  22.157  17.002  0.0602  0.0269  0.2678
16301W        W59214   5.358  25.263  27.123  0.1204 -0.4100  0.1965
16302W        W59215  27.624  26.083  22.600  0.0086  0.1808  0.1965
16303W        W59216   3.044  27.601  17.954 -0.0073 -0.3034 -0.0830
16304W        W59217   1.926  30.182  18.494 -0.3509  0.0332 -0.1124
16305W        W59218  33.989  28.256  21.088  0.0676  0.1444 -0.3476
16306W        W59219   4.870  25.556   1.141  0.0379  0.1577  0.6130
16307W        W59220   6.058  20.515  16.646  0.2620  0.2151  0.1560
16308W        W59221   3.400   1.095  18.702  0.2090 -0.0294  0.1688
16309W        W59222  10.977  30.127  17.016 -0.0944  0.3777 -0.0090
16310W        W59223   0.852  13.105  20.517  0.2017 -0.0722  0.3614
16311W        W59224  30.010  30.783  19.135  0.0629 -0.1425 -0.1629
16312W        W59225   1.772  30.156  23.025 -0.0637 -0.0926  0.1260
16313W        W59226  15.110  26.782  18.101  0.0060  0.1210 -0.1015
16314W        W59227  10.503  34.214  17.983  0.2358 -0.1512 -0.1021
16315W        W59228  27.700   3.782  21.041  0.1835  0.0469  0.0775
16316W        W59229   2.213   0.132  22.142  0.2012 -0.0222 -0.0216
16317W        W59230  23.926  31.336  14.174 -0.1632  0.1017  0.1266
16318W        W59231  33.682  25.693  24.374  0.0804 -0.1489 -0.1049
16319W        W59232   7.437   1.123  20.764  0.1878  0.0997  0.1021
16320W        W59233   1.335  34.159  15.341 -0.0571  0.1597 -0.0535
16321W        W59234   8.844  32.290  21.587  0.1082  0.1467  0.0545
16322W        W59235   2.794  25.636  19.944  0.1120  0.0900 -0.0908
16323W        W59236  26.012  25.435   1.507  0.1555  0.0583 -0.1149
16324W        W59237  34.421  27.415  10.171 -0.1015  0.1818  0.0928
16325W        W59238  33.649  19.930  20.476  0.1196  0.0371 -0.2694
16326W        W59239  28.436  22.148  27.190  0.0324  0.1857 -0.3298
16327W        W59240   6.736   4.215  19.690 -0.0598  0.1742 -0.1944
16328W        W59241   6.343   0.965  19.023 -0.0075  0.1276 -0.0300
16329W        W59242  28.131  24.443  17.672  0.1439 -0.2815 -0.1593
16330W        W59243  26.781  31.745  18.034  0.1355  0.0576 -0.0523
16331W        W59244  10.961  22.939  24.729 -0.1121 -0.1899  0.1944
16332W        W59245  32.363  19.871  25.635 -0.2697  0.1096  0.1213
16333W        W59246  31.877   0.914  25.451 -0.1316  0.2658 -0.0578
16334W        W59247  33.536   1.535  27.350  0.3373 -0.1929  0.5284
16335W        W59248   6.355  18.814  17.058 -0.0934  0.3085 -0.2573
16336W        W59249   0.927  18.655  14.738 -0.2969 -0.0385 -0.2004
16337W        W59250   1.461  28.765  15.373  0.1818 -0.0198 -0.5002
16338W        W59251  32.940  31.227  14.929  0.0128 -0.0523  0.1149
16339W        W59252   0.038  31.787  15.757  0.0144  0.2605 -0.0794
16340W        W59253  26.017  32.030  21.512  0.3795 -0.0086  0.6568
16341W        W59254   1.500  23.633  16.050 -0.0461 -0.2231  0.0112
16342W        W59255   6.719  14.015  23.300 -0.0659  0.0332 -0.0303
16343W        W59256  32.234  22.248  20.591  0.2581 -0.1533 -0.0548
16344W        W59257   6.077  20.427   1.900  0.2101  0.0836  0.2400
16345W        W59258   6.917  29.045  28.818 -0.0148  0.2905 -0.3145
16346W        W59259   1.609  23.397  18.401 -0.1214  0.1394  0.0266
16347W        W59260   0.066  31.230  24.599 -0.3161 -0.1577 -0.0067
16348W        W59261  33.910  20.013  14.355  0.3369 -0.0866  0.2429
16349W        W59262  30.168  32.459  19.836 -0.0262  0.3212 -0.1654
16350W        W59263  33.902  17.103  14.762 -0.2415  0.2052 -0.1029
16351W        W59264   1.252  29.272  20.396 -0.1332 -0.1484  0.1760
16352W        W59265   5.828  16.030  16.726 -0.0079 -0.2715  0.2079
16353W        W59266  28.100   6.573  21.127 -0.2242 -0.1555 -0.0623
16354W        W59267  11.981  21.203  23.759 -0.3124 -0.0167  0.1956
16355W        W59268   5.624  32.777  16.606 -0.0079 -0.3108 -0.2378
16356W        W59269   7.744  21.487  19.618 -0.2610 -0.0573  0.0203
16357W        W59270  34.386  27.222   1.245  0.2831 -0.0363  0.3730
16358W        W59271  34.240  23.705  22.192 -0.0514 -0.1251 -0.2446
16359W        W59272  24.673  25.668  13.516 -0.1822  0.2239  0.1003
16360W        W59273  33.281  19.932  16.032  0.0458  0.1297 -0.0729
16361W        W59274   0.797  31.904  17.275 -0.0932  0.1052 -0.0338
16362W        W59275  32.645  26.828   0.682  0.1351 -0.2688 -0.0678
16363W        W59276  29.195  28.388  14.538 -0.1574  0.3375 -0.0063
16364W        W59277  24.049  30.073   2.117 -0.0193 -0.3675 -0.3998
16365W        W59278  31.346   4.399  21.189  0.0992  0.1935 -0.1102
16366W        W59279   0.994  25.873   9.764 -0.1373  0.1449  0.2888
16367W        W59280  25.624  20.866  24.302 -0.1207  0.1541 -0.1775
16368W        W59281   3.508   5.060  18.593 -0.2204 -0.2093  0.0341
16369W        W59282  31.443  17.730  17.433  0.0659  0.1220 -0.0421
16370W        W59283   2.625  23.024   0.087 -0.1147  0.0322 -0.1410
16371W        W59284  11.729  26.326  27.401 -0.1528 -0.0011  0.1502
16372W        W59285  12.024  21.439   0.758 -0.0232  0.1030 -0.4895
16373W        W59286  28.236  30.313  20.874  0.1544  0.1634  0.1263
16374W        W59287   8.540  28.791  17.295 -0.1605  0.0170 -0.0090
16375W        W59288  24.750  31.374  25.128 -0.0715  0.2468 -0.3100
16376W        W59289  21.724  26.322  14.810  0.1006 -0.1796 -0.2728
16377W        W59290  11.518  30.237  17.172 -0.0966  0.0689  0.1192
16378W        W59291  16.814  28.788  18.255  0.2179  0.3160 -0.0043
16379W        W59292   3.621  19.810  15.373  0.0497 -0.2824  0.1552
16380W        W59293  32.584  32.558  16.053 -0.4343  0.0616  0.0261
16381W        W59294   1.379  33.518  24.295  0.3024  0.1454  0.0102
16382W        W59295   7.157   3.939  29.017  0.3586 -0.0597 -0.2354
16383W        W59296   4.811  18.342  14.367  0.2713  0.3130  0.1739
16384W        W59297  32.805  28.162  21.455  0.0871  0.1604  0.1200
16385W        W59298  29.661  31.914  16.308 -0.1112 -0.1855 -0.3072
16386W        W59299  24.158   8.057  20.387  0.0055  0.0697 -0.1227
16387W        W59300  28.057  28.581  13.745 -0.0162  0.0102  0.0475
16388W        W59301   4.022  30.391  16.196 -0.0034  0.5179  0.1289
16389W        W59302  15.074  27.766  17.400 -0.3828  0.3141  0.1086
16390W        W59303   3.231  19.868   0.011 -0.3417 -0.1257  0.2930
16391W        W59304  12.344   2.414  24.002 -0.1246 -0.0456  0.2068
16392W        W59305  32.159  29.666   0.527  0.0759  0.2866 -0.1796
16393W        W59306  12.540  25.538   2.397 -0.0600 -0.1544  0.4076
16394W        W59307   3.246  20.409  21.559 -0.0015 -0.1009  0.1241
16395W        W59308   1.010  27.814  29.003 -0.0873 -0.0155 -0.0609
16396W        W59309  27.124  23.526  15.020 -0.0701  0.0563  0.1948
16397W        W59310   0.401  25.185  15.586 -0.0847  0.2354 -0.0405
16398W        W59311   2.285  26.458  20.108  0.2201 -0.0974 -0.3810
16399W        W59312   9.431   2.111  18.211 -0.3340 -0.3144  0.1129
16400W        W59313   6.712  23.474  13.956 -0.0717 -0.3001  0.1199
16401W        W59314   7.321  28.554  17.757  0.1597  0.0477  0.0130
16402W        W59315   7.151  31.784  25.499 -0.0202  0.0927  0.3696
16403W        W59316   2.849  32.047  21.531  0.1082  0.1169 -0.1789
16404W        W59317   4.179  30.328  21.295  0.0549 -0.0707  0.0562
16405W        W59318   4.233   1.824  25.772  0.1168  0.3380  0.0841
16406W        W59319   6.536  27.807  20.282  0.1337  0.1252  0.0195
16407W        W59320   1.410  19.037  17.448  0.0698  0.0435  0.0276
16408W        W59321   1.832  27.667  19.042  0.0326 -0.0843 -0.0223
16409W        W59322   2.052  31.237   3.298  0.1939  0.0269 -0.0525
16410W        W59323  33.049   1.310  25.023  0.0021  0.2519 -0.1264
16411W        W59324  31.197  25.985  28.239 -0.0147  0.1788 -0.1041
16412W        W59325   3.495  28.424  20.199  0.1299 -0.0913 -0.0390
16413W        W59326   7.975  29.557  19.505  0.1482 -0.1629  0.0041
16414W        W59327   0.952  25.062  17.341  0.1070  0.1421  0.0541
16415W        W59328  29.714  21.139  20.959 -0.0845 -0.1155 -0.0454
16416W        W59329   5.089  10.351  26.691  0.1686  0.1202  0.2030
16417W        W59330  32.758  16.357  15.446 -0.0138  0.1711 -0.2200
16418W        W59331  32.878  28.189  19.957  0.2086 -0.0269 -0.0496
16419W        W59332   2.011   9.851  20.013 -0.0823  0.0487  0.1000
16420W        W59333   4.745   3.195  25.039 -0.1122  0.1148 -0.5212
16421W        W59334  32.912  26.951  20.693 -0.0138 -0.1314  0.1829
16422W        W59335   4.575   5.020  18.268 -0.3137  0.0325 -0.0411
16423W        W59336  33.915   3.489  24.933  0.2470 -0.2381  0.0231
16424W        W59337  28.437  30.700  27.715  0.0746 -0.0103 -0.2561
16425W        W59338  31.322   0.022   2.245 -0.2971 -0.1654 -0.1415
16426W        W59339  26.333   0.625  25.325  0.0300  0.0262 -0.0730
16427W        W59340  10.190  22.408  18.015  0.1219  0.1018  0.1553
16428W        W59341  34.405  33.103  21.497  0.2573 -0.2501 -0.1416
16429W        W59342   4.873  29.240  26.410  0.0552 -0.0096 -0.3047
16430W        W59343   2.904   2.911  28.182 -0.2918  0.3002 -0.1682
16431W        W59344   6.526  28.645   7.369 -0.4129  0.0330  0.1612
16432W        W59345   4.857   1.141  10.006 -0.1124  0.2011  0.1301
16433W        W59346  23.737  29.928  25.733  0.4024 -0.2295 -0.0823
16434W        W59347   3.272  24.535  23.447  0.1701 -0.1254 -0.1134
16435W        W59348  32.245  22.235  28.623  0.1322 -0.0638 -0.0832
16436W        W59349   7.752  28.511  27.946 -0.0410 -0.1654  0.3020
16437W        W59350  30.042  12.524  14.938 -0.1422 -0.0184  0.3655
16438W        W59351   5.179  32.721  20.135 -0.2482 -0.1730 -0.0423
16439W        W59352   8.175  30.837  24.954 -0.0465 -0.1886  0.3110
16440W        W59353   6.545  33.155  19.261  0.4701  0.0485  0.1289
16441W        W59354  30.136  31.711  27.041 -0.0902 -0.2466 -0.1374
16442W        W59355  24.591  29.269  19.482  0.0123 -0.1006 -0.0405
16443W        W59356   2.993  25.317  20.601 -0.1255 -0.0792 -0.0751
16444W        W59357  27.564  33.177  28.485 -0.3058  0.2016  0.0425
16445W        W59358  34.409  12.577  14.544 -0.1078  0.0776 -0.0143
16446W        W59359  32.089  16.818  16.988 -0.1318  0.2655 -0.1731
16447W        W59360   0.076  26.290  17.599  0.0413  0.1154  0.0042
16448W        W59361  33.830  24.757  26.722 -0.0267 -0.1557  0.4645
16449W        W59362   0.924  22.570   4.740  0.6408  0.1001  0.2025
16450W        W59363  25.319  22.910  26.006 -0.1112  0.3135 -0.0724
16451W        W59364  11.322  21.621  21.639  0.1949  0.3066  0.0061
16452W        W59365  30.872   5.152   3.711 -0.1374 -0.3213  0.3779
16453W        W59366   2.588  20.675  28.279  0.0699 -0.1614 -0.1265
16454W        W59367  28.505  21.549  21.519  0.1517 -0.0888 -0.1131
16455W        W59368  34.171  24.919   4.883  0.2855 -0.0167 -0.0952
16456W        W59369   7.847  21.325   3.869  0.0650  0.0633 -0.2125
16457W        W59370   4.551  23.821  24.271  0.1363  0.1037  0.3739
16458W        W59371   3.207  23.909   0.898  0.3148 -0.1694 -0.3128
16459W        W59372  21.943  24.103   3.386  0.2724 -0.2434 -0.2653
16460W        W59373  32.862  31.177  27.332  0.1020  0.3119 -0.0041
16461W        W59374   0.401  30.732  18.288  0.2470  0.0499 -0.0455
16462W        W59375  11.940  27.833   1.273 -0.0352 -0.1695 -0.2677
16463W        W59376   3.541   2.867   2.064 -0.1251 -0.0145 -0.1374
16464W        W59377   4.344  16.540   6.055 -0.1582  0.0968 -0.0646
16465W        W59378  20.963  28.248  23.385  0.1601  0.0668 -0.4486
16466W        W59379   8.535  33.026  25.254  0.0133  0.0817 -0.1381
16467W        W59380   2.329  31.963  19.050  0.2317  0.1826  0.0439
16468W        W59381   3.140  28.343  18.445 -0.4078 -0.2702 -0.2684
16469W        W59382   1.687  28.823   2.506  0.0604 -0.2797 -0.2508
16470W        W59383  33.574  26.040  29.590 -0.1954  0.0726  0.0907
16471W        W59384  24.016  31.920  28.392 -0.1382  0.0699 -0.0506
16472W        W59385   8.505  19.937  19.686 -0.2045  0.0451  0.3288
16473W        W59386   3.191  29.580  28.614  0.0636  0.3302 -0.1855
16474W        W59387  34.452  22.165  19.815 -0.1019 -0.2306  0.0236
16475W        W59388   6.953  31.708  23.174 -0.3433 -0.2160 -0.1067
16476W        W59389   0.953  19.603  22.822  0.2997 -0.0035 -0.0371
16477W        W59390  33.733  30.812  23.815 -0.2031 -0.1120  0.0172
16478W        W59391  31.958  26.590  28.721  0.0227  0.2885 -0.3202
16479W        W59392   2.605  27.957  18.773  0.0723  0.0901  0.0171
16480W        W59393   0.846  25.952  29.764  0.0797  0.1096  0.2000
16481W        W59394   1.151  29.774   0.781 -0.0474 -0.1360 -0.0568
16482W        W59395  27.798  28.708  21.733 -0.5958 -0.1276  0.1449
16483W        W59396   3.149  18.355  15.452 -0.0761 -0.2997 -0.2113
16484W        W59397   2.470  27.704  28.573  0.1498 -0.2551 -0.0321
16485W        W59398  25.988  13.153  27.827 -0.1426  0.1841 -0.2818
16486W        W59399   5.870  18.798  13.126 -0.0337  0.0019 -0.0951
16487W        W59400  30.827  25.939  22.854  0.0279  0.0175 -0.0800
16488W        W59401  30.906  23.605  23.128 -0.2438 -0.0044  0.3040
16489W        W59402  29.786  13.240  20.453 -0.1806 -0.3162  0.0765
16490W        W59403   0.822  33.493   1.952  0.1372 -0.1807  0.0318
16491W        W59404  30.520  32.033  16.183  0.0338 -0.0092  0.1379
16492W        W59405   0.856  31.232  29.588 -0.0792 -0.2696 -0.0687
16493W        W59406  33.611  22.560  25.605  0.0313  0.0688  0.2712
16494W        W59407   6.457  27.548  16.886  0.2587  0.0013  0.0448
16495W        W59408   1.509  27.253  24.376 -0.1942  0.1931 -0.0469
16496W        W59409   4.044  13.657  19.910 -0.1080  0.0953 -0.2566
16497W        W59410  26.319  23.258   0.503  0.1050  0.0015 -0.0176
16498W        W59411   0.940  32.153  28.276 -0.1407 -0.0438  0.2015
16499W        W59412   8.477  21.364  21.655  0.1041 -0.1771  0.1784
16500W        W59413  16.673  16.173  13.019 -0.0661  0.1409  0.2690
16501W        W59414  15.743  21.027  21.417  0.0361  0.3261  0.0835
16502W        W59415   3.856  32.619  18.596 -0.1756  0.0359  0.0682
16503W        W59416   7.578  23.940  25.060 -0.2599 -0.0613  0.3177
16504W        W59417   6.635  28.395  22.330 -0.1064 -0.0683 -0.0016
16505W        W59418  29.864  28.123  26.469 -0.3266  0.0672 -0.0043
16506W        W59419  26.027  30.384   3.850  0.0613  0.1361  0.1624
16507W        W59420  29.908   5.322  17.981 -0.0129 -0.1772 -0.2389
16508W        W59421  18.199  28.045   3.713  0.0637 -0.0318 -0.1438
16509W        W59422  34.394  20.297  23.112 -0.0080  0.0509  0.0973
16510W        W59423  33.922  24.589  29.707  0.2193 -0.3818 -0.1330
16511W        W59424  14.402  26.128   4.076 -0.4051  0.2283 -0.1181
16512W        W59425  10.222   9.147  27.386  0.1098 -0.1423 -0.0221
16513W        W59426  11.536  25.643  26.693  0.3491  0.1763 -0.0892
16514W        W59427   2.908  21.318  21.113 -0.1208  0.2795  0.0377
16515W        W59428   5.942  31.877   0.149 -0.2101  0.0062  0.3315
16516W        W59429  31.803   0.881   3.461  0.0606  0.0271 -0.3634
16517W        W59430   4.200  14.476  26.695  0.1736 -0.1842  0.0152
16518W        W59431  18.363  26.549   2.768 -0.2060 -0.1528  0.1028
16519W        W59432  34.116  27.006  28.135  0.3106 -0.1136  0.0037
16520W        W59433   3.588  18.872  21.777 -0.0766  0.0517  0.2146
16521W        W59434  27.562  21.841  27.880 -0.2098 -0.0830 -0.1334
16522W        W59435  26.970  30.995  28.547 -0.2031 -0.2222  0.0931
16523W        W59436   6.780  16.677  14.119  0.0987  0.0396 -0.2404
16524W        W59437   7.952  20.462  21.620  0.3250  0.3236  0.1755
16525W        W59438  11.472  18.713  27.611 -0.1845  0.2402  0.1983
16526W        W59439  31.087  26.484  18.058  0.1859 -0.0888  0.0068
16527W        W59440   5.953  26.102  25.408 -0.1674 -0.1906 -0.0730
16528W        W59441   1.288   5.603  17.255 -0.0674 -0.1084 -0.1709
16529W        W59442   6.989  26.767   2.350 -0.2507  0.1841 -0.2120
16530W        W59443  33.591  30.702  28.452 -0.3113  0.0331 -0.0236
16531W        W59444  22.764  26.322  15.413  0.1399  0.1172  0.1400
16532W        W59445  29.097  20.505  17.332  0.1110 -0.0965 -0.0491
16533W        W59446   4.109   1.444   2.204  0.1671  0.1945 -0.0216
16534W        W59447   4.972  20.988  21.332  0.0815  0.1442 -0.1235
16535W        W59448  10.931  26.531   1.781  0.0716 -0.0729  0.1709
16536W        W59449  30.139  31.342  25.158 -0.1099 -0.1855  0.1205
16537W        W59450  33.846  24.182  24.487  0.0247  0.0116  0.3994
16538W        W59451  33.344  33.172  18.232 -0.2375  0.0150  0.0774
16539W        W59452   8.069  28.275  24.484  0.0848 -0.0134 -0.3047
16540W        W59453  31.984  33.356  24.258  0.1524  0.1311 -0.2747
16541W        W59454   5.804  21.187  27.486  0.0128 -0.0735  0.0162
16542W        W59455   0.885  20.729  24.308  0.0212 -0.2477  0.1297
16543W        W59456  26.668  16.986  18.886  0.0055 -0.0253 -0.0391
16544W        W59457   1.712  10.573  20.734  0.1513  0.0280 -0.0701
16545W        W59458   3.925  18.258  26.420  0.0242 -0.3737  0.1027
16546W        W59459   3.303  30.020  10.064 -0.1257  0.1986  0.0506
16547W        W59460   2.654  31.611  28.757  0.0759  0.2421  0.0397
16548W        W59461  29.658  20.648  29.719 -0.1292  0.1342 -0.3627
16549W        W59462  26.525  24.523  13.917 -0.0440 -0.1318 -0.1055
16550W        W59463  15.318  20.805   7.199 -0.1913  0.2181  0.1499
16551W        W59464   8.072  15.122  18.357 -0.0190 -0.1451  0.4195
16552W        W59465   2.416  17.010  18.467  0.1953  0.0187  0.2673
16553W        W59466   0.973  19.002  28.113  0.0159  0.0946  0.0071
16554W        W59467   4.614  23.229  14.484  0.0653 -0.0953 -0.2425
16555W        W59468   1.035  25.993  27.153 -0.0364  0.0569  0.3426
16556W        W59469  10.487  17.773  23.817 -0.2826 -0.2642  0.0309
16557W        W59470  27.692   0.661  24.024  0.2139 -0.0839 -0.3137
16558W        W59471   0.093  17.650  15.256 -0.2388  0.1116 -0.1771
16559W        W59472   4.954   0.963  21.057  0.1462 -0.1761 -0.0612
16560W        W59473  28.656  32.794   2.709 -0.0600  0.0305  0.1551
16561W        W59474   4.063   4.398  18.758 -0.1466 -0.2493  0.1372
16562W        W59475  25.008  25.726  24.179  0.1597  0.0242 -0.0296
16563W        W59476  31.069  29.036  25.758  0.2314  0.1568 -0.3191
16564W        W59477   5.766  29.648  20.223  0.4373 -0.0935 -0.0072
16565W        W59478   8.536  30.413  22.400 -0.1056  0.1805  0.0366
16566W        W59479   8.898  22.404  24.065  0.2677  0.0004  0.0466
16567W        W59480  27.827   1.780   2.069 -0.2003 -0.1796  0.2131
16568W        W59481  28.746  32.583  17.769 -0.0306 -0.0063  0.0640
16569W        W59482  25.709  16.637  23.326  0.4374 -0.1223  0.0372
16570W        W59483  12.066  28.078  15.808 -0.0185 -0.2792  0.1561
16571W        W59484  18.606  22.092  26.424  0.0653  0.1833  0.0547
16572W        W59485   6.662  24.814   1.722 -0.0060 -0.0138  0.3099
16573W        W59486   9.241  27.954  23.279 -0.1479  0.4808  0.1124
16574W        W59487  32.198  21.211   1.740  0.0757  0.0235 -0.0445
16575W        W59488  32.003  29.485  14.446 -0.2441  0.1766  0.3078
16576W        W59489   0.897  28.104  29.646  0.0571 -0.1387  0.0434
16577W        W59490  10.538  23.896  17.632  0.0408  0.1332 -0.1193
16578W        W59491  31.112  28.599  28.328 -0.0011  0.0969 -0.2242
16579W        W59492   1.874  22.943  25.035 -0.0099 -0.0025 -0.3056
16580W        W59493   1.733  32.547  16.260 -0.1508 -0.3112 -0.0859
16581W        W59494   0.716   1.858  24.119 -0.1426 -0.1379  0.1387
16582W        W59495   1.584  21.492  17.747  0.0269 -0.0143  0.1284
16583W        W59496   1.215   2.664  16.256  0.3460 -0.1549 -0.0663
16584W        W59497   2.184  27.292  16.219  0.1750  0.1964  0.0893
16585W        W59498  29.622  29.595  18.354 -0.0163  0.0328 -0.1167
16586W        W59499   1.909  19.168  23.238  0.2605 -0.1710 -0.0012
16587W        W59500  29.419  22.622   0.551  0.2049  0.0486  0.4013
16588W        W59501  33.921   0.425  23.590  0.3965  0.2126 -0.0242
16589W        W59502  34.040   0.256  22.503 -0.3009  0.3355 -0.0939
16590W        W59503  27.312  30.435  23.340 -0.3397 -0.0929  0.1693
16591W        W59504  29.411   0.709   5.818 -0.3791 -0.2461  0.4404
16592W        W59505  29.501  24.343  23.009 -0.0467 -0.1057  0.0170
16593W        W59506  31.328  32.288  22.502  0.1675 -0.0655 -0.1032
16594W        W59507   4.963  34.280  24.145 -0.0192  0.0284  0.1147
16595W        W59508   0.659  19.689  28.720  0.1865 -0.1912 -0.3399
16596W        W59509  29.417  26.527   1.436 -0.1350  0.2038 -0.1904
16597W        W59510   7.002  29.586  24.302 -0.0470 -0.0598  0.0724
16598W        W59511  26.692  29.963  27.839 -0.0840  0.0172 -0.1630
16599W        W59512   8.285  11.274   0.544 -0.1463  0.0472  0.1677
16600W        W59513  26.909  27.941  18.897  0.0548  0.4467  0.1895
16601W        W59514   2.894  25.064  16.360  0.1283  0.0636 -0.1229
16602W        W59515  12.704  22.492  19.382  0.1194  0.0105  0.1619
16603W        W59516  32.137   0.320   0.544 -0.1480  0.0266 -0.0325
16604W        W59517   4.395  26.743  23.709  0.4077 -0.0244  0.5000
16605W        W59518  34.050   7.697  25.182  0.3812  0.1939 -0.0804
16606W        W59519  21.212  29.033   1.581 -0.4255 -0.3043  0.1167
16607W        W59520  29.649  21.341  23.896  0.1364  0.0189 -0.1539
16608W        W59521  33.344  31.600   7.917 -0.3934  0.0414 -0.2671
16609W        W59522  33.870  30.469   1.784 -0.0293 -0.0484  0.1203
16610W        W59523  31.853  22.215  27.624 -0.1748  0.2956 -0.4090
16611W        W59524  24.989  23.403  21.870 -0.2248 -0.0033  0.1292
16612W        W59525   0.494  30.434  26.366 -0.3785 -0.0723  0.1624
16613W        W59526  25.723  26.495  25.178  0.0857  0.2073 -0.1182
16614W        W59527   3.921  18.096   2.331  0.0490  0.1651 -0.3645
16615W        W59528  30.261  28.315   5.120 -0.1664  0.3138  0.2338
16616W        W59529   6.119  33.368  28.227 -0.0559 -0.0001  0.0661
16617W        W59530  30.259  31.395  26.666  0.3284  0.2615  0.0026
16618W        W59531   2.087  19.521  26.055  0.2275  0.0474 -0.1464
16619W        W59532   0.478  20.300  23.304  0.0397 -0.0901 -0.1012
16620W        W59533  31.239  26.167   1.604 -0.1951 -0.2904  0.0017
16621W        W59534   3.887  20.434  27.203 -0.1289 -0.0732 -0.3789
16622W        W59535  25.735  21.587  20.688 -0.1960  0.0962 -0.1866
16623W        W59536   3.357  23.158  29.390  0.5000  0.0384  0.0429
16624W        W59537   5.673  23.227  15.932  0.0383  0.0965  0.0480
16625W        W59538   0.526  21.964  26.390  0.2586  0.2534  0.0744
16626W        W59539  30.232  21.225  18.849 -0.1921 -0.2876  0.0462
16627W        W59540   8.157  32.057  25.211 -0.1005  0.3106  0.1331
16628W        W59541   8.951  24.083  25.651 -0.0910 -0.0170 -0.2278
16629W        W59542  30.201  23.396  15.652 -0.1237  0.0618 -0.2119
16630W        W59543   0.033   8.007  20.489 -0.0358  0.2180  0.0485
16631W        W59544  30.853   1.351  25.737 -0.2883 -0.1696 -0.3633
16632W        W59545  33.615  15.047  17.859 -0.0009  0.2151 -0.0022
16633W        W59546   3.137   1.293  22.887 -0.0457  0.0441  0.0395
16634W        W59547  28.688  25.624  19.967  0.0532 -0.1127  0.1966
16635W        W59548  21.820  16.572  21.686 -0.0374  0.0553  0.0379
16636W        W59549  13.993  28.211  21.573  0.1128  0.3850  0.1739
16637W        W59550   2.581  26.584  28.932  0.0662  0.3040  0.1894
16638W        W59551  34.174  33.503  29.434  0.2030  0.2306 -0.0756
16639W        W59552  28.930  31.759  15.830 -0.0201 -0.2703  0.0921
16640W        W59553   1.482  30.886  20.579  0.0270 -0.0445 -0.2599
16641W        W59554  33.599  32.696  24.250  0.0958  0.1132  0.1857
16642W        W59555  31.717  31.950  20.419 -0.2266 -0.2506  0.0048
16643W        W59556  29.487  29.684  21.344 -0.2789  0.0489 -0.1632
16644W        W59557  27.488  20.603  21.279 -0.1872 -0.0376 -0.3802
16645W        W59558   6.693  20.846   3.024 -0.3162 -0.1697  0.3495
16646W        W59559   2.092  23.500  18.280  0.0794 -0.1865 -0.0650
16647W        W59560   4.732  30.158  17.886  0.2684 -0.1732  0.2558
16648W        W59561   2.775  28.736  19.311 -0.2146  0.0509  0.0847
16649W        W59562   3.334  28.162  20.616 -0.5806 -0.0616  0.2881
16650W        W59563   5.375  29.581  24.783  0.2370  0.0769 -0.2833
16651W        W59564  34.034  22.830   2.616  0.0043 -0.3173 -0.0434
16652W        W59565   0.208  28.795  19.872  0.0232 -0.0150  0.3206
16653W        W59566   1.671  25.864   2.646 -0.0003  0.1870 -0.0705
16654W        W59567  30.136  27.670  28.916  0.1081  0.0102 -0.0403
16655W        W59568   2.850   3.747  29.447  0.1613  0.0812  0.1797
16656W        W59569  29.468  25.817  23.379 -0.1289 -0.1373 -0.1840
16657W        W59570   9.784  19.608  24.772  0.1323 -0.1600 -0.3840
16658W        W59571   2.315  19.224  29.366  0.1779 -0.0487 -0.1821
16659W        W59572   0.786  29.253  20.627  0.1507 -0.2916 -0.1393
16660W        W59573  29.896  24.220  15.732 -0.0563 -0.1001 -0.1467
16661W        W59574  26.269  17.644  25.117 -0.0354  0.1108 -0.1166
16662W        W59575  34.112  31.870  18.328 -0.1775 -0.2271  0.1376
16663W        W59576   1.085  24.810  18.143  0.0591 -0.0865 -0.0073
16664W        W59577  22.921   9.989  22.067  0.1120  0.2691 -0.0794
16665W        W59578  29.103  28.335  27.915  0.2226 -0.1496  0.1823
16666W        W59579  13.530  24.175  25.524 -0.4073  0.0642 -0.2099
16667W        W59580  11.486  26.499  17.175  0.1544 -0.1402 -0.1320
16668W        W59581   0.097  25.996  23.917 -0.1838  0.0703 -0.0135
16669W        W59582  20.059  29.035   0.623 -0.3901  0.2944 -0.2283
16670W        W59583  32.136  16.365  19.103 -0.1403 -0.3588  0.1811
16671W        W59584  34.434  18.992  14.954  0.0602  0.3897  0.4354
16672W        W59585  28.549  19.772  24.260 -0.1114 -0.0823 -0.4726
16673W        W59586  33.956  19.781  25.032 -0.1238  0.1461  0.0251
16674W        W59587  18.083  22.204  23.511  0.0304  0.2827  0.1540
16675W        W59588  33.135  25.840  22.645  0.3611  0.0032  0.2148
16676W        W59589   0.098  20.971  25.643 -0.0278 -0.0426  0.1491
16677W        W59590  12.089  23.780  26.135  0.0803  0.0643 -0.3088
16678W        W59591  32.542   0.901   4.170 -0.0936 -0.1225  0.2122
16679W        W59592   1.857  27.454  24.786  0.0839  0.2097  0.1230
16680W        W59593   7.449  19.605  13.864 -0.0038 -0.3377  0.1184
16681W        W59594   7.395   9.409  28.500  0.0555 -0.0738  0.2580
16682W        W59595   6.397   0.426  24.148 -0.2257 -0.3741  0.0728
16683W        W59596   4.957  13.302  27.630 -0.2438 -0.1009 -0.1045
16684W        W59597   8.849  29.612  27.508 -0.0928 -0.2158  0.2365
16685W        W59598   9.676  25.297  19.354 -0.1438 -0.1639 -0.1914
16686W        W59599  31.420  31.552   8.139 -0.1301 -0.1496  0.1325
16687W        W59600  15.249  26.593  28.816  0.0644  0.3213 -0.1415
16688W        W59601   3.464   0.137  28.106  0.0852  0.2798 -0.3573
16689W        W59602  34.202  20.237  19.278  0.0961 -0.2062  0.0730
16690W        W59603  31.278  26.489  24.551 -0.2244 -0.0415 -0.3518
16691W        W59604   6.053   1.966  22.465  0.1677  0.0580 -0.0880
16692W        W59605   1.497  15.979   3.121 -0.1657 -0.1750 -0.0930
16693W        W59606  33.461  17.353  13.690  0.1552  0.0073 -0.2808
16694W        W59607   2.461  32.322  21.240  0.0515  0.1954  0.0984
16695W        W59608  26.382  24.862  28.969  0.0452  0.1780 -0.1011
16696W        W59609   2.289  34.108  26.709 -0.2313  0.0739  0.1043
16697W        W59610  29.885  31.005  23.358 -0.1523  0.1204 -0.0963
16698W        W59611  33.345  19.017   1.930 -0.1833 -0.0297 -0.0856
16699W        W59612   7.272  28.841  22.721  0.0869  0.1872  0.0947
16700W        W59613  30.506  29.350   2.400  0.0518 -0.0803 -0.0854
16701W        W59614   4.602  17.740  24.472 -0.1395  0.1178 -0.0221
16702W        W59615  21.930  31.705  28.503  0.0693 -0.2831  0.0665
16703W        W59616  32.910  26.719   9.415 -0.0342  0.2180  0.0338
16704W        W59617   3.284  25.668  25.342 -0.3003 -0.1179 -0.0420
16705W        W59618  27.533  28.976  27.306 -0.4478  0.0124 -0.1427
16706W        W59619  10.241   2.754  22.441 -0.1326  0.1097 -0.0768
16707W        W59620  32.622  23.549  27.454  0.1406 -0.2551 -0.3905
16708W        W59621   4.780  16.888  19.938  0.1685  0.1167 -0.0742
16709W        W59622   0.626  15.976   1.426 -0.1722  0.1151 -0.2421
16710W        W59623   4.749  14.238  27.824  0.0704 -0.0480  0.3351
16711W        W59624   1.699  32.754  23.515 -0.1148  0.4231  0.0473
16712W        W59625   1.160  28.292  23.272 -0.0054  0.0855 -0.1443
16713W        W59626   6.766  30.049   9.629  0.2628  0.3551 -0.0927
16714W        W59627  24.523  15.120  21.769 -0.0337  0.0553 -0.2470
16715W        W59628  27.269   1.052  27.961 -0.1063  0.2153 -0.2337
16716W        W59629  25.943  33.667  17.105 -0.2376  0.1597 -0.1377
16717W        W59630   5.440  22.826  25.024  0.3508  0.2319  0.2444
16718W        W59631  28.974  22.601  22.749 -0.0399 -0.3815 -0.0370
16719W        W59632   7.057  24.635  23.846  0.1216  0.2426 -0.1444
16720W        W59633   2.264  23.974  17.076  0.1497  0.1514 -0.0453
16721W        W59634   7.821   6.933   2.147 -0.3183 -0.1672 -0.0082
16722W        W59635   4.986  18.439   0.722 -0.2735 -0.0279  0.0591
16723W        W59636  12.809  20.259  12.955 -0.4258 -0.0342  0.1536
16724W        W59637  27.823  23.380   0.885 -0.0051 -0.0733 -0.0643
16725W        W59638  33.515  18.712  22.043  0.2781 -0.0444  0.1225
16726W        W59639   6.519  25.996  28.315  0.0344 -0.2688 -0.2271
16727W        W59640  19.230  18.340   6.240 -0.0443 -0.0407 -0.3138
16728W        W59641   1.969  25.965  22.793  0.1649 -0.2959 -0.0647
16729W        W59642   0.961  25.209  20.487 -0.0020 -0.0498  0.0211
16730W        W59643   5.514  26.384  22.479 -0.0534  0.3180  0.0233
16731W        W59644   3.770  27.911  27.831  0.3550 -0.3348 -0.1579
16732W        W59645   1.407  18.047  18.705 -0.1502  0.1892 -0.1029
16733W        W59646  25.653   7.332   0.337 -0.0954  0.0645  0.2286
16734W        W59647  33.474  19.744  27.818  0.0856 -0.0006  0.1785
16735W        W59648   0.869  29.378  21.133 -0.0171 -0.3591  0.2379
16736W        W59649  29.909   5.929   2.774 -0.1225  0.0503 -0.2608
16737W        W59650  34.033   8.279  21.406  0.3380 -0.0234 -0.0383
16738W        W59651  19.991  27.218  29.661  0.1247 -0.4035 -0.0647
16739W        W59652  29.116  27.134  28.739  0.1769 -0.2957 -0.0005
16740W        W59653  33.665  23.677  27.301  0.1445  0.1205  0.0504
16741W        W59654  29.433   2.314  26.214 -0.1418 -0.2331 -0.1468
16742W        W59655  31.822   0.233  16.698 -0.3665  0.2585  0.0966
16743W        W59656  17.685  15.316  14.201  0.2621  0.2814  0.0099
16744W        W59657  16.779  27.979  23.027  0.2697 -0.0966 -0.5119
16745W        W59658  34.407  21.066  23.097  0.1284 -0.1699  0.0913
16746W        W59659  34.266  20.120   2.891 -0.1252 -0.2020 -0.1295
16747W        W59660  32.576   2.387  23.756  0.0501  0.0469 -0.1667
16748W        W59661  31.853  29.222  24.848  0.0804  0.2330 -0.0426
16749W        W59662   4.549  23.242  26.962  0.2879  0.0928  0.2711
16750W        W59663  31.563  26.968  23.158  0.0578  0.0101  0.0521
16751W        W59664  11.731  28.931  21.467 -0.3435 -0.2129 -0.0151
16752W        W59665  33.943  30.529   3.272  0.0877  0.0780  0.2094
16753W        W59666  29.292  21.738  22.494  0.1463  0.0618  0.0334
16754W        W59667  28.713   2.628  17.179 -0.0022 -0.3037  0.0923
16755W        W59668   6.050   2.360  19.019  0.2253  0.4000  0.0490
16756W        W59669   1.984  32.586  21.300  0.1304 -0.0407 -0.2020
16757W        W59670   0.807  15.757  21.686  0.0245 -0.3461 -0.0637
16758W        W59671  32.767  20.072  15.833 -0.0640  0.0377 -0.1577
16759W        W59672  29.343   3.917   0.710  0.2020 -0.1270 -0.0108
16760W        W59673  28.435  22.134  20.124 -0.1857  0.0248  0.1353
16761W        W59674  15.748   8.505  21.892 -0.0808  0.2652  0.2737
16762W        W59675  25.531  25.439  26.706  0.0676 -0.3988  0.5007
16763W        W59676  31.503  29.800  29.173 -0.1654  0.3022  0.2516
16764W        W59677  34.451  25.140  23.463 -0.1302 -0.4101 -0.0637
16765W        W59678   5.515  20.213  21.284  0.0334  0.0360 -0.5340
16766W        W59679   6.422   1.828   2.941  0.0303 -0.2526 -0.1099
16767W        W59680  30.542   0.882  17.628  0.2120 -0.1038  0.2004
16768W        W59681  26.664  21.352   0.472 -0.4308 -0.1750 -0.0375
16769W        W59682   9.002  16.182   2.446  0.0790 -0.2531  0.0026
16770W        W59683  25.908  19.184   0.561  0.1383  0.0650  0.0162
16771W        W59684  23.041  26.860   0.556 -0.0281  0.1717 -0.0243
16772W        W59685  32.212   1.607  22.639 -0.0559 -0.2257  0.0968
16773W        W59686  31.458  23.537  19.329 -0.2533  0.0627 -0.0851
16774W        W59687   1.028  33.800   2.406 -0.1633 -0.2081 -0.1125
16775W        W59688  28.770   3.226  23.999 -0.1038  0.1791 -0.0837
16776W        W59689  28.860  33.589  26.992 -0.1203  0.2183  0.3582
16777W        W59690  31.498  27.269  18.786  0.2413  0.2669 -0.0589
16778W        W59691  29.521  26.916  18.148 -0.0018  0.0871 -0.1328
16779W        W59692  30.431  22.824  29.529  0.1132  0.1056  0.3344
16780W        W59693   1.799   9.236  24.113  0.1643 -0.1076  0.0415
16781W        W59694  26.737  21.873  25.313  0.2134 -0.1962 -0.1222
16782W        W59695   2.359  17.022  19.722 -0.0648  0.1052  0.4084
16783W        W59696  32.204  29.912  24.107 -0.1019  0.2416  0.2414
16784W        W59697  33.553  25.023   2.279  0.0335 -0.3021  0.1717
16785W        W59698   2.045  33.280  21.714 -0.0051  0.1437  0.1348
16786W        W59699   0.155  25.601   1.858  0.2157 -0.0024  0.5413
16787W        W59700   4.162  27.923  23.266  0.4448 -0.0430 -0.2616
16788W        W59701  34.011   0.010  19.161 -0.2575  0.0387  0.0709
16789W        W59702   2.492  21.430  28.050 -0.0858  0.0407 -0.2226
16790W        W59703  29.245  34.263  25.287 -0.0050 -0.0716 -0.2945
16791W        W59704  13.001  14.905  19.638 -0.2282  0.0596 -0.0853
16792W        W59705   7.106  31.601  17.669 -0.0399 -0.1028  0.1405
16793W        W59706  30.130  32.525  18.330  0.0502  0.1405  0.1436
16794W        W59707  29.097  27.260  25.534  0.0669 -0.0693 -0.1025
16795W        W59708   2.347  15.194  27.420  0.0139 -0.2286  0.2224
16796W        W59709  29.105  22.080   2.286 -0.1545  0.1067 -0.1068
16797W        W59710  31.731  18.789  25.109 -0.1943  0.2874  0.0916
16798W        W59711  31.610  17.681  21.605 -0.2381 -0.1163 -0.2613
16799W        W59712   0.700  29.251  17.304 -0.1714  0.2817  0.0449
16800W        W59713   4.422  19.506  15.724  0.0200 -0.2932 -0.0910
16801W        W59714  32.394  27.768  29.292  0.0311  0.2585  0.1035
16802W        W59715  33.124   4.057  17.697  0.2095 -0.2007 -0.0500
16803W        W59716  28.645  30.587   2.544 -0.4491 -0.1012 -0.1163
16804W        W59717   9.908  30.436   4.243 -0.0292  0.0933 -0.0559
16805W        W59718  31.596   0.421  27.298 -0.0155 -0.1493 -0.3852
16806W        W59719  26.887  28.967  17.372  0.1109  0.0180 -0.0972
16807W        W59720  11.106  15.149  22.624 -0.2983 -0.0956  0.1114
16808W        W59721  32.664  28.871  25.245 -0.1825 -0.0130  0.0631
16809W        W59722  31.192  27.782  16.450 -0.0046  0.1110 -0.0222
16810W        W59723  18.209  25.147  26.112 -0.0652  0.0780 -0.0132
16811W        W59724   2.272  22.601  22.373  0.1895 -0.1525  0.0139
16812W        W59725  15.881  24.220  21.952  0.0578  0.1145 -0.0860
16813W        W59726   1.968  30.273  22.580  0.1155  0.3068  0.0419
16814W        W59727   1.639   0.858  23.097  0.4385  0.2223 -0.0353
16815W        W59728  26.693  26.935  13.639 -0.1396 -0.2742 -0.4535
16816W        W59729  31.583  19.953  24.653  0.0344 -0.3335 -0.1488
16817W        W59730  31.333  29.299   6.458  0.0843  0.2349  0.2540
16818W        W59731  30.648   0.052  24.165  0.1425 -0.1881 -0.2171
16819W        W59732  24.193  31.729  22.710  0.0769  0.0517  0.4072
16820W        W59733   1.780  27.042  25.923  0.1361 -0.2401 -0.0799
16821W        W59734   3.188  22.944  24.530 -0.0205  0.0809  0.0890
16822W        W59735   7.197  14.396  18.418 -0.0782 -0.0058 -0.0384
16823W        W59736  22.926  30.419  20.243  0.2722  0.0311 -0.2092
16824W        W59737   9.452  19.403  25.107  0.1395  0.3869  0.1176
16825W        W59738  31.886  27.985  13.757 -0.1649  0.1303  0.1889
16826W        W59739   3.078  19.567  29.441 -0.2486 -0.0869 -0.2162
16827W        W59740  24.338  28.996  27.123 -0.0471 -0.0942  0.1823
16828W        W59741   4.501  34.089  25.052  0.3423  0.3261 -0.0832
16829W        W59742   0.052  25.485  21.266 -0.2965 -0.0211 -0.0608
16830W        W59743  31.551  31.419  27.603  0.3791 -0.0127  0.0572
16831W        W59744  29.939  26.591  27.780  0.2728 -0.0389 -0.0919
16832W        W59745  33.978  34.456  25.302  0.2069  0.0431  0.0421
16833W        W59746  12.074   4.624  26.789 -0.0096  0.0234 -0.5247
16834W        W59747  34.348  22.567   0.730 -0.0386  0.1255  0.1016
16835W        W59748   0.224  25.230   1.012 -0.2132  0.2302 -0.1278
16836W        W59749  33.152  33.984   7.551 -0.1599  0.2136 -0.2539
16837W        W59750   0.607  33.458   2.453  0.1543  0.0609  0.2094
16838W        W59751  32.815  32.672  24.794 -0.0963  0.1347  0.2633
16839W        W59752  29.453  27.101   5.581  0.0349 -0.2127 -0.3256
16840W        W59753  34.217  24.774   7.069  0.0290 -0.0174 -0.0532
16841W        W59754  11.743  18.610  19.371 -0.2908  0.0072  0.0110
16842W        W59755  19.344  30.258  25.001  0.0408  0.0980  0.2573
16843W        W59756   3.455  21.866  29.114  0.0775  0.3612 -0.2620
16844W        W59757  30.721  28.266  18.078 -0.1904 -0.1150  0.1327
16845W        W59758  32.067  30.207  22.656  0.1342 -0.1652  0.0773
16846W        W59759   2.876  29.762   7.237  0.3678  0.3408 -0.0215
16847W        W59760  32.479  23.776  23.995 -0.0649 -0.1602  0.1320
16848W        W59761   0.955  21.759   2.473  0.1010 -0.1808  0.0707
16849W        W59762   5.570  21.242   4.495  0.2314 -0.1626  0.3515
16850W        W59763  27.886  23.960  22.691 -0.2013 -0.0967 -0.1581
16851W        W59764  34.258  30.926   3.334  0.0508  0.1352 -0.1326
16852W        W59765   0.528  25.749   6.252 -0.0610 -0.0176 -0.2410
16853W        W59766   7.065  29.551  16.905  0.2994  0.0357 -0.0651
16854W        W59767   3.406  28.052   6.416 -0.1123  0.0387  0.1397
16855W        W59768   7.687  23.935   1.341  0.0583 -0.2634  0.0424
16856W        W59769  26.441  27.847  29.285 -0.2222 -0.1160 -0.1255
16857W        W59770  22.896  22.031  24.272 -0.1223  0.3233  0.0513
16858W        W59771  11.673  30.745  28.986  0.1776  0.3682  0.4510
16859W        W59772   3.205   9.635  19.176  0.2893  0.1408 -0.1131
16860W        W59773  30.182  31.004   0.567  0.0044 -0.0981 -0.1855
16861W        W59774  33.473  30.235  26.448  0.0729 -0.1518  0.0775
16862W        W59775  31.369  30.397  29.069  0.0002  0.1613 -0.3292
16863W        W59776  33.818  21.680   3.476  0.1012  0.0418  0.0333
16864W        W59777  33.933  34.404  23.573 -0.0199  0.1592 -0.0346
16865W        W59778   8.594  29.848   3.183 -0.0404  0.2209  0.3306
16866W        W59779  27.211  25.067  28.366 -0.0995 -0.1920  0.2565
16867W        W59780  27.956  25.360  28.292 -0.1356  0.4372  0.1926
16868W        W59781  19.052   5.356  22.856  0.0044  0.0198  0.1695
16869W        W59782   4.275  23.790   1.903  0.2077  0.1130 -0.1981
16870W        W59783  13.808  12.553  29.099 -0.0290 -0.0580 -0.0834
16871W        W59784   9.995  22.928  26.594  0.1789 -0.2034 -0.2525
16872W        W59785   4.133  16.528  27.590 -0.2007  0.4052  0.1544
16873W        W59786  11.362  21.334  20.139 -0.0665  0.1691  0.3267
16874W        W59787   7.611  18.417  19.107  0.1046 -0.1234 -0.3470
16875W        W59788   4.098  11.373  24.211 -0.1677  0.1853 -0.1811
16876W        W59789   0.978  23.872  22.927 -0.0365  0.5499 -0.0059
16877W        W59790  10.922  12.807  27.681 -0.1945 -0.3298 -0.2236
16878W        W59791   0.068  26.591   7.800 -0.0583 -0.1435 -0.2476
16879W        W59792  34.102  22.756  27.429 -0.3271  0.2683  0.3803
16880W        W59793   1.820  29.055  27.573  0.1845  0.0722  0.1451
16881W        W59794  30.237  30.891  25.800 -0.2184  0.4404 -0.0611
16882W        W59795  27.512  26.241   5.358 -0.0615 -0.1531 -0.1113
16883W        W59796   1.821  21.698  26.113 -0.2610  0.1116  0.1724
16884W        W59797  34.030  16.560  22.926  0.1583 -0.0510  0.0009
16885W        W59798   6.608  13.286  27.549  0.1508 -0.1268 -0.0556
16886W        W59799   4.972  27.899  23.694 -0.2331 -0.0842 -0.0190
16887W        W59800   3.148  18.668   1.124  0.1177  0.3442  0.2017
16888W        W59801  32.681  28.603  29.380  0.1187 -0.0870  0.1500
16889W        W59802   1.147  10.814  26.553 -0.0457  0.2392  0.0221
16890W        W59803  31.088   0.790  26.475 -0.0162 -0.4658  0.3397
16891W        W59804   8.260  13.815  26.926 -0.2020  0.0609 -0.0511
16892W        W59805  34.395  30.166  27.636  0.0355  0.0490  0.2099
16893W        W59806   2.772  30.264  16.366 -0.1206  0.0783 -0.0588
16894W        W59807   5.266  28.767   3.643 -0.0772 -0.3054  0.0643
16895W        W59808  27.174  28.676  22.508  0.4345  0.1838  0.0588
16896W        W59809   4.374  12.045  29.056 -0.1009 -0.0350 -0.0857
16897W        W59810   6.480  18.256  26.266  0.0350 -0.0706  0.1223
16898W        W59811  33.054  23.730  18.363 -0.0048 -0.0167 -0.2750
16899W        W59812   1.525  26.733  22.805  0.1418  0.0220  0.2564
16900W        W59813  28.921  27.785  26.246 -0.0956  0.1413 -0.0354
16901W        W59814   7.704  20.217  20.092  0.0505 -0.0644 -0.0422
16902W        W59815   9.739  32.376   5.976 -0.0743 -0.0551  0.0846
16903W        W59816   1.784  16.679   8.557  0.0598  0.3303 -0.1004
16904W        W59817   5.800  24.720   9.747  0.2396 -0.3349  0.1395
16905W        W59818  33.537  22.278  18.951  0.0837  0.1940  0.0137
16906W        W59819  31.701  28.367   7.174 -0.1372 -0.1468 -0.0457
16907W        W59820  32.303  20.104  18.806 -0.1110  0.1528  0.0307
16908W        W59821  25.620  23.153  20.948 -0.5226  0.0584 -0.2498
16909W        W59822   0.563   9.886  24.651 -0.0418  0.0550  0.0983
16910W        W59823   1.005  32.459   2.948 -0.0008  0.1255 -0.1015
16911W        W59824  33.087  15.546  18.466 -0.0770  0.1513  0.0767
16912W        W59825  32.584  15.477  22.366  0.1054  0.4180 -0.2029
16913W        W59826   5.802  31.251   2.383 -0.0437 -0.0120 -0.0191
16914W        W59827   6.729  28.877   6.202  0.0167  0.0643 -0.2194
16915W        W59828   4.654  17.726   7.870 -0.1703  0.1048  0.3317
16916W        W59829  17.065   6.588   2.163 -0.0733 -0.3351  0.0306
16917W        W59830  34.052  20.775  16.106  0.0810  0.0128  0.1550
16918W        W59831  20.558  19.823   0.723 -0.0626  0.2042 -0.2823
16919W        W59832  32.802  27.754  29.769  0.0507  0.0494 -0.0310
16920W        W59833   0.237  30.127  28.501  0.3823  0.1850 -0.2945
16921W        W59834  29.098  33.855   6.243 -0.1340 -0.0148  0.0238
16922W        W59835  29.828  17.413   7.034  0.2346  0.2893 -0.1589
16923W        W59836   2.117   9.999   5.158 -0.2533  0.2550 -0.1619
16924W        W59837   4.263  26.782  22.666  0.1473  0.0549 -0.1726
16925W        W59838  13.428  31.541  26.983 -0.2584  0.0206 -0.0020
16926W        W59839   0.879  29.019   7.780  0.3145 -0.0117  0.1111
16927W        W59840  31.722  24.721  25.048 -0.3641 -0.1114 -0.2181
16928W        W59841  32.931  33.819   1.772  0.0853  0.4699 -0.1058
16929W        W59842   3.955  14.922  19.011  0.0668  0.2044 -0.1399
16930W        W59843   2.309  29.595   2.357 -0.2193  0.0278 -0.1151
16931W        W59844   7.391  24.960   2.810 -0.1638  0.0638  0.0854
16932W        W59845   3.968  26.565  26.725 -0.3123 -0.1970  0.1279
16933W        W59846   4.711  25.246   5.454  0.0738 -0.1295 -0.0276
16934W        W59847  24.795  30.235  27.787  0.1232  0.0125  0.0602
16935W        W59848   3.767  29.085  23.135  0.1071  0.1770 -0.0489
16936W        W59849  33.098  25.011  24.861  0.1964  0.3356  0.0628
16937W        W59850  33.039  27.949   2.654  0.2144  0.0123 -0.1845
16938W        W59851   1.049  18.037   0.798  0.3726  0.1492  0.1674
16939W        W59852   7.219  15.640   0.899 -0.0648 -0.5257 -0.0123
16940W        W59853  10.641  32.840  23.477 -0.5677  0.0936  0.0627
16941W        W59854  10.688  25.867   0.199 -0.0214 -0.4019  0.2705
16942W        W59855  33.177   1.034  29.391 -0.2542 -0.1967 -0.2368
16943W        W59856  22.587  19.711  26.769  0.4420 -0.2014  0.1301
16944W        W59857  25.489  30.542  25.703  0.1643  0.0633 -0.0735
16945W        W59858   3.818  28.720  20.791  0.1089  0.0139 -0.3509
16946W        W59859   5.407  28.133  20.406 -0.2110 -0.0746 -0.0060
16947W        W59860   2.180  26.497   8.755  0.1526 -0.2109 -0.4099
16948W        W59861   9.938  33.601   6.682 -0.1271 -0.1216 -0.1196
16949W        W59862  31.927  20.460  18.882  0.0506 -0.1951 -0.0702
16950W        W59863   8.209  24.358  28.367 -0.0739 -0.4103 -0.0010
16951W        W59864   7.675  30.225  20.341 -0.0733  0.1141  0.3341
16952W        W59865   2.680  25.114  16.823  0.2673  0.0472 -0.1639
16953W        W59866  10.358  21.429   0.418  0.1443 -0.0551  0.1158
16954W        W59867  26.470  26.435  24.648 -0.0745 -0.1306 -0.0975
16955W        W59868   1.869  16.253  20.391  0.3320 -0.0765 -0.0614
16956W        W59869  21.657  25.817  27.126  0.0758  0.0170  0.2338
16957W        W59870   3.523  12.608  26.801 -0.2291 -0.1645  0.1047
16958W        W59871  16.581  19.847   3.016 -0.0779 -0.1684 -0.0673
16959W        W59872   3.936  25.146  10.184 -0.1846  0.2080 -0.1107
16960W        W59873   1.580  21.841  29.088 -0.0326 -0.0582 -0.2059
16961W        W59874   5.374   8.049   2.521  0.1459 -0.0838  0.3435
16962W        W59875  29.909  33.011   3.482  0.1102  0.3336 -0.2758
16963W        W59876  28.907  11.528  29.722  0.2907  0.2824 -0.2959
16964W        W59877   6.126  29.936  22.670 -0.0004  0.1474 -0.4003
16965W        W59878   4.922  21.422  22.413  0.2467  0.1989 -0.1868
16966W        W59879   8.210  25.050  15.117 -0.3668 -0.3732 -0.0790
16967W        W59880   2.199  20.513  19.814 -0.0495  0.1556 -0.3123
16968W        W59881   3.875  29.084  21.386 -0.0420  0.1345  0.0029
16969W        W59882  26.747  23.839   8.090  0.0155  0.1109 -0.1255
16970W        W59883   2.475  12.980  27.231  0.1757 -0.2186 -0.1134
16971W        W59884   2.707  19.394  29.663  0.3074  0.1592  0.2114
16972W        W59885   5.096  27.354   0.590  0.2163 -0.2614 -0.3127
16973W        W59886  29.456  32.096   1.512  0.0267  0.0726 -0.1463
16974W        W59887   9.221   1.162  22.417  0.1957 -0.1400  0.2945
16975W        W59888  30.190  21.509  20.729  0.4552 -0.0107 -0.1616
16976W        W59889   2.839  28.050  23.767 -0.0502  0.0189  0.2132
16977W        W59890   4.725  14.219   1.259  0.1736  0.0735 -0.3591
16978W        W59891  34.430  30.821  22.303 -0.0785  0.1407  0.2219
16979W        W59892  33.440  26.084   9.414 -0.0502  0.2247  0.4932
16980W        W59893  31.205  21.416  21.509  0.2131  0.1023  0.0073
16981W        W59894   3.695  19.816   1.353  0.3338 -0.0864 -0.1350
16982W        W59895  32.770  26.810  25.594  0.1537  0.1753  0.1732
16983W        W59896   1.977  23.951  19.120 -0.0030  0.0044  0.2385
16984W        W59897   4.557  20.879  28.813 -0.0656 -0.1005 -0.3351
16985W        W59898   3.094  22.473  20.722 -0.1362 -0.1053  0.2555
16986W        W59899  32.005  29.470   6.668  0.3454 -0.0579 -0.1051
16987W        W59900  28.697  27.139   4.314 -0.3022  0.0308 -0.0673
16988W        W59901  11.080  22.589  22.444  0.2629 -0.2272 -0.0355
16989W        W59902  30.981  34.144  27.632 -0.2085 -0.0684  0.2635
16990W        W59903   9.618  25.734  19.170  0.0889  0.4133 -0.3414
16991W        W59904  24.216  26.790  22.797  0.1512  0.4068  0.0391
16992W        W59905  30.322  27.882   1.489  0.4516  0.1729  0.1702
16993W        W59906   0.886  32.847   3.251  0.0495 -0.0945  0.0482
16994W        W59907  11.242   0.912  28.157 -0.0231  0.0585  0.2156
16995W        W59908   1.245  21.520  19.224 -0.0016  0.0902 -0.0649
16996W        W59909   6.740  24.510   7.007  0.1243  0.2285  0.0105
16997W        W59910   0.645  23.553  25.257 -0.0847  0.1404 -0.1632
16998W        W59911   2.360   1.739   5.435 -0.0655 -0.1580 -0.1023
16999W        W59912  30.831  17.149   0.618 -0.0411 -0.0944 -0.1982
17000W        W59913  10.897  22.906  14.907  0.1712  0.0169 -0.0177
17001W        W59914   8.221  32.207  26.684  0.2016 -0.1327  0.2010
17002W        W59915   9.517  33.632  27.691  0.3592 -0.0482  0.1632
17003W        W59916  15.732  17.485  23.078 -0.1491  0.5602 -0.1467
17004W        W59917   8.011  12.307  27.716 -0.0172  0.1753  0.1238
17005W        W59918  29.967  20.961   6.956  0.1888 -0.0340  0.2008
17006W        W59919   4.324  17.190   1.918  0.0935 -0.0902  0.3033
17007W        W59920   2.321  33.353   6.145  0.6165  0.1298 -0.1896
17008W        W59921   9.484  30.617  27.190  0.0473 -0.1902 -0.2194
17009W        W59922  31.204  31.753  20.437 -0.1872  0.3048 -0.1403
17010W        W59923  30.959  26.472   4.003 -0.0863 -0.1830 -0.2023
17011W        W59924  33.088   3.948  17.147 -0.1979 -0.2306 -0.2218
17012W        W59925  33.334  24.843   4.124  0.1910  0.0458 -0.0608
17013W        W59926  33.356  27.702  24.616 -0.1533  0.2898  0.0165
17014W        W59927  22.006  25.175  23.518  0.3305  0.0809  0.1409
17015W        W59928   6.493  23.140  26.821 -0.3799  0.0284 -0.1870
17016W        W59929   5.463  20.353  20.019 -0.0939  0.1317  0.1934
17017W        W59930  27.671  33.169   2.817  0.4171 -0.0763 -0.0339
17018W        W59931   1.993   7.602  18.255 -0.0535  0.0090  0.0977
17019W        W59932   0.909  30.236  20.449  0.1838  0.1662  0.1194
17020W        W59933   8.190  26.416  24.512  0.1251 -0.2168  0.0451
17021W        W59934  27.503   3.251  23.578 -0.0186  0.1995  0.0452
17022W        W59935   0.257  21.444  28.925 -0.3846  0.0423  0.0286
17023W        W59936   6.311  16.524  23.323 -0.0181 -0.2395 -0.0627
17024W        W59937  28.460  30.119   4.008  0.2076  0.1197  0.1065
17025W        W59938   2.031  26.612   4.915 -0.1541  0.0430 -0.0518
17026W        W59939  33.616  20.380   1.486 -0.4206  0.1313  0.3649
17027W        W59940   0.227   2.219  20.988 -0.0600 -0.0336  0.0687
17028W        W59941  32.733  15.092  26.411 -0.0733  0.0676  0.0531
17029W        W59942   3.152  23.211  25.005  0.1685  0.0315 -0.0512
17030W        W59943  28.710  33.965  29.571  0.1307  0.2268  0.2201
17031W        W59944  32.824  31.980  22.995 -0.0066  0.1785 -0.1787
17032W        W59945   5.724  20.567  14.231 -0.4150 -0.1857  0.1102
17033W        W59946   3.371  25.122   2.708  0.0720  0.1870 -0.0039
17034W        W59947   1.246   2.355   7.727 -0.3412  0.1949  0.3266
17035W        W59948   5.826  31.558  25.740  0.1032  0.0938 -0.4108
17036W        W59949   4.198  27.438   8.640  0.0904  0.0294 -0.0292
17037W        W59950   5.175  31.963  23.729  0.3696  0.0644 -0.3600
17038W        W59951   1.945  14.735  28.077  0.2004  0.1165 -0.3271
17039W        W59952  32.596  29.223  24.717  0.2599 -0.3926 -0.2167
17040W        W59953  28.820  25.463  29.409  0.3513 -0.2332  0.0280
17041W        W59954  11.177  29.537  18.913  0.1352  0.1931 -0.2112
17042W        W59955  32.019  28.885  24.104  0.1133  0.0530 -0.0431
17043W        W59956   6.752  17.471  27.734  0.1546  0.3828  0.0075
17044W        W59957   2.932  27.227  25.158  0.2692 -0.3086  0.1070
17045W        W59958   2.657  34.170  20.276 -0.0641  0.4047  0.2163
17046W        W59959  14.763   1.026  17.396 -0.2595  0.0620 -0.0089
17047W        W59960   0.562  20.345  15.130 -0.1407  0.0240 -0.0910
17048W        W59961   4.204  13.583  28.866 -0.4505 -0.1639 -0.0064
17049W        W59962  17.772  23.549  28.874 -0.0244  0.1610 -0.0278
17050W        W59963  34.043  30.442  18.382 -0.0010  0.1232  0.4444
17051W        W59964   3.706  13.393  27.968  0.3600  0.2744 -0.0204
17052W        W59965  11.552  30.619   0.301  0.0616  0.1419 -0.2135
17053W        W59966  34.412   4.273  18.534  0.1576  0.2107  0.1329
17054W        W59967   7.664  29.209  20.613 -0.1622 -0.1588 -0.0216
17055W        W59968  31.744  26.366  20.591  0.0126  0.3060  0.0660
17056W        W59969   2.466  29.688   8.710  0.3013 -0.0421 -0.0199
17057W        W59970  29.895  23.669   0.351  0.0018 -0.0840  0.1649
17058W        W59971  27.781   1.339   1.259  0.2930  0.0761 -0.3220
17059W        W59972  25.328   0.329  25.873  0.2833  0.1557  0.2790
17060W        W59973  10.811  13.587  28.360 -0.3122 -0.2647  0.1251
17061W        W59974   2.290   3.988   3.362 -0.0360 -0.1970 -0.1164
17062W        W59975  32.080   2.132  26.617 -0.0519  0.0857 -0.0306
17063W        W59976   5.068  28.369   0.244  0.2179  0.2130 -0.1376
17064W        W59977   0.904  32.179  27.332  0.4743 -0.2130 -0.2929
17065W        W59978  19.767  25.214  20.742  0.2568  0.0312 -0.2574
17066W        W59979  31.042  16.947  27.185 -0.0556  0.0731  0.2208
17067W        W59980  31.507  25.715   7.903 -0.0646 -0.2362 -0.1876
17068W        W59981   4.600  17.302  24.710  0.0692 -0.2259 -0.1756
17069W        W59982   2.361  26.393  27.493  0.0083  0.1400  0.0074
17070W        W59983   3.701  29.256  17.886 -0.0124 -0.1475 -0.3991
17071W        W59984   1.311  18.816  28.839 -0.1731  0.1737  0.1989
17072W        W59985   8.611  23.085   3.300  0.2296 -0.2334  0.1054
17073W        W59986  25.859  31.366   3.150 -0.2111 -0.1046  0.1058
17074W        W59987  30.642  22.433  19.152  0.0014  0.1346  0.2710
17075W        W59988  27.863   2.455  25.582 -0.0324  0.2399  0.1449
17076W        W59989   7.485  22.616  23.821  0.2352  0.0459 -0.1516
17077W        W59990   6.585  22.786   2.066  0.2371 -0.0261  0.1002
17078W        W59991   0.993  23.834  23.551 -0.0250  0.0433 -0.0220
17079W        W59992  33.620  29.181   6.671  0.1606  0.0290  0.1163
17080W        W59993   9.463  33.537   7.677 -0.0645 -0.0865 -0.0191
17081W        W59994  31.001  28.345   0.542 -0.2386  0.1121  0.3089
17082W        W59995   7.812  15.699  24.285 -0.1800 -0.0861 -0.0142
17083W        W59996  32.247  20.163  22.189  0.1766 -0.0893  0.1054
17084W        W59997   3.562  21.059  22.773 -0.0311 -0.0404  0.0231
17085W        W59998   1.995  34.328  29.248  0.0380  0.0035  0.3830
17086W        W59999   0.603  23.559  26.741  0.0745  0.1541  0.2656
17087W        W60000   2.620  17.870   0.766 -0.0518  0.0194 -0.0676
17088W        W60001   5.623  18.763  18.967 -0.0570  0.1819 -0.2202
17089W        W60002  30.144   7.122  28.374 -0.2353  0.1073  0.0519
17090W        W60003   4.557  13.013  27.760 -0.1006  0.3021 -0.0582
17091W        W60004   6.459  33.055   2.050  0.1013 -0.0190  0.0148
17092W        W60005  32.030  16.134  22.478  0.1140  0.1668  0.0524
17093W        W60006  10.588  20.269  23.194 -0.4040  0.1528  0.0490
17094W        W60007  26.883   0.576   1.386  0.1371  0.1648 -0.2133
17095W        W60008  24.014  28.898  18.805 -0.0880  0.2076 -0.3221
17096W        W60009   2.881  30.455   0.251  0.0607 -0.2966  0.3101
17097W        W60010  10.520  16.930  17.878 -0.1961  0.0999  0.2509
17098W        W60011  33.495  27.943  25.950 -0.3060 -0.0508  0.0363
17099W        W60012   3.457  19.419   3.188  0.0921 -0.0931 -0.0628
17100W        W60013   2.432  21.562  27.097  0.1765  0.1537 -0.1376
17101W        W60014   4.485  20.861  26.917  0.0258 -0.0834  0.0433
17102W        W60015   4.365   2.646   3.556  0.0995  0.2774 -0.0145
17103W        W60016  29.921  29.424  15.434 -0.4813  0.0084  0.0927
17104W        W60017   4.189  24.469   3.321 -0.2735 -0.0067 -0.3116
17105W        W60018   2.589  32.578   2.219 -0.1555  0.1524 -0.4282
17106W        W60019   2.364  29.595  22.227  0.1215 -0.1639 -0.2109
17107W        W60020  11.301  26.983  19.208  0.1776 -0.1173  0.0613
17108W        W60021   4.925  29.701   3.530  0.0253  0.1005 -0.2207
17109W        W60022   7.641  15.439  27.262 -0.1551  0.0271  0.0050
17110W        W60023   2.253  24.304   6.165  0.0247 -0.2222  0.2031
17111W        W60024  30.274   0.130  21.700 -0.0096 -0.2983 -0.1638
17112W        W60025  24.149  25.845  22.999  0.0225 -0.2952  0.2814
17113W        W60026  33.030  21.955   6.180  0.0786 -0.2300 -0.0879
17114W        W60027  15.232  11.832   3.845 -0.0267  0.1880 -0.0593
17115W        W60028   2.174  29.619  26.299  0.0186  0.3756  0.0415
17116W        W60029  32.819  31.614   0.019 -0.0999 -0.0637 -0.0337
17117W        W60030   4.557   0.616  17.860  0.2250 -0.2267  0.2900
17118W        W60031  21.404   1.533  22.365  0.0656  0.0136  0.0434
17119W        W60032  24.495  33.147   2.514 -0.4772  0.2074  0.2234
17120W        W60033  33.036   0.772   4.188 -0.5517  0.0933 -0.1736
17121W        W60034  33.635  26.160   9.951  0.0786 -0.3984  0.2930
17122W        W60035   1.074  25.385  20.989 -0.1392 -0.1991  0.3425
17123W        W60036  33.905  33.911   4.564  0.3800 -0.0785 -0.1878
17124W        W60037   1.038   1.041  26.750  0.0368 -0.0753  0.0857
17125W        W60038  27.462  31.822   3.692 -0.0904  0.3750 -0.0006
17126W        W60039   8.684  27.470   2.705  0.0914  0.1235 -0.2947
17127W        W60040  31.368  22.057  24.401  0.0565  0.0482 -0.0023
17128W        W60041  30.114  31.756   0.078  0.0212 -0.2642  0.0711
17129W        W60042   7.079  32.147  27.247 -0.0048 -0.3747 -0.1296
17130W        W60043  28.812  21.576  23.508  0.2086 -0.3043  0.0309
17131W        W60044   9.023  25.301  28.496  0.1498  0.0285  0.1093
17132W        W60045   4.416  21.066  29.515 -0.1003  0.0338 -0.0103
17133W        W60046  11.503  24.758  22.869  0.3417  0.1630 -0.0254
17134W        W60047   1.151  20.295  14.877  0.2111  0.2481  0.2089
17135W        W60048  20.738  20.063  26.560 -0.0021 -0.0333 -0.1922
17136W        W60049   1.416  29.600  27.061  0.0464  0.0420  0.1768
17137W        W60050  13.580  16.835   0.847 -0.1959  0.0570 -0.0494
17138W        W60051   1.877  22.557  18.574 -0.0257  0.0330  0.1502
17139W        W60052   6.228  23.801  24.777 -0.0599 -0.1267 -0.1025
17140W        W60053  34.140  25.623  10.105 -0.0580  0.1320  0.0529
17141W        W60054   6.996  22.141   9.193 -0.1540 -0.0841  0.1233
17142W        W60055   7.370  19.200  23.304 -0.0577  0.0281  0.1742
17143W        W60056   4.007   1.373   2.893 -0.2644  0.1603  0.0257
17144W        W60057  10.422   0.769  17.787 -0.3276 -0.2922  0.2208
17145W        W60058   6.032  19.983  10.246  0.0369  0.0899 -0.0427
17146W        W60059  33.447  30.058   0.538  0.1836 -0.1605  0.4047
17147W        W60060   4.606   6.421   8.941  0.0646  0.4262  0.1562
17148W        W60061  24.149  20.442   5.774 -0.1985  0.0928  0.0224
17149W        W60062  30.479   6.166  25.776 -0.0519  0.0291  0.0371
17150W        W60063   4.729  25.937  27.160  0.1731 -0.0101 -0.3639
17151W        W60064  31.662  30.666   1.690 -0.1753  0.0063 -0.6095
17152W        W60065   6.348  22.695  29.046 -0.0302  0.1104 -0.0101
17153W        W60066   3.935   0.698  27.968 -0.2530 -0.2550  0.0882
17154W        W60067  15.155  20.216  22.673 -0.1109  0.1478  0.0128
17155W        W60068   1.406  23.767  16.616 -0.2349  0.1980  0.0577
17156W        W60069   6.111  32.694   1.091 -0.2336  0.2255 -0.1198
17157W        W60070   9.239  27.721   4.857 -0.0962  0.1256 -0.1544
17158W        W60071   9.383  32.189  23.327 -0.2321 -0.3676 -0.3242
17159W        W60072  34.253   6.235   2.506 -0.1774 -0.3193  0.2726
17160W        W60073   7.743  16.351  17.737  0.5718  0.1187  0.1927
17161W        W60074  33.710  20.502  14.365  0.2287  0.0658  0.3164
17162W        W60075  30.380  23.851  29.689  0.1640  0.1228 -0.0564
17163W        W60076  22.635  33.683  18.744  0.1291 -0.1391 -0.1764
17164W        W60077   2.077  30.833  22.651  0.0723 -0.1611  0.0779
17165W        W60078  26.943  25.134   1.338 -0.0385  0.2111  0.2705
17166W        W60079   1.295  23.507   9.777  0.0702  0.0457  0.2930
17167W        W60080   2.140  16.607  21.211 -0.1979  0.0567 -0.0816
17168W        W60081   5.297  24.063  21.160  0.0083  0.1355  0.0618
17169W        W60082  33.437  18.820  26.570  0.3057 -0.1152 -0.0203
17170W        W60083  15.575  26.908  29.571 -0.1822 -0.1658 -0.2086
17171W        W60084  33.359  25.261  29.102  0.2053  0.1121  0.2188
17172W        W60085  33.011  31.039   8.747 -0.1084  0.1735  0.4660
17173W        W60086  27.597  24.024   1.135  0.1748 -0.0707 -0.1090
17174W        W60087   4.222  25.009  16.415  0.1110 -0.0797  0.0038
17175W        W60088  33.952  28.042  28.915 -0.2245 -0.0869  0.2624
17176W        W60089   9.082  32.526  27.189  0.0491  0.0871 -0.1422
17177W        W60090  11.113  30.166   6.066  0.0579 -0.2259 -0.1612
17178W        W60091   2.193  24.760  20.840  0.2875 -0.2107  0.1303
17179W        W60092  27.260  19.060  29.760  0.1162  0.1157 -0.4020
17180W        W60093   2.283  31.599  29.081 -0.1775 -0.1562  0.0768
17181W        W60094  31.113  29.592  14.874 -0.0969  0.2670 -0.0767
17182W        W60095  33.812  25.348   0.247  0.2446 -0.0220  0.3915
17183W        W60096  29.846   1.435  25.806 -0.0801  0.0052 -0.1870
17184W        W60097   6.567   4.234   5.963 -0.0449  0.1615 -0.0256
17185W        W60098   5.419  33.808  25.271 -0.0371  0.0896 -0.2562
17186W        W60099   5.053  24.520   3.945 -0.1448  0.3789 -0.1965
17187W        W60100   5.972  25.357  25.284 -0.0405  0.1614 -0.0364
17188W        W60101   0.800  18.615  20.164  0.0782  0.1052 -0.0714
17189W        W60102  28.973  27.917   1.952 -0.0048  0.0879 -0.1153
17190W        W60103  28.768  31.975   7.413 -0.1722  0.2630 -0.1539
17191W        W60104   3.377   9.600  23.801 -0.0488  0.0233  0.1939
17192W        W60105   5.170  24.389  22.460 -0.0097 -0.0231  0.0121
17193W        W60106  10.102  27.315   1.323  0.3222  0.0763  0.2761
17194W        W60107   2.463  23.745  21.188  0.0801  0.0651  0.1404
17195W        W60108  31.036   0.588  25.975  0.0725  0.1437  0.1854
17196W        W60109  11.007   3.512   1.998 -0.0524  0.1617 -0.0198
17197W        W60110   2.518  17.592   3.221 -0.0524  0.1351  0.1014
17198W        W60111  17.560  21.495  28.335 -0.0777  0.3106  0.0262
17199W        W60112   3.750  22.693   0.946 -0.1746 -0.1766  0.1758
17200W        W60113  31.096  28.710  20.675 -0.2094  0.0305 -0.1388
17201W        W60114   1.433   0.698   5.967 -0.3517 -0.1006  0.1216
17202W        W60115   2.254  22.497  20.985  0.0420 -0.1320  0.0779
17203W        W60116   8.316   6.904   7.142 -0.0120 -0.0158  0.1383
17204W        W60117   5.155  23.810   6.961  0.0596 -0.0829 -0.2357
17205W        W60118   2.739  29.049   1.497  0.1112 -0.0380 -0.4470
17206W        W60119  33.654   1.360  24.127  0.5294 -0.1372  0.0238
17207W        W60120  11.519  26.234   3.185 -0.2148 -0.0039 -0.3190
17208W        W60121  11.616  24.663  28.330 -0.0500 -0.0427 -0.0153
17209W        W60122  31.224  32.182  28.301  0.0163  0.0316 -0.1051
17210W        W60123  26.989   1.199   6.234  0.1017  0.2410  0.1205
17211W        W60124  34.085  23.608   2.356  0.1552  0.0408 -0.0441
17212W        W60125   3.358  32.186  26.259 -0.0697  0.0744  0.0371
17213W        W60126  22.678  32.607  22.370 -0.2292 -0.3250  0.0012
17214W        W60127  31.139  28.394   4.863 -0.3121 -0.0872 -0.1776
17215W        W60128  32.054  25.130  29.163  0.0810  0.0493 -0.2133
17216W        W60129  32.851  33.565  29.338  0.1030 -0.1182 -0.3173
17217W        W60130  29.630  26.072  28.141  0.0765  0.2760 -0.1061
17218W        W60131   3.563   1.028   1.204  0.0465  0.0594  0.2744
17219W        W60132   3.389  25.472  25.926  0.0412  0.3357  0.0716
17220W        W60133  33.259  17.109  25.506  0.2078  0.0318 -0.1897
17221W        W60134  34.489  31.410  27.891  0.1046  0.0106 -0.1613
17222W        W60135   7.775  22.164   0.639  0.0451 -0.2884 -0.1545
17223W        W60136  30.501  33.079   1.454 -0.0231  0.0515 -0.1655
17224W        W60137   2.288  33.950  25.774 -0.0072 -0.1787  0.2645
17225W        W60138   2.982  22.217  26.941 -0.0349 -0.2105  0.1309
17226W        W60139  32.646  20.304  27.514  0.1954 -0.1943 -0.1257
17227W        W60140  33.256  24.053   2.154  0.2574 -0.0991 -0.4412
17228W        W60141  23.685  31.877  27.101 -0.1391  0.0821 -0.1582
17229W        W60142  32.540  22.603  19.096  0.0950  0.5887  0.1253
17230W        W60143  33.407  27.434  23.880 -0.0912  0.2402  0.2318
17231W        W60144  33.235  31.039   2.655  0.1829 -0.2291  0.2385
17232W        W60145   4.101  30.685   3.015  0.3252 -0.2150 -0.1180
17233W        W60146   8.728  23.483   0.184  0.0096 -0.3915  0.3295
17234W        W60147   9.403  24.964  27.885  0.1430  0.1326 -0.0427
17235W        W60148   4.335  26.823   0.109 -0.2558 -0.0385  0.0521
17236W        W60149   7.201  14.831  29.606  0.0555  0.0091 -0.0147
17237W        W60150   4.274   4.692   4.473  0.1896 -0.6504  0.2076
17238W        W60151   9.335  23.504  20.867  0.0152  0.3401 -0.0972
17239W        W60152   7.261  22.284   0.710  0.2023 -0.1849  0.0573
17240W        W60153   4.053   5.266  28.048 -0.1840  0.1190 -0.0017
17241W        W60154   5.193  17.976  21.827  0.2514  0.1329  0.1351
17242W        W60155   7.078  28.379   4.038 -0.1210 -0.0755  0.1862
17243W        W60156   0.229  23.057   5.774  0.1717 -0.3026 -0.1762
17244W        W60157  30.560   1.519   6.772 -0.2075 -0.1537 -0.1627
17245W        W60158   4.508  23.961   2.698 -0.0807  0.4750  0.0331
17246W        W60159   0.827   3.314  23.469 -0.1524 -0.2064 -0.3590
17247W        W60160  33.949  31.699   4.246 -0.2545 -0.2700  0.0040
17248W        W60161  24.438  29.481   5.906 -0.0685  0.1536  0.0655
17249W        W60162  33.992  31.714  28.217  0.1311 -0.1846  0.0164
17250W        W60163  21.058  20.771  24.091  0.0227 -0.0210 -0.0734
17251W        W60164   6.493  21.667   0.452  0.0747  0.0620  0.3632
17252W        W60165   3.573  29.527   2.912 -0.0588  0.0518 -0.2161
17253W        W60166   2.430  22.615  26.291  0.0538 -0.0712 -0.0247
17254W        W60167   7.619  23.005  29.500 -0.1024  0.0242  0.0388
17255W        W60168  34.400  32.823   2.760 -0.1922  0.0788 -0.1877
17256W        W60169   0.123  26.374  24.319  0.0226 -0.2390  0.0286
17257W        W60170   1.808  14.219  24.016 -0.2134  0.0508  0.1954
17258W        W60171   6.533  27.349   0.981  0.1037  0.0284 -0.0274
17259W        W60172  25.588   3.877  28.946 -0.0501  0.1595 -0.2228
17260W        W60173  31.326  21.582  19.955 -0.1938 -0.0235 -0.0319
17261W        W60174   2.754  26.221  23.233 -0.2205  0.1533 -0.0746
17262W        W60175  30.892  26.920  21.727  0.3563 -0.0221 -0.2057
17263W        W60176  31.024  28.598   2.073  0.0810 -0.2021  0.1633
17264W        W60177  15.855  17.365  23.771  0.1024 -0.0328  0.0109
17265W        W60178   5.984  23.313   1.152 -0.4235  0.1050  0.3451
17266W        W60179  27.163  19.395   2.180 -0.0669  0.1639  0.0004
17267W        W60180  19.714  27.949   2.951 -0.1137  0.0655 -0.0381
17268W        W60181   0.882  28.682   0.694  0.0819  0.0610 -0.1586
17269W        W60182   4.863  33.906   1.867  0.0835  0.2893 -0.4558
17270W        W60183  14.637  32.824   9.861 -0.0568  0.0556 -0.1114
17271W        W60184  25.192  24.168   1.232 -0.0782 -0.0181 -0.0868
17272W        W60185  31.978  27.582  28.884 -0.2188  0.1328 -0.0343
17273W        W60186   2.231   7.954   1.157 -0.2801  0.1198 -0.1747
17274W        W60187  20.170  16.569   5.936  0.0776  0.0283 -0.2725
17275W        W60188   5.159  23.113  14.355  0.1114 -0.2023  0.3212
17276W        W60189   5.672  21.838  27.724 -0.3406  0.2089 -0.1720
17277W        W60190   2.770  22.510  29.217 -0.0730  0.5402  0.1233
17278W        W60191  27.794   0.741  27.262  0.0483  0.1094 -0.1169
17279W        W60192   2.593  27.843   5.807  0.0737  0.0676  0.0476
17280W        W60193   1.917  27.441  25.446 -0.0652 -0.1560  0.0573
17281W        W60194   2.892  27.004   8.142 -0.1180  0.0639  0.4111
17282W        W60195  28.247  34.203  25.205  0.0833  0.0539 -0.1269
17283W        W60196   3.805  29.956   8.193 -0.2550  0.0440  0.1090
17284W        W60197   3.188  23.586   3.507  0.1305 -0.1553  0.0852
17285W        W60198  31.048   5.690  27.472  0.1611  0.0640 -0.1761
17286W        W60199   3.948  32.701   6.379  0.0052  0.1092  0.0675
17287W        W60200   4.309   2.582   8.180  0.0084 -0.0855  0.0093
17288W        W60201  32.885  31.317   2.901 -0.0571  0.0791  0.0305
17289W        W60202  32.282  27.408  24.988  0.1618  0.0761  0.2321
17290W        W60203   9.210   6.854  12.801 -0.0311  0.0688  0.0026
17291W        W60204  30.086  31.425  27.520 -0.3156 -0.0828 -0.0061
17292W        W60205   2.651  33.264  21.492  0.0231 -0.1258 -0.1556
17293W        W60206   2.981  27.969  26.045 -0.2504 -0.1597 -0.1136
17294W        W60207   8.750  26.618  23.683  0.0928  0.2233 -0.3407
17295W        W60208   6.829  32.392  24.142  0.0426  0.1045 -0.1090
17296W        W60209   1.379  27.793  18.812  0.0377 -0.0370  0.1516
17297W        W60210   2.600  33.150  22.397 -0.1160  0.0118  0.0423
17298W        W60211  28.357  28.850  22.244  0.2210 -0.4106  0.0980
17299W        W60212   1.787  31.056  29.516 -0.1389  0.0153 -0.0967
17300W        W60213  33.868   3.507  16.332 -0.1710 -0.2479 -0.0057
17301W        W60214   3.009  23.173  26.371  0.1149 -0.1031 -0.0421
17302W        W60215  34.254  21.297  24.374  0.2423 -0.1520  0.2717
17303W        W60216   2.470   4.375  17.927  0.3633 -0.1901  0.0225
17304W        W60217   5.416  22.473  28.956  0.0062 -0.0167 -0.1046
17305W        W60218  30.261  25.424  15.625 -0.1994 -0.2025  0.2145
17306W        W60219  33.619   1.540  18.404 -0.0551  0.1691 -0.0941
17307W        W60220  31.707  33.315  22.483 -0.2132 -0.5007 -0.2592
17308W        W60221  31.747   1.303  20.737  0.0795 -0.0079  0.1141
17309W        W60222  29.100  27.777  25.436  0.0331 -0.0860  0.1543
17310W        W60223  33.965  29.469  17.142  0.3802 -0.1637 -0.2919
17311W        W60224  26.465  27.367  16.139 -0.2778  0.0131 -0.0103
17312W        W60225  32.229  30.298  14.744 -0.1749  0.0158  0.2145
17313W        W60226  33.101  32.120  27.079 -0.1163  0.0090 -0.2389
17314W        W60227   5.971  34.126  27.828  0.2506 -0.3077 -0.2121
17315W        W60228  33.131  31.332  15.372  0.5053 -0.1105  0.0730
17316W        W60229   7.142  27.808  15.115  0.0924  0.0522  0.0435
17317W        W60230  32.443  33.928   1.756 -0.0021 -0.3409  0.0371
17318W        W60231   2.023  31.046  18.774  0.0427  0.1336 -0.3478
17319W        W60232   7.205  23.582  25.201  0.2115 -0.0754  0.1433
17320W        W60233  28.460   1.352  24.194 -0.0113 -0.2836  0.0473
17321W        W60234  14.502  30.320  17.275 -0.0325  0.0936 -0.2571
17322W        W60235  32.543  32.151  22.518  0.0156  0.0831 -0.2913
17323W        W60236   0.574   6.647  19.275  0.3721 -0.1281 -0.0721
17324W        W60237  34.289  31.382  18.391 -0.0727 -0.1424  0.0302
17325W        W60238   5.975  32.894  19.045 -0.2906  0.1314 -0.1564
17326W        W60239  30.793  27.732  13.675  0.0959 -0.2113 -0.1312
17327W        W60240  12.489   0.699   1.142 -0.0057  0.1552  0.2172
17328W        W60241   9.776   1.907  17.426  0.2790  0.0586 -0.0473
17329W        W60242   2.123   5.945  21.328 -0.0777 -0.1812 -0.0218
17330W        W60243   0.940  20.192  21.805  0.0188  0.0323  0.1216
17331W        W60244   6.227  16.587  17.158 -0.1438 -0.0818  0.2220
17332W        W60245  30.884  25.846  21.121 -0.0996  0.0533 -0.0312
17333W        W60246   4.320  26.781  20.233 -0.1174  0.0653  0.1106
17334W        W60247   3.418  24.276  27.344 -0.0337 -0.1364  0.0214
17335W        W60248  22.147  28.230  20.412  0.1062  0.0041  0.2995
17336W        W60249   3.541  32.746  23.556  0.1473 -0.2787  0.0321
17337W        W60250   4.509  26.757  15.065  0.1050 -0.1857 -0.0482
17338W        W60251   1.347  31.035  16.477  0.2887  0.1778  0.0607
17339W        W60252   5.136  20.890  20.846  0.3234  0.3175  0.2139
17340W        W60253   5.746   4.901  22.328 -0.3885 -0.1191  0.1146
17341W        W60254  31.857  33.217   0.365  0.0159 -0.0308 -0.4092
17342W        W60255  34.109  27.447  14.635 -0.1662  0.0140  0.0039
17343W        W60256  26.109  29.372  14.387 -0.3595  0.6573 -0.2339
17344W        W60257   1.175  28.522  14.997  0.1665 -0.1419 -0.1711
17345W        W60258  34.277  26.003  18.312 -0.0560 -0.1345  0.2539
17346W        W60259  33.434  32.318  22.082  0.1932 -0.0138  0.1283
17347W        W60260  30.411  28.396  18.918  0.3149 -0.0380  0.2204
17348W        W60261  32.705  33.074  16.053  0.2836  0.0311 -0.1180
17349W        W60262   2.892  27.227  17.600 -0.2631  0.3789 -0.2756
17350W        W60263  25.370   8.111  16.229  0.0227  0.0931 -0.1438
17351W        W60264   6.827  33.789  16.941  0.0023 -0.0836  0.2849
17352W        W60265  21.563  21.147  16.695 -0.0221  0.0281  0.1782
17353W        W60266   3.639   1.375  19.881 -0.2386 -0.0414 -0.0288
17354W        W60267   3.705  10.578  23.738  0.2338  0.1766  0.0440
17355W        W60268  32.745  29.459  17.952  0.0626 -0.1293  0.0412
17356W        W60269  31.783  26.384  22.600 -0.4804 -0.2250  0.1500
17357W        W60270  15.064  30.951   0.378 -0.0576  0.3771  0.1730
17358W        W60271  33.048   5.687  21.503  0.0528 -0.2701 -0.1556
17359W        W60272   9.397  19.118  14.241 -0.0059  0.1373 -0.1950
17360W        W60273  32.563  24.887  27.879  0.1396  0.1799 -0.1205
17361W        W60274   6.536  21.564  13.846  0.4117  0.0228  0.0143
17362W        W60275  29.877  26.748  21.674 -0.2138 -0.0061  0.2871
17363W        W60276  32.589   5.359  21.964 -0.1434  0.1354 -0.2728
17364W        W60277  10.596  27.685  19.018 -0.2200  0.2393  0.0585
17365W        W60278   4.205  31.956  19.906  0.0443  0.0735  0.3442
17366W        W60279   2.410  23.327  14.823 -0.2520 -0.1367 -0.2475
17367W        W60280   8.996  17.333   0.319 -0.2128  0.2366 -0.0290
17368W        W60281   2.435  24.961  21.200 -0.2365  0.1922  0.1926
17369W        W60282   2.334  27.978  19.337 -0.1065 -0.0511  0.1597
17370W        W60283   1.218   2.530  27.220  0.0225  0.2109  0.2859
17371W        W60284  33.580  25.454  20.940  0.0337 -0.1542 -0.3271
17372W        W60285   4.452   2.274  23.408  0.1354  0.0385  0.0675
17373W        W60286  31.458  31.159   4.693 -0.0016  0.1011 -0.5032
17374W        W60287   0.463  29.613  14.670 -0.2709  0.1420 -0.0091
17375W        W60288   3.641  26.444  20.670 -0.0289 -0.0625  0.0675
17376W        W60289  27.212   1.743  24.313  0.4727 -0.1341 -0.2244
17377W        W60290   2.937  28.847  20.861 -0.1636  0.0974  0.1470
17378W        W60291   6.501  24.998  21.406  0.1676 -0.2214  0.0217
17379W        W60292  31.788  28.637  18.684  0.0475 -0.5530 -0.3152
17380W        W60293  13.045  24.332  22.629 -0.2506  0.2382 -0.0032
17381W        W60294  11.094  27.703  23.149  0.0296 -0.1456  0.1495
17382W        W60295  17.763  30.660  21.028  0.0581 -0.1267  0.1333
17383W        W60296  28.630  32.533  21.990 -0.0203  0.2611 -0.1171
17384W        W60297   5.025  21.508  15.405 -0.1995 -0.1410 -0.2039
17385W        W60298  32.156  30.404  25.061  0.2677 -0.2125  0.0084
17386W        W60299   1.130   1.115   1.127 -0.2603  0.1487  0.1868
17387W        W60300  27.173  26.739  17.566  0.2855 -0.1326 -0.4980
17388W        W60301  12.174   4.217  22.591  0.1443 -0.1912  0.0842
17389W        W60302   0.025   7.859  18.158 -0.3647  0.0789  0.0200
17390W        W60303  10.394  23.156  25.677 -0.0764 -0.1706 -0.1858
17391W        W60304   3.399   1.991  21.813 -0.1899  0.1119 -0.0289
17392W        W60305  33.166  27.701  22.228  0.4437 -0.1280 -0.2288
17393W        W60306   5.417  11.264  17.803 -0.1308 -0.0451 -0.2042
17394W        W60307  25.221  32.111   0.325  0.0703  0.4604 -0.0587
17395W        W60308  30.485  23.251  19.396 -0.1803 -0.2234  0.0889
17396W        W60309   1.889  33.612  22.069 -0.0302 -0.4947  0.3642
17397W        W60310   2.128  20.047  17.580  0.0926 -0.1048 -0.2219
17398W        W60311   9.448  21.560  15.773  0.1618  0.0080 -0.0205
17399W        W60312   1.699  30.652  18.924 -0.1925  0.2851 -0.2337
17400W        W60313  33.057  33.492   3.181  0.1714 -0.1566 -0.2351
17401W        W60314  11.074   1.720  18.736 -0.0494  0.0701 -0.0039
17402W        W60315   1.888  29.566  20.973  0.0380  0.2843 -0.2172
17403W        W60316   1.064   0.653  16.468 -0.0105 -0.1722  0.2484
17404W        W60317   3.730  31.185  17.060 -0.4104  0.0758 -0.1967
17405W        W60318   4.925  27.829  16.278  0.1838  0.1360  0.1918
17406W        W60319   1.763  27.645  22.136  0.3249  0.2137 -0.4671
17407W        W60320   1.931  30.796  21.799  0.0922 -0.2290 -0.0420
17408W        W60321   5.252  19.037  15.588  0.2974 -0.3144  0.0834
17409W        W60322   6.402   5.623  22.665 -0.0015 -0.1257  0.1420
17410W        W60323   3.915  28.271  15.750  0.0640  0.1574 -0.0244
17411W        W60324   7.681  17.854   1.029 -0.1076 -0.0276 -0.1281
17412W        W60325  28.564  33.662  15.457 -0.1683  0.3773 -0.0547
17413W        W60326   4.624  21.025  18.811 -0.0812 -0.0856 -0.1241
17414W        W60327  33.206  30.080  22.246 -0.3214  0.1023 -0.0655
17415W        W60328  31.078  28.858   5.765  0.0363 -0.0523  0.1364
17416W        W60329   4.027  21.204  20.711  0.0170  0.1170  0.3964
17417W        W60330   9.540   3.690  22.305  0.2907  0.0171  0.1845
17418W        W60331   3.665  21.609  16.170 -0.2409 -0.0415 -0.2664
17419W        W60332   8.504  34.349  16.647 -0.0234  0.2095 -0.2712
17420W        W60333  34.292  31.731  26.491  0.2201  0.1610  0.2193
17421W        W60334   1.863  31.163  23.018  0.0580  0.0943  0.0260
17422W        W60335  25.994  29.000  16.607  0.2086 -0.0841 -0.0116
17423W        W60336   5.144  25.548  15.426  0.0705 -0.2739  0.0897
17424W        W60337  11.300   1.679  19.797 -0.1066  0.0671 -0.0688
17425W        W60338  32.904   1.254  18.858  0.2461  0.0903  0.1001
17426W        W60339   7.397   1.067   4.859 -0.1675  0.0178 -0.1658
17427W        W60340  30.477  30.289  19.801  0.0379  0.3500 -0.0394
17428W        W60341   2.011   7.258  18.623  0.2836  0.4049 -0.2964
17429W        W60342   2.312  33.911  20.901  0.1347  0.2447  0.1818
17430W        W60343   4.108  26.628  18.926 -0.3823 -0.0624 -0.1676
17431W        W60344   3.955  22.629  22.516 -0.0216 -0.2014 -0.4612
17432W        W60345   1.442   1.613  18.381  0.4151 -0.0325 -0.5536
17433W        W60346  32.687   0.630  22.706 -0.0769  0.2646 -0.4900
17434W        W60347   4.766  28.319  16.314 -0.2503 -0.1744 -0.2452
17435W        W60348  32.738  28.370  25.596 -0.3090  0.2866  0.0621
17436W        W60349  30.923  32.964  23.563 -0.0785  0.0094  0.0258
17437W        W60350  22.040   0.406  26.370 -0.0219 -0.4415 -0.0030
17438W        W60351  33.378  17.150  15.553  0.3912 -0.1710 -0.1512
17439W        W60352  32.196  31.943  16.762 -0.4785  0.1546  0.3826
17440W        W60353   8.501  17.160  22.785 -0.2450  0.2211  0.3345
17441W        W60354   7.299  24.974  28.113  0.2504 -0.2223 -0.2623
17442W        W60355   9.355  25.336  15.535 -0.1326 -0.0197  0.1369
17443W        W60356   1.410  32.028  16.483 -0.3167  0.0128  0.1947
17444W        W60357   4.586  21.281  22.746 -0.1390 -0.1786 -0.0165
17445W        W60358   2.103  30.714  18.371 -0.0447  0.1251 -0.4655
17446W        W60359  14.176  34.165  27.193 -0.0482  0.1839 -0.0769
17447W        W60360   3.155  29.057  27.158 -0.0614 -0.2048 -0.0172
17448W        W60361   2.642  33.452  19.212 -0.1979  0.0401  0.1499
17449W        W60362  28.516  22.233  16.879 -0.0258 -0.1739 -0.0442
17450W        W60363  29.766  28.893  21.225 -0.0235  0.1030  0.1444
17451W        W60364   0.146  30.052  14.944  0.0325  0.0452  0.1721
17452W        W60365   4.356  29.429  20.593  0.2133 -0.1406  0.2301
17453W        W60366  32.398  27.446  22.843  0.2526  0.0219 -0.0928
17454W        W60367   9.467   5.498  17.967 -0.1669 -0.3240 -0.1862
17455W        W60368   4.652  30.682  21.231  0.2714  0.0853  0.0493
17456W        W60369   4.136  33.236  17.524  0.2513  0.0570 -0.1164
17457W        W60370  33.633  18.419   1.357  0.1108  0.2482 -0.0301
17458W        W60371  30.526  29.438  18.742  0.2222  0.2880 -0.1269
17459W        W60372  30.771   1.456  19.742 -0.1775  0.0410  0.0593
17460W        W60373  12.556  15.974  21.512 -0.2711  0.1856  0.2937
17461W        W60374  10.843  32.305  15.789  0.0087 -0.0600 -0.1864
17462W        W60375   7.022   0.090  18.927  0.0866  0.2543  0.2355
17463W        W60376  34.414  28.797  22.274 -0.0981 -0.3526 -0.0821
17464W        W60377   8.061  25.360  27.827  0.1226  0.0599  0.0859
17465W        W60378  33.112   2.364  17.469  0.2986 -0.1569  0.0677
17466W        W60379   9.770  30.836  17.059 -0.0085  0.0114  0.4733
17467W        W60380   3.533  13.409  21.819 -0.3103  0.1607 -0.3320
17468W        W60381  28.228  31.337  15.788  0.2097 -0.1143  0.0370
17469W        W60382  23.501  28.738  18.947 -0.1358  0.1676 -0.0765
17470W        W60383  27.703  10.888  19.921 -0.1390  0.0113  0.1225
17471W        W60384  25.378  22.230  15.139  0.1477 -0.2862  0.0586
17472W        W60385   4.235  28.724  15.721  0.0872  0.3259 -0.1067
17473W        W60386  25.699  32.039  25.783 -0.1067 -0.3286 -0.0262
17474W        W60387   8.431   3.379  21.293  0.2491 -0.2076 -0.0375
17475W        W60388   8.088  21.858  19.387 -0.1110 -0.2682 -0.2777
17476W        W60389   5.008  24.634  23.752  0.0347  0.0882  0.2185
17477W        W60390   5.392  25.360  21.306 -0.0244  0.1930 -0.0303
17478W        W60391  33.839  29.679  16.721 -0.3487 -0.1788  0.1764
17479W        W60392  34.252  28.554  18.503 -0.0431  0.1724 -0.3358
17480W        W60393  31.582  30.341  15.179  0.1105 -0.2833 -0.1577
17481W        W60394  23.074  28.953  29.468  0.0657 -0.0837 -0.2136
17482W        W60395   2.771  22.772  22.264 -0.0847  0.1172  0.1050
17483W        W60396  33.735  28.619  18.696 -0.0026 -0.0372 -0.0471
17484W        W60397   0.667  27.060  27.739 -0.1205  0.0613 -0.2175
17485W        W60398  31.301  25.585  29.014 -0.3291 -0.2352  0.0475
17486W        W60399   4.020  34.293  19.739  0.2825 -0.0216  0.0554
17487W        W60400  12.329  16.963  24.912  0.0490  0.0406  0.0511
17488W        W60401  31.131  31.256  14.618 -0.2972  0.2183 -0.0170
17489W        W60402   1.510  31.205  17.536  0.1523  0.3825  0.1908
17490W        W60403   3.651  30.700  14.779 -0.0027  0.1238  0.1537
17491W        W60404   5.665   0.154  22.720  0.2133  0.3912 -0.0700
17492W        W60405   3.584  34.280  20.025  0.1207 -0.1702  0.0721
17493W        W60406   3.563  19.790  14.649  0.2077  0.2448  0.1779
17494W        W60407  22.724   5.222  25.915  0.1767 -0.0671 -0.0273
17495W        W60408   0.919  21.570  20.939 -0.1700  0.2213  0.0293
17496W        W60409   3.444  27.511  15.107 -0.0781  0.2386 -0.1474
17497W        W60410  11.200  30.755  28.767  0.2624  0.1387  0.2020
17498W        W60411   7.641  28.172  16.601  0.1183  0.1167  0.0652
17499W        W60412  32.120  30.561  15.213 -0.0289  0.0104  0.2138
17500W        W60413  10.584  31.471  16.938  0.3077  0.2232  0.2130
17501W        W60414  27.717  31.994  27.834 -0.1235 -0.2143  0.3454
17502W        W60415  24.640  23.970  27.466 -0.1605 -0.0642  0.4077
17503W        W60416   1.722  34.181   2.757 -0.0422 -0.1210  0.0738
17504W        W60417  33.096  26.307  26.934 -0.0785 -0.1163 -0.1691
17505W        W60418  32.062   5.357  20.837 -0.1326 -0.0728  0.3664
17506W        W60419   1.888  18.071  13.763 -0.4496  0.1354  0.1466
17507W        W60420  33.535  16.293  16.808 -0.0313 -0.1369  0.4269
17508W        W60421   1.583   3.541   1.783 -0.3894 -0.1848  0.0969
17509W        W60422  34.166   1.804  21.562  0.2683 -0.0128  0.1248
17510W        W60423   4.255  31.705  17.327 -0.0342 -0.1213  0.1205
17511W        W60424  27.624  22.718  21.945 -0.0682  0.0025 -0.0934
17512W        W60425   0.363  26.011  15.510  0.2278 -0.3046 -0.0183
17513W        W60426   6.219  31.816  17.726 -0.0876  0.1395 -0.4042
17514W        W60427   5.420  25.280  13.995  0.1603  0.1620  0.2023
17515W        W60428  32.358   3.460   3.727 -0.3307 -0.1657  0.3359
17516W        W60429   4.687  19.669  19.420 -0.0114 -0.2636  0.0370
17517W        W60430   7.776  29.232  19.216  0.1826 -0.1049  0.0117
17518W        W60431   4.043  21.546  21.352 -0.2563 -0.1120  0.1731
17519W        W60432   7.996  32.035  24.283 -0.1132  0.1098  0.0574
17520W        W60433   7.067  23.045  20.117  0.0554 -0.0838  0.0538
17521W        W60434  34.416   8.886  28.366  0.0551  0.3643 -0.1056
17522W        W60435   4.292  34.116  29.079 -0.0694 -0.0880  0.1256
17523W        W60436  34.168  22.938  17.932 -0.1479 -0.0231 -0.2656
17524W        W60437  34.432  28.302  13.782 -0.0977 -0.2194 -0.1893
17525W        W60438   3.772  27.682  24.198 -0.0615  0.0763 -0.2797
17526W        W60439   3.172  32.213  19.464  0.0205  0.0107 -0.0036
17527W        W60440   3.328  19.350  27.856  0.1368 -0.1697 -0.0416
17528W        W60441   5.379  27.648   3.513 -0.3857 -0.0900 -0.0918
17529W        W60442  32.294  32.455  27.377  0.1197  0.1090 -0.0293
17530W        W60443  28.390   5.705  25.973 -0.0352 -0.1686  0.1606
17531W        W60444   6.749  32.817  25.325  0.0292 -0.1416 -0.1766
17532W        W60445   0.552  27.617  22.436 -0.1121 -0.1025 -0.0803
17533W        W60446   5.404  29.777  15.981  0.1520  0.2496 -0.2929
17534W        W60447  27.037  27.277  22.467  0.2399  0.4317 -0.0789
17535W        W60448  27.486  25.576  25.176 -0.0690  0.2652 -0.1064
17536W        W60449   2.202  27.303  16.865 -0.0069 -0.1009 -0.3245
17537W        W60450  28.981   4.289  17.860 -0.0463 -0.1429 -0.0127
17538W        W60451   2.834  19.455  27.849  0.3237 -0.1486 -0.1780
17539W        W60452  27.354  34.248  29.350 -0.0030  0.0621  0.2002
17540W        W60453   4.198  21.654  24.180  0.1114  0.0967  0.2256
17541W        W60454   6.154  24.109  18.018  0.0172  0.2481 -0.0208
17542W        W60455  10.061  33.221  20.643 -0.4126  0.0126 -0.5239
17543W        W60456   1.656  30.936  15.345  0.0682 -0.2117  0.2263
17544W        W60457  32.257   9.911  16.131 -0.0828 -0.2783 -0.1183
17545W        W60458  33.973  33.473  16.783  0.1686  0.0405 -0.1014
17546W        W60459   5.763  30.326  18.679 -0.0611 -0.0457  0.4880
17547W        W60460   0.786  25.074  19.305 -0.1138  0.1651 -0.0113
17548W        W60461   4.234  25.484  23.238 -0.1870 -0.2938 -0.1751
17549W        W60462  33.092  30.737  21.487  0.0201 -0.1712  0.0104
17550W        W60463   7.179   4.096  20.080  0.0564 -0.1071 -0.1445
17551W        W60464   9.271  29.145  21.950  0.1457 -0.1082  0.0115
17552W        W60465  33.889  21.206  18.336  0.0359 -0.2846  0.1561
17553W        W60466   4.704  19.819  22.951 -0.0318 -0.1449  0.3149
17554W        W60467   3.818  15.918  23.160 -0.2431 -0.0896  0.0490
17555W        W60468  27.038  31.166  19.546  0.0804  0.2120  0.1171
17556W        W60469   1.148  24.548  26.461 -0.1524  0.1956  0.0470
17557W        W60470   2.800  32.004  15.612 -0.2705 -0.3571 -0.2259
17558W        W60471  33.295  23.090  16.463 -0.0082 -0.0876 -0.0359
17559W        W60472  34.250   2.151  19.953 -0.0216 -0.0713  0.1291
17560W        W60473   3.116  27.278  15.484 -0.1456  0.0858 -0.1253
17561W        W60474  26.941  31.513  24.383  0.1361  0.0831  0.3464
17562W        W60475   0.419  28.373  17.931 -0.0392  0.3170  0.2229
17563W        W60476  32.450  23.356  25.001 -0.1323  0.0028  0.1321
17564W        W60477   2.577  32.866  16.766 -0.1063  0.0448 -0.2131
17565W        W60478  33.659   0.141  27.564 -0.3304 -0.0152  0.2721
17566W        W60479  27.873   0.017  28.626 -0.0454 -0.0771  0.0289
17567W        W60480  22.723   0.712  23.195  0.0064 -0.1452 -0.1034
17568W        W60481  34.438  33.315  15.575  0.1782 -0.1941  0.1301
17569W        W60482  22.145  34.321  28.597 -0.0858 -0.0082  0.0251
17570W        W60483  30.816   1.570  20.472  0.1028 -0.1381  0.0170
17571W        W60484   2.727   7.027  20.045  0.3046 -0.1233 -0.0233
17572W        W60485  32.257  26.256  22.911 -0.3233 -0.0728 -0.1837
17573W        W60486   4.405  18.158  26.413  0.1576 -0.1468  0.0405
17574W        W60487  33.364  25.238  19.633 -0.0418 -0.4168 -0.1239
17575W        W60488  15.304  33.755  22.564 -0.0902  0.0175  0.0846
17576W        W60489  31.050  15.723  21.822 -0.1734  0.1593 -0.2548
17577W        W60490   2.781  22.904  17.948  0.1097 -0.1387 -0.2921
17578W        W60491   0.275  25.834  27.067 -0.1338 -0.0555 -0.1780
17579W        W60492   1.319  25.627  20.605 -0.0971 -0.3620  0.0116
17580W        W60493   7.066  33.175  21.974  0.2718 -0.2294  0.0829
17581W        W60494  14.205  28.857  28.245  0.2101 -0.0929  0.0597
17582W        W60495  33.998  15.122  16.933  0.1755  0.1406  0.1342
17583W        W60496   2.304  26.013   0.314 -0.0428 -0.2742 -0.0437
17584W        W60497  31.906  33.262  17.240 -0.0966  0.1670 -0.0391
17585W        W60498   0.185  24.383  26.796  0.1336  0.0300  0.0652
17586W        W60499   4.143   0.782  25.854  0.1190  0.0417 -0.0534
17587W        W60500   2.512  27.812  19.955  0.0481  0.0563 -0.0708
17588W        W60501   8.414   0.999  22.770 -0.1601  0.0681  0.1213
17589W        W60502  29.068  24.090  18.724  0.0809  0.1240  0.0817
17590W        W60503   1.174   2.167  21.336 -0.1260  0.1729 -0.0723
17591W        W60504  23.217  27.909  19.313  0.1173 -0.2700  0.0813
17592W        W60505   1.414  29.685  19.800 -0.1174 -0.1544  0.1165
17593W        W60506   3.253  27.953  19.393 -0.0086  0.2400  0.1663
17594W        W60507  28.420   6.802  21.415 -0.1647  0.1950  0.1525
17595W        W60508  31.584  31.125  16.418 -0.1442  0.2285 -0.1282
17596W        W60509   4.901  28.524  21.510 -0.1778  0.3284 -0.1002
17597W        W60510   4.540  29.763  25.862  0.4180  0.1457 -0.0239
17598W        W60511  21.794   5.140  24.118  0.0744 -0.2162  0.0380
17599W        W60512  13.725  33.174  19.713 -0.0008  0.0211  0.0348
17600W        W60513   2.420  19.136  14.575 -0.3245 -0.0330  0.2056
17601W        W60514   1.854  28.836   0.840 -0.2090  0.3033 -0.0978
17602W        W60515  30.005  34.094  18.516  0.2661 -0.1332  0.2635
17603W        W60516  32.651   2.923   1.062 -0.0784  0.0793  0.0618
17604W        W60517   5.599  19.763  20.247  0.3196 -0.0915  0.2927
17605W        W60518  34.441  29.542  21.675  0.0145  0.3226 -0.0471
17606W        W60519   6.676  34.135  21.117  0.3134 -0.2891  0.0379
17607W        W60520   6.781   3.207  19.091 -0.1534 -0.0289  0.1067
17608W        W60521   0.597  23.827  16.272 -0.2958 -0.0933  0.1720
17609W        W60522  28.101  21.331  19.326  0.1797  0.1379  0.5446
17610W        W60523   1.430   5.512  24.694  0.2091  0.1104 -0.1814
17611W        W60524  10.429  29.380  22.650 -0.0588 -0.1723  0.0220
17612W        W60525  23.101  33.370  17.502 -0.1042  0.1123 -0.0775
17613W        W60526   5.574   5.130  23.511 -0.2113  0.0250  0.0117
17614W        W60527  30.890  32.390  24.525  0.0359  0.1911  0.0858
17615W        W60528  31.505   3.280  24.185  0.1977  0.0664  0.3275
17616W        W60529  30.982  16.545  22.254 -0.1906  0.2068  0.0502
17617W        W60530  11.954  22.458  15.282  0.2692  0.0280 -0.2580
17618W        W60531  10.694  26.449  17.474  0.3128 -0.1004 -0.2835
17619W        W60532   0.816  20.142  25.580 -0.1729  0.3684  0.0838
17620W        W60533  33.643   4.949  22.560 -0.1853  0.0121  0.1226
17621W        W60534   1.954  29.966  19.560 -0.0737 -0.0654  0.2153
17622W        W60535   3.215  24.528  21.760  0.1855  0.0111  0.0807
17623W        W60536  34.065   2.566  21.429 -0.2479  0.3937 -0.0721
17624W        W60537  21.240  23.214  19.193 -0.1185  0.2573  0.2231
17625W        W60538   6.104  32.736  16.768  0.0758 -0.0100  0.0811
17626W        W60539   4.161   0.928   4.853  0.1915 -0.4689 -0.2503
17627W        W60540   1.827   0.148  18.031  0.0172  0.2010 -0.1578
17628W        W60541  32.240  33.191  20.163 -0.0629 -0.1296  0.0951
17629W        W60542  29.892  24.718  22.438  0.2452  0.1074  0.0619
17630W        W60543  25.754  32.402  17.185 -0.3262 -0.0868  0.3802
17631W        W60544   7.534  25.425  19.575  0.2132  0.2036  0.2007
17632W        W60545  31.192  25.925  15.926 -0.2621 -0.0805 -0.0325
17633W        W60546  34.388  29.709  26.750 -0.2575 -0.0125  0.1382
17634W        W60547  16.123  33.866  18.056  0.2637  0.0981 -0.0128
17635W        W60548  28.482  20.944  14.958  0.0679 -0.2775 -0.1466
17636W        W60549  34.090   8.220  16.184  0.0839  0.1754 -0.1287
17637W        W60550  30.964   7.086  24.515  0.2314  0.1470 -0.0009
17638W        W60551  32.540  15.147  17.280 -0.0838  0.1498 -0.0297
17639W        W60552  31.326  32.826  23.208 -0.0818 -0.2697 -0.3298
17640W        W60553   0.389   1.728  15.648  0.0451  0.1733 -0.2263
17641W        W60554  16.220   1.754  28.334 -0.3394  0.1868 -0.1537
17642W        W60555  28.403  27.921  24.154 -0.3931  0.1533  0.0336
17643W        W60556  31.640   2.289  20.644  0.1741  0.1115 -0.0093
17644W        W60557   3.379  25.224  16.404  0.0367 -0.3404  0.0582
17645W        W60558  31.624  27.801  25.236 -0.4209  0.1037  0.0325
17646W        W60559   1.089  31.695  22.236 -0.0550  0.0123 -0.0502
17647W        W60560  27.544  10.193  29.565 -0.1384 -0.0253 -0.1158
17648W        W60561   1.900  31.215   2.352  0.2323 -0.3576 -0.0711
17649W        W60562  30.655  23.445  15.741 -0.1075 -0.0965  0.3699
17650W        W60563   5.370  32.466  21.063 -0.0192  0.2373 -0.1239
17651W        W60564  31.460  16.719  14.895  0.1699 -0.0233 -0.0276
17652W        W60565  29.738   3.019   8.654  0.0339 -0.0238 -0.1025
17653W        W60566  32.749   2.370  23.130  0.1614  0.3002  0.1391
17654W        W60567  32.285  31.116  14.203  0.2520 -0.1513  0.4080
17655W        W60568  33.989   5.932  20.417 -0.2850 -0.0771  0.3061
17656W        W60569  32.041  31.020   1.017  0.0268  0.1751  0.2055
17657W        W60570   3.043  22.277  22.421  0.0483  0.2386  0.2015
17658W        W60571   1.396  17.107  19.508 -0.0184  0.0151  0.2673
17659W        W60572   5.225  17.418  19.959  0.0390 -0.1662  0.0310
17660W        W60573   7.474   4.934  18.727 -0.0997  0.1248 -0.1314
17661W        W60574   4.810   0.876  19.266  0.0315  0.0511  0.1269
17662W        W60575  14.918  28.748  17.450  0.2142  0.3737 -0.1053
17663W        W60576  27.149   1.397  15.941  0.1065  0.0760 -0.1126
17664W        W60577   3.120  26.332  19.062 -0.0854 -0.0393  0.0358
17665W        W60578   5.437  33.686  18.085  0.0458 -0.0046  0.1837
17666W        W60579   5.555   4.027  19.768  0.2035  0.0543  0.0175
17667W        W60580  33.512  28.388  18.236 -0.1822 -0.0681  0.2889
17668W        W60581   6.852  13.861  25.022  0.2504  0.0385  0.4593
17669W        W60582   0.132   2.077  29.684  0.0713  0.0359 -0.2571
17670W        W60583   2.619  23.299  16.039  0.4683  0.1198  0.1411
17671W        W60584  30.813  14.125  17.433  0.3120 -0.0248 -0.0813
17672W        W60585   5.535  31.377  24.360  0.0255  0.0783  0.1984
17673W        W60586  27.939   3.179  14.827 -0.3198 -0.0514  0.0490
17674W        W60587  34.442  20.938   3.242 -0.1412  0.3634 -0.0938
17675W        W60588  13.653   1.160  21.062 -0.1947 -0.0100 -0.2218
17676W        W60589   3.526  27.483   7.057  0.2277 -0.0805 -0.0050
17677W        W60590   0.549  29.257   0.712 -0.1571  0.2082 -0.0647
17678W        W60591   0.751  33.730  16.145  0.1658  0.1069 -0.2382
17679W        W60592   5.994  32.625  18.196  0.1355 -0.2895 -0.0522
17680W        W60593   2.784   0.103  26.001  0.0598  0.0444  0.1795
17681W        W60594  16.933   6.624   1.319  0.1711 -0.2723 -0.0159
17682W        W60595  22.367  30.239  23.155 -0.1270  0.2696  0.1631
17683W        W60596  31.650  24.461  17.765  0.2819  0.1655  0.1475
17684W        W60597  30.782  31.494  24.683  0.0038 -0.3108  0.4894
17685W        W60598  22.848  28.957   0.695  0.3555  0.0040  0.4074
17686W        W60599   2.219  33.243  15.376  0.2745 -0.0383 -0.2280
17687W        W60600   2.628  14.638  20.825 -0.1664  0.3396  0.1087
17688W        W60601  32.623  33.252  28.929  0.1088  0.4826  0.0560
17689W        W60602  31.911  22.727  18.163  0.0636 -0.1291  0.5003
17690W        W60603   4.359   4.682  22.823 -0.1377  0.0213 -0.2043
17691W        W60604   4.639  30.511  15.077  0.0470 -0.0563 -0.0625
17692W        W60605  33.885  26.568  25.620 -0.0999  0.1461 -0.2902
17693W        W60606  34.053  28.302  16.126  0.1570  0.0985 -0.0268
17694W        W60607  33.435  31.236  18.916 -0.1771  0.0507 -0.1982
17695W        W60608   0.635  22.852  18.549  0.2037 -0.1853 -0.1845
17696W        W60609  34.248  22.976  20.912 -0.2344 -0.1118 -0.3631
17697W        W60610   2.388   3.673  23.180  0.1844  0.0751  0.1783
17698W        W60611   5.940  19.796  26.257  0.1093  0.0975  0.0058
17699W        W60612   9.199  31.601   5.208 -0.0161 -0.2870  0.1408
17700W        W60613   5.571  19.993   0.926 -0.0441  0.5549  0.0284
17701W        W60614   4.848  23.971  22.549 -0.2499 -0.0992 -0.0608
17702W        W60615  30.130  25.866  20.659  0.5753 -0.0796  0.5692
17703W        W60616  32.058  31.025  15.085 -0.0621  0.2689  0.2374
17704W        W60617  32.144  28.839  16.446 -0.1567  0.2262  0.0282
17705W        W60618  33.828  29.639  20.796  0.2188  0.1244 -0.1435
17706W        W60619  31.270  30.697  20.020 -0.2603  0.1794  0.0812
17707W        W60620  27.173  34.362  23.696 -0.1132  0.0705  0.0057
17708W        W60621  33.721  28.736  21.376 -0.0256 -0.0817  0.0602
17709W        W60622  26.649   0.272  27.392 -0.2895 -0.1037  0.1404
17710W        W60623  32.216  30.522  18.708 -0.0872 -0.4039  0.0658
17711W        W60624  27.492   1.655  15.154 -0.0117 -0.0622  0.2038
17712W        W60625   7.744  11.058  29.049 -0.1137 -0.0403  0.1476
17713W        W60626   4.028  19.723  21.668 -0.0262 -0.1077  0.0148
17714W        W60627  30.650  31.099  14.209 -0.0345 -0.0296 -0.2989
17715W        W60628   1.857  14.063  28.853 -0.2702 -0.2490  0.1980
17716W        W60629  32.583   0.310  25.174 -0.4139 -0.2530 -0.2071
17717W        W60630   2.194   0.866  22.119 -0.0038  0.1855 -0.1640
17718W        W60631  17.009  30.455  24.016  0.2190 -0.2755 -0.2546
17719W        W60632   1.798  30.134  24.339  0.1211  0.2741  0.0324
17720W        W60633   3.236  22.304  15.224 -0.1326 -0.3093  0.1541
17721W        W60634   8.158  16.446  28.287 -0.2764 -0.0221  0.2381
17722W        W60635  33.476  32.508  17.060  0.1493 -0.1393  0.1000
17723W        W60636   0.964  28.198  24.066 -0.0290  0.4333  0.1205
17724W        W60637   6.128   1.947  20.244 -0.1875  0.0297  0.1673
17725W        W60638   1.049  22.970  22.823  0.0390 -0.2108 -0.0191
17726W        W60639   3.039  27.752  21.956  0.1320 -0.2097 -0.1119
17727W        W60640   0.004  23.398   1.507  0.2373 -0.1163  0.2396
17728W        W60641  29.075  28.455  15.676 -0.2271  0.0522  0.2280
17729W        W60642   6.378  30.230  27.157  0.0618 -0.2965 -0.2081
17730W        W60643   3.163   1.464  18.476 -0.0075 -0.2045 -0.2739
17731W        W60644  32.749  31.405   3.881 -0.1457  0.0213  0.0078
17732W        W60645   1.443  30.131  15.742 -0.0789  0.2797  0.0649
17733W        W60646   1.523  16.609  21.720 -0.2969 -0.1246  0.1121
17734W        W60647   8.702  30.073  21.018  0.0077 -0.1542  0.1499
17735W        W60648  26.411  30.156  17.248 -0.0171  0.1930 -0.1343
17736W        W60649  23.056   7.339  23.573  0.3757 -0.0054 -0.2887
17737W        W60650  32.749  17.331  28.305  0.0500  0.0975 -0.1654
17738W        W60651  25.794   1.924  15.591 -0.0311 -0.0512  0.0787
17739W        W60652  34.219  32.651  21.741 -0.0199  0.0544 -0.3157
17740W        W60653   5.723  27.588  29.497 -0.2381  0.1634 -0.0011
17741W        W60654   6.438  30.489  15.135  0.1751  0.2610 -0.1329
17742W        W60655  31.796  28.562  16.199  0.3088  0.0100 -0.3445
17743W        W60656  24.595   0.488  16.183 -0.4115 -0.2913  0.3724
17744W        W60657   0.627  21.989  24.254 -0.0162  0.0390  0.1132
17745W        W60658   4.889   3.836  24.300  0.0808 -0.1720 -0.2700
17746W        W60659   0.252  28.451  18.863  0.0607  0.0806  0.2296
17747W        W60660  33.125  24.057  27.170 -0.4928 -0.1080  0.3369
17748W        W60661   4.375  22.260  24.528  0.0280  0.0160  0.0885
17749W        W60662  31.864  24.538  18.271  0.0432 -0.0642  0.1113
17750W        W60663  29.088  10.774  21.949  0.0635 -0.2624  0.1886
17751W        W60664  33.129  26.984  25.923 -0.2388  0.0015  0.0550
17752W        W60665   1.044   2.709  28.375  0.3276 -0.1541  0.1631
17753W        W60666  24.140  27.683  19.488 -0.1401  0.0352  0.0105
17754W        W60667  27.907   0.540  19.432  0.2682 -0.2843 -0.2775
17755W        W60668  25.952  28.192   0.182  0.0776 -0.1151 -0.2493
17756W        W60669  31.548  31.302  23.155  0.0343 -0.3995  0.2233
17757W        W60670   1.512  20.740  28.291 -0.0293 -0.1750  0.0849
17758W        W60671  23.299  29.379  24.310 -0.1565 -0.0014  0.4977
17759W        W60672   3.695  33.270  28.961 -0.1346  0.1426  0.3800
17760W        W60673  34.012  29.211  19.773  0.1426 -0.2072  0.1297
17761W        W60674  31.210   0.598  23.371 -0.1635  0.4537  0.3353
17762W        W60675  33.657  30.824  21.763 -0.1411  0.0487 -0.0616
17763W        W60676   3.751  16.191  25.795 -0.0172 -0.3122 -0.1278
17764W        W60677   5.502  26.857  16.360  0.2094 -0.1226 -0.0072
17765W        W60678   1.637  28.077  19.737 -0.0184  0.3427 -0.3355
17766W        W60679   2.097  29.043  17.414  0.0580 -0.0908 -0.1207
17767W        W60680  16.025  28.818  29.312 -0.1698  0.2811  0.3444
17768W        W60681  11.502  33.909  18.567 -0.2257 -0.4919 -0.1043
17769W        W60682   4.261  28.913  22.053  0.1212 -0.2552 -0.3033
17770W        W60683   5.946  29.894   0.200  0.0072 -0.0040  0.0433
17771W        W60684  27.841  26.843  28.129  0.2329 -0.2021  0.1215
17772W        W60685  31.393  24.831  17.316 -0.1783  0.1981  0.3013
17773W        W60686   3.936  29.646  20.658  0.0509  0.2212 -0.2033
17774W        W60687   6.559  19.360  14.927 -0.0432  0.1577 -0.2123
17775W        W60688  30.844  21.628  15.745 -0.3977 -0.0225  0.1083
17776W        W60689  12.789   5.305  27.207 -0.1194  0.0072  0.0265
17777W        W60690   0.981  31.904  16.799  0.1114 -0.0706  0.2200
17778W        W60691  24.110  25.172  22.404 -0.0965  0.0715 -0.0252
17779W        W60692  13.323  30.195   0.448 -0.0600  0.4837  0.1007
17780W        W60693  10.535   1.193  17.968  0.1085  0.0238 -0.2203
17781W        W60694  28.478  31.796  21.541  0.0140  0.2016  0.0631
17782W        W60695   3.623  33.173  16.741  0.0818  0.2238 -0.2173
17783W        W60696   4.890  24.592  26.143  0.0720  0.1059  0.1851
17784W        W60697   5.833  26.266  26.370  0.0591  0.2399 -0.1041
17785W        W60698   4.671  25.452  24.820  0.0907  0.1245 -0.2869
17786W        W60699  32.565   8.245  19.796 -0.1485  0.2952  0.4589
17787W        W60700  30.540  28.071  19.745  0.0519 -0.1373 -0.1324
17788W        W60701   1.612  26.847  21.783 -0.0110  0.0361  0.1259
17789W        W60702   0.458  28.918  20.269 -0.5004 -0.2244 -0.0570
17790W        W60703   2.415  24.187  26.303  0.0812 -0.1557  0.1459
17791W        W60704   3.968  33.029  19.224 -0.0306  0.1057  0.1809
17792W        W60705   0.026  28.862  14.554  0.4062  0.2926  0.0991
17793W        W60706   1.078  29.534   1.737  0.1201 -0.0934 -0.0387
17794W        W60707   5.167  17.317   0.498  0.4899  0.1254 -0.0448
17795W        W60708  27.277   2.125   0.858  0.2012 -0.1756  0.2249
17796W        W60709   5.708  26.338  22.969 -0.0425  0.3047  0.1222
17797W        W60710  29.593  31.061  18.929  0.0071 -0.0148  0.1568
17798W        W60711  26.506  31.847  23.246 -0.0419  0.0208 -0.0990
17799W        W60712   2.407  33.095  14.947  0.1280  0.3547  0.2495
17800W        W60713  31.909  27.078  15.247  0.2834 -0.2261  0.2249
17801W        W60714   6.983  26.266  17.647 -0.2425 -0.2372  0.1984
17802W        W60715   4.657   7.290  20.344  0.0201  0.1431 -0.0178
17803W        W60716  33.408  19.268  13.658  0.1303 -0.1978  0.2653
17804W        W60717  33.713  30.902  19.185 -0.4354  0.1498  0.2452
17805W        W60718   4.428  26.432  25.567  0.1005 -0.0550 -0.3654
17806W        W60719  12.229   3.411  18.025  0.0550 -0.2281 -0.0136
17807W        W60720  10.936   1.287  25.496  0.1979 -0.3829 -0.0684
17808W        W60721  33.044  32.781  23.008  0.2318 -0.1722  0.2307
17809W        W60722  12.137   1.260  27.394 -0.0960  0.3140  0.0862
17810W        W60723  30.557  20.321  16.652 -0.2333 -0.2621  0.2847
17811W        W60724   3.885  22.391  16.833 -0.0467  0.1017 -0.1833
17812W        W60725  32.345   3.126  22.982  0.0300 -0.0954  0.2396
17813W        W60726   0.931  33.731  22.579  0.0297  0.0579  0.1545
17814W        W60727  28.044  26.741  29.581 -0.1357 -0.2576 -0.0667
17815W        W60728   7.721  32.714   1.183  0.0317 -0.1688  0.0776
17816W        W60729   2.360  22.874  27.997  0.2723 -0.1267  0.3022
17817W        W60730   1.676  26.082   1.316  0.4175 -0.2300 -0.0639
17818W        W60731   8.105   2.998  17.400  0.0548 -0.1258  0.1004
17819W        W60732  28.590   4.741   3.908 -0.1009 -0.1308 -0.1314
17820W        W60733  30.260   1.904  15.991 -0.3827 -0.1542 -0.0035
17821W        W60734  26.787  31.655  20.775  0.1366  0.2463 -0.3379
17822W        W60735  25.122  29.828  19.677  0.1221  0.1459  0.0984
17823W        W60736   2.318  32.005  15.736  0.0770 -0.1718 -0.2089
17824W        W60737  10.736  26.938  23.260 -0.2992  0.1799 -0.0173
17825W        W60738   7.738  34.180   2.392 -0.1795 -0.1372 -0.1023
17826W        W60739   2.028   3.682  20.109 -0.0247 -0.1109  0.2716
17827W        W60740   1.594  19.445  17.104 -0.1234  0.0739  0.4531
17828W        W60741  33.668  28.110  24.677 -0.0212  0.0708  0.0837
17829W        W60742  27.220  31.954  24.275  0.0706  0.1096  0.2110
17830W        W60743   2.412  22.948  16.498 -0.1000  0.0473  0.1649
17831W        W60744   1.019  28.088  19.029 -0.1486 -0.2127 -0.2990
17832W        W60745   2.037  18.629  17.928  0.1539 -0.0465  0.3783
17833W        W60746   2.919   5.558   0.803  0.0218 -0.0798  0.0902
17834W        W60747   1.973  30.772  20.667  0.0175  0.0755 -0.1756
17835W        W60748   0.709  30.804  18.770  0.0684 -0.1041 -0.1268
17836W        W60749   6.925   3.848  24.969  0.0444 -0.1672  0.2425
17837W        W60750  27.523  27.799  14.347  0.1843  0.1150  0.0322
17838W        W60751  27.475  32.899  24.595 -0.3546 -0.0159 -0.0260
17839W        W60752   2.060  28.116  26.080  0.1649  0.4820 -0.0417
17840W        W60753  24.488  32.758   0.416 -0.2597  0.0466 -0.3654
17841W        W60754   0.985  27.331  24.322 -0.3638  0.1467 -0.1498
17842W        W60755  33.904  20.847  20.551 -0.2830 -0.2333  0.0526
17843W        W60756   9.377  27.067  21.403 -0.1469  0.0100 -0.2379
17844W        W60757   2.037  25.491  28.505 -0.0176 -0.0761  0.1775
17845W        W60758  32.628   4.201  20.884  0.0417 -0.2181 -0.0035
17846W        W60759   0.851  27.028  18.338  0.1540  0.1515 -0.3962
17847W        W60760  25.790   1.441   0.680  0.1363  0.1483 -0.5276
17848W        W60761  32.342  32.392  27.997 -0.1532 -0.1729 -0.1621
17849W        W60762   4.040  31.841  16.686 -0.2056  0.0010 -0.1944
17850W        W60763  11.107  17.715   1.561  0.2340 -0.2672  0.0250
17851W        W60764   4.046  29.918  22.420 -0.0372 -0.0836  0.1079
17852W        W60765  31.580  29.089  25.922 -0.0069 -0.0463  0.0721
17853W        W60766   4.761  22.623  16.214  0.1097 -0.1652 -0.2558
17854W        W60767  30.278  33.371  14.543 -0.1192 -0.1144 -0.1761
17855W        W60768   9.897  29.009  26.170 -0.2107 -0.1125  0.2008
17856W        W60769  26.772  32.506  17.009 -0.1208 -0.0171 -0.2292
17857W        W60770   3.845  25.031  23.145 -0.4271  0.0316 -0.0278
17858W        W60771  34.405   4.164  17.268  0.1454 -0.0269 -0.2671
17859W        W60772   2.872  29.477  15.984  0.3463 -0.0290  0.1598
17860W        W60773  29.030  19.779  24.568 -0.4437  0.1393  0.0526
17861W        W60774   0.260  18.809  25.687 -0.2252  0.0518 -0.1605
17862W        W60775   2.558  32.603  22.373  0.1970 -0.2960 -0.2076
17863W        W60776  26.684  31.471  21.475  0.0488 -0.1087 -0.1781
17864W        W60777  12.780  27.844  15.790 -0.2764  0.0307  0.0751
17865W        W60778  24.318   4.281  15.955  0.0899  0.0525 -0.0181
17866W        W60779  31.044  24.059  24.188 -0.0364  0.1101 -0.0976
17867W        W60780   3.462  16.168  21.102  0.0375  0.1352  0.2851
17868W        W60781   8.821  34.103  18.878  0.2845  0.1700 -0.1472
17869W        W60782   3.513  32.137  20.874  0.1345  0.1706 -0.1877
17870W        W60783   0.366  29.545  20.883 -0.1082  0.0365 -0.0606
17871W        W60784   8.020  26.725  21.861  0.3134  0.1834  0.1427
17872W        W60785  27.500  31.070  28.638 -0.0490  0.1943  0.2330
17873W        W60786  28.482  27.391   2.787 -0.2976  0.0699  0.1461
17874W        W60787  11.143  19.319  25.107  0.3157 -0.0594 -0.1505
17875W        W60788   8.420   2.433  20.391 -0.2771 -0.1992  0.1070
17876W        W60789   6.354   4.920  21.979 -0.2139 -0.2525  0.0580
17877W        W60790  32.216   0.630   2.860 -0.2828 -0.0758 -0.3222
17878W        W60791  29.158  28.971  21.873  0.2691  0.0928 -0.4109
17879W        W60792   3.617  20.014   0.399 -0.1130 -0.2615  0.5541
17880W        W60793  30.519  34.307  26.829  0.3176  0.1110 -0.0233
17881W        W60794   1.069  18.482  28.531  0.0078 -0.0056 -0.2979
17882W        W60795   5.462  25.180  24.750  0.2377 -0.1353 -0.1193
17883W        W60796   2.292  26.303  19.643  0.0562 -0.2385 -0.0668
17884W        W60797  29.489  25.309  28.952  0.2321  0.4277 -0.1486
17885W        W60798   6.285  28.721  27.381 -0.0863  0.3026 -0.1545
17886W        W60799  30.279   1.071   2.434  0.3957 -0.2212 -0.3087
17887W        W60800  31.202  28.856   1.371 -0.3895  0.4264  0.0753
17888W        W60801   7.162  33.091  18.284  0.2583 -0.0167  0.1175
17889W        W60802  26.368  29.966  22.597 -0.2902  0.0379  0.0578
17890W        W60803  30.013  34.192  26.861 -0.2487 -0.0604 -0.0129
17891W        W60804   6.732  20.827  19.251 -0.2521 -0.1550  0.1543
17892W        W60805  28.958  28.915  16.740  0.0703 -0.3253  0.0800
17893W        W60806   0.885  26.275  16.140 -0.0459 -0.1375 -0.3996
17894W        W60807   2.775  25.594  21.506 -0.1130 -0.3004  0.4334
17895W        W60808  31.670  20.272   2.509 -0.0049 -0.1035 -0.2545
17896W        W60809  14.878  19.319  24.557 -0.2878 -0.0475 -0.0020
17897W        W60810  31.277   5.520  18.752 -0.3016  0.0408  0.1036
17898W        W60811  32.795  30.036  22.567 -0.0276  0.1208 -0.3931
17899W        W60812  11.215   4.308  21.002  0.1586  0.3976  0.0212
17900W        W60813  30.691  34.319   0.616  0.0009  0.1555  0.0891
17901W        W60814  27.653  31.985  23.986 -0.2982  0.0559  0.0426
17902W        W60815   1.715  18.035  20.184 -0.0718 -0.0452  0.1059
17903W        W60816  29.211  28.633  22.837 -0.4519 -0.0036 -0.1710
17904W        W60817   3.813  29.392  15.107 -0.0717 -0.1623 -0.2333
17905W        W60818  31.428   4.798  17.634  0.0284  0.1540  0.2838
17906W        W60819   4.181   5.050  25.456 -0.0558 -0.0632  0.2567
17907W        W60820   7.696  15.952  15.310  0.1359 -0.1481 -0.1579
17908W        W60821   1.199  29.534  23.000  0.0595 -0.0161  0.0081
17909W        W60822   8.270  27.031  18.280 -0.0372  0.0414 -0.3367
17910W        W60823  28.502   3.774  25.282 -0.1563  0.0881 -0.1057
17911W        W60824   6.215  18.730  22.523  0.0094  0.2306 -0.0807
17912W        W60825   1.225  26.245   0.197  0.0733  0.1571  0.2622
17913W        W60826  27.564  14.797  22.139  0.0907 -0.1092  0.0301
17914W        W60827  27.943  16.671  17.672  0.2494  0.3182 -0.1884
17915W        W60828   2.279  29.552  18.774  0.1244  0.1048 -0.0947
17916W        W60829  10.160  27.257  23.409 -0.5478 -0.0747 -0.0177
17917W        W60830  26.042  29.894  25.230  0.0577 -0.2053 -0.2466
17918W        W60831  31.778   0.823  28.495  0.2655  0.2589 -0.1618
17919W        W60832  25.781  31.101  24.408  0.3357  0.3404 -0.0006
17920W        W60833  34.278  28.773  15.462  0.1467  0.0723 -0.0962
17921W        W60834  24.151  23.186   0.168  0.0256  0.0427 -0.1187
17922W        W60835   3.840   0.704  17.360  0.1370 -0.1828  0.2786
17923W        W60836  32.735  32.578  27.162  0.1200 -0.1228 -0.0938
17924W        W60837  30.209  34.105  20.373  0.2518 -0.0599 -0.1810
17925W        W60838   2.835  22.901  19.109  0.1888  0.0293  0.5145
17926W        W60839  21.070  24.743  14.013  0.3222  0.0313  0.0700
17927W        W60840   0.439  20.762  19.053 -0.2892 -0.1139  0.0751
17928W        W60841  34.052   2.560  17.502 -0.0220 -0.0121 -0.1781
17929W        W60842  31.008  32.808  19.894 -0.2965 -0.0838  0.4387
17930W        W60843   4.832  31.294  20.042  0.2030 -0.1320 -0.2444
17931W        W60844   7.831   9.217  21.567 -0.4325  0.2067 -0.0286
17932W        W60845   3.288  33.453  19.843 -0.1823 -0.1217  0.2837
17933W        W60846  12.185   3.137  18.786  0.0611  0.1843  0.0211
17934W        W60847   7.219  22.928  28.841  0.3393 -0.0823  0.5023
17935W        W60848  22.153  30.617  26.586 -0.2313 -0.1260  0.5087
17936W        W60849   5.527  31.393  18.887 -0.2615  0.0926  0.1950
17937W        W60850  34.240  30.220  15.155  0.1395 -0.2132  0.1939
17938W        W60851   1.825  26.242  20.191 -0.1505  0.1137 -0.2273
17939W        W60852  30.741  30.355  18.081 -0.2726 -0.0407 -0.2073
17940W        W60853  13.639  32.250  19.464  0.3052 -0.0366 -0.0661
17941W        W60854  30.193  27.701  18.317 -0.0007  0.0304  0.2982
17942W        W60855   4.220  30.303  19.411  0.0183 -0.0067 -0.3624
17943W        W60856   3.257   0.840  17.904  0.0707  0.3319  0.2050
17944W        W60857  28.679   2.808   2.389 -0.1883 -0.0439 -0.3280
17945W        W60858  29.376  31.344  25.695 -0.1537  0.0330  0.2822
17946W        W60859  32.735  10.758  22.238 -0.4022 -0.1869 -0.4380
17947W        W60860  26.368  25.727  27.113  0.1075 -0.0572  0.1405
17948W        W60861  33.302  21.016  27.208  0.0463 -0.3627  0.3367
17949W        W60862   3.625  30.112  25.504  0.2025 -0.0206  0.1387
17950W        W60863  32.895  31.393  19.035 -0.2379 -0.1754  0.0983
17951W        W60864   4.976  29.129  23.813  0.0908 -0.0984 -0.1526
17952W        W60865   8.738   0.274  17.064 -0.0172  0.1741  0.2013
17953W        W60866  31.608  24.567  14.241  0.1655  0.1739 -0.0693
17954W        W60867  24.686  29.503  17.071  0.5329  0.0627  0.0367
17955W        W60868   8.849   9.401  23.058 -0.0355  0.0547  0.1511
17956W        W60869  32.644  32.129  20.163 -0.3839 -0.1713 -0.0597
17957W        W60870  32.216  33.240  20.715 -0.0058  0.1283 -0.1045
17958W        W60871   7.092  31.340  20.043 -0.2820 -0.0998 -0.1558
17959W        W60872  27.017  15.668  17.548 -0.2506  0.1437 -0.2971
17960W        W60873  29.979  34.198  24.949 -0.0894  0.0594 -0.1557
17961W        W60874   9.771  20.921  22.205  0.1374  0.0901  0.0051
17962W        W60875  32.597  21.659  16.501 -0.2866 -0.1040 -0.1047
17963W        W60876   1.191  28.511  26.908 -0.2171 -0.3007  0.1765
17964W        W60877  34.401   4.371  21.778 -0.1405  0.0978  0.0766
17965W        W60878  33.942  28.835  27.280  0.3117 -0.5334 -0.1021
17966W        W60879  31.721  18.302  19.846 -0.1992  0.0031 -0.0476
17967W        W60880  30.533  32.579  21.966 -0.0918  0.1064 -0.0296
17968W        W60881  31.521  34.253  18.368  0.1007 -0.0319 -0.4436
17969W        W60882  34.200   2.560   0.025 -0.0495 -0.1714  0.0611
17970W        W60883   4.271  28.477  24.103  0.1631 -0.3111 -0.0723
17971W        W60884   8.603  21.617  23.837 -0.1331  0.6262 -0.1268
17972W        W60885   8.468  20.505  18.444  0.0129 -0.0775  0.1271
17973W        W60886  11.367  29.500  19.705 -0.2032  0.0775  0.0544
17974W        W60887  14.225  30.186  26.540 -0.0148 -0.2717 -0.2428
17975W        W60888   5.413  30.726  15.621 -0.1380 -0.1927 -0.1917
17976W        W60889  32.971  23.603  15.275  0.1131  0.2625  0.1791
17977W        W60890  12.761  32.731  17.441 -0.0826 -0.3454 -0.2364
17978W        W60891  27.592  22.294  24.333  0.0765 -0.0046 -0.0580
17979W        W60892   1.364   8.873  16.167 -0.1987 -0.3435  0.1072
17980W        W60893  28.851  23.948  26.180 -0.0811 -0.0554 -0.0191
17981W        W60894   3.213   1.366  17.111 -0.0827 -0.1532 -0.2966
17982W        W60895   3.391  32.345  22.789 -0.0331  0.0553 -0.2099
17983W        W60896   4.580  33.412  29.371 -0.0176  0.0474 -0.1479
17984W        W60897  31.810  33.695  17.585  0.0808  0.2436 -0.0506
17985W        W60898   3.066  34.084  26.929  0.0044  0.1960 -0.0624
17986W        W60899   2.857  25.900  19.496 -0.1556 -0.1742  0.2362
17987W        W60900   4.930  30.120  22.806  0.2833 -0.0511 -0.1342
17988W        W60901   0.235  26.546  19.379  0.0160 -0.0495  0.1201
17989W        W60902  34.139  24.732  15.702 -0.1782 -0.1535  0.2105
17990W        W60903   4.689   2.088   9.563  0.4664  0.1115 -0.5043
17991W        W60904   1.683  30.771  22.301  0.1539  0.3275  0.1479
17992W        W60905  31.161   0.212  22.622 -0.4168 -0.0904 -0.4083
17993W        W60906   0.870  29.167  23.202  0.2339 -0.1363 -0.0665
17994W        W60907   0.306  24.912  27.905  0.1748  0.0846 -0.0254
17995W        W60908  28.263  27.404  23.658 -0.2142 -0.1505  0.0455
17996W        W60909   3.316  31.405  24.754  0.0086 -0.0482 -0.2510
17997W        W60910  11.622   1.184  21.753 -0.0212 -0.0347 -0.0687
17998W        W60911  30.795  32.001  28.569 -0.1159  0.1663 -0.2105
17999W        W60912  30.934   0.048  17.639 -0.0173  0.0603  0.2159
18000W        W60913   9.957   2.559  27.245  0.1580 -0.2215  0.0353
18001W        W60914   1.558   1.936  16.553  0.0325 -0.1860 -0.1389
18002W        W60915   1.882  28.438  16.779 -0.4450 -0.2910 -0.1919
18003W        W60916  31.452  29.131  18.839 -0.0151  0.1893  0.3046
18004W        W60917   9.005  32.947  18.810  0.2446  0.1261 -0.1389
18005W        W60918  33.740  21.192  23.749  0.2932 -0.1495 -0.0376
18006W        W60919   5.605  24.938  16.931 -0.1344 -0.0087  0.0230
18007W        W60920   5.644  30.589  24.293  0.0734  0.3489  0.1177
18008W        W60921   6.125  25.661   4.478  0.1420  0.0735 -0.1019
18009W        W60922  33.945  25.463  23.261 -0.1106 -0.0958 -0.1976
18010W        W60923   1.040  27.433  18.661  0.1686 -0.0832  0.2188
18011W        W60924  24.131   0.973  14.742 -0.0372 -0.1050  0.0080
18012W        W60925   1.540  26.208  19.764 -0.3515 -0.3630  0.2377
18013W        W60926  33.877  20.341  22.616  0.3618  0.1411  0.0750
18014W        W60927   8.718   2.430  22.905 -0.0500 -0.0101 -0.1332
18015W        W60928  29.647  23.784  24.538  0.2850  0.1354 -0.2599
18016W        W60929  10.545  19.925  22.751 -0.0315  0.2494 -0.2394
18017W        W60930   8.534  20.803   2.984 -0.3643 -0.0889 -0.1900
18018W        W60931   0.845  14.470  16.912  0.0568  0.0658  0.3057
18019W        W60932   1.301  15.402  25.587 -0.0953  0.2000  0.1034
18020W        W60933  29.271  24.686  21.475  0.1083  0.1160 -0.0804
18021W        W60934   6.760  31.203  17.590  0.0876  0.2055  0.1156
18022W        W60935   4.274  23.656   1.143 -0.2361  0.2203  0.3972
18023W        W60936   4.210  26.304  25.124  0.1436 -0.1288 -0.0411
18024W        W60937  31.091   8.316  22.638  0.0522  0.1471  0.0034
18025W        W60938  32.302   1.586  29.219  0.1404 -0.0207  0.2013
18026W        W60939   5.199  29.232  17.264 -0.2441 -0.0616  0.0555
18027W        W60940   4.552   1.134  19.624 -0.1204 -0.2388  0.1149
18028W        W60941  32.366  32.590  20.301  0.0565  0.1046 -0.1794
18029W        W60942  33.843  32.557   0.872  0.0260  0.1965 -0.3680
18030W        W60943   3.065  25.207  19.951  0.3144  0.1516 -0.0731
18031W        W60944   3.933  32.462  26.193 -0.0765 -0.0786 -0.2313
18032W        W60945  28.555   1.175  18.315  0.1808 -0.1468 -0.1171
18033W        W60946   0.687  30.214  25.193  0.3045  0.1845 -0.0328
18034W        W60947   7.014  30.796  20.386  0.2323  0.2665 -0.2013
18035W        W60948   2.007   1.462  18.196 -0.1155  0.0922  0.1394
18036W        W60949  30.468  25.769  18.091  0.2024 -0.2620  0.0527
18037W        W60950  29.529  10.661  22.759 -0.1310  0.0473 -0.1874
18038W        W60951  10.447  25.395  16.743 -0.1669  0.0952 -0.0012
18039W        W60952  26.115   0.892  28.426  0.0952 -0.0384 -0.3559
18040W        W60953  34.351  31.242  15.427 -0.1835  0.0837 -0.5870
18041W        W60954   2.166  31.135  27.003 -0.1247 -0.1165 -0.1134
18042W        W60955   4.947  28.415  19.754 -0.1917 -0.1257 -0.1934
18043W        W60956   4.475  33.139  19.077 -0.0178  0.1857  0.0177
18044W        W60957  30.952  16.315  16.239  0.2033 -0.0424 -0.2933
18045W        W60958  31.497   1.549  21.242  0.1132  0.1580  0.0761
18046W        W60959  23.454  27.707  20.667  0.3282  0.2682  0.0505
18047W        W60960  21.460  27.776   3.678  0.2018 -0.1842  0.4570
18048W        W60961  10.310  23.738  21.951  0.0248 -0.0865 -0.1477
18049W        W60962   5.353   0.292   2.772  0.0095  0.1766  0.2592
18050W        W60963   5.364   4.260  18.961  0.1351 -0.0795 -0.1305
18051W        W60964  34.116  21.900  27.581 -0.0795  0.0726  0.0568
18052W        W60965  32.141   2.364  20.680  0.0415  0.0661 -0.3374
18053W        W60966  27.107   0.745  18.360  0.2121  0.0614  0.1194
18054W        W60967   6.577  32.886  16.598  0.1676 -0.0370 -0.0469
18055W        W60968   3.269  18.089  23.364  0.0676  0.1331 -0.0321
18056W        W60969   4.329   1.506  20.523  0.0432 -0.1145  0.1169
18057W        W60970  24.239   2.790  27.348 -0.2514 -0.3354 -0.0307
18058W        W60971   4.002  33.017  24.183 -0.3154  0.2920 -0.1219
18059W        W60972  30.472   3.316   2.955 -0.1537 -0.0802 -0.0625
18060W        W60973   2.464  26.683  21.456  0.0887  0.0264 -0.2501
18061W        W60974  30.476  29.982  22.254 -0.2176  0.3862  0.5263
18062W        W60975   0.653   4.636  26.616 -0.0169 -0.0019  0.1682
18063W        W60976  12.856  21.264  23.845  0.2077  0.1261 -0.0331
18064W        W60977   9.082  21.129  16.889 -0.1412 -0.0815  0.0768
18065W        W60978   0.431  28.630  25.264 -0.0389  0.1112 -0.0927
18066W        W60979   2.143  31.065  29.051 -0.4545  0.2366 -0.3134
18067W        W60980  28.075   1.284  23.192 -0.2420 -0.1501  0.0668
18068W        W60981   5.433  30.876  25.251  0.0699 -0.0884  0.1113
18069W        W60982  10.273  21.796  23.897  0.1795  0.2281  0.0891
18070W        W60983   1.214  23.315  19.531 -0.0638  0.0236  0.1240
18071W        W60984   0.879  32.156  23.129  0.2482 -0.0850  0.0664
18072W        W60985   7.631   0.244  19.567  0.2571  0.1365  0.2073
18073W        W60986   1.385  32.582  27.230  0.0956 -0.1611 -0.1291
18074W        W60987  16.385  31.645   1.068  0.1832  0.1596  0.0916
18075W        W60988  31.515   3.218  28.632  0.1360 -0.3931 -0.2143
18076W        W60989   0.595  28.221  26.113 -0.0953  0.0568  0.0903
18077W        W60990  14.239  20.331  27.926 -0.1467 -0.5297 -0.1275
18078W        W60991  33.470  24.912  25.717  0.0758  0.1617 -0.0331
18079W        W60992   3.337  23.379  24.190  0.2448  0.0360 -0.0702
18080W        W60993  34.026  25.837   0.406  0.1830  0.0039 -0.1781
18081W        W60994  32.747  34.244   2.024 -0.0342  0.1165 -0.1270
18082W        W60995   1.481  30.653  19.760  0.0357  0.2666  0.1501
18083W        W60996  32.630  21.779  17.533  0.1140  0.1437  0.6045
18084W        W60997   6.433  25.386  17.453 -0.0210  0.1406 -0.1781
18085W        W60998   3.659  21.592  14.710  0.2689  0.5130  0.0435
18086W        W60999   6.655  24.163  14.713 -0.1166 -0.1532 -0.1086
18087W        W61000  26.824  24.037  21.513  0.1148  0.1319  0.2032
18088W        W61001   1.428  10.734  18.559 -0.0212  0.1404 -0.1661
18089W        W61002  31.189   3.313  17.733  0.2208 -0.0997  0.0031
18090W        W61003  23.322  20.469  20.171 -0.0140  0.1608 -0.1003
18091W        W61004  33.301  34.228  19.022 -0.1174  0.2877 -0.1232
18092W        W61005  29.690  14.008   1.916  0.0671  0.1088 -0.2379
18093W        W61006  31.854  13.638  20.731 -0.0597 -0.1957 -0.0016
18094W        W61007  31.268  29.795  16.856  0.2206  0.1511  0.1764
18095W        W61008  33.683  22.442  22.523 -0.2123 -0.0850  0.0454
18096W        W61009  27.619  23.604  24.625 -0.5078 -0.1956  0.0294
18097W        W61010  31.549  31.686  21.619  0.0631  0.0245  0.1071
18098W        W61011  14.214  30.550  22.815  0.4147  0.2160 -0.1645
18099W        W61012  10.421  32.377  25.506 -0.1093 -0.2712 -0.2142
18100W        W61013   4.491   2.616  19.578 -0.1511 -0.2610  0.0516
18101W        W61014  28.338   1.295  23.650 -0.4080  0.1894  0.1560
18102W        W61015  33.789  28.165  23.430  0.1392 -0.0384 -0.1053
18103W        W61016   1.359  27.285  26.137 -0.1016  0.2741  0.2461
18104W        W61017   6.603  26.359  15.045  0.2291  0.1935  0.1441
18105W        W61018  33.774  24.895  25.315  0.0507  0.0726 -0.0092
18106W        W61019   3.348  23.178  19.902 -0.0154 -0.3255 -0.1620
18107W        W61020  29.245   2.918  19.569  0.1167  0.0521  0.0053
18108W        W61021  29.833  32.464   1.399 -0.2387  0.3860  0.1080
18109W        W61022  26.042  31.189  26.213 -0.0609 -0.2149  0.1819
18110W        W61023  33.584  31.455  15.577 -0.0361  0.1593 -0.3043
18111W        W61024   0.916  27.485   2.663  0.1954 -0.1282  0.1805
18112W        W61025  27.488  29.003  24.492  0.2248 -0.0699 -0.0119
18113W        W61026   5.487  26.065  20.081  0.0283 -0.2992 -0.0423
18114W        W61027   3.043   3.987  24.130 -0.2157  0.2026  0.0596
18115W        W61028  11.893  30.803  27.018  0.3521  0.1071 -0.3172
18116W        W61029   0.151  30.021  23.951 -0.0952  0.5177  0.3908
18117W        W61030  29.811  31.605  25.788 -0.0212 -0.0013  0.2002
18118W        W61031  33.054   1.995  22.401 -0.1409  0.0081  0.3320
18119W        W61032  28.250  27.255  22.769 -0.0156 -0.2876  0.0525
18120W        W61033   0.332  31.177  22.772 -0.1282  0.0658 -0.1642
18121W        W61034  14.900   0.927   5.291  0.4588  0.0042  0.0299
18122W        W61035  32.951  32.922  25.639  0.1614  0.2040  0.0014
18123W        W61036   7.845   7.098   4.552 -0.0066 -0.0955 -0.0838
18124W        W61037   7.473  25.450   0.303  0.0875  0.1516  0.0174
18125W        W61038   2.958   2.796  26.275 -0.1544  0.2685 -0.0608
18126W        W61039  29.839  31.944  23.432 -0.0747  0.3010  0.0909
18127W        W61040   1.949  25.708  24.082 -0.3051  0.0338 -0.0792
18128W        W61041  31.662  27.597  19.503  0.0999 -0.1041  0.3134
18129W        W61042  10.264  10.265  27.870 -0.2306  0.2747  0.2198
18130W        W61043   7.149  12.281  20.830  0.2374 -0.0896  0.1949
18131W        W61044  30.890  17.690  15.891 -0.1824  0.1427 -0.0653
18132W        W61045  31.778  18.875  17.248  0.4639  0.0569 -0.0452
18133W        W61046   0.652  31.834  24.140  0.0866  0.3091  0.1163
18134W        W61047   9.338  25.784  21.349 -0.1867 -0.0703  0.1302
18135W        W61048  29.605   3.678  22.831 -0.0456  0.2062 -0.3013
18136W        W61049  22.986  28.430   3.489  0.0110  0.0717 -0.1297
18137W        W61050   9.107  28.930  27.817 -0.0489 -0.2311  0.1021
18138W        W61051  11.872  34.339  24.328  0.1764  0.1844  0.0864
18139W        W61052   0.179   0.342  27.548 -0.4806 -0.1342  0.1630
18140W        W61053  10.488  21.267   0.910 -0.3001  0.0835  0.4562
18141W        W61054  25.572  32.566   0.481 -0.1637  0.2226  0.0359
18142W        W61055  32.866   2.334  18.404 -0.0942 -0.1006  0.1615
18143W        W61056  30.795   0.328  17.989  0.0851  0.0086  0.2516
18144W        W61057   2.213  24.851  24.505 -0.3708  0.0119 -0.0352
18145W        W61058  28.307  25.822   2.373 -0.0169  0.0880 -0.3634
18146W        W61059  10.974  17.203  26.971 -0.1039  0.2778  0.2405
18147W        W61060  26.852  27.199  23.848 -0.1176  0.1934  0.0010
18148W        W61061   6.857  32.793  23.766 -0.0275 -0.0257 -0.1059
18149W        W61062   0.666  24.494  24.237  0.1489  0.0283  0.0609
18150W        W61063   1.991  26.492  26.332  0.2014  0.1805 -0.0094
18151W        W61064   3.129  30.568  19.940 -0.1974  0.1795  0.0266
18152W        W61065   5.855  23.753  22.196  0.2244 -0.1785 -0.1297
18153W        W61066   6.551  29.112  22.057  0.1182  0.2684  0.0617
18154W        W61067   4.980   2.549   7.642  0.1799 -0.2129  0.1893
18155W        W61068   7.394  15.636  23.858 -0.2024  0.1365  0.1143
18156W        W61069   4.306   0.661  20.498  0.0606  0.3182  0.0443
18157W        W61070  31.733   0.813  22.710  0.1895  0.0312 -0.1044
18158W        W61071   0.348  32.106  27.379  0.1103 -0.0167 -0.0609
18159W        W61072  29.710  20.270  23.186 -0.1347  0.3071  0.1428
18160W        W61073  24.692  33.019  23.799 -0.4165  0.0031 -0.0883
18161W        W61074  33.266   0.727   1.922 -0.2440 -0.0553  0.1052
18162W        W61075   0.259  28.546  23.523 -0.0618 -0.0578  0.1024
18163W        W61076   0.293  25.086  25.936 -0.2596  0.1548 -0.5303
18164W        W61077  29.026  23.100  21.308  0.0952 -0.2311 -0.2040
18165W        W61078  32.230  28.417  20.179 -0.0618  0.0492  0.0944
18166W        W61079   2.500  18.680  29.403 -0.0917 -0.0773 -0.0690
18167W        W61080   3.918  22.235  25.169  0.0191  0.0586 -0.2532
18168W        W61081  12.229  34.308  17.849  0.2664 -0.2581  0.2735
18169W        W61082  33.940   1.446  21.849  0.1102 -0.1502  0.1555
18170W        W61083  32.058   0.191  11.672  0.2034 -0.0556 -0.0896
18171W        W61084   3.797  18.442  25.961 -0.2059 -0.2337  0.3310
18172W        W61085  32.090   4.528  27.578 -0.2100 -0.1996  0.0223
18173W        W61086   2.773  24.968   0.123  0.0631 -0.4133  0.1188
18174W        W61087  29.763  30.428  17.517  0.0068  0.1197  0.0831
18175W        W61088  33.060  25.015   7.951 -0.0254 -0.0440  0.4103
18176W        W61089   4.396  18.882  28.738 -0.0479 -0.3548  0.0415
18177W        W61090  12.623  28.940   0.370 -0.3231  0.3609  0.1171
18178W        W61091   2.025  16.451  21.706  0.1740  0.0464  0.1047
18179W        W61092   1.389  23.701  24.513 -0.0783  0.2267 -0.1777
18180W        W61093  33.236  11.191  18.186  0.2602  0.3470  0.0134
18181W        W61094  33.169  21.301  20.080  0.0086 -0.0537 -0.3017
18182W        W61095  28.414   1.114   7.053  0.2909  0.2191 -0.2582
18183W        W61096  12.816  26.646   1.128  0.2114 -0.1392 -0.4169
18184W        W61097  32.615  26.473  22.096 -0.0055 -0.1149  0.0292
18185W        W61098   6.190  19.825  21.098 -0.1183 -0.3847  0.1642
18186W        W61099  24.480  22.333  22.913  0.1424 -0.0714  0.1666
18187W        W61100  21.763  20.227  28.844 -0.0848  0.4233  0.0190
18188W        W61101  29.239  29.958  24.246 -0.3867 -0.0770  0.2755
18189W        W61102  30.724  28.764  21.769  0.1356 -0.1870  0.1306
18190W        W61103   9.533  32.947  21.929  0.0563  0.3407 -0.1242
18191W        W61104  23.160   5.734  25.314 -0.0723 -0.0016 -0.3950
18192W        W61105  24.515  30.107  17.009 -0.1393  0.0272  0.0923
18193W        W61106   1.801  15.079  20.993  0.0366 -0.1400 -0.0331
18194W        W61107  23.049  23.630  16.212 -0.0954  0.0061 -0.0423
18195W        W61108   4.655  24.363  19.153  0.1089 -0.0179  0.1096
18196W        W61109  19.676  23.807  22.000 -0.2364  0.0039  0.0065
18197W        W61110   7.896  29.111  26.626  0.3663  0.2680 -0.0255
18198W        W61111  21.655  34.464  25.809 -0.1109  0.1092  0.0783
18199W        W61112  28.958   4.064  20.035  0.0174 -0.2142 -0.1023
18200W        W61113  30.859  27.930  25.051 -0.2967 -0.1672  0.1244
18201W        W61114   1.027   2.197  20.834 -0.0987 -0.0808 -0.2194
18202W        W61115   4.891  26.522  23.738  0.2698 -0.1273  0.0739
18203W        W61116  24.862  19.910  25.860  0.1128  0.3750 -0.2175
18204W        W61117   1.594   1.808  28.500 -0.0720  0.1771 -0.0520
18205W        W61118   8.207  25.980   2.454  0.3820  0.0266  0.1247
18206W        W61119  32.971  30.329  20.514  0.1219  0.1641 -0.0888
18207W        W61120   0.177  23.076  27.444 -0.1948 -0.1884  0.0255
18208W        W61121   4.669  31.169  20.971  0.1538  0.1401 -0.0040
18209W        W61122  32.881   7.111   3.623  0.0424 -0.1445  0.1178
18210W        W61123  29.873  31.912  23.955 -0.1843 -0.3374  0.2194
18211W        W61124  33.384   4.917  21.004 -0.0688  0.0759  0.0661
18212W        W61125   3.083  23.727   0.221 -0.1255 -0.0129  0.1452
18213W        W61126   6.496  29.293   1.059 -0.4527  0.0814 -0.1301
18214W        W61127   6.835   3.118  19.589 -0.0444  0.2827  0.1515
18215W        W61128  11.921   4.271  27.198 -0.1709  0.3107  0.0816
18216W        W61129  29.710   4.898   4.979  0.0002  0.0977 -0.5303
18217W        W61130  24.612  25.590   3.133 -0.1219 -0.0316  0.1260
18218W        W61131   9.616  26.996  19.491  0.0650  0.1683  0.0322
18219W        W61132   0.287   2.415  17.906 -0.0535  0.1613  0.0053
18220W        W61133   6.377  34.463   1.112 -0.2872 -0.0762  0.1252
18221W        W61134   4.268   1.904  27.719 -0.1039  0.1807 -0.0928
18222W        W61135   2.876  27.591  21.418  0.2274 -0.0150 -0.1615
18223W        W61136   1.725  23.256  24.608 -0.0714  0.1495  0.0111
18224W        W61137  33.371   3.473  24.029  0.3142 -0.0823  0.0446
18225W        W61138   0.865   8.682  17.526  0.0589  0.1093  0.1317
18226W        W61139   5.324  25.382  23.741  0.2311 -0.1852  0.0092
18227W        W61140   2.510   0.006   5.218 -0.4437 -0.1082  0.1070
18228W        W61141  29.096   5.743   6.892  0.0974  0.1858  0.1652
18229W        W61142  27.270  29.081  23.906 -0.1441  0.1993 -0.0485
18230W        W61143   1.551  30.570  26.509 -0.0146 -0.0250 -0.2652
18231W        W61144  28.831  30.173  20.363  0.2054  0.2614 -0.2366
18232W        W61145  31.936  32.497  23.727 -0.0236 -0.0132  0.0113
18233W        W61146  31.913   1.882   0.680  0.0889  0.0344  0.2772
18234W        W61147   5.017  34.135  18.405  0.2335 -0.1375  0.0281
18235W        W61148  30.087   3.598  25.922  0.1714 -0.0190 -0.0897
18236W        W61149   9.020  25.381  21.475 -0.0138 -0.0800  0.0686
18237W        W61150   1.239  27.223  26.709 -0.4221  0.0533  0.3099
18238W        W61151   1.858  31.236  21.925  0.0561  0.1093  0.1731
18239W        W61152  24.345  33.449  25.696  0.2355 -0.0050 -0.0832
18240W        W61153  34.117  29.287  17.924  0.0022 -0.0566  0.0243
18241W        W61154   4.457  26.107  22.908  0.3453 -0.3179 -0.2640
18242W        W61155   6.536  21.509   1.759 -0.1551  0.0760 -0.0882
18243W        W61156  28.295  29.543  25.605  0.0728 -0.0980  0.2462
18244W        W61157   3.173  20.834  13.653 -0.5277  0.2464  0.2843
18245W        W61158  27.524  34.133  28.779 -0.3032  0.0671 -0.0813
18246W        W61159   5.340   5.330  22.459 -0.1760 -0.0290 -0.1245
18247W        W61160  12.114   0.939  25.320  0.2643 -0.0532  0.2400
18248W        W61161  27.489  32.286  26.128  0.0416 -0.4165  0.1006
18249W        W61162  11.245  28.533  27.891  0.0841 -0.0406 -0.0625
18250W        W61163   7.145   4.568  27.025  0.0022 -0.3265 -0.0797
18251W        W61164  31.633  21.914  19.747  0.0579 -0.0320  0.1076
18252W        W61165  28.267  33.480  29.018 -0.0546  0.2430 -0.2096
18253W        W61166  31.020   3.854  23.623 -0.3504 -0.0679  0.0599
18254W        W61167   7.868  25.467  24.149  0.0552 -0.1309  0.2304
18255W        W61168   2.959  16.722  18.645 -0.2384  0.1040  0.3739
18256W        W61169  29.420  32.966  22.610  0.3295  0.0793 -0.0383
18257W        W61170   7.284  34.483  19.319  0.1495  0.2243  0.0252
18258W        W61171  27.614  32.066  26.602 -0.1631 -0.1001  0.2416
18259W        W61172  27.008  18.066  16.982 -0.2535 -0.0307  0.1331
18260W        W61173  31.580  29.594   1.999  0.1816  0.0309 -0.0101
18261W        W61174   9.228  29.852   2.270 -0.3760 -0.0356  0.0300
18262W        W61175   3.445  26.012  14.930  0.0985  0.2071 -0.3196
18263W        W61176   1.464  34.480   3.945  0.1261  0.1331 -0.0808
18264W        W61177   2.652  28.407  25.528 -0.1194  0.0862 -0.0692
18265W        W61178   1.285  26.715  19.590 -0.1416 -0.2404 -0.2405
18266W        W61179  21.950   2.255  24.394  0.0557  0.1659 -0.1619
18267W        W61180   0.494  29.704  18.228  0.1621  0.1623  0.2539
18268W        W61181   5.005  22.071  21.453  0.4765 -0.3425 -0.0124
18269W        W61182  33.845  31.085  14.769  0.0233  0.1381  0.4862
18270W        W61183   2.922  33.603  22.555  0.0158  0.0558  0.2452
18271W        W61184   5.918  23.564   8.649  0.1955  0.0510 -0.0714
18272W        W61185  32.874  30.238  13.984 -0.2736  0.2465 -0.2169
18273W        W61186   3.769  33.317  25.505  0.0554 -0.0613  0.6912
18274W        W61187  11.992  33.992  23.571  0.0888  0.3594  0.0033
18275W        W61188  33.489   0.520  23.879 -0.1930  0.3849 -0.0212
18276W        W61189  32.814  29.474  20.593 -0.3712  0.0734 -0.3821
18277W        W61190   5.307  19.320  15.177  0.0530 -0.0293 -0.1515
18278W        W61191  33.624  18.040  20.387 -0.4228  0.0396 -0.0011
18279W        W61192   2.400  27.847  26.326  0.2250  0.0182 -0.1941
18280W        W61193  30.075   3.419  19.551  0.0525 -0.0520 -0.0990
18281W        W61194  29.844  25.425  26.422 -0.0612  0.0577 -0.4522
18282W        W61195  33.112  11.761  27.074  0.0476 -0.1709 -0.2361
18283W        W61196   3.591  26.283  26.060 -0.4659  0.5711 -0.3102
18284W        W61197   5.796   3.199  24.362  0.2493  0.0457 -0.3945
18285W        W61198  13.189  27.096  21.973 -0.2429 -0.0713 -0.0588
18286W        W61199   2.867  31.000  24.038 -0.0312 -0.1510 -0.0848
18287W        W61200   7.302  24.199  24.095  0.1429 -0.0780 -0.0189
18288W        W61201  10.199  30.121   3.934  0.2997  0.1143  0.0233
18289W        W61202  33.586   2.258  27.891 -0.0208 -0.0816 -0.0439
18290W        W61203  32.508  34.494  24.686  0.3530 -0.1251 -0.0236
18291W        W61204   9.041   6.704  20.894  0.0721 -0.1154  0.3835
18292W        W61205  15.991  25.568  16.122  0.1237  0.1419  0.0734
18293W        W61206   2.196  21.326  19.754 -0.0574  0.1508 -0.0703
18294W        W61207  29.529  27.077  21.476 -0.1254  0.0103 -0.3842
18295W        W61208  22.491  31.184  19.489 -0.1800  0.0533  0.0021
18296W        W61209  31.716   7.748  26.394  0.2495  0.1101  0.0591
18297W        W61210   5.583  24.486  22.762  0.0829  0.2932  0.0869
18298W        W61211  26.187  32.913   3.157 -0.4257 -0.1592 -0.3029
18299W        W61212  32.280  30.867   0.065  0.2921  0.2482 -0.1319
18300W        W61213  32.566  24.850  23.380  0.1725  0.0568  0.0430
18301W        W61214   3.490   3.516  24.977  0.0552  0.0332 -0.3609
18302W        W61215  29.920  33.993  20.823 -0.0642  0.2660 -0.0455
18303W        W61216   3.040  27.551   4.824  0.0050  0.1422  0.3326
18304W        W61217  11.095   0.448  19.048  0.2310 -0.1430 -0.0302
18305W        W61218  32.126  30.293  20.192  0.1098 -0.2149  0.3224
18306W        W61219   5.405   1.343  27.197  0.0811  0.3088  0.0292
18307W        W61220  31.622  32.332  16.915  0.0569  0.0301 -0.0387
18308W        W61221   6.736  19.491  19.248  0.2869 -0.1866 -0.1222
18309W        W61222   3.527  27.090   7.501  0.1685 -0.1215 -0.0666
18310W        W61223  34.268  25.130  26.018 -0.0570 -0.1393  0.1657
18311W        W61224  26.481  27.131   2.579  0.0534 -0.0204 -0.2779
18312W        W61225   1.683  24.180  25.172  0.1605  0.1215  0.2772
18313W        W61226  33.014  29.833  23.443 -0.1127  0.3384 -0.0440
18314W        W61227   2.394  27.743   2.163 -0.2376 -0.1628  0.0965
18315W        W61228  25.336  30.102  18.407  0.0139 -0.0979  0.3030
18316W        W61229   5.397  25.430  18.895 -0.2249 -0.2012  0.1151
18317W        W61230   2.004  32.454  14.839  0.0553 -0.2338 -0.1036
18318W        W61231   1.312  22.844  15.763 -0.2712  0.3318 -0.0562
18319W        W61232   8.664  34.462  25.227  0.0700 -0.2232  0.1992
18320W        W61233  10.437  18.916   3.706  0.0167 -0.2683 -0.0003
18321W        W61234  32.701  30.265  24.906 -0.2453 -0.4937  0.4534
18322W        W61235   5.426  31.303  25.587 -0.0932 -0.0349  0.1315
18323W        W61236  16.391   3.736  29.393  0.0228  0.1342 -0.0877
18324W        W61237   4.845  16.518  25.131 -0.2061 -0.0270  0.1510
18325W        W61238   2.361  18.139  22.294  0.0973  0.0400  0.2965
18326W        W61239   8.467  26.021  25.254 -0.0550 -0.0264  0.1688
18327W        W61240  33.624  33.925  19.295 -0.0174 -0.1802 -0.4741
18328W        W61241   0.447  28.705  27.538  0.0231  0.1582 -0.1545
18329W        W61242   0.807   2.817   1.120  0.0277  0.1888  0.0922
18330W        W61243   6.419  28.312  17.802 -0.4515  0.0490  0.2905
18331W        W61244  11.984  18.516  22.461  0.4287  0.0861  0.0804
18332W        W61245   5.725   8.645  23.249 -0.0365  0.1518  0.1583
18333W        W61246   3.709  29.455  22.442  0.1289  0.0496 -0.2636
18334W        W61247   3.385  19.089  28.620  0.3212  0.1767  0.0142
18335W        W61248  27.822  29.031  22.169 -0.0204 -0.0135  0.1139
18336W        W61249   5.453  32.153  19.362 -0.1266 -0.0014  0.3193
18337W        W61250  32.422  22.441   8.268  0.1503 -0.1015  0.0172
18338W        W61251   8.777  23.956  27.792  0.1740  0.2201  0.2249
18339W        W61252   8.909   0.825   9.564 -0.3428 -0.2974  0.2151
18340W        W61253   4.728  29.254  18.278 -0.0528  0.1354 -0.4661
18341W        W61254  33.193  20.598  19.119  0.2965  0.0339  0.2176
18342W        W61255  31.830   4.318  18.376  0.1905  0.1989 -0.1872
18343W        W61256  27.960  22.229  21.885  0.0319  0.0879  0.1791
18344W        W61257  24.114  31.517  28.660  0.0649 -0.0107  0.2265
18345W        W61258  30.548  33.852   0.438  0.1082 -0.0509 -0.0071
18346W        W61259  34.072  23.167  19.992 -0.2171  0.1504  0.1761
18347W        W61260   0.969  23.744  20.050  0.2838  0.0704 -0.1741
18348W        W61261   3.160  18.298   0.702 -0.0168 -0.1599 -0.3080
18349W        W61262  33.682  33.098  24.594  0.3341 -0.1819 -0.1183
18350W        W61263   0.151  21.558  23.028  0.3511 -0.0611 -0.0214
18351W        W61264   0.687  21.226  20.329 -0.3666  0.1155 -0.1576
18352W        W61265   0.551  21.111  25.435  0.1182  0.2828  0.2207
18353W        W61266  29.466  29.962  19.823  0.0409 -0.1982  0.2314
18354W        W61267   6.789  27.010  21.837  0.2202  0.1984 -0.0624
18355W        W61268   3.415  25.226  26.907  0.0800  0.1030  0.1191
18356W        W61269  33.040  10.992  21.263  0.3936  0.0125  0.3142
18357W        W61270   2.529  27.059   3.793  0.2035 -0.1581  0.2173
18358W        W61271  34.231   3.676  27.604  0.1591  0.0668  0.2656
18359W        W61272  17.083   4.928  26.143 -0.1453  0.1146 -0.0716
18360W        W61273   4.219   2.265   1.062  0.1882 -0.0838 -0.2550
18361W        W61274   8.139  29.042  11.393  0.0071 -0.0804  0.2721
18362W        W61275  31.747   5.043  24.808 -0.0218  0.2870 -0.0932
18363W        W61276  26.162  24.434  21.019  0.0316 -0.1955  0.3231
18364W        W61277  25.277   7.430  25.503 -0.2229 -0.0756  0.1855
18365W        W61278   2.340  31.296  19.601 -0.1040  0.0961  0.1363
18366W        W61279  17.223  21.065  24.878  0.0209 -0.0937 -0.0999
18367W        W61280  11.539  33.116  25.944  0.1181 -0.3549  0.0403
18368W        W61281   4.586   1.840  22.506 -0.2256 -0.0389  0.1174
18369W        W61282   7.808  28.629  27.334  0.4212  0.3606  0.1534
18370W        W61283  26.988   0.148  23.048  0.0688  0.0335 -0.0032
18371W        W61284   6.663  27.013  17.754 -0.1841 -0.2993  0.0243
18372W        W61285  29.091  32.117  28.550  0.2804  0.0019 -0.0394
18373W        W61286  34.150  27.051  19.456 -0.1759  0.0651  0.0252
18374W        W61287  28.217  32.004  14.249 -0.1200  0.2380 -0.0145
18375W        W61288  28.946  28.984  18.489 -0.2598  0.1063  0.1766
18376W        W61289  33.028   2.623  17.973  0.1234 -0.0172  0.3198
18377W        W61290   5.796  25.883  28.269  0.0829 -0.0633  0.1662
18378W        W61291  33.848   1.470   1.028  0.1422 -0.1571 -0.2391
18379W        W61292  34.031  25.269  23.707  0.0545  0.4710 -0.0382
18380W        W61293  31.578  16.486  24.802  0.0984 -0.2792 -0.0225
18381W        W61294  20.414  20.303   0.860  0.0163 -0.1338 -0.1402
18382W        W61295  26.444  19.246  24.076 -0.0581 -0.0384 -0.2402
18383W        W61296  26.297  12.499  29.249  0.2175  0.0085  0.0668
18384W        W61297  28.470  31.825  25.631  0.2311  0.3424  0.3757
18385W        W61298   1.645  22.576  16.060  0.0916 -0.4000 -0.2098
18386W        W61299   3.961  33.332  17.958  0.1707 -0.0875  0.0513
18387W        W61300   7.046  24.460  27.452 -0.1304  0.2814 -0.1521
18388W        W61301   8.492  24.939  28.339 -0.1067 -0.0532  0.0636
18389W        W61302  28.140  30.891  26.958 -0.1311 -0.0575  0.0692
18390W        W61303   6.267   4.778  17.127  0.1581 -0.2923 -0.3284
18391W        W61304   1.392  32.365  23.135 -0.0423  0.3544  0.1438
18392W        W61305  31.433   7.149  21.797 -0.1780 -0.2705  0.2819
18393W        W61306   8.625  24.061  28.385  0.2013 -0.2594 -0.0026
18394W        W61307  33.173  20.613  18.178  0.0836 -0.0124 -0.1272
18395W        W61308  17.759  22.157  15.334 -0.0685 -0.2348  0.0723
18396W        W61309   4.766  34.279  20.649 -0.0378 -0.0491 -0.0296
18397W        W61310  28.560  30.901  23.054  0.1935  0.2340 -0.2562
18398W        W61311  30.841   2.417   3.839  0.2037  0.1651  0.0162
18399W        W61312  31.330  30.270  22.503  0.0963 -0.1846  0.2445
18400W        W61313   8.617  34.320   0.583 -0.1588  0.3346  0.2975
18401W        W61314   0.778   3.078  10.235  0.0490  0.0331 -0.1397
18402W        W61315  27.706  22.211  23.727 -0.0506  0.0706 -0.0039
18403W        W61316  33.238  33.102   2.977 -0.0968  0.0118  0.0321
18404W        W61317   4.290  23.245  21.239 -0.0233  0.0003  0.1799
18405W        W61318  34.224   1.515   2.089  0.0465 -0.4917 -0.2293
18406W        W61319  23.232  12.394   0.472 -0.3308 -0.0551 -0.1284
18407W        W61320   7.122  14.752  26.068 -0.3990  0.2362  0.0209
18408W        W61321   4.564  30.653  25.767 -0.0728 -0.2237 -0.1834
18409W        W61322   4.832  25.006  16.031 -0.1680  0.0960 -0.0465
18410W        W61323   3.891   0.020  26.067 -0.1246 -0.2200  0.4824
18411W        W61324  29.362  17.954  28.408 -0.0246 -0.0153 -0.0340
18412W        W61325  31.014  34.297  28.111 -0.1049 -0.2055 -0.0209
18413W        W61326   2.054  34.244  28.143  0.1694  0.3906  0.0053
18414W        W61327  31.359  28.634  26.719  0.1733  0.0737 -0.0946
18415W        W61328   3.446   5.917  22.072 -0.0487  0.0557  0.1405
18416W        W61329  32.509  20.949  24.097 -0.0739 -0.1285  0.2881
18417W        W61330  28.251  27.228  27.069 -0.1674  0.5494 -0.2703
18418W        W61331   6.420  21.520  18.045 -0.0585 -0.1313  0.0665
18419W        W61332   4.458  15.042  17.134 -0.0173 -0.0400  0.0355
18420W        W61333  26.302   2.745  15.984  0.1551  0.0284  0.0122
18421W        W61334  13.541  30.786  26.526  0.1043  0.2847  0.0641
18422W        W61335   4.959  27.836  19.519  0.1227  0.0806 -0.0703
18423W        W61336   0.934  34.187  20.115 -0.1408 -0.1542 -0.1782
18424W        W61337  30.903  26.024  17.384 -0.0115 -0.0140  0.0262
18425W        W61338   0.326  33.097  20.106  0.5588 -0.1581 -0.0075
18426W        W61339  31.043  22.760  19.118 -0.2233 -0.3143  0.0350
18427W        W61340  26.852  19.300  22.655 -0.5642 -0.2319 -0.1509
18428W        W61341  33.499  33.288  20.756  0.2546 -0.2417 -0.0536
18429W        W61342  23.622   8.727  20.873 -0.2844 -0.1766  0.1691
18430W        W61343  34.079  30.691  24.744  0.1624 -0.2048 -0.1135
18431W        W61344  10.127  32.706  23.244 -0.0740 -0.2370  0.2271
18432W        W61345  29.392  32.551   0.487 -0.0671  0.0185  0.2309
18433W        W61346  12.751   4.540  21.069  0.3349 -0.0107 -0.0278
18434W        W61347   2.858  31.311  24.423  0.2221  0.0636 -0.1724
18435W        W61348  33.533  23.957   1.333  0.1239  0.1484  0.0672
18436W        W61349   5.860  12.856  28.023  0.0798 -0.1927  0.2253
18437W        W61350   2.903  33.318  17.680 -0.1625  0.0690 -0.0124
18438W        W61351   2.967   1.780  23.067  0.1827 -0.0993 -0.1116
18439W        W61352   2.234  27.413  26.768  0.3512 -0.1585  0.3311
18440W        W61353   1.666   3.804  27.137 -0.1444 -0.1164  0.1444
18441W        W61354   2.590  24.493  21.010 -0.1257  0.3264  0.1097
18442W        W61355  33.067  31.366   9.356 -0.3392 -0.0087 -0.0392
18443W        W61356   0.211   0.957  16.973 -0.2888 -0.0577 -0.0867
18444W        W61357  10.896  31.880  27.130  0.1365  0.1289  0.0912
18445W        W61358   3.860   1.506  25.786 -0.2418 -0.0828 -0.1136
18446W        W61359   2.662  28.881  16.404 -0.1181 -0.2055 -0.0029
18447W        W61360   1.997   4.792  20.293  0.1008  0.0686 -0.0432
18448W        W61361  28.450  27.392  27.528  0.1108  0.0435 -0.3128
18449W        W61362  29.456  30.470  19.751 -0.0493  0.1461 -0.3116
18450W        W61363   4.221   0.941  17.428 -0.2425 -0.2194  0.1088
18451W        W61364  10.427   7.701  29.268  0.1998 -0.0727 -0.4198
18452W        W61365  22.560  29.023   0.191 -0.0051 -0.1656  0.0246
18453W        W61366   3.171   0.137  27.726  0.1693  0.0373  0.0828
18454W        W61367   7.024   3.815  23.101 -0.1530 -0.0003  0.0303
18455W        W61368  24.094  19.578  16.232 -0.1620 -0.0362  0.0935
18456W        W61369  31.286  27.730  14.398  0.1126  0.1874 -0.2683
18457W        W61370  30.438  29.625  23.071 -0.1440  0.0748 -0.1274
18458W        W61371   1.891  31.341  25.376 -0.0512  0.1974 -0.0630
18459W        W61372   6.285  26.219  29.086  0.2520  0.2789  0.0631
18460W        W61373   2.571   2.118  27.064 -0.0654 -0.2854 -0.1230
18461W        W61374  29.386  32.057  19.030 -0.1444  0.2890  0.1384
18462W        W61375   1.394  20.560  23.941  0.2177 -0.1014 -0.2879
18463W        W61376   9.336  23.449  27.893 -0.3499  0.0411 -0.1909
18464W        W61377   3.151  28.122  19.939  0.2669 -0.0375 -0.1760
18465W        W61378   1.260  22.898   0.764 -0.1044  0.0392  0.2221
18466W        W61379  34.086  26.893  26.911  0.1118  0.1777 -0.1212
18467W        W61380  34.096  24.094  25.990 -0.2205  0.4186  0.1832
18468W        W61381   2.031   0.058  29.718  0.2842 -0.0690  0.0082
18469W        W61382   1.824  31.765  27.771 -0.0906  0.0553 -0.2121
18470W        W61383  30.973  19.473  16.834  0.0472  0.1019 -0.1459
18471W        W61384   4.528  22.713  21.798  0.3310 -0.1964 -0.1077
18472W        W61385   3.116  20.834  15.564  0.2716  0.2884 -0.0169
18473W        W61386  25.893   0.149  18.123  0.1405  0.0691 -0.2549
18474W        W61387  28.774  28.783  26.489 -0.1990 -0.1685  0.0411
18475W        W61388  29.621  30.767   5.012  0.2245  0.2099 -0.1072
18476W        W61389  10.130   1.534  25.132  0.1459  0.2315 -0.1116
18477W        W61390   4.498  25.935   2.400  0.2647  0.3833 -0.1704
18478W        W61391  33.553  29.685  18.654 -0.1174 -0.3753 -0.1658
18479W        W61392   0.475  29.048   3.032  0.1907 -0.0195 -0.0321
18480W        W61393   9.522  22.287  19.960  0.0553 -0.0979 -0.0106
18481W        W61394  30.059   6.912  27.572  0.0153 -0.4740  0.0291
18482W        W61395  33.607  29.664   2.349  0.1221 -0.1058 -0.0450
18483W        W61396  32.696  31.030   2.520  0.5001 -0.1908 -0.0936
18484W        W61397   4.139  29.866   0.932 -0.3662  0.5173  0.1729
18485W        W61398   0.719   2.382  17.627 -0.0630 -0.1205  0.1908
18486W        W61399  30.353  31.317  20.407 -0.0934 -0.0823 -0.2948
18487W        W61400   0.142  33.432  29.030 -0.4151 -0.0078  0.0029
18488W        W61401  25.144  18.833  29.366 -0.1482  0.1907  0.1227
18489W        W61402  10.716  27.784  19.496  0.1534  0.2700 -0.0062
18490W        W61403   7.236  23.202  21.984  0.0255  0.0067 -0.0071
18491W        W61404  26.553  20.141  21.240 -0.0081 -0.0831 -0.0699
18492W        W61405   3.619  22.325   0.014  0.0966  0.0253 -0.3144
18493W        W61406   7.917   0.677  29.700 -0.0484  0.0084 -0.0010
18494W        W61407  24.648  26.586  29.392  0.0631  0.2221  0.0311
18495W        W61408  19.052  30.077   1.787 -0.0075 -0.1838 -0.1653
18496W        W61409  30.516   7.013  24.315  0.3830  0.2460  0.1337
18497W        W61410   4.308  30.554  28.734 -0.0757  0.1028 -0.0282
18498W        W61411  30.404   2.941   7.490 -0.4829  0.1698 -0.0566
18499W        W61412  32.032   4.508  24.893 -0.0549  0.2900  0.2560
18500W        W61413   2.985  27.891  20.446 -0.0618  0.1473 -0.2234
18501W        W61414   5.507  32.549  26.759 -0.3171 -0.1709  0.0749
18502W        W61415   4.949  21.195  26.562  0.0656 -0.1681 -0.1786
18503W        W61416   6.438  26.397   1.363 -0.1945 -0.2221 -0.1938
18504W        W61417   0.330  23.732  19.585 -0.0049  0.1763  0.0852
18505W        W61418   4.903  30.371  28.602  0.1735 -0.0086 -0.0558
18506W        W61419   3.758  19.241  19.304 -0.3695  0.1019 -0.0950
18507W        W61420   4.728  19.675  27.891  0.0119 -0.0064 -0.3377
18508W        W61421   6.965  12.327   7.089 -0.4225  0.1730  0.1372
18509W        W61422  11.068  28.917  21.977  0.0967  0.1238  0.0731
18510W        W61423  33.973  29.513   6.835 -0.0132 -0.2554 -0.0042
18511W        W61424  30.210  27.562  21.864 -0.1505  0.2909  0.2495
18512W        W61425   1.438   0.995   1.900 -0.0690 -0.1928  0.1956
18513W        W61426  26.187  29.975  29.147 -0.0379  0.2540 -0.0837
18514W        W61427  30.282  29.224  23.756  0.1353 -0.4672 -0.1967
18515W        W61428  31.613  33.397  16.701 -0.0449  0.1389  0.2679
18516W        W61429   4.063  13.593  27.618 -0.3089  0.2121  0.1696
18517W        W61430  33.617  28.480  23.781  0.1261  0.1574 -0.0052
18518W        W61431   2.683  29.827  22.900 -0.0868  0.1727  0.0565
18519W        W61432   1.171  22.447  21.597  0.1035  0.2815  0.1461
18520W        W61433   2.673  32.106  28.884 -0.1652 -0.1881 -0.4545
18521W        W61434  29.840  28.950   2.588  0.0551 -0.2097  0.1950
18522W        W61435  31.341  10.418  22.777 -0.3036 -0.2601 -0.1112
18523W        W61436   7.870  24.759  27.077 -0.0087  0.1021 -0.1383
18524W        W61437   9.507  31.214  10.118 -0.1683  0.2476  0.3150
18525W        W61438  26.375   3.848  27.411  0.4741 -0.1272  0.0622
18526W        W61439   5.329   1.016  13.031  0.1651  0.2671  0.1221
18527W        W61440  10.553  31.825  25.699 -0.2898 -0.1809  0.2220
18528W        W61441  30.638  29.215  22.840  0.1864  0.2605  0.1347
18529W        W61442  31.953  30.693   2.092  0.0132  0.1291  0.4560
18530W        W61443   2.765   4.619  10.657 -0.2438 -0.1148 -0.1555
18531W        W61444  32.425  28.806  22.964 -0.0814  0.0823  0.0034
18532W        W61445  14.122  11.444  24.486  0.1517 -0.2858 -0.0771
18533W        W61446  27.869  33.464   4.652 -0.0237  0.2196  0.0883
18534W        W61447   1.774  23.470  18.879 -0.3134  0.1515  0.2889
18535W        W61448  26.896  34.011  28.096 -0.1055 -0.1020 -0.1111
18536W        W61449   6.477  22.036  17.803  0.2048 -0.0178 -0.0560
18537W        W61450   0.937  31.292  21.367  0.0908  0.5873  0.0775
18538W        W61451  23.598  19.501   2.706 -0.2866  0.0889  0.3079
18539W        W61452  12.406  30.487  24.897  0.0798  0.1331 -0.0208
18540W        W61453  31.986  31.602  23.635  0.1969  0.0980  0.0071
18541W        W61454  18.599  24.882  23.903 -0.0655 -0.0262 -0.1263
18542W        W61455   4.604  26.099   7.467 -0.1587 -0.2487  0.2105
18543W        W61456  34.185   2.789   1.820 -0.4424 -0.0946  0.2151
18544W        W61457   3.793  23.825   0.977  0.2586 -0.0369  0.1957
18545W        W61458  33.262   2.718  27.867  0.1625 -0.0159  0.1498
18546W        W61459   6.540   0.974   3.906  0.0972 -0.2446  0.1427
18547W        W61460  29.087   7.174  27.486  0.1344 -0.0870  0.0500
18548W        W61461  13.084  28.188   5.034  0.1477  0.0172  0.1244
18549W        W61462  27.094  24.495  22.413 -0.1806  0.4044  0.0412
18550W        W61463  33.969  32.083   2.067 -0.0957 -0.1195  0.1626
18551W        W61464   6.343  25.195  10.282 -0.0400 -0.0106 -0.0440
18552W        W61465  31.630   3.660  27.390 -0.1053  0.0136  0.3533
18553W        W61466  10.799  25.508  25.625  0.1699  0.3070  0.1364
18554W        W61467  27.849  30.788  28.870 -0.0302  0.0323 -0.0542
18555W        W61468  31.482   4.592  25.623 -0.2007 -0.1220  0.2652
18556W        W61469  30.294  22.185   7.794 -0.2956  0.1054  0.1646
18557W        W61470   2.752  21.317   9.843 -0.1297 -0.0799 -0.0069
18558W        W61471   3.687  22.581   1.927  0.0086 -0.2726  0.0035
18559W        W61472   3.445   0.426  22.202 -0.0030 -0.1115  0.0769
18560W        W61473   4.111  19.211  18.861  0.1029 -0.1116 -0.1644
18561W        W61474   1.048   0.110  22.156  0.0664  0.1627 -0.0993
18562W        W61475   2.642  15.670  23.835 -0.0341  0.2190 -0.0969
18563W        W61476  26.894  26.752   6.659  0.2971 -0.1213  0.0009
18564W        W61477  33.964  19.523  16.455 -0.2431  0.3014 -0.1506
18565W        W61478  30.458   2.934   4.693 -0.1369  0.1764 -0.2896
18566W        W61479  25.713  28.331  24.291  0.2292 -0.2408 -0.2780
18567W        W61480  12.643  29.019  22.531 -0.0878 -0.4270  0.3366
18568W        W61481  31.682  31.497   3.765 -0.1494  0.1556  0.0131
18569W        W61482   1.674  31.438   8.659  0.3328 -0.1070  0.0713
18570W        W61483  32.801  32.352  28.557 -0.0636  0.3011  0.1212
18571W        W61484  30.798  34.276   8.566 -0.0437  0.0268  0.1556
18572W        W61485  32.341   3.179   8.470  0.0512 -0.0572 -0.2861
18573W        W61486  34.108   3.451  22.808 -0.0904 -0.0325  0.1886
18574W        W61487  33.514  29.412   3.966  0.3351  0.0602 -0.3073
18575W        W61488  31.172  34.257  29.374  0.2256 -0.2911  0.1943
18576W        W61489  15.433  18.182  23.958 -0.0011  0.2824  0.1195
18577W        W61490   5.317   6.887   1.622 -0.0300  0.3101  0.1240
18578W        W61491   4.067  23.418  22.143 -0.1071  0.1203  0.0162
18579W        W61492  33.214  22.468  20.049 -0.0637 -0.0858  0.1699
18580W        W61493   5.928  31.704  21.533 -0.1927  0.0831  0.1761
18581W        W61494  24.200  33.355  18.406  0.0387 -0.2651  0.2240
18582W        W61495  12.891  22.958  24.797  0.0343 -0.2357  0.2402
18583W        W61496  30.344   2.445  25.249  0.1892  0.3459  0.0611
18584W        W61497   5.986  23.957  27.039  0.0785  0.2393  0.1247
18585W        W61498  32.924   0.182  22.516  0.0654 -0.1230 -0.0728
18586W        W61499  23.721   1.761  28.986  0.3253  0.2838 -0.1497
18587W        W61500  27.586  16.737  26.493 -0.2839  0.4318 -0.1218
18588W        W61501  13.520   2.255  26.480 -0.1442  0.3915 -0.0469
18589W        W61502  16.136  33.392   2.292  0.1334 -0.2576 -0.0095
18590W        W61503  10.098  30.788  28.875 -0.0868 -0.3737 -0.1561
18591W        W61504  32.875  23.798  26.159 -0.3521 -0.3074 -0.0685
18592W        W61505  32.379  24.359  23.429 -0.1509 -0.0279 -0.1263
18593W        W61506   0.165   0.148   4.707  0.4635 -0.1161 -0.0434
18594W        W61507   5.382  26.168  20.540  0.0147 -0.0577  0.0769
18595W        W61508   1.871  22.560  26.782  0.1659  0.4995  0.1604
18596W        W61509   2.102  33.676   0.111  0.1242 -0.1276  0.1382
18597W        W61510   2.944  21.128   4.215 -0.1446 -0.1483  0.0153
18598W        W61511  33.681  24.758  20.253  0.0566 -0.1063 -0.1325
18599W        W61512   1.334  32.470   8.007 -0.1364  0.1260  0.4847
18600W        W61513  34.380   2.491  24.437 -0.3083  0.1473 -0.2456
18601W        W61514   2.365   2.722  29.028  0.0233 -0.0616  0.3640
18602W        W61515   4.454   8.713  11.566 -0.0167 -0.2185  0.1871
18603W        W61516  32.266  34.148  28.609  0.0866  0.0781  0.0441
18604W        W61517  31.290  29.456  24.136 -0.2077 -0.0598  0.1563
18605W        W61518  28.800  26.775   6.312  0.3667  0.1551  0.0567
18606W        W61519   1.037  26.938  26.386  0.0750 -0.0049 -0.0220
18607W        W61520   1.056  31.788  28.865 -0.1974 -0.2731 -0.1410
18608W        W61521  31.424  26.882  21.793 -0.3414 -0.1147  0.0326
18609W        W61522  33.286   3.031   5.423 -0.1818 -0.3155  0.1085
18610W        W61523  34.134  34.208  26.903 -0.0197 -0.1072  0.1189
18611W        W61524   8.577  28.908  20.156  0.1297 -0.2070  0.0821
18612W        W61525  31.884  32.837   3.498  0.1213  0.1218 -0.1275
18613W        W61526  10.805   0.515  27.392  0.4162 -0.2161  0.1248
18614W        W61527   6.481  28.285  27.494 -0.0678  0.0657  0.2799
18615W        W61528   4.214  27.038  29.427  0.0155  0.0480 -0.2050
18616W        W61529   4.811   1.963  23.134 -0.0404 -0.0943  0.0920
18617W        W61530   7.211   2.812   2.461 -0.2828  0.0531 -0.1272
18618W        W61531  33.132   0.472  21.201  0.0126 -0.2647  0.2848
18619W        W61532   4.004  25.003   0.906 -0.1802 -0.1549  0.1622
18620W        W61533   3.074  26.524  26.536 -0.2250 -0.3365  0.1332
18621W        W61534   2.853  27.698  27.316  0.3427 -0.1417  0.1312
18622W        W61535   0.314  19.016   1.635 -0.1886  0.1052  0.0926
18623W        W61536   8.923  22.808  28.161  0.2367  0.1218 -0.2132
18624W        W61537  30.071  25.602   2.428 -0.0633  0.0655 -0.0782
18625W        W61538  11.114  33.356   8.752 -0.0487  0.0163  0.1028
18626W        W61539  29.974  22.119  14.517  0.0884  0.0988 -0.2229
18627W        W61540  25.411  28.547  19.502 -0.2471 -0.0271 -0.3027
18628W        W61541   8.747  31.546   0.215 -0.0175  0.0356  0.1563
18629W        W61542  28.423  29.567   2.454  0.1224  0.0268  0.1093
18630W        W61543   9.024  30.436  21.684  0.1896  0.1642 -0.1083
18631W        W61544   1.741  26.465  28.933 -0.0851 -0.1232  0.0699
18632W        W61545  27.149  24.068   6.661  0.2750 -0.0950 -0.2051
18633W        W61546  27.018  29.640  26.509  0.1040  0.3966  0.0174
18634W        W61547   9.607  30.766   3.250 -0.1427  0.0950 -0.3073
18635W        W61548  22.564  27.313  14.800 -0.0473 -0.2502  0.1391
18636W        W61549  19.740  28.540   7.727  0.0277  0.1850  0.0471
18637W        W61550  31.962  30.208   1.803  0.1397  0.0831  0.0809
18638W        W61551  30.082  30.326   0.868  0.2200 -0.0744  0.2856
18639W        W61552   5.926  28.941   9.531 -0.0669 -0.0613  0.2347
18640W        W61553   8.946  25.236   1.745  0.0812 -0.0508  0.2182
18641W        W61554  28.963  20.338  14.495  0.0147  0.0166 -0.0606
18642W        W61555  29.000  25.358   2.798 -0.0527  0.2063  0.0277
18643W        W61556   5.047  27.717   8.248 -0.0026 -0.1011 -0.0493
18644W        W61557   4.352  31.122  15.677 -0.0374  0.0190  0.1761
18645W        W61558  34.443   7.303  22.363 -0.2087 -0.0967  0.2998
18646W        W61559  27.431  26.626  23.718 -0.0083  0.0049  0.0468
18647W        W61560  30.739   2.511  24.022  0.2893 -0.0468 -0.1704
18648W        W61561  25.322  33.249  24.669 -0.1320  0.1320 -0.2027
18649W        W61562   5.548  32.675  28.450  0.2204  0.0893  0.1366
18650W        W61563  11.793   4.232  22.202 -0.0310 -0.1220  0.2386
18651W        W61564  19.515  32.256  28.644 -0.1883  0.1740 -0.0242
18652W        W61565   1.603  21.478   7.663 -0.1746 -0.1169  0.1804
18653W        W61566  32.321  21.890  27.710  0.3309  0.1870 -0.0523
18654W        W61567  31.358  34.018  28.894 -0.0442  0.1965 -0.2437
18655W        W61568   1.415  30.003  22.697 -0.3454  0.2347 -0.3153
18656W        W61569   7.730  21.257   2.780 -0.1279  0.0244 -0.1573
18657W        W61570  10.780  30.573   4.334 -0.2705 -0.1587  0.0899
18658W        W61571  34.214  30.671  25.300 -0.1500  0.1106  0.0101
18659W        W61572  29.459  31.764  23.699 -0.0563  0.2762 -0.0465
18660W        W61573  25.630  22.712  26.468  0.1641  0.3992 -0.0395
18661W        W61574  34.039  25.788  26.363 -0.2470  0.4429 -0.1125
18662W        W61575   6.333   2.516  27.268 -0.0835  0.0227  0.0344
18663W        W61576  27.273  34.130  25.836  0.2698 -0.2471  0.2104
18664W        W61577  25.348  27.152  24.052  0.0959  0.0699  0.1014
18665W        W61578  32.252   2.423   6.214 -0.0285  0.1070 -0.0030
18666W        W61579  31.914  31.492   2.269  0.1980  0.1398  0.3222
18667W        W61580   1.307  33.577  22.201 -0.5739  0.1603  0.0155
18668W        W61581  24.936  27.413  25.920  0.1550 -0.1051 -0.2952
18669W        W61582   1.089  26.466  20.458 -0.2183  0.0878  0.0626
18670W        W61583   5.736  31.725   1.014  0.2985 -0.1960 -0.0101
18671W        W61584  33.903  21.939  28.165 -0.0050  0.0237 -0.3257
18672W        W61585   4.510  29.363  23.716 -0.0845 -0.3213 -0.1099
18673W        W61586   9.810  31.172   3.461 -0.1049 -0.0534 -0.0457
18674W        W61587  34.426  27.755  24.695 -0.0506  0.0801  0.2548
18675W        W61588  10.102  32.760  20.413 -0.1216 -0.2374 -0.1273
18676W        W61589   2.940   7.335  18.456 -0.1462 -0.3153  0.0871
18677W        W61590  25.456  11.198  29.682  0.0144 -0.4147  0.0137
18678W        W61591   1.828  15.679  20.965 -0.0553  0.1973  0.0051
18679W        W61592   0.544   2.711   0.313 -0.0541 -0.1404  0.2805
18680W        W61593  33.977  29.272   8.989  0.0440  0.2393 -0.2645
18681W        W61594  31.662  32.679   3.094 -0.1055 -0.2520 -0.0538
18682W        W61595  18.048  24.687  25.777 -0.2743  0.2472 -0.2762
18683W        W61596   6.805   0.309   3.090  0.1777  0.2119  0.2298
18684W        W61597   3.901  28.487  28.878 -0.0569 -0.0730  0.1184
18685W        W61598   7.850   7.476  28.552 -0.0011  0.3274 -0.0151
18686W        W61599  32.954  25.860   8.681 -0.0812  0.3721 -0.0195
18687W        W61600  29.678  27.329  24.290 -0.1131 -0.1635  0.0229
18688W        W61601  12.617   7.542  19.524  0.2004  0.1922 -0.3000
18689W        W61602  27.869   0.573  26.543 -0.2789 -0.1447 -0.1489
18690W        W61603   1.346  26.794   3.580 -0.2793  0.0004  0.0734
18691W        W61604   6.232  28.854   1.733 -0.0568 -0.0323 -0.1525
18692W        W61605  34.121  29.550  21.246 -0.1724 -0.0417  0.0013
18693W        W61606   0.647  21.958  19.024  0.0839  0.0785  0.3733
18694W        W61607  28.383  31.765   4.058 -0.2080  0.0379  0.0667
18695W        W61608  26.328  32.244   4.573 -0.0043  0.0387 -0.0255
18696W        W61609  12.646   5.663  26.817  0.0065  0.3565  0.0398
18697W        W61610   1.988  20.068   5.513  0.2292  0.1044  0.0036
18698W        W61611   6.374  24.786  24.376  0.1741 -0.2517  0.2722
18699W        W61612   5.342  21.903  23.642 -0.4587 -0.2363  0.1043
18700W        W61613  33.492  26.842  17.100 -0.1578  0.0665  0.2432
18701W        W61614  30.368   4.523  29.278  0.0662  0.2926 -0.0622
18702W        W61615   2.040  32.155   0.863 -0.3253  0.2883  0.0630
18703W        W61616   4.910   7.271  27.031  0.2292  0.0858 -0.1374
18704W        W61617   1.790  31.914   8.432 -0.0806  0.0371 -0.1775
18705W        W61618  15.184  23.707   7.407  0.1206 -0.3089  0.1782
18706W        W61619  33.193  21.513  27.401 -0.1092  0.1730  0.0599
18707W        W61620   2.958  25.195  26.043 -0.4197 -0.2355 -0.1295
18708W        W61621   1.932  27.374   1.546 -0.4220 -0.0394  0.0979
18709W        W61622  34.257  14.106   8.727  0.3970  0.1111 -0.0121
18710W        W61623  31.314   5.881  28.388  0.1642 -0.1560 -0.1086
18711W        W61624  33.633  30.788  23.312 -0.0542 -0.0808  0.1588
18712W        W61625   8.514  28.300   1.094  0.0063  0.2696  0.1106
18713W        W61626   1.500   5.468   2.233  0.2734 -0.0521 -0.0522
18714W        W61627  12.046  29.680  17.573  0.1337  0.2893  0.0470
18715W        W61628   8.110  30.732  21.206 -0.0885  0.3261  0.0399
18716W        W61629   3.402   3.384  24.048  0.0714 -0.3078  0.1187
18717W        W61630   0.059  30.980  21.396  0.3799 -0.0401  0.0207
18718W        W61631  33.707  26.173   1.525 -0.2645 -0.1159  0.2057
18719W        W61632  31.544  12.632   1.660  0.0238  0.1387  0.0579
18720W        W61633   5.199  34.026  29.003  0.0965 -0.0238 -0.1856
18721W        W61634  34.446  28.707  16.160 -0.4048 -0.0441 -0.1498
18722W        W61635  31.498  18.322   3.085  0.0673  0.1017 -0.0214
18723W        W61636  31.096  28.636  22.712 -0.4094  0.0206 -0.1122
18724W        W61637  32.432  27.878  28.747  0.1846 -0.3571  0.1413
18725W        W61638  14.861  24.535  23.103  0.2066  0.0047 -0.0928
18726W        W61639  30.463  26.545  27.965 -0.1810 -0.0181 -0.0948
18727W        W61640  30.607  33.817  27.743  0.0232  0.0310  0.2787
18728W        W61641  32.901   6.583  27.089 -0.1768 -0.0427  0.0141
18729W        W61642   2.955  31.086   9.186  0.2773 -0.0113  0.1880
18730W        W61643   5.445  24.124  17.549 -0.3162  0.2550 -0.1076
18731W        W61644  32.690  30.406  20.055 -0.4090  0.0959  0.2348
18732W        W61645  12.126   3.246  22.296 -0.0168 -0.0208  0.0756
18733W        W61646   0.689  33.948  21.520 -0.1712 -0.1549  0.0594
18734W        W61647   0.024  26.560  17.171  0.0914 -0.2231 -0.0323
18735W        W61648  25.148  27.666  21.133 -0.1100  0.2039 -0.1065
18736W        W61649  30.872   3.815  11.840  0.0014  0.2619 -0.0563
18737W        W61650  13.255  29.127  25.497  0.4156  0.1115 -0.0378
18738W        W61651  29.218   1.946  15.484 -0.4422  0.1286 -0.0171
18739W        W61652   4.100  14.944  27.522  0.0970  0.3945 -0.1672
18740W        W61653  31.868   0.267  26.857 -0.0547 -0.2420  0.0272
18741W        W61654  28.810  22.258   4.593  0.1486 -0.2015 -0.4757
18742W        W61655  34.341  24.791   0.835  0.0282 -0.0627  0.0400
18743W        W61656  19.251  11.151   7.712 -0.1173 -0.1948  0.2192
18744W        W61657  30.065  28.688  28.945 -0.0518 -0.1537  0.0141
18745W        W61658   3.972  28.318   0.812  0.1846  0.2045 -0.0417
18746W        W61659   4.387  29.315   3.490  0.1584  0.0887 -0.2761
18747W        W61660  29.247  24.649  29.114  0.3942 -0.2552  0.0805
18748W        W61661  32.702  18.410   1.673 -0.1707  0.3553 -0.0376
18749W        W61662  23.950  32.751  28.847  0.1637 -0.2533 -0.1686
18750W        W61663  31.092  20.546   5.590  0.1888 -0.3181  0.1851
18751W        W61664   1.123   3.424  26.020  0.0190  0.0155 -0.0624
18752W        W61665   0.804  16.699   3.672 -0.1093  0.3700 -0.1820
18753W        W61666   0.976   1.125  28.318 -0.0235 -0.3095 -0.0766
18754W        W61667   5.582  21.752   0.722 -0.0563 -0.2114  0.0130
18755W        W61668  33.546  18.137  23.790 -0.2576  0.2489 -0.3247
18756W        W61669   1.914  22.480  17.383 -0.1595 -0.2355 -0.2919
18757W        W61670  14.556  29.643   0.449 -0.2834 -0.0420  0.1375
18758W        W61671   2.571   0.600  19.583  0.0761  0.0960 -0.0232
18759W        W61672   1.890  26.370   5.277  0.1246 -0.2024  0.1169
18760W        W61673  30.782  23.079  17.679  0.1514  0.1638 -0.1935
18761W        W61674   1.443  28.944   1.786  0.0742  0.1905  0.4103
18762W        W61675  34.458  24.332  27.320 -0.2201 -0.4570  0.3137
18763W        W61676  32.574  32.497  19.843  0.0030 -0.2798 -0.3757
18764W        W61677  29.978  20.807  19.231  0.2105 -0.3018  0.2774
18765W        W61678   3.138  25.928   5.197 -0.1945  0.2803  0.5193
18766W        W61679  31.582   3.884  19.052  0.1356 -0.1072 -0.1151
18767W        W61680  27.275   3.495  24.871  0.2513  0.1130  0.2898
18768W        W61681   7.311  29.482  21.493  0.0520 -0.2616  0.2381
18769W        W61682  26.365   4.865  28.349  0.0730  0.0361 -0.2292
18770W        W61683   3.507  19.954  23.711 -0.0784  0.1145  0.2186
18771W        W61684   4.049  22.476  20.981  0.0302  0.3176  0.4317
18772W        W61685   3.793  24.203  16.712 -0.2096 -0.1830 -0.1117
18773W        W61686  31.817  28.518  28.923  0.1330  0.0279  0.0582
18774W        W61687   6.826  29.394  19.692  0.1444  0.3873  0.4045
18775W        W61688   5.035  20.928  20.280  0.1920 -0.0836  0.0710
18776W        W61689  16.355  27.059  24.279  0.0744  0.1320  0.2832
18777W        W61690  32.318  27.435   3.707 -0.1337 -0.0532 -0.0465
18778W        W61691  33.572   1.560  28.626  0.0096 -0.0063 -0.1673
18779W        W61692  25.889   1.327  28.178  0.0785  0.2145  0.4137
18780W        W61693   2.009  27.367  23.740  0.2073  0.0259  0.1721
18781W        W61694  31.199  32.631  28.023 -0.1350 -0.1093 -0.0375
18782W        W61695  27.453   3.478   1.693  0.1848 -0.1848  0.3724
18783W        W61696  30.726  34.260  25.769  0.0345  0.2077 -0.2394
18784W        W61697   8.162  30.473  22.851  0.3504 -0.0625  0.1266
18785W        W61698   6.785  27.985   3.817  0.3209 -0.1153 -0.1988
18786W        W61699  26.762   3.596  14.391  0.0638  0.0042  0.1034
18787W        W61700   3.269  29.411   1.931  0.0086  0.1354 -0.1278
18788W        W61701  31.089  28.251  27.003 -0.3132 -0.5329 -0.2880
18789W        W61702  31.987  29.073   9.543 -0.1315  0.0565 -0.2419
18790W        W61703   0.811  29.364  27.290  0.0882 -0.1400 -0.0958
18791W        W61704  24.391  33.271  26.613  0.3049 -0.1556 -0.0380
18792W        W61705   8.924  28.829  17.721  0.0626  0.0043  0.1173
18793W        W61706   7.067  33.090   4.054 -0.1705 -0.1091  0.0413
18794W        W61707  15.383   0.966   0.453 -0.0930  0.0588  0.2580
18795W        W61708   4.713  29.829  28.621  0.0920 -0.3917 -0.0320
18796W        W61709  29.750  31.146   5.835  0.3190 -0.2512  0.1006
18797W        W61710  13.211  25.377  24.970 -0.1729 -0.1407 -0.0714
18798W        W61711  31.427   4.725   8.662  0.1542 -0.2852 -0.0459
18799W        W61712   5.598  32.081   9.137 -0.2448  0.3148 -0.4130
18800W        W61713  14.342  27.481  21.392  0.3129 -0.0347 -0.0601
18801W        W61714   1.932  12.013   2.055  0.0468 -0.0520  0.2119
18802W        W61715  11.070   0.019  16.033 -0.2622 -0.1913  0.0939
18803W        W61716  34.304   8.620   0.434  0.2467 -0.3711 -0.0399
18804W        W61717   3.036   1.647  22.138 -0.0373  0.1925  0.3381
18805W        W61718   0.190  22.306   0.925  0.0304  0.3483 -0.2197
18806W        W61719  30.854  26.450  21.942  0.3999 -0.0137 -0.3184
18807W        W61720   1.953  31.853   5.403  0.2257  0.0286 -0.0932
18808W        W61721  33.846  30.700  10.710 -0.2200 -0.1458  0.1409
18809W        W61722  33.697  28.513   2.985  0.0057 -0.2735 -0.1076
18810W        W61723  30.162   2.343  21.699 -0.0187  0.0466 -0.2782
18811W        W61724   5.292  24.984  24.167  0.1378  0.1477  0.4321
18812W        W61725  28.835   0.343  27.933 -0.3494 -0.1137 -0.1412
18813W        W61726  34.175  33.267  27.653 -0.0304 -0.1879 -0.1829
18814W        W61727  20.159  10.152   5.244  0.0364  0.0951  0.2148
18815W        W61728  31.662  33.155   4.391  0.3046 -0.3176 -0.0912
18816W        W61729   8.014   3.495  17.499 -0.0270  0.5518 -0.1938
18817W        W61730  11.085   0.497   6.088  0.0300  0.1866 -0.0123
18818W        W61731  32.190  29.867  21.318 -0.0679 -0.2633 -0.0732
18819W        W61732  30.339  33.522   4.252  0.3181 -0.0993  0.1116
18820W        W61733   4.238   6.723   0.954  0.0880 -0.0644  0.1108
18821W        W61734  30.552  32.113  19.763  0.2316 -0.0430  0.1471
18822W        W61735   0.990  21.078  21.693 -0.0263 -0.1497 -0.1655
18823W        W61736   0.108  34.130  24.918 -0.3669  0.1247 -0.3686
18824W        W61737   4.260  27.965   3.388  0.1638 -0.0167 -0.1757
18825W        W61738  15.636  21.649   6.877  0.3291 -0.2801 -0.0937
18826W        W61739   1.734   0.836  28.812  0.2827 -0.0111  0.2951
18827W        W61740  32.162   1.163  27.896 -0.1095 -0.0771  0.2763
18828W        W61741   3.333  32.659  28.440 -0.0743  0.0481  0.0533
18829W        W61742  33.663  32.847  26.747 -0.1135 -0.0040  0.1451
18830W        W61743  27.781   3.626   2.985 -0.0125  0.1861  0.3910
18831W        W61744  24.576  15.421  29.188  0.0161  0.0973  0.2172
18832W        W61745   4.298  34.273   6.831 -0.0345  0.2104  0.1988
18833W        W61746  30.256   7.295  27.929 -0.2528 -0.3285 -0.0282
18834W        W61747  11.290  31.370  23.177  0.0279  0.1623  0.2531
18835W        W61748   0.629  28.418   1.001  0.1634 -0.0181 -0.0555
18836W        W61749  31.955  19.437  19.009 -0.1324 -0.1432 -0.1255
18837W        W61750  25.543  29.879   0.767 -0.1227 -0.0355  0.2280
18838W        W61751  25.716  26.942  23.757  0.2928  0.0657 -0.1721
18839W        W61752   5.158  26.839  14.971  0.0274 -0.1453 -0.1525
18840W        W61753  26.177   0.072   1.661 -0.0065 -0.0930  0.0023
18841W        W61754  23.428  29.214   6.099 -0.0504 -0.2447  0.1484
18842W        W61755   2.461  31.819  21.047 -0.2136 -0.2655 -0.0147
18843W        W61756  28.879  29.644  23.242  0.0269  0.2533 -0.5963
18844W        W61757  33.112  21.080  25.028 -0.3197  0.0296  0.0817
18845W        W61758  34.465  27.595  20.612 -0.0766 -0.0590 -0.1264
18846W        W61759  32.405  22.389   3.133  0.2641 -0.1009 -0.1465
18847W        W61760   7.715   1.172  20.214 -0.1312  0.2724  0.2541
18848W        W61761  25.977  33.151  22.259 -0.0622  0.0035  0.1630
18849W        W61762   9.674  25.456   2.570 -0.0365  0.1999 -0.1494
18850W        W61763  31.952  30.599  27.596 -0.0322 -0.0299  0.0588
18851W        W61764  31.621  29.573   3.987  0.0416 -0.2809  0.0176
18852W        W61765   7.929   2.371  29.127 -0.1968 -0.2614 -0.0111
18853W        W61766  11.664  25.529  23.999  0.3797 -0.0010 -0.3012
18854W        W61767   1.651   4.182  28.738  0.2466 -0.1976  0.0727
18855W        W61768  28.091  29.416  26.488 -0.1273  0.2826  0.0176
18856W        W61769  30.435  30.729  20.544  0.1042  0.0038  0.0873
18857W        W61770  25.914  28.125  14.299  0.0165 -0.2051  0.3917
18858W        W61771  30.011  33.524   3.204 -0.2269 -0.3767  0.3356
18859W        W61772  27.245   2.118   4.096  0.0764  0.1924 -0.4074
18860W        W61773   7.387   6.058  27.504  0.0667 -0.0576 -0.1403
18861W        W61774   4.083  23.557  27.155 -0.1997  0.0757  0.0320
18862W        W61775  33.235  32.713  18.649 -0.0256 -0.2284  0.2125
18863W        W61776   3.706  24.474  21.263  0.1755  0.0276  0.2218
18864W        W61777   2.987  33.347   5.042 -0.0366  0.2874  0.2302
18865W        W61778   4.380  23.770  22.326  0.0707  0.0265  0.1387
18866W        W61779   2.055  23.126  15.202 -0.2270  0.1598 -0.1646
18867W        W61780  32.864  33.576  22.152 -0.0555 -0.3306  0.2052
18868W        W61781  33.557  20.113  25.983  0.5006  0.1768 -0.1393
18869W        W61782  11.355  25.885   7.060 -0.0125  0.0233  0.1891
18870W        W61783   4.596   2.935  23.547 -0.2432  0.1156  0.0578
18871W        W61784   5.155  21.527  25.123 -0.3056  0.0875  0.0547
18872W        W61785   8.999  32.148   1.793 -0.1372  0.1789 -0.1111
18873W        W61786   3.092  10.462  10.095  0.3186 -0.0585  0.1916
18874W        W61787  10.696  21.764  16.575 -0.0987  0.0723 -0.0029
18875W        W61788   1.905   2.422   1.119 -0.0686 -0.0888  0.1992
18876W        W61789  31.168  30.636  27.311 -0.2508  0.1041  0.4194
18877W        W61790   6.074  33.890   9.945 -0.3069  0.2708  0.3603
18878W        W61791   5.755  30.735  20.169 -0.1365 -0.2850 -0.0390
18879W        W61792  10.008  27.307  28.148  0.2964  0.2690  0.0861
18880W        W61793   0.427  26.650  28.834  0.2867 -0.1299 -0.0752
18881W        W61794  11.479   7.273   4.999 -0.3565  0.0872 -0.0997
18882W        W61795  31.568  29.699   5.695 -0.2131  0.3131  0.2062
18883W        W61796   5.334  32.008  25.152  0.1637 -0.2207  0.1616
18884W        W61797  27.410  23.963   2.523 -0.0619  0.1864 -0.0366
18885W        W61798   3.156  23.418   6.118  0.3310 -0.0942 -0.0659
18886W        W61799   8.714  32.846  17.622  0.1983 -0.3660 -0.0711
18887W        W61800  13.245  28.006  27.110  0.2649 -0.3485  0.2499
18888W        W61801   4.459   5.766  21.347  0.3804  0.1639 -0.0758
18889W        W61802  28.456  22.240  24.212  0.1590  0.1861 -0.0172
18890W        W61803  29.660  28.305   4.973 -0.1920 -0.1810  0.0233
18891W        W61804  31.393   7.839  23.722  0.1101  0.3815  0.3561
18892W        W61805   2.091   1.684  18.673  0.0992 -0.3268  0.0845
18893W        W61806   1.426  26.563  20.067 -0.1959 -0.0211  0.2085
18894W        W61807  33.761  27.871  25.479 -0.1075  0.1125 -0.3522
18895W        W61808   1.956  32.633  22.474  0.2322  0.3098 -0.0365
18896W        W61809   5.237  26.347  25.736 -0.0704 -0.0981  0.0083
18897W        W61810  10.271  30.785   0.825 -0.3593 -0.1968 -0.1502
18898W        W61811  26.196   0.932   1.641  0.2196 -0.1852  0.3536
18899W        W61812  33.483  25.807  29.161 -0.1534 -0.2254  0.0382
18900W        W61813   8.394  29.562   5.146 -0.0383  0.1641 -0.1223
18901W        W61814  33.470   6.405  10.615  0.1576 -0.1684  0.3755
18902W        W61815   1.877   0.613   3.746  0.1152 -0.2323  0.1526
18903W        W61816   0.761   5.300   3.286  0.3615 -0.1460  0.0012
18904W        W61817  32.591  24.610   2.017 -0.2038  0.1430 -0.0841
18905W        W61818  30.580   1.973  23.989 -0.1945 -0.0274  0.0550
18906W        W61819   3.119  31.723  29.748 -0.3660  0.1541 -0.0801
18907W        W61820  29.192  33.082   9.171 -0.1527 -0.1346 -0.0644
18908W        W61821  30.657   2.006  10.891  0.5427  0.1461 -0.1021
18909W        W61822   2.501   2.877   7.317 -0.2837  0.1256 -0.0284
18910W        W61823   3.264  15.670   1.624 -0.0331  0.5164  0.1638
18911W        W61824  26.923  27.840  26.229  0.2050 -0.1589 -0.0013
18912W        W61825  25.491  31.898   0.727  0.0011 -0.0787  0.1664
18913W        W61826   2.529  32.946  19.213  0.3677  0.2111 -0.0817
18914W        W61827   2.161  28.366  10.473  0.3430  0.1223 -0.2074
18915W        W61828   0.124  31.857   5.727  0.0867 -0.1170  0.2311
18916W        W61829   9.321  29.875  19.601  0.1851 -0.0572 -0.0116
18917W        W61830  28.998  33.296   3.577 -0.1690  0.1605 -0.1641
18918W        W61831   2.715  20.762  14.367 -0.1176 -0.1414  0.0447
18919W        W61832   7.597   1.183   8.564 -0.2395 -0.0963  0.2469
18920W        W61833  11.333  27.267  26.402 -0.6417 -0.1761  0.1206
18921W        W61834  23.957  31.938   5.483 -0.0918 -0.3130 -0.0153
18922W        W61835  23.464  29.609   0.228 -0.5034 -0.0056 -0.1863
18923W        W61836  33.634  27.413   4.779  0.0498 -0.3484  0.0082
18924W        W61837  31.244   0.669   2.881  0.0182  0.0096  0.1130
18925W        W61838   9.932  25.912  29.410  0.0674 -0.0946 -0.0856
18926W        W61839  27.513  19.128  16.689 -0.1053 -0.2809 -0.1431
18927W        W61840  30.250   4.064  29.008 -0.2918  0.2401 -0.0581
18928W        W61841   2.629  23.314  26.683 -0.0672 -0.3928  0.0168
18929W        W61842   8.258  30.186   1.258 -0.4415  0.0971 -0.1864
18930W        W61843  27.824  33.043  15.434  0.2871  0.0873  0.3030
18931W        W61844  34.479  21.676   0.904 -0.0555 -0.0827  0.1321
18932W        W61845  29.305   4.526   7.450 -0.1652 -0.1282 -0.0961
18933W        W61846   1.170   5.220   5.876  0.1661  0.2577 -0.0459
18934W        W61847   4.423  25.884  16.714  0.0503 -0.0100 -0.0740
18935W        W61848   3.489  23.151  26.519  0.1457  0.1841  0.2895
18936W        W61849  30.047  22.453  27.838  0.0034  0.0999  0.2558
18937W        W61850   0.537  30.672  29.222  0.4242 -0.1274 -0.2624
18938W        W61851  29.453  21.920  26.210  0.0242  0.0944 -0.0275
18939W        W61852  32.203  21.444   5.077 -0.0034 -0.3258 -0.2426
18940W        W61853   0.796  17.199  27.472 -0.0565 -0.1639  0.0912
18941W        W61854  12.603   5.065   3.237  0.0597 -0.0622 -0.0232
18942W        W61855   4.579   5.894   7.777 -0.0971 -0.1096  0.0418
18943W        W61856   2.736  28.780  19.805 -0.3132  0.0002  0.1381
18944W        W61857  27.938  19.877   5.247 -0.0838 -0.0067 -0.0453
18945W        W61858  20.518  26.990  21.227  0.1703  0.1757  0.2810
18946W        W61859   5.637  28.759  25.887  0.0710 -0.0814  0.0809
18947W        W61860   6.544  31.838  27.322 -0.0018 -0.2579 -0.2193
18948W        W61861   8.542  30.550  27.259 -0.3715 -0.2407 -0.0428
18949W        W61862   9.164  31.271  29.737  0.0762  0.2823 -0.1750
18950W        W61863   7.569   5.020  27.183 -0.1018 -0.0479 -0.1459
18951W        W61864  30.736  24.822   4.684  0.1114 -0.2064 -0.1265
18952W        W61865   6.896   1.652   1.180 -0.1272 -0.0981  0.1070
18953W        W61866   0.374  31.520  19.973 -0.0639  0.1824  0.1446
18954W        W61867  31.813   5.760  24.295  0.1968 -0.0590 -0.1873
18955W        W61868   1.902  28.335  28.237 -0.0784 -0.0410 -0.3129
18956W        W61869   2.182  28.049   6.001  0.2778  0.0807  0.1647
18957W        W61870  14.371  30.209   3.503 -0.0062 -0.0886 -0.0235
18958W        W61871   6.734  30.780  26.436 -0.0232 -0.1023  0.3063
18959W        W61872   8.970   0.678  21.666  0.1398 -0.0909 -0.1874
18960W        W61873   8.176   1.832  23.140 -0.3545 -0.2047  0.0086
18961W        W61874   8.923  31.094  17.245 -0.0180  0.0129  0.0811
18962W        W61875  23.374   7.201  24.287  0.1147  0.4782  0.0131
18963W        W61876   0.309  23.764  21.872 -0.3054 -0.0591 -0.1353
18964W        W61877  14.631  25.138  27.736  0.4995 -0.0496 -0.3437
18965W        W61878   2.311  34.106  21.449 -0.2301  0.0261 -0.1673
18966W        W61879  28.947  26.868  21.674 -0.3728 -0.0097 -0.4012
18967W        W61880  30.134  29.113  21.928 -0.2301  0.1970 -0.1248
18968W        W61881  32.434  23.323  18.852 -0.0188 -0.0991  0.1938
18969W        W61882   8.008   2.752  19.704  0.0404 -0.1635  0.1929
18970W        W61883   3.773  33.515  19.329 -0.3014 -0.0610 -0.1408
18971W        W61884  34.128   6.964  19.576 -0.1477  0.0772  0.0830
18972W        W61885   9.646   1.227  17.715 -0.1324  0.0090 -0.1068
18973W        W61886   0.766   3.263  20.168 -0.0754 -0.0037 -0.0309
18974W        W61887  31.094   1.249  19.308 -0.0702  0.0577 -0.1954
18975W        W61888  12.187  25.379  24.152 -0.1806 -0.1940  0.0789
18976W        W61889  24.744  24.199  23.956  0.0456  0.0190 -0.1335
18977W        W61890   6.223  29.678  25.456 -0.2854  0.0639  0.0320
18978W        W61891  34.472   6.184  19.622 -0.0397  0.1280 -0.0492
18979W        W61892  28.833  29.539  25.853  0.1598  0.0259  0.0574
18980W        W61893   3.541  30.124  19.084 -0.0290  0.2683  0.0331
18981W        W61894  29.223  21.441  18.516  0.0319 -0.0314  0.1102
18982W        W61895  33.960  32.372  20.869  0.0235 -0.1677  0.0691
18983W        W61896  10.286   3.804  19.092 -0.3747 -0.1619  0.0672
18984W        W61897   5.997   3.376  19.015 -0.1004 -0.2357 -0.1141
18985W        W61898   2.898  24.360  18.843 -0.0481 -0.0452 -0.1304
18986W        W61899   3.003  25.114  17.274 -0.0589  0.3955  0.0518
18987W        W61900   3.130  30.480  23.150  0.1760 -0.0165  0.0459
18988W        W61901   3.085  26.287  15.899 -0.0502  0.0610 -0.0368
18989W        W61902  30.817   2.757  24.711 -0.1863 -0.2749 -0.2703
18990W        W61903   3.178   9.971  22.317  0.0997 -0.2927  0.3490
18991W        W61904  33.658  27.120  13.439 -0.0109  0.0393  0.2232
18992W        W61905   5.621   4.779  19.151 -0.3209 -0.4763  0.1655
18993W        W61906   0.498  28.139  19.174 -0.0480 -0.1972  0.3531
18994W        W61907   2.329   1.135  20.410  0.0413 -0.0447 -0.0156
18995W        W61908  12.475  28.617  21.846 -0.1586  0.1992 -0.3149
18996W        W61909  29.681  19.882  16.781 -0.0930 -0.2018 -0.1817
18997W        W61910   8.373  14.108  19.502  0.1603 -0.2691 -0.1407
18998W        W61911  17.899   3.631  15.203 -0.1522 -0.4095 -0.0452
18999W        W61912  31.696  33.750  18.390 -0.1777 -0.1568  0.0128
19000W        W61913   3.672   2.006  26.876 -0.0817 -0.1207 -0.0353
19001W        W61914   4.492   4.314  20.605  0.2353  0.1317  0.0149
19002W        W61915   1.887  29.787   0.280 -0.3692 -0.0965 -0.0346
19003W        W61916  32.245  22.005  13.085 -0.0552  0.1624 -0.1121
19004W        W61917  33.314   1.056  19.910 -0.5078  0.0481  0.0733
19005W        W61918   3.434  34.318  26.319 -0.4611  0.2064  0.1568
19006W        W61919  32.243  29.259  23.828  0.0666  0.0988  0.0393
19007W        W61920   3.898  26.242  21.876  0.2481  0.3377 -0.0989
19008W        W61921  33.246  29.475  20.823 -0.0750 -0.1895 -0.0866
19009W        W61922  10.390  34.015  22.340  0.0088  0.1285 -0.3012
19010W        W61923   5.013  32.473  18.177 -0.0446 -0.0031 -0.1453
19011W        W61924  34.408  30.074  15.596 -0.0940 -0.0152  0.1324
19012W        W61925   4.011  20.606  21.910  0.2119  0.1498  0.2590
19013W        W61926  29.559  11.441  19.881  0.1621 -0.1485  0.1000
19014W        W61927  26.875   6.429  24.900  0.3280 -0.2441 -0.1660
19015W        W61928   0.980  32.012  15.308 -0.0407 -0.0487  0.0735
19016W        W61929   0.278  32.198  21.530  0.2239  0.0715  0.1876
19017W        W61930   3.050  18.595  27.247  0.1701  0.1258 -0.4095
19018W        W61931  32.880  31.658  16.232 -0.2035  0.0391  0.0136
19019W        W61932  32.947   0.917  28.712  0.0724 -0.2471  0.1073
19020W        W61933  33.576   0.650  24.670  0.2463 -0.0727 -0.0804
19021W        W61934  33.233  32.284  22.947 -0.2597 -0.1061 -0.0024
19022W        W61935  33.869   5.688  18.499 -0.1163 -0.1431 -0.2457
19023W        W61936  33.935  24.028  18.664 -0.0177 -0.1526 -0.1783
19024W        W61937  33.761  32.984  26.161  0.0743 -0.0152 -0.1420
19025W        W61938  31.216  26.451  25.134  0.2970 -0.0115  0.0636
19026W        W61939  14.368  33.162  20.968  0.2629  0.2169  0.2433
19027W        W61940   1.021  28.279  15.373  0.2989  0.1029 -0.0263
19028W        W61941   4.388  23.006  26.411  0.4401 -0.0548 -0.1004
19029W        W61942   1.845   1.181  19.579  0.1269  0.1650 -0.1565
19030W        W61943   0.641  32.214   3.808 -0.0004 -0.0135 -0.0605
19031W        W61944  13.638  24.599  15.336  0.3426  0.1736  0.0947
19032W        W61945  32.248  21.805  17.789  0.0076  0.0883 -0.0569
19033W        W61946   3.519  30.825  20.079 -0.0666 -0.0121 -0.3423
19034W        W61947  32.410  22.534  16.206 -0.0211 -0.0713 -0.0602
19035W        W61948   9.361   2.654  21.479 -0.3047  0.0444 -0.0599
19036W        W61949  21.784  12.143  19.564  0.2536 -0.1785  0.0940
19037W        W61950  27.892  30.687  20.626 -0.0535  0.0067  0.1411
19038W        W61951  10.337   1.121  20.794  0.1380  0.0744  0.3186
19039W        W61952  32.460  31.825  25.335 -0.1740 -0.0606  0.0488
19040W        W61953   5.417  31.862  17.530  0.2842  0.2680 -0.2853
19041W        W61954   0.849   2.727  28.933 -0.0196 -0.0130 -0.0734
19042W        W61955   0.778  33.262  26.973 -0.2004 -0.1012  0.0425
19043W        W61956   4.335   0.750  18.966 -0.1543 -0.2428  0.0474
19044W        W61957   4.060   3.563  19.604 -0.0821 -0.0315 -0.2660
19045W        W61958  22.522   6.452  25.317  0.0426 -0.1001  0.1391
19046W        W61959  28.737   2.261  26.363  0.0297  0.1313 -0.0185
19047W        W61960  27.512  11.586  28.559 -0.0218 -0.0291 -0.1196
19048W        W61961   1.570  27.215  18.830 -0.3517  0.2597  0.1004
19049W        W61962   6.358  28.542  18.356 -0.0275  0.0151  0.0676
19050W        W61963   6.369   4.512  18.038  0.0642  0.0588 -0.0939
19051W        W61964   1.276  27.730  17.745 -0.1108  0.0210 -0.1153
19052W        W61965   4.365  31.467  20.160  0.0538 -0.0899  0.0486
19053W        W61966   1.807  28.958  21.153  0.1529  0.2341  0.0398
19054W        W61967   1.738  25.789  19.929  0.0829  0.2884  0.3756
19055W        W61968  27.045  28.295  25.294  0.0737  0.1850 -0.0803
19056W        W61969   4.281  26.783  17.042  0.2542 -0.2797  0.2075
19057W        W61970  28.632  32.098  20.652  0.3995 -0.1335  0.0217
19058W        W61971   0.747  33.962  19.699 -0.0299 -0.2517  0.0933
19059W        W61972  18.205  25.074  23.610  0.1697  0.2395  0.2870
19060W        W61973   6.145  28.354  27.861 -0.2825  0.0763  0.1110
19061W        W61974   0.338  23.986  15.896  0.0313 -0.0263  0.0452
19062W        W61975   8.126   1.627  21.527 -0.0340  0.0940 -0.1683
19063W        W61976   2.086   0.344  17.252  0.3494 -0.2447  0.0127
19064W        W61977  31.412  31.887  19.975 -0.0761 -0.2010 -0.1433
19065W        W61978   0.293  30.898  19.379  0.1113 -0.0101 -0.0229
19066W        W61979  33.203  25.102  20.539 -0.1191 -0.0929  0.1891
19067W        W61980   4.805  22.281  19.256 -0.0204  0.0427 -0.0845
19068W        W61981   6.751   1.860  18.028 -0.2448  0.0337  0.0566
19069W        W61982  30.612  33.892  21.065 -0.0283  0.0174  0.1150
19070W        W61983  34.423  31.259  20.118 -0.1175 -0.4502 -0.0451
19071W        W61984  27.218   6.535  14.193  0.0930  0.2078  0.3057
19072W        W61985  13.110  21.837  27.082 -0.4180 -0.0051  0.1377
19073W        W61986  34.165  24.228  22.951 -0.0249  0.1564  0.1632
19074W        W61987   0.002  33.691  17.719 -0.0059 -0.0649 -0.1042
19075W        W61988  13.210   2.703  16.395  0.2376 -0.5972  0.1522
19076W        W61989   0.293  21.541  14.078 -0.1033 -0.2685  0.0455
19077W        W61990   7.705   3.261  19.451  0.4491 -0.1056 -0.1693
19078W        W61991   5.154   2.705  17.528  0.1205  0.0213  0.1392
19079W        W61992  33.156   1.100  18.260 -0.2316 -0.3343  0.2658
19080W        W61993   1.663   6.433  21.363  0.1861  0.2262  0.0550
19081W        W61994  25.971   0.587  21.921 -0.3234  0.0332  0.1069
19082W        W61995   5.208  25.545  17.279  0.3356  0.0573 -0.1360
19083W        W61996   0.772  33.224  19.082  0.0492 -0.1246  0.1211
19084W        W61997  33.484   3.191  15.610  0.3412  0.0887 -0.2496
19085W        W61998   1.301  24.932  20.863 -0.1839 -0.1246 -0.1074
19086W        W61999  11.198   3.719  20.909 -0.1620  0.2809  0.2952
19087W        W62000   0.620  33.971  18.529  0.3169 -0.2794  0.0342
19088W        W62001  13.641  29.138  16.192  0.0847  0.1402 -0.1482
19089W        W62002  30.144  30.632  22.061  0.1461 -0.3628 -0.0513
19090W        W62003   2.502  14.324  25.873  0.2729  0.2599  0.0047
19091W        W62004   4.721  27.393  18.388  0.1726 -0.2462  0.1426
19092W        W62005   9.812   0.107  17.223 -0.1241  0.1457 -0.3126
19093W        W62006   0.546  30.154  13.938  0.1311  0.0793 -0.1720
19094W        W62007  30.783   5.922  23.424 -0.2643  0.2349  0.1197
19095W        W62008   5.070   3.585  21.804  0.0374 -0.3266  0.0165
19096W        W62009  28.339   0.186  19.629 -0.0219 -0.0845 -0.0520
19097W        W62010   0.580  20.608  15.584 -0.2479 -0.4617 -0.1359
19098W        W62011  33.496   3.881  25.084 -0.0393  0.0983 -0.1240
19099W        W62012  24.693   2.527  20.328  0.1130 -0.0381 -0.0699
19100W        W62013  12.174   1.185  23.346 -0.4050  0.1372  0.0290
19101W        W62014  26.829  30.611   3.458 -0.1442 -0.2493  0.0173
19102W        W62015  17.810  24.347  21.497 -0.0708 -0.1831 -0.1521
19103W        W62016   1.125   5.187  17.038 -0.0312  0.0787  0.2929
19104W        W62017   6.453   6.036  26.633 -0.1429 -0.0359  0.0579
19105W        W62018  26.611  28.390  16.034  0.1161  0.0012 -0.4407
19106W        W62019   4.648  28.632  22.022  0.0012 -0.0404 -0.0556
19107W        W62020  12.407  32.781  15.527  0.2628 -0.3832 -0.1169
19108W        W62021  11.810  32.864  17.097 -0.1532  0.5141 -0.1565
19109W        W62022   0.299  22.119  26.965 -0.1791 -0.3234  0.0892
19110W        W62023   7.270  30.115  24.542  0.4733 -0.0507 -0.1775
19111W        W62024   2.719  27.263  16.958 -0.0074 -0.1546 -0.0027
19112W        W62025   6.382  23.811  22.011  0.2815  0.0048 -0.0731
19113W        W62026  24.039   3.032  22.556  0.0717 -0.1990  0.0880
19114W        W62027   0.841   0.052  17.295 -0.3577  0.0910 -0.3749
19115W        W62028  30.805  31.056  16.285  0.0740 -0.1956 -0.0515
19116W        W62029   6.769  28.812  25.472 -0.3270  0.1392 -0.2497
19117W        W62030  10.383  26.437  25.761 -0.2702  0.3486 -0.0212
19118W        W62031  21.061  28.526  20.271 -0.1500 -0.2231 -0.0628
19119W        W62032   9.623   3.005  21.793  0.1374  0.3487 -0.1358
19120W        W62033   0.115  31.652  16.563 -0.2099 -0.2235 -0.0559
19121W        W62034  20.259  26.271  14.913  0.0940 -0.3344  0.0755
19122W        W62035  25.224   2.375  16.776 -0.2655 -0.2011 -0.0151
19123W        W62036  26.430  31.929  17.538  0.0205  0.0072  0.2554
19124W        W62037  32.435  27.727  16.672 -0.0454 -0.0879 -0.2193
19125W        W62038  10.037  32.999  21.799 -0.4742 -0.1929  0.0415
19126W        W62039   5.986  25.122  20.559  0.0058  0.1896  0.3188
19127W        W62040  28.314  31.530   0.970  0.1118 -0.0832  0.1808
19128W        W62041  31.036  28.432  19.723  0.2797 -0.0525 -0.5536
19129W        W62042   2.417   9.395  26.789  0.0761 -0.1872 -0.1751
19130W        W62043   2.651   1.355  24.599  0.0748  0.1426  0.0066
19131W        W62044   2.840  26.585  20.089 -0.3318 -0.1122 -0.3349
19132W        W62045  32.761  31.722  15.076  0.2049  0.2837 -0.1380
19133W        W62046   3.802   0.365   6.210  0.0494  0.1663  0.0828
19134W        W62047   8.627   6.002  20.383 -0.0255  0.1129  0.1247
19135W        W62048   4.118   1.100  20.771  0.0127  0.2040  0.5312
19136W        W62049  33.265   1.177  23.784  0.1189  0.2751  0.2130
19137W        W62050   9.204  32.013  17.002  0.1500  0.0092 -0.3361
19138W        W62051  31.711   5.831  22.056  0.2450 -0.0268 -0.3118
19139W        W62052   4.252  30.805  20.177 -0.0671 -0.1473 -0.0958
19140W        W62053   0.323  23.647  17.982  0.0362 -0.0067 -0.1044
19141W        W62054  24.078  34.462  23.781  0.4345  0.3255  0.1398
19142W        W62055   3.876   1.530  18.970 -0.0228  0.0328  0.1542
19143W        W62056   4.810  27.596  25.500 -0.0635  0.1583 -0.0670
19144W        W62057   9.615  32.615  20.178  0.3065 -0.3073 -0.0718
19145W        W62058   0.078   0.190  24.626 -0.1035  0.1737  0.3484
19146W        W62059  24.781  27.105  25.022  0.2054  0.0112  0.2092
19147W        W62060  25.331  28.618  22.328 -0.2598 -0.0106  0.2511
19148W        W62061  10.283  11.195  20.357 -0.0795  0.2087  0.3634
19149W        W62062   0.758  33.468  21.374 -0.3149  0.2574  0.3951
19150W        W62063  32.954  24.349  19.502  0.0292 -0.1515 -0.0331
19151W        W62064   6.602  33.558  18.742  0.1426 -0.3281  0.1567
19152W        W62065   0.345  33.398  19.293  0.1013  0.1590  0.0995
19153W        W62066  31.581  31.472  14.423  0.3379 -0.2232  0.3013
19154W        W62067  32.839   0.723  19.212 -0.2723  0.2002  0.2016
19155W        W62068   0.504   7.480  22.880  0.1009 -0.2191  0.0658
19156W        W62069  31.832  32.755  26.879 -0.2551 -0.0337  0.2772
19157W        W62070   5.104  20.195  17.842  0.1413  0.1168 -0.2392
19158W        W62071  34.354  30.414  19.293 -0.3988 -0.1557 -0.1098
19159W        W62072  29.881  21.052  14.972  0.2518 -0.3549  0.0439
19160W        W62073   5.533  24.966  22.955 -0.0209 -0.0052 -0.0700
19161W        W62074  34.442  32.405  27.540  0.1663  0.2497  0.1063
19162W        W62075  27.881   4.584  20.310 -0.0763 -0.2022 -0.0690
19163W        W62076  29.361   0.167  19.633 -0.2428 -0.0504  0.3603
19164W        W62077   8.321   5.407  22.691  0.1446  0.1288 -0.0058
19165W        W62078  26.747  28.422  21.743  0.0600  0.0084 -0.2771
19166W        W62079  13.614  25.888  19.122  0.1151 -0.0486 -0.2441
19167W        W62080  31.913   5.964  23.792  0.3793  0.1127  0.1947
19168W        W62081   3.886   2.058  19.224 -0.1472 -0.0472 -0.0846
19169W        W62082  33.537  30.055  17.000 -0.0290 -0.1942  0.1130
19170W        W62083   3.696  27.913  15.188  0.3460  0.1300 -0.0872
19171W        W62084  31.527  27.389  21.933 -0.0599 -0.1787 -0.0219
19172W        W62085   2.710  30.666  16.719  0.0179 -0.3166 -0.1700
19173W        W62086  31.901  33.759  17.044  0.2508 -0.2837 -0.0440
19174W        W62087  10.221  27.150  28.863 -0.3157  0.1565 -0.2484
19175W        W62088   1.693  34.286  24.511  0.3035 -0.2565  0.2478
19176W        W62089  27.209  27.231  19.788  0.1209  0.3782  0.1653
19177W        W62090  32.412  14.767  16.165 -0.0223 -0.0747  0.0143
19178W        W62091   0.604   4.896  20.751  0.0921 -0.2026 -0.2086
19179W        W62092  32.122  27.970  16.923  0.1626 -0.1269  0.4747
19180W        W62093   4.556  28.263  18.444 -0.0244 -0.2483  0.0453
19181W        W62094  33.044   0.720  15.514  0.2577 -0.2224  0.1088
19182W        W62095   2.889  20.079  19.895 -0.0908 -0.2381  0.0949
19183W        W62096   2.095   1.315  24.787 -0.2185  0.2422 -0.2640
19184W        W62097  22.968  25.569  20.120 -0.2834  0.0205  0.1140
19185W        W62098   0.166   0.870  26.862 -0.0140 -0.1374 -0.1381
19186W        W62099   0.812  26.156  20.150 -0.1965  0.3278  0.1329
19187W        W62100  29.813  25.699   5.079  0.0274  0.2004  0.0447
19188W        W62101   0.177  24.771  20.836 -0.2310 -0.1166 -0.0527
19189W        W62102   1.955  32.262   8.752  0.2791 -0.2942 -0.3034
19190W        W62103  32.129  30.571  27.126  0.5498  0.0196 -0.2554
19191W        W62104  30.679  26.308  25.492  0.1038 -0.0340  0.3114
19192W        W62105  32.313   1.817  29.633 -0.1650 -0.0302  0.0546
19193W        W62106   6.031  10.920  28.749 -0.4305  0.0874 -0.0347
19194W        W62107   0.859  33.815  23.309 -0.3423 -0.2323  0.1139
19195W        W62108   9.141  29.579  22.367 -0.4206  0.2181 -0.2103
19196W        W62109   9.246  31.744  24.745 -0.1326 -0.5089 -0.0022
19197W        W62110   0.375  26.855  15.853 -0.2636  0.0124  0.1719
19198W        W62111   3.680  32.110  17.534  0.1486  0.1748  0.1936
19199W        W62112  31.591   7.357   1.327 -0.1378  0.0071 -0.3243
19200W        W62113   0.850   3.589  19.732 -0.4409  0.2523 -0.5231
19201W        W62114   8.928  28.073  16.379 -0.0013 -0.2571  0.2905
19202W        W62115   7.791  28.771  20.355 -0.1227  0.2108  0.1955
19203W        W62116   3.754  27.103  18.163  0.0214 -0.1581 -0.0995
19204W        W62117   7.741  29.891  21.427 -0.3269  0.1785 -0.2156
19205W        W62118   6.377  32.084  20.108 -0.0908 -0.1913 -0.0659
19206W        W62119  27.646  23.411  18.054  0.1446 -0.2639 -0.1831
19207W        W62120  16.186   8.003   1.740 -0.0392  0.1061 -0.1639
19208W        W62121   6.252  23.560  20.000  0.0717  0.0887  0.0560
19209W        W62122   0.223  25.102  21.562  0.0723 -0.0534  0.1127
19210W        W62123  29.812   2.349  21.318 -0.1805  0.0964 -0.2508
19211W        W62124   4.347   3.545  23.930 -0.3080  0.3333 -0.0146
19212W        W62125   0.673  31.217  15.203 -0.1214 -0.0319 -0.1398
19213W        W62126   4.654   2.313  29.082  0.0545  0.0138 -0.0480
19214W        W62127  15.786  21.754  20.201 -0.1256 -0.1176 -0.0101
19215W        W62128   0.464  30.031  29.089 -0.1306  0.1875  0.0900
19216W        W62129  11.770  31.530  23.816 -0.1468 -0.2857 -0.0721
19217W        W62130  33.041  33.606  18.349  0.2255 -0.0468 -0.0702
19218W        W62131   7.726  28.537  25.346 -0.2380  0.2754 -0.0945
19219W        W62132   3.065  23.337  23.774  0.0988 -0.1545 -0.0696
19220W        W62133  33.227  28.202  20.334  0.1726 -0.1234 -0.0112
19221W        W62134  32.421  28.485  18.358  0.0179 -0.4192  0.1038
19222W        W62135  33.505   3.479   4.280  0.0540  0.1900  0.2415
19223W        W62136   5.487  28.571  27.419  0.2159 -0.0070 -0.0391
19224W        W62137  33.938   6.422  20.756 -0.0763 -0.2367  0.0673
19225W        W62138   1.148  15.937  29.210 -0.0091  0.1465  0.3509
19226W        W62139  33.523   5.836  17.410  0.0480 -0.0615 -0.0004
19227W        W62140  26.527  32.839  18.640 -0.0541  0.1122  0.5127
19228W        W62141   6.669   0.924  17.427 -0.1866 -0.1605  0.1105
19229W        W62142  11.278   1.353  29.729 -0.0964 -0.4033 -0.1049
19230W        W62143  15.799  34.103  20.888  0.0105 -0.2467 -0.2066
19231W        W62144  33.995   0.475  24.111  0.1648  0.2771  0.1803
19232W        W62145  33.036  29.853  17.222 -0.3205 -0.1504 -0.1105
19233W        W62146  11.436  12.962  23.061  0.2138  0.0595 -0.0669
19234W        W62147  24.781  23.690  24.050  0.0525 -0.1515 -0.1533
19235W        W62148  33.318  27.746  20.591 -0.0558  0.1481 -0.2197
19236W        W62149   9.519   4.965  21.009 -0.1786  0.0732  0.1845
19237W        W62150   1.963   3.075  19.213 -0.1729 -0.1304 -0.1689
19238W        W62151   2.333   3.520  20.588 -0.2104  0.3153  0.0428
19239W        W62152   9.737  29.370  27.646  0.0106  0.2953 -0.0818
19240W        W62153   6.488  25.587   0.582  0.0320 -0.2654 -0.0645
19241W        W62154  30.107  25.054  16.886 -0.2311  0.0677  0.1456
19242W        W62155   1.370  30.115  20.528  0.0356 -0.0318  0.1503
19243W        W62156  10.825  26.584  28.569  0.0474 -0.0339  0.1189
19244W        W62157   2.098   0.465  18.584 -0.0179 -0.0615  0.0642
19245W        W62158   0.863  26.577  19.225  0.1075  0.0245 -0.0493
19246W        W62159   3.607   1.201  24.195 -0.2374 -0.1872  0.2796
19247W        W62160   3.853  28.966  22.439  0.0119  0.1971 -0.2576
19248W        W62161   5.292   7.854  24.252  0.0650  0.0652  0.1233
19249W        W62162  31.040   2.934  27.815  0.0141 -0.2120  0.1193
19250W        W62163   4.635   4.794  27.232  0.1757 -0.1941 -0.0874
19251W        W62164   4.592  27.963  23.430 -0.1659  0.1188  0.1157
19252W        W62165  10.601  29.361  17.554 -0.2345 -0.2138  0.0078
19253W        W62166  18.702   8.621  15.111  0.1066 -0.1568  0.1395
19254W        W62167   4.056   5.606  25.356 -0.1053  0.1311  0.2557
19255W        W62168  26.896   0.979  15.854 -0.0432 -0.0002 -0.3280
19256W        W62169  32.567  26.849  19.806 -0.1073  0.0239  0.0825
19257W        W62170  11.909   4.403  29.637 -0.1448  0.0485 -0.0610
19258W        W62171  32.422  24.441  27.450 -0.0296 -0.3145  0.0245
19259W        W62172   1.879  32.761   0.088 -0.1820  0.0992 -0.1114
19260W        W62173   7.741   9.581  21.953  0.0682  0.2066 -0.3041
19261W        W62174  13.931   1.329  22.779 -0.1236  0.0351 -0.1301
19262W        W62175   1.307  25.569  24.134  0.1234  0.2219  0.0390
19263W        W62176  31.994  33.809  21.280  0.1276 -0.2576  0.2929
19264W        W62177  27.997  23.700  23.954  0.0547  0.0501  0.0111
19265W        W62178   2.666  28.405  16.266  0.3238  0.1166  0.0269
19266W        W62179  29.304   4.404  29.233  0.1412  0.0278 -0.1774
19267W        W62180   5.073  30.800  22.118 -0.1951  0.1555  0.0505
19268W        W62181  33.481  21.861  26.810  0.4347 -0.2317 -0.1838
19269W        W62182   3.652  30.384  22.222 -0.0189 -0.1209  0.1113
19270W        W62183  33.167   7.465  26.074  0.1331  0.0577 -0.1075
19271W        W62184  12.676  21.416  16.346 -0.1113 -0.0210 -0.1101
19272W        W62185  27.604   0.007  17.223 -0.0647  0.0242 -0.0113
19273W        W62186   5.366   3.672  24.254  0.0260  0.0238 -0.2628
19274W        W62187   2.304  22.748  25.031 -0.3345  0.1260 -0.0311
19275W        W62188   1.482   1.942  26.265  0.2273  0.2479  0.3441
19276W        W62189  30.143   2.553  19.566  0.1593 -0.2123  0.3398
19277W        W62190   3.888  26.415  28.600 -0.3530  0.1939 -0.2086
19278W        W62191   8.886  25.242  18.935 -0.0723 -0.3322  0.0559
19279W        W62192  32.759  32.979  22.010 -0.3452 -0.3635 -0.1898
19280W        W62193  21.266  33.826  18.640  0.2484  0.0415 -0.2481
19281W        W62194  32.936  29.153  19.404  0.0201  0.1148  0.0841
19282W        W62195  33.456   6.476  20.268  0.2148 -0.0587  0.0179
19283W        W62196   0.379   3.004  22.327  0.2687  0.1972  0.0910
19284W        W62197  34.193  27.053  14.952 -0.3677 -0.2511 -0.3277
19285W        W62198  11.135   1.049  22.424  0.0885 -0.0861 -0.1983
19286W        W62199  32.472  29.702  16.160 -0.4739 -0.0437  0.0027
19287W        W62200  24.880  23.521  20.618  0.1210 -0.2191  0.2047
19288W        W62201  21.984  30.657  18.057  0.0495  0.2407 -0.0868
19289W        W62202   0.948  29.759  27.046  0.3528  0.0731  0.2216
19290W        W62203   2.691  34.216  19.813 -0.0607  0.0980 -0.2690
19291W        W62204   4.172  27.184  16.562 -0.0010  0.0799  0.2277
19292W        W62205  30.996  26.947   9.118 -0.0958 -0.2740 -0.0186
19293W        W62206  34.131  33.351  29.006  0.1059  0.3075  0.0635
19294W        W62207   4.994   2.015  21.393  0.0614 -0.1383 -0.0628
19295W        W62208  32.398  31.331  14.946  0.0938  0.3115 -0.0553
19296W        W62209  29.065  28.059  15.371 -0.1242  0.0889  0.2972
19297W        W62210   5.841   4.096  21.897 -0.1217  0.1132  0.2645
19298W        W62211   9.037  32.331  18.889 -0.0349 -0.0185  0.0489
19299W        W62212  11.895  31.608  19.012 -0.0298 -0.0722 -0.0108
19300W        W62213  31.742  33.480  19.406 -0.2178 -0.0972  0.0039
19301W        W62214   0.665  28.864  21.060 -0.0522  0.0291  0.1960
19302W        W62215   6.354  21.390  26.089 -0.1187 -0.0368 -0.0637
19303W        W62216   3.333  22.148  18.031 -0.2124  0.0098  0.0930
19304W        W62217   0.069  30.584  29.550  0.1197 -0.3030  0.0282
19305W        W62218   7.490   4.462  20.209  0.0975  0.2574 -0.0511
19306W        W62219  28.239  34.024  23.838 -0.1322 -0.0632  0.0834
19307W        W62220  10.471  10.182   3.224 -0.0992  0.0442 -0.1133
19308W        W62221  25.110  30.582  18.444 -0.0184 -0.2865  0.2954
19309W        W62222   1.332  33.550  28.517 -0.0377 -0.0095 -0.0062
19310W        W62223   3.811   4.559  22.475 -0.1569 -0.0719 -0.0077
19311W        W62224   3.562   0.119  16.595  0.3178  0.2309  0.1835
19312W        W62225   7.168  30.928  17.867  0.0831  0.1843  0.0303
19313W        W62226   4.866  25.444  16.825  0.1073 -0.0203  0.1425
19314W        W62227   3.018  27.816  20.938 -0.0660  0.0620 -0.3292
19315W        W62228   6.724  30.683  28.507 -0.0816 -0.4108  0.0439
19316W        W62229   3.976  31.445  26.906  0.0325  0.0196 -0.1578
19317W        W62230  33.523   4.169  21.350  0.0923  0.0790 -0.0721
19318W        W62231  32.179   0.316  17.878 -0.1986 -0.1660  0.0540
19319W        W62232   3.481  29.038  21.002 -0.2118 -0.0564  0.0789
19320W        W62233   2.870  32.665   4.483 -0.3216  0.1280 -0.1719
19321W        W62234   2.418  25.035  19.407 -0.2694  0.1228  0.1290
19322W        W62235   4.558   0.852  22.629  0.0029  0.0856 -0.0736
19323W        W62236   2.212  29.241  23.534  0.2119 -0.3819 -0.3571
19324W        W62237  30.710  32.590  23.265  0.4181  0.1441  0.1697
19325W        W62238  12.117  29.192  29.182 -0.0188 -0.2549  0.0980
19326W        W62239   9.351  34.291  22.365 -0.2565 -0.1437  0.1820
19327W        W62240  12.952  20.965  22.942  0.0927 -0.0447 -0.1566
19328W        W62241  29.884   8.125  28.281 -0.0274  0.0380  0.4210
19329W        W62242   0.957   1.708  28.585  0.0486 -0.1834  0.2478
19330W        W62243  34.341   2.307  17.090 -0.1080  0.0751  0.3151
19331W        W62244  15.260  28.675  21.135  0.1837 -0.1480 -0.1815
19332W        W62245  29.752   0.667  20.227 -0.2088 -0.0098 -0.1707
19333W        W62246  33.771   0.007  27.106 -0.4656  0.3091  0.0935
19334W        W62247   0.465  24.495  28.158 -0.1975 -0.3579 -0.1088
19335W        W62248  20.397   1.183  28.806  0.0738 -0.2714 -0.2863
19336W        W62249   2.315  33.651  21.313 -0.1844  0.4388  0.1209
19337W        W62250  33.145  27.392   1.660  0.1331  0.1994  0.2302
19338W        W62251   8.848  29.231  23.763 -0.0542  0.0399 -0.0591
19339W        W62252   0.212   2.230  20.109  0.0410 -0.0530  0.0577
19340W        W62253   4.148   3.618  26.765 -0.0686  0.0708  0.0469
19341W        W62254  12.997  32.322  19.819  0.2798  0.0412 -0.1475
19342W        W62255   2.557  22.895  28.917 -0.1677  0.3350 -0.0622
19343W        W62256   5.824  27.400   2.679 -0.0441  0.1651 -0.0411
19344W        W62257   0.141  19.896  27.155 -0.4537  0.0473 -0.1158
19345W        W62258   0.719   0.377  20.883  0.0411  0.1370  0.2389
19346W        W62259  33.271  33.766  17.164  0.0483  0.1880  0.1393
19347W        W62260   1.591   5.233  20.495 -0.2502  0.0514 -0.1876
19348W        W62261  25.023  26.090  13.139  0.0331  0.1318 -0.3782
19349W        W62262   4.139  30.434  20.550  0.0587  0.0129 -0.0611
19350W        W62263  31.979  30.730  24.480 -0.1100  0.0884  0.3943
19351W        W62264  32.953  27.834  14.242  0.0603 -0.0947 -0.1380
19352W        W62265   5.323   0.262  22.215  0.4404  0.1664 -0.2657
19353W        W62266  11.190  28.446   2.269 -0.1559  0.0907 -0.2154
19354W        W62267  29.902   6.482  14.661 -0.2314 -0.3185 -0.0079
19355W        W62268  26.109  34.408  17.705 -0.0962 -0.1806  0.0586
19356W        W62269  11.268  25.083  21.766  0.1950  0.0841  0.0497
19357W        W62270  32.133  28.123  29.082  0.1901  0.2300 -0.1082
19358W        W62271   4.597  32.018  23.746  0.3445  0.1877  0.0783
19359W        W62272   3.963  30.881  16.353 -0.0839  0.0346 -0.1497
19360W        W62273  33.377   3.896  19.837  0.1905  0.1454 -0.0328
19361W        W62274   8.638  31.902  16.988  0.1892  0.1080 -0.2264
19362W        W62275   9.864  31.926  23.548  0.0927 -0.0187  0.1497
19363W        W62276  30.981  21.452   1.026  0.0346 -0.1109 -0.2829
19364W        W62277  27.857   8.158  20.611  0.1693  0.2550  0.0347
19365W        W62278   0.820   2.717  16.570  0.1337  0.0818 -0.0652
19366W        W62279   8.283   3.511  21.744 -0.0389  0.1018 -0.0413
19367W        W62280  14.148  31.075  28.690 -0.0750  0.2221  0.2083
19368W        W62281  32.257  33.194  23.422 -0.0723  0.1540 -0.0809
19369W        W62282  24.817  33.511  16.030 -0.0095  0.1400 -0.2203
19370W        W62283  29.420   4.240  21.415  0.2176 -0.0214  0.2980
19371W        W62284   5.860  23.255  23.599  0.1751  0.1512 -0.2836
19372W        W62285  11.362  33.008  18.685  0.3341  0.1803  0.1103
19373W        W62286  29.216  28.610   4.841  0.0064  0.0358 -0.2259
19374W        W62287  32.768  32.716  15.095 -0.1568 -0.2141 -0.0560
19375W        W62288  30.361  30.203  16.834  0.1194 -0.3418  0.2474
19376W        W62289  27.439  34.402  20.178 -0.1787 -0.0571  0.3346
19377W        W62290   5.269  31.416  19.715 -0.1921  0.0193  0.0238
19378W        W62291  33.937   9.572  16.508  0.2833  0.0850  0.4220
19379W        W62292  33.221  28.563  19.895 -0.0390  0.1762  0.0508
19380W        W62293  31.337  22.403  23.464  0.1819 -0.1439 -0.3952
19381W        W62294  14.905  29.130  17.838  0.1517 -0.1131 -0.1277
19382W        W62295  29.941  18.044  21.425  0.3341  0.1346 -0.2012
19383W        W62296  18.390  28.415  15.513 -0.0171  0.2618  0.0312
19384W        W62297  34.253  27.143  17.778  0.0546  0.0129  0.0206
19385W        W62298   4.878  33.447  18.957  0.1663  0.0358 -0.1666
19386W        W62299   2.117  26.061  16.061 -0.0011 -0.2667  0.0368
19387W        W62300  24.393   4.801  18.657 -0.0829  0.3284 -0.2173
19388W        W62301   3.022  17.705  18.645 -0.2463 -0.2132  0.0165
19389W        W62302  13.131  28.686  18.598 -0.2523 -0.0771 -0.2602
19390W        W62303   4.105   7.665  22.856 -0.1235 -0.1157 -0.2246
19391W        W62304   0.573  34.311  20.442 -0.1531 -0.3200  0.0552
19392W        W62305   5.769  30.943  28.063  0.0365  0.3416  0.1803
19393W        W62306  32.601  30.978  16.849  0.0554  0.3654 -0.0747
19394W        W62307  33.182  33.305  17.130  0.0849  0.0939 -0.1195
19395W        W62308   2.642  29.949  18.924 -0.1355 -0.0585 -0.0638
19396W        W62309  33.035   9.923  21.650 -0.0443  0.0967 -0.2219
19397W        W62310   9.483   1.948   0.815 -0.0331  0.0990 -0.1587
19398W        W62311  33.319  26.892  20.156 -0.2646  0.0754  0.0407
19399W        W62312  29.563  31.322  29.206 -0.1225  0.0936  0.2200
19400W        W62313   3.344   0.564  23.155 -0.3708  0.0411  0.0816
19401W        W62314  34.364  17.864  21.308  0.3408  0.0986  0.3078
19402W        W62315   0.204   0.780  27.882  0.4050 -0.2467 -0.0765
19403W        W62316   1.487   0.057  22.583  0.0662 -0.2201  0.0924
19404W        W62317  23.838   5.312  22.657 -0.0821 -0.0385 -0.1900
19405W        W62318   5.876  30.342  21.965 -0.0529 -0.3039 -0.2289
19406W        W62319  33.833  23.313  28.217  0.3121 -0.0890  0.0782
19407W        W62320   2.412  29.363   1.938  0.1305  0.0443  0.1309
19408W        W62321   1.603   3.643   7.871 -0.0719 -0.1812  0.0847
19409W        W62322   6.292  31.151  22.538  0.0456  0.2258 -0.1835
19410W        W62323   0.829  32.861  20.139  0.0839  0.0443 -0.1495
19411W        W62324   5.932   0.097  25.295 -0.0897  0.0726  0.1178
19412W        W62325  26.414  30.002  23.600 -0.0728  0.0500 -0.0891
19413W        W62326  31.499  25.777   2.147  0.3210 -0.0425  0.1219
19414W        W62327  14.160   8.645  20.321  0.1611  0.1859  0.2125
19415W        W62328  34.385   3.442  19.394 -0.1584 -0.0099 -0.0956
19416W        W62329  26.931  30.627  24.657 -0.2319 -0.2173  0.0279
19417W        W62330   3.242  27.305  18.765  0.2337  0.1270  0.2006
19418W        W62331  33.557   0.784  25.977  0.4252  0.1673 -0.2530
19419W        W62332   3.592  21.826  26.172  0.1889  0.0771 -0.3622
19420W        W62333  32.213   4.692  18.438  0.2107  0.3209 -0.2143
19421W        W62334  33.574   4.614  28.443 -0.2592  0.1360 -0.0843
19422W        W62335   0.311   2.220   5.872  0.2821  0.0050 -0.2358
19423W        W62336   1.907   0.320  22.465 -0.1692  0.2012  0.3489
19424W        W62337  28.180  34.492  26.716 -0.0140 -0.0662 -0.1996
19425W        W62338  22.597  33.684   2.495 -0.1057 -0.1837 -0.1011
19426W        W62339   2.359   6.820  24.702 -0.3777  0.1609 -0.0297
19427W        W62340   9.741  32.318   0.807 -0.0780  0.0369 -0.1416
19428W        W62341  10.197   2.329  19.921  0.1283 -0.0199  0.1450
19429W        W62342   3.228   2.907  23.966  0.0297  0.3117 -0.3658
19430W        W62343  12.587  31.764   1.713  0.0492  0.1599  0.1692
19431W        W62344   5.178  32.193  26.943 -0.0829 -0.0778 -0.2455
19432W        W62345  31.332  31.095  25.377  0.1227  0.1122 -0.0356
19433W        W62346   2.204  30.076   2.622 -0.2939 -0.0589  0.1261
19434W        W62347   3.051   5.402   3.013 -0.2491 -0.0240 -0.1015
19435W        W62348   3.277  32.175   1.258  0.0900 -0.2047 -0.0923
19436W        W62349  33.834   7.789  21.913 -0.1904 -0.2287 -0.0017
19437W        W62350   2.942  25.998  22.823  0.0443  0.0466 -0.1276
19438W        W62351  31.863  29.031  26.480  0.0462 -0.1461 -0.2524
19439W        W62352  30.159  31.183   1.098  0.2878 -0.1283  0.0890
19440W        W62353   1.437  25.083  20.396  0.2838 -0.0106  0.1882
19441W        W62354   3.457  31.769  15.127 -0.2334 -0.1535 -0.1764
19442W        W62355   4.229   0.761  19.466 -0.2939 -0.1689  0.1192
19443W        W62356  33.309  28.929  26.374 -0.1096 -0.1012  0.0718
19444W        W62357   1.228  11.286  20.420 -0.1102 -0.0816  0.0807
19445W        W62358   1.133   2.540   2.141 -0.0624 -0.0991  0.0307
19446W        W62359  29.679  31.081   0.862  0.1131 -0.0478  0.1667
19447W        W62360   3.832  23.244   1.093  0.1826  0.0925  0.0906
19448W        W62361  22.420  21.070   0.585  0.2649 -0.2245 -0.0596
19449W        W62362  30.842  30.344  16.589 -0.0001 -0.1980  0.0765
19450W        W62363   6.756  27.209  17.218  0.1821  0.0802 -0.2315
19451W        W62364   4.421  27.809  27.367  0.3682  0.0945 -0.3226
19452W        W62365  13.070  31.672  27.332  0.0740  0.1152 -0.1177
19453W        W62366  26.907  17.074   2.046 -0.0070 -0.0065  0.5041
19454W        W62367  34.427   0.019  23.372 -0.2302  0.1691 -0.0077
19455W        W62368   5.357  32.556  27.547  0.1443  0.2524  0.3402
19456W        W62369   1.651  33.082   4.607  0.1660 -0.1549 -0.2215
19457W        W62370  31.484   4.074  23.391  0.0198 -0.2178  0.2549
19458W        W62371  28.397   3.983  27.702  0.0851 -0.1298  0.0808
19459W        W62372  29.418  25.415  26.143 -0.1318 -0.1911  0.0154
19460W        W62373   3.312  22.316  25.928 -0.0203  0.0118  0.1031
19461W        W62374  18.078  26.164  28.688 -0.1246  0.2520  0.0707
19462W        W62375  32.530  27.676  24.345  0.2156 -0.0244 -0.0280
19463W        W62376   2.404  31.354  17.904 -0.3393  0.2731 -0.0304
19464W        W62377  10.078   6.179  24.123  0.0576  0.0588  0.0221
19465W        W62378  13.451  29.531  17.951  0.2088 -0.0292  0.3149
19466W        W62379  26.389  31.881   9.141  0.2030  0.0260 -0.0869
19467W        W62380   1.178  26.056  17.438  0.1940  0.2746  0.3882
19468W        W62381  33.223  32.219  20.256  0.2441 -0.1918  0.0155
19469W        W62382   5.275  20.247  23.178 -0.0459 -0.1219  0.0232
19470W        W62383  14.140   3.778  29.569  0.1152 -0.1521 -0.0044
19471W        W62384  29.957  33.525  29.408  0.4354 -0.1970 -0.0320
19472W        W62385   9.108  32.566  26.333  0.0025 -0.1251 -0.0873
19473W        W62386   4.035  10.585  28.741  0.0937  0.0959  0.2730
19474W        W62387  11.847  13.389  22.222  0.0615  0.2137  0.3009
19475W        W62388  10.468   3.235  27.863  0.1154  0.0206  0.2133
19476W        W62389  16.367   4.796  17.650 -0.5002 -0.0026 -0.1860
19477W        W62390  30.329   5.371  21.790 -0.2484 -0.1270 -0.2436
19478W        W62391  33.555  25.819  23.529  0.1163  0.1819 -0.0020
19479W        W62392  31.222  26.675  22.857  0.0758 -0.2192 -0.2641
19480W        W62393  31.050  28.652  16.962 -0.0317 -0.3706  0.1398
19481W        W62394  33.745  30.568  25.200  0.0867  0.0621 -0.1870
19482W        W62395  24.095  34.403  29.409 -0.0395  0.2405  0.0555
19483W        W62396  32.227   4.964  15.882 -0.1723 -0.0222 -0.0992
19484W        W62397   5.863   9.903  26.569  0.0874 -0.0222 -0.0976
19485W        W62398   3.046  19.699  22.507 -0.2221  0.1700 -0.1520
19486W        W62399  32.285  16.102  29.422 -0.1869  0.0626  0.0791
19487W        W62400  32.615   2.637  21.849 -0.1657 -0.2329  0.1670
19488W        W62401   6.515  33.228  25.568 -0.0852 -0.2276  0.1200
19489W        W62402  32.535  31.821  17.688  0.1202 -0.1342  0.0311
19490W        W62403  30.369   3.218   3.441  0.0077 -0.1444 -0.1418
19491W        W62404  32.306  23.797   8.594 -0.0093  0.2117 -0.0614
19492W        W62405  26.352  33.518  25.644  0.1094 -0.0548 -0.1641
19493W        W62406   1.042  24.444  25.509  0.3758  0.2622  0.1266
19494W        W62407  26.324   0.715  15.068  0.1039  0.0692 -0.0474
19495W        W62408  12.179   0.407   5.737 -0.4361  0.3931  0.4200
19496W        W62409   8.919  16.834  13.947 -0.1440 -0.1385  0.0019
19497W        W62410  16.738  30.407  20.973 -0.0846 -0.0766 -0.5251
19498W        W62411   2.528   9.507  23.590 -0.0072 -0.3020  0.2225
19499W        W62412  16.487   1.403  25.443 -0.0594 -0.1531 -0.1105
19500W        W62413   4.651  17.399  23.772  0.1729  0.1780  0.1622
19501W        W62414  34.324   4.920  26.792  0.3196 -0.1855  0.4631
19502W        W62415   5.339   2.839  24.258 -0.1721  0.0382  0.4835
19503W        W62416  28.598   0.926  26.531  0.2636  0.0180 -0.1763
19504W        W62417  32.893  18.994  28.085  0.2280  0.1738 -0.2750
19505W        W62418   5.715   8.486  26.357  0.4356  0.0399  0.1537
19506W        W62419  33.801  26.560  29.455  0.0386  0.4091 -0.0598
19507W        W62420  29.605  24.350  21.314  0.2581  0.0289  0.1081
19508W        W62421   9.377   4.449  25.529 -0.1022 -0.0756  0.4658
19509W        W62422   7.878  32.086  26.029  0.2680 -0.2772  0.2295
19510W        W62423   8.710   5.997  24.371  0.1053  0.0382  0.1042
19511W        W62424  30.567   3.773   7.886 -0.0592 -0.0969  0.0655
19512W        W62425   1.748  33.789  21.040  0.0963 -0.1416  0.1524
19513W        W62426   8.737   3.974  18.470 -0.0225  0.2270 -0.3400
19514W        W62427   8.457  33.014  23.601 -0.0497 -0.2702 -0.2188
19515W        W62428  27.264  33.133  25.279  0.1065 -0.0465 -0.0962
19516W        W62429   6.095  28.867   5.659 -0.0768  0.0922  0.1196
19517W        W62430   8.235   2.014  23.610  0.0736  0.0476 -0.1058
19518W        W62431  22.211  25.949  29.308 -0.1148  0.0986 -0.0481
19519W        W62432   8.756   0.633  25.872  0.3791 -0.1565  0.1744
19520W        W62433   3.432  29.717  25.230 -0.0909 -0.0049 -0.0254
19521W        W62434  11.249  24.452  24.348 -0.0123 -0.0749 -0.0891
19522W        W62435   4.705   0.357  18.283  0.2286 -0.0659 -0.0985
19523W        W62436  30.747  31.329  26.044 -0.3018 -0.0438 -0.0449
19524W        W62437  29.203  33.351   4.656 -0.0858  0.0013  0.0635
19525W        W62438  27.739  30.902  18.424  0.0888  0.3181 -0.1662
19526W        W62439   2.384   7.184  23.919 -0.2200 -0.1084  0.0341
19527W        W62440  20.077  25.000  20.411  0.1927 -0.0166  0.2691
19528W        W62441   1.459  31.095   1.392 -0.0148  0.0905 -0.2144
19529W        W62442  13.010  22.310  24.815  0.0648  0.0931  0.2291
19530W        W62443   0.614  26.746  21.732 -0.1903 -0.0283  0.0905
19531W        W62444   7.319  30.456  26.776  0.2173 -0.0175 -0.2723
19532W        W62445   8.524  33.257   1.754 -0.0092 -0.0036  0.2598
19533W        W62446  24.134   1.834  27.427 -0.0073  0.0359 -0.0018
19534W        W62447  33.879  27.728  23.625  0.1369  0.2118 -0.2185
19535W        W62448   4.815   4.891  20.525  0.1385  0.0389  0.0663
19536W        W62449  32.915  34.166   5.389  0.2405  0.0218 -0.0471
19537W        W62450   3.744  33.413   1.011  0.2560  0.0955  0.0251
19538W        W62451   7.661   1.823  21.662 -0.1453 -0.0014 -0.0032
19539W        W62452  10.210  31.286  21.779  0.1527  0.0748  0.2914
19540W        W62453   8.225  24.722  19.671 -0.0417  0.1649 -0.0332
19541W        W62454   6.827  21.724   2.526 -0.4191 -0.3406 -0.0545
19542W        W62455   5.558  19.626  16.712  0.3088  0.3511  0.0268
19543W        W62456   7.005  29.976  25.928 -0.0243 -0.2499  0.1737
19544W        W62457  16.275  31.257   3.061 -0.2189 -0.0969  0.0307
19545W        W62458  32.082   3.128  11.886 -0.0653 -0.0054  0.0933
19546W        W62459  27.309  30.099  28.760  0.0304 -0.0794  0.2223
19547W        W62460  33.293   6.126  21.280  0.1164 -0.0815 -0.0188
19548W        W62461   2.176  25.210  24.893 -0.0054  0.0499  0.1615
19549W        W62462   7.668   7.668  18.528  0.2004  0.0605  0.1601
19550W        W62463  27.650  33.623  25.212  0.2067  0.0659 -0.2921
19551W        W62464   1.670   3.214  23.784  0.0721  0.3565  0.3895
19552W        W62465   8.393  26.462  27.569  0.2377  0.1969 -0.2133
19553W        W62466  27.371  29.582  18.153  0.1221  0.4811 -0.0449
19554W        W62467   2.113  25.597  26.388 -0.1825 -0.0009 -0.0296
19555W        W62468  11.866   0.769  19.480 -0.1236  0.3701  0.1622
19556W        W62469   4.337   5.443  18.487  0.2155  0.1354 -0.0038
19557W        W62470   8.663  18.957  27.623 -0.1159  0.1242  0.2228
19558W        W62471   0.702  31.350   6.155 -0.3060  0.0884 -0.0502
19559W        W62472   4.324   5.037   0.038  0.4140 -0.1412  0.1531
19560W        W62473  28.530   6.998  17.380 -0.1585 -0.0660 -0.4261
19561W        W62474  16.368  31.613  28.755 -0.0179  0.4090  0.0990
19562W        W62475  32.495  33.752  29.680  0.0773 -0.1016  0.0408
19563W        W62476  30.404   3.896  29.662 -0.1937  0.2489  0.0359
19564W        W62477  30.538  34.331  19.063  0.0779 -0.0610  0.4290
19565W        W62478   0.589  31.677  24.643  0.1816  0.2180 -0.4071
19566W        W62479  32.752   1.735   6.782 -0.0585 -0.1574 -0.1807
19567W        W62480  28.356   8.802  20.394 -0.0875 -0.0436  0.0024
19568W        W62481   3.031   4.320  21.118 -0.0397 -0.1233  0.1329
19569W        W62482  30.072  29.109  24.362 -0.0008  0.1637 -0.2717
19570W        W62483  21.252  33.822   8.236 -0.1770 -0.2641 -0.3310
19571W        W62484  30.011   0.652  22.599  0.0175 -0.0137 -0.1344
19572W        W62485  32.856  33.629  16.868  0.1106 -0.3381 -0.1065
19573W        W62486   0.747  28.053   0.348  0.0955  0.1340 -0.2294
19574W        W62487   0.569  26.299   3.017 -0.1085  0.2044 -0.1152
19575W        W62488  34.407  24.290  25.631 -0.1343  0.1786  0.1824
19576W        W62489   3.131   4.912   5.618  0.0153  0.0368 -0.2928
19577W        W62490   9.506   0.501   2.398  0.0064 -0.0345  0.1156
19578W        W62491   8.794  26.592  28.941 -0.0015  0.2111  0.2067
19579W        W62492  26.737  29.033  23.667 -0.2534  0.0060 -0.0478
19580W        W62493  32.312  11.907   0.535  0.0333  0.2524  0.1816
19581W        W62494  14.111   1.809   3.249  0.3052 -0.0376  0.0250
19582W        W62495  30.924   3.473   0.265  0.4013  0.1318 -0.0985
19583W        W62496  26.616  29.805   1.093  0.0160  0.1707  0.0599
19584W        W62497  25.908  25.001  18.227  0.2996 -0.0483 -0.2564
19585W        W62498  29.746  34.310  28.304 -0.2496  0.0437 -0.1449
19586W        W62499   3.956  33.758   2.069 -0.0618  0.0299 -0.1726
19587W        W62500   7.174  30.849  18.887  0.0941  0.0351  0.2053
19588W        W62501  10.885  22.087  18.903  0.0534  0.0615 -0.2219
19589W        W62502  30.435  25.260   2.161 -0.0766 -0.3237 -0.2046
19590W        W62503  33.029  30.777  29.095 -0.1641 -0.0425 -0.1293
19591W        W62504  30.787  30.785  23.529  0.0447  0.1381  0.2941
19592W        W62505  18.253   0.673   2.442  0.1742  0.1780 -0.1710
19593W        W62506  23.538   2.031  28.415 -0.1533 -0.0353 -0.0349
19594W        W62507  33.468   4.596  25.824  0.0241  0.2857 -0.2661
19595W        W62508   0.984  21.954  26.592  0.1162 -0.1224  0.2715
19596W        W62509  14.238   2.037  19.544  0.1180  0.0361 -0.0287
19597W        W62510   5.784  28.984  22.749  0.2253  0.0920 -0.1260
19598W        W62511   5.896  30.396  25.989 -0.1241  0.2519  0.0818
19599W        W62512  10.469   1.658  26.417 -0.3074  0.1838  0.0620
19600W        W62513  33.151  32.754  19.505  0.3061  0.0994 -0.3599
19601W        W62514   1.094  17.486  24.648 -0.0759 -0.1530  0.1981
19602W        W62515  31.084   1.824   1.346 -0.1570 -0.1475  0.1473
19603W        W62516   6.495   0.465   2.233  0.0497  0.1334 -0.0335
19604W        W62517   9.583  33.224  20.775  0.0399  0.1863 -0.1470
19605W        W62518  31.372   9.360  25.966 -0.0320 -0.0809  0.0644
19606W        W62519   0.402   2.181   4.291 -0.0004 -0.0524 -0.3178
19607W        W62520  12.337  29.084  26.570  0.1545  0.1047 -0.0984
19608W        W62521  33.077  29.756  24.960  0.0406 -0.1740  0.2314
19609W        W62522  12.334   8.036   1.145 -0.0654 -0.0930  0.0954
19610W        W62523   6.207  34.382   2.351 -0.0210 -0.1255  0.1435
19611W        W62524  34.319  17.863  28.082 -0.0076  0.0558 -0.1747
19612W        W62525  23.694  26.357  23.287  0.0946 -0.0153 -0.2069
19613W        W62526   0.451   2.255  22.911  0.5814 -0.0145 -0.1541
19614W        W62527  34.285  30.764   0.816 -0.1541 -0.3221 -0.1071
19615W        W62528  32.524  25.044  24.368  0.0708 -0.2468  0.0299
19616W        W62529  33.577   4.697  29.730 -0.0431  0.1244 -0.3651
19617W        W62530   3.215  31.031   4.217 -0.1369 -0.0783  0.3342
19618W        W62531  28.932  31.398  27.386  0.1096 -0.3163 -0.1840
19619W        W62532  14.358  22.972  20.882  0.1282 -0.0843  0.1601
19620W        W62533  32.427  27.029  23.126 -0.0409  0.0625 -0.1325
19621W        W62534   0.926   2.372  25.773 -0.0667  0.1546 -0.1499
19622W        W62535   4.758   0.314   0.076 -0.1080  0.0994 -0.2205
19623W        W62536   1.115   5.888  22.541  0.0454 -0.0555  0.1308
19624W        W62537   3.804  29.315   3.292  0.1043 -0.3051 -0.1122
19625W        W62538  23.669  34.246  26.128 -0.0251  0.1749  0.0701
19626W        W62539  10.111  25.692   1.065 -0.0573  0.2650  0.0039
19627W        W62540  30.526  21.455  18.032 -0.2969 -0.0507  0.4415
19628W        W62541   5.095  10.025   1.568 -0.0428  0.0749 -0.3910
19629W        W62542   2.197   1.686  27.710  0.0083 -0.2224  0.0414
19630W        W62543   4.280  30.684   4.398  0.0801  0.0474  0.1905
19631W        W62544  32.869  32.254   5.960 -0.3373  0.0493  0.1497
19632W        W62545   5.147   5.034   2.447 -0.4774 -0.2407 -0.1796
19633W        W62546  12.693   4.463   4.975 -0.0118 -0.1861 -0.0464
19634W        W62547   3.716  23.228  23.183  0.1150 -0.1426 -0.0665
19635W        W62548   3.091   6.863   0.396 -0.1095  0.0329  0.1712
19636W        W62549   8.727   0.282  11.834  0.0869 -0.1682 -0.0721
19637W        W62550   4.456   0.738   3.401 -0.0853 -0.2205  0.2511
19638W        W62551  14.082   1.824   9.297 -0.0743 -0.1506  0.0371
19639W        W62552  21.905  32.723  24.327  0.1723 -0.0922  0.1528
19640W        W62553   3.009   0.994   8.797  0.3886 -0.1898  0.1255
19641W        W62554  31.332  33.957   1.292 -0.0113  0.1333  0.0111
19642W        W62555   4.866   3.131   1.472 -0.0945  0.1168  0.2284
19643W        W62556   9.863  23.458  23.184 -0.1890 -0.3750  0.2335
19644W        W62557  27.997  34.417   2.510  0.0078 -0.0194 -0.1136
19645W        W62558  32.447  33.815  21.349 -0.3562 -0.0352 -0.2000
19646W        W62559   3.367  26.860  27.661  0.0812  0.1009  0.0269
19647W        W62560   0.547  30.737  22.983 -0.1870  0.2369  0.2169
19648W        W62561  32.922  30.024  29.669  0.2373  0.1660 -0.0463
19649W        W62562   6.679  28.991  24.521  0.1257 -0.2521  0.0078
19650W        W62563  30.417  30.736   5.164 -0.0022 -0.0650 -0.1602
19651W        W62564  27.159   1.281   5.351 -0.0231  0.0773  0.3350
19652W        W62565   5.639  30.132  26.400  0.0264 -0.2048 -0.1248
19653W        W62566   6.820  20.737   4.435  0.2258  0.0687  0.0748
19654W        W62567  26.560  30.319   2.361  0.1473 -0.1520 -0.1818
19655W        W62568  32.163  22.764  21.631 -0.1564  0.0118  0.2056
19656W        W62569   9.945   9.810  25.775 -0.1013  0.0998  0.1695
19657W        W62570   2.088  29.033   4.965  0.3279  0.0262 -0.0392
19658W        W62571  29.243  33.092  28.874  0.1352  0.1598 -0.0959
19659W        W62572  25.755  24.313  25.641  0.0756 -0.2229 -0.0932
19660W        W62573  33.801   7.306  19.085  0.2772  0.0187 -0.3661
19661W        W62574  26.693  33.672   1.745  0.3148 -0.0135 -0.3335
19662W        W62575  21.705  33.165  26.695  0.0752 -0.0147 -0.3105
19663W        W62576  33.620   7.396  25.488  0.1254  0.0454  0.2981
19664W        W62577   3.754   4.967  17.603  0.3807  0.1132 -0.2763
19665W        W62578  28.768  31.222   2.360 -0.5476  0.0652  0.0499
19666W        W62579  29.356  33.322  20.388  0.1006 -0.2036  0.2831
19667W        W62580  31.567   0.285  26.031  0.1842 -0.2761  0.1546
19668W        W62581   0.584   3.584   0.523 -0.2689  0.0987 -0.0082
19669W        W62582   4.820   9.935   4.897  0.0206 -0.0549  0.0366
19670W        W62583  15.636  10.870  24.061 -0.0846  0.1453 -0.0218
19671W        W62584  28.482  32.456   3.701 -0.2633  0.0074 -0.1062
19672W        W62585  33.945   5.961  22.313  0.1898  0.1765 -0.1827
19673W        W62586  33.503  11.169  26.322  0.1608 -0.0496 -0.1077
19674W        W62587   2.305   5.051  26.765 -0.1119  0.0001  0.1660
19675W        W62588  29.765   2.725  28.562  0.1265 -0.0046  0.0132
19676W        W62589   4.197  23.060  16.140  0.0574 -0.0815  0.0198
19677W        W62590  30.968   1.840   5.224  0.1080  0.2609 -0.0196
19678W        W62591  15.838  22.704  24.229 -0.2606 -0.0595  0.2907
19679W        W62592   2.948  34.241  26.485 -0.3207 -0.1099  0.0420
19680W        W62593   9.847  15.251   7.038 -0.0481 -0.3783  0.1646
19681W        W62594  10.108  24.838  23.723 -0.2314 -0.0347  0.0407
19682W        W62595  32.380  17.689  25.221 -0.0022 -0.1677 -0.0219
19683W        W62596   3.816  21.558   0.276 -0.4210 -0.1055  0.0818
19684W        W62597  21.839   9.795  20.955  0.1157 -0.0177  0.0550
19685W        W62598  27.163   0.223  27.609  0.0848  0.0896  0.1717
19686W        W62599  30.669  28.868   2.572 -0.0824  0.3023  0.0647
19687W        W62600   1.354  30.978  21.338  0.2135  0.0587 -0.0420
19688W        W62601  12.357  30.915   2.949 -0.1274 -0.0865 -0.3914
19689W        W62602  15.404  27.834  25.002 -0.0411  0.0081  0.2293
19690W        W62603   3.030   4.617   0.684 -0.1474  0.1709  0.0501
19691W        W62604   5.470  26.078   0.456  0.0610 -0.1712  0.2108
19692W        W62605   2.583  34.135  27.176 -0.1594 -0.1408  0.4033
19693W        W62606   6.945   2.270   0.883 -0.2778 -0.3185  0.0187
19694W        W62607  27.614  10.708  23.620  0.0039  0.1650 -0.0769
19695W        W62608  13.531   0.577  16.671  0.1038  0.1972 -0.0540
19696W        W62609   2.664   8.876  22.256  0.1723  0.0388  0.0878
19697W        W62610  23.644  31.873  29.686 -0.0765  0.1387  0.2307
19698W        W62611   6.044  24.959   5.790  0.0174  0.3255 -0.0212
19699W        W62612   6.650  31.744  17.425  0.1429  0.5823  0.1492
19700W        W62613  33.126  32.291   1.937 -0.2603 -0.0786 -0.2497
19701W        W62614  33.144  28.202   0.238 -0.0967 -0.0002 -0.4134
19702W        W62615  29.467   7.315   1.990  0.1389  0.1679 -0.1166
19703W        W62616  25.825  30.633  26.211  0.0234 -0.0207  0.1687
19704W        W62617   2.417  30.191  18.585 -0.0353 -0.0020  0.1818
19705W        W62618   4.633  33.834  18.605  0.0743  0.1918 -0.0779
19706W        W62619  31.150  28.429  24.118  0.0711 -0.0538 -0.0494
19707W        W62620  28.398   2.830   4.616 -0.1975  0.0519 -0.2167
19708W        W62621  24.474   5.528  27.826 -0.4574  0.0354  0.0121
19709W        W62622   0.313  30.425  19.640  0.2930 -0.2464 -0.2815
19710W        W62623   8.003  32.102  20.049 -0.2149  0.0289 -0.2115
19711W        W62624  24.392   1.508   0.253 -0.1803  0.2496  0.2175
19712W        W62625  13.014   7.400   4.636  0.0326  0.0065  0.3117
19713W        W62626  31.156  30.406  24.639 -0.1802  0.5662 -0.0708
19714W        W62627   7.283   8.882   2.480 -0.2336 -0.1978  0.0436
19715W        W62628   2.468  17.038  28.488  0.1280 -0.2321 -0.0572
19716W        W62629  33.366  32.988  26.389  0.0440 -0.0046 -0.2742
19717W        W62630   7.433  32.230  26.376 -0.0922  0.2710 -0.0939
19718W        W62631   1.925  31.459  24.410  0.2725  0.3042 -0.4189
19719W        W62632   8.037  22.562  26.967 -0.2440 -0.0165  0.1289
19720W        W62633   4.371  31.539  21.777  0.0989  0.2059 -0.1791
19721W        W62634  29.949  32.835  27.733  0.0678  0.4783  0.1418
19722W        W62635   0.628  27.438  25.104  0.1128  0.2826 -0.1109
19723W        W62636  32.477   4.944  28.796 -0.1311  0.1507  0.3076
19724W        W62637  25.470   0.393   5.569  0.0616 -0.2521  0.0796
19725W        W62638   7.306  27.163  19.273 -0.2943  0.0905  0.1452
19726W        W62639  30.304  27.709   0.202  0.2304 -0.1367 -0.1284
19727W        W62640  31.557  32.945  26.347 -0.0132  0.1389 -0.1046
19728W        W62641  13.134  33.179  24.707 -0.0117  0.0551  0.1675
19729W        W62642   0.406  16.624  24.888 -0.0868 -0.2991  0.1489
19730W        W62643   1.284  34.123  24.283  0.2020  0.1423  0.2042
19731W        W62644   5.462  29.668  17.189  0.0359  0.0977 -0.0890
19732W        W62645   4.344  27.219  17.450  0.0390 -0.0350 -0.2587
19733W        W62646  15.112   4.528  26.863 -0.0012  0.2634  0.1494
19734W        W62647   4.461   4.030   6.265 -0.2256  0.1966  0.0504
19735W        W62648   7.991   4.531   0.137  0.1666  0.0317 -0.1406
19736W        W62649  11.506  20.872  20.215  0.1112  0.1008 -0.0616
19737W        W62650  34.332   6.696  21.793  0.3883 -0.0331 -0.0920
19738W        W62651   9.031  30.129   5.487  0.0050 -0.0651  0.1033
19739W        W62652   3.837  11.226  18.462 -0.1241 -0.0504  0.3097
19740W        W62653  16.730   0.227  25.297  0.1613 -0.1733  0.1419
19741W        W62654  27.472   7.178  28.654  0.2949 -0.1007  0.0131
19742W        W62655   2.900   3.658  21.418 -0.0440 -0.1093  0.0166
19743W        W62656   4.325  29.746   2.593  0.0054  0.0171 -0.0404
19744W        W62657   8.755  32.044  25.988  0.1691 -0.0231  0.1993
19745W        W62658  33.134  33.220  19.829  0.1041  0.0510 -0.3082
19746W        W62659   2.592   4.904  21.756 -0.0228  0.2272 -0.2469
19747W        W62660  22.638  33.617  26.737  0.1732  0.0857  0.2792
19748W        W62661   6.353   8.494   1.961  0.1632 -0.2943  0.0782
19749W        W62662  33.311  28.837  18.422 -0.3866 -0.0344 -0.0171
19750W        W62663  33.306   3.078  28.664 -0.1507  0.1513  0.2621
19751W        W62664   2.383  28.622  28.950  0.1869 -0.1549 -0.0196
19752W        W62665   2.139  29.333  27.893  0.0570  0.1345 -0.2553
19753W        W62666   5.403  27.676  21.596  0.0076  0.0533 -0.0510
19754W        W62667   9.421   1.230   4.087 -0.2495 -0.1800  0.1214
19755W        W62668   0.679   7.405   6.261  0.1070 -0.2520  0.4111
19756W        W62669   1.659  32.914  29.332 -0.1075  0.0715 -0.0418
19757W        W62670   0.730  17.633   4.271  0.0018  0.1766  0.0252
19758W        W62671  13.190  30.650  22.203 -0.0473 -0.0458 -0.0532
19759W        W62672  28.297   1.368  29.383  0.1877  0.0731 -0.0296
19760W        W62673  24.549  32.805   1.255 -0.0499 -0.3257 -0.2279
19761W        W62674   1.359  11.256  29.176  0.1084  0.0945 -0.1012
19762W        W62675  16.362   4.514   2.948 -0.2039  0.1480 -0.7749
19763W        W62676   9.914   1.256   0.228  0.1122  0.1213 -0.2588
19764W        W62677   7.605  34.287  23.905 -0.1154 -0.0149 -0.1063
19765W        W62678  16.968   1.887   2.578 -0.0913  0.1523  0.1306
19766W        W62679  20.666   5.618   0.162 -0.0951 -0.1234 -0.2089
19767W        W62680   0.513  32.787  20.771  0.3639  0.0760 -0.0583
19768W        W62681  30.663  29.763  21.852 -0.3147  0.1628 -0.1875
19769W        W62682  33.231  25.841  25.340 -0.0651 -0.2353  0.2361
19770W        W62683  32.319  29.591  26.485  0.1780  0.0456 -0.2426
19771W        W62684  33.580   1.310  26.558 -0.1993 -0.1474  0.4749
19772W        W62685  29.372   3.495   4.097  0.4186 -0.3366 -0.0282
19773W        W62686   3.485  31.148  28.653 -0.3121  0.1608 -0.2968
19774W        W62687  34.081  29.102  13.953  0.0343 -0.2896 -0.3647
19775W        W62688   0.362  22.998   5.155 -0.1720 -0.0458  0.2389
19776W        W62689   1.489  28.784   5.687 -0.1181 -0.0141  0.3481
19777W        W62690  31.549  32.270  26.889  0.1369 -0.0345 -0.0082
19778W        W62691   8.596  33.997   8.173 -0.2825 -0.1293  0.0591
19779W        W62692   7.921   4.632  21.066 -0.1841 -0.3472 -0.1310
19780W        W62693   5.215   4.800  27.847 -0.0054 -0.3696  0.2653
19781W        W62694  33.572  34.149  22.034 -0.3429  0.4019  0.1184
19782W        W62695  34.173  29.168  23.464 -0.0272  0.1042  0.0680
19783W        W62696   7.064   1.314  24.413 -0.0499 -0.3442 -0.0840
19784W        W62697  26.662   4.983   1.602 -0.2830  0.0906 -0.1925
19785W        W62698   7.891  31.668   4.872  0.3433  0.2276 -0.1040
19786W        W62699   1.842   8.083  23.026  0.2378  0.1588 -0.0708
19787W        W62700   2.404  34.445   0.640  0.1733  0.1282 -0.1115
19788W        W62701   3.754  28.756  23.617  0.0128  0.0377 -0.1397
19789W        W62702  27.269  32.872  28.705 -0.2343 -0.2059  0.2328
19790W        W62703  11.266   2.707  24.761 -0.0826  0.1398  0.1536
19791W        W62704   1.260   6.534   3.552 -0.2194 -0.1266 -0.0474
19792W        W62705   8.394   4.290  27.753 -0.1817 -0.1182  0.0956
19793W        W62706   8.221  28.738  25.227  0.1900 -0.0382  0.0654
19794W        W62707   0.331   0.526  24.948 -0.4413  0.0896  0.0114
19795W        W62708   8.250   5.823   1.779 -0.1346 -0.1201 -0.0338
19796W        W62709  34.164  29.086  22.891  0.2716 -0.2225  0.0944
19797W        W62710  14.595  24.287  29.725 -0.1555  0.1366 -0.0309
19798W        W62711   7.932   0.870  23.061 -0.3183  0.1650  0.0328
19799W        W62712   7.749  31.052  10.081  0.1493  0.1391 -0.1542
19800W        W62713  28.035  31.714  25.968  0.1465 -0.2308  0.0276
19801W        W62714   9.430   2.826  23.423 -0.1555  0.0283 -0.0604
19802W        W62715   3.093   1.254   0.257 -0.2337  0.1273  0.0303
19803W        W62716  34.044   3.276  15.793  0.1080 -0.0592 -0.2332
19804W        W62717  10.993   6.634   4.768  0.1572 -0.1076 -0.1498
19805W        W62718  28.901   0.304  18.226  0.0927 -0.3270 -0.0970
19806W        W62719  27.945   7.503   5.289  0.0868  0.0361  0.0500
19807W        W62720  31.509   7.880  29.364 -0.0408 -0.2632  0.1050
19808W        W62721  28.184  33.963  24.674  0.0519  0.0081  0.0636
19809W        W62722  32.595   0.700   2.049 -0.1428 -0.1701 -0.1964
19810W        W62723   5.738   1.161  24.398  0.1048  0.4639  0.2737
19811W        W62724  13.962   8.788  28.564  0.0103 -0.3820 -0.2035
19812W        W62725  24.015  31.607  15.437  0.2857  0.0168  0.0051
19813W        W62726  34.210   1.695   7.198 -0.2344  0.1635 -0.2000
19814W        W62727   2.293  26.196   8.280  0.3731  0.1185 -0.2318
19815W        W62728   3.247  29.090  28.821 -0.0611 -0.0488 -0.3677
19816W        W62729   2.457  24.350   9.409 -0.1763 -0.0736  0.1759
19817W        W62730  32.019  28.030   4.832 -0.2410  0.4175 -0.2515
19818W        W62731  25.582  29.625  23.983  0.0419  0.1605 -0.0928
19819W        W62732   0.054   8.393  21.169 -0.0441  0.2999 -0.0287
19820W        W62733   4.360  26.568  22.206 -0.0646  0.0414 -0.1468
19821W        W62734  10.002  28.683  20.484  0.0397 -0.1354 -0.0833
19822W        W62735  31.386   1.655  29.130 -0.2993 -0.2056 -0.1298
19823W        W62736  33.575  27.209   2.342  0.2333  0.1716  0.0674
19824W        W62737   8.505   1.198  27.556 -0.1173  0.1316  0.1743
19825W        W62738   6.755  32.203  16.610 -0.1157 -0.2197  0.0271
19826W        W62739  25.670  30.492  28.796  0.1493 -0.0518  0.1147
19827W        W62740  32.935   9.116   8.396 -0.0048  0.1760  0.2702
19828W        W62741  31.388   0.526  28.315 -0.1907  0.0487 -0.1725
19829W        W62742   6.863   1.377   9.708  0.1391 -0.0701  0.0636
19830W        W62743  26.626  28.358  29.276 -0.4316 -0.0165 -0.0461
19831W        W62744  28.880   0.088  15.462 -0.1623 -0.1127 -0.1450
19832W        W62745  22.670   3.290   2.362  0.1882 -0.1495  0.2495
19833W        W62746   2.331  30.600   9.717  0.0588 -0.2185 -0.1077
19834W        W62747  11.941   8.754   7.033  0.1055  0.1607  0.0645
19835W        W62748  28.694  28.945   0.548 -0.3531 -0.0045  0.0911
19836W        W62749   1.134   2.073  29.729  0.1845  0.0850 -0.0737
19837W        W62750   4.654  32.599  25.453 -0.4376  0.1493  0.0233
19838W        W62751   1.794   2.398  26.585  0.2203  0.2071  0.2313
19839W        W62752  27.792  22.914   4.699 -0.0108  0.0448 -0.5369
19840W        W62753   6.998  31.693  24.616 -0.1220 -0.2572  0.1347
19841W        W62754   1.805   1.365  21.266 -0.2323  0.2190  0.2210
19842W        W62755   2.648   8.729   1.749 -0.1085  0.1924  0.0945
19843W        W62756   5.364  13.112  21.378 -0.0137  0.0153 -0.2766
19844W        W62757   9.406   0.219   1.976 -0.1743 -0.1264  0.1539
19845W        W62758   1.694   3.744  10.710 -0.1082 -0.0127  0.1380
19846W        W62759  27.495  30.835  20.962  0.0668  0.0717  0.1714
19847W        W62760   8.164   7.492  29.382 -0.0866  0.0968  0.3661
19848W        W62761   0.325  22.509   1.540 -0.0938 -0.1642 -0.1172
19849W        W62762   5.823   6.415  27.419 -0.0932  0.0788 -0.2947
19850W        W62763   2.200  25.830   9.953 -0.0792  0.1690 -0.3013
19851W        W62764  31.710  31.771   5.428 -0.0977  0.3697  0.0436
19852W        W62765  32.832   9.263   0.309  0.0325  0.1527 -0.2353
19853W        W62766  29.315   1.228  19.330  0.3309  0.0191  0.0817
19854W        W62767   1.674  31.463  26.522  0.0411 -0.2414  0.0146
19855W        W62768   3.974  28.992  28.747  0.0349  0.0643  0.2144
19856W        W62769  33.646   5.138   0.678 -0.0410 -0.2078  0.3531
19857W        W62770   4.114  28.472   9.053  0.0802  0.0179 -0.2067
19858W        W62771   1.899   0.490   4.707  0.1948 -0.3367 -0.2424
19859W        W62772   2.530  18.936   4.381  0.1320 -0.1128  0.2331
19860W        W62773  34.466  33.396  21.908  0.1723 -0.1170 -0.0371
19861W        W62774   3.039   4.958   2.718  0.0528  0.1557  0.3301
19862W        W62775  32.251  30.295  19.162 -0.0380  0.0675 -0.3831
19863W        W62776   7.837   3.490  20.405  0.1230  0.0288 -0.1409
19864W        W62777   7.175  25.556  25.305 -0.2758 -0.1984  0.1914
19865W        W62778   2.322  31.631   7.461 -0.0629  0.1033 -0.1695
19866W        W62779   0.364  27.743  22.894  0.0648  0.1942 -0.1817
19867W        W62780   0.483  34.223  16.154  0.0676 -0.2042  0.2990
19868W        W62781   2.621  32.412  25.179  0.1619 -0.2413 -0.0385
19869W        W62782  27.365  29.919  24.122 -0.1892  0.1782 -0.1840
19870W        W62783  31.570  33.162  28.934 -0.0213  0.3052 -0.2711
19871W        W62784  19.378   4.933  16.365 -0.4502  0.0831  0.2311
19872W        W62785   1.821  29.972  20.155 -0.1276  0.0280  0.0362
19873W        W62786   0.132   8.198  16.595  0.2474  0.1395 -0.0110
19874W        W62787  30.258  32.768  26.072 -0.3878 -0.3289 -0.1922
19875W        W62788   2.893   3.023  17.584 -0.2935  0.0565 -0.1555
19876W        W62789  12.529  30.701  15.996 -0.0773 -0.3053 -0.2605
19877W        W62790   9.791   1.848  24.545 -0.2463 -0.0936 -0.2392
19878W        W62791   2.553  31.745  22.773  0.0419 -0.0712  0.1821
19879W        W62792  27.966   0.079  19.235  0.1060  0.2335 -0.2825
19880W        W62793  22.622  29.919  26.878 -0.1097  0.0372 -0.1606
19881W        W62794  28.467   0.092  21.844  0.1481  0.1335  0.2730
19882W        W62795  11.541  31.479  20.754 -0.0067  0.0447  0.2261
19883W        W62796   8.781  33.319  18.573 -0.0729 -0.1960  0.2800
19884W        W62797  31.969   2.862   9.090  0.1074  0.2293 -0.0358
19885W        W62798  19.232  28.815  17.850  0.3129 -0.0153 -0.0012
19886W        W62799   2.742  34.237  21.227 -0.3323  0.0387  0.2324
19887W        W62800   5.918   5.697  22.534 -0.0399 -0.2320 -0.1771
19888W        W62801   8.952   4.261  19.842 -0.0840 -0.1681 -0.2875
19889W        W62802  29.588   1.570  17.741  0.0434 -0.2386 -0.0148
19890W        W62803   1.486   1.219  15.904  0.0153  0.2040  0.0895
19891W        W62804  15.533   4.208  17.206  0.0218 -0.1817 -0.1646
19892W        W62805   3.381   4.324  23.512 -0.0139 -0.1137 -0.2357
19893W        W62806   4.265   2.840  19.098  0.1635 -0.3121 -0.3014
19894W        W62807  16.230   0.056  18.948  0.0892 -0.1239 -0.0972
19895W        W62808  15.505  32.056  14.919 -0.4360  0.2547  0.1275
19896W        W62809  24.075  33.113  22.180  0.1575  0.0162  0.2095
19897W        W62810   4.912  10.791  19.869  0.0059 -0.0877 -0.0666
19898W        W62811  21.268  32.141  24.849  0.2094 -0.2866  0.1078
19899W        W62812   3.186   1.212   2.118 -0.1263 -0.0369 -0.0367
19900W        W62813  33.897  32.660   2.894  0.2899  0.0210 -0.0477
19901W        W62814   0.799  32.196  19.425  0.1461  0.0334 -0.0275
19902W        W62815   0.562  24.279  22.457 -0.0035 -0.2595 -0.4503
19903W        W62816   3.890   0.263  21.352 -0.0785  0.2565  0.0897
19904W        W62817   5.768   0.534  20.076  0.0376  0.1089  0.0264
19905W        W62818  33.944  33.957   1.238  0.0407  0.0946 -0.1301
19906W        W62819  11.272  28.973  22.451  0.0187  0.0545 -0.3676
19907W        W62820   8.294   9.077  16.818 -0.2034  0.0520 -0.1145
19908W        W62821  11.306  29.087   1.110  0.0449 -0.1353  0.0008
19909W        W62822   5.449   4.350  29.610  0.0275 -0.2356  0.0817
19910W        W62823  33.657  28.286  21.604 -0.0583 -0.0195  0.3213
19911W        W62824   9.633  28.714  18.342 -0.3189 -0.0633  0.1902
19912W        W62825  33.469  34.342  27.927  0.2098 -0.1976  0.0289
19913W        W62826  34.469   4.841  20.866  0.0829  0.1285 -0.1252
19914W        W62827   2.792  24.240  23.536 -0.2009  0.0013 -0.2483
19915W        W62828  14.223  29.718  18.134 -0.3485  0.0097 -0.1104
19916W        W62829  33.843  32.624  25.794 -0.1720 -0.0904 -0.3076
19917W        W62830   3.534  24.765  27.178  0.1221  0.2035 -0.2619
19918W        W62831   1.153  24.568  25.974 -0.2396 -0.1192  0.0661
19919W        W62832  30.204   3.525  28.442 -0.2884  0.2139  0.0752
19920W        W62833  16.600  30.079  20.091  0.3406  0.1477 -0.0348
19921W        W62834  13.424   1.257  22.558  0.1824 -0.1407 -0.0170
19922W        W62835   6.804  29.016  22.961 -0.0648  0.1805  0.1314
19923W        W62836  24.777   5.833  14.602  0.1475 -0.0948  0.0036
19924W        W62837   2.505   7.608  24.659  0.0576 -0.0051 -0.0193
19925W        W62838   9.541   9.348  22.560  0.0709  0.0590  0.2952
19926W        W62839   5.595  24.959  25.200 -0.1744 -0.0353  0.1156
19927W        W62840   4.562  11.837  22.918  0.2953 -0.0802  0.0919
19928W        W62841   4.416  30.281  20.110 -0.1039 -0.0361  0.2097
19929W        W62842   1.561  26.251  22.944  0.0775  0.1369  0.0595
19930W        W62843  30.722  29.350  19.433  0.1020 -0.1883  0.0382
19931W        W62844  11.688  28.564  20.122  0.2416  0.3131 -0.1855
19932W        W62845   5.875  23.417  18.344  0.1542  0.0250 -0.2425
19933W        W62846  29.146   2.041  24.399 -0.1525 -0.1308 -0.0081
19934W        W62847   8.372  30.914  21.675  0.0718  0.2359 -0.1536
19935W        W62848  34.452   1.085   2.257 -0.1028 -0.0575  0.2153
19936W        W62849  17.827   1.301  19.768  0.3806  0.0641 -0.4538
19937W        W62850   5.525  30.949  19.788  0.1442 -0.1195 -0.0223
19938W        W62851  25.334  10.583  24.414 -0.1325  0.0390  0.2123
19939W        W62852  34.322   9.399  16.239 -0.0479  0.2574  0.0699
19940W        W62853   8.023   0.401  18.155  0.0776 -0.1809 -0.0114
19941W        W62854  31.633  24.677  14.717 -0.3546 -0.4572 -0.1186
19942W        W62855   9.290  21.106  15.656 -0.0828 -0.2374 -0.0628
19943W        W62856   6.310   1.874  18.976 -0.2734 -0.2753  0.0682
19944W        W62857  30.951  14.792  27.504  0.0251  0.1121 -0.3104
19945W        W62858  31.989  13.965  24.023  0.0981 -0.1723 -0.1291
19946W        W62859  32.911  28.511  15.389 -0.2325 -0.2014  0.0572
19947W        W62860  31.973  30.016  22.009  0.0263 -0.1793  0.0029
19948W        W62861   8.542   4.148  22.291  0.2266 -0.0501 -0.0023
19949W        W62862  28.208  26.444  16.501  0.2050 -0.2380  0.2609
19950W        W62863   0.314   3.846  17.138  0.0062 -0.2917 -0.0615
19951W        W62864  17.340   2.053  26.106 -0.0186  0.2657  0.0165
19952W        W62865  17.233  29.255  26.375  0.0956  0.2280 -0.3324
19953W        W62866  31.997   8.761  19.829 -0.0891  0.0116  0.1088
19954W        W62867  13.068  16.636  28.704 -0.1729 -0.0423 -0.0817
19955W        W62868   3.632  23.645  21.867 -0.1203  0.1238  0.0560
19956W        W62869  30.514  29.821  26.568 -0.1288 -0.0761 -0.3585
19957W        W62870   7.240   3.585  22.689  0.2692 -0.1413 -0.4536
19958W        W62871   2.029   0.909  23.457  0.1553  0.0726  0.1145
19959W        W62872   6.765   1.911  25.033  0.3481 -0.0946 -0.3639
19960W        W62873  12.926  28.603   4.119  0.0166  0.2029 -0.0605
19961W        W62874   0.642   5.866  20.042  0.3078 -0.0405 -0.0039
19962W        W62875   7.926  32.840  19.594 -0.0184  0.2906  0.1615
19963W        W62876   5.568   6.154  18.004 -0.4542  0.3132  0.0908
19964W        W62877   7.191   9.978  26.079  0.0488 -0.2037 -0.1784
19965W        W62878   1.595  27.624  21.447  0.1310 -0.1202 -0.0347
19966W        W62879   6.704   3.100  22.312 -0.3160  0.0002 -0.1401
19967W        W62880   0.239   0.619  16.502  0.0147  0.1627 -0.5484
19968W        W62881   2.360   3.700  21.437  0.0970 -0.0763  0.2829
19969W        W62882   9.852  26.381  26.885 -0.3043  0.1280 -0.0372
19970W        W62883  32.695   7.079  21.126 -0.4825  0.4661 -0.0817
19971W        W62884   0.745   1.479  23.191  0.0932 -0.1318 -0.1253
19972W        W62885  10.477  30.213  24.832 -0.0284  0.1832 -0.0024
19973W        W62886  31.365  31.979  21.233  0.1280  0.0397 -0.0109
19974W        W62887  28.612  26.234  26.066  0.0860 -0.1483  0.3613
19975W        W62888   7.774  23.825  24.558 -0.1830  0.2750  0.2454
19976W        W62889   3.756   9.083  21.949 -0.1423 -0.0611 -0.2068
19977W        W62890  29.076   0.688  26.161 -0.4114 -0.3408  0.1403
19978W        W62891  25.484   0.145   2.559  0.0391 -0.0656  0.1027
19979W        W62892   5.843   4.108  24.119 -0.3008  0.1500  0.1654
19980W        W62893  29.811   4.775  24.961 -0.0080 -0.2547  0.1741
19981W        W62894   9.137  25.676  23.922 -0.0566  0.1080 -0.0912
19982W        W62895  30.022  28.062  27.408 -0.1270 -0.2713  0.0321
19983W        W62896   3.726   8.476  25.691  0.3010 -0.4637 -0.0542
19984W        W62897  29.803   5.844  26.536  0.1269  0.1908  0.2858
19985W        W62898   8.135  30.265  23.744 -0.2976  0.1272  0.1992
19986W        W62899   3.252   3.918  17.290  0.1400 -0.0304 -0.2399
19987W        W62900   0.365   5.549  21.583  0.0293 -0.0341  0.2654
19988W        W62901  34.312  26.039  27.177  0.0246 -0.0779 -0.1462
19989W        W62902  12.077   1.160  16.364  0.1465 -0.2662 -0.1591
19990W        W62903   1.873  12.249  21.950 -0.0769 -0.1921 -0.0286
19991W        W62904  12.389  29.801  18.016  0.0613 -0.0645 -0.1004
19992W        W62905  10.632   0.587  20.862 -0.1819  0.4750 -0.1601
19993W        W62906  24.609   7.870  23.737  0.2739 -0.4163 -0.2505
19994W        W62907   5.667  28.778  18.773 -0.3170 -0.2969  0.1231
19995W        W62908   3.866   6.319   8.286 -0.2153 -0.1424 -0.1327
19996W        W62909   6.366   5.484  21.915 -0.0655  0.3484 -0.1237
19997W        W62910   7.331  30.385  24.978  0.0491  0.0815 -0.1188
19998W        W62911  16.142   3.195  27.017 -0.0400  0.0491 -0.1588
19999W        W62912  33.979   7.493  16.758 -0.2199  0.2518  0.1793
20000W        W62913   1.455  12.080  26.283  0.3609  0.1112 -0.2175
20001W        W62914   1.837  25.741  16.983  0.3588 -0.0677 -0.2001
20002W        W62915  10.157  29.411  17.887  0.0094  0.0184  0.0063
20003W        W62916   8.690   1.906  22.381 -0.0441 -0.3123 -0.1367
20004W        W62917  29.644   9.334  22.408 -0.2969  0.1020  0.1026
20005W        W62918   2.114  29.738  17.326  0.1817 -0.2174  0.0112
20006W        W62919  12.843   7.779  21.355  0.1376  0.0552  0.0968
20007W        W62920   5.949  31.580  24.852  0.1082 -0.0899 -0.0307
20008W        W62921  26.483  34.333  25.524 -0.1739 -0.1041 -0.0287
20009W        W62922  32.715   1.528  22.562  0.2753  0.1274  0.5077
20010W        W62923   2.959   8.319  16.708  0.0528 -0.0506  0.0609
20011W        W62924   9.386   2.758  25.381  0.0023  0.0895  0.0452
20012W        W62925  31.981   5.735  27.693  0.1107 -0.1148 -0.0986
20013W        W62926   2.186   4.018  20.590  0.0086  0.0873  0.2040
20014W        W62927  30.114  28.069  15.823  0.1160 -0.0119 -0.0987
20015W        W62928  12.187  30.437  23.857 -0.0266 -0.0127 -0.2286
20016W        W62929   0.865  25.618  14.720  0.2202 -0.1185 -0.0271
20017W        W62930   2.203  12.142  28.301 -0.3166 -0.0146 -0.0830
20018W        W62931  12.942   7.053  17.868 -0.0182  0.3249 -0.0180
20019W        W62932   6.933   0.500  24.157 -0.0800 -0.0810  0.3853
20020W        W62933  14.592   1.647  28.352  0.0715 -0.0018 -0.4328
20021W        W62934   3.101  34.250  25.973 -0.0374 -0.1196  0.1084
20022W        W62935   9.721   4.133  20.522  0.2193 -0.2950 -0.2092
20023W        W62936   2.276   6.682   2.254 -0.4535  0.2995  0.0917
20024W        W62937  33.203   7.430  18.236  0.1953 -0.1246  0.3547
20025W        W62938  21.563  10.104  21.843 -0.2028  0.1057  0.1409
20026W        W62939  16.657   4.327  21.529 -0.2397  0.0832 -0.0563
20027W        W62940   5.360  31.783  25.718 -0.0271  0.1539 -0.2812
20028W        W62941   6.095  32.061  18.567  0.0281  0.2026  0.0795
20029W        W62942   1.671   8.813  16.712 -0.0156  0.0770 -0.1275
20030W        W62943  11.260  30.916  26.224  0.0421  0.1982 -0.1032
20031W        W62944   6.730  33.492  17.355  0.2704  0.1795 -0.2246
20032W        W62945   1.339   0.314  17.934  0.2190  0.0512  0.0487
20033W        W62946  31.898   8.481  20.779 -0.5262 -0.1421 -0.2015
20034W        W62947   5.174   2.761  18.892  0.2734  0.0915 -0.1096
20035W        W62948  17.753  33.879  19.823  0.0809  0.0795 -0.0471
20036W        W62949  33.880   0.538  16.699 -0.1747  0.0647 -0.1273
20037W        W62950  12.903  29.946  26.614  0.0837 -0.1557  0.1785
20038W        W62951   3.180   3.200  19.733 -0.0480  0.2229 -0.0680
20039W        W62952   6.976  27.331  17.608 -0.1146 -0.2469 -0.1661
20040W        W62953   8.947   4.007  20.742  0.2854  0.0062  0.1042
20041W        W62954  25.450   1.971  21.109 -0.3221 -0.1822 -0.1245
20042W        W62955   2.283  20.017  24.798 -0.0846  0.1029 -0.1701
20043W        W62956   1.227  31.479  14.647 -0.3628  0.1057 -0.0324
20044W        W62957   6.076  32.619   3.386  0.0158 -0.0424 -0.1637
20045W        W62958  26.231   9.556  16.139  0.1975 -0.0453  0.0142
20046W        W62959  33.872   6.756  24.263 -0.1085  0.1086  0.2662
20047W        W62960   5.334  31.034  26.329  0.0167  0.2245 -0.1747
20048W        W62961  32.985  30.260   2.928 -0.1366 -0.0343 -0.1926
20049W        W62962  30.850   2.634  18.831 -0.0468  0.2507  0.0496
20050W        W62963   7.082  29.689  28.258  0.4241 -0.0391  0.0153
20051W        W62964   2.061  25.328  21.091 -0.0396 -0.2658 -0.0583
20052W        W62965   0.073   6.526  17.448 -0.1545 -0.3392  0.0139
20053W        W62966   9.790   2.929  19.942 -0.0568 -0.1972 -0.2177
20054W        W62967   2.702   8.270  23.081  0.0213  0.3787 -0.0408
20055W        W62968   5.251   2.326  21.757 -0.0257  0.1899 -0.1400
20056W        W62969  34.392  34.307  16.374  0.1145 -0.0317 -0.0046
20057W        W62970   2.248  25.915   1.400 -0.1837 -0.1205  0.1655
20058W        W62971  32.571  12.172  18.012 -0.2546  0.0560 -0.0942
20059W        W62972   1.907  33.452  29.391  0.2366 -0.1386  0.1554
20060W        W62973  32.616  26.210  21.647 -0.1528 -0.1575 -0.2106
20061W        W62974   9.632   8.002  19.725 -0.1743  0.2189  0.1539
20062W        W62975  11.413   3.587  24.407  0.4337 -0.2424  0.0047
20063W        W62976   8.894  29.713  17.808  0.0059  0.1743 -0.0239
20064W        W62977  31.805  29.953  13.558 -0.3296 -0.1269 -0.1772
20065W        W62978   2.879   4.073  17.669 -0.1439 -0.1258  0.1167
20066W        W62979   4.018  28.120  14.866  0.2451  0.4146  0.1990
20067W        W62980   6.564  12.244  20.307  0.2625  0.1067  0.5148
20068W        W62981   2.911   4.789  28.326 -0.1383  0.0509  0.2385
20069W        W62982  20.362  33.411  15.248  0.0813  0.1606 -0.0557
20070W        W62983   8.245  26.521  17.072 -0.0252 -0.0069  0.0492
20071W        W62984   4.367  32.543  25.911 -0.1010  0.0850  0.3400
20072W        W62985   5.938  20.034  19.186  0.0263  0.0681  0.0792
20073W        W62986   3.336   0.744  18.367  0.0066 -0.0845  0.0231
20074W        W62987  32.637   6.565  18.919 -0.1816  0.0721  0.1456
20075W        W62988   4.860   1.652  16.727  0.1177 -0.0531  0.0427
20076W        W62989   1.907  31.766  16.627  0.2603  0.1826 -0.2047
20077W        W62990   7.267   6.908  17.834 -0.1498  0.0031 -0.1856
20078W        W62991  10.081  31.589  27.130  0.2431  0.1845 -0.2474
20079W        W62992   1.097  32.359  16.941  0.0084  0.1522 -0.0158
20080W        W62993   3.685  34.204  23.701  0.3812  0.0308 -0.0226
20081W        W62994   8.114   1.221   2.874 -0.2508 -0.3564 -0.0230
20082W        W62995   4.244   2.661  26.474  0.1049 -0.0505 -0.0212
20083W        W62996   0.277   5.238  20.763 -0.2177 -0.0594  0.2038
20084W        W62997   2.080  27.503  17.667 -0.1197  0.0473 -0.0569
20085W        W62998  33.829  12.979  22.381 -0.0565 -0.1399  0.0258
20086W        W62999  10.568  32.954  20.296 -0.0692 -0.1968  0.1664
20087W        W63000  34.293  30.467  23.035 -0.0834 -0.0399 -0.1874
20088W        W63001   4.322  29.223  18.601 -0.2588  0.0748 -0.0623
20089W        W63002   4.869   6.896  24.305  0.4264  0.0391 -0.2761
20090W        W63003  30.035   1.400  27.512  0.5580  0.0653 -0.0696
20091W        W63004   1.966   5.238  23.656 -0.0863 -0.3207 -0.0753
20092W        W63005  28.907   5.132  19.412 -0.2278 -0.0100  0.0035
20093W        W63006   3.547  33.851  21.041  0.3390 -0.1054  0.1144
20094W        W63007   9.364   1.362  18.153  0.1783  0.0934  0.1626
20095W        W63008  14.334   2.880  20.480  0.1121  0.0239  0.3375
20096W        W63009  27.903   3.574  25.765  0.0282  0.0511  0.1744
20097W        W63010  34.352   5.631  25.763 -0.1374  0.0249 -0.2305
20098W        W63011   1.482  28.206  24.394  0.2536 -0.0767  0.0094
20099W        W63012  18.632  27.323  24.490 -0.0113 -0.0867 -0.0362
20100W        W63013  10.443   0.391  23.547  0.2417 -0.0145  0.0711
20101W        W63014   6.053   4.995  18.876  0.1490 -0.1270 -0.3701
20102W        W63015  33.480   9.644  27.481  0.2999  0.1908 -0.1519
20103W        W63016   9.943  24.593  16.654 -0.2441  0.2183 -0.1315
20104W        W63017  31.097  33.059  17.583 -0.0749  0.1469 -0.2129
20105W        W63018   8.755   2.477  18.439 -0.3634 -0.0345 -0.0349
20106W        W63019   3.374  25.235  22.961 -0.2387 -0.0090  0.1702
20107W        W63020   5.157   7.389  20.441  0.1519  0.3980 -0.0099
20108W        W63021  32.619   7.730  16.995  0.2394  0.0805  0.0915
20109W        W63022   6.650   6.674   0.978  0.2484  0.2820  0.1594
20110W        W63023  32.247   1.016  24.652 -0.4287 -0.1620 -0.1985
20111W        W63024  30.437  27.729  24.793 -0.1297  0.0378  0.0239
20112W        W63025   8.688   6.207  22.008  0.1053 -0.1174 -0.0658
20113W        W63026  29.891  33.706  20.358  0.1216  0.0619  0.0238
20114W        W63027   2.925   2.275  21.027  0.0699 -0.0449 -0.0244
20115W        W63028   5.076  29.925  24.102  0.0160  0.3874  0.0213
20116W        W63029  13.192  29.752  20.143 -0.0045  0.1659  0.1121
20117W        W63030  13.046  32.352  26.730 -0.1160 -0.0936  0.2638
20118W        W63031   3.850   5.521  22.143  0.0636  0.1262 -0.0237
20119W        W63032  30.430  12.186  18.764  0.0065 -0.4799 -0.3121
20120W        W63033   9.134  29.895  26.305 -0.0674  0.1721  0.1634
20121W        W63034  12.225   2.949  19.512  0.2639 -0.2566 -0.4943
20122W        W63035  20.308  13.557  15.330  0.1678 -0.1239 -0.0362
20123W        W63036  11.776  28.080  19.706  0.1314 -0.0118 -0.0494
20124W        W63037   5.723  32.545  21.399  0.0343  0.0601  0.0004
20125W        W63038   4.523   6.433  23.308 -0.0594 -0.1227 -0.2551
20126W        W63039   4.626  29.715  14.425 -0.3092 -0.0258 -0.0259
20127W        W63040   9.014  33.977  17.497  0.0917 -0.2563  0.0402
20128W        W63041  32.481   7.974  22.187 -0.2902  0.0772 -0.0057
20129W        W63042   4.757   2.912   0.500 -0.4985 -0.3185 -0.2010
20130W        W63043   2.830   3.599  20.558 -0.1778 -0.0234 -0.3236
20131W        W63044  32.284  25.544  22.278 -0.0691  0.3224 -0.0681
20132W        W63045   9.086   4.568  17.867 -0.3003  0.3328  0.2674
20133W        W63046   6.756   0.142  18.307 -0.1192 -0.0689  0.1896
20134W        W63047   1.837   3.391   4.536 -0.0182 -0.2496  0.1820
20135W        W63048   1.635   8.328  17.968  0.1896 -0.1918  0.0230
20136W        W63049   0.946  30.263  29.097  0.0266  0.0773  0.0677
20137W        W63050   9.461  22.763  23.388 -0.2262  0.0841  0.3846
20138W        W63051   1.512   5.127  18.075  0.0007  0.4452 -0.0434
20139W        W63052  11.625  11.998  19.489 -0.0638 -0.0344 -0.1498
20140W        W63053   8.295   1.743  27.088 -0.0238 -0.3797 -0.2190
20141W        W63054   4.001  23.788  16.445  0.3916 -0.0427 -0.0052
20142W        W63055   4.477   3.671  19.337  0.0278  0.4002 -0.1811
20143W        W63056  10.937   0.621  18.515 -0.1182  0.0800 -0.2128
20144W        W63057   0.824   5.444  19.227 -0.3417  0.1926 -0.0436
20145W        W63058  12.420  30.595  20.031 -0.0813  0.1968  0.0465
20146W        W63059   1.465   6.105  18.090 -0.0966  0.0653 -0.1537
20147W        W63060   5.272   6.054  21.197  0.0086  0.4220  0.3958
20148W        W63061   4.258  16.018  26.866  0.0333 -0.3056  0.3433
20149W        W63062   2.489  26.674  23.172 -0.0784  0.1738  0.2966
20150W        W63063   4.788  33.559  23.947 -0.0870 -0.0379  0.0596
20151W        W63064  27.166  30.735  26.244 -0.1803  0.2412  0.2265
20152W        W63065   5.921   2.636  23.335 -0.0885 -0.1192 -0.3356
20153W        W63066   3.834   2.834  17.098 -0.0041  0.0804 -0.2274
20154W        W63067   4.420  29.786  20.105  0.3423  0.0817 -0.3705
20155W        W63068  28.970  25.047  26.820  0.0117 -0.1489  0.1525
20156W        W63069  13.977  27.374  15.339 -0.2026  0.0758 -0.1486
20157W        W63070   4.143   6.452  25.655  0.1715 -0.0415 -0.0309
20158W        W63071  11.115  25.278  18.124 -0.2055 -0.1190 -0.1131
20159W        W63072   7.590  32.025  16.546  0.2687  0.1133  0.0946
20160W        W63073   0.341   5.628  21.100  0.2540 -0.0995  0.2006
20161W        W63074  14.579   1.213  23.486  0.0424 -0.0396  0.0757
20162W        W63075  13.177  29.734   2.005 -0.1516 -0.1295  0.0763
20163W        W63076   8.751  30.870  25.606  0.0212 -0.1130 -0.0793
20164W        W63077  14.883  34.141  15.854  0.0806 -0.1310 -0.1000
20165W        W63078  34.039  30.918  29.316 -0.3309  0.2012 -0.0782
20166W        W63079   0.570   0.933  25.222 -0.2920  0.2748 -0.3851
20167W        W63080   5.665  25.402  15.587  0.0912 -0.2219  0.1360
20168W        W63081  30.984  32.013  22.689 -0.3948  0.1781 -0.1066
20169W        W63082  30.635   3.605  28.797  0.0232  0.0055  0.1174
20170W        W63083   0.965   5.374  29.703 -0.2325 -0.2114  0.1013
20171W        W63084   8.860  32.640  26.765 -0.1747 -0.1238  0.1439
20172W        W63085  29.198  26.651  16.668 -0.2194  0.1548  0.0079
20173W        W63086   1.809   2.270  21.161  0.0830  0.0304  0.0046
20174W        W63087   7.156  30.216  28.372  0.2494  0.1077  0.0064
20175W        W63088  31.079  33.511  19.644 -0.1797 -0.1505  0.1978
20176W        W63089  13.809   0.804  19.061  0.5468  0.2269  0.1772
20177W        W63090  32.454  30.195   0.476  0.0330  0.1850 -0.3974
20178W        W63091  28.813   8.757   3.648 -0.2073  0.0681 -0.1344
20179W        W63092  14.347  30.504  23.585  0.1217 -0.0779 -0.0444
20180W        W63093  11.675  10.006  23.780 -0.1190  0.3138 -0.1988
20181W        W63094  33.407   7.526  27.115  0.2335 -0.1592  0.2629
20182W        W63095  11.077   1.195  23.211 -0.1643  0.4743 -0.1042
20183W        W63096   9.300   5.447  20.524 -0.2060  0.1048 -0.3637
20184W        W63097  16.022  33.616  24.744  0.1338  0.0957 -0.1233
20185W        W63098   0.385   2.153  18.925  0.1510 -0.1722 -0.0057
20186W        W63099   7.709   2.154  18.692  0.0519 -0.1482 -0.0466
20187W        W63100   7.588  32.784  21.231 -0.3850 -0.0012  0.0794
20188W        W63101   6.680  33.809  21.514 -0.1541  0.0215  0.0132
20189W        W63102  26.093  11.167  27.792  0.3703  0.0427  0.0656
20190W        W63103  13.095   4.287  16.662  0.0111 -0.2054  0.1296
20191W        W63104  18.291  34.194  15.605 -0.0075 -0.0601  0.0452
20192W        W63105   4.192   8.920  17.722 -0.0871 -0.1115 -0.0073
20193W        W63106   0.235  29.208  17.999 -0.1794  0.0792  0.0403
20194W        W63107   6.508   9.143  26.336  0.1022 -0.1177 -0.2412
20195W        W63108   4.234  13.552  22.231 -0.1538 -0.1213 -0.0000
20196W        W63109   2.423   3.452  22.698  0.3981 -0.1898 -0.0829
20197W        W63110   5.366  34.471  21.282 -0.2945  0.1068  0.1728
20198W        W63111   8.309  33.368  17.730  0.1974  0.2833 -0.2330
20199W        W63112   9.366   7.210  26.737  0.0778  0.0802 -0.2957
20200W        W63113   3.055  25.646  20.953 -0.0397 -0.1026  0.0498
20201W        W63114  17.334  11.498  21.409  0.1119  0.1173 -0.0998
20202W        W63115  32.312   4.648  16.857  0.1823 -0.1418 -0.0310
20203W        W63116   5.968  32.502  23.346  0.1040 -0.3569 -0.0090
20204W        W63117  14.802  29.582  25.364 -0.2528 -0.0002  0.2445
20205W        W63118  12.898  13.915  13.187 -0.0529  0.1760  0.1641
20206W        W63119  29.970  20.304  19.453  0.2079  0.1238 -0.0071
20207W        W63120  25.070   9.988  25.595  0.2749 -0.2408  0.1167
20208W        W63121   7.227   6.193  29.114 -0.1300  0.0500 -0.0524
20209W        W63122   7.288   4.058  22.777  0.0850 -0.2245  0.2835
20210W        W63123   0.763  15.084  15.476  0.0979 -0.4283 -0.0112
20211W        W63124   8.798   1.713  24.558  0.1228 -0.2256  0.1697
20212W        W63125   6.803   3.126  25.331  0.0399  0.0580  0.2547
20213W        W63126  24.220   3.466  28.693 -0.2004 -0.0467 -0.1340
20214W        W63127  14.432  34.137  16.522  0.1536 -0.1065  0.3067
20215W        W63128   1.715  34.121  19.112 -0.1325  0.0147  0.2651
20216W        W63129  31.459   0.457  16.909  0.4365 -0.1421 -0.0872
20217W        W63130  12.223  33.173  18.042  0.1749 -0.1117 -0.2456
20218W        W63131   4.591   0.934   1.486  0.1234 -0.1118  0.2880
20219W        W63132   7.619  31.665  16.943 -0.2722 -0.3484 -0.0650
20220W        W63133   6.324   4.968  24.111 -0.3054  0.1179  0.3639
20221W        W63134   6.798   3.329  22.781 -0.0540  0.0328 -0.1828
20222W        W63135   2.458  27.563  14.624  0.0105 -0.3615  0.2056
20223W        W63136   3.146   4.398  17.217  0.0675  0.1337 -0.1353
20224W        W63137   6.882  33.846  19.813  0.0838 -0.0544 -0.1055
20225W        W63138  13.354   3.010  17.910  0.0827  0.1593  0.1877
20226W        W63139  29.575  11.750  15.051  0.0295  0.0863 -0.1560
20227W        W63140   0.887   1.936  15.653 -0.0933  0.1815  0.1463
20228W        W63141   5.202  33.464  22.953 -0.0445  0.0041  0.1892
20229W        W63142  33.462   3.832  16.463 -0.3131 -0.0835 -0.0707
20230W        W63143  24.654  30.543  19.482 -0.0954  0.2382 -0.0855
20231W        W63144   5.673   6.302  20.389 -0.0381 -0.2091  0.0855
20232W        W63145  34.388  29.493  22.669 -0.0233  0.1025 -0.2291
20233W        W63146   9.230   6.949  22.146  0.1642 -0.0741  0.0696
20234W        W63147   2.010  29.262  15.737  0.0004 -0.3146  0.1261
20235W        W63148   5.587   6.042  18.522 -0.2308  0.1268  0.1367
20236W        W63149  33.291   8.721  20.792  0.3339  0.2301 -0.0983
20237W        W63150  10.841  17.082  23.277  0.0399  0.1391  0.2404
20238W        W63151   7.352  32.740   3.400  0.2181  0.1263  0.0463
20239W        W63152   4.614  28.731  15.438  0.0251  0.1138 -0.0378
20240W        W63153   8.068  25.097  23.915  0.1637  0.1485  0.1095
20241W        W63154   3.039  29.718  21.699 -0.0647  0.0729  0.1670
20242W        W63155   0.977  29.912  19.828  0.0573  0.2619 -0.0612
20243W        W63156  11.292  29.391  24.951 -0.1285 -0.1444  0.2456
20244W        W63157   6.265   4.355  24.688  0.1523  0.2194 -0.5152
20245W        W63158  32.469   4.725  29.368 -0.1155  0.1974  0.2796
20246W        W63159  16.812   4.240  22.957  0.1714  0.2854  0.2169
20247W        W63160   0.839  33.290  23.611  0.0215 -0.3089  0.1122
20248W        W63161   0.892   5.378  22.601 -0.0190  0.1118  0.0702
20249W        W63162  10.020   5.617  18.033 -0.0179 -0.1588 -0.2148
20250W        W63163   6.523  28.077  18.658 -0.1827  0.0039  0.0743
20251W        W63164  11.050  32.350  20.050 -0.0173  0.1379 -0.0393
20252W        W63165  10.410  33.178  24.492  0.1143 -0.3810  0.0078
20253W        W63166   0.571   4.078  18.857 -0.0099  0.1557  0.3939
20254W        W63167  34.231   1.288  21.419 -0.0220 -0.0222 -0.0406
20255W        W63168  30.304  24.179  26.073  0.0763  0.0792 -0.2541
20256W        W63169   9.982   0.956  18.508 -0.1093  0.1704 -0.0660
20257W        W63170  33.151  33.910  21.756 -0.1535  0.1057 -0.0998
20258W        W63171   8.697   5.090  26.638 -0.1230  0.2593  0.3622
20259W        W63172   0.096   1.087  22.150  0.3448 -0.0177  0.3020
20260W        W63173   2.191  32.207  16.550  0.2211 -0.0119 -0.1479
20261W        W63174   5.754   8.970  24.004  0.1924  0.2741  0.2953
20262W        W63175   1.349  30.049  27.239 -0.6989  0.1497 -0.4757
20263W        W63176  10.975  32.642  18.708  0.0239  0.2109  0.0498
20264W        W63177  13.433  34.152  29.293  0.0947 -0.0678  0.0484
20265W        W63178   8.496  29.112   7.109  0.0569 -0.0521 -0.0539
20266W        W63179  23.112  25.725  21.953  0.0760 -0.0939 -0.0725
20267W        W63180  11.554  30.084  21.471  0.2674  0.0038 -0.3384
20268W        W63181   3.092  27.121  22.082  0.0564 -0.3476  0.2582
20269W        W63182  10.760   0.258  17.087 -0.2309 -0.0655  0.0151
20270W        W63183   0.486  33.761  26.212 -0.2214 -0.2576  0.3100
20271W        W63184   9.699   3.889  18.954 -0.0276 -0.3095 -0.0020
20272W        W63185  24.139  27.960  24.151  0.0249  0.1378 -0.1975
20273W        W63186   0.580  28.366  19.982  0.0770 -0.0076 -0.1001
20274W        W63187  34.014  27.445  17.459 -0.0738  0.0206 -0.1319
20275W        W63188  34.210  27.253  27.227  0.1392 -0.1322  0.1444
20276W        W63189   4.788  20.956  23.766  0.0429 -0.3496  0.4159
20277W        W63190  12.113  31.785  28.165  0.1172 -0.3197 -0.1162
20278W        W63191  14.877  33.403  25.489 -0.0562 -0.0347 -0.0644
20279W        W63192   0.545  22.318  14.569 -0.0929 -0.0045 -0.1741
20280W        W63193   2.932  30.107   3.558 -0.2091  0.2729  0.0770
20281W        W63194   8.811  24.925  21.567  0.0047 -0.0241  0.2877
20282W        W63195  11.143   6.181  18.856 -0.1127 -0.1718 -0.2557
20283W        W63196  29.625   7.258  19.476  0.1644 -0.4539  0.1576
20284W        W63197  17.094  32.970  23.323 -0.1367  0.1663  0.2684
20285W        W63198   0.001  24.437  17.744  0.1708  0.0160  0.0600
20286W        W63199   3.653  34.288  18.774  0.1909  0.3062 -0.2250
20287W        W63200   6.189  30.010  28.246 -0.0727 -0.2049 -0.1070
20288W        W63201   3.427  28.626  27.458 -0.1666 -0.1693  0.0085
20289W        W63202  34.045   2.794  17.021  0.1837 -0.2207 -0.1471
20290W        W63203   3.892  27.500  19.979  0.0291  0.1085  0.4335
20291W        W63204  10.758  34.158   1.596 -0.3086  0.3862 -0.2148
20292W        W63205   4.868   4.468  17.533 -0.3502  0.0110 -0.1528
20293W        W63206   5.456   1.472  17.112  0.1692  0.1031  0.0255
20294W        W63207   8.703   2.153  21.921  0.0557 -0.1553  0.0809
20295W        W63208   8.968   5.553  20.820  0.0867 -0.1060 -0.1411
20296W        W63209   1.618   5.390  27.226 -0.0522 -0.2289 -0.0026
20297W        W63210  11.430   0.447  23.814  0.1297  0.0013  0.0422
20298W        W63211   2.954   8.197  27.726  0.3212  0.0918  0.0774
20299W        W63212   3.916  29.293  29.523 -0.1079  0.1191  0.1995
20300W        W63213   7.756  32.332  23.411 -0.0525  0.3060 -0.1837
20301W        W63214  10.121   6.565  20.466 -0.0796 -0.1199 -0.1173
20302W        W63215  25.605   1.035  26.896  0.1000  0.0679 -0.1203
20303W        W63216   1.228  33.165  23.305 -0.0277  0.2256 -0.0161
20304W        W63217   5.687  19.120  14.888  0.0376 -0.0465 -0.2607
20305W        W63218  33.657  33.204  28.878  0.1011  0.1126  0.0530
20306W        W63219   9.060  17.144  29.051 -0.2373 -0.0088  0.0565
20307W        W63220   0.217   1.562   1.150 -0.0557 -0.0649  0.0214
20308W        W63221  17.986   3.227  22.383 -0.3080  0.1514 -0.1513
20309W        W63222  25.445   8.837  20.939 -0.1160  0.3666 -0.1345
20310W        W63223   2.609  32.862  24.936  0.0770 -0.0136  0.3048
20311W        W63224   2.504   4.169  23.290  0.1282 -0.3558 -0.0988
20312W        W63225  32.070   0.552  26.490  0.1087  0.3336 -0.0147
20313W        W63226   9.154  27.134  24.805 -0.1704  0.5397  0.0980
20314W        W63227   2.804  33.114  16.331  0.0797 -0.1745  0.2697
20315W        W63228  13.390  27.276  24.275  0.0769  0.0587  0.2425
20316W        W63229   2.142  32.552  17.001 -0.1020 -0.1569  0.0470
20317W        W63230  15.548   2.472  15.054  0.0398  0.0170  0.0339
20318W        W63231   3.801  25.866  27.529 -0.1297 -0.1292  0.0757
20319W        W63232   4.158   7.060  18.732 -0.0179 -0.1023 -0.0533
20320W        W63233  33.298  25.005  20.034  0.2180 -0.0828  0.0553
20321W        W63234  13.420   1.948  24.863  0.1238  0.1403  0.1847
20322W        W63235  12.733   9.714  19.366  0.0051  0.0540 -0.1101
20323W        W63236   1.959   8.680  18.520  0.0917  0.2799  0.0687
20324W        W63237   3.219  34.352  17.594 -0.2255 -0.0046 -0.0088
20325W        W63238   9.509  30.716  16.197 -0.0019  0.1028 -0.0022
20326W        W63239  18.572  32.038  24.870  0.0222  0.0737  0.1941
20327W        W63240  32.361  15.485  20.304 -0.1543  0.1146 -0.1195
20328W        W63241   1.551  16.619  21.214 -0.0699 -0.0589  0.3647
20329W        W63242  29.476  32.074  22.855  0.0414 -0.0507 -0.2868
20330W        W63243  33.529   2.173  23.468 -0.0990 -0.3035  0.0049
20331W        W63244  11.609   3.226  19.535 -0.2268  0.1307  0.2080
20332W        W63245  30.503  23.624  18.367  0.3642  0.1793 -0.0217
20333W        W63246   0.950  24.062  25.781  0.3411  0.0096  0.1390
20334W        W63247  12.648  31.319  23.321 -0.2401  0.0557 -0.0621
20335W        W63248   5.415  27.845  25.717  0.2491 -0.3369 -0.1904
20336W        W63249   2.010   0.873  16.546 -0.1917  0.0400 -0.2691
20337W        W63250   5.689  24.633  17.712 -0.2170  0.1606  0.0513
20338W        W63251   6.429   4.352  21.083 -0.5449  0.0618 -0.1825
20339W        W63252  33.086  30.911  25.483  0.0279 -0.1653 -0.1691
20340W        W63253  31.763  32.075  23.984 -0.1656 -0.1307  0.0070
20341W        W63254  14.337  29.517  20.762 -0.1172 -0.0222  0.2620
20342W        W63255  25.909   0.234   8.365 -0.0067  0.2119  0.0647
20343W        W63256   6.519   5.827  24.065  0.0722 -0.1207  0.0414
20344W        W63257  10.696  30.702  18.593  0.0141  0.1085  0.3452
20345W        W63258  10.992   4.231  23.443 -0.5490  0.0403  0.0151
20346W        W63259  14.748   4.821  22.968  0.1646 -0.2433  0.0111
20347W        W63260   0.437   2.980  17.408  0.1163 -0.1008  0.1606
20348W        W63261  15.856  31.281  16.462 -0.2530 -0.1027 -0.2183
20349W        W63262   8.214  33.198  18.763 -0.2935 -0.1546 -0.2359
20350W        W63263   6.532   4.626  22.719 -0.0449  0.0128  0.0561
20351W        W63264   5.965  33.674  20.941  0.1020  0.0852 -0.2739
20352W        W63265   2.331  24.171  24.458  0.1100  0.1262  0.1598
20353W        W63266   6.143   5.558  29.377 -0.0085 -0.0022 -0.2184
20354W        W63267   4.517  27.808  24.774  0.0591  0.3709  0.1357
20355W        W63268   3.746   2.287  23.474 -0.1981 -0.1232 -0.1175
20356W        W63269   1.035  24.174  18.902 -0.1210  0.2891 -0.1564
20357W        W63270  33.573  31.832  21.870 -0.0122  0.1141 -0.5154
20358W        W63271   2.122  32.953  16.529  0.1744  0.1026  0.2274
20359W        W63272   0.530  20.428  18.700  0.1493 -0.1101  0.1332
20360W        W63273   6.929   2.254  21.651 -0.0592  0.2481 -0.3124
20361W        W63274   0.104  32.914  16.002  0.1086  0.0368  0.3659
20362W        W63275   9.375  27.623  24.112  0.3282  0.0316  0.0377
20363W        W63276  21.352   2.179   4.144  0.1186 -0.1529  0.2738
20364W        W63277   0.345   7.474   0.073 -0.2328  0.0628 -0.2426
20365W        W63278   8.767   0.131  18.588 -0.1219  0.2641 -0.0215
20366W        W63279   2.299   9.114  22.009  0.0495 -0.1097  0.1621
20367W        W63280   5.845   0.277  16.965 -0.1366 -0.1763  0.0669
20368W        W63281  26.132  33.791  21.028 -0.2355  0.1114  0.1794
20369W        W63282   4.738  28.305  21.119  0.4257 -0.1754 -0.0214
20370W        W63283   6.515  15.574  29.453 -0.0985  0.2173 -0.1539
20371W        W63284  13.623  28.702  17.836 -0.0555 -0.0204 -0.1398
20372W        W63285  14.096  32.216  23.571 -0.1788 -0.1401 -0.0196
20373W        W63286   3.305  26.685  16.105  0.2919  0.4260 -0.0918
20374W        W63287   7.082  10.881   2.650 -0.0099 -0.2266  0.0838
20375W        W63288  11.523  25.061  22.182  0.1178  0.0758 -0.0142
20376W        W63289   3.771  27.377  14.335  0.1606  0.1673  0.1038
20377W        W63290  10.215  32.948  24.908 -0.0158  0.2327  0.1483
20378W        W63291   1.238   4.036  16.544 -0.0577 -0.1843 -0.2045
20379W        W63292   4.865   1.828  22.103  0.0592 -0.3369 -0.0007
20380W        W63293   2.508   0.019  26.404  0.0007 -0.5659  0.0857
20381W        W63294   8.399   1.489  20.506  0.2079  0.2319  0.2880
20382W        W63295   9.137   4.798  22.951  0.0601 -0.0147  0.1688
20383W        W63296  17.306  30.302  25.481 -0.4104 -0.3080  0.1320
20384W        W63297   9.874  30.267  17.143 -0.3184  0.0836  0.3838
20385W        W63298   2.153  27.403  18.182 -0.3986 -0.3467 -0.0631
20386W        W63299   6.272  10.623  22.401  0.2693 -0.0472  0.2225
20387W        W63300  12.993  30.498  21.727  0.1715  0.0598  0.1761
20388W        W63301   2.746   0.302  22.954  0.2652  0.2217 -0.1929
20389W        W63302  32.241  12.402   6.560 -0.0749  0.0522  0.0927
20390W        W63303   6.811  26.065  26.368 -0.0829 -0.3099  0.2174
20391W        W63304   2.353   4.412  20.368  0.1081  0.0429  0.1595
20392W        W63305  14.065  31.382  20.375  0.3072  0.1748 -0.0989
20393W        W63306   2.934   6.052  23.273 -0.2402 -0.2148  0.0520
20394W        W63307   0.568  10.027  25.567  0.1357 -0.1888  0.2504
20395W        W63308   3.850   6.003  22.878 -0.0158  0.4228  0.2523
20396W        W63309  12.574   9.280  23.334  0.3964 -0.1731  0.0729
20397W        W63310  10.498   2.574  27.303  0.1319 -0.2404 -0.1893
20398W        W63311  31.440   6.812  26.436 -0.0091 -0.0938  0.1070
20399W        W63312  30.746  30.879  23.014 -0.0676  0.0311 -0.0362
20400W        W63313  28.336  32.464  29.728 -0.0462 -0.0727 -0.0378
20401W        W63314   4.161  22.121  29.454  0.2951 -0.0580  0.1418
20402W        W63315   7.758   3.161  24.224  0.3001 -0.0342 -0.0078
20403W        W63316   0.298  28.542  22.885  0.2447 -0.0590 -0.0839
20404W        W63317   1.639   2.367   0.709 -0.1228  0.1803 -0.1055
20405W        W63318  10.713  30.837  28.606  0.1682  0.0685 -0.5015
20406W        W63319   5.053   3.946  27.159 -0.1255 -0.0805  0.1204
20407W        W63320   1.676  33.821  18.247  0.2003  0.0775 -0.5103
20408W        W63321   9.461  20.332   2.416 -0.1068 -0.0619 -0.1384
20409W        W63322  28.762   1.417  20.753 -0.0876  0.3925  0.0853
20410W        W63323   9.542  29.463  22.993 -0.1036 -0.1061 -0.0999
20411W        W63324   1.169   5.753  20.343 -0.0125 -0.3583 -0.2145
20412W        W63325  21.181   1.710  23.156  0.0644 -0.0268  0.1820
20413W        W63326  15.935   5.094  14.494 -0.3626 -0.0643 -0.2504
20414W        W63327  10.836   1.921  27.620 -0.3875 -0.2593 -0.0246
20415W        W63328  34.263   4.017  20.356 -0.1786 -0.1285 -0.1561
20416W        W63329   1.956   9.108  17.240 -0.1791 -0.0894 -0.0673
20417W        W63330  10.764   3.776  23.290 -0.1670 -0.2700 -0.0682
20418W        W63331   9.812  31.903  24.530  0.1926 -0.1930  0.2753
20419W        W63332  13.164   3.973  17.081  0.1370 -0.0503  0.1131
20420W        W63333   7.980  32.761  18.844  0.0841  0.4711  0.1768
20421W        W63334  13.121  34.210   3.180  0.0112 -0.1686  0.1281
20422W        W63335   4.540  30.679  26.326 -0.2306  0.3121  0.2805
20423W        W63336  28.543   3.401  21.490  0.1800 -0.0460  0.4481
20424W        W63337  33.445  31.262  19.588  0.2285 -0.0070 -0.1559
20425W        W63338   5.541  30.688  22.284  0.1948 -0.1104 -0.4550
20426W        W63339   0.812  25.587  22.214  0.2035 -0.5134 -0.3922
20427W        W63340  12.882  30.259   0.120 -0.1242 -0.0011 -0.2077
20428W        W63341   2.227   0.894  29.586 -0.1767  0.1815  0.2071
20429W        W63342   4.951   4.833  25.743  0.0750 -0.0604  0.0841
20430W        W63343   0.325   8.613  17.727 -0.0552 -0.0216 -0.1174
20431W        W63344  12.059  32.864  18.960  0.0435  0.1641  0.0281
20432W        W63345   8.440   1.504  21.976  0.0740  0.1535  0.0792
20433W        W63346   8.940  29.338  21.483  0.0364 -0.0382 -0.0844
20434W        W63347  34.052  33.270  19.942 -0.1788  0.2594  0.1762
20435W        W63348  30.026   3.630  21.553 -0.3445  0.2578  0.0785
20436W        W63349  15.492   2.871   0.728  0.1422  0.0717 -0.0128
20437W        W63350   6.665  23.990  21.653 -0.2227 -0.0258  0.0312
20438W        W63351  34.038  31.478  25.506  0.0055  0.0637  0.1699
20439W        W63352   5.797   4.180  22.453 -0.1892  0.0566  0.1231
20440W        W63353   5.873   2.340  26.979  0.0111 -0.0839 -0.0695
20441W        W63354  29.156   8.725  26.023 -0.0543  0.1257  0.1771
20442W        W63355   1.627   3.831  18.679  0.0456 -0.1793 -0.2610
20443W        W63356   1.562  12.024  19.967 -0.1513 -0.1732  0.1607
20444W        W63357  30.679   7.952  19.056  0.0339  0.0466 -0.0242
20445W        W63358   2.605  29.928  14.943 -0.1029 -0.1759  0.1345
20446W        W63359   3.553  26.170  16.251 -0.0592  0.0040  0.0236
20447W        W63360  31.173   0.123  24.084 -0.1448 -0.1798 -0.1382
20448W        W63361  22.792  28.658  26.269  0.3055 -0.2705 -0.1489
20449W        W63362   7.392  33.723  19.853  0.2807  0.4215  0.1779
20450W        W63363   6.563  27.252  22.621 -0.2946 -0.0026 -0.0838
20451W        W63364  14.434  32.638  21.229  0.0790 -0.0573  0.5122
20452W        W63365   2.345  27.536  24.172  0.1076 -0.0032  0.0864
20453W        W63366   7.547  31.962  24.525  0.2035  0.1536 -0.2478
20454W        W63367  32.948  31.857  27.601 -0.5322 -0.3893  0.1281
20455W        W63368   3.947   0.140  25.143  0.1039 -0.0476 -0.0287
20456W        W63369   6.955   0.384  21.825 -0.1773  0.0294 -0.1920
20457W        W63370   4.351   7.921  27.587 -0.1731 -0.1579 -0.0333
20458W        W63371  25.315   6.699  23.987 -0.1065  0.1536  0.1294
20459W        W63372   6.735  34.016  23.019 -0.2644  0.3296 -0.4271
20460W        W63373  34.119   1.720  18.428  0.0669 -0.0779  0.2296
20461W        W63374  10.771  28.726  17.956 -0.1210 -0.1076 -0.3318
20462W        W63375  30.110   0.793  28.206  0.2331  0.2018  0.0809
20463W        W63376   4.858  29.181  22.920  0.1192  0.4961  0.3349
20464W        W63377   5.171  34.443  22.803 -0.0052 -0.2771 -0.3329
20465W        W63378   3.774  10.871  17.057  0.1153  0.1670 -0.0431
20466W        W63379   2.583  26.062  16.373  0.1723 -0.0759  0.2355
20467W        W63380  18.557  34.035  23.459  0.2162 -0.0180 -0.0821
20468W        W63381  33.816  31.572  26.581  0.3425 -0.1817 -0.0038
20469W        W63382  10.628   1.587  18.807  0.3487  0.0087 -0.0467
20470W        W63383   3.668   5.280  25.477 -0.1214  0.3379 -0.1082
20471W        W63384  10.616   2.021   5.837 -0.1669  0.0855  0.0391
20472W        W63385   5.292   3.970  20.671  0.1896 -0.1583  0.1297
20473W        W63386   2.492   1.310  18.329  0.1254 -0.1476  0.0534
20474W        W63387  23.974   3.923  29.628  0.1553 -0.1596 -0.0754
20475W        W63388  13.545   0.394  15.627  0.2666  0.0453 -0.1456
20476W        W63389   1.527   0.123  21.745  0.0578  0.0406 -0.0534
20477W        W63390   4.855   2.770  28.387 -0.2432 -0.3299 -0.2067
20478W        W63391  10.738  32.890  24.820 -0.0766  0.0284 -0.0747
20479W        W63392   2.451  32.394  18.791  0.0381 -0.0627 -0.0166
20480W        W63393  10.929  29.275  22.816 -0.0841  0.3437  0.1633
20481W        W63394  29.672   2.674  20.150 -0.0100  0.0428  0.0035
20482W        W63395  23.204  25.204  19.303  0.1020  0.2822  0.0169
20483W        W63396  11.654  33.276  22.862  0.0074 -0.1249  0.0156
20484W        W63397  17.099   2.686  21.044  0.2194  0.2226  0.2249
20485W        W63398  33.328  20.495  23.464  0.1523  0.1539 -0.0631
20486W        W63399   7.021  30.138   5.883  0.1382 -0.0246  0.0741
20487W        W63400  11.987  31.140  17.663 -0.0494  0.0931 -0.0482
20488W        W63401  12.162   2.133  28.263 -0.2612 -0.1557 -0.1955
20489W        W63402  16.095   0.928  17.347  0.1167 -0.0783  0.0521
20490W        W63403  19.476   2.995  24.463  0.3847 -0.2077  0.0491
20491W        W63404   1.001  26.425  23.670  0.2978 -0.0088 -0.3273
20492W        W63405   7.073   1.140   6.134  0.0956  0.0578 -0.1853
20493W        W63406  22.328  26.650  22.144  0.1909 -0.0430 -0.0652
20494W        W63407   7.366  24.533  27.936  0.1358 -0.2008 -0.3379
20495W        W63408  33.076   0.848  18.679  0.1306 -0.3356 -0.1505
20496W        W63409   5.795   7.687   1.789  0.0608  0.0114  0.0950
20497W        W63410  13.802  20.846   7.614 -0.3238  0.2164 -0.0035
20498W        W63411   4.976  30.796  26.692  0.0376 -0.1104 -0.3077
20499W        W63412  29.790  29.664  28.666 -0.0541 -0.2880  0.0051
20500W        W63413   5.067   0.201  27.002 -0.0904 -0.3832 -0.1241
20501W        W63414  15.266  15.137  16.659  0.0877 -0.1293  0.0303
20502W        W63415   9.153  32.864   0.759 -0.2751 -0.1927  0.0497
20503W        W63416   5.912   2.864  28.032 -0.5303  0.1991 -0.2296
20504W        W63417   0.296  34.356  28.404 -0.3144 -0.1031 -0.1207
20505W        W63418   4.757   8.067  26.501  0.1601 -0.3699  0.0943
20506W        W63419  34.126  29.080  21.477 -0.0098 -0.2608 -0.0971
20507W        W63420   3.611   5.365  27.796  0.0420 -0.1728  0.1281
20508W        W63421   3.404  30.524  23.553 -0.1445 -0.0238 -0.1028
20509W        W63422   3.723   6.083  25.132 -0.0158  0.0318  0.3678
20510W        W63423  33.575  29.827  16.042  0.0837  0.1064  0.2992
20511W        W63424   4.036  33.780  25.839 -0.3291  0.0927 -0.0765
20512W        W63425  30.901   5.154  28.394 -0.0926  0.0803 -0.0283
20513W        W63426   3.916   2.582  21.232  0.0306 -0.2112 -0.0202
20514W        W63427  33.492   0.150  16.741 -0.2563 -0.2380 -0.1371
20515W        W63428  31.256  32.421  20.186  0.0428  0.2031 -0.0151
20516W        W63429   5.436   8.685  29.185  0.2603  0.3272 -0.0155
20517W        W63430   5.357  33.143  16.832 -0.0043  0.1697 -0.0788
20518W        W63431   1.602   1.966  23.564 -0.0717  0.0417  0.1849
20519W        W63432   4.426  30.850  19.326  0.2063 -0.2879  0.0872
20520W        W63433  11.283   9.077  20.101  0.3561  0.0201 -0.0176
20521W        W63434   4.170   7.046  20.281 -0.2037 -0.0474 -0.1888
20522W        W63435   1.130  25.968  22.107  0.0078  0.0609 -0.2240
20523W        W63436   4.598  33.794  18.099 -0.1103 -0.1224 -0.0006
20524W        W63437   5.186   4.769  25.201  0.1295  0.1492  0.0211
20525W        W63438  13.924   2.479  16.450 -0.0301 -0.2264  0.0637
20526W        W63439   1.166   5.171  28.690  0.4042  0.1188  0.2300
20527W        W63440  15.896  30.133  10.398  0.2409 -0.0780  0.1731
20528W        W63441  12.113  26.705   1.404 -0.2742  0.2097 -0.1793
20529W        W63442   0.442  22.346  20.695  0.1133 -0.2342 -0.3840
20530W        W63443   2.780  31.271  28.281 -0.2098  0.1142  0.0163
20531W        W63444  33.104  31.773  17.182 -0.1192 -0.3574 -0.0579
20532W        W63445   2.561  24.466  23.044  0.3436 -0.0258  0.2838
20533W        W63446   7.753   5.892  21.917 -0.5052 -0.1811  0.2070
20534W        W63447   6.579   8.752   3.546 -0.1299 -0.0700  0.3131
20535W        W63448   4.989   1.099  25.170  0.1886 -0.0910 -0.2160
20536W        W63449   6.282  23.337  19.037  0.1551 -0.4785 -0.1078
20537W        W63450  19.843   1.168   1.278  0.2352  0.0113  0.0872
20538W        W63451  34.176   4.302  24.622 -0.0716 -0.0565  0.1910
20539W        W63452  33.965   3.499  18.090  0.1716 -0.0387  0.0300
20540W        W63453  31.116   6.597  23.635 -0.0550 -0.1285  0.1667
20541W        W63454   7.071   4.904  28.516 -0.2062  0.0437 -0.0685
20542W        W63455  14.955   2.630  27.980  0.3082  0.1356  0.0587
20543W        W63456   6.037   3.406  21.027  0.3431  0.2313 -0.0411
20544W        W63457   4.609   2.674  18.783 -0.1297 -0.0885  0.0370
20545W        W63458  15.231   2.742  19.116  0.0273 -0.1958 -0.4039
20546W        W63459  11.055  30.186  20.157 -0.0559 -0.1472  0.0485
20547W        W63460   6.105  29.046  18.257  0.2272  0.1450 -0.3173
20548W        W63461  33.930  26.093  25.941 -0.0919 -0.1386 -0.2083
20549W        W63462   7.536  20.799  16.962  0.0219 -0.2611 -0.0110
20550W        W63463  30.112  23.287  17.645 -0.0264 -0.0559 -0.2151
20551W        W63464  33.503  28.077  15.385 -0.0467  0.2019  0.2622
20552W        W63465  24.829   3.447  18.646 -0.1302 -0.0083 -0.1676
20553W        W63466   0.718  30.709  20.325 -0.0083  0.0882 -0.4263
20554W        W63467   2.242  28.464  29.742 -0.1012 -0.3726  0.0669
20555W        W63468   9.898  29.820  24.219 -0.0166  0.0552 -0.2035
20556W        W63469   0.957  11.174  19.089  0.0142 -0.3909  0.2383
20557W        W63470  11.929  26.470  16.348  0.0050 -0.1806 -0.2011
20558W        W63471  30.647   0.273  26.079 -0.0542 -0.0279 -0.1046
20559W        W63472   9.482  10.459  29.659  0.1328 -0.1757  0.2592
20560W        W63473   1.718   5.999  23.950 -0.1316  0.0015 -0.0552
20561W        W63474   5.443   2.292   3.758 -0.2450 -0.2750  0.3900
20562W        W63475  31.745   2.860  24.394 -0.0607  0.1952 -0.4143
20563W        W63476   1.644   9.479  19.893  0.2052 -0.1086  0.3534
20564W        W63477   2.775   5.227  24.128 -0.3863  0.2597 -0.1702
20565W        W63478   6.092   0.723  27.307  0.1294 -0.1224 -0.0995
20566W        W63479   5.313   2.886   1.856  0.4776 -0.5420  0.1427
20567W        W63480   4.838   2.164  18.798  0.2977 -0.2811  0.0551
20568W        W63481  30.221   0.294  27.512 -0.0055 -0.2718  0.0399
20569W        W63482   8.288   3.197   7.384 -0.0777  0.1525 -0.3031
20570W        W63483  20.899  26.356  19.160 -0.2061 -0.1049  0.0425
20571W        W63484  25.495  28.890  20.552 -0.0255  0.0913 -0.2014
20572W        W63485   1.371  20.611  23.128 -0.0533  0.0945 -0.1417
20573W        W63486   2.661  12.228  21.737  0.0402 -0.1136  0.0598
20574W        W63487  31.480  27.387  24.525  0.1826  0.1256  0.2050
20575W        W63488   2.485   5.904  19.636 -0.0534 -0.1440  0.0926
20576W        W63489   2.600  29.672  16.383  0.1322  0.3249 -0.0598
20577W        W63490   9.257  17.444  19.678 -0.0584  0.1124 -0.0378
20578W        W63491  29.053  14.742  28.627 -0.0774 -0.0825  0.4274
20579W        W63492  32.184   5.189  26.335  0.3447 -0.3877 -0.0079
20580W        W63493  15.975  29.972  24.904  0.0583 -0.1768  0.0925
20581W        W63494  24.069  31.960  27.721 -0.1133  0.0044  0.1579
20582W        W63495   2.691  30.210  29.073  0.1001  0.0546 -0.3050
20583W        W63496  30.868  30.992  20.319  0.0304 -0.1120  0.0015
20584W        W63497  31.655  25.036  24.235  0.3345 -0.1979  0.0357
20585W        W63498  27.392  33.521   2.480 -0.1738  0.0566 -0.1522
20586W        W63499   0.987   9.734  26.744  0.0730 -0.1179 -0.1487
20587W        W63500   9.083  25.506  22.939  0.0415 -0.0209  0.1149
20588W        W63501   8.913  34.055  25.132  0.2865 -0.1654 -0.2122
20589W        W63502   8.877  15.320  19.874  0.0321  0.1663  0.1318
20590W        W63503  11.527  24.850  19.134 -0.0500 -0.1870  0.1673
20591W        W63504   2.702   9.413   5.643  0.0247 -0.1522  0.3681
20592W        W63505   8.350  29.695  21.753  0.3115  0.0499 -0.0737
20593W        W63506  30.316   2.504  23.179  0.1440  0.0997 -0.2006
20594W        W63507   6.472  33.237  26.599 -0.1077 -0.1442  0.0637
20595W        W63508   2.724   0.819  27.863 -0.3964 -0.3147 -0.0346
20596W        W63509  33.377  24.136  23.957  0.0537 -0.0746  0.0538
20597W        W63510  14.263   1.174  21.852 -0.0684  0.1263 -0.0376
20598W        W63511   4.202   2.384  16.667  0.1702 -0.1035  0.2700
20599W        W63512   5.113   4.020  20.088  0.1561  0.0304  0.1772
20600W        W63513   5.087  32.861  28.325  0.0807 -0.2314 -0.0656
20601W        W63514  13.840   0.877  28.972 -0.0558 -0.0653 -0.0589
20602W        W63515  31.988  30.439   9.210 -0.1021  0.1096  0.1236
20603W        W63516  31.026  12.079  16.095  0.2243  0.0613  0.1307
20604W        W63517  11.089   0.576  20.649 -0.0409  0.1366 -0.1098
20605W        W63518   6.881   5.171  28.087  0.0410  0.2154  0.0927
20606W        W63519   0.196   9.529   3.457 -0.1813 -0.3051  0.2362
20607W        W63520  31.205  34.276  21.667 -0.0405 -0.1423  0.1555
20608W        W63521  26.099   0.805  18.638  0.0954  0.1070 -0.2246
20609W        W63522  33.968  31.983  21.348 -0.0915 -0.0535 -0.0357
20610W        W63523   2.486  19.854   0.659  0.3922 -0.1573  0.2827
20611W        W63524  29.149  25.687  21.447  0.3299  0.1628 -0.0619
20612W        W63525   2.748   6.069  22.496 -0.2761  0.5552  0.2736
20613W        W63526   2.534  25.268  23.434  0.0168  0.2967  0.0456
20614W        W63527  11.392   9.611  19.994 -0.0715 -0.0148 -0.1350
20615W        W63528   0.740  29.618  20.233  0.0959 -0.0441 -0.0686
20616W        W63529   5.653  19.400  17.995  0.2691 -0.0729  0.1247
20617W        W63530  13.203  30.402  23.112 -0.4682  0.0850  0.2654
20618W        W63531  33.698   8.391  25.383  0.2837  0.1743 -0.2772
20619W        W63532   8.185  30.627  15.775 -0.0018 -0.0142  0.0125
20620W        W63533  32.138  27.928  25.305 -0.0522 -0.1642  0.0115
20621W        W63534   0.710   0.660  23.409 -0.1626  0.1130 -0.0096
20622W        W63535   7.377  23.165  19.603  0.0365  0.3504  0.0238
20623W        W63536  13.009  25.433  28.387 -0.2694 -0.0183  0.0965
20624W        W63537   3.609   2.666  25.636 -0.1828  0.0916  0.0199
20625W        W63538   6.353  15.355  21.633  0.3241  0.1511 -0.0789
20626W        W63539   5.551  11.094  24.714 -0.0794 -0.2745  0.0156
20627W        W63540   4.012   4.791  21.646 -0.1299 -0.1570 -0.1023
20628W        W63541  25.113  32.769  23.732  0.2444  0.1340 -0.0891
20629W        W63542   1.890  18.697  25.385  0.0368 -0.0307 -0.0342
20630W        W63543  32.632  34.210  22.426 -0.1264  0.0594  0.0641
20631W        W63544   6.465   3.758  24.665 -0.4901  0.0460 -0.0778
20632W        W63545   5.618  28.505  23.163 -0.1604 -0.1339 -0.1802
20633W        W63546   7.271  12.094  17.260 -0.0884 -0.3221 -0.1995
20634W        W63547   5.233  28.859  23.506  0.1136  0.1061  0.1071
20635W        W63548   7.059   1.544  27.975  0.3124 -0.1229  0.1769
20636W        W63549   0.655  33.561   1.256 -0.0711 -0.3620  0.2085
20637W        W63550   4.652  30.227  25.476  0.3539  0.1686 -0.0020
20638W        W63551   6.047  33.184  20.908  0.2311 -0.3429 -0.0188
20639W        W63552  11.649  20.596  26.684 -0.3393 -0.0344  0.1079
20640W        W63553  13.448  34.240  25.698  0.0455 -0.0615 -0.1667
20641W        W63554   4.625   3.280  22.465 -0.0701  0.2504 -0.2930
20642W        W63555   2.923   0.150  20.928  0.3159 -0.2631 -0.0400
20643W        W63556  13.868  30.514  29.044 -0.0833  0.0418  0.0312
20644W        W63557  10.468  28.066  22.452 -0.1092 -0.1076  0.1409
20645W        W63558  15.831  32.475  18.962 -0.3870 -0.0074 -0.1388
20646W        W63559  13.487  26.425   2.801  0.2137 -0.0814  0.0722
20647W        W63560   8.446   7.209  18.616 -0.3388  0.2840 -0.0058
20648W        W63561  13.979  28.686  20.826  0.0737  0.1407 -0.2499
20649W        W63562   4.719   3.071  28.916  0.2858  0.1881 -0.2659
20650W        W63563  13.626  34.094  18.464 -0.0292 -0.5003 -0.1770
20651W        W63564   7.291   4.501  26.552 -0.2136  0.1381  0.2608
20652W        W63565   8.533  22.337  14.370  0.0831 -0.1730  0.0625
20653W        W63566   6.906  17.303  19.747 -0.1409  0.3761 -0.2520
20654W        W63567   2.153  31.763  19.491  0.3417  0.4451 -0.3026
20655W        W63568   9.361  28.126  24.283  0.0913 -0.1073 -0.3431
20656W        W63569  14.717  32.302  28.293  0.0566  0.3767 -0.0786
20657W        W63570  31.561  31.962  16.469  0.1572 -0.3469 -0.0919
20658W        W63571   3.350  29.395  19.950  0.1659 -0.3302  0.0711
20659W        W63572   8.672   7.295  25.491  0.3406 -0.1959 -0.0425
20660W        W63573   8.458   3.342   0.807 -0.0910  0.4112  0.1447
20661W        W63574  32.105   0.728  20.011  0.1789  0.1184  0.1692
20662W        W63575   1.596   3.822  17.973  0.0043  0.1745  0.2616
20663W        W63576   1.227   0.448  19.435 -0.0910 -0.2995 -0.1125
20664W        W63577  23.391   0.452  22.624  0.4081 -0.0456  0.0499
20665W        W63578  30.356  32.621   0.640 -0.2267 -0.1037  0.2041
20666W        W63579  19.338  33.898  28.277 -0.2321 -0.1654 -0.0739
20667W        W63580  33.331   4.405   5.702  0.1096  0.1829 -0.0105
20668W        W63581   3.650  24.363  22.047  0.2178 -0.0030  0.1662
20669W        W63582  11.031  34.092  25.504 -0.5520 -0.1938  0.1170
20670W        W63583  27.193  33.782  22.803  0.1120 -0.1104 -0.0464
20671W        W63584   2.231  24.271  16.202 -0.2965 -0.0346  0.2386
20672W        W63585  11.105  34.109  24.898  0.1289  0.0655 -0.0437
20673W        W63586  14.602  24.383  19.940  0.2667 -0.1801 -0.0040
20674W        W63587  34.401   0.503  19.825 -0.1628  0.3130  0.1126
20675W        W63588  13.823   1.166  18.623 -0.2674  0.0133 -0.1766
20676W        W63589   5.715  14.151  21.769  0.1202 -0.2812 -0.2108
20677W        W63590  31.208  11.376  21.927  0.0245  0.2032  0.0091
20678W        W63591  30.801   9.232  25.254 -0.0517  0.1384 -0.0768
20679W        W63592   9.111  32.207  26.719  0.1952 -0.2245  0.1133
20680W        W63593   0.241  31.022   0.004  0.0936 -0.2285 -0.2435
20681W        W63594   2.997   3.329  12.025  0.1388 -0.1644  0.0010
20682W        W63595  12.512   2.208  21.401  0.2365  0.0406  0.0085
20683W        W63596  14.316  20.668   1.037  0.1968  0.2560  0.1289
20684W        W63597  16.090  31.630  20.971  0.0856  0.3818 -0.0302
20685W        W63598   2.183  11.997  24.419 -0.2670  0.0060  0.0687
20686W        W63599   2.474  32.336  17.878  0.0651  0.0171  0.0058
20687W        W63600   9.124  25.604  28.855  0.2440  0.1876 -0.2545
20688W        W63601   0.695   2.452   3.189 -0.0396  0.0260 -0.1577
20689W        W63602  17.797   5.402  28.027  0.3577  0.1147 -0.0354
20690W        W63603   2.893  32.927   2.036 -0.1864  0.2957 -0.0867
20691W        W63604   6.063  33.908  28.296  0.4410 -0.0812 -0.2756
20692W        W63605   3.191   6.406  26.291  0.1971 -0.2204 -0.2291
20693W        W63606   4.243  28.408  18.016 -0.0822  0.0683 -0.3210
20694W        W63607   0.151   9.543   2.308 -0.1704 -0.3520 -0.3260
20695W        W63608  15.883  29.272  17.174 -0.3649  0.0968 -0.0522
20696W        W63609  33.514  11.179  22.491 -0.2382 -0.0280 -0.2308
20697W        W63610  29.319   1.395  29.220  0.0613 -0.0487 -0.3872
20698W        W63611  10.254   2.681  25.470 -0.2694 -0.2029  0.0050
20699W        W63612   4.298   5.913  23.930  0.3724 -0.0763 -0.1182
20700W        W63613  32.736  33.535  19.990  0.0241  0.0885 -0.2099
20701W        W63614  10.837   1.327  11.512  0.1114 -0.0446  0.4461
20702W        W63615  15.022   6.049  24.386 -0.2764  0.2414 -0.0321
20703W        W63616   3.460   1.684  25.934  0.3464 -0.0205 -0.1260
20704W        W63617   4.924  30.478  27.994  0.0135  0.0493 -0.2157
20705W        W63618   6.868   5.275  19.291  0.0196  0.1307 -0.0981
20706W        W63619   6.463  34.107  28.151 -0.0653  0.1202  0.0305
20707W        W63620  11.303  33.378  23.690  0.0555  0.1067 -0.0163
20708W        W63621   8.075  26.021  23.463  0.1893  0.3691 -0.0998
20709W        W63622   4.923   2.534  21.403  0.0439 -0.4814  0.2011
20710W        W63623  15.851  33.680  22.818 -0.1722  0.0582  0.0729
20711W        W63624  14.087  23.734  24.688  0.1814  0.0132 -0.0829
20712W        W63625   9.607   6.569  20.613  0.2015  0.1958 -0.1712
20713W        W63626  11.002  31.086  20.179 -0.2629 -0.0723 -0.0876
20714W        W63627  19.060   0.013  22.019 -0.0990 -0.1850  0.2052
20715W        W63628  11.864  16.526  19.897 -0.3363 -0.0755  0.0927
20716W        W63629   2.583  26.811  25.321  0.0804  0.3487 -0.5747
20717W        W63630  11.062   6.536  20.192  0.4853  0.0774  0.0282
20718W        W63631  14.259   4.191  27.028 -0.1117 -0.1534 -0.2638
20719W        W63632   7.176   3.647  17.206 -0.0079 -0.0257  0.4648
20720W        W63633   3.426  31.524  18.336 -0.2344  0.1348 -0.2067
20721W        W63634   5.139   8.349   9.301 -0.0952  0.1038 -0.3679
20722W        W63635   0.425   1.044  17.487 -0.2215  0.1741  0.1022
20723W        W63636  32.100   7.405  20.884 -0.1251  0.0445 -0.3529
20724W        W63637   1.451   8.224  22.628  0.0507 -0.0775  0.0880
20725W        W63638   0.810   6.717   2.719 -0.0189 -0.1575 -0.0973
20726W        W63639   4.454  23.920  28.657  0.1471  0.0990 -0.1027
20727W        W63640   9.414   7.513  24.881  0.1091 -0.2665  0.2090
20728W        W63641  33.807  27.741  29.417 -0.3797 -0.1405  0.1480
20729W        W63642   8.219   5.802  17.249 -0.0682 -0.2276  0.1631
20730W        W63643   2.405  22.274  22.897 -0.1520 -0.1643 -0.1741
20731W        W63644  33.980   5.629  16.626 -0.1312 -0.4083 -0.2041
20732W        W63645   5.159  29.971  21.188  0.2726  0.3225 -0.0726
20733W        W63646   0.212   8.296  24.017 -0.1191 -0.1520  0.0193
20734W        W63647   0.271   4.165  25.789  0.1593  0.0539  0.0004
20735W        W63648   0.797  10.372  20.987 -0.1030  0.1437 -0.1911
20736W        W63649  33.597   0.971   0.941  0.1038 -0.2277  0.0705
20737W        W63650   7.694  26.725  29.035 -0.1503 -0.0348  0.2512
20738W        W63651   9.863   0.800  27.795 -0.1777  0.0616 -0.0457
20739W        W63652  12.476   6.165   5.385 -0.2288  0.1075 -0.2490
20740W        W63653   3.238  33.893   4.437 -0.0886  0.1536  0.2882
20741W        W63654  28.595  30.936  26.204 -0.0130 -0.0553  0.0982
20742W        W63655  16.383   3.508   0.831  0.3709  0.2932  0.1764
20743W        W63656   3.059   5.710  24.533  0.0576 -0.2559  0.2373
20744W        W63657  14.653  30.053  22.019 -0.3083  0.2656  0.0989
20745W        W63658   8.167  25.400  20.790  0.1422 -0.0379 -0.0534
20746W        W63659  13.766  31.834  27.222  0.3912  0.1029 -0.0974
20747W        W63660   5.800   2.012  19.292 -0.1316 -0.3905 -0.0921
20748W        W63661  31.281   6.394  25.429  0.0631  0.1032  0.1016
20749W        W63662   8.593  32.570  18.914  0.3908 -0.0306 -0.1475
20750W        W63663  11.995  28.041  23.302  0.0443  0.2017 -0.3686
20751W        W63664  10.839   2.821  23.225  0.0863 -0.1005 -0.0667
20752W        W63665   6.916  31.705   7.763 -0.0825  0.0268 -0.0155
20753W        W63666   2.949  32.572  17.971 -0.2272 -0.1553 -0.4659
20754W        W63667  14.230  19.014  15.696 -0.0375  0.0111 -0.3000
20755W        W63668  13.753   4.833  18.907  0.2326 -0.1218 -0.1201
20756W        W63669  34.424  32.944  15.134 -0.1037  0.1580  0.1310
20757W        W63670   7.685   8.241  21.052 -0.1132  0.0139 -0.1170
20758W        W63671  31.967  30.143  27.897  0.0907  0.0100 -0.1873
20759W        W63672  12.822  27.254  20.444  0.0136 -0.0474 -0.1964
20760W        W63673  34.430   7.720   3.591 -0.0909  0.2009  0.0295
20761W        W63674   1.132  28.723  21.821 -0.1574  0.2169 -0.2528
20762W        W63675   7.134  30.705  28.093 -0.0788  0.2791 -0.1921
20763W        W63676   3.178   0.448  23.855  0.0353 -0.0572 -0.1551
20764W        W63677   9.466   3.096  26.240 -0.1232 -0.2053 -0.1580
20765W        W63678  11.224   0.805  23.555  0.1110 -0.1874 -0.1818
20766W        W63679   5.493  29.017   1.402 -0.1403 -0.2374  0.0142
20767W        W63680  32.230   6.265  25.499 -0.0158  0.0430 -0.2466
20768W        W63681   0.417  29.918  19.970 -0.0188 -0.1481 -0.1124
20769W        W63682  28.959   8.674  26.619  0.2375 -0.1309  0.2362
20770W        W63683  30.361   0.199  28.849 -0.0296  0.0484  0.0663
20771W        W63684   6.872  28.867   4.009 -0.0699 -0.5063 -0.3044
20772W        W63685  33.242  31.247  14.195  0.1902  0.0115 -0.1752
20773W        W63686  10.855   3.638  29.548  0.0522  0.1546 -0.0517
20774W        W63687   1.605  28.861   1.310  0.0899 -0.0839 -0.1243
20775W        W63688   8.353  31.709  21.345 -0.0338 -0.3513 -0.1352
20776W        W63689  11.427  32.009  21.590 -0.0446 -0.2023 -0.0012
20777W        W63690  29.773  29.619  27.149 -0.2230  0.0676 -0.2030
20778W        W63691   3.295  29.980  27.898 -0.0858 -0.3210 -0.1312
20779W        W63692  33.589   7.696  22.381 -0.0357  0.1144 -0.1648
20780W        W63693  23.761   6.708  28.962 -0.1563  0.1274 -0.0338
20781W        W63694  12.732   3.687   7.051 -0.4690  0.0119 -0.2496
20782W        W63695   6.571   2.035  21.112 -0.0808  0.2105  0.2916
20783W        W63696   1.764   2.229   1.513  0.0744  0.1894 -0.0564
20784W        W63697   4.840  30.342  23.976 -0.0915  0.1205  0.1874
20785W        W63698  33.198  29.474  19.746 -0.1228  0.1965  0.3763
20786W        W63699  19.411  25.403  27.822 -0.2646 -0.0131 -0.0729
20787W        W63700  28.294   7.815  25.388 -0.1479 -0.2964  0.0064
20788W        W63701  31.550  16.921  13.473  0.0245 -0.1839 -0.1348
20789W        W63702  22.484  29.995  22.372  0.2478  0.1219 -0.0554
20790W        W63703  14.917  31.487  25.283  0.1039  0.1518  0.5074
20791W        W63704  14.454   0.285  24.803 -0.0432  0.0666 -0.2333
20792W        W63705   8.075   3.095  18.211  0.2495  0.1721 -0.0016
20793W        W63706  33.436   1.725  27.867  0.1467 -0.0704  0.1872
20794W        W63707   4.791  34.436   6.737 -0.0468  0.3994 -0.0716
20795W        W63708  11.220  25.877  21.972 -0.1341  0.0075 -0.2393
20796W        W63709   4.860  14.355  16.784  0.2458  0.0018  0.0570
20797W        W63710  10.033   9.095  22.749 -0.0549  0.1650  0.1422
20798W        W63711   6.550   1.079  26.311  0.1969  0.2791  0.0259
20799W        W63712   3.687  26.965   2.475  0.0529 -0.0573  0.0798
20800W        W63713  30.014   3.147   1.750 -0.0910  0.1177 -0.0971
20801W        W63714   6.753  24.574  20.610 -0.2367 -0.4930 -0.1329
20802W        W63715  33.948  34.056  24.440 -0.1693  0.0225 -0.1637
20803W        W63716  13.286  17.189  20.641 -0.2565 -0.0552 -0.0255
20804W        W63717  33.556  30.677  24.810 -0.0782  0.0438  0.0571
20805W        W63718   7.939  32.815  23.401 -0.2168 -0.0316  0.2592
20806W        W63719   4.944  26.896  24.615  0.1372  0.6513  0.0519
20807W        W63720  29.254  30.025   2.691  0.1578 -0.2140 -0.2969
20808W        W63721   6.383  32.795   3.797  0.2357  0.2153 -0.0000
20809W        W63722  12.609  28.128   0.588  0.3179 -0.0302  0.1478
20810W        W63723  29.595  32.398  23.920  0.1243  0.1389 -0.0517
20811W        W63724   0.151   7.191  25.022  0.1243  0.2299  0.1562
20812W        W63725   2.577  30.824  26.926 -0.0132  0.0940  0.1424
20813W        W63726  12.233   9.772  27.571  0.3184 -0.2914  0.3493
20814W        W63727  33.237   5.695  26.346 -0.2294 -0.0107  0.0585
20815W        W63728   7.313  34.075  26.233  0.0328  0.0703 -0.2558
20816W        W63729   1.364   3.313  28.372  0.1634 -0.0360  0.3029
20817W        W63730  10.866  33.749   6.082  0.5853 -0.0646  0.1577
20818W        W63731  32.501   0.152  28.774  0.0761  0.1311  0.4816
20819W        W63732  19.280  24.109   0.727 -0.2397 -0.0046 -0.1561
20820W        W63733   3.967   6.571  23.801 -0.4411 -0.0706 -0.3723
20821W        W63734  12.468   0.225  24.102 -0.1399 -0.0043  0.0978
20822W        W63735   7.445   5.893   3.444 -0.1455 -0.2065 -0.3551
20823W        W63736   5.809  34.298  23.649 -0.1428  0.0421  0.0696
20824W        W63737   0.973   4.243  20.718  0.0409 -0.0436  0.0671
20825W        W63738   0.814  34.338  18.195 -0.1795  0.0583 -0.2127
20826W        W63739   9.741   1.785  27.986  0.1529  0.3764  0.3276
20827W        W63740  34.379   4.889  21.957 -0.1648 -0.2000  0.0675
20828W        W63741   1.187  30.085  24.444  0.1452 -0.0236  0.1504
20829W        W63742  32.026  29.494  22.570 -0.3316  0.3945 -0.1660
20830W        W63743  17.051  28.105  24.846  0.1919  0.3213 -0.1106
20831W        W63744  14.680   5.528  25.972 -0.0046 -0.2749  0.3469
20832W        W63745   8.823   4.265  26.173  0.1156 -0.1776  0.3615
20833W        W63746  12.335  28.601  22.412  0.1177  0.1023 -0.1798
20834W        W63747  10.030  29.951  25.585 -0.1232 -0.2993  0.1556
20835W        W63748   0.005  31.733  19.184 -0.1530  0.4189  0.2295
20836W        W63749   4.559   2.825   8.544 -0.2299  0.1803  0.0861
20837W        W63750  11.848   9.872  27.198  0.1948  0.0232 -0.1198
20838W        W63751   7.044   2.508   3.954  0.0533  0.1103 -0.0982
20839W        W63752   3.734   2.051  21.357  0.2848  0.0058  0.1842
20840W        W63753  24.242  30.307  27.954  0.2302  0.4594  0.0732
20841W        W63754  33.626  34.362   2.551  0.1615  0.0976 -0.0162
20842W        W63755   5.034   2.608   5.509  0.1814  0.0716 -0.0783
20843W        W63756  12.408  17.030   6.139 -0.1684 -0.2480  0.1360
20844W        W63757   5.620   5.216  27.953  0.2255 -0.1622  0.0758
20845W        W63758  13.797  33.421   3.260  0.0037 -0.4048  0.1077
20846W        W63759  32.739   8.858  18.282 -0.2526 -0.1544  0.1384
20847W        W63760   5.045  26.395  21.670 -0.2657 -0.1574 -0.0630
20848W        W63761   2.428  12.885  17.084 -0.1151 -0.3697  0.3757
20849W        W63762   1.434   1.588  29.399 -0.2004  0.1510  0.2142
20850W        W63763   8.278  33.876  18.525  0.2366 -0.4079  0.2819
20851W        W63764   3.148   1.141  24.680  0.0160 -0.1917  0.2163
20852W        W63765   8.083   2.016  26.046  0.0912 -0.4209 -0.3721
20853W        W63766   8.841  12.789  16.236 -0.2309 -0.2503  0.3045
20854W        W63767   4.180  29.620  27.029 -0.0446 -0.0093 -0.0553
20855W        W63768   9.693   2.857   3.196  0.0121  0.1909  0.2267
20856W        W63769  25.856  31.738   4.677 -0.1242  0.0331  0.2231
20857W        W63770   1.167  27.087   1.886  0.0083 -0.0984  0.3032
20858W        W63771   8.339   9.610  20.819 -0.0517 -0.0794  0.2569
20859W        W63772   8.651  26.703  16.210  0.2706  0.0576  0.1817
20860W        W63773  10.203  26.118  26.563 -0.1415 -0.1305  0.0600
20861W        W63774  17.170  31.081  29.267  0.0524 -0.2103 -0.0527
20862W        W63775  32.515   1.942  18.320 -0.2470  0.2015  0.0399
20863W        W63776  32.664   9.909  16.381  0.0474 -0.1143 -0.0051
20864W        W63777   6.865  25.629  21.487 -0.0654 -0.2619  0.0554
20865W        W63778   9.153  27.946  15.913  0.0447  0.0147  0.1969
20866W        W63779   3.237   5.242   4.453  0.1164 -0.2074  0.0418
20867W        W63780  16.212  33.778  25.228  0.0227  0.2451 -0.1550
20868W        W63781  10.798  26.667  26.935 -0.0418  0.0900 -0.4725
20869W        W63782   9.264   4.320   1.126 -0.0757 -0.0123  0.0819
20870W        W63783   5.948  28.375  27.356 -0.0798  0.3461 -0.2893
20871W        W63784   4.403   2.762  17.046 -0.3122  0.2156 -0.2260
20872W        W63785   3.582   3.827  27.186 -0.0950  0.1005 -0.2350
20873W        W63786   8.962   4.864  16.957 -0.0694 -0.0161 -0.0315
20874W        W63787  33.167  16.687  27.239 -0.1473 -0.0810  0.2955
20875W        W63788   2.822   5.074  27.797  0.1346  0.0535 -0.0401
20876W        W63789   3.533  29.904  22.296  0.0537  0.3319  0.0030
20877W        W63790   5.354   4.193   1.174  0.2163 -0.1034 -0.0532
20878W        W63791  31.047  21.995  20.056  0.0598  0.1029  0.3261
20879W        W63792   4.159   3.367  22.855  0.4258 -0.1342 -0.1944
20880W        W63793  34.024  33.405  17.628 -0.1400  0.1125 -0.4062
20881W        W63794  33.822  33.799  22.901 -0.0145 -0.1122  0.2266
20882W        W63795   1.513  27.258  18.288  0.2397  0.0244  0.0269
20883W        W63796   6.925  32.084  25.828 -0.1642 -0.0262  0.1492
20884W        W63797  22.549  21.341  18.311  0.1980 -0.1969  0.1824
20885W        W63798   5.536  23.778  23.922  0.0039  0.0731 -0.0569
20886W        W63799   7.856  25.992  26.089 -0.2283  0.0176  0.1086
20887W        W63800   1.371  10.817  22.331  0.1981 -0.1043  0.3052
20888W        W63801  10.797  30.564  19.878  0.0861  0.1129  0.1316
20889W        W63802   6.095  25.626  22.041  0.0167 -0.0073  0.3025
20890W        W63803   3.938  24.375  27.448  0.1026 -0.0911 -0.2962
20891W        W63804   2.503   0.427  25.030  0.2223  0.1041 -0.0684
20892W        W63805   8.139  13.241  28.256 -0.1286 -0.2794 -0.1627
20893W        W63806   7.769  32.935  24.208  0.1762  0.3510 -0.0424
20894W        W63807   1.153  24.193   3.824 -0.0897 -0.1445  0.2933
20895W        W63808  17.301  15.284   7.990  0.0416  0.1130 -0.0468
20896W        W63809  16.924  12.950  27.626 -0.0582 -0.0008 -0.0780
20897W        W63810  12.400   1.953  20.990 -0.1428  0.0976 -0.1905
20898W        W63811   3.410  18.542  16.333  0.2250  0.1575 -0.1123
20899W        W63812   4.426   1.034  28.251 -0.0407  0.0754 -0.1896
20900W        W63813   3.514   7.777   1.664  0.1597 -0.2372 -0.2851
20901W        W63814   6.307   8.086   3.465  0.0922 -0.2229  0.0290
20902W        W63815   1.682  30.584   0.958  0.2985  0.3263 -0.0105
20903W        W63816  16.614  30.418   0.788  0.0777  0.0664 -0.0032
20904W        W63817   1.736   3.226  28.894  0.1807 -0.0221 -0.1799
20905W        W63818   1.116  29.366   3.917 -0.0710 -0.4284 -0.0616
20906W        W63819   6.700   1.447  24.106 -0.0255  0.0203 -0.4018
20907W        W63820   0.158  24.867  16.703  0.3362 -0.0641  0.3099
20908W        W63821  14.061   7.598   1.695  0.0263  0.2237 -0.1106
20909W        W63822  17.575   3.836  21.531 -0.0640  0.3972 -0.0074
20910W        W63823   9.808  22.216  15.078  0.1402 -0.1238  0.1269
20911W        W63824  12.730   2.671  29.637 -0.0282 -0.2183  0.1575
20912W        W63825  10.662   2.139  27.116 -0.1697 -0.0324  0.3193
20913W        W63826  27.559  34.300   2.785 -0.1874 -0.1692  0.0418
20914W        W63827  30.582   6.355   6.957  0.0601  0.1246  0.0562
20915W        W63828   5.412  32.265  17.982  0.1095  0.0653  0.0995
20916W        W63829  10.773  10.557  26.700  0.0211 -0.2626  0.1039
20917W        W63830   6.600   9.812  17.468  0.1337 -0.0560  0.0333
20918W        W63831   8.247  29.891  16.599 -0.0258  0.2338 -0.1256
20919W        W63832  22.711  11.907  27.254  0.1049  0.0658 -0.5030
20920W        W63833   3.682   6.554  26.350 -0.2498  0.0972  0.1147
20921W        W63834   4.555  11.006  23.423  0.0705 -0.4865 -0.1465
20922W        W63835   7.228  33.377   0.762  0.0047  0.0147  0.0213
20923W        W63836  10.472  32.888  18.703  0.0970 -0.0329 -0.1053
20924W        W63837  13.642   3.198   4.191  0.0898 -0.0157 -0.2057
20925W        W63838   2.779  11.812  17.598  0.1126 -0.3544  0.3367
20926W        W63839   8.088  31.526  25.330  0.1709  0.1428 -0.2022
20927W        W63840  31.797  30.955  22.896 -0.1013 -0.0196 -0.0322
20928W        W63841  33.036  27.702  24.099  0.1390 -0.2219 -0.0224
20929W        W63842  21.752   4.557  24.946  0.1091 -0.0351  0.2012
20930W        W63843   7.590   0.356  27.252  0.1922  0.0325  0.2003
20931W        W63844   5.751  29.951  25.599  0.3062  0.1655  0.1667
20932W        W63845   6.555  21.118  29.054 -0.1259 -0.0993 -0.0711
20933W        W63846   1.239  32.043  22.773  0.1907 -0.3185  0.0038
20934W        W63847   2.728  25.005  22.459 -0.0147  0.0541  0.0939
20935W        W63848   6.123  27.758  23.928 -0.2278 -0.0372  0.2598
20936W        W63849  13.762  10.285   7.152 -0.1677 -0.3305 -0.1104
20937W        W63850  33.865   2.711   3.411 -0.0471  0.2844  0.0614
20938W        W63851  12.010  24.148  25.488 -0.1528  0.0063  0.3312
20939W        W63852  11.573  19.211  23.136  0.0270  0.1551  0.1178
20940W        W63853   1.869   7.656  21.255  0.1814 -0.0708 -0.0708
20941W        W63854  32.572   1.969  17.719  0.0100  0.3431 -0.1452
20942W        W63855   8.659  31.787  24.964  0.0210 -0.1293 -0.2099
20943W        W63856   3.251  22.103  29.551 -0.0126 -0.1319  0.3030
20944W        W63857   9.475   8.387   9.483  0.0823 -0.2713 -0.2123
20945W        W63858  14.445   4.491  21.471 -0.0048 -0.1083  0.1488
20946W        W63859  33.735  28.979  23.556 -0.1905 -0.1926 -0.1240
20947W        W63860   7.572   6.893   8.464  0.2811 -0.2984  0.1763
20948W        W63861   3.667  25.641  23.960  0.0317  0.1844 -0.2419
20949W        W63862   8.244   2.609  22.766  0.0260 -0.1496 -0.0487
20950W        W63863   7.511   7.032   5.255  0.0573  0.0274 -0.0988
20951W        W63864  14.324  25.499  27.177  0.1202 -0.1450  0.2996
20952W        W63865   0.533   1.567  28.767  0.0582  0.0406 -0.2151
20953W        W63866   9.226   1.074  10.800  0.1123  0.1584 -0.0149
20954W        W63867   3.002   4.350  22.533  0.4695  0.1724  0.0732
20955W        W63868   7.571  26.850   3.201 -0.3319 -0.1116 -0.1424
20956W        W63869   7.223  11.639  17.578 -0.2653  0.2218  0.0547
20957W        W63870   3.671  31.232  17.988 -0.0678 -0.0513  0.0349
20958W        W63871   2.773  31.534   5.926 -0.2740  0.0122  0.3983
20959W        W63872   7.328  33.513  24.789  0.1044  0.1537  0.0172
20960W        W63873   7.037   0.758   5.094  0.0691 -0.3520 -0.0204
20961W        W63874   3.313   6.845  26.639  0.1880 -0.2051  0.0295
20962W        W63875   4.861  32.333  27.454 -0.0377 -0.1204  0.3492
20963W        W63876   5.593  25.065   0.141  0.0883 -0.0933  0.2839
20964W        W63877   6.176  28.623  23.629  0.2781 -0.0473 -0.0532
20965W        W63878   5.771  29.653  18.945 -0.3314  0.0454 -0.0103
20966W        W63879  10.781  31.099  21.933 -0.0366  0.3176 -0.0457
20967W        W63880  33.708   8.353   2.538  0.1469 -0.0300  0.2717
20968W        W63881  31.584  29.847  24.375 -0.0160  0.1312  0.3278
20969W        W63882  11.908  28.105  20.218  0.1084  0.4598 -0.0786
20970W        W63883   3.569  29.364  20.460  0.2617 -0.0995  0.4023
20971W        W63884   7.342   1.550  18.703  0.0513  0.0886 -0.1577
20972W        W63885   2.466  34.439   0.132 -0.3357 -0.3739  0.0475
20973W        W63886   2.259   5.150  24.493 -0.0100 -0.1228  0.2785
20974W        W63887  14.735  30.626   5.513  0.0731  0.1671 -0.0458
20975W        W63888   5.724   5.205   9.735  0.0561  0.1961  0.0634
20976W        W63889   7.554   7.490  23.623 -0.3611  0.1063  0.0835
20977W        W63890   5.327  32.846  21.655  0.0977  0.2004 -0.2575
20978W        W63891   6.988  30.136  25.473  0.2263  0.0565  0.0780
20979W        W63892   7.219  30.961  29.556 -0.1944 -0.1308  0.0182
20980W        W63893  13.759  28.274  27.099  0.0901  0.2016  0.0880
20981W        W63894  29.129  32.140  19.925 -0.0199 -0.1290  0.1723
20982W        W63895   4.303  27.043  22.170  0.0093 -0.2159  0.0525
20983W        W63896   3.987  13.168  21.827 -0.0003  0.2601 -0.1835
20984W        W63897   5.434   5.444   2.041  0.0329  0.1739 -0.0865
20985W        W63898   4.462   7.987   3.476 -0.0178 -0.0025  0.1338
20986W        W63899  29.886  29.335   7.587  0.1036  0.2747 -0.0566
20987W        W63900  12.257   6.922  24.613 -0.0229  0.3839 -0.0668
20988W        W63901   1.655  29.247  26.471  0.0200 -0.1331  0.3392
20989W        W63902  31.224   1.473  20.739 -0.2107  0.0928  0.3279
20990W        W63903   3.817  22.905  28.688 -0.3071  0.0408 -0.0655
20991W        W63904  11.936  13.534  17.708  0.2607  0.1479  0.1911
20992W        W63905   6.466  30.222  22.976  0.1069 -0.2528  0.1948
20993W        W63906  11.093   5.545  23.719 -0.1201  0.0771  0.1277
20994W        W63907  31.786  33.537  25.055  0.4129  0.0955 -0.1210
20995W        W63908  29.959  16.603   0.267  0.1546  0.2874  0.0666
20996W        W63909   0.253  34.134  16.676  0.0263  0.1342 -0.0549
20997W        W63910   4.693   3.967  20.340 -0.2470  0.0699  0.2142
20998W        W63911  12.766  33.633  20.556  0.0968 -0.4053 -0.2563
20999W        W63912   9.603  32.230  24.964 -0.0487  0.2222  0.1590
21000W        W63913  20.189   5.090   0.570  0.0517 -0.2333 -0.0215
21001W        W63914  13.496  26.591  27.863  0.1065 -0.4378 -0.1387
21002W        W63915   8.003  25.145  18.778 -0.1924 -0.0304  0.1051
21003W        W63916   1.602   3.734  23.794 -0.2558 -0.0568  0.0409
21004W        W63917  14.749   5.361  24.467  0.2649  0.0301 -0.2634
21005W        W63918   1.398   4.637  22.776  0.1538 -0.0216 -0.1004
21006W        W63919  31.655  27.669  10.222 -0.0745  0.1044 -0.0390
21007W        W63920   3.486  28.060  28.799 -0.0368 -0.0118  0.2738
21008W        W63921   3.755  29.121  21.986  0.3044  0.0867  0.0998
21009W        W63922   3.521  33.435  22.620 -0.3424 -0.2584 -0.0305
21010W        W63923   0.961  24.961   6.952  0.3715 -0.1735  0.2573
21011W        W63924  30.437   5.679  29.275  0.2186  0.0471  0.1579
21012W        W63925  25.601   2.313   0.426 -0.1171  0.3078 -0.2811
21013W        W63926  32.949   1.636  27.917 -0.2516  0.1017  0.0509
21014W        W63927  11.606   4.193  20.456  0.0269  0.1667  0.0061
21015W        W63928  14.098  17.265  21.633 -0.1407 -0.0178 -0.1873
21016W        W63929   9.145   0.607  24.229 -0.0026 -0.1674  0.2095
21017W        W63930  29.354   7.074  25.599  0.1616  0.1987  0.0452
21018W        W63931   1.606  33.998  21.909  0.1276 -0.1668  0.0844
21019W        W63932   6.466  31.564   7.772  0.1175 -0.1380 -0.1346
21020W        W63933   7.409   0.908  23.125 -0.0320 -0.0729  0.0275
21021W        W63934  25.608  31.384  23.968 -0.1135  0.1910 -0.0803
21022W        W63935  33.224   3.283  29.482  0.2192 -0.4455 -0.1205
21023W        W63936  10.268  28.119  29.761  0.0515 -0.3079 -0.0612
21024W        W63937   2.695  30.757   3.781 -0.3080  0.4378 -0.0555
21025W        W63938   6.334   3.077   1.209 -0.0321 -0.3002  0.0442
21026W        W63939  13.941  32.197  26.943 -0.0169 -0.0405  0.2139
21027W        W63940  33.980   6.972  16.142  0.4013  0.0940 -0.1926
21028W        W63941  31.624   7.221  20.804  0.0450 -0.0184  0.2093
21029W        W63942   5.199   2.076  23.486 -0.2117  0.0809 -0.1311
21030W        W63943  11.636  29.425  19.072 -0.1190  0.0350  0.0244
21031W        W63944  27.365   3.419  20.958  0.0124 -0.0416 -0.0770
21032W        W63945  28.837   0.192   6.565  0.1267 -0.1593  0.0690
21033W        W63946  33.427  10.665  19.524  0.0400  0.0592  0.1020
21034W        W63947  17.038  32.222  18.205  0.1150  0.2093 -0.0034
21035W        W63948   8.199   6.008  22.173  0.1673  0.3650 -0.0887
21036W        W63949  23.663   1.578  27.535  0.0743  0.1091 -0.2331
21037W        W63950   8.621  13.382  28.205 -0.0905  0.4106  0.0542
21038W        W63951  31.485   2.623  21.211  0.1650  0.1810 -0.1070
21039W        W63952  16.145  29.267  24.196 -0.0578 -0.0701  0.1467
21040W        W63953   3.780   2.643   5.293  0.0514  0.1075 -0.1537
21041W        W63954  13.662  15.400  23.641  0.0652  0.2079 -0.0726
21042W        W63955  30.416   3.000  22.880 -0.1372 -0.0055  0.1603
21043W        W63956  19.408  34.355  14.895 -0.0148  0.0806 -0.0176
21044W        W63957   4.487  30.124   0.695 -0.1989  0.1686  0.0369
21045W        W63958   4.877   8.706  28.546 -0.2616  0.0996 -0.1740
21046W        W63959   9.945   0.490  25.298 -0.1718 -0.1443 -0.0962
21047W        W63960   8.559  33.860  21.966 -0.0074 -0.1437  0.1181
21048W        W63961   2.856   6.791  27.648 -0.2260 -0.2374 -0.0321
21049W        W63962   7.398   6.719   5.855 -0.0700 -0.1826  0.0608
21050W        W63963   5.303  29.462  29.512  0.4406  0.2140  0.0234
21051W        W63964  33.742  14.166  18.184 -0.0926  0.1290  0.1494
21052W        W63965  28.226   1.689   2.475 -0.4112  0.0369 -0.0647
21053W        W63966  25.824  10.586  24.670 -0.4081 -0.1082  0.3683
21054W        W63967   4.628   4.943  17.665  0.0873  0.5224 -0.1774
21055W        W63968   1.749   0.732  25.116  0.2681 -0.0095 -0.2217
21056W        W63969   5.799  28.052  29.671  0.1501 -0.0452  0.0877
21057W        W63970   0.241  31.251  26.614 -0.2053  0.0663  0.0543
21058W        W63971   7.789  32.857  26.998 -0.0022  0.1178  0.0183
21059W        W63972   0.187   3.324  25.939  0.0020  0.0495 -0.0206
21060W        W63973  12.728  30.296  26.201 -0.1855  0.0575 -0.0134
21061W        W63974   6.875  28.671  20.153  0.1036 -0.0446  0.1556
21062W        W63975  34.350   1.659  21.119 -0.2906  0.1989 -0.5265
21063W        W63976  32.673  31.589  24.419  0.1160  0.0720 -0.0215
21064W        W63977   5.268  32.074  27.483 -0.3536  0.2387 -0.0354
21065W        W63978   4.811   6.326  29.701  0.2363 -0.1642 -0.4783
21066W        W63979   0.943   0.515   2.574 -0.4578 -0.2565  0.2414
21067W        W63980  32.941  30.005   0.418  0.3034  0.1964 -0.0258
21068W        W63981   6.648   7.478  29.279 -0.1606  0.2684 -0.0984
21069W        W63982   7.892  31.779  29.513  0.0002  0.1057 -0.1603
21070W        W63983  27.197   6.780  24.156  0.5272  0.1345 -0.0895
21071W        W63984  33.399   7.379   5.669 -0.1430 -0.0228  0.1301
21072W        W63985   0.443  10.448  27.477 -0.3091  0.3959 -0.0635
21073W        W63986  32.038  17.937  28.577  0.0225 -0.1830  0.0783
21074W        W63987   8.979  34.121  22.586  0.2213  0.0676  0.1029
21075W        W63988   3.941  33.963  24.153  0.2580  0.1452 -0.2457
21076W        W63989  10.465   0.605   0.351  0.3167  0.2003  0.0794
21077W        W63990   9.295  31.384  27.303  0.0781  0.1631  0.1587
21078W        W63991  34.287  11.564   1.380 -0.0747 -0.0964  0.2316
21079W        W63992   3.732   4.008  25.943  0.2574 -0.1996  0.0042
21080W        W63993   2.861  33.933   4.095 -0.0425  0.3313  0.2440
21081W        W63994   4.784  11.967  27.644 -0.0930  0.0701 -0.0266
21082W        W63995   9.498   1.003   3.632 -0.0250 -0.2006 -0.0974
21083W        W63996  31.483  26.893  25.127  0.0465 -0.1711  0.1392
21084W        W63997   3.106  28.919   4.686  0.0728 -0.1758 -0.1278
21085W        W63998   7.637  11.243   1.303 -0.4400  0.0272 -0.1536
21086W        W63999  30.735  32.908  28.093  0.2309 -0.2541 -0.1931
21087W        W64000   9.307   9.393   3.487 -0.3007 -0.3745  0.0275
21088W        W64001   6.436  33.984  27.704  0.0120 -0.1087  0.0011
21089W        W64002  12.669  34.002  24.219  0.0161  0.0817 -0.0813
21090W        W64003  11.686   8.755   1.195  0.3511  0.2624  0.1864
21091W        W64004   0.359  33.908   7.729  0.0579 -0.1831  0.0382
21092W        W64005   0.790  34.026  16.561 -0.2536  0.0790 -0.0884
21093W        W64006   5.179  12.903  24.445 -0.0943 -0.2585  0.2152
21094W        W64007  13.918  13.247  23.798  0.0878  0.0961  0.1924
21095W        W64008   0.098  26.801  24.622 -0.1682  0.0396 -0.2008
21096W        W64009  31.332  31.302  28.601  0.0122  0.1293 -0.2145
21097W        W64010  13.390  32.211  29.140  0.0251 -0.0208 -0.2739
21098W        W64011  14.718  14.749  27.055  0.0791  0.1422  0.0124
21099W        W64012   3.405   6.434  21.151 -0.0379 -0.1429  0.2315
21100W        W64013   1.607   5.529  28.814  0.0780  0.3959 -0.1202
21101W        W64014  31.730  34.321   1.376 -0.0804  0.1336  0.1569
21102W        W64015  11.778  32.018  23.939 -0.2325  0.2245 -0.2508
21103W        W64016   5.638  12.509  29.448  0.0953  0.0849  0.0837
21104W        W64017   7.752   1.729   3.258  0.1551 -0.1999  0.0367
21105W        W64018   3.914  33.344   4.552  0.0235  0.2704  0.1832
21106W        W64019  12.099  24.210  23.729 -0.0080  0.0660 -0.2547
21107W        W64020  10.776   2.839  29.090  0.0604  0.3152 -0.1563
21108W        W64021   2.522   8.941  24.170  0.0141  0.1013  0.0291
21109W        W64022   3.423  23.408  20.857  0.1539  0.2233  0.1065
21110W        W64023  12.465  27.916  21.368 -0.3658  0.0544 -0.1278
21111W        W64024   7.538  29.279  21.887  0.0223  0.1398  0.1926
21112W        W64025   6.655  30.201   1.168  0.0234  0.0932 -0.0911
21113W        W64026  13.606   0.410  27.013 -0.0455 -0.1099 -0.1039
21114W        W64027   7.367   3.694  20.276 -0.1950  0.5072  0.2201
21115W        W64028   6.933  14.943   5.303 -0.0293 -0.0431  0.1278
21116W        W64029   8.343  16.191   6.616  0.1108 -0.2110 -0.1115
21117W        W64030   9.345   4.593  27.744 -0.2114 -0.2241 -0.1257
21118W        W64031   9.536   2.186   6.973 -0.0352  0.1115 -0.1079
21119W        W64032  11.084   1.215   4.593 -0.1186 -0.3002 -0.0310
21120W        W64033  32.957  29.243  27.286 -0.0602  0.1610 -0.0671
21121W        W64034  25.816  32.970   1.070 -0.1124 -0.2435  0.1631
21122W        W64035   1.097  27.012  22.978  0.1848 -0.1540  0.0344
21123W        W64036   6.928   2.213  26.661 -0.1153 -0.1262  0.1670
21124W        W64037  14.681   0.858  24.174 -0.4483 -0.1675 -0.0118
21125W        W64038   4.701  26.129  21.368  0.0575  0.2615  0.0894
21126W        W64039   1.079  30.405   7.348  0.1037 -0.0060 -0.0945
21127W        W64040  33.949   6.690  28.007  0.1763  0.4774  0.0211
21128W        W64041   2.494  22.157  27.245 -0.4962 -0.0040  0.0194
21129W        W64042   4.276  33.620   0.950  0.1774 -0.2108 -0.2857
21130W        W64043   3.295  31.448   5.813  0.2922 -0.0402  0.1053
21131W        W64044  15.916  31.803   3.729  0.2593 -0.2065  0.2434
21132W        W64045  32.099  34.008   2.687  0.0654 -0.0302 -0.0585
21133W        W64046  33.798   6.640  11.734  0.3386 -0.1270 -0.0617
21134W        W64047  17.118   2.484   7.908 -0.2406  0.0151 -0.0511
21135W        W64048   7.724   6.660  24.659 -0.1912 -0.2268  0.0979
21136W        W64049  25.800  29.163  22.258  0.1461  0.0085 -0.1131
21137W        W64050   9.735   3.379   3.695 -0.1035  0.1690 -0.0216
21138W        W64051   0.651   1.991   0.649 -0.1871  0.2041 -0.3006
21139W        W64052   8.999  33.745  26.426 -0.0795 -0.3350  0.3365
21140W        W64053  17.089  15.506  28.444  0.2171  0.0598  0.1992
21141W        W64054   5.979  32.155  22.889  0.2425 -0.1565  0.1182
21142W        W64055   1.581  34.112   1.764  0.0661  0.0403 -0.1485
21143W        W64056  33.348  11.059  25.325 -0.3630 -0.0242 -0.0592
21144W        W64057   4.648  11.477   0.541  0.1388 -0.3219  0.2055
21145W        W64058  32.480  30.273   3.242 -0.3684  0.1105  0.2944
21146W        W64059  10.812   2.068  21.921  0.1649  0.1850 -0.0018
21147W        W64060   1.212   0.057  29.558  0.1094  0.1147  0.1074
21148W        W64061   0.948  30.577  20.910 -0.1336 -0.0756 -0.0705
21149W        W64062  31.591   2.589   5.057 -0.1018 -0.1398  0.1577
21150W        W64063   6.577   2.794   3.263  0.0321  0.1172  0.0824
21151W        W64064   8.154   0.620  23.405 -0.0597  0.0922  0.1504
21152W        W64065  17.231  32.977  19.421 -0.0794 -0.1918  0.0715
21153W        W64066  10.507   8.743   4.149 -0.0840  0.0578  0.0985
21154W        W64067   7.400  29.118  26.967 -0.0012  0.3525 -0.0581
21155W        W64068   2.544   4.982  20.424 -0.1033  0.1356  0.1184
21156W        W64069   9.229  24.441  27.843 -0.0401  0.2415 -0.1116
21157W        W64070   9.736  24.619   8.660 -0.2953  0.1706  0.3651
21158W        W64071   3.482  34.021  17.782 -0.0920 -0.0615  0.4136
21159W        W64072   0.330  32.951   2.479 -0.3108  0.3015 -0.3736
21160W        W64073  11.714  31.135  26.293  0.2415  0.2516  0.0014
21161W        W64074   4.754   1.609  25.203  0.1251 -0.0703 -0.1919
21162W        W64075   8.209  33.508  19.274 -0.0258 -0.2104  0.2807
21163W        W64076  10.893  31.480   5.803  0.0029  0.0291 -0.2708
21164W        W64077   4.902  15.753  27.888 -0.0272 -0.0351  0.3135
21165W        W64078   9.212  28.102  25.739 -0.0298  0.0008  0.2265
21166W        W64079   5.981   2.075   1.061 -0.0495 -0.0173  0.0399
21167W        W64080  31.261  33.516   6.118  0.1623 -0.1051 -0.2113
21168W        W64081   1.644   7.776   0.133 -0.0073 -0.1278  0.0985
21169W        W64082   8.348   5.074  23.139 -0.0763  0.1466 -0.3739
21170W        W64083  27.323  11.206  27.569  0.1371 -0.2906 -0.0101
21171W        W64084  10.307   2.217  22.599 -0.1484  0.1078  0.2655
21172W        W64085   0.837  34.152  28.448  0.0279  0.0746 -0.0946
21173W        W64086   6.170   1.881  27.988 -0.3502 -0.2438  0.1282
21174W        W64087   3.964  31.229   4.460 -0.0605 -0.2612  0.0597
21175W        W64088   9.612  29.986  29.136 -0.0958  0.5023 -0.0158
21176W        W64089  19.391   1.762  25.116  0.1689 -0.0141  0.0639
21177W        W64090  29.761  26.057  23.782  0.3567  0.0295 -0.1399
21178W        W64091  33.672  25.556   9.283  0.2620  0.0317  0.1620
21179W        W64092   6.832   5.335   0.298  0.2672  0.1916 -0.1443
21180W        W64093   9.112  33.797  12.740 -0.1488  0.1551 -0.1464
21181W        W64094   6.485  12.168  20.882 -0.2341 -0.0458 -0.2054
21182W        W64095  32.407  14.233  27.786  0.2321 -0.1387 -0.1641
21183W        W64096   5.315   8.462  25.414  0.0064  0.2180  0.3041
21184W        W64097  32.219  32.211  22.129 -0.1791  0.0072 -0.1964
21185W        W64098   9.795   1.050   5.424 -0.1618 -0.1189  0.1238
21186W        W64099  17.869  33.288  21.727  0.1833 -0.0285  0.0314
21187W        W64100  10.215  11.917   3.114  0.0307 -0.1824  0.0172
21188W        W64101   2.616  22.756   3.439 -0.0962 -0.0736 -0.0078
21189W        W64102   9.778   1.318  28.186 -0.2995 -0.0827  0.0709
21190W        W64103   1.053  10.210  26.857 -0.5522  0.2224 -0.2907
21191W        W64104  18.566   5.864  29.011  0.1897  0.0715  0.2228
21192W        W64105   2.638  34.393  19.004 -0.0852 -0.5136  0.1654
21193W        W64106  29.074   1.770   0.318  0.1922 -0.0645 -0.0345
21194W        W64107  11.596   7.223   1.140  0.0371  0.2968 -0.0998
21195W        W64108   8.948  10.407   7.275 -0.5160 -0.0211  0.4489
21196W        W64109   2.676  34.476  26.851 -0.1674  0.0593 -0.0326
21197W        W64110   4.254  32.888  29.567  0.0635 -0.1238 -0.3348
21198W        W64111  13.167   0.341  23.185  0.1308  0.3727 -0.1887
21199W        W64112   4.616  31.147   5.580 -0.2271 -0.1630 -0.0595
21200W        W64113   5.181   6.461   1.996  0.1264  0.4048  0.1166
21201W        W64114   8.373  28.682  22.064 -0.1824 -0.0524 -0.1601
21202W        W64115   7.003   5.284  18.736  0.1333  0.2089  0.1107
21203W        W64116   0.837  34.008   0.461  0.0451  0.1957  0.0448
21204W        W64117  30.310  10.039  25.619  0.1943 -0.2203 -0.1169
21205W        W64118   0.634   1.515   9.258 -0.0398  0.1975 -0.0807
21206W        W64119  15.683   3.411   2.781 -0.0182  0.2704 -0.1670
21207W        W64120  11.755   0.531   0.088 -0.2271 -0.0262 -0.1044
21208W        W64121  13.510  28.944  22.085 -0.3361 -0.2059  0.1326
21209W        W64122  10.449  11.899  23.433  0.1195 -0.0285  0.2430
21210W        W64123   3.624  11.091   0.192  0.1651 -0.0863  0.1602
21211W        W64124  31.390   1.957  20.935  0.2627 -0.1285  0.2946
21212W        W64125   0.443  26.888   3.691 -0.2279 -0.0718  0.2044
21213W        W64126  33.138  34.193  25.421  0.2215  0.2063  0.4054
21214W        W64127   5.790  30.595  23.728 -0.1992  0.0962  0.0713
21215W        W64128   6.581  28.521   5.769  0.2743 -0.1842  0.2138
21216W        W64129  34.378   7.257  25.424  0.2157  0.1331 -0.2342
21217W        W64130  18.024   6.430  20.812  0.0385  0.1210 -0.0318
21218W        W64131  33.569   0.198  28.225  0.1447  0.2358  0.0189
21219W        W64132  27.068   0.877   7.157 -0.1664 -0.1353  0.0512
21220W        W64133   9.089   9.060   6.212  0.0088  0.4502  0.1339
21221W        W64134   6.609   6.438   6.327 -0.2490  0.0700  0.0694
21222W        W64135  14.972   9.821  24.825  0.1299  0.0854  0.1689
21223W        W64136  11.630  27.432  25.974  0.5424  0.1565 -0.1239
21224W        W64137   2.473  18.801  22.796 -0.1607 -0.1268  0.0321
21225W        W64138   8.345  31.421  27.279 -0.1483 -0.2925  0.3944
21226W        W64139   5.813   3.027   4.848 -0.2662  0.2770 -0.1477
21227W        W64140   2.681  29.934  21.989  0.0596 -0.1658 -0.3108
21228W        W64141   3.967  21.953  23.085 -0.1636 -0.0160 -0.0828
21229W        W64142  15.347  11.521  27.795 -0.3122  0.1136 -0.1813
21230W        W64143   2.645   2.737  25.439 -0.3202  0.0292 -0.0496
21231W        W64144  14.156   3.283   0.534  0.2055  0.0640 -0.0219
21232W        W64145   2.535  26.447  23.991 -0.2465  0.2375 -0.1889
21233W        W64146   1.393  28.287   1.239  0.0258 -0.0802 -0.0594
21234W        W64147   9.331  11.393  19.208 -0.0337 -0.0701 -0.0360
21235W        W64148   8.042   4.320   2.554 -0.0789 -0.0308  0.1304
21236W        W64149  12.049  28.368  22.774 -0.1306 -0.0274  0.3731
21237W        W64150  10.603   1.317  25.161 -0.1549  0.1018 -0.2316
21238W        W64151  11.185   7.076  25.273  0.1655  0.4734  0.0369
21239W        W64152  11.383  29.386  28.920  0.2548 -0.3525 -0.0850
21240W        W64153   8.931  24.905  28.725 -0.0888 -0.1460  0.0355
21241W        W64154  27.516  10.953  22.104  0.0179 -0.0770  0.2906
21242W        W64155   6.281  33.726  25.068  0.0108  0.2879  0.2403
21243W        W64156   5.349   8.285  24.534 -0.0113  0.2062  0.1314
21244W        W64157  30.152   1.151  18.866 -0.0591 -0.0023  0.3930
21245W        W64158  15.113   1.676  19.584 -0.1558  0.1746 -0.2915
21246W        W64159  15.473   1.173  26.204 -0.1522 -0.1031  0.4105
21247W        W64160  10.470   5.832  24.325  0.0141  0.0106 -0.0737
21248W        W64161  30.117  26.307   0.672  0.0709 -0.3313  0.1545
21249W        W64162  12.524  25.029  25.452 -0.0190  0.3770 -0.0550
21250W        W64163   2.056   5.809  23.577 -0.0178 -0.1970  0.2187
21251W        W64164   2.078   4.279  19.641 -0.0990 -0.0655 -0.2969
21252W        W64165   1.811  33.301   6.792 -0.0236  0.0168 -0.1318
21253W        W64166   0.321  12.837  17.911  0.2974  0.1357  0.0002
21254W        W64167  33.716  33.507   1.318 -0.1440  0.1912 -0.5051
21255W        W64168  13.248  30.864   9.668  0.3460  0.0747 -0.1211
21256W        W64169  11.989   0.423   4.159  0.1278 -0.0433  0.2048
21257W        W64170   7.057   1.184  28.708 -0.1100  0.1605 -0.3487
21258W        W64171   3.667   2.418  21.680  0.1152  0.1639 -0.3569
21259W        W64172  13.714  32.651   0.225  0.1378  0.1788  0.0858
21260W        W64173  11.423  32.089   7.321  0.2502 -0.0574  0.1172
21261W        W64174   8.939   2.891   4.332  0.1647  0.1688  0.0130
21262W        W64175  33.873   6.293  25.800 -0.1303  0.0325  0.4072
21263W        W64176  11.340  33.347   5.289  0.0085 -0.1788 -0.1816
21264W        W64177   7.545  30.763  29.115  0.2124  0.4090  0.0863
21265W        W64178  10.183  11.873   4.575 -0.0773  0.3490  0.1121
21266W        W64179   0.165   4.103   5.672  0.3335  0.1309  0.0725
21267W        W64180   6.350   0.089  24.525  0.0727  0.1968 -0.0124
21268W        W64181   2.469  14.772  19.035  0.2170 -0.0089  0.1369
21269W        W64182  12.842  29.328  28.053 -0.0889 -0.0032  0.0181
21270W        W64183  11.782  24.954  23.241 -0.2409 -0.1565 -0.1168
21271W        W64184   4.256   4.950   1.240  0.2797 -0.1770  0.1356
21272W        W64185   8.652   3.419   9.208 -0.0325 -0.1255 -0.2691
21273W        W64186   2.343   5.059  27.619  0.2137 -0.1122 -0.0062
21274W        W64187   5.974   1.674   8.667 -0.2119  0.1056  0.2737
21275W        W64188   9.392  11.861   3.266 -0.3406 -0.1045 -0.3319
21276W        W64189  15.734   0.648  26.679 -0.0697 -0.1256 -0.1808
21277W        W64190  16.332   9.415  23.377 -0.1840 -0.1452 -0.4191
21278W        W64191  33.134   0.101  22.981  0.0722 -0.0269 -0.2211
21279W        W64192   5.692   6.700  24.949 -0.2375 -0.6939  0.0798
21280W        W64193  13.880   3.950  26.662  0.0103  0.1647  0.2418
21281W        W64194   6.636  34.023   3.940 -0.0231 -0.0849 -0.1156
21282W        W64195   5.768  29.996   1.602 -0.0988  0.0597 -0.2552
21283W        W64196  10.910   2.146  24.548 -0.1749  0.1949  0.4341
21284W        W64197  26.813   4.940  28.101 -0.1610 -0.1522  0.2364
21285W        W64198   1.944  12.711   3.229 -0.2040  0.1154  0.1425
21286W        W64199  12.717  28.647  27.302  0.3168  0.3010 -0.0216
21287W        W64200   2.239  33.995  22.865 -0.0054 -0.3242  0.3605
21288W        W64201   5.653  27.968  23.065  0.0696  0.0661 -0.0310
21289W        W64202   2.072   1.432  23.122  0.1419  0.2333  0.1187
21290W        W64203   4.835  31.921  29.362 -0.0262  0.2695 -0.0719
21291W        W64204  28.373   1.405  22.206  0.5614  0.0305 -0.0709
21292W        W64205   0.036  13.488   0.237  0.3532 -0.2471 -0.0620
21293W        W64206  24.751  30.144  20.685  0.2276  0.0239 -0.2947
21294W        W64207   7.294  25.227  20.453  0.1764 -0.0343 -0.2379
21295W        W64208  25.354   7.801   3.848  0.1478 -0.3410  0.0424
21296W        W64209   5.758   2.013  20.575  0.1898 -0.3262  0.0184
21297W        W64210  11.175  28.107   0.339 -0.1747 -0.1422  0.1221
21298W        W64211  33.288  30.182   3.491  0.1546  0.1570 -0.0882
21299W        W64212  10.193   6.669   0.299 -0.0447  0.0418 -0.2644
21300W        W64213  34.231  33.197   3.063 -0.0111 -0.0038 -0.1710
21301W        W64214  31.774   7.148  15.867  0.1440 -0.3158 -0.0870
21302W        W64215   8.532   5.830  26.189  0.0156 -0.0017 -0.2051
21303W        W64216  10.938  29.866  21.604 -0.4176  0.1554  0.0505
21304W        W64217   6.223  24.500   9.078 -0.1241  0.3454  0.1997
21305W        W64218  29.140   4.866   1.132  0.3413 -0.3725  0.0488
21306W        W64219   1.628   8.871   3.539 -0.0613 -0.0211 -0.2886
21307W        W64220  33.778   3.885  27.773  0.0765  0.0519  0.1859
21308W        W64221   9.909  10.730   6.048 -0.1555  0.1133  0.2749
21309W        W64222  32.079   0.157   4.503 -0.1171  0.0111  0.2298
21310W        W64223   1.380  10.359   6.064 -0.2445 -0.2257 -0.1917
21311W        W64224   4.933  31.667   3.335 -0.1329  0.0695  0.3803
21312W        W64225  31.956  12.990  25.972 -0.2083 -0.0834  0.1029
21313W        W64226  10.573   1.076   7.289  0.1302  0.0808  0.4915
21314W        W64227  17.705  12.037  27.273  0.0365 -0.0470  0.2573
21315W        W64228   0.016  33.787   3.011 -0.3697 -0.2475 -0.1094
21316W        W64229   6.166   4.381   0.893  0.1415  0.0949  0.1164
21317W        W64230   2.700   2.426   8.484  0.0781 -0.1321 -0.1848
21318W        W64231   6.477   8.625  29.290 -0.4923 -0.3660  0.0621
21319W        W64232  24.739   0.316  26.152 -0.1365  0.1037 -0.1562
21320W        W64233   2.106  29.087   2.388  0.1199 -0.2120 -0.1018
21321W        W64234  29.853   6.763  20.668 -0.0054  0.1190  0.0542
21322W        W64235   1.258   3.132  19.114 -0.2798  0.2355  0.1418
21323W        W64236  15.787  33.848  28.034  0.1359  0.4845  0.0471
21324W        W64237   6.141   0.042  17.846 -0.0053  0.0177 -0.1299
21325W        W64238  26.550   1.020  10.242 -0.2156  0.3325  0.0793
21326W        W64239   4.838  33.591  26.342 -0.0582  0.0654 -0.1234
21327W        W64240  28.315  33.309  23.620  0.3243  0.0239 -0.2169
21328W        W64241  31.077   5.934  15.766  0.0525 -0.0622 -0.3194
21329W        W64242   1.023  31.111   0.813 -0.2869 -0.1721  0.0372
21330W        W64243   6.911  15.950  25.582 -0.5722 -0.3811  0.0935
21331W        W64244   6.692  28.580  23.772 -0.0842 -0.3216  0.2436
21332W        W64245  10.676   3.585  22.827  0.1738 -0.2082  0.1249
21333W        W64246   7.684   9.914  25.987  0.1897 -0.2686 -0.2060
21334W        W64247   5.400   0.197  23.280 -0.2323 -0.1473 -0.0535
21335W        W64248   9.404  27.975  24.787  0.3144 -0.2061  0.0287
21336W        W64249  18.173   5.562  26.998 -0.0277 -0.1557  0.1678
21337W        W64250  13.320  10.067  22.615  0.0837 -0.0996  0.0496
21338W        W64251   1.271   3.306   8.087  0.3091 -0.0561  0.0349
21339W        W64252   2.482   6.460  21.556  0.1211  0.1567  0.1373
21340W        W64253   3.653  23.854   3.898  0.0270  0.0657 -0.2434
21341W        W64254   5.661   1.318   6.637  0.2485  0.0705 -0.2180
21342W        W64255   5.400   0.663   7.952 -0.1245 -0.0044 -0.0139
21343W        W64256   0.130  34.063  18.509  0.0287  0.2275  0.3240
21344W        W64257   6.855   1.901   4.317 -0.2767 -0.2784 -0.0723
21345W        W64258  15.651  28.952   1.814 -0.0566 -0.2456  0.2519
21346W        W64259   6.140  29.842  17.389 -0.3377  0.0452  0.2415
21347W        W64260   5.991   6.445   0.012  0.5651 -0.1094  0.1409
21348W        W64261  32.734  30.458   0.116 -0.0605  0.2776 -0.0343
21349W        W64262  12.240   8.684   0.953 -0.1577  0.2549 -0.0310
21350W        W64263   6.773   7.585   9.758  0.2839 -0.2925  0.2743
21351W        W64264  32.055   3.948   1.749  0.2085  0.0268 -0.0354
21352W        W64265   6.917  11.333  21.164 -0.1913  0.1008 -0.0316
21353W        W64266  14.415  27.143  15.155 -0.2394  0.2957  0.0164
21354W        W64267  13.999  33.407   6.089  0.2111 -0.0713 -0.3368
21355W        W64268   6.811   4.674   1.702  0.2029 -0.2424  0.3425
21356W        W64269   3.141  23.007   5.895  0.1258 -0.0329 -0.1284
21357W        W64270  12.322  32.749   2.703  0.2449  0.0550 -0.3235
21358W        W64271   3.471  28.800  26.522  0.1156  0.0916 -0.0542
21359W        W64272  25.323   5.593  25.913  0.2469 -0.1888  0.1044
21360W        W64273   7.763  32.631  28.215  0.0716 -0.1213 -0.0470
21361W        W64274  27.458  27.619  19.714 -0.2903 -0.2799 -0.3666
21362W        W64275  10.552   3.195   5.827  0.1641  0.0699  0.1583
21363W        W64276  20.140  32.606   6.940  0.1900 -0.0963 -0.0433
21364W        W64277   2.742  27.964  25.434 -0.0943  0.0369  0.0883
21365W        W64278  15.521  25.772  19.496  0.2415 -0.0410  0.0227
21366W        W64279   6.201   3.108   3.499 -0.1355 -0.1299 -0.0416
21367W        W64280   9.080   1.588   4.149  0.2083 -0.0479  0.1186
21368W        W64281  31.331  11.509  18.380 -0.1065  0.0877  0.2781
21369W        W64282   8.000   4.717  28.285 -0.0995  0.0354  0.2338
21370W        W64283   1.366  31.098  19.827 -0.1666 -0.0280  0.1499
21371W        W64284  11.553  34.261  25.245  0.0703  0.2907  0.0466
21372W        W64285   2.942   5.743  24.005  0.0229  0.1134 -0.0823
21373W        W64286  34.283   2.229  23.602  0.0142  0.2234  0.0036
21374W        W64287   5.925  24.656  17.135  0.1965 -0.0715  0.1500
21375W        W64288  11.796   5.724   1.517 -0.1743 -0.1767 -0.0581
21376W        W64289   5.597   9.104  22.463  0.1073  0.2760 -0.0507
21377W        W64290  12.155  12.587   3.871 -0.1368 -0.1821 -0.2618
21378W        W64291   1.865  19.148   6.258  0.1827  0.1876 -0.2662
21379W        W64292   5.775  29.984  15.688 -0.1112  0.1587  0.0100
21380W        W64293   1.218  30.622   2.125 -0.1367 -0.2841  0.5522
21381W        W64294  13.144  25.704  19.826  0.0625 -0.1188 -0.1727
21382W        W64295  12.826   8.302  20.260  0.4703 -0.2979 -0.2928
21383W        W64296   2.707   3.905   5.377  0.0511  0.1196  0.0304
21384W        W64297   3.106   2.134  27.199 -0.2501 -0.2272 -0.0153
21385W        W64298  17.215   8.229   6.721  0.0120  0.0655  0.1077
21386W        W64299   4.552  13.154   6.385 -0.0097  0.1240 -0.0592
21387W        W64300   3.734  32.086  24.137 -0.1211 -0.1151  0.0278
21388W        W64301   9.764  24.644   9.220  0.1942 -0.0411 -0.0679
21389W        W64302   1.727  13.910  22.851  0.0236 -0.4772 -0.1930
21390W        W64303   6.760   0.575  25.616 -0.1863 -0.2687 -0.3330
21391W        W64304   8.093   2.440   2.687  0.2617  0.1023  0.0723
21392W        W64305   4.688   6.977  29.112 -0.0995 -0.3633 -0.1639
21393W        W64306  13.195  29.887  23.280 -0.0164  0.0580 -0.2548
21394W        W64307   9.064  33.993   3.201 -0.1453 -0.1763 -0.0114
21395W        W64308   2.271  30.174  29.314  0.3458  0.0753 -0.0963
21396W        W64309  34.448  26.594  28.990  0.0730  0.0501  0.3023
21397W        W64310   8.063   0.384  25.845  0.2216  0.1300 -0.1803
21398W        W64311  31.568   7.462  29.019 -0.1561  0.1310 -0.1154
21399W        W64312  33.825   0.314   2.406  0.1449  0.0214 -0.0031
21400W        W64313   8.644  10.316  20.937  0.1277  0.1242  0.0361
21401W        W64314  14.189   7.780   3.458  0.1595  0.0940 -0.0634
21402W        W64315   3.657  34.011   6.850  0.0979  0.2201  0.2310
21403W        W64316   7.077   7.687  24.428 -0.2149 -0.2795  0.2694
21404W        W64317   5.482   0.202  29.505 -0.1366  0.0166  0.0199
21405W        W64318  12.626   2.900  27.458  0.0582 -0.1515  0.2802
21406W        W64319   8.589  30.637   0.318  0.1225 -0.0150 -0.5631
21407W        W64320  30.002   3.205  27.317  0.1233 -0.1629  0.2039
21408W        W64321  14.481  30.658  21.707 -0.4986  0.0549  0.1673
21409W        W64322  11.947   9.951  25.210 -0.1109  0.3119  0.1713
21410W        W64323   4.244   3.355  12.793 -0.0474  0.2860  0.1759
21411W        W64324  33.557  34.087  20.172  0.0624 -0.2351 -0.1709
21412W        W64325   7.009  12.542  28.065 -0.1871 -0.2245 -0.1603
21413W        W64326  34.424  32.433   3.063  0.2765  0.3081 -0.1165
21414W        W64327   6.390  25.194  26.987 -0.0008 -0.2716 -0.0408
21415W        W64328   9.090   5.032   1.988 -0.0622  0.3129  0.2070
21416W        W64329   0.946  33.710  28.296  0.0948 -0.0643  0.0318
21417W        W64330  10.889  25.737  22.487  0.0187 -0.0209  0.1389
21418W        W64331   9.933   3.612  25.707 -0.1990 -0.3158  0.1389
21419W        W64332  29.098  17.586   1.526 -0.0855 -0.0018  0.1810
21420W        W64333   7.740   4.957   1.209  0.1201 -0.0714 -0.0305
21421W        W64334  34.333  32.494   2.020 -0.3397 -0.0786  0.0380
21422W        W64335   2.839   5.386   4.704 -0.0981  0.1232  0.2819
21423W        W64336   9.134  33.302  27.667 -0.2158 -0.3583  0.1781
21424W        W64337   5.828   7.427  25.372  0.1977 -0.0155 -0.2778
21425W        W64338  13.767  30.838   9.761 -0.1251  0.0342 -0.2671
21426W        W64339   8.502   6.192   2.121  0.3079  0.1342 -0.2478
21427W        W64340   6.006   2.552   0.313 -0.3194  0.4012 -0.1992
21428W        W64341   3.644  11.182  16.686 -0.0600  0.0840  0.3154
21429W        W64342  31.183   3.877  23.016 -0.1274  0.2040 -0.0939
21430W        W64343  33.854   4.047  23.642  0.0268  0.0724 -0.3929
21431W        W64344  11.228  32.836  12.086 -0.2421  0.1017  0.4654
21432W        W64345  12.305   6.931   3.486 -0.0839 -0.1139 -0.1663
21433W        W64346   5.953  32.624  27.201  0.0653 -0.0931  0.1792
21434W        W64347  11.751  23.295  10.044 -0.4706  0.0969  0.1311
21435W        W64348   7.016   2.292   6.477  0.4260  0.3622  0.0963
21436W        W64349   1.786   9.226   1.637 -0.1571  0.2411 -0.0677
21437W        W64350  31.266  29.197  22.073  0.1917  0.3178 -0.0681
21438W        W64351  33.829   2.572  20.937 -0.3475  0.3287 -0.0449
21439W        W64352   6.648   5.680  29.634  0.3308  0.1229 -0.5430
21440W        W64353   7.986   1.316   2.337  0.3127  0.1896 -0.0618
21441W        W64354   7.437  30.115  26.402 -0.4258 -0.1836  0.0073
21442W        W64355   8.181   8.743  24.483 -0.0978  0.0721 -0.1752
21443W        W64356   3.720  27.255  24.534  0.1768 -0.0511  0.6285
21444W        W64357  29.000   6.255  23.521 -0.0755 -0.0452  0.0139
21445W        W64358  14.474   6.846  21.596  0.3345 -0.1742  0.1534
21446W        W64359   6.032   6.312  26.126  0.1077  0.2083  0.2740
21447W        W64360   4.469  32.710   1.961 -0.0691  0.0460  0.0605
21448W        W64361  13.365   4.561   6.640  0.0479 -0.0445  0.2606
21449W        W64362   1.152   5.070  27.129 -0.4629 -0.2076 -0.0367
21450W        W64363  11.736   4.991  27.699  0.1396 -0.2364  0.0041
21451W        W64364   8.751   5.174   2.321  0.1304  0.1197 -0.1682
21452W        W64365   1.435  32.025   5.436 -0.0586  0.1052  0.0719
21453W        W64366   4.970   6.817  26.768 -0.0256 -0.0641 -0.0215
21454W        W64367   2.920  10.795   1.146  0.1631 -0.0638 -0.1908
21455W        W64368   0.201  29.186   0.362 -0.0431  0.0090 -0.1306
21456W        W64369  12.531   3.422  26.011  0.0843  0.1393 -0.1768
21457W        W64370   7.250  29.468  20.062  0.0413  0.0620 -0.2618
21458W        W64371  10.608   1.400  23.122  0.0260  0.0281  0.0770
21459W        W64372  33.712  13.822  18.981 -0.0903  0.1539  0.3939
21460W        W64373  11.290   2.908  22.775 -0.1078  0.3752 -0.0625
21461W        W64374   5.313  33.945  25.805  0.1366  0.0208 -0.3152
21462W        W64375  10.039  32.312  24.778  0.0097 -0.1358 -0.0695
21463W        W64376  13.138  27.984   0.028  0.1742  0.2499 -0.1076
21464W        W64377   4.041  18.345  23.813 -0.2814 -0.0689 -0.1994
21465W        W64378   3.896  30.011  21.022  0.0419  0.2593 -0.0219
21466W        W64379   4.578   2.641   9.489 -0.0735 -0.0900  0.0146
21467W        W64380   3.337  32.854  27.850 -0.0040 -0.0367 -0.0564
21468W        W64381   1.825   2.240  28.805  0.0435 -0.1708 -0.0725
21469W        W64382  17.072  11.629   0.017  0.0710  0.4125 -0.0619
21470W        W64383  27.677  31.501   2.788  0.4796  0.3002 -0.0365
21471W        W64384   1.597   7.875  18.240  0.3686  0.1963  0.0072
21472W        W64385   3.698  30.291  19.548 -0.0429  0.0467  0.0311
21473W        W64386  11.570   2.066   3.297  0.1752 -0.0786 -0.0186
21474W        W64387  32.826   2.168  28.618  0.0319 -0.4111 -0.0003
21475W        W64388   7.255   7.121   3.964 -0.4284  0.2998 -0.1508
21476W        W64389  32.244   0.734  28.101  0.0877 -0.1485  0.2931
21477W        W64390   0.639   5.377  24.494 -0.2859 -0.1262 -0.0955
21478W        W64391   4.464  32.880  21.352 -0.0940  0.1910  0.0082
21479W        W64392  27.880  11.234  27.657 -0.1002  0.1635  0.0638
21480W        W64393   8.665   0.598  29.330  0.1937  0.1807  0.3098
21481W        W64394   2.392   5.634  16.563 -0.1979  0.0359 -0.0126
21482W        W64395  31.006   5.843   8.808  0.2000 -0.2524 -0.2683
21483W        W64396   1.816  10.783  28.423 -0.2526  0.1452 -0.1870
21484W        W64397   7.953   9.590   6.913 -0.1810  0.0600  0.1155
21485W        W64398  13.567  33.604   3.692  0.1488  0.1070 -0.0887
21486W        W64399  12.061   5.822   2.870 -0.0466  0.1027 -0.1401
21487W        W64400   5.055   9.040  26.942  0.1600 -0.1868  0.0030
21488W        W64401   9.295  28.277  26.506 -0.0279  0.0421 -0.1246
21489W        W64402   5.346   1.634  26.791 -0.2680 -0.1884 -0.1305
21490W        W64403   5.362   6.224  12.146 -0.0140 -0.0459 -0.2401
21491W        W64404  10.359   2.419   4.319  0.0150  0.0946 -0.1330
21492W        W64405   3.295   4.875  27.782  0.3665 -0.3998  0.1829
21493W        W64406   4.423   6.830  24.198  0.0169  0.1639 -0.2186
21494W        W64407   7.513   6.231  13.089  0.0132 -0.0182  0.1114
21495W        W64408  26.241  29.734  29.571 -0.0284  0.2722 -0.3163
21496W        W64409   0.106   8.778  24.666 -0.1770 -0.1095 -0.0038
21497W        W64410   1.956  11.570   7.804  0.1613  0.3107  0.0552
21498W        W64411  12.543  11.419  24.480  0.1964  0.0266 -0.1253
21499W        W64412   3.650   2.048  29.026 -0.1159  0.1797 -0.2518
21500W        W64413  30.312   5.454   5.943  0.1124 -0.0820  0.2007
21501W        W64414   5.253  27.863  28.018  0.2370  0.0777  0.0922
21502W        W64415   1.745  28.397   4.710 -0.4378 -0.4087  0.0357
21503W        W64416  31.647  31.296   6.611 -0.1205  0.0704  0.2824
21504W        W64417  10.978   2.269  11.322 -0.0574  0.0517 -0.0045
21505W        W64418   9.580  28.355   2.838  0.0762  0.0694  0.0300
21506W        W64419  30.543   6.511  17.977  0.1836  0.3575  0.0405
21507W        W64420   3.202   3.411  27.021  0.2315  0.2001 -0.1999
21508W        W64421   4.011  23.838   2.513  0.0472  0.2398  0.0827
21509W        W64422  10.414   9.957   1.386  0.0269 -0.0361 -0.0050
21510W        W64423   9.944  34.262  26.866  0.3572 -0.2173  0.0016
21511W        W64424   0.644   9.710   7.682  0.0014  0.0080  0.0177
21512W        W64425  10.448  20.658   6.172  0.2407  0.2323  0.0815
21513W        W64426   0.530  31.406   8.530  0.0043  0.0398 -0.3903
21514W        W64427   2.628   1.630   9.106 -0.0611  0.0206  0.1865
21515W        W64428   5.105   2.333   1.266  0.0522  0.0525  0.3662
21516W        W64429  10.264  33.082  22.417 -0.0037 -0.1466  0.0907
21517W        W64430  27.338   1.188   2.051  0.0627  0.0744 -0.0171
21518W        W64431   8.179   6.182   2.742 -0.0839 -0.2933 -0.0949
21519W        W64432   3.625  26.447  10.027  0.2724  0.4080  0.1606
21520W        W64433   7.857   2.540   3.287  0.1688 -0.1680  0.1199
21521W        W64434   8.273   1.463  28.601  0.0622 -0.0599  0.0059
21522W        W64435  14.041   0.671   4.076 -0.2460 -0.0241 -0.0850
21523W        W64436   3.075  32.396  29.713 -0.0646 -0.2167  0.1198
21524W        W64437  11.427  30.546  27.076  0.1986 -0.0334 -0.0792
21525W        W64438  32.249   1.236  19.384 -0.1733  0.0847  0.1503
21526W        W64439  16.787  29.256   5.452 -0.0621 -0.0221 -0.0441
21527W        W64440  33.476  32.096   9.301  0.2166 -0.1978 -0.2898
21528W        W64441  24.076   1.172  26.316  0.1236  0.2013  0.2089
21529W        W64442   5.476   6.022  19.980  0.0850 -0.0974 -0.2675
21530W        W64443   8.076   2.107  17.836  0.0835 -0.0736 -0.1541
21531W        W64444   9.609  32.073  19.907  0.1182 -0.0026 -0.2267
21532W        W64445   7.641  11.807  21.590 -0.0006  0.0329 -0.0855
21533W        W64446   9.370   6.219  17.214  0.2483  0.2148  0.1037
21534W        W64447   3.250   8.914  21.483 -0.0202  0.0067  0.1444
21535W        W64448  10.743   3.458  17.842  0.1134 -0.1921  0.1008
21536W        W64449   9.470   3.881  25.389 -0.0279  0.0549 -0.1103
21537W        W64450   5.095   2.816  21.824 -0.1104 -0.0759 -0.3920
21538W        W64451  11.771   8.092  24.273  0.2586  0.3196 -0.3893
21539W        W64452   1.411  14.927  18.625  0.2683 -0.0012  0.1858
21540W        W64453   8.825   4.943  18.762 -0.0454 -0.0955  0.1834
21541W        W64454  33.459   5.791  21.838  0.0214 -0.1475  0.2768
21542W        W64455   6.057  10.557  19.058 -0.0047 -0.0394  0.2089
21543W        W64456   9.886  33.007  16.198 -0.1098  0.0004  0.1453
21544W        W64457  30.213   5.916  22.703  0.3221  0.0804 -0.3295
21545W        W64458  32.574   0.689  29.027 -0.4506 -0.1514  0.1861
21546W        W64459   7.864   4.271  27.753  0.1221  0.0043  0.2266
21547W        W64460  11.594  14.254  22.377  0.0330  0.0485  0.0386
21548W        W64461   8.862   9.713  23.538  0.0076 -0.0913  0.3717
21549W        W64462   9.123  14.849  22.084 -0.0215  0.2114 -0.1178
21550W        W64463   2.005   1.346  16.626  0.1872  0.1271 -0.1844
21551W        W64464  30.745   8.297  24.340  0.0037  0.0532 -0.0719
21552W        W64465   0.463  16.584   0.224  0.2457  0.1694  0.2864
21553W        W64466  10.790  31.961  20.146 -0.1230  0.2278 -0.2553
21554W        W64467   7.067   2.056  21.218  0.1012 -0.0271  0.0794
21555W        W64468  13.430  12.916  13.144  0.0469 -0.0580  0.0830
21556W        W64469  17.611   7.129  21.275 -0.0565  0.0866  0.0968
21557W        W64470  18.962  33.448  20.777  0.4270 -0.1172  0.0200
21558W        W64471  13.588   6.656  18.420 -0.0549  0.1303  0.2595
21559W        W64472  28.410  14.176  18.489 -0.1886  0.1265 -0.1426
21560W        W64473  25.549  17.088  16.181 -0.0607 -0.0325 -0.0553
21561W        W64474  13.270  32.796  20.360  0.0094 -0.0295 -0.1926
21562W        W64475   7.921   5.951  21.010 -0.1816  0.0501 -0.0091
21563W        W64476  10.780   3.827  19.497 -0.0289  0.0282  0.0788
21564W        W64477  33.508  30.178  18.675  0.1442 -0.0275  0.0658
21565W        W64478   0.008  34.277  26.153 -0.2715  0.1024  0.1446
21566W        W64479   1.445   1.250  17.447 -0.1768  0.3686  0.2296
21567W        W64480  14.486  33.402  18.680  0.0943  0.0376  0.2268
21568W        W64481  33.743   5.270  21.657  0.2301  0.0267 -0.0566
21569W        W64482  14.650  34.352  24.497  0.2845 -0.0878 -0.0476
21570W        W64483   5.409   0.176  25.506 -0.1006 -0.2980  0.2829
21571W        W64484   0.059   5.021  17.895  0.3524 -0.0287  0.0190
21572W        W64485  32.247  21.922  14.689  0.1968 -0.0794  0.1858
21573W        W64486   5.952   8.523  22.750 -0.1664  0.1186  0.3517
21574W        W64487  10.013   5.871  21.230  0.0760 -0.0313  0.3626
21575W        W64488  32.960   4.595  25.688 -0.0920  0.1713  0.0236
21576W        W64489  30.655  34.051  17.568 -0.3138 -0.0744 -0.3216
21577W        W64490   0.830   0.403  29.683  0.0572  0.4748  0.0197
21578W        W64491  33.005   6.369  29.639 -0.0612 -0.3702  0.1995
21579W        W64492  16.153   0.919  24.387  0.1823 -0.0776  0.1432
21580W        W64493   6.748  15.498  19.740 -0.2476 -0.0985  0.4920
21581W        W64494  10.527  33.314  25.772  0.2058  0.2696 -0.1591
21582W        W64495   6.713   4.817  19.911  0.0763 -0.0762 -0.2213
21583W        W64496   4.543   6.564  21.010 -0.4950  0.0207  0.0648
21584W        W64497   8.700   1.635  23.106 -0.0451 -0.0555  0.0447
21585W        W64498  12.347   3.933  20.065 -0.0989  0.1433  0.3418
21586W        W64499  15.147   2.824  19.685  0.1243  0.0071 -0.0088
21587W        W64500   7.797  31.733  18.609  0.2499 -0.1069  0.1576
21588W        W64501   6.427   9.191  22.174  0.0957  0.2009  0.0178
21589W        W64502   5.769   5.684  17.905 -0.0768 -0.2988 -0.0585
21590W        W64503   4.738   5.784  16.874 -0.1853 -0.2037  0.0057
21591W        W64504   2.503   8.745  29.231 -0.1112 -0.0539 -0.2968
21592W        W64505  19.099   2.697  15.693  0.0541 -0.1723  0.0104
21593W        W64506  28.091  16.138   1.787  0.1095 -0.3307 -0.0634
21594W        W64507  10.016  10.655  23.921 -0.0970  0.0752  0.2058
21595W        W64508  34.125  14.617  16.844  0.2764  0.4310 -0.0653
21596W        W64509   5.921   8.083  20.805 -0.1191 -0.6023 -0.2305
21597W        W64510  11.489   6.275   0.703  0.1732  0.0407 -0.1945
21598W        W64511   6.543  34.494   2.702  0.0312  0.0965  0.1703
21599W        W64512   5.423   1.044  26.694 -0.1919  0.3656  0.0688
21600W        W64513   5.968  33.283  21.855  0.0217  0.3318  0.3799
21601W        W64514   3.192   0.615  27.802  0.0955  0.0243 -0.1407
21602W        W64515  28.034   2.465  18.790 -0.0173 -0.0641 -0.5360
21603W        W64516   2.181   2.888  20.597 -0.0890 -0.1886 -0.0944
21604W        W64517   5.731  27.703  16.893  0.0801  0.0172  0.0342
21605W        W64518  29.584   7.111   3.236 -0.2812  0.3366  0.1602
21606W        W64519  10.016   6.415  19.110 -0.0413  0.0758 -0.1438
21607W        W64520   7.365  17.070  19.901  0.2148 -0.2706  0.0608
21608W        W64521   6.656   9.888   4.021 -0.1072  0.0798  0.0579
21609W        W64522  31.577  23.766  15.644 -0.0904  0.2292  0.0690
21610W        W64523  33.424  13.353  20.013  0.3100 -0.0883  0.0651
21611W        W64524   8.148   3.474  24.305  0.3186  0.0668  0.0793
21612W        W64525   1.579   5.029  18.713  0.0512 -0.1364  0.0596
21613W        W64526   4.867  16.215  29.492 -0.1136 -0.3136  0.0618
21614W        W64527   1.932  13.426  16.467  0.0914  0.2288  0.3451
21615W        W64528   8.604   6.993  21.620  0.2335 -0.1634  0.1501
21616W        W64529  25.359  33.780  15.899  0.1613 -0.0640 -0.0336
21617W        W64530   4.935   8.146  27.960 -0.2689 -0.1556 -0.0661
21618W        W64531   2.032   3.196  17.890 -0.3675  0.1197  0.3617
21619W        W64532  16.779  28.933  15.669 -0.0288  0.3718 -0.0166
21620W        W64533   8.215  15.921  28.471  0.0817  0.1101 -0.0611
21621W        W64534   6.798  17.498  21.945 -0.1387 -0.0299 -0.0104
21622W        W64535   0.310  10.021  29.128 -0.2251  0.2896  0.0415
21623W        W64536   8.706   3.808  21.440  0.1361  0.1164  0.4146
21624W        W64537   7.849  11.902  15.859  0.0445 -0.0740 -0.0880
21625W        W64538  12.334  34.000  18.271  0.2843 -0.0372 -0.2123
21626W        W64539   3.042  33.996  22.238 -0.0127 -0.2641 -0.1132
21627W        W64540  11.373   6.361  21.616 -0.0402  0.0730 -0.1176
21628W        W64541  30.210   3.241  26.216 -0.1803 -0.3898 -0.0263
21629W        W64542  11.802   3.994  18.634 -0.1730  0.1926  0.1258
21630W        W64543  10.227   8.536  20.436  0.0544  0.1746  0.1520
21631W        W64544   9.405  12.169  14.804  0.1730  0.0518 -0.0195
21632W        W64545   9.134  16.345  27.259  0.0474 -0.0604 -0.0836
21633W        W64546   3.733   9.416  25.761 -0.2125  0.0651 -0.2726
21634W        W64547  16.742   4.010  14.447  0.1288  0.1377  0.2059
21635W        W64548   9.400  32.639  18.866  0.0147  0.1021 -0.1401
21636W        W64549   3.061   7.481  17.151 -0.4306 -0.3415  0.1336
21637W        W64550   5.631   2.633  25.160 -0.3295 -0.2320  0.3640
21638W        W64551   8.027  28.703  19.317  0.0506  0.2736 -0.1784
21639W        W64552  17.544   0.930  19.583  0.2855 -0.0334 -0.0846
21640W        W64553  15.536  29.336  24.138 -0.2823 -0.0688  0.2987
21641W        W64554  33.248  33.744  20.281 -0.1613  0.3265 -0.0356
21642W        W64555  14.173   5.149  15.844  0.1523  0.0243 -0.0908
21643W        W64556   4.714  13.349  23.816  0.0922  0.1420  0.1435
21644W        W64557  28.409   3.112  14.713  0.0361 -0.2437  0.2865
21645W        W64558  14.102  34.432  16.858  0.1480  0.4711  0.0746
21646W        W64559  14.515  20.936  17.113 -0.0676  0.0827  0.0435
21647W        W64560  32.749   1.983  16.687 -0.3668  0.0871 -0.0398
21648W        W64561   6.991   5.152  24.272 -0.0553  0.0372 -0.2040
21649W        W64562  32.964   4.943  17.867  0.2688  0.0898  0.0098
21650W        W64563   9.934   0.204  25.779  0.0224  0.3172 -0.1036
21651W        W64564  13.419  32.082  25.073  0.1838 -0.1362  0.2328
21652W        W64565  25.653  28.275  24.795  0.1438  0.0437 -0.0084
21653W        W64566  10.521  15.636  17.155 -0.2028 -0.2747  0.2312
21654W        W64567  12.268  30.662  17.848  0.1907  0.2271 -0.1224
21655W        W64568  18.522   5.122  26.192 -0.2252  0.2270  0.0545
21656W        W64569  27.188   1.767  26.381  0.0606  0.1220 -0.0461
21657W        W64570  30.471  31.599  29.541 -0.3802  0.2947  0.0766
21658W        W64571  15.946   8.597  19.183 -0.1678 -0.0337 -0.0633
21659W        W64572  13.586  31.303  20.135 -0.2969  0.3374  0.0481
21660W        W64573  26.104   5.233  17.997 -0.2066 -0.1577  0.0187
21661W        W64574  30.132  27.120  24.603  0.0036 -0.0673  0.0007
21662W        W64575   2.282   3.369  18.888  0.2492  0.2762 -0.2731
21663W        W64576   0.430   2.741  18.468  0.0856  0.6589  0.3862
21664W        W64577  11.070  30.303  21.365 -0.0374  0.0349 -0.3256
21665W        W64578  26.852   4.115  24.216  0.1686 -0.2854  0.1631
21666W        W64579   8.593   4.215  20.167  0.1526 -0.0265 -0.0378
21667W        W64580  13.699   5.401  20.469  0.2155 -0.1457  0.1730
21668W        W64581  11.987  11.184  18.397 -0.3150 -0.1768  0.1793
21669W        W64582   4.455   9.583  24.879 -0.0031 -0.0622 -0.1258
21670W        W64583   3.643   4.434  19.030  0.0577 -0.0438  0.0429
21671W        W64584   1.505  30.522  14.956  0.0532  0.1238  0.0723
21672W        W64585   5.600   5.364  26.006 -0.3772  0.0402  0.3440
21673W        W64586  32.266   3.874  25.713 -0.0185  0.0791  0.1184
21674W        W64587  31.174  11.563  19.653 -0.0390 -0.1171  0.0033
21675W        W64588   8.163  31.313  17.682 -0.0292  0.0855 -0.4832
21676W        W64589   9.861   0.644  24.854 -0.2517  0.0471  0.0826
21677W        W64590  30.206   9.007  24.627  0.0917 -0.0837 -0.3517
21678W        W64591   5.258  10.188  17.676  0.1254  0.1468 -0.1041
21679W        W64592   9.290   4.368  25.994 -0.0513 -0.4080 -0.0588
21680W        W64593   0.576  11.851  17.914 -0.0205 -0.0075  0.0394
21681W        W64594   6.790   7.031  17.735 -0.0537  0.1025  0.1957
21682W        W64595   8.411  32.846  26.793 -0.0412 -0.0419 -0.0517
21683W        W64596  32.486   9.213  20.736 -0.1812  0.0179  0.1228
21684W        W64597   8.722   0.678  18.971 -0.0339 -0.1363 -0.2112
21685W        W64598  11.307   6.261  24.646 -0.0213  0.0342  0.1364
21686W        W64599   7.842  10.237  20.454  0.2244  0.1182 -0.3135
21687W        W64600   6.790  12.555  18.113  0.0117 -0.1890  0.2632
21688W        W64601  12.103   5.223  19.271 -0.2442  0.0249  0.1700
21689W        W64602   2.794  25.933   2.006  0.2475  0.0746  0.3928
21690W        W64603   4.551   3.595  18.534  0.3053  0.0212  0.0580
21691W        W64604   5.729   0.975  20.434  0.1224  0.0391  0.4183
21692W        W64605   5.195   4.524  21.190  0.0101 -0.1083 -0.2323
21693W        W64606   8.556   4.636  21.987 -0.1738 -0.0901 -0.0223
21694W        W64607   9.396  10.902  20.657 -0.0499 -0.0400 -0.4195
21695W        W64608   1.383  22.746  23.559  0.0960  0.2197  0.0066
21696W        W64609   3.715   3.263  21.098 -0.1166 -0.1718 -0.2195
21697W        W64610   9.925  14.010  19.352 -0.2104 -0.1927 -0.0037
21698W        W64611   8.054  11.075  16.408  0.4069 -0.1334 -0.0894
21699W        W64612   3.369   2.339  20.038  0.0623 -0.0712  0.0370
21700W        W64613  30.822   1.004  18.586 -0.0122 -0.1766 -0.0780
21701W        W64614  25.936  34.171  25.350 -0.2532  0.1367  0.1107
21702W        W64615  31.656   7.376  19.960  0.1029  0.4300 -0.2325
21703W        W64616  11.137  25.380  23.910 -0.3268 -0.0104  0.2254
21704W        W64617   7.549   9.076  17.472 -0.1150  0.1412  0.0227
21705W        W64618   6.810   7.717  22.962  0.1025 -0.0183 -0.0802
21706W        W64619   1.323  12.786  20.582  0.1898  0.0196  0.1339
21707W        W64620   5.336  11.348  19.880  0.2245  0.0731  0.1937
21708W        W64621   6.518   5.082  18.159 -0.1396 -0.0420 -0.1895
21709W        W64622  33.481   0.105  17.508  0.3246  0.2079 -0.0075
21710W        W64623  10.753   3.101  19.929 -0.0853  0.1559  0.0632
21711W        W64624   2.198   5.921  20.819  0.1241  0.1387  0.0632
21712W        W64625  10.806   2.827  22.489 -0.0914  0.2087 -0.0353
21713W        W64626  33.192  22.214  28.647  0.1574 -0.1841  0.0993
21714W        W64627   3.260   3.863  18.039  0.1779  0.1066  0.0781
21715W        W64628   6.691   8.961  24.674  0.0333  0.1568 -0.3337
21716W        W64629   7.420  31.754  18.965  0.1102  0.2824  0.0571
21717W        W64630  31.295   8.816  28.543  0.0687 -0.0920  0.0641
21718W        W64631   5.308   9.153  24.811  0.2241 -0.0455 -0.1727
21719W        W64632  32.853   5.789  25.970  0.0516  0.3063 -0.0476
21720W        W64633  32.226   5.870  15.849  0.2431  0.2208 -0.0317
21721W        W64634  30.003   4.349  25.690  0.0589 -0.0516 -0.0770
21722W        W64635   9.027   5.310  17.280  0.1492 -0.0394  0.0008
21723W        W64636   4.072   4.106  25.123  0.0241 -0.2304  0.4967
21724W        W64637   8.956   6.962  22.903  0.0546 -0.0723 -0.0129
21725W        W64638   8.399  11.313  22.609  0.2633  0.1132  0.3976
21726W        W64639  29.282  31.961  24.154 -0.3637  0.1670  0.0738
21727W        W64640   7.388   9.445  18.780  0.1853  0.0585  0.2449
21728W        W64641   2.851  23.596  21.605  0.2046 -0.0863 -0.1545
21729W        W64642  11.212  14.577  22.310 -0.4965  0.0136  0.3829
21730W        W64643   2.075   5.815  22.484  0.1734 -0.2566  0.1108
21731W        W64644   7.180  17.937  25.590  0.0185 -0.0149  0.0826
21732W        W64645   7.145  30.779   0.801  0.1528 -0.2895 -0.1067
21733W        W64646   2.050   3.298  19.688 -0.0982 -0.1836 -0.4646
21734W        W64647  13.229   8.678  26.255 -0.1521 -0.0749  0.4225
21735W        W64648   5.659  11.170  17.214 -0.0261  0.1273  0.3986
21736W        W64649   1.480   0.773   1.201  0.0384 -0.0437  0.2953
21737W        W64650   3.864   9.135  16.442 -0.1971  0.0345  0.1598
21738W        W64651   1.094  27.270  15.549  0.0289  0.2376 -0.3686
21739W        W64652   1.127   6.756  22.646  0.0182  0.0295  0.0587
21740W        W64653  11.552  32.135  24.371 -0.1853 -0.2329 -0.1140
21741W        W64654  33.630   4.941   2.561  0.0396  0.0901  0.1967
21742W        W64655  29.028  33.930  27.642  0.0730 -0.0127  0.1235
21743W        W64656  30.792  18.925  28.492  0.2200  0.0284 -0.1498
21744W        W64657  11.483   7.227  16.288  0.1324  0.1769  0.0621
21745W        W64658  14.038   5.426  22.442 -0.1310 -0.1829  0.1233
21746W        W64659  32.985  12.197  16.379 -0.0448 -0.0036  0.1760
21747W        W64660   7.946   0.508  26.400  0.0633 -0.3214  0.0411
21748W        W64661   3.676   6.000  26.532  0.0203 -0.0347 -0.1619
21749W        W64662  29.612  31.898  20.472 -0.3502  0.0509  0.1226
21750W        W64663   4.180   5.078  19.876  0.2848 -0.1209 -0.1871
21751W        W64664   7.130   2.616  22.904  0.1788 -0.0414  0.1821
21752W        W64665  31.129  24.988   0.258  0.0532  0.0611 -0.0266
21753W        W64666  27.781  12.881  21.220  0.0308  0.0693 -0.2100
21754W        W64667   6.936  11.116  22.123  0.1527 -0.1030  0.0076
21755W        W64668   7.839  31.497  17.353  0.3495  0.0337  0.0392
21756W        W64669  11.755  15.090  16.496 -0.2134 -0.1800 -0.2763
21757W        W64670   2.544   1.349  27.666 -0.0891 -0.1403 -0.0624
21758W        W64671   1.853   0.093  27.478 -0.0301  0.3192  0.1160
21759W        W64672  29.945  11.866  16.114  0.3143  0.1679 -0.0170
21760W        W64673   3.415  28.991  21.649 -0.1551 -0.0359 -0.1498
21761W        W64674   3.906  14.473  16.335  0.1701 -0.2796 -0.0502
21762W        W64675   4.373   1.109  23.062 -0.2046 -0.0135  0.0802
21763W        W64676   1.254   5.452  19.612 -0.1062  0.3191 -0.3192
21764W        W64677   1.862   5.609  16.502 -0.3746 -0.5295  0.1323
21765W        W64678   5.386   1.831  21.108 -0.3951  0.1178 -0.0269
21766W        W64679   1.043   6.583  17.115 -0.2669 -0.1473 -0.0838
21767W        W64680   1.525  34.223  26.236  0.1779 -0.0520  0.1661
21768W        W64681  11.594  10.274  16.823 -0.1451  0.1448  0.1705
21769W        W64682   8.193  34.207  25.894  0.1320  0.1383  0.0051
21770W        W64683   3.420   9.040  19.436  0.0055  0.1934  0.5725
21771W        W64684   4.725   7.045  21.274  0.0240  0.0646 -0.0935
21772W        W64685  13.588   2.646  19.720  0.0578 -0.3789  0.0619
21773W        W64686   0.679  29.372  17.815 -0.2158 -0.1565  0.1409
21774W        W64687   3.569  16.955  23.854 -0.0488  0.1619 -0.2182
21775W        W64688  32.558   7.224  16.935 -0.2365 -0.2197  0.0085
21776W        W64689  33.517  11.874  21.180  0.3999 -0.2363 -0.2479
21777W        W64690   7.460  10.004   0.660 -0.1708 -0.1158 -0.1353
21778W        W64691   1.003  20.579  19.092 -0.1177  0.2550 -0.0576
21779W        W64692  30.505   5.923  21.479 -0.2465  0.2722  0.3529
21780W        W64693   0.134  10.467  19.509  0.3472 -0.1544 -0.0612
21781W        W64694   5.262  30.602   0.413  0.1887 -0.1717  0.4938
21782W        W64695   1.191  34.153  24.741 -0.1628 -0.1979 -0.3329
21783W        W64696  15.193  33.983  23.787  0.3202 -0.4429 -0.0582
21784W        W64697  26.209   2.836  28.541  0.0465 -0.1697 -0.1981
21785W        W64698   1.532  33.458  21.766 -0.0124  0.0976  0.0332
21786W        W64699  17.552   6.977  22.684  0.0232 -0.0556  0.0128
21787W        W64700  32.390  33.019  21.646 -0.4358  0.1881  0.1350
21788W        W64701   6.716   6.438  17.273 -0.2481 -0.1603 -0.1099
21789W        W64702   5.531  23.793   0.245 -0.0825  0.1696  0.0466
21790W        W64703   6.047   5.509  23.064 -0.0506  0.0743  0.0355
21791W        W64704   9.868   0.737  19.118  0.3250  0.5238  0.0244
21792W        W64705  11.543   2.456  22.866  0.1394 -0.2658  0.2077
21793W        W64706  22.422  11.790  20.626  0.0647  0.1054  0.1828
21794W        W64707  31.504   1.436  20.261 -0.1808 -0.0496 -0.2334
21795W        W64708   6.963   4.444  20.817  0.0188 -0.1652 -0.2201
21796W        W64709   4.866  11.779  26.220 -0.1365  0.0611 -0.0638
21797W        W64710   7.160  32.291  24.590  0.1717  0.0256 -0.1923
21798W        W64711  32.625   1.967  22.045  0.2854  0.1537 -0.1643
21799W        W64712   6.377   7.190  18.032  0.2013 -0.3573 -0.1429
21800W        W64713  33.532  15.460  22.213  0.0089  0.0345  0.2139
21801W        W64714   6.935  34.123  18.089  0.3379  0.0777  0.0015
21802W        W64715  16.636  32.632   1.310  0.0885 -0.1887  0.3084
21803W        W64716  12.897  13.752  14.786 -0.1689 -0.0962  0.1341
21804W        W64717   1.904  32.605  24.759  0.4350  0.0281  0.3576
21805W        W64718   6.904  30.547  18.073  0.0044 -0.0619  0.0246
21806W        W64719  30.882   5.991  18.948 -0.1655 -0.0865  0.0541
21807W        W64720   1.787  16.336  15.471 -0.0524  0.0072  0.1367
21808W        W64721   4.662   7.361  20.883 -0.2708 -0.1419 -0.3049
21809W        W64722   1.370   9.033  19.445  0.0248  0.2327 -0.1031
21810W        W64723   1.896   2.680  24.449  0.0061  0.1584  0.1690
21811W        W64724   6.377   7.320  28.772  0.1254 -0.0115  0.1133
21812W        W64725  34.488  20.083  20.756 -0.1156 -0.0039  0.5082
21813W        W64726  32.736   9.660  26.450 -0.1200  0.0733  0.0841
21814W        W64727   0.738   0.255  18.555  0.0355 -0.0499 -0.2863
21815W        W64728   8.587   0.167  18.038  0.2881 -0.0582 -0.5723
21816W        W64729   1.727  12.192  18.251  0.1868  0.0103  0.0918
21817W        W64730   4.426   7.357  18.397  0.2244 -0.2084 -0.0749
21818W        W64731  30.260  31.134  17.172  0.2288  0.1381 -0.0262
21819W        W64732   9.716   8.125  17.661  0.3935 -0.2031  0.1756
21820W        W64733   5.193   3.258  21.447 -0.1019 -0.0301  0.0698
21821W        W64734   5.186  32.684  26.140  0.4135 -0.4137 -0.1219
21822W        W64735  24.194  30.092  14.884  0.2877  0.2398  0.1101
21823W        W64736  32.486   7.994  23.516  0.2862  0.2147  0.1319
21824W        W64737   8.109  32.794  16.607 -0.0797 -0.3217 -0.2257
21825W        W64738   5.239  32.558  25.374 -0.1212 -0.4548  0.2747
21826W        W64739   4.860  12.844  24.781 -0.1402 -0.0688 -0.0729
21827W        W64740   1.699   5.856  17.360 -0.0380  0.0551 -0.1730
21828W        W64741  15.808  28.932  28.423 -0.1423 -0.1254 -0.0428
21829W        W64742  24.111   2.875  20.962  0.0922  0.0718 -0.3397
21830W        W64743   4.090   4.848  24.618  0.1958 -0.1957  0.0155
21831W        W64744  20.400   1.566  19.301 -0.0341  0.2676  0.0384
21832W        W64745  14.593  13.746  12.806 -0.1505 -0.0529  0.2200
21833W        W64746  12.313   6.275  29.531  0.1468  0.0302 -0.0924
21834W        W64747   1.016  15.141  19.486  0.0046  0.0784  0.0782
21835W        W64748   8.509  30.350   6.923 -0.2000  0.0309 -0.0606
21836W        W64749   1.331   9.545  17.287 -0.0616 -0.1734 -0.0897
21837W        W64750  15.680   7.887  21.529  0.0486 -0.5352  0.0052
21838W        W64751   5.362  32.481  22.026  0.0622 -0.0556  0.1377
21839W        W64752  10.367  34.469  16.678 -0.1605  0.0530  0.0821
21840W        W64753   3.201   9.255  16.246  0.0271 -0.0029 -0.1585
21841W        W64754   9.082   3.922  18.838 -0.3851  0.3846  0.3267
21842W        W64755  34.140   6.346  17.936  0.1280 -0.2282  0.1560
21843W        W64756   5.847   0.075  19.230  0.0594  0.2518 -0.0283
21844W        W64757   7.407   5.884  22.358 -0.1301  0.0739  0.3275
21845W        W64758   0.893   2.223   1.126 -0.0755  0.0372  0.0703
21846W        W64759  32.577   8.329  20.275  0.2063 -0.1391 -0.0990
21847W        W64760  17.009  29.737  23.610 -0.0667 -0.1352 -0.3000
21848W        W64761  12.211   8.680  17.623 -0.0137  0.3251  0.1992
21849W        W64762  10.394   0.514  27.104 -0.1824  0.1950 -0.0429
21850W        W64763  11.144   2.908  28.759 -0.0712 -0.3230 -0.0694
21851W        W64764  33.756   6.535  16.359  0.1082  0.1054 -0.3263
21852W        W64765   0.375   6.137  20.897  0.0911 -0.1289 -0.2583
21853W        W64766   6.267   1.434  25.497 -0.1666  0.0812 -0.3489
21854W        W64767  12.440  29.314  18.872  0.4269  0.1653 -0.0340
21855W        W64768  13.333   8.161  25.179  0.0732  0.1230 -0.1137
21856W        W64769  30.218  28.883  21.498 -0.1160  0.1083  0.1901
21857W        W64770   5.352   5.317  21.445 -0.0680  0.1032  0.1006
21858W        W64771  11.353   8.068  26.977  0.0359 -0.1438  0.0964
21859W        W64772  33.848  14.212  26.937 -0.1641 -0.1796 -0.1338
21860W        W64773  16.331   0.836  18.177  0.1039  0.0477  0.3763
21861W        W64774   4.862   7.706  19.148  0.0425  0.0087 -0.1297
21862W        W64775  33.001   0.238  25.947 -0.1841  0.4577  0.0588
21863W        W64776   4.683  10.900  24.963 -0.0679  0.0434  0.0995
21864W        W64777  34.155   8.213  19.171 -0.0088 -0.1053 -0.0691
21865W        W64778   3.558   9.071  24.966  0.0508  0.1156  0.1513
21866W        W64779  13.383  12.345  20.135 -0.0533 -0.1666  0.0737
21867W        W64780   6.237  14.485  18.224 -0.0048  0.0042 -0.2342
21868W        W64781  32.905   9.330  22.435 -0.2387 -0.3170  0.2436
21869W        W64782   9.924  33.790  26.758 -0.1990  0.0685  0.2030
21870W        W64783   6.476   3.947  26.825 -0.1528 -0.0129  0.0465
21871W        W64784   4.484  32.095  25.648  0.2158  0.0881  0.1967
21872W        W64785  30.688  25.625  21.624 -0.0371 -0.1746 -0.1195
21873W        W64786  12.001  12.728  16.148 -0.3359 -0.0533  0.0623
21874W        W64787  12.750   5.380  21.258  0.1030 -0.2523  0.0556
21875W        W64788   1.398  11.413  15.762 -0.0857 -0.4781 -0.3126
21876W        W64789  29.417   5.829  20.679  0.1019 -0.2229  0.0122
21877W        W64790   6.021   8.675  21.869 -0.1864 -0.1848 -0.2457
21878W        W64791   7.894   5.069  21.903  0.0209  0.0560 -0.0413
21879W        W64792   8.243   3.379   0.034  0.0830  0.0271 -0.0333
21880W        W64793   0.749  28.602  29.624  0.0962  0.1857 -0.2373
21881W        W64794   2.729  33.267  23.374  0.1198  0.1523  0.0521
21882W        W64795   4.036  30.212  25.213  0.0616  0.2683  0.6318
21883W        W64796  33.573  12.738   7.006 -0.2389 -0.3898  0.2614
21884W        W64797   6.360   9.388  18.227  0.0413  0.0458  0.2168
21885W        W64798  19.642  11.965  14.491 -0.2158 -0.0469 -0.0511
21886W        W64799  25.263   4.533  19.819 -0.2527 -0.1494  0.1416
21887W        W64800  12.097   3.859  18.244  0.0743  0.1734  0.0956
21888W        W64801  28.867  29.901  29.724 -0.1897 -0.1332  0.1310
21889W        W64802   5.076   7.315  21.574 -0.1045  0.1329 -0.5454
21890W        W64803  11.231  32.820  25.083 -0.0140 -0.1224 -0.1305
21891W        W64804  33.597  29.191  29.207 -0.1421 -0.0548  0.0411
21892W        W64805  20.156   3.468  18.974  0.2245 -0.0761  0.1608
21893W        W64806   6.133  31.892  17.209 -0.4298 -0.2553 -0.1731
21894W        W64807   7.463  13.984  19.594 -0.2078 -0.2413 -0.0136
21895W        W64808  31.767  27.454  18.335 -0.0659 -0.1949 -0.0799
21896W        W64809   1.187   7.042  21.548  0.0330  0.2832 -0.1702
21897W        W64810   9.455  25.858  21.985 -0.2007  0.1313 -0.0350
21898W        W64811   5.366  31.672  16.191  0.1304  0.2647  0.1605
21899W        W64812  11.241   7.264  17.830  0.3235  0.2804 -0.0203
21900W        W64813   3.336  19.018  18.192 -0.0500  0.3620  0.1612
21901W        W64814   9.400   2.605  19.121  0.2605  0.1075  0.1633
21902W        W64815   6.026   5.861  25.868  0.1716  0.1017  0.1929
21903W        W64816  31.687  10.395  17.614 -0.0348  0.0660  0.3002
21904W        W64817  31.555   2.336  22.082  0.3922  0.0259 -0.1046
21905W        W64818  11.597  11.851  15.753 -0.1597 -0.1834  0.0274
21906W        W64819   4.084   3.505  18.265 -0.0539  0.1636 -0.0736
21907W        W64820   7.854   1.623  17.815  0.0941  0.1399  0.1385
21908W        W64821   0.866  33.916   0.963  0.1248  0.0779 -0.0202
21909W        W64822   8.395   4.871  18.966 -0.1403  0.0107  0.0440
21910W        W64823   3.195  23.218  18.919  0.0974 -0.1295  0.0088
21911W        W64824  32.889  10.580  24.952  0.1118 -0.1018  0.1490
21912W        W64825   4.317   0.475  22.338  0.0442  0.3896  0.2327
21913W        W64826   9.492   5.870  26.446  0.2226 -0.2052  0.0476
21914W        W64827  18.541   7.917  16.538  0.0303  0.0271 -0.2806
21915W        W64828   5.039   5.829  23.253  0.0949 -0.1707  0.3052
21916W        W64829   2.058  16.712  22.552 -0.1299 -0.0244  0.2334
21917W        W64830   1.911  30.413   0.334  0.1767 -0.0828  0.0297
21918W        W64831   6.706  16.029  20.873 -0.1416  0.2242  0.3929
21919W        W64832   3.110   4.314  26.338 -0.2066  0.0637  0.1083
21920W        W64833  33.958  13.060  17.157  0.0374  0.0062 -0.0313
21921W        W64834   2.045  10.438  19.499 -0.2103  0.0424 -0.1347
21922W        W64835  26.580  33.488  24.977 -0.0737  0.0723  0.4615
21923W        W64836  11.419  32.588  18.328  0.1237 -0.0511  0.2309
21924W        W64837   6.853  32.926  24.278  0.3019 -0.1751 -0.0087
21925W        W64838  10.152   4.245  21.998  0.0698  0.0905 -0.2365
21926W        W64839   0.235   8.838  22.630  0.1484 -0.0663 -0.0796
21927W        W64840   7.447  11.674  15.621  0.0975 -0.2046 -0.0286
21928W        W64841  12.887  12.520   5.234  0.1089  0.3188 -0.0903
21929W        W64842   7.562   8.946  18.687 -0.0912 -0.0319  0.0647
21930W        W64843   1.052  32.075  25.405 -0.1409 -0.0214  0.1998
21931W        W64844   9.544  15.691  16.272 -0.0206  0.0575 -0.1709
21932W        W64845  10.934  14.504  21.376 -0.4296 -0.2599 -0.1497
21933W        W64846  32.007  10.899  20.095 -0.1333 -0.2332  0.1866
21934W        W64847  16.021   1.430  16.267 -0.0480 -0.3327  0.1714
21935W        W64848  25.225   6.911  22.660 -0.0141 -0.0963 -0.0730
21936W        W64849   5.791  17.123  21.486  0.1372  0.1721 -0.3021
21937W        W64850  12.691   7.496  23.188  0.3127  0.0916 -0.0327
21938W        W64851  11.560  10.393  26.148 -0.2368  0.2522 -0.1452
21939W        W64852  10.056   9.750  23.826 -0.0922  0.1697 -0.0900
21940W        W64853   1.243  10.303   8.756 -0.1963 -0.2311 -0.1580
21941W        W64854   1.776  10.236  22.019  0.4010  0.2195 -0.1003
21942W        W64855   4.114  33.446  21.567 -0.1437 -0.1311 -0.1260
21943W        W64856   3.903  27.256  19.516 -0.1170 -0.0993 -0.3877
21944W        W64857   2.132   9.845   2.811 -0.0002  0.1464  0.0303
21945W        W64858  16.143   7.831  15.705 -0.1336  0.2030 -0.0572
21946W        W64859  24.829   6.714  20.838 -0.2201 -0.0766  0.1776
21947W        W64860  32.593   8.728  19.867  0.1402 -0.1988 -0.1106
21948W        W64861   2.071  34.129   0.992  0.2132  0.0628 -0.3333
21949W        W64862   6.535  10.482  19.361  0.1720  0.0057  0.0050
21950W        W64863   4.246   0.285   2.037  0.4579  0.1615  0.3793
21951W        W64864   2.466   8.372  28.943 -0.1791 -0.1632 -0.0419
21952W        W64865   0.505   3.163  24.775  0.2248 -0.0377  0.0416
21953W        W64866  13.109  31.290  15.609 -0.1367  0.2062 -0.2345
21954W        W64867   9.887   1.987  18.393 -0.1004 -0.3375  0.0789
21955W        W64868  12.201   6.554   5.070  0.0282  0.3232 -0.0846
21956W        W64869  30.374  21.679  19.591 -0.0057 -0.0265 -0.0545
21957W        W64870   4.321  26.136  24.628  0.1338  0.0486  0.0270
21958W        W64871   1.411  12.137  17.756  0.1962 -0.0942  0.2380
21959W        W64872  26.075  17.187  27.942 -0.1487 -0.2552 -0.0724
21960W        W64873  17.832   8.642  23.424 -0.2271 -0.2470 -0.1006
21961W        W64874   3.384  12.125  17.016  0.0736 -0.0739 -0.1495
21962W        W64875   8.875   2.887  22.356  0.1018  0.0477 -0.2164
21963W        W64876   4.816   6.759  20.119  0.0375 -0.1730  0.0896
21964W        W64877   4.606  10.353  19.269  0.1652 -0.0563  0.2743
21965W        W64878  11.422  30.803  18.735 -0.0708 -0.2695 -0.0912
21966W        W64879  16.226  16.261  26.619  0.3307  0.0228  0.1706
21967W        W64880  13.300   4.811  16.289 -0.1601 -0.1724 -0.1114
21968W        W64881   7.808  34.165  28.891 -0.0864  0.4263  0.0375
21969W        W64882   5.697   6.384  24.267 -0.0123 -0.0638  0.0032
21970W        W64883  34.277   9.928  22.483  0.1174  0.4270  0.0550
21971W        W64884  18.045   8.393   1.017  0.1148  0.2477  0.0909
21972W        W64885   6.860  10.028  20.883 -0.1348  0.1923  0.3137
21973W        W64886   4.954  12.102  18.006  0.1736 -0.0216  0.1465
21974W        W64887   7.632   0.834  21.809  0.1141 -0.1642 -0.3686
21975W        W64888  12.254  11.023  15.990 -0.2964 -0.0494 -0.0176
21976W        W64889   2.684  13.205  25.112 -0.0524  0.3776  0.2360
21977W        W64890  34.365  19.002   2.380 -0.1440 -0.3184 -0.2070
21978W        W64891   8.624   4.047  23.164 -0.1157  0.1279 -0.2884
21979W        W64892   4.857  30.320  26.581 -0.3868  0.1656 -0.0627
21980W        W64893  19.106   0.548  18.366 -0.1216  0.2349 -0.1156
21981W        W64894   3.833  31.773  27.347 -0.0621  0.3029 -0.1854
21982W        W64895  30.815   2.095  18.161 -0.0799  0.0689 -0.0788
21983W        W64896   2.552  12.872  19.378 -0.3320  0.0185 -0.2682
21984W        W64897  33.820   0.889  23.827 -0.0488  0.1359  0.1853
21985W        W64898   6.202  10.283  18.023 -0.1215  0.0443 -0.0300
21986W        W64899  16.095   6.860   3.197  0.2035 -0.1924 -0.1569
21987W        W64900  33.708   5.515  17.712  0.0703 -0.1697 -0.2077
21988W        W64901   7.750  31.018   2.894  0.3141 -0.2121 -0.1541
21989W        W64902  11.014  33.461   1.001 -0.0704 -0.0677 -0.2186
21990W        W64903   1.515   9.908  20.180 -0.0869  0.0630  0.2847
21991W        W64904   4.726  16.545  15.999  0.2003  0.0224  0.0417
21992W        W64905  12.241   4.779  24.153 -0.1996 -0.0799 -0.0014
21993W        W64906   9.336   5.633  23.616  0.1689  0.1890  0.0036
21994W        W64907   4.568   8.574  22.066  0.2219 -0.2291  0.1293
21995W        W64908  12.725   0.362  27.071  0.2667  0.3441  0.5594
21996W        W64909  13.711  15.246  11.743  0.0809  0.0087 -0.0630
21997W        W64910   3.990   6.008  17.746 -0.0143  0.4166  0.0409
21998W        W64911  10.793   4.523  21.183  0.0384 -0.0846  0.2590
21999W        W64912  34.354  26.412   2.391 -0.0765  0.1536  0.3978
22000W        W64913   3.737   3.763   8.960 -0.3708 -0.0424  0.0459
22001W        W64914   9.969  17.717  12.576 -0.0035  0.3146  0.2852
22002W        W64915   6.524   0.354  17.567  0.0063 -0.1723 -0.0476
22003W        W64916  14.300   9.394  27.205  0.0519 -0.3084  0.1317
22004W        W64917   4.770  31.822  18.706 -0.0226 -0.0613  0.0309
22005W        W64918   2.824   7.370  22.649 -0.2918 -0.1530  0.1805
22006W        W64919  34.381   7.039   4.755 -0.1149  0.0359  0.2095
22007W        W64920   5.456   6.228  21.981  0.2683 -0.2417 -0.2366
22008W        W64921  30.366  25.074  24.868  0.0084 -0.2986 -0.1456
22009W        W64922   5.174   6.151  25.597  0.2204  0.4366  0.0315
22010W        W64923  11.417  17.631  18.070 -0.0939 -0.2657 -0.0812
22011W        W64924  12.237   8.482   1.923 -0.0151  0.0681 -0.0564
22012W        W64925   6.061   6.623   0.944 -0.2275  0.0013  0.1578
22013W        W64926  11.974  29.054  24.439  0.0202  0.4100  0.0088
22014W        W64927   3.169   6.289  24.509  0.0608 -0.1045  0.1982
22015W        W64928   6.260   0.312  18.512 -0.1868 -0.1024  0.1909
22016W        W64929  10.395   0.203  24.061 -0.1123  0.2666 -0.2404
22017W        W64930   6.833  32.459  25.000 -0.3241 -0.2278  0.1897
22018W        W64931  11.532   8.833  20.787  0.1683 -0.2460 -0.0040
22019W        W64932   8.895   2.860  27.198 -0.0538 -0.1072  0.1788
22020W        W64933  10.197  34.209  26.051  0.2051 -0.1571 -0.2567
22021W        W64934  11.918   6.032  18.463 -0.0075 -0.4371 -0.0605
22022W        W64935  27.753   0.649  29.283  0.0245  0.1391 -0.3934
22023W        W64936  24.573  33.154  18.830  0.2076  0.1787 -0.1300
22024W        W64937  30.397   1.325  24.354 -0.0287  0.2962 -0.0719
22025W        W64938  28.005  10.444  22.303 -0.0176  0.3647 -0.3804
22026W        W64939   6.673  30.089  19.389  0.1722 -0.3233  0.1416
22027W        W64940   9.209  34.421  19.459  0.0180  0.0716  0.2899
22028W        W64941   8.966   1.265  29.682  0.0049  0.4257  0.0942
22029W        W64942  10.877  28.391  18.431  0.0170 -0.0169  0.0552
22030W        W64943  32.104   0.184  20.079  0.1706  0.0179 -0.0101
22031W        W64944   9.062   1.243  17.685 -0.4316 -0.0484  0.0280
22032W        W64945   7.827  19.119  21.520  0.0260 -0.0659 -0.0416
22033W        W64946   0.258   4.791   0.294 -0.0131  0.1832 -0.1751
22034W        W64947   3.827   6.801  27.973 -0.0262 -0.3238 -0.0843
22035W        W64948   9.427  15.442   0.372  0.0324 -0.0209 -0.0739
22036W        W64949  32.247  12.350  27.116  0.1058 -0.4227 -0.0134
22037W        W64950   5.805  30.330  21.438 -0.0211  0.2437  0.0274
22038W        W64951   4.890   4.127  20.960  0.3816 -0.1581 -0.0869
22039W        W64952   4.461  24.783  26.056 -0.5237  0.0411  0.1124
22040W        W64953  26.351  15.611  18.121 -0.3200  0.3449 -0.1010
22041W        W64954  13.254  25.831   1.213  0.1304  0.0740  0.0350
22042W        W64955   3.763  27.418  18.611  0.1283  0.0161  0.1845
22043W        W64956   3.915  27.541  26.410  0.2574  0.1320  0.1594
22044W        W64957  28.065   1.869   0.543  0.2513 -0.0095  0.0310
22045W        W64958   5.892   8.020  24.608 -0.0303  0.2307  0.0095
22046W        W64959  12.422   0.888  19.070  0.0012 -0.0858  0.2516
22047W        W64960  32.285   2.187  23.330  0.1578  0.0887 -0.2065
22048W        W64961  32.707  34.048  18.232 -0.1378 -0.2032 -0.0566
22049W        W64962   1.429   7.523  19.466  0.0042  0.1241  0.1151
22050W        W64963  33.854   2.461   0.704 -0.2209  0.2447  0.4203
22051W        W64964  34.114   9.172  19.380  0.0462 -0.1594 -0.0847
22052W        W64965   4.203   3.965  18.575  0.1560  0.1214 -0.1902
22053W        W64966  34.064  33.948  26.175 -0.0870  0.1437 -0.3661
22054W        W64967   4.337   6.097  16.978 -0.0016 -0.1360 -0.0758
22055W        W64968   8.670  11.509  21.471 -0.0126 -0.0696 -0.0098
22056W        W64969  16.552   4.885  25.132 -0.0791  0.0150  0.0092
22057W        W64970  11.232  34.065   1.200  0.1963  0.1935  0.0443
22058W        W64971  31.793   4.776  18.167 -0.0440 -0.1453  0.1923
22059W        W64972   5.905   2.278  17.243 -0.0290 -0.0175 -0.0936
22060W        W64973  12.285  16.614  25.357  0.1297  0.0829 -0.2909
22061W        W64974  13.687   8.657  19.085  0.1238 -0.0647  0.2182
22062W        W64975  13.928   6.717  25.139 -0.2265  0.0569  0.0430
22063W        W64976  31.487   5.874  22.527  0.1549 -0.1514 -0.0658
22064W        W64977   2.932  12.181  16.661 -0.0246 -0.1733  0.1753
22065W        W64978   0.841   5.482  20.790 -0.0922 -0.1041 -0.0590
22066W        W64979   3.570   4.465  19.579 -0.0863 -0.0116 -0.0288
22067W        W64980   0.862   8.608  21.562 -0.1331 -0.2365 -0.1985
22068W        W64981   0.014   4.278  26.148 -0.0399  0.1969 -0.1050
22069W        W64982  13.116   9.927  28.600  0.0769  0.3035 -0.0885
22070W        W64983   7.243   7.099  21.409 -0.1187  0.2655 -0.1211
22071W        W64984  26.240  18.368  27.802 -0.0662 -0.2521  0.1081
22072W        W64985  17.960   4.456  28.275  0.1109  0.1282 -0.1378
22073W        W64986   8.190  10.096  16.993 -0.1477 -0.0565  0.0818
22074W        W64987  33.686  32.321  23.122 -0.1941  0.1421  0.2754
22075W        W64988  11.099   6.998  19.936 -0.2480  0.0504 -0.0210
22076W        W64989  11.988  18.768  12.988 -0.1501  0.1652  0.0026
22077W        W64990   7.385   4.486  28.439  0.0999  0.1627  0.1690
22078W        W64991   0.828  24.941   2.805 -0.0911 -0.0321 -0.0581
22079W        W64992  15.390  33.658  17.331 -0.0389  0.0585  0.0284
22080W        W64993  30.851  10.721  16.243 -0.0754  0.1640 -0.0961
22081W        W64994   8.407  19.174  23.373  0.2884 -0.0477 -0.0086
22082W        W64995   4.340   8.901  19.382  0.2911 -0.1301  0.1615
22083W        W64996   2.724   9.102  18.809 -0.0923 -0.0971  0.1762
22084W        W64997   6.330  27.200  23.088  0.0239 -0.0407  0.0558
22085W        W64998   2.534  33.203  26.816  0.1754 -0.0893  0.1547
22086W        W64999   9.200   6.400  21.304  0.3104  0.0636  0.0215
22087W        W65000   3.894   5.354  18.714  0.0343  0.0841  0.1593
22088W        W65001  14.173   9.976  17.386  0.3367 -0.0612 -0.2186
22089W        W65002  34.008  23.919  16.261 -0.2337 -0.1681  0.0578
22090W        W65003   1.916  12.237  22.471 -0.0076 -0.0469  0.1173
22091W        W65004  12.260   2.718  27.758  0.1152  0.0054 -0.3010
22092W        W65005   7.004   5.306  23.322 -0.1513 -0.0487 -0.0244
22093W        W65006   3.432   1.735   0.475 -0.2014  0.2903 -0.2365
22094W        W65007   4.303   9.845  23.359  0.0069 -0.1420 -0.2980
22095W        W65008   4.301   4.301  22.427 -0.4617 -0.1302  0.0838
22096W        W65009  27.249  10.417   2.970  0.0368 -0.2652 -0.1128
22097W        W65010  34.206  31.304   0.675 -0.5285  0.3197 -0.0111
22098W        W65011  12.583  32.438  24.295 -0.2134 -0.0358  0.1402
22099W        W65012  34.178   1.649  26.784 -0.0652 -0.0998  0.2551
22100W        W65013  31.946  31.057  18.765 -0.0865  0.0157 -0.1774
22101W        W65014  12.926  10.092  19.657 -0.1047  0.1131  0.0471
22102W        W65015   3.454   2.171  19.543 -0.2014  0.1252 -0.1867
22103W        W65016   2.471   3.348  19.334 -0.5314 -0.0599 -0.0946
22104W        W65017  11.813   2.365  23.821  0.2483  0.3582  0.2833
22105W        W65018   3.531   8.232  24.080  0.0878  0.1768 -0.0360
22106W        W65019   0.502   6.391  16.863  0.0278  0.1255  0.1263
22107W        W65020   5.564   4.342  29.099  0.2171  0.0187 -0.0469
22108W        W65021   7.041   6.070  21.891 -0.2809  0.2740 -0.1324
22109W        W65022  34.398  12.531  29.122 -0.3282  0.2081 -0.1338
22110W        W65023   5.329  10.404  22.308  0.1411 -0.0321 -0.4508
22111W        W65024   2.221  13.009  16.148  0.0627  0.0636 -0.0813
22112W        W65025   4.628  33.201   5.863  0.1681  0.2757  0.2416
22113W        W65026  11.525   8.260  26.248 -0.3305  0.2632 -0.0138
22114W        W65027  10.415  13.720  21.618  0.0031  0.0903 -0.1522
22115W        W65028   3.856  25.981  25.101  0.1596 -0.0068 -0.0654
22116W        W65029   0.373   4.315  23.548 -0.0167  0.1376 -0.1468
22117W        W65030  27.916   2.332  20.367 -0.0205  0.1950 -0.2464
22118W        W65031   5.770   7.467  25.834 -0.0115 -0.1287  0.2097
22119W        W65032   7.935   1.650   7.271 -0.1939  0.3940 -0.1807
22120W        W65033  18.818   8.443   8.527  0.0861 -0.2835 -0.0992
22121W        W65034   6.519  32.415  26.052  0.1821  0.2061  0.1255
22122W        W65035  13.124   4.142  21.174 -0.2297 -0.0214  0.1240
22123W        W65036  12.012   8.284  22.053 -0.0356 -0.1603 -0.2440
22124W        W65037   2.915   9.804  17.635  0.0746 -0.2769  0.2118
22125W        W65038   4.057   4.159  20.755  0.1622 -0.1062 -0.1612
22126W        W65039  17.490  28.723  28.734  0.0668 -0.0431 -0.0779
22127W        W65040  17.584  13.072  12.713 -0.0253 -0.0313  0.1363
22128W        W65041   5.332   9.464  17.236  0.1202 -0.2874 -0.1638
22129W        W65042   4.656   5.268  21.113 -0.0216  0.1353 -0.0138
22130W        W65043   5.906   1.808  24.494 -0.0312  0.0598 -0.0448
22131W        W65044   3.276   5.098  28.342  0.0826  0.2605  0.1765
22132W        W65045   9.441  33.506  18.520 -0.0426 -0.0603 -0.0177
22133W        W65046   8.270   2.479  27.632 -0.0297  0.2616 -0.0109
22134W        W65047  14.675  17.494  12.541 -0.1027 -0.0346 -0.0395
22135W        W65048   2.307   6.714  18.010  0.0217  0.3822 -0.5454
22136W        W65049   1.127   2.073  17.166  0.0175  0.1151  0.0425
22137W        W65050  12.841   1.372  24.770  0.0214 -0.0719 -0.0877
22138W        W65051   0.290   7.078  21.613  0.1492  0.1319 -0.4085
22139W        W65052  10.205   9.637  29.514  0.2328  0.0391  0.1337
22140W        W65053   3.477  15.161  22.940  0.1540 -0.2354 -0.2453
22141W        W65054   8.878  20.408  17.004  0.2320 -0.3162  0.1104
22142W        W65055   1.175  33.878   8.826 -0.2589  0.2057 -0.0502
22143W        W65056  30.329  26.656  18.560 -0.1014  0.0925  0.2308
22144W        W65057  11.692   1.110  22.458  0.0243 -0.2325  0.2496
22145W        W65058  30.781   2.563  19.755  0.2005 -0.0499 -0.1123
22146W        W65059   2.505   8.534  16.520  0.2520  0.1208 -0.0400
22147W        W65060  10.455  34.062  22.821  0.1407 -0.0898  0.0342
22148W        W65061  13.627  31.985   1.515 -0.3214 -0.4371  0.1905
22149W        W65062  31.907  32.695  24.786  0.2122  0.2921 -0.0316
22150W        W65063  29.757  17.515  18.104  0.1240 -0.1216 -0.1545
22151W        W65064   0.788  12.109  27.379 -0.0190 -0.2202  0.1940
22152W        W65065  34.210  32.125   2.755 -0.0037  0.0778  0.2309
22153W        W65066  16.002  31.081  28.466  0.2464  0.0553  0.3906
22154W        W65067   3.136   7.853  24.674 -0.0922  0.0072 -0.1865
22155W        W65068  11.125  32.495  22.713 -0.3322 -0.2438  0.3677
22156W        W65069  33.343  27.138  18.097  0.0817 -0.0611  0.3010
22157W        W65070  31.706   8.101  28.575  0.0562  0.0694 -0.1525
22158W        W65071   7.978   2.115   3.040 -0.1013 -0.1041  0.0467
22159W        W65072  12.638   7.543  26.687 -0.0152  0.1810  0.0725
22160W        W65073  10.153  12.801  23.781  0.1724  0.1521  0.2302
22161W        W65074   5.966  29.493  28.889  0.3453 -0.1997  0.1900
22162W        W65075   4.389  11.859  27.378  0.1284 -0.2105  0.0534
22163W        W65076   4.683  18.829  16.894  0.1068 -0.2172 -0.1003
22164W        W65077  31.006  26.475  28.137  0.2054  0.0559  0.0985
22165W        W65078   2.241   3.284  23.809  0.1018  0.3260 -0.0179
22166W        W65079   2.244   8.824  16.878  0.3805  0.3103 -0.1956
22167W        W65080   5.211  34.092   6.653  0.0227 -0.0811  0.0234
22168W        W65081  14.313   7.339   3.459  0.1124 -0.1448  0.0943
22169W        W65082   3.938  10.663  19.845 -0.1876 -0.0679  0.1805
22170W        W65083   2.596  15.158  21.518  0.0309 -0.2329  0.0830
22171W        W65084  32.207  22.100  21.094  0.0100  0.2158  0.0023
22172W        W65085  14.200   9.469  15.579  0.0279  0.3768 -0.0885
22173W        W65086   2.406   5.141  22.264  0.1142  0.1694  0.2202
22174W        W65087   3.647  33.073  17.644 -0.1396 -0.1564 -0.1008
22175W        W65088  19.396   2.611  22.270 -0.2481 -0.0695 -0.1256
22176W        W65089   9.721   7.968  28.802  0.1846  0.0081  0.2748
22177W        W65090  11.280  28.441  24.057 -0.2459 -0.2659  0.0635
22178W        W65091  14.853  10.226   0.122  0.3661  0.0653  0.1834
22179W        W65092   5.004   3.387  23.788  0.0165  0.1386 -0.0570
22180W        W65093   9.928  32.380  24.236  0.1179  0.1543 -0.0540
22181W        W65094   7.855   6.313  23.139 -0.1834  0.1008  0.4080
22182W        W65095  29.491  34.080  21.994  0.0165 -0.2469 -0.0532
22183W        W65096  10.103  25.572  15.558 -0.0114  0.1441 -0.1206
22184W        W65097  28.338  24.896  15.247  0.0811  0.0071  0.2710
22185W        W65098  12.850   4.802   2.030 -0.0829 -0.2542 -0.0691
22186W        W65099   8.432  30.259  28.234 -0.1193 -0.0288 -0.3689
22187W        W65100   0.371  28.101  26.787 -0.1882  0.1841 -0.0883
22188W        W65101  13.835  14.412  12.917  0.0010  0.1340  0.1709
22189W        W65102  31.056   5.739  16.450 -0.1156 -0.1525 -0.1285
22190W        W65103   3.836   2.414  18.873  0.1559 -0.0801  0.2261
22191W        W65104   2.258   6.987  21.179  0.0473  0.3042  0.1104
22192W        W65105   7.227   0.570  17.508 -0.1330  0.3421 -0.0852
22193W        W65106   8.784  12.570  28.774  0.1201 -0.1065 -0.5380
22194W        W65107   4.636   3.927  26.283  0.1761 -0.2471 -0.2036
22195W        W65108  32.973   8.113  16.252  0.1151 -0.0538 -0.0627
22196W        W65109  11.080  32.499  17.862 -0.2634 -0.0885  0.0718
22197W        W65110   7.843   7.827   1.700 -0.2606  0.0697 -0.0825
22198W        W65111   3.627  13.028  16.573  0.0101 -0.0045  0.0114
22199W        W65112  30.481   3.085  25.023 -0.2494 -0.0475  0.4307
22200W        W65113  12.272   6.189  18.838  0.0677  0.3210  0.0818
22201W        W65114   4.601   9.902  28.467 -0.4027  0.0898 -0.0113
22202W        W65115  17.751  20.594  13.190  0.2458 -0.0942  0.0785
22203W        W65116   5.509   1.470  19.758 -0.3329 -0.0845 -0.0928
22204W        W65117   0.357  14.260  20.472 -0.0107  0.1361 -0.1043
22205W        W65118   5.623   7.410  23.073 -0.1287  0.2408  0.0981
22206W        W65119   4.054  33.629  25.210 -0.1069 -0.0240 -0.3824
22207W        W65120  11.202  11.868  17.348  0.1519  0.0468 -0.2977
22208W        W65121  16.516   5.313  29.744 -0.1073 -0.0586 -0.0488
22209W        W65122   5.909   6.130  26.584  0.0829  0.1493  0.0664
22210W        W65123   7.140   8.664  19.802 -0.1276  0.2975 -0.0215
22211W        W65124  11.804   7.270  28.137 -0.4549  0.1491 -0.0738
22212W        W65125   3.599   3.290  16.748  0.0523 -0.1376  0.0979
22213W        W65126  21.857   8.436  28.218 -0.2848  0.0250 -0.0331
22214W        W65127  33.285  10.557   3.351  0.0614 -0.0725  0.1765
22215W        W65128  15.334  29.049  16.499 -0.0972 -0.0372  0.1129
22216W        W65129   5.151   4.062  17.463  0.2057  0.0076  0.0553
22217W        W65130  13.042  33.209  19.064 -0.0760 -0.1486  0.1230
22218W        W65131  26.743  16.424  20.662  0.2026 -0.2239 -0.1092
22219W        W65132   4.596  13.016  19.899  0.0310 -0.1862  0.2369
22220W        W65133  29.605  33.438   2.922  0.1033  0.0744 -0.1167
22221W        W65134   9.130   2.481  27.499  0.1865 -0.1227  0.3398
22222W        W65135  11.958  26.980  24.742 -0.2924 -0.1078 -0.1069
22223W        W65136  33.248   4.611  21.387 -0.2367  0.0084 -0.1952
22224W        W65137   7.121   3.002  22.627 -0.0561  0.0721  0.0549
22225W        W65138   9.002  31.255  19.234 -0.1541  0.0566 -0.2983
22226W        W65139   5.524   0.099  27.752  0.1376 -0.2551 -0.1641
22227W        W65140   8.070  24.792  15.510 -0.1370 -0.1911 -0.0535
22228W        W65141   2.083   5.747  18.804 -0.0772 -0.5585 -0.0548
22229W        W65142  12.841  27.596   4.537 -0.1991  0.1473  0.1918
22230W        W65143   3.674   7.674  22.556  0.0738 -0.0872  0.0358
22231W        W65144  15.067  23.373  18.637 -0.0615 -0.0799 -0.0247
22232W        W65145   6.482  12.675  21.089 -0.0842  0.2045 -0.2039
22233W        W65146  13.706   8.484  18.551 -0.2635 -0.0305 -0.1592
22234W        W65147   3.329  29.400  14.756  0.0345 -0.0490 -0.1993
22235W        W65148   8.047   6.526  19.430  0.0216 -0.1387 -0.1726
22236W        W65149   6.928  10.601  19.064  0.0330  0.0642  0.1626
22237W        W65150  12.015   0.859  21.030  0.1962 -0.1471  0.1602
22238W        W65151   9.386   2.730  20.528 -0.0202 -0.2205 -0.0467
22239W        W65152   4.206  32.453  21.569  0.2335 -0.0814 -0.4024
22240W        W65153   2.568   1.985  23.654 -0.0112  0.2361  0.1963
22241W        W65154  10.102   0.340  18.522 -0.1945  0.0011 -0.1329
22242W        W65155   4.736  13.934  28.704  0.0914  0.3098 -0.1498
22243W        W65156   2.950  21.341  17.015  0.4723  0.2190  0.0372
22244W        W65157  11.905   2.021  20.181  0.0677  0.0323 -0.1159
22245W        W65158  28.319   5.133  22.002  0.0559 -0.2429  0.1393
22246W        W65159   7.307  33.234  25.688  0.0538  0.0674 -0.2732
22247W        W65160  12.900   7.204  20.517 -0.0656 -0.2637 -0.1523
22248W        W65161  24.136   3.422  16.835 -0.3252  0.1339 -0.3493
22249W        W65162  27.435   9.799  15.480 -0.0837 -0.0283 -0.1064
22250W        W65163   2.705   4.983  18.419 -0.0444  0.1575  0.2488
22251W        W65164  11.752  31.342  25.849  0.0925 -0.0972 -0.2278
22252W        W65165   1.074   2.843   1.662 -0.1591  0.1325 -0.1095
22253W        W65166  15.193  26.623   1.481  0.0091  0.2612  0.0455
22254W        W65167   1.758   2.612  17.213 -0.2675 -0.2465  0.1656
22255W        W65168   3.835   4.890  20.547 -0.0223 -0.0594  0.1636
22256W        W65169   3.389   0.360  17.423 -0.0353  0.0625 -0.0100
22257W        W65170   7.991  26.493  22.979 -0.2627  0.1371 -0.2071
22258W        W65171   1.778  10.505  19.077  0.3706 -0.0718  0.0027
22259W        W65172   3.802   6.816  23.346  0.1397 -0.0338  0.1084
22260W        W65173   0.283  28.305  27.283  0.1784 -0.1564  0.2067
22261W        W65174   6.732   1.251  19.074 -0.4447 -0.3066  0.1610
22262W        W65175   8.664   5.152  24.814 -0.0051  0.2049  0.2679
22263W        W65176   4.509  13.246  24.671  0.0753  0.1675  0.0153
22264W        W65177  13.747  25.352   3.043  0.3927 -0.2086 -0.3006
22265W        W65178   7.338   0.068   6.659 -0.1216  0.0265  0.0285
22266W        W65179  10.943   5.067  24.595 -0.2695  0.0946  0.1742
22267W        W65180  14.373   5.642  17.442 -0.2281  0.1787 -0.2841
22268W        W65181  11.699   0.279  19.663  0.0312 -0.1251  0.0195
22269W        W65182   7.664   5.793  23.255 -0.1386 -0.1338  0.0516
22270W        W65183   9.832   3.429  19.855  0.2217  0.0802 -0.2890
22271W        W65184  32.351   7.131  20.151 -0.0674 -0.1393  0.0796
22272W        W65185  13.618  16.756   7.119 -0.0462 -0.0953 -0.2788
22273W        W65186   8.827  10.354  16.982  0.1700  0.1119  0.0385
22274W        W65187  11.393   7.400  23.784 -0.0409  0.1783 -0.0889
22275W        W65188   0.452   0.508  17.661 -0.1153  0.1205 -0.0382
22276W        W65189  16.010  11.895  20.376 -0.2523 -0.0344  0.0170
22277W        W65190  10.432  10.705  17.271 -0.0963  0.1395  0.0103
22278W        W65191   6.942  29.008  20.803  0.2060 -0.1323 -0.2525
22279W        W65192   9.755   4.956  29.156  0.3135  0.2719  0.1287
22280W        W65193   4.089   3.469  21.953 -0.0141  0.2035  0.0325
22281W        W65194   4.190  23.642  28.221  0.1089  0.0438  0.0462
22282W        W65195   3.359   3.198  18.939  0.2084  0.1285 -0.0450
22283W        W65196   1.526   8.008  21.715  0.0222  0.0443  0.0384
22284W        W65197   9.214   4.126  22.454  0.0967  0.0338  0.0646
22285W        W65198  34.122   2.271  18.487  0.1104  0.0512 -0.3072
22286W        W65199   9.591   9.275  16.503 -0.1002 -0.0621  0.0855
22287W        W65200  29.579   0.012  23.888  0.3500  0.1363 -0.0393
22288W        W65201  23.429   0.778  18.083  0.0934 -0.1215 -0.2010
22289W        W65202   1.227   4.083  24.104 -0.2110  0.2503  0.0011
22290W        W65203  11.327   9.452   1.737 -0.2784  0.0738 -0.1315
22291W        W65204  31.699   1.104  17.398 -0.2004 -0.2727  0.0032
22292W        W65205   5.074   2.954  25.326 -0.0513 -0.2132 -0.1399
22293W        W65206   6.341  13.100  21.825  0.2260 -0.0906 -0.1296
22294W        W65207   6.258  12.580  21.553  0.4087 -0.2227 -0.0546
22295W        W65208   8.464  15.243  29.773 -0.4296 -0.3520 -0.0316
22296W        W65209  33.308  13.955  16.924  0.1119 -0.2253 -0.0924
22297W        W65210   5.021   2.301  22.195 -0.1786 -0.0556  0.2694
22298W        W65211  33.702  16.968   4.796  0.0881  0.0925  0.0127
22299W        W65212   1.530  13.338  19.877 -0.3278 -0.2583  0.1672
22300W        W65213  12.078   8.237  17.322 -0.0020 -0.1895 -0.1660
22301W        W65214   7.242   2.323  27.080 -0.2458  0.1705  0.0876
22302W        W65215   2.407  12.135  17.582  0.0603  0.2268  0.1053
22303W        W65216  11.533  12.237  29.602  0.0119  0.1050  0.1951
22304W        W65217  34.262   4.383  20.708 -0.1747 -0.0181 -0.0917
22305W        W65218  18.096   4.765  17.233  0.1143 -0.5033 -0.0492
22306W        W65219  32.566   9.186  19.606 -0.0903  0.1669 -0.1579
22307W        W65220   7.206   3.498  26.720 -0.1974 -0.2688  0.2346
22308W        W65221  34.211   2.668  20.513 -0.2217 -0.2285  0.0403
22309W        W65222   3.829  16.604  22.422  0.0836 -0.1912 -0.1370
22310W        W65223  13.254   4.059  28.473  0.1495  0.0848  0.5357
22311W        W65224  20.778  27.386  29.005 -0.0196  0.2853 -0.4125
22312W        W65225  10.008   6.640  20.973  0.0523  0.1124 -0.2360
22313W        W65226   5.203  29.493  20.155 -0.2630 -0.0478  0.1191
22314W        W65227  15.175   5.572  24.278 -0.0846  0.2803 -0.1516
22315W        W65228   7.893  10.377  28.711 -0.1672 -0.2794 -0.1822
22316W        W65229   6.542   6.023  20.677 -0.5342  0.3466  0.1541
22317W        W65230  13.036  13.834  22.432 -0.0053 -0.3425 -0.0966
22318W        W65231   9.184  16.154  24.347 -0.2503  0.1359  0.1265
22319W        W65232  14.443  33.514  21.669  0.1252  0.1054  0.4466
22320W        W65233   5.494   4.877  21.800  0.3411 -0.0424 -0.1662
22321W        W65234  11.720   0.016  27.700 -0.0767 -0.2523  0.1293
22322W        W65235   4.614  29.318  25.079 -0.2155  0.0878  0.1568
22323W        W65236   1.479  30.654  24.140  0.0027 -0.1530  0.0804
22324W        W65237   9.583  11.495  16.474  0.0330 -0.0542 -0.0840
22325W        W65238   0.115  34.100  24.434  0.0434 -0.0870 -0.0768
22326W        W65239  32.484  11.130  23.891  0.0869 -0.2160 -0.1801
22327W        W65240  28.232   2.588  22.617  0.3111  0.1410 -0.1787
22328W        W65241  14.120   2.012  25.405 -0.1974 -0.0411 -0.0386
22329W        W65242  22.699   9.814   0.912  0.0599 -0.2312 -0.4782
22330W        W65243   9.892  32.137  25.475 -0.3238  0.2025  0.1842
22331W        W65244   5.970   3.071  17.256 -0.3473  0.2343 -0.2188
22332W        W65245  33.998  11.594  10.655  0.0869 -0.0902 -0.1961
22333W        W65246  15.126   4.836  23.339 -0.0617 -0.1151 -0.2564
22334W        W65247   0.048   3.530  18.514 -0.1200 -0.0977 -0.1135
22335W        W65248   2.619  32.541  23.913  0.0952  0.1279 -0.4605
22336W        W65249   1.106   6.708   0.174  0.0196  0.3929  0.2180
22337W        W65250  19.404   2.687  17.780 -0.1155 -0.1666  0.0116
22338W        W65251   1.544   7.554  18.747 -0.0675  0.0445 -0.2154
22339W        W65252   5.175  22.699   1.161 -0.0085 -0.1028 -0.0525
22340W        W65253  18.863   0.466  21.824  0.2949  0.4642  0.0410
22341W        W65254  19.090  32.933   4.629  0.3521  0.1146 -0.3626
22342W        W65255   2.771   4.250   0.386 -0.1785  0.0681 -0.1562
22343W        W65256  11.847  14.149  29.000  0.0031  0.0639  0.2016
22344W        W65257  16.353  13.492  14.875  0.2113 -0.0589 -0.0035
22345W        W65258   3.335   6.108  21.637 -0.3094 -0.3347  0.0245
22346W        W65259  13.292  16.276  13.662  0.0063  0.2615  0.0193
22347W        W65260   9.416  31.210  17.085  0.2400 -0.0653 -0.0523
22348W        W65261   5.256  25.707  27.494  0.1869 -0.3450 -0.0401
22349W        W65262  10.538   5.386  23.720  0.2243  0.2873 -0.1251
22350W        W65263  29.033  28.739   1.700  0.0709 -0.0768 -0.0880
22351W        W65264   9.470   4.196  19.340  0.0412 -0.1282  0.2987
22352W        W65265   7.296  12.145  27.853 -0.1957 -0.1165  0.1384
22353W        W65266   5.525   2.947  17.734  0.0162 -0.0336 -0.2964
22354W        W65267  13.012  14.095  21.542  0.1119 -0.0281  0.2202
22355W        W65268  20.314   7.106  25.653 -0.1155 -0.0291  0.0543
22356W        W65269  10.776   8.107  24.420  0.0704  0.0190 -0.0640
22357W        W65270  11.958   4.634  24.843  0.2257  0.1206 -0.0709
22358W        W65271  31.956   0.959  17.900 -0.0583 -0.1618  0.0498
22359W        W65272  29.354  14.903  21.772 -0.1112 -0.1236  0.0872
22360W        W65273  10.217  15.885  29.165  0.2564 -0.3196 -0.1826
22361W        W65274  31.011  30.179   7.044 -0.0255 -0.0833 -0.1735
22362W        W65275  19.520   0.940  24.863  0.1987 -0.2145  0.0842
22363W        W65276   4.186   8.980  10.365  0.0900  0.1564 -0.1943
22364W        W65277  25.499   8.912  25.405 -0.0223  0.0267  0.0109
22365W        W65278  26.184   6.494  22.563  0.2651  0.0362 -0.0092
22366W        W65279   0.974   7.405  23.952  0.0098  0.3736 -0.2051
22367W        W65280   5.729  33.090  28.057  0.1186  0.4514 -0.4434
22368W        W65281  11.981   3.313  20.820 -0.1114  0.0353 -0.1900
22369W        W65282  11.359   5.342  21.257  0.2639 -0.2463  0.0079
22370W        W65283   2.508   9.870   1.311 -0.0276  0.2284  0.0570
22371W        W65284   7.173  32.930  22.736  0.2498  0.0249 -0.0996
22372W        W65285  29.501   1.852  25.837  0.0440  0.0290 -0.1041
22373W        W65286   5.101  32.681  23.445  0.0011 -0.1400  0.0806
22374W        W65287   3.029  11.835  29.462  0.0305  0.1792  0.1892
22375W        W65288  10.156  15.400  25.125 -0.0856 -0.0723 -0.0307
22376W        W65289  12.617  33.166  23.403 -0.0963  0.0513 -0.1377
22377W        W65290  11.933   9.181  18.031  0.0658  0.1294  0.3765
22378W        W65291   2.996   0.777  27.295  0.2768 -0.2094 -0.1662
22379W        W65292  18.010   6.417   0.355 -0.0674 -0.0384  0.1938
22380W        W65293   5.850  11.000  20.557 -0.0923  0.0535 -0.4188
22381W        W65294  34.196  11.336   1.862 -0.0012  0.0925  0.1458
22382W        W65295  11.926  34.239  20.405  0.3893 -0.1451  0.0581
22383W        W65296  11.520   7.167  21.685  0.1850  0.3083 -0.0587
22384W        W65297   9.145   2.350  21.911 -0.1968  0.0645  0.3482
22385W        W65298   8.186   6.837  16.748 -0.2013 -0.2078  0.2961
22386W        W65299  26.436  17.266   0.760  0.0082  0.3393 -0.1042
22387W        W65300   0.594  30.686   0.040 -0.2038  0.2722  0.0169
22388W        W65301   8.021   4.093  20.934 -0.2517 -0.0471  0.0302
22389W        W65302  10.598   6.512  17.701  0.1482  0.1378 -0.0961
22390W        W65303  16.967   5.374  20.450  0.1286  0.1262 -0.2155
22391W        W65304  30.566   5.108  22.665  0.2812  0.1625  0.3828
22392W        W65305  34.441   6.133  20.570  0.1741 -0.0740 -0.3130
22393W        W65306   4.702  11.963   2.590  0.0671  0.2528  0.2454
22394W        W65307  18.762  21.702   1.282 -0.1798 -0.2480  0.0848
22395W        W65308  12.422   4.423  27.200  0.0973  0.0610  0.0749
22396W        W65309  12.569  25.942  19.982 -0.3638 -0.0996 -0.0158
22397W        W65310   8.957  10.800  24.872 -0.0561  0.0799  0.2689
22398W        W65311   3.277   8.165  23.618  0.1030 -0.1942 -0.0558
22399W        W65312  33.143  10.056   0.399 -0.1830  0.1118  0.1463
22400W        W65313  13.492   3.566   2.144  0.0861 -0.1697  0.0417
22401W        W65314   0.424  17.712  27.000 -0.0169 -0.1074  0.0024
22402W        W65315   2.395  11.359  26.373 -0.0876  0.1488  0.1736
22403W        W65316  12.192   9.956  15.131 -0.4242 -0.0632  0.2280
22404W        W65317   1.051   0.860  27.271 -0.2562 -0.2230 -0.0428
22405W        W65318   2.079  14.911  19.720 -0.1178 -0.1650 -0.0378
22406W        W65319   1.063  11.632  18.310  0.0301  0.0595  0.2534
22407W        W65320   1.803   3.517  17.483 -0.1968  0.2377 -0.2819
22408W        W65321   8.148   4.629  25.510 -0.3132 -0.0539  0.0701
22409W        W65322   5.377   6.002  20.683 -0.1814 -0.1164  0.2206
22410W        W65323   3.874  32.551  24.057 -0.0763  0.1108  0.1726
22411W        W65324  13.932   7.089  24.410 -0.0897  0.3095 -0.2939
22412W        W65325   0.753   5.647   3.655  0.0646  0.2311  0.3171
22413W        W65326   5.539  32.560  20.439  0.0673 -0.0924 -0.0899
22414W        W65327  12.084   4.543  25.353  0.0084 -0.2133  0.0151
22415W        W65328  12.864  34.368   2.721  0.1386  0.1125  0.0641
22416W        W65329   7.190   8.480  27.838  0.0585 -0.1473 -0.0611
22417W        W65330  18.237  30.910   8.763 -0.1149  0.1909 -0.1700
22418W        W65331   9.004   5.898  23.221  0.2593 -0.0755 -0.0126
22419W        W65332   3.513   7.390  26.652  0.2521  0.1026  0.0764
22420W        W65333   7.940  32.410  25.480  0.1552 -0.1987  0.0501
22421W        W65334   3.387  15.857  24.899 -0.0642 -0.1160  0.0573
22422W        W65335   5.977   2.688   3.698 -0.1046 -0.0807  0.3430
22423W        W65336  13.407  32.685  16.473 -0.0881 -0.0104 -0.2381
22424W        W65337   6.198   6.486  19.787 -0.0937 -0.2400 -0.0152
22425W        W65338  18.618  34.456  19.427 -0.0868  0.0047  0.0166
22426W        W65339  10.606  33.423  15.907  0.2118  0.0307  0.0324
22427W        W65340  33.137   3.553  16.855 -0.3906 -0.1414  0.2087
22428W        W65341   2.432   6.875  16.382  0.1097  0.1484  0.1065
22429W        W65342   2.420   6.907  23.382  0.1226  0.2771 -0.1871
22430W        W65343  13.599  14.977  15.441  0.0752  0.2204  0.1702
22431W        W65344  10.264  33.676   7.677  0.1631  0.1327 -0.0379
22432W        W65345   2.024   5.044  18.499 -0.3188 -0.3103 -0.3758
22433W        W65346   2.218  29.076   2.973 -0.1114  0.1962 -0.3181
22434W        W65347  30.788   8.148  15.796  0.0148 -0.1697 -0.3723
22435W        W65348  27.893  17.349   1.745  0.0156  0.2347 -0.1923
22436W        W65349  32.077   5.753   2.237 -0.1495  0.2890  0.1244
22437W        W65350   6.542   0.069  22.079  0.3151  0.2103 -0.0471
22438W        W65351   8.364  12.282  22.840  0.0070  0.0919  0.1582
22439W        W65352  29.688  12.840   3.359  0.0866 -0.0052 -0.0939
22440W        W65353  11.128   3.630  19.181  0.0908  0.1580  0.2070
22441W        W65354   6.174   4.851  24.564  0.1226  0.0614 -0.3167
22442W        W65355   6.043   0.106   3.944  0.0358 -0.1044 -0.2538
22443W        W65356  18.069   4.566  19.416  0.3686  0.1462  0.0987
22444W        W65357   5.176   3.799  21.311  0.0239 -0.2106  0.0215
22445W        W65358  12.377   3.833  26.335  0.1766 -0.0802 -0.0696
22446W        W65359   0.506   5.251  18.138  0.0348  0.0217 -0.3412
22447W        W65360   1.524  10.267  27.492 -0.0053 -0.0410  0.1448
22448W        W65361   4.147   6.455  18.455  0.0974  0.3717 -0.0803
22449W        W65362  16.428  33.920  28.842  0.0920  0.0188  0.0431
22450W        W65363  12.423   1.194  23.830 -0.1066  0.1616 -0.0887
22451W        W65364  29.783  14.046  23.961 -0.2750  0.0849  0.2618
22452W        W65365  11.919   7.371  27.348 -0.0688  0.0748  0.4384
22453W        W65366  29.775  33.922  29.112  0.1339  0.1489 -0.0450
22454W        W65367   4.500   3.279  19.714  0.1052  0.0357 -0.0599
22455W        W65368  13.465  32.823  27.384  0.0771 -0.0546  0.0441
22456W        W65369  26.858  34.391  27.711 -0.2237 -0.1002  0.0069
22457W        W65370   6.753   2.612  28.470  0.1567  0.0750 -0.0152
22458W        W65371  10.917   1.114   6.273 -0.1486  0.1004 -0.1345
22459W        W65372   6.875  33.355  28.500 -0.0809  0.0254 -0.2093
22460W        W65373  11.510   5.049   6.410 -0.0055  0.0605  0.3084
22461W        W65374  15.346  21.436  17.442 -0.2297  0.3698 -0.2470
22462W        W65375   5.684   0.618   4.940  0.3160  0.0572 -0.1099
22463W        W65376   6.821   2.789  18.730  0.0308 -0.1168 -0.5108
22464W        W65377  11.324   9.407  18.588 -0.1224  0.0731  0.1539
22465W        W65378   4.890  16.068  22.445 -0.5572  0.0855  0.0078
22466W        W65379  11.893  32.676  22.147 -0.3289  0.0560 -0.1826
22467W        W65380   2.703   9.507  25.622  0.0100  0.0385  0.0182
22468W        W65381   8.419   4.963  25.245  0.1783 -0.0964 -0.0187
22469W        W65382   4.532   2.285  22.277  0.0527  0.0948 -0.0424
22470W        W65383  32.974   0.702  16.785  0.2906  0.4029 -0.0888
22471W        W65384   8.213   0.789  11.389  0.1768 -0.0955 -0.2694
22472W        W65385  18.729   0.586  23.611  0.1617 -0.3763 -0.0417
22473W        W65386  13.105   4.986  18.446  0.1382  0.2119  0.0004
22474W        W65387  10.323   5.993  22.765 -0.2380  0.0995  0.1666
22475W        W65388   5.834  30.806  29.700  0.1434  0.1891 -0.0268
22476W        W65389  30.233  24.075  17.017  0.0069 -0.2341  0.0851
22477W        W65390  20.441   3.699  20.878  0.2366 -0.2762 -0.0183
22478W        W65391  32.272   5.394  20.342 -0.2057 -0.2238 -0.0369
22479W        W65392   6.216  13.611  26.070  0.0444 -0.0235  0.2933
22480W        W65393  32.881   2.392  19.628  0.0896  0.0804  0.5318
22481W        W65394  33.004   0.233   9.608  0.1540  0.0437  0.1158
22482W        W65395   6.059   8.773  12.419 -0.2854 -0.2401  0.0032
22483W        W65396   2.367   4.574  27.019 -0.2205  0.2169  0.0289
22484W        W65397  17.030  24.077   7.086  0.1441 -0.1492  0.1992
22485W        W65398   5.091   3.969  22.894  0.1528  0.0949 -0.1117
22486W        W65399  32.607   9.718  25.496 -0.1513  0.2045 -0.0375
22487W        W65400   6.503  13.533  28.229  0.0474  0.0958  0.0013
22488W        W65401  13.043   4.515   9.695  0.1298 -0.1214 -0.0817
22489W        W65402   1.539   3.351  17.944 -0.0018 -0.2923 -0.1112
22490W        W65403  15.089   6.071  27.469 -0.0348  0.1509  0.0875
22491W        W65404  14.955   7.404  25.671 -0.1311  0.1528 -0.0649
22492W        W65405   6.162  13.620  20.970  0.0390 -0.1684  0.0800
22493W        W65406   1.682   4.005  19.409 -0.4844 -0.0835  0.0464
22494W        W65407  10.258   9.506  22.914  0.0881 -0.3747 -0.2219
22495W        W65408   5.151   7.917  25.326  0.0394 -0.2375  0.1193
22496W        W65409   8.170   4.861   1.412  0.2249  0.3544 -0.0462
22497W        W65410   3.716   7.080  28.929 -0.0024  0.0492  0.2086
22498W        W65411   9.297  15.869  20.118  0.0657 -0.1658  0.0634
22499W        W65412   0.785   6.946  23.807 -0.3891 -0.0926 -0.0460
22500W        W65413   3.404  11.436  25.012  0.0198  0.2410 -0.1936
22501W        W65414   0.557  14.055  28.536 -0.3886  0.1801 -0.3782
22502W        W65415   3.580  33.521  18.403  0.0326 -0.1886 -0.4431
22503W        W65416   8.381  14.048  16.172 -0.2823 -0.1334 -0.2218
22504W        W65417   7.214   7.013   3.480 -0.3381  0.0585 -0.0371
22505W        W65418  29.057  28.136  26.957  0.0728  0.2116  0.1195
22506W        W65419   3.962  26.848  21.882  0.2319  0.0109 -0.0794
22507W        W65420  13.215   3.023  15.950  0.1423  0.0254  0.3323
22508W        W65421   4.275   2.949  20.067  0.1236 -0.1653 -0.2696
22509W        W65422   9.013   3.701  22.344 -0.0863  0.3429 -0.2471
22510W        W65423   8.847  11.916  24.534  0.0745  0.0786 -0.0705
22511W        W65424   8.221  32.805  21.428 -0.1298  0.1466 -0.3250
22512W        W65425   9.888   9.341  17.425  0.4127  0.1806  0.1145
22513W        W65426   2.352   0.260  28.897  0.2635 -0.3043  0.0645
22514W        W65427  12.457   5.307  28.048 -0.1698 -0.1786  0.0164
22515W        W65428   6.371   3.114  23.073 -0.0180  0.0230  0.1965
22516W        W65429   5.141   5.631  17.230  0.1329 -0.2216  0.4650
22517W        W65430   7.590   2.835   0.506  0.0302  0.2684 -0.3333
22518W        W65431   7.020   2.013  23.019  0.0137 -0.0131 -0.0510
22519W        W65432  11.814  32.609  23.533  0.0677 -0.1526 -0.3250
22520W        W65433  10.485   8.677  25.407  0.2197 -0.0233 -0.2738
22521W        W65434   6.952   9.777  28.426 -0.0260 -0.1403 -0.0752
22522W        W65435  34.301   9.798  27.796 -0.0947 -0.2310  0.2182
22523W        W65436  16.454   1.828  25.093  0.1256 -0.0661 -0.2133
22524W        W65437   5.161  11.292  17.353 -0.1230 -0.2553 -0.0417
22525W        W65438   3.384   0.981   0.564  0.1280 -0.0187 -0.4674
22526W        W65439  10.662   8.841  20.657 -0.2919  0.0860 -0.0407
22527W        W65440  24.769  30.691  20.038 -0.1924 -0.1429  0.3558
22528W        W65441   1.399   8.524  20.255  0.1096 -0.2803 -0.0195
22529W        W65442   8.262   1.968  27.563  0.2034 -0.0433  0.2090
22530W        W65443   2.855  10.372  23.118 -0.4499  0.0052 -0.1822
22531W        W65444  15.222   1.588  21.704  0.1998 -0.0611 -0.0109
22532W        W65445   9.303  15.931   4.768  0.1507 -0.0486  0.1043
22533W        W65446  33.929  31.707  26.062  0.1390  0.2483 -0.0092
22534W        W65447   9.670   3.930  21.824 -0.2374 -0.0606 -0.0215
22535W        W65448   0.998   6.904  20.049  0.1044 -0.0944 -0.1473
22536W        W65449   5.765  10.235  21.551  0.1258  0.0185  0.2149
22537W        W65450   4.817  11.186  23.933 -0.2782 -0.0822 -0.0577
22538W        W65451  34.478   3.072  19.722 -0.0613  0.1059 -0.0932
22539W        W65452  24.669   1.441   2.114  0.2043  0.0516 -0.0190
22540W        W65453   5.334  17.176  26.399  0.0093  0.0995 -0.0312
22541W        W65454   9.374  32.689  26.715  0.6804 -0.0744 -0.1031
22542W        W65455   3.628  13.237  23.835  0.0685 -0.2628 -0.2183
22543W        W65456   2.122  32.644   0.914  0.0960  0.2730  0.2277
22544W        W65457   6.478   5.193  21.489  0.2781  0.4324 -0.2967
22545W        W65458   3.564   1.747  24.246 -0.0893  0.0874  0.1315
22546W        W65459   0.864   9.112  25.254 -0.1646  0.1057 -0.0525
22547W        W65460   7.353  26.646   0.977  0.0064  0.1355 -0.1233
22548W        W65461  11.806   5.173   1.235 -0.0143  0.0190 -0.1754
22549W        W65462  12.702   2.488  18.110  0.1763  0.2513  0.0447
22550W        W65463   1.669   9.125  23.131 -0.3259  0.0372 -0.2154
22551W        W65464  31.781   9.382  21.285  0.1031  0.0206  0.2648
22552W        W65465   3.889   1.663  18.013 -0.2336 -0.1950 -0.3493
22553W        W65466   6.303   8.054   1.652  0.1383 -0.0451 -0.1889
22554W        W65467  13.655   2.884  24.501 -0.5327  0.0764 -0.2638
22555W        W65468   6.112   1.349  28.770  0.0937 -0.2945  0.0568
22556W        W65469  13.189   6.518  18.088  0.0598  0.1320  0.1400
22557W        W65470  15.955  11.056  21.481  0.0136  0.0183 -0.0478
22558W        W65471   3.128  31.922  28.893 -0.1084 -0.1724 -0.2478
22559W        W65472  18.221   1.494  26.070  0.0766 -0.0544 -0.3902
22560W        W65473   9.612  15.553  18.396 -0.1590  0.2865  0.0817
22561W        W65474   6.305  10.358   2.250  0.0426  0.1075  0.0733
22562W        W65475  12.065  17.119  25.350  0.2685 -0.0950 -0.0198
22563W        W65476   2.094  30.914  25.246  0.0567 -0.0560  0.1662
22564W        W65477  29.766   2.121  18.421 -0.2138  0.1901  0.0403
22565W        W65478   4.497  12.032  26.344  0.0100  0.2010 -0.0458
22566W        W65479   2.645   2.779  23.458 -0.1292 -0.0462  0.3649
22567W        W65480   8.941   0.209  26.256  0.0735  0.2295  0.2424
22568W        W65481   2.822   8.751  23.784  0.2065 -0.0611  0.1824
22569W        W65482  10.946  13.819  21.849 -0.0149 -0.1216 -0.1150
22570W        W65483   3.918   6.391   0.342 -0.0861  0.0131 -0.1861
22571W        W65484   1.467   0.535  21.420  0.0519  0.2694  0.0184
22572W        W65485  15.749   5.989   0.648  0.0144 -0.1272  0.2154
22573W        W65486  27.565   0.928  20.673  0.3486  0.0809 -0.1116
22574W        W65487   1.586   0.923  22.032  0.1626  0.2212 -0.0138
22575W        W65488  11.551  31.485  16.664  0.0057  0.6072 -0.3080
22576W        W65489  33.645  33.116  22.184  0.0649 -0.2443 -0.3416
22577W        W65490   9.868  33.896   5.392  0.0266 -0.0460 -0.1560
22578W        W65491  12.670  32.965   0.985  0.4324 -0.4218 -0.1362
22579W        W65492  13.026  10.177  19.196  0.0938  0.0837 -0.3239
22580W        W65493   6.677   8.934   4.441 -0.0171 -0.3375 -0.2928
22581W        W65494   1.764   9.240   8.924  0.2547 -0.0995 -0.2585
22582W        W65495   6.698   5.948  23.185 -0.0579  0.1755  0.0405
22583W        W65496   3.899   8.750   6.924 -0.1809  0.3271 -0.0287
22584W        W65497  20.963  28.132   6.442  0.0337  0.2462 -0.2132
22585W        W65498  12.000   4.305  29.148  0.0620  0.0473 -0.0226
22586W        W65499   2.192   4.246  18.695 -0.0838 -0.0010  0.0490
22587W        W65500  13.813  22.463  17.039 -0.1103  0.1036  0.0395
22588W        W65501  33.230   6.331  15.832 -0.1701 -0.0321 -0.0134
22589W        W65502   7.222   2.206  18.742 -0.3117  0.0202  0.0923
22590W        W65503   8.411   8.193  22.154 -0.1563 -0.0505  0.0527
22591W        W65504  15.484  21.032  28.943  0.1664  0.2434 -0.1659
22592W        W65505  31.576   3.031   0.681  0.2410 -0.1802  0.1580
22593W        W65506   9.948   0.805   3.406 -0.3034 -0.1338  0.1213
22594W        W65507  11.985  29.720  19.913  0.0110 -0.2544 -0.3011
22595W        W65508   4.264  11.326  28.250 -0.1884 -0.1934  0.0437
22596W        W65509   3.679  28.813  18.991 -0.1423 -0.0962 -0.0504
22597W        W65510  10.874  14.084   3.871 -0.1331  0.1668  0.3689
22598W        W65511   5.569  30.960  10.712 -0.0563  0.2255 -0.1771
22599W        W65512   8.743  27.821  22.448  0.2052  0.2289 -0.0118
22600W        W65513   8.846   1.264  28.073  0.0761  0.0613 -0.0902
22601W        W65514   0.326  18.846  28.181 -0.3492 -0.1718 -0.0355
22602W        W65515  13.325   3.287  24.582 -0.2804 -0.0708 -0.1946
22603W        W65516   9.898  28.717   1.565 -0.0055 -0.1261  0.1378
22604W        W65517  12.559   6.193  17.420 -0.1503  0.1636 -0.0293
22605W        W65518  16.965   4.064  24.993 -0.0196 -0.0369 -0.1331
22606W        W65519   2.305  11.354  27.747 -0.1688  0.0309  0.0845
22607W        W65520  12.485  34.368  22.161  0.0949  0.0527 -0.0385
22608W        W65521   3.235   7.708  23.411 -0.2149 -0.0019 -0.1702
22609W        W65522  32.420  11.234  20.753 -0.2596 -0.0825  0.2742
22610W        W65523  13.004   2.035  15.675 -0.2041  0.0983 -0.2966
22611W        W65524  24.203  33.544  14.927  0.0506  0.1865 -0.2314
22612W        W65525  17.736   6.910  15.241 -0.2196  0.2064 -0.1675
22613W        W65526   3.913  12.536   0.009 -0.0071 -0.1477 -0.1571
22614W        W65527   0.790   7.128  17.314  0.0897 -0.0495 -0.0104
22615W        W65528  11.391   0.509  27.930 -0.0920 -0.1772 -0.0083
22616W        W65529  28.363  13.386   0.534  0.0339 -0.1426 -0.1639
22617W        W65530   8.679  27.359   4.884 -0.1876  0.2979  0.2761
22618W        W65531  13.745   4.944  26.989  0.0733  0.2117 -0.1394
22619W        W65532  12.067   4.345  24.281  0.1004 -0.0053 -0.1269
22620W        W65533   8.380  33.936  17.413  0.5693  0.2113 -0.0890
22621W        W65534  28.965  15.406  25.512  0.1409  0.1266  0.1070
22622W        W65535  10.167  10.028  22.725  0.0180  0.3142  0.0712
22623W        W65536   4.428   5.770  27.225 -0.2499  0.1383 -0.5276
22624W        W65537   9.359  32.097  24.392 -0.3249 -0.0229  0.0265
22625W        W65538  31.566  20.287  27.575 -0.0321  0.1001 -0.1338
22626W        W65539  14.553  31.944   3.974  0.2224 -0.0029  0.2552
22627W        W65540  13.771  10.304   0.550 -0.3004 -0.2564  0.2745
22628W        W65541  11.954  16.067  16.517 -0.2900  0.1585  0.0042
22629W        W65542   3.267  29.905  25.897 -0.0233  0.2428  0.0668
22630W        W65543  13.407  32.734  24.799 -0.4150  0.1377 -0.0107
22631W        W65544   1.608   1.434   7.347  0.0206 -0.0479 -0.0690
22632W        W65545   0.241   2.175  19.378 -0.2923 -0.1145 -0.2481
22633W        W65546   3.092  34.244  18.879  0.1542  0.2993 -0.1743
22634W        W65547  11.728   8.738  22.887  0.3301  0.0185 -0.0246
22635W        W65548   8.977   4.146  25.198 -0.4872 -0.2279  0.0351
22636W        W65549   5.197   1.031  28.749  0.0428  0.5544 -0.2167
22637W        W65550   2.077   1.843  28.593  0.2300 -0.0904 -0.2655
22638W        W65551   4.700   2.193  27.287 -0.1059  0.3474 -0.2535
22639W        W65552   7.217  19.252  23.899 -0.2077  0.3337 -0.1270
22640W        W65553   0.446  34.479  18.833 -0.0129  0.0949 -0.0131
22641W        W65554   2.572  29.396  24.254  0.1721 -0.2839  0.0102
22642W        W65555  33.464   0.189   4.033  0.2693  0.1607  0.3201
22643W        W65556   5.658   2.354  20.143 -0.1128  0.0353  0.0807
22644W        W65557  12.067  11.215  26.290 -0.3279 -0.0368 -0.4386
22645W        W65558   1.422   8.153  26.496 -0.0239 -0.0286  0.4240
22646W        W65559  15.892   8.314  16.169  0.0692 -0.3928  0.1415
22647W        W65560  11.744   3.540   1.258 -0.1337 -0.0409 -0.2963
22648W        W65561   6.680   2.267  20.550  0.0889  0.1269  0.1333
22649W        W65562  10.158   5.850  27.005 -0.1690 -0.1381  0.2380
22650W        W65563   2.837  11.399  21.984  0.1125 -0.0261 -0.3969
22651W        W65564   1.814  12.480   1.179  0.1708  0.2723  0.0194
22652W        W65565  14.759   3.362  20.179  0.1492 -0.1493  0.0940
22653W        W65566  27.032   9.851  18.826  0.0923  0.1978  0.2474
22654W        W65567   4.972   0.117   1.260  0.0642  0.2758  0.0933
22655W        W65568   7.411  22.999   1.357 -0.2010  0.2943 -0.2073
22656W        W65569   6.966   0.236  25.958 -0.0945  0.0191  0.1666
22657W        W65570  10.085  31.335  20.433 -0.2011 -0.0651 -0.1893
22658W        W65571   8.118  29.099  24.866  0.2594 -0.1120  0.0643
22659W        W65572   7.446   9.429  22.446 -0.1497  0.1543 -0.4162
22660W        W65573   3.686   9.945  20.953 -0.5199  0.0078 -0.0253
22661W        W65574  15.920  16.031   0.467 -0.0391  0.2800 -0.3380
22662W        W65575   5.393  16.852   4.497  0.0404 -0.3131  0.0853
22663W        W65576   1.410   3.686  27.590  0.2305  0.1045  0.3317
22664W        W65577  13.846   6.778  10.701  0.1573  0.1592 -0.1409
22665W        W65578   3.510  20.548  22.783 -0.1449  0.1481 -0.3073
22666W        W65579   5.667   3.311  18.040 -0.1930 -0.0736  0.0747
22667W        W65580   3.092  24.556   2.462 -0.3230  0.0980 -0.2087
22668W        W65581   2.626   6.542  22.538 -0.0105 -0.1751 -0.0731
22669W        W65582  12.678  11.277   0.565 -0.3482  0.1486 -0.0019
22670W        W65583   8.731  30.631   3.963  0.0234  0.0043  0.2154
22671W        W65584  12.862   1.668  22.918 -0.0770 -0.2345  0.2973
22672W        W65585   8.612   4.524  24.444 -0.1795 -0.2152 -0.2446
22673W        W65586   3.929  12.333  15.276 -0.3143 -0.1405  0.1494
22674W        W65587   4.687  31.678  21.259  0.2136 -0.0016 -0.0874
22675W        W65588   8.220   7.507   0.108  0.2644 -0.1535 -0.1908
22676W        W65589   9.415   0.021  18.984  0.2834  0.0461 -0.0450
22677W        W65590  31.877  14.043  15.021  0.0763  0.1692  0.0051
22678W        W65591  32.125  17.963   2.229  0.0929 -0.4133  0.0115
22679W        W65592   4.931   3.904  25.787 -0.0497 -0.2445 -0.0780
22680W        W65593   5.330   1.249  25.583  0.3008  0.2520  0.1056
22681W        W65594  12.393   7.160  23.441  0.0577  0.2683  0.0332
22682W        W65595  33.271   6.215  21.738 -0.1283 -0.1172  0.1188
22683W        W65596  32.955   7.835   3.126 -0.1223 -0.3404  0.0371
22684W        W65597   7.829  32.454  26.537 -0.2487 -0.2264 -0.0062
22685W        W65598   7.109  12.884  23.544 -0.1901 -0.0564 -0.0893
22686W        W65599   6.288   2.344  19.963 -0.0528  0.0847 -0.0153
22687W        W65600   6.045  33.026  17.889 -0.0913 -0.0606 -0.1660
22688W        W65601   3.112   7.715  20.958 -0.1226 -0.3142 -0.1076
22689W        W65602   3.868  29.246  18.813  0.1164 -0.1307  0.2853
22690W        W65603   7.358   4.586  23.188  0.0829  0.0629 -0.0679
22691W        W65604   4.767  25.458  18.212  0.0805  0.0068 -0.1447
22692W        W65605   2.161   5.353  29.448  0.2550 -0.0325 -0.0964
22693W        W65606  13.051  15.193  20.140  0.0339 -0.1615  0.0877
22694W        W65607  16.226   4.547   0.942  0.1130 -0.0463 -0.1482
22695W        W65608   5.130   3.324  18.749  0.0083 -0.1413 -0.3065
22696W        W65609  33.554   2.639   0.348  0.3370 -0.4260 -0.1020
22697W        W65610   4.042   1.974  22.386  0.0113  0.1472  0.1216
22698W        W65611  14.977  33.206   1.518 -0.1616  0.1283 -0.2614
22699W        W65612   7.814   6.315  20.671 -0.0576  0.1101 -0.0911
22700W        W65613  17.385  10.328  22.182  0.2192  0.2549 -0.1762
22701W        W65614  17.219   8.062  20.818 -0.0296 -0.0834 -0.2398
22702W        W65615  31.288   2.236  19.700  0.2377  0.1783  0.3072
22703W        W65616  29.001  10.282  25.030 -0.0827  0.1449 -0.1164
22704W        W65617  16.899  28.919  15.108  0.2342  0.1223 -0.2173
22705W        W65618   6.977  34.034  24.005 -0.1857 -0.1461  0.0334
22706W        W65619   3.823   7.771   9.222 -0.1819  0.0815 -0.2468
22707W        W65620   1.589  30.878  18.300  0.0527 -0.5172 -0.2134
22708W        W65621  34.274  11.025   3.235 -0.0727 -0.3051 -0.0016
22709W        W65622   9.705   8.960  26.760 -0.1171 -0.2002  0.0077
22710W        W65623  18.940   7.232  21.682 -0.0400  0.1671 -0.0055
22711W        W65624  34.372  30.626  23.868  0.4243 -0.4851  0.1363
22712W        W65625  10.440   5.303  22.149  0.1062  0.1370  0.0374
22713W        W65626  16.326  13.687   2.744 -0.4386  0.1109  0.0811
22714W        W65627   6.834  25.933  22.351  0.2145  0.0566  0.4260
22715W        W65628   6.230  11.894  22.353  0.0461  0.0500  0.0384
22716W        W65629   0.436  34.490  17.751  0.2861 -0.1775  0.0084
22717W        W65630   1.309   1.180   0.301 -0.0094  0.2315  0.2345
22718W        W65631   1.816  32.809  27.442 -0.1026 -0.0041 -0.0294
22719W        W65632   8.641   2.704  20.782  0.1524 -0.2191 -0.1359
22720W        W65633  31.334   5.582  18.187 -0.2003  0.3556 -0.1089
22721W        W65634   5.930   7.147  24.708  0.2443 -0.1084  0.2187
22722W        W65635  31.249  32.390  25.587 -0.1352 -0.0775 -0.0471
22723W        W65636   3.972   6.172   0.844  0.4420 -0.1343  0.0256
22724W        W65637   8.928   9.365  15.886 -0.3673 -0.2720 -0.0943
22725W        W65638   8.719   1.970  20.222  0.0628 -0.1076 -0.0502
22726W        W65639   7.007   6.133   6.646 -0.1066  0.0204 -0.1849
22727W        W65640   9.698   5.309   0.622  0.1735 -0.0993  0.0073
22728W        W65641   3.895   4.686  29.685 -0.1250 -0.1389 -0.2049
22729W        W65642  33.561  30.084  27.699  0.3728  0.1020 -0.1485
22730W        W65643  13.412   4.336  20.231  0.0007 -0.0177 -0.0487
22731W        W65644  12.774   3.330  22.386  0.0571 -0.0406 -0.0895
22732W        W65645   1.809  30.983   2.849  0.2151 -0.0732 -0.1699
22733W        W65646   8.062  10.185  18.492 -0.1143 -0.1733  0.4081
22734W        W65647   1.939   6.506  25.096  0.1891 -0.2560  0.1227
22735W        W65648  21.088   6.158   2.720 -0.0280 -0.0053  0.1394
22736W        W65649  12.465  32.893  25.655  0.3568  0.2113  0.0773
22737W        W65650  14.073  31.888  28.129 -0.1247 -0.0305  0.3113
22738W        W65651   2.787  11.142  22.930 -0.1686  0.1201 -0.0406
22739W        W65652   2.537   7.404  19.305 -0.0235 -0.0647  0.3423
22740W        W65653   3.022   9.412  21.601  0.2591  0.0844 -0.4251
22741W        W65654  33.137   4.200   3.400 -0.5653  0.0385 -0.0470
22742W        W65655  12.065   6.383  24.591  0.1798 -0.1811  0.0293
22743W        W65656   8.485   2.032  28.615 -0.0555 -0.4118  0.1718
22744W        W65657   4.047  11.268   1.301  0.1542 -0.2384 -0.0238
22745W        W65658  12.351  14.244  22.317 -0.3744 -0.0582  0.2343
22746W        W65659   2.405  29.409  25.292 -0.1411  0.2273 -0.1134
22747W        W65660   4.313  32.183  23.313  0.0472  0.2362  0.2525
22748W        W65661   5.075   7.300  12.687 -0.0711  0.1260  0.0844
22749W        W65662  12.203   6.636  29.110 -0.3792  0.2834  0.1057
22750W        W65663  31.210   2.554  29.284  0.1968 -0.0234 -0.2988
22751W        W65664   2.769  10.158  24.975  0.0006  0.3119 -0.0759
22752W        W65665   5.012   2.438   8.880  0.0257  0.2357  0.0131
22753W        W65666  32.090  10.644  21.561 -0.0280  0.0028 -0.2499
22754W        W65667  16.436   9.526  20.068  0.1554  0.1294  0.3665
22755W        W65668  24.389  17.063   5.833 -0.0469  0.1397 -0.0498
22756W        W65669  10.334   5.596  24.763 -0.0763 -0.1162 -0.1211
22757W        W65670   0.669   5.105  26.182 -0.2860 -0.0745 -0.2696
22758W        W65671  33.167   6.605   1.728  0.0665  0.1425 -0.0485
22759W        W65672  30.489  17.991   0.723 -0.0857  0.0315  0.0244
22760W        W65673   4.911  15.908  26.896 -0.2792 -0.0697  0.0675
22761W        W65674   7.494   5.749   1.302 -0.0215  0.1497  0.0440
22762W        W65675   2.073   6.948   7.708 -0.0213  0.2827  0.2103
22763W        W65676   9.220   9.504   9.233 -0.0366  0.1853  0.2539
22764W        W65677   3.755   2.056  25.803 -0.1140 -0.0181 -0.1168
22765W        W65678   4.440   6.402  23.845 -0.3803 -0.1041  0.1395
22766W        W65679  33.764   6.328  21.532  0.0161  0.1134 -0.2761
22767W        W65680  28.348  11.331   3.486  0.2649 -0.2643 -0.1617
22768W        W65681   1.472  18.959  28.378  0.4006 -0.1170  0.0819
22769W        W65682  29.219  12.198   4.842 -0.2136  0.2925  0.0954
22770W        W65683  24.658  12.817  13.637  0.0449 -0.2293  0.0434
22771W        W65684   1.128  10.982   6.799 -0.0883  0.1320 -0.3208
22772W        W65685   9.620  17.275  25.773 -0.1598 -0.1185 -0.2938
22773W        W65686  12.118   4.900  23.159 -0.2374 -0.1449  0.0318
22774W        W65687  12.338   9.032  24.968  0.0514 -0.3098  0.1320
22775W        W65688   8.088   3.833  23.941  0.1107  0.1355  0.1579
22776W        W65689   7.445   0.662   0.100 -0.3287 -0.3574 -0.1307
22777W        W65690   8.956  15.161  15.816  0.1185  0.0193 -0.3716
22778W        W65691   2.327   8.600  21.894  0.3190 -0.1813  0.2031
22779W        W65692   4.582   7.323  23.469 -0.0096  0.0870  0.1504
22780W        W65693  12.513  14.884   3.152 -0.0434  0.2774 -0.1621
22781W        W65694  11.458   3.820   7.494  0.1296  0.2927  0.0758
22782W        W65695   6.169  26.038  28.647  0.1263  0.1290  0.1087
22783W        W65696   2.326  23.383  17.832  0.0264  0.1939 -0.1532
22784W        W65697   5.189  11.211   6.801 -0.1091  0.3583  0.0701
22785W        W65698  11.871   3.784  27.069 -0.1898 -0.2856  0.0845
22786W        W65699   9.152   3.025  24.266  0.1287  0.1737  0.2990
22787W        W65700  13.746   5.127   7.972  0.2459  0.5384  0.2274
22788W        W65701   7.918   7.150   3.569 -0.0810 -0.1076  0.0258
22789W        W65702  33.406   1.071  22.928 -0.2426 -0.3075  0.0356
22790W        W65703  32.627   9.305   0.896  0.1471 -0.3670  0.1501
22791W        W65704  12.302   8.872  22.132 -0.3925 -0.3801 -0.2301
22792W        W65705   7.342  19.271  21.400  0.0035  0.0806 -0.1402
22793W        W65706   6.587   9.244  19.903  0.0971  0.3076  0.0934
22794W        W65707  30.958   1.206  27.338 -0.0989 -0.1920  0.2100
22795W        W65708  31.344  30.160   6.587  0.0483 -0.2287 -0.1342
22796W        W65709   3.534  11.781  24.652 -0.1881  0.3730 -0.0680
22797W        W65710  19.643  32.854  23.508 -0.2967 -0.4398  0.2110
22798W        W65711  13.875   5.476  16.177 -0.0677 -0.2014 -0.0997
22799W        W65712   7.603  33.618  16.350  0.0301  0.3304 -0.2178
22800W        W65713   8.928  24.522  24.236 -0.1170  0.1474 -0.3006
22801W        W65714  23.465  30.630   2.973 -0.1112 -0.4927  0.0616
22802W        W65715  11.816  15.445   3.295 -0.0369 -0.0045  0.2053
22803W        W65716   4.698  12.356   9.123 -0.2966  0.2067  0.1144
22804W        W65717  16.018  11.668  19.896 -0.2237 -0.0849  0.3259
22805W        W65718  14.027   7.361  19.502 -0.0968 -0.4604 -0.1851
22806W        W65719  11.311   6.088  27.859 -0.1557 -0.1049 -0.2058
22807W        W65720   6.957   7.002  28.713  0.1629 -0.1319  0.1390
22808W        W65721   9.697   1.671  27.163  0.0739 -0.0328  0.2637
22809W        W65722  20.547   5.533  22.126 -0.0234  0.0372 -0.0793
22810W        W65723  16.783   5.057   0.405  0.0992 -0.1185 -0.1136
22811W        W65724  11.527   8.791  26.265  0.2197 -0.0429 -0.0160
22812W        W65725  30.029   1.792   0.750 -0.3305  0.1612  0.4264
22813W        W65726  15.192   3.137   5.157  0.4488  0.0300  0.5243
22814W        W65727   0.243  29.438   4.345 -0.3803  0.0992 -0.0328
22815W        W65728   7.487   3.056  21.336 -0.1629 -0.1987  0.1837
22816W        W65729  12.339  29.399  25.822 -0.2148  0.1813 -0.0979
22817W        W65730   9.243   3.392  25.004 -0.0658  0.0022  0.2294
22818W        W65731  11.169   4.655   3.289  0.1664  0.0999 -0.0647
22819W        W65732   7.421  14.791  23.250 -0.0818 -0.0511  0.0841
22820W        W65733  29.484   7.889   2.000 -0.1407  0.2203  0.0481
22821W        W65734   5.873   3.079  29.024 -0.2096  0.1453 -0.3392
22822W        W65735  26.358  10.528  27.477 -0.0320 -0.0317 -0.1506
22823W        W65736  21.197  11.700   1.320  0.0605  0.2802  0.0482
22824W        W65737   3.007   7.625   4.414  0.0225 -0.1797 -0.0536
22825W        W65738   2.234   3.972  21.823 -0.2384  0.0374  0.0617
22826W        W65739   2.085   6.263  18.882 -0.1408 -0.2054  0.0517
22827W        W65740  29.935   8.569  28.463  0.0237  0.0057 -0.0138
22828W        W65741   0.503  14.198  19.932 -0.1347  0.3378  0.2811
22829W        W65742  20.114   5.054  24.475 -0.1564  0.1538 -0.2410
22830W        W65743   6.861  26.711   2.864  0.4733 -0.2336 -0.1430
22831W        W65744  15.566   0.185   6.888  0.2139  0.0626  0.3231
22832W        W65745  13.318   0.818   5.054 -0.0954 -0.3022  0.2447
22833W        W65746  11.620  33.432  21.932 -0.1061 -0.3336  0.1833
22834W        W65747  30.475   9.248  21.568  0.0162  0.0432  0.2182
22835W        W65748   7.895   9.790  23.267  0.0914 -0.1640  0.0961
22836W        W65749   6.653   1.148  25.690  0.1048  0.0710 -0.1948
22837W        W65750   6.907   0.758  26.789  0.0854  0.2651  0.0398
22838W        W65751   8.360  31.750  29.111  0.1697 -0.0251 -0.0410
22839W        W65752   8.902  33.470   1.384 -0.3583  0.2450 -0.1946
22840W        W65753  34.440  10.056  21.280  0.0577 -0.1428 -0.3373
22841W        W65754   0.195   8.941  25.676  0.2556 -0.1983  0.3419
22842W        W65755  19.988   2.864  21.240  0.0170 -0.0634  0.0535
22843W        W65756   8.229   0.963  18.714 -0.3103  0.1691  0.0501
22844W        W65757  31.478   4.821  19.701 -0.2943  0.3129  0.1729
22845W        W65758   7.335   2.149  29.122  0.2604 -0.0394  0.1683
22846W        W65759   5.171   1.728   5.919 -0.0296 -0.1591 -0.0323
22847W        W65760   5.614   5.877  26.189 -0.1047 -0.1232 -0.2545
22848W        W65761   5.832   4.300  28.352 -0.5178  0.0080 -0.0419
22849W        W65762  18.421  11.973  29.438  0.1072 -0.2535 -0.1613
22850W        W65763   4.514  34.462  28.223  0.0836 -0.1326  0.0637
22851W        W65764   0.203  29.136  25.994 -0.1387 -0.2006  0.1240
22852W        W65765  30.339   6.033   6.065 -0.1698 -0.1701  0.0215
22853W        W65766  17.940   8.998   5.273  0.2046 -0.2090  0.0967
22854W        W65767  14.933  17.907   1.621  0.2336 -0.5170  0.0813
22855W        W65768  33.842  12.039  24.098  0.1806  0.0065 -0.0933
22856W        W65769  10.130   1.847  26.009 -0.1853 -0.0550  0.0762
22857W        W65770  23.275   9.035  28.343  0.1895 -0.2934  0.0562
22858W        W65771   2.299  32.994   3.133  0.1541 -0.1605  0.1258
22859W        W65772  10.216   8.087   0.690  0.0778 -0.2243  0.1767
22860W        W65773   3.739  20.450  28.482 -0.4410  0.0712  0.0329
22861W        W65774   6.975  33.422  21.166 -0.0247 -0.1475  0.0098
22862W        W65775  13.568   4.420   8.727 -0.0252 -0.0892  0.0109
22863W        W65776   6.933  32.402  22.058 -0.0316 -0.1911 -0.0558
22864W        W65777  10.689   5.111   6.847  0.0581  0.0346 -0.1378
22865W        W65778   4.581  33.117   3.733  0.2011  0.2354 -0.0033
22866W        W65779   3.195   3.137  24.888 -0.0810  0.1549 -0.0349
22867W        W65780   6.262  13.265  19.924 -0.3140  0.3839 -0.0055
22868W        W65781   5.593   1.882  22.701  0.3546 -0.3580 -0.0952
22869W        W65782   2.030  13.503  18.746 -0.5247 -0.1066  0.2891
22870W        W65783  10.715   0.836  25.386  0.3819 -0.1237 -0.1142
22871W        W65784   4.341   3.852  17.076  0.0545 -0.1699  0.0764
22872W        W65785  32.094   6.618  27.754  0.0866 -0.0487  0.2470
22873W        W65786   5.442  29.083  28.313  0.1281  0.3764  0.0711
22874W        W65787   3.136   6.609  16.696  0.0971  0.2457 -0.3387
22875W        W65788   1.713   7.605   2.507 -0.2349  0.0486 -0.0259
22876W        W65789   4.978  11.571  29.433 -0.0104 -0.3670  0.3340
22877W        W65790  10.497   1.752   1.876 -0.2502 -0.2452 -0.1628
22878W        W65791   3.542  34.344  17.123 -0.0344  0.1229 -0.0495
22879W        W65792   2.366  31.941  24.991  0.1144 -0.0651  0.2000
22880W        W65793   3.890   6.970  24.127 -0.1839 -0.0447 -0.0398
22881W        W65794  29.144   5.382  19.726  0.1746 -0.3780  0.1088
22882W        W65795   9.948  10.539  28.596 -0.1022 -0.1430 -0.0885
22883W        W65796   6.858  31.519  22.691  0.0011  0.0256  0.1549
22884W        W65797  32.153  23.513  24.354  0.2470 -0.0350  0.1792
22885W        W65798   5.533   9.852  22.267  0.2076 -0.0274  0.2069
22886W        W65799   5.951   5.907  25.367 -0.1472 -0.3298  0.0957
22887W        W65800   5.567   8.338   2.208 -0.1458 -0.1176 -0.0795
22888W        W65801  12.726  32.499  18.969 -0.0060  0.1815 -0.1903
22889W        W65802  14.390   0.739  26.003 -0.2256 -0.0405 -0.1592
22890W        W65803  14.356   8.953  23.085 -0.0388 -0.2263  0.2409
22891W        W65804   1.225  12.906   6.728  0.2825 -0.3100 -0.0486
22892W        W65805  12.840  33.850   8.325  0.0353  0.5581  0.1008
22893W        W65806  13.998   9.386   2.894 -0.2577 -0.2857 -0.1720
22894W        W65807  10.685  13.525  22.963  0.0885 -0.2311 -0.1013
22895W        W65808   2.310   2.915  11.668  0.3680  0.0181 -0.1783
22896W        W65809   8.356   8.960  22.338  0.3381  0.1182  0.0452
22897W        W65810   2.093  30.864  19.759  0.1181 -0.3293  0.2341
22898W        W65811  10.830  31.334  18.972 -0.0488  0.3168 -0.0511
22899W        W65812   8.324  30.764  28.052 -0.2692  0.2604 -0.1140
22900W        W65813  16.095  10.981   1.909  0.0712 -0.0767  0.2765
22901W        W65814   9.565   8.242  29.684 -0.0496  0.1974 -0.2690
22902W        W65815   1.513  30.301   0.021 -0.0114 -0.0160  0.0969
22903W        W65816  13.692   0.933  20.120 -0.0009  0.2226  0.5137
22904W        W65817   4.918   6.439  13.064 -0.0852 -0.0285 -0.3625
22905W        W65818   1.033   6.275  22.865 -0.0594 -0.1947  0.1061
22906W        W65819   0.138   2.439   1.630  0.2498  0.0236  0.0523
22907W        W65820   5.005   3.623  24.786  0.0878 -0.2730 -0.1572
22908W        W65821   0.964   1.682   3.284 -0.1875  0.2402  0.2821
22909W        W65822  12.201   2.868   6.557  0.1069 -0.2101  0.2110
22910W        W65823  29.657   6.908  24.698 -0.1748 -0.4116  0.1166
22911W        W65824  29.894  11.168  22.616  0.0866  0.2960 -0.0014
22912W        W65825  15.927   6.381  24.829 -0.1452  0.0787 -0.1136
22913W        W65826   1.564  32.176   1.459  0.0080 -0.1501  0.0335
22914W        W65827   2.688  29.235  23.667 -0.1486  0.0272  0.2259
22915W        W65828   6.102  29.246  25.241 -0.0913  0.0890 -0.0082
22916W        W65829   8.453   9.130   1.050 -0.2230 -0.2404 -0.1796
22917W        W65830  30.781   5.757  24.160 -0.1097  0.0164 -0.0456
22918W        W65831  12.732   0.442  26.056  0.1444 -0.6535  0.2924
22919W        W65832  29.982   1.013   3.868 -0.1698  0.0393  0.2403
22920W        W65833   3.374  11.633   6.743 -0.1196 -0.2753 -0.1843
22921W        W65834   6.523  30.209  28.621  0.2278 -0.0124 -0.0251
22922W        W65835  12.455  15.120  27.950 -0.1193  0.5009  0.1568
22923W        W65836   8.841  12.583   0.952 -0.1525 -0.1202  0.3150
22924W        W65837   4.591  16.512  27.680  0.0165 -0.1795 -0.1474
22925W        W65838  34.390  10.429  22.349 -0.1132  0.0910  0.1589
22926W        W65839  10.197  10.216  29.047 -0.4030  0.2375  0.0343
22927W        W65840  15.597  15.197   2.647 -0.0949  0.1371 -0.1906
22928W        W65841   7.845   5.144  28.013 -0.3008  0.0526 -0.1709
22929W        W65842  10.710  29.996  29.361 -0.1427  0.2958  0.0813
22930W        W65843  29.176   1.164  27.516 -0.2191 -0.1600 -0.1873
22931W        W65844   6.274   2.323  22.704 -0.0816  0.1531 -0.0293
22932W        W65845   9.993   0.588  17.544  0.2380 -0.1516 -0.1779
22933W        W65846   8.170   9.832   3.177 -0.0699 -0.2765 -0.2103
22934W        W65847  13.590   7.265  25.763 -0.1506  0.3036  0.0438
22935W        W65848   5.933  18.862  20.727 -0.0682  0.0658 -0.0158
22936W        W65849   4.722   7.804  28.840 -0.0732 -0.0354 -0.3344
22937W        W65850  14.808   6.159  21.186  0.0732  0.2197 -0.1867
22938W        W65851   2.173   7.746  21.701 -0.0093  0.0938 -0.2043
22939W        W65852  15.024  19.487  26.328  0.2295 -0.2907 -0.0201
22940W        W65853   2.435   1.340  22.111  0.3024 -0.1569  0.0739
22941W        W65854   6.442  12.158  28.505 -0.0728  0.1558  0.0151
22942W        W65855  34.440   5.728   1.418 -0.0650  0.1043  0.0664
22943W        W65856  32.184   9.244   4.432 -0.0379 -0.1593  0.1804
22944W        W65857  12.107   7.290   8.870  0.1559  0.0464  0.5517
22945W        W65858   3.628   7.765  23.818  0.1718 -0.1988  0.2037
22946W        W65859   1.900   8.478   0.051 -0.0462  0.1398 -0.1128
22947W        W65860   5.136   3.430  19.260 -0.0668 -0.0678  0.0928
22948W        W65861   0.815  32.688  18.673  0.0039  0.0412 -0.1802
22949W        W65862  32.761  31.840  28.581  0.0577 -0.1968  0.1554
22950W        W65863  13.457   3.649  22.846 -0.2658  0.0309  0.1645
22951W        W65864   7.543   6.752   1.294  0.0056 -0.0819 -0.2228
22952W        W65865   4.065  30.383  28.041 -0.2169  0.3908  0.2884
22953W        W65866  12.633  18.137  27.854 -0.2795 -0.0644  0.2195
22954W        W65867   5.732   0.619  23.232 -0.2297 -0.1494  0.1376
22955W        W65868   8.651  34.085   9.536  0.0195 -0.1175 -0.3365
22956W        W65869  10.445  28.674  19.355  0.2859  0.1175  0.1091
22957W        W65870   2.053   4.421  24.034 -0.0168  0.0139 -0.0003
22958W        W65871   7.366   3.441  29.131 -0.2148 -0.1220  0.0392
22959W        W65872   9.270   2.876  29.165 -0.0422  0.3869 -0.0331
22960W        W65873   2.041  11.094  23.861  0.0013  0.3293  0.1327
22961W        W65874   6.833   2.419  17.070 -0.1502  0.1036 -0.1842
22962W        W65875   5.613  33.144   1.874  0.0751  0.2137 -0.0162
22963W        W65876  11.509   4.389   3.591  0.2118  0.2466 -0.5224
22964W        W65877  34.243  30.606   4.363  0.0360 -0.1336  0.0586
22965W        W65878  18.488   6.701   6.242 -0.2191  0.1414  0.0364
22966W        W65879   4.015   6.893  26.590 -0.0393  0.2308  0.1300
22967W        W65880   7.749  33.186  19.958  0.0058  0.2150  0.2986
22968W        W65881   2.930   9.932   1.833  0.2515  0.1537  0.2875
22969W        W65882  34.366   4.916  19.892 -0.2547 -0.0689  0.0081
22970W        W65883   9.695   6.749  21.955 -0.0500  0.1480  0.1913
22971W        W65884   1.451   4.146  18.341 -0.2822  0.0348  0.0299
22972W        W65885  12.563  29.829   3.566 -0.2640  0.0121  0.0182
22973W        W65886   3.219   5.434  26.446  0.0145 -0.2117 -0.2654
22974W        W65887  33.618   9.772  16.003  0.0118  0.1737  0.0098
22975W        W65888  33.772   9.261  28.876 -0.1381  0.3281 -0.1928
22976W        W65889   3.621   9.995  25.070 -0.1972  0.0960 -0.2961
22977W        W65890   1.222  32.004  21.897 -0.0797  0.1842 -0.1501
22978W        W65891   5.219  33.612   1.403 -0.1719  0.0461  0.3765
22979W        W65892   1.391  12.299  16.355 -0.1661 -0.1156  0.3290
22980W        W65893  33.322  13.143  23.106 -0.2592  0.0522 -0.1597
22981W        W65894  33.169   6.300  27.541 -0.0971  0.1105 -0.0719
22982W        W65895   9.856  12.626  25.773  0.0439  0.0235 -0.0774
22983W        W65896  12.617  12.267  29.541 -0.0246  0.0749  0.2720
22984W        W65897  10.263   1.787  23.115 -0.1368  0.1535 -0.2264
22985W        W65898   7.758  28.049  21.075 -0.0984 -0.1306  0.1483
22986W        W65899  22.750  33.916   4.010 -0.1737  0.0287 -0.0919
22987W        W65900  15.083  26.171   1.073 -0.0061 -0.3358 -0.1243
22988W        W65901   3.894  10.332  29.692 -0.0836 -0.0971  0.0569
22989W        W65902   1.422   6.600  27.509  0.2942 -0.0161 -0.0000
22990W        W65903   4.922   0.517   2.268  0.2160  0.0296 -0.1236
22991W        W65904  11.518  15.606  29.447 -0.0589  0.2164  0.3310
22992W        W65905   5.548   5.998   3.183 -0.0004 -0.2332  0.0949
22993W        W65906  33.084  12.733   5.053  0.1250  0.1219 -0.0501
22994W        W65907  15.318   9.663  28.236  0.0364 -0.1072  0.0258
22995W        W65908   2.024  31.880  20.793 -0.1822  0.1487 -0.1326
22996W        W65909  14.958   0.101  27.510  0.0519  0.0962 -0.2569
22997W        W65910  11.144   6.274  22.865  0.1831  0.1771 -0.1562
22998W        W65911  33.740  12.395  24.596  0.0624 -0.1381 -0.2332
22999W        W65912  33.904   2.257  24.366 -0.1024 -0.2157  0.0744
23000W        W65913  27.276  16.141  24.147 -0.1081 -0.5217 -0.0990
23001W        W65914   8.349   0.388  29.697 -0.1738  0.0018  0.1358
23002W        W65915   5.709  29.679  26.638  0.3032  0.4270  0.0862
23003W        W65916   6.043   5.192   6.141 -0.0747  0.0302  0.0656
23004W        W65917  12.760   7.188  17.412 -0.3368 -0.0675 -0.2846
23005W        W65918  13.364   7.419   2.204  0.1514 -0.1457 -0.1045
23006W        W65919   1.925   9.134   4.510 -0.1591 -0.1850 -0.1990
23007W        W65920  23.622   1.343  26.678  0.3425  0.1564 -0.1036
23008W        W65921  12.155   4.231   1.557  0.0237 -0.2778 -0.1862
23009W        W65922   5.441  10.779  16.477 -0.2003  0.0854  0.0793
23010W        W65923  10.426  31.308  10.928  0.2122  0.1739 -0.0616
23011W        W65924   6.873   7.481  28.766 -0.0781  0.0942  0.0879
23012W        W65925  10.321   5.270   8.103  0.0026  0.0177 -0.0003
23013W        W65926  12.318  33.129   6.192  0.3998 -0.0231 -0.0318
23014W        W65927   8.720   2.219  18.939  0.2212 -0.2759 -0.1709
23015W        W65928   7.509   3.420  25.470  0.1186 -0.1209 -0.0225
23016W        W65929  29.038   7.038   3.073 -0.1420 -0.0914  0.2321
23017W        W65930   0.299   8.238  26.348  0.1117  0.2039  0.0247
23018W        W65931  29.003  14.960  26.148 -0.0768  0.0775 -0.0271
23019W        W65932   8.770   9.934   1.320 -0.2498 -0.1538  0.3319
23020W        W65933   5.584  32.853   0.274  0.0869  0.0517 -0.0684
23021W        W65934  23.420  13.562  21.244  0.2752  0.2088 -0.2659
23022W        W65935   0.781   4.239  27.423  0.1439 -0.2594  0.3162
23023W        W65936   0.547  31.442  23.219  0.1207 -0.1109 -0.1790
23024W        W65937   3.761  30.696  28.908  0.0626  0.0312  0.0708
23025W        W65938  10.510  33.056   5.392 -0.5297  0.2753 -0.0491
23026W        W65939   2.654  13.465  25.719 -0.2650  0.0198  0.0502
23027W        W65940   2.233  32.651  27.121 -0.4463  0.1619  0.3026
23028W        W65941   5.909   9.275  27.782  0.4200 -0.3500 -0.3745
23029W        W65942   6.298  33.370   5.218 -0.3888 -0.0825 -0.2126
23030W        W65943  20.002  12.615  29.118 -0.1730  0.1632 -0.0409
23031W        W65944  10.404  13.229   0.235 -0.0215 -0.2338  0.0098
23032W        W65945  27.179  10.077   0.446  0.3296 -0.0638 -0.1927
23033W        W65946   8.210  13.780  27.454 -0.2013 -0.2331 -0.1568
23034W        W65947  27.895   6.064  28.299 -0.0610 -0.2733  0.0352
23035W        W65948   6.644  13.852  24.536 -0.1369 -0.0834  0.1435
23036W        W65949   1.938   6.597  27.512 -0.2072  0.1057 -0.4089
23037W        W65950   2.800  27.892  16.352  0.1636 -0.3093 -0.1561
23038W        W65951  16.179   7.004  26.766 -0.1462 -0.0904 -0.2677
23039W        W65952   2.310   5.676  25.488 -0.0594  0.1267 -0.1409
23040W        W65953   6.525  13.255  22.875 -0.2107 -0.1348 -0.1062
23041W        W65954   5.580   7.574  28.208 -0.0152  0.1033  0.1842
23042W        W65955   9.078  10.359  18.635 -0.1414 -0.1577 -0.0195
23043W        W65956   5.781   1.252   3.018  0.3496 -0.0255  0.0287
23044W        W65957   0.188  17.220  23.750  0.0139  0.1607  0.4162
23045W        W65958   2.568   2.452  19.262 -0.2129 -0.1556  0.2421
23046W        W65959   9.873   1.369   9.143 -0.2944 -0.2611 -0.0728
23047W        W65960   3.863   7.680  26.802 -0.1129  0.0471 -0.1189
23048W        W65961   3.608   8.963   1.770  0.0491 -0.0101  0.1694
23049W        W65962   1.704  10.541  27.893  0.2947  0.1109  0.0454
23050W        W65963   4.573   2.294   9.130 -0.1518  0.0037 -0.0872
23051W        W65964  20.434  18.704  20.923 -0.1961  0.1990  0.0836
23052W        W65965   7.697  16.760   2.699  0.0996  0.1171  0.1413
23053W        W65966  14.151   3.730  22.090 -0.2117 -0.3384 -0.1187
23054W        W65967  27.947   2.365   0.285  0.0373 -0.2478 -0.1054
23055W        W65968   0.946   4.028  25.975 -0.1691 -0.1556  0.0509
23056W        W65969   8.261  18.502   9.377  0.0437  0.1197 -0.1850
23057W        W65970   2.965  32.279  21.091 -0.1019 -0.3132  0.0414
23058W        W65971   7.716  34.060   4.889 -0.3579  0.0298  0.0537
23059W        W65972   7.108   7.118  25.072 -0.1822  0.0125  0.2239
23060W        W65973   2.998  33.817   9.566  0.3538 -0.0844 -0.0777
23061W        W65974  32.216  10.075   0.601  0.2308  0.0857 -0.0132
23062W        W65975   2.758  10.201  28.838  0.0590  0.2066  0.3842
23063W        W65976   2.881   8.738  26.093 -0.0150 -0.0408  0.1672
23064W        W65977  10.736  21.237   8.137  0.0454  0.0171 -0.0276
23065W        W65978   1.320  10.049   0.803  0.0229  0.1517 -0.1370
23066W        W65979  12.114  23.536  27.978  0.0656 -0.3183  0.2783
23067W        W65980  31.638   7.391  25.188 -0.0754 -0.2369  0.1254
23068W        W65981   9.403  27.140  25.577 -0.3668 -0.0210  0.0924
23069W        W65982   0.974   6.731  29.201  0.0368  0.0059 -0.3058
23070W        W65983  10.684   1.201  28.965  0.0884  0.0893  0.1084
23071W        W65984   3.536  14.842  16.245 -0.1982  0.1808 -0.0291
23072W        W65985   8.120   2.269  13.465  0.1302 -0.0326 -0.1143
23073W        W65986   7.544   3.118   5.450 -0.1420 -0.1877 -0.0017
23074W        W65987   0.002   7.327   3.269  0.4381  0.2656  0.0175
23075W        W65988  10.688   1.425  21.954 -0.2105 -0.1494  0.0863
23076W        W65989  33.948  18.061   5.594  0.0082  0.1465 -0.0638
23077W        W65990   2.130   2.789  28.526 -0.1595  0.2495  0.1611
23078W        W65991   9.681   4.426   0.058 -0.0080  0.0613  0.0267
23079W        W65992  33.555  12.654  17.201  0.0902 -0.2401 -0.0739
23080W        W65993  10.364  30.021  26.044 -0.2646 -0.3779  0.0974
23081W        W65994  11.563  29.602   5.202  0.1646  0.1753 -0.0324
23082W        W65995  31.733   7.269  19.447  0.1006  0.1189  0.1887
23083W        W65996   8.460   6.844  22.666 -0.0277 -0.2419  0.1215
23084W        W65997  13.211  17.105  22.473  0.3572  0.0807  0.1177
23085W        W65998  11.300  14.114  28.171 -0.1035 -0.1910 -0.0670
23086W        W65999   3.200   4.918  29.111 -0.1693 -0.2773 -0.0527
23087W        W66000  14.150  17.207  25.891  0.0932 -0.1413 -0.0867
23088W        W66001   1.417  12.095  16.924 -0.1700 -0.0552  0.1261
23089W        W66002  26.424  10.453   2.146 -0.3998  0.0719 -0.1411
23090W        W66003   1.646   3.055   2.096  0.1406 -0.2227 -0.0687
23091W        W66004   7.666   3.307   0.782  0.1530  0.4076  0.0089
23092W        W66005  12.908   3.246  17.962 -0.0492  0.0620  0.2868
23093W        W66006   6.979   6.616   2.407  0.1526 -0.0331 -0.2766
23094W        W66007  13.133   0.228   4.057 -0.0162  0.1011  0.1109
23095W        W66008   9.081   8.151   7.815  0.0767 -0.2707 -0.0820
23096W        W66009   0.311   3.804   1.693 -0.2187 -0.0147 -0.0270
23097W        W66010   4.177  12.928  28.534 -0.0223  0.1609  0.0249
23098W        W66011  30.035   7.414   2.421 -0.1311 -0.1884  0.1690
23099W        W66012   7.252   5.538  24.690  0.1865 -0.2344  0.0181
23100W        W66013   3.967  33.425  27.319 -0.0589  0.1037 -0.0483
23101W        W66014  18.472   5.219   6.381  0.0653 -0.1948  0.0932
23102W        W66015  32.769  22.565   2.704  0.0905 -0.2010 -0.4774
23103W        W66016   8.443   0.244  26.696  0.0417 -0.1284  0.3250
23104W        W66017  22.011  13.435   2.865 -0.2048 -0.1593 -0.0066
23105W        W66018   8.762   4.561  20.848  0.1024 -0.2124 -0.0921
23106W        W66019  31.189   4.685  24.886 -0.0923 -0.0602 -0.0491
23107W        W66020  20.366  10.109  16.613 -0.1831  0.0348  0.4590
23108W        W66021   1.746  10.296  21.528 -0.2347  0.0942 -0.2278
23109W        W66022  34.401  16.054   0.061  0.1428  0.0368 -0.0627
23110W        W66023  13.751   4.836  27.497  0.3363 -0.1949  0.0624
23111W        W66024  12.606  30.412  22.768  0.1429  0.1901 -0.3401
23112W        W66025   0.669   7.602   0.496 -0.2652 -0.1982 -0.0516
23113W        W66026   7.038   8.592   1.287  0.3283 -0.1653 -0.2251
23114W        W66027   4.977  14.092   3.976 -0.1310 -0.0727 -0.2336
23115W        W66028  11.640   2.799  19.891  0.1867  0.4740 -0.1494
23116W        W66029   0.213   2.921  27.110 -0.1393 -0.0637 -0.1138
23117W        W66030   6.578  14.517  26.074 -0.1614  0.1383  0.0098
23118W        W66031   7.666   8.668  19.966  0.0799 -0.1136  0.0506
23119W        W66032  14.370   4.171  24.770  0.0472  0.1929  0.2140
23120W        W66033   0.892   2.971   6.650  0.3065 -0.0722 -0.0085
23121W        W66034   1.540   5.521   0.085  0.0424  0.3079 -0.0741
23122W        W66035  10.070  12.631   7.541  0.1509 -0.0017  0.1073
23123W        W66036  21.589  21.760   4.219 -0.0467 -0.0749  0.0179
23124W        W66037  15.117  28.709  23.868  0.1154 -0.0001  0.1120
23125W        W66038  11.077  29.601  24.427  0.3277 -0.2140  0.3021
23126W        W66039   6.398  21.399   7.785  0.0490 -0.0372 -0.0451
23127W        W66040  26.762  10.789   7.996  0.0146 -0.1870  0.0594
23128W        W66041  17.263   1.624   5.002 -0.3322 -0.0309  0.0328
23129W        W66042  32.132  13.617   1.350 -0.0450  0.2440  0.1353
23130W        W66043   4.631  13.531  26.834 -0.1092 -0.3518 -0.0970
23131W        W66044  19.470   7.340   7.630 -0.0431 -0.0494  0.0664
23132W        W66045  10.326  13.773  25.993 -0.1070 -0.4948 -0.1676
23133W        W66046  11.170  13.407  22.098 -0.2688  0.0910 -0.3056
23134W        W66047   7.310  32.436   1.249 -0.0619  0.1115 -0.3375
23135W        W66048   2.299   7.451  20.434 -0.0179 -0.2072 -0.0479
23136W        W66049   6.366   6.577   5.800  0.0800 -0.0438  0.0095
23137W        W66050   9.646  12.757   7.797 -0.1754  0.1141 -0.1476
23138W        W66051   0.959   8.605   6.734  0.2373  0.4962 -0.2643
23139W        W66052   1.447   6.566  29.540 -0.2093 -0.1531 -0.1207
23140W        W66053   8.351   2.138  19.463 -0.0729 -0.0146 -0.0035
23141W        W66054  15.132   9.794  25.715 -0.6088 -0.0416 -0.1758
23142W        W66055  29.382  16.928  25.529 -0.0139 -0.1488  0.2539
23143W        W66056   5.081   4.378  26.759 -0.4441 -0.1834  0.4564
23144W        W66057   2.720  14.865  23.288  0.4021  0.0254  0.0346
23145W        W66058   8.054   5.129   3.074  0.3326  0.1254 -0.0283
23146W        W66059  34.099   5.421   3.547  0.2896  0.0911  0.2598
23147W        W66060   9.380   6.803  21.611 -0.1840 -0.1098  0.0585
23148W        W66061   5.932  21.155  22.893 -0.0815  0.1466 -0.0544
23149W        W66062   3.763   3.620  26.388 -0.2221 -0.0768 -0.2281
23150W        W66063   5.368   4.881  11.175  0.3729 -0.1052 -0.0422
23151W        W66064  13.576   1.155   6.648 -0.0422  0.0503  0.1124
23152W        W66065   2.127   8.856   1.266  0.1199  0.1620  0.0868
23153W        W66066   5.505  17.288  20.936 -0.1521 -0.1912 -0.1217
23154W        W66067  27.239   2.522   9.627 -0.0490 -0.2581 -0.2568
23155W        W66068   5.987   0.997  23.099 -0.0027 -0.0217  0.0041
23156W        W66069   3.746  10.944  22.770  0.3443 -0.0359  0.0512
23157W        W66070  11.439  28.910   5.892 -0.0464 -0.0257 -0.4670
23158W        W66071   0.767  30.684  25.049  0.0815  0.1452  0.0242
23159W        W66072   7.481  10.559  24.901  0.1526  0.0142  0.0766
23160W        W66073  13.147  30.437  26.775  0.1548  0.0352 -0.0602
23161W        W66074  12.895   8.104   3.146  0.2703  0.1564 -0.0044
23162W        W66075  33.672  10.006  25.538  0.0354 -0.1180  0.3913
23163W        W66076  15.922   0.689  21.699 -0.3540 -0.1626 -0.1166
23164W        W66077   6.746   3.100  12.301  0.2751  0.0533  0.0108
23165W        W66078  12.756  32.682  26.464 -0.1562 -0.0450 -0.0319
23166W        W66079  12.764  16.942  19.785 -0.1381  0.1846 -0.2734
23167W        W66080   2.282  33.533  26.593  0.0347  0.0492  0.0529
23168W        W66081  11.736  32.161   7.733 -0.1725  0.2031  0.2387
23169W        W66082   9.526  34.037   3.448  0.3735 -0.1704  0.1977
23170W        W66083  11.876   2.680   9.533 -0.0438 -0.3316  0.0277
23171W        W66084  11.710  13.052   6.689 -0.1865 -0.0175  0.2042
23172W        W66085  30.535   4.696  27.249 -0.0072 -0.0540  0.1014
23173W        W66086   7.112   6.783   1.818  0.0455 -0.1663 -0.0325
23174W        W66087   2.467  14.330   2.511 -0.1546 -0.2654 -0.0085
23175W        W66088  18.390  28.458   4.007 -0.0505  0.0260  0.1392
23176W        W66089  15.372   7.096   6.944 -0.0384 -0.1670 -0.2624
23177W        W66090   8.796   0.438   6.009 -0.1299  0.2448 -0.3059
23178W        W66091   4.237  14.556  21.246 -0.1124  0.0407  0.2401
23179W        W66092  13.567  10.309   3.810  0.3707 -0.1187  0.1987
23180W        W66093   4.857   2.689   2.142 -0.3163  0.1095 -0.2888
23181W        W66094   3.813   7.416  20.161 -0.0205  0.0016 -0.2919
23182W        W66095   8.278   8.389   5.138 -0.1951 -0.0245 -0.1575
23183W        W66096  20.334   3.373   8.419  0.3898 -0.0136  0.0565
23184W        W66097   3.955  34.100   6.443 -0.0665 -0.0645 -0.3171
23185W        W66098   3.083  12.984  24.656 -0.1249 -0.0975  0.2203
23186W        W66099   2.341   3.525  22.163  0.1638  0.2414  0.1690
23187W        W66100   5.415  31.421   1.471 -0.0811  0.0414  0.2666
23188W        W66101   0.686  28.259   5.221 -0.2642 -0.0620  0.1243
23189W        W66102   4.923   3.195  22.089  0.3026 -0.1484  0.0345
23190W        W66103  10.170   7.579  24.533 -0.0957  0.1231 -0.0851
23191W        W66104   7.224   6.736  24.736 -0.0010  0.0537  0.1599
23192W        W66105  14.714  11.563   5.183  0.0332 -0.1088 -0.1643
23193W        W66106  17.164   7.681  16.221 -0.2098 -0.1594  0.1260
23194W        W66107  10.426  33.301  27.479 -0.0941 -0.0163 -0.1130
23195W        W66108   9.216  13.568  15.249  0.0578 -0.0662  0.2006
23196W        W66109   1.053  11.382  17.333  0.2895  0.1061  0.1572
23197W        W66110   8.944  10.986  21.386  0.1057  0.1884  0.0328
23198W        W66111   3.145  19.601  21.252  0.1724 -0.1469  0.1218
23199W        W66112   6.682  32.467  19.886 -0.2227  0.0112  0.1510
23200W        W66113  31.921  12.175   5.236  0.2578 -0.2914 -0.4648
23201W        W66114   1.821   1.929  18.315 -0.4491 -0.3603 -0.0537
23202W        W66115   7.598   6.520  17.201 -0.1861 -0.0459  0.1341
23203W        W66116   4.860  18.553  19.587  0.1294 -0.0674  0.1736
23204W        W66117   4.158   7.844  23.801  0.3763  0.0367  0.3749
23205W        W66118   3.396  11.035  23.778 -0.1568  0.1863 -0.1882
23206W        W66119   8.752   7.350  18.163 -0.0432  0.1513  0.0104
23207W        W66120   9.670   9.168  21.979  0.1458  0.3938  0.0953
23208W        W66121   2.045   8.129  22.056 -0.2542  0.0835 -0.0088
23209W        W66122  34.267   7.775  15.990 -0.3384  0.0974  0.2799
23210W        W66123  33.561  12.643  14.952  0.0162  0.0961  0.1596
23211W        W66124  13.492   8.308  22.512 -0.0302  0.0960 -0.3752
23212W        W66125   8.839   2.605  26.756  0.1298 -0.1214 -0.1092
23213W        W66126   5.300  15.938  15.539 -0.0057 -0.1317  0.4021
23214W        W66127  11.943   5.219  21.334 -0.1888  0.0938  0.0111
23215W        W66128   1.481  32.009  23.896  0.0523 -0.1310  0.0157
23216W        W66129   9.873  13.682  23.976 -0.0242  0.2682  0.0695
23217W        W66130  30.323  32.491  27.565  0.0744 -0.1183 -0.1106
23218W        W66131   8.904   5.108  20.604 -0.1599 -0.3948  0.2561
23219W        W66132  13.079  31.490  19.320 -0.2837  0.0719 -0.0878
23220W        W66133   5.280  30.444  21.812 -0.2761 -0.0753 -0.2429
23221W        W66134  12.709  13.877  29.178  0.3372  0.1040  0.0714
23222W        W66135  30.711  13.529  25.292 -0.1700 -0.2536  0.0079
23223W        W66136  27.323  33.662  26.154 -0.1155  0.0999 -0.0263
23224W        W66137   4.365   6.385  17.391 -0.2399 -0.0080 -0.0987
23225W        W66138  13.648   3.833  19.307 -0.2843  0.2001  0.1238
23226W        W66139   1.493  17.302  15.352 -0.0794 -0.5030  0.1227
23227W        W66140  10.888   8.912  17.197 -0.2222  0.0334  0.2517
23228W        W66141   9.326  10.995  26.715  0.0765 -0.3756 -0.0358
23229W        W66142   8.862   9.862  18.787 -0.1991  0.1614  0.4567
23230W        W66143   0.922  20.837  16.190 -0.0432 -0.1476  0.0245
23231W        W66144   9.632  16.357  24.588 -0.1273 -0.3325 -0.0289
23232W        W66145   4.849   7.055  26.322  0.3942 -0.2638  0.0017
23233W        W66146  10.720  10.046  18.770 -0.0967 -0.2829  0.0939
23234W        W66147  32.596   5.988  23.073 -0.0987 -0.0807  0.3408
23235W        W66148   6.550  11.496  22.332 -0.0133 -0.0081  0.3413
23236W        W66149   5.343   4.180  21.663 -0.1956 -0.1664  0.3093
23237W        W66150  20.421   7.798  26.813 -0.2394  0.1910  0.0507
23238W        W66151  14.095  32.290  16.151  0.0297 -0.2881  0.0693
23239W        W66152  32.567   5.456  17.035 -0.0023 -0.0098 -0.0627
23240W        W66153   6.589  23.232  20.201 -0.0125  0.2594  0.0247
23241W        W66154   9.970   9.857  27.135  0.1503  0.1186  0.1300
23242W        W66155  12.974  17.329  14.371 -0.2079  0.1719 -0.1712
23243W        W66156   8.298  12.133  16.026 -0.1303  0.1104  0.1833
23244W        W66157  17.329   4.442  14.358  0.1286 -0.1212  0.0324
23245W        W66158  12.447   6.334  20.922 -0.0145  0.1431 -0.1269
23246W        W66159   1.864  10.612  22.366 -0.1657 -0.2982  0.1284
23247W        W66160  14.212  24.747  14.211 -0.1589  0.0768 -0.4993
23248W        W66161  10.240  12.119  20.412  0.2076 -0.1788  0.2145
23249W        W66162  32.630   3.941  24.151  0.0165 -0.3460 -0.2243
23250W        W66163  13.569  14.808  25.326 -0.0463  0.1283  0.1483
23251W        W66164   2.374   5.651  24.556  0.0598  0.1071  0.2895
23252W        W66165   1.005  10.213  25.804  0.1579  0.0957  0.1407
23253W        W66166  10.000  14.718  13.887 -0.0316 -0.0107 -0.0828
23254W        W66167  17.854   6.945  27.751  0.1923 -0.0104 -0.1821
23255W        W66168   7.864  12.467  15.219 -0.0700  0.3888 -0.0424
23256W        W66169   3.826   2.526  24.776 -0.1529  0.1069  0.2354
23257W        W66170   6.204   7.784  19.633 -0.0079 -0.0998 -0.0537
23258W        W66171   0.791   2.399  18.185 -0.0072 -0.0158 -0.0792
23259W        W66172  31.952  14.031  18.895  0.0673  0.1607  0.2604
23260W        W66173   4.685   8.836  24.955 -0.0434  0.1563  0.2858
23261W        W66174   7.765  34.436  20.495 -0.1322  0.0271  0.1574
23262W        W66175   5.513  13.621  24.930 -0.1491 -0.0151 -0.2708
23263W        W66176  30.899  14.662  17.465 -0.3031  0.2107  0.3789
23264W        W66177   6.278  20.999  24.793  0.0887 -0.0067  0.1347
23265W        W66178   9.402  14.345   0.438 -0.1256  0.1765 -0.0740
23266W        W66179  32.344  10.374  20.456  0.2720 -0.2686 -0.1342
23267W        W66180   3.427   2.097  19.081 -0.2494 -0.1025  0.2601
23268W        W66181   6.137   2.712  18.643  0.0059 -0.2692 -0.1114
23269W        W66182   5.602   9.789  16.806 -0.2269  0.0409  0.1107
23270W        W66183  18.648  17.431  12.862  0.1244 -0.2870  0.2045
23271W        W66184   8.752  19.670  13.846  0.3060  0.2552  0.0687
23272W        W66185  31.978   5.643  22.655 -0.2220  0.0405  0.0088
23273W        W66186  11.096  18.846  26.158 -0.2570  0.2417  0.2051
23274W        W66187   2.168   3.142  22.994 -0.5123 -0.1756 -0.2028
23275W        W66188   5.443  14.187  22.226  0.0964  0.3137  0.0524
23276W        W66189  11.332  14.878  27.424 -0.1100  0.3543 -0.1009
23277W        W66190   7.210   1.583  17.338 -0.0003  0.1232  0.0175
23278W        W66191   2.270  33.353  23.695  0.2388 -0.0552  0.1657
23279W        W66192  30.457  11.516  16.794 -0.2883 -0.1337 -0.3717
23280W        W66193  12.454   7.438  20.180 -0.1075 -0.0195 -0.0090
23281W        W66194  32.809   8.441  22.823 -0.1137  0.0561  0.0744
23282W        W66195   1.873   3.560  18.300  0.0710 -0.0281  0.0396
23283W        W66196   8.791   4.178  29.612 -0.0785  0.0266 -0.3033
23284W        W66197   1.673  11.491  19.047  0.3032 -0.2012 -0.1751
23285W        W66198   4.760  12.528  25.154  0.1265  0.2633  0.2324
23286W        W66199  32.098   4.477  19.272  0.2608 -0.0308 -0.1495
23287W        W66200  30.422   8.370  14.816  0.0471 -0.1911 -0.1020
23288W        W66201   3.642  27.245  21.970 -0.0469  0.1060 -0.0333
23289W        W66202  29.892  30.592  23.820 -0.0756 -0.1953  0.0783
23290W        W66203   7.143  15.784  29.666  0.2661  0.1525 -0.2995
23291W        W66204   9.989   3.265  21.395 -0.1071  0.2390  0.2254
23292W        W66205   6.174  27.942  27.324  0.0850  0.0332  0.0774
23293W        W66206   4.633   4.177  22.794  0.3319 -0.0426  0.1334
23294W        W66207   2.617   3.796  17.079  0.1156  0.1712  0.0617
23295W        W66208  30.955  10.306  28.470 -0.3296 -0.0372  0.0452
23296W        W66209   3.590  24.537  27.737  0.2510  0.1347 -0.0436
23297W        W66210   1.732  12.917  19.922  0.3303 -0.0144 -0.0611
23298W        W66211  11.585  18.814  18.628 -0.2721  0.2289  0.1026
23299W        W66212  11.580   7.937  16.677  0.1267  0.1700 -0.0206
23300W        W66213   1.929   5.906  27.254 -0.1889  0.3873 -0.0428
23301W        W66214  33.466  11.489  20.530 -0.1951  0.0427  0.0600
23302W        W66215  12.187   3.690  27.469  0.0101  0.0989 -0.0481
23303W        W66216   8.956   7.737  23.929  0.6184 -0.0692  0.0040
23304W        W66217  11.114  10.045  17.076 -0.0308 -0.1814  0.4002
23305W        W66218   3.397   1.623  23.164 -0.0858 -0.3137 -0.3441
23306W        W66219  13.982   5.257  18.329  0.0861 -0.3528  0.0580
23307W        W66220   8.718  13.699  24.090  0.2239  0.0238 -0.0171
23308W        W66221  11.720   4.585  16.207 -0.1762  0.0241  0.0319
23309W        W66222   9.727   7.262  21.002 -0.0932 -0.6157 -0.0352
23310W        W66223  11.728  15.719  27.689  0.1469 -0.0995  0.0262
23311W        W66224   7.369   5.867  18.236  0.0044 -0.0234  0.2322
23312W        W66225   2.331  33.921  25.269  0.1316  0.1918 -0.1710
23313W        W66226  34.286   3.087  17.897  0.3176  0.1076  0.3277
23314W        W66227  30.620   8.877  15.235 -0.0015 -0.0692  0.3934
23315W        W66228   1.689   7.185  22.189 -0.2440 -0.0464  0.2842
23316W        W66229   0.715   9.395  20.925 -0.0916  0.0950  0.2803
23317W        W66230   2.915  21.505   1.759 -0.1142  0.0249 -0.1606
23318W        W66231   6.954   7.249  23.760 -0.0677  0.2445  0.1443
23319W        W66232  34.345  12.794  18.239  0.2179 -0.1746  0.2081
23320W        W66233   8.714   1.258  18.111  0.1216 -0.1119  0.0473
23321W        W66234   3.218  13.243  25.053  0.2724  0.0033  0.0149
23322W        W66235  18.493   8.666  17.138  0.1355  0.3042  0.3575
23323W        W66236  14.360   7.684  20.027 -0.1491  0.0352 -0.0273
23324W        W66237  18.768  29.408  21.158 -0.0726 -0.3570 -0.2250
23325W        W66238  13.704   9.582  18.779 -0.0675 -0.1496 -0.1320
23326W        W66239  12.868  13.686  26.004  0.2828  0.4983  0.1320
23327W        W66240   0.705  19.599  17.155 -0.2511  0.1165 -0.0362
23328W        W66241   9.375  20.380  26.048 -0.3805 -0.4975 -0.1695
23329W        W66242   3.038   6.252  19.014 -0.0387  0.1510  0.1719
23330W        W66243   4.552  11.541  18.624  0.1503  0.2852 -0.1337
23331W        W66244  10.823  13.897  12.898  0.0491  0.3077 -0.0439
23332W        W66245   7.190   8.578  18.857 -0.1981  0.1074  0.0572
23333W        W66246   2.032   8.674  16.359 -0.0851 -0.3894 -0.3846
23334W        W66247   7.598  18.041  20.791  0.3424 -0.1090 -0.0741
23335W        W66248  27.824  13.204  24.180  0.2891 -0.1091  0.2476
23336W        W66249  10.564  10.727  15.227 -0.0134  0.0927  0.1531
23337W        W66250   5.557   9.919  17.991 -0.0456  0.0174 -0.0596
23338W        W66251   2.825  11.735  20.328 -0.0162 -0.1980 -0.1894
23339W        W66252   3.381  15.655  18.714 -0.1526 -0.0987 -0.5383
23340W        W66253   2.728  13.615  20.601 -0.2952 -0.0358 -0.4108
23341W        W66254   6.241  34.439  19.616 -0.3038 -0.0372 -0.0210
23342W        W66255   5.505  31.775  18.025  0.0851  0.3538  0.3088
23343W        W66256   7.565   3.669  26.353 -0.3868  0.0527 -0.0266
23344W        W66257   5.371  10.490  27.036 -0.2555 -0.2503  0.4349
23345W        W66258   0.296   9.700  26.042 -0.1273  0.0750  0.1303
23346W        W66259  12.979  17.324  19.315  0.1073 -0.3808  0.2403
23347W        W66260   6.966   1.837  20.265  0.0707  0.0286  0.2428
23348W        W66261  30.011  10.850  23.032  0.2361 -0.2592  0.0701
23349W        W66262  11.102   1.457  24.033 -0.1509 -0.1112 -0.0117
23350W        W66263   8.860   7.104  22.449  0.0500 -0.1458  0.0225
23351W        W66264   3.178   3.027  22.988 -0.0934  0.1416  0.1192
23352W        W66265  32.319   4.560  20.818 -0.4388 -0.0345  0.1025
23353W        W66266   5.207   9.573  17.907 -0.1484 -0.0227 -0.1516
23354W        W66267   7.911  12.869  23.451  0.2006  0.2445 -0.0791
23355W        W66268  16.565  11.355  18.070  0.0444 -0.1086  0.1760
23356W        W66269   6.936  10.701  28.555  0.1795 -0.1863  0.2640
23357W        W66270  12.921   8.457  16.555 -0.2224  0.1759 -0.0392
23358W        W66271   1.961   5.157  19.482 -0.1748  0.0678  0.0736
23359W        W66272  27.743  21.623  24.790 -0.0504  0.0389  0.0498
23360W        W66273   8.613   8.015  17.429  0.3696 -0.0516 -0.0098
23361W        W66274   6.042  14.499  19.951 -0.0278  0.2784 -0.0106
23362W        W66275  26.701   9.294  27.377  0.1810 -0.0451 -0.1975
23363W        W66276  31.935   1.441  17.164 -0.1208 -0.0303  0.1034
23364W        W66277  31.919  14.002  23.173  0.1283  0.0694  0.0527
23365W        W66278  32.975  16.904  15.644  0.3721  0.0115 -0.2637
23366W        W66279  13.455   8.708  16.745 -0.1795 -0.0958 -0.0282
23367W        W66280   9.455   5.646  17.495 -0.0477  0.0296  0.0338
23368W        W66281   4.747   2.118  20.435 -0.0780 -0.2748  0.0393
23369W        W66282  34.405  10.098  17.484  0.0987  0.1144 -0.0818
23370W        W66283   1.746   0.733  16.956 -0.2068 -0.0098 -0.2282
23371W        W66284  30.805   9.386  23.840 -0.2967  0.2756 -0.0355
23372W        W66285  10.833  10.574  25.449  0.1689  0.2973 -0.1503
23373W        W66286   3.140  10.074  18.842  0.1466  0.1222  0.1606
23374W        W66287  11.290  12.941  24.500  0.0311  0.0534 -0.0613
23375W        W66288   2.464  14.648  20.003  0.0473  0.3370 -0.0398
23376W        W66289   0.412  34.160  29.720  0.1216 -0.1387  0.1205
23377W        W66290  23.164  16.153  15.774  0.0613  0.2057 -0.1442
23378W        W66291  32.347  13.694  27.263 -0.0704  0.1835 -0.0225
23379W        W66292   5.056   7.314  17.844  0.1179  0.0005  0.0438
23380W        W66293   7.636   5.287  21.507 -0.1263  0.2380  0.0213
23381W        W66294  13.684  33.112  21.245  0.2748  0.3023  0.0190
23382W        W66295   6.113  11.345  16.422  0.1627 -0.0214  0.1118
23383W        W66296   4.458  34.175  21.078  0.1695 -0.0059 -0.0203
23384W        W66297   6.098   8.079  24.142  0.4330 -0.2556 -0.2377
23385W        W66298   6.636  18.933  17.911  0.0530  0.2334  0.1579
23386W        W66299   8.550  13.528  15.406 -0.3299  0.4440 -0.0298
23387W        W66300  12.967   7.004  16.539  0.2891  0.1780 -0.0787
23388W        W66301  31.254  28.259  23.006 -0.0616  0.3234  0.0526
23389W        W66302  12.165  10.444  29.445 -0.1782 -0.4398  0.0984
23390W        W66303  10.830  31.960  26.148 -0.0917 -0.1284 -0.0199
23391W        W66304   9.386   5.693  18.683 -0.3689 -0.0472  0.0159
23392W        W66305  22.717   6.050  27.294 -0.0986  0.1563  0.0869
23393W        W66306  13.340   9.848  18.602 -0.2858 -0.0769 -0.1894
23394W        W66307   5.254  12.284  16.511  0.0442  0.1414  0.2029
23395W        W66308  20.382  11.402  21.609  0.0826 -0.0309  0.0524
23396W        W66309   6.759   7.719  18.912  0.2045 -0.0561  0.0145
23397W        W66310  21.012  14.332  16.283  0.0896  0.2904 -0.0542
23398W        W66311  31.858   0.335  19.566 -0.2827  0.0711 -0.1645
23399W        W66312   1.748   8.706  15.913 -0.1979 -0.1836  0.1169
23400W        W66313  12.178   3.684  21.093  0.1349 -0.4681  0.2944
23401W        W66314  11.102  14.831  18.721 -0.2964 -0.2162  0.1271
23402W        W66315   5.799  13.533   0.180  0.0769  0.0199  0.1430
23403W        W66316   3.847  29.422  17.017 -0.0300 -0.1358  0.2651
23404W        W66317  16.668   6.953  29.626 -0.1895  0.1269 -0.0840
23405W        W66318   1.830   8.024  17.111  0.1489  0.3916 -0.0871
23406W        W66319   9.833  10.100  18.955 -0.0740  0.1001  0.2874
23407W        W66320  28.709  11.922  22.358  0.1204 -0.0427  0.2714
23408W        W66321   7.757   9.844  19.999  0.2783  0.0499 -0.1905
23409W        W66322  31.656  11.072  15.219 -0.0860 -0.2988  0.0675
23410W        W66323  31.525   1.066   0.144  0.0030  0.4917 -0.4085
23411W        W66324   5.528  30.038  22.104 -0.0545 -0.2666 -0.2083
23412W        W66325  16.371   8.216  25.361 -0.0565  0.0132 -0.2665
23413W        W66326  11.282  14.294  19.769 -0.0227  0.2278 -0.3727
23414W        W66327   3.463  34.310  24.203  0.1129  0.1481  0.1330
23415W        W66328  12.241   8.836  15.935  0.1157 -0.0016 -0.0544
23416W        W66329   4.164  33.461  22.420 -0.3358  0.1329 -0.3184
23417W        W66330   6.436   3.224  17.442 -0.0665  0.0939  0.2173
23418W        W66331  32.422  11.848  17.630  0.1044  0.0606 -0.0662
23419W        W66332   6.480   9.879  19.462  0.1133  0.1543 -0.0661
23420W        W66333  31.676   6.754  17.210  0.0400  0.4803  0.1569
23421W        W66334   8.115   5.121  19.927 -0.1378 -0.1672 -0.2748
23422W        W66335  17.858  17.500  11.792  0.1514 -0.1979  0.0674
23423W        W66336  12.786  13.024  23.549 -0.2774 -0.3526  0.1062
23424W        W66337  29.256   9.042  20.234  0.0695  0.1193  0.1650
23425W        W66338   4.722   5.971  17.341 -0.1069  0.0985  0.3506
23426W        W66339  13.112   9.211   3.384  0.1858 -0.0751 -0.3070
23427W        W66340  11.635  32.271  22.015  0.2742 -0.0008  0.3615
23428W        W66341  10.944  17.864  29.171 -0.0331 -0.0250 -0.0019
23429W        W66342  20.874   7.115  21.301  0.0958  0.1473  0.1378
23430W        W66343  13.174  11.574  21.623  0.0566  0.2007  0.0800
23431W        W66344   4.554  11.784  18.087 -0.2549  0.4739 -0.1266
23432W        W66345   4.581  10.534  16.104  0.2458 -0.3466 -0.0194
23433W        W66346   4.199   7.980  19.767 -0.0630  0.2493 -0.2994
23434W        W66347   4.778   2.448  19.201  0.1759 -0.1918  0.2857
23435W        W66348  12.878   2.650  17.193 -0.0823 -0.2848  0.1748
23436W        W66349  10.169  15.271  14.812 -0.1098 -0.0914 -0.0783
23437W        W66350   6.512   4.256  20.563 -0.1358 -0.0997  0.1432
23438W        W66351   5.988  10.160  16.716 -0.2152  0.0021 -0.1016
23439W        W66352   3.688  17.417  23.968  0.0084 -0.2331  0.1532
23440W        W66353   1.764  14.112  20.400 -0.0528  0.0750 -0.1287
23441W        W66354  31.831   4.683  17.219  0.0811 -0.2653 -0.0865
23442W        W66355   7.929   2.643  21.050 -0.0615 -0.0582  0.2053
23443W        W66356  10.935   1.303  24.490  0.1094  0.1019 -0.0721
23444W        W66357   2.618   3.170  21.344 -0.0078 -0.1254  0.0528
23445W        W66358  14.579  16.590  14.108 -0.0579  0.0976  0.0021
23446W        W66359   2.949   5.423  17.332 -0.1284  0.0360 -0.1356
23447W        W66360   7.566  10.515  21.051  0.1836 -0.3243  0.0788
23448W        W66361   3.504   2.024  26.401 -0.0386  0.0574 -0.0710
23449W        W66362  13.420  15.353  27.214  0.1718  0.0712 -0.0578
23450W        W66363  31.857  19.279  14.674 -0.0415  0.0652 -0.1226
23451W        W66364   6.506  18.787  26.323  0.0871  0.1832  0.0240
23452W        W66365   5.329  15.282  22.950 -0.1631 -0.0844  0.0337
23453W        W66366   3.117  15.619  23.589 -0.1664 -0.0013  0.0169
23454W        W66367  29.510   1.618  15.084 -0.4983  0.4085 -0.0999
23455W        W66368  20.618   1.429  24.515  0.5428  0.1581 -0.1399
23456W        W66369  27.727   5.246  16.956 -0.2244 -0.4898 -0.3463
23457W        W66370   4.757   2.808  20.012 -0.1345  0.1635 -0.0639
23458W        W66371   4.619   5.841   3.241 -0.0830 -0.2154  0.2537
23459W        W66372  32.291  13.572  18.811  0.3939  0.1278 -0.0941
23460W        W66373  13.667   1.921  22.971  0.1850 -0.0241  0.1882
23461W        W66374  29.878  29.870  21.567 -0.4596 -0.3010  0.2207
23462W        W66375  12.708  18.425  19.931 -0.2497  0.0071 -0.3100
23463W        W66376   5.404   6.019  26.969  0.1968 -0.3003  0.0936
23464W        W66377   5.182  13.085  17.572  0.0081 -0.1686 -0.1496
23465W        W66378   3.514   9.193  20.596  0.0763 -0.1442  0.0660
23466W        W66379  33.853   9.286  17.623  0.1372 -0.0032 -0.2683
23467W        W66380   8.043  15.609  19.219  0.1171  0.2773  0.2574
23468W        W66381  30.418   6.800  17.333 -0.0369  0.1603 -0.1099
23469W        W66382   9.519  22.798  20.827  0.1986  0.0839 -0.1261
23470W        W66383   6.085  13.652  15.162 -0.1609  0.3278  0.1519
23471W        W66384   5.740  15.051  18.214 -0.3837  0.4195 -0.1690
23472W        W66385  32.542  14.155  16.638 -0.0019  0.0800 -0.2382
23473W        W66386  16.936   3.741  19.021  0.0504  0.0598 -0.0412
23474W        W66387  32.630  10.077  17.386  0.0324  0.3554  0.1101
23475W        W66388  30.733   9.457  26.711  0.2274 -0.1415  0.1584
23476W        W66389  29.937  16.113  13.944  0.0135 -0.1997 -0.1187
23477W        W66390   6.215  10.236  16.193  0.0602  0.2784 -0.1221
23478W        W66391   3.189  12.285  17.475 -0.0489 -0.0173 -0.0268
23479W        W66392  13.358   7.646  29.477 -0.0160  0.0577 -0.2851
23480W        W66393   8.056   7.263  21.875 -0.1317  0.2870 -0.2740
23481W        W66394   6.522   2.908   2.636 -0.2226  0.0802 -0.1277
23482W        W66395   4.993   3.933  25.246 -0.2263  0.0022  0.1433
23483W        W66396   5.565  12.957  17.966  0.1070  0.1978  0.1077
23484W        W66397   3.357   3.879  26.286 -0.1241  0.1111 -0.3622
23485W        W66398   4.725  10.987  16.037  0.0087  0.2713 -0.2005
23486W        W66399  14.442  16.683  27.107 -0.2207 -0.2916 -0.3533
23487W        W66400  30.451  16.731  19.762  0.0982  0.1377 -0.0132
23488W        W66401   3.429   8.870  19.874 -0.1253 -0.2033  0.0152
23489W        W66402  12.386   2.112  24.826 -0.1330  0.4267  0.2061
23490W        W66403  29.105  15.649  19.762 -0.0421  0.1581 -0.2350
23491W        W66404  13.518  33.698  28.443  0.1882  0.2549  0.2463
23492W        W66405  12.078   9.285  23.615 -0.1529  0.0945  0.1164
23493W        W66406   1.923   8.385  16.800  0.0169  0.1387  0.1368
23494W        W66407   6.009   2.538  22.378 -0.1350  0.1356  0.1041
23495W        W66408   5.035   4.411  17.038 -0.0478  0.2266  0.0118
23496W        W66409  15.099  10.105  21.710  0.0747 -0.0032  0.1148
23497W        W66410   1.731  11.306  16.790  0.0846 -0.2226  0.0109
23498W        W66411  20.239   9.903  14.595  0.2869  0.2966 -0.0175
23499W        W66412   9.302   3.172  22.545  0.0865  0.1142  0.0522
23500W        W66413  22.169  19.083  14.831  0.4482 -0.0540 -0.0442
23501W        W66414  11.300   0.627  24.685  0.1727 -0.1342 -0.1172
23502W        W66415  30.115  31.299  20.909  0.2910  0.1021  0.2663
23503W        W66416   8.318  12.987  22.139 -0.0072  0.0354  0.0505
23504W        W66417   7.371  30.019  18.269 -0.1133  0.3732 -0.1197
23505W        W66418   9.093  10.105  23.923  0.1792  0.0646  0.1565
23506W        W66419   1.394   7.391  26.021 -0.0213 -0.1171 -0.0822
23507W        W66420  33.089   9.309  17.623 -0.0895 -0.0022  0.0567
23508W        W66421   7.765  10.340  18.122  0.0276  0.0777  0.1428
23509W        W66422  27.576   4.305  19.961 -0.0384 -0.3296 -0.3171
23510W        W66423   3.777  15.943  18.043  0.0022  0.0253 -0.3928
23511W        W66424  13.340  10.468  14.042 -0.2064 -0.1336 -0.1467
23512W        W66425   8.083   6.013  19.174 -0.2273 -0.0332  0.0239
23513W        W66426  33.757  15.867  15.589  0.1625  0.2168  0.0703
23514W        W66427   6.476  33.220  25.096 -0.3194 -0.3625  0.0929
23515W        W66428   1.941  21.430  13.531  0.2660  0.0060 -0.0116
23516W        W66429   5.524   8.803  18.075 -0.4050 -0.1440 -0.1899
23517W        W66430   0.681   7.907  17.922 -0.0604 -0.3957  0.0484
23518W        W66431  10.246  15.416  16.824 -0.0186 -0.1649 -0.1473
23519W        W66432   7.360   2.661  18.761 -0.0229 -0.0352  0.0410
23520W        W66433   8.259  17.848  21.589  0.4249  0.0940  0.0656
23521W        W66434  15.295   7.152   2.261 -0.0625  0.2371  0.3450
23522W        W66435  17.343   7.603  15.682 -0.2387 -0.3877  0.1949
23523W        W66436   6.269   8.167  28.225  0.4775 -0.2275  0.1242
23524W        W66437   0.210   7.176  18.967 -0.2765 -0.2024 -0.0626
23525W        W66438   6.879  32.770  25.786  0.0438 -0.0609 -0.0463
23526W        W66439   2.872   9.298  16.637 -0.2047 -0.0434  0.0431
23527W        W66440   8.548  28.800  25.615  0.1879  0.2322 -0.1617
23528W        W66441   7.416  17.553  25.468 -0.2364  0.1830 -0.3032
23529W        W66442  12.418   6.088  15.310 -0.0495  0.0452 -0.1865
23530W        W66443  32.768  13.921  26.062 -0.1701  0.2027  0.2402
23531W        W66444  10.180   6.936  18.265  0.2193  0.1151 -0.2564
23532W        W66445   6.854   5.445  24.918  0.2090  0.1489  0.2317
23533W        W66446   0.097  12.312  21.399  0.2983 -0.0988 -0.1460
23534W        W66447   5.536  17.293  19.557 -0.1740  0.2624  0.0219
23535W        W66448  12.519   8.793  19.710 -0.1527  0.0024  0.2610
23536W        W66449  14.142  11.914  16.159 -0.3336 -0.0368  0.0078
23537W        W66450   2.707   5.519  18.762 -0.3951 -0.1406  0.0225
23538W        W66451   5.141  28.511  23.082 -0.3262 -0.0446 -0.1061
23539W        W66452   9.916  16.059  15.096 -0.0809 -0.1172  0.0132
23540W        W66453   7.428  12.284   3.956  0.0262 -0.1614 -0.1188
23541W        W66454  27.020   4.638  23.204  0.2800  0.0049 -0.1280
23542W        W66455   6.935  10.718  21.243  0.4401  0.2297 -0.2827
23543W        W66456   4.949  34.028  24.783 -0.1764  0.2011 -0.1912
23544W        W66457   4.610  30.665  21.773  0.2530 -0.1095 -0.0842
23545W        W66458   6.606   1.789  17.539  0.0174  0.0848 -0.1684
23546W        W66459  32.540  11.128  28.261  0.1147 -0.1368  0.0273
23547W        W66460  33.509   4.754  16.440 -0.1585 -0.2895 -0.0912
23548W        W66461   3.066  12.259  15.704 -0.0903 -0.1570  0.1030
23549W        W66462  11.634   3.256  24.716 -0.0012  0.1744 -0.0346
23550W        W66463   4.272   9.093  22.062 -0.1537  0.2934 -0.0863
23551W        W66464  14.416   3.622  18.871  0.3143  0.0316  0.1023
23552W        W66465   5.549   7.307  21.400  0.4497 -0.3219  0.1346
23553W        W66466   0.263  34.046  18.038  0.1940  0.2773  0.0935
23554W        W66467  16.853  28.428  15.851 -0.0271  0.0543 -0.0517
23555W        W66468   7.439   3.613  20.761 -0.2279 -0.1129  0.1679
23556W        W66469  11.362   2.044  18.971 -0.2444 -0.1884 -0.0922
23557W        W66470  13.525  15.701  13.374  0.0045  0.0725 -0.1246
23558W        W66471  33.707   7.233  19.745  0.0365 -0.1968 -0.3025
23559W        W66472  16.290   9.499  17.581  0.0757 -0.0177 -0.0952
23560W        W66473  10.743   7.948  18.608 -0.1224 -0.0807 -0.4502
23561W        W66474  33.109   8.459  18.276  0.0601  0.2378 -0.2004
23562W        W66475   2.745   5.364  16.814 -0.0837 -0.0439  0.0061
23563W        W66476   7.935  11.398  18.707  0.0334  0.1009  0.0950
23564W        W66477   0.149   2.847  28.873 -0.0330  0.2141 -0.1511
23565W        W66478   0.875  27.899  25.500  0.3576  0.0968  0.0878
23566W        W66479  17.677  13.706  18.527  0.2814  0.0634 -0.0311
23567W        W66480  30.903   8.375  16.260  0.2136 -0.1270  0.0375
23568W        W66481   9.393  18.877  22.500 -0.2156 -0.1356 -0.1990
23569W        W66482  11.232  15.033  22.134  0.1469  0.0440  0.0365
23570W        W66483   4.955   7.423  16.827  0.1798  0.1752 -0.2273
23571W        W66484  28.418  12.437   2.546  0.0216  0.2168  0.1562
23572W        W66485   3.249  21.162  15.155  0.2968 -0.1229 -0.2538
23573W        W66486   8.031   3.000  19.139  0.1464 -0.1280 -0.2716
23574W        W66487   5.409   8.149  22.079  0.1277 -0.0514 -0.2580
23575W        W66488   7.447   8.941  24.232 -0.1326  0.0643  0.4642
23576W        W66489   1.768  33.566  17.817 -0.0075  0.0973 -0.0096
23577W        W66490  33.564   6.241  19.120 -0.0943 -0.0473  0.1645
23578W        W66491  13.669   8.825  18.249 -0.0127 -0.4416 -0.1060
23579W        W66492  25.828  16.314  27.260 -0.1858 -0.2152 -0.1630
23580W        W66493   9.788   5.144  21.766 -0.1186 -0.2384 -0.3821
23581W        W66494   2.937  10.215  22.665 -0.3011  0.1788  0.1735
23582W        W66495   0.298  17.104  16.378  0.1723 -0.0937 -0.0020
23583W        W66496  17.147  12.107  20.836 -0.2429 -0.0160 -0.0130
23584W        W66497  10.450  10.499  16.307 -0.2091  0.1853 -0.2763
23585W        W66498  33.929  20.220  18.210  0.0440  0.1518 -0.0177
23586W        W66499  26.539  15.590  16.048 -0.2203  0.0288  0.0147
23587W        W66500   8.630   2.220  18.002  0.0085  0.0024 -0.2461
23588W        W66501   2.230   9.150  24.483  0.1058  0.2891  0.2633
23589W        W66502  30.557   8.595  19.770 -0.0438  0.0199 -0.2231
23590W        W66503   2.798  10.767  16.838 -0.0276 -0.0504  0.2575
23591W        W66504   2.966   8.698  19.828  0.0343 -0.2600 -0.1992
23592W        W66505   2.507  30.945  18.565  0.0762 -0.1266 -0.0833
23593W        W66506   3.297  14.248  18.614  0.1968 -0.3951 -0.3384
23594W        W66507   6.537  21.841  20.641 -0.2040  0.0190 -0.1197
23595W        W66508  25.887  31.257  18.178 -0.0144  0.0002  0.3840
23596W        W66509   2.482  21.686  17.615 -0.0291  0.3159 -0.1992
23597W        W66510   0.987   9.614  18.417  0.2234 -0.0916 -0.0102
23598W        W66511   2.856   4.787  19.717  0.0814 -0.3369  0.1849
23599W        W66512   3.952  18.108  19.822  0.2057 -0.3197  0.3259
23600W        W66513  16.244   9.294  15.919  0.1202  0.0860  0.1454
23601W        W66514   8.206   3.769  18.654  0.1402  0.2625  0.2820
23602W        W66515   3.704   7.449  22.080  0.1142 -0.1360 -0.2732
23603W        W66516  21.795   2.757  17.955 -0.5943 -0.0151  0.3454
23604W        W66517  12.827  13.383  22.312  0.0465 -0.3252  0.0840
23605W        W66518  15.382   7.422  14.866 -0.0315  0.1291  0.1137
23606W        W66519  15.604  16.465  23.733  0.2037 -0.1823  0.0648
23607W        W66520  10.075   3.739  22.110 -0.2973 -0.2418  0.2057
23608W        W66521  10.875   2.568  16.664 -0.0665  0.0023 -0.0997
23609W        W66522   4.604   4.589  23.682 -0.0734  0.0297 -0.2221
23610W        W66523   6.387  31.635  22.652 -0.1098 -0.1278 -0.3098
23611W        W66524  12.493  34.141  21.607 -0.2075  0.0782 -0.0966
23612W        W66525   5.365  16.609   3.570 -0.0378 -0.0266  0.4188
23613W        W66526  23.732  12.736  23.853  0.1742  0.3398 -0.2107
23614W        W66527  27.310  21.700  27.343  0.2227  0.0713 -0.0500
23615W        W66528  33.461   6.937  25.115  0.3251  0.1704 -0.0393
23616W        W66529  14.392  14.624  21.536  0.2155  0.2151  0.1782
23617W        W66530   1.659  17.592   0.688 -0.1899  0.2835 -0.3720
23618W        W66531   3.598  20.606  25.026 -0.0115 -0.0332 -0.0798
23619W        W66532  13.582  19.382  25.979  0.0436 -0.1274  0.2617
23620W        W66533  10.822  17.981  23.361  0.3967  0.0629 -0.3854
23621W        W66534  14.670   2.971  16.551  0.2769 -0.1257 -0.0283
23622W        W66535   4.924  17.930  14.649  0.0208  0.0832  0.0406
23623W        W66536  10.408   6.725  19.135 -0.0800  0.1393 -0.4099
23624W        W66537   8.453   7.071  22.159 -0.1132  0.0410 -0.3608
23625W        W66538   8.207   8.722  23.447  0.1231 -0.0271 -0.2197
23626W        W66539  31.286   9.315  23.587 -0.1018  0.1065  0.1314
23627W        W66540  28.854   9.983  20.103  0.2682 -0.4171 -0.1331
23628W        W66541   8.012  11.920  14.569  0.2497  0.3765 -0.0447
23629W        W66542  10.883  13.595  19.189  0.0786 -0.0421 -0.0884
23630W        W66543  12.731   1.196  17.112 -0.1210 -0.1820 -0.1274
23631W        W66544  29.788   4.661  26.337 -0.2463  0.3126 -0.1166
23632W        W66545   8.926   1.882   0.175  0.0091  0.1103 -0.1435
23633W        W66546   5.527  10.132  24.011 -0.3490  0.0450  0.1959
23634W        W66547   9.258  17.113  19.294 -0.2875 -0.0651  0.2384
23635W        W66548   6.193   8.321  16.717  0.0117 -0.0421  0.0979
23636W        W66549   2.691   7.181  20.973  0.4794  0.1663 -0.4501
23637W        W66550  16.419   4.328  17.406 -0.1151  0.2384 -0.1561
23638W        W66551   7.139  20.083  21.193 -0.1329 -0.2737  0.2527
23639W        W66552   5.541   3.491  18.514 -0.0141 -0.2186 -0.1041
23640W        W66553  30.655  20.903  29.373  0.2712 -0.1001  0.1674
23641W        W66554  18.176  16.703  23.549 -0.1555  0.1266  0.1257
23642W        W66555  32.719  14.599  27.529 -0.0620  0.2016  0.1856
23643W        W66556   2.559   8.935  20.221 -0.3053  0.3303  0.0277
23644W        W66557   9.294  15.725  16.691 -0.4250 -0.0022  0.0731
23645W        W66558  33.703   7.439  20.731 -0.0721 -0.1233 -0.0993
23646W        W66559  29.868   4.393  18.264 -0.4040  0.0098 -0.0103
23647W        W66560  12.068   3.374  26.316  0.1814  0.0232 -0.3468
23648W        W66561  18.473   3.683  20.189 -0.0044 -0.1577  0.0757
23649W        W66562   4.486   6.727  26.501  0.0553 -0.0179 -0.1926
23650W        W66563   7.830   8.107  21.563  0.0604 -0.1285 -0.3572
23651W        W66564  11.425  24.009  17.523  0.0162 -0.0151  0.4005
23652W        W66565   8.327  11.607  24.684 -0.2137  0.0727  0.0024
23653W        W66566   7.789  13.463  14.707  0.2318 -0.0044 -0.2359
23654W        W66567  15.938   8.853  17.467  0.0949  0.1577 -0.2481
23655W        W66568  34.270  15.686  17.032  0.0684 -0.0075 -0.0886
23656W        W66569   2.349   7.949  18.440  0.1374 -0.0271  0.0121
23657W        W66570   0.570  16.213  20.958 -0.0426 -0.3428  0.1097
23658W        W66571  13.899   2.053  24.473 -0.0018  0.0999  0.2211
23659W        W66572   6.788   4.099  23.884 -0.1226 -0.0121  0.0623
23660W        W66573   5.812  16.318  27.237  0.1391  0.3293  0.3843
23661W        W66574  30.900  11.809  26.340  0.1705  0.0911  0.1380
23662W        W66575   6.163  31.668  24.433  0.2381 -0.3338  0.1352
23663W        W66576   4.169   8.383  20.632 -0.0693 -0.0523 -0.1745
23664W        W66577   6.365   2.293  12.266 -0.0685 -0.2602  0.0520
23665W        W66578  16.879   8.236  19.273 -0.0014  0.1173  0.1705
23666W        W66579   1.852  31.421  19.712  0.1169  0.0845  0.1474
23667W        W66580  11.213   9.049  19.496  0.1245 -0.1528  0.0039
23668W        W66581  29.923  12.070   1.150 -0.0513  0.0602  0.0292
23669W        W66582  13.473  25.034  15.521 -0.2699 -0.1988 -0.0333
23670W        W66583  13.063  32.907  18.048 -0.1441  0.1810  0.1450
23671W        W66584   8.944   0.409  23.789 -0.1815 -0.3446  0.2109
23672W        W66585   8.307  18.860  20.030 -0.0058  0.1289  0.1621
23673W        W66586  29.051  14.851  26.648  0.1343  0.0615  0.0793
23674W        W66587  10.983  15.153  18.357 -0.0645 -0.0206  0.0409
23675W        W66588   8.250  17.568  15.903  0.5512 -0.2566  0.1658
23676W        W66589   6.485   6.307  17.754 -0.1674  0.2173 -0.0989
23677W        W66590  31.176  15.161  23.749 -0.2750 -0.2382 -0.0884
23678W        W66591   7.392   3.737  24.550 -0.1817 -0.1024  0.1811
23679W        W66592   2.869   3.408  22.871  0.3794  0.0864 -0.1187
23680W        W66593   6.037  29.681  16.535 -0.1065 -0.0530 -0.1113
23681W        W66594   0.349   2.445  24.737  0.4274  0.1631 -0.2899
23682W        W66595  12.738   4.943   3.775  0.1966  0.0035  0.0797
23683W        W66596  33.043  11.096  16.305 -0.2182  0.0624  0.0076
23684W        W66597   9.173   9.175  20.367 -0.1335 -0.2272  0.1537
23685W        W66598   1.858  24.731  22.265  0.0376  0.2009 -0.1485
23686W        W66599  14.191   7.669  16.335  0.0192  0.0993 -0.0646
23687W        W66600  34.251   6.999  23.938  0.1731 -0.2675 -0.3220
23688W        W66601   0.617   9.621  19.744 -0.0186  0.4386  0.0164
23689W        W66602   1.071   5.871  28.059 -0.3327  0.4582 -0.0372
23690W        W66603   8.478  14.190  21.567  0.0578  0.1577  0.0547
23691W        W66604  15.543  12.136  16.850  0.3184 -0.0429  0.1678
23692W        W66605   5.442  10.625  25.756  0.0944 -0.1292 -0.3368
23693W        W66606   0.868   0.922  20.087 -0.0870  0.1516 -0.0226
23694W        W66607  11.245  24.917  16.226  0.0273  0.0686 -0.0811
23695W        W66608  11.372   6.342  17.784  0.1964 -0.0248 -0.2242
23696W        W66609  14.494  10.689  20.760 -0.2163  0.1544  0.1778
23697W        W66610   9.574   6.990  16.436 -0.3470 -0.0365  0.1967
23698W        W66611   3.590   8.347  18.989 -0.1256  0.1362 -0.3780
23699W        W66612   9.471  11.094  17.066 -0.4669 -0.1485 -0.0854
23700W        W66613  30.828   8.003  17.287 -0.0800  0.3620  0.2489
23701W        W66614  21.625   5.450  23.590 -0.2378 -0.2733  0.2428
23702W        W66615   2.375  19.401  19.977  0.4221  0.4729 -0.1192
23703W        W66616  10.639   4.692  20.709 -0.0594  0.1037  0.0078
23704W        W66617   9.578   8.970  22.843  0.4827 -0.0369 -0.1796
23705W        W66618  10.841   2.622  20.168  0.1162  0.0975 -0.2334
23706W        W66619  11.699   3.532  18.968  0.0307  0.1501 -0.2046
23707W        W66620   3.157   5.784  18.872  0.1416  0.1048  0.6013
23708W        W66621   3.402   4.921  29.578 -0.1557 -0.2121  0.0422
23709W        W66622   6.956  12.796  17.598 -0.0163  0.1962  0.3425
23710W        W66623   8.976  10.713  20.925 -0.2582  0.2013 -0.0367
23711W        W66624  30.562   7.482  26.507 -0.2998  0.0252 -0.1182
23712W        W66625   3.375   5.527  24.181  0.0575  0.0384 -0.2213
23713W        W66626  12.204  16.459  20.743  0.0671 -0.0613 -0.1082
23714W        W66627   0.602   4.038  22.949 -0.1491  0.1695 -0.1897
23715W        W66628  32.694   9.547  21.639 -0.1915  0.1532 -0.0103
23716W        W66629  10.926   2.044  17.793  0.1937 -0.0295  0.0423
23717W        W66630   1.189   1.928  24.416  0.1338 -0.0494  0.2634
23718W        W66631   0.864   9.702  17.166  0.0296  0.0998 -0.4277
23719W        W66632   2.145  12.596  26.414  0.2394  0.0422 -0.1592
23720W        W66633   8.236  14.726  13.270  0.4471  0.0641 -0.0650
23721W        W66634  30.594  28.980  14.035 -0.2012 -0.0710 -0.3181
23722W        W66635  21.773   7.937  15.139  0.3786  0.0617  0.1255
23723W        W66636  13.866   6.337  27.071  0.1796  0.0364  0.0198
23724W        W66637   3.237   5.692  25.987  0.1119  0.0784  0.3987
23725W        W66638   9.354   8.944  18.591  0.0849 -0.1227 -0.2574
23726W        W66639   5.326  21.040  25.339 -0.0493  0.3316 -0.0727
23727W        W66640   5.547  33.425  16.388 -0.3996 -0.0387 -0.1810
23728W        W66641   2.078   5.823  23.045 -0.3995  0.2465  0.2183
23729W        W66642  11.156   7.602  18.614 -0.0502 -0.0780  0.0035
23730W        W66643  34.134  17.982  23.548 -0.3923  0.1210 -0.1499
23731W        W66644  33.504  11.020  16.042 -0.2382  0.1811 -0.2944
23732W        W66645   3.175  11.915   1.286  0.1058 -0.2774 -0.0974
23733W        W66646  34.401   6.509  23.894 -0.0961  0.1692 -0.0319
23734W        W66647  14.547  16.100  22.526  0.2591 -0.2480  0.0161
23735W        W66648   3.503   2.645  25.123 -0.0879  0.0527  0.1340
23736W        W66649   9.939  18.742  25.437  0.1247  0.1392 -0.0878
23737W        W66650   4.079  16.813  20.159  0.0503  0.1479  0.2682
23738W        W66651  30.659   8.719  21.879 -0.3224  0.0720 -0.1618
23739W        W66652  10.228   5.038  23.945 -0.1216  0.1929 -0.1862
23740W        W66653  16.132  31.277  22.320  0.1995  0.1284 -0.1691
23741W        W66654   6.367  12.545  28.845 -0.2362 -0.0297 -0.1444
23742W        W66655  11.262   1.529   5.968 -0.0749 -0.1471 -0.0994
23743W        W66656  22.354   2.645  20.083  0.1600 -0.2421  0.2461
23744W        W66657  12.895   5.696  16.549  0.0252 -0.1053  0.1850
23745W        W66658   5.835   7.413  17.994  0.1325 -0.4454  0.2664
23746W        W66659   0.982  15.221  18.473 -0.0439 -0.1376  0.3381
23747W        W66660  25.034   9.944  22.390  0.4114  0.2845  0.0422
23748W        W66661   6.278  12.598  18.289  0.1883 -0.4470  0.0121
23749W        W66662  10.347  12.013  21.798  0.1082  0.0787 -0.1773
23750W        W66663  10.194  21.865  15.208  0.1366 -0.2962 -0.3299
23751W        W66664  14.624   8.499   7.203 -0.1210 -0.1127 -0.0117
23752W        W66665  10.991   1.830  29.747 -0.0559  0.1003  0.0428
23753W        W66666   6.985  21.734  17.738 -0.0090 -0.0985  0.0633
23754W        W66667   9.233  16.684  21.073 -0.0340  0.0316  0.2142
23755W        W66668   1.965   7.925  22.578  0.1288  0.3903 -0.1570
23756W        W66669  10.360  26.490  21.868  0.0480 -0.0163 -0.2180
23757W        W66670  28.224  19.926  14.208 -0.2444  0.3310 -0.2201
23758W        W66671  30.552  31.149  18.551 -0.2191 -0.3608 -0.0165
23759W        W66672   1.331   5.815  21.678 -0.0052  0.0497 -0.2569
23760W        W66673   3.084  31.262  27.745  0.1079 -0.1146  0.3844
23761W        W66674  12.107  20.575   0.487 -0.4836 -0.1267  0.1052
23762W        W66675   7.726  29.788  15.884 -0.1970  0.0259  0.0565
23763W        W66676   3.059  20.733  17.864  0.0300 -0.1407  0.2598
23764W        W66677   6.285  12.171   3.204 -0.0074 -0.2160 -0.0715
23765W        W66678   2.776  21.196  14.674  0.0915  0.2016  0.1654
23766W        W66679  29.359  14.613  17.315 -0.0176  0.1768 -0.1023
23767W        W66680   3.098  32.283  21.958  0.1959  0.3120 -0.1918
23768W        W66681  26.456   3.450  26.806  0.1405  0.1847  0.2812
23769W        W66682  15.906   9.758  22.566 -0.3413 -0.2410 -0.1265
23770W        W66683   4.163  11.734  18.471 -0.2259 -0.1635 -0.0365
23771W        W66684  10.244   9.100  24.394  0.0005  0.1053  0.1556
23772W        W66685   8.695  13.883  28.799 -0.0210 -0.0970 -0.0719
23773W        W66686  34.233  10.518  17.826  0.1216  0.0993  0.0197
23774W        W66687  10.227   8.258  24.107 -0.1499 -0.0450 -0.1027
23775W        W66688  34.034   6.169  19.374  0.0295 -0.0288 -0.1403
23776W        W66689  34.439  12.252   4.291  0.1707  0.2679 -0.2065
23777W        W66690  21.424   6.528  22.040 -0.3160 -0.2890  0.0681
23778W        W66691   5.436   3.407  23.490  0.0092 -0.0716 -0.1110
23779W        W66692  13.077  11.503  24.930 -0.0322  0.0523 -0.1601
23780W        W66693  14.226   3.593  26.321 -0.0354  0.2442  0.1353
23781W        W66694  14.110   5.004  20.276 -0.3764  0.1157 -0.0954
23782W        W66695  33.997  17.265   9.475  0.1674  0.3575 -0.4448
23783W        W66696  10.980   7.020  24.767  0.0030 -0.0833 -0.0836
23784W        W66697   4.849   4.684  28.244 -0.1702 -0.1493  0.0557
23785W        W66698   0.939   9.616  25.501 -0.0533  0.1080  0.1534
23786W        W66699   5.307   3.580   6.553  0.3090 -0.1424 -0.0177
23787W        W66700   2.805  18.767  21.663 -0.3093  0.0372  0.1293
23788W        W66701   4.795  11.019   0.555  0.3201  0.0609 -0.2540
23789W        W66702  10.821  13.705  22.488 -0.0944  0.1738  0.1762
23790W        W66703   4.964   7.995  25.796 -0.2301 -0.0685 -0.3589
23791W        W66704  24.681  13.633  24.519  0.2217  0.0397  0.1501
23792W        W66705   8.782  17.840  21.445  0.1523 -0.0276  0.1570
23793W        W66706  33.494   4.440   4.395 -0.0018  0.2506  0.3084
23794W        W66707  14.088   8.628  25.033 -0.0605  0.0305  0.1412
23795W        W66708  11.106  16.027  25.726 -0.1974  0.0118  0.4208
23796W        W66709  12.850   7.856  25.265  0.0003  0.1337 -0.0164
23797W        W66710  18.487  14.359  24.481  0.3284  0.0313 -0.0240
23798W        W66711   5.380   2.108  24.812  0.0395 -0.2212  0.4579
23799W        W66712  10.144   6.630  26.440  0.3495  0.2229  0.3003
23800W        W66713  13.033  28.324  20.072 -0.2498  0.1269 -0.2243
23801W        W66714  10.276   9.719  17.503 -0.0779 -0.0795 -0.0653
23802W        W66715   1.819   7.832  17.743  0.1170 -0.2617 -0.2143
23803W        W66716  21.393  14.738  13.835  0.0144  0.0653  0.5344
23804W        W66717   0.881  11.783  21.514 -0.1721 -0.2869  0.1634
23805W        W66718   9.546   7.198  20.169  0.1187  0.1765  0.2003
23806W        W66719  11.981  33.937  18.726  0.2511 -0.0369  0.0329
23807W        W66720  33.915   3.427  25.803 -0.2618  0.0712 -0.2029
23808W        W66721  11.908  14.356  21.932 -0.1820 -0.0276 -0.1430
23809W        W66722   8.288  12.965   2.644 -0.0063 -0.0693  0.2806
23810W        W66723  30.087  18.069  20.214  0.0492  0.1628  0.1862
23811W        W66724   6.426   1.347  27.850  0.0193  0.0594  0.1103
23812W        W66725  10.496   8.830  16.798 -0.0212  0.0768  0.1814
23813W        W66726   1.948  16.334  22.198  0.2209  0.4078  0.0287
23814W        W66727   3.370  20.256  16.176 -0.0616  0.1092  0.1666
23815W        W66728  12.267  10.626  24.602  0.1819  0.0075 -0.0624
23816W        W66729  18.257   7.338  18.499  0.5352  0.2209  0.1418
23817W        W66730  14.516   7.053   2.305 -0.0113 -0.1635 -0.2723
23818W        W66731   9.164  18.432  15.387 -0.0517  0.0209 -0.1376
23819W        W66732  12.889   4.869  22.456 -0.1016 -0.0299 -0.0579
23820W        W66733   1.265   2.395  19.445  0.0605 -0.0746  0.0202
23821W        W66734   7.004  15.845  24.742 -0.2662 -0.0793 -0.1778
23822W        W66735   3.891  29.732  15.474  0.1523  0.3362  0.3120
23823W        W66736  25.213  12.558  25.307 -0.0245  0.2113 -0.2151
23824W        W66737  14.532  31.102  22.860 -0.3564 -0.0087  0.1600
23825W        W66738  33.903  10.026  24.527  0.1223 -0.0385 -0.0169
23826W        W66739   5.074  19.022  21.368 -0.1131 -0.3668  0.1873
23827W        W66740  11.405  31.393  19.443 -0.1916  0.1730 -0.1705
23828W        W66741  16.737  10.173  17.038 -0.0495  0.0353  0.0827
23829W        W66742  13.886  10.109  23.380  0.0416  0.0941  0.1036
23830W        W66743  29.028  11.497  25.160  0.2570  0.1923 -0.1444
23831W        W66744   5.712  15.405  24.961  0.3461  0.2806  0.0571
23832W        W66745   3.172  32.869  17.633 -0.0829  0.3037 -0.2039
23833W        W66746  12.456   3.445  22.000  0.0199 -0.1337 -0.5440
23834W        W66747  15.851   7.353  19.263 -0.1930 -0.2475 -0.1751
23835W        W66748  12.666  13.749  18.023 -0.0639 -0.0430  0.2777
23836W        W66749  17.581  34.264  23.232 -0.5736  0.1420  0.1798
23837W        W66750   5.626  11.417  24.292  0.0340  0.3098  0.0172
23838W        W66751   2.671   8.362   2.765  0.0275  0.0650 -0.1197
23839W        W66752   0.433  11.543  22.805 -0.0497  0.1045  0.2703
23840W        W66753  13.962   1.789  29.322  0.0121  0.0184 -0.0262
23841W        W66754   7.473  11.580  19.385 -0.2006  0.2809 -0.0020
23842W        W66755   0.368   4.345  17.178 -0.2998  0.1520  0.1980
23843W        W66756   7.471  12.677  23.844 -0.1111 -0.2391 -0.0310
23844W        W66757   5.201  17.835  18.840 -0.1088 -0.2784  0.0011
23845W        W66758   8.534   1.045  21.851  0.0585 -0.2784 -0.3489
23846W        W66759   4.571   2.019  17.518  0.3709 -0.2377  0.0462
23847W        W66760   2.204  15.201  28.191  0.2603  0.1499  0.4411
23848W        W66761   7.294   7.550   1.557  0.0241  0.2814  0.1551
23849W        W66762  28.632   5.716  18.250 -0.0475  0.1394  0.1692
23850W        W66763   8.969   7.895  20.084 -0.0590 -0.1161 -0.3394
23851W        W66764  16.034  14.930  25.193 -0.1107 -0.0764 -0.0399
23852W        W66765  19.114   6.884  13.499 -0.0037  0.1130  0.0191
23853W        W66766   7.852   4.276  21.565 -0.0704 -0.3144 -0.0860
23854W        W66767   6.074  18.359  26.809 -0.0116 -0.0305 -0.2804
23855W        W66768   8.319   2.914  25.177  0.1549 -0.0933 -0.2405
23856W        W66769  12.930  30.037  25.833  0.0367 -0.1175  0.1883
23857W        W66770  11.921  22.208  19.712  0.1971  0.1027 -0.0157
23858W        W66771  10.840  13.373  27.767  0.0053 -0.1924 -0.0230
23859W        W66772   0.623   3.215  25.770 -0.0606  0.2238  0.4204
23860W        W66773  32.667  10.083   2.406  0.0790  0.2360  0.2022
23861W        W66774   0.243   5.267  25.857 -0.0376  0.1402 -0.0441
23862W        W66775  33.946   6.621  20.287  0.0647  0.1437 -0.0597
23863W        W66776   1.947   5.745  25.913 -0.1991  0.2118  0.1682
23864W        W66777  28.148   9.730  17.777 -0.0378 -0.1535  0.0737
23865W        W66778  14.325  15.599  21.529  0.0093  0.1569  0.4569
23866W        W66779  10.545   8.001   4.642  0.3137  0.0333  0.1151
23867W        W66780   4.991  20.177  14.215  0.0186  0.0161 -0.0067
23868W        W66781   8.902  18.709  25.127 -0.0783 -0.1019  0.2272
23869W        W66782  14.601  21.225  22.883 -0.2497 -0.4898  0.0397
23870W        W66783  12.883  32.480  17.006  0.2047 -0.2704  0.1637
23871W        W66784  31.567   6.967   0.485  0.0248 -0.1956  0.1017
23872W        W66785  33.716  20.190  21.527 -0.0366 -0.0605 -0.0547
23873W        W66786  13.535  18.488  26.307 -0.2132  0.0879 -0.2342
23874W        W66787   4.589  14.376  23.691  0.4551 -0.0282 -0.0030
23875W        W66788   0.760   3.776  20.938  0.0321 -0.2137 -0.1844
23876W        W66789   1.368   9.695  17.729  0.0264 -0.4823  0.0017
23877W        W66790  10.449  32.503  25.016 -0.0913 -0.1467  0.4559
23878W        W66791  18.660   8.078  15.225 -0.2192  0.0229  0.0470
23879W        W66792   9.893   8.841  27.236  0.2989  0.1115  0.1473
23880W        W66793   4.503   8.483  26.506 -0.1662  0.1016 -0.2045
23881W        W66794   3.450   6.803  23.778 -0.1095 -0.1610  0.1498
23882W        W66795   5.088  12.957  19.746  0.2748  0.4286  0.0945
23883W        W66796   4.039   5.734  20.576 -0.2664  0.0438 -0.3994
23884W        W66797  15.721  33.336  21.434  0.0883 -0.1472 -0.0323
23885W        W66798   4.461  14.396  29.540 -0.3077 -0.0522 -0.0656
23886W        W66799   9.306   2.209  21.281  0.0448  0.3619  0.2649
23887W        W66800   2.274   4.059   4.607 -0.1493  0.4749 -0.0812
23888W        W66801   8.408  11.512  26.590 -0.2601 -0.0950 -0.1755
23889W        W66802   2.627  15.792  22.640 -0.1289  0.0796  0.0447
23890W        W66803  19.015  16.531  15.240  0.1018  0.2674  0.0383
23891W        W66804   5.088  15.039  26.481  0.1134  0.1085  0.2334
23892W        W66805   2.754  23.059  24.730  0.0510  0.0542 -0.0525
23893W        W66806   8.095  12.040  25.467 -0.3147 -0.1309 -0.1673
23894W        W66807  19.552   5.821  16.169  0.0139  0.0444 -0.0462
23895W        W66808   3.969  33.967  22.819 -0.3210 -0.1070 -0.0205
23896W        W66809  17.869   5.926  15.213  0.1102 -0.0451 -0.1611
23897W        W66810   0.016  31.130  23.941  0.2384 -0.0299  0.0223
23898W        W66811   2.436   6.769  22.898 -0.0593  0.2905  0.0438
23899W        W66812  13.139   6.537  16.607  0.0929  0.2419 -0.0070
23900W        W66813  10.806   7.616  18.999  0.1347 -0.0240 -0.2033
23901W        W66814  30.772   8.382  25.423 -0.0254  0.1813 -0.2015
23902W        W66815   5.923   1.315  17.058  0.3462  0.0056  0.0276
23903W        W66816  32.948  18.177  16.066  0.2123 -0.2185 -0.4670
23904W        W66817  13.061  13.088  25.471 -0.3436 -0.2363 -0.2212
23905W        W66818  11.564   0.047   0.290 -0.1328 -0.0107  0.3292
23906W        W66819   4.036  15.841  17.669 -0.0119  0.1145 -0.3230
23907W        W66820  31.680   8.698  15.707 -0.0623 -0.1019 -0.4288
23908W        W66821   5.884  34.246  22.899 -0.0207 -0.1779  0.0838
23909W        W66822  11.720  17.580  20.807 -0.0133  0.3209  0.0912
23910W        W66823   9.470  12.663  20.304  0.1242 -0.1480 -0.1117
23911W        W66824  21.051  10.071  21.923  0.1738 -0.0069 -0.0756
23912W        W66825   0.822   3.399  19.168 -0.0871  0.5903 -0.0630
23913W        W66826  10.529  14.553  14.383 -0.1988 -0.1436  0.0492
23914W        W66827   5.647  33.815   0.462 -0.1835 -0.0412 -0.0099
23915W        W66828   4.566   8.406  16.630  0.2196 -0.2051 -0.2230
23916W        W66829  16.855  16.159  24.947 -0.0822  0.0642 -0.0473
23917W        W66830  28.944  12.137  28.695 -0.4332  0.2215 -0.0139
23918W        W66831   3.984   9.342  17.632 -0.0035  0.6829 -0.4522
23919W        W66832  15.605   9.440  13.032  0.0570  0.1214  0.0357
23920W        W66833   8.624  17.992  13.851  0.0983 -0.0397  0.3850
23921W        W66834  32.466   5.768  16.589  0.0647 -0.3020  0.2393
23922W        W66835  18.840  32.947  20.823 -0.0580 -0.0779 -0.0106
23923W        W66836   5.073   5.472  26.948  0.0769  0.0284  0.1374
23924W        W66837  14.150   1.377  22.313  0.2136 -0.1096  0.1003
23925W        W66838   0.966   1.566  16.952  0.0332 -0.1573 -0.2503
23926W        W66839  32.088   8.136  21.149  0.1497 -0.0253  0.0880
23927W        W66840   3.223  11.910  24.132  0.3227 -0.1229  0.1141
23928W        W66841   6.303   8.633  27.994 -0.0985  0.0486  0.0248
23929W        W66842   8.312  16.327  28.841  0.2855 -0.2297 -0.0452
23930W        W66843   0.778   7.256  20.349 -0.0511  0.0204  0.2644
23931W        W66844  22.753  14.104  18.817 -0.0287  0.1759 -0.0032
23932W        W66845  11.242   1.533  27.654  0.3573  0.0717 -0.2625
23933W        W66846  31.573  18.402  17.242  0.1059  0.2700 -0.1738
23934W        W66847   6.802  31.089  25.493 -0.4303  0.0801  0.2039
23935W        W66848   6.341   6.731  21.889 -0.1177 -0.3847 -0.2194
23936W        W66849   2.598  11.393  21.559  0.3603 -0.2829  0.0048
23937W        W66850   1.124   4.786  17.384  0.1377 -0.2107 -0.2227
23938W        W66851  31.110   4.402  28.846  0.1034  0.1308 -0.3881
23939W        W66852   9.456   3.533  18.018 -0.0638 -0.2769 -0.0479
23940W        W66853   1.459  33.999  22.450 -0.1895  0.2344 -0.0171
23941W        W66854   5.002   3.710  18.287 -0.1178 -0.0095  0.2377
23942W        W66855   7.510   6.165   4.629  0.1870  0.1643  0.1120
23943W        W66856   2.004  14.748  14.357  0.1941  0.0900  0.4189
23944W        W66857  22.033  12.009  18.804 -0.2149 -0.0616  0.0607
23945W        W66858   9.364   4.875  18.104  0.1541  0.0219  0.1630
23946W        W66859   9.320   8.415  18.945  0.2082 -0.2556 -0.1997
23947W        W66860   6.327  15.097  23.180  0.1029  0.0861 -0.1414
23948W        W66861   3.712   4.934  28.232  0.0835  0.2899 -0.1816
23949W        W66862   2.911   4.065  25.889 -0.3874 -0.1640  0.1293
23950W        W66863   6.809  12.711  20.642  0.5172 -0.2097  0.0680
23951W        W66864   6.655  10.786  19.752  0.1335 -0.0204  0.1273
23952W        W66865   2.658   6.894  21.957  0.1289  0.1449  0.1001
23953W        W66866  30.535  12.922  19.415  0.0139 -0.0294  0.0467
23954W        W66867   3.051  17.688  24.570 -0.2138 -0.1595 -0.2201
23955W        W66868  27.557   9.768  22.177 -0.0461 -0.1588 -0.1722
23956W        W66869  11.677  28.950  27.126  0.3450 -0.0236 -0.1355
23957W        W66870  18.410  11.203  14.684 -0.0646  0.0304  0.1014
23958W        W66871   2.214  13.638  19.728 -0.1936 -0.1140 -0.0347
23959W        W66872   7.631  16.883  13.727 -0.2530 -0.4570  0.0332
23960W        W66873  12.809  21.302   2.587  0.0694  0.2209  0.1433
23961W        W66874   8.487  15.645   0.410  0.1033  0.0342 -0.1622
23962W        W66875   0.899  13.221  16.728 -0.0619  0.0334 -0.2155
23963W        W66876  20.969   8.399  15.867 -0.2524  0.0826  0.3269
23964W        W66877   8.775  32.495  18.488 -0.0391 -0.0035  0.1020
23965W        W66878   4.786  13.055  16.870 -0.1168  0.0809  0.1287
23966W        W66879   7.260   9.753  21.045  0.0248  0.3009  0.0711
23967W        W66880  11.029   3.350  24.928 -0.0032 -0.0822 -0.2491
23968W        W66881  31.700  11.642  20.841  0.1299 -0.1849 -0.2646
23969W        W66882   6.697  10.842  20.239 -0.1557 -0.2835 -0.0820
23970W        W66883  23.959   4.136  22.457  0.0056  0.0988  0.0488
23971W        W66884   9.357   6.296  19.950 -0.1244 -0.0732 -0.0825
23972W        W66885   7.271  10.574  25.365  0.2966 -0.3948  0.1500
23973W        W66886  16.360   6.729  16.372 -0.3284  0.1558  0.4013
23974W        W66887   6.835  28.746  17.605  0.1455 -0.3351  0.2711
23975W        W66888   1.804   9.941  17.483 -0.1574  0.1899  0.0430
23976W        W66889   6.671  16.317  21.329  0.1094 -0.3106 -0.1665
23977W        W66890   2.438  11.820  18.516 -0.4279 -0.2105 -0.1146
23978W        W66891   5.195   4.637  27.301  0.1229  0.2817  0.0328
23979W        W66892  11.981  34.144  25.475 -0.1527  0.1146 -0.1052
23980W        W66893  32.663   0.674   3.752 -0.1106  0.1746 -0.0102
23981W        W66894   9.947  14.953  27.341  0.0351  0.0679  0.2374
23982W        W66895   3.865  16.472  25.373 -0.1777  0.0226 -0.0278
23983W        W66896   5.346  15.284  14.909 -0.1089  0.2731 -0.3452
23984W        W66897  31.176   8.606  25.693  0.3259 -0.1195 -0.0428
23985W        W66898  30.414  10.122  20.117  0.1773  0.0767  0.4256
23986W        W66899  18.866  13.771  28.183  0.1984 -0.0191  0.0921
23987W        W66900   9.932   5.226  25.605 -0.0076 -0.2985 -0.0801
23988W        W66901  28.905  13.551  23.275  0.3894 -0.4573 -0.0990
23989W        W66902   3.702   7.513  17.663 -0.0856  0.1490  0.0068
23990W        W66903  32.124  13.599  19.339 -0.0693  0.1910  0.1332
23991W        W66904   3.811   3.611  25.401  0.2956 -0.0333 -0.1112
23992W        W66905   9.146  23.908  23.914 -0.2512  0.1569  0.0468
23993W        W66906   7.708  28.306   2.667 -0.1957  0.2019 -0.0775
23994W        W66907   4.649   7.370  28.161  0.0404 -0.2970 -0.1334
23995W        W66908   2.447  13.328  26.832 -0.3017 -0.0142  0.0270
23996W        W66909   2.027  31.063  17.094 -0.1963 -0.0385 -0.0517
23997W        W66910   7.570   2.785  25.058 -0.2987 -0.1348  0.0306
23998W        W66911  19.301   7.744  20.366  0.1794 -0.1181  0.0536
23999W        W66912   2.685  10.943   6.684  0.2325  0.5667 -0.0545
24000W        W66913  31.169   7.220  25.141  0.1856  0.1410 -0.0553
24001W        W66914  13.780  11.117  27.937 -0.3460  0.0599 -0.0447
24002W        W66915  10.711  11.940  23.889  0.1377  0.1533 -0.0854
24003W        W66916   1.871   3.835  21.428  0.1394 -0.1357 -0.0588
24004W        W66917  33.351   8.367   0.794  0.1433  0.0044 -0.2029
24005W        W66918   9.151   7.064  16.811  0.2670  0.0647  0.0421
24006W        W66919   7.113  15.043  28.435 -0.0358  0.0031 -0.2410
24007W        W66920   0.445  15.157  14.752 -0.2290  0.0624  0.0583
24008W        W66921   8.008  10.651  25.702  0.1339 -0.1567 -0.2729
24009W        W66922  26.103   4.578  24.804 -0.1602 -0.4150  0.3254
24010W        W66923  32.294  20.345  29.269 -0.1641 -0.1114  0.3123
24011W        W66924  34.462   5.185  29.018 -0.2475 -0.2200  0.1628
24012W        W66925   8.380  28.673  18.535 -0.2436 -0.0166  0.0153
24013W        W66926   3.326   2.448   1.032 -0.0955 -0.3909  0.2159
24014W        W66927   7.795   2.613  19.081 -0.2858  0.0784  0.2598
24015W        W66928   6.688  19.359  25.349 -0.0276  0.0301  0.0342
24016W        W66929  12.376   6.250   2.220 -0.0862  0.1509  0.2355
24017W        W66930   0.874   5.156  20.425  0.0949  0.2938  0.2013
24018W        W66931  33.428  10.789  24.000  0.0309  0.0648  0.0816
24019W        W66932   1.657  11.840  22.558  0.0045  0.0671  0.0683
24020W        W66933  12.724  12.741  28.347 -0.2659 -0.0311 -0.0704
24021W        W66934   6.390  11.695  20.767  0.1582 -0.0007 -0.2706
24022W        W66935   7.629  25.522  17.113  0.3108  0.1597  0.1073
24023W        W66936  13.761   8.012  21.220  0.1896  0.2108  0.0585
24024W        W66937   1.301  12.848  23.793 -0.1938  0.1635 -0.0519
24025W        W66938  15.796   1.029  15.607 -0.2675 -0.0388 -0.1561
24026W        W66939  26.873   3.666  28.149  0.0353 -0.2620 -0.1534
24027W        W66940   4.150  16.357  19.901  0.1306 -0.1857 -0.2532
24028W        W66941  11.439  15.979  24.410 -0.2337 -0.2696  0.1101
24029W        W66942   7.497   7.313  26.107 -0.2561 -0.1752  0.0025
24030W        W66943   8.040   9.726  18.633 -0.0421 -0.0019 -0.3048
24031W        W66944   3.896  11.829  21.337  0.0448 -0.0814  0.3770
24032W        W66945   1.399   7.291  24.622  0.2489  0.3949  0.0085
24033W        W66946   5.347   8.259  26.870 -0.0487  0.2299 -0.2875
24034W        W66947  29.068  18.498  28.297 -0.0773  0.2583 -0.0734
24035W        W66948   7.018   4.072  21.810 -0.1354 -0.2444 -0.0393
24036W        W66949  10.819   7.310  20.552 -0.3058  0.1087 -0.0240
24037W        W66950   7.206  14.270  22.603  0.1002  0.2935  0.2811
24038W        W66951  12.494   2.711  18.587  0.2779 -0.0204  0.4073
24039W        W66952  21.912  12.050   1.754 -0.0266  0.2119 -0.0769
24040W        W66953  16.698  18.729   1.792 -0.1623  0.1407  0.1094
24041W        W66954   8.327  12.689  24.284 -0.1146  0.0779  0.2141
24042W        W66955  14.102   5.810  19.088  0.3663  0.0199 -0.2000
24043W        W66956  14.162  13.265  21.511 -0.0568 -0.1951  0.0904
24044W        W66957   3.971  19.724  26.549 -0.0674 -0.4135 -0.1950
24045W        W66958  31.741  18.893   6.947  0.3765 -0.1065 -0.0884
24046W        W66959   2.808  11.672  26.083 -0.1337  0.0784 -0.0175
24047W        W66960  11.044  19.529  21.427  0.1349  0.1385  0.0489
24048W        W66961  16.139  12.356   5.307 -0.1458 -0.1994 -0.0225
24049W        W66962  15.404   5.658   0.358 -0.0234  0.0109  0.2809
24050W        W66963  19.798   7.895  17.439 -0.2517 -0.0673 -0.2932
24051W        W66964   7.922   7.782  21.150 -0.1613 -0.1683 -0.5403
24052W        W66965  12.315   5.385   1.234  0.3311  0.0512 -0.0998
24053W        W66966   9.364   6.314  26.738  0.0789  0.1361  0.0269
24054W        W66967   4.600   3.545  25.920  0.2574 -0.3632  0.0779
24055W        W66968  33.626   8.603  24.848  0.0502  0.1345  0.4669
24056W        W66969  12.578   9.905  16.851 -0.0924  0.1626 -0.1116
24057W        W66970   1.828   4.874  25.625  0.1853  0.0392 -0.0014
24058W        W66971   1.459  11.739  25.632  0.0609  0.0931 -0.1022
24059W        W66972  34.136  32.779  26.562 -0.0032 -0.2393  0.1491
24060W        W66973   3.767   3.026  24.803  0.0993  0.0032  0.0272
24061W        W66974  14.055  12.165  19.241 -0.2199 -0.2386  0.1861
24062W        W66975   6.114   0.334  26.230 -0.1734  0.2812 -0.1295
24063W        W66976   0.930  18.275   2.623 -0.1245 -0.0309  0.2650
24064W        W66977  34.148  34.161   2.840  0.2447  0.3190  0.0062
24065W        W66978   9.472  10.327  25.218 -0.0291 -0.1774 -0.1888
24066W        W66979   3.123   1.335  19.915 -0.0899  0.0589 -0.1801
24067W        W66980  16.246  34.322  20.357  0.1479 -0.1294 -0.0919
24068W        W66981  14.552  18.556  21.923  0.0538  0.1823 -0.0642
24069W        W66982   0.446   4.735  28.240  0.0742  0.1840 -0.0168
24070W        W66983  12.358  11.836  27.797  0.0170 -0.1486 -0.1156
24071W        W66984   1.906   3.119  24.612  0.3477  0.2638 -0.0870
24072W        W66985  22.142   5.370  22.772  0.0787 -0.1510 -0.4092
24073W        W66986  32.130   7.229  28.425  0.2730 -0.1231 -0.1557
24074W        W66987   5.859   6.439   5.972 -0.1819 -0.0421  0.1631
24075W        W66988  11.334   5.321  22.799 -0.6153 -0.2731 -0.0831
24076W        W66989  12.282  10.420  28.964  0.1831 -0.0793  0.2086
24077W        W66990   4.152  15.641  21.443 -0.3840  0.1557 -0.1120
24078W        W66991  17.859   5.139  25.168  0.0502 -0.2102  0.0724
24079W        W66992   9.952   3.154  26.220 -0.0796 -0.1692 -0.2320
24080W        W66993  11.567   2.806  25.987 -0.1791  0.0454 -0.0694
24081W        W66994  28.420  11.065   2.470 -0.0246  0.1446  0.4858
24082W        W66995  20.604  31.436  16.139 -0.2585 -0.1054  0.1625
24083W        W66996  26.588  10.267  26.687 -0.1479 -0.1556  0.1651
24084W        W66997   9.256  15.650  17.567 -0.2601 -0.1498 -0.0324
24085W        W66998  17.778  12.106  11.872 -0.1062 -0.0677  0.0060
24086W        W66999   5.202   1.900  23.936  0.0673  0.3190  0.4555
24087W        W67000   5.882  12.515  18.004 -0.1699  0.0419 -0.1660
24088W        W67001   1.799  12.307  24.661  0.1643  0.0668 -0.4744
24089W        W67002  11.739   7.737  27.111 -0.1567  0.3890 -0.0043
24090W        W67003  18.941  31.927  22.898 -0.0440  0.0849 -0.1918
24091W        W67004  11.577  14.104  26.818  0.0520  0.1175 -0.0493
24092W        W67005  17.631   0.046  21.859 -0.1013 -0.0825 -0.3877
24093W        W67006   8.940  32.712  25.495 -0.3594 -0.0933 -0.0651
24094W        W67007   7.787   9.135  25.112 -0.3848 -0.0994  0.3283
24095W        W67008  25.775  21.961  26.822 -0.0319 -0.1475  0.0387
24096W        W67009   5.943   8.178  19.331  0.0899  0.1806  0.0133
24097W        W67010  12.098   6.662  27.672  0.0046  0.1076 -0.1459
24098W        W67011   4.342  13.131   0.515 -0.0104 -0.0541  0.0952
24099W        W67012  10.640   3.659  27.706  0.0270  0.1407 -0.3490
24100W        W67013   2.537  30.585  28.164 -0.1237 -0.2008  0.1565
24101W        W67014   6.854  13.244  29.456  0.4254 -0.1585  0.2946
24102W        W67015   6.564   5.623  19.026  0.0497  0.0469 -0.1043
24103W        W67016  11.803   7.564   5.767 -0.0024 -0.2152  0.1870
24104W        W67017  28.563   6.925  18.133 -0.1472  0.2087  0.2114
24105W        W67018  14.586  16.875  21.828  0.6119 -0.0028  0.2932
24106W        W67019  13.539   5.822  20.689  0.0570 -0.0267  0.0001
24107W        W67020   0.122  27.885  20.181  0.3823 -0.1651  0.0576
24108W        W67021   4.748   4.841  26.416  0.2394 -0.2782 -0.1802
24109W        W67022   7.067   6.123  26.591 -0.1217 -0.2307 -0.0079
24110W        W67023  13.826  11.769  24.168 -0.3093 -0.1527 -0.1285
24111W        W67024   5.745  16.342  22.927  0.2593  0.2388 -0.0293
24112W        W67025   8.312  12.173  22.256 -0.2741 -0.0974  0.0466
24113W        W67026  33.259  19.815  28.363  0.1423  0.0484 -0.1036
24114W        W67027  30.858   5.543  28.825 -0.0148  0.1165 -0.2314
24115W        W67028  15.227  15.821  15.458 -0.0472 -0.3834 -0.2888
24116W        W67029   1.819   6.315   9.795  0.1988 -0.0991 -0.1009
24117W        W67030   0.053  16.862  17.900  0.5778  0.1309 -0.1388
24118W        W67031   3.446  12.864  24.155 -0.2995  0.0308  0.0132
24119W        W67032   5.976   7.647  11.285 -0.0143  0.3809 -0.1566
24120W        W67033  33.691  10.521  21.772  0.0439 -0.0930 -0.0577
24121W        W67034  15.616   4.561  25.958  0.0567  0.1620  0.1151
24122W        W67035   9.127  33.887  27.913  0.1876 -0.0063 -0.0330
24123W        W67036   0.963   8.603  27.567  0.1213  0.0921  0.1360
24124W        W67037  18.957   4.841  26.705  0.0734 -0.2140  0.0898
24125W        W67038  11.210   9.371  29.697 -0.0456  0.2967  0.0842
24126W        W67039   1.473   4.633  20.137 -0.2572 -0.0665  0.0760
24127W        W67040  32.977  34.246  27.788 -0.1235  0.2343  0.0143
24128W        W67041  26.409   5.227  27.892  0.0861 -0.2717 -0.5057
24129W        W67042  11.067   7.669   0.324  0.1817  0.1956  0.3555
24130W        W67043   5.134  10.363   1.921  0.1931 -0.0132  0.0544
24131W        W67044   3.149  15.563   3.895  0.2618  0.5061  0.0261
24132W        W67045  11.114   5.737  16.708  0.1928  0.4833 -0.1402
24133W        W67046   7.400   1.176  26.716 -0.1191  0.3031  0.3019
24134W        W67047  29.695  17.462  24.024 -0.1490  0.2111  0.1012
24135W        W67048  30.986  33.648   5.032  0.0810  0.1096 -0.0188
24136W        W67049   7.056   7.527  21.557  0.2578  0.1339 -0.0582
24137W        W67050  30.509   0.343   8.861 -0.1857  0.1424 -0.0084
24138W        W67051   1.361  31.769  18.282  0.2265 -0.1234 -0.1127
24139W        W67052  33.803   4.922  24.136 -0.3784  0.1507  0.1905
24140W        W67053   0.466  34.491  25.143 -0.0883  0.1719  0.0201
24141W        W67054  12.945   7.079  24.061 -0.1265  0.3293 -0.0512
24142W        W67055   6.944   8.638  23.355  0.0934  0.0709  0.4417
24143W        W67056  14.860   6.146  16.654 -0.1441 -0.0874 -0.1457
24144W        W67057  10.110  15.882  14.498 -0.0628  0.2793  0.0963
24145W        W67058   6.887  33.665  25.022  0.1545 -0.1192 -0.0799
24146W        W67059   9.268   2.577  22.516 -0.1572 -0.1150  0.0392
24147W        W67060  11.674   1.943  22.970  0.1908  0.1479  0.0308
24148W        W67061   7.874  17.956  25.019 -0.1502  0.0779 -0.1857
24149W        W67062   8.643  33.553   5.037 -0.0727 -0.1073  0.0719
24150W        W67063  32.210  12.742  24.559 -0.3525  0.1020 -0.2322
24151W        W67064  13.505  13.298   0.293  0.1379 -0.2783 -0.1339
24152W        W67065   7.559   3.242  18.933  0.0714 -0.0999  0.1271
24153W        W67066   2.678  13.880  19.693  0.2357  0.0169  0.1134
24154W        W67067  34.288   3.211   0.619  0.0786  0.2085 -0.0885
24155W        W67068   8.449   1.511   1.225 -0.0039 -0.2409 -0.2629
24156W        W67069   7.153   4.460  25.671 -0.0029 -0.1716  0.0423
24157W        W67070  10.496   4.256  25.170  0.0179  0.2415 -0.1981
24158W        W67071   7.349  26.340  23.683 -0.0955 -0.2582  0.1054
24159W        W67072   4.548  24.354  21.552  0.2229 -0.0962  0.0300
24160W        W67073  10.379  16.132  14.061 -0.1124 -0.0369  0.1318
24161W        W67074  12.003   7.986  25.379  0.0140 -0.0197  0.0242
24162W        W67075   8.353  22.313  23.272  0.1524  0.2285  0.0535
24163W        W67076  18.361  16.822  27.390 -0.1944  0.0248 -0.2944
24164W        W67077   5.920  12.510  23.795 -0.0539 -0.1421  0.2587
24165W        W67078   5.830   5.545  26.457  0.1114  0.1539 -0.2255
24166W        W67079  27.901   6.675  26.980  0.2833 -0.0912  0.0452
24167W        W67080   7.195   6.898  19.257  0.0693  0.0852  0.0521
24168W        W67081   8.818  13.046   1.413 -0.1240  0.1053 -0.2163
24169W        W67082   6.387  33.620  23.186 -0.1774 -0.1104 -0.1506
24170W        W67083   5.919   2.481  28.945  0.3425 -0.1525  0.0886
24171W        W67084   7.835  16.461   9.535  0.1392 -0.2757 -0.1397
24172W        W67085  11.327  32.466   6.209 -0.0908  0.1918 -0.0463
24173W        W67086  15.167   3.712  22.514 -0.1005 -0.0305  0.2233
24174W        W67087  11.185   5.463  10.400  0.3091  0.0063  0.1791
24175W        W67088  34.013  11.141  21.518  0.3279  0.1462  0.0206
24176W        W67089  18.964   4.622   6.356  0.1565 -0.0410  0.3871
24177W        W67090  11.303  20.382  21.374 -0.0306 -0.2072 -0.3350
24178W        W67091  33.201   7.937   1.427  0.0656  0.1095  0.0515
24179W        W67092  11.953  15.956  24.376  0.1661  0.0787 -0.0065
24180W        W67093  34.393  10.436  26.855  0.0984  0.3054 -0.1052
24181W        W67094  14.132  10.503  21.091 -0.0916 -0.0756 -0.1447
24182W        W67095   8.446  10.570  23.403 -0.0194 -0.0310  0.3371
24183W        W67096   8.229   1.276  22.415  0.1122 -0.1831 -0.0271
24184W        W67097  28.646   6.328  27.333 -0.0474 -0.0620  0.1936
24185W        W67098   8.857  12.338  19.693 -0.4742  0.0561  0.3716
24186W        W67099   2.666   3.122   4.175 -0.0711  0.3249  0.0543
24187W        W67100  32.308   8.626  24.514  0.0386  0.0335  0.0189
24188W        W67101  11.415   5.917  20.841  0.0757 -0.1971 -0.1539
24189W        W67102   5.887   4.353  19.997  0.3133  0.0417  0.1431
24190W        W67103  12.766   8.812  28.456 -0.2625  0.1302 -0.1186
24191W        W67104   7.856  15.045  20.584 -0.0476  0.1719 -0.2475
24192W        W67105   4.182  10.786  19.346  0.1542  0.3075 -0.6256
24193W        W67106  26.050  15.241  19.211 -0.0194  0.3108  0.2453
24194W        W67107  12.222  13.827  20.021 -0.1386  0.2110 -0.1331
24195W        W67108   3.741   6.656  21.526 -0.0261 -0.1192  0.0305
24196W        W67109  26.096  19.030   6.521 -0.1489  0.3897 -0.1597
24197W        W67110  34.105  13.815  19.377 -0.5243  0.0205 -0.1922
24198W        W67111   5.771   5.944  28.483  0.2807 -0.0747  0.2838
24199W        W67112   4.015   1.359  17.529  0.1204 -0.2261  0.2726
24200W        W67113  12.799  33.503  24.973  0.3134 -0.2373 -0.0984
24201W        W67114  23.177  10.329  28.932  0.2237  0.4768  0.3521
24202W        W67115   2.329   2.781  24.726  0.1605 -0.1206  0.0748
24203W        W67116   3.257   4.799  24.298 -0.1269  0.0650 -0.1050
24204W        W67117   7.848   3.668  23.541 -0.0653  0.0202 -0.0059
24205W        W67118   9.734  14.805  20.053 -0.0636 -0.0849 -0.1466
24206W        W67119   4.667  33.743  25.914  0.1441 -0.1288 -0.2056
24207W        W67120  10.450   6.726   1.451  0.0867  0.5407  0.1208
24208W        W67121  31.155  11.788   3.318  0.3523  0.1077 -0.2585
24209W        W67122   7.002  11.615  25.464 -0.2062  0.0526  0.1339
24210W        W67123  33.169  17.856  27.168  0.0787 -0.3041 -0.0942
24211W        W67124   1.423   9.407   4.344 -0.0447 -0.1618  0.1010
24212W        W67125  10.364   9.252  16.186  0.3164  0.1729 -0.2639
24213W        W67126  18.534   0.937  29.324 -0.2466  0.0790  0.0479
24214W        W67127  28.190  11.196   4.072 -0.0500 -0.2195  0.1040
24215W        W67128  15.564  29.426  25.762 -0.2907 -0.0381  0.0804
24216W        W67129   7.985   0.503  28.535  0.1084  0.0680 -0.1335
24217W        W67130  24.573  14.517  27.164 -0.0643  0.1218 -0.0016
24218W        W67131   9.702  15.222  20.833 -0.0967 -0.4286  0.0552
24219W        W67132  34.409   9.552  19.957  0.5322 -0.0115 -0.0309
24220W        W67133  29.365   7.230  29.399  0.1340 -0.0173  0.2412
24221W        W67134   8.869   8.160  18.783  0.0762 -0.2457 -0.1547
24222W        W67135  14.015  10.126  22.452  0.0371  0.3481  0.0684
24223W        W67136   7.869  14.044  29.134  0.0504 -0.2163 -0.4722
24224W        W67137  20.187   7.812  19.459 -0.0221  0.0053  0.1522
24225W        W67138  14.475   5.197  18.232  0.0381 -0.1019  0.2432
24226W        W67139  21.878  12.769  17.338 -0.1300 -0.1056 -0.2666
24227W        W67140   7.311  34.319  24.285 -0.0250  0.0863 -0.0952
24228W        W67141  18.038  10.406   4.415  0.1806  0.0591 -0.1962
24229W        W67142   9.127   4.872  26.647 -0.4271 -0.1041 -0.2214
24230W        W67143   2.860  32.746  20.244  0.1263 -0.0456  0.2360
24231W        W67144   5.285   9.057  19.631 -0.1699  0.2754 -0.1740
24232W        W67145   9.894  32.778  26.314  0.0760  0.1726  0.3605
24233W        W67146  26.887  17.846  26.024  0.0577  0.1449  0.2114
24234W        W67147  12.310  12.957  24.448  0.1236 -0.2258  0.0430
24235W        W67148  32.050   6.442   6.560  0.0027  0.0205  0.1622
24236W        W67149   4.472   5.673  22.240  0.1035 -0.0530 -0.4390
24237W        W67150  10.012   0.365   3.043 -0.0955  0.2185 -0.1934
24238W        W67151   3.497   3.837  23.653  0.3088 -0.0163 -0.0730
24239W        W67152  12.762  19.236  28.437  0.1958  0.1986 -0.1158
24240W        W67153   1.004  12.847  29.350  0.1835 -0.2246  0.0330
24241W        W67154  25.621  23.178  28.420 -0.2262  0.1070  0.1434
24242W        W67155   5.520   8.294  28.808 -0.2574 -0.0267  0.2552
24243W        W67156  33.300  10.764  16.550  0.3144 -0.1147 -0.0294
24244W        W67157  13.084   7.269  25.491  0.0220 -0.0467  0.0632
24245W        W67158  33.402   7.324  24.271 -0.1817 -0.2798 -0.0805
24246W        W67159  10.432  10.825  28.475  0.3217 -0.0432 -0.0894
24247W        W67160   0.993  30.886  16.923 -0.1560  0.1808  0.0099
24248W        W67161   0.903  14.679  27.286  0.1321 -0.1099  0.1135
24249W        W67162   3.033   5.510   8.983 -0.0557 -0.0218 -0.2099
24250W        W67163  32.996   9.663  22.054  0.0852  0.1384 -0.1473
24251W        W67164  21.557   9.652  25.910 -0.0405  0.3127 -0.1057
24252W        W67165   2.957   0.076   1.480 -0.1108  0.0218 -0.0118
24253W        W67166  18.630  13.479  25.978  0.0389 -0.1446 -0.2385
24254W        W67167   9.394  11.600   6.334 -0.2236  0.0124  0.0285
24255W        W67168  33.368  18.104  17.381 -0.0038 -0.0760  0.3571
24256W        W67169   9.395  15.466  15.782 -0.0008 -0.1183 -0.0621
24257W        W67170   0.897  12.117  19.071 -0.1278  0.1297 -0.1725
24258W        W67171   0.189  12.280   2.236  0.1023  0.0011  0.0744
24259W        W67172  14.176  16.669  23.408  0.1855 -0.0607  0.1646
24260W        W67173   2.322  17.356  28.094  0.2134  0.1091 -0.1507
24261W        W67174  11.487  29.331   8.184 -0.1507  0.0248  0.0012
24262W        W67175  33.401   8.761  20.195  0.1368 -0.1337 -0.0944
24263W        W67176   3.489  19.316  16.452 -0.2302  0.0007 -0.0275
24264W        W67177   0.091   8.810  19.613 -0.3198 -0.0046  0.0135
24265W        W67178   1.564   7.502   1.591  0.0693 -0.1063  0.3315
24266W        W67179   7.993  16.601  18.459 -0.1783  0.0407  0.0761
24267W        W67180  29.035   2.989  20.023 -0.2517  0.0148  0.0494
24268W        W67181   4.764  12.077  28.501  0.1807 -0.0707 -0.1199
24269W        W67182   9.139   7.676  29.385 -0.3599 -0.2023 -0.0288
24270W        W67183  33.014  11.036  29.712  0.2328  0.1303 -0.2210
24271W        W67184   7.369   8.823  25.070 -0.1374 -0.4479  0.0642
24272W        W67185   9.621   7.559  18.606 -0.0872 -0.0020 -0.1048
24273W        W67186  10.559   7.202   1.445  0.2451 -0.0759 -0.0221
24274W        W67187   9.424   5.415  21.631 -0.1428  0.1691 -0.1177
24275W        W67188   4.600   8.122  21.688  0.0889  0.1556  0.1491
24276W        W67189  31.897  11.339  28.741 -0.1783  0.1429 -0.2075
24277W        W67190   0.324  11.315   0.973 -0.2587  0.1859  0.0428
24278W        W67191   4.818   5.752  24.096 -0.0407 -0.0713 -0.0509
24279W        W67192   5.519   9.150   0.565 -0.2817  0.2699  0.1495
24280W        W67193  13.698  22.665  25.438 -0.2967  0.1038  0.3629
24281W        W67194  33.872  32.310   3.234 -0.2823 -0.2729 -0.2335
24282W        W67195   3.158  10.691  20.988 -0.1043 -0.0920 -0.1364
24283W        W67196   7.747  16.202  18.694 -0.2919 -0.2546  0.2356
24284W        W67197  13.879  11.277  19.427  0.1783 -0.0258  0.1080
24285W        W67198   7.150  14.668   5.635  0.2959 -0.0298  0.2057
24286W        W67199   6.916  12.436  22.187 -0.2748 -0.0864  0.0652
24287W        W67200   2.631   3.066  20.530 -0.1375  0.1757 -0.0773
24288W        W67201   8.294  15.360   2.371 -0.2827  0.0168  0.1482
24289W        W67202   9.192   3.176   5.966  0.1251  0.3218  0.4770
24290W        W67203  10.573  14.562  20.022  0.2967  0.1776  0.1097
24291W        W67204  33.355  18.096  18.630  0.0023  0.0527 -0.0146
24292W        W67205   8.373   3.708  24.805  0.0907  0.0952 -0.0670
24293W        W67206  14.099   6.054  29.531  0.0546  0.2890  0.1126
24294W        W67207   9.342   8.633  26.355 -0.1434 -0.3122 -0.0864
24295W        W67208   2.059  34.072  24.846 -0.1322 -0.0252 -0.0546
24296W        W67209   5.256  15.117  24.688 -0.0565  0.0831  0.3261
24297W        W67210   4.953  11.792   0.684  0.2942  0.5027 -0.0530
24298W        W67211   4.966  12.173  23.856 -0.1618  0.0102 -0.0163
24299W        W67212   1.641  32.389  17.236  0.0074  0.0502 -0.1160
24300W        W67213  34.287   0.037  17.326 -0.1315  0.1517  0.1475
24301W        W67214  30.726   3.640   9.192 -0.2355  0.0347 -0.1405
24302W        W67215   2.947  12.504  28.746  0.2523  0.0290 -0.1152
24303W        W67216  13.313  33.348  26.818 -0.3348  0.1387  0.2627
24304W        W67217   8.676  18.378  28.432  0.1700 -0.2787 -0.2233
24305W        W67218   5.681   3.414  20.110  0.0820 -0.0872  0.2468
24306W        W67219  28.999   6.543  26.814 -0.3639  0.0946 -0.0010
24307W        W67220  34.451   3.998   0.746 -0.0552 -0.1685  0.1285
24308W        W67221   2.155   5.641  19.353  0.3184  0.3821 -0.0691
24309W        W67222   9.484  11.428  14.727  0.0719 -0.1663 -0.0456
24310W        W67223  22.119   4.867  15.791  0.1964  0.0494  0.2567
24311W        W67224  14.909  16.974   1.757  0.1474  0.2639 -0.0779
24312W        W67225   8.077  30.905  18.334  0.0127 -0.3940  0.0592
24313W        W67226   4.690  14.114   0.721  0.0913  0.2092 -0.3760
24314W        W67227  22.968   5.087  21.392  0.0580 -0.1547 -0.0410
24315W        W67228  33.447  12.717  22.214 -0.2970  0.2047  0.0502
24316W        W67229  19.827  10.888   6.640  0.2170  0.1161  0.0266
24317W        W67230  29.742   9.635   2.434  0.2126 -0.2405 -0.3153
24318W        W67231   2.747  10.849  19.771 -0.1856 -0.0180  0.2167
24319W        W67232   2.862  14.683  21.831  0.2094 -0.2063  0.0911
24320W        W67233  11.927   5.522  25.785 -0.3966  0.1469  0.0848
24321W        W67234  20.879  10.774  12.527  0.2797  0.0684  0.0492
24322W        W67235  31.566  15.648   2.242  0.1215  0.1187 -0.0211
24323W        W67236   9.853   9.583  18.142 -0.3446 -0.0167 -0.2034
24324W        W67237  14.224  12.347  29.312  0.1129 -0.1534 -0.1240
24325W        W67238   4.761   6.434  18.299 -0.0858 -0.0591 -0.0447
24326W        W67239  12.389   3.043  21.762 -0.3946 -0.2686  0.2333
24327W        W67240  14.481   1.239  24.971 -0.1180  0.2165 -0.1748
24328W        W67241   3.034  11.506   4.675  0.1978 -0.1644 -0.2872
24329W        W67242  34.088   9.465   3.128  0.0206 -0.0432 -0.1536
24330W        W67243  34.193  34.251  23.094  0.0192  0.1297  0.0274
24331W        W67244   7.306   6.224  25.359 -0.0049 -0.0295 -0.1755
24332W        W67245  10.729   5.166  26.270  0.0928 -0.0968  0.1140
24333W        W67246   1.740   4.530   4.264  0.1410 -0.1304 -0.0870
24334W        W67247  14.071  16.624  24.496 -0.1206 -0.1668 -0.2664
24335W        W67248   6.960   6.250  21.431 -0.3076 -0.1603 -0.1634
24336W        W67249   6.449   4.055  28.221  0.1969  0.1870 -0.1320
24337W        W67250   8.518   1.134  23.188 -0.1735  0.1082 -0.2198
24338W        W67251  14.174   3.059  25.292 -0.1419 -0.2052 -0.0329
24339W        W67252  17.642  12.539  23.431 -0.2798 -0.0356  0.0791
24340W        W67253   9.498  11.028  25.751 -0.1789 -0.1613 -0.0253
24341W        W67254   4.668   5.024   4.557 -0.0317 -0.0822  0.2781
24342W        W67255   8.549  15.964  16.957  0.1587 -0.0785  0.0395
24343W        W67256  33.744   7.455  23.124  0.0676  0.2526  0.0675
24344W        W67257  11.260  10.907  10.866  0.1304  0.1324 -0.1158
24345W        W67258  13.639   5.879  23.839 -0.0329 -0.1207  0.1252
24346W        W67259   1.157  10.963   3.277 -0.2317  0.0525  0.1698
24347W        W67260  31.418   5.831  23.764 -0.1514 -0.3317 -0.1292
24348W        W67261  15.596  12.507  21.567 -0.0055  0.1345 -0.0569
24349W        W67262  29.415   3.802  22.290  0.0826 -0.2349 -0.0256
24350W        W67263  11.534  13.979  21.606  0.1447  0.0890  0.0431
24351W        W67264  15.618   9.297   2.999  0.2412 -0.0544  0.2329
24352W        W67265   2.518   8.325  18.116  0.1314 -0.0422 -0.0769
24353W        W67266   4.867  10.803  20.715  0.1050  0.0517  0.0622
24354W        W67267  16.792   4.474  19.980 -0.1059  0.1815 -0.0081
24355W        W67268  19.780   9.677  17.821 -0.4604  0.0286 -0.3394
24356W        W67269   7.823   7.950   0.648 -0.1946  0.2830 -0.3368
24357W        W67270   0.284   6.660  23.090  0.1280  0.1425 -0.0315
24358W        W67271  11.779  12.812  26.818  0.2570 -0.0220  0.1562
24359W        W67272  33.712  31.458  16.437 -0.1143 -0.0629  0.3081
24360W        W67273  32.545  17.950  27.994 -0.0494  0.1079  0.1098
24361W        W67274   5.846  22.679  15.452 -0.0054 -0.0686 -0.3569
24362W        W67275   9.933   6.151  20.830 -0.1421 -0.0844 -0.1549
24363W        W67276   0.646   9.100  29.709  0.0972  0.0119 -0.1241
24364W        W67277   9.041  11.387   0.737  0.1240 -0.3038 -0.2006
24365W        W67278   4.189  22.027  18.038  0.0949 -0.0628  0.1034
24366W        W67279  33.488   6.950  23.031  0.0703  0.1073  0.2491
24367W        W67280   4.038   4.400  25.903  0.1785 -0.1348 -0.1891
24368W        W67281   7.811   2.062  20.803  0.1745  0.1586  0.0669
24369W        W67282  12.549   3.501  16.471  0.2265 -0.1285  0.1125
24370W        W67283  11.003  16.580  20.918 -0.0162  0.1527 -0.0543
24371W        W67284  13.123   4.191  20.638  0.0340  0.1257 -0.0353
24372W        W67285  16.577   4.357  18.510  0.0187  0.1372 -0.1609
24373W        W67286   4.041   5.252  25.875  0.1731 -0.1560  0.1309
24374W        W67287   3.224   9.551  28.304  0.0264 -0.0868  0.2459
24375W        W67288   7.665   5.425  22.155 -0.0522 -0.2537  0.0208
24376W        W67289   4.136  13.049   3.783 -0.1028 -0.2322  0.0342
24377W        W67290  16.048   8.164   9.688  0.3440 -0.0714  0.0099
24378W        W67291   3.338   6.162   3.546 -0.0929 -0.2179  0.0836
24379W        W67292   6.423   4.479  28.562  0.0262  0.1811 -0.3460
24380W        W67293   6.135   4.331  27.112 -0.0747  0.3234  0.0211
24381W        W67294  12.818   4.317  23.194  0.0891 -0.0322 -0.0502
24382W        W67295   3.964  23.850  20.663 -0.1470  0.0232  0.0230
24383W        W67296  10.325  18.198   3.086 -0.4074 -0.0348 -0.0453
24384W        W67297  12.373  10.439  18.542 -0.0303  0.0263  0.2327
24385W        W67298   3.941  15.188  29.569 -0.4072 -0.0748 -0.2065
24386W        W67299  12.721   4.218   7.401  0.1972 -0.1097 -0.0112
24387W        W67300   8.359   5.455  26.609 -0.2032  0.2107  0.0171
24388W        W67301   9.824   5.216  20.017 -0.3686 -0.1050 -0.3765
24389W        W67302   4.745   2.525  20.770 -0.0082 -0.0711 -0.0304
24390W        W67303  16.322  11.560  25.591 -0.5681 -0.2253  0.4807
24391W        W67304   6.909   3.442  27.468 -0.0652 -0.2075  0.1030
24392W        W67305   2.656   9.857  16.962  0.1538 -0.2377  0.1206
24393W        W67306   6.734  17.421  26.502 -0.0620 -0.4452 -0.0900
24394W        W67307  10.862   7.209  27.157 -0.1195  0.2069 -0.3561
24395W        W67308  10.071   7.897  11.727 -0.0873 -0.1450  0.0475
24396W        W67309   2.163   1.480  23.642  0.0500  0.3020  0.0073
24397W        W67310   2.389   7.576  22.605  0.1890  0.0224  0.0471
24398W        W67311  11.957  12.565  23.377 -0.4556 -0.1703  0.0773
24399W        W67312  12.882   6.896   6.059  0.1593 -0.1287  0.4191
24400W        W67313  14.517  31.842   1.695  0.1219 -0.1671 -0.0122
24401W        W67314  20.833  32.390   2.141  0.1935  0.0361 -0.0805
24402W        W67315   1.769  13.418   1.468 -0.0596 -0.0593  0.1860
24403W        W67316  11.988  10.402   0.144  0.1568  0.4621 -0.1001
24404W        W67317  16.415   6.521  15.036 -0.2682 -0.2470  0.0183
24405W        W67318  30.952  10.992  22.096  0.0008 -0.0843 -0.1475
24406W        W67319  31.139  10.697   3.906  0.1615 -0.2261  0.2217
24407W        W67320   9.604  23.838  24.761 -0.1953 -0.0541  0.1075
24408W        W67321  13.137  16.208   5.455  0.0955 -0.4811 -0.1876
24409W        W67322   6.111   9.783  17.940 -0.1104 -0.0315  0.3593
24410W        W67323  15.479  11.783  26.974  0.0731  0.0426 -0.2164
24411W        W67324   5.010  32.860  22.122 -0.4731  0.0140 -0.1940
24412W        W67325  10.624   0.763   6.411 -0.2985 -0.3998  0.1050
24413W        W67326  15.424   7.116   1.169  0.1330  0.2209 -0.0939
24414W        W67327   4.808  16.029   5.426 -0.2805 -0.0181  0.0600
24415W        W67328  11.795   8.832  25.081 -0.0266  0.1195 -0.3398
24416W        W67329   5.388   2.532   2.231  0.2404  0.1883 -0.2984
24417W        W67330  11.429  16.918  26.996 -0.1399  0.2343  0.1946
24418W        W67331   1.764  21.196  28.660 -0.0500 -0.3905 -0.0768
24419W        W67332  15.494   3.334  29.761 -0.0104 -0.1557 -0.0057
24420W        W67333  15.782   0.055  23.204 -0.0024 -0.2208  0.0203
24421W        W67334   6.577  30.265  21.042 -0.0457 -0.1009  0.3821
24422W        W67335  32.128  16.893   1.074 -0.1218  0.1425 -0.1192
24423W        W67336   9.552   9.923  10.153 -0.1104 -0.2175  0.2510
24424W        W67337   6.402   2.186  29.143  0.0166 -0.1640  0.1508
24425W        W67338  28.818   2.144  22.944 -0.1151  0.2075  0.0155
24426W        W67339   5.531  18.739  25.398  0.0723  0.1076 -0.2834
24427W        W67340   7.377  15.808   8.634 -0.0466 -0.1452 -0.1373
24428W        W67341   5.976   7.990   3.907 -0.0329 -0.3660 -0.0377
24429W        W67342   9.747  12.224   6.195  0.3977 -0.1062  0.1157
24430W        W67343   0.700  19.767  24.144  0.1127 -0.2065 -0.2108
24431W        W67344  30.160   5.729  15.510 -0.1543  0.0406 -0.1115
24432W        W67345  29.791  10.978  20.784 -0.4310 -0.1345  0.0462
24433W        W67346   7.674   9.542   4.536  0.0014 -0.0947  0.1125
24434W        W67347   6.882  14.249   3.178  0.1550 -0.0961 -0.1219
24435W        W67348   4.578  14.352   1.823  0.1337 -0.0665 -0.2391
24436W        W67349   5.004   8.847  25.411  0.1827  0.2530 -0.3342
24437W        W67350   7.259   8.700  18.274  0.0286 -0.2445  0.0541
24438W        W67351   0.551   9.555  19.257  0.0213 -0.1376  0.0141
24439W        W67352   9.395  18.724   6.223  0.0331  0.2376 -0.0051
24440W        W67353   7.936   3.554  18.028 -0.0661  0.0272  0.0829
24441W        W67354  31.566   8.797  27.658 -0.4773 -0.0748  0.5148
24442W        W67355   1.676   7.063  28.400 -0.1804  0.2009  0.0062
24443W        W67356  12.467   6.162   4.119 -0.0548  0.0446  0.0424
24444W        W67357   7.399  29.256  28.653 -0.0114 -0.1888  0.1410
24445W        W67358  14.238  12.193  24.119  0.0574  0.0230 -0.1350
24446W        W67359   1.042  18.190  24.696 -0.4099  0.2390  0.1089
24447W        W67360  13.531  22.130  21.780  0.2686 -0.2576 -0.2020
24448W        W67361   5.197  33.493   5.292 -0.1106 -0.0335 -0.0734
24449W        W67362   6.043   6.323  22.804  0.1470 -0.0889  0.1192
24450W        W67363  13.462  34.467  23.179 -0.1479  0.0489  0.0338
24451W        W67364  25.512  15.514   4.447 -0.0100  0.1233 -0.1595
24452W        W67365   5.590   6.542   0.426 -0.0846  0.1577  0.0972
24453W        W67366  13.063   1.032  26.582  0.1575  0.1448 -0.2993
24454W        W67367  11.820  17.076  20.566 -0.0263 -0.0787  0.3777
24455W        W67368  34.438  10.093  28.247 -0.0935 -0.2419 -0.2835
24456W        W67369   5.750  14.785  21.561 -0.1611 -0.1446  0.1550
24457W        W67370  11.303   6.337  27.327 -0.0829 -0.3692  0.0509
24458W        W67371  12.680  15.056  16.096 -0.1134  0.0600 -0.1190
24459W        W67372   7.855  15.109  23.230 -0.0254  0.0956  0.0449
24460W        W67373   2.298  13.637   7.061 -0.0874 -0.2658 -0.3442
24461W        W67374   8.011  17.483  25.240 -0.1067  0.2774  0.1927
24462W        W67375   3.508  12.984  20.707  0.1512  0.0497 -0.0588
24463W        W67376  14.431  10.687   1.597 -0.0728 -0.0094  0.0038
24464W        W67377  34.426   4.160  28.492 -0.3415 -0.0800  0.0596
24465W        W67378   2.180   8.778  25.547 -0.2070  0.1404 -0.0747
24466W        W67379   0.497   0.029   3.919  0.3219  0.2614  0.0554
24467W        W67380  33.440   5.782  27.431 -0.1479  0.2067  0.1078
24468W        W67381   8.357   2.061  24.113 -0.0317  0.0874  0.0864
24469W        W67382  12.804  33.058   6.144 -0.1968 -0.0197 -0.2501
24470W        W67383   3.695   8.639  29.694  0.1412  0.1322 -0.0661
24471W        W67384  11.610  12.551   2.994  0.0506  0.1738 -0.0708
24472W        W67385   0.010   9.191   9.510 -0.0183  0.1667 -0.1666
24473W        W67386   4.255  17.347  28.732 -0.2547 -0.1198  0.0598
24474W        W67387   6.944  33.296  18.989  0.0478 -0.1243 -0.0520
24475W        W67388  31.564  26.683   2.300 -0.1144  0.2452  0.1939
24476W        W67389   7.298  13.679  26.868  0.2264  0.2182 -0.0434
24477W        W67390   3.747   8.894  22.420 -0.0301  0.3857  0.3038
24478W        W67391  32.558  23.323   5.148 -0.0591 -0.0576  0.1092
24479W        W67392  25.054   9.488  20.342 -0.1098 -0.1630  0.0016
24480W        W67393   0.338  30.081  25.569  0.0896  0.0997 -0.0369
24481W        W67394   6.841  10.909  26.198  0.1846  0.2381  0.0079
24482W        W67395  11.077  10.357  21.192 -0.0527  0.1167 -0.0037
24483W        W67396   0.671  17.675   3.293  0.2006  0.2680 -0.1753
24484W        W67397  33.765  18.328  17.584 -0.1071 -0.0171  0.0356
24485W        W67398   4.573   5.167  28.326 -0.0061  0.1135 -0.1567
24486W        W67399   8.036   3.347   1.171  0.1831  0.1989  0.1943
24487W        W67400  11.753   7.777  19.775 -0.1053 -0.1539  0.0059
24488W        W67401   3.166  34.031  25.427 -0.4036  0.2186  0.0677
24489W        W67402   6.671  11.420   5.147 -0.1668 -0.0120 -0.0129
24490W        W67403   2.095  13.093   5.241  0.0362  0.2905  0.0755
24491W        W67404  31.509  22.303  25.399 -0.0066  0.1258  0.0901
24492W        W67405   8.655   7.399  26.017 -0.0106 -0.2245 -0.0243
24493W        W67406  12.037   4.208  10.002  0.0560 -0.2578  0.0880
24494W        W67407  10.520   4.368  29.628  0.0161 -0.0551 -0.0905
24495W        W67408   9.334  29.628  27.247  0.0502  0.0108  0.0330
24496W        W67409  15.050  15.618   4.259 -0.1522  0.1589  0.1148
24497W        W67410   9.859   7.110   4.354 -0.0271  0.1621  0.0151
24498W        W67411   5.162   6.070  24.281  0.1309 -0.1601 -0.1267
24499W        W67412   9.530  13.674  22.470  0.1874 -0.0984  0.1125
24500W        W67413  10.198   0.692  24.459  0.0908  0.0019 -0.0745
24501W        W67414  32.894   8.521  24.690  0.0029  0.3383 -0.0306
24502W        W67415   8.219   7.469  26.590  0.2500  0.0070  0.1041
24503W        W67416   4.467   0.097  20.377 -0.0078 -0.2071 -0.5092
24504W        W67417  15.640  14.365   0.652 -0.1720  0.1957  0.2342
24505W        W67418  34.446  12.355   4.962 -0.0758 -0.1709 -0.0024
24506W        W67419  30.399   8.185  25.765 -0.1301  0.0325 -0.1183
24507W        W67420   9.511   4.179  28.095 -0.0601 -0.0070 -0.0685
24508W        W67421  34.212   1.795  25.915 -0.2836  0.0856 -0.3747
24509W        W67422  12.785   1.177   4.290 -0.1304 -0.0749  0.2851
24510W        W67423  19.783  32.405   4.041 -0.0805 -0.1378  0.1122
24511W        W67424  16.405   9.541   8.036  0.0171 -0.1759  0.0931
24512W        W67425   3.281  30.449   1.791 -0.1196 -0.1864 -0.0062
24513W        W67426   4.775   7.777  20.236 -0.1252 -0.0939 -0.0956
24514W        W67427  11.465  20.721  28.008  0.0534 -0.2710  0.0730
24515W        W67428   5.406  17.759  23.044 -0.3565  0.2807  0.0872
24516W        W67429  24.413  10.797   9.746  0.0578 -0.2252 -0.2048
24517W        W67430   2.744  10.144  10.255 -0.0015 -0.1041 -0.0526
24518W        W67431   2.023   7.512  17.061  0.1734 -0.2836  0.0248
24519W        W67432  33.806  10.853   1.786 -0.1013 -0.0782 -0.2430
24520W        W67433  12.727  14.620   2.568 -0.0329 -0.0346  0.2444
24521W        W67434  14.499   8.298  23.566 -0.0306 -0.0469 -0.3230
24522W        W67435   3.255  29.882  24.323  0.4574 -0.0050 -0.0789
24523W        W67436   3.884   3.671  20.854  0.1048 -0.1537  0.2564
24524W        W67437  25.710  26.565   0.891 -0.0039 -0.0327 -0.1077
24525W        W67438   8.478   2.137   2.540 -0.0022  0.3306 -0.1187
24526W        W67439  27.805  11.992  28.572  0.2162  0.1981 -0.2219
24527W        W67440  33.007   9.063  23.236 -0.1617 -0.0554 -0.0485
24528W        W67441  31.823   1.820  26.328  0.3254 -0.0041 -0.1972
24529W        W67442   1.725  11.011  27.925 -0.0330  0.0983 -0.3958
24530W        W67443   0.818   7.572  28.033  0.0311 -0.0808  0.0869
24531W        W67444  13.571  14.476  13.331  0.1105  0.0670  0.2657
24532W        W67445   9.927   8.006  25.385 -0.3358  0.1450  0.0973
24533W        W67446  12.882   8.674  14.239  0.1173  0.4283 -0.1618
24534W        W67447  13.193  12.996  20.119  0.0505 -0.2838  0.3019
24535W        W67448   6.342   4.996   3.395  0.2143 -0.0816  0.0716
24536W        W67449  12.303   6.352  24.089 -0.0004 -0.0517 -0.2287
24537W        W67450   8.791  11.387  20.891  0.0081  0.2126 -0.4182
24538W        W67451  11.529  12.927  19.301 -0.2036  0.1553  0.2877
24539W        W67452  10.596  25.722   3.653 -0.0037 -0.1600  0.0389
24540W        W67453   3.453  33.911  22.488  0.2541 -0.0521 -0.0831
24541W        W67454   8.645  14.096  26.682  0.1188  0.1282 -0.0072
24542W        W67455  24.326   2.396   6.366 -0.1377  0.1964 -0.1045
24543W        W67456   9.111   8.583  23.640 -0.1630 -0.0840 -0.0581
24544W        W67457   3.649   7.526  21.153  0.0929 -0.1326  0.3286
24545W        W67458   2.061  24.962  21.669 -0.2424 -0.0245 -0.2798
24546W        W67459   4.956   3.032  17.144 -0.1523 -0.1160 -0.2720
24547W        W67460   4.715  12.210   0.387  0.0138  0.1436 -0.1826
24548W        W67461   9.236  12.814  24.453 -0.1759 -0.0073  0.0705
24549W        W67462   7.898   3.670  24.728  0.2014  0.1642  0.0113
24550W        W67463   4.018  11.970  26.501 -0.1620  0.1643 -0.0364
24551W        W67464   3.242   2.575   2.964  0.3729 -0.2404 -0.1242
24552W        W67465   0.127  31.753  20.812  0.1162  0.2358 -0.5023
24553W        W67466   1.370   5.823   1.916 -0.1921  0.1805 -0.0334
24554W        W67467  14.458  31.086  24.996  0.2694  0.0697 -0.0002
24555W        W67468  13.570   1.714  20.890  0.0818 -0.1124 -0.2112
24556W        W67469   2.214  15.661   5.918 -0.0131  0.1062 -0.0988
24557W        W67470  15.568  22.467   4.213 -0.1620  0.1290 -0.1461
24558W        W67471   3.873   9.761   5.012 -0.3076  0.1173  0.0446
24559W        W67472   7.364  20.630  19.800 -0.1332 -0.1197  0.0178
24560W        W67473   6.204  12.726   1.845 -0.1676 -0.0502  0.2431
24561W        W67474   8.366  12.319  25.820 -0.0751 -0.0935 -0.0043
24562W        W67475   1.447   8.566  27.616 -0.2273 -0.0886 -0.3480
24563W        W67476   5.866   9.266  25.757  0.1109  0.0823  0.0206
24564W        W67477   5.098   8.245   0.473  0.0062  0.2480 -0.1794
24565W        W67478   9.318   3.268  17.122  0.1700 -0.1558 -0.0503
24566W        W67479  27.807  16.520   5.415 -0.0157  0.4693  0.0420
24567W        W67480  12.877  18.493  18.363  0.0698  0.2163 -0.0377
24568W        W67481  33.033   6.639  21.998  0.2315 -0.1676 -0.0670
24569W        W67482   0.285  15.573  23.320  0.0390 -0.1720  0.2808
24570W        W67483  17.245  13.917   1.439 -0.0998 -0.0618 -0.0071
24571W        W67484  12.571   4.597  26.698 -0.1421  0.0637  0.2071
24572W        W67485   1.925   8.291  21.609 -0.0039 -0.0767  0.0368
24573W        W67486   4.216  34.245  23.809  0.0783  0.1224  0.0892
24574W        W67487   2.644  33.009   4.953  0.2116  0.1521  0.0600
24575W        W67488   3.012   6.127  18.511 -0.1616 -0.1089 -0.1461
24576W        W67489   7.388   8.871  21.595 -0.2405  0.0109  0.0329
24577W        W67490   6.018   5.708  17.110  0.2508  0.0796  0.3605
24578W        W67491  34.092  14.115  27.385  0.0981  0.1278  0.1862
24579W        W67492   0.286  13.657  20.427  0.3522 -0.3089  0.1843
24580W        W67493   0.169  11.338  28.961  0.0678 -0.0204 -0.0163
24581W        W67494   6.358   2.218   8.158 -0.0317  0.0062  0.1470
24582W        W67495   5.388  12.846  28.256  0.1496  0.0042  0.0996
24583W        W67496  32.442  18.542   8.397  0.2127  0.0539 -0.1871
24584W        W67497   5.796  11.696   0.505  0.0342 -0.2301  0.2081
24585W        W67498  29.943  12.299  15.881  0.4803 -0.3089  0.4041
24586W        W67499  13.983  13.404  27.019  0.0557 -0.0410 -0.2769
24587W        W67500  10.689  10.180   1.770  0.2889 -0.1818 -0.0236
24588W        W67501   3.328  13.411  20.918 -0.0756 -0.2935 -0.3105
24589W        W67502   7.190  33.812  23.156  0.0639  0.1803  0.0891
24590W        W67503  12.408  31.773  23.969 -0.0409 -0.3996 -0.0256
24591W        W67504   0.143   0.186   6.515  0.0655 -0.1811 -0.1747
24592W        W67505  13.016  12.249  24.313  0.0367  0.0273  0.1237
24593W        W67506  14.405  12.420  26.951 -0.2697 -0.0234  0.2521
24594W        W67507  32.652  14.227   2.767 -0.2306 -0.1116 -0.0991
24595W        W67508  12.597   6.985  23.011  0.1299  0.0154 -0.1280
24596W        W67509   2.754   8.876  16.854  0.1644  0.0463 -0.0184
24597W        W67510  11.773  19.532   1.199  0.1067  0.3004  0.1894
24598W        W67511   1.021   3.171  24.919 -0.0544  0.0327  0.0397
24599W        W67512  10.773   5.968  25.410 -0.2245  0.2901  0.0924
24600W        W67513  14.141  27.925  26.912  0.2354  0.0354 -0.1864
24601W        W67514  12.110  31.630   8.266  0.0404  0.1841  0.1183
24602W        W67515  11.603   5.236  21.766 -0.0511  0.1120  0.0205
24603W        W67516   7.701   8.234  26.902 -0.1037  0.1835 -0.1202
24604W        W67517  29.794  25.732   9.887 -0.0268  0.1873 -0.0274
24605W        W67518   2.004   5.972  17.781 -0.2374 -0.0935 -0.0782
24606W        W67519  34.237   5.615   1.888  0.1582 -0.1827 -0.2426
24607W        W67520  30.965  16.329  29.264  0.1907  0.1646  0.0243
24608W        W67521  31.708  20.055   4.700 -0.3170 -0.1161 -0.3005
24609W        W67522   4.991  13.167  26.615 -0.1267  0.0129  0.0119
24610W        W67523  14.888   5.692  28.202 -0.0472 -0.0335 -0.0302
24611W        W67524   8.640   0.046  24.179  0.2034  0.0304 -0.0541
24612W        W67525  10.194   9.252  28.028 -0.0407 -0.1327 -0.0145
24613W        W67526   4.734  26.398   9.618  0.0318 -0.1021 -0.0659
24614W        W67527  10.374   4.821  26.126  0.1968 -0.0270 -0.0389
24615W        W67528   1.367  17.583  29.233 -0.0068 -0.1769 -0.3317
24616W        W67529   7.302  32.816  27.109 -0.0927 -0.0121  0.2833
24617W        W67530   8.978  34.100  23.222 -0.0681  0.1914  0.4020
24618W        W67531   6.635  33.319   4.233 -0.0304 -0.3649  0.1617
24619W        W67532  11.520   0.386  29.210 -0.0562 -0.1926  0.0389
24620W        W67533   7.040  29.933  22.941 -0.3308  0.1327 -0.0437
24621W        W67534  24.936   9.291  23.186 -0.1791 -0.1880 -0.1109
24622W        W67535   0.112  12.700  17.435 -0.1975 -0.0072 -0.1695
24623W        W67536  17.506  30.710  29.127 -0.1107 -0.2435 -0.1343
24624W        W67537  10.232   0.009   3.410 -0.0070  0.0168 -0.0056
24625W        W67538   2.259  29.523   5.579  0.2865  0.1700  0.0246
24626W        W67539   8.413  26.557  22.128 -0.1066 -0.0910  0.2093
24627W        W67540   9.220  33.199  23.064 -0.1686 -0.2173  0.1275
24628W        W67541  16.329  11.446   0.723  0.1354  0.2704  0.2997
24629W        W67542   9.619   8.704  21.840  0.1666 -0.1333 -0.0091
24630W        W67543   7.859  21.675  22.684 -0.1833  0.0362 -0.2184
24631W        W67544  27.316   7.590  27.241  0.3296  0.0296  0.2616
24632W        W67545  29.400  18.898   1.866  0.3406  0.1933  0.1626
24633W        W67546   4.657   1.671  25.964  0.1745 -0.0473  0.2683
24634W        W67547  23.387   7.785   1.467  0.0519 -0.1532  0.0331
24635W        W67548   6.438   2.531   5.109  0.1057  0.3366  0.0601
24636W        W67549  23.153  30.527  24.176  0.3009 -0.0947 -0.1788
24637W        W67550   5.396   7.757   5.520 -0.0823 -0.0538  0.0969
24638W        W67551  34.070  30.747  26.600  0.1770  0.3449  0.1674
24639W        W67552  30.938  10.943   8.398  0.1926  0.0390 -0.1541
24640W        W67553   5.929  17.768  23.077 -0.1720  0.3071  0.0339
24641W        W67554  15.321   5.817  21.850 -0.1526 -0.0240 -0.1400
24642W        W67555   5.258  24.823  28.634  0.1561 -0.1758 -0.1345
24643W        W67556   6.738   8.397  24.719  0.1465  0.0279  0.0861
24644W        W67557   2.959   6.178  17.858 -0.0192  0.0540 -0.0142
24645W        W67558  10.390   5.996  25.816  0.1856  0.0971  0.1252
24646W        W67559   9.415   1.835  27.557  0.1182  0.1098  0.0985
24647W        W67560  31.730  14.091  21.837  0.0430 -0.3136  0.0190
24648W        W67561  31.074   7.485   2.897  0.0826  0.0701 -0.1529
24649W        W67562  34.278   2.723   6.354 -0.0725  0.1152  0.0189
24650W        W67563  11.282  13.450  23.521 -0.0115  0.5123  0.0119
24651W        W67564   8.110   8.037   0.045 -0.0061 -0.0000 -0.2277
24652W        W67565   4.647   7.255  22.987  0.0806  0.0825 -0.1077
24653W        W67566  31.941   0.508  25.903  0.1870  0.1517 -0.1005
24654W        W67567   4.982  12.331  28.837  0.4064 -0.2437 -0.5422
24655W        W67568  33.777   5.991   2.566 -0.0680 -0.0130 -0.1424
24656W        W67569   2.941   9.618  20.052  0.1278  0.0359  0.1316
24657W        W67570   8.807   9.735  11.657  0.0149  0.0658 -0.1186
24658W        W67571   3.157   8.820  17.595  0.3091 -0.0826 -0.5244
24659W        W67572  16.448   5.772  21.141 -0.1239  0.0200  0.1029
24660W        W67573   5.787   6.653  26.523 -0.5110  0.0977  0.2086
24661W        W67574   5.372  22.089   6.505  0.1394 -0.1571 -0.1769
24662W        W67575  28.568   8.615   0.727 -0.0418 -0.1222 -0.1378
24663W        W67576   5.604   1.900  18.364 -0.2952  0.1704  0.0050
24664W        W67577   9.511  33.564  26.370 -0.2292  0.1658 -0.0830
24665W        W67578  23.350  18.818   7.733 -0.1512 -0.0087 -0.2787
24666W        W67579   5.532  14.978   0.785 -0.0853  0.0697 -0.0050
24667W        W67580   2.698   7.971  24.314 -0.2778  0.2175 -0.2001
24668W        W67581  12.159   6.887  27.254  0.0274 -0.2108  0.1465
24669W        W67582  33.232   2.445   6.169 -0.1121 -0.3150 -0.2672
24670W        W67583  32.527  14.014  23.480  0.3373 -0.3625  0.2996
24671W        W67584   6.381  19.942  28.727  0.1470  0.1843 -0.0743
24672W        W67585  34.398   2.022  27.611 -0.2108 -0.0306  0.0801
24673W        W67586  32.180  17.781   0.500 -0.1662 -0.1325  0.0284
24674W        W67587   9.210  10.726  16.169  0.0854 -0.1837 -0.2254
24675W        W67588  28.559   5.929   1.685 -0.3999  0.1312  0.2427
24676W        W67589  11.106  34.263  20.249  0.3402  0.1766  0.0106
24677W        W67590  18.455   9.175  20.745 -0.0011  0.0800  0.0323
24678W        W67591  20.969   5.019  18.950  0.0973 -0.1013 -0.0218
24679W        W67592   6.373  11.139  29.278 -0.1976 -0.2360 -0.1652
24680W        W67593  25.007  14.401  29.088 -0.0715 -0.2288 -0.1142
24681W        W67594   9.380   6.458  28.153  0.0772  0.0192 -0.1221
24682W        W67595  14.102  12.750  19.307 -0.1643 -0.0271 -0.0360
24683W        W67596   6.049  13.258  24.912  0.4089  0.3062 -0.2028
24684W        W67597  30.928   1.212   8.081 -0.0309  0.2082 -0.2230
24685W        W67598  33.999  10.340  28.247  0.1360  0.3701 -0.0041
24686W        W67599  11.959  11.181  25.338  0.4534 -0.0244  0.1914
24687W        W67600  24.908   9.446   5.352 -0.1152 -0.1352  0.1896
24688W        W67601  31.366   7.943  14.988  0.1322 -0.2647 -0.1697
24689W        W67602  17.827  13.989  28.218 -0.0521  0.0670 -0.0595
24690W        W67603  11.687  21.839   7.113  0.2216 -0.0693 -0.0112
24691W        W67604   9.434   5.392  25.531 -0.1044 -0.0203 -0.1345
24692W        W67605  12.735  13.039  13.805 -0.0925  0.0956 -0.0493
24693W        W67606   0.330   9.558  24.379 -0.0826 -0.0322  0.1210
24694W        W67607   8.193   9.169  21.170  0.2068  0.3828 -0.1123
24695W        W67608  33.274  12.603  23.126 -0.1332 -0.1242 -0.3981
24696W        W67609   9.345   6.519   4.030  0.0847 -0.3140  0.0824
24697W        W67610   6.037  12.267   1.581 -0.0233  0.1709  0.1824
24698W        W67611   9.084  12.603  23.367  0.6100 -0.0776  0.4424
24699W        W67612  13.619  19.665  27.929 -0.0815  0.1308 -0.1364
24700W        W67613  10.895   0.266  27.889  0.0708  0.5362 -0.0534
24701W        W67614  28.798   6.997  25.376  0.0260  0.4385  0.2339
24702W        W67615   1.008  10.906  10.211  0.0273  0.0344 -0.1707
24703W        W67616  13.375  13.869  25.281 -0.4192 -0.1241  0.0186
24704W        W67617   7.967   2.871   0.863 -0.2274  0.0512 -0.0301
24705W        W67618   5.199  11.965  18.640  0.1535 -0.2369  0.2118
24706W        W67619   6.698  10.542  22.849  0.1209 -0.1269 -0.2311
24707W        W67620  28.583  33.936  26.332  0.0673  0.0966 -0.1217
24708W        W67621  18.686   7.092   7.011 -0.1772 -0.1069 -0.2087
24709W        W67622  26.235  11.636  24.950  0.0973 -0.2940  0.0978
24710W        W67623   7.355  14.206   9.140  0.0875 -0.1779  0.0641
24711W        W67624  31.891   1.172  21.197 -0.1291  0.1836  0.2747
24712W        W67625  30.194   4.289  27.258  0.3995  0.3199  0.3707
24713W        W67626   1.468   3.367  24.557  0.1274 -0.1723 -0.1049
24714W        W67627  15.776   6.661  29.741 -0.0187  0.2830  0.0367
24715W        W67628   7.717   9.406  18.401 -0.2446  0.2695  0.5227
24716W        W67629   2.394  32.712   6.494  0.6737  0.2700 -0.2225
24717W        W67630   1.002   9.768   1.182 -0.3940 -0.2541  0.1079
24718W        W67631   0.468  15.279  29.435 -0.0746 -0.0952  0.0935
24719W        W67632  12.299   6.694  17.129 -0.1174 -0.1264  0.2219
24720W        W67633   0.500   9.602  22.021  0.1136 -0.0527 -0.1497
24721W        W67634   7.684   0.748  23.504 -0.1139 -0.1649  0.1657
24722W        W67635   4.560  12.999  28.849  0.0165  0.3387  0.2604
24723W        W67636   1.128  20.955  29.068 -0.0095  0.1680 -0.2736
24724W        W67637   5.269   8.689  24.164  0.0210 -0.2662 -0.2671
24725W        W67638   5.457  19.553   3.405 -0.2691 -0.2068 -0.0882
24726W        W67639   7.999  17.412  14.929  0.2374  0.0600  0.1223
24727W        W67640   3.713   4.869  23.395 -0.1650 -0.0220  0.1975
24728W        W67641   1.409   9.819  26.506  0.3818 -0.0305  0.4784
24729W        W67642   6.349  11.865  26.500  0.2337 -0.2713  0.0356
24730W        W67643   4.617   8.505  29.026  0.0364 -0.0505 -0.2746
24731W        W67644   1.766  18.551  28.058 -0.0336  0.0515 -0.0918
24732W        W67645   4.881  15.535  23.126 -0.1393 -0.4319  0.0323
24733W        W67646  18.790   9.993   8.250  0.2620  0.1730 -0.0081
24734W        W67647   3.559  10.859  23.265 -0.1948  0.0683 -0.3024
24735W        W67648   2.702   7.870   6.371  0.0213  0.0875 -0.2113
24736W        W67649   7.684   5.771  26.107 -0.0439 -0.1393 -0.1810
24737W        W67650  13.645   1.793   9.743  0.0644 -0.3088  0.2630
24738W        W67651  14.941   8.275  24.510  0.2843  0.0306  0.0994
24739W        W67652  11.434  31.829  22.292 -0.3390 -0.2053 -0.3532
24740W        W67653  30.695  17.790   1.242  0.0267  0.0133  0.0494
24741W        W67654   0.065  33.323  22.917 -0.2532  0.2503 -0.0160
24742W        W67655   5.135   8.887  10.795  0.2850 -0.2240 -0.0339
24743W        W67656   3.953   1.697  27.345  0.1798  0.0535 -0.1907
24744W        W67657   8.137   3.789  11.218  0.0217 -0.2811 -0.2171
24745W        W67658  13.951   6.814  29.110  0.0837 -0.0572 -0.2406
24746W        W67659  31.611   7.288  17.627  0.1326  0.0706 -0.1120
24747W        W67660   8.816  16.735  23.178  0.0922  0.0324  0.1561
24748W        W67661   5.241  12.105  15.541  0.3799 -0.1490 -0.0539
24749W        W67662   7.615  34.368  10.993  0.2996  0.4651 -0.1489
24750W        W67663   6.017  13.948  22.526 -0.3771  0.1010 -0.3386
24751W        W67664  13.934   9.914  19.396  0.1710 -0.1489 -0.3531
24752W        W67665  15.338  17.933   1.260  0.2444 -0.0347 -0.1434
24753W        W67666   2.262  11.319   5.433 -0.1376  0.2593 -0.2432
24754W        W67667  14.851  19.031  26.666 -0.1893 -0.0490  0.0246
24755W        W67668  30.958   1.559  18.364 -0.1252  0.0681  0.1724
24756W        W67669  33.688  12.252  23.602 -0.1133 -0.1843 -0.1708
24757W        W67670  10.132  31.907   0.079 -0.1533 -0.2995  0.1116
24758W        W67671  34.233  10.172  29.241 -0.0977  0.1822 -0.1295
24759W        W67672   4.811  33.837   2.630  0.0275 -0.0158  0.1206
24760W        W67673   6.551  14.261  20.628  0.1149  0.1084 -0.1488
24761W        W67674  10.072  11.439  29.078  0.0256 -0.2675 -0.3600
24762W        W67675   1.851   5.203   7.990 -0.0623  0.0032 -0.0037
24763W        W67676   2.912   8.914   5.576  0.2163  0.0000  0.0726
24764W        W67677  34.118   2.772   3.843 -0.0441  0.0109  0.2001
24765W        W67678  16.528   8.221  14.397 -0.4437 -0.1954 -0.1667
24766W        W67679  33.909  14.782   1.047  0.0281 -0.0050  0.1844
24767W        W67680   1.153   9.426   6.883 -0.0244  0.0616  0.2742
24768W        W67681   3.740   8.747  27.806  0.0124  0.0492 -0.0858
24769W        W67682   4.520   6.602  21.924 -0.0433  0.3605  0.0373
24770W        W67683   7.618   9.080   2.132 -0.0809 -0.0179 -0.0999
24771W        W67684  12.658   6.643  29.571  0.2840 -0.3048  0.2461
24772W        W67685   8.115   9.827   2.297  0.4464 -0.3280 -0.1470
24773W        W67686  20.203  32.908  22.064 -0.0155 -0.2088 -0.0417
24774W        W67687  17.771  34.310   4.399  0.0296  0.1923  0.3594
24775W        W67688   3.495  21.395  24.520 -0.3449 -0.1382 -0.2065
24776W        W67689   7.824   6.974  28.661  0.0232 -0.1081  0.1423
24777W        W67690  19.068  11.321   6.445 -0.0694  0.0449  0.2500
24778W        W67691   4.709   5.205   4.013 -0.1339 -0.0174 -0.1727
24779W        W67692  26.961  10.116  16.360  0.1230  0.1957 -0.0018
24780W        W67693   5.738  10.218  25.981 -0.0731 -0.3502 -0.1085
24781W        W67694   3.219  19.280  29.084  0.1357  0.1333 -0.3726
24782W        W67695   4.399   8.204   2.780 -0.1001  0.0014  0.0217
24783W        W67696   9.397   4.926   2.379 -0.1418 -0.2722  0.2488
24784W        W67697  12.164  10.958   7.253  0.1687  0.0059 -0.0558
24785W        W67698  10.465   2.828   3.943 -0.2721 -0.0972 -0.2834
24786W        W67699  34.281  11.418  24.158 -0.1971 -0.0677  0.2114
24787W        W67700   7.117   1.050  27.146  0.0166 -0.3618 -0.0549
24788W        W67701   7.231  13.827  18.259 -0.1324 -0.0537 -0.0686
24789W        W67702  33.274   0.350  16.344 -0.1887  0.2464 -0.0674
24790W        W67703   8.517  12.360   9.653  0.0533  0.3141  0.0213
24791W        W67704  14.861   6.575  19.683 -0.0429  0.2766  0.0769
24792W        W67705  12.435  13.898  27.979  0.0334  0.1009 -0.3229
24793W        W67706   4.265   1.581  26.227  0.1519  0.0912 -0.3594
24794W        W67707  16.071   5.488   0.857 -0.1410 -0.3526 -0.1780
24795W        W67708  15.313  10.366   6.827  0.0892 -0.1873 -0.1954
24796W        W67709  30.554   4.511  20.771  0.2561 -0.1524  0.0676
24797W        W67710   5.539  23.598  15.067 -0.2010 -0.2095 -0.1148
24798W        W67711   0.592  12.432   2.566  0.0338  0.1376  0.0797
24799W        W67712  11.400   3.146  26.519  0.1064 -0.1245  0.0404
24800W        W67713  10.974   9.057  27.676 -0.2710 -0.0646  0.0410
24801W        W67714   6.765   2.738  10.619 -0.3705  0.0999  0.1529
24802W        W67715   2.814   6.039   0.232  0.2291 -0.2972 -0.3444
24803W        W67716   5.949   1.661   2.704 -0.0717 -0.0329 -0.1956
24804W        W67717  10.652  17.199   7.347  0.1984 -0.0558 -0.1957
24805W        W67718   9.705   7.724   9.487 -0.2470  0.4320  0.3395
24806W        W67719  30.026  14.768  16.595 -0.1365  0.1046 -0.0345
24807W        W67720   3.198  13.691   4.080 -0.0387 -0.1825  0.1931
24808W        W67721   3.858  14.880  26.049  0.1436  0.2539  0.0833
24809W        W67722  19.902   2.989  29.662  0.3257 -0.1174  0.0998
24810W        W67723  10.814   5.874  27.013  0.1921 -0.0656 -0.0904
24811W        W67724   6.839  17.600   3.534 -0.1680  0.1191 -0.3187
24812W        W67725  29.172  14.425  26.854 -0.1700  0.0203  0.2161
24813W        W67726  33.109  23.925   4.963 -0.0782 -0.1093  0.1996
24814W        W67727   5.376   6.500   3.282 -0.1222  0.2645  0.1118
24815W        W67728   3.317   2.545  22.066  0.2886  0.3241  0.0878
24816W        W67729  31.046   6.581  27.514  0.1447  0.0966  0.2878
24817W        W67730  23.806  12.334  29.232 -0.4598 -0.1333 -0.2513
24818W        W67731   2.925  16.150  26.312 -0.1728  0.0962  0.0314
24819W        W67732   6.197   0.103  22.859  0.1279  0.1856  0.0387
24820W        W67733  27.427  18.586   0.126 -0.3625 -0.3832  0.0860
24821W        W67734  11.904  13.459  22.774  0.0336 -0.4034  0.2243
24822W        W67735   8.145  12.942  21.626 -0.0860  0.1238  0.1774
24823W        W67736  19.009  19.354   2.143 -0.1404 -0.1795  0.3818
24824W        W67737   7.731  10.356   8.002  0.0305  0.1122  0.0281
24825W        W67738   4.885   2.804   9.878 -0.0872  0.0553 -0.3221
24826W        W67739   1.631  32.719  25.221 -0.0868  0.0315  0.0183
24827W        W67740   5.604   9.726   5.213 -0.3754 -0.0489 -0.4718
24828W        W67741  10.620   3.379  25.640 -0.2138 -0.1347 -0.3334
24829W        W67742   2.642  21.391  23.062  0.4204 -0.1205  0.1273
24830W        W67743   6.897  11.315   7.383 -0.0119 -0.0520 -0.1042
24831W        W67744  28.161  22.745   1.338 -0.1532 -0.2336  0.2006
24832W        W67745  33.928   4.581  27.764 -0.3581  0.2299 -0.0157
24833W        W67746   3.767   8.790   5.146  0.2504  0.1577  0.2427
24834W        W67747   2.736  33.963   5.905 -0.2036  0.2418  0.2704
24835W        W67748  10.213   2.895  19.034  0.0728  0.0106 -0.2163
24836W        W67749  11.012   3.104  29.428 -0.1314  0.3492  0.0783
24837W        W67750  33.182  16.129   4.791 -0.0730  0.1328 -0.1631
24838W        W67751   8.454   1.704  25.821 -0.0058  0.1144  0.1248
24839W        W67752   0.161   5.146   8.836 -0.1378  0.1420 -0.0611
24840W        W67753   9.828   6.830  26.108  0.1755  0.0279  0.0402
24841W        W67754  31.193  16.904   5.395  0.1205 -0.0323 -0.0981
24842W        W67755   5.887   4.840   0.856  0.0667  0.0372 -0.0059
24843W        W67756  16.990   8.074  26.901 -0.0784  0.1345  0.0098
24844W        W67757   9.258  11.318   0.258  0.1923 -0.0282  0.0530
24845W        W67758   9.870  10.273  24.961 -0.2810  0.0052 -0.0596
24846W        W67759   3.072  33.894  28.032  0.0398 -0.0386  0.0744
24847W        W67760   4.780  18.308   2.591 -0.0739 -0.1916  0.1786
24848W        W67761   6.530  15.227   4.129  0.0268 -0.0389  0.0248
24849W        W67762   8.540  16.137  28.119 -0.0461 -0.4498 -0.1783
24850W        W67763  32.072  12.205   3.534 -0.1792 -0.5160  0.1151
24851W        W67764   8.340   7.547   3.679 -0.1220 -0.3842 -0.1010
24852W        W67765   7.981   9.447   5.830  0.1659  0.1728  0.3491
24853W        W67766  14.140  33.496  10.216  0.1567 -0.3075  0.4657
24854W        W67767  16.332   2.275  23.503  0.1759 -0.1187 -0.0542
24855W        W67768   0.249  33.171  17.857 -0.2510  0.1451  0.0176
24856W        W67769   3.532   6.776   6.541  0.0953  0.1153  0.0661
24857W        W67770  32.727  10.170  18.523 -0.0369 -0.0853  0.0518
24858W        W67771   8.598  32.290  24.858 -0.1767 -0.0447 -0.0379
24859W        W67772   2.207  13.888   3.396  0.0346 -0.2498 -0.1193
24860W        W67773  12.088  11.913  28.998  0.3386  0.1783  0.1232
24861W        W67774   0.642  17.543   8.846 -0.0117  0.2572  0.2314
24862W        W67775  33.617  17.698  20.718  0.0847  0.0660  0.1659
24863W        W67776  31.001  13.083  18.347  0.3258  0.2533  0.1791
24864W        W67777   8.145   7.070  23.077 -0.0075  0.1114 -0.0740
24865W        W67778  12.583  10.309  24.304  0.5229 -0.0621 -0.1461
24866W        W67779   0.778   8.902  16.279  0.0952 -0.0045 -0.0793
24867W        W67780   3.559  13.851  18.433  0.1135 -0.2656  0.0080
24868W        W67781   5.138  13.245  20.189 -0.1893 -0.1500  0.0408
24869W        W67782  10.777  14.219  13.731  0.1024  0.2550 -0.0776
24870W        W67783  31.864  15.047  16.059  0.1908  0.1279 -0.0084
24871W        W67784   3.472  10.342  22.419 -0.0728  0.2039  0.0082
24872W        W67785   3.810  11.805  20.837  0.2729  0.2563  0.0729
24873W        W67786   3.220  23.846  20.912 -0.0105 -0.1340 -0.0166
24874W        W67787  32.733  13.924  21.965  0.0519 -0.4516 -0.4226
24875W        W67788   3.362  12.120  18.772 -0.1381  0.1029 -0.1893
24876W        W67789   4.746   8.801  22.506  0.2703  0.0273 -0.1619
24877W        W67790   6.438  19.086  20.805  0.0747 -0.0505  0.1023
24878W        W67791   8.765  15.597  13.372 -0.0522  0.4886  0.1475
24879W        W67792  10.855   8.673  19.427  0.2044 -0.1210 -0.2335
24880W        W67793  31.863   5.617  18.162 -0.0817  0.1885  0.0024
24881W        W67794  30.708  13.074  27.575 -0.2102 -0.0282  0.1419
24882W        W67795   8.512  13.366  23.653  0.1968 -0.0437  0.0530
24883W        W67796  15.011   2.114  15.552  0.1716 -0.0060  0.3107
24884W        W67797  33.714  13.913  16.110 -0.1751  0.1651 -0.0406
24885W        W67798   6.587  10.928  23.163 -0.3971 -0.0602  0.0705
24886W        W67799  14.234   5.811  16.344 -0.4096 -0.1632  0.1295
24887W        W67800   2.283  25.314  24.059 -0.0784 -0.0849 -0.0094
24888W        W67801  12.977   9.598  21.488 -0.0343 -0.2098 -0.1628
24889W        W67802   8.493  13.208  16.106  0.0139 -0.2778  0.0325
24890W        W67803   1.886  11.109  18.749  0.1137 -0.1723 -0.3886
24891W        W67804   6.056  17.604  18.581 -0.2520 -0.4586  0.4499
24892W        W67805  12.583  19.071  23.128 -0.0485  0.2367  0.0353
24893W        W67806  32.358  11.924  25.560 -0.0104  0.5130 -0.1047
24894W        W67807   6.994  11.896  15.448 -0.1112  0.1102 -0.0359
24895W        W67808   8.609  20.598  17.335 -0.0935 -0.5944 -0.0577
24896W        W67809   6.091  19.537  19.926  0.0389 -0.0697  0.4015
24897W        W67810   7.463  17.720  24.148 -0.1862  0.0945  0.1158
24898W        W67811  12.194  12.088  17.875  0.3102  0.0436  0.4920
24899W        W67812   9.798  25.506  17.629  0.0365  0.1390 -0.0595
24900W        W67813   2.864  31.856  25.297  0.0324 -0.1384 -0.2702
24901W        W67814  11.229   4.763  18.322 -0.0526  0.1014  0.1327
24902W        W67815  30.046  22.621  20.709 -0.1461 -0.0981 -0.1771
24903W        W67816  25.015  25.213  20.099  0.3242 -0.0672  0.0952
24904W        W67817   4.441  14.351  20.136 -0.2011 -0.2765  0.3515
24905W        W67818   2.897  13.538   4.493  0.2575  0.2413 -0.0574
24906W        W67819   5.693  12.331  15.687 -0.0889 -0.0841  0.2808
24907W        W67820  31.355  14.892  26.227 -0.3936  0.0429 -0.1326
24908W        W67821   7.510  16.588  22.476 -0.2807 -0.0155  0.2444
24909W        W67822  15.101  13.189  15.295  0.0870 -0.0424  0.0449
24910W        W67823   3.795   0.944  18.928  0.0398 -0.6293  0.0314
24911W        W67824  33.925  14.900  26.511  0.1544 -0.3757 -0.1661
24912W        W67825  32.311   2.918  17.200  0.1947  0.2565 -0.1946
24913W        W67826   1.202  10.379  21.577 -0.1424  0.1306  0.0336
24914W        W67827   5.287  13.339  20.744 -0.2590 -0.4417 -0.1018
24915W        W67828   3.994  21.679  17.561  0.0758  0.3467  0.0450
24916W        W67829  28.297  12.204  19.320 -0.1187  0.0135  0.1206
24917W        W67830  14.550  13.559  17.818 -0.2154  0.1701 -0.0623
24918W        W67831   1.318  11.938  15.630 -0.1381 -0.0230  0.4421
24919W        W67832  30.444  12.119  16.073 -0.1301  0.2972 -0.0217
24920W        W67833  29.229  16.497  25.781  0.0576 -0.0295 -0.1337
24921W        W67834   7.143  17.196  15.314  0.0438 -0.2009  0.1198
24922W        W67835  12.535  19.052  19.655  0.1778 -0.0353 -0.0812
24923W        W67836   0.153  12.376  19.290 -0.1967  0.1893 -0.2093
24924W        W67837   1.091   5.258  17.693 -0.0578 -0.1715  0.3528
24925W        W67838  31.301  18.472  20.032 -0.0197  0.2603 -0.0100
24926W        W67839   9.967   4.329  24.177 -0.1731  0.0727 -0.1521
24927W        W67840   0.395  14.194  22.378  0.4557  0.0170  0.0068
24928W        W67841   2.673  19.554  14.246 -0.3082 -0.4872 -0.0153
24929W        W67842   5.682  12.059  15.261  0.0861  0.0828  0.0441
24930W        W67843   5.295   4.776  20.569  0.0136  0.0056  0.1311
24931W        W67844   0.953   9.155  20.432 -0.3245  0.0153  0.1225
24932W        W67845   7.243  34.218  16.508  0.0627 -0.0986 -0.1741
24933W        W67846   3.344  14.982  19.216 -0.3521  0.1000  0.1242
24934W        W67847  11.265   7.846  22.964  0.0112 -0.0714 -0.1205
24935W        W67848   7.377   9.917  16.463 -0.1579  0.1520 -0.1746
24936W        W67849  32.427   7.738  20.502  0.2863 -0.0835 -0.0269
24937W        W67850  21.875  19.247  19.490 -0.0165 -0.0834 -0.1784
24938W        W67851  15.558   2.647  16.797 -0.0945  0.0087  0.0382
24939W        W67852   9.344  13.817  17.476  0.0686 -0.1126 -0.0754
24940W        W67853  32.801   4.424  24.323  0.1201 -0.3765 -0.1513
24941W        W67854   2.221   9.918  24.231 -0.0693 -0.0858  0.1979
24942W        W67855  12.042  13.945  23.377 -0.4118 -0.1035  0.0421
24943W        W67856  15.098  11.483  22.979  0.0841  0.0642 -0.0778
24944W        W67857  31.520   7.581  20.500  0.0214  0.1461 -0.0226
24945W        W67858   2.837  15.688  18.770  0.0402 -0.2893  0.0874
24946W        W67859  13.896  15.777  14.211  0.0892  0.3146 -0.1924
24947W        W67860   7.180  12.318  18.301 -0.2057  0.1220  0.3134
24948W        W67861   2.214  17.261  17.028 -0.0234  0.0007 -0.1889
24949W        W67862  34.342   5.737  18.641  0.1003  0.0310  0.3876
24950W        W67863  12.306  21.755  22.756  0.0517  0.1701 -0.1407
24951W        W67864  10.706  14.057  26.975 -0.4116  0.3047 -0.0049
24952W        W67865  34.249  10.396  17.013 -0.1805 -0.0652 -0.0162
24953W        W67866   2.679  13.783  22.488 -0.1225 -0.2281  0.2181
24954W        W67867  31.753  22.283  27.000  0.1973  0.3199  0.0302
24955W        W67868   9.953  12.920  15.631 -0.1898 -0.1336  0.1095
24956W        W67869   1.793  16.961  17.305 -0.0552 -0.2337 -0.1700
24957W        W67870   0.335  14.309  15.650  0.1314  0.0725  0.0546
24958W        W67871  32.305   2.676  21.443 -0.1328 -0.1138  0.2602
24959W        W67872   0.555   8.999  19.440  0.2281  0.0193 -0.0331
24960W        W67873  11.843  13.899  14.668 -0.3401  0.0209  0.1378
24961W        W67874  24.245  11.330  26.111  0.0765 -0.2116  0.2976
24962W        W67875  10.893   4.932  22.914  0.1362  0.2935 -0.1843
24963W        W67876   6.514  16.676  20.287 -0.3400  0.2004 -0.0083
24964W        W67877  12.556   1.720  18.722  0.0737  0.2662  0.1022
24965W        W67878   3.062  13.613  19.943 -0.0896 -0.0330  0.2297
24966W        W67879  16.309  13.102  19.003  0.0013 -0.0154  0.1881
24967W        W67880  13.516   7.864  15.057 -0.2119  0.1857 -0.2346
24968W        W67881  27.215  14.044  20.702  0.2486  0.0066 -0.0086
24969W        W67882   0.119  33.674  21.455 -0.2866 -0.0338 -0.0922
24970W        W67883  15.016  10.654  17.223  0.1751  0.1258 -0.0788
24971W        W67884   2.797  24.304  22.036 -0.0397 -0.2431  0.1201
24972W        W67885  15.107  12.611  16.276 -0.1048 -0.0337  0.1023
24973W        W67886  30.084  20.928  20.639 -0.2728 -0.1284 -0.0682
24974W        W67887  13.175  21.380  26.933  0.0320  0.2235 -0.2671
24975W        W67888  26.447  15.442  17.635  0.0896  0.2432 -0.0900
24976W        W67889   4.212  14.721  23.782  0.1732  0.1434  0.1128
24977W        W67890  28.409   3.900  25.803 -0.2396 -0.2112  0.0352
24978W        W67891  13.150  10.344  22.149 -0.5742 -0.1054 -0.2149
24979W        W67892   2.251   7.793  25.021  0.0513 -0.1386  0.1911
24980W        W67893   0.792  15.934  23.867 -0.0997  0.0744  0.1557
24981W        W67894   1.611  22.892  17.608 -0.1113  0.1843 -0.0368
24982W        W67895  27.538  11.964   3.808 -0.0766  0.0094  0.2969
24983W        W67896   8.756  15.719  14.529 -0.0034  0.0194 -0.0874
24984W        W67897   4.752  18.891  19.931  0.0612  0.2746  0.1269
24985W        W67898   7.507  23.592  22.849  0.2409  0.1375  0.0235
24986W        W67899  32.364  12.225  14.802  0.2931  0.1462  0.1365
24987W        W67900  33.475  10.379  23.670  0.1787  0.1319 -0.2279
24988W        W67901   5.605  21.603  17.557 -0.0549  0.1274  0.1319
24989W        W67902  19.460  17.793  15.041 -0.0101 -0.0195 -0.3877
24990W        W67903   6.186  16.790  19.336  0.1521  0.1813 -0.0338
24991W        W67904  11.726  12.187  23.865  0.2315  0.0457  0.1297
24992W        W67905   5.023   0.362  23.556  0.1999 -0.1115  0.1799
24993W        W67906  13.159   5.811  19.893  0.1039  0.0620  0.1507
24994W        W67907   5.493  14.449  19.292 -0.2691  0.1355  0.1635
24995W        W67908  10.347  16.139  17.287 -0.1158 -0.0048  0.0973
24996W        W67909  11.268   8.236  16.933 -0.1038  0.1161  0.2088
24997W        W67910   7.380  10.128  18.996 -0.3704 -0.1421 -0.0151
24998W        W67911   8.778  14.797  15.543  0.0340  0.0878 -0.0052
24999W        W67912   1.667  17.627  13.777 -0.0627 -0.0784  0.3746
25000W        W67913   5.222  13.815  13.903 -0.2148 -0.0363  0.4837
25001W        W67914   8.884  14.804  25.923  0.1878  0.2577  0.2562
25002W        W67915   6.061  14.467  26.059 -0.0379  0.0658  0.3510
25003W        W67916   7.812  17.692  18.606  0.1464  0.1775 -0.1624
25004W        W67917   9.217  20.466  16.528  0.0462 -0.0320  0.1489
25005W        W67918   5.845  11.225  20.123  0.3377 -0.1501  0.0000
25006W        W67919   7.881  16.691  24.702 -0.0668 -0.0889  0.1496
25007W        W67920   0.989   4.515  16.431  0.1901 -0.0012 -0.2350
25008W        W67921   5.267   6.232  23.752  0.2045  0.2472  0.0898
25009W        W67922  13.400   4.256  23.260 -0.1448 -0.2050  0.1687
25010W        W67923  12.642   4.724  18.194 -0.4657  0.0487  0.1022
25011W        W67924   2.065  16.110  19.936  0.0217 -0.0751  0.0746
25012W        W67925  26.747   8.801  18.749  0.0372  0.0978 -0.3994
25013W        W67926   4.699   7.745  21.202  0.1910 -0.4741  0.0867
25014W        W67927  27.331  11.907  15.264 -0.1126 -0.2054  0.0314
25015W        W67928   0.316  15.085  19.715 -0.1830  0.1656  0.2215
25016W        W67929  30.387  13.562  15.393 -0.2842 -0.2539  0.1046
25017W        W67930   0.090   9.478  17.333  0.2028  0.1474 -0.1777
25018W        W67931  32.785  19.962  18.821 -0.2087  0.0469  0.1597
25019W        W67932  29.701  17.009  18.954 -0.0510 -0.0416  0.1054
25020W        W67933  10.149  17.042  18.908 -0.0672  0.0269  0.1341
25021W        W67934  34.270   9.431  22.482  0.0882 -0.1331  0.0278
25022W        W67935   6.618  11.101  17.132  0.1305 -0.0779  0.2633
25023W        W67936   1.841  26.355  19.376  0.3192 -0.2728  0.0211
25024W        W67937  14.108  13.596  28.381 -0.3421 -0.3764  0.0590
25025W        W67938   7.276  10.467  26.244 -0.0452 -0.1558  0.0056
25026W        W67939   8.394  21.474  22.541 -0.0272  0.2034  0.2514
25027W        W67940  13.198   4.724  20.569 -0.2242  0.0420 -0.0701
25028W        W67941   1.466  14.099  28.116  0.0797  0.4184 -0.3698
25029W        W67942  27.018   2.180  17.881 -0.3376 -0.3656  0.0875
25030W        W67943  13.517   8.642  23.858  0.0086  0.0174 -0.0912
25031W        W67944  13.287   9.789  17.447  0.0056 -0.1833 -0.0752
25032W        W67945   7.416   3.366  27.609 -0.2073  0.3969 -0.2695
25033W        W67946  13.916   4.254  23.894 -0.0452  0.0421 -0.1981
25034W        W67947   4.529   3.314  26.963 -0.3421  0.3082 -0.0646
25035W        W67948  13.554   7.879  20.619  0.4305  0.1327 -0.0923
25036W        W67949  12.388  15.685  19.380  0.1321  0.2876  0.0858
25037W        W67950   2.075   7.142  18.136 -0.1065 -0.2894  0.1097
25038W        W67951   5.967  17.739  16.601  0.0334 -0.3177  0.0711
25039W        W67952   7.418  13.456  19.758 -0.0328 -0.0279  0.2792
25040W        W67953   3.631  19.840  15.962 -0.2328  0.2927  0.0475
25041W        W67954  32.167  17.246  25.111 -0.0380 -0.0156  0.1760
25042W        W67955   3.457  16.740  24.411  0.2606  0.0632 -0.3885
25043W        W67956   1.478  24.341  21.140  0.0556 -0.2347  0.2839
25044W        W67957  10.159  10.291  21.797 -0.0528  0.2167  0.0702
25045W        W67958  14.947  17.921  22.137  0.1173 -0.1222  0.0758
25046W        W67959   7.645  19.971  24.153  0.0966  0.1694 -0.1283
25047W        W67960  15.407   6.413  20.494  0.0292 -0.2118 -0.1322
25048W        W67961  19.144  10.678  17.751 -0.1142 -0.1290  0.1409
25049W        W67962   7.611   8.211  20.426  0.2956 -0.0826  0.4483
25050W        W67963   3.831  15.217  13.682 -0.2734 -0.1442  0.0775
25051W        W67964  19.118  10.042  16.975 -0.3621  0.2472 -0.1538
25052W        W67965  13.592  10.614  20.212  0.2550 -0.0145  0.2538
25053W        W67966   1.383  12.964  15.150  0.1440 -0.0973  0.1619
25054W        W67967   8.050  19.394  13.596 -0.0261  0.2561 -0.1256
25055W        W67968  15.886   5.215  21.739 -0.1101  0.3171 -0.0325
25056W        W67969   7.261  17.820  20.455  0.1628 -0.0209  0.0049
25057W        W67970   4.381  13.459  16.191  0.4181 -0.1805 -0.1871
25058W        W67971   5.128  10.230   0.260 -0.2364 -0.1919  0.1578
25059W        W67972   4.562   5.842  20.401 -0.2290  0.2319  0.0726
25060W        W67973  26.185  20.325  17.685  0.0747  0.1829 -0.1346
25061W        W67974   5.357  14.700  16.471  0.1166  0.0402  0.0113
25062W        W67975   7.086   5.133  23.761 -0.2149 -0.0759  0.2868
25063W        W67976   4.083   8.959  18.699  0.2838  0.1365  0.1494
25064W        W67977   4.023  16.107  19.512  0.3250  0.1000  0.0126
25065W        W67978  18.373  12.891  12.553 -0.0047  0.1318  0.1152
25066W        W67979   4.438  16.188  25.002 -0.2540  0.2361  0.0480
25067W        W67980   5.570  20.882  18.277 -0.0396 -0.0469 -0.0826
25068W        W67981   0.284  13.834  23.302 -0.0214  0.0727 -0.3026
25069W        W67982   6.497  19.322  17.598  0.1298  0.0503 -0.0593
25070W        W67983   6.682  17.779  18.917  0.0569 -0.1071  0.0038
25071W        W67984  28.811  23.463  29.155  0.1055 -0.0941  0.1178
25072W        W67985   1.728  11.456  25.158  0.1861  0.1080 -0.2188
25073W        W67986   6.401   6.770  17.598  0.0608  0.4376 -0.2469
25074W        W67987   2.534  16.935  22.387 -0.1556 -0.0146  0.2259
25075W        W67988   4.440   7.982  24.450  0.5801  0.1488 -0.0200
25076W        W67989  10.518  10.333  16.923 -0.1308  0.1905  0.1244
25077W        W67990   8.231   5.996  17.951  0.1137  0.1243  0.4181
25078W        W67991  11.946  14.854  16.041 -0.1066 -0.0171 -0.1656
25079W        W67992   6.396  17.709  26.176 -0.1773  0.0153 -0.0640
25080W        W67993  34.328  21.703  16.993 -0.0450 -0.1986 -0.0024
25081W        W67994  10.133   7.246  17.818  0.1422  0.1130 -0.0949
25082W        W67995   8.371  19.942  26.000  0.0290  0.0659  0.0443
25083W        W67996   0.229  21.719  19.034  0.1795  0.1446 -0.0631
25084W        W67997   9.987  18.196  29.164 -0.1789 -0.1208 -0.0504
25085W        W67998  33.880   4.099  18.646 -0.0696 -0.2776 -0.2675
25086W        W67999  33.538  10.782  18.136 -0.1456 -0.1502 -0.0449
25087W        W68000   8.585  19.524  17.284 -0.3886 -0.0643  0.1646
25088W        W68001  31.433  13.587  23.684 -0.1953  0.1485 -0.1751
25089W        W68002  11.900   9.099  24.649  0.0534 -0.0667  0.0727
25090W        W68003  14.420  15.425  15.059 -0.2222  0.2065  0.1473
25091W        W68004  15.740   7.286  28.944  0.0027 -0.2759 -0.1250
25092W        W68005   8.526   9.399  18.250 -0.0796  0.1658 -0.1539
25093W        W68006   9.946  23.832  24.384  0.2953  0.2292 -0.0570
25094W        W68007  32.463   6.421  28.051 -0.3114  0.1810  0.0179
25095W        W68008  13.468  12.151  26.677 -0.2044 -0.0006  0.1830
25096W        W68009   5.402  13.345  22.952 -0.0655 -0.1164  0.1309
25097W        W68010  26.943  15.186  13.174  0.0689 -0.1616 -0.0530
25098W        W68011   7.095  15.680  26.013 -0.2171  0.2093 -0.2050
25099W        W68012   9.884  13.326  24.337 -0.0212  0.0885 -0.0266
25100W        W68013   6.284  15.131  14.653  0.2747  0.1724  0.3119
25101W        W68014   8.852  10.588   1.412 -0.2685 -0.0708 -0.1030
25102W        W68015   1.379   8.903  21.976  0.1404 -0.0580 -0.0099
25103W        W68016  17.500  14.720  12.294  0.2896  0.0901  0.1026
25104W        W68017  11.124   0.949  24.053  0.0004  0.2442  0.2159
25105W        W68018  32.394  20.051  20.079 -0.3776 -0.2863 -0.3849
25106W        W68019  10.968  27.273  16.433  0.0653  0.0252  0.3047
25107W        W68020   9.325  11.913  18.217  0.0054 -0.1685  0.0803
25108W        W68021   5.961  16.936  25.732  0.0078 -0.2303  0.0872
25109W        W68022   3.897   8.222  25.251 -0.0012  0.2609 -0.3522
25110W        W68023   9.911  12.329  26.652 -0.1211  0.1150 -0.2871
25111W        W68024  12.302   0.478  21.999  0.1825 -0.4590  0.2233
25112W        W68025  10.153   6.081  21.701 -0.1535 -0.1538  0.1357
25113W        W68026   3.600  14.167  24.795 -0.1082  0.0070  0.0383
25114W        W68027  11.099  14.042  14.716 -0.1456  0.0079  0.0994
25115W        W68028   0.230  13.034  21.891 -0.0449 -0.1060  0.1272
25116W        W68029   2.203   9.819  18.215 -0.1225 -0.3035 -0.0764
25117W        W68030   6.312  19.410  18.524 -0.0349 -0.2139  0.2894
25118W        W68031  14.561  13.735  13.862 -0.0273 -0.0590  0.1978
25119W        W68032   3.824  14.881  19.580 -0.0841 -0.2867  0.3745
25120W        W68033   0.102  12.955   2.091  0.0947  0.1093  0.2318
25121W        W68034   5.418  12.045  17.305  0.0774  0.2268  0.1091
25122W        W68035  33.735  18.590  18.730 -0.1948  0.0445  0.0822
25123W        W68036  33.904  12.363  20.157 -0.1384 -0.2512  0.0886
25124W        W68037  27.172  13.657  27.643 -0.2658  0.0289 -0.0553
25125W        W68038   5.249  15.752  17.821 -0.3247 -0.1893  0.0181
25126W        W68039  30.940  27.304  14.740  0.0071  0.2180 -0.0507
25127W        W68040  10.889  18.487  23.326 -0.0175  0.0249 -0.1075
25128W        W68041  15.588  14.846  23.217  0.1070 -0.0633 -0.2390
25129W        W68042  10.154  20.284  21.176 -0.2711  0.1394  0.1252
25130W        W68043   6.108  14.416  21.531  0.1570 -0.1018 -0.0645
25131W        W68044   3.155  25.680  18.592 -0.0476  0.1015  0.1980
25132W        W68045  11.678  10.895  18.202 -0.0134 -0.3387 -0.4165
25133W        W68046   3.267  13.218  22.535 -0.0117  0.1485  0.2589
25134W        W68047  32.279  23.289  21.069  0.0951 -0.2939 -0.1854
25135W        W68048  11.957  15.052  17.357 -0.0233 -0.1306  0.1295
25136W        W68049   0.589   6.390  21.203 -0.0272  0.1615  0.1290
25137W        W68050   5.416   9.728  27.216 -0.1612 -0.1453  0.2647
25138W        W68051   7.764   2.782  23.282 -0.0881  0.1604 -0.2483
25139W        W68052  33.658   1.909  21.678  0.0902 -0.2285 -0.0684
25140W        W68053   5.841   2.309  18.544  0.1564 -0.0623  0.3113
25141W        W68054   1.997  11.009  21.850 -0.0888 -0.0461 -0.0076
25142W        W68055  12.350   8.986  26.176  0.1477 -0.1058  0.0012
25143W        W68056   6.572   7.738  25.823 -0.1432 -0.1275  0.1201
25144W        W68057   2.193  12.167  26.230 -0.0121 -0.4215  0.1997
25145W        W68058   7.814  22.745  26.041 -0.2821 -0.1254 -0.1338
25146W        W68059  11.929  15.850  25.706 -0.0655 -0.0153  0.2625
25147W        W68060   7.710  19.355  16.998 -0.1202 -0.0588 -0.1386
25148W        W68061  29.552  17.708  21.298 -0.0974 -0.2460 -0.1134
25149W        W68062  32.829   9.571  17.288  0.0767 -0.2547 -0.0943
25150W        W68063  30.230  12.762  17.759 -0.0987  0.0560 -0.1248
25151W        W68064  10.305  14.918  27.027  0.1166 -0.2616 -0.1614
25152W        W68065  11.386  18.541  26.355  0.0973 -0.1719  0.1264
25153W        W68066   7.042  17.193  26.900 -0.0728 -0.0823 -0.0068
25154W        W68067  30.372  17.163  20.382  0.1463 -0.0774  0.1205
25155W        W68068  33.514  19.129  21.144  0.2066 -0.1460  0.0669
25156W        W68069   9.896  17.720  20.904 -0.0876 -0.2772 -0.2401
25157W        W68070   0.237   4.806  20.345 -0.3237 -0.0073  0.1315
25158W        W68071  29.011  12.210  16.463  0.2029  0.3731 -0.3026
25159W        W68072  14.000   5.163  28.485  0.3300 -0.0940  0.0154
25160W        W68073   5.644  19.315  17.120  0.0216 -0.2718 -0.1839
25161W        W68074  27.974  32.580  15.007  0.0290  0.0080 -0.0242
25162W        W68075  33.945   6.878  26.675  0.1994 -0.6504  0.0706
25163W        W68076  31.058  13.107  27.207  0.2300  0.2158  0.1958
25164W        W68077   6.708  15.875  16.612 -0.0116  0.1711  0.3196
25165W        W68078  20.420   9.759  20.108 -0.0396  0.1717  0.2918
25166W        W68079   6.486  22.673  25.962  0.3342 -0.3604  0.2442
25167W        W68080   7.938  25.865  16.025  0.0448  0.0677  0.0509
25168W        W68081   2.961  10.734  15.407  0.0820 -0.2632  0.0234
25169W        W68082  31.402   1.349  17.039 -0.0307  0.1780  0.1724
25170W        W68083   2.764  12.620  18.118  0.4468 -0.1251  0.1271
25171W        W68084  11.172  32.107  27.484  0.1048  0.0210  0.1315
25172W        W68085   0.271  12.644  28.786  0.0499 -0.0309 -0.1022
25173W        W68086  12.255  12.644   1.866  0.0421 -0.2520  0.4276
25174W        W68087  15.138  10.605  20.533  0.1677  0.1473 -0.1324
25175W        W68088   5.718   4.583  18.646  0.1816  0.3093  0.2397
25176W        W68089   6.254  17.501  22.580  0.3721  0.3096 -0.0551
25177W        W68090   3.731  30.247  26.528  0.3788 -0.0918 -0.3511
25178W        W68091   3.172  15.192  16.154  0.2799  0.2350  0.0472
25179W        W68092   9.644   5.242  18.647 -0.0566  0.1013 -0.0927
25180W        W68093   2.515  15.216  14.722 -0.0488  0.1081 -0.1235
25181W        W68094   7.152  17.786  19.537 -0.1489  0.1759  0.1745
25182W        W68095  32.157  15.948  14.302 -0.2542  0.1561  0.2366
25183W        W68096  14.952  15.404  25.506  0.3323  0.1804  0.0227
25184W        W68097  10.353  12.251  23.078 -0.0005  0.1487  0.2597
25185W        W68098  12.746   4.015  24.936  0.0031  0.1565 -0.0526
25186W        W68099   9.012  12.432  25.949 -0.0656  0.2208  0.1187
25187W        W68100   0.796  16.676  19.966 -0.0879  0.0814  0.3816
25188W        W68101  28.366  10.181  17.058 -0.0024  0.0460  0.0416
25189W        W68102   1.962  18.704  22.992  0.0844 -0.1290  0.0241
25190W        W68103   7.530  16.192  19.765  0.1409 -0.1644  0.2770
25191W        W68104   1.191   1.877  25.812  0.1552  0.2213  0.2823
25192W        W68105   0.707  18.396  15.754 -0.2790  0.0069  0.0442
25193W        W68106   9.140   6.298  19.449  0.2068  0.2245 -0.0628
25194W        W68107   4.740  18.905  17.955  0.0232  0.1755 -0.1793
25195W        W68108  30.784  30.503  20.211  0.4115 -0.0729  0.0511
25196W        W68109   2.266  12.448  15.320  0.1246  0.2344  0.3645
25197W        W68110   2.405  14.504  23.259 -0.0428 -0.0007  0.0439
25198W        W68111   5.099  17.211  14.146 -0.3506 -0.0651  0.0257
25199W        W68112   5.050  21.846  22.080  0.0538  0.1099  0.2247
25200W        W68113   7.595   9.905  18.618 -0.3156 -0.0414  0.2616
25201W        W68114   0.441  19.073  17.339 -0.2666 -0.0609 -0.0402
25202W        W68115   3.745  14.108  17.231 -0.1314  0.2953 -0.0429
25203W        W68116   4.535  19.097  26.972  0.0486 -0.0086 -0.3277
25204W        W68117   5.932   8.833  16.772 -0.3990 -0.1182  0.3426
25205W        W68118   7.860  21.730  25.861 -0.3361 -0.1885  0.0334
25206W        W68119  14.860   6.886  15.614  0.2035 -0.2516 -0.4116
25207W        W68120  12.427  16.229  23.437  0.0960  0.3451 -0.0680
25208W        W68121  31.896  19.739  14.268  0.0532  0.3673 -0.0671
25209W        W68122   9.702  16.043  16.659  0.0351  0.3292  0.0892
25210W        W68123   4.157  13.606  17.954 -0.3046  0.1979  0.1675
25211W        W68124   4.783  21.263  18.009  0.0561  0.0486  0.0716
25212W        W68125  14.115  22.393  23.597 -0.0898 -0.0657 -0.2032
25213W        W68126  13.640  12.638   3.812  0.1021 -0.0656 -0.1168
25214W        W68127   9.463  13.225  26.683 -0.1481 -0.2418  0.0758
25215W        W68128   7.991  11.296  17.429 -0.2045 -0.1231 -0.4299
25216W        W68129   1.045   3.177  16.255 -0.0390  0.1057  0.0994
25217W        W68130  30.314  27.581  21.323  0.0860 -0.0022  0.0252
25218W        W68131   9.579   4.604  17.687 -0.1272  0.1193 -0.3477
25219W        W68132   8.652  26.636  21.100 -0.2211 -0.0056  0.1432
25220W        W68133   9.814  13.264  18.380  0.0647  0.0351  0.1230
25221W        W68134   7.505  12.065  20.532 -0.0610  0.1649 -0.0664
25222W        W68135  11.887   8.497  21.388  0.5406 -0.0325 -0.0996
25223W        W68136   8.498  22.089  26.937 -0.1354 -0.1120 -0.0182
25224W        W68137  33.140   5.731  15.887  0.2722 -0.0314 -0.1461
25225W        W68138   1.333   7.872  26.054 -0.1258 -0.4186  0.1457
25226W        W68139   2.192  17.763  18.153  0.0490 -0.0703 -0.0906
25227W        W68140   3.330  15.610  18.217  0.1174 -0.2017  0.1995
25228W        W68141  13.476   7.874  19.297  0.0100  0.0509 -0.0777
25229W        W68142  13.923   8.044  17.262 -0.3932 -0.0555  0.1600
25230W        W68143   1.275  20.422  16.172 -0.0445 -0.0765 -0.0714
25231W        W68144   5.850  10.096  17.643  0.0976 -0.0795 -0.0252
25232W        W68145  19.025  25.548  19.030  0.0420 -0.1841 -0.0894
25233W        W68146   3.267  16.531  23.600  0.0242 -0.2569  0.0642
25234W        W68147  34.206   8.893  26.561  0.1558 -0.1942  0.0031
25235W        W68148   2.115  16.922  14.144  0.0166 -0.3885 -0.6217
25236W        W68149  26.563  17.583  20.281  0.1304 -0.0071 -0.5125
25237W        W68150   8.410  22.744  14.723 -0.4399  0.3884 -0.2696
25238W        W68151   9.971   7.773  17.919 -0.2220  0.2004 -0.0119
25239W        W68152   8.967  18.622  17.684 -0.2970  0.0997  0.0577
25240W        W68153  27.809   8.587  19.314  0.0732  0.0001  0.0613
25241W        W68154  12.238  12.002  15.239 -0.1493 -0.0399 -0.0624
25242W        W68155   6.139  23.258  23.101  0.2232 -0.1599 -0.1145
25243W        W68156  29.223  17.429  18.020 -0.2207  0.0502 -0.0177
25244W        W68157   6.028  22.318  17.097  0.0562  0.0899  0.0383
25245W        W68158  33.476  20.163  14.616 -0.1304  0.1565  0.2016
25246W        W68159  30.557  17.440  14.432  0.1461  0.1453 -0.0713
25247W        W68160   7.373  22.979  26.198 -0.0013 -0.0196  0.2140
25248W        W68161   4.999  13.936  22.435  0.1035 -0.2543 -0.0812
25249W        W68162  12.850   7.459  18.189  0.2470  0.2091 -0.0253
25250W        W68163  33.221  18.482  17.716 -0.1708 -0.1380 -0.0400
25251W        W68164   4.853  21.572   7.629  0.0980 -0.0436 -0.2035
25252W        W68165   8.917  19.272  23.367 -0.2087  0.2680 -0.2569
25253W        W68166   8.818   3.388  27.336 -0.0162  0.0927  0.2122
25254W        W68167   5.553  12.737  16.058 -0.1993  0.2231 -0.3127
25255W        W68168   4.812  12.600  20.646  0.1180 -0.0993  0.0946
25256W        W68169   3.699  13.478  22.347  0.1122  0.2425 -0.1744
25257W        W68170  33.746   2.912  25.697 -0.3164 -0.2246  0.1642
25258W        W68171   2.460  14.993  14.312 -0.0659 -0.4506  0.1522
25259W        W68172  16.908   5.492  23.652 -0.0524  0.2683  0.0710
25260W        W68173   3.692   9.158  23.636 -0.0119  0.0171 -0.2127
25261W        W68174   2.601  24.041   0.298  0.0323  0.2268 -0.1450
25262W        W68175   9.708  19.910  15.817 -0.0931 -0.1542  0.0869
25263W        W68176  33.713  18.287   0.229 -0.0258  0.0359  0.1751
25264W        W68177   5.105  12.984  18.674 -0.0910 -0.2293  0.1495
25265W        W68178  16.854   3.737  16.434 -0.1690 -0.1277  0.0977
25266W        W68179  33.581  12.777  20.028 -0.0053 -0.0919  0.2623
25267W        W68180  11.468  20.167  23.109 -0.0614 -0.4069  0.3000
25268W        W68181  10.478  13.199  21.386  0.2387 -0.0596  0.1948
25269W        W68182   9.737   7.964  28.267 -0.1951 -0.0636 -0.0864
25270W        W68183   2.835  13.375  22.255  0.2631 -0.0657  0.1110
25271W        W68184   5.183  27.983  15.223 -0.0406  0.0526  0.0982
25272W        W68185   6.526   1.740  21.987  0.1215 -0.0878  0.0785
25273W        W68186   1.106  17.163  19.886  0.0045 -0.1203 -0.3797
25274W        W68187  34.252   5.395  18.193  0.1010 -0.1202  0.1263
25275W        W68188   1.529  14.184   4.671 -0.0011  0.0679  0.0174
25276W        W68189  13.568  13.116  19.237  0.1527  0.2426  0.0771
25277W        W68190   0.949  16.433  23.686 -0.1904 -0.1193  0.1161
25278W        W68191   1.025  32.841  26.017  0.1584  0.1477 -0.1810
25279W        W68192  13.764  13.601  16.333  0.0207 -0.0409 -0.5229
25280W        W68193   1.922  11.244  15.017  0.1894 -0.0643  0.4464
25281W        W68194  15.280  10.212  28.205 -0.2705 -0.0778  0.0187
25282W        W68195   8.338   6.437  18.908  0.0375 -0.0332  0.1967
25283W        W68196   0.582  11.291  17.232 -0.0246  0.2821 -0.0435
25284W        W68197   4.096  11.477  16.778  0.0567 -0.1146  0.3735
25285W        W68198   2.918  12.550  21.050  0.0692 -0.0090  0.0766
25286W        W68199  27.121  14.557  18.732  0.0193 -0.0197  0.0146
25287W        W68200   1.667  19.795  22.118  0.0400 -0.0587 -0.0794
25288W        W68201   4.816   9.913  16.636  0.0249 -0.2140 -0.1446
25289W        W68202  10.305  16.607  17.507 -0.0976 -0.3064 -0.1438
25290W        W68203  33.457  22.326  17.159  0.0731  0.0666 -0.1078
25291W        W68204  11.319   4.562  19.639  0.0276  0.0107 -0.2308
25292W        W68205  33.502  11.886  18.606 -0.1590 -0.3105 -0.1324
25293W        W68206   2.907  15.965  17.042  0.1725 -0.1818  0.2048
25294W        W68207   8.457  15.288  22.371 -0.1543  0.1370 -0.1830
25295W        W68208   5.086  31.089  23.101  0.0017  0.1068 -0.1621
25296W        W68209   2.804   8.713  27.808  0.0772 -0.0849 -0.2083
25297W        W68210   0.911  18.290  18.815  0.0951 -0.1104  0.0652
25298W        W68211   8.022  20.041  20.417 -0.0324  0.3104  0.0652
25299W        W68212   7.566  17.489  24.871 -0.1799 -0.0979 -0.1951
25300W        W68213   6.429  20.292  22.618 -0.0737  0.1606 -0.1866
25301W        W68214  10.500   4.996  22.603  0.1887 -0.1116 -0.0065
25302W        W68215   5.607  15.274   3.614  0.0006  0.0870 -0.1340
25303W        W68216  28.046   7.465  16.932 -0.1572  0.0426 -0.0378
25304W        W68217   7.985   4.967  26.051 -0.2982  0.1601 -0.0353
25305W        W68218   9.588  12.522  24.539 -0.0245  0.1810  0.0519
25306W        W68219   1.706  12.967  25.304 -0.1379 -0.1189 -0.0181
25307W        W68220   0.932  12.819  14.891 -0.0501  0.4425  0.0233
25308W        W68221   5.423  24.551  17.268  0.0771 -0.1496  0.3367
25309W        W68222   7.345   4.709  24.866 -0.0249 -0.0291  0.0468
25310W        W68223   6.091   8.226  17.201  0.4907  0.3635 -0.1985
25311W        W68224  11.988   9.988  26.098 -0.2359 -0.2746 -0.0575
25312W        W68225   8.686   8.972  19.399  0.1636  0.1763  0.0115
25313W        W68226   1.101  12.769  16.414 -0.0635 -0.0915  0.2007
25314W        W68227   5.109   9.991  17.047 -0.2175  0.0349  0.0567
25315W        W68228  12.491  28.615  26.788  0.1319  0.1256  0.1653
25316W        W68229   3.231   7.828  22.694  0.1373 -0.3202 -0.0847
25317W        W68230  30.130  20.822   0.242  0.3140 -0.2179  0.0410
25318W        W68231  29.244  20.702  20.603 -0.0560 -0.0456 -0.0860
25319W        W68232  10.469   9.101  22.980 -0.1197 -0.1649 -0.0114
25320W        W68233   3.188   1.195  26.571  0.1487  0.0625  0.0276
25321W        W68234  33.326  26.323  15.867  0.1110 -0.1150 -0.1036
25322W        W68235  11.387  14.987  16.096 -0.2361 -0.1365  0.0110
25323W        W68236  31.442   7.108  24.690  0.0546  0.0073  0.1155
25324W        W68237   9.351  14.002  13.898 -0.0783  0.0794  0.0030
25325W        W68238  34.240  15.524  20.987 -0.0081 -0.1012 -0.2482
25326W        W68239  16.441   6.546  17.357 -0.3935 -0.1119  0.0299
25327W        W68240   1.801  10.176  24.259  0.0701 -0.2426 -0.1322
25328W        W68241  10.354  19.239  15.763 -0.1353  0.2885 -0.1781
25329W        W68242   6.532   9.738  16.958  0.2310  0.2718  0.2246
25330W        W68243   2.524  21.072   3.470  0.1644  0.0008 -0.0276
25331W        W68244  34.248  21.317  25.564 -0.0209 -0.0396 -0.3023
25332W        W68245  33.671  19.586  22.682  0.0364 -0.3455  0.2926
25333W        W68246   8.318   7.840  27.474  0.1966 -0.0937 -0.0369
25334W        W68247  23.399   5.288  15.441  0.1655  0.0862  0.0797
25335W        W68248   3.585  19.158  24.711  0.1593 -0.0429  0.0490
25336W        W68249   8.093  12.197  20.917  0.1196 -0.0187  0.3326
25337W        W68250  15.603  12.516  17.785  0.0919  0.2103  0.0651
25338W        W68251   3.016   7.071  24.150 -0.2130 -0.1345 -0.1617
25339W        W68252  28.091  14.956  17.472 -0.1872  0.1617  0.2091
25340W        W68253   6.399  15.536  14.960 -0.2419 -0.0146 -0.1454
25341W        W68254   9.249  33.599  23.430  0.2041 -0.3303  0.1303
25342W        W68255  11.767  10.015  21.850  0.1944 -0.0358 -0.3754
25343W        W68256  28.617  14.663  26.342  0.1952  0.0575  0.1130
25344W        W68257  32.847  17.059  25.763  0.0401  0.0793 -0.1342
25345W        W68258   7.715  10.217   0.265 -0.1671 -0.1342  0.2568
25346W        W68259  34.434  25.610  23.137  0.1459 -0.2813 -0.1137
25347W        W68260  11.565  30.872  19.603 -0.0635  0.1749 -0.0167
25348W        W68261   9.200   3.668  24.444  0.0462  0.2677 -0.1697
25349W        W68262  17.419   8.789  15.793 -0.3324  0.2770 -0.1681
25350W        W68263   2.744   7.886  16.997 -0.1420 -0.0287 -0.1210
25351W        W68264   1.925  15.774  18.054 -0.0397 -0.3282 -0.0826
25352W        W68265   3.404  19.378  15.674  0.1942 -0.1240 -0.0294
25353W        W68266   5.585  19.074  14.365 -0.5229 -0.0706 -0.0349
25354W        W68267  33.445  13.412  21.519  0.3218 -0.0620 -0.1162
25355W        W68268   5.946  12.856  20.808 -0.0047 -0.1681  0.2102
25356W        W68269   8.569  14.245  20.612 -0.1409 -0.0581 -0.2806
25357W        W68270   0.863  16.690  19.427 -0.1321  0.0001  0.0614
25358W        W68271   1.659   9.567  29.427 -0.2458 -0.0796 -0.0045
25359W        W68272   5.692  15.190  25.722  0.3004  0.1288 -0.0727
25360W        W68273   5.712  19.857  29.049  0.0466  0.0346  0.1958
25361W        W68274   1.071  19.550  29.078  0.2602  0.2461 -0.2687
25362W        W68275  33.274   6.333  22.671  0.1199  0.1088  0.0951
25363W        W68276   9.221  15.924  15.749 -0.3979 -0.0205 -0.1954
25364W        W68277  33.798  12.305  26.741 -0.1235 -0.4549  0.0754
25365W        W68278   2.259  20.459  17.345 -0.1101 -0.4015 -0.2703
25366W        W68279   6.712   4.110  17.867 -0.0535 -0.0866  0.0891
25367W        W68280  12.257  12.588   0.391  0.0036  0.1320 -0.1721
25368W        W68281  30.017  20.701  17.285 -0.3257 -0.1676  0.4416
25369W        W68282  30.659  10.899  23.081 -0.4065 -0.1423  0.0701
25370W        W68283   1.027   3.416  20.604  0.1154 -0.0341 -0.1487
25371W        W68284  33.545  10.744  28.189 -0.3336 -0.1294 -0.0461
25372W        W68285  19.244  13.674  24.995 -0.0764 -0.0358 -0.1427
25373W        W68286  34.177  11.769  19.347  0.1279  0.1406  0.1087
25374W        W68287   4.684  11.532  15.264 -0.1119 -0.2166  0.1700
25375W        W68288   3.959  10.504  17.537  0.1264 -0.0874 -0.0606
25376W        W68289   7.440  12.399  19.103 -0.2821  0.0820 -0.0347
25377W        W68290  16.455  14.141  13.540  0.0705 -0.0673 -0.3678
25378W        W68291  13.417   3.470  23.339 -0.0172  0.0870 -0.0118
25379W        W68292  34.064  24.821  22.113 -0.0721 -0.0292  0.1912
25380W        W68293  29.507   7.958  22.373 -0.1450 -0.2313 -0.1168
25381W        W68294  15.026  14.301  19.317 -0.2832 -0.0662  0.0468
25382W        W68295   1.250   8.317  21.237 -0.0697  0.0699 -0.3301
25383W        W68296   6.913  11.685  15.878 -0.0657  0.1702  0.0338
25384W        W68297   3.071   9.978  19.608 -0.0323 -0.2673 -0.0930
25385W        W68298   5.885  12.280  19.017  0.0322  0.1435 -0.1819
25386W        W68299   5.593  13.574  23.835  0.1691  0.1545 -0.0174
25387W        W68300  33.049   6.039  19.418 -0.0299  0.0037  0.2064
25388W        W68301   9.158  12.520  17.886  0.2551 -0.0577 -0.1216
25389W        W68302   2.298   4.841  25.387  0.1566  0.0391 -0.2184
25390W        W68303   8.737  12.272  22.507 -0.1949  0.1596 -0.0494
25391W        W68304   3.883  17.305  25.963  0.1146  0.2732 -0.3529
25392W        W68305   7.331  11.715  16.779 -0.0183 -0.1076 -0.0940
25393W        W68306  11.046  15.555  19.544 -0.0020  0.0275 -0.1497
25394W        W68307  32.355  21.347  29.533  0.1904  0.0417  0.4446
25395W        W68308   3.495  14.409  21.086 -0.1528  0.1649 -0.1459
25396W        W68309   1.085   9.418  16.780 -0.0157  0.1073 -0.1655
25397W        W68310  29.219  12.963  14.754  0.0211 -0.0598 -0.2713
25398W        W68311   7.162  23.239  17.078  0.0907 -0.0295 -0.0872
25399W        W68312   5.245   5.385  18.324  0.1333 -0.0181  0.2130
25400W        W68313  11.266  16.134  23.678 -0.1088 -0.0644  0.1328
25401W        W68314   8.199  10.989  23.557  0.1977  0.2149  0.1554
25402W        W68315   6.018  10.025  23.956 -0.2680 -0.1819 -0.2553
25403W        W68316  13.890   8.222  21.687  0.3778 -0.2245 -0.1663
25404W        W68317   2.935  18.642  18.199 -0.1882  0.0612  0.2424
25405W        W68318  34.249  21.267  15.857  0.3737  0.3756  0.1736
25406W        W68319  16.099   5.047  25.947  0.1758 -0.0328 -0.0461
25407W        W68320  10.328  13.092  16.685 -0.0330  0.1567 -0.1235
25408W        W68321  31.794   8.903  19.358  0.0563  0.1842 -0.0347
25409W        W68322   8.223  15.657  25.300  0.0391  0.1766 -0.1306
25410W        W68323   2.364   2.115  21.850  0.1611  0.2775  0.2309
25411W        W68324  10.837   6.065  21.496 -0.0666 -0.0099 -0.1318
25412W        W68325  25.633   5.999  25.980  0.0273 -0.2626  0.1551
25413W        W68326  12.271   1.231   3.533 -0.4183  0.1075  0.2476
25414W        W68327  10.179  10.772  15.530 -0.1022  0.0905  0.0764
25415W        W68328   0.214  10.562  18.880 -0.0419  0.1149  0.1191
25416W        W68329   3.289  10.536  23.973 -0.4494 -0.0169 -0.1235
25417W        W68330  30.283   5.061  22.155 -0.1867  0.1303 -0.1566
25418W        W68331   3.597  32.618   1.346 -0.3784  0.1128 -0.1960
25419W        W68332  12.863   6.724  26.005  0.0653 -0.0891 -0.0107
25420W        W68333   0.310  18.913  18.520 -0.1040 -0.1193 -0.0321
25421W        W68334  27.318   0.266  19.193 -0.2306 -0.3950  0.0481
25422W        W68335   0.769   9.526  25.043  0.0852  0.1862 -0.1992
25423W        W68336  14.893   7.007  21.983  0.1788  0.1737  0.3887
25424W        W68337  33.230   9.556  24.049 -0.3798 -0.0922  0.1952
25425W        W68338  12.636   6.155  15.825  0.1977  0.0593  0.5084
25426W        W68339  11.506  15.803  13.940  0.0281  0.1084 -0.0152
25427W        W68340  10.099  18.921  26.697 -0.1580 -0.0030 -0.0711
25428W        W68341  29.493  24.924  15.221 -0.0233  0.0521 -0.1799
25429W        W68342  27.573   1.175  25.478  0.0126  0.2077  0.0749
25430W        W68343  34.201  19.324  13.903 -0.1389 -0.0697  0.4331
25431W        W68344  10.144   7.579  21.800 -0.3893  0.0874  0.1633
25432W        W68345   3.382  12.078   2.593 -0.2928  0.3097  0.0636
25433W        W68346  27.735   2.299  20.805  0.3524 -0.4306  0.0862
25434W        W68347   8.926  14.479  17.852 -0.0763 -0.0096 -0.0530
25435W        W68348  32.626  10.320  18.021  0.0990 -0.3042  0.1303
25436W        W68349   4.873  17.709  26.935  0.3725 -0.0151 -0.0547
25437W        W68350   4.516  18.238  21.842  0.1307 -0.1700 -0.0248
25438W        W68351   7.713  10.203  17.231  0.0290 -0.0338 -0.1298
25439W        W68352   3.958  11.765  19.414 -0.0849 -0.1513 -0.0260
25440W        W68353   6.151  12.138  15.837 -0.1375  0.1048 -0.0590
25441W        W68354   3.064  17.325  24.942  0.0880  0.0973 -0.3633
25442W        W68355  17.205  15.794  27.141 -0.1681  0.1736 -0.0836
25443W        W68356  13.648  14.191  21.150  0.0908  0.1011  0.2051
25444W        W68357   6.845  12.353  24.265 -0.1025  0.1683 -0.0320
25445W        W68358   9.158  23.056  22.174  0.1556 -0.0265 -0.1051
25446W        W68359   9.208  12.650  21.635  0.0419  0.0533  0.0047
25447W        W68360  11.500  32.733  19.976  0.2105 -0.1207 -0.2248
25448W        W68361   9.413   8.519   4.434 -0.0495 -0.1783 -0.0868
25449W        W68362  10.698  11.870  18.563 -0.1986 -0.0408 -0.0524
25450W        W68363   4.097  12.483   5.799  0.1350  0.1532  0.1300
25451W        W68364   0.927   8.041  21.525 -0.0810  0.1074  0.0746
25452W        W68365  15.252   5.166  18.059 -0.2429  0.0018 -0.0931
25453W        W68366  15.965  14.867  26.636 -0.2419  0.1306  0.2031
25454W        W68367   4.544   8.156  23.971  0.1392 -0.1767  0.2307
25455W        W68368  13.451  21.879  17.538  0.1012 -0.2021  0.1696
25456W        W68369  33.384  14.998  16.094  0.4103 -0.1694  0.0603
25457W        W68370   4.347  13.195  17.258 -0.1736  0.3453  0.0949
25458W        W68371  28.485  12.105  13.982 -0.3447 -0.0093  0.4170
25459W        W68372   8.309  14.394  16.561 -0.0860  0.1840  0.2393
25460W        W68373  12.234  12.438  27.148  0.0403 -0.1497  0.0523
25461W        W68374   5.351   7.632  18.568  0.1101 -0.3831  0.3171
25462W        W68375   3.354  11.531  20.671  0.0824 -0.0668 -0.0860
25463W        W68376  31.036  16.957  14.910 -0.0321  0.4275  0.1339
25464W        W68377  28.099   6.446  27.399 -0.0037  0.1047  0.0365
25465W        W68378   6.888  15.081  16.931 -0.3654  0.2004 -0.2714
25466W        W68379   0.176  12.467  14.139  0.3255 -0.0720  0.1426
25467W        W68380  11.246   4.589   1.356 -0.2117 -0.3348 -0.0647
25468W        W68381   8.706  15.089  23.949 -0.2911  0.2120  0.0725
25469W        W68382   9.683  19.247  22.196  0.2197  0.1547  0.2800
25470W        W68383   5.884  15.907  17.624 -0.1300 -0.2523  0.0689
25471W        W68384   6.917   2.984  27.691  0.0648  0.0048  0.0406
25472W        W68385   5.202   7.847  19.853  0.0006 -0.1287 -0.1995
25473W        W68386  31.010   7.324  22.572  0.0504  0.4149 -0.2538
25474W        W68387  11.225   4.306  27.692  0.2382 -0.2201 -0.0040
25475W        W68388   4.417   4.901  25.893 -0.0545  0.0647 -0.0341
25476W        W68389  11.817  10.451  22.221  0.0754  0.2741  0.1832
25477W        W68390   3.998   8.254  19.239 -0.1851 -0.3347  0.1075
25478W        W68391  34.042  12.022  15.797 -0.2546  0.5650 -0.0823
25479W        W68392  10.647   9.879  24.470  0.1643  0.1617  0.0920
25480W        W68393   4.421   9.886  21.969 -0.0994 -0.2647  0.2395
25481W        W68394   7.328  13.699  24.992  0.1765  0.0702 -0.0554
25482W        W68395  10.058  13.659  21.969 -0.0116 -0.2000  0.1952
25483W        W68396   1.618   6.438  18.695 -0.1104 -0.0904  0.0902
25484W        W68397  13.134  11.284  14.252  0.0539 -0.0708  0.1275
25485W        W68398   7.208   5.287  22.207  0.5083 -0.0235  0.0293
25486W        W68399  15.720   6.674  24.510  0.1993 -0.0165 -0.2278
25487W        W68400  31.058  27.102  19.177 -0.1346 -0.3097 -0.1818
25488W        W68401   9.717   6.943   6.145  0.2554  0.2158  0.2639
25489W        W68402   3.292   6.241  25.356 -0.2111  0.0819 -0.1359
25490W        W68403   4.205  20.046  29.424 -0.2512  0.1278 -0.1776
25491W        W68404   7.203  11.756  23.092 -0.0245  0.0560 -0.3642
25492W        W68405  14.072  12.422  22.837  0.0385 -0.1500 -0.1102
25493W        W68406   6.005   8.956  23.541 -0.0499 -0.1687  0.0903
25494W        W68407  10.420  16.456  15.454 -0.1149  0.3334  0.1822
25495W        W68408  13.822   9.309  15.966 -0.1717  0.2677  0.2889
25496W        W68409   4.146  13.970  20.328  0.1077 -0.1854 -0.2693
25497W        W68410   7.255   5.671  20.119 -0.0511 -0.1295 -0.0470
25498W        W68411  12.984  13.653  17.500 -0.0049  0.1758  0.3160
25499W        W68412   2.044  15.225  21.444  0.0362 -0.0487 -0.2334
25500W        W68413   1.370  12.106  15.163 -0.2810  0.0480 -0.1122
25501W        W68414   2.082  16.241   0.772 -0.0531 -0.0597  0.0652
25502W        W68415   3.378  12.493  19.179 -0.1466  0.0179 -0.0033
25503W        W68416  14.106   7.610  20.453  0.5693  0.1812 -0.0649
25504W        W68417  10.151  15.263  29.624 -0.1346  0.3512  0.2138
25505W        W68418   5.760  14.419   0.185 -0.0223  0.3425  0.1042
25506W        W68419  12.998  23.980  23.045  0.0651  0.1478  0.3013
25507W        W68420  33.674  16.891  24.182  0.0268 -0.0036  0.3777
25508W        W68421   3.903  14.074  16.684  0.0411  0.3404  0.0550
25509W        W68422   1.942  23.039  28.201 -0.2154 -0.2837 -0.4131
25510W        W68423  23.179  10.786  23.208 -0.1820  0.0746  0.2221
25511W        W68424  15.388   7.964  19.931 -0.0590  0.0756  0.1182
25512W        W68425  11.099   4.401  18.675  0.0941 -0.2349 -0.3352
25513W        W68426   4.913  14.661  20.007  0.2354 -0.1644  0.3433
25514W        W68427  32.169  11.657  21.034 -0.1266 -0.2132 -0.0917
25515W        W68428  32.009   0.028  25.697 -0.0054 -0.2058 -0.1006
25516W        W68429  13.300  13.426   3.213  0.1397 -0.1672 -0.1080
25517W        W68430   8.622  18.532  17.280 -0.0287  0.1434 -0.0248
25518W        W68431  21.528  19.510  16.069 -0.3254  0.0070 -0.0436
25519W        W68432  32.932   9.728  14.611  0.1683  0.2895  0.2061
25520W        W68433   9.807  14.218  21.758  0.0131 -0.1127  0.1504
25521W        W68434  18.565   0.124  17.389  0.0245 -0.3474  0.0573
25522W        W68435  31.238  20.919  25.723  0.0933  0.1219 -0.2242
25523W        W68436  12.274  16.132  25.092  0.2011 -0.1809 -0.2127
25524W        W68437  26.597  11.626  22.479 -0.2014 -0.2170 -0.0446
25525W        W68438   8.572  20.270   2.332 -0.1259 -0.2903 -0.1438
25526W        W68439  15.744  20.488  15.041 -0.0812  0.0019 -0.1736
25527W        W68440  32.784   8.039  27.617  0.1374 -0.0004  0.1002
25528W        W68441  33.447  11.738  23.749  0.0578  0.0756 -0.0650
25529W        W68442   4.481  27.372   2.293 -0.2399 -0.1600  0.1419
25530W        W68443   6.672   1.287  23.616 -0.0745  0.1639  0.1310
25531W        W68444   8.434  13.124   3.085  0.1797 -0.1127  0.0367
25532W        W68445  30.677  10.948  20.687 -0.1068 -0.2138  0.3519
25533W        W68446  32.984   5.516  27.568 -0.0210  0.1147  0.2125
25534W        W68447   1.465   4.029  20.149 -0.0047  0.0425  0.0324
25535W        W68448  16.976  10.466  22.445 -0.0885 -0.2501  0.3012
25536W        W68449  34.122   6.892   0.450  0.0573  0.1599 -0.1186
25537W        W68450   2.024   4.371  22.097 -0.0747 -0.0207 -0.0459
25538W        W68451   9.922   7.463  20.518  0.3374 -0.2263 -0.0483
25539W        W68452  11.994   9.652  24.717  0.2445 -0.0873 -0.2490
25540W        W68453   1.524  18.991  29.486 -0.2273 -0.0758 -0.1546
25541W        W68454  11.166  14.958  23.614 -0.1192 -0.0222 -0.0136
25542W        W68455  33.180  20.902  17.713 -0.0651  0.2708  0.0743
25543W        W68456  11.635  17.941  23.399 -0.1325 -0.1904  0.2268
25544W        W68457  30.721   9.407  16.338  0.0483 -0.1751 -0.1976
25545W        W68458  31.108   0.137  20.904  0.0701 -0.0473 -0.2047
25546W        W68459  20.001   8.180  19.774 -0.0470  0.1831  0.0166
25547W        W68460  15.248  12.763  13.180  0.1142  0.3786 -0.0732
25548W        W68461   1.612   9.955  20.646 -0.1246  0.0930  0.1487
25549W        W68462  23.392  20.578  20.661 -0.1977  0.1192  0.0672
25550W        W68463   4.652  10.872  20.237  0.1255 -0.1025  0.1392
25551W        W68464   5.964  10.403  20.946 -0.2565 -0.0173 -0.1027
25552W        W68465   2.691  12.485  18.945 -0.2273 -0.2910 -0.0523
25553W        W68466   0.057  20.784  15.134 -0.0184 -0.0671  0.1155
25554W        W68467  33.577  32.581  19.320 -0.3012  0.2208 -0.1559
25555W        W68468  11.267   7.952  26.479 -0.0710  0.1884 -0.1752
25556W        W68469  11.677   8.553  17.623  0.3746  0.0487  0.0525
25557W        W68470  33.322  20.932  23.800  0.0134 -0.2812 -0.1675
25558W        W68471   4.604  21.381  15.129  0.1400 -0.2550 -0.0880
25559W        W68472  34.181   9.633  19.536 -0.0469 -0.0065  0.4505
25560W        W68473  13.997  29.576  27.540  0.2648 -0.1440 -0.2141
25561W        W68474   2.465  20.868  17.023 -0.1009  0.0399 -0.0115
25562W        W68475   0.526  12.426  20.146 -0.1212 -0.0065 -0.0245
25563W        W68476   1.692  22.553  23.056 -0.1110  0.0556 -0.1562
25564W        W68477  33.152  19.190  19.031 -0.0350 -0.0977  0.0347
25565W        W68478   6.861  18.138  17.653 -0.0265 -0.0366  0.0955
25566W        W68479  17.569  27.070  16.880 -0.0210 -0.1488  0.0033
25567W        W68480   6.952  13.561  20.310 -0.1328 -0.0211  0.3750
25568W        W68481   7.526  16.915  15.688  0.0435  0.3134  0.1612
25569W        W68482   0.775  12.010  18.576 -0.0977  0.0108 -0.3526
25570W        W68483   6.550   4.854  20.366  0.0911 -0.0537  0.0469
25571W        W68484  10.696   5.876  23.862  0.0976 -0.2335 -0.0374
25572W        W68485  11.044   0.356  23.439 -0.1050  0.0272  0.1025
25573W        W68486  13.566  29.651  22.526 -0.2087  0.3051 -0.0060
25574W        W68487  30.974  11.375  20.911 -0.0341 -0.1560  0.0422
25575W        W68488   2.120  14.650  17.071 -0.0783 -0.1034 -0.0889
25576W        W68489   1.982  25.582  26.848  0.2057  0.0284  0.2960
25577W        W68490   9.233   6.156  18.668 -0.0698 -0.2676  0.0211
25578W        W68491  10.504  14.845  27.487 -0.3307 -0.1102  0.1483
25579W        W68492   8.335  21.857  21.745 -0.0092 -0.1535  0.1944
25580W        W68493   9.562  16.069  19.721 -0.0752  0.2782  0.2771
25581W        W68494  32.755  26.138   4.260 -0.0616  0.2432  0.0672
25582W        W68495   6.183  22.793  15.816  0.0924  0.0521  0.0626
25583W        W68496   8.277  23.348  17.403  0.3084  0.0291  0.1358
25584W        W68497  11.820  20.892  24.868 -0.0933  0.1581  0.1007
25585W        W68498   2.447  14.883   7.427  0.1023  0.0610  0.0698
25586W        W68499   3.363   6.491  25.806 -0.0294 -0.2879 -0.2268
25587W        W68500   1.758  25.816  17.502  0.1390 -0.1080 -0.0532
25588W        W68501   2.481  34.289  18.131 -0.0458  0.0133  0.2200
25589W        W68502   8.323  13.605  19.578  0.2793 -0.0073  0.0792
25590W        W68503  32.464  14.019  18.558 -0.1739  0.1666  0.0185
25591W        W68504   7.596   6.674  20.329  0.2487 -0.4219 -0.0838
25592W        W68505   9.905   8.060  27.436  0.1478 -0.3354  0.0426
25593W        W68506  30.058  18.161  17.879  0.2032  0.2999 -0.2096
25594W        W68507  10.503  21.300  18.419  0.3143  0.1349  0.1268
25595W        W68508  14.695   6.591  19.231 -0.0755 -0.0362  0.1898
25596W        W68509   7.451   4.704  19.177 -0.0673  0.0993 -0.2917
25597W        W68510  28.787  11.308  16.588 -0.0431 -0.2183  0.0004
25598W        W68511   6.975  10.429  24.917 -0.1501 -0.2501 -0.0031
25599W        W68512   3.489  18.230  13.226  0.1848 -0.5292  0.1140
25600W        W68513   8.939  25.475  19.753 -0.5112 -0.1567 -0.0427
25601W        W68514  11.755   5.968  25.651 -0.0660  0.0300 -0.2451
25602W        W68515   5.098  10.729  24.685 -0.0538 -0.1198  0.0920
25603W        W68516  18.464   4.795  26.585 -0.1268 -0.1906 -0.1067
25604W        W68517   7.687  11.337  21.827 -0.0805 -0.0947  0.2556
25605W        W68518  31.740  10.276  19.207  0.2431  0.0073  0.1832
25606W        W68519  34.253   9.252  20.377 -0.0197 -0.0069 -0.3953
25607W        W68520  34.267  15.542  23.528 -0.0001 -0.1038 -0.0050
25608W        W68521   4.827  14.583  24.100  0.1090 -0.5843 -0.2485
25609W        W68522   0.588  17.520  22.372  0.1470 -0.2753  0.1118
25610W        W68523   1.578  13.689  16.216 -0.2843 -0.0630 -0.3575
25611W        W68524  32.179   4.468  20.315  0.1494  0.0810  0.2104
25612W        W68525   2.896   7.711  25.078  0.0172  0.3375  0.0195
25613W        W68526   3.990  20.703  22.867  0.2994 -0.3076 -0.0481
25614W        W68527  34.408  16.141  19.068  0.0630 -0.1963 -0.1467
25615W        W68528   9.284  11.004  24.412  0.0357 -0.1063  0.1902
25616W        W68529  32.913  11.049  23.642 -0.1590  0.3969  0.2782
25617W        W68530  30.965  11.894  16.799  0.2196  0.1386  0.2888
25618W        W68531   3.142  12.779  18.761  0.0704 -0.1719  0.0989
25619W        W68532  11.424  19.215  14.232  0.0351 -0.0112 -0.1160
25620W        W68533   5.582   4.658  19.718 -0.0144 -0.0050  0.0896
25621W        W68534  11.260   2.039  24.116  0.1237 -0.0486 -0.0817
25622W        W68535   2.457  16.124  14.357 -0.0137 -0.0681  0.1096
25623W        W68536  32.713  13.733  19.507  0.0395 -0.0085  0.0471
25624W        W68537   7.558  17.300  26.818  0.0652 -0.1500 -0.1034
25625W        W68538   5.454  21.112  21.700 -0.2257  0.0185  0.4785
25626W        W68539   5.049   6.819  18.055 -0.1611  0.0562  0.0144
25627W        W68540   4.583  15.981  15.039 -0.1584 -0.3638  0.0701
25628W        W68541  14.867  11.038   5.403  0.1149  0.2298  0.1268
25629W        W68542   8.113  15.683  14.146  0.0840 -0.4581 -0.0886
25630W        W68543   4.363  15.491  13.590  0.2518 -0.0281  0.2435
25631W        W68544   5.300  23.409  16.223  0.2702  0.2827  0.3134
25632W        W68545  31.839   8.034  15.186  0.0314  0.1234 -0.1069
25633W        W68546  11.121   8.683  27.047 -0.1496 -0.3861 -0.0743
25634W        W68547   1.495  16.566  20.273  0.0315 -0.0912 -0.1137
25635W        W68548   9.832  13.524  23.244 -0.2022  0.0416 -0.0164
25636W        W68549  15.974  20.273  13.887 -0.0907  0.1369 -0.1379
25637W        W68550   3.293  18.478  28.099  0.0347  0.0258  0.3008
25638W        W68551  34.093   8.220  23.338  0.1799  0.0330 -0.0189
25639W        W68552   0.618   8.505  19.351  0.1260 -0.0140  0.1321
25640W        W68553  27.630   8.011  15.790  0.3368 -0.0554 -0.1558
25641W        W68554  10.370  25.166  15.736 -0.0623  0.1089  0.0084
25642W        W68555  34.138   9.643  23.859 -0.3757  0.2246 -0.1579
25643W        W68556   1.816   9.994  18.965 -0.2591  0.0453 -0.0004
25644W        W68557   5.410  11.815  25.067 -0.0501 -0.0781  0.1736
25645W        W68558   6.158   6.963  17.184 -0.2906  0.1209  0.3477
25646W        W68559  32.933  19.889  20.175 -0.1496 -0.0840 -0.1285
25647W        W68560   2.413  11.332   6.863 -0.0597  0.0306  0.2439
25648W        W68561  10.093  15.475  17.859  0.4954 -0.0575  0.0216
25649W        W68562  27.276  17.232  24.240  0.2213 -0.0025  0.0033
25650W        W68563  30.696  26.557   1.296 -0.1137 -0.0050  0.1555
25651W        W68564  10.003  30.222   0.590 -0.1676 -0.1553 -0.1844
25652W        W68565  11.281  14.896  24.502 -0.0115  0.2579 -0.3506
25653W        W68566   7.214  20.881  18.006 -0.0604 -0.3726 -0.0455
25654W        W68567  17.690   7.338  17.455 -0.2143 -0.1988  0.2161
25655W        W68568   2.569   4.868  16.819  0.0289 -0.2074 -0.1322
25656W        W68569   5.355  23.010  15.428  0.2903 -0.1543 -0.1610
25657W        W68570  12.756  20.708  19.466 -0.1013 -0.1406 -0.2994
25658W        W68571   7.041  18.088  13.880  0.0259  0.0487  0.1876
25659W        W68572  13.733  10.613  16.554 -0.3958 -0.1311 -0.1265
25660W        W68573   6.814  22.729   1.449 -0.0416  0.0713 -0.2158
25661W        W68574  29.175  18.299  29.649 -0.4418 -0.1221 -0.1042
25662W        W68575   5.384   8.860   2.203 -0.2122 -0.0575 -0.1012
25663W        W68576   2.868   3.195  18.920  0.0814 -0.1947 -0.0602
25664W        W68577   0.675   6.549  18.791 -0.0665  0.4451 -0.1535
25665W        W68578  32.852  10.788  28.040  0.0347 -0.2406 -0.2125
25666W        W68579   2.912  28.690  24.601 -0.1098 -0.2067  0.1166
25667W        W68580   9.259  16.447  25.187  0.1225  0.3457  0.0568
25668W        W68581   9.316  12.436  26.656  0.3400  0.3174  0.1110
25669W        W68582   0.604   9.628  27.446  0.1098  0.5468  0.0813
25670W        W68583  10.726  15.984   1.814 -0.3016 -0.0369  0.0334
25671W        W68584   7.406  16.816  26.722 -0.0067 -0.0230  0.1935
25672W        W68585  28.605   9.745  20.520 -0.2993  0.1721  0.0788
25673W        W68586   2.551   8.447  26.499 -0.0679 -0.0112 -0.1638
25674W        W68587  22.185   1.032  18.057  0.1309  0.0170  0.2892
25675W        W68588  34.417   9.255  24.432 -0.0091 -0.0353  0.1308
25676W        W68589   9.128  23.767   2.607 -0.3074 -0.2123 -0.1363
25677W        W68590  32.401  15.133  24.372 -0.0478 -0.0508 -0.0638
25678W        W68591   6.729   7.468  17.011  0.0629 -0.1337 -0.0803
25679W        W68592   9.904  25.299  20.439 -0.2759  0.0367  0.2313
25680W        W68593  10.582   7.839   1.941 -0.1859 -0.1947 -0.0803
25681W        W68594  25.449   5.288  23.355 -0.0327  0.4908 -0.2526
25682W        W68595  19.386   5.925  25.911  0.2137 -0.1813 -0.1086
25683W        W68596  30.744  13.365  20.353 -0.2780  0.0180  0.2373
25684W        W68597   7.466   9.822  17.470  0.1053 -0.3723 -0.1989
25685W        W68598  13.857  23.192   5.840 -0.0264 -0.5628 -0.0788
25686W        W68599  30.632  18.141  13.330 -0.0136  0.2010 -0.1099
25687W        W68600  12.700   0.004   1.157  0.3636  0.1328  0.1973
25688W        W68601   9.560   5.452  24.568 -0.2572  0.3313 -0.0798
25689W        W68602  15.904   6.143  21.978  0.1569 -0.2858 -0.1501
25690W        W68603  28.879  21.141  27.985  0.2440 -0.2446 -0.1437
25691W        W68604  32.667  12.749  23.306 -0.4082 -0.3059  0.0185
25692W        W68605  12.275  15.125  21.166 -0.1402 -0.1636  0.0012
25693W        W68606  15.615  16.065  25.669 -0.1653  0.1241  0.0251
25694W        W68607   3.478  13.266   1.587  0.0715  0.2228 -0.2248
25695W        W68608  16.727  13.172  15.789 -0.0719 -0.2090 -0.2629
25696W        W68609  13.917  19.638  14.814 -0.2162  0.0720 -0.0009
25697W        W68610   1.727  15.403  25.208  0.1092  0.0221  0.3854
25698W        W68611   3.384  15.930  16.654 -0.1548 -0.2483  0.1512
25699W        W68612   4.446  21.892  19.308  0.3157 -0.1991 -0.0848
25700W        W68613   1.103  15.052  24.779 -0.3119 -0.3226 -0.2099
25701W        W68614  30.501   2.720   2.053 -0.0694 -0.1425  0.1972
25702W        W68615   5.694  20.451  26.747 -0.0248 -0.0991  0.1407
25703W        W68616   7.079  18.328  23.639  0.0728 -0.0126  0.1902
25704W        W68617  11.182  12.303  15.280 -0.1710  0.3137  0.0141
25705W        W68618  26.752  22.046  23.978  0.3773 -0.0577 -0.1309
25706W        W68619   2.868  24.229  26.477  0.0178  0.2105  0.1129
25707W        W68620  29.128   7.653  26.530  0.2019 -0.3251  0.1475
25708W        W68621   7.981  20.101  28.331 -0.0381  0.0925  0.1124
25709W        W68622  31.873  20.232  26.529  0.3653  0.0322  0.3017
25710W        W68623  32.053  17.904  27.596  0.1032  0.4338  0.1219
25711W        W68624  23.377   7.834  24.995  0.0405  0.2055 -0.0793
25712W        W68625  15.174   7.408  28.083  0.1938 -0.1101  0.1882
25713W        W68626  10.594  22.397  18.522  0.0118 -0.2014 -0.0983
25714W        W68627   1.652  10.860  20.299  0.0687 -0.0751 -0.2766
25715W        W68628  29.817  20.533  25.637  0.2426  0.1795 -0.5068
25716W        W68629  29.969  19.445  28.641  0.0692  0.0217  0.3233
25717W        W68630   6.665   8.088  17.740  0.0509 -0.0627 -0.0843
25718W        W68631  10.044  18.123  14.627  0.0082 -0.2482 -0.0615
25719W        W68632   3.658  10.375  22.981  0.2581  0.1973 -0.1536
25720W        W68633  15.317  11.035  15.249  0.1583 -0.3363  0.0806
25721W        W68634   8.121  12.214  19.259 -0.0980 -0.3398 -0.0037
25722W        W68635   8.630  14.514  27.407 -0.1610  0.0311 -0.2544
25723W        W68636   2.734  12.100  28.405  0.1890 -0.1294 -0.2735
25724W        W68637  13.170  21.558  29.647  0.2113 -0.0827 -0.0892
25725W        W68638   7.125   8.146  22.616  0.1393  0.3050 -0.1302
25726W        W68639   4.497   7.277  25.220  0.0529  0.0276  0.4111
25727W        W68640   6.076  19.981  16.538 -0.1029  0.0104  0.1845
25728W        W68641   1.122  19.244  17.803 -0.0617 -0.0420  0.0823
25729W        W68642   2.985   5.214  19.521 -0.3158 -0.1545  0.0386
25730W        W68643   6.019   9.426   0.275  0.0950  0.1451  0.0128
25731W        W68644  12.498  10.114  15.635  0.0030  0.2572 -0.1953
25732W        W68645  14.577  13.492  13.283 -0.3115  0.0747 -0.4616
25733W        W68646  10.323  17.489  21.859 -0.0886  0.2037  0.0428
25734W        W68647  17.688   0.865  21.882  0.0871  0.3202 -0.1180
25735W        W68648   8.748  12.374  17.631  0.3299  0.0154 -0.1585
25736W        W68649   4.993   4.541  21.954  0.0343 -0.0650  0.0851
25737W        W68650   4.703  11.689  20.905  0.2125 -0.2249  0.3186
25738W        W68651  10.652  14.116  26.157  0.3850  0.3308 -0.1612
25739W        W68652  34.280  14.302  20.380 -0.2806  0.0091 -0.0751
25740W        W68653   1.594   4.758  20.773  0.1703  0.1930  0.1506
25741W        W68654  11.222  18.821  28.973 -0.1126  0.2221 -0.4548
25742W        W68655   8.774  15.755  20.204  0.0413 -0.1361 -0.0316
25743W        W68656  30.726   4.337  26.412 -0.0096  0.2116  0.0587
25744W        W68657  27.471   9.224  19.828  0.2193 -0.0306 -0.0172
25745W        W68658   5.509  31.584  23.237  0.0539 -0.2473  0.0850
25746W        W68659  16.309  21.597  23.436  0.1925  0.1290  0.0401
25747W        W68660   9.051  14.785  27.355  0.1287  0.1521 -0.1202
25748W        W68661  10.959  12.503  22.347 -0.1434  0.0772  0.0522
25749W        W68662  14.478   4.004  25.242 -0.2209 -0.0399 -0.0211
25750W        W68663  24.676   7.276  17.085  0.0084 -0.0934 -0.1882
25751W        W68664   4.175   8.259  22.039  0.1493 -0.0065 -0.1865
25752W        W68665  10.784  11.548  26.135  0.0061 -0.0188  0.1295
25753W        W68666   7.427   5.229  20.578 -0.0897  0.2302  0.4618
25754W        W68667  11.161   4.844   5.048 -0.1354  0.2074  0.0203
25755W        W68668  17.619  12.776  15.979  0.1880 -0.0509  0.3072
25756W        W68669  14.879   4.554   1.569  0.1883 -0.0926  0.0519
25757W        W68670  10.150  10.863  17.750  0.3512  0.0076  0.0198
25758W        W68671   2.111   9.225  27.935 -0.1434  0.0652  0.1914
25759W        W68672  28.072  33.404  28.586 -0.0916 -0.2031  0.0854
25760W        W68673  18.161   2.028  20.657  0.2581 -0.3601 -0.0178
25761W        W68674   4.450  33.183  24.029  0.4101  0.0406  0.2455
25762W        W68675   6.773   4.833  23.962  0.1712 -0.3719 -0.1662
25763W        W68676  15.832   6.598  24.029  0.0290 -0.2054  0.3116
25764W        W68677  15.795  14.078  24.080 -0.1876 -0.1563 -0.3067
25765W        W68678  13.328  11.488  26.502  0.2592 -0.1622  0.3783
25766W        W68679  23.987  14.941  26.751 -0.1261 -0.2407  0.0083
25767W        W68680   4.475  12.113  20.061  0.2996  0.2007  0.0115
25768W        W68681  24.953   6.466  28.958 -0.0671  0.1628 -0.0296
25769W        W68682  33.781   2.646  19.485  0.1744  0.3321  0.1542
25770W        W68683   1.676   4.640   0.582  0.1382  0.1567  0.1865
25771W        W68684   2.171  22.115  28.089  0.2193 -0.0651  0.2545
25772W        W68685  10.428  15.722  26.219 -0.0091  0.0465  0.3745
25773W        W68686  15.072  15.977  26.964 -0.2140  0.2921  0.0123
25774W        W68687   8.307   8.349  25.109  0.1165  0.0131 -0.1640
25775W        W68688   8.196  13.493  20.908  0.0480  0.2094  0.1627
25776W        W68689   2.075  25.084  27.227 -0.3769  0.2248 -0.0411
25777W        W68690  18.008   9.367  22.252 -0.0484  0.1362 -0.0937
25778W        W68691   5.369   7.884   1.911 -0.3355 -0.0716  0.2231
25779W        W68692   4.364  18.301   1.358  0.1000 -0.0439  0.1634
25780W        W68693   7.289  22.540  17.753  0.2445 -0.1190  0.3095
25781W        W68694   0.413  15.180  27.348  0.1098  0.0533 -0.2058
25782W        W68695   7.425   6.499  22.829  0.1334 -0.2299  0.0949
25783W        W68696   1.136  13.196   4.989 -0.1403 -0.0801 -0.0558
25784W        W68697   3.444  15.143  22.474 -0.2599  0.0361 -0.0918
25785W        W68698   9.551  22.106  25.706  0.1090  0.1055  0.0271
25786W        W68699  34.227  16.684   3.641 -0.2659 -0.1602 -0.1347
25787W        W68700   7.996  17.223  28.688  0.0837  0.3397 -0.3070
25788W        W68701   6.488   9.798  24.250  0.0264  0.0001 -0.3501
25789W        W68702   4.610  14.643  18.418 -0.2670  0.2318 -0.3981
25790W        W68703  29.914   6.836  23.764  0.1761 -0.1702  0.0853
25791W        W68704   7.289   9.953  23.256 -0.2447  0.1596  0.3621
25792W        W68705  25.731  11.125  21.211  0.1437 -0.2291  0.0367
25793W        W68706   1.525   3.163  25.692 -0.0622  0.3608  0.1331
25794W        W68707  31.247  13.124  22.271  0.0803 -0.2649  0.4930
25795W        W68708   0.148  10.951  16.954 -0.0286  0.1626  0.1834
25796W        W68709  12.881   8.359  21.626  0.0140  0.2711 -0.0585
25797W        W68710  14.183  10.555  24.045  0.1402 -0.0494 -0.1209
25798W        W68711   4.538   7.957  29.310  0.3211  0.0839 -0.2871
25799W        W68712   7.292  12.628  21.216 -0.0848  0.1591  0.2741
25800W        W68713   9.727   9.811  25.186  0.1289  0.0416 -0.2504
25801W        W68714   9.061  11.858   0.506  0.1195  0.1062  0.0154
25802W        W68715  16.090  12.360  21.650  0.0979 -0.1388 -0.1224
25803W        W68716  28.569  17.832  27.630  0.1770  0.2173  0.0365
25804W        W68717  13.991   8.889  16.666  0.1501  0.3123  0.0863
25805W        W68718  29.676   7.236  20.743 -0.1201  0.2017 -0.0586
25806W        W68719  12.894  10.615  23.126  0.1379  0.0532 -0.0936
25807W        W68720  15.647  29.858  29.423 -0.2473  0.3330  0.1095
25808W        W68721   3.488  25.756   1.046 -0.0647 -0.0746 -0.0577
25809W        W68722  11.444   7.979  23.861  0.0384  0.0510 -0.2107
25810W        W68723   7.286   0.908  21.277 -0.3770 -0.0246 -0.0380
25811W        W68724   0.416  20.081  21.652  0.1484  0.1275 -0.1234
25812W        W68725  32.781  18.796  23.710 -0.0387 -0.2240 -0.3959
25813W        W68726  14.811  14.581   5.003  0.2048 -0.2197  0.2317
25814W        W68727   7.509  18.474  14.529  0.3838  0.0534 -0.2365
25815W        W68728   3.478  12.503  25.009 -0.1764 -0.0495  0.0545
25816W        W68729  14.083   5.797   2.505 -0.0923  0.2915 -0.0574
25817W        W68730  33.774  19.254   0.723  0.2821 -0.1867  0.2428
25818W        W68731   3.716   9.025  29.375 -0.0091 -0.3145  0.2355
25819W        W68732   2.371   8.350  22.340 -0.0044 -0.1118  0.1061
25820W        W68733   0.713   5.100  27.494  0.3231  0.2832  0.1872
25821W        W68734   5.791  22.193  14.619 -0.3082 -0.1870  0.0211
25822W        W68735  31.143   6.488   7.058 -0.1590  0.1683  0.2321
25823W        W68736   9.740  11.746  24.236 -0.0906 -0.1289 -0.1051
25824W        W68737   2.686  16.177  22.939  0.0254 -0.0861  0.3490
25825W        W68738  28.454  22.546   5.303 -0.3607  0.1622  0.1400
25826W        W68739   7.475  13.953   9.743 -0.0923  0.1412  0.1329
25827W        W68740   3.459   4.939  26.519  0.2311 -0.1421 -0.2215
25828W        W68741  32.064  23.396  22.390  0.0128 -0.0452 -0.3576
25829W        W68742   1.549  14.436  22.361  0.2096 -0.1872  0.0272
25830W        W68743   1.872   4.789  18.084 -0.1377  0.3137  0.0198
25831W        W68744   6.691   7.809  22.422 -0.1341 -0.0562  0.1341
25832W        W68745  21.304   7.560  22.743 -0.2114 -0.1655  0.1435
25833W        W68746  18.470   8.016  15.678  0.2671 -0.1314 -0.0059
25834W        W68747   9.209   6.757  24.375  0.3540  0.2345  0.0555
25835W        W68748  34.017   7.607  25.681  0.0185 -0.2544  0.1772
25836W        W68749   7.435   7.494  29.235 -0.1282  0.1526 -0.2748
25837W        W68750   7.307  20.888  26.090 -0.0985 -0.0251  0.0317
25838W        W68751  12.801  12.544  16.001  0.3320  0.2003  0.1846
25839W        W68752   4.651  20.598  28.202 -0.1567  0.0267 -0.0092
25840W        W68753  14.851   7.748   5.605 -0.1793  0.3223  0.3588
25841W        W68754   9.367   7.280  27.986 -0.0921 -0.0603  0.0009
25842W        W68755   7.648  10.158  22.993  0.1831 -0.1002 -0.1645
25843W        W68756   6.281  12.540  20.611  0.4960  0.0265  0.0868
25844W        W68757   6.274  17.198  27.437 -0.5907 -0.1068 -0.0220
25845W        W68758  11.943  13.131  20.412 -0.2331  0.0390 -0.0649
25846W        W68759  30.876  22.133   1.608  0.2369 -0.0343 -0.3566
25847W        W68760   3.470  17.106  29.529  0.0146 -0.0087 -0.2164
25848W        W68761   6.548  13.072   3.271 -0.2845 -0.3334  0.0677
25849W        W68762  31.209   8.851  29.449 -0.0954  0.0453 -0.2166
25850W        W68763   4.709   4.551  18.047  0.3713 -0.1795 -0.0839
25851W        W68764  28.297  23.477  27.969  0.1054  0.0040  0.1736
25852W        W68765   5.670  13.479  29.081 -0.0629  0.3899 -0.0097
25853W        W68766   7.433   8.586  23.254  0.0839 -0.1195  0.0931
25854W        W68767   2.014  11.111   2.177  0.0616  0.1328 -0.0864
25855W        W68768   7.769   8.553  18.077  0.0554  0.0844  0.0525
25856W        W68769   3.310   3.281  22.545 -0.2918  0.1015  0.3349
25857W        W68770  33.693  19.397  24.645 -0.0979 -0.3801  0.0582
25858W        W68771  30.606   3.303  19.407  0.0568 -0.0516 -0.0963
25859W        W68772   3.061  17.425  19.982  0.0971  0.1355  0.1708
25860W        W68773  27.299   9.474  19.209  0.0538  0.0279  0.2682
25861W        W68774   6.153   6.523  28.957  0.0409 -0.1942  0.2962
25862W        W68775   7.362  16.358   1.887  0.1985  0.0824 -0.0134
25863W        W68776  28.517  14.801  29.499  0.1872  0.2099 -0.0645
25864W        W68777   9.219   5.900  24.060  0.0399 -0.1853 -0.0577
25865W        W68778   4.524   9.262  26.267  0.1102  0.2526  0.2732
25866W        W68779   2.881  10.309  20.658  0.0937 -0.2158  0.1277
25867W        W68780   0.384   5.694  28.589  0.0979  0.0711 -0.0506
25868W        W68781  15.033  16.516   6.232 -0.0397 -0.0198  0.1168
25869W        W68782   8.150  12.338  16.773 -0.0787 -0.0170 -0.0438
25870W        W68783  10.126   6.457  22.842 -0.0039  0.0960 -0.0155
25871W        W68784  15.367   7.633  17.904  0.1252 -0.4809  0.0213
25872W        W68785  12.189  13.337  18.508 -0.0452  0.0249 -0.1838
25873W        W68786  13.693  18.310  23.161 -0.1180  0.3594 -0.2652
25874W        W68787  13.760  10.102  21.222 -0.1393  0.1181  0.2489
25875W        W68788   6.397  10.479   3.682  0.2810  0.1108 -0.0942
25876W        W68789  21.930   0.308   3.950 -0.2835  0.0320  0.0554
25877W        W68790   3.048   2.457  25.213  0.1268 -0.1534 -0.2433
25878W        W68791  33.956  22.339  19.710  0.0727 -0.0852 -0.1523
25879W        W68792   9.511  20.647  21.820 -0.0933  0.0222  0.0228
25880W        W68793   6.487   9.622  20.907 -0.0161  0.0956  0.0373
25881W        W68794   4.639  15.110  29.477  0.2473  0.1364 -0.0605
25882W        W68795   6.147  16.892  22.300  0.1100 -0.2152  0.1308
25883W        W68796  12.590   3.963  22.898  0.3910  0.0486  0.2450
25884W        W68797   5.507  12.192  23.823  0.1739  0.0800  0.1273
25885W        W68798  33.769  16.502  27.870  0.2881  0.1849  0.0843
25886W        W68799  32.683  18.542  15.829 -0.0459 -0.0642 -0.3411
25887W        W68800   2.498  12.984  24.703 -0.1091  0.0005  0.0829
25888W        W68801  12.600   5.135  22.728 -0.1227 -0.1025  0.0384
25889W        W68802   5.562   9.951   1.062 -0.0023 -0.0986 -0.1017
25890W        W68803   5.533   8.139   4.572  0.2615  0.0625  0.1302
25891W        W68804   5.328  11.769   6.836 -0.0268 -0.2786  0.2321
25892W        W68805   9.264   7.436  22.317  0.1351  0.0745  0.1567
25893W        W68806  22.253  19.209   7.442 -0.3386 -0.0510 -0.0789
25894W        W68807  32.967   2.146  17.928  0.0713 -0.1407  0.0599
25895W        W68808  15.150  22.020  18.689 -0.1710  0.2597  0.4811
25896W        W68809   9.738   9.126   2.791  0.0402  0.0244  0.0550
25897W        W68810   5.788  17.839   1.174 -0.1100  0.0352  0.3524
25898W        W68811  16.351  13.691  22.025 -0.1484  0.1042  0.4623
25899W        W68812   7.439  19.789  21.531  0.3506  0.5035  0.0851
25900W        W68813   9.150  19.077  16.575 -0.3044 -0.0726  0.1879
25901W        W68814   7.074  14.155   2.717  0.0233  0.2543 -0.2631
25902W        W68815  29.895   3.766  19.155 -0.0681 -0.0164 -0.1190
25903W        W68816   6.599  24.739  18.882 -0.0279  0.0731  0.0718
25904W        W68817   1.339  13.985  15.479  0.0643  0.2655 -0.3963
25905W        W68818   8.216   4.285  28.671 -0.0813  0.3808 -0.3706
25906W        W68819   5.250  19.395   3.829 -0.0102  0.1948  0.0780
25907W        W68820  12.048   9.193   6.133 -0.1132 -0.0503  0.0669
25908W        W68821   3.087   9.632   0.183 -0.3869 -0.0805 -0.0874
25909W        W68822   2.951   5.830  21.401  0.0931  0.1159  0.1113
25910W        W68823   9.522   0.312   2.954 -0.0054 -0.1532 -0.1341
25911W        W68824  29.514  20.887   0.351  0.1522  0.3529  0.1812
25912W        W68825   5.073   7.627  27.981  0.0705  0.0351  0.1912
25913W        W68826  31.987  10.832  23.714  0.1457  0.1521 -0.2003
25914W        W68827   5.524  12.052   6.439  0.2823 -0.2086 -0.0978
25915W        W68828   8.461  20.882  26.533 -0.1331 -0.1817  0.3250
25916W        W68829   0.177   8.708  23.611 -0.0003  0.0547  0.2081
25917W        W68830   5.025   6.629  21.948 -0.2290 -0.0146 -0.0959
25918W        W68831  32.749  16.588  24.498 -0.1736 -0.1545  0.1146
25919W        W68832   8.399  12.951  18.212 -0.4323  0.1904  0.2023
25920W        W68833   8.916   7.545   1.293  0.0720  0.2733  0.0451
25921W        W68834   6.292   7.695  20.927  0.0544  0.0710 -0.1169
25922W        W68835   1.557  21.568  24.328 -0.0850  0.2917 -0.0050
25923W        W68836   2.159  12.401   0.749 -0.0592 -0.3426  0.2434
25924W        W68837  10.585  12.755   0.015 -0.1870  0.3486 -0.0150
25925W        W68838   9.080  10.488  27.809 -0.0991  0.2417  0.1170
25926W        W68839  28.798  22.623   4.937  0.1724  0.1036 -0.0028
25927W        W68840   2.443   9.198  22.557 -0.1873 -0.1062  0.2573
25928W        W68841   4.664  12.630   1.064  0.0808  0.3931 -0.0552
25929W        W68842  12.172  10.611  24.043  0.0172 -0.0387 -0.1190
25930W        W68843  34.427  18.904  25.243 -0.1281 -0.1111 -0.3155
25931W        W68844  11.484   5.929  22.614  0.0157 -0.1667  0.0039
25932W        W68845   2.268   4.590  20.858  0.0690  0.0393 -0.0118
25933W        W68846   4.934  10.898   5.043  0.1330  0.0752 -0.0324
25934W        W68847  10.062  15.592  20.750 -0.2162 -0.3426  0.0395
25935W        W68848  12.458  14.937  20.777 -0.1896 -0.3011 -0.1658
25936W        W68849  13.275  13.490  25.625  0.1141 -0.0490  0.0940
25937W        W68850   2.572   2.846  26.566 -0.1083  0.2774  0.0860
25938W        W68851   5.594  15.873  25.043 -0.0286  0.0950 -0.1760
25939W        W68852   0.308  17.586  27.645  0.2608 -0.0535 -0.2668
25940W        W68853  11.424  13.982  15.964  0.1673  0.3616 -0.0641
25941W        W68854   6.800  33.997  25.822  0.1772  0.3884  0.1293
25942W        W68855   4.724   2.992  21.493 -0.0065 -0.0547  0.2227
25943W        W68856   5.773  11.157  23.873  0.0054 -0.2952  0.3702
25944W        W68857   5.785  34.303  27.340 -0.2519  0.0848  0.1835
25945W        W68858   7.934  22.913  25.119  0.2087 -0.0070 -0.1313
25946W        W68859  11.122  18.694  13.373  0.1534 -0.4235 -0.1070
25947W        W68860  13.601  16.178  25.440  0.2864  0.0910 -0.0495
25948W        W68861   6.235  27.789  28.266  0.4533  0.3306 -0.1338
25949W        W68862  17.711  15.010  13.087 -0.0592  0.1926  0.0399
25950W        W68863  30.882   9.889  19.295 -0.4728  0.1026 -0.1399
25951W        W68864   5.447   9.819  20.160  0.1551  0.4196  0.0404
25952W        W68865  15.205  10.245  18.183 -0.2660 -0.3733  0.2410
25953W        W68866   4.885   9.551  17.464 -0.3518 -0.0378  0.0239
25954W        W68867   3.071  15.337  25.253 -0.0391 -0.0004  0.2651
25955W        W68868  32.412  17.129  21.554  0.1610  0.0747  0.1002
25956W        W68869  33.541   7.645  19.475  0.0246 -0.0827  0.1813
25957W        W68870   0.931  15.124  25.292 -0.1373  0.2242 -0.1953
25958W        W68871   7.160  19.217  26.996 -0.1240 -0.0393 -0.0081
25959W        W68872  10.776  21.740  28.448  0.1438 -0.2237  0.2414
25960W        W68873   6.266   0.729  24.500 -0.1762 -0.0700 -0.1013
25961W        W68874  28.283  16.961  24.672  0.3739 -0.2373  0.0201
25962W        W68875  30.200  10.597  20.018 -0.0164  0.0347 -0.0114
25963W        W68876   9.419  10.633  21.168  0.2406  0.2848 -0.0490
25964W        W68877   9.042  18.247  25.914  0.1512  0.0508 -0.0132
25965W        W68878   8.517  12.424  27.703  0.1208 -0.0101  0.1311
25966W        W68879   1.385  10.784  17.896  0.0636  0.4803 -0.4087
25967W        W68880  13.906   4.399  27.787  0.0815 -0.4455  0.2264
25968W        W68881  17.373  19.946  15.122 -0.2491  0.2699  0.0757
25969W        W68882  31.175  16.768  25.452 -0.2878 -0.0423 -0.3541
25970W        W68883   7.960  14.358  19.795 -0.0269  0.1205 -0.0419
25971W        W68884  11.351   9.159  28.091 -0.0035 -0.0850 -0.2113
25972W        W68885   6.273  11.367  23.098 -0.0656  0.0027 -0.1513
25973W        W68886   7.817  16.588  25.785  0.0024 -0.1660  0.2134
25974W        W68887  10.294  16.529  22.756 -0.2262 -0.3312  0.0308
25975W        W68888   6.305  22.345   3.038 -0.1171 -0.2601 -0.0323
25976W        W68889   4.840  15.469  22.613  0.1309  0.0085  0.0280
25977W        W68890   1.249  12.874  19.647  0.2127  0.3006 -0.1038
25978W        W68891  30.119  23.385   8.418 -0.0541 -0.0964  0.1695
25979W        W68892   4.328  21.238   3.215  0.2109 -0.0601  0.0138
25980W        W68893   1.177  10.690  27.533  0.1969 -0.0838 -0.0359
25981W        W68894  10.281  13.770  23.151 -0.1589  0.0205  0.2009
25982W        W68895  29.114   9.519  20.453 -0.1402 -0.1189 -0.2437
25983W        W68896  30.843   8.628  28.812 -0.0723  0.1251 -0.1053
25984W        W68897  16.814  19.929  22.869  0.0396  0.0040  0.0822
25985W        W68898   3.133  32.827  16.620 -0.2174  0.2778  0.0186
25986W        W68899   6.682  10.737  25.723  0.3231  0.2242 -0.1858
25987W        W68900  12.127  14.536   3.620 -0.0156  0.0301  0.0735
25988W        W68901   7.321  14.766   2.397  0.0659  0.0477  0.0917
25989W        W68902   5.655  17.585  23.485  0.0225  0.3051 -0.1815
25990W        W68903   7.989  11.007  28.031 -0.1659  0.0925  0.4628
25991W        W68904   7.032   9.237  26.869  0.2632 -0.2110  0.0188
25992W        W68905   3.288   2.184  17.980 -0.4385  0.1498 -0.1540
25993W        W68906   0.007   7.827  24.246  0.0673 -0.0255  0.0790
25994W        W68907   2.571  10.854  18.399 -0.0307  0.0394  0.0164
25995W        W68908  32.197   6.439   4.011 -0.0512  0.1037 -0.0024
25996W        W68909   9.488  13.805  16.702  0.0544 -0.1545 -0.2138
25997W        W68910   9.802  21.610  17.743  0.0461  0.1527  0.0571
25998W        W68911  12.215  13.272  19.992  0.1598  0.0854  0.1489
25999W        W68912   3.345  14.129  21.440 -0.0123 -0.0452  0.0043
26000W        W68913   9.929  34.143  17.847  0.0231 -0.2922  0.6107
26001W        W68914   6.358  17.879  21.851 -0.0328 -0.1298  0.2604
26002W        W68915   1.450  10.797  24.740 -0.0187 -0.0870 -0.1112
26003W        W68916  10.249  12.366  23.552 -0.0536 -0.0621 -0.2450
26004W        W68917   3.897   0.854  23.139 -0.0408  0.0965 -0.0767
26005W        W68918   8.763   4.577  26.662 -0.0121 -0.0121 -0.0494
26006W        W68919   7.939   8.945  28.059 -0.2393  0.1764 -0.2326
26007W        W68920  15.738  21.655  25.382  0.0437 -0.1533 -0.0997
26008W        W68921   1.628  21.322  27.637  0.2649  0.2644 -0.3638
26009W        W68922  34.138   7.948  24.552 -0.0142  0.5055  0.1712
26010W        W68923   3.961  16.209  27.224 -0.2752  0.3774  0.0052
26011W        W68924  12.728  11.824   8.156  0.1547  0.0448  0.3109
26012W        W68925  10.082  16.639   6.389 -0.1945 -0.1493 -0.2265
26013W        W68926   6.322  25.753  29.132 -0.0865  0.1438  0.0792
26014W        W68927   2.100  19.479  26.996  0.0762 -0.1419  0.4255
26015W        W68928  16.304   6.997  24.157  0.0005  0.3782  0.1185
26016W        W68929  16.243  11.633  22.728  0.3441 -0.1309 -0.1093
26017W        W68930  33.882   4.813  25.408  0.1448  0.0645  0.3365
26018W        W68931  26.236  17.572   0.071 -0.2448  0.1318 -0.4370
26019W        W68932   5.210  21.086   1.690 -0.2891  0.1814 -0.1330
26020W        W68933  17.394  11.995  21.320  0.5216  0.0885  0.1707
26021W        W68934   7.927  21.784  21.386  0.0984  0.1072  0.0198
26022W        W68935   9.492   8.424   0.356 -0.1050 -0.2126 -0.1715
26023W        W68936  13.294   6.987  27.215 -0.0316  0.0832  0.1689
26024W        W68937   9.471  12.194   1.816  0.0840  0.1316 -0.3064
26025W        W68938   2.798  10.882  15.879 -0.2375  0.2597 -0.0168
26026W        W68939   6.001   5.979  23.187  0.1666 -0.0091  0.1218
26027W        W68940  16.119   6.547  26.343 -0.2359 -0.2472 -0.0977
26028W        W68941  32.621  12.351  26.166 -0.1280 -0.1239 -0.0465
26029W        W68942  30.168  10.292  24.161 -0.1278 -0.3020 -0.1826
26030W        W68943   1.077  22.273  25.183 -0.0276  0.2787 -0.0570
26031W        W68944   4.256  13.948  19.420  0.1297 -0.0123  0.0206
26032W        W68945   0.377  17.683  22.897  0.1056 -0.0677 -0.0562
26033W        W68946   6.149  19.240  20.418  0.0009 -0.3236  0.0988
26034W        W68947   6.503  13.991  15.807 -0.1404  0.5436  0.0191
26035W        W68948  29.632   4.979  22.013 -0.1048 -0.0060 -0.0311
26036W        W68949  12.413  15.917  29.458  0.0929 -0.0085  0.0480
26037W        W68950   7.043   5.864  25.745 -0.4264  0.0087  0.0951
26038W        W68951  10.641  11.939  25.742  0.2054 -0.1611 -0.0439
26039W        W68952   1.884  13.436  28.627 -0.2332 -0.0710  0.3379
26040W        W68953   5.987  12.550  22.987 -0.1813 -0.3046 -0.3528
26041W        W68954  33.402  15.702  16.019 -0.2474 -0.0458 -0.2926
26042W        W68955  31.426  32.077  20.755 -0.0695  0.2237  0.0911
26043W        W68956  32.173  10.917  28.709  0.0227 -0.0578  0.0048
26044W        W68957   1.104  16.457   0.950  0.1112  0.0970 -0.0494
26045W        W68958  10.428  12.892  28.609  0.0141  0.0247  0.0118
26046W        W68959  14.241  14.270  21.948 -0.0236 -0.0372 -0.3871
26047W        W68960  17.624  22.264  28.103  0.0296  0.1838 -0.1056
26048W        W68961   8.387   2.148  22.780 -0.1096  0.0289  0.2144
26049W        W68962  16.916  12.360  22.994 -0.2519  0.1346 -0.0720
26050W        W68963  34.239  24.946  25.507  0.2011 -0.1757  0.0911
26051W        W68964   8.667  16.223  24.467 -0.1402 -0.0768 -0.3863
26052W        W68965   0.413  10.372   0.153 -0.1990  0.0223  0.1410
26053W        W68966   9.930  11.139  10.002  0.0196  0.1758 -0.0713
26054W        W68967   7.933  16.225  27.394 -0.1689 -0.0861  0.1780
26055W        W68968   4.883   6.812  18.576 -0.2480 -0.2711 -0.0383
26056W        W68969  34.430  19.845  29.318 -0.1815  0.3206 -0.1662
26057W        W68970   5.691  11.178  16.699 -0.0410 -0.1000 -0.0245
26058W        W68971  32.563  11.244  21.203  0.4836  0.2773 -0.1794
26059W        W68972  24.646  16.132  24.035  0.3516 -0.2083 -0.2094
26060W        W68973  18.832  21.141  16.075  0.1984 -0.0434 -0.0237
26061W        W68974   2.759  14.975  28.114  0.0786 -0.1459  0.1868
26062W        W68975   4.927  10.581   5.544 -0.2972  0.0990 -0.0104
26063W        W68976   2.740  16.703  22.807  0.0569  0.1531  0.0769
26064W        W68977   1.393  15.016  28.589  0.0423  0.0634  0.0121
26065W        W68978   0.212  12.336  28.216  0.0996  0.2561  0.2033
26066W        W68979   4.082   8.331  28.386  0.1000 -0.0145 -0.1568
26067W        W68980   8.863  17.772  24.576 -0.0110  0.0762 -0.1466
26068W        W68981  10.200   5.714   4.818  0.0690  0.3189  0.0046
26069W        W68982   4.303   8.588  25.171  0.2004  0.0891  0.1602
26070W        W68983  17.156  19.847   6.319  0.0836  0.1656 -0.0324
26071W        W68984   7.866  18.587  19.875 -0.0991 -0.3871 -0.0220
26072W        W68985   0.844   9.231  17.533  0.1197  0.0599  0.4399
26073W        W68986   3.590  13.881  22.908  0.2787 -0.0920  0.0302
26074W        W68987  13.773  16.147  24.469  0.2725 -0.1997  0.2012
26075W        W68988  26.433   9.091  16.113 -0.0246 -0.0890 -0.1625
26076W        W68989  31.420   6.733  24.156 -0.0398  0.0249 -0.0355
26077W        W68990  25.126  17.592  24.994 -0.0507 -0.1445  0.1023
26078W        W68991  33.063   8.882   4.147 -0.4980  0.1947  0.0980
26079W        W68992  11.777   5.623  20.164 -0.1010  0.0704 -0.5297
26080W        W68993   4.236  19.635  24.237  0.1024  0.2098 -0.0137
26081W        W68994   0.802   8.377   0.642 -0.1317  0.1569 -0.1482
26082W        W68995   2.515   5.145   1.369 -0.1579 -0.0287  0.3632
26083W        W68996   8.095  23.594  21.759 -0.0059 -0.1446 -0.1025
26084W        W68997   6.833  21.708  26.755  0.3311 -0.0781 -0.1778
26085W        W68998   5.545  24.578   6.953  0.0296 -0.0421  0.0927
26086W        W68999   8.779   5.551  27.526  0.0414 -0.0879 -0.3586
26087W        W69000  14.633  18.953  21.658 -0.3737 -0.0934 -0.1720
26088W        W69001  13.433  10.918   2.567 -0.3297  0.0932  0.1159
26089W        W69002   2.423  10.700  23.642  0.2211 -0.2642  0.2240
26090W        W69003   0.606  20.175   1.347 -0.1591  0.2694  0.1363
26091W        W69004   4.363  10.505   2.765  0.1243 -0.0502  0.2621
26092W        W69005   5.565  17.876  18.472  0.2739  0.0282  0.0628
26093W        W69006   4.792  10.504  27.181  0.2950  0.1134 -0.2559
26094W        W69007  26.546  22.679  27.563 -0.0396 -0.0308 -0.0880
26095W        W69008  17.435  30.800   0.262 -0.1464  0.0917  0.0226
26096W        W69009   1.920  15.336  23.656  0.1120  0.1084 -0.3697
26097W        W69010   8.859  29.582  28.038 -0.2287 -0.0071 -0.0372
26098W        W69011  11.024   9.843  15.088  0.0458  0.2313 -0.1990
26099W        W69012   5.260  16.460   1.048 -0.1333 -0.1807  0.2259
26100W        W69013   9.673   4.020  28.648  0.0954  0.0998  0.1209
26101W        W69014   3.290  13.361   1.055 -0.0061  0.1150 -0.1206
26102W        W69015   8.149   7.370  21.391 -0.0429 -0.0856 -0.2652
26103W        W69016  12.826  23.019  28.024  0.0726 -0.1862  0.1094
26104W        W69017   4.373  11.946   2.966 -0.3200 -0.1594  0.0781
26105W        W69018   2.929  12.218   2.384  0.0681  0.0575 -0.0856
26106W        W69019   8.576  24.807  26.027 -0.3098 -0.2106  0.0971
26107W        W69020   5.244  24.617   0.673 -0.0644 -0.4434 -0.3004
26108W        W69021  13.028  11.091  27.172  0.1863 -0.1028 -0.0290
26109W        W69022   3.751   8.364  26.408  0.2766 -0.0852 -0.0196
26110W        W69023   7.913  15.414  23.889  0.0733  0.0197  0.3075
26111W        W69024   4.058  19.618  27.471  0.1222  0.0511  0.4983
26112W        W69025   2.140   9.609  17.233  0.1263  0.0956  0.2279
26113W        W69026  28.204  20.667  29.584  0.0651  0.0694  0.0134
26114W        W69027  14.897  14.954  25.273  0.3542 -0.0492  0.3384
26115W        W69028   7.669  26.373  18.284 -0.1440  0.2298  0.2889
26116W        W69029   0.258  12.698  16.765 -0.0917 -0.2351 -0.2749
26117W        W69030   8.177   1.586  11.772 -0.0297 -0.0089  0.0377
26118W        W69031  32.105  14.070   3.569 -0.1496 -0.1257 -0.0921
26119W        W69032  10.588  10.180  15.070  0.0247 -0.0249  0.7236
26120W        W69033   0.015  12.233  27.084  0.2284 -0.1444 -0.1233
26121W        W69034  13.916   3.320   2.221  0.0491 -0.0011 -0.1441
26122W        W69035   9.847  19.803   0.913  0.1630 -0.1762  0.4319
26123W        W69036   3.674  22.921  25.717  0.0338  0.1682  0.0712
26124W        W69037  25.116  26.975  19.647 -0.2774 -0.4156 -0.1429
26125W        W69038  32.775  13.753  25.127 -0.1408  0.0225  0.1327
26126W        W69039   4.048  15.432   2.116 -0.1114  0.0029  0.0202
26127W        W69040   9.951  21.387   0.766  0.5359  0.0977  0.0293
26128W        W69041  16.539  15.031  24.695  0.0337  0.0891  0.0737
26129W        W69042   8.207   9.129  17.411  0.1671 -0.0691 -0.0604
26130W        W69043   5.153   4.685  17.910  0.0521  0.0563 -0.0327
26131W        W69044  17.374   8.064   5.703 -0.0996  0.3446 -0.1180
26132W        W69045   7.440  27.479  26.178  0.0777 -0.2535  0.0578
26133W        W69046   4.426  20.447  18.368  0.3843 -0.1401 -0.0663
26134W        W69047  12.134  15.971  23.864  0.4172 -0.0524 -0.0614
26135W        W69048   8.947  15.342   0.759  0.1056  0.1369  0.0433
26136W        W69049  11.907  11.022   4.308  0.2722 -0.0371 -0.1104
26137W        W69050   6.303  15.141  18.721  0.2500  0.2237 -0.0961
26138W        W69051   4.560  18.788   1.520 -0.1366  0.0918 -0.1187
26139W        W69052   0.558  16.489  22.101 -0.1694 -0.0786  0.0875
26140W        W69053  15.479  21.928  23.645  0.2792  0.0933  0.0294
26141W        W69054   9.070  15.074   5.174 -0.2653  0.1733  0.0831
26142W        W69055   8.761  21.149  27.869 -0.1965 -0.3747  0.0565
26143W        W69056  15.208  11.447  28.783  0.0076  0.2853  0.1107
26144W        W69057  12.599  15.399   5.723 -0.0589  0.1795  0.0888
26145W        W69058   1.406  12.524  23.178  0.1269  0.2464  0.0259
26146W        W69059  20.493  10.127  13.543 -0.1116  0.1037  0.2113
26147W        W69060   0.963  31.789   4.563  0.2267  0.1039 -0.0227
26148W        W69061  10.285  15.278  24.659  0.0170  0.1938 -0.0151
26149W        W69062  10.014   0.227  23.730  0.1011 -0.2045  0.0055
26150W        W69063  28.263   8.108  26.036 -0.3580  0.0600  0.0175
26151W        W69064  10.490  11.658  28.901  0.3073 -0.2340  0.3442
26152W        W69065   6.664  21.841  16.850 -0.0557 -0.0524 -0.0733
26153W        W69066   6.688  12.905  26.628 -0.1072 -0.0083 -0.3336
26154W        W69067   8.276  16.917  25.934  0.1420 -0.2546  0.2219
26155W        W69068  28.975  18.004   3.026 -0.1476  0.0959  0.0265
26156W        W69069   4.396  12.004  25.810  0.0953 -0.2122 -0.1726
26157W        W69070   4.740   9.510  18.220 -0.0798 -0.2217 -0.1190
26158W        W69071   6.092  16.604  20.566  0.0062 -0.0878 -0.0295
26159W        W69072  14.313  23.317  25.966 -0.0600  0.2370 -0.1950
26160W        W69073   8.262  15.582   3.777 -0.1860 -0.1353 -0.0579
26161W        W69074  13.064  16.101  22.527 -0.1270 -0.1207  0.2248
26162W        W69075  28.120   8.311  20.212 -0.2147 -0.1227 -0.1143
26163W        W69076  32.038  19.713  26.764  0.1604 -0.0368 -0.1571
26164W        W69077  27.810  19.812  26.138  0.3314  0.0895 -0.0464
26165W        W69078  20.030   9.052  26.566 -0.0855 -0.0572  0.0286
26166W        W69079   9.125   0.953  26.065 -0.1737  0.2752  0.0277
26167W        W69080   8.162  17.340  23.719 -0.0995  0.1320 -0.2114
26168W        W69081   7.492   7.941  25.901 -0.1315 -0.0210 -0.0074
26169W        W69082  15.900  12.879  24.812  0.2178  0.1351  0.1491
26170W        W69083  12.235  15.929   3.620  0.2580 -0.1491  0.0851
26171W        W69084   2.395  17.015   4.202  0.0632 -0.1298  0.0817
26172W        W69085   8.107  21.662  24.236 -0.2537  0.1032 -0.2960
26173W        W69086   4.976  15.671   1.717 -0.2158  0.2646 -0.1181
26174W        W69087   0.184  26.560   0.530 -0.0302 -0.0610 -0.1711
26175W        W69088  25.953  10.225  25.014 -0.0935  0.0621 -0.0507
26176W        W69089   9.726  11.663  29.372 -0.1673  0.2215 -0.0456
26177W        W69090   7.516   5.036  26.700 -0.0282  0.0178 -0.2056
26178W        W69091   7.145  19.754  19.516  0.1403 -0.5058  0.0761
26179W        W69092   7.759   8.085  19.390 -0.1236 -0.3764 -0.3698
26180W        W69093  13.720  22.426  25.894  0.2032 -0.2474 -0.3721
26181W        W69094   0.739   9.227  10.130 -0.0611  0.0371 -0.1315
26182W        W69095  31.344  15.646  27.298 -0.3747 -0.0812 -0.2271
26183W        W69096   2.609  16.749  27.533  0.2561  0.0553  0.3544
26184W        W69097  10.675  19.302  28.313  0.1392 -0.2639 -0.0572
26185W        W69098   4.954   2.922  22.794 -0.2308  0.1881  0.0662
26186W        W69099   3.146   8.113  23.091 -0.0197  0.0198  0.1698
26187W        W69100   3.729  12.411  25.450 -0.0117  0.0100 -0.0646
26188W        W69101   5.169   4.977  20.069 -0.0067 -0.0010  0.0048
26189W        W69102   9.891  10.175  27.596  0.0529 -0.2279 -0.1332
26190W        W69103  12.673  26.761  29.152 -0.0267  0.2056  0.0705
26191W        W69104  16.370   4.792  19.729  0.2155  0.0496 -0.0665
26192W        W69105   6.347  12.375   6.390 -0.0338 -0.0569 -0.4547
26193W        W69106  34.133  13.674  28.211  0.1750  0.2582  0.4153
26194W        W69107   7.097  24.767   5.528  0.0779  0.0582  0.1964
26195W        W69108   5.091  16.771  21.736 -0.0188  0.2890  0.2165
26196W        W69109   0.969   7.281  23.392 -0.0487  0.2794  0.2162
26197W        W69110  12.593  12.805  24.873  0.0972  0.1884 -0.0044
26198W        W69111   9.233  13.125   7.477 -0.2380 -0.2887 -0.2127
26199W        W69112  32.521  14.595  26.489  0.3152  0.2026 -0.1589
26200W        W69113  12.577  20.650  23.181 -0.2599  0.0510  0.1573
26201W        W69114   5.797  17.706  27.427  0.5225  0.1089 -0.4169
26202W        W69115   5.546  13.798   8.707  0.0592  0.0939  0.2309
26203W        W69116  31.155   2.747  28.718 -0.0072  0.0780  0.0508
26204W        W69117  32.546  16.541  28.449  0.1812  0.1597 -0.0028
26205W        W69118   2.885  25.218  27.070  0.2574  0.0679 -0.0365
26206W        W69119  10.864  22.265  28.638 -0.2735  0.0919 -0.0183
26207W        W69120   3.298  16.145   4.858  0.0888 -0.2087 -0.0236
26208W        W69121  32.271  13.495   4.152  0.0108  0.0140  0.2871
26209W        W69122   7.006  12.879   5.416 -0.1429 -0.2241 -0.0814
26210W        W69123  31.768   7.876  25.343  0.3849 -0.4389 -0.1258
26211W        W69124   0.981  14.612  16.321  0.1684 -0.2649  0.2139
26212W        W69125   7.600  12.034  27.485  0.1887 -0.2569 -0.0887
26213W        W69126  31.360  31.464   9.094  0.4271 -0.1852  0.0352
26214W        W69127   8.206  18.056   3.894 -0.1835  0.1286  0.2087
26215W        W69128  14.590  14.939  24.090  0.1033  0.0131 -0.3411
26216W        W69129   9.527  14.994  26.640 -0.0193 -0.1379  0.1515
26217W        W69130  31.685  21.668  18.454  0.1726  0.0299  0.1928
26218W        W69131  12.932  18.337   4.797  0.3913 -0.1616  0.1872
26219W        W69132  32.524  13.627  25.658  0.0209 -0.0639 -0.2509
26220W        W69133  29.351  16.592   7.685 -0.2555  0.0260  0.1344
26221W        W69134  23.804  14.987  25.568  0.2849  0.2378 -0.0175
26222W        W69135  25.310  12.143  28.615  0.0979  0.0765  0.3595
26223W        W69136   4.306  12.389  29.518  0.1221  0.1225 -0.2647
26224W        W69137  31.605  15.420  23.073  0.2284 -0.0558  0.3320
26225W        W69138   9.176  15.470   8.813 -0.2030  0.5409 -0.2570
26226W        W69139  20.225  14.127  20.706 -0.0045  0.1155 -0.2311
26227W        W69140   5.241  15.460  25.693  0.0893  0.3602  0.3682
26228W        W69141   6.033   7.033  28.877  0.0008 -0.1689 -0.1951
26229W        W69142   9.404  15.044  27.125  0.3101  0.2030 -0.1931
26230W        W69143   6.857  23.255  29.748 -0.1740 -0.1181  0.5020
26231W        W69144  29.078  19.392   0.278  0.0497  0.1251  0.1863
26232W        W69145  27.117   8.990  28.686 -0.1007 -0.1112 -0.0971
26233W        W69146   4.780  18.978  21.917  0.1005 -0.1252  0.3218
26234W        W69147   1.722  11.521   2.306  0.3171 -0.3467  0.1497
26235W        W69148   2.001  19.414  21.946  0.0681  0.0621  0.3497
26236W        W69149  34.088   7.482   2.093 -0.0750 -0.2445  0.1417
26237W        W69150  10.317   5.854  22.112 -0.2408  0.1079  0.0706
26238W        W69151  12.540   7.929  21.786  0.0646 -0.1303  0.0859
26239W        W69152  33.794  20.353   1.996 -0.1130  0.1339  0.5035
26240W        W69153  30.619  10.995  18.154 -0.0650  0.2690 -0.1540
26241W        W69154  19.546  16.338  23.596  0.2807 -0.3310  0.4426
26242W        W69155   6.635  12.792   7.132  0.1050  0.0016 -0.0884
26243W        W69156  10.937  27.177  21.962 -0.0959  0.0216  0.0378
26244W        W69157   6.424  12.293  25.701 -0.0550 -0.2005 -0.1315
26245W        W69158   9.323  28.334  16.606 -0.1307  0.0723  0.0981
26246W        W69159  17.652  11.637  12.865  0.2384 -0.4393 -0.0053
26247W        W69160   3.809  16.099  24.097 -0.0970 -0.0484 -0.0176
26248W        W69161  11.776  18.182   1.906 -0.0654 -0.0425  0.1093
26249W        W69162   4.181  19.800  28.016 -0.0537  0.0088  0.1380
26250W        W69163   9.657   9.872   6.390 -0.1173 -0.2550  0.0584
26251W        W69164   6.728   7.425  25.279  0.0317 -0.0818 -0.0548
26252W        W69165  32.307  23.156  28.950 -0.0252  0.1183 -0.0365
26253W        W69166   8.939   8.379   4.656  0.1723  0.0568 -0.0777
26254W        W69167   3.976   8.677  21.960 -0.1782  0.3282 -0.0840
26255W        W69168  31.201  13.989  22.760  0.1951  0.2120 -0.3362
26256W        W69169  10.585  14.108  22.917  0.0975  0.1421  0.3751
26257W        W69170  31.322  29.168  23.487  0.1668  0.2877 -0.2815
26258W        W69171   6.184  18.194   4.611 -0.0786  0.2121 -0.0229
26259W        W69172   3.309   6.924  18.281 -0.0896 -0.2439 -0.1537
26260W        W69173   6.909  20.440  20.595  0.1914 -0.0834 -0.3439
26261W        W69174  31.323   9.167  27.018  0.3037  0.4322  0.0198
26262W        W69175  28.720  20.262   4.029  0.2011  0.3425  0.0425
26263W        W69176  15.605  11.425  26.218  0.0647  0.1447  0.1656
26264W        W69177   6.459  14.044   6.959 -0.0134  0.2206  0.0665
26265W        W69178  20.106   5.964  23.432  0.0169  0.2164  0.2271
26266W        W69179  12.667  15.589   3.052  0.0464  0.0436  0.0436
26267W        W69180   5.217   6.203  22.415 -0.2549  0.2543 -0.1138
26268W        W69181  10.154   7.662  27.634 -0.0719  0.0011 -0.1826
26269W        W69182   6.967  18.178  19.217 -0.0918  0.0931  0.0340
26270W        W69183   2.747   6.694   6.137 -0.4464 -0.0600  0.2543
26271W        W69184  32.227   4.885  25.222  0.1890 -0.0981 -0.1137
26272W        W69185   8.302  19.568  25.668  0.1175  0.3441 -0.3726
26273W        W69186  31.951   1.549  27.450 -0.1223  0.0307 -0.1895
26274W        W69187  11.966  27.281   0.364  0.0401 -0.0028 -0.0201
26275W        W69188   1.497  19.130  25.438 -0.1427 -0.0016 -0.3511
26276W        W69189   8.235   5.969  24.762  0.0533  0.4226  0.0833
26277W        W69190  32.358   7.264   1.519  0.0148  0.1666  0.1061
26278W        W69191   5.401  10.833  17.439  0.0158  0.2813  0.1059
26279W        W69192   7.463  28.243  24.507  0.0297  0.1246 -0.0168
26280W        W69193  12.073  14.288  25.153 -0.2830  0.1219  0.0026
26281W        W69194  33.765  28.374  14.961  0.0142  0.1742 -0.2507
26282W        W69195   7.881   9.756  25.426  0.2183 -0.0896  0.2802
26283W        W69196   5.369  23.384  23.690  0.0142 -0.0494  0.0593
26284W        W69197  29.151  16.723  25.003 -0.2871 -0.0169  0.1416
26285W        W69198   1.769   8.177  26.038  0.3382 -0.0931  0.0707
26286W        W69199   4.349  17.049   6.308 -0.2593  0.1266  0.0956
26287W        W69200  10.493   1.047  19.237  0.1005  0.1046  0.1574
26288W        W69201   2.118  16.616  27.323  0.2888 -0.0930  0.3501
26289W        W69202  13.514  11.348  17.789 -0.0853  0.3742 -0.2335
26290W        W69203   8.648  15.458  18.715  0.0589 -0.1878  0.1549
26291W        W69204   6.556   4.063   1.914 -0.3048 -0.1123 -0.1360
26292W        W69205   2.726  12.034  24.628  0.1226 -0.1734  0.0732
26293W        W69206  15.192  16.303  28.139 -0.1242 -0.2095  0.0484
26294W        W69207   6.618   6.992  26.305 -0.3553 -0.0627  0.1159
26295W        W69208   5.540  12.697   3.433  0.0634 -0.3796  0.0168
26296W        W69209   6.954  17.351  23.308 -0.1634  0.0392 -0.2751
26297W        W69210   7.200  19.333  17.279 -0.1367  0.0373 -0.4580
26298W        W69211   6.269  10.228  25.354 -0.1156  0.0140 -0.1206
26299W        W69212  33.593  10.465   8.489  0.3600 -0.1827  0.1267
26300W        W69213   6.415  17.341  19.971  0.2509  0.0140 -0.1502
26301W        W69214  11.850  34.009  26.070  0.3005 -0.1616  0.1118
26302W        W69215  14.240  17.737   4.045 -0.2181  0.2173 -0.1903
26303W        W69216  15.524  13.749  25.718  0.1157 -0.4084  0.4976
26304W        W69217  30.977  21.586  29.350 -0.2559 -0.0288 -0.0278
26305W        W69218  24.224  20.458  27.643 -0.0149  0.2124  0.1013
26306W        W69219  11.965  13.584  28.405  0.0356 -0.0423  0.2724
26307W        W69220  13.632  16.922  21.530  0.1869 -0.1360 -0.0817
26308W        W69221   9.536  15.863  24.642 -0.0317 -0.3035 -0.0607
26309W        W69222   4.142   8.857  26.478  0.0250  0.1699  0.1877
26310W        W69223   7.750  10.961  18.932 -0.3835 -0.2835 -0.1139
26311W        W69224   4.732   4.952  18.801  0.1058  0.2564  0.3126
26312W        W69225  12.731  14.741  24.074 -0.2549  0.1053 -0.3180
26313W        W69226   6.478  18.658  16.611 -0.0582  0.1021  0.2025
26314W        W69227   9.431  16.646  19.353  0.3580 -0.1137  0.2707
26315W        W69228  33.973  14.526  28.174 -0.1238  0.1087  0.1448
26316W        W69229  32.050  18.375   3.507 -0.1346 -0.4451 -0.1881
26317W        W69230   5.624  27.989   4.607  0.0922  0.0628 -0.1163
26318W        W69231  11.427  25.596   0.638 -0.0879 -0.0090 -0.0751
26319W        W69232  31.217  11.989  28.579  0.1884  0.1011 -0.0337
26320W        W69233  15.319  16.276  27.243 -0.0533 -0.1042 -0.1948
26321W        W69234  14.806  10.592  25.919  0.0518 -0.1854 -0.0163
26322W        W69235  11.453  17.649  29.172  0.2467  0.0018 -0.0823
26323W        W69236   4.506  13.924  19.869 -0.0762  0.0622  0.2190
26324W        W69237  13.671  17.467  28.523 -0.2908 -0.2786 -0.2041
26325W        W69238  32.704  21.445   5.673  0.4749  0.1896  0.1568
26326W        W69239   9.536  13.215  27.282  0.0057 -0.4958 -0.0936
26327W        W69240  11.073  25.553   4.712  0.0357  0.0691  0.0427
26328W        W69241   5.422   4.367  22.990  0.4088 -0.0777 -0.0148
26329W        W69242  29.738  12.314  25.689 -0.0045  0.2139  0.2538
26330W        W69243   8.165  31.069   3.635 -0.1077 -0.1543 -0.0501
26331W        W69244   4.837  10.443   4.856 -0.1897 -0.2700 -0.0092
26332W        W69245   3.428  16.271   2.377  0.0124 -0.1930  0.2441
26333W        W69246  10.702  18.059   1.592  0.1342  0.1106  0.2945
26334W        W69247  12.125  23.972  15.536  0.1953  0.0171 -0.1380
26335W        W69248  13.226  17.062   0.445  0.0096 -0.4760  0.1099
26336W        W69249   6.663  17.789  22.298  0.2227 -0.0073  0.3803
26337W        W69250   5.072  10.288  27.509 -0.1597  0.2970 -0.2247
26338W        W69251   1.747  14.317  29.255  0.3102 -0.0134 -0.1591
26339W        W69252   6.065  16.508  26.835  0.1354 -0.2073  0.1060
26340W        W69253   5.269  18.246   2.033 -0.0937  0.0452 -0.0695
26341W        W69254   7.105  25.151  21.323 -0.1178  0.0260 -0.2212
26342W        W69255   8.107   8.511  25.628 -0.0284 -0.2094  0.1840
26343W        W69256   9.048  10.970  28.280 -0.3848 -0.1143  0.1692
26344W        W69257  11.263  13.458  23.054  0.2344  0.0132  0.0939
26345W        W69258   5.859  17.328  25.495  0.2801  0.0044 -0.1365
26346W        W69259  28.347  15.174   4.186 -0.0853 -0.0198  0.2407
26347W        W69260   5.872  14.264   5.810  0.1849  0.0173  0.1130
26348W        W69261   7.003  19.909  25.849  0.1269  0.1490 -0.0086
26349W        W69262  32.147  14.931   0.493  0.1419 -0.0644 -0.0314
26350W        W69263   2.629  20.025  24.445  0.2195  0.2545 -0.2063
26351W        W69264   3.995  12.822  24.829 -0.0834  0.0255  0.1273
26352W        W69265   5.638  17.799   9.076 -0.2549  0.0301 -0.2650
26353W        W69266  12.977  12.565  20.321 -0.1968  0.1541  0.1623
26354W        W69267   3.872  16.997  23.421  0.0113  0.2246  0.1681
26355W        W69268   5.279  11.140   3.603  0.0781 -0.0908  0.0683
26356W        W69269   1.765   8.719  29.411  0.0498  0.0002 -0.1361
26357W        W69270  34.322  23.816   8.048  0.1061 -0.1549 -0.1652
26358W        W69271   0.332  12.423  23.145 -0.0127  0.0048 -0.2596
26359W        W69272   8.909   7.696  21.601 -0.1916 -0.1597  0.0234
26360W        W69273  31.328  13.817  29.775  0.0343 -0.0617  0.1031
26361W        W69274   5.735  15.467  28.170  0.0129 -0.0367  0.1373
26362W        W69275  33.615  15.472  28.514 -0.2243 -0.4262 -0.1373
26363W        W69276   1.428   1.418   4.115 -0.2554  0.0226  0.0524
26364W        W69277   1.302  17.666   1.063 -0.2978  0.0012 -0.1599
26365W        W69278  30.801  15.154  16.668  0.1659  0.0095  0.0158
26366W        W69279  32.503  11.266  15.680 -0.0857 -0.0333 -0.0529
26367W        W69280   4.167   2.199   3.535  0.0296  0.3062 -0.2346
26368W        W69281   6.642  22.954   5.996 -0.2500  0.1370  0.0198
26369W        W69282  10.371  10.535   2.524  0.2493  0.1394 -0.1100
26370W        W69283  17.914   8.828  22.529 -0.2386 -0.2791 -0.2292
26371W        W69284   5.378  23.830  29.530  0.0566 -0.0960  0.1684
26372W        W69285   6.717   6.791  27.308 -0.1809  0.0547  0.1817
26373W        W69286  31.353  10.709  22.103 -0.5190 -0.3913 -0.3046
26374W        W69287   9.932  17.045  18.467 -0.2284  0.1462 -0.1253
26375W        W69288  11.965  15.351  23.661 -0.1246  0.2331 -0.0379
26376W        W69289  32.959   8.673  26.516 -0.3248 -0.2187  0.0884
26377W        W69290   8.198   4.134  25.588 -0.0073 -0.2470 -0.4117
26378W        W69291   1.726  17.488   1.653  0.1179  0.4595 -0.2968
26379W        W69292   1.084   6.227  26.185  0.1084  0.0247 -0.1464
26380W        W69293  14.064  19.107  22.388  0.1926 -0.1045  0.0319
26381W        W69294   3.526  14.558   3.096 -0.0726 -0.1033  0.0784
26382W        W69295   8.661  20.711  25.057  0.1125  0.0884 -0.4283
26383W        W69296  12.605   9.585   5.194  0.0982 -0.0741 -0.0820
26384W        W69297  14.848  14.829  29.045 -0.1333 -0.0532 -0.0110
26385W        W69298   6.756  11.803  19.433 -0.1836  0.2038  0.0134
26386W        W69299  14.092   5.449  25.468 -0.0773 -0.1004 -0.2011
26387W        W69300   3.820  15.464  18.343 -0.1814  0.0486  0.2020
26388W        W69301   6.742   5.482  21.123  0.1532 -0.2019  0.0384
26389W        W69302  13.725  14.530  17.741  0.0015 -0.0060 -0.2095
26390W        W69303   9.728   4.642  19.145  0.1340 -0.0134  0.2864
26391W        W69304   3.256   7.585  19.460  0.1416 -0.1487  0.2131
26392W        W69305  12.239   2.793  22.738  0.0953  0.0632 -0.0712
26393W        W69306   8.182  20.284   7.509 -0.0720 -0.0432 -0.1252
26394W        W69307   7.093  18.833   3.022 -0.0879 -0.0349  0.0869
26395W        W69308   7.934  10.773   2.581  0.1280  0.0148  0.3036
26396W        W69309  11.416  29.443   0.646 -0.3119  0.0811 -0.0169
26397W        W69310  11.083   9.623  24.245  0.2666  0.2134 -0.0786
26398W        W69311   7.913  11.290   9.188 -0.1600 -0.2056  0.1999
26399W        W69312   8.647  14.854   1.497  0.1921 -0.3046  0.2809
26400W        W69313  12.882  10.353  16.909  0.0934 -0.0248 -0.0874
26401W        W69314   2.399  12.975   0.789  0.0716  0.0270  0.0675
26402W        W69315   8.261  16.711  23.007 -0.1556 -0.1913 -0.1283
26403W        W69316  23.417  34.042   2.029 -0.3502 -0.0512 -0.0392
26404W        W69317  32.206  15.949  24.617  0.2512 -0.2054  0.1146
26405W        W69318  22.060   6.920   4.020 -0.0250 -0.1978  0.0211
26406W        W69319  16.898  11.425  20.293  0.0291  0.0190  0.0299
26407W        W69320  14.821  20.882  12.105  0.0733 -0.1853 -0.1320
26408W        W69321   3.519   7.958  26.586  0.0507 -0.2272 -0.0870
26409W        W69322  24.565  14.990   6.305 -0.0555  0.0062 -0.1334
26410W        W69323   1.900  15.749  21.467  0.1093 -0.1601 -0.1141
26411W        W69324  12.745  10.599  21.650 -0.0219  0.1344  0.0608
26412W        W69325   5.631   9.197   6.829 -0.0442  0.0774 -0.1960
26413W        W69326  32.151   7.382   3.656  0.1102 -0.0434 -0.0386
26414W        W69327  31.039   2.307  20.664  0.0204 -0.1678  0.2653
26415W        W69328   4.014  11.936  25.457 -0.1692 -0.0042  0.1107
26416W        W69329  32.229   8.211  29.765  0.2085  0.1749 -0.1083
26417W        W69330  34.188  12.006   6.379 -0.2716  0.1056  0.1030
26418W        W69331   8.105  20.940   2.622  0.0647 -0.3287 -0.0285
26419W        W69332  10.886  11.334  17.565  0.3006 -0.1586 -0.1901
26420W        W69333  33.959   7.293  28.569 -0.1437 -0.0638  0.0876
26421W        W69334   6.318  23.552  18.509  0.1757  0.0501 -0.2364
26422W        W69335  13.155  33.992  12.980  0.1159  0.0873  0.1338
26423W        W69336   6.462  18.897  25.309 -0.0984 -0.1767 -0.1061
26424W        W69337  15.972  10.734  23.693  0.0916  0.3849 -0.0157
26425W        W69338  12.086  20.357   0.045 -0.0410  0.1890 -0.0410
26426W        W69339   7.198  12.024   6.750  0.1744 -0.0586 -0.2165
26427W        W69340  23.704  21.861  27.860 -0.0761 -0.0922  0.2080
26428W        W69341   3.165  21.956  27.576  0.2370  0.1928 -0.5105
26429W        W69342   5.835  12.325   3.313 -0.0750  0.3097 -0.1024
26430W        W69343  10.041  20.472   1.504  0.1936 -0.1134  0.1421
26431W        W69344   7.457   7.373  28.243 -0.1760 -0.1062  0.3566
26432W        W69345  34.237   6.326  23.285  0.3527 -0.1875  0.0100
26433W        W69346   7.541  11.537  18.392  0.1434  0.1699  0.1156
26434W        W69347  10.957  19.339  24.030 -0.1667  0.0391 -0.1632
26435W        W69348  10.144  12.935  26.105  0.1912  0.1641  0.1483
26436W        W69349   9.963   5.718  24.374 -0.2258  0.1993  0.1100
26437W        W69350   4.099  23.846  29.041 -0.1443  0.1575  0.0997
26438W        W69351   5.970  11.236  26.029 -0.6720 -0.0143  0.2512
26439W        W69352  10.659  15.364  22.863 -0.2840 -0.0964 -0.1640
26440W        W69353   2.487   7.997   0.693 -0.0801 -0.1885 -0.1124
26441W        W69354   5.836  24.089  26.392  0.0647 -0.1608 -0.0525
26442W        W69355   9.217  13.617  29.668 -0.1450 -0.3331 -0.1055
26443W        W69356   5.824  16.623   0.280 -0.1286 -0.2667  0.1579
26444W        W69357  25.390  14.174  26.434  0.1048  0.1748 -0.0346
26445W        W69358  17.632  13.191   0.807 -0.0330 -0.1746  0.0033
26446W        W69359   7.341   2.506   4.750  0.1545  0.1809 -0.1002
26447W        W69360  14.235  14.380  29.450 -0.2054  0.1556 -0.2792
26448W        W69361   3.738  17.423  26.565 -0.0342 -0.1002  0.0475
26449W        W69362  33.279   8.588  28.018  0.2412 -0.0308  0.2022
26450W        W69363   4.735   9.338  22.625  0.0424 -0.0657 -0.3304
26451W        W69364   2.831  14.178   1.714  0.1089 -0.3524  0.0626
26452W        W69365   4.827  12.874  27.387  0.0412 -0.0538 -0.1689
26453W        W69366   3.791   9.211   1.346  0.1411 -0.1669 -0.0069
26454W        W69367  33.717  33.419   0.832  0.1401  0.0239 -0.0489
26455W        W69368  13.085   3.418   3.395 -0.3568 -0.0023 -0.1440
26456W        W69369   3.189  21.540   3.342  0.1806 -0.1370  0.2318
26457W        W69370   4.250  16.903  27.227  0.0636  0.0354  0.2092
26458W        W69371   7.222  14.520  28.533  0.1136  0.1680 -0.2493
26459W        W69372   2.477  11.161  27.315 -0.2443 -0.0731  0.2175
26460W        W69373  17.946  22.531  17.450 -0.2853 -0.0213 -0.3303
26461W        W69374  27.183  12.377  13.477 -0.0316  0.1232  0.0997
26462W        W69375  32.862  10.647   4.758 -0.0886 -0.3352  0.1630
26463W        W69376  17.478  19.921  29.155 -0.0446  0.0702  0.0807
26464W        W69377  10.850  18.035   3.621  0.0262 -0.1595  0.0068
26465W        W69378   1.732  18.552   4.335  0.1406  0.2546 -0.1149
26466W        W69379  14.209  20.513  23.266 -0.1703 -0.5362 -0.0123
26467W        W69380  15.556   7.462   2.001  0.0304 -0.1746  0.0251
26468W        W69381   8.854   9.993  23.096  0.0938 -0.4441  0.0192
26469W        W69382  13.475  12.420  23.529  0.1361 -0.2402  0.0042
26470W        W69383   6.792  12.515   1.803  0.2889 -0.1626  0.1727
26471W        W69384  13.850   8.751   0.610  0.1359  0.2348  0.1972
26472W        W69385   9.078  19.069  25.377  0.0083  0.0417 -0.1290
26473W        W69386  32.424   8.583   0.266  0.0155  0.1783 -0.4799
26474W        W69387  14.009  33.560  23.511 -0.0780 -0.0333 -0.1235
26475W        W69388  27.128  21.713   5.770  0.1297  0.3010 -0.2033
26476W        W69389   9.387   9.526   0.900  0.0865  0.3451  0.0716
26477W        W69390   0.083   8.914  27.834  0.1552  0.6158 -0.2614
26478W        W69391  31.114  11.086  27.642 -0.1700  0.2224  0.2664
26479W        W69392  13.587   9.965  24.147  0.0655 -0.0255  0.0299
26480W        W69393   2.435  21.685   7.211 -0.0019 -0.1720 -0.0949
26481W        W69394  28.150   4.662   3.194 -0.1343 -0.0803 -0.1698
26482W        W69395  29.197  17.274   4.810  0.1198 -0.0184  0.3535
26483W        W69396   2.347   5.595  28.799 -0.0769 -0.2840  0.1371
26484W        W69397  16.039  17.655  29.637 -0.1373 -0.3325  0.0496
26485W        W69398  27.922  13.060  25.955 -0.1828  0.0471  0.0665
26486W        W69399   3.022   3.639   8.558 -0.0171 -0.1309  0.2240
26487W        W69400   8.640   5.414   6.546  0.2421 -0.1546 -0.0679
26488W        W69401  15.117  12.683   0.768  0.0774 -0.2680 -0.0033
26489W        W69402   6.732  26.440  25.426  0.1491 -0.1970  0.0473
26490W        W69403   5.401  17.706  26.543  0.3532 -0.1013  0.0630
26491W        W69404   3.539  12.977   3.824 -0.1430 -0.0703 -0.0610
26492W        W69405  18.837  11.366   1.836 -0.0624 -0.2064 -0.0227
26493W        W69406   2.965   5.896  27.569  0.0889  0.4229  0.0428
26494W        W69407  19.878   0.950  25.943 -0.2524 -0.1410  0.0070
26495W        W69408   1.400   8.732   8.499 -0.1183 -0.0674 -0.5729
26496W        W69409   9.875  17.230   7.875  0.1554  0.0073 -0.0873
26497W        W69410   2.906  15.701  25.769  0.1211  0.1175  0.3060
26498W        W69411  13.024  31.481   2.010  0.2817 -0.0159 -0.2902
26499W        W69412   6.100  10.686   5.521 -0.0825  0.1216 -0.0551
26500W        W69413  13.398   0.845  21.394  0.2074 -0.0419  0.1217
26501W        W69414  31.999  15.358  25.235 -0.0089  0.4914 -0.0541
26502W        W69415  11.706  26.311   1.174 -0.0651 -0.1812 -0.0348
26503W        W69416   5.012  11.143   1.447  0.0100 -0.4034  0.0659
26504W        W69417   4.698  15.178   1.802  0.1486 -0.1900 -0.1011
26505W        W69418  12.021  17.042   5.845 -0.0761 -0.1167 -0.1285
26506W        W69419  13.560   2.064  24.106  0.1831  0.1675  0.0258
26507W        W69420  18.846  16.450  22.837 -0.3577  0.0101 -0.1079
26508W        W69421   9.372  12.170  21.657  0.2290 -0.0595 -0.2362
26509W        W69422   1.953   1.212  26.028  0.0778 -0.0654  0.1035
26510W        W69423   3.783  18.374   8.915 -0.2786  0.3962 -0.1553
26511W        W69424  12.880  22.572  29.664  0.0695 -0.2874  0.2097
26512W        W69425   4.632  25.664  20.781  0.0176  0.0936  0.0040
26513W        W69426   3.523   4.151   3.020 -0.0309  0.0090  0.2040
26514W        W69427  16.048  21.450   8.522 -0.3494 -0.0440 -0.0434
26515W        W69428  31.359   9.046   1.599  0.0521 -0.2371 -0.1349
26516W        W69429  10.784  15.527   2.030  0.3151  0.0315 -0.1725
26517W        W69430   4.190  15.946   4.370  0.0180 -0.0440 -0.2288
26518W        W69431  13.039   8.280  28.463 -0.0185 -0.0668 -0.0848
26519W        W69432   1.850  12.191  16.637 -0.0170  0.0734 -0.0751
26520W        W69433   8.931  13.956  26.302 -0.0278 -0.0428  0.0210
26521W        W69434  11.446  14.960  19.086  0.0402 -0.0722 -0.1157
26522W        W69435   3.782   4.747  25.386  0.0486 -0.1548 -0.0898
26523W        W69436  23.486  12.817  23.427 -0.0357 -0.0338 -0.0580
26524W        W69437  28.911  17.034  28.946  0.1506  0.2102 -0.1016
26525W        W69438   7.032  12.218   4.238 -0.1435 -0.3013  0.0189
26526W        W69439  10.606  20.867   0.321  0.0527  0.1980  0.1650
26527W        W69440   5.402  12.581  28.746 -0.2697 -0.2233 -0.1405
26528W        W69441  14.116   5.701  20.959 -0.2598  0.3117 -0.0926
26529W        W69442  22.028  25.902  18.979 -0.4223  0.1537  0.1532
26530W        W69443   5.688  12.602  20.098  0.2120 -0.1174  0.2963
26531W        W69444   6.738  25.224  20.569 -0.4940  0.1159 -0.1611
26532W        W69445   5.135  22.272  16.944  0.1172 -0.1167 -0.3716
26533W        W69446  31.136   7.333  17.860  0.0719 -0.3360 -0.0959
26534W        W69447   5.556  22.967  16.396 -0.0686  0.1276 -0.0182
26535W        W69448  11.272   2.119  22.134  0.0040 -0.0807 -0.0250
26536W        W69449   2.785  20.040  28.570  0.0930 -0.0010 -0.3207
26537W        W69450   7.165  18.864  19.693  0.0113 -0.0236 -0.1407
26538W        W69451   7.215  17.629  26.403  0.1184  0.0108  0.2222
26539W        W69452  15.503   6.602  18.661 -0.3311  0.3879 -0.1488
26540W        W69453   5.966  10.650  18.488  0.2539  0.1969 -0.0367
26541W        W69454  32.862  11.653  15.592  0.1211 -0.0291 -0.1291
26542W        W69455  27.621  14.347  17.328  0.1955 -0.2442 -0.1594
26543W        W69456  15.704  11.981  19.554 -0.1564 -0.3204  0.2507
26544W        W69457  10.139  18.327  20.377  0.2583  0.0975  0.0768
26545W        W69458  24.135  29.447  27.312  0.1693  0.0355 -0.2405
26546W        W69459   0.219  24.570  18.515 -0.0640  0.0140 -0.1316
26547W        W69460  33.055  23.837  20.774  0.1948  0.0383 -0.2007
26548W        W69461  12.216  25.598  22.787  0.1328  0.2127 -0.3025
26549W        W69462   4.762  17.110  17.116 -0.4863  0.0855  0.1185
26550W        W69463  32.876  25.397   0.982  0.2158 -0.2606 -0.0185
26551W        W69464   9.509  14.962  13.802 -0.0876  0.1824 -0.1690
26552W        W69465  28.866   9.826  16.694  0.0296 -0.0878  0.0803
26553W        W69466   4.862  16.298  17.611 -0.1066  0.1073 -0.1921
26554W        W69467  18.978  14.663  13.461 -0.0137  0.2576 -0.3211
26555W        W69468   1.282  18.098  27.766  0.2683  0.1135  0.1749
26556W        W69469   6.051  21.280  15.944  0.2331  0.1070 -0.2695
26557W        W69470   3.980  17.694  15.281  0.1730  0.0481  0.0217
26558W        W69471  14.356  19.059  13.864 -0.0487  0.3484  0.1948
26559W        W69472   1.239  17.138  17.569 -0.1073 -0.1365 -0.1315
26560W        W69473  31.504  20.625  19.276  0.1350 -0.0050  0.1602
26561W        W69474   1.896  14.504  19.399 -0.0402 -0.2218 -0.3035
26562W        W69475   7.085   9.325  21.557  0.1331 -0.1972  0.2733
26563W        W69476  11.224  21.192  22.013 -0.1335 -0.1332 -0.0580
26564W        W69477   5.938  20.266  17.121  0.0213  0.2147 -0.2550
26565W        W69478   2.670   4.907   2.366  0.0548  0.0334  0.3199
26566W        W69479  13.325  16.929  12.254 -0.0822 -0.0431 -0.0160
26567W        W69480   5.028  11.233  20.739  0.1400  0.0031  0.0330
26568W        W69481   7.453   7.397  27.259 -0.1907 -0.2282 -0.0967
26569W        W69482   7.489  20.872  18.848  0.3643 -0.0064 -0.2319
26570W        W69483  23.631  27.194  17.067  0.0087  0.1584  0.0714
26571W        W69484   6.333  14.876   1.041  0.2658 -0.1654 -0.1136
26572W        W69485   3.779  21.991  13.723 -0.2434  0.0096  0.2509
26573W        W69486  32.882  22.073  14.005  0.0453  0.0982  0.0801
26574W        W69487   6.780  18.064  24.564  0.1901 -0.1338 -0.0257
26575W        W69488   5.508  15.601  17.361 -0.1213  0.1265 -0.2075
26576W        W69489   5.503  17.218  24.659 -0.2407  0.1626  0.2407
26577W        W69490   1.393  21.258  15.797  0.0831 -0.0925  0.2637
26578W        W69491   8.611  17.522  15.542  0.0114 -0.0511  0.0003
26579W        W69492  32.006  10.538  18.802  0.0166 -0.0823  0.0566
26580W        W69493   6.934  13.167  16.305  0.0187 -0.0197  0.1552
26581W        W69494   5.321  16.340  22.586  0.3603  0.1856  0.1441
26582W        W69495   7.329  20.961   1.737  0.0070  0.1303 -0.0933
26583W        W69496  10.923  18.178  13.961  0.0469 -0.1729  0.0106
26584W        W69497   5.222  10.795  16.908 -0.0074 -0.3519 -0.0150
26585W        W69498   5.071  11.665  24.039 -0.0476  0.1113  0.0037
26586W        W69499  11.573  12.992  20.748  0.0105  0.0199  0.1895
26587W        W69500  31.649  25.405  21.562  0.0062 -0.0899 -0.1492
26588W        W69501  30.509  30.787   3.726  0.0765  0.0671  0.0615
26589W        W69502   7.452  23.402  23.769 -0.1301 -0.1283  0.0031
26590W        W69503   4.610  15.224  15.789  0.3368  0.1607  0.0076
26591W        W69504   0.905  12.017  17.024  0.2896 -0.0963  0.3438
26592W        W69505  28.586   5.499  17.761 -0.1454  0.0955  0.3469
26593W        W69506   0.658  22.874  15.963 -0.2229  0.1561 -0.2638
26594W        W69507  34.171  17.430  25.418 -0.1860  0.1057 -0.0664
26595W        W69508   4.261   7.507  21.174 -0.0943 -0.1870  0.1627
26596W        W69509  34.480  31.769  19.675  0.2862 -0.0377 -0.0228
26597W        W69510   3.580  17.866  14.326 -0.1618  0.0463  0.4739
26598W        W69511   8.033  21.622  16.770 -0.0659 -0.3444  0.0448
26599W        W69512  14.248  24.610  20.278 -0.3448  0.2578  0.3484
26600W        W69513  15.215  14.469  11.705 -0.0379  0.4449 -0.3226
26601W        W69514   6.871  26.562  18.039 -0.2316 -0.3511 -0.2306
26602W        W69515   2.860  15.951  14.650  0.0592 -0.0900 -0.2582
26603W        W69516   8.618  23.481  18.918 -0.2962 -0.1980 -0.1562
26604W        W69517  10.709  16.758  14.206  0.0040  0.1527  0.0573
26605W        W69518  25.790   9.859  15.908  0.2553  0.1164  0.1516
26606W        W69519  17.939  10.973  14.283 -0.3082 -0.1803 -0.2215
26607W        W69520  14.856  14.328  17.728  0.3248  0.1830  0.0289
26608W        W69521   7.136  20.623  16.784  0.0974 -0.0851  0.0828
26609W        W69522   1.140  29.468  17.550  0.2325 -0.0859 -0.3110
26610W        W69523   9.168  27.310  18.449 -0.1018 -0.1593  0.0540
26611W        W69524  13.002  23.572   1.847 -0.3296  0.0967  0.0328
26612W        W69525  25.780  17.442  17.563 -0.1363 -0.0415  0.0007
26613W        W69526   1.758  13.254  14.860 -0.1534 -0.0744  0.2217
26614W        W69527  16.879   9.982  21.543  0.0842  0.1413  0.0712
26615W        W69528  30.470   2.395  17.246 -0.3059  0.2372  0.2180
26616W        W69529   7.635  21.023  19.735 -0.2442 -0.0722  0.1254
26617W        W69530  10.558  19.129  18.621 -0.2398 -0.1676  0.1337
26618W        W69531  12.834   9.099  24.931  0.3961  0.0316  0.1286
26619W        W69532  33.863  21.687  18.509 -0.1144 -0.1876  0.1735
26620W        W69533  13.716  16.457  22.157 -0.2070  0.1066  0.2424
26621W        W69534  24.791  21.326  20.917  0.1400 -0.1964 -0.0026
26622W        W69535  28.044  25.422  19.147 -0.0243  0.0486 -0.2310
26623W        W69536   3.666  12.975  20.210  0.1310 -0.3409 -0.1940
26624W        W69537   1.310   9.998  19.734  0.2980  0.2847 -0.0247
26625W        W69538   6.195  17.086  28.306 -0.0441 -0.2701  0.0612
26626W        W69539  28.551  14.477  22.061 -0.2051 -0.0627 -0.1139
26627W        W69540   2.089  13.161  19.634 -0.1116  0.1135  0.0580
26628W        W69541   6.888  23.789  23.340 -0.0819 -0.4184  0.2618
26629W        W69542   5.411  13.600  15.569  0.1914 -0.2521  0.6344
26630W        W69543  33.081  13.112  17.783  0.2407  0.2019  0.1386
26631W        W69544  10.313  17.350  28.217  0.3143 -0.2694 -0.2503
26632W        W69545  15.330  23.731  20.320  0.1936 -0.0132 -0.1551
26633W        W69546   5.616  29.311  20.657  0.0706 -0.2348  0.1566
26634W        W69547   1.962  32.192  17.857  0.0061 -0.1697 -0.0666
26635W        W69548  31.179   8.367  17.472  0.0344  0.1844  0.0360
26636W        W69549   7.048  15.847  19.645  0.0053 -0.0761  0.0693
26637W        W69550  10.704  30.859  19.103  0.0202 -0.4187  0.0936
26638W        W69551  28.587   7.518  22.436  0.0391  0.0657  0.0621
26639W        W69552  10.733  19.130  25.448 -0.0748  0.0867 -0.0774
26640W        W69553   5.652  24.497  16.561 -0.3226  0.1971 -0.0849
26641W        W69554  15.887  16.693  13.950  0.2683  0.3015  0.1344
26642W        W69555  31.957  13.700  18.404  0.1677  0.1395 -0.1441
26643W        W69556  19.477  22.759  15.433 -0.2093  0.0187  0.0770
26644W        W69557   4.498  16.034  21.458 -0.3734  0.1659  0.0605
26645W        W69558  33.746  17.227  20.653  0.3819 -0.1680  0.2209
26646W        W69559   8.863  22.725  16.435 -0.1588  0.0857  0.3633
26647W        W69560   7.612  16.448  14.010  0.1027 -0.1103  0.0046
26648W        W69561   2.261  19.915  14.245  0.0611  0.2179 -0.0867
26649W        W69562   7.609  21.726  18.567  0.0512 -0.0558 -0.2709
26650W        W69563   8.777  10.769  18.791 -0.0351 -0.0844 -0.0115
26651W        W69564   2.145  13.207  25.577  0.1036 -0.0021 -0.0234
26652W        W69565   2.955  22.203  16.650  0.1344  0.1059 -0.3091
26653W        W69566   3.739   7.496  19.496  0.0932  0.2425  0.1012
26654W        W69567  15.405  15.531  22.502  0.1072 -0.6553 -0.3624
26655W        W69568   0.585   9.706  18.112  0.0756  0.0667  0.2870
26656W        W69569   1.357  16.306  25.589 -0.0913  0.1348  0.2186
26657W        W69570  13.180   7.053  28.419 -0.0283  0.3362 -0.0296
26658W        W69571  33.893  20.562  16.939 -0.1347 -0.1297  0.1024
26659W        W69572  30.813  18.420  28.429  0.1584 -0.1066 -0.1810
26660W        W69573   8.636  12.601  18.623 -0.1717 -0.0753  0.1118
26661W        W69574  13.250  18.036  14.679  0.0321 -0.1067  0.2150
26662W        W69575   9.259  18.147  18.957  0.0617 -0.0438  0.1968
26663W        W69576  10.590  21.500  21.283 -0.0843  0.2227 -0.2463
26664W        W69577  30.160  26.762  26.257 -0.0630 -0.1533 -0.0982
26665W        W69578   6.074  15.978  18.194 -0.1016 -0.1927  0.3093
26666W        W69579   8.011  11.680  19.357  0.0871  0.0836  0.1441
26667W        W69580  31.825  32.975  22.900 -0.0811 -0.1538  0.3302
26668W        W69581  16.705  30.708  18.042  0.0248 -0.0204 -0.0349
26669W        W69582  27.550  21.392  13.168  0.1965  0.0165  0.1579
26670W        W69583   2.142  24.560  19.271  0.1528  0.0491 -0.4054
26671W        W69584  12.365  17.835  28.964 -0.0851  0.0295  0.0718
26672W        W69585   4.052  16.452  14.846  0.0266  0.0778 -0.0258
26673W        W69586   8.835  13.185  13.892  0.1054  0.2776  0.1784
26674W        W69587  15.511   9.340  23.831 -0.5188  0.1096  0.0112
26675W        W69588  29.337  18.379  18.250  0.3403 -0.0590  0.1889
26676W        W69589   1.440  11.224  14.891  0.3966 -0.0141  0.2443
26677W        W69590   5.809  16.154  24.049  0.0687 -0.1832 -0.1002
26678W        W69591   8.788   9.967  26.407 -0.2305 -0.0822  0.0190
26679W        W69592  14.998  13.431  26.561 -0.0585 -0.2728 -0.4775
26680W        W69593  26.969  12.178  21.394  0.1020  0.0367  0.2050
26681W        W69594  15.029  10.676  25.502 -0.1989 -0.0601  0.2631
26682W        W69595   9.262  17.644  18.510 -0.3644 -0.1661 -0.1927
26683W        W69596   1.187  14.462   0.367 -0.1511 -0.2119 -0.0730
26684W        W69597  31.437  19.632  17.610 -0.3919  0.2205  0.1531
26685W        W69598   1.342  23.216  17.274  0.1546  0.1322  0.1336
26686W        W69599  14.251  19.111  16.244 -0.1805  0.1107  0.1109
26687W        W69600   6.238  26.204  23.453 -0.3462  0.2917  0.0848
26688W        W69601   1.521  14.216  15.040  0.1750 -0.1548 -0.2164
26689W        W69602  15.095  15.411  22.892 -0.2162  0.0690 -0.0415
26690W        W69603   5.420  15.370  15.442  0.0176  0.0137  0.2549
26691W        W69604   9.329  17.927  20.541  0.2101 -0.0031 -0.1450
26692W        W69605   6.501   7.626  21.370 -0.0610 -0.0898  0.1415
26693W        W69606  33.520  29.287  16.787 -0.1407 -0.0938  0.3250
26694W        W69607   3.749  23.664  22.881 -0.0605  0.1104 -0.2162
26695W        W69608  34.278  27.717  17.814 -0.0499 -0.1365  0.0978
26696W        W69609   9.435  19.973  17.244  0.4288  0.1416 -0.0513
26697W        W69610   7.176  18.143  16.871  0.1274  0.2557  0.1431
26698W        W69611   6.894  12.514  17.171 -0.0551  0.0882  0.0039
26699W        W69612   3.525   9.670  18.828 -0.0244 -0.1864  0.4665
26700W        W69613  11.972  21.671  20.983  0.0124  0.1630  0.0213
26701W        W69614   3.613  26.209  23.059  0.0537  0.0881 -0.1296
26702W        W69615   0.352  20.363   4.095 -0.1802  0.2071 -0.2213
26703W        W69616   4.577  17.511  15.539 -0.1457 -0.0483  0.0274
26704W        W69617  33.838  10.423  19.224 -0.0439  0.0340 -0.1313
26705W        W69618  33.816  17.700  28.431 -0.0491  0.1976 -0.1797
26706W        W69619  33.719  14.885  16.518  0.0266  0.2697 -0.1433
26707W        W69620   4.071   5.320  21.383 -0.0809  0.0746 -0.0493
26708W        W69621  31.685  20.587  16.648 -0.1093  0.1223  0.1547
26709W        W69622  13.297  22.505  16.785  0.1037  0.0795  0.2328
26710W        W69623   6.505   8.624  21.989  0.2776 -0.1220 -0.0471
26711W        W69624   6.901  19.707  15.093  0.0033  0.1987 -0.1453
26712W        W69625  11.529  21.642  14.169 -0.0691  0.0000  0.1553
26713W        W69626  10.896  24.796  18.056  0.0826 -0.4814 -0.0250
26714W        W69627   4.135  21.306  18.802  0.3453 -0.1801 -0.1049
26715W        W69628  12.827  22.230  16.616  0.1334  0.2647 -0.0538
26716W        W69629   5.997  11.012  15.077 -0.0238  0.0060  0.0617
26717W        W69630   4.910   1.901  26.915 -0.0004 -0.4685  0.1737
26718W        W69631   4.493  19.199  18.460 -0.1704  0.2129  0.0982
26719W        W69632  15.561  12.185  18.209  0.0084 -0.2389 -0.1670
26720W        W69633   9.377  16.384  23.536  0.1385  0.0891  0.3675
26721W        W69634  12.629  15.924  13.155 -0.0864  0.1281 -0.1750
26722W        W69635   6.658  15.125  24.381  0.0626 -0.3572 -0.0843
26723W        W69636   6.618  17.713  17.883  0.4678  0.2207  0.2256
26724W        W69637  12.064  19.890  18.578  0.1665 -0.1921  0.2405
26725W        W69638  33.845  18.139  18.375 -0.1615  0.2298  0.1517
26726W        W69639  33.592  24.315  15.052  0.2204  0.0249 -0.0576
26727W        W69640  27.432  15.688  20.547  0.1147  0.2695 -0.0172
26728W        W69641   7.259  20.039  17.723 -0.2358 -0.1359 -0.2277
26729W        W69642  30.674  20.526  18.455  0.3307  0.0389 -0.2747
26730W        W69643   1.225  12.546  18.256 -0.2305  0.4000 -0.0802
26731W        W69644  15.103  10.748   2.451 -0.0674 -0.1593 -0.2530
26732W        W69645   0.135  18.667  21.419  0.1001  0.0605 -0.3193
26733W        W69646   3.243  19.925  18.134  0.0779  0.0048 -0.0678
26734W        W69647   5.254  15.222  15.945  0.2076  0.0695 -0.0351
26735W        W69648   7.834   9.195  22.585 -0.1690  0.3085 -0.2031
26736W        W69649   3.279  15.769  21.425 -0.1229 -0.2696  0.1501
26737W        W69650   0.337   9.836  20.180 -0.1015 -0.0742 -0.1857
26738W        W69651  30.865  14.664  20.705  0.0212 -0.3023 -0.2703
26739W        W69652   4.296  24.405  14.720 -0.2016  0.2011  0.1616
26740W        W69653  29.405  16.159  14.042  0.0971 -0.0808  0.0077
26741W        W69654   5.691  16.550  20.923 -0.0311 -0.2924 -0.0968
26742W        W69655   8.752  15.496  18.260 -0.1115 -0.1201 -0.0064
26743W        W69656   6.203   6.385  17.347 -0.0690 -0.0708 -0.3349
26744W        W69657   8.645  21.505  17.967 -0.0526  0.3136  0.0123
26745W        W69658   6.158  23.863  16.344 -0.0008  0.0990  0.0620
26746W        W69659   4.792  18.093  19.623 -0.2802 -0.1552  0.0861
26747W        W69660   9.460  15.334  19.725 -0.0772 -0.1484 -0.1410
26748W        W69661   8.174   8.160  17.174 -0.2472  0.2666  0.3637
26749W        W69662  15.208  21.209  24.810 -0.0816 -0.1185  0.1221
26750W        W69663  11.539   6.413   2.563 -0.2721  0.6005  0.2035
26751W        W69664   5.769  16.850  14.475  0.0189  0.0086 -0.4961
26752W        W69665   4.916   8.109  16.908 -0.2085 -0.0312  0.0376
26753W        W69666  33.934  14.988  18.549 -0.1831  0.0800 -0.1966
26754W        W69667  30.748  16.154  18.220  0.1627  0.0602 -0.3008
26755W        W69668  33.580  10.163  18.734 -0.0920 -0.3062  0.0105
26756W        W69669   5.706  26.155   0.014 -0.0028  0.1490  0.1383
26757W        W69670   5.660  11.389  22.391 -0.3458  0.1887 -0.2985
26758W        W69671  33.140   5.435  24.368  0.0726 -0.1296 -0.1445
26759W        W69672  33.219  20.463  15.157 -0.1681  0.2949  0.0078
26760W        W69673   4.413  22.802  14.208 -0.0913  0.1021 -0.0895
26761W        W69674   4.312  14.034  17.767 -0.4693  0.2730 -0.0539
26762W        W69675  10.117  14.822  22.153  0.0711  0.2531 -0.0211
26763W        W69676   6.414  21.050  16.712 -0.4263  0.0576 -0.0739
26764W        W69677  14.209  28.031  17.879  0.0860  0.3394  0.1485
26765W        W69678   9.502  28.199  16.135 -0.1555  0.3112  0.1082
26766W        W69679   1.928  16.838  20.413  0.1520  0.1868  0.0648
26767W        W69680  20.407  11.401  25.147 -0.0405 -0.3235 -0.1115
26768W        W69681   6.426   8.558  23.519  0.1164 -0.1863 -0.0041
26769W        W69682   4.760  19.166  28.029 -0.1795  0.0048  0.0844
26770W        W69683  15.409  21.966  14.311  0.0416 -0.0938 -0.1090
26771W        W69684  11.036  11.605  22.174  0.3436  0.4593 -0.0083
26772W        W69685  32.855  22.891  23.542  0.1206 -0.2208  0.0017
26773W        W69686   6.748  19.659  14.556  0.0628  0.0442 -0.3367
26774W        W69687  15.146  22.925  17.710  0.2699  0.1023  0.3087
26775W        W69688   0.453  14.205  17.152 -0.0042  0.0414 -0.2055
26776W        W69689   5.173  14.819  27.053 -0.0873  0.2767  0.2300
26777W        W69690  17.135  22.634  15.492  0.2158  0.1102  0.0916
26778W        W69691  31.574  19.807  16.399 -0.2038  0.0426  0.0425
26779W        W69692   7.097  11.028  16.336  0.0448 -0.1490 -0.1006
26780W        W69693  27.219  26.067  27.206  0.0670  0.4078  0.0601
26781W        W69694   8.480  17.327  18.139 -0.3682 -0.1450  0.0991
26782W        W69695   4.255  25.175  19.032 -0.0157  0.2064 -0.2662
26783W        W69696   1.725  17.906  20.826 -0.2065  0.0650 -0.3023
26784W        W69697   3.379  14.129  14.700  0.2539 -0.0546  0.1016
26785W        W69698  34.409  13.459  20.741 -0.0975 -0.3845 -0.0691
26786W        W69699   1.577  18.806  23.376 -0.0775 -0.3624 -0.2158
26787W        W69700   5.096  20.817  13.583 -0.0120 -0.0065  0.4213
26788W        W69701   1.005  15.420  16.963  0.0164 -0.2339  0.0547
26789W        W69702   3.487  21.108  20.753 -0.0793 -0.0963  0.1218
26790W        W69703  21.681  16.105  20.686  0.6096  0.1404  0.1632
26791W        W69704  13.880  21.691  19.159 -0.1686 -0.1760 -0.1781
26792W        W69705  33.095  16.779  14.335  0.1436 -0.0148 -0.2049
26793W        W69706   0.827  19.209  15.930 -0.3242  0.0435 -0.0769
26794W        W69707   8.644  11.277   7.297  0.3423  0.4243  0.1323
26795W        W69708   6.921  18.950  20.576  0.1789  0.1722 -0.4023
26796W        W69709   2.948  13.038  20.796  0.0612  0.1944 -0.1832
26797W        W69710   1.387  12.718   0.846 -0.1689  0.1597  0.1330
26798W        W69711  13.758  12.437  13.057  0.0470 -0.0395 -0.0854
26799W        W69712   4.913  20.432  18.223  0.0243  0.1175 -0.0240
26800W        W69713   7.273  16.007  20.214  0.1165  0.0690 -0.0411
26801W        W69714   5.356  21.753  19.630  0.1304 -0.0746 -0.0524
26802W        W69715   9.207  18.628  23.307  0.2690  0.3106  0.3556
26803W        W69716   3.401  10.352  20.453  0.0921 -0.4035 -0.2288
26804W        W69717   2.231  19.293  15.918 -0.2524  0.0218  0.0152
26805W        W69718   4.011  18.526  15.924 -0.2592  0.0409 -0.0220
26806W        W69719   7.947  18.467  20.795  0.0830 -0.1857 -0.1439
26807W        W69720   4.835  21.357  15.842 -0.2202 -0.2026  0.1268
26808W        W69721   8.692  13.985  15.016 -0.2089 -0.1997  0.1139
26809W        W69722  15.128  13.174  13.371  0.1700  0.3620 -0.0685
26810W        W69723   6.007  12.295  26.593  0.0181  0.1724 -0.0561
26811W        W69724   3.731  14.082  19.457  0.2033 -0.0571  0.2491
26812W        W69725  33.575  23.143  21.974  0.2624 -0.0370  0.0946
26813W        W69726   5.279  17.281  21.402  0.2033 -0.0225 -0.4397
26814W        W69727   3.909  19.449  15.540  0.0698 -0.0531 -0.3242
26815W        W69728   8.531  24.639  19.243  0.1184 -0.1523  0.1907
26816W        W69729   0.007   5.351  19.974 -0.0236 -0.3716 -0.1521
26817W        W69730   5.870  21.551  21.811  0.0895 -0.0579  0.0829
26818W        W69731  32.360  23.801  27.919  0.1784 -0.2037 -0.1803
26819W        W69732  14.003  32.007  15.761 -0.2092 -0.0323  0.0799
26820W        W69733   1.722  19.392  18.438 -0.0804  0.0107 -0.2667
26821W        W69734   6.407  15.808  17.141 -0.0575  0.1666  0.2849
26822W        W69735  21.015  17.547  15.079  0.4236  0.1685  0.0675
26823W        W69736  33.258  15.138  14.304  0.0138  0.0422 -0.1595
26824W        W69737  33.089  17.450  14.580 -0.0825  0.3548  0.2583
26825W        W69738   4.516  21.317  19.671  0.0193  0.0036 -0.1206
26826W        W69739  10.555  19.258  17.135  0.1912  0.5139 -0.1198
26827W        W69740   4.909  11.672  19.884 -0.1582  0.1960  0.0517
26828W        W69741   0.994  18.758  18.052  0.0510  0.1529 -0.0825
26829W        W69742   2.097  18.734  23.476 -0.2195 -0.2018 -0.0964
26830W        W69743   2.984  28.896  21.362 -0.2483  0.1231  0.0674
26831W        W69744  34.265  16.375  16.293 -0.1036  0.1622 -0.0014
26832W        W69745   8.761  20.307  14.211 -0.1399  0.3318 -0.0954
26833W        W69746   3.961  12.667  14.455 -0.0035  0.2727 -0.3301
26834W        W69747  11.431  24.134  14.136  0.0667 -0.1244 -0.1038
26835W        W69748   7.140  21.331  26.998  0.2237 -0.2532 -0.2027
26836W        W69749   9.590   7.357  25.944 -0.1305 -0.1163 -0.0002
26837W        W69750   6.213  20.709  28.233 -0.1843  0.0006  0.0878
26838W        W69751   8.629  13.574  24.583 -0.0577  0.4276  0.0791
26839W        W69752   0.261  17.095  25.129  0.1397 -0.1386 -0.0373
26840W        W69753  34.378  14.641  18.184  0.0951 -0.0163 -0.2571
26841W        W69754  25.525   0.271  19.250  0.1022  0.0323  0.0269
26842W        W69755   5.143   7.130  22.072  0.0430  0.0240  0.2081
26843W        W69756  12.800  22.637  20.848 -0.1302 -0.0139  0.3022
26844W        W69757  15.376  26.460  16.953 -0.0200  0.0885 -0.1778
26845W        W69758   1.042  19.912  22.353 -0.1203  0.0214  0.1325
26846W        W69759   5.732   4.952  26.321  0.0584 -0.3327 -0.0908
26847W        W69760  13.116   9.731  23.347  0.0117 -0.0091  0.2510
26848W        W69761   2.133  18.581  22.444  0.2941  0.0785  0.0174
26849W        W69762   5.193  17.930  26.064 -0.2232 -0.1454  0.3396
26850W        W69763   3.316  13.526  15.723 -0.2642  0.0885  0.1149
26851W        W69764   4.773   9.015  18.339  0.3602 -0.0373 -0.0013
26852W        W69765  14.859  12.069  15.556 -0.1650 -0.0270  0.2076
26853W        W69766   8.446  19.414  18.955  0.0607 -0.0878 -0.1082
26854W        W69767   6.199  12.149  21.862  0.2372  0.2339 -0.1428
26855W        W69768  13.231  15.116  21.357 -0.0401  0.0397 -0.0400
26856W        W69769  27.822  13.308  18.184  0.0298 -0.0359  0.3146
26857W        W69770   7.641  26.912  19.650 -0.1107  0.2605 -0.2276
26858W        W69771  30.565  21.466  19.159  0.0405  0.3792  0.1272
26859W        W69772  33.711  18.616  14.734  0.1010  0.0332  0.0433
26860W        W69773  33.929  23.844  17.248  0.0674  0.0643  0.2912
26861W        W69774  19.823  24.182  12.744  0.1920 -0.0754 -0.2192
26862W        W69775   2.747  23.029  20.600  0.3492 -0.0662  0.1814
26863W        W69776   7.998  12.763  20.657  0.0523  0.1040  0.1275
26864W        W69777   7.867  16.214  16.238 -0.2710 -0.0584 -0.1917
26865W        W69778  14.548  26.892  19.373 -0.1059 -0.2271  0.1117
26866W        W69779  28.000  15.960  18.559  0.0973  0.3650 -0.2846
26867W        W69780  27.939  29.600  20.707 -0.1875  0.2774  0.1270
26868W        W69781   9.364  14.728  19.659  0.1100 -0.0911  0.1780
26869W        W69782  12.427  31.541  17.321 -0.2906  0.0701  0.0491
26870W        W69783   3.018  24.400  17.752 -0.0836  0.3743 -0.1946
26871W        W69784  33.055  16.919  24.987  0.2098 -0.0429 -0.3704
26872W        W69785   8.844  11.401  16.270 -0.3401 -0.0251  0.1688
26873W        W69786   0.694   8.130  18.847  0.0963 -0.2213 -0.0359
26874W        W69787   8.771  14.426  15.226 -0.1905 -0.1907 -0.1177
26875W        W69788   8.637  16.131  13.249  0.3184  0.1248  0.2953
26876W        W69789  34.408  15.865  16.269  0.1821  0.0637  0.0362
26877W        W69790   2.658  17.499  23.313 -0.2054  0.0848  0.2505
26878W        W69791  30.856  14.199  14.193  0.1700  0.1751  0.1022
26879W        W69792   2.200   0.931  25.140 -0.0154 -0.0668  0.0817
26880W        W69793   0.294  21.881  25.018  0.4189 -0.0275 -0.3424
26881W        W69794  30.056  19.308  19.697  0.0133 -0.1253 -0.0589
26882W        W69795  33.892  14.001  16.885 -0.0206  0.0085  0.0552
26883W        W69796  10.749   5.678  21.922  0.0378 -0.2287  0.0487
26884W        W69797   1.196  12.109  21.711  0.0415  0.0740  0.0543
26885W        W69798   0.482  21.776  18.640 -0.2374 -0.2037  0.0616
26886W        W69799   7.924  17.487  16.864  0.1374  0.1026 -0.0870
26887W        W69800  22.882   4.091  23.462 -0.3589 -0.1164 -0.1446
26888W        W69801   5.682  21.029  24.993 -0.2805  0.1153 -0.1628
26889W        W69802   4.500  17.697  17.928 -0.4408 -0.2254  0.4780
26890W        W69803   9.078   8.489  22.018 -0.2287 -0.1692  0.0616
26891W        W69804  29.807  15.448  21.788  0.1379 -0.0054  0.0580
26892W        W69805   7.061  13.893  15.741 -0.1528  0.0879  0.1876
26893W        W69806  31.387  18.337  25.164 -0.0487  0.0343  0.0922
26894W        W69807  34.346  23.733  21.593 -0.3875  0.0066  0.2036
26895W        W69808   2.027  22.995  18.432  0.1006 -0.2721 -0.1768
26896W        W69809   0.634  16.848  16.120 -0.3483  0.0593 -0.0062
26897W        W69810  10.879  24.279  16.128  0.1270  0.0012  0.1781
26898W        W69811   6.551  16.268  25.959 -0.0125  0.2267 -0.1712
26899W        W69812   7.147  15.603  14.080  0.0217 -0.3311 -0.0932
26900W        W69813   7.391  15.561  21.219 -0.2853 -0.1149  0.3044
26901W        W69814   1.141  15.903  16.954 -0.1924 -0.2138 -0.0161
26902W        W69815  11.214  30.530  16.899 -0.0361 -0.1775  0.1460
26903W        W69816   1.462   9.929  18.514 -0.1956 -0.3776  0.0166
26904W        W69817   2.488  25.544  14.912  0.2648  0.2489 -0.1026
26905W        W69818   9.762  25.759  20.541 -0.0609 -0.0620 -0.1047
26906W        W69819  11.905   2.157  16.738 -0.0679 -0.0695  0.2886
26907W        W69820  24.852  20.053  14.145 -0.0240  0.0788  0.0735
26908W        W69821  13.762   5.690  18.591 -0.1176  0.0321 -0.4460
26909W        W69822   1.606  23.329  14.606  0.0762 -0.0622 -0.0650
26910W        W69823   4.311  21.019  19.267 -0.1575  0.0339  0.5178
26911W        W69824   9.154  13.355  18.383 -0.1570 -0.0405  0.1257
26912W        W69825   7.440   9.595  16.044  0.0708 -0.3346  0.2083
26913W        W69826  10.261   5.220  16.285 -0.0510  0.0972  0.0892
26914W        W69827   8.551  14.324  14.264  0.0766  0.2721 -0.2541
26915W        W69828   6.729  21.751  13.441  0.2422  0.0552  0.0579
26916W        W69829  12.124  17.647  18.681  0.3099 -0.1964 -0.0713
26917W        W69830  15.832  13.473  14.658 -0.2160  0.0403  0.0996
26918W        W69831  11.147  20.042  18.188 -0.0371 -0.1921  0.0886
26919W        W69832  16.247  21.516  15.631  0.1654  0.0940  0.1467
26920W        W69833   3.348  19.901  17.146  0.0398 -0.1780 -0.1133
26921W        W69834   6.268  15.512  27.468  0.0016  0.0788 -0.0154
26922W        W69835   6.672  18.566  17.421  0.2404  0.1434  0.2390
26923W        W69836   6.068  12.347  17.558 -0.2005  0.0872 -0.1213
26924W        W69837  11.901   6.106  22.173  0.0051 -0.3491  0.1765
26925W        W69838  30.815  16.625  19.400 -0.1406  0.2784  0.0724
26926W        W69839   4.363   9.589  22.512  0.1105  0.1805 -0.0422
26927W        W69840   4.909  20.173  14.734 -0.1679 -0.2973  0.1176
26928W        W69841   8.382   7.486  16.784 -0.4360  0.0597  0.1268
26929W        W69842  15.398  10.112  20.282  0.0248 -0.2489 -0.0706
26930W        W69843  11.212  12.113  22.109 -0.1021  0.0164 -0.1510
26931W        W69844   3.191  21.003  23.105 -0.0466  0.0891  0.0468
26932W        W69845   5.050  10.184  23.887  0.2036  0.1609  0.0435
26933W        W69846  31.928  17.296  19.974 -0.2244 -0.0362 -0.1297
26934W        W69847   3.807  19.963  19.843 -0.1347 -0.1198  0.0613
26935W        W69848   4.429   5.597  20.826 -0.2033 -0.0753 -0.0525
26936W        W69849  10.002  19.840  22.059 -0.0739 -0.1325  0.0533
26937W        W69850   3.905  11.968  16.976  0.0427 -0.2735 -0.0884
26938W        W69851   2.321  21.955  21.054 -0.0003  0.2305  0.0158
26939W        W69852   7.797  14.823  16.298 -0.0059  0.2392 -0.3235
26940W        W69853  10.899  20.847  13.313 -0.1873 -0.1056  0.0908
26941W        W69854  11.843  23.727  20.122 -0.0234  0.2035 -0.1603
26942W        W69855   6.885  16.954  22.832 -0.0476 -0.1684  0.1301
26943W        W69856   4.646  22.443  20.695  0.1877 -0.1335  0.1474
26944W        W69857  29.877  11.806  21.675 -0.1330  0.1223 -0.0950
26945W        W69858  19.502  11.522   2.693  0.1236 -0.2532  0.1955
26946W        W69859   8.654  16.953  17.367  0.0228 -0.5425 -0.5019
26947W        W69860  11.122  20.783  14.332  0.0823 -0.2602 -0.0693
26948W        W69861   1.277  19.996  16.467 -0.1704  0.1344  0.2563
26949W        W69862   9.946  16.846  25.658 -0.0550 -0.2360  0.2235
26950W        W69863  11.828  24.153  22.066 -0.2027  0.1893 -0.1462
26951W        W69864   4.848  21.701  19.660 -0.1193 -0.0651 -0.2649
26952W        W69865  12.028  16.693  24.028 -0.1766  0.1755  0.0361
26953W        W69866   9.152  15.163   1.356  0.1120  0.1688 -0.0455
26954W        W69867   2.976  12.259  17.915  0.2256  0.2756  0.0720
26955W        W69868  29.402  24.947  18.898 -0.0517 -0.2766  0.1136
26956W        W69869  12.514  22.179  18.051 -0.1947  0.1019 -0.0864
26957W        W69870   4.600  23.963  26.355 -0.0642  0.0273  0.0704
26958W        W69871  14.144  14.930  25.441  0.3726  0.2060  0.3759
26959W        W69872  13.825   7.596  18.425  0.2403  0.0126  0.0849
26960W        W69873   5.777  18.717  18.496 -0.1217 -0.0105 -0.1628
26961W        W69874  10.787  20.093  13.264  0.0375  0.0676 -0.1948
26962W        W69875   1.278  13.823  25.917 -0.3811 -0.0290 -0.1799
26963W        W69876   8.635  11.038   1.052 -0.1177 -0.1243 -0.4043
26964W        W69877  33.687  12.030  19.437  0.1342 -0.1337  0.2302
26965W        W69878  12.366  18.275  27.397  0.0993 -0.2211  0.1195
26966W        W69879  11.729  21.973  20.550 -0.1577  0.2425  0.0369
26967W        W69880   5.769  13.647  19.148  0.0377  0.0494 -0.0582
26968W        W69881   5.025  17.988  14.006 -0.1249  0.1908 -0.0109
26969W        W69882   2.089  21.852  22.954  0.3921 -0.0185 -0.2031
26970W        W69883  31.180  19.717   3.016 -0.1532  0.0922 -0.0016
26971W        W69884  12.097   8.026  16.717  0.0290 -0.2157 -0.1340
26972W        W69885  32.982  15.924  15.820 -0.2896  0.0124  0.3471
26973W        W69886  16.470  13.882  13.996  0.0428 -0.1545  0.0254
26974W        W69887  12.171  19.078  21.936  0.0101  0.0846 -0.3535
26975W        W69888   1.586  17.348  23.052  0.1247 -0.1407 -0.1450
26976W        W69889  34.474  15.878  15.208  0.4030 -0.1029 -0.0796
26977W        W69890  32.119  16.295  16.685  0.1540  0.1746 -0.1728
26978W        W69891  12.616   9.556  17.939  0.0731  0.0684 -0.0445
26979W        W69892   9.752   9.314  19.525 -0.2981  0.1549 -0.2002
26980W        W69893   5.795  10.819  19.844  0.3055  0.1321 -0.2283
26981W        W69894   2.195   0.365  29.358 -0.0054  0.0661 -0.0345
26982W        W69895   6.851  15.573  14.729 -0.1376  0.0370 -0.2047
26983W        W69896   3.404  15.233  21.949 -0.1771  0.0753  0.0614
26984W        W69897   9.971  15.230  23.423 -0.0838 -0.1177  0.0646
26985W        W69898   4.616  13.534  18.201 -0.0108  0.1629  0.1451
26986W        W69899  11.456  17.733  28.012  0.3928 -0.0011 -0.0031
26987W        W69900  17.062  27.449  29.774 -0.0404  0.0299 -0.1835
26988W        W69901  20.201  10.762  17.365 -0.0869  0.0595  0.0687
26989W        W69902   3.831  18.683  23.489 -0.1358  0.1564 -0.1858
26990W        W69903  14.344   4.073  23.547 -0.0546  0.0796 -0.1901
26991W        W69904   9.417  16.490   5.641  0.0758  0.0548 -0.0432
26992W        W69905   1.081  25.765  15.200 -0.0903  0.0101  0.0571
26993W        W69906   2.259   8.772  18.094 -0.3423 -0.2746 -0.2851
26994W        W69907   8.652  17.933   3.589 -0.0638  0.0283 -0.2711
26995W        W69908  11.842  19.109  23.852  0.0561 -0.0188 -0.1230
26996W        W69909   7.184  15.114  18.989  0.0536  0.2349 -0.1881
26997W        W69910  31.169  25.595  27.141  0.2118  0.1250  0.1593
26998W        W69911   1.535  21.912  22.196  0.1121  0.2143 -0.1203
26999W        W69912  18.661  13.075  19.929  0.3939  0.0537 -0.2031
27000W        W69913  16.773  10.152  14.636 -0.2172 -0.0789 -0.4023
27001W        W69914  11.164  18.638  19.403  0.2522  0.1173 -0.0466
27002W        W69915  11.373  22.729  24.840  0.3169 -0.2310  0.2729
27003W        W69916   8.306  22.800  19.491  0.0158  0.0157  0.2367
27004W        W69917  27.020  18.050  15.798 -0.2624 -0.2298  0.0083
27005W        W69918   6.909  26.799  16.960 -0.2443  0.3157  0.1465
27006W        W69919   5.280  31.519  25.155  0.1568  0.0124  0.0795
27007W        W69920  11.767  18.370   3.602  0.4476  0.1550  0.0049
27008W        W69921   2.585  21.857   1.615  0.2128 -0.2297 -0.2545
27009W        W69922   0.481  10.988  22.395  0.2261  0.0165 -0.2107
27010W        W69923   9.182  13.512  13.911 -0.0641 -0.0996  0.0590
27011W        W69924   4.957  11.971  16.745 -0.1310  0.0800  0.0965
27012W        W69925   6.592   9.098  27.129 -0.0545  0.1212 -0.2222
27013W        W69926  30.437  15.689  27.281  0.2752  0.0432  0.0329
27014W        W69927   3.135  22.657   3.182 -0.0457 -0.1250  0.1453
27015W        W69928  14.393  23.030  23.898 -0.3174  0.0326  0.0809
27016W        W69929  16.815  16.120  26.966  0.1822  0.0718  0.1969
27017W        W69930   3.081  18.098  20.633 -0.1704 -0.0023 -0.0723
27018W        W69931  10.422  11.821  13.854  0.0421  0.4031 -0.1312
27019W        W69932  13.133   2.652  21.842  0.0255  0.1963 -0.1379
27020W        W69933  29.606  16.200  25.565  0.0587  0.3416  0.0364
27021W        W69934   0.796  10.575  18.779  0.1768 -0.0923  0.2003
27022W        W69935   4.738  20.202  24.936 -0.1562  0.4186  0.0663
27023W        W69936  32.437   6.923  27.951 -0.1756  0.2363  0.4159
27024W        W69937   5.361  14.803  27.541  0.1079  0.1332  0.0054
27025W        W69938  29.299   7.262  21.229  0.2288 -0.1049 -0.1973
27026W        W69939   8.167  16.442  14.738  0.0093  0.0559 -0.0679
27027W        W69940   8.906  25.576  15.677  0.2664  0.2744 -0.1065
27028W        W69941   4.589  24.576  16.876  0.1091 -0.4209 -0.0588
27029W        W69942   9.736  12.719   4.101 -0.2562  0.0738  0.2681
27030W        W69943   6.830  16.240  17.797  0.0523  0.0986  0.5618
27031W        W69944  32.206  15.697  17.960 -0.2941 -0.3047 -0.4235
27032W        W69945   6.006  15.411  20.091  0.0590 -0.0447 -0.0878
27033W        W69946   2.117  15.796  14.471 -0.5478 -0.0831  0.3281
27034W        W69947   2.107  14.039  15.879 -0.1363 -0.0433 -0.1750
27035W        W69948   2.571  14.290  14.898  0.1973  0.0343 -0.0194
27036W        W69949   8.167  16.073  17.743  0.3490  0.0605  0.0481
27037W        W69950   1.389  20.133  24.855 -0.3635 -0.0668  0.1878
27038W        W69951  20.905  24.547  18.937  0.0765 -0.0883 -0.1600
27039W        W69952  20.345  29.582  18.587  0.3725  0.1845  0.0759
27040W        W69953   2.607  12.550  16.737  0.0119 -0.0030  0.1982
27041W        W69954  29.465  18.397  17.062  0.0449  0.0792  0.2691
27042W        W69955   2.040  19.250  23.763 -0.1407  0.2232  0.3857
27043W        W69956  20.505  23.235  21.378 -0.0184  0.1483 -0.1862
27044W        W69957  26.131  11.489  23.777 -0.2951 -0.1729 -0.3296
27045W        W69958  26.979  27.035  20.650  0.1044  0.1784 -0.0679
27046W        W69959  13.429  22.021  15.029  0.5136 -0.0449  0.0307
27047W        W69960   7.779  23.043   3.078  0.1328  0.0778  0.1364
27048W        W69961  33.047  24.226  20.458  0.0190  0.0851  0.1062
27049W        W69962  32.157  20.541  24.305 -0.2295 -0.2141 -0.0621
27050W        W69963   4.248  28.425  20.861 -0.2140  0.0820  0.1440
27051W        W69964   2.931  13.445  28.704  0.1208 -0.2436 -0.3937
27052W        W69965   6.217  20.658  17.086  0.1625 -0.1497  0.1336
27053W        W69966   5.268   8.574   3.244  0.2089  0.0145  0.0632
27054W        W69967  33.059  23.193  18.575  0.0516  0.2187  0.0664
27055W        W69968   8.310  12.723  15.416 -0.0922  0.0889  0.1574
27056W        W69969  33.497  16.248  15.819  0.1004 -0.1017 -0.1668
27057W        W69970   4.180  22.931  18.118  0.3823 -0.2773 -0.3890
27058W        W69971   0.683  20.807  22.537 -0.4093 -0.0124 -0.0549
27059W        W69972   2.566  16.480  14.918  0.1507  0.1302 -0.1867
27060W        W69973   0.104  13.469  15.046  0.3251 -0.1414  0.0238
27061W        W69974   9.930  21.357  22.042 -0.3070 -0.0419  0.3055
27062W        W69975  32.969  14.814  16.989 -0.2834  0.0463 -0.0237
27063W        W69976   1.428  17.173  25.802 -0.0737 -0.1401  0.0446
27064W        W69977  14.509   7.622  15.889 -0.4938  0.0087  0.2444
27065W        W69978  11.185  18.442  24.057 -0.0815 -0.2530  0.0599
27066W        W69979   7.399  18.980  14.257  0.0051 -0.2836  0.2213
27067W        W69980   9.196  13.628  16.241 -0.0668 -0.0659  0.0166
27068W        W69981   8.291  17.217  19.326 -0.0244 -0.1185 -0.4407
27069W        W69982   8.982  13.887  14.222  0.1284  0.0581  0.0875
27070W        W69983   8.851   9.417  19.082  0.0275  0.2373 -0.0718
27071W        W69984  11.751  24.057  20.582 -0.0396  0.1522  0.2825
27072W        W69985  11.514  11.043  25.104  0.0054  0.1460  0.0873
27073W        W69986   0.941  15.379  21.981 -0.3922  0.1627 -0.0464
27074W        W69987   1.923  28.275  19.378 -0.3231 -0.0140  0.3003
27075W        W69988  13.472   3.724  19.745  0.0904  0.0512  0.2529
27076W        W69989   6.494  12.347   4.252  0.0306 -0.2992 -0.3071
27077W        W69990  14.225   5.822  19.893  0.0147  0.0937  0.0146
27078W        W69991  27.326   7.823  18.810  0.1066 -0.1630  0.2508
27079W        W69992   7.046  18.179  22.340 -0.2190 -0.1827  0.2979
27080W        W69993   1.177  20.211  17.364 -0.1226  0.1396  0.3282
27081W        W69994   0.332  17.417   0.233  0.0392  0.1804  0.1244
27082W        W69995  11.641  17.229  17.814 -0.1273 -0.0568  0.0194
27083W        W69996   6.293  18.419  20.615  0.0203  0.1956 -0.1783
27084W        W69997  21.863  20.397  16.432  0.0890  0.0590 -0.1261
27085W        W69998   7.299  11.959  18.634  0.0322  0.2034  0.1472
27086W        W69999   4.964  24.273  26.561 -0.3195 -0.2594 -0.1051
27087W        W70000  16.972  17.818  25.154  0.5030 -0.0138  0.0643
27088W        W70001   7.284   8.812  17.822 -0.4834  0.0809  0.2365
27089W        W70002   7.435   6.205  20.047  0.0583 -0.4903  0.1615
27090W        W70003  31.587  12.176  16.108 -0.0438 -0.2095 -0.0154
27091W        W70004  17.222  28.817  15.866 -0.3442  0.1318 -0.3009
27092W        W70005  14.502   6.738  18.833 -0.2979 -0.3514  0.0746
27093W        W70006  14.332  20.155  12.338  0.3963 -0.4570  0.0087
27094W        W70007  12.416   9.076  15.490 -0.1111  0.0052 -0.1265
27095W        W70008   6.634  14.537  19.673 -0.1245 -0.0826  0.2882
27096W        W70009   5.568  21.468  14.105 -0.0316 -0.1857 -0.1110
27097W        W70010  31.181  23.673  20.494 -0.3360 -0.0860  0.2528
27098W        W70011  18.694   8.184   3.496 -0.2027 -0.1892 -0.1954
27099W        W70012   6.299  28.793  17.875  0.1881 -0.1283 -0.0551
27100W        W70013  12.481  12.583  17.594 -0.0169 -0.1817 -0.0874
27101W        W70014   7.857  17.972  17.234  0.0575  0.0356  0.0871
27102W        W70015   7.938   4.329  18.268  0.1537 -0.2191  0.1951
27103W        W70016   9.185  25.980  18.377 -0.1396  0.0796 -0.1209
27104W        W70017   6.222  23.086  21.587 -0.1910 -0.2906 -0.1547
27105W        W70018   7.593  22.412  13.946 -0.1646 -0.1315 -0.1247
27106W        W70019  14.506  12.708   1.463  0.1076 -0.0733 -0.1578
27107W        W70020  10.405   9.439  19.293 -0.0674 -0.1230 -0.0293
27108W        W70021   2.149  11.929  28.756 -0.0523 -0.0019 -0.0537
27109W        W70022   0.498  12.538  23.648 -0.1790  0.1457 -0.3105
27110W        W70023   9.461  18.900  20.703  0.3487 -0.1379  0.1437
27111W        W70024  10.415  13.602  16.794 -0.1573  0.0591 -0.1135
27112W        W70025   6.715  24.807  21.957  0.5573  0.0550  0.1349
27113W        W70026   4.618  21.767  27.400 -0.0389 -0.1111 -0.0492
27114W        W70027   4.150   6.165  19.723 -0.0173  0.1887 -0.0108
27115W        W70028  17.632  13.897  22.675  0.2814 -0.0452  0.1132
27116W        W70029  12.230  24.254  24.192  0.1588 -0.1616  0.0860
27117W        W70030  11.489  30.589  28.380  0.0786 -0.0497  0.1263
27118W        W70031   4.192  24.832  20.524  0.2604 -0.0547 -0.1068
27119W        W70032  10.629  16.681  22.253 -0.2688 -0.2345  0.4264
27120W        W70033   8.822  22.041  18.042 -0.0766 -0.1392  0.2162
27121W        W70034  12.521  13.851  22.597 -0.0701 -0.2783  0.2812
27122W        W70035  12.459   7.435  20.695  0.1573 -0.0569 -0.1652
27123W        W70036  33.888  15.160  19.003  0.3506 -0.0004  0.0230
27124W        W70037   7.314  20.497  14.793 -0.0578  0.0397  0.1039
27125W        W70038  30.870  20.592  16.149  0.0346  0.0873 -0.0920
27126W        W70039   6.989  18.073  12.951  0.1597  0.0439  0.2727
27127W        W70040  17.496  17.533  12.190  0.1703 -0.1724  0.1165
27128W        W70041  10.162  12.312  18.282 -0.1208  0.0623  0.0055
27129W        W70042   3.114  16.782  14.004 -0.1915 -0.0433  0.0205
27130W        W70043   9.551  27.223  16.847 -0.1138  0.3198 -0.2728
27131W        W70044   1.980  16.243  18.390  0.0778  0.2162 -0.2740
27132W        W70045   3.684  20.112  24.844 -0.0687  0.0517  0.5778
27133W        W70046   5.057  23.930  18.469 -0.0973  0.1420  0.0902
27134W        W70047   6.899  14.017  13.569 -0.1582 -0.1440  0.1268
27135W        W70048   5.322  22.645   0.610  0.0218  0.1738 -0.0506
27136W        W70049  14.681  26.003  24.023  0.0548 -0.0765 -0.2087
27137W        W70050  32.864  14.609  20.260  0.1383 -0.3883  0.0995
27138W        W70051  12.228  20.032  24.445 -0.1784  0.3265 -0.2046
27139W        W70052   3.245  15.965  25.353 -0.1998  0.1439 -0.1548
27140W        W70053  12.815  14.398  24.593  0.2052 -0.0344 -0.2368
27141W        W70054   8.535  25.255  21.878  0.0444  0.1183  0.1040
27142W        W70055  34.184  16.188  13.386  0.1116  0.2443  0.1648
27143W        W70056  33.264  16.119  28.953 -0.0932 -0.1242 -0.2021
27144W        W70057  12.255  12.789  15.651  0.2109  0.1349  0.0403
27145W        W70058   1.451  16.914  20.802 -0.2126 -0.1768  0.2290
27146W        W70059  11.179  14.466  13.585  0.1474 -0.0499 -0.1666
27147W        W70060   8.382  16.411  23.960  0.2811 -0.0050  0.0727
27148W        W70061  10.467   6.826  29.681  0.1655 -0.1838 -0.1271
27149W        W70062  14.031  18.634  19.682  0.0591 -0.0136 -0.0233
27150W        W70063   7.439  20.498  15.905  0.0527  0.1010 -0.1480
27151W        W70064   4.489  17.313  18.337 -0.0413  0.0309  0.1733
27152W        W70065  12.566  23.867  19.548  0.0830 -0.1130 -0.1364
27153W        W70066  31.724  21.036  25.916 -0.0658  0.1500 -0.3371
27154W        W70067  11.121  18.329  20.735  0.3328  0.0222 -0.3151
27155W        W70068   4.829  16.356  23.841  0.3000 -0.1534 -0.1040
27156W        W70069  30.262   9.767  22.858 -0.0365 -0.5389  0.3703
27157W        W70070   5.854   2.907  22.898  0.1080  0.1639  0.0900
27158W        W70071   5.453  13.363  24.390 -0.0544  0.1585  0.0704
27159W        W70072   8.151  20.307   8.072  0.3018  0.0460 -0.2253
27160W        W70073   6.011  25.250  17.181  0.1745  0.2018 -0.1095
27161W        W70074   7.140  14.717  24.530  0.1931 -0.3301 -0.0175
27162W        W70075   4.120  19.494  17.350 -0.0655 -0.3129  0.3088
27163W        W70076  12.325   8.975  24.329 -0.0244  0.1097 -0.2738
27164W        W70077  16.942  15.662  13.885  0.2621 -0.0338  0.0735
27165W        W70078   8.149   9.904  21.923 -0.1058  0.1044  0.3858
27166W        W70079  12.271   7.760  16.283 -0.1382  0.1976  0.3119
27167W        W70080   3.166  15.259  25.762 -0.2360  0.2261 -0.0338
27168W        W70081   2.311  25.995  15.658  0.1493 -0.1221 -0.0723
27169W        W70082  12.859   5.975  16.907 -0.1444  0.1468  0.1856
27170W        W70083  14.712  15.798  16.168  0.6226 -0.1283  0.0985
27171W        W70084   5.248  23.244  20.835 -0.3677  0.0507  0.0059
27172W        W70085  26.264   6.632  23.708 -0.0637 -0.3024 -0.0081
27173W        W70086   9.153  22.107  18.433 -0.0589  0.1617  0.1434
27174W        W70087  31.118  19.801  16.487 -0.2067  0.2418 -0.0114
27175W        W70088  13.321  11.733  16.942 -0.0594  0.2319 -0.0635
27176W        W70089  10.868  18.042  28.720 -0.1568 -0.3091 -0.1165
27177W        W70090   7.644  17.856   5.216  0.1569 -0.1203 -0.1255
27178W        W70091   2.196  20.512  23.173  0.0102 -0.0007 -0.0927
27179W        W70092   3.051  16.542  13.592 -0.0599 -0.1342  0.0535
27180W        W70093   4.836  28.179  21.918  0.0046 -0.0030 -0.0944
27181W        W70094   3.240   6.657  23.332  0.1364 -0.2415  0.0735
27182W        W70095   8.233  28.653  22.544  0.1226 -0.1059  0.2857
27183W        W70096  15.504  24.533  21.829  0.2875 -0.1948  0.0578
27184W        W70097  18.735  12.267  18.761  0.4950  0.2368 -0.1863
27185W        W70098   0.169  14.478  26.762 -0.2228 -0.0394  0.3077
27186W        W70099   7.224  18.835  18.238  0.0985 -0.2036  0.1237
27187W        W70100   6.157  14.147  16.924 -0.3086 -0.2586  0.3606
27188W        W70101  33.352  12.470  16.141 -0.0074  0.0891 -0.0525
27189W        W70102  15.120  13.785  17.021 -0.0428 -0.0016 -0.0066
27190W        W70103   5.021   4.405  20.429 -0.1028 -0.0305 -0.1876
27191W        W70104  10.071  27.991   8.029 -0.2475 -0.0496 -0.1351
27192W        W70105   2.361  12.113  16.642 -0.4205  0.0218  0.2319
27193W        W70106   0.154   9.736  18.336 -0.1386  0.1991  0.0295
27194W        W70107   6.730  25.258   6.958  0.1562 -0.3120  0.1389
27195W        W70108  12.777   6.446  18.360 -0.1502  0.1103 -0.0439
27196W        W70109  10.074   4.800  17.778 -0.1854 -0.0453 -0.1018
27197W        W70110   6.833  11.500  16.345  0.0525  0.0029  0.0269
27198W        W70111  10.546  19.815  12.958 -0.1229  0.0270  0.0507
27199W        W70112   4.110  25.604  20.746  0.1203  0.0763 -0.1105
27200W        W70113   5.357  23.339  18.963 -0.4231 -0.0501  0.0046
27201W        W70114   7.565  24.646  23.887 -0.0913  0.2389 -0.0418
27202W        W70115   5.775  24.998  16.482 -0.2882 -0.0979 -0.1487
27203W        W70116  14.349  15.116  19.312  0.2469  0.1407 -0.4582
27204W        W70117  12.339  17.819  12.234 -0.1468 -0.1665 -0.3031
27205W        W70118   8.803  20.618  22.535 -0.0220  0.1728  0.0556
27206W        W70119   5.987   5.774  24.878  0.0106  0.1325  0.0666
27207W        W70120   8.078   1.753  19.413  0.0935  0.0094 -0.0793
27208W        W70121  11.561  20.280  12.861 -0.3973 -0.4699  0.1345
27209W        W70122   8.867  18.519  16.810  0.1920 -0.0793  0.1020
27210W        W70123   1.399   9.073  23.550  0.1565  0.0586 -0.1573
27211W        W70124   0.918  13.639  14.556  0.0182  0.0747 -0.0800
27212W        W70125   6.417  20.499   4.498  0.2303 -0.0713 -0.0101
27213W        W70126  17.727  21.911  23.302 -0.1295  0.3421  0.0855
27214W        W70127  29.278  10.851  26.290  0.2712  0.0758 -0.0190
27215W        W70128   7.271  16.502   0.378  0.0248 -0.3175  0.0428
27216W        W70129  28.067  18.501  28.293  0.1091 -0.2090  0.0688
27217W        W70130   0.931  24.692  20.359  0.1092 -0.0102  0.0343
27218W        W70131   4.423  17.112  15.824  0.1810 -0.0400  0.0252
27219W        W70132   4.516  19.783  17.525  0.0315  0.0554  0.2137
27220W        W70133   5.289  15.078  21.651  0.1921  0.5842  0.2897
27221W        W70134   3.886  20.157  15.127 -0.1642  0.0005 -0.0933
27222W        W70135   2.289  11.951  14.921  0.5051  0.1674  0.1343
27223W        W70136  34.021  12.286  27.246 -0.2302 -0.1141  0.0621
27224W        W70137   5.638  23.339  23.144  0.1878 -0.1410  0.0955
27225W        W70138  11.564  26.156  25.621 -0.3159  0.1170 -0.2715
27226W        W70139  12.143  13.298   0.007 -0.2477  0.2086  0.1354
27227W        W70140   2.322  24.514  21.504  0.1408  0.1583  0.0338
27228W        W70141   4.591   8.246  28.493 -0.0806 -0.2270 -0.1626
27229W        W70142  32.282  14.836  21.580  0.1028  0.4352  0.1706
27230W        W70143  15.250  17.351  14.385  0.0018 -0.2392  0.0261
27231W        W70144   9.897  18.242  21.200 -0.0819 -0.3047 -0.1488
27232W        W70145   8.305  14.348  23.553  0.0791 -0.0980 -0.0890
27233W        W70146   8.255   8.432  20.279  0.1501 -0.2381 -0.0455
27234W        W70147   6.592   1.846  26.664  0.3547  0.1965 -0.0507
27235W        W70148   5.760   8.059  18.205  0.1763  0.1497  0.2718
27236W        W70149  33.220  21.579  27.928 -0.2885  0.1999 -0.0159
27237W        W70150  10.772  18.561  14.377 -0.1148  0.0246  0.4042
27238W        W70151  17.574  27.185  25.227 -0.0017  0.2778  0.1101
27239W        W70152   8.737  13.682  15.936 -0.0062  0.0992 -0.1395
27240W        W70153  31.983  20.209  18.419  0.0511 -0.0760  0.0794
27241W        W70154   5.012  20.689  14.098  0.0249 -0.0666 -0.1369
27242W        W70155  19.066   9.540  16.747  0.0516  0.0095 -0.1092
27243W        W70156  14.571  15.226   1.267 -0.2061  0.1822  0.1638
27244W        W70157   4.059  15.361  21.010 -0.0113  0.0376  0.1808
27245W        W70158  10.737  21.981  24.549  0.0810  0.1605 -0.2429
27246W        W70159   4.314  11.993  17.278 -0.3106  0.1130 -0.0136
27247W        W70160   2.205  18.195  13.433  0.1290  0.0068  0.6016
27248W        W70161   6.426  15.201  22.100 -0.1623 -0.1959 -0.1314
27249W        W70162   8.322  13.355  14.688 -0.0113  0.2634  0.3780
27250W        W70163  11.928   9.395  19.660 -0.0349 -0.0449  0.1597
27251W        W70164   3.267  23.773  27.399  0.5329 -0.3456 -0.2072
27252W        W70165   6.926   9.600  20.663 -0.5306  0.0581  0.0097
27253W        W70166   0.458  21.317  19.881  0.0942 -0.3709  0.1541
27254W        W70167  22.503  21.399  14.391  0.2569  0.0159  0.0840
27255W        W70168  11.976  15.331  16.890  0.1334  0.3238  0.0836
27256W        W70169  31.629  25.271  22.481  0.1046 -0.0718  0.2124
27257W        W70170  31.212  15.477  25.394 -0.1836 -0.0690 -0.2834
27258W        W70171   9.441   2.644  17.825 -0.0046  0.2130  0.0279
27259W        W70172   2.031  12.503  21.499 -0.0096  0.0068  0.1002
27260W        W70173  11.967  20.481  24.113 -0.0703 -0.1787 -0.4413
27261W        W70174   1.680   6.902  17.911  0.0697  0.1192  0.0164
27262W        W70175  11.767  24.643  16.943  0.0126 -0.5602  0.0551
27263W        W70176   7.470  11.173  15.844 -0.0319  0.0907  0.1011
27264W        W70177   3.089  15.609  16.375 -0.0362  0.4045  0.0618
27265W        W70178   4.030  20.293   0.124 -0.0559 -0.1238 -0.3148
27266W        W70179   2.667  14.745  23.837 -0.3190 -0.3224  0.1959
27267W        W70180   4.166  25.573  18.288 -0.2211 -0.3335  0.0721
27268W        W70181   7.893  19.896  25.761 -0.1026 -0.0525 -0.0613
27269W        W70182   6.500  15.706  16.093  0.5807  0.0625  0.3286
27270W        W70183   6.376  27.294   0.198 -0.1577  0.1791 -0.2123
27271W        W70184  10.608  12.602  26.177  0.1849  0.1065  0.4704
27272W        W70185  20.411  14.985  13.927 -0.1469  0.0019  0.0821
27273W        W70186   5.076   4.210  17.966  0.3665 -0.1249 -0.1288
27274W        W70187   8.814  21.019  29.620 -0.2603  0.3221  0.1091
27275W        W70188   7.106  12.863  14.912  0.1593  0.0397  0.0089
27276W        W70189  11.600  15.404   0.152 -0.4388  0.1194  0.0687
27277W        W70190   2.209  11.766  19.477 -0.1744  0.0202 -0.0853
27278W        W70191   3.438  13.079  27.595  0.0022 -0.0127  0.1058
27279W        W70192   8.603  13.347  18.397 -0.6662 -0.2623 -0.1728
27280W        W70193  15.683  23.864  26.117 -0.4059 -0.0356 -0.4068
27281W        W70194  33.430   4.252  23.759 -0.1223 -0.0988 -0.1940
27282W        W70195  31.510  28.650  26.193  0.4286  0.2382  0.0935
27283W        W70196  28.174  21.381  24.697 -0.0276  0.0590  0.1262
27284W        W70197   5.532  10.858  23.420 -0.2140  0.0782  0.0233
27285W        W70198  18.949  13.002  13.759  0.2637  0.0964 -0.4494
27286W        W70199   2.535   8.690  22.705 -0.1618  0.0964 -0.1986
27287W        W70200  13.782  19.404  18.369 -0.1726  0.3569  0.1347
27288W        W70201  15.348  22.471  19.884  0.0770 -0.2782  0.0258
27289W        W70202   2.279   6.579  22.044  0.0392  0.1415  0.4874
27290W        W70203  33.346  14.536  20.105  0.2053  0.1641  0.0910
27291W        W70204  22.251   4.318  24.267 -0.0171  0.2330  0.2136
27292W        W70205  29.289  24.334  23.500 -0.0642 -0.1991  0.0317
27293W        W70206   8.956  12.332   3.601  0.4167  0.0774 -0.1452
27294W        W70207   5.985  18.163  14.156 -0.2057 -0.0367 -0.2168
27295W        W70208   1.963  22.911  19.544  0.2786 -0.1379  0.0721
27296W        W70209   1.500  15.279  21.513  0.1443  0.1880 -0.0119
27297W        W70210   8.241  21.889  23.619 -0.2535 -0.1583  0.2376
27298W        W70211   5.094  22.424  21.949  0.0842 -0.2238  0.1724
27299W        W70212  10.271  17.499  19.139  0.0766  0.3630  0.1871
27300W        W70213   7.469  10.414  18.529  0.2653 -0.2406  0.2907
27301W        W70214  10.720  17.306  16.333 -0.1336  0.0248 -0.2133
27302W        W70215   3.513  28.057  18.015  0.0823  0.1348 -0.3304
27303W        W70216   8.199  19.893  17.641  0.0857 -0.0118 -0.1619
27304W        W70217   5.395  14.392  25.263 -0.0852  0.0079 -0.1122
27305W        W70218   0.618  18.241  24.024 -0.0010  0.0973 -0.1409
27306W        W70219   9.128   4.266   2.093 -0.0288  0.2357 -0.1292
27307W        W70220  14.436  21.999  21.305  0.0028 -0.0054 -0.0378
27308W        W70221   7.498  13.882  23.559  0.1593 -0.1174 -0.0935
27309W        W70222   4.753  29.201  16.346  0.0792  0.1031 -0.0835
27310W        W70223  10.894  21.252  28.919  0.0983 -0.3660 -0.1333
27311W        W70224   7.092  21.063  21.437  0.1846  0.1786  0.2801
27312W        W70225   5.445  19.400  14.012  0.0219  0.0957 -0.1643
27313W        W70226  16.295  17.915  15.025 -0.0978 -0.1320  0.0822
27314W        W70227   4.051   7.146  19.628  0.1732 -0.1359  0.1539
27315W        W70228   9.294  11.226  16.189 -0.3732  0.3472 -0.0975
27316W        W70229   3.486  11.047  26.569  0.0542  0.0753 -0.0322
27317W        W70230   4.649  10.275  17.028 -0.5725 -0.2317 -0.1964
27318W        W70231   5.116  21.647  18.190 -0.2727 -0.0973 -0.0733
27319W        W70232   3.620  27.186  16.687 -0.0369 -0.1790 -0.1287
27320W        W70233   2.319  24.685  17.655 -0.2100  0.1210 -0.2736
27321W        W70234  34.386   5.941  16.637 -0.1330 -0.1724 -0.1175
27322W        W70235  29.023  15.947  22.034 -0.0012  0.0833  0.1253
27323W        W70236   5.302  21.535  23.325 -0.1491 -0.2785 -0.0783
27324W        W70237   5.014  13.552  17.750 -0.1576 -0.2812  0.3768
27325W        W70238   4.772  18.143  23.852 -0.2443 -0.1265 -0.0683
27326W        W70239   8.451  15.089  15.899 -0.1852  0.0417  0.0006
27327W        W70240   8.886   6.602  27.279 -0.3074 -0.4606 -0.0732
27328W        W70241  14.644  12.693  17.595 -0.0272  0.0691 -0.0036
27329W        W70242  12.987  12.898  18.484 -0.0162 -0.2274  0.3135
27330W        W70243  30.529  25.005  20.879  0.0435  0.1478 -0.0874
27331W        W70244  13.299  22.678  24.609 -0.4068  0.1381 -0.0535
27332W        W70245  17.314   7.113  23.181  0.0533 -0.3594 -0.0151
27333W        W70246   9.861  12.139  21.898 -0.1147  0.0602  0.0400
27334W        W70247  30.592  14.536  19.547  0.0537 -0.0223  0.1784
27335W        W70248   8.314  21.209  27.503  0.0945  0.0892  0.1572
27336W        W70249  17.968  12.172  18.499  0.0523 -0.1803  0.3486
27337W        W70250   0.440  15.453   3.643  0.1090  0.1811 -0.0078
27338W        W70251   2.486  10.152  22.833  0.0735  0.0309  0.1647
27339W        W70252   8.753  19.166  28.076  0.0249 -0.1568  0.0321
27340W        W70253  10.927  22.579  20.586  0.1509 -0.1996 -0.0535
27341W        W70254   3.239  24.171  23.877  0.1394  0.0937  0.3014
27342W        W70255   6.025  17.342  27.898 -0.1992  0.2174  0.0008
27343W        W70256   4.420  14.902  20.920  0.0536  0.0421 -0.2215
27344W        W70257   3.235   5.867  18.112  0.0244 -0.0163  0.2193
27345W        W70258  15.560  15.266   0.120  0.3873 -0.0051  0.1765
27346W        W70259   1.539  12.699   5.254  0.0640  0.1901 -0.0696
27347W        W70260   0.229  17.020  15.905 -0.0277 -0.2911 -0.1018
27348W        W70261   3.809   8.537  19.703  0.0998 -0.0822 -0.1155
27349W        W70262   6.432   3.845  19.894 -0.1227 -0.0534  0.1371
27350W        W70263  32.038  21.162  26.670  0.2505 -0.1143  0.2185
27351W        W70264   7.352  20.319  15.382  0.0558  0.1122  0.1504
27352W        W70265   8.142  12.812  20.110 -0.2874  0.1286  0.1671
27353W        W70266   7.337  26.478   0.285 -0.3546  0.1120  0.0288
27354W        W70267   0.687  12.087  23.713 -0.0590  0.1210  0.0580
27355W        W70268  10.642  17.524  24.756 -0.1540  0.4705 -0.0774
27356W        W70269   2.525  29.583  27.730 -0.2907 -0.1214  0.2665
27357W        W70270  31.413   6.388   1.202  0.2290 -0.0970  0.1013
27358W        W70271   9.282  19.867   1.611  0.1018  0.1824  0.0275
27359W        W70272  10.420  10.946  20.795  0.1112 -0.1136  0.1240
27360W        W70273   3.535  22.519  21.214  0.0713 -0.0640 -0.1556
27361W        W70274   3.739   7.693  21.683 -0.2333  0.1207  0.1068
27362W        W70275   3.393  23.532  23.381 -0.2558  0.1864  0.0543
27363W        W70276  13.740  24.763  16.814  0.0925 -0.2244  0.2055
27364W        W70277   6.892  14.022  28.590  0.2916 -0.0254 -0.0642
27365W        W70278  29.670   5.283  22.497  0.4339  0.3894  0.0050
27366W        W70279   1.627  31.746  14.682  0.0202 -0.1122  0.1160
27367W        W70280  13.847  20.527  18.906 -0.0469 -0.2473  0.1027
27368W        W70281   3.857   0.571   6.669 -0.1647  0.1195 -0.0758
27369W        W70282   8.273  24.358  28.884  0.0631  0.0625  0.1791
27370W        W70283   5.807  25.651  19.127  0.0033  0.0009 -0.0820
27371W        W70284  33.107  21.366  21.870 -0.1754 -0.1419  0.1104
27372W        W70285  10.419  13.333  25.321  0.4891  0.2675 -0.0945
27373W        W70286   2.210  16.663  17.223 -0.3913 -0.1023 -0.0221
27374W        W70287  26.237  20.219  17.063 -0.1745 -0.2610 -0.0134
27375W        W70288   1.043  15.072  23.338  0.2556  0.2557 -0.1966
27376W        W70289   1.614  15.832  25.450  0.3577  0.0870 -0.0905
27377W        W70290   9.542  21.625  21.646 -0.1752  0.1902 -0.1525
27378W        W70291   9.831  16.596  23.541  0.3268  0.0089 -0.3767
27379W        W70292  10.369  17.507   4.760 -0.2607  0.2539  0.0832
27380W        W70293   1.152  14.436  14.439  0.2935  0.0317 -0.2010
27381W        W70294   2.531  11.792  21.268 -0.0440  0.0430  0.0772
27382W        W70295   2.375  19.914   5.804 -0.1043 -0.2972 -0.1099
27383W        W70296  15.686   8.605  17.860  0.0707  0.4282 -0.0261
27384W        W70297   5.654  17.046   0.422 -0.1152 -0.1764  0.1828
27385W        W70298   3.183  23.059  23.371 -0.1926  0.0523 -0.1259
27386W        W70299   9.569  19.283   3.698  0.1722  0.0315  0.3932
27387W        W70300   3.043  15.495  22.771 -0.0820 -0.1907 -0.2038
27388W        W70301   0.153  17.807  26.107  0.3312 -0.1991  0.1015
27389W        W70302   4.947  19.110  19.325 -0.2503  0.1474 -0.1780
27390W        W70303   9.502  15.294  23.285 -0.0359 -0.0458  0.1805
27391W        W70304   1.658  14.691   0.271  0.3071  0.0512 -0.0309
27392W        W70305   2.264  10.010  21.916 -0.0977  0.2174 -0.0112
27393W        W70306   7.607  26.656  23.371 -0.1043 -0.0318  0.0405
27394W        W70307   4.252  26.670  29.140  0.0148 -0.0942  0.1357
27395W        W70308  34.319  20.768  29.013  0.3872 -0.2211  0.4544
27396W        W70309  12.702  21.810  13.435 -0.1386 -0.0959  0.1767
27397W        W70310   5.844  11.522  18.039 -0.1213 -0.0016 -0.1658
27398W        W70311   5.167  20.040  18.551  0.1697 -0.0230 -0.1657
27399W        W70312  28.292  22.393  20.563  0.0782 -0.3015 -0.2226
27400W        W70313  21.342  17.913  14.521 -0.0601 -0.0714  0.1219
27401W        W70314   7.947  11.473  27.460  0.1406  0.2231  0.0728
27402W        W70315   6.126  21.453  23.212  0.1514  0.0390 -0.0863
27403W        W70316  11.747  32.230  15.824  0.3476 -0.3429  0.1188
27404W        W70317  13.447  24.695  20.917  0.0586 -0.0638 -0.5113
27405W        W70318  14.881  29.090  22.976 -0.1592 -0.3040  0.1932
27406W        W70319   7.058  22.969  25.479 -0.1701  0.0383  0.0193
27407W        W70320   1.198   6.436   2.983 -0.2868  0.0326 -0.0316
27408W        W70321   5.348  20.712  21.294 -0.2850 -0.0365  0.1826
27409W        W70322   1.838  15.174  17.415 -0.1782  0.0998  0.2264
27410W        W70323  10.196  14.528  21.458  0.0425 -0.2797  0.2317
27411W        W70324  12.715  23.030  26.670  0.1418  0.1013 -0.5298
27412W        W70325  11.527  14.178  14.924  0.3019 -0.0714  0.2111
27413W        W70326   0.327  31.661   6.601 -0.0431 -0.3257  0.2623
27414W        W70327  10.408   3.597   1.883 -0.0118  0.4666  0.1606
27415W        W70328  31.798  21.219  20.717  0.0023  0.1952 -0.2561
27416W        W70329   8.910  19.958  17.113 -0.3175  0.3754 -0.0350
27417W        W70330   2.337  21.291  18.403 -0.0188 -0.1566 -0.0981
27418W        W70331  10.262   9.290  21.864 -0.3495 -0.3358 -0.4039
27419W        W70332  11.919  18.786  20.013  0.1162 -0.0123  0.2283
27420W        W70333   7.332  14.108  14.498  0.0932 -0.0600 -0.0479
27421W        W70334  28.300  27.401  26.584 -0.2816  0.2747 -0.1519
27422W        W70335  20.487  26.111  27.098 -0.2448  0.0424 -0.4694
27423W        W70336  10.370  25.400   0.488  0.0925 -0.0540 -0.0838
27424W        W70337   2.497  18.335  18.674 -0.3754 -0.2092 -0.1111
27425W        W70338   4.103   7.812  17.353 -0.0426  0.1243  0.2253
27426W        W70339  12.621  13.607  20.241  0.2066 -0.0576  0.0181
27427W        W70340  11.799  21.231  26.117 -0.0190 -0.0459  0.0829
27428W        W70341   6.697  11.972  22.272  0.0981 -0.2399  0.1019
27429W        W70342  29.421  21.782  17.242  0.0511  0.0889 -0.0998
27430W        W70343   1.742   7.520  19.843  0.1958  0.0680 -0.1263
27431W        W70344   5.764  13.835  16.686 -0.1368 -0.2015 -0.0683
27432W        W70345   0.411   4.335  22.571  0.0928 -0.1548  0.1281
27433W        W70346   4.119  18.191  20.327 -0.2457 -0.2735 -0.0777
27434W        W70347  12.250  23.691  25.587 -0.0588 -0.1674 -0.0079
27435W        W70348   1.006  17.967  15.317 -0.1475  0.1334  0.0097
27436W        W70349  11.082  13.755   2.844 -0.1839 -0.2552 -0.3663
27437W        W70350  12.594   5.696  23.673  0.1737  0.2930  0.1200
27438W        W70351   4.830  20.448  22.629 -0.1048  0.1360 -0.0158
27439W        W70352   1.814  19.718  21.083 -0.1354 -0.0120  0.0809
27440W        W70353   7.802  10.751  20.585 -0.3322 -0.2492 -0.0585
27441W        W70354  11.996  16.761  17.706  0.0625  0.1982 -0.0171
27442W        W70355  10.362   3.135  23.783 -0.0952 -0.3711  0.3564
27443W        W70356   5.606  10.547   1.051  0.2292  0.0891 -0.0816
27444W        W70357  21.106   9.871  17.992 -0.0243  0.1399  0.1058
27445W        W70358   4.538  16.063   9.335  0.4251 -0.1008  0.0873
27446W        W70359   7.035  18.977   0.809 -0.0421  0.0744 -0.0576
27447W        W70360   4.376   8.367  23.583 -0.2190 -0.0833 -0.0571
27448W        W70361   6.114   4.143  19.583  0.0093  0.0099  0.2428
27449W        W70362   4.319  20.122  19.414 -0.0941 -0.0100 -0.1175
27450W        W70363   8.294  16.304  24.777 -0.0316  0.1753  0.1756
27451W        W70364  33.820  22.479  24.463 -0.0471  0.0236  0.0070
27452W        W70365  13.457   5.909  24.693 -0.1398 -0.2741  0.0937
27453W        W70366   2.935  16.846  15.993  0.2834 -0.2343 -0.2049
27454W        W70367   2.614  28.290  19.663 -0.0933  0.0048 -0.2803
27455W        W70368  11.540  25.001  23.669 -0.0038  0.1571  0.0273
27456W        W70369   5.039  14.636  19.455 -0.0779  0.3542  0.5522
27457W        W70370   8.248  22.065  18.510  0.0007 -0.1983  0.0759
27458W        W70371   9.244  18.745  26.511 -0.2573  0.3798  0.0741
27459W        W70372  14.292   6.248   0.940 -0.0649  0.0209  0.1876
27460W        W70373   6.115  18.093  25.933  0.3382 -0.0265  0.0379
27461W        W70374  30.421  20.283   0.307  0.3368  0.2078  0.0819
27462W        W70375   1.093  26.498  23.057 -0.3863  0.1531 -0.1752
27463W        W70376   0.247  21.120  24.535 -0.2178 -0.1558  0.1177
27464W        W70377   4.780  23.594  28.906 -0.0648 -0.0576  0.1213
27465W        W70378   3.286  19.186  20.351  0.0955 -0.1500 -0.0147
27466W        W70379  32.213  26.018  21.398 -0.2778  0.2522  0.0305
27467W        W70380   5.766  16.602  21.527  0.1061 -0.0027  0.2973
27468W        W70381   4.226  14.825  22.327 -0.2212  0.1143 -0.3012
27469W        W70382  17.185   8.931  27.136 -0.0096 -0.1996 -0.0354
27470W        W70383   5.190   4.299  22.473  0.0640  0.1951  0.2153
27471W        W70384  10.375  28.853  25.056 -0.0410  0.0226 -0.1108
27472W        W70385   1.571  20.997  24.204 -0.0586 -0.2193  0.0143
27473W        W70386   9.905   9.496  26.449 -0.0869  0.3114 -0.2030
27474W        W70387   6.505  28.486  18.941  0.1512 -0.1141  0.0046
27475W        W70388   6.834  20.100  26.401 -0.0636 -0.2885 -0.1216
27476W        W70389   6.745  16.335   6.457 -0.1343 -0.0794  0.2767
27477W        W70390   6.826  25.107  18.668 -0.2150  0.1615 -0.0251
27478W        W70391   4.661  15.380   1.340  0.0245  0.1913 -0.0055
27479W        W70392   0.198  22.094  14.895 -0.1863 -0.0599  0.0883
27480W        W70393  15.797  13.597  22.656  0.4160  0.0289  0.1984
27481W        W70394  15.154   4.793  21.839 -0.1863 -0.2692  0.2317
27482W        W70395   9.383  31.178  22.345 -0.1091 -0.1967  0.1641
27483W        W70396  15.770  17.922  27.517  0.0874 -0.0892 -0.3358
27484W        W70397   4.358  16.361   3.097  0.0705 -0.1634 -0.3302
27485W        W70398   2.610  25.546  26.548 -0.1276 -0.0997  0.0675
27486W        W70399  13.510  12.315  22.637  0.2175 -0.1310  0.0855
27487W        W70400  31.826  25.747  19.328 -0.2778  0.0144 -0.0695
27488W        W70401   6.901   9.674  25.651 -0.0375  0.2185 -0.0719
27489W        W70402  16.955  24.589  15.707 -0.0133 -0.0933 -0.1278
27490W        W70403   7.648  19.141  18.108  0.0507  0.1870  0.0222
27491W        W70404  14.272  17.112  25.302 -0.2483 -0.2514  0.0009
27492W        W70405   5.086  19.444  28.346 -0.1746 -0.0354  0.2712
27493W        W70406  10.793  15.784  23.169  0.4504 -0.0580  0.0525
27494W        W70407  17.582  11.796  23.873 -0.1601  0.2004 -0.1338
27495W        W70408   7.455   7.736  20.180  0.1682 -0.2284  0.0651
27496W        W70409  11.439   8.916  17.404 -0.1662  0.1891  0.2437
27497W        W70410   2.513  16.645  14.354 -0.0849  0.0160  0.1398
27498W        W70411   7.318   6.446  19.066  0.1912  0.3849 -0.2572
27499W        W70412   8.824  23.461  15.833  0.2417 -0.2374  0.3063
27500W        W70413  33.886   9.411  24.241  0.1067 -0.1149  0.0033
27501W        W70414   9.997  20.085  15.401  0.1392 -0.1588 -0.1463
27502W        W70415   3.643  13.405  17.995  0.2319  0.0271  0.1975
27503W        W70416  28.107  19.681  19.573  0.2246  0.4068 -0.1578
27504W        W70417   7.586  14.766  17.587  0.1237  0.3566  0.1172
27505W        W70418   0.868   8.458   2.129 -0.3421  0.0383 -0.0295
27506W        W70419   2.152  20.316   1.177 -0.2225 -0.2360 -0.2413
27507W        W70420   6.696  26.048  26.846  0.2073 -0.1201  0.1510
27508W        W70421   6.015  21.749   0.446 -0.0568  0.3202 -0.0179
27509W        W70422   4.529  20.318  21.117  0.1071 -0.0060 -0.2218
27510W        W70423  21.974  25.201  24.957 -0.3587 -0.0632 -0.3221
27511W        W70424  14.884   3.631  19.288  0.1305  0.0634  0.1955
27512W        W70425  10.161  18.779  17.429  0.1441 -0.2091  0.2573
27513W        W70426  34.495   9.939  17.028 -0.1334  0.0041  0.1349
27514W        W70427  15.714  10.312  16.597 -0.0746 -0.1456  0.1765
27515W        W70428  19.895  28.274  16.995  0.2655 -0.2072 -0.2195
27516W        W70429  34.447  14.753   1.046  0.1355 -0.1270  0.1743
27517W        W70430   9.926  14.488  23.770  0.0885 -0.1159 -0.1595
27518W        W70431   3.344  12.831   1.355 -0.2630 -0.0977 -0.1156
27519W        W70432  12.990  17.179   5.499 -0.0283 -0.1225 -0.1623
27520W        W70433  26.491  18.109  26.774  0.0371 -0.1818 -0.0813
27521W        W70434   4.297  19.037   9.455 -0.2132  0.0151  0.1605
27522W        W70435   8.884  12.100   4.033  0.3405  0.3317 -0.0142
27523W        W70436   6.789  25.000  22.481  0.2130 -0.4547 -0.1448
27524W        W70437   4.375   4.735  29.438 -0.0773 -0.3332 -0.3016
27525W        W70438  29.143  25.640  28.076 -0.1792  0.0058 -0.1389
27526W        W70439  22.575  11.334  28.436  0.0191 -0.0533 -0.0520
27527W        W70440   8.711  14.032  22.528  0.0810  0.1330  0.1734
27528W        W70441   3.064  25.629  27.616  0.1914  0.2812 -0.0713
27529W        W70442   3.376  14.345  13.484  0.1265 -0.2372  0.0534
27530W        W70443   3.877   9.669  21.814 -0.0514  0.1356  0.1227
27531W        W70444   5.914  23.755  13.632 -0.1207  0.0398  0.0280
27532W        W70445   1.520  10.794  16.557  0.1865 -0.0127  0.0161
27533W        W70446   7.293   5.512  24.117  0.0456 -0.0702  0.0584
27534W        W70447  32.962  16.437  15.969  0.4664  0.0576 -0.1214
27535W        W70448   4.665  13.096  20.373 -0.0968  0.0244  0.2167
27536W        W70449   5.116  27.402  15.191  0.3052  0.3313  0.0433
27537W        W70450   3.632   6.995   5.228  0.1028  0.0763  0.1331
27538W        W70451  12.632  12.189  22.202  0.0065 -0.1218  0.3576
27539W        W70452   7.941  13.208  25.636  0.0909  0.1139 -0.2757
27540W        W70453   8.585  16.673  29.612  0.4102  0.1245 -0.1470
27541W        W70454   9.760   8.332  26.049 -0.2137  0.2204  0.2164
27542W        W70455   5.330  16.927  22.261 -0.0401  0.4460  0.1141
27543W        W70456  32.880  22.470  24.866 -0.1038  0.2231 -0.0474
27544W        W70457   2.026  14.465  22.418 -0.1324  0.4776  0.0295
27545W        W70458  34.466  26.322  24.780  0.0116 -0.3370  0.0593
27546W        W70459   9.520  13.309   6.179 -0.0802 -0.1499 -0.3777
27547W        W70460  12.024  12.044  27.479 -0.0658 -0.0101  0.1920
27548W        W70461   1.512  17.081  10.117 -0.0749 -0.0414  0.3937
27549W        W70462   2.157  23.285  27.821 -0.2040  0.1123 -0.3629
27550W        W70463   4.874   9.266   1.189 -0.0738  0.0689  0.0557
27551W        W70464   9.031   9.511  21.763 -0.2462  0.0459  0.2649
27552W        W70465   6.180  17.596  19.068 -0.0887 -0.2698 -0.2060
27553W        W70466  32.758  16.165  22.274  0.3803 -0.3610  0.0442
27554W        W70467   5.563  17.195  27.924 -0.3738 -0.2552  0.0927
27555W        W70468  11.769  15.914  24.904 -0.0661 -0.2381  0.1318
27556W        W70469  10.107   7.935   4.449  0.2970 -0.0115  0.2261
27557W        W70470   1.909   7.390   8.400 -0.3301  0.0241  0.0238
27558W        W70471  11.521   8.213  22.156  0.3296 -0.1069 -0.1076
27559W        W70472   0.813  19.748  25.895  0.3065 -0.2490  0.2267
27560W        W70473  14.242  15.451  27.996  0.2417  0.2267  0.0263
27561W        W70474   3.327   5.352  17.018  0.3021  0.0605 -0.1089
27562W        W70475   9.769  23.277   8.016 -0.2231  0.2994 -0.4102
27563W        W70476   8.660   9.984  19.294  0.1352 -0.2052 -0.2403
27564W        W70477   6.208   7.125   0.952  0.0467 -0.1467 -0.0762
27565W        W70478  25.023  12.015  17.172 -0.0750 -0.2095 -0.1572
27566W        W70479  32.501   4.732  19.447 -0.1118  0.1083 -0.2369
27567W        W70480   7.651  12.843  21.642  0.1618 -0.2013  0.1280
27568W        W70481   6.461  22.244  22.997 -0.0075 -0.2714  0.0862
27569W        W70482   5.658  21.637   4.102  0.4548  0.0709  0.2622
27570W        W70483   9.245  21.182  29.476  0.1839  0.2247 -0.2660
27571W        W70484   1.710   4.257  23.700  0.4804 -0.4288  0.0701
27572W        W70485   6.531  14.176  25.259  0.1099  0.0019  0.0185
27573W        W70486   5.032  22.361  28.156  0.0515 -0.1306 -0.1376
27574W        W70487  13.639   1.130  23.093  0.0880 -0.2428 -0.0695
27575W        W70488   4.284  18.027  16.082  0.1760  0.1436  0.1562
27576W        W70489   6.147  10.801  21.199 -0.0877  0.1830 -0.1294
27577W        W70490   6.332  21.111  17.732 -0.0329 -0.0025  0.1544
27578W        W70491   9.457  14.561   3.570  0.2609  0.0964 -0.0181
27579W        W70492  12.895   8.466  23.771 -0.2100  0.0254 -0.1986
27580W        W70493   2.460  15.782  15.291 -0.0780 -0.3939 -0.0241
27581W        W70494   3.775  16.624  24.787 -0.4456 -0.0117 -0.1214
27582W        W70495  29.508  22.796  27.698  0.1951  0.0171 -0.0790
27583W        W70496   3.986  16.808   1.123  0.0535  0.0082 -0.0677
27584W        W70497   9.639  17.579  21.921 -0.4616 -0.2648  0.4096
27585W        W70498  12.500  26.125  24.848  0.0157 -0.1519  0.0160
27586W        W70499   1.257  25.117   2.405  0.0899  0.6023  0.3347
27587W        W70500   0.501  12.822  15.851 -0.2547  0.2733  0.0080
27588W        W70501   3.211   8.676  20.326  0.0063 -0.0754  0.3226
27589W        W70502   9.028  24.323  22.435 -0.2452 -0.3495  0.2230
27590W        W70503   3.322  16.253  20.614 -0.1356 -0.2319  0.0285
27591W        W70504  14.857  10.255  24.553  0.2848 -0.2839 -0.1713
27592W        W70505  10.030  19.297  21.681 -0.1578  0.2361 -0.2423
27593W        W70506   3.953   4.062   2.257  0.1203 -0.1726 -0.0223
27594W        W70507   5.653  22.935  28.568 -0.1013  0.2684  0.0271
27595W        W70508  25.111   1.594  23.767 -0.1137 -0.0713 -0.1717
27596W        W70509  18.835  21.710  20.578 -0.1057 -0.2846  0.0785
27597W        W70510   4.955  18.835  20.489  0.1173 -0.0222 -0.0021
27598W        W70511   9.950  19.461  17.864 -0.0139 -0.0100  0.1443
27599W        W70512   5.278  20.492   2.798 -0.1442 -0.1052 -0.0344
27600W        W70513   6.906  13.878  22.816  0.0185  0.0340  0.0316
27601W        W70514  29.122  17.115  16.905 -0.3228 -0.0108  0.1603
27602W        W70515   3.074  16.660  15.218 -0.2205  0.0578  0.0653
27603W        W70516   9.426  21.758  19.859  0.1116  0.1436 -0.1716
27604W        W70517   6.539  23.551  23.842 -0.1226  0.0446  0.1479
27605W        W70518   4.717   6.260  20.599 -0.2383 -0.0180 -0.0351
27606W        W70519   1.394  26.122  28.989 -0.0207 -0.2638  0.0332
27607W        W70520  31.788  27.080  28.958 -0.2519 -0.0741 -0.3326
27608W        W70521   0.948  12.642  20.315  0.3488  0.1477  0.4314
27609W        W70522  13.928  20.851  22.520  0.0091 -0.0904  0.0175
27610W        W70523   9.104  19.959   2.594 -0.2131 -0.1470 -0.1157
27611W        W70524   3.850  16.691  14.412  0.0166  0.1327  0.2101
27612W        W70525   7.585  19.005  26.760 -0.2906  0.0270 -0.0382
27613W        W70526   6.681  24.608  19.787 -0.0950 -0.0529 -0.0891
27614W        W70527  16.351  25.896  20.512 -0.2658 -0.0969 -0.1241
27615W        W70528  12.050   8.522  16.286  0.2786  0.0707 -0.1663
27616W        W70529   5.355  23.858  15.506 -0.0934 -0.0536 -0.0985
27617W        W70530   8.968  18.359  28.843 -0.1052 -0.0146  0.0570
27618W        W70531   2.090  11.835  18.204  0.1293 -0.1549 -0.1387
27619W        W70532  11.396  10.438  21.860 -0.4691  0.1632 -0.0003
27620W        W70533   6.147  12.267   1.034  0.2032  0.2594  0.0709
27621W        W70534  33.359  23.558  22.130 -0.0037  0.0901 -0.2077
27622W        W70535  30.236  27.646  16.167 -0.2687  0.1440 -0.2124
27623W        W70536  33.018  12.830  23.649 -0.0573 -0.0856  0.0455
27624W        W70537  32.479  15.384  19.800  0.3368 -0.1001  0.0526
27625W        W70538  10.360  11.176  17.437 -0.0273 -0.0309  0.0188
27626W        W70539  33.773  14.647  17.245 -0.4445  0.2304 -0.0249
27627W        W70540  10.090  17.865  19.407  0.2839  0.2390  0.0113
27628W        W70541   4.332  26.673  27.857  0.0126  0.4171 -0.0485
27629W        W70542   4.351   8.743  17.004 -0.0983  0.1681 -0.0290
27630W        W70543  12.263  14.217  27.589 -0.1137 -0.1297 -0.2200
27631W        W70544   6.457  27.458  24.192  0.0831  0.0391 -0.1153
27632W        W70545  13.827  14.628   3.360  0.0550 -0.0087  0.2337
27633W        W70546   8.287  32.642   6.065 -0.3606  0.0562 -0.1037
27634W        W70547  18.648   6.979  14.888 -0.1207  0.2586 -0.1285
27635W        W70548  12.488  15.442  29.253 -0.2562 -0.0196 -0.0441
27636W        W70549   0.781  22.094  24.816 -0.0675 -0.2311  0.0363
27637W        W70550   6.908  20.608  15.354  0.1265 -0.1017  0.0525
27638W        W70551  32.167  18.648  23.846 -0.2477 -0.1411  0.0377
27639W        W70552   8.214   4.882  20.342 -0.3166 -0.0308  0.0529
27640W        W70553  18.357   7.547  19.493  0.2224 -0.1058  0.1198
27641W        W70554  10.486  11.618  22.072 -0.2006 -0.1476 -0.2297
27642W        W70555   6.001  22.868  14.646  0.1955  0.0207  0.0583
27643W        W70556   1.915  16.493  29.620 -0.1170  0.1348  0.3527
27644W        W70557  10.490  19.243  26.662  0.2877 -0.1225  0.0075
27645W        W70558  11.077  17.515  24.533 -0.0930  0.1790  0.1324
27646W        W70559  11.441  12.447  24.225 -0.0051  0.0540 -0.4686
27647W        W70560   4.257  20.994  24.567 -0.2568 -0.2712  0.2587
27648W        W70561   1.534   6.151  24.367  0.0315 -0.2124  0.0675
27649W        W70562   3.430  13.430  28.384 -0.0755 -0.0532 -0.1423
27650W        W70563   6.660   7.864  26.847 -0.0643 -0.1410 -0.1379
27651W        W70564   6.125  13.153   0.883 -0.2517  0.1742  0.2111
27652W        W70565  28.590  14.360  17.465 -0.1494 -0.0060  0.0965
27653W        W70566   3.609  15.249   3.183  0.1281  0.0989  0.0464
27654W        W70567   6.194  18.787  27.145 -0.1847  0.0253  0.1581
27655W        W70568  15.290  23.819  18.420  0.1129  0.0820 -0.1086
27656W        W70569  14.679   2.800   0.564  0.0735  0.0732  0.3058
27657W        W70570  33.868  17.128  19.985  0.0193 -0.1382 -0.0000
27658W        W70571   6.890  11.836   3.013 -0.1423  0.2419 -0.1935
27659W        W70572  12.546   7.837   8.120 -0.0547  0.0943 -0.0550
27660W        W70573   0.940  20.659   2.114 -0.3941  0.0513 -0.0676
27661W        W70574  17.552  22.726  16.766  0.1188 -0.0798  0.0596
27662W        W70575  11.615  23.818  22.500  0.1400  0.1038 -0.3345
27663W        W70576  32.479  16.949   2.548  0.1047  0.0477  0.0474
27664W        W70577  34.495  25.891  17.284  0.2736 -0.2219 -0.2054
27665W        W70578  33.101  32.258  20.753  0.0596  0.0656  0.0079
27666W        W70579   0.735  20.979  17.998 -0.2737 -0.2804 -0.0563
27667W        W70580   9.656  14.949  23.704 -0.1335 -0.0582 -0.4049
27668W        W70581   6.420  16.138  17.542 -0.4447 -0.2623  0.1202
27669W        W70582  15.708  21.014  22.360 -0.2592 -0.0937  0.1508
27670W        W70583  18.923  20.960  15.160 -0.2054 -0.2184  0.2154
27671W        W70584   5.320  20.907  17.501 -0.0383 -0.0586  0.2439
27672W        W70585   3.642  19.468   2.715  0.1294  0.2040  0.0042
27673W        W70586   8.465   4.273  21.118  0.0358 -0.0608  0.1002
27674W        W70587   6.339  25.730  27.096  0.0420  0.1847  0.0158
27675W        W70588   9.894  33.377  22.699 -0.0123 -0.2662 -0.0144
27676W        W70589  34.239  25.287  26.529  0.0413  0.1458 -0.2234
27677W        W70590   9.827   9.601  21.358 -0.1102  0.1224 -0.2090
27678W        W70591   8.056  16.790  23.588 -0.0668  0.3075 -0.1628
27679W        W70592   2.665  16.366  20.006  0.0395  0.1255  0.0611
27680W        W70593  33.327   2.120  24.456 -0.2190  0.2588 -0.0230
27681W        W70594  34.169   9.097  21.392  0.0862 -0.2259 -0.0011
27682W        W70595   0.162  27.198  16.803 -0.2778 -0.4212 -0.1159
27683W        W70596  27.963   4.344   0.350 -0.3094  0.0050  0.0520
27684W        W70597   7.681  18.328  25.934 -0.2503 -0.2399  0.3044
27685W        W70598   1.641  12.549  15.313  0.0272  0.3952  0.0960
27686W        W70599  12.297  27.979  24.180 -0.0677 -0.1838 -0.1498
27687W        W70600   8.638  21.871  17.556 -0.2273 -0.1533 -0.0882
27688W        W70601   2.105  28.049  28.759 -0.0848 -0.0518  0.0847
27689W        W70602  34.137   8.279  16.784 -0.1274  0.0733 -0.3254
27690W        W70603   1.804  17.612   1.159 -0.2231 -0.1762  0.1025
27691W        W70604  10.446   9.507  25.753  0.0342  0.0234 -0.2805
27692W        W70605   2.641  19.589  24.719  0.1359 -0.0720  0.3480
27693W        W70606   6.659   9.032  21.406 -0.1328  0.1678 -0.0649
27694W        W70607   4.673  17.595   1.997  0.0060 -0.1398  0.0669
27695W        W70608   3.438  11.131  17.284 -0.2364 -0.0436  0.3922
27696W        W70609   8.721  10.995  26.200  0.3048 -0.0009 -0.1481
27697W        W70610   6.898  16.658  26.131 -0.0293 -0.2749 -0.0916
27698W        W70611   6.126  25.751  17.522  0.1342 -0.1513  0.3024
27699W        W70612   4.790  17.012  16.201 -0.2541 -0.0859  0.0301
27700W        W70613   3.573   3.595  29.278 -0.1636 -0.1033 -0.1905
27701W        W70614  28.370  13.211  24.176  0.0702 -0.3938 -0.0551
27702W        W70615   7.108  15.599  19.137  0.1613 -0.1281  0.0471
27703W        W70616   5.309  19.949  20.853  0.1690 -0.1722 -0.3989
27704W        W70617  34.351  10.708   1.755 -0.1311 -0.1069 -0.1440
27705W        W70618   6.735  16.274  28.373  0.0754  0.0337 -0.0295
27706W        W70619   4.442  15.243   3.248 -0.5932  0.0743 -0.1596
27707W        W70620   4.488  18.891   0.511 -0.1557 -0.1280  0.1661
27708W        W70621   4.947  12.486  19.476 -0.0106  0.0653  0.1331
27709W        W70622  11.471  22.141  27.017  0.1027  0.4345 -0.0397
27710W        W70623   6.178  18.435  27.636 -0.2769 -0.1476 -0.0327
27711W        W70624   1.172  20.715  15.734  0.0275 -0.0343  0.0603
27712W        W70625   2.592  13.430  19.065 -0.1310 -0.1245 -0.1497
27713W        W70626  33.659  11.288  26.789  0.0628  0.1521  0.2413
27714W        W70627  13.717  20.374   4.480 -0.0939  0.2694 -0.1367
27715W        W70628  13.458  23.988   7.424 -0.1045 -0.0893  0.0274
27716W        W70629  34.438   2.745  18.239  0.0337 -0.0712 -0.3261
27717W        W70630  30.229  11.346  19.933  0.1156 -0.3721 -0.3110
27718W        W70631  15.940  13.986  27.474  0.0348 -0.4647 -0.0562
27719W        W70632   2.314  27.004  28.755 -0.0414 -0.2268 -0.1255
27720W        W70633  12.650  12.585  24.347 -0.1200  0.0523  0.1833
27721W        W70634   6.071  16.569  29.652 -0.1954 -0.1292 -0.2395
27722W        W70635  12.351  25.172   2.027  0.2246 -0.0928  0.1756
27723W        W70636   7.673  25.390  18.265 -0.3059 -0.2517  0.0615
27724W        W70637  12.936  20.256  29.763  0.0350 -0.2273 -0.1652
27725W        W70638  10.178  20.653  24.776 -0.1005 -0.1060  0.0467
27726W        W70639  11.689   8.045   5.565 -0.1486  0.2685  0.1187
27727W        W70640  11.873  29.114  23.381  0.0706  0.1225  0.2503
27728W        W70641  28.309  11.916  24.598 -0.1149 -0.2113  0.2628
27729W        W70642  13.129  26.449  18.020  0.3445 -0.0898 -0.2028
27730W        W70643  33.845  21.792  25.416  0.0581 -0.0196  0.1958
27731W        W70644   9.934  17.056   0.168  0.1701  0.2424  0.3060
27732W        W70645   6.617  19.247   0.686  0.0442 -0.1863 -0.3837
27733W        W70646  10.184  15.079  25.499 -0.1723  0.1459 -0.1315
27734W        W70647   6.646  22.702  27.008 -0.0066 -0.1065 -0.1261
27735W        W70648  11.861  27.525  28.254 -0.1526  0.1400  0.1618
27736W        W70649   3.567  20.332  21.182 -0.1473  0.1504  0.4816
27737W        W70650  11.603  21.339  14.694 -0.1867 -0.1827  0.1222
27738W        W70651   9.289  16.074  25.483  0.0958 -0.1277  0.1524
27739W        W70652   8.814  20.337  25.911  0.1864  0.2805 -0.1920
27740W        W70653  34.186   7.445  24.358  0.1467  0.0642 -0.3926
27741W        W70654  34.349   7.081  25.872  0.1702 -0.1221 -0.0631
27742W        W70655   8.171  20.290  26.981 -0.0332  0.2132 -0.0779
27743W        W70656  11.451  11.106  18.709 -0.2864 -0.1845 -0.4269
27744W        W70657   3.053  11.374  24.105 -0.0390  0.0824 -0.2743
27745W        W70658   1.333   8.856   9.006  0.1415 -0.1031  0.0455
27746W        W70659  11.942  12.574  27.528 -0.0284  0.3659 -0.0537
27747W        W70660  24.254  16.664   8.329  0.1323 -0.2966  0.0879
27748W        W70661  14.266  19.656  24.959  0.3185  0.0146 -0.1119
27749W        W70662   0.573  16.601  28.552 -0.1666 -0.0469  0.2423
27750W        W70663  31.306  28.243  21.937 -0.3255  0.0052 -0.1054
27751W        W70664   5.030  23.537  26.200  0.0299  0.0726  0.0623
27752W        W70665   1.439   1.801   6.556 -0.0777 -0.1204  0.2253
27753W        W70666  30.671  14.749  26.451  0.2219 -0.3736  0.1655
27754W        W70667   5.465  11.960  19.066 -0.0383  0.0457 -0.3186
27755W        W70668   4.191  27.728  15.256  0.2158 -0.1033 -0.0531
27756W        W70669  11.238  29.953   0.893  0.1181 -0.0245 -0.1324
27757W        W70670   9.111   6.171  29.676 -0.2446  0.1443 -0.0668
27758W        W70671  28.330   8.217  20.654 -0.2329  0.3190 -0.0030
27759W        W70672  33.967  16.329  15.476 -0.1335 -0.2100  0.3123
27760W        W70673  24.998  27.814   3.334 -0.2887 -0.1919  0.1054
27761W        W70674  14.693  15.786   2.801  0.1581 -0.1760 -0.0027
27762W        W70675   9.129  13.066  15.150 -0.2601  0.0631  0.2858
27763W        W70676   2.439   8.051  27.676  0.0913  0.2758  0.0583
27764W        W70677  10.104  23.548  21.299 -0.0019  0.0610  0.0475
27765W        W70678  33.414  17.200  24.624  0.0400 -0.2717 -0.2549
27766W        W70679  11.684  11.946   5.827 -0.0366  0.2114  0.0060
27767W        W70680  32.999  18.045  28.612  0.3054 -0.1332  0.1416
27768W        W70681   0.984  17.807  24.271 -0.1178  0.1564  0.0289
27769W        W70682   3.085  15.006  26.529 -0.0449  0.2183 -0.0161
27770W        W70683   7.371   7.565  20.634  0.1342  0.2454  0.1474
27771W        W70684   3.069  24.941   1.110 -0.2980  0.1419 -0.2009
27772W        W70685  28.381  24.792   1.182  0.6227  0.1146 -0.1550
27773W        W70686  27.123  14.216  21.331 -0.0750 -0.2225  0.1452
27774W        W70687  32.877  13.411  25.983  0.2257  0.0153  0.0614
27775W        W70688   6.053  25.797   1.367 -0.1772  0.1889  0.1273
27776W        W70689  12.467  15.911  24.721  0.3695  0.0611  0.1975
27777W        W70690   7.404   6.981  24.372  0.0569 -0.0763 -0.2017
27778W        W70691   6.220  16.395  21.043 -0.0964 -0.0760 -0.0191
27779W        W70692  30.273  10.841   3.761  0.0773 -0.1399  0.0256
27780W        W70693   8.783  23.614  26.802 -0.0740  0.1299  0.0981
27781W        W70694  12.209  17.994  23.300  0.1076 -0.0325  0.0174
27782W        W70695  32.520  18.228  28.600 -0.0388 -0.2730 -0.1585
27783W        W70696   5.492  28.976  20.183  0.1181  0.1752 -0.0005
27784W        W70697   2.930  20.073   5.290  0.0425 -0.0484  0.1421
27785W        W70698  29.139  16.729   3.996 -0.1187 -0.2325 -0.1550
27786W        W70699  28.975  18.572  29.185 -0.2077 -0.1075 -0.1093
27787W        W70700   5.525  17.276  25.135 -0.2632 -0.0247  0.0264
27788W        W70701   2.102   6.120  20.270  0.1687  0.2655 -0.1247
27789W        W70702  23.227  17.828  28.820  0.1206 -0.2072  0.1899
27790W        W70703  11.511  15.385  25.467 -0.1877  0.2445 -0.0342
27791W        W70704   3.809  10.428  22.026  0.0563 -0.3315  0.2324
27792W        W70705   7.907   8.425  23.118 -0.0033 -0.4694  0.1291
27793W        W70706  24.340   9.667  18.709  0.4570 -0.3039 -0.1374
27794W        W70707   2.963  12.764  25.167  0.1425  0.0591  0.0743
27795W        W70708   1.947  26.326   0.918  0.1384 -0.0811  0.1572
27796W        W70709  32.311  33.575   4.699 -0.1913 -0.1117  0.2166
27797W        W70710   2.545  22.484   8.770  0.0721  0.0838 -0.1626
27798W        W70711  12.481  20.518  20.292 -0.2409 -0.0024 -0.3825
27799W        W70712  11.858   0.854   4.322  0.0820 -0.0236  0.2752
27800W        W70713  32.835  11.030  25.891 -0.1006  0.0164 -0.0532
27801W        W70714   4.867  19.373  14.911 -0.0752  0.2501  0.2246
27802W        W70715  27.828  17.869  26.280 -0.0011 -0.0233  0.1396
27803W        W70716  10.293   5.226  26.455  0.2539 -0.0422 -0.0294
27804W        W70717   6.722  11.734  27.454  0.3858  0.2336 -0.1593
27805W        W70718   7.007   3.562  28.709  0.3793  0.3591 -0.1840
27806W        W70719  29.489  21.188  23.197 -0.2595 -0.0419 -0.3118
27807W        W70720  13.301  28.355  16.900 -0.0790 -0.0894  0.0935
27808W        W70721  33.983  14.937   0.159 -0.0694 -0.0218 -0.3078
27809W        W70722  11.966  17.282  29.580 -0.0810  0.1699 -0.1410
27810W        W70723  31.742   7.983  22.038  0.1075 -0.0029  0.2452
27811W        W70724   1.708  13.895   3.330  0.0267 -0.3105  0.2662
27812W        W70725  32.503   7.828  24.979 -0.0710  0.1523  0.0810
27813W        W70726  29.119  16.081  28.059 -0.0699 -0.1008 -0.0342
27814W        W70727   4.179  25.219  24.619  0.0703 -0.3180 -0.2997
27815W        W70728  34.471  20.618  26.012  0.2894 -0.1159 -0.1328
27816W        W70729   1.651  10.937  27.398 -0.1905 -0.0900  0.0472
27817W        W70730   3.961  18.631  27.317 -0.3760  0.0654 -0.0782
27818W        W70731   0.495  22.718  25.458  0.0786  0.1043  0.2274
27819W        W70732   6.507  14.129  28.042  0.1438 -0.1947  0.2771
27820W        W70733   7.056  13.111  25.597  0.3322 -0.0044 -0.1236
27821W        W70734   2.707  22.826  26.704  0.0335 -0.1284  0.0531
27822W        W70735   1.725  24.504  28.011 -0.0934 -0.0640 -0.1666
27823W        W70736   8.628  20.239  26.846  0.2318 -0.3632  0.4289
27824W        W70737  14.317  15.393  21.976  0.1131  0.0065 -0.1916
27825W        W70738  11.463  21.576   8.841 -0.1378 -0.3717 -0.1468
27826W        W70739   5.135  13.702  18.280  0.0755  0.1991 -0.2199
27827W        W70740  34.403  25.146  27.664 -0.0019 -0.0871 -0.0763
27828W        W70741  28.770  10.297   1.729  0.0164  0.2552 -0.1718
27829W        W70742   9.749   9.860  17.250 -0.3460  0.0598  0.1232
27830W        W70743   8.763  10.367   3.733  0.2377  0.4111 -0.0637
27831W        W70744   7.058  26.400  24.494  0.3683 -0.1405 -0.2784
27832W        W70745  17.359   5.793  28.455 -0.0949  0.1353  0.1990
27833W        W70746   8.967  14.697  18.331 -0.0934 -0.0948 -0.0891
27834W        W70747   3.965   1.474   3.608 -0.0851  0.1768  0.0452
27835W        W70748   2.713   9.470   8.069 -0.1875 -0.4693 -0.2970
27836W        W70749   9.045  19.389  19.054 -0.2275 -0.1802  0.0960
27837W        W70750  32.758  21.880   0.726 -0.4186  0.1029 -0.2666
27838W        W70751   6.108   9.657  17.291 -0.2109  0.0204 -0.0168
27839W        W70752  30.681  28.086  27.491  0.1656  0.4475  0.2372
27840W        W70753  30.486  22.648   0.689 -0.0237 -0.1137 -0.0215
27841W        W70754  32.832  11.521  28.178  0.0304 -0.0733 -0.0413
27842W        W70755  16.237  15.337  22.041 -0.2197  0.1997 -0.0679
27843W        W70756   7.198   7.670  22.401 -0.0433  0.0750  0.1067
27844W        W70757  11.715   2.035   0.973 -0.2367 -0.3631 -0.1917
27845W        W70758  11.042   7.122  21.506  0.0443 -0.0178  0.0445
27846W        W70759   9.310  11.846   4.157 -0.0691  0.1815 -0.2288
27847W        W70760   7.458  17.383  28.616  0.1261  0.1142 -0.0476
27848W        W70761  13.080  22.450   2.049 -0.1686  0.2320 -0.1397
27849W        W70762  13.771  23.075  26.556  0.1185  0.3438  0.1457
27850W        W70763   9.372  23.983   1.888  0.0073 -0.2909  0.0457
27851W        W70764   6.786  15.976  26.291  0.2914 -0.1634 -0.1507
27852W        W70765   3.281  21.414  23.915 -0.1611  0.1724  0.1184
27853W        W70766   9.910  17.300   3.010 -0.1822 -0.0532  0.3479
27854W        W70767   8.059  14.402   6.562  0.3034 -0.1618  0.2772
27855W        W70768  23.204  18.153  16.439 -0.2791  0.0154  0.2085
27856W        W70769  10.193  18.144   5.484  0.0226 -0.1107  0.0528
27857W        W70770  14.696  16.084   0.667 -0.0377  0.1585 -0.0554
27858W        W70771   5.967  19.103   0.063  0.0490 -0.2480 -0.1801
27859W        W70772   5.405  19.785  27.671 -0.0237  0.0179 -0.0079
27860W        W70773  32.624   7.511  29.154  0.0586 -0.4263 -0.2870
27861W        W70774  28.938  11.190   3.202 -0.0843  0.2621  0.3744
27862W        W70775  16.465  14.027  16.391 -0.0074  0.0111 -0.1102
27863W        W70776  29.523  11.891  27.959 -0.0318  0.0689 -0.0328
27864W        W70777  10.182  12.931  25.572 -0.0138  0.2325 -0.1577
27865W        W70778   7.398  23.392  13.921 -0.1846  0.2365  0.2412
27866W        W70779  30.680  10.827  24.248 -0.1178 -0.0152  0.2487
27867W        W70780   7.152  19.507   4.103 -0.0268 -0.3540  0.1144
27868W        W70781   6.676  26.467   6.971  0.2206 -0.0170 -0.0793
27869W        W70782  14.521  19.120  23.176  0.1406  0.3217 -0.0755
27870W        W70783  32.613  16.784  25.323  0.0287  0.0313  0.2438
27871W        W70784  12.717  14.255  18.147 -0.1476  0.3811 -0.0594
27872W        W70785  14.530  15.448  26.280  0.1465 -0.0462  0.1542
27873W        W70786   9.551  17.627   3.286  0.2504 -0.0830  0.3660
27874W        W70787   8.388   7.220  27.011  0.0082  0.0585  0.0481
27875W        W70788   9.818  19.040  25.039 -0.0812 -0.1705  0.0031
27876W        W70789  11.822  28.755  19.551 -0.1098 -0.1076  0.0628
27877W        W70790   7.783  17.132  21.100  0.2013  0.1118 -0.1790
27878W        W70791   7.725  21.740  23.912 -0.0832 -0.1274 -0.2714
27879W        W70792   1.649  23.348  27.564  0.4186  0.2796 -0.2288
27880W        W70793   3.228  17.631   3.460  0.0672 -0.4841 -0.1896
27881W        W70794   0.653  22.847   1.944 -0.1209 -0.1415  0.3799
27882W        W70795  28.863  18.600   8.392 -0.0780  0.1745  0.2023
27883W        W70796   1.820  25.033   2.305  0.2898 -0.4236 -0.2823
27884W        W70797   7.251  18.886   5.209  0.1201  0.0180 -0.0241
27885W        W70798   5.921  17.451   6.231 -0.0589 -0.0838  0.0206
27886W        W70799  29.082  21.637  27.710  0.0630  0.2178  0.1138
27887W        W70800  28.292  24.890   6.013 -0.0691 -0.0898  0.1083
27888W        W70801   3.512  15.542  28.950 -0.3069 -0.0669 -0.0726
27889W        W70802   6.404  19.530  24.937  0.0592 -0.0949 -0.2207
27890W        W70803  14.377  17.402  26.932  0.0857  0.1175  0.0093
27891W        W70804  28.936  13.543  17.593  0.2155  0.0256 -0.0985
27892W        W70805   7.915  24.167  16.173  0.1534 -0.0454  0.5738
27893W        W70806  11.005  13.732  20.430 -0.0986 -0.0972  0.1241
27894W        W70807   1.836  19.376  27.876  0.0201 -0.0932 -0.2226
27895W        W70808   8.537   8.148   2.428  0.2804 -0.1292 -0.0868
27896W        W70809  12.669   3.840   1.589  0.3907 -0.0354  0.0883
27897W        W70810  32.236  26.603  24.736 -0.2387  0.1987 -0.3151
27898W        W70811   3.755  12.154  28.855 -0.0300 -0.1690 -0.0251
27899W        W70812   1.044   9.153  25.721 -0.0345  0.0314 -0.2104
27900W        W70813  27.313   6.505  26.740 -0.2016  0.1976 -0.1915
27901W        W70814   4.421  10.126   3.064  0.0120  0.3487  0.0928
27902W        W70815   6.737  17.011   5.216  0.0167 -0.0811 -0.3034
27903W        W70816   3.631  25.850  22.105  0.1494  0.1870 -0.0176
27904W        W70817  10.336  20.429  22.732 -0.0262  0.0422  0.0959
27905W        W70818  33.299  14.465  26.456 -0.0294  0.1743  0.0462
27906W        W70819   1.502  13.421  23.019 -0.0178 -0.0438  0.0248
27907W        W70820   8.708   9.740  26.882  0.2330 -0.4107  0.2575
27908W        W70821  12.333  16.154  28.638  0.2673  0.1636 -0.0955
27909W        W70822  12.472   8.459   1.356 -0.1762 -0.2538 -0.1374
27910W        W70823   4.034  17.316  16.697  0.0469 -0.2558  0.2574
27911W        W70824  29.891  12.817  24.303  0.2306  0.4412 -0.0434
27912W        W70825  34.323  16.037  25.008  0.1572  0.0645 -0.0159
27913W        W70826   0.369  27.144   1.548 -0.1277 -0.0835  0.1590
27914W        W70827   4.964   1.384  24.776  0.0893 -0.1368 -0.1611
27915W        W70828   8.271   5.438  16.701 -0.0656  0.1068  0.2147
27916W        W70829   1.348  21.871  29.559  0.1079  0.1163 -0.0439
27917W        W70830  12.482  20.004  25.998 -0.3066 -0.1413  0.2806
27918W        W70831  33.724  18.544  21.592 -0.5562  0.2724  0.0165
27919W        W70832   2.220  20.113  24.107 -0.0200 -0.2278 -0.0513
27920W        W70833   2.969  33.093   7.880 -0.0186 -0.0927 -0.3360
27921W        W70834  33.459  15.615   6.638 -0.2872  0.1875  0.1157
27922W        W70835  27.176  11.618  27.310 -0.2446  0.3284  0.0373
27923W        W70836   4.920  17.378  19.217 -0.0302 -0.1107 -0.2393
27924W        W70837   0.279   6.863  24.066 -0.1326  0.0447  0.1365
27925W        W70838   1.114  14.548  22.555  0.0901 -0.1016  0.1875
27926W        W70839  33.938  27.683   5.134 -0.0966 -0.0795 -0.0035
27927W        W70840  28.387  21.176  19.789  0.1343 -0.3190 -0.3417
27928W        W70841   3.715  16.066  26.769 -0.1363  0.0466  0.1415
27929W        W70842  11.314  20.205   0.543 -0.0328  0.0117 -0.2254
27930W        W70843  30.756  29.692   1.318  0.4090  0.1839 -0.0947
27931W        W70844  11.254   6.600  19.692  0.1926 -0.3568  0.1560
27932W        W70845  31.783  22.099   7.251  0.1167  0.0636 -0.0108
27933W        W70846  10.738  16.825  22.846  0.0033 -0.1098 -0.2262
27934W        W70847   4.719  17.444  17.531 -0.0498  0.1074 -0.0818
27935W        W70848  31.585  11.194  24.906  0.0993  0.0567  0.2864
27936W        W70849  12.125  20.834  22.333 -0.0892 -0.1252 -0.1019
27937W        W70850   1.454   7.287  25.128  0.0023 -0.3525 -0.0371
27938W        W70851  32.224  26.422   8.799 -0.0869 -0.1277 -0.1198
27939W        W70852   9.910  10.229   5.811  0.0536 -0.2757 -0.0975
27940W        W70853  12.039  22.381  27.329  0.1620  0.1674  0.3568
27941W        W70854   8.218  17.874   3.352  0.0069  0.0976 -0.0755
27942W        W70855   0.824   2.016  23.186 -0.2199  0.0932  0.3944
27943W        W70856   2.966  28.432  25.850  0.0080  0.0305 -0.3619
27944W        W70857  15.180  23.222  21.740 -0.0802  0.2581  0.1422
27945W        W70858   3.027  29.636   3.324  0.0232 -0.0541  0.2211
27946W        W70859  30.136  24.232  25.262 -0.1325  0.3874  0.1657
27947W        W70860  28.999  21.461  21.530 -0.4075  0.0149 -0.0439
27948W        W70861   8.388  20.977  22.791 -0.2140 -0.0960 -0.0768
27949W        W70862  33.186  21.677   3.072 -0.0800  0.1503  0.0390
27950W        W70863   8.657  15.318   1.326 -0.1335  0.2282 -0.1981
27951W        W70864  34.344  21.339  28.315 -0.0343  0.0200  0.2351
27952W        W70865  11.502   9.932   6.593  0.1241 -0.0844 -0.0966
27953W        W70866   6.503   9.173  20.400  0.2215 -0.1882  0.0452
27954W        W70867   3.110   8.575   1.481  0.0851  0.1996 -0.1824
27955W        W70868   5.808  13.811  24.259 -0.1694 -0.0312  0.2492
27956W        W70869   0.382  15.668   2.884 -0.0754 -0.0879 -0.0497
27957W        W70870   7.889  23.792   6.623  0.0706 -0.0814 -0.2404
27958W        W70871   3.141  17.568  29.122  0.3829 -0.1474  0.1828
27959W        W70872  12.849  18.013   5.762 -0.3189 -0.1858 -0.0594
27960W        W70873   8.067  27.385  27.901  0.1691  0.0116  0.1732
27961W        W70874  10.408  22.714  29.011  0.0651 -0.0416 -0.0064
27962W        W70875   3.541  20.213  28.015 -0.0155 -0.2352  0.1062
27963W        W70876   4.457  21.583   1.761  0.0827 -0.2078 -0.1544
27964W        W70877   3.121  21.832  22.599 -0.0311 -0.1585 -0.1507
27965W        W70878   4.861  10.507   2.721 -0.3877  0.1980  0.0091
27966W        W70879   3.227  12.550  20.055 -0.1196  0.1816 -0.0330
27967W        W70880  34.243  16.126   5.254  0.1989  0.1476 -0.0473
27968W        W70881  16.483   4.691  26.095 -0.0499 -0.1450 -0.0269
27969W        W70882   8.694  24.733  18.312  0.0638  0.2068  0.3857
27970W        W70883  33.518  21.969  17.432  0.1874  0.0980 -0.2986
27971W        W70884   3.331  13.315  24.279  0.1451  0.0582  0.2109
27972W        W70885   3.903   4.017   4.059 -0.2956  0.3122  0.1717
27973W        W70886  32.290  13.008  15.204 -0.1635  0.1293  0.0406
27974W        W70887   5.639  14.131  23.595  0.0778  0.1186  0.1415
27975W        W70888   6.543   8.549   1.290 -0.2131  0.0916 -0.1949
27976W        W70889  33.268   9.219  18.347  0.4367 -0.1876 -0.1326
27977W        W70890   1.458  10.561  21.206 -0.2245  0.0758  0.3412
27978W        W70891  17.049  20.908  16.954  0.0720  0.1980  0.2718
27979W        W70892   2.258   9.763  27.784 -0.0632 -0.2228 -0.1144
27980W        W70893  30.331  23.727  27.350 -0.1808  0.1490  0.0214
27981W        W70894   8.355  11.717   6.760  0.0671  0.2744  0.0733
27982W        W70895  34.171  28.685   5.315 -0.2356 -0.0543  0.1755
27983W        W70896   3.059  28.299   4.300 -0.0586  0.0469  0.2139
27984W        W70897  30.995   5.783   7.212  0.0983 -0.2904  0.5113
27985W        W70898  13.140   4.343  25.051 -0.0853 -0.1220 -0.0314
27986W        W70899   9.518  12.255  23.279 -0.0266 -0.0350  0.0172
27987W        W70900  20.194  20.894  14.133 -0.0917 -0.1255 -0.0045
27988W        W70901  16.255  13.675  23.487  0.1878 -0.2318 -0.1411
27989W        W70902   9.086  17.460  28.644 -0.0571 -0.3417  0.2437
27990W        W70903   6.003  17.848  29.031 -0.1162 -0.0085  0.1550
27991W        W70904   0.768  30.677   9.584  0.1980  0.0643 -0.3000
27992W        W70905  12.050  26.557   5.442  0.1473 -0.0305  0.3507
27993W        W70906  34.003  27.888  22.162  0.0284 -0.1289  0.0628
27994W        W70907   3.154   6.879  26.191  0.1520  0.1095  0.3175
27995W        W70908  28.667  22.596  27.311 -0.0329  0.0430  0.2328
27996W        W70909  29.718  23.135  23.879 -0.0650  0.2755  0.1781
27997W        W70910   8.952  22.192  27.010 -0.1483 -0.0242  0.0508
27998W        W70911   6.139  20.552   0.737  0.2723  0.0093 -0.0570
27999W        W70912   6.532  25.237   1.923  0.2697 -0.4002  0.0691
28000W        W70913   9.218  11.693  29.755 -0.0458  0.0125 -0.2875
28001W        W70914  29.409  25.129  25.712  0.0925 -0.0173 -0.0316
28002W        W70915   5.991  18.860  25.606  0.1525 -0.2229  0.0596
28003W        W70916  31.698  14.512   1.658 -0.3057 -0.3257 -0.0403
28004W        W70917   7.891  31.907  28.178  0.1920  0.1094  0.0111
28005W        W70918  29.765  15.655  20.296 -0.1930  0.1577 -0.0585
28006W        W70919  26.392  18.969  17.268 -0.3267 -0.1675  0.0028
28007W        W70920  29.596  18.589  15.589 -0.0092 -0.0266  0.4241
28008W        W70921   0.813  14.926  22.849  0.0598  0.0191 -0.1826
28009W        W70922  14.643  15.750  28.060  0.0996 -0.0040  0.1544
28010W        W70923   4.965  11.405  16.195 -0.0118  0.1590 -0.1410
28011W        W70924  11.464   6.061  23.214 -0.1746  0.2424  0.2180
28012W        W70925  31.330  18.872  28.985 -0.0443 -0.2865 -0.1753
28013W        W70926  34.159  15.776  26.384 -0.1858 -0.2430 -0.0884
28014W        W70927   1.764  15.380  25.757  0.1332  0.0663  0.3783
28015W        W70928   4.653  21.312  28.630 -0.0187  0.1493  0.1185
28016W        W70929  15.224  23.673  24.754 -0.1132 -0.2376 -0.5173
28017W        W70930  33.704  21.883   2.330 -0.3074 -0.1063 -0.2461
28018W        W70931   6.761   7.266  28.318 -0.3620 -0.3022  0.4019
28019W        W70932   4.183   7.570  22.339  0.3158 -0.0252 -0.1034
28020W        W70933   7.511  18.247   0.805  0.1679 -0.0017  0.0430
28021W        W70934  18.521  25.015  17.338 -0.1235  0.1972  0.2599
28022W        W70935   9.387  10.576  27.194  0.1547  0.3837 -0.0865
28023W        W70936  12.971  23.146   4.122  0.0501  0.0062  0.3203
28024W        W70937   7.511  20.218  25.879 -0.1312 -0.1233 -0.2480
28025W        W70938   1.422   8.900  25.150  0.0768 -0.2560 -0.1217
28026W        W70939  31.879   9.942  22.163  0.2721  0.1080  0.0331
28027W        W70940   8.153  23.310   4.205  0.0478 -0.3237 -0.2968
28028W        W70941  31.752   8.864  25.777 -0.1548 -0.4446 -0.0885
28029W        W70942   0.714  20.329   1.826 -0.1341 -0.3531  0.3068
28030W        W70943  13.950  11.159  15.414  0.2477  0.4163  0.0403
28031W        W70944   8.518  21.207  26.169 -0.4003  0.1824  0.3131
28032W        W70945  12.974  13.535  27.125  0.2771 -0.1130 -0.3688
28033W        W70946   5.608   9.524  25.219  0.1205 -0.2079 -0.1892
28034W        W70947   8.435  24.708  21.826  0.0606  0.4348  0.1022
28035W        W70948   5.181  23.366   7.198 -0.2505 -0.1561  0.1204
28036W        W70949  11.339   6.895  25.973 -0.1964 -0.3737  0.0047
28037W        W70950   6.503  18.786  24.651  0.0784  0.6167 -0.0166
28038W        W70951   1.787  26.754   3.693  0.3140 -0.1406 -0.2853
28039W        W70952   2.467  24.229  10.312  0.0421 -0.1191 -0.1095
28040W        W70953   1.862  17.657   2.472  0.2068  0.2936 -0.2064
28041W        W70954   0.929  16.781  23.234 -0.1819  0.3951 -0.2310
28042W        W70955  12.753  11.474   3.077 -0.2200 -0.1131 -0.0086
28043W        W70956  11.364  16.527  25.347  0.0399  0.3825 -0.0603
28044W        W70957   9.669  19.247  22.770 -0.2623  0.4000  0.0117
28045W        W70958   3.491  17.423   8.508 -0.0144  0.2535 -0.4050
28046W        W70959   0.410  16.370  17.522 -0.2420 -0.5324 -0.1783
28047W        W70960  32.631  14.689  27.088 -0.0502 -0.2100 -0.1844
28048W        W70961   9.030  13.292  26.453  0.2807  0.1913  0.4396
28049W        W70962   3.329  21.039  16.511 -0.1737  0.2291 -0.0586
28050W        W70963  17.376  12.819  26.983 -0.0770 -0.0463 -0.0197
28051W        W70964   5.279  23.014   9.152  0.0428 -0.1223 -0.0135
28052W        W70965  18.248  14.566   0.092 -0.3258  0.0321  0.0293
28053W        W70966   6.478  30.974   7.844 -0.1305  0.0922  0.0774
28054W        W70967   9.054  16.304  23.187 -0.2354 -0.0572  0.1719
28055W        W70968   7.108  11.009  29.038  0.2520  0.0463  0.3115
28056W        W70969   5.266  13.533   0.299 -0.0886 -0.2833  0.2817
28057W        W70970  30.127  26.883  25.693  0.0667  0.0314  0.3311
28058W        W70971   2.797  29.024  23.193  0.0344 -0.0436 -0.3786
28059W        W70972   9.659   2.440  23.285  0.2115 -0.4783  0.1538
28060W        W70973   0.038  22.384  27.221 -0.1939  0.0951  0.0198
28061W        W70974  16.314   4.103  28.676 -0.2837 -0.0683  0.0257
28062W        W70975   9.538  14.085  23.979  0.0459 -0.2351  0.1767
28063W        W70976   1.525  13.649  21.635 -0.2049  0.3002 -0.1544
28064W        W70977   5.892   9.555  28.760  0.0022 -0.0698 -0.1854
28065W        W70978  30.668  12.272   2.193 -0.0679  0.2204 -0.0958
28066W        W70979   2.418  19.679   2.161  0.0500  0.0553 -0.0952
28067W        W70980  19.981  23.740  23.134 -0.1546  0.1506 -0.1249
28068W        W70981  27.180  19.510  28.209 -0.0332 -0.2241  0.1108
28069W        W70982   4.221  17.273  17.935  0.0319  0.1588  0.1602
28070W        W70983   5.028   9.352  25.313 -0.2691 -0.1590 -0.0492
28071W        W70984  30.737  18.857  29.406  0.2245 -0.0384 -0.4417
28072W        W70985  11.978  13.740  15.909 -0.0019  0.0896 -0.1136
28073W        W70986   6.857  14.005   0.711 -0.1694 -0.1586  0.0848
28074W        W70987   3.333  25.041   7.402 -0.2572 -0.0780 -0.2476
28075W        W70988   5.247  14.141  23.959 -0.1782  0.3453  0.0316
28076W        W70989   6.019  14.852  29.055 -0.2818  0.1290  0.0929
28077W        W70990   4.574  11.930  19.011  0.0474  0.2878  0.0901
28078W        W70991  31.897  12.167   0.784 -0.0162 -0.2028  0.0844
28079W        W70992  17.962  22.382  16.934  0.1335  0.1826  0.1503
28080W        W70993   0.159  10.468  15.707 -0.1508 -0.0587  0.1190
28081W        W70994   9.435  21.885  28.192 -0.1336  0.1529 -0.1201
28082W        W70995  11.714  24.612   2.608 -0.1329  0.3378 -0.2226
28083W        W70996   8.029  21.832  29.185  0.1306  0.1523 -0.2716
28084W        W70997   5.183  11.904  20.708  0.1376  0.1053 -0.0987
28085W        W70998   2.403  14.169  29.079  0.1630 -0.1065 -0.2025
28086W        W70999   1.944  32.200  18.837  0.3436 -0.0402  0.0257
28087W        W71000   6.031  10.652   1.970 -0.1014 -0.1648  0.1763
28088W        W71001  13.067  13.175   4.149 -0.0344 -0.3163 -0.1865
28089W        W71002  27.245   3.952  22.834  0.1908  0.1346  0.1300
28090W        W71003   0.397  14.998  26.079  0.0856 -0.2241  0.1638
28091W        W71004  14.355  18.963  27.912 -0.0163 -0.0991  0.1456
28092W        W71005   4.324  18.821  27.618 -0.0474 -0.2618 -0.0444
28093W        W71006   9.732   8.334  19.305 -0.0668  0.2454 -0.0566
28094W        W71007  12.866  12.143   3.192 -0.2345  0.5958 -0.1175
28095W        W71008   7.631   5.467  18.016 -0.0500 -0.2543  0.0004
28096W        W71009   3.407  20.608  27.347 -0.0883 -0.1870 -0.0959
28097W        W71010  29.731  20.724  20.361 -0.1937 -0.0444  0.1804
28098W        W71011   9.167  30.154  18.185  0.0159 -0.3376  0.1288
28099W        W71012  33.144  24.041  14.999 -0.3363 -0.0759  0.0950
28100W        W71013  10.698   6.857  25.143  0.0930 -0.1047 -0.1258
28101W        W71014  11.981  16.788  19.379 -0.0033  0.0632 -0.1219
28102W        W71015  11.006   9.610  27.343 -0.0618  0.1595 -0.0002
28103W        W71016   3.605  11.721   8.815 -0.1829  0.1503  0.1980
28104W        W71017  12.809  20.220   8.232  0.2171  0.0960  0.0955
28105W        W71018   5.821  24.716   8.236  0.0233  0.1167  0.0376
28106W        W71019   1.561  16.350  16.435 -0.1114  0.0789 -0.0537
28107W        W71020   0.492  29.622   0.319  0.2091 -0.0239 -0.2873
28108W        W71021  27.661  25.991  27.902  0.0110  0.1532 -0.3666
28109W        W71022  12.162  17.788  15.915 -0.2981 -0.0487 -0.0359
28110W        W71023   7.502  21.317  28.168  0.2655  0.4700  0.0587
28111W        W71024  10.681  19.312  24.954 -0.0723  0.2036 -0.1863
28112W        W71025  17.195  13.277  27.362 -0.0915 -0.0647  0.2571
28113W        W71026  29.933  19.818   2.410 -0.0508  0.1663 -0.2240
28114W        W71027  16.610  16.902  25.719  0.1687  0.2466  0.1780
28115W        W71028  28.859  14.637   1.285 -0.3264  0.2157  0.3418
28116W        W71029  33.403  11.953  23.162 -0.2659  0.2434 -0.0561
28117W        W71030  33.871  18.914  26.964 -0.5189 -0.2817 -0.1378
28118W        W71031  15.090  15.731  24.097  0.3177  0.1617  0.0951
28119W        W71032   0.976  20.064  26.397  0.1386  0.0299 -0.1224
28120W        W71033  33.685  13.045  19.609 -0.1727  0.0656  0.0120
28121W        W71034   5.051  31.647  28.133 -0.1498  0.0742 -0.0852
28122W        W71035  33.739  21.248   2.112  0.0687  0.2793  0.1197
28123W        W71036   9.630  11.027  27.175 -0.1408 -0.0410 -0.0639
28124W        W71037  12.498  13.717  28.487  0.0057 -0.0980  0.1337
28125W        W71038   5.610   5.728  20.373  0.0023 -0.2389 -0.2149
28126W        W71039   6.164  21.972  29.776 -0.3277  0.0181 -0.3682
28127W        W71040   7.606  12.460  23.398 -0.0752  0.1455 -0.4179
28128W        W71041   4.959  24.377  28.390 -0.0605  0.0017 -0.1090
28129W        W71042  14.775  20.595   0.210  0.1641  0.1780 -0.0245
28130W        W71043   7.451  19.865  18.155  0.2609 -0.0833  0.2432
28131W        W71044  20.724   8.923   7.700  0.1394 -0.2835 -0.0249
28132W        W71045  10.590  15.038  28.853  0.1649 -0.3844  0.1158
28133W        W71046   4.342  13.807   4.847  0.2442  0.2610  0.0009
28134W        W71047   1.269  13.687  20.408 -0.2031 -0.0827  0.0383
28135W        W71048  34.277  20.429   6.495 -0.0207 -0.0600  0.1822
28136W        W71049   5.363  11.954   8.354 -0.0049 -0.2471 -0.1371
28137W        W71050  11.595  20.844  20.709  0.0689 -0.0797 -0.1723
28138W        W71051  12.164  24.615   2.787  0.0858  0.0624  0.4023
28139W        W71052   5.493  14.004   6.418 -0.2754  0.0396  0.1971
28140W        W71053   7.316   9.539  19.894 -0.0916 -0.2144  0.3098
28141W        W71054   1.724  15.339   8.186 -0.1405  0.2044  0.2924
28142W        W71055  31.630  21.805  29.754 -0.3943 -0.1298 -0.2445
28143W        W71056   4.795  21.185  29.162 -0.0277  0.1961 -0.1857
28144W        W71057   4.791  16.896  27.031 -0.1581 -0.1025  0.0096
28145W        W71058  33.894   7.668   2.520 -0.5054 -0.1604  0.1249
28146W        W71059   5.922  15.523  26.946  0.2526 -0.0822 -0.1117
28147W        W71060  11.158  16.349  26.250  0.1060  0.0177  0.2048
28148W        W71061  33.803  19.300  25.276 -0.4050 -0.0108 -0.2169
28149W        W71062   6.089  19.745   7.894 -0.1446  0.1385  0.0822
28150W        W71063   7.095  24.021  26.901 -0.0785  0.2649  0.0418
28151W        W71064   4.422  20.142   3.823  0.1423  0.1973  0.0111
28152W        W71065   5.291  13.051  25.730 -0.0891 -0.0443 -0.0061
28153W        W71066  10.147  18.212  21.628 -0.0036 -0.1253  0.0119
28154W        W71067   7.781  14.359   0.622  0.1355  0.1274 -0.3866
28155W        W71068   4.673   5.505  17.304  0.3810 -0.2868  0.0425
28156W        W71069   7.684  10.026   1.094  0.0795  0.1629 -0.0171
28157W        W71070   1.860  25.322  18.745  0.1485  0.0950 -0.3401
28158W        W71071   5.496  19.473  20.978  0.0083  0.2391 -0.0863
28159W        W71072   2.353  17.292  16.075 -0.1970 -0.0642 -0.1852
28160W        W71073  12.711   7.858  19.958 -0.0032  0.0062 -0.1018
28161W        W71074   4.422  22.898   6.329  0.1580  0.0992  0.0227
28162W        W71075  10.944  20.183  25.484  0.0555  0.0298 -0.0133
28163W        W71076   6.557   7.263  18.837  0.2551  0.0028 -0.1351
28164W        W71077  33.477  12.559   7.484 -0.0496 -0.2656 -0.0450
28165W        W71078  33.935  10.965   0.868 -0.0015  0.0021 -0.0568
28166W        W71079  24.371  17.840   8.013  0.0689  0.0742  0.0531
28167W        W71080  33.500   4.701  26.302 -0.0907  0.1056  0.0756
28168W        W71081  15.690   3.208  25.899 -0.0807 -0.0257  0.3014
28169W        W71082  14.222   7.541  26.880  0.3048 -0.0729 -0.2240
28170W        W71083  11.748  23.180  28.212  0.0781  0.0248  0.2553
28171W        W71084  10.508  10.660  21.857  0.4544 -0.1233  0.1924
28172W        W71085   4.260  23.453   0.149 -0.0961  0.0437 -0.3878
28173W        W71086  10.964  21.230  22.433 -0.1002  0.3810  0.1584
28174W        W71087   4.790  32.197  19.513 -0.1002 -0.1412 -0.0417
28175W        W71088   8.167  10.512   0.405  0.0789 -0.2094 -0.1783
28176W        W71089   9.123  12.030  26.368 -0.0378 -0.0250  0.0383
28177W        W71090  30.393  13.101  26.557 -0.0754 -0.1290  0.0708
28178W        W71091   6.605  14.250  28.938  0.1383  0.0409 -0.1894
28179W        W71092   0.147  22.889  18.274  0.2842 -0.1950  0.1026
28180W        W71093   1.124  12.130   0.099  0.0300 -0.1745 -0.3408
28181W        W71094  21.772   2.528  27.473  0.3919 -0.0147 -0.0161
28182W        W71095   2.574  24.256  24.022 -0.0012  0.2733  0.1781
28183W        W71096   7.562   6.033  19.085 -0.0551 -0.0952 -0.1075
28184W        W71097   8.359  16.612  20.765  0.2038  0.1366  0.0310
28185W        W71098   6.837  11.288  28.738 -0.0712  0.1896  0.2222
28186W        W71099  16.292  17.099  25.162 -0.0370 -0.0249 -0.2351
28187W        W71100   3.125  21.465   7.840 -0.3540 -0.4182 -0.3115
28188W        W71101  32.808  25.462   2.025 -0.0467  0.2239 -0.1011
28189W        W71102  34.296  10.210   0.994 -0.4224 -0.0211  0.1198
28190W        W71103  12.507  15.761   5.299  0.0491 -0.0981  0.1041
28191W        W71104   2.931  16.457  24.249  0.2098 -0.0159 -0.2575
28192W        W71105   4.417  15.956  20.794 -0.1551  0.2916 -0.1465
28193W        W71106   0.753  24.855   5.312  0.3174  0.0709  0.4422
28194W        W71107   9.851   8.304   2.192  0.0480  0.1884  0.0667
28195W        W71108  11.396  15.020  28.362  0.0646  0.0050 -0.0620
28196W        W71109  12.242  14.848  23.475 -0.0743  0.3815 -0.1056
28197W        W71110  34.229  25.007  19.897 -0.2782 -0.3371 -0.2271
28198W        W71111   9.997  23.902  19.511 -0.0585 -0.0105  0.3021
28199W        W71112  12.650  18.639  15.718  0.2618  0.3561  0.1405
28200W        W71113   0.778  17.902  19.308 -0.0668 -0.1056  0.0431
28201W        W71114  11.475  22.087  13.527 -0.1965  0.2342 -0.0627
28202W        W71115  25.789  16.768  15.181  0.0669  0.2169 -0.1178
28203W        W71116  11.414  23.445  17.053 -0.3701 -0.0751 -0.0462
28204W        W71117  17.195  23.873  15.031 -0.2082 -0.0733  0.4120
28205W        W71118  12.486  13.539  25.517 -0.1354  0.2514 -0.3068
28206W        W71119   4.723  21.990  20.898 -0.1217 -0.0451  0.0189
28207W        W71120  12.741  20.156  20.738 -0.2993 -0.0660  0.0076
28208W        W71121  32.340  21.221   0.390  0.1531  0.2502  0.0681
28209W        W71122  10.337  17.382  15.989 -0.1500 -0.2213  0.2486
28210W        W71123  33.074  18.595  15.457 -0.1336  0.2649  0.2276
28211W        W71124   2.310  30.165  19.978 -0.0490 -0.1273  0.1630
28212W        W71125  13.863  18.482  13.356  0.3304  0.0408 -0.0725
28213W        W71126   5.204  15.013  20.454 -0.3896  0.0946 -0.2391
28214W        W71127   2.661  15.264  17.685 -0.1522 -0.1174  0.0816
28215W        W71128   6.454   9.890  18.347  0.0558 -0.0876 -0.0045
28216W        W71129  32.608  13.087  20.182  0.1141 -0.1497  0.0285
28217W        W71130   2.088  16.287  16.833  0.2784  0.0238 -0.0846
28218W        W71131   4.951  18.784  15.252 -0.0337  0.0979  0.1232
28219W        W71132   5.751  15.024  23.480 -0.2371 -0.0201 -0.0958
28220W        W71133  33.591  19.450  17.735 -0.4665  0.2446 -0.1908
28221W        W71134   5.465  12.387  19.355  0.1114  0.2588 -0.1942
28222W        W71135   3.937  30.027  20.322 -0.2858 -0.4972  0.2284
28223W        W71136  34.268   7.582  19.158  0.1016  0.0807 -0.4464
28224W        W71137  30.507  31.844  17.981 -0.3326  0.2476  0.1910
28225W        W71138  10.601  17.755  13.819 -0.2277  0.0234 -0.0361
28226W        W71139  34.446  33.466  20.160 -0.0858 -0.2772  0.3345
28227W        W71140   9.839  16.249  14.000  0.0680  0.0071 -0.0266
28228W        W71141  33.475  21.551  19.354 -0.0156  0.2126  0.2036
28229W        W71142   8.515  25.422  16.792  0.2896  0.0040  0.0899
28230W        W71143   6.926  17.449  19.234  0.0068  0.1628 -0.1274
28231W        W71144   0.887  13.950  19.583 -0.2050  0.4587  0.2234
28232W        W71145   3.696  16.346  16.310  0.2056  0.1036 -0.2838
28233W        W71146   5.742  20.085  14.344  0.0032 -0.0784  0.0284
28234W        W71147  33.824  27.066  22.340 -0.3228 -0.1351  0.1497
28235W        W71148   5.711  19.257  16.427  0.1568  0.2313 -0.1201
28236W        W71149   6.995  17.537  17.284  0.0924 -0.1598  0.1007
28237W        W71150  32.006  15.488  15.873  0.0468  0.0430 -0.3675
28238W        W71151   8.638  20.779  25.548  0.0977  0.0420 -0.0963
28239W        W71152   3.121  12.734  17.781  0.2274 -0.1601 -0.1254
28240W        W71153  12.203  15.184  14.132  0.3771 -0.2543  0.2690
28241W        W71154   9.272  16.151  16.275  0.3070  0.0203  0.0268
28242W        W71155  33.361  19.371  18.191 -0.1335 -0.2728 -0.2629
28243W        W71156  11.028  23.267  16.382  0.1008  0.0294  0.2018
28244W        W71157   9.649  23.407  14.359  0.0232 -0.1997  0.0364
28245W        W71158  24.057   6.109  24.176 -0.1853 -0.0318  0.2646
28246W        W71159   4.727  18.906  14.590 -0.1103  0.4458  0.1108
28247W        W71160  34.306  21.937  22.081 -0.3344 -0.1511 -0.1202
28248W        W71161   7.513   5.080  23.986 -0.0901 -0.1377  0.1189
28249W        W71162  29.945  19.767  22.071  0.0072 -0.1592 -0.3519
28250W        W71163  32.821  15.811  15.318  0.2158  0.2361 -0.3856
28251W        W71164  30.578  12.187  23.112  0.1318 -0.0345  0.0640
28252W        W71165  13.794  28.168  20.756  0.1053  0.0165  0.0757
28253W        W71166   6.770  11.980  19.923  0.0665  0.0138  0.2173
28254W        W71167   2.580  17.579  25.004 -0.1273 -0.0820  0.2122
28255W        W71168  10.818  14.891  13.656  0.0129 -0.0357  0.2829
28256W        W71169  11.989  27.629  17.528 -0.0748 -0.3260 -0.0945
28257W        W71170   5.882  10.368  19.495  0.1386 -0.3847 -0.2056
28258W        W71171  26.587  22.711  24.667  0.0745  0.0599  0.2975
28259W        W71172   0.143  26.207  20.688  0.1610 -0.0657 -0.2861
28260W        W71173   4.550  25.122  15.045  0.1061 -0.2179 -0.1710
28261W        W71174   3.404  20.244  14.901 -0.0596  0.0464 -0.2771
28262W        W71175  30.375  12.896  21.138  0.1339  0.1203  0.0079
28263W        W71176  32.586  22.652  25.196  0.2350 -0.0797 -0.3015
28264W        W71177   9.656  17.835  17.405 -0.0183  0.2902  0.2531
28265W        W71178   9.980  25.463  17.127 -0.3981 -0.1096 -0.0936
28266W        W71179  11.467  23.626  14.126 -0.1291  0.1864 -0.2363
28267W        W71180  33.711  18.829  17.634 -0.0540  0.0829 -0.3202
28268W        W71181  14.099  10.413  19.427 -0.1835 -0.0410  0.2353
28269W        W71182  21.735  31.553  16.265 -0.2325  0.2243 -0.0534
28270W        W71183   3.901  22.180  16.073 -0.0803  0.1822 -0.1322
28271W        W71184  23.527  22.584  15.254 -0.1988 -0.1749 -0.0426
28272W        W71185   3.212  13.911  23.322  0.1795 -0.0418 -0.1403
28273W        W71186  32.649  19.200  21.786 -0.0028 -0.1253  0.1073
28274W        W71187  10.684  22.844  21.743  0.2379 -0.4340 -0.3416
28275W        W71188  18.857  24.018  18.962 -0.1456 -0.2197 -0.0677
28276W        W71189   5.791  25.156  19.744 -0.2037  0.1299  0.1531
28277W        W71190   6.864  21.420  21.907 -0.1447 -0.3160 -0.3512
28278W        W71191  10.083  10.625  19.216 -0.0634  0.2233 -0.0948
28279W        W71192  32.254  19.224  15.495  0.0790 -0.1980  0.3352
28280W        W71193   6.432  22.179  21.406  0.0276 -0.0567  0.3350
28281W        W71194  22.577  19.945  13.851 -0.1148 -0.0251  0.0447
28282W        W71195   5.090  14.395  19.037  0.2887  0.0451  0.0114
28283W        W71196   2.928  14.538  22.600 -0.1636 -0.1041  0.0401
28284W        W71197   1.375  21.260  17.366  0.2008  0.2298  0.3017
28285W        W71198  32.310  15.235  22.055 -0.0553 -0.1947  0.1950
28286W        W71199   4.718  12.309  15.890  0.1792  0.1327 -0.1536
28287W        W71200   1.055  22.289  18.881 -0.1076 -0.0289 -0.0179
28288W        W71201  12.356  21.740  17.606 -0.1450 -0.0547 -0.2859
28289W        W71202   8.750  10.216  23.551 -0.0379 -0.2404  0.3328
28290W        W71203   5.589   8.992  25.416  0.0826  0.0561 -0.1067
28291W        W71204   1.322  26.401  15.941  0.2437  0.1482  0.1726
28292W        W71205   8.043  12.287  18.788 -0.1555 -0.1724 -0.2716
28293W        W71206  14.601   4.576  25.053 -0.2192  0.2072 -0.0381
28294W        W71207   2.779  18.447   5.053  0.1950  0.2022 -0.0437
28295W        W71208   7.236  13.389  23.479 -0.0825 -0.0046 -0.0250
28296W        W71209  18.788   0.402  21.305 -0.3778 -0.2485  0.1038
28297W        W71210  31.049  16.658  15.829  0.2577 -0.2353 -0.3133
28298W        W71211  15.084  23.142  20.779  0.1320 -0.1187  0.1085
28299W        W71212  20.790  28.064  16.771  0.0063 -0.0256 -0.0854
28300W        W71213   7.593  24.414  25.174 -0.3115 -0.2263  0.1567
28301W        W71214   6.148  27.177  17.893  0.2416  0.0717 -0.0434
28302W        W71215   6.957   8.376  18.033  0.0078 -0.0628  0.1245
28303W        W71216  33.024  22.399  18.229 -0.3107 -0.2327  0.1024
28304W        W71217  34.005  24.163  15.499  0.0804 -0.1172 -0.2119
28305W        W71218   1.053   5.565  23.969 -0.0754 -0.0011  0.1323
28306W        W71219  34.364  15.884  18.441 -0.0893 -0.0270  0.2873
28307W        W71220  14.885  20.363  21.761 -0.2163  0.0014 -0.0670
28308W        W71221  18.584  13.309  13.974 -0.2963 -0.1115  0.4746
28309W        W71222  14.362  26.092  21.082 -0.3545 -0.0306  0.1446
28310W        W71223   1.271  13.011  19.122  0.0435 -0.1690  0.1178
28311W        W71224   1.308   9.925  25.523 -0.0950 -0.2513  0.1029
28312W        W71225   2.251  20.861  14.181 -0.1858 -0.2968  0.2214
28313W        W71226   3.353  25.525  18.172 -0.1402 -0.2915 -0.3261
28314W        W71227   0.067  22.863  15.189 -0.0980 -0.5067  0.2038
28315W        W71228  11.762  16.367  24.633 -0.3154 -0.1628  0.2799
28316W        W71229   0.937  24.481  22.006 -0.1243  0.0381 -0.0653
28317W        W71230   9.901  19.223  15.926  0.0190  0.1219 -0.1281
28318W        W71231   8.309  13.369  27.764 -0.0947  0.0631 -0.2368
28319W        W71232  34.105  15.452  18.475 -0.1919 -0.3166 -0.1674
28320W        W71233  19.525  32.309  17.912 -0.1038 -0.1023  0.3215
28321W        W71234   1.281  17.451  17.964  0.0932 -0.2606  0.3825
28322W        W71235  10.060  32.216  20.710  0.0162 -0.0855  0.0912
28323W        W71236   1.547  21.395  14.719  0.1966  0.0519  0.2541
28324W        W71237   3.205  18.785  17.235 -0.2302  0.1346  0.3171
28325W        W71238   7.675  21.780  13.357  0.2612 -0.1776  0.0115
28326W        W71239  10.530  20.880  27.093  0.1279 -0.0764 -0.2738
28327W        W71240   3.386  30.454  17.419 -0.0283 -0.1803  0.0712
28328W        W71241   1.140  15.702  19.762 -0.0240  0.0691 -0.0437
28329W        W71242  18.328  21.919  11.710 -0.2751  0.0238  0.1248
28330W        W71243  10.793  16.106  18.134 -0.2286  0.2210 -0.0089
28331W        W71244   6.109  22.707  13.230  0.1538 -0.1635  0.0323
28332W        W71245   0.048  13.911  28.385 -0.0096  0.2443 -0.3418
28333W        W71246  33.947  28.236  16.883 -0.2069  0.0144 -0.4784
28334W        W71247  30.348  18.894  16.906  0.0726 -0.1133  0.1673
28335W        W71248   3.038  20.503  23.144  0.2502 -0.1853  0.2111
28336W        W71249   0.350  25.907  17.881  0.1446 -0.0087 -0.1075
28337W        W71250   6.414  15.546  14.362  0.2518 -0.1765  0.2183
28338W        W71251  28.289  17.374  27.566 -0.0858  0.0036 -0.1404
28339W        W71252  32.195  32.074  22.873  0.0434 -0.0840 -0.3348
28340W        W71253   2.489  27.682  16.764  0.2038 -0.0162 -0.0201
28341W        W71254  10.929   4.446  17.389  0.0755 -0.1474 -0.1866
28342W        W71255   0.263  18.104  15.455  0.2986 -0.0502 -0.1230
28343W        W71256   2.855  18.979  15.909  0.0052 -0.4526  0.1510
28344W        W71257   5.824  25.644  15.174  0.1211 -0.0283  0.0919
28345W        W71258   5.320  21.222  22.581  0.1478  0.1627  0.1771
28346W        W71259   4.586  26.513  19.325 -0.1599  0.1202  0.3554
28347W        W71260   6.476  14.835  16.546 -0.0699  0.0049 -0.2127
28348W        W71261   1.850  25.180  20.671  0.1463  0.4052  0.1393
28349W        W71262   0.555  19.913  24.590 -0.0762 -0.2282  0.2947
28350W        W71263  33.454  15.742  21.781 -0.2129  0.2932 -0.0570
28351W        W71264  18.401   9.059  15.998 -0.1604  0.1614 -0.0764
28352W        W71265   5.558  28.552  15.361  0.1808  0.0522 -0.1455
28353W        W71266   8.457   4.182  19.675 -0.0280 -0.2559  0.1988
28354W        W71267  33.194  21.784  16.378  0.1056 -0.1301  0.1806
28355W        W71268   2.931  26.819  15.238  0.1585  0.2185 -0.0469
28356W        W71269   7.766  26.728  24.057  0.0711 -0.1837  0.1494
28357W        W71270   3.951  20.472  17.194 -0.2514 -0.0054 -0.0192
28358W        W71271  34.102  12.905  20.940  0.3885  0.0472 -0.2329
28359W        W71272  32.900  21.576  19.222  0.1988 -0.1116  0.1926
28360W        W71273  13.286  24.315  20.586  0.2780 -0.3109  0.0994
28361W        W71274   4.042  22.886   2.157  0.0914 -0.1497  0.1861
28362W        W71275   1.264   0.175  16.766 -0.2114  0.2853 -0.1277
28363W        W71276   5.866  20.204  20.908 -0.2232  0.2399 -0.2088
28364W        W71277   0.040  31.840  21.260 -0.1030  0.0931 -0.1324
28365W        W71278   6.871  17.694  20.085 -0.1684 -0.1804 -0.1005
28366W        W71279  11.161  23.608  18.221  0.2030 -0.0236  0.1170
28367W        W71280   7.292  17.073  21.054  0.1203  0.0613  0.0124
28368W        W71281   6.893  18.448  23.182 -0.0016 -0.3431 -0.0636
28369W        W71282   5.194  31.189  16.289  0.2316 -0.0830 -0.0331
28370W        W71283  16.284  19.893  15.716 -0.1264  0.1697  0.2392
28371W        W71284  12.979  16.021  26.847  0.0976 -0.0819 -0.3387
28372W        W71285   1.039  25.999  16.548 -0.1159 -0.1014  0.0405
28373W        W71286   7.530  25.583  14.443 -0.0388  0.0996  0.2290
28374W        W71287   1.044  17.080  13.450  0.0558  0.0132  0.0715
28375W        W71288   6.064  16.357  22.098 -0.0253 -0.0336 -0.1551
28376W        W71289  31.401  19.808  18.632 -0.1337  0.1458 -0.2876
28377W        W71290   4.948  16.269  22.952 -0.1430 -0.0908 -0.0536
28378W        W71291  33.461  18.915  18.084 -0.1747 -0.0823 -0.3654
28379W        W71292  34.410  12.227  17.392 -0.2801 -0.0223  0.2414
28380W        W71293   5.686  27.549  22.277 -0.0548 -0.1806  0.0801
28381W        W71294  24.227  16.413  19.382  0.0946  0.2038 -0.1110
28382W        W71295  13.264  12.477  21.561  0.4149 -0.1330 -0.3949
28383W        W71296   9.573  22.534  15.871 -0.0561 -0.1513  0.1098
28384W        W71297   4.598  12.727  15.574  0.2069  0.2812  0.2824
28385W        W71298   4.687  23.367   2.685 -0.0013 -0.2856 -0.0096
28386W        W71299   9.863  19.741  18.711  0.1150 -0.0011  0.0574
28387W        W71300   5.223  15.497  16.440 -0.0712  0.0173 -0.1458
28388W        W71301   5.160  29.464  21.003 -0.0315  0.1166 -0.1699
28389W        W71302  33.137  23.553  16.167 -0.0208 -0.1205 -0.2913
28390W        W71303   9.836  18.780  19.074 -0.1400  0.1086  0.1226
28391W        W71304   7.838  14.596  13.526  0.0382 -0.2851  0.1783
28392W        W71305  30.096  12.297  27.600  0.0022 -0.2205  0.2674
28393W        W71306   1.138  33.458  16.225  0.0545  0.0036  0.1562
28394W        W71307   8.816  15.914  25.307  0.0464  0.2642  0.0517
28395W        W71308   9.894  22.068  18.954  0.2933 -0.0973  0.1113
28396W        W71309   8.384  21.730  20.360  0.4727  0.1671  0.1094
28397W        W71310   8.811  20.623  16.080  0.0833 -0.0433 -0.0824
28398W        W71311   5.763  18.329  20.591 -0.0932  0.3016  0.0480
28399W        W71312  12.207  10.737  14.441  0.1508  0.5331  0.2936
28400W        W71313   6.793  26.308  20.503 -0.1604  0.0156 -0.0890
28401W        W71314  14.633  12.289  13.456 -0.3612  0.0120 -0.2122
28402W        W71315   5.461  11.463  20.380  0.0656  0.1528 -0.2726
28403W        W71316   0.409  20.245  19.884 -0.1339 -0.0476  0.2945
28404W        W71317  14.922   5.560  19.268 -0.2244 -0.1201  0.2981
28405W        W71318   6.005  16.481  26.075 -0.0159 -0.3799  0.1688
28406W        W71319   5.666   5.503  17.382 -0.2205 -0.0499 -0.0765
28407W        W71320   5.063  21.859  17.664  0.2438  0.0360  0.0667
28408W        W71321  15.472  26.791  22.388 -0.0806  0.3087 -0.1448
28409W        W71322   9.953  22.606  23.405 -0.0980 -0.0665 -0.1188
28410W        W71323  32.101  17.574  18.092  0.0978  0.0879 -0.0995
28411W        W71324   2.449  30.854  17.939  0.0151  0.1301  0.0299
28412W        W71325   1.793  16.507  20.818  0.0344 -0.1113 -0.2912
28413W        W71326   4.193  26.446  20.627  0.0708  0.2100  0.2085
28414W        W71327  16.368  20.047  14.303 -0.0989 -0.1632 -0.1590
28415W        W71328  21.022  11.931  18.487 -0.4472 -0.1059  0.1902
28416W        W71329   7.991  27.407  16.834 -0.0639  0.0158  0.1513
28417W        W71330  13.264   1.396  20.013 -0.0285  0.1541  0.0111
28418W        W71331  11.015  18.907  18.901  0.3588 -0.2838 -0.0805
28419W        W71332  12.038  16.414  12.252 -0.0389  0.1275 -0.2228
28420W        W71333   4.225  16.393  24.012 -0.1965 -0.1752  0.2178
28421W        W71334   6.394  11.005  24.095 -0.1938  0.1991 -0.3758
28422W        W71335  28.677  24.664  19.592 -0.0463 -0.2862  0.3986
28423W        W71336   3.131  16.286  28.417 -0.3668 -0.0758 -0.1881
28424W        W71337   6.269  25.665  17.072  0.1636 -0.1100 -0.1187
28425W        W71338  31.229  14.291  20.078 -0.0775  0.3271  0.0788
28426W        W71339  33.902  21.103  19.870 -0.4898  0.1032  0.2188
28427W        W71340   6.532  18.777  13.569  0.0585 -0.0449  0.0122
28428W        W71341   4.494  20.661  16.678  0.1776 -0.2065 -0.0103
28429W        W71342  12.181  12.282  28.661 -0.1420  0.0999  0.0464
28430W        W71343  13.790  23.882  14.737  0.0021 -0.2298 -0.0743
28431W        W71344   3.952  19.098  14.799 -0.1349 -0.0141 -0.2688
28432W        W71345  31.726  17.358  13.389 -0.3667  0.0944  0.1628
28433W        W71346   4.180  13.747  17.012  0.1066 -0.0207  0.3567
28434W        W71347  19.968  23.646  17.339 -0.1274  0.0097  0.0517
28435W        W71348   9.775  11.551  18.982 -0.0216 -0.0475 -0.1277
28436W        W71349  13.329  19.969  16.048  0.2238 -0.1865 -0.0408
28437W        W71350   5.389  12.340  26.374  0.0630  0.0442 -0.3616
28438W        W71351  31.190  17.775  21.067  0.1809  0.2967 -0.0054
28439W        W71352   4.051  16.232  22.768 -0.1035  0.0138 -0.5214
28440W        W71353  10.068  18.723  15.816 -0.2986 -0.3693 -0.4553
28441W        W71354   6.318  24.542  14.837  0.1989  0.0834  0.0519
28442W        W71355  34.058  10.257  18.606  0.2217 -0.1644 -0.1753
28443W        W71356   4.445  16.471  21.139  0.1459 -0.0240  0.1063
28444W        W71357  12.661  21.339  22.097 -0.2514 -0.0670  0.0642
28445W        W71358   7.595  19.675  23.356  0.2823 -0.1705 -0.2708
28446W        W71359  13.018   6.356  19.644 -0.0148  0.0497 -0.0510
28447W        W71360  11.815  25.306  17.739 -0.1410  0.0646 -0.0767
28448W        W71361   1.176  24.922  25.610 -0.0316  0.2883  0.3858
28449W        W71362  11.670  25.395  15.258 -0.0273  0.4203  0.1008
28450W        W71363  11.376  21.464  15.118  0.2850 -0.2130 -0.1826
28451W        W71364   4.736  17.877   0.597 -0.0297 -0.0018  0.1248
28452W        W71365   2.972  19.798  14.764 -0.0106 -0.4389  0.1913
28453W        W71366   7.380  19.735  15.444  0.3120  0.2046  0.2594
28454W        W71367   9.625  20.266  21.099  0.2169 -0.0292  0.3265
28455W        W71368   4.344  18.752  24.941 -0.1865 -0.1349  0.1320
28456W        W71369   0.126  25.852  18.735 -0.0089  0.0867  0.0891
28457W        W71370  11.237  20.852  21.095 -0.0009  0.2326  0.0183
28458W        W71371   6.225  24.088  23.317 -0.0342  0.0255  0.0151
28459W        W71372  13.211  22.808  20.640  0.6607  0.3739  0.0013
28460W        W71373   0.197  25.092  25.281 -0.0535  0.1121 -0.0342
28461W        W71374  32.830  24.150  27.505  0.0949 -0.1947 -0.2208
28462W        W71375   4.903  14.822  21.976  0.3040  0.4894  0.1305
28463W        W71376  32.546  14.705  14.299  0.1014  0.0154  0.0506
28464W        W71377   2.113  25.614  20.728  0.3442 -0.0995 -0.1090
28465W        W71378  10.416   8.460  19.450  0.0141  0.0136  0.0954
28466W        W71379   0.993  23.462  15.208  0.0292  0.2038  0.0868
28467W        W71380   9.311  16.324  14.335 -0.0046 -0.0309  0.0406
28468W        W71381   5.473  19.274  19.087  0.1290  0.2009  0.0407
28469W        W71382   6.240  13.459  19.071  0.0515  0.0053  0.1357
28470W        W71383   6.572  15.459  17.477  0.1945 -0.2264  0.0075
28471W        W71384   0.289  19.440  16.759 -0.0502 -0.1284  0.3133
28472W        W71385   8.197  19.039  14.880  0.0891 -0.1968 -0.0349
28473W        W71386  34.097  28.518  24.099 -0.1459 -0.0131 -0.0451
28474W        W71387  31.999  17.514  25.640 -0.1555  0.3923  0.0839
28475W        W71388   6.887   5.681  20.639  0.1571  0.0606  0.0464
28476W        W71389  28.668  28.770  15.355  0.0005 -0.2941  0.1056
28477W        W71390   2.804  27.301  24.630 -0.2846 -0.1592 -0.1530
28478W        W71391  24.631  23.977  26.917  0.2285  0.4332 -0.3189
28479W        W71392  33.406  25.885  16.752  0.0340  0.1325 -0.1626
28480W        W71393   7.691  21.101  21.968 -0.0611  0.3646  0.0978
28481W        W71394   0.184  27.517  23.899 -0.1752 -0.2653  0.0278
28482W        W71395  29.001  21.856  13.461  0.1504 -0.1387 -0.0799
28483W        W71396   6.284  13.951  18.312  0.0753  0.0050 -0.1529
28484W        W71397   0.852  25.458  16.483 -0.1981 -0.2993 -0.2280
28485W        W71398   3.678  24.203  15.584 -0.2164 -0.1585 -0.1503
28486W        W71399  14.503  14.537  15.486  0.1233 -0.0822 -0.1284
28487W        W71400   5.911  18.058  25.074  0.0456  0.1178  0.0519
28488W        W71401   5.451  19.823  22.270 -0.1537 -0.0746 -0.3132
28489W        W71402   9.457  10.132  17.493  0.0880 -0.1585  0.0005
28490W        W71403   1.198  25.601  16.186  0.3257  0.1758  0.1759
28491W        W71404  21.114  13.009  16.262  0.1267 -0.2723  0.0178
28492W        W71405   1.698  18.531  19.802  0.0089  0.2912 -0.1318
28493W        W71406  28.964   2.340  22.296 -0.0684 -0.1344  0.0309
28494W        W71407  31.654  28.430  21.011  0.0807  0.0078  0.1231
28495W        W71408   3.738  16.510  23.714  0.0556  0.1012 -0.4030
28496W        W71409  11.346  16.858  20.176  0.0494 -0.1583 -0.1432
28497W        W71410   9.696  19.550  17.301 -0.0527  0.1366  0.2163
28498W        W71411   6.818  30.020  16.767 -0.1377 -0.2953  0.0248
28499W        W71412   2.027  21.393  17.848  0.1773  0.1433  0.0923
28500W        W71413  11.200  16.730  13.973  0.0225 -0.2492 -0.0713
28501W        W71414   9.567  21.971  17.395 -0.0408  0.0256  0.0190
28502W        W71415   9.495  10.224  18.019 -0.3178  0.0856 -0.0204
28503W        W71416  26.925  28.187  20.717  0.1169  0.0114  0.1736
28504W        W71417  32.928  26.516  14.520  0.1178 -0.0754  0.0993
28505W        W71418   4.849  26.890  20.405 -0.2457  0.3850 -0.1161
28506W        W71419  23.233  19.756  15.515  0.0432  0.2080  0.1887
28507W        W71420   8.763  18.121  13.265 -0.0589 -0.1218  0.0470
28508W        W71421   3.686  13.848  20.540 -0.1007  0.0417 -0.1719
28509W        W71422   3.133  30.309  18.854 -0.1722  0.1696 -0.1547
28510W        W71423   4.437  19.898  25.686 -0.1734 -0.0908  0.0279
28511W        W71424   0.856  19.389  22.243 -0.2153  0.2632 -0.1084
28512W        W71425   2.662  21.036  21.593  0.0418  0.2572  0.0665
28513W        W71426  27.433  18.061  15.467 -0.0736 -0.3956 -0.1596
28514W        W71427   6.211  26.097  22.088 -0.3935  0.0196  0.0590
28515W        W71428  15.563  10.450  16.057 -0.0777  0.1695 -0.0745
28516W        W71429  18.528  23.847  17.658 -0.1712 -0.2835  0.0954
28517W        W71430   6.373  16.045  28.086  0.1975 -0.5878 -0.2171
28518W        W71431   8.688  27.115  18.625  0.4067  0.0276  0.1417
28519W        W71432   2.016  31.339  19.210  0.2341 -0.0235 -0.0850
28520W        W71433  11.753  17.056  20.086  0.2741 -0.0564 -0.2834
28521W        W71434   1.298  32.499  14.962  0.1667  0.2276  0.0347
28522W        W71435   9.388  22.225  26.561 -0.1953 -0.1545  0.1739
28523W        W71436   0.577  31.206  20.287 -0.0451 -0.2622 -0.0867
28524W        W71437   5.595  20.982  15.923 -0.0920  0.0092 -0.2759
28525W        W71438   9.402  18.336  15.829 -0.1472  0.0142  0.4505
28526W        W71439  32.880  25.694  16.502 -0.0936  0.1112 -0.1681
28527W        W71440   3.686  18.716  17.319 -0.0189 -0.3908  0.0063
28528W        W71441  10.994  15.421  26.565  0.0657  0.2275 -0.0359
28529W        W71442  21.985  15.028  17.658  0.2900 -0.0018  0.0601
28530W        W71443  28.288  19.166  13.015 -0.0368  0.1543 -0.2218
28531W        W71444  13.090  21.029  15.134  0.0558  0.1058 -0.0746
28532W        W71445   4.149  19.100  22.767 -0.0380 -0.2915 -0.0511
28533W        W71446   0.266  16.444  16.350 -0.2474 -0.4581  0.0660
28534W        W71447   4.874  23.201  19.886  0.0164  0.2923  0.1557
28535W        W71448   8.438  14.171  27.663  0.2577  0.0327 -0.2264
28536W        W71449  14.869  25.380  16.240 -0.2042  0.1002  0.0710
28537W        W71450   6.398  13.299  16.250 -0.6274 -0.1001  0.0541
28538W        W71451  10.553  17.750  18.575  0.0863 -0.0508  0.2270
28539W        W71452  16.923  21.386  13.423 -0.1608 -0.3049  0.2288
28540W        W71453   5.424  11.609  16.999  0.3015  0.2360  0.1706
28541W        W71454  33.304  20.772  15.557  0.3819 -0.3018  0.2934
28542W        W71455   5.227  19.608  19.886 -0.2068  0.3464  0.2664
28543W        W71456   6.071  20.800  18.095 -0.0094 -0.1561  0.3877
28544W        W71457   3.609  32.034  18.454 -0.0372  0.0495 -0.1598
28545W        W71458   1.569  17.694  22.132 -0.2412  0.2112  0.0457
28546W        W71459   4.165  27.647  16.216 -0.0573  0.1683  0.3109
28547W        W71460  32.921  31.207  15.895  0.1579  0.1241  0.4155
28548W        W71461   2.074  19.136  20.319  0.1385  0.2399  0.0415
28549W        W71462  34.140  19.445  17.565 -0.2811 -0.3640 -0.1800
28550W        W71463  20.287  26.731  14.642 -0.2616 -0.1566 -0.3181
28551W        W71464   7.868  18.424  14.201 -0.4013  0.0574  0.0999
28552W        W71465   3.172  19.305   0.144  0.0296 -0.2718  0.1653
28553W        W71466   6.795  14.085  17.430  0.0879 -0.0711 -0.0732
28554W        W71467   1.339  24.146  23.753 -0.0414 -0.1552  0.1301
28555W        W71468  20.951  15.351  14.513  0.1131  0.1370 -0.1523
28556W        W71469   4.636  20.344  17.660 -0.3029 -0.0996  0.2901
28557W        W71470  33.389  23.473  19.861  0.0933 -0.0917 -0.0419
28558W        W71471  34.122  33.311  24.774  0.1741  0.1181 -0.0338
28559W        W71472   4.585  26.163  22.430 -0.1594  0.0419  0.0396
28560W        W71473   3.784  11.736  17.412  0.1965 -0.2170  0.2637
28561W        W71474   9.954  17.782  16.628  0.0234 -0.1188 -0.0753
28562W        W71475  34.035  11.739  15.276 -0.1905  0.1695  0.0060
28563W        W71476  32.571  19.137  26.820  0.1916 -0.0860 -0.1785
28564W        W71477   3.273  21.236  17.744  0.0045 -0.1083  0.1350
28565W        W71478   6.259   7.702  22.190 -0.1509  0.1221  0.0011
28566W        W71479   3.847  22.568  27.657  0.5811  0.2681  0.1987
28567W        W71480  33.830   1.062  17.687  0.1594 -0.1041 -0.1237
28568W        W71481   1.942  17.857  16.255  0.2606  0.1211 -0.2322
28569W        W71482   7.934  18.212  24.122 -0.0602 -0.0444  0.0226
28570W        W71483   4.742  19.365  19.834  0.1788  0.2727  0.3688
28571W        W71484  11.924  24.985  25.386 -0.0608 -0.0213 -0.1509
28572W        W71485   2.333  22.232  18.647 -0.0272 -0.1590  0.0202
28573W        W71486  12.048  15.325  23.064 -0.0031  0.0407 -0.0485
28574W        W71487   6.995  22.779  21.506 -0.0149 -0.2927  0.1124
28575W        W71488   2.281  12.631  21.925  0.1996 -0.1106  0.3657
28576W        W71489   8.878  24.273  18.298 -0.0097  0.0609 -0.1300
28577W        W71490   7.133  23.606  19.728  0.1070  0.2348 -0.1372
28578W        W71491   6.209  15.873  20.021  0.1074 -0.2828  0.0258
28579W        W71492  11.642  25.506  16.947 -0.1640  0.0050  0.0742
28580W        W71493  20.207  21.089  13.357  0.4904  0.0899 -0.0287
28581W        W71494  14.731  23.148  14.060 -0.2630 -0.0499  0.1967
28582W        W71495   8.523  19.656  23.278 -0.1040 -0.1039  0.0996
28583W        W71496   3.933  20.167  20.823  0.1552  0.0490 -0.1772
28584W        W71497   5.199  16.370  24.199  0.0569 -0.0822 -0.0157
28585W        W71498  20.146  26.171  15.376  0.1882 -0.1861  0.1506
28586W        W71499   1.635  18.891  20.710 -0.2391 -0.0421  0.3067
28587W        W71500   5.310  20.107  22.680 -0.1233  0.0322  0.0690
28588W        W71501   0.962  19.794  15.696 -0.0804  0.1193 -0.2095
28589W        W71502   8.323  31.392  17.221  0.1989  0.0778  0.0301
28590W        W71503  12.220  26.053  17.267 -0.1292  0.1229  0.0022
28591W        W71504   9.515  16.808  14.640 -0.1122  0.2914  0.1511
28592W        W71505   1.002  14.327  19.934  0.1778 -0.0378 -0.0134
28593W        W71506   7.456  14.051  23.995  0.0788 -0.1479 -0.1718
28594W        W71507   8.095  24.324  14.745  0.1276 -0.0434 -0.0956
28595W        W71508   6.977  14.394  18.914 -0.2906  0.1352 -0.1528
28596W        W71509  32.691  20.059  15.149 -0.1740  0.0905  0.1184
28597W        W71510  16.449  14.477  22.281 -0.0916  0.4174 -0.0580
28598W        W71511  11.972   8.567  22.475 -0.5953 -0.1400  0.0708
28599W        W71512  18.353   9.329  25.114 -0.1282 -0.2713 -0.2555
28600W        W71513   1.290  10.086  17.405  0.1937  0.0016 -0.1153
28601W        W71514  12.151  14.813  25.465  0.1655 -0.1934 -0.2065
28602W        W71515   8.628  13.037  20.119 -0.3450  0.2001  0.1494
28603W        W71516  12.182  25.127  20.475 -0.0115  0.0364 -0.0038
28604W        W71517  30.854  21.111  19.473 -0.6431  0.0305 -0.2339
28605W        W71518  18.462  19.040  12.699 -0.3929 -0.0158  0.3914
28606W        W71519   4.934  22.669  15.235 -0.0403  0.3822 -0.0677
28607W        W71520   8.174  25.098  22.620  0.2565 -0.0888  0.1748
28608W        W71521   2.751  18.608  23.994  0.0472  0.4978 -0.2076
28609W        W71522   4.323  20.320  16.269 -0.0922 -0.0459  0.2956
28610W        W71523   2.222  25.325   6.468 -0.0853 -0.1134 -0.0472
28611W        W71524  10.892  12.348  25.904 -0.2042 -0.1551  0.1728
28612W        W71525  15.808  23.484  17.154 -0.3268 -0.0986  0.4393
28613W        W71526   2.903  20.413  24.528 -0.5411 -0.1326  0.1051
28614W        W71527   4.594  20.061  18.978 -0.2024 -0.2199 -0.1399
28615W        W71528  12.555  12.661  20.672 -0.1317  0.1743 -0.0443
28616W        W71529   7.583  27.619  28.158  0.1734  0.2821  0.1579
28617W        W71530  11.987  25.842  24.167  0.0567  0.1520 -0.0212
28618W        W71531   1.193  24.323  14.639  0.1220 -0.0383 -0.0281
28619W        W71532  31.130  18.407   1.156  0.0405  0.0700 -0.3939
28620W        W71533  33.138  23.997  17.897  0.0327  0.2843  0.1251
28621W        W71534   7.480  19.302  19.905 -0.2550  0.0083  0.1509
28622W        W71535  32.760  12.791  25.452  0.0703 -0.2966 -0.0546
28623W        W71536  32.332  13.196  27.270 -0.0450 -0.5292  0.1233
28624W        W71537  21.314  20.242  13.765 -0.0627  0.2230 -0.0772
28625W        W71538  12.058  20.568   1.980 -0.1483 -0.1603 -0.0120
28626W        W71539  28.142  22.585  16.819 -0.1098 -0.1631 -0.2652
28627W        W71540   6.472  16.273  19.901  0.2176 -0.2215  0.2111
28628W        W71541  12.518  10.618  15.812  0.0434  0.2344  0.2465
28629W        W71542   3.790  12.795  19.764 -0.0480 -0.2863 -0.3451
28630W        W71543   3.811  18.894  17.856 -0.1683  0.0261 -0.0698
28631W        W71544   4.492  15.897  23.843  0.1478  0.1650  0.1686
28632W        W71545  27.976   7.884  14.315  0.0788 -0.0711 -0.1611
28633W        W71546  34.172  18.108  26.616  0.1746  0.3121 -0.1442
28634W        W71547  32.855  11.988   0.316  0.0377 -0.1407 -0.0751
28635W        W71548  12.888  28.708  16.078 -0.3304  0.0741 -0.0289
28636W        W71549   9.085   3.617  18.435 -0.0976  0.0888  0.0956
28637W        W71550  10.993  18.963  14.511 -0.0842  0.2128  0.1089
28638W        W71551   1.134  11.724  22.502  0.3009 -0.2014 -0.0448
28639W        W71552   9.205  18.447  14.574 -0.2237  0.2253 -0.2394
28640W        W71553  16.188  14.163  24.414 -0.0965 -0.3735  0.2555
28641W        W71554  12.944  18.857  15.180  0.1263 -0.1031  0.0633
28642W        W71555   2.286  17.588  13.791  0.2169 -0.3558  0.2663
28643W        W71556  24.280  21.238  15.439 -0.1947  0.0932 -0.0570
28644W        W71557   5.267  23.571  19.405  0.2025  0.1641 -0.1056
28645W        W71558   3.582  26.004  19.907  0.0398 -0.0979  0.0228
28646W        W71559   4.005  11.209  19.618  0.0959 -0.1651  0.0685
28647W        W71560   5.227  15.499  19.638  0.1166  0.1872 -0.0280
28648W        W71561   9.719  30.988  20.451  0.2270  0.0695  0.2264
28649W        W71562   5.989  11.360  15.875 -0.0532  0.0562 -0.0042
28650W        W71563   1.589  23.875  21.011  0.0995  0.0897 -0.2190
28651W        W71564   4.745  11.938  15.572 -0.0287  0.2046  0.1544
28652W        W71565   9.754  16.875  20.245  0.0323  0.0354 -0.1021
28653W        W71566  30.019  26.270  20.320  0.2099  0.1624  0.1593
28654W        W71567   7.731  20.732  24.756  0.0393 -0.3465 -0.2260
28655W        W71568  33.559  21.774  18.925 -0.0299  0.1363  0.1483
28656W        W71569  11.159  15.250  13.338 -0.0439 -0.1847  0.0271
28657W        W71570   3.380  21.806  22.096  0.1306  0.0373 -0.0370
28658W        W71571  15.139  14.827  15.471 -0.1754  0.0163  0.2277
28659W        W71572   9.405  23.786  21.805  0.2080 -0.0894 -0.0607
28660W        W71573  32.258  31.465  21.236 -0.0737 -0.2431 -0.1620
28661W        W71574   2.138  13.974  22.426 -0.2520 -0.0485  0.2394
28662W        W71575   0.535  17.740  14.459 -0.0084 -0.0501 -0.2414
28663W        W71576  12.793   3.604  24.592  0.2066  0.2717  0.1772
28664W        W71577   9.798  14.014  24.884  0.0019  0.1325  0.1051
28665W        W71578  14.353  11.752  23.804 -0.1807  0.0828  0.1317
28666W        W71579   9.155  19.033  18.681  0.0487  0.1400 -0.1404
28667W        W71580  11.062  14.795  15.618  0.1575 -0.1169 -0.1285
28668W        W71581   7.151  13.684  16.625  0.0554  0.0648  0.0466
28669W        W71582   7.237  15.332  14.996  0.2026 -0.0186  0.0652
28670W        W71583  11.780  24.157  15.971  0.1219 -0.0981  0.1146
28671W        W71584  10.802   9.487  17.017 -0.1318  0.1831  0.2103
28672W        W71585  13.024  29.454  16.726 -0.0137 -0.1107  0.0655
28673W        W71586  32.580  32.389  19.339 -0.3908  0.0982  0.1099
28674W        W71587   8.792  20.827  16.591  0.0896  0.1769 -0.2062
28675W        W71588   9.872  16.557  21.736 -0.0107 -0.4128  0.0395
28676W        W71589   5.568  12.003  21.758  0.1545  0.3970  0.1529
28677W        W71590  32.546   8.331  19.061  0.2419  0.0872 -0.0473
28678W        W71591   5.981  17.929  13.289  0.1427  0.1557  0.0166
28679W        W71592   9.365  22.369  23.883  0.0882  0.1350  0.0930
28680W        W71593   4.797  28.450  15.828  0.0427 -0.4080 -0.1032
28681W        W71594  26.738  20.977  13.287 -0.2215  0.0576 -0.0018
28682W        W71595  26.547  20.022  20.240  0.1700 -0.3679  0.1596
28683W        W71596   6.558  19.422  18.103 -0.0707 -0.0696  0.0996
28684W        W71597   2.629  14.871  16.915  0.2870 -0.1347 -0.0924
28685W        W71598   6.060  18.678  18.047  0.0004  0.1106 -0.2254
28686W        W71599  18.854  33.022  15.880  0.2952 -0.0575  0.0946
28687W        W71600  16.478   8.734  14.129  0.1896 -0.2625 -0.1235
28688W        W71601  33.590  25.313  16.063 -0.2640  0.0465 -0.0409
28689W        W71602   2.393  10.430  19.036  0.2268 -0.1214  0.0764
28690W        W71603   5.626  12.645  26.740  0.0420 -0.0658 -0.2391
28691W        W71604  26.561  15.128  28.680 -0.0132 -0.2220  0.0982
28692W        W71605  19.115   7.914  20.874 -0.2656  0.3872  0.0202
28693W        W71606   9.412  22.505  16.464 -0.2171 -0.0878 -0.0342
28694W        W71607   2.655  20.728   0.435 -0.2752  0.2584 -0.1072
28695W        W71608  30.659  21.384  18.487  0.0100  0.0916  0.0186
28696W        W71609   2.739  30.269  20.182 -0.0517 -0.5069  0.1011
28697W        W71610  12.683  18.036  17.265  0.1867  0.0023  0.1161
28698W        W71611   9.707  22.768  14.956  0.1045  0.0396  0.0785
28699W        W71612  15.257  25.985  16.113 -0.0270  0.2891  0.0882
28700W        W71613  32.946  22.827  20.879 -0.0618 -0.1242 -0.2182
28701W        W71614  15.192   9.648  18.218  0.2747 -0.1286 -0.1121
28702W        W71615   8.186  13.611  15.986 -0.1164  0.1578  0.1499
28703W        W71616  29.024  21.388  21.041  0.2947 -0.2806 -0.1066
28704W        W71617   5.265  18.760  17.799 -0.0304 -0.2267 -0.0394
28705W        W71618   2.329  15.800  24.914 -0.0143 -0.2367  0.1187
28706W        W71619   9.768  27.471  19.321  0.1812  0.0031  0.2070
28707W        W71620  32.155  18.418  20.058  0.0625 -0.0372  0.5544
28708W        W71621   0.559   9.013  27.498  0.4468 -0.1007  0.1767
28709W        W71622   8.551  22.659  22.848 -0.2264 -0.1149  0.4804
28710W        W71623   9.438  24.015  19.597  0.1424  0.2843 -0.1193
28711W        W71624  13.793  13.888  26.767 -0.0814 -0.0560 -0.1005
28712W        W71625  26.713  10.249   0.362 -0.0266 -0.0532 -0.1795
28713W        W71626   5.589  26.579  21.717 -0.1852 -0.0158  0.1368
28714W        W71627   6.057  27.430  14.897 -0.0420 -0.0903 -0.2991
28715W        W71628  30.891  16.641  18.455 -0.1194 -0.0372 -0.3537
28716W        W71629  11.185  22.995  23.789  0.3527 -0.0128 -0.1266
28717W        W71630   3.457  28.083  16.595  0.1431 -0.0792 -0.0006
28718W        W71631   3.605  23.880  15.195 -0.4245 -0.2474  0.3603
28719W        W71632   3.254  32.446  19.988 -0.1127 -0.1530  0.1434
28720W        W71633   0.089  19.828  15.440  0.1010  0.0543  0.1506
28721W        W71634  32.997  21.785  19.706  0.1309 -0.1147 -0.0327
28722W        W71635  12.451  20.833  18.076 -0.0804 -0.1290  0.3961
28723W        W71636   4.313  14.564  27.270  0.0266  0.2588 -0.1225
28724W        W71637   8.731  12.061  22.062  0.1781 -0.1734 -0.0589
28725W        W71638   7.262  22.244  20.238  0.0592 -0.0638 -0.0846
28726W        W71639  30.204  17.063  15.402 -0.0652  0.2002 -0.0218
28727W        W71640  23.935  18.280  20.855 -0.0520  0.4879  0.1180
28728W        W71641  33.265  15.419  22.591 -0.2130  0.1820  0.1642
28729W        W71642   8.103  28.681  17.590  0.2921  0.2883  0.0333
28730W        W71643  34.049  13.520  15.089  0.0022  0.1075 -0.0249
28731W        W71644   2.627  24.776  23.494  0.1706  0.2012  0.0327
28732W        W71645   3.865  28.313  20.511  0.1081  0.0520 -0.2355
28733W        W71646  28.226  21.077  12.727 -0.0592 -0.1891  0.1973
28734W        W71647  30.376  22.749  18.365 -0.0347 -0.0500  0.3063
28735W        W71648  32.723  12.867   2.435 -0.1077 -0.0130  0.1854
28736W        W71649   1.224  15.734  24.071  0.0801  0.3920 -0.1357
28737W        W71650   2.837  13.090  27.804  0.1942 -0.1046  0.3327
28738W        W71651   5.668  17.529  16.247  0.1819 -0.2188 -0.1506
28739W        W71652   9.102  20.415  17.439  0.0737  0.1525  0.0192
28740W        W71653  11.160  19.346  14.711  0.0123  0.2331 -0.1007
28741W        W71654  31.929  23.782  21.128 -0.0238 -0.1395  0.2442
28742W        W71655   5.287  16.804  13.450 -0.3535 -0.2184 -0.4288
28743W        W71656   3.757  25.263  18.156  0.1829  0.1261 -0.0278
28744W        W71657   7.603  28.406  19.531  0.2354 -0.2890 -0.3400
28745W        W71658   3.904  16.909  13.428  0.0237 -0.1482 -0.0344
28746W        W71659  12.217  22.587  16.305  0.1403 -0.1571  0.0089
28747W        W71660  33.309  20.569  24.884  0.0434  0.2593  0.1494
28748W        W71661   9.659  17.829  15.371  0.0243  0.2140  0.2073
28749W        W71662  29.769  29.636  16.182  0.0095 -0.1374 -0.1121
28750W        W71663   3.036  12.946  17.300 -0.1183  0.0234  0.0254
28751W        W71664   3.658  12.537  18.765  0.0147 -0.1142 -0.2539
28752W        W71665   7.456  26.699  28.478 -0.1045  0.3149 -0.2328
28753W        W71666  32.066  20.018  23.925  0.0484 -0.1052 -0.1293
28754W        W71667   9.070  16.060  22.314  0.0120 -0.1541  0.0160
28755W        W71668   5.440  20.887  14.684  0.1392 -0.2657  0.1485
28756W        W71669  11.633  26.035  17.055  0.1333 -0.0364  0.1153
28757W        W71670  33.676  20.452  19.136 -0.1848 -0.2708  0.0512
28758W        W71671   7.624  25.073  24.162  0.3099  0.0077 -0.3284
28759W        W71672   2.313  13.114  14.212  0.1077 -0.1130  0.0612
28760W        W71673  17.780  27.583  20.841  0.2965 -0.1491 -0.0768
28761W        W71674   8.597  18.009  15.568 -0.1515 -0.0871 -0.1387
28762W        W71675  16.578  15.613  25.445 -0.2718 -0.3107 -0.0630
28763W        W71676  34.348  31.202  21.002  0.1788  0.0836  0.0113
28764W        W71677  11.022  22.998  14.323  0.0372  0.0144 -0.3375
28765W        W71678  29.873  24.869   0.887 -0.2230  0.0596  0.1960
28766W        W71679   1.173  13.144  20.933 -0.1979  0.0994  0.1170
28767W        W71680   6.971  15.220  15.555  0.3305  0.2669 -0.0063
28768W        W71681  12.201  20.505  26.719  0.0209 -0.1333  0.0336
28769W        W71682  11.461  28.596  20.541  0.0666  0.1296 -0.2193
28770W        W71683  33.385  24.274  19.307 -0.0941  0.0119  0.0722
28771W        W71684   2.914   9.699  29.195  0.0071  0.2035  0.1030
28772W        W71685  14.371  17.722  22.304 -0.1677 -0.0527  0.2671
28773W        W71686   6.582  27.670  22.885 -0.2883 -0.0168 -0.3110
28774W        W71687   2.571  14.847  17.934 -0.2755 -0.0522  0.0627
28775W        W71688  21.586  29.004  20.827  0.0302  0.0431  0.1829
28776W        W71689  17.611  16.188   1.113 -0.0287 -0.0709  0.0999
28777W        W71690  34.127  18.141  20.340  0.0996  0.1631  0.1549
28778W        W71691   5.076   9.851   2.068 -0.2327 -0.0977  0.0571
28779W        W71692   7.315  16.251   4.596  0.1604  0.0351 -0.0144
28780W        W71693  27.303  17.104  22.478 -0.0942 -0.2704  0.1931
28781W        W71694  22.897  17.716  16.260 -0.2096 -0.3806  0.1299
28782W        W71695  12.662  22.961  14.877  0.1959  0.4056 -0.4042
28783W        W71696   1.507  13.559  18.923  0.1738 -0.2226  0.2602
28784W        W71697   2.470  12.475  25.924 -0.2194  0.1608  0.1367
28785W        W71698  33.383  15.367  19.963  0.0100  0.0169  0.2502
28786W        W71699   4.660  22.559  28.913  0.0893 -0.3427 -0.0501
28787W        W71700   6.866  10.448  20.534  0.1250 -0.0806  0.1913
28788W        W71701   9.167  25.086  17.059  0.1874 -0.2036  0.0101
28789W        W71702   6.416  18.064   0.339 -0.2444 -0.1758  0.2768
28790W        W71703   9.343  17.261  26.258 -0.0748  0.2957 -0.2431
28791W        W71704   8.821  17.004   0.658  0.2690  0.0563 -0.2097
28792W        W71705  10.767  12.964  21.820  0.1092 -0.1492  0.0171
28793W        W71706   6.026  11.459   1.262 -0.1418  0.0939  0.2239
28794W        W71707  13.099  20.926  19.221 -0.4425 -0.2055  0.1246
28795W        W71708   7.413  13.252  15.994  0.1293  0.1354  0.1281
28796W        W71709  20.694  22.338  21.380  0.1855  0.1587  0.0105
28797W        W71710   3.109  25.514  16.719  0.3944  0.1010  0.2974
28798W        W71711   2.420   9.828  24.713  0.2919 -0.2673  0.0075
28799W        W71712  22.326  18.192  17.103  0.3854 -0.0303  0.1970
28800W        W71713   0.629  34.229  21.899 -0.0531  0.2948  0.1437
28801W        W71714   4.056  23.032  19.528  0.0661  0.0709  0.3667
28802W        W71715   6.255  17.736  14.445 -0.2161 -0.1804 -0.3514
28803W        W71716   8.062  21.082  15.766 -0.0317 -0.0271  0.0474
28804W        W71717   8.376   7.680   2.647  0.2888 -0.0027  0.0402
28805W        W71718  32.487  17.013  14.786  0.0230 -0.1629 -0.1934
28806W        W71719  30.383  11.914  19.498 -0.0600  0.2280  0.0130
28807W        W71720   0.990  29.850  22.477  0.0985 -0.0759 -0.0487
28808W        W71721   2.394  21.388  14.432  0.0145 -0.2177  0.1243
28809W        W71722  12.989   9.622  17.029  0.2146 -0.1162  0.1288
28810W        W71723   5.260   6.569  24.191  0.0991  0.1304 -0.1533
28811W        W71724   1.605  19.043  22.839  0.4981 -0.3218 -0.0133
28812W        W71725  13.796  23.726  19.247  0.0013 -0.1020  0.2791
28813W        W71726   6.428  28.553  17.340  0.1701  0.2779  0.0652
28814W        W71727   4.957  14.243  22.032  0.0736  0.0852 -0.1270
28815W        W71728   4.712  18.749  14.050  0.2003 -0.1189 -0.2645
28816W        W71729  10.638  12.881   3.127  0.2046 -0.3844 -0.0524
28817W        W71730  34.375  28.216  24.913  0.1017 -0.1001 -0.1009
28818W        W71731   3.688  24.075  21.033  0.0523 -0.2805  0.1714
28819W        W71732   8.644   8.789  22.699 -0.0545  0.3312 -0.0518
28820W        W71733  12.012  27.171  17.667  0.2336  0.3343  0.1350
28821W        W71734   5.892  19.775  22.597 -0.0505  0.2850 -0.2268
28822W        W71735   2.622  11.578  16.607 -0.0158 -0.1693  0.3206
28823W        W71736  18.786  26.527  15.452  0.0802  0.0173 -0.0648
28824W        W71737   9.832  11.942  18.366 -0.1369 -0.3321 -0.1783
28825W        W71738  31.889  27.465  29.373 -0.1222  0.0003 -0.0737
28826W        W71739  15.327   9.216  20.673  0.1553 -0.0031  0.3300
28827W        W71740  28.383  14.815  20.708  0.1147 -0.3483  0.0739
28828W        W71741   4.356  12.307  15.555  0.1716 -0.1858  0.2938
28829W        W71742   4.402  20.275  14.812 -0.1398  0.0225  0.1681
28830W        W71743   7.827  29.795  18.560 -0.1210  0.3281 -0.0900
28831W        W71744  16.277  30.710  15.160 -0.3249  0.0277  0.1069
28832W        W71745   1.205   2.561  17.921 -0.0618  0.0988  0.0113
28833W        W71746   8.554   7.306  17.618 -0.4480  0.3131 -0.1767
28834W        W71747  28.030  27.707  21.392  0.1454 -0.1318  0.2932
28835W        W71748   6.538  12.587  17.510  0.0109  0.2023  0.1942
28836W        W71749   7.217  12.056  23.629 -0.1504  0.1134  0.0393
28837W        W71750   4.036  24.313  17.875  0.0732  0.0736  0.2325
28838W        W71751   8.682  11.636  24.161  0.1472  0.2077  0.0281
28839W        W71752   5.788  22.131  22.687  0.2839 -0.0172  0.0874
28840W        W71753  13.230  19.321  20.581  0.0760 -0.1434  0.1802
28841W        W71754  11.540  22.528  13.745  0.2625  0.1804  0.0472
28842W        W71755   5.022  22.128  14.082 -0.1427  0.0240  0.0984
28843W        W71756   5.635  12.158  19.905 -0.0849  0.0832  0.1543
28844W        W71757   4.470  28.215  19.955  0.0798  0.1314  0.1419
28845W        W71758  10.451  19.177  23.962  0.1514  0.2471  0.1933
28846W        W71759  33.939  10.971  26.496  0.2886 -0.0328  0.1288
28847W        W71760  33.430  31.819  16.822  0.1659 -0.0951  0.3221
28848W        W71761   3.493  11.578  16.989 -0.2940  0.1097  0.1338
28849W        W71762  28.996  25.585  24.478  0.1286 -0.0172  0.0351
28850W        W71763  33.239  27.907   1.710 -0.1820  0.1631 -0.0774
28851W        W71764   6.233   4.237  23.180  0.2606  0.0960 -0.0617
28852W        W71765  10.122  20.424  16.612 -0.0001 -0.5255  0.2245
28853W        W71766  30.266  27.069  23.357  0.1363  0.2125 -0.2533
28854W        W71767  31.175  24.752  13.986  0.0302  0.0582  0.2122
28855W        W71768  14.996  16.543   8.357  0.4014 -0.2034  0.0361
28856W        W71769  33.105  21.494  24.530  0.1298 -0.0706 -0.2759
28857W        W71770   1.648  16.847  24.665 -0.0153  0.1962 -0.2186
28858W        W71771   9.549  17.094  28.691 -0.2340  0.0989 -0.3725
28859W        W71772   1.130  13.622  17.672  0.2085 -0.3489  0.0796
28860W        W71773   1.801  17.611  17.235 -0.0119 -0.3140  0.0699
28861W        W71774  27.017  21.920  27.681  0.1380  0.1432  0.0459
28862W        W71775   6.205  10.428  26.305 -0.0125  0.1284 -0.0379
28863W        W71776   3.426  22.444  27.313  0.0989  0.1155  0.2264
28864W        W71777  12.545  13.129  18.249 -0.2495 -0.0144  0.0806
28865W        W71778   8.546  17.691   5.430  0.1178 -0.1748 -0.1256
28866W        W71779  10.392  13.320  26.730  0.1822  0.3162 -0.1337
28867W        W71780  11.318  11.729  16.781 -0.0992 -0.0740 -0.1524
28868W        W71781   2.480  18.338  14.404 -0.0998 -0.0562 -0.0260
28869W        W71782   7.976  25.142  17.821  0.1043 -0.1073 -0.0315
28870W        W71783   3.126  15.059  17.109 -0.0616 -0.0801  0.0713
28871W        W71784   6.768  21.847  18.208 -0.2164 -0.0579  0.1071
28872W        W71785   5.507  29.151   6.878  0.3011  0.2799  0.0395
28873W        W71786  32.836  15.899  13.677 -0.0662  0.1058 -0.2455
28874W        W71787   7.129  17.691  21.624  0.0556 -0.1873  0.1439
28875W        W71788  14.438  20.360  22.296  0.0020  0.0462 -0.0338
28876W        W71789  32.588  17.204  29.394 -0.1199  0.1277  0.1980
28877W        W71790   8.337   0.338   0.666  0.0635  0.1080 -0.0334
28878W        W71791   5.290  20.827  16.961  0.0857  0.1611  0.0855
28879W        W71792   3.800  12.087  18.408  0.0034 -0.1777  0.0605
28880W        W71793   9.336  25.356  17.658  0.1308 -0.2544  0.2039
28881W        W71794  32.172  17.646  20.316  0.3037  0.0595 -0.0946
28882W        W71795  15.569   8.759  20.859  0.2097 -0.2937 -0.3274
28883W        W71796  15.716  18.590  23.926  0.1514 -0.0031  0.3166
28884W        W71797  33.293   8.251  22.779 -0.1368  0.1854  0.0488
28885W        W71798  14.424  17.595  25.097  0.2250  0.0560  0.1499
28886W        W71799   5.806  21.929   3.636  0.2234  0.1084  0.0234
28887W        W71800  11.318  21.636  23.870 -0.0660 -0.0810 -0.2031
28888W        W71801   5.857  21.048  25.496 -0.2189 -0.0674 -0.2539
28889W        W71802  33.743  24.320  25.577  0.1437 -0.3102  0.1976
28890W        W71803   6.431   6.568  22.948 -0.1354 -0.0862  0.0408
28891W        W71804   5.988  25.979  21.570 -0.1712  0.2464 -0.0923
28892W        W71805   4.105  19.113  29.066 -0.0270  0.0030  0.0983
28893W        W71806  24.472  21.631  16.398  0.1417  0.2062  0.2100
28894W        W71807  33.649  22.181  16.326 -0.1877  0.0018 -0.3082
28895W        W71808   3.334  29.055  16.918  0.2308 -0.1582 -0.2072
28896W        W71809  29.408  22.641  17.492 -0.0024 -0.0914  0.0874
28897W        W71810   8.736  27.418  17.397 -0.0648  0.1970 -0.2210
28898W        W71811   5.257  23.301  16.755 -0.0564 -0.1658 -0.3936
28899W        W71812   2.741  23.537  19.419  0.0769  0.0387  0.1603
28900W        W71813   7.086  24.495  18.018 -0.1005  0.0754 -0.1132
28901W        W71814  22.211  25.719  22.784  0.1665 -0.1678 -0.1663
28902W        W71815   7.051   8.452  20.767 -0.2996 -0.0608 -0.0973
28903W        W71816  34.352  19.664  16.769  0.1040 -0.0239  0.2205
28904W        W71817  11.750  17.925  13.023  0.1182  0.1219  0.0355
28905W        W71818  11.514  25.888  20.160  0.1824 -0.2975 -0.3309
28906W        W71819  15.258  24.043  16.717  0.1783  0.1170  0.0188
28907W        W71820   2.097  15.787  23.568 -0.1017  0.0904  0.1560
28908W        W71821   4.308  29.585  22.725  0.1344 -0.1399 -0.1704
28909W        W71822   0.258  24.185  18.141 -0.1029  0.0601  0.0348
28910W        W71823   9.418  24.062  22.280 -0.0420 -0.1496 -0.0569
28911W        W71824   6.271  25.682  22.969 -0.0932  0.0512 -0.0040
28912W        W71825   9.493  24.375  24.156 -0.0167 -0.0067  0.1168
28913W        W71826   5.633  18.470  17.630  0.3621  0.3924  0.1445
28914W        W71827   2.922  18.304  17.794 -0.0852 -0.0270  0.1255
28915W        W71828  11.220  15.757  23.988  0.4693 -0.2641 -0.4519
28916W        W71829   5.369  17.399  15.734  0.0617 -0.1574 -0.1757
28917W        W71830   2.320  22.381  13.751 -0.1169  0.2029  0.0259
28918W        W71831   0.074  27.843  22.455 -0.0119 -0.0590 -0.0480
28919W        W71832   1.840  19.822  15.501  0.1994 -0.1465  0.0276
28920W        W71833   5.775  26.620   3.625  0.0565  0.2919  0.1559
28921W        W71834  20.730  17.774  21.289 -0.4067  0.2917  0.3496
28922W        W71835   7.243  23.008  17.566  0.3184 -0.0938 -0.0582
28923W        W71836   6.772  29.063  23.628 -0.1971  0.0008 -0.2186
28924W        W71837  14.819  11.377  17.960 -0.0395  0.0466 -0.2972
28925W        W71838  10.803  19.045  14.935  0.1601  0.1453 -0.0615
28926W        W71839   6.448  22.703  21.304 -0.0703  0.0513 -0.0546
28927W        W71840   6.019  31.886  23.971  0.0183  0.2848  0.0668
28928W        W71841  27.328  27.291  28.000 -0.2578  0.3818  0.0971
28929W        W71842   6.810  24.900  24.733 -0.2160 -0.1668  0.0959
28930W        W71843   0.780  14.475  17.437 -0.2766 -0.0252  0.2005
28931W        W71844  30.548  16.456  16.029  0.1472 -0.1808 -0.0461
28932W        W71845  11.090  12.690  23.884  0.0582 -0.2342 -0.2313
28933W        W71846   7.824  24.049  19.736 -0.1457  0.1106 -0.0543
28934W        W71847   4.620  20.786  21.031  0.0909 -0.1292 -0.1019
28935W        W71848   7.148  23.229  16.115 -0.0316 -0.0858  0.1630
28936W        W71849   9.073  18.876  29.073 -0.0482 -0.1249 -0.0909
28937W        W71850   8.720  19.064  14.955 -0.2885 -0.0171 -0.0964
28938W        W71851   7.319  26.753  27.621 -0.3880 -0.1351  0.0744
28939W        W71852   5.012  13.865  28.157 -0.0829 -0.0495 -0.0655
28940W        W71853  10.462  17.281  21.434 -0.1666  0.2438 -0.2011
28941W        W71854   5.938  15.361  26.174  0.2443 -0.0792 -0.0887
28942W        W71855   0.710  12.740  23.238  0.1171  0.0432  0.3660
28943W        W71856   0.252  27.323  26.380  0.3651  0.1192 -0.1777
28944W        W71857  33.388  20.449   0.214 -0.0048  0.1652  0.0334
28945W        W71858  15.064  23.989  15.875  0.0090 -0.0218 -0.2312
28946W        W71859   0.398  19.436  18.460 -0.1025 -0.0001  0.0320
28947W        W71860   6.092  10.815  26.727  0.0356 -0.0114 -0.0427
28948W        W71861   8.257  22.441  18.189 -0.0262 -0.1981 -0.1448
28949W        W71862  11.765  17.929  16.305 -0.4036  0.2059 -0.1148
28950W        W71863  33.295  18.751  21.474 -0.0687  0.0278 -0.1026
28951W        W71864   2.816  24.098  21.098 -0.2520  0.3702 -0.1376
28952W        W71865   7.697  27.117  15.499 -0.2604 -0.0735  0.1652
28953W        W71866  17.344  22.851  14.203 -0.0627  0.0863  0.0828
28954W        W71867   6.767  11.974  23.297 -0.2017  0.0170 -0.4994
28955W        W71868  11.795  29.580  29.122  0.1596 -0.1890 -0.1527
28956W        W71869  11.369  24.289  16.215  0.0335  0.0580  0.1193
28957W        W71870   4.459  19.985  26.549 -0.0478 -0.1952  0.0655
28958W        W71871  29.612  26.994   4.236 -0.1040  0.1084  0.2627
28959W        W71872   1.130  16.553  26.452 -0.3179 -0.0315 -0.3051
28960W        W71873   8.003   9.298  23.184  0.2674 -0.1254 -0.0438
28961W        W71874   1.590  21.856  25.689  0.2220  0.0309 -0.0872
28962W        W71875  32.243  14.629  22.117  0.2359 -0.0110  0.1007
28963W        W71876   3.499  25.397  24.480 -0.1802  0.0876  0.1101
28964W        W71877   6.621  20.595  22.151  0.0545  0.3205 -0.0568
28965W        W71878   5.246  20.670  28.738  0.1649  0.2277 -0.0723
28966W        W71879   4.571  24.093  26.865 -0.0320  0.2789  0.0094
28967W        W71880   8.317  18.688  23.182  0.1262  0.0271 -0.2792
28968W        W71881   6.038  24.766  22.752  0.1745 -0.1610 -0.4273
28969W        W71882   8.780  24.275  16.135  0.2536  0.0699 -0.2138
28970W        W71883  11.845  13.706  21.327 -0.1337  0.0160  0.0995
28971W        W71884  32.393  21.178  16.635  0.0038  0.3938  0.0725
28972W        W71885   1.276  24.620  22.929  0.2281  0.0684 -0.0781
28973W        W71886  32.335   9.933  19.981  0.1246  0.2163  0.1551
28974W        W71887   7.023  11.407  22.594  0.0858 -0.3567  0.0261
28975W        W71888   6.820  28.221  17.384  0.3272 -0.0998 -0.3471
28976W        W71889  25.822  17.512  16.154 -0.2412 -0.2606  0.4624
28977W        W71890   6.315   8.798  20.122  0.2606  0.1186  0.1621
28978W        W71891   2.716  27.287  22.615  0.0141 -0.1712 -0.0144
28979W        W71892   8.271  24.241  17.042 -0.0614  0.3333  0.2366
28980W        W71893  33.396  31.711  19.943 -0.0567  0.1432  0.2928
28981W        W71894  12.616  31.144  18.878 -0.2280  0.0464 -0.0818
28982W        W71895   6.513  15.355  15.652 -0.2840 -0.3589  0.3226
28983W        W71896  10.591  17.336  15.063 -0.2428  0.1868 -0.1603
28984W        W71897  33.959   1.828  23.401  0.1496  0.1855 -0.2854
28985W        W71898  19.330  25.845  16.675  0.1729  0.2085 -0.0692
28986W        W71899  16.173  24.302  18.588 -0.2062  0.1440  0.1492
28987W        W71900   2.087  11.638  16.568  0.4554 -0.0579 -0.4299
28988W        W71901   4.503   6.447  18.787 -0.0008  0.2311 -0.0312
28989W        W71902   7.159  22.679  16.109 -0.1052  0.0738 -0.1757
28990W        W71903   6.787  33.599  29.449  0.2669 -0.2114  0.1309
28991W        W71904   1.269  15.139  15.795  0.1831  0.2211  0.1732
28992W        W71905   3.306  17.423  19.563  0.1256  0.6719  0.1159
28993W        W71906  31.530  22.004  21.139  0.1882  0.3089 -0.4449
28994W        W71907   7.767  33.671  19.471 -0.2416  0.1422  0.1420
28995W        W71908   4.418   8.215  21.134 -0.1395  0.0302  0.3368
28996W        W71909  33.320  22.799  24.626 -0.1284  0.1478  0.0677
28997W        W71910  13.553  14.468  15.644 -0.0290 -0.0856  0.0341
28998W        W71911   0.280  14.701   2.693 -0.3860  0.1927  0.2922
28999W        W71912   5.391  16.875  20.017  0.1064 -0.0236  0.0500
29000W        W71913   6.592  23.672   0.188 -0.1095  0.3225 -0.1310
29001W        W71914   1.308  21.127  23.059  0.2921 -0.0771  0.2288
29002W        W71915  13.119   6.572  23.005  0.0263  0.0319  0.2782
29003W        W71916   5.737  29.988   2.848  0.2508 -0.0370  0.2530
29004W        W71917  12.606  14.915  23.049  0.2188 -0.1520 -0.1145
29005W        W71918  17.732   1.641  19.393  0.1759  0.1800 -0.1040
29006W        W71919  12.778  29.153  19.284 -0.2332 -0.0269 -0.1781
29007W        W71920  30.451  27.842   4.222  0.1187  0.0402  0.0652
29008W        W71921   6.403  22.256  25.702  0.2005 -0.2516  0.2244
29009W        W71922  30.133  22.156  15.086 -0.0814  0.1825  0.4722
29010W        W71923  33.464  21.089  20.496 -0.3482  0.0650  0.0078
29011W        W71924   4.862  13.288  23.060  0.1540  0.0913 -0.0155
29012W        W71925   9.777  28.400   3.493 -0.0752 -0.0292  0.0688
29013W        W71926  17.357  24.001  13.922 -0.1017  0.3108  0.4022
29014W        W71927  33.986  21.335   1.631  0.2865 -0.1288  0.0722
29015W        W71928   7.941  20.314  14.105 -0.1543  0.0385  0.0557
29016W        W71929   6.177  19.581  14.740 -0.4263 -0.2799 -0.2062
29017W        W71930   0.956   0.404  27.886  0.0929 -0.1239  0.0970
29018W        W71931   7.782  21.798  20.299 -0.1706 -0.0773 -0.1181
29019W        W71932   9.278  25.073  27.223  0.1330  0.1862  0.2583
29020W        W71933   3.642  22.401  20.683 -0.3450 -0.0513 -0.1163
29021W        W71934   2.716  16.908   2.032  0.0740  0.1942  0.0495
29022W        W71935  12.069  14.041   2.259  0.1256  0.0487 -0.0241
29023W        W71936   2.038  28.019  20.950  0.1002  0.2098  0.0802
29024W        W71937   2.372  12.870  28.415  0.0873  0.1111  0.2692
29025W        W71938  24.359  26.827  23.880  0.4139  0.1232  0.4761
29026W        W71939  13.353  19.202  24.022  0.2503  0.0830 -0.1996
29027W        W71940  10.510  25.351  19.277  0.1187  0.0952 -0.2058
29028W        W71941  31.850  22.312  20.290  0.1424 -0.0648  0.1115
29029W        W71942   6.597  22.524  14.160 -0.1019 -0.1820 -0.2019
29030W        W71943   6.335  23.673  27.351 -0.0986 -0.0813 -0.1362
29031W        W71944   4.515  13.860  23.591 -0.0237 -0.3062  0.0327
29032W        W71945   3.419  26.979  20.802  0.1796  0.1119 -0.0396
29033W        W71946  10.598  17.811  15.208 -0.2738 -0.4581  0.3600
29034W        W71947   1.489  21.677   3.145 -0.3167 -0.0019 -0.2762
29035W        W71948   2.367  32.016  26.161  0.0500  0.1979  0.4406
29036W        W71949   9.005  21.747  27.860  0.0068 -0.1283 -0.1183
29037W        W71950   7.264  25.426  29.271  0.1320  0.1418  0.1887
29038W        W71951  14.266  22.983   3.433 -0.2658  0.1001  0.2456
29039W        W71952  12.033  16.112  23.143 -0.0507 -0.0665 -0.0563
29040W        W71953   9.822  16.331  25.522  0.1219  0.1163  0.0552
29041W        W71954  17.526  16.652   1.439  0.0287 -0.0517  0.3088
29042W        W71955   3.047  20.978  20.543 -0.3624 -0.0536  0.0000
29043W        W71956  12.419  17.638  15.572  0.2329 -0.1426  0.0731
29044W        W71957  32.069   8.950  18.891  0.2965  0.1030 -0.3519
29045W        W71958   7.614  12.061  17.646 -0.2361  0.0272  0.0081
29046W        W71959   7.196  22.076  28.173 -0.0788  0.1105  0.1005
29047W        W71960   2.774  28.114   5.094 -0.0776  0.2116  0.0746
29048W        W71961   9.416  20.537  24.632  0.2060  0.1188 -0.0719
29049W        W71962  16.000  18.026  13.038 -0.2163  0.2019 -0.0080
29050W        W71963   7.009  17.450  20.662  0.0345  0.3509  0.4204
29051W        W71964   8.427  13.669  25.103  0.2852 -0.0611  0.0940
29052W        W71965  30.903  28.791  26.761  0.1935  0.2972 -0.0135
29053W        W71966  33.193  22.215  22.596  0.3012 -0.0065  0.2047
29054W        W71967   7.293  30.365  25.807 -0.1806 -0.1512  0.1363
29055W        W71968   1.361  20.986  24.680  0.1035 -0.2235  0.0475
29056W        W71969  16.408  18.422  13.392 -0.1052 -0.4704  0.1627
29057W        W71970  31.713  17.950  17.970  0.2798 -0.0859  0.2707
29058W        W71971  27.105  20.718  23.942  0.1292 -0.0765  0.1711
29059W        W71972  28.589  17.594  27.178 -0.0878 -0.1539 -0.0051
29060W        W71973   6.522  15.561   5.658  0.0398 -0.0416  0.1242
29061W        W71974   4.765  21.360  29.671 -0.2408 -0.0435  0.3642
29062W        W71975   9.965  19.987  25.584  0.1632  0.0397 -0.0104
29063W        W71976   2.185  19.272  25.608  0.0741 -0.0842  0.4851
29064W        W71977   1.607  24.551  27.455  0.0686  0.1059 -0.2473
29065W        W71978  18.030  22.736  16.511 -0.1181  0.0123  0.0270
29066W        W71979  14.715  14.634  21.958 -0.2021 -0.1351  0.3161
29067W        W71980   8.309  17.007  15.994  0.2668 -0.0792 -0.1160
29068W        W71981   7.814   7.671  24.628 -0.0607  0.0377  0.0672
29069W        W71982  11.477  20.673  16.327 -0.0084 -0.3169  0.1896
29070W        W71983  13.764  16.259  23.189  0.0324  0.3201  0.2870
29071W        W71984   4.519  28.119   6.316 -0.0490  0.3089 -0.3122
29072W        W71985  19.625  24.791  16.791  0.1015 -0.1733  0.5496
29073W        W71986   7.753  32.767   9.885 -0.0409 -0.0644 -0.3925
29074W        W71987  17.380  20.240  27.485  0.1811  0.1965 -0.0709
29075W        W71988   0.308  22.256  21.962  0.3946  0.0155 -0.2224
29076W        W71989  33.132  29.591  15.868  0.3494  0.1826 -0.0530
29077W        W71990  25.612  13.154  20.175  0.0503  0.0001 -0.4233
29078W        W71991   3.257  18.964  27.484 -0.1002  0.2990 -0.1239
29079W        W71992  16.408  20.139  24.069  0.0450 -0.0367 -0.0480
29080W        W71993  31.186  25.438  24.184  0.2499  0.1605  0.1158
29081W        W71994   1.314  21.950  16.689 -0.2689  0.2930 -0.0435
29082W        W71995   6.195  24.083  14.968 -0.1664  0.3641 -0.1159
29083W        W71996  10.556  25.836  19.197 -0.0765 -0.0222  0.1964
29084W        W71997  17.426  19.379   1.405  0.0510 -0.0822  0.0545
29085W        W71998  11.721  13.466  18.385  0.0907 -0.0268 -0.1251
29086W        W71999  11.596  26.185  28.457  0.2533 -0.0883 -0.0030
29087W        W72000  10.463  21.124  26.183  0.0107 -0.0769 -0.0396
29088W        W72001  17.079  17.093  14.532  0.0524 -0.0006  0.1895
29089W        W72002   6.021  19.616  17.698  0.1851 -0.0997 -0.4627
29090W        W72003  32.152  27.846  22.532 -0.3755 -0.1010  0.1259
29091W        W72004   7.171  14.536  20.880 -0.2157  0.1735  0.0877
29092W        W72005   6.580  22.422  24.350  0.1474 -0.0042  0.0233
29093W        W72006   8.603  12.269  24.864 -0.1213  0.2332 -0.2290
29094W        W72007  33.037   0.966  23.360 -0.3797 -0.3140 -0.0454
29095W        W72008   2.019  13.606  16.936 -0.1312 -0.3129  0.0567
29096W        W72009   3.545  20.758  16.889 -0.1423  0.0502 -0.2616
29097W        W72010   3.171  22.039   6.164  0.1948  0.2332 -0.1279
29098W        W72011   2.709  22.628   0.483  0.0591  0.0597  0.0541
29099W        W72012  10.698  25.375  26.869  0.1779 -0.0592  0.0766
29100W        W72013  31.937  17.327   0.874 -0.1044 -0.2028 -0.3462
29101W        W72014   8.553  29.325  18.859  0.0973 -0.1324  0.1966
29102W        W72015  14.461  19.232  24.774 -0.0750 -0.1095 -0.3774
29103W        W72016   8.294  18.137  23.230  0.0243 -0.0764 -0.3107
29104W        W72017   0.092  17.944  18.650  0.2374  0.1524  0.2646
29105W        W72018   7.881  19.239  26.457  0.1300  0.0551  0.2721
29106W        W72019   5.002  20.077  27.836 -0.0094 -0.0101 -0.0096
29107W        W72020  31.647  23.272  15.566  0.2140  0.0379 -0.2053
29108W        W72021   3.636  23.223  23.818  0.0077  0.1608  0.0816
29109W        W72022  27.129  21.605  23.999  0.0593  0.1727  0.0443
29110W        W72023  29.160  32.577   2.719  0.1765  0.1049 -0.2138
29111W        W72024   1.942  22.825   2.768  0.1073  0.3906 -0.0133
29112W        W72025   2.281  18.055  28.827 -0.4928  0.3386 -0.1392
29113W        W72026   7.899  14.144  27.440 -0.1963 -0.1674  0.1349
29114W        W72027   2.475  23.378  23.904 -0.0748  0.0273  0.3038
29115W        W72028   0.459  28.004  22.169 -0.0057  0.1016  0.3694
29116W        W72029  17.441   5.436  19.047  0.1793 -0.2096  0.0555
29117W        W72030  29.205  25.457  27.011  0.0678  0.0525 -0.1239
29118W        W72031  26.176  19.160  24.502 -0.0617  0.2444  0.3037
29119W        W72032   3.420  21.618   5.252  0.0306 -0.0018  0.0182
29120W        W72033   3.197  14.648  14.408  0.2574  0.1262 -0.1646
29121W        W72034   1.108  20.576  23.545  0.1064  0.0267  0.3406
29122W        W72035   3.438  12.383   0.196  0.1283 -0.0602  0.2484
29123W        W72036  19.959  19.066   0.877  0.0297 -0.1560 -0.0222
29124W        W72037   9.543  19.381  20.527 -0.1646  0.0426  0.0437
29125W        W72038  13.915  19.059  25.573 -0.3285  0.1837  0.0348
29126W        W72039   0.880  18.316  21.862 -0.2019  0.4378  0.0379
29127W        W72040   8.617   3.845  27.069  0.0369  0.1441  0.3406
29128W        W72041   8.301   3.156  29.337 -0.1033 -0.0864 -0.0320
29129W        W72042   9.582  16.543  28.900 -0.0347  0.1245  0.1422
29130W        W72043  31.137  16.194   1.696  0.1120 -0.0244  0.2151
29131W        W72044   7.241  18.546  18.712  0.0277  0.1073 -0.0479
29132W        W72045  15.664   3.049  27.820 -0.2419 -0.1537 -0.2580
29133W        W72046  34.443  26.393   6.114  0.2971  0.0986  0.3637
29134W        W72047   0.768  25.735   1.665  0.1169 -0.1310  0.1131
29135W        W72048   5.152  11.663   4.220  0.2265  0.0958 -0.0269
29136W        W72049   3.031  26.101  25.170 -0.1476  0.2666 -0.1487
29137W        W72050   8.145   6.519  17.886 -0.1668  0.1202 -0.1210
29138W        W72051   9.321  23.864  14.552  0.2548 -0.0637 -0.1294
29139W        W72052   6.788  22.604  22.882  0.1601  0.2511 -0.2803
29140W        W72053  13.513  17.751   0.039  0.4884 -0.1296  0.0086
29141W        W72054   3.261  16.922  17.958  0.0603 -0.1976  0.0503
29142W        W72055  13.557  17.593  15.948  0.1975 -0.0526  0.1819
29143W        W72056  17.239  18.379  24.273 -0.2026  0.1389  0.1265
29144W        W72057   9.865  12.853  18.023  0.2365  0.0365 -0.1108
29145W        W72058   5.039  11.987  21.265  0.2046 -0.3036 -0.2000
29146W        W72059  31.012  16.586  27.527 -0.2237 -0.0331 -0.0643
29147W        W72060   2.229  23.041  27.374 -0.3583 -0.0984 -0.1693
29148W        W72061   6.832  17.403  29.070  0.2191 -0.2356  0.1127
29149W        W72062   4.913  31.760  23.357  0.0292 -0.2265  0.0583
29150W        W72063   0.361  15.273  21.155  0.0798 -0.3407 -0.0336
29151W        W72064   5.746  18.069  16.335 -0.0355  0.0286  0.0867
29152W        W72065  13.003  14.154  28.017 -0.0778 -0.2629 -0.1925
29153W        W72066   8.996  22.064   8.658  0.1467  0.0557 -0.2995
29154W        W72067  10.039   8.700  24.710 -0.2262 -0.0659 -0.0708
29155W        W72068   6.767  26.173   2.607  0.1642 -0.4111  0.2149
29156W        W72069  31.097  17.569  25.673 -0.2715  0.1229  0.0151
29157W        W72070  16.619  26.801  14.725  0.3269  0.0474  0.0557
29158W        W72071   8.642  28.244  16.766 -0.0499 -0.3120  0.0409
29159W        W72072   2.843  21.130  27.128 -0.3016  0.1702 -0.2426
29160W        W72073   2.497  16.400  20.934  0.1564 -0.0932 -0.0360
29161W        W72074   7.181  25.786  17.122  0.3836 -0.0114 -0.0847
29162W        W72075  15.443  26.946  27.257  0.2024  0.4274  0.0163
29163W        W72076   3.589  19.600  25.584 -0.0799  0.1120  0.1777
29164W        W72077  26.612  16.545  21.574  0.1200 -0.1514  0.3126
29165W        W72078   5.382  18.027   0.050 -0.0626  0.1961 -0.0760
29166W        W72079  10.644  24.582  27.139  0.0961 -0.0094 -0.1346
29167W        W72080   2.622  21.701  21.410 -0.1642 -0.1989 -0.0430
29168W        W72081   8.192  20.664  25.271  0.1407  0.0753  0.3027
29169W        W72082   8.798  20.452  19.693  0.3542  0.1414  0.0355
29170W        W72083   5.944  25.257  27.933  0.0703 -0.2653 -0.0514
29171W        W72084   9.648  11.053  23.999 -0.1845 -0.0519 -0.0072
29172W        W72085   8.706  18.236  22.875  0.0153  0.1058 -0.0468
29173W        W72086   2.638  25.608   0.514  0.2303  0.0663 -0.1528
29174W        W72087   3.412   8.437  18.517 -0.0459 -0.1238  0.0147
29175W        W72088   2.202  22.446  25.861  0.0362  0.3144  0.0691
29176W        W72089   2.193  10.180  23.697 -0.2150 -0.0829  0.0912
29177W        W72090  26.863  27.197   0.013  0.0448 -0.5172 -0.0805
29178W        W72091  33.568  26.644   7.047 -0.1289  0.0110  0.0537
29179W        W72092  32.545  20.106  24.081 -0.0635  0.1286 -0.1894
29180W        W72093  13.710  17.346  21.906  0.3022 -0.0444 -0.2069
29181W        W72094   0.289  23.483  28.367 -0.0027  0.3464  0.3841
29182W        W72095  12.189  24.082  19.210 -0.0890  0.1818 -0.0174
29183W        W72096  27.951  24.977  27.702  0.0001  0.1110 -0.0746
29184W        W72097   9.914  18.968   5.031 -0.0236  0.1448  0.1413
29185W        W72098   8.741  18.610  20.302  0.0410 -0.1241  0.2561
29186W        W72099  30.576  18.862  26.039  0.2331 -0.0719  0.1712
29187W        W72100  10.160  16.737  20.489 -0.0209  0.1433  0.1373
29188W        W72101   4.791  24.399   1.027 -0.0984  0.0271  0.0124
29189W        W72102   3.900  26.546  25.721  0.3534 -0.3213 -0.0682
29190W        W72103  16.219  30.555  27.809 -0.3321 -0.1376  0.0499
29191W        W72104   7.653  30.865   0.421  0.0129 -0.0355 -0.1288
29192W        W72105   6.603  18.456   4.741  0.0569  0.0813 -0.0137
29193W        W72106  30.802  25.197  21.329  0.3604 -0.2332  0.1374
29194W        W72107  11.271  21.083   0.232 -0.0542  0.0306 -0.0281
29195W        W72108   6.117  16.904  25.206  0.2103  0.0200  0.1121
29196W        W72109   6.701  18.195   2.592 -0.1032 -0.4172 -0.0721
29197W        W72110  33.455  11.239  15.507  0.0108  0.2660  0.0268
29198W        W72111   1.386  33.216   7.359 -0.1055 -0.0799  0.2238
29199W        W72112  17.741  15.969  26.975 -0.0192  0.1501 -0.0523
29200W        W72113  13.665  20.988  26.143 -0.0453 -0.0347  0.0722
29201W        W72114  12.096  19.789  25.723  0.1418  0.0772  0.1411
29202W        W72115  15.608  23.988  24.621  0.0820 -0.0274  0.1157
29203W        W72116  10.799  17.444  25.261 -0.0206 -0.0662  0.2742
29204W        W72117  10.185   5.332  27.488 -0.1653  0.1627  0.2865
29205W        W72118  11.896  19.523  28.743 -0.0575  0.1623 -0.0754
29206W        W72119  11.035  24.122  17.801  0.1103 -0.0064 -0.1951
29207W        W72120  31.744  18.210  19.293  0.1201  0.0056  0.3067
29208W        W72121  31.282   5.573  27.974  0.0423  0.2726 -0.3050
29209W        W72122   4.344  22.800  21.344 -0.0269 -0.0979 -0.3610
29210W        W72123   6.430  32.019  19.075 -0.0786  0.1086 -0.0027
29211W        W72124  32.394   6.622  20.334 -0.0941  0.3035 -0.0533
29212W        W72125  15.855  16.947   1.454 -0.3657  0.2065  0.0229
29213W        W72126   4.578  25.618  27.571  0.0571  0.3679 -0.2117
29214W        W72127  21.669  20.719  20.567  0.1733 -0.2837 -0.1572
29215W        W72128  13.429  31.299  16.016  0.0123  0.1455 -0.2424
29216W        W72129   6.077  26.159   3.356  0.3559 -0.2665 -0.0129
29217W        W72130  33.637  19.518  21.437 -0.2138  0.2406 -0.0682
29218W        W72131  10.420  14.667  24.632  0.1470 -0.0548 -0.0023
29219W        W72132   4.014  10.317  24.925  0.1700 -0.2332  0.1855
29220W        W72133   7.014  25.495  22.125  0.2972 -0.2720  0.3087
29221W        W72134  33.489  13.460  17.888 -0.1083 -0.0899  0.1582
29222W        W72135  25.546  18.874  26.568 -0.0700  0.1566  0.1026
29223W        W72136  10.753  22.339  27.799  0.1064 -0.0270  0.1475
29224W        W72137   6.726  12.754  19.472  0.3747  0.0394 -0.2328
29225W        W72138  12.398  21.811  21.298  0.0583 -0.0354  0.3023
29226W        W72139  11.183  14.761  17.918 -0.1907 -0.0147 -0.0781
29227W        W72140  34.486  15.637   4.627  0.0186  0.1302  0.1673
29228W        W72141  13.407  29.086  25.010 -0.1434 -0.0993  0.2809
29229W        W72142   7.583  16.654  17.367  0.1844  0.1595 -0.3017
29230W        W72143   9.050  29.690   5.974 -0.0308  0.1264  0.1026
29231W        W72144   7.559  18.843   1.447 -0.2631 -0.2416 -0.2309
29232W        W72145   5.969  24.768  20.086  0.0875  0.0407 -0.0679
29233W        W72146  14.328  14.799  27.416 -0.0556  0.2285 -0.0318
29234W        W72147  14.184  30.250  23.239 -0.3815 -0.1848 -0.1428
29235W        W72148   8.531  21.404  17.531  0.2597 -0.0760 -0.0887
29236W        W72149  11.218  14.818  16.581  0.1380  0.0281 -0.4359
29237W        W72150   5.426  29.741  25.259 -0.0757 -0.1776  0.1868
29238W        W72151  13.302  25.440  18.248 -0.1689  0.0831 -0.0058
29239W        W72152  12.300   9.222  25.659 -0.1164 -0.2683  0.2573
29240W        W72153   0.233  29.282   3.347  0.1427  0.0294 -0.0501
29241W        W72154   1.950  26.750  23.012 -0.0366 -0.4070  0.1929
29242W        W72155   5.440  24.402  20.851 -0.2624 -0.0354  0.1556
29243W        W72156  34.282  21.633  19.982  0.0629  0.1121 -0.0228
29244W        W72157   3.060  19.193  15.391  0.0176  0.0051 -0.0456
29245W        W72158   0.826  11.996  25.476  0.0379 -0.3483 -0.1870
29246W        W72159   7.566   9.570  21.399 -0.1686 -0.0813  0.2684
29247W        W72160   3.420  15.670  15.067  0.2101  0.0680 -0.3524
29248W        W72161   5.681  28.946   0.897  0.2040  0.0153 -0.0828
29249W        W72162   8.673  16.885  17.844  0.3018 -0.0673  0.3901
29250W        W72163  10.264  23.729  19.864 -0.1042 -0.0426 -0.1308
29251W        W72164  27.601  17.850  24.045  0.0489 -0.2345  0.2455
29252W        W72165  10.693  24.075  26.960  0.0673 -0.0654  0.2003
29253W        W72166  13.333  28.133  20.472  0.0895  0.2794 -0.0185
29254W        W72167   2.467  29.438  17.750 -0.0811  0.0146  0.3320
29255W        W72168   7.630   6.813  23.245 -0.1341  0.1794 -0.0107
29256W        W72169   1.465  20.959  25.568  0.0278  0.0163 -0.0565
29257W        W72170   7.429  15.413  26.763 -0.0433  0.1194  0.2262
29258W        W72171   3.456  24.339  28.359  0.1692 -0.0151 -0.1368
29259W        W72172   2.250  17.480   0.872  0.1171 -0.0437 -0.1695
29260W        W72173  24.492  14.473  16.985  0.3058 -0.1726 -0.2766
29261W        W72174  11.645  15.299  14.124 -0.2332 -0.1373  0.3037
29262W        W72175   9.449  24.118  20.357  0.1037 -0.0229 -0.1124
29263W        W72176   1.371  15.146   0.622  0.4990 -0.0445  0.1574
29264W        W72177  30.595  28.938  14.895 -0.1723  0.0427 -0.0341
29265W        W72178   0.322  18.756   9.936  0.2750 -0.1019  0.1937
29266W        W72179  34.145  25.618  24.169 -0.1938  0.0457 -0.2042
29267W        W72180  28.485  22.434   0.684 -0.0399  0.2619 -0.1288
29268W        W72181   8.888  20.758  19.255 -0.0291  0.1836 -0.1944
29269W        W72182   6.897  30.321  20.289 -0.2220 -0.1429  0.3007
29270W        W72183   6.250  12.985   2.840 -0.2306  0.2696 -0.0896
29271W        W72184   0.132  22.179  15.851 -0.3058 -0.0089 -0.0820
29272W        W72185   7.124  15.315  18.224 -0.0070 -0.0740 -0.4110
29273W        W72186   1.532   8.352  27.136  0.1650 -0.0701  0.0660
29274W        W72187  10.274  23.351  17.608 -0.0996 -0.2112  0.2837
29275W        W72188   8.144  23.629  16.975  0.0964 -0.0858 -0.1438
29276W        W72189  13.034  28.013  19.157  0.1572  0.5129 -0.0392
29277W        W72190   6.011  19.077  26.076  0.0304  0.0114 -0.1482
29278W        W72191  17.815  13.078  14.826  0.2381  0.4356  0.1026
29279W        W72192  12.615  17.002  23.461  0.1724 -0.1978 -0.2131
29280W        W72193   7.635  15.399  25.650  0.1562  0.1678 -0.0429
29281W        W72194  32.550  34.335  16.605  0.2205 -0.0159  0.2880
29282W        W72195   3.161  16.096  18.952  0.0786 -0.1911 -0.0654
29283W        W72196  26.876   8.561   2.282  0.1260  0.1884  0.1655
29284W        W72197  11.743  17.657  22.253 -0.0450  0.2003 -0.0114
29285W        W72198   8.275  20.842  20.833 -0.1655  0.4621 -0.1682
29286W        W72199   2.590  10.712  24.779  0.0797  0.1019  0.0133
29287W        W72200  13.814  23.101  13.733  0.0693  0.2317  0.0368
29288W        W72201  14.193  13.281  26.241  0.0952 -0.0686  0.1088
29289W        W72202   1.456  12.621  22.282  0.1551 -0.1696 -0.2380
29290W        W72203  11.658  12.931  22.040  0.1260  0.0588  0.2759
29291W        W72204   6.349  34.134  22.738 -0.1333  0.2182  0.1817
29292W        W72205   8.575  18.741  23.598  0.1246  0.0867 -0.1363
29293W        W72206   8.091  23.645  16.360 -0.1757  0.0813 -0.1207
29294W        W72207   6.233  24.328  19.572 -0.1848  0.2068 -0.1097
29295W        W72208   5.954  27.868  16.206 -0.1960  0.2116  0.2045
29296W        W72209   7.698  20.826   0.311 -0.2858 -0.0833  0.0860
29297W        W72210   5.316  19.029  18.580  0.0558  0.0845  0.2476
29298W        W72211  10.713   3.744  25.245 -0.0592  0.2074 -0.0250
29299W        W72212   0.021  25.972  26.038 -0.0104 -0.0858  0.0441
29300W        W72213  30.440  26.977  19.837  0.2452  0.1430 -0.0197
29301W        W72214   5.186  17.209   4.865 -0.1416 -0.0625 -0.0681
29302W        W72215   4.746  19.166  29.081 -0.3095  0.0430  0.0641
29303W        W72216   6.016  16.260  20.239  0.0856 -0.0329  0.1489
29304W        W72217  34.160  26.101  20.616 -0.1107 -0.0651 -0.2025
29305W        W72218   2.376  23.041   5.749  0.1085  0.3260  0.1183
29306W        W72219  33.638  17.711  16.955 -0.0258  0.1681  0.2580
29307W        W72220   3.564  24.731  18.582  0.1587  0.2241 -0.1425
29308W        W72221  27.903  29.462  13.932 -0.2628 -0.0784 -0.0121
29309W        W72222   8.532  20.605   1.975  0.2268 -0.1016 -0.1831
29310W        W72223   2.298  27.991  25.612  0.1242  0.1304  0.0775
29311W        W72224  30.656   5.539  25.627  0.0221 -0.0648  0.1007
29312W        W72225   6.330  23.222  28.997  0.0511  0.4072  0.1065
29313W        W72226   0.555  15.008   1.621  0.2443 -0.1144  0.2432
29314W        W72227  11.554  23.702  23.802 -0.0045 -0.1611  0.2404
29315W        W72228  12.259  10.901  21.447 -0.0843 -0.0324  0.1580
29316W        W72229   1.983  24.274  27.589 -0.0644 -0.1148  0.0967
29317W        W72230   6.489  18.727  23.888  0.2307  0.4324 -0.0593
29318W        W72231  10.213  19.036   8.356 -0.0921  0.0477 -0.0991
29319W        W72232  31.827   8.737   2.082 -0.1125 -0.1316  0.0184
29320W        W72233  30.266  28.237   1.041  0.0293  0.0572 -0.0152
29321W        W72234  12.213   7.713  23.271  0.1957 -0.0478 -0.2636
29322W        W72235  12.989  19.882  25.353  0.1943  0.1706  0.0689
29323W        W72236   3.811  20.925   8.662  0.0834  0.1546  0.2237
29324W        W72237   6.846  16.359  18.950 -0.1081  0.0099  0.0279
29325W        W72238  10.850  17.517  24.111 -0.0125  0.2496  0.0975
29326W        W72239  14.522  11.146   4.239 -0.1038 -0.0769 -0.0334
29327W        W72240  11.178  16.851   1.834 -0.0535  0.0230  0.2178
29328W        W72241  13.000  21.968  20.330  0.0826  0.2366 -0.4274
29329W        W72242  14.164   6.487  23.267 -0.0552 -0.1496  0.1653
29330W        W72243   0.435   4.625  23.950 -0.1837  0.0431 -0.0219
29331W        W72244   1.030  21.541  19.757 -0.0251 -0.1077  0.2625
29332W        W72245  12.848  14.655  15.225 -0.0266 -0.3607  0.0535
29333W        W72246  33.949  19.581  20.267 -0.0160  0.2086  0.2076
29334W        W72247  14.724  13.909  20.237  0.0397 -0.1241  0.1371
29335W        W72248   8.086  23.697  29.596 -0.1154 -0.1347  0.3216
29336W        W72249   7.424  25.797  16.147 -0.0403 -0.0972 -0.0763
29337W        W72250   1.407  25.829  21.636 -0.3051  0.0804  0.2261
29338W        W72251  30.601  27.016  25.552 -0.3071 -0.2511  0.0537
29339W        W72252  18.641  18.157  15.018 -0.1272  0.1951 -0.1206
29340W        W72253   5.098  26.272  17.933  0.3857  0.2639 -0.0097
29341W        W72254  16.461  26.890  14.098  0.0917  0.4309 -0.1009
29342W        W72255   5.727  11.138  19.180 -0.1319 -0.2830 -0.1077
29343W        W72256   3.617  18.423  15.604 -0.1305 -0.1182 -0.0412
29344W        W72257   8.738  19.846   0.484  0.0277 -0.1244  0.1160
29345W        W72258   9.254  15.197   2.951  0.0917  0.1354  0.2277
29346W        W72259   0.558  17.555  23.781  0.0404  0.3066  0.6851
29347W        W72260   4.276  32.015  21.818 -0.2547 -0.0790  0.0554
29348W        W72261   0.293  18.263  21.796 -0.1839  0.2521 -0.0320
29349W        W72262  10.480  17.945  15.686 -0.0362 -0.1728 -0.2091
29350W        W72263  32.103  29.370  24.306  0.0347  0.2110  0.0103
29351W        W72264   1.882  27.071  22.649  0.0362  0.0829  0.1189
29352W        W72265   9.447  23.600   1.436 -0.1957  0.0661 -0.2655
29353W        W72266   5.167  11.835  22.179  0.3049  0.4584  0.0915
29354W        W72267   8.611  18.121   1.109  0.0810 -0.0806 -0.0210
29355W        W72268  13.517  10.637  19.653  0.1831 -0.2795 -0.2052
29356W        W72269   1.597  16.419   0.650 -0.1975  0.2189  0.0186
29357W        W72270  34.184  31.935  23.144 -0.1256  0.1248  0.0492
29358W        W72271   0.530  21.425  26.420 -0.0862 -0.2278  0.1069
29359W        W72272   2.133  17.842   1.650 -0.2289  0.1336 -0.1518
29360W        W72273  32.642  20.787  25.982 -0.0722  0.2092 -0.5410
29361W        W72274  15.522  21.076   4.292  0.0798  0.2689  0.0404
29362W        W72275   9.900  28.485  27.567 -0.0378 -0.1382  0.1820
29363W        W72276  12.180  23.111  22.237 -0.0781  0.1171  0.3328
29364W        W72277  30.569  24.876  24.405  0.0380  0.1197 -0.1261
29365W        W72278  31.662  16.552  28.897  0.2141  0.0186  0.0895
29366W        W72279   6.879   9.762  22.447 -0.2108  0.2261  0.1279
29367W        W72280   2.833  14.861  17.444  0.2115 -0.3660 -0.1203
29368W        W72281  11.668  19.971  22.070  0.3138 -0.1541  0.0176
29369W        W72282   6.307  21.251  27.435 -0.2475 -0.0481 -0.1584
29370W        W72283   9.207  23.433  26.279  0.1204 -0.0710  0.2063
29371W        W72284  13.418  26.845  24.993  0.3103 -0.0722 -0.1583
29372W        W72285   3.249  18.126  23.918 -0.1608  0.3117 -0.0275
29373W        W72286   4.726  21.127   1.883  0.0838  0.1348 -0.2541
29374W        W72287   6.626  21.987  18.831 -0.0610  0.1835  0.0220
29375W        W72288   4.401  12.430  15.075 -0.1014 -0.2359  0.1458
29376W        W72289   7.895  31.489  27.073  0.2902 -0.1336  0.1332
29377W        W72290   2.885  18.890  21.139  0.0606 -0.0827  0.0349
29378W        W72291   9.659  33.201  24.004  0.2112 -0.3317 -0.3046
29379W        W72292  10.421   9.211  21.027  0.2124  0.4329  0.2314
29380W        W72293   9.394  15.047  27.723 -0.1035  0.0885 -0.1655
29381W        W72294  12.753  18.182  17.971  0.0170  0.2095  0.1565
29382W        W72295   5.594   3.984  20.252  0.0414  0.0197  0.3068
29383W        W72296  17.068  22.576  18.865  0.1972  0.0834  0.0726
29384W        W72297  17.078  22.042  25.064  0.1907 -0.2217 -0.1589
29385W        W72298   2.432  15.863   0.828 -0.0709 -0.3622  0.2710
29386W        W72299   6.143  21.085  21.740 -0.0119 -0.0960  0.1032
29387W        W72300  29.990  19.256   0.550  0.1549  0.0816 -0.5506
29388W        W72301   7.240  14.220  22.089 -0.0219  0.0536 -0.0256
29389W        W72302   3.276  18.582  24.105  0.0203 -0.1682 -0.0761
29390W        W72303   3.591  16.254  24.525 -0.1316  0.0351 -0.0149
29391W        W72304  14.288  27.427   0.515  0.0614 -0.0064 -0.0539
29392W        W72305  19.649  19.297  13.118 -0.0110 -0.0387 -0.1400
29393W        W72306  32.598  17.256   3.445 -0.0912  0.0833 -0.1689
29394W        W72307   8.277  18.327  16.969 -0.1746  0.0712  0.2550
29395W        W72308   5.771  33.031  21.435 -0.0868  0.2062 -0.1111
29396W        W72309   8.075  24.445  23.830  0.0619  0.0809  0.0526
29397W        W72310  12.604  21.038  21.177 -0.0585 -0.1092  0.0265
29398W        W72311  31.061  20.733   3.031  0.0332 -0.2862 -0.0689
29399W        W72312  13.656  15.481  22.649 -0.1550  0.2206  0.0446
29400W        W72313  14.164  20.363   6.486  0.3866  0.3583  0.2330
29401W        W72314  33.439  26.848  22.758  0.2178 -0.3099  0.2073
29402W        W72315  10.069  22.200   4.193  0.1411 -0.1020 -0.2325
29403W        W72316   8.688  17.744  28.751 -0.0217  0.2028 -0.1324
29404W        W72317   1.248   7.945  12.675 -0.4856  0.3183 -0.0917
29405W        W72318   6.158  12.597  28.294 -0.1027  0.1650 -0.0810
29406W        W72319  33.066  23.504   2.178 -0.0606  0.4885  0.0213
29407W        W72320   5.904  15.386   0.195 -0.2696  0.0126  0.1126
29408W        W72321   5.109  12.661   0.362 -0.0613 -0.1787 -0.0116
29409W        W72322  28.141  29.035  21.737  0.2303 -0.0198 -0.0562
29410W        W72323   6.630  24.933   1.196 -0.3947 -0.2110 -0.3476
29411W        W72324   4.284   9.066  22.583 -0.1101  0.0015  0.2144
29412W        W72325   8.745  14.725  28.512  0.0089 -0.0644  0.2714
29413W        W72326  10.564  22.344  21.653  0.1631  0.2117  0.1259
29414W        W72327   6.038  22.453  22.285 -0.1796  0.3036  0.0573
29415W        W72328   0.623  29.582   5.997 -0.0101 -0.0753 -0.0249
29416W        W72329   2.067  24.892   5.601 -0.1661 -0.3020 -0.2529
29417W        W72330  30.111  18.820  25.756  0.0368 -0.1026  0.0514
29418W        W72331   5.611  18.440  29.656  0.0264 -0.1430  0.0976
29419W        W72332  15.941  26.772   6.271 -0.0131 -0.2198  0.1904
29420W        W72333   4.910  15.672  22.134  0.0008  0.2925  0.0930
29421W        W72334  20.896  19.526  19.116 -0.1096 -0.3732  0.2324
29422W        W72335  17.438  18.867   5.573 -0.1798  0.0024 -0.1534
29423W        W72336   2.454  32.502   0.078 -0.4569  0.1437 -0.0354
29424W        W72337   4.036  23.017   7.950  0.0261  0.0446 -0.0664
29425W        W72338   2.027  29.351  22.996  0.0319 -0.2572  0.0043
29426W        W72339  34.205  19.624  19.881  0.0437  0.2494 -0.3057
29427W        W72340  28.962  22.376  18.840 -0.0599  0.3415  0.0095
29428W        W72341   1.575  19.946  18.380  0.1576  0.0174  0.1428
29429W        W72342   9.126  27.948  17.474  0.0344  0.2095  0.3378
29430W        W72343   5.540  11.328   4.294 -0.2376  0.0760  0.0505
29431W        W72344  27.736  11.688  16.096  0.3658  0.1624 -0.0743
29432W        W72345   7.364  14.931  16.599  0.3899  0.3461 -0.1046
29433W        W72346  12.893  23.543  24.833  0.0309 -0.0518 -0.1131
29434W        W72347  31.062  26.805  17.689 -0.1698 -0.1027  0.0565
29435W        W72348  12.421  20.564  24.255 -0.2377 -0.1461 -0.1247
29436W        W72349  30.874   3.214  16.543  0.0567  0.0604 -0.2049
29437W        W72350  33.704  25.267   1.323  0.0016  0.2643 -0.2424
29438W        W72351  33.180  25.196  26.084  0.3547  0.1234  0.1974
29439W        W72352   4.461  10.493  10.261 -0.0392 -0.0402 -0.3082
29440W        W72353  16.272  22.669   3.922  0.2941  0.1262 -0.2213
29441W        W72354   5.124   9.126   6.946  0.1407 -0.2435 -0.4052
29442W        W72355  31.781  13.986  26.703 -0.1844 -0.0088  0.0798
29443W        W72356  23.411  18.278  21.592 -0.0915 -0.0513 -0.2682
29444W        W72357   2.573   8.421   3.704  0.0911 -0.1756 -0.0834
29445W        W72358   9.747   6.265  25.015 -0.1007 -0.0259 -0.0883
29446W        W72359  33.327  15.837  24.920  0.2607 -0.1543 -0.0926
29447W        W72360   3.472  17.314  20.861 -0.1030  0.0208  0.0972
29448W        W72361   5.434  13.936   3.111 -0.0021 -0.0304 -0.0124
29449W        W72362  33.664   7.522   4.114  0.1059  0.2523 -0.2540
29450W        W72363   9.814   6.434  28.534  0.1074  0.4865 -0.0325
29451W        W72364   6.183  18.901   7.712  0.0404 -0.0960 -0.0861
29452W        W72365   0.268  23.816  28.765  0.2305  0.1487 -0.1410
29453W        W72366  11.769  23.363  13.337 -0.1561  0.1023 -0.1998
29454W        W72367  33.893  25.638  28.394  0.0200 -0.0429  0.0947
29455W        W72368   6.079  13.816   1.208  0.2091  0.0123 -0.0731
29456W        W72369   2.943   8.656  20.916  0.0950  0.3144 -0.2352
29457W        W72370  15.979  26.183   6.142 -0.0482  0.3770  0.3388
29458W        W72371   4.596  19.986  24.265 -0.1140  0.3008  0.1673
29459W        W72372   3.250  11.343  23.259  0.1407 -0.1740 -0.1247
29460W        W72373  15.187  28.203   8.984  0.0221  0.1453 -0.1823
29461W        W72374  12.365  24.999  26.528 -0.1800  0.1102 -0.0392
29462W        W72375  32.829  22.939  26.694  0.0157  0.1301 -0.0924
29463W        W72376   2.468   9.364   0.965  0.0123  0.0200  0.1497
29464W        W72377   4.781  27.398  24.463 -0.2683 -0.1639 -0.1199
29465W        W72378   7.090  21.152  24.333  0.3484  0.2212  0.0344
29466W        W72379  12.101  12.852  18.487 -0.1538  0.0463 -0.0472
29467W        W72380   4.478  20.502  29.612  0.0422 -0.0536  0.0226
29468W        W72381  10.974  16.729  21.639 -0.3193  0.0373 -0.0249
29469W        W72382  23.684  21.991  23.675 -0.1015  0.1389  0.0406
29470W        W72383   1.419  19.638  15.385 -0.1485 -0.1636 -0.4492
29471W        W72384   0.749   5.624  26.726 -0.2748 -0.0119  0.4986
29472W        W72385   6.553  25.867   1.268 -0.1459  0.3106 -0.2947
29473W        W72386   7.731   8.693  26.955  0.1666 -0.2601 -0.1046
29474W        W72387   8.429  22.777   8.549  0.1939  0.1534  0.1963
29475W        W72388  26.929  25.251   1.990 -0.1007  0.1178  0.1871
29476W        W72389  30.408  32.268   3.365  0.1598  0.2286  0.4546
29477W        W72390   2.758  30.925   8.023  0.0598  0.2019 -0.0487
29478W        W72391   9.319  27.913  28.613 -0.1103 -0.0088 -0.2660
29479W        W72392  31.847  17.513   7.536  0.0480  0.1097  0.2689
29480W        W72393  15.296  15.546  21.886  0.2205  0.1225  0.0428
29481W        W72394   0.357  21.728  23.826 -0.1644  0.1200 -0.0477
29482W        W72395   0.676  12.394  24.512  0.1417 -0.3770 -0.0002
29483W        W72396  14.660  18.488  23.551 -0.0063  0.1810 -0.2566
29484W        W72397   9.463  20.609   4.269  0.0790  0.2674  0.2012
29485W        W72398  16.396  16.620  12.784 -0.1213 -0.3557 -0.0320
29486W        W72399   0.092  27.317  28.460 -0.0281 -0.1658 -0.1447
29487W        W72400  11.370  32.995  27.974  0.2158  0.2876 -0.0274
29488W        W72401   7.385  25.538  24.231  0.0048 -0.1210 -0.3065
29489W        W72402  30.750  22.051  29.402 -0.1251  0.3286  0.1561
29490W        W72403  15.383  21.764  23.114  0.2248 -0.2123  0.1048
29491W        W72404  12.016  18.288  16.042  0.1545  0.0438 -0.2609
29492W        W72405   9.578  30.331  27.667  0.0164  0.0546 -0.0480
29493W        W72406  33.785  10.364  16.978 -0.0891 -0.1714 -0.3576
29494W        W72407   9.418  19.025   9.031 -0.0722  0.0082 -0.4662
29495W        W72408  31.755  23.131  16.534  0.1107  0.3078  0.0472
29496W        W72409   3.836  21.253  28.233 -0.1455 -0.4502 -0.0959
29497W        W72410  16.924  19.325  24.407  0.3397  0.0386 -0.0059
29498W        W72411   8.409  28.763   1.506 -0.1202 -0.1695 -0.2148
29499W        W72412   9.974  16.858   4.379  0.1509 -0.2085 -0.1196
29500W        W72413   4.404  12.920   8.179 -0.3587  0.2544  0.0088
29501W        W72414   3.953  32.776   3.154 -0.1339 -0.0293 -0.3544
29502W        W72415   5.216  15.266  17.673  0.0078  0.2243  0.0441
29503W        W72416   1.185  17.040   1.782 -0.2595 -0.0503 -0.0396
29504W        W72417   9.066  20.498   6.679 -0.0180 -0.1676  0.0023
29505W        W72418   1.437  14.359  23.068  0.1510 -0.1541  0.3757
29506W        W72419   2.099  11.073  24.767  0.2378  0.0375  0.2291
29507W        W72420   4.003  20.222   1.522 -0.3101 -0.0069  0.0202
29508W        W72421  34.064  25.736   5.322  0.3135  0.2449  0.3432
29509W        W72422   4.079   7.312   0.252 -0.0702 -0.0715  0.2444
29510W        W72423   4.220  18.156  28.919 -0.2674 -0.1997 -0.2868
29511W        W72424  13.554  23.236  20.882 -0.2479  0.1300  0.0839
29512W        W72425  31.533  26.160  27.868 -0.0754  0.0881  0.1186
29513W        W72426   0.756  19.843   0.836 -0.1685 -0.0639  0.0255
29514W        W72427   6.175  17.879  21.401  0.2335  0.2298  0.2800
29515W        W72428  11.750  17.425  23.436 -0.0582  0.0015  0.2680
29516W        W72429  32.214  31.608  26.253 -0.2327 -0.3323 -0.1432
29517W        W72430  12.285   6.834  20.788 -0.0866 -0.3205  0.2332
29518W        W72431  30.934  17.494  22.842 -0.2389 -0.2533 -0.2016
29519W        W72432   1.738   9.970  16.985  0.1038 -0.1131  0.2224
29520W        W72433  10.484  23.333  26.438  0.0395 -0.3044 -0.0377
29521W        W72434   5.238  21.022   2.714  0.1945  0.2696  0.0312
29522W        W72435  30.768  19.514   4.775 -0.1689 -0.1020  0.2230
29523W        W72436  34.337  22.916  27.049  0.2947  0.1605  0.0553
29524W        W72437  14.222  16.236  22.911 -0.0685 -0.0559  0.1993
29525W        W72438  16.943  28.305  19.643  0.2439  0.1954  0.3110
29526W        W72439   4.166  26.143   3.432 -0.2558 -0.0883  0.1477
29527W        W72440  13.298  17.477  25.944  0.1544 -0.0789  0.0851
29528W        W72441   8.100  18.556  23.700  0.0804  0.0915  0.0228
29529W        W72442   8.495  29.486  11.540 -0.0279 -0.0408 -0.1751
29530W        W72443   3.157  19.830   4.932 -0.0761 -0.2126 -0.0640
29531W        W72444  12.976  20.472  12.462  0.3080  0.0113  0.0904
29532W        W72445   3.562   9.231  27.968 -0.2346 -0.0241  0.1723
29533W        W72446   1.990  22.142  29.102  0.2241  0.0861  0.1212
29534W        W72447   5.790  31.222  26.425  0.0248  0.0033  0.0800
29535W        W72448  33.154  16.023   6.254 -0.0070 -0.1404  0.0628
29536W        W72449  26.085  21.967   2.780 -0.0149  0.0774 -0.0994
29537W        W72450  31.753  24.643  21.467  0.2199  0.1411 -0.0813
29538W        W72451  32.442  17.824  28.902  0.1467  0.1295  0.0320
29539W        W72452   0.573  20.819  28.408 -0.0924 -0.0582 -0.2539
29540W        W72453  13.963  17.602  27.252 -0.0009  0.1074 -0.0228
29541W        W72454  30.774  20.119   5.857  0.1204 -0.0398  0.0545
29542W        W72455  13.176  14.517  23.349 -0.0556  0.0930 -0.3548
29543W        W72456   9.731  16.142   2.971 -0.0131 -0.4533  0.0339
29544W        W72457   9.121  19.796  26.590 -0.0936  0.0208  0.2343
29545W        W72458  28.932  18.063   1.021 -0.0891  0.1044 -0.2707
29546W        W72459  28.231  12.419   0.656  0.2299  0.0430  0.2001
29547W        W72460  10.740  21.541  20.695 -0.1768 -0.1782 -0.0205
29548W        W72461  12.697   8.990   2.996 -0.1258  0.2238 -0.0248
29549W        W72462  28.115  26.083  22.737  0.0827  0.0795 -0.2797
29550W        W72463   4.883  15.030   3.628 -0.2275  0.0768  0.1665
29551W        W72464  29.364  21.931   1.156  0.1728 -0.0329 -0.0064
29552W        W72465  31.593  20.024   8.526  0.3413 -0.0024  0.2733
29553W        W72466  12.156  15.713  27.420 -0.1033  0.2405  0.0110
29554W        W72467   9.295  28.560   5.659 -0.0037 -0.4261 -0.3042
29555W        W72468  12.557  19.082  22.263 -0.1725 -0.0848 -0.0309
29556W        W72469  11.486  18.092  19.888  0.1755  0.5753  0.1617
29557W        W72470   9.101  21.331  22.627  0.1166  0.0648  0.1503
29558W        W72471  27.928   0.740   7.571 -0.2092 -0.2469 -0.1737
29559W        W72472  11.225  25.757   5.908  0.0159 -0.4775 -0.3125
29560W        W72473   8.901  29.915  19.074  0.0032 -0.0584  0.0825
29561W        W72474  34.240  21.394  21.089 -0.0798 -0.1847  0.1083
29562W        W72475   6.257  21.734  26.528 -0.0460  0.1235  0.0888
29563W        W72476   0.722  16.561  27.534  0.3360 -0.2249 -0.0668
29564W        W72477   3.493  19.965  20.791  0.0700 -0.0204 -0.0175
29565W        W72478  10.253  22.234  25.488 -0.1069  0.0569 -0.0313
29566W        W72479  19.715  24.079  16.015 -0.1201 -0.4165 -0.0058
29567W        W72480   3.506  18.332  26.891  0.1303  0.2026  0.1191
29568W        W72481   1.811  14.332  19.895  0.3202  0.3775  0.2990
29569W        W72482   6.850  21.704  20.182  0.1523  0.0158  0.3649
29570W        W72483  14.355  20.370  21.627 -0.3708 -0.0879  0.3584
29571W        W72484  21.055  20.866   1.882  0.3781  0.0176 -0.0325
29572W        W72485  34.135  24.448  25.235 -0.0447 -0.3183 -0.2034
29573W        W72486   4.024  20.111   3.538  0.0535  0.0027 -0.0506
29574W        W72487  29.000  20.071  20.390 -0.2641  0.1541  0.0222
29575W        W72488  10.728  18.949   4.353  0.3832 -0.1323  0.0441
29576W        W72489  17.908  12.288   0.582 -0.1891  0.1279  0.4026
29577W        W72490   7.709  16.590   7.435  0.1027 -0.0211  0.0869
29578W        W72491   2.337  23.015   9.764  0.0824  0.0956 -0.0620
29579W        W72492  10.288  25.684   0.003 -0.3041  0.0702 -0.1429
29580W        W72493  11.734  19.662  28.149  0.1419  0.2040  0.1754
29581W        W72494   8.282  22.166   9.638 -0.1364  0.1549  0.0251
29582W        W72495  13.028  15.943   2.963 -0.0034 -0.3831 -0.1820
29583W        W72496  26.107  17.318  25.563 -0.0591  0.0204  0.0894
29584W        W72497  34.259  17.269  29.772 -0.3164  0.0523  0.0686
29585W        W72498  13.925  24.175  17.891 -0.1257 -0.2286 -0.2445
29586W        W72499   6.081  22.009  28.291 -0.1304  0.0834 -0.4704
29587W        W72500   1.031  32.325  29.108 -0.1789 -0.0064 -0.1556
29588W        W72501  25.446  17.345  18.038  0.5581  0.0148  0.1992
29589W        W72502   1.126  25.756   4.753 -0.0855  0.2708 -0.3424
29590W        W72503   7.045  12.873  22.436 -0.0490 -0.2606 -0.0256
29591W        W72504   6.443   1.835   4.036 -0.2150 -0.1248  0.1390
29592W        W72505   7.068  20.493  26.641  0.1984  0.2697  0.0258
29593W        W72506  31.637  25.953  28.772 -0.1106 -0.2594  0.0993
29594W        W72507  29.222  14.737   9.815 -0.1640  0.0689  0.0217
29595W        W72508   5.510  21.103   3.937 -0.2504 -0.1548 -0.0488
29596W        W72509   5.413  25.125  15.941 -0.0348 -0.2524  0.0238
29597W        W72510   0.060  12.738  15.090 -0.1101 -0.0108 -0.2980
29598W        W72511   7.160  25.225   8.279 -0.1360  0.0640 -0.0660
29599W        W72512   9.080  24.214   0.654  0.1992  0.2459 -0.0743
29600W        W72513   2.860  15.611  22.246 -0.0083  0.0109  0.0085
29601W        W72514  12.407  17.555  25.526 -0.2974  0.0577  0.0408
29602W        W72515   2.509  13.344  23.812  0.0106  0.1469 -0.1874
29603W        W72516  16.621  14.666  26.129  0.0079  0.0550 -0.0177
29604W        W72517   2.687  24.238  17.417 -0.2490  0.0214  0.0866
29605W        W72518   6.235  16.546   0.679  0.3464 -0.0514  0.3477
29606W        W72519   9.224  11.606  23.366 -0.1089 -0.1871 -0.2358
29607W        W72520   1.477  24.307  25.709  0.0010 -0.1252  0.0120
29608W        W72521   9.879  18.668   0.016  0.3322 -0.2254 -0.3372
29609W        W72522   3.295  29.813   5.145 -0.0024 -0.3745 -0.0953
29610W        W72523  27.159  21.042  15.041  0.0252 -0.6053  0.0418
29611W        W72524   7.509  17.986   1.545 -0.0809  0.1133  0.0370
29612W        W72525   1.385  21.719  28.022 -0.2044  0.1903 -0.2209
29613W        W72526   5.903  23.583  26.273  0.0974  0.2018 -0.0273
29614W        W72527  33.053  20.932  23.284 -0.1766  0.4269 -0.0492
29615W        W72528  12.501   5.452  26.355 -0.2565 -0.2354 -0.3391
29616W        W72529   9.993  20.398   3.495 -0.3554 -0.1717 -0.0498
29617W        W72530   9.031  26.409   5.221 -0.0017 -0.2283  0.1439
29618W        W72531  33.918  24.675  24.477  0.1876  0.2000 -0.0215
29619W        W72532   5.733  18.354  27.808  0.2846  0.0031 -0.1289
29620W        W72533   2.331  17.741   2.145 -0.1623  0.0910 -0.3272
29621W        W72534  10.013  23.398   1.393  0.0142 -0.4726 -0.0132
29622W        W72535  34.403  21.404   5.426  0.0485 -0.2301 -0.1116
29623W        W72536   5.918  16.888  29.219  0.1633  0.0261  0.1218
29624W        W72537  14.373   6.018  22.336  0.0774  0.1013 -0.2205
29625W        W72538   5.220   3.905  29.468  0.2271  0.0161 -0.0756
29626W        W72539  26.791  24.407  25.894  0.0308 -0.1114 -0.1272
29627W        W72540  34.404  16.729   7.282 -0.0275 -0.1217  0.0749
29628W        W72541  11.310  24.967  26.876 -0.0042 -0.3391  0.0676
29629W        W72542   8.023  24.901   0.399  0.1115  0.2819 -0.3310
29630W        W72543  34.444  30.588  21.154  0.1066  0.0237 -0.0631
29631W        W72544  18.932  24.485   0.546  0.0012  0.1666  0.2422
29632W        W72545   6.319  18.153  25.372  0.0964 -0.3108  0.1742
29633W        W72546   8.642   0.483   1.601 -0.2382 -0.0792  0.0627
29634W        W72547  16.152  25.882   2.997  0.3945  0.1363 -0.4470
29635W        W72548   7.428  10.569  21.534  0.0340  0.2710  0.0633
29636W        W72549   2.842  12.301  29.593  0.1350  0.2159  0.1422
29637W        W72550  30.612  24.289  22.654 -0.1813  0.1611 -0.0605
29638W        W72551   2.278  22.429  23.647 -0.1491 -0.0675  0.0084
29639W        W72552   3.749  14.537  28.819 -0.5020  0.1441  0.1214
29640W        W72553   8.974  20.978   2.897  0.1761 -0.2870 -0.0138
29641W        W72554   5.729  20.562  28.442 -0.0503  0.0921  0.0728
29642W        W72555   6.778  22.834   3.057  0.1110  0.0722 -0.2513
29643W        W72556   5.586  25.268   5.061  0.0851  0.0317 -0.3183
29644W        W72557   0.422  10.874   7.984 -0.0087  0.0571  0.1383
29645W        W72558  18.197  28.114   9.928 -0.2259  0.3733 -0.0400
29646W        W72559  11.814  26.495   7.416 -0.1793  0.2592  0.1458
29647W        W72560   7.340  12.940  24.799 -0.0057  0.2274 -0.4877
29648W        W72561   4.095  20.559  24.511  0.0006 -0.0026 -0.1364
29649W        W72562   4.534  18.747  28.128  0.0815  0.3068  0.0234
29650W        W72563   6.327  19.506  23.995 -0.0322  0.0054 -0.1883
29651W        W72564   5.936  29.271  18.697  0.1142  0.1369 -0.3653
29652W        W72565   7.294  25.152   4.607  0.0174 -0.1831 -0.1714
29653W        W72566   5.997   9.565   2.843 -0.1858 -0.1090  0.1771
29654W        W72567  33.625  27.458  22.529  0.1391 -0.0628 -0.3010
29655W        W72568  20.465  11.599  26.623 -0.0288 -0.0341  0.1561
29656W        W72569  11.335  23.541   4.135  0.2973 -0.2585  0.1270
29657W        W72570  10.187  14.129   2.819 -0.1972  0.1370  0.4995
29658W        W72571   7.178   8.177  24.523 -0.0122 -0.2829 -0.2542
29659W        W72572  17.758  31.213  26.296 -0.1042 -0.1026 -0.1676
29660W        W72573   2.724  22.168  23.725  0.0984  0.0918 -0.1801
29661W        W72574  25.310  19.783  27.063 -0.0298 -0.2456  0.1312
29662W        W72575   0.763  24.707  27.650  0.0966 -0.0044 -0.0792
29663W        W72576   8.805  13.817  27.899 -0.3549  0.1403  0.0515
29664W        W72577   9.810  16.465  22.679  0.0466  0.2679 -0.0046
29665W        W72578   1.157  21.416  24.971  0.0378 -0.2266 -0.0737
29666W        W72579  33.783  25.923   8.937 -0.0011  0.2605  0.2004
29667W        W72580  13.369  25.081  26.218  0.1556 -0.0952  0.2385
29668W        W72581   8.603  15.669  21.148  0.1537  0.0097  0.3889
29669W        W72582   7.805  17.385  24.008  0.0732  0.3781 -0.2599
29670W        W72583   1.360  28.451  29.688  0.2181  0.0606  0.0083
29671W        W72584   1.833  27.604   2.078  0.0017  0.2493  0.2280
29672W        W72585  33.403  13.309  20.522 -0.0419  0.4232  0.2104
29673W        W72586  10.639  19.558   6.700 -0.2625 -0.3895  0.2090
29674W        W72587  33.961  16.130  15.948 -0.0893  0.0398  0.0061
29675W        W72588   1.793  22.010  24.684 -0.1423 -0.4053  0.1273
29676W        W72589   0.239  15.730  20.712 -0.3706 -0.0117 -0.0840
29677W        W72590  16.852  14.582   7.820  0.1826 -0.4015  0.0354
29678W        W72591   8.337  33.195  23.002 -0.1056 -0.1528  0.1408
29679W        W72592   5.896  20.227  23.444  0.0856  0.0528  0.1167
29680W        W72593   9.990  16.554   4.902 -0.1179  0.1104 -0.4045
29681W        W72594  23.071  26.421  28.501 -0.1492 -0.0218  0.0112
29682W        W72595   1.350  16.154  25.096 -0.0705  0.3270  0.1222
29683W        W72596  16.494  24.377  15.872 -0.0446 -0.0147  0.1321
29684W        W72597   8.519  24.754  25.485  0.1782  0.0825  0.0406
29685W        W72598  12.079  15.061  29.231 -0.0357 -0.0180  0.1771
29686W        W72599   6.272  20.939   9.250  0.1099  0.1736  0.3298
29687W        W72600   3.221  17.975  28.273  0.0532  0.1486 -0.0570
29688W        W72601  11.846  20.999  18.511 -0.3502  0.1477  0.3408
29689W        W72602  33.643  24.242  26.790  0.0320 -0.0291  0.0648
29690W        W72603  13.951  31.898   2.342  0.2492 -0.0581  0.0593
29691W        W72604  32.269   7.846  23.046  0.1345 -0.2289 -0.0543
29692W        W72605   0.723  22.445  29.326  0.1885 -0.0291 -0.3512
29693W        W72606  19.811  26.309  29.419  0.0232 -0.1807  0.2389
29694W        W72607   8.827  31.899   5.096 -0.1939 -0.0664 -0.1716
29695W        W72608   4.486  25.369  10.055 -0.1319  0.2285 -0.0505
29696W        W72609   9.595  18.426  22.706  0.2069  0.0769 -0.3110
29697W        W72610  10.549  21.602  22.598  0.2208 -0.0801 -0.0187
29698W        W72611   7.241  24.120   1.066  0.2501  0.0681  0.2103
29699W        W72612   4.767  23.070  21.538  0.1470 -0.1251  0.3129
29700W        W72613   3.562  16.666  27.690  0.3862 -0.2933 -0.0480
29701W        W72614   1.018  22.143   9.109  0.1100  0.1136  0.0539
29702W        W72615   5.542  19.062   1.377  0.2699 -0.0152 -0.2155
29703W        W72616  30.642  25.973   3.114  0.1124  0.1119  0.2499
29704W        W72617   4.088  23.007   4.089 -0.0800  0.4631  0.1053
29705W        W72618   8.439  27.455  29.224  0.2036  0.1300  0.0124
29706W        W72619  29.382  13.445  25.575  0.0755 -0.0521 -0.0315
29707W        W72620   4.080  23.224   1.791 -0.0082  0.0904  0.0979
29708W        W72621   7.844  26.423   6.871  0.3446 -0.1419  0.1892
29709W        W72622   2.333  21.647  20.563 -0.0969  0.0681 -0.2987
29710W        W72623   4.249   6.084   6.172 -0.0120  0.0812  0.2890
29711W        W72624   7.895  27.187  15.953  0.0476  0.0104  0.0556
29712W        W72625   0.180  26.746   4.124 -0.1051  0.1783  0.4411
29713W        W72626   5.112  23.585  24.770 -0.2354  0.1510  0.0977
29714W        W72627   5.046  24.849  25.752 -0.0125 -0.1691  0.1877
29715W        W72628  12.559  26.300  10.419  0.1205  0.1836  0.1072
29716W        W72629   1.427  16.033   3.679  0.0367  0.3327  0.1547
29717W        W72630   6.433  19.874  27.000  0.2434  0.3731  0.0676
29718W        W72631   1.204  11.969  23.524  0.1914 -0.1725  0.0046
29719W        W72632   0.845  29.208   6.198 -0.1694  0.0453  0.2855
29720W        W72633   9.245  22.125  27.488  0.1536 -0.1071 -0.0921
29721W        W72634  15.871  16.915  22.901  0.0892 -0.0517 -0.0613
29722W        W72635   1.648  10.019  26.934  0.1105  0.2636 -0.2185
29723W        W72636   7.455  14.294   1.587 -0.1572 -0.1162  0.1293
29724W        W72637  28.010  18.089   0.834 -0.2431 -0.2289 -0.2861
29725W        W72638   5.368  24.386   3.039  0.1520  0.1611  0.2360
29726W        W72639  10.640  15.384  25.355 -0.3838  0.2821 -0.0584
29727W        W72640  11.760  20.110  24.759  0.0126 -0.1517  0.4384
29728W        W72641  11.257  15.671  23.344 -0.2988 -0.0276  0.0734
29729W        W72642   8.273  24.857   3.025  0.1888 -0.0173 -0.1029
29730W        W72643   4.503  23.573  20.772 -0.0440 -0.2033 -0.1869
29731W        W72644  10.134  14.293  23.282 -0.3027  0.4812  0.2803
29732W        W72645  10.961  16.785  23.649 -0.1903 -0.1557  0.1456
29733W        W72646   5.148  16.452  29.196  0.2592 -0.2379  0.3063
29734W        W72647   7.547  10.357  25.793  0.2035  0.2615  0.1828
29735W        W72648  16.805  21.876  13.601  0.1382 -0.0307 -0.0482
29736W        W72649   6.405  15.595  26.122  0.0907  0.1147 -0.0393
29737W        W72650   8.032  15.024  28.931  0.2389 -0.0658 -0.0478
29738W        W72651  33.724  28.999   4.236  0.2015 -0.1299 -0.1445
29739W        W72652  12.696  22.730  27.107  0.1073 -0.0601  0.0101
29740W        W72653   5.295  19.447  21.950 -0.1641 -0.1483 -0.0184
29741W        W72654   6.796  18.906   0.375 -0.3174  0.0558 -0.1812
29742W        W72655  10.811  22.479  24.614  0.1384  0.0260 -0.0988
29743W        W72656  32.257  21.259  29.039 -0.2127 -0.0774  0.1206
29744W        W72657  34.000  20.729   5.284 -0.0329 -0.1692 -0.3245
29745W        W72658  24.410  15.332   2.802  0.0636 -0.1391 -0.3217
29746W        W72659   5.891  17.748   3.029 -0.1265  0.0221  0.2438
29747W        W72660   1.951  20.057  28.971  0.0048  0.0334  0.0322
29748W        W72661   3.585  10.899  28.011 -0.0773  0.0279 -0.1269
29749W        W72662  10.810  20.828  13.782 -0.0451 -0.1840  0.1154
29750W        W72663   2.558  26.734  26.583  0.0793 -0.4216  0.0739
29751W        W72664   2.132  11.553   4.965  0.2706 -0.2286  0.0330
29752W        W72665   6.928  26.076  24.854 -0.4388 -0.0429 -0.2752
29753W        W72666   6.552  20.743  15.816  0.0703 -0.0870 -0.2620
29754W        W72667  14.750  23.724  18.501 -0.3031 -0.0764  0.1873
29755W        W72668  12.347  27.741  29.577  0.1014 -0.2394  0.1819
29756W        W72669   5.721   6.950  16.971  0.0357  0.1796  0.1958
29757W        W72670   3.081  29.340   5.050 -0.0392 -0.1296  0.0790
29758W        W72671   0.475  10.417  25.018  0.0756  0.1162  0.2138
29759W        W72672  30.496  21.720  20.314  0.0211 -0.2566  0.1039
29760W        W72673   1.640  26.810  26.353 -0.0058 -0.1404  0.1203
29761W        W72674   4.587  25.254  24.281  0.1060  0.0626 -0.0917
29762W        W72675  10.226  21.501  20.385  0.1565 -0.2360  0.0050
29763W        W72676   3.250  27.313   2.841  0.2128 -0.2764  0.0809
29764W        W72677   3.821  12.798   8.615  0.2901  0.0969 -0.2357
29765W        W72678  14.591  21.400  24.087 -0.2298 -0.2090  0.3103
29766W        W72679   6.053  16.000  23.154  0.1314 -0.0621  0.2816
29767W        W72680   7.408  19.128   1.894 -0.3764  0.0339  0.0292
29768W        W72681  26.285  21.965   5.764 -0.4614  0.1534  0.1686
29769W        W72682  27.880  18.506  22.376  0.0698  0.2264 -0.1449
29770W        W72683   9.664  18.289  29.522 -0.1352  0.0657 -0.3721
29771W        W72684   0.764   8.718   3.176  0.1064  0.2332  0.2616
29772W        W72685  29.826  30.067   2.504  0.0961  0.1142 -0.0832
29773W        W72686   1.106   7.591  26.454 -0.4568 -0.0657 -0.3073
29774W        W72687   7.828  30.033   5.456 -0.0608  0.2955 -0.0142
29775W        W72688  10.215  20.637  28.424 -0.0386  0.0949  0.2176
29776W        W72689  34.011   0.242  23.114 -0.2675  0.2828  0.0285
29777W        W72690   0.550  10.715  28.443 -0.0527  0.0003 -0.1479
29778W        W72691   1.611  19.759  28.473 -0.0513 -0.2415 -0.0513
29779W        W72692  33.446  22.698   2.625 -0.0400  0.0196  0.0434
29780W        W72693   8.693  13.628  27.417 -0.0023 -0.2013  0.1756
29781W        W72694   3.080  17.593  20.771  0.3172 -0.0249  0.0081
29782W        W72695  31.955  30.264  26.160  0.1708  0.1711 -0.1236
29783W        W72696  34.221  20.267  13.405 -0.0325  0.3927 -0.1059
29784W        W72697   2.864  23.848   6.089 -0.2400  0.0310  0.0708
29785W        W72698  21.331  15.624  29.011 -0.2282  0.1193 -0.3334
29786W        W72699   1.105  27.740  26.089 -0.0451 -0.0299 -0.0088
29787W        W72700   9.702  22.942   6.041  0.0028 -0.3284 -0.2054
29788W        W72701   3.130  25.648  26.684 -0.1824  0.1255 -0.0225
29789W        W72702   9.259  19.932  23.796  0.0551  0.1562  0.2641
29790W        W72703  14.483  21.866  29.247 -0.4056  0.0087 -0.1497
29791W        W72704   3.444  20.889  26.443  0.2379  0.1200 -0.0959
29792W        W72705   3.167  13.495  27.742  0.1546  0.0888  0.0452
29793W        W72706   8.159  18.696  27.665  0.1332 -0.0844  0.4047
29794W        W72707   4.345  20.232  22.209  0.0856  0.0569  0.3677
29795W        W72708  14.385   5.755  22.778 -0.1164  0.2272  0.2130
29796W        W72709   6.987   4.098   9.512 -0.2091  0.0219 -0.0740
29797W        W72710   9.817  14.754   8.965 -0.0711  0.1252  0.1096
29798W        W72711  14.183  15.831  25.561  0.4588 -0.0899 -0.3286
29799W        W72712   7.614  17.705  23.578  0.3282  0.2036 -0.0399
29800W        W72713  10.257  11.924   2.633  0.1309  0.1950 -0.0829
29801W        W72714   8.805  22.908   0.457  0.0645  0.0693  0.1127
29802W        W72715  10.357  15.954  28.331 -0.2494 -0.0883 -0.1732
29803W        W72716  17.536  15.627  29.521 -0.0167 -0.0089  0.3668
29804W        W72717  31.330  17.971   0.382  0.1742  0.2333  0.0573
29805W        W72718   7.779  21.535   7.823  0.1273 -0.2738  0.1656
29806W        W72719   5.954  22.738   6.766 -0.0782  0.1274 -0.3655
29807W        W72720   2.592  10.298   3.244  0.0786 -0.0369 -0.1420
29808W        W72721   5.307  28.858   7.265  0.2248  0.3799 -0.2029
29809W        W72722   9.669  30.304  24.195  0.0838 -0.0604  0.3115
29810W        W72723  15.774   9.907  26.817  0.0561 -0.1781 -0.2260
29811W        W72724  28.648  24.334   6.899  0.3120 -0.0890 -0.0044
29812W        W72725   9.936   8.461   0.679  0.1208 -0.0420  0.2634
29813W        W72726  20.598  19.733   1.335 -0.0965  0.0012  0.2033
29814W        W72727   6.184  21.504   9.220  0.0721 -0.2240  0.0665
29815W        W72728   3.928  11.586   0.318  0.0026  0.2713  0.1674
29816W        W72729  13.151  15.266  28.802 -0.0176  0.1458 -0.0620
29817W        W72730   3.255  12.757   5.945 -0.2357 -0.2793  0.0009
29818W        W72731   6.390  13.516  29.157 -0.1016 -0.2500 -0.0521
29819W        W72732  29.855  21.431   5.481  0.0935 -0.0780 -0.2326
29820W        W72733  12.317  11.828  29.536 -0.0846 -0.0874  0.0196
29821W        W72734   5.256  18.984   2.453 -0.0391 -0.2304 -0.1196
29822W        W72735  30.990  26.575  27.641 -0.3707 -0.1364  0.2293
29823W        W72736   2.514  26.719  10.092  0.0586  0.0134  0.0177
29824W        W72737  16.387  16.611  14.206 -0.2526 -0.2184  0.1226
29825W        W72738  10.370  18.816   5.453  0.1173  0.2471  0.4183
29826W        W72739  18.742  10.333  21.894 -0.1379  0.1327 -0.2571
29827W        W72740   5.740  23.366  28.329  0.0133  0.0058 -0.0296
29828W        W72741   9.714  13.651  19.615  0.1920 -0.0136  0.4038
29829W        W72742  33.644  15.362  27.919 -0.1767  0.2724 -0.0069
29830W        W72743  30.493  21.695  25.364 -0.3073  0.0735 -0.2718
29831W        W72744  10.901  18.155   0.732  0.2310 -0.0079 -0.0273
29832W        W72745  10.328  15.274  22.108  0.0756 -0.1481 -0.0043
29833W        W72746  12.638  22.297  22.500  0.1935 -0.3099 -0.2531
29834W        W72747  14.396  24.044   6.062  0.0549 -0.0161  0.0925
29835W        W72748   6.485  11.866   6.216  0.0666 -0.2927 -0.1902
29836W        W72749   6.635  18.800   6.089 -0.1241  0.0593 -0.0040
29837W        W72750   8.113  21.153  19.691  0.0383 -0.0679  0.1395
29838W        W72751  15.560  20.073   1.529 -0.1311 -0.1995  0.1446
29839W        W72752  17.674  25.125  25.939  0.0568 -0.0648 -0.1029
29840W        W72753  23.930  30.196  26.304 -0.2941 -0.1311 -0.0039
29841W        W72754  10.514   5.238  29.540 -0.0750 -0.0735  0.2111
29842W        W72755   8.698  18.163   1.576 -0.1679  0.0229 -0.2198
29843W        W72756  33.258  22.758  23.301  0.2860  0.1770  0.1311
29844W        W72757  14.101  20.841  15.326 -0.0259 -0.0773  0.0251
29845W        W72758  29.819   0.180   6.572 -0.1124 -0.1727 -0.0415
29846W        W72759   2.448  22.669   4.774  0.0465  0.2592  0.0745
29847W        W72760   4.423  13.863  24.618  0.1049  0.0915  0.1635
29848W        W72761  13.538  22.651  21.045  0.2764  0.2781 -0.2068
29849W        W72762   5.956  22.768   4.572  0.1450 -0.2998  0.2557
29850W        W72763  29.677  32.959   1.566  0.2374  0.3041 -0.3347
29851W        W72764   5.978  14.171   8.340  0.0655  0.2075 -0.0691
29852W        W72765  16.047  19.433   6.722 -0.2189  0.2301  0.2056
29853W        W72766   4.079  20.263   2.437  0.1596  0.0607 -0.0998
29854W        W72767  16.104  26.911   8.375  0.2309 -0.0449  0.0120
29855W        W72768   6.586   7.167   6.706  0.0940 -0.1384  0.2236
29856W        W72769  25.913  19.123  28.865 -0.2571  0.2372  0.1697
29857W        W72770  10.295  23.528  28.681  0.2811  0.1358  0.0699
29858W        W72771   8.545  24.226  25.279  0.1345 -0.0049 -0.0469
29859W        W72772  13.663  22.894  27.889 -0.1479 -0.1258  0.0092
29860W        W72773  26.584  23.880   5.991 -0.0876  0.0513  0.2318
29861W        W72774   4.730  12.476  29.230 -0.2293  0.1838  0.2597
29862W        W72775   2.866  30.098   3.016  0.1271 -0.0071  0.0439
29863W        W72776  10.169  21.313  15.172  0.0656 -0.0566 -0.2985
29864W        W72777  12.237  19.070  14.776  0.0961 -0.1147  0.0337
29865W        W72778   3.474  22.745  18.495 -0.2443 -0.1106 -0.1249
29866W        W72779   8.379  22.112  25.125 -0.0988  0.1964  0.3165
29867W        W72780  31.432  19.017  15.751 -0.1200 -0.1018  0.0050
29868W        W72781   1.013  21.075  25.784  0.2328  0.2028  0.3035
29869W        W72782   5.786  22.608  25.382  0.1130 -0.2090 -0.3091
29870W        W72783   5.836  25.148  15.123 -0.2077 -0.3223  0.1299
29871W        W72784   5.601  22.718  22.390  0.3402  0.0514 -0.0740
29872W        W72785   1.451  20.166  15.570 -0.0674 -0.1380 -0.1534
29873W        W72786   4.576   3.139  22.994  0.2377  0.1159  0.1943
29874W        W72787   4.157  15.916  21.865 -0.1060  0.3496 -0.1469
29875W        W72788  10.138  30.012  20.011  0.1572 -0.1017  0.1285
29876W        W72789  10.183  17.331  14.692 -0.0579  0.0485  0.0318
29877W        W72790  33.556  27.953  22.447  0.2613  0.0520 -0.0518
29878W        W72791  31.140  20.176  21.629 -0.0856 -0.2427 -0.1808
29879W        W72792   9.972  25.421  16.017 -0.1042  0.1112 -0.0819
29880W        W72793   5.983  17.557  20.735 -0.2419 -0.1692 -0.1051
29881W        W72794   8.606  15.470  17.191  0.2859  0.1763  0.2321
29882W        W72795   8.674  34.156  18.354 -0.0622  0.0169 -0.2462
29883W        W72796  22.253  28.219  17.900 -0.0760 -0.1562 -0.0931
29884W        W72797  30.721  23.592  16.220 -0.0224 -0.0625  0.1665
29885W        W72798   1.346  26.793  18.449  0.2540  0.2700  0.0326
29886W        W72799   3.198  22.613  18.019 -0.0806  0.0119  0.1307
29887W        W72800   3.353  17.707  21.165 -0.3166 -0.2137 -0.0640
29888W        W72801  33.888  23.892  20.231  0.2264  0.0643 -0.0481
29889W        W72802  10.098  21.042  20.240  0.1876 -0.1844  0.1797
29890W        W72803  16.165   3.763  18.615  0.0130  0.3252  0.4192
29891W        W72804   3.262  25.927   3.332  0.2156  0.0820  0.0104
29892W        W72805  12.163  13.431  23.227  0.0619  0.1295  0.0530
29893W        W72806   3.363  16.923  24.912  0.0102 -0.1511  0.0187
29894W        W72807   2.529  16.703  16.222 -0.0980  0.4105 -0.1647
29895W        W72808   5.833  31.377  20.181  0.1792 -0.1745  0.0591
29896W        W72809  12.840  23.279  18.971  0.3202  0.0439  0.1279
29897W        W72810   1.018   0.470  15.863  0.0854  0.2791 -0.4504
29898W        W72811   1.006  26.494  17.602 -0.0086 -0.0707 -0.2541
29899W        W72812   3.357  29.100  22.335 -0.0586  0.0629 -0.1072
29900W        W72813   6.371  14.397  19.128 -0.0066 -0.0486  0.2543
29901W        W72814   6.751   2.381  17.564  0.2439 -0.2988  0.0142
29902W        W72815   3.311  23.212  21.736 -0.0875  0.2499 -0.2809
29903W        W72816  13.392  26.211  20.223 -0.1152 -0.0852 -0.0047
29904W        W72817   5.713  17.303  14.731 -0.0126 -0.3157  0.0207
29905W        W72818   8.791  25.002  17.546  0.2588 -0.1273  0.0372
29906W        W72819   4.749  34.487  18.692  0.1151 -0.0007  0.0077
29907W        W72820   1.922  20.335   9.083 -0.2015 -0.3149  0.1203
29908W        W72821   0.870  21.564  16.423 -0.2537  0.2132  0.0160
29909W        W72822   6.987  18.063  20.882  0.1570 -0.1571  0.2641
29910W        W72823   6.387  18.465  18.314  0.0836 -0.5079 -0.1488
29911W        W72824   4.851  16.933  18.917 -0.1001 -0.1263 -0.1044
29912W        W72825   8.303  20.702  17.977 -0.3409 -0.3323 -0.1736
29913W        W72826   5.469  27.529  19.348 -0.1283  0.0153 -0.1945
29914W        W72827   5.368  28.226  21.751  0.1244  0.0045 -0.0537
29915W        W72828  10.693  22.461  27.175  0.2835  0.0467  0.0434
29916W        W72829  14.687  19.837  13.087 -0.2043  0.1778 -0.1810
29917W        W72830   4.045  20.777  16.805 -0.1499 -0.0283  0.0641
29918W        W72831   9.554  13.717  15.859  0.1652 -0.1484  0.0277
29919W        W72832   7.660  28.726   1.851  0.1711  0.0450  0.0203
29920W        W72833   5.300  24.880  18.738 -0.0838  0.2816 -0.4123
29921W        W72834   6.859  17.207  14.071  0.0516 -0.1669 -0.0658
29922W        W72835   8.234  26.467   1.269  0.5183 -0.1132  0.0726
29923W        W72836  18.153  23.653  15.949 -0.0424 -0.3588 -0.2600
29924W        W72837   0.870  15.217  17.972 -0.1331 -0.3840  0.3671
29925W        W72838   7.091  22.638  26.797  0.0837  0.1068 -0.2478
29926W        W72839   4.384   0.339  28.625 -0.0272 -0.0269  0.2078
29927W        W72840  10.950  20.889  12.728  0.0655 -0.0185  0.1556
29928W        W72841  15.954   2.644  18.480 -0.0853  0.0842  0.2525
29929W        W72842   0.158  23.250  21.143 -0.0850 -0.0614  0.1573
29930W        W72843   9.900  20.228  16.149 -0.3089  0.2357 -0.1098
29931W        W72844  16.363  20.467  12.191 -0.0523 -0.0204  0.0264
29932W        W72845   4.296  23.712  14.056  0.0726  0.1495  0.0401
29933W        W72846  28.910   2.588  21.845  0.1796  0.1297 -0.2059
29934W        W72847   6.772  22.253  15.504  0.1297 -0.2053 -0.0537
29935W        W72848  28.476  15.492  16.756  0.3707  0.0256 -0.1530
29936W        W72849   5.994  15.651  14.649 -0.1577  0.1545 -0.0322
29937W        W72850   4.510  28.738  16.144  0.2051  0.0712 -0.0479
29938W        W72851   0.201  16.434  14.700 -0.0560  0.1190  0.0648
29939W        W72852  12.060  24.515  16.144 -0.2045  0.2030  0.1712
29940W        W72853   2.309  23.301  18.763 -0.0171  0.0471 -0.0658
29941W        W72854   0.333  16.103  21.754  0.1224 -0.0975 -0.1406
29942W        W72855   7.194  18.297  18.339  0.2752 -0.0242  0.0609
29943W        W72856   2.654  18.669  22.322 -0.0944 -0.0794 -0.3219
29944W        W72857   6.038  27.267  16.974 -0.0575 -0.1382  0.1926
29945W        W72858   9.858  26.563  18.600  0.0513 -0.0582  0.2186
29946W        W72859   8.524  20.662  18.953  0.0866  0.1261  0.1081
29947W        W72860   1.902  25.573  14.687 -0.0425 -0.2149 -0.0926
29948W        W72861   9.138  19.929  17.628 -0.1084 -0.1136 -0.0783
29949W        W72862   2.323  18.907  13.660  0.2965 -0.3276  0.0031
29950W        W72863  13.984  27.192  15.988 -0.0820 -0.1375  0.0341
29951W        W72864  33.590  19.251  15.231 -0.0422 -0.1822 -0.1224
29952W        W72865  17.729  29.450  22.144 -0.1287 -0.0518  0.0130
29953W        W72866   8.742  17.770  18.174 -0.1041 -0.3081  0.1579
29954W        W72867   4.569  23.901  16.509 -0.0440  0.0187  0.0602
29955W        W72868   9.514  22.872  18.795  0.0910 -0.1152  0.2996
29956W        W72869   1.294  19.670  14.902 -0.0725  0.0524 -0.2497
29957W        W72870  30.820  24.653  28.709  0.1697  0.2720 -0.0598
29958W        W72871  13.855  22.957  17.405  0.4531  0.0843 -0.0898
29959W        W72872   5.097  26.318  14.693 -0.1385  0.2368  0.0173
29960W        W72873   9.601  24.636  15.683  0.0720 -0.1178  0.1214
29961W        W72874  28.125  25.343  20.755  0.3643 -0.2234 -0.2062
29962W        W72875  14.325  22.452  20.926  0.1674  0.1094  0.0522
29963W        W72876  32.534  25.174  21.432  0.0761  0.0032  0.0958
29964W        W72877   0.607  23.167  18.141  0.1152  0.3857  0.1183
29965W        W72878   1.270  30.795  18.750 -0.0573 -0.0784 -0.0722
29966W        W72879  10.128  19.778  26.612 -0.2124  0.4738 -0.2283
29967W        W72880   6.172  32.372  21.533  0.0254  0.0936 -0.1650
29968W        W72881   7.413  17.689  22.663  0.5159 -0.4995 -0.3763
29969W        W72882   2.581  26.443  18.231 -0.0692  0.1645 -0.1433
29970W        W72883  20.612  32.321  16.936  0.0306  0.1531 -0.1874
29971W        W72884   8.678  23.446  17.149 -0.0589 -0.3247 -0.1368
29972W        W72885  10.107  15.383  17.334 -0.1184 -0.2116  0.1459
29973W        W72886   0.023  19.880  14.601 -0.0772 -0.0198  0.2661
29974W        W72887   8.815  24.772  19.686 -0.3028  0.3713 -0.3454
29975W        W72888  16.413  28.049  17.654  0.2581 -0.1655 -0.0719
29976W        W72889  27.911  32.134   0.153  0.0885  0.1177  0.0191
29977W        W72890  10.909  17.512  23.588 -0.1256  0.0898  0.3077
29978W        W72891  10.593  26.922  15.785 -0.0062 -0.2105 -0.2794
29979W        W72892  12.579  26.830  16.963 -0.1643 -0.2849 -0.2106
29980W        W72893   2.882   0.383  19.272  0.1002  0.1234  0.2979
29981W        W72894  11.784  32.665  15.551  0.3414  0.2155  0.0183
29982W        W72895   5.665  20.010  15.772 -0.0624  0.0368  0.1596
29983W        W72896   9.129  23.429  29.427  0.0076 -0.4967  0.2890
29984W        W72897  31.537  24.037  17.601 -0.1588 -0.1801 -0.3560
29985W        W72898   6.025  26.700  18.331  0.1079  0.0475 -0.4064
29986W        W72899  29.621  26.796  25.309  0.0879 -0.1045  0.1567
29987W        W72900   1.216  30.392  21.855 -0.1366  0.1429 -0.0672
29988W        W72901  11.491  23.856  16.365  0.0100 -0.0763  0.1914
29989W        W72902  11.403  28.128  18.856 -0.1860 -0.3474 -0.0644
29990W        W72903  16.660  23.568  25.267  0.0375  0.1764  0.2679
29991W        W72904   2.311  26.208  24.712 -0.0281 -0.2918 -0.0490
29992W        W72905   8.621  23.826  23.512  0.2890  0.1252  0.0685
29993W        W72906   4.593  26.048  19.538  0.0964 -0.3220 -0.0405
29994W        W72907  10.155  13.439  16.403 -0.4682  0.0630 -0.2298
29995W        W72908  10.912  17.974  23.922 -0.2027 -0.2079 -0.0363
29996W        W72909   3.955   2.006  17.010  0.1617 -0.1344 -0.1437
29997W        W72910   5.253  28.281  15.592 -0.0308  0.2754  0.1331
29998W        W72911  15.720  15.770  11.940 -0.0705 -0.0255 -0.0765
29999W        W72912  32.954  17.276  18.877  0.2099  0.2244 -0.1431
30000W        W72913   7.292  27.115  17.166 -0.1725 -0.1208  0.0191
30001W        W72914   3.132  26.273  14.525 -0.1244  0.0755 -0.1057
30002W        W72915   5.004  14.201  15.901 -0.0636 -0.2423  0.0707
30003W        W72916   5.060  20.620  19.130  0.1658  0.1988 -0.1243
30004W        W72917  32.807  31.099  14.411  0.2756  0.1309  0.4165
30005W        W72918   7.046  22.403  23.583 -0.3455  0.0768 -0.0418
30006W        W72919  32.580  30.071  18.032  0.1943  0.3944  0.0356
30007W        W72920   1.717  23.091  15.569 -0.0803  0.0071 -0.0408
30008W        W72921   9.553  14.748  15.162  0.1178 -0.1658  0.0530
30009W        W72922   4.728  22.299  15.000 -0.4840  0.0050 -0.0015
30010W        W72923   5.221  31.364  23.608  0.0034  0.3547  0.1463
30011W        W72924   7.707  26.912  18.179  0.1110 -0.1255 -0.0365
30012W        W72925   6.312  27.695  23.325  0.0445  0.1594  0.0585
30013W        W72926  33.254  28.920  18.976 -0.1147 -0.1528 -0.3150
30014W        W72927  33.687  15.820  19.831 -0.0183  0.1126 -0.0456
30015W        W72928   7.273  25.191  18.442  0.1072  0.1354  0.1339
30016W        W72929   8.268  19.336  21.657  0.1523 -0.1595  0.2369
30017W        W72930  15.669  14.325  21.394 -0.1005 -0.1108  0.0144
30018W        W72931  10.547  12.347  18.771  0.0834 -0.0377  0.3690
30019W        W72932   3.148  18.676  19.850 -0.2264  0.0363  0.2519
30020W        W72933  33.380  16.526  23.272 -0.0029 -0.3573 -0.0498
30021W        W72934  15.607  19.599  12.318 -0.2332 -0.0499 -0.1780
30022W        W72935   9.494  34.044  19.495 -0.1804 -0.2051  0.3957
30023W        W72936  21.044  19.110  24.966  0.1099 -0.2280 -0.4163
30024W        W72937  14.167  22.637  18.485 -0.1605 -0.1253  0.0320
30025W        W72938  33.200  24.042  18.930 -0.1979  0.0947  0.3511
30026W        W72939  13.785  21.346  21.248  0.0561 -0.1951  0.0629
30027W        W72940   6.509  21.295  19.487  0.0626  0.1203  0.0173
30028W        W72941   5.737  20.176  25.167 -0.0239  0.0018 -0.2626
30029W        W72942  28.754  31.276  15.826 -0.2394 -0.3339 -0.2351
30030W        W72943   4.107  21.510  19.341  0.0431 -0.1995  0.1234
30031W        W72944   6.338  26.467  22.378  0.1060 -0.0700 -0.1859
30032W        W72945  26.500  29.791  25.878 -0.0325  0.2905 -0.2450
30033W        W72946   9.531  10.055  26.444 -0.1088  0.0073 -0.0878
30034W        W72947   9.842  20.828  15.247 -0.0116 -0.2380  0.0514
30035W        W72948   4.938  27.222  17.714 -0.0441  0.1998 -0.0345
30036W        W72949   1.271  29.133  17.203 -0.4141 -0.2071  0.1173
30037W        W72950  15.078  25.220  17.903  0.1910  0.1764 -0.2990
30038W        W72951   5.056  31.476  19.040  0.1309 -0.0597  0.1885
30039W        W72952   5.808  26.512  16.234 -0.0037 -0.0345  0.1867
30040W        W72953  34.358  31.317  27.412 -0.2510  0.0107  0.1619
30041W        W72954   4.145  22.930  22.825 -0.1679 -0.1764  0.0592
30042W        W72955   8.838  23.818  14.655 -0.2337  0.0364  0.1688
30043W        W72956   4.625  25.365  16.330  0.0824 -0.2517 -0.2113
30044W        W72957  25.848  19.618  23.720 -0.0953  0.0433  0.0482
30045W        W72958   6.417  34.013  20.685  0.0477 -0.1180  0.2020
30046W        W72959  28.396  25.910  16.357  0.0287 -0.1296  0.0571
30047W        W72960   5.687  20.849  13.766  0.2334 -0.0335 -0.0215
30048W        W72961   0.958  19.574  23.435  0.1402 -0.0162 -0.4771
30049W        W72962   5.642  30.837  18.746 -0.0883  0.1473  0.3467
30050W        W72963   9.023  24.595  17.855  0.1180 -0.2500 -0.0160
30051W        W72964   4.134  23.082  16.711  0.1736 -0.2215  0.1576
30052W        W72965  10.701  23.308  14.596 -0.2212  0.2720 -0.0906
30053W        W72966   4.991  24.701  19.065 -0.1351 -0.0566 -0.2632
30054W        W72967  33.500  15.008  28.594  0.0114  0.0441 -0.1022
30055W        W72968   1.883  14.911  16.390 -0.2002  0.2102 -0.0453
30056W        W72969   7.287  15.972  18.414 -0.0268  0.0021 -0.1125
30057W        W72970   3.358  25.011  15.386 -0.2305 -0.0779 -0.4146
30058W        W72971  34.100  20.297  15.979  0.0007  0.2246 -0.1393
30059W        W72972  33.255   4.391  17.354  0.0082 -0.2398  0.3980
30060W        W72973   0.450  20.653  27.395  0.2603 -0.1906 -0.0802
30061W        W72974  26.448  22.838  28.840  0.0475 -0.0059  0.3120
30062W        W72975   4.914  23.729  18.029  0.2033  0.0133  0.0040
30063W        W72976  31.498  29.701  14.556 -0.2534 -0.0279 -0.3855
30064W        W72977  30.977  29.304  18.298 -0.3024  0.0912 -0.0818
30065W        W72978   2.916  33.793  20.082 -0.1380 -0.0475 -0.1820
30066W        W72979  26.879  12.167  22.513  0.1029  0.4193 -0.4651
30067W        W72980   9.399  28.743  16.086  0.0399  0.0338 -0.0790
30068W        W72981   9.345  14.595  14.741  0.2329 -0.1432  0.0430
30069W        W72982   0.258  20.145  17.979  0.1138  0.0898  0.0527
30070W        W72983  17.052  28.932  17.157 -0.1710 -0.0759 -0.1087
30071W        W72984  33.396  18.513  27.620 -0.0237  0.0708 -0.1541
30072W        W72985   8.128  27.660  15.203 -0.1157 -0.2978 -0.2359
30073W        W72986  11.358  29.097  17.457  0.2232  0.1233  0.1659
30074W        W72987  29.575  19.688  24.456 -0.1267 -0.0257  0.1468
30075W        W72988   3.171  29.947  23.010 -0.1063 -0.1742  0.0835
30076W        W72989  32.516  20.303   0.461 -0.1386  0.2145 -0.2859
30077W        W72990  12.578  20.195  19.916 -0.0202  0.3659  0.0333
30078W        W72991   5.419  23.147  18.523  0.0598  0.1271  0.1017
30079W        W72992  31.329  21.567  15.362  0.2592  0.2261  0.3171
30080W        W72993  14.742   4.916  22.092  0.1587 -0.0652  0.1493
30081W        W72994   1.852  12.270  14.986  0.0530  0.1317 -0.0376
30082W        W72995  11.183  24.132  15.758 -0.1622 -0.0318  0.1703
30083W        W72996  12.562  32.018  27.153  0.1079 -0.3942  0.3494
30084W        W72997   8.526  18.958  17.447  0.1867 -0.0361 -0.2518
30085W        W72998   7.702  24.977  22.397  0.0780  0.2132 -0.0253
30086W        W72999   5.527  19.999  25.562  0.2385  0.2638 -0.0754
30087W        W73000  16.286  30.286  22.876  0.1837 -0.1405  0.0921
30088W        W73001  33.238  28.556  14.096  0.1318 -0.4277  0.0494
30089W        W73002   3.719  24.526  22.571 -0.0905 -0.1909 -0.0532
30090W        W73003   8.755  23.753  16.231  0.0429  0.0942  0.3302
30091W        W73004  19.157  20.451  15.258 -0.0194 -0.3261  0.0579
30092W        W73005   3.505  30.827  23.142  0.0446 -0.1293 -0.2698
30093W        W73006   9.196  14.620  13.629 -0.1821  0.2098 -0.2187
30094W        W73007  11.976  29.445  18.085 -0.0282  0.0324  0.1977
30095W        W73008   7.379  13.568  21.393  0.1237  0.0177  0.2110
30096W        W73009  26.073  26.333  19.489 -0.0528 -0.2197 -0.0453
30097W        W73010  11.345  15.505  21.185  0.0626 -0.1438 -0.2358
30098W        W73011  10.556  13.911  18.950 -0.1877 -0.0331 -0.2405
30099W        W73012   0.843  14.426  19.448 -0.1367 -0.0521  0.1651
30100W        W73013   9.391  25.960  16.838  0.2129  0.2047  0.4432
30101W        W73014   4.436  24.326  22.297  0.0251  0.1628  0.1642
30102W        W73015   5.842  22.653  18.779 -0.0529  0.3750 -0.1825
30103W        W73016   9.828  29.730  17.108  0.0026 -0.0006  0.0707
30104W        W73017  11.738  26.697  23.550 -0.0573  0.1358 -0.0454
30105W        W73018  14.894  22.221  22.048  0.2614 -0.2881 -0.2492
30106W        W73019   2.979  33.543  28.712  0.0408 -0.1302 -0.0680
30107W        W73020   1.878  32.547  18.410  0.1069 -0.1707  0.1927
30108W        W73021  11.367  31.775  19.815 -0.1199  0.3725  0.1915
30109W        W73022  19.214  32.699  22.629  0.3626 -0.0968  0.0078
30110W        W73023   2.605  18.615  13.877  0.0504  0.0895 -0.2125
30111W        W73024   8.489  11.947  21.586 -0.2427  0.0978  0.4635
30112W        W73025   1.983  24.976  23.583 -0.2062  0.1639 -0.0644
30113W        W73026   2.540  13.519  15.426 -0.0984  0.0444  0.0356
30114W        W73027  23.759   0.243  24.115  0.2112  0.0308  0.2935
30115W        W73028   0.313  18.109  17.272  0.0415  0.1096 -0.2181
30116W        W73029   2.910   4.127  23.624 -0.0677  0.0780 -0.1947
30117W        W73030   2.628  25.211  15.843 -0.2176 -0.2073 -0.2203
30118W        W73031   3.895  22.703  19.130  0.3920  0.1272 -0.0756
30119W        W73032   2.280  16.035  21.782  0.0819 -0.0236  0.4153
30120W        W73033   6.426  16.305  14.132 -0.1748  0.2019  0.1699
30121W        W73034  28.200  16.816  15.611 -0.0795 -0.0313 -0.2276
30122W        W73035   2.121  16.440  13.983  0.4076  0.1937 -0.3011
30123W        W73036  19.409  27.093  20.301 -0.1800  0.0352  0.2705
30124W        W73037   0.608  18.694  18.837  0.1236 -0.2204 -0.0222
30125W        W73038   2.524  23.541  16.761  0.5001  0.0114 -0.1594
30126W        W73039  15.385  30.673  15.995  0.1410  0.0598  0.0960
30127W        W73040   6.077  20.890  13.416 -0.1554 -0.1175  0.0975
30128W        W73041  31.988  23.962  22.470 -0.0082  0.2917 -0.0942
30129W        W73042   2.704  33.834  15.621  0.0087  0.2253 -0.1446
30130W        W73043  19.768  24.613  17.610  0.0307 -0.2443  0.0844
30131W        W73044   3.411  27.392  19.738  0.0664 -0.4135  0.0004
30132W        W73045   9.143  22.323  19.229 -0.4306  0.1907  0.1237
30133W        W73046  31.650   1.377  18.909  0.0833  0.1912  0.0028
30134W        W73047   3.735  21.783  20.004  0.1459 -0.1530 -0.2749
30135W        W73048  29.021  30.661   0.439  0.1850 -0.0640  0.0528
30136W        W73049   3.366  22.827  28.932 -0.2843  0.3471  0.1929
30137W        W73050   4.173  25.952  19.815  0.1767  0.4194  0.0706
30138W        W73051  19.485  22.917  14.974  0.1418  0.1247 -0.0210
30139W        W73052   6.110  24.303  13.996  0.1545  0.0367  0.1749
30140W        W73053   0.673  30.843  14.531 -0.0796  0.1452 -0.1001
30141W        W73054  24.723  25.834   0.785 -0.0449  0.0281 -0.3400
30142W        W73055   7.568  21.306  23.658  0.1958 -0.1543  0.4897
30143W        W73056   3.502  22.152  24.828  0.3022  0.1330 -0.1805
30144W        W73057   0.087  19.472  14.885  0.0694  0.3450  0.1287
30145W        W73058   4.018  24.638  16.889  0.1861 -0.1176  0.1667
30146W        W73059   2.397  22.038  15.735  0.0692 -0.1986  0.1329
30147W        W73060   6.592  22.482  14.905 -0.1772 -0.0922 -0.3938
30148W        W73061  12.027  21.005  15.471 -0.0010  0.0865  0.1374
30149W        W73062  24.547  15.701  21.913  0.0261 -0.2099 -0.3193
30150W        W73063   0.673  24.920  19.786 -0.0838 -0.1653  0.1538
30151W        W73064   7.915  20.622  16.607  0.0298  0.0305 -0.2231
30152W        W73065  31.586  25.212  27.753 -0.1368 -0.0026  0.1440
30153W        W73066   1.939  26.925  24.735  0.1554  0.2143 -0.1634
30154W        W73067   3.142  24.501  19.516  0.2539 -0.6314  0.1756
30155W        W73068   6.678  25.071  19.289 -0.0269  0.3305 -0.2941
30156W        W73069   5.959  20.030  13.427 -0.2519  0.1442  0.1457
30157W        W73070   2.251  18.512  14.834 -0.2734  0.2089 -0.2013
30158W        W73071   7.873  22.145  15.052  0.2081  0.0414  0.1010
30159W        W73072   3.091  28.825  18.521  0.1049  0.4309  0.0126
30160W        W73073  17.072  23.705  15.515 -0.1588 -0.0662  0.0541
30161W        W73074   5.167  14.278  17.200  0.0415  0.0498  0.0493
30162W        W73075   2.647  20.246  24.960  0.0367 -0.1090 -0.0214
30163W        W73076   8.571  16.681  15.708  0.0609 -0.1390 -0.1508
30164W        W73077  12.718  21.732  17.985 -0.2234  0.0304  0.3359
30165W        W73078   6.932  22.200  17.880  0.0227 -0.1556  0.0879
30166W        W73079   3.029  19.224  18.673  0.0674 -0.1410 -0.2849
30167W        W73080   6.497  24.770  20.177 -0.0309  0.0734 -0.2943
30168W        W73081   7.780  15.541  14.553  0.1813 -0.1444 -0.0340
30169W        W73082   1.383  25.425  18.665  0.0248 -0.1085 -0.1194
30170W        W73083  33.206  25.194  14.109  0.2264 -0.4543  0.1483
30171W        W73084  19.881  14.948  21.117 -0.1842 -0.2892  0.0658
30172W        W73085  31.284  24.604  26.639 -0.1218 -0.0586 -0.0993
30173W        W73086  11.390  23.362  13.615 -0.1596 -0.0358 -0.2264
30174W        W73087   3.328  23.217  16.432  0.1976 -0.0984  0.2185
30175W        W73088   4.982  19.121  17.100  0.0949 -0.1097 -0.0929
30176W        W73089   5.521  20.141  23.807 -0.1271 -0.3743  0.0765
30177W        W73090  32.205  32.627  15.047 -0.0723 -0.0382  0.2750
30178W        W73091  33.249  31.125  20.694 -0.1448  0.3875 -0.3325
30179W        W73092  14.360  24.859  18.895 -0.0222  0.2635 -0.2491
30180W        W73093   4.501  30.622  19.739  0.1375 -0.0979  0.4373
30181W        W73094   9.076  28.423  15.800  0.1153  0.0001  0.1101
30182W        W73095  11.909  27.313  20.237 -0.1691 -0.3190 -0.0678
30183W        W73096   9.473  18.315   0.510 -0.2070 -0.0123  0.2639
30184W        W73097   8.648  22.899  19.120 -0.4105  0.2673  0.0254
30185W        W73098   2.405  21.503  15.812  0.2111  0.0467  0.0265
30186W        W73099  32.609  24.756  24.835 -0.1348  0.1964 -0.3371
30187W        W73100  11.423  24.773  17.292 -0.3146  0.0900 -0.2117
30188W        W73101   7.618  20.660  23.344  0.2307 -0.0205  0.2118
30189W        W73102  34.259  20.481  23.895 -0.2623 -0.0105  0.2605
30190W        W73103   1.059  27.027  28.693  0.2024  0.0822 -0.2101
30191W        W73104   3.369  26.376  15.561 -0.2885  0.2539 -0.0608
30192W        W73105  10.853  18.629  22.212  0.1626  0.0881 -0.0945
30193W        W73106  16.808  25.370  16.172  0.0345  0.0355  0.2122
30194W        W73107   8.359  25.604  15.871 -0.1152 -0.0767 -0.0626
30195W        W73108   5.053  18.420  17.153 -0.3313 -0.1767  0.0514
30196W        W73109  13.010  25.148  21.134  0.0415  0.1364 -0.0459
30197W        W73110  31.482  15.035  20.547 -0.2523 -0.1858  0.3674
30198W        W73111  32.223  34.000  25.087  0.0029  0.1858 -0.0395
30199W        W73112  22.538  26.007  16.506  0.0076  0.1525  0.1002
30200W        W73113   6.835  21.730  15.476 -0.0394  0.0239 -0.1522
30201W        W73114  31.891  17.047  22.718  0.2291  0.1625 -0.1407
30202W        W73115   7.140  14.422  19.547 -0.1709  0.1886 -0.1024
30203W        W73116   6.010  22.962  21.044  0.0818  0.0984  0.0980
30204W        W73117  16.362  30.298  25.458 -0.4082  0.0159 -0.3535
30205W        W73118  33.892  16.574  16.047  0.0871 -0.2058 -0.0923
30206W        W73119  11.752  26.202  18.576 -0.3721 -0.0685 -0.1508
30207W        W73120   4.569  26.862  15.954 -0.1226  0.0762 -0.5080
30208W        W73121   1.803  21.866  16.548 -0.0176 -0.1270 -0.1383
30209W        W73122   3.918  32.743  15.278  0.1477  0.0099 -0.1556
30210W        W73123   3.347  28.763  15.557 -0.1300  0.0917 -0.1401
30211W        W73124  13.503  25.674  15.768 -0.2914  0.1673  0.0802
30212W        W73125  12.925  24.422  13.648 -0.1239  0.1708 -0.0191
30213W        W73126   7.214  24.818  17.433  0.0606 -0.0098 -0.1831
30214W        W73127  34.135  26.739  26.007  0.3292 -0.1672 -0.0727
30215W        W73128   2.137  29.739  14.832  0.1430 -0.1683  0.0099
30216W        W73129   8.147  25.603  17.896 -0.0870 -0.1734  0.1227
30217W        W73130   1.901  21.402  21.907 -0.2922 -0.0346  0.1243
30218W        W73131   8.826  27.211  19.210  0.2416 -0.4369  0.0555
30219W        W73132   7.192  27.701  17.980 -0.1901  0.1380  0.1286
30220W        W73133  13.721   8.769  22.638  0.1192  0.0411  0.1273
30221W        W73134   2.475  16.972  15.710 -0.0781 -0.2691  0.0286
30222W        W73135   5.206  27.863  17.099  0.3098  0.0327  0.3191
30223W        W73136   6.340  24.942  18.497  0.0572  0.3206  0.1230
30224W        W73137   2.468  29.719  20.829  0.2047  0.1401 -0.2220
30225W        W73138  33.393  15.968  18.641 -0.1900  0.1182 -0.0632
30226W        W73139   5.717  23.923  16.538 -0.1693 -0.2658 -0.0995
30227W        W73140  12.207  10.437  26.628  0.0468  0.1725  0.5160
30228W        W73141  34.304  29.694  15.024 -0.2729  0.1086  0.2644
30229W        W73142  12.892  17.093  14.855 -0.0299 -0.3921  0.0496
30230W        W73143   1.470  18.055  19.756 -0.0119  0.0528  0.1405
30231W        W73144  27.801  32.693  10.157 -0.2882 -0.0309 -0.1479
30232W        W73145  11.201  20.289  23.591 -0.0005  0.3135  0.1935
30233W        W73146   4.430  20.672  17.138 -0.1889  0.0620 -0.0951
30234W        W73147   9.518  27.015  24.338  0.0904  0.1990 -0.2595
30235W        W73148   8.468  18.947  15.992  0.2343 -0.0087  0.0957
30236W        W73149   6.957  19.984  21.729 -0.1092 -0.2112  0.1758
30237W        W73150  18.696  27.349  17.966  0.2310 -0.2500 -0.0954
30238W        W73151  10.493  15.358  16.405 -0.1453  0.1900 -0.0496
30239W        W73152   3.689  30.343  20.043 -0.2338 -0.1110  0.1383
30240W        W73153   5.790  14.490  22.490  0.3010 -0.2510 -0.0404
30241W        W73154   1.312  19.289  20.554  0.0026 -0.0143  0.1359
30242W        W73155  20.168  12.986  14.050  0.1639 -0.1851  0.2642
30243W        W73156   0.744  33.226  14.997 -0.2744  0.3095  0.0523
30244W        W73157   0.609  18.610  17.096 -0.0520  0.0484  0.0862
30245W        W73158   0.549  20.711  25.067 -0.1223 -0.0905 -0.0591
30246W        W73159  33.718   7.093  21.137  0.0220 -0.0319  0.1042
30247W        W73160  11.531  33.335  24.909 -0.1207 -0.1711 -0.2666
30248W        W73161   1.484  22.227  28.743  0.0153 -0.0710 -0.1685
30249W        W73162   8.393  29.850  27.380 -0.2312 -0.1940  0.2572
30250W        W73163   8.586  24.265  15.555  0.0536  0.1877  0.0726
30251W        W73164   2.842  23.479  17.940  0.1647  0.3963  0.1931
30252W        W73165   7.776  29.072  16.888 -0.2871 -0.1072 -0.0050
30253W        W73166   5.404  10.929  22.372 -0.2336 -0.0254 -0.3468
30254W        W73167  23.770  18.892  16.773  0.0966  0.0882 -0.1496
30255W        W73168   8.329  30.299  20.073  0.1257  0.0989 -0.0301
30256W        W73169   7.309  16.582  15.444 -0.2179  0.2670 -0.1710
30257W        W73170  34.359  28.887  29.241  0.1022 -0.3046  0.0087
30258W        W73171   2.004  12.613  18.287 -0.1111 -0.2310 -0.4178
30259W        W73172   0.019  23.154  24.123 -0.1280 -0.0376  0.0190
30260W        W73173  32.575  21.770  14.369  0.1304 -0.1498 -0.3600
30261W        W73174   2.469  32.458  19.321 -0.1055  0.0617  0.3402
30262W        W73175   9.334  30.869  18.026  0.1231  0.0085 -0.0054
30263W        W73176   0.131  27.699  16.888  0.0593 -0.1840 -0.0421
30264W        W73177   7.716  26.298  21.869 -0.0306  0.1619 -0.1494
30265W        W73178   2.994  23.319  29.632  0.1769 -0.2435 -0.2947
30266W        W73179  21.158  23.640  18.374  0.1468 -0.0276  0.2521
30267W        W73180  31.945  18.594  25.800  0.1850  0.4558 -0.1525
30268W        W73181   0.928  16.743  16.506 -0.0628  0.2283  0.0262
30269W        W73182   0.864  16.043  17.439  0.2923 -0.0520 -0.0734
30270W        W73183   9.191  18.341  17.201  0.0862 -0.1662 -0.0016
30271W        W73184   7.871  13.160  19.811  0.0490  0.0162  0.1968
30272W        W73185   3.769  28.826  20.139 -0.3370  0.0760 -0.2585
30273W        W73186   6.076  24.987  14.659 -0.0641 -0.1930 -0.1258
30274W        W73187   7.357  26.626  17.191  0.0925 -0.0238  0.5417
30275W        W73188  25.120  32.425  27.927 -0.1655  0.2751  0.1464
30276W        W73189  29.912  27.853   4.954 -0.0806 -0.1934 -0.2038
30277W        W73190   3.984  20.926  13.927 -0.0135  0.0712  0.1489
30278W        W73191  29.878  28.530  23.172 -0.0339 -0.2576  0.2271
30279W        W73192  33.692  30.178  14.961 -0.0156 -0.1273 -0.3810
30280W        W73193  31.701  17.957  23.346  0.0214 -0.0362 -0.3920
30281W        W73194  12.830  20.770  14.365  0.0132  0.1477  0.2679
30282W        W73195  32.116  13.272  22.071 -0.0385 -0.0515 -0.0202
30283W        W73196   2.281  20.598  22.034 -0.0474  0.1531  0.4043
30284W        W73197  10.953  26.488  15.107 -0.0092  0.2054 -0.0413
30285W        W73198   6.866  19.200  18.401 -0.1026  0.0432 -0.1256
30286W        W73199   2.099  26.472  29.701  0.2184 -0.5749 -0.1663
30287W        W73200   3.374  29.503  24.696  0.1393  0.2615 -0.0217
30288W        W73201   9.701  28.898  15.667  0.0948  0.0350  0.0612
30289W        W73202  16.286  23.403  15.855 -0.1217  0.0075 -0.1972
30290W        W73203  32.773  34.177  27.353 -0.1806 -0.0754 -0.1946
30291W        W73204  10.436  28.027  16.145 -0.0060  0.0317  0.0830
30292W        W73205  13.340  21.961  25.191  0.0552  0.2484 -0.3308
30293W        W73206  29.594  16.558  26.588  0.0130  0.2594  0.2639
30294W        W73207   0.631  28.225  27.618  0.1751 -0.1965 -0.0559
30295W        W73208   8.469  25.070  28.864 -0.2751  0.1652 -0.1824
30296W        W73209  31.717  14.493  18.873 -0.0217  0.1741 -0.2747
30297W        W73210  14.691   2.516  24.761 -0.1209 -0.0155 -0.2133
30298W        W73211  16.846  27.672  16.330  0.1744 -0.4539  0.0395
30299W        W73212   1.024  23.761  19.230  0.1941  0.2958  0.1527
30300W        W73213   4.758  10.449  23.400  0.0155  0.1389  0.0999
30301W        W73214  13.227  23.117  26.823  0.0805  0.0866 -0.2556
30302W        W73215   4.592  31.333  17.553  0.0919 -0.0400  0.0782
30303W        W73216   9.585   2.722  24.475  0.0918  0.1846 -0.1082
30304W        W73217  25.003  28.493  22.909  0.1276  0.1395  0.2479
30305W        W73218   4.741  14.058  18.036  0.2254  0.1022  0.1374
30306W        W73219  14.393  24.153  21.837  0.1139 -0.1274  0.2224
30307W        W73220   5.429  22.883  17.970  0.0896 -0.2298 -0.0274
30308W        W73221  13.051  14.514  27.170 -0.1180  0.0768 -0.1156
30309W        W73222  13.000  25.223  19.063  0.2388  0.2210 -0.1521
30310W        W73223  19.816   1.581  21.596  0.1366  0.2353  0.0672
30311W        W73224  33.256  21.176   2.901  0.0588 -0.0447 -0.0277
30312W        W73225   5.860  26.898  20.442 -0.0784 -0.2674  0.1364
30313W        W73226   2.804  30.864  14.647  0.0129 -0.1569  0.2706
30314W        W73227  32.764  27.598  20.452 -0.0257  0.2739 -0.1259
30315W        W73228   3.823  25.373  24.965  0.0441 -0.1781  0.0999
30316W        W73229   6.614  24.320  23.014  0.2444  0.0319  0.0067
30317W        W73230   3.755  26.185  17.750 -0.0057  0.4265  0.2528
30318W        W73231   5.346  13.199  16.137  0.1327 -0.2942 -0.0867
30319W        W73232  29.815  24.757  26.592 -0.2826  0.2787 -0.3468
30320W        W73233  32.975  28.113  15.969  0.1598 -0.0248 -0.0902
30321W        W73234  15.649  22.395  23.467  0.1836 -0.2104 -0.1978
30322W        W73235  33.064  26.066  23.607  0.0716 -0.0522 -0.2627
30323W        W73236  11.626  23.577  26.307 -0.0465 -0.1625 -0.3692
30324W        W73237   3.554  26.492  15.063  0.0420  0.3216 -0.3412
30325W        W73238   0.881  23.579  18.074  0.0693 -0.0759  0.2210
30326W        W73239  11.251  31.918  23.997 -0.2970  0.1706 -0.1723
30327W        W73240  34.178  22.208  16.228  0.0621 -0.4514  0.2305
30328W        W73241   0.687  27.102  16.906  0.1011 -0.0504  0.0109
30329W        W73242  15.373  13.476  19.244 -0.0437  0.0703 -0.1345
30330W        W73243   2.218   9.839  20.658 -0.0306  0.1812 -0.2931
30331W        W73244   0.173  33.768  23.886 -0.2169 -0.2773  0.0708
30332W        W73245   4.563  32.563  20.678  0.1018 -0.3488 -0.0410
30333W        W73246   6.856  15.878  17.393 -0.1363 -0.3674 -0.0106
30334W        W73247  11.755  31.560  27.338  0.0631  0.1273  0.4358
30335W        W73248   4.047  25.954  23.053  0.0010 -0.1588  0.1654
30336W        W73249   2.026  29.251  14.834 -0.0483  0.2448 -0.4989
30337W        W73250   2.324  18.131  15.232  0.0269  0.0056  0.1657
30338W        W73251  22.241  25.649  19.436 -0.4700  0.1728  0.1099
30339W        W73252  19.112  21.864  12.854 -0.4565  0.3076 -0.1126
30340W        W73253   5.081  34.408  25.204 -0.1150  0.0401  0.2221
30341W        W73254   1.162  25.402  27.109  0.1036  0.1136  0.1866
30342W        W73255   8.447  17.659  16.427  0.3387  0.1598  0.3999
30343W        W73256   2.143  28.166  19.759  0.2013  0.2094 -0.0345
30344W        W73257   1.924  28.136  18.846  0.1451  0.0246 -0.1301
30345W        W73258  31.498  10.543  14.880 -0.0986  0.2416 -0.1455
30346W        W73259   8.518  17.673  20.944  0.3799 -0.0547 -0.1397
30347W        W73260  12.059   0.579  21.548 -0.0423  0.0134 -0.0330
30348W        W73261   5.567  19.588  23.581  0.1871  0.0480 -0.0416
30349W        W73262   4.957  19.947  23.368  0.1215 -0.0993  0.0621
30350W        W73263   4.408  10.602  24.617  0.0938 -0.1639 -0.1508
30351W        W73264  24.579   2.547  18.587 -0.1739  0.0820  0.0278
30352W        W73265   8.123  22.005  15.486  0.0685  0.1072 -0.2292
30353W        W73266   0.749  27.254  23.516 -0.0946  0.0877  0.0266
30354W        W73267  30.636  15.568  15.372 -0.3193 -0.0777 -0.1628
30355W        W73268   0.606  33.146  16.898 -0.1658  0.0048 -0.1046
30356W        W73269  32.886  20.950  21.057 -0.2384  0.2351 -0.1789
30357W        W73270  29.093  17.720  20.576  0.0384 -0.0362 -0.0200
30358W        W73271  11.520  15.404  24.979  0.2566  0.0278 -0.0396
30359W        W73272   3.318  18.241  14.202 -0.1267 -0.0533  0.4288
30360W        W73273   1.461  23.225  22.605 -0.0604 -0.0908  0.1707
30361W        W73274   1.591  14.937  20.329  0.0471  0.0033 -0.0854
30362W        W73275  13.934  24.404  22.710  0.0007 -0.1510  0.0190
30363W        W73276  33.632  26.273  24.507  0.1703 -0.0087 -0.0227
30364W        W73277   3.114  26.356  19.621  0.2143  0.1287  0.0646
30365W        W73278   9.062  22.610  26.661 -0.4686 -0.0452 -0.0418
30366W        W73279   9.529  18.213  18.314 -0.3088 -0.1227 -0.0206
30367W        W73280   8.225  26.117  17.948  0.1952 -0.0797 -0.1866
30368W        W73281   1.380  24.788  19.472  0.2187  0.0924  0.1778
30369W        W73282  15.263  29.031  18.410 -0.2653  0.2029  0.1880
30370W        W73283  14.968   7.170  27.463  0.1736  0.0371 -0.0040
30371W        W73284   3.918  20.802  18.002 -0.1264 -0.0021 -0.0137
30372W        W73285  30.234  27.896  26.181  0.0742 -0.2992 -0.0835
30373W        W73286   2.788  15.166  19.106  0.1202 -0.1618  0.1828
30374W        W73287   7.910  14.808  28.007  0.2500 -0.0569 -0.2710
30375W        W73288  32.795  22.808  18.227 -0.0497 -0.1572 -0.0765
30376W        W73289  14.168  31.044  19.738 -0.3636 -0.0274  0.0868
30377W        W73290   9.249  28.538  25.980  0.2420  0.4119 -0.1339
30378W        W73291  11.236  25.753  17.228  0.0104 -0.2494 -0.0565
30379W        W73292  19.217  23.658  17.037 -0.0842  0.0498 -0.0255
30380W        W73293  13.851  27.602  22.327 -0.1281 -0.1579  0.1656
30381W        W73294   4.277  16.897  14.721  0.2107 -0.2025 -0.3065
30382W        W73295   9.106  17.801  13.792  0.3610  0.3488 -0.1405
30383W        W73296  10.761   4.853  18.173  0.0640  0.1746  0.3325
30384W        W73297  10.315  16.510  20.919 -0.0834 -0.0492  0.0755
30385W        W73298   5.063  18.415  20.169  0.1289  0.0397 -0.0050
30386W        W73299   4.585  19.445  14.439 -0.1828 -0.3156  0.2074
30387W        W73300  11.913  29.180  18.655  0.1104 -0.2495 -0.2209
30388W        W73301  12.180  19.411  13.823 -0.1259  0.0377 -0.1650
30389W        W73302   1.041  21.615  14.568 -0.0152  0.1232  0.1021
30390W        W73303   8.101  12.388  23.401  0.3558 -0.0427  0.2770
30391W        W73304   7.439  28.640  22.266  0.0490 -0.0220 -0.0030
30392W        W73305   3.143  29.931  18.368  0.2898  0.2771  0.0281
30393W        W73306  17.963  18.612  11.448  0.2228  0.1453  0.0081
30394W        W73307  11.553  20.426  13.405  0.1306  0.3211 -0.1105
30395W        W73308  34.056  23.067  14.063 -0.0835  0.0829 -0.0282
30396W        W73309  30.957  18.687  15.017 -0.1173 -0.0995 -0.1678
30397W        W73310  10.318  22.029  22.643 -0.2085  0.0416  0.0301
30398W        W73311  30.797   1.681  17.842  0.1587  0.3014 -0.3636
30399W        W73312   4.664  27.616  15.292 -0.1035  0.0800 -0.0072
30400W        W73313   5.364  13.306  23.436  0.0079  0.1190 -0.5283
30401W        W73314  26.507  34.495  24.531  0.1612  0.1297 -0.1663
30402W        W73315   2.272  27.169  24.487  0.0033 -0.0202  0.2845
30403W        W73316   0.088  28.861   1.824  0.1167 -0.1464  0.1521
30404W        W73317   6.636   9.465  21.681  0.2341 -0.0452 -0.1050
30405W        W73318  12.948  27.217  23.886 -0.0143  0.0202  0.2925
30406W        W73319  29.319  24.033  22.705  0.0067 -0.1634  0.0267
30407W        W73320  19.708  13.832  12.613 -0.0051  0.2222  0.0566
30408W        W73321   5.524  25.418  23.198  0.1587  0.2068  0.1792
30409W        W73322   2.431  19.876  18.040  0.1195 -0.2257 -0.0336
30410W        W73323   4.028  11.524  27.367 -0.0711  0.0576 -0.0816
30411W        W73324   1.679  25.988  20.696 -0.1517 -0.0523  0.0617
30412W        W73325  15.089  19.188  22.157 -0.1626 -0.0120  0.1080
30413W        W73326  34.473  23.563  16.890 -0.1037  0.0022  0.1932
30414W        W73327   6.415  20.597  16.388  0.1302  0.3909 -0.0820
30415W        W73328   0.789  15.697  16.583 -0.0051  0.1977  0.0800
30416W        W73329  33.287  19.076  23.433  0.2920 -0.1474  0.0779
30417W        W73330  13.652  20.875   2.219  0.1055  0.1896 -0.0478
30418W        W73331  20.704  29.729  21.294 -0.0130  0.0687 -0.0841
30419W        W73332  19.342  28.749  25.847  0.3202  0.0751  0.0904
30420W        W73333   2.916  13.657  28.226  0.3214 -0.1396  0.2385
30421W        W73334   7.207  29.499  18.876 -0.0198  0.1691 -0.1393
30422W        W73335   8.026  25.342  22.200  0.1954 -0.0270 -0.1131
30423W        W73336  17.890  26.493  15.105 -0.1248  0.2123  0.2127
30424W        W73337  33.342  18.084  24.815 -0.0233 -0.3114  0.2363
30425W        W73338   0.659  16.569  18.527 -0.1114 -0.0880  0.1004
30426W        W73339  13.854   7.569  17.925  0.3232 -0.3841 -0.4922
30427W        W73340   2.078  25.069  17.929  0.0273 -0.0981  0.2418
30428W        W73341   4.397  21.737  18.757 -0.1573 -0.0980 -0.0014
30429W        W73342  30.558  18.445  17.359 -0.2479 -0.0619 -0.0234
30430W        W73343  16.101  32.275  27.548  0.2327  0.3131 -0.2426
30431W        W73344  12.200  19.992  21.887 -0.1057  0.3379  0.2330
30432W        W73345   3.238  33.171  18.530 -0.0871  0.2173 -0.3465
30433W        W73346   6.710  26.637  14.576  0.0824 -0.0798  0.3370
30434W        W73347   8.303  26.876  16.721 -0.0393  0.1413  0.1201
30435W        W73348   8.451  24.680  20.284 -0.0530 -0.0423  0.0660
30436W        W73349   7.700   4.163  24.076 -0.3316  0.4138 -0.2197
30437W        W73350   8.029  23.542  25.687  0.2221  0.1884 -0.2721
30438W        W73351   6.989  23.922  17.524  0.0864  0.0248  0.0245
30439W        W73352  18.984   9.708  16.184  0.2330 -0.2148 -0.0528
30440W        W73353   2.353  16.776  20.123  0.3137 -0.2546 -0.1831
30441W        W73354  15.380  26.390  17.904 -0.1140  0.0796 -0.0107
30442W        W73355  20.318  17.044  14.817  0.0108 -0.1967  0.1427
30443W        W73356  18.038  33.685  15.712 -0.0768  0.1125 -0.3983
30444W        W73357  30.841  17.928  19.391 -0.2508 -0.0393  0.2308
30445W        W73358  28.917  31.266  23.058  0.3401 -0.0691  0.1424
30446W        W73359  17.705   5.757  20.878  0.1149  0.1269 -0.0372
30447W        W73360   2.925  18.272  19.503  0.1622 -0.1912  0.0485
30448W        W73361   1.367  24.801  15.270 -0.0306 -0.1450 -0.1587
30449W        W73362  14.098  15.687  23.835 -0.1506 -0.2524 -0.2135
30450W        W73363  30.483  19.028  17.508  0.1937  0.1118  0.0719
30451W        W73364   2.726  18.773  14.606 -0.0448  0.1021 -0.1479
30452W        W73365   4.689  26.411   1.548  0.2011  0.0575  0.1571
30453W        W73366   6.955  23.065  25.957  0.2946 -0.1016 -0.0202
30454W        W73367   5.746  26.381  16.716  0.1400  0.0529  0.1868
30455W        W73368   1.863  26.130  16.610  0.4185 -0.0226 -0.3489
30456W        W73369   8.764  12.612  24.023 -0.0130  0.1337 -0.1028
30457W        W73370  32.708  26.974  14.657  0.0702 -0.0681 -0.2711
30458W        W73371   5.736  21.369  19.662 -0.1257  0.2691 -0.0762
30459W        W73372   4.404  25.231  23.798  0.1635 -0.3509  0.5279
30460W        W73373  27.076  24.493  15.289 -0.0349 -0.0301 -0.2451
30461W        W73374  14.742  22.024  15.398 -0.0254  0.2005  0.3579
30462W        W73375  15.998  20.331  23.898  0.0373 -0.1923  0.1021
30463W        W73376  23.760  21.045  14.169 -0.1021  0.2548 -0.1298
30464W        W73377  32.052  26.501  16.883 -0.1224  0.0372  0.1567
30465W        W73378   2.846  32.493  22.907 -0.2674 -0.4323 -0.0771
30466W        W73379  11.900  12.829  15.326 -0.0197  0.3408 -0.1773
30467W        W73380   7.369  30.011  18.804  0.0931 -0.0344  0.0745
30468W        W73381  31.958  21.348  18.726  0.0345  0.0235 -0.1198
30469W        W73382  26.111  26.240   2.005 -0.0415 -0.3772 -0.1450
30470W        W73383   0.508  30.583  17.822  0.2508  0.1765  0.0620
30471W        W73384  30.531  15.749  21.143 -0.0418  0.0463 -0.0242
30472W        W73385  33.586  17.750  23.469 -0.2908  0.5770  0.0838
30473W        W73386   1.513  31.842  17.749 -0.0853  0.1244 -0.1718
30474W        W73387  30.837  29.691   2.237  0.0777  0.0857 -0.0122
30475W        W73388   2.529  21.441  24.399  0.1120  0.0815  0.2008
30476W        W73389   6.602  21.269  21.365  0.0007 -0.0743 -0.1636
30477W        W73390  31.923  26.136  19.078  0.4214 -0.2485  0.2347
30478W        W73391  32.258   9.212  18.121 -0.0959 -0.0332 -0.0622
30479W        W73392   6.013  19.048  19.965 -0.1105  0.1401  0.0093
30480W        W73393   1.767   0.588  27.210 -0.0193  0.1749 -0.1455
30481W        W73394  29.416  25.286  20.730 -0.1897 -0.0619  0.0475
30482W        W73395   3.367   7.331  23.889  0.3583 -0.2594 -0.0798
30483W        W73396   3.097  20.186  21.129  0.0712 -0.1560  0.0884
30484W        W73397  34.445  33.181  19.069  0.0691  0.0043 -0.1976
30485W        W73398  29.132  23.280   9.123 -0.1371 -0.1712  0.2199
30486W        W73399   1.322  20.018  19.583  0.1998  0.1770  0.2305
30487W        W73400   9.740  24.813   1.363  0.1221 -0.0502 -0.1035
30488W        W73401  13.796  23.080  14.275  0.2251  0.0213  0.1699
30489W        W73402  33.852  18.981  24.364 -0.4101  0.1049 -0.0794
30490W        W73403   3.985  15.105  17.009 -0.1137 -0.1327 -0.0897
30491W        W73404  19.873   8.738  19.664 -0.1159  0.0267 -0.0322
30492W        W73405   7.281  26.117  22.131  0.1130 -0.0130  0.0735
30493W        W73406  10.210   1.273  19.608 -0.1717  0.0727  0.1495
30494W        W73407   9.524  27.711  16.169  0.0219  0.1129  0.1232
30495W        W73408   8.598  21.521  26.588 -0.0751 -0.1737 -0.0422
30496W        W73409  10.011  18.157   4.256  0.0254 -0.1253 -0.0086
30497W        W73410  11.557  26.779  23.012 -0.4323 -0.0394 -0.1614
30498W        W73411   3.349  30.447  27.613  0.3220 -0.1159  0.0392
30499W        W73412  32.278  15.127  14.829 -0.0208  0.2157 -0.2189
30500W        W73413   7.849  26.020  17.011 -0.2139  0.2582 -0.3477
30501W        W73414  13.209  27.399  19.363  0.1566 -0.0360 -0.2450
30502W        W73415   1.722  21.197  18.246 -0.0953 -0.2827 -0.1305
30503W        W73416  30.511  24.493  20.724 -0.0250 -0.2053  0.1578
30504W        W73417  34.329   4.424  20.019  0.2041 -0.2956  0.1912
30505W        W73418  31.240   1.139  21.071  0.1061  0.0281 -0.1558
30506W        W73419  32.475  20.570  22.875  0.1907 -0.0382 -0.2112
30507W        W73420  32.141  23.808   5.297  0.0620  0.2224  0.0046
30508W        W73421   3.442  20.976  18.155  0.0111 -0.0665  0.1676
30509W        W73422   5.765  19.675  21.795  0.0765 -0.0715 -0.1931
30510W        W73423  11.745  33.521  23.849  0.1379  0.2124  0.0344
30511W        W73424  12.508  27.303  22.787  0.1042  0.1314  0.0606
30512W        W73425   0.003  17.165  17.505 -0.1552 -0.2249 -0.0407
30513W        W73426  12.077  24.993  18.326 -0.0600 -0.0034  0.1137
30514W        W73427   9.278  20.666  20.109 -0.2099 -0.2283 -0.4655
30515W        W73428   5.657   0.564  21.938 -0.1467 -0.2356 -0.1217
30516W        W73429  25.512  28.668  15.561  0.0212  0.1372 -0.1864
30517W        W73430  25.648  16.960  19.245  0.1409  0.1446  0.0890
30518W        W73431  33.702  25.847  25.521 -0.1314  0.1610 -0.1818
30519W        W73432  32.696  20.928  22.391  0.3704  0.0962  0.0439
30520W        W73433   1.995  27.998  23.366 -0.3356 -0.5695  0.0643
30521W        W73434  32.649  30.275  25.899  0.1356  0.0667 -0.2090
30522W        W73435   4.981  21.058  24.971 -0.2804 -0.1405  0.0190
30523W        W73436   6.372  24.570  25.858 -0.2895 -0.1980  0.3222
30524W        W73437   3.851  28.170  14.377  0.2228 -0.0680 -0.0763
30525W        W73438   5.153  32.173  20.737  0.3092  0.1098 -0.4370
30526W        W73439   2.399  24.012  16.580  0.1434 -0.1490 -0.0676
30527W        W73440   3.337  23.220  22.907  0.3083 -0.0940 -0.1887
30528W        W73441  29.683  23.635   3.706  0.2866 -0.2236 -0.1991
30529W        W73442   8.099  20.676   2.185 -0.0705 -0.1092 -0.1003
30530W        W73443  24.957  30.983  20.856  0.2007 -0.1707  0.1132
30531W        W73444   9.707  20.801  20.376  0.1585  0.2212 -0.0175
30532W        W73445   9.777  27.420  23.913 -0.3798  0.0974  0.0519
30533W        W73446  31.727  13.087  20.663 -0.3483 -0.2855  0.1545
30534W        W73447  24.938  20.192  20.005 -0.3091  0.1026 -0.0956
30535W        W73448   5.572  18.775   4.198  0.0575 -0.1685  0.0838
30536W        W73449   1.320  18.249  15.008 -0.2795 -0.2976  0.3241
30537W        W73450  30.320  22.624   4.869 -0.2683 -0.0927 -0.2283
30538W        W73451   1.206   0.196  21.118  0.2372  0.1309 -0.0358
30539W        W73452  34.169  13.946  13.437  0.0160  0.0612  0.2166
30540W        W73453  28.820  27.872  27.742  0.1029  0.2216 -0.2405
30541W        W73454   7.078  15.230  26.389 -0.0816 -0.1613 -0.2061
30542W        W73455   8.436  31.296  18.108  0.1126 -0.4174  0.2020
30543W        W73456   8.591  27.999  26.843  0.0645 -0.0449  0.3471
30544W        W73457  11.049  26.695  16.565  0.1082  0.2015 -0.1508
30545W        W73458   0.348  28.006  25.288  0.2338  0.2865  0.6197
30546W        W73459  17.671  27.442  15.989  0.1558  0.1409  0.0262
30547W        W73460   2.179   9.776  23.312 -0.0867  0.1421 -0.1863
30548W        W73461   1.847  23.711  22.015  0.3724 -0.0029  0.2667
30549W        W73462  10.591  18.009  19.144  0.0198  0.3680  0.1098
30550W        W73463   7.030  14.746  15.735 -0.0726  0.1940  0.2331
30551W        W73464  31.387  28.760  19.766  0.1498 -0.1149  0.1706
30552W        W73465  34.387  14.786  24.074  0.0617  0.3048 -0.0073
30553W        W73466  29.787  16.955  23.922 -0.0993 -0.2725  0.1178
30554W        W73467  16.975  34.287  25.830  0.0047  0.0466  0.0348
30555W        W73468   4.745  27.736  16.795 -0.0842  0.2378  0.0809
30556W        W73469  11.118  25.618  21.043 -0.2665  0.1218  0.2404
30557W        W73470  29.144  27.312  21.847  0.4495 -0.1348  0.3047
30558W        W73471  29.309  23.819  17.140 -0.2230 -0.0363  0.1202
30559W        W73472  15.976  22.877  16.584 -0.1194  0.2044  0.0246
30560W        W73473  14.876  27.213  18.138 -0.1027  0.1681  0.0965
30561W        W73474   6.794   2.308  20.076 -0.0872  0.4494  0.3153
30562W        W73475   4.215  20.447  23.281 -0.0994 -0.1116 -0.1864
30563W        W73476  11.054  30.797  28.236 -0.3080  0.1403  0.1129
30564W        W73477   5.112  18.955  26.175 -0.3027 -0.0094 -0.3669
30565W        W73478  27.338  26.224  29.701  0.0536 -0.2043 -0.0724
30566W        W73479  13.213  17.810  23.200  0.1452 -0.0217  0.0750
30567W        W73480  32.842  28.813  16.277 -0.2144  0.0432 -0.2145
30568W        W73481   7.549   0.626  19.990 -0.1081  0.3164 -0.1441
30569W        W73482  14.460  13.360  16.826 -0.0043  0.2860 -0.2899
30570W        W73483  33.069  17.316  26.347  0.1225 -0.1742 -0.2461
30571W        W73484  32.661  11.898  22.835  0.2968 -0.0723 -0.1797
30572W        W73485  16.840  22.710  23.558  0.1389  0.1359  0.2247
30573W        W73486  13.680  16.445  18.144  0.2183 -0.1052  0.0221
30574W        W73487  10.774  23.412   0.338  0.2310  0.2936 -0.0583
30575W        W73488   3.689  19.791  26.024 -0.0973  0.3481 -0.0176
30576W        W73489   0.482  17.287  21.875 -0.0742  0.3045  0.2743
30577W        W73490  23.522  17.192  17.911  0.0033 -0.3081 -0.0372
30578W        W73491  13.382  20.465  23.645  0.5022  0.2398  0.1867
30579W        W73492   8.417  11.070  14.962  0.1392 -0.0113  0.3314
30580W        W73493   4.687  16.455  20.749  0.0063  0.0364  0.0641
30581W        W73494   3.981  21.834  19.001 -0.1242  0.0017 -0.2431
30582W        W73495   4.643  21.717  16.090 -0.1334  0.4031  0.2300
30583W        W73496   3.863  16.084  20.746 -0.2197  0.0204 -0.0077
30584W        W73497   1.873  22.931  22.751 -0.2782  0.2429  0.0221
30585W        W73498   4.059   2.543  23.172  0.2117 -0.2956 -0.1592
30586W        W73499   4.459  30.926  17.774 -0.4640  0.1371 -0.4421
30587W        W73500   2.809  20.373  26.865  0.0887 -0.0117  0.0427
30588W        W73501   2.756  32.481  20.652  0.2541 -0.0982 -0.0210
30589W        W73502  28.699  13.451  22.065 -0.2998 -0.0825 -0.0327
30590W        W73503   3.657  18.228  17.006 -0.1197 -0.2307  0.0101
30591W        W73504  34.414  30.345  18.755  0.1241  0.5515  0.2436
30592W        W73505   2.481  12.542  23.203 -0.0054 -0.1580  0.2464
30593W        W73506   5.463  17.579  29.200 -0.0518 -0.1441 -0.0368
30594W        W73507  33.492  25.358  21.416 -0.0816  0.1254 -0.1808
30595W        W73508  18.462  22.969  19.375  0.1896  0.3570 -0.2165
30596W        W73509   1.805  20.886  23.132 -0.0927  0.1183  0.1621
30597W        W73510  32.534  23.197  14.264 -0.0553  0.3274  0.0224
30598W        W73511  34.410  17.709  19.455  0.3016 -0.0112  0.1187
30599W        W73512   2.410  23.695  26.305  0.0874  0.1367 -0.1721
30600W        W73513   1.348  29.556  23.840 -0.0358 -0.0537  0.2481
30601W        W73514   4.849  28.705  26.240  0.2649 -0.1980 -0.1216
30602W        W73515   8.884  20.876  23.010 -0.0328  0.0807  0.0176
30603W        W73516  33.915  31.486  18.064 -0.1254 -0.1269  0.0527
30604W        W73517   4.516  20.075   3.343  0.1816 -0.0800 -0.2373
30605W        W73518   7.398  17.307  20.367 -0.0612  0.2090 -0.4442
30606W        W73519   2.131  19.546  17.594 -0.0667  0.4317  0.1668
30607W        W73520   5.806  27.591  26.734 -0.0553 -0.2609 -0.1380
30608W        W73521  11.585  24.368  15.493  0.0895 -0.3708  0.0809
30609W        W73522   9.564  27.976  27.448 -0.0193 -0.0785  0.0896
30610W        W73523  11.017  27.383  23.961 -0.0643 -0.0333  0.2025
30611W        W73524   9.759  27.776  22.541  0.3968  0.0744 -0.2004
30612W        W73525   5.432  20.758  15.344 -0.0576  0.0947  0.2440
30613W        W73526   9.183  17.650  23.567  0.0626  0.5584 -0.0607
30614W        W73527   9.010  27.714  17.939 -0.1557  0.3424  0.0711
30615W        W73528  13.466  20.837  17.185 -0.1558 -0.3378 -0.2495
30616W        W73529   0.399  20.202  22.658  0.0399  0.4387  0.2324
30617W        W73530   6.189  16.191   1.653  0.0229 -0.0267  0.0038
30618W        W73531  20.671  27.917  19.853  0.1322  0.1845  0.3425
30619W        W73532  11.949  24.657  20.404 -0.3536 -0.1034 -0.1238
30620W        W73533  34.167  31.878  27.768  0.0480 -0.1656 -0.1000
30621W        W73534   1.370  19.813  14.027 -0.1461  0.0389 -0.0825
30622W        W73535   9.880   0.553  20.337  0.1513 -0.2163 -0.0245
30623W        W73536   8.871  17.719  15.149 -0.2625  0.2749 -0.1747
30624W        W73537  28.173  29.673  15.480 -0.1449 -0.2024 -0.2230
30625W        W73538  13.486  24.619  19.816 -0.0817 -0.0998 -0.4184
30626W        W73539   6.671  28.568  21.516 -0.1044 -0.0049 -0.2839
30627W        W73540   5.798  21.822  19.345 -0.1451 -0.1446 -0.1342
30628W        W73541  25.229  23.017  24.857  0.3338 -0.1228 -0.0243
30629W        W73542   3.739  16.420  21.998  0.2610  0.2795 -0.0891
30630W        W73543   0.078  28.594  20.837 -0.1505 -0.1375  0.2967
30631W        W73544   2.571  24.302  29.288 -0.0861 -0.0235  0.3289
30632W        W73545   9.254  14.092  15.916  0.1636 -0.2660 -0.0396
30633W        W73546   7.018  33.299  23.880 -0.2428 -0.2637 -0.1432
30634W        W73547  25.279  32.380  24.997  0.2574  0.1509  0.0390
30635W        W73548   6.923  23.482  15.759  0.1946 -0.0763 -0.1092
30636W        W73549   1.898  15.032  16.905 -0.1296 -0.1115 -0.1303
30637W        W73550   3.793  25.259  27.228 -0.2787  0.0241 -0.3277
30638W        W73551  10.356  11.753  19.789 -0.0978 -0.1747  0.0491
30639W        W73552   5.322  16.717   0.412  0.0474 -0.1250  0.2175
30640W        W73553   7.966  25.221  15.778  0.2205  0.1408  0.3208
30641W        W73554   8.683  21.832  22.170  0.0851  0.0855 -0.0725
30642W        W73555  34.033  25.552  18.110 -0.1058 -0.1654  0.0127
30643W        W73556   5.882  29.684  19.686  0.1768 -0.0478 -0.2511
30644W        W73557   6.268  20.789  25.341 -0.1746  0.1334  0.2180
30645W        W73558   6.692  13.773  21.894  0.5222 -0.0755 -0.0065
30646W        W73559  10.105  30.951  19.203  0.1665 -0.0788  0.3195
30647W        W73560  32.179  25.657  23.242  0.0446  0.2978  0.0070
30648W        W73561   8.203  21.779   0.778  0.3429  0.1623  0.1700
30649W        W73562  12.093  14.130  21.502  0.0951  0.0680  0.2079
30650W        W73563  21.930  13.280  18.848 -0.1551  0.0170 -0.1828
30651W        W73564   9.786  20.138  26.341 -0.3896  0.1845  0.1787
30652W        W73565   5.767  19.951  19.817 -0.3305 -0.2187 -0.2327
30653W        W73566   2.010  26.545   0.458  0.0166 -0.3559  0.1168
30654W        W73567  17.240  17.059  12.516 -0.1962  0.1258 -0.2607
30655W        W73568   1.774  31.863  15.701  0.0844  0.1236  0.0079
30656W        W73569   2.553  23.471  20.187 -0.2690 -0.3611 -0.0223
30657W        W73570   6.426  29.257  23.180  0.0508 -0.3371  0.1624
30658W        W73571  25.808  21.794  23.094  0.0192  0.0116 -0.1148
30659W        W73572  32.604  12.292  19.649 -0.3866  0.0782 -0.1270
30660W        W73573  11.126  17.125  24.002 -0.0727 -0.0790  0.0362
30661W        W73574  12.041  30.990  23.628 -0.1129  0.2274  0.0235
30662W        W73575   7.177  31.921  22.195 -0.0129  0.0723 -0.3123
30663W        W73576  31.085  26.327  23.683 -0.2738 -0.0246  0.0535
30664W        W73577   6.699  20.303  23.997  0.0515  0.1965  0.0250
30665W        W73578   0.833  31.473  15.588 -0.4276  0.1945 -0.2213
30666W        W73579   7.653  20.929   2.439 -0.2534 -0.0394 -0.1642
30667W        W73580  11.985  11.482  15.984  0.1099 -0.2501 -0.2687
30668W        W73581   1.373  25.698  14.760  0.0396 -0.0946 -0.2282
30669W        W73582   3.869  17.453  20.644 -0.1857  0.3602 -0.1585
30670W        W73583   5.285  21.353  22.075  0.1393  0.0580  0.1867
30671W        W73584  19.589  22.142  20.121  0.0811  0.0092 -0.0849
30672W        W73585   9.660  15.763  23.294 -0.1182  0.4859  0.1547
30673W        W73586   8.289  23.879  17.841 -0.1139 -0.1083  0.2366
30674W        W73587   4.008  16.174   6.198  0.0910 -0.0604  0.1330
30675W        W73588   8.432  32.051  16.527 -0.0878 -0.2684 -0.2839
30676W        W73589  30.750  27.218   3.312 -0.0546  0.2312 -0.1121
30677W        W73590   0.103  13.440  15.551 -0.1119  0.1383 -0.1462
30678W        W73591   2.663  32.338  16.624 -0.1918 -0.0568  0.0536
30679W        W73592  29.848  23.893   0.986  0.0218 -0.1699 -0.0415
30680W        W73593  30.628  27.705  22.916  0.1355 -0.1285  0.1975
30681W        W73594   4.867  22.841  22.110  0.0036  0.0883  0.2565
30682W        W73595   4.033  31.480   1.114 -0.0548  0.1342 -0.0421
30683W        W73596   0.358  10.773  23.853 -0.1865  0.1093  0.2948
30684W        W73597   1.988  26.344  20.939  0.0168  0.0207  0.2105
30685W        W73598   7.509   1.802  20.492 -0.1429 -0.1082 -0.1807
30686W        W73599   3.779  30.848  22.338  0.0980  0.0878 -0.0349
30687W        W73600   3.440  17.369  20.274  0.0935 -0.1752  0.1371
30688W        W73601  12.138  21.364   1.260  0.0677 -0.1264  0.3701
30689W        W73602  12.371  27.933  27.670 -0.0005 -0.0941 -0.1845
30690W        W73603   5.635   3.628  20.618  0.2895 -0.1080 -0.4091
30691W        W73604  18.005  17.855  24.932  0.1383 -0.1150 -0.0708
30692W        W73605   5.138   2.741  26.472 -0.0680  0.0966 -0.0687
30693W        W73606   4.348  16.193  15.794  0.2799  0.1329 -0.0677
30694W        W73607   4.450  16.751   1.288 -0.3001  0.3170  0.0700
30695W        W73608   9.207  28.150  10.201  0.2294 -0.1762  0.1256
30696W        W73609   2.194  28.487  17.898  0.0250  0.3196 -0.4075
30697W        W73610  27.568  11.884  13.831 -0.2263 -0.5132 -0.0715
30698W        W73611  34.159   4.908  23.379  0.2054 -0.4720 -0.1816
30699W        W73612  33.094  30.944  18.584  0.2089  0.2881  0.2333
30700W        W73613   4.610  31.744  24.465  0.0343 -0.2287 -0.0523
30701W        W73614  15.474  28.707  21.594 -0.2694  0.1651 -0.0439
30702W        W73615   9.105  27.384  22.618 -0.0630 -0.1230  0.0557
30703W        W73616   9.005   6.718  24.848  0.1143 -0.0418 -0.2474
30704W        W73617   8.135  19.067  23.774 -0.0497  0.0558 -0.3909
30705W        W73618  12.946  31.456  16.271 -0.0358  0.4945  0.1320
30706W        W73619   7.902  28.304  25.857  0.3394  0.1141 -0.2386
30707W        W73620   3.178  25.496  23.500  0.1490  0.0168 -0.1853
30708W        W73621  14.678   0.060   8.709 -0.3745  0.2090  0.1924
30709W        W73622   0.730  27.174   1.153 -0.1264 -0.0140 -0.1038
30710W        W73623   9.716  22.783  26.930 -0.0676 -0.1620 -0.0543
30711W        W73624   0.301  22.122  19.430  0.1511 -0.2744 -0.2476
30712W        W73625   8.890  17.446   6.827  0.3085 -0.0010 -0.2290
30713W        W73626  23.544  13.656  14.505 -0.1001 -0.0624  0.0716
30714W        W73627   4.819  22.141  24.616 -0.0995 -0.2602 -0.1651
30715W        W73628   9.384  30.439  18.592 -0.0599 -0.3608  0.0076
30716W        W73629   5.386  18.789  16.179 -0.2233 -0.2693  0.1648
30717W        W73630   9.707  33.541  19.998  0.1142  0.0459 -0.0553
30718W        W73631   4.692  23.108  20.596 -0.2012 -0.1064 -0.1586
30719W        W73632  22.310  21.026  25.320 -0.0092  0.3002  0.1518
30720W        W73633   2.402  16.865  25.751 -0.2142  0.0874 -0.1192
30721W        W73634   7.526  19.535  15.862  0.0991 -0.2403 -0.1982
30722W        W73635   2.863  28.611  18.863  0.0070 -0.1327 -0.0931
30723W        W73636  10.402  32.057  16.610  0.0743 -0.1930 -0.1567
30724W        W73637   9.300  18.082  16.682 -0.1471  0.3647 -0.0505
30725W        W73638  28.385  21.357   5.561 -0.0060  0.1739  0.0376
30726W        W73639   3.173  13.746  27.309 -0.1301 -0.4688 -0.1400
30727W        W73640   9.555  20.871   0.101 -0.1900  0.0816  0.0440
30728W        W73641   4.944  31.881   5.112  0.0862  0.1360  0.1852
30729W        W73642  28.769  25.116  25.435  0.0051  0.0591  0.1349
30730W        W73643   3.708  11.214  24.659 -0.0267  0.1734 -0.0482
30731W        W73644  15.609  25.101  22.971  0.2632 -0.2537  0.1005
30732W        W73645   9.223  13.612  24.058 -0.0591  0.0577 -0.0577
30733W        W73646  13.106  20.206  21.071  0.2291 -0.0774  0.0502
30734W        W73647   3.164  22.674  21.524  0.0672 -0.1818  0.0567
30735W        W73648  11.130  22.055  24.228  0.1524 -0.0482  0.3796
30736W        W73649   5.434  27.373  17.094 -0.2817  0.1011 -0.1033
30737W        W73650  14.348  18.153  25.747 -0.2057 -0.1262 -0.0141
30738W        W73651  29.701  25.829   5.954 -0.2603  0.0705  0.1406
30739W        W73652   8.012  18.027  18.992 -0.0286  0.1022 -0.0126
30740W        W73653   4.020  22.821  26.093  0.2446 -0.0489 -0.2076
30741W        W73654   1.626  23.878  15.585  0.1579  0.2242  0.0410
30742W        W73655  13.132  13.590  18.004  0.1344  0.0590  0.1062
30743W        W73656  32.286  14.379  15.208 -0.2017  0.2286 -0.3421
30744W        W73657  34.146  20.407  21.392 -0.1423 -0.0572 -0.1938
30745W        W73658  11.104  23.536  17.636  0.1154  0.1325 -0.1700
30746W        W73659   5.407  21.911  16.384  0.0311 -0.1361 -0.0366
30747W        W73660   8.221  18.874  25.074  0.1231 -0.3162 -0.1290
30748W        W73661  24.879   5.456  25.654 -0.2315 -0.1932 -0.4972
30749W        W73662   9.265  21.842  28.790  0.0194 -0.1458 -0.0861
30750W        W73663  23.675  25.395  17.206 -0.0225  0.0486  0.1016
30751W        W73664   6.835  10.699  17.008  0.2331  0.1828  0.0343
30752W        W73665  11.751  18.944   3.412  0.2917 -0.2950  0.0244
30753W        W73666  15.975  28.202  23.669  0.0836  0.2309 -0.0685
30754W        W73667   5.147  30.038  16.828  0.2335 -0.1293  0.1200
30755W        W73668  31.731  33.959  15.203 -0.2852  0.0086 -0.0213
30756W        W73669   5.106  19.703  16.458  0.4393  0.0380  0.1342
30757W        W73670  25.550  21.368   7.813  0.2676  0.0622  0.1654
30758W        W73671  10.183  18.145  27.054  0.1588  0.0246  0.2116
30759W        W73672   9.188  20.371  22.789  0.0383 -0.1579  0.1676
30760W        W73673   5.332  32.614  23.910 -0.0074  0.2114  0.1032
30761W        W73674  29.828  32.200  21.332  0.1703 -0.1675  0.1913
30762W        W73675  24.222  15.224  27.781 -0.4487  0.2092  0.1454
30763W        W73676   3.956  12.262  15.971  0.0046  0.1054 -0.1984
30764W        W73677  10.290   6.782  25.881 -0.0690  0.1840 -0.0927
30765W        W73678  29.320  25.247  22.738  0.1871  0.0825 -0.2409
30766W        W73679   4.121  27.716  20.748 -0.2187 -0.0388 -0.0104
30767W        W73680  34.375  28.221  27.605 -0.0627 -0.0433 -0.0933
30768W        W73681  14.071  24.230  23.983  0.2347  0.1696  0.0585
30769W        W73682   2.541  28.728  20.497 -0.1435  0.1350 -0.4163
30770W        W73683   9.401  27.812  22.183 -0.0601 -0.0327 -0.0854
30771W        W73684   8.486  24.809  17.122  0.0801  0.4301 -0.3157
30772W        W73685  11.248   0.063  19.824 -0.1157 -0.1183  0.1317
30773W        W73686  11.963  19.719  23.062  0.1613  0.3796 -0.2157
30774W        W73687  30.823  21.239   5.928 -0.1387  0.0014  0.1303
30775W        W73688  27.958  29.363  17.262  0.1855  0.3352 -0.0316
30776W        W73689   2.757  29.801  28.665 -0.0261 -0.0790  0.1988
30777W        W73690   7.716  25.082  25.515  0.0369 -0.0237 -0.1963
30778W        W73691  17.892  25.656  17.810  0.0356  0.0035  0.0665
30779W        W73692  17.375  28.943  20.031  0.1979 -0.0099 -0.0634
30780W        W73693  10.994  25.959  15.087 -0.1911 -0.0263 -0.2038
30781W        W73694  10.326  31.481   3.555  0.2934  0.2100  0.1696
30782W        W73695   0.851  16.585   1.788  0.0092 -0.1266  0.0258
30783W        W73696  31.525  31.248   2.491 -0.3851 -0.0579  0.0490
30784W        W73697  10.446  15.751  18.692  0.1865 -0.0261  0.0160
30785W        W73698   5.846  20.550  25.440  0.0640 -0.1339  0.1219
30786W        W73699   7.434  24.795  29.246  0.1517  0.0560  0.1478
30787W        W73700  31.662   8.248  24.059 -0.2763  0.0895 -0.2215
30788W        W73701   6.492  10.808  26.999  0.0904 -0.0167 -0.2478
30789W        W73702  13.414  19.137  18.513  0.3365 -0.1238  0.0911
30790W        W73703   2.148  20.159  13.758  0.2980 -0.0569 -0.4035
30791W        W73704  11.025  18.989  18.272 -0.1232 -0.1125  0.0129
30792W        W73705  34.165  26.810   4.649  0.0256 -0.5419 -0.0855
30793W        W73706   8.608  12.773  17.386  0.2653 -0.2875  0.2197
30794W        W73707  14.614  11.177  16.652  0.0723 -0.1107 -0.1820
30795W        W73708   6.167  25.385   1.602  0.0987  0.1250 -0.1303
30796W        W73709  30.845   3.148   1.680 -0.1679 -0.0039  0.1630
30797W        W73710  31.805  16.068  24.243  0.1494  0.1486  0.4724
30798W        W73711   2.770   9.736  22.557  0.0452 -0.2155  0.1594
30799W        W73712  30.913   3.421  27.773 -0.0020  0.2070 -0.1155
30800W        W73713   0.722  22.671  16.997  0.0988 -0.2821 -0.1704
30801W        W73714   2.319  26.855  26.138 -0.0118 -0.1753  0.1164
30802W        W73715  11.429  20.658  23.039  0.0218 -0.1664  0.0513
30803W        W73716   3.828  11.724  23.268  0.2133  0.1161 -0.1139
30804W        W73717  28.118  22.671   6.252  0.1751  0.2191  0.1449
30805W        W73718  29.967  31.026  18.170 -0.2634 -0.1830  0.0324
30806W        W73719   1.045  17.915  26.231 -0.2202 -0.0576 -0.1092
30807W        W73720   9.603  28.945  26.597 -0.4054 -0.0282 -0.2301
30808W        W73721   7.304  21.474  26.418  0.1852 -0.2729 -0.2839
30809W        W73722   9.586  33.219  26.732  0.0662 -0.2050  0.0330
30810W        W73723   0.041  14.950  26.921 -0.1977 -0.1931  0.3300
30811W        W73724   6.419  21.346   1.272  0.0296  0.1769 -0.1226
30812W        W73725   5.060  21.246  26.044  0.4881  0.0008 -0.2130
30813W        W73726  31.600  30.873  15.295  0.5998 -0.0713 -0.1071
30814W        W73727  13.658  22.713  18.650 -0.0457 -0.0238 -0.1556
30815W        W73728   0.765  22.566  20.421  0.2921  0.1417 -0.1975
30816W        W73729  32.478  24.439  21.917  0.1003  0.0848  0.0124
30817W        W73730   5.375  17.244  21.875 -0.1569  0.3643  0.1777
30818W        W73731   2.229  26.620  20.575 -0.0421  0.0166  0.1597
30819W        W73732  12.845  28.505  26.473  0.2990 -0.2122  0.3141
30820W        W73733   5.143  25.457  22.225  0.1392  0.4895  0.1788
30821W        W73734   9.024  21.960  23.734  0.0404 -0.1066  0.0944
30822W        W73735   0.951  30.274  27.206  0.1854 -0.0050  0.2497
30823W        W73736   2.349  23.302  21.581 -0.1842  0.0966 -0.2727
30824W        W73737   2.204  20.320  15.030  0.0966 -0.1167  0.0491
30825W        W73738  11.406  27.114  27.209  0.1020  0.4502  0.0961
30826W        W73739   8.049  33.384   4.144  0.3978 -0.1163 -0.0970
30827W        W73740  15.341  24.511  23.258 -0.0232  0.1230 -0.1251
30828W        W73741  19.558  29.253  17.805 -0.3379 -0.0617  0.1440
30829W        W73742  30.241  25.130  17.388 -0.1179  0.3024  0.1907
30830W        W73743  15.120  15.726  14.428 -0.1076  0.3280  0.0912
30831W        W73744  26.111  26.880   0.439  0.1254 -0.0259  0.2302
30832W        W73745   3.253  25.575  20.200 -0.0409 -0.1662  0.0719
30833W        W73746   1.307  15.043  27.815 -0.0037  0.3372  0.0650
30834W        W73747  30.313  23.797  26.523 -0.0694  0.2650  0.1893
30835W        W73748  25.676  18.116  22.444 -0.0304  0.1146  0.0111
30836W        W73749  25.395  27.093  19.207 -0.1260  0.2469 -0.0103
30837W        W73750   9.095  16.599  17.612 -0.1215 -0.3955 -0.0538
30838W        W73751   8.417  15.217  21.283 -0.1425 -0.0067  0.1241
30839W        W73752   9.128  18.868  21.754 -0.0906 -0.0288 -0.2337
30840W        W73753  31.516  12.422   9.395  0.0542 -0.4127 -0.2206
30841W        W73754  10.700  17.616  28.166 -0.2705  0.0896  0.3107
30842W        W73755   5.159  29.905  22.382 -0.2053 -0.1110 -0.4453
30843W        W73756   5.619  26.300   6.292  0.0212  0.2232  0.2640
30844W        W73757   9.443  24.169  20.931 -0.1077 -0.0630  0.1040
30845W        W73758   9.324  32.724   5.995  0.0662  0.3777  0.3244
30846W        W73759   7.606  19.311  24.823  0.0691 -0.3806  0.0474
30847W        W73760   0.233   9.621  23.833 -0.0484  0.3316  0.1395
30848W        W73761  22.032  25.777  27.711  0.1097 -0.0529  0.3652
30849W        W73762   7.635  14.647  15.786 -0.1641  0.2515 -0.0054
30850W        W73763  13.227  12.507  19.644  0.4599 -0.1524 -0.0837
30851W        W73764  33.367   3.481  29.023 -0.3593  0.1886 -0.3329
30852W        W73765  31.276  29.014  13.366  0.1242 -0.1067 -0.2133
30853W        W73766   2.484  31.667  14.941  0.1374  0.2527  0.1892
30854W        W73767   0.458  13.775  15.829 -0.1089 -0.2454  0.3452
30855W        W73768  33.680  22.940  26.411 -0.1251 -0.1590 -0.1508
30856W        W73769   1.566  16.020  16.090  0.1464 -0.0868  0.0279
30857W        W73770   5.898  13.741  15.792  0.0148 -0.0512  0.1683
30858W        W73771  33.647  12.307  20.686 -0.0701  0.1131 -0.0751
30859W        W73772  31.376   3.173  26.088 -0.0821  0.3811 -0.2215
30860W        W73773   0.853  19.857  20.137 -0.0342  0.0533  0.5598
30861W        W73774   9.639  29.583  25.459 -0.0896 -0.1742  0.0792
30862W        W73775  30.816  23.288   4.376 -0.1971  0.0708  0.0528
30863W        W73776   6.627  34.058  25.343 -0.3343 -0.2530 -0.2768
30864W        W73777  10.700  18.410  13.053 -0.2070 -0.3518  0.3535
30865W        W73778   9.322  24.515  19.631 -0.0110 -0.0928 -0.1906
30866W        W73779  31.357  25.633  28.525  0.0081 -0.1175 -0.1892
30867W        W73780  34.485   1.186  25.021  0.3093  0.0707 -0.0139
30868W        W73781  33.081  25.733  21.757 -0.0512 -0.2024  0.0826
30869W        W73782  11.744  29.944  19.041 -0.2203  0.0511 -0.3753
30870W        W73783   5.162  12.312  27.894  0.0683 -0.4622 -0.1991
30871W        W73784  14.670  29.943  24.391 -0.0583  0.0104 -0.4155
30872W        W73785   0.312   3.911   1.169 -0.1894  0.0732 -0.1932
30873W        W73786  33.759  25.544  14.481  0.0075  0.2939  0.0555
30874W        W73787   1.721  27.966   6.148 -0.0040  0.0690  0.1869
30875W        W73788   0.151  32.015   3.438  0.1628 -0.1446  0.0197
30876W        W73789  20.818  19.509   3.525 -0.1546 -0.4748 -0.1467
30877W        W73790  12.075  25.092  23.642 -0.0245  0.0464 -0.1332
30878W        W73791  33.000  26.749  25.151  0.0184  0.1016  0.1435
30879W        W73792   0.003  22.677  17.675  0.2515  0.0919  0.0968
30880W        W73793  32.168  18.105  19.592  0.0992  0.1318  0.0403
30881W        W73794   6.832  15.576  16.948  0.2772 -0.0138 -0.0672
30882W        W73795   6.714  24.396  24.132 -0.0028 -0.0459  0.2114
30883W        W73796  12.786  32.269   4.263  0.0373  0.0444  0.3348
30884W        W73797   6.886  20.464  20.099 -0.1234 -0.1074  0.0017
30885W        W73798   6.858  24.111  22.638 -0.1490  0.0518  0.3392
30886W        W73799   4.982  23.051   1.747  0.0872 -0.2647 -0.1653
30887W        W73800   6.579  23.335   8.813  0.1893 -0.2501 -0.0757
30888W        W73801   8.843  12.329  23.052  0.2114  0.0399 -0.1930
30889W        W73802   7.792  17.682   2.873 -0.2083  0.0326  0.2730
30890W        W73803   7.365  14.372  27.236  0.0262  0.1840 -0.2849
30891W        W73804  11.339  17.518  21.971 -0.0577 -0.0701 -0.0649
30892W        W73805   2.979  26.691  17.638  0.1013 -0.2199  0.3084
30893W        W73806   8.305  12.638  29.419 -0.0529 -0.0441 -0.0786
30894W        W73807   2.994   0.532   6.495  0.3301 -0.1723  0.0926
30895W        W73808  10.541  17.724  14.696  0.1164 -0.0236  0.2325
30896W        W73809   8.376  22.668  25.973 -0.1657 -0.0165 -0.0528
30897W        W73810   5.973  20.178  17.609  0.3210  0.1846 -0.3900
30898W        W73811   5.771  21.561  24.234 -0.2678  0.3104 -0.3109
30899W        W73812   1.652  26.140  21.291 -0.2536 -0.0379 -0.1699
30900W        W73813   2.068   1.771  17.784  0.0869 -0.0278  0.0786
30901W        W73814   3.416  13.636  19.377 -0.0665 -0.1195  0.2290
30902W        W73815  12.617  17.942  28.410 -0.1194 -0.1010 -0.0264
30903W        W73816  11.229  12.076  23.291 -0.0453 -0.0485  0.1301
30904W        W73817   4.083  25.410  16.141  0.1534  0.3889  0.0455
30905W        W73818   2.504  29.717  25.703  0.0554  0.1468  0.0082
30906W        W73819   3.736  28.893   1.381  0.4299 -0.0320 -0.0348
30907W        W73820   8.026  15.169  25.446  0.0854 -0.3010 -0.1068
30908W        W73821   1.232  22.667  20.261  0.0217 -0.0660 -0.0186
30909W        W73822   7.298  19.609  21.053  0.1000 -0.3277  0.1760
30910W        W73823  32.837  24.002  24.337  0.0424  0.2869  0.0390
30911W        W73824   6.239  20.997  22.464 -0.0352 -0.1354  0.0754
30912W        W73825   2.469  19.704  25.356 -0.1684 -0.0214  0.0189
30913W        W73826  29.682  18.957  25.989  0.2900  0.1655 -0.1616
30914W        W73827  16.657  16.122  14.038 -0.1058 -0.0460  0.0081
30915W        W73828   2.497  19.114  15.519  0.2845 -0.1628  0.0116
30916W        W73829   1.859  24.933  18.428  0.0836 -0.0233 -0.1622
30917W        W73830   1.752  21.500  22.934 -0.0473 -0.2382 -0.2768
30918W        W73831  31.265  30.338  25.444  0.0659 -0.2691  0.2865
30919W        W73832   1.209  28.804  23.342  0.0765  0.1068 -0.1707
30920W        W73833   4.000  28.726  17.135 -0.1130 -0.1479 -0.1261
30921W        W73834  31.956  26.144  29.195 -0.0080  0.2227  0.2762
30922W        W73835   8.449  25.647  27.064 -0.3208  0.1112  0.1158
30923W        W73836  27.345  30.541  22.409 -0.0541 -0.2663  0.2657
30924W        W73837  19.702  23.423   0.782 -0.2711  0.0616  0.1304
30925W        W73838   0.930  20.595  20.830 -0.0439  0.1737 -0.1912
30926W        W73839   3.887  28.059  22.209  0.1169 -0.3077 -0.0142
30927W        W73840   0.473  22.396  28.180  0.0833  0.2775 -0.1545
30928W        W73841  34.485  19.599  19.414 -0.4718 -0.2183 -0.0488
30929W        W73842  16.711  13.798  15.088  0.0558  0.0543  0.2848
30930W        W73843  28.951  10.266  22.010 -0.0007 -0.1743  0.0209
30931W        W73844   0.553  19.972   2.515  0.1138  0.1402 -0.6105
30932W        W73845   6.928  21.476  20.605 -0.1493 -0.2380 -0.2183
30933W        W73846  10.060  30.774  24.778  0.0579 -0.1843  0.0036
30934W        W73847   6.593  20.355  21.530  0.1037  0.0372  0.1381
30935W        W73848   4.463  23.264  27.466 -0.0287 -0.1070 -0.2601
30936W        W73849  32.704  16.551  23.803 -0.2502 -0.0695  0.0244
30937W        W73850   9.076  21.093   2.372  0.1139 -0.3469  0.0964
30938W        W73851  34.074  26.127  27.626 -0.3410 -0.1594  0.0981
30939W        W73852  33.920  30.309  18.942 -0.0608  0.1310 -0.2461
30940W        W73853   3.770  27.618  23.624  0.0540 -0.1494  0.0240
30941W        W73854   6.223  21.983  21.954  0.2269 -0.0507  0.0370
30942W        W73855   7.414  17.344  21.419 -0.2126 -0.2862 -0.1263
30943W        W73856   4.920  30.899  27.668  0.1211 -0.0402  0.1103
30944W        W73857  12.358  15.997  16.278  0.0417 -0.2277 -0.0595
30945W        W73858  15.749  16.356  14.275  0.2155 -0.0688  0.0036
30946W        W73859   0.470  27.597   7.972  0.0921  0.2469  0.0991
30947W        W73860   4.220  18.936  16.635  0.0037 -0.0252 -0.1536
30948W        W73861   7.413  34.469  24.766 -0.1003  0.1497 -0.2403
30949W        W73862  31.082  15.627  26.802  0.1460 -0.0134 -0.1024
30950W        W73863  34.090  21.286  17.009 -0.3112  0.1391  0.4771
30951W        W73864   0.550  33.156  19.658 -0.2233 -0.0329  0.1580
30952W        W73865   8.311  24.060  20.174 -0.2167 -0.1424  0.4122
30953W        W73866  32.118  29.154  29.366  0.0356  0.2171 -0.0011
30954W        W73867  14.717  28.485  28.299  0.0265  0.0465  0.1415
30955W        W73868   9.528  22.233  27.844 -0.0412 -0.1364 -0.0158
30956W        W73869   8.421  14.874  22.619 -0.0164 -0.1657  0.1617
30957W        W73870  10.221  28.917  24.555  0.0271  0.2098  0.0639
30958W        W73871   9.719  11.168  22.049 -0.0662 -0.1762 -0.1473
30959W        W73872  12.757  23.279  28.497  0.1556  0.0054 -0.0211
30960W        W73873  31.153  30.956   2.627  0.2101  0.0610  0.0298
30961W        W73874  30.474  27.899  25.329  0.3381  0.2093 -0.1002
30962W        W73875   7.247  25.506  18.053  0.0145 -0.0719  0.3867
30963W        W73876   4.357  24.185   2.287 -0.1739  0.0346 -0.2945
30964W        W73877  30.742  21.476  20.790  0.1943 -0.2089  0.1019
30965W        W73878   3.963  19.480  22.467 -0.3242  0.1189 -0.2170
30966W        W73879  11.539  17.596  21.434 -0.1989  0.0810  0.2683
30967W        W73880   9.010  20.345  21.830  0.1647  0.0606 -0.0114
30968W        W73881   2.278   7.814  26.889 -0.0609 -0.0819  0.3513
30969W        W73882  32.976  18.816  24.968 -0.1383 -0.1096  0.1953
30970W        W73883   7.333  26.769  15.422 -0.4840 -0.2563  0.2005
30971W        W73884   3.017  22.208  21.264 -0.0541  0.0426  0.2209
30972W        W73885   4.751  27.359  27.550 -0.0625 -0.1008 -0.0099
30973W        W73886   5.512  26.581  26.155 -0.2745  0.2843 -0.0501
30974W        W73887   5.825  26.207  18.977 -0.0902  0.3572  0.0507
30975W        W73888   8.795  26.142  21.420 -0.2583 -0.0363 -0.1806
30976W        W73889  30.902  17.104  13.560 -0.2677 -0.0611  0.2323
30977W        W73890   0.127  20.538  17.603  0.1330 -0.0441  0.0548
30978W        W73891  30.460  25.065  23.562  0.0398 -0.0562  0.2162
30979W        W73892  12.913  29.454  18.818 -0.0434  0.2347 -0.1372
30980W        W73893   1.101  18.484  16.289  0.1337  0.1148 -0.1613
30981W        W73894  30.447  23.790  16.560  0.2347  0.0782 -0.1082
30982W        W73895  29.251  10.815  18.181 -0.0895  0.1281 -0.1294
30983W        W73896  31.839  33.942  20.249 -0.2081  0.1221  0.1411
30984W        W73897   2.736  17.018  17.960 -0.2494  0.1383 -0.2150
30985W        W73898  30.495  25.365   0.165  0.5305 -0.2406  0.3362
30986W        W73899   3.670  15.711  21.851 -0.2978  0.0601  0.0468
30987W        W73900  17.550  20.214   1.233  0.0353 -0.4933  0.1265
30988W        W73901  30.279  24.576  13.763  0.0434 -0.4006 -0.0206
30989W        W73902   1.245  14.058  22.685  0.1015 -0.1456 -0.0401
30990W        W73903   4.851  26.052  15.466  0.1187  0.2498  0.1882
30991W        W73904  32.207  21.894  15.656  0.0923  0.2357  0.3084
30992W        W73905   1.739  24.246   0.152 -0.3780  0.1585 -0.3943
30993W        W73906  14.895  12.556  27.020 -0.0398  0.3211 -0.1777
30994W        W73907  19.832  25.696  26.602  0.0171  0.1201  0.0466
30995W        W73908  14.789  19.767  14.343 -0.1951 -0.0216 -0.1921
30996W        W73909   6.485  23.718  20.455  0.0324  0.2300  0.1835
30997W        W73910  25.212  24.299  28.232 -0.0321  0.0187  0.2065
30998W        W73911   7.561  19.459  14.377 -0.0111  0.1574 -0.3027
30999W        W73912   8.265  25.371   3.099  0.4106 -0.0954 -0.1388
31000W        W73913  32.016  20.917  20.386 -0.2537  0.1275 -0.2419
31001W        W73914   8.025  25.137  17.089 -0.2305  0.1441 -0.0012
31002W        W73915   7.165  11.283   3.813 -0.1676  0.0994  0.0764
31003W        W73916  30.798  22.567   0.083  0.2408  0.1727  0.0206
31004W        W73917  33.893  26.466  24.891  0.0601 -0.2040 -0.3500
31005W        W73918   8.254  28.187  26.485 -0.1321 -0.1595 -0.0398
31006W        W73919   4.020   9.810  24.873 -0.1969  0.1321 -0.1032
31007W        W73920   9.277  28.762  22.567  0.2245 -0.2413 -0.0794
31008W        W73921   2.484  27.356  26.293  0.3482  0.1409 -0.1422
31009W        W73922   5.684  17.232  28.946 -0.2008  0.0175  0.0815
31010W        W73923  32.836  29.955   1.549  0.0654 -0.4053 -0.1065
31011W        W73924  26.280  19.667  16.193 -0.1863  0.2463 -0.2036
31012W        W73925  26.645  19.477  26.885 -0.0828  0.0338  0.1332
31013W        W73926   4.735  18.649  23.935  0.0459 -0.1336 -0.0459
31014W        W73927   9.703  28.556  26.175 -0.2351 -0.3064 -0.0065
31015W        W73928  25.063  18.237  24.107 -0.0874  0.3431  0.0008
31016W        W73929  28.493  19.959   4.873 -0.0534  0.3291 -0.3992
31017W        W73930   1.858  20.407  15.390 -0.0660  0.0794  0.0281
31018W        W73931   8.207  27.326  15.559  0.0121  0.2008  0.0473
31019W        W73932   2.532  17.846  18.592  0.1834  0.1042  0.1837
31020W        W73933  31.253  10.190  15.252 -0.1223 -0.2771  0.0029
31021W        W73934  12.329  17.497  21.660 -0.2797 -0.0873 -0.1564
31022W        W73935  11.137  26.902  24.262  0.5106 -0.2024 -0.0392
31023W        W73936   7.273  23.958  28.454 -0.1048  0.1639  0.0592
31024W        W73937   4.854  20.532  27.653  0.1641 -0.1338  0.1145
31025W        W73938   5.759   9.653  26.091 -0.5283  0.1082 -0.0305
31026W        W73939   3.751  18.745  23.976  0.2598  0.0606  0.1153
31027W        W73940  33.467  29.802  24.656 -0.1252  0.2524  0.0820
31028W        W73941  33.060  19.158  23.903 -0.0119  0.1556 -0.0962
31029W        W73942   0.839  21.334  18.388 -0.0787 -0.1091  0.0892
31030W        W73943   3.128  16.491  21.880 -0.3663 -0.0003  0.0004
31031W        W73944  34.172  11.247  21.952 -0.1376  0.1938 -0.2276
31032W        W73945   1.207  15.232  20.497 -0.0869  0.3488  0.1575
31033W        W73946   6.462  21.116  16.190 -0.0772  0.1976  0.0212
31034W        W73947   3.482  28.526  23.264 -0.3117 -0.2590 -0.2104
31035W        W73948   5.470  29.876  27.118 -0.0393  0.2793  0.2902
31036W        W73949  32.656   5.333  21.459  0.2457  0.2917 -0.4112
31037W        W73950  30.956  29.334   2.637  0.3879  0.3686  0.2492
31038W        W73951  22.883  22.788  24.327  0.0038 -0.4097  0.0848
31039W        W73952  24.902  20.443   6.541 -0.0674 -0.2284  0.0749
31040W        W73953  16.183  16.260  15.033 -0.0580 -0.0845  0.1289
31041W        W73954  23.476  20.169  24.459 -0.3675  0.2012 -0.1645
31042W        W73955   3.526  22.222  23.939  0.2842 -0.2767 -0.1689
31043W        W73956  11.945  26.727  21.611 -0.0543  0.3109  0.2143
31044W        W73957   3.205  14.092  19.627 -0.2076 -0.0180  0.0730
31045W        W73958  28.495  22.058  28.211 -0.0249 -0.1374 -0.1238
31046W        W73959  30.265  23.690   3.203 -0.2982 -0.1484  0.2148
31047W        W73960   2.114   2.900  23.540 -0.1293  0.1455  0.1347
31048W        W73961   6.271  26.877  29.694  0.1858 -0.0848 -0.3869
31049W        W73962  31.586  32.533  24.090 -0.1801  0.1978 -0.0225
31050W        W73963  31.811  10.799  28.260 -0.0217  0.3370 -0.0623
31051W        W73964  32.504  25.679   0.120 -0.2108 -0.1098  0.0954
31052W        W73965   6.332  17.675  27.654  0.0582 -0.1002  0.0061
31053W        W73966   9.201  24.345  29.611 -0.0682 -0.4047 -0.1988
31054W        W73967  11.957  28.918  28.393 -0.0152 -0.1551  0.1412
31055W        W73968  28.576  21.440  20.931  0.0218 -0.0650 -0.0410
31056W        W73969  12.280  26.291  18.824  0.1539 -0.1736 -0.3062
31057W        W73970   7.061  29.457  25.976 -0.2187  0.0808 -0.0961
31058W        W73971   1.800  28.957  16.217 -0.1254  0.0635 -0.0773
31059W        W73972   6.500  14.710  28.807  0.1133  0.1713  0.2258
31060W        W73973   6.558   4.891  19.086  0.0070  0.0304  0.2259
31061W        W73974   1.034  28.453   0.303  0.0484 -0.0207  0.3505
31062W        W73975   6.111  12.330  27.787 -0.0185  0.0431 -0.0739
31063W        W73976  12.520  26.157  29.189 -0.0055 -0.0666 -0.0427
31064W        W73977   6.127  20.715  25.811 -0.1793 -0.3479  0.1741
31065W        W73978   4.320  22.241  22.620  0.2626  0.3730  0.0456
31066W        W73979   9.104  20.389   1.758 -0.1919 -0.2459  0.1646
31067W        W73980  17.841  11.682  22.931 -0.0238  0.2914  0.1682
31068W        W73981  12.097  32.542   1.848  0.0754  0.2914 -0.0043
31069W        W73982   3.549  25.162   1.148  0.0183  0.0530  0.2103
31070W        W73983  26.309   4.376  22.263 -0.1602 -0.1877  0.0739
31071W        W73984   7.274  26.589   3.464  0.2857 -0.1358  0.1260
31072W        W73985  13.601  18.295  16.232 -0.0460 -0.1536  0.0518
31073W        W73986  12.294  17.442  20.758 -0.1615 -0.1097  0.1923
31074W        W73987   3.258  17.997  24.952  0.1045  0.0889 -0.1918
31075W        W73988  26.348   2.058  17.051  0.1529 -0.1460 -0.2337
31076W        W73989   0.230  31.016  27.538 -0.1327  0.1370  0.2123
31077W        W73990   1.981  22.364  22.719 -0.1092 -0.2506 -0.0845
31078W        W73991   6.752  29.427   2.870  0.1093  0.2543 -0.1832
31079W        W73992  31.236  19.154   6.296  0.1583 -0.0153  0.0307
31080W        W73993   4.077  22.013  28.409 -0.0260  0.3017  0.0794
31081W        W73994  29.277  32.277   5.214  0.1150 -0.0226  0.1143
31082W        W73995  31.329  20.410  24.586  0.2235 -0.1261  0.1484
31083W        W73996   4.964  23.621  27.769  0.1674 -0.0604  0.1379
31084W        W73997   2.488  14.206  22.732 -0.3800  0.3015 -0.0015
31085W        W73998   3.754  12.896  29.474 -0.0713 -0.1480 -0.0254
31086W        W73999   9.468  15.098  22.842 -0.2792  0.1727  0.2004
31087W        W74000   8.093  26.722  27.212  0.0393 -0.0336 -0.0202
31088W        W74001  23.470  22.524   0.778  0.0436  0.1744  0.3028
31089W        W74002   5.898  17.679  15.114 -0.0951 -0.2717  0.3898
31090W        W74003   3.107  27.274   6.248  0.1879 -0.0979 -0.2279
31091W        W74004  26.164  28.195  27.579  0.0274  0.1319  0.1902
31092W        W74005  32.067  23.691  25.864 -0.0094 -0.3433  0.2245
31093W        W74006   5.566  27.574  24.489 -0.0440 -0.0010  0.1370
31094W        W74007   0.303  25.443   2.911  0.2217 -0.3200  0.2937
31095W        W74008   9.324  26.431  18.575 -0.2053 -0.0327 -0.3830
31096W        W74009  14.252  19.883  25.586 -0.2408  0.0603  0.2565
31097W        W74010   2.981  28.902  26.722 -0.0488  0.3998 -0.0508
31098W        W74011  30.116  30.958   6.364 -0.0537  0.0747 -0.3018
31099W        W74012  32.188  16.587   0.286 -0.0676  0.0323 -0.2706
31100W        W74013   1.054  23.027  22.319  0.2068  0.1928  0.0327
31101W        W74014  30.454  19.829  22.822 -0.5151 -0.0093 -0.1764
31102W        W74015  29.845  27.964   5.422  0.0667  0.1701 -0.0861
31103W        W74016  32.618  26.944   2.651 -0.2777 -0.1936  0.4352
31104W        W74017   4.161  24.771  15.944  0.0056  0.0868  0.0074
31105W        W74018  12.869  13.633   2.602 -0.0308 -0.2452 -0.0244
31106W        W74019   6.704  22.626  19.118 -0.0936  0.0742  0.2594
31107W        W74020   7.492   1.519  27.696  0.4910  0.0735  0.0103
31108W        W74021   2.459  29.752   7.493 -0.3636  0.1001 -0.0839
31109W        W74022   4.670  21.789  22.866  0.0569  0.0232 -0.0692
31110W        W74023   0.199  21.897  27.474 -0.1622 -0.0004 -0.0865
31111W        W74024   1.057  32.456  17.932 -0.0552  0.0151 -0.0096
31112W        W74025  10.685  22.075  29.631  0.2237  0.2902 -0.3104
31113W        W74026  33.445  22.159   5.717 -0.2125 -0.1579 -0.2814
31114W        W74027  29.669  30.577  27.357  0.5769 -0.0387 -0.0038
31115W        W74028   5.788  20.222  20.390 -0.1212 -0.0026 -0.0638
31116W        W74029  10.450  33.557  26.675 -0.0026  0.1232  0.0458
31117W        W74030   7.362  12.737  27.140 -0.0905 -0.0242 -0.1365
31118W        W74031  31.005  27.182  24.372 -0.0784  0.2037  0.1399
31119W        W74032  14.070  19.539  16.449 -0.1408 -0.0083  0.0013
31120W        W74033   8.313  10.029  29.363 -0.0459  0.0843 -0.1498
31121W        W74034   8.411  26.735  22.745  0.1938  0.1185  0.2731
31122W        W74035   7.412  11.006  27.090  0.2049  0.0280 -0.3009
31123W        W74036   6.633  26.344  23.144  0.3940 -0.0666 -0.0595
31124W        W74037   5.273  18.884  25.037  0.0870  0.3150  0.1242
31125W        W74038   1.094  32.469  25.705  0.2523 -0.1345 -0.4137
31126W        W74039  31.912  29.809  20.330 -0.1218 -0.1784 -0.2057
31127W        W74040   3.299  25.982  17.033  0.1064 -0.3315  0.0014
31128W        W74041   4.055  23.611   4.228  0.0605  0.2116 -0.0147
31129W        W74042   4.395  32.468   5.575  0.1049 -0.2265 -0.0305
31130W        W74043   7.647  19.170  23.720  0.1118  0.1728  0.1366
31131W        W74044   4.932  11.412  25.849  0.1093  0.3268 -0.1063
31132W        W74045   7.303  23.742  21.833 -0.3073  0.0005 -0.0715
31133W        W74046   1.055  21.344  24.326  0.0542 -0.0727 -0.0097
31134W        W74047  33.905  22.157   3.492  0.0416  0.0623 -0.1284
31135W        W74048   7.839  33.826   3.932 -0.0983 -0.1988  0.0103
31136W        W74049   2.384  29.072  28.312 -0.2128  0.0319  0.2188
31137W        W74050  30.760  23.287  21.289 -0.0242 -0.4004  0.2898
31138W        W74051  24.564  17.800   0.247 -0.1333  0.0902 -0.0478
31139W        W74052   6.252  16.160  16.448  0.2373  0.1752 -0.0179
31140W        W74053   0.012  19.434  18.821  0.0048  0.0818 -0.1408
31141W        W74054   7.045  13.551  28.471 -0.2013 -0.0516 -0.2387
31142W        W74055  34.128  17.813   5.176 -0.0300 -0.0104  0.2167
31143W        W74056   5.777  21.582  16.654  0.0282 -0.1347 -0.1310
31144W        W74057   0.240  18.182  23.263  0.1983 -0.2293  0.2404
31145W        W74058   9.312  14.420  20.039  0.2331  0.2096  0.2558
31146W        W74059  23.622  21.202   7.010  0.2896 -0.1097  0.4608
31147W        W74060  29.518  24.160   1.387  0.2292 -0.3285 -0.1418
31148W        W74061  14.022  13.061   0.203  0.4193  0.2017  0.2235
31149W        W74062  27.503  32.239  25.127 -0.0756 -0.3768  0.1697
31150W        W74063  33.413  12.035   2.320 -0.2059  0.0561  0.5226
31151W        W74064  33.041  18.599  28.613 -0.0416  0.0265 -0.1559
31152W        W74065   6.297  20.202   2.790 -0.5733 -0.0167  0.0067
31153W        W74066   8.619  14.180  16.979 -0.0440 -0.0951  0.3357
31154W        W74067  30.366  34.229   4.820  0.1111  0.3848 -0.0957
31155W        W74068   9.337  29.682  28.166 -0.2381 -0.0917 -0.0397
31156W        W74069   2.584  25.567  22.339 -0.0542  0.1051  0.0529
31157W        W74070  20.876  28.703   1.737 -0.1563  0.6394  0.0877
31158W        W74071   4.012  20.166   7.771  0.0375 -0.0489 -0.0607
31159W        W74072   6.159  29.344   3.986 -0.1518  0.2648  0.0360
31160W        W74073   5.741  20.164  27.479 -0.0425  0.1355  0.1488
31161W        W74074   2.636  20.845  21.095  0.2055  0.1863 -0.0953
31162W        W74075  31.554  22.805  26.800  0.1474  0.0967  0.1314
31163W        W74076   8.465  26.935  28.574  0.1577  0.0853  0.0501
31164W        W74077  14.813  28.966  22.426  0.3129  0.2566  0.1483
31165W        W74078  10.202  24.010  28.887  0.0337 -0.1987  0.2893
31166W        W74079  33.986  31.947   1.553 -0.0142  0.1105  0.1053
31167W        W74080   8.114  19.030  19.285  0.4616  0.0171  0.3603
31168W        W74081   2.547  24.450   3.837  0.0560  0.1491 -0.3936
31169W        W74082   6.596  21.763  24.358  0.1022  0.1843 -0.0107
31170W        W74083   1.954  24.335  14.820  0.2578  0.1456  0.0729
31171W        W74084  32.832  31.028  22.117 -0.1398  0.0509  0.0447
31172W        W74085  18.036  28.762  25.525  0.0184 -0.0157  0.1967
31173W        W74086   5.503  15.569  14.506  0.0884  0.0034 -0.0841
31174W        W74087  15.511  28.515  20.603  0.0185 -0.1338 -0.2014
31175W        W74088  32.971  22.763  15.424 -0.0293  0.0457  0.4066
31176W        W74089  12.135  26.751   3.740 -0.1665 -0.4017 -0.1543
31177W        W74090  29.024  28.213   0.093  0.0528 -0.1457 -0.0332
31178W        W74091  28.503  32.550  27.700 -0.3799  0.0266 -0.0436
31179W        W74092   7.468  16.535  27.331  0.1833 -0.1245  0.2510
31180W        W74093  11.136  30.969  12.016  0.0778 -0.1980  0.2177
31181W        W74094   3.611  26.799  24.788  0.1272 -0.0249 -0.0343
31182W        W74095  30.360   1.574  23.609  0.1207  0.2567 -0.2340
31183W        W74096   8.776  21.740  22.700 -0.2435  0.2551 -0.1051
31184W        W74097   6.595  25.035  29.752 -0.2079  0.3114 -0.4083
31185W        W74098  29.137  28.822  26.837 -0.0838  0.0345  0.0857
31186W        W74099   5.332  24.199  16.844 -0.1108  0.1074  0.0138
31187W        W74100   8.882  16.056   0.314 -0.2185 -0.0591 -0.0370
31188W        W74101   1.400  23.010   8.526  0.1176  0.0158  0.3519
31189W        W74102   5.652  27.662   1.394 -0.1874 -0.1618  0.1334
31190W        W74103  11.431   3.416  27.100 -0.1511 -0.1549 -0.2719
31191W        W74104   0.675  23.599  28.622 -0.0420 -0.1255  0.4655
31192W        W74105  14.142  22.079  28.031 -0.3143  0.2424  0.1679
31193W        W74106   8.985  18.806  24.347 -0.0473  0.3823 -0.0514
31194W        W74107   0.335   1.615  25.959  0.2533 -0.0226 -0.2259
31195W        W74108  28.559  32.124  26.578 -0.2197  0.1061 -0.3285
31196W        W74109  28.269  29.636  20.255 -0.0404 -0.2445  0.3080
31197W        W74110   8.589  22.841  29.326  0.0845  0.0760 -0.1494
31198W        W74111   1.251  24.140  20.074 -0.0909  0.2384 -0.0842
31199W        W74112   7.174  23.619   1.069 -0.1966  0.3144  0.3633
31200W        W74113  32.089  29.546  19.906  0.2221  0.3390  0.1576
31201W        W74114  12.018  19.212  26.925 -0.1529 -0.1216  0.1262
31202W        W74115   6.986  25.993   7.103 -0.2140  0.1352 -0.1196
31203W        W74116   0.264  31.507  27.050 -0.0366 -0.0014  0.0068
31204W        W74117  32.707  25.887  18.521  0.1137  0.0856  0.3392
31205W        W74118  28.869   1.292   7.079  0.0062 -0.1303  0.1689
31206W        W74119   1.411  19.660  22.588  0.2814  0.0060  0.2649
31207W        W74120  16.974  21.005   5.514 -0.1479 -0.2080  0.1435
31208W        W74121  12.843  17.626   6.463  0.1638 -0.3781 -0.1771
31209W        W74122  30.508  19.392  24.376  0.0182 -0.0787  0.1128
31210W        W74123  27.082  14.665   8.224  0.3923 -0.2203 -0.1616
31211W        W74124  20.813  26.476  26.984 -0.0765 -0.1912  0.1219
31212W        W74125   6.788  21.880   5.215  0.4221 -0.1810  0.0254
31213W        W74126   4.486  23.516  18.883  0.0459 -0.1375  0.2129
31214W        W74127   9.096  23.142   6.849 -0.0455 -0.2102  0.0930
31215W        W74128  32.261  15.015  27.307  0.0657  0.0017 -0.2777
31216W        W74129  27.239  26.276  14.744  0.0699 -0.2688 -0.1441
31217W        W74130   6.834  20.095   5.481 -0.0189 -0.0693  0.0231
31218W        W74131   3.570  32.545  26.566  0.0925  0.3131 -0.5960
31219W        W74132  11.744  19.480   2.601  0.0183  0.0858  0.0895
31220W        W74133   8.272  26.007   5.038 -0.1933 -0.5923  0.1040
31221W        W74134  29.257  27.708   6.152  0.0654  0.4253  0.0488
31222W        W74135  12.492  28.519  16.776 -0.0822 -0.1923  0.1827
31223W        W74136  31.917  21.733  28.568  0.2856  0.0971  0.0214
31224W        W74137  11.375  25.042   3.774 -0.2102  0.0421  0.1048
31225W        W74138  22.235   3.718  20.675  0.2922  0.0371 -0.1316
31226W        W74139   4.138   6.678  26.101 -0.0752 -0.2032  0.1757
31227W        W74140   3.389  10.931  20.661 -0.2719  0.2014 -0.0677
31228W        W74141  34.220  24.542  28.500 -0.0024  0.1314 -0.2010
31229W        W74142   2.291  20.809  27.793  0.0025  0.1493 -0.0058
31230W        W74143  29.337  22.313  19.537 -0.3113 -0.1784 -0.0182
31231W        W74144   1.655  13.769   4.168 -0.2742 -0.1152  0.0393
31232W        W74145   9.031  20.388  27.338  0.0551 -0.1175 -0.1745
31233W        W74146   4.484  19.066  19.120  0.3356  0.0437  0.0176
31234W        W74147   9.187  17.674   2.388 -0.1102 -0.0701  0.2795
31235W        W74148  10.901  25.517  29.110 -0.2342  0.4179 -0.1444
31236W        W74149  33.528   3.227   3.034  0.3079 -0.2746 -0.1317
31237W        W74150   6.315  27.456   6.665 -0.2279 -0.0302  0.0068
31238W        W74151   5.238  27.406  25.902  0.1745 -0.1315 -0.5478
31239W        W74152  15.304  21.099  21.042 -0.2303 -0.1415  0.2279
31240W        W74153  26.701   4.159   3.547 -0.2575 -0.0862  0.1297
31241W        W74154   6.553  31.078   5.855 -0.0379 -0.3550 -0.1211
31242W        W74155  14.897  24.989  22.282  0.0151 -0.1047  0.1406
31243W        W74156  27.643   7.285  18.906 -0.0191 -0.0971  0.2318
31244W        W74157   7.799  15.409  29.204 -0.3358 -0.1593 -0.2948
31245W        W74158   9.640  26.032  18.551 -0.2261 -0.0676 -0.1732
31246W        W74159   5.911  13.015  27.149 -0.0005 -0.0414  0.1018
31247W        W74160   7.743  21.516  29.560  0.2766 -0.0831  0.0785
31248W        W74161  32.647  17.145  22.443 -0.2636  0.1371 -0.1816
31249W        W74162   2.483  23.182  26.207 -0.0892 -0.1330  0.0412
31250W        W74163   8.016  25.316  25.126 -0.1681 -0.0201 -0.3521
31251W        W74164  30.616  25.139  28.466 -0.1532 -0.0961  0.1408
31252W        W74165  11.078  27.055  26.794  0.0426  0.1086 -0.2327
31253W        W74166  13.249  29.936   0.014 -0.0716  0.0403  0.0521
31254W        W74167  32.567  21.564   1.694  0.1812  0.4434 -0.2432
31255W        W74168   1.684  22.276   3.721 -0.0618 -0.2598 -0.0112
31256W        W74169   7.536  19.438   0.274  0.0391 -0.3480 -0.1917
31257W        W74170   7.921  28.575  24.846 -0.1119 -0.2382 -0.1667
31258W        W74171  10.743  24.743   5.750 -0.0684 -0.2061  0.0669
31259W        W74172  11.335  25.165  20.901 -0.0151 -0.2671  0.2267
31260W        W74173   0.814  22.291  19.415 -0.0783 -0.0465  0.0536
31261W        W74174  30.403  24.922  28.960 -0.5327 -0.0443 -0.1184
31262W        W74175  27.470  27.208  20.661 -0.1251 -0.1769  0.0566
31263W        W74176  30.993  29.573   3.701 -0.2530  0.2518  0.2567
31264W        W74177  11.396  24.679  21.355  0.2074  0.0921 -0.3443
31265W        W74178   9.550  21.746   5.076 -0.2039 -0.1020 -0.0589
31266W        W74179   3.267  24.816  16.160  0.2388 -0.0261  0.0520
31267W        W74180  12.350  18.128  18.857 -0.0925  0.1430  0.2518
31268W        W74181  26.618  28.738  25.097  0.0702 -0.1735  0.1553
31269W        W74182   5.306  23.515  19.941  0.1327 -0.0510 -0.1543
31270W        W74183  15.092  21.663  24.644 -0.3154  0.3929  0.3146
31271W        W74184   7.687  13.798   2.665  0.0889 -0.0796 -0.4502
31272W        W74185   3.001  27.022  25.642  0.0710  0.1249 -0.1038
31273W        W74186  34.027  19.683  23.484 -0.0772  0.2130 -0.0057
31274W        W74187   0.354  18.597   7.898 -0.2819 -0.3109 -0.1240
31275W        W74188   8.650  12.287  10.508  0.0504  0.1744 -0.2922
31276W        W74189   1.761  19.436   3.940  0.1857  0.1013  0.1367
31277W        W74190   6.029  22.428   8.155 -0.0104  0.0728 -0.0777
31278W        W74191  33.110  33.386   2.233 -0.2042 -0.5050  0.0012
31279W        W74192  13.978  32.467  20.525  0.2311 -0.2264  0.0723
31280W        W74193  11.101  17.176   2.798  0.2613 -0.0910 -0.0981
31281W        W74194   7.434  23.300  27.501 -0.1926 -0.1512  0.0233
31282W        W74195   9.517  22.670   2.417 -0.3100  0.0347  0.0947
31283W        W74196   3.822  22.842  20.647 -0.0124 -0.1029 -0.0746
31284W        W74197   4.134   9.664  26.059 -0.1477 -0.1266  0.0920
31285W        W74198   1.458  15.831  14.320  0.0125  0.0025  0.1371
31286W        W74199  31.618  21.557   5.013 -0.2733 -0.5043 -0.3876
31287W        W74200  12.909  27.846   9.726 -0.3997  0.2245  0.0412
31288W        W74201   1.603  29.923   1.592  0.2590 -0.0184 -0.0293
31289W        W74202   3.476  19.952  24.331  0.0647 -0.1636 -0.0469
31290W        W74203  33.338  14.984  20.504  0.0432 -0.2582  0.0972
31291W        W74204   2.548  22.332  21.426 -0.0977 -0.0101 -0.0844
31292W        W74205   9.874  25.906  14.446 -0.0654  0.0210  0.0256
31293W        W74206   9.317  30.068   5.891  0.1714 -0.2342  0.0175
31294W        W74207   3.934  24.123   4.361  0.2555  0.2607 -0.0904
31295W        W74208  11.980  22.331   8.294  0.0069  0.2432  0.2173
31296W        W74209  11.046  14.037   2.222 -0.1133  0.1159  0.1502
31297W        W74210  12.363  19.830  21.270 -0.1587  0.3208 -0.1734
31298W        W74211  18.111  21.942  16.694  0.1756 -0.0244  0.0104
31299W        W74212   3.059  12.902   0.906  0.0450 -0.1353  0.0975
31300W        W74213  21.611  26.069   0.674 -0.0254  0.0446 -0.1434
31301W        W74214   3.603  14.058  16.228  0.0038 -0.0892 -0.0308
31302W        W74215  32.716  16.390  18.093 -0.0323 -0.1587 -0.0870
31303W        W74216   0.833  17.978   9.042  0.1236 -0.1985  0.3418
31304W        W74217   7.194  22.732  14.180  0.0092  0.2855 -0.1621
31305W        W74218   6.898  15.831  18.775 -0.1531 -0.1113  0.0600
31306W        W74219   1.721  25.501  25.004  0.1926  0.0241  0.1370
31307W        W74220   8.288  28.104   3.843  0.0675  0.1353  0.2121
31308W        W74221   0.539  21.217  22.997  0.0249  0.0833 -0.1958
31309W        W74222   5.529  20.986  29.168 -0.1908  0.4563  0.0605
31310W        W74223   8.516  22.114   2.257  0.2029  0.0118  0.0982
31311W        W74224  34.290  31.003  23.159 -0.1184  0.3388  0.1244
31312W        W74225   6.702  20.808   0.154 -0.1648 -0.0363 -0.3144
31313W        W74226  11.265  23.502   0.795  0.0285  0.2628 -0.0978
31314W        W74227   5.842  14.691  18.532  0.0805 -0.3638 -0.2628
31315W        W74228   5.198  23.976  29.088 -0.3281  0.1786  0.0788
31316W        W74229   9.948  20.841   3.203 -0.2009  0.0238 -0.0485
31317W        W74230   3.531  29.104  27.512  0.2366  0.3148 -0.0460
31318W        W74231  31.593  26.907   2.788  0.1077  0.0068  0.0232
31319W        W74232   7.631  17.324   5.405 -0.3196  0.0657 -0.2132
31320W        W74233  28.335  22.800  24.016 -0.0030 -0.2061 -0.2328
31321W        W74234  33.942  29.291  27.394  0.1804  0.0458  0.0660
31322W        W74235   7.799  26.335  11.121 -0.0109  0.0972  0.3066
31323W        W74236  28.890  30.695   4.217 -0.1509  0.1000 -0.1901
31324W        W74237   4.892  18.106  28.904  0.2562  0.0013  0.0844
31325W        W74238  32.912  22.164   2.430  0.1055 -0.0256 -0.0347
31326W        W74239  34.425  25.911  25.518  0.0966 -0.0944  0.0262
31327W        W74240  32.126  24.242  19.927  0.1101  0.1845  0.0982
31328W        W74241   7.119   8.637  25.545  0.0669 -0.1987 -0.0313
31329W        W74242  30.580  28.753  22.872  0.1315  0.4019 -0.1889
31330W        W74243   9.663  18.476   2.277  0.0902 -0.1399  0.0266
31331W        W74244   1.867  19.165  27.395 -0.0474 -0.1441  0.0647
31332W        W74245   9.590  13.958  21.195  0.0980 -0.3957  0.0963
31333W        W74246  32.812  33.770  28.828 -0.2538 -0.3347 -0.3341
31334W        W74247   6.272  27.849  21.866  0.2082 -0.0673  0.0053
31335W        W74248  32.510  32.974  21.096 -0.3676  0.1661  0.1607
31336W        W74249  18.234  23.188  16.228 -0.0710 -0.0074 -0.2201
31337W        W74250   5.682  26.446  28.008  0.0113 -0.1807 -0.3200
31338W        W74251   3.434  32.113  22.272  0.3377 -0.1319  0.1338
31339W        W74252   1.444  31.697  29.319  0.1185 -0.1554 -0.2934
31340W        W74253   1.202  22.129  20.348 -0.0764 -0.2836  0.0792
31341W        W74254   4.074  26.919  24.140  0.2329 -0.1505 -0.2338
31342W        W74255   4.416  28.801  23.755  0.0336  0.4084 -0.1433
31343W        W74256  24.010   0.844  24.865 -0.2431  0.1006 -0.1892
31344W        W74257   8.946  32.297   6.863 -0.1334  0.3395  0.1599
31345W        W74258  10.107  15.826  24.104 -0.3971  0.4514 -0.0131
31346W        W74259  31.979   0.191   0.048  0.2875  0.1314  0.0850
31347W        W74260  33.126  21.745  23.456  0.0839 -0.3109  0.0991
31348W        W74261   6.232  32.808  21.216  0.3278  0.4611  0.0333
31349W        W74262  14.197  28.995   8.314  0.1556  0.1001 -0.1184
31350W        W74263   4.386  21.775  28.668 -0.1847  0.1388  0.0059
31351W        W74264  21.431  21.208  25.698 -0.0553 -0.2983  0.3241
31352W        W74265   6.608   2.542   6.819  0.2788  0.0152  0.0285
31353W        W74266  31.697  26.486  22.038  0.2200  0.0803 -0.1090
31354W        W74267   8.998  25.225   4.047 -0.3188  0.0447  0.0924
31355W        W74268   6.187  32.689  29.373 -0.1219 -0.1211  0.0685
31356W        W74269   3.887  19.014  28.562 -0.0487  0.0691 -0.1453
31357W        W74270   4.569  14.122   5.179  0.0004 -0.1025  0.1719
31358W        W74271   9.338  18.427  21.620  0.2189 -0.1082  0.1563
31359W        W74272   5.372  20.489  25.344  0.3025 -0.0642 -0.0353
31360W        W74273   5.917  16.157   0.188 -0.0835  0.0799 -0.1737
31361W        W74274   3.548  22.358  26.842 -0.3550  0.2236 -0.3353
31362W        W74275   3.936  20.910  28.675  0.0931  0.2726  0.3007
31363W        W74276   9.378  20.573   3.651  0.3296 -0.1780 -0.1422
31364W        W74277  13.177  28.751   1.570 -0.0543  0.0222 -0.0861
31365W        W74278   0.073   7.633  20.839 -0.1130  0.2301 -0.2354
31366W        W74279   1.575  23.100   4.533  0.0724  0.0373  0.2317
31367W        W74280  27.693  24.939  24.661 -0.3640 -0.3581  0.2207
31368W        W74281  11.702  23.968  27.014  0.2993 -0.1672 -0.0048
31369W        W74282   6.635  19.381  22.841  0.2069  0.2572 -0.1247
31370W        W74283  27.164  26.963  27.654  0.1452 -0.0082 -0.2673
31371W        W74284   1.171  24.311  16.514 -0.1408 -0.3320 -0.1753
31372W        W74285  16.824  18.725  26.033 -0.0468  0.0316 -0.3819
31373W        W74286   2.595  19.857  22.750  0.0982 -0.1030 -0.1595
31374W        W74287   4.560  25.811  23.345  0.2971  0.2755 -0.1449
31375W        W74288  32.187  17.078  15.520  0.1225 -0.1336  0.2013
31376W        W74289  20.314   6.682  20.404  0.1381 -0.1842 -0.2121
31377W        W74290   6.440  20.402  26.357  0.3310 -0.1565 -0.2495
31378W        W74291   4.922  27.601   0.215  0.1252 -0.1938 -0.2768
31379W        W74292   6.979  23.256   2.841 -0.4502 -0.1156 -0.1706
31380W        W74293   8.498  22.780  21.438  0.0500  0.0419 -0.0856
31381W        W74294  27.119  28.252   8.941 -0.3461 -0.2183  0.0040
31382W        W74295   3.684  14.578  25.642 -0.2090 -0.1995  0.2140
31383W        W74296  20.961  20.518   8.517 -0.1042  0.3639 -0.1891
31384W        W74297   6.938  26.187  19.623 -0.3777 -0.1307 -0.3561
31385W        W74298  17.973   9.489   2.766  0.0534 -0.2058 -0.0131
31386W        W74299   3.201  24.371  26.787 -0.1362 -0.0243  0.1733
31387W        W74300   2.475  33.961   4.451 -0.1031 -0.1890  0.2051
31388W        W74301  33.920  25.136   9.166  0.0685  0.0581  0.0884
31389W        W74302   1.112  23.493   9.281  0.0456 -0.1887  0.0411
31390W        W74303   0.806  29.932   1.365 -0.0733  0.0482 -0.0680
31391W        W74304   2.236  20.568   3.831  0.0800 -0.1911 -0.1661
31392W        W74305  12.157  14.334  15.808  0.1789  0.1909  0.0803
31393W        W74306   1.316  27.474  20.331  0.0281 -0.0411 -0.4052
31394W        W74307  33.800  26.739  23.121 -0.0728  0.0407 -0.1681
31395W        W74308  29.595  24.989  26.171 -0.1094 -0.1404  0.0130
31396W        W74309   3.596  31.686  28.317  0.2198  0.0464  0.1878
31397W        W74310  13.173  21.758   8.443  0.3416 -0.0241 -0.2345
31398W        W74311  33.920  31.075  25.045 -0.1814 -0.0785  0.1858
31399W        W74312   9.714  30.045  17.562  0.1825 -0.1111 -0.0660
31400W        W74313  33.031  18.953  21.085  0.3151 -0.2284  0.2190
31401W        W74314   4.002  18.597  14.886 -0.1343 -0.2344  0.1448
31402W        W74315   8.121  24.061  22.363  0.1988  0.1092 -0.0650
31403W        W74316   1.653  15.093  24.768 -0.3369  0.0226 -0.2542
31404W        W74317   2.188  30.737   0.072 -0.0764 -0.0730  0.0145
31405W        W74318  33.729  17.498  19.668 -0.1013  0.1293 -0.0807
31406W        W74319   3.548  24.698  28.728  0.1146 -0.1830 -0.0355
31407W        W74320   9.077  21.771   6.390 -0.0486  0.0919  0.1221
31408W        W74321  17.751  27.363   8.510 -0.0412  0.1125  0.0641
31409W        W74322   6.559  23.742  15.142  0.1363 -0.1474  0.1840
31410W        W74323   0.104  17.684  26.544  0.1799  0.0098  0.1243
31411W        W74324  11.865  21.514  27.796  0.0373 -0.2942  0.1440
31412W        W74325  10.546  21.258  26.667 -0.1307 -0.0746  0.5470
31413W        W74326   2.198  20.211  27.696  0.2633  0.0531 -0.0957
31414W        W74327   6.178  28.607  21.357 -0.1004  0.1289 -0.0532
31415W        W74328   9.488  19.947  27.248 -0.3428  0.0759 -0.2519
31416W        W74329  26.137  32.981  26.283  0.0608 -0.3287  0.1618
31417W        W74330  27.318  20.163  19.602 -0.1970  0.0251 -0.2108
31418W        W74331  11.558  28.253  23.513 -0.2953 -0.0270 -0.0659
31419W        W74332   6.349   0.997   2.724  0.2298 -0.0507  0.0476
31420W        W74333  14.106  21.780  25.664 -0.2153  0.0632 -0.0231
31421W        W74334   3.822  25.541  29.773  0.1172 -0.2970  0.0249
31422W        W74335   2.557  31.276   2.831  0.0707 -0.1037  0.3960
31423W        W74336  12.361  18.388  24.455  0.1200 -0.0551 -0.1340
31424W        W74337   4.704  14.608   0.663  0.2485  0.0211  0.1223
31425W        W74338   0.193  28.020  25.748  0.0662 -0.0676  0.0404
31426W        W74339  32.944  23.183   4.112  0.1959  0.3132  0.0615
31427W        W74340  11.164  20.607   0.319  0.1174  0.1063  0.1136
31428W        W74341  32.207   5.432  24.342  0.1035  0.0503 -0.0555
31429W        W74342  28.375  22.349  29.580 -0.0141  0.1154 -0.0107
31430W        W74343  27.695  14.973  26.017  0.1051  0.0063 -0.0431
31431W        W74344   6.722  24.011  26.399  0.2306  0.2056  0.4499
31432W        W74345   6.671  20.592  16.895 -0.0533  0.0775 -0.3195
31433W        W74346  12.513  25.084  18.099  0.0777 -0.0676  0.1350
31434W        W74347  12.678  29.612   5.791 -0.0455  0.1565  0.0680
31435W        W74348   6.191  21.472  19.915 -0.0408  0.0458 -0.6040
31436W        W74349   9.687  15.583   5.322 -0.3469 -0.0211 -0.1904
31437W        W74350   2.413  24.686   3.423 -0.0139 -0.1617  0.3455
31438W        W74351  25.635  22.149  25.171 -0.4078 -0.2467 -0.0954
31439W        W74352   7.895  33.834  25.050  0.2729  0.2300 -0.0436
31440W        W74353   1.099  11.941  26.569  0.2066 -0.1634 -0.0316
31441W        W74354   4.911  25.146  23.898  0.1139 -0.0173  0.4093
31442W        W74355  20.466  21.792  21.590  0.1597  0.1304 -0.1655
31443W        W74356   9.645  24.521  22.297 -0.2233 -0.3207 -0.1070
31444W        W74357  31.836  31.484  28.283 -0.1439  0.1921  0.0075
31445W        W74358  10.030  32.598  29.100  0.0259  0.1541  0.2717
31446W        W74359  13.112  24.595  22.226  0.1662 -0.0912  0.0584
31447W        W74360   0.256  14.926  24.867  0.2111  0.1651 -0.2026
31448W        W74361  29.370  19.212   6.379  0.2499 -0.0645 -0.3404
31449W        W74362  33.623  30.579   3.669 -0.1419  0.0532  0.0460
31450W        W74363  15.163  24.005   8.260 -0.1538 -0.1340  0.4602
31451W        W74364  28.215  28.588  20.315  0.2280 -0.2401  0.0401
31452W        W74365   0.200  26.387   0.047 -0.0417 -0.0771 -0.0398
31453W        W74366   2.172  26.786  21.065 -0.2435 -0.0555  0.3320
31454W        W74367  11.719   0.301   6.877 -0.2078  0.0585 -0.2382
31455W        W74368   7.779  24.449  22.520  0.0456 -0.4800  0.4672
31456W        W74369   1.590  18.316   7.152  0.0384  0.1071  0.1055
31457W        W74370   2.611  25.651  18.452 -0.0075  0.0804  0.0960
31458W        W74371   4.338  22.426   6.271 -0.2985 -0.0351 -0.0965
31459W        W74372   2.086  17.849  26.691 -0.0303  0.2651 -0.2580
31460W        W74373  32.766  26.116  19.391  0.2946 -0.1606 -0.0147
31461W        W74374   1.518  29.271   3.690  0.0258  0.1529 -0.0459
31462W        W74375   9.491  18.631  25.190 -0.1218 -0.0448 -0.0496
31463W        W74376  27.081   3.434  25.872 -0.2289  0.0854 -0.1838
31464W        W74377  16.963  17.707  23.603  0.2218  0.0850 -0.0155
31465W        W74378   7.541  21.781   6.689  0.0168  0.1263  0.0822
31466W        W74379   1.181  21.505  28.903  0.2587  0.0365 -0.2500
31467W        W74380  27.503  21.286   4.010  0.0990 -0.1800 -0.3031
31468W        W74381  27.714  19.073  24.226  0.0081  0.3093  0.1211
31469W        W74382   8.196  25.811  29.152  0.0598  0.1848 -0.0599
31470W        W74383   0.600  20.126  26.725 -0.2343  0.1172 -0.2790
31471W        W74384   3.086  24.727   0.614 -0.2594  0.3146  0.3489
31472W        W74385   0.825  22.418  26.247  0.2604  0.1949  0.1403
31473W        W74386  11.055  18.228  19.674 -0.1265 -0.0466  0.1589
31474W        W74387   0.861  26.287   1.573  0.0836 -0.0364 -0.0617
31475W        W74388   9.240  29.232  10.619  0.0005  0.4676  0.0195
31476W        W74389   8.842  19.295  27.225 -0.0499 -0.0592  0.0154
31477W        W74390   6.870  33.298  25.881  0.0659 -0.0041  0.1242
31478W        W74391   7.952  23.613  19.823  0.2921  0.0203 -0.3261
31479W        W74392   3.526  28.068   4.296 -0.0996 -0.0924  0.1104
31480W        W74393   3.550  23.806  18.477  0.1421 -0.0164  0.3690
31481W        W74394  13.660  22.895   4.666  0.1302 -0.5115 -0.0009
31482W        W74395   3.801  19.640  25.019  0.2988  0.2531 -0.0048
31483W        W74396  33.562  12.330  17.734  0.0463  0.4712 -0.3257
31484W        W74397   3.746  24.150   9.997 -0.1827  0.0158  0.1329
31485W        W74398  16.472  19.967   1.894  0.1234 -0.0942  0.0366
31486W        W74399   2.192  13.372  27.412 -0.0776 -0.2687  0.3609
31487W        W74400   2.123  19.795  28.536 -0.1418  0.1495  0.0369
31488W        W74401  12.729  32.795   8.982  0.2975  0.1257  0.1166
31489W        W74402   1.810  30.415   3.855  0.0541 -0.0462  0.1448
31490W        W74403   8.746  21.548   6.848  0.1723 -0.0386  0.1722
31491W        W74404  28.054  21.715   4.820 -0.2063 -0.3877  0.0991
31492W        W74405   7.121  25.689   8.404  0.2391 -0.1657 -0.2675
31493W        W74406   5.397  21.204  21.188  0.0580  0.1457 -0.2927
31494W        W74407   1.691  25.532   5.729  0.2863 -0.0586 -0.0402
31495W        W74408  13.122  28.525   3.559  0.2219 -0.3215  0.3851
31496W        W74409  10.016  17.005   0.725 -0.0932  0.0733  0.1631
31497W        W74410   9.528  11.518   2.372  0.1589 -0.1551  0.3241
31498W        W74411  32.542  21.410   3.375  0.2749 -0.2438 -0.4596
31499W        W74412   4.603  15.126  22.990  0.1070 -0.0291  0.0484
31500W        W74413  28.108  23.255  26.098  0.0206 -0.0229  0.0349
31501W        W74414   0.231  10.328   3.819  0.1240 -0.0830 -0.1112
31502W        W74415  33.848  24.948   5.693 -0.3868  0.0547  0.2034
31503W        W74416  10.645  26.064  21.323 -0.2120  0.0467 -0.1762
31504W        W74417   9.101  12.908  27.436 -0.0355  0.3346  0.0264
31505W        W74418   7.168  21.900  27.354  0.5492 -0.4414  0.1133
31506W        W74419  24.702  27.751  21.344  0.0594  0.0350  0.1038
31507W        W74420  28.263  22.114   2.818  0.0361 -0.0150 -0.2607
31508W        W74421   1.387  11.194  18.773  0.0274 -0.2759 -0.1872
31509W        W74422  13.294  16.214  24.656  0.0901  0.1258  0.0886
31510W        W74423   4.205  18.247  19.379  0.3170 -0.0334  0.2114
31511W        W74424  15.901  28.020   1.998 -0.3115  0.0981  0.0568
31512W        W74425   1.548  12.870  28.453 -0.3962  0.3371  0.0515
31513W        W74426   1.762  24.957   9.452 -0.3132  0.1605 -0.0456
31514W        W74427   6.996  11.893   3.880 -0.1523 -0.1648 -0.0005
31515W        W74428  15.573  17.126  13.983 -0.0464  0.0958  0.1081
31516W        W74429   8.335  26.426  16.526  0.2316 -0.1832 -0.1756
31517W        W74430  12.992  18.648   2.316  0.2128 -0.0673 -0.3889
31518W        W74431   5.362  25.510  10.218  0.0793  0.2146  0.1105
31519W        W74432   1.632  23.630  26.591 -0.2286 -0.0303 -0.0401
31520W        W74433   5.145  26.393  22.874 -0.3708 -0.2413  0.0551
31521W        W74434  29.087  18.909  29.671 -0.3131 -0.2798  0.0188
31522W        W74435   0.688  33.490  24.076 -0.1090  0.0059 -0.2140
31523W        W74436  33.846  31.221  28.475 -0.0683  0.1809 -0.0903
31524W        W74437   0.145  27.314  22.613  0.0581 -0.2880  0.0150
31525W        W74438  33.688  16.907  23.150  0.3848 -0.1688 -0.0852
31526W        W74439  23.682   7.179  26.570  0.0233 -0.0183  0.1687
31527W        W74440   3.658  20.977  27.807 -0.2367  0.0423  0.0975
31528W        W74441   6.529  24.565   3.039 -0.1292  0.1797  0.2936
31529W        W74442  29.881  20.687   8.028  0.0267  0.3975  0.3112
31530W        W74443   8.087  32.420  17.815 -0.3304  0.1854  0.0239
31531W        W74444  12.497  23.265  23.041 -0.3083  0.0104 -0.3338
31532W        W74445  10.460  27.269  16.563 -0.1694  0.2460 -0.2654
31533W        W74446  30.031  24.134  24.734  0.0195  0.0385  0.0783
31534W        W74447   6.594  18.866  23.419  0.1077 -0.1038  0.0447
31535W        W74448   4.014  14.890  16.528  0.1721 -0.0639 -0.1750
31536W        W74449   3.331  16.613  15.778 -0.1692 -0.0081  0.0338
31537W        W74450   0.415  26.352  21.573  0.1597  0.2361 -0.1839
31538W        W74451   1.789  32.758  26.315 -0.1881 -0.1903 -0.3433
31539W        W74452   2.730  25.009  24.742  0.2656 -0.1751 -0.0639
31540W        W74453   7.412  25.506  25.825 -0.0430  0.3119  0.1500
31541W        W74454   7.611  24.281  14.874 -0.3104 -0.3023 -0.1515
31542W        W74455  26.879  33.290  18.045 -0.4484 -0.1469  0.0943
31543W        W74456   6.686  25.774  15.413 -0.0706  0.0293  0.1770
31544W        W74457  10.929  24.322  14.795  0.6459  0.0993  0.1136
31545W        W74458   0.583  26.897  17.763  0.2750  0.2526 -0.0105
31546W        W74459   4.748  32.920  18.187 -0.0671  0.0906 -0.2743
31547W        W74460  30.827  22.133  20.764 -0.2090 -0.1507 -0.2750
31548W        W74461   9.402  30.937  22.801 -0.1278  0.0692 -0.0611
31549W        W74462   4.308  17.452  20.444 -0.0050 -0.0582 -0.1259
31550W        W74463  11.197   2.806  18.125 -0.2584  0.0884 -0.0651
31551W        W74464   2.596  30.505  17.545  0.1133  0.1592 -0.0947
31552W        W74465   0.291  25.471  22.785  0.2286  0.1247 -0.3656
31553W        W74466   7.882  18.587  22.899  0.0764  0.1570  0.0612
31554W        W74467   3.579  27.784  20.885  0.0910  0.0307  0.4416
31555W        W74468  32.041  32.111  18.602  0.2139  0.1020  0.0211
31556W        W74469   2.139  29.379  26.753  0.0683  0.1595 -0.0901
31557W        W74470  33.139  26.145  23.074  0.0978  0.1670  0.2048
31558W        W74471   3.658  33.571  21.714  0.2616 -0.2997  0.2308
31559W        W74472  13.850  11.656  18.066  0.0877  0.0020 -0.1850
31560W        W74473   5.558  21.695  21.405 -0.0866 -0.0384  0.1120
31561W        W74474   4.036  24.051  15.987 -0.0122  0.0012  0.0575
31562W        W74475  10.203  27.316  25.887  0.1288  0.1738  0.0451
31563W        W74476  34.208  24.903  18.425  0.1205  0.0649  0.0608
31564W        W74477   6.138  19.276  22.691  0.0868 -0.4370  0.1599
31565W        W74478   9.564  27.892  18.011  0.0905  0.0653 -0.1527
31566W        W74479   4.185  29.973  16.478 -0.1489 -0.1266  0.4015
31567W        W74480  13.588  22.853  24.250 -0.3515 -0.1398 -0.0252
31568W        W74481  24.769  22.972  13.724 -0.0671 -0.2165  0.0332
31569W        W74482   6.753  18.540  19.567 -0.1224 -0.3433  0.0907
31570W        W74483  30.149  24.360  20.390  0.0644  0.2235 -0.2938
31571W        W74484   8.913   0.292  22.908  0.0300 -0.0341 -0.0585
31572W        W74485  13.148  19.423  14.824  0.0883 -0.0568 -0.0241
31573W        W74486   3.534  27.626  24.840  0.1126  0.0932  0.0224
31574W        W74487  27.708  11.751  15.566 -0.0032 -0.1433  0.1374
31575W        W74488  11.837  29.572  20.361 -0.2715  0.0760  0.1337
31576W        W74489  30.093  29.689  22.487 -0.0356 -0.1954 -0.1701
31577W        W74490   5.977  31.642  18.125 -0.1824  0.3936  0.0164
31578W        W74491  11.321  16.627  27.511  0.0118  0.0179 -0.1346
31579W        W74492   9.068  18.632  13.144 -0.0420  0.0144 -0.2256
31580W        W74493   8.569  23.836  21.595  0.1173  0.5089 -0.0124
31581W        W74494  13.119  23.513  27.103  0.0335  0.2744  0.1565
31582W        W74495  10.870  28.155  24.467 -0.1100  0.1018  0.0071
31583W        W74496  33.487  30.467  17.282  0.0242  0.0304 -0.0305
31584W        W74497  13.106  28.801  19.208  0.2045  0.1582  0.0598
31585W        W74498   2.638  16.502  21.546 -0.0646 -0.0260  0.0005
31586W        W74499  31.764  34.105  16.127  0.0594 -0.0364  0.0624
31587W        W74500   9.169  29.773  15.616 -0.0365  0.0547 -0.0837
31588W        W74501  11.818   1.248  18.499  0.1511 -0.0841 -0.2334
31589W        W74502  10.089  24.886  15.220  0.0494 -0.0847 -0.1461
31590W        W74503   0.229  30.118  16.632  0.2617  0.1290  0.1296
31591W        W74504   3.793  31.184  18.492 -0.2728 -0.3012  0.0324
31592W        W74505  32.748  25.727  17.430  0.1741 -0.0013  0.1392
31593W        W74506   3.123  19.710  18.714  0.0834  0.2412  0.0913
31594W        W74507   7.703  28.046  19.051 -0.3158 -0.2961  0.0290
31595W        W74508  10.826  24.329  22.187  0.0241 -0.2464 -0.0552
31596W        W74509   9.767  28.147  18.467  0.0365  0.1733  0.1658
31597W        W74510  18.106   2.057  18.089 -0.1737  0.1729 -0.2630
31598W        W74511   0.804  33.620  19.359 -0.1730  0.0308  0.0630
31599W        W74512   4.355  31.201  16.183  0.0430 -0.0127 -0.3025
31600W        W74513   9.740  28.554  16.453 -0.1212  0.1925  0.1007
31601W        W74514   7.636  23.666  16.779  0.0349  0.0711  0.3809
31602W        W74515  14.955  16.505  15.505 -0.1215 -0.1500  0.3222
31603W        W74516   5.391  22.252  22.355  0.1195 -0.0541  0.0549
31604W        W74517  30.554  22.808  22.541  0.3703  0.1980 -0.3000
31605W        W74518  11.749  28.464  18.446  0.1227  0.0665  0.0641
31606W        W74519   7.821  21.057  27.580 -0.1449 -0.2390  0.0381
31607W        W74520  11.225  27.486  16.817 -0.1410 -0.2353  0.0281
31608W        W74521  14.180  33.022  19.336  0.1880 -0.3116  0.0068
31609W        W74522   7.604  30.527  16.941 -0.3592 -0.1449 -0.0496
31610W        W74523  30.366  18.654  28.654  0.0924 -0.0499 -0.0146
31611W        W74524  32.832  22.159  14.617  0.1278 -0.0325 -0.0424
31612W        W74525  29.908  26.339  18.787  0.0321 -0.1815  0.1370
31613W        W74526   6.476  20.340  17.856 -0.1464  0.2036 -0.0591
31614W        W74527  33.118  27.653  21.740 -0.2168 -0.0708 -0.4089
31615W        W74528   9.646  32.052  16.730 -0.0684 -0.0634  0.0463
31616W        W74529   6.925  19.673  26.765 -0.1374 -0.1455 -0.0078
31617W        W74530   6.249  24.071  21.348 -0.0857  0.0300 -0.3684
31618W        W74531   7.710  27.856  18.218  0.0200 -0.1799 -0.1809
31619W        W74532  14.967  26.177  21.871 -0.1265 -0.0679  0.0898
31620W        W74533   4.481  30.454  18.943  0.0498  0.1177 -0.0284
31621W        W74534  23.562  22.870  17.553 -0.0744  0.0116  0.1288
31622W        W74535   5.127  29.337  15.518 -0.1865 -0.1971 -0.1035
31623W        W74536  33.491  34.126  17.477 -0.1479 -0.1319 -0.0732
31624W        W74537  30.379  34.223  20.850  0.0731 -0.0082 -0.3211
31625W        W74538  32.826  15.746  20.231  0.4165 -0.0349  0.1162
31626W        W74539   4.140  19.871  14.716  0.0859  0.1139 -0.1099
31627W        W74540  32.952  20.176  21.148  0.1059  0.1089  0.0727
31628W        W74541   6.669  33.222  18.322 -0.2075 -0.0211  0.1239
31629W        W74542   3.816  31.292  14.906  0.1090  0.1212  0.0888
31630W        W74543  32.537  32.208  18.443  0.1088  0.0706 -0.2107
31631W        W74544   7.151  19.265  16.738  0.2584 -0.1373  0.3608
31632W        W74545   3.179  26.376  17.989 -0.0250  0.0016 -0.0931
31633W        W74546  32.459  31.368  16.034 -0.0651 -0.1405  0.3171
31634W        W74547   5.548  25.577  17.646 -0.3139  0.3138 -0.0227
31635W        W74548   3.190  28.601  24.108 -0.0867 -0.1881 -0.1324
31636W        W74549   6.367  19.234  23.264  0.0807  0.0617  0.1314
31637W        W74550   4.853   1.435  20.496 -0.1859 -0.2365  0.5846
31638W        W74551   5.775  26.666  19.771  0.0071 -0.0651 -0.0068
31639W        W74552   2.697  24.097  15.977 -0.4025  0.1393  0.1203
31640W        W74553   2.293  23.377  22.099  0.1029 -0.0442  0.0459
31641W        W74554   6.662  23.780  17.877  0.1090 -0.1256 -0.0199
31642W        W74555  12.587  29.624  23.323 -0.1952  0.4067 -0.3321
31643W        W74556   6.677  15.949  19.209 -0.2530  0.0363  0.2068
31644W        W74557  20.948  14.849  14.787  0.0661 -0.0073  0.2293
31645W        W74558   4.579  17.848  20.431 -0.2690  0.0619  0.0987
31646W        W74559   4.974  26.481  18.408  0.4283 -0.0750 -0.0981
31647W        W74560  13.684  27.376  25.125 -0.1410  0.1650  0.0897
31648W        W74561   3.282  21.885  14.319  0.1049  0.1086  0.2155
31649W        W74562   3.055  20.322  13.364 -0.0098 -0.2127 -0.1315
31650W        W74563   7.832  29.989  20.907  0.3182  0.1524  0.0849
31651W        W74564   0.053  24.776  15.308 -0.4627  0.2386  0.0130
31652W        W74565   0.583  19.253  14.102 -0.0483  0.4309 -0.0472
31653W        W74566   5.322  29.338  25.712 -0.1301  0.0456  0.0578
31654W        W74567   6.175  31.067  18.473 -0.0443  0.0735 -0.1032
31655W        W74568  33.468   0.909  24.181  0.2611  0.0324  0.1997
31656W        W74569  29.455  27.638  19.163  0.2444 -0.2961 -0.1987
31657W        W74570   6.026  30.597  17.787  0.0619  0.2523 -0.0448
31658W        W74571   5.574  24.783  25.769 -0.2222  0.0770 -0.0408
31659W        W74572  33.522  25.927  19.006  0.0509  0.0492  0.1665
31660W        W74573   7.576  26.372  16.250  0.0433  0.1948 -0.2313
31661W        W74574   4.974  25.747  26.301 -0.1285  0.2560  0.1006
31662W        W74575   4.497  23.582  23.769 -0.1688 -0.0297 -0.0815
31663W        W74576   4.457  15.655  15.462 -0.1740  0.1489 -0.3645
31664W        W74577   8.593  27.300  22.624  0.2275  0.0678 -0.1050
31665W        W74578   5.630  22.488  21.969  0.1750  0.2941  0.2230
31666W        W74579  34.021  34.271  20.017 -0.0201  0.2083  0.0160
31667W        W74580   6.960  22.878  18.017  0.0654 -0.2688 -0.0040
31668W        W74581   9.774  25.182  28.610 -0.1470 -0.3486 -0.1166
31669W        W74582   1.822  30.668  23.139 -0.3086 -0.0539 -0.0590
31670W        W74583   4.171  23.091  21.777  0.1307  0.1396 -0.0346
31671W        W74584  18.990  25.688  15.012  0.1266  0.0688  0.1201
31672W        W74585   4.470  15.641  16.043 -0.2122  0.0881 -0.0908
31673W        W74586   3.907  34.379  18.310 -0.3722  0.1865  0.1287
31674W        W74587  28.199  25.372  15.517  0.1545 -0.0794  0.0692
31675W        W74588  18.019  25.630  15.790 -0.0168  0.0944 -0.4292
31676W        W74589  28.050  25.905  23.185 -0.3804  0.3500  0.0707
31677W        W74590   7.547  21.043  15.926  0.0523 -0.1550  0.0636
31678W        W74591  31.114  22.750  19.930  0.2690 -0.0661  0.0367
31679W        W74592   5.868  30.976  17.413 -0.1583  0.3067 -0.1368
31680W        W74593  11.473  29.123  18.148 -0.1064 -0.1059  0.1330
31681W        W74594   8.772  17.045  19.648  0.1795 -0.1369  0.1276
31682W        W74595   8.749  25.798  16.423  0.3581  0.0356 -0.0767
31683W        W74596   8.910  22.266  25.073 -0.1605 -0.1344  0.3816
31684W        W74597  12.525  26.504  19.952 -0.1858  0.1089 -0.4947
31685W        W74598   0.443  29.219  18.595  0.1191 -0.1250  0.1917
31686W        W74599  27.967  29.054  25.071 -0.0570 -0.0416 -0.2265
31687W        W74600   9.416   1.115  27.877 -0.0101 -0.1128 -0.0642
31688W        W74601  10.168  20.486  25.571 -0.4347 -0.3378  0.0037
31689W        W74602   0.085  21.654  14.616 -0.1095  0.1345  0.1062
31690W        W74603   2.330  22.270  16.694  0.1309 -0.2138 -0.0842
31691W        W74604   4.411  22.618  14.791 -0.0962  0.3222  0.1926
31692W        W74605   0.135   6.503  17.931  0.1456  0.0192  0.2787
31693W        W74606  10.474  21.572  14.851  0.3036 -0.1323 -0.2075
31694W        W74607   8.966  19.590  18.018 -0.0207  0.4784  0.1618
31695W        W74608   4.268  32.782  18.841  0.0023 -0.2211  0.0995
31696W        W74609  32.846  24.374  15.816  0.0081 -0.1911  0.3691
31697W        W74610   1.375  30.209  20.010  0.0023  0.0635  0.0466
31698W        W74611   4.375  21.629  17.161  0.1535  0.0423  0.1646
31699W        W74612   8.600  28.276  18.736  0.4832  0.0636 -0.4273
31700W        W74613   2.934   1.493  18.055  0.1818  0.0051 -0.1451
31701W        W74614   3.644   1.977  16.528 -0.1268 -0.1773 -0.0980
31702W        W74615   0.962  27.905  16.731 -0.2011  0.0523  0.1880
31703W        W74616   9.296  31.502  23.757  0.0289  0.0815  0.0667
31704W        W74617  32.959  27.007  18.716 -0.5039  0.0478  0.0228
31705W        W74618  12.429  23.507  18.214 -0.2066  0.3175  0.1934
31706W        W74619  26.681  22.454  15.001 -0.0176 -0.0646 -0.4926
31707W        W74620  11.170  19.864  18.634 -0.0454  0.0580 -0.1615
31708W        W74621   2.495  31.049  27.959  0.1584  0.3726  0.0580
31709W        W74622   5.483  31.049  17.074 -0.0849  0.2172  0.1536
31710W        W74623   2.665  29.337  15.185 -0.1262  0.3269  0.1889
31711W        W74624  14.081  26.590  22.330 -0.2285  0.0079  0.3073
31712W        W74625   4.689  27.695  17.533 -0.0096 -0.1920 -0.2695
31713W        W74626  28.686  24.445  27.886 -0.2773  0.0578  0.2532
31714W        W74627   5.859  33.847  23.264 -0.2682 -0.0334 -0.4814
31715W        W74628  10.617  33.644  17.432 -0.1649 -0.1215 -0.0409
31716W        W74629   2.377  11.079  15.768  0.0770  0.2499  0.2409
31717W        W74630   1.512  29.090  15.815 -0.2660 -0.2732  0.0383
31718W        W74631   8.629  27.395  18.190 -0.1912 -0.2203 -0.3625
31719W        W74632   8.522  27.088  17.789 -0.0606  0.0242  0.4519
31720W        W74633  11.794  16.234  22.669 -0.0123 -0.1066 -0.0348
31721W        W74634   9.076  23.104  15.504 -0.0707  0.1595  0.0574
31722W        W74635   3.226  20.843  18.908 -0.0131 -0.2238  0.0008
31723W        W74636   9.855  20.308  15.014  0.0716  0.3830 -0.2457
31724W        W74637   4.746  29.588  21.522  0.3666  0.0545 -0.0325
31725W        W74638  25.531  27.438  20.995 -0.0049  0.2118 -0.2510
31726W        W74639   2.364  22.232  24.221 -0.3469  0.2113 -0.0309
31727W        W74640   8.980  30.689  17.560  0.1881  0.2505 -0.1384
31728W        W74641   0.644  28.959  25.678 -0.1115  0.2502 -0.1580
31729W        W74642  34.332  26.985  17.309 -0.4384 -0.1411  0.3017
31730W        W74643  31.918   1.161  22.349 -0.1065 -0.1816 -0.3943
31731W        W74644  29.461  29.481  23.591  0.2249 -0.0449 -0.1490
31732W        W74645   8.826  24.096  17.772 -0.0766 -0.3947 -0.0445
31733W        W74646  16.141  28.807  17.046 -0.2213  0.3343  0.0367
31734W        W74647  14.322  29.078  15.667  0.2151 -0.2025  0.1287
31735W        W74648   3.901  21.937  19.520 -0.0188  0.2006  0.0720
31736W        W74649   5.623  17.082  15.982  0.0343 -0.0097  0.2520
31737W        W74650  17.887  29.183  21.450 -0.1422 -0.0324 -0.0428
31738W        W74651  14.667  21.860  14.397  0.1750 -0.0591 -0.1169
31739W        W74652   1.085  20.981  21.213 -0.1009  0.0534  0.2065
31740W        W74653  12.680  14.911  13.224 -0.1406  0.1990  0.1293
31741W        W74654  32.865  19.747  21.447  0.0736 -0.1707 -0.1269
31742W        W74655  30.336  26.300  19.909 -0.0819 -0.0101  0.0503
31743W        W74656   0.427  27.571  21.974 -0.0501 -0.0129  0.2784
31744W        W74657   5.905  21.270  21.324  0.2700  0.0098  0.2409
31745W        W74658   1.557  26.034  16.251  0.0709 -0.0209  0.1517
31746W        W74659   6.457  23.627  16.788 -0.1603 -0.0849  0.0326
31747W        W74660  10.459  25.861  18.112 -0.2076  0.0355 -0.0273
31748W        W74661   7.003  29.693  18.432 -0.2076  0.0046 -0.1261
31749W        W74662   7.370  31.177  19.201  0.4063 -0.0677 -0.1709
31750W        W74663  24.413  11.037  14.269 -0.0559  0.2762 -0.3922
31751W        W74664   2.250  19.295  15.053  0.0399 -0.3494  0.4091
31752W        W74665   1.738  20.449  20.080  0.2775  0.1261 -0.1884
31753W        W74666  33.024   1.234  17.768  0.1573  0.0807 -0.0697
31754W        W74667  32.780  20.323  19.888  0.1100 -0.0426 -0.1872
31755W        W74668  10.282  24.883  18.180 -0.1279  0.2291  0.4479
31756W        W74669  13.123  21.295  16.484 -0.0684  0.1908 -0.1323
31757W        W74670   8.014  19.230  19.730 -0.1334  0.0467  0.3429
31758W        W74671  33.140  25.141  17.595  0.4132  0.1823 -0.1251
31759W        W74672  10.858  17.722  14.251 -0.1277 -0.0177 -0.1644
31760W        W74673   5.073  22.765  20.585  0.2132  0.0385  0.1213
31761W        W74674  13.123  24.880  28.634 -0.0810 -0.1470 -0.1171
31762W        W74675  12.082  28.128  21.808  0.0974 -0.0045 -0.0322
31763W        W74676  32.559  25.404  26.527  0.2830  0.1349  0.0507
31764W        W74677  32.962  24.830  19.327  0.2284 -0.0299  0.3052
31765W        W74678  13.349  21.380  26.275 -0.0026 -0.0642  0.0900
31766W        W74679  32.751  24.220  21.509 -0.0724 -0.0504  0.0638
31767W        W74680   6.400  22.390  17.453  0.1224  0.2294 -0.1686
31768W        W74681   3.811  19.447  13.969 -0.2610 -0.0486  0.2214
31769W        W74682   6.389  18.184   5.701 -0.3121 -0.1086  0.4312
31770W        W74683  14.482  26.335  16.504 -0.0444  0.4422  0.0411
31771W        W74684   0.493  32.040  21.052 -0.1422 -0.0078 -0.3059
31772W        W74685  12.276  16.429  13.911 -0.1204 -0.1079 -0.1208
31773W        W74686   3.427  27.674  15.596  0.2853 -0.2500 -0.2959
31774W        W74687  17.921   2.618   3.778  0.2868  0.2300  0.0416
31775W        W74688  15.966  31.214  24.440  0.0247 -0.1019 -0.0542
31776W        W74689   8.741  17.231  23.842 -0.0911  0.0431 -0.0768
31777W        W74690   0.725  31.567  17.678 -0.0807  0.1357  0.1984
31778W        W74691  30.548  14.343  26.106 -0.3022  0.0707  0.0389
31779W        W74692   1.698  30.370  21.963  0.1073  0.1540 -0.1757
31780W        W74693  11.125  28.299  17.970 -0.0717  0.3231  0.0878
31781W        W74694   5.639  23.412  22.575 -0.1033 -0.1777 -0.0418
31782W        W74695  14.375  25.629  20.927  0.3000 -0.1230  0.1313
31783W        W74696  33.841  21.776  24.172  0.2526 -0.0938 -0.1247
31784W        W74697   6.445  33.513  21.014  0.4553  0.1186 -0.1577
31785W        W74698  33.636  30.405  16.121  0.2997 -0.0630 -0.3294
31786W        W74699   2.725  25.149   1.414 -0.1000  0.0244  0.2297
31787W        W74700   8.316  20.024  26.475 -0.3914  0.3039 -0.1800
31788W        W74701   0.280   3.122  19.286 -0.1503 -0.1242  0.0202
31789W        W74702   7.187  26.185  22.633  0.2096 -0.1008 -0.0061
31790W        W74703   1.099  25.742  16.987 -0.1760 -0.1792 -0.2523
31791W        W74704  33.402  30.005  16.529  0.2196  0.2167  0.0615
31792W        W74705  13.888  19.812  22.160 -0.3807 -0.0790 -0.0781
31793W        W74706   6.498   1.516  18.733  0.3294  0.2504  0.0115
31794W        W74707   5.558  21.591  27.183 -0.0338 -0.0490  0.1040
31795W        W74708   4.915  22.078  16.530  0.0996 -0.2737  0.1230
31796W        W74709   0.954  26.006  21.226  0.0581 -0.0283  0.0802
31797W        W74710  34.350  33.782  24.727 -0.0702 -0.0607  0.1749
31798W        W74711  18.086  29.835  24.971 -0.3188 -0.1167  0.2473
31799W        W74712   8.583  24.166  22.630  0.0226  0.0700 -0.1940
31800W        W74713   0.883  27.808  17.483 -0.0272  0.0889  0.1267
31801W        W74714   7.600  21.848  20.815  0.0519  0.0294 -0.1555
31802W        W74715  10.812  28.553  26.420 -0.1729 -0.2481  0.0058
31803W        W74716   7.448  24.026  15.273 -0.1997  0.1258  0.1220
31804W        W74717   5.374  24.266  15.827  0.0548  0.3126 -0.2136
31805W        W74718   8.245   4.923  22.202 -0.0673 -0.2538  0.0307
31806W        W74719   0.054  24.127  26.363  0.2500 -0.0570  0.0438
31807W        W74720   3.845  29.218  19.844 -0.1027  0.2540  0.0620
31808W        W74721  33.956  22.138  16.890 -0.2642 -0.2161 -0.1192
31809W        W74722   3.590   0.575  21.574 -0.0145 -0.0266 -0.4863
31810W        W74723  22.214  21.832  16.920 -0.0845 -0.0394 -0.1821
31811W        W74724   6.278  22.829  19.007 -0.2245 -0.1854 -0.0741
31812W        W74725   5.033  22.957  18.247  0.0935  0.5227 -0.2417
31813W        W74726   2.542  30.647  19.846 -0.0477  0.3539 -0.2758
31814W        W74727  14.049  22.217  13.878 -0.3223 -0.0679  0.1270
31815W        W74728  11.184   8.301  21.706 -0.1855 -0.0643  0.1435
31816W        W74729   8.851   5.061  19.299 -0.1413 -0.0482 -0.2756
31817W        W74730   2.549  20.735  20.512 -0.2425 -0.1087  0.0165
31818W        W74731   2.423  16.016  20.209 -0.0759 -0.0316  0.2902
31819W        W74732   7.790  26.452  16.809 -0.5507 -0.3506 -0.0050
31820W        W74733  14.962  29.279  17.365 -0.0913 -0.0635  0.0714
31821W        W74734  34.025  21.174  22.182 -0.0271 -0.0750 -0.2270
31822W        W74735   1.222  22.209  15.213  0.0043 -0.1110  0.1700
31823W        W74736  20.836  26.908  15.646  0.1375  0.2235  0.0566
31824W        W74737  21.931  32.218  14.483 -0.1813  0.1594 -0.4111
31825W        W74738   4.889  17.954  26.493 -0.0517 -0.1829  0.1075
31826W        W74739  30.837  32.169  21.126 -0.1581 -0.1391 -0.0077
31827W        W74740  31.873  30.374  15.599  0.2693 -0.1291  0.2312
31828W        W74741   4.305  30.143  16.985  0.3064  0.3581 -0.1712
31829W        W74742  23.906  29.322  15.337 -0.0101 -0.0076 -0.3675
31830W        W74743   8.414  27.898  19.824  0.0778  0.1279 -0.0522
31831W        W74744  14.602  32.594  17.844 -0.0068 -0.0775 -0.0457
31832W        W74745   3.003  32.724  19.339 -0.0981  0.1241 -0.1574
31833W        W74746   7.811  25.412  16.152  0.2274  0.0567 -0.0617
31834W        W74747   8.742  27.456  24.732 -0.0430 -0.1822 -0.2432
31835W        W74748  11.901  30.750  18.227 -0.4008  0.0288  0.0644
31836W        W74749  31.054  31.086  27.548 -0.0499 -0.0895 -0.0425
31837W        W74750  28.280   2.955  18.806 -0.0027 -0.3161  0.0466
31838W        W74751   6.699  22.603  15.881  0.0525  0.0926 -0.1428
31839W        W74752  11.889  30.321  25.675  0.1693  0.2065  0.1504
31840W        W74753   5.494  25.020  19.199 -0.0942 -0.3980 -0.0457
31841W        W74754   8.411  29.079  23.933  0.1403  0.1658 -0.0379
31842W        W74755   4.044  20.318  21.328  0.3933 -0.1541  0.3880
31843W        W74756   3.994  17.780  17.079  0.2232 -0.2121 -0.1432
31844W        W74757  33.008   0.745  17.369 -0.0401  0.2464 -0.0793
31845W        W74758   9.165  23.976  26.553  0.1237 -0.1629 -0.1261
31846W        W74759  31.056  17.398  22.182  0.1490  0.2334 -0.0321
31847W        W74760   3.180  18.499  14.686  0.3668  0.1570  0.3359
31848W        W74761  23.421  30.395  16.579  0.1596  0.0569 -0.3532
31849W        W74762  10.228  26.561  15.733  0.1818  0.1022 -0.0006
31850W        W74763   7.453   0.462  21.520 -0.1146  0.1282 -0.0065
31851W        W74764  17.967  27.660  18.416  0.2589 -0.0419 -0.2362
31852W        W74765  19.010  32.207  19.125 -0.1044 -0.1908  0.0717
31853W        W74766   8.007  25.116  23.165  0.3588  0.0377 -0.0845
31854W        W74767  11.786  25.993  22.791 -0.0245 -0.0418 -0.0735
31855W        W74768   3.906  26.840  14.309  0.4271 -0.1892  0.3106
31856W        W74769  10.483  22.175  17.135  0.0798  0.1102  0.0342
31857W        W74770   5.987  24.273  17.558  0.1680 -0.0585  0.0419
31858W        W74771  31.360  23.844  28.862  0.0422  0.3147  0.0355
31859W        W74772  11.609  22.223  14.859  0.2668  0.0711  0.0648
31860W        W74773   0.945  23.721  24.867  0.0703  0.3322 -0.1309
31861W        W74774  11.970  27.910  21.387 -0.2326  0.0673  0.2773
31862W        W74775  15.276  26.681  16.410  0.1464  0.2172  0.0932
31863W        W74776  10.520  24.969  18.854  0.0131 -0.1765 -0.0968
31864W        W74777  14.782  29.180  18.368  0.2270  0.0342 -0.2123
31865W        W74778   1.748  26.065  14.801  0.0994  0.2059 -0.2254
31866W        W74779  29.739  26.148  16.372  0.0831 -0.0857 -0.1852
31867W        W74780   7.951  30.013  27.644 -0.3510 -0.0050 -0.1350
31868W        W74781   2.917  24.024  16.581 -0.2165 -0.0652 -0.2131
31869W        W74782   7.946  20.722  22.941  0.1782  0.3030 -0.0434
31870W        W74783  34.480  29.238  15.293 -0.0595 -0.2096  0.0691
31871W        W74784   6.338  22.945  15.017 -0.0452  0.0839 -0.0752
31872W        W74785   3.520  26.435  17.177 -0.0692  0.2064 -0.0912
31873W        W74786   4.562  28.786  21.103  0.0039  0.3895 -0.1237
31874W        W74787   7.442  10.232  19.480  0.3826  0.4102  0.2364
31875W        W74788   2.297  21.162  16.694 -0.2890  0.1601 -0.1644
31876W        W74789  31.510  22.987  14.509 -0.3074  0.0018 -0.2078
31877W        W74790   4.829  23.627  14.287 -0.0338 -0.2597 -0.1158
31878W        W74791   8.282  25.932  18.527  0.0549 -0.1509  0.0977
31879W        W74792   7.127  33.599  21.686 -0.1392  0.1509 -0.0936
31880W        W74793   0.903  20.594  14.569  0.1330 -0.0745 -0.1207
31881W        W74794   1.373  30.693  29.463 -0.0167 -0.0843  0.3328
31882W        W74795   9.922  26.214  19.622  0.1358  0.3230 -0.3759
31883W        W74796   3.099  24.844  25.782  0.0586  0.2768  0.0319
31884W        W74797  33.212  27.204  15.276  0.1445  0.0787 -0.1471
31885W        W74798   8.073  29.055  18.756 -0.0148 -0.0290  0.3940
31886W        W74799  11.388  26.643  15.631  0.1474 -0.0545 -0.0264
31887W        W74800   2.692   1.748  18.648  0.1143  0.0416 -0.1138
31888W        W74801   8.180  27.475  19.727  0.0139 -0.0232  0.1121
31889W        W74802   8.483  26.310  25.769  0.3904  0.3007  0.3042
31890W        W74803  30.620   3.203  22.004 -0.0558 -0.1239  0.0117
31891W        W74804  34.374  19.183  23.587  0.1470 -0.0803  0.0304
31892W        W74805   5.020  12.791  21.794 -0.0710 -0.0185  0.0279
31893W        W74806  10.229  28.840  23.410 -0.2615 -0.2727 -0.0850
31894W        W74807   3.081  29.867  16.355 -0.0019  0.0192  0.0297
31895W        W74808   0.683   0.066  15.887  0.0928  0.0169  0.0601
31896W        W74809   2.944  33.616  16.471  0.2275 -0.3215  0.3079
31897W        W74810   2.782  19.044  19.980  0.1257  0.0932  0.1801
31898W        W74811  30.514  30.669  14.433 -0.1088  0.1389  0.3277
31899W        W74812  13.953  23.558  23.024 -0.3190 -0.4269  0.1745
31900W        W74813   5.674  25.468  16.348  0.0026 -0.1348 -0.1091
31901W        W74814   7.016  27.910  16.893  0.1868  0.0728 -0.1396
31902W        W74815   4.160  31.555  22.685  0.2213 -0.2977  0.0992
31903W        W74816  30.928  28.823   3.010 -0.0499  0.1048 -0.2125
31904W        W74817   5.096   1.956  22.521  0.0702 -0.0301 -0.1467
31905W        W74818   4.939  30.635  15.927 -0.0967 -0.0112  0.0699
31906W        W74819  30.128  31.544  14.512  0.0485 -0.3945  0.1467
31907W        W74820   7.884   7.115  25.748  0.0727 -0.0871  0.1373
31908W        W74821   0.972  31.449  17.030  0.0800  0.1862  0.1166
31909W        W74822   3.400  28.198  15.606  0.0375  0.0197  0.0510
31910W        W74823   4.481  29.799  21.086 -0.3306  0.0397  0.1731
31911W        W74824   1.661  20.278  17.550 -0.1589 -0.1741  0.0956
31912W        W74825   5.684  18.110  21.398 -0.2157 -0.2266 -0.1991
31913W        W74826   1.303  30.502  14.039  0.0718  0.1949 -0.3769
31914W        W74827   4.994  22.234  17.423  0.3109 -0.0823  0.4607
31915W        W74828   5.642  26.930  17.050 -0.0410 -0.0760 -0.1295
31916W        W74829   2.039  25.634  14.000  0.1575  0.0370 -0.0050
31917W        W74830  34.426  31.719  15.287  0.3904 -0.1730  0.1408
31918W        W74831   5.368  25.828  23.483  0.0787 -0.0900 -0.1628
31919W        W74832   8.830  25.144  24.746 -0.0663  0.2009  0.1059
31920W        W74833   3.702  32.638  29.751 -0.2320 -0.0864  0.1637
31921W        W74834   8.149  21.838  14.638  0.2412 -0.1051 -0.1552
31922W        W74835  13.982  24.411  18.452 -0.1374 -0.1727  0.2129
31923W        W74836   1.710  29.725  26.626  0.2634  0.1291  0.1222
31924W        W74837   5.762  23.446  16.486  0.1608  0.0905  0.1830
31925W        W74838   8.436  30.887  22.638 -0.1744 -0.1911 -0.0535
31926W        W74839   8.427  26.383  15.704  0.2758 -0.2553  0.1998
31927W        W74840   2.523  27.563  23.629 -0.0044  0.3273 -0.0214
31928W        W74841   4.762  11.851  16.229  0.3829 -0.0614  0.0917
31929W        W74842  29.183  31.623  14.362  0.1258 -0.0824 -0.2626
31930W        W74843  13.338  22.307  15.426 -0.1842  0.0330 -0.2653
31931W        W74844   3.882  29.430  24.774  0.1432 -0.2897 -0.2943
31932W        W74845  27.763  30.564  27.188 -0.2087  0.2491 -0.1004
31933W        W74846   4.501  32.023  27.592  0.0822  0.0409  0.1414
31934W        W74847  31.912  27.771  24.828 -0.2012  0.2867  0.1069
31935W        W74848   9.656  31.566  26.095 -0.0637 -0.1902 -0.0714
31936W        W74849   6.770  31.698  20.404  0.0676 -0.0505 -0.1489
31937W        W74850   1.798  28.513   0.258 -0.1394  0.0543  0.4121
31938W        W74851   0.146  33.298  25.471  0.1453 -0.3688  0.0948
31939W        W74852   5.183  30.241  20.281  0.2414 -0.3011 -0.0742
31940W        W74853   2.021  20.648  16.243 -0.3061 -0.1697  0.2543
31941W        W74854   7.169  32.915  21.016  0.0711 -0.1369 -0.0332
31942W        W74855  14.147   6.606  27.351  0.0384  0.0370  0.0949
31943W        W74856   5.022  27.956  17.812 -0.0046  0.2611  0.0235
31944W        W74857   8.949  13.818  28.350  0.1219  0.3675 -0.1830
31945W        W74858  32.168  27.606  18.618 -0.0928  0.0659 -0.0255
31946W        W74859  32.693  18.049  21.769  0.0210  0.2780  0.1224
31947W        W74860   0.562  26.031  17.446  0.0516  0.1128 -0.2086
31948W        W74861   6.050  33.310  25.592  0.2387  0.0906  0.4371
31949W        W74862   5.569  30.399  17.833 -0.0992 -0.1356 -0.0153
31950W        W74863   8.958  21.325  24.665  0.0562 -0.1148 -0.1100
31951W        W74864   3.040  31.125  15.916 -0.0909  0.0820 -0.2160
31952W        W74865  29.246   0.501  16.448 -0.2685 -0.1042  0.2283
31953W        W74866   2.615  21.268  20.712 -0.0447 -0.1613 -0.0413
31954W        W74867  33.929  19.005  26.371  0.3350 -0.1358 -0.1610
31955W        W74868   1.625  29.739  15.046 -0.1554 -0.1877  0.0659
31956W        W74869  10.325  27.813  16.663  0.0952 -0.3561 -0.1088
31957W        W74870   9.083   4.153  24.585 -0.0848  0.0781  0.0095
31958W        W74871  34.377  22.552   1.297  0.0500  0.0293 -0.3156
31959W        W74872  29.181  25.603  15.870  0.0265  0.0875  0.1374
31960W        W74873  33.619  19.335  27.636  0.2524  0.1309 -0.1883
31961W        W74874  32.328  22.409  15.494 -0.0554 -0.1455  0.0303
31962W        W74875  33.158  20.285  21.682 -0.0688  0.2753  0.0746
31963W        W74876  30.463  29.971  16.239 -0.0692  0.1119 -0.0489
31964W        W74877   2.631  33.038  18.631 -0.2561 -0.0540  0.1639
31965W        W74878   7.601  29.015  21.517  0.2492  0.0376  0.2847
31966W        W74879   6.964  26.221  14.723  0.1162  0.1584  0.0658
31967W        W74880  14.112   0.230  24.304 -0.0885 -0.1802 -0.0291
31968W        W74881   4.864   3.643  17.645  0.0264  0.0460 -0.2470
31969W        W74882   8.248  29.172  19.220 -0.1044 -0.1839  0.2381
31970W        W74883  11.342  18.346  23.524  0.0449  0.4672  0.0389
31971W        W74884  21.088  29.425  14.535 -0.0936 -0.1036 -0.0405
31972W        W74885   3.556   1.431  21.834 -0.0587  0.0656  0.1515
31973W        W74886   2.133  24.206  29.090 -0.1791  0.2130 -0.3152
31974W        W74887  33.800  24.360  21.106 -0.0378 -0.3170  0.0668
31975W        W74888   7.315  16.818  14.194  0.2342 -0.0748  0.1109
31976W        W74889  31.753   5.501  28.589 -0.0048  0.0669 -0.2632
31977W        W74890   5.794  26.592  23.437 -0.0795  0.0073 -0.0301
31978W        W74891  27.686  19.837  21.619  0.0442 -0.0266  0.0912
31979W        W74892  15.707  29.566  15.965 -0.1659 -0.0133  0.2763
31980W        W74893   9.558  17.587  13.679  0.0698  0.0151  0.0873
31981W        W74894   5.361  29.839  14.985  0.0137  0.1386 -0.0333
31982W        W74895  26.650  27.794  14.262 -0.0394  0.0917 -0.0943
31983W        W74896  31.809  22.817  17.028  0.1962 -0.1271 -0.1927
31984W        W74897   9.396  17.252  26.760  0.0886  0.3737  0.0395
31985W        W74898   9.261  25.905  15.446 -0.0990 -0.1126  0.1399
31986W        W74899  30.336  21.347  15.758  0.0389 -0.0251  0.1242
31987W        W74900  28.069  31.940   1.044 -0.1555 -0.0099  0.3426
31988W        W74901  33.248  27.825  29.424  0.0605 -0.2249  0.1100
31989W        W74902   0.592  25.551  23.221 -0.1189 -0.1913  0.1630
31990W        W74903   9.616  32.027  28.598 -0.2425  0.1678 -0.1955
31991W        W74904   1.539  20.287  26.941  0.0398 -0.1226 -0.3851
31992W        W74905  25.887  28.261  21.344  0.0498  0.2427 -0.3797
31993W        W74906   5.815  16.965  24.290 -0.0075 -0.1997 -0.1971
31994W        W74907   2.972  25.442  28.068 -0.1708 -0.0165 -0.2633
31995W        W74908   7.226  34.469  21.522 -0.0443  0.0440 -0.0768
31996W        W74909   6.203  26.806  22.766  0.1025  0.0765  0.1256
31997W        W74910   8.943  22.565  17.312  0.0861 -0.0186  0.1816
31998W        W74911  11.709  30.634  23.762 -0.1004  0.0661  0.0362
31999W        W74912  29.150  27.577  19.706  0.2050 -0.1822 -0.2302
32000W        W74913   9.395  30.753  20.753  0.0979  0.0558  0.2945
32001W        W74914  14.995  25.368  14.498  0.1495 -0.1460 -0.0287
32002W        W74915   1.959  19.622  23.414 -0.0723  0.0429 -0.1968
32003W        W74916  13.311  21.446  15.919  0.0865 -0.1421 -0.1861
32004W        W74917   7.036  28.174  20.251 -0.2698 -0.0329 -0.1348
32005W        W74918  18.883  14.567  14.014 -0.0847 -0.2075  0.2660
32006W        W74919  31.952  28.533  14.566  0.0457  0.0863 -0.2745
32007W        W74920  25.470   2.064  25.355 -0.1102  0.1553 -0.0191
32008W        W74921  31.502  25.549  15.625 -0.2987  0.0703  0.3247
32009W        W74922   6.024  31.017  20.759  0.0587  0.2335 -0.0816
32010W        W74923   2.302  31.655  15.421 -0.2681  0.0903  0.0508
32011W        W74924   3.762  33.091  18.484  0.0463  0.2032 -0.2433
32012W        W74925   7.902  29.416  23.214  0.0201 -0.2295 -0.0556
32013W        W74926   3.112  18.286  20.138  0.0084  0.2599 -0.4430
32014W        W74927   9.704  27.527  23.006 -0.3895  0.0409 -0.1734
32015W        W74928  12.800   0.162  16.293 -0.0404 -0.1507 -0.1203
32016W        W74929   7.080   6.765  23.418 -0.5989  0.1075 -0.2568
32017W        W74930   8.020  20.814  24.301 -0.1484  0.0634  0.0198
32018W        W74931   0.445  28.884  19.060  0.1518  0.4581  0.0645
32019W        W74932   2.386  21.073  27.326 -0.2838  0.0701  0.0860
32020W        W74933   8.916  28.399  17.279 -0.2931 -0.1265  0.1168
32021W        W74934  29.015  28.695  14.134 -0.1355 -0.0279 -0.2948
32022W        W74935   3.135   0.001  25.484  0.1388 -0.2444  0.1597
32023W        W74936  31.031  23.542  25.095 -0.2084  0.4475 -0.0681
32024W        W74937   6.634  24.181  19.307 -0.1111 -0.1585 -0.2869
32025W        W74938   0.967  16.922  26.145 -0.0927 -0.1530  0.1335
32026W        W74939   6.131  18.948  21.216 -0.2333 -0.0021  0.2263
32027W        W74940   6.156  23.178  16.770  0.2859 -0.0548 -0.0057
32028W        W74941   9.667   0.075  22.719  0.0536  0.1332 -0.1710
32029W        W74942   7.459  29.641  23.014 -0.1180 -0.0615 -0.0078
32030W        W74943   4.039  23.896  27.827  0.1371 -0.1194  0.2162
32031W        W74944   6.875  11.897  25.079  0.1255 -0.1194 -0.1542
32032W        W74945   0.024  28.095   6.926  0.0484  0.2236  0.2730
32033W        W74946   7.443  28.332   4.370 -0.0667  0.0627  0.0306
32034W        W74947   8.846  31.236   2.949  0.1911 -0.3903 -0.2219
32035W        W74948   0.441  25.554  18.434  0.0874 -0.2747 -0.3061
32036W        W74949  29.048  26.747  15.221  0.1321  0.1961  0.2878
32037W        W74950  19.640  28.880  19.987  0.0029  0.2805 -0.1331
32038W        W74951   4.440  27.084  17.943  0.0762  0.0578  0.1122
32039W        W74952   1.289  20.723  19.982 -0.4037  0.0331 -0.1092
32040W        W74953  34.429  25.929   4.970  0.2623  0.0081  0.0901
32041W        W74954  10.336  25.292  25.468 -0.4909 -0.0845  0.0459
32042W        W74955   4.622  22.668  27.921 -0.0135  0.1741  0.1565
32043W        W74956   9.543  28.305  17.619  0.2574  0.1046  0.0575
32044W        W74957  22.752  13.169  15.827 -0.0037  0.1768 -0.0763
32045W        W74958   3.403  19.952  23.235 -0.1030 -0.0692  0.1133
32046W        W74959  19.261  24.753  15.145  0.2394  0.1860 -0.0160
32047W        W74960   3.414  32.603  18.336  0.0149 -0.0781  0.2016
32048W        W74961   3.653  21.950  20.506  0.0453 -0.0189 -0.0273
32049W        W74962  28.547  30.421  23.479  0.0744  0.0704  0.0140
32050W        W74963  30.307  12.938  14.929  0.1039 -0.5302 -0.1395
32051W        W74964  12.783  25.142  19.591 -0.3835 -0.2542  0.3039
32052W        W74965   2.932  26.558  27.447 -0.2875  0.2009  0.1266
32053W        W74966  12.219  32.369  15.744  0.0509 -0.0426  0.2970
32054W        W74967  32.747  25.292  17.872 -0.0553 -0.3189 -0.1760
32055W        W74968   3.506  27.708  18.994  0.2919 -0.2075 -0.0681
32056W        W74969   6.875  20.578  23.653 -0.1737  0.0243  0.0598
32057W        W74970  10.845   1.031  20.878  0.1269 -0.1354  0.3591
32058W        W74971   7.740  24.696  21.035  0.0368 -0.1340  0.1239
32059W        W74972  12.744  31.076   3.448  0.1058  0.1132 -0.1577
32060W        W74973   0.180  32.007  23.034 -0.0244  0.1357  0.1810
32061W        W74974   5.373  29.118  15.957 -0.0058  0.0155 -0.2482
32062W        W74975   7.046  20.018  28.730 -0.2019 -0.3505  0.3001
32063W        W74976   7.956  31.261  18.751 -0.1856 -0.0688  0.0420
32064W        W74977  33.081  17.573  26.803 -0.1952 -0.2693  0.1086
32065W        W74978   8.017  34.219  22.136 -0.1901 -0.2018 -0.2195
32066W        W74979  31.628  27.782  14.900  0.1536  0.1953 -0.0496
32067W        W74980  17.576  26.131  24.898  0.1683  0.0997 -0.0397
32068W        W74981  31.585  24.770  22.419  0.0442  0.0896  0.2692
32069W        W74982  32.368  28.807  15.999 -0.1110 -0.2119 -0.2058
32070W        W74983  28.043  16.449  22.321  0.0974  0.0822  0.0328
32071W        W74984   4.109  23.396  27.754  0.1334  0.2192  0.1049
32072W        W74985  16.660  20.699   0.048 -0.2818 -0.1659  0.0382
32073W        W74986   0.253  28.832  14.981 -0.1334 -0.3297  0.1634
32074W        W74987  34.285  30.224  24.761 -0.0647 -0.1838 -0.3717
32075W        W74988  26.914   0.774  16.943  0.0210 -0.0122 -0.3236
32076W        W74989   1.653   2.298  27.118  0.1095  0.0017 -0.2319
32077W        W74990   9.228  24.344  19.172 -0.1773 -0.0329  0.1327
32078W        W74991   5.442  27.260  14.847  0.0754 -0.1453  0.0534
32079W        W74992   2.579  23.464  18.334 -0.1724 -0.1699 -0.0916
32080W        W74993   4.220  19.169  20.672  0.1918  0.2160 -0.1375
32081W        W74994   2.370  21.021  24.675  0.1771 -0.4060  0.0726
32082W        W74995  33.450  18.947  25.635 -0.5281  0.1886 -0.1775
32083W        W74996   8.385  29.419  23.539  0.2151 -0.2200  0.2377
32084W        W74997  31.714  24.743  25.892 -0.0978  0.0220  0.0042
32085W        W74998   3.404  30.305  15.000  0.2790 -0.1823 -0.1960
32086W        W74999   2.874  19.912  23.286 -0.2042  0.0212  0.2798
32087W        W75000   1.634  22.279  27.234 -0.1409  0.3100  0.1087
32088W        W75001  27.647   3.287  17.330 -0.3017 -0.0694  0.0844
32089W        W75002  30.849  27.842  19.461  0.1293  0.5972 -0.1604
32090W        W75003  33.108  22.004  18.778  0.1990  0.2002  0.1031
32091W        W75004   0.833  28.078  20.937  0.4528  0.0850 -0.0909
32092W        W75005  34.087  30.091  23.740  0.2067 -0.0491  0.1418
32093W        W75006   5.856  23.955  27.512 -0.1270  0.0403  0.1307
32094W        W75007   6.970  27.913  19.794 -0.2794  0.1475  0.0725
32095W        W75008   0.926  28.523  17.707  0.1067 -0.1047  0.0751
32096W        W75009   3.853  32.365   9.355 -0.0883 -0.1194 -0.4731
32097W        W75010  11.255  29.457  20.845 -0.0664 -0.0873 -0.1038
32098W        W75011   9.065  27.254  27.885 -0.0319 -0.2335  0.2244
32099W        W75012  33.648  23.736  24.084 -0.0146 -0.1947  0.0729
32100W        W75013   6.205  27.051  18.822  0.3843 -0.2288  0.2133
32101W        W75014  32.781  26.616  16.436  0.1279 -0.0412 -0.3178
32102W        W75015  11.647   1.095  26.682  0.2356  0.1794  0.2151
32103W        W75016  31.315  31.542  16.470 -0.0402 -0.2568  0.1282
32104W        W75017   4.882  21.496  24.569 -0.1254  0.2671  0.0399
32105W        W75018   9.417  18.078  21.024  0.0555  0.1404  0.1128
32106W        W75019  33.948  31.604  27.400  0.0933 -0.1296  0.5533
32107W        W75020  12.609  26.068  15.997  0.1981  0.1861 -0.2308
32108W        W75021   4.728  23.563  19.406  0.4274  0.3435 -0.1488
32109W        W75022   9.531  25.209  16.777  0.0833  0.4233 -0.1141
32110W        W75023  34.344  16.369  15.083 -0.0909  0.2099 -0.0564
32111W        W75024   4.486  18.014  20.960  0.0649  0.2298 -0.0202
32112W        W75025  33.827  34.222  18.808 -0.0925 -0.1030  0.0019
32113W        W75026   7.990  20.166  23.220 -0.0124 -0.1558  0.2459
32114W        W75027  30.814  24.989  19.896 -0.0419  0.0876  0.0174
32115W        W75028   5.921  27.971  21.460 -0.2147 -0.2458 -0.0397
32116W        W75029   7.546  26.922  16.204 -0.1085  0.3694  0.1413
32117W        W75030   4.052  27.943  17.877  0.1300 -0.1354 -0.2269
32118W        W75031   8.682  31.366  25.491 -0.2167 -0.1465  0.2294
32119W        W75032  26.847  24.897  20.486  0.2246  0.1519 -0.0902
32120W        W75033  31.088  31.195  22.816 -0.0522  0.1847  0.4373
32121W        W75034   9.384  28.842  24.992  0.1647 -0.0894 -0.0376
32122W        W75035   0.397  28.998   5.917  0.1010  0.0579 -0.0549
32123W        W75036  15.828  23.838   8.830  0.1297  0.2035 -0.0400
32124W        W75037   9.775  18.839  13.358  0.1779  0.0289 -0.0832
32125W        W75038   8.935  17.063  21.514  0.0148 -0.2806  0.0688
32126W        W75039   1.709  18.354  23.307 -0.0869 -0.2249  0.1570
32127W        W75040  30.071  21.271  25.097  0.0360  0.0016  0.0212
32128W        W75041   9.038  24.197  23.349 -0.2559 -0.1001  0.0346
32129W        W75042   9.437  18.525  19.231  0.1844 -0.0352  0.0540
32130W        W75043  31.112  31.950  24.705 -0.0180  0.1721 -0.0383
32131W        W75044  31.491  15.064  18.795  0.4270 -0.2927  0.1884
32132W        W75045  23.659  26.769  27.862  0.2034 -0.0448  0.1995
32133W        W75046  10.682  14.931  19.036  0.3842 -0.1528 -0.1265
32134W        W75047   1.801  24.129  22.308  0.2039 -0.0194 -0.1164
32135W        W75048  34.222  22.075   1.043  0.1215 -0.1046 -0.2463
32136W        W75049  27.700  32.680  28.662  0.0304 -0.0671 -0.0786
32137W        W75050  31.544  26.612  18.189  0.1053  0.1766 -0.1324
32138W        W75051  34.483  14.431   3.530 -0.3990 -0.0895 -0.0841
32139W        W75052   0.486  24.218  25.599  0.0607 -0.0259 -0.1023
32140W        W75053  16.696  23.322  14.270  0.0716 -0.0581 -0.1692
32141W        W75054   0.914  25.677  18.593 -0.0726 -0.1659  0.1555
32142W        W75055  11.513  31.884  23.542  0.0572  0.2773 -0.3297
32143W        W75056  25.847  24.815  12.700 -0.1102  0.0719  0.0625
32144W        W75057  10.100  17.406  22.789  0.1263 -0.0202  0.0669
32145W        W75058  32.626  19.290  22.294  0.0713 -0.1984 -0.0708
32146W        W75059   3.301  24.365  20.928  0.1717  0.3675  0.0808
32147W        W75060   7.384  22.472  19.777 -0.0960  0.3862  0.0264
32148W        W75061  10.168  33.151  19.024  0.1763  0.4618 -0.2396
32149W        W75062  14.298  14.304  14.234 -0.3355 -0.0993  0.1057
32150W        W75063   6.125  27.697  18.608  0.3228  0.0374  0.2455
32151W        W75064   1.847  23.292  21.741 -0.1966 -0.0300  0.4382
32152W        W75065   5.774  26.087  23.499  0.1009 -0.0202 -0.1675
32153W        W75066   5.182  27.901  19.066  0.3664 -0.0620 -0.0599
32154W        W75067   1.620  16.429  18.071  0.1182 -0.1374  0.1121
32155W        W75068  10.989  22.219  15.555  0.2123 -0.0333 -0.2011
32156W        W75069   1.967  22.133  17.044  0.0661 -0.0510  0.0301
32157W        W75070   1.483  15.020  26.591 -0.0772 -0.0748  0.1004
32158W        W75071  10.985  16.590  28.575 -0.2554 -0.2267 -0.2233
32159W        W75072   3.811  26.584  22.816 -0.0512  0.0224  0.1713
32160W        W75073   8.344  27.527  23.600  0.1642 -0.1559 -0.0299
32161W        W75074   5.640  20.438  14.757  0.0153  0.2239  0.4320
32162W        W75075  32.703   0.538  15.224  0.0737  0.0930 -0.1424
32163W        W75076   7.044  31.069  16.992  0.2121  0.0301 -0.2222
32164W        W75077  10.477  27.059  26.939 -0.1084  0.0351 -0.0666
32165W        W75078  11.760  31.810  16.991 -0.0429  0.1907  0.0437
32166W        W75079  31.664  17.682   3.027 -0.1689  0.2313 -0.1817
32167W        W75080  33.619  28.274   0.401  0.1376 -0.0791  0.0750
32168W        W75081  34.115  24.429  22.432 -0.4063 -0.0273 -0.2063
32169W        W75082   3.471  27.210  23.361  0.2234 -0.6008 -0.0229
32170W        W75083   7.728  30.023  24.970  0.2876  0.1478  0.3895
32171W        W75084   1.915  27.502  20.986  0.2456  0.2748 -0.1303
32172W        W75085   5.921  21.397  18.007 -0.0651 -0.2145  0.0132
32173W        W75086  10.340  32.781  16.922 -0.3016  0.2788  0.0881
32174W        W75087   8.056  26.462  25.961  0.0065  0.1652  0.0730
32175W        W75088  33.913  11.528  15.863 -0.0176 -0.0625  0.1113
32176W        W75089   4.830  28.777  19.341 -0.3035  0.5265 -0.1021
32177W        W75090   6.378  32.404  22.063 -0.0249 -0.1823 -0.1817
32178W        W75091   1.828   7.019  24.822  0.1794  0.0902  0.0600
32179W        W75092  33.722  26.031  14.347  0.0806  0.0665 -0.0375
32180W        W75093   2.530  24.657  18.621 -0.0250 -0.1176  0.0078
32181W        W75094   3.224  28.021  25.601 -0.0911  0.2019  0.0471
32182W        W75095   2.537  30.389  14.716  0.0374  0.2646 -0.0466
32183W        W75096  34.453  20.659  19.176 -0.1681 -0.0110  0.3189
32184W        W75097   5.185  26.847  19.997  0.0849 -0.1670 -0.0104
32185W        W75098   2.401  20.224  18.495  0.1975 -0.1364  0.0264
32186W        W75099   2.694  29.206  26.988  0.1145  0.0341  0.0759
32187W        W75100   6.999  26.781  17.470  0.0560 -0.2429 -0.2215
32188W        W75101   4.405  17.418  27.686 -0.1444 -0.4474  0.1798
32189W        W75102  29.138  31.264  23.631 -0.1146  0.2639 -0.4145
32190W        W75103   3.199   7.550  22.123 -0.1114 -0.1113  0.0658
32191W        W75104  29.629  23.328  27.813 -0.1313 -0.1147 -0.2699
32192W        W75105   8.503  24.342  22.167  0.1571 -0.0118  0.0116
32193W        W75106   7.358  26.313  24.945 -0.2811  0.0637 -0.1304
32194W        W75107  22.314   1.624  23.572 -0.0878  0.2967 -0.2038
32195W        W75108  18.798  22.826  14.643 -0.0166  0.0022  0.3610
32196W        W75109  29.468   1.851  16.509  0.2413  0.4412  0.1231
32197W        W75110  12.496  22.839  17.566 -0.1087  0.0132 -0.4209
32198W        W75111   7.770  24.927  23.536 -0.0484  0.0723  0.0593
32199W        W75112   3.624  25.809  21.051 -0.0641 -0.0543 -0.1505
32200W        W75113  27.452   2.223  16.576  0.1936 -0.0689 -0.2741
32201W        W75114   3.264  18.159  21.088  0.3573 -0.0606 -0.0342
32202W        W75115  34.105  21.257  22.641  0.1982  0.0210  0.0937
32203W        W75116  30.858  25.595  17.724  0.1250  0.3373  0.0184
32204W        W75117   7.727  20.292  25.020  0.2413  0.1760 -0.2523
32205W        W75118  13.787  28.520  20.343  0.0598 -0.2723 -0.1226
32206W        W75119  33.093  24.058  21.198  0.1982  0.0980 -0.1875
32207W        W75120  32.335   3.100  23.717 -0.1970 -0.0105 -0.2098
32208W        W75121   5.790  25.817  22.923 -0.0803 -0.1804  0.4094
32209W        W75122  11.914  28.839   4.679 -0.0642 -0.3043  0.0172
32210W        W75123   6.698  26.622  24.893 -0.0593  0.5624  0.0443
32211W        W75124   3.542  27.207   6.029  0.0073 -0.0261 -0.0031
32212W        W75125  18.783   1.633  25.451 -0.5247  0.0646 -0.0468
32213W        W75126   3.124  27.036  16.487  0.1221  0.1284  0.1326
32214W        W75127  13.123  22.946  15.416 -0.0730  0.0281 -0.1455
32215W        W75128  33.647  11.519  18.292  0.0909  0.1363 -0.0806
32216W        W75129   3.884  28.805  18.048  0.2017 -0.2047  0.1865
32217W        W75130   5.545  17.087  17.090 -0.1664  0.2472 -0.1157
32218W        W75131   8.517  27.430  24.199  0.0091  0.1785 -0.3023
32219W        W75132   3.752  16.084  21.527 -0.0226  0.1992 -0.0399
32220W        W75133  30.638  26.393  14.820  0.3964  0.0575 -0.2360
32221W        W75134   7.689  30.187  23.486 -0.0059  0.0129  0.3493
32222W        W75135   6.945   0.582  27.373 -0.2284  0.2730  0.0310
32223W        W75136  32.602  27.717  17.243  0.1339 -0.1297 -0.4273
32224W        W75137  10.186  16.415  14.416  0.0819 -0.3399 -0.0534
32225W        W75138  30.314   2.346  22.579 -0.0078 -0.4618 -0.4956
32226W        W75139  30.090   5.656  20.054  0.0139 -0.0453  0.2161
32227W        W75140  31.678  29.404  15.660 -0.1455  0.0259  0.4947
32228W        W75141   5.876  31.160  16.632  0.2506 -0.0917 -0.0668
32229W        W75142   7.286  17.452  16.845 -0.0799 -0.4137  0.0426
32230W        W75143   8.987  26.421  18.182 -0.1171 -0.3922  0.2755
32231W        W75144   5.747  28.434  22.638 -0.1595 -0.1677 -0.2283
32232W        W75145   0.377  23.177  16.399  0.2231  0.3438 -0.0790
32233W        W75146  10.753  28.326  16.413 -0.1936  0.1020  0.1651
32234W        W75147   2.503  13.333  16.332  0.1317  0.1422  0.0818
32235W        W75148   0.475  27.392  17.813  0.0863 -0.1207  0.0770
32236W        W75149   2.270  34.198  15.604 -0.3837  0.2024  0.1968
32237W        W75150  27.074  23.848  27.730  0.1212 -0.1730 -0.4709
32238W        W75151  34.198  30.583  15.959 -0.2153  0.0744  0.2663
32239W        W75152  34.473  17.347  24.270  0.0428 -0.1146  0.2828
32240W        W75153  33.704  22.050  22.134  0.3364  0.0449  0.0678
32241W        W75154   7.651  27.959  16.109 -0.3101 -0.2367 -0.0076
32242W        W75155  34.013  26.075  18.775  0.2433 -0.3922  0.1569
32243W        W75156  33.906  34.456  18.320 -0.1549  0.1646  0.1866
32244W        W75157  12.947  18.323  13.443  0.0632 -0.0849  0.0589
32245W        W75158  24.082  25.472  15.796  0.1449 -0.0498 -0.1475
32246W        W75159   4.947  22.630  21.471 -0.1226 -0.0312 -0.1558
32247W        W75160   3.189  32.351  23.381 -0.0081 -0.1646 -0.1814
32248W        W75161  17.208  20.690  15.322 -0.2243  0.0991  0.3065
32249W        W75162   6.243  30.058  24.786  0.2864 -0.0038  0.0889
32250W        W75163   7.286  26.662  18.381 -0.0803 -0.0260  0.0907
32251W        W75164  33.004  23.748  20.066 -0.0837 -0.1835 -0.0230
32252W        W75165   3.850   6.881  27.500 -0.0721  0.0762  0.0013
32253W        W75166   5.129  30.098  19.539 -0.0654  0.1620 -0.1532
32254W        W75167  27.575  32.118  24.518 -0.3289  0.0415 -0.1137
32255W        W75168   5.696  21.840  18.430  0.0030  0.0632  0.0719
32256W        W75169  31.270  28.315  17.879  0.3536 -0.1084 -0.1958
32257W        W75170   6.939   8.640  21.557 -0.0979  0.0542 -0.0054
32258W        W75171   5.833  23.678  18.822 -0.3255 -0.2583 -0.0291
32259W        W75172   2.470  28.936  21.562  0.0348 -0.1539 -0.0974
32260W        W75173   2.491   0.723  26.762 -0.1548  0.0075  0.1600
32261W        W75174   9.494  31.562  20.568 -0.0506  0.0150  0.0634
32262W        W75175  32.916  27.862  14.856  0.5020  0.0371  0.0992
32263W        W75176  33.813  26.314  21.634  0.0811 -0.1270  0.0527
32264W        W75177  15.881  27.626  26.099  0.0191 -0.0338  0.1991
32265W        W75178   9.457  33.379  24.450 -0.0648  0.1467  0.0026
32266W        W75179  25.222  32.231  13.547 -0.0689  0.3385 -0.4174
32267W        W75180  32.661  25.714  21.525 -0.0523 -0.0595 -0.3030
32268W        W75181  33.798   4.236  19.173  0.2567 -0.0268  0.0678
32269W        W75182   5.588  34.232  20.908 -0.0069  0.4112  0.1087
32270W        W75183   5.807  25.171  18.727 -0.2363 -0.0816 -0.0895
32271W        W75184   4.232   1.807  23.392 -0.2843  0.0118  0.0060
32272W        W75185  14.840  29.487  24.137  0.1821 -0.1214 -0.3580
32273W        W75186  12.335  23.910  15.107 -0.3482  0.0317  0.3950
32274W        W75187  10.171  17.335  16.400  0.1584 -0.0471 -0.0888
32275W        W75188   4.832  30.230  18.396  0.0730 -0.3186  0.0419
32276W        W75189  25.966  18.057  16.123  0.0865  0.5375  0.1327
32277W        W75190  28.451  25.484   5.333 -0.0898  0.1699 -0.1542
32278W        W75191  28.353  32.400  21.004  0.1672  0.4249 -0.2100
32279W        W75192   1.824  30.012  17.740 -0.2640 -0.2773 -0.1889
32280W        W75193   0.398   7.017  27.649  0.1109  0.0125 -0.0393
32281W        W75194   4.166  19.736   4.898 -0.2263  0.0716 -0.1303
32282W        W75195   9.847  32.178  21.731  0.1377 -0.0309  0.0075
32283W        W75196   7.071  26.700  15.958 -0.0230 -0.0447  0.2074
32284W        W75197  34.159  18.156  22.595 -0.0211 -0.0307  0.0779
32285W        W75198  20.070  27.437  17.324  0.0036 -0.1065 -0.0778
32286W        W75199   6.738  31.197  20.411 -0.0820 -0.0799  0.1995
32287W        W75200   8.747  32.268  23.438 -0.1055  0.0217 -0.0165
32288W        W75201  17.536  10.190  23.695  0.2390  0.0004 -0.0037
32289W        W75202  17.573  25.783  21.866  0.3675 -0.0684  0.0225
32290W        W75203   2.238  32.318  17.449  0.1150  0.0452 -0.2932
32291W        W75204   8.126   3.914  21.985  0.1125  0.1122 -0.0521
32292W        W75205  24.673  22.145  25.830  0.0861 -0.1964 -0.0404
32293W        W75206   4.024  25.539  21.371 -0.1525 -0.2848  0.1853
32294W        W75207  11.771  28.403  16.494 -0.0676  0.1876 -0.1439
32295W        W75208   3.557  31.644  28.890 -0.0394  0.1404  0.1236
32296W        W75209   2.953  19.987  16.168 -0.1061 -0.0015  0.0464
32297W        W75210  26.111  31.703  14.266 -0.0018 -0.1554 -0.1880
32298W        W75211  12.446  20.742   1.659 -0.1530 -0.0133 -0.0605
32299W        W75212  33.695  25.947  19.649 -0.0767  0.0661  0.0853
32300W        W75213  13.492  21.035  14.695  0.2211  0.0660 -0.0263
32301W        W75214  11.088  18.890  23.565 -0.2450  0.0050  0.0858
32302W        W75215   0.378  27.246   2.731 -0.1367 -0.0176  0.1382
32303W        W75216   0.738  21.095  22.113 -0.1449  0.2656  0.0818
32304W        W75217  11.523  29.645   0.177  0.2307  0.2114 -0.1265
32305W        W75218   6.255  20.227  23.098  0.5863 -0.0684  0.0130
32306W        W75219   4.404  31.783  16.139  0.0576  0.0910  0.0169
32307W        W75220   4.458  20.492   1.224 -0.0928 -0.4555  0.1231
32308W        W75221   9.116  18.266  28.290 -0.1607  0.0151  0.2671
32309W        W75222   3.660  26.870  26.984  0.1594  0.4118 -0.1582
32310W        W75223   3.368  23.066  21.276  0.0202 -0.1158  0.0145
32311W        W75224   4.042  27.475  22.238  0.0722  0.1898 -0.3060
32312W        W75225   9.468  19.476  14.591 -0.0240 -0.2821  0.0025
32313W        W75226   6.104  26.589   0.290  0.0135 -0.1096  0.1744
32314W        W75227  12.722   1.024   3.807 -0.1124  0.2919  0.1050
32315W        W75228   2.813  14.194  19.291  0.0887 -0.3061 -0.3575
32316W        W75229   3.644  23.460  16.760 -0.3868  0.2645 -0.0261
32317W        W75230   1.867  19.277  20.838  0.1744 -0.2739  0.1492
32318W        W75231  31.493  19.139  19.117  0.0556  0.2250 -0.0545
32319W        W75232   2.076  24.681   0.813  0.2942  0.2561 -0.0107
32320W        W75233  13.265  27.708  14.617  0.0288  0.0541  0.1555
32321W        W75234   9.995  28.979  22.568 -0.1146 -0.0697 -0.0656
32322W        W75235  28.445  21.299  17.016 -0.0586  0.1619 -0.2252
32323W        W75236   4.147  27.841  21.794  0.0188  0.1159  0.4106
32324W        W75237  33.702  33.506  23.750 -0.3565 -0.2137  0.1566
32325W        W75238  24.085  31.118  23.882 -0.1487  0.0904 -0.0219
32326W        W75239   9.405  16.741  28.373  0.2298  0.2050 -0.1325
32327W        W75240   1.116  18.573  13.704  0.2985  0.0003 -0.1754
32328W        W75241  25.118   0.657  23.017 -0.0728  0.0512 -0.0097
32329W        W75242   3.153  26.136  20.150  0.1120  0.4962 -0.0547
32330W        W75243   8.849  25.466  26.744 -0.1009 -0.2305 -0.0603
32331W        W75244   9.143  19.910  22.640 -0.1908  0.0402  0.2706
32332W        W75245  14.798  27.455   0.548  0.1389  0.0641  0.1733
32333W        W75246  10.827  24.073  19.612 -0.0387  0.0783 -0.2488
32334W        W75247   9.837  25.999  26.125  0.0486 -0.1555  0.0400
32335W        W75248  10.174  30.966  18.711  0.0745  0.2341 -0.3637
32336W        W75249  34.026  27.360  28.432  0.2844  0.0541  0.3380
32337W        W75250   7.964  29.465  27.750  0.2445  0.1116  0.0193
32338W        W75251   7.428  33.258   7.786  0.1208 -0.0795 -0.0754
32339W        W75252  12.476  26.830  21.639  0.0246 -0.0061  0.0158
32340W        W75253  26.499  30.299  25.895  0.2857  0.1565  0.1589
32341W        W75254   5.456  33.163  22.043  0.0882  0.2405  0.0184
32342W        W75255   2.632  29.219  14.215 -0.0523  0.0647  0.0933
32343W        W75256   3.172  20.776  26.888 -0.0502  0.0887 -0.1357
32344W        W75257  32.428  20.195  21.656 -0.0431  0.2799  0.3812
32345W        W75258   8.682  24.103  23.973  0.2056  0.3210 -0.0082
32346W        W75259   1.305  22.131  27.646  0.0746 -0.4556 -0.2768
32347W        W75260   7.684  27.004  22.157  0.3304  0.0990 -0.0780
32348W        W75261  31.867   2.769  25.382 -0.1028 -0.2062  0.3150
32349W        W75262   4.549  22.115  28.165  0.0395  0.2858 -0.2027
32350W        W75263  33.461  27.310  17.029  0.1413  0.2380 -0.1494
32351W        W75264  33.317  18.783  19.527 -0.1814  0.0647 -0.2231
32352W        W75265   0.254   2.739  27.703  0.1252  0.3266  0.1073
32353W        W75266   3.103  21.489   0.091 -0.1159  0.3220  0.0543
32354W        W75267   2.978  14.817  20.093 -0.1659  0.1714  0.0132
32355W        W75268   9.380  25.994  20.160  0.2299 -0.1564  0.0280
32356W        W75269  15.142   7.778  25.209  0.2603  0.0588 -0.1502
32357W        W75270   2.049   9.324  26.349 -0.1101 -0.4362 -0.0954
32358W        W75271   0.382  27.885  28.422  0.0619  0.0966 -0.1760
32359W        W75272   7.576  24.392   1.337 -0.1829  0.0592  0.1281
32360W        W75273  31.336  21.218  20.263  0.0050  0.0605 -0.1353
32361W        W75274  14.660  25.402  14.900 -0.1801 -0.3772 -0.3119
32362W        W75275   5.428  27.515  28.325 -0.1752  0.1061  0.0936
32363W        W75276   8.572  24.978  24.241 -0.3836 -0.0019  0.0140
32364W        W75277   7.275  25.931  26.229 -0.0974  0.0927 -0.0693
32365W        W75278  33.132  21.093  27.627  0.0679 -0.0833 -0.0700
32366W        W75279   8.233  19.270  21.082 -0.0793  0.2532 -0.0732
32367W        W75280  33.642  32.106  19.213 -0.1237 -0.2829 -0.0196
32368W        W75281   9.082  22.896  21.702 -0.0915  0.0946 -0.2724
32369W        W75282  12.266  23.498  22.560 -0.3521  0.0435  0.2147
32370W        W75283  19.775  25.769  27.794 -0.0225 -0.2230  0.1110
32371W        W75284   7.968  24.984  27.494  0.1024  0.2568  0.0582
32372W        W75285  11.373  30.050  24.311 -0.1246  0.1148 -0.0737
32373W        W75286   0.428  30.691   2.425  0.1902 -0.0349  0.0824
32374W        W75287   8.665  21.377  23.018  0.1420 -0.3263 -0.0421
32375W        W75288  18.702  15.643   3.108 -0.0773  0.0605 -0.2525
32376W        W75289   8.944  28.539  16.312  0.0059 -0.3449  0.0944
32377W        W75290   4.232  28.875  25.551  0.0393  0.0152 -0.0446
32378W        W75291   3.749  18.322  20.720  0.3329  0.1827 -0.1038
32379W        W75292  10.495  30.987  22.533 -0.0347  0.1093  0.2887
32380W        W75293   4.920  17.467  26.332  0.0303  0.0658  0.0095
32381W        W75294  10.537  23.273  16.326  0.2539 -0.1161  0.1967
32382W        W75295   5.652  30.173  16.117  0.2381 -0.0899  0.0205
32383W        W75296   6.604   1.456   7.657  0.1432  0.0843 -0.1270
32384W        W75297   4.718  30.218   2.495  0.5858 -0.0254  0.2335
32385W        W75298   8.936  28.610  18.551  0.1276 -0.2584 -0.0595
32386W        W75299  26.797  14.240  16.028  0.3468 -0.2182  0.1778
32387W        W75300   0.978  33.213  17.219 -0.3177  0.2119 -0.0386
32388W        W75301  32.513  31.597  25.818  0.3059 -0.0047  0.0740
32389W        W75302   4.306  22.746  24.236  0.0304 -0.1452  0.2251
32390W        W75303  12.644   2.476   1.240 -0.1704 -0.3236 -0.1076
32391W        W75304   8.115  21.568  15.755  0.0720 -0.0195 -0.0732
32392W        W75305  33.723  26.545   2.343 -0.1184 -0.0861 -0.0653
32393W        W75306  31.920  22.792  24.826 -0.0127  0.0396 -0.2883
32394W        W75307   6.324  18.188  28.849 -0.1520 -0.2152  0.1291
32395W        W75308  10.385  18.082  21.085 -0.1551  0.1005 -0.2393
32396W        W75309   3.211  33.938  23.508  0.0935 -0.1061 -0.1329
32397W        W75310   5.573  16.662  23.985 -0.1964  0.0744 -0.1230
32398W        W75311  34.231  26.840  25.002 -0.1906 -0.2536  0.0567
32399W        W75312   9.911  21.776  16.927 -0.2615 -0.1787  0.3476
32400W        W75313   3.340  29.999  20.281  0.0090 -0.1687  0.1099
32401W        W75314  10.993  31.029  19.731 -0.0955 -0.0508  0.0788
32402W        W75315  16.557  18.573  13.910  0.2641  0.1555  0.1583
32403W        W75316   2.697  23.872  14.655  0.0217  0.1554  0.0233
32404W        W75317   1.768  33.249   0.041  0.4316  0.1028  0.1416
32405W        W75318   0.769  18.272  26.522  0.1606 -0.2571  0.0973
32406W        W75319  11.047  23.200  25.561  0.0080 -0.2441 -0.0159
32407W        W75320   2.405  15.294  23.405 -0.1367 -0.2778  0.0972
32408W        W75321   1.901  33.731   2.556 -0.1512 -0.2777  0.0548
32409W        W75322   4.222  21.710  25.558  0.0985 -0.1588  0.3475
32410W        W75323  32.985  20.123   0.116 -0.1132  0.1352  0.2844
32411W        W75324  31.227  24.560  18.923 -0.2475 -0.0367  0.0715
32412W        W75325  13.653  32.877  26.008  0.0502 -0.1617  0.0336
32413W        W75326   0.839  21.760  25.192 -0.3879  0.1219 -0.0778
32414W        W75327  33.697   1.729  19.276  0.0307  0.2373  0.0611
32415W        W75328  15.992  24.736  21.312  0.0984  0.0353 -0.3186
32416W        W75329  32.237  27.108  21.352 -0.1058  0.0595  0.0730
32417W        W75330  11.621  19.623  13.364  0.0395  0.2194 -0.1872
32418W        W75331   7.360  26.702  16.648 -0.1261  0.0325  0.2115
32419W        W75332   9.056   1.434  20.724 -0.3972  0.2382  0.1037
32420W        W75333  19.647  23.445  18.370  0.2493 -0.1298  0.0160
32421W        W75334   7.579  29.003  24.929 -0.1380 -0.2165 -0.0414
32422W        W75335   5.203  19.113  20.853  0.3064  0.3443  0.3353
32423W        W75336   6.648   6.324  24.014 -0.1635 -0.0095 -0.0424
32424W        W75337  16.223  15.127  23.645  0.3754  0.0490 -0.0212
32425W        W75338  12.825  20.134  17.703 -0.2055  0.0237  0.0157
32426W        W75339   7.261  33.128  20.014  0.1782  0.0491  0.2391
32427W        W75340   4.489  22.845  15.826  0.1137  0.0345 -0.2057
32428W        W75341   5.445  28.643  17.232  0.0582  0.3497  0.0886
32429W        W75342  13.129  33.109  17.573 -0.2245  0.1066  0.1385
32430W        W75343  32.399  23.467  26.204 -0.2241  0.4305  0.0536
32431W        W75344  12.783  26.618  15.730 -0.3380  0.1008  0.1147
32432W        W75345  28.561  27.425  23.244 -0.1282  0.0568  0.1997
32433W        W75346  10.520  11.564   2.355  0.1637  0.1897  0.3455
32434W        W75347  10.422  32.525   3.787 -0.0992  0.1091  0.2980
32435W        W75348  24.580  14.367  28.432  0.2605 -0.2512  0.1632
32436W        W75349   0.155  23.887  15.306 -0.0751  0.4116  0.0045
32437W        W75350   5.214  25.209  27.659  0.0560  0.2234  0.3399
32438W        W75351   5.341  31.610  21.504  0.4978  0.0853  0.1670
32439W        W75352  32.942  28.969  28.045 -0.2426 -0.1226  0.0657
32440W        W75353  14.131  23.707  22.510 -0.1477  0.2902 -0.1231
32441W        W75354   1.057  28.222  28.715  0.0244  0.0710  0.2039
32442W        W75355  30.886  12.947   6.335  0.3645 -0.2448 -0.1794
32443W        W75356   0.816  31.305  19.748 -0.4139  0.0643 -0.3130
32444W        W75357   6.192  27.714   4.560  0.0533 -0.1317  0.2689
32445W        W75358   6.884  29.340  24.856  0.0577  0.1646  0.0183
32446W        W75359   2.418  26.496  16.506 -0.0723 -0.2353 -0.2308
32447W        W75360  34.473   5.414  25.327 -0.0563  0.1234  0.0909
32448W        W75361  11.688  32.721  16.617 -0.3263 -0.0615  0.0239
32449W        W75362   6.645  27.723  26.153  0.2712  0.1401 -0.0269
32450W        W75363  11.470  33.434  19.103  0.0452  0.0605  0.2206
32451W        W75364  13.234  27.289  24.925 -0.1044 -0.1163  0.1251
32452W        W75365   1.253  26.832   1.416 -0.0720  0.0472 -0.2838
32453W        W75366   0.552  20.304  28.496  0.1329 -0.1512 -0.0368
32454W        W75367  10.190   2.714  20.747  0.0730  0.0985  0.2132
32455W        W75368   5.826  22.899  22.913 -0.0751 -0.4648  0.4763
32456W        W75369   0.698  23.259  26.273 -0.0534  0.2745  0.2823
32457W        W75370   4.697  24.650  24.157 -0.3070 -0.0464 -0.1924
32458W        W75371   2.190  20.949   0.418 -0.4710 -0.0590  0.1198
32459W        W75372   7.941  25.165  21.272 -0.0773  0.2182 -0.5080
32460W        W75373  11.230  24.904  24.082 -0.1420  0.1468 -0.1682
32461W        W75374   4.744  30.345  20.473  0.1668  0.1307  0.1293
32462W        W75375  32.320  32.063  26.577 -0.2489 -0.1755  0.3873
32463W        W75376   2.562  29.826  20.326  0.2357  0.0073  0.2098
32464W        W75377   9.735  28.155  21.140  0.0289 -0.2419  0.2408
32465W        W75378  32.826  11.514  23.022  0.1498  0.1027  0.2084
32466W        W75379   9.966  21.703  15.776  0.1280  0.1524  0.1045
32467W        W75380  21.262  20.159  15.818  0.1426 -0.1356 -0.0887
32468W        W75381  18.950  28.585  15.424  0.1484  0.2049 -0.0233
32469W        W75382  14.703  33.461   3.330 -0.2668 -0.0865 -0.0697
32470W        W75383   6.011  19.783  25.352 -0.2044 -0.0723  0.1677
32471W        W75384  10.553  19.294  19.119  0.0861  0.1271  0.1565
32472W        W75385   2.454  21.731  26.283  0.2442  0.2016 -0.2162
32473W        W75386   3.440  32.097  16.790 -0.0732  0.2943 -0.1248
32474W        W75387  33.699  31.795   8.815  0.0179  0.2169 -0.0861
32475W        W75388  30.272  31.936  27.762  0.0466 -0.1643 -0.0874
32476W        W75389   7.523  15.893  27.408  0.0124 -0.1700  0.2916
32477W        W75390   3.782  29.898   3.944  0.1077 -0.1954 -0.0726
32478W        W75391   7.505  16.167  23.052  0.3408  0.2340  0.3814
32479W        W75392  33.610  25.824  27.641 -0.0145  0.0836 -0.3380
32480W        W75393   7.609  34.376  22.977  0.2141  0.1479  0.1193
32481W        W75394  12.255  33.455  26.904 -0.0968  0.1739  0.0675
32482W        W75395   7.807  23.433  21.228  0.1366 -0.0275  0.5739
32483W        W75396   6.635  23.191  24.193  0.2685 -0.2540  0.1221
32484W        W75397  14.472  20.894  13.068 -0.0902  0.2921  0.1020
32485W        W75398   8.043  32.320  16.646 -0.0354  0.0973  0.1093
32486W        W75399  31.665  16.054  16.135  0.0009 -0.1443 -0.0471
32487W        W75400  11.711  27.914  16.217  0.2157  0.0713 -0.2205
32488W        W75401  31.316  31.799  19.213  0.2830  0.0109 -0.1150
32489W        W75402   6.909  12.882  21.122 -0.4202 -0.1278 -0.2132
32490W        W75403   5.836  33.543  19.213 -0.2881 -0.1478  0.1354
32491W        W75404   5.458  27.860  28.724  0.2030  0.2778  0.2460
32492W        W75405  29.429  33.394   1.352 -0.1709 -0.0420 -0.2684
32493W        W75406   5.136  32.670  16.652 -0.1959  0.0523 -0.2095
32494W        W75407   5.237  18.962  13.854 -0.0309  0.0659 -0.0395
32495W        W75408   0.254  21.064   9.389 -0.1981 -0.3961  0.1101
32496W        W75409  33.233   9.144  22.126 -0.1024  0.3179 -0.0255
32497W        W75410   5.965  26.187  19.923  0.2944 -0.0396  0.0281
32498W        W75411   7.727  24.550  16.507 -0.3090 -0.1250 -0.0994
32499W        W75412   4.899  21.833   3.348  0.1580  0.0042  0.1901
32500W        W75413   4.925  26.580  27.267 -0.0070 -0.1569 -0.1720
32501W        W75414   2.758  17.635   3.675  0.1163 -0.4109 -0.1984
32502W        W75415  25.086  19.913  18.824 -0.1900  0.1190  0.0114
32503W        W75416   8.263  20.590  20.371  0.0559  0.4173 -0.3980
32504W        W75417   2.166  31.812  17.574 -0.0027 -0.2348 -0.0832
32505W        W75418   2.701  31.493  21.389  0.1949  0.0556 -0.1373
32506W        W75419  31.969  25.712  24.275  0.0062  0.0605  0.5144
32507W        W75420   2.090  16.191  25.081 -0.0138  0.4266 -0.0372
32508W        W75421   9.468   1.474  22.047  0.2224  0.1718 -0.0485
32509W        W75422   6.550   7.834  27.937  0.1066  0.0621 -0.0465
32510W        W75423   6.971  20.035  15.471 -0.1144 -0.3275  0.1376
32511W        W75424  20.430  21.257   0.688 -0.2048  0.0971  0.1182
32512W        W75425   9.731  31.318  17.559  0.0399  0.3215  0.0062
32513W        W75426   5.297  18.038  27.533  0.0833 -0.3564  0.0115
32514W        W75427   1.425  22.850  25.574 -0.0080  0.2524 -0.3745
32515W        W75428   4.585  19.325  22.684  0.0579 -0.0781 -0.2454
32516W        W75429   4.051  16.557   3.465  0.0743 -0.2610  0.1115
32517W        W75430  12.593  23.183  21.404  0.1869  0.2683  0.0662
32518W        W75431   2.087  20.052   0.825 -0.0245 -0.0061  0.0771
32519W        W75432  10.183  34.465  22.076  0.0550 -0.2226 -0.1470
32520W        W75433   3.545   1.319  27.422  0.1169 -0.1199  0.2417
32521W        W75434   3.930  26.875  27.506  0.3181 -0.2960  0.0612
32522W        W75435  27.101  27.564  28.325 -0.0463  0.1717 -0.3359
32523W        W75436   6.214  24.355  26.703 -0.0280  0.0068 -0.1972
32524W        W75437   1.537  26.638  25.076 -0.1232 -0.2681 -0.0900
32525W        W75438   1.851   0.252  26.483  0.1137  0.0305  0.0633
32526W        W75439  11.554  31.722   0.273 -0.0885 -0.0851 -0.3039
32527W        W75440   6.253  18.744  28.923 -0.1271  0.0599 -0.2087
32528W        W75441   2.661  22.219  20.853  0.1978 -0.2126 -0.0918
32529W        W75442   7.090  18.543  24.087  0.0158 -0.0889 -0.0319
32530W        W75443  34.424   2.150   4.069  0.3190  0.0951 -0.1088
32531W        W75444  30.100   5.375  16.437 -0.1623 -0.0974 -0.2772
32532W        W75445   7.388  18.845  24.736 -0.0400 -0.0115  0.1025
32533W        W75446  11.151  23.457  19.413 -0.2407  0.0483 -0.0885
32534W        W75447  32.911  21.926  27.694 -0.2938  0.0728 -0.1572
32535W        W75448   4.649  20.725   3.291  0.2295  0.0689 -0.0443
32536W        W75449  20.442   6.885  23.591 -0.0370 -0.0409 -0.1863
32537W        W75450  12.385  31.054  12.379  0.0036  0.2560  0.0588
32538W        W75451   1.084  26.780  21.866 -0.2323  0.1116  0.0486
32539W        W75452   0.542  27.429  19.498  0.4292  0.1267 -0.1342
32540W        W75453  33.534  31.598  29.147 -0.2590  0.1761  0.3273
32541W        W75454   1.607  19.453  16.346  0.0039  0.2339 -0.0814
32542W        W75455  11.584  25.437   5.748 -0.0230 -0.1391 -0.1229
32543W        W75456  14.853  28.499  25.154  0.1592  0.4069 -0.4272
32544W        W75457  10.692  21.744  25.482  0.4199  0.3617  0.1083
32545W        W75458  32.710  19.453  18.999  0.3461  0.1413  0.1334
32546W        W75459  14.507   0.110  28.316  0.1102  0.3290 -0.1265
32547W        W75460  10.881  21.727  18.573 -0.0422  0.1940 -0.0591
32548W        W75461   6.970  28.161  24.275  0.0326  0.1557  0.0536
32549W        W75462   6.178  28.003  29.396 -0.3047 -0.1864  0.1136
32550W        W75463   2.990  26.145   2.451 -0.2985 -0.1115 -0.0250
32551W        W75464  17.310  29.211  15.508 -0.2805  0.3028  0.2163
32552W        W75465   3.116  16.757  26.324  0.0345  0.0088 -0.0186
32553W        W75466  33.330  31.828   2.644 -0.4596  0.0504 -0.5930
32554W        W75467   2.755  23.482  22.364 -0.0772 -0.2677 -0.1148
32555W        W75468   4.971  20.501  20.117  0.0534  0.3099  0.1232
32556W        W75469   7.220  30.324  22.728 -0.0556 -0.1074 -0.5768
32557W        W75470   6.598  25.980  17.381 -0.2921 -0.0501  0.1512
32558W        W75471  14.489  31.089   5.418 -0.2148 -0.1307 -0.0095
32559W        W75472  12.218  34.319  23.919 -0.0480  0.2576 -0.2822
32560W        W75473   7.822  23.887  20.876  0.2302  0.0954  0.0511
32561W        W75474  19.283  24.345  27.402  0.2387  0.2273  0.2512
32562W        W75475   4.544  19.922  28.796  0.1807 -0.1969 -0.1309
32563W        W75476   8.925  30.101  17.076  0.0181  0.1261  0.0843
32564W        W75477   7.382  28.560  21.728  0.3313  0.2946 -0.0770
32565W        W75478   5.424  22.527  22.878 -0.2426  0.2738  0.1391
32566W        W75479   8.058  18.815  16.254 -0.0483  0.1790 -0.0167
32567W        W75480   7.891  21.492  27.778  0.1536  0.2071 -0.0715
32568W        W75481  30.224  32.611  22.938 -0.1303 -0.0623  0.1205
32569W        W75482  32.491   0.886  28.511 -0.0383 -0.4481 -0.0363
32570W        W75483  17.515  20.918   8.393  0.0182  0.0736  0.2411
32571W        W75484   1.218  17.089  24.404 -0.0933 -0.2329  0.0591
32572W        W75485   4.444  33.964  25.547  0.0689  0.1547  0.0579
32573W        W75486   0.019  20.568  21.104  0.0202  0.3910 -0.0592
32574W        W75487  18.162  20.200  26.592  0.0389 -0.1496  0.1216
32575W        W75488  24.686  16.175  20.544 -0.1762  0.1393 -0.5152
32576W        W75489   3.155  30.146  28.890  0.3953  0.1557  0.0544
32577W        W75490  12.987  31.204  18.342 -0.3435 -0.0433  0.1673
32578W        W75491  10.368  18.370  18.769 -0.0592 -0.0237 -0.1187
32579W        W75492  28.077  26.634   2.604 -0.1416  0.0564  0.3387
32580W        W75493   3.639  23.548   2.823 -0.0559  0.0158  0.1572
32581W        W75494   0.108  22.025  22.468 -0.0652 -0.2862  0.0753
32582W        W75495   9.389  23.161  16.653 -0.1718 -0.3143  0.0680
32583W        W75496  14.460  26.768   2.789 -0.0487  0.0284  0.3779
32584W        W75497  12.009  25.890  20.146 -0.2214 -0.2661 -0.3309
32585W        W75498  27.268  29.823  23.125  0.3023  0.1627 -0.2084
32586W        W75499   4.681  21.668  25.192  0.3585 -0.0789  0.4786
32587W        W75500  11.952  27.746  26.249 -0.0647  0.0198  0.0474
32588W        W75501   3.613   1.581   2.310 -0.1483 -0.0663 -0.0584
32589W        W75502  21.062  25.816  21.086 -0.3713 -0.3070  0.1162
32590W        W75503  12.265  28.890  27.147 -0.1088 -0.2197  0.1283
32591W        W75504   0.691  16.152   3.695  0.1519  0.1431 -0.0823
32592W        W75505   9.103   3.231  25.482  0.0177 -0.0058  0.0394
32593W        W75506  10.156  21.653  23.020 -0.0766  0.3966 -0.0460
32594W        W75507   2.962  24.413  20.106  0.1376 -0.1452 -0.4593
32595W        W75508  32.186   2.134   1.019  0.0700  0.0960  0.0927
32596W        W75509   9.704  18.024  21.676 -0.0130 -0.0011 -0.0110
32597W        W75510  32.985  22.684  16.433 -0.0228 -0.2662  0.0206
32598W        W75511   6.323  29.308  19.518  0.1664  0.1482  0.2099
32599W        W75512  10.563  26.550  18.543  0.1620  0.2174  0.1300
32600W        W75513  10.203  23.327   1.871 -0.0104 -0.3850  0.1707
32601W        W75514   2.337  24.238  22.491 -0.2787  0.0390  0.1724
32602W        W75515   6.163   7.457  24.997 -0.1553 -0.5089  0.4594
32603W        W75516   5.900  30.270   0.705 -0.1832  0.0577 -0.2210
32604W        W75517   5.297  20.084  19.570  0.1488  0.1224 -0.1244
32605W        W75518  15.291  14.174  23.756 -0.1214  0.0281 -0.1859
32606W        W75519   8.658  25.543  24.211 -0.2558 -0.0334 -0.3936
32607W        W75520   1.459  22.328  25.457 -0.0097  0.2229  0.0248
32608W        W75521  26.550  25.512  16.302 -0.1813 -0.1809  0.0353
32609W        W75522   5.658  22.148  18.795  0.0096  0.2041  0.2277
32610W        W75523   3.762   7.798  25.514 -0.1759  0.0904 -0.2384
32611W        W75524   6.476  29.091  24.067 -0.3282 -0.1159  0.3472
32612W        W75525   9.382  25.434  18.472  0.0062 -0.1156 -0.4081
32613W        W75526   4.241  22.546  24.974 -0.0694 -0.3047  0.0760
32614W        W75527  13.065  20.289  28.428  0.0463  0.2152  0.2409
32615W        W75528   8.275  21.453  22.065  0.0573  0.4697 -0.1136
32616W        W75529   9.968   1.262  29.507  0.1010  0.0445 -0.0271
32617W        W75530  14.123  33.512   1.637  0.1771  0.2072  0.0958
32618W        W75531  31.296  26.802   1.915  0.3497  0.2328 -0.1406
32619W        W75532   4.390  31.016  26.708  0.4079 -0.1682 -0.1344
32620W        W75533  13.407  27.569  27.450 -0.0508 -0.1360  0.1780
32621W        W75534  19.231   6.917  26.896  0.3661 -0.1941  0.4063
32622W        W75535  31.341  29.452  17.205  0.1879  0.0397 -0.1885
32623W        W75536   8.734  32.569  22.581  0.0288  0.2290 -0.0719
32624W        W75537   4.898  30.386  19.853  0.1941  0.0289  0.0523
32625W        W75538   5.011  15.089  19.154 -0.2653  0.1872 -0.0341
32626W        W75539  13.756  24.004  21.281 -0.2919  0.1598 -0.0807
32627W        W75540  24.501  26.055   2.305  0.2481  0.1993 -0.0371
32628W        W75541  18.516  31.837  23.577 -0.0297 -0.1059  0.4076
32629W        W75542   0.137  27.775  21.549 -0.3650 -0.0267  0.0457
32630W        W75543   9.882   1.304  25.864  0.2162 -0.2294  0.1584
32631W        W75544  10.526  23.794  22.444 -0.0668  0.0356 -0.2929
32632W        W75545  31.187  17.974   1.518 -0.1907 -0.4170 -0.2945
32633W        W75546  12.868  26.446  15.178 -0.1339  0.1868 -0.1012
32634W        W75547   0.562  18.883  15.052  0.1839  0.0328  0.2738
32635W        W75548  33.716  25.960  18.337 -0.2575 -0.1646  0.0989
32636W        W75549   5.382  18.240  22.331  0.1454 -0.1773 -0.0336
32637W        W75550  32.269  27.300   4.790  0.1901  0.1145 -0.0089
32638W        W75551   4.444  23.464  17.658  0.3967 -0.0171  0.2355
32639W        W75552  30.800  19.528  20.876  0.1272  0.2787  0.2051
32640W        W75553   5.939  27.652  20.433 -0.2243  0.4366 -0.2095
32641W        W75554   2.657  10.353  24.023  0.4673  0.2895 -0.0878
32642W        W75555  10.052  24.214  26.478 -0.2126 -0.0188 -0.0393
32643W        W75556   2.277  30.538   4.069 -0.0505  0.0478 -0.2746
32644W        W75557   5.799  25.684   2.578 -0.4253  0.0624 -0.0640
32645W        W75558  12.263  26.222  17.935 -0.0807 -0.0365  0.0890
32646W        W75559   6.978  31.326   4.343  0.1046 -0.1737  0.1248
32647W        W75560  31.031  24.983  18.518  0.1342 -0.0741  0.0741
32648W        W75561   4.323  20.856  24.091  0.1609 -0.3352 -0.0291
32649W        W75562   2.296  31.360   4.751 -0.2327  0.0353 -0.0207
32650W        W75563   3.497  30.319   8.384  0.2343 -0.2889 -0.0122
32651W        W75564   2.161  32.132  22.329 -0.0014 -0.0035  0.0857
32652W        W75565  14.862  23.959  24.001  0.0133 -0.3092  0.0786
32653W        W75566  31.187  29.407  26.071  0.0295 -0.1496  0.2053
32654W        W75567   8.546  25.536  28.718  0.1054 -0.0215  0.3820
32655W        W75568   6.185  31.083  11.212  0.1432  0.2799 -0.0245
32656W        W75569  34.145  13.590  27.221  0.0616  0.2433  0.0385
32657W        W75570   9.802  24.687  22.857 -0.1220 -0.0552 -0.0133
32658W        W75571   1.243  27.066  27.812 -0.4192  0.0951  0.0853
32659W        W75572  13.226  21.515  15.053 -0.0641  0.1976 -0.2614
32660W        W75573   4.951  29.188   7.908 -0.3826  0.0230 -0.4745
32661W        W75574  32.794  34.249  22.915  0.1549  0.0084 -0.0125
32662W        W75575   4.964  22.502  26.026  0.1172  0.1122 -0.2104
32663W        W75576   8.697   0.885   6.165  0.1563 -0.2934 -0.2269
32664W        W75577  24.778   1.925  28.116 -0.3312 -0.2805 -0.0842
32665W        W75578   9.527  28.945  22.940 -0.1439 -0.0134 -0.0914
32666W        W75579  33.391  25.691  25.853 -0.1550 -0.1292 -0.0902
32667W        W75580   6.157  24.715  16.592  0.0783  0.2886 -0.2095
32668W        W75581   3.933  25.704  16.973 -0.0318 -0.2602  0.1181
32669W        W75582  32.683  33.288   6.637 -0.0197  0.2506  0.1814
32670W        W75583   2.217  21.444  22.744  0.0918 -0.1770 -0.0206
32671W        W75584   4.885  16.028  19.282 -0.1893  0.1502  0.0091
32672W        W75585  25.323   5.454   3.640  0.2078 -0.4131 -0.2463
32673W        W75586  13.787  27.860   1.140  0.1688 -0.2322 -0.3012
32674W        W75587   1.546  22.622  27.961 -0.2513  0.3758 -0.2212
32675W        W75588  12.888  11.190  19.634 -0.1238 -0.1573 -0.2704
32676W        W75589  31.475  30.018  22.030 -0.1597 -0.0561 -0.4170
32677W        W75590   9.157  29.838  24.943 -0.1616 -0.1723 -0.0132
32678W        W75591  10.426  34.075  25.242  0.0001 -0.1445  0.1636
32679W        W75592  32.839  21.241   8.242  0.5618 -0.2994 -0.3267
32680W        W75593   1.481  30.076  29.053  0.2237  0.1794  0.4026
32681W        W75594   5.107  17.856  22.644  0.1747 -0.0362 -0.1328
32682W        W75595   2.233  32.867   0.500  0.1998 -0.1197  0.1080
32683W        W75596   1.005  29.979  21.920 -0.2400  0.4672  0.3189
32684W        W75597   2.243  32.952  23.324  0.1533  0.0508  0.0540
32685W        W75598  32.947  20.126   2.658 -0.0492 -0.1126  0.1139
32686W        W75599   2.905  27.324  29.504 -0.0904  0.1140  0.0771
32687W        W75600   3.762  18.204  23.377 -0.0162  0.1042 -0.1371
32688W        W75601   2.884  24.506  24.938 -0.0451 -0.0468  0.0341
32689W        W75602  13.863  20.125  26.502 -0.4119 -0.0470  0.2208
32690W        W75603   2.013  33.438  18.252  0.3553 -0.1112 -0.3891
32691W        W75604  29.673  33.290  27.435 -0.0320 -0.0124 -0.2558
32692W        W75605   4.643  25.372   9.597  0.1434 -0.1279  0.1870
32693W        W75606   5.025  22.991  16.417 -0.2580  0.2183 -0.0220
32694W        W75607  33.893  23.612  19.778  0.1374  0.0110  0.1232
32695W        W75608   7.276   1.072  18.766 -0.3564 -0.0069  0.2987
32696W        W75609   0.387  31.489  18.061 -0.2330 -0.0176 -0.3337
32697W        W75610  28.984  33.039  29.339  0.0506 -0.1351 -0.1925
32698W        W75611  26.311  23.072   0.049  0.2352 -0.1079  0.0208
32699W        W75612   0.848  31.246  27.463 -0.0744  0.2090  0.1770
32700W        W75613  19.180  29.213  19.448  0.4103 -0.0820  0.1801
32701W        W75614   9.024  27.782  26.526  0.1455 -0.0604 -0.1343
32702W        W75615  17.640   4.599  21.489  0.0417 -0.0236 -0.0724
32703W        W75616   3.287  25.126  19.475  0.1631 -0.0636 -0.1192
32704W        W75617   6.196  26.481  25.552 -0.1806 -0.0063 -0.0850
32705W        W75618  31.900  25.045   3.660 -0.3827 -0.1391 -0.0572
32706W        W75619  33.064  23.659  24.721  0.1566 -0.0212  0.0372
32707W        W75620   7.602  19.891  24.714  0.0422  0.0977  0.1618
32708W        W75621  10.310  25.119  23.321  0.0189  0.1350  0.1883
32709W        W75622  17.347  30.605  21.396  0.0487  0.0150  0.1607
32710W        W75623   1.647  32.945  18.216 -0.1202 -0.3063 -0.0183
32711W        W75624  31.576   6.623  25.901  0.0355  0.0618 -0.1424
32712W        W75625   8.907  23.271  16.327 -0.2465  0.0918  0.0393
32713W        W75626  33.942  33.826   2.393 -0.0015  0.0685  0.0182
32714W        W75627   1.703  27.566  23.392  0.2080  0.2537 -0.0392
32715W        W75628  32.567  20.629  28.370  0.2311  0.1431 -0.3884
32716W        W75629  12.319  24.671  14.192 -0.2085  0.1956 -0.2072
32717W        W75630   2.396  26.320  21.761  0.1116  0.0942 -0.0213
32718W        W75631   3.556  27.875  20.270  0.1000 -0.0192 -0.1008
32719W        W75632  34.278  30.196  28.605  0.2642 -0.0781 -0.1227
32720W        W75633   9.290  21.130  21.263 -0.0820  0.0543 -0.0980
32721W        W75634   5.114  23.328  24.236 -0.2148  0.1023  0.3592
32722W        W75635   6.524  17.103  27.915 -0.0766 -0.0884 -0.1557
32723W        W75636   5.481  27.978  19.476  0.0859 -0.0528 -0.0767
32724W        W75637   9.051  26.169  24.545 -0.0722 -0.0627  0.1033
32725W        W75638   3.565  33.318  18.910  0.1558  0.5881  0.3190
32726W        W75639   1.546  22.747  22.437 -0.2530 -0.0359  0.2107
32727W        W75640   5.110  28.123  24.142  0.0231 -0.1415 -0.1586
32728W        W75641   5.286  29.022  27.173 -0.0605 -0.4326 -0.1225
32729W        W75642   0.629   9.020  17.924  0.1897  0.0879  0.3415
32730W        W75643  16.454  30.091  29.701 -0.1845 -0.0296 -0.1303
32731W        W75644   1.207  23.960  18.045 -0.2139  0.1711 -0.1918
32732W        W75645  11.419  28.465  22.726  0.3012  0.1225 -0.0692
32733W        W75646  28.825  31.671   4.464 -0.4281 -0.2666  0.1395
32734W        W75647   6.987   9.704  19.033  0.2951 -0.0899 -0.1594
32735W        W75648   4.022  30.878   4.833  0.0481 -0.0584 -0.0105
32736W        W75649   9.564  28.182   8.716 -0.1750  0.1631 -0.1734
32737W        W75650   1.902  24.122   2.100 -0.2611 -0.1947  0.0485
32738W        W75651   1.642  27.783  20.658  0.1925 -0.0696  0.0376
32739W        W75652   7.972  24.889  28.061  0.1292  0.3189  0.4313
32740W        W75653   4.877  20.163   4.067  0.2257 -0.0337  0.2028
32741W        W75654   3.410  15.111   7.756  0.1834  0.0035 -0.3798
32742W        W75655  26.090  17.889  25.521  0.0393 -0.1374 -0.1150
32743W        W75656   0.159  17.088  22.307 -0.0678  0.1433  0.3580
32744W        W75657  16.687   6.578   1.823  0.2116  0.1347  0.0420
32745W        W75658   4.356  25.649  24.473  0.2312  0.0259 -0.1205
32746W        W75659  27.568  32.045   1.079 -0.0541  0.1833  0.2141
32747W        W75660   1.907  30.822  16.601  0.2282  0.2793 -0.1949
32748W        W75661  17.686  24.346   5.431  0.0118  0.2153  0.0702
32749W        W75662  12.253   2.828  24.576  0.2379  0.0155  0.3594
32750W        W75663  26.168  28.972  19.481 -0.1006 -0.0537  0.2039
32751W        W75664  32.244  28.909   3.253 -0.2149 -0.0079 -0.1510
32752W        W75665  33.999  32.155  22.669  0.2100  0.1261  0.2234
32753W        W75666  17.165  23.339  24.437 -0.1605  0.1320  0.2398
32754W        W75667   1.121  21.856  24.200  0.0373  0.0376  0.3176
32755W        W75668   1.993  19.714  25.228  0.1823 -0.1140  0.0734
32756W        W75669   4.741  20.891  19.788 -0.0209  0.1035 -0.1887
32757W        W75670   5.247  23.148  22.322  0.4912  0.1172  0.2312
32758W        W75671  13.855  22.149  29.379  0.0846  0.1578 -0.0634
32759W        W75672   0.714   0.370  16.668 -0.1576  0.0027  0.0905
32760W        W75673   0.173   0.147  25.840 -0.1401  0.0481  0.0122
32761W        W75674  33.113  28.865  25.615 -0.2357 -0.0484  0.1460
32762W        W75675  33.207  25.277   1.361 -0.4028 -0.1841 -0.0706
32763W        W75676   3.777  25.987   6.958  0.0006  0.0433  0.1833
32764W        W75677   6.383  26.359  23.987 -0.4748  0.1459  0.2971
32765W        W75678   0.886   7.540  22.542 -0.2354 -0.2275 -0.2244
32766W        W75679   8.748  23.610  28.126 -0.0140  0.2579  0.0008
32767W        W75680   7.353   0.760  22.637  0.1038 -0.0090 -0.2267
32768W        W75681   1.171  30.349  23.036 -0.0437  0.2985  0.1137
32769W        W75682   9.276  17.146  29.509  0.0931  0.0406  0.1947
32770W        W75683  31.574  31.992  25.812  0.1040  0.1947 -0.0973
32771W        W75684   2.471  32.736  16.281  0.2758 -0.2408  0.0367
32772W        W75685   2.674  13.430   9.147  0.0830 -0.0134  0.1586
32773W        W75686   3.782  26.189  26.512  0.0573 -0.3645  0.0378
32774W        W75687   3.110  19.740  15.228  0.2660  0.0080  0.0076
32775W        W75688  31.541  31.508  26.360 -0.3227 -0.0544 -0.0567
32776W        W75689   3.844  26.584  21.478  0.2632  0.3641  0.1549
32777W        W75690   9.159  29.080  27.262 -0.3476  0.0772 -0.1102
32778W        W75691  33.526  31.343   2.349  0.0170  0.4724  0.1742
32779W        W75692   5.682  19.128  25.125 -0.0607  0.1030  0.1353
32780W        W75693   6.987  24.998  20.122 -0.0411  0.2867  0.0224
32781W        W75694   4.836  23.407   9.879  0.2285  0.2503 -0.0621
32782W        W75695   6.703  21.368  24.044  0.0132 -0.4813 -0.2536
32783W        W75696   0.166  26.767   1.280 -0.3568  0.1287  0.0534
32784W        W75697   8.047   3.068  21.358 -0.2635  0.0686 -0.1285
32785W        W75698  11.662  26.264  24.059  0.1198  0.1772 -0.3048
32786W        W75699   4.873  28.032   5.079 -0.0721 -0.0564 -0.0957
32787W        W75700   5.852  20.497  27.920 -0.1933 -0.0474  0.1336
32788W        W75701   0.003  29.091   0.854 -0.0854 -0.1140 -0.0131
32789W        W75702   5.488  31.552  26.142 -0.3381  0.2571 -0.1365
32790W        W75703   8.618  32.745   8.549  0.2572  0.0058 -0.0747
32791W        W75704  33.689  27.183   0.480 -0.1225  0.0171 -0.1200
32792W        W75705   1.196   2.913  17.529 -0.0357  0.0670  0.3133
32793W        W75706  30.582  26.799  22.955  0.0568  0.2156 -0.2342
32794W        W75707   6.271  32.779  25.280 -0.0065 -0.1447 -0.1762
32795W        W75708   8.302  21.439  28.936  0.2185 -0.0456  0.0288
32796W        W75709   0.979   8.178  27.201  0.1732 -0.2858  0.4719
32797W        W75710  17.352  23.183  22.232 -0.0674 -0.0781  0.1128
32798W        W75711   8.763  28.287  22.051 -0.5338 -0.0061  0.2339
32799W        W75712  11.736  25.005  27.867  0.0994 -0.0097  0.2221
32800W        W75713   3.771  32.079  21.322  0.1121 -0.0336  0.2424
32801W        W75714   3.225  17.608  27.396  0.1532  0.2591 -0.6637
32802W        W75715   3.630  21.136   0.136 -0.2203 -0.0776  0.1254
32803W        W75716   3.421  22.809  17.359  0.0892 -0.3200 -0.1088
32804W        W75717  10.578  19.881  19.810 -0.0021  0.2909 -0.0208
32805W        W75718   6.696  29.667   1.395  0.0328 -0.1020  0.1871
32806W        W75719   8.487  27.287  16.941 -0.2215  0.1944  0.1294
32807W        W75720   5.584  19.735  18.994 -0.1610  0.0522  0.0076
32808W        W75721   1.852  28.834  23.779 -0.0448  0.2342 -0.0308
32809W        W75722   5.029  28.453  24.565  0.1119  0.2738  0.1662
32810W        W75723   2.254  18.560  17.453 -0.3135 -0.1870 -0.2109
32811W        W75724  28.204  23.757  18.688  0.1765 -0.0103  0.3208
32812W        W75725  17.071  24.466   2.502  0.0087 -0.0210 -0.0855
32813W        W75726  29.553   5.056   1.307 -0.1230 -0.2380 -0.0263
32814W        W75727  31.850  28.067  20.106  0.2252  0.3041 -0.0116
32815W        W75728   3.968  22.691   3.013 -0.1716  0.0256 -0.0995
32816W        W75729   2.640   4.017  20.418 -0.1383 -0.0920  0.0250
32817W        W75730   3.746  20.405   7.442 -0.0227 -0.0794  0.1718
32818W        W75731   4.483  29.103  17.408 -0.3365  0.0616  0.0648
32819W        W75732  34.005  26.939   2.557  0.0194 -0.0120 -0.1565
32820W        W75733   8.222  26.962  23.170  0.0709 -0.1405  0.0156
32821W        W75734  15.726  33.032  17.725  0.0140  0.1752  0.1900
32822W        W75735  10.771  28.338  19.767  0.0217  0.1050 -0.3705
32823W        W75736  11.046  22.092  28.096  0.1299  0.1045 -0.1331
32824W        W75737   4.787  25.790   7.120  0.0513  0.0230  0.1555
32825W        W75738   0.379  27.211  23.076  0.1121 -0.1100  0.3372
32826W        W75739   6.517  11.448   1.207 -0.0867 -0.2467  0.2890
32827W        W75740  21.413  22.284  27.678  0.3363  0.1428  0.0556
32828W        W75741   6.755   2.956   5.148 -0.2347 -0.0732 -0.1933
32829W        W75742   9.569  25.447  16.383  0.2285 -0.1811 -0.1849
32830W        W75743   8.278  20.296  21.127 -0.1756  0.0215 -0.0781
32831W        W75744   7.779  24.651  28.736  0.0427 -0.0194  0.3727
32832W        W75745  11.338  22.999  24.356  0.1530 -0.1596 -0.1596
32833W        W75746   9.817  25.444   7.430  0.0038 -0.1836  0.0584
32834W        W75747   9.019  24.883  26.204 -0.0826  0.0408  0.1669
32835W        W75748  33.484  28.078  27.345 -0.1204  0.3898  0.2967
32836W        W75749   1.758  22.427  22.110  0.0365 -0.0297  0.2815
32837W        W75750  31.721   1.828   3.421 -0.0649  0.0776  0.1287
32838W        W75751   2.635  16.093  27.564 -0.0333  0.4010 -0.0232
32839W        W75752  30.963  16.566  24.999  0.0402  0.0642  0.0466
32840W        W75753  33.798  30.362  24.502 -0.1112  0.2596 -0.2812
32841W        W75754  19.037  29.986   1.299  0.0926 -0.0773  0.1142
32842W        W75755  31.837  24.576   1.313 -0.0290 -0.3021  0.0251
32843W        W75756  10.724  25.526   5.078 -0.2109 -0.0603 -0.1520
32844W        W75757   1.496  34.061  21.420  0.1881  0.1950 -0.2459
32845W        W75758   8.531  26.583  23.258  0.2840  0.1612  0.1638
32846W        W75759   1.913  29.773  28.405  0.0180  0.0881  0.1561
32847W        W75760   7.022  27.387  25.928  0.0725  0.0118 -0.2281
32848W        W75761  29.999  24.494  19.517 -0.1242 -0.0663 -0.1881
32849W        W75762   7.330   6.213  23.231  0.1618 -0.0855 -0.3421
32850W        W75763  27.957  21.282  25.111 -0.4134 -0.0231  0.2632
32851W        W75764   2.407  25.122  16.270 -0.1587 -0.1591 -0.1834
32852W        W75765  31.791  27.513  22.401 -0.3378 -0.3029 -0.2367
32853W        W75766  18.192  26.409  23.254  0.3448 -0.0153 -0.0883
32854W        W75767  31.136  29.338   2.082  0.1098  0.0860 -0.1035
32855W        W75768   0.656  27.355  29.029  0.0290  0.1632 -0.3256
32856W        W75769  15.339  25.489  25.248 -0.0193 -0.4151 -0.1190
32857W        W75770   2.879  27.387   0.400 -0.0633  0.0203 -0.1248
32858W        W75771   5.649  22.636  15.975 -0.0469 -0.0517  0.2247
32859W        W75772   1.757  28.527  19.835  0.0768  0.3505 -0.1187
32860W        W75773   2.194  33.047  24.751 -0.1691 -0.1348  0.1457
32861W        W75774  13.601  25.723   3.961  0.1099 -0.2450 -0.2304
32862W        W75775   2.836   1.305   1.224 -0.2945  0.1053 -0.2086
32863W        W75776  11.698  14.701   5.169 -0.1369 -0.3024 -0.0840
32864W        W75777   5.847  31.495  22.698  0.0117 -0.1918 -0.2498
32865W        W75778  12.931  27.425  19.867 -0.3319  0.0477 -0.0745
32866W        W75779   7.585  19.840   4.901  0.0111 -0.1190  0.0507
32867W        W75780  11.983  14.610  22.464  0.2281 -0.2149 -0.1522
32868W        W75781  32.875  31.843   2.208 -0.1665  0.1456 -0.0723
32869W        W75782   4.518  26.058   1.901  0.2133  0.0030  0.0281
32870W        W75783   0.472  23.100   1.560 -0.0659  0.1382  0.0795
32871W        W75784   8.913   3.707   2.753 -0.4598 -0.0745 -0.1431
32872W        W75785   0.408   0.832  20.828 -0.1677  0.0997 -0.0875
32873W        W75786  28.537  23.279   0.180  0.3274 -0.1236  0.4148
32874W        W75787  13.753  26.717  27.399  0.0118 -0.2373  0.0592
32875W        W75788  31.880  26.502   0.039  0.0725  0.0367  0.0946
32876W        W75789   7.941  24.563   1.066  0.1516 -0.1358  0.3866
32877W        W75790  31.935  22.519  19.741  0.0005 -0.4132 -0.2281
32878W        W75791   7.995  10.579  23.823 -0.0089  0.1610 -0.3972
32879W        W75792  29.672  30.869  20.154 -0.0163 -0.4404 -0.4893
32880W        W75793  34.112  13.202  19.373  0.1900 -0.0125 -0.1452
32881W        W75794  31.441  25.055  14.251  0.0989  0.0883 -0.0254
32882W        W75795   9.971  28.587  28.809  0.1188 -0.2236 -0.0679
32883W        W75796   7.333  28.839  25.444  0.2112 -0.1368  0.1282
32884W        W75797   8.153  20.619  29.745 -0.0158 -0.0505  0.1659
32885W        W75798   1.499  31.343  20.232  0.2583 -0.2751  0.0283
32886W        W75799   5.604  29.268  25.179  0.0475  0.0144  0.1720
32887W        W75800   2.978  28.658   2.829  0.4619 -0.0745 -0.1014
32888W        W75801   8.808  25.930  26.108 -0.0275  0.0101 -0.2137
32889W        W75802   1.876  22.558  29.504  0.1208 -0.1872 -0.2406
32890W        W75803  31.324  29.072  28.068  0.1649 -0.1374 -0.0530
32891W        W75804   1.194  30.932   0.110 -0.0721  0.0350 -0.3066
32892W        W75805   3.940  19.354  27.941 -0.1088 -0.0752  0.0785
32893W        W75806   3.651   1.635   6.913  0.0761  0.0417 -0.1207
32894W        W75807   5.795  16.514  24.481 -0.0032 -0.1115  0.0494
32895W        W75808  34.262  19.666   1.121 -0.0564  0.0055  0.2592
32896W        W75809  22.370  24.959  24.765 -0.0417  0.0573  0.1108
32897W        W75810  33.419  33.020  22.685 -0.3055 -0.0413  0.0474
32898W        W75811   4.500  22.044   0.403  0.3416 -0.0300  0.2716
32899W        W75812  11.790  23.024  14.250  0.1827 -0.0603 -0.0779
32900W        W75813   4.065  26.076   4.436  0.0884 -0.0032 -0.0717
32901W        W75814   7.319   1.886  29.707  0.1880  0.4031  0.2017
32902W        W75815   7.101  28.249   4.807  0.0261  0.1905 -0.0030
32903W        W75816   9.070  23.476  25.678  0.1941 -0.2058  0.1984
32904W        W75817   5.570  13.180   7.078  0.0590  0.1245 -0.2519
32905W        W75818   5.751  19.076   0.864 -0.0688  0.2325 -0.0161
32906W        W75819  12.275  24.062  22.232  0.1571  0.0691  0.0655
32907W        W75820  13.359  18.494  23.572  0.0760  0.1928  0.0988
32908W        W75821   9.329  27.749  19.236 -0.1761  0.3080 -0.0410
32909W        W75822   0.766  21.619  24.648 -0.1373 -0.0837  0.3999
32910W        W75823   7.078   2.246  17.874  0.1457  0.1411  0.2956
32911W        W75824  28.537  21.675   1.311 -0.0611  0.3366  0.0552
32912W        W75825  30.509  22.905  23.033  0.2517  0.1666  0.2359
32913W        W75826  15.740  28.915  21.186 -0.0164 -0.0994 -0.1785
32914W        W75827  31.685  22.776   5.054  0.1881 -0.0872  0.1521
32915W        W75828   0.737  23.774   6.077 -0.2185  0.1088 -0.1562
32916W        W75829  11.171  20.979   7.199 -0.1483  0.2771  0.2183
32917W        W75830   1.129  29.519   4.356  0.2269 -0.0081  0.2687
32918W        W75831  25.485  34.230  21.387  0.1537 -0.1331 -0.0965
32919W        W75832  34.305  13.049  24.899 -0.1501 -0.2647  0.3764
32920W        W75833   3.868  19.943  17.404 -0.1094  0.2475 -0.0610
32921W        W75834  29.356  22.655  29.552 -0.3261 -0.3233  0.4205
32922W        W75835   8.361  27.831   6.052 -0.0010  0.0739  0.1836
32923W        W75836  12.169  16.778  29.257  0.1421 -0.2006 -0.0425
32924W        W75837   5.914  30.530   6.174 -0.1778 -0.0225 -0.0421
32925W        W75838   0.799  27.657  27.677 -0.1529 -0.0084 -0.1427
32926W        W75839  17.313  28.771  21.598  0.0330 -0.1043  0.2761
32927W        W75840   5.432  10.302  20.702  0.1700 -0.0825 -0.1257
32928W        W75841  18.734  19.286   4.317 -0.1926 -0.3918  0.4164
32929W        W75842  10.776  24.180  24.220  0.0420  0.2335  0.0399
32930W        W75843  30.506   0.446  17.296  0.3015  0.1255 -0.1532
32931W        W75844  33.509  15.716  23.966 -0.2150 -0.2213  0.2130
32932W        W75845   3.552  23.031   2.221 -0.2214 -0.0415  0.1765
32933W        W75846   0.126  22.307  21.283  0.0175 -0.1810 -0.3561
32934W        W75847   2.869  23.448  25.989 -0.1225 -0.0494  0.1071
32935W        W75848   3.726  23.024  18.055  0.2784  0.1966 -0.1232
32936W        W75849  13.128  31.694  25.228 -0.0903  0.0978 -0.1041
32937W        W75850   6.901  24.648  28.060  0.0293  0.3500  0.0515
32938W        W75851   6.062  26.992   2.195 -0.0771  0.1382 -0.1053
32939W        W75852   6.972  25.583  18.461  0.3914 -0.0258 -0.2440
32940W        W75853  28.270  21.779  22.675  0.2069  0.1917  0.0847
32941W        W75854  31.518  20.939   6.264  0.1884 -0.1155 -0.0278
32942W        W75855  33.410  14.984   3.416  0.3078  0.0256  0.2597
32943W        W75856  23.344  28.479   7.923 -0.3153 -0.0965  0.0089
32944W        W75857   6.102  21.460  25.651  0.1529  0.0542  0.1259
32945W        W75858  34.151  24.144   0.152  0.0167  0.1363 -0.1233
32946W        W75859  31.420   3.281  26.948  0.0069 -0.2523  0.2402
32947W        W75860   0.255  21.140  22.536 -0.0431  0.0262  0.3845
32948W        W75861   6.666  12.117  18.387 -0.0112 -0.0364  0.2699
32949W        W75862   3.535  18.512  29.354 -0.3355 -0.1287  0.1126
32950W        W75863  34.370  20.252  22.535  0.3214 -0.2358  0.0705
32951W        W75864  13.393  17.052  19.082 -0.1395  0.1584  0.1554
32952W        W75865   8.400  31.374  21.660  0.0633  0.0731 -0.0287
32953W        W75866  12.662  17.389  20.069 -0.0130  0.0467  0.1323
32954W        W75867   8.520  18.745  25.490  0.0276 -0.0679 -0.0381
32955W        W75868   4.807  26.917   4.462  0.2685  0.1429  0.3593
32956W        W75869   9.679  31.380  18.025 -0.0470  0.3634 -0.5610
32957W        W75870   4.596  21.756  21.393  0.3370  0.0544  0.0743
32958W        W75871   2.894  26.494  25.588  0.2123  0.1358  0.0232
32959W        W75872   0.590  16.028   5.531 -0.1038 -0.0848 -0.0145
32960W        W75873  32.481  31.357   5.629  0.0008  0.0154 -0.0483
32961W        W75874   4.661  26.086  24.985 -0.3230 -0.2094 -0.0769
32962W        W75875  30.794  26.380   0.795 -0.3078  0.0376  0.1112
32963W        W75876   8.670  22.917   0.993  0.0790 -0.0443 -0.0158
32964W        W75877   5.399  25.459   6.320  0.2985  0.0442 -0.1259
32965W        W75878   1.576  29.255   4.224 -0.0500  0.2672 -0.0965
32966W        W75879   1.415  23.491   4.243 -0.3276  0.0309 -0.1338
32967W        W75880   3.294   0.337  22.688  0.0928  0.1343  0.2700
32968W        W75881   3.774  25.022  27.686  0.0240  0.1097  0.1252
32969W        W75882  12.493  20.823   4.586  0.3996  0.0465  0.0025
32970W        W75883  10.630  31.714  29.382  0.0856  0.1918 -0.1241
32971W        W75884  28.693   1.805  28.621 -0.0502 -0.1689  0.1821
32972W        W75885  34.360  30.450  25.875  0.2336  0.1609 -0.3250
32973W        W75886   9.027  25.833   7.562 -0.0399 -0.0389  0.2416
32974W        W75887   5.699  29.669  21.330  0.4377 -0.1702 -0.0906
32975W        W75888   2.873  20.006  14.239 -0.0424 -0.2928  0.2837
32976W        W75889   2.436  28.526  16.731 -0.1700 -0.1865 -0.2926
32977W        W75890  25.507  18.923  28.404  0.0225 -0.3472  0.2625
32978W        W75891   7.165  14.085   0.020 -0.0909 -0.0876 -0.1501
32979W        W75892   5.727  32.132  27.705 -0.0641 -0.0499 -0.1316
32980W        W75893  12.356  18.721   1.272 -0.2689  0.0037  0.0770
32981W        W75894   2.517  22.971   1.231  0.0727  0.0259  0.0542
32982W        W75895  32.654  27.550  23.847  0.1014 -0.1770  0.2213
32983W        W75896  29.994  30.098  25.626 -0.3053 -0.0736  0.0137
32984W        W75897  27.170  23.494  26.993  0.1880 -0.2053  0.2024
32985W        W75898  15.392  24.359  18.269  0.1546 -0.2280  0.0167
32986W        W75899   8.840   8.219  12.753 -0.0378 -0.5580  0.3085
32987W        W75900   1.087  31.024  24.844  0.0604  0.3247  0.1032
32988W        W75901  28.603  20.244  25.531  0.0900  0.4468  0.0592
32989W        W75902   2.701  15.143  25.613 -0.2506 -0.0976  0.2265
32990W        W75903   1.329  20.663  21.787 -0.1852 -0.2281 -0.1687
32991W        W75904   5.881  24.499  27.461 -0.0303  0.0300  0.3148
32992W        W75905  11.966  31.325   4.554  0.1706  0.1585  0.3226
32993W        W75906   1.935   3.119  29.331  0.1680  0.1611 -0.2302
32994W        W75907   4.976  20.877  22.770  0.3665 -0.0262 -0.1705
32995W        W75908  16.204  21.924  27.392 -0.1509 -0.0034 -0.2455
32996W        W75909   3.146  19.244   4.126  0.0765 -0.0176  0.0808
32997W        W75910  14.469   7.438   5.413 -0.1373  0.1543  0.4103
32998W        W75911  16.179  24.275  24.727  0.0062  0.0537  0.3580
32999W        W75912   1.511  27.613  28.865 -0.0355  0.4463 -0.0740
33000W        W75913   5.107  19.247   4.683 -0.0011  0.1467  0.0314
33001W        W75914  34.011  33.310  20.470  0.1248 -0.1280  0.0974
33002W        W75915  12.738  32.786  21.128 -0.0536 -0.1794 -0.2251
33003W        W75916   5.489   4.858  28.785  0.1910  0.2569 -0.0998
33004W        W75917  30.656  21.678   0.010  0.1128 -0.0590  0.0544
33005W        W75918  26.043  29.471  25.483 -0.0662  0.0088 -0.2172
33006W        W75919   0.932  29.745  23.512  0.0212  0.3877  0.3141
33007W        W75920  32.375  27.917   3.680 -0.1506  0.2128  0.2227
33008W        W75921   8.644  21.451  15.828  0.1201  0.2292  0.1053
33009W        W75922   4.920  15.041  18.277  0.4199 -0.3336  0.0424
33010W        W75923  30.847  21.939   1.115  0.0776 -0.0229 -0.2773
33011W        W75924   7.521  31.224   5.117  0.1481  0.0502  0.1877
33012W        W75925  14.206  28.173  24.572  0.3324 -0.0848  0.3264
33013W        W75926   2.798   0.780  11.447 -0.0062  0.0154  0.1617
33014W        W75927   0.032  22.777  27.913 -0.0442  0.3020  0.0388
33015W        W75928   1.848  33.818   5.603 -0.0733 -0.1898 -0.1604
33016W        W75929   7.560  22.658  25.292  0.0428 -0.1821 -0.1200
33017W        W75930   6.701  21.075  23.596  0.1942 -0.2436 -0.0501
33018W        W75931   7.870  25.335   5.289  0.1976  0.1898 -0.2454
33019W        W75932   3.812  32.879  29.313  0.3521 -0.2907 -0.1660
33020W        W75933  28.557   1.377   9.922 -0.3392  0.1018 -0.1310
33021W        W75934   4.933   2.179   1.973  0.0918 -0.1803 -0.2581
33022W        W75935   8.377  25.763   4.534 -0.1543 -0.0346 -0.0141
33023W        W75936   4.800  27.178  22.828  0.0917 -0.2585 -0.2912
33024W        W75937   5.996  17.820   2.500  0.0690 -0.4109  0.2427
33025W        W75938  34.205  23.251  26.075 -0.0057 -0.0677  0.0197
33026W        W75939  28.359  33.571   4.833 -0.1289  0.3082  0.0098
33027W        W75940  10.260  32.038  29.341  0.0304  0.3893  0.0479
33028W        W75941   4.057  24.742   0.171 -0.1336  0.0092  0.0943
33029W        W75942   9.204  23.586  24.610  0.0404 -0.1189  0.1650
33030W        W75943   1.342  26.120   4.511 -0.2304 -0.1238  0.1036
33031W        W75944  16.323  13.010  27.180  0.0321  0.2003  0.0774
33032W        W75945   8.199  22.155  25.767  0.2247 -0.2163  0.1599
33033W        W75946  32.249  24.032   7.594  0.1487  0.3806  0.0272
33034W        W75947   9.459  28.685   3.779  0.0707 -0.0847 -0.0054
33035W        W75948  32.604  23.545  24.582  0.0096 -0.0408 -0.0158
33036W        W75949   2.546  25.813   2.390  0.1821  0.0514 -0.1867
33037W        W75950   0.703   1.575  26.933 -0.1364  0.0584  0.2165
33038W        W75951  11.443  24.588   3.962 -0.0043 -0.2600  0.0577
33039W        W75952   1.569  31.769   4.222  0.0209 -0.1734 -0.0059
33040W        W75953   0.774  27.585  28.582 -0.1197 -0.1171 -0.1665
33041W        W75954  23.035  29.661  17.924  0.4210 -0.0340 -0.0989
33042W        W75955   7.732  21.285  24.106  0.3202 -0.0609 -0.1753
33043W        W75956   5.163   0.347  25.994 -0.1174 -0.0155 -0.0408
33044W        W75957   8.277  27.244  24.861 -0.0742  0.2378 -0.0683
33045W        W75958   1.494  24.507  29.455 -0.0300  0.1594 -0.1244
33046W        W75959   6.306  17.962   2.085 -0.1474 -0.2626 -0.2436
33047W        W75960   7.026  24.904  15.972  0.3168  0.0893  0.0307
33048W        W75961  11.529  15.189  24.164 -0.0765 -0.0707 -0.1713
33049W        W75962  31.240  28.158  24.525  0.0630 -0.2149  0.1021
33050W        W75963   0.508  31.959  23.414  0.1620 -0.3015  0.1608
33051W        W75964   3.300  27.404  21.696 -0.0160 -0.0205  0.0260
33052W        W75965   6.576  23.443  24.708 -0.2830  0.3441 -0.1480
33053W        W75966  29.397  20.140   3.250 -0.0049  0.4653  0.0486
33054W        W75967  13.807  25.019  26.771  0.0817  0.2911  0.1859
33055W        W75968   9.789   0.799   0.094 -0.1815 -0.1293  0.5141
33056W        W75969   6.685  31.535   2.055  0.1012  0.3891 -0.0397
33057W        W75970  31.172  32.652   0.434  0.0544  0.1513 -0.1051
33058W        W75971   1.673   4.297  21.483 -0.2271 -0.1100  0.2197
33059W        W75972   6.899   0.683   4.142  0.0336  0.1679  0.3700
33060W        W75973   4.570  28.438  19.018  0.3165 -0.0299  0.1184
33061W        W75974   8.064  15.188  28.324 -0.0172 -0.1825  0.1265
33062W        W75975  28.892  16.281  21.056 -0.0331 -0.1001  0.0811
33063W        W75976   0.344  20.407   0.952 -0.1315 -0.0183  0.0176
33064W        W75977  34.042  25.561  20.806  0.3751  0.2058 -0.0032
33065W        W75978   5.966  21.487   4.875  0.1042  0.0323  0.0420
33066W        W75979   1.705  20.186  20.546  0.4126 -0.0996 -0.2531
33067W        W75980  31.448  25.263   2.374 -0.1153  0.0231 -0.3194
33068W        W75981   2.477   0.335   3.743  0.0400  0.0018  0.1132
33069W        W75982  26.391  16.473  19.701  0.3524  0.0425  0.1108
33070W        W75983  27.200  25.258  20.728  0.0464  0.1281  0.0879
33071W        W75984   4.685  18.972  20.896  0.0783  0.0446 -0.0054
33072W        W75985  12.617  20.154  26.742 -0.3761  0.1880 -0.2620
33073W        W75986  11.880  22.747  27.046 -0.4046 -0.2078 -0.0345
33074W        W75987   2.682  24.003  28.298 -0.1956  0.1097 -0.0047
33075W        W75988  16.881  25.107  19.646 -0.0163 -0.0981 -0.2759
33076W        W75989  10.550  20.766  27.692 -0.1694  0.2281  0.0123
33077W        W75990   5.892  26.527  22.207  0.0162  0.0264  0.2342
33078W        W75991  31.554  14.350  21.192  0.0953  0.1707 -0.0743
33079W        W75992  12.054  33.513  22.280 -0.2799  0.0550  0.2224
33080W        W75993  10.922  28.849  25.092 -0.0316 -0.2358  0.0142
33081W        W75994  31.537  33.231   2.306  0.3432 -0.1793  0.0738
33082W        W75995   5.765   8.795   2.497  0.3785  0.0677 -0.0096
33083W        W75996  13.369  24.150   2.297 -0.4218  0.0960 -0.1919
33084W        W75997  31.701  25.608  23.466  0.0605  0.3454  0.4662
33085W        W75998   6.612  31.128  21.307  0.1534 -0.3800  0.0943
33086W        W75999   8.202  26.753  26.322  0.2666  0.0660 -0.0945
33087W        W76000  11.783  20.367   2.834 -0.2447  0.1248  0.0571
33088W        W76001   2.765  19.671   5.605  0.2787 -0.0356  0.2104
33089W        W76002   4.884   5.657   8.723  0.0765 -0.1419  0.1890
33090W        W76003   3.404  23.641  26.510 -0.1782  0.1148  0.1774
33091W        W76004   6.951  18.370  27.658 -0.1316 -0.1609  0.1326
33092W        W76005   1.979  22.973   0.308  0.1607 -0.1888 -0.2148
33093W        W76006   0.678  25.039   1.144  0.4464 -0.3967 -0.1005
33094W        W76007   7.623   1.435  18.305  0.1149  0.0547  0.2547
33095W        W76008   2.223  27.312   9.354  0.0548  0.2670  0.0183
33096W        W76009  17.312  31.434   4.055 -0.1590  0.1678 -0.0677
33097W        W76010  25.138  31.737  20.398 -0.3193 -0.2785 -0.0998
33098W        W76011   2.340  20.303  28.595 -0.2612 -0.1361  0.1618
33099W        W76012   3.772  17.692  22.374 -0.1161 -0.0018  0.1196
33100W        W76013  33.375  25.284  15.256  0.1247 -0.4471  0.0172
33101W        W76014  10.041   0.398   3.699 -0.1149 -0.3471 -0.2300
33102W        W76015   7.173   0.081  18.058 -0.1735 -0.0473  0.0140
33103W        W76016   4.274  34.101   1.773 -0.2280 -0.3128  0.0438
33104W        W76017   9.647  15.077  25.864 -0.1095 -0.2656 -0.0375
33105W        W76018  34.150  29.112   2.587  0.2611 -0.2581  0.1239
33106W        W76019  20.519  15.811  21.586  0.1804 -0.0914  0.1686
33107W        W76020   5.484  24.206  10.729  0.0170 -0.0901  0.3167
33108W        W76021   6.143  25.649   2.226  0.0079  0.1463  0.0084
33109W        W76022   9.629  22.445  24.304 -0.2101 -0.2867 -0.1864
33110W        W76023  15.700  32.936   2.209 -0.0753  0.1595  0.3224
33111W        W76024   5.226  12.831   7.073 -0.2485  0.0466 -0.4287
33112W        W76025   0.557  28.344  25.663 -0.0080  0.0041 -0.3199
33113W        W76026   1.574  32.139  20.412  0.1894 -0.1734 -0.0768
33114W        W76027  32.312  18.907  21.956  0.0459  0.0663  0.1498
33115W        W76028   7.365  16.527   2.334 -0.1083 -0.1777 -0.0501
33116W        W76029   0.485  30.173   1.694  0.0273 -0.0345  0.1727
33117W        W76030   0.197  24.766  28.453 -0.0931  0.1778 -0.0528
33118W        W76031   8.414  18.797   0.473 -0.3412  0.2524 -0.1555
33119W        W76032   6.328  16.846   3.863 -0.0173 -0.0990  0.0684
33120W        W76033  27.382  27.861  21.322  0.0057  0.3363  0.0016
33121W        W76034   5.677  31.760  28.962  0.0463 -0.0007 -0.3268
33122W        W76035   6.510  24.956   7.682 -0.2526 -0.1218 -0.0283
33123W        W76036  10.799  22.346  29.165  0.1588 -0.1076 -0.2767
33124W        W76037   9.236  27.199   5.258  0.0217 -0.4607  0.3388
33125W        W76038  33.855  32.516  27.124 -0.3910  0.1099  0.1348
33126W        W76039   6.607  32.056  28.602 -0.0491 -0.0250 -0.0626
33127W        W76040   4.232  33.137   0.217 -0.2779  0.1275 -0.1634
33128W        W76041   9.372  30.032   6.461 -0.0136  0.0948  0.0035
33129W        W76042   4.061  27.116  23.496  0.2208  0.0571 -0.0405
33130W        W76043  11.370  33.230   1.308  0.2450 -0.4446  0.0918
33131W        W76044   1.823  30.363   7.090  0.0758 -0.1005 -0.0981
33132W        W76045  15.262  20.379   6.237 -0.1639 -0.0144  0.2066
33133W        W76046   3.790  31.279  28.104  0.2137  0.2853  0.1126
33134W        W76047   1.202  31.629  17.439 -0.0866 -0.0377 -0.1313
33135W        W76048  29.068  25.121  24.643  0.0947 -0.1606 -0.0105
33136W        W76049   8.650  31.373  23.220  0.1938  0.0397  0.1377
33137W        W76050  33.888  16.020  24.119 -0.3066  0.1540 -0.4544
33138W        W76051  15.517   3.675  23.293 -0.2810  0.1399  0.0071
33139W        W76052   3.140  20.661  24.039  0.0331 -0.0635 -0.2971
33140W        W76053   6.191  27.872  27.793 -0.0866 -0.1440  0.2336
33141W        W76054  27.860  21.100  26.494  0.0391  0.3149  0.1129
33142W        W76055   9.539  27.203  27.768  0.0156 -0.0743 -0.1259
33143W        W76056  25.414   1.916   3.592  0.0231  0.0372 -0.0223
33144W        W76057  17.615  20.130   6.370  0.0831 -0.0815 -0.3965
33145W        W76058   9.660  20.908  27.323  0.1150 -0.1032 -0.0545
33146W        W76059   7.111  24.440   1.648 -0.0476 -0.3298 -0.2363
33147W        W76060   7.949  32.106   7.671  0.1626 -0.0102 -0.2197
33148W        W76061   3.476  28.680   2.563  0.2066  0.0553  0.0880
33149W        W76062  32.301  32.723   2.346  0.2307 -0.4912  0.0165
33150W        W76063   8.534   8.855  27.890 -0.1349  0.1197 -0.1340
33151W        W76064   9.351  28.529  21.283 -0.5066 -0.3222 -0.0985
33152W        W76065   9.433  18.201   6.667  0.0047  0.1131 -0.1620
33153W        W76066   3.461   0.437   2.582  0.1667  0.4567 -0.2676
33154W        W76067  34.234  17.132  27.257  0.1931  0.1606  0.1789
33155W        W76068  15.552  19.549  23.822  0.0967 -0.2115  0.0098
33156W        W76069   7.981  10.439   6.984  0.3590 -0.0863 -0.0026
33157W        W76070  32.725   2.590  28.011  0.0432  0.0306 -0.2154
33158W        W76071   5.368  30.849  29.729 -0.0956 -0.1332 -0.1342
33159W        W76072  34.358  29.139   1.446 -0.0248  0.2901 -0.2031
33160W        W76073   0.584  29.056   9.856 -0.1157  0.0099  0.1027
33161W        W76074  14.520  22.331   2.496  0.1452 -0.1564  0.0125
33162W        W76075  12.737  28.892   5.312  0.0258  0.0426 -0.0683
33163W        W76076  12.592  31.898   6.683 -0.0773  0.1512  0.1427
33164W        W76077   5.504  16.270   0.418 -0.4304  0.2257  0.2464
33165W        W76078   0.465  29.679  28.768 -0.2953  0.0884  0.1563
33166W        W76079   7.112  26.628  28.119 -0.0363 -0.3229  0.2947
33167W        W76080   8.798  21.019   3.440 -0.2859  0.0706 -0.4571
33168W        W76081  12.045  23.696   2.225  0.5477 -0.1632 -0.0687
33169W        W76082   5.983  34.208   7.218  0.0280  0.0339 -0.0663
33170W        W76083  12.737  16.875  27.427 -0.1642 -0.0511 -0.0819
33171W        W76084   4.192   0.217   7.147  0.0538  0.2667 -0.0387
33172W        W76085   2.150  24.616  10.428 -0.1502  0.0637  0.1433
33173W        W76086   3.671  26.189  24.028  0.4435 -0.1253 -0.0931
33174W        W76087  29.452   0.372  26.001  0.0900 -0.1871  0.2883
33175W        W76088   9.442  30.461   4.024 -0.1821  0.0330 -0.1637
33176W        W76089  11.361  20.693  21.780 -0.2960 -0.2414 -0.2021
33177W        W76090   5.035  21.744  25.965 -0.0682 -0.2918 -0.0926
33178W        W76091   2.378  24.953   9.569 -0.1189  0.3102 -0.1536
33179W        W76092  26.269  25.418   0.670 -0.0342  0.1095  0.2730
33180W        W76093  11.716  29.077  10.019 -0.2122 -0.1194 -0.0075
33181W        W76094  17.135  20.700   1.894  0.0952  0.3219 -0.0783
33182W        W76095  13.354  24.888  29.066 -0.3276  0.0223 -0.3037
33183W        W76096   0.849  25.984  24.754 -0.0873 -0.5703 -0.1283
33184W        W76097  29.815  28.158   1.356 -0.0092  0.1592 -0.0833
33185W        W76098   7.340  26.781   2.757  0.3246 -0.0007  0.1903
33186W        W76099   8.236  22.004   5.036 -0.1940 -0.1961  0.3133
33187W        W76100   1.660  19.782  27.047  0.2498  0.0632  0.2678
33188W        W76101   9.067  21.924   1.424 -0.2844  0.1481 -0.1459
33189W        W76102  25.256  25.793   1.414 -0.0409 -0.1016 -0.2858
33190W        W76103   7.199  14.859   4.261  0.0956 -0.1937  0.1191
33191W        W76104   3.768   6.035   3.302  0.3881 -0.2172  0.0833
33192W        W76105  33.006  22.410  16.862 -0.2957  0.2186  0.3252
33193W        W76106   1.731   5.113  28.523  0.1814 -0.0176 -0.1804
33194W        W76107   7.835  27.688   9.288  0.1210 -0.1040 -0.1618
33195W        W76108   2.217  16.151   5.688  0.1005 -0.2092 -0.0816
33196W        W76109  12.361  26.994   4.785  0.1775  0.1561  0.2610
33197W        W76110   6.426  29.587  22.328 -0.0421  0.2298 -0.3072
33198W        W76111   0.595  18.403  22.741  0.0364 -0.2588  0.1383
33199W        W76112   9.339   5.785  19.595  0.1274 -0.3681 -0.0834
33200W        W76113   9.011  23.950  15.706 -0.1060  0.0203  0.0280
33201W        W76114   4.731  24.098  21.201 -0.0235  0.1527 -0.1257
33202W        W76115  34.097  27.011  21.939 -0.1973  0.0122 -0.0343
33203W        W76116   2.641  27.387  22.116 -0.0412 -0.0599  0.0143
33204W        W76117  11.983   0.012  17.436 -0.0423 -0.0933 -0.0476
33205W        W76118  16.486  32.750  17.191 -0.2389  0.0304  0.0022
33206W        W76119   8.145  28.928  27.010 -0.2642 -0.1247  0.1297
33207W        W76120  17.238  22.157  17.525  0.2174 -0.0314 -0.1939
33208W        W76121  27.306  31.634  16.608  0.2012  0.1818  0.3292
33209W        W76122   2.685  29.986  14.402  0.1107 -0.2477 -0.0025
33210W        W76123  32.784  30.339  23.666  0.3582 -0.1860  0.1276
33211W        W76124  11.324  30.219   0.069 -0.2677  0.3290 -0.1430
33212W        W76125  11.111  33.584  16.140 -0.0095  0.2930  0.1926
33213W        W76126  24.547  30.786  15.480  0.0342 -0.0387  0.1185
33214W        W76127  14.392  33.841  17.626  0.2904 -0.2594  0.0999
33215W        W76128  27.058  24.222  26.469  0.1113  0.1428  0.2688
33216W        W76129   6.629  25.519  28.418 -0.3157 -0.0517  0.0335
33217W        W76130   7.629  19.774  20.302  0.0233  0.1304 -0.1162
33218W        W76131   5.295  18.717  19.332 -0.0181 -0.2069 -0.1388
33219W        W76132  14.026  20.554  19.411 -0.1494  0.0594 -0.1981
33220W        W76133   6.319  30.723  21.081 -0.2415 -0.0544  0.0848
33221W        W76134  22.694  18.629  16.017  0.1923 -0.0872 -0.2663
33222W        W76135   5.440  23.778  26.323  0.1555  0.2206 -0.1374
33223W        W76136  15.369   2.634  22.407  0.2682  0.1202  0.0702
33224W        W76137  29.649  22.993  23.258  0.0170  0.1171 -0.0121
33225W        W76138   3.428   0.823  19.215  0.0237  0.0323  0.1317
33226W        W76139   6.120  22.262  19.041 -0.0775 -0.0709 -0.1441
33227W        W76140  16.073  26.489  19.011 -0.0786 -0.0038  0.2506
33228W        W76141  16.221  29.902  15.927 -0.1658 -0.0123  0.3527
33229W        W76142  19.754   3.016  20.132  0.0324  0.1284 -0.0983
33230W        W76143  18.493  22.742  18.740 -0.0085  0.1303  0.1334
33231W        W76144   8.891   7.962  19.224 -0.1219 -0.0130  0.1701
33232W        W76145  33.146  29.310  20.235 -0.0888 -0.0140 -0.7661
33233W        W76146  33.608  18.626  20.376 -0.1355 -0.0907  0.2807
33234W        W76147  23.079  28.106  14.073  0.1659  0.2062 -0.0953
33235W        W76148  12.557  26.330  16.987 -0.0539 -0.1337 -0.1188
33236W        W76149   8.705  16.976  21.974 -0.0472 -0.1849 -0.0212
33237W        W76150   7.047  29.673  27.763 -0.0429  0.3507 -0.1678
33238W        W76151   1.199   2.051  18.711  0.0535  0.1503  0.0065
33239W        W76152   6.151  29.899  20.533  0.3951  0.0778  0.1287
33240W        W76153   5.638   9.896  18.736  0.2362 -0.0494  0.0291
33241W        W76154   2.628  31.442  26.173  0.0487  0.1701 -0.1079
33242W        W76155   0.647  32.694  16.759 -0.0771 -0.0912 -0.2098
33243W        W76156   6.489  27.003  20.803 -0.0555  0.0173 -0.0649
33244W        W76157  33.166  28.587  15.857 -0.1666 -0.0967  0.2833
33245W        W76158  10.253  25.674  20.340  0.0878  0.5801  0.1334
33246W        W76159  34.346  33.181  24.019 -0.1324  0.2363 -0.2484
33247W        W76160   0.006  32.196  19.910 -0.1443 -0.0754  0.0242
33248W        W76161   2.625  26.780  20.806 -0.0265  0.1844  0.0915
33249W        W76162  33.653  10.990  22.954  0.0534 -0.0269  0.2565
33250W        W76163   2.812  25.347  21.943  0.1245 -0.1965 -0.1514
33251W        W76164  15.875  26.840  16.987 -0.2264  0.3436  0.1620
33252W        W76165  33.716  14.683  23.879 -0.0172 -0.0187  0.0717
33253W        W76166   6.927  24.847   0.830  0.0265 -0.3310 -0.2823
33254W        W76167  28.732  20.242  22.581  0.0636 -0.2103 -0.2661
33255W        W76168   5.060   8.207  19.560 -0.2102  0.3664 -0.4821
33256W        W76169   0.221  33.871  22.514  0.1025 -0.0055 -0.0990
33257W        W76170   7.559  24.911  21.447  0.0435  0.1124 -0.0017
33258W        W76171  29.305  21.805  17.865 -0.2071 -0.0273  0.1562
33259W        W76172   7.331  22.280  20.900 -0.0522  0.0557  0.1009
33260W        W76173   2.856  26.829  22.806  0.3788 -0.3236 -0.0467
33261W        W76174  33.883  32.122  16.230  0.2090  0.4376  0.0177
33262W        W76175   4.967   5.563  21.306  0.2204  0.0245  0.4538
33263W        W76176   8.073  22.211  16.915 -0.0069 -0.0035  0.2464
33264W        W76177   5.174  18.758  16.784 -0.0999  0.0980 -0.1406
33265W        W76178   3.453  31.733  17.893 -0.1320 -0.2089 -0.1228
33266W        W76179   1.243  28.506  16.933 -0.0709 -0.1050  0.3945
33267W        W76180   6.924  31.412  16.612 -0.0850  0.2208 -0.3320
33268W        W76181   0.998  28.990  19.366  0.1316  0.1743  0.0084
33269W        W76182   4.236  12.251  19.289 -0.2815  0.0268 -0.0983
33270W        W76183   6.751  10.070  23.921  0.1426 -0.1280  0.2468
33271W        W76184  31.284  24.321  13.671  0.2516 -0.0013 -0.2554
33272W        W76185  32.407  25.524  18.833  0.0621  0.0237 -0.1761
33273W        W76186   0.098  24.030  16.486 -0.0612 -0.2772 -0.3087
33274W        W76187  34.436  28.636  28.282 -0.0239 -0.2274  0.0395
33275W        W76188   3.209  30.679  21.681  0.0008 -0.0612 -0.0695
33276W        W76189  33.194  20.128  26.976 -0.2171  0.4489  0.0303
33277W        W76190   5.315  25.765  25.917  0.2721  0.1652 -0.1341
33278W        W76191  14.114  32.675  22.344 -0.0468 -0.0141 -0.2184
33279W        W76192  33.551  23.693  18.861  0.0051 -0.1239  0.1030
33280W        W76193   2.591  33.497  18.130 -0.0237  0.0739 -0.3267
33281W        W76194   8.250   8.423  21.624  0.2546 -0.2535  0.4388
33282W        W76195   0.908  24.309  23.857 -0.2910  0.0912  0.3262
33283W        W76196   0.527   2.776  24.409  0.0218  0.1029  0.1972
33284W        W76197  27.613  31.674  14.982  0.1603 -0.0084  0.2125
33285W        W76198   5.632  33.385  18.790  0.1620  0.1842 -0.1336
33286W        W76199  21.155   2.263  19.140 -0.2033 -0.0401 -0.1773
33287W        W76200  11.599  33.110  23.358 -0.2032 -0.3906 -0.3327
33288W        W76201   1.538  25.375  26.702  0.0083 -0.1847 -0.0815
33289W        W76202  10.397  31.602  21.194  0.2296  0.1497 -0.0142
33290W        W76203   0.952  30.818  19.885 -0.0028 -0.0173  0.1103
33291W        W76204   4.561  25.538  22.074  0.1194  0.2139  0.1103
33292W        W76205   1.347  22.392  17.701 -0.3906  0.1241 -0.1278
33293W        W76206  29.922  32.991  20.004 -0.0796  0.0934 -0.2044
33294W        W76207   8.753  18.404  19.276  0.4426 -0.0738 -0.0270
33295W        W76208   6.327  27.327  15.839 -0.1255  0.0670  0.0921
33296W        W76209  14.118  27.877  15.717 -0.2496  0.0287 -0.2342
33297W        W76210   0.668  26.320  16.599 -0.1942  0.1767  0.1866
33298W        W76211   5.349  32.849  24.370 -0.0704  0.1126  0.1157
33299W        W76212   6.101  20.980  20.988 -0.2340  0.0290 -0.1408
33300W        W76213   3.985  24.924  25.927 -0.1360 -0.1621  0.3140
33301W        W76214   4.823  24.204  17.700 -0.2046 -0.0168 -0.1199
33302W        W76215  32.332  32.514  21.281 -0.1149 -0.1322 -0.2861
33303W        W76216  18.005  30.859  20.067 -0.3223 -0.2687 -0.1746
33304W        W76217   4.488  23.435  15.491 -0.1249 -0.2381 -0.0108
33305W        W76218  31.065  29.326  17.759  0.1389 -0.2480  0.1395
33306W        W76219   4.869  25.785  22.489  0.5325  0.0740  0.0667
33307W        W76220   9.040  29.325  15.541  0.1489  0.0210  0.3157
33308W        W76221  12.036  25.416  15.634  0.1460 -0.3887  0.2532
33309W        W76222  11.507  30.957  25.683 -0.1936  0.3908 -0.1350
33310W        W76223  33.996  34.063  16.767  0.5911 -0.1341  0.0644
33311W        W76224  22.161  31.333   0.573 -0.1769  0.1430  0.2835
33312W        W76225   4.671  34.039  16.527  0.1995  0.1505 -0.1344
33313W        W76226  33.050  27.977  18.619 -0.2656 -0.2050 -0.0178
33314W        W76227  22.731  31.234  15.303 -0.0107 -0.0898 -0.0730
33315W        W76228   2.378  26.364  25.472  0.0497  0.3491 -0.1576
33316W        W76229   5.728   1.619  21.552 -0.1039  0.2505 -0.0171
33317W        W76230   9.239  32.903  20.204  0.1412  0.0747  0.1083
33318W        W76231  33.658  22.765  16.261  0.1972 -0.0267  0.1060
33319W        W76232  33.001  28.409  18.212  0.0936  0.0548  0.1483
33320W        W76233   7.857  13.515  19.433  0.1737  0.0998 -0.2462
33321W        W76234   5.180  31.337  22.191  0.0157 -0.1489 -0.3203
33322W        W76235  33.925  28.713  29.464  0.0409  0.0766 -0.1039
33323W        W76236   0.370   0.453  19.944 -0.2330 -0.0820 -0.1279
33324W        W76237   4.370  25.452  17.864 -0.2417  0.2073 -0.2495
33325W        W76238   8.636  29.706  15.648  0.3756 -0.0030  0.0125
33326W        W76239  15.570  28.503  20.065 -0.1928 -0.2456 -0.1896
33327W        W76240   2.142  29.740  15.885 -0.1198 -0.0170  0.0976
33328W        W76241   5.477   0.293  25.002  0.0578 -0.0810  0.1085
33329W        W76242   9.766  30.571  21.877 -0.1385  0.1696 -0.1753
33330W        W76243   6.841  26.857  24.360  0.0865  0.0251  0.2769
33331W        W76244  13.473  26.028  17.764  0.0458 -0.2036 -0.0207
33332W        W76245  30.458  27.097  18.842  0.4120  0.3221 -0.4720
33333W        W76246   2.519   1.630  23.250  0.2382  0.2163  0.1827
33334W        W76247   2.302   3.937  19.149  0.0068  0.1758 -0.1384
33335W        W76248   2.475   2.435  18.281 -0.1143 -0.3204  0.0522
33336W        W76249   1.949  23.698  25.768  0.0434  0.0395 -0.0330
33337W        W76250   2.803  30.430  25.467  0.1946  0.1855 -0.3513
33338W        W76251   5.257   0.386  20.130  0.1033 -0.0698  0.0820
33339W        W76252   1.184  31.495  13.914 -0.0611  0.1507  0.1361
33340W        W76253  26.459  24.944  24.422  0.1568 -0.1872  0.2161
33341W        W76254  32.755  25.768  18.004  0.0382 -0.2176  0.1322
33342W        W76255   6.991  22.400  13.904  0.1970  0.1581  0.2135
33343W        W76256   0.771  24.223  18.265  0.3144  0.5372  0.0196
33344W        W76257   5.660   0.577  22.413  0.2853  0.3345  0.0317
33345W        W76258  16.262  34.352  16.992 -0.0420  0.0107  0.1017
33346W        W76259   2.764  31.769  24.154  0.0537 -0.3841  0.6112
33347W        W76260   1.582  27.966  14.646  0.0438 -0.0975  0.2167
33348W        W76261  31.579  21.994  14.059 -0.0514 -0.0193  0.0795
33349W        W76262  33.740  33.728  24.924  0.0256  0.2048  0.1477
33350W        W76263  33.186   3.593  21.928 -0.1895 -0.3711  0.0318
33351W        W76264   8.177  10.710  21.865  0.0991  0.2619 -0.2193
33352W        W76265   1.458  28.856  16.656  0.0247  0.0673  0.0281
33353W        W76266  26.798  32.118  19.784 -0.1278 -0.1325  0.2098
33354W        W76267  32.494  17.995  24.292  0.0724 -0.0567 -0.1670
33355W        W76268   5.177  21.748  15.837 -0.1028 -0.0819  0.1437
33356W        W76269  12.562  30.001  22.435 -0.0112 -0.1543  0.2142
33357W        W76270   7.564  25.117  14.671 -0.3507 -0.1437 -0.0482
33358W        W76271   1.352  29.559  21.289  0.0436 -0.1365 -0.0665
33359W        W76272   7.308  15.563  21.764  0.1087  0.0333  0.1174
33360W        W76273  10.968  23.832  17.288  0.3983  0.1302 -0.0712
33361W        W76274  12.907  31.776  19.732 -0.0143 -0.3533 -0.1790
33362W        W76275   4.948  28.817  17.447  0.3409  0.0242 -0.3867
33363W        W76276   5.443  19.166  26.923  0.5855  0.2266  0.0135
33364W        W76277   9.622  32.023  23.994  0.1257 -0.0599  0.0166
33365W        W76278   3.590  25.287  14.615  0.2259 -0.0662 -0.1906
33366W        W76279   7.623  28.535  18.153  0.0695 -0.1011  0.0387
33367W        W76280   6.620  23.207  25.487 -0.1990  0.1678  0.1667
33368W        W76281  12.191  30.531  29.217 -0.0145  0.0204  0.0085
33369W        W76282   5.291  31.891  18.905 -0.0880 -0.0448 -0.1797
33370W        W76283   5.331  11.426   1.893  0.2412  0.3014  0.1344
33371W        W76284   8.978   2.975  19.601  0.0644  0.0405 -0.3826
33372W        W76285   9.646  23.284  26.433  0.0745 -0.0371 -0.1132
33373W        W76286   5.758  19.782  16.200  0.1396 -0.0891 -0.0041
33374W        W76287   8.731   3.316   4.532 -0.1195  0.1122  0.0794
33375W        W76288   4.143   1.338  17.002 -0.0184 -0.0583  0.0198
33376W        W76289   8.650  30.861  26.767 -0.1497 -0.0048  0.1050
33377W        W76290  33.310  25.596  28.675  0.0449 -0.0907  0.1084
33378W        W76291   1.050  30.948  14.955  0.1816  0.2318  0.1374
33379W        W76292  10.678  26.330  16.532 -0.0698 -0.0064 -0.0025
33380W        W76293   4.203  24.399  15.558 -0.1853 -0.0521 -0.1502
33381W        W76294   7.236  31.268  23.845  0.0191  0.1990  0.2692
33382W        W76295  14.756  30.792  17.219 -0.2585  0.1471  0.1126
33383W        W76296   5.081  23.727  20.780  0.4159  0.2662  0.2682
33384W        W76297  15.761  19.705  26.944  0.3165  0.0312 -0.1485
33385W        W76298   2.141  26.529  18.001 -0.3794 -0.1333 -0.0917
33386W        W76299  13.804  32.640  19.050  0.2463  0.2914 -0.0323
33387W        W76300   1.100  19.535  16.359 -0.1066 -0.2970 -0.0244
33388W        W76301   0.445  30.563  16.726 -0.0736  0.0823  0.3186
33389W        W76302   1.918  16.779   2.195 -0.1582  0.0734  0.1572
33390W        W76303   7.800  21.210  14.885 -0.1565  0.3281 -0.0051
33391W        W76304  33.842  24.424  16.979  0.1200 -0.0472  0.2095
33392W        W76305  30.590  25.250  19.008  0.3183  0.0664  0.1499
33393W        W76306  31.179  33.890  18.314 -0.0534  0.1204 -0.1446
33394W        W76307  33.662  31.616  19.126  0.0291  0.0424 -0.4042
33395W        W76308   5.514   2.514  27.804 -0.0725 -0.1024  0.0448
33396W        W76309  11.792   0.347  21.220 -0.0459  0.2533 -0.1431
33397W        W76310   0.334  27.046  17.347 -0.0714  0.1891  0.1845
33398W        W76311  27.423   4.131  17.229 -0.0778  0.0081  0.0823
33399W        W76312  33.830  29.290  22.125 -0.2658  0.0196  0.0259
33400W        W76313   9.244  18.521  22.147  0.0273 -0.2354 -0.1527
33401W        W76314  10.303  27.702  17.691 -0.1178 -0.2360  0.1454
33402W        W76315   0.396  25.186  21.099  0.0558  0.1136  0.0591
33403W        W76316   7.673  25.036  26.652  0.4620 -0.0471 -0.1254
33404W        W76317  13.287  30.534  16.995  0.0158 -0.0489  0.0825
33405W        W76318   6.587  29.328  29.047 -0.2080  0.1914 -0.0674
33406W        W76319  28.270  27.642  20.937 -0.2956  0.1457 -0.0204
33407W        W76320  12.483   3.281  20.862 -0.4260 -0.1395  0.0423
33408W        W76321  34.154  21.778  24.586  0.0571  0.2281 -0.0652
33409W        W76322  27.561  27.486  24.244 -0.1919 -0.0717  0.2398
33410W        W76323   6.815  21.844  19.328  0.4213 -0.0157  0.2791
33411W        W76324  31.323   8.170  21.810 -0.0298 -0.1491 -0.1445
33412W        W76325  31.515   5.675  19.605  0.0617  0.0144 -0.1836
33413W        W76326   0.012  23.229  19.751  0.0013 -0.0480  0.3489
33414W        W76327   2.588  22.423  19.869  0.0269  0.0794  0.0595
33415W        W76328   2.562  31.130  23.557  0.0185  0.1735 -0.1232
33416W        W76329   6.839  32.615  16.895 -0.2526 -0.0128 -0.1717
33417W        W76330   3.053   5.089  18.768  0.0450 -0.0612  0.0009
33418W        W76331   7.885  32.045  18.155  0.2018  0.1092  0.1234
33419W        W76332   9.848   1.453  18.285  0.2623  0.1486 -0.3298
33420W        W76333   4.749  28.759  18.544  0.2189 -0.0233 -0.2540
33421W        W76334  32.747  32.919  15.568 -0.0726  0.2994  0.0628
33422W        W76335  12.571  31.499  25.143 -0.0199  0.1446  0.1370
33423W        W76336   6.902  31.992  19.038  0.0492 -0.2722  0.0036
33424W        W76337  12.438  28.106  19.258  0.1088  0.1040  0.1299
33425W        W76338  33.257   3.317  16.468 -0.3699 -0.1549  0.1117
33426W        W76339   5.438  27.266  21.928  0.2984 -0.3558  0.3018
33427W        W76340   3.794  27.986  24.606  0.2715  0.2294  0.0725
33428W        W76341  14.824   6.279   0.687  0.1869  0.0305  0.1106
33429W        W76342  10.395  33.716  26.178  0.1584 -0.3541 -0.2602
33430W        W76343  33.085  25.402  16.130 -0.2489  0.3165 -0.0002
33431W        W76344  34.437  30.731  19.738  0.1143 -0.0944 -0.1607
33432W        W76345   4.096   1.243  21.210 -0.0784  0.0936 -0.0950
33433W        W76346  29.775   5.041  18.909  0.0878  0.1052  0.2378
33434W        W76347   4.228  25.021  15.480  0.3289  0.0729 -0.0854
33435W        W76348   2.632   6.148  20.105 -0.0850  0.1209 -0.1038
33436W        W76349  14.066  23.904   4.501 -0.1073 -0.0728 -0.1555
33437W        W76350  10.038   1.537  20.932  0.2185 -0.1065 -0.2401
33438W        W76351   0.588   0.918  21.252  0.2684 -0.1430 -0.0254
33439W        W76352   9.347   1.743  18.593  0.0036 -0.1790 -0.0293
33440W        W76353   4.154  30.786  20.881 -0.0702 -0.1589  0.1098
33441W        W76354   3.981  15.583  26.770 -0.1428 -0.1293 -0.1782
33442W        W76355  18.021  26.759  21.058  0.4465  0.2685  0.2941
33443W        W76356   2.646   0.794  16.487 -0.0184  0.0955  0.4283
33444W        W76357   0.433  26.409  17.927  0.1170 -0.0748  0.0101
33445W        W76358   3.920  30.320  16.733 -0.2263  0.1981 -0.0840
33446W        W76359   6.938  29.615  21.189 -0.0762  0.2361  0.0611
33447W        W76360  34.456  32.692  18.968 -0.2771 -0.1296 -0.4444
33448W        W76361  34.177  34.113  19.346 -0.0153  0.0166  0.1163
33449W        W76362   4.930  15.526  15.553  0.1144 -0.0688  0.0050
33450W        W76363   1.836  33.294  16.892  0.1330  0.1797  0.2357
33451W        W76364  24.549  29.979   5.777  0.0160 -0.0827 -0.1574
33452W        W76365   6.231  28.543  16.853  0.1130 -0.1354  0.0023
33453W        W76366   8.779  27.373  23.800  0.2926 -0.2890  0.3351
33454W        W76367   3.758  24.952  16.196  0.0959  0.0764  0.4059
33455W        W76368   7.286  32.299  23.685 -0.0792  0.3837 -0.1191
33456W        W76369  27.844  18.984  17.756 -0.3085 -0.0110  0.1008
33457W        W76370   6.041  20.083  14.800  0.2213  0.0884  0.1858
33458W        W76371  30.626  26.997  18.304 -0.0069 -0.1374  0.0268
33459W        W76372  33.823  25.065  18.149  0.1942 -0.0986  0.1446
33460W        W76373  13.340  31.339  21.958  0.2720  0.0101  0.0424
33461W        W76374   7.786  27.941  22.423 -0.0808 -0.0715 -0.0423
33462W        W76375   6.728   0.862  23.931 -0.0304 -0.0338  0.0110
33463W        W76376   4.872  30.900  15.403  0.4573  0.0090  0.0990
33464W        W76377  11.836  31.999  17.870 -0.2342 -0.1327 -0.0741
33465W        W76378   5.291  22.515  16.450  0.1043  0.0095 -0.2264
33466W        W76379   3.694  20.224  16.880 -0.1093  0.1728 -0.2545
33467W        W76380   1.642  28.504  24.786 -0.4496  0.0887  0.0395
33468W        W76381  12.967   3.191  20.960  0.1392 -0.0633  0.1419
33469W        W76382  33.619  28.421  26.331 -0.0257 -0.2778  0.1476
33470W        W76383  14.407  28.241  18.409  0.2195  0.3824  0.1219
33471W        W76384   1.763  24.110  20.532  0.2178 -0.1379 -0.1430
33472W        W76385   9.513  25.817  14.862  0.2482  0.0230  0.0466
33473W        W76386  30.712  29.770  15.292 -0.0522  0.0526  0.2371
33474W        W76387   6.355  29.925  16.928  0.1219 -0.2752 -0.0420
33475W        W76388  34.424  28.105  15.655  0.0986  0.2047 -0.0630
33476W        W76389   5.423  31.154  21.234 -0.0554 -0.2575 -0.0897
33477W        W76390   7.223  23.564  15.293  0.0322  0.1059  0.1038
33478W        W76391   3.228  29.005  23.398  0.2067 -0.0417 -0.0428
33479W        W76392   3.321   1.640  26.691 -0.0099  0.1180 -0.1006
33480W        W76393   5.940  23.600  20.492  0.1388 -0.0354  0.0034
33481W        W76394   8.511   2.074  21.367 -0.3295 -0.1391 -0.0994
33482W        W76395  11.348  34.417  16.831  0.0222 -0.1532 -0.1444
33483W        W76396   6.753  25.658  25.096  0.2318 -0.2480  0.1058
33484W        W76397   5.851  23.684  19.697  0.0803  0.0100 -0.2691
33485W        W76398   2.650  19.118  20.510  0.2708  0.2175 -0.4805
33486W        W76399  16.249   9.391  16.435  0.1096 -0.0129 -0.0992
33487W        W76400  34.455  29.934  19.083  0.3835  0.1745 -0.0885
33488W        W76401   1.976  17.657  14.950 -0.1623  0.0063  0.0125
33489W        W76402   3.697  30.033  24.026 -0.1949 -0.0364  0.0326
33490W        W76403   2.472  21.745  18.145  0.0100 -0.1211  0.0783
33491W        W76404   7.097  22.523  26.318  0.1105 -0.1034  0.0087
33492W        W76405   4.830  22.919  13.928  0.2417 -0.3127  0.0633
33493W        W76406  34.213  29.594  19.406 -0.0667  0.0602 -0.1777
33494W        W76407  17.304   2.894  16.371 -0.1935  0.2760  0.0811
33495W        W76408   6.545  27.175  24.575 -0.1534  0.2177  0.2334
33496W        W76409  10.754  11.335  21.150 -0.0465 -0.0476  0.2148
33497W        W76410   3.881  32.783  22.807 -0.1578 -0.3101 -0.0515
33498W        W76411  16.256  29.955  21.953  0.1377 -0.3461  0.1888
33499W        W76412  12.438  27.405  19.768 -0.2805  0.2712 -0.1304
33500W        W76413   5.406  25.688  15.937  0.3087  0.2855 -0.0324
33501W        W76414  31.275  31.029  19.557  0.3237 -0.2706 -0.0525
33502W        W76415   3.027  29.645  15.412  0.0392 -0.0500 -0.2130
33503W        W76416  17.530  27.676  15.555 -0.0171  0.1700  0.4101
33504W        W76417   6.721  29.787  20.345  0.1333  0.1634 -0.4420
33505W        W76418   2.038  24.699  16.246  0.2308 -0.0295 -0.0842
33506W        W76419   5.853  28.307  19.229 -0.0743 -0.0024  0.0006
33507W        W76420   2.003  20.897  18.607 -0.0661 -0.0462  0.0956
33508W        W76421  30.831  30.230  27.044  0.1680 -0.1791 -0.3305
33509W        W76422  33.725  25.721  15.232  0.1167 -0.1146  0.0898
33510W        W76423  31.490   4.921  22.087 -0.0842 -0.1894  0.2433
33511W        W76424  32.625  31.015  21.122  0.1115 -0.2654  0.3017
33512W        W76425  32.131   7.612  21.335 -0.1116 -0.0185 -0.0192
33513W        W76426   1.110  28.079  22.252  0.0090  0.1487 -0.1180
33514W        W76427  26.040   4.459  16.837 -0.1087 -0.1440 -0.0596
33515W        W76428   8.656  31.332  17.611  0.1344 -0.0818  0.0576
33516W        W76429  33.811  24.443  19.846  0.0032  0.2796  0.3755
33517W        W76430  14.525  27.518  14.908  0.0733 -0.1876  0.2076
33518W        W76431   7.381  29.100  16.475 -0.2122  0.0747 -0.1486
33519W        W76432   3.398  21.821  23.631 -0.2687 -0.2220 -0.0526
33520W        W76433  33.002  27.510  20.853 -0.2934 -0.0634  0.3734
33521W        W76434   6.553  21.990  28.165 -0.1811  0.0938  0.2053
33522W        W76435  14.488   0.407  19.262 -0.0359  0.1456  0.3541
33523W        W76436   8.551  29.185  19.746 -0.1688  0.0215 -0.1835
33524W        W76437   3.409  16.905  26.757 -0.1307  0.1011  0.0026
33525W        W76438   6.356  33.708  25.617  0.1501 -0.0698  0.1762
33526W        W76439   9.862  28.424  23.460  0.0043  0.0520 -0.0234
33527W        W76440  30.158  27.533  15.281 -0.0839 -0.1321  0.1802
33528W        W76441   4.596  28.589  25.797 -0.0754 -0.0309  0.3670
33529W        W76442   4.289  30.724  24.237  0.2909  0.2485 -0.0010
33530W        W76443   6.251  26.645  23.251 -0.0931 -0.1625  0.2936
33531W        W76444   7.752  25.575  24.656 -0.3695  0.0880  0.0636
33532W        W76445  32.174  29.739  27.648  0.2831  0.3955 -0.0106
33533W        W76446   3.640  27.267  22.684  0.0279 -0.0301 -0.0172
33534W        W76447   0.395   5.725  20.630  0.1238 -0.2165 -0.3497
33535W        W76448   6.868  25.365  15.661 -0.2360 -0.0302  0.0714
33536W        W76449   6.147   0.912  20.668 -0.4021 -0.1003  0.0709
33537W        W76450  31.759  25.485  28.835  0.1299 -0.3296  0.1259
33538W        W76451  16.045   6.725  14.790 -0.0712  0.0819 -0.2005
33539W        W76452   3.297   0.811  22.533  0.1811 -0.1148 -0.0906
33540W        W76453  11.715  32.270  17.456  0.3579 -0.2037  0.3115
33541W        W76454  13.371  29.349  24.019 -0.1811  0.2306  0.0779
33542W        W76455   4.141   1.084  23.540  0.1357  0.0395 -0.1528
33543W        W76456   9.878  33.452  16.021  0.0487 -0.0060  0.0393
33544W        W76457   7.696   1.137  17.781  0.0198  0.0296  0.1478
33545W        W76458  17.511  29.064  18.740 -0.1391 -0.0541  0.0518
33546W        W76459   5.485  32.373  23.468 -0.1495  0.3650 -0.1916
33547W        W76460   2.258  34.282  18.714 -0.1706 -0.0381  0.3025
33548W        W76461   0.508  27.437  18.309 -0.1530  0.1535  0.1034
33549W        W76462  11.882  29.745  21.212 -0.1032 -0.1587  0.0491
33550W        W76463   2.846   0.889  19.237 -0.2117  0.1857  0.1599
33551W        W76464  15.349  23.334  13.520 -0.0814  0.1129  0.0995
33552W        W76465   9.445  27.223  22.154 -0.1268  0.0705  0.0179
33553W        W76466   3.501  32.712  26.120 -0.0783 -0.0075 -0.2021
33554W        W76467   6.722  34.121  17.286 -0.1238 -0.1945  0.3003
33555W        W76468   1.348  23.251  16.646 -0.2233 -0.0868  0.1311
33556W        W76469  28.107   2.786  26.364  0.2344  0.2554 -0.4585
33557W        W76470  34.059  32.826  18.712 -0.0540 -0.4125 -0.5332
33558W        W76471   1.560  32.234  18.199  0.1514  0.0497  0.1875
33559W        W76472  10.740  25.490  20.161 -0.0255  0.0443 -0.2622
33560W        W76473  14.902  32.553  22.038 -0.0110 -0.1082  0.0573
33561W        W76474   2.313  23.754  15.879 -0.0220 -0.1978  0.0054
33562W        W76475  10.832  31.777  20.745 -0.0093  0.3874  0.2516
33563W        W76476   5.274   0.968  17.775  0.2729  0.3656  0.0037
33564W        W76477  32.083   6.470  22.147  0.0352  0.2589 -0.0035
33565W        W76478   6.555  32.164  20.565 -0.1671 -0.1042  0.0206
33566W        W76479  32.994  30.565  27.040  0.3012  0.0456 -0.0747
33567W        W76480   5.034   2.823  20.512  0.1779  0.0871 -0.1576
33568W        W76481  15.104  20.951  23.267 -0.1592 -0.1861 -0.3120
33569W        W76482  10.351  14.661  20.926  0.3217  0.0047 -0.1131
33570W        W76483  16.104  26.048   3.930  0.2097 -0.1169  0.0831
33571W        W76484  14.533   3.923  28.596 -0.1078  0.0879  0.0901
33572W        W76485  33.025   5.174  18.307 -0.0901  0.1709  0.1081
33573W        W76486   2.704   3.117  23.852 -0.1172 -0.0123 -0.1829
33574W        W76487   5.458  15.832  26.981 -0.1954  0.1595  0.0072
33575W        W76488   1.805  21.342  19.377  0.0905 -0.3738 -0.0130
33576W        W76489   4.533  22.917  25.143  0.0248  0.2251 -0.1320
33577W        W76490  26.717   1.044  22.525 -0.0843  0.1643 -0.0854
33578W        W76491   1.738   2.739  23.087 -0.0677  0.0641  0.1178
33579W        W76492   4.495  16.594  20.254  0.2160 -0.1225 -0.1148
33580W        W76493   8.642   0.606  17.700 -0.0064  0.0689 -0.3726
33581W        W76494   3.153  28.544  14.661  0.0403 -0.3859  0.0847
33582W        W76495   7.672  21.645  17.464  0.0431  0.1606 -0.1314
33583W        W76496   0.691  29.374  19.165  0.0454  0.0863  0.1071
33584W        W76497   0.351  32.187  24.459 -0.0816 -0.0286 -0.3160
33585W        W76498  31.004  33.240  17.077  0.3136 -0.2409 -0.1742
33586W        W76499   5.073  30.392  20.817 -0.1316  0.0167 -0.0394
33587W        W76500   5.272  21.061  23.645  0.0080 -0.0248 -0.0779
33588W        W76501  13.449  31.769   2.106  0.2641  0.0199 -0.3155
33589W        W76502   8.064  29.553  16.985  0.0851  0.1063  0.0573
33590W        W76503  23.686  28.847  23.745  0.1440  0.1567 -0.3855
33591W        W76504   4.270  22.082  22.129 -0.1292 -0.0762  0.1061
33592W        W76505   1.264  33.395  21.343  0.1451 -0.1017 -0.0390
33593W        W76506   4.463  29.589  16.290 -0.2593  0.2103  0.0309
33594W        W76507  27.933  28.042  16.491 -0.0618 -0.1533  0.0526
33595W        W76508  18.255   4.131  19.213 -0.1596  0.0524  0.1021
33596W        W76509   9.403  29.175  17.942  0.2530  0.3972 -0.0651
33597W        W76510  30.133  33.792   6.129  0.0197 -0.1091  0.3528
33598W        W76511   3.427  21.886  24.371 -0.0720  0.0924 -0.6083
33599W        W76512  10.205  27.362  18.186 -0.1445  0.0100 -0.0769
33600W        W76513  13.779  29.345  18.425  0.1728 -0.0097 -0.1163
33601W        W76514   0.783  28.720  18.645  0.2327  0.3280 -0.1949
33602W        W76515   2.419  34.424  22.617  0.2346 -0.1801 -0.3662
33603W        W76516   8.330  22.549  24.415  0.2365 -0.0608  0.0907
33604W        W76517   4.446  32.691  24.236 -0.1203  0.2203  0.4000
33605W        W76518  23.972   9.037  13.644 -0.3107 -0.0004  0.0769
33606W        W76519  15.509  26.149   1.343 -0.3138 -0.2849  0.0975
33607W        W76520   1.660   0.263  29.478 -0.1411  0.0151  0.0254
33608W        W76521  17.149  26.623  21.928 -0.1202 -0.0611 -0.0632
33609W        W76522   5.040  23.978  14.562  0.5212  0.3351  0.1326
33610W        W76523   8.320  29.837  20.812 -0.1464  0.0552  0.2865
33611W        W76524   8.749  23.901  18.634  0.0880  0.0466 -0.1162
33612W        W76525   4.433  26.977  24.520  0.0439  0.0016  0.0639
33613W        W76526  32.904  33.055   9.018 -0.0928  0.0320  0.2006
33614W        W76527  23.126  32.775  24.883  0.0274  0.1579  0.1352
33615W        W76528   3.583  28.673  21.270  0.0095 -0.1284  0.0673
33616W        W76529   4.969  19.785  17.647  0.0360  0.0841  0.2979
33617W        W76530  30.461  29.783  17.055 -0.0324  0.0656 -0.2483
33618W        W76531   4.389  20.792  21.546  0.0139 -0.0710  0.0009
33619W        W76532   8.538  19.198  13.731  0.0991 -0.1036 -0.2728
33620W        W76533  31.639   1.925  22.377  0.3376 -0.1763 -0.2292
33621W        W76534  32.614  22.137  19.861 -0.3613  0.0652  0.0053
33622W        W76535   7.554  24.093  15.810 -0.2587 -0.0169  0.0077
33623W        W76536   3.427  16.385  25.090  0.2397 -0.1082 -0.0343
33624W        W76537  11.604  29.758  16.714 -0.0508  0.1613 -0.2584
33625W        W76538   3.092  29.396   1.296 -0.0289 -0.2076 -0.1432
33626W        W76539   5.066  33.120  24.715  0.2474 -0.0207 -0.0114
33627W        W76540   2.995  20.123  27.805 -0.1718  0.0966  0.1246
33628W        W76541  21.012  27.261  20.908 -0.1662 -0.4034 -0.1027
33629W        W76542   7.406  28.704  20.637 -0.1164  0.2524  0.0020
33630W        W76543  13.966  33.112  17.098  0.2577 -0.1142 -0.2824
33631W        W76544  32.539  30.894  15.621 -0.3214  0.1982  0.2358
33632W        W76545  12.369  29.338  17.812 -0.4023 -0.0266  0.0797
33633W        W76546  15.756  33.123  27.298 -0.2285  0.2222 -0.3537
33634W        W76547  31.798  31.709  21.140 -0.4257  0.0631 -0.0787
33635W        W76548  22.160   5.808  21.277 -0.1379  0.1250  0.0419
33636W        W76549   8.194  26.930  27.699 -0.1345 -0.1777 -0.1875
33637W        W76550   3.841  32.251  23.555 -0.0204  0.2638 -0.4944
33638W        W76551  33.618  32.486  18.797 -0.2626  0.0968 -0.4733
33639W        W76552  14.992   8.170  13.545  0.3095  0.2608  0.2115
33640W        W76553  15.563  28.109  18.171  0.0058  0.0685 -0.2500
33641W        W76554   0.184   0.357  28.323 -0.5960  0.0944  0.0173
33642W        W76555  34.482  25.772  20.349  0.3077 -0.1700 -0.0704
33643W        W76556  11.143  33.601  18.752 -0.0339 -0.1299 -0.3520
33644W        W76557  18.921  19.874  12.861  0.0225 -0.1025 -0.0251
33645W        W76558   3.373  26.933  22.979 -0.0870  0.1252 -0.1619
33646W        W76559  32.423  21.071  17.974 -0.1359  0.3835 -0.2161
33647W        W76560   4.847  23.509  16.519  0.0831  0.0873  0.1420
33648W        W76561  11.932  33.918  17.805  0.2942  0.1066  0.0270
33649W        W76562  33.998  24.427   0.634  0.0851  0.1538  0.2514
33650W        W76563   9.571  21.790  23.460  0.1763  0.0962  0.0921
33651W        W76564  33.874  27.060  16.775 -0.1817  0.2237  0.2018
33652W        W76565   5.996   0.181  22.391 -0.1416 -0.2169  0.0384
33653W        W76566  34.372  29.337  22.150  0.1415  0.0303  0.2724
33654W        W76567   1.511  27.376  19.411  0.2235  0.0708  0.2699
33655W        W76568  15.427  27.518  24.488  0.0800 -0.0055 -0.0227
33656W        W76569  10.143  33.815  24.939  0.0816 -0.0436  0.0484
33657W        W76570  28.359  20.065  17.047  0.1292 -0.1682  0.1932
33658W        W76571   3.012   2.267  20.493  0.0954  0.1458 -0.1284
33659W        W76572   4.365  32.480  27.170  0.1225 -0.0120 -0.2352
33660W        W76573  22.235  29.855  29.010  0.2063  0.0098  0.1151
33661W        W76574   3.497  23.800  20.469  0.3179  0.1260  0.2516
33662W        W76575  33.041   7.220  29.183 -0.1308 -0.1549 -0.0561
33663W        W76576   9.094   0.887   1.475  0.0887 -0.0848 -0.0257
33664W        W76577   6.323   3.709  29.381 -0.1702 -0.1206 -0.1073
33665W        W76578  11.702  26.922   0.762  0.1146  0.0403  0.0220
33666W        W76579  10.899  20.825  21.606  0.0988  0.0907  0.1705
33667W        W76580   1.386  32.002  27.387 -0.2547 -0.2653  0.1079
33668W        W76581  27.406  29.670  25.179 -0.0915  0.0906  0.0149
33669W        W76582  16.713  24.989  23.932 -0.1757 -0.0982  0.0740
33670W        W76583  30.140  22.417  16.944 -0.1277  0.1242  0.1905
33671W        W76584  28.596  26.980  20.847  0.1476 -0.0250 -0.0214
33672W        W76585   0.595   3.469   6.591 -0.1692 -0.1597  0.0711
33673W        W76586  14.418  27.373  15.924 -0.0890  0.0628  0.0288
33674W        W76587  30.887  31.181  23.880  0.0059 -0.0628 -0.4312
33675W        W76588   6.497  25.210  23.208 -0.2773  0.0402  0.2347
33676W        W76589   0.989  26.615  27.632 -0.1147 -0.0226  0.1633
33677W        W76590   7.050  26.230  16.079 -0.0992 -0.0749  0.1273
33678W        W76591  22.579   0.663  17.890  0.1619 -0.1925  0.3049
33679W        W76592   4.235  25.708  24.942 -0.1983 -0.0789 -0.0930
33680W        W76593  30.751  32.291  17.821 -0.2488  0.3412  0.2562
33681W        W76594   1.867  26.009  23.697  0.0578 -0.1506  0.4444
33682W        W76595  33.216  32.288  24.873 -0.1176  0.1086 -0.2430
33683W        W76596  33.750  21.013  16.809  0.3187  0.2037  0.1604
33684W        W76597   6.444  29.931  16.396 -0.0361 -0.0396 -0.1467
33685W        W76598   4.086  30.580  26.566 -0.3040 -0.0610 -0.0907
33686W        W76599  10.171  29.325  22.136 -0.0912 -0.0897 -0.0073
33687W        W76600  20.338   0.750  14.729 -0.2419  0.1146  0.1185
33688W        W76601   6.470   6.936  25.530 -0.0931 -0.0254  0.1591
33689W        W76602   5.123  33.635   0.504 -0.2077 -0.0647 -0.2598
33690W        W76603   2.947  33.368  27.784  0.1463 -0.2017 -0.3531
33691W        W76604   2.421  19.553  21.657  0.2010 -0.0960 -0.0994
33692W        W76605   0.799   3.998  23.453  0.0877 -0.0251  0.0696
33693W        W76606  10.292  34.024  18.767  0.2582 -0.1136  0.2571
33694W        W76607   2.400  19.411  17.189 -0.0533 -0.0052 -0.1245
33695W        W76608  33.281   0.097  19.754 -0.2276  0.1499 -0.0861
33696W        W76609  31.730  34.127  17.404  0.0383  0.3398 -0.1122
33697W        W76610   1.134  21.090   3.052 -0.3385 -0.1853 -0.3809
33698W        W76611  32.393  31.110  26.357  0.0260 -0.1011 -0.1090
33699W        W76612  31.620  31.342  22.629  0.1164 -0.1620 -0.2589
33700W        W76613   5.301   2.032   2.363 -0.0791  0.2712 -0.1739
33701W        W76614   1.719  29.132  20.735 -0.1328 -0.1839 -0.0977
33702W        W76615   0.019  31.786  25.795  0.1357 -0.0720 -0.2314
33703W        W76616   1.812  28.668  17.618  0.3420 -0.0878  0.3016
33704W        W76617   1.731  32.413  23.926  0.1524 -0.2772 -0.0088
33705W        W76618   9.836  21.590  14.932  0.3903  0.0927  0.2172
33706W        W76619   6.187  19.852  14.298  0.0555  0.1824 -0.0309
33707W        W76620  20.855  28.043  14.633 -0.3749 -0.4014  0.1242
33708W        W76621   2.658   2.299  29.188  0.0088  0.0123 -0.0782
33709W        W76622   6.843   0.455  17.147  0.1396  0.1609  0.1667
33710W        W76623   0.625  30.190  16.347  0.1568 -0.2259  0.2336
33711W        W76624   3.912   4.908  19.008  0.0780 -0.1601  0.1827
33712W        W76625  34.336  33.993  29.577 -0.1685  0.1343  0.0274
33713W        W76626   1.904  22.182  15.524 -0.2233 -0.4172  0.3106
33714W        W76627  10.108  33.985  28.540  0.2614  0.1639 -0.0674
33715W        W76628  30.165  29.653  21.921 -0.2081  0.1476  0.2519
33716W        W76629   3.861  30.321  28.510 -0.2993 -0.2673 -0.0413
33717W        W76630   4.197  33.562  17.177  0.2368  0.0930 -0.0221
33718W        W76631   9.084  23.139  17.230 -0.1498 -0.3525 -0.3014
33719W        W76632  33.545  25.491  18.278 -0.0302 -0.0701  0.0401
33720W        W76633  10.833  21.767  15.848 -0.1570  0.3575  0.1876
33721W        W76634  30.445   0.358  27.962  0.0488  0.0405 -0.0458
33722W        W76635   6.155   5.402  25.561 -0.2659 -0.2611 -0.3273
33723W        W76636  12.462  32.785   5.514 -0.0191 -0.0562  0.1128
33724W        W76637   6.072  17.239  14.363  0.1863  0.0885  0.0684
33725W        W76638  10.372  18.700  27.667  0.1803  0.0528 -0.2090
33726W        W76639   2.912  30.692  25.888  0.1118 -0.3357 -0.0374
33727W        W76640  12.903   3.182  24.812  0.0455  0.0245 -0.0984
33728W        W76641  13.881  20.026  18.821  0.0253  0.0555 -0.2072
33729W        W76642  34.015  33.382   4.847  0.0439  0.0004  0.3052
33730W        W76643  10.041   3.761   2.966  0.0166 -0.2277 -0.1832
33731W        W76644  33.131   5.181  19.842  0.2694  0.2384  0.0269
33732W        W76645  33.962  30.807  22.818  0.0571  0.0925 -0.0752
33733W        W76646  13.554   8.351  26.065 -0.1039 -0.1394 -0.1938
33734W        W76647   3.795   6.783  25.725  0.1723  0.2766 -0.1132
33735W        W76648  11.635   1.638  25.030  0.1771  0.1506  0.2386
33736W        W76649   9.277  31.783  20.172  0.1823 -0.2342 -0.1942
33737W        W76650  11.986  19.454  21.227 -0.2146  0.2901  0.1592
33738W        W76651   1.065  32.445  27.750 -0.2517  0.2339 -0.2373
33739W        W76652  33.656  28.963  14.206 -0.2416  0.1467  0.1324
33740W        W76653  23.483  22.666  18.099  0.1205 -0.2844 -0.0492
33741W        W76654   9.689  22.700  28.870 -0.1227 -0.0787  0.0731
33742W        W76655  20.161  28.051  28.021 -0.1019 -0.1304  0.2722
33743W        W76656   3.361  33.796  17.325  0.0121  0.1123 -0.1489
33744W        W76657   6.717  20.955  18.205  0.1438  0.1033 -0.0741
33745W        W76658  34.073  27.544  26.775 -0.0731  0.3230 -0.0421
33746W        W76659   8.503  25.259  19.849 -0.1246 -0.2332 -0.5664
33747W        W76660   6.974  18.349  26.973 -0.0028 -0.0743 -0.3742
33748W        W76661  33.678  21.076  14.312 -0.2048  0.1103  0.0439
33749W        W76662   5.725  30.178  20.422 -0.0839  0.1916  0.0456
33750W        W76663  10.380   0.391   1.116  0.0517  0.0334 -0.1369
33751W        W76664   4.736   1.676  28.480  0.0623  0.0619  0.0558
33752W        W76665   4.653  33.669  22.443  0.4768 -0.2183  0.0365
33753W        W76666   4.719  22.706  19.040  0.1292 -0.1611  0.0716
33754W        W76667  32.455  28.771  13.384  0.0949  0.2180 -0.0655
33755W        W76668   0.693  23.680  27.647  0.2440  0.0235  0.0058
33756W        W76669  14.968  27.288  19.365  0.0353  0.0374  0.1938
33757W        W76670   4.671  19.744  13.628  0.2090  0.2653  0.1284
33758W        W76671  13.582  27.424  16.364  0.1535 -0.2690  0.0924
33759W        W76672   3.906  26.682  23.713 -0.4345 -0.1435 -0.0535
33760W        W76673   3.920  27.004  23.037 -0.1787 -0.1050 -0.1772
33761W        W76674   6.764  13.945   0.255  0.0187 -0.0081 -0.1793
33762W        W76675   9.868  27.026  26.094 -0.2276  0.0789  0.0190
33763W        W76676   0.862  20.965  23.321 -0.3415 -0.2646  0.0029
33764W        W76677  10.510   1.424  23.924  0.0108  0.2588  0.0757
33765W        W76678   1.879  27.088  17.147  0.0980  0.3013 -0.1390
33766W        W76679  15.328  27.362  17.802 -0.1258  0.0207  0.0146
33767W        W76680   9.979  25.125  26.155  0.3370 -0.1891  0.1471
33768W        W76681   1.747  29.085   2.959 -0.0088  0.2518  0.0600
33769W        W76682  16.483   1.514  21.014  0.2255  0.0424  0.1751
33770W        W76683   0.651  30.882  28.691 -0.0666 -0.2270  0.1640
33771W        W76684   6.624  23.408  14.780  0.0842  0.0679  0.1594
33772W        W76685  12.028  25.576  17.215 -0.1120 -0.4359  0.3976
33773W        W76686  20.460   3.568  22.878 -0.2263 -0.2064  0.0057
33774W        W76687  16.473   1.754  23.293  0.1208 -0.0654  0.1227
33775W        W76688   2.380  19.699  26.509  0.1813 -0.0172 -0.1346
33776W        W76689   4.670  31.675  20.565  0.1852 -0.1824  0.2337
33777W        W76690   5.891  30.742  23.244  0.1812 -0.2086 -0.1209
33778W        W76691   1.901  22.361  16.456  0.1685  0.1374 -0.0238
33779W        W76692   2.719   2.563  24.521 -0.1320 -0.2167 -0.3007
33780W        W76693  12.010  32.207  20.994 -0.1370 -0.1668 -0.1066
33781W        W76694  32.508  30.121   1.951 -0.1279  0.1551  0.1633
33782W        W76695   5.158  22.515  20.121  0.2675  0.2539 -0.1436
33783W        W76696   9.960   3.877   0.180 -0.0751  0.0679  0.2580
33784W        W76697  20.115  25.745   2.162  0.0010 -0.0004  0.0708
33785W        W76698  33.609  28.614  16.075  0.2529 -0.2278 -0.1442
33786W        W76699   6.125  29.808  19.277 -0.2440  0.2917 -0.1619
33787W        W76700   2.617  20.962  26.173  0.0889  0.0691  0.2044
33788W        W76701  10.468  15.042  23.204 -0.2466 -0.0541 -0.1499
33789W        W76702   0.892   1.776  24.810  0.1947  0.2196 -0.3301
33790W        W76703   3.156  30.761  29.735 -0.2961 -0.0133  0.1231
33791W        W76704   0.528  27.826  27.278  0.2667 -0.0241 -0.0298
33792W        W76705   3.944  29.173  23.928 -0.1932  0.3031  0.2710
33793W        W76706   4.924  32.046  22.680 -0.0086  0.3754  0.0026
33794W        W76707  25.246   0.733  25.446  0.0958 -0.1373 -0.0994
33795W        W76708   3.047  27.551  25.477 -0.3131 -0.1081  0.1189
33796W        W76709  12.351  27.653  10.455  0.0421  0.3899 -0.2327
33797W        W76710   5.882  29.787  15.032  0.1869  0.1109 -0.1752
33798W        W76711   4.412   9.564   1.829  0.3956  0.0970 -0.4849
33799W        W76712   0.387  24.076  27.154  0.2180  0.0306  0.0705
33800W        W76713   3.188  24.334  16.871  0.0260 -0.0705  0.0462
33801W        W76714   0.315   8.145  25.381  0.3597  0.0617 -0.0687
33802W        W76715   7.700  30.872  19.292  0.1643  0.2325 -0.1026
33803W        W76716   6.703  29.840  17.232  0.1074  0.2493 -0.0536
33804W        W76717  12.843  30.869  28.887  0.0341  0.1789 -0.2758
33805W        W76718   4.096  25.905  18.667  0.0163 -0.2793 -0.0300
33806W        W76719   3.775  29.903  26.042 -0.3732  0.2010 -0.2682
33807W        W76720   3.293  19.384  14.908  0.0138 -0.3050  0.2284
33808W        W76721  13.046  32.858  19.813 -0.0194  0.1409  0.0175
33809W        W76722  12.644  32.055  18.557  0.1385 -0.0660 -0.0965
33810W        W76723   5.663   1.248  21.881 -0.0730  0.0300  0.1455
33811W        W76724   1.577  31.996  20.981  0.2451 -0.3161 -0.2056
33812W        W76725  12.822  22.624  24.392  0.2189 -0.0978 -0.0378
33813W        W76726   6.946  26.707  20.857 -0.2870  0.2401  0.0175
33814W        W76727   3.008  30.154  21.566  0.0687  0.1258  0.3108
33815W        W76728  19.626   2.326  17.472  0.2649 -0.0816 -0.1147
33816W        W76729   3.427  26.607  23.776 -0.1207  0.1448 -0.0757
33817W        W76730  12.647   3.224  23.686 -0.0633  0.2405 -0.1780
33818W        W76731  25.493  32.752   2.432 -0.2894  0.0446  0.1415
33819W        W76732  12.933  25.027  25.897 -0.3281  0.0391  0.0660
33820W        W76733  17.614  30.886  16.206 -0.1106  0.2716 -0.0150
33821W        W76734   9.660  32.044  25.956  0.2401 -0.3631 -0.1775
33822W        W76735   7.045  28.232  18.532  0.1186 -0.3350  0.2152
33823W        W76736  15.114   0.574  23.809 -0.0760  0.0883 -0.0764
33824W        W76737   4.347  28.344  25.362 -0.0406  0.3563  0.1207
33825W        W76738  18.542  26.229  25.788 -0.0389  0.0076 -0.1519
33826W        W76739  30.831  30.831  19.804 -0.0512  0.1448 -0.1131
33827W        W76740   7.186  26.602   1.483  0.2174 -0.4542  0.3087
33828W        W76741  33.883   1.037  16.632  0.0170 -0.1138  0.2624
33829W        W76742  10.860  27.029  19.761  0.0670 -0.2119 -0.2108
33830W        W76743   4.912  34.011  23.638  0.0015  0.1914 -0.1029
33831W        W76744  10.335  27.505  24.725  0.1290 -0.0354 -0.0588
33832W        W76745   9.997  26.109  18.961  0.3443 -0.1757  0.0182
33833W        W76746  29.347  28.677  25.295 -0.1696 -0.1542 -0.1039
33834W        W76747   1.596  24.133  27.081 -0.0179 -0.1138  0.2432
33835W        W76748   2.631  24.050  25.192 -0.1089  0.2081  0.2606
33836W        W76749  12.538  27.870  16.650 -0.0650  0.2898 -0.0612
33837W        W76750  15.879  28.269  14.659 -0.3725 -0.1320  0.0564
33838W        W76751   5.306  30.833  17.966 -0.0926  0.1939 -0.0921
33839W        W76752  10.669   2.397  19.639  0.2153 -0.2039 -0.2722
33840W        W76753   6.987  33.030  17.315  0.3216 -0.0249  0.0354
33841W        W76754   7.048  32.072  27.876 -0.1034 -0.2474  0.2425
33842W        W76755   7.171   3.675  18.597  0.2448  0.2512  0.1087
33843W        W76756   5.042   2.482  27.043 -0.1849 -0.1248 -0.0633
33844W        W76757   4.788   1.310  25.596  0.1000  0.0093  0.1734
33845W        W76758  31.037  28.724  23.733  0.1495  0.0367  0.3838
33846W        W76759   4.408   2.543  21.349  0.1083  0.0371 -0.2623
33847W        W76760   5.408  30.626  16.113  0.1948  0.0534  0.3972
33848W        W76761  18.001  32.808  20.397  0.1158 -0.3318 -0.1902
33849W        W76762  30.397  33.370  29.302 -0.2508  0.1418  0.2078
33850W        W76763  25.676  30.519  18.478  0.1400  0.1724 -0.2010
33851W        W76764  11.710  30.582  25.215  0.2268 -0.1807  0.0857
33852W        W76765   3.120  32.305  17.538  0.2854  0.2509  0.1046
33853W        W76766  11.144   4.664  24.233 -0.0412  0.0910 -0.0412
33854W        W76767   1.578  28.121  21.401  0.0722  0.1204  0.1235
33855W        W76768   9.984  26.529  18.039  0.0233  0.3535  0.0935
33856W        W76769  10.961  22.800  28.842  0.0412 -0.2370  0.2470
33857W        W76770  10.149  31.167  19.768 -0.2213  0.0804  0.0127
33858W        W76771  14.030   0.864  17.535  0.1313  0.0373 -0.0288
33859W        W76772   4.314  24.966   0.510 -0.1328  0.1163  0.1491
33860W        W76773   8.318  21.197  21.209  0.1951  0.3966  0.1492
33861W        W76774   3.217  27.009  26.631  0.1565 -0.0253  0.1785
33862W        W76775   0.726  17.606  20.058 -0.4745  0.0292  0.1392
33863W        W76776  32.035  24.665  20.159  0.0602  0.1867  0.3070
33864W        W76777  11.059  34.361  23.263  0.1942 -0.1285  0.1647
33865W        W76778   2.492   0.670  17.361 -0.3255 -0.1332 -0.1325
33866W        W76779   3.408  26.862  21.788  0.0237 -0.2972 -0.1448
33867W        W76780  12.639  33.371  23.868  0.2822 -0.3828  0.0574
33868W        W76781   2.652  12.425  26.435  0.1569 -0.0598  0.2459
33869W        W76782   8.029  29.252  21.919 -0.1615 -0.1123  0.0204
33870W        W76783   4.083  32.303  25.569 -0.0310 -0.1318  0.1821
33871W        W76784   9.725  32.678  21.596 -0.2916 -0.0283 -0.0083
33872W        W76785   4.013  18.811  19.157  0.1321 -0.0091  0.0479
33873W        W76786   5.275   0.406  24.016 -0.0003 -0.1602 -0.0284
33874W        W76787   2.632  32.906  17.821  0.2065 -0.1277  0.0678
33875W        W76788   9.836   5.724  22.890 -0.3782 -0.1895  0.1719
33876W        W76789  11.742  33.639  19.755 -0.0693 -0.1555 -0.0229
33877W        W76790  26.509  32.322  15.598 -0.1025 -0.0847  0.1506
33878W        W76791  10.081  31.954  28.310  0.0767 -0.0885  0.2462
33879W        W76792   6.245  25.432  19.702 -0.1112  0.0933 -0.0180
33880W        W76793  13.022  27.577  26.943  0.0404  0.2305  0.1004
33881W        W76794   7.918  22.600  24.132 -0.0960  0.0066  0.0268
33882W        W76795  32.669  25.185  22.252 -0.1611  0.0906  0.1500
33883W        W76796   6.383  24.319  15.345 -0.0244  0.0854 -0.0000
33884W        W76797   0.729   0.272  19.092  0.0613 -0.0761 -0.2137
33885W        W76798  12.669  29.055  26.943 -0.4072  0.0719 -0.2942
33886W        W76799  19.377  28.493  20.239  0.2141 -0.0193  0.0935
33887W        W76800   2.274  31.834  28.570 -0.0219 -0.0908  0.0846
33888W        W76801  21.287  29.491  22.700 -0.1078  0.0212  0.0830
33889W        W76802  27.444  27.491  26.417  0.2522 -0.4153 -0.0186
33890W        W76803   1.056  30.664  13.655 -0.0445  0.3035 -0.2327
33891W        W76804  11.579  29.377   5.953  0.3041  0.0678 -0.0415
33892W        W76805  17.331  25.850  21.428 -0.0101 -0.0889 -0.0696
33893W        W76806  12.501  12.954  21.649 -0.2540 -0.1678 -0.2630
33894W        W76807  10.621  28.547  24.082  0.1673  0.2765 -0.0622
33895W        W76808   0.309  19.540  17.508 -0.0142  0.3026 -0.0428
33896W        W76809  11.674  28.597  24.621  0.0427  0.3203 -0.2152
33897W        W76810  33.712   1.920  18.798 -0.0948 -0.0437  0.0689
33898W        W76811  11.726  10.956   0.932 -0.0452  0.2990 -0.0646
33899W        W76812  30.918  26.211  18.912 -0.2507  0.0797  0.1798
33900W        W76813  23.457   1.957   6.275 -0.2212  0.1410 -0.1318
33901W        W76814   4.290   6.271   1.883  0.0976  0.2819 -0.3971
33902W        W76815  13.587  21.094  21.898  0.2814  0.0463 -0.1566
33903W        W76816   6.214  22.542  21.755 -0.1711 -0.3985 -0.1623
33904W        W76817  32.891  28.615  23.217 -0.1017 -0.1713 -0.0674
33905W        W76818   7.311   4.206  20.562 -0.1151 -0.1000 -0.1484
33906W        W76819  19.876  27.636  25.394 -0.1349  0.0199  0.1105
33907W        W76820   8.994  20.584  13.820 -0.1040 -0.0357 -0.2579
33908W        W76821   3.370  21.040  24.183  0.0532 -0.0243  0.0749
33909W        W76822  32.940  29.143   1.678  0.0920  0.2260 -0.1573
33910W        W76823   1.978  31.371  17.633 -0.0538  0.2266 -0.0693
33911W        W76824   5.280  34.163  20.472  0.1198  0.1128  0.0024
33912W        W76825   3.017  26.587  22.384 -0.1352  0.0394  0.2571
33913W        W76826   6.586  29.726  17.694 -0.0867  0.1017  0.1348
33914W        W76827   5.359  18.817  22.393 -0.2187  0.1052 -0.2607
33915W        W76828   3.469  32.791  18.850  0.0459  0.0685 -0.1559
33916W        W76829  15.591  20.056  14.879  0.1791 -0.2934  0.1561
33917W        W76830  17.137  33.354  19.001  0.1154 -0.2851 -0.0796
33918W        W76831   3.450  32.116   5.169 -0.2170  0.0581  0.2251
33919W        W76832  15.129  33.466  18.197 -0.0778 -0.0013  0.1025
33920W        W76833   7.887  21.231   0.178  0.0504  0.1122 -0.3192
33921W        W76834   6.073   3.121  26.448 -0.3151  0.0265 -0.0878
33922W        W76835   6.256   3.189  21.972  0.0061  0.1987  0.1047
33923W        W76836  16.929  20.429  13.522  0.2099 -0.3307 -0.0813
33924W        W76837  28.458   2.437   3.517  0.0873 -0.1576  0.1221
33925W        W76838   0.491  27.163  20.964  0.0752  0.1517  0.0310
33926W        W76839   2.041   6.667   1.831 -0.0130 -0.2655  0.3995
33927W        W76840  10.092  29.321  19.876 -0.1452 -0.1714  0.2183
33928W        W76841  33.832   7.989  17.022  0.1273 -0.4651 -0.1313
33929W        W76842  25.305  22.701  21.486  0.0299 -0.0329  0.1054
33930W        W76843  18.511  29.580  19.663  0.0303 -0.1428  0.0863
33931W        W76844  10.192  34.274  27.466  0.1176 -0.2791  0.0381
33932W        W76845  14.668  19.490  20.796  0.0227 -0.2109  0.0984
33933W        W76846  12.224  29.469  25.310 -0.0923 -0.1493 -0.3424
33934W        W76847   1.268  24.418   0.311 -0.0425 -0.1329 -0.1940
33935W        W76848   5.083  25.260  17.676  0.1402  0.0139  0.1037
33936W        W76849  27.242  32.204   4.528  0.2493 -0.0510  0.2181
33937W        W76850  13.806   4.200   0.953 -0.0552 -0.0543  0.1880
33938W        W76851  33.713  32.863  16.863 -0.2725  0.1301  0.0958
33939W        W76852  33.124  25.315  22.965  0.2336  0.1001  0.3435
33940W        W76853  10.245  27.644  22.209 -0.0444  0.0572 -0.0863
33941W        W76854   5.977  29.169  20.324  0.0864 -0.0926  0.2663
33942W        W76855   2.256  20.560  24.992 -0.0650  0.1879 -0.1013
33943W        W76856   7.307  34.292  17.683  0.2387  0.0494 -0.0073
33944W        W76857  34.471   2.214  25.059 -0.0331  0.0475 -0.0885
33945W        W76858   9.659  33.750  16.901  0.1097 -0.1647  0.0723
33946W        W76859   9.887  24.319  23.321 -0.0637 -0.0503 -0.1091
33947W        W76860   3.877  30.847  27.368  0.0083  0.0016  0.1350
33948W        W76861   4.951   0.753  25.634  0.1123  0.2887  0.0335
33949W        W76862   6.574  29.738  15.917  0.0081  0.1562  0.1630
33950W        W76863  26.417  11.115  22.707  0.0230  0.2975  0.0710
33951W        W76864   7.476  22.561  24.813 -0.3253 -0.1877  0.1543
33952W        W76865   4.933  29.908  24.592 -0.2364 -0.4626 -0.0572
33953W        W76866  23.983  21.136  21.095 -0.1681 -0.2595 -0.3363
33954W        W76867   3.854  25.005  22.503 -0.1046 -0.0866  0.3607
33955W        W76868  10.537  31.570  17.612 -0.2122  0.1891 -0.1160
33956W        W76869   6.293  21.491   8.296  0.2721  0.4134 -0.3165
33957W        W76870  12.299   1.532  28.965  0.0200  0.1872  0.2313
33958W        W76871   7.880  20.816  20.115  0.0047  0.1543  0.1469
33959W        W76872  11.617  31.717  23.106 -0.3074  0.0681 -0.0098
33960W        W76873  31.064  28.635  18.906  0.1443 -0.2003 -0.0464
33961W        W76874  10.172  22.590  14.958  0.1536  0.1427 -0.0113
33962W        W76875   9.927  31.654  18.799 -0.1376  0.1110 -0.0036
33963W        W76876  29.316  32.915   1.007  0.1329 -0.2560  0.1655
33964W        W76877  32.738  25.877   0.545  0.0717 -0.0157 -0.2346
33965W        W76878   3.900  25.760   2.355  0.0725 -0.1153 -0.0624
33966W        W76879  31.417  34.410  21.291  0.2818  0.0369  0.1967
33967W        W76880  32.376  32.479  24.637 -0.1145 -0.0053  0.2493
33968W        W76881  12.587   4.352   1.983 -0.0877  0.1124  0.0389
33969W        W76882  18.850   0.586  18.784  0.3864  0.0137 -0.0501
33970W        W76883   3.591  17.768   1.428 -0.2605  0.1514 -0.1381
33971W        W76884   5.269  26.733  22.055 -0.1002 -0.0598 -0.1396
33972W        W76885  31.710  20.993  18.974  0.2613 -0.1155 -0.0331
33973W        W76886   5.590  22.934  14.209  0.4381 -0.0717  0.3175
33974W        W76887  10.051  33.642  17.207 -0.2692 -0.0621  0.3175
33975W        W76888   3.569  18.288  25.232 -0.1847 -0.3221  0.3215
33976W        W76889  11.609   3.770  21.634  0.1701 -0.0663 -0.1513
33977W        W76890  29.491  26.735  29.333 -0.1861 -0.2490 -0.0118
33978W        W76891  24.074  25.614  13.643  0.0774 -0.2228  0.0253
33979W        W76892  34.038  21.437  24.911  0.2706  0.0254 -0.1598
33980W        W76893  32.908  33.228  19.348 -0.0950 -0.2174  0.1313
33981W        W76894  14.423   4.767  27.875 -0.0192  0.1138  0.1897
33982W        W76895  24.836  27.605  25.462 -0.1690 -0.2804 -0.1569
33983W        W76896  11.337  20.864  13.847 -0.0486 -0.1369  0.0411
33984W        W76897   6.522  24.536  23.596  0.0046  0.0161 -0.2137
33985W        W76898  13.995  28.508  18.511 -0.1785  0.1809  0.3109
33986W        W76899  14.318  26.804  20.756 -0.4133  0.2590 -0.1439
33987W        W76900  33.311   1.823   0.368  0.0647  0.0287  0.0803
33988W        W76901   2.988  24.903  23.141  0.0746  0.1524  0.0687
33989W        W76902   2.444  33.127  20.614  0.1705  0.0587  0.1807
33990W        W76903  17.264  31.261  23.241  0.0743  0.1426 -0.2451
33991W        W76904  32.034  28.704  21.529 -0.1081 -0.2102 -0.0946
33992W        W76905  11.292  26.358  19.818  0.0216 -0.1481  0.0444
33993W        W76906   5.694  20.526  21.825 -0.1751  0.2652 -0.0528
33994W        W76907  11.044  32.839  19.931 -0.2470 -0.1950 -0.2617
33995W        W76908  16.822  29.510  21.479  0.0575  0.0181  0.3842
33996W        W76909   6.453  34.114  20.058 -0.1287  0.0997 -0.1634
33997W        W76910   3.229  25.093   0.207 -0.0627 -0.1050 -0.2273
33998W        W76911  32.994  29.363   6.887 -0.1996 -0.3380  0.0420
33999W        W76912   4.535  29.438  23.195  0.1991 -0.0281  0.0030
34000W        W76913  33.758  13.747  21.252  0.0773  0.0643 -0.2693
34001W        W76914  19.127  25.457  23.596 -0.1713 -0.1199  0.0592
34002W        W76915   2.483  25.863  26.095 -0.2530 -0.1642 -0.0567
34003W        W76916   8.035  34.434  22.672  0.0166  0.1867  0.1762
34004W        W76917   2.191  31.078  21.036  0.0198 -0.0907  0.0666
34005W        W76918   3.897  34.212  27.800  0.1619 -0.0498  0.1367
34006W        W76919  18.577  23.884  19.550  0.0268 -0.1002  0.1913
34007W        W76920  12.021  30.985  21.259 -0.1212  0.0019  0.0806
34008W        W76921  29.480  25.853   4.190  0.0969  0.1485  0.0265
34009W        W76922   1.952  24.377  18.771 -0.1043  0.1175  0.0715
34010W        W76923   2.752  21.411  18.699  0.3740 -0.0532 -0.1547
34011W        W76924   8.951  24.433  22.956 -0.1246 -0.0026 -0.0856
34012W        W76925  34.016  33.910  15.173  0.0727 -0.3783 -0.0996
34013W        W76926  12.190  24.684  16.674  0.0611 -0.0664 -0.0652
34014W        W76927   0.717  34.003  29.284 -0.0605  0.0396 -0.1470
34015W        W76928  15.046   0.076  24.925 -0.1803  0.1617  0.2178
34016W        W76929   1.891   9.711  18.576 -0.4001 -0.0603 -0.2173
34017W        W76930   2.121  22.325  19.616  0.2398  0.0299  0.1561
34018W        W76931  12.086   0.821  23.745  0.4807  0.1226  0.0229
34019W        W76932  32.651  20.279  20.434 -0.1014  0.2547  0.1562
34020W        W76933   0.687  24.398  14.727  0.2142 -0.0539 -0.2561
34021W        W76934   0.609  24.291  28.980 -0.1684  0.0202  0.2135
34022W        W76935  11.488  34.090  27.842  0.1363 -0.2694  0.1739
34023W        W76936  28.773  33.934  24.392  0.0339  0.0233  0.1496
34024W        W76937   3.780  20.718  20.935 -0.0502  0.1049 -0.1533
34025W        W76938   6.965  32.066  21.163  0.1126  0.1708 -0.0613
34026W        W76939  11.592  32.615  26.067 -0.0619  0.0033 -0.3658
34027W        W76940  14.585  27.207  16.418 -0.1331  0.0431 -0.0362
34028W        W76941  33.208   2.597  26.114 -0.1337  0.1978  0.1414
34029W        W76942   8.732  19.045  24.691  0.0737 -0.0266  0.2235
34030W        W76943   1.051  26.782  25.259 -0.4326 -0.1257 -0.2577
34031W        W76944   9.035  32.863  18.284 -0.5364  0.1926  0.0730
34032W        W76945  32.871  28.520  24.275  0.0808 -0.2965  0.3155
34033W        W76946   7.065  23.402  17.875  0.2129 -0.1583 -0.0768
34034W        W76947   8.946  34.426   0.238  0.1852  0.0686 -0.0336
34035W        W76948   4.402  29.832   7.438 -0.0709  0.1679  0.0405
34036W        W76949  11.527  28.571  25.705 -0.0673 -0.0905  0.1433
34037W        W76950   6.844  30.274  26.455  0.0334  0.0362  0.0497
34038W        W76951   2.191  16.740  28.797  0.0197 -0.2053 -0.1074
34039W        W76952   5.897  22.436  28.480  0.2748 -0.0564  0.2093
34040W        W76953   7.169  21.934   2.782  0.1516  0.0249 -0.1468
34041W        W76954  32.962  22.311  21.811  0.0359  0.2588  0.1217
34042W        W76955  11.079  23.551  19.977 -0.2761 -0.2168  0.3330
34043W        W76956  30.341  26.463  24.210  0.0019 -0.3640 -0.1596
34044W        W76957  33.883   0.034  29.716 -0.2308 -0.2505  0.1326
34045W        W76958  27.675   2.333  14.481 -0.0916 -0.0674 -0.0093
34046W        W76959   9.936  25.179  22.082  0.3016 -0.1603  0.1047
34047W        W76960   9.947  16.286  18.225 -0.0609 -0.1303  0.0098
34048W        W76961  12.695   4.558  20.484 -0.3559 -0.1656 -0.0798
34049W        W76962  13.135  26.248  29.628  0.0631  0.2872  0.1836
34050W        W76963  31.741  31.865   1.585 -0.0290 -0.0721 -0.1316
34051W        W76964  15.342  22.658  14.228  0.0341  0.2437 -0.0280
34052W        W76965   1.799  32.281  27.121  0.0636  0.1505  0.1281
34053W        W76966  31.184   7.576   2.082  0.2160 -0.1845 -0.0367
34054W        W76967   6.819  28.274  23.294  0.2311 -0.0319 -0.2202
34055W        W76968   3.031  33.041  21.689  0.0468  0.0932 -0.2709
34056W        W76969   6.132  28.686  20.329  0.1650  0.2371 -0.2254
34057W        W76970  19.463   7.820   2.920 -0.1545 -0.0361  0.1067
34058W        W76971  10.407  31.408  15.736  0.1699 -0.0053 -0.0555
34059W        W76972   4.502  29.205   1.376  0.0926 -0.1043  0.2522
34060W        W76973   9.275  27.847  22.713 -0.2844  0.1942 -0.0710
34061W        W76974  10.349  21.322  25.092  0.2933 -0.0431 -0.0247
34062W        W76975  12.234  26.319  25.673  0.0768 -0.2089 -0.2059
34063W        W76976  26.541   3.667   1.979  0.0241 -0.0391 -0.0399
34064W        W76977  15.029  18.433  24.379 -0.0554 -0.0228 -0.1968
34065W        W76978  32.631   0.147  19.129 -0.2696 -0.3238 -0.1063
34066W        W76979   6.671  27.888  29.289  0.1279 -0.3011 -0.1914
34067W        W76980  15.485  30.782  19.922  0.0770 -0.0628  0.4169
34068W        W76981   8.907  27.044  25.555  0.2639 -0.1788 -0.0426
34069W        W76982  28.442   5.033  17.885  0.2706  0.0471  0.3435
34070W        W76983   7.295  30.730   2.468 -0.4536 -0.0785 -0.0249
34071W        W76984  28.414  31.789  15.938  0.2285  0.0615 -0.0701
34072W        W76985   7.119  24.747  21.665  0.1407 -0.0567  0.1884
34073W        W76986   7.677  18.678   0.015  0.0978 -0.2681  0.0331
34074W        W76987  29.928   4.229  20.223 -0.2251 -0.0708  0.0863
34075W        W76988  12.085  32.785  24.211  0.1907 -0.1386 -0.1881
34076W        W76989  29.311  17.508  27.855  0.1442  0.1408  0.2509
34077W        W76990   6.011   1.452  19.010 -0.0499  0.0184  0.2308
34078W        W76991  32.024  30.231   2.380 -0.1676 -0.3009 -0.3216
34079W        W76992  30.221   4.411  16.846  0.2958 -0.0012 -0.2692
34080W        W76993   3.618   7.412  28.142 -0.0354 -0.0637  0.0665
34081W        W76994   3.549   3.035  29.491  0.2557 -0.2559 -0.1325
34082W        W76995   3.225  30.789  24.352 -0.1667  0.0397  0.1041
34083W        W76996  13.914  28.678  10.160  0.3092 -0.0280 -0.1612
34084W        W76997  10.479  32.915  23.953  0.2415 -0.0753 -0.1337
34085W        W76998  33.368  29.746   0.089 -0.2945  0.2154  0.0403
34086W        W76999  16.004   2.797  15.691 -0.2743 -0.1840  0.1738
34087W        W77000  10.877  26.926  29.476  0.1053 -0.1683 -0.1331
34088W        W77001   9.319  22.855  13.788 -0.0007 -0.0726 -0.4272
34089W        W77002   3.889  32.821   0.489 -0.1985 -0.0599  0.0158
34090W        W77003  32.989  15.430  14.026 -0.0051 -0.0817 -0.4841
34091W        W77004  27.340   4.464  16.080  0.1237 -0.0384 -0.2728
34092W        W77005  10.159  25.726  18.588 -0.2361 -0.1059 -0.0333
34093W        W77006  12.357   0.260   1.937  0.0939  0.0289 -0.2737
34094W        W77007  34.470  18.048  25.114 -0.1079 -0.1951 -0.1961
34095W        W77008   5.392  29.625   1.570 -0.0009 -0.3042 -0.0624
34096W        W77009   9.131  23.798  20.131  0.1006 -0.0548 -0.0602
34097W        W77010  10.531   0.745  28.180  0.1192 -0.0289  0.1421
34098W        W77011  13.843  29.055  27.376  0.1351  0.0466  0.3467
34099W        W77012   1.035   3.733  23.004  0.1731 -0.2849 -0.0073
34100W        W77013   5.568   7.346   9.914  0.1882  0.0729  0.0380
34101W        W77014  13.360   1.425   2.020  0.1432 -0.1104 -0.1705
34102W        W77015  11.345  14.460  23.466  0.0112  0.0117  0.0992
34103W        W77016   0.668  27.623   0.521 -0.1092  0.1822  0.3566
34104W        W77017   6.981  23.476  25.652  0.0365  0.2054  0.0204
34105W        W77018   7.281  28.169  18.135  0.1778  0.1774  0.1339
34106W        W77019  33.814  29.343  28.485 -0.0953 -0.0608  0.0759
34107W        W77020  17.705  29.022  22.846 -0.1273  0.0689  0.1131
34108W        W77021   6.264  17.293   1.668  0.0398  0.2457 -0.4399
34109W        W77022  15.534  33.165  26.437  0.1672 -0.1779 -0.2385
34110W        W77023  23.664  20.968  14.788 -0.1497 -0.1067  0.0232
34111W        W77024   0.433  29.320  19.991  0.1354 -0.0267  0.1056
34112W        W77025   1.825  12.111  25.689 -0.0106  0.0579  0.0915
34113W        W77026   7.662  21.804  28.177  0.0703 -0.2652  0.1938
34114W        W77027  11.283  33.458  11.395  0.3229 -0.0350  0.2888
34115W        W77028   6.633   3.960  22.145  0.1818 -0.3894 -0.0700
34116W        W77029   5.006  31.004  24.999  0.0350 -0.0862  0.0343
34117W        W77030  17.329  33.513   3.668  0.0940 -0.0191  0.0182
34118W        W77031  14.088  27.766  21.769 -0.1032  0.1855  0.0154
34119W        W77032  15.709  28.537  22.115  0.0608  0.1624  0.3370
34120W        W77033  33.880  28.684  18.183 -0.0367  0.1212  0.2432
34121W        W77034   4.818  17.210  24.209  0.0310 -0.1407 -0.1783
34122W        W77035  30.877  21.567   7.053  0.0453 -0.3386 -0.1888
34123W        W77036   9.255  26.319  29.507  0.1701  0.0108 -0.1475
34124W        W77037  18.099  25.538  16.924  0.2806 -0.0885  0.1292
34125W        W77038  15.596  14.802   0.347  0.0819  0.0844  0.1433
34126W        W77039   5.073  20.575  24.723  0.2997 -0.2055  0.0604
34127W        W77040  26.609  27.515  22.403  0.1163 -0.2817 -0.2781
34128W        W77041  13.145  26.323  14.154  0.1532  0.0260 -0.1702
34129W        W77042   7.436  27.276   2.859  0.1966  0.1296  0.2148
34130W        W77043  13.636   4.514  29.624  0.1001  0.0350 -0.0531
34131W        W77044  11.687  24.956   2.096  0.0730  0.0321  0.2005
34132W        W77045   4.833  14.601  16.312 -0.0668 -0.1756  0.2610
34133W        W77046   9.470   2.304  23.733 -0.1077 -0.0846  0.1174
34134W        W77047  13.913   1.260  26.711 -0.1433  0.1254 -0.0317
34135W        W77048   5.820  22.176   2.787  0.2306  0.2915 -0.3177
34136W        W77049   2.939  30.638   9.987 -0.1396  0.1680 -0.1255
34137W        W77050  23.696   5.590  23.390 -0.0042 -0.2016  0.2109
34138W        W77051   9.916  30.974  18.116 -0.1883  0.1488  0.1845
34139W        W77052   6.949  20.161  16.780  0.0610 -0.3168 -0.1866
34140W        W77053   3.744  24.367   6.606  0.2710  0.0440 -0.1812
34141W        W77054   4.282  27.073   6.090  0.4282  0.0892 -0.1096
34142W        W77055  34.422  30.330  20.681 -0.0897  0.1121  0.1685
34143W        W77056   4.482   8.239  18.522  0.1188 -0.0464 -0.1089
34144W        W77057   6.107  21.150  28.442 -0.2718  0.3760 -0.0866
34145W        W77058   1.821  11.942  24.992  0.0072 -0.2450 -0.0718
34146W        W77059   3.480  26.436   4.212  0.0725  0.0607 -0.1338
34147W        W77060   7.396  32.753  22.124  0.0616  0.1315 -0.1542
34148W        W77061   5.361   5.539  20.995 -0.1366  0.3622 -0.0956
34149W        W77062   9.927  32.308  18.112  0.1647  0.0301  0.2589
34150W        W77063  31.878  30.716  20.456  0.1028  0.1294 -0.0819
34151W        W77064   7.028  32.036  18.114 -0.4395 -0.0683 -0.1658
34152W        W77065   5.868   1.254  17.593 -0.1976  0.1326  0.0429
34153W        W77066   2.617   3.954  22.862  0.2543  0.1637 -0.0589
34154W        W77067  10.669  28.995  25.511  0.1225  0.1942 -0.2340
34155W        W77068   2.334   2.182  18.813  0.1400 -0.2402  0.4984
34156W        W77069   7.573  24.300  20.763  0.1423  0.1006 -0.2691
34157W        W77070   1.569  20.142   5.179 -0.1055  0.2309 -0.4952
34158W        W77071   6.460   4.262   4.556 -0.3285 -0.0515 -0.0921
34159W        W77072  14.871  28.870  18.762 -0.1424  0.0288  0.0991
34160W        W77073  10.518   0.399   2.771  0.0499  0.1684  0.1090
34161W        W77074   2.126   0.739  23.931 -0.0577 -0.0594 -0.2655
34162W        W77075   7.663  21.494  25.063 -0.0388  0.0200 -0.0848
34163W        W77076   1.989  28.100   1.999 -0.2113 -0.0959 -0.0355
34164W        W77077  32.414  18.587  23.361 -0.0725  0.1278 -0.0815
34165W        W77078  11.672   6.379  16.908  0.2048  0.2664 -0.2311
34166W        W77079  15.287  28.464  18.974 -0.2064 -0.0706 -0.1559
34167W        W77080   3.770  21.829  29.650 -0.1103  0.0699  0.2694
34168W        W77081  12.378  14.789  15.395  0.0154  0.2052  0.0695
34169W        W77082   9.967  27.811  25.956 -0.1296  0.1512  0.3300
34170W        W77083   0.916  25.674  24.370 -0.2202  0.0862  0.1380
34171W        W77084   9.015  19.748  28.179 -0.0624  0.0666 -0.1912
34172W        W77085  17.947  20.693  23.437 -0.2058 -0.0030 -0.0711
34173W        W77086  12.673  24.272  28.908  0.2326  0.0143  0.0586
34174W        W77087   3.803  21.986  21.967 -0.3555  0.1620 -0.2560
34175W        W77088   3.674   1.277  20.732  0.3097  0.2469 -0.1053
34176W        W77089   9.137  29.292  18.947  0.1210 -0.1180  0.0361
34177W        W77090  10.980  22.659  15.969  0.2057  0.0018  0.1088
34178W        W77091   4.175  30.905  29.144  0.2799  0.1328 -0.0984
34179W        W77092   3.329  25.027  18.158 -0.1430 -0.2294 -0.1161
34180W        W77093   1.934  24.834   2.794 -0.1527  0.1500  0.0236
34181W        W77094  34.032   8.003  20.259 -0.4733 -0.0796  0.0649
34182W        W77095   6.646  23.626  26.725  0.0969 -0.2809  0.2025
34183W        W77096   7.713  28.517  23.969  0.2538  0.1648 -0.0621
34184W        W77097  12.491  25.990  26.644 -0.2887  0.1099 -0.1503
34185W        W77098   6.732  24.170  16.912  0.1329  0.0196 -0.0856
34186W        W77099  30.804  21.091  21.841  0.0043 -0.0110 -0.0466
34187W        W77100   7.607   3.261   4.883  0.0283 -0.3605  0.1475
34188W        W77101   2.063  26.625  28.500  0.1318  0.0883  0.0761
34189W        W77102  15.910  25.553  16.833  0.2333  0.0230 -0.2367
34190W        W77103   0.401  25.625  17.125  0.1577  0.1887  0.2674
34191W        W77104   0.193   3.285  28.613  0.2075  0.0100  0.1319
34192W        W77105   2.353  22.134   8.007 -0.1413 -0.1813 -0.1423
34193W        W77106  31.530  31.440  19.504 -0.0322 -0.2793  0.0084
34194W        W77107  34.082  29.234  26.805 -0.1933  0.0660 -0.0033
34195W        W77108   6.584  26.530  27.033  0.1731 -0.0382 -0.0964
34196W        W77109   6.237  21.818   1.400  0.2901 -0.0632  0.0541
34197W        W77110  30.619   6.109  22.501 -0.3085 -0.2003  0.2142
34198W        W77111   3.807  27.627   5.962 -0.0654 -0.1593  0.0199
34199W        W77112  27.793  29.207  24.180 -0.1134  0.2706 -0.2165
34200W        W77113  28.326  27.519  24.576  0.0224 -0.0054 -0.0532
34201W        W77114   0.174   8.724  12.019  0.2106  0.0108  0.1313
34202W        W77115  34.408  27.623  23.000  0.0427  0.3273 -0.2249
34203W        W77116   8.889   0.378  28.677 -0.0344 -0.2414 -0.1032
34204W        W77117   2.309   0.496  16.279  0.2148 -0.0567 -0.1007
34205W        W77118  10.030  17.857   2.486  0.0240  0.2108 -0.0886
34206W        W77119  14.003  11.015  26.892 -0.1324  0.1275  0.2093
34207W        W77120  31.774  26.403  27.085 -0.0517  0.1597 -0.0875
34208W        W77121  12.366   1.472  17.841  0.0134  0.0180  0.3077
34209W        W77122   8.670  24.819  14.911 -0.3881 -0.2146  0.1899
34210W        W77123   1.697  21.853   0.177 -0.3164  0.1917 -0.4331
34211W        W77124   1.222  32.753  19.221 -0.0830 -0.0879  0.0791
34212W        W77125   4.872  24.013  24.730  0.0226  0.0316 -0.0139
34213W        W77126   2.951  30.455   4.073 -0.1365 -0.1474  0.0358
34214W        W77127  13.205  26.051  25.378  0.1766  0.2161  0.1014
34215W        W77128  11.296  28.642  21.239 -0.2126 -0.1946 -0.3128
34216W        W77129  11.549  22.121  18.149  0.3586  0.1923 -0.0680
34217W        W77130   2.055   7.481  26.592  0.0231 -0.3626  0.1010
34218W        W77131  13.897  23.091   0.628  0.5068  0.0960  0.3619
34219W        W77132  30.437  30.078   0.080 -0.0716 -0.2237 -0.0941
34220W        W77133  30.715  20.811  16.538  0.0720  0.5602  0.2080
34221W        W77134  30.385  32.193  23.325  0.0001  0.0704 -0.1290
34222W        W77135   3.873  25.466   0.880 -0.0857  0.2404  0.1918
34223W        W77136  27.584  28.702  19.927 -0.2621  0.2735  0.1108
34224W        W77137  31.868  27.201   5.389  0.1898 -0.1632  0.0633
34225W        W77138   9.442  33.422  22.044  0.2590 -0.3850  0.3267
34226W        W77139  13.861  21.181   5.715  0.0612 -0.0970 -0.0955
34227W        W77140   4.894  17.530  21.801 -0.1669  0.0670 -0.2030
34228W        W77141  14.177  25.730  23.207  0.0017  0.0966  0.2912
34229W        W77142   7.837  28.640  18.728 -0.0054 -0.2667  0.2587
34230W        W77143  13.475  30.058  25.796 -0.3540  0.3063  0.0205
34231W        W77144   9.439   9.005   4.660  0.0148 -0.0093 -0.1892
34232W        W77145  13.765  27.889  28.357 -0.0692  0.1889  0.0122
34233W        W77146  34.334  26.437  18.591  0.2675  0.0043 -0.0608
34234W        W77147   4.334   2.233  20.933 -0.0002  0.0113  0.1409
34235W        W77148   3.187  28.431  15.182 -0.0387 -0.1362  0.3810
34236W        W77149   5.144  29.217  19.259 -0.0042  0.0029 -0.1398
34237W        W77150  10.687  29.799  19.270  0.1777 -0.0033 -0.1706
34238W        W77151   2.612  28.210  28.696  0.0765  0.0057 -0.0089
34239W        W77152   5.698  33.338  25.154 -0.0782  0.0286  0.0783
34240W        W77153  28.791   5.494  24.706 -0.0221 -0.0223 -0.1793
34241W        W77154   6.196  31.397   2.006  0.1547 -0.2278 -0.0436
34242W        W77155  32.579  31.869  18.850  0.1244 -0.0825 -0.1794
34243W        W77156  10.076  25.511  19.075  0.1811 -0.2396  0.1043
34244W        W77157   1.866  32.734   9.976 -0.3628  0.1006 -0.0639
34245W        W77158  18.361  28.444  28.538  0.1163 -0.0116 -0.1605
34246W        W77159   7.699   6.709  22.308 -0.1991 -0.0957  0.1064
34247W        W77160  15.844  30.428   4.277  0.0146  0.0155  0.0804
34248W        W77161   3.913  19.445  26.994  0.0250  0.0049 -0.2446
34249W        W77162   5.850   6.014  19.668 -0.2254  0.2597  0.1661
34250W        W77163  10.459   2.037  24.953  0.2565 -0.0499 -0.1128
34251W        W77164   2.181   0.978  28.200 -0.2981  0.0652  0.0194
34252W        W77165   2.945  30.356  22.658  0.2236  0.1678 -0.1351
34253W        W77166  13.890  24.577  21.155 -0.0187  0.0149  0.0640
34254W        W77167  11.950  33.517   1.666  0.0437  0.0415 -0.0908
34255W        W77168   5.518  29.585  23.030  0.1177 -0.1583 -0.3827
34256W        W77169   8.741  32.332  20.729  0.1103 -0.0732 -0.1527
34257W        W77170   4.168  31.248  29.540 -0.0288 -0.0094  0.3605
34258W        W77171  19.712  26.509   2.489 -0.2630  0.3578  0.0615
34259W        W77172   3.125  27.179  27.215 -0.2841 -0.1380 -0.1058
34260W        W77173   6.126  23.599  17.926  0.0483 -0.0189  0.1357
34261W        W77174  29.414  28.275  25.702 -0.0505 -0.1555  0.2542
34262W        W77175   1.621  28.716  19.292  0.4897  0.0634 -0.0910
34263W        W77176   0.644  29.948  24.766  0.0617 -0.1459  0.0869
34264W        W77177  10.713   4.698  19.196 -0.0104  0.2990  0.1405
34265W        W77178  14.851  20.823  24.869  0.5451 -0.0250 -0.2213
34266W        W77179   6.657  25.702  27.799 -0.1259  0.1247 -0.0224
34267W        W77180   1.147  22.821  17.994  0.0393  0.3731  0.0731
34268W        W77181  33.982  25.057  22.664 -0.0106  0.1204 -0.1157
34269W        W77182   1.442   3.068  18.631  0.1473  0.2178  0.2073
34270W        W77183  32.211   1.597  24.803  0.0527 -0.1556 -0.0237
34271W        W77184   5.291  29.943  26.064 -0.2192  0.1536  0.0007
34272W        W77185  33.523  28.362  22.106 -0.1079  0.0077  0.0602
34273W        W77186   5.293  26.437  24.757  0.0651 -0.2463  0.0091
34274W        W77187  12.100  30.021  22.168  0.0411 -0.1004  0.0811
34275W        W77188   6.182  23.714  25.251 -0.4748 -0.1979 -0.1116
34276W        W77189  11.837  32.383  18.352 -0.0655  0.0293 -0.2372
34277W        W77190   7.157  28.679  27.972  0.0539  0.0685 -0.3196
34278W        W77191   6.339  28.485  26.451 -0.1156 -0.0813  0.2837
34279W        W77192   2.151  18.793   0.595 -0.1617  0.2719  0.1316
34280W        W77193   7.491  30.214   0.000  0.2183 -0.1110  0.5276
34281W        W77194   4.214  27.440  24.676  0.1614  0.0787 -0.3225
34282W        W77195   6.191  22.922  28.628 -0.1726  0.1505  0.1277
34283W        W77196  26.669  31.343  14.259 -0.1013  0.0501 -0.1382
34284W        W77197   9.691  28.704  22.235  0.0539  0.3979 -0.0639
34285W        W77198  27.387  33.638   3.324  0.0307 -0.1947 -0.0969
34286W        W77199  15.042  22.898  19.652  0.1546 -0.0470 -0.1094
34287W        W77200   7.944   7.975  25.535 -0.2650 -0.1698  0.3821
34288W        W77201   6.824  33.061   1.653 -0.0310 -0.2520 -0.1247
34289W        W77202   2.745  33.045  23.946  0.0012  0.0036 -0.0808
34290W        W77203   4.802  24.504  23.260 -0.1913  0.0130 -0.5376
34291W        W77204   2.331  24.394  24.857  0.1927 -0.2641  0.0493
34292W        W77205   4.315   1.537  25.390 -0.2962 -0.3954 -0.1108
34293W        W77206  12.115  33.873  24.257 -0.2790 -0.2379  0.0993
34294W        W77207   1.342  26.223  23.397  0.2694 -0.0230 -0.1000
34295W        W77208   9.259  28.666  26.895 -0.4084  0.0827 -0.0959
34296W        W77209  13.510  30.432   2.876  0.0397 -0.1010  0.2279
34297W        W77210   7.874  22.001  18.199  0.1610  0.2790 -0.0029
34298W        W77211  32.196   0.062  28.426 -0.2261 -0.0282 -0.0618
34299W        W77212   3.090  27.385  22.993 -0.3006  0.0816 -0.0170
34300W        W77213  11.412  29.601  21.621 -0.1381 -0.0802 -0.2845
34301W        W77214  22.655  33.176  27.119  0.4329 -0.2886  0.0513
34302W        W77215   4.620   0.070  26.792 -0.0204 -0.0105  0.1816
34303W        W77216   6.715  18.944  24.244 -0.1155  0.3616 -0.0245
34304W        W77217  13.257  31.772  28.620 -0.0969  0.2696  0.1230
34305W        W77218   2.057   0.999  27.601  0.2088 -0.0894 -0.1937
34306W        W77219   8.064  31.855  28.665 -0.0553 -0.0313  0.1916
34307W        W77220   1.514  29.935  18.706 -0.5310 -0.2535 -0.0649
34308W        W77221   2.555  29.591  19.777  0.1839 -0.3016 -0.0910
34309W        W77222  21.662  28.124  25.891  0.1094 -0.2525  0.0183
34310W        W77223   5.894  27.556  15.697 -0.1173 -0.0040 -0.0945
34311W        W77224   3.788  20.328  17.694 -0.1128 -0.0147  0.1795
34312W        W77225   9.370  25.395  25.388  0.1667 -0.0997 -0.0322
34313W        W77226   9.170   0.245   6.271 -0.2186  0.3292 -0.0537
34314W        W77227  27.819  32.362  17.888 -0.1157  0.1969 -0.1437
34315W        W77228  18.883  30.705  27.077 -0.0382 -0.2271 -0.2862
34316W        W77229   2.584  26.218   2.729 -0.0078  0.1267 -0.1096
34317W        W77230   5.302  23.009  21.365 -0.0475 -0.0765  0.1284
34318W        W77231   3.268  30.397  25.693 -0.1653  0.3835  0.1724
34319W        W77232  33.727   5.551  26.388 -0.1157  0.2109  0.1785
34320W        W77233   2.966  22.670  26.239  0.0327  0.2920 -0.2769
34321W        W77234  13.249  28.859   7.398 -0.0031 -0.0656 -0.2163
34322W        W77235  26.179   0.121  29.493 -0.0325  0.0298 -0.2974
34323W        W77236  32.033  30.989  28.936  0.1999  0.4335  0.1312
34324W        W77237   5.769  30.382   0.199  0.1477 -0.2586  0.0055
34325W        W77238  29.170   2.263  19.565 -0.2367 -0.0330 -0.1050
34326W        W77239  12.051  21.857  26.221  0.4660  0.1676  0.2774
34327W        W77240  33.725  31.768   3.059 -0.0852  0.3767  0.0942
34328W        W77241   7.166  23.893  16.919  0.0339  0.0737 -0.1372
34329W        W77242   8.827  33.475  26.973  0.1141 -0.2333  0.0579
34330W        W77243  33.480   3.602   6.778  0.1918  0.0708  0.4945
34331W        W77244   2.100  34.340  25.261 -0.1445 -0.0383  0.3571
34332W        W77245   2.530  22.944  14.460 -0.1977  0.1797 -0.2905
34333W        W77246  28.986   1.222  23.779 -0.3281 -0.0862  0.1857
34334W        W77247  13.970  27.714  21.121 -0.1725  0.0908  0.1053
34335W        W77248  34.437   0.239  25.083 -0.0179 -0.1682 -0.1175
34336W        W77249   5.640  18.241  14.936 -0.0514  0.0952  0.3156
34337W        W77250   7.828  34.297  21.068 -0.1113  0.0748  0.1028
34338W        W77251  10.388   0.811  28.741  0.0633 -0.1427  0.2965
34339W        W77252  10.402  21.384  28.352  0.0851 -0.2161  0.2713
34340W        W77253   3.578   1.695  19.405  0.2127 -0.1130 -0.3046
34341W        W77254   7.058  30.964  24.285  0.0561  0.1588 -0.2317
34342W        W77255  19.500  25.866  15.801  0.2807  0.0664  0.0805
34343W        W77256   6.438  30.356  17.840  0.1443  0.0172  0.1626
34344W        W77257  28.436  25.715  22.923  0.3870 -0.0606  0.0552
34345W        W77258  31.658   0.469  23.554  0.2459  0.0456  0.0339
34346W        W77259  15.753  20.663  16.947  0.1344 -0.2381  0.1851
34347W        W77260  14.663  31.645  22.912 -0.2482  0.0550 -0.2322
34348W        W77261   1.140   4.394  23.181 -0.0983 -0.0940 -0.1672
34349W        W77262   0.491  22.447  18.190  0.1498  0.0154  0.1555
34350W        W77263  32.780   3.285  26.715  0.0420  0.3199 -0.0342
34351W        W77264  29.133  24.703  27.595 -0.1063 -0.4496  0.1034
34352W        W77265  32.601   0.516  18.133 -0.4258 -0.1057 -0.1079
34353W        W77266   1.158  32.509  28.589 -0.2500  0.0438  0.2425
34354W        W77267   9.331  29.183  25.367 -0.0713  0.0302  0.0494
34355W        W77268   1.796  21.517  23.862 -0.1890 -0.0673 -0.1299
34356W        W77269  18.289   1.846   7.419 -0.0338 -0.1299  0.1824
34357W        W77270  24.436  33.554  19.264 -0.2880 -0.1203 -0.4367
34358W        W77271  32.535   0.404  26.760  0.0517 -0.1467  0.1126
34359W        W77272  33.527   9.848  16.907  0.3751  0.0221  0.5770
34360W        W77273   2.871  28.769  15.257 -0.1125 -0.0446  0.1653
34361W        W77274   8.668  33.028  27.695  0.2497 -0.2718  0.0768
34362W        W77275  18.773  29.582   3.582  0.1262  0.2578  0.0111
34363W        W77276  32.926  25.047  26.528 -0.0633 -0.1102  0.3248
34364W        W77277   7.024   1.844  24.205 -0.0768  0.2736  0.1607
34365W        W77278   1.934  30.995  25.709  0.1514  0.2090 -0.2275
34366W        W77279   3.289  29.788  26.424  0.1802  0.1075  0.0796
34367W        W77280  28.728  26.025  17.334 -0.1578 -0.1002 -0.0574
34368W        W77281   6.818  24.258  25.926  0.2934  0.1632 -0.1676
34369W        W77282  11.204  30.374   4.228  0.0249 -0.0397 -0.1147
34370W        W77283  10.604  22.761   6.654  0.0175  0.1782  0.2608
34371W        W77284   7.025  32.019  20.675 -0.2139 -0.0839 -0.0631
34372W        W77285   6.404  21.437  20.372 -0.3685 -0.1491  0.2054
34373W        W77286  34.492  33.717  18.872 -0.4055 -0.0140 -0.1258
34374W        W77287   8.339  34.180  21.072  0.0633  0.1349 -0.1923
34375W        W77288   7.675  34.388  27.157 -0.4651 -0.3365  0.0067
34376W        W77289  24.359  19.492  23.695  0.0955  0.1528 -0.1143
34377W        W77290  30.029  28.252  25.387 -0.0436 -0.1535 -0.0575
34378W        W77291   8.607  15.020   0.445  0.1247  0.0630 -0.2904
34379W        W77292   5.285  20.167  19.016  0.0837 -0.0390 -0.1243
34380W        W77293   6.938  29.476  21.794 -0.0024  0.1067 -0.0634
34381W        W77294  30.630  32.181  28.097  0.0521 -0.1236  0.3569
34382W        W77295   4.204  18.506   4.443  0.0846 -0.1372 -0.1522
34383W        W77296  25.620  21.504  27.097  0.0824 -0.1679  0.1634
34384W        W77297  33.279  22.029  19.293  0.1524  0.1557  0.1519
34385W        W77298   0.013   0.070   1.980  0.0135 -0.2113 -0.0685
34386W        W77299  33.842  32.580   0.349  0.5762  0.0064 -0.1124
34387W        W77300  26.011  32.493  26.926 -0.2029  0.2156  0.1975
34388W        W77301   5.704  20.931  22.112  0.1389 -0.1474  0.0320
34389W        W77302   4.994  24.042  23.076 -0.2867  0.2959 -0.0016
34390W        W77303   8.080  22.387  19.675 -0.0099 -0.0787 -0.3267
34391W        W77304   5.102  33.633  17.596  0.1033 -0.1095 -0.2312
34392W        W77305  12.266  21.470  25.977  0.1058 -0.1912 -0.0497
34393W        W77306  31.503  33.148  24.886 -0.4082 -0.0863  0.0291
34394W        W77307   8.159  32.599  24.387 -0.1616  0.0139 -0.0331
34395W        W77308  33.920  32.024  25.636  0.2119 -0.1726 -0.1444
34396W        W77309  31.220   1.051  26.038 -0.0420  0.2331 -0.3380
34397W        W77310   0.933  26.256   4.847 -0.0536 -0.1319  0.1869
34398W        W77311   2.084  25.103   7.835 -0.0180 -0.2012 -0.2049
34399W        W77312   4.672  28.316  22.401  0.2992  0.0217 -0.0671
34400W        W77313  26.243  28.985   3.604 -0.2647  0.1406  0.2254
34401W        W77314  28.498   9.938  28.069 -0.1993  0.0896  0.0449
34402W        W77315  33.347  18.454  18.240  0.0362  0.1228  0.2325
34403W        W77316   4.126  30.215   1.376  0.1297 -0.0051 -0.2918
34404W        W77317   5.808  19.861   5.307 -0.0180 -0.0305  0.0839
34405W        W77318  10.360  29.642   9.954  0.0256 -0.1533  0.0107
34406W        W77319   1.113  32.504  25.151  0.2246 -0.1670  0.1947
34407W        W77320   7.742  28.074  26.682  0.1628 -0.0756 -0.1253
34408W        W77321  30.822   2.699  22.005 -0.1740 -0.4683 -0.1948
34409W        W77322  31.490  31.961   7.349  0.3643  0.1132 -0.0539
34410W        W77323   4.174  30.972   0.985 -0.0520  0.0772 -0.1832
34411W        W77324  14.905  14.693   0.945  0.0249 -0.1034 -0.2384
34412W        W77325   0.631  26.155  26.915  0.1427  0.0272 -0.3074
34413W        W77326  33.750  28.497   4.204 -0.0876 -0.0497 -0.1181
34414W        W77327   3.549  15.137  18.102  0.0892 -0.0970 -0.2127
34415W        W77328  19.528   0.290  18.166  0.1595 -0.1456  0.2014
34416W        W77329  30.292  18.336  26.682  0.1731 -0.0639  0.0472
34417W        W77330   4.969  25.568  27.877  0.1270  0.0689 -0.2744
34418W        W77331  17.275  24.741  25.128  0.3417  0.2762  0.0641
34419W        W77332   6.947  31.692  18.465 -0.1192  0.0562 -0.4369
34420W        W77333  31.892  31.454   4.797  0.0771  0.0633  0.0935
34421W        W77334   0.923  27.779  24.510  0.2308 -0.1616  0.1541
34422W        W77335   2.404  18.067   3.066  0.1484  0.1533  0.2735
34423W        W77336   0.623  32.243  25.596 -0.1276 -0.1569  0.0175
34424W        W77337  12.749   3.512  27.982  0.0950 -0.0056  0.2096
34425W        W77338   7.812   0.838  22.334 -0.2321 -0.1305  0.1545
34426W        W77339   8.105  24.055   1.060 -0.0376  0.1587 -0.2545
34427W        W77340  28.677   0.657  28.751 -0.0473 -0.0206 -0.0238
34428W        W77341  33.560   0.425   5.694 -0.0020 -0.0120  0.1580
34429W        W77342  18.784  30.878  26.151  0.2265  0.2754 -0.0641
34430W        W77343  31.894  19.674  24.312 -0.2219 -0.1687  0.1662
34431W        W77344   1.622  33.212  26.533  0.0367 -0.0851 -0.0808
34432W        W77345  12.239  24.842   1.452  0.1853 -0.3259 -0.3427
34433W        W77346   6.236   1.359   9.034 -0.0237 -0.3677 -0.1025
34434W        W77347  28.389  31.479  28.136 -0.1553 -0.2173  0.5580
34435W        W77348   8.933   6.659   5.573  0.0470  0.2163  0.0918
34436W        W77349   2.298   4.622   7.387  0.1767 -0.0190 -0.0191
34437W        W77350   0.955  23.250   3.571  0.1148  0.0395 -0.0614
34438W        W77351   9.219  26.807  25.190  0.1828 -0.0750  0.0897
34439W        W77352   8.970  34.050   4.809 -0.1353 -0.1079  0.3510
34440W        W77353   5.092  28.768  24.978  0.1587 -0.0224 -0.1802
34441W        W77354  14.581   2.052  29.134  0.0827 -0.0060 -0.2723
34442W        W77355   6.316  25.896   1.786  0.1802 -0.1829  0.1549
34443W        W77356   6.092  32.883  19.536 -0.1545 -0.2193 -0.0113
34444W        W77357   3.803  25.995  20.564 -0.1304  0.0615  0.0601
34445W        W77358   0.828  24.388   1.144  0.0633 -0.2109  0.3529
34446W        W77359  33.332  23.861  28.140  0.2033 -0.0390 -0.1291
34447W        W77360   9.427  28.505  24.615  0.2252 -0.1850 -0.0876
34448W        W77361   7.781  17.479  29.020  0.0808 -0.1734 -0.2103
34449W        W77362  34.132   4.483   6.942 -0.0004 -0.1036  0.0369
34450W        W77363   5.822  18.255  28.816  0.0512 -0.1813 -0.4743
34451W        W77364  10.919  22.563  16.730 -0.0869  0.0262 -0.0916
34452W        W77365   3.335  28.001  27.622 -0.4427  0.3344 -0.0046
34453W        W77366   3.561   3.395  27.354  0.3518  0.2510 -0.2921
34454W        W77367  11.840  32.789  27.428 -0.0431 -0.2849 -0.0125
34455W        W77368   5.455  23.441  27.867 -0.2764  0.4056  0.0921
34456W        W77369  31.942  23.085   2.984 -0.0675  0.0147  0.1964
34457W        W77370   5.856  24.005   8.357  0.0015  0.1371 -0.2240
34458W        W77371  32.265   0.900  22.763 -0.3109 -0.1285 -0.1155
34459W        W77372   7.575  27.603  26.660  0.2020  0.4038 -0.0393
34460W        W77373  11.667   0.448   0.636 -0.0036 -0.1622  0.0922
34461W        W77374  33.160  29.020  17.064  0.0703 -0.0504  0.0565
34462W        W77375   3.365   0.613   4.432 -0.3379 -0.2546 -0.1843
34463W        W77376  29.444   7.654   0.725 -0.1245  0.1172 -0.0946
34464W        W77377   9.161  33.026   1.250 -0.4768 -0.3013 -0.0232
34465W        W77378  18.843  23.638  18.641 -0.0372 -0.1953  0.0772
34466W        W77379  11.201  26.871   7.175 -0.1519 -0.3559  0.2710
34467W        W77380  18.967   7.625   2.957  0.2394 -0.5009 -0.2745
34468W        W77381  15.579  33.110  17.241  0.2422 -0.1435 -0.1305
34469W        W77382  33.808  27.137  21.455  0.2602 -0.0825  0.0451
34470W        W77383  18.252  23.182   3.835  0.0532  0.1047 -0.2748
34471W        W77384  18.420  24.198  18.994  0.0349  0.1681  0.0855
34472W        W77385   8.223  29.490  26.383 -0.2623  0.3097  0.1595
34473W        W77386  17.912  29.361   0.840 -0.0234  0.2802  0.0006
34474W        W77387  30.307  30.543  23.491  0.0009  0.0176 -0.2889
34475W        W77388   9.074  30.682  28.819 -0.1670  0.5600 -0.1737
34476W        W77389  12.711  32.234   1.933  0.3181  0.2178 -0.2179
34477W        W77390  13.733  26.483  28.377 -0.0266  0.2339  0.0721
34478W        W77391   3.213  30.876  27.342  0.0208 -0.2302  0.0848
34479W        W77392   6.038  21.196  29.183  0.0840 -0.1524 -0.1737
34480W        W77393  31.718   3.930   4.110  0.1426  0.1044 -0.1146
34481W        W77394  13.536  28.100  27.534 -0.4339  0.1206 -0.1798
34482W        W77395   6.102  28.736  22.398 -0.1322 -0.3791  0.1687
34483W        W77396   3.514  31.567  27.777 -0.1612  0.1115 -0.1289
34484W        W77397   7.098   1.342   2.391  0.0942  0.2734 -0.3462
34485W        W77398   5.439  23.195  27.396 -0.1779 -0.0352  0.0035
34486W        W77399   6.060  29.085  20.786 -0.5735 -0.1160 -0.2011
34487W        W77400  17.668  29.255   3.460 -0.0729  0.0034  0.0711
34488W        W77401  14.736   0.557   2.243  0.0260  0.0885 -0.3679
34489W        W77402  14.605  28.761   1.146 -0.0148 -0.1730 -0.1803
34490W        W77403   0.188  30.960   8.404  0.0415 -0.0195  0.0093
34491W        W77404  32.000  29.658  29.206  0.0053  0.3642 -0.0763
34492W        W77405  34.180  23.191   3.636  0.0574  0.1942 -0.0165
34493W        W77406  16.872  29.681  27.984 -0.2764  0.1792  0.1673
34494W        W77407   6.380  26.739   8.577  0.0028  0.1624  0.6375
34495W        W77408   6.824  27.194  19.563 -0.2252 -0.2211 -0.2025
34496W        W77409   3.906  24.238   0.216  0.2559  0.0360 -0.0376
34497W        W77410  18.595   0.195   1.118 -0.3263  0.0432 -0.0738
34498W        W77411  23.346  19.459   3.496  0.0553  0.0937  0.0405
34499W        W77412  14.040  23.305   1.048 -0.0733  0.1791  0.1499
34500W        W77413   2.728   1.379  25.868 -0.2123 -0.2981 -0.2034
34501W        W77414   9.458  20.680  24.141 -0.1024  0.1158 -0.1544
34502W        W77415   1.635  25.556   0.681 -0.1637  0.1263  0.2544
34503W        W77416   9.100  20.608  27.843 -0.2456  0.1485 -0.2173
34504W        W77417   4.824  24.615  27.495  0.0417 -0.1293  0.0672
34505W        W77418  10.674  33.549  22.984  0.4294 -0.0583 -0.3023
34506W        W77419  31.742   0.226  15.564  0.1958 -0.0306 -0.0543
34507W        W77420   3.327   3.336   6.866 -0.2777 -0.1397 -0.0392
34508W        W77421  31.922  32.271  28.645 -0.0628 -0.1379  0.0719
34509W        W77422   5.134  16.475  18.448 -0.1568  0.2843 -0.0029
34510W        W77423   7.717  23.529   7.110  0.1407 -0.0677  0.2552
34511W        W77424  31.659  16.458  28.375 -0.0080  0.0093  0.0179
34512W        W77425   9.821   2.957   6.339 -0.1000  0.1199  0.0152
34513W        W77426  20.552  29.045  29.197  0.1471 -0.0232  0.1817
34514W        W77427  32.362   9.477   5.211 -0.2986  0.1704  0.3746
34515W        W77428   2.499  19.643  14.739 -0.2568  0.1094 -0.1681
34516W        W77429  27.793  33.367  27.419 -0.3025 -0.2584  0.1582
34517W        W77430   7.494  33.673   9.872  0.2104 -0.0581  0.0619
34518W        W77431   0.358  27.480   1.034  0.1814  0.1435  0.0126
34519W        W77432   4.064  28.353   5.641  0.1248 -0.1576  0.1178
34520W        W77433   4.809  23.790   9.581  0.0372 -0.1289  0.1763
34521W        W77434   6.601  16.780  27.455 -0.2739 -0.2038 -0.1718
34522W        W77435  11.244  19.954  21.673  0.1798  0.0323  0.0112
34523W        W77436   9.678  22.381  17.916  0.3415 -0.0185  0.1151
34524W        W77437   6.767  18.164  24.049  0.0055  0.3081 -0.2945
34525W        W77438  13.863  19.274   0.997  0.1042  0.0447  0.0279
34526W        W77439   6.760  29.579  29.530  0.0981  0.1138  0.0508
34527W        W77440  21.065  29.062  22.587 -0.1840 -0.0012  0.0828
34528W        W77441  11.501  23.626  14.987  0.0638  0.0749 -0.1899
34529W        W77442   2.556  23.001   2.080 -0.0398  0.0152 -0.2298
34530W        W77443   8.283  33.950  27.704  0.2007 -0.2499 -0.0557
34531W        W77444   2.537  24.669  20.414  0.0830  0.0322  0.0933
34532W        W77445  31.511  23.316   3.562 -0.1534 -0.0279 -0.1715
34533W        W77446  10.156  29.339  26.493 -0.2891  0.1917 -0.0068
34534W        W77447  34.438  10.439   2.180 -0.1609 -0.1908  0.1736
34535W        W77448   0.236   9.245  24.839  0.0743 -0.1313  0.2668
34536W        W77449   5.813  30.446  27.573  0.0804 -0.1442  0.1702
34537W        W77450   3.005  29.723  28.164 -0.0686  0.2976 -0.1238
34538W        W77451  14.961  25.309  26.449  0.1520  0.1954  0.0563
34539W        W77452  34.382  23.655  26.295 -0.1122 -0.1629  0.0575
34540W        W77453   6.238  27.107  17.385  0.0947  0.1431  0.2999
34541W        W77454   0.069  34.171   6.388 -0.0393 -0.2196 -0.0354
34542W        W77455  25.472  31.074   7.432 -0.1908  0.2363 -0.0309
34543W        W77456   0.276  20.832   0.584  0.1467 -0.2677  0.0813
34544W        W77457   4.029   5.942   8.613 -0.3735 -0.0651 -0.0123
34545W        W77458  33.064  11.206   7.737 -0.2570  0.2113 -0.0650
34546W        W77459  10.421  22.616  25.109  0.0716 -0.1058 -0.1610
34547W        W77460   5.707   0.346  21.527 -0.1586 -0.0537 -0.0047
34548W        W77461  31.666   1.678   2.102 -0.1243 -0.0101  0.1782
34549W        W77462  29.074  23.563  23.027 -0.2366  0.1820 -0.2016
34550W        W77463   8.266  30.767  25.849  0.0947  0.2149  0.2007
34551W        W77464  32.213  33.699  28.919 -0.1390  0.1369 -0.0364
34552W        W77465   6.627  33.261  21.738 -0.0789 -0.0294 -0.0860
34553W        W77466   1.382   7.164   0.882 -0.1512  0.0535 -0.0701
34554W        W77467   1.638  32.384  27.591 -0.0441  0.1200  0.2828
34555W        W77468   7.955  30.260  28.547 -0.0112  0.0472  0.0853
34556W        W77469   7.547  26.799   8.895 -0.2062  0.1582  0.2730
34557W        W77470   0.821  25.404   3.109  0.0761  0.2197  0.0181
34558W        W77471   2.849  20.385   9.041  0.2322  0.0955 -0.0477
34559W        W77472   7.900   1.598   8.748 -0.0944 -0.2692  0.0187
34560W        W77473   6.567   0.899  28.695 -0.0308 -0.1486  0.0371
34561W        W77474   6.750  20.719   8.012 -0.1518 -0.0024 -0.0295
34562W        W77475  10.278  29.762  28.211 -0.0216  0.2086  0.0542
34563W        W77476   4.519  33.649  28.509  0.3674  0.2517 -0.1221
34564W        W77477   5.812  12.224   0.097 -0.3933  0.1454 -0.1317
34565W        W77478   9.066  26.426  19.142 -0.0309 -0.0384  0.1817
34566W        W77479   2.564  26.559   5.858 -0.1574  0.2020  0.1018
34567W        W77480  32.517  32.594   6.018 -0.1013 -0.1267  0.2325
34568W        W77481   0.471  29.147   7.456  0.3007 -0.4251 -0.3369
34569W        W77482  11.393  29.049  19.464 -0.0843 -0.1366  0.1369
34570W        W77483   1.950  17.655  22.799  0.0262 -0.2447 -0.0316
34571W        W77484   8.790   0.231  20.274 -0.0989 -0.3028 -0.1257
34572W        W77485   5.628  22.928   1.010  0.0687 -0.2941  0.1245
34573W        W77486  10.039  29.947  22.030  0.2062  0.1322  0.0192
34574W        W77487   1.519  24.675  25.154  0.1910  0.0913 -0.1216
34575W        W77488   9.875  26.805  22.091 -0.4171 -0.0156 -0.1001
34576W        W77489   6.574  33.430   2.791 -0.1350 -0.2775 -0.3274
34577W        W77490   1.617  21.745  21.262  0.1476  0.2411  0.0415
34578W        W77491   3.217   0.410  20.667  0.4027  0.2324 -0.0080
34579W        W77492  11.021  32.786  27.119  0.1519 -0.1757  0.2720
34580W        W77493  30.916  33.522  17.510  0.0014 -0.3078 -0.1804
34581W        W77494   4.894   1.730   2.473 -0.0243  0.2096  0.0788
34582W        W77495  30.739  29.026   2.111  0.1225 -0.0896  0.3695
34583W        W77496   0.567  22.305  27.320 -0.1184 -0.1528 -0.0398
34584W        W77497   9.457  26.162   5.329  0.1115  0.1020 -0.0321
34585W        W77498   9.762  29.420   3.328 -0.1944 -0.0932 -0.1540
34586W        W77499  12.814  21.614  19.806  0.2368  0.0995 -0.2608
34587W        W77500  33.700   2.651  23.585  0.0655 -0.0496 -0.3057
34588W        W77501   4.162   5.908   7.498 -0.0193 -0.0641  0.0550
34589W        W77502  27.167  30.136  29.707  0.0080 -0.0408  0.2164
34590W        W77503  33.145  23.008  27.620  0.1202 -0.0065  0.1458
34591W        W77504   5.590   2.295   6.667  0.2667 -0.1136 -0.0972
34592W        W77505  33.089  19.695   4.483 -0.3146 -0.0732  0.1585
34593W        W77506   9.966  25.633  24.097  0.0555  0.1183  0.0440
34594W        W77507   0.384  29.210  22.277  0.3545 -0.0397 -0.0528
34595W        W77508  31.959  27.773   6.198  0.2029  0.1910  0.3621
34596W        W77509  10.830  17.740   1.966  0.0499  0.0098 -0.3550
34597W        W77510   7.509  25.282  28.840 -0.0401  0.1707  0.3075
34598W        W77511  32.333   2.142  25.706 -0.2264  0.0662  0.1206
34599W        W77512   6.203  17.885  18.169  0.2623  0.1240  0.0245
34600W        W77513  10.286  19.711  17.375  0.2093 -0.2743  0.0856
34601W        W77514   8.492   6.509   7.546 -0.2084  0.0204  0.0949
34602W        W77515  13.539  30.878   9.215  0.1365 -0.1678  0.4305
34603W        W77516  33.636  32.609  20.030 -0.1042  0.1836 -0.0376
34604W        W77517   6.551  26.498   0.097  0.1208  0.0978  0.1439
34605W        W77518   4.115  32.109  20.759  0.1772 -0.1983 -0.1790
34606W        W77519  10.226  19.138   2.428 -0.0130  0.0509 -0.0843
34607W        W77520   9.342  22.719  24.611  0.1470 -0.1617 -0.3469
34608W        W77521  18.408   0.269  27.917  0.3475  0.1379 -0.1700
34609W        W77522  19.204  22.116  21.466 -0.1197  0.1050 -0.0975
34610W        W77523  31.488  23.659   2.178  0.1075 -0.2699  0.1851
34611W        W77524   8.640  27.474  25.336  0.2983 -0.2128 -0.2204
34612W        W77525   2.298  27.399  19.715 -0.0253  0.1943 -0.2215
34613W        W77526   9.370  27.819   5.952 -0.2429 -0.2255 -0.0272
34614W        W77527   6.651  20.081  21.088 -0.1424  0.2066 -0.1094
34615W        W77528  10.468  22.651  23.362  0.1458  0.0917  0.3134
34616W        W77529   8.312  23.426   6.354 -0.2054 -0.0088  0.1717
34617W        W77530  28.553  33.794   6.995 -0.2408 -0.0010  0.1181
34618W        W77531   3.532  32.759   5.266  0.0684  0.4004  0.1664
34619W        W77532  30.943   3.430   9.618  0.0630  0.3411  0.1353
34620W        W77533   3.734  23.889  27.364  0.5167 -0.1318  0.0103
34621W        W77534   4.615   1.014   5.614 -0.0045  0.0072 -0.0054
34622W        W77535  33.439  24.389  28.326  0.0091 -0.0277  0.2765
34623W        W77536   2.336   0.706   0.515 -0.1267  0.1549 -0.0456
34624W        W77537  31.408   5.071  16.598 -0.0948  0.2151  0.1730
34625W        W77538   4.456  30.970   0.025  0.0224 -0.2080  0.2626
34626W        W77539  29.477   1.947  28.576  0.1622 -0.0607  0.0202
34627W        W77540   0.757  30.885   0.462  0.0896 -0.0020  0.2464
34628W        W77541   6.688  29.096  25.868  0.1291 -0.3010 -0.1941
34629W        W77542   7.435   2.535  12.746  0.2857 -0.1726  0.0302
34630W        W77543  23.689  26.536   0.505  0.1948 -0.0546 -0.2863
34631W        W77544   1.778  27.243  29.161  0.1573 -0.1189  0.1812
34632W        W77545  17.478   7.553  22.943  0.2333  0.3160 -0.0762
34633W        W77546   3.328  29.309  29.337  0.0944 -0.0855 -0.0731
34634W        W77547  33.409  16.192   0.420  0.0026  0.1257 -0.0176
34635W        W77548  15.772   0.577  25.114  0.4650 -0.3455  0.1899
34636W        W77549   2.099  30.054   0.647 -0.1130  0.0936  0.1069
34637W        W77550  10.918  28.524  22.570  0.4051 -0.1448 -0.1793
34638W        W77551  11.957  19.300  29.616  0.2318 -0.1732 -0.1280
34639W        W77552   4.721  25.082  27.631  0.1438  0.1959 -0.1719
34640W        W77553   4.337  27.364  26.083  0.1922  0.2369 -0.1206
34641W        W77554   2.618  24.354   2.534 -0.3986 -0.1296 -0.0189
34642W        W77555   5.113   2.874  23.684  0.3535  0.0842 -0.1209
34643W        W77556   8.012  16.571  25.299 -0.2621 -0.2549 -0.0059
34644W        W77557   1.713   3.049  20.092  0.0595  0.2498  0.0088
34645W        W77558  33.632  31.738   4.639 -0.1294  0.2655 -0.0888
34646W        W77559   8.734   0.095  11.227  0.3282  0.1220  0.0265
34647W        W77560   2.700  31.569  27.778  0.3279 -0.2772 -0.0071
34648W        W77561   9.411   3.157  28.696  0.2676 -0.3133  0.2351
34649W        W77562  11.023  29.479   4.434 -0.2225 -0.1036  0.1214
34650W        W77563   9.198  26.942  29.657  0.2872 -0.0168 -0.0247
34651W        W77564   6.000  30.404   3.061 -0.0248 -0.0335  0.1672
34652W        W77565  31.812   0.782  20.869 -0.1686 -0.0082  0.3799
34653W        W77566   5.675  32.008  22.296  0.1643  0.0245  0.0611
34654W        W77567  18.290  31.091   0.941 -0.0528 -0.4032 -0.1989
34655W        W77568   1.238   7.307   9.384 -0.0953 -0.0526  0.0146
34656W        W77569   5.135  30.384  29.082  0.0994 -0.3622  0.1448
34657W        W77570  32.781   1.181  27.634 -0.1493  0.0602 -0.2682
34658W        W77571  33.659  33.010  19.675  0.1522 -0.2409 -0.1696
34659W        W77572  30.967  23.405  29.103  0.5309 -0.1111  0.1392
34660W        W77573   9.289  32.193   8.056 -0.3402  0.0895 -0.1312
34661W        W77574  14.487  23.350  22.568 -0.1062 -0.0166  0.1676
34662W        W77575  32.387  33.635   2.689 -0.0726  0.0334 -0.1452
34663W        W77576  11.608  27.690  23.417  0.0860  0.0628  0.0764
34664W        W77577   9.707  26.640  25.100 -0.2110  0.2269  0.1121
34665W        W77578   8.719  32.922  27.161  0.2615 -0.1473 -0.1858
34666W        W77579   9.580   3.261  25.352  0.1081  0.1187  0.1358
34667W        W77580   2.189   0.423  25.823 -0.0419  0.3504  0.0560
34668W        W77581   0.064  30.794  28.592 -0.1317 -0.3330  0.0342
34669W        W77582  31.461   8.482   1.218 -0.2576 -0.2670 -0.1995
34670W        W77583  12.852  32.446  29.768  0.0841  0.2768 -0.0444
34671W        W77584   2.944  33.428  29.530 -0.1546 -0.0329  0.1390
34672W        W77585   4.889   0.353  28.292 -0.0588 -0.1462  0.2369
34673W        W77586  34.195  24.557  27.701 -0.1732 -0.0248  0.0038
34674W        W77587   3.491   3.002  27.051  0.1385 -0.0010 -0.0203
34675W        W77588  30.643  15.992  22.000 -0.0588 -0.0775 -0.2183
34676W        W77589  29.442   7.633  25.691  0.1257 -0.0015 -0.0051
34677W        W77590   9.042   1.228  21.917  0.1690  0.1880 -0.1349
34678W        W77591   5.323  34.244   2.742 -0.1354 -0.0936 -0.0338
34679W        W77592   0.088  24.579  25.084  0.2112 -0.1510 -0.3771
34680W        W77593   6.406  33.823   1.776 -0.1634 -0.1884 -0.0689
34681W        W77594  30.806  34.128  21.921  0.0126 -0.4865  0.0232
34682W        W77595   5.649  25.625  29.726 -0.0551  0.1187  0.1483
34683W        W77596   6.014  27.832   2.859 -0.0865 -0.2602 -0.0307
34684W        W77597  13.623  19.536  21.719 -0.0087 -0.0135  0.0718
34685W        W77598  33.573  33.073   6.364 -0.3368 -0.0609 -0.2264
34686W        W77599  32.239  26.930   6.327  0.2961 -0.0102  0.2411
34687W        W77600   9.802  34.068  26.320  0.2561 -0.2425  0.0124
34688W        W77601   6.012  22.098   1.829  0.0141 -0.1548 -0.0866
34689W        W77602  30.200  24.282  17.810 -0.0084 -0.2905 -0.0839
34690W        W77603  10.854   1.927   5.345 -0.0372  0.0534  0.0868
34691W        W77604  14.127  25.686   2.832  0.1880  0.1156 -0.0023
34692W        W77605   7.089  21.050  26.503  0.1644  0.0867 -0.1520
34693W        W77606   5.695   2.467  10.279  0.1731  0.1528  0.0452
34694W        W77607   0.530  14.334  23.398 -0.1556  0.0717 -0.0983
34695W        W77608  32.919  18.411   4.505 -0.1421  0.3029 -0.0857
34696W        W77609  32.018   0.068   2.547  0.0670  0.1738  0.1502
34697W        W77610   0.590  23.755   2.840  0.1080  0.2962  0.1483
34698W        W77611  12.432  27.354  22.162 -0.3173 -0.1747 -0.0663
34699W        W77612  11.101  27.725  24.630  0.1766 -0.1976  0.0205
34700W        W77613   8.163  28.052  27.092 -0.0334  0.2830 -0.1214
34701W        W77614   6.737  23.236  21.514  0.0681  0.2081  0.0767
34702W        W77615   1.631  31.104  20.981 -0.2139  0.2076  0.2059
34703W        W77616   8.596   0.523  28.325  0.2442 -0.2229  0.1549
34704W        W77617   1.226  25.031   1.073 -0.1747  0.0214  0.1318
34705W        W77618  32.105   0.722   3.855 -0.2482 -0.1944  0.0587
34706W        W77619  11.788  25.790  26.323 -0.2881  0.2121 -0.0555
34707W        W77620  30.470   1.523  28.782 -0.1016 -0.1087  0.2806
34708W        W77621   0.455   0.807   3.308 -0.2137 -0.0830  0.2879
34709W        W77622   2.639  24.321   7.424 -0.0988 -0.1590 -0.0249
34710W        W77623  17.392  19.214  24.100  0.2670 -0.1709 -0.1884
34711W        W77624   0.596   5.225  29.449 -0.0293  0.1105  0.2771
34712W        W77625   2.544  30.678  28.881  0.6024  0.1154  0.0189
34713W        W77626  11.931   5.180  24.118  0.0697 -0.0763 -0.2977
34714W        W77627   6.308  31.315  25.669 -0.2199  0.2160  0.0031
34715W        W77628   7.466  20.666  26.917 -0.2255  0.0470 -0.1771
34716W        W77629  13.767  34.318  11.558 -0.1038 -0.0576  0.3469
34717W        W77630   9.336  23.654  28.326 -0.1387 -0.1207  0.1221
34718W        W77631   9.649   2.176  26.244 -0.1043  0.0864  0.0402
34719W        W77632  13.271  27.727  28.387 -0.1100  0.1252 -0.0950
34720W        W77633   2.690  33.658  29.100 -0.1212  0.1016  0.4040
34721W        W77634   6.017  11.531   4.210  0.2028 -0.3225  0.0787
34722W        W77635  13.669  10.912  26.491 -0.2142  0.0169  0.1140
34723W        W77636   1.769  27.838   1.637 -0.0567  0.2475  0.1936
34724W        W77637  27.727  27.810   0.808 -0.2161 -0.1663  0.2098
34725W        W77638  15.519  22.481  26.864  0.2082 -0.0004 -0.2507
34726W        W77639  19.816  21.113  29.541  0.0526 -0.2272 -0.2166
34727W        W77640   1.393   2.367   2.743 -0.0995 -0.1609  0.0884
34728W        W77641  29.387  31.010   0.460  0.1115  0.0870  0.1616
34729W        W77642  13.985  31.640  11.279 -0.0066 -0.0578 -0.0783
34730W        W77643   4.071  23.956  24.391  0.1650  0.1456 -0.0581
34731W        W77644  11.718  24.037   9.352  0.0748 -0.0938 -0.0354
34732W        W77645   1.937  14.407  26.088  0.1579 -0.1385 -0.0497
34733W        W77646  14.569  23.539  26.904 -0.2842 -0.0587 -0.3151
34734W        W77647  11.574  19.774  23.935 -0.1790 -0.2112  0.1007
34735W        W77648   1.209  28.395  26.410  0.0449 -0.0605 -0.0892
34736W        W77649  17.050   1.330  17.615 -0.2016 -0.1656 -0.1540
34737W        W77650  30.954  17.354  26.970 -0.3614 -0.0475 -0.0128
34738W        W77651  26.903  22.927  29.646  0.0939 -0.0715 -0.2547
34739W        W77652  28.625  17.517  20.747  0.0292  0.0652  0.0688
34740W        W77653  16.739  32.897  24.530 -0.0703 -0.0802 -0.2372
34741W        W77654   9.962  23.836   7.502 -0.2145 -0.1399 -0.3313
34742W        W77655   6.544  34.020   2.248  0.0228  0.0146 -0.2885
34743W        W77656   7.426  24.937  27.607  0.1847  0.2318 -0.0613
34744W        W77657   9.256  13.783  23.164 -0.1192  0.0786  0.0019
34745W        W77658  11.503  21.441  29.098 -0.1061  0.3024  0.2145
34746W        W77659  11.699   4.550   1.249 -0.2280 -0.0476  0.0099
34747W        W77660  15.612  27.252  24.856 -0.0285  0.0328  0.1501
34748W        W77661   4.825  26.010  23.687 -0.4356  0.1468 -0.1625
34749W        W77662  31.059  29.960   1.016 -0.0998  0.0648 -0.0126
34750W        W77663   6.393  30.056  29.704 -0.1062  0.1876 -0.1080
34751W        W77664   1.087  21.606  15.386  0.1235 -0.1355  0.2404
34752W        W77665   5.500  20.911   1.275 -0.3093  0.0264  0.2738
34753W        W77666  31.301  28.227  25.848 -0.0188  0.0176  0.0322
34754W        W77667   4.248   2.935  11.542 -0.1218  0.2349 -0.1421
34755W        W77668   6.730  30.588  25.462  0.1842 -0.1724 -0.1884
34756W        W77669   7.326  25.010   2.268  0.0842  0.2863 -0.1088
34757W        W77670  27.208   3.561   1.191 -0.0510 -0.0383 -0.3335
34758W        W77671   7.124  24.645   1.192 -0.1633  0.3068  0.1577
34759W        W77672  32.901  22.402  26.817  0.0085 -0.5217 -0.4677
34760W        W77673  12.523  26.386  17.547  0.2389  0.1213 -0.0550
34761W        W77674   0.085  32.435   2.498 -0.0155  0.1195 -0.3278
34762W        W77675  11.987  17.924  25.715 -0.0582 -0.1229 -0.1110
34763W        W77676  29.230  18.530   0.284 -0.0487  0.0843  0.0182
34764W        W77677  27.592   0.547  10.761  0.3859 -0.0188 -0.1710
34765W        W77678   8.974   2.845   3.847  0.2908 -0.1619 -0.3758
34766W        W77679   3.089  19.567  16.895 -0.2464  0.0548 -0.0421
34767W        W77680   9.849  25.215   1.700 -0.0854 -0.0726 -0.0387
34768W        W77681   2.785  31.009  21.025 -0.3506 -0.0064 -0.3351
34769W        W77682  34.284  23.580  28.506  0.1012  0.2606 -0.1704
34770W        W77683  32.250  32.016   1.545 -0.0479  0.0139  0.3721
34771W        W77684   0.095  32.872  27.312  0.0139 -0.0588  0.3463
34772W        W77685   5.563  31.473   2.772  0.4327 -0.1107  0.3219
34773W        W77686   5.630   4.703  24.427  0.1032 -0.3867  0.0673
34774W        W77687  11.467   9.219  27.626  0.0100 -0.2398  0.1684
34775W        W77688  30.474   6.427  26.185 -0.0915  0.1930 -0.0425
34776W        W77689   5.392  27.788  24.891  0.0775 -0.1783 -0.0149
34777W        W77690   2.022   0.605  20.963 -0.3202  0.0462  0.3399
34778W        W77691   1.900  24.457   3.513 -0.1335 -0.2128  0.0010
34779W        W77692  12.650  21.357  27.335  0.0864 -0.1993  0.0453
34780W        W77693  28.116  33.011  23.988  0.3962  0.1033  0.1173
34781W        W77694   5.286  16.912  29.749 -0.2149  0.1892 -0.0522
34782W        W77695   1.249  28.836   6.936  0.0836  0.1979 -0.0169
34783W        W77696  15.694  32.263   9.840 -0.3409 -0.1677  0.2624
34784W        W77697   4.685  34.251   0.913  0.0903  0.1986 -0.0004
34785W        W77698   6.041  29.201  27.662  0.1421  0.1668 -0.1506
34786W        W77699   5.008  33.441  29.629 -0.1023  0.0920 -0.2063
34787W        W77700   5.363  28.511   4.309 -0.0800 -0.1021  0.0430
34788W        W77701   2.866  29.428  25.557 -0.2655 -0.0410  0.0588
34789W        W77702  34.002  18.967  21.367 -0.4580 -0.1345  0.0666
34790W        W77703  13.162  31.665  25.964  0.0252 -0.0955  0.1738
34791W        W77704   1.680  33.870  24.049 -0.1390 -0.0058 -0.0953
34792W        W77705   8.791  25.592   3.237 -0.0763 -0.1072 -0.0935
34793W        W77706   7.051  29.257   3.588 -0.0093 -0.1202 -0.1827
34794W        W77707   8.315   3.243  25.551  0.0138  0.3163 -0.1681
34795W        W77708   6.543   1.569  28.291 -0.3838 -0.0908 -0.2715
34796W        W77709   5.651  10.916  28.193 -0.1087 -0.0798 -0.3961
34797W        W77710  33.460  28.176   9.395  0.0461 -0.2180 -0.0122
34798W        W77711   2.912  25.775  27.161 -0.0885  0.1911  0.2717
34799W        W77712   5.216  26.246   6.048  0.1304  0.3126  0.1347
34800W        W77713  11.046   1.812  26.135 -0.3503  0.0649  0.0054
34801W        W77714   5.175  34.400   9.535 -0.0320 -0.0021 -0.0103
34802W        W77715   3.092  18.907  19.039  0.0946  0.1899 -0.2236
34803W        W77716  33.017  26.741   0.948  0.0452 -0.0512  0.0864
34804W        W77717  12.190  28.229  18.646 -0.1256  0.0494  0.0226
34805W        W77718   7.439  23.812  29.667  0.3921 -0.0674 -0.0133
34806W        W77719  16.289  32.286   2.081 -0.1551  0.3416 -0.1751
34807W        W77720   4.718  31.257  23.536  0.3025 -0.0648  0.1559
34808W        W77721   4.418  23.920   0.246  0.1062  0.0738 -0.1108
34809W        W77722  29.033  33.547   0.555 -0.0001 -0.0699  0.2876
34810W        W77723  11.087  21.278   1.107 -0.0303  0.1785 -0.0157
34811W        W77724  31.403   2.501  25.371  0.2167 -0.2835  0.0530
34812W        W77725   5.105  21.139  13.148 -0.1230  0.2673  0.3128
34813W        W77726   8.359  22.032  29.652 -0.0365  0.2579 -0.0416
34814W        W77727   9.019  33.565  29.175  0.0838 -0.3684 -0.2385
34815W        W77728   2.185   6.882   2.860  0.2889 -0.1830  0.2426
34816W        W77729   3.825  10.833  11.793 -0.1688  0.2848  0.1621
34817W        W77730  13.192   5.198   1.193  0.2508  0.0994  0.1480
34818W        W77731   3.769  25.603  20.232 -0.3415  0.3599 -0.2520
34819W        W77732  32.702   7.113  28.784  0.0351  0.0754 -0.3749
34820W        W77733   5.872  17.793   3.695  0.1228  0.1364 -0.1328
34821W        W77734   9.391  27.498  24.648 -0.2738 -0.1064 -0.3128
34822W        W77735  24.104   0.230   0.041  0.0565  0.0870 -0.3198
34823W        W77736   8.972  21.281   5.282  0.4582 -0.1986  0.0183
34824W        W77737  29.310   0.585   3.732  0.2340  0.1860 -0.2238
34825W        W77738   2.330   5.813  27.508 -0.0954  0.2011 -0.0855
34826W        W77739  34.419  33.919   5.419 -0.3212 -0.2872 -0.4085
34827W        W77740  11.036  32.938   9.044  0.0476 -0.3296  0.2357
34828W        W77741  30.880  18.643  28.908  0.0372  0.0079 -0.1821
34829W        W77742   7.096  17.890   5.145  0.1714  0.0055  0.0118
34830W        W77743   0.169  32.997  28.406  0.0551 -0.1837 -0.1520
34831W        W77744  10.366  31.965  23.212  0.0665  0.2903 -0.5843
34832W        W77745  20.500   3.900  29.415  0.0521  0.0476  0.2358
34833W        W77746  13.690  21.674  20.138 -0.1526  0.0479 -0.0751
34834W        W77747  31.582   4.388   7.898 -0.0859  0.1573  0.1381
34835W        W77748   9.469   4.402  18.396  0.2437 -0.2077  0.0265
34836W        W77749  32.031  18.754  29.100  0.1962  0.1661  0.0768
34837W        W77750  12.159  32.364  23.803 -0.3082  0.0498  0.1173
34838W        W77751   6.034  24.132   4.795 -0.5244  0.3621 -0.3816
34839W        W77752   9.011  32.664  28.668 -0.0361  0.0592 -0.1579
34840W        W77753  32.681  28.759  27.663 -0.2482 -0.4190  0.2439
34841W        W77754   4.506   5.282  28.808 -0.1194 -0.1552 -0.5294
34842W        W77755   4.882  30.841  29.538  0.4166  0.0491  0.0588
34843W        W77756   3.007  20.823   1.096  0.0825  0.1879 -0.1163
34844W        W77757   3.120  22.857   0.032 -0.0247  0.0395  0.2704
34845W        W77758  31.110  21.793  23.398  0.5080  0.0295  0.0504
34846W        W77759   0.021   0.371  26.238  0.1085  0.0248  0.3943
34847W        W77760   3.128   2.107   8.577 -0.1996  0.1853  0.2606
34848W        W77761  34.344  19.672   6.344  0.3150  0.1953  0.2053
34849W        W77762   4.597  24.269  29.759  0.1796  0.4851  0.0272
34850W        W77763  14.474  21.846  23.902 -0.2710  0.1444 -0.2017
34851W        W77764   8.339  19.646  22.655 -0.1828  0.2400 -0.1792
34852W        W77765   2.785   5.706   1.571 -0.0747 -0.2313 -0.0421
34853W        W77766  20.610  31.243  29.152 -0.0293 -0.0340 -0.1978
34854W        W77767  30.523  10.411   2.853 -0.0934  0.2465 -0.0159
34855W        W77768   6.881  26.349   2.158 -0.0474  0.4947 -0.0567
34856W        W77769   8.553  19.921   0.963 -0.2827 -0.2654 -0.1792
34857W        W77770   2.357  17.422   3.916  0.0594  0.0918 -0.1678
34858W        W77771   2.810  23.743  25.599  0.1523  0.1660 -0.2092
34859W        W77772  33.015   1.521   8.836 -0.3797 -0.0704  0.4922
34860W        W77773   3.964  21.069  25.636 -0.2402  0.0461 -0.0008
34861W        W77774  33.535  33.546   7.645  0.1985  0.2477 -0.0939
34862W        W77775   4.664  28.995  23.380  0.1242 -0.0644 -0.0524
34863W        W77776   9.026  32.941  25.987 -0.1558  0.0476  0.0733
34864W        W77777  28.023   1.204  18.552 -0.1212 -0.0785 -0.2355
34865W        W77778  29.469  29.092  18.238  0.0860 -0.1150 -0.1199
34866W        W77779   7.610  26.253  25.382  0.0062  0.0805  0.1121
34867W        W77780   6.019  24.033  18.523 -0.1466  0.0991 -0.0405
34868W        W77781   1.044  23.081  21.197 -0.1166  0.1211 -0.4633
34869W        W77782  12.261  26.273  26.173 -0.1109  0.2655  0.1271
34870W        W77783   6.480  32.071  29.148  0.1722  0.1313 -0.2972
34871W        W77784   7.945   1.859  25.104  0.0656 -0.2268 -0.0059
34872W        W77785   1.819  33.755  20.035  0.3087 -0.1923  0.0187
34873W        W77786   7.970  25.465  15.286  0.0460  0.1582  0.0871
34874W        W77787  13.451  32.825  23.392 -0.1533 -0.1809 -0.1762
34875W        W77788   4.390  15.256  24.964  0.4764 -0.1656 -0.0099
34876W        W77789  11.937  33.251  25.157 -0.0234  0.1550 -0.3280
34877W        W77790  31.837  31.847  26.751 -0.2956 -0.0778 -0.0174
34878W        W77791   1.164   1.046  23.434  0.1477 -0.0571  0.0221
34879W        W77792   0.198  22.333  26.374 -0.0630 -0.0775  0.0986
34880W        W77793   7.175   0.450  24.818  0.5255  0.0498  0.1033
34881W        W77794   2.876  28.170  27.934  0.2937  0.2219  0.0532
34882W        W77795  32.566  26.061  28.440 -0.0849  0.4155 -0.1064
34883W        W77796  11.054  28.077  22.244 -0.0955 -0.1361 -0.0562
34884W        W77797  34.117  23.069  22.320  0.0838 -0.0892  0.1179
34885W        W77798  12.687  23.669  22.312  0.2134  0.0847 -0.0240
34886W        W77799   3.822  30.015  15.045 -0.2342  0.2450 -0.0035
34887W        W77800  29.824  29.979  17.978  0.1452  0.0867  0.0503
34888W        W77801   3.690  31.983  19.336  0.0649 -0.1123 -0.0614
34889W        W77802   0.119  29.067  15.753 -0.0338 -0.1563 -0.2074
34890W        W77803   4.486  26.152  15.754  0.3710  0.2248  0.1684
34891W        W77804   1.781  29.576  16.231  0.0151 -0.1888 -0.1013
34892W        W77805  23.185   4.313  16.327 -0.1999 -0.1912  0.0130
34893W        W77806   3.302  33.596  22.133 -0.1912  0.1991 -0.0021
34894W        W77807   7.095  25.113  24.103  0.1473 -0.1307  0.2654
34895W        W77808  11.194  32.509  19.607  0.3921 -0.0055 -0.0510
34896W        W77809   3.660  23.368  17.633  0.0292  0.1516 -0.2494
34897W        W77810  11.718   0.348  19.156  0.1282  0.1424 -0.0564
34898W        W77811   8.967  23.358  27.195  0.0916 -0.0025 -0.2349
34899W        W77812  10.145  33.313  23.858 -0.1388 -0.2985 -0.1801
34900W        W77813   9.904   3.338  17.870 -0.0426 -0.3531  0.0440
34901W        W77814  10.002  24.348  14.781 -0.0323  0.2400 -0.1503
34902W        W77815   1.498  25.854  19.367 -0.5818  0.0508  0.1856
34903W        W77816  33.165  28.238  23.975 -0.0512 -0.2477 -0.0991
34904W        W77817  15.966  25.165  26.554  0.0522 -0.0086  0.6965
34905W        W77818   3.592  33.041  23.111 -0.1232  0.1369 -0.0784
34906W        W77819   8.782  33.618  17.122  0.2311 -0.1289  0.2089
34907W        W77820   2.312  28.774  21.144 -0.2764 -0.2541 -0.0117
34908W        W77821  28.634  26.434  14.030 -0.1256 -0.0735 -0.1282
34909W        W77822   1.597  27.449  22.601  0.1318 -0.3112 -0.1277
34910W        W77823   6.791   2.162  19.095 -0.2839 -0.1003 -0.1403
34911W        W77824   6.436  30.702  18.218  0.0086  0.1951  0.1457
34912W        W77825   0.854   0.336  21.635  0.1923 -0.4573 -0.1575
34913W        W77826   5.193  26.390  23.384 -0.3107 -0.2183  0.2492
34914W        W77827   3.093   6.380  22.806 -0.0627 -0.1007  0.1890
34915W        W77828   4.918  26.064  18.801 -0.0886 -0.0793 -0.3765
34916W        W77829  11.688   7.794  20.256  0.0679  0.3323  0.0002
34917W        W77830  25.463   7.798  20.627 -0.0877 -0.3245 -0.0791
34918W        W77831   8.337   3.290  17.818  0.1214  0.1831 -0.0437
34919W        W77832  33.328   1.651  24.838  0.0796  0.0549  0.1741
34920W        W77833  10.536  24.251  23.236  0.0029 -0.4077 -0.1301
34921W        W77834  13.262  24.924   3.839 -0.0245 -0.2337 -0.1816
34922W        W77835   7.302  28.088  19.426 -0.0261 -0.2159  0.0087
34923W        W77836   2.665  30.411  19.128 -0.0763 -0.0596 -0.0982
34924W        W77837   9.024  31.259  24.279 -0.0959 -0.2581  0.1642
34925W        W77838   5.008   9.454  20.784  0.0090 -0.0252  0.0476
34926W        W77839   6.648   0.024  22.604  0.0505  0.0680 -0.3111
34927W        W77840   9.585   0.397  19.373  0.1173 -0.1429 -0.2924
34928W        W77841  32.285   0.964  29.406 -0.3199  0.4553  0.0112
34929W        W77842   3.054   5.508  17.816  0.1382 -0.0336 -0.1792
34930W        W77843  27.839   2.009  23.835 -0.1857  0.3055 -0.2638
34931W        W77844   1.370   6.520  23.899 -0.2730  0.0292 -0.1325
34932W        W77845  13.317  33.202  20.048  0.0432  0.0660 -0.3619
34933W        W77846   9.026  27.568  16.184 -0.3330 -0.2386  0.0750
34934W        W77847   7.604  31.514  20.934  0.1525 -0.1905 -0.3011
34935W        W77848   5.440   3.708  17.784  0.1492  0.1449  0.1489
34936W        W77849  11.516  32.292  16.414  0.1733  0.0925 -0.2556
34937W        W77850  33.095  30.273  16.867 -0.3476 -0.2625  0.0709
34938W        W77851  33.047   5.556  19.456 -0.0207  0.3281 -0.2468
34939W        W77852   4.211   6.188  20.520  0.1004 -0.3322 -0.1960
34940W        W77853   2.780  23.697  15.678 -0.1903 -0.2638 -0.2444
34941W        W77854  13.201  25.726  19.339  0.2432 -0.1075  0.0784
34942W        W77855   7.199  32.174  16.842 -0.3035 -0.1055  0.0150
34943W        W77856   6.636  30.682  19.000  0.1103 -0.0616  0.3164
34944W        W77857   7.518  33.161  25.175 -0.0056 -0.0275  0.0829
34945W        W77858   3.935   5.784  18.387 -0.2066  0.1307  0.2309
34946W        W77859   7.667  34.447  18.169  0.2250 -0.0795  0.0554
34947W        W77860   8.827   0.968  19.427  0.2556 -0.0863  0.0444
34948W        W77861   4.644  28.596  22.948  0.1189  0.0083  0.3364
34949W        W77862  18.618  31.584  22.470  0.0247  0.0236 -0.0438
34950W        W77863  14.694  32.586  15.681 -0.3616 -0.3362 -0.0907
34951W        W77864   5.627  15.349  20.578  0.0864  0.6479  0.0438
34952W        W77865   4.992  29.883  15.728 -0.3193  0.1219  0.1068
34953W        W77866   4.188  24.298  16.404 -0.0408 -0.0378  0.0219
34954W        W77867  33.168  20.097  19.580 -0.0113  0.3533  0.3290
34955W        W77868   4.457   2.674  28.791  0.3144 -0.2474  0.2610
34956W        W77869   1.314   3.160  27.563  0.2088 -0.0379  0.0729
34957W        W77870   1.947  22.791  27.719  0.1567 -0.4758  0.3109
34958W        W77871   4.647  30.764  20.665  0.0097 -0.2404  0.0748
34959W        W77872  34.489  27.104  20.708  0.2821 -0.1386  0.2446
34960W        W77873   6.872  30.081  24.263 -0.1418 -0.1909  0.1246
34961W        W77874   2.392   1.132  28.654  0.1865  0.2439  0.0688
34962W        W77875  33.199   3.323  27.750 -0.1533  0.2005 -0.1048
34963W        W77876   7.339   8.401  19.435  0.2129 -0.0110 -0.0320
34964W        W77877   4.446  24.506  26.542 -0.1244 -0.0595  0.2939
34965W        W77878   2.448   6.222  17.851 -0.3537  0.3990  0.1265
34966W        W77879  11.437  31.524   7.140  0.0765 -0.1949 -0.3947
34967W        W77880   8.871   0.166  19.097 -0.1693 -0.0871 -0.1917
34968W        W77881   7.435  32.751  23.601 -0.0224  0.0629 -0.1191
34969W        W77882   6.077  28.374  15.228  0.2196  0.1934 -0.2121
34970W        W77883   4.239  34.026  16.816  0.1190 -0.2115  0.1739
34971W        W77884  10.137   0.761  19.537 -0.1318 -0.1047  0.0985
34972W        W77885   5.550  28.796  19.378  0.0814  0.0996 -0.0356
34973W        W77886   4.468  29.122  28.462 -0.0359  0.3221 -0.3303
34974W        W77887  25.499  31.573  22.094  0.0114  0.2817 -0.0911
34975W        W77888   2.069   1.131  20.875 -0.1279 -0.1931 -0.2314
34976W        W77889   8.510  27.895  17.836  0.0278 -0.1085 -0.0637
34977W        W77890   6.706  28.285  15.785  0.1805 -0.2440 -0.3817
34978W        W77891   5.544   6.438  20.891 -0.1327  0.1036 -0.1357
34979W        W77892  29.238  28.452  18.491 -0.2501  0.0014 -0.1297
34980W        W77893   1.592   0.677  20.588 -0.0030 -0.2542  0.1823
34981W        W77894   4.960  32.041  24.744 -0.2141 -0.0857  0.1455
34982W        W77895   3.573  25.297  19.877 -0.0826 -0.3897 -0.2456
34983W        W77896  13.458  22.117  21.124 -0.0925  0.0298 -0.1256
34984W        W77897   2.655  29.785  17.299 -0.2140  0.0551 -0.1896
34985W        W77898   7.890   0.331  20.852 -0.1197 -0.1134 -0.1135
34986W        W77899  32.214  31.550  20.087 -0.1484  0.1137  0.0772
34987W        W77900   9.917   7.328  18.315 -0.2814  0.1562 -0.0326
34988W        W77901   0.417  30.966  17.016  0.1375  0.0182  0.0090
34989W        W77902  32.480   2.728  23.374 -0.1591 -0.0331 -0.0125
34990W        W77903  12.483  30.088  16.744  0.0138 -0.4920 -0.1832
34991W        W77904   8.878  29.427  27.009  0.0172 -0.0641  0.1184
34992W        W77905  27.286  26.527  16.192 -0.0907 -0.1206 -0.1154
34993W        W77906   6.067  31.589  18.659 -0.1481 -0.1496  0.0103
34994W        W77907   6.557   5.233  19.723 -0.1043 -0.0586  0.0736
34995W        W77908   3.207   6.116  27.185  0.2172  0.1031  0.2311
34996W        W77909  33.394  34.403  25.778 -0.0703  0.1982 -0.0877
34997W        W77910   5.225  10.589  22.820  0.0656  0.0139 -0.2657
34998W        W77911   9.746   4.938  28.164 -0.1261  0.1805  0.0786
34999W        W77912  10.469  30.141  16.742 -0.3357  0.0433  0.2462
35000W        W77913  29.786   0.115  18.600 -0.0665 -0.0781 -0.2795
35001W        W77914  12.593  24.508  16.036  0.1856 -0.3472 -0.0037
35002W        W77915  15.367  34.205  22.437 -0.1586  0.1709 -0.1713
35003W        W77916  10.076  33.489  18.237  0.0112  0.1823  0.0590
35004W        W77917  11.877  31.126  16.479 -0.2666  0.1276  0.0448
35005W        W77918   0.525  28.361  17.384 -0.0775 -0.1273  0.1004
35006W        W77919  27.857  10.119  14.794 -0.2593 -0.1018 -0.1586
35007W        W77920  16.729  33.913  22.035  0.0342  0.1055 -0.1098
35008W        W77921   1.734  25.423  18.280  0.1376  0.0802 -0.4093
35009W        W77922   4.313  31.028  28.343  0.1027  0.1754 -0.1055
35010W        W77923   2.115  31.332  20.115  0.4477  0.2395  0.0718
35011W        W77924   3.969  30.118  15.812 -0.1529  0.3173  0.3132
35012W        W77925  13.600  31.416  16.836  0.0140  0.1327 -0.0400
35013W        W77926   3.630  26.416  14.575  0.2073 -0.0889  0.0204
35014W        W77927  28.837  32.981  21.916 -0.0547  0.1388  0.1267
35015W        W77928   6.975   2.966  20.150 -0.2807 -0.2214  0.2618
35016W        W77929  20.475  30.751  20.867  0.1736 -0.4155 -0.0868
35017W        W77930   7.086  33.590  24.311 -0.0668 -0.2501 -0.2165
35018W        W77931   0.198   3.504   0.835 -0.0151 -0.1603 -0.0501
35019W        W77932  12.083   9.029  22.682 -0.0497  0.1148 -0.0497
35020W        W77933   0.269   2.482  22.196 -0.2276 -0.2170 -0.1317
35021W        W77934  34.047  28.403  17.340  0.0300  0.0375  0.1848
35022W        W77935   5.573  24.396  14.030 -0.3777 -0.0264 -0.2493
35023W        W77936   3.035  32.311  18.443 -0.0123 -0.3238  0.2461
35024W        W77937   4.045  25.544  17.506 -0.3636 -0.1602 -0.2089
35025W        W77938  11.550  26.656  19.561 -0.0900  0.2297  0.4177
35026W        W77939   7.810  34.349  24.999  0.3202  0.1221 -0.0203
35027W        W77940   9.441  24.880  23.988  0.0166 -0.0274 -0.2190
35028W        W77941  10.367  24.253  16.872  0.1345  0.0032 -0.1145
35029W        W77942   7.989  30.650  20.284  0.2397  0.1981 -0.0657
35030W        W77943  33.649   2.281  17.267 -0.0690 -0.1863 -0.1034
35031W        W77944  10.915  27.964  27.797 -0.0394  0.1669 -0.2016
35032W        W77945   9.558  30.813  24.760  0.1965  0.0591 -0.1711
35033W        W77946  18.417  25.218  17.893 -0.0020 -0.1787  0.2014
35034W        W77947   4.290  31.831  18.769  0.4734 -0.1516 -0.1901
35035W        W77948   5.634  19.221   4.085 -0.2505  0.0858  0.2009
35036W        W77949  11.389  25.116  18.729  0.1148  0.2323  0.0934
35037W        W77950   0.952  32.643  23.320  0.0495  0.2474  0.0697
35038W        W77951   1.805  20.232  23.898  0.0488  0.0477  0.1807
35039W        W77952  11.122  29.587  23.471 -0.0922  0.1613 -0.4661
35040W        W77953   0.610   8.939  26.086  0.2038  0.0992  0.2245
35041W        W77954   1.607   3.516  21.068 -0.2563  0.1829  0.0283
35042W        W77955  16.144  33.181  21.688 -0.0635 -0.5289  0.0103
35043W        W77956  13.497  25.556  16.322 -0.3526  0.3736  0.1452
35044W        W77957   3.791  28.347  17.712 -0.2894 -0.0147 -0.0440
35045W        W77958   3.750  22.937  16.330 -0.1552  0.1612 -0.1640
35046W        W77959  15.698  23.264  24.327 -0.4310  0.1155  0.1798
35047W        W77960   2.772  30.908  22.355 -0.4203  0.0213  0.1711
35048W        W77961   0.063  27.637  18.264 -0.1322  0.0141  0.1309
35049W        W77962  13.126  30.038   1.526  0.1202 -0.0735 -0.2949
35050W        W77963  21.699   5.530  22.769  0.0977  0.3293 -0.1595
35051W        W77964   4.703   4.620  23.164 -0.0760  0.0972  0.1007
35052W        W77965   2.100  29.101  26.140  0.4049 -0.0967  0.2718
35053W        W77966  14.710   4.065  17.503 -0.0791 -0.4248 -0.0039
35054W        W77967  33.600   3.112  19.317  0.1624  0.4554  0.1173
35055W        W77968  32.530  24.361  24.005  0.2350  0.0274 -0.0648
35056W        W77969  31.227  32.402  16.030  0.2347 -0.0437  0.1879
35057W        W77970   2.626  26.380  25.064  0.2138 -0.2989  0.0028
35058W        W77971   3.706   6.161  18.151  0.1982  0.0614 -0.0375
35059W        W77972   9.331  27.283  19.062 -0.1942 -0.1101  0.0234
35060W        W77973   1.219  30.760   1.081  0.1500 -0.0556  0.0068
35061W        W77974   8.427  20.008  18.439 -0.5054  0.2913 -0.0199
35062W        W77975   6.292  25.207  18.940  0.0016  0.1346  0.2676
35063W        W77976   5.695  32.090  16.310  0.4610 -0.1570 -0.0029
35064W        W77977   9.079  33.411  18.145 -0.0084 -0.1587 -0.1249
35065W        W77978   8.982   7.255  21.776  0.3222 -0.1028  0.1341
35066W        W77979  11.878   2.203  17.657  0.0539 -0.4137 -0.4427
35067W        W77980   9.725   3.495  22.881 -0.0418  0.0820 -0.0365
35068W        W77981  22.712   2.841  16.362  0.4656  0.2893  0.2538
35069W        W77982   2.422  30.305  26.623  0.1530  0.1797  0.1036
35070W        W77983  27.740  28.686  25.402  0.1364  0.1829  0.1966
35071W        W77984  32.617  31.304  22.493  0.0919 -0.0380 -0.2732
35072W        W77985   9.444   0.951  19.487 -0.0433 -0.1683  0.1108
35073W        W77986  31.009   5.653  20.678 -0.1416 -0.1702  0.1277
35074W        W77987  34.156   9.675  17.463  0.0294 -0.3548 -0.0809
35075W        W77988   0.347  32.026  19.461  0.1035 -0.0528  0.2867
35076W        W77989  34.179  25.234  21.835  0.4281  0.4228 -0.0319
35077W        W77990  16.913   1.015  20.267 -0.0467 -0.3459 -0.1060
35078W        W77991  11.101  32.921  21.362 -0.6627  0.0491  0.0999
35079W        W77992   0.087  22.237  18.950  0.1244  0.1554  0.2068
35080W        W77993  34.435  21.879  18.554  0.0104 -0.0260  0.0459
35081W        W77994  33.485  11.759   1.915 -0.1434  0.0629  0.3502
35082W        W77995  33.051   3.222  25.586 -0.1598 -0.0047  0.2398
35083W        W77996   7.350  25.051  24.584  0.0809 -0.0355 -0.2142
35084W        W77997   4.401  30.702  15.977  0.3236 -0.2757  0.1013
35085W        W77998  32.741  15.881  24.859  0.1667  0.2317 -0.3096
35086W        W77999  13.256   1.563  16.923  0.1857 -0.2134 -0.2276
35087W        W78000   4.711  25.576  22.935  0.0544  0.1493 -0.4272
35088W        W78001  14.583  30.404   0.164  0.2580  0.2751  0.0192
35089W        W78002  12.884  19.950  22.072  0.1358  0.1579 -0.2278
35090W        W78003  15.396   3.445  18.506 -0.0419 -0.0473 -0.1834
35091W        W78004   6.374   1.919  18.405  0.1588  0.0648  0.0683
35092W        W78005   4.995  22.170  27.700 -0.0187  0.0251 -0.0873
35093W        W78006   0.108   1.681  19.197  0.1543  0.1040  0.0899
35094W        W78007  30.539  24.988  18.391 -0.0190 -0.1965 -0.0830
35095W        W78008   9.357  26.119  24.128 -0.1245  0.2738  0.0210
35096W        W78009   6.766  32.111  17.127 -0.1990  0.3394 -0.2722
35097W        W78010  24.720  23.362  22.742 -0.2283 -0.1186  0.1400
35098W        W78011   1.527   4.021   2.282  0.0944 -0.1448  0.1027
35099W        W78012   9.592  32.170  18.904  0.3813 -0.0676 -0.0424
35100W        W78013   3.200   0.940  25.180  0.4713  0.2511 -0.2526
35101W        W78014   2.767   6.876   3.332  0.0832  0.1359 -0.0609
35102W        W78015   0.854  30.381  24.641 -0.1004 -0.0120 -0.0840
35103W        W78016   6.729  34.020  22.436 -0.1107 -0.0908 -0.0833
35104W        W78017  28.531   6.715   0.213 -0.2324  0.3572  0.4278
35105W        W78018   5.795   1.602  23.468 -0.0192  0.1689  0.2501
35106W        W78019   1.704   0.728  19.841 -0.1397  0.3400 -0.1322
35107W        W78020   4.753  24.717  22.311 -0.0908 -0.1125 -0.3385
35108W        W78021  27.698  28.148  22.715  0.0456  0.0586  0.0309
35109W        W78022   5.289   1.053  23.867 -0.0137 -0.2633 -0.1906
35110W        W78023   7.732  24.264  26.286  0.2149 -0.0111  0.0602
35111W        W78024   3.943   2.529  19.511 -0.1210 -0.5225 -0.1500
35112W        W78025   1.696  29.768  26.133  0.1549 -0.1992  0.1770
35113W        W78026   2.762   2.372  17.841  0.1642  0.3386 -0.1976
35114W        W78027   1.249  32.158  17.443  0.5249 -0.1009  0.0195
35115W        W78028  29.000  24.772   2.748  0.1167 -0.1226 -0.0361
35116W        W78029   7.715  27.824  21.526 -0.2982  0.3437  0.0636
35117W        W78030   8.132   4.725  17.439 -0.3866  0.0477  0.0271
35118W        W78031  15.982   3.868  21.562 -0.2884  0.4133 -0.2342
35119W        W78032   2.426  23.748  24.779  0.1834  0.0360 -0.0783
35120W        W78033  10.951  30.548  20.499 -0.1652 -0.1291  0.0327
35121W        W78034   4.929   8.474  25.849  0.1216 -0.1995 -0.1655
35122W        W78035  27.244  32.707  25.001  0.0093  0.2509 -0.2468
35123W        W78036  10.990  15.252  16.350 -0.0798  0.3511 -0.1654
35124W        W78037   2.191   2.260  19.712 -0.1872  0.2562  0.0027
35125W        W78038   4.734   6.501   1.041 -0.2652 -0.3279  0.0429
35126W        W78039   5.631   3.705  21.128  0.1248  0.1499 -0.1542
35127W        W78040   4.315  27.269  20.307 -0.1157  0.0669 -0.0288
35128W        W78041  25.516  29.149  15.316 -0.4538 -0.1392  0.2124
35129W        W78042   8.422  32.109  15.935 -0.1155 -0.0251 -0.1136
35130W        W78043   6.120  32.785  17.423  0.0287  0.0492 -0.2697
35131W        W78044  17.444  19.962  12.193 -0.1494 -0.0343 -0.0852
35132W        W78045   0.153  20.882  23.540 -0.4427  0.2571  0.3000
35133W        W78046  16.739  25.292  14.188  0.0376  0.1970  0.0431
35134W        W78047  11.597   1.995  27.719  0.2649  0.0783 -0.1790
35135W        W78048   9.541  20.043  23.193 -0.1577  0.1527  0.1235
35136W        W78049   6.480  33.986  26.577  0.2057 -0.2395  0.1672
35137W        W78050   5.694  27.037  23.953 -0.2350  0.1010  0.0430
35138W        W78051   1.702  25.729  18.966  0.1590 -0.2525  0.0769
35139W        W78052   7.598   3.699  19.187  0.1569 -0.3301 -0.0627
35140W        W78053   4.677   6.375  24.343 -0.0409  0.0508 -0.0279
35141W        W78054  33.676  31.247   2.794  0.2183  0.2921 -0.0520
35142W        W78055   2.533   4.217  26.183  0.0777  0.0779  0.2007
35143W        W78056   3.345  26.392  16.695  0.0032  0.3215 -0.1342
35144W        W78057  34.414  26.559  20.247 -0.1895  0.1807 -0.1354
35145W        W78058   8.160  25.930  19.119  0.0245  0.0087  0.0697
35146W        W78059  28.776   5.439  21.976 -0.1642 -0.2733 -0.1111
35147W        W78060  14.740   5.040  21.138  0.0326 -0.2054  0.1513
35148W        W78061   6.972  29.852  19.923 -0.0804  0.1480  0.0747
35149W        W78062  28.434  22.403  19.102 -0.0799  0.0242  0.1112
35150W        W78063   5.735  11.013  21.063 -0.1269 -0.1299  0.0754
35151W        W78064  32.254  33.057  22.108  0.0030  0.1953 -0.0838
35152W        W78065   3.620  32.954  24.819 -0.2211  0.2550 -0.2098
35153W        W78066  33.997   1.401  20.927  0.1882 -0.2789 -0.3484
35154W        W78067   5.868  30.455  15.760 -0.0629  0.2752 -0.0793
35155W        W78068  17.199  17.733  14.641  0.2043  0.0259  0.1462
35156W        W78069   0.157  31.619  21.892  0.0136  0.0239  0.2703
35157W        W78070  30.614  26.607  26.388 -0.0404  0.1051 -0.2307
35158W        W78071  11.496   2.401  25.127  0.2441  0.0388 -0.0963
35159W        W78072   4.482  30.283  20.909  0.1746 -0.1212  0.1651
35160W        W78073   3.994  24.665  17.484 -0.0151  0.1434  0.1756
35161W        W78074   8.090  24.539  27.674 -0.0657 -0.0830  0.0663
35162W        W78075   7.828  28.395  16.228 -0.1209  0.2944  0.0817
35163W        W78076   4.230  30.063  23.352  0.1932  0.3563  0.1454
35164W        W78077  29.373  28.639  27.498  0.2153 -0.1525  0.1043
35165W        W78078   1.787   1.206  29.193  0.2299  0.2210  0.0674
35166W        W78079  12.065  23.423  24.703  0.0251 -0.4656  0.1809
35167W        W78080   8.924  20.433  23.259  0.0907  0.0163  0.2082
35168W        W78081   9.144  34.269  18.569  0.0340  0.0814 -0.0380
35169W        W78082   5.812  25.477  21.623  0.1028  0.0428  0.0558
35170W        W78083   1.016  31.791  27.609 -0.0186 -0.3221  0.1341
35171W        W78084  12.345  34.433  16.977 -0.2137 -0.0234 -0.1572
35172W        W78085  10.799  31.170  23.347 -0.1794  0.0946  0.3028
35173W        W78086  15.245  34.075  25.701  0.0370  0.1486  0.2345
35174W        W78087   2.243  33.753  23.994 -0.1450  0.1424  0.1094
35175W        W78088  29.641  24.403  17.820 -0.1547 -0.0973  0.2604
35176W        W78089   7.069   5.802  21.312 -0.1103 -0.0997  0.1871
35177W        W78090  14.052  34.325  26.345 -0.0433  0.2633  0.0803
35178W        W78091  33.915  24.287  20.610  0.4354 -0.1299 -0.0943
35179W        W78092   0.393  28.657  26.980 -0.1926  0.4133  0.1386
35180W        W78093   2.051   8.666  19.482 -0.1398  0.1079 -0.1666
35181W        W78094  31.960   9.133  27.850  0.2663  0.1467 -0.2437
35182W        W78095   5.151  32.147  28.868  0.0741  0.0380 -0.1782
35183W        W78096   0.608   5.998  27.674 -0.0885 -0.0814  0.3033
35184W        W78097   8.319  30.586  28.653  0.2139  0.1605  0.0534
35185W        W78098  10.112  20.541  20.284  0.0395  0.2409  0.0794
35186W        W78099   9.751   5.049  19.500 -0.2424 -0.1319  0.0678
35187W        W78100  12.442  28.511   0.144  0.2151  0.0967  0.1099
35188W        W78101   7.256  22.753  20.651  0.2444 -0.2585  0.2187
35189W        W78102   6.813   2.800   9.096  0.0408 -0.3258  0.5550
35190W        W78103  16.496   4.942  18.479 -0.0571 -0.0938 -0.0219
35191W        W78104   6.298  30.448  26.236 -0.0569 -0.0344 -0.2806
35192W        W78105  18.429   2.819  16.129  0.0923  0.2361  0.2043
35193W        W78106  30.239  31.242  15.875  0.1496 -0.2496  0.1122
35194W        W78107  29.608  30.256  26.545 -0.1990  0.0843  0.1753
35195W        W78108   0.570  25.510  27.196 -0.0331 -0.0476 -0.0809
35196W        W78109  29.760  31.211  21.347 -0.3347  0.0122  0.1512
35197W        W78110   8.620   3.057  24.226 -0.3405  0.1415 -0.2560
35198W        W78111  33.807  23.424  26.323  0.3218  0.2559 -0.1644
35199W        W78112  34.457  33.274   5.325 -0.0406  0.3169 -0.0372
35200W        W78113   3.917  23.788  26.650  0.1710  0.1833 -0.1304
35201W        W78114   8.566  25.554   0.827  0.0418  0.1470 -0.0426
35202W        W78115   4.366  14.761  25.054  0.0551  0.0072 -0.1825
35203W        W78116  13.237  33.757  21.546 -0.2441  0.2031 -0.2109
35204W        W78117  13.797  12.886  13.526 -0.2050  0.2052  0.0692
35205W        W78118   1.575  27.400   5.147  0.0064  0.4558 -0.2814
35206W        W78119  30.106  28.266  17.292 -0.2327  0.3351 -0.1553
35207W        W78120  10.429  28.660  26.834 -0.1041  0.2735  0.0617
35208W        W78121   1.092  31.872  24.435  0.1163 -0.2519  0.5262
35209W        W78122   2.543   2.977  22.203 -0.0031 -0.1395  0.0627
35210W        W78123   3.446   1.118  16.682  0.1669  0.0472 -0.2063
35211W        W78124   7.468   2.244  21.504  0.0207  0.0489  0.2637
35212W        W78125   5.700   3.440  26.266  0.0683  0.2227 -0.0138
35213W        W78126  13.497  27.513  19.920 -0.2257  0.0733  0.1025
35214W        W78127  16.383   3.428  18.920  0.1895 -0.0486  0.1016
35215W        W78128   4.636   5.085  22.271  0.2002 -0.0519 -0.0035
35216W        W78129   4.808   0.245  25.686 -0.0349  0.0198 -0.1009
35217W        W78130  31.939  19.730  16.041  0.0650  0.0664 -0.0901
35218W        W78131  32.427  31.823  20.526  0.4502 -0.1189 -0.1269
35219W        W78132   2.079  22.666  15.560  0.1418 -0.1908  0.2309
35220W        W78133   9.317   0.671  26.591 -0.0705 -0.0569  0.0134
35221W        W78134   3.128   0.659  18.868  0.0368 -0.1806 -0.0900
35222W        W78135   6.442   0.980  22.383  0.1235  0.0780  0.2757
35223W        W78136   4.755  28.729  16.610  0.0573 -0.2483  0.1981
35224W        W78137  10.059  27.100  19.256  0.0761  0.0808  0.1064
35225W        W78138   9.755  32.299  22.436  0.0871  0.1225 -0.1738
35226W        W78139  29.765   8.330  20.843 -0.1148 -0.2447  0.0188
35227W        W78140  34.351   3.104  28.032 -0.3802  0.1757 -0.0061
35228W        W78141  10.295  26.651  17.674 -0.3180 -0.0007  0.0584
35229W        W78142  33.142  32.348  15.105 -0.1552  0.1451  0.1100
35230W        W78143   4.165  26.443  23.168 -0.0935 -0.0875 -0.1874
35231W        W78144  21.179   0.033  21.867 -0.3871 -0.0285 -0.1509
35232W        W78145  10.381   4.187  18.802  0.1963  0.0119  0.0267
35233W        W78146  30.140  16.363  23.903  0.1500  0.0567 -0.1140
35234W        W78147   7.989   0.313  22.251  0.2257 -0.4109  0.3954
35235W        W78148   0.833   2.202  25.090 -0.0604  0.0323 -0.0243
35236W        W78149  19.337  21.278  19.703 -0.0752  0.2879  0.0003
35237W        W78150  32.795  27.559  16.309 -0.0163 -0.0885  0.1925
35238W        W78151   8.674   5.188  22.109  0.0592  0.2081  0.0194
35239W        W78152   5.209  33.080  19.722  0.0606 -0.0334 -0.0892
35240W        W78153  22.601  32.905  21.603 -0.4425 -0.3440 -0.0886
35241W        W78154   0.644  12.150  19.486  0.0074  0.2150  0.1711
35242W        W78155   6.925   0.617   0.157  0.1278  0.0271  0.0479
35243W        W78156   1.306   0.177  16.252  0.0983 -0.2292 -0.1729
35244W        W78157   5.123   1.789  19.629  0.0326  0.1245  0.1582
35245W        W78158  34.002  28.217  18.004  0.0604 -0.4709 -0.0294
35246W        W78159  14.072   7.430  22.722 -0.0220 -0.1226  0.4342
35247W        W78160   0.533   6.986  18.568 -0.1210  0.1564 -0.0466
35248W        W78161  33.322   0.463  25.649  0.2820 -0.1316  0.1081
35249W        W78162   6.173  24.575  21.900 -0.0881 -0.3090  0.3138
35250W        W78163   0.268  30.377  20.170  0.0783  0.0920  0.1401
35251W        W78164  10.773   1.886  19.721  0.1216  0.0042  0.0175
35252W        W78165   1.460   0.957  26.095 -0.1830  0.1422 -0.2632
35253W        W78166   4.658  29.601  26.710 -0.1471  0.2552 -0.1282
35254W        W78167  23.400  23.488  15.834  0.0317 -0.0363  0.0624
35255W        W78168   2.018  11.978  22.874 -0.0175  0.1413 -0.2252
35256W        W78169  15.521   6.347  16.154 -0.0816  0.0543 -0.2055
35257W        W78170   8.904  16.881  22.686 -0.3128  0.2658  0.1205
35258W        W78171   3.839  26.722  25.229 -0.1468 -0.0506 -0.1773
35259W        W78172  11.752  33.607  28.015 -0.0214 -0.2091 -0.0796
35260W        W78173   3.594  28.303  26.710  0.0433 -0.0149 -0.1665
35261W        W78174  13.220   3.285   1.865  0.0494 -0.1481 -0.0854
35262W        W78175   3.569   2.594  27.753  0.1458 -0.2228  0.1748
35263W        W78176   3.783   3.184  21.569 -0.2309 -0.1421  0.2810
35264W        W78177   9.247  29.192  23.317  0.0010  0.2733 -0.0956
35265W        W78178  29.480   1.411  16.211 -0.0505  0.1475  0.0628
35266W        W78179   5.146  26.597  28.200 -0.2084 -0.0206 -0.0969
35267W        W78180  31.953   3.091  17.540  0.2891  0.0553 -0.0886
35268W        W78181   0.620   7.290  18.121 -0.0835 -0.0160  0.0795
35269W        W78182   1.303  26.621  29.412 -0.0313  0.1992 -0.0888
35270W        W78183   1.549  34.039  23.595 -0.0160 -0.1459 -0.0186
35271W        W78184   3.617  29.058  16.493  0.0420 -0.0081  0.0127
35272W        W78185  11.130   2.285   1.854  0.2795  0.2473  0.1410
35273W        W78186  12.683  19.556  26.902  0.1551 -0.0850  0.1825
35274W        W78187   7.787   8.481  23.617  0.3895 -0.1173  0.0879
35275W        W78188   0.477  28.952  26.526 -0.2082  0.1018  0.0519
35276W        W78189   5.325  28.222  28.354 -0.1082 -0.2623 -0.0992
35277W        W78190  32.927  12.556  26.824 -0.1332  0.0363  0.1801
35278W        W78191  34.336  22.633  17.158  0.0893  0.2847  0.2044
35279W        W78192  15.731   9.083  22.664 -0.1239 -0.1037  0.0256
35280W        W78193   1.416  34.203  18.729 -0.4359  0.1666 -0.0535
35281W        W78194   2.392  24.647  22.132 -0.1258  0.1812 -0.3557
35282W        W78195   3.837  34.276  17.520  0.1690 -0.0362  0.3161
35283W        W78196  10.337  31.773  18.560 -0.2127  0.1949 -0.0222
35284W        W78197   6.989   7.314  19.197 -0.0992 -0.2042 -0.2137
35285W        W78198  30.237  12.090  19.980  0.0058 -0.1551  0.1173
35286W        W78199   1.417   1.237  28.837 -0.0262 -0.1641  0.0892
35287W        W78200  10.531   5.711  20.256 -0.0941  0.1311  0.2137
35288W        W78201  11.382   5.009   1.090  0.0148  0.1129 -0.1038
35289W        W78202   1.965   1.507  25.329  0.1911 -0.3173  0.3251
35290W        W78203   1.100  28.660  22.332 -0.0094  0.1494 -0.1610
35291W        W78204   7.781   0.729  24.299  0.0194  0.0382  0.1349
35292W        W78205   6.002  34.024  24.150 -0.1136 -0.2369  0.1730
35293W        W78206  33.080  15.218   6.703  0.0115  0.1834 -0.1060
35294W        W78207   8.307   7.590  22.250 -0.0526 -0.0888  0.1880
35295W        W78208  13.078  24.639  16.151 -0.1916  0.1396  0.0614
35296W        W78209  15.211   5.471  18.789 -0.1003 -0.1420 -0.0018
35297W        W78210  18.224   1.489  19.511  0.2748 -0.1383  0.0944
35298W        W78211   1.873   1.306  22.357 -0.0611 -0.1689 -0.0088
35299W        W78212  14.287  24.389  18.941  0.0356  0.3200 -0.1220
35300W        W78213   4.145  33.122   0.738 -0.1419 -0.1648 -0.3584
35301W        W78214   4.354  25.562  14.946  0.2243 -0.2997 -0.2474
35302W        W78215  31.801   4.148   3.413 -0.2687 -0.2226 -0.0491
35303W        W78216   1.057  22.475  15.984 -0.2337 -0.0192 -0.0708
35304W        W78217  31.769  33.446  26.985  0.0186  0.0143 -0.0695
35305W        W78218  14.087   0.926  26.404 -0.0314  0.2863  0.0548
35306W        W78219   0.250  30.703  26.685  0.1943  0.1642  0.0066
35307W        W78220  30.584  30.089  25.989  0.0506 -0.0919 -0.1595
35308W        W78221  10.417  25.966  26.121  0.0587 -0.2351 -0.1366
35309W        W78222  30.984   6.855   6.190 -0.1775  0.1597 -0.0731
35310W        W78223   5.429   1.610  19.212  0.0503 -0.2139  0.1230
35311W        W78224   5.864  27.235  19.436  0.0896 -0.0610  0.0592
35312W        W78225  23.862  34.305  20.203  0.0024  0.1090 -0.2023
35313W        W78226   4.066  25.737  23.664  0.0712 -0.2787 -0.1096
35314W        W78227  32.280  30.509   5.042  0.0360 -0.0664 -0.1078
35315W        W78228  14.970  33.381  18.690 -0.1183 -0.0254 -0.0396
35316W        W78229  13.307  33.436  28.108 -0.1490 -0.0205  0.4767
35317W        W78230  16.104  27.759  23.554  0.1092  0.3340 -0.1202
35318W        W78231   0.789  33.073   4.967 -0.1869  0.0003 -0.1944
35319W        W78232  32.193  28.677  15.594 -0.0814 -0.1855 -0.3014
35320W        W78233   2.171  29.515  15.248  0.0080  0.3441  0.0110
35321W        W78234   5.104  30.578  23.074 -0.0472 -0.1223  0.0939
35322W        W78235  12.963  24.371  23.338  0.1371  0.1486  0.2923
35323W        W78236   2.704  33.045  25.903 -0.4961 -0.0870  0.0334
35324W        W78237   7.569   0.072   0.425 -0.2487  0.2137  0.1305
35325W        W78238   8.522  27.970   3.084  0.3375  0.0285 -0.0815
35326W        W78239  34.256   6.830   2.826  0.1060  0.2039 -0.1205
35327W        W78240   4.968   3.226  19.670  0.2829  0.0755  0.0730
35328W        W78241   8.191   8.761  10.996  0.1696 -0.1330 -0.0410
35329W        W78242   6.523  29.757   5.528 -0.0638 -0.0363 -0.0612
35330W        W78243  12.570  31.376  25.804  0.2523  0.0869  0.2661
35331W        W78244  32.788  24.337  23.174 -0.2359 -0.0507 -0.0157
35332W        W78245  32.164  33.146  19.270 -0.3236 -0.0236  0.5294
35333W        W78246   8.387  25.600  26.488 -0.0283 -0.0431 -0.0251
35334W        W78247   6.190  24.717   0.206  0.4002  0.0077 -0.1192
35335W        W78248  33.947  29.703  21.789 -0.0655 -0.1068 -0.1768
35336W        W78249   3.626   4.293  29.462  0.4452 -0.0788 -0.0292
35337W        W78250   2.934  31.540   2.494 -0.0708  0.1131  0.1878
35338W        W78251  33.100   0.333   6.488  0.1141  0.2065  0.0356
35339W        W78252   2.647   5.349  29.296  0.0257  0.2113 -0.0523
35340W        W78253   1.797  27.969  29.120  0.0017  0.0319 -0.2383
35341W        W78254   4.399  23.520  26.554  0.0518 -0.3369  0.3330
35342W        W78255  26.392  16.596  22.316  0.0062 -0.3502  0.0210
35343W        W78256   9.700  33.161  20.328  0.1081  0.0441  0.3720
35344W        W78257  32.677   3.797  16.718  0.2464  0.0734  0.5170
35345W        W78258  32.132  25.742  26.726 -0.0686  0.2109 -0.1214
35346W        W78259  17.403  34.070  25.076 -0.0541  0.1504  0.0277
35347W        W78260  14.797   4.682  16.342 -0.4336 -0.0629 -0.1055
35348W        W78261   1.541  27.602  19.915  0.0127  0.1902  0.1413
35349W        W78262   8.663  27.466  19.800 -0.0636 -0.2900 -0.1917
35350W        W78263   3.527  23.724  23.808 -0.1774  0.0527  0.0386
35351W        W78264   3.127  31.562  28.566  0.0855  0.0183  0.0988
35352W        W78265  28.342  32.074  25.224  0.0858  0.4940 -0.1083
35353W        W78266  31.909  26.783  19.648 -0.0811 -0.0627  0.0544
35354W        W78267   7.226  25.265  26.821  0.3755  0.1643 -0.2810
35355W        W78268   1.409   2.538  20.926 -0.2065 -0.0271  0.2094
35356W        W78269  13.424  31.171  17.656 -0.0998 -0.0762  0.1986
35357W        W78270  14.401   1.672  24.685  0.2693  0.4577 -0.1193
35358W        W78271  28.284  24.750  29.124  0.1939 -0.1948 -0.1949
35359W        W78272   8.391  25.447   0.096 -0.2018 -0.0103 -0.1007
35360W        W78273   6.728  33.719  22.002 -0.1714  0.2072 -0.1037
35361W        W78274  15.392  31.688  26.709  0.1249  0.2055 -0.1614
35362W        W78275   4.963   1.394  19.335  0.0868  0.2328  0.1890
35363W        W78276   3.615   3.018  17.658  0.1848 -0.3866 -0.1545
35364W        W78277   1.158  32.252  22.297  0.1026 -0.0858 -0.0087
35365W        W78278  16.163   3.895  19.284 -0.2665 -0.0811 -0.1211
35366W        W78279   8.849  25.684  24.675 -0.0597 -0.4984 -0.2671
35367W        W78280   1.249   3.621   4.122  0.0851  0.0352 -0.0777
35368W        W78281   3.146  34.413  23.775 -0.0647 -0.1806  0.1676
35369W        W78282   7.336  28.523  19.944 -0.2538 -0.0239  0.0006
35370W        W78283  33.673   2.575  16.693 -0.2719  0.1053 -0.1583
35371W        W78284   8.611   2.454  22.417 -0.1162  0.1651  0.1649
35372W        W78285  14.823   0.766  20.920  0.1265  0.0517  0.0767
35373W        W78286  12.269  30.638   7.432 -0.1711 -0.0947  0.3717
35374W        W78287  13.416   2.849   1.136  0.0028 -0.1107  0.1007
35375W        W78288  20.353   2.203  23.293  0.0192 -0.1260 -0.2336
35376W        W78289   9.374  14.353  18.173  0.0256 -0.1582  0.1182
35377W        W78290  31.642   3.765   0.401  0.2203 -0.0117 -0.2137
35378W        W78291   1.365  28.306  28.213  0.0281 -0.0477  0.2052
35379W        W78292   5.924  27.359  19.911 -0.1849 -0.1896  0.1097
35380W        W78293   6.313  29.816  23.276  0.0375  0.1213 -0.2216
35381W        W78294   3.171   2.880  25.428  0.0382  0.1060 -0.0890
35382W        W78295   6.677  19.973  20.247  0.0265  0.1710  0.0070
35383W        W78296   5.042  27.981  28.898  0.0701  0.0692 -0.2360
35384W        W78297   3.847   1.670  20.439 -0.1513  0.0985 -0.1483
35385W        W78298   3.454   2.059  20.581  0.0284 -0.1804 -0.1127
35386W        W78299  12.326   3.047  16.448  0.3331  0.0675 -0.1802
35387W        W78300  33.602  29.733   1.397  0.1081  0.1819  0.0660
35388W        W78301   9.451   0.199   7.922  0.2913 -0.0228  0.0551
35389W        W78302   1.285   0.154   0.761  0.0219  0.0928  0.0364
35390W        W78303  31.670  32.966  27.933 -0.1660  0.4129 -0.0969
35391W        W78304   8.727  33.645  23.206 -0.2592  0.1974  0.0930
35392W        W78305  11.734  27.766  20.563 -0.0864  0.1664  0.3902
35393W        W78306  10.202  19.263   1.920 -0.0813 -0.3603 -0.1934
35394W        W78307  28.338  29.879   4.809 -0.2517 -0.0705  0.3932
35395W        W78308  14.874  30.654  22.097  0.0393 -0.0410  0.2140
35396W        W78309   9.917  34.330  18.618 -0.1091  0.0027 -0.2423
35397W        W78310  16.052  20.090  15.074  0.2946  0.1655 -0.1082
35398W        W78311   2.278  30.795   3.491 -0.2276 -0.1624  0.0521
35399W        W78312  10.249  22.724   0.432  0.1953  0.0340  0.0541
35400W        W78313   4.393  27.845  25.826  0.1953  0.1396  0.0400
35401W        W78314   1.663   1.751  23.109  0.0117 -0.1021  0.0539
35402W        W78315  32.659  21.381  20.487  0.1796 -0.0867  0.1044
35403W        W78316  14.890  32.522  18.529  0.0745  0.0144 -0.3996
35404W        W78317   0.829  29.359  22.533 -0.0151  0.2402 -0.0242
35405W        W78318  10.583  22.190  13.299  0.1368  0.4052 -0.3552
35406W        W78319  10.469   4.374  26.482  0.0902 -0.0651  0.2585
35407W        W78320   5.840  32.859  25.902  0.3631 -0.0515 -0.0405
35408W        W78321   5.539  29.710  23.947 -0.4122 -0.3156  0.3207
35409W        W78322  27.452  30.599  24.905  0.0947 -0.0029 -0.2136
35410W        W78323   0.873   5.573   1.806 -0.0620 -0.1201  0.1557
35411W        W78324  32.358   3.141   1.698 -0.4786  0.0707 -0.2894
35412W        W78325   1.334  34.277  17.507 -0.0177  0.0332  0.1292
35413W        W78326   0.883  31.253  18.756 -0.0049 -0.2929 -0.0353
35414W        W78327   9.090  32.810  27.596 -0.3446 -0.0148 -0.0543
35415W        W78328  33.328   5.650  22.394  0.0349  0.0394 -0.0442
35416W        W78329   2.750  25.544  23.985  0.1593 -0.1607  0.1955
35417W        W78330   6.945   7.170   0.909 -0.2304 -0.1479 -0.0234
35418W        W78331   1.310  33.993  25.754 -0.1608 -0.1488 -0.0507
35419W        W78332   5.359  32.866  22.409 -0.0592 -0.2138  0.0204
35420W        W78333   3.230  21.823  20.147  0.2404  0.1818 -0.0159
35421W        W78334   1.392  32.606   2.650  0.1445  0.1056  0.0321
35422W        W78335   4.582  32.675  23.388  0.1314 -0.0106 -0.0534
35423W        W78336   0.052  30.837  24.893 -0.1693 -0.1215 -0.1856
35424W        W78337   6.286   6.654  18.104 -0.2288 -0.1118 -0.2402
35425W        W78338   9.424  20.181   0.809 -0.1246  0.1945  0.0587
35426W        W78339  33.702  33.704  20.545 -0.1266 -0.1567 -0.0924
35427W        W78340   5.014  28.558  23.879 -0.2167  0.2248  0.1239
35428W        W78341  30.881  33.291  26.862  0.1497  0.2641  0.1438
35429W        W78342   5.713  31.233  23.552 -0.2302  0.3758  0.1252
35430W        W78343  14.817  24.989  17.210  0.2544 -0.0008  0.0535
35431W        W78344   0.035  27.422  17.412 -0.1138  0.2777  0.0779
35432W        W78345  10.342  33.746  24.414  0.2485  0.1490 -0.2409
35433W        W78346  34.290  34.024  24.052 -0.2219 -0.0688 -0.3809
35434W        W78347  10.771  20.635   5.397  0.0139  0.0363 -0.1942
35435W        W78348   0.670   5.905   1.417 -0.0163  0.1531  0.2045
35436W        W78349  31.459  26.009  23.335  0.2488 -0.0904  0.2278
35437W        W78350   8.604  29.704  26.018 -0.1691 -0.1430  0.1462
35438W        W78351   5.525  28.129   1.553 -0.2979  0.2622  0.0578
35439W        W78352   3.304  27.082  24.251 -0.0339 -0.1678  0.0502
35440W        W78353  32.941   2.484  29.538 -0.2011  0.1889 -0.0826
35441W        W78354   8.010  31.031  26.252 -0.4058  0.0069 -0.0750
35442W        W78355  18.140   6.359  24.959  0.0080  0.0579  0.3589
35443W        W78356  32.905  34.165  24.216  0.1817 -0.3663 -0.0210
35444W        W78357  34.454  26.735   1.836  0.3042 -0.1386  0.3176
35445W        W78358   1.959  20.872  25.946  0.0356 -0.1254  0.0565
35446W        W78359  14.860  33.981   4.253  0.1519 -0.1895  0.1267
35447W        W78360  33.359   2.667  26.752 -0.1994 -0.0165 -0.0114
35448W        W78361   5.845  28.003  22.453 -0.0503  0.1471  0.0504
35449W        W78362  11.034  28.710   2.774  0.2460  0.1411  0.1396
35450W        W78363   7.234   8.133   1.216  0.2574  0.0049  0.0213
35451W        W78364  32.344   3.592  26.129 -0.1087  0.0431  0.3368
35452W        W78365  32.301  33.874   3.170  0.3537  0.1471  0.0254
35453W        W78366   6.862  18.186   3.698  0.1305 -0.0026  0.2437
35454W        W78367   3.360  29.520  22.002 -0.2456 -0.0212 -0.2386
35455W        W78368  23.012  17.945  20.724 -0.0076  0.2322 -0.3769
35456W        W78369   6.769   1.304   2.015 -0.2597 -0.2019  0.0745
35457W        W78370  31.929  31.633  18.559  0.2963  0.0315 -0.0150
35458W        W78371  14.285  28.177  19.041 -0.0234  0.2351  0.1225
35459W        W78372   4.139   1.305  28.570 -0.1170  0.0881  0.1160
35460W        W78373  31.303  31.164  24.200  0.1536 -0.1585  0.1782
35461W        W78374   2.816  28.689  28.693  0.0027 -0.2359 -0.0586
35462W        W78375   1.383   4.623  18.909  0.0145  0.5055 -0.1901
35463W        W78376   7.779  12.373  25.252 -0.1514  0.2540  0.2623
35464W        W78377   2.772  31.101  27.319 -0.0923  0.1512  0.1063
35465W        W78378   1.891  22.902  23.801 -0.0922  0.2590  0.2097
35466W        W78379  10.109  22.827   5.641 -0.0568  0.0571  0.1704
35467W        W78380   5.583  31.298  24.868 -0.2331  0.3878 -0.0667
35468W        W78381   9.144  27.576  25.619  0.0468  0.1152  0.0251
35469W        W78382   8.220  22.488  29.386  0.0056  0.1958  0.0412
35470W        W78383  33.491  24.293   0.905  0.1795  0.2200  0.4846
35471W        W78384   3.036  32.490  15.655 -0.0237  0.3490  0.1987
35472W        W78385   8.756  30.975  23.513 -0.3336 -0.1530  0.0507
35473W        W78386  30.338  29.199  28.351 -0.2381 -0.0363 -0.1480
35474W        W78387   6.776   2.311  25.427 -0.1217 -0.0439  0.1610
35475W        W78388  22.905  22.036   1.485 -0.3020 -0.1438 -0.0542
35476W        W78389   8.002  29.537   3.523  0.0698 -0.1402  0.0100
35477W        W78390  10.050  29.290  24.025 -0.1456  0.0327 -0.0954
35478W        W78391   5.171  33.549  27.567 -0.0021 -0.2507 -0.0044
35479W        W78392   4.263  21.658   0.586 -0.1551  0.1362 -0.0747
35480W        W78393  12.755  20.616   0.755  0.0820 -0.3469 -0.1504
35481W        W78394   1.419  24.640  20.229 -0.1705 -0.0768 -0.2115
35482W        W78395  34.135  28.349   6.186  0.1534  0.0776 -0.2925
35483W        W78396  33.040   6.173  26.755 -0.1008 -0.0379 -0.1745
35484W        W78397  20.041  34.437  20.244 -0.2422  0.0098  0.0440
35485W        W78398  34.276  30.850   4.809 -0.2065  0.0599 -0.3536
35486W        W78399  27.611  19.730  15.375  0.0445  0.1338 -0.0513
35487W        W78400  11.398  26.163   0.081  0.0357  0.0794  0.0946
35488W        W78401   3.471   7.715   6.306 -0.0074 -0.0765 -0.1900
35489W        W78402   1.471  29.338  25.841 -0.1370  0.1171  0.0680
35490W        W78403   1.525   2.762   3.641 -0.3752 -0.1351  0.0444
35491W        W78404   8.258  20.259   1.316  0.0602 -0.0580 -0.1913
35492W        W78405  30.793  22.515  29.274  0.1882  0.3227 -0.0467
35493W        W78406   1.908  31.719   3.138 -0.0725  0.0109  0.1380
35494W        W78407   2.185   8.767   2.987 -0.0877  0.1755  0.0944
35495W        W78408  13.068  30.079   9.855  0.1260  0.0776  0.0200
35496W        W78409  33.908   7.668  26.293 -0.1091 -0.1742 -0.2246
35497W        W78410  10.084   0.669  23.975 -0.4275  0.0755  0.1490
35498W        W78411  28.315  33.145  23.181  0.1040 -0.1865 -0.0882
35499W        W78412   1.076  26.727   0.163  0.0083 -0.1947 -0.1641
35500W        W78413   9.856   0.716  23.471 -0.2818  0.0828  0.4479
35501W        W78414   5.841  26.263  18.443 -0.2786 -0.0612  0.0965
35502W        W78415  34.267  20.749  24.295  0.0075 -0.2605  0.0557
35503W        W78416   4.310  27.696  28.617  0.0384 -0.1368 -0.0763
35504W        W78417   7.237  29.095  20.411 -0.2088  0.0767  0.1721
35505W        W78418   9.197  31.535  16.168  0.3718  0.0278 -0.0987
35506W        W78419   1.358   1.587   2.900  0.1263 -0.1173 -0.0967
35507W        W78420   8.538  30.650  29.601 -0.0545 -0.3822  0.0343
35508W        W78421  31.501  16.842  28.124 -0.0658 -0.1985 -0.0272
35509W        W78422   5.510  25.432  18.415 -0.0584  0.0395  0.1095
35510W        W78423  32.190   2.564  23.030 -0.2588  0.0373 -0.2447
35511W        W78424   7.872   2.698  26.496  0.1618 -0.0562 -0.0460
35512W        W78425   1.531  28.762   5.074  0.0108 -0.0836 -0.0163
35513W        W78426   2.453  28.996  19.064 -0.3192  0.5064  0.0565
35514W        W78427  28.695  32.536  27.011  0.2049  0.0879  0.1667
35515W        W78428   6.765  20.806  24.626  0.2549 -0.1702  0.1063
35516W        W78429  30.930  33.803  17.888 -0.3743  0.0591  0.0609
35517W        W78430   4.581  27.914  29.156  0.3939  0.0272  0.2534
35518W        W78431  32.039   2.031  27.513 -0.2220 -0.1094 -0.1504
35519W        W78432   5.509  28.629  24.646  0.0161  0.2421 -0.1645
35520W        W78433   0.394   2.490  21.387 -0.0091 -0.3033  0.1083
35521W        W78434  34.253  23.451  25.122 -0.1182 -0.0147 -0.0775
35522W        W78435   7.229   1.149  28.208 -0.1653  0.3769 -0.1785
35523W        W78436   2.181  23.492   3.881 -0.2794 -0.0913 -0.1558
35524W        W78437   8.927   6.797   2.666 -0.0508  0.0515 -0.0014
35525W        W78438   3.869  28.001  26.000  0.0766 -0.0976 -0.0311
35526W        W78439   3.202   1.708   1.975 -0.2889 -0.1388  0.0631
35527W        W78440  13.951  19.965  19.747 -0.2313  0.0595 -0.0989
35528W        W78441   5.429   8.829   0.200  0.1480  0.1219 -0.2317
35529W        W78442  31.426  28.139   4.093  0.0433  0.2694  0.3690
35530W        W78443  32.983   0.730  24.060 -0.0833 -0.2417  0.3051
35531W        W78444   8.496  33.929  26.590 -0.0654 -0.3180  0.0874
35532W        W78445   3.189   5.007  11.748 -0.0459 -0.1194  0.1234
35533W        W78446  27.693  29.061  26.454 -0.0497 -0.2034  0.0378
35534W        W78447  29.481  30.066  28.595 -0.1916  0.0688  0.0421
35535W        W78448   5.180   3.073  28.041 -0.1564 -0.0742  0.1929
35536W        W78449   1.347  32.887  27.599  0.1945  0.5788 -0.1546
35537W        W78450  15.954   0.521  27.476  0.1083 -0.0523 -0.2159
35538W        W78451  23.455   8.301   3.016 -0.0460  0.2088  0.4496
35539W        W78452  11.590  30.590  15.963  0.0838 -0.0673 -0.3198
35540W        W78453   3.331  27.922  26.446  0.0592 -0.2971  0.0607
35541W        W78454   0.853   1.974   2.367  0.0498 -0.1178  0.0432
35542W        W78455  16.185  25.309   0.978  0.0200  0.2344 -0.1188
35543W        W78456   0.004  30.724  10.990  0.0806 -0.0101 -0.0519
35544W        W78457  10.917   2.852   8.188 -0.3487  0.2578  0.2776
35545W        W78458   1.217  31.505   9.721 -0.1674 -0.0299  0.0092
35546W        W78459   5.788  30.101  23.683 -0.1949 -0.3194  0.0731
35547W        W78460  26.795  33.026   5.957 -0.1210  0.0382 -0.0983
35548W        W78461  32.894  28.288  18.985  0.2797 -0.0780 -0.3371
35549W        W78462   4.525  31.783  28.040  0.1164  0.2818 -0.0552
35550W        W78463  34.128  29.563  23.120  0.1235  0.1243 -0.1158
35551W        W78464  30.322  19.649   4.679 -0.0814  0.3559  0.0850
35552W        W78465   3.273  23.547  25.604 -0.0027  0.0165  0.3358
35553W        W78466   1.266  25.819   3.541  0.3102  0.1054 -0.1811
35554W        W78467   8.707  29.537   0.142 -0.0683 -0.0477  0.0794
35555W        W78468  32.172  27.254  26.842 -0.1095  0.0499  0.3654
35556W        W78469   3.035  17.268   9.357  0.1290  0.0104 -0.1531
35557W        W78470   1.012  22.510  27.180  0.2027 -0.0908 -0.2249
35558W        W78471  31.080  33.779   6.532  0.0795  0.0687 -0.1874
35559W        W78472   1.569  30.213  25.293  0.0287  0.1523 -0.0369
35560W        W78473  13.540   6.400  10.696 -0.0070  0.3768 -0.0008
35561W        W78474  30.252  27.065   1.344  0.0276  0.1443 -0.1145
35562W        W78475   3.798   0.828  20.053  0.0297 -0.0688 -0.0113
35563W        W78476   4.552  32.191  29.685  0.1721 -0.1300  0.1658
35564W        W78477   3.118  25.931  29.311  0.1985 -0.1663 -0.1677
35565W        W78478  13.778  32.465   4.444  0.4443  0.2423  0.0262
35566W        W78479   6.227  23.867  26.581  0.0709 -0.1972 -0.2541
35567W        W78480  16.890  21.479  19.517 -0.2520 -0.1120  0.0616
35568W        W78481  11.640  29.783  22.064 -0.0828  0.0061  0.1288
35569W        W78482   6.389   0.234   4.531 -0.1743  0.1600  0.3092
35570W        W78483   8.658   4.667   9.434 -0.2124 -0.2477 -0.0274
35571W        W78484  17.165  23.758  27.270 -0.0195  0.1273  0.1900
35572W        W78485   5.311   5.591  24.313  0.3200 -0.1234  0.0602
35573W        W78486  32.505   8.101   0.410 -0.0891 -0.4030  0.0558
35574W        W78487  15.047  31.314  18.253 -0.1579 -0.0240  0.1143
35575W        W78488  32.773  32.185  24.556  0.0564 -0.0340  0.2768
35576W        W78489  14.051   8.973   1.254 -0.0321  0.3054  0.3742
35577W        W78490   1.023  33.237  24.579 -0.1327  0.1526  0.2402
35578W        W78491  27.940   8.837   8.774  0.2581 -0.2228 -0.1082
35579W        W78492   4.683  29.018  26.861 -0.1379 -0.0039  0.3282
35580W        W78493  12.051  29.374   5.004 -0.0126  0.0747 -0.2779
35581W        W78494   1.573  33.125   1.492 -0.1457 -0.1018 -0.1035
35582W        W78495   9.710  21.085  14.833 -0.1836 -0.1102  0.0749
35583W        W78496   3.408  31.294  19.904  0.0854 -0.0819 -0.0834
35584W        W78497  17.040  31.653   1.688  0.0470  0.1677  0.2091
35585W        W78498  11.610   6.751  27.360  0.0057  0.2640  0.0271
35586W        W78499  10.246  27.176  17.655 -0.0554 -0.0807 -0.1170
35587W        W78500  34.041  32.480   2.420  0.2230 -0.0338 -0.0710
35588W        W78501  13.279  14.681  20.695 -0.3706  0.0767  0.0503
35589W        W78502   7.702  33.806  23.232 -0.2251 -0.3441  0.1518
35590W        W78503   3.160  29.193  15.152 -0.1942 -0.0658  0.1897
35591W        W78504  28.389  33.922  28.701 -0.3737 -0.0743 -0.1103
35592W        W78505   0.663   5.072   4.786  0.1424 -0.2137 -0.1198
35593W        W78506   4.265  31.369   3.230 -0.3146 -0.0162 -0.2405
35594W        W78507  30.176  32.665   2.671  0.1629 -0.1480  0.1524
35595W        W78508   0.044  34.047  26.656 -0.0890  0.2014  0.0627
35596W        W78509  27.626  30.125   3.507  0.1908  0.1245 -0.0237
35597W        W78510   3.312   0.613  29.561  0.0790  0.0811 -0.0744
35598W        W78511   1.681  26.731  21.129 -0.0854  0.3312 -0.2358
35599W        W78512  33.321  24.183  25.400  0.2058 -0.0491  0.1239
35600W        W78513   8.933  17.475  20.553 -0.0929  0.1949 -0.2031
35601W        W78514   9.918   0.797  21.984 -0.1556  0.0222 -0.0569
35602W        W78515  12.143   2.837  20.092 -0.0306 -0.3175 -0.0628
35603W        W78516   7.973   3.342  26.325  0.0909 -0.0730 -0.0940
35604W        W78517   4.506  21.777  22.401  0.3100  0.2878  0.0145
35605W        W78518   1.473  33.010  28.087 -0.0700  0.1667  0.1533
35606W        W78519   2.088  11.326  23.211  0.2346 -0.0152  0.1449
35607W        W78520  12.039   6.352   4.188 -0.3546 -0.0272  0.1812
35608W        W78521   0.186  25.581  10.181 -0.1459  0.2729  0.0118
35609W        W78522  26.163  29.251   8.965 -0.0580 -0.0762  0.1732
35610W        W78523   6.686   4.393  29.780  0.0782 -0.1960  0.0115
35611W        W78524   9.566  24.247  28.191  0.0207 -0.0960  0.1637
35612W        W78525   6.774  24.017  23.786  0.0163 -0.1078  0.1244
35613W        W78526   7.647  11.996  29.112 -0.4716 -0.0544 -0.1311
35614W        W78527   3.569  24.940  25.110  0.1328 -0.0510 -0.1049
35615W        W78528   0.132   1.510   9.787  0.0358 -0.0382 -0.1186
35616W        W78529   3.802   6.813  12.719 -0.0177 -0.1388  0.2186
35617W        W78530   3.217  33.099  27.426  0.1898  0.0473 -0.1374
35618W        W78531  29.555  31.461  27.027 -0.1284  0.1508 -0.1911
35619W        W78532   7.756  31.922  24.963 -0.0987 -0.0521  0.2729
35620W        W78533   4.101   4.392  29.212  0.0976 -0.0236 -0.1721
35621W        W78534   4.084  33.347  29.558 -0.0881 -0.0156  0.0257
35622W        W78535   3.758  29.582   0.157 -0.4418  0.0925  0.1411
35623W        W78536  33.728   2.155  19.591  0.0731 -0.2965  0.0263
35624W        W78537   5.369   1.870  21.896  0.0368 -0.0603  0.0465
35625W        W78538   4.135   9.358   3.497 -0.1973  0.2409  0.4824
35626W        W78539   4.186  29.780   0.407  0.4884 -0.2518  0.0588
35627W        W78540   7.283   0.828  12.711 -0.0226 -0.2056  0.0811
35628W        W78541   9.214  28.889   2.163 -0.0952 -0.0175 -0.0323
35629W        W78542  10.423  27.962   2.393  0.0303 -0.0302 -0.1626
35630W        W78543  31.272   0.660   1.372 -0.1748  0.0223 -0.0081
35631W        W78544   9.534  20.066   2.917  0.1215  0.1065  0.2351
35632W        W78545  29.617  27.784  25.466  0.4658  0.0113  0.0497
35633W        W78546  34.185   7.332  20.951  0.0283 -0.1357  0.0085
35634W        W78547  31.927   1.317  24.283 -0.0563  0.0474 -0.0051
35635W        W78548  32.507  30.628  26.199  0.0432  0.2412 -0.1813
35636W        W78549   3.804  34.290  22.358 -0.0508  0.1013 -0.1350
35637W        W78550  12.222   4.339   4.260 -0.1339 -0.0860  0.3116
35638W        W78551   2.532  17.733  29.709 -0.0609 -0.3135  0.1039
35639W        W78552   5.528   4.804  26.945  0.0648 -0.1419  0.0786
35640W        W78553   5.782   3.240  25.121  0.0319 -0.3104 -0.2316
35641W        W78554  23.190  26.423  20.006 -0.0653 -0.1989  0.1174
35642W        W78555   5.525   2.079   6.116 -0.0539 -0.0160 -0.0191
35643W        W78556  15.520  30.408  28.952  0.1558  0.0246  0.1539
35644W        W78557  11.986  30.382   9.072  0.0046 -0.1206  0.2205
35645W        W78558  32.382  32.906  29.541  0.0127 -0.2942  0.0533
35646W        W78559   3.278  34.041   7.790  0.1033  0.0212 -0.3439
35647W        W78560   6.208  19.751  22.984 -0.3072 -0.2284 -0.1196
35648W        W78561   5.639  28.769  20.569 -0.2581  0.0210  0.2126
35649W        W78562   3.002  29.028  20.342  0.0831  0.0298  0.1580
35650W        W78563  32.722   1.771   4.489  0.1128  0.2475 -0.0588
35651W        W78564  27.574  24.195  22.305 -0.0939  0.0184  0.2622
35652W        W78565  27.955  11.483   2.439 -0.2335  0.0968 -0.0545
35653W        W78566  31.977  23.852   2.381 -0.0804  0.1799  0.2671
35654W        W78567  27.830   0.047   0.680  0.0885  0.1786  0.0189
35655W        W78568   3.972   6.180  26.050  0.1569 -0.1351  0.2203
35656W        W78569   3.336   1.685   8.227  0.1075  0.1875  0.2536
35657W        W78570  11.140  27.320   9.938  0.1292 -0.1228  0.1486
35658W        W78571  12.175  31.342  25.464  0.3257 -0.3683 -0.1262
35659W        W78572   7.800  27.992   4.374  0.0179 -0.0124  0.3603
35660W        W78573   5.175  28.707  29.215  0.1415  0.0012 -0.0159
35661W        W78574   9.861  22.996  23.022  0.0698  0.1659  0.1835
35662W        W78575   2.158  24.116   8.983  0.0224 -0.0556  0.0744
35663W        W78576  12.166  31.483  21.205  0.2476  0.0157 -0.1931
35664W        W78577   7.775  24.931   4.442 -0.0303  0.4433  0.2773
35665W        W78578  17.319  27.546   4.187 -0.3019  0.1675 -0.2872
35666W        W78579  14.354  31.006  26.934 -0.2460 -0.0787 -0.4120
35667W        W78580  13.720   6.117   4.182 -0.1414 -0.0924 -0.1644
35668W        W78581  32.745  31.666  29.205 -0.1857 -0.0771 -0.0148
35669W        W78582  31.659   4.395   1.635 -0.3729  0.3309  0.0969
35670W        W78583   1.055  27.966  21.416 -0.1535 -0.1014  0.1886
35671W        W78584  19.645  31.958  28.177  0.1475  0.2369  0.0920
35672W        W78585   8.700   4.111   1.840 -0.0765  0.0107  0.2040
35673W        W78586   5.322   5.611  28.389  0.2609  0.0713 -0.4163
35674W        W78587  11.186   2.713  26.302 -0.0228  0.2509  0.1231
35675W        W78588   1.421  32.479  29.513  0.2410 -0.0017 -0.2907
35676W        W78589  25.428  10.083   6.327  0.0211  0.2800  0.0665
35677W        W78590  32.046  28.319   8.903 -0.0713  0.0806  0.4237
35678W        W78591   8.708  25.066   6.461 -0.1870  0.2898 -0.1157
35679W        W78592   7.211  29.527   0.043 -0.1869 -0.0709 -0.1733
35680W        W78593  30.194   1.883  27.960 -0.0188 -0.0265 -0.0990
35681W        W78594   4.073  32.426  29.410  0.0856 -0.2300  0.0146
35682W        W78595   7.425  34.238  27.945  0.1118  0.0837 -0.1926
35683W        W78596   4.692   3.031   2.697  0.0044 -0.1080 -0.1871
35684W        W78597  11.376   1.082  27.558 -0.1532  0.0998  0.4821
35685W        W78598   5.478  33.826  22.851  0.0673 -0.1019 -0.0951
35686W        W78599   3.245  26.977  28.700  0.0486 -0.2602  0.0255
35687W        W78600   2.194  25.023  20.339  0.2742 -0.1081  0.1754
35688W        W78601   4.147  18.614   3.129 -0.0625  0.4486  0.2694
35689W        W78602   2.776  28.905  24.074  0.1928 -0.0838  0.1745
35690W        W78603  33.016   9.310   5.864 -0.2513 -0.2550 -0.2697
35691W        W78604   1.862  21.268  17.335  0.0950 -0.0908 -0.1444
35692W        W78605   8.686  30.109   0.942  0.0877 -0.0010 -0.1554
35693W        W78606   6.209  29.425  17.958 -0.0724  0.0962  0.0375
35694W        W78607   5.769  29.467  25.598  0.2327 -0.1414 -0.3276
35695W        W78608   6.814  32.910  17.960  0.4825 -0.0399  0.2539
35696W        W78609   7.994  22.720   0.013  0.0921  0.0078 -0.0670
35697W        W78610  13.531  28.623  27.633 -0.0991 -0.2953 -0.1030
35698W        W78611  15.994   6.377   0.759 -0.2600  0.1408 -0.0902
35699W        W78612   9.027   8.489   1.697  0.2287 -0.4441  0.1549
35700W        W78613  15.055  26.838  22.052  0.0261 -0.1253 -0.3022
35701W        W78614  27.929  31.613  24.692  0.0062 -0.1362 -0.0335
35702W        W78615   2.433  30.110   6.394 -0.0091 -0.1254  0.3590
35703W        W78616   3.162  18.767  28.926  0.1699  0.0466  0.0497
35704W        W78617  10.788   0.002   3.024 -0.0361  0.3108  0.1595
35705W        W78618  11.511  26.909  11.169  0.1793  0.1909  0.2132
35706W        W78619   6.370  30.113  22.015 -0.1772 -0.2072 -0.0843
35707W        W78620   8.442  30.445   2.477  0.1039 -0.1699  0.0913
35708W        W78621  31.506  29.591   3.530  0.2295  0.1177  0.3697
35709W        W78622  32.764  13.400  19.113  0.1631 -0.2700 -0.1817
35710W        W78623   9.931   6.810  27.532 -0.0030  0.1363 -0.1467
35711W        W78624   3.348  31.569  22.728 -0.0961 -0.0318 -0.1345
35712W        W78625  31.068   8.390  26.923 -0.0857 -0.2877  0.4853
35713W        W78626   7.574  34.358   2.818  0.1067 -0.0471 -0.1881
35714W        W78627  29.033  28.884   2.658  0.0127  0.2054  0.0300
35715W        W78628   4.920  27.500  27.999 -0.0730 -0.1130  0.0640
35716W        W78629   6.981  33.784  28.273 -0.0689  0.3333 -0.2394
35717W        W78630  32.840  29.291  14.409 -0.0709 -0.2057 -0.5216
35718W        W78631  31.816  29.245   3.437  0.2947 -0.0167 -0.3779
35719W        W78632   7.043   2.927  24.918 -0.2326  0.0019  0.2153
35720W        W78633  33.574  32.167   1.743  0.5689 -0.2020 -0.0207
35721W        W78634  31.096  28.280  18.401  0.1184 -0.0126 -0.0931
35722W        W78635   9.257  18.355   0.072 -0.2041 -0.0515  0.1414
35723W        W78636   7.022   2.201   5.648  0.3161  0.0742  0.1257
35724W        W78637   5.368  27.969   0.087  0.0651  0.0640  0.1162
35725W        W78638  10.479  29.756  22.236  0.2246  0.0753 -0.1009
35726W        W78639  29.824   8.376  23.369 -0.1161  0.1822  0.1618
35727W        W78640   2.165  32.100  27.555 -0.0731  0.0999  0.0096
35728W        W78641   8.805   6.303  23.500 -0.2614  0.1700  0.2737
35729W        W78642  30.055   0.952  25.281 -0.2453  0.0697 -0.0020
35730W        W78643  29.899   7.453  25.585 -0.1698 -0.0596 -0.2368
35731W        W78644   1.606  28.537  23.461 -0.0998 -0.2590  0.1475
35732W        W78645  12.173   8.225   2.816 -0.1917 -0.0851  0.0918
35733W        W78646   8.194  22.168  20.124  0.1583 -0.0062  0.2623
35734W        W78647   0.378  19.228   1.023  0.2295  0.1568 -0.0858
35735W        W78648  29.779   6.292   6.392 -0.1058 -0.1680  0.2232
35736W        W78649  30.965   2.089  27.439  0.1036 -0.2295 -0.1092
35737W        W78650  32.484  34.094  29.159 -0.0406  0.0420  0.3225
35738W        W78651   4.049  27.479   0.919 -0.2378  0.1345  0.1700
35739W        W78652  15.236   7.561   2.660  0.0356 -0.1608  0.2560
35740W        W78653   1.982   2.414  21.630 -0.0205  0.4520  0.0660
35741W        W78654  31.466  24.404  28.862 -0.2866  0.3192  0.1409
35742W        W78655  14.918  15.983  22.209  0.0273 -0.1890 -0.0148
35743W        W78656  28.953   0.500  24.337 -0.1885  0.0969 -0.1776
35744W        W78657  16.588  31.799  26.321 -0.3470  0.0189 -0.1961
35745W        W78658  30.025  22.867   9.143 -0.0602  0.4520  0.1444
35746W        W78659   4.298  11.171   0.304 -0.3215  0.3159  0.2099
35747W        W78660  31.607  31.186   0.790 -0.1652 -0.2143 -0.1500
35748W        W78661   3.169  16.753  28.937  0.1767  0.0214  0.3040
35749W        W78662  13.630  32.930  26.525 -0.4978 -0.3504  0.1880
35750W        W78663   8.018   1.242   1.132  0.1529  0.0926 -0.0560
35751W        W78664   7.530   0.131   5.794 -0.0436  0.0268 -0.1979
35752W        W78665   2.772   1.986  25.062  0.1242 -0.2704 -0.0983
35753W        W78666  30.401  30.317  27.972  0.2263 -0.0839 -0.3400
35754W        W78667  15.454  33.654   7.685 -0.1855 -0.1257  0.2166
35755W        W78668  32.711  23.377  24.066 -0.3091  0.2709 -0.2619
35756W        W78669   3.125  17.457   1.588  0.3267  0.0414 -0.1615
35757W        W78670  24.505  25.046  28.813  0.1342 -0.0578 -0.1372
35758W        W78671   6.234  31.439   9.252  0.2006 -0.2435 -0.1880
35759W        W78672   7.108  28.509  29.779  0.1997 -0.1578  0.1001
35760W        W78673   7.966   7.589  22.653 -0.1856  0.1920  0.0996
35761W        W78674   6.391  26.386  26.346 -0.0358 -0.3432  0.2080
35762W        W78675   3.964   8.118  24.201 -0.0299  0.0684 -0.2632
35763W        W78676  28.594  31.178  28.457  0.0875  0.0679  0.1880
35764W        W78677   8.101   3.694  29.471 -0.2739  0.0770  0.0623
35765W        W78678   2.284   6.388   2.664  0.1533  0.2347 -0.1607
35766W        W78679   6.081   7.935  25.700  0.1043 -0.3929 -0.2066
35767W        W78680  12.985   7.904  15.135  0.2646  0.1154  0.3432
35768W        W78681  12.298  33.189  26.350  0.1024  0.0863  0.1115
35769W        W78682   9.936   5.620  21.648  0.3775 -0.1421  0.0657
35770W        W78683  34.308   5.182  28.034 -0.1060 -0.2792  0.1311
35771W        W78684   8.684  33.693  20.005 -0.0588 -0.0818 -0.0869
35772W        W78685  18.050  23.294  16.689 -0.0765 -0.0422  0.0047
35773W        W78686  15.218   6.009  15.766  0.0397 -0.3490 -0.0148
35774W        W78687  22.929   0.276  19.901  0.1025  0.1410  0.0389
35775W        W78688   3.268  29.943  23.759  0.1941 -0.0698  0.0995
35776W        W78689  13.746  19.439  21.243 -0.1203  0.0841 -0.1254
35777W        W78690  31.201  30.162  19.302 -0.2643  0.1519  0.0731
35778W        W78691  17.198  30.560  25.019  0.2615 -0.0632 -0.0321
35779W        W78692   8.184  27.638  25.166  0.0253 -0.6219  0.0172
35780W        W78693   9.617  32.405  18.505  0.1858 -0.0747  0.1158
35781W        W78694  14.835  10.284  15.622 -0.0840 -0.1189 -0.0611
35782W        W78695  13.891  33.637  19.847  0.3244  0.0370 -0.1012
35783W        W78696  10.003  27.700  19.909  0.1708  0.0361  0.0448
35784W        W78697  10.504  30.768  19.538  0.0157  0.0367  0.3185
35785W        W78698  33.635  23.406  25.777  0.1771  0.0378 -0.1377
35786W        W78699  15.373  30.336  24.325  0.1339  0.1038 -0.1224
35787W        W78700  17.477  23.908  23.136  0.0044 -0.0497  0.2106
35788W        W78701  31.591  10.713   1.609 -0.1801 -0.0940 -0.1489
35789W        W78702   6.277  24.574  28.343 -0.1447 -0.0494 -0.1758
35790W        W78703  29.006  28.122  21.198  0.1851  0.2482  0.1463
35791W        W78704  10.688   0.121  19.245 -0.1194 -0.0717  0.4083
35792W        W78705   7.219  32.415  20.891  0.0240  0.0905  0.0191
35793W        W78706  14.705   0.447  25.755 -0.4633  0.1824 -0.0138
35794W        W78707  13.609  12.263  28.381  0.1862 -0.0415 -0.0742
35795W        W78708   5.794   1.872   6.495 -0.0554  0.0031  0.2601
35796W        W78709  28.632  32.917  19.363  0.0816  0.1706 -0.0786
35797W        W78710   8.809   0.723  22.532 -0.2112  0.3562 -0.3068
35798W        W78711  22.791   4.318  17.219  0.0936 -0.1018  0.1977
35799W        W78712  11.018  30.998  22.338 -0.1680  0.1328  0.1513
35800W        W78713  34.157   7.607  17.318 -0.0153  0.0238 -0.1618
35801W        W78714   5.615  28.928  16.402 -0.3707  0.0579  0.1472
35802W        W78715  17.092  14.650  14.366  0.2149 -0.3559  0.0008
35803W        W78716   8.208   1.870  24.704 -0.0488  0.0435  0.2117
35804W        W78717   7.176  28.582  24.132 -0.0627 -0.2217  0.0006
35805W        W78718   2.409  24.194  15.590 -0.1532  0.0515 -0.1470
35806W        W78719   0.425  33.234  21.034 -0.0629  0.0251  0.0883
35807W        W78720   7.263   9.937  22.694 -0.2956 -0.0148 -0.4006
35808W        W78721  15.425   5.762  25.490  0.1413  0.0762 -0.2428
35809W        W78722  34.080  31.935  19.269  0.4366 -0.0455 -0.0548
35810W        W78723   2.596   7.704  20.848 -0.0210  0.1088 -0.1923
35811W        W78724   5.319  30.639  19.358 -0.2393  0.0379 -0.0624
35812W        W78725   7.249   2.354  25.147 -0.0483  0.2118  0.0941
35813W        W78726   8.884   0.493  18.317  0.0508 -0.2599 -0.0311
35814W        W78727   9.588  32.587  25.981  0.0264 -0.3022  0.0251
35815W        W78728   3.343  28.036  24.402 -0.1118  0.0583  0.1595
35816W        W78729   0.017   7.713   1.997 -0.0832 -0.4398 -0.0964
35817W        W78730   5.353  30.499  21.266  0.1023  0.4692 -0.1032
35818W        W78731  14.179   0.733  21.647  0.1167  0.0015  0.0226
35819W        W78732  14.074   3.587  28.192 -0.0642  0.0445 -0.1510
35820W        W78733  11.265   1.743  24.527 -0.0611  0.0343  0.0039
35821W        W78734   6.618  31.862  23.530 -0.1601  0.2398  0.2427
35822W        W78735  12.769  33.462  16.256 -0.3406  0.1285  0.2286
35823W        W78736  15.289   6.810  14.173  0.0894 -0.1581  0.1111
35824W        W78737  13.288   3.767  20.839  0.1656 -0.2473  0.0163
35825W        W78738   8.414  29.288  26.826 -0.3636 -0.0575  0.1064
35826W        W78739   6.858   3.771  21.425 -0.2048  0.3784 -0.0774
35827W        W78740  15.976  29.731  21.111 -0.0081 -0.3293  0.1889
35828W        W78741  32.587  26.701  18.425  0.2146  0.0687 -0.0670
35829W        W78742   3.630   3.462  25.875  0.0166 -0.0870 -0.1158
35830W        W78743  13.091   1.647  22.443  0.3857 -0.0827 -0.0546
35831W        W78744   5.229   0.023  17.681  0.4178  0.1927  0.0268
35832W        W78745   7.351  14.941  20.667 -0.3877  0.2621 -0.2425
35833W        W78746   8.429  25.156  20.437 -0.4272  0.1748  0.1615
35834W        W78747   3.531  15.585  24.382 -0.1981  0.0449 -0.0327
35835W        W78748   9.948   9.841  23.236 -0.0809 -0.2291  0.2464
35836W        W78749  15.724   0.469  16.456  0.1227 -0.1362  0.2645
35837W        W78750  12.705   6.708  17.390  0.1831  0.0044  0.1467
35838W        W78751   1.740   4.235  16.912 -0.0142 -0.0746 -0.0317
35839W        W78752   2.856   1.433  17.432 -0.0592 -0.3136  0.2133
35840W        W78753  13.300  27.677  23.338  0.0210 -0.0350  0.0919
35841W        W78754  10.498   5.601  26.117  0.1040  0.0915  0.1449
35842W        W78755  10.449  28.989  23.866  0.1121  0.3115 -0.2925
35843W        W78756  10.011   2.666  16.980  0.1465 -0.0032 -0.0171
35844W        W78757  10.863  31.193  22.773  0.4359  0.1491  0.0598
35845W        W78758  20.304  32.794  19.979 -0.1663  0.1685 -0.0066
35846W        W78759  13.867  30.844  25.322  0.1150  0.0160  0.0324
35847W        W78760   4.992  23.896  28.589 -0.0812  0.0687  0.0138
35848W        W78761  14.689  32.013  26.397  0.1472  0.2286 -0.1516
35849W        W78762   7.263   6.057  19.452 -0.2317 -0.0791  0.0302
35850W        W78763   7.975   9.746  16.772 -0.1193  0.2223 -0.2034
35851W        W78764  15.620  23.429  21.614  0.1504  0.2935 -0.0266
35852W        W78765   9.263   6.441  22.167 -0.1279 -0.2441 -0.1361
35853W        W78766  16.443   3.129  21.783  0.1934 -0.2063  0.4069
35854W        W78767   3.059  33.887  19.246  0.4343  0.2146 -0.1115
35855W        W78768   7.822  33.180  18.453 -0.2702 -0.2526 -0.0283
35856W        W78769  15.596   7.421  22.164 -0.1386 -0.0843  0.0200
35857W        W78770  16.566  20.663  16.109 -0.0516 -0.2297 -0.1431
35858W        W78771   4.677  33.242  19.474 -0.1773  0.0661  0.1913
35859W        W78772  12.907   7.121  28.008 -0.2627  0.1171  0.2088
35860W        W78773   2.692  24.528  25.951  0.1832  0.0442 -0.1057
35861W        W78774  28.166   0.646  24.857 -0.2214 -0.1132  0.1368
35862W        W78775  12.355   4.729  22.589  0.2681  0.0275 -0.1988
35863W        W78776  16.446  29.352  18.338 -0.0106 -0.0694  0.1138
35864W        W78777  22.690   3.430  21.252 -0.1340  0.2969 -0.0541
35865W        W78778  13.613  33.847  23.543 -0.0350 -0.4383 -0.2346
35866W        W78779   6.282  24.967  15.676 -0.0570  0.0789 -0.1924
35867W        W78780   5.094  28.770  18.915 -0.0319 -0.2688 -0.1210
35868W        W78781  11.963   0.738  19.001  0.0558 -0.0809  0.2792
35869W        W78782   8.625   4.690  17.861  0.2372  0.0652 -0.1165
35870W        W78783   8.920  34.120  24.103 -0.0317  0.1039  0.0709
35871W        W78784   2.686   8.392  28.184  0.0679 -0.2161 -0.0064
35872W        W78785   2.195  29.250  16.186 -0.1422 -0.4439 -0.1752
35873W        W78786   0.967  34.367  18.679 -0.0676 -0.0477 -0.0583
35874W        W78787  11.208   4.251  21.545  0.1967  0.2018 -0.1244
35875W        W78788  14.282  24.666  19.361  0.1256  0.1226  0.0084
35876W        W78789  12.542   8.705  23.423  0.0352 -0.1736 -0.0057
35877W        W78790  14.042   5.257  17.323 -0.1076  0.2264  0.1116
35878W        W78791  18.502  31.210  29.230  0.0350  0.1024 -0.3378
35879W        W78792   8.020   9.770  21.448  0.4623  0.1302 -0.3805
35880W        W78793  18.644   2.483  15.760  0.0092  0.2378 -0.2815
35881W        W78794  22.781   8.653  28.442  0.1832 -0.0426  0.0019
35882W        W78795   0.079  30.945  26.232  0.0689  0.1632  0.0181
35883W        W78796   1.932  34.330  21.667 -0.0950 -0.0129  0.2098
35884W        W78797  17.680  32.482  20.676 -0.1752 -0.0721  0.0189
35885W        W78798   8.481  27.963  25.333  0.0275 -0.2536 -0.1879
35886W        W78799   6.318  18.307  13.582  0.1305 -0.0799  0.1289
35887W        W78800  11.866   2.227  21.032  0.1221  0.0033 -0.2454
35888W        W78801  32.991   3.010  28.194  0.2583  0.0410  0.0395
35889W        W78802  27.699  33.804  18.182  0.1321 -0.0674 -0.0763
35890W        W78803   9.009  32.902   4.220 -0.1789  0.0318  0.0957
35891W        W78804  27.470  31.754  23.120 -0.1838 -0.4208  0.0522
35892W        W78805   4.485   1.497  17.595 -0.1425  0.2223  0.0188
35893W        W78806  20.670  31.464  23.093  0.0022  0.1397  0.1966
35894W        W78807   1.398   2.411  17.469  0.3386  0.2915 -0.2676
35895W        W78808   9.044  18.666  14.982 -0.0122 -0.1963 -0.0123
35896W        W78809  21.676  27.433  20.411 -0.0704 -0.1014 -0.0068
35897W        W78810   8.485  28.213  19.436 -0.0809 -0.0911  0.0142
35898W        W78811  11.668   4.929  18.468 -0.0930  0.3302 -0.0651
35899W        W78812   4.746  29.248  24.251  0.0985  0.3930 -0.2075
35900W        W78813  12.831  30.635  19.042 -0.0865 -0.1469 -0.1300
35901W        W78814  14.556  28.048  16.591 -0.1154 -0.0056 -0.1610
35902W        W78815   3.927   6.436  16.784  0.0058 -0.1236  0.2519
35903W        W78816   6.016  28.193  18.719 -0.2595 -0.2532  0.0499
35904W        W78817  16.128  30.260  23.574  0.3084  0.0878 -0.1450
35905W        W78818   6.288  26.645  21.887  0.3482 -0.4364  0.1857
35906W        W78819  11.055  27.359  19.416 -0.2355 -0.0020  0.0912
35907W        W78820  29.598  30.562  15.316 -0.0071 -0.1220 -0.5627
35908W        W78821  20.723  33.995  24.422  0.0909 -0.0917 -0.0750
35909W        W78822   0.710   3.478  22.589  0.3639  0.1300  0.0563
35910W        W78823  23.733  28.521  19.835  0.1780 -0.0380  0.1225
35911W        W78824  31.222   2.311  24.230 -0.2176 -0.2109 -0.1216
35912W        W78825   4.175  31.449  26.054 -0.2090  0.1025  0.1299
35913W        W78826   8.351   6.092  21.265  0.2314  0.0118 -0.0496
35914W        W78827  10.742  13.202  15.514  0.1564 -0.1488  0.2596
35915W        W78828  10.511  33.165  17.714  0.1148  0.4043 -0.0153
35916W        W78829   3.079  22.440  17.092  0.2792  0.1125 -0.3138
35917W        W78830  18.604  27.901   0.023  0.4485  0.3348  0.5469
35918W        W78831  29.870  34.129  22.340 -0.0943 -0.0688 -0.1090
35919W        W78832   3.362   7.029  25.775 -0.2750 -0.0339 -0.2517
35920W        W78833   3.181  30.622  22.236  0.0874 -0.0689  0.1115
35921W        W78834   7.146   5.619  28.190  0.0812 -0.3064  0.0158
35922W        W78835  30.090  11.228  17.611  0.0078  0.0963 -0.0132
35923W        W78836   4.486  29.231  15.366  0.0750 -0.0672  0.1278
35924W        W78837  10.375   8.208  22.552  0.1354 -0.0944  0.0763
35925W        W78838   5.080  31.384  24.581 -0.2512  0.1757 -0.0468
35926W        W78839  33.206  33.408  24.860 -0.0850  0.0391 -0.0961
35927W        W78840  15.156  33.456  23.401  0.0652 -0.2364  0.0694
35928W        W78841  13.006   6.118  21.900 -0.2597  0.1765  0.0687
35929W        W78842  11.909   0.840  22.867  0.2670  0.1052 -0.0120
35930W        W78843  11.129  32.752  19.182 -0.0030 -0.1398 -0.3224
35931W        W78844  13.143  29.173  27.105  0.0902  0.0419 -0.0266
35932W        W78845   0.922   2.583  26.809 -0.1209  0.2610  0.1069
35933W        W78846  19.279  25.798  17.839  0.1006 -0.0999 -0.2037
35934W        W78847   2.964  29.158  21.861  0.0695 -0.3533  0.0453
35935W        W78848   9.564  31.680  19.667 -0.1339 -0.3547 -0.2257
35936W        W78849   7.266  10.209  20.718 -0.1457 -0.3299 -0.0803
35937W        W78850   3.973  27.870  18.708 -0.0121 -0.2604 -0.0280
35938W        W78851   0.009  32.171  17.522  0.0170  0.2176 -0.1168
35939W        W78852  13.833  31.927  24.484  0.1297  0.0623 -0.0707
35940W        W78853   2.164  23.822  18.642  0.0207  0.0364 -0.1237
35941W        W78854  18.248   1.081  15.727 -0.2993  0.0335  0.1416
35942W        W78855   7.720  22.341  20.181  0.1493  0.3751  0.3015
35943W        W78856  14.515  13.715  14.922  0.1398 -0.0504  0.0874
35944W        W78857   4.308  12.577  20.168 -0.1121  0.1021 -0.0108
35945W        W78858  17.632  30.669  17.126  0.1551 -0.2941 -0.0439
35946W        W78859  12.302  30.083  26.522 -0.0822  0.2082  0.1501
35947W        W78860   4.180   4.186  20.168 -0.2867 -0.2322 -0.3238
35948W        W78861   6.459   0.437  22.397  0.1247 -0.1697 -0.0160
35949W        W78862  18.848  24.618  17.421 -0.1584  0.2735 -0.0070
35950W        W78863  18.013   3.204  27.061  0.2503 -0.2941  0.2207
35951W        W78864  13.321  32.680  28.332 -0.1822  0.1937 -0.1247
35952W        W78865   7.242  33.984  17.249 -0.1539 -0.1598  0.0681
35953W        W78866  12.015   0.399   2.717 -0.1572  0.0656 -0.0904
35954W        W78867   6.373  11.769  20.257 -0.0822  0.0640 -0.0251
35955W        W78868   3.695   5.291  27.232 -0.5312 -0.0143 -0.1332
35956W        W78869   2.172  31.749  25.401 -0.2118  0.6227 -0.0005
35957W        W78870  10.741  29.511  18.591  0.1159  0.2974  0.1240
35958W        W78871  10.364   4.872  23.054  0.0652 -0.0541  0.3112
35959W        W78872  16.058   3.235  16.038  0.1030  0.2825 -0.1294
35960W        W78873   7.907   6.528  26.541  0.1082 -0.1751  0.0714
35961W        W78874   8.051  27.633  29.461 -0.1495  0.0968 -0.1244
35962W        W78875   3.585   0.180  23.780  0.2164  0.0290  0.2556
35963W        W78876  12.871   8.780   0.203  0.1289 -0.3231 -0.1403
35964W        W78877   7.834   5.132  19.534 -0.1377  0.0989  0.0454
35965W        W78878   5.514  17.790  20.869 -0.0410 -0.1165 -0.0556
35966W        W78879  12.638  30.914  22.876  0.1840  0.0900  0.0850
35967W        W78880  32.980   1.865  21.090 -0.1249  0.1177  0.1067
35968W        W78881   7.707   4.599  21.937  0.0694 -0.0629 -0.0289
35969W        W78882   3.479   2.571  23.073 -0.0979 -0.0953 -0.0624
35970W        W78883   9.992   5.258  17.606  0.0429 -0.0170  0.0875
35971W        W78884  18.288   3.978  15.377  0.0511 -0.0203 -0.0511
35972W        W78885   3.008  22.127  24.647  0.1551  0.0280  0.1224
35973W        W78886  12.426  34.338  29.497 -0.2833  0.1450 -0.0434
35974W        W78887   5.081   7.162  19.371  0.1330  0.0009  0.0816
35975W        W78888  10.753  26.044  25.710  0.0601  0.1215 -0.0418
35976W        W78889  16.827  29.113  20.688 -0.0730 -0.1589  0.0382
35977W        W78890  30.368  28.414  20.417  0.0719  0.0435 -0.1673
35978W        W78891   4.406  15.146  23.395  0.2103  0.1036  0.3192
35979W        W78892   9.387   0.649  25.215  0.2345  0.3525 -0.0099
35980W        W78893   4.061  29.074  20.429 -0.2373 -0.0616  0.0666
35981W        W78894   7.836   7.424  17.468 -0.1970 -0.0607  0.0066
35982W        W78895  12.127  27.862  15.192  0.2225 -0.0832 -0.2593
35983W        W78896   6.660  33.974  18.508  0.1841  0.0674 -0.0904
35984W        W78897  14.277  34.067  17.188  0.0763  0.0594 -0.0878
35985W        W78898  19.364   1.395  16.426  0.0088 -0.0888  0.1958
35986W        W78899  25.844  27.772  22.470  0.1189  0.1894  0.2033
35987W        W78900  12.608   5.239  18.645 -0.2866 -0.0229  0.0221
35988W        W78901   7.767  30.534  22.486 -0.0570 -0.1381 -0.0663
35989W        W78902   9.770   1.932  20.994 -0.0309  0.1687  0.0636
35990W        W78903   8.245  27.169  29.695  0.0289 -0.2514  0.3486
35991W        W78904  14.335   6.153  17.370  0.0887 -0.0521  0.2701
35992W        W78905  13.722  33.479  22.675  0.0881 -0.0659  0.1446
35993W        W78906  14.787  32.913  17.163  0.1326 -0.0011 -0.0918
35994W        W78907   5.931   0.263   2.042  0.1851 -0.1488  0.0958
35995W        W78908  14.159  30.004  16.208  0.0379 -0.1318  0.2272
35996W        W78909  21.259  31.513  21.624  0.2569  0.2593  0.4923
35997W        W78910  33.685   1.839  26.938 -0.0244  0.0649 -0.0912
35998W        W78911  17.374   4.439  17.811  0.1549  0.0343 -0.1694
35999W        W78912  14.255  33.400  24.411 -0.2219 -0.1470  0.0205
36000W        W78913  15.591   3.862  23.762  0.2486  0.0141 -0.2870
36001W        W78914  23.222  22.695  16.303 -0.3932  0.0499 -0.4886
36002W        W78915   3.247  32.273  25.317  0.0291  0.1878  0.0298
36003W        W78916  33.349  12.263  21.711  0.1747 -0.2401 -0.3946
36004W        W78917   0.084   3.030  18.681 -0.1502 -0.2161 -0.1871
36005W        W78918  14.443   8.434  26.110 -0.1314  0.0703  0.0813
36006W        W78919  12.685   7.924  16.050 -0.0372  0.0246 -0.1160
36007W        W78920  17.095  28.464  16.933  0.4440 -0.1370 -0.0842
36008W        W78921   6.759  25.791  20.505 -0.0562 -0.0557  0.1856
36009W        W78922   4.405   3.222  29.312 -0.0419 -0.0802  0.0987
36010W        W78923  14.468  34.425  15.929  0.1066 -0.1012  0.0551
36011W        W78924   9.016   1.922  26.570  0.1674 -0.1568 -0.2045
36012W        W78925  11.482   4.693  23.855  0.0925  0.4016 -0.1071
36013W        W78926   6.025   0.631  18.851  0.4925 -0.0556 -0.0657
36014W        W78927  15.347  32.489  18.758 -0.2979 -0.0090 -0.2160
36015W        W78928  17.652  29.697  21.675  0.0357 -0.2099 -0.1651
36016W        W78929  11.115  32.624  16.656  0.0470  0.0418 -0.0807
36017W        W78930  11.545   4.705  26.754  0.1249  0.2704 -0.0840
36018W        W78931   0.197  29.204  17.418  0.1735 -0.1454  0.3312
36019W        W78932  32.534  18.175  13.579  0.0028  0.0612 -0.0929
36020W        W78933   9.012  31.407  20.473  0.1834 -0.1426 -0.0142
36021W        W78934  24.495   0.575  18.739 -0.1606 -0.1266 -0.2523
36022W        W78935   2.617   0.213  19.908 -0.0206 -0.0570  0.1628
36023W        W78936   9.181  33.664  24.837 -0.1961 -0.1064  0.1049
36024W        W78937  11.920   2.800  23.211 -0.1358  0.4866 -0.1183
36025W        W78938  12.323  13.837  25.069 -0.1069  0.2199  0.2314
36026W        W78939  13.564  31.347  22.705  0.0483  0.1471  0.1180
36027W        W78940  12.833  13.740  13.787  0.2067  0.1185  0.3486
36028W        W78941  10.356  13.058  14.480  0.3542 -0.2644 -0.1155
36029W        W78942  34.485  33.279  20.649  0.3115  0.2473 -0.0205
36030W        W78943  15.414   2.007  15.902  0.1361  0.4634  0.2458
36031W        W78944   7.607  23.294  19.117  0.2307 -0.1826  0.3524
36032W        W78945  15.826  31.841  16.562 -0.4082  0.1511 -0.2373
36033W        W78946  23.839  31.492  18.142 -0.1769 -0.0379 -0.2003
36034W        W78947  16.312  33.408  22.241 -0.1353  0.3421  0.0721
36035W        W78948   9.959   6.749  29.112  0.2559 -0.1643 -0.1706
36036W        W78949   4.925   3.833  22.409  0.4611 -0.2381  0.0957
36037W        W78950  18.801  31.242  18.946  0.0558 -0.1255 -0.1398
36038W        W78951  17.668   0.888  16.951 -0.0050  0.4271  0.1012
36039W        W78952  16.202   0.674  15.560 -0.0688 -0.0746 -0.1874
36040W        W78953   5.328  33.323  21.473  0.0411 -0.3656 -0.1580
36041W        W78954   0.577   2.704  25.727 -0.1222  0.0347  0.0095
36042W        W78955   7.941   0.006  26.231 -0.1050  0.2347  0.0369
36043W        W78956  16.011  32.794  18.151  0.2896  0.2999  0.0266
36044W        W78957   6.454  30.573  25.025  0.1730  0.1123 -0.1203
36045W        W78958   9.017  34.460  18.126 -0.0420  0.0541  0.2169
36046W        W78959   3.205  32.208  24.251  0.0929 -0.0137  0.0374
36047W        W78960   7.143  25.021  22.159  0.2184  0.0286  0.1175
36048W        W78961  14.169   1.566  20.373 -0.0339  0.2608  0.1184
36049W        W78962  22.095  34.163  20.135 -0.1545  0.3556  0.0264
36050W        W78963  14.966  30.186  28.190  0.1119 -0.0853  0.2861
36051W        W78964  15.163   9.231  19.284 -0.3848  0.0202 -0.0058
36052W        W78965  11.184   4.702  17.720  0.0277  0.0437  0.0234
36053W        W78966   2.126   0.512  17.758 -0.2595  0.0937 -0.1781
36054W        W78967   5.057  32.960  19.180  0.0831 -0.0631  0.0004
36055W        W78968  13.266   5.800  22.302 -0.0057 -0.1702 -0.0766
36056W        W78969  29.074   5.752  24.357 -0.3515 -0.1825  0.0663
36057W        W78970   6.708  32.006  22.334  0.3972 -0.2898 -0.0022
36058W        W78971   4.914   6.227  25.176  0.1640  0.2835 -0.1367
36059W        W78972   7.541  31.838  21.767  0.4564 -0.0060  0.6446
36060W        W78973  11.757  32.169  26.144  0.0164 -0.1798 -0.3105
36061W        W78974  23.894  26.430  24.158 -0.2472  0.0343 -0.0926
36062W        W78975  31.383   4.388  18.993 -0.1793 -0.0512  0.1372
36063W        W78976   1.615  33.817  24.625  0.6905  0.1944  0.0772
36064W        W78977  10.812   0.531  25.842 -0.2108 -0.2509  0.2204
36065W        W78978   6.756   2.308  18.252  0.1353  0.1862 -0.1129
36066W        W78979  21.518  33.454  15.269 -0.0635 -0.2340 -0.0348
36067W        W78980   7.887  13.330  21.319 -0.2669 -0.0410 -0.1901
36068W        W78981   8.133  27.627  20.929 -0.2405 -0.0075 -0.2621
36069W        W78982  10.251   3.837  23.016 -0.1223 -0.1356 -0.1088
36070W        W78983   1.621  26.914  19.310  0.1958  0.6895  0.3043
36071W        W78984   8.097  26.651  19.785 -0.1276  0.3032  0.4583
36072W        W78985   4.837  34.197  25.739 -0.2134  0.0914 -0.0405
36073W        W78986   9.854  20.030  18.237  0.1384 -0.1780  0.2211
36074W        W78987   7.568  31.972  28.598  0.1292  0.1328 -0.0876
36075W        W78988   3.809   3.114  26.192  0.0926 -0.1874  0.0899
36076W        W78989   3.229  28.885  19.929  0.0486 -0.3471  0.3450
36077W        W78990  13.268  28.422  27.967 -0.0614  0.0205  0.1102
36078W        W78991   2.131  33.018  22.734 -0.2666 -0.0379  0.2784
36079W        W78992  12.257  32.437  17.519 -0.0954  0.1537  0.2840
36080W        W78993  18.619   0.322  18.132 -0.1544 -0.0144 -0.0975
36081W        W78994  29.166   7.362  25.288  0.0145 -0.2187  0.2072
36082W        W78995  20.023   0.804  16.764  0.0634  0.0839  0.0921
36083W        W78996  19.674   1.564  19.740  0.1646  0.2881 -0.1430
36084W        W78997   5.920  24.289  21.055  0.0502  0.0526 -0.2458
36085W        W78998   3.762  20.166  21.748 -0.0154  0.2048  0.0357
36086W        W78999  16.164  27.708  21.031 -0.1419 -0.1947 -0.0086
36087W        W79000   6.933   0.860  21.635  0.0535 -0.0507  0.3778
36088W        W79001  17.920   7.879  20.180  0.0696 -0.0981 -0.0479
36089W        W79002   4.663  30.857  23.149  0.2343 -0.0792  0.2421
36090W        W79003  11.024  16.261  13.360  0.5171 -0.1858 -0.0964
36091W        W79004  15.458   1.025  20.514  0.0414  0.0481 -0.1092
36092W        W79005   1.673  21.977  21.777 -0.3072  0.0468 -0.0783
36093W        W79006   9.421   4.871  21.491  0.1327  0.3351  0.1345
36094W        W79007  10.131   5.159  18.468 -0.1236 -0.1709 -0.1947
36095W        W79008   5.077  30.874  20.970 -0.2480  0.1196  0.1550
36096W        W79009   7.701  34.222  25.915 -0.1422  0.0177 -0.2324
36097W        W79010  10.907  33.068  19.521 -0.1499  0.1464 -0.1863
36098W        W79011   9.341  26.256  21.692 -0.1683 -0.1128  0.1930
36099W        W79012   8.876  30.246  17.790 -0.0913  0.2380 -0.1036
36100W        W79013   9.431  13.941  28.387 -0.1542 -0.0188  0.0217
36101W        W79014  15.463   0.178  17.887 -0.1397 -0.0170 -0.1962
36102W        W79015  20.501   7.902  29.497 -0.0117 -0.1278 -0.0540
36103W        W79016  22.927  34.469  16.212  0.2024 -0.4417  0.1047
36104W        W79017   8.168   2.851  24.315  0.3168 -0.1089  0.1126
36105W        W79018  11.993   4.239  17.956 -0.2806  0.0001  0.1124
36106W        W79019   4.996  21.732  20.561  0.1264 -0.0169  0.0419
36107W        W79020  12.454  31.753  16.365 -0.0641 -0.0903  0.1185
36108W        W79021  22.360  31.741  14.207 -0.0792 -0.4515  0.2812
36109W        W79022  16.958   2.463  16.732  0.0648  0.0033 -0.4893
36110W        W79023  32.897  33.754  23.840 -0.0466 -0.2011  0.1708
36111W        W79024  11.410   5.441   1.368 -0.5144 -0.1797  0.3487
36112W        W79025  33.770  22.118  23.377  0.0279  0.4384 -0.2215
36113W        W79026  33.941  25.759  19.176  0.2277 -0.1457 -0.1084
36114W        W79027   3.961  33.711   1.414 -0.3056 -0.0053  0.1108
36115W        W79028  27.379   1.384  18.097  0.2806  0.2606 -0.2922
36116W        W79029   6.190  28.099  18.231 -0.1756 -0.1238  0.2248
36117W        W79030  16.643   0.706  22.994  0.1820  0.0027  0.3528
36118W        W79031  16.593   3.637  19.331 -0.1677 -0.2997  0.1724
36119W        W79032   8.850   2.302  21.028  0.4852  0.0192  0.0277
36120W        W79033  11.456   2.799  17.374  0.0735  0.2362 -0.3469
36121W        W79034   6.788  32.601  16.202 -0.1034 -0.0009 -0.0809
36122W        W79035  12.458   2.733  25.766  0.1592 -0.0937 -0.2267
36123W        W79036  18.505   1.256  19.152  0.0490  0.2992  0.0122
36124W        W79037  34.136  30.794  18.718  0.1921  0.0476 -0.1795
36125W        W79038  11.936  33.945  21.949  0.1250 -0.0798 -0.2146
36126W        W79039   6.816   5.553  18.383 -0.4227 -0.1936  0.2683
36127W        W79040  24.913   2.151  20.169 -0.1981 -0.0130 -0.0071
36128W        W79041  16.131   7.166  25.686  0.2667  0.0622  0.0082
36129W        W79042   9.478   3.736  23.271 -0.2369  0.0518  0.1320
36130W        W79043  13.620  12.680  13.960  0.0917  0.2175 -0.0242
36131W        W79044   9.742   2.153  19.811 -0.1198  0.0224  0.2722
36132W        W79045  10.550  33.843  18.363 -0.2361  0.2143 -0.2240
36133W        W79046   3.395  33.970  29.523 -0.0500 -0.2564  0.0087
36134W        W79047  17.500   4.025   1.745  0.0720 -0.2572  0.0321
36135W        W79048  14.255   4.035   0.209  0.0119  0.0478 -0.3178
36136W        W79049  14.201  31.124  21.614 -0.0059  0.1477  0.0332
36137W        W79050  14.506   5.541  18.887  0.0489 -0.1011 -0.2432
36138W        W79051  12.754   2.102  20.522  0.0391 -0.1090 -0.0309
36139W        W79052   8.687   2.626  28.528 -0.5944 -0.2718  0.0649
36140W        W79053   3.713   0.028   2.440 -0.1431  0.0699  0.1298
36141W        W79054  14.489   1.850  26.282 -0.0610  0.0296 -0.2833
36142W        W79055  10.451   3.792  20.275 -0.1102  0.1055  0.3428
36143W        W79056   0.538  28.564  22.319 -0.2450 -0.2699  0.3178
36144W        W79057  34.237  30.110  17.889 -0.0846  0.1517  0.0415
36145W        W79058  19.783  27.430  17.716 -0.2436 -0.1435 -0.0043
36146W        W79059   0.536  31.752  28.698 -0.0775 -0.0024  0.2193
36147W        W79060   2.810  33.520  20.597  0.3807 -0.2453  0.3425
36148W        W79061  18.785  31.992  14.817 -0.1324 -0.0624  0.2805
36149W        W79062  11.698   3.136  18.141  0.2473  0.1956 -0.0432
36150W        W79063  26.028  33.396  23.327 -0.0525 -0.2225  0.0340
36151W        W79064  15.275  33.654  25.350 -0.0620  0.0405 -0.1059
36152W        W79065   3.428   4.710  20.342  0.2013 -0.1913 -0.0760
36153W        W79066  13.744   4.270  24.766 -0.2391 -0.1671 -0.1074
36154W        W79067   0.245   0.778  28.808  0.1239  0.0096 -0.3056
36155W        W79068   3.077  25.395  18.974 -0.3086 -0.1079  0.0068
36156W        W79069  13.335  23.767  24.045 -0.1772  0.3765 -0.0750
36157W        W79070   1.397   4.789  21.247 -0.2902  0.0183 -0.0874
36158W        W79071   3.547  24.329  19.302  0.3937  0.4289  0.1091
36159W        W79072   8.166  28.405  27.656 -0.0628 -0.0725  0.0192
36160W        W79073  12.367   8.611  18.403  0.1686 -0.1406  0.0019
36161W        W79074  12.877  32.434  21.576  0.1276 -0.0439 -0.0913
36162W        W79075  13.648   3.245   1.622 -0.1235  0.3580 -0.1739
36163W        W79076   8.926  29.254  18.002 -0.2228  0.0288 -0.1713
36164W        W79077  11.042  33.883  18.367  0.0350 -0.0215 -0.0602
36165W        W79078   8.287   3.259  20.365 -0.0592 -0.0677  0.2062
36166W        W79079   4.197   1.013  22.107  0.0599 -0.1613 -0.1248
36167W        W79080  13.479  32.997  18.612  0.0167 -0.2590  0.1984
36168W        W79081  16.325   3.200  27.517  0.5061  0.3358  0.0331
36169W        W79082  16.788  33.265  22.422 -0.1121 -0.1003  0.1221
36170W        W79083   8.612  30.627  24.745 -0.1174 -0.0030 -0.1039
36171W        W79084  11.126   9.697  25.932  0.0060  0.1497  0.2604
36172W        W79085   9.626   5.073  23.684  0.1422  0.1177 -0.0615
36173W        W79086  14.773  34.225  17.424  0.0294  0.0502 -0.1360
36174W        W79087  24.338   9.499  17.038  0.1079  0.1175  0.3492
36175W        W79088   2.509  32.467  15.606  0.0622  0.0097 -0.0637
36176W        W79089  33.097  31.077  22.540  0.1477  0.2616  0.0203
36177W        W79090  12.038   1.967  26.858 -0.2443  0.0802 -0.0414
36178W        W79091   4.680  28.575  20.541 -0.3487  0.0731 -0.1836
36179W        W79092   6.335  31.309  17.301 -0.1496 -0.0662  0.3895
36180W        W79093  15.827   3.728  29.686 -0.1372 -0.1737 -0.0307
36181W        W79094  13.651   5.885  21.169  0.1518  0.1046 -0.2763
36182W        W79095   3.714  13.552  16.010  0.2800 -0.2113 -0.0794
36183W        W79096  11.694  21.391  18.280  0.2327 -0.1816 -0.0871
36184W        W79097  32.032   4.457  25.468  0.4311 -0.0507  0.0060
36185W        W79098  12.485  25.268  19.181 -0.0745 -0.0483 -0.1255
36186W        W79099   9.594  32.854  28.988 -0.1132  0.1856  0.2166
36187W        W79100   4.152  29.314  21.721 -0.2229 -0.2065  0.0010
36188W        W79101   4.124  27.072  28.843  0.2944  0.2286  0.0310
36189W        W79102  32.763   0.333  17.204 -0.0801  0.1462  0.0464
36190W        W79103   6.820   7.540  22.021  0.0380  0.1218  0.0216
36191W        W79104   8.434  10.780  19.774  0.0401  0.4574  0.3586
36192W        W79105  16.586  29.046  17.827 -0.0078 -0.2286  0.0144
36193W        W79106   3.971   6.083  18.797  0.0826  0.1831 -0.2654
36194W        W79107   7.615   4.008  18.520  0.0944  0.0102 -0.0797
36195W        W79108  24.330  27.640  22.726  0.1709 -0.1483 -0.0729
36196W        W79109   1.695   0.748  18.699  0.0241  0.1101 -0.1309
36197W        W79110   6.168   2.311  21.380 -0.0033 -0.0927 -0.2466
36198W        W79111  14.648  34.034  20.303  0.2065 -0.0208 -0.2994
36199W        W79112  19.118   9.169  14.439 -0.0082 -0.1928 -0.2086
36200W        W79113   2.381  20.529   0.820  0.0618  0.0830 -0.1488
36201W        W79114   9.349  14.930  17.032  0.3614  0.1209  0.2142
36202W        W79115  11.468   5.140  29.480 -0.0066 -0.0248 -0.0704
36203W        W79116  18.319  10.213  14.865 -0.0265 -0.1077 -0.2960
36204W        W79117  33.507   1.279  16.930  0.1933  0.1515  0.1162
36205W        W79118   9.107  31.407  25.128 -0.2935  0.2775 -0.1571
36206W        W79119  15.857  22.978  19.313  0.0179 -0.1437  0.1620
36207W        W79120  12.797   3.908  26.032 -0.0273  0.0761  0.0830
36208W        W79121   1.182  30.336  22.334  0.1982 -0.0173 -0.2617
36209W        W79122  13.739  33.884  25.822  0.2413 -0.0976  0.0181
36210W        W79123   8.664  22.699   1.508  0.2195 -0.0662 -0.3737
36211W        W79124  23.717  31.800  21.792 -0.0817  0.0929  0.0638
36212W        W79125   9.137  30.205  23.861 -0.4026  0.2117  0.1967
36213W        W79126  10.743  34.100  26.821  0.3428  0.2383 -0.0536
36214W        W79127  10.715   9.027  28.805  0.1822  0.0512  0.0580
36215W        W79128   1.608  24.386  19.853  0.4785  0.2054 -0.1136
36216W        W79129  12.909  29.451  17.990 -0.1538  0.2048 -0.1396
36217W        W79130   3.880   7.576  18.508  0.1562 -0.0314 -0.1793
36218W        W79131  14.595   6.613  22.057 -0.0772  0.0548  0.1815
36219W        W79132   4.915   4.669   1.988 -0.2501 -0.2405 -0.0668
36220W        W79133   7.238   9.281  17.143  0.3006 -0.0095  0.0861
36221W        W79134  10.349  33.960   2.408  0.0017  0.1221 -0.0281
36222W        W79135   9.609   6.728   3.547 -0.2164 -0.0367  0.2211
36223W        W79136  12.786   0.213  22.911 -0.0718 -0.1452 -0.0940
36224W        W79137   3.346  33.504  17.765 -0.2375  0.1870  0.1757
36225W        W79138  15.493   4.543  23.539  0.0952 -0.0439  0.0603
36226W        W79139   6.355   9.699  20.412 -0.0431 -0.0436  0.0327
36227W        W79140   4.700   0.692  23.284  0.1232 -0.0316 -0.0116
36228W        W79141   4.338   8.121  22.875  0.2802  0.3378 -0.2104
36229W        W79142  15.616  22.248  20.801  0.0836 -0.2531  0.0027
36230W        W79143   4.157  31.744  21.365  0.3383  0.2576 -0.1684
36231W        W79144   4.906   6.732  16.708  0.1138  0.1406 -0.0695
36232W        W79145  16.593  10.433   3.475  0.1489 -0.1140 -0.0730
36233W        W79146  14.885  20.391  25.367  0.2680 -0.2980  0.0613
36234W        W79147  16.396  32.011  16.437  0.1254  0.0101 -0.1704
36235W        W79148  21.415  33.874  17.586  0.1692  0.0406  0.0126
36236W        W79149   9.857  30.940  15.873  0.1212  0.0884 -0.1581
36237W        W79150  12.774  32.642  16.500  0.1518 -0.0563 -0.2311
36238W        W79151   8.636   1.459  22.657 -0.0187 -0.0733  0.2348
36239W        W79152  11.961  33.102  16.292 -0.2273 -0.0206 -0.2254
36240W        W79153  12.089  30.102  20.858  0.0515  0.0440  0.2291
36241W        W79154  19.703   1.814  18.299  0.0331 -0.0106  0.0239
36242W        W79155  10.270  30.750  17.294 -0.3238 -0.0233  0.2317
36243W        W79156   5.891  33.971  19.476 -0.0087 -0.1506  0.1031
36244W        W79157  14.993  33.738  28.978  0.0555  0.0379  0.0709
36245W        W79158   5.556  31.617  19.358 -0.0530  0.0151  0.2584
36246W        W79159  33.870  29.167  20.983 -0.0478 -0.4537  0.2764
36247W        W79160   8.315  30.461  18.121  0.0321  0.2331 -0.1976
36248W        W79161   6.366  32.093  29.676  0.1272  0.1738  0.0047
36249W        W79162   4.247  34.068  17.404 -0.1403  0.3477  0.0079
36250W        W79163  12.968   7.778  17.771  0.0029 -0.0238  0.2223
36251W        W79164  15.588  10.034  27.414  0.1193  0.0348 -0.1216
36252W        W79165   2.544   1.970  19.503  0.0284 -0.0790 -0.0801
36253W        W79166  12.335   2.341  19.315  0.0480  0.0589 -0.1944
36254W        W79167   3.652  30.582  15.849  0.0109  0.2522  0.0907
36255W        W79168   5.220  16.718  15.932  0.1946 -0.0602 -0.1858
36256W        W79169  19.958   2.873  22.231 -0.1548 -0.0043 -0.1879
36257W        W79170  14.345  30.367  19.574  0.0004 -0.0323 -0.1867
36258W        W79171   8.393  10.045  17.509 -0.0218  0.1791  0.1125
36259W        W79172  13.165  29.954  18.176 -0.1242  0.0660 -0.0973
36260W        W79173  10.217  34.413   8.728  0.4143  0.0973 -0.1464
36261W        W79174   6.651   4.335  27.215  0.1280 -0.0713 -0.0979
36262W        W79175  32.121   2.343  25.256  0.4765 -0.2810 -0.4222
36263W        W79176  18.322  26.272  26.869  0.1764  0.1041  0.2557
36264W        W79177  13.379  31.476  19.696  0.2496 -0.0041  0.3009
36265W        W79178  13.189   5.858   0.219  0.1161 -0.2267  0.0530
36266W        W79179  16.752   6.356  20.420  0.1395 -0.1658 -0.0782
36267W        W79180  17.424  28.722  15.329 -0.0148  0.1846  0.3397
36268W        W79181   9.818   2.453  25.427  0.1385  0.1007  0.0839
36269W        W79182  15.597  29.795  17.971 -0.0702 -0.0580  0.0883
36270W        W79183  10.925   7.014  17.489  0.1624 -0.1030 -0.1357
36271W        W79184   8.701  22.193  22.979  0.1857  0.0801  0.0011
36272W        W79185  10.877   5.151  20.991  0.1277  0.2643  0.0560
36273W        W79186   7.575  12.065  19.539  0.0368 -0.0252 -0.1772
36274W        W79187   5.037   6.591   4.931 -0.1273  0.0878 -0.2447
36275W        W79188  12.992  33.497  17.806  0.2024  0.0026 -0.0263
36276W        W79189  20.757  26.774  21.666  0.1632 -0.1218 -0.2821
36277W        W79190   5.976  30.952  28.957 -0.1226  0.0002 -0.0067
36278W        W79191   6.509  31.966  24.856  0.2156  0.2897 -0.0080
36279W        W79192   2.623  24.716  17.240 -0.3236 -0.1998 -0.0255
36280W        W79193  25.103   1.036  19.241 -0.0626  0.0721 -0.1090
36281W        W79194   9.276  29.389  27.721 -0.0916 -0.1435  0.0147
36282W        W79195   1.945   7.161  19.587  0.0203  0.0394 -0.3679
36283W        W79196   5.284   2.101   7.636 -0.2931  0.2105 -0.0831
36284W        W79197  34.089  32.768   3.380  0.4193  0.0812  0.1556
36285W        W79198  33.618  32.562  14.999 -0.0549 -0.1296 -0.0481
36286W        W79199   1.388   1.247  22.320 -0.1236 -0.1232  0.0681
36287W        W79200  28.133   3.517  17.839 -0.0467  0.0708 -0.2338
36288W        W79201   9.500   6.280  18.124  0.0683 -0.1488  0.0331
36289W        W79202   6.611   4.691  24.460 -0.1589 -0.0667  0.2219
36290W        W79203   3.787  33.652   3.720 -0.1823  0.0176 -0.1396
36291W        W79204   0.941   4.270  18.661 -0.0389  0.2480  0.0730
36292W        W79205   8.585  33.608  21.170 -0.1297 -0.1603  0.1555
36293W        W79206   9.112   0.998  19.851 -0.1012  0.3786  0.0150
36294W        W79207  21.810  13.984  18.600 -0.0272 -0.0493 -0.1318
36295W        W79208   8.416   5.724  23.818 -0.0403  0.0688 -0.1320
36296W        W79209  10.940   2.610  21.536  0.0681  0.2034  0.3494
36297W        W79210   7.215  31.262  21.174  0.0280 -0.0369 -0.0740
36298W        W79211   0.067   3.355  17.125  0.1426 -0.0141  0.0324
36299W        W79212  15.839   7.976  17.057  0.1471  0.1774 -0.0275
36300W        W79213  10.618  32.527  21.385  0.0203 -0.0220 -0.2910
36301W        W79214  14.231  29.973  15.663  0.0820  0.1595 -0.2822
36302W        W79215  13.763  10.317  22.885  0.0859  0.0656 -0.0195
36303W        W79216   7.938   5.483  20.859 -0.1353 -0.0794 -0.0320
36304W        W79217   5.302  27.780  29.242 -0.3545  0.2834 -0.3454
36305W        W79218  15.335   0.020  25.816 -0.0296 -0.0472  0.1930
36306W        W79219   7.223  24.754  16.474 -0.5338 -0.5320 -0.1701
36307W        W79220  15.198   4.133  17.578 -0.1007 -0.0641  0.1343
36308W        W79221  14.415  29.816  22.976  0.0580 -0.2113  0.1413
36309W        W79222   5.258  25.870   1.186  0.1527 -0.2339  0.2374
36310W        W79223   0.679   0.745  25.683 -0.2918  0.1201  0.1703
36311W        W79224  10.941  32.287   1.909 -0.3198 -0.0310 -0.1535
36312W        W79225   7.098  25.988   1.431  0.0165 -0.0272 -0.0302
36313W        W79226  10.383  26.807  19.582 -0.0363  0.1006  0.0246
36314W        W79227   2.815   4.461  27.282  0.0914  0.3940  0.2880
36315W        W79228  10.113   6.969  18.778  0.3175 -0.0075  0.0810
36316W        W79229   7.726  33.007  29.223  0.2828 -0.1125  0.0907
36317W        W79230  10.730  22.130  25.049 -0.1899 -0.0147 -0.3394
36318W        W79231  12.246   1.329  28.135  0.1332 -0.2094  0.0004
36319W        W79232   6.924  28.090   2.793 -0.0499  0.1265  0.0518
36320W        W79233  16.362  28.125  18.837 -0.0704  0.0483  0.1705
36321W        W79234  13.565   0.252  27.540 -0.1661 -0.0484  0.2441
36322W        W79235  10.301   7.006  25.380  0.0894 -0.2542 -0.1776
36323W        W79236  13.098  19.523  23.762  0.0861  0.3224  0.0156
36324W        W79237  15.656  33.489  15.780  0.0517 -0.0200 -0.1433
36325W        W79238  30.356  32.413  17.222 -0.3602 -0.0499 -0.0696
36326W        W79239   3.240   4.783  23.635 -0.1509  0.1022 -0.1035
36327W        W79240  10.474  12.188  17.889  0.0863 -0.1562  0.1889
36328W        W79241  17.409  24.631  28.680 -0.2535  0.2534 -0.1321
36329W        W79242  17.262  30.042  15.611  0.3281 -0.1573  0.2118
36330W        W79243  18.027  33.730  17.827  0.3789  0.0147  0.0873
36331W        W79244  18.558   3.436   1.143  0.0810  0.3155 -0.0113
36332W        W79245  20.171  29.749  26.098 -0.1655 -0.4814 -0.0930
36333W        W79246   1.589  11.584  23.082 -0.0892 -0.1494  0.0929
36334W        W79247  32.487   7.243  22.733 -0.1120  0.0591  0.0365
36335W        W79248   7.504   5.963  26.878 -0.1699 -0.4901  0.2146
36336W        W79249   5.093  31.475  20.974  0.0982  0.1182  0.0871
36337W        W79250  23.539  19.234  17.001 -0.0404  0.0436 -0.0441
36338W        W79251  33.693  26.933  19.689 -0.1024 -0.3601 -0.2527
36339W        W79252  13.123  33.730  26.535  0.2123  0.1565 -0.0135
36340W        W79253  12.345   3.941  24.477  0.3329  0.2960 -0.3010
36341W        W79254  15.766   2.684  18.996  0.1158 -0.2781  0.1033
36342W        W79255  16.535   7.330   0.978 -0.0875  0.0441 -0.1269
36343W        W79256  17.513   2.844  22.697  0.0823  0.0847  0.1515
36344W        W79257  13.543  31.677  17.687 -0.0651  0.2721  0.1898
36345W        W79258  15.056   9.553  16.926  0.1440 -0.1688  0.0444
36346W        W79259   8.481   7.466  12.850  0.1196  0.0036  0.1253
36347W        W79260   6.792  25.911   0.773 -0.0181  0.0445  0.0348
36348W        W79261  15.734  33.560  16.905  0.0932  0.0534 -0.1859
36349W        W79262   8.350   5.609  23.271  0.0691  0.0349 -0.0414
36350W        W79263   7.014  28.038  22.910 -0.2977 -0.2448 -0.0902
36351W        W79264   8.723  32.562   2.634 -0.0033  0.1312  0.0049
36352W        W79265   3.908  31.094  25.713  0.1986  0.1635 -0.2987
36353W        W79266   7.163   0.034  26.671 -0.1519  0.1178  0.0334
36354W        W79267   8.848   5.003  18.185 -0.0991 -0.2197 -0.0841
36355W        W79268   1.297   2.829  22.935  0.2442  0.0492  0.1548
36356W        W79269   6.662  26.034  18.688 -0.1824  0.1141 -0.2427
36357W        W79270  18.077  32.846  21.457 -0.3432 -0.2475  0.1402
36358W        W79271   7.043  31.271  19.567  0.0798 -0.0444  0.0084
36359W        W79272  16.994  24.152  16.755 -0.1273  0.2947 -0.0735
36360W        W79273   6.448   3.653  20.598 -0.0122 -0.4209  0.0353
36361W        W79274  15.144  32.922  19.951 -0.1768 -0.1046 -0.1612
36362W        W79275   4.118  33.406  26.827 -0.0470  0.1846  0.1756
36363W        W79276   7.093   4.757  27.990 -0.1702  0.1590  0.0639
36364W        W79277   0.661  11.387  22.193  0.2255 -0.0490  0.3474
36365W        W79278  17.037   6.918  22.794  0.2578  0.1597  0.4236
36366W        W79279  33.477  30.513  19.040  0.0377 -0.1504 -0.0697
36367W        W79280  13.094  10.426  20.007 -0.0613  0.0249 -0.0248
36368W        W79281   8.081  26.554  23.464 -0.2504 -0.0867 -0.2633
36369W        W79282  15.388  10.392  20.886  0.0937 -0.0429 -0.0920
36370W        W79283  17.617  17.606   5.743  0.1189 -0.1550  0.1455
36371W        W79284   6.818  30.475  22.435  0.1955  0.2706  0.0134
36372W        W79285   4.622   1.031  23.766  0.1132  0.2383 -0.0139
36373W        W79286   2.306  30.877  23.147 -0.0071 -0.0307 -0.0011
36374W        W79287  13.008  23.762  18.072  0.0417  0.3109 -0.2357
36375W        W79288   3.143   4.490  29.336 -0.2367 -0.1051 -0.1292
36376W        W79289  11.049   5.678  19.501  0.1699 -0.0412  0.0439
36377W        W79290  13.930   1.382   1.216  0.1321  0.2174  0.0576
36378W        W79291  14.579  29.867  21.070  0.0732 -0.0066  0.2421
36379W        W79292  18.558   4.214   4.354 -0.0062 -0.0681  0.1471
36380W        W79293  21.508   1.439  19.145 -0.3739 -0.1159  0.4048
36381W        W79294   8.182  10.528  17.738  0.1327 -0.0800  0.2226
36382W        W79295  23.020   1.552   0.696 -0.0882 -0.1682 -0.6532
36383W        W79296  13.195   9.647  20.605  0.1582  0.1858  0.1307
36384W        W79297  10.526  31.687  28.450 -0.2208  0.1075  0.1182
36385W        W79298  20.222   5.698  17.927 -0.1162  0.0522 -0.1108
36386W        W79299   4.290  12.171  28.364  0.1531 -0.0538  0.1492
36387W        W79300   6.155  27.418  25.998  0.2127  0.2079 -0.0424
36388W        W79301   6.567  10.961  16.579  0.0427 -0.1357  0.0029
36389W        W79302   8.715   3.880  27.552  0.1332 -0.0747  0.2713
36390W        W79303   8.601  33.177  17.223  0.2064  0.0034  0.0124
36391W        W79304  17.721  32.136  21.056 -0.0392 -0.1681 -0.2793
36392W        W79305   7.779   4.246   0.891  0.1573  0.1098  0.0105
36393W        W79306  18.454  24.284  23.132  0.2137  0.0830 -0.1518
36394W        W79307   4.859  26.755  27.749 -0.3747 -0.1126 -0.1294
36395W        W79308   9.044   9.811  21.335  0.0637  0.3022 -0.1363
36396W        W79309   5.520  33.108  26.240  0.0302 -0.1702 -0.1226
36397W        W79310  13.680  13.380  25.224  0.0517 -0.0345  0.1994
36398W        W79311  16.422  25.587  23.196 -0.1426  0.4294  0.1748
36399W        W79312  33.451  32.312  16.566 -0.2290  0.0547  0.0155
36400W        W79313  18.732   5.976  13.835 -0.4246  0.3403  0.0167
36401W        W79314  10.682  20.348  24.033 -0.0170 -0.1793  0.1748
36402W        W79315   1.352  11.538  24.354 -0.0645 -0.1411  0.1862
36403W        W79316   9.866  30.367  22.338 -0.2069  0.3027  0.1083
36404W        W79317   7.495  25.383  18.857  0.4828 -0.1713  0.3069
36405W        W79318  13.479  25.791   1.991 -0.2184  0.0266 -0.0406
36406W        W79319   1.718  14.165  18.252  0.2036 -0.2512 -0.0921
36407W        W79320  29.399   3.115  18.755 -0.2769 -0.2905 -0.0654
36408W        W79321  19.871   1.535  14.872 -0.0189 -0.0014  0.1561
36409W        W79322   2.101  33.389   0.482 -0.3441 -0.1290  0.0824
36410W        W79323   3.661  11.566  19.792  0.0805  0.0822  0.3005
36411W        W79324  33.855   5.113  27.837  0.0711 -0.2107  0.0384
36412W        W79325   1.431  29.853  23.399  0.1698 -0.1796 -0.2005
36413W        W79326  19.013   4.749  19.434 -0.0207  0.0224  0.3564
36414W        W79327   7.234  22.234  25.154  0.0720  0.0687 -0.0318
36415W        W79328   6.649  27.491  22.112  0.0811 -0.1473 -0.0792
36416W        W79329  15.585  31.554   0.034 -0.1589  0.0740  0.1143
36417W        W79330  12.158   7.132  25.486 -0.0414  0.1459  0.3933
36418W        W79331  15.395  31.934  20.273  0.1274  0.0932 -0.1086
36419W        W79332  10.629   9.355  20.534 -0.2816  0.1373  0.4842
36420W        W79333  32.574  21.499  19.892  0.0417 -0.2009 -0.2072
36421W        W79334  14.595   2.721  24.221  0.0133  0.1374  0.2063
36422W        W79335  19.894   1.826  28.286 -0.0136  0.2767 -0.0377
36423W        W79336   1.879  28.465  21.127 -0.5016  0.2794 -0.1742
36424W        W79337  11.283   7.682  27.360  0.1656 -0.2139  0.1861
36425W        W79338   3.433   1.347  22.438 -0.2366 -0.0588  0.0631
36426W        W79339  15.122  34.272  17.874  0.2671 -0.0748 -0.3051
36427W        W79340   3.443  16.437  14.193 -0.0455  0.0466 -0.3727
36428W        W79341   9.580  15.719  15.360 -0.1991  0.0132  0.2266
36429W        W79342  19.720   6.790  25.101  0.0834  0.2928 -0.0020
36430W        W79343  15.880  33.207  15.494 -0.1696  0.0466  0.3650
36431W        W79344  14.947   4.100   9.942  0.0651  0.0447 -0.0880
36432W        W79345   3.580  28.627  22.786  0.1635  0.0630 -0.1048
36433W        W79346   4.569   1.748  28.953 -0.3511  0.0713  0.2367
36434W        W79347  15.273   3.785  27.497 -0.1914 -0.0212 -0.1723
36435W        W79348   6.128  33.403  18.791 -0.2603 -0.1381  0.3346
36436W        W79349   8.183  30.984  24.079 -0.2697  0.1741  0.3030
36437W        W79350   8.635   0.848  23.628  0.1829  0.3774  0.2867
36438W        W79351   9.935  23.101  23.511  0.0165  0.2233  0.1306
36439W        W79352   6.615   0.409  22.875 -0.2930 -0.0083 -0.1549
36440W        W79353   5.828  27.441  21.678 -0.0687  0.0866  0.0142
36441W        W79354  24.028  13.911  26.873  0.0800  0.1002 -0.1422
36442W        W79355   9.668  33.039  24.765  0.1456  0.3187 -0.0282
36443W        W79356   6.012   4.883  19.436  0.0672 -0.0828 -0.3134
36444W        W79357   4.001   0.871  27.478  0.1943 -0.0267  0.2058
36445W        W79358  16.179  31.482  19.054 -0.0557  0.2915 -0.4200
36446W        W79359   4.533  31.878  16.912  0.0374  0.2255  0.1635
36447W        W79360   4.442   1.505  23.756  0.1235  0.1246  0.0933
36448W        W79361  18.482  30.950  17.663 -0.0695 -0.4671  0.1671
36449W        W79362   9.119   2.216  26.132  0.4453  0.0949  0.3145
36450W        W79363  17.612  31.379  23.660 -0.0467  0.3112  0.1180
36451W        W79364   7.039  28.064   0.581 -0.3662  0.1945  0.0019
36452W        W79365  10.495   3.264  22.418 -0.4691 -0.1242 -0.2028
36453W        W79366  15.927  32.010  17.047 -0.0145 -0.2560 -0.2249
36454W        W79367   5.767  34.111  26.014  0.1484  0.0921 -0.1280
36455W        W79368  16.476  29.500  21.877 -0.0911 -0.0892  0.1398
36456W        W79369   2.629   6.621  17.605  0.0879  0.0987  0.2687
36457W        W79370   5.724  30.782  21.048  0.1199 -0.1625  0.0419
36458W        W79371   3.661  25.628  16.162 -0.2252 -0.0314  0.2696
36459W        W79372   7.046  28.753  23.344 -0.0399 -0.2389 -0.0646
36460W        W79373  14.594  25.926  20.608  0.0247  0.1509 -0.2032
36461W        W79374   1.699  12.261  17.309  0.0345  0.1149 -0.4254
36462W        W79375   9.590  34.477   1.524  0.0335  0.1770  0.1145
36463W        W79376  10.282  29.213  25.931  0.0152 -0.0097 -0.1153
36464W        W79377   9.802   5.182  26.327 -0.1230 -0.1735  0.0251
36465W        W79378  12.750  25.180  26.894 -0.0503 -0.1903  0.2739
36466W        W79379   7.753  26.876  17.056  0.1933  0.1793 -0.0127
36467W        W79380   9.853   9.086   1.532 -0.0749 -0.3167 -0.1318
36468W        W79381  15.016   1.307  20.250  0.1715  0.0749  0.2414
36469W        W79382   8.008  29.625   1.382  0.2195 -0.1905 -0.2721
36470W        W79383   4.479  34.122  23.401 -0.0668  0.1213 -0.1634
36471W        W79384   6.778  30.385  24.605 -0.1687 -0.1240  0.1891
36472W        W79385   8.657   3.679  18.979 -0.2958 -0.0952 -0.0028
36473W        W79386  13.527  27.157  29.119  0.2043 -0.1181 -0.2847
36474W        W79387   8.659   3.395   0.334  0.4103 -0.0702  0.1802
36475W        W79388   8.977  31.748  23.429 -0.2979 -0.0524  0.0091
36476W        W79389  10.844  24.233  15.332  0.1426  0.1450 -0.0584
36477W        W79390  12.584   4.728  26.032 -0.0950 -0.3305 -0.1046
36478W        W79391   7.593   4.144  22.034  0.1506  0.0221  0.2270
36479W        W79392  11.176   0.646  23.083 -0.3992 -0.1709 -0.0781
36480W        W79393   7.372  22.324  14.707  0.1575 -0.1728 -0.0463
36481W        W79394   6.678   2.782  22.744 -0.1092 -0.0970  0.0950
36482W        W79395  10.170   7.601  17.432  0.1057 -0.0750  0.1529
36483W        W79396   3.423   4.291  24.590 -0.2845  0.0321  0.3023
36484W        W79397   6.615   5.277  22.339  0.0041  0.0497 -0.0750
36485W        W79398  16.796   4.653  19.461 -0.1437 -0.0752  0.4199
36486W        W79399   9.348  10.991  17.628 -0.1573 -0.1788 -0.0110
36487W        W79400  20.645   8.918  13.421  0.0634  0.0693  0.0800
36488W        W79401   2.204  21.726  15.351  0.0175  0.1935  0.2207
36489W        W79402  32.839  24.632  27.061  0.0015  0.0913  0.0796
36490W        W79403  14.253   6.488  15.278 -0.2563  0.1213 -0.0371
36491W        W79404   4.332   6.403  21.418  0.1961 -0.0568  0.0062
36492W        W79405  33.307   1.642  18.897 -0.0782 -0.0387 -0.1140
36493W        W79406  14.065  28.046  27.587  0.2350 -0.2140  0.1548
36494W        W79407   8.347   1.777  19.853  0.2926  0.1793  0.2307
36495W        W79408   3.188  31.748  19.204 -0.1633 -0.1977  0.2842
36496W        W79409   7.614   2.762  21.926  0.3372  0.0332 -0.0132
36497W        W79410  16.254   2.327  24.184  0.2803 -0.1845  0.0946
36498W        W79411   7.087  22.513  27.385 -0.1282  0.0284 -0.0499
36499W        W79412  23.526   8.264  24.496 -0.1701  0.1817 -0.1053
36500W        W79413  32.823  27.605  27.547 -0.0392  0.0521 -0.0932
36501W        W79414   7.792   5.804  18.645 -0.0200 -0.1072 -0.4698
36502W        W79415  33.442  32.208  28.450 -0.0525 -0.1189  0.0287
36503W        W79416   5.929  29.619  20.881 -0.0395  0.5156 -0.0107
36504W        W79417  32.288  32.929  24.403 -0.3592  0.0718  0.0959
36505W        W79418  10.012  16.798  17.128  0.2573  0.1717  0.0096
36506W        W79419   5.654  30.253  25.209 -0.1267 -0.0573 -0.2116
36507W        W79420  14.949  31.624  23.629  0.3293  0.3227 -0.1823
36508W        W79421  11.611  27.652  15.360  0.1529 -0.2806  0.3725
36509W        W79422   3.888  32.366  17.105  0.0717 -0.2423  0.0588
36510W        W79423  13.917   5.233  29.277  0.0058  0.0874 -0.0877
36511W        W79424   9.432  29.293  24.086 -0.1745  0.0043 -0.3901
36512W        W79425  25.417   1.362  26.468  0.2744 -0.0161 -0.0479
36513W        W79426  14.485  27.555  16.789 -0.1002  0.1393  0.1044
36514W        W79427  12.834   3.513  22.849 -0.1456 -0.0926 -0.0344
36515W        W79428   9.938   4.486  27.954  0.3241  0.0098 -0.1796
36516W        W79429  31.783  33.689  28.743 -0.0357 -0.0431  0.2019
36517W        W79430   4.150   6.164  27.473 -0.1103  0.0351 -0.3058
36518W        W79431   8.390  31.800  18.948  0.2433 -0.1777 -0.1070
36519W        W79432   3.652  30.333  23.123  0.0656 -0.0619  0.0253
36520W        W79433  18.550   0.052  14.731 -0.0657  0.1294 -0.2533
36521W        W79434   3.105  34.418  20.535 -0.2068  0.1823  0.3369
36522W        W79435  16.105   5.586  20.804  0.0892  0.0882  0.0659
36523W        W79436  10.162  30.467  21.196 -0.2994 -0.1161  0.1399
36524W        W79437   5.702  28.291  26.092 -0.0599  0.2064  0.1093
36525W        W79438  18.343  29.326  14.770  0.0383  0.0908 -0.0919
36526W        W79439  11.875  18.037  24.692  0.1537 -0.1432  0.0402
36527W        W79440  12.808  34.034  22.953 -0.0550 -0.1323  0.1673
36528W        W79441   1.066  33.226  24.083  0.0021  0.2932  0.3326
36529W        W79442  10.618  24.702  23.562 -0.1710 -0.1118 -0.0072
36530W        W79443  12.501   0.211   2.484  0.2456  0.0085  0.0057
36531W        W79444   2.866  29.494  22.250 -0.0685  0.1063  0.0329
36532W        W79445  14.187  33.481  22.477  0.4250 -0.2359  0.3460
36533W        W79446  30.974  24.873  20.523  0.3363  0.1352 -0.2972
36534W        W79447   1.108  30.264  23.537  0.0078  0.2108  0.1751
36535W        W79448  13.840  32.966  21.808  0.0109  0.0920  0.0921
36536W        W79449  11.603   8.990  23.729  0.0284  0.0165  0.0499
36537W        W79450  16.555   5.437  18.632  0.1594 -0.2533  0.1260
36538W        W79451  16.627  32.023  22.259 -0.0049 -0.1553 -0.0839
36539W        W79452  10.580  25.893  28.330  0.0709  0.0422 -0.1114
36540W        W79453   9.921  29.689   3.846  0.4331 -0.1159  0.0514
36541W        W79454   6.842  22.206  26.059  0.1264 -0.1261  0.0266
36542W        W79455  11.597  21.381   3.744  0.1343  0.0211 -0.0216
36543W        W79456  31.685  32.306  17.595  0.0835 -0.1657 -0.0419
36544W        W79457  11.013  31.503  24.220 -0.4295  0.3391  0.2719
36545W        W79458  13.746  29.714  18.811 -0.1902  0.2708 -0.1107
36546W        W79459  11.647  29.178  17.078 -0.0767 -0.2409  0.1865
36547W        W79460  11.721  18.389   4.195 -0.3020  0.0257 -0.0308
36548W        W79461  12.381   1.221  25.601  0.0098 -0.0158  0.1464
36549W        W79462  31.406  33.354  17.415 -0.0695  0.0099 -0.0079
36550W        W79463  13.708  33.798  18.991  0.2090  0.0987  0.1439
36551W        W79464   8.772  23.619  20.874  0.1873 -0.1307  0.1009
36552W        W79465   8.967  10.663  18.252  0.0024 -0.1695  0.1264
36553W        W79466  16.478   7.697  18.510  0.0910  0.1669 -0.1482
36554W        W79467   0.041  26.466  21.119 -0.1133  0.0184 -0.2544
36555W        W79468   6.268  11.840  17.703 -0.0526  0.0129  0.1649
36556W        W79469   7.644  32.680  19.185  0.1215 -0.4122  0.0540
36557W        W79470  14.298   4.818  24.169 -0.4100  0.0995 -0.0311
36558W        W79471  12.342   0.769  24.216 -0.2503  0.0175 -0.0734
36559W        W79472   0.097   3.902   6.877  0.2169 -0.0118 -0.1268
36560W        W79473   5.561   2.379  29.609 -0.1294 -0.0303 -0.1257
36561W        W79474  14.470   1.211  16.302  0.3619  0.0882 -0.1117
36562W        W79475   5.142  33.307  22.455  0.1066 -0.1070  0.2128
36563W        W79476   1.666  27.372  16.782  0.1786  0.1857  0.2444
36564W        W79477   7.556   3.763   0.897  0.1609 -0.3210  0.2048
36565W        W79478  14.301   7.431  18.240 -0.3430  0.0640  0.1398
36566W        W79479  13.513   2.933  22.324  0.0342  0.2145  0.0625
36567W        W79480   1.007   5.835  24.448 -0.1907 -0.1214 -0.0662
36568W        W79481  33.892   3.458   1.081 -0.2933  0.1655  0.1828
36569W        W79482  10.436  25.150  17.254 -0.5083 -0.2000 -0.4397
36570W        W79483  10.742  34.146  21.027  0.1172  0.1246 -0.0611
36571W        W79484  13.840  10.671  24.641  0.0093  0.2436 -0.3957
36572W        W79485   0.093  33.476  27.982  0.0523  0.0512 -0.0436
36573W        W79486   5.106  31.808  19.440  0.2274  0.1182  0.1355
36574W        W79487   5.660  33.674  28.012 -0.0740  0.1851  0.0414
36575W        W79488   8.382   3.580  23.498 -0.1178  0.0578  0.0875
36576W        W79489  10.675   4.675  25.050  0.0283 -0.1378  0.1896
36577W        W79490   2.080  30.059  23.381  0.1859  0.1660  0.1522
36578W        W79491   1.681   7.132  27.148 -0.3491  0.0669  0.0944
36579W        W79492   5.457  30.799  26.750  0.0851  0.0189 -0.0593
36580W        W79493  11.975   2.667  17.412  0.3471 -0.2453 -0.0455
36581W        W79494   9.630  32.083   0.343  0.2331 -0.1978 -0.0977
36582W        W79495  10.808  10.839  27.156 -0.0191 -0.1021 -0.2317
36583W        W79496  32.944   5.213  29.008 -0.0866  0.1084  0.0582
36584W        W79497  13.294   9.978   1.040 -0.0812  0.0342 -0.1534
36585W        W79498   2.767  26.430  24.534  0.1179 -0.3102 -0.0052
36586W        W79499   1.719  29.575  27.573  0.1171 -0.3053  0.0254
36587W        W79500  11.895   2.002  28.775  0.0852 -0.1274  0.2519
36588W        W79501  13.798  28.330  27.943  0.1329  0.2755 -0.1129
36589W        W79502   4.750  27.345   2.718  0.0795 -0.2847 -0.0846
36590W        W79503   9.077  30.618  26.477  0.0156 -0.0015 -0.1209
36591W        W79504   4.920  17.048   5.343  0.2711  0.0423 -0.0791
36592W        W79505  28.256   5.641  16.786 -0.1463  0.3299 -0.1830
36593W        W79506  11.961   4.800  17.131  0.2126 -0.3820 -0.3801
36594W        W79507   6.155  26.899  23.656 -0.0691  0.1978 -0.0027
36595W        W79508   7.336  29.826  17.265 -0.1204  0.2047  0.0536
36596W        W79509   7.461   3.754  22.246 -0.2529 -0.1761  0.2011
36597W        W79510   1.716  26.303  28.331 -0.1979 -0.3207 -0.3313
36598W        W79511   4.741  22.175  20.226  0.0253  0.0470 -0.0587
36599W        W79512  14.274   2.713  27.879 -0.3802 -0.1069 -0.3640
36600W        W79513   9.971  33.412  24.556 -0.1852  0.0840 -0.2658
36601W        W79514   8.932  33.752   7.313  0.0837 -0.0943 -0.0991
36602W        W79515   1.941   1.448  19.134 -0.3370  0.0740  0.0950
36603W        W79516  11.268   6.729  22.607  0.1482  0.1112  0.2308
36604W        W79517  14.861   7.966  17.812 -0.0853  0.0885  0.0484
36605W        W79518  13.248  28.486  26.213 -0.2177 -0.0846  0.2796
36606W        W79519   6.053  16.009  15.107  0.0172 -0.2073 -0.1106
36607W        W79520   8.007   5.733  22.507  0.1415  0.1849  0.0343
36608W        W79521   7.758   7.551  22.210  0.2417  0.0242  0.1620
36609W        W79522  17.676  24.549   1.034 -0.0365 -0.2066 -0.0700
36610W        W79523  17.117  28.798  27.748 -0.1649  0.0087 -0.0651
36611W        W79524  10.866  32.306  21.746 -0.0791 -0.0706 -0.1925
36612W        W79525  13.683  31.741  26.205 -0.1539 -0.1369 -0.2394
36613W        W79526   9.760  28.867  21.382  0.2278 -0.1244 -0.0455
36614W        W79527   7.811  13.445  17.727 -0.4090 -0.4740  0.0364
36615W        W79528  12.777  30.050   0.900 -0.1976  0.0715  0.0401
36616W        W79529  10.234  31.664  24.808 -0.0123 -0.3925 -0.0329
36617W        W79530  28.398  13.829  18.873  0.3624  0.1559  0.1238
36618W        W79531  14.288  33.147  27.153  0.2247  0.2325 -0.4565
36619W        W79532   8.767   3.230   9.739  0.1042 -0.1786 -0.0378
36620W        W79533  33.598  23.920  21.180  0.0585 -0.0137 -0.2785
36621W        W79534  23.275   3.881  24.834  0.0488  0.1024  0.3585
36622W        W79535   2.147   4.433   1.863 -0.1484  0.0444  0.1466
36623W        W79536   9.711   6.320  27.743  0.1819 -0.0403 -0.1428
36624W        W79537   8.487   7.499   1.021  0.2478  0.0601  0.2003
36625W        W79538  13.866   7.947  20.195  0.4169 -0.3395 -0.0062
36626W        W79539   9.954  30.928  23.517  0.4600 -0.2119 -0.1525
36627W        W79540   5.354  31.659  27.734 -0.1031 -0.3416 -0.2113
36628W        W79541   1.984  10.335   3.737  0.4430  0.0120 -0.0558
36629W        W79542  11.303   4.017  22.468 -0.0771 -0.3015 -0.2198
36630W        W79543   2.848  33.116   1.569  0.1426 -0.1849 -0.2296
36631W        W79544  11.546   8.041  21.372  0.0649 -0.0849 -0.2037
36632W        W79545  31.742  23.075  25.202 -0.2225 -0.0926  0.1931
36633W        W79546  19.798   3.002  27.777 -0.0118 -0.0010  0.0872
36634W        W79547   4.259   4.407  25.453 -0.1045  0.1364  0.2190
36635W        W79548  11.745   9.226  23.203 -0.1463  0.1544  0.0421
36636W        W79549  27.514  32.636  23.416 -0.3477 -0.0281 -0.1455
36637W        W79550  12.389  14.458  20.374  0.2583 -0.0745  0.1504
36638W        W79551   3.876  24.946  21.075 -0.0131 -0.0621  0.1056
36639W        W79552  18.671   0.828  22.160  0.1646 -0.0059 -0.2282
36640W        W79553  21.969   5.399  14.138 -0.0269  0.0310  0.2053
36641W        W79554   6.657   9.090  27.663 -0.1062  0.4175 -0.0580
36642W        W79555   8.893   3.679  25.411 -0.0363  0.1847 -0.1777
36643W        W79556  11.294  29.586  22.480  0.0399 -0.0723 -0.2465
36644W        W79557   9.772   0.322  24.312 -0.0103 -0.3191 -0.2637
36645W        W79558  19.120   4.299  21.315  0.2268 -0.2112 -0.2451
36646W        W79559  11.719   5.548  28.969 -0.1393  0.1642 -0.2262
36647W        W79560  24.265  31.125   8.342  0.0489  0.0599 -0.1020
36648W        W79561  15.964   1.001  23.610  0.1927 -0.2485  0.2626
36649W        W79562  12.673  26.844  28.403 -0.0209  0.2319 -0.0461
36650W        W79563  11.596  34.213  27.349  0.0146 -0.0380  0.2091
36651W        W79564  17.411  33.602  29.576  0.6010  0.1134  0.3774
36652W        W79565   7.617  34.477   5.337  0.1330 -0.0531  0.1081
36653W        W79566   2.778   7.336  20.475 -0.1551 -0.3191 -0.1865
36654W        W79567  10.105   7.547  29.657  0.0867  0.2316  0.2545
36655W        W79568   2.887   8.233  25.861 -0.2272  0.0799  0.0486
36656W        W79569  12.567   3.470  17.659 -0.1072  0.2309  0.3757
36657W        W79570  23.032  23.200  26.490  0.0334  0.1349 -0.2442
36658W        W79571  13.003  24.119  24.194  0.2435 -0.0261 -0.3118
36659W        W79572  33.710  32.445  28.972 -0.0027  0.2347 -0.1034
36660W        W79573   1.953   2.618   4.787 -0.1522 -0.1382 -0.2984
36661W        W79574  17.316   2.189  17.053 -0.0339  0.1774  0.2534
36662W        W79575  34.013  29.221  29.454 -0.2818  0.1670  0.0280
36663W        W79576   3.358  30.736  22.662  0.0119 -0.0345 -0.4640
36664W        W79577  12.248  33.959  26.845  0.0573 -0.1889 -0.0950
36665W        W79578  21.733  33.649  26.686 -0.2126 -0.2597 -0.3196
36666W        W79579   9.367  28.878  19.434 -0.1124 -0.0006  0.2282
36667W        W79580   9.906   0.037  27.793  0.2587 -0.1222 -0.5329
36668W        W79581  18.428   6.591  22.053  0.2102  0.0890 -0.4141
36669W        W79582  15.848  13.546  23.720  0.4831  0.0044  0.1770
36670W        W79583   6.325   4.845  20.874  0.2231 -0.1087  0.1964
36671W        W79584   8.540   5.841   2.894 -0.3251 -0.0293 -0.0650
36672W        W79585   7.617   5.210   4.439  0.1815 -0.0615 -0.2154
36673W        W79586   5.564   2.536  19.163  0.0007  0.2578  0.2515
36674W        W79587   6.504  26.002   3.505 -0.1244  0.1935 -0.4553
36675W        W79588  16.347   5.816  22.596  0.1211 -0.2173 -0.3523
36676W        W79589  16.427   7.424  22.365 -0.0479  0.2525  0.1359
36677W        W79590  14.219   4.272  29.451 -0.3728 -0.0306  0.2332
36678W        W79591   9.282   6.060  25.005 -0.3274  0.2043  0.3345
36679W        W79592  18.348  32.789   2.492  0.0321  0.0115  0.0535
36680W        W79593   8.114   8.442  27.814  0.0514  0.3284  0.3995
36681W        W79594  10.990  12.193  18.750 -0.0177 -0.1863 -0.2011
36682W        W79595  17.176   0.662  17.123 -0.1158 -0.3446 -0.4163
36683W        W79596   6.676   9.469  17.811 -0.3540 -0.0019 -0.0418
36684W        W79597  19.300  33.421  15.071  0.3434 -0.0862 -0.2835
36685W        W79598  10.886  30.634  15.618  0.0777  0.3897 -0.2069
36686W        W79599   4.125   1.112   0.072  0.0114  0.2510 -0.2358
36687W        W79600   7.754   2.309  29.611 -0.0956 -0.1566 -0.0671
36688W        W79601   1.765  33.286  21.321 -0.0519  0.1556  0.3879
36689W        W79602   5.589   3.863   1.629  0.1352  0.1167  0.0165
36690W        W79603  32.512   5.495   0.143 -0.2318  0.2590 -0.0704
36691W        W79604   2.057   0.949   1.167  0.0295 -0.3102  0.0287
36692W        W79605   9.642  14.647  22.218 -0.2117 -0.0889 -0.1336
36693W        W79606   4.801  26.114  25.811 -0.2142 -0.1281  0.0030
36694W        W79607  12.366  34.358  24.482  0.2078 -0.1638 -0.4182
36695W        W79608  12.386   3.742  20.593  0.2207 -0.4191 -0.2269
36696W        W79609  11.854  32.948  18.256  0.1130  0.1264 -0.4079
36697W        W79610  13.660   4.004   4.470 -0.1056  0.0121 -0.2193
36698W        W79611   3.790  26.062  29.531 -0.0087 -0.1748  0.3511
36699W        W79612  22.243   2.019  21.260  0.1413 -0.0070  0.0807
36700W        W79613   6.512   4.182  19.223 -0.0538 -0.0866 -0.0230
36701W        W79614   8.116   5.450  26.184  0.0320 -0.0036 -0.0247
36702W        W79615  14.368   6.909   0.532 -0.0003 -0.2129 -0.0942
36703W        W79616  15.212  31.187  21.244 -0.2317 -0.2395  0.0863
36704W        W79617  16.909   1.282  21.918 -0.0170  0.2710 -0.2101
36705W        W79618   7.099   4.522  22.687  0.2527 -0.0486 -0.1080
36706W        W79619   9.828   2.689   0.690 -0.0429  0.0461 -0.3146
36707W        W79620  31.703  23.769  25.536  0.0276 -0.1460  0.3213
36708W        W79621  14.758   9.962  23.584 -0.0403  0.0137 -0.3094
36709W        W79622  16.648   5.683  29.029  0.0518 -0.3449 -0.0171
36710W        W79623   6.952   2.185  23.811  0.2010  0.0662  0.3720
36711W        W79624   7.513  31.978  27.681  0.2526 -0.1591 -0.0494
36712W        W79625   2.216  32.134  18.300  0.3502 -0.2351  0.0483
36713W        W79626  14.547  26.292  24.391 -0.2065  0.1164 -0.0288
36714W        W79627  16.544  22.576  16.621 -0.3098 -0.0339 -0.0816
36715W        W79628   8.951  24.972  23.878  0.0403 -0.2931  0.1197
36716W        W79629   5.462  30.110  22.868 -0.0366  0.2761  0.1766
36717W        W79630  17.042  31.297   2.705  0.1519 -0.1070  0.1378
36718W        W79631   1.347  18.585  23.767  0.2771  0.3171  0.1439
36719W        W79632   4.040  31.742  24.383 -0.0351  0.0517 -0.0998
36720W        W79633   8.799   8.807   2.789  0.2228 -0.0592  0.4229
36721W        W79634  13.769  31.730  19.230  0.0609 -0.0281  0.0397
36722W        W79635  11.142  30.405   0.493  0.2388  0.0900  0.1580
36723W        W79636  10.116  24.409  20.446 -0.0229  0.0343 -0.2383
36724W        W79637  11.087   1.553   1.443 -0.2380  0.0800 -0.1564
36725W        W79638  14.640   9.840  25.872  0.0183  0.1369  0.1400
36726W        W79639  12.343   3.229  27.843  0.0735 -0.1076  0.0448
36727W        W79640   0.534  33.401  22.696  0.1456  0.4190  0.3881
36728W        W79641   7.032   3.878  27.738  0.0887 -0.1302  0.3344
36729W        W79642   1.976   2.801   1.417 -0.1210  0.1894 -0.1760
36730W        W79643  10.464  11.833  15.511 -0.0800 -0.0718 -0.0436
36731W        W79644  11.084  30.633   3.792  0.0583  0.1479 -0.3684
36732W        W79645   5.619   7.201  18.730 -0.3457 -0.1401 -0.4318
36733W        W79646  10.500  26.998   5.495  0.1915  0.1811  0.1797
36734W        W79647  21.770   6.872  24.374  0.0952 -0.1511  0.1131
36735W        W79648  16.704   1.711   3.612  0.0484  0.0759  0.1486
36736W        W79649  12.070  31.863  22.183 -0.0891  0.0526 -0.0878
36737W        W79650  13.826  15.619   3.035  0.0274 -0.0312 -0.1512
36738W        W79651   6.622   4.712   0.379  0.2087 -0.3000  0.2918
36739W        W79652   4.444  31.178  25.688  0.0884 -0.0278 -0.1337
36740W        W79653  12.789   2.693  20.993  0.2690 -0.2180 -0.1646
36741W        W79654  19.753  30.344  13.907  0.0344 -0.2767  0.1987
36742W        W79655  10.926   0.999  27.415  0.3116 -0.0392  0.1673
36743W        W79656  12.983   7.871  23.467  0.1656 -0.1912 -0.1028
36744W        W79657  11.771   2.044  24.228 -0.0236  0.3325 -0.1142
36745W        W79658  23.764  25.966  21.203 -0.1024 -0.0340 -0.0436
36746W        W79659   6.886  24.378  16.039  0.1622 -0.1854 -0.3243
36747W        W79660  13.384  23.624  23.033  0.1847  0.2678 -0.4208
36748W        W79661   7.515   2.703  19.975 -0.2568 -0.1502 -0.0085
36749W        W79662   9.511  33.807   6.533 -0.2331  0.2567 -0.1360
36750W        W79663   6.407   2.603  23.128  0.0943 -0.2845  0.0351
36751W        W79664   7.702  27.876  17.630 -0.3276 -0.2155  0.2589
36752W        W79665  13.972  25.489  22.141  0.2184 -0.0482  0.2915
36753W        W79666   8.048  18.702  18.243  0.2243  0.0473 -0.0400
36754W        W79667   7.763  29.753  20.502  0.0597 -0.1459  0.0566
36755W        W79668  10.011  34.148  17.074 -0.0489  0.3661  0.1906
36756W        W79669  12.395  28.461  20.907  0.0117 -0.1861  0.1857
36757W        W79670  28.683  31.786  23.176 -0.0748 -0.1412 -0.1652
36758W        W79671   9.942  33.640  28.965  0.2448  0.3144 -0.0337
36759W        W79672   6.293   4.633  27.533 -0.0956  0.0791  0.2920
36760W        W79673  13.746  11.810  19.045  0.4540  0.1168 -0.3850
36761W        W79674  11.721  23.385   1.023  0.1102 -0.4480 -0.2238
36762W        W79675  12.258  18.749  17.196 -0.2162 -0.0871 -0.2486
36763W        W79676   2.950  27.711  22.624  0.0408  0.0062  0.1298
36764W        W79677   3.373   0.790  28.680 -0.1005 -0.0282 -0.3767
36765W        W79678   5.663  29.198  23.374  0.3617  0.0481 -0.2502
36766W        W79679  18.418   7.359  20.466  0.0354 -0.0326  0.0860
36767W        W79680   3.515  34.001  19.149 -0.2064  0.0726  0.1121
36768W        W79681   8.304  24.918  29.675 -0.4043 -0.0359 -0.0972
36769W        W79682  15.561  21.767  24.126 -0.1087  0.1456 -0.0627
36770W        W79683   4.399   5.828  24.393  0.2336 -0.1590 -0.0985
36771W        W79684   3.825  30.770  28.316 -0.0188  0.2308 -0.1068
36772W        W79685   7.136  32.021   0.383 -0.0095 -0.1144  0.1775
36773W        W79686  31.156  11.410  28.074  0.1409  0.1557  0.0739
36774W        W79687   7.491  10.503   0.842  0.0127  0.2792  0.1372
36775W        W79688   8.877  32.655   1.075 -0.0870 -0.0187 -0.4783
36776W        W79689  18.549  30.729  16.326  0.5406 -0.0609  0.2458
36777W        W79690   6.356  25.535  21.557  0.1229  0.1411 -0.0571
36778W        W79691   5.951   3.280  20.525  0.3158  0.0426 -0.2981
36779W        W79692  29.566  32.017  24.590  0.1278 -0.2069 -0.1364
36780W        W79693  15.514  34.251  24.086  0.1615  0.0036  0.3499
36781W        W79694  10.700   1.827  24.234 -0.1406  0.0652 -0.1150
36782W        W79695   9.415  34.312   9.128 -0.0751  0.1301 -0.1634
36783W        W79696  10.480  25.238  20.682  0.0742  0.2792  0.2158
36784W        W79697  13.230  30.501  16.440 -0.1464 -0.0532 -0.2089
36785W        W79698  12.918   9.552  21.986 -0.2693 -0.0017 -0.2039
36786W        W79699   6.173  34.099   1.434 -0.1824 -0.3746 -0.0719
36787W        W79700  12.123   5.807  26.628  0.0876 -0.0213  0.0198
36788W        W79701   8.165  20.826   0.458 -0.0575  0.0241 -0.1025
36789W        W79702  14.873   5.430  17.300 -0.1851  0.1108  0.1814
36790W        W79703  32.418  18.563   6.005 -0.1810 -0.0172  0.0911
36791W        W79704  17.158   1.993  18.250  0.0902 -0.0327  0.3265
36792W        W79705  19.010  28.955  10.187  0.1149 -0.2206 -0.2478
36793W        W79706   9.489  18.991   1.450 -0.5072 -0.2052  0.0971
36794W        W79707  15.630  32.739  20.277  0.0252  0.0130  0.2029
36795W        W79708   4.135  27.850   9.054  0.0785  0.3650  0.0165
36796W        W79709   7.650  23.824  24.013  0.0265  0.0612 -0.0200
36797W        W79710  14.600  32.598   4.198  0.2015  0.1201 -0.1462
36798W        W79711  10.499   2.554  24.458 -0.1447 -0.0514  0.3954
36799W        W79712  24.191   2.530  20.163  0.1912 -0.1364 -0.1092
36800W        W79713  16.763   5.239  29.322 -0.0165 -0.3553  0.1441
36801W        W79714  10.240   0.975  25.262  0.0692  0.0834  0.2083
36802W        W79715  20.183   2.527   3.225 -0.0461 -0.2083 -0.1374
36803W        W79716  14.272  31.433  29.371 -0.2178 -0.1438  0.2171
36804W        W79717  11.170  19.714  28.178 -0.0438 -0.1419 -0.0891
36805W        W79718  10.827  24.720  24.493 -0.2758 -0.1517  0.1746
36806W        W79719   5.903  14.543  25.017 -0.3976  0.0921 -0.2332
36807W        W79720   8.836   8.208  20.448  0.2281 -0.0975 -0.1438
36808W        W79721  13.992  21.174  20.408  0.3671  0.0284  0.2070
36809W        W79722   8.030   9.768  20.404 -0.4639  0.3070 -0.2513
36810W        W79723  10.805  32.787  20.977  0.1233  0.0092  0.1498
36811W        W79724   3.516   9.867  21.444 -0.1866 -0.2203 -0.1573
36812W        W79725   6.457   7.814  20.056  0.1201 -0.2229 -0.2049
36813W        W79726  11.110  27.778  16.049  0.0147 -0.2601  0.0997
36814W        W79727  18.762  14.034  22.812  0.2247  0.0122  0.1157
36815W        W79728   8.097   0.718   3.172  0.1949 -0.0999  0.0939
36816W        W79729   6.926  34.075  20.248  0.2244  0.1436 -0.0051
36817W        W79730  17.053   5.000  25.532 -0.0913  0.1655  0.1572
36818W        W79731   4.824   5.418  18.624  0.2425  0.1752  0.1243
36819W        W79732   4.497   6.134  24.744 -0.1065  0.0302 -0.3859
36820W        W79733  10.560   4.800   0.608  0.3336  0.0404 -0.1643
36821W        W79734  22.669   2.147  21.498 -0.3411 -0.0008 -0.0445
36822W        W79735  33.813  34.341   4.143  0.0326  0.2715  0.0939
36823W        W79736  14.333   5.223   1.104 -0.3407 -0.0824  0.0096
36824W        W79737  14.380  33.523  25.596 -0.0301  0.2459  0.1394
36825W        W79738  18.731  29.800  27.308 -0.2257  0.0147  0.0134
36826W        W79739  12.783   3.210  21.434  0.0067 -0.0190 -0.0747
36827W        W79740  13.783   5.020  22.430 -0.0756 -0.0833 -0.2550
36828W        W79741  13.389  30.827  28.265 -0.0984  0.1742  0.0924
36829W        W79742  13.946  31.376   4.597 -0.1367 -0.1133 -0.0204
36830W        W79743   5.864   4.188   1.282  0.3746  0.1703  0.3588
36831W        W79744  12.383   2.972  26.285  0.1541 -0.0138 -0.2542
36832W        W79745   9.831  14.759  20.671 -0.1355  0.0130 -0.1163
36833W        W79746   5.568  25.473   8.665 -0.2059 -0.1565  0.0113
36834W        W79747  12.623  22.010  23.516 -0.2237  0.3464  0.0048
36835W        W79748  18.589   1.165  26.082  0.0613 -0.0991  0.0555
36836W        W79749   5.751   0.658  27.643 -0.0130 -0.0176 -0.2066
36837W        W79750   6.654   1.515  24.613 -0.1496 -0.1975  0.0429
36838W        W79751   8.121   3.031   5.268 -0.0152  0.1245 -0.2791
36839W        W79752   6.143   9.509  19.225 -0.1783  0.0334  0.1623
36840W        W79753   8.720  22.345  23.551  0.0636  0.0613  0.2994
36841W        W79754  11.134  30.876  25.404  0.3613 -0.0041 -0.0254
36842W        W79755  15.778   4.145  23.318 -0.2693  0.0211 -0.0465
36843W        W79756  21.061  10.967  22.752 -0.0212 -0.0199 -0.3573
36844W        W79757  14.494   8.463  29.341 -0.0448  0.1696 -0.2846
36845W        W79758  16.415   4.087  22.004 -0.0705 -0.0388  0.1389
36846W        W79759  14.462   5.962   0.553 -0.0069 -0.1232 -0.0002
36847W        W79760  23.972  34.006   8.037  0.3167  0.0039 -0.1480
36848W        W79761  16.126  30.705  22.493  0.3397 -0.0897  0.1370
36849W        W79762  27.503  25.687  27.521  0.0412  0.2488  0.0540
36850W        W79763   0.184  27.959  18.734 -0.1631 -0.1077 -0.2170
36851W        W79764   5.497   6.707  12.071  0.3124  0.0950  0.1506
36852W        W79765   4.250  30.394  29.221 -0.1821  0.2352  0.2737
36853W        W79766  10.074  28.442   0.264  0.1475 -0.0641 -0.1017
36854W        W79767   4.934  22.963  27.217  0.3244  0.1951  0.2273
36855W        W79768   5.795   4.319   1.823 -0.1576 -0.2204  0.2479
36856W        W79769   1.980  32.068  21.281  0.0458  0.1373  0.1055
36857W        W79770  16.806   6.581  17.799  0.0497  0.2120  0.0646
36858W        W79771   4.429  30.568   0.898  0.0571 -0.3103 -0.1335
36859W        W79772  12.103   3.357  19.811  0.2149 -0.1074 -0.0013
36860W        W79773   8.067  23.676  14.917  0.0222  0.0064 -0.0891
36861W        W79774  12.988  32.607   6.412  0.1198  0.0467  0.0280
36862W        W79775  18.248   7.090  28.582  0.0409 -0.2042 -0.1666
36863W        W79776  16.052  10.427  29.303  0.3059  0.3659 -0.0452
36864W        W79777   8.101  33.560  22.025  0.1872 -0.2445  0.1172
36865W        W79778   8.093  33.400   2.353  0.3981  0.0894 -0.0202
36866W        W79779   5.907  34.036  28.900 -0.2119 -0.2042 -0.0765
36867W        W79780  13.517   1.741  28.074 -0.0888 -0.2624 -0.1518
36868W        W79781   6.512  24.065  14.206  0.2232 -0.2017 -0.0665
36869W        W79782   8.010  31.004  28.332  0.0457 -0.0139  0.0636
36870W        W79783   6.575  24.246  18.856  0.1127  0.3077 -0.1522
36871W        W79784   2.353  27.975  24.015  0.2127  0.0703  0.1208
36872W        W79785  13.622  32.599   4.934  0.1173 -0.0268 -0.0831
36873W        W79786   1.431  30.008  21.585 -0.2620  0.0797 -0.1696
36874W        W79787  13.546   4.965  20.312 -0.2539  0.0156 -0.0719
36875W        W79788   8.409   0.381  25.437  0.0934 -0.0535  0.0564
36876W        W79789   6.152  30.923  19.832 -0.0809  0.1327 -0.0533
36877W        W79790   9.357   8.345  17.948 -0.1499  0.3312  0.0072
36878W        W79791  11.244  32.165  18.581  0.0686 -0.0203 -0.0389
36879W        W79792   9.902  15.100  19.636  0.2305  0.1073 -0.0791
36880W        W79793   0.130   5.042   3.241  0.0724  0.2675 -0.1652
36881W        W79794  13.578  21.372  17.260 -0.2171 -0.2447 -0.1188
36882W        W79795   3.797  17.087  24.587  0.0633  0.0063  0.0496
36883W        W79796  11.182  28.753  27.138 -0.0384 -0.4521  0.0644
36884W        W79797  19.884   5.887  14.942 -0.1413  0.0191 -0.1666
36885W        W79798  18.072   8.772  19.076  0.0952 -0.1048  0.0301
36886W        W79799  33.562   2.259   1.861  0.0556  0.1249 -0.2539
36887W        W79800  14.305   5.494   8.428  0.0046 -0.3078 -0.1192
36888W        W79801  12.237  32.951  29.361  0.0098  0.2836  0.0258
36889W        W79802  33.827  32.134  16.896 -0.2191 -0.0777  0.1011
36890W        W79803   2.116   8.485  17.274 -0.2300 -0.0902  0.1237
36891W        W79804   3.453  31.254  26.647  0.4629  0.0740  0.0374
36892W        W79805   1.979  25.958  27.159 -0.2239  0.2527  0.1642
36893W        W79806   9.297  33.638   5.502  0.0577 -0.0271  0.1194
36894W        W79807  16.647   4.847  23.775  0.0237 -0.0919 -0.2697
36895W        W79808   8.104   0.691  25.071 -0.0746 -0.1492 -0.0191
36896W        W79809   5.870   4.139  24.892 -0.0046 -0.0277 -0.1903
36897W        W79810  15.763   0.984  24.055  0.0116 -0.1940  0.2282
36898W        W79811  18.456  25.539   7.861  0.0208  0.2943 -0.1187
36899W        W79812   4.204  28.022   2.419 -0.0258  0.3383 -0.0740
36900W        W79813  14.078   4.857  28.909 -0.2518 -0.0314  0.1953
36901W        W79814  10.074   2.388  24.999  0.0335 -0.2316 -0.0057
36902W        W79815   4.045   7.348  26.428  0.0010  0.2984 -0.3389
36903W        W79816  16.581  14.799  23.286  0.0503  0.1417 -0.0200
36904W        W79817  10.147  34.072  21.032 -0.0713 -0.0154 -0.1636
36905W        W79818  11.455  28.786   1.546 -0.1114  0.2943 -0.2041
36906W        W79819  13.346   5.342  29.249 -0.1147 -0.2266 -0.0093
36907W        W79820  23.032   0.132  16.782 -0.1766  0.2703 -0.0116
36908W        W79821   5.380  30.323  23.907 -0.0311 -0.2874  0.0027
36909W        W79822  14.748  23.066   4.299 -0.0330 -0.2511 -0.1953
36910W        W79823   4.733  26.333  15.063 -0.1001  0.0805  0.0957
36911W        W79824  13.691   5.745  29.206  0.0299 -0.2520 -0.1238
36912W        W79825   9.266  32.108  17.494 -0.4488 -0.0982 -0.0245
36913W        W79826  15.084  27.526  24.185  0.4265 -0.2968  0.0458
36914W        W79827   5.307   7.320   6.991 -0.0304  0.1697  0.1971
36915W        W79828  15.659  24.448  28.635  0.3071  0.1286  0.2751
36916W        W79829   4.309   3.825   3.833  0.2436  0.0693  0.1993
36917W        W79830   4.087  31.050  23.942 -0.3529  0.1701  0.0475
36918W        W79831   3.862  33.424  21.115 -0.0729  0.1486  0.1558
36919W        W79832  15.272   4.863  22.289 -0.0134  0.0711  0.2070
36920W        W79833  12.132   5.592  19.892  0.0377 -0.0699 -0.0016
36921W        W79834  10.188  29.739  23.830  0.0455  0.1963 -0.0101
36922W        W79835   8.161  14.004  20.936  0.0702  0.0198  0.3818
36923W        W79836  22.913   0.116  18.774  0.2009  0.3688 -0.0440
36924W        W79837  15.024  11.398  21.542  0.0833 -0.0272  0.1957
36925W        W79838  21.970   9.368  22.464 -0.0296 -0.0843 -0.1494
36926W        W79839   2.498  24.840  27.286 -0.0956  0.1061  0.2566
36927W        W79840   1.744   3.269  27.850 -0.0038 -0.1197 -0.2830
36928W        W79841   2.880   6.856  18.028 -0.2552 -0.2472 -0.2028
36929W        W79842  18.561   4.225  21.245  0.3088 -0.0720  0.2783
36930W        W79843  15.535  31.430  17.490  0.0892 -0.0252  0.1327
36931W        W79844   6.375  13.662  16.771 -0.2132  0.1740  0.0894
36932W        W79845  11.099   4.206  16.948  0.0096 -0.3074  0.3053
36933W        W79846  11.496  29.825  25.290 -0.1407  0.2536 -0.1401
36934W        W79847   7.223  18.786   8.938  0.1115 -0.2621  0.2464
36935W        W79848   5.259  34.123  16.747  0.0262  0.2312 -0.0023
36936W        W79849   6.252   9.230  17.038  0.1824  0.3584 -0.0117
36937W        W79850  12.603  25.609  18.813  0.1086  0.0379 -0.1815
36938W        W79851   6.779   6.516   2.850  0.3483 -0.2892 -0.1755
36939W        W79852  13.838   0.158  17.947  0.0716  0.0087  0.0902
36940W        W79853  11.065   3.882  22.022  0.2609 -0.1534  0.0581
36941W        W79854   4.224   4.527  19.791 -0.0015 -0.1900 -0.0162
36942W        W79855  12.634  29.141  27.516 -0.0523 -0.4017 -0.1485
36943W        W79856  34.231   6.520   8.412 -0.3994 -0.0365  0.0417
36944W        W79857  10.516   3.591  24.122  0.1918 -0.2799 -0.0597
36945W        W79858  12.683  29.142  20.794  0.2041  0.2363 -0.1264
36946W        W79859  17.318  29.676  18.071  0.1801  0.2479  0.0561
36947W        W79860  25.664   8.317  29.535  0.3165 -0.1716  0.0773
36948W        W79861   3.912   4.923   0.377 -0.1429 -0.0379 -0.0658
36949W        W79862  16.718  24.060  19.518  0.0364 -0.1794 -0.2141
36950W        W79863  15.417   8.461   5.566  0.3792  0.1804 -0.0746
36951W        W79864  11.116   1.936  20.570 -0.2007 -0.1923 -0.0235
36952W        W79865  11.709   6.141  23.656 -0.1907  0.2437  0.1514
36953W        W79866  12.471   0.560  28.741 -0.0633 -0.3418 -0.0437
36954W        W79867  24.528  26.992   4.155 -0.0667 -0.5015  0.1441
36955W        W79868  10.713   1.529  25.894  0.2084 -0.5214  0.2350
36956W        W79869   6.417  20.708  27.252  0.0781 -0.0198 -0.0269
36957W        W79870  10.455   1.685  26.934 -0.0588  0.0096 -0.0135
36958W        W79871   0.096  14.199  28.819 -0.2879  0.2556  0.0462
36959W        W79872  22.690  28.892  17.332  0.2342  0.1213 -0.0967
36960W        W79873   8.158   6.556  22.178 -0.1846 -0.1410 -0.0230
36961W        W79874  20.694  30.489   1.671 -0.1259 -0.1029 -0.3836
36962W        W79875  14.165  33.526  21.231  0.2476 -0.1585 -0.0572
36963W        W79876  10.662  27.679  17.070 -0.1022  0.1257 -0.4443
36964W        W79877  13.098   6.561  27.415  0.3023 -0.2432 -0.0450
36965W        W79878  10.449  29.563  20.257  0.1153  0.4198  0.0260
36966W        W79879  11.921  28.646   0.078 -0.1985 -0.0492  0.1247
36967W        W79880   7.524  30.423  27.756  0.1688 -0.0485  0.3874
36968W        W79881  34.134  14.763   3.370 -0.1032 -0.2561  0.1124
36969W        W79882   0.144  11.826  16.565 -0.1686  0.2758  0.0108
36970W        W79883   4.251   1.997  20.462  0.0984  0.0286  0.1980
36971W        W79884  17.992   0.507   0.040 -0.0001 -0.2451  0.1750
36972W        W79885  33.397   5.973  23.584 -0.1273 -0.1001 -0.1601
36973W        W79886  13.995   2.480  28.753 -0.1498 -0.1103  0.0484
36974W        W79887  19.365   7.894   4.653 -0.2873 -0.0568 -0.0607
36975W        W79888  11.623   7.871   2.230  0.1155 -0.0863 -0.2258
36976W        W79889   3.551   6.458  22.038  0.2681 -0.1437 -0.0553
36977W        W79890  10.127   8.242   9.420  0.2372  0.0675  0.2858
36978W        W79891   0.279   5.004   7.441 -0.0015 -0.5891 -0.0258
36979W        W79892   4.634   1.952  28.089 -0.0847 -0.3226  0.2019
36980W        W79893  16.086   7.360   7.056 -0.1124 -0.2417 -0.0247
36981W        W79894   5.550  27.497   8.279 -0.0480  0.1251 -0.1545
36982W        W79895  19.023  30.903  10.117 -0.1071 -0.1698 -0.1359
36983W        W79896  18.516  33.320   7.165 -0.3952 -0.2052 -0.2300
36984W        W79897  12.394  33.463  25.846 -0.0659  0.1737 -0.1609
36985W        W79898   5.272  29.886  29.102 -0.1649  0.5355 -0.1487
36986W        W79899  11.460   1.466  22.167  0.0726 -0.1014 -0.1289
36987W        W79900  22.059   4.794  27.954  0.0286 -0.1580 -0.1467
36988W        W79901   6.821  28.940  22.474 -0.1842  0.2371 -0.1699
36989W        W79902  12.716  10.345  26.894 -0.0792 -0.3476  0.0800
36990W        W79903   2.008  33.248  28.317  0.1629 -0.0096 -0.0548
36991W        W79904  23.374   2.688   0.045  0.2657  0.1877  0.1300
36992W        W79905   4.842  28.299  29.217  0.0055 -0.0850  0.0641
36993W        W79906  10.857   1.767  24.939 -0.2280  0.0090  0.0000
36994W        W79907  13.616   6.874   0.195 -0.0465 -0.2582 -0.0621
36995W        W79908  16.534  26.225  20.853  0.0296  0.0908  0.2275
36996W        W79909   8.353  26.162  26.286 -0.1093  0.1435  0.2356
36997W        W79910  11.622   1.299   4.322  0.1132 -0.3977 -0.2446
36998W        W79911  18.225  27.220  25.361 -0.1055 -0.2831 -0.2146
36999W        W79912  10.546  22.807   2.720  0.3042  0.0685  0.0469
37000W        W79913  17.055   3.495  20.345  0.1789 -0.1083  0.1497
37001W        W79914   3.226   9.650  28.812  0.2475  0.1280  0.0060
37002W        W79915   8.218  23.360   3.494  0.0015  0.1713 -0.2562
37003W        W79916   3.338   4.214   2.010 -0.1055 -0.1843 -0.1217
37004W        W79917   9.502  29.375   5.118  0.0945  0.3477  0.1038
37005W        W79918  19.170   5.427  28.073  0.1726 -0.0784  0.0936
37006W        W79919   7.146  34.167  25.340 -0.0958  0.0428  0.1271
37007W        W79920  13.249  29.757   5.789  0.0382 -0.2673 -0.0317
37008W        W79921  15.709   6.792  26.565  0.3446 -0.0966 -0.2888
37009W        W79922   4.249   1.226  18.669  0.0941 -0.0339  0.0582
37010W        W79923   7.578  29.669  19.147 -0.0020  0.1663 -0.3884
37011W        W79924  13.414  10.153   9.355  0.1991 -0.2601  0.1533
37012W        W79925  12.906  33.564  11.243  0.0702 -0.1742 -0.2876
37013W        W79926   7.333  33.754   4.807 -0.0919  0.1449 -0.0186
37014W        W79927   2.348  28.919  22.549  0.0943  0.0196  0.0628
37015W        W79928   4.963   8.295  29.366 -0.0556  0.0714  0.1274
37016W        W79929   7.144  28.270  22.104 -0.0739 -0.0639 -0.1008
37017W        W79930   4.321  20.985   8.908  0.0958  0.1619  0.0669
37018W        W79931  13.391  27.477  23.819  0.2917 -0.0956  0.1699
37019W        W79932  14.350  31.164  25.447  0.1048  0.0959  0.4010
37020W        W79933  14.646  30.056   7.505  0.3470  0.0082 -0.0232
37021W        W79934  15.482   1.108   5.584  0.0029 -0.0415 -0.0388
37022W        W79935  14.648  23.409  19.581  0.0413  0.2087 -0.0788
37023W        W79936   5.161  16.819  27.961  0.3383  0.0063 -0.1218
37024W        W79937   8.582  34.266  19.298 -0.0637 -0.0485 -0.0743
37025W        W79938   6.931   1.214   0.156 -0.2656 -0.0602  0.0090
37026W        W79939   4.282  32.420  23.775  0.0044 -0.0522  0.1852
37027W        W79940  34.244   3.609  28.129 -0.1940 -0.2792 -0.2238
37028W        W79941   3.650   9.958   5.559 -0.2244 -0.0291 -0.0888
37029W        W79942   4.605   8.243  26.109 -0.2946 -0.1586 -0.1238
37030W        W79943   8.264  24.869  22.236  0.1241  0.0935  0.1686
37031W        W79944  10.991   5.655   1.537 -0.1280 -0.0392 -0.1313
37032W        W79945   3.579   1.588   9.261  0.2748  0.0347 -0.0243
37033W        W79946   9.582  31.169  29.419 -0.0151 -0.2418  0.0119
37034W        W79947  18.049  23.612  20.546 -0.0378  0.1668  0.2564
37035W        W79948  17.802   0.625   4.223  0.0865  0.0964  0.2831
37036W        W79949  13.159  21.398  22.091  0.1857  0.0362 -0.0033
37037W        W79950   3.782  32.612  21.194 -0.1256  0.1574  0.1550
37038W        W79951  13.919  28.144  23.238 -0.0478  0.1884 -0.2609
37039W        W79952   8.694  26.873  17.342  0.2234  0.1221 -0.0668
37040W        W79953  11.474   5.641  26.432 -0.4427  0.1474 -0.1260
37041W        W79954   5.299  31.488   0.748 -0.0337 -0.3147  0.1031
37042W        W79955   1.269  30.169  26.246 -0.0809 -0.2210 -0.0078
37043W        W79956  11.248  33.539  27.841 -0.1893  0.0037 -0.1862
37044W        W79957  14.445  25.260  26.306  0.0284 -0.0331 -0.0074
37045W        W79958   9.818  33.307   7.422  0.1792  0.0986 -0.1465
37046W        W79959   5.282   1.091  29.311 -0.3475 -0.0492  0.0543
37047W        W79960   8.497   6.366  28.795  0.0559 -0.2763  0.2629
37048W        W79961  10.884  31.552  22.370  0.0151  0.3109 -0.0377
37049W        W79962  27.374   3.361  27.251 -0.2091  0.3818 -0.4363
37050W        W79963   0.774  31.663   0.859  0.1559  0.1520 -0.0797
37051W        W79964  30.508   0.964  23.056 -0.1882 -0.1427 -0.0849
37052W        W79965   6.992   0.710  28.579  0.0763  0.4238 -0.1667
37053W        W79966   4.937   5.316  26.488  0.1306  0.1559  0.1813
37054W        W79967  10.748  22.463  21.188 -0.1269 -0.0397  0.1984
37055W        W79968   3.951   3.077  25.731  0.1039 -0.4184 -0.1644
37056W        W79969   8.411   6.449  18.287 -0.1570  0.1941 -0.1740
37057W        W79970   8.770   2.694  21.900 -0.0938 -0.0693 -0.1265
37058W        W79971   3.850  34.404  26.616  0.1264 -0.0453 -0.2665
37059W        W79972  15.225   4.304   4.568  0.2212  0.1341  0.2113
37060W        W79973  12.674  33.481   2.195  0.2119 -0.2349 -0.2277
37061W        W79974   9.149  30.320  16.650  0.2741  0.0535 -0.3274
37062W        W79975   0.883  10.592   4.128  0.1418 -0.2534 -0.0984
37063W        W79976  10.218  30.031  23.370  0.1743 -0.0815  0.0058
37064W        W79977  16.640   6.226  26.423  0.0783  0.0899  0.2532
37065W        W79978   4.992  26.773   3.006 -0.1059 -0.2403  0.0936
37066W        W79979   7.576  32.275   0.388  0.0124  0.0440  0.2900
37067W        W79980  32.006  25.156   2.676  0.1671 -0.1097  0.1567
37068W        W79981   6.736  25.233  23.665  0.0139 -0.1433 -0.2413
37069W        W79982  22.370  32.576   6.259  0.2916  0.0420  0.0467
37070W        W79983  10.538  31.960   7.287 -0.1522  0.1452  0.3189
37071W        W79984  17.071  32.852   0.216 -0.0942  0.1358 -0.0284
37072W        W79985  31.900   0.906   1.467  0.0861 -0.1115 -0.0414
37073W        W79986   0.182   6.623  25.928  0.3277  0.1001  0.0550
37074W        W79987  34.189  30.916   0.087 -0.0928 -0.3590  0.2250
37075W        W79988   0.074   4.047  29.572  0.2849 -0.3490 -0.2471
37076W        W79989   9.247   1.446  26.615 -0.0555 -0.0988 -0.2700
37077W        W79990  15.662  27.408  21.785 -0.1493 -0.0939 -0.2631
37078W        W79991  15.316   6.857   4.581  0.3793 -0.2097  0.0664
37079W        W79992  14.946  32.149  27.866 -0.0888 -0.0295  0.0810
37080W        W79993  17.857   3.797   0.891  0.4739 -0.0261  0.4314
37081W        W79994   3.857   2.787  20.389  0.3229 -0.3625 -0.0742
37082W        W79995  11.542  31.174  21.646 -0.3184  0.2682  0.0159
37083W        W79996  17.090   4.763  22.084 -0.0082  0.0941 -0.1357
37084W        W79997  13.857   3.548   0.123  0.2818  0.1308  0.1181
37085W        W79998  10.749  27.322   9.129  0.0074  0.0894 -0.2698
37086W        W79999  10.896  25.601  24.369 -0.2783  0.3368  0.0903
37087W        W80000  34.381  13.552   1.900  0.0161 -0.0501 -0.0729
37088W        W80001  33.255   8.362   4.201 -0.1325  0.0620  0.3138
37089W        W80002  16.180   1.322   5.552  0.1084 -0.0632  0.1102
37090W        W80003   2.887  21.403  26.108  0.0497 -0.2825 -0.0055
37091W        W80004   2.436  32.973   1.756 -0.4025  0.4893  0.0272
37092W        W80005  11.740  28.064   0.862  0.0002 -0.1051  0.0758
37093W        W80006  18.359  24.497  20.531 -0.0171  0.4290  0.4947
37094W        W80007  12.969   3.256  23.248 -0.2640  0.0958 -0.2481
37095W        W80008   3.188   3.955  19.608 -0.1797  0.0129 -0.1893
37096W        W80009  10.714  11.848  27.604  0.0901  0.0051 -0.2729
37097W        W80010   0.954  32.940  21.423 -0.0234  0.2106 -0.0419
37098W        W80011  11.537  31.976   3.435 -0.0490 -0.1715 -0.2814
37099W        W80012   1.500  32.507  22.608  0.2961 -0.0254  0.0085
37100W        W80013   0.611  33.911   2.189 -0.1401 -0.5012  0.1818
37101W        W80014   6.964  31.023  27.269 -0.2009  0.2055  0.1441
37102W        W80015   7.992  33.214  22.417 -0.1807 -0.0142 -0.0208
37103W        W80016   3.812  31.773   5.372 -0.1639  0.1597 -0.2563
37104W        W80017  11.120  10.414   9.218 -0.0450 -0.0932  0.0093
37105W        W80018  17.673   5.191  24.328  0.0687  0.0607 -0.0425
37106W        W80019  32.346  23.363  21.987  0.0534 -0.0886  0.1761
37107W        W80020  11.150   3.784  23.562  0.2333 -0.1002 -0.2891
37108W        W80021  28.340   3.595  24.006  0.2179  0.3241 -0.1082
37109W        W80022  13.823   2.592  27.387  0.0114 -0.2213  0.1428
37110W        W80023  15.595   2.801  25.448  0.3479  0.0388  0.1714
37111W        W80024   1.390   0.207   2.457  0.1045 -0.2721 -0.1122
37112W        W80025  11.597  30.461  29.392  0.2284 -0.2329 -0.1180
37113W        W80026   5.016  12.864  28.959  0.1676 -0.2977 -0.0258
37114W        W80027   1.573   0.496   6.609 -0.0971  0.2595  0.0625
37115W        W80028   7.834   0.533   1.258  0.0942  0.0632  0.1994
37116W        W80029   8.752   8.989   2.357 -0.0880  0.0526 -0.1530
37117W        W80030  19.434   5.515  20.613  0.0969  0.3392  0.1406
37118W        W80031   9.118   3.381   3.777 -0.0670 -0.0137 -0.0277
37119W        W80032  22.080  33.491  19.431  0.0298  0.0629  0.2752
37120W        W80033  34.455   0.280   5.956  0.0724 -0.1454  0.1539
37121W        W80034  15.787   4.426   3.776 -0.1850 -0.0686  0.3429
37122W        W80035   7.049  27.950  25.950  0.1175 -0.0280 -0.0017
37123W        W80036  14.350   7.567  25.415  0.0348  0.0019 -0.1012
37124W        W80037  32.848   6.993   9.662 -0.1923 -0.1781 -0.3164
37125W        W80038  13.203   2.895  16.898  0.2316 -0.1741 -0.0514
37126W        W80039   7.159  13.205  23.967 -0.0629 -0.1576  0.1551
37127W        W80040  17.054   4.915  20.764  0.4216 -0.1080 -0.2572
37128W        W80041  12.033  31.207  18.207  0.1825  0.2766  0.2327
37129W        W80042   8.385   3.530  28.230  0.2239  0.0160 -0.1317
37130W        W80043   4.196   3.153  28.785  0.1880  0.4441  0.0809
37131W        W80044  17.064   5.493  26.395  0.1120 -0.0752 -0.3015
37132W        W80045  13.692  29.194   0.599  0.0137 -0.2177  0.0305
37133W        W80046   0.984  32.866  27.299  0.1368  0.0157 -0.2351
37134W        W80047   6.297  26.914   6.816  0.1914 -0.0974  0.1625
37135W        W80048   5.334   3.373  25.199 -0.3336  0.1902  0.0251
37136W        W80049   6.779  34.481   2.221 -0.1579  0.2940  0.1691
37137W        W80050   9.858  26.755  27.738 -0.0596  0.2376 -0.1576
37138W        W80051   7.643   2.621   1.728  0.2085  0.2669 -0.1867
37139W        W80052  11.917  31.016   0.324 -0.1569  0.0458  0.1930
37140W        W80053  12.739  31.885  24.287 -0.1856  0.2905  0.3795
37141W        W80054  12.395  29.597  27.618 -0.1875 -0.0754  0.1627
37142W        W80055  32.298   9.739   4.711  0.3258 -0.1150  0.0616
37143W        W80056   6.494   4.382   9.707  0.1215 -0.0623  0.3157
37144W        W80057  21.564   6.321  26.968 -0.1716  0.3788 -0.1070
37145W        W80058  21.331   1.376  10.061 -0.1723  0.1665  0.0107
37146W        W80059  12.929   5.920   3.361  0.0377  0.0014  0.0290
37147W        W80060  10.458  33.408   1.101  0.0314  0.2588 -0.0489
37148W        W80061  13.908  29.793  20.825 -0.0945 -0.1477 -0.0040
37149W        W80062  18.696   1.732  25.977  0.2798  0.5888  0.0834
37150W        W80063  10.693  31.389  24.865  0.3066 -0.3600 -0.3564
37151W        W80064   3.994  31.340   6.140  0.2165 -0.0791  0.1957
37152W        W80065   7.331  33.310  27.035 -0.2080  0.0050 -0.1474
37153W        W80066   6.119   2.838  19.773  0.1144  0.0436  0.1577
37154W        W80067   6.753  26.571  21.608  0.1567  0.2235  0.0729
37155W        W80068   6.061  33.046   0.657 -0.0317 -0.2057  0.2693
37156W        W80069   8.685  27.885  28.778  0.0327 -0.0997  0.1086
37157W        W80070  33.796   2.746  29.667 -0.0972  0.1881  0.3389
37158W        W80071  17.297  33.481   4.693  0.0818  0.1371 -0.1496
37159W        W80072   1.102  11.142  26.156  0.1483  0.0619 -0.1174
37160W        W80073   8.451  27.973  23.152 -0.4800 -0.3087  0.0187
37161W        W80074  30.755   4.046  24.085  0.0468  0.1023 -0.2397
37162W        W80075   8.527   2.971  21.617  0.0130  0.1656  0.0302
37163W        W80076   1.285  33.551   5.930  0.0800  0.1563  0.1609
37164W        W80077  23.443  34.247   7.969  0.3363  0.2259  0.1998
37165W        W80078  21.334  29.915  25.552 -0.2340  0.1040  0.0233
37166W        W80079  34.401  11.059   2.693 -0.0951 -0.0652 -0.0055
37167W        W80080  11.771   2.746   2.139 -0.0502 -0.0668 -0.0740
37168W        W80081  32.305   1.266  16.892  0.2192  0.3451 -0.2443
37169W        W80082  10.771   1.045  17.573  0.1000  0.1108  0.1319
37170W        W80083   7.016   8.113   2.143 -0.0605 -0.1874  0.0138
37171W        W80084   8.635  32.711  24.310  0.2185 -0.1597  0.1192
37172W        W80085  22.687  19.895   2.793  0.5939  0.1243  0.2746
37173W        W80086  15.966  29.192  26.597  0.1043  0.0926 -0.0877
37174W        W80087  16.218  32.073   4.747 -0.0981  0.1418  0.1380
37175W        W80088  10.477   8.219  16.723 -0.1868  0.1191  0.0895
37176W        W80089   8.869  30.426  20.185  0.0432  0.0126  0.0573
37177W        W80090   2.484   5.500  27.878  0.0442  0.2773 -0.1224
37178W        W80091  10.789  32.065   6.867 -0.2174 -0.3935  0.1015
37179W        W80092   0.249   4.940   2.281  0.1015  0.0017 -0.0877
37180W        W80093   3.992  28.002  25.507  0.0351 -0.0357  0.0402
37181W        W80094   0.030  30.190  23.456 -0.0533 -0.0529 -0.0757
37182W        W80095  11.635  29.335  28.403 -0.1109  0.2427 -0.1042
37183W        W80096  10.644   5.465   6.367 -0.2444 -0.0414 -0.1180
37184W        W80097  10.832  30.318  20.894 -0.0807  0.2058  0.2625
37185W        W80098   9.981  33.147  29.107 -0.5060  0.0593  0.0987
37186W        W80099  17.611  13.119  26.516  0.1046 -0.2651 -0.0885
37187W        W80100  16.525  31.864  19.246  0.2964  0.0687  0.0027
37188W        W80101  19.893   5.275  24.876 -0.0881  0.0064 -0.1257
37189W        W80102  16.678  23.387  22.933  0.1825  0.3382  0.2556
37190W        W80103  15.936   2.697   0.048 -0.1429 -0.1204 -0.0314
37191W        W80104  32.275  30.788  27.973  0.2268 -0.0473  0.5335
37192W        W80105  24.612  27.067  19.510  0.1103  0.0449  0.1233
37193W        W80106  12.104  33.875   2.932 -0.0463 -0.1819 -0.0170
37194W        W80107   8.125   6.671   3.681 -0.1188  0.0327  0.0855
37195W        W80108   3.740   4.179  28.867  0.0808 -0.1627 -0.1512
37196W        W80109  16.562  30.245  24.389  0.0846 -0.0846 -0.0050
37197W        W80110   7.381   1.954  27.965 -0.3022 -0.0788  0.3964
37198W        W80111   1.004  23.095  17.575 -0.1312  0.2134 -0.2371
37199W        W80112  22.499  33.396   1.031  0.0431  0.1507  0.0300
37200W        W80113  17.370   9.012  29.620 -0.0536  0.0093  0.1063
37201W        W80114   5.027   1.804  26.345  0.0037 -0.2418 -0.1035
37202W        W80115   3.607   2.608   9.086  0.2286 -0.4358  0.1239
37203W        W80116   5.236  14.713   4.144 -0.0923 -0.0569  0.0665
37204W        W80117  32.097  11.779  29.634 -0.0310 -0.0295  0.0062
37205W        W80118  20.876   0.636  29.290  0.3568 -0.0845 -0.2938
37206W        W80119   5.547   2.275  24.298  0.1049 -0.1774  0.0231
37207W        W80120  15.658  25.079  25.337 -0.0700 -0.0644 -0.1153
37208W        W80121   8.317  10.167  18.029 -0.0660  0.2693 -0.0156
37209W        W80122   5.485  12.943  29.087 -0.0376  0.0717 -0.0175
37210W        W80123   5.141   4.347  23.480  0.3099 -0.1867  0.1802
37211W        W80124   6.036   1.545   0.038 -0.0557  0.0555  0.2362
37212W        W80125  13.420  31.947  28.112  0.0610 -0.3280  0.4171
37213W        W80126  31.668   5.369  22.230  0.1759 -0.1449 -0.1391
37214W        W80127   9.515   5.945  23.236  0.1287 -0.1128  0.0443
37215W        W80128  17.125  33.456  19.460 -0.0405 -0.0107 -0.2880
37216W        W80129  13.466   0.530  18.149  0.0685  0.0592 -0.0318
37217W        W80130   5.543  32.461  25.767 -0.0704 -0.0700 -0.1456
37218W        W80131   4.766  22.145   5.104 -0.2266 -0.3657 -0.0084
37219W        W80132   9.620  30.140   7.560 -0.0854 -0.1798  0.2835
37220W        W80133  30.014   2.737  24.045 -0.0939 -0.3252  0.1939
37221W        W80134  13.548   5.152  16.545 -0.1411  0.0682  0.1170
37222W        W80135   8.320   7.081  24.004  0.0810  0.1351 -0.2311
37223W        W80136   9.539  31.672  23.260 -0.0941  0.3030 -0.2104
37224W        W80137  19.600   6.234   2.288 -0.0388  0.1539 -0.0753
37225W        W80138  13.375   3.929  27.479  0.2910  0.0182  0.4264
37226W        W80139  33.833   3.301  28.679  0.2483  0.1105 -0.2831
37227W        W80140  18.175  33.946  25.282  0.0396 -0.1604  0.2938
37228W        W80141  11.985   2.550   5.601  0.1241 -0.0174 -0.3862
37229W        W80142  13.012   4.011  19.040 -0.3879 -0.2964 -0.2782
37230W        W80143   4.317   4.543   0.183  0.0728  0.3253 -0.1266
37231W        W80144   1.592  24.953  22.698 -0.1770 -0.1080 -0.3586
37232W        W80145  12.234   0.929   8.341 -0.0085 -0.1028 -0.0420
37233W        W80146   2.351   4.704   6.177  0.1459 -0.2054  0.0923
37234W        W80147   6.119   9.955  26.079 -0.0034  0.0179 -0.0171
37235W        W80148  11.344  32.199  27.929  0.0003  0.2569 -0.3420
37236W        W80149   2.276   6.090  28.796 -0.1374  0.2164 -0.1451
37237W        W80150  10.259   4.335   0.272 -0.0079 -0.0707  0.1335
37238W        W80151   8.355   0.001   7.031 -0.1509  0.2120  0.0846
37239W        W80152   8.890   8.117   1.105 -0.1556  0.0594  0.0696
37240W        W80153   6.423   5.155   0.176 -0.2153 -0.1052 -0.1105
37241W        W80154  13.387   0.649  19.183 -0.1437  0.1624  0.0440
37242W        W80155  10.274   0.738  29.665 -0.1039 -0.0173  0.1550
37243W        W80156   1.405  32.468  21.205  0.0778 -0.2772  0.0932
37244W        W80157  31.197   6.878  25.995  0.2538 -0.1425 -0.1144
37245W        W80158  14.411   2.618  22.637  0.0224 -0.0835 -0.1889
37246W        W80159   4.945  27.667   2.060 -0.2161  0.3765  0.2355
37247W        W80160  25.219   9.080   7.159  0.3561 -0.0425  0.0968
37248W        W80161   8.854   2.367   3.542  0.1888  0.0991  0.3507
37249W        W80162  13.005  32.704   1.910  0.3743  0.0934 -0.2111
37250W        W80163   1.056   3.703  17.847  0.0222  0.2496  0.1962
37251W        W80164   3.101   7.882  19.976 -0.1649  0.2563 -0.3442
37252W        W80165  11.352  29.132  26.744  0.4515 -0.0897 -0.1624
37253W        W80166   5.740  28.383  20.168  0.1034  0.0859  0.2478
37254W        W80167   3.787   1.234  29.338 -0.0197  0.0988  0.2607
37255W        W80168  30.932  24.052  21.395  0.0493 -0.0395 -0.1006
37256W        W80169  19.578  12.670   6.118 -0.2971 -0.1148 -0.1062
37257W        W80170  32.551   1.940   2.325 -0.0453  0.0411  0.2167
37258W        W80171  12.416   6.374   9.729  0.2677  0.0637  0.1258
37259W        W80172  20.528   6.703  25.250 -0.1999  0.1120  0.0139
37260W        W80173   8.559  29.426  20.306 -0.0645 -0.1456 -0.4069
37261W        W80174  26.401   3.326   3.554 -0.0396 -0.1421 -0.1837
37262W        W80175  11.031  23.978  28.650 -0.0110 -0.2324  0.0870
37263W        W80176  10.363   0.411  26.645  0.1499  0.0261 -0.0958
37264W        W80177  20.092  32.227   7.296 -0.1531 -0.1405  0.0200
37265W        W80178   8.320   3.041  27.977  0.0648  0.0146  0.0876
37266W        W80179   6.405   1.899   3.504 -0.2726 -0.1239 -0.0973
37267W        W80180   9.453  33.634   5.974 -0.2225 -0.2316 -0.1451
37268W        W80181   8.116   0.916  20.467  0.2444 -0.0452 -0.2812
37269W        W80182  14.005  28.266   0.045 -0.1730 -0.0065 -0.1222
37270W        W80183  10.935   4.081  24.995  0.0145 -0.2003  0.2617
37271W        W80184   8.798   4.538   3.400 -0.2204 -0.0405  0.0789
37272W        W80185  16.798   5.733  22.964  0.2028 -0.1699 -0.2252
37273W        W80186   7.214  29.264  23.260  0.1153 -0.1479 -0.2588
37274W        W80187  11.895   4.995   2.224  0.2026  0.0296  0.0061
37275W        W80188   3.320  29.329  25.766  0.2828  0.0614 -0.2882
37276W        W80189  28.617  13.176  25.206  0.1556 -0.1273 -0.3215
37277W        W80190   5.665  28.635   5.410 -0.2360  0.0788  0.2232
37278W        W80191   0.770  30.198  22.756  0.0265 -0.1653  0.1755
37279W        W80192  12.447  28.593   2.847  0.1744  0.0246 -0.0125
37280W        W80193   3.105  32.165  10.452 -0.0518  0.3986 -0.0176
37281W        W80194  14.017   0.286  18.896  0.3730  0.0229 -0.0865
37282W        W80195  14.907  11.808  27.770  0.0099  0.3290  0.4125
37283W        W80196   7.333  33.338  22.993  0.1151 -0.1432  0.0083
37284W        W80197  12.026   5.432   9.431  0.0070  0.1624  0.3071
37285W        W80198  12.928  28.521   2.655 -0.0114 -0.1085  0.1823
37286W        W80199   6.169   0.863  25.001  0.1634 -0.0569 -0.1340
37287W        W80200  13.435  30.867  23.657  0.0263 -0.3016  0.1157
37288W        W80201  16.064  33.895   1.102 -0.0444 -0.1098 -0.1085
37289W        W80202  33.219   3.464  26.412  0.1751 -0.1498  0.0410
37290W        W80203   9.429   4.006  29.144  0.1619 -0.1960  0.1753
37291W        W80204   8.036   4.366   9.473 -0.1870 -0.0215 -0.1396
37292W        W80205   1.265  28.341   3.056  0.2015  0.0211 -0.2662
37293W        W80206  10.866  32.210   2.421 -0.0907 -0.1736 -0.1044
37294W        W80207  31.600   0.844   4.435  0.0098 -0.3898  0.0175
37295W        W80208   5.034  29.163   2.444  0.3046  0.0238 -0.0605
37296W        W80209   7.460  29.331  24.118  0.5045 -0.2669 -0.1323
37297W        W80210  18.106  29.455  17.582  0.1921 -0.0947  0.4059
37298W        W80211  10.152   1.628  11.688  0.2927 -0.2345  0.1982
37299W        W80212   9.071   0.385  17.776 -0.2884 -0.0500  0.0477
37300W        W80213  16.107  28.804  24.460 -0.4136 -0.0426  0.3268
37301W        W80214  14.415   3.309  21.569 -0.0690  0.0233 -0.2194
37302W        W80215   1.952   5.774  28.588  0.1137  0.1509 -0.0148
37303W        W80216  15.928  33.140   1.809 -0.0035  0.1492 -0.1631
37304W        W80217  33.243  33.927   4.754 -0.0415  0.0449  0.0169
37305W        W80218  16.687   4.420   4.986  0.0710  0.0883 -0.0809
37306W        W80219  15.616   2.401  10.916  0.1722  0.1459  0.1820
37307W        W80220   1.467   2.231  29.177  0.0320 -0.1514  0.0855
37308W        W80221   3.048  28.951   1.022  0.1839 -0.0653 -0.0769
37309W        W80222  20.654  24.012  20.765  0.2808 -0.0622 -0.0411
37310W        W80223  12.183  24.575  19.134  0.1074  0.1597  0.0737
37311W        W80224  32.640  27.371  28.779  0.0757 -0.1930  0.0035
37312W        W80225  30.734  31.203   2.846  0.2688 -0.0030 -0.1569
37313W        W80226  31.845  23.270  25.683  0.2352 -0.1791 -0.0465
37314W        W80227   2.187   3.540  12.314  0.2803  0.0684  0.1926
37315W        W80228  16.884   8.959  18.361 -0.0788 -0.0542  0.0590
37316W        W80229  11.384  13.775  29.103 -0.1445  0.1308  0.0128
37317W        W80230  24.649  31.721   7.357  0.0217  0.1110  0.0879
37318W        W80231  15.876  22.450  26.439  0.2109 -0.0104  0.4284
37319W        W80232  18.657   5.002  20.616  0.1904  0.3520 -0.3173
37320W        W80233  33.358  32.548   4.663  0.1146 -0.0547 -0.3871
37321W        W80234  18.741  33.310   0.242 -0.0030 -0.0225 -0.2614
37322W        W80235  15.390   5.115  24.217 -0.0001  0.1586 -0.0996
37323W        W80236  13.629   1.491  24.760 -0.0533 -0.0332  0.3989
37324W        W80237  22.149  31.271  29.601  0.3246 -0.0387 -0.0934
37325W        W80238   4.579   3.972   5.795 -0.0243  0.0503  0.2487
37326W        W80239   4.158   0.231  26.934 -0.2255  0.0282 -0.3461
37327W        W80240   1.180   3.244   3.816 -0.0285  0.0549 -0.0923
37328W        W80241  16.201  12.865  29.594  0.1295  0.0009 -0.1308
37329W        W80242   1.793  29.717  13.894  0.1239  0.1589  0.1894
37330W        W80243  13.346  10.900  16.943 -0.2297  0.1523  0.4296
37331W        W80244   3.762   3.648  20.332 -0.0349  0.3124  0.2672
37332W        W80245   4.077   5.654   0.861 -0.3652  0.0740 -0.2455
37333W        W80246  22.498  23.455  23.745 -0.3016  0.2091  0.2720
37334W        W80247  16.509  21.169  21.794 -0.5197  0.1399 -0.3322
37335W        W80248  16.275  33.986  28.182 -0.1008  0.1801  0.1455
37336W        W80249   5.650  32.018  20.827  0.0239 -0.0515 -0.0721
37337W        W80250   6.780   6.328   5.161  0.0100  0.1149  0.2424
37338W        W80251  18.128  31.615  14.644  0.0988  0.0180 -0.0906
37339W        W80252  17.414   4.991  28.925 -0.2563 -0.0425  0.3587
37340W        W80253  15.085  31.252  26.546  0.5893 -0.1034  0.0817
37341W        W80254   5.319   5.766   4.456 -0.0167  0.2173  0.1002
37342W        W80255  11.275  31.295   2.584 -0.0768 -0.1143 -0.3032
37343W        W80256  11.946  32.838   6.435 -0.2338 -0.0493  0.0153
37344W        W80257   4.302   3.919   2.706  0.2496 -0.0847 -0.1142
37345W        W80258  32.396  32.595  26.321  0.0632  0.0076  0.3831
37346W        W80259  34.139  31.026  23.612  0.0796  0.1484 -0.1245
37347W        W80260  16.568   0.062  27.769  0.1645  0.1290 -0.2975
37348W        W80261  19.596   0.475  24.068  0.2132  0.0038  0.0279
37349W        W80262   6.089   2.138   0.575  0.5137 -0.0294  0.0972
37350W        W80263  22.630  32.696  18.188 -0.0108  0.6319  0.1642
37351W        W80264   5.082   9.086  23.704 -0.3283  0.1662  0.0416
37352W        W80265  32.767   3.896  26.202 -0.1047 -0.0289  0.1181
37353W        W80266   1.947  11.075  17.322 -0.2118  0.0091  0.0252
37354W        W80267  18.449  30.696  24.657 -0.4810 -0.0435 -0.1487
37355W        W80268   4.030   4.895   9.610  0.2316 -0.3032 -0.1008
37356W        W80269  11.280   5.773   2.719 -0.1531 -0.3726  0.0686
37357W        W80270   8.773  29.007  16.876  0.1856 -0.1206  0.0332
37358W        W80271   3.077   1.552  27.610  0.0174  0.4014  0.1684
37359W        W80272  11.647  29.012  21.991  0.2019  0.1113 -0.0159
37360W        W80273  16.112  30.575  28.281  0.0080  0.0517  0.2805
37361W        W80274  10.808  12.286  23.551  0.0360  0.1617  0.1525
37362W        W80275   2.417   0.372  24.394 -0.1508 -0.0919 -0.1874
37363W        W80276  10.681  27.731  24.997  0.0438  0.0529 -0.2242
37364W        W80277  10.478   6.348  20.787  0.0978  0.1444  0.0059
37365W        W80278   1.222   2.510  26.159 -0.0925 -0.3212  0.1387
37366W        W80279   5.392  30.720   8.822 -0.1818 -0.2736  0.0515
37367W        W80280  10.383   6.556   5.052 -0.4328  0.3402  0.3548
37368W        W80281   2.029  32.884   1.361  0.0463 -0.3184  0.2963
37369W        W80282   2.713   2.753   4.507  0.1727  0.2067 -0.1071
37370W        W80283   2.350   4.049   2.018 -0.1448 -0.0650  0.1193
37371W        W80284  14.446   7.812  29.274  0.1462  0.0212 -0.1694
37372W        W80285   5.612  33.446  22.570  0.0439 -0.0582 -0.3297
37373W        W80286   5.710  31.997   8.146  0.4853  0.1343 -0.1467
37374W        W80287   7.398   4.030  21.531  0.0439 -0.1809 -0.0440
37375W        W80288  22.254   5.791  28.012 -0.1919  0.2489  0.0727
37376W        W80289  15.417  11.778  18.545 -0.0774 -0.0024 -0.0562
37377W        W80290   0.580  31.738  21.449  0.1673  0.1711 -0.1648
37378W        W80291  11.413  31.033  26.897 -0.1649  0.1959 -0.0454
37379W        W80292   4.714   2.058   7.601 -0.0212 -0.1881  0.3814
37380W        W80293   3.810  32.985  26.679 -0.0821 -0.0256 -0.1449
37381W        W80294  13.916   8.321   6.294  0.0778 -0.2029 -0.1336
37382W        W80295   2.367   6.335   1.950 -0.0688  0.2398 -0.1379
37383W        W80296   3.166  26.483   0.376  0.1012  0.2046 -0.2032
37384W        W80297   8.161  28.354  29.368 -0.2195 -0.1263  0.0842
37385W        W80298   6.797  29.518  23.307 -0.0483  0.0029 -0.0046
37386W        W80299  11.214  25.038   1.444 -0.3528  0.3431  0.1799
37387W        W80300   7.861   7.152   0.422 -0.3773  0.0655  0.2696
37388W        W80301  13.195  22.429  25.322  0.0143  0.0899 -0.1405
37389W        W80302  10.122   4.701   9.733  0.0363  0.1773  0.1320
37390W        W80303   8.076  23.465  23.724 -0.1175 -0.0008  0.0613
37391W        W80304   6.866  33.214   2.416  0.0824 -0.0670  0.0070
37392W        W80305  17.025   8.467  27.257 -0.0283  0.1792 -0.1419
37393W        W80306  10.815  16.691  24.132  0.2670 -0.2615  0.5581
37394W        W80307  19.351  11.653  26.971 -0.1366 -0.0779  0.0689
37395W        W80308  16.973   1.156  17.151 -0.1057  0.1496 -0.2801
37396W        W80309  17.853   7.722   1.713  0.1949 -0.0744 -0.1633
37397W        W80310  10.634   0.176   1.515  0.0157  0.0784 -0.1390
37398W        W80311  16.174   8.858   2.149 -0.1645 -0.2126 -0.0950
37399W        W80312  10.929   4.105  26.483 -0.0835  0.0795  0.0458
37400W        W80313  17.813   3.523  28.294  0.1501 -0.1937  0.1534
37401W        W80314   1.505   6.415  25.268  0.3292 -0.0455  0.2256
37402W        W80315  17.695   6.474   1.526  0.1799 -0.1922 -0.3323
37403W        W80316   4.892  33.843  29.401  0.1626  0.0610  0.0027
37404W        W80317   9.852   9.291  29.289 -0.1404 -0.0618 -0.3269
37405W        W80318  18.989   8.335   4.693  0.2414  0.1480  0.3646
37406W        W80319   8.843  34.387   6.109  0.2384 -0.1216  0.1620
37407W        W80320  15.404   2.763   3.505  0.2404  0.1461 -0.2876
37408W        W80321  14.695   6.920  26.127  0.2682 -0.1540  0.0028
37409W        W80322   8.722  28.247  23.834  0.0815 -0.5661  0.1693
37410W        W80323  28.695   4.406  25.936  0.1341  0.1957  0.0625
37411W        W80324   6.076   0.715  22.154 -0.3825 -0.0805  0.0994
37412W        W80325  14.657   1.409  27.873  0.3184 -0.0448  0.2457
37413W        W80326  17.604   4.034   3.417  0.0027  0.1151  0.2010
37414W        W80327  12.116  31.956  18.494 -0.0397 -0.1532  0.2407
37415W        W80328   4.638   0.299   8.887 -0.0502  0.2753 -0.0425
37416W        W80329  18.147  30.415  20.156  0.1322  0.3066  0.2581
37417W        W80330  15.837  31.335  29.465 -0.2621  0.2619 -0.3411
37418W        W80331   4.600   2.678  25.239 -0.4356 -0.1502  0.0394
37419W        W80332  14.805   7.529   2.969 -0.2310  0.2084 -0.2259
37420W        W80333   6.342   3.287   7.267 -0.2312 -0.0215  0.0399
37421W        W80334  17.699  25.078  28.052  0.1670  0.0236  0.1544
37422W        W80335   5.856  11.647   8.318  0.0939  0.2459 -0.0296
37423W        W80336  10.634   6.829  20.420 -0.0183 -0.0865  0.0196
37424W        W80337  16.808   2.707  27.957 -0.0983  0.3330 -0.2757
37425W        W80338   1.191  29.476  15.954  0.2176 -0.0595 -0.2429
37426W        W80339  14.802  29.490   1.986 -0.0169  0.1950  0.1382
37427W        W80340  12.415   9.677  25.437  0.0761  0.2925  0.1889
37428W        W80341  32.898  33.682  26.274  0.2220 -0.0895 -0.0470
37429W        W80342   8.174   0.030  11.907  0.1357 -0.1296  0.0480
37430W        W80343   7.559  30.908   4.744  0.1137  0.3488  0.0405
37431W        W80344  13.196  14.292  28.492 -0.1043 -0.2011  0.4118
37432W        W80345  19.253   0.281   8.634 -0.0169  0.3555 -0.0770
37433W        W80346  11.408  13.057  25.577  0.0276  0.0682  0.1347
37434W        W80347  14.168  34.287   3.703  0.0121  0.1811  0.2145
37435W        W80348   0.434   0.163  23.284  0.0289  0.4330 -0.2475
37436W        W80349   5.624  17.250  14.245  0.3736 -0.2144  0.0704
37437W        W80350   6.184  32.473  19.785  0.1565 -0.0297 -0.0318
37438W        W80351  13.699   7.125  17.574 -0.2899 -0.3446  0.0729
37439W        W80352  13.831   8.572  16.275  0.1001  0.0511 -0.1668
37440W        W80353  13.332   0.946  18.752 -0.0048 -0.0694 -0.1012
37441W        W80354  11.604  13.020  16.965 -0.0022  0.3299 -0.1902
37442W        W80355  13.241  32.664  22.557 -0.0062 -0.4585 -0.1746
37443W        W80356  16.407  27.971  18.178  0.0781  0.0627  0.1191
37444W        W80357  13.962   0.623  19.549  0.0464  0.2192 -0.2724
37445W        W80358  23.393   8.652  14.878  0.0176 -0.2335 -0.0031
37446W        W80359   2.769  32.845  15.846  0.1618 -0.0186 -0.1557
37447W        W80360   8.528  30.914  21.072 -0.1539 -0.2756 -0.3174
37448W        W80361  11.692   3.734  20.668  0.1042  0.0121 -0.2678
37449W        W80362  16.101  14.447  26.789 -0.0062  0.1750 -0.3951
37450W        W80363   8.154   8.673  17.198 -0.0418  0.0695 -0.3857
37451W        W80364   8.916   6.942  20.305  0.0800 -0.0527 -0.2587
37452W        W80365   4.278   4.226  23.117 -0.0075  0.0622  0.0991
37453W        W80366  11.830   3.666  25.802 -0.0624 -0.0993 -0.1139
37454W        W80367   1.471  32.189  15.482  0.1006  0.0529 -0.1579
37455W        W80368   4.762   5.620  21.801  0.0053 -0.2305  0.0312
37456W        W80369   4.636  13.493  21.196  0.0142  0.0868  0.0071
37457W        W80370  13.982  15.267  15.271  0.0262  0.3714  0.0266
37458W        W80371   5.886  31.639  16.337 -0.1302 -0.0402 -0.1833
37459W        W80372  11.244  22.281  21.211  0.2171  0.0336 -0.0726
37460W        W80373  19.546   0.007  15.770 -0.0902 -0.0303 -0.2162
37461W        W80374  10.770  29.775  17.311  0.1838 -0.1830  0.2879
37462W        W80375  11.618   2.349  17.237  0.0957  0.0796  0.3535
37463W        W80376   9.582   5.416  23.203 -0.0263 -0.2013 -0.0536
37464W        W80377   7.061  10.024  17.691  0.0236 -0.0302  0.2309
37465W        W80378   2.951   7.793  28.607  0.0653  0.2012  0.3325
37466W        W80379  18.545   7.419  21.387 -0.4626 -0.3024  0.0648
37467W        W80380  16.921   0.240  20.974  0.1830 -0.0019 -0.3138
37468W        W80381   6.600   4.378  17.034 -0.0001 -0.1425  0.3473
37469W        W80382   7.175  11.425  21.786 -0.0748 -0.1434  0.2333
37470W        W80383   7.221  10.144  17.183  0.0007 -0.0272 -0.4145
37471W        W80384   4.863   6.777  19.579 -0.1796  0.1058  0.1392
37472W        W80385  12.003   3.810  22.046 -0.0019  0.1611 -0.1423
37473W        W80386   3.126  10.904  25.630 -0.1562 -0.2399 -0.4947
37474W        W80387  12.787  31.247  29.446  0.0963  0.0203  0.0660
37475W        W80388   5.085   0.627  20.647  0.0691  0.2422  0.3068
37476W        W80389   9.686   4.244  23.298  0.0041 -0.1714 -0.0401
37477W        W80390  15.040   2.680  15.366 -0.0819 -0.2610 -0.2832
37478W        W80391  26.096   9.305  22.369  0.1328  0.1009 -0.2238
37479W        W80392  29.391   4.187  19.849  0.2047 -0.2910 -0.1417
37480W        W80393   7.357   4.028  18.955  0.5128 -0.2048 -0.1677
37481W        W80394   8.605   5.921  22.491 -0.2194 -0.1510 -0.2548
37482W        W80395  13.946   2.743  18.667  0.1113  0.0193 -0.0003
37483W        W80396  12.322   6.650  21.352 -0.0088  0.0060 -0.0183
37484W        W80397  19.051   1.898  23.485 -0.2263 -0.0139 -0.4669
37485W        W80398  13.254   1.388  22.045  0.0056  0.5580  0.0197
37486W        W80399   4.435   2.776  17.706  0.1493  0.3045  0.3279
37487W        W80400   6.953   4.192  17.328  0.0114  0.0538 -0.2658
37488W        W80401  11.546   4.523  22.508 -0.0370 -0.0877 -0.3151
37489W        W80402  31.954  14.876  15.133  0.0692 -0.2905 -0.1809
37490W        W80403   8.659  30.005  25.435  0.0329 -0.2131 -0.0004
37491W        W80404  13.743   9.798  22.186 -0.3653  0.1558  0.0458
37492W        W80405  13.123  34.204  26.176  0.0253  0.0176  0.0327
37493W        W80406   9.058  33.822  18.538 -0.0964 -0.1607  0.0776
37494W        W80407  13.325   0.696  22.303 -0.1048 -0.2459 -0.0321
37495W        W80408   9.517  12.595  22.945  0.3290 -0.2516  0.2440
37496W        W80409   3.785  10.236  20.130  0.1258 -0.3712 -0.2106
37497W        W80410  22.355   9.956  15.951 -0.2208  0.0618  0.1775
37498W        W80411   2.369   9.617  22.228  0.1558  0.2873 -0.2014
37499W        W80412   4.972   5.939  19.549  0.1508  0.3065 -0.1852
37500W        W80413   8.652  32.552  29.758 -0.0087  0.1181 -0.2141
37501W        W80414  11.030   0.905   2.119 -0.1614 -0.0244 -0.0755
37502W        W80415   4.584   4.061  17.466 -0.1980  0.1996  0.1055
37503W        W80416  22.675   3.467  22.234 -0.0572  0.1736 -0.4388
37504W        W80417  33.192  11.008  17.745 -0.0335 -0.0098  0.1897
37505W        W80418  11.145  30.521  18.437  0.4969  0.0164 -0.0913
37506W        W80419  21.116  13.045  23.726 -0.2408 -0.2522 -0.0694
37507W        W80420  11.871   5.898  17.907  0.1526 -0.0077  0.4295
37508W        W80421  12.527  16.625  15.571  0.2510 -0.0287  0.0417
37509W        W80422   8.749  30.474  23.866  0.1611  0.0206 -0.0057
37510W        W80423  18.493   7.939  22.145 -0.1413  0.0761 -0.1768
37511W        W80424  12.660  11.785  15.103 -0.0326 -0.0849  0.3378
37512W        W80425  13.522  33.869  19.513  0.2541  0.2408 -0.0879
37513W        W80426  17.169   7.973  15.356  0.1405 -0.0418  0.0506
37514W        W80427   6.926   6.095  20.410 -0.1630 -0.3592 -0.1175
37515W        W80428   9.129   2.830   2.655  0.3347 -0.4233 -0.1500
37516W        W80429   8.798   3.888  22.723 -0.2565 -0.0244 -0.0014
37517W        W80430  10.565  10.956  15.793 -0.2843 -0.1605  0.0814
37518W        W80431   4.255   3.533  25.567 -0.0962  0.0162  0.1733
37519W        W80432  31.295   8.862   2.038  0.0118  0.1456  0.0683
37520W        W80433   2.745   9.622  18.814  0.0181 -0.0349  0.1123
37521W        W80434   7.939  24.647  16.929  0.0259  0.0352  0.1433
37522W        W80435   4.179   5.365  23.455  0.1407  0.1494  0.0820
37523W        W80436  10.582  33.697  21.356  0.1410  0.0601  0.1089
37524W        W80437   7.576  27.073  23.084 -0.0874 -0.0209 -0.1539
37525W        W80438  13.374  14.616  18.834  0.2296  0.1336 -0.0371
37526W        W80439   7.225  33.399  29.642 -0.3517  0.0011  0.3140
37527W        W80440  31.961   1.469  17.699  0.1691  0.1026 -0.0250
37528W        W80441   0.466  34.234  19.275 -0.0500 -0.2114  0.0519
37529W        W80442  18.596  33.742  26.697 -0.1082 -0.4019 -0.0509
37530W        W80443   6.618  31.305  16.283 -0.0352 -0.0905 -0.0140
37531W        W80444  18.679   0.834  15.777 -0.0895  0.2316 -0.0005
37532W        W80445  10.216   8.732  18.125 -0.0031  0.1057  0.1941
37533W        W80446  31.744  10.108  29.056  0.0193  0.2066  0.2056
37534W        W80447   6.933  28.498  20.721 -0.3532  0.0505  0.2421
37535W        W80448   7.829  30.622  26.943  0.1078 -0.1334  0.0313
37536W        W80449  15.493   9.766  21.060 -0.0366  0.0378  0.1862
37537W        W80450   6.210  32.876  20.038 -0.3186 -0.1231  0.2739
37538W        W80451   7.534   9.307  26.844  0.1247 -0.1541 -0.0216
37539W        W80452  26.057  33.914  22.108 -0.0232 -0.1759 -0.3114
37540W        W80453  11.296   9.885  17.517 -0.0236  0.0211  0.1558
37541W        W80454  12.750   3.953  16.799  0.3245  0.0125 -0.2283
37542W        W80455  21.929  16.401  23.311  0.2918 -0.1813 -0.0907
37543W        W80456   9.173  11.101  23.514 -0.0437 -0.0227 -0.0232
37544W        W80457  19.227   7.547  21.426  0.0756 -0.1237  0.0417
37545W        W80458  12.698   2.724  21.627 -0.1341  0.1418 -0.0483
37546W        W80459  25.444   1.070  15.365  0.0098  0.0920  0.0915
37547W        W80460  14.763   6.288  20.695 -0.2956 -0.5620  0.2177
37548W        W80461  11.572  19.242  13.700 -0.0315 -0.2604 -0.1539
37549W        W80462  12.381   0.362  20.247  0.0880 -0.0345  0.0780
37550W        W80463  11.353   5.323  16.794 -0.0235 -0.0345 -0.1952
37551W        W80464   9.221   9.972  24.476  0.1206  0.0710  0.0780
37552W        W80465  30.149  22.464  21.257  0.2918  0.0207  0.2672
37553W        W80466  18.787  28.892  19.659 -0.0418 -0.2173 -0.0173
37554W        W80467  17.189   2.860  17.775  0.4749 -0.0561  0.0643
37555W        W80468  33.452  11.191  19.548  0.2512  0.1795 -0.0736
37556W        W80469  17.697   7.905  22.699 -0.2810 -0.0481 -0.0449
37557W        W80470   7.132   6.693  17.338  0.0152 -0.2712 -0.1139
37558W        W80471   9.227  12.238  22.135 -0.0846 -0.0697  0.1913
37559W        W80472   8.060   2.340  24.470  0.1752  0.2966 -0.0317
37560W        W80473   2.875  26.042  21.775  0.1398 -0.2202  0.0478
37561W        W80474   6.070   3.163  17.756 -0.0242 -0.2724  0.0894
37562W        W80475   1.285   3.411  19.915  0.2301 -0.1469  0.0404
37563W        W80476  15.517   3.714  24.367  0.2610  0.2582  0.0244
37564W        W80477  20.143   9.376  16.675 -0.0057 -0.0431 -0.0572
37565W        W80478   8.121   2.037  18.964  0.0256 -0.1772 -0.1248
37566W        W80479  11.066  11.278  15.806  0.0151  0.2227 -0.0749
37567W        W80480   7.983  10.510  24.826  0.2153 -0.1505 -0.0274
37568W        W80481  16.616   7.979  15.575 -0.1282 -0.1713  0.0528
37569W        W80482   5.968   4.229  18.225 -0.2228  0.1401 -0.2684
37570W        W80483   2.495   4.969  28.128 -0.1076 -0.0242 -0.4465
37571W        W80484  10.768   9.490  21.786 -0.2042 -0.3290  0.1310
37572W        W80485  29.429   7.522  20.356  0.1275 -0.1058  0.2889
37573W        W80486   6.934  12.245  17.691 -0.0053 -0.2076  0.0513
37574W        W80487   9.679  10.781  22.963  0.3814 -0.0469 -0.1276
37575W        W80488  11.454   5.284  19.259 -0.0193  0.0741 -0.1146
37576W        W80489   3.322  32.561  20.951  0.2196 -0.4300 -0.3682
37577W        W80490  14.744  32.235  23.701  0.1926  0.2697 -0.0529
37578W        W80491  16.656  25.130  16.702  0.1131  0.2061  0.3136
37579W        W80492  11.974  10.057  21.331  0.1410 -0.0634  0.3148
37580W        W80493   3.458   0.329  24.227 -0.1550 -0.0349  0.1504
37581W        W80494  33.138   0.881  24.825  0.1792 -0.0713  0.2387
37582W        W80495   0.105   4.552  15.972 -0.0418 -0.1283 -0.1138
37583W        W80496  10.612   1.925  20.210 -0.0533  0.2804  0.2112
37584W        W80497  15.825   0.531  17.633  0.1472  0.3690  0.0320
37585W        W80498  23.062   6.628  24.930 -0.0305 -0.3204  0.1937
37586W        W80499   8.167  13.741  16.472  0.1125  0.0066  0.0720
37587W        W80500  32.115  13.009  13.823 -0.1576  0.2406 -0.0181
37588W        W80501  15.361   4.721  17.318  0.1853  0.1649 -0.1095
37589W        W80502   5.454   1.160  23.176  0.0411 -0.2234 -0.0896
37590W        W80503   5.554   5.004  17.515 -0.2527 -0.0080 -0.0251
37591W        W80504  24.896  11.650  16.826  0.0682  0.1045  0.0662
37592W        W80505  12.749  26.931  16.506 -0.1637 -0.1740 -0.2159
37593W        W80506   9.924  26.251  24.785  0.0505  0.0477  0.1894
37594W        W80507   3.374  21.144  19.409 -0.0401  0.1945 -0.0174
37595W        W80508  20.436  31.456   4.835 -0.0340  0.2221  0.0006
37596W        W80509   7.892  12.658  15.649 -0.1102  0.0458 -0.0907
37597W        W80510   9.922  16.585  15.290 -0.0444  0.2047  0.2830
37598W        W80511   9.838  15.780  17.559 -0.1034  0.2430 -0.2128
37599W        W80512   4.169   9.252  20.124 -0.1080  0.1334  0.2829
37600W        W80513   1.764   2.459  16.600 -0.0550  0.1134 -0.0887
37601W        W80514  33.646   3.019  17.244  0.0724  0.1577  0.2932
37602W        W80515  20.420   3.550  14.378  0.2760  0.0372 -0.2062
37603W        W80516  16.566  26.999  17.572  0.4136  0.1830  0.2814
37604W        W80517  10.180   9.605  28.983 -0.0053 -0.0285  0.0474
37605W        W80518   7.447   7.994  18.168  0.3644 -0.0562  0.0383
37606W        W80519   3.014   8.330  17.853 -0.1288 -0.0013 -0.0964
37607W        W80520  17.567   7.750  19.103  0.4840  0.2158  0.0597
37608W        W80521  21.068   2.505  22.265 -0.2294 -0.2258  0.1008
37609W        W80522   9.854   2.782  21.366  0.1931  0.0740 -0.0883
37610W        W80523  12.597  32.203  17.282  0.0206  0.3189 -0.2648
37611W        W80524  31.507   9.965  20.301 -0.1863  0.0117  0.0429
37612W        W80525   2.809   1.950  21.652  0.0755  0.3957  0.1425
37613W        W80526   1.038  13.460  18.687 -0.0226  0.3771  0.2730
37614W        W80527   7.144   5.347  25.921  0.0903 -0.1707 -0.0083
37615W        W80528  13.367  10.256  26.266 -0.0388 -0.0073 -0.3392
37616W        W80529   8.027   7.109  22.407 -0.2678 -0.1002  0.1197
37617W        W80530   2.754  22.403  15.039  0.2521 -0.3469 -0.3121
37618W        W80531   5.194   2.483  17.068 -0.1309 -0.3446  0.1930
37619W        W80532  18.754   9.759  14.024 -0.1983 -0.0843 -0.0553
37620W        W80533  12.202   4.929  18.574 -0.2074 -0.0052 -0.0476
37621W        W80534  18.433  29.588  26.840  0.0237  0.2561  0.2280
37622W        W80535  13.313   9.604  17.963  0.2561 -0.1313  0.0765
37623W        W80536  19.489   2.884  23.089  0.0612  0.0477 -0.0771
37624W        W80537  23.956  13.007  21.844 -0.3875 -0.4835  0.2056
37625W        W80538   3.428   8.688  20.756  0.1297  0.2659 -0.3442
37626W        W80539   5.576  28.976  21.066  0.2994  0.0419  0.0353
37627W        W80540  12.696  11.636  21.453  0.1490  0.0494 -0.1707
37628W        W80541   7.366   7.373  17.732 -0.2558 -0.1242  0.0106
37629W        W80542   2.615  31.219  20.101  0.0880 -0.0009  0.2535
37630W        W80543  15.335   7.841  14.595 -0.1191 -0.0898 -0.0160
37631W        W80544   9.194  31.328  19.688  0.2232  0.1102 -0.1547
37632W        W80545  15.782   0.667  16.019 -0.2541  0.0398  0.0950
37633W        W80546   0.035   9.109  21.731  0.1716  0.0032  0.1688
37634W        W80547   7.413  15.040  21.191 -0.2965 -0.2312 -0.1461
37635W        W80548   8.154   5.536  17.729  0.1342  0.0692  0.1222
37636W        W80549   9.872   3.296  22.241  0.0530  0.2473 -0.0759
37637W        W80550  16.159   8.041  21.612  0.3897 -0.0016  0.1587
37638W        W80551   5.049  10.726  18.992 -0.1092  0.3528 -0.2990
37639W        W80552  18.799  34.234  22.654 -0.0393 -0.0937 -0.2019
37640W        W80553   7.579  29.384  17.784  0.2712 -0.2203 -0.0475
37641W        W80554  19.665   9.211  15.648  0.0932 -0.0762 -0.2385
37642W        W80555  32.456   1.429  23.032 -0.0880 -0.2020 -0.2925
37643W        W80556   6.484   0.538  21.615 -0.0697  0.2815 -0.1186
37644W        W80557   7.686  14.488  25.319  0.1746 -0.0530  0.0202
37645W        W80558  19.584   8.194  18.445 -0.1393 -0.1877 -0.2497
37646W        W80559  21.417   5.324   1.105  0.0315 -0.2461  0.2134
37647W        W80560   5.132   3.287  17.979  0.0762  0.4392 -0.4297
37648W        W80561  13.022   6.368  17.624  0.2997  0.0486  0.0134
37649W        W80562  15.216   5.670  15.314 -0.1224 -0.3135  0.0164
37650W        W80563  15.221   3.650  20.813  0.0013 -0.1468  0.2650
37651W        W80564   5.981   6.356  17.778  0.1966  0.1780 -0.0502
37652W        W80565  13.275  31.648  26.541 -0.0399  0.0819 -0.0468
37653W        W80566  12.258  33.503  19.031  0.0982  0.2769 -0.0585
37654W        W80567   4.446  11.503  17.140 -0.0202 -0.0286 -0.2091
37655W        W80568   9.052  32.929  24.058 -0.0608  0.1103 -0.0510
37656W        W80569   4.739   1.904  23.635 -0.0571  0.0327  0.1620
37657W        W80570  30.683   1.438  22.891  0.2855  0.0862  0.1941
37658W        W80571  10.726  22.509   1.779 -0.1058 -0.2416  0.0761
37659W        W80572  19.412   4.087  21.776  0.4214 -0.4638 -0.0376
37660W        W80573  11.607   3.080   7.453 -0.0315 -0.0753 -0.1916
37661W        W80574   3.533  25.035  26.071 -0.3674 -0.1897 -0.2553
37662W        W80575   4.866   0.016  17.292  0.2782  0.1356 -0.1345
37663W        W80576  22.558   4.998  15.526  0.0118 -0.1501 -0.0296
37664W        W80577  14.926   6.852  17.200  0.0636 -0.0952 -0.0816
37665W        W80578   5.728  14.428  15.525 -0.1907 -0.0532 -0.0976
37666W        W80579  13.207  23.425  21.708 -0.1775 -0.1077 -0.4192
37667W        W80580   0.212   3.019   1.500 -0.1035  0.3132  0.1875
37668W        W80581  16.562   2.948  24.466 -0.0193  0.3912  0.1714
37669W        W80582   7.032  33.779  18.820 -0.1353  0.1257  0.0730
37670W        W80583   5.748   6.663  17.407 -0.1110 -0.0383 -0.2666
37671W        W80584   4.143  14.299  21.748  0.1482  0.0253  0.1354
37672W        W80585  13.780  14.461  13.796 -0.1699 -0.0753 -0.1598
37673W        W80586   5.788   7.787  17.261  0.0812 -0.1988 -0.2367
37674W        W80587  10.869   4.339  19.589  0.4280 -0.1754  0.1477
37675W        W80588  10.806  30.862  24.901 -0.0599  0.0547  0.1791
37676W        W80589   1.754  30.654  17.279  0.0792 -0.0518 -0.0780
37677W        W80590   7.234   0.662  19.526  0.0839  0.0298  0.0693
37678W        W80591   2.922   0.219  17.360  0.0975  0.0646  0.2185
37679W        W80592   9.433  11.369  25.330 -0.2069  0.0428  0.1824
37680W        W80593   2.090   1.532  20.570 -0.0043 -0.1803 -0.1556
37681W        W80594  18.631   3.190  18.103  0.0866 -0.1222 -0.2087
37682W        W80595   7.376   4.935  17.809 -0.2338  0.2564 -0.2884
37683W        W80596  17.060   0.573  15.819  0.0413 -0.0115 -0.0664
37684W        W80597   3.096   5.736  22.425 -0.0444  0.1278  0.5797
37685W        W80598  19.616   6.598  26.854 -0.0781  0.0097  0.2392
37686W        W80599   3.549   0.804  23.886 -0.1112 -0.0417  0.0253
37687W        W80600   3.711  21.163  23.742  0.0969  0.3741 -0.2401
37688W        W80601   8.762   7.287  24.158 -0.1344  0.1208  0.1621
37689W        W80602   3.073  23.671  26.896  0.0740 -0.1378  0.1444
37690W        W80603  16.736   0.760  18.509  0.1977 -0.0397 -0.0138
37691W        W80604   0.905   6.600  20.529 -0.0120 -0.0585 -0.1298
37692W        W80605  11.933   9.732  20.876  0.0377  0.2797  0.1582
37693W        W80606  14.940   7.791   0.869 -0.1375 -0.0506  0.1391
37694W        W80607  10.374  10.385  17.852  0.0308  0.2648 -0.2281
37695W        W80608  11.518  11.219  19.739 -0.1190 -0.1439 -0.0065
37696W        W80609  33.801   8.279  18.723  0.1476 -0.0972  0.1305
37697W        W80610  14.618  14.710  12.687 -0.3573  0.0731 -0.0428
37698W        W80611  13.455   8.632  19.784  0.0905  0.0185  0.0509
37699W        W80612   3.343   1.684  17.937  0.1249  0.0284  0.2452
37700W        W80613   4.638  33.604  19.835  0.2709 -0.1507 -0.3616
37701W        W80614  25.529  25.580  15.168  0.1865  0.0423 -0.1457
37702W        W80615  12.068  11.286  16.935 -0.1700 -0.1604 -0.0239
37703W        W80616   4.064   0.294  19.630  0.2984 -0.3645 -0.0584
37704W        W80617  12.727   6.042  22.340 -0.4383  0.3834  0.0738
37705W        W80618   3.148  11.049  16.922  0.1000  0.0244 -0.2135
37706W        W80619  11.199  32.152  17.520  0.0336 -0.1344 -0.0992
37707W        W80620   6.966  32.912  26.704 -0.0307 -0.3009  0.3333
37708W        W80621  10.809  13.241  24.369 -0.3308 -0.0323  0.0783
37709W        W80622   5.276   8.599  19.837 -0.2592  0.0889 -0.1598
37710W        W80623  13.673  20.489  16.804 -0.2367 -0.1239 -0.1754
37711W        W80624  31.867   2.640  19.330  0.1955  0.2914  0.1431
37712W        W80625  12.631  33.328  27.190 -0.1040 -0.1411 -0.0014
37713W        W80626  10.338   2.750  28.747 -0.0036 -0.2874  0.2917
37714W        W80627  17.233  13.097  19.826  0.2122 -0.0631  0.2443
37715W        W80628  10.498   3.437  21.273 -0.4776  0.1826 -0.0151
37716W        W80629  23.011   7.044  14.373  0.1236 -0.1907 -0.0761
37717W        W80630  14.812   3.344  21.901 -0.0775  0.1969  0.2482
37718W        W80631  10.251   3.744  17.749 -0.0300 -0.2280 -0.1441
37719W        W80632   0.353  32.923  26.223 -0.2716 -0.0931  0.1244
37720W        W80633  32.383  33.968  22.839 -0.1183  0.2193 -0.1386
37721W        W80634   7.384  13.900  20.184 -0.3346 -0.1477  0.0175
37722W        W80635  11.341  10.363  16.035  0.2091  0.1034 -0.0851
37723W        W80636  10.081   8.252  19.811  0.2469 -0.0603 -0.3084
37724W        W80637  11.431   2.563  24.104  0.1582 -0.2284  0.0090
37725W        W80638   8.699  10.019  25.851 -0.0467  0.1640 -0.1166
37726W        W80639  33.258   9.990  17.312  0.0086 -0.1678  0.0111
37727W        W80640   5.103  16.596  20.307  0.0002  0.5398  0.0615
37728W        W80641   6.209  27.240  20.344 -0.0039  0.2898 -0.0286
37729W        W80642  21.547  32.416  22.203  0.0536 -0.4147 -0.0177
37730W        W80643  17.863   4.523  21.014 -0.0938 -0.1294  0.0715
37731W        W80644  22.647  29.496  20.365 -0.0062  0.0399  0.0900
37732W        W80645  14.226   0.378  17.712 -0.1970 -0.2396 -0.1666
37733W        W80646   5.352   3.500  19.694 -0.0145  0.2045 -0.3482
37734W        W80647  11.710  33.991  23.998 -0.1223 -0.0128 -0.0611
37735W        W80648  12.902   8.967  22.186 -0.2311  0.0907  0.1860
37736W        W80649  23.913  10.793  19.395  0.1142  0.0238  0.0057
37737W        W80650   4.746   5.381  24.412 -0.0716  0.1075 -0.1147
37738W        W80651   5.743   4.783  17.106 -0.0957 -0.2684 -0.2688
37739W        W80652   9.991  14.981  21.272  0.6370 -0.1967  0.0487
37740W        W80653  12.119   6.549  22.853 -0.3874 -0.2421 -0.0990
37741W        W80654  13.829   9.878  18.189 -0.1069 -0.0331 -0.1566
37742W        W80655   3.617  32.992  15.885  0.3192  0.1972  0.3185
37743W        W80656   3.519   7.964  18.634 -0.1395  0.0250  0.0740
37744W        W80657  19.282  33.026   1.602  0.1310  0.0692 -0.3393
37745W        W80658   0.366  11.278  15.538  0.0891  0.0884 -0.1485
37746W        W80659  32.759   7.652  23.088 -0.0675 -0.0954 -0.1002
37747W        W80660   0.582  10.766  19.715 -0.4263  0.2508 -0.0007
37748W        W80661   7.912  16.552  20.736 -0.1635  0.1667  0.2596
37749W        W80662  15.872   4.654  16.215  0.3378 -0.0276  0.3077
37750W        W80663   7.830   7.368  29.023  0.2096  0.1411  0.2724
37751W        W80664   6.996   5.163  20.835  0.0011  0.2770 -0.0109
37752W        W80665   8.317  31.639  28.209  0.0304  0.1613 -0.0799
37753W        W80666  24.226   0.819  23.098 -0.0470 -0.1587 -0.1149
37754W        W80667  15.183   8.351  19.319 -0.5176 -0.4621 -0.0382
37755W        W80668   8.257  11.825  16.812  0.2083  0.2031 -0.0396
37756W        W80669  28.890   3.334  23.529 -0.0909  0.0501  0.2413
37757W        W80670  14.413   2.018  16.030  0.2695 -0.5184 -0.3447
37758W        W80671  29.988  32.411  23.599 -0.1241  0.0986 -0.2550
37759W        W80672   9.280   6.231  21.743 -0.4425 -0.1186 -0.0110
37760W        W80673  12.462  34.311  22.709 -0.0564 -0.0569  0.3813
37761W        W80674   7.437  31.560  16.553  0.1939 -0.1464 -0.1862
37762W        W80675   1.428  32.049  28.466 -0.0059 -0.1133 -0.2013
37763W        W80676  18.851  11.620  17.514 -0.2896 -0.1850 -0.2114
37764W        W80677  30.047   7.867  15.079  0.0842  0.1221  0.0003
37765W        W80678  10.941  34.108  19.275 -0.3051  0.3308 -0.2029
37766W        W80679   7.798  34.108  20.001 -0.0146 -0.0134 -0.0718
37767W        W80680   6.949  19.352  19.699  0.2325  0.1001  0.0362
37768W        W80681   6.595  30.623  24.165 -0.0640  0.2082  0.0468
37769W        W80682  17.865   4.301  25.456 -0.0495  0.1183 -0.4247
37770W        W80683   6.328  18.394  23.074  0.2969 -0.1735  0.0753
37771W        W80684  10.411   0.479  16.791  0.0006 -0.2451 -0.2552
37772W        W80685   8.873  16.829  18.632 -0.0146 -0.1608  0.0854
37773W        W80686   4.960   1.694  20.092 -0.0129  0.3538 -0.1924
37774W        W80687  22.805  34.253  19.909 -0.1783  0.0932  0.0355
37775W        W80688  19.269   7.869  16.962 -0.1631  0.0310 -0.3333
37776W        W80689  28.945  32.646  18.559 -0.0263  0.1565  0.0649
37777W        W80690   9.695  12.234  24.129 -0.1851 -0.0163  0.0480
37778W        W80691  22.668   0.601  28.081  0.4365 -0.0949  0.1022
37779W        W80692   4.069   1.149  19.780  0.0861  0.0406  0.0396
37780W        W80693   1.786  28.084  16.380 -0.2531 -0.2286  0.2190
37781W        W80694  10.449   5.624  18.583  0.2333 -0.0780  0.0335
37782W        W80695   5.366   2.308  18.698  0.1169  0.1285 -0.1652
37783W        W80696  19.462  31.260  14.602  0.0026  0.2112  0.2983
37784W        W80697  21.186   5.379  21.534  0.3591 -0.2113 -0.2171
37785W        W80698  10.694  15.993  25.945  0.0039  0.1528  0.3280
37786W        W80699   8.236  19.723  21.982  0.0714 -0.0525  0.2695
37787W        W80700   2.014  30.026  15.253 -0.0514  0.1457  0.1501
37788W        W80701  13.956   5.771  24.617 -0.1290  0.0872 -0.3047
37789W        W80702  14.952   5.602  20.522  0.1305 -0.0144  0.0704
37790W        W80703   4.050   7.521  16.733  0.1896 -0.2488 -0.0828
37791W        W80704  34.326  33.374   0.722 -0.5254 -0.5029  0.0252
37792W        W80705  18.476   2.382  27.776  0.2092 -0.0364 -0.2554
37793W        W80706  30.169   4.234  21.560  0.1209 -0.0279 -0.1436
37794W        W80707   9.316  25.110  19.614 -0.2893  0.1409  0.1491
37795W        W80708  10.520  26.758  22.868  0.1074  0.4362 -0.3121
37796W        W80709   9.776   3.464  21.791  0.4363  0.1721 -0.0618
37797W        W80710  15.708   5.042  20.049  0.2461  0.2416  0.0095
37798W        W80711   7.577  22.870  16.946  0.0977 -0.0814  0.2898
37799W        W80712   2.167  26.507  15.748 -0.1242  0.0880  0.2514
37800W        W80713  10.439   9.663  20.898  0.0404  0.0681  0.0094
37801W        W80714   7.474   0.239  21.095  0.0271 -0.1896 -0.1219
37802W        W80715  10.696   2.067  19.277  0.1082 -0.0785 -0.1572
37803W        W80716  11.168   2.820  23.724  0.1321  0.1263 -0.0945
37804W        W80717   7.762  31.547  23.538  0.2357  0.1352 -0.0774
37805W        W80718   4.655   1.646  19.679  0.0714  0.0561 -0.0176
37806W        W80719  14.740   6.911  29.521 -0.2288 -0.2160 -0.2313
37807W        W80720   9.189   9.058  16.659  0.1861  0.1989  0.1538
37808W        W80721  10.297  10.889   0.512  0.1503 -0.1362  0.5123
37809W        W80722  15.406   3.548  16.620 -0.3276  0.0930  0.0198
37810W        W80723  13.313  32.508  15.799 -0.0533  0.0927 -0.0296
37811W        W80724   8.591   7.882  22.562  0.1355  0.1250  0.0725
37812W        W80725   7.192   3.335  23.172 -0.0529  0.1898  0.3297
37813W        W80726   4.342   0.450  25.525  0.0404  0.2341  0.2305
37814W        W80727   2.198  22.407  15.990  0.1951  0.0346 -0.4320
37815W        W80728   1.674  26.750  18.043  0.1523 -0.3381  0.0689
37816W        W80729   2.513  10.628  29.055  0.2747 -0.1230  0.1841
37817W        W80730  10.508  31.990  27.411 -0.0090 -0.0730  0.0356
37818W        W80731  10.994   3.447  17.423  0.1437 -0.0308  0.1046
37819W        W80732   2.608   5.782  17.684  0.0951 -0.3853 -0.1412
37820W        W80733  30.953  27.995  25.602 -0.0806 -0.2171 -0.1023
37821W        W80734   3.628  10.318  21.540 -0.1977 -0.0037  0.0993
37822W        W80735   2.403   4.736  19.878 -0.1128  0.0700  0.2293
37823W        W80736   4.450   0.659  24.225 -0.0958 -0.0540 -0.0978
37824W        W80737  32.102  33.674  19.874  0.2018 -0.1862  0.3042
37825W        W80738  15.007  34.026  15.257  0.0611  0.0467 -0.3377
37826W        W80739   9.207   5.440  25.063 -0.1803 -0.3126  0.3171
37827W        W80740  17.332  14.078  16.410 -0.0527  0.1554 -0.2182
37828W        W80741  18.015   1.525  20.275 -0.1188  0.1226  0.0260
37829W        W80742  14.371  20.138  14.096 -0.0973  0.0823  0.1607
37830W        W80743   6.836  31.290  18.988 -0.1771  0.1010  0.1016
37831W        W80744  17.963  32.340  19.607 -0.2955  0.0933 -0.3164
37832W        W80745   8.012   0.696  26.925 -0.0473 -0.0288 -0.0230
37833W        W80746  18.601  33.670  16.619 -0.4756  0.2234  0.2991
37834W        W80747  11.751  21.728  23.513 -0.0646  0.2379 -0.0395
37835W        W80748  28.491   9.683  27.448 -0.1863  0.3339 -0.0504
37836W        W80749  10.936  31.517  25.604  0.1358  0.1012  0.1313
37837W        W80750  33.203  31.120  26.852  0.0953  0.2051 -0.0487
37838W        W80751  16.073   7.472  23.945  0.2964  0.2488  0.0563
37839W        W80752   7.433   5.239  12.118  0.3504  0.0777 -0.0878
37840W        W80753  17.545  10.292  20.678  0.1512 -0.2979 -0.2006
37841W        W80754  16.854   7.684  17.162  0.0457 -0.1482 -0.1928
37842W        W80755   4.086   9.234  29.657 -0.0798  0.1174  0.0835
37843W        W80756   3.085  28.295  28.438 -0.1053 -0.0238 -0.1774
37844W        W80757  12.510  29.680   5.272  0.0708  0.1323  0.3268
37845W        W80758   7.587   0.170  17.715 -0.0090  0.0782  0.1339
37846W        W80759  32.867   5.772  17.427  0.0493  0.2456  0.2297
37847W        W80760  22.002  32.355  18.940 -0.0312 -0.0986 -0.2449
37848W        W80761   6.360  28.478  24.189  0.1353 -0.1030  0.1410
37849W        W80762  10.103  12.684  15.212  0.0595  0.4918  0.0005
37850W        W80763  10.564  23.365  21.336  0.1087  0.0671  0.0967
37851W        W80764  19.163  29.143  20.417  0.0636  0.1635  0.1366
37852W        W80765   7.767   4.559  17.818 -0.0528  0.2986 -0.2010
37853W        W80766  11.135  26.180  27.235  0.1930 -0.0443  0.0471
37854W        W80767   3.396  13.159  16.095 -0.2497 -0.0269 -0.1008
37855W        W80768  26.266  11.752  19.062  0.0829  0.1213 -0.1366
37856W        W80769  12.368   6.624  19.004  0.0565 -0.0270  0.1664
37857W        W80770   6.316  32.630   0.536  0.2985  0.0453  0.0883
37858W        W80771  15.867   9.338  17.369 -0.1278  0.4072  0.2280
37859W        W80772  31.847   0.244  21.260  0.1952 -0.0336 -0.1779
37860W        W80773   3.545   1.229  26.194  0.2352  0.0731 -0.0307
37861W        W80774  12.748   6.682  19.355 -0.2473  0.2348 -0.4175
37862W        W80775   7.282   8.511  28.419  0.0696  0.2208 -0.3155
37863W        W80776  31.277  12.553  15.973 -0.1451  0.1916 -0.0032
37864W        W80777   2.437   4.864  17.305  0.0345  0.0817  0.2788
37865W        W80778  15.947   0.448  19.240 -0.0693 -0.1739 -0.0213
37866W        W80779   6.325  12.888  17.825  0.0582  0.0365  0.1017
37867W        W80780  16.388   0.139  18.489 -0.0653 -0.0436  0.0563
37868W        W80781   2.654  10.018  21.521 -0.1753 -0.0624  0.1238
37869W        W80782   7.807  16.841  14.642  0.0186 -0.1363  0.2059
37870W        W80783   0.938   3.196  23.009 -0.4856 -0.3216  0.0036
37871W        W80784   1.776  34.313   1.315 -0.0891 -0.0147 -0.4068
37872W        W80785   5.847  13.541  26.396  0.0188 -0.1284  0.1810
37873W        W80786   4.320   5.799  29.052 -0.1475 -0.0474 -0.1718
37874W        W80787  17.004   4.395  17.353 -0.0050 -0.0950 -0.0354
37875W        W80788  10.674  10.742  16.716 -0.0056  0.0253 -0.0702
37876W        W80789   8.690  14.630  16.251  0.0131 -0.3221 -0.2080
37877W        W80790   4.510   6.793  19.153 -0.2522  0.0168 -0.1463
37878W        W80791   5.806  11.411  23.449 -0.1281  0.2470  0.2232
37879W        W80792   3.870  32.882  17.117 -0.2638 -0.2195  0.3530
37880W        W80793   3.321  14.328  23.087 -0.3134 -0.4155 -0.1198
37881W        W80794   6.485  32.625  20.326 -0.1987 -0.1620 -0.1087
37882W        W80795   2.757  27.359  16.415  0.0377  0.0475  0.0831
37883W        W80796   7.660  30.298  24.230  0.1210 -0.0305 -0.0676
37884W        W80797  19.627   0.669  20.282  0.0810 -0.0387 -0.0625
37885W        W80798   6.186  28.640  25.934 -0.0096  0.1518 -0.1089
37886W        W80799  11.794   5.564  19.541 -0.0764 -0.2457  0.1723
37887W        W80800  19.289  12.305  23.557 -0.2930  0.1423  0.3735
37888W        W80801  14.022   7.844  27.931  0.0923 -0.0582  0.0359
37889W        W80802   6.182   1.851  21.570 -0.0159 -0.0748 -0.0137
37890W        W80803   4.304   2.266  19.343  0.1835  0.1819  0.2128
37891W        W80804   9.486  11.682  27.171 -0.2697  0.1949 -0.1140
37892W        W80805   1.533   1.429  16.428  0.0853  0.1870 -0.2440
37893W        W80806   7.489   3.351  23.755 -0.0064 -0.1796  0.0911
37894W        W80807   7.450   5.929   6.752 -0.0683  0.1514  0.0689
37895W        W80808  20.484   4.814  21.404  0.0103 -0.2130  0.1015
37896W        W80809  18.911  30.874  23.958  0.2927  0.1930 -0.0476
37897W        W80810  13.706  33.082  24.423  0.1846  0.0081  0.0258
37898W        W80811   9.708   0.954  21.026  0.1190  0.1021  0.2881
37899W        W80812   2.032   5.509  21.070  0.2264  0.1130 -0.0290
37900W        W80813   4.718  30.875  28.584 -0.0930  0.3024  0.1621
37901W        W80814   0.478   7.328  23.772 -0.2294  0.0538  0.1160
37902W        W80815  17.339   0.861  27.558 -0.2297 -0.0862 -0.0822
37903W        W80816  13.720  13.164  13.991  0.1793  0.1751  0.1988
37904W        W80817   3.255  11.398  26.301 -0.0632 -0.0877  0.3472
37905W        W80818  16.195   5.832  20.102 -0.0980 -0.0404 -0.4502
37906W        W80819  12.149   6.767  29.702 -0.3843 -0.0032 -0.2301
37907W        W80820  16.028   3.277  16.534 -0.4226 -0.0468 -0.0761
37908W        W80821  12.645   9.567  22.888  0.0222  0.0574 -0.2052
37909W        W80822  15.878   3.103  22.188 -0.0585 -0.1172  0.1081
37910W        W80823   3.575   5.504  23.039  0.1377 -0.1032 -0.0660
37911W        W80824   6.336  31.501  25.188  0.1035 -0.1137  0.2211
37912W        W80825  14.472   6.314  16.342  0.1581  0.1369  0.1060
37913W        W80826  15.457  11.961  24.189 -0.2768 -0.1896  0.0890
37914W        W80827  34.052   4.048  21.002  0.1589  0.0203  0.1439
37915W        W80828  32.021   4.788  19.649  0.1356 -0.2127 -0.0758
37916W        W80829   8.515   4.823  22.663 -0.1030 -0.0824  0.1455
37917W        W80830  10.865   6.061  19.818  0.1570 -0.0981  0.3508
37918W        W80831   5.646   6.499  19.922  0.2467  0.1804 -0.3926
37919W        W80832   6.737   3.707  19.489 -0.1622 -0.0251  0.1232
37920W        W80833  10.607   0.329  17.590  0.0341 -0.5240 -0.0913
37921W        W80834   2.354  12.521  20.397  0.2804  0.3271  0.0487
37922W        W80835   4.419  29.364  29.347  0.0551  0.0225  0.1399
37923W        W80836  14.855   7.290  15.986 -0.0317 -0.1200  0.1743
37924W        W80837  18.439   6.286  22.598  0.3756 -0.3383  0.1184
37925W        W80838   2.437   6.375   4.288  0.0668 -0.1452  0.1134
37926W        W80839   7.844  13.050  26.963  0.2026 -0.0403 -0.1943
37927W        W80840  15.108   2.674  14.901  0.1450  0.3187 -0.0320
37928W        W80841  32.381   5.158  23.642  0.1751  0.1033 -0.3323
37929W        W80842  11.010   6.060  28.343  0.1686  0.0564  0.2155
37930W        W80843   2.601  10.562  28.057  0.1380  0.0805 -0.0631
37931W        W80844  17.173  28.257  26.365 -0.0541 -0.2159 -0.0907
37932W        W80845   5.783  31.974  23.457 -0.1253  0.1150  0.1588
37933W        W80846   1.280  25.129  26.093  0.0024 -0.0286  0.4008
37934W        W80847  19.692   9.503  25.492  0.1132  0.0506  0.0186
37935W        W80848  12.660   6.572  17.899  0.1353 -0.2579  0.2291
37936W        W80849   9.039  15.386  22.048 -0.0078  0.0540 -0.0574
37937W        W80850   7.854  12.419  14.720 -0.0266  0.2421 -0.0368
37938W        W80851  18.763  30.444  26.506 -0.1578 -0.2261 -0.4545
37939W        W80852   1.583   4.794  17.667 -0.1237  0.1314 -0.0963
37940W        W80853   8.349  10.459  29.008  0.1961  0.1493 -0.0830
37941W        W80854  16.667  32.693   4.037  0.3255  0.1203 -0.1847
37942W        W80855   3.715  25.600  23.350  0.0594 -0.3825  0.1247
37943W        W80856   8.920   7.457  19.468 -0.0605 -0.0583  0.0424
37944W        W80857  15.544  30.827  21.064  0.1347  0.0376  0.0251
37945W        W80858   4.390  10.948  19.782 -0.1291  0.1733  0.2371
37946W        W80859   6.273  27.564  21.407 -0.0183 -0.3091 -0.4889
37947W        W80860  11.383   9.576  19.501  0.4180 -0.0288  0.1851
37948W        W80861   4.501  34.367   4.692 -0.0207 -0.0404 -0.0669
37949W        W80862   3.391   3.215  20.541  0.0306 -0.1692 -0.3425
37950W        W80863   7.795  13.747  21.643 -0.2162 -0.0498  0.1187
37951W        W80864   6.131   9.980  21.082  0.1029  0.2884  0.1804
37952W        W80865  11.486  21.788  28.060 -0.0692  0.2070 -0.0577
37953W        W80866  10.353  13.060  18.540 -0.1258  0.1429 -0.1869
37954W        W80867   9.707   6.871  24.239 -0.1011  0.3281 -0.0044
37955W        W80868  15.249   8.391  15.478  0.0660  0.1554 -0.0806
37956W        W80869  13.047   3.104  27.618 -0.0520 -0.3276 -0.2496
37957W        W80870   4.414  11.636   0.100 -0.0795  0.0971 -0.2580
37958W        W80871  24.701  34.363  15.584  0.1077 -0.0392  0.0837
37959W        W80872  26.088  11.001  26.798  0.0298 -0.0978 -0.3017
37960W        W80873  10.111   7.292  28.415 -0.1514 -0.1206 -0.0164
37961W        W80874  16.396   9.244  24.119  0.0980  0.1595 -0.3459
37962W        W80875  12.672  10.739  21.111 -0.0149 -0.0032  0.3632
37963W        W80876   7.270  14.582  16.943 -0.0308 -0.3585  0.1095
37964W        W80877  16.604   5.679  15.500  0.0005 -0.0059  0.1594
37965W        W80878  10.942  33.115  23.882  0.2182  0.0484  0.4094
37966W        W80879  11.697   5.504  20.939  0.0089 -0.1223 -0.0243
37967W        W80880  20.871   4.441  19.383  0.0746 -0.1470  0.1179
37968W        W80881   7.593  28.282  20.295  0.0102 -0.0778 -0.1234
37969W        W80882  16.553   2.379  17.624  0.2120  0.0825  0.1289
37970W        W80883  16.803   9.652  21.150  0.2239  0.1173  0.1114
37971W        W80884   4.832  15.817  19.748 -0.2111 -0.1642  0.3606
37972W        W80885  10.938   3.821  27.051  0.0617  0.0621  0.2821
37973W        W80886  14.242   0.718  28.664  0.0194  0.1654  0.1242
37974W        W80887  10.625   6.322  18.925 -0.0581 -0.0174 -0.0768
37975W        W80888   8.262  28.576  20.243 -0.0423  0.5789  0.1058
37976W        W80889   7.306   2.240  20.747  0.0387  0.1317  0.1964
37977W        W80890  16.177   1.105  18.642  0.0078 -0.0407 -0.1378
37978W        W80891  29.932   3.528  17.999  0.0889 -0.0848  0.0840
37979W        W80892  18.013   1.626  16.336 -0.3055  0.5017 -0.1096
37980W        W80893  12.910   1.572  26.705  0.0782  0.0080 -0.0931
37981W        W80894  33.644  12.590  19.357 -0.1512  0.1469  0.1332
37982W        W80895  26.036  28.714  23.044 -0.0366  0.0005  0.0251
37983W        W80896   8.122  31.634  23.987 -0.0550 -0.1338  0.0767
37984W        W80897   0.299   6.488  28.529 -0.0935  0.1940 -0.1943
37985W        W80898   9.948  10.784  20.666  0.0782  0.0641  0.0983
37986W        W80899   6.221   2.960  20.288  0.0410  0.4416 -0.1289
37987W        W80900  20.054   4.350  15.900 -0.0938  0.1468 -0.1674
37988W        W80901   2.705   1.762  24.164  0.0350 -0.0648 -0.0236
37989W        W80902  12.494  33.111  16.366 -0.0032 -0.2509 -0.3298
37990W        W80903  22.376  33.919  25.278 -0.0562 -0.1747 -0.0676
37991W        W80904   8.968   4.357  22.072  0.1486  0.1350  0.3243
37992W        W80905  13.235   2.591  23.458 -0.1455  0.0312  0.2959
37993W        W80906   6.433  28.041  19.715 -0.1477 -0.2008 -0.2646
37994W        W80907  18.730   3.584  23.183 -0.0922 -0.1111 -0.2987
37995W        W80908   3.189  24.130  17.344 -0.1521  0.1733  0.2654
37996W        W80909  16.586   3.804  24.958 -0.2508 -0.1520 -0.0355
37997W        W80910  15.287   1.061  27.145  0.1545  0.2533 -0.2179
37998W        W80911   8.186   3.948  18.124 -0.2394 -0.0785 -0.1488
37999W        W80912   9.204  17.152  16.652 -0.2050  0.2115  0.3917
38000W        W80913  11.263   6.892  18.298  0.4224 -0.1207 -0.2942
38001W        W80914  34.100   5.964  28.205  0.2370  0.0913  0.2276
38002W        W80915   3.416   6.221  20.269  0.3124 -0.0675 -0.1107
38003W        W80916  11.595   0.208  25.321  0.0941  0.2943 -0.1281
38004W        W80917   7.806  24.428   0.434 -0.0036  0.2360  0.0280
38005W        W80918  14.220   4.619   7.446 -0.1980  0.0770 -0.0144
38006W        W80919  13.263  10.070  16.888  0.3503  0.0010  0.0501
38007W        W80920  16.970  31.360  18.855  0.0651 -0.0460 -0.1024
38008W        W80921   8.479   7.846  23.665  0.2347 -0.1038 -0.4629
38009W        W80922   9.288  30.250  19.134  0.2653 -0.0172  0.0739
38010W        W80923   8.303   8.451  16.785  0.0611 -0.1104 -0.1379
38011W        W80924  34.101   1.097   1.218  0.1358 -0.1367  0.3049
38012W        W80925  33.947  10.380  27.284  0.1128  0.2329  0.0253
38013W        W80926   2.361   1.824   7.151  0.0884  0.2016 -0.0209
38014W        W80927  12.959   9.150  21.669  0.2307  0.2392  0.0311
38015W        W80928  13.274  33.244  22.373 -0.1879 -0.2332 -0.0090
38016W        W80929  13.056  33.566  28.580 -0.0326 -0.0417  0.0346
38017W        W80930   6.247   1.519  16.732 -0.2125  0.3048  0.3210
38018W        W80931  11.396   1.823  29.490  0.0483 -0.2496  0.1839
38019W        W80932  17.968   7.343  17.046  0.2591 -0.4158 -0.0492
38020W        W80933   6.901   1.421  17.747  0.1371  0.1187  0.0051
38021W        W80934   9.435   9.949   4.835  0.2941 -0.1073 -0.1915
38022W        W80935  13.295   5.021  26.697  0.1146  0.0804  0.1731
38023W        W80936  10.353  17.603   2.906  0.0800  0.0969  0.1958
38024W        W80937  11.821   4.971   4.522 -0.1210  0.0261  0.2237
38025W        W80938  13.424  30.035  22.765  0.3473 -0.3413 -0.3222
38026W        W80939  15.158  30.323  28.623 -0.2019 -0.1052 -0.1002
38027W        W80940  13.262  11.004  18.674 -0.3580 -0.1451 -0.1171
38028W        W80941  10.439  27.227  22.978 -0.0078  0.0273  0.0446
38029W        W80942   5.225  28.812   0.515  0.1346  0.0381 -0.1223
38030W        W80943   4.664   1.610  21.485  0.0253  0.0763  0.1401
38031W        W80944   1.214   1.138  20.632  0.1049  0.0449 -0.0946
38032W        W80945   3.776  32.723  28.110  0.3029  0.2416  0.1779
38033W        W80946  27.744  11.240  23.473  0.3799 -0.1864 -0.4291
38034W        W80947  12.314  16.500  28.111 -0.2594  0.2717  0.0438
38035W        W80948  14.758   8.532  19.579  0.0031 -0.0076 -0.2960
38036W        W80949  24.977   7.569   7.199  0.0624 -0.0096 -0.0361
38037W        W80950  11.075   2.121  20.029  0.1895  0.0279  0.2360
38038W        W80951  14.598  12.947  22.283  0.0686  0.0864 -0.0143
38039W        W80952  15.419  27.125  18.352 -0.0025  0.0468  0.0244
38040W        W80953  13.058  33.787  15.961  0.1882  0.0521  0.1313
38041W        W80954  13.484   3.872  20.219  0.0716  0.1279 -0.0345
38042W        W80955  29.919   1.837  19.179 -0.1624  0.0838  0.0747
38043W        W80956  13.525  26.982  19.298 -0.1962 -0.0046 -0.2073
38044W        W80957   2.456  31.731  16.665 -0.3347  0.0906 -0.1238
38045W        W80958  12.060   1.419  22.349 -0.2111  0.0347 -0.1732
38046W        W80959  33.939  18.948  24.934 -0.3272  0.2000 -0.0433
38047W        W80960  18.592   1.584  26.428  0.1505 -0.0300  0.0602
38048W        W80961   5.275   2.980  18.351 -0.4226  0.0134 -0.1214
38049W        W80962  14.443   9.137  19.195 -0.1508 -0.2945  0.4151
38050W        W80963   8.293   9.515  19.310 -0.0436 -0.1376  0.5870
38051W        W80964  10.176  32.344  19.166  0.0543  0.1413  0.3336
38052W        W80965   5.200  12.162  14.639  0.1063 -0.0211 -0.0390
38053W        W80966   4.482   8.108  27.995 -0.0752  0.1187 -0.0628
38054W        W80967  15.255  33.403  24.443  0.1732  0.0347  0.3198
38055W        W80968   0.057  30.646  21.736 -0.2655 -0.3585  0.0612
38056W        W80969   6.703   5.603  17.663 -0.0057 -0.1663  0.4007
38057W        W80970   8.641   5.553  25.120 -0.1339  0.0682 -0.2653
38058W        W80971  24.524   7.372  15.554 -0.3120 -0.2393  0.3593
38059W        W80972   3.614   6.442  22.918 -0.3966 -0.0568 -0.2564
38060W        W80973   9.753  33.934  21.433  0.0877 -0.1255 -0.2279
38061W        W80974  20.051  31.223  17.213  0.1016  0.1955  0.0871
38062W        W80975   8.246  30.851  17.615 -0.0112  0.0338  0.0885
38063W        W80976  10.557  31.936  19.160 -0.2896  0.3042 -0.0863
38064W        W80977  16.700  27.622   3.266 -0.2161  0.0132  0.0569
38065W        W80978  10.278  31.085  25.112  0.1302 -0.1616 -0.0102
38066W        W80979  13.427  29.938   4.262  0.1377  0.1006 -0.1509
38067W        W80980   8.800  15.238  14.358  0.0506 -0.1843  0.0946
38068W        W80981  12.109  14.634  14.114  0.2710  0.0880  0.3391
38069W        W80982  13.970   2.350  18.387  0.1935 -0.0218  0.0279
38070W        W80983  16.122   1.337  21.351  0.4281 -0.0591 -0.1094
38071W        W80984  30.238   0.502  25.460 -0.4249 -0.2427  0.1095
38072W        W80985  17.082  32.007  15.571  0.0513 -0.1298 -0.3336
38073W        W80986  11.782  11.588  16.495 -0.1852 -0.3624  0.2062
38074W        W80987  10.082   8.490  23.617 -0.1275  0.2083  0.2007
38075W        W80988  23.695   6.540  14.573  0.2149  0.0361 -0.0400
38076W        W80989   4.418  32.724  17.365  0.0507  0.0441 -0.0455
38077W        W80990   9.231   2.653  18.260 -0.0769  0.4411  0.4182
38078W        W80991  31.898  19.629  26.269 -0.0669  0.1259  0.2039
38079W        W80992   8.065   0.848  23.859  0.0752 -0.3662 -0.2268
38080W        W80993  18.535   5.720  18.044 -0.1469  0.1359 -0.0646
38081W        W80994  14.017   5.576  21.679 -0.0889  0.3211 -0.1221
38082W        W80995  11.727   3.216  25.608 -0.1018  0.1696 -0.0634
38083W        W80996   1.502   4.571  27.664  0.1155 -0.1949  0.0226
38084W        W80997   2.567  14.025   2.100 -0.0332  0.0613 -0.1837
38085W        W80998  13.395   7.775  18.710 -0.0001 -0.0159 -0.3159
38086W        W80999  12.377   5.741  25.874  0.1552  0.4567 -0.1288
38087W        W81000  14.263  32.685  28.645  0.0297 -0.1142 -0.3246
38088W        W81001   9.376  17.126  21.116 -0.1731  0.0579  0.0351
38089W        W81002  13.740  32.705  28.755 -0.0194 -0.1308  0.1545
38090W        W81003  10.765  21.767  23.991  0.0017  0.0242 -0.0034
38091W        W81004  13.311  29.150  15.843 -0.0848 -0.0886  0.0547
38092W        W81005  10.055  10.784  24.816 -0.3022  0.0197 -0.2088
38093W        W81006   9.144   8.075  19.652  0.3290 -0.0100  0.4026
38094W        W81007  15.380  29.688   2.775 -0.1839 -0.7768 -0.1046
38095W        W81008   5.268   3.730  17.127  0.0263  0.1813  0.5152
38096W        W81009  11.846  30.791  24.779  0.0671 -0.2944  0.1046
38097W        W81010  10.168  13.327  22.337  0.0479  0.2374 -0.1617
38098W        W81011  14.792   6.339  18.671  0.0157 -0.1500  0.1207
38099W        W81012  16.052   4.158  22.735  0.1682  0.1412 -0.2658
38100W        W81013  10.613   2.239  20.953 -0.0611 -0.0206  0.0991
38101W        W81014   9.186  32.393   1.416  0.1280  0.0614  0.1242
38102W        W81015  12.944   6.508  16.052 -0.1730 -0.1175 -0.1088
38103W        W81016  15.377   3.192  22.272 -0.2545  0.4323 -0.4022
38104W        W81017  17.327  31.528  27.671  0.1049  0.0589 -0.3328
38105W        W81018  13.888  17.415  23.672 -0.1559 -0.0333  0.3845
38106W        W81019   2.274   2.854  19.545  0.2380 -0.1985 -0.3863
38107W        W81020  16.653  27.850  15.891 -0.0226 -0.0149 -0.0614
38108W        W81021  12.508   1.779  19.236  0.1603  0.1632 -0.0658
38109W        W81022   2.215   6.924  20.632 -0.0640 -0.0604  0.1243
38110W        W81023   5.827   7.018  27.470 -0.3289 -0.0441 -0.0033
38111W        W81024   8.479  10.359  22.119  0.0249 -0.3204 -0.1150
38112W        W81025  28.385  10.017  14.883  0.1877  0.0424 -0.1431
38113W        W81026   9.424   1.067  21.532 -0.1495 -0.0387 -0.1811
38114W        W81027  14.536   1.132  20.466  0.1756  0.1713 -0.3067
38115W        W81028  11.095   7.216  16.991 -0.1677 -0.0328  0.0524
38116W        W81029  21.360   0.984  16.744  0.0974 -0.0682 -0.2753
38117W        W81030  20.145  10.407  24.213 -0.0094 -0.1233 -0.2902
38118W        W81031   9.195   7.502  18.995  0.1905 -0.1039  0.1498
38119W        W81032   1.486  12.485  25.619  0.0319 -0.4880 -0.0173
38120W        W81033   9.375   4.809  19.701 -0.0411  0.0319 -0.0231
38121W        W81034  18.379   2.881   1.746 -0.0827 -0.3191 -0.1000
38122W        W81035  16.849   5.144  24.094  0.0040  0.0251  0.0086
38123W        W81036  15.441   9.223  18.736 -0.2128 -0.0722  0.0425
38124W        W81037  13.694   0.526  24.271 -0.0315  0.0010 -0.1184
38125W        W81038   0.729   7.092  19.049  0.0625  0.1865  0.4183
38126W        W81039  16.210  10.095  17.764 -0.2890 -0.0335 -0.1738
38127W        W81040   6.527   0.510  25.159 -0.0089  0.5398 -0.0230
38128W        W81041   9.430   2.164  22.761 -0.2487 -0.1570  0.0342
38129W        W81042  12.537  13.389  14.399 -0.0094 -0.2265  0.1462
38130W        W81043   7.687  13.678  15.964  0.1557 -0.1072 -0.0226
38131W        W81044   0.216  10.378  21.019 -0.0222 -0.3757 -0.0846
38132W        W81045   6.006   5.174  21.755 -0.0072 -0.0859  0.3801
38133W        W81046   3.021  11.030  16.326 -0.2671 -0.3550 -0.1152
38134W        W81047  30.002  34.154  23.956 -0.1685  0.0569  0.1010
38135W        W81048  16.421   8.934  17.494  0.2111 -0.0092 -0.0249
38136W        W81049  15.914  33.271  18.781 -0.2388 -0.3462 -0.0310
38137W        W81050   6.780   8.302  18.860 -0.1968 -0.1307  0.0850
38138W        W81051   7.642   4.252  19.318 -0.0331 -0.2768 -0.0868
38139W        W81052  13.120   9.670  22.849  0.1159  0.2369 -0.0760
38140W        W81053  18.074   7.550  22.233  0.0035  0.2026  0.0327
38141W        W81054   9.751   5.552  19.533 -0.0392 -0.1355  0.0864
38142W        W81055   4.843   8.013  22.825  0.1798  0.1660 -0.1400
38143W        W81056   6.431  13.789  22.916  0.0141  0.0426  0.2893
38144W        W81057  18.501   5.475  25.881 -0.0242  0.1547 -0.1379
38145W        W81058   8.259  26.256  19.446 -0.0852  0.1650  0.1760
38146W        W81059  19.069   4.985  18.430  0.0336  0.0625 -0.4446
38147W        W81060   5.771   6.671  21.426  0.1716 -0.0780 -0.1144
38148W        W81061   8.456  26.154  21.816  0.1251 -0.1172  0.0858
38149W        W81062  34.232  30.658  27.410 -0.0784  0.0233 -0.0723
38150W        W81063   2.628   4.849   1.814  0.3014 -0.1194 -0.2013
38151W        W81064  20.222   8.238  17.351  0.2861 -0.0104  0.0456
38152W        W81065   6.826  15.801  20.115 -0.1845  0.1506 -0.1643
38153W        W81066  24.535  21.903  16.997  0.3082 -0.4178 -0.0208
38154W        W81067  14.800   5.737  23.260 -0.2543  0.0010  0.0456
38155W        W81068  13.283  24.876  26.797  0.2855  0.0546  0.0164
38156W        W81069  15.111   1.974  16.512 -0.1029  0.2600 -0.0498
38157W        W81070  11.882  13.348  29.274  0.1785  0.0232  0.0018
38158W        W81071   7.711   3.267  23.312 -0.1469  0.3225  0.0963
38159W        W81072   3.956   9.369  24.685 -0.3966  0.0958  0.3184
38160W        W81073   6.125   5.035  20.483  0.0077 -0.2320  0.1166
38161W        W81074  32.084   6.479  16.970 -0.1199 -0.0892  0.1135
38162W        W81075  12.916   7.258  27.509 -0.0410 -0.1246 -0.3102
38163W        W81076  25.331  30.131  28.911 -0.1537 -0.1651  0.4732
38164W        W81077  18.072  32.075  15.983  0.2564 -0.2815 -0.0308
38165W        W81078  19.093  27.627  24.830 -0.0787 -0.1957 -0.0831
38166W        W81079   4.293  10.031  18.927 -0.0232 -0.0634  0.1581
38167W        W81080   6.647  26.117  27.458  0.1619  0.3614  0.0476
38168W        W81081  34.259  12.255  26.178  0.2932 -0.1212 -0.1204
38169W        W81082  14.068   9.375  20.047  0.0022 -0.2069 -0.4588
38170W        W81083   1.631  11.469  21.168  0.4097  0.0906 -0.3202
38171W        W81084   7.451   4.077  17.506 -0.2652 -0.1337  0.2436
38172W        W81085  20.088   8.120  17.856  0.2446 -0.1591 -0.2168
38173W        W81086   3.883   1.930  21.822 -0.1893 -0.0939 -0.0881
38174W        W81087  14.554   8.678  17.686  0.4341  0.2007  0.0804
38175W        W81088  20.182   7.757  21.869 -0.0376 -0.0476  0.0491
38176W        W81089  26.524  32.297  20.152 -0.0383  0.1525 -0.0276
38177W        W81090  21.240  33.381  19.068 -0.0245 -0.2664 -0.7089
38178W        W81091  11.826  13.590  19.951  0.0923 -0.3006  0.0310
38179W        W81092  12.647   1.489  22.171  0.4098  0.1043  0.2756
38180W        W81093   0.389  10.287  19.980 -0.2367  0.1174 -0.1401
38181W        W81094  17.802  34.288  20.981  0.2647  0.1504 -0.2064
38182W        W81095   2.339   7.968  21.262  0.1041  0.1878  0.0222
38183W        W81096  13.612  23.460  24.932  0.0455  0.1194  0.0276
38184W        W81097  18.323   7.994   6.431 -0.0775  0.2742  0.0385
38185W        W81098  11.956   1.750  21.194 -0.0898 -0.0261 -0.2996
38186W        W81099  23.248   5.427  18.755  0.0572 -0.0976  0.0798
38187W        W81100   8.379   5.900  29.092  0.4550  0.0487  0.0178
38188W        W81101  31.968  32.321  18.081 -0.3760 -0.1193 -0.0027
38189W        W81102  21.056  14.567  12.939 -0.3241 -0.1421 -0.5278
38190W        W81103   9.529   9.192  19.056  0.1006 -0.0485  0.2621
38191W        W81104   8.906   2.487  21.464 -0.1409  0.0696  0.1933
38192W        W81105  21.630  11.161  21.438 -0.0395 -0.2708 -0.0455
38193W        W81106  10.385  10.747  27.956 -0.0590 -0.2058  0.3033
38194W        W81107  13.328   1.163  26.064  0.0374 -0.0032 -0.1737
38195W        W81108  16.066  31.635  20.095  0.2041 -0.0716 -0.0214
38196W        W81109  10.380  27.448  20.964  0.1937  0.2117 -0.0671
38197W        W81110   6.515  29.054  24.987 -0.0280  0.0903 -0.2310
38198W        W81111  10.871  12.713  18.687 -0.0454 -0.3792  0.0703
38199W        W81112  13.702  33.112  27.050  0.2314 -0.0150 -0.0451
38200W        W81113  13.871  33.484   2.249  0.1404  0.0703 -0.3492
38201W        W81114  10.751  33.955   0.958 -0.1701 -0.0463 -0.0160
38202W        W81115   3.711   1.017  25.703 -0.0700 -0.1477 -0.0799
38203W        W81116   5.254   5.205  18.951 -0.2361  0.1886  0.2843
38204W        W81117  14.649   3.797  16.119 -0.2490 -0.0916  0.1383
38205W        W81118   2.785   6.227  19.416 -0.3684  0.1651 -0.1389
38206W        W81119  18.278   1.939  16.683 -0.3112 -0.5056  0.0793
38207W        W81120  13.230  30.543  27.440 -0.0626 -0.0139  0.2753
38208W        W81121  13.828  34.264  22.051  0.1006 -0.0258  0.3312
38209W        W81122  13.559  13.742  22.338 -0.0788 -0.4105 -0.0604
38210W        W81123   3.864   5.883  16.879 -0.1939 -0.0109  0.0812
38211W        W81124  34.046  32.875  20.742 -0.1357 -0.4217 -0.6493
38212W        W81125   3.739   6.131  20.715 -0.1034  0.0213  0.0136
38213W        W81126   4.636  16.118  16.251  0.1360  0.2281 -0.2788
38214W        W81127   0.640   2.556  22.555 -0.1946 -0.1389 -0.1806
38215W        W81128  13.313   0.303  24.455  0.1484 -0.1968  0.3592
38216W        W81129  12.006   0.301  28.508 -0.0185  0.2373  0.1157
38217W        W81130   6.038   6.118  20.630 -0.0114 -0.3938 -0.2186
38218W        W81131   5.864  33.685  18.427  0.2602  0.1066  0.1296
38219W        W81132   5.756   5.324  19.233 -0.0505  0.2032  0.1488
38220W        W81133  11.753   8.421  16.761  0.4551  0.1603 -0.0721
38221W        W81134   3.065   7.134  17.569 -0.1472  0.1938 -0.1466
38222W        W81135  26.250  15.137  17.948 -0.1176 -0.2136  0.1709
38223W        W81136  12.663   2.011  27.169 -0.1551 -0.0266 -0.5581
38224W        W81137  23.321   1.224  20.815 -0.1832 -0.0176  0.0715
38225W        W81138  14.230  29.432  25.202  0.1349  0.0726 -0.3031
38226W        W81139  17.172   4.986   4.625 -0.0152 -0.2018  0.1229
38227W        W81140  15.162   3.897  26.269 -0.0379  0.2702  0.2907
38228W        W81141   2.208  33.624  28.056  0.2712  0.2777  0.0403
38229W        W81142  12.834  20.200  18.790 -0.4233  0.0840 -0.0313
38230W        W81143   4.806   7.318  17.424  0.1766  0.0307  0.1564
38231W        W81144  10.712   8.214  19.096  0.2229 -0.1465 -0.2722
38232W        W81145  11.612   4.140  24.328 -0.0036  0.1357  0.1258
38233W        W81146  34.286   9.018  23.240  0.0176 -0.0001 -0.0562
38234W        W81147   8.638  30.422  22.899  0.1947  0.1714 -0.1958
38235W        W81148   4.143  11.051  29.210  0.0546  0.0669  0.3129
38236W        W81149   6.499   3.575  22.434  0.0164 -0.2414  0.1943
38237W        W81150   8.089   2.715  16.997 -0.1388 -0.1063  0.0758
38238W        W81151   6.717   9.297  22.580 -0.0022 -0.0547  0.2398
38239W        W81152  10.710   9.140  27.277 -0.0318  0.1027  0.3600
38240W        W81153  13.913   5.398   0.676  0.1216 -0.1130  0.0466
38241W        W81154  10.748  33.448  19.825 -0.1414 -0.0923 -0.2265
38242W        W81155  14.277  30.777  17.989 -0.3354  0.0263 -0.3323
38243W        W81156   9.662   3.608  28.868 -0.1814  0.1773 -0.1082
38244W        W81157  11.931   0.839   5.982  0.0178 -0.2522  0.3162
38245W        W81158   7.762  31.268   6.265  0.0259 -0.2012 -0.2124
38246W        W81159  19.307   0.121   0.524  0.0366  0.1368  0.3146
38247W        W81160   4.822  33.121  23.158 -0.0936  0.0695  0.1249
38248W        W81161   4.833   7.413  25.795  0.0648  0.1693 -0.0394
38249W        W81162   4.681   3.318   0.066 -0.0861  0.0794  0.1649
38250W        W81163   8.140  27.364   1.012  0.0794 -0.1416  0.2101
38251W        W81164   8.612   9.758  21.919 -0.2282 -0.2984 -0.1706
38252W        W81165   4.530   5.396  17.746  0.1289 -0.0514  0.0332
38253W        W81166   1.171   4.504  21.631  0.1371  0.0453  0.1067
38254W        W81167  10.863  14.192  24.932  0.1307 -0.3348  0.1435
38255W        W81168   8.620   7.258  23.186  0.0919 -0.0134 -0.1267
38256W        W81169  33.695   7.271  21.721 -0.1746  0.0297 -0.1755
38257W        W81170  10.924   2.409  25.910  0.0004  0.2536 -0.2499
38258W        W81171  12.319   6.909  22.485  0.1479 -0.3534  0.2789
38259W        W81172  19.525   9.626  16.971 -0.0613 -0.0474  0.1532
38260W        W81173   5.463   2.743   0.260  0.3592 -0.0436  0.0291
38261W        W81174  13.169   6.877  19.702  0.1209  0.1632 -0.1967
38262W        W81175  16.938  30.519   0.171 -0.0033  0.2037  0.2509
38263W        W81176  27.320   9.233   2.513  0.2447 -0.1876 -0.1636
38264W        W81177  14.933  34.158  26.455  0.1435  0.1405  0.0663
38265W        W81178  11.629  15.376  22.676 -0.0967 -0.1635  0.2047
38266W        W81179  15.578   2.774  23.127 -0.0707 -0.2447 -0.0319
38267W        W81180  13.528  32.789  11.376 -0.4634 -0.0836 -0.1635
38268W        W81181   3.298   2.230  25.659  0.0280  0.3452 -0.4407
38269W        W81182   3.676   1.654  28.246  0.1042  0.2290 -0.1310
38270W        W81183   2.476   8.512  26.005  0.0543 -0.0352 -0.2842
38271W        W81184   9.789   7.218  23.011 -0.0511  0.0335  0.2254
38272W        W81185  28.219   3.687  18.440 -0.2469 -0.0508  0.1883
38273W        W81186   6.499  14.667  21.934  0.0130  0.1928 -0.1728
38274W        W81187   9.161   1.135  24.329  0.3251  0.0840  0.1107
38275W        W81188   8.787   7.521  22.209  0.1695  0.1686 -0.0701
38276W        W81189  11.117  14.254  27.150 -0.2543 -0.0482  0.1673
38277W        W81190  11.418  14.795  23.057  0.2559  0.4567 -0.4123
38278W        W81191  13.548   5.205  19.226  0.0448  0.1028 -0.2913
38279W        W81192  12.523   8.197  21.245  0.1726 -0.0079  0.0298
38280W        W81193  10.506   2.438  22.055 -0.1611 -0.0382  0.0556
38281W        W81194   4.609   8.702  27.220  0.0507  0.4781  0.3583
38282W        W81195  14.531  26.374   0.952 -0.1506  0.1744 -0.1372
38283W        W81196  11.715  31.263  18.575 -0.2792  0.0909 -0.0792
38284W        W81197   5.642  13.138  20.445 -0.4280 -0.2826  0.2196
38285W        W81198  16.308   0.803  21.986 -0.3187  0.0011 -0.1764
38286W        W81199   1.362  26.953  20.366 -0.0923 -0.2567  0.0847
38287W        W81200   7.791   4.628  23.861 -0.1735 -0.1429 -0.2011
38288W        W81201  10.426  13.242  28.079  0.4093 -0.1186  0.2723
38289W        W81202   7.774  10.180  29.573 -0.1845 -0.2839  0.1860
38290W        W81203   7.854  19.013  20.156 -0.4303 -0.1901  0.0534
38291W        W81204  11.557  32.947  21.756  0.1669  0.7424 -0.1515
38292W        W81205  12.990   9.294   6.372  0.0979 -0.0553 -0.4780
38293W        W81206  12.707   5.804  18.926 -0.0690 -0.0335 -0.0717
38294W        W81207   2.886  10.094  27.936  0.0805 -0.3288 -0.0465
38295W        W81208   6.569  27.637  19.417  0.5798 -0.3361 -0.2195
38296W        W81209   6.669  31.531   3.048 -0.2409 -0.3789 -0.1056
38297W        W81210   9.514   6.096  24.545 -0.1689  0.1653 -0.1630
38298W        W81211   5.759  13.590   2.177  0.0128 -0.0715  0.2748
38299W        W81212  10.867   0.830  28.575 -0.0005 -0.0255 -0.1444
38300W        W81213  10.729   1.002  18.822 -0.3384 -0.2813 -0.0884
38301W        W81214   7.939  11.327  22.314 -0.2273 -0.0020  0.1339
38302W        W81215  20.334  32.075  21.753 -0.0847 -0.1648 -0.1829
38303W        W81216  10.828   5.315  18.637 -0.0435 -0.2241  0.1949
38304W        W81217   8.615   2.808  24.648 -0.3475 -0.0887  0.1669
38305W        W81218   5.191   3.573  27.995  0.0013 -0.0142 -0.2721
38306W        W81219  14.981  26.595  24.454 -0.2302 -0.0246 -0.2895
38307W        W81220  13.508   4.082  21.517  0.2713 -0.0120  0.2252
38308W        W81221  14.845   4.464   6.660 -0.1154  0.4501  0.0833
38309W        W81222   3.773   4.714  19.983 -0.2953 -0.0454  0.0753
38310W        W81223  32.854   9.564  21.164  0.1185 -0.0339 -0.0942
38311W        W81224  13.075  14.235  22.797 -0.0522  0.0069  0.1781
38312W        W81225  10.478  16.954  25.399  0.2076 -0.0032 -0.0143
38313W        W81226  31.258   3.661  17.363 -0.1679  0.3367  0.1808
38314W        W81227   1.592   9.509  28.835 -0.0323 -0.0439  0.1214
38315W        W81228  14.816  29.572  23.196 -0.1905  0.0181  0.1287
38316W        W81229  12.646  24.222  26.543 -0.0626 -0.1894 -0.2456
38317W        W81230   6.928  13.735   4.917  0.2965  0.2927  0.4158
38318W        W81231  14.967   3.620  25.838 -0.1134 -0.0469  0.2132
38319W        W81232   8.499   0.440  24.921  0.3716  0.1991  0.0324
38320W        W81233   1.006   2.919   8.320 -0.2588 -0.2603  0.3923
38321W        W81234   7.919  30.283  16.665 -0.0046  0.1415 -0.2399
38322W        W81235   2.506  33.695  17.593  0.1188 -0.4377 -0.1482
38323W        W81236   0.328  10.442   1.841  0.1252  0.2093  0.0403
38324W        W81237  15.540  16.762  28.305 -0.0240 -0.0953 -0.0150
38325W        W81238  13.584  31.307   2.062  0.0865  0.3464  0.1871
38326W        W81239   9.817  27.415  25.418  0.3029  0.1441 -0.0142
38327W        W81240   2.713  27.718  25.045  0.0212  0.1806 -0.1070
38328W        W81241  13.205   2.370  19.676 -0.2685  0.2871 -0.1226
38329W        W81242  15.417   6.123  23.767 -0.1123  0.2527  0.0015
38330W        W81243   3.412  30.512  27.096 -0.6445  0.2598  0.2141
38331W        W81244  15.868  31.276  19.426  0.0020 -0.1983 -0.0054
38332W        W81245  13.387  13.858  16.680 -0.5061  0.1126  0.1722
38333W        W81246   7.384  33.859   0.816  0.0793 -0.1362  0.0273
38334W        W81247   1.319  33.724  27.524 -0.3273  0.2558  0.0882
38335W        W81248  17.681  17.010  26.660  0.1081 -0.0753 -0.0396
38336W        W81249  18.638   2.574  29.300  0.1392  0.1336  0.2674
38337W        W81250   6.057   7.805   0.760 -0.1416 -0.1274  0.1091
38338W        W81251  17.308   5.872   0.184 -0.1137 -0.1735  0.1472
38339W        W81252  32.112  11.477  28.337  0.0870 -0.3089  0.5047
38340W        W81253   9.532   6.900  29.377  0.2922 -0.5003 -0.0349
38341W        W81254   5.630   1.662  25.501  0.1016  0.2938  0.1918
38342W        W81255   6.655   8.692  21.010 -0.3398  0.1999 -0.0371
38343W        W81256   6.493  31.434  23.218  0.0549 -0.1852 -0.0645
38344W        W81257  11.780   4.283  23.827  0.2765  0.1649  0.0845
38345W        W81258   2.241   1.920   3.119  0.2345  0.0981  0.3942
38346W        W81259  20.071  27.530  24.912  0.2286 -0.1308 -0.0858
38347W        W81260  10.682   8.515  25.856  0.3621  0.1749  0.0634
38348W        W81261   6.584  30.703  27.348 -0.2876  0.0349 -0.2827
38349W        W81262   8.377   1.066  27.039 -0.0780 -0.2297 -0.0452
38350W        W81263  33.624   3.424  23.536 -0.2786 -0.2974  0.1859
38351W        W81264  11.620   6.601  23.144 -0.0048 -0.0864 -0.1359
38352W        W81265  31.746  10.760   0.765  0.2579 -0.0418  0.3168
38353W        W81266   7.904  12.088  26.088  0.3493  0.0354  0.0063
38354W        W81267   2.915   8.187   0.342 -0.2679  0.0415  0.0881
38355W        W81268   2.525   3.865  28.118 -0.5219 -0.0193 -0.0145
38356W        W81269  15.280  33.267  17.662  0.2600  0.2233 -0.1694
38357W        W81270   6.158   4.547  22.332 -0.3706  0.2141  0.0345
38358W        W81271   2.313  18.254  29.272 -0.0484  0.1064 -0.1913
38359W        W81272  30.793  23.647  24.074  0.1682 -0.0718 -0.1221
38360W        W81273  17.207   0.199  19.907  0.1744 -0.3663  0.1445
38361W        W81274  13.439  31.099   8.805  0.0539 -0.3420 -0.0256
38362W        W81275  12.767   5.201  21.728 -0.0626 -0.1843 -0.1650
38363W        W81276  18.996  30.940  21.312  0.2435  0.2809  0.2234
38364W        W81277   7.653   7.041   2.638 -0.0968  0.0949  0.1878
38365W        W81278  30.342  16.980   6.390  0.0251 -0.3471 -0.0374
38366W        W81279   9.048   0.876  18.098 -0.0868 -0.1880  0.1054
38367W        W81280   6.067  32.965  23.750  0.0938  0.3079 -0.0429
38368W        W81281  14.069   8.591  18.017 -0.0691  0.3873  0.0975
38369W        W81282   9.039   5.071  22.456  0.1580 -0.3090 -0.3101
38370W        W81283   4.049  12.570  27.680 -0.0701 -0.1154 -0.0525
38371W        W81284   6.571  15.321  24.910  0.0621 -0.1489  0.1111
38372W        W81285   4.908  17.193  25.532  0.3073  0.2780  0.1476
38373W        W81286   5.769   1.442  22.879  0.0681 -0.0366  0.1399
38374W        W81287   1.341   5.966  18.519 -0.0431  0.0666  0.0587
38375W        W81288  12.390  27.888  16.115  0.0648 -0.1461  0.3159
38376W        W81289   7.461   3.493  17.634  0.1365 -0.4484 -0.1464
38377W        W81290   9.300   4.543  24.922  0.1457 -0.2594 -0.1535
38378W        W81291  11.534  27.364  17.674 -0.3338  0.0128  0.0741
38379W        W81292   9.654  30.504  16.666  0.1525 -0.1902 -0.1434
38380W        W81293  12.783  15.831  20.627  0.0306  0.0669 -0.0721
38381W        W81294  11.683  26.812  20.546 -0.0449  0.0856 -0.1833
38382W        W81295   8.111  29.058   3.576 -0.0046  0.1606  0.0136
38383W        W81296  10.749   8.268  25.345 -0.2982  0.2983  0.4403
38384W        W81297   4.246   0.167  29.124  0.0992 -0.0759 -0.0820
38385W        W81298  15.299  33.256  29.744  0.1305  0.0985  0.2088
38386W        W81299  34.196   0.486  19.362  0.0979 -0.0936 -0.2078
38387W        W81300  24.783   5.792  24.420 -0.2056  0.1769 -0.1665
38388W        W81301   7.933   5.083  25.340 -0.2521 -0.0658  0.0163
38389W        W81302  11.563  28.911  24.210  0.1674  0.4053  0.0474
38390W        W81303   9.066  27.531  26.079  0.0665 -0.1005  0.2864
38391W        W81304  10.410   8.720  26.294  0.2275 -0.0784 -0.1401
38392W        W81305   3.387  30.311  26.170 -0.1106 -0.0404  0.0812
38393W        W81306  20.066  11.300  25.883 -0.3244  0.0479  0.0421
38394W        W81307  16.945  33.938  16.409 -0.0423 -0.1094 -0.1060
38395W        W81308   5.631   4.995  24.033  0.2250  0.2226  0.0082
38396W        W81309   3.994   3.772  28.888 -0.1514  0.0896  0.3191
38397W        W81310   2.196  28.490  23.196  0.0935  0.3328 -0.0870
38398W        W81311  10.705  14.169  23.433  0.0621 -0.0406 -0.0952
38399W        W81312   1.974   5.172  21.677 -0.2440  0.1689  0.0189
38400W        W81313   8.521   7.760  23.078  0.0433  0.2264 -0.5270
38401W        W81314   9.021  11.596  15.075 -0.1755  0.1409 -0.1675
38402W        W81315   4.796  29.109  16.996  0.0787 -0.3378  0.3367
38403W        W81316   6.549  21.771  19.760 -0.1422 -0.2430  0.0877
38404W        W81317   2.310  16.598  18.742  0.0360  0.2278 -0.0281
38405W        W81318  13.796   5.215   9.804 -0.1609  0.2012  0.1119
38406W        W81319   2.890   3.718  23.210 -0.0195  0.0398 -0.1303
38407W        W81320   8.436   4.103  19.150 -0.0021  0.0753  0.1229
38408W        W81321  28.919  34.273  22.627 -0.0385 -0.0990 -0.1634
38409W        W81322   7.755   8.538  26.476  0.2261  0.2045 -0.1674
38410W        W81323  31.461  30.771  24.429  0.0118  0.1607  0.1418
38411W        W81324  32.233  32.958  23.852 -0.0575 -0.1458  0.1644
38412W        W81325   7.317  30.742  21.192  0.0346 -0.0477  0.3313
38413W        W81326   3.143  31.539  23.275 -0.2676  0.2729  0.2975
38414W        W81327   0.653  33.029  23.150 -0.1891 -0.0303  0.1897
38415W        W81328   0.765  28.059  23.091  0.1266 -0.3765 -0.5262
38416W        W81329   0.428   5.618  25.086 -0.1521  0.0040 -0.1244
38417W        W81330   9.792   4.791  25.451 -0.1814  0.0324  0.0432
38418W        W81331  14.819  16.523  22.255  0.2271 -0.1594 -0.1870
38419W        W81332  32.738   1.266  26.725 -0.4269 -0.0378  0.0736
38420W        W81333   9.194   5.796   3.357  0.1064  0.2071 -0.2078
38421W        W81334  10.309   2.276  23.222  0.0638  0.1999 -0.1999
38422W        W81335  11.031   2.889  24.251  0.0303 -0.2453  0.3161
38423W        W81336  12.652  14.505  25.530 -0.1315  0.3813  0.2874
38424W        W81337  11.187  33.555  22.408 -0.1180 -0.1149 -0.1027
38425W        W81338  12.391  10.763  23.068 -0.0330 -0.0200 -0.1117
38426W        W81339   8.601   5.339  26.193 -0.0692 -0.3423  0.0920
38427W        W81340  22.224   6.706  14.752  0.5090 -0.0416  0.1625
38428W        W81341   2.690  30.277  23.148  0.2534 -0.2770  0.1117
38429W        W81342   7.797  31.906  26.502 -0.0135 -0.0588  0.1148
38430W        W81343   8.469   5.995  26.674  0.4169 -0.3236  0.0983
38431W        W81344  11.121  10.868  27.612 -0.1019 -0.2773  0.1697
38432W        W81345   8.503   7.576  19.134  0.0662  0.1944  0.0586
38433W        W81346   0.807   9.993  25.129  0.1753 -0.0012 -0.4945
38434W        W81347  29.470  10.605  25.547  0.5494  0.3430  0.1705
38435W        W81348  16.646   9.119  18.788  0.2196  0.0260 -0.3113
38436W        W81349  14.451   6.710  19.943 -0.2114  0.2191 -0.2713
38437W        W81350   8.948   1.255  23.876  0.1477 -0.0548  0.0003
38438W        W81351  10.000  33.144  28.220 -0.1671 -0.2468  0.2087
38439W        W81352   1.238   2.412  22.704  0.1682 -0.1767 -0.0840
38440W        W81353  14.349   7.765  17.845  0.0970  0.0891  0.3129
38441W        W81354  14.361   4.571   6.597  0.2131 -0.1743 -0.0571
38442W        W81355  14.598   5.377  24.938 -0.0148  0.1782  0.0642
38443W        W81356  22.234  29.829  18.541  0.2388  0.1090  0.0489
38444W        W81357  15.255   0.924   8.442  0.3600 -0.1929 -0.0142
38445W        W81358  14.317   3.216  27.948  0.3705 -0.0515  0.3380
38446W        W81359  28.969  10.338  15.870  0.0758 -0.0685  0.1103
38447W        W81360  11.072  33.654  20.146 -0.2193 -0.3640  0.1447
38448W        W81361  12.494  27.217   7.839  0.1116  0.0185 -0.3330
38449W        W81362   2.184  10.774  25.192  0.0751 -0.0469  0.2141
38450W        W81363  19.898  24.978  18.939  0.2369 -0.0362  0.0232
38451W        W81364  12.693  11.339  20.303 -0.2284  0.0632 -0.0318
38452W        W81365  11.147  30.924  15.876 -0.0904 -0.1822  0.0625
38453W        W81366  10.002  33.771   0.237 -0.0788  0.0646  0.0107
38454W        W81367   9.908   3.532  20.940  0.2214 -0.0719 -0.1954
38455W        W81368   1.339   5.328   1.743 -0.3366  0.0531  0.1179
38456W        W81369  12.887  11.649  19.511 -0.0844 -0.0784 -0.1266
38457W        W81370  12.495   4.864  22.038  0.0656 -0.4322  0.1889
38458W        W81371   0.794   6.079  20.527  0.1885 -0.0436 -0.0568
38459W        W81372  12.924   5.912  24.725 -0.1243 -0.0996  0.1384
38460W        W81373  12.521  11.378  27.771 -0.0432  0.2801  0.1028
38461W        W81374  23.673  31.773  19.470 -0.0984  0.3040  0.1322
38462W        W81375  16.266  30.626  24.592  0.1741 -0.1892 -0.1046
38463W        W81376  10.949  28.951  24.048  0.3566  0.0911  0.1532
38464W        W81377   3.134   5.471  27.874  0.1619 -0.0733  0.0112
38465W        W81378   4.364   0.527   5.018 -0.2297  0.1720 -0.2395
38466W        W81379   2.741   5.331  26.725  0.2433 -0.1015 -0.0842
38467W        W81380  13.567  17.633  22.835 -0.0085  0.0282  0.0587
38468W        W81381  11.426  16.208  15.722  0.1435 -0.1300  0.1033
38469W        W81382   6.877   0.051  24.371  0.0660 -0.0955 -0.1894
38470W        W81383  18.573  12.312  19.282 -0.1546 -0.0149 -0.1885
38471W        W81384  14.327  10.952   8.751  0.0844  0.0253 -0.0549
38472W        W81385   2.190  12.230  18.569  0.1280  0.3644  0.3598
38473W        W81386   6.761   2.134   1.396  0.0112 -0.1071  0.1458
38474W        W81387   0.588   8.444  26.825  0.0554 -0.0761 -0.0487
38475W        W81388  20.049   6.834  26.639 -0.0772  0.1980  0.1120
38476W        W81389   8.811  10.003  29.362  0.0674  0.2473 -0.1524
38477W        W81390  11.308  32.624  27.628 -0.0283 -0.1329  0.3237
38478W        W81391   9.077  29.670  21.866  0.0199  0.0911  0.0302
38479W        W81392   9.873   1.345  28.743 -0.0333  0.4282 -0.1178
38480W        W81393  11.092   2.494  17.708  0.1037  0.1198  0.1279
38481W        W81394  24.978   4.362   2.798  0.1625 -0.0283  0.4044
38482W        W81395  15.631   3.210  25.139 -0.0099  0.1694  0.0771
38483W        W81396  10.279   9.161   4.331 -0.2130 -0.0274  0.1968
38484W        W81397   2.510   1.011   0.884 -0.0101  0.1675 -0.0236
38485W        W81398  15.329  10.005  17.686  0.0200  0.0895 -0.2559
38486W        W81399   8.650  19.769  25.271 -0.0796 -0.0424 -0.1665
38487W        W81400   4.226   6.095  25.208 -0.1710 -0.1853 -0.1870
38488W        W81401   7.061   1.190  26.190 -0.2186 -0.1305  0.2236
38489W        W81402   9.906  34.026   8.939  0.1382  0.0321 -0.0175
38490W        W81403  13.315   5.969  15.389 -0.0361  0.1839  0.0405
38491W        W81404   8.567   2.498  25.339  0.0228 -0.2383 -0.0177
38492W        W81405  18.090   6.363  16.074  0.0205 -0.1599 -0.0740
38493W        W81406   4.974   1.881  17.927 -0.0726  0.1299  0.5474
38494W        W81407  13.407   0.506  25.061  0.3472 -0.1384  0.0279
38495W        W81408   3.362  32.649  27.034 -0.1128  0.2010 -0.0789
38496W        W81409   5.650   4.930   0.445  0.0558 -0.0485  0.0618
38497W        W81410  11.819   7.382   1.530 -0.2290  0.2542 -0.4773
38498W        W81411  17.175   5.753  21.058  0.1425  0.1249  0.2133
38499W        W81412   7.055  33.062   5.863 -0.3123  0.1196  0.1111
38500W        W81413   1.017   9.375   0.273  0.0332 -0.0292 -0.2972
38501W        W81414  13.410   8.225  16.424  0.1259 -0.1421  0.3381
38502W        W81415  14.911   7.388  13.943  0.2867 -0.1731  0.0218
38503W        W81416  14.357   9.377   1.405  0.2075  0.6647 -0.0397
38504W        W81417  31.695  30.484  22.179 -0.0021 -0.0076  0.0188
38505W        W81418   8.376  34.206  29.096  0.4234  0.2165  0.4096
38506W        W81419  10.013  15.591  18.766  0.5036 -0.2157 -0.2770
38507W        W81420   9.687  30.058  18.468  0.1327 -0.0986 -0.0410
38508W        W81421  31.836   4.316  17.609 -0.0715  0.1654  0.1241
38509W        W81422  25.357  12.075  19.301 -0.1867  0.1788 -0.0559
38510W        W81423  32.804   5.870  29.664  0.1931 -0.2034  0.3201
38511W        W81424  33.263  12.059  28.590  0.2980 -0.2139  0.1094
38512W        W81425  22.500  10.686  21.428 -0.0751 -0.1106  0.2062
38513W        W81426  32.190  12.597  27.583 -0.0052  0.3541 -0.2513
38514W        W81427   3.441  12.549  28.321  0.3069 -0.3652 -0.0440
38515W        W81428  28.236   6.733  24.247 -0.0058 -0.2773  0.1667
38516W        W81429   3.614  27.117  23.860 -0.3469  0.1214 -0.1249
38517W        W81430  10.986   3.894  28.367 -0.1219 -0.0197  0.5128
38518W        W81431   0.544  11.412  25.449 -0.0841  0.1827  0.2932
38519W        W81432   7.797  22.149  26.780 -0.0207  0.2715  0.2788
38520W        W81433   9.999   4.277  20.088  0.0300  0.1825 -0.1859
38521W        W81434   4.314  25.570   2.093 -0.0168 -0.2631  0.0517
38522W        W81435  13.995  18.453  21.668  0.4666 -0.3186  0.4324
38523W        W81436   0.593   6.394   3.079 -0.2246 -0.1125 -0.1486
38524W        W81437   2.437  33.779  23.287 -0.4812 -0.0004  0.0122
38525W        W81438  10.539  26.352  16.062 -0.1299 -0.0574 -0.3493
38526W        W81439   5.761   4.041  17.447 -0.1312  0.2665  0.0146
38527W        W81440  15.210   0.156  26.282 -0.1039 -0.0869  0.1196
38528W        W81441  14.609  25.377  17.497 -0.1140  0.1276  0.0415
38529W        W81442   3.795   7.455  28.585  0.1685  0.1286 -0.0576
38530W        W81443  10.347   8.305  18.568  0.1838  0.0178 -0.5897
38531W        W81444   8.079   7.168  27.415  0.1031  0.0238 -0.6141
38532W        W81445   8.210  11.820  18.934 -0.1908 -0.0509  0.0751
38533W        W81446  20.945  10.907  19.006  0.3653 -0.0025 -0.3798
38534W        W81447  18.683  15.876  13.807  0.1770 -0.1138 -0.3079
38535W        W81448   6.765  11.926  29.434  0.2713 -0.0342 -0.1201
38536W        W81449   0.448  33.505   4.971 -0.0303  0.0265  0.1269
38537W        W81450   5.689  33.752  20.132 -0.0977 -0.1127 -0.3534
38538W        W81451   9.510   0.731  20.597  0.3854  0.4123  0.0257
38539W        W81452   2.686   6.896  21.450  0.0240  0.0693  0.0926
38540W        W81453   0.782  11.178  27.773 -0.0615 -0.3345  0.0598
38541W        W81454  18.012   2.979  22.839 -0.1493 -0.0113  0.3171
38542W        W81455  12.568  25.891  27.172 -0.1247 -0.0847 -0.1502
38543W        W81456   7.153  10.329  16.112 -0.0721  0.1372  0.1879
38544W        W81457  15.095  12.925  27.398  0.0747  0.2728  0.2261
38545W        W81458  14.933   4.314  28.952 -0.3459  0.1725 -0.1690
38546W        W81459   5.707  10.928  18.124 -0.2325 -0.2034 -0.1464
38547W        W81460  11.935   7.719  18.161 -0.0400  0.1925 -0.0416
38548W        W81461   7.709   1.480   0.564 -0.1597 -0.2077  0.1597
38549W        W81462   9.969   3.880  29.184  0.0162 -0.0842  0.1246
38550W        W81463  14.662   4.170   8.538 -0.0256 -0.0625  0.1175
38551W        W81464  21.060   3.134  27.467  0.0342 -0.0263 -0.1478
38552W        W81465   2.271  33.324  17.761  0.0866  0.0555 -0.2342
38553W        W81466   9.486  14.256  23.299  0.2404  0.1565 -0.0674
38554W        W81467   5.903  29.527  24.623 -0.3374  0.0704  0.0441
38555W        W81468  11.771   1.615  17.954  0.0432  0.0114  0.0126
38556W        W81469  14.720   9.387  15.856  0.3980  0.0715  0.1627
38557W        W81470   5.351   8.228  20.888 -0.0181  0.0653 -0.0933
38558W        W81471   2.919  30.986  28.727  0.0584  0.0787  0.1650
38559W        W81472   7.519  27.261  27.102  0.1089  0.1923 -0.0674
38560W        W81473  15.707   9.546  22.099 -0.0851  0.0400 -0.0672
38561W        W81474  16.430   2.278  20.126  0.0092  0.1611  0.0313
38562W        W81475   8.505   4.258  21.687 -0.0379 -0.3088  0.0695
38563W        W81476  31.143   8.571  20.256 -0.3348  0.1281  0.0009
38564W        W81477   9.904   9.166  18.613 -0.1836 -0.2712 -0.0139
38565W        W81478  16.420   3.156  22.370 -0.0760  0.1084 -0.1533
38566W        W81479  29.909  13.806  28.243  0.0157  0.0273 -0.2523
38567W        W81480  18.105   1.943  17.141 -0.4416 -0.3737 -0.2812
38568W        W81481   4.246   0.925  29.049  0.0821 -0.0246 -0.2931
38569W        W81482  12.437   6.226  16.797  0.2615 -0.1421 -0.0044
38570W        W81483  14.906   7.050  18.863 -0.1209  0.1705 -0.0828
38571W        W81484   7.454  33.794  16.766  0.3827 -0.1267  0.0025
38572W        W81485   8.903   8.556  19.830  0.0939 -0.0859 -0.0991
38573W        W81486  12.415  33.804  19.888  0.0025 -0.1095  0.1149
38574W        W81487  16.743  32.546  25.549  0.2705 -0.1344  0.3244
38575W        W81488  11.041  31.434  16.792 -0.2134  0.3536 -0.0828
38576W        W81489  16.023   6.297  21.043 -0.0833  0.4426 -0.0656
38577W        W81490   6.120  34.101   3.823 -0.1156 -0.0068  0.2434
38578W        W81491  10.383  14.451  18.102 -0.0898  0.1268  0.0646
38579W        W81492  15.062   1.697  15.825  0.0406  0.2528 -0.3085
38580W        W81493   0.831  21.543  27.239 -0.3628  0.1341  0.0485
38581W        W81494   6.892   7.251   1.838  0.0534  0.3969  0.3433
38582W        W81495   8.577   4.702   0.139  0.2759  0.3471 -0.3073
38583W        W81496   1.708   7.726   3.522 -0.2248  0.0052 -0.0702
38584W        W81497   3.598  34.437   0.527  0.0838 -0.1372  0.1122
38585W        W81498   8.831  13.041  17.031 -0.0842  0.0159  0.0715
38586W        W81499   6.364   3.071  18.834  0.3816 -0.0572  0.0269
38587W        W81500  12.833   5.481   0.433 -0.4489 -0.0135  0.3411
38588W        W81501  11.447   4.269  18.340 -0.2107 -0.2803  0.2239
38589W        W81502  16.243  10.961  28.464  0.2199 -0.2243  0.1696
38590W        W81503   4.747   8.584  19.175 -0.2947  0.1136 -0.0664
38591W        W81504   7.624   6.655  21.386  0.0819 -0.2587 -0.0851
38592W        W81505   6.637  21.093  28.067  0.0743 -0.1902 -0.1367
38593W        W81506  24.311   0.273  25.966 -0.1217 -0.4723 -0.4492
38594W        W81507   9.551   7.922   0.496 -0.1314  0.1828 -0.0569
38595W        W81508   5.115  33.755  28.139 -0.1692 -0.0307  0.1626
38596W        W81509   5.617  32.436  18.965  0.4916  0.0655  0.3655
38597W        W81510   3.485   5.988  18.533 -0.1367 -0.1096  0.1130
38598W        W81511   3.933   7.891  20.442  0.0881 -0.0041 -0.0099
38599W        W81512  21.123  12.757  19.367  0.3226 -0.3502  0.0535
38600W        W81513   1.204   7.058  24.187 -0.1749 -0.1449 -0.0984
38601W        W81514   3.593  13.330  24.744 -0.0907  0.1675  0.1892
38602W        W81515  10.689   0.344  25.314 -0.3465  0.0160 -0.2346
38603W        W81516   4.289   0.714  19.944  0.1021  0.0847  0.0284
38604W        W81517  15.209   7.304   3.174 -0.2253  0.0649  0.2080
38605W        W81518   6.119   3.678  27.595 -0.2268  0.0849 -0.2338
38606W        W81519  24.369   2.100  28.875  0.1289  0.0720  0.0342
38607W        W81520  11.098  27.795  23.623 -0.2112 -0.2754 -0.0973
38608W        W81521  11.548  26.917   3.971  0.1373  0.2824  0.0817
38609W        W81522  11.260  10.258   2.068  0.0727  0.1629  0.2831
38610W        W81523  13.998  11.909  25.379  0.0247  0.1511 -0.3215
38611W        W81524  12.337  32.573  19.234  0.1248  0.0998  0.2108
38612W        W81525   7.192   0.151  22.762 -0.2012 -0.6967  0.1902
38613W        W81526   4.389   1.661  18.897 -0.2897 -0.6955 -0.1644
38614W        W81527   0.739  25.310  22.718 -0.1127  0.0669 -0.3071
38615W        W81528   8.009   2.337  23.149 -0.1173 -0.1839  0.1979
38616W        W81529  11.095  27.529  25.151  0.3256  0.2062 -0.1060
38617W        W81530  20.413   3.918  25.242 -0.0250 -0.1195 -0.0274
38618W        W81531  20.608  31.902   4.785  0.0418 -0.1973 -0.1785
38619W        W81532   5.347   5.367  24.743  0.3062  0.2340 -0.0724
38620W        W81533   2.740  29.169  27.476  0.4265  0.0729  0.3156
38621W        W81534  16.713   6.299  28.408 -0.0767 -0.3644  0.0356
38622W        W81535   7.600  28.679  26.771  0.0221 -0.0128  0.3602
38623W        W81536   1.878   2.726  24.981 -0.0773  0.3200  0.1482
38624W        W81537   8.566  10.021  28.810 -0.1773  0.1531  0.0162
38625W        W81538   6.831   3.871  20.885  0.4459 -0.3149 -0.0395
38626W        W81539  18.197  26.874  23.637 -0.1033 -0.2136 -0.1022
38627W        W81540   8.289   2.299  20.893 -0.2405  0.2061 -0.3860
38628W        W81541   0.940  11.614  23.807 -0.1576 -0.0889  0.4507
38629W        W81542  16.553   7.697  17.579 -0.2247  0.1736 -0.0394
38630W        W81543  10.217  32.279  17.699  0.0043  0.2078  0.2090
38631W        W81544   7.324   2.020  18.275 -0.3287 -0.2832 -0.0614
38632W        W81545   8.928  10.708  17.301  0.2355  0.0560 -0.0862
38633W        W81546   3.145   9.628  10.749 -0.0562  0.2116  0.3459
38634W        W81547   9.514   8.345  21.080 -0.0789  0.2415  0.1857
38635W        W81548   6.832  11.191   0.244  0.0882  0.1086  0.0955
38636W        W81549  16.969  11.781  21.691 -0.2193 -0.0879 -0.3706
38637W        W81550   6.717   6.516  12.782  0.1596 -0.1167  0.2050
38638W        W81551   6.288   9.839  26.811  0.1416 -0.4528 -0.0858
38639W        W81552  32.082  33.491   1.766 -0.1941  0.0466 -0.0779
38640W        W81553  17.927   9.455   5.789  0.1533 -0.1241  0.0194
38641W        W81554   9.469   8.543   1.960  0.2248 -0.0124 -0.1505
38642W        W81555  15.048  31.014   3.195  0.4795 -0.1920  0.0741
38643W        W81556   4.512  34.034  24.098  0.0873  0.0965 -0.1654
38644W        W81557  16.393   6.371  23.840  0.0719  0.1902 -0.3787
38645W        W81558  10.108   5.212   0.222 -0.2634 -0.1715  0.0777
38646W        W81559  14.618  27.642  21.820 -0.0486 -0.1462  0.0319
38647W        W81560  10.360   5.339  24.273 -0.1230 -0.3728 -0.0340
38648W        W81561   2.701  33.681  24.337 -0.1975 -0.0015 -0.1934
38649W        W81562  12.774  12.078   9.496  0.0433  0.0489  0.1275
38650W        W81563  15.151   8.093   5.199 -0.2938 -0.0835 -0.1478
38651W        W81564  19.248  12.279  28.692  0.3052 -0.1722 -0.1019
38652W        W81565   3.755  12.709  28.982  0.0360  0.4214  0.0042
38653W        W81566  11.821   2.528   0.110  0.1671  0.1591  0.2545
38654W        W81567   9.258   9.953   1.231 -0.2463 -0.0457 -0.0590
38655W        W81568   3.814  31.271   2.324 -0.0120 -0.0233 -0.0259
38656W        W81569  12.121   3.117  25.862 -0.1542  0.0881 -0.3492
38657W        W81570   2.645  34.201   6.756  0.0639  0.1508 -0.2328
38658W        W81571   0.090   3.263   2.711  0.0856 -0.1529 -0.0461
38659W        W81572  11.086   8.770  20.435  0.0331  0.0468  0.0760
38660W        W81573  16.337   7.428   8.118 -0.2167 -0.0458 -0.2825
38661W        W81574  11.621   3.329  26.117  0.4980  0.0489  0.0763
38662W        W81575   4.419   7.074   6.226  0.0405 -0.2498  0.4296
38663W        W81576   7.054   6.133  20.937  0.0482 -0.1750  0.4978
38664W        W81577   4.444  34.008  20.383  0.3695  0.0670  0.4290
38665W        W81578   1.318   8.417  28.577  0.1157  0.3506  0.1527
38666W        W81579   8.170  29.679  21.271  0.0092  0.0694  0.1100
38667W        W81580  13.251   4.078  26.435 -0.1183 -0.3639  0.3488
38668W        W81581  10.293   8.662   0.334  0.4925 -0.1006  0.3250
38669W        W81582   7.304  27.734   4.660 -0.0800 -0.1089  0.3186
38670W        W81583   8.000   0.823  25.603 -0.0841  0.2506 -0.1833
38671W        W81584   7.690   1.413   2.753 -0.4552  0.1245 -0.4568
38672W        W81585  10.800   8.170  26.546 -0.1075 -0.0238  0.0428
38673W        W81586  14.207  33.261   2.567  0.1495 -0.1272  0.2364
38674W        W81587  13.633   7.396  29.093  0.1414 -0.0254 -0.0910
38675W        W81588  19.166  20.137  28.443 -0.0119 -0.4350  0.2094
38676W        W81589   9.747   9.421  28.771 -0.2192 -0.1494  0.0444
38677W        W81590   4.631  10.866  10.642 -0.0931 -0.0567 -0.2136
38678W        W81591  23.879   7.345  24.467  0.0271  0.2011  0.0276
38679W        W81592  14.353  10.151  14.251 -0.1664 -0.1722  0.3654
38680W        W81593  28.306   2.028  24.221  0.2138 -0.2489 -0.1506
38681W        W81594  20.697   2.096  21.103 -0.1214 -0.0360 -0.1100
38682W        W81595  14.681  29.064  28.405 -0.3109 -0.0013 -0.3057
38683W        W81596   2.732   3.614  25.623  0.0961  0.0003  0.2652
38684W        W81597  28.733  29.241   7.596 -0.1342  0.2143  0.2316
38685W        W81598   5.496   2.361  26.224  0.2835  0.0663  0.1574
38686W        W81599  30.631   2.985   0.287 -0.2588  0.3035 -0.2293
38687W        W81600  10.520  31.437  28.030 -0.0397  0.1157  0.2619
38688W        W81601  13.236   1.262  27.889  0.1405 -0.0108 -0.2669
38689W        W81602   6.256   8.162  27.721  0.5201  0.1855  0.3949
38690W        W81603  33.045   9.518   0.699  0.2354 -0.0935 -0.0139
38691W        W81604  13.113   4.742  23.485  0.0346  0.0528 -0.0935
38692W        W81605  34.447   7.727   2.473  0.1174  0.0458  0.0454
38693W        W81606  12.729   1.850  23.401  0.2326  0.1663 -0.0144
38694W        W81607  10.970  11.384   4.138  0.1620 -0.0715  0.1101
38695W        W81608   4.602   9.773  26.168  0.2818 -0.4846 -0.1387
38696W        W81609   4.320   5.378   7.912 -0.0640  0.4060 -0.0099
38697W        W81610   6.978  24.986  29.181  0.0022  0.1238  0.0942
38698W        W81611  11.577   1.413  27.293 -0.2275 -0.2624 -0.0069
38699W        W81612   0.952   2.788   3.487 -0.1153  0.0971  0.0128
38700W        W81613  16.034   2.051  23.135 -0.0672 -0.4161 -0.2898
38701W        W81614  31.968  11.221   2.312  0.0768 -0.1275  0.0137
38702W        W81615   2.588  17.687  14.354 -0.0208  0.1750  0.1769
38703W        W81616  16.877   2.822   8.843 -0.0532 -0.4891 -0.2325
38704W        W81617  16.844  11.603  26.418 -0.0126  0.0574 -0.0964
38705W        W81618   9.793  32.956   6.012 -0.0718 -0.1608 -0.0503
38706W        W81619  12.761  12.232   7.213  0.0750  0.1880  0.0082
38707W        W81620  14.523   9.750   4.698 -0.0065 -0.0987  0.1490
38708W        W81621  31.055  20.659  29.602 -0.1208  0.1149  0.0793
38709W        W81622   6.338  12.960  28.612 -0.0427  0.1227 -0.0497
38710W        W81623   7.497  33.157  26.480 -0.1443  0.3289  0.0564
38711W        W81624  12.408   5.084   7.035  0.0328  0.0170 -0.2008
38712W        W81625  12.597  10.539   6.174  0.2981 -0.2139 -0.2539
38713W        W81626  17.534   8.910   0.335  0.1345  0.2358 -0.0632
38714W        W81627   6.306  34.242   5.477  0.0933  0.2305  0.2960
38715W        W81628   4.667  12.064   7.121 -0.3844 -0.0590 -0.1146
38716W        W81629   8.853  31.325   4.288 -0.0884  0.0461 -0.1823
38717W        W81630   9.881   0.628   6.738  0.1931  0.0314  0.1628
38718W        W81631   5.488   4.453  22.113  0.4112  0.1423  0.0395
38719W        W81632   5.319   5.137  27.207  0.0448 -0.0697 -0.0497
38720W        W81633  16.003  30.963   8.969 -0.0423  0.1058  0.1186
38721W        W81634   4.779  31.999   0.970  0.1511 -0.2158  0.1604
38722W        W81635   9.399  11.501  19.682  0.0294 -0.1809  0.0020
38723W        W81636  23.016   6.322  23.476 -0.1044 -0.1804 -0.3205
38724W        W81637  21.110  33.520  26.816 -0.3311 -0.0512 -0.1229
38725W        W81638   3.356   0.680  25.575  0.1294 -0.2226 -0.0238
38726W        W81639  16.278   4.281  27.799  0.2183 -0.0488 -0.0079
38727W        W81640   7.970   6.775  27.713  0.4902  0.1286  0.0784
38728W        W81641   7.198   6.997  10.867 -0.1190  0.0635 -0.2352
38729W        W81642  12.284   8.159  10.261 -0.2040  0.4283  0.0425
38730W        W81643  30.315   5.893  23.226 -0.0774 -0.1867  0.0418
38731W        W81644  15.298   7.770  22.360 -0.0894  0.0715 -0.2215
38732W        W81645  14.998   2.013  24.126  0.0037  0.2824  0.0052
38733W        W81646   7.663   7.142  25.246  0.1786  0.0102  0.0409
38734W        W81647  33.647  10.008  28.389 -0.0424  0.1132 -0.0574
38735W        W81648   6.972   7.515   3.971 -0.0595  0.0621 -0.1264
38736W        W81649  12.529  19.910  22.788 -0.0595 -0.1490 -0.0935
38737W        W81650  19.584  10.778  28.741 -0.0428  0.0991 -0.3095
38738W        W81651   2.291  13.459  22.327 -0.3172 -0.3409 -0.2455
38739W        W81652   9.515   9.801   7.626  0.3014  0.3047 -0.3157
38740W        W81653   8.903   1.391   6.948  0.1398  0.1223  0.1712
38741W        W81654   5.240  12.257   5.455  0.1086 -0.1979 -0.1357
38742W        W81655  14.366  33.714   6.889 -0.0726 -0.1308  0.0313
38743W        W81656   9.962  13.929  16.292  0.1451 -0.1131 -0.3723
38744W        W81657  18.885  13.544   1.244  0.0585 -0.5516  0.0096
38745W        W81658  12.676  14.593   3.481 -0.2391  0.1448  0.0064
38746W        W81659  10.580   5.169  19.431 -0.1608 -0.1997  0.1306
38747W        W81660  16.096  30.904   9.883  0.2048 -0.1093 -0.1093
38748W        W81661  13.120  19.178  21.100  0.0220  0.0272  0.3407
38749W        W81662  13.223  13.312  23.765  0.3004 -0.2221 -0.0844
38750W        W81663  13.983   0.527  25.656 -0.0176  0.1762  0.3278
38751W        W81664   5.257   7.538   4.225 -0.0932  0.4878 -0.1266
38752W        W81665   6.702   7.642   3.539  0.0738 -0.1141  0.1485
38753W        W81666   6.251   0.826  25.489  0.3714  0.2721  0.1216
38754W        W81667   3.141   8.413   2.167 -0.1844 -0.2539 -0.2910
38755W        W81668   7.156   1.427   0.755 -0.0091 -0.1342  0.0710
38756W        W81669  13.054  33.064  23.232  0.0493  0.1132  0.0036
38757W        W81670   2.944  30.168  27.577  0.0018  0.1250 -0.0061
38758W        W81671   9.689  31.075  24.025 -0.0472  0.0062 -0.1943
38759W        W81672  18.103  28.077  23.390  0.0443  0.2703 -0.2265
38760W        W81673  14.397   6.302  19.594 -0.0307 -0.1449 -0.0889
38761W        W81674  12.270   8.761  27.639 -0.0259  0.0730 -0.1120
38762W        W81675  27.674   5.300  15.290 -0.3055  0.4879  0.1166
38763W        W81676  11.230   4.018   3.764 -0.1276 -0.0570 -0.2374
38764W        W81677  14.548   0.174  27.122  0.3042 -0.0887 -0.0080
38765W        W81678   9.338   1.783   9.463 -0.2318 -0.1905  0.1381
38766W        W81679  14.948   1.033  25.197  0.0019  0.0984  0.3445
38767W        W81680   7.347  16.291   5.661  0.0650 -0.1561  0.0499
38768W        W81681   9.413   3.555   1.493 -0.0107 -0.2243  0.2841
38769W        W81682   1.804  10.772   0.532  0.1331 -0.1138 -0.0781
38770W        W81683  10.904  11.749  19.850 -0.2914  0.2005  0.2146
38771W        W81684   5.939   4.039   3.748  0.3816  0.0331  0.1651
38772W        W81685   6.586   5.219  24.497 -0.0318 -0.3574 -0.1898
38773W        W81686  11.094   8.656   2.298 -0.2237  0.1861 -0.1494
38774W        W81687   9.443  30.256  26.251  0.2185  0.2077 -0.0454
38775W        W81688   4.070   2.852   3.240 -0.4048  0.0037  0.0713
38776W        W81689   4.335  32.396   3.366  0.1164  0.1691 -0.1457
38777W        W81690   6.855   6.041  28.224 -0.0441 -0.3154  0.1897
38778W        W81691  17.717  30.692  28.604  0.1426 -0.0414  0.0258
38779W        W81692   2.487   7.342  21.663 -0.0076 -0.0968  0.0415
38780W        W81693  14.571   0.321  21.830  0.0546 -0.1327  0.5717
38781W        W81694  10.426  31.375   9.200 -0.2720  0.4128  0.0245
38782W        W81695  12.235  31.233  19.184  0.0444  0.1031 -0.0445
38783W        W81696   8.475   2.794   6.699 -0.1655  0.3430  0.2002
38784W        W81697   2.551   0.208  25.481 -0.1635 -0.1035  0.0544
38785W        W81698   9.274   0.062  28.730 -0.1263 -0.0365  0.1062
38786W        W81699  30.298   0.428   9.693 -0.0838 -0.2800  0.3460
38787W        W81700   6.211   2.390  11.767 -0.5205  0.1230  0.0783
38788W        W81701   8.806  16.233  14.627 -0.2113 -0.0648  0.1023
38789W        W81702   1.128   1.200  25.766 -0.2673  0.0694 -0.3808
38790W        W81703   2.684   3.702  17.915  0.0920  0.2108  0.0082
38791W        W81704  30.240   4.990  24.895 -0.1186  0.0552  0.1282
38792W        W81705   4.012  31.850   7.085  0.4639  0.0325  0.3127
38793W        W81706  11.096  32.293   0.098 -0.1786 -0.3205 -0.1998
38794W        W81707   5.239   1.058  27.890  0.1452  0.1129 -0.1315
38795W        W81708  12.210   6.249  25.028 -0.0706  0.1290  0.0195
38796W        W81709   3.599   6.036   7.356  0.2596  0.2716 -0.0830
38797W        W81710   2.074  13.336   3.380  0.1667 -0.2562  0.0384
38798W        W81711  17.602   1.382  28.084  0.1208 -0.0307  0.1600
38799W        W81712   7.322  32.408  27.617  0.2920  0.1972 -0.0104
38800W        W81713  13.477   6.024   2.109  0.2519 -0.1000 -0.0041
38801W        W81714   4.465  23.446  29.328 -0.1273  0.4007 -0.4894
38802W        W81715  12.844  32.552   1.454 -0.1440 -0.0568 -0.1613
38803W        W81716   3.711   6.368  27.321  0.0334  0.1293  0.1008
38804W        W81717   9.608  10.460  18.670  0.1921 -0.1892 -0.0719
38805W        W81718  15.159  10.277  27.630  0.0151 -0.0996  0.0689
38806W        W81719  13.180   7.741  10.154 -0.1605  0.1240  0.1005
38807W        W81720  12.939  10.580   2.751 -0.0339 -0.1116  0.1237
38808W        W81721   5.658  10.901   2.386 -0.0770  0.1218  0.0731
38809W        W81722   7.153  10.902  21.748 -0.0879 -0.2279  0.3292
38810W        W81723   4.578  13.763  23.077  0.0486  0.1420 -0.1376
38811W        W81724   3.195  31.410  29.103  0.1408  0.0572  0.1334
38812W        W81725  10.530   7.426  26.813  0.2753  0.1782  0.0026
38813W        W81726   8.634   6.068   0.040  0.1658 -0.3872 -0.2193
38814W        W81727  12.223  13.723  28.945 -0.0297  0.1680 -0.0049
38815W        W81728  15.136   6.095   5.386  0.0490  0.0135  0.2186
38816W        W81729  16.714   2.026  27.616 -0.2127 -0.0605  0.0591
38817W        W81730  13.324   9.970  26.714  0.0209 -0.0894  0.3943
38818W        W81731   5.943   9.941  22.793 -0.0546 -0.0070 -0.0611
38819W        W81732  12.518  26.549   0.694  0.0556  0.0462  0.0125
38820W        W81733  13.953   1.917  18.713  0.1041  0.3073  0.0075
38821W        W81734  10.203  27.898  21.013  0.0879 -0.0990 -0.2495
38822W        W81735   6.341  23.856   4.495  0.2208  0.2280  0.1358
38823W        W81736  11.395  33.332  28.332  0.1738  0.1254 -0.2258
38824W        W81737  19.222   6.658  20.946 -0.0048 -0.1644 -0.2125
38825W        W81738   9.447  13.391  22.909 -0.0981 -0.3525 -0.0421
38826W        W81739   9.799  31.397  23.645 -0.0716  0.3117  0.0867
38827W        W81740  31.989   9.178  21.798  0.1460 -0.2601 -0.1598
38828W        W81741  33.819   3.223  29.372  0.2007  0.1067  0.0342
38829W        W81742  12.020   8.772  23.639  0.1738  0.0203  0.1774
38830W        W81743   4.739   8.227  23.268 -0.0097  0.0390  0.1068
38831W        W81744  10.860   3.025  18.952  0.2409 -0.0932  0.0871
38832W        W81745   2.846   7.781  22.371 -0.0635 -0.2788 -0.1083
38833W        W81746  32.124   7.159  26.907  0.0490  0.2182 -0.1563
38834W        W81747  14.629  11.070  22.701 -0.0152  0.3150 -0.0477
38835W        W81748   1.834   3.794   8.330 -0.2583 -0.1485 -0.0017
38836W        W81749   6.692   9.340  17.199 -0.1733  0.1526  0.0857
38837W        W81750   6.880   0.889  29.121  0.0861 -0.0298 -0.1330
38838W        W81751  10.628   8.573  23.215 -0.1630  0.2710 -0.1180
38839W        W81752  12.319  10.502  25.132 -0.0624 -0.0733 -0.2002
38840W        W81753   9.271  12.252  20.505  0.1565  0.1311 -0.0341
38841W        W81754  18.692   0.254  24.868  0.2242  0.0687  0.3553
38842W        W81755   9.967  32.574  22.081 -0.2296 -0.1988 -0.0659
38843W        W81756   8.253   4.482  23.989 -0.0253 -0.0604 -0.0264
38844W        W81757   5.574  25.561   0.401  0.2026 -0.2484 -0.0367
38845W        W81758   7.219   4.130  18.229  0.3163 -0.1120  0.2166
38846W        W81759   7.076  16.439   9.025  0.2930  0.4604 -0.0713
38847W        W81760  13.214   6.580  11.002  0.1323  0.2964  0.0230
38848W        W81761   8.509   2.894  23.777  0.2411  0.1721  0.1191
38849W        W81762   7.339   4.326   1.842  0.2308  0.1485 -0.2207
38850W        W81763  11.185  16.318   1.428  0.1623 -0.1384 -0.0671
38851W        W81764  12.650  31.558   4.560  0.4324  0.2490  0.2713
38852W        W81765  13.746   1.275  25.224  0.0152  0.1535 -0.1871
38853W        W81766   6.271  33.117   2.561  0.1621 -0.1107  0.2101
38854W        W81767   7.012   0.380  29.358  0.0654 -0.0799 -0.0959
38855W        W81768   4.539  12.909   2.487  0.4867 -0.0418  0.0715
38856W        W81769   8.393   1.753  18.143  0.0611  0.1627 -0.0319
38857W        W81770   0.179   9.755  19.539 -0.1710 -0.0265 -0.1369
38858W        W81771   4.942  11.590   7.075  0.3279 -0.1037  0.2782
38859W        W81772   1.021  16.829   0.109 -0.0127  0.3178 -0.2991
38860W        W81773   4.900  30.007  19.060 -0.1157  0.1559  0.0056
38861W        W81774  10.799  32.670  29.712  0.2298  0.0705  0.1121
38862W        W81775   5.862  28.788  21.728  0.1977  0.2058 -0.2668
38863W        W81776   4.439  32.251   7.833  0.2099  0.0037 -0.0404
38864W        W81777  13.731  22.983  15.763  0.2635  0.0628  0.1175
38865W        W81778  14.604  29.591  27.454 -0.0089  0.0542  0.2209
38866W        W81779   9.586   5.242   0.116  0.1692  0.1321 -0.2286
38867W        W81780   3.432  10.461  27.795  0.1765 -0.1284 -0.0681
38868W        W81781   9.054   0.430   9.035  0.2010 -0.0727  0.1954
38869W        W81782  11.188  28.518  24.823 -0.0920 -0.2008  0.0820
38870W        W81783  16.980   8.891   5.938  0.2108  0.1728 -0.1821
38871W        W81784  17.002  16.384  27.915  0.1366 -0.2315 -0.1142
38872W        W81785  16.100  12.374  29.586  0.6657  0.1094 -0.2186
38873W        W81786  30.476  12.671   1.908  0.4257  0.1718 -0.1152
38874W        W81787   0.977   8.699  18.498  0.1087 -0.0428  0.1195
38875W        W81788  23.954   9.306  16.516 -0.0390 -0.0460 -0.0592
38876W        W81789   4.768  26.942  26.293 -0.1111 -0.1168 -0.1861
38877W        W81790   3.443  10.586  24.670 -0.1617  0.2175 -0.2538
38878W        W81791  28.896   2.505  29.137 -0.2769 -0.0352  0.0632
38879W        W81792   4.378  33.280  23.479 -0.0789  0.3637  0.0682
38880W        W81793  11.006  13.115   0.117  0.1877 -0.1518 -0.0730
38881W        W81794  18.645   9.771  26.148 -0.2668 -0.0491 -0.1776
38882W        W81795  34.017  27.986   8.801  0.0210 -0.1298 -0.2707
38883W        W81796  11.010  21.194  24.742 -0.1792  0.1988 -0.1257
38884W        W81797   9.019   2.554  17.320 -0.0894  0.0939  0.5699
38885W        W81798  13.199   5.831   4.980 -0.1678 -0.2333  0.4140
38886W        W81799  11.864   8.090  10.040  0.1127 -0.1708  0.0979
38887W        W81800   0.549  31.226   1.318  0.1116 -0.4051 -0.1345
38888W        W81801  12.216   4.521   4.744 -0.0358 -0.0650 -0.1334
38889W        W81802  10.875   1.131   1.158 -0.0651  0.0454 -0.0445
38890W        W81803  15.983   6.622  21.436  0.0474 -0.1444 -0.1515
38891W        W81804  11.263   4.381   0.409  0.0606  0.0905  0.1083
38892W        W81805  10.929   7.135   0.064  0.1924 -0.1328 -0.2227
38893W        W81806   8.094   6.889   1.714  0.0586 -0.1208  0.1264
38894W        W81807   0.564  10.145  20.538  0.2118  0.0583  0.0745
38895W        W81808  13.944   0.794  23.023  0.3721  0.1834 -0.0818
38896W        W81809  14.371  14.799   6.240  0.2166  0.2149 -0.3659
38897W        W81810   9.228   1.744   4.606  0.0137  0.1314  0.2823
38898W        W81811  16.714   6.825  24.929  0.1473  0.2766 -0.2109
38899W        W81812  11.222  26.878  20.050 -0.5053 -0.0944  0.1024
38900W        W81813  11.482   6.053  18.183 -0.0580  0.2628  0.1157
38901W        W81814  13.800  32.428  26.192 -0.2832  0.0205  0.2442
38902W        W81815  14.800   7.245  18.389 -0.1646  0.0103 -0.2905
38903W        W81816   5.792  11.975   2.924  0.1710 -0.1836  0.0881
38904W        W81817   7.600   2.197   5.172  0.0891 -0.1425  0.4978
38905W        W81818  28.284  10.825   3.674  0.1631 -0.2485 -0.1448
38906W        W81819   9.559  34.449  24.554  0.1413  0.0922  0.0323
38907W        W81820   9.600  24.795  26.918  0.3054 -0.2770 -0.0235
38908W        W81821   0.856   4.352  19.662  0.2231  0.0952 -0.0752
38909W        W81822   6.872   0.537  17.858  0.0218 -0.0090  0.0826
38910W        W81823  30.663   4.398   9.779 -0.0494 -0.0464 -0.1783
38911W        W81824   0.972   1.065  22.919 -0.4596  0.0531  0.1756
38912W        W81825  12.435  26.624   8.705 -0.0174 -0.1962 -0.2337
38913W        W81826  13.154  14.089   0.839 -0.0776  0.3562  0.1812
38914W        W81827   3.586   5.963  24.661  0.2064 -0.0632 -0.0030
38915W        W81828  14.999   6.194  21.648  0.0347 -0.1151 -0.6420
38916W        W81829  10.952  12.675  29.511  0.0191  0.1201  0.4006
38917W        W81830  15.500  31.429  27.339  0.0988 -0.1604 -0.3463
38918W        W81831  11.440  33.219   0.134 -0.0345 -0.1100  0.1772
38919W        W81832  14.798   1.737  23.770  0.1889 -0.0808 -0.0127
38920W        W81833  10.888   4.767  28.730 -0.1773  0.0937  0.0419
38921W        W81834   2.580  11.774   4.703 -0.2542  0.2514 -0.0683
38922W        W81835  16.866   6.968  25.991 -0.2355 -0.4854  0.3017
38923W        W81836  12.743   0.533  26.540  0.0876  0.4589 -0.2573
38924W        W81837  15.400   9.114   3.595  0.1081  0.1412  0.0527
38925W        W81838   5.861  23.507  24.899 -0.3136  0.3563  0.2523
38926W        W81839   3.319  33.011   9.495  0.0659 -0.1289  0.0025
38927W        W81840   5.916  27.838   8.164  0.0758  0.2997 -0.4179
38928W        W81841  17.446   5.151   7.477 -0.3474 -0.1195  0.1109
38929W        W81842   8.695  34.358  27.641 -0.2346  0.1538 -0.1529
38930W        W81843  29.832   2.731  10.420  0.0414  0.3314  0.0996
38931W        W81844   9.029  33.532  20.928  0.1620 -0.1871  0.0140
38932W        W81845   9.634   4.292  26.335  0.0228 -0.1031 -0.1305
38933W        W81846  11.811  25.169   4.651 -0.3206 -0.0728 -0.0053
38934W        W81847  22.457   4.774  28.205 -0.0664  0.0942 -0.1332
38935W        W81848  16.357  17.681  24.395  0.1754 -0.3444  0.3961
38936W        W81849  11.503   3.758   0.803 -0.1358 -0.0986 -0.0843
38937W        W81850   3.077  10.800   3.925  0.0737  0.2002 -0.0448
38938W        W81851  19.478   7.557  21.871 -0.1740  0.1620  0.4243
38939W        W81852  16.081  14.022  22.968 -0.2270 -0.3401  0.0427
38940W        W81853  16.058   2.967   4.554  0.0640  0.0682 -0.0005
38941W        W81854   2.855   1.294  22.468 -0.1581  0.1274  0.0979
38942W        W81855  34.495   6.033  28.575 -0.3799  0.2247  0.0937
38943W        W81856   5.298  27.521  19.829  0.1056  0.1641  0.3783
38944W        W81857   1.851   7.979   4.991 -0.0830 -0.2152  0.3552
38945W        W81858  23.096   7.773   2.348  0.2654  0.2219 -0.1993
38946W        W81859   9.980  12.410  17.753  0.0449 -0.1971  0.0396
38947W        W81860  12.835   9.531  25.821 -0.0227 -0.1353  0.0756
38948W        W81861  22.609  32.265  22.750 -0.0700  0.1470 -0.0973
38949W        W81862   1.153  12.960  18.576 -0.1153  0.2190 -0.3886
38950W        W81863  14.000   2.131  26.359  0.2730  0.3985  0.0328
38951W        W81864  11.762   4.672  20.010 -0.1415  0.4639  0.0553
38952W        W81865   3.427   4.308  18.229  0.5380  0.1791  0.0150
38953W        W81866  16.075   8.444  25.726 -0.2699  0.0403  0.3137
38954W        W81867   9.852  30.120  23.753  0.2973  0.1027  0.0312
38955W        W81868  19.744   1.215   6.196 -0.1595 -0.0022 -0.1460
38956W        W81869  34.189   7.950   1.231  0.0561  0.0723  0.0399
38957W        W81870  13.061   5.155   3.520 -0.0963 -0.0553  0.1654
38958W        W81871  10.109  34.328   2.242 -0.1716  0.3937 -0.1485
38959W        W81872  11.080  27.606  22.672  0.1030  0.1038  0.1491
38960W        W81873   7.356  13.151  21.054  0.1935  0.1314  0.2281
38961W        W81874  17.122   3.761   4.311  0.0080  0.0543 -0.1001
38962W        W81875   8.255  13.520  17.374 -0.0095 -0.2620 -0.2021
38963W        W81876  14.529   7.952  27.890 -0.1600  0.1733  0.0791
38964W        W81877  16.658   1.226  27.036 -0.1546  0.1479 -0.2646
38965W        W81878  14.173  12.770  26.556  0.0305  0.0158  0.0465
38966W        W81879  10.772  10.298  24.779  0.1913  0.0590 -0.4173
38967W        W81880   0.183   4.588  26.547  0.1010  0.0291  0.2001
38968W        W81881   7.969   9.698   1.407 -0.2792 -0.0771  0.2277
38969W        W81882   1.400   7.995  27.503  0.2873 -0.0744 -0.1234
38970W        W81883   4.383   9.372  25.691 -0.0220  0.2961  0.2690
38971W        W81884  10.236   4.349  26.962 -0.0088 -0.3163 -0.1341
38972W        W81885   9.989  10.403  27.108 -0.1531  0.0916  0.2035
38973W        W81886  10.791   1.590   6.453 -0.1916  0.0246 -0.1520
38974W        W81887  14.661  33.237  19.135  0.0010 -0.1572 -0.1501
38975W        W81888  14.627  31.588   5.460 -0.0059  0.2967 -0.0101
38976W        W81889  12.435   1.778   4.863  0.0484  0.0782  0.0864
38977W        W81890  18.612  34.252  26.718 -0.0816  0.0331  0.0663
38978W        W81891   6.329  31.082   2.395  0.3093  0.0188 -0.0710
38979W        W81892   7.949   1.728  22.173 -0.3394 -0.2366  0.0560
38980W        W81893   0.812   1.973  10.815 -0.2089  0.1323 -0.0846
38981W        W81894  29.655   2.010   2.339  0.0751  0.1780 -0.0922
38982W        W81895   8.957   3.223  29.764 -0.0327 -0.1913  0.0022
38983W        W81896   2.888  12.613   1.580  0.1854 -0.1743 -0.1559
38984W        W81897   3.142   5.002   2.241 -0.3371 -0.0410 -0.1604
38985W        W81898   5.875  12.332   4.191  0.1822  0.0120  0.0269
38986W        W81899  22.274  30.846  20.173  0.2869  0.1252 -0.0922
38987W        W81900   6.331  33.503  23.676 -0.0093  0.1731  0.1136
38988W        W81901  11.747  10.305  24.165 -0.1616  0.4080  0.0101
38989W        W81902   8.212   2.995   2.559  0.3344  0.1034  0.5212
38990W        W81903   9.745  15.250  15.041 -0.1824 -0.0421 -0.0390
38991W        W81904  11.194  11.733   3.764  0.1991  0.3062  0.1614
38992W        W81905   3.735   7.702   2.876  0.4012 -0.2813 -0.2383
38993W        W81906  18.096  13.104  21.135  0.1968  0.0317 -0.1261
38994W        W81907  12.823  15.882  23.372  0.0603 -0.0854 -0.1305
38995W        W81908  10.000  29.681  26.096  0.0157 -0.2119 -0.2133
38996W        W81909  13.171   8.301  26.969  0.3296  0.3478  0.0596
38997W        W81910  14.701  33.567   1.666  0.0490  0.0646 -0.2014
38998W        W81911   3.910   7.609   4.899 -0.0089 -0.0747 -0.1158
38999W        W81912  11.978   7.573   0.346 -0.1584 -0.3726 -0.1974
39000W        W81913  23.174   5.158  24.659 -0.1829  0.3068  0.0877
39001W        W81914  12.408   8.207   4.635  0.3000 -0.1042  0.1503
39002W        W81915   9.684   3.483   6.119 -0.0129 -0.2182 -0.1891
39003W        W81916   4.702   2.003  24.118 -0.0440 -0.1705 -0.3213
39004W        W81917   1.809  32.939   4.143  0.0487  0.0302  0.1983
39005W        W81918   1.236   9.020  26.690 -0.1490 -0.0955  0.1793
39006W        W81919  23.153   6.840  25.422 -0.2638  0.1357  0.2615
39007W        W81920   7.167   8.009   0.728 -0.2003 -0.0078  0.0775
39008W        W81921  32.868   8.506   0.480  0.2198  0.4141 -0.0502
39009W        W81922   3.003  10.373  27.075  0.1025  0.1949  0.0442
39010W        W81923  18.547  12.398   7.042 -0.0494 -0.1392  0.1537
39011W        W81924   3.612   0.318   8.717  0.0371 -0.4306  0.0689
39012W        W81925  12.663  31.809  25.511  0.0708  0.0325  0.4602
39013W        W81926   7.768   9.469  19.563 -0.0558  0.0129  0.1632
39014W        W81927   3.459   8.569  25.234  0.2886  0.0574  0.2278
39015W        W81928  18.373   4.939   4.135 -0.0797 -0.2492  0.1728
39016W        W81929  13.414  24.057  19.843  0.1359  0.1017 -0.1117
39017W        W81930  15.919   6.313   2.008  0.1786  0.0556  0.2707
39018W        W81931  13.012  15.295   3.919 -0.4669 -0.0773 -0.3578
39019W        W81932   1.146   8.940  16.622  0.3578 -0.1011  0.1867
39020W        W81933  14.117   9.062  17.800 -0.1720 -0.1809  0.2261
39021W        W81934   7.414  32.774  27.910 -0.0419 -0.0556  0.1160
39022W        W81935   6.923  14.960   0.893  0.1642 -0.1862 -0.1862
39023W        W81936  15.015   8.722   4.126  0.2109 -0.1020  0.0811
39024W        W81937  20.946   9.920   4.686 -0.0498 -0.0138 -0.3046
39025W        W81938  28.390  13.365   1.065  0.2709 -0.0518  0.0541
39026W        W81939   3.069   2.496  18.374  0.0877 -0.2703  0.2687
39027W        W81940   9.481   0.166  25.459 -0.2004  0.2830 -0.1011
39028W        W81941   6.016  33.489  26.882  0.3826  0.0651  0.0833
39029W        W81942  13.040   1.180  20.724 -0.1272 -0.1417 -0.2774
39030W        W81943  21.198  13.061   3.558 -0.0380  0.0480  0.2212
39031W        W81944  14.748  10.277  23.186 -0.2002 -0.2053  0.3323
39032W        W81945  32.013   7.620  28.097 -0.0843 -0.1389  0.0280
39033W        W81946   8.324  30.330  27.652  0.2698  0.1911  0.1211
39034W        W81947  10.981   0.144   5.228 -0.1259 -0.0055 -0.1426
39035W        W81948  22.297  17.628   3.670 -0.3803 -0.3129  0.0769
39036W        W81949  14.626   9.738  20.730 -0.3203 -0.3422  0.0496
39037W        W81950   7.385  33.841   5.304 -0.0328  0.0278 -0.2349
39038W        W81951   4.868  34.170  27.003  0.3060 -0.0145  0.0998
39039W        W81952  32.242   7.428  24.681  0.2454 -0.2411 -0.1592
39040W        W81953  11.139  12.767  18.261  0.3538  0.1669 -0.1148
39041W        W81954  10.088  32.159   4.789 -0.1310 -0.2952 -0.0687
39042W        W81955  18.521  15.902  29.330 -0.0451 -0.2820 -0.0035
39043W        W81956   5.555   6.465  26.084 -0.0186 -0.0263 -0.2430
39044W        W81957   9.790  33.978  24.607 -0.3028 -0.4526  0.0531
39045W        W81958  14.554   6.487   3.911 -0.0560  0.0378  0.0447
39046W        W81959   0.051   0.409   2.408  0.4754 -0.0398 -0.1624
39047W        W81960  33.786  12.355   0.568  0.0778 -0.0080  0.0038
39048W        W81961  15.569  10.506  27.350 -0.0516 -0.0152  0.0650
39049W        W81962   3.447  34.258   5.510 -0.1405  0.1311 -0.1019
39050W        W81963  10.501   3.426  19.583 -0.1637  0.0022  0.3070
39051W        W81964   6.479  32.637  27.948 -0.1626 -0.1307 -0.1373
39052W        W81965  26.846   5.220   7.275  0.1716 -0.3170  0.0441
39053W        W81966   7.699   6.890   3.185  0.5140 -0.1012  0.0513
39054W        W81967  10.031   6.408   5.403 -0.0666  0.1283 -0.0792
39055W        W81968  14.939   4.635  21.419  0.3133 -0.2223 -0.2236
39056W        W81969  14.398  15.294  23.762  0.1329 -0.0320  0.0152
39057W        W81970  11.830  33.666   5.882 -0.0466 -0.3569 -0.0514
39058W        W81971   6.128   1.349   0.836 -0.1332 -0.0392  0.0699
39059W        W81972   5.454   4.654  25.922 -0.1151 -0.3141 -0.3008
39060W        W81973   6.703   9.345   5.683 -0.1348  0.5171 -0.1500
39061W        W81974   5.184  26.825   1.958  0.0190  0.1413 -0.0324
39062W        W81975   4.591  33.748   5.941 -0.0822 -0.2075  0.0272
39063W        W81976   4.612  11.068  21.078  0.1470 -0.1753 -0.1774
39064W        W81977   7.123  31.640   1.253  0.2618 -0.0167  0.1290
39065W        W81978   2.419   4.627  28.639 -0.5007 -0.1182  0.4102
39066W        W81979  23.887   7.532   6.203 -0.0271 -0.1770 -0.0039
39067W        W81980   1.950   0.455   8.318  0.1806 -0.1456  0.3123
39068W        W81981   8.468   3.466   2.776 -0.0626  0.2715 -0.1919
39069W        W81982  17.341  29.901  23.032  0.2566  0.0679  0.0123
39070W        W81983  17.848  30.434  26.952  0.2039 -0.2132 -0.0769
39071W        W81984  11.109   4.658   7.506  0.0901 -0.0424  0.3179
39072W        W81985  24.170  34.288  26.163  0.2503 -0.0367 -0.1507
39073W        W81986   9.428   8.536  26.953 -0.1618 -0.1091  0.2010
39074W        W81987  20.669   7.407   6.410  0.2505  0.1526 -0.1546
39075W        W81988   7.369   2.025  19.970 -0.0403 -0.2380  0.3091
39076W        W81989  34.075  18.459  24.332 -0.0649 -0.2179 -0.1257
39077W        W81990   9.440   4.343  10.346 -0.0728  0.0052  0.1011
39078W        W81991  18.071   4.733  29.544 -0.2085  0.3388  0.1192
39079W        W81992   9.848  33.014  25.878  0.0812  0.2061 -0.3804
39080W        W81993   0.795  13.897  25.630  0.0546 -0.0768  0.1090
39081W        W81994   7.325   4.312   3.626 -0.3330 -0.1955 -0.1392
39082W        W81995  10.923   6.574   1.190  0.2077  0.2071  0.0547
39083W        W81996  11.906   4.552  22.871  0.0991  0.0880 -0.0707
39084W        W81997  13.671  28.313   2.282  0.0699 -0.0978  0.2046
39085W        W81998  22.501   2.604  21.749  0.1949  0.1243 -0.6234
39086W        W81999  13.672  12.253  27.421 -0.2636 -0.0596 -0.1054
39087W        W82000   0.441  14.191  24.396  0.0350  0.2628 -0.0721
39088W        W82001   5.694   4.035  18.688 -0.3367  0.3185  0.0832
39089W        W82002   8.320  10.355   5.062  0.0149  0.0315  0.0957
39090W        W82003   4.358  16.648   2.048 -0.1408  0.0324 -0.0793
39091W        W82004   6.116   4.646  23.617  0.0562 -0.1713 -0.0279
39092W        W82005   4.049  30.932   1.487  0.1616 -0.0894  0.1436
39093W        W82006  12.310   2.415   0.599 -0.0868  0.0853  0.0673
39094W        W82007  15.184   6.095  26.860  0.2256  0.4183 -0.1362
39095W        W82008   4.456   6.569  16.954  0.3195 -0.1399  0.1599
39096W        W82009  32.727   8.689   8.121  0.1908  0.0202 -0.0031
39097W        W82010  20.003  32.786   9.237 -0.0805 -0.0292 -0.0960
39098W        W82011  15.828   2.335  25.550  0.4388 -0.1958  0.0402
39099W        W82012  10.962  16.381  29.489 -0.0904 -0.1486  0.1101
39100W        W82013  10.568   2.595  18.945 -0.3140 -0.3731  0.3001
39101W        W82014   8.581  10.383  18.487  0.1213  0.2420  0.3222
39102W        W82015   1.230   4.157  19.137 -0.2464 -0.1243 -0.1173
39103W        W82016  20.071   2.527  24.944 -0.1146 -0.0098 -0.0925
39104W        W82017   4.023  33.360  26.341  0.0789 -0.0121  0.1405
39105W        W82018  14.960  11.648  21.993  0.1865 -0.2451  0.0845
39106W        W82019  18.443   9.186  15.042 -0.0828  0.4389 -0.0324
39107W        W82020   6.251  11.930  19.321  0.0638  0.0994 -0.0197
39108W        W82021  22.309   7.216  15.381  0.1238  0.0517  0.0815
39109W        W82022  32.783   5.172  20.452  0.1801  0.0875 -0.1040
39110W        W82023  29.177  15.984  15.826 -0.2306 -0.3375  0.1216
39111W        W82024  19.500   9.997  21.791 -0.0770  0.0790  0.0992
39112W        W82025  11.928   6.871  17.518  0.0457  0.2703  0.1317
39113W        W82026   3.202  10.619  22.822  0.1741  0.2139  0.2387
39114W        W82027   3.655  10.818  19.372  0.3826  0.1404 -0.1688
39115W        W82028  11.224   1.007  17.127 -0.2697  0.2795 -0.0657
39116W        W82029   7.495  15.737  14.866 -0.2934  0.1021 -0.0289
39117W        W82030   6.099  17.372  18.067  0.0021 -0.0023 -0.1093
39118W        W82031   8.718  16.227  19.097 -0.2646  0.0604 -0.0910
39119W        W82032  29.902  13.394  17.868  0.1803  0.0296  0.0845
39120W        W82033   4.203   4.930  17.963  0.5577 -0.3353 -0.2000
39121W        W82034   6.848  21.226  20.105  0.2010 -0.0323  0.2004
39122W        W82035  13.314   9.150  20.220  0.2459 -0.2632 -0.2669
39123W        W82036   9.515  31.973  29.228  0.2237 -0.2148  0.1995
39124W        W82037   4.636  12.227  21.023  0.1423 -0.1808 -0.0406
39125W        W82038   4.984   6.134  17.752 -0.1040 -0.0456  0.1349
39126W        W82039  14.556  10.201  16.136  0.0017 -0.0756  0.2353
39127W        W82040  30.370  26.237  21.829 -0.0983  0.3900 -0.0874
39128W        W82041  10.854  15.425  14.509 -0.0762  0.1388 -0.0436
39129W        W82042  12.062  13.560  17.205 -0.1414 -0.2225  0.1871
39130W        W82043   8.176  14.763  14.527  0.3196 -0.1848  0.2855
39131W        W82044   3.614  12.435  15.645  0.0783  0.1396 -0.2622
39132W        W82045   9.876   3.055  20.964 -0.0503 -0.1077 -0.3142
39133W        W82046   9.446  18.544  13.598 -0.1703  0.0217  0.0179
39134W        W82047  16.149  22.873  18.638 -0.0785  0.3758  0.2209
39135W        W82048   4.135   5.732  26.266 -0.0723  0.0854 -0.3994
39136W        W82049   2.032  16.903  25.255 -0.0764  0.0600 -0.3322
39137W        W82050   6.928  18.475  14.817 -0.1503 -0.2197 -0.0950
39138W        W82051  10.221  13.578  14.115 -0.0755 -0.3897  0.2466
39139W        W82052   3.949  13.163  18.820 -0.2725 -0.1637  0.1819
39140W        W82053  10.521  21.055  16.086  0.0244 -0.2000 -0.4414
39141W        W82054   3.488  10.358  17.502  0.0522  0.0389  0.2046
39142W        W82055   9.988  14.771  23.339 -0.0640  0.0030  0.1218
39143W        W82056  23.994  24.134  17.016 -0.2465  0.1371 -0.4028
39144W        W82057  14.587   9.399  17.036  0.0429 -0.1617 -0.0016
39145W        W82058  24.918   8.696  24.765 -0.1882 -0.0742  0.0969
39146W        W82059   8.701  10.597  16.466 -0.0166  0.0370 -0.2228
39147W        W82060  13.804  33.844  22.316 -0.0616  0.1764  0.3471
39148W        W82061   5.255   8.605  19.349 -0.1348 -0.2021  0.0349
39149W        W82062  15.559   2.125  16.782  0.0009  0.0618 -0.0143
39150W        W82063  13.214   9.734  14.376  0.0956 -0.2385  0.0393
39151W        W82064  11.642  11.306  28.234  0.0987 -0.1469  0.0175
39152W        W82065   0.295   9.293  18.165  0.1319 -0.0220 -0.3331
39153W        W82066   8.449  17.834  17.802  0.0043  0.2785 -0.2202
39154W        W82067  12.591   6.180  26.780 -0.1599  0.2140  0.3256
39155W        W82068   9.966   8.502  21.337 -0.2121 -0.0695  0.1397
39156W        W82069   4.881   9.956  19.136 -0.0083 -0.0625 -0.0712
39157W        W82070  13.471  11.971  23.217  0.1747 -0.1201  0.0548
39158W        W82071  11.605  19.297  16.678  0.1696  0.0383 -0.0941
39159W        W82072   3.955  19.368  26.179  0.1422 -0.0912  0.1885
39160W        W82073   7.075   7.486  16.624 -0.2318 -0.1250  0.0954
39161W        W82074   7.661   0.436  23.042  0.0701  0.2509 -0.2405
39162W        W82075   9.706   1.527  17.172  0.2797  0.1133 -0.1089
39163W        W82076  20.351  10.035  15.057  0.2223  0.3180  0.2038
39164W        W82077  17.112   3.233  22.918  0.0302 -0.1608 -0.0131
39165W        W82078   4.550  26.472  18.033  0.0100  0.0155  0.3441
39166W        W82079   5.484   2.525  23.314  0.2516 -0.0795  0.0151
39167W        W82080   8.635  27.882  15.989  0.1835 -0.2143  0.0808
39168W        W82081   8.298   9.486  17.085 -0.0127 -0.1898 -0.0877
39169W        W82082   6.082  22.139  19.788 -0.0164 -0.2705  0.2105
39170W        W82083  18.386  12.331  18.300 -0.0901  0.1060  0.1023
39171W        W82084  16.289   1.592  22.869 -0.5789  0.1637 -0.3887
39172W        W82085   9.103   5.782  21.687  0.0491  0.1823 -0.5039
39173W        W82086  10.420  16.916  15.276 -0.1565 -0.1938 -0.1974
39174W        W82087  13.718   7.560  17.402 -0.0923 -0.2010  0.3159
39175W        W82088  13.516  33.876  16.099 -0.1543 -0.2284 -0.0058
39176W        W82089  10.834  33.814  17.840 -0.4861 -0.4292 -0.2565
39177W        W82090  33.228  13.120  19.350 -0.0043  0.2339 -0.0257
39178W        W82091   1.488   0.773  17.343  0.3596  0.0580 -0.0014
39179W        W82092   8.380  22.269  22.126  0.1026  0.2055  0.0906
39180W        W82093   3.302  24.781  21.269  0.1305 -0.3332  0.0025
39181W        W82094  10.910   3.800  21.295  0.1851 -0.3397  0.0280
39182W        W82095  32.068  12.163  16.094  0.1752  0.0497  0.0023
39183W        W82096   0.720  13.797  18.792 -0.1428  0.2773 -0.1045
39184W        W82097  14.202  13.871  18.475 -0.1235 -0.0415  0.6039
39185W        W82098  25.403   5.479  20.896 -0.3822  0.0188  0.1734
39186W        W82099   7.906  12.832  16.992 -0.2572  0.4493 -0.2095
39187W        W82100   5.718  33.386  29.433 -0.1623 -0.2769 -0.2326
39188W        W82101   8.304   5.655  18.885 -0.0536  0.0588  0.0197
39189W        W82102   6.943   8.290  23.728 -0.2018 -0.0939 -0.1794
39190W        W82103  15.516   1.634  19.326  0.1801  0.1186  0.1203
39191W        W82104   9.238  11.303  18.187 -0.0239 -0.0928 -0.0508
39192W        W82105  10.256  15.608  25.595  0.0293 -0.1232 -0.2043
39193W        W82106  14.872   5.572  22.806 -0.0212  0.1415  0.0179
39194W        W82107  11.391  11.434  18.272  0.2553 -0.5607 -0.1721
39195W        W82108  15.726   5.401  25.176  0.2068 -0.0313  0.1846
39196W        W82109  12.200   9.051  15.032  0.4218  0.2321  0.1582
39197W        W82110   6.586   7.462  23.429 -0.2778 -0.2037 -0.1577
39198W        W82111  24.688  11.513  17.880  0.1827 -0.2130 -0.0780
39199W        W82112  13.878   8.146  17.757  0.0050 -0.0800  0.3120
39200W        W82113   9.699   4.274  17.351  0.1562  0.0202 -0.1061
39201W        W82114  10.294   9.806  18.205 -0.2101 -0.2867 -0.1837
39202W        W82115   9.643  10.366  23.255  0.0194  0.5692  0.2607
39203W        W82116  17.149  22.483  17.931  0.0698  0.2398 -0.0925
39204W        W82117  33.694  15.587  18.800  0.1967  0.0270  0.2080
39205W        W82118  34.209   5.171  19.482 -0.3235  0.0315 -0.1659
39206W        W82119  23.949  12.829   1.267  0.0067  0.0406  0.1842
39207W        W82120  18.264  12.466  18.814 -0.1190  0.0738 -0.0216
39208W        W82121  14.551  15.019  25.737  0.1404  0.1315 -0.0329
39209W        W82122  11.406   9.225  25.930 -0.1596 -0.2753 -0.0048
39210W        W82123   9.448  11.241  15.192 -0.1167 -0.3115  0.1711
39211W        W82124   4.892   7.200  22.500 -0.2867 -0.1767 -0.0676
39212W        W82125   7.966  12.785  23.953  0.4795 -0.1254 -0.0363
39213W        W82126   9.929  27.554  20.749 -0.3376 -0.0846  0.1648
39214W        W82127   6.992   3.226  23.722  0.2309  0.0082  0.2729
39215W        W82128  12.244   5.332  20.896  0.0470  0.2353  0.0434
39216W        W82129   4.350   5.210  18.976  0.3396 -0.0821 -0.1244
39217W        W82130   5.493  14.028  15.766 -0.0905 -0.1073 -0.0103
39218W        W82131   2.199  10.220  25.094 -0.2314  0.0594 -0.0896
39219W        W82132  12.473  23.011  16.191  0.0881 -0.1968  0.1824
39220W        W82133   0.821   9.698  23.693 -0.0791 -0.2135 -0.2734
39221W        W82134   4.945   2.657  24.795 -0.0532  0.1009  0.2115
39222W        W82135  12.104   8.886  23.161  0.1055 -0.2608 -0.0181
39223W        W82136  13.792   0.123  15.185  0.0044  0.0420 -0.1328
39224W        W82137   6.230   1.888  25.390 -0.0166  0.2948  0.2894
39225W        W82138  20.813  28.914  22.055 -0.2651 -0.0503 -0.0151
39226W        W82139  12.161   0.083  19.017 -0.1183 -0.0637 -0.2529
39227W        W82140  15.593   7.564  22.740 -0.1712  0.2709 -0.1846
39228W        W82141  15.027   5.069  19.470  0.3279  0.0434 -0.1220
39229W        W82142  10.586   8.718  18.965 -0.1458 -0.5029 -0.0995
39230W        W82143   8.880  11.136  18.518 -0.0526 -0.4568 -0.3857
39231W        W82144   3.979   5.296  20.840 -0.2343 -0.2309 -0.0829
39232W        W82145   2.945  16.513  14.473 -0.0002  0.0520  0.2948
39233W        W82146   6.324  17.969  17.419  0.0857 -0.0523  0.0775
39234W        W82147  18.089   5.941  22.727 -0.2766  0.2555 -0.2111
39235W        W82148  29.413   5.967  17.384 -0.1423 -0.1066 -0.0657
39236W        W82149  10.099  22.116  16.170  0.1590 -0.0500  0.2387
39237W        W82150   9.739  12.887  16.552  0.2931 -0.0882  0.0902
39238W        W82151   4.953  17.849  17.807  0.0488 -0.1903 -0.2579
39239W        W82152  13.431  10.403  23.308  0.1645  0.0691 -0.0053
39240W        W82153  14.643  12.434  24.435 -0.0039  0.0465  0.0969
39241W        W82154  11.308  10.424  23.628 -0.1459  0.1395  0.1462
39242W        W82155   9.455   1.396  19.760 -0.0443  0.4934  0.0301
39243W        W82156  34.267   6.248  20.153 -0.1043 -0.2025  0.1404
39244W        W82157  26.355   1.161  20.106  0.0231  0.1537 -0.1746
39245W        W82158  13.149   9.423  19.386 -0.2067 -0.3535 -0.1156
39246W        W82159  21.832  14.298  19.298  0.2037  0.0444 -0.2276
39247W        W82160  11.003   6.641  19.012 -0.1104 -0.1753  0.0777
39248W        W82161   9.717  11.088  18.057  0.0604  0.1337  0.3189
39249W        W82162  14.183  32.874  17.927  0.2564 -0.0132  0.2137
39250W        W82163  10.769  11.984  15.120 -0.1875  0.5806  0.0125
39251W        W82164   7.911  16.844  19.277 -0.1836  0.1555  0.3002
39252W        W82165  10.173   5.677  23.908  0.0249  0.0213 -0.1509
39253W        W82166  22.594  16.292  15.611 -0.2182  0.1141 -0.1162
39254W        W82167  30.591   9.895  18.114  0.4012 -0.1102  0.4457
39255W        W82168  11.569  22.042  22.197 -0.2611  0.0701 -0.1937
39256W        W82169  33.429  11.529  27.467  0.0011  0.1555  0.0565
39257W        W82170  14.206   5.520  24.311 -0.1120  0.1392  0.4705
39258W        W82171   5.716  13.951  15.337  0.1097 -0.0303  0.1358
39259W        W82172  22.478   7.103  17.010  0.0676 -0.1073 -0.0668
39260W        W82173   3.463   6.224  17.695  0.1138 -0.0944 -0.1544
39261W        W82174   2.254   6.332  19.808 -0.2945 -0.0510 -0.0929
39262W        W82175  13.486   4.350  15.444  0.0457 -0.0194  0.1037
39263W        W82176   7.122  16.010  14.608  0.2397 -0.0771  0.2043
39264W        W82177  15.424   4.757  18.326  0.1421  0.1033 -0.1803
39265W        W82178   9.955  12.950  16.123 -0.0951 -0.0707 -0.0622
39266W        W82179   3.109   9.907  23.171 -0.0598 -0.0512 -0.0223
39267W        W82180   6.452   2.196  21.773  0.1005 -0.0610 -0.0565
39268W        W82181   4.106   9.409  23.419  0.2604 -0.3215  0.0350
39269W        W82182  12.198  31.881   0.686  0.0081  0.0835 -0.1204
39270W        W82183  10.418   4.382  19.786 -0.1114  0.0206 -0.1016
39271W        W82184   9.997   8.184  20.886  0.1844  0.1585  0.0045
39272W        W82185   5.044  14.072  19.995  0.1142 -0.1265  0.1347
39273W        W82186   5.527  16.229  15.846  0.3385 -0.0912 -0.0597
39274W        W82187  15.135  12.840  13.827  0.0502  0.0976  0.0963
39275W        W82188  14.986   7.686  16.704  0.0072  0.2217  0.2138
39276W        W82189   8.538  11.008  16.335  0.0891 -0.1625 -0.0579
39277W        W82190  12.076  33.864  20.755  0.3199 -0.0118 -0.0734
39278W        W82191  16.126  12.230  18.303 -0.1797 -0.0843 -0.2521
39279W        W82192  21.609  18.249  17.835  0.2977 -0.0561  0.1372
39280W        W82193  10.680   2.101  18.731  0.2061 -0.2555  0.1690
39281W        W82194  16.561  12.889  16.138 -0.2404 -0.0466  0.2295
39282W        W82195  33.180  20.269  14.217 -0.2774 -0.0583 -0.0224
39283W        W82196   0.923   2.113  26.181 -0.2872 -0.1084 -0.0893
39284W        W82197  15.790   4.615  14.484  0.1425  0.0925 -0.0460
39285W        W82198   8.410   8.344  24.547 -0.2712 -0.1404 -0.2614
39286W        W82199  24.427   4.757  25.076  0.1434 -0.1696  0.0037
39287W        W82200   1.251   6.902  23.673  0.1634  0.0520  0.1644
39288W        W82201  11.735  17.102  18.679  0.2598 -0.1586 -0.1196
39289W        W82202  34.047   8.986  16.369  0.4509 -0.0145  0.1768
39290W        W82203   8.594  13.245  16.569 -0.0292 -0.2420  0.2672
39291W        W82204   4.625  30.748  29.124 -0.0768 -0.2756  0.1141
39292W        W82205   9.699  18.435  14.889  0.0980  0.0576 -0.1891
39293W        W82206   6.906   3.384  17.517  0.1155  0.1022 -0.1929
39294W        W82207   8.680  13.713  19.277 -0.3934  0.1828 -0.0652
39295W        W82208   4.210  33.573  19.521  0.3287  0.0106  0.0518
39296W        W82209  30.695  11.097  16.602 -0.2033 -0.1616 -0.0536
39297W        W82210  13.013  33.025  28.214  0.2049 -0.2130  0.0550
39298W        W82211  33.175   1.847  21.912 -0.4006  0.2836 -0.0450
39299W        W82212  17.780  17.148  12.603  0.1135 -0.0226 -0.1966
39300W        W82213   5.420  21.304  17.231  0.2673  0.0862  0.0341
39301W        W82214  20.096  13.203  18.308  0.3162 -0.2572 -0.0187
39302W        W82215   5.372  11.014  19.555  0.1372  0.2738  0.2975
39303W        W82216  14.459   6.997  18.050 -0.2465  0.0428 -0.0739
39304W        W82217  16.564  12.286  12.579 -0.0249 -0.1446 -0.0937
39305W        W82218  12.880   7.400  16.859 -0.1229 -0.0189  0.0498
39306W        W82219  19.927   6.921  14.533 -0.3931  0.0774 -0.1261
39307W        W82220   4.655  13.195  15.851  0.1527  0.3605 -0.0302
39308W        W82221   5.174   1.914  25.259  0.0546 -0.1877  0.0495
39309W        W82222  20.258  11.328  12.624 -0.1082  0.0296 -0.1937
39310W        W82223   6.718  34.380   0.367  0.2990 -0.1392  0.0582
39311W        W82224  13.763   4.965  16.079 -0.0861  0.0992 -0.0247
39312W        W82225  19.357  17.072  13.359  0.1916  0.1783 -0.1027
39313W        W82226   7.401   7.635  18.990 -0.1250  0.2040 -0.0315
39314W        W82227   2.304  28.380  21.504  0.1139  0.2985  0.0463
39315W        W82228   8.502   9.936  21.277  0.0991 -0.2716 -0.1075
39316W        W82229   8.577   5.395  18.033  0.2765 -0.1767 -0.0475
39317W        W82230  13.352   5.725  16.205  0.0923  0.1966 -0.1293
39318W        W82231  11.367   8.607  21.318  0.0382 -0.5252 -0.1700
39319W        W82232  33.747   4.254  16.517 -0.2978  0.2044  0.2753
39320W        W82233  13.373   8.352  21.977  0.2126 -0.0458  0.1172
39321W        W82234   5.474   5.252  17.010  0.1350  0.1678 -0.0712
39322W        W82235  12.267  14.422  17.507 -0.0409 -0.0125 -0.2219
39323W        W82236  14.629  10.696  16.403 -0.2154 -0.1012  0.0567
39324W        W82237  13.360   3.507  21.249  0.1741  0.1135  0.0811
39325W        W82238  11.569   7.374  16.855 -0.0802 -0.3369  0.1221
39326W        W82239   9.060   7.848  17.361 -0.1375 -0.2376 -0.1098
39327W        W82240  23.771  10.089  15.184  0.2647 -0.2227  0.0325
39328W        W82241   3.252  15.953  22.973 -0.2919 -0.3823  0.1310
39329W        W82242  13.033  14.359  20.483  0.3122  0.2914 -0.3309
39330W        W82243   0.606  31.131  24.947 -0.1614  0.1468 -0.0017
39331W        W82244  14.581  15.613  14.304 -0.0999  0.1036 -0.0231
39332W        W82245   1.882  33.403  24.003  0.2645  0.0791 -0.2430
39333W        W82246  13.635   4.490  25.234  0.0100  0.0780 -0.0884
39334W        W82247  16.056   8.960  14.397  0.1575 -0.2685  0.0270
39335W        W82248   4.452  30.138  21.669  0.1215  0.0304 -0.3369
39336W        W82249  12.538  17.239  14.561  0.0915 -0.1939  0.1655
39337W        W82250   9.321  13.547  20.354  0.0841  0.1624  0.3255
39338W        W82251   7.345   9.872  25.606  0.3070 -0.0295 -0.2152
39339W        W82252   5.021   6.406  18.762  0.0972  0.1859  0.2999
39340W        W82253  22.465   3.820  18.526 -0.2274 -0.2089 -0.0566
39341W        W82254   7.824  10.381  22.131 -0.0221  0.2241  0.3173
39342W        W82255   2.403  19.468  19.471  0.1479 -0.3170  0.0717
39343W        W82256   2.201   8.444  22.982  0.0099 -0.0530 -0.0933
39344W        W82257  13.832  16.481  22.619  0.0446  0.0958 -0.0369
39345W        W82258   2.859  32.191  19.055  0.0549 -0.2319 -0.1345
39346W        W82259   6.954  11.396  24.994  0.0246  0.1259  0.1910
39347W        W82260   0.854  12.288  14.981 -0.0319 -0.1614 -0.0067
39348W        W82261   4.285   6.900  23.599  0.3934  0.0130  0.0159
39349W        W82262  17.319   0.506  21.775  0.4870  0.3519 -0.0183
39350W        W82263   1.331   5.507  18.901  0.0551  0.1788 -0.3313
39351W        W82264   7.925   5.393  20.307 -0.2668  0.1346  0.6049
39352W        W82265  21.828   7.537  22.716 -0.0477 -0.0873  0.1072
39353W        W82266  13.454  15.151  19.607 -0.0059 -0.5614 -0.0778
39354W        W82267   4.581   1.151  20.095  0.3354 -0.2423 -0.0453
39355W        W82268   6.409   2.668  19.162 -0.3616  0.2618 -0.0502
39356W        W82269  13.792  10.651  18.023 -0.2698  0.1796 -0.0943
39357W        W82270  12.452  25.396  21.416 -0.1018 -0.3192  0.2616
39358W        W82271   8.848  33.442  26.084 -0.2130 -0.3270 -0.3260
39359W        W82272   1.176  19.408  21.395 -0.1189  0.0758  0.0059
39360W        W82273  16.153   1.004  15.902  0.0487 -0.0775  0.0984
39361W        W82274  21.459   9.347  22.300  0.0069  0.0710 -0.0254
39362W        W82275  12.236   4.903  15.379 -0.0880 -0.3338  0.0351
39363W        W82276   5.535   8.089  18.735  0.2435  0.1566 -0.1543
39364W        W82277   7.633  12.423  20.812 -0.2325  0.1934 -0.2045
39365W        W82278  12.680   0.987  23.457 -0.1030  0.0562  0.1075
39366W        W82279  27.325   0.367  17.568 -0.2355  0.1316 -0.1490
39367W        W82280   1.528   1.717  22.609  0.0245 -0.2447 -0.2801
39368W        W82281  12.313   3.347  16.925  0.1725  0.0990 -0.1603
39369W        W82282  14.090  10.080  16.240 -0.2023  0.0646 -0.1900
39370W        W82283  14.568  33.319  22.801 -0.0481 -0.2209  0.0754
39371W        W82284   9.145   2.077  19.123 -0.1047  0.2272  0.0511
39372W        W82285   6.130  15.393  17.929 -0.3098 -0.2513  0.1213
39373W        W82286   3.002   4.183  24.929 -0.0772 -0.1830 -0.0609
39374W        W82287  22.927   2.802  15.533 -0.0560 -0.4127  0.0545
39375W        W82288   5.106  10.347  19.364 -0.2825 -0.2543  0.0671
39376W        W82289   4.526   7.858  25.820 -0.1802 -0.2403 -0.0516
39377W        W82290   1.740  12.247  15.914  0.0305  0.2656 -0.0607
39378W        W82291  33.102   8.906  16.099 -0.1263  0.1124  0.1978
39379W        W82292  11.591  13.391  12.933 -0.0503 -0.0215  0.1884
39380W        W82293  31.809   4.787  20.180  0.2507 -0.0430 -0.0982
39381W        W82294   7.000   7.482  20.991  0.1292  0.1484 -0.2461
39382W        W82295  17.491   7.725  20.478 -0.4050 -0.1238 -0.1579
39383W        W82296  14.740  30.721  19.418  0.1215  0.0342 -0.0666
39384W        W82297   4.713  33.690   0.155  0.0024 -0.0077  0.1742
39385W        W82298  15.610   4.962  17.676  0.0222  0.3094 -0.1262
39386W        W82299   6.865   8.886  20.188 -0.0002 -0.2616 -0.0300
39387W        W82300   8.078   0.849   6.687  0.1716  0.1488 -0.1953
39388W        W82301   8.331  10.910  18.651 -0.1009  0.0416 -0.0327
39389W        W82302  20.530   5.031  14.618  0.0720  0.0472 -0.1485
39390W        W82303  11.555  21.159  14.276 -0.1443  0.0760  0.2062
39391W        W82304   7.359  16.224  15.058  0.0139 -0.3297 -0.1279
39392W        W82305  16.123   6.253  16.311  0.1597 -0.1522 -0.3235
39393W        W82306  12.394  12.312  27.682 -0.2671  0.0850  0.1041
39394W        W82307  25.518  14.416  19.768  0.1042  0.0279  0.0600
39395W        W82308   2.112   6.593  16.675 -0.1887 -0.0012 -0.1273
39396W        W82309  14.116  11.451  18.659 -0.1004  0.0224 -0.3075
39397W        W82310  14.251   3.455  22.530 -0.2347 -0.0722  0.1252
39398W        W82311  11.263  13.018   0.602  0.3890  0.1948 -0.0516
39399W        W82312   4.789  16.909  20.560  0.1481  0.0305 -0.0291
39400W        W82313   1.309   7.323  22.706 -0.0129 -0.3849  0.0033
39401W        W82314  13.467  18.374  12.532  0.2261  0.2071 -0.2495
39402W        W82315  16.893  30.840  25.321 -0.2066  0.2108 -0.0990
39403W        W82316   5.282  33.352   7.742 -0.1856 -0.1945  0.1994
39404W        W82317   8.043  10.362  15.898  0.1666 -0.0824 -0.1539
39405W        W82318   1.778  12.761  21.917  0.1503  0.0330 -0.2749
39406W        W82319   0.572   8.590  18.811  0.0513 -0.0023 -0.3094
39407W        W82320   6.314  15.550  23.132  0.1980 -0.0478  0.1532
39408W        W82321   2.156  11.748  15.351 -0.0638  0.0258  0.1387
39409W        W82322  10.023   0.334  16.546  0.0306  0.0675  0.2070
39410W        W82323  14.702   7.607  21.087  0.1414 -0.3457 -0.2344
39411W        W82324  16.348  13.408  12.796  0.0081  0.0218 -0.2251
39412W        W82325   2.884  10.884  17.924  0.2249 -0.0592 -0.1435
39413W        W82326  10.014  11.929  17.913  0.0545  0.0548  0.3677
39414W        W82327  10.582   4.877  23.640 -0.1041 -0.0774 -0.5261
39415W        W82328  16.811   8.218  20.049  0.0058  0.0618 -0.2600
39416W        W82329   9.823  15.266  15.545 -0.2554  0.3746 -0.0299
39417W        W82330  11.168  10.406  17.575 -0.1497 -0.0638 -0.0704
39418W        W82331  28.254   5.472  23.312 -0.0296 -0.2173 -0.0680
39419W        W82332   9.446   9.270  17.809 -0.0189  0.1063  0.1625
39420W        W82333   2.159  11.473  21.362  0.2270 -0.2077 -0.0708
39421W        W82334  13.193  14.107  18.824 -0.1423 -0.1203  0.1221
39422W        W82335  29.137  11.783  25.984  0.1597 -0.0353  0.1238
39423W        W82336   3.070  15.404  28.757  0.1360 -0.1074  0.2471
39424W        W82337  10.960  10.604  24.472 -0.2084 -0.0319  0.0250
39425W        W82338  20.971  25.240  16.280  0.0277 -0.4001 -0.1649
39426W        W82339   5.854  11.591  19.157  0.1891  0.0964 -0.1499
39427W        W82340  30.428  15.488  19.676  0.0590  0.4393  0.2919
39428W        W82341   0.770   6.222  19.152  0.0679 -0.0381  0.1754
39429W        W82342   2.893   1.349  23.358  0.0061  0.2453  0.1417
39430W        W82343   8.713  13.225  22.596 -0.1538 -0.2630 -0.1555
39431W        W82344   4.217  10.846  22.477  0.0580  0.1169  0.1022
39432W        W82345   5.904  13.133  15.922 -0.1171 -0.0383  0.0143
39433W        W82346   0.155  10.848  24.920  0.2724 -0.2172 -0.0395
39434W        W82347  12.847   7.557  27.096 -0.0983 -0.0161  0.3404
39435W        W82348   8.796   7.152  19.012  0.2108 -0.1216  0.0159
39436W        W82349  34.104   9.575  26.667 -0.1223 -0.2038 -0.0157
39437W        W82350  14.395  19.560  13.452  0.2261 -0.2404 -0.1102
39438W        W82351  12.313   5.895  20.852  0.1021  0.0437 -0.1687
39439W        W82352  13.667  11.756  16.599 -0.2272 -0.0756 -0.0936
39440W        W82353  16.981  23.065  14.598  0.1858 -0.1918 -0.0088
39441W        W82354   7.030  17.220  16.315  0.0186  0.2075 -0.1118
39442W        W82355  10.787   4.495  26.120 -0.2799 -0.0055 -0.2061
39443W        W82356   1.409   3.912  21.251  0.1711  0.0305 -0.1732
39444W        W82357  15.734  18.768  15.378  0.2473  0.1365 -0.0595
39445W        W82358   1.116   4.944  16.616 -0.3550  0.0467  0.1087
39446W        W82359   8.232  16.721  20.286 -0.1669  0.2340  0.2877
39447W        W82360  13.962   9.695  23.005  0.3745 -0.0465 -0.1727
39448W        W82361   6.521  12.910  14.816  0.0979  0.0805  0.4618
39449W        W82362   2.531   5.408  18.045  0.2298  0.0000 -0.0356
39450W        W82363  31.248  14.618  18.731  0.1711  0.2014 -0.0407
39451W        W82364  15.641  33.769  27.171  0.0824  0.0995  0.1503
39452W        W82365  32.833  32.550  20.419 -0.1093 -0.2266  0.1826
39453W        W82366   7.803  14.962  24.183 -0.1115 -0.3626 -0.1016
39454W        W82367  22.718   5.675  23.568  0.2691  0.1453 -0.6014
39455W        W82368  33.546   5.146  20.084 -0.0563  0.0169  0.1822
39456W        W82369  11.828  12.897  14.427 -0.4473  0.1301 -0.0841
39457W        W82370   9.047   7.412  20.365  0.0168  0.1135  0.1766
39458W        W82371   7.145  18.830  16.021  0.4361 -0.1211  0.0948
39459W        W82372  11.759  16.782  12.431  0.1285  0.0940 -0.0240
39460W        W82373  33.677   9.174  16.695  0.1992  0.0230  0.0895
39461W        W82374  17.843  10.005  26.867  0.0802 -0.0832  0.3884
39462W        W82375   5.368  10.572  21.818  0.1803 -0.1232 -0.1811
39463W        W82376  19.534   3.093  18.563 -0.0474 -0.0609  0.0836
39464W        W82377   8.892   6.576  19.885 -0.0217 -0.1176  0.0713
39465W        W82378   8.429   8.889  18.488 -0.3091  0.0645  0.2201
39466W        W82379  11.345  34.362  18.411  0.0887 -0.1574  0.0464
39467W        W82380   2.242   7.968  16.897 -0.0546 -0.0251 -0.0292
39468W        W82381   1.274  20.423  20.492  0.0289 -0.0118 -0.1250
39469W        W82382   9.083  32.056  22.017 -0.3544  0.2745 -0.0432
39470W        W82383  14.614   2.627  17.352 -0.1520  0.0867  0.0248
39471W        W82384  17.087  13.256  18.591 -0.3989  0.1062  0.0585
39472W        W82385  13.568  24.129  15.704 -0.0974  0.1118 -0.1106
39473W        W82386  12.027   1.214  18.068 -0.0067  0.2271  0.1759
39474W        W82387   6.413  12.667  22.037  0.0536 -0.0872 -0.0859
39475W        W82388   2.843   0.864  21.479 -0.1818 -0.0399 -0.0177
39476W        W82389  11.893  12.662  20.925 -0.0768 -0.2247 -0.1786
39477W        W82390  14.123  17.854  23.668 -0.3664 -0.1046 -0.2068
39478W        W82391   7.150   4.997  18.274 -0.2685 -0.1809 -0.0530
39479W        W82392   6.712   8.407  19.571 -0.0518  0.4964 -0.0812
39480W        W82393  17.683  13.916  12.212 -0.1062  0.0251 -0.0417
39481W        W82394  12.082  23.816  24.069 -0.0668  0.3888  0.1273
39482W        W82395  11.814  17.209  22.048  0.0535 -0.2954  0.2150
39483W        W82396  24.533  32.498  19.443  0.0242 -0.2162 -0.0106
39484W        W82397   4.813   9.878  20.529  0.0130 -0.2500 -0.1918
39485W        W82398   0.536  11.033  18.902 -0.0140  0.1501  0.0034
39486W        W82399  10.796  25.617  19.621 -0.0980 -0.1964 -0.0511
39487W        W82400  15.791  10.713  19.617 -0.1671  0.0421 -0.3067
39488W        W82401   8.291  13.193  25.279  0.1931 -0.1420  0.2757
39489W        W82402  17.658  10.989  13.222 -0.1245  0.3529  0.2721
39490W        W82403  10.810  13.865  15.066  0.2733 -0.3712  0.1707
39491W        W82404  13.783   4.157  18.436 -0.3342  0.0323  0.0837
39492W        W82405   0.266   6.126  29.518 -0.0311  0.2798 -0.1965
39493W        W82406   5.177  12.882  23.057  0.0663  0.2714 -0.2352
39494W        W82407  15.981   4.636  23.465 -0.0423  0.0317 -0.0360
39495W        W82408   6.787  13.940  20.993  0.0350 -0.2616 -0.0958
39496W        W82409  17.533   2.616  21.418 -0.1143  0.0451 -0.2359
39497W        W82410  18.941   8.298  13.461 -0.0903 -0.2961  0.0709
39498W        W82411   9.164  11.758  16.301 -0.4733  0.1134 -0.2567
39499W        W82412  11.263  12.798  26.436  0.1419 -0.0670 -0.1311
39500W        W82413  24.460  11.958  15.177  0.0044 -0.0810  0.0110
39501W        W82414  34.443  13.055  19.746  0.1038  0.0778 -0.0103
39502W        W82415  12.281  10.246  20.888 -0.2171  0.1630  0.3504
39503W        W82416   7.329  13.164  28.708 -0.2929 -0.0207  0.1659
39504W        W82417  24.985   4.809  20.602  0.4313 -0.0444 -0.3804
39505W        W82418  13.542  14.901  23.961 -0.0190  0.2429 -0.0359
39506W        W82419  11.585   6.816   0.702  0.0605 -0.1644 -0.1425
39507W        W82420  14.573  10.911  14.671  0.0743 -0.0224  0.0609
39508W        W82421  16.283  12.036  21.294 -0.1374 -0.1868 -0.1671
39509W        W82422  27.569  19.020  20.960  0.2628 -0.3248 -0.0925
39510W        W82423  19.618  11.049  25.707  0.0334  0.1711  0.1441
39511W        W82424  11.983  13.212  16.186  0.0606  0.2693 -0.0960
39512W        W82425  16.218   0.073  25.853  0.0580  0.1364 -0.0016
39513W        W82426   5.200  27.556  21.120  0.2386  0.0451 -0.3790
39514W        W82427  13.520   4.902  21.792 -0.1439  0.0712  0.0679
39515W        W82428   7.711   6.934  21.815  0.1393  0.2554  0.0690
39516W        W82429  21.706   5.975  15.033  0.0434 -0.4615 -0.1855
39517W        W82430   4.498   2.713  18.264  0.1577  0.0504 -0.0017
39518W        W82431  13.913  12.311  20.113 -0.0011  0.2096  0.1919
39519W        W82432  13.193   5.487  24.531 -0.1670  0.1364  0.3112
39520W        W82433  16.903   8.928  15.497 -0.1708 -0.1948  0.1505
39521W        W82434   1.763  14.695  22.808  0.2721 -0.1173  0.4270
39522W        W82435   5.025  14.253  13.662 -0.2073  0.0708 -0.2035
39523W        W82436  19.718   4.732  18.906  0.0489 -0.1043 -0.0298
39524W        W82437  15.075   9.093  22.643  0.4491 -0.0980 -0.1066
39525W        W82438   9.841   7.320  24.032  0.0461  0.0417 -0.2094
39526W        W82439   9.235  22.199   2.634 -0.1557  0.0724  0.1060
39527W        W82440   8.544  11.961  17.980  0.2290 -0.0739  0.0528
39528W        W82441   3.938  20.401   4.578  0.0920  0.1083  0.2757
39529W        W82442  15.548  11.378  23.211 -0.2038  0.0193  0.3261
39530W        W82443  22.133  10.139  26.836 -0.0200  0.0401 -0.1131
39531W        W82444   8.916   9.023  21.369 -0.0638  0.0338  0.2713
39532W        W82445   6.955   9.088  17.558  0.4610 -0.0221  0.0831
39533W        W82446   3.797   4.468  21.036 -0.1041 -0.0038 -0.0906
39534W        W82447  12.690  14.509  21.503 -0.1089 -0.0352  0.1517
39535W        W82448  21.302  23.107  15.789  0.0465  0.3634 -0.2370
39536W        W82449   5.148   7.263  21.060  0.0072  0.0093 -0.2312
39537W        W82450  10.383  16.212  24.266 -0.2138 -0.0488  0.2083
39538W        W82451   6.100   7.514  26.719  0.0481 -0.0275  0.1651
39539W        W82452   5.646  13.285  17.399  0.1326  0.1483  0.0306
39540W        W82453  18.353   1.756  22.233 -0.5441  0.2033  0.0768
39541W        W82454   9.395  30.298  23.467  0.1454 -0.2391 -0.0025
39542W        W82455   5.229  10.432  17.267  0.0760 -0.1727  0.2767
39543W        W82456   7.798   8.921  23.301  0.1049 -0.2715 -0.1158
39544W        W82457   9.340  11.639  26.212 -0.0004  0.3230  0.1808
39545W        W82458  10.675  12.300  15.493  0.3134  0.1079  0.1498
39546W        W82459   9.196  16.917  15.692  0.3440 -0.4159 -0.0891
39547W        W82460  24.075  15.281  13.313  0.0454  0.2940  0.0832
39548W        W82461  33.032   5.320  28.071  0.0607  0.3118  0.0143
39549W        W82462   8.339  11.948  20.400  0.1710  0.2037 -0.3246
39550W        W82463  10.132   3.327   4.694 -0.1024 -0.1749 -0.0774
39551W        W82464   4.641  17.832   1.527  0.0253 -0.2748  0.1399
39552W        W82465   5.484  13.590  17.007 -0.0905  0.0372 -0.1162
39553W        W82466  14.969  32.047  25.993  0.3455 -0.1968  0.0882
39554W        W82467   5.064  10.111  28.441 -0.0569  0.0931 -0.1283
39555W        W82468   9.550  13.095   8.405  0.1913 -0.1214 -0.0429
39556W        W82469   3.736   5.965  28.366  0.1677 -0.1103  0.1736
39557W        W82470  16.574   4.619  26.904 -0.1586 -0.2253 -0.1974
39558W        W82471  13.187   5.560  25.037  0.0800  0.2030  0.2965
39559W        W82472   0.034   9.427  18.708  0.3169 -0.4303  0.2210
39560W        W82473   3.390  14.145  22.437  0.1325 -0.3789 -0.1305
39561W        W82474  14.203  11.494  21.046 -0.1478 -0.1997  0.2671
39562W        W82475  17.456  18.539  13.505 -0.1281  0.0734 -0.0058
39563W        W82476   6.711   6.497  26.377  0.0803 -0.1486  0.1443
39564W        W82477  11.532  19.636  13.958 -0.2774 -0.1024 -0.2445
39565W        W82478  14.353   4.251  17.750  0.1769  0.1528 -0.0675
39566W        W82479  13.287  32.776  19.040  0.0349  0.0103  0.2239
39567W        W82480  16.628   6.962  19.840  0.0417 -0.3045 -0.0244
39568W        W82481   5.708  10.182  19.956  0.1243  0.2810  0.1761
39569W        W82482   5.341   9.079  17.661 -0.4995  0.0059 -0.0158
39570W        W82483   8.636  13.821  14.570 -0.2178 -0.2065 -0.1487
39571W        W82484   6.798  21.476  26.338  0.0685 -0.1272 -0.3445
39572W        W82485  25.169   1.244  20.577 -0.2022 -0.0631 -0.0796
39573W        W82486   8.314  14.736  27.111 -0.0799  0.1767  0.1229
39574W        W82487  22.741   9.537  19.458 -0.0624 -0.2735 -0.3208
39575W        W82488  11.065  10.775  21.614  0.0129 -0.0993  0.2679
39576W        W82489  12.480  33.580  17.999 -0.0881 -0.1385 -0.0042
39577W        W82490  19.672  16.112  14.191  0.0722  0.2016  0.1343
39578W        W82491  20.051   2.589  20.272 -0.0903 -0.1377 -0.2941
39579W        W82492   9.616  29.723  20.791 -0.0353 -0.0260 -0.3525
39580W        W82493  10.709   4.021  23.827 -0.0093 -0.3728 -0.2960
39581W        W82494  15.698   1.133   2.816  0.2174 -0.3215 -0.3195
39582W        W82495  13.403   7.409  28.141  0.0780  0.4999 -0.1136
39583W        W82496  23.515   9.773  18.050  0.0192  0.1712 -0.1401
39584W        W82497   7.266  15.448  14.533  0.1344 -0.0579  0.0601
39585W        W82498  14.376   8.878  21.189  0.0540 -0.0247 -0.2895
39586W        W82499   8.194   8.313  22.699  0.0607 -0.3479 -0.2892
39587W        W82500   8.912  18.165  21.854 -0.0245  0.1993 -0.1178
39588W        W82501   7.876  17.279  21.864  0.1219 -0.0520  0.0759
39589W        W82502  21.616   8.529  21.148 -0.0362  0.1126  0.1179
39590W        W82503   0.188  32.019  16.191  0.0490  0.3581 -0.0778
39591W        W82504   4.849  16.310  25.908  0.1559  0.0701  0.4393
39592W        W82505   3.564  30.464  28.065 -0.1557 -0.0889  0.1377
39593W        W82506  14.991   9.842  24.306 -0.0451  0.2124  0.0702
39594W        W82507  16.017   7.063  22.192  0.2341 -0.0488  0.0964
39595W        W82508   6.736   4.429  24.851 -0.1115 -0.0601  0.1021
39596W        W82509  16.616  13.365  23.317  0.0029 -0.1855  0.0546
39597W        W82510  11.948  13.476  15.330 -0.0951 -0.0816 -0.1067
39598W        W82511  15.798   6.289  16.726 -0.0295  0.1019  0.2230
39599W        W82512  16.186  13.020  21.176 -0.1705  0.0699  0.0652
39600W        W82513  34.324  20.704  22.809  0.3717  0.0450  0.2430
39601W        W82514  18.721   0.750  20.437 -0.2164 -0.2175 -0.2449
39602W        W82515  17.499  10.494  29.588 -0.0964 -0.1058 -0.2278
39603W        W82516   9.706   6.344  21.461 -0.0742  0.2182  0.0498
39604W        W82517  10.916  12.264  25.424 -0.0292  0.0301 -0.1762
39605W        W82518  29.130   2.538  24.271  0.1439  0.3056 -0.4534
39606W        W82519   6.958   2.529  21.017 -0.0543 -0.3447 -0.1107
39607W        W82520   6.633  19.012  13.973 -0.0420 -0.1297  0.2562
39608W        W82521  15.223   8.825  19.620 -0.1323 -0.0894  0.0440
39609W        W82522   9.093   5.318  18.883 -0.0992 -0.1810 -0.2921
39610W        W82523  10.433  10.469  20.432  0.0820  0.2412  0.1771
39611W        W82524   9.908   0.586   2.132  0.3018 -0.1182 -0.2910
39612W        W82525  18.342   6.025  15.358  0.0916 -0.2588 -0.0215
39613W        W82526   9.438  10.026  25.592 -0.2618  0.2120 -0.3935
39614W        W82527  12.407  16.153   0.157 -0.1479 -0.0260 -0.3188
39615W        W82528  12.120  10.318  16.765  0.1810 -0.1792  0.2108
39616W        W82529  11.787   3.380  26.711 -0.0978  0.0742  0.3257
39617W        W82530  12.775   1.265  18.686  0.1987  0.3240 -0.0924
39618W        W82531   1.671  18.107  15.866  0.1227 -0.3010 -0.2372
39619W        W82532  11.741   0.768  18.598 -0.0787  0.1550 -0.1690
39620W        W82533  33.695  16.903  19.183  0.1771 -0.2351 -0.0223
39621W        W82534  18.154   6.234  19.798  0.1914 -0.1156 -0.0823
39622W        W82535   9.425   7.853  19.259 -0.3246  0.0778 -0.3460
39623W        W82536  16.759  10.469  24.803 -0.1767  0.3892  0.1942
39624W        W82537   7.410   6.344  22.114 -0.1433 -0.4436 -0.0801
39625W        W82538  15.349   6.635  22.473 -0.1441 -0.2080  0.3842
39626W        W82539   9.694   5.995   0.450  0.0101 -0.1905 -0.2998
39627W        W82540   6.325   6.977  19.667  0.1858  0.3701 -0.0376
39628W        W82541   5.198  10.339  28.834 -0.0271  0.0267  0.2256
39629W        W82542  14.896  13.956  25.077 -0.1374 -0.1183 -0.0917
39630W        W82543  18.100  14.892  15.199  0.5464 -0.0239  0.1773
39631W        W82544  10.166  10.812  20.061 -0.3641  0.3524  0.0681
39632W        W82545  10.371   9.525  21.432 -0.0683 -0.1853 -0.3749
39633W        W82546  18.130  10.895  16.912  0.0001 -0.2359  0.2340
39634W        W82547  10.471   0.724  18.306  0.2188 -0.1003  0.2399
39635W        W82548  22.014   8.626  17.882  0.0605  0.0101  0.0691
39636W        W82549  19.290   3.400  15.171  0.2324 -0.0056 -0.0616
39637W        W82550  12.988  34.392  17.048 -0.0183 -0.3483 -0.0096
39638W        W82551   5.351  13.642  19.916 -0.0574  0.0885  0.0828
39639W        W82552  15.244   8.517  16.971  0.0961  0.0899  0.2297
39640W        W82553   4.950   1.498  23.901 -0.3415 -0.4155  0.0317
39641W        W82554   5.719  33.856  18.901 -0.1020  0.0105  0.3716
39642W        W82555  34.210   9.152   2.728  0.0575  0.0574 -0.2000
39643W        W82556  28.008  10.913  15.355 -0.0847  0.0434  0.2510
39644W        W82557   8.249   5.250  19.190  0.3401  0.0789 -0.0787
39645W        W82558  11.090   1.319  18.972 -0.2911  0.0801 -0.0104
39646W        W82559  21.722  10.168  16.131  0.2301  0.0247 -0.0968
39647W        W82560  13.848   9.102  21.468  0.0921  0.0874 -0.0321
39648W        W82561  23.604   0.182  15.903 -0.1788  0.0736  0.2246
39649W        W82562  19.349  34.450  28.045  0.1771 -0.1313  0.0415
39650W        W82563   5.465  14.927  25.260  0.0497  0.1237 -0.0910
39651W        W82564  14.835  14.096  23.494 -0.0243  0.1808 -0.1035
39652W        W82565   4.117  12.304  21.585  0.1064  0.5814 -0.0729
39653W        W82566   7.652   3.238  24.908 -0.3311  0.0602  0.1509
39654W        W82567   7.118   6.649  18.323 -0.2267 -0.4530 -0.0360
39655W        W82568  14.669  34.428  21.507 -0.1273  0.1743  0.1271
39656W        W82569  17.012   3.122  21.877  0.0009 -0.2850 -0.1570
39657W        W82570   6.577  30.862  16.092 -0.0640  0.3247  0.0661
39658W        W82571   9.415  13.092  20.670  0.3840  0.0933 -0.1734
39659W        W82572  19.304  16.023  24.370 -0.0531 -0.1950 -0.0986
39660W        W82573  34.083   4.471  21.303  0.0948  0.2039  0.2161
39661W        W82574   6.253  15.904  20.935  0.1995 -0.0455 -0.0162
39662W        W82575  10.189   6.414  18.655  0.1228 -0.0220  0.1725
39663W        W82576  10.352  21.417  18.853  0.3881  0.1412 -0.2699
39664W        W82577   4.966  10.614  17.684  0.1430  0.0863  0.0083
39665W        W82578  14.937  13.321  18.025 -0.1079 -0.1156  0.3063
39666W        W82579  12.289  26.322  15.497  0.3122 -0.0507 -0.1547
39667W        W82580  33.309  10.270  16.703  0.1198 -0.2445 -0.1176
39668W        W82581  15.641   3.906  26.637 -0.1088  0.1101 -0.0284
39669W        W82582   4.606   0.985  20.594 -0.1749 -0.0351  0.0465
39670W        W82583  18.490  11.723  19.390  0.1142  0.1117 -0.0507
39671W        W82584  21.772  29.957  20.625 -0.1887 -0.3998 -0.0379
39672W        W82585   7.072  11.499  18.546 -0.2142 -0.1479  0.0637
39673W        W82586  12.878  14.072  16.818 -0.1843  0.0282  0.3784
39674W        W82587  14.527   3.983  21.897 -0.1007 -0.2155  0.2589
39675W        W82588   4.156  13.109  19.987 -0.0571 -0.2016  0.1203
39676W        W82589   8.976  21.878  19.279 -0.2960 -0.3428 -0.0067
39677W        W82590  13.317  12.857   2.727  0.1466  0.0316  0.1564
39678W        W82591  14.454   7.252  19.157  0.1802 -0.2027  0.2066
39679W        W82592   8.130  13.747  14.345 -0.1829  0.0794  0.0808
39680W        W82593   7.188   4.320  25.110 -0.0365  0.0033  0.4983
39681W        W82594  16.352  11.026  13.761  0.1200  0.2617  0.0827
39682W        W82595  16.621   6.155  27.748 -0.4212 -0.0329  0.1131
39683W        W82596  12.776   5.244  25.242  0.0170 -0.0662  0.0387
39684W        W82597  10.590  17.207  19.928  0.0024  0.0918 -0.0320
39685W        W82598   2.001   5.468  27.532 -0.2010 -0.0097  0.0580
39686W        W82599  10.429   4.532  18.017  0.2885 -0.2287  0.0258
39687W        W82600   4.260   5.720  18.986 -0.1130  0.0143  0.0691
39688W        W82601  11.617   4.727  23.322 -0.0691  0.3421 -0.3221
39689W        W82602  11.603  12.067  18.989 -0.4530  0.0068 -0.2705
39690W        W82603  10.817  13.325  23.424  0.1455  0.2634 -0.1373
39691W        W82604  19.829   5.810  19.871  0.2024 -0.0544  0.0610
39692W        W82605   7.902   7.297   1.535 -0.2016  0.0038  0.0218
39693W        W82606  14.110   5.458  26.506  0.1682 -0.1879  0.2668
39694W        W82607  10.467  10.215  18.358  0.2366 -0.1347  0.1452
39695W        W82608   7.767   1.893  18.246 -0.0689 -0.2431 -0.4103
39696W        W82609  19.445   0.437  27.151  0.0693  0.3262  0.4181
39697W        W82610  12.314  11.271  20.672 -0.0491  0.0029  0.1849
39698W        W82611   2.976   8.700  18.675 -0.1854 -0.0144 -0.0965
39699W        W82612  13.030   1.828  27.692 -0.3142  0.3016 -0.1735
39700W        W82613   7.250  15.796   6.791 -0.0231  0.0263 -0.2114
39701W        W82614   9.934   3.401  18.940 -0.1906  0.1997 -0.0328
39702W        W82615   8.913  32.343  17.265 -0.2899  0.0100 -0.1722
39703W        W82616   5.692   4.900  20.112 -0.1975  0.1348 -0.3667
39704W        W82617   8.825  18.190  17.886  0.0481 -0.1416 -0.0532
39705W        W82618   8.954   9.243  17.982 -0.1484  0.0946  0.2971
39706W        W82619  16.562   4.717  29.163  0.0610  0.0079  0.1721
39707W        W82620   1.669  34.368  20.501  0.2579 -0.2251  0.2071
39708W        W82621  16.947   5.816  21.967 -0.1008 -0.0716 -0.2284
39709W        W82622  16.463  25.287  18.687  0.1876  0.0309  0.0511
39710W        W82623   1.573  18.789  15.546 -0.4559  0.0879 -0.0351
39711W        W82624   3.738   4.244   0.714  0.1030 -0.0200 -0.0026
39712W        W82625   7.397  13.441  22.960  0.0536 -0.0031  0.2164
39713W        W82626  11.065   3.987  25.505  0.3078  0.2990 -0.2876
39714W        W82627   6.170  13.674  24.644  0.0772 -0.0006  0.1255
39715W        W82628   5.451   2.326  19.629  0.0336  0.3721 -0.2213
39716W        W82629   2.842   8.231  22.568 -0.4030 -0.1075  0.1029
39717W        W82630  17.619   6.288  16.160  0.0900 -0.1553 -0.1799
39718W        W82631  33.680   6.602  17.892 -0.0292  0.1886  0.0553
39719W        W82632   8.514  32.393  27.055  0.0052 -0.1277  0.0650
39720W        W82633  15.048  31.989  25.073 -0.0956 -0.1606 -0.3144
39721W        W82634  10.231   1.338  22.131  0.1957 -0.1215 -0.0365
39722W        W82635   2.913  14.179  21.678 -0.2388  0.0720  0.1781
39723W        W82636   9.414  13.659   0.936 -0.5779 -0.3468  0.1384
39724W        W82637   8.762   6.285  18.665 -0.1010 -0.0593  0.1917
39725W        W82638  12.971  17.652  15.774  0.0597 -0.1641  0.1018
39726W        W82639   9.234   6.934  18.984  0.0661 -0.1433 -0.1086
39727W        W82640   5.867   5.203  27.018  0.2303 -0.0223 -0.1987
39728W        W82641  24.170  16.838  28.018  0.2091 -0.1418 -0.0556
39729W        W82642   7.511   7.492  21.165  0.2157  0.4280 -0.0689
39730W        W82643  12.124   7.565  27.746  0.0297 -0.2882  0.1355
39731W        W82644   8.576  11.439  15.364 -0.2921 -0.0078 -0.1912
39732W        W82645  12.340   3.655  18.753 -0.1111 -0.0935 -0.3418
39733W        W82646  19.829   2.828  16.224  0.2190 -0.4743 -0.0665
39734W        W82647   8.047   8.279  19.784 -0.0221 -0.0849  0.2100
39735W        W82648   6.001  11.913  21.087  0.0132  0.0385 -0.0855
39736W        W82649   3.183  13.351   0.065  0.0625  0.3373 -0.1641
39737W        W82650   8.456   9.385   2.317  0.1557  0.0933  0.0453
39738W        W82651  30.219  26.849  22.509  0.0561 -0.2036  0.4234
39739W        W82652  15.143  32.361  29.122  0.0773 -0.2242 -0.2419
39740W        W82653   0.404  17.910  25.550  0.1380 -0.1594  0.1649
39741W        W82654  17.177  11.141  14.449 -0.0141 -0.1693  0.0658
39742W        W82655  28.935   2.782  18.945 -0.0992 -0.0870  0.0388
39743W        W82656  16.387   5.330  28.135  0.1011 -0.0556  0.1408
39744W        W82657   9.418  11.140  15.679  0.4493  0.0148  0.1137
39745W        W82658  17.269   3.420  23.322  0.3447  0.2649  0.0078
39746W        W82659  17.281   0.967  16.630  0.0751 -0.1959 -0.1938
39747W        W82660  12.848   4.779  16.576 -0.0755  0.0892  0.1576
39748W        W82661  10.764   3.723   1.520 -0.0664 -0.4373  0.0790
39749W        W82662  12.427   5.820  20.304 -0.2249 -0.0478  0.0310
39750W        W82663  15.364   2.904  21.333 -0.1852 -0.0735 -0.0211
39751W        W82664  10.316   7.138  23.579  0.0466 -0.0824  0.0910
39752W        W82665  12.904   2.976  19.058 -0.0702 -0.0251  0.2267
39753W        W82666  32.165  13.934  21.461 -0.4274  0.1503 -0.1034
39754W        W82667   8.992  11.221  17.258  0.4349 -0.0079  0.2573
39755W        W82668  26.216   6.959  25.275 -0.2279 -0.1208  0.1783
39756W        W82669   3.075  14.840   5.322  0.1154 -0.1932 -0.2640
39757W        W82670   8.368   5.123  17.710  0.0565 -0.0071  0.0134
39758W        W82671  13.576  33.447   0.751 -0.1159 -0.0705  0.0673
39759W        W82672   5.828   4.971  23.102 -0.0778 -0.3434  0.1575
39760W        W82673  34.384  13.091  21.517 -0.0496  0.2006 -0.0014
39761W        W82674  15.679   2.951  22.657 -0.2011 -0.1892 -0.2071
39762W        W82675  12.195  11.969  20.213  0.0265  0.1995 -0.2276
39763W        W82676   6.568   4.486  17.522  0.0682 -0.0276 -0.0900
39764W        W82677   6.458  12.809  16.177 -0.5055 -0.2031  0.4207
39765W        W82678   4.277   2.000  23.871 -0.0994 -0.1029 -0.0815
39766W        W82679   6.522   9.706  16.461 -0.4019 -0.0781 -0.2116
39767W        W82680   1.127   0.645  20.385  0.0291  0.1886  0.2092
39768W        W82681  16.702  33.749  19.479 -0.0393  0.2742  0.1675
39769W        W82682   6.236  17.303  21.125 -0.1896  0.2598 -0.0018
39770W        W82683  10.303  11.411  16.070  0.1823 -0.1172  0.0804
39771W        W82684   5.855  32.098  24.777  0.1169  0.0093  0.3106
39772W        W82685  28.909   5.196  18.074  0.0869 -0.0981 -0.3212
39773W        W82686  11.398   5.966  26.082 -0.1684  0.0259 -0.0105
39774W        W82687  10.898  26.603  20.351 -0.0250 -0.1792  0.1853
39775W        W82688   8.242  16.114  16.496  0.2203 -0.3442 -0.0236
39776W        W82689   4.829   4.620  20.920 -0.0286 -0.0093  0.1454
39777W        W82690  30.061  34.461  18.182  0.3280  0.1814  0.1101
39778W        W82691  19.364   5.165  14.875 -0.2042 -0.2225 -0.4623
39779W        W82692   9.198  14.219  15.100  0.1649 -0.0684  0.2325
39780W        W82693   2.623  22.625  16.830  0.0976  0.3814 -0.2187
39781W        W82694  22.497  15.285  18.296 -0.0836 -0.1536 -0.2455
39782W        W82695  32.647   6.938   0.692 -0.0606  0.0452 -0.2770
39783W        W82696  13.857  15.485   1.866 -0.0356  0.1367 -0.3115
39784W        W82697  10.665   9.837  25.078  0.0046 -0.0507 -0.1475
39785W        W82698  14.923  13.475  21.095  0.0122  0.3333  0.1528
39786W        W82699  13.269  10.865  16.348 -0.2988  0.0043  0.0277
39787W        W82700  11.824   5.018  22.668 -0.2582  0.1003  0.0692
39788W        W82701  21.485   4.730  17.817  0.1236  0.4151 -0.2999
39789W        W82702  20.498   9.079  15.821  0.1670 -0.0167 -0.0990
39790W        W82703  11.997  13.836  24.088  0.0539  0.0736  0.0518
39791W        W82704  11.037  10.753  15.499 -0.2129 -0.1281 -0.1930
39792W        W82705  18.671   6.831  19.033  0.2883 -0.0880  0.0323
39793W        W82706   1.620   6.946  18.866 -0.1935 -0.0637 -0.0177
39794W        W82707   9.685   9.919  24.595 -0.1999 -0.0432  0.2841
39795W        W82708   7.600  11.036  20.269  0.1926  0.0304 -0.0102
39796W        W82709   1.418  13.274  21.918  0.0589 -0.0258 -0.4310
39797W        W82710   8.040  16.954  22.551 -0.1860  0.2396  0.0199
39798W        W82711   5.338   6.806  19.091  0.0054 -0.2687 -0.0999
39799W        W82712  11.579   6.364  21.092  0.0200  0.0937 -0.0772
39800W        W82713   7.637  34.104  25.434 -0.0060  0.1707 -0.2533
39801W        W82714  13.842   0.678  18.547 -0.0325 -0.0440 -0.0723
39802W        W82715   7.128   1.788  21.659 -0.3716 -0.1785  0.1272
39803W        W82716  10.867  11.668  24.675 -0.2779  0.0425  0.1568
39804W        W82717   8.881  10.182  22.648 -0.0734  0.1099 -0.2864
39805W        W82718  13.906   4.080   1.435  0.3280  0.1631  0.0516
39806W        W82719   9.815   4.810  23.286 -0.0512  0.0456  0.1361
39807W        W82720   7.245  14.693  26.548 -0.1289  0.3159 -0.2143
39808W        W82721  10.797  31.985  18.642  0.3312 -0.3752  0.0506
39809W        W82722   8.473   5.890  28.609 -0.0912  0.1194 -0.0875
39810W        W82723   2.368  14.006  23.272  0.2855  0.2733  0.3066
39811W        W82724  23.225   6.948  28.219 -0.2383 -0.0157 -0.0372
39812W        W82725  12.842  16.389  16.820  0.0498 -0.1180 -0.0798
39813W        W82726   9.798  10.346  22.685  0.0696  0.1368 -0.0531
39814W        W82727  10.284   6.368  23.561 -0.0669 -0.1217 -0.1542
39815W        W82728   7.586  14.061  16.819  0.3210 -0.2102  0.2132
39816W        W82729   3.031   7.393  18.959  0.0794 -0.0776 -0.1677
39817W        W82730   6.163  31.593  23.575  0.2577 -0.2421 -0.0312
39818W        W82731   3.502  31.181  21.852 -0.2338 -0.0336 -0.1371
39819W        W82732   9.235   5.350  18.368 -0.0188  0.0586  0.0885
39820W        W82733  14.561   8.774  24.937  0.2368 -0.1554 -0.0156
39821W        W82734  28.644  15.589  16.257  0.2587 -0.0670 -0.2464
39822W        W82735  19.237  33.806  15.453 -0.0081 -0.3124  0.1848
39823W        W82736  15.955  33.873  19.527 -0.0354  0.2341  0.1106
39824W        W82737   7.901  14.771  20.206 -0.0540 -0.2399 -0.1578
39825W        W82738  20.632  12.570   5.985  0.0216  0.0968  0.0381
39826W        W82739  14.381   8.154  21.392 -0.2434  0.0008 -0.1530
39827W        W82740  10.086  14.957  18.049  0.1744 -0.0146 -0.0287
39828W        W82741  11.901   5.862  16.124  0.3964  0.0636 -0.3825
39829W        W82742   0.190  18.917  19.815 -0.0244  0.1194 -0.0279
39830W        W82743  10.931  14.660  24.848  0.1114 -0.0979 -0.2627
39831W        W82744   5.827  20.709  21.393  0.1784 -0.0137  0.1116
39832W        W82745   4.367   4.714  19.016 -0.1835  0.1248  0.0829
39833W        W82746   6.274  12.950  23.184  0.2719 -0.0791  0.1456
39834W        W82747   4.369   4.061  28.876 -0.3187 -0.0100 -0.0078
39835W        W82748   6.266  32.136  23.356 -0.1329 -0.1935  0.0046
39836W        W82749  27.299  27.298  17.047  0.0550  0.2952  0.2371
39837W        W82750   5.019  17.484  24.561 -0.0266 -0.2260 -0.2634
39838W        W82751  29.364   8.018  25.370 -0.0422  0.0838 -0.1358
39839W        W82752   7.829   2.741  27.900 -0.0436 -0.1357  0.1541
39840W        W82753  15.017   6.595  24.521  0.2418 -0.2803 -0.1504
39841W        W82754   0.430  11.300  24.907  0.1721  0.3081  0.0399
39842W        W82755   7.743  15.318  21.983  0.1910 -0.0539  0.1019
39843W        W82756  21.592   3.746  23.837  0.2010  0.0208 -0.2187
39844W        W82757  12.333   8.664  21.226 -0.1290  0.0302  0.1628
39845W        W82758  14.245   5.733  15.750  0.1858 -0.2392 -0.0673
39846W        W82759   3.922  15.524  15.021  0.0014 -0.1576 -0.0393
39847W        W82760   2.816  11.225  19.274 -0.0044 -0.0762  0.1987
39848W        W82761  13.428   7.089  18.111  0.2079 -0.0217 -0.1390
39849W        W82762   8.284  13.047  22.777 -0.0945  0.2021  0.1737
39850W        W82763  15.703   5.364  28.502 -0.1185  0.0543  0.1795
39851W        W82764  10.325  20.229  29.090 -0.0607  0.1289 -0.0460
39852W        W82765   9.058   4.852  22.012 -0.0105 -0.0373 -0.0168
39853W        W82766  15.922  11.124  22.472  0.2172  0.1217 -0.0895
39854W        W82767   8.033   8.030  24.273 -0.2228  0.2431  0.0721
39855W        W82768   6.886   1.575  23.172 -0.1587 -0.3678 -0.3016
39856W        W82769  13.320  10.374  15.962  0.1289 -0.0246  0.0415
39857W        W82770   8.195  16.289  19.813 -0.2160 -0.2171  0.0067
39858W        W82771   8.132  12.828  27.912  0.2922 -0.3945  0.0407
39859W        W82772   5.732  11.891  22.234 -0.1919  0.2401  0.0990
39860W        W82773  14.126  12.665  12.689 -0.0336 -0.0419  0.1946
39861W        W82774   6.067  33.996  18.111 -0.2118 -0.1107 -0.2202
39862W        W82775   6.624   7.371   1.222 -0.0125  0.0141 -0.2177
39863W        W82776  12.840  12.840  21.212  0.1465 -0.1240 -0.0197
39864W        W82777   7.160  12.249  29.310  0.1883 -0.1317 -0.0716
39865W        W82778   8.686   6.106  20.858  0.1017 -0.0238 -0.1883
39866W        W82779   2.820   1.746  21.143 -0.0508 -0.1113  0.0850
39867W        W82780  14.004  14.825  13.330 -0.0323  0.0671  0.0129
39868W        W82781  10.979   8.708  17.964 -0.4260 -0.2618  0.0069
39869W        W82782   4.285   8.066  28.887 -0.2388  0.1168  0.1149
39870W        W82783  17.074   2.522  29.528 -0.1205 -0.1189 -0.0217
39871W        W82784  13.474   6.125  20.333  0.1111 -0.2516 -0.0868
39872W        W82785  10.860   9.096  18.668  0.0425  0.0384  0.0021
39873W        W82786   6.766   3.956  18.632 -0.1839  0.3179 -0.4523
39874W        W82787  19.989   6.629  18.847 -0.2218  0.0290  0.1677
39875W        W82788   0.115  19.401  27.437  0.0967 -0.1662 -0.1406
39876W        W82789   8.366  30.412  26.201 -0.1705  0.1447  0.2412
39877W        W82790  11.027  33.724  21.940  0.2153  0.2428  0.1307
39878W        W82791   7.074   8.628  22.843 -0.1191 -0.0209 -0.0143
39879W        W82792   9.133  19.296  22.047 -0.0365  0.0124  0.1993
39880W        W82793  15.811  10.119  20.884  0.0905 -0.1531  0.0502
39881W        W82794  34.026   3.177  25.388  0.0749 -0.0878  0.0003
39882W        W82795  19.381  15.355  29.392  0.2384 -0.1824  0.1893
39883W        W82796   8.210   4.835  19.420 -0.0701 -0.2102 -0.1364
39884W        W82797  15.773   5.422  16.391  0.0531 -0.1654 -0.1317
39885W        W82798  14.964  10.736   0.266 -0.0207 -0.2650 -0.1566
39886W        W82799   8.326  11.387  21.146  0.0804 -0.1635 -0.0241
39887W        W82800  16.759  11.354  15.275  0.4220 -0.0375  0.2501
39888W        W82801   8.077  10.173  21.073  0.2233 -0.0663 -0.0653
39889W        W82802   6.041   9.207  20.200 -0.1980  0.0576  0.1623
39890W        W82803  15.920  11.765  24.170  0.0263 -0.0702 -0.2463
39891W        W82804  12.250  32.360  21.879 -0.0662  0.0582  0.0886
39892W        W82805  15.847   6.733  16.226 -0.0727 -0.0281  0.1004
39893W        W82806   7.724  11.137  18.102 -0.0905  0.0951 -0.1981
39894W        W82807  11.379  16.446  16.175 -0.3048 -0.1047 -0.0979
39895W        W82808  13.137  32.180  18.894  0.1110 -0.2461  0.1018
39896W        W82809   8.719   9.744  17.913  0.1533 -0.0594 -0.2412
39897W        W82810  14.220  13.023  20.634  0.2510  0.0485  0.0721
39898W        W82811  34.230   3.567  19.855 -0.1899 -0.0767 -0.0019
39899W        W82812  12.234  10.080  21.768  0.1017  0.1441 -0.1245
39900W        W82813   4.934  17.673   0.167  0.2668  0.2751 -0.0008
39901W        W82814  28.924   7.564  20.285  0.2797 -0.2235  0.2721
39902W        W82815  22.230   7.341  18.531 -0.1095 -0.2199  0.0192
39903W        W82816  20.824   1.920  21.622  0.2556  0.0541  0.0344
39904W        W82817   5.033  34.376  22.135 -0.0643 -0.0354  0.0611
39905W        W82818  12.530  33.827  22.592 -0.1820 -0.2705  0.1839
39906W        W82819   6.454   4.899  25.634 -0.0067  0.0797 -0.1618
39907W        W82820  11.533   7.934  19.329 -0.1594 -0.1635 -0.0636
39908W        W82821  13.418   7.666  22.127 -0.0757 -0.0392  0.0354
39909W        W82822  17.218   9.997  13.838  0.1861  0.5090  0.2146
39910W        W82823   3.427   6.466  24.937 -0.0067 -0.0387  0.2701
39911W        W82824  15.542  11.767  20.101 -0.0827  0.1705  0.2641
39912W        W82825   0.934   8.238  24.615 -0.0278  0.2057 -0.1657
39913W        W82826   7.236  14.085  19.161  0.0751  0.0289  0.0382
39914W        W82827  22.347   3.143  16.530  0.1460 -0.1369  0.0691
39915W        W82828  18.761   6.752  25.529 -0.0630  0.2442  0.1354
39916W        W82829  11.418  13.334   3.771 -0.2433 -0.0136 -0.1033
39917W        W82830  32.947   3.105  29.076 -0.1610 -0.1428  0.0040
39918W        W82831   4.628   4.574  19.490  0.1684 -0.1699  0.1570
39919W        W82832  17.640  14.169  25.894 -0.2491 -0.2830  0.4325
39920W        W82833  17.485   5.053  25.874 -0.1428  0.1953 -0.0543
39921W        W82834  19.647   9.872  14.413  0.2912 -0.1949  0.2102
39922W        W82835  10.893   9.076  21.078  0.5026  0.0448  0.0416
39923W        W82836   9.664  12.396  18.111  0.0334  0.0835 -0.1927
39924W        W82837   4.112   9.100   1.784 -0.1012  0.0116 -0.1357
39925W        W82838  29.978   6.041  25.050 -0.1198  0.1153  0.2748
39926W        W82839  12.704   7.132  19.763 -0.1065  0.2239 -0.2376
39927W        W82840  10.064  14.330   1.123 -0.2185 -0.2388  0.0706
39928W        W82841   3.218   5.130  26.946 -0.3747  0.2021 -0.2185
39929W        W82842  19.855   7.369  15.555  0.1340  0.0972  0.1704
39930W        W82843  15.275   5.567  19.591  0.2385 -0.0604 -0.1153
39931W        W82844  14.034  19.711  17.109  0.1603  0.1594  0.1120
39932W        W82845  15.552   4.209  15.407 -0.0919 -0.0415  0.3928
39933W        W82846  11.334   8.301  27.442  0.2311 -0.0981  0.1920
39934W        W82847   7.940  32.538  23.003 -0.0353  0.0552  0.0099
39935W        W82848   6.880  12.787  28.794  0.2319 -0.2552 -0.0772
39936W        W82849  17.507   6.501  22.363  0.0857 -0.1511 -0.0158
39937W        W82850   9.811  30.367  28.908  0.0976  0.0035 -0.0258
39938W        W82851  14.333  14.120  20.061 -0.0843 -0.2483 -0.1833
39939W        W82852   2.816   7.870  23.591 -0.0390  0.1962  0.0122
39940W        W82853  10.023   9.377  20.848  0.0920 -0.0546  0.0307
39941W        W82854   9.740  24.811  19.651  0.3405  0.2424 -0.0065
39942W        W82855   9.326  32.414   3.726  0.0829 -0.1727  0.1359
39943W        W82856  15.807  21.981  21.492 -0.1416  0.0096 -0.1471
39944W        W82857  17.541  25.780  23.561 -0.1337  0.0690 -0.0100
39945W        W82858   9.533   6.759   2.016 -0.0356  0.0520 -0.1835
39946W        W82859  11.460  12.268  26.011 -0.2408 -0.4284  0.0640
39947W        W82860   2.621   3.228  16.663  0.0157 -0.1478  0.3185
39948W        W82861   9.163  19.697   0.890 -0.2490 -0.2649 -0.2834
39949W        W82862  17.780   0.043  29.291 -0.2004 -0.0466 -0.2715
39950W        W82863   6.545  14.839  29.778  0.0171 -0.3190  0.0054
39951W        W82864  14.221  13.503  14.591  0.1657  0.3792 -0.0346
39952W        W82865  27.943  11.331  21.948  0.1059 -0.1948 -0.2041
39953W        W82866  13.108  13.881  27.537  0.2233  0.1798 -0.1599
39954W        W82867  31.903  12.348  17.059  0.0059 -0.3363  0.1003
39955W        W82868  12.261   6.647  19.496 -0.2727 -0.2083 -0.0974
39956W        W82869  15.553  10.812  25.378 -0.1910  0.1004 -0.1991
39957W        W82870  11.535  15.865  25.347 -0.1307  0.1945  0.1211
39958W        W82871  15.157  15.125  13.601  0.1495 -0.1809 -0.1550
39959W        W82872   8.482   5.481  28.858 -0.1615 -0.0319 -0.1440
39960W        W82873  20.288  20.141  14.743 -0.0737  0.1127  0.0619
39961W        W82874  11.859  12.568  29.042 -0.1668  0.0947  0.0137
39962W        W82875   3.622  11.003   4.603  0.0934 -0.2969 -0.0387
39963W        W82876  34.001  32.143   7.377  0.0632  0.1145 -0.1961
39964W        W82877   6.015   9.379  21.828  0.0589  0.3522  0.2773
39965W        W82878  15.442  16.816  23.226 -0.1050  0.1678  0.1676
39966W        W82879   4.552   6.019   2.277 -0.1749  0.0063  0.0542
39967W        W82880  12.846   7.865   0.950  0.4237 -0.2294  0.0539
39968W        W82881   9.407  31.866   1.912  0.1077  0.1155 -0.2054
39969W        W82882  16.739  11.833  16.678  0.1924 -0.3018 -0.0279
39970W        W82883  14.183   6.027  27.277 -0.0885 -0.2432 -0.1322
39971W        W82884  17.382   0.481  24.730  0.0336  0.2443 -0.1606
39972W        W82885  13.914   4.503  22.485 -0.0427  0.2142  0.2894
39973W        W82886   6.824   9.157  18.199  0.0263  0.0240  0.0839
39974W        W82887   9.303   0.818  17.650  0.0733  0.1016  0.0644
39975W        W82888  21.355   8.433  29.408  0.0518  0.3556  0.1726
39976W        W82889  25.058   5.163  23.840  0.0475  0.1514  0.1590
39977W        W82890  20.387   0.635  24.482 -0.1480  0.4035 -0.1751
39978W        W82891  10.544   6.850   0.528  0.2898  0.0229 -0.1720
39979W        W82892   4.910   8.282  21.118 -0.5205  0.0249  0.1523
39980W        W82893   8.411   4.877  20.829 -0.2692 -0.3294 -0.3278
39981W        W82894  34.271   1.200  17.719  0.1094 -0.2755 -0.0354
39982W        W82895   3.357   5.839   5.183  0.0278 -0.1594  0.0233
39983W        W82896  22.376  17.366  15.427  0.0531 -0.2493 -0.1589
39984W        W82897   9.891  17.236  21.152 -0.1079 -0.0476 -0.1157
39985W        W82898  14.758  21.976  16.436 -0.0090  0.3025 -0.1026
39986W        W82899  12.045  15.228  24.194  0.1245  0.1444  0.3680
39987W        W82900  18.411   7.231  25.303 -0.3631  0.4252 -0.0372
39988W        W82901   4.736  15.121  26.843 -0.1997  0.0536 -0.0684
39989W        W82902  15.569  13.757  20.035 -0.0051 -0.1009 -0.0218
39990W        W82903   7.190   1.184  22.414 -0.2802 -0.1633 -0.1844
39991W        W82904   6.256   1.737  17.945  0.1452  0.1996 -0.0310
39992W        W82905   4.992  13.278  22.624  0.1832 -0.2077 -0.0020
39993W        W82906  20.060   4.613  14.812  0.3810  0.0520  0.3441
39994W        W82907   2.657   8.926   6.356  0.1414  0.1490  0.0519
39995W        W82908   4.265   3.929  21.770  0.1070  0.1851 -0.0208
39996W        W82909  10.262  16.287   4.498 -0.1106 -0.0821 -0.2377
39997W        W82910  16.955   3.977   1.266 -0.0917 -0.1255  0.2431
39998W        W82911   1.952  31.538  21.124 -0.3446  0.0935  0.0045
39999W        W82912  17.740  17.830  18.362  0.2460  0.2525  0.0075
40000W        W82913   2.732   9.222  19.749 -0.1273 -0.1817 -0.1199
40001W        W82914  16.494   2.835  26.157 -0.0386  0.2730 -0.0525
40002W        W82915  17.829   0.141  23.926  0.0593  0.2948  0.2482
40003W        W82916  14.231  14.524   0.186 -0.0573  0.0573  0.0748
40004W        W82917  17.478  26.338  26.453  0.1559  0.0368 -0.0254
40005W        W82918   4.025   3.122   1.160  0.5085  0.0130 -0.0416
40006W        W82919   5.205  30.353  24.390 -0.0621  0.1784  0.0341
40007W        W82920   5.420   5.296  22.987 -0.1509 -0.0675  0.0051
40008W        W82921  10.543  33.124  17.239 -0.0489 -0.0001 -0.1317
40009W        W82922   4.416  17.806  17.437 -0.1079  0.5993  0.1960
40010W        W82923  11.679   9.735  20.346 -0.2618  0.1451  0.3030
40011W        W82924  13.736  21.523  14.693  0.1253 -0.1899  0.0609
40012W        W82925  11.310   7.990  18.360 -0.1261 -0.2571  0.0706
40013W        W82926   7.580   9.369  27.729  0.2393  0.2378 -0.3625
40014W        W82927   5.805  11.724  20.115 -0.0867 -0.0606  0.2601
40015W        W82928  13.924   4.414   5.657  0.1156  0.2331 -0.1500
40016W        W82929   5.655   3.765  28.273 -0.0737 -0.1021 -0.0506
40017W        W82930   7.051   4.720  23.533 -0.1882 -0.0241 -0.0949
40018W        W82931   8.608   9.048   3.644  0.1338  0.2690 -0.1997
40019W        W82932  11.015   5.078  23.858  0.2127 -0.1218 -0.0423
40020W        W82933  10.860   9.366  22.811 -0.1286  0.2884  0.0695
40021W        W82934  15.935   6.880  17.934 -0.0999 -0.0263 -0.1508
40022W        W82935   5.570   7.325  21.885 -0.1480 -0.3096 -0.1186
40023W        W82936  11.212   6.346   1.748 -0.0773 -0.1457  0.2055
40024W        W82937   5.357   9.848  23.607 -0.2634 -0.0238 -0.0296
40025W        W82938  14.674   3.872  17.944 -0.2292 -0.1216  0.2437
40026W        W82939  11.841   7.685  23.708 -0.3550 -0.4411 -0.2228
40027W        W82940  14.121   4.349  16.794  0.3590  0.3900  0.0308
40028W        W82941  17.526   7.922   8.563  0.0629 -0.0583  0.0238
40029W        W82942   8.250   7.391  19.928 -0.2221 -0.1627 -0.1039
40030W        W82943  16.737  12.029  12.972  0.0125 -0.0153 -0.1612
40031W        W82944  12.268   8.311  11.248 -0.0882  0.1718  0.0771
40032W        W82945  33.372   8.373   3.560  0.0886  0.3020 -0.1779
40033W        W82946  10.845   5.349  25.740  0.0126  0.0510  0.1772
40034W        W82947  12.625   5.332  19.153 -0.1961 -0.0370 -0.1478
40035W        W82948   8.163  14.708  18.710 -0.0772 -0.4941  0.1388
40036W        W82949   3.985  14.097   7.510 -0.0605 -0.2915 -0.0577
40037W        W82950   3.637  33.952  19.630  0.4274 -0.0042 -0.0625
40038W        W82951   2.646   5.130  28.663  0.0333  0.1120 -0.0157
40039W        W82952  13.098   7.710  19.697 -0.0959 -0.0749  0.0282
40040W        W82953  11.454   8.802  25.762 -0.1129  0.1029  0.1235
40041W        W82954   8.305   7.419  27.858  0.0821  0.0717 -0.0122
40042W        W82955  12.773   6.311  18.858 -0.1335  0.3766 -0.1526
40043W        W82956   7.532   5.089  24.516 -0.3528 -0.0106  0.1540
40044W        W82957  21.416   5.408  21.097 -0.1047 -0.2448  0.0029
40045W        W82958  15.019   9.030  23.545  0.3138  0.1074 -0.1766
40046W        W82959  22.393   3.977  17.947  0.3641 -0.5378 -0.1443
40047W        W82960   7.063  18.136   6.723 -0.3654  0.1759 -0.0344
40048W        W82961  11.776   5.545  29.548  0.0114 -0.1044 -0.2909
40049W        W82962  14.154   4.088  28.282 -0.1550  0.2073  0.1705
40050W        W82963  11.234   2.328  23.734  0.1014  0.1024  0.5700
40051W        W82964  12.288  18.253  28.605  0.1580  0.2670  0.1067
40052W        W82965   2.691   4.288  19.122  0.0819  0.0670 -0.2186
40053W        W82966  14.117  18.414  26.980  0.0394  0.0520  0.0671
40054W        W82967  14.398   5.056  25.824  0.0502  0.0229  0.4105
40055W        W82968  14.347  11.884  15.477  0.2318  0.0421 -0.0848
40056W        W82969   5.858   2.336  20.931  0.0366 -0.3036 -0.1031
40057W        W82970  14.140  10.367  28.304  0.0371 -0.0129 -0.0866
40058W        W82971  30.336   7.543  19.003  0.0395  0.0817 -0.0130
40059W        W82972  33.148   7.963  26.152  0.1433  0.4494 -0.0361
40060W        W82973  28.084  14.973  22.813  0.0529 -0.0620 -0.1073
40061W        W82974  20.355  12.368  12.191  0.1468  0.1390 -0.0019
40062W        W82975  15.843  12.933  22.603  0.0492  0.2938  0.0288
40063W        W82976   8.223  10.254   3.403  0.0571 -0.1388  0.0388
40064W        W82977   2.005  14.468   1.417  0.0434  0.0072 -0.1801
40065W        W82978   9.140   1.180  19.072 -0.3678  0.4371 -0.2069
40066W        W82979   9.563  34.214  18.241 -0.0315 -0.0424  0.1806
40067W        W82980   1.976   0.944  21.415  0.3497  0.2536 -0.0076
40068W        W82981  14.800   1.047  24.664  0.3423 -0.0492 -0.1007
40069W        W82982  13.393   8.981  19.273 -0.0573  0.3409 -0.0184
40070W        W82983  11.845   6.831  20.507  0.0405  0.4228  0.1298
40071W        W82984   6.788   8.480  26.926 -0.0981  0.2214  0.0052
40072W        W82985   9.843   3.050   0.230 -0.0168 -0.1614 -0.3154
40073W        W82986  18.229  16.903  25.246  0.1437 -0.1476  0.1739
40074W        W82987   6.953  33.340  17.793 -0.2805 -0.3558  0.1739
40075W        W82988   7.144  11.022  18.914  0.0649  0.2406 -0.2224
40076W        W82989  14.147  13.762  17.314  0.0178  0.2390 -0.0090
40077W        W82990   3.620   3.747   4.356 -0.2839 -0.0712  0.0295
40078W        W82991   4.090  13.820  25.484  0.2003 -0.4892  0.0332
40079W        W82992  30.347  33.656   0.057  0.1455 -0.1549  0.0337
40080W        W82993  13.812   7.120  28.697 -0.1502 -0.0184 -0.0463
40081W        W82994   3.778   1.600  26.420 -0.3289 -0.1043 -0.1412
40082W        W82995   9.292  15.297  29.145 -0.2001  0.0161  0.1118
40083W        W82996  15.347  10.262  24.630  0.1642 -0.1802 -0.0439
40084W        W82997  19.567   8.813  25.868 -0.2220 -0.0901  0.1518
40085W        W82998   5.596  34.320   0.565  0.0746 -0.0854  0.1627
40086W        W82999   4.874   0.400   2.971 -0.3907 -0.2199 -0.0247
40087W        W83000   9.760  14.151  17.459 -0.3178 -0.0132  0.0324
40088W        W83001   0.488  15.688  27.691 -0.2272  0.0032 -0.2512
40089W        W83002  33.977  33.794  18.948 -0.3329  0.3926 -0.0186
40090W        W83003   5.475  17.275  23.136  0.1217 -0.0765  0.1395
40091W        W83004  18.535   5.351   1.914 -0.1973 -0.3764  0.1006
40092W        W83005   1.266   2.725  21.831  0.0232  0.0646  0.0040
40093W        W83006  14.253  12.308  21.050  0.1193  0.0316  0.1810
40094W        W83007   7.904  11.771   0.640  0.1565 -0.3415  0.0174
40095W        W83008  14.688  14.668  22.935  0.0779  0.1399 -0.1275
40096W        W83009  10.679  14.403  20.640  0.0770  0.2178 -0.1142
40097W        W83010   2.058   6.776  21.618  0.0920  0.1473  0.3533
40098W        W83011  12.179  14.351  19.306  0.0060 -0.5361 -0.2225
40099W        W83012  10.085   7.476  22.597  0.2497  0.1852 -0.1482
40100W        W83013   4.969   5.976  20.187  0.1771 -0.0992  0.1614
40101W        W83014   9.887   4.675  20.827 -0.0459  0.1189 -0.0285
40102W        W83015   9.598   5.777  25.311  0.1298 -0.2322  0.1835
40103W        W83016   7.398  14.742   0.734 -0.0643 -0.0878  0.1240
40104W        W83017   5.094  10.707  23.821 -0.1007  0.0081 -0.0760
40105W        W83018  21.178   7.931  27.967 -0.3188 -0.3822 -0.1511
40106W        W83019  10.559  11.966  19.105  0.1139  0.2702  0.0416
40107W        W83020   8.036   9.666  18.114  0.1379  0.0313  0.0135
40108W        W83021  14.145   9.705  26.803  0.0025  0.1259 -0.0319
40109W        W83022   1.811   4.363  24.734  0.1717 -0.3933 -0.0600
40110W        W83023  13.731   2.791  22.731  0.1749 -0.3926 -0.2020
40111W        W83024  13.159  32.449  27.248  0.1776 -0.0509 -0.1683
40112W        W83025  12.475  10.106   5.194  0.2911 -0.0610 -0.0825
40113W        W83026  12.595   4.496  21.645 -0.2587  0.1122 -0.0066
40114W        W83027  10.737   0.541  20.107  0.1535  0.1023  0.1531
40115W        W83028  12.327   8.244  22.509 -0.2396 -0.0415  0.2154
40116W        W83029   5.000  13.341  29.640 -0.0698  0.1782  0.1348
40117W        W83030  13.020   8.275  17.303 -0.0548 -0.1364 -0.1163
40118W        W83031  11.705  15.827  21.397  0.4935 -0.1676 -0.0365
40119W        W83032   7.712  32.638  27.426  0.1003 -0.1545  0.5374
40120W        W83033  10.162  21.792  17.418  0.0050  0.1364 -0.0729
40121W        W83034   8.444  20.095  17.197  0.0335  0.0130  0.1351
40122W        W83035   6.199  15.826  24.196  0.3491 -0.0504  0.2564
40123W        W83036  17.796   6.259  18.100 -0.1080  0.0299  0.2157
40124W        W83037  18.879   1.831  20.684  0.0234  0.1549  0.1208
40125W        W83038   5.124  33.661  28.598  0.2013  0.0687  0.0371
40126W        W83039   8.732  11.223  28.690 -0.0572  0.1991  0.0216
40127W        W83040  12.142  13.294  21.298 -0.0058 -0.2028 -0.0947
40128W        W83041  30.895   8.396  17.042  0.0309  0.0360  0.0903
40129W        W83042  11.702  20.785   7.188 -0.0176  0.1635 -0.3078
40130W        W83043   8.192  10.698  25.236 -0.1625  0.1840 -0.0788
40131W        W83044  21.615   5.822  21.337 -0.2276 -0.0291 -0.3406
40132W        W83045  12.572  10.770  29.442  0.0547  0.0992 -0.0687
40133W        W83046   8.505  17.067  13.883  0.2513  0.1479  0.0753
40134W        W83047  12.103   6.578  16.609  0.2932  0.1056  0.1822
40135W        W83048  16.350   6.609  28.533 -0.3034 -0.1029  0.0493
40136W        W83049  11.190  13.905  22.813  0.1232  0.1060  0.0022
40137W        W83050   2.535   0.772  20.115 -0.2095  0.3040 -0.0016
40138W        W83051  32.974   5.945  22.614  0.0510 -0.2316 -0.3319
40139W        W83052  14.645  10.419  27.926 -0.0912  0.0956 -0.1354
40140W        W83053  17.771  10.183  25.848 -0.2923  0.4668 -0.0227
40141W        W83054  34.162   5.629   2.385 -0.0678  0.1052 -0.4790
40142W        W83055  13.108  16.923  20.144 -0.0565  0.1521 -0.0025
40143W        W83056   9.171  14.056  27.010 -0.0701  0.2591  0.2668
40144W        W83057   4.067  10.487  16.203  0.0242 -0.0509  0.0273
40145W        W83058   9.460   6.233  20.949  0.3852 -0.1191  0.1320
40146W        W83059   8.865  29.193  24.228  0.1191 -0.0305  0.2635
40147W        W83060   8.055   9.778  22.798 -0.3419 -0.1358 -0.0963
40148W        W83061  16.988   2.700  24.800  0.0339 -0.0353 -0.0730
40149W        W83062  13.860  24.644  25.524  0.2328  0.0839 -0.1759
40150W        W83063   0.584   3.552  28.793  0.0670  0.2517 -0.0841
40151W        W83064  13.766   3.389  22.166 -0.2327  0.2797 -0.3340
40152W        W83065  14.282   3.194   7.056  0.2204  0.0504  0.4102
40153W        W83066  10.986   6.430  29.127 -0.4508  0.0618 -0.1107
40154W        W83067   8.781  32.383   3.305  0.0762  0.0882 -0.3314
40155W        W83068  10.305  12.113   3.574  0.2414 -0.0008  0.1020
40156W        W83069  10.929   7.365  28.094 -0.0321  0.1378 -0.0886
40157W        W83070   4.845  16.602  19.322 -0.0542  0.1919  0.1678
40158W        W83071   6.869   8.819  25.089 -0.0042 -0.0667 -0.0033
40159W        W83072  13.909   6.808  16.651 -0.0412 -0.0734 -0.0231
40160W        W83073  16.714  12.837  23.163  0.1077  0.1019 -0.2296
40161W        W83074  12.472   8.589  25.782  0.0642  0.0357  0.2199
40162W        W83075   5.200  10.923  16.052  0.0010 -0.0180 -0.0390
40163W        W83076  23.880  11.082  20.333  0.2020  0.0357 -0.0477
40164W        W83077  15.703  20.816  15.424  0.1984 -0.2125  0.1515
40165W        W83078  23.970   3.461  21.589 -0.1043 -0.0956  0.1319
40166W        W83079   3.633   9.042  21.088 -0.2130 -0.1697 -0.2503
40167W        W83080  13.042  10.144  23.993  0.0093 -0.2661 -0.1089
40168W        W83081  24.156   3.284  25.843 -0.0353 -0.1872  0.0074
40169W        W83082   2.263  10.275   1.600  0.1511  0.2277  0.3841
40170W        W83083   6.354   0.223  23.618  0.2037  0.1734  0.4365
40171W        W83084   3.193   9.618  25.659  0.0675 -0.1740 -0.0243
40172W        W83085   4.960  12.139  20.026  0.0740 -0.0865 -0.0346
40173W        W83086  16.789  12.764  12.561 -0.0977 -0.2609 -0.0888
40174W        W83087   0.570  33.971  24.198  0.0949  0.0337 -0.0954
40175W        W83088  14.004   6.611  26.137  0.1528 -0.4336 -0.1526
40176W        W83089  24.353  16.802  29.497 -0.2535 -0.2681  0.2639
40177W        W83090  10.648  33.857  24.899 -0.2148 -0.1545  0.0767
40178W        W83091   9.694   8.083  23.354 -0.0717  0.1274 -0.5618
40179W        W83092   9.282   2.387  26.672 -0.0653  0.1507 -0.2303
40180W        W83093   0.092   8.193  23.455 -0.0475 -0.3596  0.0349
40181W        W83094  32.476   5.089  18.090 -0.3677 -0.1216  0.0004
40182W        W83095  20.864  12.900  23.239  0.0318 -0.0667 -0.0102
40183W        W83096  10.099   5.206  23.456 -0.0228 -0.3274 -0.1191
40184W        W83097  14.601   4.705  25.566 -0.1973  0.2981  0.1052
40185W        W83098  17.024  14.950  26.123  0.0445 -0.0586 -0.1827
40186W        W83099  12.202   4.415  21.948 -0.0330 -0.0682  0.1325
40187W        W83100  10.750  31.783   1.776 -0.0002 -0.2488 -0.2686
40188W        W83101  17.855   7.753   0.385  0.3414  0.1228  0.0706
40189W        W83102  14.400  14.125  23.768  0.0326  0.2476 -0.0206
40190W        W83103  15.340  10.079  16.302 -0.1245  0.1494 -0.1419
40191W        W83104   5.932   6.778  19.445 -0.0484 -0.0040  0.0686
40192W        W83105   4.000  29.328   2.650  0.0695  0.1535 -0.2456
40193W        W83106  10.172  23.288  19.607 -0.0454  0.1471  0.1824
40194W        W83107  21.272   2.929  23.466  0.0984  0.2910  0.0922
40195W        W83108  14.218   9.893  21.979 -0.1668  0.0460 -0.1190
40196W        W83109  22.732  10.268  16.136 -0.0085 -0.0429 -0.1727
40197W        W83110  15.904   2.502  26.185 -0.1647 -0.1667  0.0584
40198W        W83111  18.381  13.260  26.909 -0.2672  0.0240 -0.1276
40199W        W83112   5.791  15.169  24.012 -0.4671  0.2703  0.2885
40200W        W83113   7.561  20.526  26.389  0.0858  0.1168  0.1192
40201W        W83114   5.165   7.998  18.272 -0.1290 -0.0893 -0.0495
40202W        W83115   8.705   7.362  23.635  0.0783  0.0374 -0.0577
40203W        W83116  17.306   8.706   6.886  0.0105  0.1059 -0.0382
40204W        W83117  12.477   8.390  19.948  0.0218 -0.1781 -0.2545
40205W        W83118   9.176   4.576  20.160  0.7047 -0.0396  0.2131
40206W        W83119  16.013   1.894  24.698 -0.1134 -0.1581 -0.1157
40207W        W83120   4.097   5.305   9.869  0.1906  0.1728  0.0652
40208W        W83121  29.614   8.640  16.813 -0.0338  0.1072  0.2266
40209W        W83122  10.516  11.257  29.519  0.0060  0.0524  0.2190
40210W        W83123   2.785  14.505  28.557 -0.0846 -0.0659 -0.0353
40211W        W83124   8.003   9.936   5.949 -0.0071  0.2613 -0.0675
40212W        W83125  11.425   7.604  28.266  0.1720  0.1124  0.1801
40213W        W83126  13.667  14.315  25.989  0.0849  0.2632 -0.1164
40214W        W83127  10.255  11.383   0.250  0.0360 -0.3146 -0.1117
40215W        W83128  13.551  19.347  19.331  0.2626 -0.2451 -0.1805
40216W        W83129   7.453   5.135  27.679 -0.2400 -0.4082 -0.0643
40217W        W83130   7.854  12.554  22.955 -0.2035  0.1511 -0.2296
40218W        W83131  14.208  28.507  27.328 -0.0469  0.0493 -0.1361
40219W        W83132   2.786   2.156  28.228  0.0264 -0.0964  0.0480
40220W        W83133   9.185   5.414  24.172 -0.1860  0.1798  0.2207
40221W        W83134   8.307  19.507   1.185  0.0380 -0.0629 -0.2626
40222W        W83135   4.864  23.232  19.032 -0.2803  0.1319  0.3105
40223W        W83136   8.852  16.533  20.697  0.1119  0.2028  0.1776
40224W        W83137   5.262   3.895  19.285 -0.0044  0.1026  0.0580
40225W        W83138  22.315  11.367  15.323 -0.0210  0.1614 -0.1603
40226W        W83139  10.017   1.930  20.149  0.2123 -0.1941 -0.0571
40227W        W83140   0.651  18.351  28.767  0.0594  0.1317 -0.0090
40228W        W83141   4.468   5.191  23.022  0.1666  0.2937  0.2460
40229W        W83142  28.850   1.025  24.267 -0.1261  0.1080 -0.3041
40230W        W83143   9.945   8.071  22.678 -0.0381 -0.0307 -0.0286
40231W        W83144  30.127  17.691   0.341 -0.4410  0.2006 -0.0173
40232W        W83145  10.757  33.967  26.346 -0.1168 -0.0209 -0.0511
40233W        W83146  34.310   3.514  16.511  0.0068  0.0074 -0.3978
40234W        W83147   7.596  10.237   7.515  0.2670  0.2423  0.0016
40235W        W83148  13.323  33.825  22.617 -0.1560  0.0885 -0.2156
40236W        W83149  11.728   5.677  22.997  0.1003 -0.1863 -0.1795
40237W        W83150  17.831   7.366  22.626 -0.3374  0.1912 -0.1382
40238W        W83151   3.990   0.731  22.623 -0.0807 -0.1075  0.2713
40239W        W83152  17.852   0.262  16.144 -0.0652 -0.1819  0.0582
40240W        W83153  23.508   3.685  21.822 -0.0057 -0.1856  0.0206
40241W        W83154  13.137   9.140  16.866  0.1675 -0.2361 -0.0214
40242W        W83155  13.209   6.510  22.115 -0.3154  0.1950 -0.0188
40243W        W83156   9.706   3.433  10.801 -0.4135  0.3555 -0.2315
40244W        W83157  24.143   5.357  16.886 -0.0800  0.0849  0.0868
40245W        W83158  12.059   4.727  21.456 -0.1838  0.1775  0.0305
40246W        W83159   6.106   2.931  25.826 -0.1453 -0.3067  0.0390
40247W        W83160  15.202   8.119  16.570 -0.0326  0.2205  0.0464
40248W        W83161   1.661   2.828  20.545 -0.0044  0.2453 -0.1623
40249W        W83162  16.366  11.772  26.752 -0.1836 -0.2200 -0.0004
40250W        W83163  25.368  17.586  26.061 -0.0595 -0.0069 -0.0843
40251W        W83164   7.240  12.896  28.307  0.0393  0.0970 -0.0416
40252W        W83165   0.872   6.433  23.695 -0.3142  0.1268 -0.0159
40253W        W83166  21.030   7.563  17.464 -0.1997  0.1640 -0.2018
40254W        W83167  20.099  27.052  27.901 -0.0301  0.1370 -0.1211
40255W        W83168   1.130   5.254   1.325  0.0771 -0.4428  0.4394
40256W        W83169   5.544  13.976   0.048  0.0151  0.0320 -0.0303
40257W        W83170  15.657  12.328  27.972  0.2915  0.0529  0.3697
40258W        W83171   2.739  14.738  14.625  0.1085 -0.1936  0.0178
40259W        W83172  12.344  10.799  13.922 -0.1257  0.0387 -0.3107
40260W        W83173   5.178   6.587  25.812  0.1931 -0.1808 -0.4387
40261W        W83174   8.283   9.325  20.376 -0.1165 -0.2902 -0.0837
40262W        W83175   1.647   5.586   2.681 -0.1134  0.1979  0.1533
40263W        W83176  12.648  10.299  15.093 -0.1821  0.2537 -0.5340
40264W        W83177  13.427   9.992  25.426 -0.2361 -0.1020  0.2008
40265W        W83178   9.965  14.569  17.608 -0.0549  0.0393 -0.5506
40266W        W83179  12.703  15.460  17.518  0.3737  0.1481 -0.0048
40267W        W83180  22.628  12.595  19.556  0.0455  0.2585 -0.0360
40268W        W83181  15.641  14.202  26.943  0.0353  0.0244 -0.1317
40269W        W83182  11.936   5.194  29.222  0.0821  0.1876 -0.0327
40270W        W83183  10.218   7.928   3.258  0.4299  0.1265 -0.0468
40271W        W83184  33.996  13.391   2.193  0.1846  0.2835 -0.1662
40272W        W83185  18.842   3.007  23.261  0.0725  0.2129  0.0674
40273W        W83186   8.160   8.836  22.863  0.2773  0.2243 -0.1283
40274W        W83187   7.181   2.981  20.943  0.2289 -0.0724  0.2131
40275W        W83188   0.994   5.813   2.292 -0.0963 -0.1790 -0.0548
40276W        W83189   1.763  16.069  21.805 -0.2341 -0.1299 -0.0478
40277W        W83190  16.643   7.327  23.239  0.2899 -0.2021  0.0968
40278W        W83191  17.015   9.266  25.613  0.1734 -0.1417 -0.0033
40279W        W83192   9.492  10.756  26.275 -0.2832  0.1536 -0.0207
40280W        W83193  16.466   6.494   0.503 -0.3370  0.1704  0.1137
40281W        W83194  10.853  11.467  16.218 -0.0407  0.4938  0.1711
40282W        W83195   8.470  33.120   4.321 -0.1730  0.0953 -0.1142
40283W        W83196  17.684   6.844  25.010 -0.1502  0.0510  0.0296
40284W        W83197   4.818  32.500  23.829 -0.1411  0.1899 -0.0227
40285W        W83198  22.681   4.247  18.810 -0.0524 -0.0085  0.1767
40286W        W83199  14.161  12.919  14.892  0.1142 -0.1947  0.1863
40287W        W83200  19.980  10.058  17.565 -0.3570 -0.0942  0.3263
40288W        W83201  14.671  23.299  29.613 -0.0691  0.2639 -0.0518
40289W        W83202  28.755   7.581   0.962 -0.1796 -0.1190  0.0684
40290W        W83203   7.687  17.358  15.472  0.0145 -0.0752 -0.2206
40291W        W83204  15.614  15.765  27.081 -0.1280  0.0998  0.3247
40292W        W83205  12.114  13.105  24.011 -0.2717 -0.2145  0.1472
40293W        W83206   0.434  14.161  19.350  0.0149  0.0854  0.3376
40294W        W83207   6.803  22.780  18.610  0.0259  0.0048 -0.0331
40295W        W83208   5.453   3.656  29.104 -0.1243 -0.3365 -0.1355
40296W        W83209   1.546   3.490  21.557  0.0598 -0.1887 -0.1994
40297W        W83210  10.435   5.697  21.479  0.1789  0.1354 -0.1030
40298W        W83211  10.141  26.576   3.963  0.2580 -0.0123  0.1874
40299W        W83212   0.157  11.018  25.456 -0.3436 -0.1844  0.0777
40300W        W83213   4.688  34.269   2.471 -0.1266 -0.2500 -0.1287
40301W        W83214  21.648  15.014   4.204 -0.2225 -0.0844  0.0855
40302W        W83215  12.291  34.401   5.075 -0.0109  0.0009 -0.0281
40303W        W83216  12.597  18.577  20.701  0.0729  0.1260 -0.2189
40304W        W83217  21.464  27.970   2.336 -0.0075  0.0052 -0.0867
40305W        W83218  14.945  10.977   5.934 -0.1479  0.1553 -0.5178
40306W        W83219   5.671   5.912  27.408  0.0996  0.2775 -0.2288
40307W        W83220   5.409  14.353   1.361  0.1222  0.0878  0.0675
40308W        W83221  12.774  34.388   4.166  0.4020  0.4175  0.1941
40309W        W83222   9.527   4.513  26.848  0.3021  0.1321 -0.0769
40310W        W83223  33.530  22.560  28.798  0.0481 -0.1934 -0.2886
40311W        W83224  33.923  21.005   4.166  0.1952  0.1503 -0.3589
40312W        W83225   5.491  10.558  27.615  0.1544  0.0959 -0.1076
40313W        W83226   8.808   8.817  29.510  0.1564  0.1902  0.5215
40314W        W83227   8.830   4.310   6.654  0.1791  0.0460 -0.3013
40315W        W83228  11.529  10.697  19.681  0.2763 -0.3743  0.0078
40316W        W83229   6.486   6.563  19.355  0.0194  0.1454 -0.0143
40317W        W83230  14.063  14.264  21.428  0.1831 -0.1221  0.1501
40318W        W83231   5.684   8.912  19.860 -0.3032  0.1613 -0.0720
40319W        W83232   9.662   2.843   1.534 -0.1897 -0.4546  0.0547
40320W        W83233  16.017  13.926  26.776 -0.1864 -0.0014 -0.0458
40321W        W83234   3.172   0.143   4.367  0.2145 -0.2502 -0.1479
40322W        W83235   5.527  17.528   3.401  0.0810  0.4276 -0.5246
40323W        W83236   8.139  15.261  17.154  0.3230 -0.1304  0.1090
40324W        W83237   7.096  14.972   7.479  0.1866  0.2191  0.0421
40325W        W83238   5.745   8.341   3.127 -0.0107 -0.0195  0.2058
40326W        W83239   6.967   4.034  25.867 -0.2458  0.0376  0.1205
40327W        W83240  13.916  12.809   4.535  0.4076  0.2073 -0.1482
40328W        W83241   5.586  10.545  29.144 -0.2044  0.4729 -0.2775
40329W        W83242   0.217  11.977  21.917  0.1056 -0.1482 -0.3078
40330W        W83243  12.357   0.645   2.293  0.0259 -0.1918  0.2042
40331W        W83244  29.916  19.413   1.518  0.1664  0.2587 -0.1904
40332W        W83245  30.894  10.807   5.431  0.0263 -0.1890 -0.1553
40333W        W83246   6.187   0.629   1.843  0.0213 -0.1132  0.1353
40334W        W83247  12.664   4.772  23.880  0.0399 -0.0558  0.1277
40335W        W83248  31.470  16.421   5.672 -0.0040 -0.0805  0.2935
40336W        W83249   1.502   4.133   0.312 -0.2137  0.0888  0.0025
40337W        W83250  11.744   6.824  24.665  0.0616 -0.0765 -0.0497
40338W        W83251   7.735  10.391  25.358 -0.1579 -0.2180  0.1167
40339W        W83252  15.407  15.259   7.163 -0.0101  0.4840 -0.1583
40340W        W83253  11.782   6.704  22.403  0.2232  0.1260  0.0709
40341W        W83254   9.281  16.312   2.867  0.2805  0.2760  0.0461
40342W        W83255   8.679  16.824   4.784  0.0154  0.1240  0.0222
40343W        W83256   4.164   8.659   4.721 -0.1935 -0.1920 -0.0816
40344W        W83257  34.279  10.956  24.046  0.0838 -0.3871  0.0639
40345W        W83258   9.061  26.519   0.217 -0.1900  0.4154 -0.1289
40346W        W83259  17.021   6.479   0.797  0.2094 -0.2381  0.1710
40347W        W83260  27.987  33.274  20.032  0.2297  0.0578 -0.1922
40348W        W83261  13.832  17.584  12.763  0.0597  0.1383 -0.0396
40349W        W83262   5.892  10.747  26.000 -0.2090 -0.2386 -0.2322
40350W        W83263  34.330   0.855   4.597  0.0522  0.2052 -0.0711
40351W        W83264   5.076   1.826   7.992  0.1776  0.0214  0.0481
40352W        W83265   2.783   1.821   1.694 -0.0930 -0.1772 -0.1516
40353W        W83266  17.693  20.334   5.028 -0.1268  0.1043  0.0086
40354W        W83267  11.278   4.215  26.833  0.2922  0.1757  0.0311
40355W        W83268  11.068  32.396  21.232 -0.1716 -0.0610 -0.3403
40356W        W83269   0.268  14.485  26.208  0.1197  0.2003  0.1445
40357W        W83270  32.101  30.423  21.503 -0.2882 -0.0449  0.0121
40358W        W83271   9.253   7.041   3.448  0.2518 -0.4138 -0.2163
40359W        W83272   5.432  18.534  27.401 -0.0165  0.0361  0.1102
40360W        W83273  10.655  34.484  26.500  0.0491 -0.0600 -0.0555
40361W        W83274  11.062  32.586  23.326 -0.0675 -0.1919  0.0314
40362W        W83275  28.125   2.573  27.789 -0.1666  0.3532 -0.0266
40363W        W83276   4.502  11.403   2.264 -0.0114  0.1523 -0.2996
40364W        W83277   6.857  18.052  21.895 -0.0192  0.1692 -0.1015
40365W        W83278  15.605  12.367   5.691  0.0588  0.0189  0.2838
40366W        W83279  30.549  14.754   0.323 -0.2102  0.0476 -0.0398
40367W        W83280  12.918   1.868  21.358  0.1766  0.0409  0.1168
40368W        W83281  13.201  29.065  17.072  0.0157 -0.1525 -0.0949
40369W        W83282  28.808  12.497   4.211  0.2819 -0.1464 -0.1292
40370W        W83283  14.700  11.559   0.902 -0.0863 -0.1025  0.1379
40371W        W83284   7.153   4.444   3.170  0.1005 -0.3330 -0.3269
40372W        W83285  33.661  11.749  27.053  0.0223 -0.0794 -0.2238
40373W        W83286  17.779   6.698  26.627  0.2243 -0.1886 -0.0397
40374W        W83287   2.565   5.052  27.206  0.1484 -0.2275  0.0391
40375W        W83288  10.341  12.649   0.447  0.0382 -0.0567 -0.0622
40376W        W83289  11.249   8.565  22.921  0.3440 -0.4303  0.2279
40377W        W83290  17.598  11.757   7.570 -0.2849  0.3200 -0.0745
40378W        W83291   7.313  11.457  28.692 -0.1556 -0.0157 -0.1293
40379W        W83292  13.638  16.532  21.202 -0.1286  0.0839  0.6313
40380W        W83293  34.439   2.187  22.465  0.1109 -0.0378  0.0441
40381W        W83294  27.907  16.684  25.438 -0.0310  0.0145 -0.3739
40382W        W83295   0.733   8.100  28.139 -0.1174  0.1600  0.0260
40383W        W83296  21.174   6.343   5.871 -0.2182 -0.0259  0.0117
40384W        W83297   7.326  24.391  16.923  0.2943 -0.0784  0.2121
40385W        W83298  14.020  14.515  19.894 -0.3516 -0.0257 -0.1987
40386W        W83299   2.214  32.062  26.961  0.2304 -0.0915  0.3477
40387W        W83300  11.919  13.698   3.831 -0.1862 -0.0573 -0.0090
40388W        W83301   1.568   4.512  24.218 -0.0834 -0.1303 -0.0507
40389W        W83302  12.340   5.362  24.287  0.0331  0.0200  0.3159
40390W        W83303   7.555  30.951  20.119 -0.1800 -0.0829 -0.1971
40391W        W83304  12.222  14.075  18.345  0.2011 -0.0171 -0.4765
40392W        W83305   0.393   1.988  25.054 -0.1302 -0.2406 -0.2886
40393W        W83306   4.353  10.282  20.696  0.1425  0.3303  0.1677
40394W        W83307   8.937  11.075  29.614  0.0139 -0.2976  0.0770
40395W        W83308   3.737   6.669  17.993 -0.1135  0.0571 -0.5713
40396W        W83309  13.067  16.617   7.994 -0.0285 -0.0303  0.0409
40397W        W83310   6.416   0.091  28.184 -0.0880 -0.2073 -0.1192
40398W        W83311  22.692  12.605  26.674  0.0825 -0.0823  0.0102
40399W        W83312   1.228  13.607   7.833  0.1003 -0.1658  0.2705
40400W        W83313   1.084   8.849  28.406 -0.1540  0.1393  0.1866
40401W        W83314  19.161  14.218  25.209 -0.3142 -0.5236  0.1371
40402W        W83315   8.685   1.150  22.289 -0.4431  0.0121 -0.0522
40403W        W83316  12.041   2.567  18.807  0.1486  0.0505 -0.1640
40404W        W83317   7.495  33.556  21.261 -0.1448 -0.1007 -0.1456
40405W        W83318   6.711  13.828  27.617 -0.1124  0.0181  0.3239
40406W        W83319   8.137  31.491  10.983  0.1747 -0.0295  0.0351
40407W        W83320   2.012  21.211  25.141 -0.0937  0.1727  0.1362
40408W        W83321  32.255   5.283  19.128  0.1745 -0.1550 -0.1381
40409W        W83322  16.876  32.313  29.750  0.2031  0.1577 -0.1983
40410W        W83323  13.138   5.515  19.140  0.0429 -0.0661 -0.1180
40411W        W83324  15.247   5.561  28.735 -0.1329 -0.0180  0.1485
40412W        W83325   4.692  14.324  10.082  0.0387  0.2544  0.2931
40413W        W83326   5.226   4.875  19.433  0.1772 -0.1094  0.3063
40414W        W83327  13.794  14.062  23.520 -0.1260  0.1834  0.0516
40415W        W83328  15.246  13.672  23.863  0.1403  0.0973 -0.0798
40416W        W83329   1.039   3.985  25.255  0.2455  0.0576  0.1296
40417W        W83330  21.021   9.490  26.742  0.0428 -0.0261  0.0904
40418W        W83331   4.716   7.094  24.740  0.0543  0.4006 -0.0252
40419W        W83332  23.482  32.961  21.165 -0.1394 -0.4535 -0.2405
40420W        W83333  10.990  11.178  23.167 -0.1330  0.0833 -0.0021
40421W        W83334  14.124  30.085  26.045 -0.0629 -0.1212 -0.2621
40422W        W83335   3.250   5.139  23.278 -0.1019 -0.0513  0.0696
40423W        W83336  17.663  20.713  27.420 -0.0879  0.3450 -0.1370
40424W        W83337  15.259  11.297  23.631  0.0001  0.1761  0.2217
40425W        W83338  29.001  33.467   8.018 -0.1876 -0.2269 -0.0459
40426W        W83339  12.566   1.926  22.546  0.1378  0.0449  0.0674
40427W        W83340  10.594   6.532  28.281  0.3857 -0.1952 -0.1965
40428W        W83341  13.966  16.238  29.307 -0.0587 -0.0769  0.1480
40429W        W83342  15.569   5.919  21.048 -0.1860  0.0891  0.1797
40430W        W83343   9.428   3.201   9.448 -0.0564 -0.1633 -0.2988
40431W        W83344   5.489  17.794  25.188  0.1232 -0.1236  0.0742
40432W        W83345  13.912  19.872  29.373  0.3405 -0.0994  0.1772
40433W        W83346   6.417  31.617   8.384 -0.4362  0.2571  0.1438
40434W        W83347   6.974  13.951   7.296 -0.4522 -0.1771  0.1280
40435W        W83348  13.809  32.439   1.392  0.1006 -0.1681  0.0217
40436W        W83349   7.493  10.158  29.049 -0.0024  0.2594  0.1583
40437W        W83350  11.408   0.591  11.531 -0.0498 -0.1629  0.1941
40438W        W83351   3.240   1.912   6.643  0.2113 -0.0472  0.1752
40439W        W83352  17.427   7.143  25.339  0.0833  0.0638 -0.0834
40440W        W83353   0.001  32.729   7.817  0.0903 -0.0019 -0.0962
40441W        W83354   1.696   7.651  27.036 -0.0134 -0.3868 -0.0635
40442W        W83355   1.432   2.230  28.188 -0.1418  0.1774 -0.1174
40443W        W83356   4.342   9.965   0.691  0.1345  0.2408  0.0095
40444W        W83357  13.326  11.156  14.735  0.0357  0.3848 -0.3481
40445W        W83358  10.813  10.700   3.264  0.4544 -0.2533 -0.1223
40446W        W83359   9.951  30.565  27.997 -0.0063  0.4352 -0.0313
40447W        W83360  10.940  10.792  28.548 -0.0484  0.1534 -0.0062
40448W        W83361  16.488   8.682  18.449 -0.2390 -0.1233 -0.4925
40449W        W83362   7.459   5.478  16.723  0.0641 -0.0971 -0.2461
40450W        W83363  10.127  16.412  15.839 -0.0418 -0.1291 -0.0410
40451W        W83364  28.950   9.832   1.431 -0.3150 -0.1714 -0.3562
40452W        W83365   6.210   6.400   3.460  0.0486 -0.2274  0.3270
40453W        W83366   7.029   9.631   5.963  0.1733 -0.1591  0.1630
40454W        W83367  14.593  16.869  26.209 -0.0107  0.2106 -0.2760
40455W        W83368   7.178   8.958   1.560 -0.0160 -0.1997  0.1078
40456W        W83369   7.427   0.942   5.381 -0.3970  0.1170  0.1767
40457W        W83370  22.241   3.742  25.503 -0.2294 -0.1133 -0.1440
40458W        W83371  10.379  10.685  10.175 -0.1054 -0.0465 -0.0216
40459W        W83372  17.382  13.341  17.592  0.3991 -0.1426 -0.0926
40460W        W83373  34.092   0.225   5.004  0.0276  0.1393 -0.1587
40461W        W83374  11.853  13.452  24.342  0.2547  0.1257  0.0863
40462W        W83375   6.024   7.992  27.144 -0.0090 -0.2239 -0.1067
40463W        W83376  12.799   6.825   1.613 -0.0566  0.2385 -0.2674
40464W        W83377  20.797   8.194   2.804 -0.0765  0.1411  0.4203
40465W        W83378  19.827  11.098  22.724  0.0253  0.0921 -0.4184
40466W        W83379   4.741  11.104  29.263 -0.1919  0.1226  0.2690
40467W        W83380  17.068  11.854  20.031 -0.0058  0.0505 -0.1114
40468W        W83381   7.744  18.043   2.285  0.1869  0.1827 -0.1562
40469W        W83382  17.120   4.193   7.448  0.2856  0.0017  0.0849
40470W        W83383   6.971  13.385  22.655 -0.2202  0.1389 -0.0115
40471W        W83384   0.241   7.598   6.451  0.1637 -0.2837 -0.0899
40472W        W83385   3.931   6.618  29.091  0.1445 -0.2301 -0.0769
40473W        W83386  11.637  18.870  26.040  0.2860 -0.1623 -0.0183
40474W        W83387   8.933  17.244  26.656 -0.1616  0.1673 -0.1455
40475W        W83388  12.049  13.086  18.075  0.2428  0.1793  0.2662
40476W        W83389  12.279  11.702  28.596  0.1327 -0.2096  0.0037
40477W        W83390  19.210   1.316  17.036  0.2096 -0.1950  0.2919
40478W        W83391   7.715  13.938  25.179 -0.1369  0.0201 -0.1529
40479W        W83392   6.838  22.593   9.338  0.1805  0.1224 -0.1508
40480W        W83393  11.091  26.444  28.054  0.1899 -0.0040  0.1048
40481W        W83394   6.297  22.095  24.604  0.3124  0.0847 -0.1276
40482W        W83395   4.133   5.768  22.596 -0.2625  0.2739 -0.0216
40483W        W83396  12.893   6.747  25.341  0.1594 -0.0071  0.1114
40484W        W83397   9.861  34.396   3.095  0.0007  0.4646  0.3346
40485W        W83398  32.775   3.770  25.062 -0.2961 -0.0292  0.4595
40486W        W83399   3.735  33.992   4.103 -0.2584  0.0387  0.1696
40487W        W83400  10.435  14.250   1.455 -0.2574 -0.1403  0.1213
40488W        W83401  11.711   4.157   9.263 -0.1826  0.3146 -0.1959
40489W        W83402   9.184   5.135   0.766  0.1634  0.2162 -0.0018
40490W        W83403  12.626   6.812   0.287  0.1712 -0.0985  0.2507
40491W        W83404   6.005   8.275  12.504  0.1927 -0.0503  0.1201
40492W        W83405  13.392   4.718  22.328  0.0451 -0.4287  0.1938
40493W        W83406  15.759   9.459   3.470  0.2281  0.1622  0.0041
40494W        W83407  15.217  10.344  16.703  0.4278 -0.1485  0.2318
40495W        W83408  14.863  10.476  26.798 -0.0852 -0.0684 -0.0146
40496W        W83409   6.714   7.765  26.313  0.1484  0.0598  0.1670
40497W        W83410  32.947   7.112  27.251  0.0212  0.1686  0.3768
40498W        W83411   7.028  10.356  22.397 -0.1755  0.2645 -0.0768
40499W        W83412   2.665  15.096   1.381 -0.1016 -0.0429  0.4297
40500W        W83413  11.191   2.576  13.166  0.4337 -0.1251 -0.0841
40501W        W83414   0.329  12.318  29.334 -0.0815  0.0554 -0.1409
40502W        W83415  10.826  16.403  26.695 -0.5195 -0.5618  0.2037
40503W        W83416   5.724  11.980   5.431 -0.2654 -0.0186  0.0790
40504W        W83417   7.221  15.761  23.345 -0.0728  0.1400  0.1970
40505W        W83418   0.535   2.303  26.480 -0.1035 -0.0343  0.1713
40506W        W83419   6.661  32.893  26.186 -0.0009 -0.1163  0.0034
40507W        W83420   3.827   6.676  25.237  0.1132  0.1761  0.5130
40508W        W83421  11.401   4.358  29.412  0.0099 -0.1543  0.1583
40509W        W83422   5.420  10.169   5.440 -0.0519  0.0979  0.2041
40510W        W83423  15.086   2.331  20.013 -0.1673  0.3957 -0.1000
40511W        W83424  10.783   9.900  10.295  0.2209  0.0213 -0.3934
40512W        W83425   5.815  10.237   5.165  0.1124  0.0391  0.1861
40513W        W83426  13.385   2.121   3.793 -0.0406  0.3439 -0.0080
40514W        W83427   2.858   5.372  28.235  0.1675 -0.1296 -0.1042
40515W        W83428   5.562  11.070   8.051 -0.0081  0.0805  0.2010
40516W        W83429   6.074  13.458  20.456 -0.2395  0.1339  0.0928
40517W        W83430   2.492   2.918  19.068  0.0558  0.0032 -0.0556
40518W        W83431   7.727   2.901  23.745  0.0613  0.0533 -0.0079
40519W        W83432  13.014  23.225  29.026 -0.0414 -0.1811  0.0107
40520W        W83433  23.462  11.926  21.274 -0.1493 -0.0667  0.2973
40521W        W83434  12.013  24.522  21.373 -0.5599 -0.0197 -0.2294
40522W        W83435  30.650   6.500  26.838  0.0459 -0.0691 -0.2050
40523W        W83436   7.582   9.754  29.377 -0.1607 -0.0415 -0.0985
40524W        W83437  12.113  11.723   1.396 -0.2181 -0.1028 -0.2273
40525W        W83438  11.737  16.567   5.776  0.2522 -0.2386  0.2341
40526W        W83439   9.947   7.473   4.696  0.1502 -0.2802  0.1436
40527W        W83440  14.499  15.178  29.060  0.1959 -0.2920 -0.2978
40528W        W83441   8.026   4.356  20.161  0.1114  0.4977 -0.1310
40529W        W83442  14.856   5.941  29.579 -0.1625 -0.2015  0.1396
40530W        W83443  32.004  14.417  26.517  0.2564  0.2320 -0.0655
40531W        W83444  34.283   4.535  25.174 -0.0288  0.0284 -0.0500
40532W        W83445  11.686   8.037   2.853  0.2642  0.0108 -0.2254
40533W        W83446   9.898   6.502  24.570 -0.1563  0.0879  0.1613
40534W        W83447   9.584   0.960  20.094 -0.0884 -0.2142  0.0976
40535W        W83448  17.654   3.357   0.375  0.0944 -0.2065 -0.3402
40536W        W83449   8.502  16.715  25.145 -0.0428 -0.1222 -0.0945
40537W        W83450  10.102  12.902   2.203 -0.1110  0.2761  0.1706
40538W        W83451   5.189   4.375  19.413  0.0964  0.1130  0.3435
40539W        W83452  33.322  32.816  28.788 -0.1300 -0.1011 -0.0045
40540W        W83453  13.411   9.259  21.359  0.1517  0.1017 -0.1912
40541W        W83454   4.539  31.433   2.780 -0.0928  0.1412 -0.2128
40542W        W83455  30.593   5.318  24.803 -0.1164 -0.2306  0.0281
40543W        W83456  10.560  10.487  21.379 -0.1781  0.1141  0.0559
40544W        W83457   1.319   8.715   5.166 -0.3016 -0.0655 -0.4289
40545W        W83458   9.830   4.706  18.628  0.2952 -0.0322 -0.0598
40546W        W83459  14.821   0.149  26.667  0.3704 -0.2436 -0.0931
40547W        W83460   9.516   6.511  27.267  0.0169  0.1911 -0.0080
40548W        W83461  15.988   3.899  29.231 -0.0685  0.2281  0.3694
40549W        W83462  11.412   8.592  29.403  0.1889  0.1803 -0.0091
40550W        W83463   9.605  20.901   2.831  0.4246 -0.3625 -0.0959
40551W        W83464   9.302   7.087   5.262  0.1204 -0.3463 -0.0889
40552W        W83465  15.272  31.522   2.368  0.1813  0.4045 -0.0719
40553W        W83466  12.542   7.609   9.390 -0.0822 -0.2253  0.1477
40554W        W83467  15.493   6.081   2.318  0.1243  0.3240  0.1394
40555W        W83468  27.750  11.443   5.717  0.0828  0.1308 -0.0411
40556W        W83469   9.994  17.758  27.344  0.0671 -0.1072 -0.0213
40557W        W83470  11.480  14.425  27.861 -0.1370 -0.1451 -0.0382
40558W        W83471  19.448   1.647  14.479 -0.1488  0.0268 -0.1020
40559W        W83472   8.968   8.424  25.767 -0.1127 -0.0811  0.1432
40560W        W83473  13.444  12.412  24.090  0.1979  0.0767  0.1621
40561W        W83474  13.844   3.203   5.055 -0.2280 -0.0363  0.3336
40562W        W83475  13.456  33.010  25.512  0.6794 -0.0777  0.1452
40563W        W83476  11.987   9.199  28.970  0.2201  0.1214  0.0821
40564W        W83477  10.828  16.665  27.527 -0.1511 -0.4040  0.3035
40565W        W83478  13.321   8.310   5.232  0.1164  0.1192 -0.1770
40566W        W83479  16.047   0.454  10.058 -0.0942  0.1498 -0.1840
40567W        W83480   6.988   8.608  29.337 -0.2265  0.1167 -0.0483
40568W        W83481   5.485  11.474  18.815 -0.0686  0.3387 -0.1588
40569W        W83482  16.451  11.797  26.045 -0.0260 -0.0187 -0.1286
40570W        W83483  32.914  11.276  28.697 -0.0271  0.2003  0.0024
40571W        W83484  22.506   4.208  25.377  0.1231 -0.2105 -0.1935
40572W        W83485  16.491   9.203   1.999  0.0294  0.0188  0.1829
40573W        W83486   9.637  34.330  25.921  0.0328  0.1557  0.2806
40574W        W83487  17.615  10.952   5.402  0.1198  0.1955  0.1907
40575W        W83488   6.139  15.718   0.576  0.4172  0.0309  0.3981
40576W        W83489  15.622   7.104  22.591  0.0017  0.4107 -0.0738
40577W        W83490  10.328  11.202  25.302 -0.0069  0.1847  0.0198
40578W        W83491  10.355  13.338  24.760 -0.1242 -0.0983 -0.0692
40579W        W83492  32.801  16.617  22.667 -0.1060 -0.0508  0.0894
40580W        W83493   6.848   8.651  26.026 -0.0563  0.1514 -0.0819
40581W        W83494  17.513  11.788   2.583  0.1460  0.0048  0.0500
40582W        W83495  15.384   8.212  29.271 -0.3094  0.1362 -0.1386
40583W        W83496   9.929  32.238   4.305 -0.1966 -0.0533 -0.0784
40584W        W83497  13.091  15.149  24.083  0.0023  0.2530 -0.2570
40585W        W83498  10.241   3.915  11.469  0.1445  0.0450  0.1320
40586W        W83499  13.031   6.616  28.666  0.2342  0.2168  0.0367
40587W        W83500  10.036   4.032  26.473  0.0994  0.2186  0.0228
40588W        W83501  11.637  19.681   2.110 -0.0990 -0.3181 -0.2848
40589W        W83502   8.575   0.667   3.290 -0.0757 -0.2405  0.1404
40590W        W83503   5.065   7.826  26.847  0.1086  0.0446 -0.2225
40591W        W83504  12.986   4.356  18.161 -0.5987 -0.1463  0.0271
40592W        W83505  18.949   4.671   0.992  0.2855  0.0151  0.2697
40593W        W83506  17.275  11.609  20.884  0.0063  0.3463  0.1794
40594W        W83507   1.319  11.640  26.175  0.0849 -0.1809  0.0130
40595W        W83508  14.940   9.928   3.554 -0.4121  0.0636  0.2201
40596W        W83509   8.808   8.698  20.314  0.1441  0.0642  0.6128
40597W        W83510   1.607  22.375   0.091  0.2436 -0.1611  0.1607
40598W        W83511   3.001   5.916   1.149  0.1662  0.2009  0.1660
40599W        W83512  14.732  10.987   7.128 -0.0193 -0.2828  0.0480
40600W        W83513   9.214   7.944   0.113 -0.0606 -0.2761 -0.0243
40601W        W83514   1.563  18.793  24.401 -0.0316 -0.0507 -0.0433
40602W        W83515   4.496   4.846   9.839 -0.2471  0.0477 -0.2246
40603W        W83516   5.269  10.225  25.481 -0.0757  0.2734 -0.1470
40604W        W83517   8.419  13.574   3.288 -0.2559 -0.2194  0.1546
40605W        W83518  13.571  16.182  27.789 -0.2619 -0.1501  0.0408
40606W        W83519   3.551   3.457   1.348  0.1287  0.0015 -0.4175
40607W        W83520   3.691   0.739   0.054 -0.0803  0.0076 -0.0563
40608W        W83521  12.653  20.704  17.619 -0.3680  0.0103  0.0406
40609W        W83522   6.875  31.567   3.848 -0.3466 -0.0300 -0.1682
40610W        W83523   6.884  10.245  18.695 -0.3513  0.0790  0.0361
40611W        W83524  14.299  25.686  14.539 -0.3765 -0.0505  0.0210
40612W        W83525  15.379  13.286  21.252 -0.3635 -0.1245 -0.0964
40613W        W83526  14.639   0.346  24.057  0.1256 -0.0018  0.1210
40614W        W83527  11.372   0.629  19.461  0.0477 -0.1023  0.1244
40615W        W83528  13.154   2.926   0.684  0.2304  0.2029 -0.1160
40616W        W83529  11.245  10.933   0.877 -0.0811 -0.0698 -0.0728
40617W        W83530  11.851   5.468   4.672 -0.1146 -0.1029 -0.1303
40618W        W83531   8.342   8.964  21.590  0.1974  0.3036  0.3051
40619W        W83532  13.915  17.370  26.731  0.0640  0.3610 -0.0735
40620W        W83533  21.379   6.208  22.853 -0.2427  0.0729  0.0081
40621W        W83534  14.880   7.580   7.755 -0.2069  0.0463  0.1776
40622W        W83535  14.769   4.179  27.092 -0.2166  0.0012 -0.1834
40623W        W83536   7.047   8.857   3.265  0.2050 -0.3844 -0.0384
40624W        W83537   4.856   5.932   3.704  0.4550 -0.3408  0.1554
40625W        W83538  10.489  33.078   0.657 -0.0562  0.0235 -0.2390
40626W        W83539  19.980  13.772   7.784 -0.2826 -0.0120 -0.5350
40627W        W83540   4.456   3.745  12.980 -0.1353  0.1240  0.3550
40628W        W83541   3.807  14.422  26.340  0.1234 -0.3012 -0.0249
40629W        W83542  12.210   7.664   7.322  0.0837  0.0936 -0.1072
40630W        W83543   6.547   9.553  23.003 -0.1547  0.0108  0.1328
40631W        W83544  13.323   9.762  15.432 -0.1214  0.1408 -0.2001
40632W        W83545   5.088  30.800  27.154 -0.0084 -0.1600 -0.3290
40633W        W83546  10.614   8.618  29.204  0.1528  0.0700 -0.1294
40634W        W83547   4.604  10.899  28.179 -0.0592 -0.0720  0.3685
40635W        W83548   8.925   6.816  28.011  0.0693  0.2001 -0.1631
40636W        W83549   5.417  13.231   5.798 -0.1822 -0.0424 -0.0768
40637W        W83550  14.645  11.923  24.724 -0.0352 -0.0032 -0.1364
40638W        W83551  12.864  17.740   8.622 -0.0267  0.0680 -0.0644
40639W        W83552   5.663   8.157  23.463  0.0267  0.1495  0.0693
40640W        W83553   8.890   7.162  26.429 -0.0828  0.0624 -0.0001
40641W        W83554  14.669  23.876  27.846 -0.1392 -0.5951 -0.1973
40642W        W83555   9.001  11.473   3.165  0.1343  0.0914 -0.1721
40643W        W83556  11.672  25.935   2.801 -0.3232 -0.0425  0.0272
40644W        W83557   3.741  20.195  25.783 -0.0672 -0.0372 -0.1144
40645W        W83558   0.661   5.093   0.647  0.1198 -0.2414 -0.1289
40646W        W83559   1.623   4.772  26.877  0.0963 -0.0159  0.2058
40647W        W83560  15.020   3.559  24.502  0.0219  0.1557  0.0867
40648W        W83561  10.979   8.256   1.616  0.2987  0.0006 -0.0951
40649W        W83562  34.407  13.912   8.224  0.0191  0.0395 -0.0383
40650W        W83563  11.510   7.726   4.546 -0.3511  0.0946  0.1589
40651W        W83564   9.496   9.767  29.037  0.0568 -0.0349 -0.0735
40652W        W83565  32.879   5.083  29.468 -0.1880  0.1148  0.0610
40653W        W83566   5.814  17.257   6.759 -0.3137  0.0191  0.0369
40654W        W83567   8.929   4.218  10.205 -0.2302  0.0272  0.0062
40655W        W83568  30.547   8.804  26.330 -0.2723  0.3030  0.1680
40656W        W83569  14.835   9.358   1.161  0.1651 -0.0960  0.1585
40657W        W83570  10.928  20.716  24.515  0.2496  0.3094 -0.2040
40658W        W83571  15.092  15.259  27.839 -0.0938  0.2662  0.0715
40659W        W83572   3.749  13.064   1.232  0.2668 -0.1661  0.2309
40660W        W83573  14.655   5.115  27.446  0.0078  0.1502  0.0526
40661W        W83574  13.638   9.376  24.027  0.1049 -0.0338  0.0321
40662W        W83575  15.251  34.053  29.277 -0.0401  0.2591  0.1069
40663W        W83576   2.840   1.753  10.048 -0.2043 -0.0555  0.0096
40664W        W83577   5.531   7.880  20.551  0.1527  0.1128 -0.0097
40665W        W83578  16.644  29.798  27.485 -0.3427  0.2898  0.0240
40666W        W83579   0.731  13.212   4.076 -0.3013 -0.0665  0.1303
40667W        W83580   2.388  13.049   4.881  0.0400  0.0925  0.1780
40668W        W83581  20.358  21.160   6.775 -0.0500  0.2119  0.0667
40669W        W83582   9.617  12.096   5.373  0.0280  0.1804  0.3243
40670W        W83583   3.619  14.654   1.551 -0.0364  0.0016  0.0437
40671W        W83584   0.529  10.407  24.526  0.1280  0.0517  0.1835
40672W        W83585  15.691   0.485  18.812  0.0875  0.0094  0.2035
40673W        W83586  13.524  22.401  27.676 -0.0488  0.0030  0.0889
40674W        W83587   1.993   8.888   8.589 -0.0505 -0.1247  0.4886
40675W        W83588   3.266  15.277   2.721  0.0705  0.1582 -0.1546
40676W        W83589  10.106  17.740  21.356  0.0263  0.3427 -0.0559
40677W        W83590   9.798  11.231  24.493  0.4345 -0.1997 -0.1672
40678W        W83591   3.541   4.836  21.312  0.1325  0.0854  0.0612
40679W        W83592  32.795  11.626  25.432  0.1533  0.0338  0.0743
40680W        W83593  10.578   4.955   6.161  0.1392 -0.0386 -0.2400
40681W        W83594  10.225  14.791  26.566  0.0933 -0.0969 -0.2558
40682W        W83595   7.947  10.633  19.253 -0.1417 -0.1219  0.1286
40683W        W83596   0.682   8.094   9.270 -0.0741 -0.0178 -0.0524
40684W        W83597   3.243   2.038   4.736 -0.2043  0.1131  0.0217
40685W        W83598  14.617  34.375  25.037 -0.1875  0.2180 -0.0230
40686W        W83599   0.561   5.251   3.853 -0.0554  0.1955  0.0284
40687W        W83600  15.562  19.953  23.528  0.1637  0.0305  0.1667
40688W        W83601  13.525   2.744   1.634  0.0895 -0.1537  0.0103
40689W        W83602  12.119  11.490   6.493  0.1080  0.0688 -0.0519
40690W        W83603  19.808  17.410  28.452 -0.3875  0.1847  0.0794
40691W        W83604   6.174   8.032  23.657  0.0054  0.0271 -0.1266
40692W        W83605  10.191   5.520   3.906  0.0514  0.1922  0.2616
40693W        W83606  30.000   7.760  26.632 -0.2686  0.2886  0.5137
40694W        W83607   1.308  10.179  28.826  0.1602  0.1640  0.2162
40695W        W83608  13.388   6.136   0.669 -0.1562 -0.1501  0.0886
40696W        W83609   0.088   8.400  26.940 -0.1262  0.2204 -0.1848
40697W        W83610   7.220   0.195  28.102 -0.2525 -0.1536  0.0984
40698W        W83611   6.153   3.890   1.633  0.1655  0.2776 -0.0066
40699W        W83612   3.663   8.906  17.725  0.4626  0.1605 -0.0463
40700W        W83613   9.686   9.031   3.740  0.0326  0.2704 -0.0763
40701W        W83614   1.436  11.279   6.589 -0.0159  0.0722 -0.1560
40702W        W83615  11.701   8.961  19.773  0.2513  0.0029  0.0623
40703W        W83616  30.450   7.677  28.791 -0.3615 -0.0745  0.1590
40704W        W83617  13.266  12.735  15.947 -0.1546 -0.4380 -0.1884
40705W        W83618  16.416  30.528   4.554 -0.3356  0.2290  0.2746
40706W        W83619  10.868  12.827  17.433  0.0563  0.2111 -0.1659
40707W        W83620   6.876   8.649   2.200  0.3047  0.0825 -0.2852
40708W        W83621  12.935  12.632   3.943 -0.3368  0.1488 -0.0858
40709W        W83622   5.781   4.542   2.448  0.4032 -0.3209  0.3770
40710W        W83623  28.466   3.402  26.991 -0.0767  0.2702 -0.0693
40711W        W83624  14.283   4.327  28.854 -0.3122  0.4503 -0.0356
40712W        W83625  13.382   9.803   3.828 -0.1030  0.2502  0.4132
40713W        W83626   5.613   6.619  28.948 -0.1483 -0.0981 -0.4699
40714W        W83627   5.804   7.208  22.269 -0.0483 -0.3282  0.3266
40715W        W83628  11.259  11.003   3.289  0.0070 -0.1363 -0.2030
40716W        W83629   7.221  17.094  26.386  0.3290  0.0034 -0.2835
40717W        W83630  10.910  22.101   0.305  0.2788 -0.1330  0.1345
40718W        W83631   1.566  12.447   2.976  0.0671  0.1696 -0.0207
40719W        W83632   0.860   5.952  28.505  0.3339 -0.1174 -0.2044
40720W        W83633  10.997   4.320   4.660 -0.0818 -0.2196 -0.0195
40721W        W83634  33.469  15.596   3.163  0.0338  0.3129  0.0425
40722W        W83635   7.719   3.036   2.457  0.1270  0.0874  0.0657
40723W        W83636  12.504  12.040  27.289 -0.4085 -0.2728 -0.0372
40724W        W83637  11.637  17.538   3.984  0.1323  0.2370 -0.0832
40725W        W83638   4.757   5.192   0.380 -0.0594  0.2079 -0.3617
40726W        W83639   2.018   3.157   3.060 -0.1807 -0.0596 -0.0662
40727W        W83640  18.181  11.071  29.163  0.2201  0.0583  0.2102
40728W        W83641   5.487  15.829  15.055 -0.1473 -0.1999 -0.1742
40729W        W83642   7.067  15.991  23.766  0.1628 -0.0038  0.0329
40730W        W83643   2.446   7.237  23.012  0.0184 -0.2324  0.3521
40731W        W83644  27.901   5.798  25.858 -0.0274 -0.2455  0.1402
40732W        W83645  14.405   8.587  25.410 -0.0500 -0.1558 -0.1344
40733W        W83646  18.089  15.151  23.215 -0.2884  0.0554  0.2383
40734W        W83647  12.894   2.726  19.508 -0.1118 -0.0713  0.1443
40735W        W83648   5.344   6.968   0.499  0.1507  0.0850 -0.3383
40736W        W83649   1.735  28.532   3.141  0.0929 -0.4068  0.3204
40737W        W83650   9.670   8.909  28.895 -0.1368  0.3573 -0.3028
40738W        W83651   9.133   6.816   9.795  0.0555 -0.1945 -0.0457
40739W        W83652  33.233   9.718   8.410  0.5446 -0.1560 -0.1096
40740W        W83653  18.704   7.065   7.820  0.0853  0.0973 -0.5528
40741W        W83654   6.173   5.652  26.778  0.3243  0.0021 -0.1204
40742W        W83655  15.457  11.349  16.172 -0.0300 -0.0556  0.1010
40743W        W83656  34.087  22.680   7.431  0.0328  0.1713  0.0750
40744W        W83657   5.440   1.513  27.665 -0.2162  0.1720 -0.2579
40745W        W83658   8.626  10.508  10.565 -0.0376  0.0332 -0.1540
40746W        W83659  29.640   9.268   9.698  0.1186 -0.1050 -0.1070
40747W        W83660   0.981  11.957   5.633 -0.0748 -0.1380 -0.2097
40748W        W83661  13.641  18.409   5.230  0.0494 -0.1799 -0.0438
40749W        W83662  11.076  13.416  24.776 -0.3984  0.0482 -0.0061
40750W        W83663   4.814  11.985  27.153  0.3777  0.0265  0.1601
40751W        W83664  31.165  12.991  26.247 -0.3262  0.3030 -0.1636
40752W        W83665  30.132   8.390   1.592 -0.0512  0.0801 -0.0140
40753W        W83666   9.780   7.073  28.128  0.1574 -0.2621  0.2572
40754W        W83667  20.261  12.078   0.570  0.0366 -0.1514 -0.1444
40755W        W83668  14.018  16.661  27.326 -0.0376  0.2262  0.1022
40756W        W83669  25.758  10.250   5.014 -0.0348  0.0317  0.1003
40757W        W83670  30.990  17.290   1.117 -0.1426 -0.1024  0.1935
40758W        W83671   2.220  32.754  20.839 -0.2475 -0.1821 -0.2799
40759W        W83672   5.031  16.398  26.350  0.3848  0.2293  0.0058
40760W        W83673   7.923   0.520  21.438  0.3486 -0.1006 -0.3109
40761W        W83674  14.300   2.674   2.302 -0.0071 -0.1126  0.1468
40762W        W83675   9.079  12.744  10.114 -0.4227  0.1612 -0.0261
40763W        W83676  14.529   8.755   2.436 -0.0702  0.2767 -0.1442
40764W        W83677  13.406  16.404  26.839 -0.1752  0.1096  0.0573
40765W        W83678  34.074   6.310  10.705  0.2062 -0.1613  0.0405
40766W        W83679   4.209   7.535   3.190 -0.1896 -0.1039 -0.1039
40767W        W83680   5.180  14.090   0.446 -0.0134 -0.1490 -0.2867
40768W        W83681   9.774  13.093  19.489 -0.1231  0.4234 -0.2192
40769W        W83682  29.465  31.168  16.889 -0.2187 -0.2665  0.2341
40770W        W83683  17.317   8.756  15.239 -0.0650  0.1773 -0.1247
40771W        W83684  13.938  16.562  13.068  0.0953 -0.1595  0.1636
40772W        W83685   6.113  13.958  23.273 -0.0851  0.1608 -0.2921
40773W        W83686  18.787   6.961  16.745 -0.1534  0.1458 -0.1473
40774W        W83687   4.870  13.437  18.663  0.2972  0.1271  0.2455
40775W        W83688   6.703  13.721  19.039 -0.3199  0.1795 -0.1569
40776W        W83689  21.076   4.231  14.315 -0.1151  0.0964  0.1968
40777W        W83690  13.118  12.629  14.017 -0.3582 -0.0902  0.3244
40778W        W83691   2.048  17.561  20.894 -0.0432  0.1704 -0.1035
40779W        W83692   9.478   3.122  21.317 -0.0088  0.1186  0.3755
40780W        W83693  13.129  19.221  17.308 -0.1086 -0.4140 -0.0205
40781W        W83694   5.078   6.399  23.325 -0.2445  0.0310  0.2754
40782W        W83695  12.862   1.004  23.960  0.1742 -0.2038  0.1272
40783W        W83696  31.727  16.012  28.123 -0.1235 -0.0304  0.3080
40784W        W83697   5.578   8.226  19.748  0.3871  0.2041  0.1703
40785W        W83698  10.669  11.583   0.102  0.0380 -0.0169  0.0519
40786W        W83699   6.940  16.819  19.837 -0.1903 -0.0482 -0.0233
40787W        W83700  13.743  13.048  20.974 -0.2801  0.3710 -0.0762
40788W        W83701   9.018  14.859  15.033 -0.0861 -0.1245 -0.0965
40789W        W83702   2.370  15.681  17.888 -0.0051  0.0836 -0.1658
40790W        W83703   5.315  13.570  22.359 -0.4350  0.3273  0.2193
40791W        W83704  21.949  12.902  15.748  0.0850  0.4051 -0.1083
40792W        W83705   9.970  10.293  16.871  0.2216 -0.2291  0.0417
40793W        W83706   8.700  18.990  20.761  0.0079 -0.2702 -0.1264
40794W        W83707   1.994  19.974  14.664 -0.3322  0.1838 -0.1113
40795W        W83708  17.054  14.771  13.861 -0.1957 -0.0094  0.1008
40796W        W83709  12.411  14.962  17.766 -0.3515 -0.2459  0.0407
40797W        W83710   8.050  22.374  14.593  0.2032  0.3732  0.0611
40798W        W83711   7.969  22.595   0.799  0.1782 -0.0705  0.1882
40799W        W83712   9.776  18.796  20.397 -0.0249  0.3155  0.4010
40800W        W83713  18.926  17.437  11.907 -0.3044 -0.0419 -0.3378
40801W        W83714   7.235  11.856  26.504 -0.0228  0.1352  0.1733
40802W        W83715   7.648  15.438  15.290 -0.1222  0.0900  0.3420
40803W        W83716   4.429  19.273  16.940 -0.4475  0.0112  0.1383
40804W        W83717  22.872  22.245  16.479  0.3504  0.3310  0.1875
40805W        W83718  11.146  14.006  18.284  0.3887  0.0062 -0.0897
40806W        W83719  23.516   9.833  14.766 -0.0621  0.0724  0.0518
40807W        W83720   8.793  19.042  19.888  0.0898 -0.1910  0.2334
40808W        W83721   0.468  15.618  25.875  0.1128 -0.4135 -0.0732
40809W        W83722   0.696  10.630  19.240  0.2061  0.1152 -0.3536
40810W        W83723  17.607  12.573  14.580 -0.0997  0.0242 -0.0450
40811W        W83724  21.430   3.127  20.916 -0.4468 -0.1114 -0.1010
40812W        W83725   3.941  12.317  17.440 -0.0066 -0.0743 -0.0687
40813W        W83726   5.226  19.582  23.115 -0.0784 -0.1075  0.1322
40814W        W83727   8.394  17.474  25.712 -0.0140 -0.0140  0.2474
40815W        W83728  32.240  15.958  17.067 -0.0968 -0.1015 -0.0365
40816W        W83729  10.406  15.647  19.674 -0.1193 -0.1460  0.2474
40817W        W83730  33.191  15.013  16.524  0.3760 -0.0604 -0.1201
40818W        W83731  34.340   9.728  24.322  0.2185 -0.2856  0.0450
40819W        W83732   9.835   4.386  21.651 -0.0013  0.0525  0.1223
40820W        W83733  14.832  26.517  20.459 -0.1140 -0.0585 -0.0669
40821W        W83734   8.379  17.136  24.722 -0.1965  0.3358 -0.2861
40822W        W83735   9.065  16.448  15.555  0.0049 -0.0707  0.0387
40823W        W83736  33.798   8.881  19.763 -0.1805  0.0983  0.2335
40824W        W83737   5.598  14.539  15.994 -0.1154  0.0849 -0.1197
40825W        W83738  11.479  13.375  17.866  0.1245  0.1126  0.0375
40826W        W83739  11.243  27.099  21.594 -0.0218  0.3795  0.1503
40827W        W83740   3.859  24.110  20.215 -0.1890  0.0600  0.2623
40828W        W83741   8.568  21.999   0.410 -0.1214  0.3237  0.2299
40829W        W83742   2.808  20.588  21.839 -0.0771  0.0275  0.0769
40830W        W83743   6.733  15.156  27.928 -0.4315 -0.0875  0.3499
40831W        W83744   8.792   7.429  17.118  0.1487  0.4259  0.0231
40832W        W83745   5.264  18.175  21.084  0.2946 -0.0043  0.1206
40833W        W83746   5.477  12.765  22.164 -0.1528 -0.0570  0.1220
40834W        W83747  10.165  19.643  13.719  0.2214  0.2387  0.2222
40835W        W83748  14.421  14.982  15.180  0.1184 -0.2110 -0.2060
40836W        W83749  15.573  14.517  16.957  0.1259 -0.0355  0.1442
40837W        W83750  13.809   5.242  23.370  0.3441  0.1802  0.0955
40838W        W83751   9.100  24.188  14.230 -0.2585 -0.0101  0.0415
40839W        W83752  11.993  18.097  20.597 -0.1657  0.0311  0.1654
40840W        W83753   1.917  14.353  21.917  0.1920 -0.0853 -0.0763
40841W        W83754  12.079  25.605  23.692  0.3033  0.2005  0.2004
40842W        W83755   6.932   8.027  19.948  0.1594 -0.0607  0.0367
40843W        W83756   5.699  17.886  20.357  0.0175 -0.3317 -0.0158
40844W        W83757  32.671  16.609  14.495  0.1006  0.2787 -0.0006
40845W        W83758  10.424  32.963  21.458  0.1777  0.1860 -0.0468
40846W        W83759  15.730   6.289  14.981 -0.1604 -0.1014  0.2432
40847W        W83760  13.467   8.726  14.770  0.0073 -0.0568  0.0641
40848W        W83761  21.010  20.228  16.779  0.0312 -0.1086  0.3398
40849W        W83762  11.045  13.187  16.135 -0.3462 -0.3747  0.0693
40850W        W83763  10.869   7.710  18.076  0.0195 -0.3677 -0.0966
40851W        W83764  31.095  18.500   0.317 -0.1836  0.3313  0.3579
40852W        W83765  32.865  15.930  17.893  0.1598 -0.2191 -0.1580
40853W        W83766   9.402  18.404  20.649  0.5855  0.0194  0.0689
40854W        W83767  13.661   9.956  17.162  0.0788 -0.0517  0.0826
40855W        W83768  11.778   9.682  15.584 -0.2793 -0.1895 -0.1279
40856W        W83769  18.340   1.720  18.487 -0.2793 -0.5285  0.1634
40857W        W83770  12.586  22.358  14.072 -0.0447 -0.2503 -0.1794
40858W        W83771  21.015  13.318  13.445 -0.1483  0.2560 -0.1971
40859W        W83772  11.820  18.819  15.064 -0.1137 -0.1825 -0.1069
40860W        W83773   7.482   5.863  20.735  0.0799 -0.1167  0.1944
40861W        W83774   4.748  13.156  14.777  0.0168 -0.1986 -0.2566
40862W        W83775  10.891  18.200  16.018 -0.0719 -0.0098 -0.4720
40863W        W83776   9.563   9.851  23.567 -0.0844 -0.0322  0.5152
40864W        W83777   9.335  11.642  22.714 -0.0354  0.0361  0.0870
40865W        W83778  11.745  14.082  16.946 -0.1371 -0.2797 -0.0670
40866W        W83779   7.443   7.175  20.366  0.0157 -0.2738 -0.0212
40867W        W83780   3.351  17.132  18.896 -0.1100  0.0373 -0.1879
40868W        W83781  11.765  12.284  13.954  0.0916 -0.0373  0.0405
40869W        W83782  12.556  10.123  19.075  0.0953 -0.0519 -0.0846
40870W        W83783  14.592   9.348  16.481  0.0616  0.0354 -0.1017
40871W        W83784  16.175  22.139  14.383  0.0109 -0.0411 -0.0924
40872W        W83785  19.290  14.307  13.207 -0.1929  0.1853  0.2201
40873W        W83786   4.767  28.159  24.951  0.0876  0.0447  0.0494
40874W        W83787   3.669  17.711  13.412  0.1061  0.3019 -0.1151
40875W        W83788  13.734  13.500  18.363  0.0456 -0.0242  0.2206
40876W        W83789  17.251  12.913  14.729 -0.1060  0.1323 -0.1605
40877W        W83790  10.381  17.402  17.754  0.0383  0.1871  0.2683
40878W        W83791  11.473   5.685  24.060  0.0734 -0.0417  0.1203
40879W        W83792  33.030  25.144  28.723 -0.0165 -0.0272  0.1325
40880W        W83793  11.028  10.025  18.389  0.0482 -0.1961  0.0059
40881W        W83794  19.035  12.800  17.455 -0.0202 -0.3685  0.1677
40882W        W83795  20.917  27.263  21.489  0.1316  0.1448  0.1072
40883W        W83796   0.788   5.114  19.618 -0.0377  0.2942  0.1457
40884W        W83797  30.512  15.582  17.230  0.2469 -0.1362  0.1415
40885W        W83798   8.944  10.165  18.203 -0.1218  0.0706 -0.1437
40886W        W83799   0.662   7.256  21.331  0.1016 -0.0845  0.3671
40887W        W83800  12.022  22.495  13.993  0.0625 -0.2586 -0.1303
40888W        W83801  19.328  13.469  12.491 -0.0773  0.1490 -0.3425
40889W        W83802   3.765  16.883  22.845 -0.0480 -0.2129  0.3616
40890W        W83803  18.964   9.316  21.591  0.0934 -0.0052  0.1253
40891W        W83804   9.852   6.984  21.442  0.2539  0.0869 -0.1899
40892W        W83805   9.224   5.105  23.373  0.1476 -0.2554  0.0136
40893W        W83806   7.240  33.642  20.800  0.0257 -0.0999 -0.3609
40894W        W83807  15.836   6.039  24.044 -0.3607 -0.1712  0.3891
40895W        W83808  12.061  16.923  14.211  0.4647 -0.0021  0.0096
40896W        W83809  34.130   7.991  21.038 -0.1959 -0.0085 -0.2047
40897W        W83810  32.678  12.662  14.997 -0.1281 -0.0872 -0.2554
40898W        W83811   4.290  10.109  20.025 -0.0468  0.0762  0.5323
40899W        W83812  28.469   5.587  19.760 -0.1405  0.1087 -0.1336
40900W        W83813   7.173  11.353   0.513  0.2046 -0.0348 -0.2115
40901W        W83814  29.828  22.550  23.671 -0.1040  0.2134 -0.3966
40902W        W83815   0.982  22.288  18.367  0.2230 -0.0119 -0.0018
40903W        W83816  26.985  16.292  19.330 -0.2077 -0.1383  0.1067
40904W        W83817  33.518   6.585  21.968  0.1578  0.5170 -0.3091
40905W        W83818   4.887  18.571  21.622  0.1432 -0.0222  0.1828
40906W        W83819  17.489  15.834  13.978  0.0288 -0.2783  0.4126
40907W        W83820   5.554  12.710  16.676 -0.0509 -0.2101 -0.0043
40908W        W83821  10.296  12.520  20.115 -0.2780 -0.1799  0.0064
40909W        W83822   2.467  18.042  19.559  0.2197 -0.0714 -0.1865
40910W        W83823  10.927   9.924  19.282 -0.2882 -0.0881 -0.0562
40911W        W83824  11.499  12.984  16.066  0.0710  0.0479  0.1112
40912W        W83825   5.733  16.872  21.924  0.3719 -0.2144  0.2853
40913W        W83826  10.979  10.389  18.061 -0.0222  0.0091  0.3131
40914W        W83827  13.966  17.323  23.161 -0.1809  0.0970  0.2503
40915W        W83828  14.627   9.228  14.913  0.1773 -0.0999  0.1616
40916W        W83829  17.440  34.106  20.540 -0.0219  0.0797  0.2927
40917W        W83830  15.713  17.525  26.604  0.1217  0.0806 -0.2039
40918W        W83831  14.742   5.780  28.684  0.1226 -0.0906  0.1512
40919W        W83832  12.349  12.720  21.198  0.2258  0.1577  0.0148
40920W        W83833  12.680  20.190  17.248 -0.1984 -0.2489  0.0908
40921W        W83834  14.307  19.838   4.814  0.0470 -0.0398 -0.0710
40922W        W83835  14.874   4.140  26.538  0.2679 -0.0013 -0.0031
40923W        W83836   1.448   5.936  23.222  0.1231  0.5569  0.1083
40924W        W83837  13.705  13.340  13.302  0.2622  0.0243 -0.0561
40925W        W83838  12.131  14.288  19.951 -0.0555 -0.0760  0.0868
40926W        W83839   5.433  15.525  21.844 -0.3879 -0.1131  0.1497
40927W        W83840   0.630  18.408  16.409 -0.0948  0.1452  0.0602
40928W        W83841  10.873   8.366  16.405  0.3939 -0.1115  0.1303
40929W        W83842   1.374  14.431  17.922  0.1387 -0.1061 -0.0418
40930W        W83843  14.795   8.380  16.784  0.0258  0.0029  0.1106
40931W        W83844  14.515  11.157  24.258  0.2628 -0.1449  0.3977
40932W        W83845   6.836   6.843  18.897  0.2151  0.0049  0.4181
40933W        W83846  12.530  11.943  17.539  0.2412  0.1786 -0.1352
40934W        W83847  33.446  18.303  15.604 -0.1946 -0.0669 -0.2588
40935W        W83848   5.314  12.663  24.957  0.0334  0.1561  0.0913
40936W        W83849   6.840   9.296  21.058 -0.0868  0.1532 -0.0662
40937W        W83850   9.274  12.516  19.369 -0.1265 -0.1050 -0.1820
40938W        W83851  11.888  15.659  14.862  0.1721  0.0990  0.1036
40939W        W83852   5.008   8.699  17.971 -0.2536  0.3237 -0.2098
40940W        W83853   9.625  16.926  17.942  0.0579  0.0108 -0.0277
40941W        W83854  23.349   5.593  21.404 -0.0536  0.3025  0.0851
40942W        W83855   5.770  13.693  17.632  0.0499 -0.4337 -0.0428
40943W        W83856   4.934  24.569  19.655 -0.1810  0.3530  0.1143
40944W        W83857   0.204  11.387  23.219 -0.1457 -0.2433  0.3202
40945W        W83858  10.745  21.084  25.302 -0.0498 -0.0920 -0.1772
40946W        W83859   1.365   6.226  20.350 -0.1275  0.1684  0.1886
40947W        W83860   5.149  11.777  23.551  0.1786 -0.0877 -0.0777
40948W        W83861   4.414  15.261  16.515 -0.5054  0.1406  0.1258
40949W        W83862  11.526  22.832  15.904  0.1423 -0.0627 -0.0315
40950W        W83863   2.593  13.974  16.120  0.0275 -0.0055  0.2233
40951W        W83864  16.775   7.165  19.051 -0.1722  0.1369  0.3357
40952W        W83865  24.088  19.117  17.538 -0.0516  0.1513  0.1159
40953W        W83866  33.372  24.354  22.102 -0.0175 -0.2522 -0.3993
40954W        W83867   8.740   8.840  16.779 -0.1656 -0.0515 -0.0010
40955W        W83868  13.131   6.405  20.647  0.0306  0.0975  0.0359
40956W        W83869  18.165  21.174  13.715  0.1472 -0.0309  0.0021
40957W        W83870   5.310  24.121  23.640 -0.0677  0.1514 -0.3001
40958W        W83871  16.337  17.830  13.384 -0.3021 -0.1473  0.1035
40959W        W83872   9.953  21.630  24.504  0.2024  0.0324 -0.2460
40960W        W83873  18.925  13.301  28.107 -0.1240 -0.3256 -0.2221
40961W        W83874   1.169  17.219  16.222  0.2283 -0.2807  0.0914
40962W        W83875   4.189  21.087  17.455  0.1158  0.0813 -0.0384
40963W        W83876   3.064  23.594  18.414  0.3354 -0.2974  0.0258
40964W        W83877   8.032  25.392  14.756 -0.0003 -0.3308 -0.2123
40965W        W83878   7.450  15.309  24.274 -0.3434 -0.1124  0.0572
40966W        W83879   3.183  21.784  18.565  0.0119 -0.0705  0.3459
40967W        W83880  20.971  19.824  12.765  0.1388 -0.1048  0.2090
40968W        W83881   7.768   5.036  18.221  0.1698  0.0783  0.0750
40969W        W83882  21.571   8.108  16.975 -0.0459  0.0566 -0.0403
40970W        W83883  14.840   8.710  15.564 -0.1442  0.0052  0.0224
40971W        W83884   8.982   7.005  25.958  0.0524  0.0537 -0.2701
40972W        W83885   2.229  14.292  20.538 -0.0441 -0.0431  0.0327
40973W        W83886  14.008  14.061  16.303 -0.0821  0.1363  0.0593
40974W        W83887   8.506   9.107  23.287 -0.1272 -0.2709 -0.0530
40975W        W83888   2.651  18.608  19.212 -0.0905  0.1504 -0.1668
40976W        W83889  11.341  14.427  18.304 -0.0297  0.1236 -0.1744
40977W        W83890   9.767   5.959  17.209  0.0180 -0.1815  0.0512
40978W        W83891   5.144   9.152  22.789  0.2629  0.2724  0.1546
40979W        W83892   8.056  15.353  15.995  0.0640  0.5817 -0.3171
40980W        W83893   3.955  13.200  16.278  0.0351 -0.1890 -0.2182
40981W        W83894  13.828  13.473  20.668  0.0285  0.1766 -0.0688
40982W        W83895   1.655  12.388  21.128  0.0963 -0.1946  0.1383
40983W        W83896   1.385   9.109  17.050 -0.0928  0.1933  0.3683
40984W        W83897   2.276   7.849  17.965  0.0630 -0.3835 -0.2225
40985W        W83898  29.093  16.157  16.904  0.0439  0.2493  0.1433
40986W        W83899  23.578  12.079  15.559  0.1570 -0.2224 -0.0085
40987W        W83900   4.238  25.923  27.375  0.1069 -0.1025 -0.0735
40988W        W83901  10.530  22.040  14.368 -0.0447 -0.1169  0.1821
40989W        W83902  10.826  17.633  15.950  0.1329 -0.0685 -0.2440
40990W        W83903   3.461   2.821  20.866 -0.0563 -0.1054  0.1016
40991W        W83904  10.112  32.560  25.872 -0.1461 -0.0421 -0.0921
40992W        W83905   9.455  13.192  14.186  0.0229  0.0371 -0.0217
40993W        W83906   3.384  14.878  15.650  0.3134 -0.2769 -0.0513
40994W        W83907  10.071  16.142  19.669 -0.0094 -0.1346  0.0005
40995W        W83908   6.650   8.439  23.047  0.1666  0.2199  0.0110
40996W        W83909   5.732  15.027  14.674  0.2110  0.2570  0.0722
40997W        W83910  15.666   5.911  16.395 -0.0319  0.1374  0.1045
40998W        W83911   4.252  16.250  18.606 -0.4869 -0.2192 -0.0415
40999W        W83912   6.729  10.214  19.703  0.3077 -0.0350  0.0066
41000W        W83913  32.773  10.115  22.060  0.1640 -0.2092 -0.2158
41001W        W83914   4.711  10.839  19.342 -0.2099  0.0018 -0.1132
41002W        W83915   5.838  18.628  16.333 -0.0837 -0.2261  0.2158
41003W        W83916   3.277  11.404  18.669  0.1690  0.3006 -0.0056
41004W        W83917  32.969  17.155  15.157  0.0759  0.0404 -0.2530
41005W        W83918  10.621  11.404  20.657 -0.0800  0.1198 -0.1755
41006W        W83919   5.935  17.074  18.553 -0.1594  0.3115 -0.0980
41007W        W83920   9.371  19.582  23.062 -0.1045  0.1609 -0.0537
41008W        W83921   5.909  13.316  15.483  0.2745  0.0604  0.0831
41009W        W83922   6.330  24.423  18.404 -0.1268 -0.1952 -0.2002
41010W        W83923   0.585  18.571  23.235 -0.0546  0.3685 -0.0704
41011W        W83924   4.817  10.577  21.136 -0.2500 -0.1486  0.0415
41012W        W83925  16.520   1.342  24.896 -0.0316  0.4257 -0.1766
41013W        W83926   9.939  16.462  24.131  0.0612  0.1394  0.2602
41014W        W83927   7.746  17.820  15.341 -0.2326 -0.1309  0.0386
41015W        W83928  16.724  15.175  13.896  0.1593  0.0514  0.2533
41016W        W83929   1.933  19.052  17.457  0.0448  0.0222  0.0221
41017W        W83930   9.102   9.183  17.317  0.2316 -0.0683 -0.0372
41018W        W83931   4.944   7.337  18.387 -0.4504  0.0561 -0.0376
41019W        W83932  17.869   8.497  20.686 -0.0577  0.0132  0.1302
41020W        W83933   7.161  13.158  17.225 -0.0427  0.0555  0.1822
41021W        W83934   4.190   3.206  25.078  0.0417 -0.0502  0.1753
41022W        W83935  13.250   5.049  16.942  0.0362  0.3183  0.1247
41023W        W83936   9.169  10.552  15.654  0.2811 -0.2404 -0.4736
41024W        W83937  15.145  13.365  13.891 -0.2858 -0.2477 -0.1023
41025W        W83938   7.616  11.587  17.227 -0.1372  0.0541  0.4910
41026W        W83939  12.145   5.227  17.676 -0.0772 -0.0774  0.0328
41027W        W83940   5.354  16.085  23.670 -0.1715 -0.0446  0.1608
41028W        W83941  33.917  10.245  23.521 -0.0301  0.0505  0.0462
41029W        W83942   8.498  23.314  20.563 -0.0850  0.0454  0.1859
41030W        W83943  15.061  17.484  12.214 -0.2261 -0.0030  0.3657
41031W        W83944   0.865  12.276  23.089 -0.0701 -0.0392  0.1738
41032W        W83945   8.253  13.790  20.502 -0.1909  0.1907  0.2363
41033W        W83946  13.879   7.846  29.583 -0.2460 -0.2369 -0.0983
41034W        W83947  20.858  20.415  13.296 -0.3817 -0.2466  0.1798
41035W        W83948   5.485  13.208  22.017 -0.1869 -0.1763  0.2946
41036W        W83949  34.225  14.113  16.067 -0.2760  0.1292 -0.2464
41037W        W83950   6.363  13.698  25.116 -0.0967  0.1070  0.2850
41038W        W83951   7.140  34.291  27.130 -0.1692 -0.0286 -0.1891
41039W        W83952  10.913  15.450  23.769  0.0133 -0.1489 -0.1106
41040W        W83953   2.539  18.527   1.440 -0.1336  0.3139 -0.2528
41041W        W83954   8.705   9.419  17.444 -0.3827 -0.0280  0.1186
41042W        W83955  17.631  13.747  11.707 -0.1128 -0.1656  0.1802
41043W        W83956  13.811  23.320  16.126  0.0162  0.1370 -0.0670
41044W        W83957  30.778  13.828  22.252 -0.1634 -0.1377  0.2744
41045W        W83958   3.129  12.533  21.526  0.1119 -0.3246 -0.0208
41046W        W83959   7.491   6.211  21.107 -0.0351 -0.1979 -0.1383
41047W        W83960   0.725  12.273  18.181  0.4893  0.0017  0.0579
41048W        W83961   5.865  18.365  15.910  0.1794 -0.1251  0.1404
41049W        W83962  16.346   7.958  25.754  0.0857 -0.1600 -0.0835
41050W        W83963  10.987  18.505  18.010  0.1481 -0.1752  0.0390
41051W        W83964  17.970  29.401  23.108 -0.0311  0.1970  0.3247
41052W        W83965   9.652  22.182  23.204 -0.2095 -0.1559  0.0856
41053W        W83966  34.243  19.282  16.103  0.1557 -0.0196 -0.3644
41054W        W83967  10.473  15.751  14.806  0.1911 -0.0906 -0.0904
41055W        W83968   7.783  13.193  20.800 -0.2320 -0.0209  0.1507
41056W        W83969  12.797  16.273  19.039 -0.2114 -0.3553  0.3154
41057W        W83970   1.738  14.287   1.020 -0.0999  0.0097 -0.1764
41058W        W83971  17.135  11.325  19.309  0.0366  0.0622 -0.0293
41059W        W83972   8.707  12.079  21.163  0.1057 -0.2173  0.0534
41060W        W83973  12.192   9.519  17.569 -0.0613 -0.2465 -0.0799
41061W        W83974  25.955  14.211  26.420  0.0905  0.1372 -0.0037
41062W        W83975   7.605   6.471  23.608 -0.2479 -0.1579 -0.0962
41063W        W83976  21.261  12.347  18.848 -0.0738 -0.3872  0.1644
41064W        W83977  11.713  10.810  27.280 -0.0710 -0.2402 -0.0845
41065W        W83978  13.046   6.922  18.370 -0.1721  0.1990  0.0048
41066W        W83979  11.280  13.617  13.795  0.1562 -0.3064 -0.0504
41067W        W83980   9.584  18.801  19.613 -0.0658 -0.1198  0.0136
41068W        W83981  10.369  21.378   5.752  0.1057  0.0198  0.1421
41069W        W83982  26.398  14.882  19.349  0.3104 -0.1613  0.4672
41070W        W83983   4.720  18.404  16.643  0.1747 -0.3031  0.0344
41071W        W83984   9.381  14.188  26.075  0.1573  0.1686 -0.1301
41072W        W83985  13.269  19.243  15.303  0.1758 -0.0269 -0.1206
41073W        W83986   1.926  18.758  28.489 -0.0475 -0.0537 -0.0408
41074W        W83987  12.320  20.085  19.001 -0.1805 -0.0145  0.0051
41075W        W83988   7.440  11.170  22.834 -0.1338 -0.0973 -0.2347
41076W        W83989   8.325  10.711  18.185 -0.1509 -0.1748  0.0894
41077W        W83990  10.093  28.318  15.895 -0.1967 -0.3076  0.0761
41078W        W83991   0.965  13.119  15.340 -0.1516 -0.1307  0.0635
41079W        W83992  11.442  19.156  26.445 -0.2229  0.4338 -0.0688
41080W        W83993   6.209  18.704  13.982 -0.0569 -0.1153 -0.0602
41081W        W83994  26.910  22.501  19.161  0.0137  0.3299 -0.1769
41082W        W83995  14.915  19.151  12.978 -0.1306 -0.1284  0.0953
41083W        W83996  22.152  10.658  19.338 -0.1491  0.1645  0.0627
41084W        W83997   3.770   2.817   4.820  0.0668 -0.1197 -0.0247
41085W        W83998  11.820  19.475  20.611  0.0499 -0.4546  0.1809
41086W        W83999   8.510  21.179  24.902 -0.1104  0.0126 -0.0642
41087W        W84000   1.445  18.149  21.167 -0.1713  0.0159  0.0129
41088W        W84001   9.894  11.224  17.603  0.0930  0.1044 -0.5993
41089W        W84002   9.948   9.484  18.980  0.0617  0.0857  0.0565
41090W        W84003   7.693  11.252  20.748  0.0093  0.1661 -0.1480
41091W        W84004   9.201  22.806  15.102  0.1770  0.3237 -0.0316
41092W        W84005  13.036  12.157  13.510 -0.0035  0.2774  0.0512
41093W        W84006  12.831  10.973  14.577 -0.0301 -0.3223  0.0035
41094W        W84007   9.816   7.511  19.883  0.1581  0.3960  0.3659
41095W        W84008  11.231  10.926  16.878 -0.1538 -0.0810 -0.2144
41096W        W84009   7.268  16.577  20.143 -0.4607  0.2975  0.4051
41097W        W84010  14.599   0.551  17.448  0.2111 -0.1899  0.0881
41098W        W84011   9.056  16.910  14.951  0.0737  0.0505 -0.0705
41099W        W84012   2.834   9.104  26.488 -0.1334 -0.4299 -0.1683
41100W        W84013  18.157  23.004  15.692 -0.0680 -0.1562  0.0773
41101W        W84014   3.809  20.031  16.418  0.0152  0.5086 -0.1343
41102W        W84015   5.405  10.108  22.718  0.1307  0.0511 -0.1651
41103W        W84016  13.564   6.264  23.003  0.1492 -0.1435  0.0217
41104W        W84017  21.002  13.992  19.409  0.4175  0.1063  0.1546
41105W        W84018  33.387  11.677  19.630  0.0654  0.2703  0.2477
41106W        W84019  12.074   9.732  17.984 -0.1486 -0.1689 -0.2305
41107W        W84020   9.732   8.732  18.942  0.0405 -0.0316  0.0530
41108W        W84021   7.323  15.900  25.160  0.0137  0.2678 -0.0833
41109W        W84022   4.785   9.986  17.954  0.1110 -0.2739 -0.3951
41110W        W84023   7.796   8.532  24.221 -0.0820  0.2146 -0.3648
41111W        W84024   3.439   6.675  28.851  0.3096  0.1883 -0.0439
41112W        W84025   5.362  18.223  16.615  0.0456 -0.0325  0.0490
41113W        W84026  31.661  11.110  14.202 -0.1541 -0.3996  0.1087
41114W        W84027   9.838  14.034  14.165 -0.0137 -0.0191 -0.1022
41115W        W84028   3.228  24.298  16.309  0.0382 -0.0245  0.2611
41116W        W84029  10.658  12.643  22.796 -0.0655 -0.0667  0.0514
41117W        W84030   8.345  13.188  17.022 -0.0109 -0.0655 -0.0850
41118W        W84031   4.482  17.011  15.312 -0.4899 -0.0769 -0.2877
41119W        W84032   2.536   1.352  16.836  0.2681  0.1471 -0.1270
41120W        W84033   9.308  11.634  16.890 -0.0155  0.1795 -0.0676
41121W        W84034  33.111  20.542  27.256 -0.1865 -0.0980  0.1687
41122W        W84035   2.106  14.999  23.101  0.0824 -0.0447 -0.2147
41123W        W84036  20.779   9.518  19.774  0.0936 -0.4757  0.4993
41124W        W84037  12.070  14.726  19.678  0.1646 -0.1204  0.1241
41125W        W84038   9.525  13.327  14.879 -0.1240  0.1698 -0.0610
41126W        W84039  18.870  17.493  13.880 -0.0743  0.3421 -0.1115
41127W        W84040  34.411   6.683  24.374 -0.0696 -0.0780  0.4868
41128W        W84041   4.866  17.046  13.242 -0.0510  0.0718  0.0588
41129W        W84042   5.835   6.963  21.027  0.1496  0.0698 -0.1447
41130W        W84043  12.633  13.185  18.716 -0.0011  0.0398  0.2198
41131W        W84044   2.091  16.989  16.476 -0.0911 -0.0101  0.1843
41132W        W84045   7.190  14.766  23.738 -0.2845 -0.0016  0.1925
41133W        W84046  15.215  10.089  22.888  0.3091 -0.1714  0.1493
41134W        W84047   9.113  19.911  24.341 -0.1347  0.1098  0.0274
41135W        W84048   5.974  17.253  22.898  0.2730 -0.4511  0.0305
41136W        W84049   3.513  12.278  17.875  0.0435  0.1491  0.2040
41137W        W84050  16.202   8.672  17.028  0.0244  0.0229 -0.0454
41138W        W84051  20.379  10.571  20.315  0.2906 -0.4490 -0.0491
41139W        W84052   7.551   5.975  22.805  0.2676 -0.2787  0.1377
41140W        W84053   8.749   7.757  17.822  0.2961  0.0361 -0.0967
41141W        W84054  12.604  24.693  22.002 -0.1309  0.0360 -0.0634
41142W        W84055   0.582  27.296  15.930 -0.0805  0.1341  0.3000
41143W        W84056   7.027  18.567  21.075 -0.2782 -0.1780  0.1502
41144W        W84057  10.954  13.112  15.098 -0.0982  0.0012 -0.2177
41145W        W84058   6.170  10.508  19.923 -0.3398 -0.1220  0.0546
41146W        W84059   4.474   8.918  19.861 -0.0326  0.0203 -0.3227
41147W        W84060  13.994  26.531  20.995 -0.1482 -0.0159  0.1803
41148W        W84061  32.739   4.561  18.079 -0.0096  0.0115 -0.0690
41149W        W84062  13.982  13.937  12.874  0.2860 -0.0524 -0.0146
41150W        W84063  33.148  15.529  24.488 -0.1570  0.0002 -0.0090
41151W        W84064   6.660  10.081  17.991  0.0157 -0.0268  0.4240
41152W        W84065  14.988  12.825  14.946  0.1959 -0.0159 -0.1584
41153W        W84066   8.196   8.740  19.889 -0.2480  0.4786  0.3676
41154W        W84067  12.467  16.031  13.632  0.1281  0.4034  0.2060
41155W        W84068   6.671  26.824  20.395 -0.1417  0.0001  0.1334
41156W        W84069  11.124  18.233  16.437  0.1003 -0.0483  0.2708
41157W        W84070   7.515  14.439  22.944 -0.0857  0.0714  0.1625
41158W        W84071  20.306   9.183  21.254 -0.0512 -0.0374  0.1199
41159W        W84072   3.911   8.933  23.113 -0.0065 -0.1065  0.3248
41160W        W84073   4.996  13.010  15.569  0.0542  0.0689 -0.1445
41161W        W84074   8.476  20.460  23.000  0.0531  0.0372  0.2235
41162W        W84075  24.137   9.541  23.679 -0.3176  0.0023 -0.0566
41163W        W84076   5.940  14.540  17.210  0.0460  0.3341  0.2818
41164W        W84077   7.128   9.852  18.575  0.1609  0.0881  0.0565
41165W        W84078   2.299  15.681  19.857  0.0152  0.0900 -0.4649
41166W        W84079  11.500  11.585  22.571 -0.1301  0.2742 -0.2878
41167W        W84080  10.656  18.862  17.389  0.0613  0.2073  0.4033
41168W        W84081  32.412  18.533  14.391  0.2619 -0.1589 -0.1934
41169W        W84082   4.651  17.487  18.778  0.0123  0.1505  0.1349
41170W        W84083   8.736  14.503  24.996  0.0521 -0.0062 -0.1034
41171W        W84084  12.654  15.021  18.654  0.1039 -0.3310  0.0092
41172W        W84085  16.139  18.731  13.754 -0.1512  0.0489 -0.1507
41173W        W84086   4.748  23.706  19.928  0.0924  0.0147 -0.3362
41174W        W84087   9.437  18.552  27.001  0.3377  0.1798 -0.1090
41175W        W84088  25.396  15.108  17.637  0.1550 -0.0053  0.2197
41176W        W84089  14.860   6.116  22.127  0.0294 -0.2780 -0.0508
41177W        W84090   6.791   8.237   0.955  0.0600 -0.2849  0.1372
41178W        W84091   0.184  18.628  17.501 -0.1773  0.1599 -0.0813
41179W        W84092  12.184  14.855  22.094 -0.1569  0.1599  0.0341
41180W        W84093   9.262   0.551  25.763  0.1211  0.2193 -0.1302
41181W        W84094   8.631  10.796  23.778 -0.1234  0.1216  0.1776
41182W        W84095  19.565   9.930  19.636 -0.0635 -0.2468  0.0170
41183W        W84096  11.693  12.143  15.314  0.2420 -0.1445 -0.0220
41184W        W84097   5.240   7.938   3.996  0.0747 -0.0951  0.2996
41185W        W84098   3.861   6.433  26.860 -0.3860 -0.1004  0.0203
41186W        W84099  30.442   9.082  23.608 -0.1418 -0.0867 -0.0868
41187W        W84100  17.657   9.882  20.947 -0.2163 -0.2045  0.3221
41188W        W84101   3.431   0.049  23.376  0.1939 -0.1104  0.0785
41189W        W84102  34.135  16.242  22.076  0.0238 -0.1430  0.0991
41190W        W84103   8.492  11.849  22.626  0.2425  0.0162  0.0952
41191W        W84104   9.202  29.555  24.508  0.3617  0.0139 -0.3651
41192W        W84105   4.977  17.791  20.944 -0.0554  0.1898 -0.0851
41193W        W84106  14.147  18.862  12.659  0.0340  0.2810 -0.2385
41194W        W84107   9.014  20.569  18.239  0.1587  0.3111  0.1155
41195W        W84108   7.885  12.315  22.530 -0.0619 -0.2437  0.2553
41196W        W84109  15.250   2.799  26.940  0.1992  0.1863  0.1120
41197W        W84110   1.564  12.617  24.215  0.0255 -0.0601  0.0376
41198W        W84111  24.463  16.427  16.628 -0.1223 -0.0602  0.1334
41199W        W84112   2.773  12.235  18.536 -0.0566  0.1235 -0.1487
41200W        W84113   3.509  10.409  19.633  0.0013 -0.4069 -0.0292
41201W        W84114   8.035  16.442  24.328 -0.0218 -0.1040  0.3849
41202W        W84115  34.194  26.085  20.055 -0.2733  0.0281 -0.4720
41203W        W84116   5.053  19.156  14.281 -0.2159  0.1562 -0.2854
41204W        W84117  31.172  18.688   6.148  0.0255 -0.1469  0.0250
41205W        W84118  31.048   6.863  25.553  0.0317  0.1305 -0.0513
41206W        W84119  25.888  14.116  19.552 -0.3838 -0.2309 -0.0748
41207W        W84120  11.349  16.738  15.444 -0.1922  0.5279  0.0790
41208W        W84121  14.698  20.808  26.535 -0.2701  0.1427 -0.1426
41209W        W84122  15.304   4.852  16.194  0.2254 -0.0303 -0.0887
41210W        W84123   9.390   9.407  16.973 -0.2095  0.0594  0.2092
41211W        W84124   6.893  15.591  17.824  0.0934 -0.2194 -0.1684
41212W        W84125  13.844   8.161  16.617 -0.4354 -0.0171 -0.0039
41213W        W84126   0.683  10.281  17.516 -0.2954  0.2169  0.0200
41214W        W84127  15.708   3.592  21.969  0.0528 -0.3769  0.0744
41215W        W84128  10.664  10.238  17.454  0.3063 -0.1879  0.1503
41216W        W84129  15.166   7.305  17.559 -0.3196 -0.0864  0.0798
41217W        W84130  14.060   7.502  28.792  0.0121 -0.0937  0.4462
41218W        W84131  14.881  11.120  15.668 -0.0207 -0.4649  0.1353
41219W        W84132   3.833  17.680  21.135  0.1928  0.1992  0.0619
41220W        W84133  16.111   8.416  18.651 -0.0324  0.1416 -0.1832
41221W        W84134   6.876  12.816  24.056 -0.1586 -0.3830 -0.0269
41222W        W84135   3.879  15.371  22.296 -0.2736  0.0353 -0.0986
41223W        W84136  14.786   2.636  20.624  0.1890  0.0989 -0.0517
41224W        W84137   6.271   6.130   4.339 -0.0435  0.0709  0.1903
41225W        W84138  10.396  19.247  23.344 -0.3736  0.2034  0.4767
41226W        W84139  23.063  10.435  19.366 -0.3085 -0.2829 -0.0737
41227W        W84140   8.219  12.464  17.365 -0.2935 -0.0427  0.0428
41228W        W84141  12.928   0.471  24.083  0.2204 -0.0899 -0.0142
41229W        W84142  14.170   3.272  24.800 -0.3507  0.1108 -0.0706
41230W        W84143  10.733  14.046  17.539  0.1499  0.2179  0.1885
41231W        W84144  33.639  11.411  18.757  0.1250 -0.5835 -0.0788
41232W        W84145   5.785   9.287  19.399  0.2984 -0.3685  0.2042
41233W        W84146   8.970   9.077  25.032  0.0484 -0.1523 -0.1002
41234W        W84147   6.612  16.408  27.872  0.0962 -0.0490 -0.0423
41235W        W84148  31.976  19.818  21.857  0.1070  0.0269 -0.1250
41236W        W84149   3.645  12.890  15.252 -0.1963 -0.0150  0.0481
41237W        W84150   7.082   6.692  21.143 -0.2091 -0.0435 -0.7070
41238W        W84151  13.317  13.371  19.689  0.3675  0.2224  0.1165
41239W        W84152   3.701  13.959  14.302  0.0090 -0.0618 -0.0409
41240W        W84153   7.078   8.234  28.799  0.1767 -0.0385 -0.2519
41241W        W84154   4.624   6.692   2.667  0.1337  0.0697 -0.0214
41242W        W84155  18.568  14.440  27.162 -0.0812 -0.2998  0.2247
41243W        W84156   8.862  15.957  15.014  0.0129  0.1321  0.0884
41244W        W84157   9.173   9.852  16.795 -0.3174 -0.3379 -0.1642
41245W        W84158  31.076   7.930  21.424 -0.2365  0.1448 -0.0111
41246W        W84159  32.805  17.214  20.758 -0.2465 -0.1328  0.0676
41247W        W84160   7.151  19.443  22.834  0.4532  0.2557 -0.0500
41248W        W84161  11.161  13.421  14.251  0.1295  0.0821  0.0377
41249W        W84162  15.869  23.576  25.622  0.0711 -0.0125 -0.1186
41250W        W84163  11.981  20.232  25.934 -0.3656  0.1488 -0.1125
41251W        W84164   9.189  11.924  24.099  0.0949 -0.0802 -0.1686
41252W        W84165  13.543   8.328  17.411  0.1838 -0.2257 -0.0311
41253W        W84166   4.286  11.052  16.902  0.0364  0.0076 -0.2877
41254W        W84167  10.385  12.417  25.775 -0.0592  0.0690 -0.1642
41255W        W84168  15.833  17.497  24.408  0.2317 -0.2646  0.1462
41256W        W84169  11.700  16.264  16.913 -0.1328 -0.2818  0.2671
41257W        W84170   4.926   3.903  18.938  0.0441  0.2037  0.1992
41258W        W84171  14.640   4.872  23.646 -0.2244 -0.2706 -0.2561
41259W        W84172  16.189   1.394  18.230  0.1054 -0.0377 -0.0211
41260W        W84173  32.113  13.882  19.778  0.1155  0.1157  0.3987
41261W        W84174   9.933  14.572  13.353 -0.0155  0.1342 -0.2139
41262W        W84175   5.816   8.643  21.414 -0.1693 -0.4456 -0.1740
41263W        W84176   2.140  11.680  20.917 -0.0433  0.2886 -0.1541
41264W        W84177   0.322  11.865  18.945 -0.1151  0.0426 -0.2737
41265W        W84178   7.842   5.540  19.194  0.0944  0.0694  0.0082
41266W        W84179  15.409   9.683  14.730 -0.3134  0.0599  0.1579
41267W        W84180  13.816   3.743  24.090 -0.1446 -0.0831  0.1339
41268W        W84181   1.693   1.853   0.854  0.0496 -0.1066  0.1136
41269W        W84182  11.943  18.059  21.101  0.2799 -0.0784  0.0105
41270W        W84183  13.141  12.158  14.921 -0.1817  0.0398  0.2420
41271W        W84184  10.953   0.816  18.000 -0.1084 -0.0496  0.0658
41272W        W84185   2.127  12.674  19.480  0.2984 -0.0878 -0.0336
41273W        W84186  34.062  10.865  29.433 -0.0562 -0.1849 -0.0116
41274W        W84187   3.514  20.726  17.717  0.0957  0.0111 -0.2576
41275W        W84188   1.114  28.917  21.306  0.0614  0.0558 -0.0424
41276W        W84189  13.652   9.899  29.389  0.1251 -0.0862 -0.1310
41277W        W84190   5.492  10.511  17.975  0.1493 -0.2245  0.0922
41278W        W84191   6.126  10.016   3.511 -0.0057 -0.0919  0.1632
41279W        W84192   9.385   0.570  23.316  0.1231  0.1759 -0.1675
41280W        W84193  31.590  10.040  25.076  0.0907 -0.3057  0.2946
41281W        W84194   6.494  18.868  14.877  0.0609 -0.3574 -0.0523
41282W        W84195  12.477  15.571  15.462  0.0869 -0.0316  0.0188
41283W        W84196   7.167  33.101  20.483  0.1180 -0.2597  0.2063
41284W        W84197  17.738  18.442  15.062 -0.1246  0.4336  0.1959
41285W        W84198  23.424  14.851  25.945  0.0412  0.0346  0.2572
41286W        W84199   9.763  13.564  15.445 -0.2826  0.0514  0.1392
41287W        W84200   8.032  25.472  19.974 -0.1109 -0.0071  0.0062
41288W        W84201   2.873   3.712  27.769 -0.2080 -0.1455  0.3068
41289W        W84202   1.915  19.275  28.555  0.0773  0.0389  0.1027
41290W        W84203   9.856  18.409  26.815  0.1181 -0.3579 -0.2181
41291W        W84204  10.710   7.790   0.604  0.0967 -0.0301 -0.2923
41292W        W84205  26.447  31.078  23.333 -0.0392 -0.2158  0.0668
41293W        W84206   7.049  10.438  20.053  0.3003 -0.2087  0.0350
41294W        W84207  15.033  13.778  12.525  0.0114  0.0814 -0.0215
41295W        W84208   7.484   6.316   0.034  0.0570 -0.0894 -0.2241
41296W        W84209  13.106   3.162  18.627  0.1709  0.0200  0.1088
41297W        W84210   3.204   3.386  17.060  0.1031 -0.2758  0.1423
41298W        W84211   7.791  25.433  20.426  0.0022 -0.1837  0.0757
41299W        W84212   5.897  15.377  22.068  0.2528  0.1151 -0.1488
41300W        W84213  15.167   8.683  22.933  0.1556  0.2148 -0.0506
41301W        W84214   3.306  14.842  15.108  0.2235  0.1472  0.3913
41302W        W84215  22.297  10.560  20.314  0.0682 -0.0107 -0.0310
41303W        W84216   2.488  20.442  29.662 -0.3273 -0.2215  0.2881
41304W        W84217  15.307  27.785  16.534  0.0835  0.0602  0.0476
41305W        W84218  17.908  25.273  24.213  0.0462  0.1032 -0.2543
41306W        W84219  10.443  17.184  20.407 -0.0520  0.0644 -0.0513
41307W        W84220  10.471  15.782   2.379  0.3219 -0.1769 -0.1375
41308W        W84221  13.069  11.980  21.347  0.3217 -0.4363  0.6398
41309W        W84222  11.223   8.016  18.874  0.2302  0.3595  0.2738
41310W        W84223   3.414  21.788  19.621  0.0287 -0.0863 -0.4060
41311W        W84224  15.202  11.197  22.033  0.4564  0.3593  0.5155
41312W        W84225   3.801   7.248  23.707  0.0014 -0.0292 -0.0183
41313W        W84226  14.544  14.184  14.802 -0.0235  0.0064 -0.1744
41314W        W84227  17.256  27.318  19.735 -0.2335 -0.2586  0.0347
41315W        W84228  16.279  10.220  12.665 -0.2983  0.4848  0.2176
41316W        W84229   2.404  15.065  21.084  0.1828  0.3591 -0.0308
41317W        W84230   9.176   5.127  20.161 -0.3367  0.0597 -0.3364
41318W        W84231  10.703  18.522  20.425  0.1004  0.0707  0.2542
41319W        W84232  15.332   6.323   3.421  0.1063  0.2576 -0.0375
41320W        W84233   8.814  15.489  17.754  0.0766 -0.0930  0.1373
41321W        W84234   4.989  15.689  15.086  0.0599 -0.0552  0.2021
41322W        W84235  12.964  20.069   1.952  0.2210  0.1274  0.1690
41323W        W84236   7.668  31.816  23.936 -0.0094  0.1991  0.1140
41324W        W84237  17.590   9.356  16.081  0.1679  0.5057  0.0304
41325W        W84238   0.826  17.438  15.321  0.1608  0.1361 -0.1290
41326W        W84239  12.413  17.724  16.891 -0.1478 -0.2946  0.0913
41327W        W84240  15.338  34.262  18.323  0.0001 -0.2454 -0.4235
41328W        W84241   7.436  15.038  15.507 -0.2333 -0.1345 -0.1026
41329W        W84242   8.237  13.987  18.947  0.3028  0.0257 -0.0174
41330W        W84243   8.107  20.485  26.544  0.0111  0.1922  0.1216
41331W        W84244   5.282  12.360  29.768  0.1568 -0.4024 -0.0304
41332W        W84245  10.257  14.066  17.239 -0.1993  0.1915 -0.0599
41333W        W84246   3.589  22.874  13.385  0.1953 -0.3480 -0.1476
41334W        W84247   1.624  15.428  15.183 -0.1640 -0.1069 -0.0233
41335W        W84248  15.199  18.589  23.613 -0.0338 -0.1968 -0.1750
41336W        W84249  17.682   4.761   2.123  0.0693 -0.1353 -0.1458
41337W        W84250  17.619  12.066  17.310 -0.0068 -0.0577  0.0688
41338W        W84251  10.823  25.944  17.349  0.0601  0.0829  0.0148
41339W        W84252   7.350   4.416  23.842  0.4534  0.0497  0.2971
41340W        W84253   6.985   3.183  21.489 -0.1492 -0.1510 -0.2323
41341W        W84254   5.104  16.091  28.210  0.0227  0.0852 -0.3313
41342W        W84255  11.096  22.378  19.366  0.1921 -0.2251 -0.2190
41343W        W84256   1.318  19.183  16.770  0.1018 -0.1735  0.1132
41344W        W84257  33.144   9.986  27.715  0.3370 -0.2753  0.1869
41345W        W84258  16.569   9.554  15.080 -0.0674 -0.1919 -0.0704
41346W        W84259  22.015   2.915  19.137 -0.2523  0.1286 -0.0877
41347W        W84260  33.570  13.933  19.431  0.0087  0.1746  0.0212
41348W        W84261   6.280  16.490  24.968 -0.0854 -0.3325 -0.0005
41349W        W84262  13.567  14.669  21.110 -0.1761 -0.1569 -0.2657
41350W        W84263  15.961  10.735  16.374 -0.0493  0.1341  0.0053
41351W        W84264   8.430  17.743  13.207  0.1544 -0.0803  0.1449
41352W        W84265  12.930   2.831  17.748 -0.0964 -0.2309  0.0573
41353W        W84266  34.472   9.729  22.932 -0.1813 -0.2531 -0.2025
41354W        W84267  10.263  14.108  23.730 -0.0511  0.3163  0.2312
41355W        W84268   4.594   6.336  19.603 -0.0740 -0.0876 -0.3749
41356W        W84269   5.426  33.404  27.113  0.2963  0.1577  0.2143
41357W        W84270   4.281  27.420  21.227  0.0352  0.0454  0.2128
41358W        W84271   4.811   8.313  25.383  0.0714  0.3835  0.0913
41359W        W84272  11.832  13.893  20.817  0.1643  0.1144 -0.0944
41360W        W84273   6.316  14.190  21.071  0.0192  0.0625 -0.1750
41361W        W84274  23.178  21.464  16.429  0.0640 -0.2801 -0.1544
41362W        W84275   4.356   9.369  19.523 -0.0781 -0.0667 -0.0404
41363W        W84276   2.944  18.935  27.961  0.2597 -0.1347 -0.0462
41364W        W84277  28.202  10.461  14.620 -0.1922 -0.0035 -0.0011
41365W        W84278  12.374  23.542  16.079  0.0481 -0.1162 -0.1125
41366W        W84279   8.337   6.298  25.160  0.0003  0.2999  0.0260
41367W        W84280   6.553  14.835  22.384 -0.0833  0.0908 -0.1974
41368W        W84281  31.719  12.280  18.866  0.1297  0.1009 -0.0141
41369W        W84282  33.493  19.345  19.351 -0.0888  0.3866 -0.0843
41370W        W84283  11.491   2.720   0.488  0.3036  0.1809  0.1220
41371W        W84284   7.354  20.147  19.014 -0.3830  0.1813 -0.1075
41372W        W84285  15.871   5.219  24.015 -0.0524  0.0524 -0.0210
41373W        W84286   6.130  12.027  19.856  0.0349  0.1097 -0.2267
41374W        W84287  18.908   2.557  27.597 -0.0245  0.0845 -0.2141
41375W        W84288   5.960   3.219  21.577 -0.0574 -0.1413  0.0878
41376W        W84289  13.375   6.098  17.886 -0.1554 -0.1985  0.0510
41377W        W84290  16.430  24.160  22.375  0.0580 -0.0937 -0.2956
41378W        W84291  17.708   4.416  17.450  0.2794 -0.0437  0.1687
41379W        W84292  27.882  14.295  23.634 -0.1071 -0.1189  0.0636
41380W        W84293  11.039  18.527  14.769 -0.1884  0.1713 -0.1374
41381W        W84294  20.705   4.929  26.049  0.1454 -0.1974  0.3785
41382W        W84295   2.405  11.164  17.462  0.3149  0.0479  0.0327
41383W        W84296  17.848  31.817  24.395  0.2132  0.0971 -0.5192
41384W        W84297   3.886  21.577  23.435  0.1511 -0.2734 -0.2713
41385W        W84298   0.445  16.598  23.859 -0.1568  0.2080  0.0963
41386W        W84299   9.447  24.764  20.136  0.0593 -0.2698  0.2947
41387W        W84300   9.669  13.785  25.699 -0.2060  0.1289  0.0693
41388W        W84301  14.875   3.517  18.181  0.2863 -0.0871 -0.0547
41389W        W84302  27.540  10.230  25.715  0.2262 -0.0741 -0.2114
41390W        W84303   8.208   3.933  21.401 -0.1473  0.1113  0.2382
41391W        W84304   7.929  15.259  19.992 -0.0635 -0.2494 -0.1009
41392W        W84305   4.894  12.701  23.911 -0.0598 -0.0713 -0.1336
41393W        W84306   5.935   3.736  19.857  0.0011  0.2914 -0.0377
41394W        W84307   6.449  13.639  21.468 -0.1144 -0.1905 -0.3114
41395W        W84308  12.295  10.897  15.445  0.5400  0.0108 -0.2264
41396W        W84309  13.225  15.356  25.310  0.1744  0.2571 -0.1474
41397W        W84310   3.849  14.457   0.640  0.0329  0.3564  0.0785
41398W        W84311  12.802  17.768  17.731  0.1791 -0.2136 -0.1885
41399W        W84312  16.924   3.708  17.435  0.1900  0.4142 -0.0159
41400W        W84313  17.126  19.190  12.816 -0.0884 -0.0174  0.0790
41401W        W84314  13.801   7.405  20.971  0.0192  0.4172 -0.0806
41402W        W84315   6.711  12.346  16.521 -0.3242 -0.0458 -0.0582
41403W        W84316   2.126   0.292  22.983  0.0870 -0.4756 -0.1893
41404W        W84317   2.158  16.124  27.501  0.0139  0.3346  0.1579
41405W        W84318  22.033  16.256  16.432  0.1389  0.2455 -0.0559
41406W        W84319  23.302   5.901  18.476 -0.0523  0.3703  0.0824
41407W        W84320  11.192  10.648  20.799  0.0215  0.0400  0.2814
41408W        W84321  14.212  10.970  15.800 -0.0232  0.0580 -0.1045
41409W        W84322  15.743  10.372  25.150  0.1517 -0.1417 -0.1218
41410W        W84323   7.624   2.325  26.311 -0.2384  0.2522 -0.1466
41411W        W84324  16.196   7.315  18.281 -0.1609  0.1544  0.3184
41412W        W84325   7.850  13.599  16.928 -0.0305  0.0408  0.2285
41413W        W84326   6.638  14.678  14.648 -0.3305  0.0804  0.1466
41414W        W84327   0.124  15.597  14.746 -0.3068 -0.0505  0.0632
41415W        W84328   5.502  19.979  15.319 -0.1740  0.0025 -0.1296
41416W        W84329  12.886   2.269  20.075 -0.2817 -0.0001  0.0994
41417W        W84330  11.600  11.525  21.208 -0.3101 -0.0580 -0.2001
41418W        W84331   2.251  11.419  21.973 -0.3503 -0.1586  0.0101
41419W        W84332   6.232   8.023  22.672 -0.2298  0.0834 -0.0223
41420W        W84333  13.388  20.785  14.320 -0.2486 -0.1757  0.2589
41421W        W84334  33.945  16.637  13.896 -0.1604 -0.1276 -0.0251
41422W        W84335   7.631  13.034  18.521  0.1666  0.1984  0.2141
41423W        W84336   1.101  26.100  14.872 -0.2057  0.1708  0.0461
41424W        W84337  15.342   3.737  17.064 -0.1583  0.3106 -0.2487
41425W        W84338  15.317  18.997  23.403 -0.0991 -0.0744 -0.0332
41426W        W84339   0.142  11.985  22.730  0.0728 -0.0435 -0.0138
41427W        W84340   4.410  13.473  15.422 -0.1035  0.0128  0.1836
41428W        W84341  12.382  11.144  22.203 -0.2525  0.1685 -0.0612
41429W        W84342  32.777  14.762  24.817  0.0529  0.0016  0.2315
41430W        W84343   7.784  20.431   7.034  0.0677 -0.0501  0.0036
41431W        W84344  10.162  19.904  25.078 -0.1196  0.0425 -0.0094
41432W        W84345  17.592   4.801  16.956 -0.0598 -0.0591 -0.2545
41433W        W84346  34.223  31.913  24.096 -0.1726  0.0577  0.0371
41434W        W84347   6.752  16.329  14.536 -0.0985 -0.0085 -0.1641
41435W        W84348   1.561  15.120  14.372  0.1477  0.3198  0.0298
41436W        W84349   0.203  17.538  18.298  0.0106  0.0230  0.0648
41437W        W84350   0.656  13.563  17.552 -0.1143  0.0648  0.0049
41438W        W84351   9.801  25.841   0.192  0.1253 -0.3375 -0.0699
41439W        W84352  12.040  15.898  15.726  0.2179 -0.1765  0.1617
41440W        W84353   5.343  12.692  17.304  0.2211 -0.1524  0.0214
41441W        W84354  14.966   6.441  23.990 -0.2137 -0.3822  0.3550
41442W        W84355   6.423  16.589  15.711  0.0793  0.1254  0.0881
41443W        W84356   3.026  24.904  25.201 -0.1605 -0.2204  0.1019
41444W        W84357   4.606   8.332  22.527 -0.0944  0.1666 -0.1994
41445W        W84358  32.400  16.084  15.267 -0.1587 -0.1775  0.0561
41446W        W84359   4.832   9.632  19.556  0.1673  0.1636 -0.1380
41447W        W84360   7.583  23.363  22.341 -0.0583  0.4051  0.0917
41448W        W84361   4.119  12.928  20.460 -0.0710 -0.0133 -0.3000
41449W        W84362   8.723   5.572  21.420 -0.1478  0.0113  0.3479
41450W        W84363  13.049  19.205  13.368 -0.2811  0.0585 -0.1460
41451W        W84364   4.146  19.762  16.952  0.0688  0.1184  0.0410
41452W        W84365   5.852  24.265  23.629  0.0881  0.1616 -0.3477
41453W        W84366   5.299  10.844  26.553  0.0223  0.0076 -0.1240
41454W        W84367  15.510  11.573  12.792  0.2008 -0.0973  0.0947
41455W        W84368  30.696   6.899  21.199  0.0946  0.2124 -0.0476
41456W        W84369   6.488  10.149  16.638 -0.0646 -0.0225  0.1962
41457W        W84370  12.209  10.432  15.397 -0.3644 -0.3263  0.2751
41458W        W84371   6.650  18.316  15.150  0.0547 -0.0167  0.1091
41459W        W84372   6.755  12.891  15.282  0.3653 -0.3593  0.0325
41460W        W84373  16.874  21.412  21.465  0.0504  0.1120 -0.1073
41461W        W84374  12.997  14.871  12.874  0.1822  0.0101 -0.2297
41462W        W84375  13.616   1.628  17.544  0.0907 -0.2470 -0.2164
41463W        W84376   8.195  14.754   5.209 -0.0212 -0.0028 -0.0880
41464W        W84377  10.545  12.744  28.050  0.3208 -0.1582 -0.1427
41465W        W84378  30.940  20.334  17.423 -0.1321  0.1371  0.0365
41466W        W84379  16.488   7.303  15.588  0.1879 -0.1431  0.0066
41467W        W84380   5.101   2.903  21.067 -0.0638  0.1787 -0.0143
41468W        W84381  16.422   2.350  18.537  0.0488 -0.1192  0.0276
41469W        W84382   5.455   7.274  27.172 -0.2356 -0.1291 -0.2954
41470W        W84383  13.831   8.248  23.689  0.1486  0.0741 -0.2693
41471W        W84384   1.738  21.719  18.223 -0.3389  0.0348 -0.3188
41472W        W84385  24.534  12.596  16.508  0.2114  0.1180 -0.0466
41473W        W84386  17.126  19.181  14.924  0.1609 -0.0976  0.4089
41474W        W84387  10.070   3.082  20.380  0.1356 -0.0226 -0.1599
41475W        W84388   9.974  16.041  22.849 -0.2767  0.1203  0.2661
41476W        W84389  14.662  18.417   5.156 -0.2840 -0.0164  0.1148
41477W        W84390  10.257   8.729  21.778 -0.2928  0.2327 -0.3462
41478W        W84391  13.888  13.771  14.898 -0.3000 -0.2845  0.2792
41479W        W84392   1.471   6.568  26.167 -0.1597 -0.1194 -0.0056
41480W        W84393  15.629   8.665   7.051  0.0804 -0.1562  0.1233
41481W        W84394   9.654  16.059  24.185  0.0265 -0.0950  0.0317
41482W        W84395   9.149   7.627  21.226  0.0286  0.0193 -0.1540
41483W        W84396   3.810  25.187  15.193  0.4508  0.0447  0.0558
41484W        W84397   5.733   7.700  21.138  0.2201  0.1535 -0.1627
41485W        W84398  15.824   4.160  28.719 -0.2327 -0.0005  0.2021
41486W        W84399  17.539   9.069  13.751 -0.2876  0.0518 -0.2913
41487W        W84400  10.011   6.094  23.201 -0.2555  0.1405  0.1292
41488W        W84401  12.164  13.335  21.808 -0.0864  0.1624 -0.2616
41489W        W84402   7.921  19.415  13.085 -0.1915  0.0097 -0.1328
41490W        W84403   6.180  11.210  20.863 -0.2250  0.1542 -0.0072
41491W        W84404   1.602  18.913  27.743 -0.0703 -0.2163 -0.4569
41492W        W84405  12.949  17.347  23.332  0.2348 -0.0798  0.2735
41493W        W84406   0.656  17.994  13.589 -0.1219  0.3209 -0.1631
41494W        W84407  34.087   8.537  24.632  0.0303 -0.2845 -0.1300
41495W        W84408  12.450  25.437   4.237 -0.1377 -0.0913 -0.3578
41496W        W84409   5.868  10.946  16.292 -0.1287 -0.1603 -0.1971
41497W        W84410   4.478   9.764   3.425 -0.1068  0.2427  0.1866
41498W        W84411   6.194  13.329   0.410  0.0121 -0.1482  0.0179
41499W        W84412  19.403   5.181  23.613 -0.1062 -0.2579 -0.0538
41500W        W84413   1.443  18.758  26.772 -0.3591  0.0035  0.0935
41501W        W84414   6.130  12.703  26.815 -0.2740 -0.2077  0.0522
41502W        W84415  11.086   6.741  17.849 -0.0489  0.0687 -0.2922
41503W        W84416  13.146  12.426  16.331 -0.0951 -0.0526  0.0934
41504W        W84417  16.017  17.089  28.949  0.2136  0.1246 -0.1297
41505W        W84418   6.156  19.991  27.765 -0.1867 -0.2206  0.0650
41506W        W84419   7.868  13.516  23.484 -0.0002  0.1224  0.0448
41507W        W84420  10.970  13.564  16.990 -0.1034 -0.1924 -0.0314
41508W        W84421  11.665   9.290  29.505  0.3463 -0.0508  0.0570
41509W        W84422   0.276   8.895  23.133 -0.0656 -0.5643 -0.1952
41510W        W84423   8.881   6.887  17.350  0.1321 -0.2497  0.2943
41511W        W84424   3.491  15.253  19.652 -0.2628  0.2123  0.2032
41512W        W84425   4.004  13.257  15.181  0.0143 -0.0592  0.0415
41513W        W84426   4.950  10.272  20.765  0.0292 -0.1557 -0.1412
41514W        W84427   5.927  10.478  24.226  0.3004 -0.0146 -0.2483
41515W        W84428  24.146  11.142  17.849 -0.1894 -0.3451 -0.2545
41516W        W84429   6.687   0.898  29.573 -0.1330  0.2696  0.0092
41517W        W84430   9.873   8.802  26.300  0.2430  0.0930 -0.1255
41518W        W84431   5.527   4.897  21.189  0.3201 -0.0268  0.0357
41519W        W84432   5.019  17.110  20.937 -0.1358 -0.0329  0.0582
41520W        W84433  20.372   9.187  14.668  0.2157  0.0444 -0.1114
41521W        W84434   1.151  20.517  27.797  0.3233  0.2784 -0.0809
41522W        W84435   4.736   6.057  19.015 -0.0038  0.0760  0.1220
41523W        W84436  16.574   6.704  26.550  0.1073 -0.1548  0.0898
41524W        W84437  16.262   8.501  20.862  0.1675  0.0211  0.0243
41525W        W84438   5.236  14.629  25.684 -0.2977  0.1153 -0.1566
41526W        W84439  19.178  10.307   8.132 -0.1659 -0.0646 -0.1463
41527W        W84440  12.696  13.168  16.759 -0.0966 -0.0712  0.1150
41528W        W84441  12.217  15.765  18.075  0.0662 -0.3716 -0.0515
41529W        W84442  14.293  15.401  18.873  0.3284 -0.1099  0.1269
41530W        W84443  32.940  23.174   5.494 -0.0189 -0.0940 -0.1993
41531W        W84444  22.200   7.824  21.990 -0.2712 -0.4288  0.0571
41532W        W84445  19.815  27.499  16.692  0.0270  0.1993 -0.2502
41533W        W84446   9.911  10.722  25.933  0.2484 -0.2804  0.1828
41534W        W84447  11.636   9.802  16.132  0.1515 -0.0387 -0.1185
41535W        W84448  15.807   4.544  21.011 -0.0289 -0.0491 -0.3302
41536W        W84449  11.821  14.136  17.415  0.1154 -0.1819  0.1796
41537W        W84450  17.172  12.778  12.863 -0.1550  0.0035 -0.2266
41538W        W84451   6.726  21.408  23.252  0.0753 -0.0210  0.0043
41539W        W84452  14.676  20.113  17.753 -0.1582  0.0040  0.0005
41540W        W84453  19.173   6.821  23.251 -0.1992 -0.2772 -0.0369
41541W        W84454  14.720  22.901  14.773 -0.1892 -0.1906  0.0226
41542W        W84455   3.831   5.310  26.372  0.2246 -0.4233  0.2599
41543W        W84456  15.376   8.225  16.059  0.1925 -0.0416  0.0082
41544W        W84457  17.936   7.610  17.879  0.2012  0.0778 -0.1239
41545W        W84458  23.665   4.906  14.637 -0.1138  0.1193  0.0844
41546W        W84459   5.529   6.977  24.312 -0.1823 -0.0185  0.0913
41547W        W84460   8.324  19.680  18.110 -0.0883  0.0187 -0.2265
41548W        W84461   2.246  19.027  17.817 -0.1761  0.1878  0.3477
41549W        W84462  14.547  10.222  20.968 -0.0313 -0.0581  0.0589
41550W        W84463   5.975  13.691  17.119  0.0828 -0.2042  0.0489
41551W        W84464  12.737  11.210  19.007 -0.0944  0.4075 -0.1148
41552W        W84465  10.644  16.747  20.091  0.0265 -0.0937 -0.0559
41553W        W84466  17.890  18.221  14.086  0.4469  0.0198 -0.2384
41554W        W84467  21.052  27.778  21.364 -0.1418 -0.0683  0.1539
41555W        W84468   8.390  11.468  17.231 -0.0040  0.2298 -0.0827
41556W        W84469   6.996  15.951  21.525  0.0117  0.0378 -0.2389
41557W        W84470   0.297  11.301   4.185  0.0030 -0.0234  0.5514
41558W        W84471  14.392  27.258  18.202  0.0145 -0.0736  0.1469
41559W        W84472   9.008   9.761  25.489 -0.2619  0.0079 -0.0460
41560W        W84473  18.460  14.207  15.517 -0.1451 -0.0055  0.1768
41561W        W84474  16.195  13.647  24.053  0.1036  0.1551  0.2164
41562W        W84475   8.605  13.050  19.206  0.2588 -0.2349 -0.3719
41563W        W84476   8.574  11.529  14.854 -0.2534  0.0015 -0.1598
41564W        W84477   6.617  17.832  19.393  0.3011  0.3643  0.3164
41565W        W84478  14.590  10.608  22.440  0.2301  0.3273 -0.1265
41566W        W84479   1.486  10.366  16.995  0.3455 -0.3575  0.0774
41567W        W84480   0.355  15.812  22.584 -0.1683  0.2560  0.1424
41568W        W84481  14.868  10.531  28.550 -0.3708 -0.1020  0.0293
41569W        W84482  11.858  19.923  21.415  0.2635 -0.1730  0.0880
41570W        W84483   9.141   9.722  17.335 -0.1455 -0.2026 -0.1348
41571W        W84484  11.199  13.172  15.644  0.1979  0.1738 -0.1069
41572W        W84485  16.984   9.816  25.719  0.3310  0.1200 -0.1969
41573W        W84486  14.208   5.701  17.887  0.0753  0.1365  0.0483
41574W        W84487   8.250   4.956  24.568 -0.1461  0.0959  0.5742
41575W        W84488  11.994  21.072  14.022 -0.0632 -0.0256  0.0031
41576W        W84489   8.279  15.349  13.384 -0.0722  0.0217  0.0030
41577W        W84490   7.142   3.255  17.959 -0.0988  0.3604 -0.0770
41578W        W84491  13.327   8.785  21.652  0.3195 -0.0318 -0.0078
41579W        W84492  10.100  28.063  22.788 -0.0722  0.1270 -0.0713
41580W        W84493   5.401   8.444   4.156  0.1386 -0.2466 -0.2887
41581W        W84494   9.115   9.815  16.003 -0.3663 -0.1563  0.2293
41582W        W84495   9.127  14.350  24.666  0.0705 -0.2138  0.0395
41583W        W84496   4.870  11.606  26.733 -0.1426 -0.0451  0.1452
41584W        W84497   7.464   5.242  19.969  0.2533 -0.2875 -0.2882
41585W        W84498   1.983  28.307  16.021  0.0123  0.2117  0.4948
41586W        W84499  16.898   9.421  19.892  0.0810 -0.3221  0.1484
41587W        W84500  16.553  11.163  28.999  0.2802 -0.1040  0.1499
41588W        W84501  12.015   7.035  15.303  0.1186 -0.1070  0.0139
41589W        W84502   9.794  17.700  20.382 -0.0871  0.1129 -0.3225
41590W        W84503  12.430   4.433  24.864  0.0065 -0.1229  0.1034
41591W        W84504   7.667   5.863   8.104  0.2606  0.1805 -0.0803
41592W        W84505  13.101   5.528  26.444  0.0041  0.0845 -0.1821
41593W        W84506  16.539  18.478  26.415 -0.1348 -0.3731  0.0275
41594W        W84507  15.747  13.659  23.213 -0.6666 -0.0945 -0.0950
41595W        W84508  21.940  16.832  16.154 -0.0606 -0.2390  0.1660
41596W        W84509  10.571   7.241  18.586 -0.3398 -0.3305  0.2489
41597W        W84510  22.007   9.279   3.745 -0.2427 -0.0246  0.1356
41598W        W84511  11.019  20.791   0.964  0.1011 -0.2579 -0.2220
41599W        W84512  11.911  13.466  23.695  0.0261 -0.2445  0.0082
41600W        W84513  11.507  15.484  15.155 -0.0405  0.1528  0.1503
41601W        W84514   4.810   5.329   2.590 -0.0950  0.0888 -0.1898
41602W        W84515   7.411   5.857  25.019 -0.0856 -0.2154 -0.3060
41603W        W84516   1.111  13.935  27.882  0.3732  0.1474  0.0847
41604W        W84517  11.298  24.050  15.167 -0.2274 -0.0689  0.0828
41605W        W84518   9.470  15.878  26.632 -0.1309 -0.2336  0.2419
41606W        W84519   9.690  22.712   0.297  0.0121  0.0248 -0.1329
41607W        W84520  13.481  15.046   0.368  0.0731  0.0097 -0.3622
41608W        W84521  10.609  13.213  22.530  0.0528 -0.1484  0.1409
41609W        W84522  22.370  15.553  17.859  0.1942  0.0286  0.2969
41610W        W84523   6.492  11.423  16.726  0.1129 -0.0877  0.3130
41611W        W84524   7.954  17.423  22.774  0.0239 -0.0682  0.0024
41612W        W84525  11.884  17.123  17.261 -0.1044  0.1120 -0.3439
41613W        W84526   9.432  20.106  21.932  0.1550 -0.3382  0.0162
41614W        W84527   8.666  13.559  29.640 -0.2086 -0.0084  0.0044
41615W        W84528   8.494  15.480  27.598  0.1046 -0.5574 -0.0314
41616W        W84529  13.425   6.209   1.195 -0.1510  0.1356 -0.0622
41617W        W84530  10.667   7.504  16.031 -0.1497 -0.0054  0.1525
41618W        W84531   9.568  20.426   1.786  0.0565 -0.0852  0.1156
41619W        W84532  11.825  11.687  23.816  0.3017  0.0736  0.2352
41620W        W84533  10.032   8.786   1.920  0.3562  0.1256  0.0326
41621W        W84534  10.361  11.055   3.464 -0.2036 -0.0253 -0.0273
41622W        W84535  11.901  12.867  21.578 -0.1512  0.1976 -0.0496
41623W        W84536   8.813   5.475  29.240 -0.4066  0.0453 -0.3427
41624W        W84537  18.422  33.608  23.032  0.1121  0.3639  0.1929
41625W        W84538  16.840  10.947  25.732  0.1736  0.2822 -0.0960
41626W        W84539  18.857  20.168   4.841 -0.0812 -0.0502 -0.0358
41627W        W84540  10.651  14.990  23.662  0.0880 -0.1822 -0.3309
41628W        W84541   7.794   0.114  23.435 -0.0572  0.0378  0.0152
41629W        W84542  33.199  14.856  21.371  0.2147  0.1421 -0.3424
41630W        W84543   8.664  10.927  16.975 -0.1319  0.2818  0.2090
41631W        W84544  13.266   9.296  17.410 -0.1438 -0.0621 -0.0290
41632W        W84545  11.623  14.741  22.079 -0.1544 -0.0024  0.0691
41633W        W84546   2.982  33.800  27.410 -0.1204 -0.3056  0.1985
41634W        W84547   9.955   5.629  26.488  0.2731 -0.1439 -0.1425
41635W        W84548   1.625   7.008   1.515  0.0015  0.0191  0.0131
41636W        W84549  33.863  13.898  14.820  0.1238 -0.2211 -0.1243
41637W        W84550  11.304  16.206  27.107 -0.0430 -0.0829 -0.2108
41638W        W84551   7.565  17.356   1.871  0.1720 -0.1727 -0.0561
41639W        W84552  11.277  10.791  29.736  0.2546  0.3202  0.1309
41640W        W84553  13.527  11.296  25.578  0.0219 -0.1445 -0.0925
41641W        W84554  13.159  13.472   8.387  0.0548  0.2560  0.0815
41642W        W84555   8.516  19.292   3.620 -0.1233 -0.2265  0.1772
41643W        W84556  15.557   3.162  18.930  0.2838  0.1118  0.1611
41644W        W84557   9.884  19.925  17.585 -0.0501  0.3012 -0.0997
41645W        W84558  13.669  17.838  23.508  0.0864 -0.1724  0.3530
41646W        W84559  33.284   1.274  27.762  0.0238 -0.0450 -0.2235
41647W        W84560   7.154  15.799  24.261  0.4698 -0.0832  0.1125
41648W        W84561   6.890   9.514  19.555  0.0422 -0.0122  0.1118
41649W        W84562   6.446  19.710   3.167 -0.1226  0.2732 -0.0001
41650W        W84563   4.407  14.403  24.694 -0.3744  0.2512 -0.3757
41651W        W84564  19.895  11.566   3.985 -0.1136 -0.1296  0.3162
41652W        W84565  19.939   3.829   5.421  0.0528 -0.1802 -0.0558
41653W        W84566  27.815  12.579   0.921 -0.0246 -0.0701  0.0677
41654W        W84567  10.074   0.193  24.695 -0.0167  0.2492  0.2662
41655W        W84568   9.524  32.609   0.142 -0.1615 -0.3814  0.3692
41656W        W84569  34.388  13.490  26.303 -0.1106  0.0755 -0.1523
41657W        W84570   5.382   7.661  19.011  0.1308 -0.2195 -0.1286
41658W        W84571   9.249  15.494  20.941  0.0190 -0.2254 -0.0363
41659W        W84572   5.404   3.879  23.734  0.0649 -0.0635 -0.0261
41660W        W84573   8.245  17.784   0.783 -0.0334 -0.1879  0.0844
41661W        W84574   7.170   2.819  17.000 -0.0541 -0.2715 -0.2629
41662W        W84575  21.395  10.280   3.363 -0.2175  0.0453 -0.3306
41663W        W84576   2.573   6.274  20.611  0.0308  0.1144  0.0336
41664W        W84577  13.485  14.504  22.677 -0.1533  0.1412  0.2263
41665W        W84578   1.371  10.419  19.397 -0.1567 -0.0904 -0.1439
41666W        W84579   6.348   5.307  19.298  0.0621 -0.0986  0.0531
41667W        W84580   2.182   9.088  20.540  0.0662 -0.0308 -0.1734
41668W        W84581  12.746   3.113  20.459 -0.0106  0.4795  0.3504
41669W        W84582   6.618  11.063   4.761 -0.3230 -0.0233  0.0929
41670W        W84583  12.614  13.432  24.911 -0.0305 -0.1386 -0.1172
41671W        W84584  22.247   5.555  19.956  0.0434 -0.0900  0.2804
41672W        W84585  11.305   6.543   3.094  0.2612 -0.0023  0.1429
41673W        W84586  12.646   5.453  22.166 -0.0977 -0.0862  0.0117
41674W        W84587   7.532  20.545  21.997  0.2602 -0.3899  0.0548
41675W        W84588   8.741   8.854  26.344  0.0823  0.0576  0.0552
41676W        W84589  11.704   7.292  25.500 -0.0436 -0.0057 -0.4140
41677W        W84590   2.565   6.268  28.339 -0.0918  0.2760 -0.2848
41678W        W84591   8.017  18.606  29.447  0.0426  0.1966 -0.5353
41679W        W84592  33.287  14.997  24.717  0.0464  0.1575  0.1472
41680W        W84593   4.095  17.400  27.060  0.1694 -0.0851  0.1174
41681W        W84594  23.464   6.024  23.166  0.2735 -0.0116 -0.1945
41682W        W84595   9.076  13.888   2.263 -0.1132  0.1660  0.0598
41683W        W84596  14.062  21.234  17.285  0.0839 -0.1005 -0.0243
41684W        W84597  23.104  13.861  16.363  0.1933  0.0322 -0.0756
41685W        W84598  10.757  20.282  14.100  0.2393  0.0966  0.0343
41686W        W84599  10.612  26.758   4.055 -0.1796 -0.2004 -0.0084
41687W        W84600   2.888  12.122  23.163  0.1878 -0.0915  0.2896
41688W        W84601   2.443  13.017  15.704 -0.0742 -0.1341 -0.0495
41689W        W84602  16.025   9.788  25.988 -0.1793  0.3987 -0.1577
41690W        W84603   2.901  11.829  21.674  0.1639 -0.1198  0.0300
41691W        W84604   1.454  20.027  26.512 -0.3198  0.0538 -0.1768
41692W        W84605  33.908  11.317  25.228  0.1342 -0.2199  0.2749
41693W        W84606  10.471   1.308   3.819  0.2073  0.2389  0.0681
41694W        W84607  12.456   0.851  22.503  0.0337  0.1213  0.0984
41695W        W84608   3.767  32.318   0.398  0.0820  0.2951  0.0714
41696W        W84609  13.526  24.656  16.213  0.2021  0.0790 -0.2556
41697W        W84610   1.637   6.881  25.342 -0.1401 -0.4140 -0.1382
41698W        W84611  11.180  19.840  19.172  0.0464  0.4139  0.2644
41699W        W84612  31.327  22.972  22.750 -0.2543  0.2944  0.1706
41700W        W84613  19.039   9.108  23.680 -0.0126 -0.3982 -0.0498
41701W        W84614  11.547   7.542  23.321  0.0040  0.0163 -0.0227
41702W        W84615   9.614   7.350   2.661 -0.0660  0.0966  0.0472
41703W        W84616  12.049   8.226  26.303 -0.1357  0.0383  0.0077
41704W        W84617  17.027   7.965  15.858  0.1395  0.1748 -0.4032
41705W        W84618   3.904  21.983  25.828 -0.2131  0.2850 -0.2980
41706W        W84619   5.826  14.037  25.184 -0.1136  0.1930  0.0561
41707W        W84620   6.043   1.832  23.076  0.0637 -0.0988 -0.3055
41708W        W84621   9.117  34.289  28.345 -0.1930 -0.0265  0.0008
41709W        W84622   6.299  13.913  19.297  0.1681 -0.0482 -0.0370
41710W        W84623   3.606  11.151  20.214 -0.0651 -0.0732  0.1199
41711W        W84624  12.673  11.126  21.718  0.2308 -0.0519  0.2537
41712W        W84625   1.330  22.894   6.756  0.1052 -0.0247 -0.1493
41713W        W84626   8.603  18.464  27.633  0.2363  0.2580  0.4509
41714W        W84627  14.572   2.144  22.812  0.0589  0.0198  0.1154
41715W        W84628   8.248   8.128   1.990  0.0620  0.1445  0.0866
41716W        W84629  13.755   3.877  23.469 -0.2022 -0.2125  0.0500
41717W        W84630  17.849  13.672  14.978 -0.1290  0.1534  0.0819
41718W        W84631   9.803  15.154  18.645  0.1155 -0.1562  0.0182
41719W        W84632   9.970  14.955   2.405  0.3549  0.1895  0.0019
41720W        W84633   6.478  16.131  20.406 -0.3247 -0.0406 -0.2921
41721W        W84634  14.288   8.918  19.815 -0.1044 -0.0454  0.1718
41722W        W84635  12.107  11.160  24.456  0.0931  0.2588 -0.1840
41723W        W84636   6.376  13.176  24.527 -0.1731 -0.0457  0.1242
41724W        W84637  20.030   9.848  23.535  0.4305  0.1739 -0.1025
41725W        W84638   8.720  12.924  15.589  0.3254 -0.2290  0.1093
41726W        W84639   4.470   3.869  27.158 -0.0583  0.0052  0.1502
41727W        W84640   4.655   4.849  25.310  0.0163 -0.1358  0.0225
41728W        W84641   8.225  17.964  27.116 -0.0316 -0.0366 -0.0950
41729W        W84642   0.185  11.115  18.372  0.0573 -0.0362 -0.1314
41730W        W84643   7.086  15.279  20.937  0.3345  0.1252  0.0220
41731W        W84644  12.403  19.984   0.017  0.1292 -0.0139  0.0808
41732W        W84645  10.027  10.804   2.193  0.0393 -0.2440 -0.3449
41733W        W84646  10.854   4.735  26.605  0.2228  0.6082  0.1304
41734W        W84647  13.634  29.743   1.607 -0.1446  0.1396  0.0905
41735W        W84648  15.248  15.157  24.237 -0.4095  0.3941 -0.0159
41736W        W84649   2.788   8.367  20.564 -0.0311  0.0144  0.0322
41737W        W84650  10.207   7.232  27.885 -0.1060 -0.1381  0.0324
41738W        W84651   9.275  12.799  25.753 -0.2162 -0.1020 -0.0155
41739W        W84652   3.696   5.871  27.515 -0.0106 -0.1000  0.2245
41740W        W84653  33.758  21.398  22.930  0.2420 -0.0270  0.0691
41741W        W84654  13.864  12.553   0.788  0.1704  0.0146 -0.0242
41742W        W84655   7.929  32.440  20.554 -0.0244 -0.0863  0.0969
41743W        W84656   9.760  20.748  19.449 -0.2256 -0.2282 -0.3587
41744W        W84657   5.863   2.001  19.759 -0.1772 -0.1952  0.1242
41745W        W84658   1.898  13.340  21.937 -0.0177 -0.1213  0.1768
41746W        W84659  16.009  15.350  22.624 -0.2099  0.1716 -0.2802
41747W        W84660  32.489   8.622  26.199  0.0461  0.1024  0.0029
41748W        W84661  10.148  12.497  16.248 -0.1995 -0.0193  0.2312
41749W        W84662   5.304   8.916  18.542 -0.4114  0.2666 -0.2044
41750W        W84663   5.914  33.206  17.479  0.0795  0.0976 -0.0735
41751W        W84664   0.874   7.548  16.905  0.0041  0.2425 -0.4043
41752W        W84665  14.853  14.570  26.623  0.0209 -0.1996 -0.3587
41753W        W84666  15.329   8.969  25.133  0.0058  0.3977 -0.2731
41754W        W84667  15.112  12.843  21.510  0.2253  0.1042 -0.3203
41755W        W84668  25.131  16.528  15.873 -0.0354  0.0356  0.1403
41756W        W84669   3.092   5.288  28.796 -0.1783  0.0737 -0.0754
41757W        W84670  12.285   1.179  20.422 -0.1881 -0.2589  0.0671
41758W        W84671   2.935  17.639  26.090 -0.0276  0.1438  0.1247
41759W        W84672   3.000  12.737   5.530 -0.1329  0.1144 -0.1891
41760W        W84673   7.041  11.253  16.749 -0.1752 -0.1267 -0.1877
41761W        W84674  17.169   8.052  25.249  0.1022  0.0055  0.0099
41762W        W84675  12.246  15.109  16.345 -0.0089 -0.1208 -0.1956
41763W        W84676  14.633  12.649  20.806 -0.1268 -0.0391  0.2798
41764W        W84677  11.177  13.089  21.155  0.1731 -0.2601  0.0497
41765W        W84678  10.083  12.291  26.164 -0.0784 -0.2171  0.2158
41766W        W84679  13.490  12.156  19.359  0.1361  0.2027 -0.2169
41767W        W84680  24.050  16.789  18.348  0.4133 -0.4674 -0.0729
41768W        W84681  13.549   0.952  26.954 -0.0900 -0.0960 -0.1054
41769W        W84682   0.190   8.208  17.231 -0.1015  0.2447 -0.1783
41770W        W84683   8.994   2.828   6.717 -0.2893  0.0151  0.1125
41771W        W84684  13.919   6.785  27.764 -0.1435  0.2228  0.0621
41772W        W84685  14.682  15.086  18.813  0.4565  0.1334 -0.3704
41773W        W84686  10.242  17.171   1.149  0.2423 -0.0408 -0.0504
41774W        W84687  20.012   4.057   2.257 -0.0233 -0.2272 -0.2563
41775W        W84688   7.759   2.060   1.527 -0.2902 -0.2876  0.2345
41776W        W84689  13.469   7.881  21.651 -0.0857  0.0241 -0.2345
41777W        W84690  12.300  11.386  15.526 -0.2647  0.2951  0.0319
41778W        W84691   0.770  13.298  21.957 -0.0099 -0.1482 -0.2503
41779W        W84692   2.742  19.536  29.140  0.4101 -0.0843 -0.4821
41780W        W84693   0.229  20.817  24.047  0.0825  0.1695 -0.1638
41781W        W84694  18.859  14.170  13.153  0.0799  0.0875  0.1319
41782W        W84695  15.089   8.608  16.450  0.2281  0.0839 -0.2895
41783W        W84696   4.533   6.262  27.098 -0.0917 -0.2460 -0.1661
41784W        W84697  18.812  19.521   7.238  0.0060  0.1673 -0.1737
41785W        W84698   5.322  16.220  24.735 -0.0412  0.0146 -0.0646
41786W        W84699   5.771  11.326  27.568  0.0073  0.1415 -0.0829
41787W        W84700  10.113  17.161   1.646  0.0363  0.2838 -0.0109
41788W        W84701  10.181   7.487  18.790  0.3921 -0.1252 -0.4095
41789W        W84702  19.017  19.647  26.117  0.0766 -0.1701 -0.0327
41790W        W84703  23.210  11.065  27.017 -0.0341 -0.1636  0.2679
41791W        W84704   8.219   2.521  26.094 -0.1207  0.3700 -0.1340
41792W        W84705  11.554  15.654  15.668  0.0621  0.1241 -0.1085
41793W        W84706   8.310   5.441  10.385  0.0112 -0.0098  0.2156
41794W        W84707   3.619  11.665  25.436  0.0115  0.2883  0.1207
41795W        W84708  15.075  12.341  13.646  0.0783  0.1254  0.0934
41796W        W84709  32.376  12.988  27.961 -0.1671  0.0478  0.0409
41797W        W84710  10.011   3.344  26.671 -0.1916 -0.0172  0.0498
41798W        W84711   4.499  21.132   0.233  0.0033 -0.2625 -0.1121
41799W        W84712   5.857   7.292  17.397 -0.1238  0.3195  0.1193
41800W        W84713  34.269  14.301  26.330  0.2319 -0.2162 -0.1531
41801W        W84714  10.347   0.153  21.146  0.0031 -0.0306  0.1225
41802W        W84715  13.711   1.147  22.124 -0.2635  0.0737 -0.0225
41803W        W84716   8.258  18.199  24.642 -0.0069  0.1503 -0.1189
41804W        W84717  19.130  18.338  29.499  0.3455  0.0949 -0.0498
41805W        W84718  11.388   9.859  27.063  0.1578  0.2381 -0.0217
41806W        W84719  10.598   7.941  16.251  0.2230  0.1346 -0.0957
41807W        W84720   6.984  16.997   3.488  0.1679 -0.0050 -0.1012
41808W        W84721  14.305  22.881  23.462 -0.2940 -0.1198  0.0190
41809W        W84722  11.230  18.034  24.453 -0.0983  0.4888 -0.2015
41810W        W84723  12.340   4.840  17.429 -0.0172 -0.0872 -0.1360
41811W        W84724  15.018  13.176  27.826  0.6040  0.0522  0.1027
41812W        W84725  17.597  11.708   4.436  0.0151 -0.0253  0.1260
41813W        W84726   7.795  17.284  19.483  0.0718 -0.3050 -0.4221
41814W        W84727   7.352  15.912  22.104 -0.0497 -0.1045  0.1099
41815W        W84728  19.456   1.237  25.700  0.0925  0.0320 -0.1616
41816W        W84729  11.183  13.486   1.368  0.0436 -0.0631 -0.0403
41817W        W84730  16.292   5.245  24.238 -0.0169  0.0474  0.1097
41818W        W84731  14.453  33.767  26.405 -0.0582 -0.2687  0.2013
41819W        W84732   4.279   0.187  18.587  0.2315 -0.0292  0.0353
41820W        W84733  13.393  17.079  23.853 -0.3848  0.0578  0.4934
41821W        W84734  14.497   6.430  26.319 -0.0695  0.0814  0.1997
41822W        W84735  24.303  23.867  18.275  0.0439  0.1920  0.2125
41823W        W84736  19.447   4.207  14.765 -0.3307 -0.2839 -0.1125
41824W        W84737  10.587   7.300  21.646 -0.3573 -0.0720 -0.1700
41825W        W84738   8.480   7.464  21.740  0.0833 -0.0154 -0.0060
41826W        W84739   9.147  31.000  28.418  0.2985 -0.3641 -0.0183
41827W        W84740   6.216  19.649   9.154 -0.1412  0.2890  0.0403
41828W        W84741   5.309  13.121  17.014  0.1831  0.1397  0.1865
41829W        W84742   8.039  19.079   6.646 -0.0403  0.1562  0.2689
41830W        W84743  15.369   2.113  22.480  0.0267  0.1930  0.1551
41831W        W84744  19.748  22.906  22.500  0.1463  0.1347 -0.2990
41832W        W84745   9.116  12.348  24.377  0.1675  0.1327 -0.3804
41833W        W84746  17.262  13.810   0.070  0.0440 -0.2309  0.1725
41834W        W84747  10.642  22.224  19.397  0.1305 -0.1696 -0.1146
41835W        W84748  18.284   8.190  17.947  0.1212 -0.0091  0.0285
41836W        W84749   4.258  11.477  15.476 -0.1507  0.5336 -0.2551
41837W        W84750  34.424  29.313  18.428  0.3274 -0.2338 -0.0452
41838W        W84751   1.358  20.215  27.453  0.0473  0.2151  0.1141
41839W        W84752  11.292  23.111  15.152 -0.2464  0.0287  0.1310
41840W        W84753   4.885  14.873   8.392 -0.1433  0.2740 -0.0322
41841W        W84754  12.270  14.384  24.694  0.1200 -0.1201 -0.0464
41842W        W84755   4.815  18.083  21.342 -0.1485  0.0429 -0.2257
41843W        W84756  13.760   8.918  24.775  0.0939 -0.1174  0.2232
41844W        W84757  30.318  17.005  16.026 -0.0902 -0.1071 -0.0663
41845W        W84758   7.642   9.830  20.681 -0.0633 -0.0749 -0.2005
41846W        W84759  17.957  13.485  26.649  0.0113 -0.2487  0.1892
41847W        W84760   8.912   6.602  29.529 -0.2229 -0.0367 -0.2113
41848W        W84761  16.356  13.709  24.762  0.0108  0.1136 -0.4619
41849W        W84762   8.877   9.469  27.415 -0.0114 -0.4141  0.1774
41850W        W84763   4.863   0.880  29.186  0.0314  0.1468  0.1604
41851W        W84764  14.539  12.349  17.071 -0.2662 -0.0872 -0.3437
41852W        W84765  16.570  25.402   0.546  0.1143 -0.0599 -0.1864
41853W        W84766  15.065  13.166  22.047 -0.1910 -0.3385  0.3647
41854W        W84767   5.880  33.626  21.492  0.2276 -0.2882 -0.2700
41855W        W84768  16.368  31.318  18.529  0.2498 -0.2599  0.2283
41856W        W84769  13.916  13.834  28.862  0.1233 -0.2777 -0.0628
41857W        W84770   5.029  21.117   0.227 -0.0495  0.2926 -0.4476
41858W        W84771  11.668  17.492  14.142  0.1806 -0.0569 -0.0131
41859W        W84772   1.898  16.253  23.637  0.0174  0.2126 -0.0538
41860W        W84773   5.466   8.472   2.746 -0.3558 -0.2368 -0.1877
41861W        W84774  14.890  12.022  25.133  0.3643 -0.0789  0.2989
41862W        W84775  11.688   1.318  17.180 -0.1540 -0.0926  0.0603
41863W        W84776  29.641  10.681  14.989 -0.2902  0.0164  0.3661
41864W        W84777   2.134  12.332   6.896  0.2627  0.1135  0.2563
41865W        W84778   0.078  22.876  22.667 -0.0724  0.3151 -0.1458
41866W        W84779   7.986   8.000   2.446 -0.0836 -0.2638 -0.0268
41867W        W84780  12.160  21.070  24.275  0.1571  0.2367  0.1519
41868W        W84781  31.920  15.474  19.660 -0.0664  0.0959  0.1498
41869W        W84782  10.515  11.011  26.797 -0.4070  0.0063 -0.0788
41870W        W84783  16.500  32.920  20.602  0.1432 -0.1664 -0.0956
41871W        W84784  12.760  12.778  19.849 -0.3755  0.2114 -0.1382
41872W        W84785  15.642  12.506   0.391 -0.4522 -0.1188 -0.0520
41873W        W84786   7.209   5.143  25.146  0.1375 -0.0039  0.1543
41874W        W84787  15.309  14.696  29.223  0.0966  0.0541  0.1339
41875W        W84788   8.109   5.065  17.005 -0.1028  0.2571  0.1624
41876W        W84789   1.570  14.962  17.780 -0.4890  0.0434 -0.3556
41877W        W84790   7.745  13.062  27.479 -0.1297  0.0052  0.0235
41878W        W84791  12.346   7.756  17.206  0.0477  0.2520 -0.0299
41879W        W84792   9.256  20.114  29.394  0.0374 -0.3400 -0.4533
41880W        W84793  15.517   4.941  21.480 -0.0942  0.0084 -0.0248
41881W        W84794  28.906  20.946  27.147 -0.6476 -0.0621  0.0901
41882W        W84795   8.862  17.479  25.095  0.0584  0.0107 -0.3705
41883W        W84796   4.581  13.498  26.038  0.1361 -0.1238  0.0805
41884W        W84797   4.970   2.505  23.316  0.1065  0.2770  0.0349
41885W        W84798  16.291  11.671  16.480 -0.1478  0.0962  0.0294
41886W        W84799   8.673  13.109  29.491 -0.0423 -0.2813  0.1811
41887W        W84800   5.855  15.973  24.569  0.0040  0.2159 -0.0148
41888W        W84801   5.571  19.465  22.734 -0.1475 -0.0122 -0.1469
41889W        W84802   3.866   7.092  18.289  0.0491 -0.0014  0.0731
41890W        W84803  12.093   6.342  26.502 -0.0141  0.0253 -0.0778
41891W        W84804  11.046  24.938  23.602  0.0057  0.1509  0.0960
41892W        W84805  17.936  11.968  29.405 -0.0846  0.3723  0.3870
41893W        W84806   7.356  17.601  19.998  0.0564  0.0210 -0.0354
41894W        W84807   1.630   3.728  22.579  0.0864 -0.1783 -0.3382
41895W        W84808   5.503   7.242  19.845 -0.0357 -0.1941  0.0938
41896W        W84809  13.763   7.492   3.629 -0.0559  0.1266 -0.1977
41897W        W84810   7.762   9.829  27.643  0.3636  0.1745 -0.1742
41898W        W84811  31.305  11.822  17.989  0.1560 -0.0979  0.4864
41899W        W84812  19.221   3.150  19.811  0.1299 -0.2450  0.2455
41900W        W84813  14.676  11.190  21.875 -0.1108  0.1848 -0.3489
41901W        W84814   7.654   3.659  28.727 -0.1006  0.1853  0.5339
41902W        W84815  12.207   8.307  20.333  0.1599 -0.1504  0.1055
41903W        W84816  18.165   6.898  16.914  0.1212  0.0924  0.0290
41904W        W84817   1.975  15.100  24.320 -0.3898 -0.4508 -0.2775
41905W        W84818  17.090  19.136  26.438  0.2271 -0.1231 -0.2990
41906W        W84819  18.055   9.774  27.721 -0.1431 -0.0081  0.3360
41907W        W84820   8.174  12.006  26.693 -0.1947  0.1255 -0.0990
41908W        W84821   5.724  22.518  26.672 -0.0884 -0.1252  0.1159
41909W        W84822   6.349  15.560  13.475  0.2621 -0.3011  0.0189
41910W        W84823  13.663   5.781  27.686  0.2203  0.2322  0.1874
41911W        W84824   8.591   2.227  25.778 -0.1804  0.1445  0.0133
41912W        W84825  16.249  11.112  17.218  0.1504  0.3184 -0.0438
41913W        W84826  11.072  15.535   1.037  0.2129 -0.0181 -0.1596
41914W        W84827  10.902   9.386  20.104 -0.1645 -0.0874 -0.1385
41915W        W84828   1.999  27.476  28.710  0.4055  0.1621  0.0900
41916W        W84829  12.085   7.330  25.029 -0.4993 -0.2563 -0.2957
41917W        W84830  10.159   0.757  22.477 -0.0372  0.1738  0.1794
41918W        W84831  24.870   4.025  21.507  0.4518  0.0442 -0.1227
41919W        W84832  24.655   9.236  18.675  0.2450 -0.2106  0.0208
41920W        W84833   9.023  15.374  22.997  0.0095 -0.0321  0.1280
41921W        W84834  16.817   4.606  24.726 -0.3521 -0.0317 -0.3290
41922W        W84835  14.465  11.431  25.993 -0.1638  0.1674  0.0132
41923W        W84836  15.115  11.231   0.977 -0.1731  0.1627  0.0293
41924W        W84837  19.001  17.484  26.850  0.2815 -0.0653  0.1595
41925W        W84838  13.091   9.751  26.235 -0.1424  0.2728  0.2347
41926W        W84839   1.922   8.307  20.332 -0.0595  0.1694  0.3389
41927W        W84840  10.314  12.585  16.746 -0.0387  0.0895  0.0430
41928W        W84841  15.634   4.392  26.621  0.3157  0.0690  0.0383
41929W        W84842  10.613  25.159  24.737 -0.1549  0.0659  0.1000
41930W        W84843  10.990  15.683  20.401  0.1035  0.0824  0.1436
41931W        W84844   2.725  11.290  17.011  0.1409  0.1000  0.1201
41932W        W84845   8.930  19.296  24.333  0.0326  0.0075 -0.0954
41933W        W84846  24.036  13.698  20.175  0.2821  0.2008  0.0177
41934W        W84847   8.203  12.248  27.208  0.1348 -0.1309 -0.1432
41935W        W84848   9.400  18.486  29.132  0.0186 -0.2972 -0.3149
41936W        W84849   7.516  23.863  21.377  0.0357  0.2247 -0.3448
41937W        W84850  13.941   6.434  14.439 -0.0610  0.3347 -0.0383
41938W        W84851  31.719  18.707   0.042 -0.0488  0.1308  0.1817
41939W        W84852   8.926  15.007  25.238  0.1513  0.1678  0.3679
41940W        W84853  11.827  14.315  26.229 -0.1128  0.1720  0.2390
41941W        W84854   3.830  21.211  18.371  0.0683  0.1469 -0.2171
41942W        W84855  13.423   4.278   1.392  0.1673 -0.2628  0.0761
41943W        W84856  10.807  11.822  21.728  0.0970  0.0909 -0.1244
41944W        W84857  12.266   9.476  14.800 -0.1086 -0.1199  0.1661
41945W        W84858   8.230   7.597  25.571 -0.0113 -0.0566  0.1901
41946W        W84859  17.106   7.234  21.188 -0.0933  0.2141 -0.4938
41947W        W84860   8.689  15.728   0.926  0.0023 -0.0351 -0.1159
41948W        W84861   6.914  10.541  24.092  0.1831 -0.3062  0.3803
41949W        W84862   5.314   7.905  26.390  0.1078 -0.2422 -0.4127
41950W        W84863   8.625  19.799  24.217 -0.3409  0.2165 -0.3360
41951W        W84864   6.566   9.421   1.957 -0.2884  0.0550  0.1190
41952W        W84865   6.942   6.509  17.841  0.1805  0.0175  0.1360
41953W        W84866  15.511   9.818  19.850 -0.1313 -0.0340 -0.0977
41954W        W84867   5.061  14.296   4.417  0.5621 -0.0274  0.0640
41955W        W84868   9.835  15.647   0.166  0.0313 -0.0346 -0.2534
41956W        W84869  12.442   0.144  25.788 -0.1186 -0.1776  0.1350
41957W        W84870   3.821  14.786   4.986  0.0277 -0.1031  0.0429
41958W        W84871  10.393   6.895  21.425 -0.0798 -0.1163  0.2112
41959W        W84872  11.267   1.641  17.904 -0.2136 -0.1001  0.0985
41960W        W84873  10.975   6.571  20.690 -0.1927 -0.1561 -0.1552
41961W        W84874  12.120   9.786  15.948  0.0893  0.0465 -0.3141
41962W        W84875  13.255  16.548  14.039  0.2767 -0.4117  0.0640
41963W        W84876   6.389  11.013  22.102  0.1758  0.2230 -0.3883
41964W        W84877  21.555  12.837  24.585 -0.0619 -0.2332 -0.2449
41965W        W84878   5.946  19.860  23.898  0.2270  0.0450 -0.3338
41966W        W84879  15.477   9.468  20.275 -0.0553 -0.1855 -0.4576
41967W        W84880  19.080  12.746  23.055 -0.1249 -0.0913 -0.0761
41968W        W84881   5.256  15.540  29.006 -0.0723  0.2057 -0.0396
41969W        W84882  13.584   1.843  26.142 -0.2048 -0.1553 -0.0344
41970W        W84883  14.860  13.966  14.269  0.3413 -0.3939  0.1072
41971W        W84884  28.335   8.753  25.479 -0.1919  0.2074 -0.1277
41972W        W84885   9.473  32.871  25.475 -0.0906  0.2060  0.0853
41973W        W84886  15.077   9.221   2.960  0.0885  0.1520 -0.0107
41974W        W84887  16.248  22.533   6.355  0.0255  0.1606  0.1440
41975W        W84888   5.999  15.072  22.465 -0.1259 -0.0881 -0.2531
41976W        W84889   9.944  17.629  14.416  0.0149 -0.0687  0.0167
41977W        W84890   5.524  25.418  24.233  0.3741  0.3526  0.0588
41978W        W84891   5.553  15.148  26.477  0.2804 -0.0713  0.2691
41979W        W84892  12.961   9.540  27.409 -0.1791  0.1938  0.1772
41980W        W84893  12.493  12.600  23.636 -0.1424  0.1233  0.1712
41981W        W84894  19.618   9.175   6.964  0.0107 -0.0022  0.1537
41982W        W84895  10.464  12.775  24.613  0.0325 -0.1815  0.1178
41983W        W84896  13.375  12.559  27.045 -0.1196 -0.4147  0.4442
41984W        W84897  11.877  14.159   5.338 -0.1108  0.2869  0.1527
41985W        W84898  17.336  23.728  18.589  0.1432 -0.0929 -0.0613
41986W        W84899   6.043   8.812   8.858 -0.0799  0.1506  0.1774
41987W        W84900   8.422   4.663  28.933 -0.1529 -0.1903 -0.1717
41988W        W84901   5.448  11.383  18.302  0.0513  0.2164 -0.0247
41989W        W84902  10.833   2.119  22.406 -0.0255 -0.1336  0.0395
41990W        W84903  13.960  16.423   0.834  0.3145  0.0599  0.0605
41991W        W84904   8.571  11.607   0.714  0.0169 -0.1887  0.1391
41992W        W84905  11.857   8.999  21.996 -0.0351  0.3484 -0.0834
41993W        W84906  21.974  11.083  24.341 -0.1724 -0.0022 -0.2228
41994W        W84907  13.044  18.473  22.622  0.1017  0.0788  0.1103
41995W        W84908  13.643   6.635  19.008  0.0256 -0.0913 -0.0186
41996W        W84909   8.654  20.087   7.773 -0.0042  0.0454  0.3304
41997W        W84910   4.481  14.135  25.701  0.0053 -0.4335  0.0653
41998W        W84911   7.744  11.113   6.913 -0.2516  0.0651 -0.2834
41999W        W84912  29.719  14.304  22.937 -0.1532 -0.0253 -0.3192
42000W        W84913   2.676  26.141  19.946 -0.1481 -0.2317 -0.2136
42001W        W84914   8.007  12.306   3.233  0.2393  0.0257  0.0273
42002W        W84915  31.915  16.344  20.223 -0.1179 -0.0788 -0.2019
42003W        W84916  33.364  23.952  28.662 -0.0882 -0.0336 -0.2733
42004W        W84917   6.037  21.930  25.002  0.2786 -0.1611  0.0643
42005W        W84918  17.057   7.529  26.875 -0.0738 -0.0517  0.0106
42006W        W84919   1.982  10.442  25.495  0.0121  0.0904  0.1140
42007W        W84920  34.355  20.716   0.863 -0.0210  0.0954  0.1781
42008W        W84921   9.173  22.986  14.262 -0.0968  0.0214  0.1651
42009W        W84922  15.471  15.180   5.223 -0.1168 -0.0605 -0.3743
42010W        W84923   0.780   7.040   1.021 -0.0309 -0.0945  0.2877
42011W        W84924  11.342  21.130  21.527 -0.3882  0.1986 -0.3907
42012W        W84925  10.779   8.497   8.392  0.0936  0.1744  0.0416
42013W        W84926  17.406   8.419  14.528  0.0494 -0.1565 -0.2584
42014W        W84927   6.570  32.297   2.646  0.0413 -0.1802 -0.1183
42015W        W84928  11.301  28.461  26.146  0.1280  0.2385 -0.0977
42016W        W84929   9.344  11.854   2.744  0.0295 -0.1147 -0.2541
42017W        W84930   8.837   5.900  23.791 -0.4046  0.1296  0.1837
42018W        W84931  15.094  10.502  24.190 -0.0400 -0.0358  0.0850
42019W        W84932   9.706  16.518   6.709 -0.1809 -0.0383  0.1093
42020W        W84933  17.778  15.801  24.437 -0.1471  0.0101  0.0867
42021W        W84934  18.907   3.540  20.795  0.3018  0.3465  0.1873
42022W        W84935  13.288  13.920  26.043  0.0901  0.0325  0.0160
42023W        W84936  11.139  21.090   6.100  0.1736  0.0986 -0.4784
42024W        W84937   6.606  12.211  24.766 -0.0550 -0.1855  0.2581
42025W        W84938   1.477  14.364  25.870 -0.0207 -0.1561 -0.2600
42026W        W84939  19.868  29.893  18.463  0.0213 -0.0364  0.0112
42027W        W84940   4.256   4.102  19.506 -0.3369 -0.0750 -0.3373
42028W        W84941   1.855  26.518  26.833  0.2742  0.2276  0.0247
42029W        W84942  27.978  16.169  25.358 -0.0406  0.2986  0.0475
42030W        W84943   8.231  13.424  22.317  0.1050 -0.0957 -0.0632
42031W        W84944   6.105   3.152  27.625 -0.1512 -0.2349 -0.4015
42032W        W84945  14.434  15.887  22.077 -0.1853  0.0177  0.0995
42033W        W84946  15.176  12.158  29.715  0.1176 -0.0032  0.3677
42034W        W84947  15.690   1.962  26.496 -0.2643  0.0547 -0.3171
42035W        W84948  18.078   6.360   8.925  0.0592 -0.0708 -0.0460
42036W        W84949   7.149  19.035   2.323 -0.2818 -0.0464 -0.0737
42037W        W84950  19.178  11.794   5.803  0.0971 -0.0483 -0.2125
42038W        W84951   0.558  10.896   2.509 -0.1295 -0.0414 -0.0751
42039W        W84952  10.232   2.967  25.051 -0.0957  0.3620 -0.2473
42040W        W84953   7.650  31.578   5.428  0.0034  0.5043 -0.1460
42041W        W84954  30.822  25.313   4.464 -0.0120  0.0577 -0.0021
42042W        W84955  10.441  18.024  25.547  0.1238  0.1086 -0.2705
42043W        W84956   6.805   9.234  23.411 -0.0745  0.3085  0.0714
42044W        W84957   6.315   4.294  23.911 -0.1555 -0.1657  0.0260
42045W        W84958   0.808   8.231  25.611 -0.0047  0.3341  0.0877
42046W        W84959  20.121   5.446   7.848 -0.0581 -0.1178  0.2794
42047W        W84960   9.815  16.711  27.685  0.2172  0.1465  0.1209
42048W        W84961  15.578  10.589  27.973  0.2123  0.1535  0.1204
42049W        W84962  14.015  13.092  22.068 -0.2039  0.0490  0.3408
42050W        W84963  14.090  10.654  14.840 -0.0436 -0.0870  0.3974
42051W        W84964   6.781  18.892  29.013 -0.1811 -0.0870  0.2313
42052W        W84965  15.456  11.470   3.483  0.1390 -0.1441 -0.1742
42053W        W84966   8.525  11.537   2.496  0.1423 -0.0275  0.0245
42054W        W84967  11.403  11.889   1.972  0.2042 -0.0362  0.1993
42055W        W84968   2.874   2.560   1.258  0.2625 -0.1042  0.1118
42056W        W84969  17.997   9.738  21.785 -0.0200 -0.1105 -0.3044
42057W        W84970  10.486  11.842   8.668 -0.1128 -0.1077 -0.0282
42058W        W84971   8.921   8.254  25.272 -0.2623  0.0937 -0.1862
42059W        W84972  12.230   5.685  28.285  0.1378 -0.0756 -0.0241
42060W        W84973   2.540   7.585  18.702  0.0449  0.0623  0.0228
42061W        W84974  34.443  11.732   5.071 -0.2193 -0.0324 -0.2265
42062W        W84975  12.058  18.197  19.317 -0.0392  0.0846 -0.1342
42063W        W84976   7.969   9.101   0.627 -0.0425  0.0492  0.0046
42064W        W84977  13.127  14.697   0.470 -0.0913  0.0216 -0.2907
42065W        W84978  12.221   7.726  22.742 -0.0056  0.2106  0.0510
42066W        W84979   9.217  23.355   5.508 -0.0728  0.0638 -0.2340
42067W        W84980  32.895  17.961  25.161  0.3509  0.1498  0.2348
42068W        W84981  10.795   7.387  19.489 -0.1383  0.0854 -0.1834
42069W        W84982  13.012  16.072   3.446 -0.3739 -0.0379  0.0072
42070W        W84983  15.332  14.881   3.737  0.0149 -0.2356 -0.1806
42071W        W84984  11.664  14.051   2.626  0.2465 -0.2798  0.1817
42072W        W84985  12.290  10.721   8.368  0.1418  0.1881  0.1237
42073W        W84986  15.330  22.096  24.401 -0.0997 -0.1944  0.0549
42074W        W84987  10.498   3.930  26.633 -0.0211 -0.1014 -0.0108
42075W        W84988  16.040  24.600  27.982  0.1086 -0.0647 -0.1030
42076W        W84989   6.572   3.722  27.877 -0.1120 -0.0210 -0.2201
42077W        W84990  17.484   6.139  28.773 -0.2295  0.0650 -0.2072
42078W        W84991  11.239   9.406  19.053 -0.0042 -0.2071 -0.2188
42079W        W84992   9.482  11.187   7.942 -0.0943  0.1102  0.0720
42080W        W84993   7.011  10.264  25.756  0.1426 -0.0983  0.0353
42081W        W84994   1.410  10.979  29.685 -0.2392 -0.1410  0.0513
42082W        W84995  12.685  15.513  25.548 -0.0645 -0.1608  0.0199
42083W        W84996   8.370  19.397  24.709 -0.2465  0.1745 -0.0586
42084W        W84997  12.393  21.479  24.057 -0.1583 -0.1025  0.2679
42085W        W84998   6.405  12.546   4.721 -0.1257  0.0866 -0.2329
42086W        W84999  28.074   0.271   5.293 -0.0988  0.0152  0.0074
42087W        W85000   8.362  15.616  28.100 -0.2420  0.2663  0.1484
42088W        W85001   5.198  18.465   3.411 -0.0544 -0.1115  0.0314
42089W        W85002   0.909  11.429  26.471 -0.0373 -0.0548 -0.0304
42090W        W85003   4.386  11.013   8.225 -0.0862  0.1722 -0.0839
42091W        W85004   4.206   8.461  19.942  0.2720  0.0733  0.2365
42092W        W85005  13.783  15.293  18.691  0.0496  0.0811 -0.1054
42093W        W85006  16.770  16.136  25.467 -0.0690  0.0119 -0.1446
42094W        W85007  15.538  15.548   1.548 -0.0158  0.1253  0.1392
42095W        W85008  11.574   5.944  21.833 -0.2425  0.1739 -0.0260
42096W        W85009  17.306  15.251   6.858  0.2031 -0.0782  0.0308
42097W        W85010   0.733  12.025  29.316  0.1205 -0.1614 -0.0886
42098W        W85011  11.282  17.298  13.788  0.0608 -0.1982 -0.1395
42099W        W85012   2.540  10.588  17.778 -0.2278 -0.0406 -0.3318
42100W        W85013   2.737   6.168  17.426 -0.1857 -0.2778 -0.2610
42101W        W85014  16.312  17.901   3.916  0.1527 -0.0345  0.0943
42102W        W85015   4.978   5.367  27.990 -0.2873 -0.3437  0.0473
42103W        W85016  10.942  10.329  21.910  0.0576  0.1608  0.1492
42104W        W85017  11.012  10.170  27.323 -0.2011  0.0611  0.1622
42105W        W85018   7.588  22.743   0.431 -0.0045  0.0896 -0.1745
42106W        W85019   2.139   1.520  28.232 -0.0960  0.2012 -0.3870
42107W        W85020   6.589   2.694  25.008 -0.2158 -0.0828 -0.2801
42108W        W85021  11.796  12.215  24.973 -0.0062  0.1822  0.3216
42109W        W85022  33.083  12.783   3.907  0.0907 -0.0420 -0.2868
42110W        W85023   3.889  20.605  25.482 -0.3355 -0.1406  0.0888
42111W        W85024  13.887  17.419  16.363  0.2430 -0.4222  0.1957
42112W        W85025  23.127   3.397   7.791 -0.0962  0.2314 -0.1822
42113W        W85026   6.294  11.864   1.325 -0.2712  0.1311  0.0669
42114W        W85027  16.366   7.519   4.207 -0.0465 -0.3990  0.1178
42115W        W85028   8.907  19.529  23.854  0.2241  0.0352  0.2747
42116W        W85029  11.539  10.623  20.424 -0.0846 -0.3144  0.0730
42117W        W85030  15.882   8.333   0.924  0.0044 -0.3119 -0.1716
42118W        W85031   6.767  12.224   3.280  0.0161 -0.0995  0.0771
42119W        W85032   5.936  24.647  18.660  0.0431 -0.0891  0.0672
42120W        W85033   6.454  10.126  23.581 -0.0394 -0.0851 -0.0943
42121W        W85034   1.294  12.117  27.476  0.3058 -0.1416  0.1282
42122W        W85035  10.902   7.140  28.974  0.0906  0.1516 -0.3096
42123W        W85036  21.872  12.775  22.471  0.1443  0.0571  0.2081
42124W        W85037   4.540   9.352  20.381 -0.3813 -0.0109  0.1357
42125W        W85038   6.260  24.200  24.013  0.2757 -0.0553  0.1213
42126W        W85039  13.262  12.343  25.026  0.1513  0.0036  0.0418
42127W        W85040   9.790  18.120  24.478  0.1992 -0.1200 -0.0974
42128W        W85041  27.798  20.489   3.794 -0.0631  0.1285  0.1390
42129W        W85042  12.597  15.010  14.502 -0.0339  0.1749 -0.0022
42130W        W85043   4.990   6.397  24.707 -0.2379  0.0650 -0.2554
42131W        W85044   8.129  18.210   1.069 -0.1768  0.1105 -0.3370
42132W        W85045  10.455  15.359   0.292  0.1833  0.1717  0.1147
42133W        W85046  15.138  13.492  27.308 -0.0113  0.1708 -0.0647
42134W        W85047  12.907   6.100  22.841  0.0333 -0.0276  0.1426
42135W        W85048   7.700  10.843  23.448 -0.0011  0.1248  0.3667
42136W        W85049   8.561  13.217  10.189  0.1342  0.1508 -0.4248
42137W        W85050  22.836  19.799  28.174 -0.1993  0.3996  0.1084
42138W        W85051   6.200   6.031   3.840 -0.1691 -0.2142 -0.0176
42139W        W85052  12.434   5.191  19.675 -0.0266 -0.0177  0.0262
42140W        W85053  15.676  18.316  24.734 -0.0887  0.0654 -0.2419
42141W        W85054  11.695  17.164   2.066 -0.1503 -0.2343 -0.1226
42142W        W85055   4.866  18.979   9.231  0.1175 -0.1003 -0.0030
42143W        W85056   9.823  13.210  28.888 -0.0440 -0.0287  0.2030
42144W        W85057  19.992  18.150   0.170 -0.1349 -0.0893  0.1805
42145W        W85058  16.933  17.178  27.310 -0.2007  0.0515  0.1182
42146W        W85059  17.440  26.872  21.404  0.2479  0.0535 -0.2153
42147W        W85060  18.313  10.285   1.423  0.3048 -0.2200  0.3205
42148W        W85061   6.099  12.281   2.091  0.0449 -0.2330  0.0239
42149W        W85062  16.293  17.458   2.281  0.2048  0.3048  0.2431
42150W        W85063   9.940  11.966  23.394 -0.2334 -0.2324 -0.2669
42151W        W85064   1.405  14.347  20.156  0.2234 -0.1556 -0.0871
42152W        W85065   5.087  11.931   9.269  0.0161 -0.1305 -0.1402
42153W        W85066   2.012  14.070  25.011  0.0351  0.1420  0.0389
42154W        W85067   6.429  15.356   1.500  0.0717  0.2762  0.0094
42155W        W85068  10.783   2.383  23.489  0.4210 -0.4015 -0.1120
42156W        W85069   2.126   9.624  25.928 -0.0030  0.2697  0.1371
42157W        W85070   7.701   4.143  26.463 -0.4778  0.0746 -0.2803
42158W        W85071  10.286   2.896  26.498  0.2474 -0.0979 -0.2172
42159W        W85072  11.158  13.135   7.719 -0.2081 -0.0814 -0.0575
42160W        W85073   8.029  32.318   3.214 -0.2266  0.0708 -0.0795
42161W        W85074   8.439  17.379   0.633  0.1863  0.0682  0.2601
42162W        W85075   9.483  17.455   6.032 -0.0838  0.0549  0.1090
42163W        W85076  11.670  11.395   3.407  0.1423  0.0262  0.3524
42164W        W85077   8.054   3.554  19.091  0.4786 -0.2137  0.1117
42165W        W85078  11.053   7.784   1.818  0.0280 -0.0828 -0.2635
42166W        W85079   9.623  16.303  27.888  0.0462 -0.0159  0.2434
42167W        W85080  33.084   9.650  26.066  0.0389  0.3212 -0.3461
42168W        W85081   5.810  14.199  29.453 -0.0398  0.0302  0.5538
42169W        W85082   9.952  11.522  11.248 -0.2103 -0.0423 -0.0452
42170W        W85083  11.221   6.891  23.901  0.3712 -0.2571 -0.1646
42171W        W85084   5.295  11.207  23.730 -0.1089  0.0089 -0.2479
42172W        W85085  11.894   0.645   1.959 -0.2074 -0.0840 -0.1234
42173W        W85086   4.730   6.106   0.451 -0.0571  0.2373  0.0804
42174W        W85087  28.303  10.427  29.285  0.0505  0.0501  0.2074
42175W        W85088  10.860  15.993   0.811  0.0646  0.1449 -0.1660
42176W        W85089  32.376  14.908  29.393  0.0496  0.2717 -0.0844
42177W        W85090  11.527  12.238  21.164  0.0950  0.3206 -0.0600
42178W        W85091   7.902  33.340  17.985 -0.1312  0.0683 -0.1209
42179W        W85092  14.160  17.304  28.535  0.0999  0.0296  0.0527
42180W        W85093   9.562  27.153  22.631  0.2365  0.0233  0.1007
42181W        W85094   7.921  10.970   0.811  0.2677  0.2826 -0.2212
42182W        W85095  13.281   8.149   0.905  0.1336 -0.2351  0.2433
42183W        W85096   5.862  23.363   0.046 -0.0689  0.1308  0.2920
42184W        W85097  11.968   9.014  26.528 -0.0230 -0.1064  0.0788
42185W        W85098  25.141  17.460  27.368  0.2361 -0.2065 -0.0289
42186W        W85099   5.771   1.275  25.072  0.0501  0.0044  0.1708
42187W        W85100  17.815  13.606  16.396  0.0119  0.1735  0.1134
42188W        W85101  15.132  17.986   3.241 -0.0021  0.0292 -0.1773
42189W        W85102   6.899   6.116  19.851 -0.1561  0.2197  0.0781
42190W        W85103  13.574   5.446  22.530  0.2079 -0.3133  0.0182
42191W        W85104   0.906  13.286   4.555 -0.0458 -0.1002  0.0790
42192W        W85105   8.285   6.922  18.230 -0.1057 -0.0647 -0.0489
42193W        W85106  15.180   9.354  19.800 -0.2099 -0.1723 -0.3504
42194W        W85107   2.229  30.388  22.985  0.1727  0.1153  0.0996
42195W        W85108  34.121  19.641  24.318  0.1142 -0.2304  0.0928
42196W        W85109  14.293  14.426  18.384  0.1564 -0.3647  0.0961
42197W        W85110   8.993  19.656  29.709  0.3888 -0.2160  0.1127
42198W        W85111  15.053   5.480  10.505  0.2524 -0.1127  0.2016
42199W        W85112  15.117   9.834  27.398  0.1941  0.1432 -0.0018
42200W        W85113  15.989  13.013  12.212  0.0929 -0.1207  0.1805
42201W        W85114  12.990  14.220  24.116  0.0251 -0.1957  0.0547
42202W        W85115  16.985  20.421  21.809  0.0363 -0.2519 -0.2618
42203W        W85116   7.100  11.067  19.870  0.2165  0.2561  0.2166
42204W        W85117  22.886  15.380   4.765  0.1160 -0.4004 -0.1312
42205W        W85118   1.477  13.235   4.507  0.0458  0.2295  0.4965
42206W        W85119   6.171   6.399  12.693 -0.1115  0.0295  0.0518
42207W        W85120   9.281  11.272   1.988 -0.1179 -0.2217 -0.4002
42208W        W85121   7.454  20.293  21.566 -0.2934 -0.2484 -0.1498
42209W        W85122  33.885  11.572   2.195 -0.0344 -0.2483 -0.3464
42210W        W85123   2.576  11.343  21.035 -0.0286 -0.0680 -0.1611
42211W        W85124  12.166  19.624   5.281 -0.1995 -0.1717 -0.1409
42212W        W85125  15.429  12.755  21.101 -0.0425 -0.3931 -0.0384
42213W        W85126   7.699  15.579  25.148 -0.0589 -0.2717 -0.1005
42214W        W85127   7.329  15.753   4.006  0.0655  0.0261  0.0913
42215W        W85128  17.820   9.928  26.361 -0.1238  0.0206 -0.2890
42216W        W85129   4.004  14.174  27.205 -0.1424 -0.0911 -0.0861
42217W        W85130   4.058   5.893   4.145  0.0611 -0.0535 -0.0643
42218W        W85131  27.055  16.413  27.419  0.0356  0.3334 -0.2428
42219W        W85132   7.037  10.552   0.894 -0.2857 -0.1946 -0.1429
42220W        W85133  10.433   8.711   6.514 -0.2867  0.2605 -0.2476
42221W        W85134   9.523  17.611  27.930 -0.2293 -0.1481 -0.1240
42222W        W85135   9.312  16.872  27.245 -0.2579 -0.2932  0.2856
42223W        W85136  34.456   4.568  29.638 -0.0614 -0.0272 -0.2895
42224W        W85137  11.039  25.233  29.557 -0.3692  0.0460  0.2270
42225W        W85138  11.635  14.281   6.109  0.1131  0.1834 -0.1437
42226W        W85139  12.803  13.174  29.183  0.0173 -0.0538 -0.0515
42227W        W85140   4.017  17.510   2.274 -0.2835 -0.1464 -0.2149
42228W        W85141   6.957   8.531  17.457  0.2338 -0.1909 -0.1537
42229W        W85142   4.584  12.515  27.611 -0.2879  0.3230 -0.4039
42230W        W85143  13.863  11.385  22.988 -0.0594 -0.1064  0.0701
42231W        W85144  12.818  16.482  28.316  0.0607  0.0708  0.0732
42232W        W85145  30.796   8.879   5.535  0.0231  0.0473  0.4089
42233W        W85146  15.494  25.429   8.492 -0.2722  0.0832  0.1642
42234W        W85147  16.591   5.332  23.274  0.1936  0.0602 -0.3271
42235W        W85148   6.836  15.248   0.017  0.0750 -0.0675 -0.0697
42236W        W85149  17.039  16.368   1.557 -0.0055 -0.2353 -0.3873
42237W        W85150  12.666  19.392   4.009 -0.2752 -0.2031  0.2667
42238W        W85151   4.841  11.224  16.884  0.0707 -0.0314 -0.0138
42239W        W85152  10.647   7.667  21.929 -0.1600  0.1253  0.0379
42240W        W85153   0.119  18.974  27.653 -0.1582  0.1033 -0.2654
42241W        W85154   3.175   7.437   3.587 -0.1311 -0.1379  0.2371
42242W        W85155  14.419   5.887  27.876  0.2068 -0.0068 -0.2849
42243W        W85156   7.940  20.823  26.926  0.1262 -0.0494 -0.2245
42244W        W85157  10.927  13.682   0.921 -0.2808 -0.0885 -0.1203
42245W        W85158  12.365  24.226  26.148  0.0789  0.1277  0.1641
42246W        W85159  33.086  20.274   6.944  0.0783 -0.3508 -0.0011
42247W        W85160  13.435   8.562  23.363 -0.0015 -0.2303  0.0450
42248W        W85161  34.373   3.010  24.214 -0.2833 -0.3295 -0.0830
42249W        W85162   9.713  32.287   1.434 -0.0664 -0.0994 -0.1930
42250W        W85163  12.173  17.487   3.287 -0.0132 -0.2209  0.1210
42251W        W85164  14.450   8.462  28.182  0.0174 -0.0876 -0.1914
42252W        W85165   2.039  24.703  19.806  0.1132 -0.0828  0.1304
42253W        W85166   3.896  16.746  24.200 -0.2504  0.3591  0.0128
42254W        W85167   0.102  15.363  22.430  0.2973 -0.0272 -0.2036
42255W        W85168   8.759  12.566   4.208  0.2937 -0.4291 -0.2166
42256W        W85169   9.613   7.710  24.457  0.1394 -0.1920 -0.0053
42257W        W85170  33.449  21.464   2.484  0.0021 -0.2045 -0.1566
42258W        W85171  13.788  13.631  18.906  0.3675  0.0021 -0.0413
42259W        W85172  22.515   8.992  29.301  0.2319 -0.2529 -0.1533
42260W        W85173  24.029   6.947   0.320 -0.2758 -0.1622  0.0538
42261W        W85174   3.061  11.707  24.561 -0.1658 -0.1039  0.1567
42262W        W85175   5.718  15.134  29.579  0.2782  0.1468 -0.1291
42263W        W85176  19.661   8.805  21.251  0.2322 -0.0275  0.0957
42264W        W85177  13.026  21.985   1.856  0.2180 -0.0866 -0.2532
42265W        W85178   7.647  15.509   1.307  0.3377 -0.1481  0.1221
42266W        W85179  16.530  20.847   5.609  0.2486  0.1333 -0.0008
42267W        W85180  12.451  13.889  23.130  0.0649 -0.2760 -0.1442
42268W        W85181   6.187   7.661   2.507  0.0687 -0.1676 -0.2928
42269W        W85182  16.501  12.617  23.585  0.2678 -0.0670  0.2524
42270W        W85183   9.095   8.840  26.749  0.0736 -0.2061 -0.0622
42271W        W85184   3.366   9.533  21.104 -0.3386  0.3529 -0.0257
42272W        W85185  13.917   7.655  21.956  0.0091  0.0728  0.1264
42273W        W85186  11.706  11.308   2.121 -0.1043 -0.1029  0.0280
42274W        W85187  33.135  14.020  24.857  0.1173 -0.1108  0.0786
42275W        W85188   5.731   8.025  26.640  0.0328  0.0825 -0.0105
42276W        W85189  13.257  12.006  23.703  0.0164  0.0947  0.0558
42277W        W85190  13.653  13.781  25.713  0.0108 -0.0246 -0.1012
42278W        W85191   8.820   5.439   4.231  0.2146 -0.3479  0.1484
42279W        W85192   9.614   7.982  20.603 -0.0203  0.2889  0.0055
42280W        W85193   7.109   7.908   3.660 -0.1758  0.2399  0.1200
42281W        W85194  11.378  14.739   8.574  0.0211 -0.0256  0.0785
42282W        W85195   9.631  17.178   0.960 -0.0070 -0.0210 -0.2296
42283W        W85196   3.508   5.322   3.701  0.0829 -0.0819 -0.0615
42284W        W85197   3.516  17.656  25.880  0.1324  0.1564  0.1361
42285W        W85198  14.336  19.352  19.443 -0.0728 -0.0595 -0.2193
42286W        W85199  10.217  22.804  19.252 -0.0566 -0.3033  0.0866
42287W        W85200  13.485  15.994  29.061  0.2343  0.0265 -0.0995
42288W        W85201   7.584  12.302  29.587 -0.0331  0.0424  0.1368
42289W        W85202  17.039  12.088   1.281 -0.1734  0.1164  0.2623
42290W        W85203   7.511  10.340  22.527 -0.1566  0.0341 -0.0008
42291W        W85204  19.491  22.643  23.930  0.2197  0.2280  0.1203
42292W        W85205  13.425  10.123  20.460 -0.0447 -0.2005  0.2539
42293W        W85206   7.300  33.915  25.752 -0.0640  0.3136  0.0478
42294W        W85207  12.728  22.341   1.600 -0.0138  0.0179 -0.2854
42295W        W85208  11.320  19.347  22.691 -0.1196 -0.2628 -0.0389
42296W        W85209  16.900  10.339   3.038  0.1095  0.0202  0.0612
42297W        W85210  14.586   8.802   4.684  0.0855  0.0366 -0.2145
42298W        W85211   8.382   4.633  19.876 -0.0762 -0.1346  0.0763
42299W        W85212   3.879   9.301  24.155  0.0081  0.3278  0.2086
42300W        W85213   9.058   7.181  29.435 -0.0296  0.1245  0.4528
42301W        W85214   6.721   7.770  11.051  0.0415  0.1266 -0.0434
42302W        W85215   1.274  20.579   7.827  0.0826  0.1164 -0.2212
42303W        W85216  11.964  22.288   5.544 -0.0512 -0.2102 -0.2959
42304W        W85217  33.201   9.114  25.992 -0.0143  0.0519  0.2091
42305W        W85218  21.572   5.568   4.914  0.1856 -0.1887  0.2324
42306W        W85219   0.865  14.935   0.468 -0.0137 -0.0143  0.0756
42307W        W85220  10.226   1.695   5.788 -0.0353  0.0124 -0.1874
42308W        W85221  22.587  10.012  24.219  0.0441  0.0015 -0.1324
42309W        W85222  10.306   6.022  29.646  0.0690  0.3089 -0.1226
42310W        W85223   5.306   7.207   2.406 -0.1788  0.3474 -0.2689
42311W        W85224   3.562   5.570  25.036 -0.0702 -0.1024  0.1829
42312W        W85225   6.006  11.696   6.080 -0.4530 -0.0223 -0.1577
42313W        W85226  11.099  19.836  23.970  0.2753 -0.0727  0.0611
42314W        W85227   7.749  13.036  26.113  0.0638 -0.2672  0.0944
42315W        W85228  12.482   9.508  17.172 -0.0780 -0.0877  0.2009
42316W        W85229   3.354  14.131   1.422 -0.0116  0.1360  0.4526
42317W        W85230   4.828  21.804  28.873 -0.0418 -0.0122  0.1886
42318W        W85231  11.814  22.878  19.532  0.1830  0.1464 -0.1131
42319W        W85232  12.628  17.249  27.750  0.2847 -0.0084  0.1269
42320W        W85233  12.572   4.420  22.242  0.3500  0.1265 -0.1207
42321W        W85234   7.451  13.544   1.264  0.2332  0.0255 -0.2360
42322W        W85235  15.472   7.155  15.881  0.0713  0.0326  0.0842
42323W        W85236   7.828  20.949  20.676  0.2049 -0.2016  0.0583
42324W        W85237  10.258  11.397   1.292  0.0299  0.2691 -0.1107
42325W        W85238  33.644   9.773   2.298 -0.0149 -0.5396 -0.0155
42326W        W85239  15.409   9.262   2.519 -0.5130  0.3186 -0.5672
42327W        W85240   9.517   0.438  23.868 -0.2160  0.0587 -0.0284
42328W        W85241   5.350  12.839  26.397  0.0980 -0.0940  0.1895
42329W        W85242  34.024   5.428  28.370 -0.1417 -0.0990 -0.0375
42330W        W85243   3.217  12.052  24.936  0.4154 -0.5475 -0.3566
42331W        W85244   4.904   2.803  17.987  0.1839 -0.1448  0.2161
42332W        W85245   3.852  12.639   4.208  0.4527  0.0956  0.0061
42333W        W85246  11.738   6.000   0.219 -0.1325  0.1478  0.0782
42334W        W85247   7.455  18.350  22.995 -0.0455 -0.0233  0.0162
42335W        W85248   7.009  32.572   2.957  0.1738  0.3532 -0.0887
42336W        W85249   7.717   5.497   6.492 -0.0815 -0.3889  0.0680
42337W        W85250   8.636  14.608  17.282  0.3455  0.3404  0.1953
42338W        W85251   9.877  24.332   1.193  0.0701  0.0160 -0.0865
42339W        W85252   4.054   8.076   4.677 -0.1579  0.0168 -0.0943
42340W        W85253  14.663  22.388   9.143 -0.0008 -0.0987  0.2511
42341W        W85254  15.060  11.004  24.002  0.0694  0.2660  0.0874
42342W        W85255   2.745  12.216   5.299  0.1834  0.1566  0.2705
42343W        W85256   1.945  13.910  28.254 -0.2250  0.2353 -0.2101
42344W        W85257  14.212  12.111  27.282 -0.1187  0.1611  0.0130
42345W        W85258  33.642  14.110  23.955 -0.0437  0.0708 -0.1572
42346W        W85259   4.556   2.568  23.858 -0.1377  0.1887  0.0593
42347W        W85260   8.850  22.743  25.620 -0.0041 -0.1230  0.0727
42348W        W85261  12.780  17.527   5.985  0.0149 -0.1981 -0.1425
42349W        W85262   4.577  12.822   4.465  0.3119 -0.2191 -0.0827
42350W        W85263  31.850   9.924   0.980 -0.1108  0.3151 -0.2215
42351W        W85264  12.141  18.220   9.097  0.0478 -0.2163  0.2083
42352W        W85265   4.653  12.388  21.488 -0.1996  0.1512  0.3057
42353W        W85266  13.058   8.238   6.631 -0.0059 -0.1307  0.2930
42354W        W85267  16.938  10.856  18.767  0.3201  0.0137  0.2892
42355W        W85268  11.238   6.795  26.542 -0.0868  0.0033 -0.1196
42356W        W85269  32.970  23.683  28.407  0.0524  0.0194 -0.2050
42357W        W85270  30.690  15.486   1.011 -0.2181  0.0165  0.0850
42358W        W85271   5.860  23.932   1.262 -0.3560 -0.0014 -0.0347
42359W        W85272   4.260  11.974   5.614 -0.0803  0.1939 -0.0491
42360W        W85273   5.550  25.679  25.451 -0.1173  0.0283  0.2261
42361W        W85274  20.085   5.785  24.902  0.4696 -0.4253 -0.1587
42362W        W85275  15.967   9.449   7.658 -0.1495 -0.3969  0.1199
42363W        W85276   7.616   6.775  26.202  0.0548 -0.0673  0.2344
42364W        W85277  19.280  11.483  24.219  0.1798  0.2041  0.1115
42365W        W85278  13.029  15.735  25.790  0.6917  0.1064  0.3008
42366W        W85279  12.168  24.440   5.171 -0.1956 -0.1290 -0.1043
42367W        W85280  14.103   2.567  19.629  0.1047 -0.2166  0.1741
42368W        W85281  34.286  17.864  25.637  0.0659  0.0389 -0.2236
42369W        W85282   2.353  19.545   0.199 -0.5160 -0.1120 -0.2553
42370W        W85283   9.916  17.451   6.709 -0.1701  0.1507 -0.0628
42371W        W85284   5.359   9.934   0.592 -0.0283 -0.0007  0.1687
42372W        W85285  12.677  21.567  19.327 -0.1850  0.0196 -0.2468
42373W        W85286  12.156  13.361   4.319 -0.1989 -0.1165  0.0874
42374W        W85287   7.260  12.799  18.009 -0.0182 -0.0234 -0.2028
42375W        W85288   8.583  13.101   6.304  0.1449  0.1324 -0.2530
42376W        W85289  13.383  17.275  18.313  0.0002  0.3105 -0.1055
42377W        W85290  20.828  10.481  13.540 -0.1562  0.0739  0.2226
42378W        W85291   3.724  20.708  21.508  0.2115 -0.0436 -0.1500
42379W        W85292  16.586   5.266   3.246  0.1944  0.1332 -0.0624
42380W        W85293  19.070  14.526   6.356  0.0913 -0.1500 -0.1264
42381W        W85294  22.790   7.598   4.432  0.3449  0.2281  0.1533
42382W        W85295  26.281  20.395  27.753 -0.1371 -0.0704 -0.0714
42383W        W85296  34.235   6.622  25.660 -0.1465 -0.2168  0.1006
42384W        W85297   4.721  25.554   3.914 -0.0055 -0.0608 -0.3293
42385W        W85298  13.283  19.655  21.030 -0.1434  0.1968 -0.0711
42386W        W85299   4.446  13.821  28.264  0.2252  0.0787  0.0743
42387W        W85300   9.435  10.324   8.435  0.2732  0.0870 -0.0571
42388W        W85301   9.874  12.753   6.705 -0.0927 -0.2208  0.0068
42389W        W85302   8.964  33.920   0.068 -0.3344 -0.3104 -0.1154
42390W        W85303  18.713  20.514  27.609  0.1865  0.1506 -0.1561
42391W        W85304  29.710  12.930  28.985  0.0024  0.2293  0.1365
42392W        W85305  15.263  15.260  25.923  0.1346  0.1733  0.1422
42393W        W85306   7.283  14.703  25.003 -0.0962  0.2227  0.1069
42394W        W85307  10.732  11.850   3.806 -0.1843 -0.1447  0.1089
42395W        W85308  15.176   8.128   3.511  0.0734 -0.0175  0.1194
42396W        W85309   3.287  11.496   1.722 -0.0326 -0.1379  0.1391
42397W        W85310  12.666  12.806  25.444 -0.2730 -0.2053  0.1670
42398W        W85311  14.392  11.938   5.504  0.0482 -0.1030  0.0074
42399W        W85312   8.701  14.201   8.681 -0.0618  0.1918 -0.0823
42400W        W85313  13.467   9.075  28.388 -0.4546  0.1611  0.0367
42401W        W85314   6.744  12.907  27.798 -0.1928 -0.0119 -0.2878
42402W        W85315   2.639  19.384   6.055 -0.2021  0.0615  0.0851
42403W        W85316  16.648  14.894   4.871  0.0594  0.1632  0.2961
42404W        W85317   8.035  18.769   5.837  0.0132  0.1355 -0.2829
42405W        W85318  12.289  17.231  28.318 -0.1433 -0.0972 -0.0659
42406W        W85319  14.358  33.880   3.473  0.0644  0.1773 -0.0266
42407W        W85320  16.430   5.284  23.751  0.1478 -0.0538  0.1660
42408W        W85321  19.950  16.805  25.817  0.0092  0.0209  0.0186
42409W        W85322   6.815   1.791   0.629 -0.0758  0.0111 -0.1393
42410W        W85323   7.889  15.913  22.885  0.3116  0.2375  0.3507
42411W        W85324  17.969  11.030   5.089 -0.0223  0.0094  0.0350
42412W        W85325  33.132   0.601  26.334  0.0781  0.2034  0.3376
42413W        W85326  13.123  12.098   7.784 -0.0119 -0.0382 -0.1647
42414W        W85327  10.877  22.800  26.000  0.1157  0.0425 -0.0953
42415W        W85328  13.100  20.783   1.210 -0.3423  0.3215  0.0974
42416W        W85329   8.872   2.787   1.105  0.0118  0.0324 -0.1182
42417W        W85330   8.208  20.032   1.963 -0.1747 -0.0257 -0.0871
42418W        W85331  13.157  12.211   4.867 -0.0212  0.1172 -0.2012
42419W        W85332  13.121   9.633  14.983  0.0937  0.0585 -0.1049
42420W        W85333  13.390   9.554   1.502  0.2863  0.0401  0.1399
42421W        W85334  31.323  20.070   7.614 -0.0809  0.2237 -0.0867
42422W        W85335   3.794  31.277   5.049 -0.1825 -0.1450  0.1382
42423W        W85336  17.450   8.627   5.906 -0.4467  0.0630  0.1196
42424W        W85337   4.912   7.109   0.219  0.2198  0.0905 -0.1946
42425W        W85338  14.113  12.127  28.196 -0.0926 -0.0618  0.1378
42426W        W85339   7.022  14.010  23.759  0.0080 -0.2019 -0.0272
42427W        W85340  17.649  19.435  23.124 -0.2082  0.2484  0.1208
42428W        W85341  13.627  25.140  29.580 -0.2401 -0.0448  0.0080
42429W        W85342  14.801  18.632  25.705  0.1409  0.0426 -0.1993
42430W        W85343   8.112  10.613  20.204  0.0739  0.1418 -0.0716
42431W        W85344  12.611   9.711  29.479 -0.0336  0.1088  0.5547
42432W        W85345  12.781   4.121  18.575 -0.1491  0.3034 -0.1194
42433W        W85346  33.725  11.501   4.049 -0.0850  0.0657  0.0197
42434W        W85347   4.237  18.513  17.608 -0.1361  0.0633 -0.0215
42435W        W85348  11.680  21.210  13.643  0.0200  0.3114  0.0124
42436W        W85349  16.409  11.512  13.696 -0.2341  0.1788  0.0004
42437W        W85350   2.911  17.178  14.363 -0.1548  0.0014  0.1608
42438W        W85351  23.872  17.130  23.982 -0.2045  0.1576 -0.0311
42439W        W85352  13.868  18.949  13.563 -0.2391  0.2735  0.0442
42440W        W85353   7.710  12.406  16.597 -0.1532 -0.1637  0.2015
42441W        W85354  34.164   4.600  17.383  0.0317 -0.2276  0.1290
42442W        W85355   4.130  24.779  24.977 -0.0074  0.0815 -0.1656
42443W        W85356   3.944  15.551  23.540  0.1081  0.0535  0.0903
42444W        W85357  10.068  17.615  13.046  0.2784 -0.4074  0.1264
42445W        W85358  19.546  31.056  18.654  0.0301  0.1949  0.1472
42446W        W85359  21.474  10.105  14.704  0.1355  0.0215  0.3091
42447W        W85360  14.697  14.836  23.465  0.0569  0.0634 -0.0288
42448W        W85361   8.771  32.848  19.318 -0.1640 -0.0305  0.2823
42449W        W85362   5.534   7.143  23.518 -0.1367  0.0148  0.0540
42450W        W85363   6.677   7.004  17.230 -0.1133  0.2254  0.0480
42451W        W85364   6.470  24.256  16.339 -0.0128 -0.0763  0.1174
42452W        W85365  14.753  22.216  19.887  0.0245 -0.1676  0.1148
42453W        W85366  14.777  10.658  13.404 -0.1336 -0.1898 -0.2767
42454W        W85367   5.116  17.095  17.538  0.0795  0.2914  0.0983
42455W        W85368   5.622  17.887  15.889  0.4219  0.3138  0.0197
42456W        W85369  12.181  24.496  17.838  0.2126  0.0428 -0.1975
42457W        W85370  11.078  17.616  18.486 -0.1009 -0.3500  0.2292
42458W        W85371  11.527  21.677  25.227 -0.0373 -0.0048  0.2074
42459W        W85372  22.146   7.974  13.816  0.1154 -0.1731  0.0438
42460W        W85373  15.786  10.009  15.978  0.3667 -0.0946  0.1340
42461W        W85374  17.373  13.666  16.130 -0.3049 -0.3516  0.1212
42462W        W85375   4.317   5.146  20.404  0.2177 -0.2858  0.3508
42463W        W85376  30.889  17.184  26.518 -0.3364  0.0321  0.2937
42464W        W85377   4.067  13.132  22.414  0.3489  0.2781  0.2930
42465W        W85378   8.569  11.001  15.541 -0.0765 -0.2197 -0.0520
42466W        W85379   9.557  19.735  16.840 -0.0162  0.1002 -0.1891
42467W        W85380  12.364  26.809  15.605 -0.1435 -0.1158  0.7269
42468W        W85381  22.645   6.718  19.976  0.0378 -0.1665  0.0766
42469W        W85382  13.200  17.479  14.842  0.2419  0.0017 -0.1371
42470W        W85383  12.253  16.218  18.948 -0.0368 -0.1290  0.6400
42471W        W85384  12.056  12.628  14.049 -0.0580 -0.0504 -0.0980
42472W        W85385   9.943  24.886  19.127  0.1705  0.1202 -0.1290
42473W        W85386   2.886  23.989  19.749  0.2242  0.0405  0.0700
42474W        W85387   4.926  11.569  22.557 -0.0698  0.3101  0.1464
42475W        W85388  11.524  15.382  28.047 -0.2825 -0.0010 -0.2013
42476W        W85389   7.921  21.311  13.882 -0.3197  0.0718  0.0929
42477W        W85390   9.702  16.791  21.343  0.0533 -0.0671 -0.0003
42478W        W85391   8.813  13.797  20.506  0.0010  0.2731 -0.1924
42479W        W85392  19.715  12.281  16.270 -0.1043  0.2297 -0.0595
42480W        W85393   7.008  18.707  14.389 -0.2387 -0.5133  0.4177
42481W        W85394  13.707  15.143  12.672  0.0087  0.1722  0.1385
42482W        W85395  10.048  13.358  21.152 -0.2364 -0.3750  0.0734
42483W        W85396  10.579   9.891  23.045 -0.1572 -0.1740 -0.1224
42484W        W85397  10.935  14.123  16.074  0.1132  0.0276 -0.1281
42485W        W85398  13.059  16.448  20.187  0.1222  0.0105  0.0049
42486W        W85399  10.472  17.056  19.337  0.0227 -0.4232  0.2814
42487W        W85400  18.663  15.007  12.733  0.1348 -0.1790 -0.0036
42488W        W85401   3.112  26.866  19.701 -0.3380  0.0085  0.0601
42489W        W85402  13.289  14.591  13.792  0.0397 -0.2417 -0.0313
42490W        W85403  12.716   8.995  15.879 -0.1513  0.2952 -0.1054
42491W        W85404   6.207  15.102  15.153  0.1663  0.1066  0.4133
42492W        W85405  10.970  15.211  28.238  0.1791  0.1023  0.1472
42493W        W85406   8.466  10.024  20.537 -0.0413 -0.1779  0.0586
42494W        W85407  12.825   9.506  14.619 -0.2497 -0.0923 -0.0974
42495W        W85408  22.685  10.765  13.510 -0.0859  0.1992  0.1139
42496W        W85409  30.088  15.140  14.349  0.1911  0.2625 -0.2006
42497W        W85410  30.157  23.126  13.104  0.0522  0.1060 -0.2244
42498W        W85411   4.089  12.838  15.476  0.1291 -0.0131 -0.0234
42499W        W85412   7.411   8.302  22.259  0.2648 -0.5875  0.0654
42500W        W85413   4.622  13.818  15.100 -0.0637  0.4219  0.2189
42501W        W85414   5.217   9.398  22.361  0.2132  0.0025  0.2883
42502W        W85415   8.857  16.535  13.511 -0.0494  0.1215 -0.1099
42503W        W85416  15.186  22.513  20.401 -0.6563  0.1424 -0.1898
42504W        W85417  11.494  12.540  22.272 -0.0713 -0.2855 -0.1531
42505W        W85418   9.008   7.966  22.805 -0.2097  0.0507 -0.0108
42506W        W85419   0.628   6.324  23.257  0.0706  0.0129  0.1511
42507W        W85420  19.774  20.045  14.752  0.2721 -0.0179 -0.1289
42508W        W85421  32.227  27.644  20.647 -0.3530 -0.2261 -0.0293
42509W        W85422  31.303  18.011  16.638  0.0386 -0.1564 -0.0256
42510W        W85423  11.047  20.382  14.681 -0.1846 -0.1084 -0.1294
42511W        W85424  33.892  14.339  19.534 -0.1723 -0.3092  0.1113
42512W        W85425   9.829  20.385  22.116  0.1756  0.2022  0.1180
42513W        W85426  13.096  14.755  16.320  0.2794 -0.0483 -0.2129
42514W        W85427   7.509  24.967  16.931  0.2911 -0.1274 -0.3602
42515W        W85428  12.183  14.885  13.236 -0.0645 -0.1619 -0.0706
42516W        W85429  34.327  19.774  14.154  0.2654  0.2306  0.3873
42517W        W85430   1.726  10.856  25.792  0.0808 -0.1108 -0.0976
42518W        W85431   3.092  18.556  15.931 -0.1622  0.2248 -0.0030
42519W        W85432  23.602  20.825  21.127 -0.2078  0.2405 -0.3276
42520W        W85433  33.642   5.701  20.137  0.0568 -0.1818 -0.0975
42521W        W85434  13.272  30.265  20.111  0.1791  0.1570 -0.1356
42522W        W85435   7.446  15.518  17.802  0.3573  0.0872  0.0302
42523W        W85436   6.617  24.672  16.700  0.0180  0.1924  0.2518
42524W        W85437   0.612   9.252  16.593  0.3335  0.0987  0.1141
42525W        W85438  21.522  12.929  18.758  0.2192 -0.1316  0.1661
42526W        W85439   0.756  18.063  23.292  0.0932  0.1283  0.0462
42527W        W85440   4.231  18.672  29.278  0.1009 -0.1001  0.3789
42528W        W85441   9.478  10.682  18.223 -0.0898 -0.0209 -0.1398
42529W        W85442   1.546  13.679  15.032 -0.1407  0.3141  0.1365
42530W        W85443   2.392  25.599  19.643  0.3719 -0.1270 -0.0067
42531W        W85444  19.171  13.964  21.367 -0.0236  0.1811  0.0742
42532W        W85445  21.972  24.457  15.948 -0.2619  0.1552  0.0121
42533W        W85446  19.565  13.348  14.048 -0.0066 -0.2376 -0.0246
42534W        W85447   9.566  10.350  23.787  0.3729  0.0769  0.1851
42535W        W85448  12.332  14.400  12.732  0.0205 -0.2547  0.3528
42536W        W85449  14.311   0.979  22.731 -0.3556 -0.0087 -0.2908
42537W        W85450  14.559  23.678  22.070  0.0690 -0.1112  0.2145
42538W        W85451  32.552  33.079  17.972 -0.3725 -0.1871  0.0568
42539W        W85452   8.117  20.286  13.598 -0.1614 -0.1245  0.0080
42540W        W85453  13.679  11.767  21.962  0.2052 -0.2236 -0.2412
42541W        W85454  27.878  19.264  19.746  0.0666  0.1110  0.1921
42542W        W85455   9.777  14.668  22.787 -0.0542 -0.1060 -0.2854
42543W        W85456   7.192  14.886  18.532 -0.0202  0.0541 -0.0176
42544W        W85457  19.524  12.931  15.651  0.0738  0.1657 -0.1419
42545W        W85458   6.432   7.391  19.305  0.0429  0.2817 -0.1681
42546W        W85459  12.479  16.660  13.070 -0.3726 -0.1254 -0.1216
42547W        W85460  16.060   7.771  24.374 -0.0220  0.0379 -0.0638
42548W        W85461  16.283  17.901  15.553  0.4066 -0.1844 -0.2780
42549W        W85462  10.127  22.302  19.400 -0.1458 -0.0045  0.0855
42550W        W85463   1.649   6.732  23.448  0.1619 -0.0227  0.0712
42551W        W85464  14.147  25.734  19.346 -0.0694  0.3137 -0.0726
42552W        W85465  34.276  19.212  24.533 -0.0481  0.2347  0.0615
42553W        W85466  32.990  15.400  15.808  0.0592  0.1681 -0.0742
42554W        W85467  18.612  20.937  17.161  0.1742  0.3375  0.2729
42555W        W85468  13.929  16.996  14.660 -0.0061  0.1425  0.1907
42556W        W85469   6.544  14.791  20.139  0.4244 -0.1670  0.2170
42557W        W85470   3.388  18.055  16.427  0.0762 -0.0807 -0.1366
42558W        W85471   5.023  19.389  25.966  0.0708 -0.0371 -0.2814
42559W        W85472  12.913  13.416  19.432 -0.0959 -0.0828 -0.1271
42560W        W85473   9.890  10.347  20.163  0.2403  0.1202 -0.0050
42561W        W85474  21.256   8.363  18.632  0.3205  0.5258 -0.2052
42562W        W85475  22.776  25.097  15.507 -0.2133 -0.1572 -0.2106
42563W        W85476   6.298  30.368  16.124  0.0576  0.1534 -0.1256
42564W        W85477   5.718  18.967  17.628 -0.3425 -0.0592 -0.0872
42565W        W85478  17.352   8.550  20.842  0.0770  0.4261 -0.2231
42566W        W85479   7.354  18.258  13.508 -0.1029 -0.1328  0.1331
42567W        W85480   1.541  13.451  16.915  0.2104  0.2456  0.2609
42568W        W85481  10.472  19.780  17.828 -0.2588  0.0623  0.1464
42569W        W85482  15.380  10.301  14.702 -0.0518  0.1945 -0.0853
42570W        W85483   0.654  21.344  16.870  0.0233  0.1769 -0.0271
42571W        W85484   7.515  12.492  18.619 -0.2806  0.0885  0.0515
42572W        W85485  10.394  19.096  13.272 -0.3202 -0.0396  0.1643
42573W        W85486  12.063  25.743  21.142  0.1021  0.2875 -0.3399
42574W        W85487   9.946  15.203  21.805 -0.0482 -0.0799 -0.0400
42575W        W85488  33.260  11.416  17.087  0.0191  0.0014  0.0251
42576W        W85489  10.701  16.307  21.812 -0.1856 -0.2248  0.0326
42577W        W85490   2.679  17.448  17.223  0.0549  0.2482  0.2041
42578W        W85491  15.041   2.966  17.512  0.1845  0.0253 -0.1669
42579W        W85492  16.759  15.266  12.528 -0.1158  0.0111 -0.0791
42580W        W85493  34.475  18.080  27.633  0.0923  0.1549 -0.1414
42581W        W85494  22.948  22.354  14.395 -0.3419  0.2167 -0.1151
42582W        W85495  17.058   3.262  20.930  0.0041 -0.2698 -0.3274
42583W        W85496   6.992  13.101  19.710 -0.2030 -0.0774 -0.0396
42584W        W85497   9.128  14.280  22.867  0.1100  0.1269 -0.0843
42585W        W85498   7.742   6.707  18.323  0.1851  0.2861  0.1066
42586W        W85499   0.050  15.568  17.492 -0.0026  0.0242  0.0016
42587W        W85500   1.052   0.129  23.027 -0.1763 -0.1299 -0.1795
42588W        W85501  10.836  27.900  18.270  0.3350  0.0335  0.0469
42589W        W85502  18.288  11.647  16.729 -0.0610 -0.3631 -0.0998
42590W        W85503   8.569  26.672  20.617 -0.2420 -0.4490 -0.0631
42591W        W85504   4.078   1.468  21.645 -0.1581  0.0424 -0.2062
42592W        W85505  10.949  27.510  26.645 -0.0139 -0.0984  0.1505
42593W        W85506   5.450  15.827  21.421 -0.2289  0.1263 -0.0406
42594W        W85507  16.647   5.642  20.086 -0.1031  0.3169  0.2982
42595W        W85508   2.934  11.764  18.590 -0.0265  0.0183  0.0079
42596W        W85509   7.579  14.408  14.018  0.1948  0.1998  0.1655
42597W        W85510  18.701  17.039  14.205  0.0882  0.0792 -0.0374
42598W        W85511  30.546  18.226  17.833 -0.1445  0.2229 -0.0259
42599W        W85512  13.872  19.196  14.036  0.1783  0.1828 -0.1232
42600W        W85513   2.316  16.060  16.135 -0.1911  0.3149  0.0821
42601W        W85514   6.652   3.539  21.901  0.1349  0.2441 -0.1940
42602W        W85515  32.786  18.256  17.870 -0.3877  0.1187  0.2139
42603W        W85516   1.382  23.861  26.015 -0.0837  0.0518  0.2672
42604W        W85517  11.334  20.007  17.203  0.1090  0.2322  0.0115
42605W        W85518   1.250  21.046  18.409  0.0255  0.4655  0.1958
42606W        W85519   5.945  26.060  17.078  0.1884 -0.1045 -0.0615
42607W        W85520  12.731  17.166  25.310  0.0773 -0.0879 -0.1604
42608W        W85521   9.950  15.769  16.995  0.0020  0.0042 -0.1832
42609W        W85522  14.079  15.775  15.089  0.1079  0.3445  0.0895
42610W        W85523   8.346   2.963  20.000 -0.1424  0.1370 -0.0626
42611W        W85524   8.701  14.184  21.122  0.1908 -0.0392  0.0908
42612W        W85525  14.354  12.041  13.842  0.3803  0.0791  0.0397
42613W        W85526   8.004  11.911  17.361  0.1237  0.0371 -0.1277
42614W        W85527  19.930  14.180  11.743 -0.0956 -0.1162  0.0184
42615W        W85528   7.102  25.364  16.788  0.1625 -0.1269 -0.3504
42616W        W85529   4.331  14.252  15.043 -0.0310  0.3142 -0.1710
42617W        W85530   9.434  11.795  14.300  0.2718  0.0489 -0.3004
42618W        W85531  15.597  18.270  15.531  0.0369 -0.4509  0.0240
42619W        W85532  19.786  22.611  14.682 -0.2970 -0.0918 -0.3290
42620W        W85533  33.389   8.660  19.198  0.0843 -0.0462 -0.4717
42621W        W85534  12.577   8.096  16.903 -0.0036  0.0982  0.1942
42622W        W85535  11.359  24.234  20.905  0.1812 -0.1323  0.1604
42623W        W85536  26.903  18.853  13.529  0.3444 -0.0894  0.1391
42624W        W85537   5.289  14.600  21.782 -0.0858  0.0156  0.0979
42625W        W85538  13.313  16.544  17.751  0.0855 -0.1417  0.3003
42626W        W85539   6.915  15.059  25.292 -0.0347 -0.3134  0.0097
42627W        W85540  10.143  18.018  15.200  0.1653  0.0346  0.0659
42628W        W85541  14.663  17.974  12.804 -0.0769  0.0892  0.1523
42629W        W85542   7.445  13.028  22.709  0.1345  0.2818  0.1593
42630W        W85543   9.013  15.569  16.206  0.1515 -0.1641  0.0641
42631W        W85544  20.427  10.925  24.377  0.4275 -0.0777 -0.0383
42632W        W85545   5.960  24.217  28.997  0.2333  0.1602  0.1705
42633W        W85546   8.412  18.106  26.393 -0.0510  0.2401  0.2886
42634W        W85547   6.345  16.971  18.249  0.1162  0.0707  0.2637
42635W        W85548   8.522  11.454  18.746 -0.0841  0.1025 -0.2353
42636W        W85549   2.617  26.911  22.251  0.0435 -0.0828  0.0176
42637W        W85550   5.368   5.436  17.872 -0.3412  0.0983 -0.1492
42638W        W85551   6.899  11.852  20.399  0.0789 -0.1449  0.1176
42639W        W85552  18.523  19.507  12.824 -0.1165 -0.2773  0.0710
42640W        W85553  22.000  11.135  19.044  0.2848  0.3508 -0.1802
42641W        W85554   9.371  14.165  14.397  0.1645 -0.4480  0.0158
42642W        W85555  14.162  10.947  16.545 -0.1213  0.0574  0.0293
42643W        W85556   7.861  11.374  24.876  0.0044 -0.1023 -0.0372
42644W        W85557   9.789  11.056  18.604 -0.2120 -0.0307 -0.1469
42645W        W85558  17.659   9.805  22.248  0.1031  0.4444  0.0899
42646W        W85559  11.510  20.456  24.453 -0.3261 -0.0905 -0.2907
42647W        W85560   7.625  11.619   5.479  0.2574  0.0025  0.0357
42648W        W85561  18.023  10.513  26.134  0.2300  0.1230  0.1367
42649W        W85562  13.146  11.066  15.580  0.3823 -0.3266 -0.0030
42650W        W85563  30.155  22.421  24.120  0.0713  0.1136 -0.0676
42651W        W85564  12.484  16.949  17.559  0.1774  0.0193 -0.0746
42652W        W85565   5.587   5.407  21.918  0.1232  0.0357 -0.1483
42653W        W85566   0.413   8.431  23.097  0.0422 -0.1361 -0.1298
42654W        W85567   6.721  16.339  16.609 -0.0907 -0.0378  0.0339
42655W        W85568  22.194  13.357  27.265  0.0833  0.3919  0.1670
42656W        W85569   5.751  14.061  16.163  0.1666 -0.0855 -0.0820
42657W        W85570  29.710  31.369  15.361  0.0110 -0.3435 -0.0322
42658W        W85571   9.917  11.765  27.551 -0.1061 -0.0803 -0.2763
42659W        W85572  14.498  12.312  21.658 -0.0282  0.4933 -0.1698
42660W        W85573  11.837   6.893  21.011  0.3882 -0.1518 -0.1682
42661W        W85574   5.896  12.534  22.503  0.0123 -0.0869  0.0008
42662W        W85575   5.402  17.845  24.525 -0.3290 -0.0122  0.1729
42663W        W85576   7.889  24.004  25.496  0.2047  0.1296  0.0015
42664W        W85577   6.701  28.701  16.960 -0.1575  0.2097 -0.0117
42665W        W85578   8.692  23.770  15.386 -0.3013  0.2562 -0.2389
42666W        W85579   6.115  19.068  15.164 -0.0783  0.3371 -0.0645
42667W        W85580  34.027   5.288  25.575  0.4223 -0.1689 -0.1358
42668W        W85581  14.446  13.943  22.385 -0.5512 -0.1794  0.1721
42669W        W85582   8.937  21.733  16.726 -0.0727 -0.1391 -0.0631
42670W        W85583   3.227  18.630  21.469  0.1227  0.0635 -0.1290
42671W        W85584   3.361  11.525  29.770 -0.0239  0.0613 -0.1528
42672W        W85585   6.505  19.719  15.510 -0.2626 -0.1410 -0.3475
42673W        W85586   6.437  13.770  17.318 -0.0296  0.1629  0.0220
42674W        W85587  12.881  13.855  16.304 -0.2101  0.2910 -0.0515
42675W        W85588  13.497  22.069  15.922  0.1444 -0.4015 -0.2375
42676W        W85589   7.451  13.293  25.813 -0.0083  0.1866 -0.2167
42677W        W85590   7.253  21.943  18.844  0.1691  0.2473 -0.1251
42678W        W85591   2.417  12.463  15.841 -0.1701 -0.1156 -0.2210
42679W        W85592  10.238  13.210  18.050 -0.2492 -0.1184  0.2491
42680W        W85593   5.015  16.101  16.602 -0.2172  0.1688  0.1066
42681W        W85594  13.968  18.690  16.103 -0.1074  0.0339 -0.1757
42682W        W85595  11.035  18.339  17.406  0.2753  0.1000  0.0111
42683W        W85596   9.618   8.609  23.588  0.0807 -0.0906 -0.0779
42684W        W85597  13.076   7.880  26.674  0.3193  0.1127  0.3683
42685W        W85598  32.702  15.306  15.391 -0.1878  0.3378 -0.0041
42686W        W85599   4.794  10.299  22.030  0.4757 -0.3033  0.2332
42687W        W85600  32.822  20.555  15.933 -0.1073 -0.2559  0.2256
42688W        W85601  30.658  10.310  27.101  0.1637  0.2707 -0.1565
42689W        W85602  12.955  14.525  12.561  0.2564  0.2685  0.1124
42690W        W85603   7.966   7.780  19.049 -0.0312  0.2134  0.2088
42691W        W85604  15.645  12.111  12.595 -0.0252  0.0321 -0.0414
42692W        W85605   6.756  17.242  18.243 -0.0182 -0.1395  0.2560
42693W        W85606  15.960  16.782  27.143 -0.0117 -0.1004 -0.0135
42694W        W85607  28.247  22.731  15.987 -0.1839 -0.3019 -0.0360
42695W        W85608   3.457  17.191  15.984  0.1116 -0.0219  0.1629
42696W        W85609   5.815  21.114  14.330 -0.0315 -0.1095 -0.1569
42697W        W85610  10.931  15.336  17.299  0.1074  0.0050 -0.0634
42698W        W85611  33.085  18.314   1.244  0.1186 -0.2282 -0.2983
42699W        W85612   5.360  13.765   1.966  0.2298  0.1643 -0.4115
42700W        W85613   3.476  30.959  16.219 -0.2308 -0.0787 -0.1909
42701W        W85614   9.139  14.632  15.993  0.2055  0.2024 -0.0544
42702W        W85615   5.360  21.327  14.548 -0.1089  0.0042  0.0992
42703W        W85616   2.801  28.941  16.864 -0.2345 -0.1309 -0.4219
42704W        W85617   7.060  15.663  20.569  0.1497  0.1603 -0.0543
42705W        W85618   6.765  17.221  17.734  0.0239 -0.3434 -0.0288
42706W        W85619   1.693  16.129  17.603 -0.3144  0.1804  0.1391
42707W        W85620   8.021  25.606  17.420  0.1121 -0.0469 -0.2858
42708W        W85621  22.249  20.109  13.000 -0.0712  0.0026 -0.1932
42709W        W85622  25.956   9.382  27.321 -0.1805  0.0160  0.1533
42710W        W85623   3.713  15.701  14.620 -0.0917  0.2213 -0.3025
42711W        W85624   3.549  12.600  16.886 -0.2159 -0.2293  0.0865
42712W        W85625  16.902  25.720  15.012  0.1954 -0.0473  0.0042
42713W        W85626   9.712  10.552  21.639  0.1172 -0.2978 -0.0416
42714W        W85627   6.810  27.350  18.060 -0.2460  0.0275  0.0322
42715W        W85628   8.352  18.803  14.464 -0.0143 -0.0972 -0.1854
42716W        W85629  12.961  21.672  16.820 -0.0901 -0.2163  0.2049
42717W        W85630  11.617  16.555  14.627 -0.0139  0.1400 -0.1128
42718W        W85631   9.868  11.722  19.651 -0.0761  0.0815 -0.0743
42719W        W85632  12.990  12.439  22.431  0.1857 -0.0628  0.0780
42720W        W85633   7.944   5.291  23.393 -0.0124  0.1904  0.0474
42721W        W85634  22.501  20.226  18.318 -0.3335  0.2499  0.2992
42722W        W85635  13.539  19.575  16.495 -0.0707 -0.0179 -0.2141
42723W        W85636  14.223  11.641  26.383  0.0002 -0.1181 -0.0099
42724W        W85637  12.288  24.867  21.622  0.0368 -0.0396 -0.1452
42725W        W85638  18.018  15.755  12.990 -0.1169  0.2214  0.0985
42726W        W85639   9.745  22.838  18.251 -0.1275 -0.0508  0.1023
42727W        W85640   6.045  19.771  18.721 -0.2419 -0.1430 -0.1719
42728W        W85641   9.088  14.313  19.529  0.3041  0.0337  0.0446
42729W        W85642  13.258  14.591  17.929 -0.4623 -0.2596  0.3860
42730W        W85643  10.033  20.919  17.220  0.0803 -0.0322  0.2463
42731W        W85644  14.861  11.939  21.566  0.1274  0.2143  0.0522
42732W        W85645  20.583  26.373  15.253  0.0626 -0.0462  0.2665
42733W        W85646  11.070  24.691  15.737 -0.0206 -0.0588  0.0372
42734W        W85647   4.933  14.804  18.733 -0.1267  0.0461 -0.0448
42735W        W85648   2.950  15.715  17.804 -0.0018  0.2445  0.0612
42736W        W85649   7.129  20.119  19.852 -0.0712  0.1607  0.0492
42737W        W85650  12.025  29.820  15.991  0.2227 -0.2566 -0.1112
42738W        W85651   7.223  13.035  21.517 -0.1542  0.1544  0.3089
42739W        W85652   3.054  21.341   0.896 -0.0352  0.1030  0.0315
42740W        W85653  11.924  12.753  17.704 -0.2266 -0.5353  0.0963
42741W        W85654  30.746  15.616  18.937  0.0557 -0.1363 -0.0207
42742W        W85655   4.028  10.819  16.563  0.1251  0.0538  0.2425
42743W        W85656  20.239  22.987  21.010  0.0935  0.0027 -0.2701
42744W        W85657  18.387  19.979  12.641 -0.3166 -0.2797  0.0903
42745W        W85658   4.101  25.443  24.126 -0.1263 -0.2892 -0.3708
42746W        W85659   3.932  22.198  20.150  0.2105 -0.0551  0.5024
42747W        W85660  20.071  23.461  14.502  0.3605  0.0545 -0.0389
42748W        W85661  13.679  14.015  13.577  0.2683 -0.0322 -0.4071
42749W        W85662  17.358  21.635  13.453 -0.0780 -0.2786  0.0610
42750W        W85663  16.312  10.307  15.651  0.0387  0.2077 -0.3291
42751W        W85664  12.797  22.244  13.036  0.0203 -0.0444 -0.3199
42752W        W85665  10.766  19.160  16.596 -0.2307 -0.1555  0.0625
42753W        W85666   9.109   8.787  17.638  0.1685  0.0853  0.2064
42754W        W85667   0.599  17.071  19.854 -0.0854 -0.0902 -0.1594
42755W        W85668  11.456  22.307  16.062  0.3248 -0.2877 -0.1317
42756W        W85669  15.418  30.047  14.818  0.1177 -0.1710  0.4433
42757W        W85670  29.463   7.261  18.391  0.2429  0.0107  0.1589
42758W        W85671  13.533   9.086  16.402  0.0116  0.1472  0.0073
42759W        W85672  20.146  11.255  14.045 -0.0428 -0.2834  0.1870
42760W        W85673   3.297   8.586  21.831  0.0019  0.0167 -0.0650
42761W        W85674   3.547   7.994  19.457 -0.0279 -0.3642  0.2060
42762W        W85675  11.091  31.644  18.472 -0.3861  0.2227  0.1694
42763W        W85676  33.188  21.826  14.689 -0.0691  0.2102  0.0585
42764W        W85677  19.734  10.773  13.388 -0.3548 -0.2228  0.2667
42765W        W85678   6.518  19.721  18.832 -0.2062 -0.1463 -0.0045
42766W        W85679  17.488   7.880  19.946  0.4211  0.0626 -0.2582
42767W        W85680  13.290  22.079  13.038 -0.2513 -0.1356 -0.1679
42768W        W85681   5.792  11.309  19.639 -0.1910  0.0749  0.0373
42769W        W85682  15.169   5.580  17.717  0.0847 -0.0991  0.0169
42770W        W85683   0.810  19.899  15.120 -0.2930  0.3464  0.1925
42771W        W85684   2.293  13.478  18.325 -0.0445 -0.1301  0.1780
42772W        W85685  11.093  20.294  16.470  0.1834 -0.0931 -0.5615
42773W        W85686   8.435  17.376  21.778  0.5584  0.1297 -0.2313
42774W        W85687  11.046  18.943  17.722  0.2296 -0.0686  0.0438
42775W        W85688  17.125  28.204  17.869 -0.0846  0.0815  0.0695
42776W        W85689  22.204   9.502  21.646  0.2241  0.0374  0.2912
42777W        W85690  16.873   6.804  16.612  0.2334 -0.2631  0.1449
42778W        W85691  11.726  14.681  24.422 -0.3544  0.0711 -0.1912
42779W        W85692  19.742  12.470  15.842  0.1749  0.4493 -0.0455
42780W        W85693   7.849  15.744  17.501 -0.3604  0.0222 -0.2935
42781W        W85694  28.559  24.821  20.058  0.0930  0.2145 -0.0868
42782W        W85695   7.161  19.321  16.171  0.2541  0.1438  0.0450
42783W        W85696  14.570  28.737  15.353 -0.1697  0.4154  0.1353
42784W        W85697   4.755  15.651  16.521 -0.0054  0.2308 -0.0006
42785W        W85698   9.918  10.855  19.641 -0.5019  0.1348 -0.1784
42786W        W85699  17.596  20.377  12.763 -0.3707  0.1891  0.1724
42787W        W85700  32.428  19.764  15.489 -0.1862  0.1514 -0.5475
42788W        W85701  16.100  19.831  14.642  0.4700 -0.0948 -0.0876
42789W        W85702  20.326  22.072  15.370  0.0882  0.2690 -0.0686
42790W        W85703  13.789  26.859  16.606 -0.1861 -0.2863  0.2026
42791W        W85704  19.506  27.480  22.551 -0.3167 -0.0983 -0.1932
42792W        W85705   8.513  12.544  21.994 -0.0929 -0.0302  0.3855
42793W        W85706   8.342  16.474  25.701  0.1692 -0.0158 -0.1407
42794W        W85707   6.549  25.793  15.867  0.0217  0.1037 -0.0064
42795W        W85708  22.816  20.859  18.241 -0.2251 -0.1221 -0.0775
42796W        W85709   9.822   4.907  17.361  0.0520 -0.0394 -0.0071
42797W        W85710  12.646  11.237  21.113 -0.2072 -0.3507 -0.2288
42798W        W85711   3.571  12.905  18.023  0.1037 -0.1385 -0.0878
42799W        W85712   2.001  15.832  15.253  0.0296 -0.0077 -0.1134
42800W        W85713  11.451  18.630  18.159  0.2623  0.0426 -0.0091
42801W        W85714  28.527  21.835  16.342  0.1165 -0.1241  0.1001
42802W        W85715  11.449  21.536  26.263  0.1739 -0.0248 -0.1108
42803W        W85716   4.472  13.540  21.741  0.1711 -0.0241  0.4596
42804W        W85717  10.922  13.384  21.474  0.2013  0.0480  0.1910
42805W        W85718  12.736   2.081  25.723  0.0696 -0.0892  0.1130
42806W        W85719  11.258  16.359  17.261  0.2181  0.1536 -0.0056
42807W        W85720  16.848  14.342  23.392  0.0710  0.1239 -0.2059
42808W        W85721  18.945  21.812  25.536  0.2786  0.0458 -0.0698
42809W        W85722  13.238  10.772  14.403  0.0976  0.3314 -0.0648
42810W        W85723  21.753  18.019  14.839  0.0679 -0.3440  0.0843
42811W        W85724   6.628  15.733   0.854 -0.0361 -0.2211  0.0305
42812W        W85725  15.019   9.852  20.066 -0.6079 -0.0377  0.1030
42813W        W85726   5.920  15.053  17.140  0.1840 -0.0326  0.2502
42814W        W85727   9.740  26.358  16.705 -0.0368  0.1333  0.1073
42815W        W85728   8.785  19.317  15.753 -0.0358 -0.2934 -0.2625
42816W        W85729  19.284  20.206  14.804  0.2042 -0.3458 -0.1043
42817W        W85730   8.706  13.752  16.408 -0.0978  0.0368 -0.1114
42818W        W85731   4.742  17.756  19.960 -0.2730 -0.1802  0.1884
42819W        W85732  17.731  13.568  13.962 -0.2799 -0.3594  0.1493
42820W        W85733  11.109  15.786  15.374  0.0076 -0.0910  0.1507
42821W        W85734  11.927  16.222  13.594  0.2143  0.0775 -0.1311
42822W        W85735  13.654  21.660  13.197 -0.1752  0.2844  0.0789
42823W        W85736   9.451  14.890  21.080 -0.1412 -0.0935 -0.1357
42824W        W85737  20.151  26.480  18.537 -0.2330 -0.3989  0.0217
42825W        W85738   5.376  13.728  16.339  0.0140 -0.2401 -0.1333
42826W        W85739   9.352   1.595  21.572 -0.0904 -0.0581 -0.0576
42827W        W85740  13.098   9.416   2.803  0.0016  0.2416 -0.0990
42828W        W85741  12.635  29.364  15.419 -0.0948  0.0459  0.1610
42829W        W85742   1.221  15.522  19.118  0.2001  0.0375  0.0548
42830W        W85743  22.302  14.565  17.558 -0.0581 -0.2195  0.0684
42831W        W85744   6.899  13.264  18.646  0.0691  0.2086 -0.1803
42832W        W85745   5.535  15.988  14.150 -0.1586 -0.0537  0.1106
42833W        W85746   6.223  15.755  15.647 -0.0505 -0.0017  0.0774
42834W        W85747   1.551  21.148  14.277  0.3164 -0.1493  0.1698
42835W        W85748   8.147   9.581  25.069 -0.2516 -0.1327 -0.1453
42836W        W85749  18.217   9.814  23.502 -0.1926 -0.2271 -0.0184
42837W        W85750  19.767   8.778  29.370 -0.1659 -0.0278  0.1566
42838W        W85751   3.646  14.692  23.229 -0.0205 -0.4216  0.3177
42839W        W85752  11.108  22.071  21.912  0.1011 -0.3226 -0.2850
42840W        W85753  19.863   5.141  14.849  0.2429  0.3065  0.5392
42841W        W85754  13.080  23.918  17.576 -0.0815  0.0467  0.0309
42842W        W85755   8.377  20.616  19.487 -0.3224  0.1559 -0.1326
42843W        W85756  15.581   7.879  15.030  0.2277 -0.0258  0.1303
42844W        W85757   9.635  17.670  26.394 -0.0575 -0.3597 -0.0801
42845W        W85758   5.267   9.078  20.119 -0.1497  0.0097 -0.0379
42846W        W85759   9.917  15.580  19.695  0.1222 -0.3664 -0.0532
42847W        W85760  11.090  23.890  22.457  0.1099 -0.0096  0.4118
42848W        W85761  13.955  10.728  17.078  0.2834 -0.3105 -0.0201
42849W        W85762   5.485  22.951  25.615 -0.0708 -0.3032  0.2233
42850W        W85763  10.223   9.597  20.350 -0.2564 -0.2139  0.2308
42851W        W85764  12.633  24.457  16.970 -0.1320 -0.0691  0.1559
42852W        W85765  10.980  24.815  18.823 -0.2029 -0.1268  0.2598
42853W        W85766  32.149   4.549  28.529  0.0552 -0.1309 -0.2653
42854W        W85767  21.325   6.774  25.723  0.1154  0.4387 -0.0430
42855W        W85768   8.542   8.316  25.592 -0.1789  0.0212  0.2484
42856W        W85769  14.354   4.858  18.944  0.2382 -0.0800 -0.1726
42857W        W85770   2.448  26.667  15.105 -0.0838  0.1200  0.1216
42858W        W85771  10.351  14.406  22.427 -0.2089 -0.4181 -0.0765
42859W        W85772  31.256  26.670  25.575 -0.0337  0.1977  0.0050
42860W        W85773   7.492  17.951  19.185  0.1782  0.2042  0.0517
42861W        W85774  10.267  10.195  24.616  0.0211 -0.0303  0.0023
42862W        W85775  22.920  14.557  23.820  0.2314  0.4242 -0.3889
42863W        W85776  10.402  17.062  22.495  0.0169 -0.0777 -0.2403
42864W        W85777  11.854   8.554   8.201 -0.1919  0.1596  0.0445
42865W        W85778  10.267  31.683  16.169  0.1850 -0.0672 -0.1512
42866W        W85779   6.757  14.249  14.448 -0.1086  0.0045  0.3626
42867W        W85780  14.354  21.488  17.719 -0.0291  0.0319 -0.0234
42868W        W85781  12.962  20.024  28.835 -0.0344  0.0695  0.3233
42869W        W85782   6.256  17.428  14.843 -0.0515  0.0168 -0.2393
42870W        W85783  13.440  16.611  13.197  0.1900  0.1340  0.2307
42871W        W85784  11.621  12.890  18.254 -0.0149 -0.1939 -0.3612
42872W        W85785   8.173  26.091  27.212  0.0165 -0.0465  0.0783
42873W        W85786  17.582  16.391  12.266  0.1015 -0.2528 -0.0342
42874W        W85787  12.807   9.293  29.761 -0.0406  0.0562 -0.1004
42875W        W85788   2.722  15.411  17.178 -0.0995 -0.0112 -0.3431
42876W        W85789  24.212   9.501  16.147  0.1971 -0.3960 -0.1988
42877W        W85790   1.775  16.673  16.752  0.0530  0.0185 -0.0522
42878W        W85791   8.327  14.815  19.956 -0.0017 -0.1376  0.1967
42879W        W85792  13.823  13.148  24.714  0.0194 -0.2375 -0.2563
42880W        W85793  16.234  10.387  20.937 -0.2898 -0.0621  0.0192
42881W        W85794  17.039  10.106  18.866  0.1786 -0.0838  0.1900
42882W        W85795   1.346  21.774  14.959  0.2622  0.1743  0.2475
42883W        W85796   4.237  22.326  14.377  0.0226 -0.1617  0.2439
42884W        W85797  14.922   8.356  26.187  0.2115 -0.0425 -0.1305
42885W        W85798  11.010  24.599  17.618 -0.0502  0.0313  0.0066
42886W        W85799   7.717  22.732  17.532 -0.1009 -0.1911  0.1314
42887W        W85800   7.490  14.625  14.518  0.2890  0.0939 -0.1102
42888W        W85801  13.970  13.066  27.472  0.2263 -0.0339  0.2886
42889W        W85802   4.556  15.710  18.919 -0.2660  0.0954 -0.0607
42890W        W85803  31.476  15.099  22.499  0.1923  0.0090 -0.2060
42891W        W85804   6.861  17.368  18.738  0.0168 -0.0814  0.1393
42892W        W85805  34.241  20.323  17.312 -0.1605 -0.0502 -0.0459
42893W        W85806  20.843  10.238  16.518 -0.4279  0.0643  0.1038
42894W        W85807  24.910  17.794  15.741  0.1945  0.2600  0.3022
42895W        W85808   3.760  18.948  27.640 -0.1987 -0.0784 -0.0246
42896W        W85809   8.515  17.953  14.394  0.4469  0.0990 -0.5632
42897W        W85810  17.603  14.967  23.040  0.1796 -0.1110  0.1650
42898W        W85811   6.104  13.233  16.705 -0.0199  0.1929  0.1095
42899W        W85812  14.461  30.372   1.434 -0.3920  0.1025 -0.2855
42900W        W85813  11.536  16.495  18.972 -0.3912  0.1928 -0.0783
42901W        W85814  14.586  22.060  23.406 -0.1749 -0.1828 -0.3491
42902W        W85815  13.857  23.660  15.624 -0.2940  0.2094 -0.0822
42903W        W85816   3.346   5.098  25.143 -0.0780 -0.2293  0.0090
42904W        W85817  19.454  22.482  17.915  0.2093 -0.1579 -0.1666
42905W        W85818   3.565  16.088  17.110 -0.0072  0.1326  0.0490
42906W        W85819  10.883  16.014  24.211 -0.0246 -0.5218 -0.0079
42907W        W85820  14.016  28.563  19.171  0.0931 -0.1248 -0.0516
42908W        W85821  11.525  19.004  19.689  0.0723 -0.2764 -0.2516
42909W        W85822  14.511  11.984   0.992 -0.1817  0.0749 -0.0867
42910W        W85823  12.595  19.996  13.315 -0.3209 -0.0505 -0.0576
42911W        W85824  11.626  19.824  15.804  0.1791 -0.0825 -0.0311
42912W        W85825  12.470  12.297  15.678  0.1461 -0.1715 -0.1234
42913W        W85826  12.549  12.479  19.381  0.0105  0.2253 -0.0583
42914W        W85827   0.204  20.947  19.523  0.1822  0.0932 -0.2210
42915W        W85828  14.718  12.258  23.998 -0.0544 -0.0040  0.0242
42916W        W85829  12.791  26.794  14.850  0.1330 -0.1249 -0.1818
42917W        W85830   8.036  10.228   4.677  0.2706 -0.0481  0.0196
42918W        W85831   9.762  19.112  17.495  0.2634 -0.2017  0.1636
42919W        W85832  25.845  20.011  15.380  0.2940  0.1660  0.1733
42920W        W85833  20.035  22.084  12.631 -0.3805  0.0433  0.1146
42921W        W85834   7.533  15.809  20.709 -0.2519  0.5618  0.1188
42922W        W85835   9.331  18.722   1.940  0.1156 -0.0073 -0.1200
42923W        W85836   9.110   3.662  17.640 -0.1841 -0.0002  0.1188
42924W        W85837  14.088   8.362  18.962 -0.0274  0.1137 -0.0882
42925W        W85838   9.829  17.134  14.317  0.0173  0.2850 -0.0528
42926W        W85839  20.910  17.085  27.111  0.0006 -0.1302 -0.1506
42927W        W85840  14.168  15.301  14.193 -0.0051 -0.0666 -0.1040
42928W        W85841  16.448  12.852  22.457  0.2219 -0.0753  0.3502
42929W        W85842   9.317  10.212  21.425  0.0039  0.3515  0.1103
42930W        W85843  10.074  16.109  22.292  0.2143  0.0172 -0.2034
42931W        W85844   8.265  13.367  17.979  0.1977  0.0841 -0.0538
42932W        W85845   7.042  16.413  27.573 -0.0927  0.1256 -0.1105
42933W        W85846  32.310  14.174  25.933 -0.0863 -0.0182  0.1803
42934W        W85847  16.420  18.674  11.857  0.2395  0.2279  0.0721
42935W        W85848   9.587  12.410   5.751 -0.0758 -0.3650  0.2029
42936W        W85849   5.552  27.175  20.102  0.2155 -0.1118  0.0611
42937W        W85850   6.396  12.093  21.396  0.1490  0.0942 -0.0677
42938W        W85851  17.577  10.359  23.087  0.1626 -0.1130  0.1437
42939W        W85852   4.551   9.241  25.261  0.0115  0.1293  0.0743
42940W        W85853  12.855  26.534  16.257  0.1763  0.2632 -0.1723
42941W        W85854   6.137  16.998  15.783 -0.0771  0.1904 -0.0929
42942W        W85855  15.683   9.354  15.392 -0.2299 -0.0157  0.0918
42943W        W85856   7.687  14.587  18.501 -0.3005  0.2154 -0.0316
42944W        W85857  11.838  19.270  15.787 -0.1991  0.0086 -0.2133
42945W        W85858   2.456  17.073  17.502  0.1330  0.1664 -0.2951
42946W        W85859   9.706  14.320  15.897 -0.0021 -0.2730  0.2704
42947W        W85860   7.552  18.029  16.343 -0.1005  0.2998  0.1219
42948W        W85861  12.200  13.838   0.994 -0.1261 -0.0500  0.2736
42949W        W85862  12.448   7.024  23.897  0.0677 -0.1167 -0.0610
42950W        W85863  16.896  25.129  14.945  0.2533  0.0721 -0.2962
42951W        W85864  15.185  12.297  21.395  0.3876  0.2003  0.0562
42952W        W85865   7.413  10.620  19.056 -0.2357 -0.0776 -0.1044
42953W        W85866   5.399  29.535  17.937  0.0001 -0.1678  0.2735
42954W        W85867  18.523  28.355  20.225  0.1149 -0.3206 -0.1438
42955W        W85868  16.129   8.741  16.095  0.2377 -0.2892  0.0443
42956W        W85869   3.764  29.215  19.329 -0.2043 -0.0067  0.1402
42957W        W85870  17.921  11.198  23.086  0.0020 -0.1609  0.0507
42958W        W85871   9.102  12.167  17.405 -0.0120 -0.0887  0.1590
42959W        W85872   5.182  18.956  14.808 -0.1298 -0.2501 -0.0260
42960W        W85873   7.493  17.369  13.001  0.2672 -0.0330 -0.0672
42961W        W85874  10.919  19.404  20.357  0.1701  0.0056  0.2623
42962W        W85875   4.234  16.742  29.176  0.0779 -0.0216  0.0580
42963W        W85876   4.281  14.833  21.763  0.5669 -0.1766  0.0405
42964W        W85877  33.563  15.695  14.566  0.0933  0.1491  0.1082
42965W        W85878   9.016  11.884  22.427  0.1857 -0.2288 -0.0296
42966W        W85879   9.868  21.843  19.696 -0.2510 -0.0739 -0.2498
42967W        W85880  13.419  19.591  22.763  0.0264  0.1091 -0.0275
42968W        W85881  10.405  24.475  20.888 -0.0968 -0.0893 -0.1685
42969W        W85882  14.913  23.339  17.043 -0.0401 -0.0103 -0.0975
42970W        W85883   5.544  26.673  15.893 -0.2571 -0.1284  0.1595
42971W        W85884  31.919  21.762  20.544 -0.0451  0.2825  0.1124
42972W        W85885  22.632  31.234  29.438  0.0145  0.1867  0.2138
42973W        W85886  14.693  20.591  27.540 -0.1577 -0.1874 -0.1954
42974W        W85887   8.305  13.097  20.550  0.0573  0.3222  0.0110
42975W        W85888   4.888  22.899  21.034 -0.0180 -0.2609 -0.0354
42976W        W85889   7.836  11.350  23.237  0.0753  0.3487 -0.0376
42977W        W85890   6.481  10.962  17.642 -0.2126  0.1758 -0.0278
42978W        W85891  12.116   7.558  21.869  0.1120 -0.0102  0.3795
42979W        W85892  13.267  15.585  21.537 -0.3026  0.5426 -0.1861
42980W        W85893   1.000  28.621  25.468 -0.2115  0.2749 -0.2240
42981W        W85894   7.934  15.744   5.132 -0.0078 -0.0272  0.1023
42982W        W85895  15.841   9.659  14.978  0.0688 -0.4343 -0.0412
42983W        W85896   6.261  25.164  23.654  0.4278  0.1557  0.0405
42984W        W85897   0.693  17.780  20.565 -0.3523  0.1101 -0.1315
42985W        W85898  11.825  10.500  28.022  0.0226 -0.2617  0.3176
42986W        W85899   6.869  18.128  19.787  0.2616 -0.3091  0.0190
42987W        W85900  12.318  14.012  13.104 -0.0064  0.2906  0.4208
42988W        W85901   5.378   8.979  20.777 -0.1709  0.0833 -0.0786
42989W        W85902  16.312  11.026  17.722  0.2848  0.3460  0.1352
42990W        W85903  13.671  12.121  18.238 -0.0496 -0.0352 -0.1862
42991W        W85904  16.837  14.533  13.453 -0.1269 -0.1997  0.2895
42992W        W85905  10.512  24.402  17.810 -0.4302  0.0533  0.2444
42993W        W85906   6.041  21.053  20.312  0.0978  0.0770 -0.1294
42994W        W85907  14.346  12.472  18.039 -0.1174  0.0730 -0.2345
42995W        W85908   7.212  25.451  19.968  0.0386 -0.0668  0.1811
42996W        W85909   9.803  19.440  13.957 -0.0579  0.0956 -0.2019
42997W        W85910  19.645   9.759  28.332  0.2720  0.0152 -0.0557
42998W        W85911  23.391  13.744  17.787  0.1047  0.1252  0.0424
42999W        W85912   2.494  16.737  16.784  0.1176 -0.0364 -0.1383
43000W        W85913  26.102  23.482  16.749 -0.0786 -0.1072 -0.0234
43001W        W85914   8.532  18.581  13.186 -0.0947 -0.0995 -0.2921
43002W        W85915  19.941  20.808  15.281  0.0819 -0.1888  0.2137
43003W        W85916  21.622  31.372  25.565  0.2957 -0.2416 -0.1135
43004W        W85917   7.709  14.401  17.211 -0.2886  0.0302  0.0200
43005W        W85918   8.640  13.369  22.063  0.1676  0.0566 -0.1489
43006W        W85919  25.407  22.067  19.190 -0.0820 -0.1104  0.2882
43007W        W85920   9.627  24.121  18.975 -0.0769 -0.2674 -0.2671
43008W        W85921  10.544  18.384  17.383  0.0814  0.3132  0.0122
43009W        W85922  10.790  17.311  18.788 -0.0439  0.1419  0.0754
43010W        W85923  15.219  21.276  15.747  0.3305 -0.1578  0.0719
43011W        W85924   6.693   1.349  22.262 -0.1465 -0.1044 -0.0142
43012W        W85925  10.779  20.554  22.523 -0.1414  0.0944 -0.0131
43013W        W85926   6.100   8.183  26.364  0.0575 -0.0852 -0.2780
43014W        W85927  13.392  26.498  17.506  0.3254  0.0994  0.2410
43015W        W85928  12.243  16.449  21.730 -0.1581 -0.0488  0.1909
43016W        W85929  11.658  22.045  23.938 -0.2947 -0.2489  0.1130
43017W        W85930   3.559   5.592  20.782 -0.0741  0.1180  0.1310
43018W        W85931   6.489  21.593  15.897  0.3914 -0.0910  0.0574
43019W        W85932  12.724  12.319  21.305  0.0794  0.1703  0.1117
43020W        W85933  12.587   8.148  18.434 -0.1835  0.0174  0.1076
43021W        W85934  13.838  12.835  18.859  0.3585  0.2570 -0.0397
43022W        W85935  32.981  21.585  14.110 -0.2883 -0.0965 -0.1250
43023W        W85936   4.942  16.502  14.695 -0.2878 -0.1097  0.1795
43024W        W85937  11.209  21.792  20.609  0.2994  0.2648 -0.3693
43025W        W85938  17.591  11.681  24.852 -0.1007 -0.0714 -0.2476
43026W        W85939   9.159  15.881  22.794 -0.0701  0.2566  0.2417
43027W        W85940   2.656  18.085  24.978 -0.0843 -0.2589 -0.0935
43028W        W85941  18.197  26.904  19.806 -0.2923  0.0420 -0.0759
43029W        W85942   5.550  18.460  17.121  0.4266 -0.4785  0.1254
43030W        W85943  32.186  13.164  26.799  0.1201  0.0302 -0.1547
43031W        W85944  29.288  18.030   1.409  0.1086  0.1147  0.1946
43032W        W85945  17.789  22.987  18.008 -0.0637 -0.0339  0.1460
43033W        W85946  11.481   4.890  17.050 -0.1905 -0.1432 -0.1375
43034W        W85947   7.377  18.942  20.936 -0.0255 -0.0725 -0.1554
43035W        W85948  33.953  12.801  18.618 -0.2234  0.2587 -0.0203
43036W        W85949   2.971   9.608   4.860  0.2010 -0.0164  0.1794
43037W        W85950   4.873  18.262  18.732 -0.1124  0.1039 -0.0460
43038W        W85951  31.753  19.217   0.084  0.0013 -0.4165  0.1488
43039W        W85952   7.771  16.553  15.091 -0.1925 -0.0774  0.3833
43040W        W85953  16.581   9.317  13.701 -0.0846  0.3267 -0.1966
43041W        W85954  31.897  16.811  21.864  0.0055  0.0936  0.0972
43042W        W85955   7.135  10.100  26.568  0.2481 -0.0509  0.0596
43043W        W85956  12.684  15.710  22.388  0.0404  0.0026 -0.0539
43044W        W85957   9.583  26.325  19.151  0.2312 -0.2732  0.1613
43045W        W85958  12.929  11.078  24.609  0.1524 -0.1151 -0.7085
43046W        W85959   0.390  10.485  22.325 -0.2869  0.1089 -0.2842
43047W        W85960  18.721  21.814  15.002 -0.0173 -0.1128  0.0717
43048W        W85961  10.252  22.480  14.204 -0.3370  0.1377 -0.0725
43049W        W85962  33.875  18.114  28.094  0.1293  0.1753  0.1426
43050W        W85963  17.218  15.183  12.263  0.0283  0.1061 -0.0226
43051W        W85964   9.581   6.092  20.365 -0.3254  0.2298  0.0035
43052W        W85965   5.530  19.658  24.208 -0.1933 -0.1054  0.0280
43053W        W85966   5.644   7.366  20.276  0.2135  0.0315 -0.2235
43054W        W85967  29.206  16.201  19.864 -0.1301  0.0881 -0.1005
43055W        W85968   7.687  12.024  18.215 -0.0109 -0.2645 -0.2426
43056W        W85969   4.828  17.471  22.509  0.1699 -0.0679  0.3022
43057W        W85970  10.588  24.548  15.795 -0.1079  0.1201 -0.0497
43058W        W85971   7.271  21.792  14.614 -0.4097  0.1002  0.1129
43059W        W85972  10.261  15.100  18.889  0.0690 -0.0000 -0.0690
43060W        W85973   8.969  11.793  27.046 -0.0812 -0.5340 -0.1168
43061W        W85974  11.013   9.108  17.680  0.1986  0.2120  0.0262
43062W        W85975  11.480  12.186  17.672 -0.1301 -0.0429  0.3348
43063W        W85976  22.754  16.972  14.661 -0.1266  0.1168  0.1423
43064W        W85977   0.079   8.778  29.301  0.2821 -0.4075  0.2559
43065W        W85978  14.840   7.961  23.712  0.2556 -0.0927  0.1390
43066W        W85979   5.515  21.878  17.960 -0.2780  0.1531  0.0081
43067W        W85980  15.109  31.631  19.827 -0.2291 -0.4272 -0.1171
43068W        W85981   9.133  20.621  15.658  0.1719 -0.0314  0.1582
43069W        W85982   5.751  10.413  16.351  0.0368 -0.1174 -0.2371
43070W        W85983   3.814  14.008  17.996  0.0735  0.4746 -0.0452
43071W        W85984   4.298  10.802   0.703  0.0836  0.1460 -0.2280
43072W        W85985  10.485  19.331  12.768 -0.1019 -0.2857 -0.2334
43073W        W85986   8.527  16.395  17.651 -0.0339  0.0847 -0.0012
43074W        W85987  13.186   7.568  28.880 -0.0057  0.1890  0.0499
43075W        W85988   7.953  18.235  22.200 -0.2900  0.2084 -0.1208
43076W        W85989  22.538  27.245  20.129 -0.1724  0.1540  0.0402
43077W        W85990  33.642  15.576  26.235  0.0394  0.2325 -0.2986
43078W        W85991  13.278  18.400  17.006 -0.0446  0.0002 -0.0259
43079W        W85992  34.222  13.845  16.567  0.0168  0.0771 -0.2294
43080W        W85993   6.502  17.288  13.561 -0.2196 -0.2804  0.5061
43081W        W85994   6.096  20.189  29.148 -0.0605 -0.1502 -0.0047
43082W        W85995   1.054  10.931  17.537  0.1042 -0.0915  0.0029
43083W        W85996  11.411   0.733  22.086  0.1737 -0.2597  0.1974
43084W        W85997   8.003  18.888  24.649  0.2834  0.1158  0.2639
43085W        W85998  12.311  30.150  17.645 -0.0400  0.2457 -0.0679
43086W        W85999  32.337  24.440  26.953  0.4090  0.1613  0.0852
43087W        W86000  19.030  29.480  29.703  0.1376 -0.0183  0.0744
43088W        W86001  18.890  29.208  25.989 -0.0509 -0.3452 -0.2785
43089W        W86002  12.973  13.017  12.471  0.0877  0.1646  0.2388
43090W        W86003   3.406  10.864  22.375 -0.0383  0.3287 -0.4309
43091W        W86004  21.081   6.441  17.007 -0.5945 -0.1270 -0.0977
43092W        W86005   5.258   9.996  19.738  0.1756  0.3360  0.1303
43093W        W86006  12.738  17.901  20.029 -0.2831 -0.2661 -0.4860
43094W        W86007  26.872  19.945  19.668  0.1809 -0.0179  0.2032
43095W        W86008   1.212  19.082   0.803  0.0920 -0.0091  0.0493
43096W        W86009  10.000  11.638  21.962  0.1751 -0.0343 -0.2543
43097W        W86010   8.187  14.940  24.630 -0.1868 -0.1901 -0.4111
43098W        W86011   0.710  10.542  15.798 -0.0988  0.3163  0.0383
43099W        W86012  10.865  23.611  25.319  0.1657 -0.3829  0.2257
43100W        W86013   8.200  12.288  18.283 -0.0484  0.1790 -0.0232
43101W        W86014   4.810  20.938  22.366  0.0621  0.0774 -0.1180
43102W        W86015   2.018  15.181  18.610  0.0290  0.0424 -0.3504
43103W        W86016  23.444  18.744  15.267 -0.3998 -0.0003 -0.0384
43104W        W86017   5.104  15.225  22.305 -0.3191 -0.2593  0.0187
43105W        W86018  14.505   9.691   3.443 -0.2235  0.3912 -0.3395
43106W        W86019   4.977  16.313  19.847  0.0216 -0.5914 -0.4760
43107W        W86020  16.139  10.199  22.593  0.1756 -0.0253  0.0865
43108W        W86021   6.692  13.278  16.755 -0.1384  0.1923  0.1493
43109W        W86022  15.617  14.012  13.518  0.0194 -0.1576 -0.2939
43110W        W86023  17.678  27.260  21.824  0.0340 -0.0109  0.4367
43111W        W86024  13.755   9.242  13.805 -0.0520  0.1649 -0.1348
43112W        W86025  15.060  20.590  24.081 -0.2019 -0.1678  0.1967
43113W        W86026  17.940  21.909  14.352  0.1609  0.3270 -0.0364
43114W        W86027  15.030  10.483  18.855  0.2821 -0.2454  0.0323
43115W        W86028   2.483  20.149  21.736  0.2352 -0.3312  0.0758
43116W        W86029  22.561  20.888  16.294 -0.3100 -0.3351  0.2369
43117W        W86030  21.831  23.191  17.323  0.2649 -0.1645 -0.1556
43118W        W86031   4.331   9.552  18.680  0.2170 -0.3067 -0.4055
43119W        W86032   2.732  10.643  26.763  0.1256  0.1068 -0.1870
43120W        W86033   5.193  22.136  18.283 -0.2306  0.0537 -0.0031
43121W        W86034   6.440  11.987  15.426  0.0182 -0.4766 -0.0848
43122W        W86035   4.950  17.456  16.453 -0.3898  0.0208 -0.1576
43123W        W86036   4.687  22.112  26.010  0.1630  0.1874  0.0181
43124W        W86037  14.719   7.819  24.288 -0.0430 -0.0471  0.2939
43125W        W86038   7.763  20.104  17.760 -0.0564  0.4458  0.0300
43126W        W86039   5.654   9.284   2.449  0.1236  0.1165  0.4480
43127W        W86040  15.401  12.129  18.867 -0.0063  0.0131  0.0810
43128W        W86041   5.422  18.782  27.895  0.2792  0.0441  0.0709
43129W        W86042  17.673   8.716  19.555  0.3356  0.0323 -0.1342
43130W        W86043  16.250  13.226  24.949  0.3678 -0.6669 -0.3956
43131W        W86044  32.951  25.183  23.480 -0.1620 -0.3333  0.4207
43132W        W86045  13.007  14.594  18.505  0.1763  0.0339 -0.0511
43133W        W86046  12.121  12.971  27.150 -0.1894 -0.0175 -0.1618
43134W        W86047   9.740   6.741  22.833  0.1070  0.0722 -0.0926
43135W        W86048   5.535  18.152  19.040  0.1662  0.1706 -0.1179
43136W        W86049  14.237  25.394  14.041 -0.4119 -0.0205  0.2248
43137W        W86050  12.830  18.102  14.326 -0.1843  0.1243  0.0816
43138W        W86051  16.158   9.612  19.261  0.0502  0.2621 -0.0775
43139W        W86052  27.488  21.412  17.488  0.0268 -0.0956 -0.0454
43140W        W86053  11.236  17.341  16.714 -0.3706  0.0294  0.1957
43141W        W86054   3.614  17.715  23.376 -0.1938  0.1986 -0.1322
43142W        W86055   0.617  16.200  22.520  0.1809 -0.0372 -0.0326
43143W        W86056  13.185  14.672  24.359  0.1121  0.0420 -0.1377
43144W        W86057  17.297  12.799  18.196 -0.1115 -0.2612 -0.3028
43145W        W86058  28.431  14.679  21.620 -0.0523  0.0535 -0.1649
43146W        W86059  14.980   5.952  23.664  0.1323 -0.0073 -0.0849
43147W        W86060   7.303  11.880   7.971 -0.0264 -0.0422  0.3011
43148W        W86061   5.823  19.497  14.423 -0.1531  0.0666  0.2521
43149W        W86062   0.683   7.743  18.417 -0.1984  0.0438 -0.2286
43150W        W86063  11.217  15.879  26.733 -0.0849  0.1386 -0.0987
43151W        W86064  20.063  12.240  14.558 -0.0365  0.4133  0.2751
43152W        W86065   8.340   4.201  22.740  0.0006  0.0779  0.1177
43153W        W86066  11.490  11.060  19.281  0.0799 -0.0356 -0.0856
43154W        W86067  32.996  14.153  23.817  0.0679 -0.1177  0.2076
43155W        W86068  19.669  10.917  14.191  0.1155 -0.2243  0.4441
43156W        W86069   9.998   7.999  21.412 -0.3690  0.1015 -0.0950
43157W        W86070  11.427  15.071  17.559  0.1464 -0.1399 -0.0152
43158W        W86071   5.484  19.578  17.530 -0.1764 -0.1299  0.0090
43159W        W86072   2.034  20.041   4.983 -0.0652 -0.2524  0.1485
43160W        W86073  11.504  18.686  14.640 -0.1287 -0.0324 -0.5953
43161W        W86074   0.182  13.190  18.300  0.1509  0.2856  0.2515
43162W        W86075  10.693  12.173  19.564 -0.1506  0.0023 -0.0055
43163W        W86076  12.089  17.115  23.698  0.0428 -0.0679 -0.1677
43164W        W86077   0.262  29.920   6.332  0.0189 -0.1196 -0.0554
43165W        W86078   6.173  26.567  25.022 -0.1349  0.0211  0.0370
43166W        W86079  12.842  16.392   1.130 -0.0852 -0.0890 -0.1638
43167W        W86080  12.043  23.921  16.375 -0.0743 -0.1334  0.2226
43168W        W86081  19.226  18.702  14.303  0.0202  0.2921  0.0143
43169W        W86082   1.257  13.473  25.060 -0.1315 -0.0155 -0.2103
43170W        W86083  11.642  10.873  25.865  0.0601 -0.0257  0.0938
43171W        W86084   8.140  24.444  25.494 -0.1306  0.0870  0.2517
43172W        W86085  12.106   7.213  16.960  0.0945 -0.0840  0.1200
43173W        W86086  12.279  17.940  17.860  0.0626  0.2012  0.0774
43174W        W86087  32.947  10.386  19.445  0.0395 -0.0466 -0.0929
43175W        W86088  19.137  10.998  22.155 -0.2358  0.4081  0.0004
43176W        W86089  14.308  22.155  18.555  0.0761 -0.0364  0.1794
43177W        W86090  10.491  14.811  21.756  0.3023  0.1200 -0.2240
43178W        W86091   9.767  21.887  13.736  0.0718  0.0394 -0.1599
43179W        W86092  11.757  17.491  16.887  0.1833 -0.1947  0.2450
43180W        W86093   8.702   9.164  20.080  0.2745  0.0257 -0.4493
43181W        W86094   6.338  16.756  17.664  0.1037 -0.1317  0.2362
43182W        W86095   7.672  24.424  15.465 -0.2134  0.0104 -0.3712
43183W        W86096   8.749   6.695  22.175  0.0677  0.0188 -0.0036
43184W        W86097  10.083  13.765  25.222 -0.3514 -0.0675  0.0400
43185W        W86098  15.840  22.874  20.638  0.2009  0.0743  0.1641
43186W        W86099  33.554  14.822  19.108 -0.0500 -0.3358  0.0406
43187W        W86100  10.461  11.889  16.078  0.3568 -0.1663 -0.1337
43188W        W86101  16.385   6.329  18.336 -0.3673 -0.0966  0.2281
43189W        W86102  10.296  14.174  28.538  0.0601  0.3077 -0.1334
43190W        W86103  12.929  13.932  19.294  0.0482  0.2868  0.2006
43191W        W86104  18.442  26.869  18.456 -0.0457 -0.2115 -0.2091
43192W        W86105  32.032  12.446  18.015 -0.3243 -0.4057 -0.0503
43193W        W86106   4.094  13.870  18.823 -0.1761  0.3255 -0.1839
43194W        W86107   7.399  21.632  14.133  0.1174 -0.4974  0.0487
43195W        W86108  11.098  22.103  22.498 -0.0364 -0.2862  0.0257
43196W        W86109  12.256  14.094  17.145 -0.1208  0.1376  0.3003
43197W        W86110  32.091  10.462  19.674  0.0154  0.2855  0.1175
43198W        W86111   6.200  13.268  17.263 -0.1582 -0.0477  0.2800
43199W        W86112   8.780  14.058  21.999 -0.0631  0.2150  0.3201
43200W        W86113  11.961  29.640  19.402 -0.0035 -0.0285  0.0068
43201W        W86114   8.671  15.109  27.140  0.0782  0.0226  0.0729
43202W        W86115  13.498  15.156   6.018 -0.0486 -0.0785 -0.0404
43203W        W86116  10.215  18.120  13.083 -0.0293 -0.0657  0.4610
43204W        W86117  11.069  14.048  25.875  0.1266  0.0071  0.3298
43205W        W86118   3.937  26.373  20.199  0.1048 -0.0926 -0.2105
43206W        W86119  10.913   4.419  17.980 -0.0293  0.0376 -0.1858
43207W        W86120   9.400  12.750  19.810 -0.0307  0.3613  0.1892
43208W        W86121  15.575  13.119  13.736 -0.1370  0.0162  0.1993
43209W        W86122  11.656  20.500   6.013  0.3018 -0.1683  0.0138
43210W        W86123  14.989  12.093  16.761  0.0441  0.1682  0.0936
43211W        W86124  24.135  29.768  25.467  0.1039 -0.2038  0.0884
43212W        W86125   4.832  24.774  20.976  0.0923  0.1104 -0.4894
43213W        W86126   6.100  20.672  18.559  0.1082 -0.2078 -0.0710
43214W        W86127   3.402   8.091  20.318  0.0902 -0.0338  0.0411
43215W        W86128  17.196  21.292  27.289 -0.3359  0.2468 -0.1846
43216W        W86129  11.068  27.627  19.972  0.0583  0.1414  0.2470
43217W        W86130  21.465  20.668  13.922  0.1804  0.0143  0.0210
43218W        W86131   2.038  20.448  14.437 -0.0188 -0.0868  0.2391
43219W        W86132  20.040  23.404  19.675 -0.2640 -0.2268 -0.1796
43220W        W86133   2.468  21.447  21.803 -0.0203 -0.0515 -0.0832
43221W        W86134  14.576  13.118  21.332 -0.0131 -0.0210  0.3319
43222W        W86135   1.068  12.947  28.801 -0.1120 -0.2175  0.1928
43223W        W86136  22.749  19.585  14.601 -0.0068  0.1897  0.2498
43224W        W86137   6.020  25.753   0.613 -0.3101  0.0432  0.2191
43225W        W86138  22.346  23.318  17.218 -0.2266 -0.0283 -0.1844
43226W        W86139  16.777   2.891  18.576  0.0691  0.0224 -0.0703
43227W        W86140  10.530  12.869  19.014  0.0916  0.0619 -0.0880
43228W        W86141  34.406  26.282  21.610  0.0818 -0.1751  0.1217
43229W        W86142   5.473   6.758  18.508  0.1781  0.2025 -0.0154
43230W        W86143   7.778  20.392  14.568  0.0401 -0.2413  0.0337
43231W        W86144  31.660  34.023  17.911 -0.2352 -0.2544 -0.1260
43232W        W86145   9.596  18.735  27.477  0.0544  0.1904  0.0703
43233W        W86146  13.477  20.959  18.745  0.0323 -0.0339 -0.0731
43234W        W86147   1.490  24.312  17.426  0.0042 -0.0625  0.1021
43235W        W86148   9.057  16.229  18.690 -0.0668  0.0019  0.1279
43236W        W86149  13.178  14.144   4.047 -0.1962 -0.0681 -0.1174
43237W        W86150  14.710  27.084  21.702 -0.0425  0.2474 -0.0145
43238W        W86151  10.276   9.202   0.023  0.1092  0.3360 -0.2384
43239W        W86152  33.924  13.620  26.064 -0.1855 -0.2856 -0.2317
43240W        W86153   1.466  16.857  27.751  0.0030 -0.2165  0.1275
43241W        W86154  18.788  16.642   0.512  0.2169  0.2954  0.0730
43242W        W86155   6.156   4.022  20.276  0.1057 -0.1535 -0.0989
43243W        W86156  34.456  10.400  27.319 -0.4556  0.4038 -0.2723
43244W        W86157  29.999  13.633  17.113 -0.1260  0.0058  0.0692
43245W        W86158  11.257  15.962  21.091 -0.0044 -0.0449  0.0889
43246W        W86159  12.630   3.972  27.023 -0.0896 -0.1498 -0.1359
43247W        W86160   1.168   3.726  24.766  0.1340  0.3383  0.0030
43248W        W86161  21.585  16.908  15.069 -0.1933 -0.1682  0.6217
43249W        W86162   4.374  11.451  17.681  0.2694 -0.3439  0.1156
43250W        W86163   1.485  19.311  27.061  0.2433  0.4234 -0.0617
43251W        W86164   5.885  18.834  17.170  0.1042 -0.0410  0.3086
43252W        W86165  12.235  21.216  25.548  0.0624 -0.1001 -0.2054
43253W        W86166  10.317  20.942  25.387  0.2175 -0.0692 -0.0694
43254W        W86167  18.678  23.057   2.874  0.1921  0.0649  0.2989
43255W        W86168  10.216  20.610  16.118 -0.0084 -0.2307 -0.0155
43256W        W86169   6.138   8.869  27.587  0.1487  0.0760 -0.0982
43257W        W86170   7.221  18.316  21.609  0.0748  0.0387  0.0638
43258W        W86171   9.790  14.749  18.991 -0.4974 -0.1084  0.2098
43259W        W86172  16.651  12.755   2.362  0.1909 -0.2568 -0.0100
43260W        W86173   8.383   9.600  23.278 -0.2806 -0.2220  0.2782
43261W        W86174   8.074  18.717  24.180  0.0108 -0.0340 -0.0135
43262W        W86175  10.821  26.655  19.430 -0.1374 -0.4225 -0.1614
43263W        W86176  11.148  12.456  26.871 -0.4801 -0.0694 -0.0557
43264W        W86177  21.799  19.078  16.153  0.0849  0.0793 -0.3611
43265W        W86178   7.731  18.583  25.493  0.0024 -0.0022  0.1297
43266W        W86179   7.751  25.844  22.110  0.2616 -0.2032  0.0609
43267W        W86180  18.563  15.398  23.111 -0.0173  0.3734  0.0048
43268W        W86181  15.550  21.721  21.862  0.0655  0.0004  0.1570
43269W        W86182  12.824  24.662  26.850  0.2815 -0.0950  0.0404
43270W        W86183   2.936  20.854  28.594  0.0304  0.0414  0.1131
43271W        W86184   7.226  19.596  24.854  0.1934 -0.0187 -0.0165
43272W        W86185  10.760  18.609   0.857 -0.0968  0.2510  0.2617
43273W        W86186   2.903  29.625  24.544  0.1548 -0.0027 -0.1070
43274W        W86187  12.827  19.490  24.650 -0.2304  0.1520 -0.2587
43275W        W86188   7.284  19.362   2.953  0.3108 -0.0770  0.0454
43276W        W86189   8.130  27.043   7.723  0.3094 -0.0679 -0.4027
43277W        W86190   7.958   3.492   4.628 -0.0454  0.0771  0.0102
43278W        W86191   0.501  11.821  25.121 -0.1989  0.2270 -0.3419
43279W        W86192  30.681   3.731   2.999 -0.1056  0.0193 -0.0055
43280W        W86193   7.915  15.207  21.069  0.0785 -0.1869  0.0108
43281W        W86194  15.019  12.520  17.357  0.1235 -0.0934 -0.1921
43282W        W86195   0.522  13.010   3.615 -0.4043  0.2392  0.1073
43283W        W86196  21.162   5.699   1.511 -0.0437  0.0398  0.0498
43284W        W86197  13.207   0.716  29.469 -0.2079 -0.1913 -0.1441
43285W        W86198   2.339   6.522  19.316 -0.0496 -0.0351  0.2197
43286W        W86199  12.458  22.603  24.744 -0.1419  0.0611  0.0078
43287W        W86200   5.672  32.288  19.861 -0.1822 -0.2251 -0.1053
43288W        W86201  13.535  10.643  29.056 -0.2338 -0.1647 -0.0315
43289W        W86202  30.704  17.998   2.164 -0.2932 -0.2040 -0.2903
43290W        W86203  31.183  14.583   0.671  0.3517 -0.0581 -0.1147
43291W        W86204   6.286  16.238  24.537 -0.1257 -0.2574  0.0825
43292W        W86205  10.748  29.908  26.590  0.0791  0.0267 -0.0159
43293W        W86206  12.667  21.378  17.106  0.0916 -0.2355  0.0665
43294W        W86207   4.678  22.095  15.770 -0.0798 -0.0666 -0.4382
43295W        W86208  13.179   5.950  19.419 -0.2221  0.3150  0.1158
43296W        W86209   6.449  19.371   5.394  0.0639  0.1309  0.0733
43297W        W86210  10.600   9.726  16.294  0.0846  0.2166  0.3175
43298W        W86211  11.424  11.278  22.142  0.0142  0.1772 -0.1084
43299W        W86212   9.773  20.808  28.361  0.1835 -0.3953 -0.2130
43300W        W86213  17.614  22.336  14.382  0.0780  0.0451 -0.0117
43301W        W86214   4.273  11.574  26.582 -0.0342 -0.0401  0.1889
43302W        W86215  15.106  19.378  19.598 -0.0036  0.0895 -0.1477
43303W        W86216   1.288  27.231   4.487 -0.1601  0.1269 -0.0045
43304W        W86217   9.138  20.189  20.930 -0.0117  0.0712 -0.1078
43305W        W86218  13.379  19.851  14.659  0.2641  0.1346 -0.0924
43306W        W86219  14.201  20.263  20.641 -0.2206 -0.0052  0.2704
43307W        W86220   6.883  15.768  21.957  0.3795  0.0142 -0.2134
43308W        W86221  10.394  18.450  23.215  0.0472 -0.1165 -0.1715
43309W        W86222   3.503  16.350  28.798 -0.1186  0.0177  0.2300
43310W        W86223  30.943   5.717  24.632  0.1246 -0.2522 -0.5859
43311W        W86224  10.868  13.365  17.485  0.0334  0.2987  0.0605
43312W        W86225   4.755  32.406  26.852 -0.1134 -0.3478  0.4451
43313W        W86226  16.780   7.183  20.729  0.1082 -0.0136 -0.2681
43314W        W86227   9.876  29.045  28.518 -0.1509 -0.2142  0.1282
43315W        W86228   1.678  26.475  18.480  0.0370 -0.1469  0.0314
43316W        W86229   1.478   2.921  24.747 -0.1181  0.1946 -0.1637
43317W        W86230  13.878  20.739  27.974  0.1744 -0.0282 -0.1245
43318W        W86231   2.360   6.554  25.640 -0.2914 -0.0469  0.0665
43319W        W86232   6.899  11.896  20.981  0.0160  0.2950  0.0681
43320W        W86233   8.177  22.023  24.574  0.2440 -0.1689  0.4189
43321W        W86234   6.195  18.755  24.312  0.0502 -0.1546  0.0383
43322W        W86235   4.404  14.890  24.183  0.4081  0.1050  0.1628
43323W        W86236   6.760   8.865  23.859  0.1716 -0.0890 -0.3361
43324W        W86237   3.373  12.783  25.516  0.2835 -0.0656 -0.2122
43325W        W86238   7.552  14.536  20.471 -0.3978  0.0637  0.0204
43326W        W86239  11.485  30.314  20.418  0.0118 -0.1773 -0.1533
43327W        W86240   3.893   9.718  18.047  0.1036 -0.0840  0.5585
43328W        W86241   9.190   9.942   1.726  0.0805  0.0029 -0.0671
43329W        W86242   5.919  11.708  26.700  0.0487 -0.3799  0.0778
43330W        W86243   0.828  15.998  13.749 -0.0039 -0.2312 -0.1000
43331W        W86244  12.721  15.685  27.978  0.2225 -0.3775  0.0272
43332W        W86245   5.900  13.045  25.626 -0.3350  0.0446 -0.1430
43333W        W86246   7.174  15.957  21.045  0.0151 -0.1498  0.0082
43334W        W86247   9.964   9.975  22.244  0.1624 -0.0870  0.3329
43335W        W86248  15.062   2.432  22.011 -0.1726 -0.1194 -0.1646
43336W        W86249  15.692  24.376  25.957  0.1619 -0.2465  0.1955
43337W        W86250  16.003  23.392  14.443 -0.0904 -0.2026  0.0043
43338W        W86251  22.779  15.245  17.047 -0.1181 -0.0371 -0.0971
43339W        W86252   9.395  18.589  18.712  0.1211  0.2788  0.0538
43340W        W86253  12.752  21.035   2.106 -0.0571  0.0552 -0.0751
43341W        W86254  10.973  26.723   5.750 -0.2001 -0.0778 -0.3443
43342W        W86255   4.595  19.055  21.395  0.1396 -0.0325 -0.2844
43343W        W86256  18.868  10.819  18.764 -0.0589 -0.0544 -0.1479
43344W        W86257  16.480  18.666  29.580 -0.3630 -0.3461  0.0942
43345W        W86258   5.236  12.570  15.640  0.3302 -0.0156  0.0925
43346W        W86259   2.727  25.688  23.126  0.0636 -0.2287  0.0413
43347W        W86260   8.498  14.969  27.621 -0.2302  0.1445  0.3325
43348W        W86261  20.731   7.878  24.487 -0.0711  0.1382  0.0172
43349W        W86262  10.991   6.876  29.398 -0.1205  0.1165  0.3566
43350W        W86263   1.863  15.540  14.114 -0.0051  0.2593 -0.0550
43351W        W86264   6.549  13.613  20.601 -0.0525  0.4255 -0.0173
43352W        W86265   1.415  14.013  22.075 -0.0102  0.0072  0.0968
43353W        W86266   4.103   9.041  21.367  0.0764  0.1096 -0.1231
43354W        W86267  13.127  13.341  14.037 -0.0955  0.3383  0.0196
43355W        W86268  16.014  29.241  20.798  0.1945 -0.1388 -0.3920
43356W        W86269   6.309  20.885  27.760 -0.1192  0.0773  0.1687
43357W        W86270  10.792  25.576  26.264 -0.1347  0.0938 -0.1352
43358W        W86271   5.513  14.037  14.717 -0.2403  0.2977 -0.1393
43359W        W86272  15.530  12.346  13.148  0.1622 -0.1323 -0.0846
43360W        W86273   1.849  12.285  29.470 -0.2832 -0.1556  0.1463
43361W        W86274  10.014  15.696  21.756  0.0257  0.0215  0.1435
43362W        W86275  10.758  14.084  28.379 -0.0245 -0.0732 -0.2189
43363W        W86276  14.445  18.161  23.814  0.1927 -0.1623  0.1792
43364W        W86277  32.500  12.630  21.443 -0.1524  0.1323  0.1723
43365W        W86278  19.317  14.697  23.877 -0.2009 -0.0196  0.0286
43366W        W86279   7.202  24.684  24.312 -0.0533  0.0067  0.0188
43367W        W86280  14.287  14.952  15.686 -0.2420  0.1454 -0.0165
43368W        W86281  17.054  27.869  27.178 -0.0557  0.0949 -0.1193
43369W        W86282  16.316   5.813  24.156 -0.1565  0.0911  0.1582
43370W        W86283  16.812  21.937   4.895 -0.0752 -0.2087  0.1994
43371W        W86284  11.022   8.978  26.630 -0.2698 -0.1231 -0.0150
43372W        W86285   1.035  19.304  28.655  0.0662  0.0549 -0.0851
43373W        W86286  11.465  22.694  20.367  0.1644 -0.0485  0.2515
43374W        W86287   5.619  15.837  20.424  0.1676  0.0464  0.1415
43375W        W86288  17.509  21.983  24.670 -0.1763 -0.0511  0.0390
43376W        W86289   6.551  12.275   1.330  0.1050 -0.0092  0.2119
43377W        W86290  23.596  17.476  13.554 -0.1704 -0.3275 -0.3210
43378W        W86291   8.614   8.335  22.985 -0.0381  0.0505  0.1593
43379W        W86292  16.320  19.250  24.473  0.0720 -0.2227 -0.0848
43380W        W86293   5.084  17.015  16.749  0.2342  0.1186  0.2128
43381W        W86294  10.885  17.351  19.536  0.0444 -0.1380  0.0497
43382W        W86295  22.901  11.446  15.458  0.1681 -0.1958  0.1115
43383W        W86296   0.695  15.873   0.939 -0.2131 -0.0243 -0.0123
43384W        W86297  11.214  27.711  20.469 -0.0249  0.1061  0.0057
43385W        W86298  13.808  14.045  22.030 -0.1323 -0.2025  0.4622
43386W        W86299  11.918  17.721  23.783  0.1079 -0.0735 -0.2731
43387W        W86300  12.799  26.953  23.224 -0.0866 -0.2289  0.0172
43388W        W86301  30.464  14.857  28.289 -0.1115  0.0150  0.0853
43389W        W86302  34.422   7.874  19.533  0.2190  0.2149  0.4015
43390W        W86303  11.502  17.965  20.433  0.0195  0.0317 -0.1948
43391W        W86304   0.532  15.147  20.673  0.4526  0.2594  0.2745
43392W        W86305  12.793  15.874  16.604  0.1119 -0.2165  0.1723
43393W        W86306   8.050  16.776  14.037 -0.0465  0.0297  0.1426
43394W        W86307  32.591   0.357  16.391  0.1955 -0.0526  0.2905
43395W        W86308   1.715  18.887  18.784  0.0016  0.0128  0.2154
43396W        W86309  10.399  23.164   8.099  0.2540  0.2483 -0.1247
43397W        W86310  14.985  20.024  26.562  0.1954  0.1200 -0.2472
43398W        W86311  16.465  29.416  20.832  0.2516 -0.3271  0.0280
43399W        W86312  15.233  11.893  21.098 -0.0582 -0.0878  0.2159
43400W        W86313   8.133  12.753  25.408  0.0677  0.0385 -0.0073
43401W        W86314  10.114   9.563   1.385  0.1172 -0.0762 -0.1140
43402W        W86315   4.183   7.067  28.257 -0.0512 -0.2912  0.0795
43403W        W86316  14.936  15.361  14.047 -0.1547 -0.0022 -0.2187
43404W        W86317  10.094  24.167  18.994 -0.1397  0.1282 -0.2226
43405W        W86318   9.941  13.221  18.866  0.1399  0.1334  0.2215
43406W        W86319   6.191  14.913  19.710  0.0017  0.0629  0.0197
43407W        W86320  33.232  26.682  19.662  0.0121  0.0276 -0.0883
43408W        W86321  33.692  13.244   1.734 -0.3416  0.2552  0.1923
43409W        W86322  14.092  12.029  14.531  0.0562  0.1714 -0.1360
43410W        W86323  10.083  16.365  23.189 -0.0630  0.1261  0.0981
43411W        W86324  16.842  22.989  22.199 -0.1027 -0.0277 -0.2468
43412W        W86325   6.224   6.642  24.833 -0.0588  0.0960  0.1723
43413W        W86326   3.111   9.914  25.252 -0.2478 -0.1986 -0.2130
43414W        W86327  10.440   0.074  21.685 -0.0214  0.0150  0.1764
43415W        W86328  17.704  12.449  18.887 -0.1294 -0.0423 -0.0318
43416W        W86329  11.604  19.503  22.248 -0.3189  0.1554  0.0226
43417W        W86330   1.467  16.728  15.466  0.2368  0.0562  0.1316
43418W        W86331   9.716  21.973  20.306  0.2980 -0.0026  0.6004
43419W        W86332  21.469  22.609  16.474  0.1581  0.0861  0.2416
43420W        W86333  16.714  21.851  17.469  0.0853 -0.1110 -0.0398
43421W        W86334   6.092  16.178  22.562 -0.0427 -0.2092 -0.0271
43422W        W86335  15.155  12.453  18.002  0.1096 -0.1091  0.2960
43423W        W86336   4.300  17.823  14.843 -0.1922 -0.0862 -0.0655
43424W        W86337   7.529   1.662  22.587 -0.1580 -0.2120  0.0252
43425W        W86338  17.643  13.031   6.246 -0.2538 -0.2024 -0.2307
43426W        W86339  12.958   9.786   4.291  0.1021  0.2272 -0.0893
43427W        W86340   3.001  16.632  29.408 -0.1013  0.0010 -0.1348
43428W        W86341   9.675  12.318  19.125 -0.2345  0.0333 -0.2079
43429W        W86342  10.746  18.399  24.244 -0.0390 -0.0437  0.0653
43430W        W86343   6.300  14.370  22.386  0.0899 -0.2832  0.0869
43431W        W86344   4.244  18.097   1.924  0.1504 -0.3631  0.1760
43432W        W86345  12.372  32.889   0.071  0.1463  0.2960  0.4360
43433W        W86346  12.031  12.572  16.923 -0.0489  0.0034  0.1455
43434W        W86347   6.042  19.412  21.473  0.0971  0.0690  0.0360
43435W        W86348  14.888  20.270  21.244 -0.3876 -0.0763 -0.0987
43436W        W86349   8.552  21.718  15.440 -0.0902 -0.0055  0.0061
43437W        W86350   8.944  19.862  15.062  0.1937  0.0587 -0.2298
43438W        W86351  22.927  11.446  25.733  0.1738  0.0037 -0.0129
43439W        W86352  14.957  13.657  17.530  0.0892  0.0398  0.1401
43440W        W86353   4.613  14.384  21.629 -0.2631  0.1114  0.1281
43441W        W86354   9.216  19.467  28.755  0.0906  0.0708  0.1681
43442W        W86355  22.101  18.298  27.561 -0.2457  0.1833  0.0356
43443W        W86356   2.509  17.448  26.630  0.1260 -0.0790 -0.4441
43444W        W86357  11.344  22.300  20.655 -0.1368  0.0459 -0.1872
43445W        W86358   6.134  21.933  26.118  0.3092  0.2467  0.1223
43446W        W86359   2.935  15.482  26.590  0.0208 -0.1683 -0.0676
43447W        W86360  11.993  17.309  15.188 -0.1748  0.0546  0.0413
43448W        W86361   3.477  16.921  21.188 -0.0391 -0.2437 -0.1561
43449W        W86362  17.147  10.405  19.937  0.0644 -0.0629  0.2142
43450W        W86363   5.286  14.031  21.512 -0.0937 -0.2841 -0.1033
43451W        W86364  12.104   5.011  28.437  0.2808 -0.0862 -0.0227
43452W        W86365   7.642  26.607  20.144 -0.0373  0.1575 -0.1400
43453W        W86366  13.175  15.153  18.700 -0.0091 -0.5077  0.1345
43454W        W86367   7.676  25.209  27.132  0.0869 -0.0562 -0.0257
43455W        W86368  18.219   1.738   0.614 -0.2754  0.0936  0.2500
43456W        W86369  17.166  16.428   3.043  0.0569 -0.0446 -0.0296
43457W        W86370  31.286  14.547  22.653 -0.3160  0.1115 -0.0524
43458W        W86371   0.057  15.274  21.896 -0.1266 -0.0078 -0.3348
43459W        W86372  11.112  31.163  20.677 -0.1089 -0.0090 -0.3710
43460W        W86373   8.644  11.807   0.118 -0.0599 -0.1364  0.0692
43461W        W86374  15.036  19.006  26.131 -0.0495  0.1744 -0.0880
43462W        W86375  17.972  10.754   2.067  0.2103 -0.1869  0.0417
43463W        W86376  21.972  12.816   5.587  0.0049  0.1147  0.2498
43464W        W86377  10.103   5.818   4.344  0.0697  0.4478 -0.0207
43465W        W86378  14.648   2.475  27.501  0.1233  0.1809 -0.2238
43466W        W86379  13.909  26.390  16.502  0.1861  0.1524 -0.0944
43467W        W86380  33.524  13.860  25.636  0.2064  0.0650 -0.1074
43468W        W86381  33.831   8.788  22.087  0.0390 -0.3097  0.0498
43469W        W86382   6.515  12.486  18.708  0.2478 -0.0003 -0.4296
43470W        W86383  18.843  12.705  19.012 -0.2022  0.2250 -0.0208
43471W        W86384   1.237  18.116   0.215  0.0599  0.1781 -0.0237
43472W        W86385   8.157  19.685  29.434  0.0936  0.0093  0.0734
43473W        W86386  20.939  12.873  22.229 -0.4690  0.0970  0.3420
43474W        W86387   8.241  20.918  28.658 -0.3079  0.0662  0.5030
43475W        W86388  12.604  19.606  28.946 -0.0045  0.3674 -0.2794
43476W        W86389  12.497  19.859  18.012  0.0216 -0.0737 -0.0248
43477W        W86390  13.317  22.385  18.580  0.0563 -0.3637  0.2928
43478W        W86391   6.317  21.833  19.321  0.7523  0.1885 -0.2498
43479W        W86392  33.664  12.834  20.566  0.1475 -0.0917  0.0360
43480W        W86393  13.269  16.578  22.491 -0.4525  0.0250  0.1337
43481W        W86394   9.517  19.181  29.089 -0.1020  0.0934  0.0765
43482W        W86395   2.649  19.974  20.884  0.2337  0.2019  0.0417
43483W        W86396  10.379  30.664  27.735 -0.0893  0.0501 -0.1434
43484W        W86397  12.346   5.858  24.037 -0.1237 -0.0759 -0.1175
43485W        W86398  14.140  11.675  12.964  0.1733 -0.3255  0.0729
43486W        W86399  11.307   4.810  27.835  0.1127  0.0362  0.3102
43487W        W86400  32.529  11.444  15.247  0.0581  0.0510  0.2871
43488W        W86401  28.182   7.979  15.702  0.1060  0.2570 -0.1061
43489W        W86402  16.317  14.533  11.640 -0.2654  0.1782  0.0863
43490W        W86403   7.671   1.929  27.541  0.1283 -0.2524  0.1946
43491W        W86404  10.527   2.106  26.136 -0.0208 -0.1778 -0.0742
43492W        W86405  14.159   9.065  15.236 -0.1724  0.2517  0.0654
43493W        W86406  21.588  16.492   2.369  0.2252  0.1819 -0.2875
43494W        W86407  13.686  16.633  19.027 -0.0675 -0.1458  0.0930
43495W        W86408   5.050  16.183  15.982 -0.2568  0.2335 -0.4158
43496W        W86409   4.206  21.231  23.738 -0.0362  0.1231 -0.0495
43497W        W86410   4.086  15.250  14.625 -0.0193  0.1464  0.0429
43498W        W86411   5.570   9.526  22.741 -0.1257 -0.1753  0.0291
43499W        W86412   6.316   8.626   0.581  0.2096  0.1731 -0.0063
43500W        W86413  16.043  13.331  16.015 -0.1829 -0.1285  0.0509
43501W        W86414  21.805  10.548  17.809 -0.1472 -0.1288 -0.1012
43502W        W86415   9.469  10.577  25.707 -0.2107  0.0105 -0.2446
43503W        W86416  25.441  22.605  25.581  0.0049  0.2786  0.0432
43504W        W86417  10.248  24.285  18.206  0.2883 -0.1595 -0.2328
43505W        W86418   1.210  21.748  17.477 -0.3344  0.1190 -0.1249
43506W        W86419   9.950   9.062  21.548 -0.0495 -0.1335 -0.1008
43507W        W86420   8.179   1.247   4.095  0.2411  0.1251 -0.1939
43508W        W86421   8.188  21.141  16.737  0.1422 -0.1336  0.1241
43509W        W86422   2.650  30.003  27.979  0.3107 -0.3680  0.2658
43510W        W86423   3.265  21.020  17.262  0.0493 -0.2636 -0.0280
43511W        W86424  19.227  13.161   0.846  0.0723  0.1270 -0.0321
43512W        W86425   7.891  19.285  16.280  0.1030 -0.2884  0.1540
43513W        W86426  10.244  14.007  15.065  0.0677 -0.2887 -0.1451
43514W        W86427   7.621  15.048  18.783 -0.1853 -0.2889  0.1240
43515W        W86428  14.155  22.211  25.089 -0.0601  0.0392  0.0384
43516W        W86429  11.308  15.329  26.927 -0.2915 -0.0629 -0.0075
43517W        W86430  32.067  23.532  25.265 -0.2318  0.1109 -0.0266
43518W        W86431  19.569  21.319  18.290  0.1266 -0.2207 -0.0489
43519W        W86432  19.120  16.450  27.107 -0.0265  0.2346 -0.0741
43520W        W86433  17.219  10.816  21.503 -0.0550  0.0529  0.3175
43521W        W86434   6.486  15.226  26.549 -0.0067 -0.2011  0.0011
43522W        W86435  13.402  15.242  27.743 -0.1478  0.0201 -0.0220
43523W        W86436   5.320  15.312  18.149  0.0522 -0.1691  0.1060
43524W        W86437  13.747  12.987  17.539  0.0768 -0.1703 -0.1194
43525W        W86438  11.090  16.410  28.017  0.2170 -0.0633 -0.1440
43526W        W86439   1.528  21.510  20.540 -0.1111  0.1376  0.1468
43527W        W86440  10.106  13.909  19.771  0.1615  0.2082 -0.1210
43528W        W86441  14.233   2.888  19.228  0.1716 -0.2857 -0.1102
43529W        W86442  12.480   6.554  25.494  0.1124  0.0997 -0.0450
43530W        W86443  11.709  24.480  24.591  0.0238 -0.1287  0.5808
43531W        W86444   8.064  16.646  21.215 -0.4142 -0.1549 -0.3465
43532W        W86445  10.439  16.494  28.452 -0.0111  0.0399 -0.1160
43533W        W86446  23.030  12.617  24.562  0.0299  0.1347  0.3842
43534W        W86447   7.899  22.824  15.433  0.0868  0.1528  0.1121
43535W        W86448  10.342   7.359   2.024 -0.1969 -0.1002  0.0613
43536W        W86449  10.015  24.723  26.559  0.0827  0.1658 -0.0802
43537W        W86450  12.522  13.381  22.841  0.0340 -0.0852 -0.2326
43538W        W86451   8.526  15.171  28.482 -0.1612  0.2018 -0.4812
43539W        W86452  15.984  15.192   5.634 -0.2300 -0.2807 -0.0773
43540W        W86453  11.603  12.100  25.417 -0.0148  0.2202 -0.3041
43541W        W86454  10.115  13.963  21.274  0.0301 -0.3674 -0.0339
43542W        W86455  14.695   9.558  18.278 -0.2388 -0.0680 -0.1885
43543W        W86456   6.344  24.982  20.904 -0.0455  0.0086  0.0042
43544W        W86457  17.651  25.139  15.582 -0.0412 -0.1001  0.0057
43545W        W86458   9.584  19.490   1.275 -0.0095 -0.1018 -0.2208
43546W        W86459   1.853  17.271  29.316  0.1019 -0.2123  0.0507
43547W        W86460   5.023   1.251  19.842 -0.0560  0.2419 -0.0442
43548W        W86461   0.003  11.895   2.770 -0.1154  0.0993  0.2794
43549W        W86462  16.545  10.125  21.201  0.0259 -0.0742 -0.0752
43550W        W86463   4.924   9.766  24.707 -0.1582 -0.0988 -0.2005
43551W        W86464   2.992  30.992  24.801 -0.1048 -0.1543  0.1619
43552W        W86465   1.827  22.269  27.721 -0.0132  0.2063 -0.0288
43553W        W86466  21.729  28.093   1.136 -0.1429  0.3191  0.1152
43554W        W86467   5.537   7.708  26.969 -0.1547  0.1625 -0.0420
43555W        W86468   0.674  13.116  29.679 -0.0558 -0.0975  0.0021
43556W        W86469   8.733  14.210  24.411 -0.2517  0.2553 -0.0389
43557W        W86470   4.643   3.391  24.328 -0.2800  0.0870  0.1581
43558W        W86471   9.757  24.124  25.155 -0.1348 -0.0688 -0.0637
43559W        W86472  15.996  31.720   6.285  0.1485  0.0611  0.0999
43560W        W86473   3.447   7.303   2.032 -0.0486 -0.1093 -0.4780
43561W        W86474   4.355   8.889  16.354  0.1247  0.3420  0.0605
43562W        W86475  21.831  21.506  17.197 -0.1357 -0.1493 -0.0690
43563W        W86476  13.265  21.841  19.200  0.0072  0.0096 -0.0899
43564W        W86477  12.943   8.076  27.981  0.0001 -0.0978  0.0924
43565W        W86478   8.284  17.061  20.939  0.0245 -0.0131  0.0033
43566W        W86479   4.151  22.255  19.104  0.0198  0.2644 -0.1674
43567W        W86480  33.928  22.636   3.562  0.1010 -0.2062 -0.2018
43568W        W86481  12.921  18.945  28.015  0.1153  0.2241 -0.0606
43569W        W86482   7.402  24.868   6.408 -0.1614  0.1360  0.3847
43570W        W86483   3.627  12.904  22.486  0.1048  0.2287 -0.0797
43571W        W86484   3.820  22.305  26.248 -0.0827  0.2100  0.1479
43572W        W86485  21.227  23.013  16.633  0.1744  0.3900  0.0597
43573W        W86486  12.349  20.380  22.778  0.1335  0.1642 -0.0682
43574W        W86487  13.961  33.226  17.573  0.0274 -0.1548  0.1772
43575W        W86488  13.016  11.494  27.765  0.2198 -0.0187  0.3173
43576W        W86489  13.557  16.574  20.069  0.1103  0.1841 -0.1561
43577W        W86490  12.670  17.504  25.934  0.1588  0.2503  0.0955
43578W        W86491   1.262  22.941   4.909  0.0766  0.0327 -0.0615
43579W        W86492   5.758  31.966  28.207  0.0479  0.3553  0.1435
43580W        W86493   7.434  34.047  20.314  0.0429  0.4991  0.4448
43581W        W86494   4.066  17.886  20.766  0.3447 -0.2278 -0.3468
43582W        W86495   6.546  18.598  26.767 -0.2278 -0.1863  0.1892
43583W        W86496   8.853   7.052   1.924 -0.0390 -0.0155 -0.0444
43584W        W86497  11.432  24.566   7.896 -0.0179  0.5564 -0.2855
43585W        W86498  34.060   9.450  22.988  0.0171 -0.0785 -0.1171
43586W        W86499  18.729  16.135   4.176 -0.3544 -0.0934 -0.0035
43587W        W86500  11.003  22.433  15.091  0.4448  0.0286 -0.2325
43588W        W86501  11.346  15.534  21.785 -0.2118 -0.2229  0.1071
43589W        W86502  11.933  12.278  25.842 -0.0040 -0.2263 -0.2299
43590W        W86503   7.419  23.822  20.551  0.0524  0.0199  0.0719
43591W        W86504  20.782   7.724  27.184  0.3474  0.2237  0.1461
43592W        W86505   6.155  26.293  27.233  0.0361 -0.0306  0.0623
43593W        W86506  12.584  15.348  23.372 -0.3907 -0.1241 -0.2292
43594W        W86507  13.163  14.844  13.385 -0.0043  0.4314  0.0167
43595W        W86508   6.972   3.520  19.945 -0.1068  0.0380 -0.2693
43596W        W86509  16.823   7.827   0.262 -0.3564  0.2249 -0.2986
43597W        W86510  13.600  19.659  13.991 -0.1061 -0.0776 -0.0440
43598W        W86511  17.780  25.583  15.252 -0.2190 -0.0892  0.2342
43599W        W86512   3.093  18.288  25.378  0.0148  0.1147  0.1234
43600W        W86513  11.044  16.204  27.519  0.0034  0.0158  0.2257
43601W        W86514  28.308  31.349  24.329 -0.2383 -0.0385 -0.0105
43602W        W86515   7.772  26.059  17.644  0.0598  0.1008 -0.2465
43603W        W86516   7.503   2.137   1.939  0.0018  0.1177 -0.0784
43604W        W86517  11.885  14.273  24.284 -0.3025 -0.4328 -0.0530
43605W        W86518   8.836  17.854  26.115  0.0711  0.0671 -0.1508
43606W        W86519  15.306  20.453  16.407  0.3098 -0.0192  0.1124
43607W        W86520  13.467  24.183   6.903 -0.2890 -0.3176  0.1029
43608W        W86521  18.467  16.006  25.716  0.1917  0.3603 -0.1171
43609W        W86522  13.793  13.492   6.804 -0.2202  0.3794 -0.0396
43610W        W86523   9.585  26.348  26.437  0.0755  0.2010 -0.2107
43611W        W86524   3.698   0.340  16.981  0.1869  0.1779 -0.1180
43612W        W86525   8.185  19.410  17.602  0.2706 -0.0361  0.1645
43613W        W86526   4.239  16.563  23.509  0.3719 -0.1261 -0.0089
43614W        W86527  18.114  18.898  14.928 -0.1610 -0.0575 -0.2068
43615W        W86528  13.164  13.512  20.166  0.1500  0.0104  0.0411
43616W        W86529   9.013  10.351   3.301 -0.0965  0.1114  0.2492
43617W        W86530  16.029   6.361  22.932 -0.0210 -0.4907 -0.1436
43618W        W86531   9.048  15.002  26.780  0.0169 -0.0661 -0.0688
43619W        W86532  11.137  27.527  15.542 -0.4421  0.4457  0.1498
43620W        W86533   7.767  10.872   1.696  0.3209 -0.0463 -0.1262
43621W        W86534  34.014  17.489   6.425  0.2316 -0.1620  0.2758
43622W        W86535   3.288  11.609  20.186 -0.0146  0.1719 -0.0557
43623W        W86536  13.946  20.310  21.298  0.0734 -0.0783 -0.1522
43624W        W86537  18.132  15.937  24.734 -0.1511  0.0326 -0.1301
43625W        W86538  11.150  22.236   3.965 -0.1141  0.1253 -0.3916
43626W        W86539  34.043  18.667  22.754 -0.1290 -0.2216  0.0109
43627W        W86540   3.501  14.200  23.671  0.6794 -0.1270 -0.0784
43628W        W86541   1.120  21.842  21.800  0.0068  0.1396  0.1956
43629W        W86542  20.111   9.266  20.325  0.2561 -0.0706  0.2104
43630W        W86543  16.364  27.449  24.648 -0.2329 -0.4448  0.3022
43631W        W86544  13.657   9.798   6.889  0.1887 -0.0649 -0.1703
43632W        W86545   8.463   8.541  19.535 -0.1979  0.0384 -0.1246
43633W        W86546   8.181  17.565  27.624 -0.2182 -0.2383 -0.0648
43634W        W86547   4.945  21.871   2.533 -0.1096  0.0085 -0.5122
43635W        W86548  12.804  16.141   0.661  0.0514 -0.0334 -0.0543
43636W        W86549  11.361   9.570  23.055 -0.1924  0.0721 -0.0091
43637W        W86550  15.483  19.466  23.284 -0.0225 -0.4095  0.2660
43638W        W86551   8.835   7.739  26.722 -0.0163  0.0260 -0.0715
43639W        W86552   8.824  26.817  27.641  0.1750 -0.0828 -0.1249
43640W        W86553   8.202  16.095  22.004 -0.1983 -0.3284  0.0563
43641W        W86554  12.208  20.061   0.430 -0.3910 -0.0527  0.0010
43642W        W86555  17.131  24.400   1.069 -0.2876 -0.1560  0.0238
43643W        W86556   8.065  23.455  23.147 -0.3166 -0.3444 -0.0711
43644W        W86557   0.127  10.497  29.059  0.4238  0.5153 -0.0672
43645W        W86558  30.021  19.925  21.529 -0.2164  0.1391 -0.3598
43646W        W86559   5.722  15.753  22.815  0.0874 -0.0315  0.2172
43647W        W86560  15.227  11.938  20.530 -0.1524  0.1070 -0.1448
43648W        W86561  12.025  28.588  25.872  0.2521  0.1210 -0.1038
43649W        W86562   6.048   8.438   0.173  0.2035  0.1412 -0.0188
43650W        W86563  13.595  22.382  24.971  0.0184  0.1870 -0.1778
43651W        W86564  15.245   6.581  26.792  0.0010 -0.0567 -0.2365
43652W        W86565   7.029   6.740  11.700  0.3831  0.0334  0.0955
43653W        W86566   0.517  18.957   8.343  0.1563  0.0978  0.1248
43654W        W86567  15.082  25.676   5.899  0.0610  0.2029  0.1054
43655W        W86568   6.979  23.677  21.421 -0.0106  0.0479 -0.1930
43656W        W86569  19.054   9.168   8.235  0.1884  0.3387  0.0669
43657W        W86570  32.829  21.081  28.012  0.0798  0.0938  0.3011
43658W        W86571  11.136   8.730   1.161  0.3025  0.1920  0.0756
43659W        W86572  14.834  12.446  25.623 -0.0421 -0.1664  0.3444
43660W        W86573  20.061  20.432  24.993  0.0102 -0.3959  0.2968
43661W        W86574  19.925  10.177  19.017 -0.2150 -0.2783  0.1077
43662W        W86575  16.060  12.503  27.619  0.0355 -0.2516  0.0839
43663W        W86576  13.405  19.274  24.543  0.0222  0.3700  0.2000
43664W        W86577   3.361   9.316  22.396 -0.1483 -0.0460  0.3399
43665W        W86578   6.026  13.836  23.770 -0.1276  0.1837 -0.0710
43666W        W86579  33.898  21.808  19.777  0.0539 -0.0659  0.0332
43667W        W86580   3.096  20.096  22.808  0.1168  0.0527  0.5193
43668W        W86581   7.038  13.012   1.987  0.0527  0.1283  0.2864
43669W        W86582  13.240  19.080   6.795  0.0931  0.2661  0.0842
43670W        W86583  10.730  22.698  23.779 -0.3394 -0.1180  0.1457
43671W        W86584  26.345  14.924  24.268 -0.1168 -0.5715  0.2478
43672W        W86585   9.071   8.942  24.169  0.1882 -0.0015  0.2373
43673W        W86586  14.309  21.355   1.504  0.1090  0.1127  0.1846
43674W        W86587  13.165  12.060  25.510 -0.0143 -0.2356 -0.2048
43675W        W86588  14.958   3.664  10.242 -0.0378 -0.0604 -0.0925
43676W        W86589  20.437  17.330  24.532 -0.0158 -0.0613 -0.2680
43677W        W86590   4.466  11.484  29.383  0.0702 -0.0682  0.1417
43678W        W86591   6.875  19.083  26.077  0.0204 -0.0209  0.3647
43679W        W86592   5.307  14.644  28.419 -0.1848 -0.0239 -0.0559
43680W        W86593  34.124  22.066  20.652 -0.1239 -0.1378  0.3794
43681W        W86594   0.365  19.948  18.550  0.2975  0.2360 -0.1806
43682W        W86595   5.904  14.254  24.009 -0.1133 -0.0651 -0.0124
43683W        W86596   8.879  12.296  21.638 -0.0158 -0.3537 -0.2309
43684W        W86597   7.334  20.953   5.475  0.0901  0.0066  0.1220
43685W        W86598   7.109  16.095  16.975 -0.1834  0.2151 -0.0457
43686W        W86599  11.370  11.013   0.395  0.0295  0.3646 -0.1718
43687W        W86600   2.729  12.383  23.585 -0.0685 -0.0968 -0.1476
43688W        W86601  11.072  26.367   5.314  0.2106 -0.1525  0.2918
43689W        W86602   9.919  11.184  25.557 -0.0066  0.0846 -0.0038
43690W        W86603   3.586   9.919  19.476  0.1190 -0.2640  0.1093
43691W        W86604   0.758  30.261   6.266 -0.2597  0.1194 -0.2902
43692W        W86605  13.459  15.018  28.167 -0.0287 -0.0855  0.0677
43693W        W86606  17.743  16.448  26.420 -0.0760  0.2923 -0.1849
43694W        W86607  12.440  13.249  28.881 -0.0371 -0.1682 -0.0324
43695W        W86608  16.795  13.106  17.484 -0.2881 -0.3111 -0.2441
43696W        W86609  17.534   1.702   1.991 -0.1829  0.0284  0.1168
43697W        W86610   0.617  18.583  29.663  0.0035  0.0423  0.0508
43698W        W86611  34.285  14.134  25.200 -0.1107 -0.0909  0.1438
43699W        W86612  11.416   2.070  17.646  0.1251  0.3391  0.0942
43700W        W86613  34.157  20.652  27.017  0.0977 -0.0633  0.1830
43701W        W86614  11.517  15.998  28.785  0.1904 -0.5016 -0.1417
43702W        W86615   8.144  15.235  21.741 -0.1515  0.0556  0.0545
43703W        W86616  11.797   9.203  27.280 -0.1615  0.1515  0.2327
43704W        W86617  22.435  24.270   4.030  0.2512  0.0391 -0.2698
43705W        W86618  21.660  24.716  13.935 -0.2703 -0.3785 -0.1546
43706W        W86619  33.583  20.659   7.458  0.3452 -0.2589  0.0296
43707W        W86620  12.361   7.497  23.746 -0.2086  0.3730  0.1597
43708W        W86621   5.854  16.284   3.207 -0.1417  0.0129  0.2042
43709W        W86622  10.226  12.510   1.372  0.0067 -0.0322  0.0020
43710W        W86623   8.776  28.913  26.935 -0.1419 -0.0897  0.2978
43711W        W86624   8.607  14.769  24.247 -0.0287  0.1164  0.0059
43712W        W86625  12.454  18.698   2.450 -0.0038 -0.2992 -0.4200
43713W        W86626   9.994  26.083   3.404  0.0666 -0.2071  0.1022
43714W        W86627  31.623  19.674  25.825  0.0096 -0.3064 -0.1205
43715W        W86628  16.388  12.422  20.855 -0.1417 -0.1108 -0.1521
43716W        W86629   0.983  15.917  21.109 -0.0543 -0.1892  0.2981
43717W        W86630  18.788   8.871  16.176  0.1188 -0.1923  0.0028
43718W        W86631   5.403  16.010  29.189  0.1374  0.0365 -0.0581
43719W        W86632  15.429   0.294  24.753 -0.0026  0.2011  0.3391
43720W        W86633   8.101  23.124   0.991 -0.1151  0.1886 -0.0827
43721W        W86634  15.724  26.848  25.180 -0.0971  0.1458  0.2878
43722W        W86635   5.683   6.660  25.602 -0.0993  0.0551  0.1532
43723W        W86636   9.872  12.439  28.366 -0.0220  0.1341 -0.0406
43724W        W86637  29.970  33.626  24.088  0.0727 -0.0382 -0.0248
43725W        W86638   4.237  11.166  22.870  0.1275  0.1047  0.0705
43726W        W86639   4.954  16.323   3.970  0.1591 -0.0432  0.4653
43727W        W86640   2.112  12.669  21.010 -0.2037  0.0273 -0.1161
43728W        W86641   0.415  15.005   7.378 -0.3725  0.0013 -0.2926
43729W        W86642  33.716  13.985  28.169 -0.1496  0.0251  0.1811
43730W        W86643  10.496  18.328  13.687  0.0629  0.0201 -0.3136
43731W        W86644  17.356  13.253  26.075 -0.0576  0.1325  0.1260
43732W        W86645  12.185  20.460  28.501 -0.4087 -0.2577 -0.0101
43733W        W86646  13.683  17.138  25.608 -0.0167  0.0367  0.2951
43734W        W86647   0.175  24.288  28.708 -0.1854  0.0251  0.0492
43735W        W86648   8.674  19.391  29.302 -0.1939  0.0052 -0.1160
43736W        W86649   8.278  18.292  19.937 -0.1360 -0.0748  0.2068
43737W        W86650   9.739  13.650  26.616  0.2528  0.1283 -0.0711
43738W        W86651  15.664  18.119   8.221  0.5053 -0.0798 -0.0486
43739W        W86652  17.314  18.240  14.996  0.1514  0.0308  0.2031
43740W        W86653   5.599  29.206  21.574 -0.1098 -0.2003 -0.1313
43741W        W86654   1.888  21.937  28.584  0.0934  0.0546 -0.0499
43742W        W86655  12.017  11.977  14.319  0.0900 -0.3402  0.2097
43743W        W86656   6.819  15.022  19.465  0.1257 -0.0927 -0.1311
43744W        W86657   1.550   8.955  22.646  0.1332  0.3753 -0.1187
43745W        W86658  15.110  28.419  20.282 -0.0365 -0.1640 -0.0076
43746W        W86659   8.718  16.412  29.072  0.0960 -0.0870 -0.0184
43747W        W86660  10.141  22.811   6.317  0.0117  0.2603  0.1544
43748W        W86661  13.822  22.193  18.367 -0.1572 -0.0162  0.1845
43749W        W86662  20.277  16.698   1.630 -0.0331 -0.0539 -0.2309
43750W        W86663   5.024  21.522  21.558  0.3327  0.3344  0.3826
43751W        W86664   3.237   7.034  16.917  0.0162  0.0831  0.2491
43752W        W86665  13.523  10.241  24.576  0.1663  0.0674 -0.0159
43753W        W86666   6.990   6.705  23.879 -0.1726 -0.4217  0.0502
43754W        W86667   8.134  20.798  21.970 -0.0731 -0.1769  0.0698
43755W        W86668  11.085   9.393   2.313  0.0679  0.2460 -0.2629
43756W        W86669  15.815  13.436  28.642 -0.0281  0.1135 -0.2179
43757W        W86670   4.581  15.581  28.288 -0.0541  0.3162 -0.0306
43758W        W86671  16.307   2.366   1.982 -0.1311  0.1845 -0.1812
43759W        W86672   8.007  17.252  13.788  0.1563 -0.3759  0.1827
43760W        W86673   2.145   4.656  21.721  0.0894 -0.0475 -0.3197
43761W        W86674   9.076  17.645  17.685 -0.1322 -0.0816 -0.0928
43762W        W86675  19.119   4.377   3.664 -0.1848 -0.0018 -0.0947
43763W        W86676  12.658   9.247   1.473 -0.0671 -0.0978 -0.2198
43764W        W86677  16.467  11.026  28.070 -0.1025 -0.4407 -0.0116
43765W        W86678  32.901  16.871  28.411 -0.2785  0.0774 -0.2044
43766W        W86679   4.915  16.986   3.223 -0.2297 -0.0747  0.1209
43767W        W86680  10.359  20.176  25.931  0.2592  0.1087  0.0136
43768W        W86681   5.324  20.298   3.391  0.2342  0.1017  0.3185
43769W        W86682   5.311  25.771   2.805  0.3900  0.2057  0.4539
43770W        W86683   3.874  11.283   3.697  0.1969  0.0602  0.1491
43771W        W86684  12.533  15.357   8.515 -0.4146 -0.0372  0.0151
43772W        W86685  16.754  17.777   6.212 -0.0910  0.3447  0.0118
43773W        W86686  12.034  13.700  25.402  0.3711 -0.2227 -0.1008
43774W        W86687  14.641  14.252  25.681 -0.2275  0.0858 -0.2713
43775W        W86688   7.393  17.322  27.886  0.1781 -0.2938  0.0431
43776W        W86689   6.398   9.802   7.209  0.2767  0.0198  0.0333
43777W        W86690   6.884  16.605  29.062 -0.1446 -0.1076  0.0429
43778W        W86691  23.399  24.332   8.148  0.1028 -0.1700  0.1127
43779W        W86692  14.344  14.484   3.452  0.0459 -0.0851  0.0978
43780W        W86693   5.271  13.221   0.791  0.2194  0.1781  0.3355
43781W        W86694   0.957  14.829   2.029  0.3625 -0.2257 -0.0625
43782W        W86695   9.460  11.176  22.715  0.0995 -0.2396  0.2716
43783W        W86696  22.230   8.702  26.718  0.3229 -0.2505 -0.0692
43784W        W86697   2.772  17.419  23.982 -0.1928  0.1860 -0.2041
43785W        W86698  18.947  15.777   0.520 -0.1301 -0.0295  0.3922
43786W        W86699   0.022   6.010   1.837 -0.2387 -0.2728 -0.1398
43787W        W86700   5.359  18.201  29.000  0.0664 -0.0785  0.0722
43788W        W86701  16.468  20.577  24.311 -0.1365  0.0142 -0.0817
43789W        W86702   6.795  13.350   2.369  0.3223  0.3370  0.2835
43790W        W86703  12.411  13.813   7.050 -0.2141  0.0946  0.0013
43791W        W86704   8.811  30.126  27.518  0.0066  0.1909 -0.0584
43792W        W86705   1.778   5.999  24.785  0.0114 -0.2394 -0.2368
43793W        W86706  18.556   6.643   2.003 -0.1992 -0.4996  0.0397
43794W        W86707   5.575  18.830  25.906 -0.1939 -0.0229  0.0282
43795W        W86708   9.565  26.798   4.508  0.0721 -0.1368 -0.0175
43796W        W86709   4.200  17.885   7.133  0.0318 -0.1909 -0.1725
43797W        W86710  18.051   7.915   6.877 -0.0138  0.1408  0.0244
43798W        W86711   8.324  14.190  25.135  0.2314 -0.4008  0.0474
43799W        W86712   8.239   1.571  24.264 -0.0870  0.0653 -0.0368
43800W        W86713   9.465  13.984   6.414  0.1226 -0.3360  0.0039
43801W        W86714  11.284  26.130  18.839 -0.1511  0.0797 -0.2188
43802W        W86715   1.469  12.766  29.454 -0.2275  0.0229  0.0234
43803W        W86716  12.325  11.537   2.792 -0.2320 -0.1406 -0.1920
43804W        W86717  33.976  16.842  14.354  0.4730  0.0837  0.1369
43805W        W86718  11.379   9.952  27.582  0.0519 -0.0477 -0.1411
43806W        W86719   9.588   1.431   5.064 -0.0971  0.1519 -0.2108
43807W        W86720   9.532  24.103  23.611  0.1550  0.1428  0.2974
43808W        W86721  10.159  11.463  26.763 -0.1723 -0.0042  0.0135
43809W        W86722  18.032  21.569  27.422  0.0188  0.1454 -0.0745
43810W        W86723   6.391  14.276  26.950  0.5617  0.1728 -0.0415
43811W        W86724   3.692  14.097   1.778  0.2028  0.1680  0.1005
43812W        W86725  31.229  21.309  15.800 -0.0556 -0.0135  0.0132
43813W        W86726   6.051  10.637   0.714 -0.0988  0.2329  0.2309
43814W        W86727   4.049  15.030   1.593  0.1203  0.0084 -0.2667
43815W        W86728   5.882  17.961  24.436 -0.4073  0.1687 -0.0670
43816W        W86729  14.592  13.746  25.715 -0.1615  0.1134  0.2853
43817W        W86730  32.869  15.610  19.651 -0.0362 -0.3528 -0.0747
43818W        W86731  31.830  10.533  22.977  0.0637 -0.2392  0.2118
43819W        W86732   8.726  12.917  23.344  0.2101  0.0880  0.0752
43820W        W86733  14.960  18.404  27.799  0.1750 -0.0349  0.2061
43821W        W86734   4.456   9.007   5.010 -0.1062 -0.1029  0.1272
43822W        W86735  12.939  15.851  21.199 -0.5653  0.2656  0.0222
43823W        W86736  13.179  24.028   3.872  0.1946  0.0666  0.1564
43824W        W86737  15.224  26.119  29.020  0.0395 -0.0040  0.2124
43825W        W86738  15.979  17.929  24.661 -0.3238  0.2357  0.3049
43826W        W86739  28.877  17.050   7.879 -0.0715 -0.0419 -0.0043
43827W        W86740  13.298   6.038  16.614 -0.0348  0.1001 -0.0129
43828W        W86741  12.303  19.286  16.130 -0.0638 -0.3025  0.3720
43829W        W86742   5.162   5.535   7.285 -0.3977 -0.1690  0.0178
43830W        W86743  17.088  18.828  24.108  0.0474 -0.0401 -0.3494
43831W        W86744   4.400  13.031   9.776 -0.3935  0.2980 -0.1197
43832W        W86745   8.802  22.228  22.488 -0.2823  0.4260 -0.1133
43833W        W86746   7.752   1.813  27.050 -0.1297  0.0406 -0.2112
43834W        W86747  18.073  17.902  26.759 -0.1421 -0.1969  0.4890
43835W        W86748   8.202   9.964  24.623  0.2189 -0.1536  0.0166
43836W        W86749  14.203  22.162   2.887 -0.2451  0.1221  0.1397
43837W        W86750  13.754  13.669  27.876 -0.3642  0.1035 -0.1482
43838W        W86751   6.506  11.861  16.426  0.1322  0.1764 -0.0011
43839W        W86752   8.706  27.042  24.541  0.0793  0.0982  0.0212
43840W        W86753  12.695  17.094  26.957  0.0475  0.0801 -0.1425
43841W        W86754  10.850  29.739   2.861 -0.0112 -0.0275  0.2222
43842W        W86755  20.029  17.879  22.920  0.1675 -0.1812 -0.0921
43843W        W86756   6.953  11.024  27.081  0.1590  0.1229 -0.1381
43844W        W86757   8.023  22.966  27.797 -0.0217 -0.0826 -0.1521
43845W        W86758   7.793  14.645   6.191  0.2688  0.1308 -0.0302
43846W        W86759  10.123  18.819   4.497 -0.1663  0.0344 -0.2911
43847W        W86760  33.005  10.509  21.892  0.3190 -0.0979  0.1499
43848W        W86761   8.748  17.452  29.209  0.2381 -0.2676  0.1888
43849W        W86762   5.956  18.233  17.838 -0.0230  0.0977 -0.1295
43850W        W86763  25.388  25.201  26.246  0.0851  0.1166  0.1288
43851W        W86764  34.101  21.598  26.776  0.0506  0.0282  0.1504
43852W        W86765   5.468  24.497  28.281 -0.2231  0.2174 -0.0102
43853W        W86766   2.665  15.912  21.468  0.1297 -0.1212 -0.0439
43854W        W86767   9.045  15.822  26.890  0.3791  0.2518  0.2107
43855W        W86768  32.615  13.247  17.952 -0.3895  0.0417  0.0277
43856W        W86769   6.647  21.184  14.105 -0.0601 -0.0752  0.0033
43857W        W86770  20.713  28.160  21.573  0.4218  0.1949 -0.1129
43858W        W86771  11.376  15.371  27.515 -0.1868 -0.2487 -0.2039
43859W        W86772   7.456  13.275  27.126 -0.0763  0.2480 -0.2006
43860W        W86773  33.720  20.967  23.256 -0.1279 -0.2771 -0.1301
43861W        W86774  14.505  13.425   5.733  0.0909  0.2474 -0.0367
43862W        W86775   9.494  19.229  20.037 -0.1123  0.1287  0.1395
43863W        W86776  15.261  17.104  27.194  0.0165 -0.0909  0.0632
43864W        W86777   6.464  10.935   8.633 -0.0547  0.1306 -0.2027
43865W        W86778  10.674  22.709  19.382 -0.1147  0.0110  0.0654
43866W        W86779  16.364  11.099   1.095 -0.0327  0.1595 -0.0208
43867W        W86780   5.920  16.905   4.608 -0.2993  0.0837 -0.0338
43868W        W86781   4.229  19.908  21.085 -0.1930  0.0874 -0.0818
43869W        W86782  10.616   9.664   6.366 -0.0113  0.0918  0.1195
43870W        W86783  13.291  22.525  21.541 -0.0563 -0.1838 -0.2352
43871W        W86784   5.337  31.267  26.854  0.4815 -0.0538  0.0010
43872W        W86785   2.922  17.085  19.678  0.0944 -0.0078 -0.4202
43873W        W86786   0.627   9.201   6.124  0.1459  0.1051 -0.0703
43874W        W86787  12.083  23.939  22.728  0.0457  0.2568  0.0570
43875W        W86788   0.999  14.044   1.596 -0.2615 -0.2866  0.1217
43876W        W86789   6.440  22.724   7.443 -0.1358  0.1602 -0.2443
43877W        W86790  31.233  25.774  23.772  0.0902 -0.1202  0.0241
43878W        W86791  18.679   2.179   0.007  0.1444 -0.2563  0.1730
43879W        W86792  21.718  26.833  16.771  0.1911 -0.0367  0.2140
43880W        W86793  17.293   5.519   3.801 -0.3659 -0.1700  0.2671
43881W        W86794  19.275  18.073  24.567  0.2414  0.2142  0.4954
43882W        W86795  15.833  20.204  26.100  0.0097 -0.2980 -0.0009
43883W        W86796   7.718  15.906  20.199 -0.2498  0.0279  0.0328
43884W        W86797   0.663  19.443  24.893 -0.0462 -0.2917  0.1000
43885W        W86798   9.021  25.427  26.258  0.0377 -0.0448  0.1702
43886W        W86799  14.087  15.608   0.947 -0.0445  0.0257  0.0730
43887W        W86800  18.134  17.134   1.060 -0.1963  0.1485 -0.0888
43888W        W86801  16.215  20.726   5.172 -0.1399  0.0313  0.1333
43889W        W86802   4.340   9.344  24.343 -0.2906 -0.0959  0.2263
43890W        W86803   2.564  13.240   2.724 -0.0649 -0.0588 -0.3351
43891W        W86804   3.147  20.097  27.046  0.2028 -0.0419 -0.2917
43892W        W86805   2.059  25.617  22.449  0.0369 -0.0754  0.0145
43893W        W86806  11.375   2.059  28.474  0.1114  0.0317  0.2392
43894W        W86807   1.914  15.682   3.718 -0.5348  0.1239 -0.1116
43895W        W86808  11.795  11.643  18.544  0.2990  0.1091  0.0484
43896W        W86809  10.965  10.593   7.221 -0.1296 -0.1541 -0.3230
43897W        W86810   7.967  21.349   1.046 -0.3798  0.0607  0.1363
43898W        W86811   2.809  15.435   3.054 -0.0884  0.3003  0.0677
43899W        W86812   8.196  12.549   6.152  0.2092  0.0218 -0.0645
43900W        W86813  10.377  31.540  20.091 -0.0321 -0.1798 -0.3097
43901W        W86814  10.037   2.286  23.699  0.0227 -0.0618 -0.1557
43902W        W86815  12.652  18.240   2.029  0.0808 -0.0474 -0.2186
43903W        W86816  19.781   7.527   6.832  0.0030  0.1828 -0.1799
43904W        W86817  18.453  18.189   3.909 -0.0294 -0.0301 -0.1366
43905W        W86818  14.411  24.009   6.591  0.4069  0.2572  0.2756
43906W        W86819  13.367   1.071  28.712 -0.1521  0.2549 -0.2520
43907W        W86820   2.838  23.232  27.753 -0.3386 -0.0091  0.1382
43908W        W86821  12.153  10.204  19.831 -0.0335 -0.1240  0.3152
43909W        W86822   9.274  13.167   1.611 -0.1992  0.2418  0.3437
43910W        W86823   3.088  15.362  28.252 -0.2822  0.0174 -0.0023
43911W        W86824  13.958   4.327  23.377 -0.0417  0.0544 -0.4323
43912W        W86825   7.342  17.094  19.315 -0.0764  0.1224  0.3213
43913W        W86826  10.207   7.963   2.525 -0.1150  0.2014  0.2212
43914W        W86827   5.106  12.245  21.788  0.0263 -0.1387  0.2063
43915W        W86828  11.731  19.966   2.505  0.0811 -0.0445 -0.1516
43916W        W86829   9.125  16.607  26.805  0.0559  0.2657  0.1347
43917W        W86830  12.863  25.855   3.940 -0.3564 -0.1219  0.0420
43918W        W86831  15.752  14.167  26.398  0.1525  0.0260 -0.2530
43919W        W86832   5.057  17.219  29.279  0.1395  0.3172  0.3297
43920W        W86833  17.178  24.246  25.168 -0.0710 -0.0285  0.0778
43921W        W86834   7.879  11.492  20.321  0.0457  0.1112  0.1089
43922W        W86835  12.433  24.043   8.822 -0.0600  0.2297  0.0588
43923W        W86836  20.104  20.503  28.902  0.3326  0.0532  0.0401
43924W        W86837   2.312  22.305  29.474  0.0224  0.0667 -0.1078
43925W        W86838   3.522  17.760  25.397  0.0445 -0.4697 -0.0274
43926W        W86839  12.185  19.067   3.183 -0.1351  0.1041 -0.2526
43927W        W86840   6.768  15.347  27.460 -0.0668  0.2015  0.1562
43928W        W86841   4.577  14.064   3.213 -0.3256  0.1060 -0.5036
43929W        W86842  11.151  19.877  26.290 -0.1626 -0.1097  0.2737
43930W        W86843  11.057  22.430   7.665 -0.0881 -0.2109  0.1141
43931W        W86844  10.317  16.986  14.363 -0.0474  0.2064 -0.1669
43932W        W86845  32.660  20.117  22.947  0.0280  0.1780  0.2048
43933W        W86846   9.835  18.299   2.728  0.0166 -0.1909  0.1072
43934W        W86847   9.713  13.599  21.597  0.0129 -0.0802 -0.1936
43935W        W86848  15.267   3.865   0.339  0.0525 -0.3829 -0.1029
43936W        W86849  14.041  11.743  17.554  0.1357  0.2785 -0.1079
43937W        W86850  11.678  13.421  27.862 -0.0923  0.1021  0.2094
43938W        W86851   9.533   4.056  24.157  0.0658 -0.2190  0.0729
43939W        W86852   9.070  10.194   0.077 -0.3444 -0.0074  0.1595
43940W        W86853   9.530  22.802  20.006 -0.2602 -0.2149  0.2310
43941W        W86854  11.387  16.338  28.422 -0.0460 -0.0639  0.2496
43942W        W86855  19.375  29.526  23.331  0.1857 -0.0433  0.0889
43943W        W86856   8.888  20.063   5.709  0.1824 -0.0686  0.3272
43944W        W86857   7.899  10.397  21.519 -0.3044  0.0695 -0.0120
43945W        W86858  22.771  11.528  26.944 -0.2355 -0.1288  0.1866
43946W        W86859   9.191  23.834  19.173  0.0723  0.0405 -0.2908
43947W        W86860  12.701  24.448  20.855  0.0783 -0.0540  0.2589
43948W        W86861  16.746  22.557  21.921 -0.0655  0.1913 -0.3377
43949W        W86862  12.202  20.410   3.457 -0.0563  0.2513 -0.0798
43950W        W86863  15.767  17.735  25.616  0.0045 -0.1958  0.0582
43951W        W86864   3.774   8.234  28.816 -0.2792 -0.0331 -0.0079
43952W        W86865  11.101  22.412  26.275 -0.0334  0.1347 -0.0431
43953W        W86866  10.334  19.193  17.668 -0.1616  0.0909 -0.0067
43954W        W86867  14.739  21.480  14.705  0.0649 -0.0952 -0.3116
43955W        W86868   6.307  17.947  24.739 -0.2164  0.1301  0.1734
43956W        W86869   1.159  15.252  22.813  0.0006  0.1965 -0.0303
43957W        W86870  14.274  16.091   1.080  0.0385 -0.0928 -0.3580
43958W        W86871  10.587  21.273  27.845 -0.3291  0.3387 -0.1364
43959W        W86872  12.485  18.831  21.610  0.0922  0.0784 -0.3534
43960W        W86873   7.755  16.512  29.468  0.3946  0.2814  0.3203
43961W        W86874   3.478  15.804   1.175  0.1363 -0.0899  0.2240
43962W        W86875  28.806   7.078  20.300 -0.2223  0.0141  0.3262
43963W        W86876   7.789  10.568  29.165  0.1445  0.1464 -0.2931
43964W        W86877  12.048  20.765  23.020  0.1576 -0.2670 -0.1637
43965W        W86878  11.422  19.590   1.621 -0.1440 -0.1171  0.0445
43966W        W86879   4.113   6.210  29.323 -0.0371 -0.3805 -0.5705
43967W        W86880  11.981  14.997  28.611 -0.2015  0.1457 -0.2326
43968W        W86881   7.341  10.734   1.408  0.0903 -0.0790 -0.2663
43969W        W86882   3.680  17.682  28.219  0.2208  0.0621 -0.0052
43970W        W86883   1.651  11.400  29.634  0.1189 -0.0422  0.1819
43971W        W86884   5.418  22.591  15.139 -0.0662 -0.1272  0.0267
43972W        W86885   8.039  14.859   8.851 -0.2443 -0.3068 -0.3136
43973W        W86886   8.444   9.689   0.087  0.0405  0.0462  0.2426
43974W        W86887  10.915  23.050   5.829 -0.1229 -0.0415  0.0728
43975W        W86888  11.049  23.573   6.958 -0.1149 -0.0616  0.1283
43976W        W86889   9.179  14.910   7.407 -0.4405  0.1097 -0.0821
43977W        W86890   8.478  11.772  20.857  0.2640  0.3234  0.2513
43978W        W86891  10.458  10.207  26.384  0.0267 -0.0748 -0.2447
43979W        W86892  30.683  14.428   1.933  0.1206 -0.1750  0.0808
43980W        W86893  13.196  20.199  13.269 -0.2425 -0.2723 -0.1274
43981W        W86894  11.413  15.375  23.725 -0.1254 -0.0720 -0.1205
43982W        W86895   2.649   5.014  25.686 -0.3859  0.1818 -0.0526
43983W        W86896   9.623  14.967   1.429  0.1295  0.3899 -0.0173
43984W        W86897  10.814  16.516   3.400 -0.0483 -0.1669  0.0787
43985W        W86898   8.011  28.207   6.649 -0.1094  0.2378 -0.3345
43986W        W86899  32.685  23.469   1.385 -0.2953  0.0015  0.1379
43987W        W86900   9.729  19.484  28.723  0.4623  0.3082  0.0602
43988W        W86901   3.783  17.837  20.309  0.0939 -0.1780 -0.0184
43989W        W86902   0.692  18.828  27.406  0.1402 -0.0167  0.0121
43990W        W86903  11.342  12.839   3.850  0.4778  0.1205 -0.0295
43991W        W86904   7.965  24.413  22.071  0.1572 -0.0730 -0.2937
43992W        W86905  15.559  27.699   1.996  0.1795  0.0998 -0.0426
43993W        W86906  14.595  20.287   2.293 -0.2969  0.0576 -0.0348
43994W        W86907   4.250  20.232  13.511  0.0064  0.0197  0.1240
43995W        W86908  10.854  26.532  25.925  0.0412 -0.0304  0.0229
43996W        W86909   5.429  20.727  28.021 -0.0414 -0.1967  0.0792
43997W        W86910  30.988  24.049   8.527  0.0702 -0.1216  0.1311
43998W        W86911   3.686  17.915   3.579 -0.2352  0.0331 -0.0648
43999W        W86912  31.083  20.536  22.369 -0.1600  0.0255 -0.0589
44000W        W86913   3.931  20.716  26.020 -0.2193  0.0469 -0.0091
44001W        W86914   6.743  16.298   1.533 -0.0222 -0.0868  0.0536
44002W        W86915  32.909  15.837  22.745  0.0376  0.0547  0.4328
44003W        W86916  17.611  13.504   2.932 -0.0380  0.1415  0.2853
44004W        W86917  12.581  13.760  27.430  0.0322 -0.2716  0.0374
44005W        W86918   5.726  25.422   0.826 -0.1080  0.0744 -0.1221
44006W        W86919  12.630  15.024  25.573 -0.1049  0.1178  0.0389
44007W        W86920  12.542  14.438  29.543  0.0803  0.1501  0.0792
44008W        W86921   6.409   9.187  23.737  0.1958  0.0298 -0.0306
44009W        W86922  15.353   8.299  28.751 -0.2797  0.1878 -0.0772
44010W        W86923  14.460  15.212  27.121  0.4272 -0.0458  0.0805
44011W        W86924   4.585   3.939   1.443 -0.0073 -0.1959  0.1458
44012W        W86925  12.562  16.110  22.055  0.0125 -0.1125  0.0792
44013W        W86926   1.907  10.352  16.634  0.0708  0.0620  0.0575
44014W        W86927   9.970  18.869  14.947 -0.0036  0.1245 -0.4423
44015W        W86928   1.165  17.494   7.741  0.3339 -0.0875 -0.0840
44016W        W86929   1.780  28.396   5.836 -0.2028 -0.0971  0.0915
44017W        W86930   8.007  21.144  24.992  0.1024 -0.1391  0.1207
44018W        W86931  12.818  13.203   8.045  0.3461 -0.2698  0.0284
44019W        W86932  31.832  28.163   6.651  0.0923  0.1187  0.0908
44020W        W86933   2.922  24.505   1.994 -0.0579 -0.1549 -0.0288
44021W        W86934  11.859  16.241  25.399 -0.0026  0.0285 -0.0738
44022W        W86935  15.652  11.018  21.997  0.3248 -0.0438  0.0293
44023W        W86936  12.401  16.269   8.687 -0.2572 -0.1698 -0.0749
44024W        W86937   9.250  19.905   0.364  0.0699 -0.0340 -0.0497
44025W        W86938  12.835  19.772  21.195  0.4958 -0.1132  0.1598
44026W        W86939   6.105  11.735  25.992 -0.2794 -0.1235 -0.3786
44027W        W86940  13.163  18.488  19.761  0.1036  0.1944  0.0501
44028W        W86941   0.761   8.894  28.772 -0.2625  0.2579 -0.1400
44029W        W86942  14.513  19.954  20.895  0.1052  0.2643 -0.1789
44030W        W86943  14.696  13.446  22.284  0.1687  0.1938  0.0681
44031W        W86944  10.360  19.522  19.550 -0.0469 -0.0584  0.1395
44032W        W86945   8.541  12.230  29.046  0.1099 -0.1410  0.1742
44033W        W86946   1.850   9.190  25.004  0.1385 -0.2574 -0.1672
44034W        W86947  16.583  23.627  23.388 -0.1797 -0.0116 -0.1433
44035W        W86948  31.828  18.525   5.314 -0.1499  0.0411 -0.0984
44036W        W86949   6.081  19.684  24.370 -0.1650  0.2871  0.0613
44037W        W86950  16.875  27.792  15.154  0.0430 -0.1115  0.1506
44038W        W86951  11.021   3.497  26.532  0.0476  0.0644  0.1907
44039W        W86952   7.272  28.724   9.725 -0.0479 -0.0670  0.0838
44040W        W86953   2.291   8.308  27.024  0.0118  0.2389 -0.0512
44041W        W86954   7.772  16.136   5.416 -0.0304  0.0739  0.1122
44042W        W86955  11.857  11.791  29.418  0.0795 -0.1775  0.0794
44043W        W86956  11.547  17.571   1.245  0.0025  0.0736 -0.2571
44044W        W86957   8.662  24.228   5.134 -0.2147 -0.1518  0.1622
44045W        W86958  28.585  23.160   2.058  0.3511  0.3535 -0.1174
44046W        W86959   6.749  12.931   2.663  0.2618 -0.0324  0.4171
44047W        W86960   3.478   5.260  25.923 -0.2495  0.1204  0.1195
44048W        W86961  10.929  11.216  22.481 -0.2776 -0.1143 -0.0816
44049W        W86962  13.336  21.603  21.523  0.1615 -0.0026  0.1883
44050W        W86963   2.119  17.386   4.453 -0.2079 -0.2070  0.1535
44051W        W86964   2.604  16.924  28.991  0.0344  0.2228  0.1431
44052W        W86965  13.212  17.629  29.448  0.1940 -0.1468  0.0240
44053W        W86966  13.008   7.338   0.960 -0.1823  0.0106  0.1443
44054W        W86967   0.813  30.219  17.615 -0.0002  0.0806 -0.2710
44055W        W86968   8.518  17.930  27.645  0.0821 -0.0741 -0.2249
44056W        W86969   4.673  16.440  28.986 -0.0572  0.3187 -0.0597
44057W        W86970  11.179  11.442  26.539  0.1279  0.3194  0.0826
44058W        W86971  34.245  12.376   2.512  0.3223  0.1749 -0.0322
44059W        W86972   7.852  25.019   6.219  0.2964  0.1298 -0.0188
44060W        W86973  13.456  19.198  25.044 -0.0484 -0.1155 -0.1348
44061W        W86974   6.779  15.623   7.805 -0.0801  0.2393  0.2583
44062W        W86975  10.288  19.429  28.727 -0.1163  0.3667 -0.0805
44063W        W86976  12.529  10.327   0.059  0.0849 -0.2319  0.0338
44064W        W86977  22.722  18.262   0.309 -0.0381  0.0718 -0.0870
44065W        W86978  11.292  25.316  24.391 -0.0955  0.0425  0.5480
44066W        W86979  17.964  21.354   1.116 -0.1513  0.5307 -0.4426
44067W        W86980  11.362  12.123   6.924  0.1052 -0.2962  0.0712
44068W        W86981   6.134  25.950  23.913 -0.1072 -0.1682 -0.1091
44069W        W86982   9.919   7.559  25.535  0.0584 -0.0902 -0.2194
44070W        W86983   9.805  23.806   1.140 -0.4011 -0.1839 -0.1237
44071W        W86984   8.622  24.575  23.798 -0.2846 -0.0653 -0.2367
44072W        W86985  14.258  15.148   1.656 -0.0579 -0.4537  0.1165
44073W        W86986  15.519  12.564  23.891 -0.0231 -0.1618 -0.0537
44074W        W86987  13.968  22.197   3.686 -0.3422 -0.0311  0.0625
44075W        W86988   9.834  14.008  23.569 -0.1556  0.1778  0.0777
44076W        W86989  12.803   1.482   2.990 -0.0822 -0.1950  0.1475
44077W        W86990   4.931  23.023   6.399 -0.4109 -0.2068 -0.1469
44078W        W86991   7.716  14.921  22.809 -0.2418 -0.0621  0.0677
44079W        W86992  12.992  21.573   6.861  0.1713 -0.0858 -0.3424
44080W        W86993   5.845  16.214  28.171  0.0305  0.2082 -0.0051
44081W        W86994   0.175  18.780   2.061 -0.0556 -0.0473  0.4747
44082W        W86995   8.223  12.461   2.591 -0.3560  0.0577  0.1477
44083W        W86996   5.734  24.374   9.254  0.0081  0.3938  0.0820
44084W        W86997  12.216  13.744   5.440 -0.1989 -0.0820 -0.0208
44085W        W86998   8.502   3.730  20.046 -0.2807  0.2445  0.3366
44086W        W86999   6.869  15.105  29.353 -0.0649 -0.3239 -0.0138
44087W        W87000  10.194  11.942  29.196 -0.0685 -0.0305 -0.1004
44088W        W87001  12.935  15.261  22.934  0.2231 -0.0896  0.2823
44089W        W87002   4.415  13.365  28.476 -0.0315  0.0552 -0.0887
44090W        W87003   2.090  24.213  21.075 -0.0352  0.2179 -0.1098
44091W        W87004  14.526  16.467   5.153  0.0037 -0.0755  0.0493
44092W        W87005  21.276  18.212   7.926 -0.0499 -0.1558  0.2636
44093W        W87006   7.056  20.545  24.240 -0.1349  0.0925 -0.0912
44094W        W87007   2.672  15.833   7.974  0.1383 -0.1897 -0.1127
44095W        W87008   9.957  16.657  28.180 -0.3841 -0.1007 -0.0661
44096W        W87009  29.415  12.011   4.284  0.1491  0.0939 -0.0869
44097W        W87010   8.995  11.162  16.665 -0.0457  0.1967 -0.0366
44098W        W87011  15.835  22.933   6.286 -0.2853 -0.1066  0.4659
44099W        W87012   2.872  21.162   0.450  0.1752 -0.1251  0.0863
44100W        W87013  17.309  27.362  26.455  0.2463 -0.1685 -0.1317
44101W        W87014  14.168  13.796  13.376  0.1030 -0.0663 -0.2320
44102W        W87015  11.349  12.573  16.846 -0.0606  0.0752  0.1365
44103W        W87016   9.282  13.064  19.325 -0.2195  0.0260  0.1870
44104W        W87017   6.646  18.568  21.806  0.2364 -0.0411 -0.2729
44105W        W87018  33.530  24.501  16.552  0.0761  0.0505 -0.1568
44106W        W87019  11.593  19.908  12.433 -0.1264 -0.2385  0.1270
44107W        W87020  12.265  21.659  19.004 -0.0657 -0.0933 -0.0103
44108W        W87021   1.864  20.770  17.341  0.0396  0.1327 -0.0340
44109W        W87022   4.643  34.239  22.387 -0.2257  0.2361  0.2831
44110W        W87023   6.596  15.300  16.417 -0.1386 -0.0201 -0.0740
44111W        W87024   3.496  22.295  21.635 -0.3698 -0.3502 -0.2408
44112W        W87025   9.409  27.564  17.621 -0.1901 -0.2738 -0.0128
44113W        W87026  17.271  10.861  16.621  0.2378  0.0279  0.1097
44114W        W87027   9.370  14.292  16.340 -0.1660 -0.2235 -0.2516
44115W        W87028  15.657  16.009  12.896 -0.0600 -0.0973 -0.0056
44116W        W87029   6.771  25.793  14.902  0.2173  0.0945 -0.0575
44117W        W87030   9.363  20.744  15.054  0.0393 -0.1717  0.1209
44118W        W87031   5.171  14.235  18.283  0.1715 -0.1157  0.2648
44119W        W87032   4.914  15.058  19.651  0.1637  0.1130 -0.3991
44120W        W87033   0.861  19.489  20.545  0.0752  0.0262  0.0733
44121W        W87034   6.535  21.754  21.117  0.1004  0.0703  0.0405
44122W        W87035  31.766  10.215  18.165  0.0616  0.1289 -0.1563
44123W        W87036  33.833  24.513  14.241 -0.5024 -0.2028 -0.2754
44124W        W87037  33.796  11.061  18.453  0.1860  0.1147  0.0627
44125W        W87038   6.709  25.925  16.860  0.3309 -0.1097  0.1878
44126W        W87039   7.060  12.221  19.584  0.1782  0.1101  0.1588
44127W        W87040  10.300  28.417  16.525 -0.1682  0.1264  0.3949
44128W        W87041  16.655  12.606  14.372  0.1910 -0.2954 -0.1319
44129W        W87042   8.962  24.260  27.415  0.0786  0.2100  0.0456
44130W        W87043   5.704  14.492  14.653 -0.2837  0.1955 -0.2243
44131W        W87044   9.800  17.264  15.960 -0.5362  0.0255 -0.1696
44132W        W87045   8.252  24.546  22.626  0.2389 -0.3052 -0.1735
44133W        W87046   2.445  24.323  14.479 -0.0870  0.0594  0.0782
44134W        W87047   8.207  16.966  18.875  0.0238  0.0754  0.4590
44135W        W87048   9.014  21.977  15.165  0.2787 -0.1607  0.1572
44136W        W87049   8.321  25.819  14.981 -0.0154  0.1069  0.1443
44137W        W87050  10.529  22.297  15.173 -0.2446  0.2024 -0.1769
44138W        W87051  29.693  27.474  20.105  0.1534  0.0731 -0.3131
44139W        W87052   0.649  23.055  15.125 -0.2770  0.0465  0.0345
44140W        W87053  27.990  22.422  20.144  0.3309 -0.2864 -0.1012
44141W        W87054   5.773  17.844  14.571  0.3616  0.0741 -0.0327
44142W        W87055  11.515  19.343  15.404  0.0368 -0.1378 -0.0007
44143W        W87056  34.364  21.030  20.682  0.5168 -0.1835 -0.2331
44144W        W87057  23.122  20.454  14.270 -0.1383  0.1458 -0.2960
44145W        W87058  30.880  27.007  19.652  0.0466 -0.0148  0.2965
44146W        W87059   7.834  16.055  14.807  0.1901  0.0937  0.1088
44147W        W87060  12.178  21.452  12.982 -0.1139 -0.0955  0.0920
44148W        W87061   3.155  18.042  14.973  0.1792  0.1174  0.1439
44149W        W87062  31.455  16.539  16.202 -0.4846  0.2176  0.1810
44150W        W87063  11.952  19.162  19.478 -0.0573 -0.2050  0.0505
44151W        W87064   9.886  14.935  17.124 -0.1015 -0.0924  0.0253
44152W        W87065  14.492  20.807  14.369  0.1099 -0.1802 -0.5223
44153W        W87066  15.994  16.265  24.885  0.0100  0.0424  0.4341
44154W        W87067  14.467  10.458  17.853 -0.1480 -0.0113 -0.2454
44155W        W87068  31.368  24.626  22.824  0.1954  0.0479  0.1297
44156W        W87069  12.675  15.508  19.960  0.2279 -0.2957  0.1261
44157W        W87070   0.682  17.043  14.032  0.2978 -0.1928  0.1952
44158W        W87071   3.524  26.621  22.177  0.3549  0.1982  0.1175
44159W        W87072  32.906  15.056  28.576  0.0560 -0.1890 -0.0473
44160W        W87073  14.532  20.908  28.693  0.1541  0.1241  0.0376
44161W        W87074   1.980  18.437  18.812 -0.0950  0.3261 -0.1656
44162W        W87075  33.969  21.334  16.381  0.0092  0.1014  0.0635
44163W        W87076   4.544  17.143  16.695  0.2235 -0.2690  0.0431
44164W        W87077  12.347   1.080  22.056  0.2364 -0.1040  0.1136
44165W        W87078  14.222  12.847  13.857  0.0715 -0.0110 -0.0546
44166W        W87079  31.132   4.077  19.287 -0.1555  0.0973  0.0382
44167W        W87080  13.387  24.885  24.039  0.0619  0.0657 -0.2036
44168W        W87081   4.899  22.554  18.570 -0.1027  0.0039 -0.0881
44169W        W87082   7.765  13.369  22.584 -0.2776  0.0426 -0.0237
44170W        W87083  12.125  21.513  14.317 -0.0867  0.0338  0.0531
44171W        W87084  11.787  15.094  19.855 -0.2782  0.0286 -0.1022
44172W        W87085  18.121  15.190  13.990 -0.0916  0.0198 -0.0321
44173W        W87086  17.787  16.480  14.829 -0.3118 -0.3028 -0.1634
44174W        W87087   4.663  24.082  18.763  0.0761  0.4105 -0.1463
44175W        W87088  14.909  25.277  19.834 -0.1202 -0.0637  0.2789
44176W        W87089  16.834  27.283  24.381 -0.0690  0.6038 -0.1433
44177W        W87090   3.236  20.797  23.600 -0.3374 -0.0491 -0.3914
44178W        W87091   3.245  13.487  18.503  0.0303  0.1132  0.0960
44179W        W87092  14.793  20.461  13.116 -0.0268 -0.0352 -0.1291
44180W        W87093   9.032  21.393  21.622  0.2237  0.0469 -0.2245
44181W        W87094  24.235  20.878  19.538 -0.0031  0.0650  0.1384
44182W        W87095  18.228  16.424  13.733  0.0046  0.1708  0.1562
44183W        W87096   2.644   0.055  23.860  0.0578  0.1281 -0.1014
44184W        W87097  10.149  16.942  23.588  0.1753  0.3314 -0.2301
44185W        W87098   6.500  22.806  16.696 -0.1138  0.1788 -0.0958
44186W        W87099   8.313  18.183  13.509  0.0988 -0.0326  0.0730
44187W        W87100   8.068  11.033  24.571  0.0176  0.1384  0.1038
44188W        W87101  24.698  22.093  14.089  0.2662  0.0816 -0.1844
44189W        W87102  17.948  20.043  14.336 -0.0797 -0.0995 -0.2074
44190W        W87103  22.617  27.359  18.225  0.0630 -0.1472 -0.1404
44191W        W87104  15.490  27.827  15.473  0.1233  0.1452 -0.1322
44192W        W87105  20.401   6.044  25.215  0.0259  0.0781  0.2291
44193W        W87106  20.007  12.728  16.235 -0.1688  0.0414  0.2545
44194W        W87107  24.263  10.089  15.043 -0.1978  0.0463 -0.0174
44195W        W87108   6.038  18.245  21.757 -0.2046 -0.1718  0.0510
44196W        W87109  20.145  20.060  14.216 -0.2369  0.1915  0.0641
44197W        W87110  19.713  24.231  19.408 -0.0558  0.1969  0.0996
44198W        W87111  15.565  14.358  13.129 -0.0190  0.1464  0.2724
44199W        W87112  11.312  19.698  16.812 -0.0659 -0.1226  0.1585
44200W        W87113  10.689  27.445  23.467 -0.0756  0.1242  0.0295
44201W        W87114   7.293  20.186  20.371  0.0124 -0.1372  0.2313
44202W        W87115  19.410   9.195  13.484 -0.1640  0.0950  0.3129
44203W        W87116  15.029  23.485  18.071  0.1303  0.0628 -0.0894
44204W        W87117   1.227  20.487  19.537  0.1246 -0.2283 -0.2548
44205W        W87118  28.288  23.077  16.906  0.2069 -0.0326 -0.0698
44206W        W87119   8.633  25.332  23.707  0.0661 -0.3044 -0.0020
44207W        W87120  13.336  17.737  12.765  0.0237  0.0721  0.1809
44208W        W87121   6.770  29.783  23.833 -0.0657  0.2895  0.2247
44209W        W87122   5.248  21.618  14.965 -0.0139 -0.3538 -0.1169
44210W        W87123  29.383  15.012  18.581 -0.3068 -0.0438 -0.0463
44211W        W87124   7.782  25.692  23.280  0.2003  0.1628 -0.0563
44212W        W87125   1.619  23.958  18.801 -0.0124 -0.1397  0.0640
44213W        W87126  19.735  30.059  20.278 -0.0940  0.0222  0.2804
44214W        W87127  16.158  25.114  16.792 -0.3385 -0.0947 -0.1000
44215W        W87128  33.171  32.488  25.463 -0.1565  0.0155 -0.4108
44216W        W87129   6.333  30.267  21.535  0.1002  0.1905  0.2415
44217W        W87130   3.717  14.617  18.017  0.1526  0.0010  0.2404
44218W        W87131   6.609  28.451  16.542  0.2127 -0.2491  0.0185
44219W        W87132   8.755  20.236  16.559  0.1322 -0.2967 -0.0670
44220W        W87133  30.421  18.816  19.550 -0.0367 -0.2273 -0.2386
44221W        W87134  29.686  22.113  19.139 -0.1487 -0.0881 -0.1223
44222W        W87135  10.703  27.077  20.265  0.2261 -0.0840 -0.1970
44223W        W87136  11.769  18.794  13.536 -0.1961 -0.0941  0.2984
44224W        W87137  21.322  12.514  19.896 -0.0053 -0.0894 -0.0979
44225W        W87138   3.757  24.952  24.633  0.1531 -0.0492 -0.0248
44226W        W87139   2.314  30.686  21.313  0.1125 -0.0680  0.1576
44227W        W87140   5.677  16.976  22.634  0.2463 -0.2294  0.4002
44228W        W87141  11.297  18.958  15.112  0.0715 -0.1160 -0.2760
44229W        W87142  11.975  26.064  15.841  0.0318 -0.1823  0.0601
44230W        W87143   7.096  29.154  18.492  0.0016 -0.0928 -0.0409
44231W        W87144   8.985  18.134  18.459 -0.0593 -0.0119 -0.1037
44232W        W87145   3.720  15.709  21.070  0.2583 -0.3803 -0.2678
44233W        W87146   6.868  19.617  26.281  0.0074  0.0100  0.0411
44234W        W87147  15.296  20.829   2.074  0.3104 -0.1620 -0.1467
44235W        W87148   6.423  25.646  23.581  0.0659  0.1352 -0.0770
44236W        W87149   6.723  18.496  13.942  0.1909  0.0791 -0.0592
44237W        W87150   8.811  17.350  26.007 -0.1743  0.0860 -0.2208
44238W        W87151  24.163  17.523  13.039 -0.3246  0.0545  0.0012
44239W        W87152  10.182   8.795  18.604 -0.0368  0.2356 -0.0929
44240W        W87153   6.381  17.796  13.533  0.0152 -0.1783  0.2068
44241W        W87154   4.566  17.926  13.862  0.1356  0.0023  0.1156
44242W        W87155   3.266  18.643  18.635  0.0240 -0.0229 -0.0314
44243W        W87156   3.491  18.938  28.083  0.3455 -0.2164  0.1177
44244W        W87157  10.562  25.655  15.342 -0.3346 -0.0548  0.2786
44245W        W87158  12.550  18.918  18.248  0.1138 -0.0729 -0.2201
44246W        W87159   4.806  19.709  15.375  0.1824 -0.2478  0.1202
44247W        W87160  17.855  20.839  12.428 -0.0041  0.0058 -0.0757
44248W        W87161  10.670  19.528  15.467  0.0625 -0.0728 -0.0856
44249W        W87162   9.880  18.804  14.099  0.0286  0.0455  0.0722
44250W        W87163  15.502  20.284  26.485  0.3415  0.0925  0.2348
44251W        W87164  33.271  28.151  17.741  0.1789 -0.0948 -0.3131
44252W        W87165  17.612  12.779  15.206 -0.3286 -0.0289 -0.2487
44253W        W87166   5.618   9.409  20.385  0.2145  0.4854  0.1416
44254W        W87167   3.796  22.452  18.223  0.2335 -0.3337  0.1805
44255W        W87168  13.652  26.223  18.265  0.1215 -0.1484 -0.0015
44256W        W87169   6.995  28.285  21.243  0.1394  0.3332 -0.1704
44257W        W87170   9.536  26.242  17.223  0.1031  0.2852  0.4568
44258W        W87171   8.317  20.299  14.525  0.0250 -0.1079  0.0957
44259W        W87172  31.922  18.666  13.630 -0.2318 -0.0054  0.1471
44260W        W87173   0.227  18.624  15.788  0.1147 -0.2761 -0.2998
44261W        W87174   3.636  10.128  18.926  0.0996 -0.3538  0.0456
44262W        W87175   7.708  13.542  18.249 -0.1473  0.2178 -0.2065
44263W        W87176   8.939  30.381  18.777  0.0838  0.2141 -0.0399
44264W        W87177  14.892  18.542  13.322 -0.1832 -0.0932 -0.3216
44265W        W87178   4.798  19.021  15.892 -0.0682  0.2163 -0.2193
44266W        W87179   0.258   4.962  24.515  0.0516 -0.0948  0.0675
44267W        W87180   4.154  15.932  14.788  0.1197  0.0134 -0.2395
44268W        W87181   7.610  11.651  26.199 -0.1835 -0.0012 -0.2416
44269W        W87182   2.385  18.278  26.575 -0.0241  0.2427 -0.0004
44270W        W87183  25.266  23.764  14.230 -0.2025  0.0933  0.1947
44271W        W87184  11.017  24.720  20.805 -0.3360 -0.0318  0.0463
44272W        W87185  10.344  22.695  20.669 -0.3132 -0.0214  0.1795
44273W        W87186  12.958  16.762  15.405  0.0889  0.0669  0.0314
44274W        W87187  21.854  17.891  18.088  0.0796  0.1719 -0.0670
44275W        W87188   2.431  22.842  23.939 -0.0867 -0.2383  0.1248
44276W        W87189  11.304  17.135  21.673 -0.1239  0.0402 -0.0072
44277W        W87190  12.067  19.037  18.489  0.0442  0.2152  0.3270
44278W        W87191   7.197  21.320  15.650 -0.0707 -0.0967  0.0308
44279W        W87192   6.133  23.159  15.475  0.4041  0.1374 -0.0078
44280W        W87193   3.460  14.923  21.105 -0.1525 -0.0416 -0.0208
44281W        W87194   5.010  27.715  21.913  0.0808  0.3300 -0.1493
44282W        W87195   8.468  27.692  16.482  0.1224 -0.2311  0.2180
44283W        W87196   5.564  15.965  18.217 -0.0412 -0.1137 -0.2668
44284W        W87197  12.733  10.835  18.519  0.1821  0.4668  0.1020
44285W        W87198   3.353   0.166  19.053  0.0610 -0.0011 -0.1012
44286W        W87199   8.643  25.948  27.410 -0.4452  0.1111  0.1838
44287W        W87200   9.097  24.855  21.117 -0.0974  0.2336  0.3527
44288W        W87201   9.782  26.442  17.623  0.0865  0.1361  0.1568
44289W        W87202  16.459  21.218  16.532 -0.0657 -0.0059  0.3182
44290W        W87203  11.364   9.949  15.710 -0.0154 -0.0806  0.0779
44291W        W87204  16.280  29.106  17.483 -0.4506 -0.1676  0.3978
44292W        W87205   6.812  15.196  14.350 -0.0363  0.2994 -0.3356
44293W        W87206  11.019  24.356  18.380 -0.0853 -0.0436  0.1388
44294W        W87207  15.609   4.423  18.657 -0.1889 -0.0796 -0.0522
44295W        W87208  19.269  18.962  13.056  0.0388 -0.1404 -0.0339
44296W        W87209  11.736  20.912  22.061  0.1388  0.4102  0.0185
44297W        W87210  19.554  25.200  13.982  0.0669 -0.0676 -0.1240
44298W        W87211  25.183  20.655  18.183  0.5019 -0.1970 -0.0211
44299W        W87212  11.674  13.149  21.240  0.2500 -0.1139  0.3039
44300W        W87213  21.697  22.715  14.249  0.0535 -0.0311 -0.1610
44301W        W87214  10.225  23.729  15.667 -0.0707  0.0006  0.0545
44302W        W87215  14.289  17.362  16.678  0.3746  0.2119  0.0856
44303W        W87216  31.475  23.142  24.735 -0.2477 -0.0677 -0.0766
44304W        W87217   4.725  21.472  14.620 -0.0377  0.1075 -0.0104
44305W        W87218   8.478   9.540  24.524 -0.1271  0.1703 -0.0788
44306W        W87219   7.446  18.887  17.172 -0.2164  0.2785  0.0283
44307W        W87220  18.024  19.225  13.928 -0.0784 -0.0344  0.1328
44308W        W87221   1.904  18.825  21.215 -0.1081  0.0016 -0.0962
44309W        W87222   4.572  14.345  19.096  0.1690  0.0117  0.2166
44310W        W87223   9.708  12.064  15.685 -0.1286 -0.0496  0.0224
44311W        W87224  20.887  26.809  18.199 -0.0663  0.2925 -0.1972
44312W        W87225   4.420  19.534  21.372  0.0178 -0.0905  0.2752
44313W        W87226   6.920  29.448  22.296 -0.0836  0.0369 -0.1682
44314W        W87227  12.839  19.491  20.793  0.0960 -0.0999 -0.2103
44315W        W87228   5.971  12.360  14.456  0.2642 -0.1265 -0.5020
44316W        W87229   4.123  21.147  15.330  0.0869  0.2305  0.1248
44317W        W87230  11.400  21.003  16.817  0.1155 -0.1906 -0.1289
44318W        W87231   7.962  18.838  15.395  0.1150 -0.1781 -0.1451
44319W        W87232   9.418  23.084  14.679 -0.0095  0.2745 -0.1282
44320W        W87233  23.958  17.619  19.805 -0.0890  0.0099 -0.0176
44321W        W87234  10.348  26.644  23.320  0.3305 -0.2294  0.3011
44322W        W87235  11.004  19.951  12.774  0.0665  0.0665 -0.2773
44323W        W87236   9.208  28.790  17.254  0.0402 -0.2376 -0.0719
44324W        W87237  10.499  13.546  18.368  0.1623 -0.0784 -0.0978
44325W        W87238   6.356  16.009  14.556 -0.0649  0.1919  0.0887
44326W        W87239  14.051  18.857  17.361  0.2160 -0.0980 -0.3128
44327W        W87240   9.587  17.825  13.227  0.2496  0.0061  0.0775
44328W        W87241   5.547  25.568  27.856 -0.1707 -0.0799 -0.0374
44329W        W87242   4.151  17.607  19.117  0.1366  0.0953 -0.0526
44330W        W87243   1.082  14.595  19.043  0.1008 -0.2663 -0.1071
44331W        W87244   6.357  23.076  18.603  0.1039 -0.1739 -0.2657
44332W        W87245   6.286  29.350  17.525 -0.1448 -0.2210 -0.0425
44333W        W87246  15.693  22.343  17.263  0.4042  0.0479 -0.0223
44334W        W87247   1.192  12.924  17.015  0.2738  0.0215  0.1629
44335W        W87248  12.367  21.672  15.991 -0.0571 -0.0183  0.2352
44336W        W87249   6.845  23.536  21.922 -0.1175  0.1314  0.1054
44337W        W87250   8.757  16.948  21.027 -0.0919 -0.2362 -0.0647
44338W        W87251  10.696  19.435  14.464  0.0674  0.2782 -0.1947
44339W        W87252  11.230  18.157  13.104 -0.0171 -0.1680  0.3041
44340W        W87253  15.793  25.725  17.740  0.2451  0.0292  0.3371
44341W        W87254   3.098  14.851  16.536 -0.0433 -0.0608  0.4280
44342W        W87255   8.839  22.568  19.608  0.0251  0.1591 -0.2698
44343W        W87256   0.895  10.024  19.988  0.2038  0.0690  0.1299
44344W        W87257  11.115  11.833  19.090  0.0951 -0.2331  0.0551
44345W        W87258  17.425  21.134  22.139  0.3124 -0.0378 -0.1290
44346W        W87259  10.999  23.384  21.030  0.0688  0.0412 -0.2721
44347W        W87260  12.864  23.383  15.313 -0.3014  0.1443 -0.0021
44348W        W87261   6.050  24.283  18.977  0.2406  0.0636 -0.1315
44349W        W87262  20.997  26.233  18.118 -0.2103 -0.1443 -0.0206
44350W        W87263   2.674  16.442  24.818 -0.1322 -0.0488  0.0090
44351W        W87264   8.423  12.674  14.621 -0.0717 -0.1202  0.1536
44352W        W87265  20.357  27.476  13.868 -0.2110  0.0187  0.0202
44353W        W87266   6.253  12.390  16.311 -0.0366  0.3155 -0.1502
44354W        W87267  31.460  19.629  27.544  0.2992 -0.1997 -0.2026
44355W        W87268   4.392  25.338  27.173  0.0273  0.1457 -0.1717
44356W        W87269  10.972  22.641  19.809  0.2893  0.0565  0.0960
44357W        W87270  17.948  19.831  13.480 -0.1225 -0.1194 -0.0143
44358W        W87271   8.340  21.910  18.003 -0.0980 -0.0374  0.0607
44359W        W87272   2.375  20.764  14.695 -0.1752  0.0200 -0.0874
44360W        W87273  19.031  23.107  14.167 -0.0116 -0.0219 -0.2739
44361W        W87274  15.173  25.798  24.153  0.0319 -0.3572  0.0008
44362W        W87275  21.963   9.234  19.636  0.2313 -0.0254 -0.3797
44363W        W87276  21.835  34.028  14.796 -0.4920  0.2576 -0.3270
44364W        W87277   2.558  18.651  17.885  0.1278  0.2665  0.4391
44365W        W87278   7.458  14.113  21.627  0.0895  0.0215  0.1104
44366W        W87279  11.083  20.392  13.615  0.1212  0.0178  0.2917
44367W        W87280   8.143  22.918  15.936  0.1494 -0.1782  0.2857
44368W        W87281   8.961  23.258  13.858  0.2116  0.1285  0.1905
44369W        W87282   4.975  15.821  17.437 -0.0835 -0.0057 -0.0351
44370W        W87283  11.263   6.445  29.553 -0.1410  0.0423  0.2110
44371W        W87284  14.498  27.147  27.128 -0.0599  0.4010  0.0971
44372W        W87285   0.604  20.570  17.716 -0.1352 -0.0183 -0.0810
44373W        W87286  10.234  15.089  20.642  0.3365 -0.0270 -0.1450
44374W        W87287   1.546  19.981  17.137  0.0759 -0.1030 -0.0546
44375W        W87288  19.739  29.184  22.121 -0.1283  0.1581 -0.1521
44376W        W87289   3.998   8.988  17.255 -0.0339 -0.1298 -0.0656
44377W        W87290   8.183  17.275  15.373 -0.4519  0.1929  0.0462
44378W        W87291   6.153  22.011  20.937 -0.1956  0.0894  0.0102
44379W        W87292  16.180  26.518  18.500 -0.3627  0.0629 -0.0093
44380W        W87293  14.103  32.588  17.065  0.1351 -0.0845 -0.3205
44381W        W87294  16.346  11.195  15.016  0.1513 -0.1427  0.0215
44382W        W87295  22.070  16.838  15.220 -0.1324 -0.2558 -0.1271
44383W        W87296  12.890  19.020  20.389 -0.1386 -0.0686 -0.0494
44384W        W87297  18.092  11.695  16.208  0.2555 -0.1130  0.3931
44385W        W87298  22.817  17.628  15.541 -0.0753  0.0512  0.4150
44386W        W87299   5.555  17.336  18.321  0.2223 -0.1647  0.2227
44387W        W87300  12.313  19.422  18.248 -0.0995 -0.0004 -0.3000
44388W        W87301   6.803  23.235  22.303  0.3306 -0.5456  0.1271
44389W        W87302   8.459  14.323  17.763  0.3561 -0.2845 -0.0178
44390W        W87303   1.223  16.822  19.140  0.0058  0.1192  0.2097
44391W        W87304  14.594  21.974  19.493  0.2227 -0.3521 -0.0949
44392W        W87305  11.779  21.726  15.041  0.1521  0.1788  0.0591
44393W        W87306   7.461  18.768  15.530 -0.1880 -0.2274  0.1159
44394W        W87307  13.624  12.426  17.528  0.1766  0.0544  0.1515
44395W        W87308  21.624  21.490  18.928 -0.3018  0.0480 -0.1192
44396W        W87309  10.190  20.208  13.805 -0.0700 -0.1871  0.1085
44397W        W87310  10.829  17.036  12.546 -0.1226  0.0837  0.1968
44398W        W87311   2.203  27.111  29.432 -0.1348 -0.2768 -0.0098
44399W        W87312   6.633  25.087  14.136 -0.1255 -0.2249  0.1338
44400W        W87313   5.934  15.731  21.624 -0.0465  0.0252  0.2571
44401W        W87314  11.040  17.297  28.344 -0.1316 -0.1267 -0.2602
44402W        W87315  11.823  25.660  14.362  0.0061 -0.1252  0.3066
44403W        W87316   7.009  14.815  19.879 -0.0720 -0.2165 -0.0968
44404W        W87317   7.783  26.732  21.413 -0.2659 -0.0841  0.0746
44405W        W87318  31.923  15.039  22.279 -0.2514 -0.0749  0.0669
44406W        W87319   2.786  23.066  21.440  0.1885  0.3355  0.1020
44407W        W87320  33.759  13.062  21.911  0.0023  0.1488  0.2500
44408W        W87321   0.339  21.652  20.253 -0.1188  0.1118  0.1137
44409W        W87322   3.622  23.363  18.648  0.0388  0.1991 -0.2986
44410W        W87323  11.463  20.201  15.490  0.0482 -0.2137  0.1172
44411W        W87324   1.868   0.577  21.795  0.0758  0.5217  0.1753
44412W        W87325   2.942  20.432  19.273  0.0214  0.2317 -0.1941
44413W        W87326  11.970  16.362  17.349  0.2117 -0.0709 -0.1827
44414W        W87327   7.842  17.867  24.465 -0.2036 -0.3374 -0.2651
44415W        W87328   6.752  19.000  19.336  0.0635 -0.0513  0.0343
44416W        W87329  18.489  29.257  16.069 -0.1827 -0.0250 -0.0877
44417W        W87330  11.612  15.888  13.421  0.1715  0.1767  0.2078
44418W        W87331  10.746  15.636  16.075  0.2064 -0.0248 -0.3142
44419W        W87332   9.623  12.579  21.855 -0.0581  0.0327 -0.0225
44420W        W87333  10.011  29.115  18.547 -0.2599  0.3069  0.0749
44421W        W87334   4.146  16.999  20.601  0.1999 -0.0772  0.1586
44422W        W87335  14.946  17.807  14.027 -0.2531  0.2475  0.0300
44423W        W87336   7.742  22.342  15.529 -0.2110 -0.0291 -0.1744
44424W        W87337   1.179  22.137  13.776  0.1073 -0.2861 -0.2446
44425W        W87338   4.729  16.836  13.660  0.2578  0.3272  0.2331
44426W        W87339  12.087  23.852  21.658  0.1280 -0.2032  0.0638
44427W        W87340  14.830  27.124  14.731 -0.3381 -0.3426  0.0929
44428W        W87341   1.459  21.764  15.721  0.0089 -0.0158  0.1651
44429W        W87342   8.727  22.466  15.886  0.3004 -0.0289  0.2035
44430W        W87343  12.654  15.563  13.807  0.1496 -0.2371 -0.3870
44431W        W87344  19.673  22.893  12.823  0.1218 -0.0851 -0.3951
44432W        W87345   6.265   9.034  19.206  0.0061  0.1591 -0.2009
44433W        W87346  23.627  15.165  22.124 -0.0836 -0.1228 -0.2000
44434W        W87347   5.501  21.512  13.096 -0.0260  0.1983  0.0105
44435W        W87348   3.540   7.123  17.315  0.0658  0.1658 -0.0502
44436W        W87349  20.403  32.539  16.510  0.0094  0.0708  0.0081
44437W        W87350  33.799  10.549  16.535  0.0329  0.1205  0.2629
44438W        W87351  10.383  18.698  14.015  0.3146  0.0406 -0.0152
44439W        W87352  18.137  12.889  14.485  0.0872 -0.0263  0.0519
44440W        W87353  23.085  23.331  13.582 -0.0011 -0.1471 -0.0947
44441W        W87354   4.054  12.225  19.788  0.0723 -0.1161 -0.0097
44442W        W87355   8.697  13.612  25.999 -0.0906 -0.4482 -0.1793
44443W        W87356  11.430  15.584  18.977  0.0951 -0.0184 -0.2425
44444W        W87357  10.911  26.782  20.904 -0.2124 -0.0847  0.3573
44445W        W87358  12.178  20.209  12.834 -0.0118  0.1849 -0.1902
44446W        W87359   7.394  14.563  18.016  0.1793  0.0360  0.1066
44447W        W87360   5.129  11.756  15.859  0.2306  0.3130  0.1749
44448W        W87361  34.379  27.759  23.584  0.3878 -0.0784  0.2002
44449W        W87362  19.998  26.459  15.813  0.0814 -0.2784 -0.0639
44450W        W87363  10.630  10.386  20.928  0.1571  0.0088  0.0012
44451W        W87364  10.098  27.785  17.147  0.0518 -0.0971 -0.2409
44452W        W87365   6.572  26.875   0.517  0.1384 -0.1444  0.2478
44453W        W87366   5.311  18.297  19.600  0.0411  0.0863 -0.4540
44454W        W87367   9.139  17.956  15.552 -0.0951 -0.0481  0.0764
44455W        W87368  11.803  24.095  15.027 -0.0952 -0.2945  0.3800
44456W        W87369  31.483  23.640  18.133 -0.1763  0.2047 -0.1708
44457W        W87370   5.690  15.098  17.568 -0.0090  0.2623  0.0941
44458W        W87371  12.070  27.405  22.534 -0.1531  0.0110 -0.2037
44459W        W87372  20.043   8.292  19.289 -0.0492 -0.1364  0.2804
44460W        W87373   9.768  18.237  19.587  0.0557  0.0848 -0.0746
44461W        W87374   9.496  19.521  18.958  0.2994  0.0629 -0.1134
44462W        W87375  18.345  16.910  13.769  0.0038  0.1765 -0.0473
44463W        W87376  14.093  22.111  14.854  0.0538  0.0606 -0.3761
44464W        W87377   2.945  18.053  14.532  0.1499 -0.1108  0.1909
44465W        W87378   6.194  16.186  26.440 -0.1358  0.0803 -0.2752
44466W        W87379  13.074   2.304  27.973  0.3439 -0.0127 -0.0181
44467W        W87380  15.344  24.085  17.226  0.0008  0.0265  0.0195
44468W        W87381   5.073  20.257  21.589  0.0496  0.1007  0.1780
44469W        W87382  10.980  14.637  14.052  0.4590  0.2877 -0.1099
44470W        W87383   4.380  19.313  21.857  0.1661  0.0635  0.1562
44471W        W87384   9.661  23.563  19.420 -0.1808 -0.1106 -0.2684
44472W        W87385   8.180  19.891  16.484 -0.0798  0.0205 -0.1750
44473W        W87386  16.338  21.284  12.625  0.1062 -0.0894  0.0942
44474W        W87387  20.741   9.315  24.263  0.1356 -0.0913 -0.1622
44475W        W87388   9.706  19.547  18.278 -0.0808 -0.2591 -0.1220
44476W        W87389   5.687  11.658  16.423 -0.1501  0.0931 -0.1345
44477W        W87390  18.002  24.280  22.010 -0.2007 -0.0217 -0.0049
44478W        W87391  19.660  14.774  12.739  0.1134  0.1957  0.1231
44479W        W87392   9.161  16.817  23.523  0.2363 -0.0408 -0.0247
44480W        W87393  15.434  15.985  13.399 -0.0135 -0.2074  0.1661
44481W        W87394  19.420  19.889  15.144 -0.0012  0.1327  0.1321
44482W        W87395  34.211  17.253  14.394 -0.0165 -0.2555  0.4055
44483W        W87396  22.610  18.102  16.691 -0.2153  0.0754  0.2890
44484W        W87397  18.563  16.042  12.042 -0.1310  0.2931  0.0628
44485W        W87398   6.425  32.359  25.531 -0.2746 -0.0591  0.1439
44486W        W87399   5.662  28.979  15.554  0.1850  0.1288 -0.0953
44487W        W87400   5.626  26.616  15.365 -0.0750  0.0919 -0.0564
44488W        W87401  16.913  19.978  14.410 -0.1397 -0.0753  0.2386
44489W        W87402   7.982  27.641  19.179 -0.0010 -0.0934  0.1639
44490W        W87403  19.674   9.863  20.874 -0.3254  0.3575  0.0742
44491W        W87404   7.475  17.531  20.855  0.1665 -0.2436 -0.2184
44492W        W87405  21.661   7.913  26.543 -0.1416 -0.1928  0.1491
44493W        W87406   9.462  17.297  20.274 -0.1254  0.0817  0.2958
44494W        W87407  24.758  24.441  14.290  0.1483 -0.2076  0.1519
44495W        W87408  14.596  20.674  15.861  0.0102 -0.0625 -0.0103
44496W        W87409  13.528  11.521  23.786  0.1101  0.0175 -0.0656
44497W        W87410  12.199  19.533  16.547  0.0414  0.2289  0.0829
44498W        W87411  15.842  17.505  11.704  0.1578  0.3160 -0.0047
44499W        W87412  21.085  13.940  15.638 -0.1649  0.4416 -0.2593
44500W        W87413  15.018  12.354  13.144  0.1830 -0.0424 -0.0412
44501W        W87414   0.560  10.750  17.296  0.2054  0.3337 -0.1817
44502W        W87415   8.753  17.022  15.396  0.1133 -0.0902 -0.1383
44503W        W87416  16.071  23.766  15.180 -0.3636  0.2369  0.1798
44504W        W87417   9.362  20.986  19.269  0.1194 -0.0480  0.1117
44505W        W87418  14.066  22.764  16.657  0.1526  0.3431 -0.0211
44506W        W87419  10.485  23.477  13.996  0.0147  0.2284  0.2276
44507W        W87420   6.679  20.953  21.811 -0.0095  0.3200 -0.0288
44508W        W87421   8.929  22.715  21.183  0.0177 -0.0967 -0.0194
44509W        W87422   5.471  26.482  17.698 -0.1349  0.0650 -0.0367
44510W        W87423   9.770  18.362  13.202 -0.2422 -0.1016 -0.1511
44511W        W87424   5.842  13.049  26.517 -0.0456  0.0901  0.1856
44512W        W87425  14.049  10.650  20.513 -0.5851  0.4149  0.1932
44513W        W87426  34.238   9.059  18.871 -0.0485 -0.0272  0.0920
44514W        W87427  12.581  15.236  26.827  0.1525 -0.2032 -0.1694
44515W        W87428  13.623   9.626  16.379 -0.1281  0.1322 -0.2825
44516W        W87429  11.480   9.402  15.875 -0.3162 -0.1937 -0.1435
44517W        W87430   8.909  16.242  23.652 -0.3135 -0.1547 -0.3070
44518W        W87431  16.553  17.506  13.079 -0.1261 -0.2358 -0.1851
44519W        W87432  19.812  23.613  15.975  0.2330  0.1097 -0.1848
44520W        W87433   4.211  18.862  21.120  0.1900 -0.1257 -0.1264
44521W        W87434  13.279   5.228  21.545  0.1546  0.1343  0.1641
44522W        W87435   1.143  17.636  17.497  0.1735  0.1194  0.0358
44523W        W87436   6.993  27.251  23.261 -0.0388  0.0695  0.3956
44524W        W87437   1.752  16.436  27.666 -0.2295  0.1578 -0.4693
44525W        W87438   1.900  26.933  15.827 -0.2873  0.1689  0.0104
44526W        W87439  16.325  19.772  22.742  0.0790  0.0863 -0.0567
44527W        W87440  10.850  22.021  14.757  0.0646 -0.0469 -0.2270
44528W        W87441   1.944  25.814   6.050 -0.3676 -0.0883  0.2122
44529W        W87442   7.461  31.370  16.078  0.2422  0.2376 -0.2881
44530W        W87443  12.649  20.590  19.017 -0.0302  0.1863 -0.1678
44531W        W87444  33.200  26.987  14.785 -0.2424 -0.1115 -0.3097
44532W        W87445  12.942  26.770  17.572 -0.1406  0.3103  0.1851
44533W        W87446   5.643  16.160  21.776 -0.1445  0.0775 -0.0918
44534W        W87447   7.918  13.343  16.286 -0.1707 -0.0818  0.2930
44535W        W87448   4.980  25.944  23.047  0.1438 -0.1685 -0.0562
44536W        W87449  10.391  16.188  18.429  0.1462  0.0808  0.1968
44537W        W87450  21.684  25.098  18.654 -0.0561  0.0596  0.0546
44538W        W87451  20.901  26.289  16.873  0.1575  0.2544 -0.2146
44539W        W87452   9.285  23.894  17.791 -0.0715 -0.0067 -0.0149
44540W        W87453  12.835  16.672  17.812 -0.1519 -0.1320  0.0294
44541W        W87454   8.041  11.574  28.037 -0.0965  0.0332  0.0191
44542W        W87455   5.485  28.372  25.566 -0.0767 -0.2409 -0.0541
44543W        W87456  11.223  12.761  22.687 -0.0286  0.2938  0.1041
44544W        W87457  12.353  28.566  19.064 -0.0649 -0.1269 -0.2296
44545W        W87458   2.085  23.339  16.856 -0.1313  0.1942 -0.1629
44546W        W87459  16.269  29.047  25.345 -0.0163 -0.1014  0.1665
44547W        W87460  15.367  25.484  19.872 -0.2204  0.0881 -0.0320
44548W        W87461   4.058  23.892  23.838 -0.0043 -0.2934  0.0659
44549W        W87462  14.351  18.381  13.021 -0.3966  0.0826  0.1511
44550W        W87463   2.356  23.716  22.853 -0.1349  0.0305 -0.2848
44551W        W87464  15.094  13.256   0.962 -0.1487 -0.1430 -0.0574
44552W        W87465  11.415  15.003  21.601  0.2975 -0.0218 -0.0239
44553W        W87466  31.981  22.519  22.042  0.0553 -0.0434  0.2054
44554W        W87467   8.203  11.005  17.798 -0.2027 -0.0217 -0.2477
44555W        W87468  16.277   9.871  17.190  0.0358 -0.1073 -0.2779
44556W        W87469  15.039  21.007  13.526  0.0268  0.0763  0.0727
44557W        W87470  11.422  20.945  13.322 -0.1618 -0.0887  0.0241
44558W        W87471   0.619  13.511  23.885  0.3506  0.3253 -0.0214
44559W        W87472  19.875  28.735  20.929 -0.0539  0.1701 -0.0239
44560W        W87473  13.934  16.139  14.608 -0.0045  0.1257 -0.0730
44561W        W87474  13.140  14.258  15.495  0.2958  0.1733  0.3607
44562W        W87475   8.916  18.172  20.747  0.1888  0.0696 -0.2036
44563W        W87476   6.945  18.232   0.291  0.0606 -0.2600  0.0113
44564W        W87477  16.697  19.599  14.052  0.2180  0.0062  0.1030
44565W        W87478   7.858  17.380  20.030 -0.0703 -0.0048  0.3695
44566W        W87479  11.766  27.101  28.830 -0.1967  0.0460 -0.1131
44567W        W87480  20.407  25.543  29.454  0.0106 -0.1231  0.1284
44568W        W87481  11.115  26.602  16.049 -0.2704 -0.0438  0.1211
44569W        W87482  30.623   7.437  21.160  0.1311  0.1794 -0.1401
44570W        W87483   6.107  25.290  21.206 -0.2461 -0.1015 -0.4284
44571W        W87484   3.589  23.954  17.821 -0.2052 -0.0513 -0.1438
44572W        W87485   8.946  31.225  18.047 -0.1193  0.1180  0.1245
44573W        W87486  11.038  12.561  23.140 -0.1232 -0.1417 -0.0600
44574W        W87487  11.020  13.761  19.656  0.0124  0.1641 -0.3731
44575W        W87488   6.721  26.307  22.078  0.2968 -0.0551 -0.0403
44576W        W87489  16.859  13.652  12.613  0.0841 -0.2473 -0.3066
44577W        W87490   6.012  12.647  15.952 -0.2833  0.1386 -0.0223
44578W        W87491  13.795  15.669  15.492  0.0997  0.3426 -0.0068
44579W        W87492  33.387  17.798  22.946  0.0245  0.0061  0.1299
44580W        W87493  15.003  23.062  16.643  0.0503  0.1545  0.2521
44581W        W87494   4.502  28.103  20.587 -0.1137 -0.0887  0.0637
44582W        W87495  16.999  25.893  20.843 -0.0152  0.3852  0.0389
44583W        W87496  16.978  11.673  17.239  0.1107 -0.2340 -0.0731
44584W        W87497  16.486  19.487  13.632 -0.0508  0.1762  0.0438
44585W        W87498  21.509  13.436  13.555 -0.0123  0.0958 -0.0204
44586W        W87499  17.957  19.693  12.854  0.1964  0.0728  0.0866
44587W        W87500  15.468  12.648  14.189 -0.0004  0.2445 -0.1157
44588W        W87501   6.670  10.223  17.123 -0.0473  0.1325 -0.4015
44589W        W87502   7.094  20.462  19.408 -0.4947  0.1980 -0.0183
44590W        W87503   7.083   5.297  21.438  0.1582 -0.1995 -0.2089
44591W        W87504  15.034  21.846  13.134  0.1226 -0.1936  0.1929
44592W        W87505  11.023  18.220  28.147  0.1275  0.5167  0.2121
44593W        W87506  13.416  29.012  18.161 -0.0717 -0.3509  0.0484
44594W        W87507   4.483  12.578  18.519  0.0376 -0.1403  0.2520
44595W        W87508  10.268  17.036  22.053 -0.2056  0.2664  0.1217
44596W        W87509  22.073  27.720  17.243 -0.0660 -0.0698 -0.0926
44597W        W87510  23.225  21.898  23.798 -0.1258  0.3897 -0.0899
44598W        W87511   9.893   6.970  20.574 -0.0180  0.3995  0.2468
44599W        W87512   4.044  22.590  15.460 -0.0603  0.0166  0.0476
44600W        W87513  16.623   9.117  16.226  0.1099 -0.3792  0.1502
44601W        W87514   6.312  18.255  15.638 -0.0991 -0.3068  0.1873
44602W        W87515   3.058  22.244  18.947 -0.1262  0.1218  0.0104
44603W        W87516  10.750  25.155  23.148  0.2077 -0.1831  0.2231
44604W        W87517   7.490  15.971  21.425  0.1951  0.2206  0.0643
44605W        W87518   7.061  19.185  28.680 -0.0197  0.3225 -0.0855
44606W        W87519   6.192  29.013  17.076  0.0683 -0.2335  0.0501
44607W        W87520  15.404  10.997  19.504 -0.2646 -0.1460 -0.2847
44608W        W87521  19.745  31.304  19.622 -0.0987  0.2187  0.3063
44609W        W87522  15.823  26.345  24.894 -0.0906  0.2994 -0.0642
44610W        W87523  15.906  10.734  16.880  0.0479 -0.1844  0.0136
44611W        W87524   5.360  28.317  25.027  0.1594  0.0663 -0.4524
44612W        W87525   9.533  17.720  15.839  0.0055 -0.3218 -0.1844
44613W        W87526  14.147   9.050   0.387 -0.0708  0.0943  0.1981
44614W        W87527  22.136   5.583   0.258  0.0538 -0.1837 -0.2425
44615W        W87528  12.438  19.270  26.512  0.1277 -0.0491 -0.2251
44616W        W87529  16.150  18.871  13.231 -0.0748  0.0793  0.2460
44617W        W87530   8.034  17.621  26.724  0.4250  0.1432 -0.0215
44618W        W87531   2.768  20.504  18.690  0.0828 -0.0159  0.0029
44619W        W87532   9.798  22.458  13.965 -0.1338  0.0019  0.2796
44620W        W87533   6.354  29.066  27.973  0.1263 -0.2126  0.0610
44621W        W87534  20.545   7.652  18.698  0.1847  0.0137 -0.1475
44622W        W87535  10.313   1.696  21.757 -0.0508 -0.2318 -0.2220
44623W        W87536   9.920  22.558  16.523  0.2653 -0.2906 -0.1429
44624W        W87537  12.600  21.571  24.569  0.1068  0.1241  0.1596
44625W        W87538  16.114  12.485  17.824  0.1116 -0.0215  0.0129
44626W        W87539   4.074  21.651  15.088  0.4358 -0.0185  0.0784
44627W        W87540  22.927  21.317  13.102 -0.1213 -0.0649 -0.1827
44628W        W87541  18.963  19.160  12.649  0.2294 -0.2818  0.0907
44629W        W87542   6.765  19.299  15.417  0.1381 -0.2317  0.1740
44630W        W87543  16.358  21.056  20.249 -0.0890  0.1981  0.2062
44631W        W87544   8.098  12.295   2.127  0.0289  0.0521 -0.2504
44632W        W87545  11.112  12.688  20.427  0.2061 -0.2282 -0.0064
44633W        W87546   1.510   6.095  29.365 -0.0861  0.4985 -0.2462
44634W        W87547  13.683  25.380  14.832 -0.1265  0.0560  0.1386
44635W        W87548  17.486   3.197  29.200  0.0035  0.3053  0.0227
44636W        W87549   3.620  18.481  22.280  0.2592 -0.1424 -0.1529
44637W        W87550  16.430  10.376  14.975  0.3391 -0.2461 -0.1763
44638W        W87551  17.996  22.209  16.231 -0.1594  0.1360 -0.1829
44639W        W87552  13.911  13.095   0.682 -0.3940 -0.1983 -0.0140
44640W        W87553  12.765  26.167  18.675  0.2029 -0.2543 -0.0876
44641W        W87554  15.630  18.196  14.203 -0.2382  0.2216 -0.0440
44642W        W87555  14.463  21.735  13.538  0.1991 -0.2359  0.1688
44643W        W87556  22.311  12.771  12.886 -0.0619 -0.0414  0.2089
44644W        W87557   8.412  18.614  17.833 -0.1397  0.0149  0.0377
44645W        W87558  10.581  19.973  14.563 -0.1113  0.3810  0.0084
44646W        W87559   7.547   1.199  25.584 -0.2367  0.6215  0.0875
44647W        W87560  15.943  15.643  12.692 -0.0454 -0.0595  0.1437
44648W        W87561  22.713  30.432  15.976 -0.0814 -0.1438 -0.0133
44649W        W87562   9.796   8.185  24.443 -0.0978 -0.0981 -0.0001
44650W        W87563  12.146  21.249  13.513  0.1398 -0.2556 -0.0072
44651W        W87564  33.828  27.743  16.956 -0.0295 -0.2344 -0.1284
44652W        W87565   5.748  16.675  15.699  0.0892  0.0793  0.0495
44653W        W87566  29.074  15.495  18.330  0.1145  0.3531 -0.0204
44654W        W87567  32.942  15.008  24.357  0.2671  0.3029 -0.0938
44655W        W87568   9.834  16.305  17.183 -0.2598  0.0888  0.3933
44656W        W87569   3.686   8.229  20.752  0.3307 -0.0152 -0.1136
44657W        W87570   4.552  19.809  21.946 -0.1695 -0.0912 -0.1698
44658W        W87571  18.444  12.428  14.451  0.1026  0.0236  0.0520
44659W        W87572   0.213  26.987  25.135 -0.1463 -0.2216  0.0760
44660W        W87573   4.432  13.395  23.347 -0.1243 -0.1664 -0.2688
44661W        W87574   1.270  19.126  24.825  0.1554 -0.1293  0.1516
44662W        W87575  17.431  28.204  22.590  0.2144 -0.2429  0.1490
44663W        W87576   1.075  17.274  23.105  0.0909 -0.1176 -0.1194
44664W        W87577  10.016  21.998  14.190  0.0537  0.1824  0.1419
44665W        W87578   8.616  20.686   0.270 -0.0714  0.1782  0.0340
44666W        W87579  16.538  27.379  18.958 -0.0482 -0.0075 -0.0455
44667W        W87580  15.822  10.563  21.135 -0.1246 -0.2985  0.2715
44668W        W87581   8.241  17.065  14.500  0.3329  0.0689 -0.0083
44669W        W87582   8.481  18.161  18.940 -0.1243 -0.1252  0.2926
44670W        W87583   6.344  16.424  14.874  0.0539  0.0756  0.1597
44671W        W87584   3.237  17.975  19.273  0.3078  0.1991  0.0572
44672W        W87585  18.057  19.703  13.994 -0.0696  0.0258 -0.9093
44673W        W87586   6.449  15.795  17.882  0.2506 -0.1162 -0.1457
44674W        W87587   5.898  18.257  15.383  0.0256  0.0638  0.2626
44675W        W87588  17.647   8.889  14.698  0.1383 -0.0522  0.1185
44676W        W87589  15.254  24.465  15.841  0.3934 -0.0368  0.1505
44677W        W87590   6.217  33.305  21.386  0.0072  0.1480  0.0761
44678W        W87591   8.026  18.527  21.268 -0.2287 -0.2579 -0.1766
44679W        W87592   6.068  23.449  16.067 -0.1950  0.0405  0.1796
44680W        W87593   8.853  24.227  19.546  0.1362 -0.1008  0.1358
44681W        W87594   7.229  16.208  16.494  0.0173  0.1051  0.0769
44682W        W87595   4.658  23.852  25.165 -0.2031 -0.0373 -0.2612
44683W        W87596   9.120  28.332   3.648  0.2571 -0.0865 -0.3909
44684W        W87597   3.222  26.175   1.880  0.2882  0.0601 -0.3773
44685W        W87598  11.317  15.710  14.414  0.1799 -0.3544 -0.3175
44686W        W87599  21.173  15.119  21.184 -0.0791 -0.0202  0.1588
44687W        W87600   4.470  23.717  18.424  0.2320 -0.1871 -0.1844
44688W        W87601   1.720  12.927  22.766 -0.1156  0.2025  0.0408
44689W        W87602  33.510  25.145  14.536  0.0819  0.0077  0.0230
44690W        W87603   5.932  17.646  17.656 -0.1860 -0.0503  0.2321
44691W        W87604  17.179  21.053  26.883  0.0435  0.0037 -0.0481
44692W        W87605  10.431  17.755  13.292 -0.1347  0.1076 -0.0209
44693W        W87606   5.117  23.027  19.408  0.3089 -0.0695  0.2211
44694W        W87607   6.694  10.392  26.174  0.2829 -0.1870  0.4516
44695W        W87608  10.966  29.031  17.042  0.0476  0.1005 -0.0706
44696W        W87609  12.168  14.247  20.937  0.3070 -0.2029  0.4102
44697W        W87610   6.190  21.468  20.852  0.1544 -0.0565 -0.2341
44698W        W87611   5.428  24.599  18.326  0.1856 -0.1397 -0.0984
44699W        W87612   5.316  14.843  13.673 -0.0483  0.1276 -0.2979
44700W        W87613   3.492   8.098  27.913  0.0254  0.0875  0.1740
44701W        W87614  34.242  12.746  19.213 -0.2363  0.0380 -0.1088
44702W        W87615  23.086  10.249  26.966  0.1885 -0.1279 -0.0695
44703W        W87616   8.453  24.494  24.261  0.0313 -0.1624 -0.1344
44704W        W87617  12.462  15.684  26.611  0.3193 -0.0029 -0.1081
44705W        W87618  10.774  22.151  23.626  0.2781  0.3841 -0.0921
44706W        W87619  11.374  27.866  27.340 -0.1407 -0.1110 -0.3187
44707W        W87620   8.597  22.829  18.131  0.2468  0.1283  0.2095
44708W        W87621   1.632  25.902  18.456  0.0372  0.2558  0.1297
44709W        W87622   9.111  20.649  25.689 -0.1342 -0.2183 -0.0627
44710W        W87623  31.544   6.940  20.281  0.3206  0.1580  0.1611
44711W        W87624   6.417  16.633  26.463  0.1535  0.0523  0.2377
44712W        W87625  19.477  23.927  19.098 -0.0158 -0.1441  0.0470
44713W        W87626   9.663  24.541  21.264 -0.3979 -0.0575 -0.0019
44714W        W87627  16.171  23.577  13.972  0.0121  0.2067 -0.0899
44715W        W87628   4.856  22.712  19.737  0.0346 -0.1099 -0.0558
44716W        W87629  12.236  15.873  15.138 -0.1731 -0.2108 -0.1676
44717W        W87630  10.892  18.137  18.709  0.0021 -0.1137  0.5534
44718W        W87631  22.209  32.574  16.373  0.0206 -0.0352  0.0579
44719W        W87632  12.184  20.316  21.005 -0.2477 -0.0110  0.1795
44720W        W87633  15.458   9.907  16.862 -0.0081  0.0726  0.0641
44721W        W87634   3.208  20.225  18.646  0.1680 -0.1143  0.1394
44722W        W87635   8.824  20.280  25.327  0.1255 -0.0580  0.1687
44723W        W87636  11.077  19.320  17.023  0.2681 -0.3910  0.1092
44724W        W87637  13.191  24.329  18.421 -0.2294  0.2098 -0.1077
44725W        W87638  11.966  21.858  28.268  0.2425  0.0357  0.0030
44726W        W87639  18.460  21.858  15.775 -0.1968 -0.1539  0.0844
44727W        W87640  10.753  23.381  21.808 -0.1474  0.2396  0.1115
44728W        W87641   2.225  14.136  21.625 -0.1927  0.2606 -0.2583
44729W        W87642   8.635  19.922  18.925 -0.2372  0.0972 -0.0135
44730W        W87643  26.776   0.080  19.053  0.2622 -0.3412  0.0120
44731W        W87644  14.929  11.951  23.010  0.0692  0.1809 -0.0650
44732W        W87645  24.233  22.316  17.806 -0.3511 -0.0638 -0.2107
44733W        W87646  17.524  18.533  14.034  0.0780  0.2075 -0.3487
44734W        W87647  12.311   7.012  28.164 -0.1130 -0.2856  0.1817
44735W        W87648   3.229  21.677  21.217 -0.1672 -0.0445 -0.3409
44736W        W87649   9.652  18.610  16.382  0.1399  0.0354  0.1676
44737W        W87650   6.038  20.292  19.617 -0.1508 -0.0004  0.0086
44738W        W87651   4.065  19.398  16.576  0.1985 -0.0312  0.0901
44739W        W87652  12.193  14.551  13.587  0.0282 -0.0768  0.1484
44740W        W87653  13.499  24.161  29.225 -0.2969  0.0771  0.4351
44741W        W87654   9.007   6.368  24.056  0.2078  0.1466  0.1005
44742W        W87655  17.941  24.357  13.577  0.2818  0.0163  0.1636
44743W        W87656  12.089  24.401  19.619 -0.0673  0.1169 -0.0151
44744W        W87657  14.445  16.868  13.337 -0.0772 -0.1740 -0.1365
44745W        W87658  29.710  12.793  21.937 -0.0845  0.0928 -0.2967
44746W        W87659  26.060  21.075  21.776 -0.0489 -0.0371  0.1289
44747W        W87660  12.429  12.982  22.176 -0.1053  0.1987  0.1951
44748W        W87661  15.540  28.569  23.572 -0.0189  0.4842 -0.1177
44749W        W87662  15.845  21.461  14.275 -0.1262 -0.2619  0.2466
44750W        W87663  14.769  14.198  12.670  0.2526  0.1354  0.0626
44751W        W87664   8.136   3.938  23.228 -0.1293 -0.3670 -0.0756
44752W        W87665   0.449  29.959  20.512 -0.0726  0.0533  0.1616
44753W        W87666  11.799  24.473  14.132 -0.0863 -0.0609 -0.0137
44754W        W87667  32.961  27.249  22.074  0.2329  0.1747 -0.4142
44755W        W87668  32.259  10.522  15.709 -0.1563 -0.1483  0.1389
44756W        W87669   4.165   6.349  26.475 -0.1362  0.2035 -0.1447
44757W        W87670  11.260  15.794  19.926 -0.1918  0.2941  0.0268
44758W        W87671   7.600  22.715  28.566 -0.0668  0.1318  0.2070
44759W        W87672   9.284  25.856  20.740  0.1239 -0.1028  0.2477
44760W        W87673   3.653  18.980  20.050 -0.0154 -0.2380  0.0272
44761W        W87674   3.972  18.805  28.107 -0.2498  0.3049 -0.1352
44762W        W87675  33.679  15.011  20.161 -0.2077  0.1236 -0.0250
44763W        W87676  18.144  21.141  25.059  0.0659 -0.0380 -0.0013
44764W        W87677  13.101  10.177  13.555  0.1121 -0.1803 -0.1782
44765W        W87678   5.384  24.189  16.296 -0.2100 -0.0403 -0.1727
44766W        W87679  20.553   7.346  17.491  0.2422 -0.0269  0.0202
44767W        W87680  12.323  11.211  22.796 -0.1182  0.1582  0.1906
44768W        W87681  22.667  22.922  15.398 -0.2695  0.0802  0.0293
44769W        W87682   6.786  14.501  17.036  0.1787 -0.1636 -0.0669
44770W        W87683   6.233  26.003  18.242 -0.0879  0.2257 -0.1381
44771W        W87684   0.582  17.165  22.945  0.0998  0.0007  0.0734
44772W        W87685   9.710  23.013  16.169 -0.0946  0.0086  0.2017
44773W        W87686   8.673  20.217  13.578  0.1614  0.1537 -0.2829
44774W        W87687   3.001  23.803  23.617  0.4829 -0.1388 -0.0028
44775W        W87688  11.364  28.581  18.955 -0.2582 -0.4439 -0.2491
44776W        W87689   5.740  10.488  26.618 -0.1850 -0.0772 -0.1847
44777W        W87690   9.238  26.387  16.689 -0.3333  0.0449  0.2363
44778W        W87691   5.822  22.896  18.306 -0.2073  0.0316  0.0579
44779W        W87692   2.714  15.179  16.394 -0.0988 -0.0426 -0.2784
44780W        W87693   5.661  26.079  22.013 -0.1611  0.0743  0.0560
44781W        W87694   9.587  14.524  16.769  0.0807 -0.0398 -0.2118
44782W        W87695   6.115  23.323  14.759  0.1543 -0.0722 -0.5081
44783W        W87696  21.704  21.824  15.519 -0.0503 -0.1189 -0.3395
44784W        W87697   9.482   9.146  20.002 -0.1152 -0.1787 -0.0602
44785W        W87698  11.109  25.127  14.535  0.3837  0.3332  0.0157
44786W        W87699   5.034  13.769  14.848 -0.0209  0.0265 -0.1210
44787W        W87700   2.579  20.241  17.660  0.1804 -0.0128 -0.0407
44788W        W87701   5.388  20.530  26.288  0.0431 -0.0853 -0.2276
44789W        W87702   2.671  20.020  15.135 -0.2134  0.0340 -0.1003
44790W        W87703  21.207  25.122  17.176 -0.0512  0.2700 -0.4571
44791W        W87704  32.102  18.759  28.257 -0.3333  0.1367 -0.1538
44792W        W87705  19.261  14.795  16.162 -0.0388 -0.0861  0.0157
44793W        W87706  10.285  21.515  17.896 -0.0062 -0.1060  0.1018
44794W        W87707   8.049  20.846  18.461  0.1876  0.0982 -0.0219
44795W        W87708   6.708  18.105  18.138  0.1883  0.0861 -0.0337
44796W        W87709   9.609  20.198  14.452 -0.0090 -0.0875 -0.3226
44797W        W87710  18.177  25.533  19.207 -0.1766  0.2233 -0.0085
44798W        W87711   1.816  15.506  16.333  0.0458 -0.0436 -0.0863
44799W        W87712   5.161  18.714  14.341 -0.3792  0.0311  0.2976
44800W        W87713  10.703  18.181  20.010  0.1756  0.1381  0.0010
44801W        W87714  13.535  23.844  15.255  0.2187  0.2476  0.1787
44802W        W87715   6.658  16.938  19.266  0.0054  0.0319 -0.2527
44803W        W87716   4.266  16.900  24.500  0.0028 -0.0064 -0.0299
44804W        W87717   8.061  19.012  18.757 -0.0281  0.0820  0.0354
44805W        W87718   6.602  17.706  20.887  0.0814 -0.0170 -0.2726
44806W        W87719  22.770  11.655  17.600  0.0857 -0.0956 -0.2263
44807W        W87720   4.481  16.306  22.591  0.2063 -0.1334 -0.1068
44808W        W87721   6.454  23.299  14.301 -0.2359 -0.1255 -0.2009
44809W        W87722   4.903  21.209  13.904  0.1597  0.0086 -0.2987
44810W        W87723   5.255  15.989  14.588  0.0891 -0.0252  0.0954
44811W        W87724  17.269   7.030  14.943  0.1151 -0.2144  0.0699
44812W        W87725  11.290  11.562  19.489 -0.3375  0.2151  0.1470
44813W        W87726  31.042  15.957  18.664  0.3093 -0.1113 -0.3544
44814W        W87727   4.173  23.824  14.965  0.0385  0.0873 -0.1300
44815W        W87728   7.437  16.498  16.896 -0.0727 -0.1562  0.0165
44816W        W87729   4.496  25.453  28.067 -0.0521  0.4065  0.0792
44817W        W87730  22.297  23.116  12.898  0.1209  0.2338  0.0118
44818W        W87731   2.961  10.450  19.715  0.1887  0.3150 -0.2521
44819W        W87732  14.932  24.738  26.645  0.2439 -0.1344 -0.0842
44820W        W87733   8.494  18.873  21.271 -0.0248  0.2430 -0.1561
44821W        W87734   9.853  20.880  25.096 -0.1782  0.1482  0.0753
44822W        W87735   3.585  22.761  22.955  0.0952 -0.0146  0.2222
44823W        W87736   8.207  27.058  20.493 -0.2141  0.0033 -0.1766
44824W        W87737   2.084  18.093  20.560 -0.0876 -0.1330  0.0009
44825W        W87738  16.826  24.262  24.696  0.3503 -0.0385  0.1720
44826W        W87739  17.138   7.668  22.181 -0.1121 -0.0256  0.0465
44827W        W87740   6.324  30.968  21.671  0.1900  0.2608  0.0285
44828W        W87741  34.102  14.242  14.564  0.1692  0.3546  0.0173
44829W        W87742   7.754  19.698  17.354 -0.0285 -0.1908  0.0439
44830W        W87743   7.084   2.186  28.385 -0.0829 -0.1468 -0.0516
44831W        W87744   1.943  23.807  16.707 -0.1042 -0.0132  0.2972
44832W        W87745  18.208  18.351  14.694 -0.0244  0.2200 -0.3180
44833W        W87746  16.038  15.526  13.810  0.0485 -0.1107 -0.0740
44834W        W87747  11.254  15.119   3.196 -0.0067 -0.0641  0.1501
44835W        W87748  19.900  23.042  16.757 -0.2159  0.0845 -0.3402
44836W        W87749  10.745  15.100  15.904  0.2017 -0.1537 -0.2712
44837W        W87750  14.112  20.540  14.234  0.0906 -0.0852 -0.1442
44838W        W87751   6.536  19.493  15.958  0.4805 -0.1807 -0.2187
44839W        W87752  30.515  21.180  20.390 -0.1045  0.0583 -0.0883
44840W        W87753  11.134  18.289  20.260  0.2554 -0.0780 -0.2067
44841W        W87754  18.711  15.320  14.592 -0.0884  0.0329  0.0467
44842W        W87755  11.731  27.339  29.328 -0.1048 -0.2334  0.1460
44843W        W87756   6.460  14.656   3.132  0.0531 -0.0110  0.1632
44844W        W87757   9.671  25.698  24.988  0.0661  0.1256  0.0715
44845W        W87758  12.872  10.414   0.368  0.2773 -0.1309  0.1365
44846W        W87759  19.138  20.365  13.242 -0.0601  0.1039  0.1248
44847W        W87760   5.717   6.675  22.543 -0.0249  0.0282  0.0971
44848W        W87761   9.240  17.758  22.193  0.2326 -0.1057  0.3162
44849W        W87762  25.314  11.853  20.145  0.3010  0.1219  0.0804
44850W        W87763   8.681  12.026  26.675  0.1465 -0.0400 -0.0901
44851W        W87764   5.040   4.848  18.374  0.1894  0.2902 -0.1394
44852W        W87765   5.556  19.272  21.519 -0.1680  0.1794  0.0125
44853W        W87766  32.730  14.771  22.109  0.0346 -0.2014 -0.0835
44854W        W87767   4.828  23.475  21.169 -0.0514  0.0237 -0.0802
44855W        W87768  14.274   6.762  19.383  0.1974 -0.1136  0.0018
44856W        W87769   6.009  16.528  16.632 -0.2091 -0.1372 -0.1113
44857W        W87770  16.161  30.186  18.665 -0.0086  0.1110  0.0709
44858W        W87771   6.027  17.322  23.413 -0.0841  0.1335 -0.1432
44859W        W87772   8.452  25.085  25.105 -0.2978  0.2319 -0.2749
44860W        W87773  14.657  26.720  25.651 -0.0824  0.3093  0.2503
44861W        W87774   9.205  22.627  14.631 -0.0104 -0.2120  0.0420
44862W        W87775  10.328  19.909  20.236 -0.1603 -0.1103  0.3333
44863W        W87776   9.827  19.974   1.423 -0.1707 -0.0032  0.0548
44864W        W87777   7.793   8.883  21.005  0.2533 -0.1129 -0.0159
44865W        W87778  15.032  16.347  26.558  0.3988  0.0347  0.2443
44866W        W87779  11.930  10.583  21.156 -0.0146 -0.1654  0.3465
44867W        W87780   6.259  14.275  14.528 -0.3008  0.2112 -0.3808
44868W        W87781  16.549  22.097  13.205  0.2650  0.0373 -0.2544
44869W        W87782   4.827  19.989  22.372 -0.0126  0.2511 -0.2920
44870W        W87783  16.686  21.911  21.346 -0.0598  0.2899 -0.0049
44871W        W87784  11.568  17.316  14.604  0.2546 -0.1257  0.0562
44872W        W87785   2.760  10.613  16.365  0.2389  0.0228  0.0080
44873W        W87786  19.551  22.984  17.648  0.0072  0.0075 -0.1329
44874W        W87787  11.659  14.365  17.878  0.3081 -0.3541 -0.1404
44875W        W87788   1.092  27.852  20.032 -0.0642  0.2922 -0.0114
44876W        W87789   9.529   4.829  24.491 -0.1649 -0.1970 -0.1077
44877W        W87790   2.285  24.342  23.535 -0.1197  0.1153 -0.0185
44878W        W87791  19.174  25.367  28.927 -0.2195  0.0682 -0.1027
44879W        W87792  12.421  25.977  15.109  0.2081  0.0695 -0.2599
44880W        W87793   7.396  20.929  15.044  0.0943 -0.1266  0.0770
44881W        W87794  24.692  21.511  15.569 -0.4321  0.0939  0.0011
44882W        W87795   4.665  14.610  15.799 -0.0522 -0.0341  0.1047
44883W        W87796   9.800  12.886  14.450  0.0050 -0.1491 -0.2083
44884W        W87797  18.978   9.568  18.989  0.1599 -0.0164 -0.0581
44885W        W87798   4.337  24.111  16.921  0.0881  0.1831 -0.0092
44886W        W87799  10.540  20.073  15.351  0.0919 -0.1455  0.2535
44887W        W87800   2.217  13.067  18.633  0.1976 -0.1890  0.1125
44888W        W87801   5.703  10.914  22.903  0.2788  0.2225 -0.2571
44889W        W87802  33.273  34.336  16.412 -0.3466  0.0293  0.0652
44890W        W87803   9.229  16.197  21.842  0.0717  0.1279 -0.0095
44891W        W87804   6.623   8.032  23.376  0.2629  0.0011 -0.0303
44892W        W87805   1.781  20.494  22.720  0.0907  0.1670  0.3932
44893W        W87806   6.459  18.315  16.985  0.0732 -0.2756 -0.1997
44894W        W87807  15.410  24.908  19.576 -0.3203  0.0750 -0.0073
44895W        W87808  30.851  11.549  16.425 -0.1814  0.2001  0.0306
44896W        W87809  13.826  12.562  20.945 -0.4699  0.1182 -0.1968
44897W        W87810   3.674  27.717  21.830  0.1023 -0.1006 -0.2329
44898W        W87811   8.883  15.890  27.362  0.1077  0.3904  0.3013
44899W        W87812   2.479  15.365  26.787  0.0131  0.1810 -0.2192
44900W        W87813   1.864  21.466  16.840  0.1342  0.2229 -0.1239
44901W        W87814  11.520  21.797  22.665  0.0913 -0.0100  0.1868
44902W        W87815   8.324  16.301  17.240  0.1528 -0.0955 -0.1160
44903W        W87816  13.123  11.323  16.723  0.0382  0.0344 -0.2504
44904W        W87817  13.433  13.775  20.913 -0.5253  0.0245  0.1217
44905W        W87818   9.159  22.185  17.650 -0.2295 -0.0278 -0.1097
44906W        W87819  12.734  19.746  15.882  0.1079  0.0971  0.1068
44907W        W87820   8.054  25.080   7.117  0.1219 -0.0078 -0.0547
44908W        W87821  13.292   1.517  25.171  0.1636  0.0290  0.1417
44909W        W87822  12.989  10.937   6.150  0.0218  0.2573 -0.2156
44910W        W87823  33.391  23.602  25.365 -0.0600 -0.1250  0.0130
44911W        W87824   2.168  27.744  25.113 -0.1367 -0.3061  0.2499
44912W        W87825   7.344  20.234  27.242  0.0113 -0.1012  0.1201
44913W        W87826  33.735  23.353  14.609 -0.2107 -0.2261 -0.0164
44914W        W87827  11.296  19.221   2.658  0.1785  0.1822 -0.0809
44915W        W87828  14.355   8.741   0.035 -0.1229  0.1442  0.3041
44916W        W87829   5.952  18.032  17.071 -0.1991  0.1261  0.1346
44917W        W87830   9.262  25.307  24.304 -0.0431 -0.0930 -0.0399
44918W        W87831  12.478  17.230  24.467 -0.2905 -0.5076  0.1263
44919W        W87832   4.259  24.015   8.769  0.0161 -0.3097  0.1383
44920W        W87833  10.837  17.535  20.586  0.1192  0.1968  0.1015
44921W        W87834  32.635  14.218  22.868 -0.0724  0.4089 -0.0374
44922W        W87835  19.157  32.008  20.893  0.0034  0.1108  0.2780
44923W        W87836  12.520  27.040  18.251  0.1901 -0.1710  0.0268
44924W        W87837  25.932  20.320  26.995  0.1717  0.1699 -0.3392
44925W        W87838   4.762  26.765  21.947 -0.0781 -0.0734 -0.0892
44926W        W87839  23.923  23.849  24.478 -0.2458 -0.0903  0.1424
44927W        W87840  33.151  19.830  26.086 -0.2538  0.2198 -0.1268
44928W        W87841   5.127  23.332  25.655  0.1977 -0.2827 -0.0733
44929W        W87842   6.732  12.838  21.713  0.0438  0.0105 -0.2162
44930W        W87843  16.350  25.523   7.153  0.3375 -0.0483  0.0301
44931W        W87844   4.938  18.271   0.240  0.2916 -0.2780 -0.3493
44932W        W87845   1.761  27.314  20.209 -0.0273 -0.0423 -0.0286
44933W        W87846  30.761  21.071  16.991  0.2278 -0.0632  0.0266
44934W        W87847  16.897  14.457   5.041 -0.1055  0.3572  0.0306
44935W        W87848   7.622  22.353  28.157 -0.0264 -0.2713  0.0300
44936W        W87849  14.547  13.964  19.554  0.1645  0.1963 -0.1138
44937W        W87850   5.675  29.202  19.745  0.1146 -0.1328  0.0579
44938W        W87851   1.954  23.726  17.796  0.4548 -0.0004 -0.3586
44939W        W87852  10.352  16.099  26.789 -0.1982  0.0423  0.1761
44940W        W87853  12.927  16.962  21.604  0.2380 -0.1114 -0.1067
44941W        W87854   7.727  13.142  14.233  0.0969 -0.1249 -0.0070
44942W        W87855   4.073  30.056  24.737  0.3104 -0.4899 -0.3715
44943W        W87856   9.529  22.167  21.918  0.0150  0.0168 -0.3315
44944W        W87857  14.284  21.309  27.913  0.0578  0.0708 -0.2506
44945W        W87858   6.447  16.151  22.960  0.1219 -0.1838 -0.0420
44946W        W87859  33.629  29.324  23.892 -0.1432 -0.0721  0.3657
44947W        W87860   0.075  21.065  28.650  0.0711 -0.1377  0.0614
44948W        W87861   4.238  14.149  17.255 -0.1630 -0.3858 -0.2820
44949W        W87862   8.527  17.841  24.987  0.0028  0.2146 -0.0080
44950W        W87863  21.830  15.755  14.195  0.0179  0.1833 -0.0125
44951W        W87864  11.814  19.616  26.596 -0.2329 -0.1722  0.2522
44952W        W87865   8.413  18.647  22.178 -0.2465  0.0759 -0.2377
44953W        W87866   7.125  24.273  20.398  0.0687 -0.0864 -0.0316
44954W        W87867   9.929  14.132   0.109  0.0783  0.1525  0.0819
44955W        W87868   9.263  13.270  23.326 -0.0734 -0.1792  0.1437
44956W        W87869   0.886  33.780  27.741 -0.0708  0.2015 -0.5193
44957W        W87870   5.262  15.310  27.776  0.3157  0.0502  0.1263
44958W        W87871   6.522  17.096  22.496 -0.0198 -0.1507  0.1935
44959W        W87872  15.112  31.568  25.723  0.2320 -0.2029 -0.3539
44960W        W87873  12.312  22.917  26.460  0.2016 -0.2074  0.1757
44961W        W87874  11.759  15.524  17.667  0.2947  0.1944 -0.1548
44962W        W87875  11.627   0.968  23.895 -0.1312 -0.2684  0.1923
44963W        W87876   2.632  31.271  15.474  0.0719  0.2976 -0.0449
44964W        W87877  32.174  16.587  14.991 -0.0736 -0.1545 -0.0230
44965W        W87878   2.604  15.919  20.944 -0.2400 -0.1945  0.2405
44966W        W87879  12.784  16.896  19.202 -0.0209 -0.2321 -0.1934
44967W        W87880  10.044  12.071  24.477  0.2161  0.3268 -0.1520
44968W        W87881  10.843  20.490  22.031  0.0399 -0.1952 -0.1157
44969W        W87882  12.154  22.169  23.247  0.0812 -0.0687  0.0484
44970W        W87883  20.835  13.741  17.362 -0.1880 -0.1104  0.2379
44971W        W87884  19.687  29.243  21.601  0.2696 -0.1327  0.2677
44972W        W87885   8.889  17.315  18.379 -0.2290  0.1487  0.1563
44973W        W87886  12.450  19.925  25.377 -0.1616  0.0276  0.0291
44974W        W87887   7.633  16.903  21.597 -0.0400 -0.1679 -0.0933
44975W        W87888   6.088  19.567  15.217 -0.2038 -0.1549  0.1580
44976W        W87889  17.203  13.264  14.124 -0.0795  0.0910  0.0694
44977W        W87890  17.529  29.066  24.952 -0.0508  0.1488  0.4025
44978W        W87891  13.674  24.944  27.744 -0.0235 -0.3179 -0.1684
44979W        W87892   3.473  11.469  27.591 -0.1644 -0.0356 -0.2153
44980W        W87893  11.687  22.395  19.273  0.2786  0.2769 -0.0449
44981W        W87894   5.157  20.997  16.130  0.3926 -0.0831  0.1537
44982W        W87895   5.636  23.376  17.091  0.0684 -0.1182 -0.1454
44983W        W87896   7.000  24.229  15.184 -0.1503  0.3054 -0.1983
44984W        W87897   6.333  31.476  21.584 -0.0972 -0.2795 -0.2826
44985W        W87898  15.714   1.883   0.542  0.2170 -0.1775 -0.0698
44986W        W87899  14.658  12.440  24.984  0.0026  0.1943 -0.1394
44987W        W87900  18.196  22.521  24.871  0.0918  0.1123  0.1481
44988W        W87901  23.459   7.487  18.130 -0.4100  0.1099  0.0908
44989W        W87902   1.323  21.745   2.003  0.0456  0.2912 -0.1556
44990W        W87903   8.481  23.135  21.793  0.1117  0.0170  0.1581
44991W        W87904   2.937  27.240  18.306  0.0780 -0.3253  0.0084
44992W        W87905  10.696  14.465  15.815 -0.3077  0.0786  0.3064
44993W        W87906   4.168  21.800  27.613 -0.2055  0.0166  0.0246
44994W        W87907   0.465  24.747  22.740  0.0918 -0.1156  0.3257
44995W        W87908   8.880  23.329   3.579 -0.1458 -0.2910 -0.0381
44996W        W87909   2.112  11.750  26.494 -0.0218  0.0579  0.0514
44997W        W87910  16.217  27.185  22.201  0.1636 -0.0653  0.0838
44998W        W87911   3.617  23.247  25.344 -0.3878  0.3302 -0.0251
44999W        W87912   1.460  15.534  20.218  0.2687 -0.0901  0.1177
45000W        W87913   8.074  21.883  28.662 -0.1343 -0.3213  0.4623
45001W        W87914  25.564  27.679  18.111 -0.4159 -0.2536 -0.0293
45002W        W87915  15.393  24.100  22.387 -0.0195  0.1761 -0.0339
45003W        W87916   5.311  11.823  25.968  0.1066 -0.0940 -0.0658
45004W        W87917  11.182  23.427  24.003  0.0492 -0.1641  0.1951
45005W        W87918   6.552  33.064  19.723 -0.1431  0.1368 -0.1844
45006W        W87919  23.998  28.240  15.756 -0.0928 -0.1144  0.2621
45007W        W87920  31.689  18.000  27.187  0.0961 -0.2172  0.1006
45008W        W87921   7.977  22.958  14.598  0.1108  0.0096 -0.0374
45009W        W87922   8.337  24.497  15.151 -0.1052  0.0496  0.3374
45010W        W87923   9.803  10.724  25.344 -0.1116  0.1440  0.1747
45011W        W87924  19.800  25.656  16.799 -0.0468 -0.2318 -0.0075
45012W        W87925  13.474  16.020  14.363  0.1623 -0.1283  0.1040
45013W        W87926  34.365  31.340  29.273  0.1622  0.1562 -0.0643
45014W        W87927   7.741  11.051   3.496  0.0542 -0.3286  0.4129
45015W        W87928  22.541  23.182   1.999 -0.2899  0.0997  0.1158
45016W        W87929   5.096  22.604  13.583  0.0728  0.1274  0.0379
45017W        W87930   1.314  26.927   4.073 -0.1678  0.0115 -0.1855
45018W        W87931   0.826  22.280   3.764  0.0083  0.0179 -0.0840
45019W        W87932  17.738  23.333  25.930  0.0735  0.1327 -0.0453
45020W        W87933  17.460  16.679  19.292  0.1620  0.2546  0.1198
45021W        W87934   5.036  26.770   1.482  0.0438 -0.1407 -0.0364
45022W        W87935  10.142  20.165  14.391 -0.1528  0.0252  0.0139
45023W        W87936  29.324  21.624  26.665 -0.1394  0.2240 -0.0248
45024W        W87937  17.263  20.341   8.304  0.1289  0.1548  0.0143
45025W        W87938   6.135  25.318   2.636 -0.2822  0.0603  0.1363
45026W        W87939   5.605  27.172  26.906 -0.1227  0.1219  0.0082
45027W        W87940   9.401  23.296  18.521  0.2976  0.2148  0.1491
45028W        W87941  10.090  24.867  20.606  0.0982  0.1468  0.0180
45029W        W87942   8.060  30.399  24.619 -0.1866  0.2040  0.1408
45030W        W87943  14.883  21.698  19.975 -0.0582 -0.1417  0.3887
45031W        W87944  20.733  21.928  15.047 -0.1362 -0.2785  0.1450
45032W        W87945   8.664  13.988  23.631  0.0283  0.0332 -0.0158
45033W        W87946   0.195  18.242  26.591 -0.1845  0.3935 -0.1389
45034W        W87947   1.643  20.544  16.525  0.0481  0.0449 -0.1435
45035W        W87948   2.893  12.903  26.757 -0.0443  0.0299  0.1206
45036W        W87949   2.054  16.814  15.502 -0.1494 -0.1453 -0.3563
45037W        W87950  22.145  13.159  14.826 -0.2721  0.4507 -0.2975
45038W        W87951  13.468  17.210   7.835  0.3170  0.0404 -0.2421
45039W        W87952   1.894  22.949  21.227 -0.5417 -0.1166 -0.1305
45040W        W87953   4.926  25.887  20.436  0.2515  0.0307  0.2078
45041W        W87954  34.419  19.164  21.156  0.1038 -0.0714 -0.1397
45042W        W87955  16.547  12.449  28.202 -0.0194  0.2431  0.1773
45043W        W87956   7.815  27.377  20.513 -0.1255 -0.2964 -0.6550
45044W        W87957   8.412  31.201  29.746  0.1777 -0.1063  0.0184
45045W        W87958  16.773  15.993  28.896  0.2917 -0.1917  0.2570
45046W        W87959   8.761  17.521  17.168  0.4076  0.3017  0.3117
45047W        W87960  15.649  22.086   1.003 -0.1957  0.0724 -0.1074
45048W        W87961  30.512  24.331  28.979  0.1430 -0.0741 -0.3455
45049W        W87962  21.676  29.479  14.157  0.0977 -0.1417 -0.1069
45050W        W87963  14.147  20.687  21.968 -0.1743 -0.0314 -0.1266
45051W        W87964   6.099  21.757  17.609 -0.0524 -0.4694  0.1466
45052W        W87965  10.124  16.432   3.226  0.0377 -0.0359  0.1097
45053W        W87966  32.335  18.887  15.886  0.2265 -0.0544  0.1277
45054W        W87967  10.835  21.996  26.077  0.1635 -0.3047  0.3683
45055W        W87968   7.812  23.246  26.583  0.0393  0.1510 -0.0120
45056W        W87969  10.859  26.931   0.227  0.2177  0.1937  0.1221
45057W        W87970   8.623  15.622  14.033  0.1227  0.5362 -0.2091
45058W        W87971   5.730   7.778  23.999 -0.0538  0.0184  0.0454
45059W        W87972   8.063  25.607  16.910 -0.0643 -0.0736  0.2057
45060W        W87973   0.027  26.191  23.405  0.0318  0.2459 -0.2594
45061W        W87974  10.158  24.044  29.608  0.0139 -0.0863  0.0309
45062W        W87975   8.313  11.217  27.669 -0.2383 -0.0865 -0.2292
45063W        W87976   6.258  24.906  19.688  0.0391  0.1274  0.0118
45064W        W87977   8.464  12.050   0.518 -0.2937 -0.2296  0.0868
45065W        W87978   4.471  22.271  18.344 -0.2663  0.1153 -0.1430
45066W        W87979   9.228  20.137  14.090 -0.1369 -0.5626  0.0619
45067W        W87980  13.796  22.929   2.299  0.2049 -0.1162 -0.1004
45068W        W87981   6.432  12.317  16.941  0.2278  0.0490  0.1190
45069W        W87982  11.869  17.444  28.180 -0.0219  0.1030 -0.2854
45070W        W87983  12.210  22.397   1.132  0.2118  0.0310 -0.0026
45071W        W87984   8.299   2.277  29.511  0.1089 -0.1054 -0.2281
45072W        W87985  31.325  18.169  17.746  0.2633  0.1594  0.1668
45073W        W87986   5.619  23.730  15.993 -0.0488  0.0953 -0.2341
45074W        W87987  13.208  17.006  28.266 -0.3024  0.0285 -0.2002
45075W        W87988   3.166  14.922  13.921  0.2428 -0.0067 -0.0767
45076W        W87989   7.312  22.285  21.682 -0.1449 -0.1558  0.2284
45077W        W87990   4.731  26.212  22.004  0.2138  0.0050  0.2796
45078W        W87991   6.848  18.324  16.566  0.0450 -0.0711  0.5127
45079W        W87992  20.609  29.190  20.707 -0.0981  0.2148 -0.1999
45080W        W87993  11.911  10.201  27.578  0.4577  0.0443 -0.1332
45081W        W87994   2.859  21.494  28.489 -0.1169  0.1413 -0.1039
45082W        W87995  27.925  22.981  22.258 -0.0042 -0.3267  0.1631
45083W        W87996   6.453  19.846  17.829 -0.1121  0.0226 -0.1005
45084W        W87997  11.073  10.150  25.746 -0.1416 -0.2402 -0.2910
45085W        W87998   7.807  13.612  22.147  0.0375 -0.2261 -0.0756
45086W        W87999  11.787  15.270  22.135 -0.1861  0.0053 -0.0701
45087W        W88000  10.574  14.404  26.556 -0.0017 -0.1693  0.0281
45088W        W88001  14.111  16.014  23.386  0.0699  0.1367 -0.0973
45089W        W88002  10.044  21.288  23.406  0.0716  0.1590  0.0893
45090W        W88003   8.379  15.897  13.608 -0.2483  0.2675  0.1943
45091W        W88004  13.886  28.799  22.809 -0.1130 -0.0776  0.0790
45092W        W88005  15.488  13.007   0.435 -0.0664 -0.0342  0.0790
45093W        W88006   4.637  17.305  26.768  0.0275 -0.1858 -0.0989
45094W        W88007  23.186  16.601  19.575  0.1001  0.0170 -0.0566
45095W        W88008  10.895   8.190  27.205  0.3024 -0.2546 -0.1913
45096W        W88009  32.168  14.737  26.870  0.0680  0.1596  0.2690
45097W        W88010   5.794  25.148  14.307 -0.1719  0.1047  0.1796
45098W        W88011  33.665  33.508   4.474  0.3994  0.0685  0.0399
45099W        W88012   1.833  16.206  21.362  0.3339  0.0391 -0.2770
45100W        W88013  14.033  10.178   7.699 -0.1811  0.1006 -0.2286
45101W        W88014  18.601  19.621  15.318 -0.3201  0.0048 -0.0126
45102W        W88015  12.588  27.760  20.198 -0.1271  0.0587 -0.0133
45103W        W88016  16.428  31.953  20.317  0.0763  0.2156  0.0695
45104W        W88017  19.090   9.821  24.820 -0.0671 -0.0093 -0.4130
45105W        W88018  12.198  22.061  12.794  0.1441 -0.0277  0.0402
45106W        W88019   5.001  29.790  16.334  0.0955 -0.1812 -0.0203
45107W        W88020   4.245   7.181  22.037  0.0585  0.0726 -0.2364
45108W        W88021   4.467  31.514   0.883 -0.2193 -0.1825  0.2287
45109W        W88022   5.085  11.202  19.193 -0.0274  0.1021  0.0919
45110W        W88023  16.766  33.863  23.568  0.0068 -0.0318 -0.2238
45111W        W88024  14.319  16.159  14.929 -0.1549  0.1095 -0.0908
45112W        W88025   2.732  13.973  20.216 -0.1610  0.1782  0.0557
45113W        W88026  11.722  28.593  28.050  0.1355 -0.0354  0.2178
45114W        W88027   8.411  12.075   2.969 -0.0257 -0.1659 -0.2750
45115W        W88028  11.224   3.782  28.825 -0.0394  0.3504  0.0466
45116W        W88029  12.263  18.877  22.772  0.3177  0.1274 -0.3997
45117W        W88030   2.922  17.850  21.935  0.1108  0.0228 -0.0459
45118W        W88031   4.679  14.344  19.632 -0.2980  0.3490  0.0236
45119W        W88032  33.623  31.253  18.465  0.0922  0.1181  0.0335
45120W        W88033   3.418  17.395  22.064  0.3223  0.0199  0.1403
45121W        W88034   6.523  20.469  19.694  0.2777  0.1696 -0.0468
45122W        W88035   8.979  10.399  24.578  0.0964  0.1280  0.2343
45123W        W88036   9.987  27.806  26.725  0.1325 -0.1513  0.0353
45124W        W88037   0.994  23.597  17.547 -0.1865 -0.4835 -0.2624
45125W        W88038  12.382  15.269  25.989  0.0303 -0.0586  0.1244
45126W        W88039   4.206  17.649  25.786 -0.0486  0.0192  0.0716
45127W        W88040  11.280  11.312  25.982  0.3850  0.1859 -0.2796
45128W        W88041   4.284  19.875  23.807 -0.0628  0.0064  0.1199
45129W        W88042   8.590  20.132   6.713 -0.0745  0.0884 -0.0433
45130W        W88043  30.210  18.151  23.233 -0.1292 -0.0551  0.0786
45131W        W88044  11.185  28.020  19.629  0.1188  0.0751  0.0662
45132W        W88045   7.944  26.238  18.763 -0.0425  0.0110 -0.0872
45133W        W88046   8.451  25.521  15.373 -0.0494  0.1143  0.0381
45134W        W88047   8.591  18.858  19.084  0.0446  0.2739  0.1475
45135W        W88048   5.481  25.258  22.581 -0.4166  0.1010 -0.0733
45136W        W88049   5.594  18.698  23.184  0.2276 -0.3062  0.0012
45137W        W88050  34.447  16.311  19.941 -0.0412  0.0854  0.0117
45138W        W88051  20.162   4.621  22.103 -0.0793  0.2148 -0.0853
45139W        W88052  23.198  21.920  16.251 -0.0925  0.4116 -0.0703
45140W        W88053   5.458   8.901  26.299 -0.1020 -0.0210 -0.0634
45141W        W88054   5.171   9.151  18.114  0.1480  0.0956 -0.0051
45142W        W88055  11.262  27.211  20.954  0.0310 -0.1302 -0.1002
45143W        W88056   7.330  20.415  20.881  0.0330 -0.0528  0.1461
45144W        W88057   7.110  32.683   6.752 -0.1111 -0.0065  0.0740
45145W        W88058  18.041  19.272  25.964  0.2448 -0.0705 -0.0991
45146W        W88059   2.120  24.111   4.950 -0.3586 -0.1709  0.0310
45147W        W88060   6.924  21.305  19.216  0.0331 -0.1380  0.0406
45148W        W88061   0.082  33.813  25.403  0.0915 -0.0641  0.3596
45149W        W88062  10.509  24.171  18.620  0.0034  0.0734  0.4874
45150W        W88063   8.525   8.450  20.783 -0.1486 -0.0247 -0.4486
45151W        W88064  13.946  18.821  22.836 -0.0241 -0.1712 -0.2385
45152W        W88065  12.890  18.013  20.954  0.1104  0.0544 -0.0515
45153W        W88066  11.779  18.841  16.824  0.1959 -0.3657  0.1611
45154W        W88067   7.722  29.519  24.935 -0.4721  0.1792  0.2578
45155W        W88068   5.525  22.255  27.936 -0.3316 -0.0542 -0.1275
45156W        W88069  33.914  24.527   1.095  0.3126 -0.2337 -0.0327
45157W        W88070   6.770  24.611  17.644  0.0300  0.2604 -0.3978
45158W        W88071  18.186  18.244  25.714 -0.1111 -0.0985 -0.0149
45159W        W88072  10.010  21.075  19.170 -0.0008 -0.0935  0.1417
45160W        W88073  12.085  19.189  23.213  0.1513 -0.0060 -0.0266
45161W        W88074  16.432  14.503  13.142  0.0664 -0.1600 -0.0767
45162W        W88075  13.618  27.481  18.968 -0.0147 -0.0689  0.0011
45163W        W88076  17.247  28.872  20.533 -0.0235 -0.2056 -0.1277
45164W        W88077  11.930  19.468  14.253 -0.3556 -0.1319  0.0946
45165W        W88078  10.686  29.282  16.623 -0.2090 -0.3303 -0.0748
45166W        W88079   2.208  23.298  29.762 -0.0677  0.5155 -0.3543
45167W        W88080   5.652  18.328   1.385  0.1549 -0.0390  0.2947
45168W        W88081  29.943  13.805  24.353 -0.1229 -0.3358 -0.0245
45169W        W88082   0.260  30.695  15.835 -0.1345  0.0332  0.3296
45170W        W88083   6.647  24.398   1.223  0.0350  0.1039 -0.3446
45171W        W88084   4.893  16.727   4.431  0.3028 -0.0584 -0.0629
45172W        W88085   7.451  18.266  29.446  0.1737  0.0289  0.1368
45173W        W88086   5.205  25.563  25.021  0.3272  0.0949  0.1950
45174W        W88087   3.734  15.975  18.673  0.0082 -0.1875  0.0126
45175W        W88088  25.424  15.510  15.067  0.3854  0.0983 -0.0118
45176W        W88089  12.755  17.693  23.102 -0.0164  0.0417  0.0281
45177W        W88090  10.005  20.500  18.338  0.0085  0.1112 -0.1125
45178W        W88091   5.083  19.393  25.178  0.0397 -0.2241  0.1068
45179W        W88092   4.973  23.354   2.246  0.3201  0.0398  0.0964
45180W        W88093   3.375  21.496  18.155  0.1443  0.0702  0.1999
45181W        W88094   8.344  18.281   8.610  0.0471  0.0667  0.1470
45182W        W88095  13.392  24.196  18.892  0.0833  0.0138 -0.1471
45183W        W88096  13.443  22.402  18.054  0.4591 -0.1725 -0.1801
45184W        W88097  15.133  22.769  22.629 -0.0700 -0.2486  0.2717
45185W        W88098   6.278   9.905  23.164 -0.2525  0.1107 -0.4664
45186W        W88099  12.512   7.936  23.596 -0.0489  0.1513  0.2071
45187W        W88100  14.092  14.799  24.214 -0.0075  0.1276  0.1118
45188W        W88101  14.115   8.168  15.127  0.2330 -0.0336 -0.0501
45189W        W88102  13.433  18.152  23.905  0.0937  0.0399 -0.0588
45190W        W88103  20.837  27.830  19.153 -0.0594 -0.1151  0.0839
45191W        W88104   4.031  18.404   8.503 -0.2168  0.1746  0.2255
45192W        W88105  11.187  14.336  15.641 -0.0470 -0.3258 -0.0081
45193W        W88106  10.095   4.807  24.352  0.0519  0.0251 -0.1414
45194W        W88107   7.708  22.679  14.998 -0.1500  0.0289  0.2011
45195W        W88108   7.974  24.715  24.248 -0.3396  0.0334  0.1101
45196W        W88109  10.700   4.249  18.427 -0.2488  0.1911 -0.2080
45197W        W88110  11.952  15.617  14.384  0.0104  0.1143 -0.2115
45198W        W88111   0.172  15.003  18.008 -0.2025  0.0214 -0.1299
45199W        W88112  14.902  20.384  15.463  0.1959 -0.0565 -0.3062
45200W        W88113   6.020   6.630  23.181 -0.2639 -0.0684  0.0910
45201W        W88114   7.328  10.022  22.148 -0.0552  0.1231  0.0709
45202W        W88115   9.781  16.541  19.679  0.3011 -0.2347  0.1602
45203W        W88116  15.630  18.052  22.831  0.1051  0.0804 -0.1395
45204W        W88117   5.055   6.138   8.706 -0.1778  0.1769  0.3026
45205W        W88118   8.972  23.178  23.308  0.0984  0.2505 -0.1404
45206W        W88119   8.405  27.469  22.137 -0.1400 -0.1362 -0.1006
45207W        W88120  18.655  20.389  22.797  0.1812  0.3400 -0.2214
45208W        W88121   8.245  27.031  22.271  0.0657  0.1905  0.0033
45209W        W88122  13.702  24.826  25.961  0.0048  0.1050  0.0519
45210W        W88123  18.494  25.397  27.735  0.0014 -0.1376 -0.0733
45211W        W88124   8.889  25.436   0.482 -0.1947  0.1112  0.3469
45212W        W88125  15.869  21.450  21.197 -0.1645 -0.1707 -0.0678
45213W        W88126  11.637  25.749  17.466  0.1112 -0.0444 -0.0191
45214W        W88127   8.827  13.380  23.092  0.1996 -0.2545  0.4107
45215W        W88128   2.264  21.004  22.860  0.0670  0.2969  0.1689
45216W        W88129  11.895  31.823  19.786 -0.1128 -0.1248  0.0557
45217W        W88130  16.841  20.844   1.466 -0.0410 -0.2200  0.1126
45218W        W88131  12.618  10.770  20.532  0.0627 -0.0268  0.0204
45219W        W88132  15.610  31.647  18.892  0.2017  0.0022  0.0348
45220W        W88133  10.014  23.602  23.621  0.1611 -0.1089  0.3004
45221W        W88134   6.515  21.516  19.002 -0.2602  0.2373 -0.5406
45222W        W88135  23.666  17.587  26.056 -0.1617 -0.3328 -0.0966
45223W        W88136   8.081  27.613  26.708 -0.0077 -0.1095  0.0025
45224W        W88137  14.047  17.514  28.084 -0.0663  0.1107  0.7453
45225W        W88138   1.186  19.842  19.054 -0.1330 -0.0965 -0.1847
45226W        W88139  12.115  31.462  21.767  0.3081  0.0536  0.1922
45227W        W88140   6.143  17.475  16.123  0.0587 -0.0722 -0.1311
45228W        W88141   2.421  29.325  17.193  0.0546  0.5009  0.2576
45229W        W88142   8.728  23.153  23.795  0.1542 -0.1839  0.1661
45230W        W88143  31.970  17.920  14.237 -0.0724 -0.1562  0.2517
45231W        W88144   7.056  18.884  27.764 -0.0536 -0.2168  0.0914
45232W        W88145   7.191  16.699  17.802  0.0866 -0.1518  0.1579
45233W        W88146  12.984  17.389  20.983 -0.1475 -0.0098  0.0612
45234W        W88147  15.433  23.844  21.394  0.1283 -0.2076 -0.1599
45235W        W88148   7.432  27.742   5.581 -0.2322  0.0204 -0.0329
45236W        W88149  16.133  13.558  25.300 -0.4971  0.0010 -0.3213
45237W        W88150  27.143   0.912  26.755 -0.0758  0.1525  0.0274
45238W        W88151   4.169  26.053  17.249  0.1666  0.1881  0.0122
45239W        W88152   8.345  21.480  18.361  0.0729 -0.2956 -0.2973
45240W        W88153  12.918  16.843  23.806 -0.1249  0.0069  0.0844
45241W        W88154   9.206  16.140  19.320  0.1142  0.3546  0.2544
45242W        W88155  12.734  18.517  17.553 -0.0307  0.0927  0.1955
45243W        W88156   9.772  20.688  16.902  0.0268  0.0751  0.1595
45244W        W88157  18.693  30.146  26.053  0.1244  0.2509 -0.1045
45245W        W88158   7.446  24.147  17.582  0.2305  0.3540  0.0493
45246W        W88159  10.870  29.308  28.966 -0.1186  0.4000 -0.1139
45247W        W88160   9.119  12.657   0.061 -0.0324 -0.0288 -0.1623
45248W        W88161   3.667  16.461   0.323 -0.4546  0.1606 -0.0938
45249W        W88162  11.319  10.045  21.555  0.0027  0.2197  0.1155
45250W        W88163  15.696  31.982  18.149 -0.0164 -0.0852  0.0424
45251W        W88164  17.110  22.830  19.435  0.4590  0.0615 -0.1194
45252W        W88165  10.855  20.637  27.338  0.1309  0.1290  0.2988
45253W        W88166   4.162  10.656  18.009 -0.1989 -0.0755 -0.0657
45254W        W88167   6.313  12.705  26.300 -0.0556 -0.0092  0.0434
45255W        W88168   4.584  22.193  25.090  0.0806  0.1343 -0.3282
45256W        W88169  21.933  20.594  13.692  0.0857  0.5083 -0.1405
45257W        W88170  13.215  16.429  25.100  0.0697 -0.1358  0.0022
45258W        W88171   1.885  28.526  27.082 -0.3128 -0.0246  0.0137
45259W        W88172  11.889  18.983  24.392 -0.0787 -0.0063  0.0462
45260W        W88173   7.809  20.100  21.234  0.0137 -0.0927 -0.0374
45261W        W88174   4.419  31.471  27.418 -0.3123  0.0296  0.1070
45262W        W88175   1.899  20.625  25.385  0.0773  0.1686  0.1335
45263W        W88176   5.726  14.148  23.043  0.0707  0.3200  0.2630
45264W        W88177   8.675  21.095  28.459 -0.1012 -0.0382 -0.0402
45265W        W88178   2.478  18.509  27.165 -0.2223 -0.0943  0.2870
45266W        W88179  16.995  13.641  17.444  0.0091  0.1015  0.0332
45267W        W88180  10.891  30.690  23.689  0.1554  0.1061  0.1782
45268W        W88181  12.361  17.471  23.479 -0.1832  0.2716 -0.0591
45269W        W88182   4.118  21.565  21.892  0.0656  0.2504  0.1674
45270W        W88183  30.395  28.563  23.747  0.1907 -0.1881 -0.0381
45271W        W88184  32.128  15.842  19.433  0.0928 -0.0777  0.2654
45272W        W88185  18.293  24.015   8.672 -0.0650 -0.1493  0.1841
45273W        W88186   6.304  25.967  15.017  0.0997  0.0220  0.3021
45274W        W88187   6.097  18.567  23.513  0.2389  0.0611 -0.1729
45275W        W88188   9.144  18.416  16.329  0.0235 -0.2762 -0.0582
45276W        W88189   6.135  17.068  28.814 -0.3681 -0.1010 -0.0836
45277W        W88190  15.173  24.548  26.279 -0.3204  0.1303  0.1058
45278W        W88191   4.983  22.692  14.717  0.1971  0.1737  0.1654
45279W        W88192   6.987  21.910  20.939  0.0318  0.2926  0.2020
45280W        W88193   9.511  30.108  16.920  0.1151 -0.3989  0.3316
45281W        W88194  21.820  22.850  20.993 -0.0422  0.1252 -0.2577
45282W        W88195   4.441  21.267  25.499 -0.1081 -0.3450 -0.0310
45283W        W88196  16.235  29.003  26.273 -0.4370 -0.0268  0.0753
45284W        W88197  11.474   8.281  28.982 -0.3139  0.1709  0.1320
45285W        W88198   7.574  25.781  20.801 -0.0930  0.1123  0.0201
45286W        W88199  10.074  15.747   4.482 -0.3236  0.1387  0.0517
45287W        W88200  13.223  30.876  10.196 -0.0781 -0.0661 -0.0134
45288W        W88201  14.148  27.404  17.201  0.0936 -0.2449 -0.0029
45289W        W88202  32.455  22.381  21.912  0.3532  0.2710  0.0127
45290W        W88203   1.383  13.244   0.656 -0.0402 -0.0888 -0.0955
45291W        W88204   5.385  22.399  24.738 -0.0463  0.0762 -0.0801
45292W        W88205  12.949  25.945  14.984 -0.2071 -0.0995  0.2793
45293W        W88206  20.114   1.815  19.699  0.0770 -0.0491 -0.1208
45294W        W88207   0.365  26.174  17.006  0.0819 -0.3433 -0.2484
45295W        W88208  20.420  22.826  15.936  0.0084 -0.1293  0.0834
45296W        W88209   8.513  21.705  26.067  0.1565  0.1097  0.0973
45297W        W88210  13.111  14.226  21.033  0.1403 -0.2196 -0.0193
45298W        W88211   6.729   8.779  17.871 -0.1864  0.3156  0.1422
45299W        W88212   3.709  11.314  28.366  0.0321  0.3121  0.0116
45300W        W88213  22.763  10.189   2.636 -0.0736 -0.1402  0.2513
45301W        W88214  34.271  14.644   2.689 -0.4015  0.0176  0.2818
45302W        W88215  13.674  12.655   1.779 -0.2975 -0.0983 -0.2339
45303W        W88216  31.659  29.763   0.340 -0.1016 -0.0458 -0.1987
45304W        W88217  12.441  23.327  23.964  0.0023 -0.0547  0.0083
45305W        W88218  15.914  17.504   0.567 -0.0383 -0.1073  0.2001
45306W        W88219  11.211  18.721  28.053 -0.4266  0.1191 -0.1648
45307W        W88220   9.935  17.968   6.641  0.2174  0.0220 -0.1422
45308W        W88221   9.146  34.466  21.079 -0.0133 -0.0607  0.0440
45309W        W88222   3.121  17.389   6.555 -0.3095  0.1224 -0.1822
45310W        W88223  13.678  20.486   6.351 -0.0693  0.0916  0.0357
45311W        W88224  15.541  16.622  29.384  0.2185 -0.1691 -0.1440
45312W        W88225   6.707  21.594  29.044  0.0203 -0.0696  0.2570
45313W        W88226  10.037  15.385   1.478 -0.3296 -0.1663  0.2524
45314W        W88227  33.029  21.960  27.125 -0.1039 -0.1401 -0.2137
45315W        W88228  24.697  14.222   7.552 -0.1227 -0.0366 -0.1211
45316W        W88229  14.262  18.354  21.189 -0.3264 -0.2760  0.2274
45317W        W88230  13.092  17.872  19.260 -0.0567  0.1473  0.1223
45318W        W88231  19.700  14.249  27.001 -0.3738 -0.1542 -0.2305
45319W        W88232  11.627  19.065  17.270 -0.2340 -0.0192 -0.1172
45320W        W88233   7.880  28.889   2.443 -0.4097 -0.2813  0.1073
45321W        W88234   6.759  17.255  21.033 -0.0479  0.3553  0.1465
45322W        W88235  12.412  27.622   1.274  0.1336 -0.1875  0.0135
45323W        W88236  12.865  12.477  27.170  0.1014 -0.2661 -0.0430
45324W        W88237  13.193  18.810  24.424  0.3228  0.1404 -0.0849
45325W        W88238   4.234   0.915   3.933  0.2148  0.0994  0.2503
45326W        W88239  13.289  22.282  27.124 -0.1118  0.2818  0.1862
45327W        W88240   7.671  21.962   2.512 -0.0425 -0.0704 -0.0008
45328W        W88241   4.031  20.801  28.121 -0.0736  0.4213 -0.4015
45329W        W88242  10.222  24.403  21.327  0.1292 -0.0930  0.0128
45330W        W88243  28.441  28.030  21.432 -0.2678 -0.0065  0.0798
45331W        W88244  15.491  13.131   2.931  0.3271  0.0046  0.1687
45332W        W88245  27.806  19.624   1.460 -0.1058  0.0697 -0.0866
45333W        W88246  12.729  10.167  28.906 -0.0929 -0.0985 -0.1738
45334W        W88247  14.383  24.401   9.327 -0.0048 -0.4979 -0.1252
45335W        W88248   8.755  27.784  27.951 -0.0879 -0.2242 -0.1529
45336W        W88249   2.787  31.062   7.558  0.0187  0.2423  0.0483
45337W        W88250   1.681  19.198  17.871 -0.0689 -0.1126 -0.1512
45338W        W88251   4.400  25.487   4.246 -0.0675 -0.0588 -0.2917
45339W        W88252  17.811  25.522   1.422 -0.1481  0.0324 -0.1020
45340W        W88253  10.999  28.164   6.100 -0.1004  0.2093  0.1062
45341W        W88254   8.038  16.134  27.895  0.0009 -0.0118  0.0150
45342W        W88255  12.388  19.008  29.642 -0.1875 -0.1872 -0.1115
45343W        W88256   5.392  26.795  23.053 -0.4731 -0.1736  0.3501
45344W        W88257   6.040  18.705   0.964 -0.0234  0.1608  0.1419
45345W        W88258  32.658  10.391   0.500  0.0737 -0.3051 -0.2911
45346W        W88259   2.483  23.361   5.245 -0.3798  0.0530 -0.0404
45347W        W88260   3.811  25.742  19.509  0.1917 -0.0214 -0.1104
45348W        W88261   7.850  12.886  28.575  0.0190 -0.2694 -0.4746
45349W        W88262   9.073  14.603  24.223 -0.0395 -0.2984 -0.0434
45350W        W88263   0.194  16.589  25.399 -0.2276 -0.0712 -0.3169
45351W        W88264  11.168   9.980  19.783 -0.0868  0.2464 -0.1181
45352W        W88265   8.484  22.123  28.760  0.2044  0.1412  0.2565
45353W        W88266   0.230  22.399   2.411 -0.1705  0.1554  0.2311
45354W        W88267  26.209  25.509   6.863 -0.3138  0.0276 -0.3346
45355W        W88268   9.552  17.510  16.322  0.0138 -0.0942 -0.0035
45356W        W88269   3.482  23.259   0.119 -0.2444 -0.0741  0.0697
45357W        W88270  28.267  25.346   2.087  0.0757 -0.2368 -0.1854
45358W        W88271   2.292  16.079  23.982 -0.0606  0.1020 -0.0691
45359W        W88272   1.879  26.418  21.957  0.0012  0.0450 -0.0627
45360W        W88273  11.076  20.788  28.813  0.1967  0.1401  0.0468
45361W        W88274   8.693  18.030  19.819 -0.1306  0.1265 -0.1921
45362W        W88275   7.852  30.643  24.002  0.1820 -0.2758  0.4065
45363W        W88276  33.282  33.926  17.949 -0.1473  0.1641  0.0642
45364W        W88277  11.521  17.294  27.771 -0.1277 -0.1402 -0.0284
45365W        W88278   0.350  15.197   0.352 -0.1587 -0.3133 -0.3822
45366W        W88279   5.681  29.580   3.188  0.1218  0.2654  0.1446
45367W        W88280   6.307  18.173   5.217  0.1323 -0.2168 -0.0072
45368W        W88281   7.516  21.935  22.229  0.1780  0.2187 -0.3434
45369W        W88282   5.952  24.932   4.706  0.1783  0.0871 -0.0483
45370W        W88283  12.980  21.193   4.931 -0.0509  0.1505 -0.3263
45371W        W88284   4.923  26.088  27.631  0.0135  0.0950  0.0086
45372W        W88285   6.043  14.618  26.830  0.0124 -0.0707  0.2198
45373W        W88286  16.044  23.211   5.164 -0.0787 -0.0414  0.1512
45374W        W88287  14.675  20.406  19.677  0.0884 -0.1924 -0.0499
45375W        W88288  15.316  17.350  25.513  0.0298 -0.0704  0.3250
45376W        W88289  13.353   0.572   2.752 -0.0199  0.1235  0.0701
45377W        W88290   1.934  18.112  26.268 -0.1208  0.2176  0.0069
45378W        W88291  31.838  22.701  27.819 -0.1358  0.1062 -0.0142
45379W        W88292  17.772  12.943  29.479  0.2877 -0.3333  0.0890
45380W        W88293   8.711  24.920   7.778  0.0445 -0.1921 -0.0536
45381W        W88294   7.322  26.939  24.733  0.0196 -0.1715 -0.0327
45382W        W88295   5.910  17.826  26.831  0.0922 -0.0428  0.1069
45383W        W88296   5.364  26.986  19.042  0.1176 -0.0786 -0.0527
45384W        W88297  32.356  29.930  26.065 -0.0773  0.0027  0.0320
45385W        W88298   3.764  19.936  29.664  0.0862  0.0816  0.0422
45386W        W88299  21.532  11.433  25.742  0.1041 -0.1341  0.1335
45387W        W88300   4.460  17.384   4.564  0.1291  0.1834  0.0124
45388W        W88301  17.532  11.529  28.912  0.0856 -0.2720 -0.0658
45389W        W88302   5.329  12.987   1.440  0.0587 -0.0948 -0.2334
45390W        W88303  13.739  26.870  24.151 -0.1393 -0.2697 -0.0825
45391W        W88304   7.044  18.894   6.382  0.2588  0.0539  0.2632
45392W        W88305  27.037  28.099  19.376  0.0086 -0.0300 -0.0047
45393W        W88306  32.165  31.020  28.393  0.2293  0.0310 -0.2752
45394W        W88307  34.170  20.225  29.150 -0.2847  0.0621 -0.2962
45395W        W88308   6.346  20.875   2.193  0.0370 -0.0942 -0.1132
45396W        W88309  18.542   4.690  23.797 -0.1715  0.1332  0.0770
45397W        W88310   7.056  16.978   2.220 -0.1193 -0.0641 -0.0241
45398W        W88311   3.039  19.341  28.316 -0.0591 -0.0555  0.0826
45399W        W88312   0.415  19.171  27.082 -0.0292 -0.2836 -0.1603
45400W        W88313  28.652  23.260   0.670  0.4902  0.2318 -0.1173
45401W        W88314  10.613  21.796  29.214  0.0392  0.0205  0.0692
45402W        W88315   6.098  27.210  27.013  0.3494 -0.2389 -0.1384
45403W        W88316  10.266  21.676  26.732 -0.0641  0.2217 -0.0491
45404W        W88317  11.928  28.026  27.312  0.2709  0.0785 -0.0830
45405W        W88318  17.154  20.354  28.802  0.1358 -0.2107 -0.0772
45406W        W88319   5.065  19.914   2.240  0.2313 -0.1558 -0.2494
45407W        W88320  17.529  17.692   3.186 -0.3716 -0.1148 -0.1114
45408W        W88321   6.366  15.907  25.636 -0.0370  0.1174 -0.0806
45409W        W88322   9.208  20.082  27.803  0.0597 -0.2847 -0.1117
45410W        W88323   4.620  25.094   2.034 -0.2250  0.1506  0.1949
45411W        W88324   6.293  14.387  26.469  0.5232 -0.1831  0.0452
45412W        W88325  10.363   0.915   1.190  0.1347 -0.1735 -0.1243
45413W        W88326  32.359  23.408   3.129 -0.0814  0.1609 -0.0600
45414W        W88327  16.614  19.490  29.398 -0.1310 -0.1077 -0.0469
45415W        W88328  16.617  20.114  22.430  0.2703  0.2314  0.0014
45416W        W88329  20.675  23.511   3.593 -0.3044  0.0681  0.1294
45417W        W88330   5.832  22.723  29.110  0.1120 -0.2746  0.0623
45418W        W88331  32.512  32.797   4.214 -0.2893 -0.3129  0.0126
45419W        W88332   7.143  19.705   4.829  0.0660  0.1176 -0.2467
45420W        W88333  13.049  11.372  23.594 -0.0068  0.0055  0.0633
45421W        W88334   0.679  19.866  22.052 -0.2108 -0.0013  0.0706
45422W        W88335   5.834  24.841  20.983 -0.1089  0.3273  0.2727
45423W        W88336  14.856  19.446   2.746 -0.0006  0.5282  0.0631
45424W        W88337   5.344  14.571  20.288 -0.1279  0.0303 -0.0398
45425W        W88338   1.200  27.514   2.187  0.0627 -0.0124 -0.0903
45426W        W88339   5.573  12.344  22.807 -0.2379 -0.0620  0.0438
45427W        W88340   4.468  10.080  24.638  0.0716 -0.0671 -0.0540
45428W        W88341  10.527  17.974   4.925 -0.0178  0.0949  0.2049
45429W        W88342  11.106  22.022   2.477 -0.1611  0.1128  0.4052
45430W        W88343  11.724  19.523  27.594  0.3418 -0.2210  0.1193
45431W        W88344   4.813  31.174  18.055 -0.0753 -0.0972 -0.1855
45432W        W88345   3.579  15.734  27.090  0.1671 -0.0712  0.2092
45433W        W88346   7.376  21.069  25.600 -0.3943  0.1871 -0.0065
45434W        W88347   8.001  25.888  20.244 -0.0544 -0.4156  0.2429
45435W        W88348  32.665  29.040   7.141 -0.1749 -0.1687 -0.1015
45436W        W88349  10.488  12.714  21.333 -0.1376  0.0506  0.2518
45437W        W88350  12.554  20.360  18.046  0.0331 -0.0834  0.0313
45438W        W88351   5.626  18.995  21.130 -0.1604 -0.1170 -0.0741
45439W        W88352  12.013  16.305   1.162  0.0905 -0.0601  0.1558
45440W        W88353   7.328  27.879   7.718  0.1184 -0.3400 -0.3888
45441W        W88354   2.950  10.923   2.561  0.2059 -0.1071 -0.0471
45442W        W88355  11.835  11.482  19.396  0.1881  0.0966 -0.0537
45443W        W88356   6.717  22.906   0.886  0.0110 -0.0714  0.0074
45444W        W88357   5.191  18.563   1.252 -0.0049 -0.2096 -0.0781
45445W        W88358   2.115  26.721  17.435  0.0949 -0.1893  0.3227
45446W        W88359   6.136   1.370  22.122  0.2172 -0.1760  0.1328
45447W        W88360  11.893  14.481   2.422  0.1888 -0.2314  0.1148
45448W        W88361  13.168   9.118  26.024  0.0573 -0.0962  0.1766
45449W        W88362  12.796  20.623  16.997 -0.0979 -0.1426 -0.0137
45450W        W88363  15.695  16.222  26.191 -0.0086  0.2513  0.2442
45451W        W88364  12.069  12.977  26.327 -0.0902  0.0559  0.0536
45452W        W88365   2.229   8.425   0.965  0.2197  0.2083  0.0916
45453W        W88366  30.260  24.681   2.793  0.0693 -0.0560 -0.0258
45454W        W88367  18.038  13.925   2.222  0.1813  0.0411 -0.3150
45455W        W88368  31.188  11.868   6.580 -0.1800 -0.1829  0.1992
45456W        W88369   9.895  25.561   0.573 -0.0202 -0.3678 -0.2975
45457W        W88370  16.026  24.023   5.206 -0.0161  0.1086 -0.1402
45458W        W88371   7.707  20.730  25.899  0.0244 -0.0473  0.2838
45459W        W88372   8.222  16.528   1.348 -0.0103  0.0974  0.0377
45460W        W88373   2.843  15.581  27.101  0.3158 -0.1762  0.2432
45461W        W88374   9.006  15.590   2.706  0.1167 -0.0276  0.1413
45462W        W88375  19.513   5.960  21.218 -0.0120  0.2348 -0.2505
45463W        W88376  11.307  21.435  27.671 -0.2249  0.1036  0.1941
45464W        W88377   3.193   1.828   2.522  0.0760  0.0302 -0.3799
45465W        W88378  11.426  24.071  27.697 -0.1318  0.2983  0.1590
45466W        W88379   4.841  21.904  18.583 -0.1619  0.0648  0.2243
45467W        W88380   8.179  26.449   0.706 -0.1419  0.2083 -0.1651
45468W        W88381  12.648  16.636  25.683 -0.2036 -0.1116 -0.1363
45469W        W88382  31.031  24.901  21.017  0.0199  0.0352 -0.0344
45470W        W88383  12.793  21.817   2.966 -0.0848  0.1841  0.1941
45471W        W88384  34.190  29.450  28.178  0.0962 -0.0271  0.0478
45472W        W88385   9.773   8.800   8.194 -0.1444  0.0690  0.1350
45473W        W88386   6.702  16.710  24.069 -0.1603 -0.1203 -0.1677
45474W        W88387  10.996  10.265  28.522  0.1493  0.1410 -0.0081
45475W        W88388   4.842  21.735   2.031 -0.2285 -0.1596  0.0620
45476W        W88389  10.463  14.879  18.456 -0.0383 -0.0292 -0.1626
45477W        W88390   2.611  17.237  25.353 -0.2166  0.0333  0.0286
45478W        W88391  34.129  17.844  22.085 -0.2024  0.1596 -0.0508
45479W        W88392  11.555  10.929  28.508  0.1690  0.0549  0.1439
45480W        W88393  13.901  27.823  29.052  0.0650 -0.1570  0.0837
45481W        W88394  17.240  15.357   5.102 -0.0361 -0.0619 -0.1615
45482W        W88395  34.041   9.652  25.632  0.0701 -0.0850  0.0436
45483W        W88396  11.424  16.728   4.280  0.2490 -0.2137  0.2780
45484W        W88397  31.210  21.437   4.157 -0.1067  0.1411  0.0592
45485W        W88398  12.402  26.069   4.784 -0.1870 -0.4557 -0.2555
45486W        W88399  30.002  10.684   6.474 -0.2469  0.2915 -0.1867
45487W        W88400   9.534  15.673  21.577  0.0738 -0.1567  0.0152
45488W        W88401  10.700   7.590  27.621  0.1570 -0.0523 -0.1270
45489W        W88402  15.069  17.916  28.836  0.1564 -0.0126  0.2101
45490W        W88403  32.253  24.595  23.008  0.5229  0.0050  0.0825
45491W        W88404   6.116  17.439   2.128 -0.0672  0.0018 -0.3543
45492W        W88405   8.659  21.940   0.945  0.0887 -0.0196 -0.1423
45493W        W88406  13.492  14.256  23.110  0.0748  0.3732  0.1874
45494W        W88407  15.673  19.204  27.050  0.0898 -0.0724  0.0854
45495W        W88408  10.142  31.812  16.964  0.0095  0.2780 -0.1435
45496W        W88409   5.767  32.396   2.361  0.0289  0.0415  0.0630
45497W        W88410   9.509  13.661  25.215  0.0367  0.0743 -0.2974
45498W        W88411  28.980  30.869   1.382  0.1439 -0.1948  0.0699
45499W        W88412   3.690  13.778   1.284 -0.1659  0.2523  0.2584
45500W        W88413   9.595  23.787   9.103 -0.1531 -0.1503  0.3364
45501W        W88414   1.680  28.049  27.762  0.0598  0.1494  0.0718
45502W        W88415  17.162  22.249   4.030 -0.3939  0.1664 -0.0107
45503W        W88416   9.948  15.141  22.952  0.2467 -0.0945 -0.2151
45504W        W88417   5.397  13.179  27.347  0.0603  0.3861  0.0853
45505W        W88418  12.928  15.257  25.934 -0.2144 -0.0106 -0.4597
45506W        W88419   3.069  21.105  25.192  0.2759 -0.1052  0.1117
45507W        W88420  11.629  23.719  24.865 -0.0252 -0.0983 -0.0630
45508W        W88421  14.131  20.520  22.809 -0.1684  0.0292 -0.0399
45509W        W88422  21.538  16.608  20.915 -0.2037 -0.1091 -0.0365
45510W        W88423   1.783  22.676   8.131  0.1750  0.2168  0.0319
45511W        W88424  19.436  12.930   3.947 -0.2295  0.0642  0.1172
45512W        W88425  14.273  10.127  14.823  0.1725  0.0760  0.0698
45513W        W88426  14.874  18.768   5.386  0.2369  0.2817  0.3314
45514W        W88427   8.861  23.549  29.006 -0.2856  0.1257 -0.1704
45515W        W88428   9.757  21.933  21.218  0.1350  0.1903 -0.0370
45516W        W88429  14.620  17.372  13.388  0.0117  0.0130  0.0057
45517W        W88430   8.407  20.807  19.952 -0.0422  0.0600  0.0913
45518W        W88431   9.656  14.297  18.553 -0.1139 -0.1439 -0.2731
45519W        W88432   9.879  19.091   0.333  0.2458  0.0971  0.1313
45520W        W88433  14.020  13.312   4.385 -0.2134 -0.2289  0.0562
45521W        W88434   8.110  18.168  27.530 -0.3158 -0.0451  0.0315
45522W        W88435   2.556  29.870  25.139 -0.1570  0.1705  0.2406
45523W        W88436   3.675   4.122  12.952 -0.0348 -0.3204  0.0771
45524W        W88437   1.875  10.696   2.806  0.1504 -0.0104 -0.0273
45525W        W88438   1.969  13.230   4.614  0.2372 -0.2096 -0.3154
45526W        W88439  32.340  23.828   0.514  0.0120  0.1154  0.2288
45527W        W88440   9.315  19.629   2.906 -0.2389  0.3160 -0.0195
45528W        W88441   1.697  15.950  24.274  0.1226  0.2678 -0.2004
45529W        W88442   0.072   9.695  26.477  0.1888 -0.1008  0.0494
45530W        W88443   6.154  13.657   2.828  0.0579 -0.0917 -0.0003
45531W        W88444  32.536  18.704  25.478 -0.0890  0.2886  0.2728
45532W        W88445   3.447  14.393  21.962  0.1030  0.1836  0.1544
45533W        W88446   5.067   8.796  24.590 -0.1108  0.1267 -0.2620
45534W        W88447  14.895  15.901   2.354  0.0611 -0.1025 -0.1364
45535W        W88448   8.388  23.035  26.396  0.4238 -0.3078 -0.1307
45536W        W88449  10.104  17.082   4.778  0.1481 -0.1937  0.0393
45537W        W88450   9.839  17.778  22.994  0.2248  0.1058 -0.0034
45538W        W88451   7.498  13.806  22.581  0.0833  0.2257  0.0971
45539W        W88452   9.242  17.824  20.056 -0.1785 -0.0035  0.1948
45540W        W88453  18.585  32.218   1.532  0.1773 -0.0404  0.0113
45541W        W88454  32.926  13.093  21.418 -0.3214  0.0399 -0.0958
45542W        W88455   9.477  17.493  20.760  0.0927 -0.2542 -0.3591
45543W        W88456   5.256  14.455   0.052  0.0550 -0.0405  0.1996
45544W        W88457  31.847  19.799  14.808  0.0003 -0.3028 -0.2303
45545W        W88458   3.260  30.376  29.334 -0.0084  0.3617  0.0369
45546W        W88459  11.925  15.314   0.558  0.0320 -0.0431  0.0662
45547W        W88460   1.874   4.258  26.914 -0.1153 -0.0625 -0.2364
45548W        W88461  10.562  18.124  21.884 -0.1256  0.0601  0.0361
45549W        W88462  18.355  18.266   7.464 -0.0818 -0.0661 -0.2004
45550W        W88463  10.005  13.423  22.794  0.0507 -0.2708  0.2674
45551W        W88464   6.985  20.113  26.909  0.1590 -0.2908 -0.1232
45552W        W88465   2.987  17.475   0.234 -0.0025  0.0322  0.2180
45553W        W88466   6.082  26.640   4.467  0.2019  0.2103  0.0922
45554W        W88467   2.814  32.966  29.773  0.1121 -0.1920  0.1739
45555W        W88468   6.522  21.928  27.383 -0.1307  0.1587  0.0711
45556W        W88469   7.342  16.701  25.930 -0.0622 -0.0222  0.1491
45557W        W88470   6.758   9.965   9.752  0.2000 -0.3868 -0.1356
45558W        W88471  17.858   4.660  18.521  0.2935 -0.1576  0.1891
45559W        W88472  10.209  21.635  27.566  0.1495  0.1213  0.0705
45560W        W88473  11.906  14.826  15.516  0.2723 -0.2388 -0.0614
45561W        W88474  31.317  25.153   8.461 -0.2538 -0.0101 -0.5989
45562W        W88475  12.164  28.723  29.174  0.4499 -0.0528 -0.2563
45563W        W88476  19.625  23.140  28.945 -0.3349  0.3361 -0.2965
45564W        W88477   3.781  26.009  15.330  0.3202 -0.2313  0.0011
45565W        W88478   7.720  19.152  17.553 -0.0355  0.3022  0.1435
45566W        W88479   3.725  29.476  27.126 -0.0998  0.2944 -0.0209
45567W        W88480  26.461  18.068  25.297 -0.1973  0.1773  0.0998
45568W        W88481   7.774   1.644  28.064 -0.2218  0.1749 -0.0600
45569W        W88482  12.435  21.334  22.563 -0.0600 -0.3241  0.2513
45570W        W88483  12.142  18.806   0.788  0.0442  0.1382 -0.0227
45571W        W88484  18.941  22.968   8.061 -0.0753 -0.4078 -0.0609
45572W        W88485   3.492  23.958  26.936 -0.1595 -0.4146  0.3627
45573W        W88486  10.730  16.899  28.245 -0.0145 -0.0822 -0.2579
45574W        W88487   5.666  30.675   6.806  0.1030  0.2189  0.1212
45575W        W88488  18.949  22.314  15.070  0.0171  0.2327 -0.1241
45576W        W88489  14.057  33.120  26.720 -0.1161 -0.0299  0.0136
45577W        W88490  10.073  19.588  22.480  0.2799 -0.3695 -0.1627
45578W        W88491  13.350  14.966   2.581 -0.0645 -0.0882 -0.4321
45579W        W88492  15.850  20.788  14.044  0.1782  0.2420  0.1668
45580W        W88493   7.329  20.925   4.398 -0.0338  0.5723 -0.0669
45581W        W88494   9.651   8.916  24.967  0.1803  0.0773  0.0188
45582W        W88495   7.966  32.570   0.573  0.0969  0.0984  0.0304
45583W        W88496  16.884  29.747   5.895 -0.1076  0.1902  0.0139
45584W        W88497  15.344  12.801  22.367  0.0169  0.2853 -0.1592
45585W        W88498  25.651  27.671   8.309  0.0238  0.2671 -0.0808
45586W        W88499   6.605  22.252   4.834 -0.1624 -0.0413  0.0168
45587W        W88500  14.137  10.075  13.704 -0.1200 -0.0265  0.0669
45588W        W88501  18.198  12.829  27.326  0.0039 -0.0188 -0.1334
45589W        W88502  19.078  22.142   4.763  0.2080  0.1876 -0.1189
45590W        W88503  14.742  28.591   3.380  0.1675  0.1163  0.2705
45591W        W88504  10.008  24.692   3.577  0.0516  0.0208  0.2360
45592W        W88505  16.028  26.187   6.922 -0.0729 -0.0364  0.0717
45593W        W88506   8.120  14.836   8.326  0.1568 -0.2793 -0.2130
45594W        W88507   8.246  18.959  29.760 -0.1220 -0.1460 -0.2505
45595W        W88508  30.450  18.936   1.898 -0.4431 -0.1184 -0.1611
45596W        W88509   1.016  31.635  21.719 -0.1979 -0.0077 -0.1256
45597W        W88510  17.074   3.913  21.670 -0.1803  0.0469 -0.2690
45598W        W88511   9.407   7.259  25.420 -0.1487  0.0502  0.2429
45599W        W88512  12.223  12.556   0.891  0.0352 -0.1018  0.1377
45600W        W88513   0.137   1.085   1.382 -0.1789 -0.1754 -0.0790
45601W        W88514  11.646  18.413  28.888  0.0046  0.0508 -0.0877
45602W        W88515  20.659  28.839  18.324  0.1981 -0.1993  0.2992
45603W        W88516  18.899  26.082   2.104  0.1429  0.3654 -0.2241
45604W        W88517   2.531  25.209  18.012  0.0494 -0.0416 -0.3789
45605W        W88518  16.366  22.227  19.600 -0.2791 -0.1061  0.0207
45606W        W88519  13.023  19.268  26.366 -0.2708  0.3157  0.0559
45607W        W88520  34.249  12.491  28.064 -0.1284  0.2323 -0.0479
45608W        W88521   1.543  11.083  15.364 -0.0235  0.0131  0.0288
45609W        W88522   9.146  17.309  25.521 -0.0864  0.0651 -0.0076
45610W        W88523  20.258  25.979  27.985 -0.2095 -0.1437  0.2217
45611W        W88524  34.307  24.756  17.186  0.1274  0.0137  0.1780
45612W        W88525  11.517  18.057   6.110 -0.2351 -0.1183  0.0086
45613W        W88526   5.183  21.629   0.165 -0.2487  0.3679 -0.0616
45614W        W88527  34.140  17.355  25.918 -0.2491 -0.0204 -0.2966
45615W        W88528  11.018  23.523  27.267  0.2077  0.0338 -0.0849
45616W        W88529   7.693  11.319   7.432  0.4452  0.3933  0.0347
45617W        W88530  12.226  12.286  20.844 -0.1732  0.3936  0.1643
45618W        W88531   8.372  25.756  25.905  0.1456 -0.0594  0.1562
45619W        W88532   6.594  27.417  27.879  0.0168 -0.3280 -0.1000
45620W        W88533   4.210  14.003  29.214 -0.0433  0.2597 -0.1126
45621W        W88534  12.589  20.141  23.307  0.1492 -0.1271  0.0206
45622W        W88535  10.450  20.336  27.433 -0.0681  0.0634 -0.1839
45623W        W88536  19.187   9.986  29.073  0.0565 -0.1934  0.0720
45624W        W88537  30.867  22.826  28.654  0.0746  0.0639  0.0719
45625W        W88538   9.531  32.741  27.303  0.1423  0.0235  0.0783
45626W        W88539   6.181  27.521  10.655  0.2641  0.0767 -0.0142
45627W        W88540  10.886  23.321  23.097  0.0665  0.0654 -0.0827
45628W        W88541   3.886   5.807  24.303 -0.1741 -0.1040 -0.0530
45629W        W88542  34.337  18.610  26.942 -0.0735 -0.2578  0.2060
45630W        W88543   6.485  17.139  23.511 -0.2499  0.0997  0.0284
45631W        W88544   5.723   6.932  22.955 -0.0231 -0.0876 -0.3244
45632W        W88545   5.729  11.050  18.638 -0.0428  0.1666 -0.0083
45633W        W88546  16.953  19.600  23.353 -0.1565 -0.0739  0.2855
45634W        W88547  29.472  26.433  24.141 -0.1978  0.0728  0.0507
45635W        W88548  16.404  13.865   7.418  0.2206 -0.0291 -0.0940
45636W        W88549   9.370  23.068  25.536 -0.0772 -0.3303 -0.0245
45637W        W88550   9.934  16.830  26.983  0.2859 -0.2541  0.0341
45638W        W88551  33.168  19.895  20.705  0.0967  0.3890 -0.0401
45639W        W88552  15.326  24.245  29.018 -0.0689  0.0095  0.0208
45640W        W88553  10.432  16.131  27.486  0.0819 -0.2181  0.1011
45641W        W88554   0.236  19.840   2.933 -0.1592  0.0421 -0.1305
45642W        W88555  14.651  18.588  26.504  0.0282  0.2356 -0.3134
45643W        W88556   4.961  16.815   3.902 -0.0708 -0.0471  0.4349
45644W        W88557   8.855  12.668  15.023  0.0923 -0.0413  0.0646
45645W        W88558  10.228  19.664  18.363 -0.1996  0.4427  0.1974
45646W        W88559  11.784  25.851   3.383  0.2192  0.0854 -0.1242
45647W        W88560  11.436  19.859  22.529  0.0302  0.1671 -0.1018
45648W        W88561   5.765  31.355  27.606  0.2398 -0.1869  0.0126
45649W        W88562   9.772  21.099   9.387 -0.2347  0.1347 -0.0661
45650W        W88563  14.732   6.039   5.822  0.1906 -0.2685 -0.1430
45651W        W88564   7.912  25.397   0.546 -0.1445  0.2576  0.0834
45652W        W88565  32.313  21.991   7.480  0.0029  0.1883 -0.3839
45653W        W88566   2.600  15.103   8.409  0.2198 -0.1999 -0.1013
45654W        W88567   7.236  25.352  28.397  0.6872 -0.3449 -0.2342
45655W        W88568  34.288  28.328   4.828 -0.0934 -0.2978 -0.1672
45656W        W88569   2.322  32.780  20.258 -0.0534 -0.2443 -0.1378
45657W        W88570  21.081  22.068  13.224  0.0146 -0.2651  0.2485
45658W        W88571  32.838  14.201  26.593 -0.2172  0.2189  0.0051
45659W        W88572   3.146   6.879   4.963  0.0569  0.3560 -0.0443
45660W        W88573  14.623  29.077  11.213  0.3557  0.2250 -0.0029
45661W        W88574  10.999  22.150  18.335  0.2722  0.0120 -0.1957
45662W        W88575  14.109  21.213   5.185 -0.2503 -0.1132 -0.2044
45663W        W88576   9.098  15.947   5.654  0.2534 -0.0813 -0.2449
45664W        W88577  21.148   7.516  24.588 -0.1310 -0.0119  0.0341
45665W        W88578  10.985  27.939   1.719 -0.0216 -0.0653  0.0849
45666W        W88579  10.244  16.911  19.749  0.1701  0.1134 -0.1940
45667W        W88580  11.795  28.735  22.517  0.2159 -0.3411  0.0932
45668W        W88581  11.301  17.253   0.412  0.2153 -0.1959 -0.2406
45669W        W88582   6.445  28.234  28.455  0.1755 -0.0301  0.0748
45670W        W88583   3.348  20.370   7.828  0.3720 -0.0404  0.0501
45671W        W88584  16.318  20.190  23.479  0.0789 -0.0357  0.0625
45672W        W88585  16.278  21.641  20.247 -0.0745 -0.3710 -0.1828
45673W        W88586  19.965  24.642  19.342  0.0528  0.1939  0.2036
45674W        W88587   5.124  19.812  29.775 -0.0992 -0.0382 -0.0785
45675W        W88588  31.108  28.526  24.902 -0.1029  0.4119 -0.0134
45676W        W88589  28.208  20.265   5.316 -0.1369  0.0363  0.0151
45677W        W88590  27.815  11.771  25.523 -0.0455 -0.0305  0.2540
45678W        W88591  10.531  12.579   9.466  0.0456 -0.1951  0.1754
45679W        W88592   5.786  14.163  28.613  0.4258 -0.1540 -0.0590
45680W        W88593  33.588  16.165  21.205  0.1401  0.2349  0.2752
45681W        W88594  21.008  29.320  21.124 -0.3500 -0.0954 -0.3277
45682W        W88595  33.609  28.059  26.866 -0.2857  0.3021  0.2111
45683W        W88596  19.365   5.704  19.240  0.0566 -0.1140  0.3095
45684W        W88597  13.636  22.597  29.070  0.2891  0.2023  0.0271
45685W        W88598  14.926  28.827  24.776 -0.2403 -0.2116 -0.0218
45686W        W88599   5.004  17.879  25.229 -0.2024 -0.2601 -0.3058
45687W        W88600   7.153  25.917  23.975  0.4771  0.0186 -0.1169
45688W        W88601  32.719  20.919   6.059  0.2659  0.1049 -0.2006
45689W        W88602  12.266  26.919  18.717 -0.0257  0.0118 -0.2411
45690W        W88603   7.947  27.258   5.174  0.0481 -0.0633 -0.1810
45691W        W88604   4.642  20.491   0.746 -0.2269 -0.0121  0.1149
45692W        W88605   4.344  29.086   6.856 -0.1697 -0.2187 -0.1424
45693W        W88606   9.087  22.851  25.090 -0.0734  0.1460 -0.3222
45694W        W88607   7.202  21.844  29.756 -0.2562 -0.1020 -0.0975
45695W        W88608  16.178  25.271   2.966 -0.0342  0.1297 -0.1017
45696W        W88609  14.065  12.157   7.322  0.1544 -0.0083 -0.1550
45697W        W88610  33.877  26.625  26.556 -0.0789  0.2537  0.1661
45698W        W88611  13.826  10.800  19.245 -0.0711 -0.2693  0.0923
45699W        W88612  30.998  19.759  27.608  0.0644 -0.2950  0.0691
45700W        W88613  14.363  30.763  24.000 -0.3295  0.3392 -0.1663
45701W        W88614  14.903  17.919   2.748  0.0545  0.0614 -0.0191
45702W        W88615  13.592  30.168  20.906  0.1461  0.1492  0.5051
45703W        W88616   7.634   0.759  20.486 -0.2456 -0.0835 -0.4043
45704W        W88617   0.082  18.116   9.276  0.3386 -0.0881 -0.0011
45705W        W88618   8.088  10.193  27.855  0.1160 -0.1153  0.2017
45706W        W88619  10.600   6.962   1.013  0.1144  0.2402  0.0460
45707W        W88620  11.756  14.028  10.067  0.1337 -0.1128  0.2046
45708W        W88621  13.545  11.682  24.593 -0.2694  0.1179 -0.2461
45709W        W88622  12.548  21.178  29.342  0.2506 -0.0199  0.1741
45710W        W88623   1.350  18.345   4.700  0.3061  0.0980  0.1949
45711W        W88624   8.451  13.260  26.238 -0.0639 -0.0792  0.1465
45712W        W88625   4.121  21.704  26.309 -0.1590 -0.1072 -0.0316
45713W        W88626  19.612  19.752   6.822 -0.2419  0.0383  0.1020
45714W        W88627   1.657  13.889  27.287 -0.0970  0.0705 -0.0994
45715W        W88628  14.495  21.863   5.687  0.1421 -0.0793 -0.1656
45716W        W88629   4.725  26.639  22.839 -0.1373  0.1324 -0.1137
45717W        W88630  15.126  22.372   5.546 -0.0169  0.1319 -0.2708
45718W        W88631  32.341  16.355   4.301  0.2232 -0.3128 -0.0003
45719W        W88632  13.267  23.982  21.021  0.2965 -0.1559 -0.0537
45720W        W88633  14.129  15.393  13.617 -0.1604  0.2749 -0.0454
45721W        W88634  12.815  18.289  18.817  0.0247 -0.0194  0.1733
45722W        W88635   5.077  27.545   8.703 -0.1317 -0.1851  0.3348
45723W        W88636   2.443  29.628  23.781  0.0749  0.0663 -0.1816
45724W        W88637   8.491  18.343   2.536  0.0782 -0.3729 -0.2065
45725W        W88638   6.693  14.319  22.658 -0.0011  0.4026  0.2218
45726W        W88639   6.079  17.630  23.844 -0.1128 -0.1448  0.1756
45727W        W88640  10.331  18.837   0.168  0.0791  0.1770 -0.2113
45728W        W88641   8.227  18.597  28.519 -0.1441  0.2644 -0.1547
45729W        W88642   4.757   3.874  29.272  0.1098  0.5189  0.1910
45730W        W88643   0.994  18.552   6.495 -0.0643  0.2774 -0.1877
45731W        W88644  32.810  20.176   5.600 -0.0703 -0.2586 -0.0507
45732W        W88645  11.233  14.356   1.855  0.2854 -0.1897  0.3365
45733W        W88646  20.331  24.766  19.646 -0.4992  0.0907 -0.0492
45734W        W88647  30.974  25.526  28.176 -0.2555 -0.0176  0.2384
45735W        W88648   7.411   6.415   4.041 -0.0525 -0.2806  0.1391
45736W        W88649   9.710  25.683   8.989  0.3435  0.2288  0.0235
45737W        W88650  11.119  28.846  25.747  0.0040  0.1428  0.4270
45738W        W88651  12.177  23.799  28.423  0.1556  0.1574  0.0153
45739W        W88652   6.242  22.512   2.555 -0.0522 -0.2170  0.2409
45740W        W88653   2.483  22.335  17.348  0.1581 -0.1635 -0.4385
45741W        W88654   4.643  21.325  27.696 -0.2330 -0.1560  0.4064
45742W        W88655  22.771  20.200  24.881  0.1765  0.3228 -0.3439
45743W        W88656  12.648  16.575   3.253  0.4900 -0.0182  0.1085
45744W        W88657  12.600  23.300  16.977 -0.2102  0.1813 -0.1676
45745W        W88658  12.053  16.126  29.148 -0.2292 -0.0482 -0.1572
45746W        W88659  12.805  18.153   1.078 -0.0825 -0.3873  0.0898
45747W        W88660   3.321  21.828  26.713  0.1793  0.0061 -0.3391
45748W        W88661  13.131  20.356  24.244  0.1003 -0.2722  0.3350
45749W        W88662   3.030  21.531   6.624  0.0178  0.0902 -0.1286
45750W        W88663  12.089  17.249  23.093  0.0146 -0.1459 -0.2211
45751W        W88664  22.196  27.110   2.682  0.1092 -0.1037  0.2776
45752W        W88665   3.772  19.283  20.419  0.2974  0.0268 -0.1174
45753W        W88666  12.722  31.546  21.209  0.3587 -0.0060 -0.2402
45754W        W88667  14.461  28.645  28.678  0.0524  0.0983 -0.2679
45755W        W88668   9.031  11.682  25.385 -0.1108  0.4047 -0.5537
45756W        W88669   1.671  28.089  22.084  0.0161  0.1350  0.0840
45757W        W88670   0.909  12.885  27.740  0.0750  0.0570  0.0218
45758W        W88671  15.189  22.623   7.498 -0.1622  0.3513  0.2458
45759W        W88672  12.215  18.204   7.289  0.2870  0.1090 -0.1430
45760W        W88673  16.234  18.582   6.949  0.2237  0.1905 -0.1543
45761W        W88674   8.968  23.362   8.446  0.1159 -0.1117 -0.1579
45762W        W88675  34.489  13.527   2.875 -0.0954  0.2137 -0.2677
45763W        W88676   6.041  15.108   3.895  0.2753  0.0578  0.2091
45764W        W88677   5.756  12.974  23.253  0.2535 -0.0464 -0.0692
45765W        W88678   7.660  12.278  10.945  0.0325 -0.0834 -0.2825
45766W        W88679  14.095  19.010   2.046 -0.3797  0.2151  0.1160
45767W        W88680  12.920  21.304  24.755  0.1028 -0.2705 -0.1115
45768W        W88681   9.073  22.189  21.422  0.0837  0.0213 -0.2861
45769W        W88682  12.027  24.557  27.882 -0.0110 -0.2727 -0.2707
45770W        W88683  19.420  30.386  18.883 -0.1495  0.0304  0.0850
45771W        W88684  21.262  19.904  14.597  0.1051 -0.0244  0.1603
45772W        W88685   2.831  20.382  18.178  0.1767 -0.0218  0.0987
45773W        W88686   5.804  27.576  21.203 -0.0509  0.0081  0.0569
45774W        W88687   5.170  31.015  22.601 -0.4035 -0.0421  0.5302
45775W        W88688   1.923  20.835  19.137  0.0152 -0.1729  0.1885
45776W        W88689  16.744   3.577  21.871  0.0205  0.1238 -0.0892
45777W        W88690  11.552  26.329  16.002  0.3266 -0.0785  0.2431
45778W        W88691   8.447  18.843  16.821 -0.0141  0.1705  0.0639
45779W        W88692  24.514  30.232  18.565 -0.0452 -0.0953  0.3903
45780W        W88693   1.443  27.641  16.462  0.1509 -0.0311 -0.0229
45781W        W88694   9.037  16.106  17.625  0.1240 -0.0886  0.1768
45782W        W88695  33.161   2.879  19.888 -0.1559  0.0605 -0.3675
45783W        W88696   2.380  30.348  18.078  0.0946  0.5003  0.3038
45784W        W88697  13.453  27.125  15.900 -0.1573  0.1875  0.0124
45785W        W88698  13.076  17.431  22.818 -0.0312  0.0610 -0.1565
45786W        W88699  20.355  22.881  17.562  0.2149 -0.2153  0.3567
45787W        W88700  10.614  16.710  13.345 -0.0791  0.0408 -0.0744
45788W        W88701   3.581  26.810   0.487  0.0346  0.3549  0.0114
45789W        W88702  34.153  32.372  27.928  0.1157  0.1708 -0.3366
45790W        W88703  10.108  26.439  15.256  0.2608  0.0497  0.0526
45791W        W88704   5.569  26.755  21.210  0.0845 -0.0022  0.0737
45792W        W88705   2.713  26.147  22.260  0.2899 -0.0206  0.0512
45793W        W88706   9.151  31.578  21.011  0.2615 -0.1119  0.0706
45794W        W88707  18.223  30.909  19.274 -0.1379  0.0542 -0.1649
45795W        W88708   9.134  22.070  20.209  0.0717  0.1341  0.2312
45796W        W88709   6.479  17.689  25.648 -0.0283 -0.1673  0.1438
45797W        W88710   1.919  24.240  15.805  0.1076 -0.0932  0.3510
45798W        W88711   9.306  20.254  14.949  0.1972  0.0880 -0.0017
45799W        W88712  29.464  23.677  18.045  0.1136  0.0439 -0.1951
45800W        W88713  12.782  18.059  16.669  0.0549 -0.0020 -0.0168
45801W        W88714  10.139  22.713  25.597  0.2343 -0.2103 -0.2526
45802W        W88715   3.756  23.429  19.632 -0.0192 -0.1728 -0.1866
45803W        W88716   4.366   3.274  27.999 -0.0215  0.0909  0.0005
45804W        W88717   2.068  21.517  16.311  0.0101 -0.1013 -0.0437
45805W        W88718   2.499  28.925  17.753  0.0892 -0.0421  0.0522
45806W        W88719  10.950  31.370  15.878 -0.1094  0.1343 -0.1965
45807W        W88720   6.954   9.518  24.490 -0.2743 -0.0821 -0.0727
45808W        W88721   9.730  18.013  17.884 -0.2160  0.0912 -0.4994
45809W        W88722   4.217  19.712  17.936  0.2780  0.0937 -0.0212
45810W        W88723   4.630   1.790  20.849  0.0197  0.1143  0.0075
45811W        W88724  11.333  32.973  17.003 -0.0852 -0.2568  0.1084
45812W        W88725   9.581  26.770  16.474 -0.2307  0.0047 -0.0141
45813W        W88726   2.464  12.603  19.933  0.1951 -0.2382 -0.2005
45814W        W88727   9.606  22.901  25.092  0.3323  0.1023 -0.2276
45815W        W88728  11.838  26.700  14.805 -0.0366 -0.0738  0.0197
45816W        W88729   0.970  20.263  15.376 -0.1111 -0.0519  0.0222
45817W        W88730   9.097  28.206  19.991 -0.1213  0.0168  0.0620
45818W        W88731  10.060  27.096  19.758  0.1432  0.1119  0.1407
45819W        W88732   7.826  20.631  17.804  0.1019 -0.0298  0.3695
45820W        W88733   6.441  22.973  17.655 -0.4015 -0.0813  0.3699
45821W        W88734  12.633  20.961  25.680 -0.3237 -0.0235  0.0774
45822W        W88735  16.969  23.674  22.597  0.0103  0.2813  0.0366
45823W        W88736  15.686  20.418  13.457 -0.0253 -0.0971 -0.0608
45824W        W88737  12.472  31.609  18.859  0.0041  0.2513  0.2900
45825W        W88738  27.595  26.225   7.320  0.1644  0.1981 -0.3082
45826W        W88739  10.106  19.056  13.743 -0.0274 -0.1235  0.0225
45827W        W88740  16.052  31.384  15.312  0.0488 -0.1583 -0.3013
45828W        W88741   9.615  25.119  17.289 -0.5923 -0.1929 -0.4429
45829W        W88742  11.126  15.754  27.265 -0.1358 -0.0616  0.2378
45830W        W88743  33.945  27.363  15.864 -0.0245  0.1297 -0.0012
45831W        W88744   7.500  12.703  15.106  0.2572  0.0199  0.1587
45832W        W88745   4.765  17.972  15.928 -0.0863  0.0154  0.0903
45833W        W88746  12.266  22.619  19.357 -0.1425  0.2294  0.2821
45834W        W88747  15.138  30.176  17.128  0.0647  0.4128 -0.2466
45835W        W88748  11.309  26.792  15.099 -0.1858  0.0775 -0.0968
45836W        W88749   8.977  18.861  19.420  0.0052 -0.0318 -0.0825
45837W        W88750  14.474   9.169  20.303 -0.0399  0.4390  0.0619
45838W        W88751   6.682  21.983  15.060  0.0091  0.1948 -0.0241
45839W        W88752   4.630  33.173  17.540  0.0406 -0.1893  0.1018
45840W        W88753  14.005  18.012  11.855 -0.0542 -0.1631 -0.0650
45841W        W88754  11.874  24.430  14.590 -0.2105  0.0312 -0.0175
45842W        W88755  21.864  33.942  17.332 -0.2157 -0.4193  0.0137
45843W        W88756  13.861  27.668  17.991  0.0637  0.1990 -0.3287
45844W        W88757  16.583  25.175  17.674  0.0984 -0.0529  0.1867
45845W        W88758  13.158  18.750  12.595 -0.2210  0.0715 -0.0157
45846W        W88759   6.828  22.098  17.343 -0.0401 -0.1351  0.0474
45847W        W88760  18.710  28.393  16.753 -0.2942 -0.1439  0.2982
45848W        W88761   5.678  28.695  23.707  0.1237 -0.2532 -0.1619
45849W        W88762  32.694  26.285  13.623 -0.2127  0.0095 -0.1879
45850W        W88763  10.777  19.878  13.827  0.1432 -0.2951  0.1589
45851W        W88764   0.568  12.604  14.453 -0.0415 -0.2770 -0.1718
45852W        W88765   7.956  22.796  21.196  0.3021 -0.1044  0.0156
45853W        W88766   0.072  18.485  14.044  0.1381  0.3124 -0.0276
45854W        W88767  10.355  25.615  14.772 -0.1233 -0.0355 -0.0103
45855W        W88768   8.664  18.881  14.053  0.2643 -0.1153  0.0024
45856W        W88769   1.584  22.324  19.423 -0.0450 -0.3902 -0.1016
45857W        W88770  18.429  30.074  14.748  0.1846 -0.1995 -0.1709
45858W        W88771  20.404  28.949  17.625 -0.2545  0.1276  0.1225
45859W        W88772  13.795  28.239  18.084  0.2332  0.4267 -0.0567
45860W        W88773   9.114  25.461  16.713  0.2880 -0.3655 -0.0357
45861W        W88774   9.209  20.945  28.309  0.0267 -0.1139 -0.1954
45862W        W88775   4.270  20.586  20.660 -0.0526  0.0110  0.2051
45863W        W88776  19.043  16.571  13.363 -0.0181  0.1068  0.2730
45864W        W88777  18.438  24.355  19.496  0.2103 -0.3969  0.2334
45865W        W88778   4.344  17.801  19.552 -0.0413 -0.2747 -0.1026
45866W        W88779   2.996  15.660  21.770  0.1035 -0.1429  0.1835
45867W        W88780  11.151  18.882  17.278 -0.2124 -0.1334  0.0025
45868W        W88781  16.025  18.523  14.958  0.0188 -0.0389 -0.0708
45869W        W88782   8.289  23.938  20.683  0.0728  0.3020  0.0767
45870W        W88783  14.399  26.595  14.016 -0.0991  0.0582  0.0312
45871W        W88784   7.731  21.993  16.490 -0.0281  0.1668  0.2578
45872W        W88785  33.691  25.952  22.574  0.2317  0.4084 -0.0280
45873W        W88786   9.248  24.359  17.472 -0.1039  0.1185 -0.2842
45874W        W88787  12.014  15.957  13.991 -0.4146 -0.0488 -0.0083
45875W        W88788  17.855  21.054  14.148 -0.0812  0.2309 -0.1261
45876W        W88789  24.035  29.095  17.363 -0.2508 -0.1340  0.0397
45877W        W88790  11.447  16.325  13.654 -0.1744  0.1827 -0.1449
45878W        W88791   8.704  23.609  17.634 -0.0062 -0.2439  0.2711
45879W        W88792   9.026  11.876  14.675 -0.1317 -0.1398  0.0288
45880W        W88793   7.244  24.658  24.859 -0.1048  0.3231 -0.2444
45881W        W88794  12.351  23.778  20.020  0.3984 -0.1492 -0.1473
45882W        W88795  13.337  27.578  22.315  0.1435 -0.1366  0.0142
45883W        W88796  13.302  22.685  15.796 -0.3398  0.0150 -0.0364
45884W        W88797   7.814  27.210  24.384  0.0620 -0.0830  0.2418
45885W        W88798  27.728  29.985  18.363  0.3975  0.1831  0.0886
45886W        W88799  18.318  29.360  20.863 -0.2161 -0.3254  0.0851
45887W        W88800  18.155  30.837  14.962  0.0818  0.2277  0.1700
45888W        W88801  10.556  16.782  12.858 -0.0836 -0.0194 -0.2092
45889W        W88802  16.776   0.502  20.218 -0.1091  0.2313 -0.2192
45890W        W88803  34.020  21.566  20.643  0.3148  0.2925  0.1752
45891W        W88804  12.589  32.117  20.139 -0.0830 -0.0678 -0.3196
45892W        W88805   1.448  23.386  21.025  0.0248 -0.0060 -0.0525
45893W        W88806  12.671  16.710  24.309  0.1102  0.1527 -0.1183
45894W        W88807   5.103  18.521  24.749  0.0202 -0.2432  0.0215
45895W        W88808  13.001  20.802  24.111 -0.1134  0.0606 -0.2795
45896W        W88809   5.227  16.687  17.251 -0.0414 -0.0238 -0.2763
45897W        W88810  14.945  21.537  13.515 -0.1264 -0.0762  0.0194
45898W        W88811   3.926  17.194  22.537 -0.0674  0.0299  0.2000
45899W        W88812  22.648  25.016  15.976 -0.0264  0.1218  0.2705
45900W        W88813  14.806  29.474  22.138  0.0220  0.1030 -0.1824
45901W        W88814   9.468  24.577  25.969 -0.2201  0.2001  0.1452
45902W        W88815  32.786  17.628  22.281  0.2113 -0.2566 -0.0088
45903W        W88816  19.178  16.999  11.465 -0.3408 -0.0125  0.0136
45904W        W88817   2.273  22.124  20.534  0.1463  0.1498 -0.5438
45905W        W88818  12.543  21.850  15.439  0.1581  0.0027 -0.2380
45906W        W88819   2.390  16.939  24.442  0.3087 -0.1313  0.0988
45907W        W88820   8.995  24.626  17.075 -0.0943  0.2152  0.0059
45908W        W88821  13.133  21.390  19.532  0.1644 -0.0593 -0.0878
45909W        W88822   0.226  24.234  19.596 -0.1725  0.0381 -0.0081
45910W        W88823  24.777  16.187  15.677 -0.1147 -0.0331 -0.2503
45911W        W88824  14.660  26.392  14.485  0.1651  0.3227  0.2576
45912W        W88825  23.882  33.894  22.289 -0.1573  0.1379 -0.1155
45913W        W88826   3.686  25.171  21.459 -0.2343  0.0990 -0.0733
45914W        W88827   6.404  26.193  20.290  0.0420  0.1758  0.1152
45915W        W88828  11.468   2.626  18.907 -0.1802  0.0967  0.1323
45916W        W88829   7.928  18.316  19.472  0.1794  0.4840 -0.3073
45917W        W88830  13.704  26.181  17.248  0.1276 -0.1060 -0.0575
45918W        W88831  12.296  26.928  20.664 -0.0820  0.0201 -0.1497
45919W        W88832   7.135  25.362  19.249 -0.1031  0.2995  0.2924
45920W        W88833  21.155   1.169  23.914 -0.1601 -0.2176  0.2373
45921W        W88834   8.825  25.218  15.265  0.2802 -0.2658  0.2507
45922W        W88835   0.045  16.930  24.714  0.0827  0.0365 -0.1356
45923W        W88836   7.385  31.941  17.363  0.3032  0.2129 -0.1252
45924W        W88837   7.096  26.207  18.439  0.3233 -0.2033  0.2561
45925W        W88838   8.859  22.106  13.626  0.0441 -0.0206 -0.0370
45926W        W88839  18.896  26.947  17.572 -0.0617  0.0134 -0.3549
45927W        W88840  21.572  21.789  16.779  0.0664  0.2022  0.0680
45928W        W88841  11.178  23.833  13.789  0.3532  0.2163  0.0819
45929W        W88842   5.684  15.597  17.945 -0.0557  0.3827 -0.1499
45930W        W88843   0.633  24.811  17.008 -0.1066  0.0987  0.2413
45931W        W88844  19.061  23.969  12.889  0.0759 -0.1040  0.0265
45932W        W88845  32.756  27.911  22.577  0.0149  0.1436  0.5564
45933W        W88846  10.463  13.892  15.967  0.3258 -0.0752 -0.2554
45934W        W88847   2.885  30.129  17.917 -0.1127  0.2304  0.0120
45935W        W88848  31.660  32.795  15.025  0.0820 -0.1301  0.3220
45936W        W88849   2.082  15.352  19.474 -0.0377 -0.1415  0.0809
45937W        W88850   1.286  24.566   0.797  0.1694 -0.2545 -0.0202
45938W        W88851  13.852  28.187  25.124  0.0021  0.0411  0.0681
45939W        W88852   1.083  23.439  20.652 -0.0722  0.0251 -0.0432
45940W        W88853  16.074  21.720  14.958 -0.1653 -0.2102  0.0123
45941W        W88854  15.587  25.354  18.073 -0.1259  0.0781 -0.3662
45942W        W88855  10.402  17.495  14.249  0.2787  0.1315 -0.1836
45943W        W88856  13.855  31.041  20.733  0.0456  0.1742 -0.1151
45944W        W88857  10.567  29.608  19.781  0.2741  0.2886 -0.0716
45945W        W88858   8.173  16.011  15.446 -0.3099 -0.0379  0.2964
45946W        W88859  17.947  21.540  14.036 -0.0917  0.0375 -0.0898
45947W        W88860   6.003  21.388  13.792 -0.0522  0.0945 -0.0143
45948W        W88861   5.840  26.769  19.261 -0.0508 -0.0210 -0.1746
45949W        W88862   6.820  28.841  26.379  0.1031  0.1867 -0.1202
45950W        W88863   4.689   4.245  27.389 -0.1580  0.1961 -0.2263
45951W        W88864  13.930  27.548  20.230  0.2462  0.1323 -0.0826
45952W        W88865   5.140  19.805  15.006  0.1018  0.2417 -0.3414
45953W        W88866   9.611  25.116  15.142 -0.2669  0.5117 -0.0234
45954W        W88867   3.974  15.750  15.694  0.0306 -0.0297  0.0875
45955W        W88868  11.258  29.430  16.952 -0.0314  0.1289 -0.1442
45956W        W88869   0.874  20.370  26.008 -0.0836 -0.0596  0.3259
45957W        W88870   6.032  29.441  22.929  0.1139 -0.2020  0.2084
45958W        W88871  10.490  20.377  15.751 -0.0763 -0.1122  0.1224
45959W        W88872  29.594  23.152  14.268  0.1628  0.2875 -0.0721
45960W        W88873   6.539  24.665  22.716  0.1417 -0.0366  0.2215
45961W        W88874  18.155   6.712  13.469 -0.0312 -0.3815 -0.1317
45962W        W88875   6.321  32.260  17.491  0.0698  0.1109  0.0712
45963W        W88876  32.459  22.405  21.383 -0.3598 -0.1302 -0.0216
45964W        W88877  10.519  17.650  20.238  0.0842 -0.4019  0.1554
45965W        W88878   8.958  23.258  17.908 -0.4024  0.1070 -0.0324
45966W        W88879   1.229  28.109  16.302 -0.2274 -0.2315 -0.0641
45967W        W88880   1.770  20.624  23.558  0.2328 -0.0520 -0.1866
45968W        W88881  18.857  20.013  14.538 -0.3656  0.0353  0.1187
45969W        W88882  13.127  34.132  24.409  0.0883 -0.0236  0.2463
45970W        W88883  10.745  18.632  18.517 -0.1001  0.1521 -0.2488
45971W        W88884  11.465  23.319  15.594 -0.0703 -0.1059  0.2627
45972W        W88885  12.976  29.959  16.546  0.3551  0.1454 -0.1504
45973W        W88886   4.409   0.473  17.411 -0.0902 -0.1671 -0.1982
45974W        W88887  10.414  16.369  21.436  0.0244  0.2253  0.5030
45975W        W88888   0.774  15.656  19.407  0.1094  0.2717 -0.2608
45976W        W88889  22.895  34.280  13.842  0.0490  0.3345  0.2502
45977W        W88890  10.260  20.893  15.613 -0.0185 -0.2702 -0.2726
45978W        W88891  11.040  25.069  15.432 -0.0265  0.2932  0.1587
45979W        W88892  13.422  24.946  21.961  0.0559  0.1411 -0.0014
45980W        W88893   2.076  22.676  16.930  0.2494 -0.3419 -0.3610
45981W        W88894  16.973  24.338  17.229  0.1557 -0.1599 -0.0047
45982W        W88895   3.605  29.443  21.576 -0.0388 -0.2079  0.0436
45983W        W88896   1.327  34.494  26.655  0.0252 -0.0374 -0.3348
45984W        W88897   6.235  25.860  18.879 -0.1265  0.0242 -0.1963
45985W        W88898  14.320  25.572  18.282 -0.0459  0.0624  0.1743
45986W        W88899  14.418  23.815  18.975  0.1662  0.1077  0.1153
45987W        W88900   5.771  23.865  14.131  0.0055  0.1329  0.0492
45988W        W88901   9.879  23.722  22.283 -0.0717  0.0484 -0.0006
45989W        W88902  15.850  18.828  12.863  0.2911 -0.0445  0.2425
45990W        W88903   6.802  14.836  18.811 -0.2703  0.3429  0.1243
45991W        W88904  13.055  26.954  16.986  0.2053 -0.2534 -0.0717
45992W        W88905   6.690  17.596  16.173  0.1675  0.2975  0.3887
45993W        W88906  11.191  27.722  17.758  0.1200  0.0864 -0.1082
45994W        W88907  10.270  24.703  17.341 -0.1949 -0.0899 -0.0497
45995W        W88908  19.129  24.350  18.223 -0.1244  0.4069 -0.0435
45996W        W88909  15.719  30.824  22.857 -0.1359  0.1980  0.1482
45997W        W88910  15.295  24.530  16.753  0.0104  0.1953  0.1794
45998W        W88911   4.289  16.368  15.319 -0.0398  0.1810  0.0372
45999W        W88912   7.454  14.245  14.978  0.2050 -0.1791  0.2707
46000W        W88913   5.149  19.272  18.095  0.2792  0.1346  0.1571
46001W        W88914   8.369  15.745  20.678 -0.1087 -0.1929 -0.0002
46002W        W88915   3.063  14.465  14.890  0.0142 -0.1681 -0.1258
46003W        W88916  18.837  22.867  13.276 -0.3316  0.0144  0.0308
46004W        W88917   9.917  17.983  28.707  0.0425  0.1458 -0.0996
46005W        W88918   8.453   1.131  25.370  0.0748  0.1391  0.0779
46006W        W88919  13.565  25.444  21.229  0.1371 -0.1056  0.1204
46007W        W88920   2.876  24.181  27.099 -0.3340 -0.0101 -0.3530
46008W        W88921   1.215  22.547   2.792  0.2179 -0.0978 -0.0797
46009W        W88922  20.808  27.194  16.874 -0.0608  0.1900 -0.0559
46010W        W88923  25.386  22.062  21.709  0.1275 -0.3761  0.0833
46011W        W88924   5.620  16.450  18.244 -0.1676 -0.0457 -0.1954
46012W        W88925   5.765  28.443  18.420 -0.1287  0.0943 -0.0805
46013W        W88926  17.758  23.810  15.218  0.0372 -0.4566  0.0685
46014W        W88927  14.163  18.531  13.882 -0.1231  0.0828  0.0940
46015W        W88928   5.394  32.353  24.812  0.1977 -0.1862 -0.3683
46016W        W88929  34.166  28.150  18.713 -0.0499  0.3923  0.1016
46017W        W88930   5.896  15.932   2.051 -0.1572  0.1436 -0.3442
46018W        W88931  11.372  21.394   2.557  0.1864  0.1427  0.3147
46019W        W88932  11.829  32.338  22.490  0.1096 -0.0289 -0.0133
46020W        W88933   7.675  28.571  22.741 -0.0684 -0.0448  0.0464
46021W        W88934  13.381  18.963  14.195 -0.1315  0.0697  0.0185
46022W        W88935  33.940  30.639  21.066 -0.2921 -0.1270 -0.2706
46023W        W88936   0.522  16.731  26.636 -0.1222  0.0837 -0.0068
46024W        W88937  11.086  21.249  13.086 -0.0369 -0.2824 -0.0452
46025W        W88938   7.253  21.798  20.481  0.0362  0.0663 -0.1071
46026W        W88939   8.302  20.216  18.016  0.1485 -0.1561 -0.0014
46027W        W88940   7.074  24.324  18.963  0.1131  0.3159  0.1848
46028W        W88941   3.379  23.331  15.158 -0.0632 -0.0503  0.1786
46029W        W88942   0.338  19.699  19.036  0.2999 -0.1352 -0.0248
46030W        W88943  19.090   0.785  16.836  0.0571  0.2457 -0.1940
46031W        W88944  18.123  24.664  17.744  0.0514 -0.0383  0.2704
46032W        W88945  33.817  23.176  20.703 -0.0647 -0.1142  0.2790
46033W        W88946   7.158  16.777  14.930 -0.2899 -0.2427  0.1870
46034W        W88947   9.191  25.983  23.172  0.0212  0.2320  0.0324
46035W        W88948   7.262  31.630  20.478 -0.4706 -0.0102 -0.2828
46036W        W88949   6.927  21.666  18.650  0.2993 -0.0464 -0.0886
46037W        W88950   6.206  18.855  17.577 -0.0261 -0.1765  0.1321
46038W        W88951  32.899  21.910  24.695 -0.0381  0.0171 -0.1754
46039W        W88952  16.725  33.652  25.202  0.1493 -0.2355  0.3095
46040W        W88953   6.164  20.599  19.087 -0.1234  0.2095  0.1818
46041W        W88954   6.511  20.135  16.346 -0.3163 -0.4441 -0.1417
46042W        W88955  19.925  22.958  20.521  0.0425  0.4575 -0.0102
46043W        W88956   8.556   2.965  23.026 -0.0665 -0.2971  0.3566
46044W        W88957   7.048  16.585  25.485  0.0230  0.3386 -0.1669
46045W        W88958   7.245  30.703  22.406 -0.1753  0.1330  0.0980
46046W        W88959  10.085  18.075  18.365 -0.0454  0.1814  0.0280
46047W        W88960   8.968  26.725  17.783  0.1394  0.1455  0.2648
46048W        W88961   5.989   0.680  21.173 -0.1938  0.0084  0.0473
46049W        W88962  16.918  26.623  27.259 -0.3089  0.3430 -0.3620
46050W        W88963   2.479  28.011  15.955 -0.0845  0.2253 -0.1955
46051W        W88964   1.719  32.322  16.755 -0.0749 -0.0653 -0.1439
46052W        W88965   5.948  17.136  15.316 -0.0761 -0.4590  0.1040
46053W        W88966  24.784  26.396  17.488  0.0828  0.4332  0.0046
46054W        W88967   9.048  21.594  18.221  0.2506 -0.1066 -0.0299
46055W        W88968  16.170  23.991  17.805 -0.0888 -0.0545 -0.0068
46056W        W88969  12.928  27.876  16.305 -0.1830  0.0351  0.3321
46057W        W88970  13.730  31.490  17.299 -0.3548 -0.2438  0.1218
46058W        W88971   9.109   0.189  21.854  0.0329  0.0163  0.2452
46059W        W88972  11.189  31.737  15.573  0.2405 -0.0997 -0.0143
46060W        W88973   7.872  11.620  16.414  0.0373  0.0890 -0.0138
46061W        W88974  16.485  28.011  22.622  0.0065 -0.1044 -0.0887
46062W        W88975  17.409  11.012  17.988  0.2656 -0.0067  0.1848
46063W        W88976   2.712  16.259  18.642 -0.0661 -0.1133 -0.0026
46064W        W88977  17.214  22.640  13.715  0.3412  0.0872 -0.0518
46065W        W88978   3.820  31.923  14.746 -0.0955  0.0305  0.1729
46066W        W88979   3.471  21.794  17.724  0.0504 -0.0857  0.1782
46067W        W88980   8.032  24.470  20.047 -0.3131 -0.0665  0.1299
46068W        W88981  12.902  15.053  13.725  0.1160  0.3035 -0.3782
46069W        W88982   3.384  23.511  18.090 -0.0884  0.1226 -0.0843
46070W        W88983  22.027  21.101  12.896  0.0147 -0.0689  0.1596
46071W        W88984  24.204  24.887  14.661  0.3046 -0.0986  0.1593
46072W        W88985   0.708  25.296  24.980  0.1971  0.3685 -0.1516
46073W        W88986   5.762  31.055  19.233 -0.1547  0.0099 -0.0390
46074W        W88987   0.015  23.463  13.999  0.1495 -0.1640  0.2819
46075W        W88988   3.324  24.907  29.533  0.0588  0.2703  0.1510
46076W        W88989   3.828  17.187  14.712 -0.0838  0.1124  0.1399
46077W        W88990   0.219  17.645  19.930  0.0458  0.0002 -0.2369
46078W        W88991  14.338  26.910  15.604 -0.0998  0.2265  0.2413
46079W        W88992  23.087  21.029  23.243 -0.0646 -0.0083 -0.0504
46080W        W88993   5.346  27.628  23.630 -0.1571  0.2390 -0.1230
46081W        W88994  33.833  15.834  18.398 -0.4861 -0.1410  0.2254
46082W        W88995  16.068  27.855  15.290  0.1690  0.1185  0.2575
46083W        W88996  11.053  27.639  21.550 -0.0317  0.0247  0.0455
46084W        W88997  32.844  17.105  19.721  0.1019 -0.4672  0.1650
46085W        W88998   8.069  22.623  20.380 -0.3578  0.4102  0.0219
46086W        W88999  24.571  19.288  14.929  0.1317 -0.2660  0.0014
46087W        W89000   4.332  21.379  15.755  0.2921  0.1077  0.1684
46088W        W89001  10.709  29.524  16.093  0.0416  0.1842 -0.0793
46089W        W89002   9.167  33.545  20.000 -0.2601 -0.3640  0.1589
46090W        W89003   6.913  29.395  16.432 -0.0439 -0.1108  0.0416
46091W        W89004   2.558  30.968  15.861 -0.2690  0.3152  0.3068
46092W        W89005  11.884  24.195  18.814  0.2981 -0.0981  0.3686
46093W        W89006  10.560  29.653  17.951 -0.1685  0.2425  0.2690
46094W        W89007  16.746  21.269  12.941 -0.0732  0.0125  0.2177
46095W        W89008   9.017  20.156  16.069 -0.0502  0.0027  0.0677
46096W        W89009   0.332  30.080  17.930  0.0417  0.1277 -0.1791
46097W        W89010  16.262  29.080  14.267  0.1108  0.1817 -0.1289
46098W        W89011   6.523  18.041  13.953 -0.0309 -0.0641 -0.1366
46099W        W89012   4.994  25.524  18.643  0.1543  0.1865  0.2532
46100W        W89013   8.483  19.798  14.836 -0.2164  0.1376 -0.0594
46101W        W89014   2.379  32.577  14.557  0.1993 -0.2811  0.0138
46102W        W89015   7.238  18.989   0.193 -0.0603  0.0036  0.1295
46103W        W89016   6.813  17.613  13.790 -0.1980  0.0297 -0.4052
46104W        W89017  10.109  24.959  16.146 -0.2425  0.1890  0.0596
46105W        W89018   7.704  22.213  18.626  0.1176 -0.1011  0.1912
46106W        W89019   3.489  20.464  18.230  0.1356 -0.0806 -0.2193
46107W        W89020   8.179  27.663  15.997  0.5040 -0.2282 -0.2652
46108W        W89021   7.269   9.284   0.266  0.2314 -0.4787 -0.1939
46109W        W89022   8.939  18.897  14.461  0.0523 -0.0578  0.0360
46110W        W89023  29.152  28.674  19.431 -0.1670  0.2921 -0.4997
46111W        W89024   8.999  23.055  18.818 -0.0177 -0.1155  0.2901
46112W        W89025  17.213  13.338  12.960 -0.0391 -0.2459  0.0290
46113W        W89026   8.747  11.846  16.020 -0.2760 -0.1048 -0.1529
46114W        W89027   3.462  27.847  14.179 -0.2847  0.0344  0.0225
46115W        W89028  18.244  29.365  18.700 -0.3445  0.0937 -0.4127
46116W        W89029   5.580  16.096  26.149  0.0281  0.0503  0.0511
46117W        W89030   7.266  15.990  17.892 -0.0209 -0.1668 -0.0523
46118W        W89031  25.648  18.994  24.362  0.1009  0.0822 -0.0916
46119W        W89032   1.462  24.601  16.135  0.2045 -0.2304  0.0873
46120W        W89033  31.260  30.216  17.796 -0.2263  0.1647  0.2240
46121W        W89034   4.766  17.195  17.942 -0.3796 -0.1754  0.3082
46122W        W89035   7.830  12.936  18.038  0.1091 -0.0229  0.2197
46123W        W89036  16.717  30.275  17.076 -0.3422  0.1340  0.0576
46124W        W89037  13.378  29.055  20.054 -0.1786 -0.3247 -0.1563
46125W        W89038  15.565  28.008  20.487 -0.0226  0.3066 -0.1189
46126W        W89039   6.412  22.721  20.788  0.2010  0.0248  0.0645
46127W        W89040   6.019  19.462  19.095  0.5066  0.0534 -0.0391
46128W        W89041   8.752  15.944  16.411  0.3220  0.1841 -0.2737
46129W        W89042   4.692  19.459  17.919 -0.0854  0.2039  0.0109
46130W        W89043  16.592  20.433  16.969 -0.0118  0.2356  0.1159
46131W        W89044  31.315  21.343  26.056  0.0309 -0.1191  0.0383
46132W        W89045   5.141  19.602  22.573 -0.2321  0.1296 -0.0791
46133W        W89046  14.530  24.522  15.246  0.0676 -0.0761 -0.0554
46134W        W89047  17.243  11.937  17.652  0.0369  0.3138  0.1398
46135W        W89048  34.172  33.047  22.109  0.3113  0.1091 -0.3071
46136W        W89049  10.395  14.180  15.515  0.1048  0.1096 -0.3936
46137W        W89050   0.764  29.560  18.680  0.2364 -0.0685  0.1401
46138W        W89051  27.396  15.605  21.636  0.0723 -0.3216  0.0325
46139W        W89052  14.223  23.202  16.426 -0.0533 -0.2085 -0.1966
46140W        W89053  14.167  20.416  13.654 -0.4696 -0.0797 -0.2632
46141W        W89054   1.415  11.844  16.103  0.0986 -0.2969 -0.2941
46142W        W89055   3.487  30.694  17.850 -0.3098  0.1797 -0.0458
46143W        W89056  18.107  21.070  12.823  0.3586  0.1132  0.1629
46144W        W89057   3.315  24.826  19.887  0.2029  0.2854  0.1187
46145W        W89058  12.789  25.584  16.776 -0.1613 -0.0422  0.2807
46146W        W89059  11.375  26.360  20.332 -0.1670  0.0985 -0.0657
46147W        W89060   9.074  22.851  17.666 -0.3562  0.2123  0.0587
46148W        W89061   4.619  26.570  15.545  0.1141 -0.2977  0.2790
46149W        W89062  14.492  24.066  15.273 -0.1552  0.1581 -0.1807
46150W        W89063  34.317  26.938  22.463 -0.0087 -0.0334 -0.1276
46151W        W89064  28.374  31.249  21.061  0.1535  0.0083  0.1759
46152W        W89065  18.103  15.972  15.006 -0.0028 -0.0433  0.2070
46153W        W89066   8.405  21.182  18.814 -0.0476  0.1304 -0.3486
46154W        W89067  19.639  24.662  14.132  0.1217  0.1160  0.4417
46155W        W89068  11.508  20.074  13.727 -0.0317  0.0843 -0.0752
46156W        W89069  23.705  13.710  17.449  0.1720  0.0278  0.1420
46157W        W89070  12.359  32.272  21.381 -0.1343 -0.0502 -0.2038
46158W        W89071  18.460  21.338  12.262 -0.1746 -0.0188  0.0564
46159W        W89072  15.713  32.465  14.941 -0.0395  0.0616 -0.3593
46160W        W89073   2.089  18.525  28.931 -0.2743 -0.2609  0.0899
46161W        W89074   9.407  28.280  18.832  0.1871  0.0726 -0.2382
46162W        W89075   7.124  25.862  16.540  0.2169 -0.1655  0.1434
46163W        W89076  11.292  17.265  13.226 -0.0291  0.0721  0.1384
46164W        W89077   8.551  28.980  23.329  0.0240 -0.0390  0.0063
46165W        W89078  19.727  21.682  12.799 -0.1694 -0.1951 -0.0224
46166W        W89079   8.677  11.857  17.418  0.0883  0.0585  0.1006
46167W        W89080  20.085  22.388  13.845 -0.0419  0.1341  0.4327
46168W        W89081  15.865  29.494  17.684  0.1296  0.3329  0.3528
46169W        W89082   6.478  24.725  16.184  0.4966 -0.3195  0.0990
46170W        W89083  24.985  23.045  15.428  0.0947  0.3991  0.0223
46171W        W89084   6.550   1.414  18.259  0.0375 -0.1961 -0.1531
46172W        W89085  11.814  29.086  17.773  0.0155  0.2709  0.1397
46173W        W89086   5.667  19.176  27.857  0.1308  0.0106  0.1379
46174W        W89087   8.356  12.725  15.892 -0.0247 -0.0565 -0.1517
46175W        W89088   2.956  24.629  16.563  0.0430 -0.1073  0.1793
46176W        W89089  20.480  26.579  15.680 -0.1978  0.1779 -0.2245
46177W        W89090  25.255  22.168  20.035  0.2755  0.0717 -0.1390
46178W        W89091   4.078  21.382  28.644  0.0464 -0.2281  0.2054
46179W        W89092  12.695  33.220  26.704  0.3404 -0.0288  0.1561
46180W        W89093   7.181  16.401  21.419 -0.0350  0.0920 -0.2906
46181W        W89094   3.386  25.208  18.605  0.1413 -0.0564  0.0707
46182W        W89095   7.736  21.634  19.134 -0.1569 -0.0374 -0.0232
46183W        W89096   7.376  11.080  21.343  0.2397  0.1710  0.2179
46184W        W89097   7.864  33.863  18.208  0.2041  0.2711  0.0716
46185W        W89098   2.886  18.763  16.393 -0.0380  0.0100 -0.1609
46186W        W89099   2.923  26.801  18.081  0.1719  0.0303  0.0036
46187W        W89100  27.839  13.244  20.757  0.1261 -0.2362  0.1278
46188W        W89101  15.196  11.892  19.756 -0.5074 -0.1723 -0.0056
46189W        W89102   1.153  21.989  19.290 -0.1753 -0.1166 -0.0446
46190W        W89103  16.464  30.459  19.708 -0.2938  0.0677 -0.0195
46191W        W89104   8.098  18.888  14.012 -0.2489  0.0147 -0.0903
46192W        W89105   8.024  18.480  26.279  0.0817  0.1126 -0.0587
46193W        W89106  13.784  30.476  20.021  0.3222 -0.5378  0.0777
46194W        W89107   2.283  26.090  18.288  0.0399 -0.1394  0.1819
46195W        W89108  32.616  22.309  27.335 -0.1095  0.0001  0.0649
46196W        W89109  10.672  19.812  24.145  0.1077  0.0509  0.1625
46197W        W89110  11.643  18.383  13.232  0.3298 -0.2580  0.4378
46198W        W89111   6.806  30.440  25.973  0.2969  0.2448  0.0761
46199W        W89112  17.249  25.578  17.582 -0.3488  0.0166  0.0939
46200W        W89113   5.594  29.045  18.316 -0.1863 -0.0066  0.1849
46201W        W89114   8.754  18.006  16.836 -0.0747  0.2069 -0.0644
46202W        W89115   8.644  14.496  29.244  0.1961 -0.3341  0.0461
46203W        W89116  24.161  31.920  23.867  0.0201 -0.0912  0.1568
46204W        W89117  33.756  33.102  17.910  0.5213 -0.1556  0.0499
46205W        W89118  29.754  26.575  26.705 -0.1044  0.3157  0.1381
46206W        W89119   3.676  23.097  14.732  0.0099 -0.3333  0.1210
46207W        W89120   9.840  13.928  26.193  0.1059 -0.1795  0.1659
46208W        W89121   9.987  26.567  19.233 -0.0323 -0.0661 -0.1527
46209W        W89122  32.878  23.675  14.735 -0.1881  0.3075 -0.4017
46210W        W89123  17.751  17.072  14.520 -0.2620  0.0125 -0.1843
46211W        W89124  20.940  29.448   2.496  0.1032  0.1457 -0.0058
46212W        W89125  20.887  24.788  17.461 -0.2342  0.0506 -0.0393
46213W        W89126  15.771  20.436  22.890  0.0596  0.1172 -0.0719
46214W        W89127   5.577  30.979  24.015 -0.4093 -0.2334  0.0649
46215W        W89128  23.528  19.705  16.494  0.0793  0.0381 -0.3776
46216W        W89129   9.775  20.354  17.270 -0.0633 -0.1086  0.1546
46217W        W89130   5.393  25.401  16.821 -0.1590  0.0232 -0.1461
46218W        W89131   4.828  20.539  15.556  0.0457  0.2000  0.0289
46219W        W89132  15.224  21.512  12.681  0.5277 -0.2556 -0.2267
46220W        W89133   4.326  32.247  17.835  0.2129  0.0195 -0.2269
46221W        W89134  14.045  33.881  18.695 -0.4324  0.0774  0.0745
46222W        W89135   9.429  14.466  19.115 -0.0083  0.2044  0.1818
46223W        W89136   5.054  20.575  19.618  0.4027  0.1471 -0.2769
46224W        W89137   3.801  23.393  16.226  0.0257 -0.0302 -0.2831
46225W        W89138   7.753  30.470  26.366  0.0151 -0.1468  0.1589
46226W        W89139  10.749  22.458  17.941  0.1942  0.1681  0.0449
46227W        W89140   0.334  20.727  23.081  0.0507  0.1670  0.1304
46228W        W89141   5.480  23.594  18.545 -0.1940  0.0316 -0.1027
46229W        W89142   8.107  15.575  22.099 -0.1989 -0.0084 -0.2388
46230W        W89143  30.111  19.472  21.321 -0.2957 -0.2018  0.0994
46231W        W89144  10.509   8.995  23.497  0.1402 -0.6020 -0.0281
46232W        W89145  14.815  28.664  24.264  0.1812  0.1109 -0.1350
46233W        W89146  11.693  14.780  18.692 -0.4573 -0.0690  0.1537
46234W        W89147   7.093  28.390  25.475  0.1439  0.1210  0.0984
46235W        W89148   4.320  30.024  17.577 -0.1338  0.1316 -0.1616
46236W        W89149  21.919  11.813  26.011  0.1801  0.2194  0.2369
46237W        W89150   2.954  17.737  23.654  0.1160 -0.1949  0.0098
46238W        W89151  12.053  26.325  15.045 -0.2713 -0.3161  0.1107
46239W        W89152  23.404  21.006  17.148  0.1271  0.3344  0.1043
46240W        W89153  17.517   2.490  19.028 -0.3595  0.1967 -0.1232
46241W        W89154  14.296  21.460  19.427  0.2458  0.2926 -0.0269
46242W        W89155   8.218  15.451  15.546 -0.1160 -0.3551  0.1775
46243W        W89156   6.811  15.520  15.228 -0.0822 -0.1974 -0.2793
46244W        W89157   9.540  18.042  16.253 -0.1108  0.1442  0.1957
46245W        W89158   5.080  17.067  19.618  0.0329 -0.1187  0.1368
46246W        W89159   5.147  28.821  15.620 -0.2099 -0.0192 -0.1608
46247W        W89160  19.738  28.473  24.464  0.0835  0.0421  0.0702
46248W        W89161   7.317   9.748  24.690  0.0193  0.2316 -0.2326
46249W        W89162   6.029  26.287  21.030 -0.0445  0.1447  0.0062
46250W        W89163   9.195  12.420  16.488 -0.1046  0.3821 -0.2967
46251W        W89164   0.178  25.378  26.776  0.3112  0.0399  0.2911
46252W        W89165  15.760  19.022  23.685  0.1337  0.2173 -0.0867
46253W        W89166  10.716  21.520  22.152  0.0766  0.2321 -0.1685
46254W        W89167  15.817  22.585  16.188 -0.0784  0.4737  0.3563
46255W        W89168  14.999  28.076  15.961  0.1483  0.2270  0.0049
46256W        W89169  22.029  30.463  22.076  0.2024  0.1023 -0.2490
46257W        W89170   9.873  23.218  14.887  0.0120 -0.1018 -0.1021
46258W        W89171  20.989  12.809  13.928  0.3930  0.1230 -0.1337
46259W        W89172   9.959  24.284  20.916 -0.1322 -0.3737  0.2446
46260W        W89173   8.447  24.069  16.507 -0.3308 -0.3352  0.4189
46261W        W89174  10.152  29.350  23.484 -0.2651  0.2748  0.0569
46262W        W89175  10.085  16.173  20.551  0.2672 -0.0986  0.0344
46263W        W89176   6.263  18.275  28.087  0.0018 -0.1540 -0.0322
46264W        W89177   7.676  15.069  13.693 -0.2014 -0.0226  0.3463
46265W        W89178  10.424  23.568  16.705 -0.3101 -0.0557 -0.1299
46266W        W89179   0.749  15.049  16.086 -0.3759  0.1192 -0.0240
46267W        W89180  31.829  34.263  21.560 -0.1115 -0.0178 -0.2259
46268W        W89181  12.982  11.051  15.098  0.1335  0.2458  0.0502
46269W        W89182  18.372  15.705  24.235  0.1278  0.1012  0.0883
46270W        W89183   9.769  33.676  29.460  0.0295 -0.0057  0.2065
46271W        W89184  14.028  28.431  15.489 -0.0852 -0.0177  0.2637
46272W        W89185   5.963  21.495  26.853 -0.4244  0.4024  0.3683
46273W        W89186  12.156  24.491  22.391  0.2317 -0.2070  0.0316
46274W        W89187  16.300   9.455  21.987  0.1471  0.1299  0.3274
46275W        W89188   8.047  29.559  18.943  0.1944 -0.1419 -0.0740
46276W        W89189  13.704  11.797  15.370 -0.1861 -0.0530 -0.0170
46277W        W89190   7.919  22.425  19.165  0.0250 -0.1187  0.0256
46278W        W89191   7.511  12.507  28.397 -0.1031  0.2705  0.0442
46279W        W89192  14.308  15.743  13.949 -0.1244 -0.2333 -0.0315
46280W        W89193  15.343  25.440   0.005 -0.0840 -0.0408  0.0446
46281W        W89194   8.853  23.490  22.406  0.2750 -0.0608 -0.0747
46282W        W89195  20.120  20.517  15.632 -0.2988 -0.1266 -0.1430
46283W        W89196  12.430  23.274  17.760  0.1367 -0.2114 -0.0175
46284W        W89197  10.842  24.671  28.790 -0.3570 -0.1247  0.2942
46285W        W89198   5.515  29.819  16.590 -0.1538  0.1672  0.0033
46286W        W89199   9.612  20.437  15.423  0.2904 -0.2275 -0.2647
46287W        W89200   6.958  14.898  21.249  0.0562 -0.3774 -0.1524
46288W        W89201   9.613  22.557  15.407  0.2030  0.0698  0.2132
46289W        W89202  25.652  18.971  22.750  0.3502  0.2804  0.0043
46290W        W89203   8.562  24.010  14.985  0.1274 -0.1065  0.2780
46291W        W89204   7.106  14.410  24.109 -0.0508  0.1580  0.2300
46292W        W89205  17.425  12.980  13.283 -0.1438 -0.2799  0.0817
46293W        W89206  31.103  27.568  15.462 -0.4547  0.3550  0.1739
46294W        W89207  13.036  12.388  18.347  0.0723 -0.0929  0.2553
46295W        W89208   9.301  18.148  14.998  0.2746 -0.1267  0.0471
46296W        W89209  14.745  22.183  13.695  0.0143 -0.0838 -0.1186
46297W        W89210  19.112  19.710  22.940 -0.0953  0.3455  0.0104
46298W        W89211  13.052  24.471  20.177  0.1118 -0.2009  0.0632
46299W        W89212  12.581  24.067  20.387 -0.1400  0.0957  0.0598
46300W        W89213  12.740  16.993   6.536 -0.0107  0.1970  0.1886
46301W        W89214   6.227  24.069  17.123 -0.1302 -0.0378  0.2334
46302W        W89215   5.030  26.037  19.857 -0.1163  0.0719 -0.3148
46303W        W89216   8.763  13.969  24.865 -0.2890 -0.1743  0.0760
46304W        W89217  17.427   6.006  18.752 -0.0877 -0.0374 -0.0783
46305W        W89218   9.753  24.601  17.327  0.0291  0.3309 -0.2274
46306W        W89219  16.512  33.059  18.334  0.2187  0.0293 -0.1252
46307W        W89220  11.413  23.590  25.288 -0.0971  0.1741 -0.0792
46308W        W89221   4.797  25.000  23.426  0.0002 -0.1170  0.1190
46309W        W89222   7.552  24.367  20.028 -0.0541  0.1788  0.1384
46310W        W89223   1.891  15.322  20.010 -0.0311  0.1342  0.0122
46311W        W89224  16.820   2.908  19.508  0.1509 -0.1358  0.0510
46312W        W89225  12.567  14.114  13.513 -0.0344 -0.1152 -0.1276
46313W        W89226   8.670  16.673  19.984  0.0006  0.1305  0.2057
46314W        W89227  11.736  22.854  15.489 -0.1479 -0.1317 -0.1457
46315W        W89228  18.393  28.502  18.502 -0.2254  0.1608 -0.1085
46316W        W89229   5.356  19.840  14.184 -0.0555  0.0421  0.1225
46317W        W89230   0.173  21.182  18.993  0.1055  0.3051  0.0327
46318W        W89231  17.763  27.919  16.393 -0.0462 -0.1665 -0.0964
46319W        W89232  17.679  20.903  14.585 -0.3690  0.2162  0.0957
46320W        W89233   7.061  28.797  26.839 -0.0049 -0.1735  0.1324
46321W        W89234   7.986  15.677  16.346  0.0204 -0.1738  0.0391
46322W        W89235  15.232  29.875  22.120  0.0323 -0.1169  0.2215
46323W        W89236   5.082  19.192  17.615 -0.0171 -0.1071  0.1738
46324W        W89237  13.749  12.107  23.838  0.2967 -0.0938 -0.1031
46325W        W89238  10.513  25.768  26.617  0.3608 -0.4822 -0.2756
46326W        W89239   6.419  17.889  22.924 -0.0921  0.0705 -0.0056
46327W        W89240  18.960  10.884  16.007  0.1740  0.0910  0.1560
46328W        W89241  12.788  20.501  13.379 -0.0161  0.0038 -0.2102
46329W        W89242  20.425  23.674  18.965 -0.1455  0.1118  0.2356
46330W        W89243  18.330  22.098  12.686 -0.1963  0.4200  0.0255
46331W        W89244   8.410  27.077  25.454 -0.2153 -0.1332 -0.0438
46332W        W89245   9.491  26.770  19.007 -0.0325  0.0235  0.0534
46333W        W89246  16.512  24.177  20.046 -0.1225 -0.1083 -0.2575
46334W        W89247   2.400  28.293  24.520  0.2918  0.0521 -0.1459
46335W        W89248   3.010  27.016  20.318 -0.1533  0.1129 -0.4245
46336W        W89249  16.664  11.131  12.439 -0.1264  0.0985 -0.0844
46337W        W89250  15.403  21.717  26.230 -0.0191 -0.4131  0.0950
46338W        W89251  28.825  28.781  14.594  0.0789 -0.0464 -0.0728
46339W        W89252   4.095  25.162  14.731 -0.1087  0.2853 -0.2309
46340W        W89253   1.809  24.001  17.206  0.1482 -0.0234  0.0630
46341W        W89254   0.527  19.476   0.026 -0.0275  0.2376 -0.1575
46342W        W89255  24.013  29.858  17.838  0.1581  0.0059  0.1869
46343W        W89256   8.959  25.494  17.256 -0.3927  0.0001  0.1049
46344W        W89257   4.772  19.947  18.068 -0.1252  0.0396  0.1028
46345W        W89258   8.864   3.486  18.028 -0.2425 -0.0863 -0.2733
46346W        W89259  32.312  30.632  13.783  0.0614  0.1781  0.0966
46347W        W89260   9.305  22.627  19.587  0.1502  0.1757 -0.4269
46348W        W89261  30.031  20.504  27.407  0.0132  0.0244  0.0900
46349W        W89262   0.082  19.444  15.743 -0.1866 -0.0874 -0.2878
46350W        W89263  19.390   1.243  14.989 -0.0665  0.2010  0.1939
46351W        W89264   6.747  17.935  15.485  0.2283 -0.0077 -0.1374
46352W        W89265   9.662   2.445  21.822  0.0418  0.1155 -0.2020
46353W        W89266   2.210  19.940  16.008 -0.2095 -0.4055  0.0224
46354W        W89267  32.905  21.296  16.620  0.0757 -0.2020  0.0559
46355W        W89268  14.439  17.192  22.998  0.0540 -0.0073 -0.1304
46356W        W89269   8.450  10.436  17.285  0.0165  0.0419  0.0441
46357W        W89270  32.988  33.662  17.586  0.2284  0.1781 -0.0850
46358W        W89271  12.768  21.666  14.894  0.0970  0.2083  0.0031
46359W        W89272   9.027  31.067  20.988 -0.2100 -0.0607 -0.0301
46360W        W89273  30.996  26.401   2.284  0.3995 -0.1518 -0.1900
46361W        W89274   9.358  27.852  19.765  0.2835 -0.0965  0.0687
46362W        W89275   6.565  30.972   0.127  0.1835  0.2125 -0.2349
46363W        W89276   3.868  19.681   1.841 -0.0240 -0.0328  0.4242
46364W        W89277  11.488  25.291  17.373 -0.3677  0.3196 -0.0337
46365W        W89278  20.071  19.922  16.759  0.1958  0.3572 -0.0823
46366W        W89279   3.981  24.220  15.112 -0.1861 -0.1758  0.0418
46367W        W89280  17.902  11.601  20.593  0.3276  0.1205 -0.0160
46368W        W89281  15.154  25.310  17.362 -0.2824 -0.1797 -0.0654
46369W        W89282  31.987  31.521   0.791  0.0668 -0.0774 -0.2492
46370W        W89283   6.515  11.095  21.258  0.1928  0.1356  0.0220
46371W        W89284  12.937  15.623  24.102 -0.0521 -0.3256 -0.1542
46372W        W89285   4.417  27.475  15.751  0.1796 -0.0991 -0.1119
46373W        W89286   9.809   2.588  20.332  0.3724  0.1328  0.2753
46374W        W89287   6.675  16.639  21.691  0.1328 -0.1002  0.1999
46375W        W89288   8.387  26.104  16.173 -0.2917  0.0861 -0.0475
46376W        W89289  15.961  26.092  22.709  0.3176  0.0326 -0.1062
46377W        W89290   0.422  16.273  19.608 -0.0044 -0.0640 -0.1562
46378W        W89291   4.726  14.966  23.817 -0.1410 -0.0547 -0.0130
46379W        W89292   3.662  29.765  17.698  0.3780 -0.2596  0.1561
46380W        W89293  18.235  11.839  17.213  0.0023  0.1344 -0.2775
46381W        W89294  33.520  25.494  20.376  0.2555  0.0143  0.0968
46382W        W89295  14.670  17.963  14.422  0.0114  0.1892 -0.0651
46383W        W89296   9.489  14.916  15.643 -0.0436  0.1541  0.2173
46384W        W89297  33.120  23.277  20.424  0.3776 -0.0114 -0.1123
46385W        W89298   8.711  23.952  16.960  0.2003 -0.1771 -0.0427
46386W        W89299   4.582  16.160  24.249 -0.0819 -0.0393 -0.0433
46387W        W89300  11.225  18.119   0.328 -0.0652  0.1607 -0.0568
46388W        W89301   4.849  27.714  26.052  0.2208  0.2920 -0.2173
46389W        W89302  11.452  27.163  19.671 -0.2296  0.0808  0.0878
46390W        W89303  13.003  26.757  21.617 -0.0923  0.0877 -0.0446
46391W        W89304  12.302  26.268  24.379 -0.1820  0.3565 -0.0817
46392W        W89305   4.569  27.183  16.873 -0.2915 -0.0178  0.0178
46393W        W89306  11.302  13.497  20.058  0.0384  0.0445  0.0421
46394W        W89307   1.052  16.909  15.790  0.2586  0.4402  0.0297
46395W        W89308  19.763  31.943  15.426  0.1838 -0.3170 -0.0674
46396W        W89309   0.204  25.721  23.498 -0.0767 -0.1025  0.0881
46397W        W89310  30.135  17.192  22.602 -0.1308 -0.0730 -0.1963
46398W        W89311  14.978  17.690  13.567  0.1136 -0.2863  0.3848
46399W        W89312  17.940  26.672  14.521 -0.0055  0.2716  0.1320
46400W        W89313  29.768  30.777  18.549  0.0645 -0.2620  0.1308
46401W        W89314   8.160  18.017  20.636 -0.0613  0.0259  0.0760
46402W        W89315  20.777  30.186  17.887  0.0820 -0.0929  0.0618
46403W        W89316   9.965  18.449  18.068 -0.0789 -0.2644 -0.1017
46404W        W89317  11.751  26.197  17.648  0.0502  0.1564 -0.0736
46405W        W89318   4.360  31.653  23.406 -0.3187 -0.1817  0.1873
46406W        W89319  11.924  23.232  16.993 -0.3057  0.3996 -0.1915
46407W        W89320  16.753  31.663  18.105 -0.0909 -0.0120  0.1082
46408W        W89321   5.338  15.651  24.673  0.2689  0.0910 -0.3831
46409W        W89322   6.252  25.391  14.402 -0.0139  0.0809 -0.1060
46410W        W89323   7.908  32.883  17.629  0.0770 -0.2551 -0.3276
46411W        W89324  24.506  28.224  13.620  0.1944 -0.0216 -0.0738
46412W        W89325   2.817  26.815  16.218 -0.1572  0.1038  0.0328
46413W        W89326  32.803  22.227  29.576 -0.0080 -0.4743  0.2794
46414W        W89327   2.266  32.839  17.489 -0.2393  0.0995  0.0530
46415W        W89328  23.594  25.926  16.999  0.0926  0.1660  0.0766
46416W        W89329  10.833   0.154  21.071  0.4153 -0.2037  0.2669
46417W        W89330   2.165  14.672  25.676  0.1346  0.0596 -0.1493
46418W        W89331  20.476  26.322  18.932 -0.1569  0.0916  0.2650
46419W        W89332   8.385  10.165  16.516  0.1122  0.0830 -0.0118
46420W        W89333   3.431  20.228  22.384  0.0972  0.0109  0.1865
46421W        W89334  19.771  27.651  14.609  0.3262  0.0117  0.1277
46422W        W89335   9.480  13.657  23.619  0.2848  0.0566  0.2680
46423W        W89336  10.325  23.173  23.181 -0.1305  0.0884 -0.1910
46424W        W89337  12.418  25.790  15.626  0.0806  0.1626 -0.0365
46425W        W89338  19.707  16.238  24.671  0.0447 -0.2334  0.4394
46426W        W89339  12.090  34.041  21.394  0.0146 -0.0841 -0.0200
46427W        W89340  20.059  18.448  14.863  0.3182 -0.0964 -0.1123
46428W        W89341   3.667   1.887   3.375  0.1695  0.2872 -0.0572
46429W        W89342   8.010  13.233  15.067 -0.0087 -0.1270  0.0662
46430W        W89343  18.816  27.031  14.686 -0.2513  0.2209  0.0748
46431W        W89344   0.042  30.335  18.226 -0.0741  0.1573 -0.4569
46432W        W89345  12.635  22.832  23.933  0.0716 -0.0050  0.0478
46433W        W89346   8.582  17.661  23.561  0.1487 -0.1237  0.1182
46434W        W89347  11.519  22.610  15.085  0.1465  0.1780  0.1084
46435W        W89348  13.279  11.055  21.325 -0.1170  0.0556 -0.1191
46436W        W89349  29.969  28.172  18.980 -0.0140  0.1233  0.1966
46437W        W89350   2.785  31.006  17.568 -0.1416  0.0572  0.0583
46438W        W89351  10.694  28.814  25.981 -0.4867  0.1688 -0.0202
46439W        W89352  26.496  20.855  22.750 -0.1991  0.4482 -0.3705
46440W        W89353  10.621  24.577  19.959  0.1016  0.1786 -0.1799
46441W        W89354   8.591  25.270  16.231 -0.3090 -0.4255  0.2747
46442W        W89355  34.296  30.403  22.511  0.0049  0.2055 -0.2046
46443W        W89356  20.219  27.830  18.483 -0.0579 -0.0341 -0.2402
46444W        W89357  13.030  14.911  26.792  0.1047  0.4408 -0.0561
46445W        W89358   7.876  27.040  23.541  0.1935 -0.1065 -0.1032
46446W        W89359  10.999  25.091  21.317  0.4465 -0.0606  0.2502
46447W        W89360  14.453  32.818  26.623  0.0317 -0.0689  0.0436
46448W        W89361  22.455  17.743  20.363 -0.0383 -0.0589 -0.1463
46449W        W89362  12.612  22.214  20.474  0.1393 -0.0203 -0.0830
46450W        W89363  11.226  21.818  17.360  0.0713 -0.0473 -0.2280
46451W        W89364   7.047  24.934  14.894  0.3869 -0.1923  0.0627
46452W        W89365  32.409  13.001  28.940 -0.5492 -0.1971 -0.0042
46453W        W89366   6.965  33.626  18.282  0.1338  0.0670 -0.2301
46454W        W89367   6.246  20.011  13.866 -0.0520  0.1310 -0.0433
46455W        W89368   2.909  31.591  17.659  0.1699  0.0423 -0.0001
46456W        W89369  33.142  31.395  24.603  0.1093 -0.2687  0.0199
46457W        W89370  10.672  30.061  19.863  0.1762  0.0729 -0.5273
46458W        W89371  12.745  24.313  22.246  0.2429 -0.2652 -0.1033
46459W        W89372  11.598  29.305  21.221  0.2898  0.0047 -0.0367
46460W        W89373   7.654  11.600   2.573 -0.1550  0.0297  0.2921
46461W        W89374   9.086  19.490  16.868 -0.0364 -0.2263 -0.0875
46462W        W89375  18.466  28.841  15.137 -0.1687 -0.2981 -0.0173
46463W        W89376  13.188  29.394  21.040 -0.1128 -0.2322  0.0297
46464W        W89377   4.568  21.862  15.352 -0.2282 -0.3155 -0.2406
46465W        W89378   2.526  20.370  16.921  0.0600 -0.0656 -0.0411
46466W        W89379   5.127  27.026  20.947 -0.3476  0.1854 -0.2126
46467W        W89380   7.621  18.507  18.190  0.2050 -0.0861  0.3859
46468W        W89381   0.150  19.014  14.084  0.0190 -0.1135  0.0233
46469W        W89382   9.735  15.483  16.708 -0.0294 -0.1686  0.0002
46470W        W89383   4.189  22.183  15.119  0.0106 -0.0846 -0.0073
46471W        W89384  13.898  19.601  22.595 -0.2328 -0.1030  0.3924
46472W        W89385  10.546  22.924  18.798 -0.1424  0.2014  0.1641
46473W        W89386   9.291  21.363  13.968  0.2466  0.0803 -0.1392
46474W        W89387   5.148  16.565  16.399 -0.2762 -0.2274 -0.0085
46475W        W89388   0.763  24.231  24.677  0.0499  0.2180  0.1067
46476W        W89389  16.304  27.737  27.863  0.1911  0.0699  0.1217
46477W        W89390   7.328  22.911  23.495 -0.0139  0.4137  0.0365
46478W        W89391  17.700  10.969  21.310 -0.2711  0.0322 -0.1175
46479W        W89392   9.782  21.457  20.121 -0.1941 -0.1264 -0.2092
46480W        W89393   9.048  14.376  14.093  0.0716 -0.1205  0.0592
46481W        W89394   4.082  20.015  20.265  0.0860 -0.0228  0.1036
46482W        W89395  23.969  14.534  17.940  0.1982  0.2092 -0.2081
46483W        W89396   2.275  28.298  29.270 -0.1026  0.1060 -0.1541
46484W        W89397   9.410  32.302  25.464  0.1760  0.0706 -0.0206
46485W        W89398  29.333  20.504  29.363  0.1282 -0.0869  0.2402
46486W        W89399   4.344  16.142  14.204  0.3784  0.0308  0.2408
46487W        W89400  15.821  29.733  20.167  0.1000 -0.1209  0.0423
46488W        W89401   9.756  31.792  18.294 -0.1822 -0.1397 -0.1289
46489W        W89402   2.069  22.621  24.166  0.1426  0.1510 -0.0437
46490W        W89403   3.843  23.067  24.260  0.1970  0.1288  0.1350
46491W        W89404  11.974  15.922  12.496  0.0068 -0.1063  0.0277
46492W        W89405  13.181  17.890  13.270  0.5183 -0.1635 -0.0904
46493W        W89406  11.176  16.880  14.456 -0.2214  0.1332  0.0754
46494W        W89407   1.082  14.181  15.892 -0.1475 -0.1455 -0.0670
46495W        W89408   9.389  22.260  14.895  0.0011 -0.1041  0.4522
46496W        W89409   6.080  28.236  23.194  0.0132 -0.0552  0.3567
46497W        W89410  22.595  22.562  17.254 -0.1842  0.1605 -0.4878
46498W        W89411  33.087  21.935  23.015 -0.3007 -0.5176 -0.0852
46499W        W89412   8.351  29.012  21.078  0.1389 -0.3110 -0.0414
46500W        W89413  16.352  27.491  26.296  0.0202  0.1628 -0.3527
46501W        W89414   7.454  19.030  21.916 -0.3377 -0.1402  0.1716
46502W        W89415  21.826  21.717  14.528 -0.0810  0.2526  0.0375
46503W        W89416   0.132  23.996  29.278  0.1190  0.1717  0.1276
46504W        W89417   0.141  25.592  15.304 -0.0068 -0.1082 -0.1573
46505W        W89418   0.442  33.751  17.644  0.0774  0.1621  0.2935
46506W        W89419  17.612  26.775  21.967  0.0096  0.0644  0.0920
46507W        W89420  12.044  28.827  16.355 -0.1645  0.0048 -0.2602
46508W        W89421  12.571  25.783  14.679 -0.2279  0.2408  0.3006
46509W        W89422   9.018  26.917  18.238  0.1829  0.0803  0.0333
46510W        W89423   7.738  21.819   0.167 -0.2275  0.2537 -0.1252
46511W        W89424   4.795  20.076  17.192 -0.0492 -0.1834 -0.2575
46512W        W89425   9.997  12.869  21.487  0.0093 -0.0981 -0.3510
46513W        W89426  19.530  25.105  15.417  0.2673 -0.3124  0.0712
46514W        W89427  10.952  13.804  23.236 -0.2810 -0.0151  0.2942
46515W        W89428   1.211  13.294  15.824 -0.3076 -0.0640 -0.0352
46516W        W89429  16.110   8.475  14.625  0.1049 -0.2860 -0.0325
46517W        W89430  12.571  31.731  26.433 -0.3103 -0.0413  0.2001
46518W        W89431   6.302  23.168  25.049  0.0202 -0.0887 -0.2146
46519W        W89432  32.266  26.495  15.992 -0.2870  0.0110 -0.2534
46520W        W89433   5.171  17.381  14.811  0.2945  0.0010  0.4140
46521W        W89434  24.119  22.136  13.017  0.0800 -0.0516  0.2304
46522W        W89435  16.581  28.939  21.762 -0.2418 -0.1825  0.2851
46523W        W89436  10.299  22.553  27.554 -0.0747  0.3115 -0.0375
46524W        W89437   9.870  23.789  14.685  0.2614  0.1953 -0.0052
46525W        W89438   7.610  26.865  20.604  0.1510 -0.2423  0.0116
46526W        W89439   3.287  17.631  16.133 -0.1233  0.1104  0.0501
46527W        W89440  15.203  26.749  25.844  0.0536  0.0475 -0.0530
46528W        W89441  14.956  21.534  15.169  0.5825  0.1199  0.1973
46529W        W89442   5.926  22.809  17.694 -0.1940  0.2951 -0.0285
46530W        W89443  33.917  13.315  14.633 -0.2845  0.0388  0.1965
46531W        W89444  10.252  24.868  22.630  0.3474 -0.2558  0.0891
46532W        W89445  17.829  22.972  18.683  0.0650  0.1866 -0.2840
46533W        W89446  11.325  28.192  18.395 -0.0439  0.1733 -0.1163
46534W        W89447  11.898  15.834  17.044 -0.3999  0.1550  0.2277
46535W        W89448   9.416  24.091  21.426 -0.1153  0.1104  0.1264
46536W        W89449  11.615  16.991  14.016  0.2552 -0.0818 -0.3353
46537W        W89450  33.800  16.164  13.734  0.0760 -0.1023 -0.0270
46538W        W89451   5.394  22.280  15.638  0.0641 -0.0318 -0.0275
46539W        W89452  10.647  31.185  27.588  0.2134 -0.2336  0.0087
46540W        W89453  25.738  24.881  14.504 -0.0927 -0.0103 -0.0652
46541W        W89454  12.605  33.141  19.696  0.1441 -0.3891  0.0752
46542W        W89455  20.276  31.279  18.200  0.3306  0.1775 -0.0030
46543W        W89456  23.953  25.843  17.396  0.3620 -0.0256  0.3124
46544W        W89457   9.531  29.619  16.664 -0.1572 -0.0551 -0.0391
46545W        W89458  16.033  26.827  19.892  0.2491  0.2026 -0.0438
46546W        W89459  14.543  15.864  24.029 -0.1132 -0.2400 -0.2784
46547W        W89460  21.649  29.426  14.658  0.1485  0.4006  0.0484
46548W        W89461  19.253  24.642   0.185 -0.1031 -0.0953 -0.0049
46549W        W89462  15.343  10.136  15.722  0.2180  0.1313 -0.1783
46550W        W89463  11.990  21.195  17.195  0.0339  0.2373 -0.2299
46551W        W89464  12.812  20.581  22.518 -0.2856 -0.6081 -0.1840
46552W        W89465  10.848  17.165  22.367 -0.0527  0.2531 -0.1609
46553W        W89466   2.358  18.128  21.521  0.1036 -0.1312  0.0094
46554W        W89467  10.827  23.158  15.395 -0.0125 -0.0841 -0.1721
46555W        W89468  18.904  11.351  14.765  0.1326 -0.0065  0.1539
46556W        W89469   7.274  33.148   1.419  0.2213  0.0795  0.1512
46557W        W89470   9.462  26.203  25.005  0.2532 -0.2791  0.1844
46558W        W89471   2.224  18.193  15.745 -0.1392 -0.0631 -0.3665
46559W        W89472  13.015  20.014  26.994 -0.0925  0.0091 -0.5821
46560W        W89473  10.733  11.727  22.547  0.1702  0.1003 -0.0883
46561W        W89474  30.100   0.630  28.714 -0.0810 -0.2361  0.0961
46562W        W89475   9.162  17.705  29.073 -0.0102  0.2217  0.1071
46563W        W89476  14.890  16.746  13.136  0.3246 -0.0970 -0.1949
46564W        W89477  11.885  22.223  17.720  0.0146  0.2497 -0.3844
46565W        W89478   4.817  25.028  18.648  0.0876 -0.0834  0.2268
46566W        W89479  10.603  24.680  20.452  0.2454  0.3925  0.2899
46567W        W89480   7.567  31.396  26.267 -0.1527  0.1368 -0.2683
46568W        W89481   7.944  31.678  16.565  0.1349 -0.0013  0.0145
46569W        W89482   9.735  26.345  16.003  0.0373 -0.0203  0.0257
46570W        W89483   9.926  19.729  19.238 -0.4865 -0.1094  0.0438
46571W        W89484   5.733  24.043  15.148  0.2361  0.0150 -0.0413
46572W        W89485   2.693  23.708  17.538 -0.0408  0.1476  0.0788
46573W        W89486   3.586  29.999  17.082 -0.0454  0.1301 -0.2924
46574W        W89487   3.399  31.972   4.141 -0.1337  0.3215  0.0521
46575W        W89488  13.068  30.652  22.702 -0.1887  0.3884 -0.1805
46576W        W89489   6.692  30.646  21.503  0.2618 -0.1619  0.2505
46577W        W89490  13.826  18.666  22.173  0.1484  0.0665  0.1562
46578W        W89491  12.565  26.250  28.343  0.0942  0.3198  0.1631
46579W        W89492   3.237  14.488   1.851 -0.1659  0.0728 -0.1284
46580W        W89493   7.070   3.017  28.781  0.1262  0.1630  0.4096
46581W        W89494  11.707  17.997  15.800  0.1124  0.2108 -0.0811
46582W        W89495  34.004  20.999  17.839 -0.2041 -0.0220  0.1890
46583W        W89496   4.458  31.216  21.439  0.3738 -0.0339 -0.1734
46584W        W89497  13.321  25.556  14.314  0.0315 -0.5712  0.2116
46585W        W89498   8.252  29.666  29.099 -0.2564 -0.2825 -0.1408
46586W        W89499  17.360  29.554  18.570 -0.1111 -0.1036  0.1428
46587W        W89500   9.136  17.260  18.830 -0.0440 -0.2051  0.2086
46588W        W89501  11.626  26.484   4.597  0.2348 -0.2852  0.1482
46589W        W89502   7.352  27.005  21.746  0.1926  0.0929  0.3025
46590W        W89503  13.633  18.010  28.707 -0.0424 -0.0750 -0.1701
46591W        W89504  11.813  29.169  20.757 -0.0777 -0.0222  0.2836
46592W        W89505   9.751  31.071   7.215 -0.2878  0.0266  0.0507
46593W        W89506   1.854  23.871  19.618 -0.1150 -0.1322  0.2815
46594W        W89507  20.129  27.341  21.348  0.3290  0.1126  0.2556
46595W        W89508   7.400  29.536  15.593 -0.0690  0.2829 -0.0079
46596W        W89509  14.966  21.282  20.729 -0.2990  0.1774 -0.1154
46597W        W89510   3.179  29.134  26.263  0.0258  0.1120  0.1982
46598W        W89511  10.462  19.425  27.126 -0.0588 -0.0055 -0.0093
46599W        W89512   3.845  19.540  15.010  0.1184  0.1032  0.1153
46600W        W89513   8.558   8.641  21.967  0.0038  0.2620 -0.0943
46601W        W89514  13.899  25.342  19.903 -0.0710 -0.2190  0.1331
46602W        W89515  29.109  20.806   2.099  0.1043  0.1030 -0.0156
46603W        W89516   0.541  30.793  21.885 -0.1903 -0.1806  0.0413
46604W        W89517   8.442  10.585  27.046 -0.0430 -0.1696 -0.3056
46605W        W89518   2.792  31.742   2.049  0.1387  0.2574 -0.4437
46606W        W89519  16.070  19.204  13.658 -0.0790 -0.1980 -0.0110
46607W        W89520  14.372  24.295  18.028 -0.1008 -0.2612 -0.1177
46608W        W89521  10.315  10.080  20.149  0.1314 -0.1848 -0.0771
46609W        W89522   9.296  19.022  14.777  0.0346  0.2576 -0.1300
46610W        W89523   1.913  15.790  20.297  0.0901 -0.2699  0.0830
46611W        W89524   5.730  17.296  16.646  0.0243  0.2789  0.1441
46612W        W89525  14.816  17.967  27.850  0.0086  0.1660 -0.1813
46613W        W89526  11.541  23.899   1.098  0.0472  0.1210 -0.0268
46614W        W89527  13.715  13.616  15.343  0.0817  0.0376  0.0461
46615W        W89528  32.015  32.485  23.141 -0.1959  0.1472  0.0351
46616W        W89529  13.928  23.481  26.236 -0.2756 -0.0699 -0.0638
46617W        W89530   8.009  30.354  21.635 -0.3821 -0.2292 -0.2369
46618W        W89531   5.409  17.797  24.004  0.1549 -0.0362  0.0383
46619W        W89532   7.436  12.198  14.857  0.1084 -0.1617  0.2453
46620W        W89533  14.151  17.388  12.446 -0.2745 -0.0369  0.0726
46621W        W89534   3.286  23.779  18.915 -0.1189 -0.0394 -0.2376
46622W        W89535   7.218  30.598  26.326 -0.0011 -0.1602  0.3350
46623W        W89536  11.962  28.457   3.688 -0.0838  0.0063 -0.1788
46624W        W89537  13.685  21.970  16.411  0.2369  0.3250 -0.1121
46625W        W89538   6.038  20.889  19.564 -0.0876  0.1931 -0.0156
46626W        W89539   2.207  17.202  21.221  0.0202  0.1737  0.0331
46627W        W89540   5.922  26.350   0.691 -0.0165  0.0227 -0.2037
46628W        W89541  20.963  26.486  22.972  0.1867 -0.1264  0.2245
46629W        W89542   0.037  29.375  16.142 -0.3729 -0.1301  0.0690
46630W        W89543  16.044  22.126  19.962 -0.2594 -0.0908 -0.0912
46631W        W89544   5.391  21.117  23.077 -0.0634  0.0033 -0.0171
46632W        W89545  33.817  13.278  20.952 -0.2052 -0.0107  0.2213
46633W        W89546   6.770  33.149  20.805 -0.0655 -0.1314  0.1548
46634W        W89547   7.961  22.633  18.542  0.2740 -0.2010  0.1283
46635W        W89548  19.423  14.371  15.160 -0.3251 -0.3808 -0.1845
46636W        W89549  11.377   9.539  25.552  0.1599 -0.1986 -0.0964
46637W        W89550  10.094  19.210  17.138 -0.2487 -0.1276  0.2030
46638W        W89551   4.911  18.470  16.196  0.0794  0.2628 -0.1060
46639W        W89552   9.057  21.701  17.646  0.0338  0.2252 -0.5013
46640W        W89553   3.072  18.248  26.224 -0.1797  0.3126  0.0125
46641W        W89554   6.063  18.479  18.808  0.0696 -0.0727 -0.1399
46642W        W89555   8.513  21.184  19.409 -0.1344  0.3816 -0.4378
46643W        W89556  11.571  23.022  25.358 -0.1240 -0.0087  0.0764
46644W        W89557   6.293  25.515  24.044  0.3678  0.1314  0.1785
46645W        W89558   7.711  18.588  21.909 -0.2039  0.1380 -0.1019
46646W        W89559   5.609  28.230   2.828  0.2719  0.0372 -0.0817
46647W        W89560  12.527  25.782  23.482 -0.0786  0.0723 -0.1431
46648W        W89561  11.069  33.197  20.232 -0.0863  0.1377  0.1002
46649W        W89562  30.338  16.857  23.867 -0.1855  0.3688 -0.0546
46650W        W89563   4.438  13.408  16.771 -0.0422  0.1791 -0.3653
46651W        W89564   1.429  20.696  21.012 -0.2602 -0.1627 -0.0942
46652W        W89565   6.872  20.096  22.244 -0.0339  0.0984  0.0558
46653W        W89566  12.285  22.676  22.501 -0.0274  0.1540 -0.3759
46654W        W89567  20.271  29.460  26.795 -0.0200  0.1420  0.1428
46655W        W89568   4.155  27.424  28.252 -0.0067  0.2089  0.2869
46656W        W89569   7.419  26.607  20.991 -0.3180 -0.1592 -0.3010
46657W        W89570   1.719  30.032  21.067 -0.0671 -0.2722 -0.2028
46658W        W89571  30.063  23.037  22.905  0.0616  0.3383  0.1049
46659W        W89572  10.448  16.869  15.815  0.0196  0.3593  0.0956
46660W        W89573   8.936  25.237  27.586 -0.1841  0.2472  0.0991
46661W        W89574  13.932  18.707  24.380 -0.0702  0.1422 -0.0112
46662W        W89575   6.777  24.060  25.453  0.0101 -0.1558  0.1776
46663W        W89576   4.089  26.654  24.715  0.1401 -0.0369  0.2260
46664W        W89577   7.089  22.804  19.397  0.1076 -0.1453 -0.0539
46665W        W89578   3.439  19.274  22.680  0.1292 -0.1242  0.1359
46666W        W89579  22.284  34.209  15.492 -0.0636  0.1021  0.0099
46667W        W89580  21.343  12.074  18.111  0.2072 -0.1354 -0.0530
46668W        W89581  27.322  21.870   2.056 -0.0955 -0.0520  0.3332
46669W        W89582  32.366  18.451  16.638 -0.1885  0.1683  0.2572
46670W        W89583  15.761  22.428  14.353  0.0126 -0.3769  0.0417
46671W        W89584  17.653  24.612   0.437 -0.0122  0.2260  0.0611
46672W        W89585  13.752  20.065  23.699 -0.0167 -0.0383  0.0784
46673W        W89586   9.336  21.257  19.973  0.1011  0.3098  0.1450
46674W        W89587   8.848  17.974  26.953  0.1140  0.2361  0.0253
46675W        W89588  32.455  13.361  25.189 -0.0166  0.0363 -0.3455
46676W        W89589   4.246  19.083  20.042 -0.1667  0.0293  0.1360
46677W        W89590  14.800  23.310  24.024 -0.2475  0.2860  0.2928
46678W        W89591  16.654  21.931  24.333  0.1497 -0.2353 -0.5122
46679W        W89592  11.234  31.367  22.038 -0.0734 -0.2547  0.1510
46680W        W89593   8.267  17.639  29.034 -0.3000 -0.0673 -0.2540
46681W        W89594  18.068  29.780  14.849  0.0267 -0.2174 -0.0437
46682W        W89595  22.787  19.342  13.200  0.0729  0.1059 -0.1388
46683W        W89596  31.245  25.608   5.957 -0.1511  0.1641 -0.3383
46684W        W89597   3.794  20.929   3.660 -0.2815 -0.2431  0.0582
46685W        W89598  22.667  22.100  16.926 -0.2156  0.2132  0.1555
46686W        W89599   3.864  22.129  17.610 -0.1330 -0.0515 -0.2823
46687W        W89600   5.927  18.188  27.341  0.2163  0.1493  0.0109
46688W        W89601  22.119  24.661  21.462  0.1024  0.0304 -0.0941
46689W        W89602  12.710  32.292  17.753  0.1344  0.0528  0.1281
46690W        W89603  34.066  20.205   6.904  0.0728  0.1348 -0.3089
46691W        W89604   5.182   1.753  27.337 -0.0734  0.3845  0.2066
46692W        W89605   7.242  21.673  15.186  0.0916  0.2861 -0.1470
46693W        W89606   6.410  17.970   4.263 -0.1942 -0.0615  0.1992
46694W        W89607   6.588  20.594  18.810  0.0175 -0.0410 -0.0328
46695W        W89608  16.319  18.079  26.819 -0.1018  0.0337  0.0676
46696W        W89609  10.013  27.570  16.208  0.1599 -0.2077 -0.0009
46697W        W89610   0.330  14.077  25.802 -0.4810 -0.0525 -0.0163
46698W        W89611  16.190  13.006  13.084 -0.1344 -0.0186 -0.0543
46699W        W89612   1.501  13.023  16.571 -0.4173  0.0393 -0.0936
46700W        W89613   2.335  27.225  20.671 -0.3817 -0.2027  0.0147
46701W        W89614   6.217  26.142  26.755  0.0899  0.1408  0.4308
46702W        W89615  33.928  21.364  19.435 -0.1264  0.0908 -0.1346
46703W        W89616   6.534  18.679  21.076  0.1404 -0.0212 -0.2661
46704W        W89617  19.439  22.355  15.008 -0.0405 -0.1698  0.1702
46705W        W89618   6.198  15.685  26.560  0.1718  0.1054 -0.1986
46706W        W89619   3.741  18.316  24.203 -0.1110 -0.1115  0.0109
46707W        W89620  18.014  28.695  17.059 -0.1631 -0.3384  0.0146
46708W        W89621   5.708  14.459  27.286  0.2711 -0.1589 -0.0410
46709W        W89622   0.928  17.943  13.971  0.2820  0.0981  0.2613
46710W        W89623   6.974  12.742  16.579  0.0206  0.2162  0.0685
46711W        W89624  19.540  20.697  13.457  0.4090 -0.0881  0.0642
46712W        W89625   8.777  25.155  19.401 -0.1885  0.0561  0.0043
46713W        W89626  18.862  30.147  15.195 -0.0734  0.2472 -0.0883
46714W        W89627   3.399  16.870  14.464 -0.2586 -0.5643  0.1471
46715W        W89628   7.789  19.281  22.947  0.0051  0.1194  0.1483
46716W        W89629   5.999  29.625  18.348  0.1239  0.5432 -0.0953
46717W        W89630   1.696  15.926  22.331  0.1007  0.0440 -0.0206
46718W        W89631  13.132  24.931  29.540 -0.5124 -0.1946  0.1099
46719W        W89632  13.245  22.694  20.099 -0.0299 -0.0876  0.1109
46720W        W89633   7.802  27.989  27.585  0.0170 -0.1381  0.1031
46721W        W89634   1.794  17.092  26.125  0.1029  0.2846  0.1346
46722W        W89635   2.487  31.864  18.019  0.3087  0.0028  0.0910
46723W        W89636  15.131  24.958  14.198 -0.0325  0.2066  0.0366
46724W        W89637  27.469  33.286  20.295  0.1236 -0.2399 -0.3525
46725W        W89638   6.725  18.774  22.327 -0.1154  0.0735  0.2324
46726W        W89639  10.509  25.047  14.374  0.2024 -0.0314 -0.0183
46727W        W89640   8.088  19.061  25.567 -0.1806  0.0455 -0.2357
46728W        W89641  33.888  29.244  19.193 -0.0435 -0.0647 -0.2382
46729W        W89642  16.441  13.179  17.912  0.1108  0.3500 -0.0174
46730W        W89643   5.704  31.872  24.357 -0.5790  0.1865 -0.0476
46731W        W89644   3.472  30.659  15.310 -0.0208 -0.3009 -0.1313
46732W        W89645  10.967  23.978  20.670 -0.2037  0.0297 -0.1494
46733W        W89646   6.710  23.660  25.157 -0.0828  0.0246 -0.5641
46734W        W89647   0.808  23.127  16.609  0.0694  0.1605 -0.0679
46735W        W89648   9.022  27.914  25.262  0.1114  0.2764  0.4064
46736W        W89649   4.229  18.116  17.995  0.1989  0.0698 -0.3271
46737W        W89650  14.735  22.462   1.257  0.2753  0.1522 -0.1499
46738W        W89651   1.839  28.336  26.547 -0.0337 -0.0525 -0.1878
46739W        W89652   8.831  12.878  26.054  0.0557 -0.0815  0.2744
46740W        W89653  31.758  19.019  28.724 -0.1901  0.1296  0.0798
46741W        W89654   9.632  20.420  25.477 -0.2293 -0.3699  0.0206
46742W        W89655  17.348  16.628  13.701  0.0980  0.2279  0.1449
46743W        W89656  14.628   7.222  26.752 -0.2233  0.2362 -0.2242
46744W        W89657  17.030  25.577  20.299  0.0657  0.2145 -0.2689
46745W        W89658  31.027  25.621  17.031 -0.0446 -0.3417 -0.1471
46746W        W89659  30.733  28.352  14.054 -0.1887  0.1046  0.3930
46747W        W89660   3.853  32.737  18.068 -0.3644  0.1071  0.1213
46748W        W89661   4.410  20.802  25.612  0.3354 -0.3218 -0.0862
46749W        W89662   6.163  22.290  26.546  0.0085  0.1362  0.1007
46750W        W89663  19.421  13.541  14.854 -0.0380  0.1972 -0.0944
46751W        W89664  17.949  22.744  21.164  0.0539 -0.1737  0.3547
46752W        W89665   1.226  22.589   3.832  0.2473  0.3397  0.0410
46753W        W89666   9.058  25.866  22.474  0.0526  0.1767  0.0149
46754W        W89667   9.554  26.693  20.913  0.0227  0.0260  0.1732
46755W        W89668  10.592  22.436  15.789  0.4530  0.1594 -0.3351
46756W        W89669  17.577  28.386  26.129  0.0374  0.0691 -0.1354
46757W        W89670   5.770  21.559  28.231  0.0536  0.0539 -0.1246
46758W        W89671  32.521  29.808  24.868  0.0502 -0.2703 -0.0801
46759W        W89672  15.338  18.096  27.704  0.0090 -0.1980 -0.1169
46760W        W89673   1.675  25.629   3.203  0.0196  0.1470  0.1676
46761W        W89674  12.969  21.254  14.691  0.0827  0.1652 -0.2874
46762W        W89675   5.657  25.966  14.784  0.0076 -0.0645 -0.1310
46763W        W89676  11.867  29.912  18.148  0.1279 -0.1563  0.3985
46764W        W89677  23.431  31.006  28.285  0.0901 -0.0524  0.0195
46765W        W89678   6.796  15.627  29.049  0.0927 -0.1055  0.0813
46766W        W89679  29.032  25.139  24.124 -0.2567 -0.1767  0.1613
46767W        W89680   2.185  24.797  14.338 -0.0887 -0.2448 -0.0985
46768W        W89681   5.539  21.479  16.130 -0.2424  0.0033  0.1295
46769W        W89682   1.171  20.260  14.246 -0.0909 -0.1801 -0.3867
46770W        W89683   0.861  22.184  16.354 -0.1892 -0.0916 -0.2707
46771W        W89684   6.523  18.722  14.367  0.1614 -0.3285 -0.0228
46772W        W89685  10.976  26.627  17.055 -0.1700 -0.0542 -0.0096
46773W        W89686   0.496  23.959  14.683 -0.2022 -0.1732 -0.3228
46774W        W89687  10.423  20.985  13.586 -0.2261  0.1932  0.0014
46775W        W89688   4.547  20.114  15.660  0.1769  0.0673 -0.1067
46776W        W89689  10.378  31.407   2.525  0.2506  0.0577 -0.0887
46777W        W89690   5.598  27.445   5.662  0.0238  0.1246  0.1274
46778W        W89691  17.989  24.993  23.071  0.2424  0.4908  0.1998
46779W        W89692   2.413  10.336  22.322  0.0025  0.0426 -0.0898
46780W        W89693   9.839  19.257  23.367 -0.0815 -0.0460 -0.0564
46781W        W89694   7.711  28.900  17.819 -0.3155  0.1024  0.0347
46782W        W89695   1.340  22.624  18.534  0.2263 -0.2576  0.0588
46783W        W89696  31.963  28.983  19.007  0.3170 -0.0899 -0.2148
46784W        W89697  34.252  14.665   9.131  0.1156  0.0029  0.0023
46785W        W89698  10.432  22.053  17.767  0.3094 -0.0474  0.1054
46786W        W89699   3.998  29.567  20.186  0.3415 -0.0106  0.4631
46787W        W89700  18.860  27.169  19.682  0.2347  0.0103 -0.3316
46788W        W89701  16.071  25.946  20.986  0.2395 -0.2266  0.3204
46789W        W89702   9.187  11.421  22.206 -0.0229 -0.4226  0.2433
46790W        W89703   0.899  21.140  20.761 -0.4052 -0.2158 -0.1985
46791W        W89704  13.554  23.588  14.367 -0.0011  0.0201  0.2294
46792W        W89705   5.525  13.088   4.366 -0.2828  0.0994 -0.1041
46793W        W89706   1.322   6.001  23.667 -0.1476 -0.0292 -0.0190
46794W        W89707   4.902  21.850  19.061  0.1293  0.2955 -0.0321
46795W        W89708   3.648  21.066  27.324 -0.1421 -0.2329  0.3120
46796W        W89709  20.046   4.495  25.600 -0.0548  0.1991  0.2673
46797W        W89710  33.776  24.958  21.660 -0.0547  0.1051 -0.0345
46798W        W89711  12.980  17.537  16.719  0.0081 -0.1583 -0.2593
46799W        W89712  13.160  23.909  28.850  0.1473 -0.0563  0.0905
46800W        W89713  11.980  25.936   6.429 -0.0558  0.1156 -0.0239
46801W        W89714  13.292  29.947   0.995  0.0181  0.0836 -0.1993
46802W        W89715   5.726  25.909   0.979  0.0791  0.0330  0.0865
46803W        W89716   2.052  24.422  16.709  0.0696 -0.0005  0.3422
46804W        W89717   1.373  29.661  20.801  0.2213  0.0800  0.1563
46805W        W89718   2.737  20.438  29.158 -0.1626  0.0411  0.0558
46806W        W89719   9.640  17.252  27.621 -0.0003 -0.0241  0.0117
46807W        W89720   0.048  11.068  27.833  0.3589 -0.0133  0.0993
46808W        W89721  14.692  31.998  29.227  0.2055 -0.1203  0.1654
46809W        W89722   5.723  24.913  27.202 -0.1439  0.1573 -0.0172
46810W        W89723   0.550  29.646  24.025  0.0306  0.1707 -0.1084
46811W        W89724   4.625  31.103  24.592 -0.0741 -0.1604 -0.1285
46812W        W89725  13.222  27.357  27.810  0.0264  0.2781  0.0342
46813W        W89726   0.028  29.735  23.532 -0.0089  0.0470  0.1123
46814W        W89727  34.432  19.109  19.172 -0.1849 -0.0329  0.0164
46815W        W89728   2.496  17.707  16.319  0.0559 -0.0021  0.1303
46816W        W89729  17.872  31.045  25.417  0.0190  0.1083  0.2521
46817W        W89730   4.629  12.043  23.368  0.1980 -0.1085  0.4495
46818W        W89731  11.274  14.945   0.207  0.2138 -0.0799 -0.1340
46819W        W89732  13.857  22.422  24.508 -0.0827 -0.1164 -0.2294
46820W        W89733  10.053   0.063  18.102 -0.1935  0.0473 -0.1678
46821W        W89734   4.763  24.390  14.732  0.1844 -0.0776  0.0066
46822W        W89735   6.584  15.402  23.581  0.0134  0.0994  0.2435
46823W        W89736  12.051  18.726  14.480  0.2163 -0.0007  0.0210
46824W        W89737   7.885  27.747  18.686  0.1063 -0.3093 -0.1679
46825W        W89738   8.374  24.975   2.526 -0.3810 -0.1303 -0.0275
46826W        W89739   3.382  25.895  27.955 -0.0277 -0.1028  0.0994
46827W        W89740   2.037  29.509   2.777  0.1004 -0.3020 -0.1880
46828W        W89741   6.380  21.533   2.673  0.0880 -0.0270  0.3315
46829W        W89742   2.385  14.353  17.884  0.2006 -0.1111 -0.2922
46830W        W89743   0.261  22.604  19.732 -0.0917 -0.0072 -0.0142
46831W        W89744  31.665  24.709  26.973 -0.1007  0.4747  0.2389
46832W        W89745  28.552  16.646  20.979 -0.0117  0.1104  0.4826
46833W        W89746   4.115  20.594   3.941  0.1658 -0.0343  0.1056
46834W        W89747  17.096   1.418  22.390 -0.2170  0.1239  0.2460
46835W        W89748  21.001  23.381  17.970  0.1453  0.0405 -0.0016
46836W        W89749   3.224  14.585  21.521  0.2793  0.4189 -0.3341
46837W        W89750  11.169  13.050   6.765  0.3993 -0.1466 -0.0169
46838W        W89751   1.473   0.922   8.147 -0.2267  0.3228  0.0769
46839W        W89752  13.948  12.297  12.427 -0.1628 -0.0332 -0.1211
46840W        W89753   6.328  13.457  23.275  0.1080  0.1930 -0.0456
46841W        W89754  11.572  19.491  21.735 -0.0819 -0.2461  0.1305
46842W        W89755  14.012  23.653  18.071  0.0529  0.1766 -0.1104
46843W        W89756   5.173  24.782  20.552 -0.1300  0.0300 -0.0098
46844W        W89757  10.265  19.271  29.576  0.0792  0.2123 -0.1273
46845W        W89758  22.128  19.001  15.658  0.1971  0.0302  0.1412
46846W        W89759   9.623  21.412  26.271  0.2450  0.1074 -0.1585
46847W        W89760   2.239  23.350   4.366  0.0303 -0.0707  0.0822
46848W        W89761   9.301  24.898  24.857  0.1270 -0.1886  0.1661
46849W        W89762  18.453  25.518  19.705 -0.0416  0.0249 -0.0820
46850W        W89763  12.877  22.495  21.812  0.1423 -0.3118  0.0103
46851W        W89764  15.564  25.593  20.610  0.0659 -0.2432  0.0884
46852W        W89765  34.409  18.544  20.020  0.1069  0.0891  0.0623
46853W        W89766  33.049  17.707  20.916 -0.2516  0.2654  0.2927
46854W        W89767   9.511  12.034  16.563 -0.0159 -0.2048 -0.0322
46855W        W89768  19.035  10.804  19.216 -0.2824  0.0400  0.2619
46856W        W89769   9.547  16.646  17.361  0.0375 -0.2618  0.0865
46857W        W89770   0.551  22.811  26.487 -0.0206 -0.0931 -0.0010
46858W        W89771  27.729  24.606  19.926 -0.2585 -0.1545 -0.1672
46859W        W89772   8.972  30.695  16.007 -0.1510 -0.0292 -0.0782
46860W        W89773   7.389  20.326  16.421 -0.1993 -0.3470  0.2311
46861W        W89774   9.067  25.920  14.665 -0.1523 -0.3511  0.0200
46862W        W89775   7.552  25.538  26.383  0.1470 -0.1971  0.1032
46863W        W89776  15.838  26.902  21.479 -0.4040  0.1627 -0.1645
46864W        W89777   7.973  11.444  26.442  0.3741  0.0804 -0.1702
46865W        W89778  10.436  21.056  17.018  0.1413 -0.0773 -0.3722
46866W        W89779  14.490  28.295  21.827 -0.0719 -0.0267 -0.2653
46867W        W89780  25.728  20.463  24.017 -0.1700 -0.0243 -0.0452
46868W        W89781   0.165  18.137  23.829 -0.3039  0.0384 -0.1111
46869W        W89782  18.808  18.230  13.501 -0.2211 -0.4486  0.2711
46870W        W89783  12.906  24.169  21.310  0.2640 -0.2544 -0.2267
46871W        W89784   1.432  24.446  21.854  0.0139  0.0543 -0.1050
46872W        W89785   0.267   2.827   0.923 -0.1364 -0.1510 -0.3493
46873W        W89786   1.707  23.830  14.609 -0.0794 -0.1840 -0.1222
46874W        W89787  11.527  21.153   3.237 -0.1214  0.1399  0.0080
46875W        W89788  23.025  15.627  23.352 -0.2427  0.1575 -0.0259
46876W        W89789  15.363  16.023  14.782  0.1698 -0.1467  0.0580
46877W        W89790  18.229   6.459  15.558  0.2465 -0.0897  0.2256
46878W        W89791  14.426  10.715  28.508 -0.0942  0.0992 -0.2805
46879W        W89792  12.276  26.122  19.594 -0.0091 -0.2801 -0.0008
46880W        W89793   4.331  25.608  28.602 -0.0110  0.3840  0.1504
46881W        W89794  11.500  21.768  21.041  0.0051  0.0571 -0.0949
46882W        W89795   1.773  21.836  23.344  0.0363  0.4009  0.0553
46883W        W89796  12.827  27.009  27.884  0.0070 -0.0446 -0.1111
46884W        W89797   5.286  12.775  27.729  0.0698 -0.2404 -0.2654
46885W        W89798  11.108  20.631   9.052 -0.3228  0.2222 -0.2393
46886W        W89799   4.848  19.403  29.585 -0.1264 -0.0085  0.2306
46887W        W89800  34.198  18.509  14.910  0.0254  0.0643 -0.2151
46888W        W89801  30.712  31.297  21.743  0.1459  0.0560 -0.1461
46889W        W89802  18.064  19.548  14.715 -0.2757  0.0529  0.2654
46890W        W89803   8.871  34.190   0.957 -0.0649 -0.2687 -0.1612
46891W        W89804  13.439   0.772  22.824  0.2853 -0.2298 -0.0394
46892W        W89805   8.208  20.748   7.820  0.3210  0.0046 -0.1283
46893W        W89806   9.757  23.408  28.269 -0.0101 -0.0361 -0.1624
46894W        W89807   2.027  19.544  19.037 -0.0842  0.3787  0.2185
46895W        W89808   3.751  24.559  29.602 -0.1858  0.0610 -0.0397
46896W        W89809   5.822  21.854  28.707  0.0423  0.1762  0.2258
46897W        W89810   8.896  10.170  17.414  0.0907  0.0069 -0.2096
46898W        W89811   2.529  12.795  20.772  0.0453 -0.3790  0.1968
46899W        W89812  11.378  16.426  21.363  0.0353  0.0384 -0.1200
46900W        W89813  15.406  16.809  12.988 -0.3939 -0.0922 -0.3683
46901W        W89814   7.070  28.407  16.843 -0.0725  0.0645  0.0368
46902W        W89815  24.751  31.916  23.789 -0.1881 -0.5743 -0.0750
46903W        W89816   9.617  28.318  22.697 -0.0399  0.2272  0.0613
46904W        W89817  16.048  32.254  21.845 -0.1200 -0.0930  0.1848
46905W        W89818  31.930   5.899  17.747 -0.2953  0.2874  0.2655
46906W        W89819  10.355  29.371  19.432  0.1491  0.0153 -0.0885
46907W        W89820   9.791  26.052  24.371  0.1568  0.0136  0.2372
46908W        W89821  10.544  18.060  26.750 -0.1285 -0.0857 -0.0347
46909W        W89822   3.275  18.514  19.213 -0.0685 -0.0978 -0.3255
46910W        W89823   7.516  23.879  14.015  0.4218  0.0051 -0.2507
46911W        W89824  11.765  28.821   5.167 -0.1590 -0.1550 -0.0722
46912W        W89825  10.087  16.573  18.629 -0.2651 -0.0516 -0.2263
46913W        W89826  10.102  17.416   2.525  0.0072  0.2625  0.0962
46914W        W89827   1.640  18.399  29.630  0.2484  0.0727  0.1724
46915W        W89828   8.119  18.202  15.175 -0.1700 -0.1552  0.3011
46916W        W89829   6.830  31.869   0.736  0.1479  0.0712  0.1964
46917W        W89830   4.010  17.707  29.620 -0.1315  0.0577 -0.1038
46918W        W89831   0.529  19.851  20.565 -0.1995  0.0603  0.1269
46919W        W89832  10.132  26.181  18.409 -0.3408 -0.1254  0.1014
46920W        W89833  28.509  25.212  26.327 -0.0545  0.1502  0.0276
46921W        W89834  11.235  23.499  18.906 -0.3392  0.2975  0.2403
46922W        W89835   6.067  24.236  14.475 -0.1564 -0.1302 -0.0604
46923W        W89836  17.952  29.593  20.157  0.0802  0.1250  0.1385
46924W        W89837  11.025  25.317   7.102 -0.1876  0.0514  0.3351
46925W        W89838   9.079   3.987  20.247  0.1158  0.0824  0.0586
46926W        W89839  18.097   8.445  24.411 -0.1318 -0.1113 -0.0666
46927W        W89840  14.885  21.100  22.374  0.0202 -0.0926  0.2107
46928W        W89841   5.243  28.367   7.723  0.1150 -0.0219 -0.2746
46929W        W89842   8.585  25.969  15.526  0.0916  0.1688  0.3033
46930W        W89843   0.713  18.626  27.879  0.0922  0.0485 -0.0459
46931W        W89844  16.369  14.305  25.602  0.0171 -0.1256  0.2792
46932W        W89845   5.906  21.008  28.020 -0.0220 -0.0584  0.1055
46933W        W89846   0.723  26.112  18.292  0.1083 -0.1954  0.0500
46934W        W89847  13.724  28.013  24.603 -0.0947 -0.0812 -0.2178
46935W        W89848   0.134  23.935  19.166  0.1149 -0.0296 -0.0916
46936W        W89849  13.064  30.656   3.309 -0.0804  0.0622  0.1371
46937W        W89850  18.921  26.284  27.901  0.1132 -0.2705 -0.1502
46938W        W89851  11.140  30.168  28.527 -0.1418 -0.1193 -0.2185
46939W        W89852  11.441  22.893   8.745 -0.0212 -0.1022 -0.1922
46940W        W89853   2.501  26.473  22.635 -0.0447  0.0381 -0.1237
46941W        W89854  12.813  25.288  16.357 -0.1095  0.1563 -0.1084
46942W        W89855  13.113  20.894  21.970 -0.1702  0.3653 -0.0717
46943W        W89856  15.601  17.660   0.972  0.0043  0.2841  0.0702
46944W        W89857  13.569  26.548  16.941 -0.2726  0.1654  0.1453
46945W        W89858  13.357  25.697  25.624  0.1226  0.1611 -0.1967
46946W        W89859   6.230  15.514  19.640  0.3899 -0.0492 -0.1737
46947W        W89860  30.493  25.033  27.449  0.0505 -0.2199  0.0268
46948W        W89861  33.526  19.289  26.512 -0.0098 -0.3111 -0.2111
46949W        W89862   8.994  15.001  17.983  0.1572  0.1644  0.0095
46950W        W89863   8.732  20.148  23.889  0.2765  0.1684  0.0265
46951W        W89864   5.073  20.407  23.646  0.0165 -0.1357  0.0435
46952W        W89865  18.701  27.553  15.344  0.1099 -0.1613  0.0636
46953W        W89866   5.661  24.423  25.100  0.1650  0.3878  0.1808
46954W        W89867  11.756  12.800  25.887 -0.1014 -0.2266 -0.0710
46955W        W89868   3.862  32.235  18.002  0.0755 -0.4862  0.1289
46956W        W89869  14.821  27.103  29.503  0.1726 -0.2890  0.1982
46957W        W89870  15.029   7.213  29.201  0.0867  0.1156 -0.0179
46958W        W89871  15.687  22.868  26.084  0.2049 -0.1280  0.1847
46959W        W89872  18.795  28.340  26.322  0.1252 -0.3311  0.2203
46960W        W89873   5.137  14.528  21.324 -0.0579  0.0698  0.0169
46961W        W89874   5.160  19.354  26.500  0.3732  0.0705 -0.5487
46962W        W89875  13.418  19.591   1.259  0.2834  0.1217  0.1660
46963W        W89876   5.893  28.731  17.471 -0.0027  0.1931  0.1201
46964W        W89877   5.360  22.382  17.840 -0.0867  0.0099  0.4142
46965W        W89878  13.546  24.905   7.445 -0.0405 -0.2971 -0.1214
46966W        W89879  12.717  11.553  28.873 -0.1620  0.0325 -0.1253
46967W        W89880  17.992  22.907  13.333  0.1230  0.0292 -0.1014
46968W        W89881   9.209  16.735   6.482  0.1443 -0.0369  0.0515
46969W        W89882   0.078  26.289  27.653  0.1716  0.0556 -0.0561
46970W        W89883  19.346  19.373   5.022 -0.1162 -0.2687 -0.3507
46971W        W89884  14.177  26.077   3.618  0.0727  0.0565  0.0097
46972W        W89885  27.540   0.236  27.294 -0.3932 -0.2305  0.1120
46973W        W89886  13.225   9.209  26.523  0.1802  0.2456  0.1099
46974W        W89887  32.227  20.557  20.649 -0.0952  0.1119 -0.1483
46975W        W89888  22.308   3.418  19.314  0.4199 -0.1921 -0.3220
46976W        W89889   7.023  28.296   7.599  0.0074 -0.3243  0.0968
46977W        W89890  33.956  28.262   9.275  0.0976 -0.1122  0.0884
46978W        W89891   6.860  24.189  27.871  0.0542  0.3022 -0.1275
46979W        W89892  13.227  20.691  23.229  0.0844 -0.1810  0.5062
46980W        W89893   5.991  29.852  22.214  0.0044  0.1292  0.0093
46981W        W89894   0.067  23.769   8.579 -0.0853  0.1958  0.0597
46982W        W89895   6.572   2.063  23.010 -0.0737 -0.2275  0.1608
46983W        W89896   6.459  14.891  28.310 -0.0197 -0.0516  0.0442
46984W        W89897   5.329  19.492   7.668 -0.1796  0.2477 -0.1422
46985W        W89898   9.232  24.391  26.999 -0.1058 -0.0505 -0.2061
46986W        W89899  11.358   1.266  23.598  0.4028  0.1161  0.1763
46987W        W89900  12.193  19.897  23.599  0.0031 -0.1060  0.2719
46988W        W89901  14.461  17.849  22.823  0.1587  0.3215  0.0177
46989W        W89902  20.176  26.968  21.809 -0.0727  0.2202  0.3945
46990W        W89903  10.612   7.661  24.733  0.0274  0.2493 -0.0041
46991W        W89904  10.745  20.881  19.687 -0.2639 -0.0330 -0.1013
46992W        W89905  17.821  13.434  23.490 -0.4374 -0.2474 -0.1851
46993W        W89906  32.778  23.879   2.300  0.0206 -0.0517 -0.0703
46994W        W89907  15.465  24.449  28.125 -0.2981 -0.2861  0.1124
46995W        W89908   6.383  24.194  10.345  0.1468  0.2784  0.1516
46996W        W89909  16.272  29.104  28.078 -0.0321 -0.1040 -0.0429
46997W        W89910   7.535  16.085  24.047  0.0623 -0.2341  0.0577
46998W        W89911   1.691  15.320  22.801  0.0236  0.3136  0.2864
46999W        W89912   2.050  33.484   1.683 -0.3414  0.0854  0.1739
47000W        W89913   1.228  30.684  17.324  0.1444 -0.2028 -0.0492
47001W        W89914   4.256  22.193  25.505 -0.2472 -0.0443 -0.1679
47002W        W89915  15.290  30.935   5.682 -0.0865  0.1260  0.2114
47003W        W89916   8.273  23.076   5.027  0.3497  0.2399  0.1433
47004W        W89917   1.183  13.326  16.326 -0.0406 -0.3070 -0.0304
47005W        W89918   8.823  21.040  20.749  0.2474 -0.1360  0.0262
47006W        W89919  17.313  32.692   9.068 -0.2454 -0.3699 -0.0064
47007W        W89920   7.212  28.076  17.678  0.1045 -0.0313  0.2365
47008W        W89921  12.705  34.328  16.627  0.3636  0.2644  0.0242
47009W        W89922   5.403  18.383  18.552  0.2549 -0.0831  0.0996
47010W        W89923  17.103  26.919  16.959 -0.0461 -0.0011 -0.1370
47011W        W89924   9.762  23.817  28.013  0.0045  0.2165  0.1279
47012W        W89925  12.178  15.247  26.518 -0.2063  0.1090  0.0263
47013W        W89926  11.143  30.882   0.516  0.1001 -0.1165 -0.0386
47014W        W89927  11.290  25.831  23.670  0.1273 -0.0065 -0.2229
47015W        W89928   3.314  20.950   3.928  0.0581 -0.0959  0.1033
47016W        W89929   4.847  24.146  24.075 -0.2075 -0.3802 -0.0115
47017W        W89930   3.120  20.819  29.095  0.1191 -0.2229 -0.0725
47018W        W89931  22.090  22.504  21.496  0.1848 -0.0892 -0.1009
47019W        W89932   7.414  25.139  29.692  0.0286  0.2701 -0.3468
47020W        W89933   7.354  24.506  28.446  0.0528 -0.0161  0.0021
47021W        W89934   8.602  25.293  22.816  0.0766 -0.1319  0.0326
47022W        W89935  10.500  25.560  21.475 -0.1559 -0.0203  0.1541
47023W        W89936   7.250  20.599   3.626 -0.5213 -0.3108  0.3013
47024W        W89937   2.964  20.499  22.332 -0.0412  0.4018 -0.0026
47025W        W89938  33.514  23.804  24.947  0.0717  0.1499  0.2434
47026W        W89939   8.928  30.921  21.487  0.2476 -0.0189 -0.0089
47027W        W89940  28.161  21.729  25.436  0.0589 -0.4631 -0.0669
47028W        W89941  10.837  21.941  21.394 -0.3184 -0.2428 -0.2282
47029W        W89942  14.679  24.966  22.760  0.0065  0.0490  0.0731
47030W        W89943   2.549  16.117  16.688  0.0961  0.1499  0.0102
47031W        W89944  13.589  19.049  20.957  0.0351 -0.1096 -0.5919
47032W        W89945  13.211  25.608  22.695  0.0836  0.0021  0.1551
47033W        W89946  12.066  21.902  24.282  0.2803 -0.0577  0.1130
47034W        W89947   2.984  11.763  15.669  0.1010  0.3300 -0.0930
47035W        W89948   6.604  17.600  23.698 -0.2330 -0.2152 -0.1559
47036W        W89949   8.555  24.066   3.424  0.2876  0.1540  0.1458
47037W        W89950   5.996  13.140   1.998 -0.2811  0.1756 -0.0700
47038W        W89951   6.495  29.122  29.504  0.2705 -0.0095 -0.1342
47039W        W89952   8.531  18.322  25.966  0.1080 -0.3572 -0.3508
47040W        W89953   0.453  28.523   1.775 -0.1852  0.1149 -0.2055
47041W        W89954  14.674   1.361  21.718  0.0941 -0.1620 -0.1899
47042W        W89955  12.842  18.845  29.426  0.1057 -0.0166  0.2806
47043W        W89956  10.443  24.563   9.807  0.2101 -0.4644 -0.1548
47044W        W89957  19.710  22.460  24.384 -0.1569 -0.0449  0.2284
47045W        W89958   0.641  25.947  23.578 -0.0095  0.1069  0.0518
47046W        W89959   8.008  25.640   0.965  0.0281  0.2112 -0.3150
47047W        W89960   7.785  24.340   3.585  0.1468 -0.1006 -0.1351
47048W        W89961  12.920  13.964  25.500  0.1297 -0.1144  0.0038
47049W        W89962   7.834  13.795  25.716 -0.2242 -0.1385 -0.1958
47050W        W89963  10.414  22.776  15.326  0.1807 -0.1575  0.0898
47051W        W89964   3.064  15.351   4.385  0.2592  0.2074 -0.0054
47052W        W89965  23.584  16.622  22.652  0.0748  0.0922 -0.2595
47053W        W89966   6.026  24.873  25.984 -0.0685 -0.1175  0.0607
47054W        W89967  31.328  29.050  26.392 -0.1201  0.0814 -0.0819
47055W        W89968  10.706  25.217   1.406 -0.0421 -0.3203  0.0602
47056W        W89969   1.350  23.887  25.473 -0.0057 -0.2965  0.4886
47057W        W89970   0.100  30.773  22.779 -0.2319 -0.1701 -0.1157
47058W        W89971  13.068  11.532  24.344 -0.1403 -0.0078 -0.0653
47059W        W89972   6.968  21.977  28.620  0.2449 -0.0480  0.0010
47060W        W89973   1.853  23.385   6.337 -0.0899  0.2382  0.1296
47061W        W89974   4.230  23.341   2.444  0.0709  0.0402  0.1502
47062W        W89975   2.804  19.176  28.717  0.1427 -0.0062 -0.0547
47063W        W89976   6.156  20.990  23.812  0.0819  0.0958  0.0009
47064W        W89977   7.956  30.570  23.285  0.0746 -0.1568 -0.1757
47065W        W89978  11.821  18.345  23.098  0.1860 -0.2129  0.0035
47066W        W89979  18.928  31.116  17.439  0.0010 -0.4559  0.1444
47067W        W89980   1.414  25.051   1.968 -0.2007  0.2385 -0.0467
47068W        W89981   5.108  23.018  28.225  0.3917  0.1426  0.0907
47069W        W89982   9.972  25.600   4.653 -0.2262  0.0488  0.0005
47070W        W89983  10.259  26.160   1.287  0.1587  0.3620  0.0845
47071W        W89984   8.639  26.007   5.407  0.1117 -0.0834  0.1024
47072W        W89985   5.060  24.316   1.424  0.0424 -0.0871 -0.2015
47073W        W89986   7.960  10.416  23.289  0.0525  0.0756  0.1104
47074W        W89987  17.746  11.285  22.222  0.1091  0.1915 -0.2039
47075W        W89988   8.016  22.773  26.514  0.2648 -0.2037  0.1520
47076W        W89989  16.102  27.166  15.466 -0.3811  0.1919 -0.0950
47077W        W89990  30.560  27.339  27.660 -0.2041  0.1359 -0.5061
47078W        W89991   3.740  20.713   1.829 -0.2600 -0.2070  0.0318
47079W        W89992  13.727  14.680  22.165  0.1567  0.2430 -0.3626
47080W        W89993  12.762  18.313   6.256 -0.2420  0.5840  0.1000
47081W        W89994  24.502  12.703  28.946 -0.0166  0.0968 -0.0475
47082W        W89995   8.085  21.927   6.027 -0.0466  0.0995 -0.0518
47083W        W89996  18.647  29.850  16.683  0.0433  0.0370 -0.3016
47084W        W89997  34.109  22.508   0.268  0.1025 -0.1111 -0.2605
47085W        W89998  31.156  31.531   4.794  0.1252  0.3365 -0.2477
47086W        W89999  13.805  13.561  14.394 -0.0686  0.1205 -0.0384
47087W        W90000  10.458  25.934  22.655  0.1785  0.1321  0.3601
47088W        W90001   5.576  24.188  24.517  0.2895  0.1152 -0.0669
47089W        W90002   8.859  15.919   8.275  0.4356 -0.3156  0.1846
47090W        W90003   8.653   0.083   3.034  0.0683  0.1670  0.1812
47091W        W90004   8.597   1.722   0.584  0.0077  0.2569 -0.0244
47092W        W90005   5.824  20.569  23.813 -0.0816 -0.0624  0.3611
47093W        W90006  30.748  15.176  28.544  0.2118 -0.2667  0.2010
47094W        W90007  11.245  12.290   8.179 -0.0829  0.0427  0.1373
47095W        W90008  16.728   0.295  22.472 -0.2575  0.0090  0.0301
47096W        W90009  22.311  28.616  25.894  0.1533  0.1376 -0.3779
47097W        W90010  10.616  30.048  10.107  0.0464 -0.1061  0.1364
47098W        W90011   5.158  21.955  27.280 -0.2413 -0.1660  0.1448
47099W        W90012  12.556  33.271  21.935 -0.0485 -0.1635 -0.0147
47100W        W90013   9.808  17.487   1.304  0.2591  0.1157 -0.2870
47101W        W90014   8.735  24.123  19.101 -0.2228 -0.2976 -0.1986
47102W        W90015   2.876  21.016  22.063 -0.1152  0.1154  0.2590
47103W        W90016   4.510  23.748  27.754  0.3096 -0.0429  0.1261
47104W        W90017   7.824  26.201  29.262  0.2229  0.1141 -0.2350
47105W        W90018   5.743  13.371  28.610  0.1761  0.0693  0.6269
47106W        W90019   3.383  21.043   5.730  0.1859 -0.1379  0.1565
47107W        W90020   8.300  25.758  23.919  0.0570 -0.0024 -0.0034
47108W        W90021   7.080   0.524  23.059 -0.0754 -0.0134 -0.0819
47109W        W90022  14.473  34.239  10.678 -0.0415 -0.2587 -0.3524
47110W        W90023   9.427  22.555  21.576  0.1138 -0.3635 -0.2271
47111W        W90024  15.485  26.722  20.510 -0.0700  0.0825  0.0216
47112W        W90025  14.566  31.039   2.920  0.2525  0.3637 -0.2867
47113W        W90026   7.310  17.166   6.849  0.0779 -0.0959  0.0290
47114W        W90027  11.269  10.598  26.498  0.2000  0.0334  0.3112
47115W        W90028  11.297  19.444  20.959  0.0510  0.3821 -0.0299
47116W        W90029   5.735  12.325  23.351  0.0284  0.0687  0.1475
47117W        W90030   4.789  32.387   5.317 -0.0795  0.3341 -0.0845
47118W        W90031  32.405  23.211  26.642 -0.1852 -0.1414 -0.3943
47119W        W90032  21.873  23.530  17.735 -0.0546 -0.1402 -0.1856
47120W        W90033  12.482  22.839  28.742 -0.1258 -0.2527  0.1401
47121W        W90034   2.303  26.593   7.945 -0.0459  0.0236 -0.2278
47122W        W90035  11.299  16.661   6.048 -0.2433  0.0768 -0.0074
47123W        W90036  30.624  27.763   3.672  0.2447  0.0944 -0.3836
47124W        W90037   1.155  30.316   0.805 -0.2602 -0.0517 -0.2261
47125W        W90038   8.398  32.532  19.442  0.0785 -0.0714  0.0773
47126W        W90039   5.304  28.211  17.468 -0.1576  0.0690  0.0598
47127W        W90040  12.175  26.731  24.349  0.2808 -0.2042 -0.1466
47128W        W90041   0.855   8.460   1.123  0.0938 -0.3281 -0.1101
47129W        W90042   8.484  33.936  22.882  0.0355 -0.2059  0.3492
47130W        W90043   8.916   5.625  29.766  0.0156  0.1853 -0.0348
47131W        W90044  13.982  17.217  27.645  0.2360  0.0225 -0.1494
47132W        W90045  10.302  13.708   1.458 -0.2261  0.0608  0.0950
47133W        W90046  10.644  22.583   7.136 -0.0915  0.1467 -0.0183
47134W        W90047  15.205  20.701  21.552 -0.4815  0.0342  0.1259
47135W        W90048   9.543  22.082  19.407  0.2710  0.0442  0.1063
47136W        W90049  16.546  24.713  16.350 -0.1381 -0.0770 -0.1135
47137W        W90050   9.969  25.005   4.519 -0.0560  0.2130 -0.2398
47138W        W90051  10.555  24.122  23.773  0.1485  0.4148  0.1630
47139W        W90052   2.777  28.392  26.871  0.2461  0.0903 -0.1184
47140W        W90053  12.542  28.663   5.728  0.0771 -0.2700 -0.0981
47141W        W90054  21.591  23.948  20.436  0.0810  0.1979 -0.0894
47142W        W90055   3.370  22.496  14.637 -0.0173 -0.1455  0.0526
47143W        W90056  14.073  26.337   0.751  0.1026 -0.2333  0.1581
47144W        W90057   6.490  22.438  23.475 -0.0508 -0.1506  0.0705
47145W        W90058   7.418  21.100   3.656  0.0970  0.0325  0.0326
47146W        W90059   6.059  24.530   3.472  0.2796  0.2016  0.1757
47147W        W90060   9.405  23.072  28.220 -0.0099 -0.2840  0.1238
47148W        W90061  13.621   9.331   6.745  0.0486  0.0840  0.1822
47149W        W90062  10.114  25.581   3.728 -0.0586  0.2269 -0.3370
47150W        W90063   9.980  22.390   1.136 -0.1695  0.3107  0.2929
47151W        W90064   8.286  18.451   4.897  0.0927 -0.2634  0.1604
47152W        W90065  14.372  32.730  21.704  0.0557 -0.1114 -0.5140
47153W        W90066   4.643  21.605  21.908  0.2129 -0.0038 -0.3284
47154W        W90067   6.588  26.931   4.810  0.1447 -0.0244 -0.4080
47155W        W90068  11.886  18.099  25.157  0.1984  0.4868  0.2186
47156W        W90069  10.145  30.563  16.748 -0.0812 -0.0477  0.1286
47157W        W90070  30.686   8.613  27.665  0.2283  0.0649  0.0322
47158W        W90071  19.046  24.462  27.008  0.4340 -0.0976  0.0964
47159W        W90072   5.717  22.854   4.136 -0.1944  0.0023 -0.0449
47160W        W90073  12.809  18.700   2.846  0.1339  0.1675 -0.1017
47161W        W90074  13.765   8.600  21.320 -0.1316 -0.2922 -0.1301
47162W        W90075  29.667  28.850   4.861  0.1847  0.0770 -0.2133
47163W        W90076   7.371  28.535   3.082 -0.2803 -0.1362 -0.1478
47164W        W90077  16.167  18.982  26.478 -0.1251  0.0199 -0.0790
47165W        W90078  19.448  30.418  17.459 -0.0696  0.1142  0.0173
47166W        W90079   3.718  30.594  24.060 -0.0892 -0.0386 -0.0836
47167W        W90080  16.955  26.268   2.670 -0.0054  0.4241  0.0304
47168W        W90081  33.943  28.885  25.010 -0.2180 -0.2762  0.0699
47169W        W90082  10.605  22.453  13.866 -0.1638 -0.1851 -0.1937
47170W        W90083   8.445  29.183   1.729  0.0213 -0.4502  0.4926
47171W        W90084  13.857  14.111  27.798  0.3423 -0.3652 -0.0586
47172W        W90085   4.899  26.840  17.135 -0.1295 -0.0786 -0.0215
47173W        W90086   7.049   9.060  18.685  0.0507  0.0719  0.0968
47174W        W90087  17.898  27.957   3.282 -0.0919 -0.0170 -0.3321
47175W        W90088   3.024  23.720   1.741  0.0629 -0.0771  0.1443
47176W        W90089  17.674   4.232  16.537  0.0400  0.4142 -0.5081
47177W        W90090   8.655  28.469  26.727  0.2278 -0.1919 -0.3806
47178W        W90091   9.280  19.540   4.142 -0.2675  0.2777  0.0073
47179W        W90092  28.159  21.313   4.568  0.1514  0.2739  0.2273
47180W        W90093   9.542  28.589  24.046  0.0671 -0.1888 -0.1035
47181W        W90094   7.046  16.097  23.033 -0.0484  0.0811  0.2284
47182W        W90095   5.638  22.017  24.052 -0.3169  0.3592 -0.1300
47183W        W90096   8.382   9.166  24.183 -0.2186 -0.0257  0.0355
47184W        W90097  13.793   5.045  25.381 -0.1364  0.3781  0.2172
47185W        W90098   5.571  27.232   0.604  0.0521  0.1218  0.0975
47186W        W90099   9.885  12.972   0.480  0.0899 -0.1449  0.0786
47187W        W90100   5.670  15.173   7.306  0.1819 -0.1320  0.0681
47188W        W90101  25.693  20.610  17.414 -0.0902 -0.2346  0.2603
47189W        W90102  14.989  29.816  10.687  0.2811  0.1326 -0.1575
47190W        W90103  30.655  15.776   7.873  0.3627 -0.1097 -0.3069
47191W        W90104  25.102  29.131   3.591  0.2015 -0.2241 -0.0773
47192W        W90105   6.943  26.298   6.531 -0.2179  0.0028 -0.1085
47193W        W90106   9.760  22.553  27.505 -0.0774  0.0904  0.0166
47194W        W90107   3.507  18.540  27.441  0.0149  0.3577  0.1029
47195W        W90108   3.626  29.962  21.461  0.0213  0.1388 -0.0699
47196W        W90109  15.604  27.099  17.417 -0.1361  0.1656  0.2166
47197W        W90110   3.013  24.825   2.895  0.1489 -0.0452  0.1027
47198W        W90111   8.833  22.187   5.676  0.2776  0.4047  0.0605
47199W        W90112  16.461  21.635  29.520  0.2296  0.0678  0.1670
47200W        W90113  15.736  21.427  18.525 -0.3173  0.0816  0.0736
47201W        W90114  33.118  30.934   1.789  0.2123  0.1689  0.1289
47202W        W90115  13.486  25.250   6.768  0.2694  0.0983 -0.2413
47203W        W90116  31.310  30.441  21.808  0.1953 -0.1970 -0.1103
47204W        W90117   8.088  27.368   3.642  0.0803  0.0843 -0.0783
47205W        W90118   9.003  23.727   0.535 -0.0050  0.1012 -0.0055
47206W        W90119  10.100  21.077  29.027 -0.0994 -0.0189  0.1675
47207W        W90120  17.470  12.039   6.297 -0.0342 -0.0377 -0.0182
47208W        W90121   6.261  27.497  29.548 -0.0249  0.3276 -0.1010
47209W        W90122  11.430  16.445  22.926  0.0551 -0.3620  0.1350
47210W        W90123   6.210  17.366  24.507  0.1643 -0.1841  0.0290
47211W        W90124   1.768  20.550  27.443 -0.1706 -0.0830 -0.1033
47212W        W90125  28.115  29.548  28.880 -0.1934  0.2257  0.4367
47213W        W90126   1.505  22.458  26.401 -0.1090 -0.1448  0.1533
47214W        W90127  14.107  15.853  26.184  0.0143  0.2269  0.0171
47215W        W90128   1.017  32.828  24.354 -0.0636  0.0733 -0.1053
47216W        W90129  15.836  27.427   5.530  0.2540  0.1108  0.0616
47217W        W90130   7.614  21.212  26.927 -0.0068  0.3229  0.0881
47218W        W90131  21.663  23.501   2.148  0.0203  0.0849 -0.0367
47219W        W90132  18.451  15.402  13.661 -0.2144  0.2149 -0.1927
47220W        W90133  10.265  22.085  28.973 -0.2261 -0.0214  0.0404
47221W        W90134  10.130  29.970  29.327  0.0917  0.3099  0.1429
47222W        W90135   6.415   4.419  20.107 -0.1902 -0.1860 -0.0066
47223W        W90136   0.024  20.404  27.325 -0.1689  0.0160 -0.0557
47224W        W90137   8.596  18.545   0.048 -0.1964 -0.0797 -0.0244
47225W        W90138   4.648  22.187  21.735 -0.1563 -0.2211 -0.3979
47226W        W90139  33.738  27.208  20.122 -0.2516  0.1151 -0.2171
47227W        W90140  10.254  14.108   0.652  0.0257  0.2712  0.0415
47228W        W90141  17.125  16.332  29.037 -0.1093 -0.0193  0.0516
47229W        W90142  10.733  25.907  25.219 -0.1890  0.2132  0.0842
47230W        W90143  13.991  23.219   3.785 -0.1168 -0.2089 -0.2657
47231W        W90144   8.128  22.141   6.707  0.3484  0.2776  0.0108
47232W        W90145   5.935  22.270   4.381  0.0370  0.1606  0.4084
47233W        W90146   9.587  17.713  25.515 -0.0283  0.3945  0.0841
47234W        W90147   5.876  21.203   7.823  0.1076  0.1344 -0.4306
47235W        W90148  25.528  18.206  27.083 -0.0817  0.0181  0.0182
47236W        W90149  15.424  22.385  22.712 -0.0269  0.0395  0.0448
47237W        W90150  15.272  23.013  18.825  0.1018  0.0393  0.1740
47238W        W90151   6.021  27.086  21.323  0.0845  0.1488 -0.0537
47239W        W90152   2.585  22.337   1.938  0.2289  0.1482  0.2611
47240W        W90153  29.677  22.577  28.155 -0.1747 -0.4015  0.0629
47241W        W90154   0.036  33.478  27.459 -0.0473  0.0070 -0.0192
47242W        W90155  18.138  28.269  16.814 -0.0081 -0.1584  0.1704
47243W        W90156  30.377  20.610  29.035  0.1902 -0.0260 -0.0569
47244W        W90157   7.917  32.847  24.763  0.0465 -0.0364  0.0149
47245W        W90158   0.328  23.417  27.879 -0.2233 -0.1961 -0.2028
47246W        W90159   8.461  14.640  18.180  0.0655  0.4335  0.0847
47247W        W90160  12.123  24.471  21.873 -0.0888 -0.2259  0.0454
47248W        W90161  18.953   7.166  22.516 -0.1507  0.1442 -0.0900
47249W        W90162  32.610  24.819   0.617 -0.1133 -0.2464 -0.0512
47250W        W90163   9.247  23.314   7.596  0.0393  0.0521 -0.2671
47251W        W90164  13.314  28.644   5.874 -0.1754 -0.2476 -0.1548
47252W        W90165  16.024  21.629  24.390 -0.3343  0.0095 -0.0107
47253W        W90166   1.329  24.040   0.740  0.0720 -0.3133  0.1282
47254W        W90167   3.340  32.113  28.372 -0.2455 -0.1068 -0.1118
47255W        W90168   2.927   8.311  20.119 -0.0728 -0.0086 -0.1062
47256W        W90169  11.562  16.622  28.035 -0.1907  0.2180  0.0312
47257W        W90170  19.360  23.153   7.479  0.0926  0.1041  0.0199
47258W        W90171   6.657  22.858   0.242  0.3472  0.1014 -0.2995
47259W        W90172  14.254  28.231  10.989  0.2877 -0.0628 -0.1752
47260W        W90173   4.776  25.253   1.574 -0.1550 -0.0637  0.0982
47261W        W90174   2.512  32.193  22.691  0.2641  0.2156  0.2390
47262W        W90175   6.518  17.246  29.608 -0.5191  0.1575 -0.2262
47263W        W90176  13.383  21.970  18.336 -0.0330  0.2094  0.1176
47264W        W90177  17.167  27.579   8.252  0.0051  0.3047  0.1747
47265W        W90178  13.452  20.912  26.980 -0.0997  0.1236  0.0779
47266W        W90179   9.139  22.432   0.644  0.2468  0.0741 -0.0106
47267W        W90180   2.852  14.954  28.925  0.0888  0.4150  0.0715
47268W        W90181  10.089  25.925   4.283  0.1124 -0.0699  0.0873
47269W        W90182  11.580  20.246  29.031 -0.1837  0.1123 -0.2615
47270W        W90183   7.290  18.041   4.371  0.0262  0.2471  0.1530
47271W        W90184   0.234  22.158   5.743 -0.1995  0.0247 -0.1648
47272W        W90185  11.915  17.722   4.993 -0.1575 -0.0641  0.0398
47273W        W90186   9.108  30.838   6.393 -0.0132 -0.3377 -0.3008
47274W        W90187   3.038   6.986   1.032  0.3950  0.0248 -0.0631
47275W        W90188   9.420  10.897  14.762 -0.0720  0.1906 -0.3328
47276W        W90189  13.939  27.253  25.959  0.0856  0.0778 -0.1667
47277W        W90190  10.099  27.598   2.823  0.1155 -0.1408  0.1571
47278W        W90191   8.235  17.576  28.462 -0.1171 -0.2454  0.2316
47279W        W90192   3.164  21.382  22.282 -0.3078  0.4573 -0.0941
47280W        W90193   1.331  11.064   4.558  0.2827  0.0908 -0.1200
47281W        W90194   3.959  19.381   9.352 -0.0118  0.2220  0.1765
47282W        W90195  34.437  20.050  25.700 -0.2406 -0.0940 -0.0868
47283W        W90196   1.814  23.624   1.998 -0.0691  0.0576 -0.1433
47284W        W90197   5.275  23.919   1.661  0.1026 -0.1155 -0.1613
47285W        W90198  12.081  22.208  18.305  0.2897 -0.2460 -0.0434
47286W        W90199  15.625  12.269  29.258 -0.1314 -0.2176  0.0536
47287W        W90200   5.334  26.685   8.479 -0.0950 -0.1051 -0.4653
47288W        W90201   7.758  21.574   0.646 -0.2433 -0.0210  0.0329
47289W        W90202  12.926  30.755  28.396 -0.0569 -0.0778  0.1533
47290W        W90203  16.881   1.259   8.384 -0.1005 -0.2126 -0.0146
47291W        W90204   3.745  30.253  29.461  0.2424  0.1633 -0.0014
47292W        W90205  13.334  18.827   8.893  0.3112 -0.0836  0.1338
47293W        W90206   7.802   4.523  20.575 -0.1256  0.0836 -0.1884
47294W        W90207   3.727  21.631  18.630 -0.2052 -0.4018 -0.2242
47295W        W90208   4.223  28.035  21.148 -0.0443 -0.2292 -0.0665
47296W        W90209  29.601  22.934  21.475 -0.2621  0.0601  0.1343
47297W        W90210   9.069  25.156   4.566  0.2864 -0.1979 -0.0091
47298W        W90211   5.349  17.606  25.592  0.0744 -0.4224 -0.1744
47299W        W90212  11.641  24.693  16.447 -0.3697  0.3422  0.1567
47300W        W90213   7.062  29.391   2.109 -0.2458 -0.2781  0.2318
47301W        W90214  10.920  20.750  23.999 -0.1874 -0.3346  0.1604
47302W        W90215   3.407  11.616  21.240  0.1762 -0.2172 -0.1833
47303W        W90216  31.381  20.950  26.868  0.0429 -0.0184  0.0663
47304W        W90217  32.245  19.893  22.616  0.1505 -0.0524  0.1732
47305W        W90218  34.059  31.887  22.257  0.1168 -0.1318 -0.0400
47306W        W90219  15.226  16.212   5.861 -0.2566  0.0125 -0.0636
47307W        W90220  14.224  23.911  29.662 -0.0278 -0.4301 -0.2276
47308W        W90221   7.053  20.494  21.833  0.4924 -0.0944 -0.1081
47309W        W90222   7.087  18.206   9.785  0.0123 -0.4027  0.2722
47310W        W90223  17.168  15.203  29.378 -0.0523 -0.1013 -0.1665
47311W        W90224  26.656  25.659   4.637 -0.0010  0.4567  0.0948
47312W        W90225  11.816  29.143  26.539  0.0670 -0.1797 -0.0342
47313W        W90226  16.161  21.261  22.539  0.0427 -0.1950  0.1423
47314W        W90227  10.070  22.368  27.101 -0.3219 -0.0584 -0.1037
47315W        W90228   1.280  22.772  13.985 -0.3713 -0.1141 -0.0921
47316W        W90229  15.270  24.987  20.005  0.0712  0.3135 -0.0279
47317W        W90230  12.906  13.506   5.778  0.3589  0.0499 -0.0538
47318W        W90231   3.010  15.632   7.162  0.3529  0.0542  0.1408
47319W        W90232   6.791  18.066   1.984 -0.0137 -0.3767 -0.0111
47320W        W90233   3.498  16.128  27.487 -0.0647  0.0624  0.0151
47321W        W90234  13.823  30.682  22.157 -0.0912  0.0701 -0.3994
47322W        W90235  14.454   7.232   2.843 -0.2994  0.2218  0.3139
47323W        W90236  14.720  23.015  26.136 -0.1194 -0.3033 -0.1751
47324W        W90237   8.046  13.157  24.367  0.0737 -0.1947 -0.0462
47325W        W90238   3.084  26.316   5.665  0.1976 -0.0168 -0.2466
47326W        W90239   8.023   8.972  21.979  0.0622  0.0805 -0.3823
47327W        W90240   9.879  17.790   0.245 -0.1234  0.0417 -0.2757
47328W        W90241   4.159  32.933  20.732  0.1313  0.2090  0.0920
47329W        W90242  12.024  25.500   6.693 -0.0862  0.1247 -0.2768
47330W        W90243   2.316  15.211  23.940  0.0692  0.0449  0.4347
47331W        W90244   6.795  25.052  28.377  0.0421 -0.1267 -0.0665
47332W        W90245   7.891  10.687   3.757  0.2079 -0.1433 -0.1263
47333W        W90246  10.849  31.867  21.277 -0.0619 -0.1121 -0.2263
47334W        W90247  34.357  20.518  20.545 -0.2134 -0.2914 -0.1845
47335W        W90248  10.435  26.290   9.312 -0.0796 -0.2354 -0.0430
47336W        W90249  14.689  21.560   1.805 -0.0504 -0.0895  0.0841
47337W        W90250  33.814  20.836   9.366  0.2015 -0.0138 -0.0396
47338W        W90251   3.377   5.693  25.520  0.2304 -0.0496 -0.0387
47339W        W90252  19.502  19.125  26.388  0.1054 -0.0142 -0.0179
47340W        W90253   3.239  33.981  21.464  0.2100 -0.2483 -0.0947
47341W        W90254   5.625  23.091   1.973  0.0717  0.1964  0.3091
47342W        W90255   3.976  23.211  28.293 -0.1084 -0.0221 -0.0133
47343W        W90256  15.979  16.246   3.261 -0.0652 -0.3135  0.3977
47344W        W90257  33.070  26.660   8.317 -0.0553  0.1364  0.2525
47345W        W90258  16.161  29.402   5.315  0.3453  0.0047 -0.1071
47346W        W90259   4.366  27.933  22.323  0.0244 -0.0020  0.2746
47347W        W90260  14.245  26.633  22.867  0.1337  0.4237 -0.0007
47348W        W90261  14.668  21.333  12.547 -0.0751  0.1162 -0.3050
47349W        W90262   0.072  20.748   2.266 -0.0443  0.2822 -0.2167
47350W        W90263   2.582  20.786  18.358  0.1578  0.2875 -0.0187
47351W        W90264  12.558  23.381   3.820  0.1255  0.0057 -0.0802
47352W        W90265   9.807  14.474   5.524 -0.1956 -0.0664 -0.0200
47353W        W90266   7.972  23.112   0.488  0.1759  0.1750 -0.2858
47354W        W90267   5.109  25.904  25.401  0.0559  0.0525  0.2124
47355W        W90268   5.816  17.462   1.429  0.1597 -0.0176 -0.2585
47356W        W90269  10.191  30.254  24.254  0.2355 -0.1383  0.2302
47357W        W90270   0.011   3.935  19.423  0.0261  0.0729  0.0096
47358W        W90271  18.399  16.781   7.213 -0.0711  0.2386 -0.1292
47359W        W90272  18.606  23.525   6.350  0.2354  0.0346 -0.1454
47360W        W90273   9.457  29.905  28.594  0.2253 -0.0400 -0.3635
47361W        W90274   4.197  28.148  24.926  0.0308  0.0573 -0.0318
47362W        W90275   2.265  20.185  15.519  0.1804  0.0469 -0.1061
47363W        W90276  20.719  23.731   2.505  0.0340 -0.1703  0.1669
47364W        W90277  12.912  12.212  19.964  0.0056  0.1643  0.1370
47365W        W90278  10.760  23.953  22.850 -0.0177 -0.1917  0.3139
47366W        W90279  10.913  20.371  19.474  0.0891  0.1770 -0.0718
47367W        W90280   7.889  29.469  29.379 -0.2063 -0.1208 -0.0212
47368W        W90281   1.567  19.287   6.636 -0.0215 -0.2324 -0.0527
47369W        W90282  11.953  25.675   5.515 -0.1442  0.0334  0.4001
47370W        W90283   3.572  31.688   1.893 -0.0875 -0.1393  0.0553
47371W        W90284  32.265   2.234   3.706 -0.0516  0.0904  0.0848
47372W        W90285  27.257  19.739  21.887  0.1743 -0.1003  0.2059
47373W        W90286   2.653  21.974  27.843 -0.2374  0.1887 -0.0276
47374W        W90287   0.965  21.562  29.399 -0.4733 -0.1518  0.0514
47375W        W90288   4.549  29.395   0.936 -0.0915 -0.0720 -0.2629
47376W        W90289  13.331  20.068  27.465 -0.2045 -0.3537  0.1598
47377W        W90290  10.629  17.747   3.296 -0.2197 -0.5944 -0.0911
47378W        W90291  17.302  28.067   4.093  0.0503  0.3428 -0.2868
47379W        W90292  13.142  15.413   3.136  0.0036  0.4601  0.0127
47380W        W90293   3.544  11.845  26.283  0.0878 -0.2430  0.1108
47381W        W90294   5.732  20.263   3.006 -0.0712  0.1411 -0.1127
47382W        W90295  12.147  22.895  25.458 -0.0451 -0.1316 -0.0184
47383W        W90296  17.269  26.010   6.152  0.0230 -0.2147  0.1382
47384W        W90297  14.594  31.160  10.687  0.1595  0.1565  0.2006
47385W        W90298  10.987  22.894   1.942  0.2294 -0.1612 -0.1623
47386W        W90299   4.428  28.066  29.724  0.1570 -0.0759  0.2325
47387W        W90300   8.704   9.758   1.854  0.5650 -0.4680  0.0118
47388W        W90301   9.431  14.500   5.232  0.1753  0.4579 -0.3283
47389W        W90302  32.783   6.926  10.169 -0.0822 -0.0286  0.1602
47390W        W90303  12.115  19.601   0.203  0.1855 -0.3413  0.1948
47391W        W90304  10.439  25.211  26.376 -0.0766  0.2655 -0.0068
47392W        W90305  12.218  26.880   2.960  0.0992 -0.0528 -0.1315
47393W        W90306   2.801  21.480   2.538 -0.4382  0.1045  0.0574
47394W        W90307   9.354  17.305   1.947 -0.1955  0.0036  0.1165
47395W        W90308  11.702   0.607   2.964  0.0001  0.0219 -0.3160
47396W        W90309   6.870  21.046  29.417 -0.1359 -0.3614 -0.0978
47397W        W90310  33.151  30.263   1.345 -0.0649  0.3106 -0.2318
47398W        W90311  30.951  27.469  28.316 -0.0319  0.0433 -0.3188
47399W        W90312   6.898  24.855   7.299 -0.0054 -0.2243  0.0626
47400W        W90313   3.489  28.448   3.514 -0.2472  0.2078  0.0358
47401W        W90314   1.261  30.205  27.736 -0.0918  0.1450 -0.1922
47402W        W90315   7.622  16.550  28.216 -0.2813 -0.2270 -0.1045
47403W        W90316  34.018  23.402   1.873  0.3472 -0.0543 -0.2490
47404W        W90317  19.949  10.806  26.979 -0.0507 -0.1175 -0.0222
47405W        W90318  33.159  13.112   2.612 -0.1261  0.2775  0.1858
47406W        W90319  31.756  20.627   8.657  0.0476 -0.2540 -0.0691
47407W        W90320   4.949  22.562   4.845 -0.4072  0.1514  0.0875
47408W        W90321  18.691   8.855  24.779 -0.2601  0.1070 -0.2546
47409W        W90322   9.364  33.108   4.954  0.1756 -0.2801 -0.1146
47410W        W90323  33.044  31.045  28.028  0.0249  0.0309  0.2320
47411W        W90324  31.894  18.223  13.394  0.0802  0.0812  0.1278
47412W        W90325   3.478  34.348  28.514 -0.0633  0.1541  0.0592
47413W        W90326   1.915   4.832   3.382 -0.0437  0.0204 -0.0375
47414W        W90327   5.348  22.847   5.508 -0.0772 -0.1150  0.3669
47415W        W90328  13.201   6.343   1.900 -0.2843  0.1541  0.0004
47416W        W90329   4.937  22.997   3.646  0.1378 -0.4003  0.3892
47417W        W90330   8.699  28.333  29.025 -0.1374  0.1219  0.2216
47418W        W90331   8.791  18.561   0.896  0.1183 -0.0104 -0.5010
47419W        W90332   6.491  28.277   6.903 -0.2086 -0.0772  0.0309
47420W        W90333  33.104  29.341  28.966 -0.1424 -0.2172 -0.0145
47421W        W90334  32.540  25.918   3.432  0.0703 -0.0552  0.1093
47422W        W90335  13.451  17.012  27.549  0.1105  0.4308  0.0717
47423W        W90336  34.324  25.858   3.094  0.1957 -0.1064  0.0348
47424W        W90337   1.406  24.065  27.994 -0.0236  0.1908 -0.2468
47425W        W90338   3.532  23.316  24.662 -0.1062 -0.0298 -0.0691
47426W        W90339   4.909  27.238  22.063 -0.1826 -0.1250  0.0416
47427W        W90340  15.786  20.305   0.198 -0.1201 -0.0669  0.0200
47428W        W90341   9.961   9.444  10.756  0.1648 -0.1485 -0.0623
47429W        W90342  22.225  21.591  23.722 -0.2193  0.2122 -0.1249
47430W        W90343  14.692  12.058   2.921  0.1140 -0.1073 -0.0502
47431W        W90344  12.806  13.743   3.442  0.3673  0.3866  0.0702
47432W        W90345   9.099  19.532  20.262  0.3987  0.0956  0.0229
47433W        W90346  12.896  21.064   6.853 -0.0082 -0.0830 -0.2142
47434W        W90347  21.070  23.961   8.368 -0.0541  0.1109  0.1465
47435W        W90348   5.944  26.127  24.919  0.0557 -0.1882  0.0186
47436W        W90349   4.069  21.337  25.143  0.3074 -0.2810  0.0351
47437W        W90350   7.440  21.983  17.901  0.2398  0.0642  0.1612
47438W        W90351  13.504  19.860  25.136 -0.1061  0.0892 -0.0039
47439W        W90352  14.352  31.842  15.389  0.1892 -0.0020 -0.0538
47440W        W90353   6.372  17.230  25.558  0.1921 -0.0863 -0.1686
47441W        W90354   1.962  27.759  20.076 -0.4489  0.0284 -0.1971
47442W        W90355   3.089  33.584  18.187  0.0379 -0.3736 -0.3280
47443W        W90356  23.279  28.537  14.357 -0.0789 -0.4043  0.1069
47444W        W90357   6.185   2.878  21.251  0.0138  0.0752 -0.1698
47445W        W90358  13.480  25.916  21.048  0.1782  0.4290  0.2516
47446W        W90359   7.749  24.018  17.108  0.2428 -0.2799  0.0901
47447W        W90360  15.383  28.508  14.914 -0.0048  0.1101  0.2354
47448W        W90361   3.874  27.342  14.925 -0.0303 -0.2016  0.0593
47449W        W90362   7.183  23.059  15.261 -0.0262  0.0527  0.0480
47450W        W90363   7.592  18.348  17.017  0.0338  0.0776  0.0223
47451W        W90364   5.064  33.003  27.527  0.1422 -0.1152 -0.3460
47452W        W90365  31.155  23.038  17.405 -0.1195  0.1530 -0.2643
47453W        W90366  11.604   5.505  18.315 -0.0719 -0.2042  0.0096
47454W        W90367  15.939  31.967  25.776  0.0122  0.2084  0.1234
47455W        W90368  11.398  25.721  22.613 -0.2262  0.1827  0.3451
47456W        W90369   2.768  21.185  17.431 -0.3496  0.0540  0.0502
47457W        W90370  33.855   1.943  27.390  0.1217  0.0465 -0.0388
47458W        W90371  31.740  18.743  20.115 -0.0046 -0.1003  0.4107
47459W        W90372  30.343  30.083  22.834 -0.3335 -0.0756 -0.1715
47460W        W90373  18.640  16.230  15.109  0.0010 -0.2345  0.0629
47461W        W90374   6.431  26.965  18.287  0.0623  0.1361 -0.1407
47462W        W90375  31.799  21.435  17.842 -0.0745 -0.1065  0.0126
47463W        W90376  10.409   3.205  18.681 -0.0262 -0.1873 -0.2207
47464W        W90377   5.165  28.632  20.167 -0.0371  0.3025 -0.1620
47465W        W90378   3.064   0.272  17.846  0.1177 -0.2758 -0.1726
47466W        W90379   4.346   0.079  19.050 -0.0587  0.3392  0.1268
47467W        W90380   4.674  21.023  15.450 -0.0679  0.0356 -0.0902
47468W        W90381  20.271  31.078  17.736 -0.1734  0.0893  0.0883
47469W        W90382   7.222  27.473  19.706  0.0334  0.1495  0.1870
47470W        W90383  16.612  25.419  23.601 -0.0610 -0.1152  0.0387
47471W        W90384   4.040  29.744  17.319 -0.3465 -0.1187  0.1689
47472W        W90385  32.388   1.031  20.337  0.2038 -0.0032 -0.1039
47473W        W90386   6.288   0.828  17.748 -0.1848 -0.2511 -0.1903
47474W        W90387   1.527  29.154  22.926  0.2863 -0.1559  0.0168
47475W        W90388   0.619  21.164  19.310  0.1000  0.0110  0.1042
47476W        W90389  14.610  26.164  17.113 -0.0364 -0.1228 -0.3282
47477W        W90390  12.270  21.611  29.201 -0.2176  0.1812 -0.1666
47478W        W90391   1.421  19.214  22.026  0.0864  0.1180 -0.0576
47479W        W90392  11.136  23.128  17.980 -0.1928 -0.3597 -0.3041
47480W        W90393  10.147  33.279  20.141  0.0898  0.0161 -0.0867
47481W        W90394  31.048  31.310  23.343  0.0733  0.1569  0.0922
47482W        W90395  11.287  22.312  16.578 -0.0958 -0.2344  0.3734
47483W        W90396   8.062  30.552  19.766  0.0805 -0.3536  0.2497
47484W        W90397  13.716  24.282  20.820 -0.0440 -0.0791 -0.2421
47485W        W90398   6.042   2.482  20.436  0.0731  0.0330 -0.0185
47486W        W90399   5.023  30.898  19.741 -0.0635 -0.0206  0.1073
47487W        W90400  15.746   4.075  21.190 -0.3242  0.3526  0.0491
47488W        W90401  15.711  21.251  13.851 -0.3701  0.0059  0.2596
47489W        W90402  33.313  16.317  20.021 -0.1030  0.2147  0.2909
47490W        W90403   6.103  29.038  16.598 -0.1705  0.3235 -0.2972
47491W        W90404  13.782  14.008  17.117  0.2183 -0.0793 -0.1118
47492W        W90405   4.098  32.844  16.642  0.0138  0.1522  0.0672
47493W        W90406  22.843  26.813  19.889 -0.0078  0.2070  0.0182
47494W        W90407  16.197   0.733  16.888  0.0124  0.1080  0.0106
47495W        W90408   6.449  19.103  21.650  0.1165 -0.1783 -0.1651
47496W        W90409   3.061  25.339  17.794 -0.0587 -0.0929  0.0650
47497W        W90410  14.062  31.150  17.079 -0.1943  0.4661 -0.0151
47498W        W90411   5.621  34.245  28.162 -0.1708 -0.1833 -0.1074
47499W        W90412  33.190  26.671   3.128 -0.2620 -0.1680  0.0726
47500W        W90413   4.200  12.011   6.070  0.2448 -0.0909  0.4052
47501W        W90414  33.815  26.449  19.859  0.1199 -0.0610 -0.1919
47502W        W90415  31.379  32.980  16.709  0.1267  0.1034 -0.2505
47503W        W90416  30.950  19.871  20.424  0.1497  0.2029 -0.0635
47504W        W90417  13.575   5.274  24.935  0.2466 -0.0307  0.1899
47505W        W90418  33.242  30.461  23.720  0.0132  0.0796  0.1661
47506W        W90419   7.310  25.204  21.761  0.1002 -0.1918  0.2167
47507W        W90420   2.802  17.266  22.717  0.1496  0.3259 -0.0559
47508W        W90421  28.460  34.383  22.817 -0.2822 -0.3895 -0.1275
47509W        W90422  11.264   0.791  16.702  0.1233 -0.5020  0.0534
47510W        W90423  20.226  25.768  13.571  0.0081  0.2168 -0.0506
47511W        W90424  15.027  31.152  23.313 -0.4712  0.2481  0.0590
47512W        W90425   1.158   0.843  25.015  0.1773  0.2865 -0.2600
47513W        W90426   6.682  17.622  24.752  0.1401  0.2344 -0.0859
47514W        W90427  31.682  10.819  22.444 -0.2557 -0.1270  0.0328
47515W        W90428   5.683  26.504  25.613  0.0908 -0.3496 -0.0272
47516W        W90429  12.745  18.188  14.798 -0.1718  0.2183 -0.1116
47517W        W90430   7.621  29.945  26.908  0.0940 -0.1669 -0.1504
47518W        W90431   2.940  26.998  21.623  0.0252 -0.1032 -0.0498
47519W        W90432   5.406  16.008  23.163 -0.2991 -0.1217 -0.0580
47520W        W90433   7.968  25.815  19.628 -0.1714  0.1291 -0.1645
47521W        W90434   3.944  21.837  14.244 -0.2987  0.0758 -0.3255
47522W        W90435   4.687  26.756  20.887  0.0865 -0.0370  0.2418
47523W        W90436   9.197  32.134  18.435  0.1329 -0.2955 -0.3117
47524W        W90437  14.712  25.566  19.331 -0.2892  0.1046  0.2203
47525W        W90438   9.003  26.063  15.894 -0.3813  0.3162 -0.2019
47526W        W90439   8.200   0.923  17.734  0.1162  0.0181  0.0874
47527W        W90440  16.664  23.747  13.264  0.1285  0.2009  0.1454
47528W        W90441  31.210  27.436  19.515 -0.2329  0.0601 -0.1342
47529W        W90442  17.512  28.700  17.189  0.0101 -0.1139 -0.0469
47530W        W90443  11.840  17.728  17.801  0.1846 -0.2972 -0.2042
47531W        W90444  25.734  19.743  17.055 -0.0532 -0.0080  0.0826
47532W        W90445  15.582  14.052  22.851  0.1133  0.1330 -0.1198
47533W        W90446  33.391  30.960  15.838  0.0805  0.0127 -0.1534
47534W        W90447  11.304  18.861  20.898  0.3071 -0.1847 -0.2584
47535W        W90448  10.983   2.567  22.065 -0.1753 -0.1715  0.1272
47536W        W90449  19.688  32.605  20.677 -0.2808  0.1497  0.0246
47537W        W90450  12.006  29.667   4.479  0.0795 -0.0505 -0.0234
47538W        W90451  11.351  25.061  15.027 -0.2378  0.1488 -0.2151
47539W        W90452   2.526  24.189  20.163  0.1047  0.2018  0.2100
47540W        W90453   6.013  25.828  15.705  0.0152  0.1887  0.0895
47541W        W90454   3.907  12.004  17.809  0.1316 -0.2162  0.0431
47542W        W90455  12.203  29.763  19.011 -0.1579  0.0785 -0.0084
47543W        W90456  16.379  24.668  15.420 -0.0041 -0.1872 -0.0324
47544W        W90457  32.051  24.245  27.743  0.2981  0.1742  0.0009
47545W        W90458  17.957  25.093  17.559 -0.1957 -0.1105  0.0212
47546W        W90459  15.316  29.893  15.670 -0.0138  0.1870 -0.0266
47547W        W90460  18.879  27.573  15.771 -0.0658  0.0997 -0.0541
47548W        W90461   5.354  31.081  21.787 -0.0629 -0.0448 -0.1009
47549W        W90462   5.357  19.099  27.457 -0.0396 -0.6363 -0.1970
47550W        W90463   9.949  18.742   2.602  0.2129  0.1676  0.2174
47551W        W90464  12.848  24.980  24.005  0.0213  0.1477  0.0575
47552W        W90465   7.661  31.860  19.660  0.0550  0.0912 -0.3563
47553W        W90466  12.633  24.264  17.571  0.2804  0.4532 -0.3055
47554W        W90467   9.051  20.452  13.307 -0.0491 -0.0384 -0.1264
47555W        W90468   7.473  32.297  22.895 -0.1718  0.2623  0.2267
47556W        W90469   2.865  26.563  21.865  0.5372 -0.0509 -0.1586
47557W        W90470  31.586  31.507   4.378 -0.2535  0.0958 -0.3236
47558W        W90471   8.511  17.962  14.884 -0.2197 -0.0343 -0.2296
47559W        W90472  15.304   2.625  29.738 -0.1565  0.0034 -0.0076
47560W        W90473  11.101   3.855  22.913 -0.3762 -0.2873 -0.0708
47561W        W90474  15.543  26.542  17.410  0.0310 -0.0103 -0.2607
47562W        W90475  16.287  27.835  23.070 -0.0811 -0.2792  0.1974
47563W        W90476   4.386  33.135  17.052  0.1779  0.1979 -0.1715
47564W        W90477  17.721  22.036  13.303 -0.0286  0.4993  0.3059
47565W        W90478   9.156  27.441  20.143  0.2583 -0.1390  0.2825
47566W        W90479  23.444  26.139  19.695  0.0632  0.1811 -0.1009
47567W        W90480  14.141   0.678  24.585  0.0059  0.1115  0.4195
47568W        W90481  10.419  30.422  16.251 -0.0002 -0.1256  0.2913
47569W        W90482   8.153  31.822  17.802  0.0286  0.0037 -0.0725
47570W        W90483  11.746  26.167  20.601 -0.1429  0.1082  0.1246
47571W        W90484  12.379  28.787  17.319  0.0753 -0.3545  0.1755
47572W        W90485  10.131  29.104  20.624  0.1840 -0.1833 -0.2218
47573W        W90486  19.256  26.894  16.825  0.1056  0.1578 -0.0026
47574W        W90487  18.998  33.728  19.024 -0.1570 -0.1341 -0.3736
47575W        W90488  10.163  31.244  17.435 -0.0533 -0.1945  0.1538
47576W        W90489   9.837  33.582  17.670 -0.1147 -0.1236  0.0089
47577W        W90490  22.938  17.791  13.690 -0.0975 -0.0157  0.0608
47578W        W90491   5.054  26.410  17.379 -0.0477 -0.0047  0.1998
47579W        W90492   0.013  20.962  16.191 -0.1019 -0.2995  0.3207
47580W        W90493   9.038  22.026  17.223  0.0879  0.3521  0.1976
47581W        W90494  12.045  33.103  20.453  0.0969 -0.0582  0.1631
47582W        W90495   1.412  29.111  21.639  0.0102  0.1253  0.2219
47583W        W90496  16.943  27.550  21.116  0.0992  0.0194  0.0315
47584W        W90497  11.330  30.720  20.156  0.0189  0.1022  0.2868
47585W        W90498   2.379  19.069  21.055  0.2921  0.0305  0.2675
47586W        W90499   7.820  27.938  24.918  0.0419 -0.0684 -0.2287
47587W        W90500   4.900  28.346  18.131 -0.1109  0.0291  0.0395
47588W        W90501  32.715  33.376  27.539  0.0211 -0.2699  0.2157
47589W        W90502   4.554  26.393  17.231  0.0403 -0.1823 -0.2101
47590W        W90503  25.473  30.240  16.864 -0.2138 -0.0044  0.1136
47591W        W90504   6.478  25.034   0.528  0.0459 -0.2522 -0.1029
47592W        W90505  12.311  30.892  24.553 -0.0437 -0.1315 -0.1110
47593W        W90506   4.784  27.048  15.445  0.1829 -0.0178 -0.2598
47594W        W90507   7.461  25.141  15.179 -0.2430 -0.0183  0.0198
47595W        W90508  16.033  30.902  17.055  0.2734 -0.3064 -0.2494
47596W        W90509  12.070  27.924   3.401  0.1693 -0.1431  0.0530
47597W        W90510   7.548  25.772  19.160 -0.1047 -0.1450  0.0493
47598W        W90511   3.903  23.750   0.140  0.0945 -0.0066  0.0215
47599W        W90512   8.100  33.795  25.634 -0.0964  0.1217 -0.2832
47600W        W90513  16.247  31.778  24.809  0.4093 -0.0387 -0.2042
47601W        W90514   2.381  33.259  16.164 -0.2800  0.0834 -0.0296
47602W        W90515   7.203  22.935  28.333 -0.1924 -0.0144  0.0121
47603W        W90516  33.925  31.732  14.874 -0.4107  0.0000  0.0404
47604W        W90517   0.842  28.003  26.467  0.0383 -0.1460  0.1779
47605W        W90518   0.891  26.934  15.177 -0.1003  0.0309  0.0237
47606W        W90519   6.222  26.653  20.175  0.0673  0.2451 -0.1623
47607W        W90520   1.552  24.508  23.525  0.2248  0.2151  0.1971
47608W        W90521   5.514  21.251  15.212  0.2439  0.2069  0.0921
47609W        W90522  19.236   3.087  16.920  0.0856 -0.0914  0.1816
47610W        W90523   4.077  16.560  18.170 -0.1102  0.1326 -0.1350
47611W        W90524  10.662  27.231  18.033 -0.0268 -0.2752  0.0871
47612W        W90525   8.518   2.826  18.072 -0.0884  0.0250 -0.0130
47613W        W90526  13.553   3.443  23.800 -0.2074  0.1653  0.0797
47614W        W90527   8.613  27.422  15.894  0.0073  0.2020  0.3347
47615W        W90528  11.470  33.897  18.084 -0.1431  0.0760  0.0529
47616W        W90529  33.703  18.642  14.092  0.0245 -0.0800  0.1905
47617W        W90530   6.012  30.027  17.855 -0.0539  0.1422 -0.0935
47618W        W90531   7.232  20.036  14.031 -0.1148 -0.1847  0.0633
47619W        W90532   5.681  31.603  21.145 -0.0553 -0.0052 -0.2159
47620W        W90533  32.195  27.147  23.569  0.0946  0.0371  0.2805
47621W        W90534  32.028  18.222  22.793  0.0523 -0.2836  0.1539
47622W        W90535   8.238  24.988  16.643  0.0283  0.1916  0.1385
47623W        W90536  34.277   2.392  19.458 -0.1125  0.1218 -0.3710
47624W        W90537   4.237  21.309  17.961  0.1753  0.0881  0.5124
47625W        W90538  14.002  27.967  18.516 -0.0190 -0.2382  0.2382
47626W        W90539  18.518  25.489  18.839  0.0076  0.1246  0.4053
47627W        W90540   6.557  14.528  15.839  0.1706  0.0570 -0.1849
47628W        W90541  15.386  16.666  14.173  0.0087  0.0665 -0.2087
47629W        W90542  11.500  34.131  17.172  0.1309  0.0736 -0.1854
47630W        W90543  20.234  32.729  17.015  0.0180  0.1846 -0.0264
47631W        W90544   8.318  25.733  21.987  0.1447  0.1055 -0.2979
47632W        W90545   5.784  32.497  22.384  0.1451 -0.0406  0.0931
47633W        W90546   7.359  32.708  26.539  0.0212  0.3204  0.1252
47634W        W90547  12.960  16.882  22.101 -0.3537 -0.0357 -0.1124
47635W        W90548   7.712  29.973  19.457  0.1125 -0.0681  0.0657
47636W        W90549   5.973  26.920  15.674  0.3206  0.0421 -0.2030
47637W        W90550  16.346  26.321  21.385  0.0257  0.0617 -0.2693
47638W        W90551   4.891  25.326  25.317  0.3096  0.0103 -0.2059
47639W        W90552   3.822  28.220  23.645 -0.2004 -0.0991 -0.1422
47640W        W90553   8.375  20.634  16.405 -0.1978 -0.0279  0.1387
47641W        W90554   6.495  18.619  18.777 -0.3305  0.1293 -0.1271
47642W        W90555  25.825  27.821  17.225 -0.5143  0.3649  0.0797
47643W        W90556   8.207  32.009  27.161 -0.1387  0.1313 -0.2004
47644W        W90557   5.563  20.589  20.908  0.2479 -0.0035  0.2235
47645W        W90558  19.569  33.241  22.708 -0.0367 -0.0826 -0.1411
47646W        W90559  32.109  30.687  25.830 -0.2675 -0.2655  0.0038
47647W        W90560  13.098  27.282  16.425  0.0174 -0.1291 -0.0356
47648W        W90561  13.628  25.736  24.963  0.1368 -0.0504  0.1022
47649W        W90562   5.690  27.849  18.888  0.4009 -0.4414  0.0350
47650W        W90563   3.195  29.768  18.950 -0.2414  0.2492 -0.2220
47651W        W90564  12.521  33.324  22.454 -0.2346  0.1413  0.2431
47652W        W90565  33.009  18.356  20.433  0.2892  0.2605  0.3183
47653W        W90566  11.075   5.804  20.187 -0.1571 -0.2100 -0.0116
47654W        W90567   2.557  28.107  17.119  0.0232 -0.2867  0.2732
47655W        W90568  31.959   0.719  22.036 -0.1724 -0.1978 -0.0201
47656W        W90569  13.673  22.021  14.583 -0.2786 -0.2358  0.2076
47657W        W90570   8.620  22.813  20.533 -0.1349  0.1416  0.2719
47658W        W90571  17.642  23.138  16.295 -0.0809  0.0843  0.3557
47659W        W90572   6.700  27.222  15.448 -0.3714  0.0379  0.0222
47660W        W90573   6.564  29.292  21.024 -0.3740 -0.2428  0.1773
47661W        W90574   2.060  25.140  22.578  0.1224 -0.0817  0.1149
47662W        W90575  13.674  27.597  15.886  0.2709 -0.0617  0.0820
47663W        W90576   4.317  18.178  22.348 -0.2345 -0.3312  0.0609
47664W        W90577   5.177  34.131   1.388 -0.1825 -0.0350 -0.1394
47665W        W90578   3.971  24.166  17.290  0.1761 -0.0758 -0.0249
47666W        W90579   4.071  28.513  19.846 -0.1873 -0.0628  0.0399
47667W        W90580  18.771  30.969  18.466 -0.1786  0.0978 -0.0671
47668W        W90581  20.643  33.939  29.702 -0.0405 -0.1036 -0.0915
47669W        W90582  18.537  26.186  22.735  0.1783  0.1348 -0.2316
47670W        W90583  19.563  22.176  15.932  0.0955  0.1234 -0.0476
47671W        W90584  28.876  12.247  18.719 -0.3390  0.0702  0.0448
47672W        W90585  15.969  14.356  11.388  0.0694  0.1815  0.1598
47673W        W90586   7.865  30.530  20.828 -0.0796 -0.1729 -0.2525
47674W        W90587   9.863  31.649  16.530 -0.1306  0.1950  0.1841
47675W        W90588  11.931  29.221  19.818  0.0669 -0.0246 -0.0659
47676W        W90589   9.710  30.015  19.037  0.0452  0.0888 -0.0911
47677W        W90590  12.569  28.087  18.161  0.0236 -0.0573 -0.1537
47678W        W90591   3.723  29.449  21.064  0.0917  0.0595 -0.0399
47679W        W90592  10.474  27.313  19.365  0.0220  0.0028  0.0657
47680W        W90593  30.955  19.786  15.755  0.1806  0.0160  0.1943
47681W        W90594  14.897  31.566  20.441 -0.0717  0.5892 -0.3888
47682W        W90595   9.926   3.771  18.154  0.1068 -0.0288  0.1020
47683W        W90596  16.465  25.210  26.239 -0.0193 -0.0076  0.0198
47684W        W90597   4.577  17.923  18.456  0.0576  0.2127  0.2614
47685W        W90598   5.358  24.808  19.688 -0.0385 -0.1338 -0.0444
47686W        W90599  28.509  30.830  17.820  0.0429  0.1877  0.2867
47687W        W90600  13.250  28.778  24.100 -0.4454  0.0024 -0.2509
47688W        W90601   3.528  28.542   1.698  0.1574  0.0057  0.2764
47689W        W90602   5.248  28.405  21.162  0.0907 -0.0222  0.4163
47690W        W90603   1.244  29.629  18.402  0.1308 -0.1865 -0.2165
47691W        W90604  19.420  27.365  18.140 -0.1435 -0.1327  0.0937
47692W        W90605   9.694  25.078  18.448 -0.2787 -0.3385  0.0245
47693W        W90606   4.165  29.369  14.704 -0.0672  0.1066 -0.3641
47694W        W90607   3.736  27.897  16.075  0.2202  0.3142  0.0265
47695W        W90608  11.553  27.984  25.980  0.0420  0.1223 -0.0114
47696W        W90609  16.648   2.818  16.607  0.2148 -0.1491  0.1010
47697W        W90610  10.780   4.170  22.385  0.3441 -0.1866  0.0748
47698W        W90611  16.759  24.725  17.424  0.0967 -0.0820 -0.0574
47699W        W90612   5.543  22.706  14.711 -0.1149  0.2197  0.1669
47700W        W90613   6.306  21.794  15.406  0.0067  0.0064  0.0107
47701W        W90614  12.174  11.734  18.250 -0.2532 -0.1555 -0.0731
47702W        W90615   0.837   2.247  27.512  0.2795  0.1811  0.3475
47703W        W90616  14.020  25.613  18.841 -0.0270 -0.0570 -0.1377
47704W        W90617   9.260  28.617  15.394 -0.0409 -0.0583  0.0183
47705W        W90618   5.465  29.718  19.390 -0.1994 -0.1727 -0.0506
47706W        W90619  14.466  27.696  20.042 -0.3330 -0.0757  0.0986
47707W        W90620  21.818   2.949  16.253  0.2945 -0.1874  0.4431
47708W        W90621  10.585  18.173  18.230 -0.2769  0.0618 -0.2042
47709W        W90622  15.992  22.579  22.637 -0.0619  0.0266  0.2789
47710W        W90623  34.303  32.887  22.657 -0.2325 -0.0528 -0.1858
47711W        W90624  14.916  22.096  14.792 -0.1840  0.1277  0.0752
47712W        W90625  29.741  29.042  15.666 -0.1678  0.0946 -0.0232
47713W        W90626   5.509  27.981  21.198 -0.4583  0.0146 -0.1702
47714W        W90627  14.973  31.175  20.780  0.1598 -0.3640 -0.2334
47715W        W90628   9.080  33.222  16.385 -0.0398 -0.0166 -0.1088
47716W        W90629   7.535  11.270  16.633  0.0967 -0.0072  0.3328
47717W        W90630  23.151  31.179  16.224  0.3550 -0.0382  0.0512
47718W        W90631  10.708  22.152  19.933 -0.0202 -0.2209 -0.1921
47719W        W90632   6.718  15.013  16.051 -0.1700  0.4920  0.0732
47720W        W90633  10.216  28.736  25.632 -0.1594 -0.2362 -0.3019
47721W        W90634   0.900  31.232  16.570  0.0391  0.2729  0.0460
47722W        W90635   8.950  25.079  15.822 -0.1842  0.1567 -0.2020
47723W        W90636   2.065  29.000  20.270  0.0700 -0.1876  0.1814
47724W        W90637  26.211  18.489  19.391 -0.0539 -0.0237  0.0389
47725W        W90638   4.095   1.812  17.437 -0.1708  0.0496  0.1013
47726W        W90639  25.875   1.989  19.863  0.3735  0.0109  0.2946
47727W        W90640   6.384  27.907  22.341 -0.2241  0.0475  0.0088
47728W        W90641   1.655  20.668  18.199 -0.2687  0.0254 -0.3434
47729W        W90642  33.994  30.464  13.915  0.1264  0.0111  0.0340
47730W        W90643  13.851  26.195  21.338 -0.0209 -0.0531 -0.0550
47731W        W90644   8.129  28.698  15.959 -0.1516  0.0219 -0.1828
47732W        W90645   4.168  28.028  19.169  0.2678 -0.1958  0.0455
47733W        W90646   5.236  24.039  19.898  0.2750 -0.0977  0.3747
47734W        W90647  11.129  33.393  16.563  0.3195  0.0917 -0.1838
47735W        W90648   4.401  30.510  23.729  0.0663  0.1053  0.0295
47736W        W90649   6.921  20.531  17.796 -0.2060  0.0847  0.0905
47737W        W90650  13.436  25.397  22.239  0.2920 -0.1894  0.0291
47738W        W90651  34.182  19.428  15.368  0.0390  0.2572  0.0713
47739W        W90652   7.821  26.214  19.934  0.0726 -0.0656 -0.1372
47740W        W90653   5.967  27.799  19.561  0.1765  0.1806 -0.1963
47741W        W90654  18.251  21.316  15.324 -0.0543  0.5057 -0.4528
47742W        W90655   4.027  27.535  19.100  0.1623 -0.4315 -0.0286
47743W        W90656   2.724  25.788  15.899  0.2868  0.0232 -0.0116
47744W        W90657   4.434  27.423  23.558  0.0220  0.3440 -0.3029
47745W        W90658  12.639  18.627  25.365 -0.4877  0.0604  0.1803
47746W        W90659   1.273  23.470  15.633 -0.2832 -0.0947 -0.0805
47747W        W90660   7.954   0.163  18.658  0.1364 -0.2452  0.6442
47748W        W90661  13.226  23.793  18.563  0.0738 -0.1560  0.0408
47749W        W90662  30.222  14.804  23.452  0.0784 -0.0953 -0.2322
47750W        W90663  34.140  25.627  27.428 -0.2831  0.2998  0.1834
47751W        W90664  14.222  19.988  22.606 -0.3659  0.0461  0.0288
47752W        W90665  21.814  30.191  13.673 -0.0488 -0.1423 -0.2387
47753W        W90666   2.747  19.914  15.627  0.0346 -0.1906 -0.0116
47754W        W90667   4.321  27.261  15.141 -0.0187  0.0844 -0.0045
47755W        W90668   3.206  25.334  15.937  0.0443 -0.0273  0.1780
47756W        W90669   9.884  22.203  15.632 -0.0184 -0.0881 -0.2619
47757W        W90670  19.521  32.345  15.601 -0.2947 -0.1876 -0.0789
47758W        W90671   6.075  23.439  24.446 -0.2108 -0.2857 -0.0526
47759W        W90672  11.619  26.216  24.569 -0.1475  0.0713 -0.0261
47760W        W90673   5.100  28.132  16.720 -0.2568 -0.1088  0.0643
47761W        W90674   8.844  30.726  22.024 -0.1353  0.0153  0.0808
47762W        W90675   6.440  18.723  15.328 -0.0524 -0.0458 -0.0204
47763W        W90676   4.706  24.947  22.831  0.1369  0.0689  0.2784
47764W        W90677  20.815  30.872  17.250 -0.1578 -0.1264  0.1102
47765W        W90678   1.608  25.073  21.876  0.0727  0.1936  0.3111
47766W        W90679   7.097  29.608  17.918  0.0839 -0.1127 -0.1202
47767W        W90680  10.272  27.145  16.138  0.4334 -0.3029 -0.1026
47768W        W90681  16.979  26.825  15.696 -0.1472 -0.0248 -0.0224
47769W        W90682   1.705  26.538  15.618  0.2723  0.1300  0.1371
47770W        W90683   4.769  28.357  17.661  0.0407  0.0075 -0.0554
47771W        W90684  13.006  31.697  22.182  0.1554 -0.1574 -0.1490
47772W        W90685  13.040  21.921  15.469  0.0030 -0.2159  0.1882
47773W        W90686  33.239  27.293  20.398  0.0855 -0.0512 -0.1240
47774W        W90687  23.286  11.748  24.775  0.1003 -0.0944 -0.3064
47775W        W90688  32.992  23.906  17.457  0.0970 -0.0631 -0.3523
47776W        W90689   6.935  32.108  20.167 -0.1778  0.0968 -0.1780
47777W        W90690  32.979  18.402  18.506  0.2681  0.2421  0.2178
47778W        W90691  21.026  28.688  16.364  0.1588 -0.1760  0.2355
47779W        W90692   5.139  17.607  20.435  0.0362  0.2692  0.2377
47780W        W90693   1.218  31.476  15.147  0.0183  0.0415 -0.0962
47781W        W90694  10.141  26.925  22.591  0.5016 -0.0590 -0.4846
47782W        W90695  12.015  23.447  19.573 -0.0608  0.1767 -0.0735
47783W        W90696   7.307  21.686  19.393  0.0795  0.5286  0.3883
47784W        W90697   6.656  26.895  15.926  0.3279  0.1605  0.0720
47785W        W90698   1.096  24.599  17.182  0.1272 -0.2212 -0.4081
47786W        W90699  33.770  27.486  16.568  0.1768 -0.1139  0.3423
47787W        W90700   2.321  32.060  23.188 -0.1827 -0.1814  0.2728
47788W        W90701   3.497  22.212  18.615 -0.1106  0.0412  0.3546
47789W        W90702  17.536  27.667  19.524  0.2629 -0.2864  0.3431
47790W        W90703   6.561  31.747  16.462  0.1366  0.2387  0.1349
47791W        W90704   7.238  23.939  17.965 -0.2667 -0.3039  0.3603
47792W        W90705  24.837  28.400  22.082 -0.2777 -0.2576 -0.2212
47793W        W90706   3.008  24.813  20.862 -0.1111 -0.1971  0.0315
47794W        W90707   2.433  30.277  20.550  0.2110  0.2663 -0.1470
47795W        W90708  14.573  15.228  15.973  0.0282  0.3222  0.2418
47796W        W90709  12.736  27.770  19.516  0.1838  0.1016 -0.0169
47797W        W90710  18.438  29.107  27.816 -0.0998 -0.1203  0.1497
47798W        W90711   4.626  31.310  22.855 -0.4167 -0.3126  0.2230
47799W        W90712   1.023  31.114  19.312  0.0283 -0.1280 -0.0503
47800W        W90713   6.227  20.337  16.012  0.0635 -0.0759  0.0808
47801W        W90714  10.293  29.284  21.561  0.2447 -0.5306  0.0691
47802W        W90715  14.780   8.835  21.606  0.2118  0.2178 -0.1067
47803W        W90716   0.832  28.790  17.240  0.0726  0.1757  0.3696
47804W        W90717  33.226  27.275  26.903  0.3201 -0.3063  0.1144
47805W        W90718  30.802  24.607  22.287  0.0631 -0.0945 -0.0679
47806W        W90719  12.064  27.485  23.673  0.0831  0.0436 -0.0178
47807W        W90720  34.124  28.707  17.750 -0.0481  0.2089  0.1185
47808W        W90721   3.953  18.981  19.648 -0.0632 -0.1982 -0.3421
47809W        W90722  13.921   4.386  15.172 -0.2847 -0.0168  0.1289
47810W        W90723   8.249  26.830  18.767 -0.1394  0.1017 -0.0009
47811W        W90724   1.745  30.853  26.877  0.1719 -0.0488  0.0960
47812W        W90725  14.224  11.414  23.417  0.1844 -0.0188 -0.1308
47813W        W90726  17.858  29.051  16.670  0.1612  0.1274  0.1185
47814W        W90727  13.339  28.920  21.187 -0.0073  0.2510  0.1035
47815W        W90728   8.533  23.345  23.373 -0.1376 -0.1226  0.0056
47816W        W90729  33.349  23.065  20.973  0.0157  0.0533 -0.0587
47817W        W90730  13.918   0.279  21.880  0.1880  0.2897 -0.3182
47818W        W90731  12.611  23.849  16.359  0.1720  0.1928 -0.0523
47819W        W90732  34.153  10.239  16.462 -0.2299 -0.0036  0.1025
47820W        W90733   4.306  31.075  22.092 -0.1950 -0.1696  0.0727
47821W        W90734   7.915  25.408  19.192  0.1810 -0.1491  0.3717
47822W        W90735  25.108  31.207  20.414  0.0117 -0.0931 -0.2135
47823W        W90736   8.035  24.183  25.032  0.1504  0.1423 -0.2016
47824W        W90737  19.338  23.161  23.264  0.2336  0.0538 -0.0806
47825W        W90738   7.497  25.433  21.308 -0.1407 -0.2915  0.0728
47826W        W90739  16.464  22.367  22.381  0.2389 -0.1272  0.1199
47827W        W90740   7.282   2.148  22.552  0.1260 -0.1834  0.1632
47828W        W90741   1.663  17.838  16.721  0.0366 -0.0937  0.0171
47829W        W90742   4.966  20.755  23.268 -0.0817 -0.1671  0.0433
47830W        W90743  17.880   0.892  17.374 -0.0642  0.0973  0.5043
47831W        W90744   0.715  31.107  20.785  0.2282 -0.0205 -0.0646
47832W        W90745  14.584  20.717  13.509  0.0971 -0.0564  0.0597
47833W        W90746  34.075  27.159  15.375  0.1026  0.1659  0.3428
47834W        W90747   3.630  25.948  18.891  0.0660  0.0001  0.1954
47835W        W90748  13.308  20.184  26.501 -0.1070  0.1905 -0.2536
47836W        W90749   8.566  24.370  19.911  0.1259  0.2359 -0.2797
47837W        W90750   7.044  23.168  21.046  0.2202  0.0552 -0.1197
47838W        W90751  13.419  25.392  17.321 -0.1763  0.0663  0.2885
47839W        W90752   9.475  28.784  28.344 -0.1131 -0.4983 -0.0161
47840W        W90753   3.388  26.819  21.301 -0.0804  0.0781  0.3393
47841W        W90754  25.720  20.570   6.053  0.1218 -0.2567  0.1315
47842W        W90755  11.094  32.280  20.726 -0.1182 -0.1555 -0.2689
47843W        W90756  11.779  25.462  22.321 -0.1020 -0.2467 -0.4023
47844W        W90757   1.459  31.484  22.585  0.2700  0.0461 -0.0636
47845W        W90758   6.818   1.893  17.115 -0.1680  0.0860  0.0851
47846W        W90759  16.172  26.982  17.992 -0.1172 -0.0410 -0.0583
47847W        W90760   8.478  22.392  13.857  0.0818  0.1453  0.3093
47848W        W90761  11.535  16.391  12.681  0.1874  0.1576  0.1343
47849W        W90762  16.662  31.068  17.626 -0.0578 -0.0799 -0.1242
47850W        W90763   4.429   3.029  22.017  0.3257 -0.0667  0.1599
47851W        W90764   9.514  33.837  21.854 -0.0041 -0.4366 -0.1263
47852W        W90765  34.420  28.229  17.676 -0.3476  0.0040  0.0385
47853W        W90766  12.447  27.454  23.981 -0.3090 -0.5960  0.0478
47854W        W90767  30.502  15.570  15.891  0.1172 -0.1916 -0.0033
47855W        W90768   6.540  26.399  15.860 -0.1838  0.2497  0.0034
47856W        W90769   1.570  22.554  16.815  0.0661 -0.3123 -0.1928
47857W        W90770  19.948  13.687  16.130 -0.1197  0.0178  0.1498
47858W        W90771  20.730  11.467   3.511  0.0767 -0.1686  0.0387
47859W        W90772  10.368  22.402  18.977 -0.1589 -0.1572  0.0312
47860W        W90773  33.980  30.289   8.272  0.2191  0.2231  0.0025
47861W        W90774  21.349  30.026  16.866 -0.0830 -0.0351 -0.0790
47862W        W90775  12.835   0.510  22.106  0.1050 -0.0658 -0.3768
47863W        W90776  10.543  28.530  15.988  0.2371  0.4342  0.0546
47864W        W90777   9.982  29.481  16.685  0.1154 -0.0472  0.0144
47865W        W90778  10.144  28.309  19.641  0.0315  0.0046 -0.1721
47866W        W90779   9.772  27.914  15.817 -0.0605  0.1651  0.4477
47867W        W90780  15.152  23.863   3.337  0.2067  0.2905 -0.1312
47868W        W90781   2.490  26.892  17.747  0.0464  0.1467  0.1704
47869W        W90782  10.303  24.810  21.623  0.1162 -0.0980  0.2823
47870W        W90783   3.920  31.719  15.184  0.1078  0.3444 -0.2101
47871W        W90784  33.348  18.771  14.411 -0.0147 -0.0131 -0.0549
47872W        W90785  32.067  19.197  24.108  0.1113  0.0611  0.8207
47873W        W90786   8.564   2.658  19.641 -0.0101 -0.2390 -0.0987
47874W        W90787  11.724   0.613  26.893 -0.0066  0.3779 -0.1445
47875W        W90788   9.372  26.958  17.591 -0.1607  0.0440 -0.1324
47876W        W90789   2.448  26.946  18.312  0.0557  0.2860 -0.2308
47877W        W90790  16.174  24.582  22.392  0.1487 -0.3718  0.1630
47878W        W90791   9.014  20.944  17.403 -0.1801 -0.0619  0.0067
47879W        W90792   2.954  28.088  17.427  0.0513 -0.1275 -0.3120
47880W        W90793  21.825  25.361  15.100 -0.0407 -0.1882  0.1084
47881W        W90794  11.778   1.078  17.639  0.1309  0.1322 -0.4145
47882W        W90795   8.158  29.330  22.723  0.3571 -0.0896 -0.0799
47883W        W90796   0.748  22.824  25.964 -0.0084  0.0738  0.0336
47884W        W90797  19.506  21.199  13.982 -0.2814 -0.2033  0.0828
47885W        W90798  15.129  27.562   1.264  0.1590  0.0794 -0.2145
47886W        W90799   9.856  26.104  15.550  0.4541 -0.2266  0.1003
47887W        W90800  13.069  24.716  19.620 -0.1863  0.0541 -0.1065
47888W        W90801   1.476  25.505  24.583  0.2871 -0.2384  0.0894
47889W        W90802  23.225  32.755  18.078 -0.3317 -0.2969 -0.1486
47890W        W90803  11.820  22.288   6.130 -0.1581  0.0618 -0.1280
47891W        W90804   2.618  31.073  17.106  0.2210 -0.3200 -0.2142
47892W        W90805   2.920  25.958  15.514 -0.0973  0.0204  0.3931
47893W        W90806  11.695  24.705  26.523 -0.3095 -0.0735 -0.0630
47894W        W90807   7.252   8.731  23.718  0.0621  0.0112  0.0064
47895W        W90808   7.191  31.378  18.116 -0.2291  0.2362  0.1482
47896W        W90809  20.851   4.299  14.734  0.0219 -0.2418 -0.0090
47897W        W90810   9.272  28.056   0.741 -0.2286 -0.1701  0.0927
47898W        W90811  32.065  24.187  25.718  0.0528  0.1917  0.1416
47899W        W90812   9.515  22.593  25.920 -0.3883 -0.0436 -0.3815
47900W        W90813   1.634  25.596  26.213 -0.0941  0.3509  0.1270
47901W        W90814   9.164  29.236  17.519 -0.2159 -0.1770 -0.0217
47902W        W90815  17.259  25.976  15.783 -0.2258  0.2411  0.1303
47903W        W90816  13.425  11.125  19.387 -0.1069  0.3920 -0.1450
47904W        W90817  17.849  15.074  14.658 -0.1408  0.0017 -0.1449
47905W        W90818  10.660  19.998  23.655  0.1662 -0.1475  0.1706
47906W        W90819   5.967  21.943  14.254 -0.0691 -0.1090  0.0572
47907W        W90820  18.636  27.729  14.146 -0.2076 -0.2247  0.2134
47908W        W90821  21.219   3.960  23.029 -0.4249  0.2934  0.0165
47909W        W90822  11.649   2.712  17.841  0.1775 -0.2949  0.0899
47910W        W90823  23.051  24.546  12.207 -0.0354  0.1860 -0.2135
47911W        W90824   8.991  17.524  22.753  0.0475 -0.0796  0.2655
47912W        W90825   1.853   2.697  19.724  0.3388 -0.1018 -0.0681
47913W        W90826  31.462  21.806  20.710  0.1431 -0.3570 -0.1742
47914W        W90827   9.327  31.223  20.123 -0.4833  0.0970 -0.2071
47915W        W90828   8.713  29.494  22.522  0.5211  0.1333  0.1130
47916W        W90829  34.329  25.181  20.922  0.0032 -0.0370 -0.0938
47917W        W90830   1.721  23.851  27.570  0.2661 -0.1067 -0.3473
47918W        W90831  10.636  14.199  21.093  0.3150 -0.2570 -0.1239
47919W        W90832  32.217  33.520  26.264 -0.2181 -0.0509 -0.2127
47920W        W90833  11.425  31.212  17.604  0.0958 -0.0299 -0.0136
47921W        W90834  33.378  33.991  26.239 -0.1639  0.5124 -0.2810
47922W        W90835  13.486  22.663  21.960 -0.0035  0.2950 -0.0190
47923W        W90836   9.007  20.232  22.319 -0.0532 -0.1849  0.0385
47924W        W90837  10.214   1.264  18.890 -0.1625  0.1015 -0.0966
47925W        W90838   4.001  29.688  16.059  0.1735 -0.0036  0.1714
47926W        W90839  14.621   5.824  20.797  0.0036  0.2922 -0.2309
47927W        W90840  28.165   3.220  26.086  0.0585 -0.1128  0.0613
47928W        W90841  13.601  27.432  21.093  0.0711 -0.2301 -0.0380
47929W        W90842  27.182  25.528  15.303  0.1386 -0.4226  0.0637
47930W        W90843  14.576  21.347  19.862 -0.2578  0.0017  0.1178
47931W        W90844   7.231  29.881  22.520  0.1869 -0.1216 -0.0523
47932W        W90845  15.353  29.488  16.308  0.1719  0.0594 -0.1835
47933W        W90846  12.862  21.056  28.710 -0.3862  0.4972 -0.3869
47934W        W90847  12.057  22.283  14.436 -0.1340 -0.1224 -0.2118
47935W        W90848  32.160  34.135  25.921 -0.0305  0.0630 -0.1502
47936W        W90849  10.753  26.884  21.580 -0.2672 -0.2386 -0.1379
47937W        W90850  17.128  26.806  18.821  0.2505 -0.1493  0.0480
47938W        W90851   9.021  33.923  18.008 -0.1758  0.0413  0.0503
47939W        W90852   9.119  32.393  19.381  0.1810  0.3399 -0.0860
47940W        W90853  30.152  31.920  29.288  0.0438  0.0379 -0.1843
47941W        W90854  14.040  28.178   0.566  0.1412 -0.1684  0.2351
47942W        W90855   7.501  26.404  26.101 -0.0002 -0.0511 -0.1982
47943W        W90856  20.761  23.154  15.785 -0.1868 -0.0983 -0.0962
47944W        W90857   5.017  29.732   0.099  0.0012 -0.2089  0.0706
47945W        W90858  13.907  34.165  17.534  0.0635 -0.1561  0.3461
47946W        W90859  32.419  24.466  14.830 -0.0982 -0.2180 -0.2955
47947W        W90860   7.488  27.206  16.691  0.2599 -0.1324  0.0962
47948W        W90861   8.458   4.534  23.065 -0.2713  0.1349  0.0564
47949W        W90862   6.878  25.517  22.726 -0.0488 -0.2235 -0.1073
47950W        W90863  14.738  24.047  20.780 -0.0676  0.0984  0.0444
47951W        W90864   2.005   7.423  27.577 -0.0670 -0.0075 -0.0712
47952W        W90865  33.982   3.113  19.723  0.0661  0.0801 -0.2366
47953W        W90866   8.780  30.590  17.029  0.3492  0.1494  0.0546
47954W        W90867  15.447  18.201  12.339 -0.1067 -0.0029 -0.0790
47955W        W90868   2.844  20.445  20.791 -0.0709 -0.0812 -0.0395
47956W        W90869  14.656  28.251  17.936 -0.0113 -0.3187 -0.2176
47957W        W90870   6.200  34.495  17.275  0.0139 -0.3109  0.0176
47958W        W90871  12.170  19.866  29.102 -0.0073 -0.5062  0.1322
47959W        W90872  13.055  20.773  17.937 -0.0074  0.1829  0.0487
47960W        W90873  13.929  29.191  23.122  0.0951 -0.2112  0.0154
47961W        W90874  16.160  30.157  19.871 -0.1077 -0.2614  0.0561
47962W        W90875   2.222  29.499  20.431  0.2575 -0.0117 -0.1190
47963W        W90876  17.327  21.122  13.225 -0.0493  0.4206 -0.1859
47964W        W90877   9.978  26.548  20.447 -0.0622  0.1096 -0.2415
47965W        W90878  23.209  19.345  12.196  0.0177 -0.1950 -0.1351
47966W        W90879  25.605  32.196  13.922  0.0796 -0.0413 -0.0627
47967W        W90880   5.743  31.090  17.905 -0.3324  0.0853  0.0021
47968W        W90881   4.454  25.266  15.878 -0.1341 -0.0583 -0.1061
47969W        W90882  10.538  24.965  17.690 -0.0741  0.1913  0.0293
47970W        W90883  12.508  30.601  21.363  0.0484 -0.3164  0.2185
47971W        W90884   6.062   1.156  18.608 -0.0445  0.3346 -0.4438
47972W        W90885   5.755  27.342  18.902 -0.0731  0.0997 -0.0363
47973W        W90886  18.559   0.872  16.716  0.1154 -0.4456  0.0687
47974W        W90887   0.626  16.014  16.982  0.1489 -0.1262  0.0398
47975W        W90888  13.492  24.211  26.238 -0.1094 -0.0890  0.0634
47976W        W90889  18.166  19.460  12.427  0.1596 -0.0327 -0.0057
47977W        W90890   0.907  22.151  20.838  0.1708 -0.1740  0.1904
47978W        W90891   7.177   2.689  18.314  0.1215  0.3043 -0.0714
47979W        W90892  22.162   1.662  14.345  0.0585  0.1186  0.0833
47980W        W90893  15.718  31.074  16.051 -0.0748 -0.1861 -0.0360
47981W        W90894   6.497  32.336  21.093 -0.2449 -0.0631 -0.1047
47982W        W90895   9.990  33.828  24.108 -0.1875 -0.1106  0.1983
47983W        W90896  15.387  21.297  15.242  0.1400 -0.1070  0.4960
47984W        W90897  16.181   0.047  15.684 -0.0333 -0.2638 -0.4661
47985W        W90898  34.381  19.248  28.450 -0.0215  0.2103  0.0406
47986W        W90899   7.915  25.032  24.675  0.4104  0.3054 -0.5451
47987W        W90900   8.017  19.399  23.476  0.0481  0.2131 -0.1778
47988W        W90901   9.311  24.156  17.016  0.0363 -0.3410 -0.1656
47989W        W90902  32.727  22.336  20.933 -0.1131 -0.1601 -0.1174
47990W        W90903  15.365  31.418  16.553 -0.0460  0.1907 -0.1648
47991W        W90904  33.014  26.903   1.666  0.0300  0.1352 -0.2502
47992W        W90905   2.276   5.283  18.970  0.1210  0.0742  0.3694
47993W        W90906  12.840   0.608  20.432  0.1719 -0.1664 -0.2029
47994W        W90907  11.959  21.400  17.720 -0.0921 -0.2862  0.0843
47995W        W90908  28.519  25.307  24.382 -0.1657 -0.2257  0.2033
47996W        W90909   9.823   1.569   9.610  0.0200 -0.0963  0.0026
47997W        W90910  15.071  30.514  18.089 -0.0073  0.0345 -0.0345
47998W        W90911  13.832  11.703  23.452 -0.1090  0.2771  0.1166
47999W        W90912   8.493  15.262   0.834 -0.0027 -0.5151 -0.1947
48000W        W90913   6.947  19.623  17.633  0.2547  0.2066  0.0488
48001W        W90914  14.175  13.376  21.025 -0.1072  0.1962 -0.2339
48002W        W90915   5.729  32.755  19.996  0.2916 -0.1252  0.3579
48003W        W90916  34.405  20.054  21.706 -0.3585 -0.1375 -0.0622
48004W        W90917   0.264  26.734  20.776 -0.3550 -0.0459 -0.0825
48005W        W90918   0.533   0.158  27.974 -0.5338  0.3412 -0.0661
48006W        W90919  10.220  30.080  20.495  0.0434 -0.1314 -0.0275
48007W        W90920  24.106  21.811  21.191  0.1444  0.0217  0.1510
48008W        W90921  10.129   2.695  24.161 -0.3763  0.4394 -0.0437
48009W        W90922   5.705  27.848  19.940 -0.2683 -0.1831 -0.1187
48010W        W90923  15.732  14.259  13.977 -0.0872  0.0045 -0.0628
48011W        W90924  18.598  20.454  12.291  0.0550  0.0571  0.0503
48012W        W90925  12.492  25.399  17.143  0.0917  0.0372 -0.3117
48013W        W90926  11.009  11.119  20.746  0.0140 -0.2287  0.0809
48014W        W90927   6.059  26.912  16.430 -0.3204  0.2266  0.0630
48015W        W90928   5.260  24.748  16.298 -0.3697  0.1238 -0.1672
48016W        W90929   2.500  27.938  20.546  0.1606  0.1524 -0.0718
48017W        W90930  31.385  32.071  22.045  0.0474 -0.1378 -0.1559
48018W        W90931  19.755  11.204  20.193 -0.0926 -0.0211 -0.0731
48019W        W90932   3.627  31.559   0.813  0.0067 -0.3107  0.0201
48020W        W90933   7.407  29.023   0.926  0.0242  0.0719  0.1390
48021W        W90934   9.591  33.073  17.563  0.0905  0.1534  0.1786
48022W        W90935   2.700  23.940  23.151  0.0533  0.1570  0.0130
48023W        W90936   9.256  16.396  13.851  0.0316  0.2093  0.0028
48024W        W90937  11.819   2.352   1.721 -0.1817  0.1239 -0.0021
48025W        W90938   4.740  31.156  27.151  0.1143 -0.2516  0.2420
48026W        W90939   7.797  22.951   2.334  0.1963  0.0029  0.0881
48027W        W90940   9.040   5.777  25.407  0.2001 -0.2096 -0.0479
48028W        W90941  15.089  29.941  23.028 -0.2212  0.0453 -0.0468
48029W        W90942  29.536  31.431  23.326  0.1594 -0.1532 -0.2196
48030W        W90943  16.056  29.418  16.291  0.1642  0.1135  0.1097
48031W        W90944   2.847  31.560  19.693  0.0087 -0.0925  0.2340
48032W        W90945   2.032  32.429  20.436 -0.0649 -0.0529 -0.0260
48033W        W90946  16.520  25.548  15.255  0.1187  0.0812  0.0560
48034W        W90947  15.313  25.013  16.538 -0.0937 -0.2619 -0.1458
48035W        W90948  14.895   1.402  27.161 -0.1007 -0.0276  0.0869
48036W        W90949   6.394  33.968  29.550 -0.2706  0.0183 -0.1137
48037W        W90950  33.094  22.927  26.280  0.1036  0.1252 -0.1667
48038W        W90951  14.563  30.325  19.053  0.2837  0.0189 -0.0420
48039W        W90952  10.120  22.022  13.272  0.0669 -0.0958 -0.1197
48040W        W90953  15.536  27.599  19.578 -0.1905  0.1592  0.2321
48041W        W90954   7.452  27.171  18.565  0.2667 -0.1952 -0.0908
48042W        W90955  13.698  34.429  24.244 -0.2203 -0.0820 -0.0930
48043W        W90956   7.889  19.058  22.042  0.0230  0.1565 -0.2406
48044W        W90957  24.050  27.212  20.368 -0.0581  0.1719 -0.2285
48045W        W90958  16.022  30.810  16.494 -0.2766  0.2703 -0.3032
48046W        W90959   8.114  20.638   3.126  0.3217  0.1937 -0.0558
48047W        W90960  32.188  23.442   9.945  0.0493 -0.1022 -0.0456
48048W        W90961  16.009  33.157  16.031 -0.1237  0.1683  0.0588
48049W        W90962  12.317  26.217  20.333 -0.0021  0.0667 -0.1745
48050W        W90963   2.671  29.213  20.684  0.0600 -0.0148 -0.1462
48051W        W90964   8.311  17.180  20.055  0.0813  0.0217  0.1422
48052W        W90965  17.096  28.707  23.701 -0.2388 -0.3169  0.2401
48053W        W90966  14.388  22.958  13.528  0.1928 -0.5269 -0.0598
48054W        W90967  17.289  20.860  17.864  0.0767  0.2046 -0.0628
48055W        W90968   4.851  27.160  18.801 -0.0657 -0.1798  0.1334
48056W        W90969   3.869  33.648  19.926  0.1020 -0.2134  0.0423
48057W        W90970  34.340  25.935  13.879  0.2264  0.3453 -0.0286
48058W        W90971   0.420  31.485  19.462  0.0871  0.0448  0.2684
48059W        W90972   4.795  33.482  24.999 -0.0885 -0.0114 -0.0829
48060W        W90973  10.123  27.320  20.231 -0.0256 -0.3256 -0.2480
48061W        W90974  14.796  34.400  19.914  0.0951  0.2232 -0.1621
48062W        W90975   3.538  25.475  17.662 -0.0185 -0.0084 -0.2282
48063W        W90976  18.170  29.923  20.817 -0.1641  0.0773  0.2058
48064W        W90977   3.766  24.772  28.217 -0.1122 -0.1780 -0.2318
48065W        W90978  12.728  27.571  15.301  0.0321 -0.0922 -0.0815
48066W        W90979   9.140  28.469   1.846 -0.1338 -0.0906 -0.0289
48067W        W90980  10.704  28.313  24.971 -0.0899  0.0022 -0.3840
48068W        W90981   8.688  15.232  15.381 -0.0283  0.0376 -0.0052
48069W        W90982  13.885  26.572  14.142 -0.1325 -0.2606 -0.1704
48070W        W90983  19.033  32.520  23.660  0.1811 -0.0448  0.0324
48071W        W90984  34.246  20.679  20.069  0.0183  0.3146  0.1542
48072W        W90985   8.574  33.734   1.645 -0.1893  0.0907  0.3404
48073W        W90986  23.887  22.352  14.493  0.1825 -0.2261 -0.0875
48074W        W90987   4.180  27.134  16.015  0.1636  0.1758 -0.0363
48075W        W90988  16.136  27.663  28.707  0.1534 -0.2672 -0.1457
48076W        W90989  18.050  19.450  15.709 -0.1472  0.0480  0.0058
48077W        W90990   5.234  27.578  17.567  0.2241 -0.1109  0.2417
48078W        W90991   4.389  18.688  19.525 -0.0175 -0.2229  0.1520
48079W        W90992   9.933  32.906  19.394  0.0236 -0.2405  0.0247
48080W        W90993   8.787  23.810  29.451  0.0236  0.0903  0.3288
48081W        W90994  10.287  34.135  26.518 -0.0236 -0.2816  0.0330
48082W        W90995   3.217  11.476  19.529  0.0419 -0.1561  0.0012
48083W        W90996  11.383  27.207   2.318 -0.0187 -0.0205 -0.2580
48084W        W90997   2.767  26.171  17.793 -0.1099 -0.0023  0.0053
48085W        W90998  10.665  31.220  17.885  0.0360 -0.2406 -0.1305
48086W        W90999   7.677  23.931  18.490 -0.0004 -0.0269  0.1531
48087W        W91000   6.378  28.132  23.580  0.3258 -0.2272  0.1731
48088W        W91001   0.342  29.706  17.643 -0.0850  0.0160 -0.1183
48089W        W91002   8.643  21.712  24.538 -0.1434  0.4356  0.1989
48090W        W91003   7.606  28.143  21.907 -0.0190  0.1685 -0.2663
48091W        W91004   6.387  32.713  17.869 -0.1393  0.3317  0.0640
48092W        W91005   1.896  21.428  18.702 -0.1019 -0.0208  0.0225
48093W        W91006  30.308  29.929  27.034 -0.1033  0.3048 -0.1656
48094W        W91007  17.119  22.974  13.408  0.0136  0.1254 -0.1287
48095W        W91008   5.418  30.022  21.621 -0.2814  0.0763 -0.2043
48096W        W91009   5.635  27.341  27.710  0.0566  0.0227 -0.0573
48097W        W91010  14.038  24.081  17.321  0.0447 -0.0346  0.2453
48098W        W91011   4.349  20.564  15.812  0.1407  0.2838 -0.1353
48099W        W91012  21.082  28.822  13.733 -0.0579  0.2559  0.0752
48100W        W91013   5.272  29.440  24.275  0.1738 -0.0196 -0.0232
48101W        W91014  23.882   7.214  24.930  0.1138 -0.0289  0.1230
48102W        W91015   7.980  29.052  19.622  0.0592 -0.1833 -0.0191
48103W        W91016   9.971  19.981  17.074  0.0962 -0.2719 -0.0188
48104W        W91017  12.433  17.132  15.074 -0.3520 -0.2833  0.2554
48105W        W91018   1.189   0.667  18.263 -0.0657 -0.0990  0.0476
48106W        W91019  10.869  16.146  28.365  0.2607 -0.1130  0.0116
48107W        W91020  17.083  30.757  16.223  0.1938 -0.0821 -0.0574
48108W        W91021  13.054  16.885  18.681 -0.2167 -0.0369 -0.2370
48109W        W91022  11.078   0.366  22.192 -0.0351 -0.1107  0.1326
48110W        W91023  24.697  30.631  17.224  0.2256 -0.2224  0.0901
48111W        W91024  10.902  25.993  17.826 -0.3497  0.1290  0.1409
48112W        W91025   4.743   9.050  21.970  0.0200  0.2958  0.1334
48113W        W91026  24.550  29.494  14.073 -0.2187 -0.1824  0.1032
48114W        W91027   5.236  28.011  19.938 -0.0744 -0.1784 -0.2624
48115W        W91028  13.469   4.027  25.147  0.1398 -0.0686  0.3078
48116W        W91029  12.424  30.081  19.481  0.0314 -0.1232  0.0038
48117W        W91030  18.173  10.215  18.657 -0.4593  0.0968  0.0338
48118W        W91031  19.857  33.178  18.042  0.5059 -0.5175 -0.0859
48119W        W91032  17.384  28.346  27.632  0.0272  0.0856  0.2020
48120W        W91033  11.056  30.058  25.631  0.4528  0.0188  0.0541
48121W        W91034  17.633   6.119  27.425  0.3820 -0.1436 -0.0384
48122W        W91035  26.746  13.483  17.326 -0.1612  0.0124 -0.2596
48123W        W91036   9.567  11.859  19.258  0.0609 -0.2069 -0.1975
48124W        W91037   4.617  30.393  23.281  0.2716  0.1630 -0.3579
48125W        W91038   4.957  29.656  23.706 -0.1018  0.1670 -0.0024
48126W        W91039   6.663  23.649  22.489 -0.2755 -0.1240 -0.1844
48127W        W91040  19.641  22.210  12.900 -0.3389  0.0634  0.0370
48128W        W91041   0.389  30.485  21.314 -0.0565  0.0730 -0.2996
48129W        W91042  14.175  14.327  15.794  0.3323  0.3417 -0.2565
48130W        W91043   3.211  24.102  15.327 -0.0713 -0.0819  0.0917
48131W        W91044  13.897   7.250  15.755 -0.0069 -0.1290  0.0548
48132W        W91045   9.773  29.086  25.215  0.3250  0.1649 -0.2816
48133W        W91046  12.112  24.438  28.973  0.0170  0.3563 -0.3581
48134W        W91047   5.467  25.061  20.191  0.0253  0.0934  0.2343
48135W        W91048  31.409  28.930  15.600  0.0537 -0.2503  0.1663
48136W        W91049   6.781  31.220   2.663 -0.0018 -0.2330  0.0384
48137W        W91050   8.400  18.618  15.068 -0.0146  0.1943  0.0243
48138W        W91051  11.214  20.193  24.886  0.0612 -0.2327  0.3202
48139W        W91052  18.385   7.331  14.456  0.0821  0.3910 -0.0375
48140W        W91053   9.645  21.335  19.489  0.0008 -0.1232 -0.0719
48141W        W91054  31.685  30.156  14.731  0.2597  0.0629  0.1150
48142W        W91055  27.929   6.372  18.341  0.0105 -0.2407  0.1294
48143W        W91056   0.316  25.511   3.432  0.1787 -0.4105  0.3305
48144W        W91057  19.185  31.085  16.263  0.1906  0.0237 -0.0649
48145W        W91058  11.660  22.129  23.232 -0.5071 -0.0605  0.1159
48146W        W91059   4.497  32.347  19.016  0.0848 -0.0427  0.2590
48147W        W91060   4.953  29.555  25.973 -0.3733 -0.2594 -0.0868
48148W        W91061   7.817   0.988  24.748  0.0440  0.2700 -0.1847
48149W        W91062   3.001  24.135  29.154  0.2138  0.1343 -0.0891
48150W        W91063   1.850  18.992  16.389  0.1050  0.2476 -0.1960
48151W        W91064   8.977  29.714  16.448 -0.2843  0.0818  0.2212
48152W        W91065  32.249  22.306  18.796 -0.1777  0.0111  0.1253
48153W        W91066  15.570  23.879  15.537  0.0300 -0.2480 -0.0079
48154W        W91067  11.777  26.777  22.205  0.0774 -0.2972 -0.0504
48155W        W91068  23.748   8.082  19.130  0.1564 -0.1261 -0.0086
48156W        W91069   3.774  27.311  21.012  0.1467  0.1534  0.2995
48157W        W91070   5.256  23.031  14.990 -0.1965 -0.0130  0.2019
48158W        W91071  10.046  31.351  18.404  0.3386  0.1239  0.0831
48159W        W91072   5.965  26.925  25.317  0.0521  0.4452 -0.0125
48160W        W91073   6.223  27.724  26.374  0.1618 -0.0686  0.0136
48161W        W91074  19.754  13.076  16.585  0.0642 -0.2561  0.3311
48162W        W91075  19.076  27.888  16.068 -0.0247 -0.0837 -0.3001
48163W        W91076  10.676  20.459  28.624 -0.4664  0.0733  0.0817
48164W        W91077   2.772  33.559  22.020  0.0181  0.1291 -0.0037
48165W        W91078   2.413  25.308   2.454  0.3054  0.3824 -0.0523
48166W        W91079   5.942  23.733  16.934  0.0557  0.4277 -0.0078
48167W        W91080  19.837  26.012  24.583  0.2551 -0.1867  0.0766
48168W        W91081  30.698  29.584  24.051 -0.0393  0.0950  0.0774
48169W        W91082  10.180  29.801  24.686 -0.0191 -0.2473  0.0733
48170W        W91083   1.810  30.212  16.084 -0.1974  0.2178  0.1450
48171W        W91084   3.491  24.764  20.727 -0.0623  0.1948  0.1135
48172W        W91085   9.211  17.820  17.150 -0.0753 -0.1496  0.0688
48173W        W91086  11.057  21.594  21.095  0.0225  0.2207  0.3981
48174W        W91087  29.577   5.399  28.500  0.0981  0.1932  0.0098
48175W        W91088   7.664  20.425  18.696 -0.4253  0.3834 -0.1657
48176W        W91089  18.334  21.699  16.244 -0.1713  0.2335  0.1378
48177W        W91090   9.178  12.619  18.891  0.1189  0.0497  0.2581
48178W        W91091  15.383  19.175  26.466  0.0275 -0.1364 -0.1716
48179W        W91092  20.274  30.135  18.244 -0.1701 -0.1883 -0.0104
48180W        W91093  23.992  16.359  20.447  0.1751 -0.2141  0.2161
48181W        W91094   5.208  32.269   5.989  0.1942  0.4312  0.2727
48182W        W91095   5.383  31.263  20.208 -0.1838  0.3538  0.0622
48183W        W91096   7.389  22.598  18.394  0.1182 -0.2774 -0.3049
48184W        W91097   7.977  27.436  18.310  0.0720 -0.0109 -0.0734
48185W        W91098   7.732  24.410  25.840 -0.4020  0.0300 -0.2272
48186W        W91099   4.733  24.914  21.445  0.0002  0.1566  0.1786
48187W        W91100   7.879  27.655  20.073 -0.0643 -0.1234 -0.2133
48188W        W91101   7.038  18.915  23.607  0.1206  0.0673  0.0506
48189W        W91102   0.506  26.566  19.819 -0.3278 -0.1927  0.1200
48190W        W91103  17.233   4.032  18.514  0.0232  0.0262  0.4730
48191W        W91104  28.494   0.760  24.494 -0.1117 -0.2573  0.0073
48192W        W91105   6.930  30.826  21.965  0.0847  0.0537 -0.1283
48193W        W91106   2.861  27.598  14.913 -0.0105  0.2140 -0.2778
48194W        W91107  11.643  26.533   3.646 -0.0901 -0.1146  0.1323
48195W        W91108   9.464  34.372  24.060  0.3927  0.0297  0.1306
48196W        W91109   1.845  20.242  15.845 -0.3545  0.2636  0.0906
48197W        W91110   9.434  23.055  27.278  0.3259  0.2070  0.2992
48198W        W91111   2.103  24.209  19.844  0.0808  0.1953 -0.3281
48199W        W91112  32.351  31.939  29.370  0.2047  0.0156 -0.0817
48200W        W91113  14.790  30.931  17.945 -0.2014  0.0406  0.2511
48201W        W91114   8.412  27.890  19.071  0.3279  0.1148  0.2777
48202W        W91115  17.419  28.605  19.630 -0.2432 -0.0105 -0.1493
48203W        W91116   6.883  26.438  24.028  0.2136 -0.3088 -0.3837
48204W        W91117  33.915  25.671   3.331 -0.0508  0.2335 -0.2528
48205W        W91118   3.679  21.431  19.094  0.0483 -0.3833 -0.4867
48206W        W91119   8.035   4.446  19.615  0.2775  0.2212 -0.0703
48207W        W91120  15.971  21.061  18.221  0.2465  0.0116  0.1664
48208W        W91121  13.733  30.068  20.361  0.0215  0.1706  0.1633
48209W        W91122   4.170  29.354  22.264  0.0769 -0.0804 -0.1156
48210W        W91123   9.552  20.320  20.638  0.1580  0.0772  0.1761
48211W        W91124  23.438  26.481  15.835  0.0370  0.1719 -0.0624
48212W        W91125   5.348  28.433  17.919  0.3160 -0.1206  0.1436
48213W        W91126   1.537  31.387  15.631  0.0342 -0.1341  0.2348
48214W        W91127  19.164   4.895  18.948 -0.1646 -0.1641 -0.1990
48215W        W91128   3.263   5.070   0.925 -0.1107  0.1733 -0.0298
48216W        W91129   3.103  14.756  17.871  0.0215 -0.1700 -0.1379
48217W        W91130  10.963  18.621  15.232  0.0389 -0.2714 -0.2717
48218W        W91131  16.496  23.601  21.653 -0.1271  0.0718 -0.0926
48219W        W91132  24.244  23.902  22.297 -0.0533  0.2223 -0.1656
48220W        W91133  15.014  28.207  17.544  0.3383  0.2620  0.2172
48221W        W91134  12.937  10.809  16.699  0.2779  0.0795  0.0637
48222W        W91135   5.709  24.263  18.158  0.0928  0.0304  0.0805
48223W        W91136  10.401  19.691  28.202 -0.2499  0.0024  0.2158
48224W        W91137  15.860   6.727   9.328  0.1001  0.1093  0.0317
48225W        W91138  16.527  28.501  15.368  0.0813 -0.0763  0.1362
48226W        W91139  15.262   1.673  26.424 -0.1487  0.1873  0.5623
48227W        W91140   2.973  26.334  16.385 -0.0506  0.2544 -0.4294
48228W        W91141   9.441  26.750  18.040  0.2330  0.2320 -0.1381
48229W        W91142  13.254   6.654  15.639  0.0693  0.3306 -0.0339
48230W        W91143   8.803  31.855  17.480 -0.0540  0.0527  0.1870
48231W        W91144  13.131  23.550  19.953 -0.2081  0.3996 -0.3700
48232W        W91145  12.161  25.952  19.117  0.1774  0.0469 -0.0446
48233W        W91146   6.736  24.643  15.043  0.1020  0.0070 -0.2253
48234W        W91147   7.904  18.826  16.906  0.0186  0.2524  0.2475
48235W        W91148  17.414  21.486  16.002  0.0586  0.0933 -0.1086
48236W        W91149   4.977  26.092  20.874 -0.0391  0.2224 -0.1248
48237W        W91150   3.791  20.001  18.045  0.1726 -0.0783 -0.0658
48238W        W91151   5.371  31.643  22.528 -0.1559 -0.0920  0.3565
48239W        W91152  15.877  30.263  24.049 -0.3271 -0.0877 -0.1738
48240W        W91153   7.404  24.532  16.070 -0.2946 -0.0114  0.3024
48241W        W91154  33.612  19.498  23.227 -0.2682  0.1715 -0.0473
48242W        W91155   5.098  31.107   3.767  0.0476  0.2554  0.0390
48243W        W91156  12.818  25.607  24.164  0.1525 -0.0964 -0.0918
48244W        W91157  19.200  28.597  27.112  0.0705 -0.0155 -0.2228
48245W        W91158  16.433  23.423  16.384 -0.1138  0.0671 -0.0027
48246W        W91159  14.778  32.827  22.737 -0.2319  0.3170  0.0709
48247W        W91160  11.737  12.109  20.663  0.2295  0.2271 -0.1635
48248W        W91161  30.934  33.874  29.140  0.0322  0.1057 -0.0642
48249W        W91162  12.452  27.399   0.813  0.2058  0.0011  0.1198
48250W        W91163   9.470  23.189  24.716  0.0070  0.0179 -0.0352
48251W        W91164  13.027  29.178   2.159 -0.2511  0.1821 -0.2425
48252W        W91165   3.159  13.445  17.190 -0.0063 -0.3000  0.0336
48253W        W91166  17.421  20.246  15.498  0.3067  0.0891  0.1070
48254W        W91167  15.670  24.186  15.929 -0.0555 -0.0311  0.0165
48255W        W91168   6.544  26.587  17.420 -0.0039 -0.0052 -0.0948
48256W        W91169  10.334  25.078  27.313  0.1052  0.2831  0.2674
48257W        W91170  19.004  30.021  18.786  0.0536  0.1252  0.3367
48258W        W91171   1.658  19.734  18.806  0.0513 -0.1777 -0.0517
48259W        W91172  14.994  30.183  24.747 -0.2037 -0.1587  0.1899
48260W        W91173   4.241  26.369  28.241  0.1216 -0.2835  0.2420
48261W        W91174  20.395  26.534  17.643  0.2554  0.3419  0.0038
48262W        W91175   9.794  23.654  17.723  0.0567 -0.0133 -0.1463
48263W        W91176  12.396  29.210   2.047 -0.0787  0.0973 -0.0559
48264W        W91177  15.800  15.389  28.993  0.1225  0.0954 -0.3094
48265W        W91178  12.749  20.756  21.542  0.2329 -0.4446 -0.0586
48266W        W91179   6.337  29.239  28.580  0.0841  0.0748  0.2591
48267W        W91180   3.388  25.074   4.067  0.0765 -0.0586 -0.0532
48268W        W91181  10.134  19.446  21.144  0.0894  0.0502  0.1724
48269W        W91182   2.718  14.676  21.342 -0.3130 -0.1184  0.0793
48270W        W91183   2.335  26.184   3.136  0.1232 -0.1307 -0.0153
48271W        W91184  11.920  16.537  28.808  0.0771 -0.2527  0.0299
48272W        W91185  12.667  23.253  19.893 -0.3281 -0.1088 -0.2449
48273W        W91186   4.490  25.695  23.908 -0.1074 -0.0283  0.0731
48274W        W91187  15.391  26.056  22.751 -0.0368 -0.2734  0.4726
48275W        W91188  18.737  31.302  19.865  0.1701 -0.1660  0.0525
48276W        W91189  31.094   1.111   9.594 -0.1245 -0.4427 -0.1304
48277W        W91190  16.582  29.304  27.136 -0.0214  0.0499  0.1217
48278W        W91191   2.988  24.643  27.377  0.0858  0.0417 -0.1800
48279W        W91192  10.798  19.631  16.764  0.0680 -0.0707 -0.0211
48280W        W91193  18.043  24.536  23.249 -0.1601  0.0438  0.1594
48281W        W91194  13.677  25.219  16.875  0.0788 -0.0518 -0.0773
48282W        W91195  14.272  24.143  22.370 -0.1164 -0.1773  0.0437
48283W        W91196  20.221  30.290   1.828 -0.1092  0.1884  0.2137
48284W        W91197  14.073  24.810  26.358  0.2261  0.2058 -0.4208
48285W        W91198  33.952  28.105  14.533 -0.1088 -0.2513  0.0113
48286W        W91199   9.899  19.258  14.431  0.1771 -0.0181  0.1064
48287W        W91200   0.951  15.417  23.751 -0.1722 -0.2424  0.3005
48288W        W91201  14.981  27.162  25.857  0.1342 -0.2364  0.1912
48289W        W91202   8.837  21.154  16.193 -0.0268 -0.1013 -0.0800
48290W        W91203   7.989   2.665   0.243  0.1842 -0.1908 -0.1492
48291W        W91204   7.393  22.344  22.595 -0.0317 -0.1273 -0.4570
48292W        W91205  12.311  23.524  16.679  0.1241  0.0028  0.6577
48293W        W91206  11.700  21.090  21.108 -0.0213  0.1656 -0.1597
48294W        W91207   3.341  13.677  23.812  0.0670  0.2764  0.0424
48295W        W91208   8.035  30.270  16.154  0.1344  0.0626  0.3322
48296W        W91209  32.194  18.953  13.309  0.1306  0.0084  0.0039
48297W        W91210   1.229  28.671  25.054 -0.0210  0.0468 -0.0970
48298W        W91211   7.479  20.651  20.414 -0.1278 -0.0555 -0.0524
48299W        W91212   0.061  22.538  20.231  0.0253  0.1829  0.1023
48300W        W91213   5.461  32.870  25.031 -0.1730  0.0208  0.1099
48301W        W91214  13.929  31.045  23.976 -0.0713 -0.2564 -0.1616
48302W        W91215   6.957  19.002  14.828  0.1618  0.1164  0.0904
48303W        W91216   2.890  32.183  24.800 -0.0233 -0.0359 -0.0348
48304W        W91217  22.356  25.478  25.917  0.2012  0.0294  0.2375
48305W        W91218   4.445  23.884  21.874 -0.2230 -0.0019  0.2500
48306W        W91219  12.382  26.487  18.409 -0.0966 -0.0740  0.0536
48307W        W91220  15.736  24.726  26.844  0.1904  0.0276  0.0921
48308W        W91221  15.811  25.972   9.288 -0.0717 -0.0904 -0.0173
48309W        W91222  10.361  20.212  17.436  0.1309 -0.0304 -0.0159
48310W        W91223  18.325  26.990  26.181 -0.2537 -0.0184  0.1121
48311W        W91224   5.792  30.665  25.484  0.0193  0.4118  0.4254
48312W        W91225   8.529  30.322  26.810  0.0603  0.1239  0.2962
48313W        W91226   2.356  18.737   1.069 -0.1403 -0.0330  0.1556
48314W        W91227  15.999  32.324  28.068 -0.0736 -0.0298 -0.0262
48315W        W91228  33.777  26.890  20.996  0.1181  0.0631  0.1985
48316W        W91229  29.921  27.107   3.319 -0.0398  0.3573 -0.1478
48317W        W91230  11.849  17.771  21.799 -0.1081  0.1783  0.3227
48318W        W91231   2.085  17.131  23.020 -0.0346  0.1118 -0.1508
48319W        W91232   3.031  24.203  29.643 -0.4623  0.1350  0.1911
48320W        W91233   2.264  21.737  16.765 -0.3975  0.1716 -0.1053
48321W        W91234   8.546  23.677   3.755  0.3485  0.1135 -0.2189
48322W        W91235  13.425  31.991  19.972  0.2808 -0.0454  0.2166
48323W        W91236   3.908  25.009  28.681 -0.2684 -0.0617  0.0537
48324W        W91237   7.879  16.518  26.887  0.0109 -0.2952 -0.1055
48325W        W91238   6.725  25.414  20.064  0.1121 -0.1796 -0.1289
48326W        W91239   6.351  26.086  27.868 -0.3109  0.0696 -0.1971
48327W        W91240   4.099  22.883   4.888  0.2908  0.2929 -0.3238
48328W        W91241   5.618  21.326  28.858 -0.1971  0.1708  0.1693
48329W        W91242  19.722  27.230  19.079 -0.2786 -0.1198  0.2834
48330W        W91243  28.280  27.945  26.567  0.2265 -0.0202 -0.0893
48331W        W91244   6.962  15.940   1.250 -0.3621 -0.2021 -0.0128
48332W        W91245   7.673  29.324  18.746 -0.0108 -0.2718 -0.1138
48333W        W91246  12.531  20.428  15.337  0.0596  0.1313 -0.1314
48334W        W91247   5.287  22.174  25.857  0.3237  0.0686  0.0394
48335W        W91248  23.207  23.784  20.934 -0.0889 -0.0575 -0.3177
48336W        W91249   6.961  19.117  22.064 -0.0471 -0.2149  0.1322
48337W        W91250  32.086  21.947  27.183 -0.2768  0.2710 -0.1666
48338W        W91251  12.730  22.174  25.973 -0.0286 -0.1765  0.3832
48339W        W91252  19.772  27.548  15.335  0.0895 -0.0161 -0.0754
48340W        W91253   2.880  29.566  26.708  0.0228  0.3107 -0.0651
48341W        W91254  14.709  22.961  22.955 -0.2493  0.3763 -0.1960
48342W        W91255   4.257  32.226  17.354 -0.3123 -0.0012 -0.0146
48343W        W91256   7.698  25.530   5.914  0.1939  0.3821 -0.3418
48344W        W91257  12.988  12.775  13.401  0.1280  0.1495  0.0298
48345W        W91258   3.280  25.992  23.431  0.0547 -0.0593 -0.0494
48346W        W91259  21.245  22.311  20.522  0.0749 -0.0240 -0.3835
48347W        W91260  15.051  24.938  27.484 -0.0123 -0.1047  0.1312
48348W        W91261   7.468  15.798  16.122  0.3169  0.1098  0.2784
48349W        W91262  16.951  25.050  22.786 -0.1289  0.5633 -0.0156
48350W        W91263  25.496  27.478  28.457  0.1154  0.3106  0.0761
48351W        W91264   4.808  19.458  22.182  0.0937  0.2340 -0.0905
48352W        W91265  33.099  29.787  17.711 -0.2981  0.1975 -0.0743
48353W        W91266   4.993  25.148  19.700  0.0832 -0.5413  0.3797
48354W        W91267   6.750  28.333  18.176 -0.0339  0.0270  0.1871
48355W        W91268  11.624  16.458  15.107 -0.0438  0.1535 -0.2956
48356W        W91269  17.587  22.965  22.749 -0.5194 -0.0794 -0.3310
48357W        W91270   5.789  25.944  16.431  0.2707 -0.3856  0.1667
48358W        W91271   1.825  20.665  20.610  0.1755 -0.0110  0.0597
48359W        W91272   8.640  26.099  22.265  0.3758  0.0491  0.0646
48360W        W91273  13.418  20.195  22.427  0.1977 -0.2434 -0.1343
48361W        W91274  13.024   0.501  16.621  0.0417  0.2281  0.0334
48362W        W91275   5.265   4.723  18.812 -0.1698 -0.1157  0.2509
48363W        W91276  12.889  19.164  25.460 -0.2866  0.0024  0.3259
48364W        W91277  21.711  29.329  20.468 -0.1532 -0.3226  0.0231
48365W        W91278  13.674  13.067  29.186  0.2119  0.1445 -0.0311
48366W        W91279   7.973  15.165  17.888  0.0436  0.0185  0.1786
48367W        W91280  10.561  25.516  27.931 -0.3530 -0.1469 -0.2254
48368W        W91281  12.024  11.291  18.879  0.1515 -0.1516  0.0199
48369W        W91282   2.804  19.817   0.178  0.0975  0.1556 -0.2873
48370W        W91283   5.641  19.865  18.453 -0.1201  0.0382 -0.1350
48371W        W91284   5.820  32.923  22.613 -0.0126  0.0424  0.3075
48372W        W91285  15.150  32.170  25.528  0.2011  0.0960  0.2554
48373W        W91286   6.179  33.003  18.399  0.0008  0.2334  0.2836
48374W        W91287  12.464  32.099   3.102 -0.2419  0.0330  0.1115
48375W        W91288  12.964  20.681   2.518 -0.0238  0.1149  0.0534
48376W        W91289  25.832  20.923  15.684  0.0458 -0.2685  0.1157
48377W        W91290  17.644  22.929  17.538 -0.0158 -0.1966  0.0610
48378W        W91291  16.840  28.922  16.731 -0.0681  0.1268 -0.2444
48379W        W91292  22.280  32.717  19.119  0.1830  0.0813 -0.1538
48380W        W91293   4.543  22.338  21.268 -0.3240 -0.0172  0.0818
48381W        W91294  15.336  19.986   3.500  0.0578 -0.0984 -0.0613
48382W        W91295   2.400  28.386  18.963  0.4054 -0.0356 -0.1338
48383W        W91296  16.182  21.486  13.828  0.0994 -0.1914 -0.0258
48384W        W91297  11.752  27.411  17.161  0.0996 -0.1382  0.0488
48385W        W91298  12.155  19.890   2.020 -0.3453  0.0968 -0.6567
48386W        W91299  28.965  12.167  21.328 -0.0696  0.2346  0.0202
48387W        W91300  31.838  19.300  20.382  0.1630  0.0333 -0.0214
48388W        W91301   7.344  23.580  21.006  0.1997 -0.0346  0.1394
48389W        W91302   7.856  31.328  24.813 -0.1549 -0.1183  0.6248
48390W        W91303   2.911  32.035  23.060 -0.1245 -0.0311 -0.1947
48391W        W91304  14.845  28.481  23.058 -0.3192 -0.0462 -0.1941
48392W        W91305  22.444  27.030  28.454 -0.2567 -0.0394 -0.1209
48393W        W91306   8.432  28.254  16.266  0.0304 -0.1706  0.2406
48394W        W91307  14.703   4.602  27.491 -0.1813  0.1164 -0.1982
48395W        W91308  10.781  31.482  20.372  0.0576  0.0889 -0.5704
48396W        W91309   8.227  27.108  17.332  0.0174  0.0337 -0.1993
48397W        W91310   9.234  31.734  22.437 -0.1697  0.1294 -0.0706
48398W        W91311   3.850  24.942   7.314 -0.1545 -0.0913  0.0072
48399W        W91312  11.027  23.599  29.686  0.0256 -0.2008  0.1813
48400W        W91313   0.458  14.590  16.520  0.3907  0.0519 -0.3737
48401W        W91314  34.295  26.802  25.497  0.1603  0.0521 -0.0568
48402W        W91315   0.549  28.094  21.538 -0.3105  0.2187  0.1186
48403W        W91316   7.803  20.044  15.300 -0.1584  0.0752  0.0087
48404W        W91317  18.053  23.247  18.357  0.0245  0.0720  0.0068
48405W        W91318  18.625  23.553  21.985  0.1371 -0.1427  0.3474
48406W        W91319   9.317  18.112  26.265  0.0652  0.1926  0.3559
48407W        W91320  12.906  26.152   1.310  0.0434 -0.1778  0.1092
48408W        W91321  32.841  33.919  20.985  0.2200  0.2018  0.1611
48409W        W91322   9.054  22.605  23.123  0.5306  0.3715 -0.1507
48410W        W91323  15.884  19.636  14.220  0.0574 -0.1206  0.0201
48411W        W91324   1.859  32.702  23.018  0.3864  0.0209  0.3882
48412W        W91325  30.680  23.795  26.857 -0.0098 -0.1177 -0.2227
48413W        W91326   5.411  22.445  21.531  0.1247  0.2196 -0.0340
48414W        W91327  13.628  30.018  28.246 -0.0741 -0.2401 -0.0149
48415W        W91328  21.903  13.900  20.960  0.0459  0.2113 -0.1482
48416W        W91329   5.307  20.576  15.792  0.0576  0.3587 -0.1855
48417W        W91330  16.190  26.294  26.838  0.0065  0.1855  0.1899
48418W        W91331   5.893  28.994  28.737  0.0788 -0.0330 -0.0216
48419W        W91332   0.574   1.102  22.035 -0.0707 -0.1581  0.3943
48420W        W91333  11.022  28.083  28.799 -0.2913  0.0383  0.0859
48421W        W91334  28.326  32.277   4.204  0.0001  0.2180  0.0622
48422W        W91335  18.807   0.300   3.168  0.0391  0.0127  0.3950
48423W        W91336  19.745  30.695  25.130 -0.2180  0.0877  0.3229
48424W        W91337  15.061  21.550  27.070  0.2536  0.1467 -0.1109
48425W        W91338  10.988  19.637   5.421  0.2555 -0.0432  0.0564
48426W        W91339  18.236  29.306  18.130 -0.1398 -0.1902  0.5437
48427W        W91340  10.740   0.532  29.672  0.1570  0.1214  0.0239
48428W        W91341  15.511  27.253  28.046 -0.4831  0.3840 -0.0276
48429W        W91342  14.173  27.140  14.716  0.2622 -0.5635 -0.0609
48430W        W91343  11.578  25.380  24.943  0.1073 -0.4827  0.3593
48431W        W91344   3.745  18.599   4.063 -0.2475  0.3366 -0.4355
48432W        W91345   6.777  13.344  22.121 -0.2693  0.1377  0.0384
48433W        W91346  26.686  27.424  26.349 -0.1068  0.0977  0.2161
48434W        W91347  19.032  29.579   4.429  0.1656 -0.0270 -0.2979
48435W        W91348   7.640  24.681  19.650 -0.1087  0.1806  0.1409
48436W        W91349  10.313  28.367  27.279  0.1652  0.2320 -0.2353
48437W        W91350   4.573  28.998  29.759  0.0628 -0.4051  0.0986
48438W        W91351   9.122  31.918  20.657  0.2502  0.1415  0.2241
48439W        W91352  12.573  20.060   1.255  0.2639 -0.3738  0.0368
48440W        W91353  13.732  25.750  25.933  0.6885 -0.0608  0.3474
48441W        W91354  10.169  25.222  18.625 -0.2632 -0.3526 -0.0741
48442W        W91355   9.819  27.736  18.848  0.4286 -0.0406  0.0330
48443W        W91356  12.079  15.582  20.119  0.1551 -0.1068  0.0088
48444W        W91357   4.597  14.524  17.230 -0.1129  0.1765  0.1737
48445W        W91358  23.373  18.558  16.689 -0.2105  0.2566 -0.4221
48446W        W91359  17.542  18.700  25.560  0.0230  0.1127 -0.1296
48447W        W91360  10.057  17.065   6.984 -0.3476  0.0096  0.1954
48448W        W91361  30.167  28.548  26.687 -0.1107 -0.0941  0.2381
48449W        W91362  14.366  29.916  25.341  0.1323 -0.1592 -0.0028
48450W        W91363  10.875  13.172  27.282 -0.1528 -0.0876  0.4030
48451W        W91364  33.558  24.143  16.198 -0.3119 -0.1894 -0.0976
48452W        W91365  11.923  21.906  16.816 -0.4193 -0.3301 -0.1210
48453W        W91366  34.182  17.511  19.817 -0.2465 -0.0069  0.0392
48454W        W91367   5.512   2.602  20.632 -0.0478  0.0646 -0.3699
48455W        W91368   6.120  23.461  22.629 -0.3699 -0.1897 -0.1460
48456W        W91369  14.984  19.359  23.195 -0.0485 -0.2358  0.3594
48457W        W91370  13.090  19.550  15.647  0.0475 -0.1989  0.1977
48458W        W91371   6.273  24.571  29.253  0.2465  0.3002  0.1997
48459W        W91372  11.315  30.897  23.540  0.2449  0.1508 -0.1733
48460W        W91373   7.628  22.807  15.838 -0.1398 -0.0575 -0.1878
48461W        W91374   6.773  25.521  17.157 -0.0570  0.0165 -0.1373
48462W        W91375   6.958  29.563  28.782 -0.0128 -0.0476  0.0349
48463W        W91376   4.587  12.864  23.187  0.0509 -0.1618 -0.0591
48464W        W91377  17.022  13.385  27.813  0.2709 -0.1259  0.0050
48465W        W91378   5.670  27.524  17.909  0.0532 -0.0211 -0.0632
48466W        W91379   2.165  28.677  19.375 -0.1579  0.2448 -0.1328
48467W        W91380   9.967  22.973  15.314 -0.5228  0.0513 -0.1761
48468W        W91381  11.461  26.504  20.896  0.2146  0.3373  0.0665
48469W        W91382   9.117  30.352  28.440  0.0275 -0.2253  0.4376
48470W        W91383   6.761  20.058  17.517 -0.2383  0.0908 -0.0857
48471W        W91384   2.191  12.665  22.751 -0.1479  0.0153 -0.1670
48472W        W91385  14.611  19.294  14.366 -0.2348 -0.1521 -0.1281
48473W        W91386   9.701  30.032  20.327 -0.1300  0.2974 -0.1659
48474W        W91387  11.600  19.980  17.708 -0.3848  0.1269 -0.2971
48475W        W91388  13.343  32.762   4.534  0.3733 -0.0919 -0.1211
48476W        W91389  13.193  21.252   1.322  0.2475 -0.0325 -0.1378
48477W        W91390  13.564  20.511  22.038 -0.1161 -0.1844  0.2056
48478W        W91391  11.938  32.935  26.115  0.1404 -0.1014  0.0696
48479W        W91392   9.478  31.762  21.323  0.2193 -0.1638  0.3853
48480W        W91393   9.693  15.342  20.158 -0.3585  0.0697 -0.1841
48481W        W91394  10.091  22.728  17.206 -0.3322 -0.0864 -0.3077
48482W        W91395  20.574  30.086  19.776  0.1024 -0.1842  0.1695
48483W        W91396   7.176  24.125   8.118 -0.0280  0.0813 -0.1543
48484W        W91397  13.073  17.354  12.675  0.0965 -0.1103  0.1792
48485W        W91398   9.884  27.335  26.817 -0.1928  0.2879  0.0435
48486W        W91399   4.104  23.430  24.612 -0.1544 -0.1000 -0.1009
48487W        W91400   7.375  20.259   1.080 -0.1377  0.1505 -0.4786
48488W        W91401   0.259  32.119  20.498 -0.1701 -0.0275  0.1751
48489W        W91402  29.241   5.238  27.840  0.1641  0.0167 -0.0711
48490W        W91403   3.450   4.083  10.199 -0.2581 -0.0464  0.1785
48491W        W91404   6.354  19.713  17.278  0.0190 -0.1554  0.1363
48492W        W91405  29.425  27.002   2.747 -0.0738 -0.0290 -0.0189
48493W        W91406   9.200  27.863  20.422  0.1417 -0.3278 -0.4091
48494W        W91407  14.931  22.198  16.885  0.1051 -0.0587  0.0088
48495W        W91408   7.233  25.863  21.305 -0.1152 -0.1513  0.4948
48496W        W91409   9.794   2.916  29.472 -0.1069 -0.0608 -0.4073
48497W        W91410   9.969  12.935   8.180  0.1352  0.0006 -0.0472
48498W        W91411   3.690  21.482  25.483 -0.2425  0.2026  0.0961
48499W        W91412   2.605  24.615   0.575  0.3340  0.0190 -0.0661
48500W        W91413   9.282  33.535  17.738 -0.0349 -0.0666  0.2481
48501W        W91414  11.300  28.754  28.400 -0.0945 -0.2430 -0.2571
48502W        W91415  10.406  21.297  16.483 -0.1869 -0.1936 -0.1151
48503W        W91416  14.827  24.731   3.036  0.2628 -0.2772  0.0447
48504W        W91417   2.453  32.748  21.495  0.0362  0.1111  0.0358
48505W        W91418   9.596  25.621  18.054 -0.0591  0.1033 -0.1493
48506W        W91419  14.001  18.891   2.541 -0.2492 -0.2910 -0.0837
48507W        W91420   9.132  29.747  23.449 -0.2965 -0.1402 -0.1914
48508W        W91421  31.330  25.798  21.385  0.1862 -0.2368 -0.1160
48509W        W91422  19.562  23.821  21.085 -0.2076 -0.2340 -0.0204
48510W        W91423  19.635  32.313  13.628 -0.3416  0.2264 -0.1684
48511W        W91424   9.670  24.959  17.892 -0.2317  0.0772  0.0445
48512W        W91425   1.491  24.937  21.393 -0.3428  0.1166 -0.1892
48513W        W91426  12.979  23.474  19.450 -0.1728 -0.4160  0.3996
48514W        W91427   9.379  25.041  20.541 -0.0401  0.0854  0.1036
48515W        W91428   1.870  31.265  22.397  0.4329 -0.0860 -0.0783
48516W        W91429   8.942  12.794   1.850 -0.1944 -0.0723  0.1109
48517W        W91430   4.744  28.931  24.613 -0.0086 -0.0380 -0.1459
48518W        W91431   5.763  22.912   5.884  0.0286  0.2984 -0.0638
48519W        W91432  11.718  32.912   1.401  0.1058 -0.0133 -0.1068
48520W        W91433   4.404  28.742   5.664 -0.1379 -0.1555  0.0240
48521W        W91434  13.934  27.057   2.402 -0.0919  0.0155 -0.2492
48522W        W91435  12.599  17.668  21.151  0.0638 -0.1182 -0.0078
48523W        W91436   8.026  17.338  28.024  0.0066 -0.0468 -0.0730
48524W        W91437  14.397  30.528  24.488 -0.0790 -0.2842 -0.0564
48525W        W91438  33.866  31.978  20.120  0.0143  0.0363 -0.1213
48526W        W91439  13.866  22.578  20.172  0.0664  0.3092 -0.1548
48527W        W91440   5.403  25.487  14.979  0.2022  0.2209 -0.2146
48528W        W91441  10.014  26.136  23.392 -0.0435  0.2459  0.2767
48529W        W91442   3.600  28.237  18.928 -0.0289  0.0126 -0.1295
48530W        W91443  30.551  15.667  18.419 -0.1154  0.2650 -0.2510
48531W        W91444   2.963  32.457   3.489 -0.2320 -0.1019 -0.6784
48532W        W91445   5.824  28.508  17.957 -0.0943 -0.0681  0.0096
48533W        W91446  18.855  24.956   0.366  0.0493 -0.2043  0.0689
48534W        W91447  11.999  14.744  26.281  0.1527 -0.3085  0.3638
48535W        W91448  30.263  25.342  22.720 -0.2923 -0.2606 -0.0541
48536W        W91449  23.249  31.136  15.216 -0.2354 -0.1839 -0.0771
48537W        W91450  10.584  27.671   1.985  0.0616 -0.0076  0.1539
48538W        W91451   2.605  23.087   3.854 -0.1429 -0.2895 -0.3627
48539W        W91452  11.819   1.584  29.678  0.1735  0.2206 -0.5140
48540W        W91453  17.179  27.945  17.120  0.4171 -0.1606  0.0212
48541W        W91454   0.285  17.745   3.583 -0.0355  0.0039  0.4426
48542W        W91455   0.760  27.820  14.140 -0.2274 -0.2114  0.0191
48543W        W91456  10.030  28.765  16.132 -0.0170 -0.1022  0.1566
48544W        W91457   6.674  24.104  20.809  0.1333 -0.0777  0.0370
48545W        W91458  10.789   5.275  16.976 -0.1844  0.0552 -0.0137
48546W        W91459   4.905  33.675  21.489 -0.1686 -0.0172  0.1784
48547W        W91460  11.406  20.453  15.023 -0.1409 -0.1258 -0.1498
48548W        W91461   3.068  32.446  22.425 -0.2819 -0.1991 -0.0763
48549W        W91462   6.011  18.592  20.257 -0.2616  0.0542  0.0086
48550W        W91463   6.149  25.609  16.218  0.0909 -0.2629  0.0087
48551W        W91464   8.759  28.338  23.323 -0.3682  0.2016 -0.0206
48552W        W91465   8.021  17.530   2.158  0.0975  0.0760 -0.0430
48553W        W91466   2.808  19.528  20.225 -0.2505  0.0293 -0.0547
48554W        W91467  17.678  20.731  15.516  0.4685  0.1226 -0.0334
48555W        W91468  14.321  32.525  23.856 -0.3337  0.0450 -0.4165
48556W        W91469   6.456  25.571  18.461  0.3759 -0.1304 -0.1434
48557W        W91470  28.093  31.490  27.618  0.0200 -0.4919  0.0225
48558W        W91471  20.758  17.235  14.730 -0.0017  0.1068 -0.2347
48559W        W91472  14.291  29.602  24.490  0.3395 -0.2118 -0.1143
48560W        W91473   9.582  26.277  18.030  0.1781 -0.3343 -0.0283
48561W        W91474   3.769  28.166   0.070  0.0756 -0.1007 -0.0357
48562W        W91475  12.859   0.281  29.468  0.1150  0.1913 -0.2316
48563W        W91476  14.133  31.108  22.605  0.2252  0.1701  0.1060
48564W        W91477   9.283  23.020  26.041 -0.1177 -0.3253 -0.0291
48565W        W91478   8.320  26.064   0.981  0.2561  0.0759 -0.0210
48566W        W91479   3.204  33.257  29.101  0.2975 -0.2663  0.1571
48567W        W91480  10.885  20.554  29.591  0.0479  0.0621  0.1585
48568W        W91481   4.424  19.358  28.752  0.1273 -0.2336  0.4070
48569W        W91482   2.629  25.114   4.503  0.2053  0.2139  0.0808
48570W        W91483  21.396  24.917  20.842  0.1041 -0.1951 -0.2535
48571W        W91484   3.249  29.785  21.261  0.1006 -0.0492 -0.0509
48572W        W91485   9.417  25.431  20.230  0.3011  0.0524  0.0369
48573W        W91486   5.794  24.585  19.453 -0.1198 -0.1997 -0.1044
48574W        W91487   7.609  23.910   8.170  0.2366  0.2718 -0.1231
48575W        W91488   2.161  19.181  18.688 -0.0860 -0.1051  0.0711
48576W        W91489  14.843  29.843  15.445  0.0146 -0.0077  0.2141
48577W        W91490  12.275  23.892  26.617 -0.1759  0.0026  0.0690
48578W        W91491  19.217  23.800  19.560 -0.0051 -0.2175  0.0872
48579W        W91492  11.333  21.954  15.254 -0.0516 -0.2375 -0.1548
48580W        W91493  19.716  23.870  19.719  0.2629  0.3760  0.0901
48581W        W91494   5.170  32.290  28.379  0.0110 -0.2484  0.3678
48582W        W91495  29.509  28.118   6.006  0.2038 -0.0110 -0.0623
48583W        W91496   9.050  17.721  27.625 -0.2795 -0.1138  0.0952
48584W        W91497   1.171  25.270  17.774 -0.1712 -0.0130 -0.2404
48585W        W91498   0.454  23.875  18.465 -0.1217 -0.1502 -0.2721
48586W        W91499   8.767  23.012  15.032 -0.1087 -0.0100 -0.1073
48587W        W91500  15.931  28.365  17.428  0.1381 -0.0604  0.0285
48588W        W91501  18.200  29.953   5.766  0.1754  0.0854  0.0514
48589W        W91502  13.216  18.892  29.739 -0.0094  0.1319  0.1169
48590W        W91503   4.048  23.442  23.624  0.0151  0.1548  0.1837
48591W        W91504  18.906  19.995  15.113  0.0168 -0.0301  0.2522
48592W        W91505  25.320  24.209  13.249  0.1412 -0.1207  0.2809
48593W        W91506   4.581  23.304  21.953 -0.0015 -0.1591 -0.3168
48594W        W91507   5.979  31.072  22.065  0.0238 -0.0337 -0.0234
48595W        W91508  12.303  24.320  20.660 -0.0863  0.2442  0.0686
48596W        W91509   6.836  23.768   2.987  0.1505 -0.0029  0.0947
48597W        W91510  18.247  27.062  21.505  0.3422 -0.0891  0.2294
48598W        W91511  33.845  20.773  17.372  0.2794 -0.2320  0.0696
48599W        W91512  32.072  27.643  19.894  0.2485  0.0364 -0.1995
48600W        W91513  12.509  18.820  24.822  0.2533 -0.3340  0.0437
48601W        W91514  33.120  19.340  27.551 -0.4264  0.0125  0.1737
48602W        W91515   0.730  26.684  29.570 -0.0459  0.0657 -0.0651
48603W        W91516   8.481   1.813  26.303  0.0191 -0.1101  0.1120
48604W        W91517   5.899  25.516  16.771 -0.0705 -0.0261 -0.0572
48605W        W91518  14.124  21.867  23.587  0.5802 -0.0881 -0.2300
48606W        W91519  20.694  32.280  28.796  0.0118 -0.0772 -0.1864
48607W        W91520  22.308  30.222  16.825  0.3123  0.2902  0.0643
48608W        W91521   5.030  24.823  20.069  0.0043  0.1868 -0.0042
48609W        W91522   6.816  22.334  21.768 -0.1073  0.3287 -0.1089
48610W        W91523  30.312  23.413  22.700 -0.0520 -0.1127  0.2014
48611W        W91524   1.520   9.684  24.458 -0.1616 -0.1408  0.1834
48612W        W91525  22.119  30.428  19.781  0.0362 -0.3183  0.0108
48613W        W91526   2.977  25.894  19.017 -0.1035 -0.1052 -0.1608
48614W        W91527   2.971  30.198  17.376 -0.0180  0.0367  0.0569
48615W        W91528  15.368  13.585  28.499 -0.1091 -0.4652 -0.1302
48616W        W91529  14.387  23.645  17.233 -0.4233  0.3518  0.0392
48617W        W91530   0.108  24.274  20.119  0.2331 -0.2600 -0.0136
48618W        W91531  12.933  23.999  18.821  0.0494 -0.3171  0.0928
48619W        W91532  20.422  28.701  20.779  0.1663  0.0615 -0.0007
48620W        W91533   0.430  16.381   1.646  0.1381  0.1333 -0.0184
48621W        W91534  11.921  21.028  18.040 -0.2061  0.0679 -0.0609
48622W        W91535  17.768  24.600  29.076 -0.3350 -0.0034 -0.0024
48623W        W91536  12.455  28.653  22.946  0.0785 -0.0287  0.1103
48624W        W91537   0.676  24.127   3.240 -0.2347  0.2218 -0.4286
48625W        W91538   1.624  28.737  26.703 -0.0096 -0.1341  0.0974
48626W        W91539  10.923  17.897  25.392 -0.0320  0.0602 -0.1435
48627W        W91540  10.301  21.532  28.850  0.1903 -0.4096 -0.2215
48628W        W91541   9.410  21.868  16.934 -0.3153 -0.3187  0.2021
48629W        W91542  31.102  29.648   3.142 -0.1462  0.0940  0.1111
48630W        W91543  20.651  25.566  18.526 -0.0281  0.1632  0.0985
48631W        W91544  14.353  30.407  15.988  0.0386 -0.2936 -0.0753
48632W        W91545   6.129  19.401  16.210 -0.2877 -0.1929 -0.4422
48633W        W91546   5.146  24.782   6.155 -0.1645  0.1619 -0.0936
48634W        W91547  13.356  21.040   1.863 -0.0001  0.1469 -0.0141
48635W        W91548   2.710  33.958  22.865 -0.0180  0.0264 -0.1340
48636W        W91549  11.768  11.278  15.045 -0.1221  0.1103 -0.0524
48637W        W91550   2.238  18.803  26.553  0.0244  0.2921  0.3060
48638W        W91551  11.253   0.171  22.840 -0.0418  0.0937 -0.0612
48639W        W91552  15.122  28.967  21.972 -0.1210  0.3853  0.0471
48640W        W91553  14.762  22.549  21.257  0.0039 -0.2618  0.0849
48641W        W91554   3.495  28.032  28.318 -0.1440  0.0483 -0.1831
48642W        W91555  11.816  20.020  20.419 -0.1450  0.1473  0.3632
48643W        W91556   6.557  34.486  18.752 -0.1076 -0.3545  0.3673
48644W        W91557   7.575  15.451  19.067 -0.0062 -0.0202  0.0529
48645W        W91558  33.733  20.736  21.462 -0.2232 -0.1494  0.3503
48646W        W91559  32.871   4.687  29.030 -0.0546 -0.0818 -0.2309
48647W        W91560  11.240  23.590  27.709 -0.0872  0.0181  0.2118
48648W        W91561   8.449  27.914  28.336 -0.1088  0.0505 -0.1481
48649W        W91562  26.347  29.267   6.522  0.2400  0.1015 -0.0460
48650W        W91563   4.447  16.824  17.990  0.2743 -0.1096  0.2070
48651W        W91564   1.872  25.141  26.164 -0.0681  0.0834 -0.1042
48652W        W91565   4.634  15.131   0.582 -0.0142  0.3225 -0.3846
48653W        W91566   9.114  22.480  21.955  0.0550  0.1102 -0.0409
48654W        W91567   0.258  24.860  26.963 -0.1970 -0.0576  0.0731
48655W        W91568  16.970  23.276  23.587 -0.4802 -0.1427  0.0767
48656W        W91569  13.880  27.155   6.530  0.3089  0.1378 -0.2230
48657W        W91570   5.980  25.641  23.336  0.2344  0.2569  0.0491
48658W        W91571   4.620  23.622   3.563  0.0957  0.1896  0.0343
48659W        W91572  12.389  33.368   0.751 -0.0587  0.0145  0.1282
48660W        W91573  31.735   0.416   3.571 -0.1860 -0.3728 -0.2708
48661W        W91574   0.980  18.141  20.318 -0.3389 -0.2550 -0.0498
48662W        W91575  10.185  31.207  16.147 -0.1426 -0.0699 -0.4110
48663W        W91576  12.269  25.468  15.219  0.0205 -0.2004  0.3958
48664W        W91577   7.366   5.464   0.336 -0.2142 -0.1238  0.2082
48665W        W91578   3.976  31.794  23.171 -0.2443  0.1247  0.2938
48666W        W91579   5.579  29.703   3.656  0.0973 -0.2032 -0.2549
48667W        W91580   4.556   2.377  27.826  0.0644  0.2664 -0.1973
48668W        W91581  10.073  32.705  18.360 -0.0730 -0.1120 -0.3033
48669W        W91582  11.879  24.292   3.705 -0.2873 -0.0307  0.2391
48670W        W91583   4.947  25.510  23.426  0.1200  0.2357 -0.0396
48671W        W91584   2.094  22.310   4.198  0.0686  0.0569 -0.0086
48672W        W91585   4.109  20.318   2.984 -0.1564  0.1468  0.0997
48673W        W91586   7.444  28.682   2.303  0.1100 -0.0194 -0.2420
48674W        W91587   2.423  33.212  21.969  0.4259 -0.0980  0.1110
48675W        W91588  10.196  21.131  21.182  0.0409 -0.1132 -0.3492
48676W        W91589  11.366   6.783  17.442  0.0639 -0.1107 -0.0966
48677W        W91590   5.280  28.833   8.057  0.0934 -0.0061  0.2879
48678W        W91591  19.313   0.157  25.315 -0.1255 -0.0535  0.2884
48679W        W91592   7.045  16.939  15.812  0.0407  0.2168  0.3257
48680W        W91593  31.978  16.311  14.035 -0.2331  0.0926  0.1188
48681W        W91594  33.246  12.226  26.032 -0.1894  0.0238 -0.0092
48682W        W91595  31.912  27.503   0.120  0.0937  0.2709  0.2234
48683W        W91596  32.890  30.059  21.639 -0.1154 -0.1701  0.2555
48684W        W91597  10.020  22.515   4.690 -0.1992 -0.1590 -0.0978
48685W        W91598  13.052  17.928  15.138 -0.0039  0.2632 -0.0007
48686W        W91599  11.766  18.665   1.098 -0.2517  0.3205 -0.0001
48687W        W91600   2.284   5.568  27.017  0.1509  0.2287 -0.2710
48688W        W91601  12.123  19.782  20.077  0.1847  0.1720  0.0065
48689W        W91602  13.850  26.048  20.256 -0.0785  0.1399 -0.2612
48690W        W91603   4.462  29.058   1.905 -0.2738 -0.1730 -0.2604
48691W        W91604  31.578  31.023   2.973 -0.1625 -0.1137  0.1311
48692W        W91605  33.815  20.558  24.155 -0.2649 -0.0761  0.0807
48693W        W91606   8.954  22.392   1.137  0.1086  0.2729 -0.4089
48694W        W91607  14.597   3.056  21.172  0.1169 -0.0683 -0.0741
48695W        W91608   4.888  32.408  17.325  0.2300 -0.2304  0.2888
48696W        W91609   7.417  33.478  12.891 -0.1702  0.0821  0.1605
48697W        W91610   6.759  23.796   0.767  0.0549  0.0357  0.4205
48698W        W91611   4.884  17.150   0.039  0.1885 -0.3341  0.3004
48699W        W91612  11.531  34.150  28.673  0.0031  0.1254 -0.0785
48700W        W91613  11.579  24.481   0.690  0.1344 -0.0995 -0.0210
48701W        W91614   0.077  24.820   5.152 -0.2085 -0.2557  0.0359
48702W        W91615   3.076  24.225   0.453 -0.3267 -0.0792  0.1236
48703W        W91616   9.651  33.388   0.098  0.0637 -0.0119  0.1160
48704W        W91617  14.794  23.849  17.478 -0.0330  0.0319 -0.0258
48705W        W91618  15.837  21.727  23.303  0.1864 -0.1735  0.2482
48706W        W91619   3.738  27.753  14.660 -0.0890 -0.2763  0.1267
48707W        W91620   8.844  29.742   1.866 -0.0331  0.4388 -0.0151
48708W        W91621   1.431  15.181   0.128  0.2844 -0.2616  0.2814
48709W        W91622   6.064  32.796  28.255 -0.3622  0.2671 -0.0981
48710W        W91623   4.636  31.636  29.760 -0.2637 -0.2238  0.1602
48711W        W91624  12.080  26.955  22.977  0.1978 -0.4687  0.0446
48712W        W91625   8.825  21.363  22.050 -0.3724 -0.0347  0.0210
48713W        W91626   0.183  30.460   6.210  0.2606  0.1099 -0.0223
48714W        W91627   5.039  33.714   8.019  0.0449 -0.3884 -0.1126
48715W        W91628   7.950  26.462   9.761  0.2003  0.2330 -0.3790
48716W        W91629   5.731  28.107  26.975  0.1739  0.0392  0.1154
48717W        W91630  31.062   3.012  19.170 -0.2915 -0.2559  0.1376
48718W        W91631   6.632  20.355  28.834 -0.2959 -0.1738  0.0226
48719W        W91632   2.712  24.264   1.376 -0.0360  0.2342 -0.1200
48720W        W91633  33.570  27.435  26.293  0.2289 -0.2111  0.2425
48721W        W91634   1.667  22.036   5.725  0.0323 -0.2651 -0.0047
48722W        W91635  14.628  13.692   3.842  0.3026  0.2555  0.0062
48723W        W91636  10.306  20.339  24.363  0.0406 -0.0785 -0.3113
48724W        W91637   3.379  31.577  22.219 -0.2566 -0.3800  0.1043
48725W        W91638   7.679  21.140  22.846  0.2294  0.0219 -0.0856
48726W        W91639  19.580  27.266   1.213  0.0606 -0.0939 -0.0421
48727W        W91640   9.500  14.046   1.248 -0.1083 -0.3265  0.0951
48728W        W91641   1.533  20.807  27.092  0.1935 -0.1114 -0.0549
48729W        W91642   3.216  20.409   3.936  0.1593 -0.1319 -0.2652
48730W        W91643  13.529  23.546  28.715  0.2838 -0.0871  0.0337
48731W        W91644  17.951  24.292   7.621  0.0939 -0.3215 -0.1733
48732W        W91645  30.071  33.063   0.007 -0.1240 -0.1101 -0.1007
48733W        W91646   0.990  25.539   4.201 -0.2058 -0.2468 -0.3150
48734W        W91647   8.316   9.585  17.701  0.4116  0.1088  0.2344
48735W        W91648   8.082  16.478   6.231  0.1047  0.0096  0.0278
48736W        W91649  16.178  18.892  24.067 -0.1436 -0.2078  0.1984
48737W        W91650   4.459  26.341  27.024 -0.1781  0.0898 -0.1084
48738W        W91651   3.920  17.900   5.975 -0.0424 -0.2098  0.1552
48739W        W91652   7.178  19.777  27.658 -0.0519  0.3033 -0.1634
48740W        W91653   9.350  17.652   6.733  0.0471  0.1637  0.1510
48741W        W91654  13.528  27.490  25.829  0.0162 -0.1720 -0.0095
48742W        W91655  11.874   5.091   0.007  0.1933 -0.1508 -0.0311
48743W        W91656  16.835  15.059  28.490 -0.1796 -0.1249  0.1257
48744W        W91657  29.510  25.153  24.452  0.3050 -0.1936  0.2351
48745W        W91658   0.717  29.565  19.642  0.4721  0.1769 -0.0132
48746W        W91659  10.671  23.427  17.271  0.0017 -0.2131  0.1142
48747W        W91660   2.788  23.340   7.378  0.1831  0.0801  0.1001
48748W        W91661   7.899  30.029  28.947  0.1585 -0.1917 -0.1309
48749W        W91662  34.321  24.011   9.002  0.0637 -0.1979 -0.1064
48750W        W91663  17.376  33.693  25.949  0.1190  0.1518  0.0758
48751W        W91664   3.993   2.775  25.163 -0.0115 -0.1729  0.0367
48752W        W91665   9.743  24.023  29.104 -0.0155 -0.0366 -0.1354
48753W        W91666   0.540  25.494  25.624  0.1821  0.0116 -0.4152
48754W        W91667   5.103  22.658  27.747  0.2558  0.1708  0.0734
48755W        W91668  11.384  19.899  24.452  0.1983  0.2257  0.0166
48756W        W91669  12.962  30.391   4.687  0.1224  0.0452  0.2200
48757W        W91670   1.507  14.037   5.397 -0.1099 -0.1221 -0.2612
48758W        W91671  15.665   1.457  28.039 -0.0342  0.1072 -0.1189
48759W        W91672  13.437  25.531   2.541  0.4884 -0.0339  0.0127
48760W        W91673  34.432  32.977   9.881 -0.1745  0.4396  0.1112
48761W        W91674  32.766  19.844   1.800 -0.0799 -0.2801 -0.0094
48762W        W91675  11.755  24.650   3.124  0.1087  0.1597 -0.0577
48763W        W91676   7.366  31.896  26.014  0.0176 -0.2552  0.2160
48764W        W91677   6.808  27.465  25.502  0.1895 -0.1130  0.2098
48765W        W91678  34.228  29.270   0.479 -0.0180 -0.0301  0.0679
48766W        W91679   4.239   2.410  19.915  0.0710 -0.0593 -0.2051
48767W        W91680  13.461  30.941  23.032  0.0411  0.3299  0.0312
48768W        W91681  13.519  31.169   5.441 -0.3257  0.0138 -0.1924
48769W        W91682  10.167  26.675  24.157 -0.2970 -0.0321 -0.2408
48770W        W91683  11.563   2.461  26.633 -0.0145  0.2350  0.1463
48771W        W91684   9.402  33.292  22.573  0.0079  0.0317  0.1707
48772W        W91685  34.461  22.407  16.699  0.1419  0.0490  0.1696
48773W        W91686   0.283  27.440  20.108 -0.2181 -0.3534 -0.1395
48774W        W91687  17.584  31.057  28.288  0.1341 -0.1543 -0.2458
48775W        W91688   8.786  26.826   4.581  0.1639 -0.0839  0.0764
48776W        W91689   8.894  20.832  18.666 -0.0962 -0.1037  0.0068
48777W        W91690   7.715  33.657  22.295 -0.1116 -0.1124  0.0015
48778W        W91691  10.062  13.733   1.053 -0.0818  0.1061 -0.0572
48779W        W91692  14.473  27.822  18.684  0.1200  0.0202 -0.2088
48780W        W91693  10.182  28.571  10.768 -0.4014 -0.1091 -0.0450
48781W        W91694  16.781  25.821   2.326  0.0565  0.1072  0.1223
48782W        W91695   8.534  23.572  25.767  0.2727 -0.1116  0.0607
48783W        W91696   3.639  32.229  20.406  0.0464  0.1485 -0.0482
48784W        W91697  10.280  21.117  27.450  0.2740  0.2719 -0.2140
48785W        W91698  12.455  21.299  17.497  0.0697 -0.2618  0.1302
48786W        W91699  14.736  18.848  15.546  0.1319 -0.0181 -0.1320
48787W        W91700   1.054   1.342  27.281 -0.2691  0.3154 -0.1617
48788W        W91701  12.442   4.117   0.585 -0.1281 -0.3349 -0.1305
48789W        W91702  13.069   5.232  27.700  0.1474  0.2239  0.2549
48790W        W91703   4.772  17.081   1.094  0.1599  0.0165  0.2187
48791W        W91704  12.583  27.887  10.039  0.2320 -0.0487  0.1346
48792W        W91705  15.111  31.064  28.568 -0.0459 -0.1257  0.1399
48793W        W91706   4.999  18.746  29.766 -0.1188 -0.0905  0.4295
48794W        W91707  32.730  27.401  29.341 -0.2426  0.2635  0.2109
48795W        W91708   5.973  24.399   7.805  0.0315  0.1941  0.0180
48796W        W91709   7.794   6.805   0.055 -0.4305  0.4299  0.2355
48797W        W91710  11.941  15.015  25.842  0.0546  0.0862  0.1839
48798W        W91711  34.098  19.902  26.037  0.0835 -0.0811 -0.3039
48799W        W91712   4.149  23.426  23.108 -0.0079 -0.3138  0.1695
48800W        W91713  15.744  12.144   5.033  0.1920 -0.1949  0.0573
48801W        W91714   7.035  25.431  24.753  0.0953 -0.0127  0.0758
48802W        W91715   9.485  20.866  20.842 -0.1727  0.0773 -0.0850
48803W        W91716  12.488  13.394   2.794 -0.1953 -0.1331  0.1041
48804W        W91717  12.490  30.775   2.096  0.1524 -0.4022  0.3973
48805W        W91718   4.194  32.052  26.064  0.4539 -0.2409  0.0941
48806W        W91719  11.125  29.100   9.572 -0.0087  0.1077 -0.2718
48807W        W91720   1.360  26.506   7.810  0.1980 -0.3675 -0.0043
48808W        W91721   5.114  19.256  20.246  0.1123 -0.0762 -0.0075
48809W        W91722  15.654  18.403  13.760 -0.1852 -0.3653 -0.2701
48810W        W91723  29.880  25.560  27.337  0.0103  0.2241  0.1893
48811W        W91724   2.688  31.413  23.096 -0.0095 -0.1553 -0.1626
48812W        W91725  12.626  32.169  19.476 -0.1054 -0.3173  0.2013
48813W        W91726  28.113  24.094  29.510  0.2335  0.0093 -0.1905
48814W        W91727   5.055  22.100   0.329 -0.0614  0.0455 -0.1641
48815W        W91728   6.190  15.037  24.877  0.3422 -0.0263  0.1903
48816W        W91729   0.239  28.546  15.760 -0.2354 -0.1054 -0.0991
48817W        W91730   9.601  33.634   3.748 -0.3269  0.1857 -0.2922
48818W        W91731   4.240  25.467  16.619 -0.0386 -0.0428  0.2874
48819W        W91732   6.651  26.791   3.758  0.1965 -0.2120  0.3067
48820W        W91733  11.277  17.466  25.472  0.1626  0.0150  0.1474
48821W        W91734  10.064  24.738   4.939  0.0053 -0.0064  0.0601
48822W        W91735   4.864  20.786  25.976  0.1913  0.0972 -0.1111
48823W        W91736  14.699  18.259  22.970  0.0653  0.1162  0.1917
48824W        W91737  32.327  25.972   8.642  0.1062 -0.1422  0.2194
48825W        W91738   7.727  33.769   2.103 -0.1527  0.1846  0.1583
48826W        W91739  14.265  22.028  28.562  0.2999  0.2175  0.3653
48827W        W91740  33.311  11.674  25.233 -0.2566 -0.4288 -0.0820
48828W        W91741  12.746  23.684  25.291  0.1472 -0.4981 -0.3634
48829W        W91742   5.960  26.625  24.029 -0.2119 -0.1036  0.0271
48830W        W91743  31.454  26.244   4.676 -0.0344  0.1542  0.1508
48831W        W91744   2.804   0.179   4.789 -0.2075 -0.0726  0.0689
48832W        W91745  28.939   4.385   3.727 -0.2604 -0.2008  0.2097
48833W        W91746  14.585  27.556  26.724 -0.0849  0.0317  0.2275
48834W        W91747   6.317  21.036  18.938  0.0739 -0.1291  0.0066
48835W        W91748  12.919  17.702  25.534 -0.4172  0.1023  0.0771
48836W        W91749  22.448  29.080  28.200 -0.0471  0.1340 -0.1729
48837W        W91750   5.556  29.876   5.082  0.4175 -0.0099 -0.1440
48838W        W91751   0.025  20.118  21.213  0.0091  0.1574  0.3347
48839W        W91752   5.140  23.011   2.704 -0.2955  0.0247  0.0111
48840W        W91753   3.246  20.027  19.153  0.0013 -0.1865 -0.0892
48841W        W91754  15.120  23.114   1.956  0.0001 -0.0336 -0.2233
48842W        W91755  12.174  27.806   4.537 -0.3453 -0.0025  0.2584
48843W        W91756   7.314  13.342   7.838  0.1395 -0.3713  0.0262
48844W        W91757  11.332   3.690   7.032 -0.0046  0.1047  0.0452
48845W        W91758   4.451  30.958  27.484 -0.1545 -0.0361 -0.1620
48846W        W91759   5.612  19.302   2.886 -0.0685 -0.1966  0.0237
48847W        W91760   1.545  25.338  29.745 -0.0005 -0.0966  0.1950
48848W        W91761  10.010  16.647   7.220 -0.2203 -0.1160 -0.2546
48849W        W91762   0.647  26.077  28.765 -0.2022 -0.1673 -0.1083
48850W        W91763  34.030  27.363   2.143  0.1049 -0.2635  0.0408
48851W        W91764   8.844  27.035  21.448 -0.0796 -0.0932  0.0966
48852W        W91765  11.513  31.737   2.410  0.1713 -0.3984  0.0663
48853W        W91766  12.947   1.020  27.563  0.0805 -0.2662 -0.0646
48854W        W91767   6.531  31.872  20.925  0.2308 -0.1792 -0.3302
48855W        W91768   6.595   1.396   7.081  0.2529  0.2514  0.0203
48856W        W91769   8.663  28.319  29.558 -0.0077 -0.0908  0.0038
48857W        W91770  14.280  31.190   4.254  0.2713  0.1873 -0.1567
48858W        W91771   4.071  29.281   4.569 -0.3362  0.4666 -0.0021
48859W        W91772   7.362   2.011   4.164  0.1846  0.0336  0.2734
48860W        W91773   9.066  27.571  28.895  0.0727  0.2182  0.0634
48861W        W91774  12.404  26.534  16.495 -0.1185 -0.1121  0.1770
48862W        W91775   9.117   9.637  10.440  0.0754 -0.0811  0.1138
48863W        W91776   2.701  25.927  29.020  0.1215 -0.3173  0.0727
48864W        W91777   5.481  18.366   4.448 -0.1577 -0.1559 -0.1556
48865W        W91778   1.362  31.074   3.393 -0.3899  0.1660  0.3171
48866W        W91779  19.674  25.966  23.525 -0.0185  0.1078  0.3297
48867W        W91780  12.512  28.964  25.850 -0.1279 -0.1624  0.1464
48868W        W91781  15.184  33.953  23.087  0.0876  0.1024  0.1348
48869W        W91782  11.152  22.856   3.968  0.3925 -0.1284 -0.1237
48870W        W91783   2.422  23.247  19.653  0.0727 -0.1104 -0.1299
48871W        W91784  12.196  25.710  22.250  0.1995 -0.0481  0.2192
48872W        W91785  16.738  17.504   6.873  0.0106 -0.0921 -0.3527
48873W        W91786   8.672  26.151   2.623  0.0472  0.0008  0.0554
48874W        W91787  15.395  31.352   5.890 -0.2548 -0.1789  0.1751
48875W        W91788  24.355  22.526  25.790 -0.0770 -0.0514 -0.0218
48876W        W91789   7.983  21.513  26.329  0.0133 -0.1336  0.2494
48877W        W91790  34.295  31.887  25.309  0.0789 -0.0792 -0.1055
48878W        W91791   9.119  22.246  26.005 -0.2147  0.0361  0.0802
48879W        W91792  34.473  30.887   1.458  0.1148 -0.0293  0.0411
48880W        W91793   0.674  24.618  25.837 -0.0024 -0.0873 -0.2428
48881W        W91794  17.903  28.509  15.875 -0.1611  0.1428 -0.1215
48882W        W91795  12.359  33.740  25.070  0.0036  0.1978 -0.1390
48883W        W91796   3.648  34.455  27.139  0.1725  0.0885 -0.3212
48884W        W91797   3.116  23.700   2.640  0.0697 -0.1081 -0.3563
48885W        W91798  25.406  21.101  28.375 -0.0364 -0.1360 -0.1877
48886W        W91799  10.399  23.097   5.184  0.0942 -0.3135  0.2566
48887W        W91800   5.997  24.954   6.604 -0.1929  0.2907 -0.0251
48888W        W91801   4.918  30.371   6.271 -0.0466  0.2926  0.0429
48889W        W91802   6.482  26.971   3.295 -0.1642  0.0763  0.0929
48890W        W91803   8.708  23.945   4.692  0.2735  0.1172  0.0633
48891W        W91804  10.544  24.382  27.613 -0.1063  0.0244  0.0752
48892W        W91805  16.156  28.379  29.532  0.5116 -0.0604 -0.1130
48893W        W91806  11.202  21.370  25.494  0.0753  0.2314  0.0301
48894W        W91807  13.633  19.195  22.099  0.0219  0.2174  0.1379
48895W        W91808  17.066  16.652  29.499 -0.0965  0.1330  0.1116
48896W        W91809   1.946  28.089  27.319  0.0413 -0.2697  0.1580
48897W        W91810  10.266  28.340   5.069 -0.0427 -0.0043 -0.2948
48898W        W91811  32.941  33.016  27.301 -0.1213 -0.2384 -0.1168
48899W        W91812  15.893  24.282   3.106 -0.1543 -0.2088  0.0299
48900W        W91813   0.781  25.050   2.263 -0.3247 -0.0146  0.0989
48901W        W91814   0.782  23.784   5.152 -0.0477 -0.1396  0.1474
48902W        W91815  14.227  20.528   4.227  0.1826 -0.0228 -0.2178
48903W        W91816  13.261  21.991   0.125 -0.2438 -0.0849  0.0528
48904W        W91817  11.544  30.851  27.992  0.0527 -0.2577 -0.0890
48905W        W91818   1.718   4.122  27.545  0.0653 -0.0156 -0.1704
48906W        W91819  26.559  22.461  26.032  0.2398  0.0942 -0.0152
48907W        W91820  11.734  18.840  22.859  0.0514  0.0980 -0.2760
48908W        W91821  30.134  22.898   3.217 -0.0530  0.1292  0.2232
48909W        W91822   4.532  28.046   2.798 -0.1196 -0.1660  0.3514
48910W        W91823   5.832  20.235   2.520  0.0501 -0.1804 -0.1209
48911W        W91824   0.275  26.753  25.630  0.1463 -0.3628  0.0383
48912W        W91825   0.696  20.714  26.944  0.3868 -0.0534 -0.0265
48913W        W91826  16.973  30.222  27.371  0.0086  0.2821  0.2084
48914W        W91827   7.187  34.232  19.789 -0.1335  0.3160 -0.2784
48915W        W91828  16.571  25.468  27.224 -0.0411 -0.0720 -0.0792
48916W        W91829  29.392  30.499   5.371  0.3696  0.1023  0.3291
48917W        W91830   2.167  17.397   6.227 -0.0934 -0.1897 -0.0635
48918W        W91831  13.915  32.127  19.958 -0.1764  0.2961  0.0694
48919W        W91832  10.088  27.395   8.553 -0.3160  0.0697  0.2249
48920W        W91833  19.035  18.903  22.990  0.0887  0.1880 -0.0103
48921W        W91834   9.593  16.295  20.144 -0.0364  0.0003 -0.2995
48922W        W91835  14.964  28.563  19.346 -0.0911  0.3811  0.1096
48923W        W91836   7.004  27.584  28.659 -0.1197  0.0308  0.1520
48924W        W91837   8.161  25.133   1.237 -0.1137  0.3352 -0.3173
48925W        W91838   4.643  16.010  26.507 -0.0879 -0.0087  0.0874
48926W        W91839  13.081  28.134  24.619  0.1334 -0.0499 -0.0624
48927W        W91840  13.958  28.709  23.306 -0.1483  0.0205  0.4987
48928W        W91841  16.535  20.586  15.088  0.0862 -0.0341 -0.1224
48929W        W91842  11.844  20.817  25.402 -0.1633 -0.3189 -0.0062
48930W        W91843   2.029  22.553  28.173  0.2296 -0.0885  0.5397
48931W        W91844   0.360  24.961  24.790 -0.2177 -0.0534  0.3485
48932W        W91845  28.162   2.440  22.141  0.2399 -0.0420 -0.0126
48933W        W91846   1.177  26.699   4.580 -0.1152 -0.0493 -0.2822
48934W        W91847   4.539  33.210  22.160 -0.0524  0.1834 -0.1767
48935W        W91848   8.371  30.840   1.555 -0.0301  0.1056 -0.1756
48936W        W91849  11.569  18.889  26.940  0.0213 -0.1261  0.2643
48937W        W91850   7.258  26.136   0.890 -0.0384  0.1585 -0.1070
48938W        W91851  15.303  27.498  23.005  0.1196  0.0392 -0.2372
48939W        W91852   9.989  21.912   1.534  0.2254  0.1929  0.1505
48940W        W91853  14.939  30.747  10.513  0.1442  0.2687  0.0825
48941W        W91854  12.877  18.778   1.439 -0.0744  0.0065  0.0738
48942W        W91855   7.084  22.361   5.132  0.0999 -0.1048  0.0333
48943W        W91856   4.278  19.222  25.157  0.3020 -0.0749 -0.1932
48944W        W91857  15.352  22.837  25.194  0.1731 -0.0500 -0.1225
48945W        W91858  13.620  12.677   1.241  0.2985  0.3369  0.1901
48946W        W91859  11.225  29.652   8.607  0.0314 -0.0790  0.1827
48947W        W91860  11.483  18.350  27.271  0.2435 -0.0494  0.2704
48948W        W91861  10.428  31.394  26.614 -0.0256  0.1916 -0.2733
48949W        W91862   4.158  22.533  28.327  0.1101 -0.4698  0.2506
48950W        W91863   3.754  26.863  17.154  0.3096 -0.1285  0.0129
48951W        W91864   7.574   1.256   7.280 -0.0271  0.0145  0.4270
48952W        W91865   4.372  17.364  22.810 -0.1236 -0.1858  0.0909
48953W        W91866  14.235  26.760  27.053  0.0018  0.5476  0.2003
48954W        W91867   8.502  34.036  23.354 -0.0693 -0.2333  0.1923
48955W        W91868   4.691  29.652   0.491  0.0719 -0.2951 -0.3025
48956W        W91869   9.406  23.558  27.218  0.1720  0.0693  0.2458
48957W        W91870  30.138  25.721   3.074  0.0087 -0.2225 -0.0173
48958W        W91871  14.189  20.785   5.699  0.4538  0.1610 -0.0041
48959W        W91872  10.837  17.024   3.592  0.0756  0.2156 -0.2150
48960W        W91873  17.753  27.842  25.839  0.4864 -0.2417  0.1258
48961W        W91874   3.639   6.839   2.883 -0.1303  0.2325  0.0559
48962W        W91875   2.973   1.169   5.739  0.1874 -0.2460  0.2278
48963W        W91876  12.156  20.737  25.772  0.2002  0.3354 -0.1810
48964W        W91877   6.591  28.271  28.965 -0.1357 -0.0802 -0.2473
48965W        W91878   9.065  24.532  28.377 -0.2095 -0.1510 -0.1479
48966W        W91879   0.294  24.056  25.204  0.0412 -0.3399  0.5015
48967W        W91880  10.610  26.087   2.797  0.0330 -0.1287  0.0207
48968W        W91881  11.129  24.396  29.116  0.1003  0.0123 -0.0879
48969W        W91882  17.529  25.129   2.116  0.0613 -0.0969 -0.1206
48970W        W91883   8.221  23.663  26.229  0.2868  0.2839  0.0301
48971W        W91884   5.099   2.386  27.532 -0.1751 -0.1183 -0.0423
48972W        W91885  10.987  20.068  16.870  0.0719 -0.1711 -0.0346
48973W        W91886  30.651  31.381  22.226 -0.1665  0.3297 -0.1193
48974W        W91887   2.351  19.656  15.645 -0.0652  0.1272  0.3493
48975W        W91888   8.414  22.985   5.567  0.0720 -0.1431 -0.3099
48976W        W91889   6.887  22.575   4.630 -0.1366 -0.2026  0.3129
48977W        W91890  11.985  27.882  28.616  0.1259  0.0177  0.0110
48978W        W91891  14.154  20.984  23.012 -0.2263  0.0723 -0.0821
48979W        W91892  12.624  24.893  21.149 -0.0688 -0.0057  0.2105
48980W        W91893   2.609  25.044   5.248  0.1181 -0.2506  0.0573
48981W        W91894   9.595  18.069  25.836 -0.1866 -0.2073  0.0163
48982W        W91895   5.316   1.068  19.471 -0.1111  0.2108 -0.2535
48983W        W91896   1.731  17.399  21.344 -0.0505  0.2881 -0.1288
48984W        W91897   4.437  29.269   5.483  0.0750 -0.1767 -0.0244
48985W        W91898   9.919   1.239   3.849  0.1906  0.0576  0.1541
48986W        W91899  11.246  20.736   3.307 -0.2834 -0.1643 -0.0650
48987W        W91900  16.851   6.992   4.374  0.2216  0.2255  0.1802
48988W        W91901  19.345  34.092   7.404  0.2397 -0.5199  0.0695
48989W        W91902   6.410  18.508   3.656 -0.1398 -0.1118  0.1188
48990W        W91903  32.858  23.444   5.901  0.2501 -0.0103 -0.0304
48991W        W91904   0.589  26.539   5.031  0.0009 -0.0171 -0.1100
48992W        W91905  33.369  34.180  20.693 -0.0716  0.1841  0.2374
48993W        W91906  18.538  19.762  14.827  0.0731 -0.0387 -0.2357
48994W        W91907  14.098  28.595   4.749  0.0542 -0.0725 -0.0156
48995W        W91908  28.861  19.596   1.971 -0.1761  0.2461  0.1576
48996W        W91909  28.419  30.189   6.885 -0.0774  0.3126 -0.2213
48997W        W91910  17.735  19.409  29.738  0.2126 -0.1080 -0.4135
48998W        W91911   4.205  26.309  16.212  0.0209  0.3206  0.2401
48999W        W91912  10.914  24.982  27.178 -0.2848 -0.2826  0.2194
49000W        W91913   8.602  26.852  28.055 -0.2516  0.0524 -0.1540
49001W        W91914  14.611  29.446  16.925  0.0940 -0.2910 -0.0106
49002W        W91915  20.461  25.817  23.733  0.0034  0.2655 -0.1442
49003W        W91916  15.052  34.044   7.326  0.1791  0.0680 -0.2235
49004W        W91917   0.632  31.584  20.939 -0.2383 -0.4268  0.0922
49005W        W91918   6.992  21.370  18.173  0.0646 -0.1251  0.2008
49006W        W91919  11.889  31.210   3.061  0.4926 -0.0268 -0.1287
49007W        W91920  13.274  22.475   5.741  0.2385  0.1103  0.0633
49008W        W91921   3.741  32.903   4.391 -0.1549 -0.2725 -0.1173
49009W        W91922   7.912  33.666  23.721 -0.0642 -0.0567  0.1899
49010W        W91923  33.210  20.698   6.184  0.1083  0.1696  0.1846
49011W        W91924   4.475   2.519   7.737  0.0042 -0.3552 -0.0963
49012W        W91925  26.078  24.917  29.434 -0.2769 -0.4046  0.0187
49013W        W91926   6.820  22.745  23.863 -0.0412 -0.3162  0.0068
49014W        W91927   6.773  25.315   0.918  0.2459  0.2153  0.2730
49015W        W91928   2.411  16.340   4.366  0.0546  0.0781  0.1184
49016W        W91929   4.533  18.647  20.300 -0.1095 -0.1852 -0.0295
49017W        W91930   6.716  17.970  20.423  0.0186  0.1920  0.0565
49018W        W91931   6.216  14.202  24.858 -0.3913 -0.0882 -0.2890
49019W        W91932  30.437  20.014   6.274 -0.0827 -0.0707 -0.0154
49020W        W91933  12.209  21.715  27.493  0.0833 -0.0336  0.2069
49021W        W91934   9.673  25.454  27.974  0.1278  0.1420 -0.0901
49022W        W91935   8.044  21.039   5.822  0.1425  0.0583 -0.1406
49023W        W91936   7.252   0.847  29.465 -0.1626  0.1578 -0.0169
49024W        W91937  11.135  26.023  28.315 -0.2945 -0.0220  0.0241
49025W        W91938  10.883  27.294  20.644  0.1358 -0.2428  0.1788
49026W        W91939   4.710  33.066  29.778  0.1042 -0.4683  0.0362
49027W        W91940   2.251  26.638  24.400 -0.1066  0.1358  0.1794
49028W        W91941   3.505  18.425   1.985  0.0074 -0.1699  0.0782
49029W        W91942   7.997  27.212  22.748  0.1693 -0.1319 -0.1071
49030W        W91943  17.058  26.044  29.752 -0.1456 -0.0859 -0.3455
49031W        W91944  12.029  27.745  25.224  0.2761 -0.0661 -0.0086
49032W        W91945   0.531  31.792  15.884  0.0313 -0.1007 -0.1548
49033W        W91946  11.826  29.162   1.375  0.1458  0.1539 -0.0015
49034W        W91947   0.564  27.584   4.931  0.2445 -0.1073  0.0542
49035W        W91948  14.378  32.795   2.709  0.1507  0.0439 -0.1799
49036W        W91949  15.123  25.829   7.769  0.0263 -0.2090 -0.0231
49037W        W91950   0.527  33.063  24.218 -0.2323  0.1267  0.1380
49038W        W91951   8.071   2.857  29.021  0.0170  0.1921  0.3338
49039W        W91952  12.744  22.610  26.327  0.1018  0.3333  0.0822
49040W        W91953  33.033   0.625   3.400  0.0532 -0.0586  0.3728
49041W        W91954  18.986  32.159  16.944 -0.0879 -0.1869  0.2882
49042W        W91955   3.864  27.118   5.166 -0.2126 -0.0607 -0.0412
49043W        W91956  14.551  20.562  24.017  0.0829  0.0627  0.0848
49044W        W91957   5.736  24.306  27.893 -0.1222 -0.0837 -0.0787
49045W        W91958   5.508  23.157  24.601 -0.0885  0.1506 -0.0506
49046W        W91959  17.246  24.887  23.797 -0.1301  0.4330  0.1251
49047W        W91960   3.925  34.009   3.064  0.0273  0.1369 -0.0070
49048W        W91961  32.716  33.658   3.551  0.1682  0.1572 -0.2898
49049W        W91962  30.869  21.971   2.143  0.1534 -0.0870  0.0507
49050W        W91963   6.074  32.352  23.819 -0.2044 -0.0273  0.1107
49051W        W91964  10.225  31.142   2.141 -0.2589  0.1559 -0.0775
49052W        W91965   7.087  30.858  25.858 -0.1502  0.1699 -0.0476
49053W        W91966   3.077   8.955   1.913 -0.0660  0.4892  0.1244
49054W        W91967  11.931  23.793  27.413  0.0429  0.0293 -0.0333
49055W        W91968   4.350   8.561   1.832  0.1989 -0.0734 -0.3406
49056W        W91969  32.133  26.169  22.344  0.1918  0.0370  0.0488
49057W        W91970  11.949  17.821  29.241  0.0299  0.0543  0.0554
49058W        W91971  11.147  27.838  24.126 -0.3562 -0.3925 -0.0933
49059W        W91972  12.993  21.542  24.256  0.1338  0.0381  0.3074
49060W        W91973  28.915  28.538  29.400 -0.1886 -0.0352  0.2598
49061W        W91974  27.978  33.261   3.861 -0.1175 -0.2895 -0.1630
49062W        W91975  33.630   0.646   4.323  0.0452 -0.0559  0.0005
49063W        W91976   2.869  26.419  10.258 -0.1013 -0.5565  0.0280
49064W        W91977   8.525  31.221   1.891  0.1413  0.1207 -0.0057
49065W        W91978   1.733   8.223  11.961  0.1197  0.1894 -0.1479
49066W        W91979  12.455  24.568   4.116  0.0555 -0.0538 -0.1390
49067W        W91980   4.642  28.519  11.017  0.2016 -0.0403  0.2925
49068W        W91981   8.649  30.012   2.211 -0.0387 -0.0533 -0.2730
49069W        W91982  17.707  23.067   4.748 -0.1814 -0.3219 -0.0156
49070W        W91983   2.504  29.550  28.233 -0.2410  0.2904 -0.2689
49071W        W91984  15.996  34.451  24.270 -0.1223 -0.0205 -0.0776
49072W        W91985  32.115  27.099   3.388  0.2030  0.0426 -0.0735
49073W        W91986   5.409  20.033   2.540 -0.2226  0.0190 -0.0142
49074W        W91987   5.555  24.348   1.071 -0.0913  0.0855 -0.1529
49075W        W91988   1.697  22.714   4.140 -0.0215  0.2376  0.4322
49076W        W91989   4.113  23.969  18.247  0.2057  0.1680  0.3337
49077W        W91990  28.888  31.007   3.658 -0.1562 -0.1117 -0.0286
49078W        W91991   0.575   6.455   8.512  0.0160 -0.2787  0.0956
49079W        W91992  14.972  21.401  23.213  0.1554  0.1119  0.0447
49080W        W91993  14.116  20.598   7.903 -0.2483 -0.4021  0.0820
49081W        W91994   1.564  17.304   9.102 -0.1667  0.2030  0.2822
49082W        W91995  12.130  29.713   8.219  0.0648  0.0927 -0.0268
49083W        W91996  11.959  17.831  27.804  0.2370 -0.1398  0.0980
49084W        W91997  11.799  21.929   7.992  0.1827 -0.0137  0.0369
49085W        W91998  11.781  31.908   5.757  0.0102 -0.0115  0.3280
49086W        W91999  17.277  16.459  25.278 -0.0223 -0.0224  0.0976
49087W        W92000   7.789  32.976  28.754 -0.0454  0.2786  0.3590
49088W        W92001  13.623  34.141  28.778 -0.2160 -0.1045 -0.1993
49089W        W92002  31.265   2.025   6.616 -0.0268  0.0195 -0.0025
49090W        W92003  32.529   9.748  26.017 -0.1266 -0.0671 -0.1545
49091W        W92004  12.459  22.982   3.542 -0.2303  0.0190  0.3504
49092W        W92005  33.782  30.354  28.212 -0.0360 -0.1041 -0.1015
49093W        W92006  13.807  24.078  26.937  0.0478  0.5903 -0.2984
49094W        W92007   3.911  21.245  24.199 -0.2536 -0.0662 -0.0799
49095W        W92008   3.093  33.121   2.443 -0.1530 -0.0346 -0.3353
49096W        W92009   7.439  22.159  27.660  0.0131  0.0088  0.2400
49097W        W92010  18.327   7.871   2.636  0.0189  0.3354  0.1143
49098W        W92011   0.827  25.364   5.079 -0.1153 -0.1875 -0.1094
49099W        W92012  10.567  12.573  24.049 -0.0430  0.1671 -0.1753
49100W        W92013  15.374  25.373  25.723 -0.0338 -0.0345  0.1275
49101W        W92014  16.678  19.205  25.754 -0.0864 -0.0257 -0.0163
49102W        W92015  17.061  22.108  15.560  0.1178 -0.0612  0.0848
49103W        W92016  31.230  28.117  16.960  0.1427 -0.1170  0.2983
49104W        W92017  11.187   6.259  25.746  0.0286 -0.2855  0.2271
49105W        W92018   1.200  29.818  15.422  0.3156  0.0900  0.0082
49106W        W92019   3.082  24.763  18.606  0.0472  0.1465 -0.1606
49107W        W92020  15.559  26.350  23.607  0.2545 -0.1378 -0.1951
49108W        W92021  15.158  27.693  14.192 -0.1293  0.0299 -0.3168
49109W        W92022  11.424   3.543   3.586  0.3474  0.1309 -0.0909
49110W        W92023   4.158   1.678  21.035 -0.0025 -0.0123 -0.1638
49111W        W92024  12.817  19.806  14.748  0.1550  0.1127 -0.3733
49112W        W92025  10.212  26.510  19.922  0.1374 -0.2046  0.3322
49113W        W92026  29.806  29.332  23.920  0.1145  0.0702 -0.1009
49114W        W92027   6.105  28.251  22.107  0.2066  0.0324 -0.0810
49115W        W92028  25.254  29.955  20.653 -0.1044 -0.3448  0.0763
49116W        W92029  14.396  26.976  21.334 -0.2093  0.2099  0.2539
49117W        W92030   1.166   0.639  23.071 -0.3806 -0.2388 -0.0499
49118W        W92031   6.446  31.822  18.348  0.0935  0.1103  0.0163
49119W        W92032   1.777  31.199  21.455  0.0034  0.1373 -0.3266
49120W        W92033   6.423  16.771  14.448  0.3794  0.0166  0.1379
49121W        W92034  12.724  31.791  17.000  0.1464  0.1018 -0.0891
49122W        W92035   9.738  26.983  20.228 -0.0105 -0.0314  0.2437
49123W        W92036   4.186  31.228  20.563  0.0766  0.2905  0.0475
49124W        W92037   3.786  28.835  15.760  0.0930  0.0237  0.1833
49125W        W92038  13.809  24.686  15.807  0.1167 -0.1102  0.2432
49126W        W92039  15.639  31.625  15.127 -0.3375 -0.0984 -0.0816
49127W        W92040  10.965  33.132  23.183 -0.2627 -0.0681 -0.1128
49128W        W92041  12.503  32.179  16.762  0.0952  0.0169  0.1305
49129W        W92042   6.381  28.662  22.866  0.0058  0.3447 -0.1288
49130W        W92043  15.386  27.413  27.008  0.4141  0.2533  0.1371
49131W        W92044  14.449   3.304  26.760  0.2110  0.2145  0.2634
49132W        W92045  10.751  28.545  28.538  0.2417  0.2419 -0.1405
49133W        W92046  10.812  27.259  21.213 -0.2040  0.1319  0.2231
49134W        W92047  18.493  32.037  22.587  0.0692  0.0355  0.1294
49135W        W92048   9.673   0.125  17.789 -0.0837  0.0440  0.2408
49136W        W92049  33.005  27.238  19.794  0.1673  0.1411  0.1082
49137W        W92050   4.485  22.485   2.915 -0.2740  0.0415  0.0296
49138W        W92051  11.040  19.900  14.640  0.0416 -0.2246 -0.0133
49139W        W92052  33.261  27.772  16.251  0.0284  0.0121 -0.0020
49140W        W92053  10.259  27.020  26.421  0.0868  0.4149 -0.0993
49141W        W92054   7.302  17.936  23.228 -0.3341  0.0032 -0.2292
49142W        W92055  24.443  28.294  17.770  0.1531 -0.1030  0.0616
49143W        W92056   7.358  10.574  20.404  0.2252 -0.0316 -0.2783
49144W        W92057   1.577  28.257  26.117  0.0872  0.0483  0.0271
49145W        W92058  18.177  25.444  20.534 -0.0415 -0.0727  0.1360
49146W        W92059   6.201  28.075  14.869 -0.1738 -0.1215 -0.0359
49147W        W92060   4.328  19.825  16.477  0.3131 -0.0027  0.1386
49148W        W92061   5.940   3.191  18.553  0.1549  0.1080 -0.2713
49149W        W92062  16.067   5.103  14.954 -0.0786 -0.0972 -0.1626
49150W        W92063  14.237  28.638  15.862 -0.0958 -0.1268  0.1337
49151W        W92064  15.152  26.137  23.709  0.2470 -0.1201 -0.0946
49152W        W92065   4.715  26.383  16.165 -0.0565  0.1094  0.0570
49153W        W92066  17.068  31.183  17.954 -0.0002  0.0991  0.2726
49154W        W92067  32.855  31.643  15.718  0.0189 -0.0620 -0.1222
49155W        W92068   5.249  28.406  19.292 -0.1385  0.0760 -0.1083
49156W        W92069  18.584  14.961  14.309 -0.0295  0.1929  0.0874
49157W        W92070  18.273  29.179  16.982  0.1007  0.0966  0.0903
49158W        W92071  12.282   0.440  17.443  0.0056 -0.2226  0.1049
49159W        W92072   7.931  26.146  16.461  0.2539  0.0678 -0.0560
49160W        W92073  13.999  28.945  15.276 -0.0391  0.0614 -0.4203
49161W        W92074  12.164  24.476  17.157  0.1468 -0.0207 -0.0134
49162W        W92075  10.933  32.178  16.406  0.0809  0.1174 -0.1983
49163W        W92076  18.390  22.962  14.215 -0.0392  0.1322 -0.0347
49164W        W92077   3.716   2.339  22.236  0.1249 -0.1963 -0.0840
49165W        W92078   8.539  33.627  18.906  0.1122  0.1128 -0.3449
49166W        W92079  10.996  33.321  17.211  0.0999  0.2187  0.0066
49167W        W92080  16.332  25.588   0.118 -0.1385  0.0448  0.2525
49168W        W92081   6.121  27.768  25.264 -0.2104 -0.0592 -0.0830
49169W        W92082  34.276  24.653  19.471  0.0888 -0.0168  0.1713
49170W        W92083   5.073  32.690  20.699 -0.2581 -0.1693  0.0822
49171W        W92084   5.306  24.921  21.102  0.1077 -0.3154 -0.0605
49172W        W92085  11.136   2.016   0.919  0.2919 -0.0233  0.2787
49173W        W92086  14.528  24.133  17.186 -0.2116  0.1361 -0.3029
49174W        W92087  11.963  21.966  18.769 -0.0843  0.0520  0.0288
49175W        W92088   0.704  28.188  16.355 -0.2458 -0.1285  0.0930
49176W        W92089   1.926  30.118  18.999  0.2072 -0.1143 -0.0149
49177W        W92090   9.195   8.987  21.770  0.4380 -0.1868  0.0408
49178W        W92091  13.887  21.012  14.356 -0.2004 -0.1244  0.1550
49179W        W92092  10.354  30.843  17.783  0.0707 -0.2780 -0.0126
49180W        W92093  10.435  28.378  17.840  0.1197  0.0132  0.0824
49181W        W92094   6.286  28.704  25.255  0.2090 -0.0527 -0.2373
49182W        W92095  15.305  29.344  23.195  0.1151  0.1272  0.1696
49183W        W92096  10.891  28.503  17.110 -0.0142 -0.0833 -0.1352
49184W        W92097   1.820  30.705  21.301 -0.0306  0.2277  0.1368
49185W        W92098  33.223  32.804  15.325 -0.0561 -0.0262 -0.4598
49186W        W92099  19.270  27.460  17.666  0.0629 -0.0898 -0.2280
49187W        W92100  13.982  23.304  23.997 -0.0128  0.1989  0.0037
49188W        W92101  16.239  34.267  20.847  0.0122  0.1351  0.2181
49189W        W92102  20.372   2.968  20.028 -0.2762 -0.1824  0.0184
49190W        W92103   9.532   0.232  24.993  0.0181  0.0579  0.2368
49191W        W92104  10.408  33.118  19.698  0.1601  0.0458  0.0285
49192W        W92105  10.971  30.754   1.063  0.0639 -0.0115  0.0277
49193W        W92106  11.953  30.200  19.781 -0.4263 -0.3388  0.1937
49194W        W92107  12.684  25.284  28.779 -0.1054  0.0343 -0.1294
49195W        W92108  13.172  15.433  13.835  0.3434 -0.2044  0.2144
49196W        W92109  11.492  33.973  26.919  0.0229  0.2422 -0.1381
49197W        W92110   3.522  24.643  16.570  0.2788 -0.0550  0.3257
49198W        W92111   9.505  23.142  15.241 -0.1839 -0.1283 -0.2118
49199W        W92112   2.914  29.104  14.672 -0.1716  0.1394 -0.2736
49200W        W92113  10.814  22.476  14.304 -0.2984 -0.1802 -0.1318
49201W        W92114  18.208  31.477  16.734  0.3562 -0.0193  0.2054
49202W        W92115  14.058   3.713  17.674 -0.3565  0.0365  0.0331
49203W        W92116  22.036   3.416  28.446 -0.2196 -0.1565  0.2298
49204W        W92117  10.400  26.918  23.755 -0.0874 -0.0580 -0.0612
49205W        W92118   8.345  26.640  24.955 -0.2964 -0.1164 -0.3107
49206W        W92119  10.718   4.279  21.845 -0.1229 -0.0116 -0.2436
49207W        W92120  22.192  23.259  19.950 -0.0599 -0.0252  0.0472
49208W        W92121  34.059  18.589  29.655  0.0736  0.2774  0.0067
49209W        W92122   7.413  32.302  21.950 -0.0818  0.0794 -0.1264
49210W        W92123  17.092  33.583   1.684 -0.0555 -0.2813  0.1201
49211W        W92124  33.813  29.470  24.843 -0.2184 -0.0958  0.4169
49212W        W92125   7.521  30.482  19.560 -0.0884 -0.0020  0.0147
49213W        W92126  19.399   2.164  14.517  0.2000  0.0497 -0.1503
49214W        W92127   4.081  25.432  19.867  0.1124  0.3958 -0.2471
49215W        W92128  13.921  17.697  13.960  0.1148  0.0986 -0.0999
49216W        W92129  25.114   4.554  16.812  0.1606  0.0771  0.2402
49217W        W92130   0.668  31.176  15.947  0.0577 -0.3635 -0.0874
49218W        W92131  34.143  20.164  23.473  0.2540  0.0317  0.3318
49219W        W92132  32.007  29.763  24.804  0.0228  0.3337  0.1137
49220W        W92133   6.224  23.712  14.063 -0.0217 -0.0176  0.0859
49221W        W92134   9.919  34.437  21.471 -0.0730 -0.2476  0.2054
49222W        W92135  29.897  32.731  18.775  0.0853 -0.0184 -0.0101
49223W        W92136   2.985  24.835  20.386 -0.2521  0.1101  0.0283
49224W        W92137   7.585  25.244  20.882  0.1345  0.0194  0.1042
49225W        W92138   8.387   0.418  20.546  0.0456  0.2313 -0.1620
49226W        W92139   6.590  21.210  20.907 -0.1419 -0.0069  0.1480
49227W        W92140  12.312   0.239  23.556 -0.4810  0.2093  0.0312
49228W        W92141   2.160  21.463  23.250  0.0297  0.2437  0.1191
49229W        W92142   3.930  24.608  18.984 -0.3288 -0.2416 -0.5496
49230W        W92143   6.188  30.635  18.758 -0.1985 -0.2682  0.2858
49231W        W92144   8.611   1.489  21.025 -0.1255  0.0932  0.1599
49232W        W92145   6.903   0.438  20.273 -0.1826  0.0941 -0.1062
49233W        W92146   6.961  29.953  20.789  0.0450  0.0299  0.2357
49234W        W92147   8.784  29.077  20.808  0.0259  0.0422  0.3179
49235W        W92148  32.015  29.542  21.650 -0.1499  0.2282  0.0555
49236W        W92149  16.294  28.520  25.304 -0.0864 -0.1580 -0.0067
49237W        W92150   4.747   1.425  21.900 -0.2806 -0.1930 -0.1119
49238W        W92151  19.389   7.532  18.034 -0.1000  0.3465  0.2400
49239W        W92152  10.455  29.829  24.263  0.0188  0.0413  0.2708
49240W        W92153  33.265   0.690  20.627 -0.0820  0.1713 -0.3098
49241W        W92154   9.935  28.832  23.850  0.2850  0.0901 -0.1228
49242W        W92155  11.694   6.348  22.747  0.0104  0.1693 -0.0037
49243W        W92156   4.870  31.654  21.873  0.0481  0.3122  0.0672
49244W        W92157  11.353  18.807  13.867 -0.0612 -0.0803  0.0182
49245W        W92158  12.839  30.041  19.815 -0.0004 -0.2747  0.1667
49246W        W92159  10.419  29.836  16.405 -0.0060 -0.0106  0.0040
49247W        W92160  10.393  34.422  18.480 -0.1136 -0.0912 -0.1818
49248W        W92161   7.993  24.440  18.599 -0.0714  0.5241  0.3671
49249W        W92162  15.104  24.485  20.839 -0.0116  0.0445 -0.0208
49250W        W92163   8.269  29.646  18.402  0.1234 -0.0641  0.2411
49251W        W92164   2.447  33.765  19.973  0.0544  0.1899  0.0233
49252W        W92165   6.100  32.576  18.682 -0.1748 -0.2537  0.0422
49253W        W92166   2.831  23.150  24.186 -0.3525  0.3110  0.3571
49254W        W92167  24.336   0.661  18.232 -0.0413  0.0373 -0.0642
49255W        W92168  31.877  28.313  21.777 -0.0076  0.0212  0.0691
49256W        W92169  17.919  31.947  22.983  0.0652  0.1471 -0.0053
49257W        W92170  21.045  24.931  21.363 -0.3436 -0.1281 -0.0625
49258W        W92171   0.354  20.533  20.328 -0.0753  0.2290  0.1296
49259W        W92172   1.778   0.229  16.125 -0.2225  0.0510  0.0993
49260W        W92173   8.486  22.546  16.762 -0.2282  0.1565  0.3280
49261W        W92174   2.643  24.661  24.392 -0.0835  0.2080  0.0744
49262W        W92175   6.112  29.950  18.724 -0.1999 -0.0819  0.2321
49263W        W92176   5.664  29.330  16.746 -0.0051 -0.2486  0.2708
49264W        W92177  27.049  29.359  21.031 -0.0883  0.0891 -0.3881
49265W        W92178   3.002  32.300  29.168 -0.2153  0.0356 -0.0200
49266W        W92179   4.788  33.555  23.480 -0.2017  0.0093  0.1393
49267W        W92180  26.425  20.067  18.685 -0.1019 -0.0063  0.1258
49268W        W92181   9.627   0.216  16.311 -0.4079  0.3174 -0.3204
49269W        W92182  20.415  31.030  15.126  0.1736 -0.0870 -0.1679
49270W        W92183   1.793  19.519  29.225 -0.0135 -0.3595  0.3288
49271W        W92184  14.997  25.979  18.614 -0.2666  0.0287 -0.0573
49272W        W92185   1.765  23.687  21.474 -0.3894  0.0393 -0.3083
49273W        W92186   3.280  27.400  21.092  0.0539  0.1344 -0.3681
49274W        W92187  11.848  30.541  18.907  0.1474 -0.0244  0.0387
49275W        W92188   8.504   0.874  19.796 -0.0030 -0.0704  0.1116
49276W        W92189  16.563  27.435  20.385 -0.2938 -0.0606  0.1285
49277W        W92190  17.408  28.625  17.828  0.2051  0.1211 -0.1153
49278W        W92191   6.810  24.313  21.225  0.0600 -0.3523 -0.0966
49279W        W92192  20.570  25.161  17.299  0.0418 -0.1576  0.1627
49280W        W92193   1.883  29.196  25.277 -0.0310 -0.1235 -0.0053
49281W        W92194  21.499  20.293  14.281 -0.1849 -0.3509  0.0988
49282W        W92195   8.320  27.842  18.297  0.2356  0.2032  0.2531
49283W        W92196   3.321  21.721  15.407  0.0149 -0.0528  0.0907
49284W        W92197  20.770  26.726  25.939 -0.3317 -0.1863  0.0907
49285W        W92198   0.989  26.709  16.828 -0.1114  0.1629 -0.1482
49286W        W92199   6.188  28.022  15.750 -0.1799 -0.3577  0.1862
49287W        W92200   4.813  26.932  25.202 -0.0576  0.1319 -0.3721
49288W        W92201  12.527  19.315  13.440  0.0934  0.2324  0.0259
49289W        W92202   4.768  29.460  22.399  0.3096  0.2718  0.3332
49290W        W92203  16.253  30.331  17.272 -0.2072 -0.1137  0.0131
49291W        W92204  14.690  33.103  21.566 -0.0308  0.0895  0.0714
49292W        W92205   5.611  22.148  21.091 -0.0551 -0.0945  0.0804
49293W        W92206   5.626  26.964  17.998 -0.0115 -0.0297  0.0445
49294W        W92207   3.539  33.575   2.326 -0.0052 -0.3296 -0.0382
49295W        W92208  22.829   2.519  20.354  0.0058  0.3775  0.1348
49296W        W92209  32.489   0.966  21.335 -0.0215 -0.2881 -0.1066
49297W        W92210  17.707  23.576  19.556 -0.0577 -0.0999  0.0787
49298W        W92211   3.924  30.155  21.890  0.0618 -0.0664  0.1277
49299W        W92212  30.572  30.598  16.238  0.1054  0.1990  0.0677
49300W        W92213  16.647   7.489  18.055 -0.1220  0.1295  0.1781
49301W        W92214   2.872  33.270  16.929 -0.3587 -0.1770 -0.2254
49302W        W92215   7.566  27.521  28.687 -0.1262 -0.0439 -0.0647
49303W        W92216   5.033  14.825  22.866 -0.1664 -0.0072  0.1358
49304W        W92217   6.658  30.787  16.975  0.3630  0.0797  0.1851
49305W        W92218  11.867  21.836  15.977 -0.1642  0.0123  0.2911
49306W        W92219  11.067  33.894  16.791  0.0527  0.1628  0.2249
49307W        W92220  12.229  24.266  18.381 -0.1494  0.2139  0.0129
49308W        W92221  23.741  23.828  17.605 -0.0724 -0.4542  0.2029
49309W        W92222  11.460   1.141  19.563 -0.5752  0.0088  0.1928
49310W        W92223  11.464  20.790  18.186  0.0851  0.1734 -0.0031
49311W        W92224   9.749  31.159  18.907 -0.3291  0.0041  0.2285
49312W        W92225  10.417   7.735  21.397 -0.0802 -0.0095 -0.3087
49313W        W92226  15.224  25.667  17.712  0.1540  0.1651  0.1075
49314W        W92227  27.621  21.431  19.416  0.0906  0.1457 -0.2904
49315W        W92228   5.501   0.441  17.507  0.2214 -0.0837 -0.0516
49316W        W92229  10.158  22.756  21.635  0.3563 -0.1906  0.1471
49317W        W92230   7.496  25.253  25.028  0.0550  0.1180 -0.0877
49318W        W92231   9.049  25.176  18.151  0.1272 -0.3304  0.0229
49319W        W92232   1.700  33.693  28.859  0.1824 -0.2212  0.0149
49320W        W92233   6.713   4.822  18.589 -0.0140 -0.0255  0.2583
49321W        W92234  11.092  28.000  25.063 -0.0419 -0.2313  0.2022
49322W        W92235   8.098   6.195  17.541 -0.0916 -0.2718  0.0735
49323W        W92236   8.722   3.324  19.874 -0.0872  0.1002 -0.1946
49324W        W92237  19.935  30.590  16.127 -0.0904  0.1281  0.0646
49325W        W92238  16.937  28.738  17.611  0.0696  0.2351  0.2406
49326W        W92239   5.058  28.883  21.138 -0.1324 -0.2001  0.3442
49327W        W92240  23.192  26.967  20.266  0.2255 -0.1571  0.2919
49328W        W92241   5.884  34.409  18.331  0.2189  0.1210  0.0906
49329W        W92242  15.148  28.357  17.983  0.0339 -0.2199  0.0730
49330W        W92243  11.258  16.355  19.925  0.2502  0.0987 -0.2583
49331W        W92244  14.369  33.348  17.816  0.2305 -0.1448 -0.0129
49332W        W92245  15.894  28.880  21.728  0.2498  0.2873 -0.0135
49333W        W92246  14.659  17.064  15.379 -0.1271 -0.0272  0.1368
49334W        W92247   3.256  25.063  16.851  0.2862  0.0168  0.0179
49335W        W92248  20.676  27.700  14.176 -0.3903 -0.1363  0.2269
49336W        W92249  18.133  26.271  20.181  0.1565  0.1397  0.4108
49337W        W92250  14.468  30.875  16.821  0.0525  0.0942 -0.1824
49338W        W92251   5.887  21.551  20.405  0.1156  0.1882  0.1013
49339W        W92252  22.118  23.954  14.233 -0.2610 -0.4957 -0.1723
49340W        W92253   8.287   1.200  20.103  0.5165  0.0514 -0.1291
49341W        W92254  12.035  13.940  22.509 -0.0984  0.4149 -0.2718
49342W        W92255  13.131  28.148  14.851 -0.0976 -0.1301 -0.2116
49343W        W92256  16.795   3.027  21.405  0.0368  0.0991  0.1539
49344W        W92257  11.127  26.858  14.648 -0.1265 -0.0293  0.2792
49345W        W92258   1.556  33.869  17.439 -0.1926 -0.0784 -0.0509
49346W        W92259   8.890  33.133  21.232 -0.2690  0.1684  0.0395
49347W        W92260   4.503  24.197  15.102 -0.1013 -0.1276 -0.1324
49348W        W92261   8.669  21.834  18.474 -0.0392  0.0600 -0.0974
49349W        W92262   2.450  25.115  25.321 -0.0686 -0.0214 -0.1146
49350W        W92263  10.518  23.827  18.997 -0.0044  0.0526  0.0710
49351W        W92264  11.548  31.376  17.174 -0.2832  0.0997 -0.1568
49352W        W92265  10.040   1.567  17.670 -0.0111 -0.2769 -0.2129
49353W        W92266   6.776  34.492  20.032  0.1431 -0.1797  0.0495
49354W        W92267   2.638  31.642  22.222 -0.1588 -0.0524  0.0750
49355W        W92268   6.508   1.851  19.823  0.0519  0.2349  0.0827
49356W        W92269   1.458  33.032  22.076 -0.4015  0.1286 -0.1185
49357W        W92270  11.547   3.899  19.284  0.1262  0.1720  0.1743
49358W        W92271  11.615  27.308  18.718 -0.2621 -0.1701  0.1623
49359W        W92272   7.208  27.356  21.445 -0.0245  0.3675  0.1044
49360W        W92273  14.237  26.088  23.522  0.1599 -0.0822  0.1269
49361W        W92274   6.450  20.414  20.349  0.0508 -0.0253  0.0903
49362W        W92275   5.615  26.515  20.758 -0.1154  0.0066  0.3020
49363W        W92276   3.783  31.679  17.118 -0.0846  0.0457 -0.1261
49364W        W92277  17.084   8.415  23.991 -0.0842 -0.2169  0.1560
49365W        W92278   7.595  29.375  17.229  0.2080  0.1252 -0.2038
49366W        W92279   3.433  27.731  22.825  0.0695  0.0736 -0.2423
49367W        W92280  26.683  33.855   4.016  0.1537  0.3835  0.1940
49368W        W92281  17.644   1.288  22.270  0.0858  0.0336 -0.1991
49369W        W92282   2.958  33.015  20.705 -0.2192  0.2723  0.3511
49370W        W92283  11.057  25.575  15.544 -0.1076  0.0527 -0.0537
49371W        W92284   6.851  33.436  23.043 -0.3267  0.0809  0.2369
49372W        W92285   2.916   5.954  21.977 -0.0767 -0.1496 -0.0471
49373W        W92286   4.889  21.806  23.338  0.1613  0.4472 -0.2605
49374W        W92287  21.463  31.490  19.187 -0.3251 -0.3198  0.2496
49375W        W92288   8.203   0.208  21.197  0.0002  0.1889 -0.1674
49376W        W92289  22.484  23.576  17.742 -0.1969 -0.3452  0.3754
49377W        W92290  16.093  32.430  25.986 -0.1268 -0.1671 -0.2849
49378W        W92291  16.881  23.946  28.473 -0.0910 -0.3506  0.1516
49379W        W92292  33.310  26.384  20.444  0.1073 -0.1525 -0.0357
49380W        W92293  13.880  31.718  24.031  0.0800  0.0782  0.2330
49381W        W92294  19.215  33.632  15.888  0.0940 -0.3268  0.0813
49382W        W92295   8.433  21.184  15.401 -0.0015 -0.1349 -0.2186
49383W        W92296   9.984   0.642  16.991  0.1989 -0.0176 -0.0997
49384W        W92297  16.967  26.792  14.304  0.1698 -0.2849 -0.1120
49385W        W92298   2.580  20.950  18.874 -0.1368 -0.0852 -0.1498
49386W        W92299  15.685  31.610  17.016 -0.0644  0.1364 -0.2502
49387W        W92300  13.560  19.527  23.684  0.0487  0.3433 -0.0333
49388W        W92301   1.980  20.359  19.281  0.3774 -0.0813 -0.4587
49389W        W92302  34.143  15.630  14.560  0.0676 -0.3277  0.0235
49390W        W92303  10.175  29.761  17.508  0.2395  0.2190  0.1063
49391W        W92304  12.905  31.051  15.993 -0.3657 -0.2795  0.0197
49392W        W92305   9.807   0.350  21.173 -0.2566  0.1803 -0.1886
49393W        W92306  11.275   2.517  19.800  0.0182 -0.2042  0.0864
49394W        W92307  11.079   6.325  23.357 -0.0692 -0.2387  0.0955
49395W        W92308  15.529  33.584  16.323  0.0768 -0.1076  0.2377
49396W        W92309  14.950   0.176  15.876  0.2300  0.0222  0.0116
49397W        W92310   3.225  33.643  18.792 -0.0667  0.0919 -0.1393
49398W        W92311   2.348  33.623  17.100  0.3894  0.0986 -0.0158
49399W        W92312   7.581  22.121  19.349 -0.0511  0.2891 -0.1480
49400W        W92313   6.157  24.734  27.877 -0.1720 -0.2028  0.3257
49401W        W92314  17.864  31.252  18.776 -0.1335 -0.0884  0.0550
49402W        W92315  10.489   1.750  25.398  0.1314  0.2710  0.4694
49403W        W92316  23.587   6.676  23.516 -0.0181 -0.2700  0.0367
49404W        W92317  10.987  24.910  20.091  0.0981 -0.1203 -0.0853
49405W        W92318   9.277  12.167  22.862  0.3674 -0.1091  0.2135
49406W        W92319  12.936  16.313  12.778  0.0891  0.1555 -0.7808
49407W        W92320  18.875  32.088  25.998  0.1632  0.0902 -0.4000
49408W        W92321  17.847  31.222  16.992 -0.4663  0.0095 -0.1831
49409W        W92322  20.479  30.334  15.811 -0.0030 -0.1355 -0.0179
49410W        W92323  15.998  33.764  20.604  0.1598 -0.1375 -0.0347
49411W        W92324   1.819  31.314  16.674 -0.1164  0.1922  0.2551
49412W        W92325  19.224  31.902  14.965  0.0494  0.1601 -0.0020
49413W        W92326   3.002  29.995  22.373  0.1100  0.1079 -0.1678
49414W        W92327   7.344  21.345  18.892  0.0017  0.0002  0.0321
49415W        W92328  12.800  30.903  16.473  0.0661  0.0972  0.1135
49416W        W92329   0.534   4.863  16.007  0.0834 -0.0346  0.1192
49417W        W92330  14.111  26.981  16.954  0.3172 -0.1168 -0.1091
49418W        W92331  15.917  15.513  15.595  0.1150 -0.0732  0.0676
49419W        W92332   9.058  28.100  16.942  0.1133  0.2243 -0.0140
49420W        W92333   4.130  16.405  21.653  0.1134 -0.0506  0.3252
49421W        W92334   6.382   3.138  19.368 -0.2851  0.1812 -0.3764
49422W        W92335   8.087  17.930  14.194  0.0779  0.0921  0.1967
49423W        W92336  21.193  32.528  18.319 -0.0888 -0.0553  0.0047
49424W        W92337   2.593   0.273  17.702  0.2562 -0.0046  0.1419
49425W        W92338   2.320   4.856  19.368 -0.0541  0.3360  0.1325
49426W        W92339  18.404   2.162  21.348  0.1697 -0.0629 -0.1231
49427W        W92340   4.937  26.807  23.265  0.0830 -0.0869  0.0140
49428W        W92341  16.649  24.797  26.382  0.0745 -0.0924  0.0875
49429W        W92342  14.999  33.535  27.710  0.2489  0.1825  0.3118
49430W        W92343  33.861   2.509  18.014 -0.0445  0.4282 -0.0213
49431W        W92344   6.032  32.945  24.926 -0.1005 -0.0118 -0.1013
49432W        W92345  15.345  26.481  27.459 -0.0311 -0.2381 -0.1422
49433W        W92346  19.581  32.176  15.034 -0.1257  0.3029  0.1652
49434W        W92347  20.685  27.163  16.090 -0.2269 -0.2909  0.0427
49435W        W92348  25.577  25.140  22.266  0.3335  0.1961  0.2553
49436W        W92349  27.540   6.988  29.111 -0.0890 -0.1454  0.0606
49437W        W92350  13.111  33.525  22.929  0.0501 -0.3043  0.0152
49438W        W92351   6.265   1.196   7.424 -0.1293 -0.0932 -0.1538
49439W        W92352  16.363  25.521  17.043 -0.1644  0.1939 -0.0136
49440W        W92353  16.203  27.355  17.660  0.0144 -0.0459  0.0898
49441W        W92354   2.803  20.729  24.948  0.0512  0.1936 -0.0432
49442W        W92355  18.352  27.931  17.931  0.0423  0.1256  0.0694
49443W        W92356  21.955   2.683  14.427 -0.0530  0.1913  0.1050
49444W        W92357   7.434  26.490  17.858  0.0095 -0.2692 -0.0719
49445W        W92358  12.386  31.907  20.992  0.1720 -0.0374 -0.3097
49446W        W92359   5.218  20.702  21.901  0.2407 -0.2130 -0.0832
49447W        W92360  19.794  26.139  18.395 -0.1255 -0.2518 -0.2559
49448W        W92361  27.286   2.904  19.857 -0.0219 -0.0543  0.0701
49449W        W92362   5.028  30.796  21.521  0.3396  0.1462  0.0454
49450W        W92363  18.446  30.400  22.899  0.1840 -0.0094 -0.1311
49451W        W92364   4.324  25.949  20.469  0.1657  0.0505  0.0847
49452W        W92365   2.429  32.079  15.224  0.1080 -0.3056 -0.4229
49453W        W92366  14.058  27.400  26.837  0.1116 -0.2194 -0.1353
49454W        W92367  15.344  19.563  15.025  0.1814 -0.2164 -0.1599
49455W        W92368  13.286  29.657  19.018  0.1273 -0.2047  0.1011
49456W        W92369   3.270  21.873  17.137 -0.0710 -0.0257 -0.0380
49457W        W92370   4.768  27.141  14.922  0.0460 -0.0586 -0.0178
49458W        W92371   5.726   3.157  22.316  0.1124  0.0071  0.0352
49459W        W92372   1.459  23.722  25.018 -0.0460  0.0612  0.1029
49460W        W92373  15.252  29.126  19.110 -0.0698 -0.2307 -0.1050
49461W        W92374   4.769   1.444  22.853  0.1781  0.1993  0.2288
49462W        W92375   7.030  29.457  17.399  0.1160  0.1110  0.0140
49463W        W92376  11.953  34.028  22.490 -0.1881 -0.2388  0.1671
49464W        W92377  16.202  30.867  19.223  0.0905 -0.1503  0.2866
49465W        W92378   9.049  33.435  28.715  0.1315  0.0924  0.1364
49466W        W92379   8.580  22.061  19.786  0.0512 -0.3142 -0.1004
49467W        W92380   6.876  30.135  18.283  0.2512 -0.1387  0.0684
49468W        W92381  13.092  13.047  21.592  0.0769  0.0615 -0.2656
49469W        W92382  14.003   1.540  24.362 -0.1378 -0.1060 -0.4642
49470W        W92383  11.997  30.113  18.649 -0.1082  0.1061  0.2247
49471W        W92384   0.735  23.834  20.804 -0.0389 -0.2155 -0.1938
49472W        W92385  11.089  25.769  19.257 -0.1142 -0.1278  0.0832
49473W        W92386  14.646  28.934  19.756  0.0617  0.0619 -0.0692
49474W        W92387   8.848  26.074  16.839 -0.0466  0.2147  0.3108
49475W        W92388   4.464  30.918  18.837  0.1776 -0.1036 -0.1965
49476W        W92389   3.031  19.481  18.276  0.2039 -0.1731  0.3467
49477W        W92390  13.280  33.983  16.867  0.1540 -0.0436  0.0372
49478W        W92391   3.285  29.820  15.034 -0.3835 -0.3511  0.2343
49479W        W92392   7.363  33.581  19.178 -0.0880 -0.3557  0.0663
49480W        W92393   5.284  28.671  18.449  0.1118 -0.3499 -0.3578
49481W        W92394  19.295  29.070  21.868 -0.0754 -0.0961 -0.0172
49482W        W92395  12.860  27.705  17.694 -0.0546  0.0175  0.1135
49483W        W92396   5.703  25.622  24.878  0.2536 -0.0394 -0.0072
49484W        W92397  24.986  27.410  24.428  0.2173  0.0951 -0.0923
49485W        W92398   7.443  17.454  23.122  0.2534 -0.0950  0.1254
49486W        W92399   3.491  32.487  17.817 -0.1122 -0.0366  0.3179
49487W        W92400  13.470   5.535  19.591  0.1543 -0.0900 -0.1476
49488W        W92401   4.432  25.608  17.130  0.0454 -0.1248 -0.1435
49489W        W92402   9.562  21.449  16.729  0.0568  0.0442  0.0839
49490W        W92403  24.183  32.932  15.726  0.1639 -0.3616  0.0959
49491W        W92404  15.787  21.896  18.326 -0.0965  0.1022  0.1135
49492W        W92405  17.650   3.345  20.086  0.1826  0.0658 -0.2393
49493W        W92406   1.403  21.546  22.535 -0.4459 -0.2055  0.0869
49494W        W92407  10.782  22.917  20.968 -0.0408 -0.0202  0.0631
49495W        W92408  10.505   8.243   1.602  0.0427 -0.2417  0.2029
49496W        W92409  14.051   3.972  18.800 -0.1759  0.2590 -0.3252
49497W        W92410   3.920  33.824  20.351  0.2547  0.0741 -0.4410
49498W        W92411  23.672  17.777  17.357 -0.1016  0.2200 -0.2066
49499W        W92412  12.981  25.036  15.884  0.2650 -0.1932  0.1650
49500W        W92413  14.753  31.640  21.978 -0.4154 -0.0224  0.0801
49501W        W92414  11.884  28.942  15.793 -0.1484 -0.0021  0.1814
49502W        W92415  18.254  32.009  17.615 -0.0239  0.2537 -0.2256
49503W        W92416   5.847  25.135  23.377  0.2223  0.3037  0.1360
49504W        W92417  17.614  28.882  14.552  0.2676  0.0329 -0.2525
49505W        W92418  23.856  27.541  24.214  0.2232  0.2718 -0.4125
49506W        W92419  18.519  28.946  18.387 -0.2374  0.2446 -0.0800
49507W        W92420  10.174   4.842  19.913  0.2490 -0.1486 -0.1274
49508W        W92421  13.402   2.367  19.196 -0.0768  0.3410  0.2511
49509W        W92422   9.186  20.549  14.350 -0.3557  0.1506  0.0539
49510W        W92423   4.544  18.502  19.053  0.0565 -0.0671  0.2144
49511W        W92424   7.231  16.917  28.323  0.2325 -0.0100  0.1390
49512W        W92425   9.557  27.355   6.698 -0.1196  0.0892 -0.4388
49513W        W92426  15.925  33.187  23.758  0.1424  0.2162 -0.0583
49514W        W92427  32.701   2.069  19.260 -0.1458  0.1050  0.2280
49515W        W92428   6.490  22.494   5.865 -0.3929 -0.0548 -0.0605
49516W        W92429  21.167  32.768  15.978  0.0219 -0.2167 -0.1715
49517W        W92430  19.836  31.395  17.655  0.1358  0.1338 -0.2218
49518W        W92431   3.060  16.158  17.458  0.0193  0.3134  0.0755
49519W        W92432   8.433  29.964  16.104  0.0067  0.3348  0.4045
49520W        W92433  17.749  32.044  17.290  0.0614  0.0467 -0.2035
49521W        W92434   0.129  31.131  21.915 -0.0038  0.1769  0.1969
49522W        W92435   0.493  31.658  22.699  0.1950 -0.1881 -0.0542
49523W        W92436  10.266  28.705  21.491 -0.3192  0.1673 -0.0890
49524W        W92437   4.906  27.864  18.444  0.3921  0.0676 -0.0879
49525W        W92438   9.059  29.637  23.986  0.0527  0.1020 -0.0355
49526W        W92439   4.166  26.954  27.010  0.1413 -0.0743 -0.1420
49527W        W92440   2.170  28.120  27.796  0.1683  0.0281  0.2041
49528W        W92441   1.957  28.786  22.822  0.1761  0.3400  0.0228
49529W        W92442  13.522   1.921  18.416  0.2115  0.1660 -0.0986
49530W        W92443   8.094  14.147  15.182  0.0829 -0.1532 -0.3818
49531W        W92444  13.642   1.854  25.353 -0.0354 -0.0563 -0.2099
49532W        W92445  27.338  33.221  29.190  0.0514  0.0475  0.0497
49533W        W92446  14.950  27.997  17.009  0.0605 -0.2185 -0.1062
49534W        W92447  11.331  20.237  28.098 -0.1528  0.1671  0.3326
49535W        W92448  10.084  27.161  24.279 -0.2655 -0.0235  0.2838
49536W        W92449  13.301  26.570  15.907  0.0343  0.2517 -0.2249
49537W        W92450   7.740  15.579  17.002  0.0738  0.2563 -0.1106
49538W        W92451  12.663  31.347  16.747 -0.2853  0.3685 -0.1875
49539W        W92452  20.463  24.278  18.771  0.1342 -0.0510  0.1274
49540W        W92453   4.365   5.274  26.345  0.4461 -0.0813  0.1277
49541W        W92454   2.001  32.254  15.423  0.4500 -0.0174  0.1105
49542W        W92455  21.541  26.367  16.622 -0.2333  0.0420  0.0940
49543W        W92456   5.895   2.287  21.839  0.2565  0.0769  0.2279
49544W        W92457   3.076  33.956  24.006 -0.1015  0.0957 -0.2128
49545W        W92458   4.908  30.939  19.018  0.1435  0.1653 -0.0912
49546W        W92459   4.643  33.779  28.956  0.3339 -0.0183  0.1492
49547W        W92460  14.759  24.639  18.146 -0.1719  0.0482  0.2750
49548W        W92461   4.816  31.511  16.203  0.2597  0.0747 -0.0261
49549W        W92462   7.996  30.441  19.304 -0.1525  0.2343  0.0849
49550W        W92463  33.476  29.547  17.231 -0.0330 -0.0408  0.1079
49551W        W92464  28.876   1.121  14.374 -0.0304  0.0324  0.2696
49552W        W92465  13.275   1.044  23.633  0.0214  0.2870 -0.1222
49553W        W92466   5.471   6.322  24.732 -0.1548 -0.1097  0.1945
49554W        W92467   2.538  31.513  18.453 -0.3046  0.0483 -0.1400
49555W        W92468   5.461  21.336  26.624 -0.1316  0.3004 -0.0350
49556W        W92469  33.499  33.969  16.002  0.1428  0.1372  0.3461
49557W        W92470  11.979  12.376  21.340  0.0424  0.3416  0.0457
49558W        W92471  30.956   0.600  25.499 -0.1605  0.0074 -0.0879
49559W        W92472  31.342  31.745  18.638 -0.0399 -0.0154  0.2271
49560W        W92473   0.307  26.308  18.883  0.2766  0.0647 -0.1685
49561W        W92474  11.138  32.034  23.172  0.1791 -0.0457  0.2018
49562W        W92475   2.423  22.571  25.464 -0.3769 -0.0976 -0.0888
49563W        W92476  13.375  25.241  20.022 -0.2330 -0.3045  0.0717
49564W        W92477  34.372   4.773  26.049 -0.0664 -0.0093  0.0585
49565W        W92478   3.945  32.193  18.923 -0.2918  0.1786  0.1940
49566W        W92479   5.308  26.612  16.780 -0.0476 -0.2456  0.1602
49567W        W92480  11.526  32.685  27.043  0.2192  0.2322 -0.0771
49568W        W92481   3.072  28.560  17.057  0.0691 -0.0014 -0.1011
49569W        W92482  12.938  21.531  23.400  0.0988 -0.0148  0.1456
49570W        W92483   5.475  16.346  19.977 -0.4153 -0.1838  0.0826
49571W        W92484   6.737  27.798  27.510  0.0571 -0.0699 -0.3209
49572W        W92485  20.042  29.632  20.622 -0.1827  0.0249 -0.0528
49573W        W92486  13.029  19.834  17.256 -0.3064 -0.0995  0.0417
49574W        W92487  14.428  28.578  22.209 -0.1376 -0.1777 -0.2602
49575W        W92488  12.349   9.708  26.524 -0.0115  0.0895 -0.0780
49576W        W92489   9.536  21.104  16.096  0.0953  0.1133  0.1538
49577W        W92490  12.617  26.316  27.341 -0.0517  0.0664  0.0124
49578W        W92491  20.616   0.945  23.288 -0.2741  0.3566  0.1985
49579W        W92492   5.050  31.173  16.809 -0.2428  0.0275  0.1836
49580W        W92493  22.540  24.747  14.562 -0.1780  0.2887  0.1008
49581W        W92494   0.770   5.030   1.128 -0.1980  0.1237 -0.0453
49582W        W92495   0.430  30.894  19.878  0.0529 -0.0700 -0.2330
49583W        W92496   9.938  31.339  25.304  0.3709 -0.1440 -0.2755
49584W        W92497   3.999  33.271  21.982 -0.0054 -0.1727 -0.0258
49585W        W92498   5.414  23.342  25.128 -0.0681  0.0694 -0.0440
49586W        W92499  12.847  31.392   2.463 -0.1186  0.1438  0.1236
49587W        W92500   0.748  31.800   3.008  0.0128  0.0807  0.4918
49588W        W92501   5.271  29.134  24.720 -0.3326  0.0547  0.0415
49589W        W92502  20.779  33.426  27.772 -0.1483 -0.1308  0.0774
49590W        W92503   3.630   3.409  18.085 -0.0085  0.0590  0.1569
49591W        W92504   2.720  32.069   0.325 -0.1418  0.3055 -0.1012
49592W        W92505  11.783  23.701  16.738 -0.0865  0.1518 -0.0603
49593W        W92506  21.019  22.266  26.381 -0.3513 -0.0960 -0.2621
49594W        W92507   8.209  20.515  22.561 -0.2018 -0.3384  0.0328
49595W        W92508   4.954  32.441  15.968 -0.0433  0.1395 -0.2394
49596W        W92509  11.557  28.021  24.373 -0.0201 -0.4674 -0.2588
49597W        W92510  29.571  27.958  23.549 -0.0424  0.2693  0.1426
49598W        W92511   8.634  23.324  29.450  0.0033  0.1855 -0.1150
49599W        W92512   1.362  27.744  21.893  0.0250  0.0487 -0.3024
49600W        W92513   1.384  32.695   3.193  0.3749  0.0042 -0.1608
49601W        W92514  31.116   0.252   1.697  0.0292 -0.1341 -0.0119
49602W        W92515  13.274  32.598  26.365 -0.0121  0.4156 -0.2331
49603W        W92516   2.450  24.618  25.363 -0.0461 -0.4513  0.0186
49604W        W92517  14.527   0.451  15.900  0.2644 -0.3706 -0.1925
49605W        W92518  32.286  26.568  24.244 -0.2581 -0.3139 -0.0199
49606W        W92519  18.704  22.759  27.015  0.0528 -0.0109  0.0489
49607W        W92520   0.910  25.175  18.853 -0.2490  0.0642 -0.0508
49608W        W92521  13.657  31.287  23.428  0.4196  0.0786 -0.1014
49609W        W92522   4.064  27.351  21.696 -0.0390  0.0630 -0.1709
49610W        W92523   8.224  32.107  19.590 -0.0454 -0.0179  0.2337
49611W        W92524   0.202   0.955  24.255  0.0310 -0.0948  0.2542
49612W        W92525   3.067  32.627   1.371  0.1369 -0.1090 -0.1434
49613W        W92526  12.490  26.048  23.075  0.0267  0.1482 -0.0334
49614W        W92527  20.998  28.102  23.818 -0.1176 -0.2059 -0.1267
49615W        W92528   2.171  33.398  23.109  0.3960 -0.0593  0.0086
49616W        W92529  16.595  18.936  25.160 -0.1623 -0.3349 -0.0309
49617W        W92530  13.838  16.015  27.369 -0.0629  0.0433 -0.0783
49618W        W92531  15.089  29.152  16.088 -0.0914  0.3524 -0.0838
49619W        W92532  12.619   3.323  26.526 -0.1730  0.3193 -0.0549
49620W        W92533   4.586   2.420   0.466 -0.0606  0.1492  0.1021
49621W        W92534  11.935  30.498  17.495  0.3102  0.0515  0.0516
49622W        W92535   8.333  19.525  26.316  0.0337  0.1208  0.3095
49623W        W92536   5.806   8.910  17.645  0.1086 -0.2509 -0.2794
49624W        W92537   7.232   1.342  29.559  0.0842  0.0001 -0.3540
49625W        W92538  17.075  24.434  18.194 -0.4552  0.0138  0.2293
49626W        W92539   5.110  31.969  21.194  0.1301  0.1450 -0.0670
49627W        W92540   6.510  23.130  22.689  0.0565  0.2561  0.1963
49628W        W92541   8.437  30.510  20.819 -0.0077  0.2488  0.2180
49629W        W92542  15.805  27.606  20.627 -0.2485  0.1180  0.0049
49630W        W92543  33.164   5.474  29.390  0.2057 -0.2245  0.5337
49631W        W92544   0.686  26.974  24.854 -0.2161  0.0493  0.1351
49632W        W92545   1.454  31.445  21.713 -0.0957  0.0531 -0.1287
49633W        W92546  15.228   2.140  15.113 -0.0205  0.0747 -0.2294
49634W        W92547   9.328  33.830  26.016 -0.0451 -0.2481 -0.0407
49635W        W92548   5.267   8.552  20.512  0.0256  0.1519 -0.3019
49636W        W92549  22.206  30.821  20.744  0.1562  0.0778 -0.2095
49637W        W92550   6.103  26.151  16.110  0.0319  0.0820 -0.0938
49638W        W92551  12.410  19.347  15.625  0.2150 -0.0492  0.4214
49639W        W92552  14.930  31.894  22.483  0.1538 -0.1109 -0.1884
49640W        W92553  18.556  23.827  14.153 -0.2766 -0.0974  0.1941
49641W        W92554  15.292  28.571  24.367  0.1000  0.1591  0.1865
49642W        W92555   8.280  31.726  18.463 -0.0534  0.0329  0.3545
49643W        W92556  33.568  19.856  19.397 -0.0423  0.0330  0.0822
49644W        W92557   5.274  12.294  20.429 -0.1677 -0.1476  0.2113
49645W        W92558   6.810  34.136  19.078 -0.2191 -0.2814 -0.0900
49646W        W92559  13.391  18.341  25.007  0.2062 -0.1302  0.0570
49647W        W92560  12.899  20.766  16.389  0.1911 -0.1879 -0.3802
49648W        W92561   1.272  25.206  23.792  0.1269  0.1884  0.2877
49649W        W92562  10.725  21.849  23.019  0.1795  0.0295  0.2197
49650W        W92563  13.671  34.101  16.551  0.1798  0.1841 -0.0984
49651W        W92564  11.793   1.045  28.235  0.1352 -0.0877 -0.3081
49652W        W92565   8.225  32.383  25.922  0.2082 -0.1495  0.1049
49653W        W92566   5.903   1.259  19.506 -0.1684 -0.0416  0.2271
49654W        W92567  14.847   7.342  21.610 -0.0736  0.0686  0.2560
49655W        W92568   6.137  30.042  21.023  0.1298 -0.2826 -0.3196
49656W        W92569  11.443  28.420  22.236  0.0499  0.0080  0.0347
49657W        W92570   3.863   2.000  23.108  0.0601  0.2237 -0.4654
49658W        W92571  10.301  27.083  27.855 -0.2487 -0.1414 -0.2097
49659W        W92572   1.006  28.857  20.353 -0.2728 -0.2682 -0.1021
49660W        W92573  12.954  26.899  24.739  0.0524 -0.0921  0.2103
49661W        W92574  15.382  26.374  21.764  0.0593 -0.3739 -0.2159
49662W        W92575   5.832  21.789  17.130 -0.0868  0.0296  0.0741
49663W        W92576   7.090  25.427  14.805  0.1388 -0.0059 -0.1097
49664W        W92577   6.772  20.171  18.652 -0.5532 -0.0962 -0.0813
49665W        W92578   2.501   3.496  18.347  0.1549 -0.0444 -0.0667
49666W        W92579   2.476   0.864  24.642  0.1389 -0.2553  0.1166
49667W        W92580  15.074  26.620  14.591 -0.0703 -0.2480  0.2145
49668W        W92581   1.103  34.398  21.686  0.0605  0.3536 -0.0435
49669W        W92582   3.763  30.916  23.579  0.1666 -0.0602  0.1210
49670W        W92583   5.313  28.939  16.825 -0.0235  0.0882  0.3968
49671W        W92584  33.300  28.981  21.611 -0.2368  0.0045 -0.1992
49672W        W92585  21.400  32.907  19.199 -0.0044 -0.0089 -0.0898
49673W        W92586  23.015  31.690  20.926  0.4595 -0.1650  0.0362
49674W        W92587  18.698  23.055  28.706 -0.3280  0.0439  0.0594
49675W        W92588   7.305   6.133   1.866 -0.0834 -0.1840  0.3172
49676W        W92589  12.254   5.641  18.024 -0.0858 -0.0779  0.0168
49677W        W92590   3.594  20.516  24.504  0.2685  0.3131 -0.1766
49678W        W92591  19.962   6.301  16.549 -0.0347  0.0715  0.1169
49679W        W92592   8.446   0.534  28.788  0.3650 -0.2397  0.1210
49680W        W92593   4.785  32.775  16.937  0.3477  0.1109 -0.2715
49681W        W92594   3.612  26.459  19.022 -0.0197 -0.0742 -0.0905
49682W        W92595  16.483  32.668  21.609  0.2616 -0.1497  0.3100
49683W        W92596   5.005   5.391  25.756 -0.3910  0.2513  0.3305
49684W        W92597  11.321  30.658  24.184  0.1546 -0.2220 -0.1865
49685W        W92598   7.848  20.721  16.140  0.2229 -0.0102  0.0475
49686W        W92599  13.287   1.864  19.903 -0.0138  0.2882 -0.0962
49687W        W92600  10.369   9.198  18.823 -0.0979 -0.0589  0.2359
49688W        W92601  10.673  27.851  23.948 -0.1337  0.4843 -0.0211
49689W        W92602   2.677  25.656  17.953  0.3689 -0.0886  0.0289
49690W        W92603   3.248  30.885  29.183  0.3214  0.0997 -0.0868
49691W        W92604   5.609  28.297  20.826 -0.2646 -0.1309  0.3055
49692W        W92605   9.671  32.527  16.599 -0.1923 -0.3158 -0.2452
49693W        W92606  20.842  23.903  24.332 -0.1509  0.2250  0.0045
49694W        W92607  14.062  21.450  21.785  0.2102 -0.0295 -0.2394
49695W        W92608  19.121  30.217  22.308  0.1188 -0.1802  0.1418
49696W        W92609  11.546  34.318  19.503  0.0639  0.1944  0.1343
49697W        W92610  33.058   2.367  20.216 -0.3071 -0.0657 -0.0678
49698W        W92611  11.228   1.375  25.904 -0.0359 -0.2376 -0.0060
49699W        W92612   9.755  27.835   0.666 -0.1226 -0.3212 -0.1896
49700W        W92613  15.706  23.790  16.785 -0.3011 -0.0139 -0.2151
49701W        W92614   5.179   1.575  21.570  0.1583  0.1242  0.1593
49702W        W92615  12.709  29.477   0.758 -0.1914 -0.0777 -0.3614
49703W        W92616   4.545  15.645  21.797 -0.0137  0.1083  0.1238
49704W        W92617   3.815  26.916  22.401 -0.1362  0.1397 -0.0420
49705W        W92618  31.192  23.131  20.286 -0.1598  0.0722  0.0463
49706W        W92619  10.855  24.548   2.986 -0.1560 -0.1901  0.3774
49707W        W92620   8.293  32.788  22.689 -0.1309  0.2439  0.1922
49708W        W92621   3.370  26.147   2.838  0.0382  0.0883 -0.5346
49709W        W92622  10.251  30.030  18.353  0.2159  0.1059  0.4293
49710W        W92623  18.464   5.272  21.214  0.2811  0.1246  0.4161
49711W        W92624   2.486   5.660  22.190 -0.0457  0.2350  0.0890
49712W        W92625  13.114   1.008  16.766  0.0507  0.2912  0.2560
49713W        W92626   0.912  26.271  25.210 -0.2776  0.1556  0.2269
49714W        W92627  17.446  29.806  18.980  0.2094  0.3434 -0.2874
49715W        W92628   1.727  28.721  25.268  0.1169 -0.3035  0.1969
49716W        W92629   9.079   2.566  24.026  0.2652  0.1874  0.1284
49717W        W92630   2.104  21.228  15.435  0.1856  0.0644 -0.0713
49718W        W92631   6.468  23.762  22.923 -0.0280 -0.0132 -0.0063
49719W        W92632  31.547  30.912  29.084  0.0357 -0.0874 -0.2159
49720W        W92633  16.638  22.482  19.117 -0.2064  0.0083 -0.0330
49721W        W92634  14.908  30.403  25.335 -0.1355 -0.1275 -0.0582
49722W        W92635  12.139  30.298  22.647  0.1686  0.1207 -0.4702
49723W        W92636   0.959  31.210  22.008 -0.2173  0.0395 -0.4200
49724W        W92637  14.111  24.497  17.083  0.0209 -0.0853 -0.0120
49725W        W92638   8.052  22.713  17.066  0.0565  0.2872  0.0072
49726W        W92639   4.470  34.227  19.925 -0.1695 -0.3654  0.2494
49727W        W92640  26.674  29.475   2.876 -0.1013 -0.0713  0.0835
49728W        W92641  10.661  28.523  25.447 -0.0155  0.0459 -0.0773
49729W        W92642  24.490  29.554  13.614  0.0796 -0.1450  0.0313
49730W        W92643  31.757  30.905  26.719  0.2489  0.2554  0.2713
49731W        W92644   6.890  18.478  26.469  0.0234  0.1123  0.2308
49732W        W92645  11.283  18.324  15.623 -0.1845  0.1346 -0.4648
49733W        W92646  20.503   1.927  21.962  0.0262 -0.0123 -0.0892
49734W        W92647   5.731  24.202  17.135  0.0641 -0.3043  0.3761
49735W        W92648   4.166  28.257   1.892  0.0808 -0.0388 -0.2701
49736W        W92649  11.536  31.103  24.022 -0.2193 -0.1460  0.0554
49737W        W92650   9.194   5.351  21.242  0.2106  0.0833 -0.1247
49738W        W92651  11.055  22.008  17.864  0.3605  0.4334 -0.0430
49739W        W92652  14.594  25.492  23.141 -0.2975  0.1494 -0.1279
49740W        W92653  17.232  32.379  17.422 -0.1171  0.2159 -0.0603
49741W        W92654   1.450   1.521  27.700  0.1782  0.0031  0.3804
49742W        W92655  13.978  32.068  16.887 -0.0738  0.0459 -0.0237
49743W        W92656   8.033  26.457  20.370 -0.0870  0.0394 -0.2117
49744W        W92657  11.610  23.924  19.224  0.2529  0.0646 -0.0964
49745W        W92658  11.244  22.008  23.478 -0.0672 -0.0874 -0.2650
49746W        W92659   5.816  24.072  22.606  0.2484 -0.1877 -0.1376
49747W        W92660  21.416  31.047  13.733  0.0370 -0.3488  0.0587
49748W        W92661   2.208  33.071  21.232 -0.0334 -0.1577  0.3826
49749W        W92662   9.630  20.211  16.764  0.1206 -0.1858  0.0339
49750W        W92663  11.771  22.148   1.024 -0.0188 -0.0870  0.0379
49751W        W92664   6.344  29.154  22.634  0.0093 -0.0939 -0.1585
49752W        W92665  17.013   0.199  23.761 -0.3569  0.2072  0.0600
49753W        W92666  20.779   5.290  24.350 -0.1871  0.0008  0.0325
49754W        W92667   2.920  29.431  29.100 -0.0156  0.1517 -0.4118
49755W        W92668  14.470   5.731  19.466  0.2834 -0.0497 -0.0522
49756W        W92669  15.332   1.997  26.814 -0.0409  0.0597  0.0891
49757W        W92670   3.528  29.036  18.287  0.0248 -0.0903 -0.2202
49758W        W92671  24.627  28.318  24.199  0.4100  0.3563 -0.1600
49759W        W92672   2.071  29.999  25.904 -0.2512  0.2310 -0.2726
49760W        W92673   7.869  28.418  22.278  0.0148 -0.0876  0.0200
49761W        W92674   2.448  31.319  25.289  0.1966  0.1019  0.1155
49762W        W92675   8.443  31.463  16.695  0.0544  0.3157 -0.1003
49763W        W92676   8.991  33.642  24.317  0.1097 -0.3350 -0.4361
49764W        W92677   8.810  33.353  19.233  0.1273 -0.0839  0.2276
49765W        W92678  18.565  34.172  17.298 -0.0897 -0.1295  0.0305
49766W        W92679  12.344  14.508  17.997 -0.0692 -0.1559  0.1930
49767W        W92680  27.361  28.231  18.937 -0.0809  0.1873  0.0712
49768W        W92681  11.863  33.769  19.194 -0.0092 -0.1725 -0.0618
49769W        W92682   8.087  33.794  24.592  0.2416 -0.0436  0.0770
49770W        W92683   4.060  25.553  15.468  0.1590 -0.0077  0.0031
49771W        W92684  19.330  33.094  22.176 -0.1092  0.0759  0.0672
49772W        W92685  33.472   5.641  21.224 -0.1755 -0.0094  0.3590
49773W        W92686   5.572  24.083  23.142 -0.1525  0.0389 -0.2067
49774W        W92687   4.292  24.865  23.204 -0.1261 -0.0624 -0.0980
49775W        W92688   9.764  30.813  18.520 -0.1885  0.0212 -0.1789
49776W        W92689  34.365  34.488  24.209 -0.0080 -0.1669  0.3282
49777W        W92690  13.138   0.883  23.180 -0.0015  0.1736 -0.0215
49778W        W92691   3.894   0.389  23.057 -0.3183 -0.0042 -0.1305
49779W        W92692   5.738  29.563   7.037  0.5291  0.2684 -0.2022
49780W        W92693   8.462  26.248  23.630  0.1208  0.0100 -0.0421
49781W        W92694  18.435  32.485  23.854 -0.1993 -0.1769  0.0416
49782W        W92695   7.063  25.812  28.210  0.0573  0.1222  0.1582
49783W        W92696   7.649  34.236   0.034 -0.0010  0.0113  0.0117
49784W        W92697  14.961  31.990  26.843  0.1520 -0.2249 -0.1453
49785W        W92698  31.816  25.757  22.464 -0.0343  0.0580  0.0613
49786W        W92699   5.547  31.796  19.849  0.0754 -0.1226  0.0537
49787W        W92700   1.271  28.420  20.027  0.2662  0.0801  0.3580
49788W        W92701   5.183  10.973  21.147 -0.0898 -0.1616  0.0704
49789W        W92702   8.125  26.698  15.483 -0.2390 -0.2049  0.2472
49790W        W92703  18.121  22.830  13.813  0.1055 -0.0091 -0.1703
49791W        W92704  10.859  24.642  23.983 -0.1368  0.3393 -0.0329
49792W        W92705  10.450  28.129   0.928  0.0829 -0.3296 -0.3668
49793W        W92706  16.469   2.709  28.452  0.3658  0.2641 -0.0164
49794W        W92707  15.323  27.086  14.796 -0.2580 -0.0961  0.0641
49795W        W92708   6.353  31.207  24.304  0.2412 -0.0202  0.0573
49796W        W92709  16.839  23.883  26.956  0.1138  0.1374  0.0589
49797W        W92710   1.999   9.568  24.520  0.0673 -0.4453  0.0568
49798W        W92711  14.146  26.685  19.081  0.1245 -0.1392 -0.1723
49799W        W92712  15.085  31.151  20.097  0.1056 -0.1648  0.3056
49800W        W92713   5.173  21.535  27.534  0.0365 -0.1976  0.1566
49801W        W92714  21.921  23.397   5.239  0.0889  0.0531 -0.1227
49802W        W92715   8.370  25.462  18.871 -0.1433  0.1193 -0.2145
49803W        W92716  14.128  33.216   6.656 -0.1464  0.0135  0.1840
49804W        W92717  27.681   0.989   1.707  0.2604 -0.0021 -0.0817
49805W        W92718  12.615  33.453  22.944 -0.0516 -0.0503 -0.1180
49806W        W92719   0.924  34.090  26.823  0.0365 -0.0521  0.3120
49807W        W92720   4.460  26.302   0.127  0.3526  0.0595  0.2088
49808W        W92721   9.215  19.116  28.247  0.0699 -0.1930  0.0511
49809W        W92722   7.448  32.765  23.100  0.4096  0.3281 -0.0215
49810W        W92723  20.090  23.445  16.456  0.1031  0.0039  0.1576
49811W        W92724  11.533  22.092  21.524  0.0397  0.0297  0.0314
49812W        W92725  15.126  27.802  22.622  0.0248 -0.1365 -0.1997
49813W        W92726   9.201  32.535  17.719  0.1167 -0.1819 -0.0360
49814W        W92727  13.798  30.058  15.882  0.0160  0.2723  0.0550
49815W        W92728  17.133  34.069  17.994 -0.2647  0.3991  0.3015
49816W        W92729  14.395  33.044  16.798 -0.1435 -0.0359 -0.0347
49817W        W92730   3.549  29.289  15.499  0.2965  0.0057 -0.3648
49818W        W92731   7.885   2.063   6.482 -0.2249 -0.0482 -0.1614
49819W        W92732  30.391  33.632  25.390 -0.1038  0.1302 -0.0454
49820W        W92733  22.568  30.447  22.107 -0.0466  0.0025  0.0302
49821W        W92734   2.758  31.677  18.999 -0.0305 -0.2625 -0.1322
49822W        W92735  12.746  31.803  17.708 -0.2329 -0.4115 -0.2303
49823W        W92736   3.309  25.825   1.488  0.3163  0.3166 -0.1437
49824W        W92737  11.064   4.613  21.841  0.0069  0.0480  0.0365
49825W        W92738   8.432  33.534  23.749  0.1676 -0.0022  0.1307
49826W        W92739  16.523  30.436  23.848  0.1617  0.1486  0.1745
49827W        W92740   7.798  29.008  22.442  0.5888 -0.0417 -0.0844
49828W        W92741  13.754  32.414  15.590 -0.0614 -0.0487 -0.1707
49829W        W92742  15.609  27.402  16.755  0.1125  0.1397  0.1793
49830W        W92743   2.857  23.967  22.454 -0.1613  0.1570 -0.1275
49831W        W92744  17.665   2.868  14.790 -0.3486  0.5171 -0.1298
49832W        W92745   0.098  28.957  23.718 -0.0560  0.2139  0.1291
49833W        W92746  34.029  27.145  20.527  0.0885 -0.3712  0.2371
49834W        W92747  12.384  24.936  16.264  0.0702  0.1106 -0.0137
49835W        W92748   7.230  26.899   8.554 -0.2378 -0.0821  0.1270
49836W        W92749  29.706  32.680  17.918 -0.0592 -0.0867 -0.0006
49837W        W92750   4.288  26.213  23.708 -0.3038  0.2416 -0.2686
49838W        W92751  16.617   5.932  18.571 -0.1093  0.2023  0.3260
49839W        W92752  10.087  20.608   5.131 -0.0086  0.1682 -0.0555
49840W        W92753  17.701  34.238   2.485  0.0545 -0.2186 -0.1365
49841W        W92754  10.329  29.123   1.821 -0.1565 -0.0758 -0.2435
49842W        W92755  14.036   1.120  24.730  0.0708  0.0972 -0.2077
49843W        W92756  13.800  30.117  19.617 -0.1600  0.0024 -0.1310
49844W        W92757  11.254  26.010  20.677  0.2211  0.0292  0.2235
49845W        W92758  11.019  25.077  17.458  0.4363  0.0259  0.0654
49846W        W92759   5.685  33.831  24.827  0.1575 -0.4289 -0.1677
49847W        W92760   7.035  28.974  19.806  0.2095  0.0106 -0.1441
49848W        W92761   5.970  22.329  23.067  0.1202  0.0219 -0.0203
49849W        W92762  12.168  33.479  19.544  0.3199 -0.1987  0.0990
49850W        W92763  14.551  21.976  22.407  0.0680 -0.3775 -0.4831
49851W        W92764   6.331  26.533  20.661  0.1403 -0.1093 -0.0378
49852W        W92765  18.794   6.514  14.708 -0.0517  0.0801  0.2999
49853W        W92766  12.014  29.569  29.556  0.1133  0.0024  0.0913
49854W        W92767   5.570  33.495  19.671 -0.0377 -0.1194  0.2925
49855W        W92768  13.023  23.820  21.944  0.1364  0.3426  0.3064
49856W        W92769  32.506  28.007  14.577  0.1433  0.0334  0.1152
49857W        W92770   0.316  25.965  27.997  0.3330  0.1148 -0.2936
49858W        W92771   3.147  29.407  20.895 -0.0429  0.1491 -0.0715
49859W        W92772  28.121  31.647   3.097 -0.1728 -0.2606  0.2964
49860W        W92773   8.229  21.078  13.597 -0.0093  0.0484 -0.1343
49861W        W92774  11.564  26.807  27.575 -0.1988  0.0347 -0.0376
49862W        W92775   7.688  27.738  24.448  0.0256  0.3106  0.0735
49863W        W92776   9.998  24.746  20.098  0.2047  0.0126 -0.0013
49864W        W92777  22.652   0.777  17.319 -0.2371  0.2003  0.3884
49865W        W92778  32.592  30.087  23.206 -0.1392 -0.2381 -0.0469
49866W        W92779   8.822  21.539  28.803  0.0125  0.0927  0.1598
49867W        W92780   9.872  30.506  20.537 -0.0944 -0.1117  0.0607
49868W        W92781  23.077   1.001  17.467 -0.0890 -0.2642 -0.4066
49869W        W92782  10.307  18.502  22.174 -0.0522  0.1219  0.4711
49870W        W92783  21.767  29.020  18.943  0.5124 -0.3796 -0.1007
49871W        W92784  20.071  29.273  15.592 -0.3146  0.3108  0.0248
49872W        W92785  27.921  31.855  25.489  0.1088 -0.3405 -0.0724
49873W        W92786  11.290  29.707   1.950 -0.0198  0.0902  0.1922
49874W        W92787  18.396  27.408  20.481  0.1391  0.0876  0.0282
49875W        W92788   9.885   1.438  20.112 -0.2202  0.0650  0.0907
49876W        W92789   4.913  16.671  17.948  0.0566 -0.0798  0.0257
49877W        W92790  15.589  15.516  14.610 -0.2688 -0.0924 -0.0539
49878W        W92791   2.121  18.307  18.284 -0.1129 -0.0785  0.0769
49879W        W92792   1.233  25.118   7.780 -0.0678 -0.0337  0.2819
49880W        W92793  13.901  30.627  21.581  0.0295 -0.1798 -0.1777
49881W        W92794  18.376  32.652  18.165  0.1869 -0.0066  0.0639
49882W        W92795   8.043   0.007  19.681 -0.0770  0.1125 -0.1936
49883W        W92796   4.507  21.283  24.888  0.1050 -0.1232 -0.1349
49884W        W92797   4.590   1.023  26.813  0.0528 -0.0089  0.1066
49885W        W92798  16.709  20.803  15.639 -0.0463 -0.0032  0.0972
49886W        W92799  17.554  24.414  23.789 -0.0153 -0.0182 -0.1149
49887W        W92800   6.178  22.962  25.577 -0.0386 -0.0045  0.1715
49888W        W92801  18.130  22.532  19.201  0.0124 -0.1388 -0.0882
49889W        W92802  13.696  32.561  22.083 -0.0879 -0.1559  0.2621
49890W        W92803   6.419  19.704  22.469  0.0299  0.1474 -0.0778
49891W        W92804   3.978  25.293  26.714  0.0989  0.2760 -0.0575
49892W        W92805   6.465   5.253  23.038 -0.2589 -0.0694  0.0488
49893W        W92806   7.479  31.839  23.170  0.1240  0.1615 -0.0791
49894W        W92807   7.267  19.785  16.703  0.1390 -0.1717 -0.0347
49895W        W92808  30.661  28.972  16.968  0.2028 -0.4627 -0.3668
49896W        W92809   7.403  25.766  18.499 -0.3323 -0.2617  0.0111
49897W        W92810  18.788   4.713  24.853 -0.0235 -0.0600 -0.1532
49898W        W92811   5.233  19.098  25.566  0.2185 -0.2342  0.1926
49899W        W92812  11.178  33.571  28.737  0.1609  0.2365  0.3928
49900W        W92813   1.274   4.858  26.047 -0.1017  0.2322 -0.2237
49901W        W92814   9.617   4.579  22.856  0.0199  0.0159 -0.1546
49902W        W92815   6.197  25.626  28.168  0.3670  0.3528 -0.2105
49903W        W92816  14.363  27.256  28.590 -0.0437 -0.0608  0.2142
49904W        W92817   8.914  18.212  24.182 -0.2978  0.1393  0.1787
49905W        W92818   1.381  23.015  19.884  0.2584 -0.2260  0.2340
49906W        W92819  19.302  26.439  20.655 -0.1293  0.0787  0.1195
49907W        W92820   6.040   0.379   0.414 -0.2466 -0.1003  0.2740
49908W        W92821  16.387  24.318  25.694 -0.1597  0.1795  0.0252
49909W        W92822   7.484  14.997  25.404 -0.0549 -0.0278  0.0696
49910W        W92823  19.175  32.978  23.481  0.0298 -0.4394 -0.2353
49911W        W92824  33.313  26.323  22.668 -0.1502 -0.0847  0.0442
49912W        W92825  24.173  27.146  26.734  0.0563 -0.0156  0.5038
49913W        W92826  14.692  28.143   0.670  0.0495 -0.2084 -0.2825
49914W        W92827  20.086  23.415  17.818  0.1608  0.1156  0.1973
49915W        W92828   6.602  25.364  29.240 -0.0060 -0.0821  0.0379
49916W        W92829   6.684   0.920   2.338  0.2254  0.2087  0.1470
49917W        W92830  14.502   3.435  25.674 -0.2509  0.1106 -0.1804
49918W        W92831   8.625  25.297  21.148 -0.2637  0.1257  0.0136
49919W        W92832  22.566  31.409   4.570 -0.0551  0.2296  0.2622
49920W        W92833   6.345  29.269  15.681 -0.0824 -0.0496 -0.3475
49921W        W92834   9.850   2.310  21.340  0.5390 -0.0241 -0.1054
49922W        W92835   5.634  29.685   5.565  0.0443  0.1280  0.1482
49923W        W92836   4.537  29.949  23.041 -0.0364 -0.1688  0.0931
49924W        W92837   7.077  29.056  29.641 -0.1468  0.2619 -0.0373
49925W        W92838  16.854  28.650  25.649  0.0239  0.3327 -0.0450
49926W        W92839  13.069   5.250  28.173 -0.0375 -0.0023 -0.2914
49927W        W92840  12.296  18.568  19.664  0.1296  0.0900 -0.1817
49928W        W92841  12.617  33.584   5.335 -0.0924  0.2291 -0.1470
49929W        W92842  14.526   0.792  17.910 -0.1143 -0.3277  0.0950
49930W        W92843  34.038  30.719  20.089  0.1929  0.0938  0.2496
49931W        W92844  22.809  21.536  17.535  0.0405  0.0092  0.0107
49932W        W92845   5.749  27.931  21.910  0.0672 -0.0032  0.0136
49933W        W92846   7.975  24.270  27.237  0.0021  0.1337  0.3289
49934W        W92847  10.755   6.332  17.037 -0.0478 -0.0819  0.1043
49935W        W92848  25.000   1.975  28.815 -0.1303 -0.2362  0.2197
49936W        W92849   8.324   8.883   2.692  0.0245  0.2197 -0.2870
49937W        W92850   5.924  28.309  19.708  0.0627 -0.0786  0.0313
49938W        W92851  23.554  29.825  24.025 -0.1137  0.0425  0.1195
49939W        W92852   9.684   3.979   1.076  0.0607  0.1157 -0.1262
49940W        W92853   7.465  20.884   7.199 -0.0098 -0.5236  0.0194
49941W        W92854   5.722   0.995  29.032  0.2423  0.2824  0.3529
49942W        W92855  22.121   1.582   8.369 -0.1268  0.3086 -0.1468
49943W        W92856  11.380   1.452  28.144 -0.2638 -0.0776 -0.1503
49944W        W92857  13.885  30.572  24.503  0.0637  0.1716  0.1971
49945W        W92858  10.499  27.853   5.096 -0.1015  0.1525  0.2789
49946W        W92859  11.390   2.680  22.317 -0.1443 -0.0497 -0.1384
49947W        W92860   7.814  30.979  23.520  0.1507 -0.0011  0.0065
49948W        W92861   8.279  30.213  25.057  0.1989  0.0608  0.0330
49949W        W92862   7.668   2.445  22.313 -0.1814 -0.0378  0.1197
49950W        W92863  12.103   1.405  21.778  0.1196 -0.2162 -0.3278
49951W        W92864  14.492  26.150  25.789  0.0620 -0.3084  0.3806
49952W        W92865  33.474  28.778  25.097  0.0627 -0.2732  0.0703
49953W        W92866   3.298  30.731   0.923 -0.1160 -0.1976 -0.1762
49954W        W92867  12.208  32.731   5.090  0.0561  0.1779  0.0275
49955W        W92868   8.708  30.134  16.627  0.2901  0.0293 -0.0204
49956W        W92869  18.059  21.847  29.303  0.0501  0.2544  0.2931
49957W        W92870   3.128  17.691  14.242  0.0419  0.0036 -0.3058
49958W        W92871   2.115   3.712  26.975  0.1129 -0.0215  0.4854
49959W        W92872  13.840   3.884   5.846 -0.0525  0.1413 -0.1804
49960W        W92873  18.948  21.085  12.726 -0.2331  0.2106 -0.0276
49961W        W92874   9.323  30.685  22.124 -0.0596 -0.1807 -0.1210
49962W        W92875   4.937  28.435  25.358  0.0075 -0.0400 -0.0459
49963W        W92876   8.391  30.970  27.560 -0.3085  0.2946  0.3072
49964W        W92877   3.700  29.817  24.460 -0.3587 -0.0043 -0.2164
49965W        W92878  12.757  25.262  10.183  0.2905 -0.1672 -0.0275
49966W        W92879  13.353  25.202  18.650  0.2073 -0.4158 -0.0624
49967W        W92880   7.906  22.860  19.890  0.1802 -0.1319  0.1907
49968W        W92881   6.915  32.601   3.764  0.2199 -0.0530  0.0590
49969W        W92882   2.397  19.697  16.780 -0.0198  0.2932  0.2569
49970W        W92883   8.680   0.579   2.822  0.2606 -0.0272 -0.1599
49971W        W92884  11.792  23.735  21.182 -0.3556  0.0217 -0.3740
49972W        W92885  27.402  20.472  24.859  0.0105  0.1304 -0.0528
49973W        W92886  12.083  24.898  26.131  0.0790  0.1235 -0.2256
49974W        W92887   5.137  24.524  10.807  0.3226 -0.2211  0.0318
49975W        W92888   2.967   4.495  21.570 -0.1714 -0.1385 -0.0205
49976W        W92889  15.717  33.792  23.692 -0.3126  0.5416 -0.1648
49977W        W92890  32.347  32.068  24.270  0.0585  0.0281 -0.0576
49978W        W92891  15.912  30.332  21.091 -0.1919 -0.1607  0.3877
49979W        W92892  10.768  31.018   4.629  0.3273  0.1022  0.1956
49980W        W92893  11.645  27.486  22.965  0.5132 -0.1195 -0.2812
49981W        W92894   9.561   3.174  20.323  0.0034  0.3987 -0.3181
49982W        W92895  11.914  29.401   1.940  0.1222 -0.3104 -0.2118
49983W        W92896  10.935  30.740  27.736  0.2145 -0.2701 -0.2191
49984W        W92897   6.387  25.289  22.719  0.1853  0.1073  0.1499
49985W        W92898  30.520  31.076  24.296  0.1565 -0.0427 -0.4285
49986W        W92899   9.012  25.339  23.415 -0.3114  0.0227  0.0256
49987W        W92900  15.808   3.170   2.006  0.0661 -0.0881  0.0962
49988W        W92901   6.566  29.690  28.483  0.0719  0.0369  0.3283
49989W        W92902   9.466  23.554   2.180 -0.0425  0.3582  0.1347
49990W        W92903   2.030  23.387  19.305  0.2200 -0.1376 -0.1748
49991W        W92904  11.211  32.419   3.516 -0.2102  0.2592  0.0581
49992W        W92905  22.954   0.231  21.719 -0.1990  0.2858 -0.0264
49993W        W92906  12.913  29.820  29.001 -0.0269 -0.0309 -0.0693
49994W        W92907  11.631  29.727   2.293 -0.3692  0.1313 -0.3101
49995W        W92908  33.744  28.367   3.740 -0.3110  0.1815 -0.0517
49996W        W92909   1.433  31.594  24.204  0.1018  0.0874  0.0535
49997W        W92910  14.846  30.251  19.729 -0.1282 -0.1007  0.1365
49998W        W92911  14.494  23.108  16.915 -0.2845 -0.0611  0.0833
49999W        W92912  25.661  23.087  29.279 -0.1870 -0.0577  0.3933
50000W        W92913   3.266  33.362   0.162  0.0716 -0.0344  0.0544
50001W        W92914   2.288  31.200  29.543  0.0809  0.1048 -0.1747
50002W        W92915   9.232  26.739   3.746 -0.0230 -0.1363 -0.0653
50003W        W92916  30.930  26.145  15.531  0.2370 -0.0473 -0.0483
50004W        W92917  14.965  27.187  26.878 -0.3682 -0.1213 -0.2085
50005W        W92918   0.752   8.190  18.387  0.0017  0.0019 -0.1465
50006W        W92919  11.254  25.878  21.509  0.0398 -0.1341 -0.1865
50007W        W92920  18.396  29.847  16.138  0.2844  0.1825  0.0568
50008W        W92921   7.200  28.273  26.665  0.2472 -0.3284  0.1352
50009W        W92922   4.964  29.941  21.910  0.0640  0.1667  0.2141
50010W        W92923  16.086  22.192  13.123 -0.1256  0.0565  0.0686
50011W        W92924   3.837  14.222  23.298  0.1298 -0.2707  0.1757
50012W        W92925  32.146  33.239   5.647  0.0720  0.1233 -0.1763
50013W        W92926  21.254  22.504   7.747 -0.0480 -0.2933 -0.0075
50014W        W92927  11.116  22.171  20.178 -0.2509 -0.0788 -0.1885
50015W        W92928   0.897  22.813  19.639 -0.0674 -0.1129 -0.1382
50016W        W92929   5.193  21.659  26.789  0.0386  0.1026  0.3596
50017W        W92930   9.452  27.236  20.930 -0.3625 -0.0674 -0.3866
50018W        W92931   7.411  17.098  14.601  0.0304 -0.1717 -0.1322
50019W        W92932  13.287  32.384  11.140 -0.1130  0.0298  0.0289
50020W        W92933  14.889   2.390   9.063  0.0011 -0.3484  0.0838
50021W        W92934   2.707  19.243  21.426 -0.3718  0.4017 -0.1510
50022W        W92935   9.762   0.898   5.873  0.2502  0.0524  0.1851
50023W        W92936  18.953  28.177  20.417  0.4623 -0.1980 -0.1105
50024W        W92937   6.196   0.601   7.294  0.0809  0.2691  0.1107
50025W        W92938   5.170  28.807  29.736  0.1605 -0.0117 -0.1574
50026W        W92939   9.768   1.938  25.078  0.2820  0.1018 -0.0070
50027W        W92940  14.130  29.700  20.279  0.1283 -0.0378  0.0240
50028W        W92941   8.621  30.445   5.546 -0.0311 -0.1058 -0.0077
50029W        W92942  11.107  25.350  19.870 -0.3105  0.1985  0.0727
50030W        W92943  20.092  32.851  28.362  0.5724  0.1233  0.3673
50031W        W92944  13.199  27.203  23.427 -0.2815  0.4346  0.1044
50032W        W92945  14.000  29.140  18.856 -0.2783  0.3241  0.4774
50033W        W92946   8.207  24.822  14.696  0.1037 -0.2278  0.0612
50034W        W92947   2.630  28.633  22.895 -0.0483 -0.0822 -0.0492
50035W        W92948   7.047  27.617  25.066  0.0956 -0.1602 -0.0223
50036W        W92949   2.080  23.409  21.148 -0.0856 -0.4119  0.0711
50037W        W92950  17.529  29.160  16.152  0.0379  0.0038 -0.2373
50038W        W92951   9.475  34.416   0.087  0.0721  0.0275  0.1489
50039W        W92952  34.245  28.574   3.887 -0.2566 -0.0175  0.0244
50040W        W92953  33.360  11.826  17.946  0.2148  0.0671 -0.5792
50041W        W92954  13.599  26.203  26.168 -0.0128  0.0393  0.1066
50042W        W92955  34.348  29.719  20.703  0.2229 -0.4809  0.0185
50043W        W92956   7.251  26.236   4.846  0.1444  0.2955  0.1033
50044W        W92957  17.649  20.949  11.994 -0.3292 -0.0767  0.0576
50045W        W92958  13.954   0.135  19.445  0.1522 -0.4089  0.1808
50046W        W92959  33.520  32.252   0.058 -0.2614 -0.1212 -0.2397
50047W        W92960   8.150  25.569  22.958  0.2301  0.0854 -0.3361
50048W        W92961  30.222  32.747  19.180 -0.0050 -0.0117  0.2864
50049W        W92962   9.185  13.542  21.541 -0.1265 -0.0320  0.2018
50050W        W92963   2.332  24.708  29.115 -0.1911 -0.0801 -0.3656
50051W        W92964   8.340  23.542  20.048  0.0249 -0.3476  0.0665
50052W        W92965  19.409  27.127  13.888  0.0739 -0.2240 -0.0247
50053W        W92966   5.704  25.673  17.217  0.0322 -0.2304  0.1787
50054W        W92967  14.822  30.653  26.133  0.6121 -0.0354  0.0737
50055W        W92968  30.981  27.950   2.869  0.0703  0.2155 -0.1098
50056W        W92969   6.190  16.810  21.315 -0.0338  0.0209 -0.0398
50057W        W92970  11.742  32.774   0.266  0.1425  0.0305  0.1991
50058W        W92971   4.933  24.270  20.745 -0.3853 -0.0672  0.1274
50059W        W92972   2.334  33.817  18.411  0.3306 -0.3584 -0.0451
50060W        W92973  17.901   0.531  18.689  0.0332 -0.2971  0.1205
50061W        W92974  12.594  19.787  18.544 -0.2530 -0.2318 -0.1485
50062W        W92975  17.585  24.589  26.943  0.0980 -0.1503 -0.0359
50063W        W92976   3.129  33.282  20.260 -0.2179 -0.0573  0.0239
50064W        W92977  16.939  28.287  23.408  0.3047  0.1757 -0.1600
50065W        W92978  10.552   1.581   0.466  0.0229  0.3407  0.0545
50066W        W92979   6.664  25.076   3.010  0.1620 -0.3597 -0.2013
50067W        W92980   9.339  26.935  19.950 -0.0966 -0.1140  0.0660
50068W        W92981   0.311   4.457   5.989  0.1172  0.1514 -0.1108
50069W        W92982  13.679  17.807  15.013 -0.1246  0.2640  0.0460
50070W        W92983   6.805  23.333   0.603  0.1177  0.1815  0.5072
50071W        W92984  13.227  25.953  26.459 -0.5648  0.1651 -0.2474
50072W        W92985  20.318   2.165  14.318  0.2332  0.0161 -0.0892
50073W        W92986   2.997  25.070  23.681 -0.0907  0.0412 -0.0458
50074W        W92987   9.517  29.809  22.598 -0.3287  0.1231 -0.3018
50075W        W92988  22.382  28.237  14.794 -0.1503  0.0773  0.0651
50076W        W92989   9.931  27.724   7.647 -0.0540  0.1789 -0.0937
50077W        W92990  19.900  29.437  18.793 -0.2066 -0.0979  0.0589
50078W        W92991   3.072  21.227   9.049  0.1053 -0.0866 -0.2297
50079W        W92992  10.234  24.615  23.056 -0.2994 -0.1620  0.2067
50080W        W92993   7.939  33.452  20.723 -0.0224 -0.0440  0.1925
50081W        W92994  10.428  21.563  16.949  0.3064  0.0402  0.0670
50082W        W92995   6.684  29.738  26.689  0.6233 -0.2314  0.1033
50083W        W92996   4.065   2.386  28.718 -0.1106 -0.0060 -0.0954
50084W        W92997  13.256  24.243  29.747  0.1282 -0.1977 -0.0054
50085W        W92998  29.774  29.093  26.407 -0.1447  0.3664  0.4015
50086W        W92999  10.273  33.465  22.068  0.0435 -0.1743  0.2294
50087W        W93000  10.016   4.381   5.556  0.1984 -0.0828  0.0870
50088W        W93001  17.031  33.894  22.485  0.2787  0.3436  0.0192
50089W        W93002   9.104  30.030  29.533 -0.1759 -0.0215  0.0526
50090W        W93003   8.811  25.006  22.164  0.1188  0.3175 -0.2566
50091W        W93004  16.001  21.866  23.865  0.1798 -0.1712  0.3248
50092W        W93005  13.193  31.214  26.718 -0.0471 -0.1237 -0.0272
50093W        W93006   2.315  16.055  28.029  0.0983  0.1932 -0.1488
50094W        W93007   1.668  27.764  25.130  0.0385 -0.1202 -0.1202
50095W        W93008  22.635  30.764  21.101 -0.0531  0.0089 -0.0111
50096W        W93009  26.125  29.660  20.577 -0.2223  0.1907  0.2451
50097W        W93010   1.704  29.339  28.551 -0.0947  0.2501 -0.1466
50098W        W93011   3.194  24.047  24.944  0.2802 -0.0279 -0.0684
50099W        W93012   4.004  33.326  23.088  0.2416 -0.1229 -0.0599
50100W        W93013  12.592  28.411  17.811  0.0690  0.1095  0.0186
50101W        W93014  13.213  19.632  26.679 -0.2041 -0.0182  0.4648
50102W        W93015  10.531  24.730  28.337 -0.2114  0.0729 -0.0722
50103W        W93016  10.019  30.095  21.533 -0.0794  0.3751 -0.2615
50104W        W93017   5.432  24.308  26.345  0.2504 -0.3071 -0.0264
50105W        W93018  33.738  30.044  21.424 -0.0663 -0.0699 -0.2605
50106W        W93019   3.838  18.415  14.049 -0.0556 -0.0943  0.1095
50107W        W93020   6.433  30.591  15.619  0.0139 -0.1965 -0.2908
50108W        W93021  29.351  28.049   4.210  0.1629 -0.0135  0.0564
50109W        W93022  22.400  29.575  13.048 -0.3662  0.1908  0.1501
50110W        W93023  32.520  32.023   4.640  0.0651 -0.3643 -0.1472
50111W        W93024   3.539  26.638  26.476 -0.2843 -0.0371  0.2771
50112W        W93025  12.340  31.392  29.673 -0.1404 -0.0402 -0.0813
50113W        W93026  16.728  23.073  16.516  0.0205 -0.0069  0.2302
50114W        W93027   2.947  27.611  19.640  0.0474 -0.1147  0.5023
50115W        W93028  10.033  32.847  19.903  0.1061 -0.2655  0.0010
50116W        W93029   7.643  22.938  20.422  0.0213 -0.0831  0.3356
50117W        W93030   1.332  31.526  23.708 -0.0592 -0.3746  0.1797
50118W        W93031   6.330  34.037  23.756  0.1973 -0.1522  0.0891
50119W        W93032  30.487  28.944  25.999 -0.1368 -0.1601 -0.0144
50120W        W93033  31.447  23.944  17.076 -0.3655 -0.0887  0.1498
50121W        W93034  19.351   7.786   8.390 -0.0189  0.0073 -0.0736
50122W        W93035   9.033  28.660  24.093 -0.2351 -0.0049 -0.2673
50123W        W93036   1.706   4.942  25.151 -0.2124  0.1228  0.2881
50124W        W93037   9.288   1.221  17.262 -0.1408  0.1254  0.0882
50125W        W93038  14.127  30.071  19.147 -0.2373 -0.1325  0.0352
50126W        W93039  12.394  20.439  26.235  0.1233 -0.1547  0.0083
50127W        W93040   3.305  30.562  20.430  0.2459 -0.1315 -0.2307
50128W        W93041  23.824  11.700  19.573 -0.0863  0.2264 -0.2477
50129W        W93042   6.966  21.126   7.103 -0.0290  0.2821  0.1389
50130W        W93043   3.549  21.361  19.841 -0.3343 -0.5016  0.0285
50131W        W93044  12.106  27.323  18.918 -0.2362  0.1042  0.1031
50132W        W93045   8.221  19.991   4.953  0.0061 -0.0851  0.0253
50133W        W93046   8.147   2.183  22.291 -0.2822  0.1842  0.1330
50134W        W93047   9.456  25.546  28.415 -0.0723  0.3617 -0.1545
50135W        W93048  17.608  23.587  23.532  0.3877  0.1391  0.1840
50136W        W93049  15.498  25.798   5.627  0.1211  0.0501  0.1697
50137W        W93050  25.386  27.822  27.209 -0.0283 -0.1274 -0.3049
50138W        W93051  21.662  24.087  26.731 -0.0980 -0.1272 -0.3147
50139W        W93052   2.321   0.483  26.366  0.1856 -0.1624 -0.2285
50140W        W93053  14.052  18.977  26.949  0.4533  0.0554  0.2404
50141W        W93054  13.245  22.264  14.394  0.2361  0.0404 -0.0355
50142W        W93055  17.629  33.495  28.056  0.2312  0.2655 -0.2961
50143W        W93056  23.148  29.505  17.024  0.0715  0.0514  0.1020
50144W        W93057   9.553   6.298  24.103  0.4061  0.0080 -0.2445
50145W        W93058  16.145  26.348  20.553  0.0279  0.1597 -0.2651
50146W        W93059  13.538  26.386  25.662  0.1272  0.0698 -0.0172
50147W        W93060  24.554  10.294  29.450  0.0911  0.1950 -0.0438
50148W        W93061  13.459  15.079  20.886 -0.2371  0.1441 -0.0354
50149W        W93062   4.817  28.090  25.723 -0.1279  0.3761 -0.2690
50150W        W93063  12.976   1.338  23.288  0.0567 -0.2677  0.3393
50151W        W93064  27.258   2.782  17.214 -0.0892  0.1143  0.1148
50152W        W93065   0.390  34.466  24.299 -0.0362 -0.0871 -0.1687
50153W        W93066   1.509  28.677  24.220  0.1076  0.1568  0.1583
50154W        W93067   4.455  18.506   2.197 -0.2666  0.0189  0.1344
50155W        W93068  29.317  30.799  21.516  0.0601  0.3311 -0.1849
50156W        W93069   3.730   1.496  26.932  0.3803  0.1729 -0.4707
50157W        W93070  14.494  23.013  22.147  0.0557 -0.3459  0.1055
50158W        W93071  33.612  15.530  21.299 -0.0421  0.2466  0.0195
50159W        W93072  20.971  23.974  23.330  0.0196  0.1067  0.2288
50160W        W93073   8.178  32.462   1.104  0.1309  0.3315  0.0070
50161W        W93074  13.550  30.301  22.288  0.0613 -0.2046  0.1778
50162W        W93075  22.543  33.705  27.205 -0.1625  0.2389  0.1719
50163W        W93076   1.679   6.065  26.114 -0.0047 -0.0546 -0.0945
50164W        W93077  14.739  24.126  18.836  0.0965 -0.0405  0.1873
50165W        W93078  19.166  30.497  24.092  0.1461 -0.2638 -0.0457
50166W        W93079  11.254  30.528  22.253 -0.3503  0.3706 -0.2978
50167W        W93080  15.430  33.827  28.781 -0.0280  0.0418  0.2996
50168W        W93081   1.553  28.889  20.280  0.0255  0.0352 -0.0356
50169W        W93082  16.896   6.004  28.710 -0.0185  0.0393  0.1248
50170W        W93083   2.801  28.759  27.257 -0.3786 -0.3698 -0.3718
50171W        W93084  18.059  32.316  17.988 -0.0605  0.0954 -0.1474
50172W        W93085  11.913  31.395  19.492  0.0414 -0.0303 -0.1834
50173W        W93086   3.085  20.794  18.437 -0.3499  0.2601 -0.1555
50174W        W93087   0.523  27.898  24.777  0.1123  0.1625  0.2564
50175W        W93088   7.235  31.222  25.283 -0.2507 -0.2138  0.0129
50176W        W93089   5.299  31.602  15.706  0.1758 -0.0927  0.1237
50177W        W93090   9.696  30.728  29.202  0.2263 -0.4844 -0.3019
50178W        W93091   6.308  33.988  26.050 -0.2272  0.1469 -0.2153
50179W        W93092  10.811  30.780  23.105 -0.0875  0.0393 -0.1740
50180W        W93093   2.576  32.373  27.377 -0.1061  0.2341 -0.1365
50181W        W93094  21.314  28.554  20.775  0.1369  0.3233  0.1026
50182W        W93095   9.873  31.783  22.487  0.2384 -0.1720  0.1554
50183W        W93096   0.293  29.720  26.039 -0.2745 -0.2320 -0.1686
50184W        W93097  10.552  26.371  18.061 -0.1502 -0.1792 -0.2477
50185W        W93098  31.476   7.058  25.616 -0.0877 -0.1518 -0.1044
50186W        W93099  10.890   0.421  24.844 -0.1887 -0.0542  0.3608
50187W        W93100   7.979  32.208   0.016  0.0243  0.0503 -0.1552
50188W        W93101  19.755   4.285  21.333  0.2738  0.0303 -0.2582
50189W        W93102  15.471  30.467  17.754 -0.2364 -0.0708 -0.2869
50190W        W93103  14.827   2.984  15.739  0.0883 -0.0198  0.1497
50191W        W93104   1.100  28.436  27.613 -0.1212  0.1207  0.0210
50192W        W93105  22.007   7.983  24.413 -0.1579 -0.1985 -0.0132
50193W        W93106  19.360  24.640  20.523 -0.2312  0.2173  0.2108
50194W        W93107   7.056  27.758  22.019 -0.0554 -0.0527  0.1471
50195W        W93108   5.775  24.379   5.203  0.1277  0.1507 -0.0154
50196W        W93109  13.088  28.260  22.908  0.3164 -0.3313  0.2295
50197W        W93110   9.700  16.840  15.725 -0.0764 -0.0908  0.2463
50198W        W93111  17.774  33.804  26.456 -0.1008  0.1520  0.0565
50199W        W93112   8.875   1.870  23.582 -0.0216  0.1598  0.2181
50200W        W93113   8.031  33.846   0.232 -0.1864  0.3415 -0.1695
50201W        W93114   5.240   8.578  17.549  0.1906  0.1278  0.0281
50202W        W93115  10.200  27.252   0.364 -0.2185 -0.0763  0.1819
50203W        W93116  15.530  27.767  21.024 -0.1484  0.0344 -0.0982
50204W        W93117  10.479  25.882   4.657  0.1539  0.0444  0.1526
50205W        W93118   4.357  18.754  23.598  0.1577 -0.2409  0.2177
50206W        W93119   0.767   1.548   0.897  0.1100  0.1355  0.3577
50207W        W93120  20.614   2.847  27.658 -0.1923  0.1143  0.2183
50208W        W93121  19.052  16.334   3.858 -0.1127 -0.1997  0.0664
50209W        W93122   2.850  33.812  25.922 -0.2884  0.0276 -0.0293
50210W        W93123   8.548  17.339  21.294 -0.1225 -0.5020 -0.2084
50211W        W93124  32.719  28.026  28.362  0.2027 -0.1965  0.2062
50212W        W93125  12.292  22.990  19.697 -0.0193  0.2257  0.2819
50213W        W93126   5.760   5.026   8.814  0.1145 -0.2420  0.2701
50214W        W93127  30.859   3.911   4.437  0.0548 -0.0218  0.0915
50215W        W93128   4.689   2.369  17.865  0.2352  0.0176 -0.0324
50216W        W93129   3.672  30.570  25.305  0.3522 -0.3507  0.1743
50217W        W93130   3.031  21.233  24.697  0.1195 -0.0492 -0.0002
50218W        W93131   0.698  32.768  17.319  0.0569  0.0992  0.0119
50219W        W93132  10.500   6.288  26.959  0.1567 -0.0507 -0.0676
50220W        W93133  14.705  27.568  20.579 -0.0012  0.1179  0.0213
50221W        W93134   9.219  26.339  28.656  0.0273 -0.1046  0.1230
50222W        W93135  13.104  32.031  25.628 -0.3283  0.1336 -0.1668
50223W        W93136   1.881  22.132  20.855  0.6648  0.3432 -0.3346
50224W        W93137   5.576   2.994  27.722  0.1080 -0.0544 -0.2132
50225W        W93138   6.642  23.665  19.294 -0.4074  0.0481  0.5546
50226W        W93139  14.922  33.998  28.566  0.1187  0.1211  0.0875
50227W        W93140   3.919  14.603  24.986  0.1404 -0.0838 -0.1592
50228W        W93141  13.175  25.870  27.476 -0.0734  0.1606 -0.0804
50229W        W93142   6.078   6.086  28.874 -0.0876  0.1039 -0.0689
50230W        W93143   5.072   8.369  23.599 -0.0440  0.0841  0.2394
50231W        W93144  15.260  30.697  17.102 -0.0627  0.3204 -0.0545
50232W        W93145   7.576  23.896  18.997  0.1203 -0.3970  0.3035
50233W        W93146  33.243  25.095  18.144 -0.1591  0.1076 -0.0563
50234W        W93147   9.842  16.091   4.753  0.3244 -0.2273 -0.0092
50235W        W93148   9.928  24.502   4.529 -0.4583  0.1437 -0.0514
50236W        W93149  11.833  25.943  21.629 -0.2588  0.3052 -0.0551
50237W        W93150  14.645   2.143  16.457  0.0344  0.1548  0.0834
50238W        W93151   9.057   1.303  21.220 -0.1380 -0.0977 -0.3400
50239W        W93152  17.204  28.617  23.075 -0.2581 -0.0804  0.0288
50240W        W93153  15.348  24.033  14.390 -0.0989  0.1175 -0.3367
50241W        W93154  17.517   5.022  24.789 -0.0033  0.1185  0.0119
50242W        W93155  14.085  16.518  17.304 -0.0163  0.4100 -0.1568
50243W        W93156  16.326  18.257  22.924  0.0894 -0.1949 -0.0700
50244W        W93157  28.509  23.714  21.994 -0.0806  0.1269  0.3863
50245W        W93158   7.874  22.549  21.599 -0.0069 -0.0600  0.0581
50246W        W93159   5.160  19.025  29.320 -0.1305 -0.2640 -0.2369
50247W        W93160   8.281   0.897  28.401 -0.0314 -0.0285  0.0966
50248W        W93161   2.835  15.545  14.990  0.0617  0.0930 -0.1287
50249W        W93162   3.963  23.341  20.831 -0.0599  0.0624 -0.1646
50250W        W93163  17.746  14.816   0.163 -0.0265 -0.0982  0.0405
50251W        W93164  14.227  12.772  21.577 -0.0617 -0.1543  0.0659
50252W        W93165  18.677   0.125  18.603 -0.0595  0.0212 -0.1374
50253W        W93166   7.989  30.374  28.005  0.1267 -0.0692 -0.6166
50254W        W93167  11.066  19.499  22.256  0.0791  0.3990 -0.1557
50255W        W93168  18.054  24.088  15.473 -0.0679 -0.0118 -0.1495
50256W        W93169   8.468  22.342  19.314 -0.1047  0.0514 -0.0360
50257W        W93170  33.813   0.079   3.609 -0.0802  0.1525 -0.3954
50258W        W93171  12.665  31.139  19.999 -0.0166 -0.1042 -0.0117
50259W        W93172   9.835  26.382  25.796  0.2103 -0.3063 -0.1131
50260W        W93173   0.110  26.877  19.707 -0.2954 -0.0672 -0.0050
50261W        W93174  16.189  30.604   1.312  0.0866 -0.1866 -0.0957
50262W        W93175  15.102  28.990  29.505 -0.0376  0.1217  0.2670
50263W        W93176  18.064  28.407  24.225 -0.1427  0.1223 -0.0755
50264W        W93177   8.099  22.880   3.433  0.1693  0.1952 -0.1691
50265W        W93178  12.984  30.526  15.895  0.1496  0.2546  0.3832
50266W        W93179   7.941  13.356  28.797 -0.3213 -0.1193  0.0463
50267W        W93180   2.773  28.197  22.679 -0.0335 -0.0795  0.0813
50268W        W93181  18.784   2.968  26.982 -0.0863 -0.1309  0.3885
50269W        W93182   6.118  18.996  16.538  0.1981 -0.1851 -0.0754
50270W        W93183  17.811  31.327   0.976  0.2036  0.1877  0.1614
50271W        W93184   4.916  22.345  22.905  0.3850  0.0561 -0.0003
50272W        W93185  33.827  25.055  27.675 -0.2085 -0.0289  0.3272
50273W        W93186  11.103  33.778  21.128 -0.0607 -0.0859  0.0101
50274W        W93187  19.394  33.099  26.630 -0.2191 -0.0786  0.0345
50275W        W93188  27.056  22.365  24.648 -0.2641 -0.0211 -0.0039
50276W        W93189   6.495  22.421   5.289  0.1950  0.0617 -0.2594
50277W        W93190   5.855  24.605  26.372  0.3391 -0.1281 -0.0048
50278W        W93191  14.809  25.988   0.667 -0.1476 -0.0304  0.0778
50279W        W93192  23.682   5.363  28.142 -0.0679  0.2151 -0.1918
50280W        W93193  19.795  21.719  24.980  0.1556 -0.0458 -0.0127
50281W        W93194   9.371  24.871  25.412  0.0575 -0.0315  0.1271
50282W        W93195  17.294  25.633  24.405  0.1380  0.3557 -0.0157
50283W        W93196  33.747  33.532  26.166  0.2036 -0.2979 -0.0586
50284W        W93197  18.263  30.989   8.234 -0.0599  0.2392 -0.0761
50285W        W93198  19.755  19.509   6.359 -0.2189  0.1375  0.3247
50286W        W93199   4.057  31.627   4.157  0.1475  0.0540  0.1600
50287W        W93200  34.066  22.770   1.728  0.1692 -0.0046 -0.0955
50288W        W93201   8.676  31.692  19.503  0.0759  0.3338  0.4017
50289W        W93202   9.766  17.639  19.870 -0.1743 -0.4438  0.0517
50290W        W93203   9.996  28.659   2.967 -0.2872  0.0713 -0.4383
50291W        W93204  13.310  25.351   1.468  0.2968  0.1560 -0.4239
50292W        W93205   3.643  27.910   1.565 -0.1187 -0.0340 -0.2030
50293W        W93206   6.920  25.377  28.854  0.1857  0.2391 -0.1261
50294W        W93207  31.653  30.500  22.881 -0.1125  0.2020 -0.0250
50295W        W93208  31.986   0.122   1.677  0.3875  0.0363  0.0087
50296W        W93209  32.839  30.152   2.405 -0.1087  0.2451  0.1136
50297W        W93210   9.413  20.825  25.318  0.0541  0.0691 -0.0740
50298W        W93211   6.350  29.404  16.271  0.0020  0.1196 -0.3170
50299W        W93212   4.467  24.556  27.123 -0.1180  0.0580 -0.0024
50300W        W93213   6.532  31.629  16.982  0.0046 -0.0146  0.0925
50301W        W93214   5.729   8.040  22.981 -0.2354  0.2780 -0.0224
50302W        W93215   1.811  29.476   8.145 -0.2265 -0.2415 -0.2622
50303W        W93216   5.267  23.575  21.377 -0.2286  0.0120  0.3229
50304W        W93217   5.069  17.688  19.571 -0.2251 -0.1481 -0.0324
50305W        W93218  25.877  23.035   0.419 -0.1335 -0.0006 -0.1389
50306W        W93219   3.794  19.292   4.948 -0.0486 -0.1135 -0.0771
50307W        W93220   3.794  26.871  18.625  0.2158 -0.1105  0.1287
50308W        W93221   7.640  19.038   7.966  0.1030 -0.3716 -0.2019
50309W        W93222  10.468   1.944  17.610  0.4032  0.0667 -0.1325
50310W        W93223  17.944  20.903  28.397  0.2980  0.3431  0.1571
50311W        W93224  17.157  26.274   3.666  0.0074  0.1190  0.2646
50312W        W93225   2.816  31.715  29.202 -0.0814  0.2926 -0.1983
50313W        W93226  12.478   7.475  27.350 -0.1510 -0.0697 -0.0625
50314W        W93227  33.061  32.525  21.737 -0.1468 -0.0032 -0.3039
50315W        W93228   1.659  30.253   9.475  0.2562 -0.3027 -0.0814
50316W        W93229   5.584  29.460   8.940  0.1170  0.1111  0.0424
50317W        W93230  10.114  25.322  20.962  0.2097  0.2113 -0.0629
50318W        W93231   5.381   2.116  27.071 -0.0541  0.1848  0.0416
50319W        W93232  12.503  32.997  28.265  0.2600 -0.0417 -0.0966
50320W        W93233   4.628  34.383  24.566  0.0969 -0.0358  0.2957
50321W        W93234  29.377   0.257  25.410 -0.2863  0.4327 -0.2146
50322W        W93235   2.612  30.250  10.663  0.2036  0.0567  0.0247
50323W        W93236   4.012   4.316  27.891  0.3648  0.1825  0.2588
50324W        W93237   9.045  24.755  27.527  0.0263 -0.0970  0.0472
50325W        W93238  19.068  30.538   2.035 -0.3427  0.0232 -0.1592
50326W        W93239  13.812  28.758  26.958 -0.1268 -0.1017  0.0381
50327W        W93240   9.561  32.290  27.102  0.2777 -0.0430 -0.0346
50328W        W93241  29.330   0.426  23.815  0.0160 -0.0471 -0.0903
50329W        W93242  22.754  28.158  28.222 -0.0276 -0.1430  0.1289
50330W        W93243  12.937   8.077  24.848 -0.0466 -0.1580  0.0625
50331W        W93244   9.815  29.561   1.164  0.1048 -0.2655 -0.0260
50332W        W93245  15.117   4.143   6.315 -0.1533  0.1918  0.1999
50333W        W93246  17.828  29.840  17.616 -0.2680  0.0256  0.3098
50334W        W93247  30.876  28.782   4.469 -0.0076  0.0238 -0.2415
50335W        W93248  10.401  32.176  17.139 -0.0957  0.1554  0.1930
50336W        W93249   2.054  20.613  29.059 -0.2265  0.1421 -0.0001
50337W        W93250  14.663  16.875  28.755  0.2345 -0.0624 -0.1178
50338W        W93251   2.315  22.731  21.445  0.0993  0.2117  0.1196
50339W        W93252   1.853  29.162   1.921 -0.0326 -0.2466 -0.2936
50340W        W93253  14.611  29.122  24.457 -0.1092  0.4795  0.1013
50341W        W93254  16.668  33.351  23.602 -0.4610 -0.0396  0.2804
50342W        W93255   7.336  19.197  15.171 -0.0655  0.1307 -0.0771
50343W        W93256  19.181  28.060  16.695 -0.1200 -0.2001  0.1301
50344W        W93257  10.069  21.616  18.437  0.1063 -0.0162  0.4374
50345W        W93258  18.156   5.899  25.388 -0.1828  0.0394 -0.0454
50346W        W93259  34.456   5.309   2.647 -0.0893 -0.2627  0.0889
50347W        W93260   8.094  31.445  20.866  0.1162 -0.1912 -0.2203
50348W        W93261  11.328  22.597  28.440 -0.1026  0.1665 -0.1155
50349W        W93262  17.568  29.326  29.463 -0.0244 -0.1200 -0.0630
50350W        W93263   7.307  25.161   9.460  0.0600 -0.0152  0.1330
50351W        W93264  17.641  32.090   0.392  0.3923 -0.1862 -0.3168
50352W        W93265   7.417  29.134   3.900 -0.0219  0.1289 -0.0072
50353W        W93266   3.081  31.405  26.026  0.1546 -0.1913 -0.0321
50354W        W93267  10.860  15.948   1.320  0.0927 -0.2556  0.0533
50355W        W93268   3.323  23.637  28.376  0.1573 -0.3509  0.4108
50356W        W93269  17.862  28.047  22.432  0.1235 -0.4786 -0.0681
50357W        W93270   9.371  23.617  29.006  0.0771  0.1372  0.0416
50358W        W93271   8.040   8.131  26.506  0.0214  0.0746 -0.0603
50359W        W93272   9.094  26.174  23.724  0.0209  0.0047  0.2418
50360W        W93273   5.843  30.134   9.569 -0.0886 -0.3460 -0.0475
50361W        W93274  13.987  20.537  27.415 -0.3935  0.1134  0.4199
50362W        W93275   9.708  32.590   3.418  0.1254 -0.1578 -0.1600
50363W        W93276   2.767  22.132  26.434 -0.1461  0.0936 -0.0953
50364W        W93277  28.399   1.832   2.001  0.1436  0.2450 -0.0611
50365W        W93278  32.863   1.173   9.358 -0.0032 -0.1780 -0.4281
50366W        W93279  13.672  30.992  21.794 -0.0226  0.1069 -0.2787
50367W        W93280   8.451  30.165  11.929 -0.0247 -0.0499  0.2533
50368W        W93281  29.612  30.144   4.285  0.0595 -0.4561  0.1892
50369W        W93282   9.152  26.043  26.549 -0.0710  0.2859  0.0252
50370W        W93283   9.566  31.708  26.931 -0.0413  0.0051  0.0668
50371W        W93284   3.429  27.720  29.581  0.0780 -0.1676 -0.1570
50372W        W93285   0.583  26.417  23.338 -0.3246 -0.0615 -0.0545
50373W        W93286   0.742  32.902  22.686 -0.0157 -0.3322  0.2077
50374W        W93287   9.575  25.389  21.109  0.1660 -0.1335 -0.4750
50375W        W93288   6.428  34.012  28.989 -0.3581 -0.0465  0.0948
50376W        W93289  11.930   4.952   5.651 -0.0701  0.2882  0.1826
50377W        W93290  10.988  32.543  26.008 -0.0312 -0.0102 -0.2399
50378W        W93291   6.935  25.257  17.683  0.2111 -0.0065  0.1374
50379W        W93292  11.212  27.766   7.740 -0.0495 -0.1296 -0.0933
50380W        W93293   0.885  29.993   5.855  0.1056 -0.1747 -0.0581
50381W        W93294   3.780  18.113  29.094  0.1110 -0.2033 -0.1053
50382W        W93295   4.525  29.528   4.479 -0.1408  0.2234 -0.2013
50383W        W93296  12.171  29.605   2.353 -0.3506  0.1151 -0.4648
50384W        W93297   8.239  23.257  19.186 -0.1336  0.0542  0.1499
50385W        W93298   0.671  26.354   0.231  0.0727  0.2117  0.1843
50386W        W93299   3.353  31.624  20.682 -0.1366  0.1954  0.0251
50387W        W93300   9.412  23.193  23.065 -0.1673 -0.0742  0.3608
50388W        W93301  10.513  26.146  26.994 -0.0833 -0.0837 -0.0509
50389W        W93302  11.231  23.429  28.860 -0.2781 -0.1008  0.2507
50390W        W93303   4.049   1.003   0.628 -0.1679 -0.0387  0.0620
50391W        W93304   7.937  26.899  24.806 -0.2880 -0.1783  0.3840
50392W        W93305  17.047  23.327  21.602 -0.1983 -0.0155 -0.4260
50393W        W93306  11.333  27.611  21.973 -0.0524  0.1900  0.1498
50394W        W93307   1.564  26.333  26.507 -0.0682 -0.1568  0.2752
50395W        W93308  11.606  28.693  26.691 -0.2133  0.1152 -0.0092
50396W        W93309  17.542  32.349  27.246  0.1881 -0.2429  0.0649
50397W        W93310   4.465  23.447  26.090  0.2646 -0.0190 -0.2532
50398W        W93311  12.705  25.004   4.118 -0.0023  0.1667 -0.1069
50399W        W93312   1.564  34.410  23.079  0.1299 -0.0544 -0.0586
50400W        W93313   7.907  27.278  26.316  0.0772 -0.0622  0.1875
50401W        W93314   5.978  33.132   3.759  0.1636  0.1677 -0.0121
50402W        W93315   9.868  30.182  28.339  0.0697  0.0061  0.1886
50403W        W93316   8.137  25.987   1.887 -0.3682  0.1712  0.1913
50404W        W93317  20.010   7.805  24.952  0.1353  0.0353 -0.1263
50405W        W93318   6.506  26.967  28.930 -0.0721  0.0919  0.2580
50406W        W93319   1.484  33.951  29.206  0.1010  0.2596 -0.0765
50407W        W93320   0.431  28.309   7.708 -0.0358 -0.1095 -0.0693
50408W        W93321  13.545  17.645  16.641  0.1298  0.4899 -0.1727
50409W        W93322  30.961   4.019   2.026  0.1354  0.0324  0.0710
50410W        W93323   5.063   2.049  28.498 -0.1742 -0.0264 -0.0468
50411W        W93324  13.544  22.097   5.605  0.0431 -0.2172 -0.2062
50412W        W93325  14.349  24.033  28.827 -0.1122 -0.1297 -0.0319
50413W        W93326   8.639  29.696  25.046  0.1559 -0.1661 -0.0162
50414W        W93327  16.130  24.244   5.636  0.2486 -0.0138  0.2866
50415W        W93328   9.802  25.549  27.061 -0.0421  0.0080 -0.1777
50416W        W93329  18.057  31.024  22.933  0.0536  0.2115  0.1729
50417W        W93330  33.649  27.018  28.435  0.0439  0.0654  0.0084
50418W        W93331  13.183  28.068   0.506 -0.2271 -0.2674  0.5218
50419W        W93332   6.050  33.280   4.217  0.2252 -0.1515  0.0960
50420W        W93333   4.034  11.692  24.552 -0.0764 -0.0509  0.0836
50421W        W93334  17.993  19.433   3.855 -0.1684  0.3038 -0.1064
50422W        W93335   6.923  27.074  20.038 -0.2376  0.2222 -0.0654
50423W        W93336  12.462  28.743  24.383  0.0633  0.0111  0.0402
50424W        W93337  12.966  23.413   4.965  0.1350 -0.3671 -0.0053
50425W        W93338   4.878  33.004  29.266 -0.2132 -0.0824 -0.1546
50426W        W93339   3.687  33.557   5.770  0.1868  0.0723 -0.5452
50427W        W93340  30.633  28.490  19.979  0.0690 -0.2536 -0.0128
50428W        W93341  16.616  30.621  23.078 -0.0051 -0.2482 -0.0915
50429W        W93342   0.310  25.182  19.344 -0.0271  0.0818 -0.0073
50430W        W93343   5.017  23.361   6.741 -0.0012 -0.1771  0.3039
50431W        W93344  20.355  26.543  22.063  0.0265  0.0326  0.1901
50432W        W93345  11.576  29.747  17.267 -0.0128  0.0382  0.0735
50433W        W93346   5.104  26.515  21.116  0.4128  0.0622  0.0786
50434W        W93347  14.106  16.724   4.344 -0.0053  0.3931  0.1576
50435W        W93348  11.015  31.762  28.176  0.1499  0.1608  0.2159
50436W        W93349   6.820  24.987  27.685  0.0678 -0.0140  0.1885
50437W        W93350  11.732  23.557  25.648 -0.2431 -0.1560 -0.0033
50438W        W93351  10.923  26.127   3.778 -0.1814  0.1983 -0.1893
50439W        W93352  19.551  28.419  14.762  0.0133 -0.0407 -0.1195
50440W        W93353   1.089   0.899   4.436 -0.3588  0.0008  0.2015
50441W        W93354  20.037  24.949  25.800 -0.0402  0.2086  0.0477
50442W        W93355  32.682  32.519  29.346 -0.2882 -0.3473 -0.1871
50443W        W93356  34.215  27.427  29.559 -0.2581 -0.1640 -0.0179
50444W        W93357  10.504  34.337  27.849  0.0842  0.0679  0.0177
50445W        W93358  12.239   2.280  22.337  0.0235 -0.0540  0.1207
50446W        W93359   3.615   6.295  29.338 -0.3409 -0.0090 -0.0702
50447W        W93360  15.008  21.658   7.461 -0.0685  0.0314 -0.2612
50448W        W93361   6.396  17.520  28.163 -0.1086  0.0900 -0.0446
50449W        W93362   6.124  23.430  26.960 -0.1270 -0.1498 -0.3321
50450W        W93363  17.679  28.076  25.324  0.1319 -0.0973 -0.0053
50451W        W93364  17.228  34.398  24.663 -0.2099  0.1523 -0.0009
50452W        W93365   2.950  29.418  22.993 -0.0127  0.1020 -0.0308
50453W        W93366  14.229  20.160  23.712  0.2642  0.0639 -0.3189
50454W        W93367  10.637  32.097  10.422 -0.2428 -0.0914 -0.2106
50455W        W93368   3.878   0.566   2.078 -0.0590 -0.1498  0.3127
50456W        W93369   0.305  26.923  20.254  0.0762  0.1879  0.0103
50457W        W93370  14.208  23.193  21.547 -0.0885 -0.1320 -0.2306
50458W        W93371   0.124  27.424  29.277 -0.1228  0.1185  0.1027
50459W        W93372  13.569  23.786  25.974  0.0020  0.1404 -0.1991
50460W        W93373  12.786  25.678  15.321 -0.2434 -0.2230 -0.0835
50461W        W93374  30.609  26.457  28.538 -0.1303 -0.0868 -0.0918
50462W        W93375   8.585  24.030   1.836  0.1751 -0.0454  0.1694
50463W        W93376  11.290  23.937  26.395  0.0660  0.2278  0.0372
50464W        W93377   5.096  32.320  26.436  0.1640  0.3143  0.0682
50465W        W93378  13.691  31.192   0.676 -0.1594  0.0128  0.2418
50466W        W93379   2.829  29.244  27.990 -0.2018 -0.3183  0.0950
50467W        W93380  23.162  19.434  16.727 -0.0095  0.1910 -0.3133
50468W        W93381  14.616  11.396  24.710  0.0849  0.2847  0.1925
50469W        W93382   5.680  33.428  20.574 -0.0275 -0.1345 -0.2093
50470W        W93383   6.451  22.811  22.244 -0.1824  0.0503 -0.0039
50471W        W93384  32.559  21.565  24.571  0.0239 -0.0382 -0.2800
50472W        W93385  13.394  19.234  27.769 -0.0150  0.4300  0.3130
50473W        W93386  32.468   0.920   4.664  0.0021 -0.2791  0.0136
50474W        W93387  10.931  29.769  23.099 -0.0829 -0.1725 -0.0174
50475W        W93388   4.049  23.011  27.384  0.3231 -0.1180 -0.0819
50476W        W93389   7.782  31.920   1.320 -0.0382  0.0390  0.0442
50477W        W93390  12.859  31.273  27.048  0.0515 -0.1371  0.0425
50478W        W93391  25.317   4.895   1.400  0.2417  0.3597  0.1241
50479W        W93392  13.452  30.211  28.922 -0.1622 -0.4861  0.2523
50480W        W93393   5.109  27.962  25.349 -0.2729 -0.2610  0.0015
50481W        W93394  11.023  28.899  29.712 -0.0254  0.1145  0.1186
50482W        W93395   8.715  28.271  27.793 -0.1609  0.1802  0.0414
50483W        W93396   4.672  28.065   0.369  0.2802 -0.1789  0.1229
50484W        W93397   6.044   1.553   2.240  0.2344  0.2653  0.0231
50485W        W93398  33.327  29.361  23.452 -0.2248  0.0682  0.1191
50486W        W93399  11.249   3.078   2.110 -0.2752 -0.3678 -0.0342
50487W        W93400   6.990   9.965   1.535 -0.1476  0.0256  0.1968
50488W        W93401   7.608  29.092  20.043  0.2451 -0.1026  0.3688
50489W        W93402   5.638  34.316  29.229  0.2214 -0.0651  0.1537
50490W        W93403   4.641  33.033  20.903 -0.1700  0.2356  0.1245
50491W        W93404  17.578  22.208  16.610 -0.1379 -0.2731  0.2411
50492W        W93405   1.743  31.513   7.249 -0.1291 -0.3004  0.1082
50493W        W93406   0.698  29.965   0.794 -0.0005 -0.0712 -0.2516
50494W        W93407   8.142  19.188  29.316 -0.0965  0.1485 -0.0836
50495W        W93408  12.962  25.905  28.241 -0.4895 -0.1489  0.2204
50496W        W93409   9.514  19.570  29.438 -0.0490 -0.0282 -0.1419
50497W        W93410  10.075  31.501  28.176  0.0380 -0.0723 -0.0211
50498W        W93411  10.377  26.451   1.699 -0.0670  0.1397  0.3812
50499W        W93412   4.433  31.143  19.801 -0.1548  0.1178 -0.1185
50500W        W93413  17.342   0.567   2.744 -0.0620  0.1461 -0.1893
50501W        W93414  13.381  19.723  28.500 -0.0375 -0.0891 -0.3259
50502W        W93415  30.619  24.600  14.632 -0.3468  0.2517 -0.5150
50503W        W93416   5.223  18.777  19.881  0.2913 -0.0359  0.0144
50504W        W93417   4.483  28.783  21.618 -0.1275  0.2703  0.1435
50505W        W93418   2.797  21.928  17.083 -0.0131 -0.3015 -0.3382
50506W        W93419   6.615  28.878  19.546 -0.0510 -0.0119  0.1158
50507W        W93420  12.987   0.197   3.066 -0.0039  0.1963  0.2871
50508W        W93421   3.803  26.648   1.334 -0.0389  0.3018 -0.2169
50509W        W93422   0.599  23.184  25.618 -0.3722  0.2097 -0.0151
50510W        W93423  30.763  32.425   2.667 -0.1871  0.1418 -0.1034
50511W        W93424   7.499  26.146   7.088 -0.1580 -0.1692 -0.0224
50512W        W93425   6.587  33.464  27.990  0.1298 -0.0818  0.0716
50513W        W93426   1.246  27.958   8.134  0.1392  0.2278  0.1014
50514W        W93427  33.613  33.595  25.443 -0.3745 -0.1724  0.2044
50515W        W93428  18.165   1.319  27.873  0.1275 -0.3640 -0.0683
50516W        W93429   0.959  20.130  28.853 -0.0560 -0.0162  0.1113
50517W        W93430   6.590   9.099  29.032  0.0849  0.0893  0.2212
50518W        W93431   9.290  34.032   7.441 -0.0691 -0.0464 -0.1494
50519W        W93432   0.237  28.789  10.152 -0.4298  0.1891  0.0641
50520W        W93433   8.952  22.822   7.774  0.1935  0.1388  0.1742
50521W        W93434   7.035  23.083  27.790 -0.1190 -0.2614 -0.3840
50522W        W93435   0.943  33.443  23.003 -0.0709 -0.2890 -0.2015
50523W        W93436   4.636  29.535  28.233 -0.0489 -0.0080  0.0381
50524W        W93437  13.746   1.600  21.360  0.1752 -0.0491  0.0894
50525W        W93438   5.864  32.128  10.138 -0.1460 -0.2542 -0.1555
50526W        W93439   6.568  27.319   3.876  0.0553  0.0495 -0.3506
50527W        W93440  18.933  29.962  20.326 -0.1646 -0.0059 -0.0637
50528W        W93441   8.324  28.382  25.550  0.0176 -0.0811  0.1587
50529W        W93442  15.981  33.608  24.160  0.1315 -0.0787 -0.0313
50530W        W93443  12.284  28.501  28.129  0.1367 -0.2103 -0.0776
50531W        W93444  15.426  29.628   0.463 -0.6160  0.0470  0.0827
50532W        W93445   0.497  23.695   9.933 -0.4862 -0.0733  0.4710
50533W        W93446  11.794  31.424   0.951  0.0950  0.0185 -0.1620
50534W        W93447   8.340  28.923   2.828  0.1165  0.1532  0.2576
50535W        W93448  13.921  22.977  21.168  0.3008 -0.0150 -0.2177
50536W        W93449  14.270  28.187  20.982  0.2145 -0.1029 -0.0831
50537W        W93450   3.900   1.362  27.751 -0.0353 -0.3496  0.1729
50538W        W93451  32.709  32.534  22.197 -0.2237  0.0677  0.2258
50539W        W93452   9.803  29.807  27.914 -0.0174 -0.1321 -0.0316
50540W        W93453  17.818  22.466  25.792 -0.0196 -0.2949 -0.0157
50541W        W93454  20.004  31.749  26.886  0.3035  0.1798  0.0542
50542W        W93455  13.092  32.984  17.090  0.1900  0.1228  0.1845
50543W        W93456  12.116  27.815  24.702  0.2581  0.1956  0.1486
50544W        W93457   9.340  29.693   4.653 -0.0945  0.0008 -0.1753
50545W        W93458  12.964  33.133  16.579 -0.0707  0.0043 -0.0948
50546W        W93459  15.817   4.191  27.037 -0.0077 -0.0236 -0.0776
50547W        W93460   3.703  30.036  26.976  0.1745  0.1538 -0.0650
50548W        W93461   4.504   0.758  11.020  0.0947  0.1281  0.0679
50549W        W93462   8.481  27.443  28.713  0.0300 -0.0677 -0.3919
50550W        W93463   4.494  30.562  28.205 -0.0357  0.0277  0.0984
50551W        W93464  16.286  20.569  22.204  0.2500 -0.0663 -0.0355
50552W        W93465   7.187   0.256   4.971 -0.2233  0.3555 -0.0118
50553W        W93466   4.061  29.938  27.404  0.4340  0.0709 -0.1343
50554W        W93467  16.075  25.440  19.200 -0.0332 -0.1358  0.0315
50555W        W93468  27.005  13.491  26.868 -0.0023 -0.3738  0.0422
50556W        W93469  31.101  17.268  28.935 -0.3246  0.0277 -0.1063
50557W        W93470  12.586   2.814  10.483 -0.0899 -0.0548 -0.4036
50558W        W93471  33.935  31.024   3.910 -0.0378 -0.0421  0.1946
50559W        W93472  18.247  27.334  26.631  0.0093  0.1352 -0.3223
50560W        W93473   4.802   2.210  25.117  0.0632  0.0900 -0.6717
50561W        W93474  12.497   8.153  18.994 -0.1623 -0.1463 -0.4586
50562W        W93475   2.952  23.467  19.868 -0.1100  0.1257 -0.0665
50563W        W93476  10.699  13.750  23.737 -0.2760  0.1234  0.1333
50564W        W93477   5.364  26.041   5.329 -0.0139 -0.2714  0.1146
50565W        W93478  12.366  18.827  17.772  0.4002  0.1917 -0.0514
50566W        W93479   4.214  24.925  24.163 -0.0052  0.0837 -0.2930
50567W        W93480   8.754  27.866   1.007  0.0202  0.1322  0.4662
50568W        W93481   8.635  25.221   1.199 -0.1086  0.0138 -0.2018
50569W        W93482  15.619  25.255  27.470  0.1206 -0.1013  0.0065
50570W        W93483  10.203  24.420   8.800  0.2803 -0.0543 -0.2392
50571W        W93484  13.540  21.518   2.638 -0.1443 -0.3141 -0.4653
50572W        W93485  12.685  32.578   9.499  0.0706 -0.0151  0.3581
50573W        W93486  14.254  21.011  21.611  0.1121 -0.5245  0.3272
50574W        W93487  15.909   2.698   0.525 -0.0841 -0.2389  0.0412
50575W        W93488   4.162  26.308  15.401 -0.0766 -0.1512 -0.0709
50576W        W93489  10.763  31.093   2.315  0.2554 -0.3737  0.3173
50577W        W93490   0.015  28.239  21.292  0.0610 -0.0319  0.2705
50578W        W93491   1.064  30.923  24.359 -0.3248 -0.2040  0.0181
50579W        W93492  11.153  30.255  28.013 -0.0422  0.1688 -0.0571
50580W        W93493   3.006  30.806  16.373  0.2872 -0.1503 -0.1260
50581W        W93494  10.447  16.042  22.899  0.1107 -0.0280 -0.0082
50582W        W93495   2.829  26.124   0.411  0.0218  0.2129 -0.2964
50583W        W93496  22.533  24.735   3.353  0.0379 -0.2244  0.0895
50584W        W93497  14.685  24.806  26.214  0.1238  0.1170 -0.2466
50585W        W93498   5.922   4.648  26.697 -0.0779  0.0930 -0.1966
50586W        W93499   6.427  25.332   3.552  0.0241  0.0154  0.4311
50587W        W93500   4.935  14.773  27.927 -0.1363 -0.1190 -0.3625
50588W        W93501   6.894  24.795   2.696 -0.0632 -0.0612  0.1338
50589W        W93502   3.262  19.386  22.191  0.1326  0.1122  0.0608
50590W        W93503  15.514  31.989   1.384 -0.1290  0.0863 -0.1145
50591W        W93504  27.130  33.218   3.181 -0.3028  0.2462  0.1597
50592W        W93505  10.614  29.260   6.130 -0.0548 -0.4622 -0.0259
50593W        W93506  10.563  28.995  21.905  0.1024 -0.4504  0.1512
50594W        W93507   3.641  28.833  29.149  0.1192 -0.1987 -0.1067
50595W        W93508   8.872   3.747  24.855 -0.0672  0.1337  0.3595
50596W        W93509   8.170  24.928  18.307 -0.0158  0.0100 -0.0852
50597W        W93510  16.416  25.812  25.444  0.0515  0.0127  0.2388
50598W        W93511   8.704  26.559  27.153 -0.0092 -0.0413  0.3194
50599W        W93512   0.893   3.449  27.370  0.1390  0.1661 -0.2842
50600W        W93513   5.845  27.279   1.736  0.2168 -0.0358 -0.0710
50601W        W93514   8.680  33.102  22.611 -0.1124 -0.2358  0.0704
50602W        W93515   6.054  32.423  26.692 -0.1625  0.1637  0.1458
50603W        W93516   9.599  30.619  25.244  0.1935  0.1716  0.1194
50604W        W93517  11.015  33.737   5.127 -0.1714 -0.0748 -0.0510
50605W        W93518  17.023  20.936  21.286 -0.0701  0.2831  0.3859
50606W        W93519  13.811  33.711   8.507  0.1518 -0.0850 -0.3430
50607W        W93520  28.210  26.647   0.786 -0.1934 -0.0191  0.2055
50608W        W93521   7.237  29.187  26.374  0.0256 -0.1016 -0.4208
50609W        W93522   8.154   0.546   8.971 -0.3842  0.2957  0.1032
50610W        W93523  17.475  30.809  26.782 -0.4094 -0.1834  0.1567
50611W        W93524  24.959  20.940   8.910  0.0514 -0.2610  0.0583
50612W        W93525  32.671  18.625  16.311  0.2389 -0.1727  0.1001
50613W        W93526   1.284  29.998  29.472 -0.1229 -0.1987 -0.0563
50614W        W93527  15.797  19.623   7.501  0.0366 -0.0272 -0.1485
50615W        W93528  33.344  15.094   8.933  0.2385  0.3868 -0.3408
50616W        W93529   9.980   4.798  27.140 -0.2282  0.0320  0.1052
50617W        W93530   3.554  29.018   5.727  0.0274  0.0596  0.0464
50618W        W93531  15.560  28.119  27.830 -0.2374  0.1144 -0.0469
50619W        W93532  13.607  22.236  22.739 -0.0616 -0.1282 -0.1453
50620W        W93533  11.282  31.653  20.357  0.3137 -0.0085 -0.1450
50621W        W93534  10.484  30.159   4.348  0.0643  0.0508 -0.0792
50622W        W93535  13.129  32.989   0.640  0.4148  0.4819  0.1941
50623W        W93536   8.456  19.946  28.152  0.0492  0.1178  0.1531
50624W        W93537  10.814  24.155  26.368  0.0241  0.0575  0.2003
50625W        W93538  32.236  26.076  29.711 -0.0644 -0.0550 -0.4786
50626W        W93539   4.374  32.289   1.109 -0.2702 -0.0254  0.0924
50627W        W93540  16.067  21.739  28.158  0.1205 -0.4042 -0.1389
50628W        W93541  12.586   0.343  16.786  0.1418 -0.0270 -0.5374
50629W        W93542   7.022  32.119  28.358 -0.1081 -0.1970 -0.2657
50630W        W93543  22.671   4.029   4.500  0.1722 -0.0332  0.0326
50631W        W93544  11.609  26.717  24.347 -0.1054  0.4215  0.0311
50632W        W93545   6.716  19.927  22.781  0.1052 -0.1335  0.0581
50633W        W93546   0.607   0.149  24.694  0.0341 -0.0548  0.1384
50634W        W93547  13.576  26.790  29.534 -0.0518  0.1869  0.0158
50635W        W93548  11.590  33.439  25.527  0.0760  0.0865 -0.0393
50636W        W93549   6.198   1.402   4.213  0.0480  0.0968  0.0715
50637W        W93550   9.969  30.589   9.741  0.0286  0.1849 -0.0685
50638W        W93551   8.255  13.342  29.661 -0.0578  0.1294  0.0464
50639W        W93552  11.057  25.999  29.179 -0.4871 -0.3380  0.0281
50640W        W93553  34.471  28.854  26.648  0.0789  0.1162  0.1615
50641W        W93554  16.424  28.407  24.823  0.0574  0.1576  0.2245
50642W        W93555   6.473   3.654   0.233 -0.2973  0.2043 -0.4106
50643W        W93556  17.752  21.073  22.440 -0.0496  0.0106  0.2264
50644W        W93557   9.754  23.128  22.177 -0.0909  0.3512 -0.0552
50645W        W93558  10.212  29.184   0.534  0.4132 -0.0920  0.0342
50646W        W93559  13.321  31.496   2.502  0.0186 -0.0678  0.1800
50647W        W93560   0.253  23.220   2.061 -0.3896 -0.0337  0.2242
50648W        W93561  20.416  32.443  19.058 -0.0813  0.1454 -0.1608
50649W        W93562  11.026  19.135  21.745 -0.1128  0.1211 -0.0563
50650W        W93563   4.828  33.363  28.329  0.2663  0.0675  0.0451
50651W        W93564  10.645  24.180  29.003  0.2820  0.1498 -0.0797
50652W        W93565  19.023  30.126   2.367 -0.0728  0.1783  0.0400
50653W        W93566   1.565   6.437  20.853  0.1194 -0.4030 -0.1113
50654W        W93567  33.747  16.664  28.399 -0.0043  0.2084 -0.0724
50655W        W93568  29.501   6.101  24.316  0.1487 -0.0211  0.5369
50656W        W93569  12.580   9.842  19.985  0.0990  0.0245  0.0941
50657W        W93570  13.252  32.253   2.014 -0.0089  0.0895 -0.0566
50658W        W93571   6.638  31.172   5.308  0.2844  0.1618 -0.1474
50659W        W93572   7.935   5.800  25.216 -0.0724 -0.0183  0.2360
50660W        W93573  18.794  21.760   4.572  0.0194 -0.0768  0.0214
50661W        W93574   8.952  26.918  26.856 -0.1565  0.4648 -0.0640
50662W        W93575  29.924  26.242  22.452 -0.1613 -0.1513  0.0033
50663W        W93576  10.984   2.028   4.272  0.3076 -0.3563 -0.1122
50664W        W93577   9.333  17.311  28.250 -0.0186 -0.1166  0.3998
50665W        W93578  11.104  22.504  21.639  0.0612 -0.0742 -0.3672
50666W        W93579   8.471  28.884   5.771 -0.3226  0.2562  0.3115
50667W        W93580   8.620  25.198  18.500  0.0495  0.0169 -0.0943
50668W        W93581   4.681   4.604  22.369  0.0545 -0.1055  0.0843
50669W        W93582   4.206  19.842   0.314 -0.0499  0.0393 -0.1573
50670W        W93583   7.911   2.394   5.844  0.1150  0.0760  0.0302
50671W        W93584  14.303  22.875   2.226  0.2211 -0.1564  0.1648
50672W        W93585  11.901   0.765  28.681  0.0563  0.0767 -0.0278
50673W        W93586   1.568   1.088   2.945  0.0879  0.2409 -0.2431
50674W        W93587  12.754  20.227   9.420 -0.0569 -0.3599 -0.4678
50675W        W93588  11.744  28.313  23.975 -0.1422 -0.3677  0.2247
50676W        W93589  12.334  27.353  24.484  0.0663 -0.2432  0.0104
50677W        W93590   2.788  28.689  28.115  0.1390  0.0711  0.0969
50678W        W93591  12.047  30.136  11.325  0.0871 -0.1502  0.2602
50679W        W93592   5.942  27.386  24.145  0.0360 -0.1404  0.1685
50680W        W93593  27.010  29.481  18.515 -0.1667  0.3241 -0.0787
50681W        W93594  13.822  20.559  20.788 -0.2961  0.0637 -0.1436
50682W        W93595   1.446   2.091   4.213 -0.1960  0.1703 -0.1541
50683W        W93596   6.164  33.673  20.396 -0.1501 -0.0744  0.1326
50684W        W93597   8.184   0.227  27.192 -0.0026  0.2344 -0.0207
50685W        W93598  15.683  20.608  21.819 -0.0190 -0.0355  0.2887
50686W        W93599  17.631  28.673   2.465 -0.0676 -0.1384  0.1356
50687W        W93600   9.234  26.949   1.835  0.4314  0.2245  0.0011
50688W        W93601  22.566  16.789  15.398  0.0001 -0.0008  0.0665
50689W        W93602  13.719  23.982  22.350 -0.0356  0.3362 -0.0052
50690W        W93603   7.356  17.489  27.315 -0.0328 -0.0125 -0.0542
50691W        W93604   1.114  27.744   0.227 -0.4202  0.0532 -0.0343
50692W        W93605   8.779   1.537  28.859  0.0741 -0.2853  0.0356
50693W        W93606  11.054   3.369   5.981  0.1872  0.0607  0.2937
50694W        W93607  10.108  28.145   5.897  0.5251 -0.1167  0.0507
50695W        W93608   6.555  28.777  21.027  0.0767  0.0696 -0.2695
50696W        W93609   1.695  33.366  26.038 -0.5062 -0.3452  0.0812
50697W        W93610   0.973  21.389   6.398  0.1116 -0.0604  0.2368
50698W        W93611  11.893  29.487   1.047 -0.1168 -0.1146 -0.0501
50699W        W93612  18.303  31.382   0.366 -0.1851 -0.0225 -0.1852
50700W        W93613  17.004  29.236   2.815  0.1175 -0.4392  0.1682
50701W        W93614  16.583  27.414  18.073 -0.2379 -0.1005 -0.1437
50702W        W93615   8.632  23.014   1.908 -0.0849  0.3334  0.0515
50703W        W93616  10.975  33.246  27.394  0.0526  0.2347 -0.1416
50704W        W93617  32.101  24.175  23.801  0.1738  0.0968 -0.0430
50705W        W93618  13.903  27.372  23.979  0.0448  0.0746 -0.0185
50706W        W93619  15.766  28.008  29.528 -0.1582  0.0050 -0.3564
50707W        W93620  11.094  18.830   5.948  0.1969 -0.1354  0.1158
50708W        W93621  11.324  13.626  21.309  0.1859  0.0112  0.1387
50709W        W93622   9.706  24.330   1.646  0.1711 -0.0910  0.2162
50710W        W93623   8.249  31.481   9.499 -0.0042  0.0728  0.0199
50711W        W93624  10.520  24.912  26.801  0.3264  0.2811  0.0794
50712W        W93625   8.880   0.453  25.400  0.1182 -0.3494  0.1071
50713W        W93626  13.826  23.933   3.200  0.0979  0.1670 -0.0051
50714W        W93627   6.970  30.788   1.274 -0.1046 -0.1559 -0.1025
50715W        W93628   6.215  20.048  24.798 -0.0598  0.0073 -0.2673
50716W        W93629   8.187   1.742   6.221 -0.3312  0.0982  0.1586
50717W        W93630  22.010  24.522   4.898  0.1701  0.2559  0.1748
50718W        W93631  33.811  24.656  28.206 -0.1708  0.1057 -0.1599
50719W        W93632   6.827  15.777  22.732 -0.1771  0.0109  0.4654
50720W        W93633   1.815  31.422   1.222  0.0490 -0.1154 -0.1914
50721W        W93634   4.839  27.890  26.773  0.0767  0.0516  0.2688
50722W        W93635   2.005   4.065   2.423 -0.0983 -0.1483 -0.0188
50723W        W93636   7.915  26.075  27.692 -0.0237  0.2638  0.2184
50724W        W93637   6.927  24.592  19.335 -0.1296  0.1706  0.1975
50725W        W93638   5.113  28.703  28.410  0.1644 -0.2515 -0.2426
50726W        W93639   7.787  29.793   4.084  0.0582 -0.0746 -0.2239
50727W        W93640  16.579   5.799   0.190  0.3082  0.2813 -0.0226
50728W        W93641   1.258  29.409  24.605  0.0929 -0.0163  0.0137
50729W        W93642   5.887  26.018  27.770  0.3963 -0.0864 -0.1048
50730W        W93643   0.220  26.771  27.574 -0.1723 -0.1314 -0.1427
50731W        W93644   5.846   0.265  27.010 -0.0347  0.3492 -0.0561
50732W        W93645   9.058  28.341  28.613 -0.1254  0.3799 -0.0991
50733W        W93646   8.970  25.109   0.863  0.0606 -0.0571 -0.0823
50734W        W93647  12.065  32.527  29.740 -0.0557  0.2239 -0.0228
50735W        W93648  10.735  29.074   0.384  0.0555 -0.0938 -0.1087
50736W        W93649   7.847   2.821   2.890  0.1773  0.0104  0.1940
50737W        W93650  11.935  22.893   3.038 -0.2161 -0.1910 -0.1469
50738W        W93651  17.923  26.462   8.955 -0.1025 -0.2638 -0.4819
50739W        W93652  12.912  28.354   1.827 -0.0531  0.2379 -0.0822
50740W        W93653   7.084  22.790  29.469 -0.0671  0.1600  0.1639
50741W        W93654  34.075  29.047   6.928  0.1110 -0.0079  0.1138
50742W        W93655   6.037  33.396  10.003 -0.2275  0.1465  0.0132
50743W        W93656   4.013   0.462   2.577 -0.1600  0.0012 -0.0893
50744W        W93657  17.814  18.718  26.465 -0.1889  0.2368  0.0473
50745W        W93658   5.754   9.620  29.241 -0.0689 -0.0320  0.1802
50746W        W93659  25.815  31.257  28.198  0.1131 -0.0219  0.1122
50747W        W93660   4.434  26.753  10.848 -0.2074  0.0750 -0.2116
50748W        W93661  21.925  32.192   4.356  0.1100 -0.0978 -0.0049
50749W        W93662   0.167   2.001   6.384  0.0978 -0.0303  0.0762
50750W        W93663  12.082  23.451   6.653 -0.2105  0.1653  0.0277
50751W        W93664   8.937  30.369   2.107 -0.0486  0.0642 -0.3673
50752W        W93665   9.255   2.563   1.392  0.0591  0.0938  0.0756
50753W        W93666   5.946  27.971  25.791  0.0607 -0.0757  0.1728
50754W        W93667   9.559  30.561  28.545 -0.0724 -0.0852  0.1555
50755W        W93668   5.852  33.227  16.905 -0.1532  0.0199 -0.1732
50756W        W93669  14.222  23.136  26.929  0.3039 -0.1546  0.0917
50757W        W93670  10.948  14.279  18.873  0.2827  0.0586 -0.1000
50758W        W93671   6.430  23.512   9.558 -0.2914  0.2038  0.2105
50759W        W93672  31.362   0.552  23.926  0.2202 -0.0106  0.2292
50760W        W93673  32.290  24.449  24.988 -0.1461 -0.2175 -0.0453
50761W        W93674  10.993  26.505  23.031  0.0293  0.1088  0.0070
50762W        W93675  13.364  26.788   3.107 -0.5416  0.0713  0.1057
50763W        W93676  11.910  21.246  23.306 -0.0152  0.3262  0.1673
50764W        W93677  29.491   0.674   1.155 -0.0974 -0.1323  0.0357
50765W        W93678  14.008   0.230   2.833 -0.1990  0.0070  0.0560
50766W        W93679  13.680   2.352  18.770 -0.1158  0.1369 -0.0541
50767W        W93680  11.632  33.811   3.162 -0.0631  0.1762  0.1752
50768W        W93681   8.479  24.564  26.464 -0.1395 -0.0215 -0.3288
50769W        W93682   9.571  27.440  20.405  0.2533  0.0238  0.0517
50770W        W93683   9.250   6.122  23.623 -0.0854  0.1739  0.2043
50771W        W93684   7.600   4.598  24.391  0.1325  0.0752  0.2865
50772W        W93685   8.983  26.065  27.068 -0.1684  0.1506  0.1584
50773W        W93686   3.541  28.708  25.137 -0.0178 -0.0362 -0.0389
50774W        W93687   7.291  27.108  15.815  0.2997 -0.0528  0.0716
50775W        W93688   0.249   5.248  19.409 -0.2700 -0.3840 -0.1923
50776W        W93689   5.421  25.828  19.613 -0.2478  0.1499 -0.1300
50777W        W93690  12.980  24.261  25.249 -0.1729  0.1061 -0.1738
50778W        W93691  23.021  12.003  19.016  0.2422 -0.0730  0.2081
50779W        W93692   6.486  29.076  21.510  0.0693 -0.2370 -0.1453
50780W        W93693  20.031  29.666  17.168 -0.1484 -0.2150 -0.0994
50781W        W93694   9.749  25.989  21.596  0.0276 -0.1154 -0.1089
50782W        W93695  12.349  14.008  16.102  0.1540 -0.0011  0.0859
50783W        W93696  21.897  24.881  24.569  0.1518  0.0515  0.0513
50784W        W93697  33.187  24.770  23.324 -0.1313  0.0910  0.1376
50785W        W93698   5.694  24.706  16.080 -0.3067 -0.2083  0.1717
50786W        W93699  14.101  26.277   6.323  0.2616 -0.0816 -0.1954
50787W        W93700   5.264  26.022  17.548 -0.1707 -0.1639 -0.2361
50788W        W93701  18.761   4.077  15.628  0.2728 -0.2365 -0.3270
50789W        W93702   0.609  33.727  20.972  0.0734 -0.0100  0.0644
50790W        W93703   9.352   0.637  21.222  0.1020 -0.0836  0.1044
50791W        W93704   4.654  22.831   2.459 -0.1383 -0.0800  0.1019
50792W        W93705   8.117  28.351  16.671  0.1331  0.2034  0.1353
50793W        W93706  11.934   1.073  19.814 -0.1585 -0.3188 -0.2818
50794W        W93707  21.274  33.098  19.970  0.2860 -0.0076 -0.1673
50795W        W93708   9.048  33.195  19.665 -0.2605 -0.1755 -0.2139
50796W        W93709   3.335  23.404  19.398 -0.2522  0.0692  0.0679
50797W        W93710  11.060  26.321  21.733  0.1767  0.0033  0.1738
50798W        W93711  33.921   1.736  20.249  0.1242 -0.1618 -0.3046
50799W        W93712   3.437  29.501  23.079 -0.6689 -0.3071 -0.2846
50800W        W93713   4.408  26.747  16.451  0.2460  0.3431 -0.1208
50801W        W93714  13.294   0.294  26.317  0.2602  0.2040  0.1423
50802W        W93715   0.570   2.012  18.465 -0.1303 -0.0222 -0.0163
50803W        W93716  11.550  29.540  17.856 -0.1055  0.2661 -0.0784
50804W        W93717   5.383  32.448  16.990 -0.2903  0.0576  0.1498
50805W        W93718   2.006  30.461  29.004  0.1042 -0.1287 -0.0845
50806W        W93719   6.431  26.345  16.965  0.0464  0.0557  0.0290
50807W        W93720  20.648  30.884  14.280  0.1616  0.1912  0.3581
50808W        W93721  11.251  27.619  18.796 -0.1768 -0.0103 -0.0581
50809W        W93722   7.151   2.035  17.453  0.2645  0.1130  0.1578
50810W        W93723   9.209  10.809  23.095  0.0965 -0.0882 -0.0106
50811W        W93724  11.065  21.946  14.287 -0.0034 -0.2808 -0.1122
50812W        W93725   9.175  29.582  18.294 -0.3663  0.1966 -0.0118
50813W        W93726  12.639  23.581  21.691  0.3228  0.1070 -0.0153
50814W        W93727  14.932   1.016  15.417  0.1620 -0.0393  0.1633
50815W        W93728   5.454  32.532  16.185  0.0518 -0.1899 -0.1702
50816W        W93729   4.698  29.847  16.740 -0.0869 -0.1409 -0.1333
50817W        W93730   0.507  32.064  18.489  0.0875 -0.1484 -0.0404
50818W        W93731   0.209  29.016  24.723  0.0748 -0.3009 -0.1039
50819W        W93732   8.672   0.019  20.840  0.3395  0.0713  0.2286
50820W        W93733  18.701  31.537  25.019  0.1061  0.2118 -0.3336
50821W        W93734  33.235   2.940  23.646 -0.0013  0.0039  0.1911
50822W        W93735   5.598   8.752  17.242 -0.1756  0.2988  0.0934
50823W        W93736   8.432  33.166  20.926 -0.1105  0.1830 -0.1828
50824W        W93737  17.389  32.045   3.294 -0.0115  0.0485 -0.1219
50825W        W93738  13.193  29.680  21.664  0.1933  0.3783  0.0010
50826W        W93739  10.508  26.104  15.578  0.1315  0.2377 -0.0335
50827W        W93740  13.628  22.411   2.168 -0.1526 -0.0842  0.1750
50828W        W93741   8.181   1.123  23.477  0.1937  0.0654 -0.1040
50829W        W93742   5.029   0.267   3.473 -0.4221  0.3096 -0.2113
50830W        W93743  10.180   6.161   0.313  0.3244  0.1377 -0.0658
50831W        W93744  23.518   4.730  21.922  0.0442  0.0658 -0.2379
50832W        W93745   8.880  28.466  21.058  0.1628 -0.1274  0.1066
50833W        W93746   5.565  30.617  22.903  0.3598 -0.4654  0.0578
50834W        W93747   2.371   0.629  19.151  0.1328 -0.1110 -0.2131
50835W        W93748  14.194  22.995  18.766  0.0297 -0.1493  0.1694
50836W        W93749  23.085  26.482  18.575  0.3077 -0.1529  0.0774
50837W        W93750   0.947  31.784  18.742  0.1296 -0.0565  0.0583
50838W        W93751  10.947  24.872  14.890  0.1923  0.1101  0.2025
50839W        W93752   9.336  24.635  14.493 -0.0082 -0.1940  0.2571
50840W        W93753  15.376   1.545  26.936  0.2249  0.2657 -0.0605
50841W        W93754   9.224  25.879  18.869  0.1408  0.2533  0.0180
50842W        W93755   8.292  30.724  17.108  0.2962  0.0738 -0.1466
50843W        W93756  14.245  19.411  21.015 -0.2030  0.1507 -0.1529
50844W        W93757  15.565  29.282  18.005  0.0832 -0.0691 -0.3005
50845W        W93758  14.555   5.836  24.645  0.1853  0.2274 -0.0422
50846W        W93759   3.668   1.302   3.237 -0.4194  0.3479  0.0347
50847W        W93760  12.746  34.142  26.600  0.0842 -0.0073 -0.2324
50848W        W93761  23.126  28.302  17.825 -0.2721  0.5077 -0.3631
50849W        W93762   0.603  34.473  19.853  0.1773  0.0379 -0.1307
50850W        W93763   7.525  25.846  25.042  0.2336 -0.0597  0.2588
50851W        W93764   6.124  27.580  22.685  0.1845  0.0333  0.0512
50852W        W93765   6.182  33.184  23.251  0.1709  0.1847  0.1391
50853W        W93766   6.231  31.591  15.960  0.3589  0.1341  0.0109
50854W        W93767   9.143  32.816  22.676 -0.1715 -0.0620 -0.0412
50855W        W93768  12.434  30.224  18.947 -0.0497 -0.1171 -0.1038
50856W        W93769  32.033   1.537  18.478  0.4752 -0.0335 -0.3659
50857W        W93770  34.484  31.765  20.232 -0.0014 -0.1031 -0.2965
50858W        W93771   9.200  19.545  24.650 -0.1305 -0.1411 -0.1182
50859W        W93772   8.039  24.527  17.973 -0.2406  0.2638  0.2816
50860W        W93773  18.638   2.819  17.453 -0.0018 -0.1300 -0.1035
50861W        W93774  11.904   1.860  22.077  0.0739 -0.0490  0.0004
50862W        W93775   7.318  33.614  23.604  0.3915  0.3512  0.2889
50863W        W93776   2.863  31.354  16.745  0.1493 -0.4010 -0.2076
50864W        W93777  27.916  29.935  29.347  0.0560 -0.0765 -0.2255
50865W        W93778  30.294  33.850  18.801  0.2015  0.0567 -0.2238
50866W        W93779  14.319  25.455  22.731 -0.0381  0.0283  0.2404
50867W        W93780  12.736  29.971  21.461  0.3638 -0.0036  0.0168
50868W        W93781  14.948   7.548  19.062  0.0569 -0.0655  0.0592
50869W        W93782   9.034  26.604  28.054 -0.1325  0.1019 -0.4423
50870W        W93783  12.856  28.089  15.346  0.0107  0.2422 -0.0190
50871W        W93784  14.653   3.810  22.798 -0.0059  0.2050  0.1959
50872W        W93785  22.989  32.597  22.858 -0.2241 -0.0796  0.2131
50873W        W93786   7.404  12.563  15.696  0.0656  0.0370  0.2256
50874W        W93787  17.621   6.814  17.604 -0.0097 -0.2468  0.5055
50875W        W93788  25.658   2.780  15.920  0.0307  0.3871 -0.3448
50876W        W93789  10.972   7.939  16.617  0.0983 -0.0790 -0.3404
50877W        W93790   8.540  28.734  19.037 -0.1833 -0.1291 -0.1989
50878W        W93791  12.664  25.214  15.484  0.2201  0.0216 -0.0858
50879W        W93792  21.507  28.705  19.383  0.0840 -0.0994 -0.0513
50880W        W93793  21.267  28.423  19.788  0.3185 -0.1036 -0.2675
50881W        W93794   8.723  33.063   0.413  0.0130 -0.2058 -0.3435
50882W        W93795   4.886  31.777  27.549  0.1315  0.2954  0.0069
50883W        W93796   8.594  34.151  20.462  0.0235 -0.0626 -0.1641
50884W        W93797  15.226   1.711  16.922 -0.1010  0.0360  0.3135
50885W        W93798  14.618  26.641  18.211 -0.1066 -0.1729  0.1643
50886W        W93799  10.870   3.484  20.260  0.2959 -0.1976  0.1350
50887W        W93800   4.954  24.468  24.594 -0.0668  0.1010 -0.2365
50888W        W93801   8.386   3.478  27.677 -0.0095  0.1703 -0.2773
50889W        W93802  12.566  25.752  20.518 -0.0225 -0.0078  0.4439
50890W        W93803  16.608  27.041  15.487  0.0916 -0.0106  0.1582
50891W        W93804   5.730  27.063  22.249  0.2312  0.1880 -0.4253
50892W        W93805  34.424  20.478  18.104  0.0464  0.0901 -0.1674
50893W        W93806  13.556   3.453  15.741  0.1167  0.0033  0.5216
50894W        W93807   6.677   8.556  27.437 -0.1713 -0.0036  0.3933
50895W        W93808  10.290  32.071   1.755 -0.0125  0.2026  0.3527
50896W        W93809   4.870  28.988  15.124 -0.0776 -0.0165 -0.1145
50897W        W93810   4.586  28.166  19.416 -0.0760  0.1153 -0.0993
50898W        W93811  11.224   0.897  26.623 -0.0637  0.1409 -0.1063
50899W        W93812  13.648  25.989  15.372 -0.1711  0.2122  0.2617
50900W        W93813  22.195   0.482   2.943  0.4731 -0.0759 -0.4722
50901W        W93814  10.062   1.524  22.608  0.1637  0.0215 -0.1369
50902W        W93815  12.992   9.207  17.845 -0.0453 -0.0888 -0.2009
50903W        W93816   8.955   4.086  19.343  0.0873 -0.2572  0.1265
50904W        W93817  10.423   0.310  20.420 -0.2204 -0.1958 -0.0966
50905W        W93818   1.928  30.897   1.301  0.1190  0.0955 -0.1325
50906W        W93819   8.902  29.132  18.510  0.1239 -0.5041 -0.1480
50907W        W93820  33.544  32.621  27.637 -0.0678  0.4157 -0.1443
50908W        W93821  33.472  34.156  16.833  0.1156  0.2078 -0.0294
50909W        W93822   1.836  26.345  25.441  0.0539  0.0632 -0.3614
50910W        W93823  17.394  23.544  17.149  0.1783  0.2185 -0.3895
50911W        W93824   7.390  28.151  17.163 -0.1541  0.0522  0.2293
50912W        W93825  13.624  29.954  25.253 -0.0747  0.0296 -0.1377
50913W        W93826  17.628  24.226  14.336  0.0337  0.3418  0.1109
50914W        W93827   3.937  29.536  16.555 -0.0971  0.0369 -0.1414
50915W        W93828   2.833   1.251  21.189  0.1400  0.0353  0.0139
50916W        W93829   9.138  27.401  19.586 -0.0006  0.0727  0.1566
50917W        W93830  12.880   0.112  22.396  0.0391  0.1486 -0.1222
50918W        W93831   8.153  27.192  26.984 -0.1672  0.4437 -0.0355
50919W        W93832   8.929  33.159  23.538 -0.3180 -0.3433 -0.1847
50920W        W93833   7.950  33.047  17.022 -0.2637  0.1337  0.0750
50921W        W93834  14.172  25.179  19.244 -0.0854 -0.1719  0.1920
50922W        W93835  17.560  31.176   6.418  0.0264 -0.3324  0.0865
50923W        W93836   7.152   4.931  29.269 -0.1399  0.2084 -0.2331
50924W        W93837  22.705  30.166  21.110  0.0144  0.2087 -0.0735
50925W        W93838  20.697  29.363  22.389  0.2133 -0.3521 -0.0645
50926W        W93839  10.799  30.216  22.440 -0.1406 -0.2147  0.0239
50927W        W93840   7.432  31.797  18.213  0.2474 -0.2024 -0.1652
50928W        W93841  16.691  29.844  18.450 -0.2310  0.2359 -0.0743
50929W        W93842   5.508  25.973  18.132 -0.2297  0.1128  0.3119
50930W        W93843  15.667   5.069  24.768 -0.2058 -0.3096 -0.0659
50931W        W93844   9.495  33.004  18.543  0.0125 -0.2825  0.1030
50932W        W93845   9.823  24.712  14.356 -0.0060 -0.2152 -0.0646
50933W        W93846  34.478  26.913  15.455  0.2019 -0.1570 -0.1136
50934W        W93847  20.479  26.137  21.727 -0.2107  0.0212 -0.2018
50935W        W93848   1.723  25.174   0.943  0.2901 -0.2327 -0.1284
50936W        W93849   9.465  33.052  28.090  0.1371 -0.4238  0.1933
50937W        W93850  17.065  33.850  16.944 -0.0585 -0.0332  0.0170
50938W        W93851   7.999   6.862  20.717  0.0048  0.2302  0.2234
50939W        W93852   7.553  30.429  16.265  0.2971  0.1302 -0.3755
50940W        W93853  13.785   1.634  21.915 -0.1127  0.3721 -0.0799
50941W        W93854   2.250  30.933  17.495  0.0590 -0.1649  0.1386
50942W        W93855  20.752  34.132  19.579 -0.3052 -0.1512  0.1759
50943W        W93856   3.024  22.085  19.777  0.1703 -0.2454  0.0212
50944W        W93857  13.652   1.520  18.112 -0.0580 -0.4269 -0.3019
50945W        W93858   8.006  23.318  17.848  0.1197 -0.1002  0.0174
50946W        W93859   6.629  14.834  22.851 -0.0717 -0.1714 -0.0059
50947W        W93860   6.013  10.952  23.286 -0.1865  0.0921 -0.0943
50948W        W93861  11.999   8.199   5.150  0.0991  0.0110 -0.0251
50949W        W93862   8.553  30.432  17.480  0.1826 -0.0678 -0.1378
50950W        W93863  12.847  33.123  20.224 -0.2718 -0.0476 -0.0319
50951W        W93864  10.839  29.722  20.891  0.2958 -0.1958 -0.0377
50952W        W93865  16.553   1.365  16.038  0.0283  0.2766  0.0607
50953W        W93866  25.034  30.453  21.632 -0.1058  0.1745 -0.0905
50954W        W93867  14.367   1.626  16.537  0.2363  0.1170  0.2864
50955W        W93868   5.484  31.449  16.624  0.0044  0.0366  0.1006
50956W        W93869  15.744  30.317  22.750 -0.0631  0.3015  0.2402
50957W        W93870   1.661   3.690  25.928 -0.3867  0.1856 -0.1441
50958W        W93871   9.611  30.354  21.355 -0.0597  0.2232  0.0951
50959W        W93872  10.731  30.427  28.190  0.1882 -0.3613 -0.0009
50960W        W93873   5.222  30.675  16.989  0.1627  0.1529  0.0489
50961W        W93874  10.011  33.637  28.211 -0.1385  0.2260  0.0020
50962W        W93875   4.971  32.363  19.068  0.2065 -0.1130  0.0003
50963W        W93876  26.482  27.943  16.134 -0.2366 -0.0104 -0.2151
50964W        W93877  25.535  32.000  15.603 -0.1639  0.1916 -0.2656
50965W        W93878  10.288  29.941  19.505  0.2021  0.2778 -0.3737
50966W        W93879  28.195   0.897  26.101  0.1243  0.2771 -0.1445
50967W        W93880  12.785  31.112  17.348  0.0620  0.0235  0.0607
50968W        W93881  10.547   1.462  29.441  0.1001  0.3340 -0.0107
50969W        W93882  10.416   0.589  24.935 -0.0210  0.1447  0.1778
50970W        W93883  24.839  11.366  27.253 -0.0908  0.2096  0.0433
50971W        W93884  12.885   2.482  19.035 -0.2804  0.1670 -0.1678
50972W        W93885  32.876  31.659  20.337 -0.1364 -0.0784 -0.0608
50973W        W93886   4.987  24.486  18.600 -0.1280 -0.1094 -0.2557
50974W        W93887  10.772  34.355  19.702 -0.0575 -0.1763 -0.3025
50975W        W93888   6.575  30.358  18.607  0.2621  0.3657 -0.1029
50976W        W93889  32.911   0.405  24.708  0.3263  0.0420 -0.3415
50977W        W93890   7.356  28.453  23.609 -0.1134  0.0378 -0.1052
50978W        W93891  15.494  28.235  16.124 -0.1006 -0.1853  0.3196
50979W        W93892  12.499  31.032  28.479  0.0449 -0.2436  0.0941
50980W        W93893  32.278  30.194  19.661 -0.0536 -0.0699 -0.0756
50981W        W93894   5.904  29.088  16.014 -0.0857  0.2869  0.1777
50982W        W93895  12.330  30.782   0.130  0.1657 -0.0408 -0.2244
50983W        W93896  10.271   0.027  18.936 -0.0967 -0.1495  0.0894
50984W        W93897   8.786  29.070  19.327  0.2428 -0.3741 -0.1169
50985W        W93898  22.051  14.374  17.122 -0.0457 -0.2268  0.2366
50986W        W93899  11.363  31.347  22.535  0.0213  0.0455 -0.3141
50987W        W93900   4.245  29.930   6.779 -0.0278 -0.1865  0.1154
50988W        W93901   7.152  13.433  17.611 -0.0791 -0.2637  0.2439
50989W        W93902   3.108  29.058  16.170 -0.1862 -0.0696 -0.0753
50990W        W93903   7.327  29.946  29.288  0.1813  0.0606 -0.1335
50991W        W93904  12.658   8.682  22.527  0.1845  0.2306  0.0235
50992W        W93905  12.185   8.119  20.916  0.1844  0.0022 -0.0237
50993W        W93906  15.361  34.314  27.249 -0.2946  0.0600 -0.2917
50994W        W93907  11.539  27.070  15.908  0.0581 -0.4097 -0.0280
50995W        W93908   2.940  28.516  23.595  0.0221  0.1422  0.1802
50996W        W93909  14.510  32.070  25.042 -0.1223  0.1465  0.1732
50997W        W93910   7.905  26.281  23.897  0.0490 -0.2585 -0.0156
50998W        W93911  10.357  30.292  22.223 -0.0280  0.0773  0.3411
50999W        W93912   8.283   4.316  18.702  0.1364 -0.0341  0.1203
51000W        W93913  19.054  32.729   5.110 -0.2038 -0.2987 -0.0367
51001W        W93914  32.199  22.558  24.451  0.4175  0.1121  0.0821
51002W        W93915   5.039  31.551  17.625  0.0033  0.3652 -0.2302
51003W        W93916  12.216  32.700  18.131  0.2948  0.0061  0.1880
51004W        W93917  11.468  19.970  21.044 -0.1498  0.2019 -0.1489
51005W        W93918   4.785   0.416  22.089  0.1370  0.2262 -0.2660
51006W        W93919  15.252   3.382  26.331 -0.1562  0.1923  0.1528
51007W        W93920   8.322   5.715  27.547  0.1025  0.1301  0.1770
51008W        W93921   5.124  31.725  20.169  0.2097 -0.1144 -0.0034
51009W        W93922  32.522   1.287  25.086  0.3290 -0.0930 -0.2775
51010W        W93923   3.841  25.459  22.883  0.0937 -0.2828  0.1818
51011W        W93924   0.719  26.797  23.879 -0.2462  0.2358  0.0894
51012W        W93925  13.985  14.058  14.554 -0.0915 -0.1441 -0.1438
51013W        W93926   2.258  32.531  23.513  0.0034  0.0010  0.1602
51014W        W93927  11.448  24.450  17.819  0.2231 -0.0268  0.0888
51015W        W93928   1.639  23.896  18.290  0.0127  0.0985  0.0107
51016W        W93929   9.940  31.964  21.262 -0.2808 -0.1293 -0.0483
51017W        W93930   7.144  31.619  17.017 -0.1636  0.1135 -0.0530
51018W        W93931  18.383  32.183  19.435  0.1631  0.0037  0.4537
51019W        W93932   8.066  33.027   2.719 -0.2065 -0.1241 -0.1227
51020W        W93933  20.656  19.082  23.676 -0.0308  0.0412  0.0085
51021W        W93934  10.146  25.999  23.845  0.2014  0.0853 -0.1899
51022W        W93935   8.440  28.641  24.795 -0.0140 -0.0869  0.3921
51023W        W93936  31.658   2.896  17.929  0.0296 -0.1562  0.3290
51024W        W93937  14.372  27.111  10.433  0.1347 -0.0627 -0.0930
51025W        W93938   6.450   6.378  21.514  0.3077  0.0009 -0.0751
51026W        W93939  22.487  21.929   2.324  0.0778  0.1424 -0.0005
51027W        W93940  32.983  29.124  22.609  0.0906  0.0074  0.1293
51028W        W93941  11.230   6.554  28.307  0.0177 -0.2005  0.1868
51029W        W93942   7.898  23.283  19.515 -0.1204  0.1567  0.1031
51030W        W93943   6.674  32.622  20.786  0.1625  0.0527 -0.1386
51031W        W93944  18.386  18.785  14.442 -0.0383  0.0773  0.0449
51032W        W93945  11.405   3.790  24.874  0.0741 -0.0261  0.1189
51033W        W93946   4.123  30.239  15.367  0.1245  0.1175  0.2045
51034W        W93947  27.068   6.420  21.411 -0.1168  0.0767  0.0654
51035W        W93948  12.730  31.315   0.645 -0.0085 -0.3471  0.1906
51036W        W93949  21.032  31.195  18.287 -0.2386 -0.1224 -0.1229
51037W        W93950  14.643  32.613  27.838 -0.2383  0.0309  0.0282
51038W        W93951  11.940  22.111   4.129  0.1906 -0.3011 -0.1606
51039W        W93952  10.548  21.330  23.009 -0.0354 -0.2972  0.0859
51040W        W93953  21.780  30.843  20.436  0.3040 -0.0336 -0.2769
51041W        W93954  10.566  28.231  26.200  0.2944 -0.0016 -0.4670
51042W        W93955   1.071  31.090  20.332 -0.0584 -0.1197 -0.0082
51043W        W93956  10.261  33.997  29.211  0.2881 -0.0016 -0.4273
51044W        W93957  11.835   1.640   3.057  0.0195 -0.1319  0.1103
51045W        W93958   6.854  17.123  25.810  0.2869 -0.3637 -0.3741
51046W        W93959  15.150   8.254  14.378 -0.2985  0.1248  0.2312
51047W        W93960  11.630   9.673  21.440  0.1568  0.1381 -0.0382
51048W        W93961  13.526  23.382  17.293 -0.1062 -0.2325 -0.2330
51049W        W93962   6.668  30.163  28.155 -0.0112  0.0097  0.1333
51050W        W93963  13.236  23.441  17.773 -0.1303 -0.2895  0.0222
51051W        W93964   4.121   0.388   4.060  0.2226 -0.1511  0.0067
51052W        W93965   1.940  20.053  19.738 -0.0476 -0.0759  0.1710
51053W        W93966  16.728   1.618  16.943 -0.3183 -0.0429 -0.2182
51054W        W93967  24.085   3.985  19.041  0.4608  0.1007  0.3637
51055W        W93968  23.913   3.675  23.315  0.0080  0.3739  0.0693
51056W        W93969  11.904   1.664  24.572  0.2763  0.0473 -0.1266
51057W        W93970   6.011  26.989  24.445  0.2726  0.1212  0.2309
51058W        W93971  13.784   3.374  24.472  0.0152 -0.3107 -0.2421
51059W        W93972  17.784  23.674  14.248  0.4655  0.1333 -0.0902
51060W        W93973   0.429   8.903  25.137 -0.3145 -0.0463  0.1808
51061W        W93974  10.687  33.374  24.860  0.0650 -0.0569 -0.0096
51062W        W93975  12.828  27.159  17.876  0.1274 -0.3514  0.0471
51063W        W93976  21.595  26.399  14.180  0.0614  0.1038  0.2381
51064W        W93977   5.551  20.434  24.812 -0.2577 -0.3462  0.2068
51065W        W93978   3.569  26.063   0.205  0.0023 -0.0364  0.1254
51066W        W93979  16.081  28.652  20.828 -0.2350  0.1920  0.1213
51067W        W93980  13.610  30.606  25.686  0.0691  0.0088 -0.0766
51068W        W93981  18.899  30.383  22.716 -0.0653  0.0742 -0.1149
51069W        W93982  14.292  33.099  16.298  0.0617  0.0223  0.0390
51070W        W93983   2.843   1.309  18.988  0.1264 -0.2801  0.2193
51071W        W93984  11.437  32.046  24.831  0.3069  0.1119 -0.0221
51072W        W93985  16.442  32.248   0.285  0.0756 -0.0201 -0.1074
51073W        W93986  30.502  26.199  20.400  0.2711  0.0055  0.2237
51074W        W93987  12.393   5.114  15.846  0.3216 -0.1351 -0.0857
51075W        W93988   9.687  29.215   0.286 -0.0874 -0.2772 -0.0152
51076W        W93989   3.647  26.711  24.254 -0.2092 -0.2712 -0.4985
51077W        W93990  15.983  28.309   0.582 -0.1909  0.0335  0.1351
51078W        W93991   5.491   0.684  18.166 -0.1986 -0.2611 -0.0235
51079W        W93992  11.571  30.095   0.528 -0.3090 -0.0892  0.2585
51080W        W93993  21.492  19.984   1.089  0.0576  0.0194 -0.1381
51081W        W93994  17.856   0.464  20.259  0.1563  0.1935 -0.1080
51082W        W93995   5.203  31.965  22.171 -0.2826  0.0264  0.2019
51083W        W93996  34.181   1.844  19.534 -0.1731 -0.0526 -0.1389
51084W        W93997   7.855   2.174  22.665 -0.2307  0.0939 -0.3394
51085W        W93998   0.087  28.504  25.974  0.1339 -0.0945  0.2993
51086W        W93999  10.685   4.115  22.938  0.0492  0.0335  0.1419
51087W        W94000  12.043   9.984   8.651  0.3565 -0.0396  0.0570
51088W        W94001   6.125   8.713  17.227 -0.3121 -0.1034  0.1167
51089W        W94002  34.140   0.397  21.930 -0.0126 -0.0059 -0.0583
51090W        W94003  23.433   7.101  15.815  0.1398 -0.0799  0.3100
51091W        W94004   9.507  30.834  23.259 -0.0754 -0.0742  0.0743
51092W        W94005   9.464  26.572  25.498 -0.1840  0.1159  0.0202
51093W        W94006   8.112  29.112  20.101 -0.0501 -0.1657 -0.0541
51094W        W94007   8.341  24.838  21.347  0.1654 -0.0246 -0.0903
51095W        W94008  29.859  30.137  23.575 -0.0582  0.0797 -0.1337
51096W        W94009   4.416  22.901   1.627  0.0270  0.2022  0.3033
51097W        W94010   9.773   3.645   2.594  0.1050 -0.2748 -0.2413
51098W        W94011   1.822  24.709  15.681 -0.0302  0.1892  0.0706
51099W        W94012   3.088   1.073  27.654  0.0400 -0.1095 -0.2709
51100W        W94013  11.593  30.922   2.784 -0.0604 -0.1205  0.1436
51101W        W94014   5.361  23.829  17.181  0.1222 -0.2833  0.1329
51102W        W94015   8.733   3.611  20.463 -0.1158  0.0311 -0.2752
51103W        W94016  11.082   4.465  25.242 -0.1552 -0.0579 -0.0990
51104W        W94017  20.297  32.671   1.017 -0.1823 -0.0425  0.1009
51105W        W94018  13.857  21.929  24.401 -0.2827  0.0101 -0.1431
51106W        W94019   5.738   1.173  27.497  0.1075  0.1157 -0.1089
51107W        W94020   8.167  32.911  26.114  0.3412  0.2306  0.1249
51108W        W94021  16.452  31.489   1.531 -0.1568 -0.1334  0.2173
51109W        W94022   9.097  26.974  23.340 -0.1896 -0.4166 -0.0014
51110W        W94023   4.520  20.961  14.877 -0.0122 -0.1171 -0.0968
51111W        W94024  13.126  19.642  27.692  0.1175 -0.0474  0.1332
51112W        W94025  16.153  29.653  18.611  0.1455 -0.1228 -0.0213
51113W        W94026  19.842   0.295  26.058  0.1946 -0.1180 -0.2729
51114W        W94027  14.709   1.234  18.749  0.0814 -0.0304  0.0762
51115W        W94028  12.998  32.263  16.210 -0.3337 -0.3205  0.2329
51116W        W94029   3.496  32.631  17.330 -0.0783  0.0859 -0.0099
51117W        W94030  10.757  26.447  29.119 -0.2163  0.4163 -0.3039
51118W        W94031   9.263  10.768  29.329 -0.0019 -0.0455 -0.3433
51119W        W94032   1.313  26.464  25.606  0.0206  0.3503 -0.2739
51120W        W94033  11.368  18.605  12.853  0.4567 -0.0201  0.1051
51121W        W94034  10.232  15.316  15.885 -0.2318  0.1204 -0.0176
51122W        W94035  16.302  26.884  21.397  0.1073 -0.1925  0.1951
51123W        W94036   2.585  33.670  16.100 -0.0532 -0.0430 -0.0754
51124W        W94037  21.990  27.173  29.378  0.0887 -0.0262 -0.0116
51125W        W94038  15.289  26.658  28.148 -0.2471 -0.0857 -0.0214
51126W        W94039   8.667   7.850  21.143  0.1301  0.2067 -0.0579
51127W        W94040  12.197  27.645  15.628  0.1006  0.2034 -0.2299
51128W        W94041   1.854  24.524  17.685  0.0865 -0.2562 -0.1727
51129W        W94042  16.527   1.876  25.626  0.1834  0.1016 -0.2317
51130W        W94043  12.487   5.962  18.446  0.1747 -0.0319 -0.0123
51131W        W94044  32.680   2.408  22.277 -0.1412 -0.0204  0.0437
51132W        W94045  34.120  34.493  21.518 -0.0704 -0.0716  0.3178
51133W        W94046   9.283   3.681  22.762  0.1609 -0.1620  0.0663
51134W        W94047   5.254  28.556  16.563  0.1060  0.0628 -0.1242
51135W        W94048  15.470  30.474  24.808 -0.2353  0.0001 -0.1809
51136W        W94049  12.065  26.543  23.879 -0.2849  0.1849  0.1154
51137W        W94050  13.201  22.803  18.948 -0.0165 -0.1012  0.0418
51138W        W94051   6.041   4.301  29.353  0.1790 -0.1787 -0.1605
51139W        W94052  12.995   0.604  23.607  0.4150  0.0392 -0.0380
51140W        W94053  16.594  31.241  25.277  0.2013 -0.0169 -0.0640
51141W        W94054  17.138  29.892  21.565 -0.1736 -0.1845  0.0147
51142W        W94055  16.937   5.947  23.959  0.0483 -0.0874 -0.0013
51143W        W94056   6.953  22.815  24.501  0.1473  0.2070 -0.0124
51144W        W94057  12.786  28.591  17.162 -0.1275  0.2097 -0.0585
51145W        W94058  17.236  30.792  20.441  0.0977  0.2485 -0.2803
51146W        W94059  26.751  29.730  21.171  0.1823 -0.0990  0.4039
51147W        W94060  27.214   2.938  15.895  0.1891  0.1624  0.1567
51148W        W94061   8.930   5.553  22.450  0.1495  0.2651 -0.1123
51149W        W94062  13.128   1.208  27.057  0.0547 -0.1233 -0.0635
51150W        W94063  12.000  30.680  19.513 -0.3457 -0.0256 -0.3340
51151W        W94064   8.733  32.988  26.361 -0.0506  0.2662  0.2538
51152W        W94065   5.266   2.954   2.987 -0.2344 -0.2353  0.1128
51153W        W94066   7.820  23.198  17.360 -0.1394  0.0860 -0.0921
51154W        W94067   7.302  10.316  28.353 -0.3216  0.2321  0.1091
51155W        W94068   8.109  26.588  25.448  0.0155  0.1597 -0.0264
51156W        W94069   1.215  26.383  24.192 -0.2393 -0.2607  0.0089
51157W        W94070  24.042  23.239  21.675 -0.0809 -0.1363 -0.2016
51158W        W94071   0.972  31.123  25.310  0.0319 -0.1378  0.1836
51159W        W94072  12.969  33.846   2.910 -0.0331 -0.4218  0.0739
51160W        W94073  12.262  31.876  27.609  0.1316  0.1986  0.1455
51161W        W94074  11.606  29.645  27.994  0.0135  0.0258  0.2851
51162W        W94075  21.695  27.791  22.767  0.0336 -0.0550  0.0736
51163W        W94076   3.513  30.354  24.488  0.3319  0.0513  0.0368
51164W        W94077   4.474   1.059  21.519  0.0547 -0.0256  0.1398
51165W        W94078  14.281   4.329  19.723  0.0326 -0.3315  0.1909
51166W        W94079  17.161  32.513  24.622  0.4630 -0.1736 -0.1136
51167W        W94080   1.886  28.400  21.752 -0.0879 -0.1272 -0.4093
51168W        W94081  15.549  21.210  19.980 -0.1178 -0.3651 -0.2441
51169W        W94082  16.788  29.351  17.514  0.1402  0.0537 -0.2373
51170W        W94083   0.873  29.830  21.439 -0.0945  0.2907  0.3525
51171W        W94084  12.850  27.002  25.208  0.2289 -0.0142  0.0006
51172W        W94085  18.940  26.014  17.142 -0.1787  0.1529  0.0125
51173W        W94086   8.923   6.630  21.738  0.0661  0.1998 -0.0990
51174W        W94087   9.643  18.757  14.529  0.0908  0.0848  0.0142
51175W        W94088  11.066  23.119  15.867  0.0952  0.0384 -0.1392
51176W        W94089  14.073   6.511  18.120  0.1560  0.2965  0.1415
51177W        W94090   5.727   1.654  16.739  0.0815  0.0390 -0.0679
51178W        W94091   9.495  33.224   8.224  0.0161 -0.1848 -0.2994
51179W        W94092   9.637  26.493  27.325  0.4309 -0.1545  0.2041
51180W        W94093  12.363   4.812   1.928  0.2512 -0.1177 -0.2289
51181W        W94094  12.957  31.455  27.741 -0.1566  0.1076  0.0296
51182W        W94095   9.070  30.902  20.412  0.2736 -0.1909 -0.1263
51183W        W94096  10.776  28.612  21.621 -0.1522 -0.1320 -0.0357
51184W        W94097   9.064  32.419  24.624  0.0481  0.2555  0.0634
51185W        W94098   5.908   2.848  27.045 -0.0259 -0.0854 -0.0175
51186W        W94099   7.197   2.648   1.978  0.0738  0.0757  0.2845
51187W        W94100  12.213  32.318  27.952 -0.0349  0.2285 -0.0671
51188W        W94101   2.996  27.687   0.769  0.2172  0.1901  0.0197
51189W        W94102   6.746  12.325  19.205  0.1659  0.3755 -0.1590
51190W        W94103   4.255  23.961  29.539  0.5250 -0.0340  0.0454
51191W        W94104   7.319  27.403  24.093  0.0761  0.1081  0.3682
51192W        W94105  13.856  29.013  15.787 -0.2839 -0.0963  0.0199
51193W        W94106   7.949  25.048  14.314 -0.3957  0.1806 -0.0654
51194W        W94107   5.894  31.028  24.471 -0.1934 -0.1883  0.0567
51195W        W94108   8.321  25.980  16.763  0.4017  0.1883  0.0917
51196W        W94109   5.413  24.710  29.579  0.1642  0.0311  0.0635
51197W        W94110  33.592   0.946  27.433  0.3990 -0.1367 -0.1513
51198W        W94111  11.552   3.779  18.187 -0.4148  0.1894 -0.1797
51199W        W94112  13.478  29.516  23.020 -0.0533  0.0637  0.2171
51200W        W94113   6.180  32.180  18.063  0.1124  0.0307  0.2351
51201W        W94114  10.370  32.078  19.936  0.1288  0.0601 -0.0677
51202W        W94115  13.548  11.508  21.244  0.1148  0.1241  0.0848
51203W        W94116  16.577  27.411  25.337  0.0914  0.0701 -0.2423
51204W        W94117   5.226   5.533  25.220  0.1352 -0.1222  0.0579
51205W        W94118   3.868   2.369  20.701  0.2948  0.0886  0.2977
51206W        W94119   5.621  32.828  17.202  0.0692 -0.0106 -0.0290
51207W        W94120  13.748  31.875  18.142  0.3736 -0.0539  0.2634
51208W        W94121  14.235  25.726  25.827 -0.1594 -0.0780  0.1339
51209W        W94122   0.223  28.139  23.164  0.1467  0.0394  0.0077
51210W        W94123   9.407   0.575  28.705  0.2908 -0.0570  0.1236
51211W        W94124   7.276  34.365   0.826  0.3819 -0.1316 -0.0499
51212W        W94125   5.200  32.477   0.415 -0.1140  0.0413  0.0008
51213W        W94126   5.967  33.818   5.185  0.0286  0.2930 -0.5102
51214W        W94127  13.511  21.283  27.915 -0.2064 -0.3022  0.0777
51215W        W94128   4.577  21.084  20.627  0.0160  0.1919 -0.0049
51216W        W94129  33.284  23.725  23.613 -0.1987  0.0936  0.0244
51217W        W94130  12.183   7.753  19.436 -0.0821 -0.1692 -0.0856
51218W        W94131   3.678  19.076  25.852 -0.2209 -0.3179  0.0612
51219W        W94132  10.240   2.216   3.868 -0.2046 -0.2333  0.1485
51220W        W94133   0.144  23.230  26.440 -0.4558  0.0606 -0.0311
51221W        W94134   1.726  32.214  19.838  0.0696 -0.1177 -0.3351
51222W        W94135   3.497   6.389   5.466  0.2145  0.3458 -0.0928
51223W        W94136   0.187  32.937   3.129 -0.3249  0.1125  0.0583
51224W        W94137  12.129  25.882   1.969  0.0943 -0.5098 -0.2880
51225W        W94138  32.329   1.878   2.803  0.2610 -0.0868 -0.0283
51226W        W94139  11.188  27.226  17.268  0.0114  0.0357 -0.0181
51227W        W94140  12.488   9.422   3.447 -0.1988  0.3524 -0.2582
51228W        W94141   9.242  18.057  22.649 -0.4633  0.1204  0.1841
51229W        W94142   8.553  34.410  23.020  0.1157 -0.1550 -0.2818
51230W        W94143   0.088   6.136  26.249  0.1349  0.0237  0.0874
51231W        W94144   1.304  26.910  24.754 -0.0615 -0.2544 -0.2726
51232W        W94145   7.543  31.712  29.002 -0.1833 -0.4598 -0.0648
51233W        W94146  14.885  31.290  19.401 -0.4054 -0.2872 -0.0136
51234W        W94147  10.032  31.606  29.361 -0.0030  0.1976 -0.0021
51235W        W94148   4.743  27.205  21.159 -0.1132  0.1826  0.0061
51236W        W94149   4.151  27.765  22.731 -0.1634  0.1033 -0.0824
51237W        W94150   9.933  30.068   1.106 -0.0572  0.0140 -0.2950
51238W        W94151   7.111  27.590  22.863 -0.2272 -0.1411  0.1612
51239W        W94152   7.829  28.986  24.012 -0.1240  0.3743 -0.0496
51240W        W94153  12.640  28.597   0.723  0.1441 -0.0930 -0.2961
51241W        W94154  13.201   2.619  21.322 -0.2199 -0.1983  0.1588
51242W        W94155  12.036  28.514  17.087  0.0092  0.0443 -0.1079
51243W        W94156   5.844   2.688  24.313 -0.0574  0.0199 -0.0467
51244W        W94157  10.017  20.387  25.128  0.1361 -0.0485  0.1244
51245W        W94158  11.238  25.838  19.759 -0.1045 -0.2690  0.0433
51246W        W94159  10.979   2.801   1.606  0.3127  0.3713  0.0827
51247W        W94160   7.912   5.018  20.701 -0.1910  0.1231 -0.1256
51248W        W94161   8.495   4.638  18.367 -0.0875  0.3204  0.0914
51249W        W94162   4.180  32.858  26.333  0.1659 -0.0452 -0.2822
51250W        W94163   3.892  31.773  22.004 -0.2057 -0.1950 -0.1251
51251W        W94164  33.792  28.877  24.052  0.0500 -0.3097  0.0156
51252W        W94165  34.398  27.059  22.935  0.0108  0.0139  0.0995
51253W        W94166  19.921  24.083   0.165 -0.1242  0.2512 -0.0920
51254W        W94167  27.921  28.520  22.942  0.4259 -0.3129 -0.1992
51255W        W94168  29.225   1.934  26.553  0.0933  0.0142 -0.5908
51256W        W94169  15.589   3.968  22.811  0.2846 -0.5588 -0.2507
51257W        W94170  14.021  31.559  22.317 -0.2263 -0.1391  0.1877
51258W        W94171  11.880  33.062   8.758 -0.0125  0.2956  0.3937
51259W        W94172  13.991  31.635   3.454 -0.2384  0.0726 -0.1096
51260W        W94173   5.155  27.484  24.086 -0.0821  0.3418 -0.1123
51261W        W94174   2.842  28.213  24.867  0.2782 -0.0103  0.1502
51262W        W94175   5.195  34.083  17.857  0.1080  0.3015  0.1657
51263W        W94176  26.183  34.346  24.986 -0.0907  0.0946 -0.2313
51264W        W94177   7.466   5.610  27.741 -0.2501 -0.1902  0.2687
51265W        W94178   6.076  26.313  28.253  0.0970 -0.2073 -0.1207
51266W        W94179   3.478  29.837  20.811  0.0682  0.0163  0.2411
51267W        W94180  10.775  21.480  25.927  0.0427  0.4314  0.1624
51268W        W94181   6.493  30.999  26.993  0.1055 -0.2305 -0.1455
51269W        W94182  17.237  25.527  22.148 -0.2473 -0.0445  0.1930
51270W        W94183  11.220  30.743  21.108  0.0183  0.0381  0.2588
51271W        W94184  13.228   1.375   0.070  0.0371 -0.1250 -0.0115
51272W        W94185  13.789  30.692  27.505 -0.1172 -0.4704  0.4465
51273W        W94186  12.060  33.012  15.794 -0.2105 -0.0824  0.2560
51274W        W94187  13.092  34.344  27.720 -0.1560  0.0870  0.0358
51275W        W94188   8.130  21.648  19.890 -0.2867 -0.2318 -0.0635
51276W        W94189  11.426  27.599  18.244  0.4165 -0.2308 -0.2130
51277W        W94190   5.733   4.548  23.319 -0.1783  0.3756 -0.2234
51278W        W94191   2.317   5.092  21.271 -0.1185  0.0109 -0.0355
51279W        W94192   5.887  28.085  26.492  0.0179  0.2080 -0.2414
51280W        W94193   9.416  29.005  26.166  0.4810 -0.0212  0.0353
51281W        W94194  18.321   1.656   2.592  0.0070 -0.0794 -0.1887
51282W        W94195  14.903  20.573  22.378  0.1239 -0.3017  0.1850
51283W        W94196   4.633   5.080  23.551  0.0225  0.2025  0.1296
51284W        W94197   2.928  12.756  24.026  0.0327 -0.2300 -0.0938
51285W        W94198   2.631  34.081  24.029 -0.0669  0.1153 -0.1219
51286W        W94199  10.761  20.263  18.634 -0.2731 -0.1367 -0.1738
51287W        W94200   8.567  31.325  18.590 -0.0317  0.2111  0.1052
51288W        W94201  10.417  29.322  24.388  0.2418 -0.0407 -0.1571
51289W        W94202  12.764  19.191   0.131 -0.3219 -0.0028 -0.2813
51290W        W94203   3.894  27.541  23.092  0.1153 -0.0501  0.0884
51291W        W94204   1.775  30.756  23.740  0.0232 -0.1283 -0.4199
51292W        W94205   7.455  27.289   3.394  0.2271 -0.0116 -0.1641
51293W        W94206  15.827   6.090   6.200 -0.2319  0.0852  0.2146
51294W        W94207  10.403  31.012  18.256 -0.0090 -0.1263  0.1498
51295W        W94208   9.516   2.974  19.496  0.2378 -0.0433  0.2219
51296W        W94209   3.844   0.900   3.449 -0.1741 -0.0987 -0.0521
51297W        W94210   2.846  23.143  16.613 -0.2772 -0.1764  0.0714
51298W        W94211  32.183  22.948  27.556  0.1584  0.1145  0.0572
51299W        W94212   7.042  28.097   6.445  0.2855 -0.2291 -0.2555
51300W        W94213   5.873  29.146  22.278  0.0907  0.1569  0.2307
51301W        W94214   4.137  18.147  29.420  0.6208 -0.0854  0.0679
51302W        W94215   8.331  33.010  19.236 -0.1527  0.4375 -0.1971
51303W        W94216  11.452   1.332   1.826 -0.4248  0.3214 -0.0577
51304W        W94217  24.668   1.554  19.396 -0.0990 -0.3831 -0.0709
51305W        W94218   5.984   0.234  27.502  0.1919  0.0325  0.2523
51306W        W94219   4.997  28.155  14.787 -0.1222  0.1111  0.3977
51307W        W94220  21.425  21.783   1.962  0.1343  0.1154  0.0066
51308W        W94221   7.240  27.984  23.350  0.0998 -0.0911 -0.0814
51309W        W94222  17.814  29.321  23.661  0.2193  0.2131 -0.5055
51310W        W94223   3.723  28.208  29.367  0.2466  0.1747 -0.2116
51311W        W94224  17.158  27.122  16.507 -0.1617  0.1037 -0.1454
51312W        W94225   1.334  34.163  27.089 -0.1517 -0.3543  0.0251
51313W        W94226  16.672  32.812  22.627 -0.1816 -0.3276  0.0410
51314W        W94227  16.572  20.512  23.774  0.1319  0.4396 -0.2736
51315W        W94228   3.071  30.919  23.488 -0.0859 -0.1123  0.1932
51316W        W94229   1.472  26.178  26.946 -0.1248  0.0513 -0.1564
51317W        W94230  15.937   4.879  18.368 -0.2012 -0.2609 -0.0086
51318W        W94231   7.784   0.592  28.946  0.0822 -0.0879 -0.2086
51319W        W94232  24.454   6.475  19.593  0.3231  0.0537 -0.3410
51320W        W94233   8.720  13.596  26.935  0.3724  0.2185  0.0958
51321W        W94234   9.730  34.495  27.334 -0.2018 -0.3420  0.0189
51322W        W94235  15.851  31.098  18.935 -0.0175 -0.0430  0.1166
51323W        W94236  16.005  29.108  28.918 -0.1157 -0.0537 -0.0142
51324W        W94237   9.714  21.397   3.133  0.0611  0.2672  0.2375
51325W        W94238  21.165  34.425  25.993  0.1252 -0.1318 -0.2183
51326W        W94239   0.762   2.189   1.932  0.2700 -0.2026  0.0669
51327W        W94240   5.429  26.304   0.921 -0.1050  0.3211  0.1347
51328W        W94241   4.142  12.802   2.867 -0.2336 -0.4134  0.0782
51329W        W94242   6.731  30.123  27.538  0.0498  0.0006 -0.3287
51330W        W94243  26.718   6.441  22.763  0.1885  0.1780 -0.0739
51331W        W94244   7.581  31.930  27.190 -0.3278 -0.0570 -0.1908
51332W        W94245  14.438  30.873   1.572 -0.2311  0.2233  0.0830
51333W        W94246  13.108  12.360  29.618  0.2132  0.0407 -0.1395
51334W        W94247   5.931  26.752  27.154 -0.0519  0.1434 -0.0264
51335W        W94248   5.603  22.147  25.134  0.1072 -0.2249 -0.2188
51336W        W94249  33.279  29.814  26.134  0.1797  0.0113 -0.3395
51337W        W94250  33.858  31.336  23.091  0.0202  0.1307 -0.3199
51338W        W94251   8.930   1.769  18.338  0.1525  0.1355  0.1395
51339W        W94252   5.444  24.769  14.402 -0.0618  0.1683 -0.1342
51340W        W94253  11.412   4.529  16.704 -0.1653 -0.1680 -0.0117
51341W        W94254   7.118  34.180  22.729 -0.2961 -0.1408 -0.0679
51342W        W94255  13.904  30.561  24.006  0.1489  0.0955  0.0326
51343W        W94256  23.603  33.046   0.641 -0.1269 -0.2027 -0.1226
51344W        W94257  17.897  30.205  27.382 -0.3707 -0.1706 -0.0686
51345W        W94258  15.626  29.331  18.582  0.0391  0.0444 -0.0305
51346W        W94259  19.291  24.370  23.608  0.1224 -0.0999  0.0889
51347W        W94260  22.191   0.952  14.445  0.1787 -0.0325  0.2834
51348W        W94261   8.565  34.358  21.854  0.2027  0.0420  0.0169
51349W        W94262   4.989  31.295   0.044  0.2272  0.1347 -0.1621
51350W        W94263  12.997  27.208   2.125 -0.0226  0.1927  0.1475
51351W        W94264   5.135  30.512  18.886 -0.0407 -0.2443  0.3473
51352W        W94265  16.776   0.298  19.606 -0.0286  0.2324 -0.0113
51353W        W94266  15.379   3.413  20.412 -0.1229  0.1541  0.0531
51354W        W94267  15.337  19.608  22.498 -0.0340 -0.0758 -0.1689
51355W        W94268  34.218  29.913   2.764  0.0249 -0.0327  0.0599
51356W        W94269  11.644   2.047  27.216  0.2027  0.1966  0.2047
51357W        W94270   6.065   3.693  21.546  0.2283 -0.3061 -0.2930
51358W        W94271   8.820  29.666  19.598 -0.1226 -0.2091 -0.0505
51359W        W94272   9.598   7.838  25.824 -0.3731 -0.1395  0.6448
51360W        W94273   4.164  28.508  19.342  0.3043 -0.1634 -0.0445
51361W        W94274   4.213   0.433  21.747 -0.1093  0.1701 -0.2111
51362W        W94275   2.665  30.882  26.448 -0.2367  0.0308  0.1470
51363W        W94276   3.966   7.509   6.389  0.0346  0.0855  0.0418
51364W        W94277  25.682  25.584  23.106 -0.0435  0.0574  0.1468
51365W        W94278   1.835  30.443  29.469 -0.2056 -0.4032  0.3891
51366W        W94279  26.615  24.317  28.786  0.1888  0.0057 -0.1069
51367W        W94280  15.646  29.080  23.432 -0.1770 -0.0968  0.0362
51368W        W94281  21.033  26.411  23.987 -0.1014  0.4677 -0.3671
51369W        W94282   5.635  14.293  17.593 -0.3441 -0.0107  0.1745
51370W        W94283  14.467   2.179  23.850 -0.0391  0.0306 -0.1725
51371W        W94284   3.121   2.244  28.957 -0.2045 -0.2073  0.1378
51372W        W94285  12.090  31.069  26.660 -0.2642 -0.0013  0.3359
51373W        W94286  14.917  26.235  22.730 -0.0803 -0.2421  0.0390
51374W        W94287   2.926   1.689   5.848 -0.1529  0.4318  0.1463
51375W        W94288  19.641  26.852   6.104 -0.1142 -0.0068 -0.1547
51376W        W94289   9.486  29.043  20.552 -0.0306 -0.0138 -0.0747
51377W        W94290   3.646   0.096  20.454 -0.3245  0.0678  0.1589
51378W        W94291  13.036  24.430  19.219  0.3995 -0.2222 -0.1076
51379W        W94292   5.352  30.863  23.518 -0.2453 -0.1346  0.0479
51380W        W94293  32.890  26.837  28.047  0.1185  0.5494 -0.2092
51381W        W94294   6.554   3.747   3.167  0.0245  0.1121  0.3949
51382W        W94295  28.944  33.366  24.213  0.0993  0.1816  0.3972
51383W        W94296   2.835  33.724   0.612 -0.1633  0.1392  0.2468
51384W        W94297   6.315  30.930  25.372 -0.0189  0.0048 -0.0456
51385W        W94298   7.578  17.527  17.242 -0.0581 -0.0069 -0.1457
51386W        W94299  13.381  24.133  28.372 -0.0866  0.0044  0.2084
51387W        W94300   8.308  24.651  10.287 -0.0496 -0.1842  0.0267
51388W        W94301  13.498  31.810  21.564  0.2758 -0.1046 -0.1862
51389W        W94302   4.189  30.084  23.930  0.2034  0.0143  0.0150
51390W        W94303   5.748   8.041  10.657  0.0962 -0.1695  0.0433
51391W        W94304  10.278  30.431  19.751  0.1248  0.1467  0.3206
51392W        W94305  12.616  32.169  24.769 -0.0373 -0.0592 -0.0896
51393W        W94306  13.704  33.262   5.517 -0.1489 -0.2432 -0.3020
51394W        W94307   0.796   3.752   1.073  0.1959 -0.3071 -0.3026
51395W        W94308   1.993  24.497  27.125 -0.1831 -0.3607 -0.0948
51396W        W94309   9.305   3.224  27.308 -0.1856  0.0008 -0.3937
51397W        W94310   2.491  29.418  15.666  0.2610  0.1560  0.1762
51398W        W94311  25.374  27.268  21.476 -0.0561  0.0520  0.1089
51399W        W94312   2.543  34.028  19.369  0.0456  0.2378  0.3027
51400W        W94313   2.026   6.181   0.799  0.2410 -0.1399  0.2031
51401W        W94314   9.537  31.391  22.845  0.1101  0.0508  0.0324
51402W        W94315   2.971  29.900  25.497  0.2622 -0.4234 -0.0640
51403W        W94316  16.173   6.175   0.273  0.0388 -0.1760  0.0122
51404W        W94317   4.563  33.837   4.646 -0.1775 -0.2016  0.0963
51405W        W94318   3.727  31.708  20.997  0.0633 -0.1096 -0.4462
51406W        W94319  27.744   4.806  27.351 -0.0249 -0.1042  0.0727
51407W        W94320   6.069  29.815  16.028 -0.1240 -0.2753 -0.2026
51408W        W94321   8.713  29.371  21.974  0.1334  0.0029  0.3387
51409W        W94322   6.625   2.469  21.365 -0.0370  0.0173 -0.1153
51410W        W94323  19.542  28.113  24.131 -0.0149  0.1997 -0.2684
51411W        W94324  20.813  24.976  20.896 -0.0970  0.0856 -0.2292
51412W        W94325  15.147  33.382  26.699  0.3632  0.0133 -0.0459
51413W        W94326  19.231  32.847  29.339  0.0662 -0.3994 -0.4953
51414W        W94327   4.953  28.995  25.869 -0.1109 -0.1309 -0.3691
51415W        W94328  11.389   1.754   4.619  0.3123  0.1163 -0.0358
51416W        W94329  12.500  10.335  19.488 -0.2211 -0.0321 -0.4060
51417W        W94330  15.288  22.471   6.407 -0.0209 -0.0464  0.2572
51418W        W94331   8.210  24.354  21.102  0.1373  0.0114 -0.1337
51419W        W94332  10.107   2.506  27.756  0.1238  0.2198  0.1395
51420W        W94333   7.633   0.944  27.282  0.1971  0.3323 -0.2436
51421W        W94334  19.527  20.728   6.727 -0.2219 -0.2473 -0.2403
51422W        W94335  10.066  34.238  23.237 -0.2585  0.0264  0.0425
51423W        W94336   0.487  25.489  28.094  0.4520  0.1061  0.1251
51424W        W94337  34.204   5.437  26.617 -0.1397  0.0633 -0.5383
51425W        W94338  13.447   4.662   9.989  0.1803 -0.3250  0.0215
51426W        W94339   7.007   6.269  23.660  0.1327  0.1825  0.0201
51427W        W94340   6.199   8.610  21.102 -0.0638  0.0637  0.1759
51428W        W94341  10.986  29.200   1.900 -0.0003  0.1861 -0.1677
51429W        W94342  14.535  23.808   1.544  0.0587  0.0257  0.0837
51430W        W94343   2.371  29.719   4.682 -0.0812 -0.1086 -0.2228
51431W        W94344   9.445  23.625  23.411 -0.0914  0.3297  0.3408
51432W        W94345  10.651  27.982  20.886 -0.2176 -0.1596  0.0942
51433W        W94346   8.267   2.092   5.778  0.0065  0.1035 -0.0168
51434W        W94347  13.811  32.628  23.762  0.2367 -0.0042 -0.1161
51435W        W94348  14.649  34.480  29.738  0.2569  0.1560  0.0148
51436W        W94349   1.053  33.279  27.972  0.1859 -0.1576 -0.0735
51437W        W94350   4.816   2.567   3.690 -0.2778 -0.1357  0.1650
51438W        W94351   2.455  26.515   4.134  0.0991 -0.2507 -0.1722
51439W        W94352   8.700  30.692   0.933  0.2621 -0.0489  0.0120
51440W        W94353  10.387  31.558   0.973  0.2235  0.1783 -0.2584
51441W        W94354  10.384  24.922   2.452 -0.0321 -0.2979 -0.1653
51442W        W94355   9.246   4.343  29.557  0.0055 -0.1535 -0.1377
51443W        W94356   7.773  23.003   6.190 -0.0905  0.0127 -0.0703
51444W        W94357  32.429  31.921  19.773 -0.0521 -0.0149  0.1719
51445W        W94358  14.290  30.437  26.950  0.1005 -0.2114  0.1149
51446W        W94359  16.076  32.589   1.154  0.2589 -0.1939  0.1158
51447W        W94360   8.765   3.677   1.575  0.1760 -0.0374 -0.2193
51448W        W94361  14.722   5.869  25.129 -0.0782 -0.1782  0.0427
51449W        W94362  12.853   2.749  27.865 -0.1102  0.0641 -0.1478
51450W        W94363   6.048  27.327  28.042  0.3071  0.1096  0.0263
51451W        W94364   9.295  31.417  27.827  0.4827  0.3757 -0.1979
51452W        W94365  12.143   7.686   0.825 -0.0152  0.2449  0.0026
51453W        W94366  13.383   1.538  22.960  0.0461  0.1680  0.1851
51454W        W94367  10.818   9.698  28.353 -0.1610  0.2632 -0.2827
51455W        W94368  10.436  28.675   4.667 -0.1203 -0.0622  0.0025
51456W        W94369  17.614  31.847  23.528  0.1161 -0.2439 -0.0297
51457W        W94370  28.292  22.863  28.739 -0.1393 -0.2632  0.4572
51458W        W94371  10.036  32.223  26.227 -0.2174 -0.1861 -0.0808
51459W        W94372   6.460  30.688  28.941  0.0549  0.0033  0.0979
51460W        W94373  31.628   0.414   4.602  0.0878 -0.1121 -0.3342
51461W        W94374  34.399  24.850  28.854 -0.1672 -0.2133 -0.3568
51462W        W94375  10.950  26.977  25.319 -0.2982  0.3056  0.0752
51463W        W94376   5.378  30.910   4.147  0.3031  0.1050  0.0105
51464W        W94377  18.507   6.051  25.808 -0.2304 -0.1644  0.0456
51465W        W94378   6.317  10.899  26.262  0.0684 -0.1525  0.1884
51466W        W94379  17.756   4.949  27.719  0.2086 -0.3126  0.3155
51467W        W94380  10.783  33.137  11.114  0.1977 -0.1132  0.0070
51468W        W94381   8.501  26.995   1.147  0.0433  0.0282  0.1221
51469W        W94382   7.278  27.671  25.564 -0.0593  0.0303 -0.1456
51470W        W94383  16.549  26.016  21.842 -0.1983  0.0919  0.0414
51471W        W94384  34.150   1.316   4.847 -0.0438  0.3882 -0.1125
51472W        W94385  20.119  31.493  22.144 -0.1242  0.1506 -0.3679
51473W        W94386  20.202  29.373  22.284  0.1217 -0.1808 -0.1117
51474W        W94387  14.868  29.921  22.535  0.1852  0.0365  0.1698
51475W        W94388   0.630  33.516  29.177 -0.0596 -0.3086 -0.1242
51476W        W94389   9.010  25.935   0.017 -0.0952 -0.1768 -0.0652
51477W        W94390  13.769  33.344  22.140 -0.0285  0.2792  0.3038
51478W        W94391   9.981  30.887  21.593 -0.0019 -0.0898 -0.3440
51479W        W94392  13.651  33.034  29.168  0.0970 -0.1057 -0.2889
51480W        W94393  13.145   0.084  25.879  0.2747 -0.0891  0.2064
51481W        W94394  11.421   2.669   2.887 -0.0133  0.0608 -0.2257
51482W        W94395   6.972  27.273  29.064 -0.3449 -0.0510 -0.0082
51483W        W94396  16.728  28.478   4.803 -0.1714  0.1760  0.5372
51484W        W94397  16.662  24.116  29.460 -0.2472 -0.0600 -0.1684
51485W        W94398   9.439   8.079   4.682  0.2053  0.1551  0.1494
51486W        W94399  21.706  34.333  17.516 -0.0013  0.3824 -0.0716
51487W        W94400  17.320  23.385  23.195  0.0752  0.1077 -0.0957
51488W        W94401   6.500  25.032  17.859 -0.1589 -0.0306 -0.1090
51489W        W94402  14.511  28.398  27.710  0.1496 -0.5602  0.0066
51490W        W94403   8.846   1.201   1.046  0.0107 -0.2418 -0.1096
51491W        W94404  11.788  32.607  19.470 -0.0913  0.0193 -0.0283
51492W        W94405   7.506  26.325   4.143 -0.0635 -0.2607  0.1728
51493W        W94406  11.423  34.401  21.917  0.5600 -0.1410 -0.3293
51494W        W94407  12.086  19.242   6.368  0.0406  0.1098  0.1940
51495W        W94408   8.461   8.278   0.901  0.1065  0.3594 -0.0455
51496W        W94409   1.340  29.550  21.909  0.1616  0.1307 -0.0530
51497W        W94410  11.264  32.959   3.382  0.0930  0.1446  0.1728
51498W        W94411  10.719   0.551   5.431  0.2333 -0.2411 -0.3447
51499W        W94412   4.000  24.185  26.344 -0.0395 -0.0494 -0.0324
51500W        W94413  33.898   7.073  29.027  0.2767  0.0300  0.2108
51501W        W94414  10.549  19.966   3.105  0.1939 -0.1347  0.1411
51502W        W94415  13.189   5.067   8.188  0.1624 -0.1821 -0.1178
51503W        W94416   0.642  33.193  28.264  0.1255  0.1270 -0.0333
51504W        W94417   9.518   2.184  27.126 -0.3002  0.2484 -0.0832
51505W        W94418   2.660   6.724   0.631 -0.3443  0.1178 -0.0750
51506W        W94419  11.111  27.322   8.735 -0.2049 -0.2686  0.2675
51507W        W94420   8.779  32.086  29.095  0.0468  0.2635 -0.2340
51508W        W94421   0.572   1.168   1.124  0.3764  0.4084 -0.0404
51509W        W94422   7.414  25.480   2.082  0.3490 -0.1913  0.1238
51510W        W94423  23.010  24.196   0.687 -0.0009  0.0898  0.1052
51511W        W94424  16.336   0.365   5.412  0.1085 -0.0296 -0.0904
51512W        W94425   6.864   0.459   7.380  0.0472  0.1177 -0.0060
51513W        W94426   2.324   6.317  29.299 -0.2459  0.0868 -0.0467
51514W        W94427  11.346  11.455  14.541  0.0551  0.2645  0.0154
51515W        W94428   4.679  27.631  21.418 -0.0363 -0.3201 -0.0270
51516W        W94429   5.311  18.230  22.898 -0.5081  0.1300  0.1762
51517W        W94430  20.683  13.909  26.142 -0.1913  0.1983  0.1723
51518W        W94431   1.824  33.808   6.975 -0.0277 -0.0267 -0.1603
51519W        W94432   4.479   0.253   2.435 -0.1285  0.3015 -0.1839
51520W        W94433  31.310  30.619   2.981 -0.0950 -0.0075  0.3125
51521W        W94434   3.135  23.667  27.868 -0.2377  0.3854  0.0000
51522W        W94435   8.779   6.427  12.055 -0.0736  0.0402 -0.0923
51523W        W94436   7.277   9.571   5.000  0.0059  0.2735 -0.2386
51524W        W94437  19.116  22.064  18.679  0.2139 -0.1847 -0.1587
51525W        W94438   8.931  27.644  27.518 -0.0113 -0.1830  0.3380
51526W        W94439  20.150   1.268  26.490  0.2310 -0.1812 -0.2026
51527W        W94440  12.096  30.654   2.596 -0.2499 -0.2948 -0.0380
51528W        W94441   0.840  28.319   5.986 -0.1927 -0.3022 -0.1436
51529W        W94442   9.546  19.952  29.775  0.0015 -0.2313  0.0341
51530W        W94443  11.453  30.228   2.077 -0.1687  0.0069  0.0672
51531W        W94444   8.213  32.937   8.769 -0.0285  0.2729  0.1670
51532W        W94445  18.521   4.700  22.047  0.2150  0.1381 -0.1953
51533W        W94446  14.758   4.031  23.269  0.0481  0.1193  0.1256
51534W        W94447  28.500  29.965  23.170  0.1552 -0.0336  0.4351
51535W        W94448   3.198  28.998  24.861  0.1185 -0.2549  0.0397
51536W        W94449   8.429  18.329   0.625  0.2055  0.2369 -0.1008
51537W        W94450  14.693  33.387  25.961  0.0125 -0.0090 -0.2108
51538W        W94451   1.624   3.425   0.906  0.1872 -0.0836  0.2777
51539W        W94452  17.855  26.862   3.431 -0.0821  0.1165 -0.0694
51540W        W94453  14.136  28.275  28.307 -0.0547 -0.0648  0.4117
51541W        W94454  11.286  29.268   9.147  0.3399  0.1714 -0.1260
51542W        W94455  34.048  27.812   4.639 -0.0396  0.1574 -0.0920
51543W        W94456   9.687   6.299   5.892  0.1838 -0.2140  0.0488
51544W        W94457   7.025  30.343   1.550  0.1575 -0.1268 -0.0942
51545W        W94458   9.913  22.470  20.763  0.3110  0.0551 -0.0588
51546W        W94459  19.101  24.083   3.430  0.0451  0.0090  0.2101
51547W        W94460  18.000  30.796   3.390 -0.0551  0.2526 -0.1437
51548W        W94461  25.312   2.448  22.779 -0.1555 -0.3288  0.3905
51549W        W94462   4.156  25.979  25.473 -0.3438 -0.1035 -0.1645
51550W        W94463   9.157  31.239   0.455 -0.0951 -0.1950  0.0570
51551W        W94464   7.426  29.595   3.738  0.2144 -0.3095 -0.0425
51552W        W94465   4.100  27.114  18.918  0.0853 -0.1119  0.0846
51553W        W94466  12.166  21.650   1.739  0.0099 -0.2469  0.2371
51554W        W94467   8.723  20.877  24.464  0.1856 -0.0358  0.2876
51555W        W94468   3.643  29.625  25.659  0.0080  0.0652 -0.0301
51556W        W94469  20.074  20.453  25.760 -0.2609  0.1761 -0.1228
51557W        W94470   4.453  20.643  23.672  0.5293  0.0074  0.1741
51558W        W94471   4.841  32.487  22.436  0.0069  0.0443  0.4350
51559W        W94472  15.929  32.012  25.257  0.0210  0.0829  0.0452
51560W        W94473  13.956  33.695  17.312 -0.0803  0.1957  0.0815
51561W        W94474   3.259   1.802  25.427  0.4542 -0.2601  0.4631
51562W        W94475   6.069  26.820  20.921 -0.4542  0.2594  0.1542
51563W        W94476  17.183   4.679   5.038  0.0786  0.2587  0.0078
51564W        W94477   6.868   8.705  28.861  0.1162  0.0999 -0.0358
51565W        W94478  15.765  16.099  27.504 -0.2374 -0.3824  0.1146
51566W        W94479   6.043  32.417  20.262 -0.0626  0.0337 -0.0483
51567W        W94480   4.272  28.340  26.004 -0.1237  0.3537  0.3131
51568W        W94481  13.656   0.434  16.148 -0.0551 -0.3681  0.1137
51569W        W94482   5.275  25.288   1.656 -0.0554 -0.2933 -0.2270
51570W        W94483  20.365  28.774   2.746  0.2907 -0.2613  0.1072
51571W        W94484  21.204  33.649   7.672 -0.0869  0.0819 -0.0818
51572W        W94485  12.050   6.190  28.396  0.1272 -0.1236  0.2161
51573W        W94486   9.694   5.232  25.121 -0.0506  0.1745 -0.0477
51574W        W94487  31.450   4.749   9.758  0.0749 -0.1271 -0.1305
51575W        W94488   9.453  33.789  22.413  0.1695 -0.1783 -0.0081
51576W        W94489  16.708  28.739   2.144  0.2897  0.4807 -0.1595
51577W        W94490  12.484  25.564  28.461  0.2533  0.1900 -0.2346
51578W        W94491  13.819  34.452  29.376  0.0138 -0.3213 -0.1027
51579W        W94492   5.653  33.969   1.429 -0.1827  0.0501 -0.4489
51580W        W94493   8.120  31.408  27.802  0.1286  0.0687  0.0403
51581W        W94494   9.407  20.866  26.239 -0.0564 -0.1532  0.0282
51582W        W94495   6.747  28.572  25.940 -0.0684 -0.0440 -0.1127
51583W        W94496  14.297   5.041  25.266  0.0731  0.2417  0.1148
51584W        W94497   6.037  27.174  29.242 -0.2750 -0.0505 -0.0794
51585W        W94498   6.958  27.919   5.566  0.3331 -0.0029  0.3147
51586W        W94499   8.095  13.819  29.644 -0.2291  0.0694 -0.1734
51587W        W94500   6.193  34.292   6.716  0.0882 -0.1124  0.0291
51588W        W94501  11.986  25.303  27.507 -0.0077 -0.1354  0.0861
51589W        W94502   1.082   0.152   3.430 -0.2366 -0.1745  0.0888
51590W        W94503   8.924  32.269  22.952  0.0076  0.0819 -0.0176
51591W        W94504  10.949  30.482  27.268  0.1589  0.1327  0.2058
51592W        W94505   8.682  27.098  29.482 -0.0206  0.2943  0.2158
51593W        W94506  11.101  19.682  27.232  0.0942 -0.1762 -0.1668
51594W        W94507   7.550  29.568  29.026  0.2273 -0.2627 -0.0919
51595W        W94508  15.281   2.703  28.789 -0.0749  0.1472  0.1362
51596W        W94509  32.667   5.763  25.499 -0.4200  0.1850 -0.1974
51597W        W94510  15.065   9.331   9.260 -0.1140  0.2110 -0.0113
51598W        W94511   8.437   6.973  25.915  0.1219  0.1731 -0.1399
51599W        W94512  10.947  33.586  25.790  0.0148 -0.1737 -0.2635
51600W        W94513   7.511   0.886  25.163 -0.1103 -0.2722  0.2654
51601W        W94514   0.159  34.334  23.809 -0.1218  0.0612 -0.0363
51602W        W94515  14.335  34.307  29.347  0.0336  0.0295  0.0910
51603W        W94516  10.584  26.009  28.860 -0.1098  0.0593 -0.0227
51604W        W94517   2.575  29.797  29.556 -0.1360  0.2026  0.0291
51605W        W94518  16.659   0.121  26.434 -0.0967 -0.2318 -0.1446
51606W        W94519  23.395  31.804  24.745  0.2524  0.0097  0.2009
51607W        W94520  10.520   0.008  11.316  0.0280 -0.0859 -0.0342
51608W        W94521  11.994  27.183   4.106 -0.1148  0.1531  0.1255
51609W        W94522  32.225   5.763  28.470  0.2205  0.0749  0.3248
51610W        W94523  15.801  32.188  20.096 -0.1180 -0.0224  0.0314
51611W        W94524   4.790  10.886  24.363 -0.0879  0.0821  0.2793
51612W        W94525   9.106  30.557  27.533 -0.0660  0.1423 -0.0418
51613W        W94526   5.427   1.357   2.673 -0.1071  0.0649  0.0421
51614W        W94527  10.906   3.990   0.778 -0.2611  0.2466 -0.0254
51615W        W94528  33.322   9.074  22.651  0.0885  0.1960  0.0476
51616W        W94529   6.536  31.457  24.666 -0.2801  0.2907  0.0347
51617W        W94530  25.915  23.471  22.291  0.3101  0.0019 -0.0392
51618W        W94531  12.687  33.718  26.845  0.1918  0.3930  0.1117
51619W        W94532   6.097  30.890  24.030 -0.2136  0.0068  0.0914
51620W        W94533  13.137  32.036  23.372  0.0417 -0.2303 -0.0737
51621W        W94534   9.975  31.692  20.877  0.0670 -0.1541  0.1090
51622W        W94535   2.887  27.484   2.241  0.0452 -0.0182  0.0649
51623W        W94536   2.040  26.293  27.907  0.0540 -0.1468 -0.0694
51624W        W94537   7.811  31.594  24.368 -0.2464 -0.0998 -0.0365
51625W        W94538   7.146  34.480  23.814  0.0549  0.0447 -0.1056
51626W        W94539  32.404   2.411  10.303 -0.0843 -0.0900 -0.1582
51627W        W94540   9.139   3.742  11.474  0.0472  0.0464  0.0969
51628W        W94541  16.101   0.875   9.805 -0.0722 -0.0672  0.2067
51629W        W94542  12.794  31.825  23.002  0.1467  0.0946  0.2301
51630W        W94543   5.482  27.192  21.436  0.0334  0.1620 -0.2129
51631W        W94544  15.840  32.189   5.095  0.0352 -0.0326  0.1701
51632W        W94545  18.131   5.588  29.039 -0.4986 -0.0207 -0.1382
51633W        W94546  13.857   3.221  23.235  0.0359 -0.1622  0.0262
51634W        W94547  31.515  31.661   0.609 -0.1001 -0.1981  0.2046
51635W        W94548   1.040   1.434  23.813 -0.0390  0.3723  0.0026
51636W        W94549  13.889  34.195   0.177  0.3625  0.1600  0.0304
51637W        W94550   0.638  28.413  28.336 -0.2433 -0.0647 -0.4346
51638W        W94551  10.871  30.053  24.487 -0.1416 -0.0245  0.1112
51639W        W94552  27.449   1.263   2.563 -0.3082 -0.0365 -0.0735
51640W        W94553   0.619  25.904   7.662 -0.1360 -0.3334  0.3445
51641W        W94554  11.708  20.691  26.026  0.0323 -0.3300 -0.1189
51642W        W94555  20.176   2.743  28.705  0.3041 -0.4444  0.1141
51643W        W94556  13.854  25.618  14.326 -0.1482  0.2125 -0.0960
51644W        W94557  16.103   4.235   0.456 -0.2510 -0.0299  0.0062
51645W        W94558   1.962  32.059   4.519 -0.1798  0.0562 -0.0664
51646W        W94559  12.248  29.375  21.271 -0.2071 -0.0919 -0.0411
51647W        W94560   8.655  31.915  26.858  0.0669 -0.1330  0.1133
51648W        W94561  13.522  24.469  28.741  0.2932  0.3185 -0.1183
51649W        W94562  13.258  32.401  10.643 -0.0211  0.0906 -0.0753
51650W        W94563   3.924  29.966   2.999  0.1246  0.3866  0.0823
51651W        W94564  11.290  32.784  29.774  0.3650 -0.1179  0.0464
51652W        W94565  14.703  27.787   1.051 -0.1795 -0.1049  0.0012
51653W        W94566  15.088   0.625   9.904  0.3185  0.1861 -0.2184
51654W        W94567  32.108   6.253   5.000  0.0722  0.2334  0.0110
51655W        W94568  14.939   6.842   5.945 -0.0130 -0.1140  0.2172
51656W        W94569  15.913  28.235   8.068  0.1994  0.4874  0.4972
51657W        W94570  12.884  30.500   0.612  0.3197  0.0264 -0.2223
51658W        W94571  16.466  31.621   2.722  0.0709 -0.2138 -0.0762
51659W        W94572  16.304  25.088  14.016  0.1025  0.2874  0.1089
51660W        W94573   8.947  23.460  24.169  0.0786  0.0534  0.0722
51661W        W94574   9.495   5.906   1.341  0.0238 -0.2146  0.1465
51662W        W94575  32.608  30.531  10.370 -0.4331 -0.0881 -0.1119
51663W        W94576  31.922   6.457   8.689 -0.1658 -0.2140  0.0860
51664W        W94577  11.611  26.758   2.172  0.0590  0.1424  0.0652
51665W        W94578  18.170  11.857  27.344  0.5080  0.1505  0.3277
51666W        W94579   2.239   3.075  29.739 -0.1716 -0.0527  0.2651
51667W        W94580   8.418  24.644   7.400  0.0973 -0.1260 -0.0355
51668W        W94581   9.984   0.913   1.700  0.3218  0.0955 -0.1275
51669W        W94582  10.012  31.271   0.755 -0.1099 -0.0102 -0.0862
51670W        W94583  20.841  32.734   0.908  0.0756  0.2245  0.0723
51671W        W94584   6.802  31.611  21.428 -0.0577 -0.2670  0.0088
51672W        W94585  11.486  29.891  20.002  0.1160  0.0981  0.1874
51673W        W94586  13.173  22.745  27.764  0.4563  0.1385 -0.2696
51674W        W94587  21.385   2.789  13.603  0.2756 -0.2466  0.2157
51675W        W94588   7.867   3.371  25.769  0.2296 -0.1406  0.1235
51676W        W94589   8.265   0.116  28.333  0.0067  0.1678  0.0949
51677W        W94590  33.561  29.880  23.141 -0.0848 -0.0515  0.2304
51678W        W94591   8.036  31.285  16.848 -0.1863 -0.1223  0.0317
51679W        W94592  19.752   5.588  25.964 -0.2962 -0.1737 -0.3310
51680W        W94593   7.214  11.923  18.039  0.0749  0.1341 -0.1137
51681W        W94594   4.174  28.335  18.736 -0.0296 -0.0266  0.4878
51682W        W94595  10.780  30.605  17.110  0.0225 -0.1056 -0.2102
51683W        W94596  21.467  32.603  17.906  0.1345 -0.0731  0.0961
51684W        W94597  16.278   5.045  22.057 -0.2183  0.2792 -0.3163
51685W        W94598  26.209   8.909  20.182  0.0958 -0.4077  0.0178
51686W        W94599   9.069  30.899  24.665  0.0684  0.0009  0.2246
51687W        W94600  18.380  22.440  21.223 -0.0687 -0.0002 -0.0241
51688W        W94601   7.199   3.812  29.540  0.1893 -0.0290  0.0701
51689W        W94602  12.147  11.491  20.196  0.0301 -0.0698 -0.0106
51690W        W94603  11.947   6.192  23.150 -0.2369 -0.1315 -0.2371
51691W        W94604  16.076   5.914  15.808  0.2820  0.2677  0.0106
51692W        W94605  27.393   4.675  22.307 -0.0889 -0.1163  0.3439
51693W        W94606   1.423   9.538   0.705  0.1348  0.1704  0.2939
51694W        W94607   9.256   7.871  17.862  0.0159 -0.1995  0.1034
51695W        W94608  21.754   2.665  15.519 -0.0026 -0.2806 -0.4426
51696W        W94609  17.520  33.636  21.856  0.0520  0.1714  0.0304
51697W        W94610  11.435  21.863   0.472 -0.1423  0.4901 -0.1739
51698W        W94611  27.966   1.225  15.562  0.1096 -0.0570 -0.1096
51699W        W94612  12.879   6.358  28.079  0.1424 -0.1696  0.1312
51700W        W94613   5.531   2.889  17.180  0.1186 -0.2173  0.0368
51701W        W94614  19.458   2.667  19.798 -0.2969  0.1208  0.0620
51702W        W94615   1.926   6.259  22.323 -0.0132  0.0691  0.1974
51703W        W94616  15.947   4.513  17.473  0.7275 -0.1728 -0.0869
51704W        W94617  18.908   7.516  21.069 -0.6307  0.0990  0.0030
51705W        W94618  11.446  26.841  16.366  0.1380 -0.1305 -0.1845
51706W        W94619   9.153   7.098  19.871 -0.5051  0.0816 -0.0707
51707W        W94620   6.464   3.640  17.829 -0.0188  0.1852 -0.1664
51708W        W94621  20.767   9.759  27.087 -0.1685 -0.1957 -0.0338
51709W        W94622  14.688  29.627  28.281 -0.3066  0.1317 -0.0684
51710W        W94623   5.308   1.381  20.245 -0.1661 -0.1610 -0.0211
51711W        W94624  13.432   7.092  20.031 -0.0472  0.0118  0.1618
51712W        W94625  16.544  33.533  17.980 -0.1763 -0.1520 -0.1430
51713W        W94626  15.138   3.844  20.307 -0.0678  0.0360 -0.0683
51714W        W94627  17.241   1.542  18.714  0.3051 -0.1795  0.1205
51715W        W94628  25.196   8.017  22.286  0.0587  0.0305 -0.0897
51716W        W94629   9.568  29.266  20.107 -0.2860 -0.0964  0.0207
51717W        W94630  12.688   2.703   0.534  0.1004 -0.1373 -0.3200
51718W        W94631  16.964   7.079  18.046  0.0695 -0.3196 -0.0994
51719W        W94632  18.440  33.159  18.555  0.1922 -0.2253 -0.0255
51720W        W94633  16.066  17.456  12.226  0.2541  0.0661 -0.0874
51721W        W94634   9.241  29.786  18.766 -0.3257  0.0296 -0.0968
51722W        W94635   7.314  31.577  24.211  0.2371 -0.0786 -0.1460
51723W        W94636   6.697   0.876  20.474  0.0748 -0.1653  0.4619
51724W        W94637  18.540   7.604  13.947 -0.1643 -0.0515 -0.1846
51725W        W94638  13.123  32.246  24.309  0.0315 -0.2697  0.0155
51726W        W94639   3.404  27.151  29.610  0.1931  0.0223  0.2935
51727W        W94640  10.529   7.615  23.578 -0.1992 -0.1631 -0.2878
51728W        W94641   5.940  27.341  23.583 -0.0289 -0.0681  0.2445
51729W        W94642   2.778  32.596  19.766 -0.3079  0.0539 -0.0869
51730W        W94643  15.410  28.642  17.482 -0.1830  0.0573 -0.1051
51731W        W94644  20.948   6.788  14.144 -0.3701  0.2282 -0.1479
51732W        W94645   3.410  28.505  25.630 -0.2733  0.2511 -0.4063
51733W        W94646  17.705   3.624  22.276  0.1472  0.2433 -0.1621
51734W        W94647  14.794   4.224  19.251 -0.1660 -0.0000 -0.0984
51735W        W94648  14.500   3.735  19.592  0.1119 -0.4329  0.1768
51736W        W94649   9.241  10.717  21.696 -0.1376 -0.1682 -0.1443
51737W        W94650  11.829   0.945  27.776 -0.1008  0.0125  0.1258
51738W        W94651  21.793  30.199  24.778  0.0861 -0.0415  0.2545
51739W        W94652  19.723   0.849  23.727 -0.1912  0.3262  0.1344
51740W        W94653  11.252  32.595  17.293  0.4728  0.2290 -0.0255
51741W        W94654   6.931   5.327  20.299  0.0032 -0.1288 -0.1002
51742W        W94655  28.389   2.913   8.966 -0.1614  0.5198  0.2470
51743W        W94656  11.776  23.447  18.732 -0.0988  0.0143 -0.0331
51744W        W94657   8.813  14.655  21.308 -0.1782 -0.1908 -0.0272
51745W        W94658  18.937   2.681  19.254  0.0305 -0.1647  0.2463
51746W        W94659  17.669   1.996  17.389 -0.2335  0.3554  0.0931
51747W        W94660  19.266   6.672  18.359  0.0573  0.1350  0.1233
51748W        W94661  22.527  29.440  21.230  0.0183  0.1591  0.0514
51749W        W94662  13.896  32.760  27.666  0.0899 -0.1393  0.0613
51750W        W94663  12.824  33.719  25.446 -0.0424 -0.1202 -0.0037
51751W        W94664   7.903  10.906  21.456  0.0811 -0.1848  0.3094
51752W        W94665   5.772  30.557  16.983 -0.1308 -0.3502 -0.0170
51753W        W94666  16.529  30.888  21.527 -0.1095  0.0023 -0.0905
51754W        W94667   3.947  31.700  17.768 -0.2380  0.0722 -0.0571
51755W        W94668   1.109   1.181  16.498  0.1105 -0.0986 -0.1208
51756W        W94669  20.414   5.938  21.160 -0.0124 -0.1984 -0.1488
51757W        W94670  18.259  31.431  18.550  0.0671  0.0192  0.0449
51758W        W94671  23.796  24.469  15.675 -0.0342  0.1117 -0.1241
51759W        W94672   8.904  32.969  20.677 -0.0934 -0.2207  0.1861
51760W        W94673  29.991   3.058  20.974  0.0798 -0.1950 -0.3197
51761W        W94674  23.460  27.689  16.453  0.2920 -0.0947 -0.0836
51762W        W94675  23.131  32.836  13.776 -0.1997 -0.2238  0.1013
51763W        W94676   6.643   2.448  19.594 -0.0140 -0.0428 -0.1085
51764W        W94677   9.724  30.457  18.148 -0.2434  0.2261  0.3105
51765W        W94678   1.557   5.138  17.293 -0.0746  0.0938 -0.3378
51766W        W94679   6.115   9.061  21.469 -0.0568  0.1323 -0.0538
51767W        W94680   2.311   7.846  19.031 -0.2925 -0.0213 -0.1205
51768W        W94681  10.838  29.260  25.931 -0.0483  0.0948 -0.0157
51769W        W94682  26.947   2.310  14.600 -0.0411 -0.1266  0.2450
51770W        W94683  14.870   0.953  25.681  0.1060 -0.1114 -0.0023
51771W        W94684  20.583  10.826  22.588 -0.2395  0.1582  0.1074
51772W        W94685   9.638  32.597   5.089  0.3425  0.0282 -0.0497
51773W        W94686   8.712  32.152  19.222  0.2018  0.1618  0.2795
51774W        W94687  18.492   6.704  17.679  0.1173 -0.1753 -0.0531
51775W        W94688  16.990  11.782  14.503 -0.1504 -0.0385  0.1922
51776W        W94689  13.867  23.925  13.664 -0.1048 -0.1200  0.2423
51777W        W94690   7.938  23.917  22.838 -0.1749 -0.0057  0.2171
51778W        W94691  12.461  33.892  17.554 -0.1929  0.4565 -0.1510
51779W        W94692  33.397  29.253  25.809  0.2151  0.3226  0.3083
51780W        W94693  26.810   5.313  15.496  0.0903 -0.1097  0.0331
51781W        W94694  13.828   1.730  16.633 -0.0562 -0.1822  0.1363
51782W        W94695  26.393  11.564  15.162 -0.3136 -0.0384 -0.0788
51783W        W94696   8.064   0.417  19.387  0.1344  0.1592 -0.3384
51784W        W94697  11.499  33.983  20.614  0.0754 -0.1453  0.2519
51785W        W94698   8.558   5.927  25.432  0.1196 -0.0621 -0.0335
51786W        W94699  30.516  32.901  18.205 -0.1171  0.2110 -0.3914
51787W        W94700  13.313  27.178  26.703  0.0176  0.0272 -0.2641
51788W        W94701  13.348   7.065  27.721 -0.2344  0.1700 -0.1422
51789W        W94702  20.760   9.059  17.957  0.1700 -0.2735 -0.1264
51790W        W94703  10.326   7.207  20.729 -0.1676 -0.1612  0.2022
51791W        W94704  17.935  30.805  15.428 -0.0923  0.1543  0.0201
51792W        W94705   6.519   9.998  18.985 -0.1855  0.0084 -0.3929
51793W        W94706  17.370  31.463  28.183 -0.0194  0.1544 -0.0697
51794W        W94707  14.450  32.000  25.938 -0.0747 -0.0815  0.0871
51795W        W94708  23.682  24.759  24.097  0.0109 -0.3481  0.3658
51796W        W94709  15.446  10.432  12.324 -0.3922  0.0278  0.0242
51797W        W94710   8.943   4.558  21.567  0.0883  0.2518 -0.1043
51798W        W94711   9.390  30.332  24.603 -0.0316  0.3594 -0.0791
51799W        W94712  22.826  30.975  16.588  0.2096  0.0963 -0.0697
51800W        W94713  19.817   5.880  20.437 -0.2292  0.1106 -0.1013
51801W        W94714   8.121   1.333  19.118  0.1404 -0.0215 -0.0818
51802W        W94715   8.011  31.987  23.113  0.0096 -0.1880 -0.1173
51803W        W94716  10.484   2.198  26.614 -0.2440  0.2639  0.3372
51804W        W94717   9.685  31.297   3.971 -0.2287 -0.0138  0.0403
51805W        W94718   1.176   1.812  20.051 -0.3640  0.0440 -0.1211
51806W        W94719  12.776   0.110  21.228 -0.0715 -0.1526  0.1189
51807W        W94720   9.698   6.014  17.761  0.3151 -0.1483  0.2187
51808W        W94721   1.526   6.909  19.405 -0.0344 -0.1423 -0.0289
51809W        W94722  12.253  25.400  23.229  0.1746 -0.0140 -0.2327
51810W        W94723  10.159   8.278  15.913  0.2200  0.1041  0.1608
51811W        W94724  19.289  32.635  19.194 -0.0794 -0.2120  0.2718
51812W        W94725   4.308  33.287  21.160 -0.0644  0.1240  0.1515
51813W        W94726   8.142  32.302  28.322 -0.2427  0.3119 -0.0432
51814W        W94727  33.487   1.757  21.012  0.0615 -0.0095 -0.1067
51815W        W94728  20.033   3.978  15.548 -0.0265 -0.0593 -0.3056
51816W        W94729  17.202   7.246  16.544 -0.1133  0.0234 -0.2331
51817W        W94730  14.721   2.191  18.929  0.2238  0.2323  0.4374
51818W        W94731   2.344  28.968  23.100 -0.1317 -0.1263 -0.0739
51819W        W94732  21.125   0.462  14.886 -0.1617  0.2429 -0.1406
51820W        W94733  10.534  25.495  18.762  0.0028 -0.4716 -0.1802
51821W        W94734  11.948  32.009  21.690 -0.0305 -0.0188  0.1122
51822W        W94735  20.484   7.037  13.823  0.0422  0.3263 -0.0923
51823W        W94736  12.615  28.677  19.989  0.1696  0.0246 -0.0898
51824W        W94737   7.777  29.159  24.509  0.0505  0.0857  0.1994
51825W        W94738   5.838  34.347  21.341 -0.0228 -0.1775 -0.2443
51826W        W94739  25.505   5.953  23.741 -0.2322 -0.1448  0.0119
51827W        W94740  18.806  29.312  14.949 -0.2661 -0.0958  0.1431
51828W        W94741  18.286  33.022  25.326  0.3050 -0.3905  0.2125
51829W        W94742   0.946  28.342  20.385  0.0526  0.1150  0.0079
51830W        W94743   8.671  33.642  18.219 -0.1498 -0.1265  0.1301
51831W        W94744  28.727   1.631  18.165 -0.2980  0.3344 -0.0329
51832W        W94745   3.871  30.640  19.182  0.0885  0.0330 -0.3733
51833W        W94746  15.203  27.092  26.328 -0.3760  0.0525  0.2700
51834W        W94747  15.400  31.242  19.109  0.0348 -0.1333 -0.2197
51835W        W94748  34.453   4.515  27.736 -0.0035 -0.2454  0.0153
51836W        W94749  22.826  12.130  15.681  0.2520  0.1510 -0.1273
51837W        W94750  11.588   4.757  21.521  0.1357 -0.0547 -0.2337
51838W        W94751  15.953   3.680  20.222 -0.1890 -0.0498  0.1704
51839W        W94752   4.450   3.165  18.037  0.2263  0.2208  0.1240
51840W        W94753  20.412   3.997  15.183 -0.1723  0.0255 -0.0462
51841W        W94754  11.411  18.590  17.659  0.1845 -0.1226 -0.0502
51842W        W94755  13.829   1.107  19.555 -0.0011  0.1706 -0.0178
51843W        W94756  15.690  31.218  15.584  0.7842 -0.0272 -0.2480
51844W        W94757   8.688   1.258  24.322 -0.1605 -0.0394 -0.4490
51845W        W94758  21.406  28.066  23.562 -0.0759  0.1041 -0.0328
51846W        W94759  13.857   3.378  17.132 -0.0331 -0.3771 -0.0394
51847W        W94760  13.339   2.009  17.580  0.0887 -0.1038 -0.1866
51848W        W94761  13.396  28.534  20.815  0.0215  0.0676  0.0207
51849W        W94762  15.735   3.892  16.774  0.0822 -0.0040 -0.2384
51850W        W94763   7.165  21.494   1.357 -0.2229 -0.2990  0.2576
51851W        W94764  13.773  23.939  25.061  0.1396  0.2637  0.0693
51852W        W94765  19.607  32.147  20.736 -0.1048  0.0719 -0.4424
51853W        W94766  10.445   7.190  17.407 -0.1420 -0.0858 -0.2192
51854W        W94767  10.777  24.840  22.583 -0.1419  0.0010  0.0192
51855W        W94768   6.245   3.479  17.042 -0.0530 -0.1305 -0.0794
51856W        W94769  28.566  32.559  18.266 -0.3431 -0.0095 -0.0284
51857W        W94770  15.769   0.409  15.553  0.0365 -0.1314 -0.0673
51858W        W94771  19.919  28.445  20.447 -0.0643 -0.0433 -0.0107
51859W        W94772  16.801   2.756   1.249 -0.2549  0.3770  0.0815
51860W        W94773  23.107  28.344  19.032 -0.1569 -0.1449 -0.2871
51861W        W94774   9.188  29.201  28.228  0.2224  0.0327 -0.3173
51862W        W94775  14.244  23.108  15.821 -0.2154 -0.0240 -0.0885
51863W        W94776  20.457   3.791  23.748  0.0085  0.0158  0.1177
51864W        W94777  19.402  16.487  15.923 -0.0498  0.0985  0.2125
51865W        W94778  13.485   1.398  19.100 -0.0884  0.0133 -0.3797
51866W        W94779  17.753  24.713  16.749 -0.1608  0.1336  0.2375
51867W        W94780  13.174  33.530  17.050  0.0280 -0.1050  0.1016
51868W        W94781   2.724  30.535  23.969 -0.0227  0.0363  0.0299
51869W        W94782  12.027  34.490  25.161 -0.1430  0.1567 -0.1036
51870W        W94783  11.807   9.351  16.374 -0.1515 -0.1199  0.0676
51871W        W94784  12.076  34.041  17.152  0.1742  0.1171 -0.1439
51872W        W94785  22.307   6.053  19.738  0.0499  0.2699  0.0935
51873W        W94786  20.590   3.650  14.840  0.2735 -0.0981  0.0769
51874W        W94787  18.936  32.552  21.595  0.1815  0.1277  0.1805
51875W        W94788  11.299   0.930  20.418  0.0994 -0.1968  0.2049
51876W        W94789  16.192  32.345  17.417  0.0392  0.1025  0.2373
51877W        W94790  17.968  30.995  17.815  0.4125 -0.0898  0.0822
51878W        W94791  10.547   5.701  19.564 -0.0054  0.0511 -0.4191
51879W        W94792   4.933  33.315  17.917  0.0290  0.0081  0.1499
51880W        W94793   7.278   4.418  17.784  0.0476 -0.1291 -0.2359
51881W        W94794  12.244  31.628  17.993 -0.2517  0.1371 -0.3675
51882W        W94795  13.052   3.534  23.781  0.1870  0.3297  0.0061
51883W        W94796   8.115  11.868  21.297  0.0292  0.0281  0.4052
51884W        W94797   4.334  31.404   2.290  0.2293 -0.0496 -0.1405
51885W        W94798  16.606  32.516  14.940 -0.0684 -0.2352  0.0913
51886W        W94799  16.390  32.543  20.932  0.2137 -0.1209 -0.0248
51887W        W94800   7.853  24.940  20.602  0.0620  0.1909  0.0879
51888W        W94801  17.295  31.786  19.616  0.0659  0.0876  0.2744
51889W        W94802  15.789  30.878  24.809 -0.2916  0.1059  0.3680
51890W        W94803  13.135  28.315  16.379  0.0855 -0.0510 -0.0960
51891W        W94804  15.308  28.850  15.803 -0.0156  0.0682  0.1388
51892W        W94805  24.831  14.288  14.687 -0.1471  0.0905 -0.2069
51893W        W94806   8.642  33.786  19.392  0.1016 -0.0802  0.2286
51894W        W94807   5.817   7.708  18.608 -0.0902  0.3618 -0.3089
51895W        W94808  16.880  24.211  25.889 -0.1838 -0.0350  0.1450
51896W        W94809  24.395   5.501  19.237  0.1590 -0.1179  0.2199
51897W        W94810  10.820  33.323  21.102 -0.0076 -0.3253 -0.0023
51898W        W94811  24.037  34.428  22.516 -0.0320  0.0969  0.0828
51899W        W94812   7.821   8.692  19.502 -0.0743  0.2865  0.3628
51900W        W94813   9.330  27.791  16.604 -0.4447  0.0692  0.3006
51901W        W94814   5.341   9.838  20.654  0.1613 -0.0041  0.0091
51902W        W94815  30.236   3.176  24.087 -0.0317 -0.0619  0.2877
51903W        W94816  20.307   0.711  20.621  0.2611  0.0032  0.2807
51904W        W94817  27.085  15.437  24.868  0.1979  0.1040  0.0139
51905W        W94818  22.910   1.546  18.648 -0.2049 -0.1875  0.2013
51906W        W94819  17.184   7.224  17.142 -0.2353 -0.0363  0.0817
51907W        W94820   7.575  31.180  16.926  0.2272  0.1726 -0.1376
51908W        W94821  13.208  33.859  24.816 -0.0422  0.0331  0.3491
51909W        W94822  10.227   9.794  18.677 -0.0970  0.3371  0.2880
51910W        W94823  10.320  32.388  29.707 -0.0210 -0.0486  0.1838
51911W        W94824   7.219   0.689  20.828  0.2351  0.2886 -0.2371
51912W        W94825  11.738  29.585  23.492  0.1632  0.4060  0.0049
51913W        W94826   9.853   7.813  18.954  0.1654 -0.0215  0.0137
51914W        W94827  13.700  33.634  18.243  0.1735 -0.1737  0.1104
51915W        W94828   7.089   7.708  23.860 -0.1291 -0.2807 -0.0572
51916W        W94829   2.134  28.325  17.209 -0.0389 -0.0079  0.1015
51917W        W94830   8.908  34.231  26.578 -0.2749  0.0914  0.0640
51918W        W94831  22.162  32.104  27.476 -0.1931  0.2158  0.2584
51919W        W94832  13.697  33.412  16.333  0.0667  0.0822 -0.1145
51920W        W94833  17.115   3.073  18.216 -0.3126  0.1037 -0.0960
51921W        W94834  14.891  23.639  20.521  0.0266 -0.3455 -0.1224
51922W        W94835  21.043   1.023  19.523  0.3093 -0.1631  0.2953
51923W        W94836  18.419  26.837  17.945  0.1913  0.1375  0.0131
51924W        W94837  13.959   3.136  21.482  0.2101 -0.0031 -0.0329
51925W        W94838  31.614   0.916   2.134  0.1069 -0.0169  0.1149
51926W        W94839  23.789  11.533  21.127  0.1050  0.0718 -0.1581
51927W        W94840  17.724  25.433  21.406  0.0427 -0.0184  0.1684
51928W        W94841   9.775  25.891  16.238 -0.2818  0.0956  0.0466
51929W        W94842  16.299   1.736  22.349 -0.1117 -0.3047 -0.1436
51930W        W94843  14.161  24.796  14.834 -0.1730 -0.2453 -0.0391
51931W        W94844  13.181  30.904  21.823  0.0165 -0.1755 -0.0386
51932W        W94845   7.321  28.305  15.999 -0.2645 -0.2477 -0.1204
51933W        W94846   1.601   5.437  23.151 -0.4135  0.0596  0.0847
51934W        W94847   9.023  33.947  19.690  0.0647 -0.0553 -0.2916
51935W        W94848  10.005   4.213  17.742  0.0073 -0.0899 -0.0356
51936W        W94849   9.061  23.186  22.719  0.3372 -0.0935 -0.4406
51937W        W94850   5.230  34.125  17.282  0.1208 -0.2315  0.1948
51938W        W94851   5.017  27.395  19.188  0.1021 -0.1678 -0.0422
51939W        W94852  17.756  29.606  27.638  0.0979  0.2164  0.2007
51940W        W94853  15.241   6.939  25.395  0.3424  0.2470  0.0227
51941W        W94854  24.913  26.315  15.760  0.1997  0.2267 -0.1469
51942W        W94855  15.366   3.950  15.789  0.1248 -0.3903  0.3824
51943W        W94856   7.128  27.790  29.102 -0.2901  0.2708  0.0982
51944W        W94857  17.185  26.287  19.185 -0.0530  0.1698  0.0569
51945W        W94858  12.163   2.933  18.279  0.2394  0.2527  0.3353
51946W        W94859  13.921   2.111  17.500 -0.1487  0.1551 -0.1352
51947W        W94860   6.146  32.705  26.292 -0.0574 -0.1270 -0.1729
51948W        W94861   1.245  32.870  22.865 -0.0189 -0.0207 -0.0163
51949W        W94862  12.830   2.275  23.084  0.0282 -0.0185  0.0361
51950W        W94863  21.188  11.086  19.905  0.0793  0.0311  0.0986
51951W        W94864   8.322   0.297  16.812  0.0609 -0.2181 -0.0797
51952W        W94865   2.337   6.123  16.788 -0.4160  0.3484 -0.1555
51953W        W94866  26.510  25.191  19.900  0.0093  0.1608 -0.3118
51954W        W94867   9.778   8.642  16.346 -0.2003 -0.1847 -0.2280
51955W        W94868   4.232   2.165  18.809 -0.2291 -0.1159 -0.3121
51956W        W94869  33.931  11.087  14.753 -0.1367 -0.0060  0.0455
51957W        W94870   4.372   1.117  17.922 -0.2977  0.0246 -0.0149
51958W        W94871   3.761   0.709  19.584 -0.0774 -0.3124  0.1477
51959W        W94872   3.908  29.702  25.179  0.0617 -0.1692  0.1297
51960W        W94873  13.174  33.859  20.395  0.2797  0.0212 -0.2045
51961W        W94874  14.056  12.228  15.734  0.1186  0.0292 -0.0460
51962W        W94875  19.865   7.624  20.365  0.3691 -0.2946 -0.1164
51963W        W94876   8.958   1.949  21.563  0.1522  0.0106  0.0692
51964W        W94877  12.875  33.784  18.287 -0.0791  0.1353 -0.1179
51965W        W94878  23.247  34.234  14.221 -0.1076  0.0147  0.1929
51966W        W94879  14.306   5.331  21.345 -0.2103  0.1306 -0.0958
51967W        W94880  13.592  13.002  21.798 -0.0906 -0.1879  0.0566
51968W        W94881   0.047   4.001  19.943  0.0715  0.1517  0.1012
51969W        W94882   3.637  19.640  16.826  0.0658 -0.0621  0.0606
51970W        W94883  16.376   0.630  17.661 -0.2887 -0.0347 -0.0246
51971W        W94884  14.517  32.231  20.852 -0.0586 -0.1510 -0.0796
51972W        W94885  12.366  29.037  23.947 -0.0954  0.1361 -0.0674
51973W        W94886  31.040  34.233  22.843 -0.1690 -0.2200 -0.1701
51974W        W94887  10.276  28.584  26.256  0.0380  0.1087 -0.1682
51975W        W94888   0.311  33.815  20.550  0.0680  0.0938 -0.2582
51976W        W94889   9.858   8.956  21.058  0.1190  0.0991 -0.2309
51977W        W94890  14.107   1.461  18.375  0.0311  0.2070 -0.0167
51978W        W94891  19.128  31.960  26.549 -0.0565 -0.1414 -0.0614
51979W        W94892  15.624   3.558  22.518 -0.4321  0.1178 -0.1741
51980W        W94893  14.170   3.606  23.549 -0.0055  0.1896  0.2103
51981W        W94894  28.437   6.172  19.563  0.0982 -0.0234  0.1207
51982W        W94895  18.199  10.115  28.163  0.1804  0.0591 -0.2534
51983W        W94896  14.094  10.793  13.978  0.0467  0.3836 -0.1931
51984W        W94897  20.182   1.647  18.546 -0.2208  0.0178 -0.3114
51985W        W94898  16.541  33.779   5.381  0.0429  0.1450 -0.0407
51986W        W94899  27.454  33.352  22.457  0.0082  0.2142  0.0121
51987W        W94900  11.491  10.910  15.308 -0.3270 -0.1329 -0.0540
51988W        W94901  10.946   3.415  29.049  0.0024  0.1537  0.0481
51989W        W94902   7.631   7.229  18.813 -0.1277 -0.1406 -0.2654
51990W        W94903   5.621   5.037  25.057  0.3523 -0.2407  0.0944
51991W        W94904   5.748   2.761  22.003 -0.3476  0.0637  0.3390
51992W        W94905  14.082   1.678  17.735 -0.0142 -0.1235 -0.1241
51993W        W94906  18.742   6.347  26.471 -0.0154 -0.1158 -0.2073
51994W        W94907  12.305  33.617  21.701  0.1635 -0.2908 -0.1963
51995W        W94908  30.437  30.801  18.099 -0.0732  0.0875 -0.1973
51996W        W94909  14.418   4.166  27.824  0.1917 -0.1023 -0.1028
51997W        W94910   9.688   3.632  21.356  0.2225 -0.4108 -0.2690
51998W        W94911   7.954  23.550  18.790  0.1364  0.1591  0.1862
51999W        W94912   7.640   1.208   3.170  0.0048  0.0975 -0.1657
52000W        W94913  16.125   5.388  26.313 -0.1663  0.0834 -0.0545
52001W        W94914   3.329  20.883  22.351 -0.3088  0.4067  0.3834
52002W        W94915  20.328  32.968  15.143  0.0984 -0.1711 -0.0134
52003W        W94916   6.627  17.044  21.990  0.1420  0.0307  0.1600
52004W        W94917   9.365  22.368  13.713 -0.2187 -0.1238  0.0543
52005W        W94918   9.269  28.677  19.978  0.1065  0.1612 -0.2271
52006W        W94919  14.894   4.051  25.002  0.0716  0.1209  0.1718
52007W        W94920  11.093   3.004  19.595 -0.0944 -0.0705 -0.0280
52008W        W94921  19.178   5.915  16.465 -0.1718 -0.0350 -0.1880
52009W        W94922  22.309   6.787  16.011  0.1911  0.0054 -0.2487
52010W        W94923  19.208  34.307  15.375 -0.4050  0.0892  0.1835
52011W        W94924  24.814   0.946  22.716  0.1337 -0.0363  0.0171
52012W        W94925   8.083   6.285  20.262  0.0862 -0.2937  0.2728
52013W        W94926  17.136  32.184  25.319 -0.1729 -0.1934 -0.0742
52014W        W94927  10.146   5.214  16.803  0.0829  0.0865 -0.1503
52015W        W94928  24.007  29.468  19.569 -0.2148 -0.1453  0.0457
52016W        W94929  16.355  32.517  20.238 -0.2213  0.1569  0.0149
52017W        W94930   5.650  34.252  22.373 -0.1274 -0.2864 -0.0614
52018W        W94931  12.737  18.069  12.097 -0.2863 -0.1855 -0.1430
52019W        W94932  14.094   8.019  18.203  0.1318  0.2768 -0.0292
52020W        W94933   7.648  20.159  13.720 -0.1521  0.0598  0.1331
52021W        W94934  17.083   1.023  23.096 -0.0137  0.0656 -0.1165
52022W        W94935   4.932  34.003  22.706 -0.1342  0.2706  0.1259
52023W        W94936  20.762   0.197  16.765  0.4002 -0.3044 -0.1604
52024W        W94937  17.272   3.423  17.731  0.2061 -0.2355  0.2961
52025W        W94938  12.959  21.608  17.524  0.2572  0.0321  0.0556
52026W        W94939  16.502   3.933  14.935 -0.1807 -0.0733 -0.0610
52027W        W94940  25.938  31.876  13.833 -0.1203  0.3638  0.1080
52028W        W94941  18.056   7.840  18.307  0.0048 -0.0330 -0.0835
52029W        W94942  10.311   1.013  23.632  0.2787  0.1021 -0.0134
52030W        W94943  17.258  34.140  18.601 -0.1284  0.1387  0.0367
52031W        W94944  10.035   9.767  19.445  0.0879  0.1322 -0.0076
52032W        W94945  12.249  30.584  20.946  0.3304 -0.0391 -0.0360
52033W        W94946  17.303  32.397  16.651 -0.0725 -0.3100  0.2044
52034W        W94947  15.818  26.311  14.973  0.0258 -0.0674 -0.1780
52035W        W94948  10.480  14.107  29.033 -0.2073 -0.3157  0.0321
52036W        W94949  24.340   3.269  23.224 -0.0429 -0.1433  0.0509
52037W        W94950  16.947   2.391  20.104 -0.2895 -0.2472 -0.1313
52038W        W94951  12.480  31.180  21.510 -0.1879 -0.1451  0.1938
52039W        W94952  12.823  30.604  20.324 -0.2263 -0.1271 -0.1697
52040W        W94953   4.498   0.962  25.474  0.0634  0.2183  0.1928
52041W        W94954  20.533  25.531  22.985 -0.0405 -0.1176  0.0974
52042W        W94955  13.151   9.257  28.894 -0.0871 -0.2020  0.4428
52043W        W94956  19.407  25.852  18.928 -0.0366  0.1395 -0.1217
52044W        W94957   6.908   0.703  26.108  0.0895 -0.3204  0.1229
52045W        W94958   9.837   0.865  28.367 -0.1309  0.1786  0.3058
52046W        W94959  20.295   4.634  29.179  0.3243 -0.1524  0.3014
52047W        W94960  14.168  33.734  20.227  0.3140  0.0964  0.0955
52048W        W94961  11.986  30.845  25.596  0.0899 -0.1067  0.1369
52049W        W94962  12.231   1.596   1.169 -0.0586  0.1817 -0.0882
52050W        W94963  17.367   4.348  15.189 -0.1928 -0.0581 -0.1974
52051W        W94964  16.142  10.213  23.233 -0.0302 -0.3037  0.2083
52052W        W94965  12.459  30.939  18.269  0.0155 -0.0643 -0.1825
52053W        W94966   8.819   4.755  23.918 -0.1565  0.2287  0.5253
52054W        W94967  15.954   0.224  21.631 -0.0130  0.1514  0.2490
52055W        W94968  15.983   9.929  12.317  0.1365 -0.0059 -0.2902
52056W        W94969  20.839  33.870  14.087  0.1281 -0.0137  0.3806
52057W        W94970  12.654  28.003   0.114  0.0843  0.1241  0.2631
52058W        W94971  17.182  30.191  22.525  0.1624 -0.3667 -0.1037
52059W        W94972  19.855   0.039  16.228 -0.1265  0.1610  0.4977
52060W        W94973  28.463   6.710  15.600  0.2526  0.1115 -0.1727
52061W        W94974   5.121   1.610  25.831 -0.1182 -0.0433  0.0092
52062W        W94975  10.128   2.160  19.250 -0.1155  0.1903  0.1873
52063W        W94976  22.390  32.700  17.235 -0.0821 -0.0152  0.0820
52064W        W94977  16.688   5.249  15.153  0.0389  0.2035 -0.1647
52065W        W94978  22.724  31.585  13.816 -0.0140  0.0269  0.1505
52066W        W94979  20.742   4.349  15.331 -0.1532  0.1014 -0.0535
52067W        W94980  16.661  22.923  18.772 -0.3652  0.2662  0.0269
52068W        W94981  26.030   8.807  13.890 -0.0393 -0.2227  0.0118
52069W        W94982   5.118  30.500  22.549 -0.2389  0.1403 -0.1738
52070W        W94983  11.089  34.393  17.221 -0.2328 -0.0451 -0.0156
52071W        W94984  23.878  28.857  22.192 -0.0271 -0.2195  0.1115
52072W        W94985   7.569  28.623  16.784  0.0181 -0.0908  0.1372
52073W        W94986  21.494  31.618  17.065  0.0514  0.4102  0.1543
52074W        W94987  15.982  33.381  17.387  0.0424  0.2460 -0.1175
52075W        W94988  32.599   0.830  23.159  0.0477 -0.3031 -0.1730
52076W        W94989  18.478  10.019  27.074 -0.2804 -0.1033 -0.2596
52077W        W94990   8.084  29.007  23.590 -0.1986  0.0087 -0.1932
52078W        W94991  13.736  33.903  21.746 -0.2123 -0.2332 -0.0375
52079W        W94992  28.065  13.556  23.561 -0.2285 -0.2483 -0.0451
52080W        W94993   2.227  34.488  17.643 -0.2619  0.2721  0.2334
52081W        W94994  19.209   4.411  18.995 -0.3382  0.2716  0.1483
52082W        W94995   5.307   3.403  22.369  0.2524  0.1861  0.1729
52083W        W94996   9.150  32.068  16.447  0.1021  0.0131  0.0770
52084W        W94997  11.566   4.093   2.108 -0.1514  0.1544  0.1351
52085W        W94998   7.766   9.519  17.761 -0.2900  0.0510 -0.0013
52086W        W94999  14.645  32.857  26.170 -0.1172 -0.1079  0.2659
52087W        W95000  11.965   0.388  22.528 -0.0294  0.0292 -0.1910
52088W        W95001  19.626   5.551  14.073  0.2230  0.0917  0.0411
52089W        W95002  12.683   6.427   1.042  0.0643  0.0208 -0.1589
52090W        W95003  14.986  34.235  21.128 -0.0163 -0.1119  0.0077
52091W        W95004   5.783   8.122  22.457  0.0484 -0.0240  0.0340
52092W        W95005  22.993   2.306  17.430  0.0071  0.0636 -0.0492
52093W        W95006  24.725  31.160  27.518  0.0286 -0.1553 -0.1977
52094W        W95007  10.806  27.903  29.221 -0.0343 -0.0317 -0.1234
52095W        W95008  22.407  34.214  21.248 -0.1903 -0.0924 -0.0790
52096W        W95009  27.083  24.351  18.116 -0.2977 -0.3071 -0.1222
52097W        W95010  12.403  32.767  21.665  0.0849 -0.2249 -0.0242
52098W        W95011  10.408   4.070   1.625 -0.0111 -0.1412 -0.2073
52099W        W95012   8.933  28.053  19.074  0.0278  0.0113  0.1258
52100W        W95013  21.372  31.759  28.581 -0.0389  0.2623  0.0262
52101W        W95014  16.072   7.347  22.749  0.2455 -0.2382  0.1137
52102W        W95015   7.950   7.152  23.621  0.0553 -0.1605 -0.0079
52103W        W95016   8.208  32.283  22.313  0.1141  0.0071  0.4125
52104W        W95017   7.809  12.752  18.946  0.1336 -0.0004 -0.0324
52105W        W95018  12.363   1.387  25.107  0.0621 -0.0537 -0.2576
52106W        W95019  11.539   5.212  23.784  0.0000  0.2361  0.0890
52107W        W95020  29.989  27.584  15.775 -0.0743 -0.1007 -0.3198
52108W        W95021  18.361   0.273  21.552  0.0172  0.1295 -0.0468
52109W        W95022  10.139  33.693  20.525 -0.1119  0.1549  0.1069
52110W        W95023   8.109   3.051  21.889 -0.1913  0.2664  0.1446
52111W        W95024  17.625   9.621  22.726  0.2197 -0.3051 -0.1164
52112W        W95025  17.330  28.336  17.417 -0.2600  0.0132 -0.1219
52113W        W95026   1.946  28.706  20.698 -0.0455  0.0747 -0.3659
52114W        W95027  10.630   3.929  18.079  0.1927 -0.0545  0.3404
52115W        W95028  12.358   4.795  16.788 -0.0866  0.2990  0.0389
52116W        W95029  12.885  29.096   8.422 -0.1234  0.0219 -0.2508
52117W        W95030  15.082  33.311  17.089 -0.0417  0.0566 -0.1242
52118W        W95031  23.638  25.556  25.769  0.0683 -0.1484 -0.1448
52119W        W95032   3.059   9.270  17.149  0.0499  0.5307 -0.0872
52120W        W95033  16.900  34.402  15.290  0.0616 -0.1585 -0.4174
52121W        W95034   2.179   1.979  15.904 -0.0720  0.0507  0.1299
52122W        W95035  17.384   7.587  20.987 -0.3377  0.3167  0.3128
52123W        W95036  11.245  23.922  23.384  0.2734 -0.0201 -0.0637
52124W        W95037  19.539  22.064  18.968 -0.2405 -0.1641 -0.0143
52125W        W95038  15.359   5.243  17.317  0.0170  0.1219  0.0615
52126W        W95039  15.976  32.402  23.066  0.0597  0.0606  0.1417
52127W        W95040   5.489   0.744  26.288  0.0113 -0.0739 -0.0039
52128W        W95041  10.769  31.543   0.483 -0.0391 -0.0712 -0.2909
52129W        W95042  19.880  31.793  19.506  0.1284 -0.2561 -0.0814
52130W        W95043  10.548   9.948  21.902  0.2720 -0.0399 -0.0077
52131W        W95044   5.621   3.588  21.708  0.0651 -0.2202 -0.0100
52132W        W95045  17.079   1.172  19.829 -0.2366  0.2714 -0.0482
52133W        W95046   5.232  31.558  18.529  0.0011 -0.1123  0.3007
52134W        W95047  13.032  31.227  21.042  0.0915  0.3755 -0.1743
52135W        W95048   9.819  26.380   4.297  0.1409 -0.0071 -0.1939
52136W        W95049  17.060   1.174  23.644 -0.0741 -0.0228 -0.0343
52137W        W95050   7.116  28.434   0.992  0.1910  0.2084  0.2384
52138W        W95051  16.778  27.338  19.947  0.0027 -0.1528  0.1209
52139W        W95052  14.710   0.137  17.755  0.0304  0.0948 -0.1503
52140W        W95053  15.173  27.698  20.610 -0.1276  0.1925 -0.1204
52141W        W95054  20.351  10.107  18.511  0.1884 -0.1942 -0.1057
52142W        W95055  22.347   0.878  20.732  0.1422  0.1498 -0.2443
52143W        W95056  15.785   5.141  22.243 -0.0690 -0.0030 -0.4512
52144W        W95057  10.710  33.568  16.899  0.2375  0.1428 -0.4560
52145W        W95058   5.762  13.595  27.434 -0.0635 -0.3343 -0.4355
52146W        W95059  20.597   7.301  15.750  0.0300 -0.3910  0.1664
52147W        W95060  16.869   8.558  15.087 -0.2679  0.0756  0.3518
52148W        W95061   9.131  30.779  19.886 -0.0594 -0.1479 -0.3131
52149W        W95062  23.403   1.705  27.050  0.4156 -0.0633 -0.2765
52150W        W95063   7.030  14.046  16.976 -0.3684  0.2588  0.2012
52151W        W95064  16.723  28.401  14.887  0.2451  0.2863  0.0053
52152W        W95065  10.378  25.080  20.134 -0.0761 -0.0486  0.1056
52153W        W95066   0.519   6.673  17.290 -0.4795  0.0349 -0.1070
52154W        W95067  12.429   0.320  22.427 -0.1534  0.1503 -0.2040
52155W        W95068  10.468  31.665  19.564  0.0526 -0.1161  0.1676
52156W        W95069  14.869   8.404  17.316  0.0433 -0.2422  0.1446
52157W        W95070  18.914  31.448  21.155 -0.0743 -0.1031 -0.0082
52158W        W95071  16.829  10.894  23.268  0.0396  0.0564  0.0810
52159W        W95072  20.945  32.439  17.296 -0.0644 -0.0096  0.1648
52160W        W95073  10.864  32.169  23.560 -0.1836 -0.1226 -0.1578
52161W        W95074   5.182  26.868  21.615  0.1477 -0.3683  0.2323
52162W        W95075  24.942  10.901  18.645  0.2918 -0.1976  0.0342
52163W        W95076   9.648  33.110  27.623 -0.2113 -0.0360 -0.0405
52164W        W95077  20.807  11.845  14.489  0.2267  0.1389  0.2311
52165W        W95078  12.576  30.045  23.754  0.0896 -0.1004 -0.2886
52166W        W95079  17.746  31.887  15.503 -0.2285 -0.1922 -0.0463
52167W        W95080  10.018  30.394  18.669  0.0329  0.3246  0.1818
52168W        W95081  13.631   7.918   2.760  0.3541  0.2181 -0.1304
52169W        W95082  13.612   2.247  22.560  0.0273 -0.0989  0.1535
52170W        W95083  17.496  10.417  13.790  0.0276 -0.2006 -0.5560
52171W        W95084   8.416  26.892  15.818  0.0254 -0.1541  0.0772
52172W        W95085   3.048   2.845   0.825  0.0671  0.3202  0.0070
52173W        W95086  13.982   7.701  14.947 -0.1137  0.1084  0.1057
52174W        W95087   8.456   3.441  18.370 -0.0369  0.0211  0.1120
52175W        W95088   4.526  13.337  27.356  0.1611  0.1538 -0.1479
52176W        W95089  18.767   1.367   2.285 -0.0879  0.2453  0.1965
52177W        W95090  14.137   1.716  17.010  0.0456 -0.1444  0.0315
52178W        W95091   5.491  16.876  18.568  0.2695  0.1470  0.2596
52179W        W95092   7.163   3.173  27.154 -0.1770 -0.0520  0.0981
52180W        W95093  13.656  30.784  22.596  0.2876  0.0956  0.2311
52181W        W95094  20.686  31.528  14.869 -0.5044 -0.1176 -0.1494
52182W        W95095  10.892  14.426  16.781  0.1028  0.2664 -0.1424
52183W        W95096  21.147  25.092  14.365  0.4361  0.0673 -0.0280
52184W        W95097  20.695   1.439  21.240  0.0126 -0.0393 -0.0430
52185W        W95098  15.065   0.987  18.210 -0.0949 -0.1964 -0.1123
52186W        W95099  20.222   3.548  22.178  0.0179 -0.1412 -0.1248
52187W        W95100   6.369  33.365  26.058  0.2333 -0.3190  0.0109
52188W        W95101  13.784   7.765  23.012  0.2700  0.0096 -0.1331
52189W        W95102   2.794   3.334  21.863  0.3493  0.0902  0.0490
52190W        W95103  19.088  23.266  23.714  0.1586  0.2178 -0.1274
52191W        W95104  13.151  29.218  26.130  0.0012  0.1689 -0.1211
52192W        W95105  13.844   2.881  21.989 -0.1773  0.2106 -0.4034
52193W        W95106  19.035   2.698  23.590 -0.2546 -0.0353 -0.1278
52194W        W95107  29.548  29.775  26.650 -0.0828  0.2041  0.0311
52195W        W95108  16.498  28.232  28.288 -0.2265  0.1078 -0.3033
52196W        W95109   3.327  29.621  15.785 -0.2903 -0.2132 -0.1861
52197W        W95110  10.554  24.526   5.266  0.2031 -0.0926 -0.1847
52198W        W95111   9.823   5.215  24.189 -0.3462 -0.0526  0.0448
52199W        W95112   7.215   3.588  21.774 -0.1945  0.1391  0.1271
52200W        W95113  21.133   4.569  23.719  0.0507  0.1622 -0.0786
52201W        W95114  11.105   5.042  20.553  0.2053  0.1534  0.1567
52202W        W95115  23.367  25.481  22.308  0.1475  0.2814  0.4102
52203W        W95116  15.324   1.865  23.631  0.1643  0.1417 -0.0917
52204W        W95117  12.069   6.725  25.047  0.0188  0.2134 -0.1587
52205W        W95118   9.389  10.968  19.584 -0.2449  0.2037 -0.0606
52206W        W95119  15.406  14.998  14.963 -0.1022  0.2277 -0.0002
52207W        W95120  15.951  28.175  15.629 -0.0494  0.0990 -0.1076
52208W        W95121   9.213  33.206  21.616  0.2875 -0.0232 -0.0475
52209W        W95122   1.774   9.466  17.719  0.1325  0.0271  0.1041
52210W        W95123  18.181  21.134  27.549 -0.0812 -0.0608  0.3175
52211W        W95124  14.013  32.935  24.081 -0.0534 -0.0758 -0.0855
52212W        W95125  20.638   1.583  18.801  0.0076 -0.0096 -0.1902
52213W        W95126   5.285   8.950  28.238  0.0026 -0.3337 -0.0277
52214W        W95127  11.312  12.957  18.712  0.0906 -0.2947 -0.5576
52215W        W95128  18.827  24.655  18.481 -0.4261  0.1093  0.2121
52216W        W95129   4.807  31.337  19.482  0.1454 -0.2938  0.1534
52217W        W95130   9.865  30.359  24.643  0.0707 -0.3606  0.1260
52218W        W95131  25.173  34.189   5.331  0.1402 -0.0800  0.1796
52219W        W95132   9.613  10.009  19.562  0.1330 -0.1240  0.0608
52220W        W95133   8.089  32.363  19.118 -0.0636  0.1235 -0.0749
52221W        W95134  13.931   8.462  15.523  0.3143 -0.1474 -0.1853
52222W        W95135  16.377   2.904  23.414  0.3719  0.0086  0.0505
52223W        W95136   5.740   1.597   1.149  0.1635  0.1001 -0.1540
52224W        W95137  17.428   1.614  19.867 -0.5705  0.1913 -0.1986
52225W        W95138  32.095  17.762  26.692 -0.1429 -0.0341 -0.0483
52226W        W95139  17.869  27.315  19.609  0.4611  0.2390 -0.2164
52227W        W95140  11.030   8.418  18.642  0.0853 -0.0767 -0.1325
52228W        W95141  12.169  32.091  25.654  0.0117  0.2172  0.1269
52229W        W95142  18.467   0.215  19.062  0.1105  0.0443  0.1552
52230W        W95143   6.681  31.603  19.377 -0.0240  0.3095 -0.0367
52231W        W95144   3.908   2.011  19.738 -0.0715 -0.2959 -0.1574
52232W        W95145  14.407  32.154  21.550  0.1319  0.3213  0.3118
52233W        W95146  10.258  12.811  19.751  0.0046  0.1665  0.1022
52234W        W95147  16.951  31.300  15.046 -0.2638 -0.1676  0.2091
52235W        W95148   8.728  27.492  21.651 -0.1248  0.1110  0.1623
52236W        W95149  16.200   5.579  22.153 -0.2252  0.3364  0.3537
52237W        W95150  15.489   3.349  22.929  0.3147 -0.1212  0.0776
52238W        W95151  32.250  22.826  23.418 -0.2454 -0.1271 -0.2484
52239W        W95152  32.676  27.054   2.016 -0.1556 -0.2826  0.0336
52240W        W95153   9.962  19.469  25.724  0.0510  0.1313  0.1392
52241W        W95154  26.741  23.206  21.854  0.3164  0.0110 -0.0998
52242W        W95155  11.666  24.657  20.918 -0.0466  0.3071 -0.2158
52243W        W95156  16.906  29.067  28.667 -0.0202 -0.0918 -0.2194
52244W        W95157  18.767   1.886  18.011  0.0395 -0.0433 -0.0256
52245W        W95158  19.870   6.395  14.661  0.2466 -0.0902  0.1448
52246W        W95159  16.625  25.821  16.548  0.0533  0.2118 -0.0109
52247W        W95160  15.220  28.828  15.281  0.1644 -0.0820 -0.1371
52248W        W95161  17.996   9.647  18.134  0.2316  0.0100 -0.0327
52249W        W95162   7.439   0.314  24.332  0.1177 -0.2584 -0.2826
52250W        W95163  21.764   4.915  14.960 -0.2563  0.2458 -0.2022
52251W        W95164   2.971  28.899  17.401  0.0563 -0.2282 -0.1348
52252W        W95165  10.057  32.302  20.201 -0.0289  0.1834  0.1504
52253W        W95166  11.913   1.873  23.805 -0.3078  0.2752 -0.0024
52254W        W95167  17.561   2.342  21.903  0.2957 -0.2448  0.1758
52255W        W95168  17.470   5.322  18.506  0.0032  0.0464  0.1299
52256W        W95169   7.287  31.759  23.582  0.1400  0.1668 -0.2777
52257W        W95170  10.476  26.862  26.001 -0.4753  0.0782 -0.1251
52258W        W95171  11.532  28.882  18.591  0.1882 -0.1252 -0.0722
52259W        W95172   5.688  24.701  20.528  0.0921 -0.0523 -0.4059
52260W        W95173  14.516  11.214  19.321 -0.1142 -0.0070 -0.3347
52261W        W95174  17.454   3.275  19.585  0.1107 -0.0430 -0.3007
52262W        W95175   6.164  31.111  27.390 -0.4258  0.3317 -0.1467
52263W        W95176  17.356  12.252  23.862 -0.0089 -0.0944  0.0326
52264W        W95177  21.202   6.959  21.958 -0.1227 -0.0776 -0.0757
52265W        W95178  12.442   4.964  21.274 -0.0069 -0.0720  0.1071
52266W        W95179  18.893   0.382   0.229  0.3333  0.1326 -0.0680
52267W        W95180   6.082  28.868  19.250 -0.1853  0.1605 -0.0109
52268W        W95181  16.206  28.670  21.424 -0.0414 -0.3591 -0.0594
52269W        W95182   2.370   6.516  17.212 -0.1971 -0.2188 -0.2644
52270W        W95183  18.251  33.870  19.925 -0.1422  0.0339 -0.2453
52271W        W95184  13.737  28.467  22.048 -0.2671 -0.1767 -0.0194
52272W        W95185   9.313  28.132  15.382  0.2572 -0.0803 -0.0674
52273W        W95186   7.321   3.722  25.896  0.0982  0.0017 -0.2966
52274W        W95187   7.124   1.001  17.698 -0.0079  0.0163  0.1899
52275W        W95188   3.489  24.088  27.900 -0.0583 -0.1525 -0.1544
52276W        W95189   9.712   3.639  24.464 -0.1525 -0.1510  0.1043
52277W        W95190   8.974   1.990  22.837 -0.2010 -0.2622 -0.0233
52278W        W95191   6.332  27.200  21.773 -0.1189 -0.1413  0.1700
52279W        W95192   4.127  33.273  18.772 -0.1576 -0.1097 -0.2314
52280W        W95193  20.724   2.359  27.798  0.2945  0.1366  0.0095
52281W        W95194  25.417   4.089  21.639 -0.1574  0.2859 -0.0613
52282W        W95195   1.368  32.864  16.082  0.0976  0.1489  0.0065
52283W        W95196  26.575   1.239  26.894  0.1779 -0.1282 -0.2652
52284W        W95197  13.251  33.501  23.489 -0.1801 -0.0564  0.2251
52285W        W95198  14.688  10.858  18.847  0.2139  0.1887 -0.0098
52286W        W95199   4.511  34.369  19.455 -0.1493  0.3259 -0.0055
52287W        W95200  10.874  31.704  23.365 -0.3266 -0.1106 -0.0924
52288W        W95201  17.031   1.893  21.063 -0.1934 -0.0274 -0.0445
52289W        W95202  12.606   0.073  19.347 -0.2878  0.0022  0.0031
52290W        W95203  15.590  33.092  21.006 -0.1407  0.2062 -0.1865
52291W        W95204  10.447  28.486  22.789  0.0192 -0.1173  0.0297
52292W        W95205  16.477  34.230  18.140  0.1070  0.0860 -0.0360
52293W        W95206   7.891   0.022  16.880  0.0599 -0.1871  0.1091
52294W        W95207   1.920  34.373  19.481  0.0569  0.1982  0.2467
52295W        W95208   5.721   4.207  19.329  0.0464 -0.0973  0.0094
52296W        W95209   9.610   2.982  18.852 -0.1171  0.1248 -0.0611
52297W        W95210  13.491   2.431  16.839  0.2624 -0.0486 -0.0439
52298W        W95211  18.941  31.390  14.867  0.1510  0.1842 -0.0270
52299W        W95212  11.539  34.165  22.988 -0.0466 -0.0121  0.1715
52300W        W95213   6.857   1.867  18.641  0.2266  0.1218 -0.0441
52301W        W95214  15.865   0.722  20.679 -0.1933  0.0466 -0.0484
52302W        W95215  11.404   6.033  26.959 -0.0562 -0.1366 -0.0641
52303W        W95216   7.667  30.687  18.114 -0.0377  0.0309  0.0418
52304W        W95217  17.217  34.213  20.075 -0.0053  0.0271  0.1750
52305W        W95218  13.547   9.746  14.764 -0.2078 -0.0001 -0.0901
52306W        W95219  22.432  13.935  15.223 -0.2444  0.2437 -0.0292
52307W        W95220   0.433  24.407  16.175  0.2109  0.0045 -0.1306
52308W        W95221  17.071   0.739  21.157 -0.0480  0.2168 -0.0616
52309W        W95222  18.731   1.257  17.018  0.1137 -0.1004  0.0770
52310W        W95223  24.284   3.853  19.846  0.1967 -0.1690  0.1678
52311W        W95224  12.881  32.955  21.648 -0.0513 -0.0774  0.2326
52312W        W95225  13.926  32.709  18.407 -0.2644 -0.3516 -0.2993
52313W        W95226  19.297   5.434  16.524 -0.1692 -0.2456 -0.1026
52314W        W95227  17.614  30.466  20.056  0.2274 -0.2072  0.0658
52315W        W95228  14.498   2.280  20.489  0.1510  0.0564  0.1783
52316W        W95229  15.582   4.595  27.246  0.1616  0.1140  0.1145
52317W        W95230  12.176   3.284  20.361 -0.2413  0.1294 -0.1784
52318W        W95231   8.466   3.137  19.467  0.2935 -0.1852 -0.1656
52319W        W95232  18.898   1.668  20.112  0.1793  0.1792  0.1698
52320W        W95233  16.841  32.545  20.428  0.2639 -0.0874  0.1235
52321W        W95234  19.612   0.919  26.992  0.0595 -0.0970 -0.3076
52322W        W95235   7.605   1.203  24.306  0.0353 -0.0037  0.1169
52323W        W95236  33.114  31.502  22.161 -0.1645  0.4360 -0.1354
52324W        W95237  20.190   1.533  17.050  0.1708  0.1836  0.0811
52325W        W95238   5.094   4.879  22.362  0.1108  0.0015 -0.0406
52326W        W95239  15.191  29.580  17.790 -0.3538 -0.1881  0.0199
52327W        W95240   5.427  33.352  17.350 -0.1260  0.0979 -0.2073
52328W        W95241  22.996  11.174  15.905 -0.1336  0.0047  0.1468
52329W        W95242   8.045  29.246  17.744  0.0432 -0.0536  0.0237
52330W        W95243   4.503  30.184  24.441  0.0491  0.0532  0.0074
52331W        W95244   2.656   6.049  24.506 -0.2645 -0.0567 -0.1632
52332W        W95245  22.876  31.068  23.655 -0.3518  0.1779  0.1755
52333W        W95246  14.729   9.287  24.608 -0.2360 -0.4543 -0.2512
52334W        W95247  27.420   5.319  17.530 -0.1937  0.1790 -0.2349
52335W        W95248  29.265  11.167  19.449  0.0475  0.1036 -0.0930
52336W        W95249   3.053  29.577  20.422 -0.0732 -0.2621 -0.4656
52337W        W95250   9.261  30.161  27.208 -0.2797 -0.0081 -0.0617
52338W        W95251  25.326  13.215  13.286 -0.1049 -0.0596 -0.1361
52339W        W95252   8.481  29.694   1.527  0.0533  0.3718 -0.0088
52340W        W95253  26.340   6.449  26.404 -0.1052  0.0037 -0.2156
52341W        W95254  19.174   0.910  17.814 -0.3916 -0.2393  0.1701
52342W        W95255  11.103   7.924  21.990 -0.1723 -0.4148 -0.2357
52343W        W95256  10.394   1.881  20.635 -0.2641 -0.2974 -0.0653
52344W        W95257  18.349  32.037  14.630  0.3815  0.3554  0.4571
52345W        W95258  12.302  33.022  18.497  0.0166  0.1198 -0.0022
52346W        W95259  24.930  31.314  24.600 -0.2424 -0.1578  0.0172
52347W        W95260  13.521   4.107  22.477  0.0675  0.1404 -0.1048
52348W        W95261  13.743  26.723  16.040  0.1440 -0.1752  0.2267
52349W        W95262   1.473  30.391  18.470 -0.0472  0.0658 -0.1056
52350W        W95263  10.646  28.008  25.413 -0.3357 -0.2325  0.2092
52351W        W95264  19.785   6.980  15.936 -0.0093  0.1040  0.0458
52352W        W95265  17.356  14.273  14.053  0.1406  0.3624  0.2460
52353W        W95266  20.519  12.052  20.238 -0.1169  0.0770 -0.0493
52354W        W95267  20.276   6.097  13.707  0.2332  0.1693  0.2689
52355W        W95268  10.034  33.026  17.913  0.0467 -0.3231  0.1252
52356W        W95269  12.078  15.787  18.740  0.0544  0.2858  0.2164
52357W        W95270  16.031  33.868  17.193 -0.0908  0.4149  0.1700
52358W        W95271  19.820   1.097  17.135 -0.1691 -0.3540 -0.1375
52359W        W95272   5.764   3.672  22.275 -0.0477 -0.0404 -0.0931
52360W        W95273   9.492  34.454  28.017  0.0218 -0.1376 -0.0194
52361W        W95274  14.465   4.976  17.548  0.1183  0.0731  0.0456
52362W        W95275  15.605  15.694  15.061 -0.0539  0.0475 -0.0185
52363W        W95276  15.844  20.854  19.138  0.3200 -0.1182 -0.1054
52364W        W95277  21.671  26.208  22.414 -0.1232  0.0367  0.0046
52365W        W95278  26.114   7.033  27.786  0.0622 -0.1180  0.1329
52366W        W95279  13.088   9.467  18.397 -0.2527  0.2481  0.0501
52367W        W95280  18.202   1.555  14.066  0.1823 -0.0503  0.1395
52368W        W95281  18.091  33.702  21.620  0.0899 -0.2408  0.0370
52369W        W95282   6.139   2.025  23.670  0.2428 -0.1977 -0.1859
52370W        W95283  23.378  33.813  17.276  0.2169  0.0597 -0.1175
52371W        W95284   9.080   2.903  22.909 -0.0020  0.0957  0.0544
52372W        W95285  14.092   8.500  17.517 -0.0208  0.2315  0.2751
52373W        W95286   9.675  30.695  25.957  0.0547 -0.1393 -0.0159
52374W        W95287  14.701  22.603  17.020 -0.1982  0.0536 -0.2846
52375W        W95288  11.604  30.289  28.762  0.0677  0.2229  0.1956
52376W        W95289  18.892   3.455  21.612  0.1958  0.0446  0.1495
52377W        W95290  11.165   9.185  16.871  0.0289 -0.0117 -0.1125
52378W        W95291  16.286  34.122   4.715  0.1364  0.2174  0.0728
52379W        W95292   1.198  31.955   3.977  0.0508 -0.0928  0.0099
52380W        W95293   7.442  33.676  17.635 -0.0834 -0.1447 -0.1236
52381W        W95294   9.471   0.398  27.082  0.1787 -0.0977  0.0863
52382W        W95295  25.129  34.177  14.144 -0.0101 -0.0496 -0.0218
52383W        W95296   8.802   4.057  17.035  0.1274 -0.5166 -0.2761
52384W        W95297   0.626   0.906  16.388 -0.0839  0.0222  0.1813
52385W        W95298  24.230  14.990  19.745 -0.0964 -0.1454  0.1997
52386W        W95299  11.804  11.546  24.303 -0.0475  0.0414 -0.0756
52387W        W95300  15.980  21.902  22.037 -0.0423  0.0115  0.2153
52388W        W95301  14.213  28.323  20.475  0.0708  0.2161  0.0588
52389W        W95302  14.057  27.164  18.999 -0.1558 -0.0179 -0.0696
52390W        W95303  21.104   6.058  26.944 -0.3026  0.0697  0.1312
52391W        W95304  11.542   0.766  21.448  0.1015 -0.2108 -0.0483
52392W        W95305  17.274   9.460   4.612 -0.3418  0.1697  0.2462
52393W        W95306  26.368  12.612  24.484 -0.4539  0.0756 -0.1444
52394W        W95307   0.565  24.674  18.154 -0.0123  0.1578  0.0487
52395W        W95308  18.987   4.034  14.591  0.0522 -0.0632  0.0983
52396W        W95309  16.616   2.989  22.871 -0.0605  0.0318 -0.1691
52397W        W95310  28.192  26.639   3.054  0.1124  0.0236  0.0412
52398W        W95311   0.830  22.342  28.518  0.0651 -0.1768 -0.3529
52399W        W95312  15.702   9.506  16.184  0.1007  0.1353  0.1984
52400W        W95313  17.803  27.262  18.637 -0.0481 -0.0935 -0.1925
52401W        W95314  29.559  33.590  21.844 -0.1846  0.1856 -0.0129
52402W        W95315   5.468  31.722  27.141 -0.0087 -0.0484 -0.3181
52403W        W95316  14.966  33.491  28.434  0.1274  0.2690  0.1647
52404W        W95317   9.369  12.892  22.194  0.0567  0.0087 -0.0234
52405W        W95318  16.009  23.698  24.503 -0.2192  0.3167 -0.0110
52406W        W95319   7.348  33.031  19.046 -0.0452 -0.0161 -0.0877
52407W        W95320   7.083  31.726  27.495 -0.0582  0.0066 -0.0456
52408W        W95321  24.307  31.811  20.636 -0.3763  0.2238 -0.1509
52409W        W95322   7.234  26.751  19.872 -0.0717 -0.0333  0.0522
52410W        W95323  26.159  31.369  29.191  0.1127  0.1829  0.1149
52411W        W95324   6.036   7.316  18.938 -0.3103  0.2152  0.0655
52412W        W95325   8.914   5.285  23.786 -0.0351  0.0740  0.2864
52413W        W95326  33.570  32.789  23.195  0.0638 -0.0274 -0.0494
52414W        W95327  17.791  31.880  16.784 -0.1366 -0.0266  0.2570
52415W        W95328  17.477  28.380  15.719 -0.0133 -0.1052  0.0276
52416W        W95329   9.906  32.242  26.717  0.0109  0.1208  0.1549
52417W        W95330  10.322   5.523  19.125 -0.2035  0.1581  0.0729
52418W        W95331  13.696  10.995  23.929 -0.1191 -0.1028  0.1194
52419W        W95332   1.975  28.815  15.084  0.0997  0.1133  0.0366
52420W        W95333  14.606   5.473  16.076 -0.2798  0.3223  0.1744
52421W        W95334   8.821  31.583  27.250 -0.0614  0.0850  0.0611
52422W        W95335   6.681   1.763  21.545 -0.0893  0.1897 -0.0316
52423W        W95336  17.253   8.491  24.774 -0.2237  0.1296  0.3124
52424W        W95337  11.250  14.103  13.929 -0.1251 -0.0005  0.2084
52425W        W95338  19.082  29.586  19.153 -0.2918  0.2784  0.0907
52426W        W95339  14.658  27.026  20.432 -0.3625  0.0505 -0.0753
52427W        W95340  22.459  23.727  16.948 -0.1865  0.1979 -0.0872
52428W        W95341  13.403  32.003  18.517  0.0591 -0.2408 -0.1065
52429W        W95342  11.840  22.626  26.468  0.0987  0.0828 -0.2253
52430W        W95343   1.541  31.568  20.694 -0.0550 -0.0465 -0.1495
52431W        W95344  17.691  33.400  16.349  0.0534 -0.2487  0.0814
52432W        W95345  13.264  11.832  18.180  0.1134 -0.3302 -0.1830
52433W        W95346  18.131  29.935   1.736  0.0909  0.1276 -0.1249
52434W        W95347   2.043  27.797  16.060  0.0994  0.0818 -0.3516
52435W        W95348  13.132  34.099  26.974 -0.0921  0.0902 -0.0681
52436W        W95349  17.657   0.348  16.703 -0.0706  0.4460 -0.2279
52437W        W95350  13.630   1.832  20.317  0.0022 -0.0257 -0.0571
52438W        W95351  19.249   8.983   4.147  0.1942  0.1730  0.2107
52439W        W95352   3.680  31.758  18.865  0.1467  0.0496 -0.1288
52440W        W95353   8.777  29.430  23.263  0.0381  0.2101  0.1075
52441W        W95354   2.120  24.753  25.021  0.1087 -0.0178 -0.1963
52442W        W95355  15.881   6.487  18.252 -0.3324 -0.0128 -0.1410
52443W        W95356  11.960   0.869   2.635  0.1257 -0.1626  0.0436
52444W        W95357  14.172  31.511  19.462  0.0189  0.0528 -0.0875
52445W        W95358   6.276   1.581  24.974  0.0756 -0.0600 -0.0022
52446W        W95359  23.636  33.385  18.743  0.1996  0.0535  0.2536
52447W        W95360  19.068   3.246  17.874  0.0652 -0.2140 -0.0054
52448W        W95361  13.720   0.795  25.967  0.0919  0.5941 -0.3779
52449W        W95362  15.912   2.987  26.282 -0.2746  0.1818  0.1798
52450W        W95363  13.966  21.669  13.573 -0.2000  0.0201  0.0874
52451W        W95364  16.646  29.733  26.062 -0.3040  0.3616  0.2271
52452W        W95365  11.468  30.198  18.698  0.0598  0.1925 -0.0253
52453W        W95366  19.692   0.069  15.217 -0.0491  0.0228 -0.3660
52454W        W95367  15.463   3.296  24.642  0.0228 -0.0899 -0.1355
52455W        W95368  22.923   7.326  19.834 -0.2385  0.1631 -0.0694
52456W        W95369  18.354  29.849   0.201 -0.0914  0.0031  0.2740
52457W        W95370  10.564  15.453  17.638 -0.1199  0.0674 -0.1509
52458W        W95371  22.335  33.519  16.475  0.0781 -0.3172 -0.0810
52459W        W95372  16.174  32.792   1.652  0.0793  0.4057 -0.1681
52460W        W95373  11.565   8.155  22.773  0.0386 -0.0941 -0.2223
52461W        W95374   7.919  27.179  19.369 -0.1915  0.0083  0.0523
52462W        W95375  19.159   0.845  20.642 -0.1817  0.4182  0.0155
52463W        W95376  11.995   2.503  19.709 -0.1411 -0.2930 -0.0648
52464W        W95377  30.733   5.676  16.923 -0.1457 -0.1093 -0.1269
52465W        W95378   8.719   0.019  21.333 -0.1856 -0.2611  0.1434
52466W        W95379  15.034  32.404  17.752 -0.1374 -0.1183  0.0900
52467W        W95380  21.781   1.246  20.664 -0.0441 -0.1709  0.1415
52468W        W95381   3.706  18.973  20.803 -0.1606 -0.0711  0.0951
52469W        W95382  12.760  29.875  21.951 -0.1810  0.1978 -0.2330
52470W        W95383  16.102   3.688  16.187  0.3774 -0.0661 -0.3038
52471W        W95384  16.352   3.687  26.047 -0.1137  0.2810  0.3167
52472W        W95385  33.554  26.764  24.477  0.0243  0.1221  0.0286
52473W        W95386  15.854  30.681  21.492 -0.1269 -0.0767 -0.1318
52474W        W95387   2.870   6.903  23.122  0.0896 -0.3865 -0.0819
52475W        W95388  22.697  28.340  15.629 -0.2173 -0.1573 -0.0341
52476W        W95389  27.102   1.555  23.275 -0.0430 -0.0267  0.3158
52477W        W95390  24.417  10.201   9.351 -0.1719 -0.3478  0.0192
52478W        W95391   4.322  33.667  23.830 -0.3194 -0.0237 -0.1528
52479W        W95392  18.452   1.934   3.206 -0.0051 -0.1263  0.0108
52480W        W95393  15.474  34.015  21.999 -0.0615  0.0788  0.3459
52481W        W95394  15.627  29.994  27.579 -0.1665  0.2639  0.1804
52482W        W95395  13.625  30.559  27.015 -0.0642  0.1152 -0.1349
52483W        W95396  10.265   7.570  26.420 -0.2869  0.2038 -0.0426
52484W        W95397  15.111  33.167  21.972  0.0191 -0.1205 -0.2133
52485W        W95398   4.457  25.531  18.702  0.0765 -0.0540  0.1172
52486W        W95399  19.227  33.392  26.109  0.2702  0.1477 -0.0569
52487W        W95400  12.051   7.528   9.351  0.0771 -0.0148  0.0347
52488W        W95401  14.093   1.473   0.232  0.1933 -0.0672 -0.0184
52489W        W95402  34.293   7.169  21.873  0.4345  0.0009 -0.0902
52490W        W95403  12.393  25.922  23.915 -0.1834 -0.1964 -0.3635
52491W        W95404  16.540   7.910  28.490  0.0649 -0.0086  0.2467
52492W        W95405  15.313  29.843  24.019 -0.0750 -0.1188 -0.3519
52493W        W95406   0.435  25.665  24.658  0.2794 -0.0927 -0.0561
52494W        W95407  13.021  32.497  20.827 -0.2036 -0.0174  0.2817
52495W        W95408  12.329   2.437  28.620 -0.1623 -0.1784 -0.0148
52496W        W95409   6.303   1.103  23.973 -0.1276 -0.2426 -0.0295
52497W        W95410  10.491  32.909   0.188 -0.2597  0.0864  0.2325
52498W        W95411  17.504  28.986  23.329  0.2072  0.5836 -0.1921
52499W        W95412   7.125  33.510  16.446 -0.3658 -0.2372 -0.2750
52500W        W95413  19.124  29.725   3.155  0.1444  0.0156  0.0910
52501W        W95414  14.534  30.117  27.395 -0.2834  0.0528  0.1435
52502W        W95415   3.775  30.772  17.354  0.1159 -0.0549  0.0754
52503W        W95416   3.897  28.098  20.045 -0.0402  0.3031  0.4003
52504W        W95417  12.220   0.691  23.257 -0.0281  0.1416 -0.1398
52505W        W95418  12.214   4.149  26.709 -0.0529 -0.1723  0.0785
52506W        W95419  32.251   8.033   6.722 -0.1770  0.0151 -0.0828
52507W        W95420  15.530  26.822  18.790  0.1387  0.0186  0.5331
52508W        W95421  13.388   1.117  29.181  0.0647  0.2955 -0.0267
52509W        W95422  10.278   0.860   4.585  0.1509  0.1102 -0.1682
52510W        W95423   2.230  23.737  27.602 -0.1710 -0.3652  0.1462
52511W        W95424  13.590  25.474  26.604 -0.0327 -0.0904 -0.0583
52512W        W95425   5.057  28.841  18.060  0.0820  0.1655 -0.0078
52513W        W95426  18.453   3.689  22.805  0.3025  0.0883  0.0314
52514W        W95427  10.044   3.593   0.956  0.2666  0.0664 -0.1051
52515W        W95428  19.426  29.877  16.646 -0.2167 -0.0279  0.0082
52516W        W95429  20.968   7.347  25.015  0.1483 -0.2148 -0.0872
52517W        W95430  26.532   0.204  20.905 -0.0153  0.0480 -0.2596
52518W        W95431  24.863   6.085  14.093  0.1491 -0.0153  0.0758
52519W        W95432  10.041  26.598  20.959 -0.1294 -0.1517  0.4266
52520W        W95433  23.535  20.209  13.704 -0.2718 -0.0042  0.1959
52521W        W95434  21.076  31.281  21.210  0.1624 -0.1245  0.0087
52522W        W95435   5.645   4.644   1.321 -0.0588  0.1951 -0.0720
52523W        W95436  19.612  29.762  22.972 -0.0014 -0.0893  0.0941
52524W        W95437  17.262  34.408   2.037  0.1377  0.1295 -0.0742
52525W        W95438  13.300   0.194  21.096 -0.2399 -0.0109 -0.1510
52526W        W95439  17.132  34.019  23.119 -0.0218 -0.4879  0.2741
52527W        W95440  10.184   3.195  25.696 -0.1353  0.0692 -0.3055
52528W        W95441  24.127  32.371  28.005  0.0659 -0.1753  0.1164
52529W        W95442  16.647   3.905  23.413  0.0098 -0.1322 -0.2804
52530W        W95443  23.904   0.711  19.869  0.0744 -0.0245 -0.1033
52531W        W95444  16.444   3.782  20.601 -0.3134 -0.1056 -0.2185
52532W        W95445  34.387  33.682   1.958  0.3517  0.0263  0.1025
52533W        W95446  16.703  31.514  26.714  0.1448  0.1419  0.0284
52534W        W95447  27.261  31.695  26.452 -0.1370  0.1739 -0.0893
52535W        W95448  13.575  33.378  26.217 -0.2183  0.1237  0.3269
52536W        W95449  15.754  32.277  28.500  0.0267 -0.0440 -0.0034
52537W        W95450  11.709   1.062  29.705 -0.0736 -0.0407 -0.1003
52538W        W95451  17.062  12.353  12.591  0.1418  0.0053 -0.0759
52539W        W95452  11.278   4.349  20.113  0.3376 -0.1534  0.1671
52540W        W95453   6.302  31.497  27.124  0.0740 -0.2915  0.0758
52541W        W95454  19.445  26.840  14.303 -0.0377 -0.2050  0.1273
52542W        W95455   8.768  28.890  25.158  0.0121  0.1406 -0.1040
52543W        W95456  10.823  27.905   1.251  0.2628  0.0678 -0.0716
52544W        W95457  16.322   3.029  18.332 -0.0943  0.1997  0.2548
52545W        W95458  20.753   3.244  18.994  0.0850 -0.0068  0.2510
52546W        W95459  16.264   6.471  17.824  0.2631  0.0614 -0.0875
52547W        W95460  11.475   0.114  23.421 -0.2554 -0.2889  0.0979
52548W        W95461  13.743  28.682   0.838  0.2341 -0.0935  0.0961
52549W        W95462  16.526   1.001  18.975 -0.1557  0.1158 -0.1957
52550W        W95463  12.055   2.318  22.791 -0.2726  0.0053  0.0405
52551W        W95464  16.240  31.314   2.018 -0.0905  0.1410  0.0812
52552W        W95465  15.914  32.585  24.175 -0.0400 -0.0518 -0.1134
52553W        W95466  25.648   6.084   4.168 -0.2781  0.1301 -0.1063
52554W        W95467  25.124  28.022   0.428 -0.1842  0.0296  0.0658
52555W        W95468  16.320  34.344  22.428 -0.1428  0.2289 -0.3025
52556W        W95469  20.456   3.931  22.429 -0.2558  0.1133 -0.1264
52557W        W95470  26.121  31.824  16.093  0.0518  0.3418 -0.0157
52558W        W95471   7.780  26.114  24.747 -0.0360 -0.2719  0.1119
52559W        W95472   9.965  33.748  22.310  0.4633 -0.2646  0.2076
52560W        W95473  15.229  33.033  28.509 -0.0101 -0.0414  0.0202
52561W        W95474  16.514  25.962  15.577 -0.7195 -0.0821  0.1694
52562W        W95475  15.754   3.314  26.678  0.0837  0.0093  0.0573
52563W        W95476  17.478  22.555  16.278 -0.0227  0.0913  0.0197
52564W        W95477  18.000  31.029  15.880 -0.1320 -0.1530  0.1771
52565W        W95478  20.827   4.001  28.242 -0.1042  0.1585 -0.2277
52566W        W95479  30.862  22.702  25.765 -0.2389 -0.3147 -0.0311
52567W        W95480   7.275  26.771  24.116  0.1364 -0.2793 -0.3124
52568W        W95481   1.430  31.228  17.069 -0.0680 -0.2279 -0.2466
52569W        W95482  30.721  11.693  15.891  0.0477 -0.0714 -0.1024
52570W        W95483   1.402   0.372  23.411  0.0860  0.1204  0.0925
52571W        W95484   5.256  27.235  23.107 -0.0716 -0.1061  0.1229
52572W        W95485   4.161   0.063  22.075 -0.1462  0.0966 -0.0152
52573W        W95486  14.111   5.107  17.844 -0.0545 -0.2570 -0.0075
52574W        W95487  12.052   2.833  24.064 -0.1910  0.2574 -0.1328
52575W        W95488   8.927   1.714  29.368 -0.0994  0.1060  0.0816
52576W        W95489   8.986  33.711   9.441 -0.0829 -0.0748 -0.0616
52577W        W95490   3.433  32.192  24.700 -0.5668 -0.2501 -0.3885
52578W        W95491   9.087   2.814  18.742 -0.0529 -0.0880 -0.0829
52579W        W95492   7.981  11.657  20.821  0.0136  0.1268 -0.2903
52580W        W95493   9.247  26.597  16.051 -0.4442 -0.1836  0.2314
52581W        W95494  12.790  33.704  21.418  0.2776 -0.0126 -0.0960
52582W        W95495  14.440   1.681  22.071 -0.0860 -0.1154  0.2157
52583W        W95496   8.197   0.498  27.987  0.0589 -0.1093  0.0585
52584W        W95497  20.121   9.514  18.236  0.1668 -0.3040 -0.0328
52585W        W95498  18.729  33.164   4.326  0.1894  0.0394  0.0274
52586W        W95499   7.106  28.494  19.279 -0.1680  0.0169 -0.2058
52587W        W95500  22.463   7.948  17.207  0.2730  0.3256 -0.0863
52588W        W95501   0.829  32.162   1.954 -0.2262 -0.1200 -0.0268
52589W        W95502  16.882   4.590  25.831 -0.0960 -0.0476 -0.1573
52590W        W95503  17.491  10.543  24.170 -0.3354  0.1235  0.0063
52591W        W95504  24.275   7.377   0.276 -0.2122  0.2191 -0.0833
52592W        W95505  17.592  33.010  25.736 -0.1958  0.2270  0.3062
52593W        W95506  13.527   3.128  26.917  0.3159 -0.0231 -0.1333
52594W        W95507   5.856  13.549  18.210 -0.1280 -0.1477  0.0450
52595W        W95508  18.986   5.291  21.336 -0.0151  0.0952 -0.1193
52596W        W95509  11.154   7.209  24.267 -0.1829  0.0181  0.1000
52597W        W95510  12.230  31.507  23.581 -0.2655  0.0649 -0.0427
52598W        W95511  18.944  30.763  24.532 -0.5145 -0.2568  0.0738
52599W        W95512   6.615   0.836  23.436  0.3269 -0.1860 -0.2498
52600W        W95513  18.028   0.196  26.676  0.2249  0.1269 -0.0564
52601W        W95514  26.401  28.759  16.397  0.0459 -0.1556 -0.0979
52602W        W95515  25.548  32.047  21.605 -0.2900  0.1010 -0.0556
52603W        W95516  10.317   6.073  19.852 -0.4111 -0.1652 -0.1802
52604W        W95517  10.667  11.189  22.010 -0.1624  0.4311 -0.0643
52605W        W95518  11.051   0.302  17.790 -0.1554 -0.1183  0.0325
52606W        W95519  24.281  15.645  17.790 -0.1663  0.2933  0.0169
52607W        W95520   7.236  29.865  20.348  0.3094 -0.3088 -0.1068
52608W        W95521  18.952   7.281  26.629 -0.1329 -0.0930 -0.0813
52609W        W95522  17.028   6.260  24.661 -0.1597  0.2109 -0.0443
52610W        W95523  11.194   8.098   5.384  0.2290 -0.1263 -0.0450
52611W        W95524  10.866  29.354  21.796  0.2041 -0.1281 -0.1141
52612W        W95525  21.112  28.537  22.861 -0.0246  0.0565  0.1955
52613W        W95526   9.431   0.515  24.600  0.0627  0.3054 -0.2781
52614W        W95527  13.493  33.132  23.810 -0.1157  0.3683  0.0986
52615W        W95528   0.590   0.462  22.917  0.0658 -0.0508 -0.1290
52616W        W95529   4.541   3.689  22.806 -0.1502  0.0113 -0.0630
52617W        W95530  11.767  33.533  23.324  0.1187 -0.0782 -0.4485
52618W        W95531  11.722   4.722  29.299  0.0252 -0.5548 -0.2214
52619W        W95532  24.973  30.236  16.654 -0.1768  0.1210  0.4080
52620W        W95533  11.974  11.175  21.063 -0.2277  0.1323  0.1400
52621W        W95534   9.781  22.196  23.662  0.0256  0.1037 -0.0399
52622W        W95535   7.103  27.489  27.324 -0.0230  0.1044 -0.2680
52623W        W95536  16.427  14.205  15.514  0.3003  0.0282 -0.0698
52624W        W95537   4.934  27.661  25.024 -0.1772 -0.1872 -0.2085
52625W        W95538   2.706   4.150  27.651 -0.0801 -0.0748  0.2544
52626W        W95539  27.463  32.999   1.378  0.0078  0.1714 -0.1863
52627W        W95540  18.537  20.171  15.762 -0.0564  0.0035  0.0510
52628W        W95541  17.292   2.791  16.898 -0.0703 -0.0322 -0.0666
52629W        W95542   7.416   1.229  24.779 -0.3191  0.2042 -0.1964
52630W        W95543   7.531  33.148  10.749  0.1041 -0.1755 -0.0460
52631W        W95544  11.266  27.425  27.614  0.1240 -0.0838  0.1236
52632W        W95545  13.156  32.298  28.643  0.0082  0.1196 -0.0473
52633W        W95546  23.555   0.234  20.919  0.1996  0.1436 -0.0822
52634W        W95547  14.173  27.194   2.918 -0.1980  0.1361  0.2433
52635W        W95548   4.234   5.188  21.979  0.1497 -0.5082 -0.3497
52636W        W95549  26.922   4.870   6.956  0.0360  0.0381  0.1567
52637W        W95550  10.969   0.917  24.950 -0.0261  0.2324 -0.1157
52638W        W95551   4.561  31.149  26.221 -0.2609 -0.3045 -0.2080
52639W        W95552  24.516   8.220  19.928 -0.1351  0.0393  0.1856
52640W        W95553  23.215  34.110  19.670  0.0221  0.0233  0.0517
52641W        W95554  17.960  30.487  22.902 -0.1896  0.1331 -0.1237
52642W        W95555  26.315   2.212  23.409 -0.0004  0.0147  0.0587
52643W        W95556   9.447  30.783   1.248 -0.0800 -0.2009  0.1791
52644W        W95557  17.168   7.578  18.154 -0.3483  0.0449 -0.1348
52645W        W95558  20.517   0.022  23.210 -0.0109 -0.1222  0.2048
52646W        W95559   9.355  27.984  21.426  0.4239 -0.0369 -0.2124
52647W        W95560  24.521   9.008  20.086  0.0817 -0.0653 -0.1712
52648W        W95561  15.282  33.049  24.759  0.0895  0.1039  0.3903
52649W        W95562  23.762   1.669  21.974 -0.0471 -0.4543 -0.2670
52650W        W95563  21.682  34.234  23.636 -0.0186  0.1653  0.2342
52651W        W95564   9.782   9.942   3.311 -0.1507  0.1111  0.1197
52652W        W95565   6.539  28.913  26.960 -0.0817 -0.1679 -0.0047
52653W        W95566  17.570  30.328  17.441  0.0323  0.2393 -0.2658
52654W        W95567  14.448  17.648  13.799  0.1068 -0.1981 -0.0808
52655W        W95568  18.629   0.565  14.885  0.0120 -0.2126  0.0252
52656W        W95569  19.263   3.465  25.592  0.1276  0.2085  0.1159
52657W        W95570   7.295  33.364  22.409  0.1494 -0.1894 -0.0593
52658W        W95571   9.608   5.379  28.303 -0.5120  0.0870  0.1413
52659W        W95572  19.849   8.910  18.344 -0.1301  0.1674 -0.0488
52660W        W95573  13.426   7.873  17.790 -0.2617 -0.0192 -0.1353
52661W        W95574  16.355  22.382  18.676 -0.0694 -0.1459 -0.1250
52662W        W95575  16.626   6.946  28.912 -0.1746 -0.4162 -0.1858
52663W        W95576   4.657   0.119  21.764  0.0045 -0.5800  0.1804
52664W        W95577  20.416  32.218  25.484 -0.2502  0.0193  0.0137
52665W        W95578  17.939   2.636  25.988  0.0072 -0.1003  0.1505
52666W        W95579   3.111  30.003  24.849 -0.0717 -0.3550 -0.3096
52667W        W95580  22.372  33.833  21.710 -0.0281 -0.0223 -0.2614
52668W        W95581   7.751   2.795  28.418  0.0432 -0.0438  0.4694
52669W        W95582  24.640   6.997  17.642  0.0863 -0.4264  0.2035
52670W        W95583  14.635   0.766  18.390  0.1385  0.1463 -0.0563
52671W        W95584  10.127   5.605  19.961  0.3069  0.2804  0.1191
52672W        W95585  16.083   5.698   7.874 -0.0621  0.1210  0.0035
52673W        W95586  12.067   7.397  17.495 -0.3062  0.2871  0.0945
52674W        W95587   5.862   1.827  22.002 -0.3040 -0.1273 -0.2145
52675W        W95588  33.110   6.693   2.346  0.1433  0.2700  0.3136
52676W        W95589  16.040  32.757  20.553 -0.2795  0.1731  0.1926
52677W        W95590  23.237  20.602   0.380 -0.0249  0.2631 -0.0138
52678W        W95591  16.533   5.812  28.147  0.1126 -0.1606  0.0167
52679W        W95592   9.092   0.881  28.286 -0.0484  0.1575 -0.1600
52680W        W95593  16.328   9.153   6.842 -0.2994  0.0791  0.2780
52681W        W95594  10.451  13.674  17.819 -0.0374  0.0473  0.2076
52682W        W95595  32.754  33.323   1.806 -0.2067 -0.2677  0.2147
52683W        W95596   9.241   5.589  22.841  0.1830 -0.0297  0.3451
52684W        W95597  17.148  27.799  23.442 -0.2458 -0.0456  0.2047
52685W        W95598   3.791   4.041  23.261 -0.0014 -0.0725  0.1192
52686W        W95599  15.111   2.879   3.075 -0.0006  0.1671 -0.0596
52687W        W95600  13.783   2.780  25.002 -0.4509  0.0279  0.3454
52688W        W95601   9.324  29.789  20.070 -0.1893  0.1980  0.0957
52689W        W95602  10.496  32.360  20.470 -0.0723 -0.3323 -0.3985
52690W        W95603  16.771  27.858  19.012 -0.3433  0.0789 -0.2969
52691W        W95604   8.830  24.402  15.170  0.1933  0.0783 -0.0235
52692W        W95605   6.501  27.154  16.289  0.1269 -0.1312 -0.3133
52693W        W95606   6.733   0.515  16.680  0.0085  0.0110  0.1049
52694W        W95607   7.491  28.349   7.326  0.2145  0.1520  0.0045
52695W        W95608   9.417  34.153  27.614 -0.0150  0.0978 -0.2419
52696W        W95609  23.431   3.433  23.401 -0.2320 -0.0620 -0.0316
52697W        W95610   5.835  29.091  17.870 -0.0514  0.0905  0.2429
52698W        W95611   3.308  33.259  16.244  0.7431  0.0428  0.0748
52699W        W95612  17.910   0.242  20.693  0.1022  0.1713  0.0669
52700W        W95613   9.962   2.947   3.635  0.0792  0.3270  0.0471
52701W        W95614  13.581  26.587  22.618  0.1978  0.1004  0.1160
52702W        W95615  15.893   3.904  27.868 -0.0330  0.2575  0.0686
52703W        W95616  21.242  11.419  27.174  0.1109 -0.1677 -0.1963
52704W        W95617  19.293  32.322  25.107  0.4212 -0.2037 -0.3122
52705W        W95618  16.611  15.250  26.249  0.1382  0.2940  0.0507
52706W        W95619  10.350   2.165  18.199 -0.1550 -0.1113  0.3182
52707W        W95620  14.170   4.337   2.384 -0.0590  0.2353 -0.1039
52708W        W95621  19.938  30.042  29.638 -0.0659  0.2365  0.1021
52709W        W95622  17.689   2.085  20.196 -0.0372  0.2078 -0.0054
52710W        W95623  21.973  31.367  27.616  0.3493  0.0060  0.1361
52711W        W95624   0.006  26.859   2.852 -0.1070  0.4747 -0.1237
52712W        W95625  14.779  13.222  23.626  0.1421 -0.0036 -0.1407
52713W        W95626  16.490  24.685  24.663  0.1008  0.2818 -0.1305
52714W        W95627  14.879  31.706  24.726  0.2591 -0.1559 -0.2790
52715W        W95628  17.184   5.403  17.724 -0.2451 -0.0790 -0.2703
52716W        W95629   3.985  10.491  29.215 -0.1178  0.1788 -0.4661
52717W        W95630  11.337   2.194  25.550  0.4006  0.0274 -0.0039
52718W        W95631  21.759   4.934  19.341 -0.2160  0.2152  0.0813
52719W        W95632  15.696   5.670  17.464  0.0941 -0.0329  0.2281
52720W        W95633   5.765  29.209   1.799  0.1567 -0.2523  0.3720
52721W        W95634  18.853   5.130   2.873 -0.1223  0.6947  0.0749
52722W        W95635  19.275   6.164   1.071  0.3185 -0.0438 -0.2698
52723W        W95636  32.719   3.727  17.540 -0.0117  0.0290  0.0227
52724W        W95637  22.540  29.511  17.951  0.0290  0.0814 -0.2377
52725W        W95638  10.668  23.962  15.776 -0.0960  0.1989 -0.1827
52726W        W95639  14.320   8.395   5.996  0.0681 -0.0547  0.0540
52727W        W95640  12.404  32.326   3.979  0.0545 -0.1874  0.0578
52728W        W95641  33.644  32.229  27.972 -0.0458 -0.2860  0.0317
52729W        W95642  15.987  30.209  26.347  0.1202 -0.1883 -0.2213
52730W        W95643  10.714  26.037   3.300 -0.2489  0.0006 -0.1079
52731W        W95644  14.969   2.029  18.220  0.3090 -0.3418  0.0174
52732W        W95645  14.932  13.139  19.615 -0.1035 -0.0178  0.0598
52733W        W95646   9.819  27.235  24.694 -0.2778 -0.3313  0.1860
52734W        W95647  30.965  27.666   5.042 -0.2303 -0.3960  0.0791
52735W        W95648   0.993   9.293  19.233  0.1726  0.1056  0.1063
52736W        W95649   9.640  32.545  24.570 -0.1576 -0.0870 -0.0672
52737W        W95650   7.854  30.555  25.284 -0.2379 -0.0584 -0.3405
52738W        W95651   0.665  25.887  27.495 -0.2053  0.0852  0.1438
52739W        W95652   1.170   5.073  24.438  0.0225  0.1408  0.3678
52740W        W95653  21.119   0.583  15.769 -0.0853  0.2398  0.0626
52741W        W95654   4.981   0.713  29.611  0.0685 -0.1862 -0.0011
52742W        W95655   4.079   5.864   2.200 -0.0872 -0.4270  0.1047
52743W        W95656   9.799  32.364  23.692  0.1247  0.1275  0.1789
52744W        W95657  10.157   7.974  28.020  0.1826 -0.0735 -0.1227
52745W        W95658   1.011   4.263  20.117 -0.0881  0.3577  0.0859
52746W        W95659  10.080  28.914   0.136 -0.2328 -0.2574  0.0068
52747W        W95660  18.600   4.195  16.125 -0.1180 -0.1281  0.0809
52748W        W95661   8.606  32.841   2.044 -0.2143 -0.2476 -0.2239
52749W        W95662  10.860   0.846   0.219 -0.0044 -0.1649  0.1649
52750W        W95663  14.497   4.570  29.194 -0.0040  0.0103 -0.2655
52751W        W95664   7.606   0.887  19.085 -0.2566  0.3065 -0.0483
52752W        W95665  14.032   8.760   6.314  0.2426 -0.1536  0.2782
52753W        W95666   9.094  22.559  18.754 -0.2576  0.1261  0.2543
52754W        W95667  16.263   8.890  26.546  0.1837  0.1799  0.1737
52755W        W95668   7.864   9.856  22.336 -0.0818 -0.1448  0.0051
52756W        W95669  20.698   2.388  16.890  0.3643  0.0732 -0.0161
52757W        W95670   5.756   7.657  23.509  0.2493  0.3591 -0.2949
52758W        W95671   7.774  23.434  27.843 -0.0154 -0.1307  0.0156
52759W        W95672  14.933  34.322  23.445  0.1148  0.4483 -0.2602
52760W        W95673   7.353   2.563  26.641 -0.2956 -0.2051 -0.3086
52761W        W95674   4.217  33.013  18.329 -0.0455 -0.0005 -0.1225
52762W        W95675  21.385  32.652  17.386  0.0287 -0.2927  0.0522
52763W        W95676  24.527  30.752  17.752  0.4031 -0.0104  0.3350
52764W        W95677   7.284   8.393  21.787 -0.1763 -0.0897 -0.0810
52765W        W95678  19.549  22.939  20.869  0.1501 -0.0022 -0.3348
52766W        W95679  11.094  10.290  18.963 -0.2618  0.0349  0.1357
52767W        W95680  12.060  33.080  22.581  0.3110  0.1573 -0.1293
52768W        W95681   7.143  28.365  15.547 -0.1121 -0.2700  0.2362
52769W        W95682  14.749   4.171  19.761  0.1534 -0.0149 -0.0949
52770W        W95683   3.453   1.853  20.012  0.2557  0.1475  0.1170
52771W        W95684   6.792  20.460   3.785 -0.0821  0.0307  0.2721
52772W        W95685  11.559  31.602  25.025 -0.0842  0.1528 -0.0538
52773W        W95686   9.325  28.563   9.157 -0.1708 -0.0481 -0.1896
52774W        W95687   8.455  34.008   4.900 -0.1557  0.1184 -0.1834
52775W        W95688  12.935   7.778  22.886 -0.0697 -0.0004 -0.1180
52776W        W95689  20.820   4.148  18.365 -0.1721 -0.1450 -0.0233
52777W        W95690   7.213  34.198   0.350  0.1220  0.0376 -0.0065
52778W        W95691  10.380  32.359  23.521  0.1493 -0.1650 -0.0134
52779W        W95692   7.365   3.747   4.072 -0.1218 -0.1707 -0.1304
52780W        W95693  14.452  32.025   0.003  0.0159  0.1506 -0.1295
52781W        W95694   1.054   2.134  16.214  0.3582 -0.1139 -0.0900
52782W        W95695  20.366   6.975  19.973  0.0299 -0.0913 -0.0245
52783W        W95696  19.677  33.196  28.768 -0.1695 -0.3488 -0.1183
52784W        W95697   8.162  26.744  19.284 -0.2448 -0.0132 -0.0796
52785W        W95698  17.576   1.009  27.112 -0.1056 -0.1012  0.1110
52786W        W95699  13.472   0.779  19.641  0.0943  0.0382 -0.3071
52787W        W95700  13.714   7.371  16.883  0.1440 -0.0525 -0.1239
52788W        W95701   7.296  27.782  22.438 -0.0244 -0.1886 -0.1675
52789W        W95702  15.027  34.102  29.734 -0.4177 -0.1126 -0.1389
52790W        W95703  12.222  33.674  23.854  0.1211  0.0067  0.0269
52791W        W95704  13.575  33.835  27.026  0.2105 -0.0326  0.3034
52792W        W95705  12.857   0.899  21.366 -0.1094 -0.2136  0.2236
52793W        W95706   9.694  25.036  22.502 -0.4518  0.0184 -0.1009
52794W        W95707   8.095  21.634  18.780  0.0780  0.1059 -0.0972
52795W        W95708   4.266  24.993  28.000  0.0465  0.1152 -0.0573
52796W        W95709  18.832  24.250  17.820 -0.0176  0.2028 -0.1801
52797W        W95710  20.606  29.546  15.779  0.2864 -0.2114 -0.1053
52798W        W95711  10.018  21.085  20.705 -0.4986  0.0466 -0.0618
52799W        W95712  10.008   0.161  20.621 -0.1862 -0.2271 -0.2274
52800W        W95713   9.616  29.461  17.468 -0.2979 -0.0231  0.0140
52801W        W95714   6.247  12.615  19.163  0.1653 -0.1825 -0.1138
52802W        W95715   2.301  33.204  24.204 -0.0852  0.0087  0.0302
52803W        W95716  19.291   1.584  21.652  0.1711  0.0269  0.2337
52804W        W95717  16.455   6.710  20.237  0.1628 -0.1795 -0.1124
52805W        W95718  15.659   5.580   1.425 -0.1860 -0.1018 -0.0653
52806W        W95719  15.990  27.947  22.661  0.0497 -0.0589  0.0024
52807W        W95720  24.168   4.239  18.182 -0.0538  0.2169 -0.0185
52808W        W95721  10.910   0.132   3.899  0.0179  0.2966  0.1687
52809W        W95722  12.576  26.018  25.864  0.2107 -0.0318  0.1583
52810W        W95723   1.732  31.421  18.566  0.0469  0.0729 -0.1145
52811W        W95724   6.395   2.881  28.192  0.2298 -0.2099 -0.2544
52812W        W95725  16.678   3.890  25.569  0.0764 -0.1595 -0.0480
52813W        W95726   5.292   4.335  25.605  0.1175  0.2630 -0.0207
52814W        W95727  10.039   2.913  18.510 -0.1415 -0.3159 -0.3103
52815W        W95728   8.469  28.495  27.212 -0.2349  0.1365 -0.0176
52816W        W95729   9.938  33.976   1.549 -0.2715 -0.1237  0.1724
52817W        W95730  15.536   4.212   0.061 -0.1253  0.3606 -0.1038
52818W        W95731  31.656   1.305  19.439 -0.2515  0.0948  0.0816
52819W        W95732  11.109   6.963  20.994 -0.0357  0.0810 -0.0447
52820W        W95733  10.458  30.847  23.539  0.2171 -0.0268 -0.1537
52821W        W95734  13.905   3.084  25.957  0.1497  0.3920  0.0249
52822W        W95735  16.457   4.501  20.375  0.0122 -0.1341 -0.1601
52823W        W95736  28.543   5.061  14.814 -0.2644 -0.2456  0.0591
52824W        W95737  10.451  26.836  29.232 -0.5270  0.0332  0.2955
52825W        W95738  13.012  26.046  17.709  0.0330  0.0146  0.0406
52826W        W95739   7.493  30.164   1.785  0.1737  0.3210 -0.2028
52827W        W95740  13.070  32.590   1.016 -0.3341 -0.2181  0.0392
52828W        W95741  14.744  26.936  17.765 -0.0105 -0.2954 -0.0664
52829W        W95742  12.848  21.284  17.868 -0.2102  0.0574 -0.1123
52830W        W95743  15.219   0.997  22.970  0.2623 -0.0453  0.2308
52831W        W95744  10.258  33.392  25.159 -0.2101  0.1250  0.2167
52832W        W95745  20.380  19.771  28.023  0.2605 -0.2631  0.0086
52833W        W95746  18.723  34.156  19.012  0.0070  0.1559  0.3591
52834W        W95747  16.175   1.356  19.702  0.2586  0.1311 -0.0503
52835W        W95748  11.624  32.407  21.225  0.0127 -0.0410  0.3823
52836W        W95749   5.086   2.475   9.448  0.1036  0.0464 -0.0675
52837W        W95750  13.921  31.451  28.951 -0.1106  0.1325  0.1522
52838W        W95751   5.588  29.944  17.616  0.2791  0.0245 -0.3918
52839W        W95752  17.876  33.209  24.569 -0.1146  0.0377  0.0918
52840W        W95753   7.075  30.754  19.370 -0.5056 -0.1814 -0.0347
52841W        W95754  23.247   9.913  19.324  0.0437 -0.1931 -0.1921
52842W        W95755  13.500   3.815   1.098  0.0362  0.1016  0.0526
52843W        W95756  16.191   6.244  25.402 -0.2901  0.2094 -0.0392
52844W        W95757  23.922  15.122  19.409 -0.0546 -0.1948  0.1346
52845W        W95758   7.864  10.197  16.609 -0.1571 -0.1139 -0.3937
52846W        W95759  11.539   1.483   5.041  0.1457  0.2045  0.1230
52847W        W95760   4.999  30.561   0.816  0.2101 -0.1224 -0.2961
52848W        W95761  14.669   9.038  27.436 -0.1157 -0.3399  0.1702
52849W        W95762  12.491  30.521  28.701 -0.0973  0.3170 -0.0982
52850W        W95763   5.712  24.012  20.682  0.1946  0.3871 -0.0429
52851W        W95764  15.639   3.567  19.396  0.2109 -0.0449 -0.0300
52852W        W95765  10.960   8.785  23.634  0.3458  0.5085  0.1165
52853W        W95766   4.389  33.190  27.245  0.3147  0.3192 -0.2387
52854W        W95767   6.401   4.617  19.534 -0.3205  0.1721 -0.1549
52855W        W95768  21.918   0.163  21.696  0.4550  0.0947  0.2023
52856W        W95769  15.883   2.394   2.458  0.1885 -0.1487 -0.0487
52857W        W95770   1.471  30.201  23.900 -0.0111  0.0974 -0.0428
52858W        W95771  25.526   2.384  19.765 -0.1222 -0.0082 -0.0703
52859W        W95772   2.432  32.831  28.209  0.1772  0.3255 -0.1399
52860W        W95773  33.352  26.085  28.372  0.1542 -0.0839 -0.0092
52861W        W95774  27.303  32.326   1.814 -0.0806  0.2854  0.3956
52862W        W95775  18.886  24.090  28.202 -0.0674 -0.0311  0.2348
52863W        W95776   6.153  34.005  21.238  0.1571 -0.2737 -0.0997
52864W        W95777  13.830  26.970  26.829 -0.0337  0.3354  0.1126
52865W        W95778  19.353  33.735   2.459  0.0260  0.2152 -0.1982
52866W        W95779   9.705   0.618   4.522 -0.2212 -0.2112 -0.1403
52867W        W95780  10.831  31.913  17.348 -0.0286 -0.3660 -0.0321
52868W        W95781  17.274  22.636  22.961 -0.1068  0.1954  0.0808
52869W        W95782  15.194  23.393  27.288  0.1479 -0.4171 -0.1679
52870W        W95783  13.782   5.124  23.967 -0.1635  0.3059  0.2163
52871W        W95784  12.848   8.571  27.306 -0.0497  0.2222 -0.0758
52872W        W95785  24.080  21.585  19.844 -0.1183  0.0824  0.0782
52873W        W95786  21.421  32.347  21.497 -0.2535 -0.1227  0.0545
52874W        W95787   9.810   0.623  26.558  0.0660 -0.0428  0.1196
52875W        W95788   5.261   7.639   1.472  0.0470  0.1369 -0.0631
52876W        W95789   1.135  10.525   3.617  0.0296  0.1963  0.2524
52877W        W95790  17.231  25.823  28.953  0.1035  0.1156  0.0567
52878W        W95791   9.184  11.373  21.236 -0.0383  0.2286  0.2812
52879W        W95792  11.248   7.914   1.311  0.1481  0.2711 -0.0369
52880W        W95793  16.445  26.859  23.753 -0.2164  0.2976  0.2346
52881W        W95794  12.870  25.424  14.514 -0.0330  0.1476  0.0618
52882W        W95795   8.390  33.803  20.728 -0.1475 -0.5252  0.0445
52883W        W95796  10.172   0.597   7.184 -0.1328  0.0001  0.1978
52884W        W95797  17.744  34.453   9.798  0.0039 -0.0670 -0.0891
52885W        W95798  33.960   1.349  17.221  0.1516  0.1053 -0.1457
52886W        W95799  16.430  33.462  17.053 -0.0802 -0.1947 -0.0556
52887W        W95800  12.467   9.592   0.984  0.0533 -0.0835  0.2697
52888W        W95801  10.379  26.970  24.660 -0.1546 -0.0932 -0.0745
52889W        W95802   9.130  23.631  21.466  0.1450 -0.1504  0.2563
52890W        W95803   4.801  31.150  21.878 -0.1233 -0.2530  0.3044
52891W        W95804  19.329  31.387  23.242 -0.0832 -0.0955 -0.3626
52892W        W95805  16.331  26.157   3.457  0.1262  0.2439  0.1476
52893W        W95806  21.791  33.691  25.036  0.0903  0.0921 -0.2510
52894W        W95807   0.148  31.632   0.744 -0.0744 -0.0914  0.0257
52895W        W95808   6.946   1.096   4.488 -0.1593  0.2405 -0.0674
52896W        W95809  16.872   3.192   1.504 -0.0422 -0.2336  0.1852
52897W        W95810  10.688  10.816   0.991  0.0207 -0.2583  0.0012
52898W        W95811  19.527  12.537  21.048 -0.0076  0.1160 -0.0363
52899W        W95812  16.513  31.245  24.268  0.0280  0.2108 -0.0739
52900W        W95813  21.447  27.190  25.012  0.1736  0.0894 -0.1717
52901W        W95814  15.743   5.351  20.484  0.1677  0.0917  0.0783
52902W        W95815  12.654   2.471  22.074 -0.0133 -0.0409  0.2400
52903W        W95816  14.066   1.133  25.794 -0.0354  0.0746  0.0316
52904W        W95817  20.089   3.835   4.343 -0.1307 -0.0086 -0.0669
52905W        W95818  28.427   1.329  15.268 -0.0027 -0.0746  0.0334
52906W        W95819  11.570   0.052  20.470  0.0549  0.3139 -0.0113
52907W        W95820   1.088  24.232  26.837 -0.3057 -0.1036 -0.1710
52908W        W95821  17.753   1.622   8.040  0.2343  0.2894  0.0230
52909W        W95822   9.016   2.631   5.783 -0.1303  0.1156  0.0805
52910W        W95823  13.075  24.523  27.433  0.0569  0.0729 -0.0261
52911W        W95824   6.052  26.781  28.128 -0.3521 -0.0172  0.0278
52912W        W95825  13.684  34.370  27.144  0.1305 -0.1320 -0.0824
52913W        W95826  12.472  33.459   1.651 -0.3504 -0.1747 -0.2317
52914W        W95827   1.148   1.515   9.939 -0.1278  0.1462  0.0735
52915W        W95828   5.323  34.180  21.771 -0.2273  0.0911 -0.1003
52916W        W95829  18.502  14.713  25.493  0.0802  0.0393  0.1495
52917W        W95830  15.310   3.131   1.499  0.1617 -0.1570  0.3991
52918W        W95831   2.684   0.577  29.315  0.1845 -0.0573  0.1465
52919W        W95832   9.483  30.493  22.637 -0.0641 -0.1067 -0.0184
52920W        W95833   9.267   3.308   2.412  0.1650  0.2058 -0.3864
52921W        W95834  16.494  29.515  23.777 -0.2966 -0.0039  0.1370
52922W        W95835  15.146   7.108  20.343  0.0393 -0.0170  0.1162
52923W        W95836  10.703   9.002  21.949  0.2104  0.2827 -0.0891
52924W        W95837  16.821  13.402  21.330  0.1234 -0.0377 -0.1560
52925W        W95838  12.505  25.278  23.753 -0.1536 -0.1188 -0.0622
52926W        W95839  13.097  32.662  23.015  0.1355  0.0096 -0.0711
52927W        W95840   4.221   7.201   8.151 -0.1967 -0.0758 -0.1670
52928W        W95841  12.307  25.458  27.069  0.1296  0.1056 -0.0712
52929W        W95842  17.948  34.174  28.806  0.3065  0.3321  0.1872
52930W        W95843  19.227   2.400  24.474  0.1983 -0.2288  0.0190
52931W        W95844  17.708   1.453  28.993  0.2015  0.0637  0.0338
52932W        W95845  27.958   0.581   8.057  0.1304 -0.1542  0.0942
52933W        W95846   4.992  26.317  26.218 -0.1037 -0.0118 -0.0023
52934W        W95847  20.305   7.763  27.903 -0.0068  0.0751 -0.3487
52935W        W95848   8.966   9.620  18.352 -0.3644 -0.1415 -0.2787
52936W        W95849   7.836   8.665  21.475  0.1833 -0.6401  0.2031
52937W        W95850  10.091   4.399  26.079  0.0504 -0.0669  0.0966
52938W        W95851   2.772   6.664  26.541  0.1161  0.0621  0.4919
52939W        W95852  13.363  34.198  18.971  0.0981 -0.0062  0.1648
52940W        W95853  10.222  22.395  23.776  0.5296 -0.1571  0.3221
52941W        W95854  32.876   8.076   1.021  0.3388  0.1867 -0.0942
52942W        W95855   8.890  29.876  28.516 -0.1871  0.1646 -0.1540
52943W        W95856  11.575  29.568  22.958  0.0690  0.0328  0.1110
52944W        W95857   4.202   2.703  20.870 -0.1748  0.4977  0.0068
52945W        W95858  16.946   0.687   5.295  0.1944  0.0236 -0.2290
52946W        W95859   2.567   5.783  22.935  0.2467 -0.1759 -0.3693
52947W        W95860   1.702  25.817  28.297  0.1209  0.2700 -0.2503
52948W        W95861   6.954  33.616   3.826  0.3709  0.1075 -0.0900
52949W        W95862  12.470   4.411  28.906 -0.0456 -0.0120 -0.1609
52950W        W95863  12.298  10.339   7.537  0.0071 -0.3903 -0.0904
52951W        W95864  22.881  19.631  18.919 -0.1238  0.1008 -0.0153
52952W        W95865   7.452  30.279  20.784  0.0356  0.0315 -0.0025
52953W        W95866  11.655   2.525   1.104  0.1052 -0.3559 -0.0965
52954W        W95867   7.735  26.330   1.086  0.1297  0.4036 -0.2028
52955W        W95868   9.520  24.659  27.411  0.1699  0.2164 -0.0191
52956W        W95869  18.538  29.966   2.480  0.3646 -0.2723 -0.2290
52957W        W95870   5.731  14.632   4.128 -0.4898 -0.1506  0.2171
52958W        W95871  17.809  15.727  22.253  0.0449 -0.2077  0.1327
52959W        W95872  13.892  12.234   2.531 -0.2282  0.1040 -0.0499
52960W        W95873  11.840   1.379  23.807 -0.0872  0.2771 -0.0116
52961W        W95874  10.526  31.509   0.023  0.0865  0.1231  0.0666
52962W        W95875  10.408  34.395  27.008  0.0034  0.2267 -0.3280
52963W        W95876   6.963   4.954  24.748  0.2017 -0.2825 -0.0835
52964W        W95877   2.334   4.046   3.884 -0.0899  0.1403 -0.0371
52965W        W95878  17.203   0.144   6.896 -0.2221  0.1404 -0.1913
52966W        W95879  11.997  28.177  20.773  0.0883  0.0739 -0.0304
52967W        W95880   6.554  32.123  28.109 -0.0726 -0.2158  0.2210
52968W        W95881  20.001   2.985  24.413 -0.0464  0.0534 -0.0743
52969W        W95882  17.403   5.941  15.874  0.0571  0.4918 -0.0133
52970W        W95883  10.618  29.555   0.473 -0.1186  0.1516 -0.2528
52971W        W95884   8.756  31.069  28.755 -0.1345 -0.0577 -0.0688
52972W        W95885  26.424  30.135  26.714 -0.2016  0.1471  0.1659
52973W        W95886  11.629  12.753  23.879 -0.0399  0.1835  0.0377
52974W        W95887  11.916  28.751  23.031  0.0464  0.1228 -0.1336
52975W        W95888   6.179   3.306  27.065 -0.1769 -0.2697  0.1285
52976W        W95889  16.518  33.188  29.443 -0.4497 -0.0774  0.1221
52977W        W95890  17.479   3.190  22.245  0.0334  0.1032 -0.1778
52978W        W95891   5.678  30.995   0.331 -0.0848  0.0067 -0.0888
52979W        W95892  17.434   4.870  18.206  0.1420  0.2018 -0.0035
52980W        W95893  22.579  16.542  17.458  0.4357  0.1666  0.1198
52981W        W95894  11.953  33.055   1.860  0.0501  0.0854  0.1536
52982W        W95895  15.893  10.498   0.550 -0.2095  0.1786  0.0895
52983W        W95896  32.277   1.038   8.315 -0.1226  0.0849 -0.2054
52984W        W95897   5.828  27.841  23.523 -0.0839  0.2956 -0.1978
52985W        W95898  10.358  29.767  21.713  0.1449 -0.0827 -0.0374
52986W        W95899   3.023  25.138  26.608  0.0700  0.0732  0.0744
52987W        W95900  16.732  33.597  25.898 -0.2604 -0.1287 -0.2737
52988W        W95901  11.034   1.470  22.762 -0.0910  0.3173 -0.1485
52989W        W95902   9.713   4.436  29.144 -0.0813 -0.2271 -0.0772
52990W        W95903  27.962   9.469  29.135 -0.1304 -0.1850  0.0535
52991W        W95904  11.607  13.326   2.094 -0.3118 -0.1944 -0.1276
52992W        W95905   9.374   2.528   1.883  0.0660 -0.1929  0.0179
52993W        W95906  19.076   0.451  27.941  0.3102  0.1554 -0.2907
52994W        W95907   3.137   4.334   6.951 -0.0783 -0.1690 -0.1846
52995W        W95908  21.476  27.787  18.284  0.1374 -0.3196  0.0560
52996W        W95909  14.176   5.533  25.979  0.2330  0.2456 -0.1395
52997W        W95910   7.685  32.632  26.106  0.6277 -0.0816 -0.0344
52998W        W95911   4.891  30.388  24.876  0.1494 -0.0000  0.0182
52999W        W95912  18.193  30.436  27.797 -0.0906 -0.3420  0.0542
53000W        W95913  14.682   0.984  26.410 -0.1754 -0.0584 -0.4551
53001W        W95914  17.702  30.429  24.346  0.0126 -0.2840 -0.1035
53002W        W95915   0.340  28.317   5.897  0.1789  0.0089  0.3115
53003W        W95916  13.981   9.400   2.205  0.1189 -0.2288 -0.0112
53004W        W95917   6.452  10.737  27.604  0.1860  0.0484 -0.2451
53005W        W95918  13.831  18.639   3.953 -0.0226 -0.3617  0.1390
53006W        W95919  26.145  27.148   3.144 -0.1194 -0.1168  0.0789
53007W        W95920   1.594  32.438  22.099 -0.0229  0.0063 -0.1043
53008W        W95921   4.412  32.005  26.961 -0.4577 -0.0207  0.0033
53009W        W95922  14.534   5.337   7.970  0.4683  0.1445  0.2685
53010W        W95923  18.424  11.419  29.426  0.0088 -0.1570  0.0298
53011W        W95924   0.295  12.239   1.269  0.0296 -0.1354  0.0536
53012W        W95925  16.801   2.077   4.002 -0.1007 -0.0974  0.0291
53013W        W95926  14.782  29.284  27.933 -0.1673 -0.0041 -0.0307
53014W        W95927   7.508   4.943  23.524 -0.0480  0.0603 -0.2312
53015W        W95928   3.150  26.748  24.591 -0.0843  0.0954 -0.2345
53016W        W95929   8.288  25.125  26.882 -0.1660  0.0621 -0.0815
53017W        W95930  13.739  29.986   0.183 -0.0924  0.0780 -0.0251
53018W        W95931  16.483   5.564  10.173  0.0989 -0.2580  0.1030
53019W        W95932   4.914   1.636  24.341  0.0640  0.0003  0.1381
53020W        W95933  11.504  29.622   4.676 -0.0864 -0.0305  0.0931
53021W        W95934  12.202  33.080  17.271  0.0580  0.0433  0.3078
53022W        W95935  16.336  15.372   0.039  0.1899 -0.1038 -0.1403
53023W        W95936  25.444   1.007   3.008 -0.0217  0.0326 -0.0916
53024W        W95937  15.181   2.326   3.176 -0.0206  0.2370  0.3824
53025W        W95938  24.829   9.902  24.674 -0.1846 -0.1702 -0.1382
53026W        W95939  20.109   2.007   1.200 -0.1267 -0.0800  0.2857
53027W        W95940  11.953  24.956  24.731 -0.0226 -0.0389 -0.0295
53028W        W95941  18.136   5.814   5.200 -0.1179  0.2120  0.1917
53029W        W95942  16.494   4.789  16.189  0.0356 -0.1142 -0.1201
53030W        W95943  18.030   1.768  24.951  0.0649 -0.3623  0.1504
53031W        W95944   0.316   0.422  25.483  0.0911 -0.1711  0.0514
53032W        W95945  20.680  30.409   3.678 -0.2068  0.0017  0.1554
53033W        W95946  21.793  27.306  26.521 -0.0042  0.1874 -0.1393
53034W        W95947  14.891   5.726   0.373 -0.1596 -0.0351  0.0733
53035W        W95948  19.704   2.794   6.208  0.0650  0.4447  0.0151
53036W        W95949  24.174  14.635  20.889  0.0448 -0.1807 -0.3389
53037W        W95950  21.229   1.957  26.903  0.0825 -0.3432  0.0229
53038W        W95951   9.994   4.289   1.836 -0.0369  0.0057  0.0307
53039W        W95952   4.847   8.698   9.044  0.1262  0.2556 -0.0516
53040W        W95953  10.802   9.509  23.782 -0.1830 -0.0718  0.0153
53041W        W95954   1.331  33.127  19.976 -0.1735 -0.0426  0.0553
53042W        W95955  31.295   2.017   3.178  0.1115 -0.3654 -0.0764
53043W        W95956  16.494  32.594  19.738  0.1982 -0.0366  0.0642
53044W        W95957  18.433   5.295  28.787  0.0992 -0.0778 -0.1141
53045W        W95958  14.268   0.788   6.234  0.2483 -0.1514  0.2654
53046W        W95959  14.834  21.253   4.280  0.3752 -0.1854  0.0794
53047W        W95960  15.774  33.801  22.349  0.1131  0.1557  0.0516
53048W        W95961  10.711   8.502  21.751  0.3147 -0.0275 -0.2847
53049W        W95962  19.576   8.113   0.442 -0.1840 -0.0196  0.3521
53050W        W95963  16.219   2.270  25.817  0.2022  0.0098 -0.3449
53051W        W95964  11.532  26.710  10.686  0.0716 -0.3092 -0.0810
53052W        W95965  12.195  12.068  28.186 -0.4976  0.1175  0.0384
53053W        W95966  16.157  11.915   3.607 -0.0655 -0.2183 -0.0947
53054W        W95967   5.675  29.108  17.226  0.0460 -0.1227 -0.0634
53055W        W95968   3.064   6.562  24.090 -0.1945 -0.1925  0.5106
53056W        W95969  19.207   5.895   1.483 -0.1156 -0.2740  0.1445
53057W        W95970  19.443  17.191   2.600 -0.1775  0.0816 -0.2960
53058W        W95971   7.169   9.147  19.223  0.0713  0.2065  0.2840
53059W        W95972  12.506   2.949  22.254  0.3660  0.2208  0.0342
53060W        W95973  20.682  28.610   1.243 -0.1707 -0.0862 -0.0549
53061W        W95974   4.791  14.629  25.414 -0.0079 -0.0082  0.2586
53062W        W95975   6.767   9.693   6.854  0.0864 -0.2417 -0.1396
53063W        W95976   8.256   0.059   1.167 -0.3090  0.1482 -0.1371
53064W        W95977  13.316  31.099  29.665 -0.3204  0.0691 -0.0288
53065W        W95978  11.596  30.779   1.836 -0.0661 -0.1152  0.0451
53066W        W95979   9.801   6.216   4.306  0.1178 -0.1365 -0.0476
53067W        W95980  18.414  25.035  25.090 -0.0276  0.2839  0.0864
53068W        W95981  10.712  30.153   6.508  0.0748 -0.2969  0.1566
53069W        W95982   9.995   2.094  17.873  0.3956  0.0174 -0.2860
53070W        W95983  10.183  10.742   6.458 -0.1237  0.0943 -0.2969
53071W        W95984   8.211  11.149   4.755 -0.0489  0.0210 -0.1052
53072W        W95985   3.573   2.951  18.436 -0.2669 -0.2293  0.1408
53073W        W95986  12.129   7.815   1.581 -0.3596 -0.2684 -0.0338
53074W        W95987   8.014  32.850  25.218  0.1041  0.0188  0.1533
53075W        W95988   5.395   3.036  19.382  0.0060  0.0787  0.1074
53076W        W95989  14.154  10.264  27.751  0.3301  0.1693 -0.3627
53077W        W95990  22.063  33.282   7.748 -0.0975 -0.0327 -0.1567
53078W        W95991   8.547  32.614  18.024 -0.1117 -0.0165 -0.0411
53079W        W95992  19.604  31.591   9.246 -0.1727 -0.2038  0.0041
53080W        W95993   9.056   6.655   2.113  0.3074  0.0618 -0.0762
53081W        W95994  13.923  28.226  16.589 -0.2524 -0.2277  0.1402
53082W        W95995  13.929  27.051  28.597 -0.2158 -0.1800 -0.1394
53083W        W95996   7.666   3.284  27.079 -0.0269  0.0121  0.2203
53084W        W95997  10.168  26.443  27.292  0.0042 -0.1548  0.1486
53085W        W95998  18.241   6.991  24.767  0.0086  0.0713 -0.3112
53086W        W95999  15.102   2.715  24.032 -0.0020 -0.2559  0.3827
53087W        W96000  14.313   7.145  16.047 -0.0564  0.0212  0.0854
53088W        W96001  13.849   0.207   0.403 -0.1057 -0.4312 -0.0677
53089W        W96002  17.394  34.067   9.786 -0.0363  0.3247  0.0244
53090W        W96003  13.243   0.324   0.110  0.2534  0.0698 -0.2248
53091W        W96004   5.183  32.803   6.014 -0.2484 -0.3256  0.0698
53092W        W96005  12.025  10.199   7.915  0.0936 -0.3043  0.1200
53093W        W96006  19.508  33.041   5.907 -0.0219 -0.4032 -0.0307
53094W        W96007  16.190   6.901  29.189  0.0749 -0.2445 -0.2535
53095W        W96008   5.458  30.824  25.884 -0.1106  0.0304  0.1534
53096W        W96009  12.164  28.473   0.897  0.1253  0.0753  0.0857
53097W        W96010  14.206  27.832  28.028 -0.0898  0.0724 -0.3523
53098W        W96011  13.712   7.916  24.794  0.3265 -0.2100 -0.3488
53099W        W96012   3.725  11.299   4.180 -0.0852  0.1756  0.1381
53100W        W96013  14.190  31.913  25.462 -0.0064 -0.2561  0.2520
53101W        W96014  12.488   5.814  25.072  0.1457 -0.0020  0.1822
53102W        W96015  26.662  19.076  15.037 -0.3268  0.0324 -0.1287
53103W        W96016   7.998  33.094   0.643 -0.1944 -0.2232  0.2264
53104W        W96017  16.637  33.355  20.866 -0.1435  0.3670  0.2120
53105W        W96018   9.725   6.247  22.026  0.1045 -0.0192 -0.0307
53106W        W96019  11.729  31.162   4.915 -0.1671 -0.0468 -0.0541
53107W        W96020   2.286  28.371   9.143 -0.0653 -0.1808  0.0195
53108W        W96021  10.843   1.583   0.927  0.2311 -0.2772  0.0086
53109W        W96022  14.273  30.418   5.106 -0.2482  0.0116  0.2368
53110W        W96023  14.750  30.866  24.387  0.1608  0.3860 -0.1398
53111W        W96024  17.048   1.231   4.576 -0.1759  0.4145 -0.2001
53112W        W96025  10.431   1.656   4.924 -0.0982 -0.1685 -0.2970
53113W        W96026  19.451   4.837  27.022 -0.0919  0.1140  0.0001
53114W        W96027   4.930  25.120   4.111  0.2382 -0.2102  0.1430
53115W        W96028   0.450   3.791  24.753  0.3488 -0.0457  0.1822
53116W        W96029  18.720  34.009   1.039  0.0496 -0.1552 -0.1523
53117W        W96030   9.002   0.582  27.910 -0.0543 -0.1667  0.2443
53118W        W96031   4.599   7.990   0.651  0.0694  0.0818  0.2621
53119W        W96032  27.156  33.063   3.669 -0.1058 -0.1139  0.0323
53120W        W96033  14.317   8.149   2.523 -0.0896  0.1661  0.0062
53121W        W96034  33.359   8.386   0.281  0.3581 -0.2451  0.2302
53122W        W96035  15.421  30.339  21.788  0.3618 -0.2086  0.0636
53123W        W96036   0.399  24.002  22.837 -0.1789 -0.1853 -0.0118
53124W        W96037   2.535  32.738  26.673  0.3073 -0.0058  0.0399
53125W        W96038  13.939  30.019   4.050  0.1598 -0.4265  0.1046
53126W        W96039  24.223   8.053  20.887  0.1667 -0.1720 -0.1045
53127W        W96040  20.199   7.775  16.324 -0.2681 -0.2977 -0.3517
53128W        W96041   3.250  26.764  26.062 -0.2220 -0.0825 -0.0511
53129W        W96042  12.803   5.244   2.304 -0.2446  0.0755  0.1987
53130W        W96043  13.921  28.643  26.446 -0.0826  0.1120 -0.2347
53131W        W96044   8.769   2.914   1.549 -0.0814 -0.2067  0.1103
53132W        W96045  16.793  29.512  28.862  0.0105  0.2303  0.1529
53133W        W96046   6.723   2.940  21.171  0.0302 -0.0544  0.0912
53134W        W96047  15.108   7.749   4.237 -0.0736 -0.0005  0.0470
53135W        W96048  21.175   1.042  28.552 -0.5186  0.3044 -0.1270
53136W        W96049  16.096  11.177  27.099  0.1091 -0.1581  0.1836
53137W        W96050   3.763   6.164  25.622  0.2632 -0.1050  0.3199
53138W        W96051  17.786   7.873  28.718 -0.2916 -0.0867  0.2305
53139W        W96052   8.304  28.552  23.454  0.3503  0.3263 -0.3308
53140W        W96053  15.355  32.732  17.492 -0.0625  0.0040 -0.2084
53141W        W96054  16.676  27.420  27.213 -0.1090 -0.1756  0.0302
53142W        W96055  15.759   2.279  27.590 -0.0942 -0.3158 -0.0140
53143W        W96056  32.935   0.124  25.437 -0.2599 -0.0990  0.0628
53144W        W96057  11.196  22.687  15.510 -0.1544  0.3290 -0.1917
53145W        W96058   5.276  32.937  22.925  0.1008 -0.2992  0.0101
53146W        W96059  16.564   9.016  29.219  0.2367 -0.2661  0.0587
53147W        W96060  15.556  21.455  24.504  0.0286  0.0735  0.1134
53148W        W96061   3.565  33.567   0.529 -0.1842  0.1787 -0.0053
53149W        W96062   7.311  23.400  28.256  0.1618 -0.1898 -0.2185
53150W        W96063  14.943  11.897  19.344  0.0882  0.3810  0.0704
53151W        W96064   7.297   3.024  17.520 -0.2866  0.0717  0.1326
53152W        W96065   7.486  24.336  18.682  0.0123  0.1166  0.1961
53153W        W96066  13.877   3.817  22.523 -0.2670 -0.0237 -0.1223
53154W        W96067  17.384  30.380   2.268  0.1504  0.1182 -0.0166
53155W        W96068   8.637  28.194  22.694 -0.1488 -0.1109 -0.0247
53156W        W96069  14.478   8.494  26.658 -0.1262  0.2337  0.0910
53157W        W96070  12.530  28.276  24.578 -0.0116 -0.0624  0.1937
53158W        W96071  11.930  21.130  21.655 -0.0130  0.0552  0.0849
53159W        W96072  12.797  20.063  27.604  0.1460 -0.0088 -0.0263
53160W        W96073  12.773   3.492  25.196 -0.2045  0.1338  0.3829
53161W        W96074  16.789   1.232   1.859 -0.2244 -0.0568 -0.4195
53162W        W96075   7.567  11.154   2.644 -0.0848  0.1451 -0.0097
53163W        W96076  10.092   1.760   2.272 -0.2922 -0.0182  0.1200
53164W        W96077  17.437   6.912  28.126  0.1674  0.1441  0.0620
53165W        W96078   8.398  21.535  27.924 -0.1055  0.1267 -0.1900
53166W        W96079   8.331  32.262  21.390 -0.2541 -0.0421 -0.1045
53167W        W96080   9.161  32.340  22.453 -0.1394  0.0135 -0.1063
53168W        W96081   6.393   7.282  17.468  0.3525  0.2680  0.1853
53169W        W96082   9.380  12.645   1.961 -0.1356 -0.3085 -0.1210
53170W        W96083  13.110   9.348   4.058  0.0114  0.0124  0.0036
53171W        W96084  16.545   2.525  17.069  0.0025  0.1686 -0.2208
53172W        W96085   4.786  10.512  29.427  0.0453 -0.0160  0.2736
53173W        W96086   7.077   5.908  27.115  0.2526 -0.1320  0.1854
53174W        W96087   4.186  30.394   6.944  0.1378 -0.0825 -0.3479
53175W        W96088  25.592   6.922   4.142 -0.3729  0.2811  0.0482
53176W        W96089   6.322  31.844   1.837 -0.1113  0.0641 -0.2366
53177W        W96090  12.491   7.881  18.032  0.0901  0.0364 -0.0042
53178W        W96091  17.150  16.326  22.478 -0.0147  0.2265 -0.0433
53179W        W96092  11.665  32.140  26.792  0.3420 -0.0151  0.0665
53180W        W96093   6.078   0.554  22.723  0.0226 -0.1265 -0.2477
53181W        W96094  16.064   2.438  27.151 -0.2948  0.3238  0.1089
53182W        W96095  21.702   0.413   3.011 -0.2226  0.0879  0.0211
53183W        W96096   1.088  34.287  29.159 -0.3461  0.0749  0.1113
53184W        W96097   4.481  24.172  28.193 -0.0537 -0.0024  0.1033
53185W        W96098   1.251  28.913   2.760  0.2844 -0.4452 -0.0120
53186W        W96099  21.197   3.875  26.964  0.1222 -0.0497  0.0362
53187W        W96100  17.273   5.118  28.403  0.0960 -0.3137  0.0450
53188W        W96101  32.983  26.898   3.539 -0.0243 -0.1703 -0.2361
53189W        W96102   8.078   0.118   4.454 -0.0596  0.1016  0.1240
53190W        W96103  16.164   3.441  24.307  0.0675  0.0277 -0.2321
53191W        W96104  19.984   4.841  20.316  0.0169 -0.0065  0.1194
53192W        W96105   7.332   5.556  21.846  0.0760 -0.4091  0.2140
53193W        W96106  22.332  28.036  22.839  0.3603 -0.2055  0.1522
53194W        W96107  13.721   3.904  21.997  0.1535  0.1637  0.2431
53195W        W96108   9.124   7.458   4.143 -0.1807 -0.0854  0.2693
53196W        W96109   7.387   4.188  28.038 -0.0699  0.0032 -0.2615
53197W        W96110  16.306  34.088  24.341  0.1029  0.2476  0.0254
53198W        W96111  16.297   0.386   7.188 -0.1263 -0.0325 -0.0424
53199W        W96112   1.093  25.357  26.446 -0.0275 -0.1706 -0.4197
53200W        W96113  16.336  33.651   0.747  0.1593 -0.4530 -0.1860
53201W        W96114  20.086  31.913   6.843  0.1731  0.2516 -0.2283
53202W        W96115  17.072   6.769  25.548  0.3445  0.0079 -0.1410
53203W        W96116  15.450  30.269  29.433 -0.1460 -0.3600 -0.0853
53204W        W96117   8.550  20.982  22.249 -0.3651 -0.0088  0.0053
53205W        W96118  15.940  30.607  18.841  0.3435 -0.2221 -0.0916
53206W        W96119  16.429  31.378  22.757  0.0435  0.0090  0.2904
53207W        W96120  11.093   5.736  23.263 -0.0472 -0.0638  0.0968
53208W        W96121  10.085   4.069  23.720  0.0885 -0.2228 -0.0919
53209W        W96122  11.400   8.057  25.211 -0.4054 -0.1171 -0.0502
53210W        W96123  14.993   4.577  19.532 -0.0843  0.2038 -0.2513
53211W        W96124  10.106  34.309   7.174 -0.0901  0.1660 -0.1093
53212W        W96125  12.753  32.977   3.027  0.1902 -0.3655 -0.0104
53213W        W96126  27.496  33.012  26.899 -0.1561 -0.0345  0.1028
53214W        W96127  22.126   5.307  19.455  0.0535 -0.2826  0.1163
53215W        W96128  25.792  31.924   3.193  0.1659 -0.0095 -0.1983
53216W        W96129  12.183  29.354  26.995  0.4484 -0.0626 -0.0568
53217W        W96130  13.185   8.247  27.551 -0.1842  0.0619 -0.3618
53218W        W96131   6.649   0.274   1.793 -0.1809  0.0326  0.1972
53219W        W96132  11.441  29.890  24.747 -0.1387 -0.2356 -0.2038
53220W        W96133  20.172  27.592   7.664  0.0055 -0.2134 -0.0858
53221W        W96134   5.863  34.018  20.548  0.1487 -0.2475 -0.0478
53222W        W96135  16.260  27.228  29.564 -0.4259 -0.2193 -0.2426
53223W        W96136   8.571  31.549  25.939 -0.0899 -0.0058 -0.1292
53224W        W96137  19.987  32.333  16.360 -0.0946  0.0478 -0.0672
53225W        W96138  17.873   1.259   0.758  0.1673  0.0021  0.3424
53226W        W96139  11.518   7.190  22.503 -0.0516 -0.1508 -0.0774
53227W        W96140  12.331  31.580  19.891 -0.2646 -0.1986 -0.0184
53228W        W96141  17.556   2.969   2.242  0.1431 -0.0335  0.1545
53229W        W96142   7.186   5.356  29.594  0.0445  0.1337  0.1961
53230W        W96143  21.197  34.240   7.855  0.0478 -0.0279 -0.2285
53231W        W96144   5.297  32.270   1.618  0.0835 -0.0254 -0.0480
53232W        W96145  19.589  28.333  25.149  0.1751 -0.0817  0.0667
53233W        W96146   6.112  31.950  20.714  0.0683 -0.4320  0.0716
53234W        W96147   2.723  23.590   4.144 -0.1448  0.0161 -0.0541
53235W        W96148  11.862  27.239   4.787 -0.0365  0.1016  0.3339
53236W        W96149  13.695   2.069  28.933  0.1308  0.0714  0.2097
53237W        W96150   0.865   6.320  24.512 -0.1021  0.0228 -0.2528
53238W        W96151  19.192   3.894  28.715  0.1556  0.0288  0.2771
53239W        W96152   8.053  19.554   0.559  0.1240  0.3135  0.0733
53240W        W96153  30.264   4.380  19.881  0.1060  0.0052 -0.0809
53241W        W96154  17.453   3.878  25.124  0.1274  0.1186 -0.4008
53242W        W96155  14.503  15.063   0.166  0.1425  0.0233 -0.0940
53243W        W96156  21.906   2.679  20.469 -0.0481 -0.0072 -0.1635
53244W        W96157   5.754   1.191   8.618  0.4668  0.0957 -0.0139
53245W        W96158   3.344  30.951  16.896  0.1802 -0.3816 -0.1164
53246W        W96159   8.513   1.501  12.897  0.0186  0.0984 -0.3742
53247W        W96160   8.874   7.813   3.428  0.2666 -0.2306  0.1488
53248W        W96161   3.623   7.004  18.759 -0.1925  0.3882  0.0807
53249W        W96162   8.202  25.770  22.471  0.2483  0.2178 -0.3587
53250W        W96163  19.745   5.079   3.761 -0.0884 -0.0700 -0.3419
53251W        W96164  12.801   5.214  23.620  0.2294  0.0751  0.0467
53252W        W96165  15.165  26.724  29.281  0.0943  0.0738  0.1868
53253W        W96166   8.741  29.758  18.310  0.1319  0.0691  0.1578
53254W        W96167  18.040   5.613  18.377  0.1686  0.0067 -0.2095
53255W        W96168  10.846   3.925  18.881 -0.3126  0.2784  0.2095
53256W        W96169  21.852  29.273   3.173  0.0789 -0.0127 -0.1051
53257W        W96170  12.831  25.445  27.894  0.2490 -0.0528 -0.0457
53258W        W96171   8.600  31.851   1.682  0.1795 -0.3567 -0.2844
53259W        W96172  16.634   6.494  25.305 -0.2973  0.5742  0.1668
53260W        W96173  30.749  29.974  20.066  0.1310 -0.2976  0.0080
53261W        W96174  25.803   9.685   9.873  0.0245  0.1166  0.0293
53262W        W96175  19.524   5.127  25.286  0.0914 -0.0043 -0.0233
53263W        W96176  33.960  24.679  25.909  0.0040 -0.0602  0.1211
53264W        W96177  27.129   2.987   1.386 -0.0840  0.3449  0.2778
53265W        W96178  15.618  30.500  26.096 -0.1974  0.1465 -0.2244
53266W        W96179   8.458  29.696  19.259  0.2053 -0.1866  0.2392
53267W        W96180  11.378   2.282  24.544 -0.0329  0.1229 -0.0453
53268W        W96181  25.196  23.961   6.736  0.1872  0.2271 -0.2960
53269W        W96182  19.269  14.526  21.412  0.0331 -0.0199 -0.0938
53270W        W96183  29.407   1.304   0.221 -0.1455  0.0005  0.3232
53271W        W96184   7.470  24.909   0.376  0.1743  0.2697 -0.0438
53272W        W96185   4.723  32.475  28.373  0.1350  0.2667 -0.0690
53273W        W96186  11.957   8.137  24.892  0.1196 -0.0173  0.2053
53274W        W96187  14.512   2.067   4.631  0.0140 -0.1145  0.2505
53275W        W96188  16.033   8.104   2.400 -0.1072  0.2832 -0.0669
53276W        W96189  20.541   9.680  28.880  0.1154 -0.3501  0.1735
53277W        W96190   6.180  29.244   7.181 -0.1764 -0.0271  0.0415
53278W        W96191  13.186   1.690   7.791  0.0417  0.1791  0.1879
53279W        W96192   3.062   1.639   3.068  0.4825 -0.1118 -0.1548
53280W        W96193  22.524  24.878  27.867 -0.0763  0.2689 -0.1441
53281W        W96194  10.436   4.023  26.138  0.1664  0.2978  0.1002
53282W        W96195  26.087   1.865  28.756 -0.0272 -0.0726 -0.0953
53283W        W96196   6.552  29.639  22.842  0.0199 -0.0945 -0.0038
53284W        W96197   2.957   7.446  24.437  0.1158 -0.0819  0.0279
53285W        W96198  16.745  30.947  29.318  0.0946 -0.1310 -0.0902
53286W        W96199  14.991   3.156  23.772  0.1949 -0.1729 -0.3484
53287W        W96200  22.547  27.110  19.664  0.0829 -0.1977  0.3960
53288W        W96201  17.409   5.453   1.616 -0.2589 -0.1591 -0.0114
53289W        W96202   7.802  30.910   8.539  0.2773  0.2756 -0.1371
53290W        W96203   7.654   1.002   0.691  0.2381  0.0325 -0.0940
53291W        W96204  16.030   2.101   4.605 -0.0899 -0.1089  0.1441
53292W        W96205  11.301  30.927  10.991 -0.0846  0.0577 -0.0318
53293W        W96206  15.905   7.388   6.506  0.1241  0.2325  0.1784
53294W        W96207  18.622  30.886  26.669  0.0712  0.5063  0.3258
53295W        W96208   8.410  32.731  24.812 -0.2256 -0.3335  0.0043
53296W        W96209  15.327   4.744  25.001 -0.1056  0.2082 -0.1837
53297W        W96210  17.920   7.224   9.403  0.0909 -0.2672 -0.1075
53298W        W96211   2.505  33.180  29.310 -0.1577 -0.2243 -0.0795
53299W        W96212  29.994   0.560   4.839 -0.0670  0.0936 -0.0055
53300W        W96213  25.341  11.990  27.337 -0.1422  0.0320 -0.3425
53301W        W96214  18.919   6.076   8.705 -0.0344 -0.0701  0.0338
53302W        W96215  20.096   2.814  23.041  0.2671  0.1473 -0.1395
53303W        W96216  14.407  11.660   6.002 -0.2171 -0.0189 -0.3321
53304W        W96217  15.252   8.107  21.679 -0.2053 -0.0325 -0.0866
53305W        W96218   4.299   6.317   0.040 -0.2553  0.3072  0.0695
53306W        W96219   8.167   1.785  20.994  0.0122  0.1794 -0.0778
53307W        W96220  19.306   8.399  21.489 -0.0199 -0.1311  0.0650
53308W        W96221  15.369   1.242   9.371  0.0383  0.1771  0.0068
53309W        W96222  20.789  28.502  29.773 -0.0492 -0.1717 -0.0990
53310W        W96223  16.474  33.732   3.381 -0.0107 -0.0753 -0.1125
53311W        W96224   9.589  33.265  18.032  0.0546  0.2080  0.2486
53312W        W96225   4.031   2.059  12.214  0.0731 -0.2940 -0.1775
53313W        W96226  16.066  28.718  25.734 -0.3598 -0.0232  0.1002
53314W        W96227  25.125   8.364   6.210  0.0004  0.1324 -0.0264
53315W        W96228  16.501   5.759   1.146 -0.0592 -0.0870  0.1700
53316W        W96229   5.904  14.740  19.010 -0.0926  0.0776 -0.2146
53317W        W96230   3.043   3.727  28.954 -0.1835  0.0805  0.0153
53318W        W96231  20.602  33.727  17.109  0.0014  0.1386  0.0262
53319W        W96232  11.644  29.832   9.407  0.1969  0.1403  0.1254
53320W        W96233  17.366   1.710  29.752 -0.0582 -0.1364  0.3233
53321W        W96234  14.459   2.194  28.419 -0.0797 -0.0073  0.2131
53322W        W96235   3.203   0.823   3.918  0.1034 -0.4430  0.2972
53323W        W96236  23.049   6.002  23.815 -0.2469  0.0746  0.4139
53324W        W96237  18.217   8.882   2.696 -0.0560 -0.2330  0.1028
53325W        W96238  11.051   1.951   6.113  0.0652 -0.2603  0.0464
53326W        W96239   2.598   8.817   1.088  0.0186 -0.0182 -0.0816
53327W        W96240  20.613   6.605   1.156 -0.2107  0.1054 -0.1334
53328W        W96241  24.742  11.573   4.968  0.1483 -0.1369 -0.0185
53329W        W96242  16.045   9.303  21.533 -0.0633  0.3242  0.0637
53330W        W96243  13.304  33.541  25.496 -0.0982 -0.0304 -0.1483
53331W        W96244  14.807  14.455  29.332  0.1800 -0.0733 -0.1039
53332W        W96245  14.128   1.865   4.915 -0.2404  0.4841  0.0059
53333W        W96246  14.505   6.163  23.880 -0.0710  0.2583 -0.0414
53334W        W96247  11.277  25.738  25.728  0.1006 -0.2980  0.0780
53335W        W96248   9.693   1.465  24.942  0.0745 -0.2820  0.3093
53336W        W96249  19.420  25.726  27.436 -0.2066 -0.0952  0.1301
53337W        W96250  14.171   3.683   5.382  0.0412 -0.0223 -0.1403
53338W        W96251  15.589   2.989  18.365  0.0576  0.0626 -0.2577
53339W        W96252  12.977   5.483  17.195 -0.0199 -0.0148  0.1286
53340W        W96253  17.706  33.776  23.009 -0.2568 -0.0162 -0.0005
53341W        W96254  11.785   0.335  18.251 -0.2549  0.0230  0.1203
53342W        W96255  17.332  10.693  15.900 -0.0087  0.1390  0.2687
53343W        W96256  16.726   4.049  15.811 -0.1733 -0.1230 -0.0806
53344W        W96257   3.207  31.049   2.681 -0.1260  0.2649  0.1681
53345W        W96258  16.324   8.305  20.052  0.1017 -0.1689  0.0754
53346W        W96259  26.127  18.674  18.539  0.3375 -0.1685 -0.0568
53347W        W96260   4.654  10.338  18.708  0.0599 -0.3158  0.1653
53348W        W96261   4.519   0.242  19.941  0.0637  0.1535 -0.2075
53349W        W96262  11.945   6.573  18.691  0.1247  0.3468 -0.0356
53350W        W96263  14.669   6.172  22.892 -0.1322 -0.0242 -0.0983
53351W        W96264  17.281  29.267  24.473  0.0054 -0.1514 -0.0097
53352W        W96265  16.054   9.256  15.043 -0.1938  0.2511 -0.2736
53353W        W96266  17.000  17.242  13.738  0.1833 -0.2557  0.0328
53354W        W96267   9.360  15.171  16.575  0.1998 -0.0473  0.0445
53355W        W96268  33.194   3.531  18.937 -0.0792 -0.0325 -0.0588
53356W        W96269   6.312  25.394  26.466 -0.2254 -0.2810 -0.0801
53357W        W96270  10.801  29.322  22.317 -0.0838 -0.1013  0.2100
53358W        W96271   9.988   0.325  22.350 -0.0387  0.2298 -0.0044
53359W        W96272  17.322  33.971  14.350  0.2222 -0.3123  0.1054
53360W        W96273   6.252  16.048  19.516 -0.1432 -0.1144 -0.0418
53361W        W96274   3.346   2.707  19.687 -0.3171 -0.1207 -0.2566
53362W        W96275   6.107   7.268  23.109 -0.1888 -0.0355  0.2150
53363W        W96276  16.756  31.998  17.291 -0.0474 -0.0148 -0.0205
53364W        W96277  16.054   5.035  20.679  0.0821  0.0181 -0.2397
53365W        W96278  13.597  15.020  20.373  0.2580 -0.1501  0.3407
53366W        W96279  10.766   1.574  17.696  0.6674  0.2853 -0.0687
53367W        W96280   2.529  34.100  29.427 -0.1929 -0.0086 -0.1396
53368W        W96281  13.790   6.189  18.764  0.0838  0.0356 -0.0338
53369W        W96282  13.092   5.162  19.463  0.0769  0.1424  0.0143
53370W        W96283   4.234   7.117  20.790 -0.0811 -0.0722 -0.2168
53371W        W96284  24.394   7.142  28.410  0.2347 -0.3587  0.0952
53372W        W96285  15.090   5.624  16.787  0.1604 -0.4044 -0.3077
53373W        W96286  13.276   3.752  15.370 -0.0936  0.1423  0.1655
53374W        W96287  18.166  32.971  24.243  0.1196 -0.0058 -0.1482
53375W        W96288  32.592   5.040  16.192  0.1699  0.1056 -0.3166
53376W        W96289  17.645  31.035  24.086  0.0649  0.2751 -0.0947
53377W        W96290   7.723   4.881  20.245  0.1960  0.1284 -0.2483
53378W        W96291  18.499  10.467  19.013  0.3339 -0.0892  0.4151
53379W        W96292  13.339   2.184  21.088  0.5445 -0.2342 -0.2691
53380W        W96293  10.256   6.214  17.051 -0.2359  0.3831 -0.0567
53381W        W96294   8.079   9.236  18.725 -0.0150 -0.2767 -0.0404
53382W        W96295  14.735  13.429  14.216 -0.1322 -0.3072 -0.0940
53383W        W96296  30.363  12.538  16.882 -0.0697  0.0958  0.0559
53384W        W96297  10.154  17.462  15.215 -0.1081  0.4278  0.0925
53385W        W96298  12.953   5.982  18.545 -0.0189  0.0959 -0.1582
53386W        W96299  14.473   7.557  18.771  0.1219 -0.0184 -0.1285
53387W        W96300  17.331   8.716  28.824  0.1331  0.0103  0.2769
53388W        W96301   9.565   0.895  18.109  0.0756  0.1087 -0.5931
53389W        W96302  10.553  10.833  22.449  0.1761  0.1538  0.1048
53390W        W96303  15.936  10.969  20.147 -0.0178  0.1045  0.0724
53391W        W96304  17.071   5.306  19.953  0.0515 -0.1303 -0.2743
53392W        W96305  25.375  13.081  15.808  0.0864 -0.0195 -0.0462
53393W        W96306  14.979   2.173  20.561  0.0510  0.0038  0.1281
53394W        W96307  20.070   6.697  18.104 -0.2208 -0.1928  0.0759
53395W        W96308  22.979   7.466  13.393  0.0959  0.0409 -0.1947
53396W        W96309  13.786   1.455  20.087  0.0477 -0.1145 -0.1050
53397W        W96310  13.432  11.460  15.672  0.0886 -0.2100 -0.0767
53398W        W96311  24.794  32.912  15.300 -0.3853 -0.2936 -0.2295
53399W        W96312  18.337   6.885  18.681  0.3547 -0.1825  0.0051
53400W        W96313   3.848   2.184  20.180 -0.1873  0.1455  0.0658
53401W        W96314  13.617  10.409  16.985  0.0553 -0.1511 -0.1801
53402W        W96315   0.966   6.136  17.930 -0.1009  0.1187  0.1254
53403W        W96316  14.376   9.849  23.318  0.0275 -0.1524  0.0404
53404W        W96317  17.924  33.698  16.821  0.3247 -0.0845 -0.2949
53405W        W96318  18.867  29.555  21.634 -0.0710 -0.2243 -0.3367
53406W        W96319   5.890  34.399  24.627  0.0479 -0.0468  0.1761
53407W        W96320  25.224  19.153  15.458 -0.1380 -0.2523 -0.2492
53408W        W96321  13.762   5.755  27.170 -0.2926  0.4422  0.1846
53409W        W96322   9.423   0.809  18.963  0.3560 -0.1489  0.0908
53410W        W96323  17.093   9.082  21.700  0.0585 -0.2159 -0.4138
53411W        W96324  10.705  13.337  13.826  0.2688  0.2908 -0.2565
53412W        W96325  20.066  11.266  24.181  0.0868  0.0929  0.1683
53413W        W96326  14.122   3.208  18.672 -0.2272  0.0033 -0.0660
53414W        W96327  20.426   2.371  18.146  0.1655 -0.0298  0.0132
53415W        W96328   7.275   0.016  25.672 -0.0830  0.1334 -0.4462
53416W        W96329  18.985   2.888  22.177 -0.0747 -0.2599 -0.4864
53417W        W96330  20.475  12.015  17.726 -0.0213 -0.1918 -0.0487
53418W        W96331   9.881  29.037  18.022 -0.2561 -0.0330  0.0856
53419W        W96332   8.023  32.519  17.193  0.1916  0.1709 -0.2159
53420W        W96333  23.436   4.341  20.159 -0.0024 -0.0494 -0.0398
53421W        W96334  27.856   6.424  17.086 -0.0133 -0.2435  0.1219
53422W        W96335  20.689  12.230  18.710  0.1091 -0.0449 -0.0837
53423W        W96336  20.861   9.611  19.211  0.3249  0.1305  0.0145
53424W        W96337   9.000  33.276  25.545 -0.3174  0.0468  0.0743
53425W        W96338   7.981   0.610  18.942 -0.1503 -0.1502 -0.3059
53426W        W96339  18.062   6.185  23.311  0.1078 -0.0631 -0.4528
53427W        W96340  14.889  11.820  23.927 -0.0634 -0.1638  0.0441
53428W        W96341   7.309   4.443  21.721  0.0034  0.2099  0.1480
53429W        W96342  15.741  31.722  14.597  0.1137  0.0104  0.1883
53430W        W96343   6.829   9.969  21.964 -0.1875  0.2614  0.3046
53431W        W96344  15.679  33.823  25.668  0.0369 -0.0769  0.0269
53432W        W96345   8.321  10.596  21.261  0.2973 -0.0455 -0.0945
53433W        W96346  16.957   5.230  17.068 -0.0395  0.1400  0.0142
53434W        W96347  20.083  26.479  28.972  0.2934  0.1159 -0.1167
53435W        W96348  14.466  10.717  16.930 -0.0888 -0.1403  0.3610
53436W        W96349  34.342  29.595  17.523 -0.0248 -0.4150 -0.0642
53437W        W96350  11.230   8.721  16.055  0.4487 -0.1518 -0.0387
53438W        W96351  16.113   4.588  14.863  0.0344  0.2823 -0.1267
53439W        W96352   5.838  32.302  16.739 -0.1571 -0.2689 -0.1743
53440W        W96353  27.207   9.714  14.802  0.1156  0.1157 -0.0345
53441W        W96354  23.002  32.666  28.464 -0.0954 -0.1114 -0.3136
53442W        W96355  10.910  16.930  15.287 -0.0805 -0.2018  0.4419
53443W        W96356  13.651   2.306  25.558 -0.1486  0.2279  0.1573
53444W        W96357   7.751   3.786  21.271 -0.1414 -0.0976 -0.2943
53445W        W96358  14.927   8.144  29.539 -0.1464 -0.3512  0.2787
53446W        W96359  11.267   1.000  18.539  0.0327 -0.1196 -0.0469
53447W        W96360  14.218  33.999  23.844  0.0303  0.3854  0.2172
53448W        W96361  22.193  14.310  25.475 -0.1941  0.0980 -0.1420
53449W        W96362  18.260   0.842  14.920  0.2442  0.1210 -0.1152
53450W        W96363   8.120  11.221  15.476 -0.0857  0.3608  0.1003
53451W        W96364   7.108   8.324   4.971  0.0297  0.2817 -0.1242
53452W        W96365   1.764   8.524  22.332 -0.0474  0.1897 -0.3652
53453W        W96366   8.496  14.999  19.071  0.0228  0.0633 -0.1841
53454W        W96367  19.871  33.992  17.708 -0.1291 -0.0847 -0.0636
53455W        W96368  17.149   2.340  22.930  0.0486  0.3732  0.2426
53456W        W96369   1.563   3.230  17.089 -0.0608 -0.2417  0.1805
53457W        W96370   7.943   3.620   3.299 -0.0116  0.1208 -0.2238
53458W        W96371  22.843   0.247  28.483  0.0479  0.2096 -0.0328
53459W        W96372   7.062  32.868  24.846  0.0041  0.0707  0.0733
53460W        W96373  13.229  12.591  12.789  0.2708  0.0523  0.1246
53461W        W96374  16.238   6.536  23.384  0.1411 -0.0851  0.0833
53462W        W96375  12.175   5.476  16.254  0.1563 -0.3522 -0.0246
53463W        W96376  22.514  11.858  14.128  0.1004 -0.0197 -0.1700
53464W        W96377  14.777   3.388   0.463 -0.2005  0.2366 -0.0020
53465W        W96378  22.375   4.722  18.638 -0.0193 -0.0366  0.2204
53466W        W96379  15.853  13.932  14.792 -0.2328  0.2680  0.3034
53467W        W96380  19.503   6.106  14.467  0.0888  0.2977 -0.1619
53468W        W96381   7.514  32.237  20.407  0.0387  0.0097 -0.1593
53469W        W96382  18.716  32.857  17.780  0.0819  0.0986  0.1480
53470W        W96383  13.477   9.153  22.838  0.2040  0.1915  0.1706
53471W        W96384  20.200   1.903  16.245  0.0515  0.2341 -0.2429
53472W        W96385  11.421  16.904  16.444  0.2434 -0.1403  0.1265
53473W        W96386  18.047  21.685  20.999  0.0437 -0.0301  0.1497
53474W        W96387   9.007  15.538  21.516  0.1304 -0.2557  0.0197
53475W        W96388  13.718  12.473  21.862 -0.1999 -0.0238 -0.1636
53476W        W96389   2.783  32.780  27.786  0.0046 -0.0464  0.0712
53477W        W96390  18.427  33.061  24.773 -0.1259  0.0817  0.0892
53478W        W96391  17.660   7.420  20.092  0.2099 -0.0578 -0.1993
53479W        W96392   8.973  27.075  16.073 -0.2588 -0.0965  0.0448
53480W        W96393   7.155  29.900  19.337 -0.1263  0.2252 -0.2230
53481W        W96394  11.689  31.790  18.364  0.1707 -0.3417 -0.0005
53482W        W96395  26.407   7.807  16.767  0.0584  0.0990  0.4117
53483W        W96396  15.350   9.642  19.013  0.0670 -0.0856 -0.0874
53484W        W96397  16.971  33.879  20.460  0.0546  0.3595 -0.0416
53485W        W96398   8.546   0.565  27.047 -0.0004  0.0220  0.1555
53486W        W96399  18.683  31.812  16.699 -0.2856 -0.1980 -0.0644
53487W        W96400  15.203   3.944  19.451  0.4115 -0.1476 -0.1766
53488W        W96401   9.078   2.643  24.597  0.0805  0.0134  0.2247
53489W        W96402  11.098   1.112  21.704 -0.2989  0.1179  0.1413
53490W        W96403  21.632  30.636  13.483  0.2888 -0.1313  0.1377
53491W        W96404  11.164  14.763  13.116  0.0536 -0.1515 -0.1127
53492W        W96405  11.427  32.006  21.039  0.0678 -0.2170  0.2040
53493W        W96406  22.594   0.483  25.182  0.0288 -0.0688  0.1831
53494W        W96407   5.578   0.509  20.552 -0.2636  0.1947 -0.0221
53495W        W96408   7.907   5.420  25.765 -0.2442  0.0501 -0.0203
53496W        W96409   8.295  12.660  19.082  0.2075 -0.0194  0.3075
53497W        W96410  10.837  33.985  28.148 -0.0833  0.0846  0.1386
53498W        W96411  23.775  12.495  14.616  0.1020  0.0766  0.1781
53499W        W96412  13.191   4.832  17.941 -0.0550 -0.0171  0.2810
53500W        W96413  12.453   3.799   2.576  0.1266  0.1102  0.1796
53501W        W96414   7.318  31.726  28.132  0.0546  0.0218 -0.1414
53502W        W96415  17.230   6.751  16.240  0.1779 -0.2003  0.1270
53503W        W96416  18.669   5.667  21.026  0.0507 -0.1069  0.1112
53504W        W96417   1.664  29.346  28.047 -0.0043 -0.1747  0.0701
53505W        W96418  14.238   7.664  20.977  0.0181  0.0013  0.1132
53506W        W96419  14.344   4.021  16.450 -0.2339  0.3240  0.0915
53507W        W96420  28.969  11.368   0.631 -0.1091 -0.1157  0.1912
53508W        W96421  15.713  32.795  16.801  0.1440 -0.3751 -0.1470
53509W        W96422  15.156   7.875  15.680  0.0708  0.1252  0.1973
53510W        W96423  10.057  12.521  24.864  0.0091 -0.1358 -0.2580
53511W        W96424   3.848   8.752  16.785 -0.0765  0.0056 -0.1001
53512W        W96425  22.367  31.739  16.847 -0.2043 -0.1337  0.2404
53513W        W96426  23.368  33.225  19.675 -0.1640  0.0858 -0.2614
53514W        W96427  11.700   8.427  23.325  0.0673  0.1484  0.0916
53515W        W96428  22.980   8.666  25.243  0.1365 -0.1743 -0.0528
53516W        W96429  16.185  30.938  15.617 -0.0359 -0.0302  0.1807
53517W        W96430  13.933   2.588  26.535 -0.1282  0.0572 -0.2616
53518W        W96431   1.372  30.503  21.377 -0.0959 -0.4519  0.2045
53519W        W96432  13.343   2.546  17.780  0.0057 -0.0651  0.1441
53520W        W96433   6.218   8.888  17.970  0.1397  0.1615  0.2307
53521W        W96434  20.071  32.553  13.363 -0.0036  0.0236 -0.1768
53522W        W96435   5.543   5.430   4.088  0.1602  0.2024  0.1368
53523W        W96436  12.388   9.037  29.235  0.0542  0.2110  0.2642
53524W        W96437   4.562   8.906  26.725  0.1300 -0.0654  0.1773
53525W        W96438  17.515   0.752  16.000 -0.1060  0.1584 -0.0016
53526W        W96439   9.120   3.462  20.141 -0.2277 -0.0029 -0.3618
53527W        W96440  29.507   3.459  17.636  0.0455 -0.3528 -0.0306
53528W        W96441  10.562   8.920  17.786 -0.4818 -0.0276  0.1469
53529W        W96442  34.360  14.862  22.973  0.2619 -0.4598 -0.2686
53530W        W96443  16.300  14.243  23.350 -0.0598  0.0351  0.0914
53531W        W96444   9.407  10.440  19.844  0.1123 -0.0071 -0.1564
53532W        W96445  13.186   9.182  18.814  0.1470  0.1921 -0.2353
53533W        W96446   7.390  27.515  23.281 -0.3691  0.4850 -0.0786
53534W        W96447  15.525  34.367  21.625  0.1341  0.0526 -0.0282
53535W        W96448  20.243   9.450  28.408  0.2862  0.1978  0.2439
53536W        W96449   7.335  12.632  14.570  0.1451  0.1384 -0.0814
53537W        W96450   6.623  12.095  17.357 -0.0678 -0.1083 -0.2084
53538W        W96451  17.790   2.918  19.055 -0.2452  0.1396  0.1538
53539W        W96452  12.201  30.773  22.738  0.1086  0.0176  0.1623
53540W        W96453   2.669   9.066   0.640  0.1037  0.2751  0.4508
53541W        W96454  11.733   5.528  16.475  0.0742 -0.0725 -0.0896
53542W        W96455  12.409  10.195  25.608  0.0784 -0.0163 -0.0258
53543W        W96456  17.843   2.023  19.014  0.1505 -0.1297  0.0918
53544W        W96457  12.272   2.118  20.488  0.2898 -0.0954  0.2425
53545W        W96458   4.698  13.544   3.171 -0.2731  0.0223  0.2248
53546W        W96459  14.123   6.543  20.762 -0.3201  0.0878 -0.3690
53547W        W96460  20.149   3.865  14.099  0.0267 -0.3809 -0.1268
53548W        W96461  22.350   8.843  27.724 -0.2277  0.1279 -0.1390
53549W        W96462   7.349   1.935  24.957 -0.1494 -0.0388  0.0463
53550W        W96463   8.505   9.087  17.797 -0.1503  0.0078  0.0168
53551W        W96464  16.439  30.717  16.284  0.2462 -0.2759 -0.0752
53552W        W96465  14.806  28.865  20.256 -0.1656 -0.1141 -0.0743
53553W        W96466  11.868  29.455  21.663 -0.2168 -0.2328 -0.0420
53554W        W96467   4.917   4.160  24.725 -0.0057 -0.2690 -0.1722
53555W        W96468  16.502   4.289  15.394  0.0535  0.0365  0.0811
53556W        W96469  16.018  30.953  20.892  0.0771 -0.0276 -0.1343
53557W        W96470   6.281  12.012  18.748  0.0449  0.0721 -0.0145
53558W        W96471   3.120   4.316  20.381  0.0235  0.4065 -0.2587
53559W        W96472   7.334   5.081  22.981  0.0518 -0.1770 -0.0102
53560W        W96473   9.421  14.081  17.087  0.0902  0.1296 -0.0216
53561W        W96474   0.063   4.090  26.603  0.1242  0.0362 -0.2353
53562W        W96475   6.194   6.612  20.793 -0.2564  0.0160  0.0785
53563W        W96476   7.280  17.997  17.356  0.0451  0.2850  0.1409
53564W        W96477  12.698   2.995  16.897 -0.1263  0.1709 -0.0336
53565W        W96478  29.623  15.968  16.815  0.0182  0.0670  0.1527
53566W        W96479   3.031   7.173  19.410  0.4485  0.3373 -0.0264
53567W        W96480  19.098   6.861  15.006  0.0246 -0.2326  0.2681
53568W        W96481  11.349  22.994   1.025  0.0343 -0.2188  0.0530
53569W        W96482   5.312  22.022  19.249  0.1193  0.2442 -0.2691
53570W        W96483  11.841   0.944  20.297 -0.2743  0.0219  0.2089
53571W        W96484  15.603   8.782  16.768  0.0021  0.2099  0.0399
53572W        W96485  21.430   8.593  13.005 -0.0927 -0.2300 -0.1054
53573W        W96486  10.945  34.193  21.554  0.0795  0.1427 -0.3384
53574W        W96487  30.418   0.171  19.906  0.3032 -0.2531  0.1231
53575W        W96488  17.313  12.186  20.314 -0.1627 -0.2454  0.0935
53576W        W96489  16.770  31.059  18.390  0.0969 -0.1688 -0.0639
53577W        W96490  12.580   3.487  20.137  0.0040  0.2945  0.1803
53578W        W96491  12.029   7.251  20.406 -0.2054  0.0156  0.0984
53579W        W96492   6.363  14.823  17.044  0.5184  0.1600 -0.2844
53580W        W96493  15.353   6.789  15.609  0.0210 -0.0873  0.1620
53581W        W96494  26.406  32.557  13.642 -0.0675  0.3285 -0.2526
53582W        W96495  24.284   3.938  16.909  0.3547  0.1539 -0.1685
53583W        W96496   6.997  27.345  18.912  0.1329 -0.0937 -0.3300
53584W        W96497  18.776   7.510  25.043 -0.3483  0.1312 -0.2799
53585W        W96498   7.610  12.346  24.779  0.1570  0.1251 -0.0471
53586W        W96499  26.494   5.515  25.009  0.2568  0.0760  0.1053
53587W        W96500  14.155  31.406   0.475 -0.0836  0.2089 -0.2138
53588W        W96501  20.764  22.136  15.553  0.1277 -0.2210 -0.0323
53589W        W96502  13.169  14.033  26.994 -0.3436 -0.2057 -0.2458
53590W        W96503  19.751   6.768  16.381  0.1397 -0.5701 -0.0949
53591W        W96504   0.916  32.740  15.314  0.0713 -0.0427 -0.1254
53592W        W96505  13.456   0.880  17.130 -0.1417 -0.1129  0.1926
53593W        W96506   1.646   5.672  20.162  0.0632 -0.3217  0.0778
53594W        W96507   6.749  14.278  22.156 -0.0637 -0.0613  0.0312
53595W        W96508  19.199   8.869  24.985  0.2243  0.2519 -0.1040
53596W        W96509  16.528   6.439  21.687 -0.0428 -0.0897  0.1950
53597W        W96510  14.096  11.334  23.958  0.0518 -0.1616 -0.0956
53598W        W96511  16.646  34.471  16.602  0.0919 -0.1076  0.1830
53599W        W96512   8.517   7.183  19.517  0.1364  0.2661  0.2084
53600W        W96513  21.748  34.474  16.519 -0.1339 -0.0999 -0.0193
53601W        W96514  26.783   8.174  27.665  0.1193  0.1563 -0.0703
53602W        W96515  22.664  11.528  17.046 -0.0395 -0.0336  0.3439
53603W        W96516  14.810   7.951  22.203  0.2005 -0.3060  0.1127
53604W        W96517  16.245   6.878  17.003  0.1887  0.0003 -0.3491
53605W        W96518  20.865   0.158  20.740 -0.1132 -0.2961 -0.0802
53606W        W96519  23.041   0.453  15.067 -0.0781  0.1760  0.2372
53607W        W96520  21.639   1.058  22.330 -0.0546 -0.2036  0.1520
53608W        W96521  17.526   5.446  20.144 -0.2136  0.0809 -0.1469
53609W        W96522   1.249   3.843  20.778 -0.0023 -0.1660 -0.1646
53610W        W96523  11.912   3.741  20.186  0.0867 -0.2004 -0.2163
53611W        W96524  23.249   4.267  21.718  0.2278  0.2835 -0.0795
53612W        W96525  22.814  33.078  14.534  0.1211 -0.0527 -0.1101
53613W        W96526   9.727   5.616   0.971 -0.0118 -0.1758 -0.0751
53614W        W96527  15.459  34.040  16.462 -0.1695 -0.3276 -0.0718
53615W        W96528   6.312  31.351  16.657 -0.1087  0.1772 -0.3125
53616W        W96529  11.555  30.760  17.264 -0.0350  0.0014  0.1647
53617W        W96530   8.683  12.723  21.569 -0.1519  0.3341 -0.0484
53618W        W96531  12.882  10.281  20.660  0.2430  0.1166 -0.1274
53619W        W96532  14.635  32.897  18.723  0.1423 -0.0674  0.3383
53620W        W96533  17.674   9.182  19.718 -0.0539 -0.2266 -0.2446
53621W        W96534  18.859  32.497  24.952 -0.1879  0.0555 -0.0576
53622W        W96535   9.927   4.883  25.944  0.1448  0.1083  0.2893
53623W        W96536  17.253   6.413  17.684 -0.0938  0.2370 -0.1379
53624W        W96537  21.617  32.145  14.904 -0.2756  0.4016  0.0819
53625W        W96538   6.620   4.428  23.543 -0.2550  0.1451  0.2192
53626W        W96539  19.106   5.464  15.428 -0.0418  0.0763  0.2515
53627W        W96540  14.484  32.124  15.778  0.1139  0.0446  0.1892
53628W        W96541  19.631   7.063  17.961 -0.0471 -0.0516  0.2313
53629W        W96542   8.388  15.248  14.677  0.0842 -0.0068 -0.2069
53630W        W96543  16.942   2.779  15.626  0.1195  0.0548  0.0321
53631W        W96544  17.164   2.124   0.396  0.0091 -0.2536  0.1644
53632W        W96545   7.204   6.169  17.091  0.0642  0.1564 -0.2116
53633W        W96546  10.520   2.965  21.508 -0.2551  0.2035 -0.2706
53634W        W96547  24.110  11.975  13.402  0.2534  0.2294 -0.1452
53635W        W96548  15.987   6.430  18.803  0.1955  0.0164  0.0812
53636W        W96549  23.956   6.967  14.424  0.0758 -0.0358 -0.0089
53637W        W96550  15.549   3.693  15.394  0.0427  0.1507  0.1920
53638W        W96551  16.667   0.006  19.207 -0.1182 -0.0240  0.1986
53639W        W96552  22.474   2.170  17.432 -0.2444 -0.1897  0.0110
53640W        W96553  29.517   4.359  17.730  0.2083  0.2152  0.0370
53641W        W96554  21.940  25.792  14.808 -0.0248  0.2155 -0.2895
53642W        W96555  10.858  32.806  17.042 -0.0184 -0.1743 -0.1994
53643W        W96556  13.988  34.176  18.077 -0.3972  0.0782 -0.2210
53644W        W96557   6.509  13.297  26.289 -0.1555 -0.0315 -0.1656
53645W        W96558  16.985  33.024  21.147 -0.1572  0.0553 -0.0930
53646W        W96559  12.347  30.306  20.414 -0.0048 -0.0211 -0.0270
53647W        W96560  15.740  29.188  25.309  0.1553 -0.0194  0.1015
53648W        W96561  26.928  34.307  16.711  0.1689  0.0251 -0.0819
53649W        W96562  22.995   8.413  14.686  0.0508 -0.1475 -0.1251
53650W        W96563  23.513   6.950  23.110 -0.3055 -0.0158 -0.3336
53651W        W96564  24.038   5.537  20.590  0.1967 -0.3208 -0.2193
53652W        W96565  16.050  16.009  16.842 -0.2089 -0.1301 -0.1195
53653W        W96566   9.459   0.308  20.786 -0.2798  0.0950 -0.0276
53654W        W96567  10.030  30.858  25.447 -0.0797  0.2417 -0.0405
53655W        W96568   1.065   8.218  23.741  0.3389 -0.2722  0.1009
53656W        W96569   5.966  17.257  13.879  0.0918  0.0384  0.0305
53657W        W96570   8.550   8.513  18.952 -0.1059  0.1454  0.0414
53658W        W96571  15.274   3.298  19.916 -0.0842  0.1662  0.0137
53659W        W96572  16.858  32.344  27.538 -0.1718 -0.1847  0.0185
53660W        W96573  15.188  12.569   2.178 -0.0440  0.2289  0.0183
53661W        W96574   4.246   6.244  19.207  0.1977  0.0020  0.0550
53662W        W96575  18.291  11.117  27.460  0.4002  0.0399  0.3830
53663W        W96576  15.969  32.690  21.596  0.0054  0.1341 -0.1125
53664W        W96577  18.841  11.367  26.318 -0.1464  0.4782 -0.1991
53665W        W96578   4.073  11.741  22.727 -0.1248  0.0446 -0.1921
53666W        W96579  23.755   5.246  18.526 -0.0681  0.0476  0.0645
53667W        W96580  27.013   6.615  16.799 -0.0211 -0.2085 -0.1657
53668W        W96581  16.583   6.263  21.036 -0.0442 -0.3735  0.2457
53669W        W96582   9.927   3.370  23.750  0.1542  0.1752  0.0105
53670W        W96583  24.053   9.683  18.128  0.0516  0.2194  0.0626
53671W        W96584  10.832  16.972  17.354  0.1659  0.1238 -0.1958
53672W        W96585  14.755   5.894  17.555 -0.3178 -0.1566 -0.0328
53673W        W96586  13.224  16.118  13.147 -0.3565  0.1349  0.1047
53674W        W96587   9.204   0.095  19.952 -0.1439  0.3317  0.0581
53675W        W96588  16.153   5.321   5.737 -0.0592 -0.2690  0.0856
53676W        W96589  19.502   2.772  15.212 -0.0272  0.0909  0.0434
53677W        W96590  20.840  10.615  20.563 -0.0153  0.1008 -0.0564
53678W        W96591  23.898  29.368  20.884 -0.1720 -0.0461  0.1565
53679W        W96592   3.318   2.878  17.198  0.3692 -0.1062 -0.2024
53680W        W96593  19.591   1.389  23.812 -0.1056 -0.0679 -0.1133
53681W        W96594  20.920   2.041  15.199 -0.1585 -0.0267  0.0414
53682W        W96595  13.893  13.964  25.169 -0.1188 -0.0069 -0.0835
53683W        W96596  10.581  30.212  18.667 -0.1156  0.3958 -0.2232
53684W        W96597  14.757   1.215  22.978 -0.0452  0.0997  0.2252
53685W        W96598  13.258  29.250  17.543  0.0751 -0.2580  0.3916
53686W        W96599   4.770   6.714  25.060  0.1986 -0.2029  0.1289
53687W        W96600   3.732   0.264  18.725 -0.1895  0.3342 -0.0818
53688W        W96601  24.362   4.441  13.401 -0.0401  0.0007  0.1125
53689W        W96602  25.562  29.321  22.804 -0.1775 -0.0654 -0.0359
53690W        W96603  12.072   4.077  26.015  0.0748 -0.0710 -0.0562
53691W        W96604  18.641   8.991  21.205  0.0395 -0.0221 -0.2341
53692W        W96605  11.153   2.221  21.088 -0.3970  0.0820 -0.0995
53693W        W96606  11.604   5.847  16.808  0.0220  0.0864  0.1635
53694W        W96607  17.088   1.505  21.408  0.2145 -0.2016 -0.1814
53695W        W96608  24.708   5.580   0.345 -0.1440 -0.1089  0.1514
53696W        W96609   6.964   1.223  19.500 -0.3169  0.3487 -0.0583
53697W        W96610  14.148   7.252  17.711 -0.0945 -0.1522 -0.1508
53698W        W96611   9.975   5.138  19.049  0.0058 -0.1040  0.1394
53699W        W96612  29.493  12.022  16.246  0.1453 -0.0441 -0.3409
53700W        W96613   6.427   7.865  17.308 -0.0623 -0.2501 -0.2110
53701W        W96614   9.213   7.306  23.630 -0.1863 -0.0553  0.1262
53702W        W96615  20.255  17.844  13.816  0.0064 -0.0303 -0.2556
53703W        W96616  13.594   3.172  18.858  0.3166  0.2961  0.0035
53704W        W96617   6.808   8.160  21.499 -0.1038 -0.1772  0.2210
53705W        W96618  20.358   6.489  16.903  0.3752  0.2537 -0.3175
53706W        W96619   8.675   8.447  17.111  0.0994 -0.4409  0.2784
53707W        W96620   4.834   4.582  24.370 -0.3954  0.0350 -0.0632
53708W        W96621  24.568  10.383  19.970  0.0079 -0.2865  0.0422
53709W        W96622  23.885   0.671  20.404 -0.0369  0.2313  0.1297
53710W        W96623  28.999  26.921  17.929 -0.0141 -0.2359  0.0723
53711W        W96624  22.266  32.573  21.731  0.1765  0.1573 -0.1320
53712W        W96625  19.204  12.405  16.176 -0.0515  0.2286  0.0045
53713W        W96626  16.235  33.674  23.692  0.1849  0.1823  0.1406
53714W        W96627  15.253   6.856  24.180  0.3694  0.0113  0.2729
53715W        W96628  11.778  14.646  20.077  0.2149 -0.0792  0.0392
53716W        W96629  17.792   3.073  15.296 -0.3607  0.0519 -0.0214
53717W        W96630  16.848   2.581  14.652 -0.1233 -0.2443 -0.3210
53718W        W96631  16.751  12.789  19.085  0.2755  0.0601  0.4731
53719W        W96632  15.645  12.713  15.613 -0.1617 -0.0603  0.0359
53720W        W96633   6.163   2.002  27.466 -0.0809 -0.1031 -0.1056
53721W        W96634  10.399  29.145  17.007  0.0486  0.3955 -0.0567
53722W        W96635   5.258   6.870  21.537  0.1747  0.2779  0.1415
53723W        W96636  11.896   7.702  17.031 -0.0583  0.1694  0.1267
53724W        W96637  23.617  21.086  16.725  0.1219  0.0933  0.0542
53725W        W96638  13.021   4.699  24.195  0.1297  0.0042  0.3130
53726W        W96639  26.546   5.363  16.745  0.0656 -0.1438 -0.1064
53727W        W96640  17.203   1.698  17.320 -0.1985  0.0813 -0.0130
53728W        W96641  16.025   9.007  15.514  0.2711 -0.1594 -0.0396
53729W        W96642   3.261   3.821  22.265 -0.0711 -0.0569  0.0386
53730W        W96643  13.722   5.306  22.056 -0.0384 -0.2446  0.0686
53731W        W96644  33.154  22.608  21.258 -0.2360 -0.0245 -0.4077
53732W        W96645   1.938   1.294  17.683 -0.3070  0.0282  0.0162
53733W        W96646   7.775   3.080  17.745 -0.3362 -0.2915 -0.3646
53734W        W96647   7.035   2.983  26.679 -0.2149 -0.4486 -0.2156
53735W        W96648   4.040   3.677  17.417 -0.1188 -0.1505  0.4474
53736W        W96649   4.330  32.498  16.952  0.2978  0.1504  0.1346
53737W        W96650  19.966   7.876  21.436  0.0869 -0.1300  0.1608
53738W        W96651  19.550  24.343  26.151  0.2293 -0.2555 -0.0432
53739W        W96652   9.547   1.833  20.133 -0.0016 -0.1157  0.2687
53740W        W96653  12.739   9.318  25.345 -0.1287  0.1875 -0.1061
53741W        W96654   6.745   3.952  20.255  0.1481  0.0515 -0.0523
53742W        W96655  12.149   3.953  21.592  0.0264 -0.1253  0.0185
53743W        W96656  19.954   6.056  24.149 -0.0187  0.4123 -0.0820
53744W        W96657  12.889  28.135  17.398 -0.0718  0.1594  0.3293
53745W        W96658  16.930  32.755  18.355  0.1339  0.0962  0.0231
53746W        W96659  16.620   5.494  17.324  0.0335  0.1793 -0.0381
53747W        W96660  25.888  14.709  17.112  0.0799  0.0094 -0.0039
53748W        W96661   1.162  34.448  23.959 -0.3254 -0.1102  0.1153
53749W        W96662   0.900  33.687  24.905 -0.0879  0.1624 -0.0627
53750W        W96663  25.584   9.304  17.712  0.0204  0.2353 -0.1243
53751W        W96664  19.242   1.267  24.287 -0.0446  0.4751 -0.2225
53752W        W96665  20.092   8.149  22.604 -0.0045  0.0901 -0.1871
53753W        W96666   4.522   8.094  19.079 -0.0647  0.0423  0.2651
53754W        W96667  26.597  12.843  15.437  0.2533 -0.0337 -0.1310
53755W        W96668  14.485   6.121  23.328 -0.0621 -0.0885  0.0348
53756W        W96669  17.215  11.360  13.400 -0.2312  0.0075 -0.1175
53757W        W96670  19.611   9.350  17.490  0.1271  0.0143 -0.0457
53758W        W96671  20.167   8.616  17.664 -0.1400 -0.2892  0.4180
53759W        W96672  10.299   6.632  28.710 -0.4951  0.0486  0.0992
53760W        W96673  13.348   6.914  16.149  0.1796  0.0768 -0.0380
53761W        W96674   9.236  33.414  23.916  0.2437  0.0393 -0.2387
53762W        W96675   9.304  15.198  15.268  0.0821  0.2805 -0.0460
53763W        W96676   3.210   3.642  21.787  0.2586  0.2591 -0.1670
53764W        W96677  12.605  33.818  15.746  0.1250  0.1406  0.1186
53765W        W96678  24.177   2.941  16.910 -0.1792 -0.2604 -0.0272
53766W        W96679   7.738   3.452  18.503 -0.1364 -0.3068 -0.3584
53767W        W96680  17.866   3.935  17.305 -0.2458  0.0815  0.1195
53768W        W96681  22.164   9.083  23.483  0.0775 -0.2557  0.1300
53769W        W96682  10.883  15.679  21.361  0.0551  0.1009 -0.0506
53770W        W96683  12.604  34.183  19.681  0.1984 -0.1149  0.3499
53771W        W96684  15.934   7.310  17.003 -0.0104  0.1847 -0.1620
53772W        W96685  18.793   7.062  23.023 -0.1405  0.4749  0.0439
53773W        W96686  13.298  32.232  21.289 -0.0880  0.0464 -0.3913
53774W        W96687   5.290  31.327  18.050 -0.0718  0.3749  0.0167
53775W        W96688   8.359   4.148  26.188  0.1854  0.1565 -0.2027
53776W        W96689  22.589   8.346  26.589 -0.2093  0.1266  0.1273
53777W        W96690  14.112  11.263  17.215 -0.3234  0.4260 -0.1587
53778W        W96691  10.357   6.993   2.501 -0.1694  0.0591 -0.0962
53779W        W96692  17.179  29.451  28.519 -0.0402 -0.2052  0.2640
53780W        W96693  11.846  21.760  17.331 -0.0734 -0.1289  0.0159
53781W        W96694  19.428  34.372  27.199 -0.1075 -0.1662  0.1811
53782W        W96695  20.764  16.714  14.728  0.0027 -0.1396  0.0224
53783W        W96696   5.144  31.804   6.556 -0.1842  0.3362  0.1892
53784W        W96697  25.065  10.774  22.673  0.2176  0.1283  0.1832
53785W        W96698  24.083  34.260  17.771  0.3409 -0.0085 -0.1953
53786W        W96699  10.784  13.368  16.582  0.4321  0.0397 -0.0340
53787W        W96700  13.342   3.198  16.456  0.0539  0.0094 -0.1947
53788W        W96701  10.622  33.455  20.375  0.1704  0.5050 -0.0202
53789W        W96702   7.379   2.489  23.713  0.0210  0.1557  0.1135
53790W        W96703  12.622   7.732   1.705  0.2074  0.4133  0.3657
53791W        W96704   4.106   0.060  27.408  0.2205  0.1404 -0.1947
53792W        W96705  28.455  11.753  25.101 -0.0007 -0.0824  0.0469
53793W        W96706  12.182   4.693  18.025  0.1569  0.1433  0.1701
53794W        W96707  23.076   5.965  24.356  0.3650 -0.4254 -0.0523
53795W        W96708   8.897  11.192  19.631  0.0796 -0.1296 -0.0087
53796W        W96709  17.919  10.137  18.087  0.2018 -0.1665  0.0511
53797W        W96710  27.465  32.742  21.324 -0.0124 -0.1730 -0.1812
53798W        W96711  17.664   2.635  23.165  0.4764 -0.1740  0.1200
53799W        W96712   3.800   4.028  21.218 -0.0754  0.2653  0.0451
53800W        W96713   2.955   2.940  27.306 -0.4142 -0.1288 -0.2865
53801W        W96714  13.230  12.043  15.449 -0.4284 -0.2689 -0.0367
53802W        W96715  14.447   2.041  18.507 -0.3202 -0.0579 -0.2960
53803W        W96716  27.267   8.692  21.042  0.0368 -0.5409  0.1508
53804W        W96717  10.266  10.784  14.810  0.0779  0.1153  0.2283
53805W        W96718  11.600  14.515  21.515 -0.2138 -0.0703  0.0007
53806W        W96719   5.935  12.427  19.504  0.3698  0.0274 -0.0056
53807W        W96720  10.944   0.169  20.400 -0.0307  0.1088 -0.0164
53808W        W96721   2.240  30.753  15.521 -0.0140 -0.0206  0.2221
53809W        W96722  22.365  27.240  17.312 -0.1089  0.3324  0.2294
53810W        W96723   7.057  10.685  19.500  0.0532  0.4170 -0.1885
53811W        W96724   2.815   6.364  27.418  0.0386  0.0715 -0.1363
53812W        W96725  23.667   7.995  18.025  0.0829  0.3059  0.4724
53813W        W96726  19.628   9.432  20.486  0.2387  0.0412 -0.2547
53814W        W96727  18.810  31.545  18.216  0.0247 -0.1586 -0.4538
53815W        W96728  13.572  10.083  28.952 -0.3624 -0.2573  0.1255
53816W        W96729  10.752  12.582  17.004  0.1424 -0.0364  0.0159
53817W        W96730   4.294  31.358  27.891 -0.1511  0.2647 -0.2187
53818W        W96731   5.067   6.584  21.097 -0.1812  0.0442  0.3495
53819W        W96732  17.221   7.181  16.006  0.0805 -0.1628 -0.1781
53820W        W96733  10.031  16.464  13.170  0.2859 -0.4439 -0.0350
53821W        W96734   1.448  32.954  21.556  0.0410  0.0482 -0.0338
53822W        W96735  12.708   6.547  22.233 -0.1347 -0.1030  0.1137
53823W        W96736   7.391   7.400  24.058  0.3358  0.1493  0.0272
53824W        W96737   7.396   5.353  18.999 -0.0409 -0.0035 -0.1906
53825W        W96738  14.956   5.475   6.640  0.3895  0.0462  0.1723
53826W        W96739  16.885   3.735  26.063 -0.1143  0.0811 -0.2238
53827W        W96740  11.176   8.889  18.976  0.1826 -0.3080 -0.2016
53828W        W96741  22.899   4.469  23.091  0.0372  0.0392 -0.0135
53829W        W96742  11.333   1.264  17.560 -0.0219 -0.0840  0.1121
53830W        W96743   9.200  12.940  16.624  0.1687  0.1563 -0.0891
53831W        W96744   6.221   3.627  19.433  0.2582 -0.1792  0.1346
53832W        W96745  12.935   4.457  16.174 -0.1214  0.0981 -0.1071
53833W        W96746  22.209   0.733  18.766 -0.0185 -0.0100 -0.1647
53834W        W96747  14.460   5.575  15.087 -0.1753 -0.1069 -0.2233
53835W        W96748  23.692   8.537  18.029 -0.1755  0.3226 -0.0507
53836W        W96749  12.670  30.567  17.584 -0.0743  0.0764 -0.0771
53837W        W96750  21.852   1.587  27.767  0.0239 -0.0916  0.0633
53838W        W96751  21.652   5.998  16.577 -0.0103 -0.0279  0.0361
53839W        W96752  24.278   2.918  17.739  0.0085  0.1752  0.0154
53840W        W96753   7.959   8.031  22.388  0.0277 -0.0242  0.3870
53841W        W96754   9.329   7.338  24.162 -0.3004  0.1330 -0.0373
53842W        W96755  21.369  10.331  25.181  0.1001  0.0529  0.0125
53843W        W96756   9.982  11.816  15.298  0.0071 -0.1649  0.1364
53844W        W96757   9.503  30.184  25.123 -0.0762  0.2683 -0.2752
53845W        W96758  11.010   2.515  18.600 -0.2667  0.0228  0.1168
53846W        W96759   3.719  31.748  24.900  0.0687 -0.1051 -0.2370
53847W        W96760  12.106   5.680  17.460 -0.0443 -0.6924 -0.1593
53848W        W96761  26.770  10.541  14.506 -0.1816  0.0890 -0.2139
53849W        W96762  10.224  10.201  15.397  0.1230 -0.2491  0.1188
53850W        W96763   2.330  14.878  26.101  0.1777  0.0976  0.0598
53851W        W96764  15.148   1.470  23.382  0.0910  0.0164 -0.0228
53852W        W96765  16.117   4.149  20.697 -0.3805 -0.1224  0.0901
53853W        W96766  15.519  30.720  18.278  0.2540 -0.1195 -0.0889
53854W        W96767  14.427  32.475  23.301  0.0806  0.3493 -0.2479
53855W        W96768   0.791   2.180  28.748  0.0762 -0.0464 -0.1553
53856W        W96769   7.886   1.162  28.190 -0.2468  0.2745  0.1447
53857W        W96770  19.259   0.344  16.676 -0.0622 -0.0878 -0.0791
53858W        W96771  13.154  17.231  15.277  0.2649  0.0753 -0.1202
53859W        W96772  13.997   9.256  23.327 -0.0693  0.2323 -0.2714
53860W        W96773  18.677   4.162  16.665  0.2733 -0.0445  0.4801
53861W        W96774   7.748  34.453  28.492  0.1539 -0.0551  0.1753
53862W        W96775  21.442  25.108  16.347  0.0121  0.2261 -0.2701
53863W        W96776  18.191  10.588  18.163 -0.0419  0.3649 -0.1161
53864W        W96777  14.229   1.843  28.822  0.2078 -0.0419 -0.3573
53865W        W96778  16.098   1.945  18.590 -0.0921 -0.0375  0.1746
53866W        W96779  20.498  22.388  27.739 -0.2003  0.0445 -0.1402
53867W        W96780   1.734  19.156  15.895 -0.0187  0.0285  0.3927
53868W        W96781  20.174  11.122  22.366 -0.1665 -0.2623  0.1716
53869W        W96782  24.338  29.075  13.876 -0.2312  0.2062  0.4353
53870W        W96783   7.410   2.554  21.109 -0.1002  0.2702  0.1201
53871W        W96784  10.598   3.018  26.986  0.1603  0.1953 -0.0599
53872W        W96785  16.544   5.110  20.615 -0.2817  0.2384 -0.1835
53873W        W96786  23.873  32.344  23.975  0.2993  0.1783  0.1734
53874W        W96787  24.657  10.399  13.730 -0.1568 -0.0101 -0.0383
53875W        W96788  19.370   3.528  21.758 -0.0098  0.2363  0.1024
53876W        W96789  17.823  28.895   0.464  0.0028 -0.3235 -0.0710
53877W        W96790  22.472   0.990  19.765 -0.0387 -0.1796 -0.0670
53878W        W96791  12.465   2.620  17.499 -0.0260 -0.0219  0.2047
53879W        W96792  15.237   1.850  20.031 -0.0554 -0.1661 -0.0135
53880W        W96793  22.523  33.564  14.275  0.0739  0.0839 -0.5811
53881W        W96794   6.230  31.100  20.273 -0.0064 -0.1854 -0.1665
53882W        W96795  28.084   0.948  20.400  0.0506 -0.0934 -0.2467
53883W        W96796  28.885   3.028   3.317  0.2177  0.1988  0.1339
53884W        W96797  17.703  13.903  13.012 -0.2665  0.1119  0.0036
53885W        W96798  13.009   6.051  26.551  0.1661 -0.1573 -0.1050
53886W        W96799  11.712  33.976  16.793 -0.1021 -0.1113  0.1917
53887W        W96800   8.357  10.211  22.993 -0.1622 -0.2349  0.2434
53888W        W96801  14.180  31.101  18.697 -0.4980 -0.0791 -0.0548
53889W        W96802  13.732   5.628  20.040 -0.3046 -0.1226 -0.2930
53890W        W96803   9.909  16.437  17.744 -0.0004 -0.3283  0.2039
53891W        W96804  11.703  12.092  22.614  0.2278  0.2343  0.2199
53892W        W96805  24.156  34.453  26.957  0.1863  0.1521 -0.2040
53893W        W96806  12.919  11.381  26.793  0.0348 -0.0058  0.2305
53894W        W96807  20.767   7.123  15.128  0.0205 -0.0053 -0.3360
53895W        W96808  14.307   0.267   3.802  0.0747  0.0551  0.2651
53896W        W96809  12.174   6.998  18.789  0.0811  0.2042  0.1270
53897W        W96810  23.268   4.445  24.020 -0.0225 -0.0351  0.2217
53898W        W96811  20.120  10.628  15.565 -0.2557 -0.0948 -0.2025
53899W        W96812   8.035  29.984  23.170 -0.0151 -0.1462  0.1766
53900W        W96813   5.112  20.083  15.622 -0.0436  0.0803  0.1793
53901W        W96814   3.308  31.308  24.164  0.0897 -0.2749  0.1465
53902W        W96815  12.577   3.263  18.402  0.1504 -0.0723 -0.4352
53903W        W96816  11.858  10.550  21.688  0.0091  0.3159 -0.2359
53904W        W96817  17.035   8.351  20.467 -0.2161 -0.3455 -0.3724
53905W        W96818   7.890   5.154  22.497 -0.1740  0.0915  0.0797
53906W        W96819  17.272   2.095  19.852  0.0157  0.1909 -0.0197
53907W        W96820  20.206   8.645  13.453  0.0497 -0.2042 -0.2048
53908W        W96821  30.856  17.506  13.922  0.0584  0.0525  0.1455
53909W        W96822  18.033   4.580  21.854 -0.0424 -0.1563  0.1396
53910W        W96823   9.585   7.724   1.749  0.1390  0.2254 -0.2040
53911W        W96824  10.730   6.082   0.174 -0.0624 -0.1030 -0.2423
53912W        W96825  21.655  27.509  19.804  0.0635  0.1169 -0.1840
53913W        W96826   5.377  14.705  17.403 -0.1899  0.0325 -0.1905
53914W        W96827  13.346   3.921  18.328  0.2412  0.1154  0.0382
53915W        W96828  12.435  34.215   2.156  0.0112 -0.3560 -0.1651
53916W        W96829   5.791  12.844  21.272 -0.1469  0.1398 -0.1166
53917W        W96830  18.307  10.730  20.902 -0.0896  0.0891  0.0553
53918W        W96831  21.930   1.743  24.312 -0.1673  0.1269  0.0048
53919W        W96832  14.513   1.342  17.032 -0.4573 -0.0191 -0.2389
53920W        W96833  24.108   8.926  21.171  0.3133  0.2503  0.0459
53921W        W96834  10.144  12.065  17.418 -0.1363 -0.0962 -0.1762
53922W        W96835  11.151  11.073  16.310 -0.3053 -0.2510 -0.2920
53923W        W96836  15.957   0.525  24.161  0.1949 -0.2732  0.1822
53924W        W96837  14.307   2.423  21.324 -0.3731 -0.0482  0.0881
53925W        W96838  11.480  11.606  23.479  0.2084  0.1082 -0.2198
53926W        W96839   8.576   0.859  27.971  0.1909 -0.1806 -0.2965
53927W        W96840  11.891  32.536  21.628 -0.4851 -0.0293  0.1157
53928W        W96841  11.015   8.180  26.122 -0.0888  0.1029  0.2006
53929W        W96842  23.019   0.598  20.283 -0.3048  0.1483 -0.1307
53930W        W96843   9.738  25.042  25.750  0.3463 -0.5480 -0.1420
53931W        W96844   9.978   5.236  26.964 -0.2046  0.3064 -0.2575
53932W        W96845   8.826  14.559  26.962 -0.0593 -0.0439 -0.0647
53933W        W96846  26.153   2.039   0.643  0.1685 -0.0030  0.0509
53934W        W96847  24.733   3.867  25.699 -0.0728 -0.2678  0.3036
53935W        W96848  13.708  33.220  23.305 -0.2729  0.0077 -0.2477
53936W        W96849  33.893  10.877  19.476 -0.1711  0.0231 -0.0640
53937W        W96850   3.283   7.779  17.528 -0.3557  0.2673 -0.2714
53938W        W96851  17.858   2.648  18.649  0.3283 -0.1095  0.0430
53939W        W96852   6.470   7.505  20.463  0.2390  0.0574  0.1595
53940W        W96853  21.614  11.395   5.286 -0.2208  0.1352 -0.1429
53941W        W96854  15.122  29.688  25.006  0.4075 -0.0899  0.1092
53942W        W96855  12.071  12.347  14.631 -0.0612  0.0168  0.0713
53943W        W96856  13.967  33.425  20.736 -0.1287 -0.0281 -0.1284
53944W        W96857  13.933   4.421  15.802  0.1341 -0.3334  0.0400
53945W        W96858  15.859  13.897   0.147 -0.1288  0.1199 -0.1452
53946W        W96859  21.945   1.622  18.896 -0.0486 -0.3210 -0.1691
53947W        W96860  11.118   4.868  25.512  0.1546 -0.0271  0.0280
53948W        W96861   8.909   9.656  24.155  0.0879 -0.0266  0.1037
53949W        W96862  11.988  13.258  13.170 -0.1186 -0.1842  0.2212
53950W        W96863  17.141  13.005  26.516  0.1637 -0.2665 -0.0672
53951W        W96864  12.571  32.003  28.194  0.1876 -0.2338  0.1361
53952W        W96865  10.303  33.163  22.886 -0.1210  0.1891 -0.1386
53953W        W96866   6.540   5.338  25.943  0.1213 -0.1633 -0.2654
53954W        W96867   0.136  12.322   2.869 -0.2051 -0.2160  0.0337
53955W        W96868  18.433   7.322  16.496  0.1976  0.3862  0.3315
53956W        W96869  10.184  27.757  23.168  0.1319 -0.1762  0.2298
53957W        W96870  19.057   0.617  24.007  0.3166  0.1824 -0.2235
53958W        W96871  14.324   8.154  20.291  0.1487 -0.0311  0.0131
53959W        W96872  18.941   1.827  21.147  0.1790 -0.0935  0.3742
53960W        W96873  10.775   7.034  23.841 -0.2254  0.1616  0.0542
53961W        W96874  15.183   7.357  15.533  0.2430  0.3361  0.1185
53962W        W96875  12.490   0.342   0.751 -0.2104  0.1464  0.2036
53963W        W96876  13.520   2.391  23.063  0.0200 -0.1928 -0.1024
53964W        W96877  18.095  33.321  21.114 -0.1228  0.1143 -0.2606
53965W        W96878   9.419  17.725   0.962 -0.0147 -0.3830  0.0188
53966W        W96879   9.950  30.077  20.968 -0.0218 -0.0913  0.0137
53967W        W96880   8.883  10.009  16.448 -0.0748  0.3877 -0.0479
53968W        W96881   7.570   5.729  25.555  0.0568  0.0923 -0.0608
53969W        W96882  14.226   0.171  23.819  0.1408 -0.1921  0.3115
53970W        W96883   9.052  31.558  17.120 -0.0606 -0.2500  0.0821
53971W        W96884  21.107   3.111  17.275 -0.0929 -0.0187 -0.2279
53972W        W96885  12.416   2.583  25.054 -0.2234 -0.0754 -0.0625
53973W        W96886  14.490  23.730  29.241 -0.1403  0.0425 -0.0541
53974W        W96887  11.792   1.179  20.737 -0.1076  0.0737 -0.0812
53975W        W96888  25.511  33.089  18.644 -0.1973 -0.0113  0.2709
53976W        W96889  13.487   3.760  16.729  0.0549 -0.1714 -0.3041
53977W        W96890  22.207   3.485  16.143 -0.1138 -0.0279 -0.4428
53978W        W96891  15.540   7.968  18.494 -0.0301  0.1811 -0.1409
53979W        W96892   9.769  15.052  28.212 -0.0796  0.4502  0.2329
53980W        W96893  24.229   2.569  15.103  0.0735  0.0772  0.0436
53981W        W96894  10.794  17.684  21.932  0.2879  0.1842  0.2417
53982W        W96895  15.918   3.691  26.943  0.1275 -0.0733 -0.0760
53983W        W96896   5.573   9.426  19.851  0.1554 -0.0768 -0.2466
53984W        W96897   5.242   0.232  21.661 -0.1479  0.0251 -0.1702
53985W        W96898  12.948  12.376  20.870 -0.0641 -0.0713  0.2324
53986W        W96899  17.667  31.363  20.540  0.1084 -0.0627  0.0781
53987W        W96900  12.763   1.810  25.000 -0.0821 -0.0327 -0.1097
53988W        W96901  14.283  34.231  22.411 -0.2729 -0.2965  0.0755
53989W        W96902  20.644   7.950  17.486 -0.0310 -0.1569 -0.0329
53990W        W96903  11.839  27.228  25.208 -0.1335  0.0005  0.1427
53991W        W96904  10.518  12.175  16.470 -0.4035  0.1338  0.0275
53992W        W96905  14.341   6.260  24.787  0.3940 -0.0142  0.0617
53993W        W96906  14.537   7.515  28.901 -0.0646  0.0794  0.0779
53994W        W96907  18.340  32.140  18.544  0.3022 -0.0847  0.1387
53995W        W96908  10.422  34.199  19.258  0.0129 -0.2541 -0.0943
53996W        W96909  11.269  31.747  17.151 -0.0916  0.3419  0.0207
53997W        W96910   7.769   5.870  20.104  0.0633  0.2068 -0.1091
53998W        W96911  24.728   7.900   6.545 -0.0088  0.1420  0.0217
53999W        W96912  18.210   5.870  13.838  0.0193  0.2331  0.1236
54000W        W96913  16.252   3.933  15.765 -0.2348 -0.0973 -0.2106
54001W        W96914  10.738  15.458  22.328 -0.0222 -0.2833  0.0679
54002W        W96915  11.859   5.046  25.471  0.0036 -0.0804  0.2402
54003W        W96916  27.838  14.073  25.990  0.0016 -0.2882 -0.0146
54004W        W96917  17.706   0.711  21.342 -0.1158  0.1885 -0.0342
54005W        W96918  12.600   9.839  16.216  0.0181  0.0816 -0.1934
54006W        W96919  13.770  10.352  27.459 -0.1082  0.1626 -0.0049
54007W        W96920   9.582  14.437  28.186  0.0977  0.1042 -0.1467
54008W        W96921  23.083  13.104  24.410 -0.0218  0.1211  0.1241
54009W        W96922   6.150   6.966   1.401  0.0890 -0.0745 -0.4686
54010W        W96923  12.712  15.411  20.876 -0.0771 -0.1364 -0.3432
54011W        W96924  12.215  10.300  16.066 -0.3706 -0.1626 -0.1070
54012W        W96925  12.760   7.140  29.637  0.0383 -0.3502 -0.0698
54013W        W96926  13.327  14.185  22.304 -0.3339  0.2289 -0.0690
54014W        W96927  14.120   1.252  16.722 -0.1076 -0.0345  0.2700
54015W        W96928  13.283  15.305  17.466  0.1991 -0.1205 -0.1243
54016W        W96929   4.809  13.502  20.660 -0.0500  0.0790 -0.1846
54017W        W96930  10.307  10.412  22.445 -0.0157  0.0259 -0.2083
54018W        W96931  14.267  12.508  20.558 -0.0211 -0.0178 -0.1330
54019W        W96932  12.894   3.871  16.293 -0.1035  0.0882  0.0634
54020W        W96933  15.877  26.972  18.449 -0.0696 -0.0769  0.3043
54021W        W96934   9.030  19.446  14.299  0.2357  0.1050 -0.1791
54022W        W96935  16.305   4.199  23.228 -0.1798 -0.2005 -0.1528
54023W        W96936   3.452   6.305   0.494  0.3982 -0.0547  0.0031
54024W        W96937  13.715   2.725  19.167 -0.0066 -0.1482  0.0468
54025W        W96938   5.632   2.194  23.690  0.1026  0.0981 -0.1587
54026W        W96939   4.124   5.997  22.135 -0.0590 -0.1631  0.1646
54027W        W96940  11.876   3.773  22.515  0.1793  0.1400  0.2894
54028W        W96941  13.064  32.803  26.854  0.2152  0.1104 -0.2109
54029W        W96942  17.173  11.892  12.742  0.0221  0.3930  0.3145
54030W        W96943  15.612  32.921  19.064 -0.0689  0.1427 -0.0127
54031W        W96944   1.893   3.535  24.238  0.1727 -0.0377 -0.1332
54032W        W96945  11.484  18.116  17.951  0.0831 -0.0137  0.0024
54033W        W96946  15.746   6.740  23.467 -0.2134  0.0283  0.0783
54034W        W96947  14.623  31.036  22.320  0.3820  0.1129  0.0582
54035W        W96948   0.458  31.713  18.874  0.2037  0.2193 -0.0152
54036W        W96949  15.190  30.745  23.596  0.0587 -0.0984  0.2063
54037W        W96950  15.224   9.789  20.637 -0.1372  0.1479  0.2224
54038W        W96951  13.135   3.061  23.673 -0.2144  0.1238  0.0356
54039W        W96952  19.669   5.334  16.096 -0.0316 -0.0501 -0.1331
54040W        W96953  15.665   4.869  18.786  0.0219 -0.2494  0.3405
54041W        W96954  18.575  31.760  21.362 -0.1592 -0.0785  0.1418
54042W        W96955  20.698   5.139  19.421 -0.0691  0.1387 -0.0291
54043W        W96956  11.318   5.489  20.586  0.1066  0.0678  0.1680
54044W        W96957  12.220   6.084  19.551 -0.2264 -0.0224  0.1023
54045W        W96958  13.884  24.199   0.820 -0.0188 -0.0042  0.0539
54046W        W96959  14.601  11.583  16.314  0.0610 -0.0200 -0.0558
54047W        W96960  11.059  11.540  18.603 -0.0402  0.1399  0.1643
54048W        W96961  13.534  29.250  23.440 -0.0972  0.0676  0.1013
54049W        W96962  13.851   1.165  16.167  0.0071 -0.0698 -0.1045
54050W        W96963   5.424  33.676  21.843 -0.1508  0.1769 -0.1029
54051W        W96964  14.481   0.726  15.439 -0.0182  0.0662  0.1731
54052W        W96965  10.237   1.042  29.153 -0.1382 -0.2613  0.1240
54053W        W96966   4.488  29.605  17.748  0.1518  0.0086  0.0248
54054W        W96967  13.366   8.824  21.116 -0.3203 -0.0640 -0.1737
54055W        W96968  17.205  34.277  28.500 -0.0960  0.0493 -0.0126
54056W        W96969  17.242   8.126  18.947 -0.3204 -0.2024 -0.1657
54057W        W96970  13.116  15.015  26.318 -0.0477  0.0673  0.3536
54058W        W96971   2.164  32.408  16.090 -0.3253 -0.1198  0.0831
54059W        W96972   7.867  15.305  24.583  0.0007 -0.0514  0.1826
54060W        W96973  24.144   2.175  19.760 -0.0123  0.1781  0.0448
54061W        W96974  15.020  30.273  20.625 -0.0578 -0.2491  0.3152
54062W        W96975  21.925  33.707  23.633 -0.2326  0.1351 -0.3794
54063W        W96976  14.278  33.574  26.850 -0.1528 -0.0739 -0.1368
54064W        W96977  31.349   3.887  20.074  0.0644  0.2591 -0.0806
54065W        W96978   8.040  12.224  19.767  0.0783  0.2312  0.1118
54066W        W96979  21.987   5.012  17.837  0.1449  0.0310 -0.1375
54067W        W96980  17.616  33.893  15.518 -0.0128 -0.5328  0.1049
54068W        W96981   3.654   0.327  24.736 -0.1713  0.1427 -0.1403
54069W        W96982  15.329  16.148  14.178  0.2727 -0.0419  0.1045
54070W        W96983  16.559   5.943  14.363 -0.2448 -0.0542 -0.0343
54071W        W96984  20.015  32.247  26.677 -0.1519 -0.3166  0.1320
54072W        W96985  12.922   9.991  25.564  0.1703 -0.1096  0.1092
54073W        W96986  17.483   3.335  14.922 -0.0714 -0.1259  0.0044
54074W        W96987  22.440   3.418  27.180 -0.0623  0.0563 -0.1744
54075W        W96988  20.550   9.033  22.514 -0.1936 -0.0440  0.0903
54076W        W96989  10.539   7.856  17.711 -0.2723  0.1752  0.0314
54077W        W96990  22.627  10.148  20.113 -0.0998 -0.0657 -0.0574
54078W        W96991  25.242  10.311   5.017  0.4380 -0.4639 -0.3758
54079W        W96992  16.155  11.964  24.651  0.0886 -0.2545  0.0499
54080W        W96993  19.585   3.165  17.712  0.0648  0.2986  0.2447
54081W        W96994  19.000   1.770  19.459  0.0269  0.2405  0.0603
54082W        W96995  15.412   0.187  19.364 -0.0512 -0.0232  0.3361
54083W        W96996  11.664  28.389  21.459 -0.1171  0.3752  0.2001
54084W        W96997   2.998   7.616  16.689 -0.1906  0.0283  0.1856
54085W        W96998  27.653   0.054  17.803 -0.0132 -0.3855  0.0787
54086W        W96999  34.171   4.555  26.427  0.0897 -0.1996  0.2421
54087W        W97000  13.600   8.181  18.961  0.2783  0.0687  0.0948
54088W        W97001   7.688  32.386  23.995 -0.1164  0.0983  0.0643
54089W        W97002  12.734  32.214  23.828 -0.0034 -0.2950  0.0658
54090W        W97003   7.184   4.838  21.451 -0.3667 -0.1846  0.1238
54091W        W97004  16.426   4.252   5.383  0.0995 -0.1103 -0.0670
54092W        W97005  25.005   8.889  21.381 -0.1971  0.0017 -0.0248
54093W        W97006  24.449   8.746  24.618  0.1177  0.3118 -0.1082
54094W        W97007  24.239   8.228  16.621  0.1569 -0.0295  0.0177
54095W        W97008   1.234  12.229  20.536 -0.0704 -0.0721  0.0256
54096W        W97009   4.540   8.539  17.806 -0.0867 -0.0684  0.3008
54097W        W97010  19.437   7.606  16.461 -0.1184 -0.1582 -0.0136
54098W        W97011   6.634   7.545  18.438 -0.1557 -0.1431  0.2179
54099W        W97012   3.310  32.623  15.227 -0.0985 -0.4546 -0.0442
54100W        W97013  15.971  14.878  16.350  0.0236  0.4771  0.4083
54101W        W97014   9.625   0.018  20.325 -0.2402 -0.0112  0.2492
54102W        W97015   9.110   8.071  20.902 -0.0545 -0.3514 -0.0770
54103W        W97016   9.518  10.603  17.303  0.2051  0.2069 -0.1682
54104W        W97017   0.072  32.990  24.471 -0.2785 -0.0532 -0.0596
54105W        W97018  22.391   3.108  22.468  0.0130 -0.1039  0.3453
54106W        W97019   2.735  29.856  23.410  0.1632  0.1456 -0.0514
54107W        W97020   4.473  30.944  16.698 -0.0747  0.1420  0.2871
54108W        W97021   2.161  11.407  19.107 -0.0195 -0.0536  0.1770
54109W        W97022  20.406   7.387  22.100 -0.0826  0.0318 -0.1006
54110W        W97023  19.296  28.618  19.688  0.1439  0.0128  0.1630
54111W        W97024  17.751  25.380  29.728  0.4716  0.2189  0.0051
54112W        W97025  14.117   0.747  24.035 -0.2030 -0.0552 -0.0220
54113W        W97026   3.787   1.088  24.714 -0.3051 -0.2714  0.0299
54114W        W97027  19.568   0.968  18.162 -0.2972  0.0868 -0.1129
54115W        W97028  11.054   1.678  21.760  0.0393  0.0421  0.0476
54116W        W97029  14.159  24.312  21.439 -0.0981 -0.1619  0.0257
54117W        W97030  24.069  32.233  20.796  0.0552  0.1405  0.0299
54118W        W97031  10.429   9.353  16.716  0.1838  0.1248  0.0591
54119W        W97032   9.273   7.368  17.281  0.1112  0.1549  0.0873
54120W        W97033  25.748   7.520  22.984  0.0183  0.0908  0.2111
54121W        W97034   9.995  32.410  19.681 -0.3273  0.1293  0.0168
54122W        W97035  10.984   2.830  21.088 -0.0650  0.1847  0.1581
54123W        W97036   6.970  13.931  21.499 -0.0198  0.4090 -0.0733
54124W        W97037  11.540  11.232  16.627  0.0435  0.0324  0.1845
54125W        W97038  11.060   7.103  18.708  0.0630 -0.1898  0.0121
54126W        W97039  10.685   7.082  24.385 -0.2514  0.2381  0.1464
54127W        W97040  24.282  13.298  17.950 -0.0165 -0.2577 -0.0868
54128W        W97041  12.027   7.820  29.531 -0.0570  0.3522 -0.1652
54129W        W97042  17.041  10.623  26.332  0.1709  0.1531 -0.0405
54130W        W97043  10.209  10.094  20.718  0.2519  0.1145 -0.1823
54131W        W97044   7.679   9.472  16.497 -0.1221 -0.1092 -0.1119
54132W        W97045  15.821   6.611  17.267 -0.2972  0.0490 -0.2027
54133W        W97046   6.275  14.983  13.663 -0.0737  0.2681 -0.2484
54134W        W97047   2.193  21.084  28.908 -0.1019 -0.0964  0.2571
54135W        W97048  13.024  33.418  21.848 -0.0950 -0.2233  0.2236
54136W        W97049  10.592  14.925  14.737  0.0277  0.0098  0.0068
54137W        W97050  16.030  32.559  24.955  0.0779 -0.0130  0.3415
54138W        W97051  12.227   8.748  28.213  0.1035 -0.0711  0.0310
54139W        W97052  15.232   3.981  26.932  0.1164  0.0582 -0.0540
54140W        W97053  19.743  12.385  13.610  0.2082 -0.3582  0.0086
54141W        W97054  25.800  14.526  18.649  0.2142  0.0786 -0.0783
54142W        W97055   3.042  31.462   1.702 -0.1658  0.0949 -0.0032
54143W        W97056  23.501   3.111   2.963 -0.0968 -0.1512  0.0005
54144W        W97057  22.974  31.937  21.869  0.0544 -0.3360  0.3508
54145W        W97058  13.516  10.024  23.652 -0.0392  0.0086 -0.0437
54146W        W97059  32.534   4.247   1.658 -0.0800  0.2605 -0.1607
54147W        W97060  11.265  16.302  16.632 -0.0400  0.2262 -0.0865
54148W        W97061   4.424  12.377  22.001 -0.0506 -0.1778 -0.1034
54149W        W97062  10.413  13.608  27.668 -0.1010  0.0295 -0.1580
54150W        W97063   9.861  34.199  23.797 -0.3351 -0.0290  0.0548
54151W        W97064  34.013   8.361  24.179 -0.0321 -0.1348  0.0474
54152W        W97065   6.276   5.629  18.422  0.0281 -0.3973 -0.0779
54153W        W97066   4.520  32.699  16.490 -0.2144  0.2691 -0.0564
54154W        W97067   6.914  31.386  23.526  0.0085 -0.1847 -0.2345
54155W        W97068  13.851  28.116   2.820 -0.4701 -0.0342  0.1213
54156W        W97069  11.237   3.616  17.805  0.0152 -0.2658  0.1494
54157W        W97070  11.143   7.478  20.180  0.1409 -0.0112 -0.1185
54158W        W97071  19.394   3.387  22.673 -0.0652  0.0408  0.0965
54159W        W97072   9.603  27.914  20.209  0.0789 -0.2593  0.2130
54160W        W97073   5.735  11.906  18.579 -0.0132  0.0518  0.2678
54161W        W97074   4.300  12.728  21.689  0.1298  0.2807  0.2116
54162W        W97075  11.321   0.634  25.210  0.0218 -0.2480  0.2200
54163W        W97076   0.018   3.584  20.291  0.3014  0.0049 -0.2749
54164W        W97077  17.113  11.634  14.963 -0.1868 -0.2221  0.1408
54165W        W97078   8.540  10.531  22.601 -0.1363  0.1614  0.4181
54166W        W97079  12.254  30.530  25.364 -0.2550 -0.0326 -0.0963
54167W        W97080  17.768  34.449  27.079 -0.0527  0.0491 -0.0390
54168W        W97081  17.727   4.274  26.030 -0.0846 -0.0777 -0.0466
54169W        W97082   6.081  33.565  27.723 -0.0944 -0.0645  0.1636
54170W        W97083  10.646  31.455  27.063  0.0077 -0.1457  0.0496
54171W        W97084  28.504  33.983  20.764  0.2301  0.2784  0.2227
54172W        W97085  14.635   5.759  14.590  0.1614 -0.0964 -0.2649
54173W        W97086  20.021   7.323   5.640  0.2389 -0.1201 -0.2157
54174W        W97087  18.936  12.115  27.245  0.3413  0.0003 -0.0430
54175W        W97088   6.917  27.220   0.173  0.1205 -0.0052  0.1515
54176W        W97089  13.523  13.903  21.488 -0.0343  0.3356  0.3525
54177W        W97090   2.214  29.160  20.845 -0.0701  0.0048 -0.0841
54178W        W97091  20.175   5.862   9.706  0.2259  0.0132 -0.1802
54179W        W97092   7.719   5.479   3.478  0.0340 -0.0099  0.4230
54180W        W97093   9.968  15.529  21.280 -0.0710  0.2560 -0.1555
54181W        W97094  33.826   9.859   1.778  0.3144 -0.1830 -0.0587
54182W        W97095  31.316   5.202  27.465  0.2704 -0.1002  0.1584
54183W        W97096   3.002   0.035  24.267 -0.1335  0.2210 -0.0508
54184W        W97097  21.246  11.464  14.679 -0.0549  0.1835 -0.2383
54185W        W97098  18.152   6.682   1.731 -0.2367 -0.1167  0.1678
54186W        W97099   9.164  10.890  27.508 -0.0878  0.2943 -0.0174
54187W        W97100   9.346   8.821  25.381  0.2362 -0.0060 -0.3802
54188W        W97101  12.784  30.332  27.687  0.0025  0.0974  0.1922
54189W        W97102  12.711  30.747  29.406  0.3064 -0.1666  0.0101
54190W        W97103  14.920   2.487  26.619  0.0208 -0.1950 -0.2335
54191W        W97104   7.850   3.061  25.398  0.0453  0.3923  0.1851
54192W        W97105   9.317  29.970  24.262 -0.1091 -0.2236  0.0129
54193W        W97106   3.994  29.038   0.234 -0.2999 -0.0093 -0.1805
54194W        W97107   4.143   3.522  26.080 -0.1277  0.1302  0.2033
54195W        W97108   9.774   4.012  16.812 -0.0408  0.0868 -0.0639
54196W        W97109   9.782  14.713  21.741  0.0724 -0.0928 -0.2037
54197W        W97110   5.436  30.130  19.053  0.1758 -0.1366  0.1492
54198W        W97111   7.127  10.188  18.207 -0.0858 -0.3157 -0.2831
54199W        W97112  21.390  29.915  23.418  0.0337  0.1842 -0.1332
54200W        W97113  16.300   7.662  16.855  0.0213  0.3720 -0.0494
54201W        W97114   7.552   0.142  28.976 -0.0940 -0.1517 -0.4708
54202W        W97115  13.500   5.433  23.057  0.0240 -0.2995  0.2021
54203W        W97116  22.756   9.533  21.919 -0.1360 -0.1144 -0.0472
54204W        W97117   3.292   7.491  20.296 -0.0317  0.2088  0.1478
54205W        W97118  18.356  30.763   3.710 -0.5323  0.0037 -0.0429
54206W        W97119  12.165  34.429  27.448 -0.1411  0.0501  0.2747
54207W        W97120  24.132  31.591  16.803  0.3633  0.1226 -0.2034
54208W        W97121  13.289   8.436  14.413  0.0475 -0.3239  0.1070
54209W        W97122  14.615   4.603  26.970 -0.0274  0.0542  0.3053
54210W        W97123   4.356   1.609  22.873  0.0616 -0.0428 -0.1957
54211W        W97124  19.632   4.766  29.179 -0.3982 -0.0434 -0.2842
54212W        W97125  13.591  11.785  28.400  0.0371  0.0588  0.0586
54213W        W97126   7.811   6.542  27.277 -0.0355  0.0636  0.1003
54214W        W97127  12.830   7.919  16.522 -0.4773  0.0597  0.1836
54215W        W97128  13.512   4.380  21.964  0.1935  0.0518  0.1839
54216W        W97129   9.954  13.907  27.942  0.0218  0.0617  0.0924
54217W        W97130  10.890   3.198   5.512  0.1279  0.2085 -0.3212
54218W        W97131  16.458   3.788  21.458 -0.2472 -0.1512 -0.2516
54219W        W97132   8.777  31.998  29.701  0.1013  0.1691  0.0712
54220W        W97133  11.095   2.392  28.885 -0.0892 -0.1518  0.1798
54221W        W97134  10.115  29.288  17.399 -0.2456 -0.0907  0.0463
54222W        W97135  10.461  25.795  23.402  0.1492 -0.1247  0.0152
54223W        W97136  19.350   7.090  21.102  0.2039 -0.0612  0.3828
54224W        W97137  14.673  33.413  22.126 -0.2764 -0.0340  0.2882
54225W        W97138  21.007  30.583  16.395  0.3119  0.1250  0.0516
54226W        W97139  12.230  10.927  17.313 -0.0651  0.0466 -0.2526
54227W        W97140  10.297   0.733  18.839  0.3093  0.0700  0.2739
54228W        W97141  19.071  32.751  16.373 -0.1361  0.1524 -0.1145
54229W        W97142  14.003   9.162  20.488 -0.4040 -0.1454 -0.3112
54230W        W97143   9.670  33.103   1.279  0.3464 -0.2262  0.0401
54231W        W97144  21.828   3.734  21.851  0.0851 -0.0707  0.1316
54232W        W97145   9.002  34.147  21.976  0.0315  0.0039  0.3355
54233W        W97146   5.050   0.995  20.281  0.3829 -0.2491  0.0943
54234W        W97147   8.407  11.524  17.740 -0.1244 -0.2749 -0.1656
54235W        W97148  11.080  12.722  15.977  0.0579 -0.0753 -0.1717
54236W        W97149  23.462  10.810   1.574  0.0285 -0.0427 -0.0717
54237W        W97150   5.520   6.760   5.749  0.0859 -0.1769 -0.2386
54238W        W97151  10.578  27.845  25.925  0.0627  0.1130  0.1135
54239W        W97152   7.765   6.104  19.671 -0.2021 -0.1296 -0.3401
54240W        W97153  17.741   7.097  16.593 -0.1773  0.1394 -0.3564
54241W        W97154   8.363   7.965  19.349 -0.3039 -0.1104  0.1352
54242W        W97155   9.092   6.151  22.680 -0.2377  0.2260 -0.2018
54243W        W97156   5.063  29.625  22.782  0.0142  0.0006 -0.1275
54244W        W97157  13.509  10.209  15.504  0.0479  0.1245 -0.1013
54245W        W97158  12.423   5.231   0.378 -0.0329 -0.2410  0.1308
54246W        W97159  26.963   7.211   8.637  0.3377 -0.0701 -0.2053
54247W        W97160  10.549  33.551  23.977  0.0277  0.1831  0.2457
54248W        W97161  11.279   5.605  21.666 -0.0367 -0.0148  0.1377
54249W        W97162  30.139   3.301   8.613 -0.3285  0.0022  0.1487
54250W        W97163  12.959   6.511   5.656  0.1148 -0.0225 -0.2373
54251W        W97164  24.558   3.851  20.309 -0.0503  0.5023  0.0927
54252W        W97165  12.138   9.901  17.091 -0.0871 -0.2608  0.1072
54253W        W97166  13.710  29.240  20.998 -0.2880 -0.1981 -0.2803
54254W        W97167  13.249  33.247   1.154  0.0941  0.2931  0.0856
54255W        W97168  19.635  11.083  22.183 -0.2673  0.0693  0.0992
54256W        W97169  30.863   5.674  28.335  0.0040  0.3043  0.2823
54257W        W97170   5.193  14.569  20.838 -0.2595 -0.2452 -0.2162
54258W        W97171  15.070  34.131  16.948  0.2679  0.0302 -0.1987
54259W        W97172  13.275   0.786   1.013 -0.1870  0.1590 -0.2574
54260W        W97173   8.764  33.162  24.500 -0.2009 -0.0190  0.2062
54261W        W97174  16.288  18.892  14.264 -0.1217 -0.2040 -0.0629
54262W        W97175  16.641  10.041  15.953 -0.0380  0.0791  0.3272
54263W        W97176  31.839   2.454   1.531 -0.1012  0.1477 -0.3892
54264W        W97177   8.899   4.852  19.825  0.0270  0.1739  0.0922
54265W        W97178   9.781  16.866  20.828  0.2673  0.0276  0.0416
54266W        W97179  17.329  11.184  29.723 -0.0366 -0.2538  0.0006
54267W        W97180   7.650   7.329  19.897 -0.3822  0.1430  0.0896
54268W        W97181  13.712   6.056  17.054 -0.3300 -0.1175  0.0494
54269W        W97182  11.750   1.857  28.220  0.0642 -0.2448  0.1120
54270W        W97183   2.206  33.451  18.739  0.0875  0.1228 -0.2152
54271W        W97184  17.721   7.292   3.269 -0.0647  0.2439  0.0219
54272W        W97185  12.478   4.200  18.117  0.0199 -0.0795 -0.2589
54273W        W97186   4.729  12.067  18.566  0.2413  0.3610 -0.1955
54274W        W97187   4.474   7.400  26.156  0.1709  0.1792 -0.0319
54275W        W97188  13.801   8.271  25.151  0.1123  0.1149  0.1341
54276W        W97189  16.924   6.482  14.907 -0.0768 -0.0798 -0.1561
54277W        W97190   9.291   5.098  27.865  0.0874 -0.0131 -0.1848
54278W        W97191  12.254   0.354  27.114  0.2362  0.1954  0.1648
54279W        W97192   8.772   0.021  24.715 -0.1280  0.0812 -0.1795
54280W        W97193  15.582  33.018  24.224  0.0103 -0.0771 -0.3807
54281W        W97194  18.367   5.302  19.721 -0.0532  0.1075 -0.0605
54282W        W97195   6.551  31.277  19.902 -0.2239 -0.0907 -0.2372
54283W        W97196  11.146   5.260  18.287 -0.1231  0.1260 -0.0059
54284W        W97197  22.103   5.894  19.143 -0.0268 -0.0997 -0.2089
54285W        W97198  13.849  10.212  20.676 -0.0955 -0.2730  0.3018
54286W        W97199  11.617  13.866  16.477  0.1755 -0.0685 -0.0915
54287W        W97200  15.651   6.626  22.020 -0.2708  0.1468  0.0231
54288W        W97201   2.354  32.383  24.708  0.0144 -0.0902 -0.0604
54289W        W97202   5.047  25.992  18.349  0.0185 -0.2908 -0.0547
54290W        W97203  18.281  10.258   3.159 -0.0969 -0.3080 -0.0693
54291W        W97204  11.517  20.086  27.294 -0.1877  0.2184 -0.1145
54292W        W97205   5.336  31.654  20.573  0.1353 -0.2995 -0.1932
54293W        W97206  19.331   1.646   2.309  0.1965 -0.1162  0.0494
54294W        W97207   7.617  30.676  22.005  0.2261  0.1141  0.0757
54295W        W97208  11.766  25.154  14.762  0.1775 -0.2810 -0.2158
54296W        W97209  15.417  12.004  27.671 -0.2270  0.0852 -0.2422
54297W        W97210  18.183   2.634  24.319  0.0431  0.1143  0.0553
54298W        W97211  12.598   7.349   6.948 -0.1159  0.1495 -0.0269
54299W        W97212  11.943  33.157  21.437  0.0159  0.0916  0.1160
54300W        W97213  18.104  12.569  19.257  0.0622  0.1387 -0.1119
54301W        W97214   6.591  33.497  20.070  0.0282 -0.4945 -0.0201
54302W        W97215  11.962  13.404  26.143  0.1298  0.2760  0.0988
54303W        W97216   6.830   5.092  17.764 -0.1574  0.0671  0.0608
54304W        W97217  10.549  30.858  25.573  0.0725 -0.2493  0.0847
54305W        W97218   6.886  24.136   0.127 -0.0785 -0.0706  0.0557
54306W        W97219   6.658   9.586   0.978 -0.0142 -0.1361  0.1012
54307W        W97220  12.311   8.578  29.086 -0.1426 -0.0026  0.1951
54308W        W97221  28.093  12.953  27.116 -0.0025 -0.1171  0.2421
54309W        W97222  11.637  26.561  26.669  0.0900  0.0115  0.2585
54310W        W97223  15.232   6.447  10.920  0.2670 -0.0632 -0.0710
54311W        W97224   1.998  22.534  14.971  0.2128 -0.0408 -0.1719
54312W        W97225   9.679   2.892  18.157 -0.0663 -0.2558  0.1782
54313W        W97226  17.832   4.742  17.860  0.2717  0.0870 -0.0197
54314W        W97227  15.424  16.609  26.873 -0.5187 -0.0442  0.0650
54315W        W97228  18.509   7.170  20.919  0.1055 -0.2602 -0.2128
54316W        W97229  10.343  16.246  14.842  0.0138 -0.2259 -0.1042
54317W        W97230  14.036  11.639  25.842 -0.0312  0.1521  0.5061
54318W        W97231  19.698  12.278  13.042  0.2329  0.2610 -0.0196
54319W        W97232  12.995  12.421  17.447  0.1564 -0.3801  0.1275
54320W        W97233   8.273   4.868   6.260  0.1464  0.0984 -0.0733
54321W        W97234   8.041  27.913  16.481 -0.0039 -0.0592 -0.0648
54322W        W97235   6.266   0.569  23.221 -0.2668 -0.3490 -0.0535
54323W        W97236  16.958  13.630  22.088 -0.0788 -0.1384 -0.0674
54324W        W97237  21.153   6.793   0.103 -0.0151  0.1210  0.0499
54325W        W97238   8.717  32.276  26.406  0.0156  0.4831 -0.5971
54326W        W97239  10.370  31.490  22.221  0.0473  0.0398  0.0101
54327W        W97240  11.928  10.338  17.222  0.1047 -0.3621 -0.1238
54328W        W97241  11.950   0.752  26.421  0.1248  0.1039 -0.1100
54329W        W97242  16.730  31.851  23.521  0.4903 -0.0851  0.2189
54330W        W97243  14.439   5.421  28.450 -0.2245 -0.3758 -0.2904
54331W        W97244  22.369   0.226  18.621 -0.0730  0.2055  0.1391
54332W        W97245  25.686   3.383  23.876  0.1113 -0.0365 -0.0838
54333W        W97246   6.396  32.072  26.455 -0.1044  0.0014  0.2959
54334W        W97247  14.546   2.963  24.960 -0.0664  0.0148  0.1143
54335W        W97248  19.247  27.547  24.346 -0.0061 -0.2356  0.1343
54336W        W97249  10.075   8.522  16.802  0.0213 -0.1470  0.0670
54337W        W97250  13.898  23.283  23.453  0.0447 -0.1952  0.1914
54338W        W97251  12.528   8.680  24.656 -0.4083  0.0460 -0.0197
54339W        W97252   5.347  19.408  14.588 -0.1281  0.1999  0.2222
54340W        W97253  11.824   6.043  19.899 -0.1109  0.2590  0.0004
54341W        W97254  13.500   9.503  16.997 -0.1223 -0.0509 -0.2124
54342W        W97255  14.990   0.612  21.468 -0.0550 -0.1549  0.1726
54343W        W97256  12.373  32.653  26.165 -0.4749  0.1700  0.0095
54344W        W97257   5.890   6.794  18.879 -0.3417  0.0537  0.1044
54345W        W97258  17.512  32.909  16.584  0.1013  0.0634  0.3516
54346W        W97259  18.150  23.079  17.625 -0.3740  0.1809  0.0962
54347W        W97260   9.106  31.710  26.083  0.0240  0.0776 -0.0204
54348W        W97261  16.980  12.062  28.855  0.0131  0.0895 -0.0451
54349W        W97262   2.081  24.260  24.068  0.1836  0.0148  0.0087
54350W        W97263   6.110   3.396  24.784 -0.1472  0.0109  0.1012
54351W        W97264  17.459   0.442  24.224 -0.2450  0.1853 -0.3467
54352W        W97265  22.007   5.130  28.319  0.2708 -0.0159  0.2092
54353W        W97266  20.327  34.469  25.474  0.0246  0.1072 -0.0664
54354W        W97267  15.234   5.239   2.226 -0.1992 -0.0713 -0.0273
54355W        W97268   9.518  25.637  19.712 -0.0665  0.0440 -0.1123
54356W        W97269  17.916  34.018  20.413  0.2909 -0.1618  0.3049
54357W        W97270  23.067   3.297  15.389 -0.0331  0.2026  0.0357
54358W        W97271   3.219  10.900   2.003  0.1287  0.0618 -0.2098
54359W        W97272  13.982   7.013  21.647 -0.1956  0.0598  0.4361
54360W        W97273   8.724   4.707  20.340 -0.0505 -0.1999  0.3265
54361W        W97274   4.668   5.214  21.568  0.1137  0.1278 -0.0232
54362W        W97275  11.598   5.895   1.069  0.1085 -0.1697  0.0462
54363W        W97276  11.752  30.421   2.864 -0.2083 -0.1245 -0.4544
54364W        W97277  10.071  10.331   2.167 -0.0376  0.0477 -0.1614
54365W        W97278   9.135  31.091   8.016  0.1642 -0.1314 -0.0856
54366W        W97279  17.767  27.854   4.183  0.2697 -0.0657 -0.2224
54367W        W97280   9.728  33.376  27.242 -0.1349  0.0821 -0.1432
54368W        W97281  15.758  11.858  26.496 -0.3520 -0.0135  0.1736
54369W        W97282   6.292  30.279  19.042  0.3519  0.2317 -0.0501
54370W        W97283  11.386  10.674  24.141  0.0797  0.0040  0.2064
54371W        W97284   6.664  29.672  25.718 -0.2187  0.3614 -0.1846
54372W        W97285  11.425  33.214  17.509 -0.2067 -0.0581  0.1588
54373W        W97286  23.569  30.236   1.906 -0.1040 -0.1655  0.0865
54374W        W97287  11.865  11.539  20.702 -0.0663  0.0805  0.0499
54375W        W97288  24.327  13.522  16.220  0.2030  0.0603 -0.2892
54376W        W97289  16.170  26.657  24.611  0.0541 -0.2964  0.1286
54377W        W97290  18.179   3.450  18.390  0.2502 -0.0758 -0.0031
54378W        W97291   5.316  33.805  20.797 -0.1511  0.0393 -0.0705
54379W        W97292  17.819   2.797  24.979 -0.0572 -0.3255  0.2370
54380W        W97293   0.257  25.584  25.243 -0.0723  0.0209 -0.0919
54381W        W97294  10.379   0.793   3.936  0.1882  0.0919  0.1715
54382W        W97295   8.490   5.039  25.702 -0.0337 -0.2749 -0.4812
54383W        W97296  26.077  22.472   0.294 -0.0888 -0.2865 -0.1380
54384W        W97297   9.056   6.268  24.546 -0.0592 -0.2340  0.2124
54385W        W97298  10.055   1.941  26.545  0.1554  0.0543  0.0492
54386W        W97299  10.749   7.681  17.069 -0.5041 -0.0474 -0.1259
54387W        W97300  14.396  16.448  25.456  0.2455 -0.1525  0.3222
54388W        W97301  21.502   0.536  28.345  0.0803 -0.3740 -0.1578
54389W        W97302  22.381   6.381  21.648  0.1691  0.4100  0.1455
54390W        W97303  12.527   8.108  17.562 -0.0275  0.4368  0.2340
54391W        W97304  15.015  14.922   7.838 -0.0760  0.1678  0.1914
54392W        W97305  33.030  32.178   5.312 -0.0507 -0.1838 -0.0720
54393W        W97306  10.636   5.217   0.306 -0.0491  0.1831 -0.0767
54394W        W97307  13.978   8.255   7.243 -0.1617  0.3054 -0.1942
54395W        W97308   8.349   7.821   0.540  0.1792 -0.1831 -0.1695
54396W        W97309  18.442  13.915  21.744 -0.1384 -0.3542 -0.0057
54397W        W97310  14.591   8.896  27.971 -0.3546  0.2143 -0.2227
54398W        W97311  11.327   7.556  19.111 -0.3349  0.0374  0.0789
54399W        W97312  18.176   2.055  28.557  0.2233 -0.0429 -0.2268
54400W        W97313  15.848   7.465  25.206 -0.0515  0.0702  0.2190
54401W        W97314  19.470  27.877  25.166  0.1699 -0.0907 -0.2332
54402W        W97315  21.305  33.286   8.076 -0.1020  0.1458 -0.1113
54403W        W97316  10.267   3.568  28.131 -0.1131  0.0839  0.0277
54404W        W97317  19.471   4.552  15.939 -0.3059  0.0280  0.5424
54405W        W97318  11.889  26.625  25.292  0.0022  0.1500 -0.0052
54406W        W97319  10.644   6.270  22.471  0.0122  0.2073 -0.2632
54407W        W97320  17.049   3.990  16.898 -0.2720  0.3024  0.0874
54408W        W97321   1.275  17.755  23.187 -0.0263 -0.3575 -0.0888
54409W        W97322  14.929   0.853  29.366  0.0148 -0.0819  0.0031
54410W        W97323  12.661   5.204   4.203 -0.1885 -0.1867 -0.2112
54411W        W97324   2.051   9.998  22.427 -0.0354 -0.3009  0.1137
54412W        W97325  21.177   7.854  22.186  0.3797  0.1315 -0.2216
54413W        W97326  21.920  17.775  15.277 -0.1713  0.0143  0.0550
54414W        W97327  13.998   9.049   4.254  0.0916  0.3588 -0.0976
54415W        W97328  15.699  30.838  19.318 -0.1359  0.2263  0.1781
54416W        W97329  16.501  10.547  16.133 -0.0949 -0.0248  0.2890
54417W        W97330  12.496  31.459  22.112  0.0809 -0.0523  0.3132
54418W        W97331   7.583  33.905  24.539  0.1684  0.0460  0.2569
54419W        W97332  14.503   9.729  20.213  0.1746 -0.0989  0.0921
54420W        W97333  16.761   1.719  20.644 -0.1118  0.2213  0.0107
54421W        W97334  10.328  31.479  23.460  0.0886 -0.0072 -0.3380
54422W        W97335  13.573   6.724   4.742 -0.0582 -0.1067  0.0487
54423W        W97336  17.358   5.157  23.043  0.0854 -0.1116 -0.0681
54424W        W97337   5.287  26.201  27.316  0.0921 -0.3562  0.3354
54425W        W97338   6.202  31.098  23.501 -0.3509  0.2288  0.2885
54426W        W97339  28.965   4.526  21.395 -0.3099 -0.3849 -0.0434
54427W        W97340   2.891   3.222   6.273 -0.2394 -0.1015 -0.1897
54428W        W97341  16.966   6.751  28.304 -0.0715  0.3319 -0.4874
54429W        W97342   7.800  34.289  17.339  0.0319 -0.0339  0.0306
54430W        W97343  13.630  34.098  24.751  0.2017 -0.2814 -0.1957
54431W        W97344   1.191   1.779  23.394 -0.0745 -0.3216  0.0441
54432W        W97345   7.415  23.192  25.710  0.1916 -0.0097 -0.0993
54433W        W97346  10.061  13.466  17.631 -0.0857 -0.0277 -0.0420
54434W        W97347   3.218   4.447   3.416  0.1277 -0.0262 -0.0891
54435W        W97348   9.271   8.229  20.166 -0.0226 -0.3362 -0.2907
54436W        W97349   8.153   0.165  23.106  0.3148  0.0981  0.0864
54437W        W97350  20.668   6.984   5.145  0.1995  0.0298 -0.1131
54438W        W97351  22.341  20.878  13.947  0.0629 -0.3029  0.0309
54439W        W97352  21.219  32.670  20.610 -0.4001  0.1495  0.0446
54440W        W97353   1.507  31.241   0.457  0.2847 -0.1549  0.0810
54441W        W97354  16.151   4.026   3.005 -0.0174  0.4361  0.1254
54442W        W97355   7.468  11.041  18.509  0.1399 -0.0506  0.0502
54443W        W97356   3.633   4.382  26.316  0.4659  0.1843  0.0665
54444W        W97357   8.996  13.881  16.863  0.3051 -0.3141 -0.1383
54445W        W97358  15.543   0.928  18.572 -0.2113  0.1577  0.0111
54446W        W97359   1.862  26.425  27.307  0.5498 -0.1590  0.0650
54447W        W97360  10.274  32.954  27.799  0.0205 -0.2201  0.0922
54448W        W97361  11.750   6.960  18.398  0.2764 -0.0190  0.1108
54449W        W97362  22.229   7.365  29.155 -0.4606 -0.0064  0.1637
54450W        W97363   2.410  30.031  22.493  0.2543  0.0521  0.2517
54451W        W97364  14.647   3.065  22.432  0.2136 -0.2023  0.0489
54452W        W97365  13.507   9.466  24.514 -0.2320 -0.1799  0.3006
54453W        W97366   9.987   8.902  22.236  0.0379  0.0253  0.1408
54454W        W97367   7.393  18.692  20.144 -0.1355 -0.0167  0.1169
54455W        W97368  11.224   1.914   2.344  0.2857  0.0944 -0.1280
54456W        W97369  23.044   5.251  15.108  0.1476 -0.0803 -0.0548
54457W        W97370  16.781  32.507  16.544 -0.0323 -0.0659  0.1982
54458W        W97371   8.169   9.957  28.598 -0.0408  0.1942 -0.0057
54459W        W97372   8.055  16.283  23.346  0.0588 -0.0636 -0.0915
54460W        W97373  18.559  11.183  12.933 -0.2009  0.1570  0.0904
54461W        W97374  26.285   6.726  17.677  0.1622  0.2851 -0.1989
54462W        W97375  14.328   0.702  29.571 -0.0076 -0.2353 -0.2058
54463W        W97376  17.961   0.063  23.416  0.1461  0.1326  0.1489
54464W        W97377  13.194   5.108  17.524  0.2642 -0.0004 -0.1063
54465W        W97378  14.433  32.937  23.119  0.2818 -0.1781 -0.1828
54466W        W97379  12.368  33.575  18.531  0.1577 -0.1046 -0.4643
54467W        W97380  18.198   5.750   1.793  0.1658  0.1354 -0.3156
54468W        W97381  13.284   1.359  18.515 -0.2134  0.0075  0.0857
54469W        W97382   8.545  31.783  20.806 -0.0193 -0.1235  0.0703
54470W        W97383  14.893   0.799  26.925 -0.1919 -0.4212  0.1120
54471W        W97384  17.899   2.869   4.537  0.6546 -0.2550  0.1133
54472W        W97385   8.965  31.154  27.622 -0.0263  0.0265  0.1469
54473W        W97386  19.892   4.855  16.060  0.0116 -0.1626  0.1825
54474W        W97387  13.817  32.035  20.639  0.0814 -0.0710 -0.1837
54475W        W97388   6.575  24.093  24.941  0.0265  0.0657  0.2194
54476W        W97389  15.199  10.508  23.186 -0.2551 -0.4673 -0.1307
54477W        W97390  11.499   3.153  21.757  0.0855  0.1211 -0.0556
54478W        W97391   2.149   8.271  20.864  0.2451 -0.2393  0.1108
54479W        W97392  12.894   7.647   3.570  0.0929 -0.1020 -0.0517
54480W        W97393  14.429  31.349  15.418  0.1832  0.3136 -0.2103
54481W        W97394   6.660   1.898  23.438 -0.0238  0.0631 -0.3381
54482W        W97395  19.035   4.416  22.926 -0.0407 -0.0796  0.2518
54483W        W97396   4.509  33.753   1.400  0.0686 -0.1404 -0.0040
54484W        W97397  17.197   8.697  25.220 -0.0253 -0.2044 -0.2660
54485W        W97398  14.366   5.647   3.376 -0.2471  0.0567 -0.3761
54486W        W97399  10.943   5.187  22.489  0.1639 -0.2229  0.0238
54487W        W97400  10.113   1.638  28.324 -0.2782 -0.0933 -0.2249
54488W        W97401  12.537   6.817   4.827  0.2986  0.1643 -0.0091
54489W        W97402  25.121  15.428  27.162  0.1918 -0.0078 -0.0597
54490W        W97403  12.988   8.846  15.496 -0.2695 -0.1682  0.0650
54491W        W97404  20.690   5.990  18.571 -0.0238  0.0852 -0.2907
54492W        W97405   9.839  27.621  21.275  0.2091 -0.1015  0.0404
54493W        W97406  32.596  22.237  24.537  0.2350  0.0822  0.0837
54494W        W97407  17.467   9.393  18.091  0.2418 -0.1835  0.0475
54495W        W97408  12.530   2.908  28.262 -0.3518  0.0259 -0.3793
54496W        W97409   4.097  29.692  27.883  0.0936  0.1575 -0.0593
54497W        W97410  10.108   1.171  24.145  0.0282 -0.2018 -0.1031
54498W        W97411   7.323   1.738  17.863  0.0011  0.0159  0.0671
54499W        W97412   4.843  11.260  22.980 -0.1678 -0.0642 -0.2245
54500W        W97413   4.600   2.869   9.025  0.0001  0.2149  0.0225
54501W        W97414  10.650   8.087  23.389  0.2464  0.2705  0.1306
54502W        W97415  16.570   7.127  22.770 -0.2265  0.0905  0.1857
54503W        W97416   4.910  14.923  14.444 -0.0601 -0.0747  0.1045
54504W        W97417  29.674  14.518  21.857 -0.3664 -0.1755  0.0748
54505W        W97418   3.660  25.475   1.738  0.3376 -0.2583  0.2341
54506W        W97419   0.832  13.414   0.897  0.1300  0.1004  0.2024
54507W        W97420  15.131   2.319  23.738 -0.3396  0.1478  0.2119
54508W        W97421  12.820  24.183   8.393  0.0897 -0.1813  0.1584
54509W        W97422  15.585   5.049   1.902  0.0408  0.2022 -0.0013
54510W        W97423   7.037  16.507  20.966 -0.3606 -0.4499 -0.1610
54511W        W97424  16.563   5.743   6.704  0.1173  0.0703  0.0153
54512W        W97425   8.296   8.308   0.438 -0.0189  0.1874  0.0015
54513W        W97426  13.223  13.923   2.409 -0.1187 -0.1646 -0.0666
54514W        W97427  14.950  17.991  29.511  0.3707  0.3903 -0.2149
54515W        W97428  17.507   8.775  27.834 -0.5976 -0.0830  0.1504
54516W        W97429   5.274  31.797  26.625 -0.0375 -0.3990  0.0586
54517W        W97430   4.725   3.115  18.441  0.0880  0.1630  0.0618
54518W        W97431  17.827   5.885  23.627 -0.2236  0.2482 -0.0828
54519W        W97432  16.214   4.566  21.816  0.3522  0.1724  0.2356
54520W        W97433  16.308   4.454  27.277  0.0403  0.1775 -0.0656
54521W        W97434  15.815   1.238   3.350 -0.0922  0.0779 -0.0873
54522W        W97435   8.607  24.560   3.341 -0.6165 -0.0273  0.0773
54523W        W97436  18.052   7.692  21.710  0.0937  0.0473 -0.0656
54524W        W97437  18.829   4.324  23.404 -0.0427 -0.1223  0.0133
54525W        W97438   7.427   7.162  18.332  0.0642 -0.0528  0.3194
54526W        W97439  16.266   8.767  23.213  0.0164  0.3422 -0.1044
54527W        W97440   4.668   9.901  27.556  0.0331 -0.2068  0.0339
54528W        W97441  13.370   7.235   3.440 -0.1497  0.1704  0.2476
54529W        W97442   9.405  13.492  17.878 -0.3573  0.1816 -0.0774
54530W        W97443  11.018   0.650  21.218  0.2652  0.1966  0.1172
54531W        W97444  20.409   5.157  25.670  0.1935  0.0819 -0.0225
54532W        W97445  12.095  16.424  26.685  0.0910 -0.0326  0.3168
54533W        W97446  20.400   4.090  22.928 -0.2250  0.2694 -0.0313
54534W        W97447   8.470   6.216  23.875  0.0932  0.0675 -0.2088
54535W        W97448   7.883   4.170  23.624 -0.0189 -0.0839  0.0296
54536W        W97449  11.882   7.068  22.038  0.0378  0.1179 -0.0398
54537W        W97450   5.231  11.042  21.800  0.0740 -0.1797 -0.2755
54538W        W97451   5.966  24.274   1.690  0.0123 -0.1361 -0.1042
54539W        W97452   9.940   3.937  25.193 -0.0860  0.1837 -0.3332
54540W        W97453  16.105   2.905  22.894  0.1836  0.1365 -0.0086
54541W        W97454  19.657   4.782  28.659  0.0545 -0.0570 -0.1517
54542W        W97455  10.477  16.138  23.454  0.0880 -0.4421  0.2545
54543W        W97456  10.566   9.751  15.368 -0.0893  0.1862  0.1580
54544W        W97457  18.164   7.792  22.702  0.1408 -0.1948  0.2719
54545W        W97458  12.530  11.991  22.780  0.0742  0.0487 -0.1761
54546W        W97459  13.751   1.684  22.472 -0.0220 -0.0133  0.0268
54547W        W97460  17.557   8.184   4.386  0.0575  0.0438 -0.0631
54548W        W97461   3.446  32.351  23.835 -0.0619 -0.0471  0.1479
54549W        W97462   3.257   0.923  20.725  0.3618 -0.2451 -0.2720
54550W        W97463  21.297  34.392  16.151  0.3496 -0.1237  0.0673
54551W        W97464  24.684   5.775  23.501  0.4086 -0.3108  0.3504
54552W        W97465  11.973  30.754   3.726 -0.0557 -0.0635  0.0947
54553W        W97466  15.943   3.702  25.713  0.1165 -0.4141 -0.1436
54554W        W97467  17.073   9.655  19.374 -0.0294 -0.1933 -0.0579
54555W        W97468  23.898  33.829  20.369  0.0965 -0.0313 -0.4295
54556W        W97469  10.783   6.415   2.030  0.2891  0.3608 -0.3382
54557W        W97470   7.349   6.280  10.764 -0.3303  0.1930  0.1232
54558W        W97471  10.471  31.816   9.479  0.1943 -0.3533 -0.0814
54559W        W97472  16.134   1.980  26.255  0.0088 -0.0897 -0.3055
54560W        W97473   3.880   9.703  26.984 -0.0422 -0.0064 -0.2147
54561W        W97474   9.412   4.882   1.535  0.1417 -0.1565 -0.2354
54562W        W97475  23.582   1.780   7.125 -0.1018 -0.0054 -0.2974
54563W        W97476   6.198   4.981  29.275 -0.1980 -0.0335  0.0015
54564W        W97477  11.912  30.482  29.755 -0.1107  0.0968  0.0053
54565W        W97478  14.818  16.578  25.689  0.4306 -0.2024  0.0499
54566W        W97479  12.430   8.520   3.659  0.0109  0.3630 -0.0644
54567W        W97480   3.607   2.732   4.302 -0.2476 -0.2297  0.2185
54568W        W97481   9.588   6.835  16.923  0.2683  0.2212  0.1620
54569W        W97482   9.885  19.648   7.236 -0.1284  0.3149 -0.0891
54570W        W97483  12.717  30.963   5.795  0.0560  0.1427 -0.1699
54571W        W97484   8.178   9.702  27.358  0.0306  0.0442 -0.2263
54572W        W97485   9.294  18.163  17.653 -0.2299 -0.0014  0.2330
54573W        W97486  11.962  10.872  24.891  0.1942  0.0749 -0.4267
54574W        W97487   4.555   5.013  24.661 -0.0991  0.5697  0.2504
54575W        W97488  23.646  11.484  21.640 -0.0301 -0.0295  0.2464
54576W        W97489  13.684   0.929   3.831  0.2149 -0.0315  0.0223
54577W        W97490   1.247   7.155   1.789 -0.2638  0.1305  0.2588
54578W        W97491  16.583  33.685  28.406  0.0273  0.1012 -0.0009
54579W        W97492  12.591   7.663  28.924 -0.2618  0.0721 -0.2063
54580W        W97493   6.731   2.866  23.381  0.1847 -0.0178  0.2035
54581W        W97494   9.708  33.719  23.688 -0.0832 -0.1179 -0.3096
54582W        W97495   9.349   3.688  20.491  0.1472  0.0484  0.3542
54583W        W97496  10.204  34.309   5.939  0.1828 -0.0641 -0.0763
54584W        W97497   1.780   8.422   1.251  0.0130  0.2109 -0.0021
54585W        W97498   3.788   3.830  27.690 -0.3412  0.1408 -0.3798
54586W        W97499   2.560  14.155  24.125  0.2012 -0.0994 -0.3361
54587W        W97500   4.958   5.915  27.916 -0.1391 -0.2587 -0.3171
54588W        W97501   7.973   8.291   1.480  0.0203  0.3213 -0.1248
54589W        W97502  15.494   9.520   0.041  0.3226  0.2233  0.0510
54590W        W97503  21.073   1.139  23.399  0.1042  0.0473 -0.1553
54591W        W97504  19.312   0.760  25.353  0.1031 -0.1395  0.0561
54592W        W97505  13.321  32.858  22.043  0.4734  0.1353  0.0810
54593W        W97506   6.097  17.104  20.385  0.1677  0.2860  0.2566
54594W        W97507  18.004   2.813  19.868  0.3359  0.1221 -0.0883
54595W        W97508   6.392  28.635  24.675 -0.1941 -0.0092  0.1068
54596W        W97509  29.304  28.821   0.980  0.0483 -0.0005 -0.0201
54597W        W97510  19.955  32.031   2.128 -0.0988 -0.0447 -0.0398
54598W        W97511  19.252   4.377  27.317  0.2522  0.0698  0.1608
54599W        W97512   8.583  31.899  28.625  0.0669 -0.2386  0.1573
54600W        W97513   8.351  11.638  16.179  0.2581 -0.1662  0.1208
54601W        W97514   9.083   6.685  10.932 -0.0923 -0.3947 -0.2282
54602W        W97515   8.334  31.967  26.290 -0.1801 -0.6578 -0.1355
54603W        W97516   3.087   6.768  20.977 -0.0304 -0.2988  0.1545
54604W        W97517  12.395   9.271  28.301 -0.0901 -0.1354 -0.0317
54605W        W97518  15.732  20.583  26.862  0.1744  0.1748  0.0904
54606W        W97519  20.147   3.202   0.297 -0.1761  0.1166  0.1247
54607W        W97520  15.149  12.539   0.320 -0.0644 -0.0025 -0.1915
54608W        W97521  13.353   4.824  27.809 -0.0369 -0.1551 -0.0717
54609W        W97522   3.625   1.779  27.742 -0.0955  0.0187 -0.3597
54610W        W97523  15.582  30.924  28.212 -0.1700  0.0082  0.0181
54611W        W97524  17.038  22.973  23.959  0.0817 -0.2358 -0.2710
54612W        W97525   7.544   8.044  28.302 -0.0267 -0.0853  0.0099
54613W        W97526  10.323  19.179  14.177 -0.3619 -0.0432 -0.4360
54614W        W97527  16.169  14.912  27.093 -0.0068  0.1103  0.0775
54615W        W97528  22.646  12.663   2.931  0.0848  0.3896  0.2481
54616W        W97529   7.443   2.404   5.578 -0.2391 -0.0022  0.1709
54617W        W97530  22.624   1.341   3.545  0.0001 -0.2211 -0.1383
54618W        W97531  15.336  32.706  26.489  0.1360  0.1841 -0.2022
54619W        W97532   8.791   8.746  25.394  0.3016  0.1662 -0.3673
54620W        W97533  12.221  15.643  22.227 -0.0226 -0.0833  0.3698
54621W        W97534  18.216   4.710   0.617 -0.1505 -0.1646 -0.1727
54622W        W97535  11.911   6.806   2.717  0.1495  0.2515  0.3089
54623W        W97536  18.387   4.730   2.295  0.0591 -0.1676 -0.1219
54624W        W97537  11.649   2.736   3.957  0.2062 -0.5428 -0.0045
54625W        W97538  17.388   9.946   2.222  0.2803 -0.2050  0.1715
54626W        W97539   9.185   3.486  23.599  0.0681 -0.1249 -0.0957
54627W        W97540  17.015   6.726   2.715 -0.1329  0.3790 -0.0912
54628W        W97541  20.561   2.968  29.104  0.2497 -0.1369 -0.0876
54629W        W97542  18.379  25.379  13.872 -0.2245  0.0608 -0.3737
54630W        W97543   4.106  11.120  20.164  0.1931 -0.3150  0.0090
54631W        W97544   9.480  32.603   9.850  0.2819 -0.2972 -0.0426
54632W        W97545   5.804  13.239   2.492 -0.0892 -0.2713 -0.1029
54633W        W97546  18.731   7.250  28.299 -0.0363  0.0986 -0.0499
54634W        W97547  23.933  32.863   5.582 -0.1642 -0.0725  0.0072
54635W        W97548   3.610   5.905  19.838  0.0669 -0.1867  0.0341
54636W        W97549  13.126  14.621  24.888  0.0835  0.3430  0.3104
54637W        W97550  17.198  11.587   2.217  0.0668  0.1928 -0.1615
54638W        W97551   8.037   1.326  25.721  0.1238 -0.2322 -0.0879
54639W        W97552   8.241  30.257   4.733  0.2388 -0.4002  0.3468
54640W        W97553  17.696  27.464  27.366  0.3426  0.1860 -0.0967
54641W        W97554  14.566  13.904  17.032  0.0298  0.1001 -0.3685
54642W        W97555  10.691   4.558  22.697  0.1182  0.1097 -0.0874
54643W        W97556  10.459   4.968  21.239  0.0238 -0.2607  0.1063
54644W        W97557  23.511  13.104  25.699  0.0814 -0.4940 -0.2750
54645W        W97558  10.903   7.605  21.440  0.2905 -0.2348  0.0836
54646W        W97559   8.835   1.277  20.190  0.0137 -0.3263 -0.3423
54647W        W97560  13.653   6.830  17.132  0.0300  0.1846 -0.0451
54648W        W97561  10.157  16.031  25.793  0.2494  0.2246 -0.3641
54649W        W97562   6.663  31.719  27.816  0.3682  0.0725  0.0433
54650W        W97563  14.363  27.847  23.150 -0.1017  0.0947  0.0542
54651W        W97564  23.726   2.030   3.740  0.2352 -0.1882 -0.2624
54652W        W97565   6.186  34.273  22.135  0.2056  0.2950 -0.0005
54653W        W97566  25.160   4.524  28.125 -0.1550  0.0251  0.0765
54654W        W97567  17.759  34.045  21.794 -0.1786  0.0692  0.3170
54655W        W97568   6.011  13.351  21.387 -0.0635 -0.2794  0.0182
54656W        W97569   1.999   9.156  29.367  0.2527 -0.0431 -0.1066
54657W        W97570   0.127   4.071   3.341 -0.0794  0.1719 -0.3373
54658W        W97571  13.382  17.991  17.904 -0.1471  0.1500 -0.2205
54659W        W97572  13.358  12.746  21.065  0.2400 -0.1529 -0.0491
54660W        W97573   0.559  11.695  28.944 -0.1521 -0.2115 -0.1853
54661W        W97574  18.004   8.908   4.768 -0.3194  0.0194  0.1389
54662W        W97575  17.021  14.046  28.859  0.0289  0.2940 -0.0565
54663W        W97576  11.229  14.867   4.406  0.3378 -0.2299 -0.1828
54664W        W97577  18.474   4.188  18.721  0.1963 -0.0726 -0.0431
54665W        W97578  16.639  32.709  29.591  0.1201  0.1124 -0.0640
54666W        W97579   8.577   9.194   1.836  0.0687 -0.0685  0.1780
54667W        W97580  25.195   9.194  15.857 -0.0086  0.2740 -0.1723
54668W        W97581  26.118  26.702  15.578  0.0734  0.0249 -0.1116
54669W        W97582  17.237  10.153  25.131 -0.1037 -0.1206  0.2069
54670W        W97583   8.484  28.415  21.535  0.1211  0.4051 -0.2952
54671W        W97584   2.251  12.186  27.287  0.2424 -0.0356 -0.2540
54672W        W97585  16.019   2.023  15.777  0.0948  0.5737 -0.0544
54673W        W97586  17.623   6.243   5.877  0.3936  0.1782  0.1312
54674W        W97587  12.492   4.262  25.837 -0.2186 -0.0383 -0.1516
54675W        W97588  19.683   4.905  23.320  0.5069 -0.1582  0.1142
54676W        W97589  10.220   3.485  11.207  0.2005  0.0229 -0.0013
54677W        W97590  15.246  13.908   2.257  0.2995  0.0235 -0.2274
54678W        W97591  15.489  12.022   1.383 -0.0067  0.0352 -0.3653
54679W        W97592  14.613   6.710  23.144 -0.3402  0.1059 -0.1442
54680W        W97593  13.124  12.262  15.847 -0.0444  0.1366  0.1425
54681W        W97594  11.454   1.553   3.833  0.1683  0.2389  0.1939
54682W        W97595   9.681   5.613   7.445 -0.1592 -0.0893  0.1069
54683W        W97596  23.036   2.060   2.881  0.1303 -0.0611  0.1049
54684W        W97597  19.421  20.757  26.041  0.1143  0.0254 -0.1081
54685W        W97598  16.274   2.159   9.805 -0.0780  0.0279  0.2679
54686W        W97599  15.279   3.411  26.866  0.2258 -0.2169  0.0695
54687W        W97600   8.609   5.884   8.084  0.0958  0.1337 -0.2112
54688W        W97601  14.451  11.336  26.873 -0.0644 -0.5047  0.0551
54689W        W97602  22.381  23.235  27.030  0.1243 -0.0910  0.0191
54690W        W97603  10.905   1.974  28.604 -0.0488 -0.3303  0.2284
54691W        W97604  10.669   1.587   8.655  0.2285  0.2415  0.0827
54692W        W97605  12.515   3.143   9.037  0.2278 -0.1263 -0.5678
54693W        W97606   8.020   9.079  26.591  0.0883 -0.1723  0.0073
54694W        W97607  13.028  31.634   3.724 -0.0802  0.0358  0.1258
54695W        W97608  21.737  33.891  18.792  0.2985  0.0258  0.0348
54696W        W97609  25.650  30.343   1.263  0.2505 -0.1072  0.2715
54697W        W97610  30.826   7.900  25.233  0.0095  0.2058  0.0365
54698W        W97611  18.343  32.754   1.631 -0.3522  0.1409 -0.1087
54699W        W97612   0.576   7.053  29.409 -0.0230 -0.0689  0.3326
54700W        W97613  11.613   9.880  17.145 -0.0868  0.0619 -0.0456
54701W        W97614  17.879  11.391  17.975  0.0405  0.0678  0.0766
54702W        W97615   8.770  10.345   6.230 -0.1256  0.2099  0.2184
54703W        W97616  12.049   6.855  23.237  0.1533 -0.0687  0.3014
54704W        W97617   5.772   7.993  26.087  0.1370  0.3688  0.4104
54705W        W97618  10.629   9.471   1.002  0.1299  0.1992  0.1815
54706W        W97619   8.942   0.541  19.895 -0.3219 -0.1028 -0.2339
54707W        W97620  14.627  10.068   0.535  0.0544 -0.2282  0.2024
54708W        W97621  20.475   2.319  15.141 -0.3021 -0.0596  0.0194
54709W        W97622  12.365  29.240   1.458 -0.1441  0.2934 -0.3821
54710W        W97623   4.872  27.434  26.522  0.3073 -0.1479  0.2022
54711W        W97624  26.657   2.441  29.148 -0.1108  0.2648 -0.1747
54712W        W97625   8.661  34.473  27.143  0.2707  0.0092 -0.0220
54713W        W97626  11.766   1.464  16.676  0.3216 -0.0848  0.1702
54714W        W97627  17.319   4.491  16.120  0.0832 -0.1484 -0.1473
54715W        W97628  32.300  12.295  24.685 -0.1869 -0.2206 -0.2283
54716W        W97629   3.561  27.503  17.781 -0.3412  0.2046  0.0488
54717W        W97630  20.266  28.715   5.904  0.1351  0.1215 -0.1579
54718W        W97631  25.644   2.855  28.588 -0.0847  0.0483  0.0433
54719W        W97632  17.147  15.415  26.255 -0.2297 -0.2295 -0.1340
54720W        W97633  11.975   5.032  24.588  0.0370  0.2756  0.1156
54721W        W97634  14.427   6.889  27.629  0.1172 -0.2951 -0.2121
54722W        W97635   2.212  16.819  29.260 -0.2293  0.0056  0.0044
54723W        W97636  17.627  34.390   1.365  0.0012 -0.1161  0.1380
54724W        W97637   9.272  31.918   3.737  0.0238 -0.1467  0.0952
54725W        W97638  15.241  32.334  24.048 -0.1917 -0.0766  0.0546
54726W        W97639   8.004   5.215  27.049  0.2266  0.2316  0.1557
54727W        W97640  11.866   5.267  23.365  0.1207  0.0337 -0.4807
54728W        W97641  15.491   5.752  22.701 -0.0064  0.0090 -0.1040
54729W        W97642  14.881   6.289  10.567 -0.1444 -0.2416 -0.1027
54730W        W97643   8.491   9.569  29.396  0.1487  0.3502  0.0604
54731W        W97644  11.313   3.414  29.760 -0.0916 -0.4923 -0.2959
54732W        W97645  12.834   6.920  22.565  0.0888  0.0557  0.1009
54733W        W97646   6.932  25.292   5.901  0.1423  0.1793 -0.0284
54734W        W97647   4.479  29.757   1.325  0.1671  0.1212  0.2244
54735W        W97648  31.521   1.501   1.376  0.1836 -0.3080 -0.0684
54736W        W97649   7.792  33.402  26.988  0.0064  0.0976 -0.0879
54737W        W97650  12.331  34.022   5.410  0.0638 -0.0368 -0.0504
54738W        W97651   8.425   6.980   8.313 -0.2875  0.0313  0.0028
54739W        W97652  10.590  10.427   0.698  0.1046  0.0224 -0.1299
54740W        W97653  13.557  33.605  24.992 -0.1304 -0.1758  0.1630
54741W        W97654  10.958  34.446   0.882  0.0272 -0.3894 -0.0601
54742W        W97655  19.738  10.862  23.879 -0.2122  0.0791 -0.2380
54743W        W97656   9.306  11.801   1.005  0.0426 -0.1264  0.0211
54744W        W97657   5.315  31.792  28.579  0.1142  0.1118  0.1007
54745W        W97658  11.276   3.756  27.890 -0.1099 -0.0455  0.1072
54746W        W97659  11.318  12.979  26.979  0.1883 -0.0527  0.0257
54747W        W97660  12.770   8.307  26.734 -0.0415 -0.0610  0.3597
54748W        W97661   9.826   3.364   3.213 -0.0696 -0.0661  0.1911
54749W        W97662   9.070   0.372   3.287 -0.1616 -0.1179 -0.0213
54750W        W97663  15.933   2.600  23.402  0.0387 -0.0797 -0.1851
54751W        W97664  15.834  10.583   2.969  0.1837 -0.0253  0.1878
54752W        W97665  15.842  11.412  25.370  0.0265  0.2672 -0.4208
54753W        W97666   5.918   0.306  24.354  0.2082  0.2919 -0.4318
54754W        W97667   9.214   0.852  23.680 -0.0735  0.0218 -0.0697
54755W        W97668  18.986  13.228  19.218  0.2248  0.0669  0.1397
54756W        W97669  13.331   3.281   3.800  0.0304  0.0340  0.1182
54757W        W97670   5.548   6.267  22.777 -0.1238 -0.0698 -0.0803
54758W        W97671   8.429   5.324   1.465  0.1031  0.2136  0.0235
54759W        W97672  19.974  11.187  28.533  0.1760 -0.0115 -0.1626
54760W        W97673   3.045   0.895  20.200 -0.4011  0.1221 -0.0455
54761W        W97674  11.015   3.713  24.078 -0.3889 -0.0387 -0.1412
54762W        W97675   9.434  27.387  29.660  0.1425  0.2153  0.0282
54763W        W97676  17.686  15.904  23.259  0.3154 -0.3099  0.3432
54764W        W97677   9.461   3.368  24.033 -0.3505  0.2441  0.2484
54765W        W97678  10.478   5.595  29.216 -0.1661  0.2927  0.3151
54766W        W97679   7.319  33.240  28.861 -0.2746 -0.2222 -0.1588
54767W        W97680  20.074  34.370  24.525 -0.3290 -0.2575 -0.1199
54768W        W97681   5.583   7.380  12.936 -0.1286  0.0236  0.2466
54769W        W97682  12.064   2.502  26.826 -0.0415 -0.2993 -0.0812
54770W        W97683  16.610   3.345  16.508 -0.2408 -0.0865 -0.1144
54771W        W97684   9.823   7.878  26.285 -0.1563  0.1147  0.2037
54772W        W97685  15.411   1.204   7.942 -0.0244  0.2651 -0.0219
54773W        W97686  20.276   3.207   0.765  0.1941  0.2643  0.2560
54774W        W97687   9.082   7.700  24.411 -0.1284  0.2020 -0.0793
54775W        W97688   3.328   6.117   0.011 -0.0694  0.1735 -0.0776
54776W        W97689   8.378   2.297  19.953  0.0825  0.1180  0.4656
54777W        W97690  17.064  14.228   2.956 -0.1495 -0.0997  0.1830
54778W        W97691  15.385  33.348  22.810 -0.1893  0.1048 -0.0212
54779W        W97692  22.521   8.701  15.515 -0.0816  0.0021 -0.3141
54780W        W97693  12.204   3.763   1.308  0.1847  0.1911 -0.1059
54781W        W97694   9.214  26.666  11.442 -0.2126 -0.1554 -0.1153
54782W        W97695  15.317   2.033  21.930 -0.0624 -0.1223 -0.3061
54783W        W97696   8.885  14.898   4.706 -0.3550 -0.1299 -0.0472
54784W        W97697   9.277  11.106   3.881 -0.2713 -0.1334 -0.1289
54785W        W97698  10.915   5.872  25.917 -0.2973 -0.1276  0.1305
54786W        W97699  16.122  30.647  26.085 -0.1504  0.0004 -0.1522
54787W        W97700  17.908  26.894  14.076  0.1142 -0.0665  0.0254
54788W        W97701  11.554  33.899  25.661  0.3448 -0.2173  0.0703
54789W        W97702  19.172  28.403  24.797  0.1139 -0.1128  0.0289
54790W        W97703  19.066  29.557  17.886  0.0089  0.2012  0.2221
54791W        W97704  29.772   0.945  20.775  0.1225 -0.2038  0.1165
54792W        W97705   0.494   0.686  22.459 -0.2162  0.3404 -0.1162
54793W        W97706  10.781   3.090   4.768 -0.1276  0.1227  0.0427
54794W        W97707  17.677  33.091  22.127  0.1883 -0.0830  0.0099
54795W        W97708  13.182  16.842  27.137  0.1149  0.1390 -0.3136
54796W        W97709  14.911  31.205   1.689  0.1173 -0.1784 -0.1243
54797W        W97710   4.880  11.903   2.113  0.3585 -0.0115  0.1143
54798W        W97711  24.892  11.126  25.490  0.3461  0.0999 -0.0987
54799W        W97712  13.633  17.750   5.706 -0.2159 -0.1053 -0.0480
54800W        W97713  20.070   9.422   3.655  0.1234  0.2797 -0.1580
54801W        W97714   8.336   8.927  20.733 -0.1989 -0.0139 -0.4240
54802W        W97715  13.792  15.840   3.956  0.0726 -0.0738  0.0646
54803W        W97716   7.555   3.366   3.274  0.2510 -0.0287 -0.0930
54804W        W97717  11.119   3.169  22.150 -0.0930  0.2059  0.0404
54805W        W97718  16.739  16.979  13.372 -0.0694 -0.0409 -0.0115
54806W        W97719   4.606   2.215   1.392  0.1394 -0.0489  0.1237
54807W        W97720  17.572   6.397  29.638  0.0415 -0.0509 -0.2376
54808W        W97721  20.123   3.884   7.469 -0.3376 -0.2913 -0.2222
54809W        W97722   3.820   0.625   7.163 -0.0374 -0.0588  0.1175
54810W        W97723   8.584   2.096  23.232 -0.1138 -0.1091 -0.1792
54811W        W97724  11.677   5.350   0.751  0.1267 -0.0517 -0.0359
54812W        W97725   6.827  10.990  27.885 -0.0197 -0.1558 -0.0075
54813W        W97726  10.727  33.018   2.229  0.0802  0.3294 -0.3462
54814W        W97727   6.879   2.491  25.876 -0.0273 -0.0358 -0.2541
54815W        W97728   1.299  10.634   8.396  0.0564 -0.0103 -0.3004
54816W        W97729  14.671   1.830  19.312  0.1205  0.1053 -0.2109
54817W        W97730   2.097  32.387   0.385 -0.0861  0.0134  0.4647
54818W        W97731   7.425   3.207  28.469  0.1726 -0.2244 -0.0877
54819W        W97732  22.052   2.326   4.180 -0.4327  0.0362 -0.1677
54820W        W97733  14.118   4.113  26.280  0.3331  0.3940  0.1492
54821W        W97734   7.156   6.462  28.169 -0.0940  0.1865  0.2814
54822W        W97735  12.337  10.802   3.898  0.3511  0.3161 -0.0759
54823W        W97736  12.273  13.494  22.336 -0.1863 -0.2305  0.1367
54824W        W97737  18.508   1.455  27.042  0.1706 -0.0423 -0.0088
54825W        W97738   9.670   2.831  27.718  0.1622  0.1428 -0.1257
54826W        W97739  11.259  33.401  21.537 -0.0677 -0.1494  0.2524
54827W        W97740  23.968  34.029  25.738 -0.0641  0.1641  0.0488
54828W        W97741  18.822  29.587  28.770 -0.2831 -0.1348  0.2938
54829W        W97742  16.219   7.381  14.758 -0.3229 -0.0253  0.3341
54830W        W97743  15.864   0.398   8.113 -0.0287 -0.1519 -0.0750
54831W        W97744  19.041   2.641   1.251 -0.1658 -0.0735  0.2270
54832W        W97745  14.147  32.829  29.150 -0.1143 -0.4972  0.0173
54833W        W97746  15.721   3.644  25.281 -0.0041 -0.3096  0.0865
54834W        W97747  20.085   5.036  20.871 -0.0169  0.1219 -0.3067
54835W        W97748  29.160  15.105  20.145 -0.0720 -0.0312  0.1741
54836W        W97749  16.945   7.855  27.910 -0.0185 -0.4599  0.0171
54837W        W97750  14.567   7.432   1.479 -0.1234 -0.1522 -0.0981
54838W        W97751  21.411  10.261  27.599  0.2050  0.0093  0.1392
54839W        W97752  11.119  25.276  24.844 -0.0710  0.2480 -0.0121
54840W        W97753  12.906   9.006  27.583 -0.0440 -0.0921  0.2208
54841W        W97754  10.198   1.086  17.516 -0.2384 -0.2012 -0.0221
54842W        W97755   0.614  32.643   6.713  0.0853  0.0902 -0.1670
54843W        W97756  21.331  11.933  25.739  0.1443  0.0244 -0.1987
54844W        W97757   6.492   1.302  20.711  0.0611  0.0693  0.0016
54845W        W97758  22.359   5.890   6.054  0.2597 -0.0990  0.0458
54846W        W97759  12.477   6.147  21.909 -0.2067 -0.2016 -0.3125
54847W        W97760  16.559   7.757   2.347 -0.0968 -0.1813  0.0763
54848W        W97761  25.708   0.531  14.087 -0.0954 -0.1798 -0.0963
54849W        W97762  18.469   8.160   7.852 -0.0529  0.3152  0.0886
54850W        W97763  11.692   5.717   8.734  0.0039 -0.1856  0.1904
54851W        W97764  20.973  31.813  23.901 -0.1305 -0.0774  0.1437
54852W        W97765  16.811  11.907  22.640  0.0032  0.0267 -0.0836
54853W        W97766  16.149   7.665   2.645  0.1304  0.0755 -0.1552
54854W        W97767   1.171   0.404  18.797  0.0821 -0.1378 -0.1092
54855W        W97768  12.968  26.956  25.716 -0.1623 -0.0777  0.0355
54856W        W97769   8.897   2.324  19.855 -0.4157  0.0436  0.0818
54857W        W97770   9.488   1.620  28.646  0.0142 -0.0057  0.0379
54858W        W97771  10.146  11.617   1.751 -0.1023  0.1527 -0.1045
54859W        W97772  18.750  31.269   9.818 -0.0517 -0.2205 -0.3627
54860W        W97773  15.322   4.576  17.820  0.1543  0.0345  0.0212
54861W        W97774   3.043   4.895  27.361 -0.2060 -0.1702  0.0442
54862W        W97775   6.663  10.684  24.594  0.1574  0.1044  0.2254
54863W        W97776  20.735  10.301   1.529 -0.1149 -0.2531  0.3368
54864W        W97777   8.935   3.975  29.108  0.0238 -0.1068 -0.0860
54865W        W97778   7.030   0.707  18.357  0.2011 -0.0488  0.0783
54866W        W97779  15.968   2.622  25.129  0.1702 -0.2993 -0.0275
54867W        W97780  11.495  10.352  28.407  0.0948 -0.0736 -0.0790
54868W        W97781  20.322  30.413   1.336 -0.0460  0.1415  0.2910
54869W        W97782  18.420  15.180   0.887 -0.1425  0.0588  0.3200
54870W        W97783  12.801   3.255   2.956 -0.1592 -0.0794 -0.2762
54871W        W97784  15.902   2.524  23.918 -0.1617 -0.1892  0.0179
54872W        W97785   6.918   1.783   2.524 -0.3605  0.0854  0.1229
54873W        W97786   9.601   0.066  26.611 -0.0683  0.0946 -0.3453
54874W        W97787  16.304   1.461  27.446  0.0697 -0.1014 -0.0101
54875W        W97788  18.916   0.713   1.555 -0.3217  0.2082  0.0954
54876W        W97789   6.427   0.802  18.473 -0.2829 -0.0509  0.0875
54877W        W97790   6.690   0.106  21.491  0.0778 -0.0495 -0.1534
54878W        W97791  10.825  31.842  28.822 -0.0136  0.0176 -0.1247
54879W        W97792  18.264  32.578  22.479  0.2313  0.1947 -0.3390
54880W        W97793  32.936   4.783  20.809 -0.1722 -0.0127  0.2002
54881W        W97794  17.696  10.428  26.639 -0.0461 -0.0609 -0.2800
54882W        W97795  17.632  12.335   3.563  0.2226  0.0212 -0.1051
54883W        W97796  16.350  33.555   0.012  0.1047 -0.0370  0.1238
54884W        W97797  12.074   2.296   2.177  0.0482 -0.0510  0.3487
54885W        W97798   7.635  12.787  25.537  0.1720 -0.0654 -0.2154
54886W        W97799  10.845   7.720  19.900  0.1553 -0.0966  0.1362
54887W        W97800   3.053  26.499  28.803 -0.3530  0.1075 -0.2812
54888W        W97801  11.223  33.216   7.327  0.0866 -0.0407 -0.1032
54889W        W97802  18.792   4.960  15.611  0.1013  0.1127 -0.0484
54890W        W97803  20.696  15.820   1.405  0.2746 -0.0137 -0.2098
54891W        W97804   7.411   2.435  27.773  0.0078  0.0520  0.1597
54892W        W97805  19.493   4.103   3.988  0.1116 -0.1569  0.1577
54893W        W97806   7.065  34.496  23.304  0.1184 -0.1168 -0.5050
54894W        W97807  11.784  33.814  25.065 -0.3854 -0.0452 -0.1182
54895W        W97808  17.010   5.769  16.986  0.0299  0.0718 -0.0540
54896W        W97809  14.159  32.544  20.054 -0.0501 -0.0406 -0.2862
54897W        W97810  16.739  33.608  22.792  0.1592 -0.0086 -0.1479
54898W        W97811  14.263   7.907  22.867  0.0077 -0.2434  0.0531
54899W        W97812  13.135  27.889  27.769 -0.2834  0.1026  0.0121
54900W        W97813  34.090   6.753  10.475 -0.1395  0.0173  0.2282
54901W        W97814   8.585   1.216  11.544 -0.3386 -0.0197  0.2586
54902W        W97815  17.187  10.607   5.432  0.1143 -0.0083 -0.1689
54903W        W97816   7.480  10.295   5.780 -0.0687 -0.3037  0.0970
54904W        W97817  12.867   8.912  21.215  0.2305 -0.0841  0.0064
54905W        W97818  15.294   4.138   2.904  0.0988 -0.1507  0.0455
54906W        W97819  13.552  11.220  28.367  0.1901  0.3902 -0.1589
54907W        W97820  16.421   3.859  28.223 -0.1837  0.0911  0.0218
54908W        W97821   2.882   0.568  22.392 -0.1470 -0.0577  0.2961
54909W        W97822   6.481   9.074   3.954 -0.1409  0.0831  0.0944
54910W        W97823  22.302   6.818  20.373 -0.1193  0.2580  0.0325
54911W        W97824  16.890   9.394  23.264  0.1026  0.0544  0.3057
54912W        W97825  19.998  26.600  26.567 -0.0531  0.0221  0.1386
54913W        W97826  12.220   3.163   0.517 -0.0229  0.0908  0.2391
54914W        W97827  12.052  32.600  25.757 -0.2210 -0.0555 -0.0666
54915W        W97828   7.453  17.648   6.769  0.0540 -0.2896 -0.5710
54916W        W97829  13.396   3.787   4.906  0.0270  0.1321 -0.0045
54917W        W97830  12.982   5.454  22.542  0.1958  0.1932  0.0145
54918W        W97831  11.392   4.126  17.762 -0.1669  0.1193 -0.0056
54919W        W97832  13.690  30.385  26.147  0.0643  0.3744  0.3496
54920W        W97833  14.440   2.614  18.456  0.1469  0.0677 -0.2187
54921W        W97834   2.002  13.741  21.366  0.1363 -0.0905 -0.2906
54922W        W97835  17.282  12.192  27.794 -0.2744  0.0294  0.1458
54923W        W97836  11.020   0.346  26.362 -0.1545 -0.0336 -0.0813
54924W        W97837  16.295   0.458   1.694 -0.1103  0.1100 -0.0796
54925W        W97838   6.975   2.995   5.992  0.2321  0.1393  0.0589
54926W        W97839  25.188  12.891  19.799  0.1377  0.1588 -0.0809
54927W        W97840  10.977   0.627   5.007  0.1177 -0.0003 -0.1390
54928W        W97841   6.451   7.336  27.930  0.0207  0.2201  0.0086
54929W        W97842   9.608   2.537   2.780  0.0610 -0.1801 -0.0703
54930W        W97843  18.637   2.112  26.275  0.3307 -0.0338 -0.0620
54931W        W97844  18.875   8.619   3.315  0.0404  0.1049 -0.1790
54932W        W97845   4.203   1.540  28.092 -0.2065 -0.0759 -0.0227
54933W        W97846  22.154   1.145  23.098 -0.0896 -0.1582  0.2816
54934W        W97847  18.971  33.625  17.625 -0.0972 -0.0477 -0.0694
54935W        W97848  17.362   3.904  19.397 -0.2438 -0.3547 -0.0549
54936W        W97849   8.525   6.341   1.302 -0.0225  0.2039 -0.0046
54937W        W97850  26.912  32.767   0.175 -0.1851 -0.0750  0.3983
54938W        W97851  18.044   7.175   5.585 -0.3780  0.1555 -0.0210
54939W        W97852   8.126  12.067   0.120  0.0295 -0.6529  0.3647
54940W        W97853  16.338   3.855   9.670  0.1540 -0.1759 -0.0293
54941W        W97854  19.222   1.899  18.252 -0.1088  0.0860  0.2181
54942W        W97855  13.843  12.733  25.736 -0.0744 -0.1964 -0.1713
54943W        W97856   6.659   4.738  28.237  0.2284  0.0324  0.2079
54944W        W97857  11.946  14.921  21.630  0.0587  0.0703  0.0998
54945W        W97858   8.970   2.065   0.658  0.2071 -0.1385  0.1424
54946W        W97859  20.496  24.292  27.458 -0.2372  0.2759  0.2073
54947W        W97860  17.767  10.726  23.380 -0.3984 -0.0686 -0.1839
54948W        W97861  17.563   0.586  29.225 -0.2890  0.2496 -0.0109
54949W        W97862   4.539   7.479  29.148 -0.0486  0.0761  0.0639
54950W        W97863   6.966   4.918  25.656  0.2054  0.0766 -0.1942
54951W        W97864  13.701  10.223  19.851  0.1655 -0.1756  0.3342
54952W        W97865   9.710   1.432  27.648 -0.4465 -0.2354  0.2761
54953W        W97866   5.100  13.801  22.910  0.0138 -0.1329  0.1387
54954W        W97867  17.421  30.827  26.221 -0.2113 -0.0421  0.3722
54955W        W97868  12.672   0.075  24.873 -0.0291 -0.0797 -0.0160
54956W        W97869  16.579  25.550  27.693 -0.0120  0.0579 -0.3206
54957W        W97870  26.466  12.335   3.395  0.2760  0.0825 -0.0437
54958W        W97871   1.297   9.920  23.640 -0.1133 -0.0358  0.4567
54959W        W97872  14.830  11.976  20.079  0.4080 -0.0531  0.1297
54960W        W97873   8.756  30.539   7.814 -0.0154  0.4774  0.0099
54961W        W97874  12.188  13.579   1.521 -0.1135  0.1108  0.1401
54962W        W97875  22.661  10.553   3.002  0.1480 -0.0316 -0.1461
54963W        W97876  16.228   5.402   1.343  0.0634  0.0679  0.1053
54964W        W97877   3.566  32.423   8.167 -0.0722 -0.2037  0.0495
54965W        W97878  27.532   5.148   1.715  0.2598 -0.2793 -0.2310
54966W        W97879   9.465   5.573  11.057 -0.1483 -0.1545  0.0538
54967W        W97880   0.122   8.501  28.878 -0.2718 -0.0143 -0.0952
54968W        W97881  23.417   6.309  15.089  0.0575  0.0922  0.1416
54969W        W97882   6.250   3.791   7.611  0.0723 -0.1167 -0.1354
54970W        W97883  13.812   3.627   7.974 -0.2608  0.2257  0.0278
54971W        W97884  27.242   4.598   3.300  0.2084  0.1198 -0.1131
54972W        W97885  10.235   7.225   0.221  0.0482 -0.2575 -0.1240
54973W        W97886  20.611  10.298  25.282  0.0071 -0.1918  0.2224
54974W        W97887   7.674  10.766   0.438 -0.1161  0.2288  0.0814
54975W        W97888   0.856  33.283  10.849  0.0133 -0.2012 -0.4276
54976W        W97889  11.517   3.431   8.833  0.2372  0.1891 -0.2149
54977W        W97890  11.462  11.339  23.883  0.1863  0.1535 -0.1353
54978W        W97891   9.348   2.736   4.597  0.2828  0.0133 -0.0325
54979W        W97892  18.603  26.724  23.250 -0.2723 -0.0504 -0.0147
54980W        W97893   9.789   1.635   6.515 -0.2607 -0.1089 -0.1228
54981W        W97894   8.700   5.230  11.599 -0.0645 -0.0532  0.2250
54982W        W97895  10.837   6.533  24.640  0.3967 -0.2320  0.2466
54983W        W97896  13.448   2.515   5.569 -0.5142  0.3430  0.1293
54984W        W97897  10.319  13.889   6.203 -0.0806  0.3155 -0.0990
54985W        W97898  15.075   0.303  27.086  0.3265 -0.2938 -0.4104
54986W        W97899  11.477  13.140  29.104 -0.0019 -0.0229  0.1156
54987W        W97900  18.493   3.830   8.452 -0.0980  0.1239  0.1348
54988W        W97901  13.006   2.838   1.984  0.1060 -0.2142  0.1804
54989W        W97902  25.121   4.056  21.034  0.0079  0.1845  0.0851
54990W        W97903  12.243   4.711  29.347  0.0193  0.2761 -0.1887
54991W        W97904  14.866   5.887  19.700  0.0013 -0.0021  0.2309
54992W        W97905  16.405   2.696   4.843 -0.3975 -0.2166  0.1015
54993W        W97906  16.364   5.751   4.655 -0.1263  0.0708  0.0921
54994W        W97907  15.369   3.955   0.823  0.0977 -0.3242 -0.0861
54995W        W97908   9.292   1.697  24.718  0.0511 -0.1512 -0.3158
54996W        W97909  10.765  33.295  21.646  0.1681 -0.2987 -0.1177
54997W        W97910  13.488   2.247  28.297 -0.1623 -0.0681  0.0620
54998W        W97911   3.941  34.379   5.372 -0.2143  0.1533 -0.2806
54999W        W97912  16.700   0.098   1.787 -0.1982 -0.1904  0.0041
55000W        W97913  18.760  15.347   0.323 -0.3928 -0.1068  0.1163
55001W        W97914  15.330   2.288  20.932  0.0396  0.0449  0.0853
55002W        W97915  13.178   4.049  22.861 -0.1220 -0.2792  0.0475
55003W        W97916  15.127   3.066  29.559 -0.5243  0.0965  0.1520
55004W        W97917  14.599   0.739   7.233 -0.0477 -0.0675  0.2362
55005W        W97918  12.697  34.109  17.927  0.1974 -0.1275  0.3480
55006W        W97919  10.090   8.395  17.620  0.1320  0.1498  0.3329
55007W        W97920  21.124   9.726  16.639  0.0786  0.1890 -0.0203
55008W        W97921   7.348  13.482  18.681 -0.4136 -0.1816  0.5496
55009W        W97922  11.080   9.896  22.009 -0.1101 -0.1773 -0.2826
55010W        W97923  19.840   8.195  17.012 -0.4453 -0.2077 -0.1226
55011W        W97924  11.202  10.906  20.009 -0.1761 -0.3282  0.1121
55012W        W97925  18.385  32.369  14.215  0.1823 -0.1354 -0.3471
55013W        W97926  14.720  14.378  14.029 -0.0454  0.2606  0.0997
55014W        W97927  26.972  14.150  16.883 -0.1871  0.1352 -0.0722
55015W        W97928  21.689   2.678  13.978  0.0495  0.2242  0.2154
55016W        W97929  13.234  13.588  13.540 -0.0496 -0.3302  0.0897
55017W        W97930   7.042   1.335  20.584  0.2051 -0.1843 -0.1528
55018W        W97931   6.345   0.582  17.049 -0.0694 -0.0667 -0.0343
55019W        W97932  12.357   7.411  24.622  0.1325  0.3719  0.0396
55020W        W97933  14.614   2.490  19.380  0.0133 -0.0838 -0.0500
55021W        W97934  15.431   8.540  24.421  0.1145 -0.2904 -0.1075
55022W        W97935  23.957   0.111  18.634 -0.0081 -0.1487 -0.0202
55023W        W97936  12.646   1.676  25.995 -0.0918  0.0487 -0.2351
55024W        W97937  12.864  10.058  17.322 -0.0135 -0.3023  0.1562
55025W        W97938  25.024  10.257  18.883  0.0410  0.0112  0.2681
55026W        W97939  22.933  17.252  17.608  0.1398 -0.1458  0.0362
55027W        W97940   9.973  10.711  17.096 -0.1148 -0.2597 -0.0174
55028W        W97941  13.259  13.327  22.012  0.1827  0.0433  0.2832
55029W        W97942  12.747  12.600  12.627  0.1997  0.0819  0.2547
55030W        W97943  22.987  14.199  13.281 -0.0543  0.3414 -0.0393
55031W        W97944  19.912  28.501  19.112 -0.1474  0.2010  0.0775
55032W        W97945  12.150  13.005  17.128 -0.0888  0.0923 -0.1069
55033W        W97946  15.422  11.715  19.138  0.1725 -0.2289 -0.3029
55034W        W97947  18.533  31.890  17.195 -0.0330 -0.5182 -0.0621
55035W        W97948  10.962  17.580  27.399  0.3025  0.2382  0.2137
55036W        W97949  19.721   5.976  19.435 -0.1427 -0.0024  0.0388
55037W        W97950  18.118  15.399  12.608 -0.2426  0.1532  0.1281
55038W        W97951   7.337  17.168  17.577 -0.1726 -0.0599  0.0583
55039W        W97952  21.775   8.544  25.143  0.0974  0.0063 -0.1704
55040W        W97953  22.739   6.756  16.339 -0.4781 -0.1137  0.4532
55041W        W97954  14.394   5.021  22.425 -0.3589 -0.0470 -0.3151
55042W        W97955  12.204  17.713  13.680  0.2536 -0.3427  0.3828
55043W        W97956  13.002  10.775  15.957  0.1366 -0.2449 -0.0335
55044W        W97957   6.399  17.479  14.043 -0.1635  0.1371  0.2659
55045W        W97958  10.370   5.187  17.960 -0.1321  0.0802 -0.2538
55046W        W97959   7.252  16.604  22.945  0.0781 -0.0383  0.3729
55047W        W97960   1.932  33.022  20.480 -0.2950 -0.1243 -0.0034
55048W        W97961  15.386   9.638  15.842 -0.1749 -0.1784  0.1832
55049W        W97962   6.208  15.650  16.594 -0.1468  0.2926 -0.2187
55050W        W97963   9.350  14.874  20.599 -0.0282  0.0998  0.1143
55051W        W97964  16.441  12.469  13.907 -0.2952 -0.0033 -0.1676
55052W        W97965  19.167   3.762  14.221  0.3669 -0.2119  0.0535
55053W        W97966  11.436  21.289  17.295  0.0384 -0.2670  0.2482
55054W        W97967  16.068  30.820  19.710 -0.1957  0.0351  0.1747
55055W        W97968  15.845   9.646  20.684 -0.0303 -0.0588  0.2358
55056W        W97969  11.296  11.683  17.798 -0.0902 -0.1422 -0.0247
55057W        W97970  16.594  11.719  20.003 -0.3566 -0.0106  0.1714
55058W        W97971  17.198  15.938  11.627 -0.0389  0.1114  0.0504
55059W        W97972  11.050  16.103  25.284  0.1683 -0.1462  0.0522
55060W        W97973   8.629   5.176  20.127 -0.1600 -0.0248  0.2425
55061W        W97974  18.616   4.903  17.326  0.1417  0.0796 -0.1697
55062W        W97975  19.769  25.647  16.277  0.0192  0.0724 -0.0765
55063W        W97976  11.303  16.110  12.965  0.2428  0.0728 -0.1239
55064W        W97977   4.304  13.944  15.605  0.1115 -0.0705  0.1050
55065W        W97978  16.255   7.144  19.488  0.1211 -0.1523 -0.1552
55066W        W97979  11.619   6.856  16.958  0.2681  0.1632 -0.1398
55067W        W97980  16.317   7.859  18.033 -0.1779 -0.2329  0.0690
55068W        W97981  13.852   9.894  15.793 -0.1466 -0.1415 -0.0038
55069W        W97982  19.028   5.814  17.424  0.0836  0.0660 -0.0443
55070W        W97983  16.983  26.882  22.931 -0.1606 -0.1141  0.3316
55071W        W97984   2.925  13.603  17.592 -0.0643  0.1286  0.0082
55072W        W97985  18.088   0.590  16.892  0.1133  0.1469  0.3642
55073W        W97986  15.415  14.524  12.139 -0.1402  0.4856  0.2172
55074W        W97987   8.714  12.777  22.792  0.0695 -0.0464 -0.3280
55075W        W97988  14.877  15.168  15.038  0.2083 -0.0171  0.1009
55076W        W97989  19.624  11.993  11.907  0.2091 -0.0592 -0.1957
55077W        W97990  30.794  31.152  19.431 -0.1314  0.1707 -0.2209
55078W        W97991  16.386   9.038  23.642  0.4332 -0.4231  0.0891
55079W        W97992  17.218   5.797  22.432  0.0704  0.1335  0.1206
55080W        W97993  16.537  11.220  14.174 -0.1300  0.1785  0.1619
55081W        W97994   9.644   9.715  17.712  0.1110 -0.0635 -0.0433
55082W        W97995   9.762  15.550  22.789 -0.2755  0.2760 -0.2117
55083W        W97996   8.870  14.368  14.648 -0.1044 -0.2345 -0.1341
55084W        W97997  20.904  10.436  18.676  0.1060  0.4105  0.1725
55085W        W97998   9.830  11.300  16.028  0.0649  0.3468 -0.1804
55086W        W97999  10.354  15.099  13.730  0.1352  0.2356 -0.0112
55087W        W98000  12.452  13.026  12.710  0.2129 -0.0886  0.0080
55088W        W98001   7.295  33.158  24.439  0.0439 -0.0056 -0.2700
55089W        W98002   7.649  14.970  17.008  0.0887 -0.0500  0.1492
55090W        W98003   7.849  28.627  19.915  0.1336  0.1377 -0.0315
55091W        W98004  15.193   1.291  18.571 -0.0918 -0.0573  0.0262
55092W        W98005  14.962   7.691  18.605 -0.1103  0.1517  0.1802
55093W        W98006  12.566   8.213  15.104  0.1903 -0.0842  0.0961
55094W        W98007  24.668   5.935  15.597  0.1770 -0.0302 -0.2481
55095W        W98008  20.822  13.876  18.273 -0.0705 -0.0087 -0.0588
55096W        W98009  16.099   8.006  14.846 -0.1402 -0.2215 -0.1113
55097W        W98010   8.153  10.155  20.061  0.2037  0.5055 -0.1350
55098W        W98011  14.717   6.785  16.094 -0.1603  0.1201 -0.0209
55099W        W98012   8.628  13.004   2.201  0.0855 -0.0011 -0.0562
55100W        W98013   5.417   5.701  27.840  0.0876 -0.3135  0.2322
55101W        W98014  20.749  34.300  16.362 -0.3858 -0.1201  0.2151
55102W        W98015  10.088   7.106  21.895  0.2542  0.2386 -0.1547
55103W        W98016  19.524   9.890  17.386  0.2124  0.0442 -0.0026
55104W        W98017  10.569  11.079  19.294  0.2901  0.2896  0.0181
55105W        W98018   9.802  13.429  16.736 -0.0380  0.5403  0.2203
55106W        W98019  24.072   5.890  20.219  0.2661  0.0171  0.0052
55107W        W98020   8.966  17.930  12.772  0.1530 -0.0952 -0.1790
55108W        W98021  14.685  23.820  14.410  0.1703  0.1733  0.1994
55109W        W98022  17.697  10.078  24.874 -0.0321 -0.2441  0.3223
55110W        W98023  14.466   8.325  18.011 -0.0954  0.3421 -0.0598
55111W        W98024  20.275   6.596  13.468 -0.2212  0.0299  0.0948
55112W        W98025  18.605   4.810  14.163  0.0296  0.1975  0.1087
55113W        W98026  14.540   0.236  20.935 -0.1536 -0.0872  0.2471
55114W        W98027   9.521  13.858  14.964 -0.0966  0.1008  0.1991
55115W        W98028   7.975   6.840  17.335 -0.3507  0.0592  0.1794
55116W        W98029  18.985   7.115  18.732  0.1562 -0.0700  0.0484
55117W        W98030   6.026   5.983  18.196  0.1483  0.2880 -0.1064
55118W        W98031  19.700  14.350  15.568 -0.3383 -0.2835  0.0190
55119W        W98032  21.937   7.032  20.133 -0.1985  0.0798  0.0142
55120W        W98033  21.538   6.170  17.348  0.0624  0.0017 -0.1626
55121W        W98034   8.561   7.676  19.686 -0.2570  0.0472  0.5787
55122W        W98035  16.440  17.370  13.559 -0.0691  0.1787  0.0245
55123W        W98036  14.636  10.728  23.942 -0.1442  0.2919  0.1532
55124W        W98037   9.122  10.799  22.571 -0.1858 -0.0505 -0.1075
55125W        W98038   4.282   6.467  16.403 -0.0959  0.2339  0.0483
55126W        W98039   7.980   2.513  25.332 -0.0017 -0.0960 -0.0436
55127W        W98040  19.455   7.689  14.448  0.2413 -0.1289  0.1192
55128W        W98041   7.029   5.784  19.116 -0.0784  0.0355 -0.1637
55129W        W98042  20.355   0.444   5.724 -0.2349 -0.2399 -0.0382
55130W        W98043  11.417  10.779  23.194  0.0911 -0.1775  0.2767
55131W        W98044  32.487  12.135  21.147 -0.0406 -0.0841  0.3620
55132W        W98045   7.652  33.636  21.773 -0.0966 -0.0596 -0.1448
55133W        W98046   8.429  12.371  20.047  0.0332  0.1751 -0.1514
55134W        W98047  22.393   7.025  17.706  0.0570 -0.0068 -0.1359
55135W        W98048  20.071  15.911  11.674 -0.2229 -0.1791 -0.0924
55136W        W98049  13.343  11.442  20.564 -0.2594 -0.1612 -0.2018
55137W        W98050   8.997  11.887  19.488 -0.1250  0.2509 -0.1755
55138W        W98051  12.635   9.814  14.910 -0.0185 -0.1121 -0.2102
55139W        W98052  13.294  13.410  13.046  0.3549 -0.2037 -0.1035
55140W        W98053  16.521  13.242  19.437 -0.0206  0.2300 -0.4439
55141W        W98054  11.158   7.095  19.320  0.0377  0.1757  0.0958
55142W        W98055  16.019   7.528  18.673 -0.0740  0.2629  0.1422
55143W        W98056  12.665   3.834  23.946  0.1393  0.0590 -0.0735
55144W        W98057   9.506  12.038  17.119  0.5666 -0.0859  0.1358
55145W        W98058  22.071  34.196  21.609 -0.0609  0.2842  0.2790
55146W        W98059   1.492  16.099  21.011  0.0730 -0.0368 -0.0175
55147W        W98060  15.824  11.430  15.765  0.0052 -0.3169 -0.1199
55148W        W98061  15.166   6.556  21.958 -0.2454 -0.1271 -0.3348
55149W        W98062  17.254  12.791  14.226 -0.0993  0.2129  0.2249
55150W        W98063  17.745  26.160  17.885 -0.3135  0.1875  0.2868
55151W        W98064  18.383   6.414  16.659 -0.1418 -0.2278 -0.2170
55152W        W98065  13.410   0.562  29.038 -0.0437 -0.1035  0.1189
55153W        W98066   0.842  20.687  18.506 -0.2612 -0.0852  0.0704
55154W        W98067  27.778  20.203  15.223  0.2936  0.1469 -0.2308
55155W        W98068  17.325   1.358  15.683 -0.0615 -0.2100 -0.2366
55156W        W98069  19.898  33.303  17.000 -0.0672  0.1097  0.3601
55157W        W98070  19.221   0.040  13.964 -0.0291 -0.2726  0.1752
55158W        W98071   8.715  15.078  21.685 -0.0466 -0.1275 -0.2717
55159W        W98072  15.271   7.480  16.347  0.0199  0.1664  0.1665
55160W        W98073  26.052   1.049  19.766  0.2661  0.4986 -0.1354
55161W        W98074  17.861   7.135  13.696 -0.1981  0.1000 -0.0728
55162W        W98075  12.569  12.134  14.767 -0.1567  0.0527  0.2627
55163W        W98076  11.335  17.549  15.769 -0.0011 -0.0714  0.4631
55164W        W98077   9.007  16.764  14.449  0.1599 -0.1978  0.1138
55165W        W98078  20.096  28.498  14.689  0.1340  0.0335  0.0686
55166W        W98079  14.707   8.388  16.246  0.0331 -0.0788 -0.0613
55167W        W98080   6.875  18.373  15.649 -0.0234  0.1756 -0.0908
55168W        W98081  18.824   7.205  15.353  0.0005  0.0154 -0.0691
55169W        W98082  18.832   7.534  16.795  0.0183  0.0624 -0.0361
55170W        W98083  17.287  11.292  13.872 -0.0833  0.2344  0.0646
55171W        W98084  14.675   9.767  17.389  0.0235  0.1465  0.0146
55172W        W98085  20.752  21.241  13.766  0.1332  0.1584  0.1905
55173W        W98086   3.429  33.796  20.176 -0.1409  0.0173  0.1397
55174W        W98087  22.887  10.007  17.816  0.0789  0.1006  0.0338
55175W        W98088  24.313  12.442  13.524  0.2494 -0.0128 -0.0206
55176W        W98089  14.942  15.190  27.298  0.0247 -0.1169  0.1653
55177W        W98090   5.654  18.607  14.018  0.1523  0.5121  0.0679
55178W        W98091  11.755  12.428  18.075 -0.1007  0.1903  0.1283
55179W        W98092  12.306  18.681  16.116 -0.0523 -0.0140  0.0303
55180W        W98093  27.493  28.241  25.313 -0.1049  0.2217 -0.0123
55181W        W98094   9.269   8.860  18.109  0.2670 -0.1043 -0.1363
55182W        W98095   9.415   8.555  25.809  0.0125  0.3177 -0.0784
55183W        W98096   8.575  13.226  21.467  0.1469 -0.0686  0.2759
55184W        W98097  17.249  11.882  12.217  0.2559  0.0203  0.3076
55185W        W98098   8.901  31.156  16.761 -0.1113 -0.1341 -0.0544
55186W        W98099  30.221   6.971  20.408  0.1682  0.1047  0.2548
55187W        W98100   6.525  10.291  20.160 -0.3888  0.0560 -0.3437
55188W        W98101  16.698  15.837  11.716  0.2731  0.0714 -0.1877
55189W        W98102  10.083  11.748  23.825 -0.2609 -0.2185  0.2906
55190W        W98103   9.832   5.460  17.169 -0.1515 -0.3148  0.0836
55191W        W98104  16.055  12.364  19.574 -0.1092 -0.1597 -0.0774
55192W        W98105  31.269  10.388  21.396  0.1847  0.0215 -0.2138
55193W        W98106  10.357  14.089  14.173 -0.2763  0.0386 -0.3640
55194W        W98107  12.299   9.496  18.416 -0.2961  0.1958  0.3683
55195W        W98108   4.357  13.841  16.567 -0.0753 -0.2519  0.0948
55196W        W98109  16.659   7.486  20.165 -0.0455 -0.1114 -0.0705
55197W        W98110  15.073  12.296  14.165  0.1059 -0.2359  0.2175
55198W        W98111  20.406   4.459  22.533  0.0576  0.2380 -0.1046
55199W        W98112   8.512  20.996  18.312 -0.1656 -0.0220 -0.1023
55200W        W98113  17.151  11.163  21.090  0.4479  0.0402 -0.0423
55201W        W98114   6.930  21.847  25.576 -0.2354 -0.0583 -0.4059
55202W        W98115  12.462  16.036  17.183 -0.1818  0.0379 -0.0092
55203W        W98116   1.321   3.607  18.319  0.0565  0.0067 -0.0359
55204W        W98117  21.753  13.852  13.950 -0.1718 -0.3528  0.1618
55205W        W98118   8.537  12.221  17.103 -0.1195 -0.2018 -0.1683
55206W        W98119  17.441   7.209  17.932  0.0790 -0.1730 -0.1503
55207W        W98120   7.765  17.985  27.319 -0.0457 -0.0283 -0.0410
55208W        W98121  21.222   8.470  14.951  0.0083 -0.1612 -0.0088
55209W        W98122  19.619   5.125  26.171 -0.3510  0.2700 -0.3551
55210W        W98123   5.339  10.505  19.792  0.4463  0.1411 -0.1237
55211W        W98124  22.490   6.214  15.122  0.0292  0.1723 -0.1285
55212W        W98125  18.784  10.536  11.890  0.2076  0.3077  0.1798
55213W        W98126  16.292  11.203  15.558  0.1916 -0.0447  0.3217
55214W        W98127  14.420   8.513  15.883  0.1023 -0.0511 -0.0319
55215W        W98128  12.851   7.980  24.002  0.0331  0.0453 -0.1223
55216W        W98129  11.772   4.855  16.681 -0.5460 -0.0795 -0.0973
55217W        W98130   9.204  17.476  24.175 -0.0818  0.0411 -0.0149
55218W        W98131  15.971   2.928  17.234  0.1315  0.1588 -0.0125
55219W        W98132   8.193  10.479  29.551  0.1478  0.3086  0.1378
55220W        W98133  10.671   7.992  25.791 -0.0881 -0.0979  0.0628
55221W        W98134  13.035  12.113  22.929 -0.0730  0.2156  0.2849
55222W        W98135   9.725  12.251  15.191 -0.1888  0.0226 -0.0187
55223W        W98136  17.913   5.516  19.805  0.2467  0.0004 -0.0759
55224W        W98137  11.862  20.075  17.176  0.0686  0.1729  0.3167
55225W        W98138  11.901  22.454  16.762 -0.1581 -0.0946  0.2108
55226W        W98139  29.296   4.678  18.914 -0.0641 -0.0599 -0.2330
55227W        W98140  12.753  16.219  23.908 -0.2803  0.1593  0.0996
55228W        W98141  17.371  32.723  20.956  0.0398  0.1043 -0.0084
55229W        W98142  19.553  13.687  22.917 -0.0245 -0.0888 -0.1391
55230W        W98143   9.546  11.704  16.028  0.1485  0.1557 -0.2215
55231W        W98144  14.207   7.629  17.361  0.1351  0.3513 -0.0575
55232W        W98145  19.969   1.241  23.406  0.1674  0.2243 -0.0436
55233W        W98146  19.373   2.208  19.116  0.0252  0.0549 -0.2306
55234W        W98147  11.955   7.324  23.344  0.1981  0.2281  0.0792
55235W        W98148  12.545  10.262  16.465  0.2986 -0.2184 -0.0317
55236W        W98149  12.202  20.659  15.800 -0.0442  0.1130  0.0762
55237W        W98150  13.940  11.600  14.612 -0.0052 -0.1811 -0.1926
55238W        W98151  25.543   7.348  21.557  0.1536 -0.0981  0.2201
55239W        W98152  12.459  16.630  15.033  0.0551  0.2339  0.1411
55240W        W98153  22.220   8.705  13.154 -0.1843  0.0534 -0.1138
55241W        W98154  10.179  11.891  22.341  0.3938 -0.0861 -0.2877
55242W        W98155  14.326  11.403  18.086 -0.0640 -0.0854 -0.1049
55243W        W98156  19.478   7.665  24.029 -0.1423 -0.1249  0.0764
55244W        W98157  13.662   3.412  20.018  0.1171 -0.0540 -0.1044
55245W        W98158   4.883  16.239  14.252 -0.0573  0.2000 -0.2864
55246W        W98159  26.595   7.744  20.773 -0.1447  0.1283 -0.0487
55247W        W98160  20.979   9.479  18.502 -0.2604  0.0606 -0.0857
55248W        W98161  15.034  20.032  13.379 -0.0311 -0.0475 -0.0676
55249W        W98162  16.109   1.117  17.826 -0.1407  0.1565 -0.1722
55250W        W98163  13.689  14.067  14.152  0.0176 -0.0428 -0.0457
55251W        W98164  19.581  12.110  17.635 -0.1834 -0.1086 -0.0697
55252W        W98165  13.928  13.850  24.133 -0.0044 -0.1232  0.2408
55253W        W98166  22.677   5.601  27.614  0.0014 -0.1394 -0.3428
55254W        W98167  14.334  30.588  28.835 -0.0022 -0.1689  0.2779
55255W        W98168  13.392   7.011  23.737  0.1432  0.1002  0.0586
55256W        W98169   2.510  20.730  22.431 -0.0599  0.2533 -0.3727
55257W        W98170   4.332  10.168  17.859  0.1442  0.0787 -0.3417
55258W        W98171   1.817   7.049  20.384 -0.0341 -0.0024 -0.1174
55259W        W98172  17.739   5.650  25.275  0.0127 -0.1576  0.0476
55260W        W98173   2.893   1.831  20.634 -0.3395 -0.1099  0.1082
55261W        W98174  14.358  12.522  14.434 -0.1603 -0.2706 -0.1797
55262W        W98175  23.295   9.645  15.967 -0.0021 -0.2172 -0.0423
55263W        W98176  18.218   5.693  14.326  0.0463  0.0012 -0.3398
55264W        W98177  16.666  10.062  16.447  0.1153  0.2774  0.1593
55265W        W98178  10.039  32.348  16.817 -0.0223 -0.0630 -0.2078
55266W        W98179  15.479   1.221  19.020 -0.1581 -0.0635 -0.2770
55267W        W98180  17.651   9.485  27.083  0.2974  0.3724  0.0737
55268W        W98181  14.832  14.481  23.828  0.2110  0.1459  0.1862
55269W        W98182  14.455   8.530  17.132  0.2632 -0.1386  0.1269
55270W        W98183  20.192  12.221  18.527  0.3979  0.0482  0.0573
55271W        W98184  14.803   7.049  19.925 -0.0275  0.1862  0.0568
55272W        W98185  16.479   7.866  23.654  0.1916  0.1621 -0.0581
55273W        W98186   3.379  16.994  19.953  0.2149  0.0853 -0.0865
55274W        W98187  10.706  10.415  19.973 -0.0807 -0.2215  0.2042
55275W        W98188  21.727   6.683  16.717  0.0749 -0.0084  0.1392
55276W        W98189  12.585   4.743  19.497 -0.3311 -0.3835 -0.0606
55277W        W98190   5.159   7.059  25.939  0.1889  0.0084  0.3033
55278W        W98191  16.041  12.805  13.736  0.1087 -0.0235  0.3204
55279W        W98192  23.991  31.142  19.947 -0.1803  0.0502 -0.0252
55280W        W98193  17.088   9.208  16.968  0.2873 -0.3261  0.2200
55281W        W98194  15.978  12.854  16.113 -0.0732 -0.3287  0.3094
55282W        W98195   6.787  14.180  19.287  0.2432  0.1316 -0.0464
55283W        W98196  20.744   6.476  13.640  0.2820  0.0849 -0.2127
55284W        W98197   8.762  16.371  21.183 -0.0534 -0.0210 -0.5726
55285W        W98198  15.578  10.700  18.110 -0.0991  0.0971 -0.1289
55286W        W98199   1.568  19.743  14.500  0.1980 -0.0032  0.0848
55287W        W98200   9.349   7.571  20.714 -0.2318 -0.1848 -0.0006
55288W        W98201  22.573   0.841  14.757  0.1040 -0.0113 -0.0587
55289W        W98202  20.706   8.906  17.458  0.0175  0.0644 -0.0781
55290W        W98203  14.642  13.346  15.247 -0.2499 -0.0265 -0.0283
55291W        W98204  12.115   9.064  18.457 -0.1184 -0.0004 -0.0180
55292W        W98205  25.080  11.131  17.268 -0.0386 -0.3242 -0.1124
55293W        W98206  11.188  22.469  14.616 -0.2059  0.1416  0.1466
55294W        W98207   8.852   7.686  20.690  0.0287  0.2648 -0.2385
55295W        W98208  21.559  11.410   6.212  0.0881 -0.4132 -0.0054
55296W        W98209  22.541   7.492  21.742  0.0408  0.4408 -0.1428
55297W        W98210  11.358  20.487  16.828  0.3340  0.1662  0.3292
55298W        W98211  12.441   8.284  16.434  0.2925  0.0736 -0.4339
55299W        W98212   0.109  19.575  16.265 -0.0337 -0.0141 -0.1947
55300W        W98213  23.581  11.355  23.762  0.1491 -0.0134 -0.0881
55301W        W98214   1.539  29.162  24.255 -0.3708 -0.1294  0.3698
55302W        W98215  15.046  32.055  18.786  0.2084 -0.0544  0.2102
55303W        W98216  22.531   8.522  21.501 -0.2230  0.2838 -0.0344
55304W        W98217  10.142  17.171  16.836  0.0511 -0.0660  0.0982
55305W        W98218   7.562  11.097  17.084 -0.0894 -0.0788 -0.1591
55306W        W98219  13.587  10.141  16.341 -0.0862  0.0147  0.3323
55307W        W98220  13.942   9.695  23.662  0.0783 -0.1458  0.0766
55308W        W98221  23.493   3.057  20.597 -0.0019  0.1962  0.1054
55309W        W98222   7.040   4.723  17.476 -0.2541 -0.2236 -0.0020
55310W        W98223  15.302   6.180  15.185 -0.0301  0.0908  0.1211
55311W        W98224   7.798  13.989  14.709 -0.1973  0.0631 -0.1148
55312W        W98225  17.275   6.652  17.263 -0.0447  0.0499  0.1715
55313W        W98226  20.576   7.912  19.135  0.1517 -0.0626 -0.4574
55314W        W98227   6.762  22.415  16.443  0.1965  0.0102 -0.0832
55315W        W98228  13.552  13.072  15.259 -0.1915  0.0772 -0.1012
55316W        W98229  11.333   3.123  17.714 -0.2496 -0.0011  0.2673
55317W        W98230  30.716   0.946  24.653 -0.0523  0.0606  0.1296
55318W        W98231  12.478  11.319  29.345 -0.1817  0.1144  0.2229
55319W        W98232  10.352   7.558  19.797  0.2773  0.2067  0.2934
55320W        W98233   6.857   9.750  21.328 -0.0758 -0.0276  0.1484
55321W        W98234   6.268  22.416  15.426 -0.1619  0.1680 -0.1537
55322W        W98235  30.096   9.234  22.720 -0.0009  0.1008  0.1335
55323W        W98236   9.458  13.508  21.076  0.1311 -0.0348  0.2719
55324W        W98237  10.201  14.329  15.953 -0.3059  0.0961 -0.2128
55325W        W98238  10.206   5.274  21.512  0.1364 -0.0785 -0.0922
55326W        W98239  25.957  13.878  20.442  0.0763 -0.3490  0.1278
55327W        W98240  20.507   2.943  26.223  0.3587 -0.2708 -0.3101
55328W        W98241   1.199  10.758  25.230  0.0577 -0.0280  0.0198
55329W        W98242  17.217   8.437  16.596 -0.2060  0.0498  0.1929
55330W        W98243   7.227  13.176  16.747  0.0117  0.2215 -0.5004
55331W        W98244   9.117   0.106  23.321 -0.2335 -0.1304 -0.3133
55332W        W98245   7.067  12.334  15.178 -0.1938  0.3275 -0.2524
55333W        W98246  13.307  18.100  16.592  0.0436 -0.0879  0.0724
55334W        W98247   3.069  17.381  17.929  0.2825  0.3987  0.2348
55335W        W98248  19.153   5.725  17.898  0.1866 -0.0353  0.0424
55336W        W98249  15.411  12.186  16.247 -0.3272  0.1384 -0.2038
55337W        W98250   5.996   0.731  18.241  0.0063 -0.0255  0.1235
55338W        W98251   6.780   8.796  19.035  0.3117  0.2070  0.2408
55339W        W98252   8.869  14.891  29.582  0.1301 -0.1701 -0.2828
55340W        W98253   3.339   4.691  17.899  0.3091 -0.3525  0.2316
55341W        W98254  17.390   5.615  19.568  0.1192  0.1081 -0.1977
55342W        W98255   9.552  10.988  24.905  0.0160  0.0543  0.1011
55343W        W98256  16.278   7.294  16.522  0.1347  0.3314 -0.0234
55344W        W98257  27.063   6.735  28.635  0.1127 -0.0035 -0.2985
55345W        W98258  12.360  13.564  12.456  0.2000  0.0481  0.0787
55346W        W98259   5.995   2.232  26.186 -0.0347  0.0044  0.1950
55347W        W98260  13.828  15.399  12.252  0.2286  0.2902  0.2107
55348W        W98261  15.795   7.633  19.831 -0.0981  0.2623  0.0676
55349W        W98262  12.726  17.097  18.302  0.3660  0.3433 -0.0828
55350W        W98263  11.431   4.358  24.807 -0.1258 -0.3611  0.0301
55351W        W98264  13.310   6.011  18.904 -0.0319  0.1194 -0.0233
55352W        W98265   5.946  15.922  16.067 -0.2183 -0.4147  0.3880
55353W        W98266   6.444  20.221  19.316  0.1163  0.2086 -0.0459
55354W        W98267  12.762   8.680  17.638 -0.0958  0.1935 -0.0965
55355W        W98268   2.837   9.244  17.703  0.0028  0.0633 -0.1936
55356W        W98269   4.952  14.108  23.579 -0.0980  0.1846  0.0712
55357W        W98270  25.486  13.110  22.298 -0.2372  0.0284  0.1219
55358W        W98271  13.938   7.059  15.246 -0.0838 -0.0794  0.1233
55359W        W98272  14.187   6.301  19.155  0.1060 -0.1127 -0.1270
55360W        W98273  15.154   4.612  16.735  0.0646 -0.0025 -0.4046
55361W        W98274  13.262   6.739  21.550  0.0953  0.0340  0.3970
55362W        W98275  17.533  12.230  12.689  0.0309 -0.0423  0.0031
55363W        W98276  14.475  13.036  13.046  0.2469 -0.2315  0.3188
55364W        W98277  29.304  15.082  15.004 -0.0712  0.0834  0.0245
55365W        W98278  15.249   8.785  17.434  0.2044 -0.2723 -0.3361
55366W        W98279  20.411  19.044  14.128 -0.1694  0.1534  0.2207
55367W        W98280  12.718   7.236  28.567 -0.0223  0.2477 -0.1341
55368W        W98281  10.498   1.463  21.066  0.0774  0.3079 -0.0355
55369W        W98282  20.072  22.110  23.612 -0.1278  0.1312  0.0367
55370W        W98283   1.216   2.469  24.871  0.1459 -0.1244  0.2819
55371W        W98284  21.650   9.132  13.694  0.3157  0.3208 -0.1957
55372W        W98285  11.564   2.413  21.349 -0.1524  0.1500  0.1179
55373W        W98286  10.989  16.704  16.315 -0.0375 -0.2112  0.0398
55374W        W98287  18.348   5.254  18.244 -0.1371 -0.0756  0.0617
55375W        W98288  16.758   8.375  15.910 -0.0585 -0.0882 -0.0338
55376W        W98289   1.643   6.931  16.920 -0.0746  0.2440 -0.0724
55377W        W98290   3.633   8.027  22.980 -0.2526  0.1023 -0.1708
55378W        W98291  14.535  12.622  14.925  0.2535  0.3181 -0.0090
55379W        W98292   7.587  16.737   4.716 -0.0146  0.0439 -0.0538
55380W        W98293   6.357  16.960  23.030 -0.1187 -0.1038 -0.0373
55381W        W98294  14.142  13.373  15.050  0.1459 -0.3332 -0.0714
55382W        W98295  26.041   7.284  20.350 -0.0477 -0.0160  0.0659
55383W        W98296  16.323  32.782  23.001  0.2693 -0.1252 -0.2108
55384W        W98297  15.964  12.664  14.246 -0.0322  0.3488  0.2142
55385W        W98298  12.917   6.052  18.058  0.0543 -0.1092 -0.0346
55386W        W98299  26.062  24.826  19.090  0.1414 -0.2390 -0.1554
55387W        W98300  12.728  19.151  19.210 -0.1124 -0.0806  0.1951
55388W        W98301  23.540   0.969  18.605  0.0490  0.2450  0.2044
55389W        W98302  22.101  23.487  19.449  0.0958  0.1874  0.0274
55390W        W98303   6.787  34.479  17.693  0.0125 -0.0059  0.2618
55391W        W98304  18.392   9.031  16.534 -0.0576  0.2051 -0.2124
55392W        W98305   8.690  11.844  16.512  0.2097 -0.1906  0.0236
55393W        W98306  15.128  16.837  24.844 -0.2137 -0.2784  0.3376
55394W        W98307   9.053  21.435  23.657 -0.2096 -0.2052 -0.1612
55395W        W98308  13.326  28.836   0.637 -0.3326  0.2115  0.2460
55396W        W98309  32.316   9.963  15.672  0.2319  0.3481  0.0459
55397W        W98310  17.121  19.877  13.808  0.1835 -0.0622 -0.1427
55398W        W98311  21.976   2.261   2.062  0.1486 -0.2782 -0.2615
55399W        W98312  14.048   2.939  20.029 -0.0078  0.0162 -0.0472
55400W        W98313  24.199   4.672  14.718  0.0572 -0.3609  0.1803
55401W        W98314  16.793  17.523  11.792  0.2017 -0.0918  0.1291
55402W        W98315  12.522  11.512  15.982 -0.0308  0.2823 -0.4243
55403W        W98316  20.057  12.521  12.683 -0.4024 -0.0300  0.3865
55404W        W98317  15.290  11.305  17.072 -0.0698 -0.3988 -0.2267
55405W        W98318  16.360  10.522  16.588  0.0798  0.1959 -0.2339
55406W        W98319   4.361   0.477  22.983  0.0545 -0.1155  0.1296
55407W        W98320  11.673  16.140  26.761 -0.1161  0.1541 -0.2309
55408W        W98321  10.863  14.150  19.347 -0.1381  0.1465 -0.1963
55409W        W98322  17.134  33.023  23.939 -0.1180 -0.3740 -0.2158
55410W        W98323  11.461  12.441  13.588 -0.1026  0.1428 -0.1178
55411W        W98324  31.350   7.403   0.770  0.2724 -0.0699  0.2497
55412W        W98325   5.589   7.238  19.215 -0.3770  0.0791 -0.3346
55413W        W98326   8.099  19.400  25.164 -0.0055 -0.3948  0.1994
55414W        W98327  13.679  16.885  14.200  0.0545  0.2146 -0.0122
55415W        W98328   0.541   3.982  19.879 -0.0203 -0.2552 -0.0675
55416W        W98329   5.564   1.713   0.159  0.2024  0.4409 -0.0148
55417W        W98330  10.629   5.615  28.635 -0.0661  0.1535 -0.3408
55418W        W98331  16.943   8.934  16.511  0.1585 -0.0377  0.4933
55419W        W98332  15.301   7.130  21.620 -0.0009  0.0471  0.2593
55420W        W98333  13.240  23.183  15.920  0.1739  0.0423  0.2897
55421W        W98334  19.862  13.624  11.743  0.0203  0.1223  0.2885
55422W        W98335  12.117   0.551  19.854  0.0510  0.0862  0.0896
55423W        W98336  10.085   2.245  20.897  0.1950  0.1942 -0.2885
55424W        W98337  20.348   7.057  21.396 -0.1640  0.0497  0.0120
55425W        W98338  20.409   4.739  20.120  0.2091 -0.2043  0.0796
55426W        W98339  12.673  11.711  18.159 -0.3969 -0.2589  0.1632
55427W        W98340  14.358   7.337  15.071  0.0998 -0.1525 -0.4077
55428W        W98341  24.323   3.398  25.077  0.2848 -0.0508 -0.0315
55429W        W98342  11.715  11.353  24.735 -0.3207  0.1986 -0.1245
55430W        W98343  11.460  14.575  17.441 -0.0765 -0.0378 -0.0627
55431W        W98344  16.568  12.765  20.499  0.1336  0.2852  0.0431
55432W        W98345  12.107  11.901  17.200  0.3661  0.2198 -0.0803
55433W        W98346   7.020  10.699  18.535 -0.0799 -0.0518 -0.0949
55434W        W98347   8.906  10.748  20.045  0.1901 -0.0035 -0.1625
55435W        W98348  10.321   5.123  17.279 -0.1010  0.0054  0.2483
55436W        W98349  15.340   4.017  25.304  0.1061  0.0049  0.2077
55437W        W98350   4.707  13.008  21.480  0.0584 -0.4531  0.0753
55438W        W98351  17.362   8.586  19.173  0.1749  0.0370  0.1516
55439W        W98352  16.400  13.312  20.428 -0.0884 -0.0131 -0.4283
55440W        W98353   6.751  11.883  18.866  0.2443 -0.2322 -0.0472
55441W        W98354  23.113   8.767  18.971  0.0687  0.1865  0.3696
55442W        W98355   1.783   9.408   3.466  0.1778  0.2384 -0.0866
55443W        W98356   7.048  20.897  17.216 -0.0013  0.1204 -0.0402
55444W        W98357  17.944  16.694  17.601 -0.0874  0.0634 -0.0792
55445W        W98358  16.007   7.579  21.803 -0.3053  0.2903 -0.1636
55446W        W98359  11.644   9.966  18.014  0.1074 -0.0892 -0.0664
55447W        W98360  19.525  34.430  17.653  0.0771  0.7172  0.1531
55448W        W98361  21.235   5.748  18.196  0.2946  0.0803  0.0357
55449W        W98362  26.013  18.250  13.717  0.2333  0.1898  0.2711
55450W        W98363  20.013   6.062  18.407 -0.3099  0.1033  0.0669
55451W        W98364   2.072  16.120  20.850 -0.0639 -0.0750  0.0921
55452W        W98365  21.748  17.654  16.517  0.5307  0.2344 -0.0525
55453W        W98366  13.826  11.055  13.538  0.1915  0.1371 -0.0164
55454W        W98367  17.443  11.552  14.426 -0.2609  0.1434 -0.2168
55455W        W98368   2.474  10.388  25.484  0.1391  0.3216  0.0451
55456W        W98369  14.240   5.992  24.275  0.2209 -0.0797 -0.0468
55457W        W98370   1.452   0.543  24.696 -0.1919  0.2329  0.2139
55458W        W98371   4.009  10.644  21.587  0.1546  0.2364  0.1888
55459W        W98372  10.738   6.834  18.163 -0.1400 -0.1864  0.0668
55460W        W98373  17.675   2.057  23.746  0.0220 -0.2416  0.1104
55461W        W98374   0.572  12.742  22.192 -0.0881 -0.0131 -0.1592
55462W        W98375  19.703  11.736  24.158 -0.1532 -0.3789  0.1566
55463W        W98376  20.507  13.052  23.642  0.1589  0.0473  0.1459
55464W        W98377   2.019   5.548  24.024  0.0335 -0.1381 -0.4856
55465W        W98378   6.799  13.412  15.890 -0.2357 -0.4884  0.1372
55466W        W98379   1.520  14.335  13.693  0.2757  0.0034  0.1315
55467W        W98380  13.357   8.119  22.945  0.1011  0.1345  0.2329
55468W        W98381  10.877  11.858  16.435 -0.2589 -0.0902  0.2156
55469W        W98382  11.580  22.551  21.405  0.0577 -0.4747  0.1254
55470W        W98383   5.579  13.573  15.052 -0.1237  0.0076  0.0155
55471W        W98384  20.789   8.829  16.216  0.0949  0.0489 -0.0647
55472W        W98385  17.370   5.716  14.862 -0.0873  0.3505  0.5079
55473W        W98386  20.416  33.001  21.138  0.0783  0.0326 -0.1406
55474W        W98387   8.187  10.977  15.914 -0.0373  0.3079 -0.0533
55475W        W98388  14.948   8.937  17.966 -0.0751  0.0936 -0.0642
55476W        W98389  13.012  16.599  14.855 -0.1120 -0.2445  0.2747
55477W        W98390  13.160   8.361  18.418 -0.0360  0.2342 -0.1101
55478W        W98391  10.765  12.638  27.224  0.1893  0.2682  0.0389
55479W        W98392  13.282  13.240  17.678  0.2427 -0.0894  0.1803
55480W        W98393  16.402   6.275  18.976 -0.0507  0.0223  0.1064
55481W        W98394   2.882  11.134  22.405 -0.1292  0.1943 -0.1566
55482W        W98395  22.511   8.436  17.151 -0.0283  0.0616  0.1959
55483W        W98396  22.475   8.787  17.781  0.0633  0.0906 -0.0624
55484W        W98397  17.487  12.985  20.426  0.3148 -0.0901 -0.0182
55485W        W98398  13.315  16.059  19.278 -0.1039 -0.0041 -0.2173
55486W        W98399   1.709   8.898  18.050 -0.2119  0.3778  0.2683
55487W        W98400   0.536  33.224  17.417 -0.2298  0.0767 -0.0221
55488W        W98401   6.777  15.895  14.237 -0.1701  0.0217  0.5124
55489W        W98402   8.820   5.884  19.598  0.2318 -0.1430  0.2104
55490W        W98403  21.743  13.063   8.745 -0.0851  0.0307  0.3517
55491W        W98404  19.057   5.161  24.506  0.2831  0.0092 -0.1992
55492W        W98405  21.098   1.772  26.417 -0.2847 -0.1004  0.1170
55493W        W98406   4.966   5.134  17.964  0.0431  0.0767 -0.2728
55494W        W98407  21.373  21.431  15.376  0.2920 -0.1731  0.3813
55495W        W98408   7.667  15.365  19.542 -0.2558  0.3002 -0.0657
55496W        W98409   6.062  15.552  13.891  0.0968 -0.2055 -0.0952
55497W        W98410  23.136   7.370  20.576  0.0972 -0.0242 -0.1047
55498W        W98411   5.774   5.870  29.261 -0.1122  0.0494  0.1856
55499W        W98412  11.519   7.920  24.691  0.2265  0.0005 -0.1171
55500W        W98413  21.378   7.946  23.729  0.0438  0.1218  0.0135
55501W        W98414   2.113  12.564  16.860  0.1917 -0.0448 -0.2286
55502W        W98415   7.471   5.602  19.596 -0.0448 -0.1282  0.1858
55503W        W98416  22.462   9.099  14.268  0.1180  0.1289  0.1485
55504W        W98417  11.977  10.704  15.765 -0.0189  0.0734 -0.0029
55505W        W98418  14.411   6.050  14.969 -0.0506  0.2865 -0.1927
55506W        W98419   9.317  14.366  21.245 -0.3750  0.4170  0.0628
55507W        W98420   8.291   7.278  28.347 -0.1011  0.2606 -0.3523
55508W        W98421  13.587  11.245  21.799  0.1187 -0.1884  0.1068
55509W        W98422   9.863  14.540  18.114 -0.0865  0.0599  0.0313
55510W        W98423  27.522  12.213  23.166  0.1908 -0.2160  0.1579
55511W        W98424  11.867   7.458  21.424  0.0161  0.0289  0.0291
55512W        W98425  33.766  16.113  20.274 -0.0557 -0.2140  0.1245
55513W        W98426  11.407   3.233  16.953 -0.1004  0.0353  0.2035
55514W        W98427  23.018   1.134  20.304  0.0066  0.1322  0.4216
55515W        W98428  10.172   4.706  20.442 -0.1480  0.1281  0.1821
55516W        W98429   3.344  16.051  21.924 -0.1258 -0.2218 -0.1773
55517W        W98430   6.212  26.106  25.885  0.0125  0.0233 -0.0242
55518W        W98431  22.387   8.172  18.673  0.2272 -0.0024  0.0487
55519W        W98432  12.962  13.623  24.609  0.1171  0.4453 -0.0034
55520W        W98433   7.539  11.705  22.575  0.0432 -0.0564 -0.0277
55521W        W98434  29.717   8.981  17.231  0.2556  0.2465 -0.3041
55522W        W98435  17.404  11.454  18.167 -0.1748 -0.1413  0.2039
55523W        W98436  14.074  11.289  13.896  0.1106  0.0234  0.3088
55524W        W98437   6.847   5.628  26.219  0.0262 -0.0693 -0.2535
55525W        W98438  14.483  14.182  16.294  0.1085  0.1469  0.3040
55526W        W98439   5.966  15.270  15.602 -0.0290  0.0841  0.0987
55527W        W98440  17.932   9.754  15.407  0.2154  0.3338 -0.4049
55528W        W98441   6.737  14.950  18.355 -0.0218  0.3532 -0.1223
55529W        W98442  32.877   0.020  29.075  0.0752  0.1023  0.2412
55530W        W98443  19.393  12.572  16.615 -0.2751  0.2133  0.2676
55531W        W98444  13.478  17.359  24.279  0.1070  0.3602  0.1406
55532W        W98445  16.782   2.778   4.458 -0.5350 -0.0454 -0.0850
55533W        W98446  17.085  21.234  15.170  0.2659 -0.0967 -0.1388
55534W        W98447   8.377  27.038  19.592 -0.0010  0.0489  0.0843
55535W        W98448  12.662  16.232  14.833 -0.0476  0.0928 -0.1237
55536W        W98449  13.857   9.898  16.686  0.0401 -0.0229  0.0517
55537W        W98450  10.550   9.157  22.512 -0.2607  0.2341  0.2685
55538W        W98451  17.591  12.196  22.242  0.0306 -0.1225  0.0790
55539W        W98452  23.418  16.384  14.842  0.3094  0.1811  0.0453
55540W        W98453  10.750  33.052  25.358  0.0222 -0.0335  0.1655
55541W        W98454  16.779  13.340  13.855  0.2010 -0.0447  0.0316
55542W        W98455  12.677   1.410  21.120  0.1030 -0.0995  0.0013
55543W        W98456  10.241  12.668  26.537  0.2006  0.1353 -0.1519
55544W        W98457   4.085  16.510  26.753 -0.2820  0.0540 -0.0224
55545W        W98458  15.693   5.856  28.794 -0.3010  0.1280  0.1340
55546W        W98459   2.425   3.141  25.667  0.0382 -0.0517  0.2573
55547W        W98460  18.952   0.229  17.074 -0.3221  0.1094 -0.3009
55548W        W98461   3.027  14.179  25.050  0.3024 -0.0080 -0.2314
55549W        W98462   9.718  19.223  16.649 -0.2191  0.0081  0.1278
55550W        W98463  12.686  33.615  28.979  0.0856  0.0292  0.0744
55551W        W98464  10.871   1.946  25.675 -0.2027 -0.3974 -0.0094
55552W        W98465   4.274  31.982  15.608  0.1435  0.1291  0.1315
55553W        W98466  12.066  16.553  13.301  0.0427 -0.1360  0.1556
55554W        W98467  19.589   6.608  15.586  0.1000 -0.2008 -0.1526
55555W        W98468   2.331   9.156  27.344  0.1464 -0.0639  0.0770
55556W        W98469  19.765  21.284  19.443 -0.0036 -0.1280  0.0561
55557W        W98470  15.294   5.244  20.235  0.0902  0.1049  0.1963
55558W        W98471  16.546   8.188  28.069 -0.1139 -0.1168  0.3793
55559W        W98472   9.948  12.559  23.170 -0.2439  0.0074  0.2656
55560W        W98473  20.004   4.238  26.033  0.0632  0.0160  0.2502
55561W        W98474  18.186   4.564  18.901  0.1224 -0.2274 -0.0484
55562W        W98475   4.556  17.035  20.986 -0.1342 -0.1827 -0.0971
55563W        W98476  14.826  33.325   1.015  0.2891  0.0664  0.0262
55564W        W98477  19.363   7.335   3.227  0.0818 -0.2115  0.2496
55565W        W98478  17.437   8.225  22.334  0.1906  0.2209 -0.0007
55566W        W98479  14.531   6.579  18.332 -0.0678 -0.2106  0.0351
55567W        W98480  21.222   7.289  25.978 -0.3530  0.1590 -0.0055
55568W        W98481  18.342   6.288  24.545  0.2200 -0.4170  0.2278
55569W        W98482  13.642   6.169  19.241  0.2038  0.1730 -0.1382
55570W        W98483   4.928  13.983  21.152 -0.0972  0.0166 -0.1119
55571W        W98484  10.294   7.984  18.949  0.0082 -0.1343 -0.2434
55572W        W98485  24.746  33.978  29.318  0.1294 -0.3449 -0.2242
55573W        W98486   9.372  14.475  23.765 -0.0372 -0.2404 -0.1866
55574W        W98487  16.995   6.253  20.804 -0.0304  0.2969 -0.1446
55575W        W98488   7.031   9.726  17.240 -0.2503  0.0865  0.2346
55576W        W98489  18.410  10.244  20.418 -0.0075  0.1843  0.0988
55577W        W98490  13.460   5.405  17.265 -0.0377  0.1289 -0.0937
55578W        W98491  13.023  11.685  15.863 -0.1931 -0.1495  0.1076
55579W        W98492  25.868  31.222  14.234 -0.1067  0.0055  0.2234
55580W        W98493  16.303  10.985  19.351  0.0177  0.0419  0.0869
55581W        W98494  13.236  15.981  20.804  0.2319 -0.2541  0.3719
55582W        W98495  15.451   7.149  24.562  0.3568  0.0538 -0.3894
55583W        W98496  11.335  10.961  24.566  0.0872  0.1281 -0.0767
55584W        W98497  17.293   3.671  19.955 -0.0910 -0.1576  0.0557
55585W        W98498  17.999  12.442  22.185 -0.0656 -0.1583  0.2526
55586W        W98499   5.600   4.390  20.605 -0.0310  0.0320 -0.1377
55587W        W98500   7.528  14.571  27.688 -0.0167 -0.0051 -0.0692
55588W        W98501  21.687   0.516  14.448  0.3205 -0.1049  0.0487
55589W        W98502  21.918  15.413  21.626 -0.0331 -0.3117 -0.1599
55590W        W98503  10.961  10.217  15.501  0.3801 -0.0494  0.0842
55591W        W98504  23.574  18.061  18.617  0.0819 -0.1093  0.0014
55592W        W98505  31.610  16.753   4.219 -0.2271  0.0400  0.0459
55593W        W98506  17.668   5.784  14.449 -0.0918  0.1037  0.0175
55594W        W98507  23.277   9.782  14.331  0.0163 -0.1426 -0.3271
55595W        W98508  16.993  14.793  14.893  0.1975  0.0052  0.1634
55596W        W98509   5.811  16.891  18.143 -0.0435  0.3144  0.1477
55597W        W98510  10.376  27.064  21.963 -0.0154 -0.0772  0.0203
55598W        W98511  18.622   9.782  12.475  0.2228 -0.1205 -0.1433
55599W        W98512   9.605  21.334  13.593  0.2063 -0.1567  0.2019
55600W        W98513  26.234  16.899  19.017  0.4505  0.2009 -0.1364
55601W        W98514   1.502   7.469  23.727 -0.1173  0.1240 -0.3354
55602W        W98515  15.714   6.786  19.208  0.0943  0.0992 -0.0333
55603W        W98516  18.659   6.054  16.584 -0.2144 -0.0262 -0.2581
55604W        W98517  17.245  11.879  19.299 -0.2410 -0.0380  0.0051
55605W        W98518   8.056   5.016  26.537  0.0239 -0.0895  0.1625
55606W        W98519  17.246  32.578  18.945  0.0465 -0.1102 -0.3074
55607W        W98520  16.807   6.976  15.767  0.0372  0.1610 -0.0797
55608W        W98521  14.810  33.284  20.014 -0.4601  0.0022 -0.1565
55609W        W98522   8.988  13.895  18.068  0.1154  0.0236 -0.2137
55610W        W98523  10.004  14.424  17.061 -0.1826 -0.0911 -0.0343
55611W        W98524  22.881  11.131  14.576  0.1399 -0.3505  0.0400
55612W        W98525  13.630   3.836  17.219 -0.0081 -0.0611 -0.3003
55613W        W98526  12.464   9.985  17.589 -0.1674  0.1199  0.0234
55614W        W98527   5.804  33.342  23.524  0.0058  0.0048 -0.0997
55615W        W98528  23.234   3.907  17.729  0.2950 -0.1566 -0.1005
55616W        W98529   1.127   4.682  20.556 -0.1158 -0.1427  0.1352
55617W        W98530   7.932  16.668  16.023 -0.1962 -0.0568  0.0806
55618W        W98531  20.602   8.380  17.735 -0.3533 -0.2840  0.2287
55619W        W98532  13.421   6.424  24.499 -0.0272 -0.0926  0.3711
55620W        W98533  10.372  13.657  15.469 -0.3121 -0.1990  0.0412
55621W        W98534   9.631   5.670  24.000 -0.0357 -0.3359 -0.0475
55622W        W98535  24.761   6.665  23.364 -0.4188 -0.0528  0.4677
55623W        W98536  13.485  16.049  21.727 -0.1798  0.3946  0.1366
55624W        W98537   9.020  15.782  19.019 -0.2422  0.0574 -0.0476
55625W        W98538  16.270  14.888  29.367 -0.3010  0.0839  0.2719
55626W        W98539  11.291   9.199  24.479 -0.0921  0.0194 -0.0004
55627W        W98540  20.874  27.223  24.735  0.0169  0.0496  0.0628
55628W        W98541  24.864  16.426  25.309 -0.1270  0.1774 -0.1036
55629W        W98542  23.961  12.785  17.161  0.1032 -0.2389  0.1367
55630W        W98543  30.074  14.845  21.039  0.4325  0.1270  0.1410
55631W        W98544   0.730  15.390  22.608 -0.2001  0.0328 -0.0597
55632W        W98545  19.832   9.743  18.772  0.2322 -0.3789 -0.0496
55633W        W98546   8.213  13.153  15.637  0.0304  0.0114  0.0260
55634W        W98547  11.848  29.704  24.934 -0.3184 -0.2069  0.0668
55635W        W98548  13.185  14.648  12.073 -0.1112 -0.0008 -0.1296
55636W        W98549   6.720  22.226  22.572  0.0973  0.0578  0.0329
55637W        W98550  21.101   0.967  22.963  0.0639  0.1666  0.2216
55638W        W98551  20.829  11.109  21.219 -0.2156 -0.1583  0.1257
55639W        W98552  11.210  12.246  15.762 -0.0712 -0.0150 -0.2771
55640W        W98553  10.771   9.608  18.451  0.0726  0.1972 -0.1197
55641W        W98554  28.494   6.237  22.079  0.1613  0.0887 -0.1063
55642W        W98555  15.621   9.544  22.908 -0.0026  0.2881 -0.1504
55643W        W98556  16.624   6.055  15.030  0.0318 -0.4054  0.3062
55644W        W98557   8.716   1.720  27.373 -0.2175 -0.0489  0.2227
55645W        W98558  21.347   4.381  25.268  0.2909  0.0353  0.3499
55646W        W98559  20.077  16.000  29.546 -0.0045 -0.1951  0.0516
55647W        W98560   9.512   6.830  21.052  0.0877  0.3824 -0.3182
55648W        W98561   7.172  10.430  24.482 -0.2583 -0.3656 -0.0548
55649W        W98562   9.703  13.869  22.945  0.0136  0.1662  0.1328
55650W        W98563  26.220  13.180  24.581  0.0002 -0.1610  0.2767
55651W        W98564  16.528   9.692  19.564 -0.0542  0.2773 -0.2195
55652W        W98565  12.838  11.746  29.583  0.1005 -0.2641 -0.0579
55653W        W98566  11.794  13.776  24.950  0.0645 -0.1751  0.0128
55654W        W98567  12.598  11.871  13.600 -0.0786 -0.2981  0.0158
55655W        W98568  25.540   6.070  17.902  0.1080  0.2729 -0.0878
55656W        W98569  34.174   9.750  15.931 -0.0967  0.0387 -0.0450
55657W        W98570  15.067   6.018  22.629  0.2526  0.2282  0.0320
55658W        W98571  14.233   9.486  17.481 -0.1722  0.4651 -0.0957
55659W        W98572  10.857   9.312  16.473  0.1766 -0.0433 -0.0271
55660W        W98573  14.028  13.288  19.210  0.0688  0.0051  0.0984
55661W        W98574  12.398  11.496  25.608 -0.1134  0.1909  0.0079
55662W        W98575  13.694  12.682  27.706 -0.4921 -0.1298 -0.1514
55663W        W98576  15.166   7.585  17.133  0.1922  0.0931  0.1551
55664W        W98577  22.008  13.470  14.368 -0.1500  0.2615  0.0346
55665W        W98578  14.296  21.885  19.043  0.0575 -0.1222  0.0709
55666W        W98579   7.226  10.907  24.306 -0.2208  0.2859  0.0584
55667W        W98580  13.800   8.301  23.135  0.0605  0.0357 -0.0539
55668W        W98581  10.482  16.919  13.802  0.0217  0.1342  0.1781
55669W        W98582  11.664   7.948  17.385  0.0332  0.0494 -0.0494
55670W        W98583  18.760  32.530  16.062 -0.4162 -0.1847  0.3250
55671W        W98584  13.613   2.454  21.986  0.1878 -0.0066 -0.1599
55672W        W98585   7.495   0.367  22.362 -0.0518 -0.1735 -0.0950
55673W        W98586  15.184   8.240  22.654  0.0286 -0.2536 -0.0830
55674W        W98587  20.305   4.201  18.010 -0.3117  0.1387  0.1859
55675W        W98588   7.754  12.990  25.095 -0.1015  0.0748 -0.1284
55676W        W98589  17.491  23.468  13.834 -0.0257  0.1449  0.0490
55677W        W98590  14.457  10.607  29.140 -0.1273  0.0157 -0.2696
55678W        W98591  28.233  15.031  14.845  0.0787 -0.0880 -0.0896
55679W        W98592  17.374   7.864  17.212  0.1059  0.0572  0.1995
55680W        W98593  19.628  33.715  25.190 -0.1419  0.0369  0.2126
55681W        W98594  24.726  10.254  17.521  0.1877 -0.0302 -0.5678
55682W        W98595   7.738   1.729  21.186 -0.3723  0.5814  0.1351
55683W        W98596   3.885   6.300  22.395  0.1432 -0.1116 -0.0183
55684W        W98597   7.631  15.434  14.062  0.0326 -0.0976 -0.0721
55685W        W98598   9.616  33.287  17.065 -0.1399  0.1832 -0.2484
55686W        W98599  11.174  12.056  22.622 -0.4167  0.0950  0.0501
55687W        W98600  10.530   9.380  15.687  0.0556  0.1241  0.2204
55688W        W98601  15.518   4.638  15.741  0.0501  0.3925 -0.2502
55689W        W98602  19.392   7.480  15.038  0.0745  0.0832  0.2572
55690W        W98603  11.464   6.411  20.604  0.1744  0.2138 -0.2753
55691W        W98604  15.716  24.222  21.339  0.1268 -0.1694  0.2432
55692W        W98605  11.504  28.217  20.934 -0.0135  0.2055  0.0114
55693W        W98606   3.042  16.014  23.891  0.0331 -0.0615 -0.0336
55694W        W98607  12.143   9.335  18.910 -0.0487 -0.3068 -0.0307
55695W        W98608  18.411   7.671  17.058 -0.0649 -0.0722 -0.1029
55696W        W98609  15.042  10.743  22.328 -0.1109 -0.4307 -0.3705
55697W        W98610  10.193   7.039  24.424 -0.0354 -0.1687 -0.0412
55698W        W98611   8.755  10.255   1.753  0.1242 -0.1020 -0.0974
55699W        W98612  19.049   5.155   0.757  0.1014  0.1281 -0.2166
55700W        W98613  17.757  31.629  20.984  0.1121  0.0286  0.1829
55701W        W98614  12.642  11.486  17.342  0.0577 -0.0242  0.0971
55702W        W98615  17.664  11.005  13.869  0.0916  0.3342 -0.2117
55703W        W98616   9.665  16.385  12.753  0.4713  0.0612 -0.1540
55704W        W98617  11.215  12.100  21.537  0.1320  0.0627  0.0559
55705W        W98618  11.302  13.652  26.552  0.1321 -0.1920 -0.0237
55706W        W98619  28.195   5.201  28.829 -0.2699  0.0639  0.0890
55707W        W98620  14.413   4.352  26.559  0.2267  0.2275  0.0906
55708W        W98621   9.992   8.971  23.765 -0.1606  0.1314  0.4741
55709W        W98622   7.533  13.127  19.425  0.2722 -0.0705  0.0763
55710W        W98623   6.279  18.614  19.774 -0.2124 -0.0249 -0.0508
55711W        W98624  19.819  16.657   1.545  0.1572 -0.1523 -0.1085
55712W        W98625  22.460   5.965  14.290  0.1870 -0.0883 -0.1294
55713W        W98626   8.745  11.698  20.468  0.1394  0.1483 -0.1410
55714W        W98627   6.442  17.445  17.418 -0.0358 -0.0761 -0.3649
55715W        W98628  19.628  11.562  20.671  0.2844  0.1106  0.2049
55716W        W98629  16.078   5.687  28.358  0.0244  0.0552 -0.1844
55717W        W98630  26.427  33.166  19.019 -0.0443 -0.1272  0.0985
55718W        W98631   4.232  22.645  18.677  0.0498 -0.1009 -0.0824
55719W        W98632   9.850   4.526  19.665 -0.0785 -0.1347 -0.2035
55720W        W98633  21.925   8.336  22.032  0.2444 -0.1729 -0.1323
55721W        W98634  33.287  16.481  18.563  0.1415 -0.0839 -0.1453
55722W        W98635  12.916  34.390   2.133  0.2709 -0.3980 -0.1439
55723W        W98636  19.665   7.696  15.934  0.2673  0.0715  0.1118
55724W        W98637  19.221   4.630  24.536  0.3146 -0.1692  0.1333
55725W        W98638   5.453  11.342  21.392 -0.0248 -0.0443 -0.3804
55726W        W98639   9.375   5.713  20.156 -0.1067  0.0381  0.1413
55727W        W98640   6.828   7.489  17.480  0.0137  0.0017  0.2594
55728W        W98641  17.601   5.795  18.305 -0.0911 -0.0849  0.0465
55729W        W98642   8.394  14.879  22.067 -0.0281  0.0796  0.0608
55730W        W98643   5.273  16.368  13.947  0.1240 -0.3597 -0.4117
55731W        W98644   9.955   9.343  16.902 -0.3133 -0.0277  0.0308
55732W        W98645   8.043   4.758  18.557 -0.0488 -0.2170 -0.0563
55733W        W98646   8.953  13.242  16.079 -0.4022  0.1937  0.3065
55734W        W98647  19.235  10.723  14.467  0.1843 -0.0397  0.4046
55735W        W98648  28.091   6.799  18.287 -0.0165  0.1517  0.1254
55736W        W98649  12.786   6.503  16.980  0.4399  0.2860  0.2502
55737W        W98650  25.151   7.056  21.608  0.2000  0.0673  0.1017
55738W        W98651  34.458  18.217  19.118 -0.0183  0.3530 -0.3232
55739W        W98652  31.426   0.877  18.906 -0.2395 -0.1069  0.1109
55740W        W98653  12.561   4.126  20.834 -0.0971  0.3268 -0.0822
55741W        W98654  33.057  17.994  14.583 -0.0536 -0.1259  0.1227
55742W        W98655   3.894  28.763  27.322 -0.1197  0.0251 -0.1069
55743W        W98656  12.474  14.226  21.820 -0.2018  0.1912  0.1084
55744W        W98657   8.515  15.699  15.264  0.1071 -0.1072  0.0901
55745W        W98658  12.438   8.560  15.516  0.5571 -0.0682  0.1009
55746W        W98659  19.220  10.446  28.454 -0.3133  0.0563  0.0960
55747W        W98660  23.572   7.360  21.544  0.0288 -0.2222  0.1202
55748W        W98661  14.192   5.921  26.812  0.4211  0.0286 -0.0418
55749W        W98662  18.603   5.218  20.136 -0.0817 -0.1420 -0.0055
55750W        W98663  17.451   2.225  21.110  0.2069  0.1346  0.1509
55751W        W98664  17.473   8.754  20.384  0.1638 -0.0156  0.1158
55752W        W98665  16.947  10.418  25.439 -0.1185 -0.2213 -0.0836
55753W        W98666   8.522  11.292  23.794  0.2595  0.0839  0.0827
55754W        W98667  17.379  29.386   3.823  0.1719 -0.0437 -0.0405
55755W        W98668   9.190  32.253  21.042 -0.0154  0.1059  0.2774
55756W        W98669   7.534   0.161  21.918  0.1388  0.2538  0.0177
55757W        W98670  14.256   9.329  14.388  0.1317 -0.1518 -0.1000
55758W        W98671  14.137  22.645  15.597 -0.0213 -0.0607  0.1003
55759W        W98672  11.328  32.841  23.013 -0.2641 -0.0746 -0.0903
55760W        W98673  15.637   6.806  15.061  0.0572 -0.2657 -0.1297
55761W        W98674  10.512   8.502  20.005  0.1387 -0.0487  0.1628
55762W        W98675  12.357  18.994  16.663  0.0210  0.1227 -0.0525
55763W        W98676  21.438  10.814  15.389  0.3222 -0.1565 -0.4502
55764W        W98677  17.691  13.017  23.269 -0.0918  0.1629  0.1084
55765W        W98678   9.284   8.121  23.686  0.0299 -0.1664 -0.2225
55766W        W98679  23.078  16.586  21.003  0.0038 -0.1103  0.0137
55767W        W98680  19.548   3.741  16.441  0.0015  0.0531 -0.0679
55768W        W98681   7.271  12.258  16.788 -0.2222 -0.1495  0.0855
55769W        W98682  12.196   0.016  19.563  0.0332 -0.0780  0.1303
55770W        W98683  15.274   3.930  27.985 -0.1499 -0.5200 -0.0889
55771W        W98684  10.030  14.799  25.958  0.2816  0.2136  0.3954
55772W        W98685  24.538   0.308  28.510 -0.4126 -0.1121  0.0091
55773W        W98686  14.371  16.480  16.233 -0.0884 -0.2942 -0.3364
55774W        W98687   4.998  15.001  13.966  0.0528  0.1573 -0.0225
55775W        W98688  12.817   0.695  19.374  0.3771  0.2065  0.1728
55776W        W98689  12.091   3.957  19.537  0.1131  0.1377 -0.2048
55777W        W98690  13.792  11.064  20.388  0.0356 -0.1537 -0.2215
55778W        W98691  22.734   2.014  16.054  0.1015 -0.1338  0.0287
55779W        W98692  21.204  11.839  12.027 -0.0368 -0.3242 -0.1218
55780W        W98693  22.061  14.646  23.656 -0.1284  0.0421  0.1345
55781W        W98694  13.378  10.701  19.110 -0.0160  0.0589 -0.4233
55782W        W98695  11.294  19.325  18.576 -0.0529  0.2588  0.0698
55783W        W98696  18.229  32.625  18.798  0.0514 -0.1044  0.1138
55784W        W98697  11.485  32.617  28.340  0.1248 -0.2879  0.0229
55785W        W98698   9.146  11.825  21.383  0.1567  0.0506  0.0766
55786W        W98699  16.715  12.558  16.736  0.1659 -0.0571 -0.1364
55787W        W98700  16.146  14.751  14.445 -0.1170  0.0517  0.0634
55788W        W98701  19.167   6.142  16.977 -0.4431 -0.0306  0.0152
55789W        W98702  20.512  11.516  16.985 -0.1177 -0.0207 -0.0777
55790W        W98703  19.950   5.383  20.476  0.3235 -0.3394  0.2319
55791W        W98704   1.268  19.246  15.614  0.0906 -0.1378 -0.2061
55792W        W98705  18.263   9.484  23.874 -0.0438 -0.0000  0.0423
55793W        W98706  14.789  11.020  15.136  0.1248  0.0984 -0.1565
55794W        W98707  12.967   6.967  21.887  0.1347  0.2829 -0.2375
55795W        W98708  11.399  20.067   3.247 -0.2340 -0.3288 -0.1834
55796W        W98709  23.493   6.693  26.539  0.0134  0.0939  0.2529
55797W        W98710  11.394  16.545  26.684  0.1957  0.2047 -0.3545
55798W        W98711  18.323  11.768  20.419 -0.1312  0.0678  0.0469
55799W        W98712  13.956  15.870  13.679 -0.1744  0.2407 -0.1376
55800W        W98713  11.641   2.626  18.354 -0.0186 -0.3558 -0.3915
55801W        W98714  22.073   7.038  17.335 -0.0916 -0.1434  0.0749
55802W        W98715  14.334   3.874  24.007  0.2675 -0.0166 -0.0235
55803W        W98716  33.066  29.700  24.415 -0.0741  0.1590 -0.0888
55804W        W98717  20.558  13.615  12.256  0.1688 -0.1099 -0.0077
55805W        W98718  13.974  14.211  18.089  0.3157 -0.1620 -0.0612
55806W        W98719  19.879   7.007  22.782  0.0937  0.0429 -0.4033
55807W        W98720   5.336  14.831  17.936 -0.2920 -0.0895  0.3239
55808W        W98721  19.935  14.872   2.120  0.1781 -0.0964 -0.1416
55809W        W98722   7.567   3.134  18.201  0.2246  0.4413  0.2025
55810W        W98723  19.457   4.412  14.295  0.0439 -0.2245  0.1444
55811W        W98724   8.727  31.201   2.430 -0.0937 -0.1621 -0.1486
55812W        W98725  26.159  24.390  15.574 -0.0242 -0.0539  0.1545
55813W        W98726  14.892   2.564  22.516 -0.0355 -0.0992 -0.1232
55814W        W98727  24.137  24.975  19.914 -0.0411 -0.0548 -0.0290
55815W        W98728  30.083  16.451  17.413  0.0597 -0.0573  0.1460
55816W        W98729  18.124  25.847  27.069 -0.1290 -0.1694  0.1962
55817W        W98730   8.233  15.854   2.133 -0.4252 -0.0171  0.0011
55818W        W98731   6.374   3.781   2.280  0.2247  0.0630  0.2274
55819W        W98732   5.189  16.457  15.524  0.2624  0.0671  0.2679
55820W        W98733  10.901   5.371  29.118 -0.0128 -0.0322  0.1746
55821W        W98734  12.698  10.523  14.353 -0.0047 -0.0991 -0.1071
55822W        W98735  11.219   8.342  19.249 -0.2477 -0.2099  0.1359
55823W        W98736   9.777  23.586  25.217 -0.0741 -0.1428 -0.0474
55824W        W98737   7.970  32.563  18.396 -0.1082  0.0754  0.2215
55825W        W98738  20.534   0.303  19.430 -0.0650 -0.0811  0.5685
55826W        W98739   0.635  33.227  20.499 -0.1462  0.0378 -0.2932
55827W        W98740  10.162   0.875  26.842  0.2176  0.0277 -0.0084
55828W        W98741  12.284   4.727   0.070 -0.1086  0.3180  0.2893
55829W        W98742  16.144  12.322   0.324 -0.0653 -0.3979 -0.0061
55830W        W98743  12.788  10.525  23.843  0.1791 -0.2455 -0.2478
55831W        W98744  12.583   7.374  21.557  0.1971  0.3722 -0.0766
55832W        W98745  11.565  13.826  24.491  0.0105 -0.0286  0.0227
55833W        W98746   6.163  14.026   6.496  0.1226 -0.2905 -0.0373
55834W        W98747  29.127   5.584  25.087  0.0456  0.3230 -0.0466
55835W        W98748   9.143  12.990  22.956  0.2049  0.0825  0.0598
55836W        W98749  15.792   9.929  17.509 -0.1387  0.1949 -0.0798
55837W        W98750   2.320  20.334  26.676 -0.2943  0.1384  0.1812
55838W        W98751  13.879  15.224  16.781  0.3251 -0.2350 -0.2218
55839W        W98752  17.779   1.051  26.614 -0.0722 -0.2638  0.1100
55840W        W98753  17.964   2.683  26.515 -0.0073 -0.1027  0.0036
55841W        W98754  11.185   6.557  16.894 -0.1322 -0.3010 -0.0868
55842W        W98755  13.359   9.749  21.153  0.0432  0.2362  0.0541
55843W        W98756  14.463  12.662  26.145  0.0716 -0.1257 -0.2207
55844W        W98757  10.288  10.679  26.283 -0.0954 -0.1258 -0.2422
55845W        W98758  15.246  32.126  22.883 -0.0699  0.1876 -0.0150
55846W        W98759   8.346  11.158  22.007 -0.1368  0.1626 -0.2040
55847W        W98760   6.690  14.173  24.145 -0.4519 -0.1683  0.2510
55848W        W98761  11.576   6.417  24.257 -0.0236  0.2323  0.0213
55849W        W98762   6.228   9.666  29.194 -0.2178 -0.3862 -0.1041
55850W        W98763   8.500   2.735   5.378 -0.1063  0.1225  0.2177
55851W        W98764   9.233  15.453  18.069 -0.3619 -0.0546 -0.0918
55852W        W98765   5.318  16.041  19.590 -0.2686 -0.0071  0.1437
55853W        W98766  16.020  34.085  23.937 -0.2664 -0.4088  0.3440
55854W        W98767  21.811   9.534   1.615 -0.1953  0.0537 -0.0608
55855W        W98768  13.907  26.154  23.186  0.1087 -0.1654  0.0663
55856W        W98769  12.144   5.329  22.852 -0.0868 -0.2943 -0.1083
55857W        W98770   9.130  16.334   1.774 -0.0429 -0.2681 -0.1770
55858W        W98771  13.818  31.463   2.669  0.1015  0.2620 -0.1031
55859W        W98772   7.109   9.424   3.251  0.0882  0.0511  0.1154
55860W        W98773  17.487   0.096  26.666  0.0349 -0.1159  0.2187
55861W        W98774  14.374  17.669  16.186 -0.1136 -0.2118 -0.2108
55862W        W98775   8.623  25.829  22.762  0.0553 -0.4396 -0.0060
55863W        W98776  12.596  14.566  19.890 -0.2265 -0.0943  0.1004
55864W        W98777  21.466  13.927  19.032 -0.0372  0.0917 -0.0248
55865W        W98778  19.120  22.128  22.346  0.4083 -0.1026 -0.1671
55866W        W98779  23.476  12.104   5.243 -0.1505 -0.3492  0.1737
55867W        W98780   7.427   5.102   5.304 -0.0080 -0.2335  0.2949
55868W        W98781  20.985  10.515  26.197  0.6631  0.1579 -0.1036
55869W        W98782   5.931  33.489  17.963  0.1968  0.2345 -0.0521
55870W        W98783  14.666  14.213  15.812 -0.0279  0.0522 -0.0059
55871W        W98784   3.143   6.515   0.765  0.0374 -0.0542  0.2511
55872W        W98785  18.518   7.828  21.679  0.0466  0.0731 -0.0952
55873W        W98786  21.154  12.442  22.018  0.0022 -0.3249 -0.0052
55874W        W98787  16.711  14.227   8.272 -0.3610  0.2332  0.0302
55875W        W98788   8.971   7.225  25.036  0.1950 -0.1130  0.0383
55876W        W98789  16.862   4.605   9.762 -0.0258  0.1122  0.2565
55877W        W98790   8.061   6.032  16.865  0.0063 -0.0181 -0.2168
55878W        W98791  15.379  11.041  24.471  0.1261  0.0978 -0.0945
55879W        W98792  23.111  12.331  28.599  0.1279 -0.1863 -0.0261
55880W        W98793  19.668   1.205  22.456 -0.1545  0.5701 -0.0250
55881W        W98794   9.990  12.061  20.838 -0.1550 -0.1371 -0.1297
55882W        W98795  15.189  14.764  23.820 -0.0220  0.1356 -0.1328
55883W        W98796  19.265  22.167  13.283 -0.0734 -0.1400 -0.0642
55884W        W98797   2.275   8.894  26.345  0.1034 -0.0699 -0.2264
55885W        W98798  14.346  22.369  19.993  0.3314  0.2163  0.0223
55886W        W98799  22.356   6.855   1.214 -0.2180 -0.2214  0.2308
55887W        W98800  12.509  11.609  23.146 -0.0348 -0.1534 -0.2157
55888W        W98801  18.064  14.220  21.900  0.0402  0.3499 -0.1856
55889W        W98802   9.882  18.711   0.620  0.0484  0.5047 -0.2415
55890W        W98803  25.852  17.167   2.049 -0.0550 -0.1706  0.0932
55891W        W98804   5.827  11.607  15.051  0.1878 -0.1322  0.0406
55892W        W98805  22.007  11.953  21.328  0.3439  0.1681 -0.2495
55893W        W98806  14.678  10.836  14.145 -0.0561 -0.2428 -0.1696
55894W        W98807  26.811   7.468  13.861  0.1699 -0.4081 -0.5067
55895W        W98808  12.145   3.411  19.232 -0.0117  0.3406  0.5436
55896W        W98809   1.213  11.092   7.575  0.1270 -0.0088  0.1966
55897W        W98810  12.603   8.765  26.902  0.0012 -0.0000  0.1543
55898W        W98811  14.439  32.526  24.862  0.1346  0.1749 -0.0812
55899W        W98812  11.084  17.931  26.692 -0.1857  0.0175 -0.1228
55900W        W98813   0.037  10.766  22.781  0.1111 -0.0072  0.0079
55901W        W98814  12.087   7.964  21.460 -0.0109 -0.0173 -0.0932
55902W        W98815  10.576  18.203  14.858 -0.0255  0.0291  0.0043
55903W        W98816  16.131  11.805  21.976  0.1885 -0.1847  0.2058
55904W        W98817  13.212  18.954  20.032  0.2425 -0.0854 -0.3569
55905W        W98818  11.846   6.844  25.811 -0.1143  0.0161  0.1442
55906W        W98819  25.746   8.664  28.707  0.0767 -0.0326 -0.2116
55907W        W98820  15.518  10.708  25.881 -0.1899  0.0899  0.1688
55908W        W98821  12.882  10.186  18.666  0.0045 -0.3868  0.0200
55909W        W98822  18.856   2.925  18.814 -0.0387  0.3392 -0.0847
55910W        W98823   9.831   4.774   3.239  0.3337 -0.4964  0.1634
55911W        W98824   0.735   6.478   0.484 -0.1071  0.0484  0.0541
55912W        W98825   5.381   7.640  18.082  0.0831 -0.3867  0.0657
55913W        W98826  11.697   8.439  25.443  0.1612  0.1519 -0.1389
55914W        W98827  14.233  11.514  19.770 -0.3913 -0.2908 -0.0423
55915W        W98828  31.159  15.335   0.961  0.1205  0.0223 -0.3461
55916W        W98829   8.497  32.829  22.235 -0.1886 -0.2704  0.0345
55917W        W98830  14.602  14.472  22.386 -0.0421 -0.4043  0.0647
55918W        W98831  18.095   3.956  23.020  0.2403  0.2237 -0.1671
55919W        W98832  14.726   8.011  27.368  0.1135 -0.4117  0.1084
55920W        W98833  10.204  18.904  20.235 -0.3359 -0.2783  0.1854
55921W        W98834  14.071   6.371  28.458  0.1675  0.0388 -0.1704
55922W        W98835  19.247  10.839  19.735 -0.1134  0.0575  0.0663
55923W        W98836  11.610  17.662  18.557  0.2967 -0.2087  0.3380
55924W        W98837   4.038   6.168  24.723 -0.1270 -0.2499 -0.0449
55925W        W98838  11.352   3.935  17.334 -0.1528 -0.1641  0.1955
55926W        W98839   8.569   4.770   2.919  0.0639  0.1206  0.2267
55927W        W98840  17.971  29.372  29.207 -0.1430  0.0354  0.3167
55928W        W98841   9.432   8.786  19.333  0.2064 -0.0502  0.0997
55929W        W98842  14.536   9.163  18.033  0.0539 -0.3644  0.0629
55930W        W98843  14.529  10.307  17.382 -0.0528 -0.0804  0.2515
55931W        W98844   8.528   7.769  18.266  0.0556 -0.0678  0.0010
55932W        W98845  25.401  15.683  16.920  0.3191  0.1131  0.0502
55933W        W98846  11.799   2.304  23.314  0.0834 -0.2377  0.1638
55934W        W98847  11.800  16.108  27.341 -0.0597  0.1405 -0.0442
55935W        W98848   3.900   8.513  29.241  0.0105  0.1523  0.1896
55936W        W98849  16.277   0.071  23.804 -0.0368  0.1475 -0.2966
55937W        W98850  10.769   1.729   9.233 -0.1872 -0.2638  0.1242
55938W        W98851  27.701  16.168  21.120  0.1372 -0.0875  0.0051
55939W        W98852  12.732  19.638  19.434  0.1221  0.1982 -0.3547
55940W        W98853  22.458   9.368  24.363 -0.1212 -0.2240 -0.1734
55941W        W98854  10.136   8.456  19.039 -0.2064  0.0880  0.0378
55942W        W98855  11.299  11.468  24.544 -0.0011  0.1172  0.2628
55943W        W98856  21.356   8.899   4.851  0.1150 -0.0308  0.0823
55944W        W98857  13.891  14.939   0.094 -0.0903 -0.1586 -0.0571
55945W        W98858   8.393  32.603  25.514 -0.0096 -0.0443  0.0570
55946W        W98859   7.758  31.295  23.950 -0.1796  0.1733  0.0387
55947W        W98860   0.987  12.325   4.002 -0.0357 -0.2507  0.1811
55948W        W98861  14.682  16.206  15.872 -0.0881 -0.1660 -0.1920
55949W        W98862  26.148   3.804  17.403  0.0513 -0.3481 -0.0335
55950W        W98863  15.161   4.409  23.120  0.0541  0.2893 -0.0103
55951W        W98864   7.736   5.942  17.949  0.3141  0.0722  0.1168
55952W        W98865  20.224  14.201  27.681 -0.0883 -0.1837 -0.2770
55953W        W98866   4.708   9.710  25.523 -0.0952 -0.0819 -0.2543
55954W        W98867   9.845   4.163  21.191  0.0942 -0.1284  0.0986
55955W        W98868  27.123  16.708  24.196 -0.1088 -0.2665  0.2654
55956W        W98869   7.836  12.651   6.525 -0.2582 -0.0041  0.0929
55957W        W98870   3.292   8.724  24.579  0.2382  0.4276 -0.0106
55958W        W98871   2.486  18.955  17.373  0.2262  0.0046  0.2217
55959W        W98872  22.183   7.228   8.805  0.1808  0.2742 -0.1418
55960W        W98873  14.984  20.140  13.988 -0.1684  0.1219  0.0335
55961W        W98874  17.232  11.724  23.598  0.2218  0.4439 -0.0908
55962W        W98875   8.030   3.048  26.807 -0.2302 -0.2195 -0.0770
55963W        W98876  12.985   9.142  22.659  0.1836 -0.0273  0.2691
55964W        W98877  13.326  20.315  18.012  0.1947  0.3395 -0.1647
55965W        W98878  13.975  14.644  26.257  0.1218  0.1082 -0.0709
55966W        W98879   3.246  14.618  29.322 -0.0459  0.1244  0.1104
55967W        W98880  20.360  20.408  17.425 -0.0580  0.0352 -0.0806
55968W        W98881  12.957  10.886  18.013  0.4826 -0.0592  0.2496
55969W        W98882   8.895   1.372   1.487  0.1610 -0.4210 -0.0158
55970W        W98883  16.859   8.362  26.119  0.1221 -0.0639 -0.0264
55971W        W98884   7.880  14.310  17.759 -0.4371 -0.0332 -0.0838
55972W        W98885  12.215   7.230  22.881  0.2486  0.3570  0.1632
55973W        W98886   9.608   2.117  18.779 -0.1904  0.2985 -0.1035
55974W        W98887   4.322   3.778  19.964 -0.1347 -0.2200 -0.2504
55975W        W98888  14.218  31.502   7.307 -0.1055 -0.0977  0.0135
55976W        W98889  15.762  10.234  17.950 -0.1579 -0.1322 -0.2014
55977W        W98890  11.835   3.016  27.573  0.2797 -0.0809 -0.3392
55978W        W98891  12.010  12.325  26.720  0.2820  0.3976  0.0327
55979W        W98892  13.094  19.928   0.690  0.2062 -0.2034 -0.0953
55980W        W98893  26.470  18.664  14.803  0.0460 -0.1400  0.1130
55981W        W98894   8.962  10.245  28.558 -0.0276  0.1896 -0.1072
55982W        W98895  18.159   3.452   8.272 -0.3559 -0.1366  0.2808
55983W        W98896  13.206   1.277  24.441 -0.0397 -0.0590 -0.3608
55984W        W98897  19.130   0.609  15.809  0.1117  0.0960 -0.3360
55985W        W98898  11.268   7.510  19.665  0.1029 -0.4062  0.1481
55986W        W98899   3.303  13.813   0.954 -0.0134  0.4601  0.0325
55987W        W98900  15.342  13.494  14.299 -0.1049  0.4560 -0.5363
55988W        W98901  17.120   4.908  15.798 -0.0160 -0.4435  0.0769
55989W        W98902  10.815  10.827  21.122 -0.0603  0.0842  0.1203
55990W        W98903  13.642   7.298  22.922  0.1073  0.1839  0.2335
55991W        W98904   5.224   1.803  18.735 -0.1437  0.3451  0.2978
55992W        W98905  19.971  10.155  22.177  0.0720 -0.1027 -0.3493
55993W        W98906  12.032   9.650   1.253 -0.5083 -0.0633 -0.1788
55994W        W98907  13.433  21.747  22.984 -0.0779  0.2551  0.1493
55995W        W98908  33.920   4.405  20.371 -0.1525 -0.0047 -0.2060
55996W        W98909  22.033   0.436   0.867  0.0009  0.0552  0.1264
55997W        W98910  14.689   1.181  29.664  0.3764 -0.3427  0.3444
55998W        W98911  18.154   0.209  24.985  0.0733 -0.2167  0.0974
55999W        W98912  10.358   3.812  24.911  0.1966 -0.2572 -0.0254
56000W        W98913   6.360   5.745  26.205  0.3334 -0.1470  0.2005
56001W        W98914  16.736  12.745  22.069  0.1311 -0.1120  0.0164
56002W        W98915  12.823  33.291  25.663 -0.2647  0.0914 -0.3907
56003W        W98916  10.824   5.577  24.712 -0.2398  0.0610  0.1233
56004W        W98917   9.963  19.153  19.800  0.1017  0.0283 -0.3119
56005W        W98918  12.144   5.624   6.418  0.1551  0.4682  0.0366
56006W        W98919  23.452   6.450   5.082 -0.1858  0.0428 -0.1613
56007W        W98920  13.212   7.007   4.299  0.2307 -0.3620 -0.2724
56008W        W98921  22.383   1.488  18.016 -0.1800 -0.1997  0.1397
56009W        W98922  10.627  11.601  26.612  0.1222  0.2580  0.0920
56010W        W98923  16.303   4.850  27.950  0.0811  0.1483  0.2410
56011W        W98924  20.375   6.756  27.092 -0.0969 -0.0751  0.1745
56012W        W98925  19.262  32.237  29.534 -0.2520 -0.0631 -0.1071
56013W        W98926  28.443   4.314  18.352  0.0390  0.1769 -0.0776
56014W        W98927  11.720   4.106   0.561 -0.1307 -0.0018 -0.0122
56015W        W98928  19.711   8.159  24.751  0.0917  0.0851  0.3528
56016W        W98929   5.472   0.244   8.844 -0.2885  0.0021 -0.2136
56017W        W98930  19.206  10.496  28.972 -0.2772 -0.1092 -0.1518
56018W        W98931   7.603  11.874  25.657 -0.1611  0.2977  0.0259
56019W        W98932   9.334   7.661  28.919  0.0494 -0.0059  0.2401
56020W        W98933   5.417  12.573  21.518  0.1091 -0.0679 -0.1566
56021W        W98934  12.262  29.039  27.838 -0.1655 -0.0394  0.0376
56022W        W98935  10.332  15.120  22.598  0.2716 -0.2011  0.1356
56023W        W98936  13.575  10.737  14.895 -0.0337  0.2727  0.1370
56024W        W98937  10.697   2.676   5.058  0.1503 -0.2376 -0.0272
56025W        W98938  13.503  24.522  27.078 -0.1989 -0.0560  0.2843
56026W        W98939   3.130  16.490  23.120  0.0123  0.3324  0.3090
56027W        W98940  21.599   3.245  21.930 -0.1211 -0.0935  0.1590
56028W        W98941  11.839  11.154  15.635  0.0549 -0.1462 -0.2597
56029W        W98942  17.258   7.596  25.427  0.1285 -0.0410  0.1625
56030W        W98943   7.766   0.611  17.695 -0.0337  0.2945 -0.0507
56031W        W98944  17.858   9.714  19.951  0.0438 -0.2760 -0.0676
56032W        W98945  23.419   2.795  17.190  0.3522  0.0660 -0.4547
56033W        W98946   1.104   5.275  26.371 -0.0589  0.2325 -0.1341
56034W        W98947  15.243   0.519  26.671  0.3180  0.0365  0.0082
56035W        W98948   6.733   8.586  11.226  0.2337  0.0846 -0.0161
56036W        W98949  11.079   5.089  27.537 -0.0060 -0.2921 -0.1533
56037W        W98950  24.248  19.364   0.726 -0.1111 -0.2514 -0.1650
56038W        W98951  14.479  13.374   2.712  0.0431  0.2589  0.1053
56039W        W98952  13.645  18.187  19.864  0.1249  0.3085  0.0442
56040W        W98953  11.583   8.717  16.378  0.0161 -0.2671 -0.0647
56041W        W98954   8.295  16.139   4.359 -0.1183 -0.2027  0.1897
56042W        W98955  17.414   6.112  17.314 -0.3131 -0.0503 -0.2250
56043W        W98956   5.816  28.824   0.378  0.0195  0.0906  0.0938
56044W        W98957   9.476  10.154  26.979  0.1203 -0.3157  0.0190
56045W        W98958   7.312   3.178  24.555  0.0789  0.2014 -0.2817
56046W        W98959  10.615   4.390  25.654  0.4711  0.1307  0.0952
56047W        W98960  21.322   7.791  23.253 -0.1120  0.1503  0.1434
56048W        W98961   9.633  16.203  15.573  0.1393  0.0480  0.1641
56049W        W98962  12.456   6.999  17.728  0.3337 -0.3081  0.0673
56050W        W98963  11.672  32.406  25.085  0.0581 -0.0176  0.2156
56051W        W98964  22.282  33.967  20.850  0.2148 -0.2767  0.1951
56052W        W98965  16.929   3.901  22.534  0.0596  0.0355  0.0239
56053W        W98966   9.641   4.253   3.886 -0.2032 -0.1229 -0.2224
56054W        W98967  20.093  11.836  24.464 -0.1543  0.0181  0.0123
56055W        W98968   1.585   8.239  18.570 -0.0620  0.1017  0.1534
56056W        W98969  17.417   4.445  24.715  0.1533 -0.0956 -0.0011
56057W        W98970  15.576  34.019  27.589  0.2035 -0.1072 -0.1439
56058W        W98971  12.818  12.380  25.352  0.1443  0.1352  0.1802
56059W        W98972  13.141  18.733   3.853 -0.2276 -0.0453  0.0694
56060W        W98973  17.585  14.821  14.030  0.0635 -0.3061  0.0173
56061W        W98974   5.393  31.203  17.546  0.1634 -0.1843 -0.0869
56062W        W98975  20.282   9.856  21.118  0.1628  0.0229  0.1194
56063W        W98976   8.769  12.550  28.176  0.1309  0.0303  0.7396
56064W        W98977  24.639   8.407   0.646 -0.1113  0.1857 -0.1539
56065W        W98978  11.995   3.867  24.017 -0.0359  0.2323  0.0057
56066W        W98979   8.217  19.825  14.371 -0.0505 -0.0474 -0.0806
56067W        W98980  14.988   2.759  17.004  0.3195 -0.0365  0.2982
56068W        W98981  12.166  18.723  15.614  0.0110  0.2188 -0.1088
56069W        W98982  14.319   8.875  25.923  0.1534  0.2759 -0.0263
56070W        W98983  15.028  12.025  28.464 -0.2552  0.2420 -0.1222
56071W        W98984  11.038  20.970  29.302  0.3323  0.0134 -0.0811
56072W        W98985  21.814  11.200  26.531  0.1185 -0.2284 -0.2176
56073W        W98986  10.811   9.144  19.207  0.1064 -0.3610 -0.1032
56074W        W98987  23.882  14.381  26.570 -0.0058  0.0984  0.4994
56075W        W98988   3.050   6.848  24.905  0.2102 -0.1860 -0.0234
56076W        W98989   8.169   6.223   0.820  0.0160  0.1765 -0.1720
56077W        W98990   9.239   3.284  23.136 -0.1905 -0.0470  0.2066
56078W        W98991  11.612  13.556  20.415  0.0952  0.0110 -0.4118
56079W        W98992  10.206  22.813   3.081 -0.0887 -0.0803 -0.1773
56080W        W98993   7.008   3.373   9.093 -0.3496 -0.2100 -0.0863
56081W        W98994  25.686   4.081  14.209 -0.1386  0.0474 -0.0124
56082W        W98995  17.172  30.524  27.902 -0.1245 -0.2492 -0.2713
56083W        W98996  22.104  12.251  14.006  0.0699  0.3066  0.0363
56084W        W98997  19.053   9.289  18.148 -0.1097  0.0423  0.1636
56085W        W98998  19.767  10.566  21.974 -0.0344  0.0279  0.2404
56086W        W98999  10.891   6.673  21.363  0.3912  0.0297  0.1633
56087W        W99000  26.266   5.250  26.032  0.1530  0.2445 -0.0973
56088W        W99001   5.613  15.669  18.877  0.2269 -0.0303  0.0391
56089W        W99002  17.093   2.602  23.857 -0.2999  0.1514 -0.0617
56090W        W99003   8.118   5.130   7.570 -0.0282  0.0302  0.0536
56091W        W99004   1.905   5.540  24.555  0.0931 -0.2842 -0.3146
56092W        W99005  19.181   3.053  14.869 -0.0580  0.1378  0.2417
56093W        W99006  14.809  18.059   0.299  0.1451 -0.0388 -0.2052
56094W        W99007  13.323  15.496  20.593  0.0048  0.3334  0.2085
56095W        W99008  15.354   7.217  23.772  0.0486 -0.0206  0.0788
56096W        W99009  13.418  14.119  17.498 -0.1075 -0.1483 -0.0197
56097W        W99010  23.135  18.006  22.610  0.3793 -0.1317 -0.0934
56098W        W99011  13.192   7.373  17.240  0.0167 -0.0300  0.0841
56099W        W99012  23.955  33.075  20.146  0.0653  0.2647 -0.1027
56100W        W99013   5.363  10.026  21.869 -0.2895  0.1477  0.0865
56101W        W99014  10.983   8.572  24.630  0.4577 -0.1162 -0.0566
56102W        W99015  15.475   7.119  20.708  0.4825 -0.0622  0.1860
56103W        W99016  18.304  10.812   4.335 -0.0893  0.1221 -0.1386
56104W        W99017   5.533  13.864  22.680 -0.2904  0.0844  0.0472
56105W        W99018  12.539  14.050  20.610  0.1371  0.1595 -0.3030
56106W        W99019  27.533   3.261  25.678  0.0969 -0.2325 -0.1118
56107W        W99020  12.579  15.899  17.719  0.1116  0.1959 -0.2283
56108W        W99021  20.451   5.567  20.739  0.2216 -0.0329  0.0253
56109W        W99022  15.877   1.529  27.203  0.5079  0.1001 -0.0326
56110W        W99023   0.771   2.384  18.723  0.0237  0.0794 -0.3162
56111W        W99024  14.081  13.161  24.267  0.1942  0.0529  0.1675
56112W        W99025  12.270   2.793   0.160 -0.2944 -0.3430 -0.1930
56113W        W99026   6.567  12.980   1.518  0.1100  0.3126  0.0322
56114W        W99027   4.142   9.820  24.335 -0.0618 -0.0176 -0.2178
56115W        W99028  11.691   4.680  24.274 -0.2425  0.0348  0.0246
56116W        W99029   8.267   0.131  24.612  0.4322 -0.2929 -0.2884
56117W        W99030  11.301  10.800   8.469 -0.0999  0.2859  0.0218
56118W        W99031  11.949   9.451  26.363 -0.2688 -0.0077  0.1512
56119W        W99032  15.969   9.185  16.881 -0.0603  0.1521  0.0240
56120W        W99033  17.314   2.045   4.115 -0.1039 -0.0435 -0.3743
56121W        W99034   4.703   9.763   1.435  0.4766  0.1003 -0.2034
56122W        W99035   9.593   5.397  25.982  0.3520  0.0561  0.0869
56123W        W99036  23.273  13.952   4.804  0.5111  0.3236 -0.1964
56124W        W99037  11.336   8.015  11.009 -0.1812 -0.1338 -0.2541
56125W        W99038  10.403   9.049   5.601  0.2971 -0.0682  0.1439
56126W        W99039   9.418   3.009  29.776  0.1978  0.2012  0.0221
56127W        W99040  10.969  33.357  17.805 -0.0757  0.1350 -0.0088
56128W        W99041   9.225   6.608  18.586 -0.1607  0.0957  0.3522
56129W        W99042  22.073  14.590  13.406  0.2139  0.1608  0.0836
56130W        W99043   8.065  11.291  28.537  0.0434 -0.1838  0.3221
56131W        W99044  13.481   8.395  24.749 -0.0966 -0.1502  0.0034
56132W        W99045  14.738   7.482  23.772 -0.1881 -0.2639  0.2022
56133W        W99046   7.478   1.888  22.130  0.1775 -0.1130  0.3779
56134W        W99047  15.134  17.858   0.678 -0.1536 -0.0984 -0.2503
56135W        W99048   8.362   9.028  28.612  0.0463 -0.2636 -0.2057
56136W        W99049  16.365  15.566   1.758 -0.3725  0.0704  0.1626
56137W        W99050  18.024   7.527   6.461  0.2208 -0.2216 -0.1361
56138W        W99051   9.332  25.387  24.865 -0.2704  0.2433 -0.1814
56139W        W99052  11.333  13.478   0.318 -0.3009  0.0123  0.2028
56140W        W99053   6.487  32.591  18.384  0.1593  0.0054 -0.2182
56141W        W99054  11.810  13.001  25.146 -0.1398 -0.2146  0.2448
56142W        W99055   8.564   8.722   4.912  0.1834 -0.0116  0.2227
56143W        W99056   2.239   3.451  27.873 -0.2091 -0.2886  0.0125
56144W        W99057  20.425  10.780  20.785 -0.2679 -0.0878 -0.2045
56145W        W99058  12.511  27.235  23.506  0.0881  0.0676 -0.1277
56146W        W99059   7.598  14.416  19.402  0.1454 -0.2473  0.1192
56147W        W99060   6.502   7.676  10.205 -0.0221 -0.0602  0.3461
56148W        W99061  29.853  11.355  16.295  0.3898 -0.2707  0.0248
56149W        W99062  17.800   8.385  22.617 -0.2113 -0.1899 -0.0033
56150W        W99063   6.449  21.791  25.403  0.2934  0.0695 -0.0005
56151W        W99064   8.013  17.501  19.046  0.2556  0.0608  0.3160
56152W        W99065   6.546   7.636  17.889  0.2981  0.1750 -0.2320
56153W        W99066  13.888  12.152  17.246 -0.1401  0.0733 -0.0137
56154W        W99067  13.245  29.937  26.975  0.2723  0.1053 -0.0134
56155W        W99068   7.253  13.971  17.449 -0.2289 -0.0682  0.3384
56156W        W99069  17.855  26.655  20.222 -0.1805 -0.1251 -0.2833
56157W        W99070  33.526   0.927  28.015 -0.0303  0.0053 -0.3046
56158W        W99071   4.167   8.738   1.285 -0.1587 -0.1076 -0.2647
56159W        W99072   3.081   3.368  27.498 -0.0366  0.0780  0.5175
56160W        W99073  10.779  27.165   7.224 -0.1021 -0.0427  0.0028
56161W        W99074  15.599   8.579  15.771 -0.1399  0.0515 -0.1860
56162W        W99075  11.165  10.141  25.228 -0.3033  0.0190  0.1572
56163W        W99076  19.326   4.157  15.331 -0.0396  0.1128 -0.1107
56164W        W99077  16.883  32.147   4.289  0.0862  0.1283 -0.3315
56165W        W99078  11.620   9.622  26.088  0.0111  0.2726  0.0049
56166W        W99079  26.632  13.989  26.978  0.0719  0.0765  0.0207
56167W        W99080  17.520   8.248  17.575 -0.0707  0.1226  0.1417
56168W        W99081   8.719  10.670  21.795  0.0785  0.4146  0.1429
56169W        W99082  20.203  33.472  26.306 -0.3113 -0.1243 -0.1196
56170W        W99083   2.571   2.411  24.981  0.1354  0.3448 -0.2075
56171W        W99084   6.892   7.915  17.175 -0.1686  0.0520 -0.0811
56172W        W99085  22.059  11.441  21.149  0.1632 -0.2623  0.0633
56173W        W99086  11.839   6.027  24.287  0.0912 -0.1022 -0.0747
56174W        W99087   9.870  34.036  20.054  0.1266 -0.4799 -0.0571
56175W        W99088   9.936   5.552   5.777  0.2308  0.3103  0.2813
56176W        W99089  13.373   7.479  27.393  0.1155  0.0377 -0.1830
56177W        W99090  16.475   5.841  23.472  0.3804 -0.0821 -0.2451
56178W        W99091  16.790   8.160   7.538  0.0923  0.0391 -0.3574
56179W        W99092   3.134  32.125  27.257  0.1935 -0.1995 -0.3972
56180W        W99093   9.265   7.350   8.413 -0.1835 -0.0056  0.0700
56181W        W99094   4.077  11.130  26.717  0.2273  0.0542 -0.1271
56182W        W99095  19.127  33.584  22.634  0.1821 -0.2788 -0.2632
56183W        W99096  12.755   6.667  27.757 -0.1712  0.0189  0.1811
56184W        W99097  15.464  10.854  17.073 -0.0679 -0.1798 -0.0457
56185W        W99098   6.848  32.557  21.265 -0.0529 -0.2704 -0.0630
56186W        W99099  14.084   6.942  26.948 -0.0189 -0.0666  0.0492
56187W        W99100  12.751   6.044  20.634  0.1398  0.5238 -0.3030
56188W        W99101  18.124   3.739   1.840  0.2103 -0.1436  0.2504
56189W        W99102   5.758   1.751  27.179 -0.3564  0.2225 -0.3128
56190W        W99103  23.493   7.788  22.604 -0.2066  0.1858  0.0902
56191W        W99104   6.317  33.513   6.179 -0.0626 -0.1763 -0.4720
56192W        W99105  13.856  12.842  26.964  0.1914  0.3187 -0.0509
56193W        W99106  22.840  14.098  24.129 -0.3707 -0.3573  0.0300
56194W        W99107  15.755  14.707  24.808  0.0766  0.2623 -0.3950
56195W        W99108   8.499   3.224  20.795  0.1379 -0.1915  0.0206
56196W        W99109  17.657  10.639  19.407 -0.1128 -0.2134  0.0871
56197W        W99110  20.110   4.140  20.809 -0.1998 -0.1904  0.2826
56198W        W99111   3.960   5.421  19.226  0.2229  0.1824 -0.2625
56199W        W99112  19.746  12.129  20.755  0.1832  0.0081 -0.0864
56200W        W99113  14.391  31.840   5.836 -0.4654  0.2913 -0.0894
56201W        W99114  24.935  14.855  17.548  0.2021 -0.2057 -0.2113
56202W        W99115  20.915   9.809  15.822 -0.1563  0.2974  0.0055
56203W        W99116  12.818  10.557  17.644  0.3215  0.0344 -0.3256
56204W        W99117  21.530   6.176   3.603  0.2124 -0.2862 -0.2265
56205W        W99118  18.800  19.318  27.897 -0.0332 -0.2383 -0.1160
56206W        W99119  14.053   2.391  24.107  0.2008 -0.1643 -0.2250
56207W        W99120  21.706   2.352   3.843  0.2656  0.1515 -0.1874
56208W        W99121  19.050   8.986  28.345  0.1704  0.1011 -0.0474
56209W        W99122  17.545  11.449  23.359  0.2325  0.3438  0.2989
56210W        W99123  14.242   8.598   0.824  0.3395 -0.3000  0.2099
56211W        W99124   7.062  19.378  25.716  0.0874  0.3689 -0.5153
56212W        W99125  11.968   1.116  24.209 -0.0009  0.2482 -0.0443
56213W        W99126  10.106   3.449   0.436  0.1462  0.1654  0.0731
56214W        W99127  15.478  34.257  23.488  0.1473 -0.0749 -0.5173
56215W        W99128   6.840   8.258  25.301  0.0254 -0.2049 -0.2698
56216W        W99129  32.443  31.293   0.966  0.2124  0.3438 -0.1748
56217W        W99130  16.333  10.998   5.349  0.2123  0.0615  0.1122
56218W        W99131   7.585   6.434   7.484  0.0566 -0.1111 -0.2277
56219W        W99132  16.082  23.084   7.936 -0.0824 -0.1115 -0.2325
56220W        W99133  13.612   5.303  27.820  0.3131  0.0808  0.1271
56221W        W99134   4.518  31.663  18.333 -0.0891 -0.2303 -0.0313
56222W        W99135  16.253  15.341  16.776  0.3074 -0.0282  0.0591
56223W        W99136   9.729   2.915  28.248 -0.2763  0.1881  0.1685
56224W        W99137   5.591   9.940  27.644  0.0129 -0.0501 -0.0602
56225W        W99138   2.139  10.426  28.205  0.0527 -0.3256 -0.1350
56226W        W99139  19.849  33.815  22.036 -0.0872 -0.0090 -0.3360
56227W        W99140   7.702  10.567  24.423  0.2518 -0.4971 -0.1098
56228W        W99141   4.160  29.114  26.933  0.1388  0.0632 -0.0339
56229W        W99142   5.268   5.624  27.383  0.3212  0.2939  0.2432
56230W        W99143  15.510   3.771   8.127  0.0577 -0.2127 -0.1303
56231W        W99144  10.448   2.644   2.746  0.1347 -0.2258 -0.0554
56232W        W99145  29.554  14.879  27.497 -0.0899  0.0007  0.2457
56233W        W99146  21.563  12.445  17.076  0.0067 -0.0497 -0.1893
56234W        W99147  20.354   0.990  26.007 -0.1713  0.0445 -0.1484
56235W        W99148  14.718  16.908  24.086 -0.3355  0.3513  0.1673
56236W        W99149  10.330   2.855  19.881  0.0224 -0.1722  0.5200
56237W        W99150  12.057  11.755  23.160  0.1203  0.2108  0.2249
56238W        W99151  11.488   3.953  28.322  0.0465 -0.2427  0.1334
56239W        W99152  10.866   4.109  27.426 -0.0324  0.1707 -0.0638
56240W        W99153   7.880  29.160  25.368  0.0066 -0.2074  0.2069
56241W        W99154   6.732  14.929  17.367 -0.2014  0.1430  0.0595
56242W        W99155  19.599   8.135   3.841 -0.1704  0.0556 -0.0030
56243W        W99156   4.687   7.780  19.626  0.0472 -0.1141  0.4873
56244W        W99157   6.929   9.472  20.212  0.2723 -0.1206  0.1332
56245W        W99158  14.365   3.713   1.629  0.3934 -0.1816 -0.1982
56246W        W99159  11.524   7.666  17.844  0.0981 -0.2465  0.2593
56247W        W99160   7.298  12.283  26.245 -0.1925 -0.1705  0.1001
56248W        W99161  24.266   8.728   2.361  0.0508 -0.2499 -0.3144
56249W        W99162  18.432  10.516  29.588  0.0009 -0.0237 -0.0735
56250W        W99163  11.786   8.833   4.442 -0.0381 -0.1737 -0.0151
56251W        W99164  15.916  13.064  16.899  0.0387  0.0290 -0.1584
56252W        W99165  17.607  27.197   1.346 -0.1606  0.3020  0.1333
56253W        W99166   1.977  30.379  25.569  0.0619  0.4179  0.2151
56254W        W99167   6.965  31.166  23.024  0.1213  0.1898  0.2534
56255W        W99168  11.237  12.061  20.637 -0.1719  0.3178 -0.2984
56256W        W99169   6.920  20.608  27.110  0.1232 -0.0111 -0.0354
56257W        W99170   5.174   6.127  28.489 -0.3701  0.2883  0.4377
56258W        W99171  21.557  32.531   3.476  0.0917 -0.0451  0.0105
56259W        W99172  13.526   2.623  26.991  0.0318  0.3066 -0.1864
56260W        W99173  34.078  11.056  22.474 -0.2874  0.1385 -0.0092
56261W        W99174  11.397  23.917  20.217  0.1019 -0.0241  0.0096
56262W        W99175  12.494  21.282  23.572 -0.2378 -0.1155  0.2022
56263W        W99176  16.345   8.885  20.076 -0.0723  0.3179 -0.0983
56264W        W99177  11.670  12.484   3.973  0.0349  0.2120 -0.0835
56265W        W99178  13.120   3.444  20.140 -0.0731  0.2562  0.2974
56266W        W99179  15.913   9.696  16.826  0.0802 -0.0481  0.1157
56267W        W99180   1.467   6.737  26.946  0.0871  0.0562  0.0027
56268W        W99181   9.995   1.467  23.689 -0.0795  0.1539  0.1194
56269W        W99182  18.657  12.478  23.388 -0.0730 -0.3575 -0.2106
56270W        W99183  12.118  13.089  28.386 -0.0691  0.0802 -0.1246
56271W        W99184   9.034   6.091  26.358 -0.0900  0.2339  0.0277
56272W        W99185  21.350  10.297  23.313  0.0091 -0.3020  0.2981
56273W        W99186  10.546   9.619   4.467 -0.0181  0.1005  0.0957
56274W        W99187  12.920  34.371   1.623  0.1790 -0.3490  0.3512
56275W        W99188   5.963  32.517  25.599 -0.2045  0.1483  0.3250
56276W        W99189  14.056   7.891  19.707  0.0932 -0.1014 -0.1636
56277W        W99190  11.254   5.653   8.916 -0.1273  0.1009  0.2897
56278W        W99191  19.735  12.389  18.018  0.0478  0.0032 -0.0334
56279W        W99192  11.323  34.478   4.756 -0.4366  0.5832  0.3710
56280W        W99193  17.630   7.822   9.911  0.0020  0.1632 -0.0005
56281W        W99194  25.938   3.006   0.997 -0.2221  0.1720 -0.0767
56282W        W99195   3.679  12.340  20.650  0.2085 -0.4513 -0.0802
56283W        W99196   7.122  11.346  15.474 -0.0910 -0.0154 -0.1788
56284W        W99197   7.935  34.415  11.454  0.1265  0.0146 -0.2286
56285W        W99198  13.147   8.757  28.155 -0.0919  0.2147 -0.0380
56286W        W99199  16.091  14.183  22.005 -0.2297 -0.2592 -0.0465
56287W        W99200  13.853   5.991   0.653 -0.2629  0.1600 -0.0405
56288W        W99201   7.983   6.983  20.228  0.0156 -0.3286 -0.3502
56289W        W99202  10.331   7.990  25.075 -0.0426 -0.1920 -0.0062
56290W        W99203  14.291   4.757  22.808  0.1585  0.0567 -0.0861
56291W        W99204  17.186   3.393   1.138  0.1218  0.0662 -0.0420
56292W        W99205  14.430   9.334  29.777  0.3123 -0.2869  0.2205
56293W        W99206   6.277   6.956  19.109 -0.0285  0.0425 -0.2449
56294W        W99207   8.848   7.875  28.589 -0.4375 -0.2384 -0.3501
56295W        W99208  21.847   9.682  28.197 -0.0071  0.2167  0.2110
56296W        W99209  15.747   9.872   7.958 -0.2461  0.0157 -0.3582
56297W        W99210  21.735  12.078  24.936 -0.0527  0.1038  0.4741
56298W        W99211  15.159   4.378  19.943 -0.0435 -0.1389  0.0090
56299W        W99212   1.769   2.287  22.500  0.0382  0.0765  0.1369
56300W        W99213  16.619   3.277  24.107  0.3390  0.1655 -0.0788
56301W        W99214   5.297  11.853  20.113 -0.1250  0.2698  0.0482
56302W        W99215  11.665   9.532  17.749 -0.1759  0.0978 -0.0720
56303W        W99216  15.188  14.353  22.626 -0.0581 -0.1576 -0.0266
56304W        W99217  16.285   4.718   1.971 -0.1064  0.1974  0.0974
56305W        W99218   5.357  16.698  22.985 -0.1089  0.2062 -0.1487
56306W        W99219   8.885   0.850  27.505 -0.3777 -0.1932 -0.0569
56307W        W99220  12.657   7.050  25.717 -0.4441  0.0751  0.4333
56308W        W99221  17.941  12.589  26.165 -0.0845  0.1182 -0.2591
56309W        W99222  10.900  14.231   0.819  0.0802 -0.1225  0.0354
56310W        W99223  22.008   5.720   1.724 -0.2881 -0.1800  0.1716
56311W        W99224  13.612   9.441  29.723  0.1129  0.3052  0.0353
56312W        W99225  13.888   6.099  18.275 -0.2869 -0.0330  0.4139
56313W        W99226   9.742   4.803  24.902  0.2460  0.1233  0.1206
56314W        W99227   9.657  10.663  15.943 -0.1318 -0.0566  0.2453
56315W        W99228  13.489  10.446  25.732 -0.2672  0.4499  0.0627
56316W        W99229  11.159   8.173  23.282 -0.1373 -0.0086 -0.2422
56317W        W99230   3.478  19.610   5.292 -0.2998 -0.1407  0.3387
56318W        W99231  13.086   2.445  26.774 -0.2587 -0.0612  0.0986
56319W        W99232  18.878   2.811  19.757  0.0099  0.2216 -0.0645
56320W        W99233  11.432  12.544  25.386 -0.2051 -0.4717 -0.1930
56321W        W99234  10.579  10.749  24.938  0.2270 -0.3318 -0.1970
56322W        W99235  17.699  18.913  29.141 -0.0223  0.1085  0.4692
56323W        W99236  13.169  10.157  29.182 -0.0446 -0.0561 -0.0510
56324W        W99237   4.906  13.654  26.453 -0.2230 -0.0369  0.0570
56325W        W99238   3.394  12.908  26.453 -0.0398 -0.1962  0.1097
56326W        W99239  16.728  15.179  25.735  0.0428  0.1890  0.0894
56327W        W99240   5.285  21.548  28.518  0.0585  0.2016 -0.2467
56328W        W99241   9.407   9.008  23.835 -0.5284 -0.2652  0.2179
56329W        W99242  15.709  29.837   4.462  0.1911 -0.1019  0.2498
56330W        W99243   4.497  14.501  22.108 -0.1555  0.0429  0.1693
56331W        W99244  18.070  34.210   3.671  0.2874 -0.0204  0.2304
56332W        W99245  15.196  15.193  28.302 -0.3843 -0.1483  0.2852
56333W        W99246   7.129   2.806   0.919  0.1050 -0.0667 -0.2349
56334W        W99247   9.867   3.335  28.026  0.1607 -0.1630  0.0547
56335W        W99248  14.255  10.325   5.923 -0.2330 -0.1009  0.1286
56336W        W99249  20.528   5.351  15.439 -0.2476 -0.0359 -0.0906
56337W        W99250   2.644  11.720   0.610 -0.2109 -0.0071  0.0757
56338W        W99251  16.046   1.789   1.643 -0.1571 -0.5276 -0.0049
56339W        W99252  11.401  33.457  24.206 -0.6739 -0.1627 -0.1330
56340W        W99253  23.879   7.062   1.655  0.2707  0.3150  0.1241
56341W        W99254  13.750  10.186  15.036  0.1164  0.1297 -0.1630
56342W        W99255   7.508  11.210  17.562  0.0319 -0.0313 -0.0044
56343W        W99256   8.009  23.174   9.404 -0.0536 -0.0648 -0.1592
56344W        W99257  32.527   3.363  20.665  0.1687 -0.1045 -0.0738
56345W        W99258  12.951   9.519  24.684 -0.0411  0.0136  0.0487
56346W        W99259  13.080  14.461   2.222  0.1647 -0.0026 -0.1535
56347W        W99260  11.667  15.700  18.492  0.1678 -0.3101 -0.3230
56348W        W99261   6.974   6.543  16.837 -0.0386  0.3287 -0.2582
56349W        W99262  12.903  15.317  13.299  0.0087  0.0244  0.0598
56350W        W99263   5.678  15.918   3.499 -0.2962 -0.0878  0.1784
56351W        W99264  22.779   6.602  22.760 -0.1489 -0.5101 -0.2329
56352W        W99265  11.381   9.071  22.845  0.2978  0.1615  0.1368
56353W        W99266  17.786   8.530  15.498  0.4130 -0.0184 -0.0268
56354W        W99267  16.229  10.338  17.062  0.2434  0.0937 -0.0020
56355W        W99268   6.635  32.298  18.026  0.0011  0.2311  0.0207
56356W        W99269  12.116   6.692   6.138  0.0943 -0.1847  0.2025
56357W        W99270  15.810   8.821  14.884 -0.2515 -0.0956  0.0090
56358W        W99271  24.294   8.426  24.209  0.1186  0.0422 -0.1740
56359W        W99272  16.872  16.725  13.738  0.0706  0.0459 -0.0164
56360W        W99273  12.927  17.561  24.468 -0.1659 -0.2668 -0.3741
56361W        W99274  11.088  11.966  24.332  0.2307  0.0531 -0.1376
56362W        W99275   6.166   6.923  22.684 -0.1195 -0.0185 -0.0402
56363W        W99276   6.742   8.280   3.633 -0.2747  0.3494 -0.0991
56364W        W99277   2.706   8.882  24.749 -0.0351 -0.0823 -0.0306
56365W        W99278  12.937  14.944  17.723  0.2902 -0.1452  0.4077
56366W        W99279  14.576  21.358  21.732 -0.2866 -0.1920  0.0534
56367W        W99280  12.529  34.373  25.355 -0.1758  0.2306  0.2566
56368W        W99281   5.651   6.752   1.288 -0.2739 -0.1046 -0.0184
56369W        W99282  14.641  16.184  26.866 -0.2781 -0.2085 -0.0479
56370W        W99283   6.703  17.857   0.012  0.3701  0.1143  0.1680
56371W        W99284  12.733   6.348   3.043 -0.1942  0.0397 -0.1960
56372W        W99285  12.804  13.166  20.395  0.4856 -0.3119 -0.1509
56373W        W99286  16.920  14.409   0.729 -0.0404 -0.3390  0.1873
56374W        W99287  14.111   4.814  18.520  0.1529 -0.0162  0.2146
56375W        W99288   2.651  13.784  21.408 -0.0705 -0.1696  0.0510
56376W        W99289   7.992  10.448  19.700 -0.0107  0.2982  0.2517
56377W        W99290  11.518   3.198  10.706 -0.3970 -0.2592 -0.2377
56378W        W99291   8.834  14.506  26.464 -0.0194 -0.1008  0.0815
56379W        W99292  28.461  10.301  19.901  0.0634  0.1329 -0.0660
56380W        W99293  16.613  13.405  20.868 -0.1285 -0.3811  0.2267
56381W        W99294  21.177  16.052   3.070 -0.2039 -0.2387 -0.2974
56382W        W99295  24.851  11.804   3.827 -0.2279 -0.0696 -0.4320
56383W        W99296  11.587  32.100  28.872 -0.3484  0.3514 -0.1198
56384W        W99297   9.313  15.997   2.155 -0.0369 -0.2471  0.2396
56385W        W99298   9.991  10.740  22.054  0.2455 -0.2898  0.1698
56386W        W99299   7.369  16.152   1.462  0.0649 -0.1051  0.1849
56387W        W99300   3.501  10.976  25.924  0.2583 -0.0048  0.1300
56388W        W99301  11.814   8.189  25.867  0.1346  0.1403  0.1024
56389W        W99302   2.009  12.982  22.359  0.2666 -0.1780  0.0751
56390W        W99303   4.993   4.564  19.880 -0.0257 -0.1895  0.1896
56391W        W99304  30.189  20.839   2.002  0.3953  0.1724 -0.4189
56392W        W99305   0.308  12.045  27.711 -0.2021  0.0907  0.0350
56393W        W99306  10.119   9.688  24.356  0.2377 -0.0941 -0.1116
56394W        W99307   2.499  14.379  29.553 -0.3731  0.2588 -0.0002
56395W        W99308  17.645  18.973  15.160  0.3228  0.2686 -0.0704
56396W        W99309  10.255   2.940  27.510  0.0479 -0.0058 -0.4864
56397W        W99310  14.391   7.292  15.549 -0.0546 -0.3760 -0.0882
56398W        W99311  32.719  20.159  25.389  0.1347 -0.3180 -0.1541
56399W        W99312  12.906   8.495   2.188 -0.0023  0.2787 -0.1320
56400W        W99313  22.271  11.037  20.232  0.0100 -0.0180  0.2650
56401W        W99314  11.990  17.220  24.210  0.1476 -0.1502 -0.1535
56402W        W99315  17.844  10.923   6.043 -0.0277 -0.0677  0.0768
56403W        W99316  15.855   9.004   1.398 -0.0864  0.0863  0.0150
56404W        W99317  12.463   1.408  22.630  0.1099 -0.2240  0.2219
56405W        W99318  10.782   5.949  27.845  0.1521  0.2325 -0.0732
56406W        W99319   2.980   1.910  11.022 -0.1005  0.3518 -0.1570
56407W        W99320   8.455  20.211  24.497  0.1205 -0.0536  0.2793
56408W        W99321  13.835  10.925  16.178  0.2424 -0.1156  0.0074
56409W        W99322  12.460   1.725  20.199  0.2578 -0.2661 -0.2196
56410W        W99323  13.709   5.356  25.764 -0.2507 -0.0257 -0.3066
56411W        W99324   9.756  33.627   1.179  0.0049  0.0547  0.1531
56412W        W99325   8.735  34.007  29.361  0.2469 -0.4015 -0.0902
56413W        W99326  19.926  10.896   0.623  0.0617 -0.1003 -0.0913
56414W        W99327   5.317   1.424  22.685 -0.0694 -0.0610  0.2438
56415W        W99328  14.717   8.034  19.995  0.0165  0.0537  0.1046
56416W        W99329   8.255  14.924  23.104  0.1275  0.3757 -0.0223
56417W        W99330  20.122  23.203  27.513  0.0226  0.4619 -0.1443
56418W        W99331  20.373  24.815  24.065 -0.3303  0.1508 -0.0915
56419W        W99332  15.943  14.123   6.602 -0.0838 -0.0102  0.1086
56420W        W99333   6.185   5.638   1.143  0.3148 -0.0387 -0.0543
56421W        W99334  23.319  14.589  29.091  0.1524 -0.1995  0.2267
56422W        W99335   7.540  20.903  21.524 -0.1865  0.0925  0.0549
56423W        W99336  12.705   2.477  22.650  0.1779  0.1369  0.1643
56424W        W99337  16.822   2.777  16.092  0.0462  0.3166 -0.0731
56425W        W99338  18.622   7.847  19.116  0.1893 -0.1497  0.0197
56426W        W99339  12.179  11.871  15.724  0.3293  0.4308 -0.1444
56427W        W99340  17.122   5.418  27.893  0.0583 -0.2718  0.1145
56428W        W99341   5.743  12.254   0.699  0.1747  0.0672 -0.2230
56429W        W99342  15.600  16.656  28.834  0.0387  0.0841  0.0095
56430W        W99343  14.386   4.402   8.066 -0.2359  0.1474  0.0934
56431W        W99344  13.645   6.831  24.743 -0.1566 -0.1639 -0.0521
56432W        W99345  11.568  10.992  26.836 -0.1427 -0.0534 -0.1722
56433W        W99346  15.491   3.899  21.635 -0.0772 -0.1011 -0.0950
56434W        W99347   8.621   7.667  29.167  0.2066 -0.0958  0.0189
56435W        W99348   1.421  12.074   2.209 -0.1826  0.0563  0.3755
56436W        W99349  14.368  12.873   0.698  0.0247 -0.0362  0.0256
56437W        W99350  21.430   9.928  19.583 -0.4594 -0.0850 -0.0057
56438W        W99351  14.426  14.992   3.479 -0.0645 -0.1919  0.1862
56439W        W99352   7.493  16.331  26.559 -0.2315 -0.0394 -0.3974
56440W        W99353   9.825  34.154  20.633  0.1218 -0.3182 -0.1510
56441W        W99354  12.483  10.121   6.459 -0.0733 -0.0113  0.0927
56442W        W99355   0.466   4.092   0.698  0.0487 -0.1182  0.2012
56443W        W99356   7.334   3.209   4.142 -0.2705  0.2331  0.0242
56444W        W99357  11.474   0.535   3.921 -0.0925  0.1116 -0.4035
56445W        W99358  22.074   6.388  27.870  0.1449 -0.4130  0.1307
56446W        W99359  30.491   9.038   4.211  0.3124  0.0714 -0.0029
56447W        W99360  18.278   6.958  14.079  0.2176  0.3168  0.1079
56448W        W99361   9.422   6.847  25.804  0.1064  0.0447 -0.5412
56449W        W99362   4.078   8.304   5.118  0.1169 -0.0896  0.2356
56450W        W99363  23.252   4.438   1.011  0.3347 -0.0135 -0.0551
56451W        W99364  14.029  30.752  26.674  0.0051 -0.0011  0.2938
56452W        W99365  11.120  11.609  21.334 -0.0473  0.1868  0.1115
56453W        W99366  13.094   7.799   5.129 -0.2647 -0.0663  0.1677
56454W        W99367  18.472   5.220   4.747 -0.1029  0.1420 -0.3078
56455W        W99368  10.649  23.268   6.703  0.0516 -0.1617 -0.2851
56456W        W99369   4.873   0.283  24.300 -0.1986 -0.0298 -0.1095
56457W        W99370  11.658   9.913   3.086 -0.2592 -0.0476  0.2005
56458W        W99371  11.735   5.632  21.480 -0.2065  0.0301 -0.3391
56459W        W99372   4.534  13.694  27.778 -0.1069  0.2326 -0.0988
56460W        W99373  11.793  15.310  15.913 -0.2257 -0.1724 -0.1470
56461W        W99374  21.013  18.494  23.938  0.0305 -0.2381  0.2853
56462W        W99375  12.915  10.750  13.959  0.3834 -0.0210  0.1459
56463W        W99376  13.564   2.902  25.441  0.1010  0.0359  0.0166
56464W        W99377  21.847  16.882  23.412  0.0295  0.1668 -0.1083
56465W        W99378   7.860  17.656  22.343  0.1170 -0.1750  0.0349
56466W        W99379  32.395  14.450  24.845 -0.0139 -0.0446  0.0119
56467W        W99380  24.229   8.598  20.296  0.0606 -0.2690 -0.0561
56468W        W99381  11.988   7.352  20.946 -0.0883  0.2695  0.1959
56469W        W99382  11.598   9.220  22.366 -0.2447  0.2075 -0.1964
56470W        W99383  11.791   6.251  27.272  0.0026  0.0845 -0.1580
56471W        W99384  14.218  10.624  29.640 -0.1533 -0.2953 -0.1743
56472W        W99385  16.192  12.831  19.672 -0.0797 -0.1405  0.0522
56473W        W99386  33.889   0.594   1.124  0.3733 -0.1290  0.0264
56474W        W99387  20.160   6.926  22.355 -0.1999  0.1208  0.1638
56475W        W99388  11.019  16.748  25.089 -0.1608  0.0579  0.1757
56476W        W99389   7.927  11.884  23.392  0.0814 -0.3984 -0.1753
56477W        W99390  16.695   1.819  18.551 -0.2415 -0.3029  0.0379
56478W        W99391  15.053  13.563  25.519  0.0742  0.2039  0.1860
56479W        W99392  16.791  10.354  29.755 -0.0578 -0.0286 -0.0456
56480W        W99393  13.373  24.371  25.009 -0.3647  0.0909  0.0358
56481W        W99394   9.074  13.616  22.152  0.1357 -0.0138 -0.1537
56482W        W99395   4.889   0.591  17.449 -0.0640 -0.2107 -0.2472
56483W        W99396  14.605  10.217  24.084 -0.1986 -0.1081 -0.2484
56484W        W99397  13.295  10.170  20.934  0.0869 -0.1054  0.1973
56485W        W99398  32.337   5.394  11.800 -0.2808 -0.1461  0.1142
56486W        W99399  21.791   0.022   0.538  0.0051  0.3593 -0.0463
56487W        W99400   3.930   6.263  21.776 -0.0543 -0.2586  0.0128
56488W        W99401  18.076  30.433  24.917  0.2285 -0.0537  0.1087
56489W        W99402  15.438  13.844  24.800  0.1532  0.5228  0.1116
56490W        W99403  15.720   7.468   9.696  0.0723  0.3222  0.1504
56491W        W99404  12.993  10.212  23.511  0.0103  0.3326  0.0290
56492W        W99405  10.617  18.468   5.739 -0.1024  0.1032  0.2469
56493W        W99406   9.693   3.786  17.534 -0.2198  0.0054  0.0452
56494W        W99407   6.360  32.680   7.262 -0.2141  0.1916  0.0776
56495W        W99408  10.185   6.565  21.671  0.1856 -0.0418  0.1963
56496W        W99409   8.026   3.055  22.938 -0.1982 -0.3532  0.1419
56497W        W99410  17.869  11.917  28.611  0.1413  0.1344 -0.2055
56498W        W99411   5.573   7.352   5.815  0.0574 -0.0989 -0.1987
56499W        W99412  15.667   1.674  21.903  0.1423  0.0485  0.0736
56500W        W99413  12.820  19.395  29.368 -0.3249 -0.1079 -0.0966
56501W        W99414   3.687   3.623  22.533 -0.2864  0.0253 -0.0653
56502W        W99415  10.407   9.188  29.313  0.3681  0.2073 -0.0102
56503W        W99416   8.498  11.776  28.473 -0.0790 -0.1159 -0.2900
56504W        W99417  10.500  15.641   2.875  0.1700  0.0623  0.2465
56505W        W99418  19.910  12.592  27.429 -0.3024 -0.0002 -0.1988
56506W        W99419  19.846  16.235   3.388 -0.1151  0.0398 -0.0173
56507W        W99420  23.138   1.775  25.690  0.5144  0.1675 -0.1004
56508W        W99421   6.329   3.958   4.998  0.1562  0.2339  0.2608
56509W        W99422  16.281  12.024  22.367 -0.0326  0.1965 -0.2204
56510W        W99423  12.418   6.031   0.846 -0.0957 -0.0544  0.0537
56511W        W99424  11.980   8.257  28.071  0.1126  0.0384  0.1435
56512W        W99425   3.791  15.936  25.332 -0.0501 -0.1796 -0.1546
56513W        W99426  19.522   8.978  19.450 -0.0351  0.0276  0.1849
56514W        W99427   8.127  18.310  25.638 -0.0325 -0.0223 -0.1298
56515W        W99428  22.254  12.598  27.551  0.1995  0.1624  0.2012
56516W        W99429  16.521  14.401   4.154  0.0775  0.1370 -0.1100
56517W        W99430  25.584   9.076  21.410  0.4242  0.0158  0.5696
56518W        W99431  26.196  16.698  29.317 -0.2973  0.0442  0.0115
56519W        W99432  14.001  10.519   3.686 -0.1542  0.0309 -0.2457
56520W        W99433   8.419  10.683   3.828 -0.1535  0.0294 -0.0933
56521W        W99434  11.388   5.924  21.319  0.0178  0.0177 -0.2552
56522W        W99435   8.747   3.193   2.434  0.0306 -0.1152  0.1512
56523W        W99436  13.873   8.930  20.946 -0.1516 -0.0703 -0.0276
56524W        W99437  12.180  16.542  22.469 -0.1803 -0.1097  0.1037
56525W        W99438   1.525   2.577  20.122 -0.1669 -0.0928  0.1448
56526W        W99439  13.613   0.849  24.734 -0.3152  0.4214  0.0316
56527W        W99440   1.545  14.695   0.781  0.0908 -0.1992 -0.2294
56528W        W99441  13.485   7.144  24.269  0.1182 -0.0844  0.1921
56529W        W99442  15.816  13.071  23.979 -0.2253 -0.1756  0.1624
56530W        W99443   5.367   5.285   0.636 -0.0476 -0.1783  0.3243
56531W        W99444  15.363  28.910  20.221 -0.2031  0.1098  0.0144
56532W        W99445   5.650  10.821   6.868  0.2008  0.0327  0.0788
56533W        W99446  19.389   4.946  24.114  0.3918 -0.0406 -0.0385
56534W        W99447  18.473   5.404   5.337 -0.1455  0.2211 -0.3338
56535W        W99448   6.284  11.575  19.678 -0.0048  0.3463 -0.2995
56536W        W99449   5.736  14.085  24.659 -0.3557 -0.0376  0.3174
56537W        W99450  19.221   5.639   8.157  0.2731  0.0237  0.0034
56538W        W99451   5.289   9.941  16.460 -0.1198  0.1292 -0.2782
56539W        W99452  13.911  11.482  22.332 -0.3292  0.0575 -0.0531
56540W        W99453  21.622   8.639  20.620  0.4340 -0.2883 -0.4326
56541W        W99454   9.863  15.200   0.998  0.2276 -0.1006 -0.0081
56542W        W99455  16.330  34.493  28.238 -0.2837 -0.0488 -0.0861
56543W        W99456   2.291  11.560   0.912 -0.0463  0.1863 -0.2493
56544W        W99457  20.777   6.156   3.681  0.0704  0.0506  0.1302
56545W        W99458  16.786   3.078  28.943 -0.3293 -0.1530 -0.2475
56546W        W99459  11.471  15.698  20.679  0.1051  0.4209 -0.1566
56547W        W99460  11.742   3.476  25.157  0.3385  0.2915  0.3046
56548W        W99461  15.052   2.595  23.301 -0.0541 -0.1121  0.3401
56549W        W99462  16.985   8.701   7.643  0.3504 -0.2174 -0.0162
56550W        W99463   7.096   9.115   1.124  0.1852  0.0152 -0.2495
56551W        W99464  16.609  21.079  22.806  0.0066  0.0542  0.1511
56552W        W99465   1.840   6.361  29.007  0.0623 -0.2225  0.0427
56553W        W99466  17.296   8.097  24.308 -0.0745  0.1212 -0.0180
56554W        W99467  12.094  10.777  23.482 -0.2762 -0.0032  0.2878
56555W        W99468   7.310   1.835   1.560 -0.2503  0.0205 -0.1878
56556W        W99469  11.005  19.751  22.727 -0.0792 -0.0870 -0.0452
56557W        W99470  20.999   3.448  25.693  0.3630  0.0106  0.1639
56558W        W99471  18.885   8.172  25.803  0.0446 -0.4691 -0.1716
56559W        W99472  11.038   7.371  21.935  0.0535 -0.0664  0.2025
56560W        W99473   9.958   0.282   5.199 -0.0169  0.2034 -0.3180
56561W        W99474  16.792  11.835  15.946 -0.1935  0.0495  0.1885
56562W        W99475  14.769   5.812   0.911 -0.1869  0.1668  0.1416
56563W        W99476   9.064   3.056  23.818 -0.0399 -0.0217  0.0133
56564W        W99477  13.103  33.279  27.567  0.2282  0.0864  0.0437
56565W        W99478   6.702  14.433  18.349  0.0077 -0.0420  0.0186
56566W        W99479   2.107  10.792  27.534 -0.2168 -0.2686 -0.1110
56567W        W99480  12.111  11.240  23.845  0.1044 -0.3992  0.0001
56568W        W99481  15.619   8.157  20.717  0.0747  0.2593 -0.3322
56569W        W99482  19.601   3.022  26.829 -0.0799 -0.0039  0.0852
56570W        W99483  12.176  16.757   0.057 -0.1187 -0.3142  0.2194
56571W        W99484  14.293  10.463  22.890  0.2425  0.0045  0.0751
56572W        W99485   9.566   5.556  26.858 -0.1328 -0.1716 -0.3852
56573W        W99486  16.136  22.164  23.392 -0.1786 -0.0285 -0.1392
56574W        W99487  16.986  12.174  13.526  0.1922  0.1808 -0.1051
56575W        W99488  29.940  12.039   3.559  0.5580  0.0416 -0.1572
56576W        W99489  14.362   4.056  22.457  0.1710  0.1032  0.1153
56577W        W99490  13.277  15.282  15.594 -0.0473 -0.1244 -0.1107
56578W        W99491  15.159  12.469  24.169  0.1922 -0.0461 -0.1979
56579W        W99492  12.154   5.252  16.677 -0.1004 -0.1490  0.1553
56580W        W99493  22.412  15.640  26.343 -0.2269 -0.0203 -0.1347
56581W        W99494   7.740  10.639  29.686 -0.0851  0.0281  0.0975
56582W        W99495   6.465   7.105   4.931  0.1984  0.1863  0.1896
56583W        W99496  14.543  34.348  27.566 -0.0409  0.1724  0.3694
56584W        W99497  20.045   7.327  23.290 -0.0281  0.2267 -0.1483
56585W        W99498  21.752   3.501  20.728 -0.2133 -0.1283 -0.1129
56586W        W99499  14.939   9.380  26.610  0.4587  0.2822  0.1846
56587W        W99500   6.954   2.554  27.416 -0.1438  0.1720  0.3377
56588W        W99501  16.655  10.958   3.849 -0.0754  0.1050 -0.1552
56589W        W99502   9.880   6.012  25.877  0.0200  0.1736 -0.0503
56590W        W99503   6.953  13.534   9.441  0.2083  0.1560 -0.1466
56591W        W99504  16.594   7.939  26.140 -0.1880 -0.0723  0.1569
56592W        W99505  26.962   6.242  23.168  0.1094 -0.2626 -0.0060
56593W        W99506   9.868  10.621   2.729 -0.0703 -0.0366 -0.1209
56594W        W99507  15.225  19.945   6.572 -0.1915  0.4329 -0.4105
56595W        W99508  18.420   3.082   6.642 -0.1590 -0.0198  0.1419
56596W        W99509  12.726  15.139   0.504  0.0661  0.0150  0.0230
56597W        W99510   3.065  13.319  18.935  0.4682  0.1314 -0.0582
56598W        W99511  10.950   0.641  17.388 -0.0988 -0.1686 -0.0083
56599W        W99512   9.717  13.715  29.007  0.1064 -0.2665  0.1179
56600W        W99513  11.733   6.432  17.425  0.2201 -0.2878  0.1881
56601W        W99514   8.908   6.909  23.423  0.0320 -0.4085 -0.1798
56602W        W99515   8.546   2.856  27.510  0.0062  0.0556 -0.3417
56603W        W99516   9.508  14.098   9.839  0.0276  0.1368 -0.4087
56604W        W99517  16.723  20.189  27.887  0.0298 -0.0817 -0.1565
56605W        W99518  27.904  16.846   1.796  0.2847 -0.1648  0.0091
56606W        W99519  20.243   8.057   0.101 -0.1097  0.1081 -0.1898
56607W        W99520  23.444  14.500  20.829  0.3773  0.0210  0.0306
56608W        W99521  14.078   9.830  25.905  0.0596  0.1698 -0.0643
56609W        W99522   7.817  12.786   0.703  0.0126  0.2911  0.0017
56610W        W99523   7.484  12.967   3.241 -0.0311  0.1195  0.1071
56611W        W99524  16.975   5.234  18.202 -0.0675 -0.1254 -0.1835
56612W        W99525   7.639   5.961   4.076 -0.4272 -0.1934  0.0026
56613W        W99526   3.739   4.427  27.457 -0.1530 -0.0055  0.0884
56614W        W99527   8.781  15.379  26.605  0.2944 -0.1877  0.1091
56615W        W99528   8.918   1.655  28.420  0.1947  0.1031  0.2569
56616W        W99529   7.629   8.750   1.190  0.0439  0.0550  0.1113
56617W        W99530  14.309  10.673  27.446  0.1932  0.0562  0.0912
56618W        W99531   3.027   8.342  29.613 -0.1627  0.0379  0.0250
56619W        W99532  14.724   8.252   8.397 -0.1130  0.2844  0.1302
56620W        W99533   9.254   3.701  11.968  0.0154 -0.3874 -0.0698
56621W        W99534   9.247  26.245  26.086 -0.4102 -0.1255  0.1540
56622W        W99535   5.183   3.909   0.380  0.0601  0.3039 -0.0138
56623W        W99536   6.286   7.450   9.624 -0.1273  0.2824  0.1857
56624W        W99537  17.015  14.665   2.280  0.1268  0.1535  0.1951
56625W        W99538  10.872   3.850   2.890 -0.0652 -0.2086 -0.1672
56626W        W99539  34.317  11.297  28.277  0.0957  0.1336 -0.0506
56627W        W99540  12.692   4.754   2.530 -0.1554  0.0797  0.0000
56628W        W99541  21.376  16.541  23.063 -0.1631 -0.0483 -0.1793
56629W        W99542   8.409   2.775   0.542  0.1903 -0.0638 -0.0522
56630W        W99543  14.218   3.231  17.923  0.1211  0.0147 -0.0897
56631W        W99544  11.320   7.895   3.188 -0.1127 -0.2530 -0.0940
56632W        W99545  12.614   0.710   8.724 -0.4099 -0.1319 -0.0247
56633W        W99546  26.350  14.581  27.706 -0.2503  0.1198  0.0378
56634W        W99547  20.632  12.731   5.118  0.1193  0.1460 -0.1363
56635W        W99548   5.376  11.198  29.116  0.5715 -0.0509  0.2300
56636W        W99549  23.054  17.168   4.621  0.3482  0.2094 -0.2478
56637W        W99550  10.694  15.783  26.633  0.0762  0.2730 -0.0856
56638W        W99551  10.468   4.589  11.658  0.1313  0.1930  0.0866
56639W        W99552   7.583   6.673  25.671 -0.2173 -0.3180 -0.1440
56640W        W99553  12.574  11.620   0.183  0.1986 -0.0829 -0.2974
56641W        W99554  22.444  32.532   8.618  0.0966  0.2241 -0.1587
56642W        W99555   5.012  18.013  24.757 -0.0896 -0.0304  0.2461
56643W        W99556   6.815  11.707   5.778  0.0283 -0.0061  0.0898
56644W        W99557   7.063   4.330   9.067  0.3139  0.1801  0.2554
56645W        W99558  19.282   6.619   2.209  0.2363  0.1694  0.1980
56646W        W99559   8.218   9.432  21.827 -0.0347  0.2910  0.0063
56647W        W99560   2.372  10.294  24.520  0.1242 -0.1916 -0.0454
56648W        W99561  13.004  31.409  10.722 -0.0767  0.0657  0.1797
56649W        W99562  21.193  11.337   3.981 -0.3761 -0.2121 -0.1212
56650W        W99563  11.944  11.061  10.104  0.0942 -0.2019 -0.2354
56651W        W99564  20.414  29.420   6.497 -0.0366 -0.1313 -0.1990
56652W        W99565  14.413  12.691   8.366 -0.1553 -0.2921 -0.0081
56653W        W99566   7.621   6.094   5.713 -0.2672 -0.0398  0.1563
56654W        W99567   9.407   3.710   3.506 -0.2449 -0.2916  0.4017
56655W        W99568  14.970  11.564   1.798 -0.1171 -0.0641 -0.2006
56656W        W99569   8.396   0.859   2.488  0.0191  0.0416 -0.1538
56657W        W99570   2.420   8.658   8.922 -0.1982  0.0774  0.0109
56658W        W99571  10.577   3.127   3.447 -0.0351  0.2582  0.0319
56659W        W99572  16.983  10.284   1.345  0.1245 -0.0375 -0.0312
56660W        W99573  11.162  29.790  29.575 -0.0392  0.2226 -0.0093
56661W        W99574  12.652   6.655   5.304  0.2555  0.1057 -0.2204
56662W        W99575  10.767  21.518  18.028 -0.3692  0.0080  0.1295
56663W        W99576  18.865   7.537  22.124  0.1679  0.2189 -0.2027
56664W        W99577   7.687   4.176  24.607 -0.0358 -0.1849  0.2586
56665W        W99578   9.760  23.030  25.847 -0.0875  0.0798 -0.1013
56666W        W99579  16.000   8.926   6.522  0.1271  0.0117  0.0318
56667W        W99580  20.645  10.391  18.169 -0.1034 -0.2077 -0.0387
56668W        W99581  28.138  32.034   9.226 -0.0539  0.0885 -0.0300
56669W        W99582  15.291  11.045  28.396 -0.1751 -0.0340 -0.2643
56670W        W99583   0.271  18.479  27.741 -0.0196  0.0536  0.0694
56671W        W99584  18.181   9.955   4.602  0.1271 -0.2381  0.3602
56672W        W99585   5.503  20.084  21.877  0.1918  0.0821  0.2662
56673W        W99586  13.703   4.532  19.430  0.1983  0.1549 -0.1692
56674W        W99587  10.277  10.907  18.421 -0.0431  0.1973  0.1306
56675W        W99588   8.605  15.587  21.903  0.2744 -0.3687  0.1016
56676W        W99589  10.255  13.390  13.629  0.0288 -0.0609 -0.2170
56677W        W99590  21.713  28.766  16.158  0.1067  0.0462 -0.1456
56678W        W99591  19.049  17.847  14.841 -0.2839 -0.2478  0.1949
56679W        W99592  15.057  14.276  17.094 -0.1428 -0.0207  0.2031
56680W        W99593  28.754  18.231  27.861 -0.3294  0.2706 -0.1107
56681W        W99594  11.523  12.495  14.337  0.0527 -0.1824  0.2585
56682W        W99595   6.401   9.776  24.769 -0.1886 -0.3073 -0.0681
56683W        W99596  13.558   9.381  18.357 -0.0748 -0.0664 -0.2769
56684W        W99597  18.279   6.086  18.301  0.1396  0.2769  0.2152
56685W        W99598   8.018  16.254  14.273  0.1470  0.2431  0.1702
56686W        W99599  15.337  12.764  27.856  0.1452  0.1768  0.0235
56687W        W99600   5.570   6.397  18.832 -0.1439 -0.0434 -0.0055
56688W        W99601   8.362  12.681  23.133 -0.2190 -0.1239 -0.3146
56689W        W99602  12.321  13.288  15.737 -0.1114  0.2643 -0.0257
56690W        W99603   5.372  13.951  17.929 -0.4559 -0.0160 -0.0998
56691W        W99604  24.842   8.720  17.392 -0.1638 -0.3587 -0.1827
56692W        W99605  20.686  11.033  23.419  0.2041  0.1337  0.1775
56693W        W99606  12.749  25.599  19.481 -0.1640 -0.2435 -0.2351
56694W        W99607  31.491   2.935  19.471 -0.0387 -0.1842 -0.1179
56695W        W99608   3.349  19.823  17.643  0.1904 -0.0126 -0.2465
56696W        W99609   0.788  10.358  19.632  0.2866  0.0123  0.0240
56697W        W99610   9.449   6.543  24.742  0.2306  0.0272  0.0009
56698W        W99611  15.044   3.085  18.359 -0.0104  0.2636  0.0679
56699W        W99612  10.280  10.085  16.471 -0.0533 -0.1117 -0.0716
56700W        W99613  21.299  17.335  21.232 -0.0305  0.3066 -0.0838
56701W        W99614  12.875  10.289  16.106  0.0426  0.0160  0.0396
56702W        W99615   5.879   4.703  17.995  0.0360  0.0754  0.2617
56703W        W99616   9.558  26.192  15.199 -0.2896 -0.0542 -0.0509
56704W        W99617   8.650   8.935  17.291  0.1213 -0.2863 -0.0548
56705W        W99618   9.877  12.307  16.793  0.1691  0.0026  0.1083
56706W        W99619  15.295  11.796  15.815 -0.1513 -0.2330 -0.0212
56707W        W99620  12.379  12.285  24.623 -0.0969  0.2010 -0.3036
56708W        W99621  32.301  15.383  21.524  0.1088 -0.0965  0.1193
56709W        W99622  10.769  11.545  19.425  0.0395 -0.0254 -0.2305
56710W        W99623  13.002  25.674  21.321 -0.0159  0.0057  0.0876
56711W        W99624  13.306  16.190  15.998 -0.2144 -0.1237  0.0573
56712W        W99625  15.532   6.870  18.249  0.1042 -0.0831  0.0160
56713W        W99626  22.189  13.606  13.629 -0.0093 -0.1406  0.0783
56714W        W99627  16.131   9.566  15.389  0.0075  0.3648  0.1122
56715W        W99628  13.598  19.423  14.461 -0.0223 -0.4044 -0.2186
56716W        W99629  18.522   2.404  14.998 -0.2585  0.0136  0.0820
56717W        W99630  26.857   7.739  15.098 -0.0543 -0.3463  0.1030
56718W        W99631   5.175  24.751  15.745 -0.0327 -0.1345 -0.0806
56719W        W99632  20.694   5.739  13.043 -0.1032  0.4048  0.0422
56720W        W99633  14.161  12.639  13.285  0.0680  0.0706 -0.0376
56721W        W99634  25.199  10.723  16.895  0.1235 -0.3885  0.0356
56722W        W99635   3.016  15.273  23.189  0.2969 -0.1808  0.1685
56723W        W99636  12.718  22.110  17.568  0.2238 -0.0256 -0.3537
56724W        W99637  23.899   3.663  23.804 -0.3650  0.2013 -0.1823
56725W        W99638  17.555   9.897  16.451  0.3208  0.0101 -0.0820
56726W        W99639  21.797  18.095  11.844 -0.0252  0.2150  0.2789
56727W        W99640  17.019  10.279  14.213  0.1580 -0.2872  0.0491
56728W        W99641   7.226  19.183  25.214 -0.1727  0.0700 -0.0586
56729W        W99642  16.708   9.874  17.546  0.1122 -0.0523 -0.1565
56730W        W99643  14.756  14.601  15.031 -0.0545  0.0781 -0.0040
56731W        W99644  30.580  15.362  24.061  0.0163  0.2486 -0.3022
56732W        W99645  18.607  14.656  15.300  0.0015 -0.1391 -0.1143
56733W        W99646  16.036  17.052  11.571 -0.2139  0.2036 -0.0383
56734W        W99647  17.862  12.174  23.884 -0.1988  0.3187  0.2706
56735W        W99648  11.208   2.074  23.264 -0.1908 -0.3823 -0.0937
56736W        W99649  13.918  10.554  27.051  0.0182 -0.2269  0.1288
56737W        W99650  11.415  27.523  26.930  0.0286 -0.0744  0.1881
56738W        W99651  11.067  13.060  17.850  0.1927  0.1623 -0.0888
56739W        W99652   6.674   8.406  20.142 -0.2764 -0.0868  0.3161
56740W        W99653  19.712  14.815  15.244  0.2836 -0.0340  0.2453
56741W        W99654  13.817   1.314  17.176 -0.2390  0.0061 -0.4137
56742W        W99655  12.018  22.981  16.560  0.0278  0.2609 -0.2020
56743W        W99656  20.576   8.534  12.622  0.1750 -0.0982 -0.0366
56744W        W99657  13.573   9.350  15.524  0.0695 -0.3788  0.2040
56745W        W99658  12.593   8.105  19.475 -0.3504 -0.0084 -0.1475
56746W        W99659   9.668   9.680  18.680  0.2441 -0.0966 -0.1840
56747W        W99660  18.738  15.105  13.261  0.1068  0.0102 -0.3053
56748W        W99661   7.630   4.470  18.750 -0.0013 -0.0643  0.0708
56749W        W99662   7.095  11.107  20.444  0.3049 -0.1076  0.0853
56750W        W99663  33.529  19.894  18.063 -0.0234 -0.1983  0.1157
56751W        W99664   4.697  15.919  18.450 -0.0779 -0.0214 -0.1027
56752W        W99665  18.579  13.409  11.727  0.0998 -0.0936  0.1438
56753W        W99666   9.930  25.691  22.004 -0.0825 -0.1779  0.2224
56754W        W99667   8.338  16.755  16.985  0.0213  0.1205 -0.0251
56755W        W99668   3.884  13.450  20.349  0.1530  0.0238  0.3568
56756W        W99669   3.127   9.945  17.182  0.3293  0.1088 -0.1100
56757W        W99670  12.685  13.138  14.837  0.0981 -0.3687  0.3525
56758W        W99671  15.631   7.224  17.788  0.2190 -0.0642  0.0093
56759W        W99672  20.906  10.682  16.229 -0.1314  0.1598  0.3653
56760W        W99673   8.678  13.563  20.110  0.0155 -0.2806 -0.1440
56761W        W99674  32.725  12.817  20.995  0.4778  0.0390  0.2070
56762W        W99675  14.225   7.973  25.937 -0.2838  0.0403 -0.2085
56763W        W99676  11.455   6.575  19.225  0.1396  0.2358 -0.1023
56764W        W99677   6.734  13.320  14.603 -0.1474 -0.0061 -0.0404
56765W        W99678  18.100   0.202  15.683 -0.0427  0.0902 -0.0334
56766W        W99679  10.876   0.397  19.619 -0.0940 -0.0173  0.0566
56767W        W99680  16.719   7.666  16.456 -0.2494 -0.2335 -0.1336
56768W        W99681  14.100  13.925  20.679 -0.1626  0.2418 -0.0443
56769W        W99682  10.626  15.579  15.559 -0.1702  0.2524  0.3046
56770W        W99683  11.647  11.908  18.127  0.0511 -0.0316 -0.1999
56771W        W99684   9.454   9.257  21.345  0.0627  0.1223 -0.0921
56772W        W99685   3.293  13.221  17.659  0.4363 -0.3425 -0.1287
56773W        W99686   7.918  17.498  27.215  0.1197 -0.4759  0.0388
56774W        W99687  16.763  18.240   1.631 -0.1666  0.0890 -0.1880
56775W        W99688  13.521  10.797  15.801  0.1182 -0.1907 -0.0039
56776W        W99689  26.555  22.258  19.991  0.1924  0.0563 -0.0784
56777W        W99690  12.078  13.782  18.673 -0.3063 -0.0677 -0.1380
56778W        W99691   0.572   9.817  26.416  0.2624  0.1598  0.2137
56779W        W99692  13.507   9.162  17.845  0.1839  0.0050  0.0185
56780W        W99693  13.157  15.955  23.742  0.1451  0.1342  0.0691
56781W        W99694  18.491   5.382  15.822 -0.4320  0.1827  0.0291
56782W        W99695  17.559  13.608  12.622  0.2330  0.0979 -0.0811
56783W        W99696  16.871  13.317  19.007 -0.1731 -0.1706  0.2904
56784W        W99697   8.902  14.627  20.362  0.3391  0.1268  0.0477
56785W        W99698  10.107  13.301  17.170  0.2435  0.1040 -0.0706
56786W        W99699  14.974  18.796  12.050  0.0258  0.1597  0.0565
56787W        W99700  24.905  11.596  19.208  0.1906  0.2332  0.0255
56788W        W99701   3.705  12.368  23.344  0.0541  0.4160  0.1274
56789W        W99702  25.046  17.510  14.480  0.2073 -0.1688 -0.0377
56790W        W99703  16.702  14.960  15.324 -0.0666 -0.0868  0.2040
56791W        W99704   5.960  12.853  16.442 -0.2199  0.0987  0.0610
56792W        W99705  12.714  23.641  13.495  0.0208  0.1170 -0.4047
56793W        W99706   8.297  13.170  14.200  0.6355  0.2777 -0.2334
56794W        W99707  22.353   6.640  17.191  0.0780  0.0708 -0.2597
56795W        W99708  15.572   7.228  15.343  0.0380  0.3570 -0.2099
56796W        W99709  16.472  14.556  12.663 -0.3953 -0.3260  0.0273
56797W        W99710   1.038  17.958  14.442  0.0747 -0.2195  0.0901
56798W        W99711  14.831   0.798  22.749  0.2200  0.1519 -0.2112
56799W        W99712  11.602  23.201  24.871 -0.0906 -0.3416  0.3338
56800W        W99713  13.601  11.372  27.475 -0.0398  0.0526  0.1261
56801W        W99714  13.425  20.625  13.439  0.0276 -0.4247 -0.0492
56802W        W99715   9.581  17.495  23.755  0.0654  0.0464  0.0404
56803W        W99716  18.193   3.215  17.412  0.0521  0.4808 -0.0555
56804W        W99717  11.708  10.282  20.036 -0.0307  0.0398 -0.0134
56805W        W99718   9.582  14.579  17.353  0.2170  0.1181  0.3362
56806W        W99719  22.800  22.930  16.485 -0.0525 -0.4495 -0.2065
56807W        W99720  25.917  22.271  29.634 -0.1388 -0.0371 -0.0632
56808W        W99721   9.448  23.345  13.868  0.0579  0.2565 -0.0633
56809W        W99722  10.416   7.036  19.630 -0.0248  0.0784 -0.0182
56810W        W99723   6.338   7.035  20.196  0.2046  0.0390 -0.1211
56811W        W99724  12.277  13.729  21.004  0.0379 -0.0385 -0.2560
56812W        W99725   7.911  15.212  16.676 -0.0685 -0.0449 -0.0793
56813W        W99726   7.226  18.526  13.070  0.0871 -0.0965 -0.0894
56814W        W99727   9.007   4.261  21.155 -0.1017 -0.2605 -0.0581
56815W        W99728  16.820   7.862  18.844  0.0213  0.1728  0.0149
56816W        W99729  14.728   9.974  13.958 -0.0951 -0.0923 -0.4969
56817W        W99730  19.511   7.462  17.203 -0.1329  0.1846 -0.2195
56818W        W99731  12.578  21.234  15.090  0.1542  0.0475  0.0208
56819W        W99732  12.861  11.680  16.469  0.1216  0.1407  0.0754
56820W        W99733  23.120   6.991  22.769 -0.1093 -0.0961  0.5537
56821W        W99734  11.382  10.881  15.823  0.2937 -0.2593 -0.1187
56822W        W99735   8.885  12.544  14.543 -0.0890  0.0315 -0.1362
56823W        W99736  15.101  13.832  13.036 -0.1374 -0.0744 -0.3151
56824W        W99737   8.022  20.742  19.085 -0.2462 -0.3780  0.2106
56825W        W99738  20.490  22.916  26.927 -0.2176  0.0907 -0.0341
56826W        W99739  20.940  22.698  12.572  0.1893 -0.1687  0.0913
56827W        W99740  19.875  33.180  23.181 -0.0283 -0.4171 -0.3640
56828W        W99741   9.050  15.413  19.408  0.3819 -0.0233 -0.0316
56829W        W99742  23.622  21.619  17.990 -0.2486  0.0711 -0.2653
56830W        W99743  18.820   8.372  27.583 -0.2682 -0.0103 -0.0134
56831W        W99744  26.218  16.353  18.968  0.0175  0.0406  0.1896
56832W        W99745  15.856   9.045  16.387 -0.0796 -0.1384 -0.0444
56833W        W99746  12.077  12.423  20.368 -0.1864  0.0923  0.1628
56834W        W99747   3.255   9.786  20.472 -0.1118  0.2987  0.0309
56835W        W99748  22.074  19.967  18.003  0.0796  0.0133 -0.1108
56836W        W99749  34.301  19.381  25.114 -0.4774  0.0993 -0.1381
56837W        W99750  28.637  20.384  15.778 -0.0968 -0.0248 -0.1393
56838W        W99751   3.269  14.786  18.367  0.0558 -0.1028  0.1946
56839W        W99752   6.541  14.910  15.520 -0.1427 -0.1187  0.0212
56840W        W99753   8.763  23.097  25.947 -0.1830 -0.0330 -0.0471
56841W        W99754  14.582  14.707  16.364  0.0956 -0.0547  0.1886
56842W        W99755  22.044  10.887  15.538  0.0034 -0.0569  0.0585
56843W        W99756  14.300  14.371  17.766 -0.1659  0.0959  0.0680
56844W        W99757  23.175   4.817  20.969  0.1862  0.1315  0.3225
56845W        W99758   7.445  18.963  16.444  0.2064  0.3858 -0.0223
56846W        W99759   0.799  15.554  20.748  0.1917 -0.2515 -0.2180
56847W        W99760  14.718  14.733  18.492  0.0668  0.3031  0.0853
56848W        W99761  18.566  20.794  14.148 -0.3079 -0.0950  0.0493
56849W        W99762  18.086   7.892  19.235 -0.3067 -0.0414 -0.0247
56850W        W99763   6.468  10.355  17.568 -0.3000 -0.1492  0.2099
56851W        W99764   9.118  14.707  16.533  0.0492 -0.0444  0.3742
56852W        W99765  13.285   3.137  20.600  0.1316  0.1049  0.1699
56853W        W99766   5.805  17.491  24.258 -0.1540 -0.0822  0.2749
56854W        W99767  11.708   9.711  18.823  0.4283  0.3086 -0.0677
56855W        W99768  12.814   3.634  21.103 -0.0830  0.1107  0.1847
56856W        W99769   9.612  18.801  15.708  0.1686 -0.0298 -0.0630
56857W        W99770  10.909  12.731  15.484 -0.2758  0.1123 -0.0034
56858W        W99771  19.204  10.502  12.873 -0.1802 -0.0048  0.0429
56859W        W99772   8.601  10.327  20.030 -0.2392 -0.1569  0.0258
56860W        W99773   3.458  25.302  29.137  0.1193  0.1801 -0.2320
56861W        W99774  26.478  16.106  19.317 -0.0756 -0.1415  0.1146
56862W        W99775  13.484  23.360  20.387  0.2369  0.0043 -0.0862
56863W        W99776  13.409   8.721  15.307 -0.1384 -0.0559 -0.0343
56864W        W99777  27.381  12.336  20.558  0.0288  0.0857  0.0803
56865W        W99778   7.826   4.918  23.015  0.1769  0.1440  0.0564
56866W        W99779  17.233  33.531  16.217 -0.1728 -0.2538  0.0432
56867W        W99780   9.964  10.573  18.205 -0.0990 -0.0977  0.2138
56868W        W99781  15.402   0.456  22.985 -0.2297 -0.0415 -0.2217
56869W        W99782   7.359  24.755  25.751 -0.1623  0.2414  0.0886
56870W        W99783  12.036  17.857  17.341  0.3021  0.1647  0.2359
56871W        W99784  13.281  10.881  23.361 -0.1134  0.0520 -0.0808
56872W        W99785  11.087  12.534  14.554 -0.1577 -0.0413  0.1984
56873W        W99786  16.781  12.244  16.345 -0.1255  0.2453  0.0844
56874W        W99787  16.760  24.814  14.222  0.1378  0.1121  0.3195
56875W        W99788  11.956  16.215  22.176 -0.0260  0.2771 -0.3639
56876W        W99789  16.819   9.141  14.488  0.0459 -0.2021 -0.2209
56877W        W99790  13.990   0.287  19.964 -0.2692  0.1314 -0.1143
56878W        W99791  20.631  10.286  13.119  0.3265 -0.1888 -0.2149
56879W        W99792  25.636  16.908  14.753 -0.0238 -0.4359 -0.4073
56880W        W99793   2.063  16.029  13.522 -0.1738 -0.2877  0.1923
56881W        W99794   3.837  11.609  14.636  0.1447 -0.1094 -0.0900
56882W        W99795  19.659   3.592  16.914 -0.0534  0.1582  0.4967
56883W        W99796   8.936  10.354  16.063  0.2720  0.0994  0.0254
56884W        W99797  12.295  15.523  17.223 -0.1010  0.0143  0.1100
56885W        W99798  17.789  10.069  13.479 -0.1966  0.3090 -0.2099
56886W        W99799  15.963   8.770  18.244 -0.1330 -0.1279  0.0490
56887W        W99800  12.525  12.267  17.131 -0.0776 -0.0742 -0.0438
56888W        W99801   4.021  17.336  17.499  0.0054 -0.2229  0.0455
56889W        W99802   9.427   9.908  16.367 -0.3142  0.0224 -0.1134
56890W        W99803  25.443  20.685  15.314 -0.2354  0.1094 -0.0904
56891W        W99804  20.283   5.721  17.344 -0.2043  0.1159 -0.1957
56892W        W99805  13.954   8.477  17.002 -0.1077 -0.0620  0.0275
56893W        W99806  18.235   4.274  15.804  0.1539  0.1900 -0.0749
56894W        W99807  15.115   6.749  20.778  0.2665 -0.0357 -0.0940
56895W        W99808   7.269  18.590  13.963  0.1087 -0.1249 -0.1189
56896W        W99809  13.832  20.228  15.796 -0.0877 -0.0605 -0.1504
56897W        W99810   9.389  17.641  19.045  0.0202  0.0182  0.1411
56898W        W99811  22.442  18.613  13.068 -0.1123 -0.1214 -0.0026
56899W        W99812  19.026   7.377  14.710  0.2352  0.0262 -0.1311
56900W        W99813  18.077  19.364  15.192 -0.2778  0.1606 -0.0461
56901W        W99814  22.087  16.759  24.270  0.0880 -0.0862  0.2300
56902W        W99815  12.819   7.387   6.167  0.2031 -0.2330  0.0238
56903W        W99816   8.704   8.691  24.883 -0.2019 -0.5050 -0.0432
56904W        W99817  22.484  11.726  19.639  0.1966  0.4586  0.0542
56905W        W99818  13.510   7.066  15.468  0.0859 -0.1188 -0.0218
56906W        W99819   7.190  17.934  14.586  0.1633  0.0027  0.1288
56907W        W99820   9.309  10.364  16.524  0.1731  0.1350  0.1730
56908W        W99821   7.008  20.945  15.987 -0.0438 -0.1208 -0.1865
56909W        W99822   8.385  10.797  28.609 -0.2813 -0.0977 -0.0016
56910W        W99823  18.824  15.934  23.801 -0.1597 -0.1592  0.0325
56911W        W99824  13.727  15.047  17.223 -0.0070 -0.0225  0.1302
56912W        W99825  10.600   3.815  21.698  0.0640  0.2812 -0.1464
56913W        W99826   9.210   9.792  17.920  0.0461 -0.1923  0.0681
56914W        W99827  12.912  15.585  15.270  0.2664 -0.1457  0.0477
56915W        W99828   1.441   4.383  17.320 -0.0533 -0.1189 -0.1721
56916W        W99829   6.492  12.849  16.726  0.1189 -0.2603  0.2586
56917W        W99830   5.828  13.035  21.713 -0.0728 -0.1612 -0.1168
56918W        W99831   9.402  12.875  16.167 -0.0122 -0.1455 -0.2840
56919W        W99832   7.162  15.333  19.533  0.1321  0.0540 -0.0930
56920W        W99833   0.760  10.222  17.013 -0.1227  0.0228  0.1419
56921W        W99834   7.486  13.221  15.058 -0.1311 -0.0398  0.0204
56922W        W99835  16.175   8.973  18.694  0.0703  0.0690 -0.2133
56923W        W99836   4.004   7.317  19.130  0.1069  0.2523 -0.0504
56924W        W99837   5.382  13.802  23.420  0.1087  0.1063 -0.3386
56925W        W99838  20.162  10.861   0.193  0.1695 -0.1160 -0.2716
56926W        W99839  15.234  15.536  13.349 -0.1017  0.1043  0.0985
56927W        W99840  12.624  19.152  17.329  0.1871  0.2947  0.0781
56928W        W99841  24.331   8.195   2.363 -0.1300 -0.0031  0.0161
56929W        W99842  19.205   9.728  14.634 -0.0507 -0.2807  0.1205
56930W        W99843  25.740  18.071  18.135  0.5177  0.0465 -0.2221
56931W        W99844   6.317   9.019  25.884  0.1982  0.2997 -0.2417
56932W        W99845   8.270  14.675  15.017  0.4944 -0.2636  0.1430
56933W        W99846  10.507  18.095  14.309  0.0322 -0.2616  0.0961
56934W        W99847   3.308   8.991  23.302  0.2518 -0.2050 -0.5970
56935W        W99848  24.804  22.010  15.546 -0.0462 -0.3710 -0.2228
56936W        W99849   9.959  19.672  19.756  0.0022  0.0786  0.1742
56937W        W99850  13.808  16.930  24.832  0.2551  0.0656  0.1150
56938W        W99851   2.895  12.171  27.922 -0.0352  0.2311  0.2709
56939W        W99852  15.533  11.416  14.095 -0.2585  0.0766  0.2608
56940W        W99853   8.588  18.039  20.327  0.0020 -0.1480 -0.3394
56941W        W99854  26.196  18.168  18.346  0.0910  0.0982  0.0341
56942W        W99855   6.408  16.975  13.998  0.4220  0.0201  0.0517
56943W        W99856   5.891  22.209   1.370 -0.3308 -0.0287  0.0236
56944W        W99857   6.861  10.848  29.506  0.1554 -0.0114  0.1239
56945W        W99858  17.720  21.791  17.633  0.2396 -0.3264  0.0985
56946W        W99859   7.989  14.242  26.109 -0.2496 -0.1549 -0.0869
56947W        W99860  20.435  10.585  12.699  0.0615 -0.0696 -0.0857
56948W        W99861  17.179  13.819  13.010  0.2633  0.1900 -0.2268
56949W        W99862  20.602  10.728  14.301  0.2536  0.0152 -0.2014
56950W        W99863  24.482  11.459  14.535 -0.2000  0.2115 -0.2638
56951W        W99864   6.004  17.154  19.781 -0.0637 -0.0469 -0.0469
56952W        W99865  14.019  16.428  12.246  0.1077 -0.2976  0.0416
56953W        W99866  11.954  17.961  20.074 -0.2502  0.0683  0.0220
56954W        W99867  14.050  14.345  13.385 -0.1630  0.0307  0.0740
56955W        W99868  13.047   7.243  22.907  0.2182 -0.0668 -0.2529
56956W        W99869   9.876  12.863  17.026 -0.0275  0.1069 -0.1048
56957W        W99870  18.357  32.368  17.104  0.1192 -0.0057 -0.0735
56958W        W99871  18.888  10.623  23.679 -0.2293  0.0776  0.0324
56959W        W99872  19.248  11.957  20.667 -0.0781 -0.0599 -0.0283
56960W        W99873  12.443  14.810  17.161 -0.0061 -0.0235 -0.1496
56961W        W99874  24.475   9.779  25.592 -0.0949 -0.0118  0.2118
56962W        W99875   9.498   0.570  21.701 -0.0505 -0.0633 -0.0442
56963W        W99876  12.346  17.467  17.408  0.0692 -0.2683 -0.1238
56964W        W99877  19.098  23.868  18.225  0.1983  0.2117  0.0573
56965W        W99878  15.272  10.697  24.874 -0.2584  0.1078 -0.0756
56966W        W99879  20.545   4.182  18.871 -0.2302 -0.1345 -0.1787
56967W        W99880  20.277  10.010  22.610  0.2280 -0.1661  0.0483
56968W        W99881  12.229  14.459  27.132 -0.0640  0.0051 -0.0119
56969W        W99882  11.313  18.901  15.990  0.0540  0.1778  0.5450
56970W        W99883  20.459   8.777  28.609 -0.0463  0.0592 -0.1025
56971W        W99884  14.328  26.392  18.669  0.0538  0.0630 -0.1790
56972W        W99885  11.785  15.058   0.982  0.0416 -0.1690  0.0587
56973W        W99886  12.789  10.681  15.371 -0.1121 -0.0999  0.3190
56974W        W99887  25.271   3.992  14.711 -0.1208  0.0640 -0.1038
56975W        W99888  16.751  11.475  16.323 -0.2205 -0.0207  0.2201
56976W        W99889  25.831  11.895  16.409  0.0860  0.0208 -0.1843
56977W        W99890   9.152  10.742  16.855  0.1448  0.2443  0.2064
56978W        W99891  18.166   3.831  21.239 -0.3291 -0.0196 -0.0109
56979W        W99892   7.646  12.703  20.314 -0.0252  0.0632  0.0831
56980W        W99893  10.205  23.617  20.476  0.1136 -0.1248  0.0134
56981W        W99894  14.043  10.241  17.004  0.1532 -0.3056  0.1929
56982W        W99895  18.062  27.677  19.414 -0.2505 -0.0169 -0.2604
56983W        W99896  12.045   9.309  15.767  0.0171 -0.1515 -0.2149
56984W        W99897  18.631   2.091  20.223 -0.0092 -0.1714  0.0369
56985W        W99898  12.452   9.912  20.566  0.1880 -0.0422 -0.0650
56986W        W99899  11.428  19.676  23.065  0.2523 -0.2194  0.0268
56987W        W99900  21.742   9.030  20.297 -0.2089 -0.2658 -0.2647
56988W        W99901  11.592  12.532  20.501 -0.0167 -0.0316 -0.1333
56989W        W99902   9.280  18.132  25.442 -0.3869 -0.1119  0.0386
56990W        W99903  14.074   3.720  20.713 -0.0150 -0.0626 -0.0517
56991W        W99904   3.790   9.806  23.296  0.1252  0.3173  0.2196
56992W        W99905   8.459  20.001  15.290 -0.0483  0.0207  0.1523
56993W        W99906  19.716   6.304  15.168 -0.0494 -0.0656 -0.0555
56994W        W99907  12.479   6.743  26.777  0.1555  0.5271  0.0049
56995W        W99908   9.246   6.866  18.142  0.0509  0.2406 -0.0078
56996W        W99909  11.565  14.230  18.843 -0.1062  0.0275 -0.0362
56997W        W99910  15.092  11.549  13.839 -0.0786  0.1532  0.2419
56998W        W99911  22.054   0.009  15.158  0.4436 -0.3696  0.0042
56999W        W99912   6.109  14.360  19.527 -0.1535 -0.2912  0.0826
57000W        W99913  12.547   8.514  20.743 -0.0091 -0.0698  0.0130
57001W        W99914  11.518  13.630  15.014 -0.0453  0.3138 -0.0546
57002W        W99915  17.296  13.570  13.424  0.0305 -0.0523 -0.1004
57003W        W99916   8.306  17.807  17.150  0.0210  0.0146 -0.1074
57004W        W99917   9.416  19.185  17.037 -0.0308  0.0638  0.0118
57005W        W99918  13.471  10.280  18.176  0.0626  0.0779 -0.0791
57006W        W99919   8.277  13.543  25.690 -0.0993  0.0791  0.0104
57007W        W99920   3.379  16.401  22.347 -0.0919  0.2899 -0.2101
57008W        W99921   8.345  10.040  26.954 -0.2476  0.0414  0.2373
57009W        W99922   8.032  19.487  18.426  0.2130  0.1575 -0.2665
57010W        W99923  17.756  20.039  14.791 -0.2909 -0.1075 -0.0357
57011W        W99924   8.507  22.697  19.974 -0.1405 -0.0514  0.0240
57012W        W99925   2.294   9.397  20.907 -0.2045 -0.0449  0.1429
57013W        W99926  16.734   9.409  17.419  0.0562 -0.3201  0.1425
57014W        W99927   6.862   6.947  20.115 -0.0187 -0.0560  0.0643
57015W        W99928   4.039   3.182  22.383  0.2130 -0.0792  0.1069
57016W        W99929  19.486  11.949  28.200  0.2402  0.1557 -0.0264
57017W        W99930  14.382  13.359  18.275 -0.2307  0.1275 -0.1650
57018W        W99931   7.021   7.967  21.928  0.1722 -0.0953  0.0595
57019W        W99932  19.965   6.484  17.440  0.0966 -0.1122  0.0202
57020W        W99933  25.748  14.792  19.301 -0.5333  0.0797 -0.2694
57021W        W99934  22.268   3.976  19.637 -0.2222  0.3866  0.1127
57022W        W99935   7.399   8.127  18.983  0.2190 -0.0320 -0.2989
57023W        W99936  19.329  15.989  14.603 -0.6149  0.0141 -0.3138
57024W        W99937  33.016  12.218  17.763  0.0277  0.2172  0.1379
57025W        W99938   7.883  13.997  19.350  0.0273 -0.2462  0.3746
57026W        W99939  16.678  16.468  15.074  0.1012 -0.0869 -0.2381
57027W        W99940   9.626  10.683  16.748 -0.2936  0.0698 -0.0286
57028W        W99941   4.654  16.141  21.970  0.0019  0.0793 -0.0270
57029W        W99942   9.248  11.373  20.654  0.2204 -0.0203  0.2119
57030W        W99943   7.759   7.838  19.872  0.0852  0.1083  0.0907
57031W        W99944   6.914  14.639  16.387 -0.1206 -0.1325 -0.0708
57032W        W99945  10.700  10.966  19.895 -0.2300  0.0052  0.1222
57033W        W99946  11.370   6.651  18.698  0.3511 -0.1603 -0.0667
57034W        W99947  13.617  18.502  15.743 -0.4194 -0.4486  0.0531
57035W        W99948   5.644  17.288  17.820  0.0151 -0.3618 -0.0007
57036W        W99949  17.216  24.842  17.078 -0.1685 -0.2152  0.0607
57037W        W99950  28.432  18.543  23.864 -0.0374  0.1106 -0.1277
57038W        W99951   1.155   1.227  21.219  0.0448 -0.0399  0.0563
57039W        W99952  14.056  26.428  20.023 -0.0800 -0.2924 -0.0132
57040W        W99953  10.870   9.745  15.776 -0.3499 -0.0977 -0.2529
57041W        W99954   4.918  13.701  15.642  0.0810 -0.0129 -0.1842
57042W        W99955  24.168  21.843  18.075  0.2813  0.2971  0.1433
57043W        W99956   5.201  18.455  13.894  0.1992  0.0025 -0.1089
57044W        W99957  24.728  15.153  14.297  0.1678 -0.1115  0.0725
57045W        W99958  23.923  15.108  20.408  0.3623  0.2083 -0.0699
57046W        W99959  11.103  17.756  13.809  0.0174  0.0566 -0.2767
57047W        W99960  18.268  11.979  23.602 -0.0282 -0.4942  0.1229
57048W        W99961  16.371  28.319  17.229  0.2327  0.1923  0.1009
57049W        W99962  19.003  18.775  13.452 -0.0526 -0.1172 -0.1391
57050W        W99963  18.174   8.920  17.457 -0.1953 -0.1296 -0.1458
57051W        W99964  13.602  13.098  16.975 -0.1745 -0.3818  0.1014
57052W        W99965   4.519  19.386  16.173 -0.1019  0.1073 -0.1493
57053W        W99966  13.678  15.561  17.590  0.0965  0.0077  0.2125
57054W        W99967   2.045   0.602  24.736  0.0125  0.1420 -0.2305
57055W        W99968  12.157  13.941  15.136  0.2312 -0.2787 -0.0949
57056W        W99969  11.976  18.128  13.479 -0.0741  0.0478 -0.0252
57057W        W99970   7.777  16.343  15.638 -0.0612 -0.0755  0.3571
57058W        W99971  17.304   9.269  14.292 -0.0328 -0.0880 -0.0405
57059W        W99972  15.822  11.090  19.299  0.4602  0.0330 -0.1182
57060W        W99973  25.662  17.205  20.070 -0.0940 -0.0321 -0.2768
57061W        W99974  10.660  21.406  13.803  0.2168  0.0402  0.0838
57062W        W99975  13.908  11.377  25.270  0.0860 -0.0366  0.0863
57063W        W99976  24.639  14.106  19.407 -0.3139  0.1101 -0.1315
57064W        W99977   8.949   2.998  20.539 -0.3138 -0.0176 -0.2220
57065W        W99978  17.972  18.246  12.401  0.0459 -0.2168  0.1650
57066W        W99979  15.327  12.909  17.266  0.2212 -0.1816 -0.2638
57067W        W99980  20.394  13.952  14.406 -0.1187  0.1030  0.1010
57068W        W99981   4.444  17.982  25.426  0.0500  0.3444 -0.0010
57069W        W99982  17.882   5.706  20.394  0.2497  0.0159 -0.3432
57070W        W99983  11.539  15.429  13.592  0.0161  0.2325  0.2380
57071W        W99984  15.285  23.241  14.814  0.2682  0.0280 -0.1898
57072W        W99985  12.246  18.829  26.753  0.1236 -0.1401 -0.0933
57073W        W99986   9.073   4.612  24.396  0.1203 -0.0611  0.0321
57074W        W99987  18.862   8.964  17.289 -0.2689 -0.1800  0.0984
57075W        W99988  26.995   4.593  20.668  0.2529  0.1317  0.0668
57076W        W99989   8.466  14.787  14.133 -0.4849 -0.0845 -0.1596
57077W        W99990   4.515  22.416  15.416 -0.0859  0.0630 -0.0534
57078W        W99991  17.374  15.554   1.798  0.0737 -0.1321 -0.2905
57079W        W99992  21.718  31.333  26.828  0.1396 -0.3385  0.3552
57080W        W99993   8.187  15.792  17.174 -0.1213 -0.0549 -0.2468
57081W        W99994  10.013  16.654  16.633  0.0706 -0.0941 -0.2270
57082W        W99995  17.994   3.135  19.462 -0.0465 -0.1330  0.3706
57083W        W99996   9.274  15.454  25.307  0.2528 -0.0868  0.0666
57084W        W99997  26.835  10.550  20.414 -0.0992  0.1139  0.1954
57085W        W99998  10.308  34.110  20.392 -0.2230 -0.2712  0.2338
57086W        W99999   8.606  14.570  22.993 -0.1691  0.1445 -0.0800
57087W        W    0  10.663  10.774  18.191 -0.1097  0.4514 -0.2369
57088W        W    1   3.509  13.379  26.595 -0.3443  0.1949  0.1847
57089W        W    2  11.276  10.591  14.616  0.0626 -0.1725 -0.0253
57090W        W    3   3.246   3.377  17.635  0.0470 -0.0588  0.1026
57091W        W    4  12.854  19.019  22.643 -0.1701 -0.0279  0.0368
57092W        W    5  17.084   5.862  19.097 -0.3751  0.4047 -0.2974
57093W        W    6   6.657  13.024  17.180  0.6141  0.3035  0.0040
57094W        W    7   7.106   1.153  23.904  0.1473 -0.1359 -0.1435
57095W        W    8  32.003   3.023  23.337 -0.0122  0.0435 -0.0467
57096W        W    9  15.611   7.547  17.369  0.0385  0.0944  0.2358
57097W        W   10  13.103  10.534  24.348 -0.1086  0.2748  0.0271
57098W        W   11  22.016  15.188  27.843  0.0877  0.1150  0.1384
57099W        W   12   3.857  10.829  25.168  0.2801  0.3760  0.2013
57100W        W   13  11.478  11.184  20.331  0.0231 -0.2916  0.1270
57101W        W   14  13.319   8.427   4.607  0.1615  0.3791  0.2262
57102W        W   15  23.660  16.835  15.315 -0.1087 -0.0538 -0.1526
57103W        W   16  16.297  17.174  28.038  0.1309  0.1605 -0.3225
57104W        W   17  32.493  22.856  23.878 -0.1600  0.1092 -0.0043
57105W        W   18  10.552  14.662   3.209  0.2523 -0.0833 -0.2961
57106W        W   19  20.899  27.529  15.803  0.0454  0.0760  0.0599
57107W        W   20  11.022  11.680  14.227 -0.1730 -0.1534  0.0189
57108W        W   21  10.993  12.662  21.358 -0.4150  0.1810  0.0030
57109W        W   22  14.261  13.229  22.568 -0.0962  0.0166  0.0121
57110W        W   23   7.750  15.776  21.836 -0.0007  0.0378  0.1569
57111W        W   24   8.761   7.642  18.719 -0.0281  0.1476 -0.1727
57112W        W   25  18.898   6.125  15.014 -0.3627  0.0183 -0.1271
57113W        W   26   9.996  20.997  16.460  0.3667  0.2674 -0.0347
57114W        W   27  12.230  10.088   1.106  0.0070  0.1032  0.0135
57115W        W   28  19.903   7.337  22.090 -0.1353 -0.2160  0.1604
57116W        W   29  12.807   6.187  23.942 -0.0863  0.1557  0.0504
57117W        W   30   9.084  16.610  24.600  0.1788 -0.0209  0.3817
57118W        W   31  12.561  21.550  20.900  0.0669 -0.0708 -0.0062
57119W        W   32  12.251   8.296  24.456 -0.1173 -0.1820 -0.1399
57120W        W   33   7.425  16.975  16.186 -0.0967 -0.0453  0.1720
57121W        W   34   4.733   7.761  18.644  0.4516 -0.2083 -0.0888
57122W        W   35   5.537   9.938  17.285 -0.3268 -0.0363  0.0956
57123W        W   36  22.781  12.900  16.799  0.0366  0.2187  0.2314
57124W        W   37  13.803   9.538  21.244  0.1752 -0.3914  0.4335
57125W        W   38   6.000  11.665   1.799  0.3872 -0.2612  0.0483
57126W        W   39  26.133  10.637  19.047 -0.1080  0.0287  0.0601
57127W        W   40   8.725   6.834  17.813 -0.2366 -0.2019  0.0138
57128W        W   41  23.727  22.821  14.738 -0.0890  0.1600 -0.0008
57129W        W   42  20.394   5.133  19.845  0.1838 -0.2222 -0.1105
57130W        W   43  17.158  13.772  13.961  0.1622 -0.1539  0.0861
57131W        W   44  10.989  20.237  15.563  0.0601  0.1603  0.0579
57132W        W   45  13.726   7.577  24.457  0.0984  0.0438 -0.0863
57133W        W   46  11.989  11.474  22.128 -0.0621  0.1630  0.0539
57134W        W   47  10.382  14.930  17.533 -0.0888  0.0807  0.1691
57135W        W   48  13.031  16.613  24.668 -0.0168  0.1255  0.1081
57136W        W   49  15.643  10.539  21.641 -0.1191 -0.0907  0.1553
57137W        W   50  10.547  14.959  21.264  0.2480 -0.0815  0.0942
57138W        W   51  16.370  17.419  14.087  0.0087  0.0952 -0.1846
57139W        W   52  24.815  26.435  19.453  0.2751 -0.5302 -0.0086
57140W        W   53  31.875   6.521  20.242 -0.2515 -0.1211 -0.1108
57141W        W   54  24.950  10.198  16.246  0.0296 -0.3257 -0.1688
57142W        W   55  17.293  11.368  15.362 -0.0976  0.2434 -0.4043
57143W        W   56   8.726   0.074  17.526 -0.2455  0.0677 -0.2052
57144W        W   57  12.955  14.793  28.881  0.1255 -0.1733 -0.3783
57145W        W   58  27.652  15.205  14.380  0.0347  0.0689 -0.2741
57146W        W   59  16.103   2.110  17.711  0.2269  0.3766 -0.0113
57147W        W   60  10.808  19.482  20.845  0.0417 -0.0914 -0.2732
57148W        W   61   5.733  15.598  16.400  0.1144 -0.0115  0.1064
57149W        W   62   6.911  14.444  21.732 -0.2594 -0.0494 -0.0299
57150W        W   63  10.888  14.179  14.264  0.0906 -0.0291  0.1380
57151W        W   64  10.786  15.910  17.474  0.0621 -0.1481  0.0140
57152W        W   65   5.160  14.323  17.762 -0.3273  0.0044  0.0585
57153W        W   66  13.010   8.261  17.822 -0.0549 -0.0042 -0.1003
57154W        W   67   9.203   2.940  27.743 -0.3532  0.3315  0.1899
57155W        W   68   8.063   7.880  23.017 -0.1817  0.1864  0.1232
57156W        W   69  17.896  11.610  20.083  0.0420  0.0430  0.0374
57157W        W   70  15.820   6.384   6.852 -0.2406 -0.0445 -0.0379
57158W        W   71  15.529   9.837   0.954  0.2181  0.1819 -0.3263
57159W        W   72  27.464   5.916  25.033 -0.2080  0.0047 -0.1643
57160W        W   73   6.796  13.629  18.298  0.4510  0.0274  0.1447
57161W        W   74  15.959  29.292   2.022 -0.1898  0.0480 -0.0074
57162W        W   75  10.533  15.653  18.097  0.1161 -0.4170  0.3469
57163W        W   76  17.501   8.158  15.662 -0.0669 -0.0762  0.3861
57164W        W   77  14.251  14.502  19.461  0.0761 -0.1750  0.1862
57165W        W   78  14.081  10.546  19.989  0.1467  0.1850  0.2298
57166W        W   79  12.268  34.217  26.253 -0.0225  0.1891  0.1752
57167W        W   80   4.574   4.525  18.571 -0.0758  0.1772  0.1157
57168W        W   81   9.631  18.343  15.347 -0.0021  0.2366  0.0014
57169W        W   82   5.324   9.575  19.363 -0.0930  0.0756 -0.1915
57170W        W   83  19.502   4.401  23.246  0.0969  0.0835  0.1293
57171W        W   84  31.406  22.812  28.598  0.1478  0.2809 -0.0657
57172W        W   85  15.077   8.422  17.798 -0.1916  0.0045 -0.1865
57173W        W   86  19.397   4.800  22.936 -0.0598  0.1923 -0.1625
57174W        W   87  15.683  13.735  13.945 -0.1942  0.2202  0.0942
57175W        W   88  19.689  11.033  28.092  0.0359 -0.0440 -0.2989
57176W        W   89   5.754  22.100  24.538  0.1089  0.1690  0.4592
57177W        W   90  10.952  18.939  21.282 -0.1550  0.0959 -0.1787
57178W        W   91   8.422   7.979  20.660  0.1903 -0.1759  0.0760
57179W        W   92  16.930  20.377  24.164  0.0253 -0.2250 -0.4173
57180W        W   93   6.026  17.825  22.269  0.1897 -0.2055 -0.2754
57181W        W   94   7.387   8.482  27.395  0.1399 -0.3095  0.1577
57182W        W   95   2.051  20.844  21.124  0.3371  0.1531  0.0843
57183W        W   96   8.083  17.951  16.177 -0.2159  0.1732  0.2549
57184W        W   97   6.054   5.285  22.283 -0.0093 -0.1948  0.0380
57185W        W   98  13.667  14.516  23.650  0.0090 -0.3909  0.2954
57186W        W   99  18.677   9.829  14.522  0.3267 -0.3043 -0.0646
57187W        W  100  22.390   7.427  22.299  0.1037  0.1924 -0.0231
57188W        W  101  10.151  12.463  22.154  0.2128 -0.1649  0.1107
57189W        W  102  19.262  14.228  14.240  0.0030  0.2733  0.0811
57190W        W  103   7.103  15.612  16.525 -0.0592  0.3195 -0.2502
57191W        W  104  11.090  13.028  17.016  0.0042  0.0156 -0.2624
57192W        W  105  12.795  18.015  12.985  0.0139  0.1045 -0.1347
57193W        W  106  19.923   8.222  15.983 -0.1947 -0.1722 -0.1961
57194W        W  107   3.523  17.707  17.332 -0.2387 -0.1162 -0.2079
57195W        W  108  13.757   7.219  20.449 -0.1180  0.0362  0.0505
57196W        W  109   4.421  15.121  28.030  0.0953 -0.2937  0.4345
57197W        W  110  11.560  16.498  13.182  0.1063  0.2788  0.2456
57198W        W  111  15.680  10.690  15.122 -0.2722  0.2067  0.1018
57199W        W  112  16.124   8.487  16.550  0.1378  0.0711  0.0970
57200W        W  113  13.919   6.857  22.602 -0.3480  0.5957 -0.3614
57201W        W  114  17.066   1.899  22.492 -0.2432 -0.0997  0.2068
57202W        W  115  12.723  14.169  20.152  0.3563 -0.0044  0.0056
57203W        W  116   8.450   8.429   2.832 -0.0833 -0.2518  0.0064
57204W        W  117  13.061   8.163  18.882  0.0107  0.0839  0.0972
57205W        W  118  11.990  15.106  19.258  0.2980  0.0724  0.1771
57206W        W  119  14.619  12.548  13.973 -0.3425  0.0436  0.2123
57207W        W  120   0.279   4.620  22.132 -0.0420 -0.3437  0.1316
57208W        W  121  14.573  20.107  13.576  0.1999 -0.2495 -0.1679
57209W        W  122   8.079  18.671  17.345  0.1514 -0.1246 -0.2196
57210W        W  123   7.338  13.645  14.796  0.0483 -0.0407 -0.0709
57211W        W  124  19.178   8.498  15.849 -0.0586  0.4032  0.6132
57212W        W  125  13.462  23.272  26.107 -0.0633 -0.0431 -0.1050
57213W        W  126   5.374  15.927  22.195  0.0907 -0.0153  0.0520
57214W        W  127   1.094   2.758  18.387 -0.0178 -0.0228 -0.0700
57215W        W  128  16.108   9.182  28.064  0.3309 -0.2282 -0.0496
57216W        W  129   5.913  14.047  20.829 -0.1167  0.0021  0.0366
57217W        W  130   8.657   9.472  21.250  0.4054 -0.3616 -0.3101
57218W        W  131  22.159  17.652  17.141 -0.3153 -0.0786 -0.1236
57219W        W  132  21.883   9.641  12.802 -0.2791  0.1356 -0.0929
57220W        W  133   6.032  16.121  17.170  0.1550  0.0974 -0.1438
57221W        W  134  24.437  21.061  16.448 -0.1124  0.0446  0.0217
57222W        W  135  10.894  11.322  16.718 -0.2161 -0.1276  0.2306
57223W        W  136   4.135   9.277  19.109  0.1103 -0.1173 -0.0310
57224W        W  137  24.029  13.631  22.413 -0.0984  0.2300 -0.1206
57225W        W  138  12.517  17.108  29.453 -0.0492 -0.1586  0.0947
57226W        W  139  19.177  11.440  23.737  0.1358 -0.2817  0.0574
57227W        W  140  26.869   9.179  26.080 -0.3572  0.2066 -0.0361
57228W        W  141   3.018  17.285  21.260  0.2890 -0.1225  0.0623
57229W        W  142   4.729   3.843  26.766  0.2873 -0.1686 -0.0860
57230W        W  143   4.712  17.524  15.055 -0.0693 -0.0203  0.2081
57231W        W  144   5.778  11.629   6.602 -0.0546 -0.0920  0.1195
57232W        W  145  10.386  11.636  17.674 -0.0736  0.1651  0.1834
57233W        W  146   6.065   8.135  18.678 -0.2409  0.0323  0.0755
57234W        W  147  11.866  10.419  19.359 -0.1499  0.1169  0.2078
57235W        W  148  17.743  12.059  20.741  0.0898 -0.1647  0.5722
57236W        W  149  17.064  11.998  18.178  0.0638 -0.0050  0.0009
57237W        W  150  11.349   4.805  22.916  0.1520 -0.1004 -0.1428
57238W        W  151   3.363   8.309  19.849  0.1045 -0.2002 -0.0387
57239W        W  152  19.530  10.720  18.407  0.1115 -0.0479 -0.2535
57240W        W  153   8.862  18.377  14.198  0.0643 -0.2269  0.0617
57241W        W  154  24.068  23.039  16.382 -0.1232 -0.2159 -0.0616
57242W        W  155  21.713  15.010  12.654  0.0532  0.0753 -0.0556
57243W        W  156   9.598  16.830  26.010 -0.0199  0.1585 -0.1435
57244W        W  157  21.613  10.227  17.165  0.1515 -0.1381 -0.1786
57245W        W  158  13.272  23.536  16.884 -0.0318 -0.0035 -0.2768
57246W        W  159  11.276  11.125  21.324 -0.0484  0.2300 -0.2181
57247W        W  160   0.348  15.887  16.549  0.1640  0.3548  0.1197
57248W        W  161  21.857   4.302  21.342  0.2774  0.0130 -0.1984
57249W        W  162  21.278   7.801  13.659  0.2737  0.2230 -0.2019
57250W        W  163  12.119   9.935  24.272 -0.1529  0.5275  0.0095
57251W        W  164  12.856   9.920   0.221  0.0094  0.1019 -0.1401
57252W        W  165   3.900   8.785  20.182 -0.1333  0.1067  0.0644
57253W        W  166  14.273  20.877  13.885  0.2416 -0.0393 -0.1300
57254W        W  167  17.351   1.016  17.948  0.0334  0.3449  0.0407
57255W        W  168   8.214   8.193  21.065 -0.4217  0.2515 -0.1599
57256W        W  169  14.417  11.964  18.849 -0.1536  0.1747  0.0445
57257W        W  170   9.925  12.632  19.468 -0.1238  0.2466  0.0600
57258W        W  171   6.127  15.698  20.488  0.0946  0.1456  0.0802
57259W        W  172  13.806   6.033  16.218 -0.0161  0.0846 -0.0385
57260W        W  173  14.148   6.837  22.071  0.0004  0.2217  0.1320
57261W        W  174  10.484   5.448  21.089 -0.2904 -0.1105 -0.0345
57262W        W  175  23.050  24.036  14.736  0.0095 -0.0736  0.2231
57263W        W  176   7.100  12.511  24.807  0.0524  0.1592 -0.0709
57264W        W  177  13.595  13.318  23.435 -0.3257  0.0184 -0.0704
57265W        W  178   4.514  24.624  16.282  0.2777 -0.4064  0.1679
57266W        W  179   9.472  12.086  21.009  0.2290 -0.1147 -0.0059
57267W        W  180  13.893   4.020  25.667  0.2928  0.2575 -0.0128
57268W        W  181   9.646   6.509  17.691  0.5150 -0.2007  0.1761
57269W        W  182   2.855   5.694  19.301 -0.1863  0.1094 -0.2060
57270W        W  183   8.821  20.994  15.716 -0.3001 -0.1609 -0.1793
57271W        W  184  10.699  13.984  18.496 -0.0533 -0.0542  0.2615
57272W        W  185   2.420  17.085  24.895 -0.0366 -0.1997 -0.1542
57273W        W  186  13.923   9.087  19.192 -0.0904  0.0059 -0.1962
57274W        W  187   6.284   3.411  18.232 -0.3307  0.1215  0.0920
57275W        W  188  14.920   6.337  17.248  0.1043 -0.2153  0.0134
57276W        W  189  15.178   5.829  21.349  0.0722 -0.0136  0.0445
57277W        W  190  17.406  33.530  17.203  0.2080 -0.1122 -0.2144
57278W        W  191   6.568   2.742  19.982 -0.0722 -0.2849  0.1995
57279W        W  192  19.106   9.127  19.241 -0.0230 -0.0599 -0.1661
57280W        W  193   9.966   8.420  28.162  0.3277 -0.1456  0.3343
57281W        W  194  21.866  18.248  13.564  0.0006 -0.0222 -0.0317
57282W        W  195   9.489  20.289  17.769 -0.0442  0.0468  0.0117
57283W        W  196  15.329   7.599  20.574  0.0784  0.1925 -0.0592
57284W        W  197   9.479  16.463  22.194 -0.0081 -0.0377 -0.0752
57285W        W  198   9.570  14.123  19.675  0.0289  0.1037 -0.1070
57286W        W  199   3.025  20.370  15.817 -0.0960 -0.0171  0.0423
57287W        W  200  14.069  28.719  27.748  0.0516  0.1429  0.0587
57288W        W  201  17.224  15.422  11.574  0.0589  0.1269  0.2786
57289W        W  202  12.273  20.671  16.737 -0.1745 -0.3494  0.4129
57290W        W  203  29.793  14.673  24.739 -0.2911  0.0159  0.2901
57291W        W  204   7.666  10.763  26.131 -0.3746  0.1198  0.0633
57292W        W  205  26.920  14.295  28.552  0.3888  0.1411  0.1107
57293W        W  206  25.590  18.518  27.537 -0.0385 -0.1625  0.2619
57294W        W  207   6.218   2.184  24.166  0.1945 -0.0355 -0.3794
57295W        W  208   9.259   4.838  18.592  0.0514  0.0166 -0.2191
57296W        W  209   8.779  13.400  19.607 -0.3393  0.2190 -0.1371
57297W        W  210  16.938   4.914   1.643 -0.0149 -0.1775 -0.1073
57298W        W  211  12.149  14.401  15.141  0.3911 -0.0522  0.0494
57299W        W  212  17.002  12.784  22.535  0.0425  0.1515  0.1248
57300W        W  213  21.003  11.028  15.632  0.0222  0.1217  0.0695
57301W        W  214   7.383  15.725  22.850  0.0725 -0.0455 -0.2385
57302W        W  215  11.722  11.571   1.631  0.0844 -0.1466  0.3381
57303W        W  216   8.368  20.095  13.990  0.0860  0.4211 -0.0648
57304W        W  217  23.361  11.489  22.056  0.1470 -0.0070  0.2238
57305W        W  218  15.151   7.265  22.490 -0.2058 -0.0255 -0.0679
57306W        W  219  11.700  13.559  25.733 -0.0399  0.2103 -0.1774
57307W        W  220  18.017   7.225  16.115  0.0166 -0.3466 -0.3367
57308W        W  221  12.063  19.452  25.327 -0.2405  0.2859  0.1601
57309W        W  222   3.518  14.989  14.312 -0.0484 -0.0159 -0.0721
57310W        W  223  10.201  13.115  19.272  0.1850  0.1516 -0.0522
57311W        W  224  12.001  13.184  25.629  0.1394 -0.3510 -0.0789
57312W        W  225   3.793  13.510  29.191 -0.3439 -0.2445  0.3249
57313W        W  226  14.048  10.624  22.457  0.0117 -0.1109  0.1291
57314W        W  227  10.835  12.523  14.980  0.3296  0.0298  0.1029
57315W        W  228  15.860  13.745  24.450  0.1424 -0.0926 -0.0807
57316W        W  229  18.167   9.028  23.498 -0.0543 -0.3506 -0.0631
57317W        W  230   9.023  13.331  15.615  0.1615 -0.0046  0.1808
57318W        W  231   1.919  11.882  20.464  0.1804  0.0428  0.0485
57319W        W  232  11.973  17.875  15.277 -0.1672 -0.0100  0.1131
57320W        W  233  16.559  26.088  29.533  0.1182  0.2904 -0.2344
57321W        W  234  20.796  24.016  14.896 -0.1941  0.2133  0.2449
57322W        W  235  13.337  15.068  24.885 -0.2267  0.1047  0.0427
57323W        W  236  34.403  16.786  26.239 -0.2683  0.2468 -0.2094
57324W        W  237  17.856   6.159  14.715  0.2397  0.0163 -0.0016
57325W        W  238  22.958  17.731  14.947  0.0856  0.0816 -0.1118
57326W        W  239   1.926  16.984  18.715  0.0467 -0.0831 -0.0896
57327W        W  240  12.876  20.222  15.054  0.0387  0.2762 -0.0256
57328W        W  241   7.183  14.819  22.783 -0.3413 -0.0648  0.1549
57329W        W  242  25.288  11.919  16.652 -0.2385  0.2579 -0.0634
57330W        W  243  13.814  13.806   1.965  0.3125 -0.1453  0.2896
57331W        W  244  18.163   5.881  16.885  0.2207  0.2631 -0.1358
57332W        W  245  14.101  13.134  23.002 -0.0379  0.0056  0.1252
57333W        W  246   4.447  10.099  16.388 -0.1389  0.1109  0.2428
57334W        W  247  19.745   6.166  26.563 -0.1146 -0.2778 -0.0347
57335W        W  248  21.854   7.980  15.641 -0.1733 -0.0971 -0.2002
57336W        W  249   9.794  11.709  17.401 -0.1719 -0.2012 -0.0119
57337W        W  250  12.771  12.705  29.428  0.1326  0.0950  0.2672
57338W        W  251  15.765   6.428  17.748  0.0952 -0.1614 -0.0337
57339W        W  252  16.222  29.545  26.203  0.0069  0.2751 -0.3315
57340W        W  253  15.250  11.953  12.976  0.1341 -0.1404 -0.1710
57341W        W  254  19.543   8.204  15.690  0.0831 -0.3164  0.0726
57342W        W  255   4.848   4.514  19.064  0.1848 -0.3790 -0.3720
57343W        W  256  10.505  17.777  17.255 -0.1367 -0.1699  0.3431
57344W        W  257   9.407  22.153  18.838  0.1786 -0.2807  0.2263
57345W        W  258   7.958   4.424  26.038 -0.0307  0.0633  0.0811
57346W        W  259  13.554  19.869  17.134  0.1301  0.1685  0.0683
57347W        W  260  13.913  25.425  20.819 -0.0010  0.1732  0.4542
57348W        W  261   2.214   3.411  16.962  0.0224  0.1394 -0.3427
57349W        W  262   4.680   8.896   0.107  0.1084 -0.0808 -0.1224
57350W        W  263   4.969   6.114  21.959 -0.3004  0.1991  0.1831
57351W        W  264  24.447   4.217  26.717 -0.3552 -0.0845 -0.0343
57352W        W  265  18.375   2.072  15.448 -0.0972  0.1528 -0.0605
57353W        W  266  13.513   7.429  19.077 -0.1062 -0.0104  0.0677
57354W        W  267  17.558   9.070  21.513 -0.2026 -0.4124  0.0622
57355W        W  268  21.539  10.778  23.068 -0.3084  0.0457  0.1401
57356W        W  269  16.439  22.056  16.820 -0.1521 -0.0605 -0.0316
57357W        W  270   2.798  17.734  20.426  0.0129  0.2000 -0.2839
57358W        W  271   7.059   6.495  20.153 -0.0668 -0.0294  0.0392
57359W        W  272   8.277  15.198  14.125  0.2793  0.1047  0.1328
57360W        W  273  12.015  17.107  16.424  0.0133 -0.0125 -0.0833
57361W        W  274  19.944   1.381  20.293 -0.1918  0.2874 -0.1238
57362W        W  275  18.568   5.153  24.667  0.4186 -0.2114 -0.1784
57363W        W  276   2.324  28.390  20.816  0.2226  0.0548  0.3916
57364W        W  277  13.625   5.309  17.736 -0.1444  0.0672  0.1353
57365W        W  278  19.283  15.295  15.786 -0.0546 -0.0854  0.0623
57366W        W  279  12.393  33.987  20.347  0.1233 -0.0254  0.1781
57367W        W  280  14.941   9.442  17.835 -0.0570 -0.1948  0.2128
57368W        W  281  20.003  15.546  13.089 -0.2316  0.5198  0.0618
57369W        W  282   5.001  27.862  24.553 -0.0714 -0.1848 -0.0756
57370W        W  283   9.486  10.179  16.953  0.3375 -0.1717  0.1523
57371W        W  284  22.352   6.054  18.164 -0.1773 -0.0281 -0.2868
57372W        W  285  21.311  12.150  14.516  0.2034 -0.0945  0.0779
57373W        W  286  10.934  11.836  20.351 -0.0108 -0.2182  0.0584
57374W        W  287   3.995  15.129  26.496  0.1414 -0.0601  0.0212
57375W        W  288  23.442  12.838  14.496 -0.0940 -0.2226  0.2245
57376W        W  289  18.033   7.997  24.646  0.1124 -0.0974  0.3665
57377W        W  290   2.720   6.365  25.098  0.0881  0.0819  0.3730
57378W        W  291   5.315  20.846  26.709 -0.1057  0.0355 -0.1290
57379W        W  292   2.112   9.280  18.106 -0.1340 -0.0635 -0.3955
57380W        W  293   8.549   7.716  20.218 -0.2189 -0.2470  0.0783
57381W        W  294   6.083  21.106  15.051 -0.0191 -0.1713 -0.2456
57382W        W  295  13.801  11.699   0.375 -0.0629  0.0369 -0.0593
57383W        W  296  14.934  13.326  21.609 -0.0123  0.0821 -0.1833
57384W        W  297  12.962   0.619  18.917  0.2226 -0.1386  0.0431
57385W        W  298  21.708   9.208  17.224 -0.0101 -0.0727  0.0745
57386W        W  299   8.105   3.889  27.964  0.2314  0.1351 -0.0556
57387W        W  300  10.211  13.344  28.501  0.2644 -0.0620 -0.1389
57388W        W  301   6.807  14.462  23.639 -0.0017 -0.1295  0.1722
57389W        W  302  16.576   3.209  24.847  0.0157 -0.2091  0.0892
57390W        W  303  12.314  22.648  20.576  0.0461  0.2115 -0.5459
57391W        W  304  27.852  28.422  17.784  0.2266  0.2296  0.2081
57392W        W  305  17.356   5.505  17.290  0.1337 -0.1673 -0.1136
57393W        W  306  13.844  21.674  14.230 -0.1627 -0.2800 -0.4193
57394W        W  307  10.131  11.617  18.600  0.0387  0.0950 -0.0530
57395W        W  308  10.879  15.477  24.271  0.0477  0.0825 -0.1149
57396W        W  309  12.136   8.148  19.689 -0.1892  0.0919  0.0715
57397W        W  310  17.932  10.465  20.472 -0.0297 -0.1326  0.1663
57398W        W  311   2.647   9.078  20.812 -0.3337 -0.0823  0.1364
57399W        W  312  34.418   6.828  23.482 -0.0317 -0.1995  0.0133
57400W        W  313   1.360  20.132  24.167  0.2310 -0.2194 -0.2253
57401W        W  314   7.727   3.973  20.501  0.2651 -0.0911 -0.2116
57402W        W  315  28.983  15.525  23.014 -0.0645  0.0641 -0.3518
57403W        W  316  15.784  11.827  16.067  0.4622  0.0170  0.0887
57404W        W  317  16.300  33.855  22.616 -0.2582 -0.1090  0.1524
57405W        W  318  18.342   9.443  14.209 -0.2474 -0.1662  0.1216
57406W        W  319  17.803  18.009  23.736 -0.0105  0.2122  0.0091
57407W        W  320  13.065   9.340  15.521  0.0132  0.3002  0.3024
57408W        W  321   7.288   7.920  16.882 -0.1789  0.0228  0.0857
57409W        W  322  12.816   8.623  18.165 -0.1115 -0.0384  0.0653
57410W        W  323  17.828  28.343  25.721 -0.0269  0.0878 -0.0244
57411W        W  324  15.454   8.600  14.578 -0.0650 -0.0243 -0.0840
57412W        W  325   5.741  15.775  15.460  0.0158  0.1747 -0.0903
57413W        W  326  14.926  23.241  25.185  0.2377 -0.1644  0.0789
57414W        W  327   6.108   0.277  21.889  0.1467 -0.0434  0.1480
57415W        W  328   8.206   2.650  22.139 -0.0762 -0.0753 -0.3075
57416W        W  329  28.266  11.670  20.305 -0.2131 -0.1156 -0.0201
57417W        W  330  12.929   5.222  17.939 -0.2744 -0.0163 -0.1797
57418W        W  331  15.039   9.619  18.663 -0.3370  0.0462 -0.0489
57419W        W  332  15.986   8.585  24.629  0.0484  0.2431 -0.3029
57420W        W  333   8.895  20.324  18.713  0.1587 -0.0168 -0.1970
57421W        W  334  21.475  11.527  22.397 -0.1677 -0.0240  0.4553
57422W        W  335   6.488  13.054  18.898  0.1500  0.1328 -0.0306
57423W        W  336   2.181  11.388  18.384  0.1057  0.0694  0.4178
57424W        W  337  17.819   5.128  17.479  0.0565 -0.2811 -0.0051
57425W        W  338   8.933   1.117  22.828  0.2128 -0.0675 -0.1002
57426W        W  339  22.546  12.555  15.296  0.0879 -0.1469  0.2274
57427W        W  340  15.462  14.997  14.040 -0.3371  0.0800  0.2283
57428W        W  341   5.022   7.987  24.747 -0.2084  0.2188  0.0525
57429W        W  342  24.441  14.947  20.611  0.0470  0.1940 -0.0333
57430W        W  343  24.848  11.558  17.341 -0.0597  0.0673  0.1212
57431W        W  344   3.740  16.930  25.250 -0.3837 -0.0603  0.1961
57432W        W  345   6.506  11.250  23.555 -0.1744  0.0165  0.0171
57433W        W  346   8.897   6.573  19.037 -0.0023 -0.0147  0.0667
57434W        W  347  11.223  15.710  17.488  0.2030  0.3319 -0.0545
57435W        W  348  21.862   1.789  13.907  0.3130  0.1605 -0.0022
57436W        W  349  10.955  13.057  28.400  0.0816 -0.0262 -0.0880
57437W        W  350   9.846  16.419  21.046 -0.0153 -0.2191  0.0230
57438W        W  351  19.923  10.407  15.998  0.5463 -0.0843 -0.3199
57439W        W  352  18.070   6.525  22.409  0.1611  0.0566 -0.3023
57440W        W  353  17.506  22.328  20.570  0.0023  0.2319 -0.2467
57441W        W  354  10.720  14.914  16.571  0.2430  0.3176 -0.2750
57442W        W  355   7.342   8.110  23.578  0.0604 -0.2339 -0.1239
57443W        W  356   7.628  12.467  18.048 -0.3615  0.0119  0.2135
57444W        W  357  12.662   8.396  26.207  0.5145  0.0899  0.2290
57445W        W  358   7.676   8.246  16.928  0.0635  0.0165 -0.1496
57446W        W  359   7.157  10.955  24.798  0.0676  0.1382 -0.0621
57447W        W  360   7.637   9.015  18.020  0.0333 -0.3867 -0.0743
57448W        W  361  25.601   9.643  26.403  0.1241  0.1151 -0.1614
57449W        W  362  20.284  12.683  21.039  0.1578 -0.3879 -0.1067
57450W        W  363  19.020   4.469  18.598  0.0373 -0.0691  0.1099
57451W        W  364   8.167  31.861  22.658  0.0814  0.0494 -0.3216
57452W        W  365  13.101   7.328  18.793 -0.2608  0.0815 -0.2721
57453W        W  366  17.605  15.214  24.403 -0.2171 -0.4335  0.3516
57454W        W  367  13.264  12.882  22.697 -0.1846  0.1493 -0.2692
57455W        W  368   6.847  27.984  22.399 -0.1079 -0.1708 -0.1013
57456W        W  369  12.140  22.070  14.961  0.1889 -0.0978  0.3385
57457W        W  370  17.437   6.745  14.279  0.0999 -0.1826 -0.2786
57458W        W  371  20.677   5.608  17.126 -0.0423  0.1371  0.0990
57459W        W  372  14.238  27.187  24.392 -0.1340  0.0586  0.1635
57460W        W  373   2.880   2.820  16.964  0.2791 -0.0250  0.0771
57461W        W  374  13.258   2.092   5.201  0.1247  0.0013 -0.2961
57462W        W  375   8.447  20.710  15.138 -0.0921  0.1689 -0.1640
57463W        W  376  12.844  21.028  23.402 -0.2724 -0.3343 -0.0557
57464W        W  377  19.386   6.286  22.571 -0.3335 -0.1297  0.3092
57465W        W  378  12.893   1.507  18.189 -0.0496  0.3981  0.1057
57466W        W  379  17.192  12.468  13.829  0.1375 -0.1814 -0.5132
57467W        W  380  16.616  10.472  29.242 -0.2070 -0.1912 -0.1882
57468W        W  381   1.942  21.630  15.836  0.2558 -0.1562 -0.0932
57469W        W  382   6.570  13.213  20.298 -0.0905 -0.0412 -0.1942
57470W        W  383  13.421  14.884  28.997 -0.1417  0.1699  0.1611
57471W        W  384   7.658   8.974  23.767 -0.0778  0.0629 -0.1384
57472W        W  385  15.702   8.902  25.389  0.1974  0.1058 -0.0482
57473W        W  386   8.333  14.899  29.448  0.0206 -0.3009  0.0279
57474W        W  387  16.809  22.655  20.915 -0.1072  0.0848 -0.1522
57475W        W  388  17.627  11.037  24.164  0.1145  0.0310  0.0122
57476W        W  389  11.077  18.174  22.401  0.0265 -0.1867 -0.1033
57477W        W  390  16.189   3.540  26.558  0.0352  0.2446 -0.1740
57478W        W  391  14.428  10.563  12.984 -0.0495 -0.2306  0.0348
57479W        W  392  12.170  17.184  17.924  0.1823  0.1814  0.2351
57480W        W  393   7.354  11.091  19.377  0.2257 -0.2523  0.1703
57481W        W  394  14.175  14.772  21.979 -0.1101 -0.0893 -0.0873
57482W        W  395  14.445   8.936  26.444  0.0261 -0.1835  0.0789
57483W        W  396  11.232   7.646  21.103  0.1967  0.0178  0.0119
57484W        W  397  11.368   5.801  16.244  0.1320 -0.0805  0.1130
57485W        W  398  29.213  28.302  20.286  0.0918  0.1284 -0.3058
57486W        W  399   3.894   2.711  26.997 -0.2309  0.0212 -0.0735
57487W        W  400  11.860  18.264  22.004 -0.2707  0.3115 -0.0599
57488W        W  401   3.975  14.332  29.583 -0.1016 -0.0054 -0.3420
57489W        W  402  14.480  21.672  15.921 -0.0260 -0.3104  0.1217
57490W        W  403  20.839  12.954  27.867 -0.0585 -0.2049  0.2010
57491W        W  404  15.840  13.249  27.060 -0.4178 -0.1608  0.1336
57492W        W  405   4.320   7.910  26.309 -0.1148  0.2048 -0.2025
57493W        W  406  16.655   8.132   1.711 -0.1673 -0.2221  0.0088
57494W        W  407  18.235  11.145  16.441  0.1229  0.1156  0.1518
57495W        W  408   0.392  14.201  25.305  0.0120 -0.1857 -0.0086
57496W        W  409  10.471  15.498  21.063 -0.0546  0.4271 -0.1014
57497W        W  410  20.733  11.726  16.443 -0.1872 -0.0999 -0.0665
57498W        W  411   2.359   8.935  23.655  0.0942  0.1342  0.6339
57499W        W  412  10.197  29.797   2.010  0.3103 -0.5015 -0.2485
57500W        W  413  21.573   4.809  28.320 -0.6028  0.2323  0.1513
57501W        W  414  14.234  14.344   0.788 -0.0407 -0.0428 -0.0218
57502W        W  415  16.591  12.746  26.398 -0.0678 -0.0771 -0.3253
57503W        W  416   4.541  29.837   0.068  0.0802  0.0810 -0.0590
57504W        W  417   6.178  11.359   9.973 -0.0986  0.0983 -0.1295
57505W        W  418  10.092   8.149  28.536  0.0698 -0.0582 -0.0848
57506W        W  419  12.849   4.760  27.569 -0.0213  0.0030 -0.1697
57507W        W  420  13.878  24.617  23.660  0.0243 -0.0152 -0.0782
57508W        W  421  16.304   7.116  28.151 -0.0397 -0.0323 -0.3263
57509W        W  422  13.824  21.299  22.304 -0.3315 -0.2088 -0.0476
57510W        W  423   8.319  15.346  29.267 -0.0682  0.0570  0.1566
57511W        W  424  26.840  12.010  25.600 -0.0183 -0.0514  0.0827
57512W        W  425  10.011  33.603  20.990 -0.0588 -0.1267  0.0986
57513W        W  426  33.402  19.740  13.551  0.2661 -0.2809 -0.1080
57514W        W  427   3.829  13.449  18.438 -0.0601 -0.1462 -0.0516
57515W        W  428   8.743   9.879  24.987 -0.0928 -0.1761 -0.0132
57516W        W  429  15.061   8.746  28.804  0.2742 -0.1839  0.0845
57517W        W  430  24.606   6.991   3.517  0.0603 -0.0153 -0.1053
57518W        W  431  21.459   1.324  18.210 -0.3510  0.3317  0.3116
57519W        W  432   0.973  18.887  16.558 -0.0654 -0.1007 -0.1735
57520W        W  433   4.918   6.001  27.374 -0.2830  0.2224 -0.0331
57521W        W  434  10.139  10.279  17.392  0.2384  0.0550 -0.1998
57522W        W  435  19.821   9.720  21.408  0.2035 -0.1653  0.0844
57523W        W  436  14.285  14.595  14.749 -0.2766 -0.0074  0.1765
57524W        W  437  12.643  15.587  21.847 -0.1517  0.1340  0.0585
57525W        W  438  20.864   4.770  19.925  0.5108  0.2235  0.1468
57526W        W  439  18.076  22.367  20.413 -0.0299  0.0862 -0.0713
57527W        W  440  13.424   5.900  26.213 -0.2533  0.0317 -0.0084
57528W        W  441   5.876  14.729  27.697  0.2309 -0.2826  0.3610
57529W        W  442  12.273   7.033   5.269  0.0002  0.1953 -0.0335
57530W        W  443  23.554  12.551  13.733  0.1761  0.0832  0.1520
57531W        W  444  18.237   9.569  29.186  0.2531  0.1117  0.0835
57532W        W  445  11.450  15.739  25.839  0.4202  0.2445  0.0784
57533W        W  446  17.223  15.800   0.071 -0.1942  0.1573  0.5578
57534W        W  447  12.010  15.704  22.803 -0.0040 -0.2776 -0.2554
57535W        W  448  10.826  21.263  18.856 -0.1502 -0.1579 -0.0835
57536W        W  449   0.486  32.591  27.457 -0.0160  0.1431 -0.1285
57537W        W  450  14.241   7.998  16.833  0.3044 -0.0050 -0.2004
57538W        W  451  13.978  11.827   1.969  0.0173  0.0219  0.0501
57539W        W  452   7.494  15.605  19.928  0.1735  0.1954  0.2728
57540W        W  453  10.060   6.562  25.389 -0.0365 -0.1184  0.1242
57541W        W  454  33.488  26.303  23.741  0.2479  0.1679 -0.0792
57542W        W  455  21.222  20.565  17.910 -0.1538 -0.0075  0.0377
57543W        W  456  14.372   7.755  22.387 -0.2671 -0.2764  0.2525
57544W        W  457  14.882  32.930  21.092 -0.3374  0.0603  0.2337
57545W        W  458  10.674  12.944  20.337  0.0195 -0.3710  0.0522
57546W        W  459   5.090  16.768  23.891  0.0461  0.1162 -0.1316
57547W        W  460   8.839  16.497  24.067 -0.0874 -0.1463 -0.1125
57548W        W  461  19.206  12.225  17.373 -0.0902  0.0700 -0.0436
57549W        W  462  34.452  26.824  28.507 -0.0685  0.5825 -0.0818
57550W        W  463  18.322  34.038  22.430 -0.1153 -0.1474  0.2235
57551W        W  464  16.386  16.541  27.812 -0.5064  0.4282 -0.1196
57552W        W  465  17.507  14.015   3.858 -0.2384 -0.1667 -0.0459
57553W        W  466   6.443  12.261  14.585 -0.0077  0.2560 -0.1988
57554W        W  467   2.482  17.509  14.800  0.3631 -0.1691  0.1347
57555W        W  468  13.029  30.673  19.729  0.1964 -0.0143 -0.1614
57556W        W  469  20.289  17.017  13.094 -0.0030  0.0722  0.0706
57557W        W  470  26.368   9.007  27.175  0.2106 -0.0425 -0.0262
57558W        W  471  18.507  16.660  13.351  0.0053  0.0561 -0.2057
57559W        W  472  19.514  14.375  26.554  0.0124 -0.0501  0.1945
57560W        W  473  14.341   6.538  28.919 -0.2202  0.0899 -0.0944
57561W        W  474  24.898  33.552  21.622 -0.2407  0.1145  0.2516
57562W        W  475   7.367  18.613  23.389 -0.1376  0.0280  0.0699
57563W        W  476  13.562  10.639  20.747 -0.2801  0.0713  0.0505
57564W        W  477  14.133  14.181  18.899 -0.0983 -0.0526  0.0645
57565W        W  478   2.578  17.035  23.171 -0.0257 -0.1237  0.0113
57566W        W  479  18.120   1.755  25.548  0.0996 -0.1497  0.2256
57567W        W  480   5.686  13.031   1.074 -0.1132 -0.0221 -0.0613
57568W        W  481  14.339  27.468   7.254 -0.3212  0.0832 -0.0793
57569W        W  482  10.084  11.562   0.630  0.0328  0.3416 -0.3011
57570W        W  483  24.020   6.550  17.001 -0.2354 -0.1920 -0.4851
57571W        W  484   6.260  10.778   3.141  0.1651  0.0949  0.0168
57572W        W  485   5.390   4.511  18.320 -0.2571 -0.0094  0.0549
57573W        W  486  13.474  16.474  27.368 -0.2106  0.0886  0.3317
57574W        W  487  18.781  13.002  17.835 -0.0954  0.3053  0.1786
57575W        W  488  34.090  10.769  27.953 -0.1488  0.0320 -0.0974
57576W        W  489  17.292  11.833  18.653 -0.4106  0.0123 -0.0141
57577W        W  490  14.882  13.245   3.759 -0.1052  0.1527  0.3244
57578W        W  491  16.944   1.600  24.029  0.0144  0.2155 -0.2640
57579W        W  492  10.156  12.433  21.610  0.0020 -0.0423 -0.1192
57580W        W  493  13.045  13.944  18.351  0.2842  0.3153 -0.0394
57581W        W  494  13.419  24.502  23.520 -0.1052  0.1554  0.0600
57582W        W  495  17.273   7.924  23.817  0.2605 -0.2657 -0.1191
57583W        W  496  13.330  10.771  18.262 -0.1257 -0.1692 -0.1812
57584W        W  497  33.522  24.504  27.158  0.1600 -0.0527 -0.0747
57585W        W  498  18.799  12.370  21.138  0.5066  0.0439 -0.3099
57586W        W  499  21.346  12.627  14.297  0.0187 -0.1249  0.1371
57587W        W  500   4.896  11.619  19.385 -0.0866  0.1932  0.1933
57588W        W  501  25.030  14.109  17.930 -0.0622 -0.5477  0.2797
57589W        W  502  12.029  21.749  24.731 -0.0777 -0.0913 -0.3478
57590W        W  503  10.315  17.092  20.888  0.0512 -0.1279 -0.0675
57591W        W  504  23.618  14.017  21.252 -0.2146 -0.4844 -0.0070
57592W        W  505  12.498  14.075  19.608 -0.1597  0.0910  0.3251
57593W        W  506   6.920  15.455  24.034 -0.0917  0.0013 -0.0453
57594W        W  507  20.809   8.899  23.456 -0.3467  0.2699 -0.3265
57595W        W  508  15.232  15.357   3.821  0.1049  0.3014  0.0724
57596W        W  509   3.460   6.893  22.919 -0.2303 -0.0820 -0.1628
57597W        W  510  10.368  19.312  20.634  0.0393 -0.0516 -0.0597
57598W        W  511  27.085   1.965  21.964  0.1798 -0.0034  0.0136
57599W        W  512  16.117  11.549  20.778  0.5126 -0.2998  0.3040
57600W        W  513   7.656  23.822  26.136  0.0209  0.2013  0.1223
57601W        W  514  28.525   9.637  18.134 -0.2229  0.1405 -0.1050
57602W        W  515  17.031   3.457  21.474  0.0758  0.2469  0.0993
57603W        W  516   8.449  20.181  20.647  0.1226  0.0109 -0.0491
57604W        W  517  19.403   7.258  16.124 -0.0430 -0.3185  0.0773
57605W        W  518   9.085  20.596  20.567 -0.1500 -0.2863  0.2142
57606W        W  519   3.001  13.345  26.506 -0.0088  0.1956  0.1187
57607W        W  520  20.670  24.629  20.042  0.2821 -0.0918 -0.2249
57608W        W  521   8.972  18.808  28.535  0.2232 -0.1588  0.0176
57609W        W  522   1.258  17.953  17.861 -0.1639  0.2928  0.2289
57610W        W  523  33.255  33.818  25.143  0.0658  0.3870 -0.0969
57611W        W  524   0.994  18.537   3.017 -0.4721  0.0125 -0.2359
57612W        W  525   4.033  11.276  29.645 -0.0845 -0.0885  0.0814
57613W        W  526   8.901  12.839  19.620  0.1240  0.0290 -0.2181
57614W        W  527  12.710  33.067  27.780 -0.0913  0.1710  0.1658
57615W        W  528  10.125   7.947  25.851  0.2178  0.0608  0.1827
57616W        W  529  13.496  15.996  18.325 -0.1071  0.1517  0.0011
57617W        W  530  10.523  28.996  28.680 -0.0742 -0.1878 -0.1979
57618W        W  531   7.195   5.719   2.600 -0.1367  0.2826  0.1145
57619W        W  532  16.601  13.052   7.699 -0.0256  0.3044 -0.3782
57620W        W  533  20.653   6.096  22.195 -0.0411 -0.2988  0.1043
57621W        W  534  15.322   6.674  23.683  0.0231  0.2251  0.0551
57622W        W  535  18.418   6.596  17.147  0.0885  0.2286  0.0025
57623W        W  536   0.684  12.356   4.916  0.5312  0.2415  0.2944
57624W        W  537   6.513   6.085  12.843 -0.1126 -0.1517 -0.1819
57625W        W  538  14.350   9.922  29.334 -0.2468 -0.0472  0.3494
57626W        W  539  13.420   6.158  18.393  0.0890  0.0977  0.0928
57627W        W  540  16.295  33.633  17.591  0.1265  0.0179  0.3278
57628W        W  541  10.352  10.497   6.876  0.0659 -0.0768 -0.4248
57629W        W  542  12.771   8.538  27.818 -0.0301  0.1514 -0.4302
57630W        W  543  23.023  17.061  15.587 -0.1658  0.0720 -0.1401
57631W        W  544   8.196   5.819  25.815 -0.0866 -0.0538  0.1611
57632W        W  545  15.421   2.822  24.878  0.1759  0.4596  0.2034
57633W        W  546   9.655  19.159   2.479  0.1059  0.5452 -0.2513
57634W        W  547   5.918   7.470  27.267  0.2375  0.4501 -0.4106
57635W        W  548  11.396  10.480  25.651 -0.0415 -0.1921  0.1150
57636W        W  549  13.000   7.452  20.107  0.0364  0.0221  0.4172
57637W        W  550  12.613   8.797  21.700 -0.0945  0.0014 -0.1082
57638W        W  551  11.087  19.177  19.492 -0.0988  0.1962  0.0658
57639W        W  552   1.969  31.044   6.112 -0.0608 -0.1957 -0.1041
57640W        W  553  13.864   2.539   1.110  0.5132  0.1952  0.0165
57641W        W  554   1.570   1.630  23.975 -0.0444 -0.1828  0.0631
57642W        W  555  16.047   7.634  27.535  0.1699 -0.0665  0.2002
57643W        W  556  14.160  11.117   1.504 -0.1862 -0.0459  0.0329
57644W        W  557   0.880   6.038  24.915 -0.0958  0.0035 -0.1272
57645W        W  558  11.894  21.825   3.366 -0.1532 -0.0154  0.0923
57646W        W  559  13.923  12.770  20.284  0.0090  0.0653  0.1054
57647W        W  560   2.004  20.637  24.189 -0.0119 -0.0579  0.1434
57648W        W  561  13.336   4.786  19.885 -0.2057  0.1694 -0.0444
57649W        W  562  14.026   1.968  23.889 -0.2337  0.2821  0.1946
57650W        W  563  34.432  11.437  21.554 -0.0233  0.2329 -0.4366
57651W        W  564  17.127  25.946   3.129  0.1030 -0.2177 -0.0603
57652W        W  565  12.272   5.788  22.217  0.0899  0.1060  0.1306
57653W        W  566  14.779  17.595  29.239  0.1255 -0.3444 -0.1558
57654W        W  567   0.418  10.137  21.462  0.2148 -0.2962 -0.0201
57655W        W  568   1.169  23.460  27.319 -0.1542 -0.0924  0.1422
57656W        W  569  13.993   7.721  15.861  0.0012 -0.0177  0.0431
57657W        W  570  11.167   6.782   7.392 -0.0562 -0.2811  0.2822
57658W        W  571   3.593   4.549  26.881 -0.1302 -0.2874  0.1693
57659W        W  572  10.135   6.379  28.138 -0.0388  0.3069 -0.1940
57660W        W  573  12.992  12.133   0.962  0.1440 -0.0460  0.0102
57661W        W  574  11.453   7.443  17.399 -0.0967 -0.1780  0.0679
57662W        W  575  15.230  16.740   2.245  0.0452 -0.2174  0.1201
57663W        W  576   6.137   7.759  23.229 -0.0884  0.1936 -0.2611
57664W        W  577   4.130  17.958  24.164  0.1436 -0.2768  0.2415
57665W        W  578  17.761  10.472  18.489  0.0353  0.0838  0.3405
57666W        W  579   6.028  22.425  26.004 -0.2238  0.2080 -0.1360
57667W        W  580   1.465   5.775  25.718  0.1076  0.1623 -0.2099
57668W        W  581  12.288  12.376  18.925  0.3273  0.0400  0.1256
57669W        W  582  12.338  14.703  28.790  0.1260  0.0826 -0.3428
57670W        W  583  21.071  22.974   1.768  0.0494  0.0249 -0.0168
57671W        W  584   0.599   5.187   2.034  0.1579  0.0443 -0.0255
57672W        W  585   2.028   4.910  22.139 -0.2384  0.3481  0.2935
57673W        W  586  12.279  10.636  21.947  0.2026 -0.0415  0.0301
57674W        W  587  14.695  14.001  19.070  0.0020 -0.1963  0.1307
57675W        W  588  11.691   5.497  17.660  0.0571  0.3419  0.0207
57676W        W  589  12.189   9.118  20.855  0.0447 -0.0532 -0.1590
57677W        W  590   1.853   9.345   0.603 -0.0629 -0.3144 -0.2966
57678W        W  591   9.429  19.377   0.092 -0.2399 -0.2252 -0.0245
57679W        W  592   7.368  11.566  20.291 -0.3369  0.0714  0.0352
57680W        W  593   4.322   6.578  25.103 -0.1089  0.0463  0.0656
57681W        W  594   6.403  19.200  22.168 -0.1911  0.1429  0.1551
57682W        W  595   0.983  26.619   2.723 -0.2874 -0.2320 -0.0957
57683W        W  596   8.670   6.515  27.726  0.3332  0.0832  0.4153
57684W        W  597   4.884   9.413  18.672 -0.0052 -0.2239  0.1245
57685W        W  598   4.011  14.185  23.808 -0.0472  0.0147  0.1262
57686W        W  599  13.168  19.206  16.428 -0.0777 -0.1034 -0.0855
57687W        W  600  18.465   7.959  20.381  0.1053 -0.0260 -0.1043
57688W        W  601  15.071   4.664  28.419 -0.0699  0.1430  0.1016
57689W        W  602  14.049  14.443  25.279 -0.1819  0.3366 -0.0645
57690W        W  603  17.566   2.850  23.637  0.1107 -0.0103  0.1132
57691W        W  604  15.723  12.712  19.834 -0.2232  0.1260  0.1582
57692W        W  605   4.133  21.946   8.163  0.4372 -0.0361  0.0955
57693W        W  606   9.656  12.355   2.807 -0.0031  0.0324 -0.0893
57694W        W  607   8.687   5.204  21.113 -0.0998  0.0073  0.2130
57695W        W  608   7.790  13.486   0.714  0.1591 -0.3483  0.0210
57696W        W  609  12.175   6.205  28.938 -0.3400  0.3394 -0.4926
57697W        W  610  19.843  10.545  28.412 -0.1368  0.0369  0.0327
57698W        W  611   8.517  27.997   0.195 -0.0732  0.0564  0.0832
57699W        W  612  14.796   4.049  25.584 -0.3276 -0.0501  0.0572
57700W        W  613   8.653  33.419  20.564 -0.3006 -0.1004 -0.3471
57701W        W  614   7.472  17.627  14.930  0.2800  0.2987  0.4583
57702W        W  615   4.832  10.331  19.742 -0.0430  0.0696  0.2250
57703W        W  616  11.940   7.074  23.736 -0.0603  0.2119 -0.0023
57704W        W  617  19.868  10.816  16.473 -0.1424  0.1727 -0.1049
57705W        W  618  16.783   7.966  15.082  0.1286 -0.2113  0.1347
57706W        W  619   4.973   3.625  23.246 -0.0775 -0.0742  0.0642
57707W        W  620  12.365  13.563  13.429  0.1006  0.4241 -0.4096
57708W        W  621   7.834   7.706  27.538  0.0398  0.0636 -0.0873
57709W        W  622   4.863  11.874  25.701  0.0196 -0.1661 -0.0924
57710W        W  623  16.787   7.343  14.903 -0.2342 -0.1215 -0.0624
57711W        W  624  13.043  16.170  17.935  0.0565  0.2330  0.3564
57712W        W  625  18.536   9.399  17.479  0.0365 -0.0824  0.3810
57713W        W  626  11.243   5.047  27.017 -0.0973  0.0150  0.1972
57714W        W  627  13.133   6.627  24.165 -0.0133  0.0134  0.0579
57715W        W  628   4.188   5.755  20.054 -0.0806  0.2555 -0.0480
57716W        W  629  13.695   6.136   6.880  0.1569 -0.0976 -0.2120
57717W        W  630  10.638  29.085  19.105  0.0276 -0.0447 -0.0056
57718W        W  631  12.715  25.473  25.308 -0.0016 -0.3054 -0.2013
57719W        W  632  15.947  10.495   2.056  0.0477  0.0931  0.0474
57720W        W  633   8.308  10.035  23.543 -0.0499 -0.0526 -0.4187
57721W        W  634   8.510   3.204   5.477 -0.0137  0.1253  0.2993
57722W        W  635   1.763  16.456  17.217  0.1738  0.2975 -0.2184
57723W        W  636   9.950   5.966  22.441 -0.0031  0.0167  0.2582
57724W        W  637  14.562   9.973  27.699  0.0859  0.0808 -0.1554
57725W        W  638  19.680  10.268  29.617  0.3342  0.3623  0.0018
57726W        W  639   1.907  10.483  26.193  0.0751 -0.2288  0.1751
57727W        W  640  12.024  15.537  29.473  0.2825  0.3833 -0.1343
57728W        W  641   4.830  33.842  21.973  0.3198  0.0851 -0.1751
57729W        W  642  21.109   4.923  27.037 -0.1782  0.2108 -0.3292
57730W        W  643   6.827   9.023  21.915  0.2770 -0.0329  0.0653
57731W        W  644  25.187  32.552  26.309  0.2080  0.2764 -0.1553
57732W        W  645   0.501  10.359   2.371 -0.0555  0.0095  0.0053
57733W        W  646  13.010  12.006  21.933  0.1077  0.0018 -0.1861
57734W        W  647  13.624   9.477  19.294  0.1505 -0.0322  0.2074
57735W        W  648   1.749  14.821  21.645  0.2103 -0.1167 -0.3437
57736W        W  649  21.745   7.138  20.609  0.4016 -0.2325  0.1313
57737W        W  650   6.375  11.943  24.143  0.1074  0.5631  0.2130
57738W        W  651  16.950  19.158  23.710 -0.1527 -0.3466  0.3589
57739W        W  652  23.056   7.830  23.502 -0.0369  0.1733  0.0272
57740W        W  653   9.017   5.626  24.604 -0.0405 -0.2177  0.0192
57741W        W  654   4.215   7.797  25.250  0.1127  0.0538  0.0799
57742W        W  655   6.017  12.679   0.586 -0.1243  0.2332  0.2167
57743W        W  656  25.922  16.677  16.186  0.0624  0.2238 -0.2443
57744W        W  657  16.485  10.559  22.926  0.4687 -0.0641  0.0859
57745W        W  658  20.092   9.290  29.680  0.0410 -0.0882  0.0901
57746W        W  659   6.254  15.008  17.468 -0.1557  0.0280 -0.0047
57747W        W  660  11.307   7.424  24.712  0.3450  0.2031  0.0828
57748W        W  661   6.914   6.415  23.015 -0.0887 -0.0822  0.1316
57749W        W  662   4.796   8.591   2.044  0.2265  0.1202  0.0149
57750W        W  663  10.974  17.446  21.438 -0.0843 -0.0163  0.0935
57751W        W  664  16.814  31.668  27.465  0.0387  0.1512 -0.2073
57752W        W  665  18.694   8.831  19.399  0.1905  0.1888 -0.1788
57753W        W  666  16.787  17.743  24.585  0.0061 -0.0499 -0.1167
57754W        W  667  11.423  21.213  17.903  0.1619 -0.1023  0.0823
57755W        W  668   7.572  20.510   5.231 -0.0100  0.1417 -0.0316
57756W        W  669  14.032   2.542  29.740  0.0007  0.1221 -0.2413
57757W        W  670   6.967   9.083  24.259 -0.0645 -0.2500  0.2262
57758W        W  671   3.560  10.078  23.736  0.2126  0.0316 -0.0413
57759W        W  672  33.593   3.852  21.761  0.2028 -0.4761 -0.2194
57760W        W  673   2.414   3.973  17.566 -0.3036 -0.3594 -0.0866
57761W        W  674   7.560   9.062  26.409  0.4856 -0.0578  0.2618
57762W        W  675  10.642  21.588  29.696  0.1327  0.0849  0.2559
57763W        W  676  19.380  32.888  21.492  0.0566  0.0588  0.4133
57764W        W  677  16.436  16.777  26.508  0.1427 -0.0214  0.3375
57765W        W  678   7.905  15.962   1.245  0.2015 -0.0778 -0.1217
57766W        W  679   6.064   7.231  20.575  0.0883  0.2493  0.1790
57767W        W  680   9.513  24.295  16.590  0.0024  0.0236  0.0871
57768W        W  681   7.681  10.047  21.781 -0.0195 -0.1654 -0.0630
57769W        W  682  31.223  10.146  25.450  0.2977  0.0309 -0.2464
57770W        W  683   4.295  19.828  15.277  0.5546  0.1231 -0.2783
57771W        W  684   0.125   2.595  25.680 -0.1458 -0.0750  0.1840
57772W        W  685  10.259  13.180  23.300 -0.0260  0.1876  0.0151
57773W        W  686   7.008  18.579  13.542 -0.1004 -0.1789  0.0086
57774W        W  687   6.547   8.030  18.532  0.0080  0.3151  0.0004
57775W        W  688  10.911  11.124  24.712 -0.2447  0.0159  0.4664
57776W        W  689  20.948  11.695   1.748  0.1495  0.0932 -0.0914
57777W        W  690  16.481   8.084  17.040 -0.0914  0.4316 -0.0421
57778W        W  691   9.379   7.375   1.275  0.0213  0.0988 -0.0596
57779W        W  692  10.923  13.029  19.896  0.1076  0.0942 -0.0912
57780W        W  693  14.943  13.091  16.490 -0.1034 -0.1915 -0.3875
57781W        W  694  14.094  11.764  15.057  0.0431  0.0947  0.0343
57782W        W  695  15.757  20.072  29.039  0.3152 -0.1337  0.1355
57783W        W  696   9.287   8.566  22.753 -0.1343 -0.2142  0.1215
57784W        W  697  19.900   6.820   0.551  0.0334  0.0475  0.2415
57785W        W  698  18.197  11.010  21.411  0.0396  0.0077  0.2357
57786W        W  699  15.175  11.457  22.510  0.4083 -0.2214 -0.1618
57787W        W  700  13.293   7.477   6.060  0.2422 -0.3980  0.0023
57788W        W  701  24.744   1.453  23.302 -0.2183  0.0431  0.0217
57789W        W  702   8.642   8.574  21.375 -0.0311  0.1602 -0.2799
57790W        W  703  12.023  20.490  20.599  0.1407  0.0648 -0.0694
57791W        W  704  24.773  11.642  21.902  0.1337 -0.1908  0.1623
57792W        W  705   0.832  16.400  16.033 -0.3642  0.1131  0.0537
57793W        W  706  21.050   3.504  20.230  0.3899  0.2604 -0.1010
57794W        W  707  21.101   7.413  13.997 -0.1048 -0.0446  0.2080
57795W        W  708   6.785   5.668  26.723  0.0165 -0.0963  0.2322
57796W        W  709  12.965  10.324  25.990 -0.2606 -0.3514  0.0714
57797W        W  710  18.600   6.794  15.624 -0.1902 -0.2169 -0.3083
57798W        W  711   4.390   6.387   1.370 -0.2165  0.0309  0.0320
57799W        W  712  25.057  17.922  26.485 -0.2816 -0.4753  0.1162
57800W        W  713  10.281  11.018  25.820 -0.2406  0.0013 -0.0582
57801W        W  714   2.878   8.556  21.464  0.1929  0.0181  0.3192
57802W        W  715  10.184  13.612  28.869 -0.0169  0.1693 -0.0952
57803W        W  716   9.806   7.874  21.966 -0.1564 -0.1986  0.0029
57804W        W  717   7.364  31.936   0.955 -0.2764  0.0277  0.0222
57805W        W  718  11.351  18.345   2.279  0.0227  0.4300 -0.2294
57806W        W  719  10.104  17.815  25.888 -0.1805 -0.1151 -0.1304
57807W        W  720  18.504   1.011  23.381  0.2901 -0.0751 -0.2613
57808W        W  721  14.462   9.180  24.189 -0.0207 -0.0798  0.0925
57809W        W  722  15.892  24.397  17.605  0.1120 -0.0771  0.4854
57810W        W  723   3.780  15.319   1.123 -0.0425  0.0936 -0.1705
57811W        W  724   8.367   2.284   3.969  0.0510  0.1192  0.3729
57812W        W  725   9.197   3.479  29.018 -0.0986 -0.1110 -0.1951
57813W        W  726  23.681  12.998  15.708 -0.2393 -0.1059 -0.0885
57814W        W  727  14.627  13.368  19.894 -0.2009 -0.0884  0.1059
57815W        W  728  10.436  14.544  23.615  0.0431 -0.1345 -0.1638
57816W        W  729   8.833   3.844  28.068  0.0027 -0.0622  0.0824
57817W        W  730   7.930  21.059  23.401  0.1301 -0.1851  0.1948
57818W        W  731  13.138  11.072  21.935  0.2159 -0.4097  0.0223
57819W        W  732  16.312  18.184  24.453 -0.2418 -0.0489  0.1530
57820W        W  733   3.737   6.845  21.047 -0.3215  0.0470 -0.2777
57821W        W  734  16.806  16.216  18.452  0.1196  0.0972 -0.0073
57822W        W  735   9.087  12.101  16.809  0.1565 -0.0975  0.0293
57823W        W  736  17.796  10.958  20.481  0.0272  0.0837  0.2053
57824W        W  737  12.270   4.936  25.110 -0.0177  0.0581 -0.0726
57825W        W  738  12.418  14.913   1.291  0.1572 -0.2908 -0.1627
57826W        W  739   6.088   9.519   3.343 -0.0136  0.3824 -0.1178
57827W        W  740  15.973  13.279   3.161 -0.2416 -0.1860  0.1756
57828W        W  741  10.848  17.890  21.137  0.3917  0.0807 -0.1960
57829W        W  742  11.162  11.409  25.028 -0.3002 -0.1332 -0.0121
57830W        W  743  13.940  12.324  23.355 -0.1062 -0.0139 -0.0908
57831W        W  744  14.596  20.842  18.479 -0.3385  0.2231 -0.0009
57832W        W  745  16.211   9.076  19.276  0.1828  0.4333 -0.3023
57833W        W  746   9.331  21.193  23.085  0.0817 -0.0801 -0.0615
57834W        W  747  10.294  33.669   8.744 -0.1841 -0.1500 -0.3730
57835W        W  748   9.884  15.723  15.785 -0.2005 -0.1773 -0.0433
57836W        W  749  10.741   4.129  20.822 -0.0622 -0.0058 -0.4551
57837W        W  750  17.253  12.589  22.150  0.0439  0.2378  0.0862
57838W        W  751  11.458  27.258  28.486  0.1081  0.2485  0.0964
57839W        W  752  20.417  33.991  22.177 -0.1121  0.0643 -0.2953
57840W        W  753   6.755  11.143  15.204  0.4871  0.2870 -0.0959
57841W        W  754  17.722   9.641  29.073  0.0131  0.2958  0.2402
57842W        W  755   9.115  11.937  24.970 -0.2168  0.0209  0.1430
57843W        W  756  17.197   5.125  15.319 -0.1266  0.2279 -0.0092
57844W        W  757   4.296   7.570  18.809 -0.1815 -0.2125  0.1481
57845W        W  758  10.356  11.232  19.668  0.0997 -0.1466 -0.2044
57846W        W  759  18.675   4.400  20.576 -0.0750 -0.1540 -0.0796
57847W        W  760  12.593   7.297  25.184  0.3336  0.0174  0.4478
57848W        W  761  18.342  16.429  25.438  0.3623  0.3075 -0.0072
57849W        W  762   9.586   8.220  22.299 -0.1303 -0.3676  0.0828
57850W        W  763  15.524   8.563  20.438  0.1684 -0.0567 -0.0916
57851W        W  764  15.324   0.548  19.650  0.0322 -0.1175  0.3353
57852W        W  765  11.056   5.767  22.740  0.2641  0.1468 -0.1018
57853W        W  766  11.291   6.774  24.464 -0.0396  0.1573 -0.0749
57854W        W  767  12.290   8.400  21.656  0.1704 -0.0230 -0.0269
57855W        W  768   8.654  19.497  15.219 -0.0104 -0.0474  0.4008
57856W        W  769   7.565   7.260   1.168 -0.0094  0.3049  0.0043
57857W        W  770   8.744  10.804   1.887 -0.0352 -0.0137  0.0827
57858W        W  771  12.475  17.587  18.262  0.3278 -0.3019  0.1495
57859W        W  772  23.822   7.093  27.772 -0.0139  0.0498 -0.0207
57860W        W  773  11.974   6.401  19.194 -0.1537 -0.1755 -0.3505
57861W        W  774  26.052  22.452   1.580 -0.0995  0.2901  0.0306
57862W        W  775   7.902   5.354  18.697  0.0200  0.1089 -0.0885
57863W        W  776  11.665  16.424  20.334 -0.1100 -0.0571  0.0155
57864W        W  777   9.699  12.359  27.100  0.1021  0.0851 -0.1581
57865W        W  778   9.398   9.329  24.980 -0.1390 -0.2532 -0.0004
57866W        W  779  13.310   5.047  22.733  0.0409 -0.1982  0.0020
57867W        W  780  14.255  32.213  28.415  0.1740  0.1559 -0.2577
57868W        W  781   8.535   4.353  25.326  0.2103 -0.3045 -0.3104
57869W        W  782  14.793   3.682  21.548  0.0479 -0.1538 -0.2239
57870W        W  783   6.352  22.415   6.394  0.1869  0.0070  0.0311
57871W        W  784   6.015  16.219  27.745 -0.2163 -0.3297  0.1605
57872W        W  785  14.378  22.551  24.333  0.0420 -0.2715 -0.3064
57873W        W  786  12.458   8.759   8.955  0.3018 -0.1212 -0.2459
57874W        W  787  22.784  10.404   7.267  0.0256 -0.0118  0.0827
57875W        W  788  11.814   5.748  18.921  0.1053 -0.2157 -0.2969
57876W        W  789  11.043  18.776   2.832  0.1430  0.1637 -0.0025
57877W        W  790  17.330   7.253   0.655 -0.1325 -0.0339  0.3152
57878W        W  791   8.965   7.788  23.315  0.1530  0.0823 -0.0800
57879W        W  792  18.393  12.229  28.379 -0.2830  0.0524  0.1801
57880W        W  793   9.544  12.348  25.037  0.0853 -0.0052  0.1406
57881W        W  794  19.559   6.976  28.868 -0.2730 -0.1143  0.2572
57882W        W  795  13.261   7.150  22.205 -0.1684  0.3501 -0.1367
57883W        W  796   1.770   3.438  24.959  0.2249 -0.1019 -0.2987
57884W        W  797  10.520  20.707   0.975 -0.0982  0.1848 -0.0603
57885W        W  798  31.995   9.000  24.828 -0.0133  0.1299 -0.0719
57886W        W  799  17.408  14.180  29.116 -0.1082  0.1189 -0.0004
57887W        W  800  14.001   6.321  23.910 -0.1790 -0.1379 -0.0540
57888W        W  801  16.030   1.220  28.721 -0.0809  0.3944  0.0289
57889W        W  802  11.561  10.053  18.490 -0.0332  0.1605  0.0205
57890W        W  803  11.459   3.689  23.169  0.2530 -0.3473 -0.2407
57891W        W  804  10.915   5.167   5.788  0.4192 -0.4767 -0.0015
57892W        W  805  15.268   5.965   0.941  0.1346 -0.0897  0.0962
57893W        W  806  12.508  17.989  23.906 -0.2000 -0.0014  0.4631
57894W        W  807   9.034   9.444   1.309  0.0634  0.3699  0.0526
57895W        W  808  11.480   2.763   6.852  0.0438  0.1012 -0.1232
57896W        W  809  23.306  15.814  26.088  0.2086 -0.1710  0.1241
57897W        W  810  22.931   3.506  27.171  0.0716  0.1965 -0.2832
57898W        W  811   9.850  23.395  27.598 -0.1365 -0.0001 -0.1772
57899W        W  812  10.726  32.286  23.079  0.1097  0.0723 -0.1997
57900W        W  813  17.318  12.714  24.053 -0.0884  0.0473  0.0207
57901W        W  814  13.117  34.452   7.133  0.0522 -0.2633  0.0772
57902W        W  815  20.060  13.123  24.969  0.0885  0.0239 -0.1825
57903W        W  816  15.966  12.107  22.817 -0.2246 -0.2394 -0.0898
57904W        W  817  14.867  14.125  22.114  0.0644 -0.1815  0.0624
57905W        W  818  17.033   6.502  22.495 -0.0319 -0.0997 -0.2303
57906W        W  819  17.616  16.875  23.579  0.0236  0.0868  0.1441
57907W        W  820  15.903  10.528  19.186 -0.0008  0.1800 -0.0875
57908W        W  821   9.060   3.267   2.897 -0.2448 -0.0203  0.0097
57909W        W  822  10.770  19.691  27.911  0.5254  0.2661  0.0321
57910W        W  823  11.195  16.593  25.814 -0.1110  0.2782 -0.3079
57911W        W  824  16.227   2.679   5.294 -0.4318 -0.0613  0.2040
57912W        W  825   9.216  11.551   6.826 -0.4913 -0.1690 -0.1724
57913W        W  826  10.367  15.246  25.983 -0.1456  0.3800 -0.1326
57914W        W  827  12.758   5.573  18.224  0.1633 -0.0849 -0.1890
57915W        W  828   8.837   7.044  13.129 -0.0317 -0.0588 -0.1271
57916W        W  829  10.817  15.242  26.158  0.0737  0.1280 -0.3060
57917W        W  830  18.494  14.071  26.210  0.1345 -0.1883  0.1564
57918W        W  831   7.467  19.085  27.448  0.3301  0.3606 -0.1438
57919W        W  832  11.785  11.866  27.956 -0.0511 -0.0304  0.1745
57920W        W  833  16.790  13.576  11.991  0.0662 -0.1616  0.1127
57921W        W  834  20.853  18.244  13.216  0.2110  0.1668 -0.3017
57922W        W  835  19.786   4.513  20.615 -0.0556  0.0928  0.0233
57923W        W  836   0.490  13.178   7.298  0.0491 -0.0902  0.1787
57924W        W  837   5.388  19.825   0.500  0.3949 -0.0841 -0.3904
57925W        W  838  11.281  10.541  28.855 -0.1633  0.3212  0.1979
57926W        W  839  14.624  17.172   3.086  0.1469 -0.0120 -0.3742
57927W        W  840   7.629  30.887  18.782 -0.1704 -0.1022 -0.6701
57928W        W  841  10.499  11.768   9.961  0.2745 -0.0035  0.0663
57929W        W  842   7.046   0.737  28.022  0.2704  0.2712  0.0592
57930W        W  843  11.451  21.338  23.460 -0.0707 -0.0702 -0.1482
57931W        W  844  21.182   9.632  13.585  0.1460 -0.1146 -0.0451
57932W        W  845  16.784  14.998   6.731  0.3352  0.0232 -0.1140
57933W        W  846  17.450  23.241   0.403 -0.0889 -0.0775 -0.1613
57934W        W  847   6.590  17.537   0.936 -0.0653 -0.0678  0.0716
57935W        W  848  23.578  10.357   5.762  0.0549  0.1266  0.0739
57936W        W  849   7.828  33.324  17.489  0.0896 -0.0826 -0.2341
57937W        W  850  10.804   4.159   2.486  0.0347  0.0848  0.0005
57938W        W  851   8.339  19.402   1.713 -0.1280  0.2893 -0.1214
57939W        W  852  19.455   9.626  28.789 -0.4911  0.3017  0.1692
57940W        W  853   1.074  11.944   1.465  0.1656  0.2112 -0.3962
57941W        W  854   9.008   0.989   3.377 -0.1297  0.0611  0.1018
57942W        W  855   7.592   9.875  24.079  0.3600  0.0668 -0.1832
57943W        W  856  17.852   8.215   5.946 -0.1783  0.1385 -0.0457
57944W        W  857  18.114  11.644  24.809 -0.2084 -0.2037  0.3000
57945W        W  858   6.058   3.815  27.063 -0.0354  0.0166 -0.2061
57946W        W  859  13.025  23.018  21.073 -0.1624  0.1947 -0.1293
57947W        W  860  11.821  16.868  26.589 -0.1165 -0.0141  0.3550
57948W        W  861  33.464  13.049  16.171 -0.0233  0.2801  0.5120
57949W        W  862   6.971  11.537   4.186  0.0881 -0.0661  0.0383
57950W        W  863  24.276   8.483  28.640 -0.2570  0.2633  0.1944
57951W        W  864  11.650   3.073  22.224  0.0920  0.2071  0.2138
57952W        W  865   2.986  11.696  20.986 -0.2590  0.0909  0.0709
57953W        W  866  14.243  15.948   3.805  0.0040  0.0997 -0.0891
57954W        W  867  33.653   5.218  26.005 -0.1934 -0.3389 -0.0326
57955W        W  868  11.067  14.894  25.891 -0.5364 -0.3875 -0.1984
57956W        W  869  11.004   9.754   0.175  0.0300  0.1415 -0.0111
57957W        W  870   4.257  13.971   1.049 -0.0078 -0.1563 -0.1325
57958W        W  871  17.300  13.414   6.060  0.0814 -0.2781  0.1593
57959W        W  872  21.098   8.984  28.171  0.2661 -0.4136 -0.3310
57960W        W  873   9.550  22.725  26.416 -0.1560  0.0777 -0.3203
57961W        W  874  15.618  17.043  26.796  0.2768  0.0595  0.0838
57962W        W  875  13.846  14.782  18.633 -0.2049 -0.1924 -0.1829
57963W        W  876   9.207   8.052  24.794 -0.3738  0.3192 -0.0088
57964W        W  877  12.960   0.548   0.504 -0.0047  0.2436  0.2556
57965W        W  878  15.498   5.152  27.226 -0.0728 -0.0386 -0.1059
57966W        W  879   7.234   5.844   0.060  0.0669 -0.2314 -0.0734
57967W        W  880  33.887  10.674  17.405 -0.2499 -0.0250  0.0879
57968W        W  881  15.443  11.807   1.822 -0.1984  0.0233 -0.1445
57969W        W  882  10.956  12.059  27.155 -0.0211  0.2835  0.2104
57970W        W  883  11.520  11.884   3.299  0.0592 -0.2010 -0.0146
57971W        W  884   5.732  20.336  16.169 -0.1246  0.0951 -0.1509
57972W        W  885   7.379   4.837  28.865 -0.0237  0.1725  0.2781
57973W        W  886  13.624  12.100   1.614 -0.1502 -0.0685  0.0023
57974W        W  887  13.469  19.262  18.029  0.1296 -0.2694 -0.0122
57975W        W  888  32.018   3.468  10.665  0.0462 -0.2347  0.1887
57976W        W  889  14.558  19.057   3.533 -0.2322  0.3088  0.2043
57977W        W  890   8.086  19.164   2.868 -0.0765  0.0265  0.0763
57978W        W  891  11.791  14.155   0.983  0.3875  0.0674 -0.3420
57979W        W  892   8.056  16.778   5.419  0.2042  0.3486 -0.3080
57980W        W  893  11.621  19.341   0.315 -0.3487 -0.2736 -0.1419
57981W        W  894  10.639  11.163  28.041  0.1666  0.3097  0.0641
57982W        W  895  10.809  16.055  27.084  0.0430  0.1020  0.0403
57983W        W  896   6.237   5.925  28.112 -0.0702  0.0040  0.0997
57984W        W  897  13.925  12.019  20.557  0.0498  0.0118 -0.1991
57985W        W  898  12.556  11.695   8.578  0.3154  0.1484  0.0154
57986W        W  899  12.170  10.508   8.769  0.1481  0.1651  0.0539
57987W        W  900  12.664  14.826   4.389  0.2290 -0.3637 -0.0172
57988W        W  901  13.137  31.630  20.145  0.2644 -0.1895  0.0406
57989W        W  902  19.668  17.825  13.807  0.0447  0.0540 -0.3061
57990W        W  903  24.405  25.216   8.217 -0.0617  0.5882 -0.1695
57991W        W  904  13.959   7.102  26.083  0.3695  0.0642 -0.1368
57992W        W  905  12.490  16.493  19.978  0.1246  0.4535  0.2288
57993W        W  906   9.632  12.831  19.053  0.0448 -0.1133  0.0260
57994W        W  907  13.967  13.605  24.531  0.0869 -0.2344  0.1104
57995W        W  908  10.519   0.552  19.291 -0.3186  0.2013 -0.0931
57996W        W  909   1.982  21.910   3.808  0.1971  0.3307  0.0627
57997W        W  910   9.313  14.596  26.874 -0.2946 -0.3669  0.0629
57998W        W  911  18.522   4.084  14.449 -0.1902 -0.1635  0.0671
57999W        W  912   4.894   8.568  26.841 -0.2835 -0.1065 -0.0189
58000W        W  913  12.797   5.876  25.472  0.0155 -0.0868  0.0100
58001W        W  914   6.455  12.454   0.708 -0.1718  0.0726 -0.0472
58002W        W  915  14.431   9.155  21.797  0.2202  0.1685  0.2990
58003W        W  916   8.824  12.597  29.292 -0.0481 -0.2883  0.2655
58004W        W  917   8.670  15.963  24.011 -0.3859 -0.3259 -0.4173
58005W        W  918  12.219  10.929  25.789  0.0305  0.1367  0.1952
58006W        W  919  16.940  25.196  27.658 -0.1013  0.5928 -0.0412
58007W        W  920  20.968  11.619   0.722  0.6283 -0.0082 -0.1846
58008W        W  921   7.239  26.441  28.817 -0.0507  0.2736  0.0072
58009W        W  922  11.204  10.969  17.422  0.1563  0.2429  0.0592
58010W        W  923  14.094  18.177   4.895 -0.1998 -0.0385  0.0519
58011W        W  924   9.924  19.410  29.168 -0.0821 -0.0246 -0.0941
58012W        W  925  12.626  16.930  29.004 -0.2545  0.0334  0.1523
58013W        W  926  11.395  14.309  14.418  0.0337  0.1677  0.1667
58014W        W  927  12.172   1.895   4.048 -0.0930 -0.2797 -0.0274
58015W        W  928  12.486  23.511  24.480 -0.0116 -0.0402 -0.3272
58016W        W  929  17.968  14.086  20.938  0.2778 -0.1148  0.1755
58017W        W  930  20.151   8.402   3.882 -0.2423 -0.1249  0.0181
58018W        W  931  13.855  10.672   5.304  0.2371 -0.0416  0.2185
58019W        W  932  13.649  14.630  28.584 -0.0408  0.1028 -0.1405
58020W        W  933  12.225  15.557  28.842  0.2172  0.0843  0.0531
58021W        W  934   8.835   9.531   0.431 -0.2296  0.3305 -0.0558
58022W        W  935  20.650  11.948  24.308 -0.2592  0.0516 -0.0088
58023W        W  936   8.798  10.326   0.979 -0.1328  0.3230  0.1038
58024W        W  937  12.616  18.730   1.939 -0.0330  0.2711  0.0688
58025W        W  938   8.413  16.621  26.736  0.3319  0.0221 -0.0343
58026W        W  939  16.492  16.868  28.988 -0.5812  0.0347 -0.1696
58027W        W  940  21.622  33.088  23.983  0.0524  0.0473  0.1537
58028W        W  941  21.982  11.247   6.404  0.3531 -0.1283 -0.4066
58029W        W  942   7.612   4.347  22.469  0.1930 -0.4645  0.0246
58030W        W  943  14.769   2.238   0.939 -0.0031  0.5555 -0.1138
58031W        W  944  12.617   6.525  22.745  0.2842 -0.2211 -0.0067
58032W        W  945   5.546   9.484  21.927  0.0762 -0.0478 -0.2442
58033W        W  946  19.443  13.384  29.638  0.1845  0.3112 -0.1723
58034W        W  947  11.544  13.847  19.629 -0.1045  0.2130 -0.0734
58035W        W  948   7.090  12.119  27.360  0.2999  0.4518 -0.1103
58036W        W  949  20.369  34.011   0.395 -0.2820  0.0727 -0.1960
58037W        W  950   1.599  15.937   2.608  0.3568 -0.1471  0.0379
58038W        W  951  13.087  22.272  26.349  0.2691  0.1792  0.2248
58039W        W  952  16.292   3.151   0.380  0.2446 -0.0504 -0.1161
58040W        W  953   9.818  13.685  17.212  0.0219  0.1759  0.0767
58041W        W  954  32.623  12.636  20.462  0.2699 -0.0732 -0.1336
58042W        W  955  34.236  13.209  22.043  0.1630  0.1061  0.0079
58043W        W  956   7.996   9.142   1.213  0.2428  0.0486 -0.1151
58044W        W  957  22.500   6.727   1.708 -0.1064  0.0954  0.0203
58045W        W  958  14.627   4.126   1.624  0.0095  0.3511 -0.0028
58046W        W  959  15.434  32.481  23.182  0.1653  0.0523  0.3178
58047W        W  960  16.715  12.385  22.457 -0.1834  0.2730 -0.0037
58048W        W  961  20.765   9.072   0.523 -0.1400 -0.3468 -0.0274
58049W        W  962  14.612  25.620  27.806 -0.3995 -0.2129  0.5302
58050W        W  963  11.063  21.598  22.727 -0.0250 -0.1512  0.0463
58051W        W  964   6.371   8.681  26.725  0.2373 -0.3318  0.0829
58052W        W  965   6.140   8.097  28.710  0.0818  0.0756  0.0709
58053W        W  966   3.809  18.163  27.488  0.1258  0.1196 -0.3163
58054W        W  967  12.696   8.029  27.147 -0.2030  0.0308 -0.1118
58055W        W  968   7.154  19.069  13.829 -0.0040 -0.1787 -0.1946
58056W        W  969  16.882  15.925  22.676 -0.1476  0.0565 -0.0622
58057W        W  970   1.162  16.419   3.958 -0.1211 -0.0694  0.3152
58058W        W  971  11.451  20.430   2.079 -0.0284 -0.1743 -0.1918
58059W        W  972  20.289  25.384   6.482 -0.1658 -0.3271 -0.2949
58060W        W  973   5.516   8.262  23.986  0.0649  0.2503  0.2010
58061W        W  974   2.832   5.023  23.020 -0.1042  0.2928  0.1224
58062W        W  975  11.285  12.078  13.863  0.1067 -0.1889  0.0950
58063W        W  976   3.984   8.481   2.835 -0.0049  0.0497 -0.1717
58064W        W  977  14.032  17.089  27.140  0.1748  0.1020  0.0935
58065W        W  978   4.983  23.385  15.278 -0.1194  0.0130  0.0070
58066W        W  979   8.354   0.907  24.659  0.4618  0.2739 -0.1338
58067W        W  980   8.520  14.966  25.521  0.2892  0.3117  0.4013
58068W        W  981   3.907  14.926  27.994 -0.1196  0.2647  0.1075
58069W        W  982  15.864  19.528  28.073 -0.2240 -0.1791  0.1723
58070W        W  983  24.510   9.043   1.895  0.3857 -0.0757 -0.1276
58071W        W  984  11.528  30.152   9.005 -0.1681  0.0760  0.0248
58072W        W  985  16.373  14.511  16.342 -0.3138  0.0725 -0.2181
58073W        W  986  15.539  14.930  25.242 -0.1893 -0.3998  0.0393
58074W        W  987  18.899  19.388  27.006  0.0240 -0.0703 -0.1654
58075W        W  988  17.757   6.802  24.147  0.1570 -0.2556  0.2760
58076W        W  989  17.061  11.095   0.790  0.2406  0.1052  0.0518
58077W        W  990   0.850  17.112  21.324  0.0983 -0.0417 -0.0382
58078W        W  991  15.544   3.551  27.831  0.1943  0.4515  0.1811
58079W        W  992  18.029   9.429   1.843 -0.0251 -0.0007  0.0366
58080W        W  993  14.276   8.411  28.721  0.0572  0.1203 -0.1945
58081W        W  994  14.025   8.265  28.205 -0.1991 -0.2724 -0.1283
58082W        W  995  20.969  12.142  28.049 -0.1859  0.2172  0.2145
58083W        W  996   6.642  10.563  18.280  0.1679 -0.1889 -0.2309
58084W        W  997  13.437  22.347  29.481  0.1230 -0.0999  0.0255
58085W        W  998  20.430  15.552  28.255 -0.0774 -0.0324  0.1418
58086W        W  999   9.914  13.396  20.604  0.3039 -0.3571  0.2024
58087W        W 1000  13.515  15.108  22.354 -0.0638  0.2564 -0.0085
58088W        W 1001  21.201  15.502   2.991  0.0206  0.0276 -0.0026
58089W        W 1002  11.758  19.018  27.358  0.1276 -0.0521  0.0303
58090W        W 1003  23.546  10.241  14.202 -0.0960 -0.0377 -0.3243
58091W        W 1004  21.482   3.945  21.481  0.1564  0.0329  0.1573
58092W        W 1005  10.986   9.702  27.881  0.0791  0.2289  0.2058
58093W        W 1006   8.483  16.270  20.436  0.1700 -0.2092 -0.2297
58094W        W 1007  12.089   2.668  25.457  0.3535 -0.0783  0.0185
58095W        W 1008  12.366  22.873   1.730  0.1860  0.1531  0.0360
58096W        W 1009  19.248   2.413   0.402 -0.0344 -0.0597  0.0234
58097W        W 1010  11.983   9.303   0.176  0.1687  0.0874  0.0042
58098W        W 1011   9.703  11.941  28.383  0.0473 -0.4119  0.1306
58099W        W 1012   8.876  12.984  28.473  0.2037 -0.1640 -0.0004
58100W        W 1013  11.522  20.414  20.474 -0.0163 -0.2092  0.0670
58101W        W 1014  15.593  15.991  24.748  0.2205 -0.0716  0.2537
58102W        W 1015   5.284  12.786  20.396  0.2513  0.0004  0.0199
58103W        W 1016  11.413  11.995  27.102  0.0000  0.2772 -0.2627
58104W        W 1017  18.460   2.488  19.945 -0.0800 -0.3185 -0.4059
58105W        W 1018  16.285  10.924   4.828 -0.3031 -0.0420 -0.0355
58106W        W 1019   9.910  19.009  27.870 -0.3487 -0.1699 -0.0565
58107W        W 1020  23.955   5.258  19.483 -0.2001  0.0117  0.0658
58108W        W 1021   8.436   8.776   4.171 -0.1667  0.3396 -0.1209
58109W        W 1022  10.948  19.316  26.495  0.2180 -0.1037 -0.0469
58110W        W 1023   5.299   1.371  26.379  0.1382 -0.0505  0.0169
58111W        W 1024   6.255  15.697   7.816 -0.0884 -0.0397 -0.2288
58112W        W 1025  11.052  28.386   4.533 -0.5059 -0.1391  0.1596
58113W        W 1026   7.976  16.778  28.612  0.2319  0.0077  0.1158
58114W        W 1027  31.887  32.951   2.141 -0.0018 -0.0101  0.0229
58115W        W 1028  16.945   4.056  15.285 -0.3963 -0.1500  0.2786
58116W        W 1029   9.841   5.610  23.563 -0.0480 -0.2281  0.0560
58117W        W 1030   9.069  13.092  21.291 -0.1824  0.2029 -0.4120
58118W        W 1031   8.281  20.942  17.575 -0.0270  0.0128  0.0051
58119W        W 1032   8.228  12.740  27.405  0.2749 -0.3076  0.0736
58120W        W 1033  17.124  17.578   5.903 -0.0268  0.2868  0.0446
58121W        W 1034  15.099  16.214  29.061  0.0164 -0.1375 -0.2593
58122W        W 1035  25.883  13.435  17.739  0.5260 -0.0979 -0.2231
58123W        W 1036  10.901  17.067  25.977  0.2778  0.0359 -0.0050
58124W        W 1037  21.150  16.054  29.343 -0.2504  0.1721 -0.0346
58125W        W 1038   9.480  17.795  27.414 -0.0875 -0.0948  0.1534
58126W        W 1039  20.912  11.539  21.729  0.0069 -0.0888  0.2597
58127W        W 1040  10.731  18.997  29.413  0.1678 -0.0955  0.0359
58128W        W 1041  15.736  18.079  15.096  0.0305 -0.1047 -0.0308
58129W        W 1042  12.892   2.920  26.367  0.0891  0.0200  0.3825
58130W        W 1043  11.861   8.845  29.361 -0.3026  0.2635  0.2171
58131W        W 1044  20.551  17.868  24.433  0.2385 -0.0864  0.0735
58132W        W 1045  10.038   5.635   0.523  0.0078  0.0261  0.3553
58133W        W 1046  19.824  17.525  23.487  0.1929  0.1256 -0.1307
58134W        W 1047  18.237  16.460  24.937 -0.0007  0.1318 -0.0524
58135W        W 1048   3.663   8.853  24.076  0.0649 -0.0860  0.1860
58136W        W 1049  12.452  14.876  22.535 -0.0837 -0.5050 -0.0063
58137W        W 1050   8.367  31.991   7.966  0.0379  0.0757  0.1481
58138W        W 1051   6.393  10.640  28.705 -0.0061 -0.4999 -0.1992
58139W        W 1052  19.256   7.435   9.468  0.0884 -0.1111 -0.1397
58140W        W 1053  13.069  12.009  27.087 -0.1054 -0.0861  0.3194
58141W        W 1054  14.613  23.700   8.640 -0.1519 -0.4552 -0.0625
58142W        W 1055  16.313  22.851   0.417 -0.1937 -0.3292 -0.0556
58143W        W 1056  12.079  18.538  21.588  0.0399 -0.1027 -0.0735
58144W        W 1057  11.393  17.402  20.372 -0.2514  0.0208 -0.2636
58145W        W 1058  11.863   6.647  28.146  0.2367  0.1856  0.1396
58146W        W 1059  13.969  25.652  28.155  0.1663 -0.1138 -0.2947
58147W        W 1060  12.318  18.275  17.500  0.2018  0.0255  0.0763
58148W        W 1061  10.979   2.657  27.224  0.0079  0.2474 -0.1759
58149W        W 1062  17.656  15.929  24.938 -0.3969  0.1389 -0.0246
58150W        W 1063  10.040  11.758  15.869  0.0646  0.2484 -0.0755
58151W        W 1064  13.731  14.092   6.862  0.0394 -0.1373  0.0298
58152W        W 1065   4.101  14.814  25.618  0.1806  0.2319  0.3385
58153W        W 1066  20.623   7.845  22.100 -0.2628 -0.1810 -0.0535
58154W        W 1067  21.640  10.033  21.337 -0.3318  0.0724  0.2150
58155W        W 1068   8.862   2.642  17.766  0.2141 -0.3169  0.0382
58156W        W 1069  11.533   9.841  24.399 -0.0611  0.4318  0.1274
58157W        W 1070   1.572  14.944   4.317 -0.2886  0.3112 -0.1474
58158W        W 1071   9.477   1.501   2.134 -0.3017 -0.1059  0.0679
58159W        W 1072   7.702  12.256  22.073 -0.1363 -0.0215  0.0401
58160W        W 1073  31.322  14.227  24.892  0.0465 -0.0983  0.2440
58161W        W 1074  13.001  11.885  22.416 -0.0242  0.1487  0.1199
58162W        W 1075   6.485   9.777  25.379 -0.1336 -0.2998 -0.3647
58163W        W 1076  14.598   7.554  26.354  0.0706  0.3290  0.0601
58164W        W 1077  13.477  12.284  20.662  0.1718  0.1169  0.2160
58165W        W 1078  16.312  14.005  29.749 -0.0170 -0.1119  0.0667
58166W        W 1079  26.665   2.396  21.524 -0.1196  0.0673  0.0833
58167W        W 1080   5.142  19.979  16.848 -0.0142 -0.1544  0.0947
58168W        W 1081  13.229   1.054  25.022  0.2523  0.1969 -0.0945
58169W        W 1082  11.142   6.223   3.420  0.3284  0.1040  0.2013
58170W        W 1083  14.366   0.194  28.811  0.1631 -0.1286  0.0943
58171W        W 1084   6.439   7.795  28.989  0.0970  0.1028  0.0193
58172W        W 1085   9.371   6.199  28.593  0.1979 -0.1382 -0.0126
58173W        W 1086  26.391   8.646   2.398 -0.1418 -0.1047 -0.1372
58174W        W 1087  13.180  19.811  24.757 -0.2893  0.0278 -0.3674
58175W        W 1088  13.299  18.743  27.591  0.1753 -0.0861  0.0037
58176W        W 1089  13.012  14.894   5.918  0.3338 -0.0735  0.0231
58177W        W 1090  16.933   3.579  28.386 -0.1067 -0.1595  0.1479
58178W        W 1091  15.951   8.259  23.219 -0.2545  0.1142  0.1755
58179W        W 1092   7.313   3.024   9.252 -0.0648 -0.2046 -0.0507
58180W        W 1093  13.174  11.059  22.874 -0.0784 -0.0006  0.0928
58181W        W 1094  13.224  15.502   1.269 -0.1465  0.1105  0.3593
58182W        W 1095   6.989   0.058  21.064  0.1816 -0.1903  0.0623
58183W        W 1096  27.775   7.922   3.057  0.1520  0.1086 -0.1264
58184W        W 1097  17.904  11.218   3.773  0.1211  0.1440  0.2345
58185W        W 1098  19.992  15.057   1.220 -0.1771  0.1417 -0.0613
58186W        W 1099  10.515   8.452  24.955  0.1099 -0.2455 -0.1432
58187W        W 1100  10.721  12.364   0.375  0.1609  0.4108  0.4278
58188W        W 1101  19.007   7.178   8.231  0.2193 -0.1449  0.2093
58189W        W 1102   8.556  14.216   3.929 -0.4044  0.2043 -0.0044
58190W        W 1103  13.285   4.532  21.567  0.0493 -0.0433 -0.2548
58191W        W 1104   1.460   8.892  25.879 -0.1058 -0.0128  0.3022
58192W        W 1105  12.872  19.767  23.137  0.0788  0.0661  0.1225
58193W        W 1106  13.333  15.863  24.212 -0.1837 -0.2202  0.1916
58194W        W 1107  17.656  16.284  24.515 -0.0492  0.2441  0.1400
58195W        W 1108  19.727   9.266  22.096 -0.1083  0.1290 -0.1354
58196W        W 1109  12.531  13.937  23.628 -0.0885  0.0461 -0.0165
58197W        W 1110  14.780  13.021  24.260  0.1012  0.0538 -0.0036
58198W        W 1111   4.355   7.699  26.717 -0.0934  0.2512 -0.2720
58199W        W 1112   1.971  12.916  20.576 -0.4477  0.0289 -0.1473
58200W        W 1113   8.864   5.588  20.340  0.1395  0.0194 -0.0325
58201W        W 1114  12.601   9.316  22.422  0.1880 -0.2516 -0.0385
58202W        W 1115  14.865   1.526   1.630  0.1821  0.2878 -0.0318
58203W        W 1116  14.185   9.066  22.269 -0.1742 -0.0569  0.0623
58204W        W 1117  25.010  13.557   6.831 -0.3531 -0.2198 -0.0826
58205W        W 1118   4.757  23.736  25.636  0.1461  0.0241  0.2057
58206W        W 1119  11.400  22.220   0.104 -0.1250  0.0612 -0.2314
58207W        W 1120   9.601   1.744  17.903 -0.1879 -0.0267  0.0879
58208W        W 1121  19.902  30.609   1.603 -0.0603 -0.0965 -0.0873
58209W        W 1122   7.639   6.403   3.503  0.3166  0.0502  0.0347
58210W        W 1123  21.052  25.921  23.795 -0.1649 -0.1593  0.2451
58211W        W 1124  11.675   9.560  29.125 -0.0262 -0.0987  0.0752
58212W        W 1125  15.176  14.289  21.573 -0.1559  0.4234  0.3530
58213W        W 1126  24.406  13.592  22.792  0.0124  0.3583  0.1543
58214W        W 1127  12.999  20.758  20.434 -0.4275 -0.2038  0.0678
58215W        W 1128  17.410  14.404   5.157 -0.3565  0.1431  0.1829
58216W        W 1129  11.252  10.897  23.734 -0.3468 -0.1897  0.0111
58217W        W 1130  14.951  13.036   1.523  0.0150  0.0525  0.0607
58218W        W 1131   9.373   9.513  24.371  0.0913  0.1745  0.0154
58219W        W 1132  17.505   6.878   7.094 -0.1759 -0.1825  0.1703
58220W        W 1133   7.425   5.743  28.865 -0.0946 -0.0451  0.1517
58221W        W 1134   4.725   8.806   0.929 -0.0261 -0.0845 -0.0131
58222W        W 1135   3.144  20.861  21.629  0.3065 -0.0350  0.1853
58223W        W 1136  13.084  18.740  25.258 -0.4355 -0.2217 -0.1811
58224W        W 1137   9.248   0.460   8.319 -0.0602 -0.0101 -0.1622
58225W        W 1138  18.653   8.587  18.633  0.2413  0.1152  0.1870
58226W        W 1139   9.517   2.789   2.336  0.0527  0.1914 -0.1527
58227W        W 1140   5.581  12.904  24.178  0.1408  0.2015 -0.1492
58228W        W 1141   5.348  12.556  25.451  0.0675  0.2291  0.2917
58229W        W 1142  17.887  16.576  25.669 -0.0256  0.0625  0.2899
58230W        W 1143   6.944  13.255  20.670  0.0212  0.4508  0.2151
58231W        W 1144  13.219  13.455  22.641  0.0981  0.4280  0.1493
58232W        W 1145   8.292  13.613  29.209 -0.2130  0.2509 -0.2896
58233W        W 1146  10.832  11.328   2.981 -0.3484 -0.0181 -0.1446
58234W        W 1147  13.591  14.323  25.520  0.0121  0.0059  0.0152
58235W        W 1148  33.526   3.074  26.479 -0.2502 -0.1712 -0.3827
58236W        W 1149   9.004   6.995  21.293 -0.1441  0.0687 -0.0188
58237W        W 1150   6.764  13.258  28.894 -0.1880  0.0837  0.0532
58238W        W 1151  12.645  11.504  25.180  0.0547  0.1090  0.1430
58239W        W 1152  16.602  16.137  23.522  0.0114  0.2783 -0.2141
58240W        W 1153   8.615  12.372  16.535  0.0258 -0.2715  0.1890
58241W        W 1154  11.588   4.940   3.112 -0.4500  0.5857 -0.0100
58242W        W 1155   8.939  16.728   5.568 -0.1296  0.0743 -0.0694
58243W        W 1156  26.195  19.372   0.086 -0.0884  0.1086 -0.2243
58244W        W 1157   6.028   3.228   3.082  0.1461  0.1180 -0.1265
58245W        W 1158  23.296  10.033   8.147 -0.0797  0.2683  0.4219
58246W        W 1159   8.580  17.667  26.609  0.0868 -0.1381  0.0405
58247W        W 1160   7.385   8.885  11.427 -0.3698  0.0363  0.0566
58248W        W 1161  18.241   7.707  25.178  0.1067 -0.3314  0.0499
58249W        W 1162  16.175  33.738  25.804 -0.1321  0.1774 -0.1455
58250W        W 1163   8.334  11.816  26.213  0.0959 -0.1706 -0.0000
58251W        W 1164  16.357  13.354  21.540  0.1604 -0.0435  0.3082
58252W        W 1165  11.190  12.403   0.187  0.2128  0.0324 -0.1236
58253W        W 1166   4.815  15.491  26.421 -0.1760 -0.0399  0.1329
58254W        W 1167   3.848   8.476  22.857 -0.0392  0.2207  0.0932
58255W        W 1168  14.897  11.023  20.382  0.2002 -0.1357 -0.2127
58256W        W 1169  18.910   4.892   2.018 -0.1179 -0.0953  0.0735
58257W        W 1170  12.707  13.332  21.836  0.4701 -0.1516 -0.0714
58258W        W 1171  14.706  15.541   0.416 -0.0574  0.0751  0.1669
58259W        W 1172   9.062  32.695  28.108  0.0456 -0.2197  0.1870
58260W        W 1173   4.051  11.684   9.441 -0.1239  0.2875 -0.0285
58261W        W 1174  20.253  15.329   1.674 -0.0247  0.2321 -0.0309
58262W        W 1175   6.720  11.074  26.621  0.1876  0.1492  0.1277
58263W        W 1176  12.837   7.058   7.699 -0.1165  0.3053  0.3046
58264W        W 1177  24.296  12.539   9.474 -0.5036  0.1326 -0.2978
58265W        W 1178   8.686   7.475   0.432 -0.1939  0.4295  0.2616
58266W        W 1179  10.350   0.557  21.986 -0.3505 -0.3253  0.1946
58267W        W 1180  22.070  27.715  22.460  0.1001 -0.0662  0.2824
58268W        W 1181   7.831  13.601  27.183  0.1128  0.1192  0.0506
58269W        W 1182  14.960  14.635  16.702 -0.2360 -0.0834 -0.0136
58270W        W 1183  10.282  12.604   3.917 -0.3693 -0.1431  0.1017
58271W        W 1184   8.175   4.625   3.274  0.1059  0.0723 -0.2133
58272W        W 1185  26.977  17.219  15.711 -0.3841 -0.2113  0.0134
58273W        W 1186   9.544   8.292   1.506 -0.1859  0.1572  0.0047
58274W        W 1187  15.173   6.877  11.152 -0.2145 -0.2102 -0.0670
58275W        W 1188  13.748  22.894   7.476  0.0260 -0.1127  0.1421
58276W        W 1189  14.170  13.447   0.906  0.1547  0.1516  0.2285
58277W        W 1190  15.514  23.493   7.060  0.0959  0.2307 -0.1750
58278W        W 1191  23.244   9.825  24.857 -0.0104  0.2897  0.0289
58279W        W 1192  25.055  11.266   7.365  0.0420  0.2222  0.1147
58280W        W 1193  10.062  16.393  27.104  0.0911 -0.1055 -0.1812
58281W        W 1194  14.960  16.521  27.041  0.4792 -0.0926  0.0407
58282W        W 1195  17.678  14.665  23.489 -0.1028  0.0652 -0.0128
58283W        W 1196  33.083   7.770  25.707 -0.1873 -0.3134 -0.2410
58284W        W 1197  14.842  20.557   3.038  0.0938 -0.2135 -0.3474
58285W        W 1198  17.563   3.956  25.625  0.2151  0.0976 -0.0403
58286W        W 1199   9.534  10.583   2.314 -0.1259 -0.0144  0.0771
58287W        W 1200   8.150   9.976  26.466  0.1234  0.0675  0.2860
58288W        W 1201  25.741   5.617   9.682 -0.1679  0.1054 -0.0910
58289W        W 1202  18.228   6.512  22.972  0.1425  0.3561  0.3227
58290W        W 1203   6.592  24.525  26.374  0.2620 -0.0627  0.2738
58291W        W 1204   7.151   9.564   6.444  0.0828 -0.1084  0.0354
58292W        W 1205   7.359  13.788   8.230 -0.2551  0.0193  0.2763
58293W        W 1206   5.289   7.855   9.495 -0.0151  0.1337  0.1265
58294W        W 1207   6.484  17.454  20.488 -0.2652 -0.1116  0.0611
58295W        W 1208  11.043  10.011  20.876 -0.1130  0.6572 -0.2874
58296W        W 1209   3.857   7.157  21.453  0.1106 -0.2403 -0.2074
58297W        W 1210   9.077   3.707   4.646  0.2371  0.1504 -0.0578
58298W        W 1211   7.417  10.223   8.902 -0.0716  0.1157 -0.1335
58299W        W 1212   8.018  11.412   0.943 -0.1433  0.0407  0.0133
58300W        W 1213  21.376  11.460   5.728  0.3048 -0.0916  0.0394
58301W        W 1214  33.165   5.863  17.780 -0.0217 -0.1210  0.0472
58302W        W 1215  13.610  11.357  24.220  0.1389  0.3026 -0.0003
58303W        W 1216   8.125  10.560  28.233 -0.0519  0.1234 -0.0772
58304W        W 1217   9.101   5.341  22.010 -0.1227  0.0927  0.4758
58305W        W 1218  11.690  19.942   8.517  0.0543  0.3124  0.2355
58306W        W 1219  18.726  19.260   3.034  0.0452  0.1093 -0.3898
58307W        W 1220   8.225  10.102  25.103 -0.0639  0.1841  0.1592
58308W        W 1221  25.168  17.892   3.143 -0.0409 -0.2761 -0.2633
58309W        W 1222  23.416  13.917   7.993 -0.2426 -0.0689 -0.0834
58310W        W 1223  12.980   9.943   2.222  0.0288  0.1086  0.0753
58311W        W 1224   5.827  24.801  18.190  0.2449 -0.0426 -0.2396
58312W        W 1225   9.930  22.606  18.865 -0.1814  0.1726 -0.3959
58313W        W 1226  21.679  19.151  22.171 -0.0005  0.1911 -0.1923
58314W        W 1227  11.176  12.522  21.791  0.2091  0.1298 -0.0287
58315W        W 1228  33.245  24.642  20.383 -0.2759  0.0102 -0.2324
58316W        W 1229  17.970  14.027  26.392 -0.3276  0.0472 -0.1981
58317W        W 1230  11.193   5.836  27.389 -0.0439 -0.2250 -0.0090
58318W        W 1231   8.622   7.638   4.979  0.1803 -0.0174 -0.0972
58319W        W 1232  14.420  29.405  26.654  0.0554  0.4637  0.1045
58320W        W 1233  25.142  18.835  24.836  0.0023  0.2954  0.1152
58321W        W 1234  18.108   7.870   7.763 -0.1151 -0.0341 -0.1359
58322W        W 1235  13.355  25.411   0.114 -0.1220  0.3486 -0.0714
58323W        W 1236   5.222  20.769   6.762 -0.1917 -0.1867  0.3206
58324W        W 1237  10.868  18.352   7.937 -0.1072 -0.1845  0.1771
58325W        W 1238   2.432  18.767   3.863  0.0564 -0.2909  0.0960
58326W        W 1239  13.254  16.863  18.162  0.4324 -0.4629 -0.0270
58327W        W 1240  15.637   9.109  28.849 -0.4208  0.0734 -0.1635
58328W        W 1241  21.086   9.444  22.716  0.3212 -0.2527 -0.0521
58329W        W 1242  19.100   9.746  12.499  0.0626  0.1367 -0.0133
58330W        W 1243  22.614  19.336   0.355 -0.1618  0.2692 -0.2038
58331W        W 1244  10.557  30.125   0.564 -0.2059 -0.2548  0.0308
58332W        W 1245  10.268   9.708  25.359 -0.1893  0.0985 -0.1563
58333W        W 1246  12.420  21.284  21.636 -0.0844  0.1676  0.3226
58334W        W 1247  32.923  32.049   4.125 -0.1262 -0.1708 -0.1832
58335W        W 1248  10.684  14.169  23.995 -0.2130  0.0369  0.0686
58336W        W 1249   5.619  19.040   0.426  0.1298  0.0484 -0.0235
58337W        W 1250   8.625  12.937  27.763  0.0775 -0.6216 -0.0882
58338W        W 1251  11.761  16.686  25.633  0.1642  0.1928  0.1286
58339W        W 1252  18.185  12.882  15.231 -0.1075 -0.1430 -0.0973
58340W        W 1253  12.210  15.279  19.742  0.1137  0.0193  0.1053
58341W        W 1254  10.954  14.670  14.572 -0.2928  0.0230 -0.3031
58342W        W 1255  20.641  11.751  19.147  0.1654  0.3892 -0.3653
58343W        W 1256   8.861  17.778  18.800  0.3042  0.0717 -0.2362
58344W        W 1257   8.479  12.064  14.691  0.3914  0.2564 -0.4285
58345W        W 1258   7.422  19.340  13.016  0.1978 -0.0368  0.0654
58346W        W 1259   7.404  15.407  15.797 -0.1458 -0.0415 -0.0096
58347W        W 1260  16.172  22.302  16.454 -0.0758 -0.3467  0.3287
58348W        W 1261  17.886  14.382  12.232  0.0084 -0.3393  0.2621
58349W        W 1262  16.550  24.042  17.077  0.1117  0.0357 -0.0961
58350W        W 1263   6.087  12.063  20.542  0.2725 -0.0953  0.0653
58351W        W 1264   2.833   2.248  18.840  0.0838 -0.1559  0.2242
58352W        W 1265   5.892   4.060  20.714  0.0371  0.0004 -0.1553
58353W        W 1266  32.616  10.717  16.647 -0.0244  0.2529  0.1905
58354W        W 1267  13.621  12.327  25.423 -0.1737 -0.0216  0.1462
58355W        W 1268   6.505  10.498  21.013 -0.1466  0.3252 -0.1752
58356W        W 1269   6.438  17.370  19.470 -0.0125  0.0639 -0.2637
58357W        W 1270   8.681  22.303  20.207 -0.1061 -0.0341  0.1636
58358W        W 1271  20.422  16.003  15.317  0.1988 -0.3173 -0.2997
58359W        W 1272  12.535   9.999  26.149 -0.1485  0.2689  0.1006
58360W        W 1273  21.987   8.415  13.667  0.1346  0.0220 -0.2526
58361W        W 1274  16.947  24.123  12.912 -0.1097  0.0157 -0.2609
58362W        W 1275  13.742  15.151  21.306  0.2169 -0.1077  0.1690
58363W        W 1276  16.087  11.281  14.522  0.1516  0.0342  0.1688
58364W        W 1277   2.121  19.856  25.666 -0.0523 -0.2432 -0.0791
58365W        W 1278  13.157  10.747  20.498 -0.0394 -0.1316  0.2613
58366W        W 1279   4.847  15.458  17.956 -0.2421 -0.0298 -0.3148
58367W        W 1280  19.676  19.415  13.624 -0.0973  0.1898  0.3583
58368W        W 1281  12.155  21.186  18.973  0.0459  0.0707 -0.1719
58369W        W 1282  14.386   8.640  15.382 -0.0987 -0.1353 -0.1273
58370W        W 1283   6.250  17.051  26.618  0.0406  0.2695 -0.0947
58371W        W 1284  12.578  15.216  20.365 -0.2032 -0.0098 -0.0771
58372W        W 1285  24.565  21.313  28.559  0.1057  0.1519  0.2136
58373W        W 1286  21.225  23.497  14.013 -0.0036 -0.2031 -0.1131
58374W        W 1287  12.207  14.802  18.881  0.0467  0.0665 -0.1101
58375W        W 1288   8.690  15.737  23.497  0.0784  0.2847  0.4719
58376W        W 1289  16.425  12.160  16.869  0.0540 -0.1939  0.0893
58377W        W 1290   4.080  15.348  16.139  0.2234  0.0000  0.1450
58378W        W 1291   3.703  14.023  15.686  0.1301 -0.1830 -0.2248
58379W        W 1292   5.683  20.502  19.293 -0.1569  0.2230  0.1177
58380W        W 1293   9.811  10.323  16.401  0.2466  0.0803 -0.1678
58381W        W 1294  17.263  11.899  14.083 -0.1632  0.0253 -0.1626
58382W        W 1295  20.887   4.835  23.370  0.0198  0.0451 -0.1435
58383W        W 1296  13.936  21.698  15.167 -0.0996 -0.0186  0.1307
58384W        W 1297  14.725  15.151  24.811 -0.0481 -0.2704  0.2527
58385W        W 1298   6.678  17.029  14.927  0.3159  0.1918  0.3850
58386W        W 1299  13.366  30.118  21.500  0.2225  0.0056  0.4785
58387W        W 1300  19.299   9.803  17.973 -0.0176  0.1001  0.1056
58388W        W 1301   6.831  18.222  18.643  0.0642 -0.0891  0.0982
58389W        W 1302  15.168  19.954  15.285 -0.0114 -0.1079  0.0573
58390W        W 1303   7.049  22.340  22.200  0.1982  0.0544  0.0132
58391W        W 1304   9.422  16.392  18.005  0.1025 -0.1523 -0.0136
58392W        W 1305  18.212   8.695  23.022  0.1718 -0.0654  0.1088
58393W        W 1306  13.387  18.788  13.459  0.2367 -0.2811  0.1354
58394W        W 1307   7.983  18.268  17.926 -0.2314  0.2605 -0.1353
58395W        W 1308   6.294  20.068  19.943  0.3201  0.2969  0.1637
58396W        W 1309  13.845  24.921  22.256 -0.0325 -0.0810  0.1189
58397W        W 1310  13.816  22.094  19.984 -0.1078  0.1886  0.2044
58398W        W 1311  20.507  22.215  14.133  0.4333  0.0070 -0.0075
58399W        W 1312  17.787  11.132  19.954 -0.1260 -0.0145 -0.0763
58400W        W 1313  10.264  13.802  22.551  0.1909  0.0669  0.3609
58401W        W 1314  20.842  20.710  14.984 -0.0551 -0.1551 -0.3953
58402W        W 1315  12.713   7.011  15.426  0.1256 -0.0274 -0.0462
58403W        W 1316  24.577  19.036  14.286  0.0262  0.2329  0.2418
58404W        W 1317  13.907  23.564  14.011 -0.1482 -0.5037  0.0544
58405W        W 1318   7.705  15.641  22.460 -0.0730  0.1935  0.4291
58406W        W 1319  25.034  11.937  17.651  0.2065 -0.3989 -0.1151
58407W        W 1320  13.663  20.781  15.752  0.0870 -0.3713  0.0912
58408W        W 1321   2.726  21.906  18.860 -0.0550 -0.0497  0.3693
58409W        W 1322  25.517  16.497  17.510  0.0834 -0.2322 -0.2071
58410W        W 1323  24.080   3.635  20.315 -0.0291  0.1760  0.3393
58411W        W 1324  12.031  11.202  19.758  0.1688  0.0212 -0.1669
58412W        W 1325   0.387  14.027  18.545  0.0435  0.1507  0.1118
58413W        W 1326  16.550  25.593  19.470 -0.3544  0.1692  0.3819
58414W        W 1327  19.895  18.189  14.202 -0.0900 -0.2028  0.0714
58415W        W 1328  12.493  19.872  16.287 -0.1413 -0.0371 -0.0305
58416W        W 1329  20.575   9.255  20.762 -0.0564 -0.2588  0.2229
58417W        W 1330   8.037  20.886  14.214  0.3194 -0.0121 -0.0305
58418W        W 1331   5.568   9.491  21.012 -0.1358  0.0397  0.1469
58419W        W 1332  11.465   9.711  20.819 -0.4457 -0.1862  0.0537
58420W        W 1333  15.207  24.533  14.444 -0.0911 -0.1076  0.1155
58421W        W 1334   4.561  22.691  23.690 -0.0779  0.2682  0.0785
58422W        W 1335  15.013   8.996  22.171  0.0338 -0.1740  0.1882
58423W        W 1336  10.062  22.289  21.605  0.0715  0.1645  0.0442
58424W        W 1337  18.421   6.408  19.225 -0.0702 -0.4840 -0.5073
58425W        W 1338   6.265  18.734  22.007 -0.1405  0.1785  0.0811
58426W        W 1339  16.550  11.249  18.584  0.2011 -0.0692  0.1503
58427W        W 1340   3.794  25.883  22.610 -0.0062  0.0067  0.1558
58428W        W 1341  17.201  26.769  19.372 -0.1575 -0.1375  0.1039
58429W        W 1342  12.360  23.174  15.713  0.0721 -0.1180 -0.0453
58430W        W 1343   9.915  15.257  13.882  0.4086  0.0120 -0.0215
58431W        W 1344  13.976  12.864  14.322  0.0574  0.0721 -0.1193
58432W        W 1345  11.405  13.956  20.609  0.1520  0.1590  0.0869
58433W        W 1346  18.824  16.258  14.650 -0.0914 -0.0620 -0.0583
58434W        W 1347  31.816  19.661  22.892  0.0449 -0.1437 -0.0696
58435W        W 1348  11.123  12.911  22.171  0.0374 -0.3178  0.1973
58436W        W 1349   2.594  16.061  15.692 -0.4453  0.2837  0.1047
58437W        W 1350  23.506  15.282  19.680 -0.0227  0.3266 -0.0842
58438W        W 1351  10.176  11.228  18.930  0.0159 -0.0736  0.6834
58439W        W 1352  17.998  14.618  14.349 -0.0400  0.0143  0.0882
58440W        W 1353   9.168  17.444  15.532 -0.0626 -0.2318  0.1967
58441W        W 1354  25.176  18.187  16.528  0.2506 -0.0714  0.2822
58442W        W 1355  24.638  10.904  21.926 -0.1473  0.0921 -0.1044
58443W        W 1356  12.093  16.691  12.746  0.1174 -0.1025  0.1679
58444W        W 1357  15.179  15.798  13.795 -0.3835 -0.1179  0.1625
58445W        W 1358  12.515   7.900  20.453  0.2949 -0.1705 -0.0485
58446W        W 1359   1.761  17.250  14.215  0.0190  0.0878  0.1670
58447W        W 1360  19.101  25.898  27.094  0.0397  0.0977  0.2232
58448W        W 1361   5.018  22.833  22.994 -0.0480 -0.2400  0.0595
58449W        W 1362  11.812  21.692  13.595 -0.1009  0.0724 -0.0650
58450W        W 1363  21.348  21.451  12.565  0.0126 -0.2633 -0.0084
58451W        W 1364   7.189  13.669  16.114  0.1294  0.0996 -0.0980
58452W        W 1365  13.090  26.974  21.211 -0.2394 -0.2687  0.0613
58453W        W 1366  25.330  12.799  21.870  0.0364  0.0835  0.0698
58454W        W 1367   6.050  22.199  27.662  0.0418 -0.0132 -0.1358
58455W        W 1368  18.139  24.114  14.950  0.0816 -0.1623  0.0567
58456W        W 1369  19.612  20.403  15.511  0.1737  0.0931  0.0016
58457W        W 1370  11.223  14.050  15.275 -0.1276  0.2172 -0.0543
58458W        W 1371  11.073  27.483  28.135  0.0145  0.0037  0.2770
58459W        W 1372  15.671   8.295  16.684  0.0823  0.3476 -0.3295
58460W        W 1373  24.673  11.791  20.041 -0.0168 -0.1612  0.3255
58461W        W 1374   8.293  14.804  21.031 -0.3323 -0.2897  0.0628
58462W        W 1375  34.073  20.936  21.096  0.1632  0.0567 -0.0839
58463W        W 1376  15.658  20.489  12.777  0.0314 -0.1385 -0.1530
58464W        W 1377  10.678  13.408  14.426  0.1301 -0.0777  0.4100
58465W        W 1378  17.795  11.423  21.504 -0.2526  0.0401 -0.0892
58466W        W 1379   4.214  17.082  17.075 -0.0356  0.1435 -0.0867
58467W        W 1380   8.954   8.464  19.316 -0.0866  0.1401  0.3151
58468W        W 1381   4.260  18.453  16.358 -0.0329 -0.0502  0.0270
58469W        W 1382  12.811  18.696  19.436 -0.1281 -0.1667 -0.1451
58470W        W 1383  10.104  20.775  14.861  0.2816 -0.0305  0.0612
58471W        W 1384   6.862  22.157  26.997 -0.2564 -0.0406  0.2284
58472W        W 1385  15.490  20.735  15.965 -0.0254  0.0362  0.1931
58473W        W 1386  14.458   2.243  26.613 -0.0971 -0.2845 -0.2101
58474W        W 1387  15.229  16.275  12.998 -0.2690 -0.0427  0.1354
58475W        W 1388  21.710  18.793  12.591  0.0575  0.3438 -0.2313
58476W        W 1389   7.806  16.880  19.938 -0.2273  0.2193 -0.0273
58477W        W 1390  23.024  21.158  21.801  0.2207 -0.1126  0.0428
58478W        W 1391   4.746  22.315  14.487 -0.2267  0.1279 -0.0419
58479W        W 1392  23.594  13.921  21.756  0.0952 -0.2825  0.1996
58480W        W 1393   9.786  11.243  20.528  0.0547  0.1672 -0.1567
58481W        W 1394  15.465  20.054  13.726 -0.2101 -0.0322  0.1233
58482W        W 1395  12.907  17.260  16.259 -0.0358  0.2161 -0.1010
58483W        W 1396  10.418  17.620  16.749  0.0274  0.2442  0.2053
58484W        W 1397  15.096  15.605  14.892  0.4265 -0.0100 -0.1337
58485W        W 1398   7.660  33.585  20.337 -0.1630  0.1325  0.3019
58486W        W 1399  34.202  15.464  15.050 -0.2092  0.2543 -0.0744
58487W        W 1400  17.410  11.847  15.310 -0.0661  0.0085 -0.1988
58488W        W 1401  13.359  18.886  22.413 -0.4589  0.0617  0.1536
58489W        W 1402   5.512  12.865  19.565 -0.0891 -0.0279 -0.2027
58490W        W 1403  14.618  15.163  14.549 -0.0237 -0.1237  0.0484
58491W        W 1404  19.410  13.881  15.249  0.0948 -0.4007  0.0044
58492W        W 1405   9.501  11.879  18.755 -0.0383  0.0175  0.2870
58493W        W 1406  20.292  17.309  13.513  0.1048  0.0316  0.2640
58494W        W 1407  15.386  23.599  18.950 -0.1441  0.1654  0.0690
58495W        W 1408  11.118  21.253  14.593 -0.2783  0.1907  0.3163
58496W        W 1409   1.576  15.868  14.995  0.1743  0.1679  0.2466
58497W        W 1410  14.016  14.688  16.942 -0.0363 -0.0048  0.2549
58498W        W 1411  11.011  14.811  21.771  0.1330 -0.1897  0.0121
58499W        W 1412   7.941  14.190  16.349  0.2271 -0.0809  0.2129
58500W        W 1413  13.261  18.050  15.771  0.3305  0.0984  0.1675
58501W        W 1414  19.146   7.924  18.300 -0.0483  0.0059  0.2693
58502W        W 1415  23.555   1.260  15.957 -0.1900  0.1159 -0.2804
58503W        W 1416  11.969  19.879  13.750 -0.2908  0.0728 -0.0696
58504W        W 1417  25.570  14.118  18.791  0.0042 -0.2543  0.0443
58505W        W 1418  22.174  18.229  15.102  0.0426 -0.3606  0.2079
58506W        W 1419   5.717  27.802  18.399 -0.0220 -0.3940  0.0535
58507W        W 1420  14.815   8.298  28.579 -0.2375 -0.2697  0.0427
58508W        W 1421  20.908   7.884  25.197 -0.1395 -0.5014  0.1715
58509W        W 1422  16.826   6.359  16.890 -0.2794  0.0046  0.6456
58510W        W 1423   4.680  10.353  20.226 -0.1313 -0.0600 -0.4070
58511W        W 1424  13.436  16.798  15.209 -0.0072 -0.1548  0.2849
58512W        W 1425   9.158  20.138  15.560  0.1319  0.1423 -0.1199
58513W        W 1426  22.930  26.689  18.963  0.1027  0.2456  0.0991
58514W        W 1427  20.087  14.202  14.677  0.3418  0.1348  0.3818
58515W        W 1428   4.120  15.627  27.260 -0.1269 -0.2301 -0.1480
58516W        W 1429  12.549  19.335  21.325  0.0941 -0.2371  0.1998
58517W        W 1430  12.849  21.073  18.275 -0.1667 -0.2191  0.1937
58518W        W 1431  10.237  17.906  20.593  0.2195 -0.1857 -0.0749
58519W        W 1432  17.407  22.635  19.834 -0.1125 -0.1498  0.0324
58520W        W 1433  17.051  24.332  15.081  0.0762  0.2423  0.1515
58521W        W 1434   4.178  10.586  17.048 -0.0466  0.1878  0.0152
58522W        W 1435  28.819  11.407  26.296 -0.0171 -0.0902 -0.1761
58523W        W 1436  15.659  13.769  16.636  0.1241 -0.2045  0.0449
58524W        W 1437   1.273   5.027  19.870  0.0387  0.3042 -0.3335
58525W        W 1438  13.028  16.814  13.111  0.1244  0.4204 -0.0157
58526W        W 1439   3.024  30.586  15.048  0.1708 -0.5324  0.1983
58527W        W 1440  15.593  25.756  15.720  0.1932 -0.2187  0.0259
58528W        W 1441   8.638  24.376  21.434  0.0277 -0.2977 -0.0092
58529W        W 1442  16.125  21.769  12.867 -0.1655  0.0910  0.0521
58530W        W 1443  13.603  11.324   3.082 -0.4489  0.0377 -0.0519
58531W        W 1444   6.562  25.539  16.483 -0.0623 -0.1453 -0.0629
58532W        W 1445  19.764  13.006  19.368  0.0036  0.0781  0.4015
58533W        W 1446  20.330   8.194  20.657 -0.1119 -0.1470  0.1183
58534W        W 1447  24.446  12.478  19.370  0.2280 -0.0753  0.1993
58535W        W 1448  13.459  19.650  12.700  0.0879 -0.2292 -0.1226
58536W        W 1449   8.383   8.151  17.982  0.0910  0.1669 -0.1162
58537W        W 1450  16.538  10.797  18.360  0.3821 -0.1281 -0.1392
58538W        W 1451  15.474   4.361  16.187  0.0164  0.0093 -0.2077
58539W        W 1452   6.071  19.683  18.230  0.1556 -0.1849 -0.0176
58540W        W 1453  24.344  22.301  19.865  0.4570  0.1747  0.0868
58541W        W 1454  18.718  11.496  14.303  0.1700  0.0438  0.1868
58542W        W 1455  13.113   6.395  19.169  0.2747 -0.2184  0.1775
58543W        W 1456  26.389  12.376  14.996 -0.1780  0.3405 -0.1678
58544W        W 1457   6.529  16.637  22.242  0.1669  0.1363 -0.4887
58545W        W 1458   7.697   7.564  18.055  0.1908  0.3983  0.0120
58546W        W 1459  18.189  12.439  13.153 -0.2105  0.1266 -0.1348
58547W        W 1460  13.243   8.657  18.812 -0.2991  0.0701  0.0759
58548W        W 1461  12.091  13.977  27.088 -0.1373 -0.2351  0.1792
58549W        W 1462  23.769  15.710  12.379 -0.0866 -0.2668  0.0478
58550W        W 1463  20.388  19.949  15.197  0.4389 -0.0497 -0.0512
58551W        W 1464   7.022  23.675  18.348 -0.1567 -0.0798  0.2987
58552W        W 1465  16.905  22.836  16.887 -0.2164  0.2807  0.0566
58553W        W 1466  15.107  18.938  12.564  0.1163 -0.2286  0.1986
58554W        W 1467   7.886   8.849  20.457 -0.0124 -0.0179  0.0914
58555W        W 1468   7.791  22.251  17.302 -0.1806 -0.1069  0.1197
58556W        W 1469  14.539  12.216  17.570  0.0295  0.2977  0.0201
58557W        W 1470  10.039  25.064  17.603 -0.3376 -0.2020  0.4426
58558W        W 1471  19.608  27.675  23.872  0.1330  0.1287 -0.0107
58559W        W 1472   7.910  10.222  26.903  0.1455 -0.2279  0.0275
58560W        W 1473  17.196   7.332  14.522  0.1387 -0.0799  0.1180
58561W        W 1474   3.248   6.459  18.135  0.0709 -0.0470 -0.2093
58562W        W 1475   7.729  19.842  16.773 -0.3044 -0.0623 -0.0672
58563W        W 1476   5.544   9.265  23.602 -0.4320  0.0652  0.3203
58564W        W 1477  24.249   9.689  22.886 -0.0169  0.1608 -0.0970
58565W        W 1478   9.261  16.088  15.238 -0.1294  0.2522 -0.0134
58566W        W 1479  18.631  11.204  15.156  0.1495  0.2144 -0.0520
58567W        W 1480  13.082  19.342  25.889  0.3675  0.0764 -0.2888
58568W        W 1481  15.050   9.082  14.618 -0.0054  0.1095  0.0689
58569W        W 1482  11.423  20.228  25.482 -0.1557  0.0036 -0.0658
58570W        W 1483   9.296  21.673  21.193  0.0824 -0.1398 -0.1599
58571W        W 1484   5.249  14.798  15.171 -0.3886 -0.2238 -0.0055
58572W        W 1485  12.445   8.563  22.942 -0.1822 -0.0262  0.2556
58573W        W 1486   4.088  16.812  17.599  0.0348 -0.1971  0.2061
58574W        W 1487  12.168  17.566  16.472  0.0803 -0.0435  0.0552
58575W        W 1488   4.453  18.848  15.023 -0.1860 -0.0106 -0.0597
58576W        W 1489   7.877  18.744  17.783  0.2184 -0.0051  0.0609
58577W        W 1490  22.176  14.611  15.250 -0.3334  0.3054  0.2726
58578W        W 1491   5.223   3.408  20.954  0.0907 -0.1170  0.0639
58579W        W 1492   4.940  12.982  14.338  0.1750  0.0770  0.1195
58580W        W 1493  19.458   8.286  14.693 -0.1508 -0.1098  0.1731
58581W        W 1494  19.541  15.206  12.956 -0.2395 -0.1339 -0.0355
58582W        W 1495  18.605  10.936  16.731  0.2384 -0.1279  0.0756
58583W        W 1496  20.265  27.353  16.377  0.0942 -0.2764 -0.1490
58584W        W 1497   9.989  22.248  25.892 -0.2110 -0.1754 -0.1956
58585W        W 1498   3.346  13.905  21.880 -0.0967  0.1479 -0.3552
58586W        W 1499  16.450  26.422  24.074  0.0669 -0.2153  0.0182
58587W        W 1500   5.574  18.674  14.699  0.2982 -0.1071 -0.3077
58588W        W 1501  19.816  22.688  14.171  0.4030 -0.1062  0.5464
58589W        W 1502   9.458  14.803  18.395  0.0074  0.0868  0.3002
58590W        W 1503   2.846  11.394  16.010  0.0818 -0.2502  0.1488
58591W        W 1504   3.674  24.734  21.703 -0.1384 -0.1389 -0.0008
58592W        W 1505   3.592  28.540  22.212 -0.0261 -0.2554  0.0545
58593W        W 1506  17.522  13.309  15.309 -0.3448  0.0538 -0.2290
58594W        W 1507  12.409  13.709  17.569  0.1599 -0.1880 -0.1348
58595W        W 1508   6.081  21.937  18.101 -0.2058 -0.0461 -0.1248
58596W        W 1509  25.351   4.980  21.558  0.3841 -0.2694  0.2055
58597W        W 1510  14.686  11.120  25.673  0.0104  0.0410 -0.1696
58598W        W 1511  12.485   9.276  21.876  0.0684  0.1272  0.0164
58599W        W 1512  12.540  15.240  22.158 -0.0760  0.2661 -0.1513
58600W        W 1513  29.597  21.733  19.468  0.0472  0.2135 -0.2545
58601W        W 1514   7.230  21.467  17.375 -0.3193  0.1154 -0.0689
58602W        W 1515  14.534  20.157  12.771  0.1318 -0.2627  0.0129
58603W        W 1516   2.848  11.715  15.205  0.0325  0.3655 -0.1788
58604W        W 1517  11.228  12.955  14.450 -0.0657 -0.1568  0.2326
58605W        W 1518  15.527   9.386  16.700  0.1864 -0.0563  0.0956
58606W        W 1519  19.535  20.573  16.788 -0.2142  0.2845 -0.1785
58607W        W 1520  12.728  15.330  12.803 -0.0442  0.1954  0.3312
58608W        W 1521  19.824  16.554  12.221 -0.1585 -0.0346  0.0948
58609W        W 1522  15.927  21.548  16.058  0.0654 -0.2130 -0.0250
58610W        W 1523  18.255  12.779  13.853 -0.0858  0.1596 -0.2354
58611W        W 1524  10.205  15.302  18.383  0.2754  0.2183  0.0375
58612W        W 1525  11.421  20.427  14.123 -0.0267 -0.0087 -0.0279
58613W        W 1526  10.977  17.707  17.047 -0.2048 -0.1767  0.1455
58614W        W 1527  11.266  17.909  16.127 -0.0326  0.2464  0.2949
58615W        W 1528   3.855  26.804  20.967 -0.1059 -0.2782  0.0174
58616W        W 1529  33.286  15.815  20.119  0.0415 -0.3055  0.0648
58617W        W 1530  22.005   9.581  23.559  0.1161  0.0265 -0.0317
58618W        W 1531   6.416  20.104  20.690 -0.0737  0.1744 -0.2594
58619W        W 1532  13.107  28.592  18.062 -0.2226  0.1435 -0.4983
58620W        W 1533  19.953  14.020  23.380  0.0498 -0.2007  0.1188
58621W        W 1534  14.053  13.256  17.133 -0.2836  0.0549  0.1949
58622W        W 1535  11.383  10.142  20.491  0.0225  0.0123  0.2889
58623W        W 1536  10.733  19.723  21.807 -0.1886  0.3349  0.1288
58624W        W 1537  10.293  28.274  18.330  0.1706  0.0467 -0.2140
58625W        W 1538  12.537  10.070  23.771  0.0490 -0.1782  0.1694
58626W        W 1539  14.357   9.600  25.483  0.0207 -0.0920 -0.0847
58627W        W 1540  12.511  18.879  20.108 -0.0610  0.2720 -0.2708
58628W        W 1541  15.736  22.446  16.722 -0.0487 -0.0955 -0.2750
58629W        W 1542  14.048  13.276  18.678 -0.0579  0.2184 -0.1754
58630W        W 1543  24.431  10.752  17.578  0.2699 -0.1350  0.2281
58631W        W 1544  19.520   8.505  16.185 -0.2129  0.0480 -0.0255
58632W        W 1545  16.597   5.834  19.046 -0.0747  0.2241  0.2301
58633W        W 1546  10.057  11.910  16.347  0.1123  0.2046 -0.4813
58634W        W 1547  20.474  18.913  13.651 -0.0738 -0.0868 -0.1770
58635W        W 1548   4.815  22.543  16.722 -0.0577  0.2540  0.1105
58636W        W 1549  13.979  12.553  23.819  0.0988  0.1543  0.2545
58637W        W 1550   5.831  19.759  20.728  0.3713  0.1479  0.2547
58638W        W 1551  13.616  17.143  16.733  0.0198  0.1963 -0.1304
58639W        W 1552  11.588  14.366  22.947 -0.1008  0.0817 -0.0227
58640W        W 1553  17.077   9.348  16.298  0.1505 -0.0109 -0.2687
58641W        W 1554  25.664  10.272  14.147 -0.0219 -0.3393 -0.0296
58642W        W 1555  18.969  12.698  15.101  0.1587  0.3777  0.0571
58643W        W 1556  14.516   8.075  15.659  0.2523  0.1605 -0.2111
58644W        W 1557   9.122  13.192  17.532 -0.0484  0.0175  0.1746
58645W        W 1558  18.038  18.964  15.495 -0.2470  0.3198 -0.0949
58646W        W 1559  10.525  15.741  24.448 -0.0205  0.0400  0.0775
58647W        W 1560  23.039  19.700  13.014 -0.0582  0.2196  0.1199
58648W        W 1561  18.123  22.309  18.766 -0.0057 -0.1394  0.2653
58649W        W 1562   0.923   1.650  22.148  0.3261 -0.2135  0.2013
58650W        W 1563   9.679  20.634  14.681  0.1848  0.0048  0.3186
58651W        W 1564  11.810  10.819  17.647 -0.2662 -0.2375 -0.1838
58652W        W 1565   2.426  20.051  16.489  0.1163  0.2253 -0.2782
58653W        W 1566  10.883  11.758  15.838 -0.0454 -0.1241  0.1015
58654W        W 1567  16.541  12.254  13.378  0.3916  0.0767  0.3743
58655W        W 1568  22.334  10.812  15.993 -0.1383 -0.2507 -0.1491
58656W        W 1569  19.449  20.404  13.902 -0.2096 -0.2341 -0.2105
58657W        W 1570  15.074  13.791  21.804 -0.2036  0.2061 -0.3047
58658W        W 1571   4.953  21.066  14.462 -0.4072  0.1952 -0.0302
58659W        W 1572  23.378  12.052  19.741 -0.2171 -0.3013 -0.0998
58660W        W 1573  19.623  12.546  15.267 -0.0457  0.0100  0.3806
58661W        W 1574  10.648  25.280  23.720  0.1817 -0.1241  0.0073
58662W        W 1575  10.408  20.817  12.497  0.1306 -0.0379 -0.2464
58663W        W 1576  22.316   8.612  21.934  0.0125  0.0855 -0.2654
58664W        W 1577   3.527  10.055  21.943 -0.0001 -0.3724 -0.1383
58665W        W 1578  26.920  22.398  21.173  0.0370  0.1359  0.0472
58666W        W 1579  19.484  16.632  11.813 -0.0297  0.1013  0.2091
58667W        W 1580  12.918  21.038  17.391 -0.0438 -0.0229 -0.1079
58668W        W 1581   8.720  24.768  22.590  0.4169 -0.0760 -0.2591
58669W        W 1582   7.852  20.111  18.291 -0.1445 -0.2197  0.1287
58670W        W 1583   7.928   7.498  20.270  0.0572 -0.1086  0.3179
58671W        W 1584  21.861  13.020  13.470 -0.0638 -0.2738 -0.1830
58672W        W 1585   3.917  16.602  21.266 -0.0808 -0.0443  0.0042
58673W        W 1586  23.122  30.990  18.710 -0.1984 -0.1094 -0.1320
58674W        W 1587  14.123  14.271  15.251 -0.2739  0.2134 -0.0139
58675W        W 1588   5.742  24.157  19.679 -0.0353 -0.5540  0.3560
58676W        W 1589   7.524  13.361  21.812  0.1288 -0.1263 -0.1254
58677W        W 1590  11.333  20.715  24.845  0.4023 -0.0792  0.2323
58678W        W 1591   7.110  25.031  20.824  0.2545  0.0383 -0.0536
58679W        W 1592  22.772  22.768  14.109  0.0885 -0.4030 -0.0169
58680W        W 1593  11.362  17.863  14.258  0.0969  0.1459  0.3503
58681W        W 1594   9.967  22.687  26.159 -0.0587  0.1605  0.2075
58682W        W 1595  11.010  14.681  16.192 -0.2480 -0.0431  0.1710
58683W        W 1596  22.747   7.152  23.133  0.3259 -0.4073  0.0399
58684W        W 1597  13.428   4.735  25.681  0.0643 -0.1684 -0.1845
58685W        W 1598  14.559  11.385  18.823  0.2111 -0.1250  0.0875
58686W        W 1599   3.585  17.598  15.723  0.1580 -0.1708  0.0276
58687W        W 1600   4.918  24.431  16.045  0.1496 -0.0889 -0.1084
58688W        W 1601   0.619  24.131  28.494 -0.0426  0.0804 -0.0511
58689W        W 1602   5.553   9.440  26.474  0.0791 -0.0890 -0.2151
58690W        W 1603  15.829  12.013  17.828  0.1020 -0.0493  0.1353
58691W        W 1604  20.009  20.534  14.458  0.3053 -0.1873  0.2474
58692W        W 1605   7.199  16.296  17.468 -0.2380  0.1348 -0.1279
58693W        W 1606  21.588   5.643  20.033  0.1279 -0.2508  0.1301
58694W        W 1607   4.557  17.538  17.066  0.2097  0.2976  0.0356
58695W        W 1608   8.134  16.025  18.394  0.2719  0.2614 -0.1474
58696W        W 1609  21.479   8.790  19.940 -0.0541 -0.0293 -0.3178
58697W        W 1610   6.077  13.533  21.825 -0.0365  0.1885  0.0490
58698W        W 1611  15.087  17.300  13.880 -0.1804 -0.3362 -0.1427
58699W        W 1612  12.316  11.637  23.631 -0.1684  0.0840 -0.3307
58700W        W 1613  10.013  15.948  25.251 -0.1705  0.2760  0.1687
58701W        W 1614  21.696  26.775  14.507 -0.3342  0.3902 -0.0971
58702W        W 1615  13.281  16.006  28.221  0.3182 -0.3276  0.0223
58703W        W 1616   8.989  15.857  17.103  0.4870  0.1278  0.0482
58704W        W 1617  21.409  20.609  18.823 -0.2105  0.0315 -0.1690
58705W        W 1618  24.456  19.826  16.887 -0.1942 -0.1309  0.0810
58706W        W 1619   8.720  17.056  16.860  0.1407  0.1157 -0.2188
58707W        W 1620  10.850   8.286  19.747 -0.0675 -0.2095 -0.0916
58708W        W 1621  13.514  24.264  21.905 -0.2374 -0.2744  0.0603
58709W        W 1622  14.410  11.314  15.329  0.0206 -0.0840 -0.1163
58710W        W 1623  16.321  12.450  16.357  0.2199  0.0729 -0.0682
58711W        W 1624  23.160   7.311  16.992 -0.3802 -0.2585  0.0797
58712W        W 1625   8.030  15.116  15.040 -0.0672 -0.2717  0.4302
58713W        W 1626  11.641  29.880  20.789  0.2574 -0.0099  0.0500
58714W        W 1627   6.006  13.526  25.468 -0.0576  0.3076 -0.0264
58715W        W 1628  32.067   9.255  23.444 -0.0567  0.0116 -0.1170
58716W        W 1629  14.490  16.021  15.397  0.1122  0.0081  0.3403
58717W        W 1630  17.052  12.411  17.939 -0.0941  0.0981 -0.2487
58718W        W 1631   1.869  13.504  19.293 -0.1106  0.3108  0.0404
58719W        W 1632   7.353  21.128  13.257  0.0791 -0.0328  0.1002
58720W        W 1633   9.531  12.657  20.792  0.0247  0.1079  0.0595
58721W        W 1634  14.460   9.832  16.502  0.2839 -0.1010 -0.0896
58722W        W 1635  12.891  16.399  19.521  0.1895  0.0561  0.0979
58723W        W 1636  16.204  27.021  18.875  0.1420  0.0780 -0.1067
58724W        W 1637   2.172  14.667  21.389  0.2000 -0.0985  0.0087
58725W        W 1638  22.984  11.460  13.945 -0.1360  0.2250  0.1184
58726W        W 1639  13.016   7.385  23.567  0.1546 -0.1947 -0.1076
58727W        W 1640  20.971  23.253  15.305 -0.2701 -0.2748  0.4702
58728W        W 1641  17.245  12.747  15.651 -0.1864 -0.3474  0.1573
58729W        W 1642  15.386  13.582  13.413  0.1496 -0.0276  0.1072
58730W        W 1643  20.351  22.642  14.925 -0.4252  0.1722  0.0051
58731W        W 1644  26.144   7.156  14.446 -0.1122  0.1771  0.1361
58732W        W 1645  22.094  17.746  13.454  0.0165  0.0223  0.4948
58733W        W 1646   8.530  21.434  20.777  0.0273 -0.1187  0.0881
58734W        W 1647  17.667  11.079  12.720 -0.2961  0.1523  0.1055
58735W        W 1648   9.108  25.570  19.282  0.1301 -0.1187 -0.5084
58736W        W 1649  13.953  13.082  12.454 -0.2224  0.2237  0.2362
58737W        W 1650  21.134  17.339  13.800  0.1190 -0.1491 -0.0619
58738W        W 1651   6.228  15.039  16.179 -0.2171 -0.1533  0.0176
58739W        W 1652   4.149  21.610  18.366  0.2222 -0.0774  0.0338
58740W        W 1653  14.233  14.764  17.508  0.3037  0.0849 -0.0703
58741W        W 1654  18.218  12.728  20.148 -0.2113 -0.1340 -0.0515
58742W        W 1655  19.070  13.883  14.503  0.1146 -0.0216  0.1414
58743W        W 1656  16.589   8.597  20.469 -0.0019  0.1425  0.2013
58744W        W 1657   8.422  18.375  16.539 -0.0027 -0.0756 -0.0475
58745W        W 1658  11.037   8.190  21.216  0.1118 -0.3509 -0.1682
58746W        W 1659   9.504  24.948  26.287  0.0102  0.0046 -0.0061
58747W        W 1660   7.179  24.533  19.802  0.0190 -0.0783  0.2341
58748W        W 1661  21.666  13.384  20.442  0.3209  0.3383  0.0277
58749W        W 1662   7.255  11.814  29.502  0.2448 -0.0771 -0.0628
58750W        W 1663  14.656  11.699  15.044  0.0114  0.0314  0.2533
58751W        W 1664  13.381  17.250  16.320  0.1967 -0.2528 -0.0301
58752W        W 1665   5.289   9.224  24.262 -0.1559 -0.1278  0.1268
58753W        W 1666  16.925   9.824  28.043  0.0546  0.0995 -0.4164
58754W        W 1667   9.724  13.184  25.680  0.1455 -0.0290 -0.1405
58755W        W 1668   5.458  13.608  29.489  0.0616  0.1746  0.1673
58756W        W 1669   6.057   8.154  19.970  0.0973  0.1615 -0.0968
58757W        W 1670   2.900  10.826  17.346 -0.2753 -0.1524  0.2477
58758W        W 1671   3.594  15.985  17.570  0.0881  0.1744  0.0277
58759W        W 1672   5.049  24.504  21.311 -0.1530 -0.0053 -0.2647
58760W        W 1673  11.901  22.409  15.848  0.1627 -0.1039  0.0471
58761W        W 1674  17.307   7.834  13.593  0.0245  0.0408  0.4695
58762W        W 1675   9.932  13.019  14.877 -0.0120  0.0584 -0.0558
58763W        W 1676  12.363  26.459  15.960 -0.0480  0.1839  0.1305
58764W        W 1677  11.270  21.311  16.393 -0.0926  0.1956  0.1529
58765W        W 1678   6.956  22.711  13.504 -0.1877 -0.1675 -0.2563
58766W        W 1679  22.731  13.980  21.322  0.0922 -0.1590 -0.2967
58767W        W 1680  17.955  21.528  17.976  0.1925  0.1778 -0.1400
58768W        W 1681  24.403  16.187  18.723 -0.0751  0.1331  0.0669
58769W        W 1682  14.928   4.045  20.804  0.2337  0.3588 -0.0105
58770W        W 1683  22.307  17.591  16.693 -0.2643  0.3620 -0.0317
58771W        W 1684   4.326  25.237  22.716 -0.1606 -0.2249  0.0072
58772W        W 1685   9.515  17.370  14.668 -0.2990  0.2135  0.0814
58773W        W 1686   3.333  25.193  20.956  0.1745  0.1265  0.1239
58774W        W 1687  12.646  19.952  14.243  0.0984 -0.0192  0.0300
58775W        W 1688  14.516   9.752  24.455 -0.0456  0.0357  0.3252
58776W        W 1689   4.601  19.567  28.351 -0.1703  0.1526  0.1657
58777W        W 1690  22.897  17.254  15.171 -0.2223  0.0624 -0.0555
58778W        W 1691  10.357  29.855  15.915 -0.3364 -0.1360 -0.4266
58779W        W 1692   7.243  11.321  29.744 -0.2298  0.1080  0.1522
58780W        W 1693  12.936  18.068  13.881  0.3027 -0.0740  0.2664
58781W        W 1694  13.010   8.656  14.762  0.0536 -0.1837 -0.2247
58782W        W 1695  20.242  19.129  13.267 -0.2109 -0.0866 -0.1669
58783W        W 1696  19.248  21.098  13.401 -0.2019  0.5517 -0.2911
58784W        W 1697   8.286  27.786  22.673 -0.0012 -0.0143 -0.2557
58785W        W 1698  17.191  26.343  25.101  0.1354 -0.0988  0.0425
58786W        W 1699   9.740  14.934  14.268  0.3183 -0.0982  0.1841
58787W        W 1700  13.206  19.974  14.095  0.2791  0.3014 -0.2918
58788W        W 1701  11.810  25.455  20.030  0.0288  0.1769 -0.0472
58789W        W 1702  16.741  16.920  12.398 -0.0716 -0.1767  0.0600
58790W        W 1703   9.156  21.700  22.252  0.1183  0.3401 -0.1496
58791W        W 1704  14.730   1.346  24.019  0.0137 -0.0132 -0.2452
58792W        W 1705   0.518  12.591  16.358 -0.2100  0.2478  0.0366
58793W        W 1706  17.635  12.628  12.964 -0.1244 -0.4049 -0.1625
58794W        W 1707  11.677  21.425  16.868  0.4079 -0.3279 -0.0025
58795W        W 1708   8.764  12.318  16.064  0.0492  0.0900  0.5076
58796W        W 1709  11.591  23.132  17.807  0.0261 -0.1586 -0.2226
58797W        W 1710  23.068  11.641  13.501 -0.2062 -0.3493 -0.0347
58798W        W 1711  12.031  23.054  19.079 -0.2097  0.0098 -0.0540
58799W        W 1712  10.664  22.930   0.695  0.1252 -0.2030 -0.1190
58800W        W 1713  34.209  14.598  14.962 -0.0022  0.1357  0.1817
58801W        W 1714  18.954  26.146  14.802  0.1855  0.1728  0.0274
58802W        W 1715  13.982  20.741  14.747  0.1341 -0.0200 -0.3176
58803W        W 1716  12.644   6.316  24.519  0.3662  0.0970 -0.0161
58804W        W 1717   9.588   7.036  17.710  0.0548 -0.4852 -0.0110
58805W        W 1718   9.619  12.498  22.398  0.2360  0.2398  0.3137
58806W        W 1719  12.924   8.710  16.938 -0.0785 -0.0673 -0.1080
58807W        W 1720  10.764  10.464   0.050  0.1523 -0.0850 -0.0617
58808W        W 1721  10.556   7.281   3.885  0.0113 -0.1600  0.0702
58809W        W 1722  16.039  25.374  27.319 -0.1249 -0.0302 -0.0532
58810W        W 1723   8.699  20.404  20.217  0.1337 -0.0155  0.1827
58811W        W 1724  12.549  19.367  20.344  0.0073 -0.3420 -0.1218
58812W        W 1725  11.702  15.342  12.624  0.1975 -0.5516 -0.0640
58813W        W 1726  13.219  16.412  18.429  0.1344  0.0155 -0.1004
58814W        W 1727   4.052  20.703  16.298  0.2796 -0.0076 -0.2223
58815W        W 1728   6.362  23.633  17.475 -0.2083  0.0431 -0.0453
58816W        W 1729  34.465  22.397  22.766 -0.2167  0.2204 -0.3330
58817W        W 1730  20.063  13.475  17.184 -0.1085  0.2840 -0.0867
58818W        W 1731   8.089  15.942  29.036 -0.3569  0.1775 -0.0111
58819W        W 1732  11.032  12.567  25.034 -0.1798 -0.1423  0.2158
58820W        W 1733  22.078  22.767  11.949  0.0915 -0.1728  0.2491
58821W        W 1734   7.859  17.132  17.416 -0.2209 -0.1200 -0.3098
58822W        W 1735  16.291  18.396  14.452 -0.2581  0.1565 -0.4023
58823W        W 1736  13.110  21.004  13.415 -0.3023 -0.3567  0.1983
58824W        W 1737  21.398  20.842  25.226  0.2292  0.4431  0.0043
58825W        W 1738  14.965   5.480  21.008 -0.1749 -0.0448 -0.0906
58826W        W 1739  22.736  13.448  23.250 -0.0757  0.1716 -0.1297
58827W        W 1740  13.795  22.386  15.159 -0.2258  0.1438  0.3936
58828W        W 1741   8.102  23.224  22.132 -0.2764  0.0227 -0.1636
58829W        W 1742  22.140  27.220  22.748  0.2710 -0.1414  0.1092
58830W        W 1743  12.952   5.983  28.591  0.0365  0.2594 -0.0055
58831W        W 1744   7.398   6.324  18.089  0.1888 -0.1471 -0.2437
58832W        W 1745  19.069  21.297  14.186 -0.0007 -0.1792  0.1721
58833W        W 1746   7.564   9.084  22.034 -0.1400  0.2132 -0.1221
58834W        W 1747  10.661  14.740   2.726 -0.1282 -0.0274 -0.2468
58835W        W 1748  13.733  18.107  16.831  0.0415  0.0678  0.1569
58836W        W 1749   5.785  15.388  15.004 -0.0385  0.0644  0.0069
58837W        W 1750  18.531  20.958  15.586 -0.1346 -0.0101 -0.2856
58838W        W 1751  10.615   5.821  23.358  0.2899 -0.0829  0.0676
58839W        W 1752   5.067  13.432  19.111 -0.2577  0.1623  0.6228
58840W        W 1753   2.301  21.045  16.144  0.0807 -0.2393 -0.0621
58841W        W 1754  11.522  18.728  16.433 -0.1829 -0.2768  0.4254
58842W        W 1755  23.179  18.341  13.511  0.1293 -0.3410  0.1108
58843W        W 1756  22.218  14.986  16.750  0.3132 -0.0087  0.3151
58844W        W 1757   3.533  13.914  21.047  0.0205  0.1904  0.0098
58845W        W 1758   7.035  14.421  14.763  0.0577 -0.0484 -0.0514
58846W        W 1759   5.322  21.754  18.754  0.1421  0.0570 -0.3451
58847W        W 1760  15.756  24.889  28.345  0.3190 -0.2657 -0.1695
58848W        W 1761   7.918  12.874  16.108 -0.3107 -0.0109 -0.2000
58849W        W 1762   7.119  11.589  19.764 -0.2178  0.1343  0.4249
58850W        W 1763   8.539  16.467  21.975  0.0597  0.3179 -0.0292
58851W        W 1764  12.556   0.287  20.773  0.1431  0.1501  0.0115
58852W        W 1765  15.615   0.582   0.633 -0.0761 -0.3773  0.0697
58853W        W 1766  22.621  23.787  16.414 -0.0073 -0.1942 -0.2510
58854W        W 1767  16.974  23.200  19.187  0.1120 -0.0014 -0.1233
58855W        W 1768  13.934   2.042  22.125 -0.0338 -0.1249 -0.0504
58856W        W 1769   2.186  11.693  17.470  0.0403  0.2228  0.0318
58857W        W 1770  10.255  13.209  21.780  0.3552  0.2267  0.1287
58858W        W 1771   8.476  15.453  16.299  0.0643  0.1086 -0.0319
58859W        W 1772  15.396  13.402  17.172  0.0266 -0.3928  0.2412
58860W        W 1773  18.047   7.613  15.719 -0.0684 -0.0340 -0.0827
58861W        W 1774  33.495  19.912   1.670 -0.1221  0.3303 -0.1767
58862W        W 1775   6.575  23.708  21.113  0.0746 -0.3153  0.0605
58863W        W 1776  22.617  12.119  16.783 -0.1995 -0.1816 -0.0338
58864W        W 1777  14.577  27.090  22.882 -0.1122  0.1675  0.0311
58865W        W 1778  14.713  21.927  28.830  0.2204 -0.0225  0.2009
58866W        W 1779  11.501  10.702  16.504 -0.1030 -0.2902 -0.2275
58867W        W 1780  10.492   9.212  17.325  0.4234  0.2120 -0.1914
58868W        W 1781  15.119   4.739  25.757  0.0011  0.4039 -0.0938
58869W        W 1782  11.432  14.079  21.114  0.4327  0.2400  0.0431
58870W        W 1783   9.536  16.517  16.864 -0.0557 -0.1825 -0.0465
58871W        W 1784   7.267  20.940  27.277  0.1402  0.2104 -0.2510
58872W        W 1785   6.948  10.782   1.825  0.0367  0.0317  0.1738
58873W        W 1786  14.620  20.362  17.282 -0.0117 -0.0856  0.2114
58874W        W 1787  13.423  11.243  15.195 -0.0335 -0.0472 -0.1532
58875W        W 1788  29.213  15.729  14.236 -0.1832 -0.1205 -0.1051
58876W        W 1789   8.508   9.723  25.491 -0.0718 -0.2094  0.2658
58877W        W 1790  13.710  20.153  19.253  0.0216 -0.0594  0.1178
58878W        W 1791   9.794   7.483  19.360 -0.2213  0.2347 -0.1195
58879W        W 1792   8.687   6.820  24.345  0.0844  0.3676  0.0933
58880W        W 1793  15.587  15.190  12.498 -0.3156 -0.0372  0.0396
58881W        W 1794   8.913  19.429  13.433  0.0154 -0.0799 -0.0738
58882W        W 1795   6.102   3.623  17.460 -0.0481  0.3211  0.1404
58883W        W 1796  21.444  14.046  12.244 -0.1313  0.0411  0.2714
58884W        W 1797  16.113  13.777  13.671 -0.2397  0.0726 -0.0943
58885W        W 1798   4.652  12.162  20.500 -0.0171  0.1297 -0.0458
58886W        W 1799  22.967  28.374  19.555  0.2255  0.2120 -0.0254
58887W        W 1800   2.357   6.411  26.873  0.0414  0.3202  0.1710
58888W        W 1801  20.028  14.771  14.144 -0.0681 -0.2600  0.0882
58889W        W 1802  11.597   5.158  20.315  0.4550 -0.3016 -0.1529
58890W        W 1803   6.217  20.251  24.047  0.0329 -0.0088  0.1409
58891W        W 1804   7.914  16.492   3.582 -0.0098 -0.0941 -0.3631
58892W        W 1805  17.838   4.999  20.201 -0.0896  0.1452  0.1802
58893W        W 1806  24.383  19.250  21.224  0.3193  0.1753 -0.0190
58894W        W 1807  10.426   7.817  22.849 -0.0644  0.0691 -0.0139
58895W        W 1808  15.785  33.668  18.390  0.1082 -0.2713  0.1031
58896W        W 1809   8.414  21.172  14.065  0.0738 -0.3047  0.1769
58897W        W 1810  18.723  14.254  14.371 -0.0244 -0.1583 -0.1242
58898W        W 1811  13.918   7.104  18.161  0.0518  0.1606 -0.2086
58899W        W 1812  14.251  15.544  22.426  0.0839 -0.1118 -0.0609
58900W        W 1813  15.141  23.970  17.841  0.0713 -0.0920 -0.0679
58901W        W 1814  13.412  22.786  22.535  0.0695  0.2507 -0.3422
58902W        W 1815  13.218  21.599  20.062  0.3416 -0.0413  0.2604
58903W        W 1816  10.379  19.762  14.170  0.0558 -0.2348 -0.0432
58904W        W 1817   2.772  25.453  24.518 -0.3108  0.1288  0.1175
58905W        W 1818  11.674  19.224  20.104 -0.1168  0.4470 -0.1799
58906W        W 1819  17.919  20.043  12.506  0.1610 -0.1117 -0.0148
58907W        W 1820   2.087  24.206  17.970 -0.0528  0.3306  0.2012
58908W        W 1821  21.340  25.167  19.041  0.0110  0.0537  0.0602
58909W        W 1822  12.438  19.597  23.199 -0.0318  0.0373 -0.0052
58910W        W 1823  22.415  17.855  20.841 -0.0788 -0.1419 -0.3651
58911W        W 1824   9.584   9.935  24.119 -0.0629 -0.0957  0.0244
58912W        W 1825  26.795   8.119  22.607 -0.0840  0.0894 -0.1663
58913W        W 1826  27.247  33.758  17.807  0.3030 -0.1481 -0.0571
58914W        W 1827  22.061  11.708  14.935 -0.0076  0.1818  0.2452
58915W        W 1828   3.793   6.685  19.953  0.6258  0.2185 -0.1230
58916W        W 1829   4.938  13.429  19.600  0.1342 -0.4083 -0.1413
58917W        W 1830  26.091   6.369  21.570  0.5080 -0.1717  0.0338
58918W        W 1831  15.485  17.450  13.606 -0.5747  0.0938  0.0410
58919W        W 1832   6.883  27.261  23.918  0.0227  0.1676  0.0387
58920W        W 1833   1.356  17.067  26.380 -0.3101  0.1100  0.4707
58921W        W 1834  12.044   6.834  18.042 -0.0418  0.0167  0.2912
58922W        W 1835  12.745  10.800  22.167 -0.0973  0.0729 -0.1185
58923W        W 1836  15.258   6.139  19.458 -0.0159  0.1398  0.1362
58924W        W 1837  34.306  23.263  24.621 -0.1724  0.2019  0.2358
58925W        W 1838  29.655  18.498  22.207 -0.2652  0.0997  0.5046
58926W        W 1839   7.289  17.147  22.749  0.3795 -0.2438  0.1264
58927W        W 1840   9.685  15.684  14.794  0.0655  0.1948  0.1798
58928W        W 1841   7.116  16.807  24.341  0.1112  0.2142  0.0206
58929W        W 1842  10.237  20.768   3.682  0.3346  0.2442 -0.2299
58930W        W 1843   9.726  16.133  21.936 -0.0674  0.0119  0.0503
58931W        W 1844  15.072  20.662  14.279 -0.2149  0.2342  0.2341
58932W        W 1845   6.827  15.601   1.771 -0.1452  0.0178 -0.0348
58933W        W 1846   7.071  10.821  15.920 -0.0129 -0.1202  0.0741
58934W        W 1847  14.862   3.647  26.547  0.0231 -0.3038 -0.1679
58935W        W 1848  16.226   6.780  27.349  0.0834 -0.2780  0.1599
58936W        W 1849  10.489  16.571  25.005  0.1064 -0.1852  0.3505
58937W        W 1850   8.795  21.290  27.308 -0.3972 -0.0534 -0.3622
58938W        W 1851  17.939  14.165  14.602  0.0653 -0.1611 -0.5318
58939W        W 1852   6.466  16.122  18.682 -0.3406  0.2343  0.3564
58940W        W 1853   7.700  23.231  14.867 -0.3218  0.2621  0.3828
58941W        W 1854  16.808   8.460  13.781 -0.1205  0.1350  0.3033
58942W        W 1855   9.158  11.522  23.873  0.2760 -0.1511 -0.1079
58943W        W 1856  14.245  14.702  26.703 -0.1846 -0.0063 -0.3439
58944W        W 1857   9.558  23.950  15.493 -0.1001 -0.0544 -0.1705
58945W        W 1858  16.025   6.538  15.348  0.1128 -0.0058 -0.0231
58946W        W 1859  20.834   9.998  18.374  0.2284  0.1241 -0.1300
58947W        W 1860  19.079  11.588  17.956  0.0130 -0.0308 -0.0170
58948W        W 1861   3.184  21.350  26.867 -0.1973  0.0634 -0.1444
58949W        W 1862  14.690  11.189  23.162  0.1773 -0.1029 -0.3906
58950W        W 1863  10.089   6.694  17.776  0.1635  0.1053 -0.1890
58951W        W 1864  15.045   8.870  24.089 -0.0437 -0.0205 -0.0076
58952W        W 1865  19.313  11.472  20.208  0.0607  0.3291  0.1031
58953W        W 1866   9.670  20.587  16.364  0.0791  0.0872  0.1772
58954W        W 1867  12.343  14.002  14.538 -0.3577  0.1920  0.0231
58955W        W 1868  22.782  11.029  17.307  0.0767  0.2832  0.2686
58956W        W 1869  15.115   8.941  21.079 -0.3390  0.3699 -0.1161
58957W        W 1870  11.873  16.687  22.086  0.1117  0.0557  0.0435
58958W        W 1871   9.863   6.567  17.241 -0.3211  0.1334  0.2244
58959W        W 1872  22.946  14.734  13.253  0.2633  0.0007  0.4511
58960W        W 1873   5.175  16.441  23.369  0.0799  0.2774 -0.0495
58961W        W 1874   0.842   9.793  17.639  0.1011 -0.3928  0.4417
58962W        W 1875  12.272  23.473  17.323 -0.3335  0.1781 -0.3902
58963W        W 1876  14.443  21.107  21.063 -0.1234  0.2783 -0.2154
58964W        W 1877  13.855  13.981  17.658  0.3173 -0.1894 -0.1191
58965W        W 1878  16.518  27.991  15.440 -0.4219 -0.2179  0.3222
58966W        W 1879  10.957  16.977  13.557 -0.1184 -0.1775 -0.1666
58967W        W 1880  13.648   9.034  18.743 -0.2923  0.2894 -0.0554
58968W        W 1881  11.702   7.043  22.951  0.2113  0.1013 -0.2409
58969W        W 1882  21.619  11.925  21.938  0.1288  0.0708 -0.1833
58970W        W 1883  18.768  19.168  13.664 -0.0623 -0.1041  0.1196
58971W        W 1884   7.901  21.327  20.202  0.0766  0.1669 -0.2015
58972W        W 1885  17.640  15.891  12.675 -0.1198 -0.0585 -0.1392
58973W        W 1886  20.341   8.504  14.323  0.3200 -0.2483  0.1520
58974W        W 1887  14.667  23.875  22.510 -0.0448 -0.3415  0.3846
58975W        W 1888  22.777   6.439  20.488 -0.1756 -0.0020  0.0290
58976W        W 1889  21.975  16.569  27.811 -0.1250 -0.1084  0.2016
58977W        W 1890  23.114  18.905  16.938  0.3418  0.3587 -0.0946
58978W        W 1891   3.538  11.937   0.901  0.2372  0.0310 -0.0293
58979W        W 1892  10.494  20.065  16.903 -0.0478  0.0220  0.0876
58980W        W 1893   6.574   9.287  16.139 -0.0176  0.1201  0.0321
58981W        W 1894   5.237  16.873  25.115  0.3140  0.1862 -0.1377
58982W        W 1895   8.770   4.901  23.372  0.0142 -0.1657  0.0078
58983W        W 1896  19.627  30.875  14.155  0.3486 -0.1792  0.0001
58984W        W 1897   9.624  17.397  17.626 -0.1044  0.1372 -0.0846
58985W        W 1898  21.172   9.088  26.480  0.2594  0.1801  0.2718
58986W        W 1899  23.080  21.732  12.125  0.0005  0.3578 -0.2277
58987W        W 1900   9.967  21.924  18.095 -0.2483 -0.1378  0.1947
58988W        W 1901  25.281  22.691  23.437 -0.1288  0.0096  0.2560
58989W        W 1902  11.123  16.123  14.002 -0.0695  0.2817  0.1457
58990W        W 1903   8.113   6.794  26.953  0.0385  0.0952  0.1935
58991W        W 1904  10.830  15.807  13.131  0.0283  0.0139 -0.1517
58992W        W 1905   9.320  15.455  22.516 -0.2711  0.2137 -0.0660
58993W        W 1906  19.375  11.431  25.047 -0.2057 -0.0115 -0.0436
58994W        W 1907  20.998  15.540  15.436 -0.1289  0.1876  0.1458
58995W        W 1908  29.263  11.046  16.635  0.0410  0.1308  0.0399
58996W        W 1909  12.542  19.827  12.879 -0.0100  0.1199  0.0630
58997W        W 1910   5.080  23.405  17.198 -0.0797  0.2108 -0.2241
58998W        W 1911   8.192  15.229  27.301  0.1359  0.0194  0.3642
58999W        W 1912   7.534  25.660  17.619 -0.1610 -0.1099  0.2660
59000W        W 1913  11.389   2.659  23.286  0.1976  0.1164 -0.1222
59001W        W 1914  12.464   9.342  24.620 -0.0321  0.0129 -0.2433
59002W        W 1915  23.034  21.923  14.718 -0.1338  0.0952 -0.0463
59003W        W 1916  22.429  15.947  18.635 -0.0832 -0.0823 -0.0160
59004W        W 1917   8.177  14.647  17.433  0.0474 -0.4030 -0.0962
59005W        W 1918   8.839   8.262  24.012  0.2851  0.3381  0.0963
59006W        W 1919   5.360  15.151  17.197  0.0424 -0.3853 -0.1746
59007W        W 1920   6.544  16.994  17.252  0.1234  0.1222 -0.3854
59008W        W 1921   4.615  16.403  18.314  0.0386  0.1765 -0.0304
59009W        W 1922  16.603   8.598  22.889  0.2460  0.0221  0.0230
59010W        W 1923  23.974  24.769  19.449 -0.0023 -0.0087  0.1475
59011W        W 1924  10.845  20.835  19.188 -0.0373  0.0131  0.0353
59012W        W 1925  30.627  15.272  21.081 -0.0689  0.3821 -0.0467
59013W        W 1926  12.479  21.179  14.623 -0.0380 -0.3215 -0.4194
59014W        W 1927  23.106  20.086  13.889  0.0034 -0.0471 -0.0112
59015W        W 1928  11.218  23.729  21.255 -0.1016 -0.2845  0.0900
59016W        W 1929   2.971  18.566  14.251  0.0559 -0.0773 -0.0212
59017W        W 1930  17.367  31.753  17.501 -0.1161 -0.0359  0.2294
59018W        W 1931   6.320  15.125  20.571  0.0278  0.0509  0.3644
59019W        W 1932  11.399  14.435  16.979 -0.2648 -0.0688  0.1150
59020W        W 1933   8.668  11.493  18.247 -0.2134 -0.0905 -0.1346
59021W        W 1934  16.290  20.484  13.104 -0.0733  0.1477 -0.1716
59022W        W 1935  13.458  18.505  14.451 -0.1863  0.1301  0.1031
59023W        W 1936  29.161  14.678  18.188  0.0975  0.1481  0.1696
59024W        W 1937   9.603  17.347  12.957 -0.1470 -0.2389 -0.1634
59025W        W 1938  11.305  22.068   1.254 -0.1306  0.1946  0.2908
59026W        W 1939  21.277  19.633  13.216 -0.2689  0.2702 -0.0442
59027W        W 1940   4.453  24.609  19.944 -0.2549  0.0676  0.0017
59028W        W 1941  20.227  19.985  22.296 -0.3297  0.2529  0.2299
59029W        W 1942  12.796   5.871  21.133  0.2301 -0.0402 -0.0042
59030W        W 1943  14.769   8.369  25.659 -0.1853  0.1599 -0.0548
59031W        W 1944  21.342  19.730  15.660  0.1420 -0.1353 -0.3066
59032W        W 1945  17.945   6.746  19.611  0.1800  0.3018 -0.0826
59033W        W 1946   9.464  19.342  21.078  0.0811 -0.2065 -0.1444
59034W        W 1947  18.970  24.263  14.992 -0.0474  0.0802  0.0526
59035W        W 1948  14.115   0.853  16.500 -0.2343 -0.2797  0.0065
59036W        W 1949   5.913  12.978  19.230  0.3087  0.2889 -0.0322
59037W        W 1950   6.851  12.869  24.576 -0.4696  0.0122  0.0206
59038W        W 1951  23.699  15.392  27.946  0.0792  0.1773  0.2498
59039W        W 1952  15.227  24.954  18.294 -0.0503 -0.1016  0.1626
59040W        W 1953  14.070  21.774  17.320 -0.2111  0.0527  0.0442
59041W        W 1954  12.025   7.475  24.123  0.0906  0.0458 -0.3733
59042W        W 1955   9.899  15.072  13.465 -0.1245  0.4592 -0.2588
59043W        W 1956  15.573  14.636  16.490  0.3884 -0.1265  0.3369
59044W        W 1957  10.199   4.613  18.952 -0.1707  0.2614  0.2138
59045W        W 1958  13.555  11.144  20.933 -0.1898  0.1612  0.0091
59046W        W 1959  33.576  23.939  19.769  0.3722 -0.1153  0.2625
59047W        W 1960  10.027  21.123  17.671 -0.0886 -0.3008 -0.0276
59048W        W 1961  12.099  20.105  18.088 -0.0574 -0.0702 -0.2162
59049W        W 1962  17.630  13.073  18.511 -0.2451  0.2292 -0.1597
59050W        W 1963  24.594  32.923  16.694 -0.2121  0.1685 -0.1987
59051W        W 1964  10.549  16.494  27.111 -0.0576  0.1591 -0.0591
59052W        W 1965  13.448  24.342  13.812 -0.1529  0.1793 -0.2605
59053W        W 1966  19.528  12.790  13.300  0.1547 -0.2747 -0.0524
59054W        W 1967  10.035  13.549  15.024  0.0316  0.1549 -0.2653
59055W        W 1968  13.911   0.566  20.411 -0.1357  0.0086 -0.0070
59056W        W 1969  12.246  16.061  22.500 -0.3962 -0.0204 -0.1304
59057W        W 1970  10.954  24.703  21.733  0.0189 -0.1468  0.0532
59058W        W 1971  17.980  23.804  21.642 -0.0737 -0.3382  0.0638
59059W        W 1972  20.771  21.641  19.634 -0.1538  0.0557  0.0614
59060W        W 1973  21.773   5.442  14.964 -0.2950 -0.0437 -0.0344
59061W        W 1974   4.158   5.632  18.013 -0.0538  0.0702  0.1384
59062W        W 1975  17.347  16.113  28.196 -0.0242 -0.1466 -0.0391
59063W        W 1976   9.005  20.433  24.342  0.2173  0.4388 -0.0534
59064W        W 1977   8.550  16.852  13.207 -0.0900 -0.2952 -0.1012
59065W        W 1978   8.454  12.596  20.443 -0.0908  0.1042 -0.1416
59066W        W 1979  10.971  26.126  15.908 -0.1513  0.0709 -0.2957
59067W        W 1980  18.652   5.549  23.039  0.2284  0.0677 -0.0445
59068W        W 1981  32.470  17.310  23.859 -0.1636  0.2541 -0.1967
59069W        W 1982  18.836  25.127  18.245 -0.3502  0.1462  0.2567
59070W        W 1983  20.711  22.130  18.054  0.3583  0.1939 -0.0307
59071W        W 1984   8.854  12.152  15.086  0.1355 -0.0748 -0.5479
59072W        W 1985  22.481  17.890  12.538 -0.0336 -0.2680 -0.0058
59073W        W 1986  10.138  11.252  23.894  0.1141 -0.3417  0.4051
59074W        W 1987  14.082  23.163  15.363  0.2391  0.1039  0.0415
59075W        W 1988   5.308  16.419  22.004 -0.0348  0.2011  0.0543
59076W        W 1989  23.876  13.574  14.974 -0.1928 -0.1004  0.2060
59077W        W 1990  20.454  11.186  28.789  0.2248  0.0095  0.0649
59078W        W 1991  23.383   4.742  21.441  0.0002 -0.0001 -0.1637
59079W        W 1992  21.291  33.659  13.883 -0.3406  0.0709 -0.0973
59080W        W 1993   1.915  20.614  29.690  0.0625  0.0843  0.2184
59081W        W 1994   5.292  22.403  23.851  0.0183 -0.1333  0.0105
59082W        W 1995  18.753  25.442  21.544 -0.1170  0.1426  0.0731
59083W        W 1996  13.756  10.628  27.849 -0.0893 -0.0005 -0.2257
59084W        W 1997  13.814  10.264   0.077  0.3584 -0.0291 -0.0592
59085W        W 1998  15.258  17.263  12.646 -0.0901  0.0441 -0.0245
59086W        W 1999   9.479  20.054  16.293  0.5126  0.0796  0.0995
59087W        W 2000  11.603   5.672  23.481 -0.3390 -0.3851  0.1096
59088W        W 2001  24.145  23.591  15.444 -0.0896  0.3118  0.1878
59089W        W 2002  11.787   9.965  28.072  0.4130 -0.1944  0.0209
59090W        W 2003  19.309  26.072  15.221  0.0080 -0.0972 -0.6428
59091W        W 2004  12.561   4.411  17.059  0.3226  0.1869  0.3127
59092W        W 2005  22.085  10.737  20.740 -0.0544 -0.1104  0.0600
59093W        W 2006  25.336  15.897  18.688 -0.2622  0.0623  0.3096
59094W        W 2007   4.444  29.749  18.257 -0.1340  0.0691 -0.4641
59095W        W 2008   5.753  23.971  20.147 -0.1441  0.2030  0.2411
59096W        W 2009   4.532   3.034  20.486  0.0440  0.1368  0.1392
59097W        W 2010  11.180  15.696   1.710  0.1754  0.2471 -0.2047
59098W        W 2011  27.218  14.230  26.789  0.3022 -0.0108  0.0857
59099W        W 2012   0.393   6.284  20.156 -0.1333 -0.0011  0.1248
59100W        W 2013  11.587  30.102  17.704  0.0587  0.0571  0.2019
59101W        W 2014  24.379   0.070  14.719 -0.3754  0.3307 -0.2019
59102W        W 2015   6.531  16.202  21.881  0.0001  0.3803  0.0534
59103W        W 2016  25.257  24.699  28.888  0.1848 -0.0327  0.0154
59104W        W 2017  13.130  24.910  23.539  0.2338 -0.1619 -0.0729
59105W        W 2018  14.022   0.807  20.967  0.1376  0.0773 -0.0547
59106W        W 2019  17.266  12.721  18.690  0.0879  0.1256 -0.2395
59107W        W 2020  19.202  19.448  15.398 -0.0717  0.0656  0.0899
59108W        W 2021  14.157   9.310  14.831 -0.2605 -0.0986  0.3299
59109W        W 2022  18.855   6.065  18.172 -0.1539  0.0571  0.2844
59110W        W 2023   2.351   5.316  17.072 -0.0747  0.0338  0.0323
59111W        W 2024  25.658  26.136  24.511  0.0060  0.3231  0.1479
59112W        W 2025  20.811  21.137  24.361 -0.0738 -0.1915  0.1628
59113W        W 2026  10.305  15.824  12.304 -0.1735 -0.1955 -0.4569
59114W        W 2027  11.740  24.296  22.603 -0.0391  0.0449 -0.0730
59115W        W 2028   2.300  15.510   1.392 -0.1129 -0.2036  0.0388
59116W        W 2029   4.854  23.413  25.225 -0.1231 -0.2509  0.0181
59117W        W 2030  18.079   9.875  19.575 -0.1919 -0.3177  0.0281
59118W        W 2031  13.393  18.778  21.352 -0.0567 -0.2928  0.2951
59119W        W 2032   7.408  14.875  19.452  0.0885 -0.1050  0.0367
59120W        W 2033   7.454  19.267  20.411  0.2808  0.2614 -0.1698
59121W        W 2034  23.031  18.515  14.416 -0.1774  0.3630 -0.0368
59122W        W 2035   8.018  19.364  22.429  0.4507  0.1097  0.1278
59123W        W 2036  15.734  25.632  21.230 -0.0957 -0.3169  0.2450
59124W        W 2037  14.135  23.484  14.615  0.1998  0.0808  0.5632
59125W        W 2038  17.239  18.008  13.352  0.0957 -0.0382  0.0562
59126W        W 2039  10.742  19.847  20.451  0.1374 -0.0482 -0.0032
59127W        W 2040  12.854   3.799  26.570 -0.0951 -0.0459 -0.1475
59128W        W 2041  16.241  15.104  13.911 -0.0701 -0.2586  0.1392
59129W        W 2042  18.449   5.942  24.985  0.1544  0.1199  0.0311
59130W        W 2043   6.087  10.852  19.456  0.4567  0.0218  0.1346
59131W        W 2044   9.391  13.724  26.242 -0.2409  0.0399 -0.4257
59132W        W 2045  21.690   5.862  16.083 -0.1509 -0.0053 -0.2617
59133W        W 2046  20.693  18.155   7.698 -0.1343 -0.1597 -0.0571
59134W        W 2047  19.533   7.947  26.949 -0.0385 -0.1413  0.4250
59135W        W 2048  12.717  34.473  26.170  0.3208  0.2147  0.1183
59136W        W 2049  17.416  18.023  14.154  0.3189  0.3475 -0.0811
59137W        W 2050   9.390   4.018   0.235 -0.1072 -0.1279  0.2101
59138W        W 2051   2.817  13.515  18.095 -0.1680  0.0565  0.3537
59139W        W 2052  11.918  10.946  22.036  0.1182 -0.2335 -0.1865
59140W        W 2053  12.251  15.103  24.769  0.0257 -0.0193  0.2839
59141W        W 2054   3.339  29.738  29.077 -0.2154  0.0064 -0.0492
59142W        W 2055  17.008  17.526  17.157 -0.2112  0.1257  0.1226
59143W        W 2056   4.199  17.392  21.522 -0.1621  0.0567  0.3829
59144W        W 2057  30.697  22.110  27.084 -0.1528  0.1287 -0.2180
59145W        W 2058  15.193  18.601  24.797 -0.1506  0.0073  0.1222
59146W        W 2059   7.513  19.561  26.608 -0.0549 -0.0031 -0.1145
59147W        W 2060   2.387  10.308  18.249  0.2177 -0.2229 -0.0824
59148W        W 2061  11.426  10.046  22.390  0.1147  0.0623  0.0414
59149W        W 2062  12.755  16.432  18.583  0.0346 -0.1502  0.1422
59150W        W 2063  15.482  19.027   1.624 -0.1677  0.0980  0.2783
59151W        W 2064  15.220   4.762  22.761  0.1169 -0.2424  0.2320
59152W        W 2065  15.823  30.424   0.333 -0.0845  0.0190 -0.2089
59153W        W 2066   9.950  15.549  25.985 -0.1219 -0.0322  0.1303
59154W        W 2067   5.717  12.499   5.303  0.1984  0.0357 -0.2535
59155W        W 2068  17.054   6.883  18.598 -0.1546 -0.1255 -0.2367
59156W        W 2069  10.875  22.275  17.495 -0.0274  0.1495 -0.0133
59157W        W 2070  14.296   7.767  15.384  0.1105  0.0715  0.1433
59158W        W 2071   2.754  14.557  16.377  0.0181  0.4505 -0.1037
59159W        W 2072   1.050  12.441  23.587 -0.0978  0.1493  0.1447
59160W        W 2073  19.787   9.963  18.296 -0.3633 -0.1183  0.0716
59161W        W 2074  10.653  23.780  23.380  0.0097 -0.0374  0.2482
59162W        W 2075  12.859  17.500   4.154 -0.1710 -0.0900  0.0766
59163W        W 2076  18.440  11.150   2.966  0.0175  0.0146 -0.2165
59164W        W 2077  18.807   4.959  29.276 -0.1739 -0.0985  0.3254
59165W        W 2078  14.294  18.453   0.997 -0.5242  0.3529 -0.0982
59166W        W 2079  13.144  19.552  17.667 -0.0325  0.0913  0.3509
59167W        W 2080   8.363  21.041   1.906 -0.1400 -0.0008 -0.3118
59168W        W 2081  17.818  17.390  13.249 -0.2152  0.0283  0.0575
59169W        W 2082  12.595  21.357  18.672  0.1106  0.1704  0.2505
59170W        W 2083  11.186  22.640  27.151 -0.1108 -0.4305 -0.0330
59171W        W 2084   1.069  33.828   1.420  0.1106  0.1103  0.4374
59172W        W 2085  20.349  18.919  14.863 -0.2423  0.1046  0.1680
59173W        W 2086  12.809  18.069  15.631  0.2691  0.0035 -0.0537
59174W        W 2087   3.141  16.161  29.123 -0.2948 -0.1532 -0.0092
59175W        W 2088  16.053  22.584   9.195  0.1418 -0.0409  0.0196
59176W        W 2089   0.764  25.311  16.974  0.0742 -0.0143  0.0822
59177W        W 2090   5.756   4.541  21.424  0.1207 -0.2947 -0.1959
59178W        W 2091  12.275  13.122  15.169  0.2465 -0.3193  0.2381
59179W        W 2092  11.907  18.495  18.903 -0.0346 -0.1160 -0.1564
59180W        W 2093  16.005  10.164  21.506 -0.0046 -0.3250 -0.0857
59181W        W 2094  12.777  12.744  18.043  0.0357 -0.0607 -0.2468
59182W        W 2095  21.866  29.418  24.788 -0.1585 -0.2200  0.1720
59183W        W 2096  13.720  12.681  21.414 -0.1628 -0.1593 -0.0098
59184W        W 2097   3.243  20.790   1.547 -0.1591 -0.0975  0.1067
59185W        W 2098  13.566  17.979  17.298  0.1756  0.1936  0.0113
59186W        W 2099   7.695  17.621  27.683 -0.3810 -0.0564 -0.1436
59187W        W 2100   5.777  27.663  26.215  0.0794  0.0353  0.0709
59188W        W 2101   8.011  14.935  15.587 -0.0800 -0.1295  0.2770
59189W        W 2102  15.175  10.829  18.459  0.3976 -0.0540 -0.4194
59190W        W 2103   8.579  15.119   7.103  0.1222 -0.0137  0.0783
59191W        W 2104   3.085   4.150  23.117 -0.0441  0.1761 -0.1752
59192W        W 2105  15.429  29.926  19.413  0.0135 -0.0102  0.0669
59193W        W 2106  10.185  18.739  23.882 -0.1996  0.1587 -0.2509
59194W        W 2107  12.291  10.697  22.540 -0.1393 -0.0983 -0.2310
59195W        W 2108  10.992   7.955  28.620 -0.2704 -0.0818  0.0043
59196W        W 2109  14.790  10.693   3.011  0.0984  0.1578  0.0032
59197W        W 2110  13.571  14.500  20.284  0.1509  0.2704 -0.1116
59198W        W 2111   9.513   2.315  27.690 -0.0633  0.1991  0.1386
59199W        W 2112  11.317  34.040  29.688  0.4214 -0.2001  0.0584
59200W        W 2113   7.539  14.080  20.701  0.1937  0.1264 -0.2244
59201W        W 2114  12.949  12.170  19.437  0.0440  0.2152 -0.1803
59202W        W 2115  16.441  25.136  14.608 -0.1292 -0.1725 -0.2070
59203W        W 2116  10.702   1.775  28.986  0.0131  0.5006 -0.1292
59204W        W 2117  12.464  13.029   0.498  0.0130 -0.2971 -0.2521
59205W        W 2118   6.003  12.873  24.630  0.0566 -0.6468  0.1488
59206W        W 2119   2.455  24.252  18.929 -0.1892  0.0875 -0.0950
59207W        W 2120   9.583  17.527  16.863 -0.1153 -0.1676 -0.0627
59208W        W 2121  13.507  21.000  20.966  0.2109  0.0234 -0.2592
59209W        W 2122  13.462  21.511  29.117  0.1621  0.0231  0.1799
59210W        W 2123   8.982  20.816  24.018  0.0305 -0.0007 -0.2479
59211W        W 2124  32.112  17.644  24.241 -0.0692  0.3526 -0.0774
59212W        W 2125   9.013  11.523  29.153  0.2239  0.1944  0.0736
59213W        W 2126   5.715  23.929  25.945  0.0810  0.0545 -0.0721
59214W        W 2127  16.152  24.016  20.592 -0.0186  0.1248  0.0851
59215W        W 2128  13.989   7.477  19.042  0.1209  0.1193 -0.0702
59216W        W 2129  10.199   7.320  21.273  0.0658  0.1008 -0.0926
59217W        W 2130  12.683  27.387  24.925 -0.1211 -0.0161 -0.2852
59218W        W 2131  21.363  24.664  19.084 -0.1424 -0.0682 -0.0581
59219W        W 2132  13.840  14.548  14.314  0.0078  0.0762 -0.3692
59220W        W 2133   9.624  16.083  13.134 -0.1082  0.0370  0.2911
59221W        W 2134  18.945  27.556  29.572  0.0712  0.1566 -0.0221
59222W        W 2135  17.138  28.653  26.074  0.1473  0.0014 -0.1328
59223W        W 2136  13.053  10.658  13.470  0.0442  0.0925  0.0777
59224W        W 2137   2.585  11.832  20.737 -0.2781 -0.0219 -0.2864
59225W        W 2138  13.329  16.230   0.607  0.0206  0.0106  0.1930
59226W        W 2139  18.520   4.270   7.803  0.2421 -0.0695  0.4380
59227W        W 2140  16.156  15.285  11.098 -0.0657 -0.1462 -0.5323
59228W        W 2141  11.330  23.132  27.937  0.1468 -0.0158 -0.0780
59229W        W 2142   8.633   8.794  23.748  0.1268 -0.2025  0.0089
59230W        W 2143   7.596  22.938   0.884 -0.0431  0.0537  0.1621
59231W        W 2144   2.089  17.710  22.289  0.2639  0.1984  0.1807
59232W        W 2145  11.698  20.737  17.076 -0.1451  0.2912  0.2188
59233W        W 2146   9.954  20.482  13.478  0.0354 -0.0884  0.0448
59234W        W 2147  20.063  16.221  13.491  0.0542 -0.0485  0.1155
59235W        W 2148  21.508  18.177  18.935 -0.1161 -0.1281  0.1861
59236W        W 2149   5.722   2.620   8.250  0.3502 -0.0476 -0.1078
59237W        W 2150   7.719   1.232  21.184  0.0579  0.2286  0.3803
59238W        W 2151  16.403  11.280  26.656 -0.1506 -0.3742  0.1007
59239W        W 2152  20.902  19.759  28.502 -0.1104  0.2389  0.2011
59240W        W 2153   6.183  13.508  22.366 -0.0697 -0.3327 -0.0350
59241W        W 2154   1.619   8.294  17.463  0.1235 -0.3344 -0.0958
59242W        W 2155  24.643   9.952  19.782  0.2097  0.1904 -0.2226
59243W        W 2156   3.173  21.294  20.128  0.0346 -0.1373  0.1402
59244W        W 2157  11.290  27.142  29.315  0.0560 -0.0346  0.0188
59245W        W 2158  10.694  16.040  21.001 -0.5219 -0.1036  0.0781
59246W        W 2159   9.869  24.125  18.495  0.1884  0.0281  0.1770
59247W        W 2160   8.118  28.141  15.885  0.0659  0.2226  0.1000
59248W        W 2161  14.342  10.921  18.028  0.0572 -0.1184  0.0364
59249W        W 2162   6.976   7.507  26.680  0.0988 -0.1322  0.0026
59250W        W 2163   3.850   4.505  17.768 -0.2083  0.0047 -0.0597
59251W        W 2164   9.754  13.251  20.128 -0.0947 -0.0459 -0.0040
59252W        W 2165   9.408  29.185  18.453 -0.0349  0.0757  0.0038
59253W        W 2166   3.356  10.359  23.402  0.1041  0.0500  0.1989
59254W        W 2167   6.322  13.458  27.206  0.4000  0.0485  0.0985
59255W        W 2168  15.682  14.023  17.085 -0.1205 -0.0796  0.1087
59256W        W 2169  16.918  16.780  17.431 -0.3819  0.1167 -0.1944
59257W        W 2170  10.143  12.033  28.178  0.0797 -0.0005 -0.0821
59258W        W 2171  20.823  17.729  14.650 -0.0454 -0.0028 -0.2528
59259W        W 2172   9.477  27.243  17.996 -0.0114  0.3222 -0.3936
59260W        W 2173  17.330  17.056  17.232 -0.1955  0.0932  0.4135
59261W        W 2174   3.714  21.264  22.255  0.0741 -0.2127 -0.0230
59262W        W 2175  16.309  19.511  26.760  0.1938 -0.1240  0.1904
59263W        W 2176  10.294  27.605  27.744 -0.3178  0.1519  0.0951
59264W        W 2177  16.439  12.709  18.208  0.0251  0.1421 -0.0413
59265W        W 2178  10.233  30.316   2.610  0.0025 -0.0790  0.0148
59266W        W 2179   4.378  24.588  20.886 -0.1492 -0.0412  0.2388
59267W        W 2180  13.095  19.594   2.279  0.4202 -0.0959 -0.2136
59268W        W 2181  15.896  25.822  24.693  0.0318  0.0858 -0.1237
59269W        W 2182   0.866   3.170  20.994 -0.1058 -0.2326 -0.0455
59270W        W 2183  20.982  12.083  15.963  0.0598 -0.0194  0.0472
59271W        W 2184  10.101  19.315  18.782 -0.0797  0.0636  0.0692
59272W        W 2185   8.526  12.066   1.934 -0.0843  0.1284  0.1786
59273W        W 2186   9.424  21.299  25.105  0.1485  0.0834  0.0287
59274W        W 2187  17.098  20.338  22.732 -0.4147 -0.0688  0.1327
59275W        W 2188  20.211  21.313  17.533  0.0118  0.0559  0.1131
59276W        W 2189   4.430  12.282  17.638  0.0092 -0.1444  0.1519
59277W        W 2190   6.946  20.225  27.590  0.0469  0.1322 -0.5101
59278W        W 2191   5.526  18.313  24.632  0.1109 -0.1497  0.0259
59279W        W 2192   9.049  28.357  17.822  0.1747 -0.3664  0.1380
59280W        W 2193  15.659  19.944  15.551 -0.1853 -0.1698 -0.0640
59281W        W 2194  14.398  11.485  25.526  0.1679 -0.1139 -0.2182
59282W        W 2195  10.431   9.399  28.442  0.0681  0.0621  0.0078
59283W        W 2196  11.198  10.187  26.784 -0.0617  0.1133  0.2253
59284W        W 2197   8.782  18.802   2.325  0.1533 -0.0073 -0.0877
59285W        W 2198  10.223  20.423  21.765 -0.0910  0.1665  0.0370
59286W        W 2199  17.234  17.924   0.853  0.0984 -0.0766 -0.1536
59287W        W 2200   7.836  20.508  27.286  0.2914  0.0209 -0.0671
59288W        W 2201   8.274  11.198  18.214 -0.2337 -0.0620 -0.1933
59289W        W 2202  15.803  11.878  22.448  0.0389  0.1439  0.3034
59290W        W 2203   8.802  33.505  25.196  0.0690 -0.0689 -0.1295
59291W        W 2204  10.176  11.505  24.382  0.0094  0.3009 -0.0321
59292W        W 2205  11.125  24.683   5.411 -0.4200 -0.2947  0.2669
59293W        W 2206  11.907   9.567  25.690 -0.2174 -0.2146  0.0176
59294W        W 2207  10.406  13.299  25.896  0.3224 -0.1081  0.0192
59295W        W 2208  15.005   5.643  24.762 -0.2787 -0.0745  0.0164
59296W        W 2209  19.362  27.040  17.294  0.1047  0.0218  0.2286
59297W        W 2210  15.342  22.547  24.707 -0.0080  0.1995  0.1066
59298W        W 2211   1.992   3.871  22.258  0.3519  0.1112  0.3523
59299W        W 2212   8.637   9.679  16.165 -0.2776  0.0515 -0.1893
59300W        W 2213  11.408  17.791  22.650 -0.0657 -0.0582  0.2667
59301W        W 2214  12.541  24.674  26.126 -0.1363 -0.1674  0.0198
59302W        W 2215  12.473   3.007  17.853  0.0274  0.0798 -0.4668
59303W        W 2216  19.874  20.938  13.707  0.0511  0.1449 -0.2217
59304W        W 2217  10.537  22.586  22.474  0.1427 -0.0303  0.0823
59305W        W 2218   7.516  23.741  27.035  0.5126 -0.1552 -0.0831
59306W        W 2219   7.080  25.343  27.819 -0.0309 -0.1637 -0.2639
59307W        W 2220  10.568  16.366  20.368  0.0310  0.2598 -0.1962
59308W        W 2221  17.173  13.828  29.337  0.0277  0.0738  0.1826
59309W        W 2222   1.386  22.256  14.176 -0.0470 -0.1104 -0.1491
59310W        W 2223  17.068  21.150   2.155 -0.1048  0.1289 -0.0201
59311W        W 2224  12.552  30.044  28.668  0.0076  0.1712 -0.0291
59312W        W 2225  14.843  18.789  28.288  0.1836 -0.2215 -0.3883
59313W        W 2226  13.028  17.075  24.207  0.0149 -0.0738  0.3451
59314W        W 2227  14.544  13.974  17.549 -0.0728 -0.0952 -0.1361
59315W        W 2228  12.911  20.139  16.694  0.1284 -0.1374 -0.1251
59316W        W 2229   8.452  28.850   3.307  0.2941 -0.0411 -0.0537
59317W        W 2230   7.096  23.961  19.394 -0.3434  0.1537 -0.1287
59318W        W 2231  12.029   8.605  20.684  0.0555  0.1884  0.0434
59319W        W 2232  12.293  19.304  25.838  0.0191 -0.0009  0.2432
59320W        W 2233  17.487  15.522  28.191  0.0144  0.1984 -0.0145
59321W        W 2234  18.406   4.664  27.143  0.4383  0.1483 -0.0801
59322W        W 2235  18.188  14.112  21.373 -0.0044 -0.2946  0.1571
59323W        W 2236  18.279  10.136  21.746  0.1136 -0.1601  0.2611
59324W        W 2237   5.767  15.160  18.813  0.1223 -0.0811 -0.2607
59325W        W 2238  28.334   2.509   2.591 -0.1350 -0.2099  0.1097
59326W        W 2239  17.169  10.535  19.321  0.0909 -0.0235 -0.0370
59327W        W 2240  15.512   8.285  21.286  0.3623  0.0464 -0.1813
59328W        W 2241  14.015  27.753  19.793 -0.1869  0.0809  0.2468
59329W        W 2242   9.952  12.666  20.531  0.1067 -0.0572  0.0398
59330W        W 2243  12.267  25.356  19.660 -0.1732 -0.1843 -0.1504
59331W        W 2244   4.843  14.626  27.401 -0.1334 -0.1420  0.2636
59332W        W 2245  11.462   0.507  26.435  0.0102  0.2431  0.2399
59333W        W 2246   3.411  23.356  26.088 -0.0680 -0.0509 -0.0925
59334W        W 2247   8.265  23.849  28.126 -0.0274  0.1222 -0.1210
59335W        W 2248  11.159  12.901   5.900  0.3129  0.3777 -0.0460
59336W        W 2249   4.874  12.441  22.192 -0.1201  0.0868  0.0527
59337W        W 2250  19.597  16.944  14.580 -0.2229 -0.1257  0.0049
59338W        W 2251   1.149  30.702  16.126  0.0337  0.3015 -0.4492
59339W        W 2252  30.015  22.315  25.479  0.1655  0.4360 -0.0746
59340W        W 2253  11.968  14.833  22.994 -0.1193 -0.1356 -0.2691
59341W        W 2254   4.086  14.394  14.606 -0.1139  0.0014  0.4383
59342W        W 2255  14.622   9.476  22.202 -0.1245  0.0348  0.0253
59343W        W 2256  17.189  14.722   3.332  0.4114  0.2676  0.3198
59344W        W 2257   4.578  15.214  18.917 -0.2486 -0.3060  0.3138
59345W        W 2258  14.181  15.538  14.635 -0.1347 -0.0076 -0.1332
59346W        W 2259  11.017  26.574  18.750 -0.0486 -0.0829 -0.0441
59347W        W 2260  10.356  20.623  26.067 -0.0588  0.1207  0.1532
59348W        W 2261  15.337   9.378  24.684 -0.1732  0.2562  0.0041
59349W        W 2262   9.879  31.395  21.351  0.1124 -0.0467 -0.0747
59350W        W 2263  16.173   6.737  19.778  0.1858  0.1413 -0.1512
59351W        W 2264   8.671  22.201   5.177  0.2011  0.0267 -0.2477
59352W        W 2265  22.056  21.220  18.020  0.1745 -0.1231  0.0944
59353W        W 2266   7.775   6.899  19.188  0.2537  0.0590  0.1951
59354W        W 2267  19.211  13.939   5.928  0.0316 -0.1740  0.2021
59355W        W 2268  31.473  18.698  17.630  0.0548  0.0029  0.0287
59356W        W 2269  11.091   9.879  24.642 -0.1996 -0.1908 -0.2994
59357W        W 2270   7.817  26.254  19.260  0.2337 -0.1771 -0.0531
59358W        W 2271  12.139  13.825  21.964 -0.2788  0.3771 -0.2777
59359W        W 2272  12.129  17.406   1.193 -0.1296  0.2324 -0.2501
59360W        W 2273  10.556   5.003  28.275 -0.5161 -0.2216  0.0486
59361W        W 2274   9.402   7.241  22.742  0.1067  0.1005 -0.1657
59362W        W 2275  34.420  10.907  21.676 -0.1161 -0.3830  0.0325
59363W        W 2276  34.126  26.624  24.401  0.1324 -0.0387  0.4547
59364W        W 2277   9.694  30.510   1.678 -0.0581  0.2097 -0.2687
59365W        W 2278  15.199  19.592  24.868  0.0227  0.0275 -0.0214
59366W        W 2279   9.684  12.798  24.039  0.2423  0.1416 -0.1950
59367W        W 2280  12.193  17.691  28.555  0.1745 -0.0699  0.0801
59368W        W 2281  10.727  21.656  19.116 -0.4145  0.2186 -0.1344
59369W        W 2282   5.727  29.413  16.263 -0.2065 -0.1498  0.3851
59370W        W 2283  18.221  17.053  18.944 -0.0664  0.1826  0.1070
59371W        W 2284  15.583  11.285  18.940  0.0655  0.3663  0.0248
59372W        W 2285  15.397  17.509   3.800  0.1215  0.4547 -0.1249
59373W        W 2286   1.623  17.864  27.009 -0.1549  0.2206 -0.0504
59374W        W 2287  11.506  19.939  19.481  0.0988  0.0454  0.3003
59375W        W 2288   3.739  30.853  29.504  0.1007 -0.3662  0.1121
59376W        W 2289  15.665  19.925   2.573 -0.0034 -0.0185  0.0102
59377W        W 2290  14.196  18.792  20.682  0.0025 -0.1445 -0.1616
59378W        W 2291   5.869   4.134  23.608 -0.0717  0.0580 -0.3075
59379W        W 2292  13.183   8.653  22.710 -0.1963 -0.2212 -0.4020
59380W        W 2293  28.727  26.282  29.063 -0.0415  0.1946  0.0883
59381W        W 2294  12.381  21.972  25.041 -0.1769 -0.1215 -0.0719
59382W        W 2295  15.639  22.174  19.669 -0.0468  0.1191  0.0780
59383W        W 2296   6.770  15.491  25.663  0.0206  0.1103 -0.2543
59384W        W 2297  11.101  15.063  24.069 -0.1527 -0.3182 -0.2023
59385W        W 2298  10.591  14.397  16.308 -0.3428 -0.1831  0.1439
59386W        W 2299   9.086  27.102  17.095 -0.1104  0.0672 -0.1149
59387W        W 2300  16.817  15.835  27.537 -0.2180 -0.0734 -0.1454
59388W        W 2301  10.199  22.890  20.189 -0.0837 -0.0729  0.1364
59389W        W 2302  30.698  17.751  22.014  0.2165  0.1060 -0.2009
59390W        W 2303  22.525   6.617  22.063  0.1024  0.4199  0.1548
59391W        W 2304   4.637  20.644   3.924 -0.1111 -0.0944 -0.3639
59392W        W 2305  19.727   2.523  20.960 -0.3484  0.1081 -0.0181
59393W        W 2306  11.722   9.300  20.676  0.0906  0.1477  0.1605
59394W        W 2307   7.445  18.513  26.948  0.1841 -0.0768 -0.1777
59395W        W 2308   9.490   3.164  24.594 -0.0067  0.3564  0.3048
59396W        W 2309   5.342  16.089  20.919  0.2176 -0.0584  0.0236
59397W        W 2310  11.714   5.949  24.737  0.1462  0.1074 -0.0782
59398W        W 2311  13.801   4.668  23.087  0.2286  0.2682 -0.3422
59399W        W 2312  23.035  16.285  21.997 -0.0813 -0.0050  0.0295
59400W        W 2313   8.445  14.437   2.883 -0.0954 -0.2815  0.0033
59401W        W 2314  17.408  14.544  25.466 -0.0656  0.1227 -0.1093
59402W        W 2315   6.120  32.323  28.101 -0.1860 -0.0894  0.0978
59403W        W 2316   8.640  25.682  21.632  0.0965  0.1066 -0.0742
59404W        W 2317  12.598  10.179  29.384  0.1588 -0.2911 -0.0466
59405W        W 2318  10.293   7.738   0.325 -0.1810 -0.0069 -0.1035
59406W        W 2319  18.761  19.339  22.889 -0.2250 -0.1436 -0.1056
59407W        W 2320  13.600  27.720  20.653 -0.2536 -0.0653 -0.0759
59408W        W 2321   9.983  13.150  14.087 -0.1424  0.2220  0.1200
59409W        W 2322  10.949  11.268  23.722 -0.3896 -0.0113  0.1323
59410W        W 2323  16.771  24.047   2.796 -0.2981  0.0033 -0.1797
59411W        W 2324   2.061  14.995  22.573  0.1344  0.0083  0.2036
59412W        W 2325  31.850  10.427   2.026 -0.3103 -0.2699  0.1516
59413W        W 2326   5.071  21.111  14.968  0.1936  0.0258 -0.0587
59414W        W 2327   9.915  20.509  23.953  0.1646  0.3687 -0.1556
59415W        W 2328   9.588  12.873   0.858  0.1363  0.0984 -0.2152
59416W        W 2329   6.745  22.288  18.411 -0.3159 -0.0320  0.0572
59417W        W 2330  14.790   7.400   3.479 -0.3913 -0.1154  0.0512
59418W        W 2331  14.587  26.819  27.495  0.1805 -0.1514  0.0858
59419W        W 2332   7.019   6.545  19.567 -0.0397  0.1710  0.1687
59420W        W 2333   8.888  11.318  22.546  0.2321 -0.3678 -0.0498
59421W        W 2334   6.571  13.746  29.605  0.0263 -0.0058  0.1827
59422W        W 2335   6.422  18.348  17.794 -0.0161  0.2040 -0.3066
59423W        W 2336  14.238  12.186  24.997 -0.2331  0.3337 -0.0250
59424W        W 2337   2.321  26.779  16.961  0.2765 -0.0290 -0.0319
59425W        W 2338   7.057  24.377   4.819 -0.1193 -0.0650  0.2032
59426W        W 2339   3.324  17.441  15.207 -0.2072  0.1834  0.2893
59427W        W 2340  19.698  23.017  19.017  0.2744 -0.3730 -0.1513
59428W        W 2341  10.717  30.524  17.585 -0.4281  0.0371  0.2257
59429W        W 2342   3.812  20.091   7.088  0.1643 -0.2431 -0.2007
59430W        W 2343   4.084  33.818  28.221  0.3437  0.2533 -0.1599
59431W        W 2344  17.852  16.670   5.812  0.0495 -0.0321 -0.0286
59432W        W 2345  18.764  16.308  21.816  0.0697 -0.1364  0.1173
59433W        W 2346  14.048  28.427  22.527 -0.1549  0.2691  0.0776
59434W        W 2347  13.308  11.308  18.241  0.1711  0.1590 -0.3479
59435W        W 2348  12.502  19.315  17.806 -0.0479 -0.2002 -0.1177
59436W        W 2349   4.911  11.848   4.659 -0.0161 -0.3349  0.0396
59437W        W 2350  16.244  22.628  14.261  0.1265  0.1379  0.4565
59438W        W 2351  19.803   6.551  22.414  0.0037  0.0060  0.0149
59439W        W 2352  10.295  14.628  28.942  0.0646  0.3044  0.1380
59440W        W 2353   7.854  22.139  23.505 -0.2699  0.0511  0.1994
59441W        W 2354   8.299  12.311  23.924  0.2089 -0.1448  0.0557
59442W        W 2355   0.739  12.489  29.046  0.3221 -0.3287  0.1096
59443W        W 2356   7.125  19.917  24.215 -0.1515  0.0436 -0.0568
59444W        W 2357   6.895  21.492  27.401 -0.0899  0.0845  0.0145
59445W        W 2358  16.214  24.550  26.554  0.4008  0.1357 -0.1855
59446W        W 2359   7.668   8.822  25.495  0.3546 -0.1074  0.1304
59447W        W 2360  16.538   8.551  15.443  0.1468 -0.2348  0.2488
59448W        W 2361   0.602   8.500  21.101  0.2745  0.2941  0.2342
59449W        W 2362  12.448  15.366  22.736  0.0872  0.1376  0.2103
59450W        W 2363   6.717  11.782  18.009 -0.0449  0.0222  0.1110
59451W        W 2364  16.324  11.687  13.198 -0.1942 -0.1422  0.0547
59452W        W 2365   6.816  21.137  22.289 -0.2253  0.2619 -0.1943
59453W        W 2366   8.634  26.850   0.139  0.2283  0.1806  0.0183
59454W        W 2367   7.469  12.910  19.887 -0.2076 -0.1469 -0.0142
59455W        W 2368   7.215  17.677   0.806 -0.0410 -0.3036 -0.0830
59456W        W 2369   8.545  15.875  24.866  0.1201 -0.0850 -0.3091
59457W        W 2370  15.581  17.002  24.006 -0.2072  0.3521 -0.1965
59458W        W 2371  11.458  26.317  23.190 -0.1012  0.2618  0.0065
59459W        W 2372  23.360   4.130  25.938 -0.1410  0.1103  0.0714
59460W        W 2373  26.233  13.459  14.498  0.0189  0.3644  0.0524
59461W        W 2374   8.568   6.951  20.692 -0.2801 -0.2747 -0.0294
59462W        W 2375  12.892  22.051  19.557 -0.1418  0.0517  0.2883
59463W        W 2376  12.319  19.442  22.742  0.3373  0.0479 -0.0792
59464W        W 2377  12.058  15.930  26.977 -0.1278  0.1386  0.2170
59465W        W 2378  13.480  28.317  17.443 -0.3063 -0.0153  0.2362
59466W        W 2379   4.341  12.391  23.083 -0.0610  0.0954 -0.0642
59467W        W 2380   6.140   9.282  16.458  0.2401  0.0294 -0.0967
59468W        W 2381  15.976  11.036  23.268 -0.3174 -0.1706 -0.0416
59469W        W 2382  15.663  11.816  20.731 -0.0552  0.1697  0.3239
59470W        W 2383   2.401  13.334  28.711  0.3413  0.5265  0.0364
59471W        W 2384  13.192   3.428  27.264 -0.1365  0.0375  0.2336
59472W        W 2385  13.318   8.610  16.183  0.0330  0.0155  0.2215
59473W        W 2386   8.127  12.151  17.727 -0.0380  0.2003 -0.1381
59474W        W 2387  24.147   8.758  15.277  0.2711  0.0347 -0.0801
59475W        W 2388   6.118   7.264  28.363  0.1287 -0.1545  0.3057
59476W        W 2389  13.070  17.460  13.696 -0.0026 -0.0008 -0.0357
59477W        W 2390  10.999   9.008  23.164 -0.1332  0.1674 -0.0599
59478W        W 2391  10.856  19.231  26.001 -0.0149  0.0799 -0.0285
59479W        W 2392  14.774  14.361   1.872 -0.0071 -0.0048  0.2655
59480W        W 2393  10.911   4.511  23.849  0.3276  0.1468 -0.2427
59481W        W 2394  20.035   8.417  18.272 -0.1685  0.2595  0.1317
59482W        W 2395   1.805  25.948  26.531 -0.3174 -0.0897 -0.0530
59483W        W 2396  18.717  11.856  16.399  0.0043  0.0678  0.0017
59484W        W 2397  13.630  11.637  18.603 -0.3162 -0.1089  0.0841
59485W        W 2398   4.039   9.497  17.121 -0.3586 -0.1555 -0.1056
59486W        W 2399   5.219  30.765  28.745  0.2405  0.2475  0.1398
59487W        W 2400  16.935  28.412   5.254  0.0328  0.3414 -0.2218
59488W        W 2401   9.614  14.503  25.051 -0.1040  0.0292  0.0725
59489W        W 2402  25.261  24.455  22.528  0.0343  0.0255  0.1004
59490W        W 2403  15.890  18.445  22.994 -0.0405 -0.0813  0.0709
59491W        W 2404   7.422  21.439   1.808 -0.0196  0.0751 -0.1041
59492W        W 2405  10.754  13.621  25.104  0.0381 -0.2435  0.0570
59493W        W 2406  11.585  15.523   1.399 -0.1661  0.1985  0.4942
59494W        W 2407   9.754  18.384  24.003  0.3106 -0.2337  0.2264
59495W        W 2408  19.494  11.109  16.715  0.0906  0.1217  0.0185
59496W        W 2409  19.153  10.284  25.499 -0.1126 -0.2108  0.1006
59497W        W 2410  11.477   8.496  23.781  0.1878  0.0279 -0.0453
59498W        W 2411   5.998  12.043  25.638  0.5677  0.0220  0.3032
59499W        W 2412  17.088  23.583  26.580 -0.1451  0.2342  0.0437
59500W        W 2413  13.851  10.149  25.564 -0.1367  0.1416  0.3335
59501W        W 2414   6.745  20.811  23.159 -0.0822 -0.2458  0.0180
59502W        W 2415  11.307  18.551   8.791 -0.0414 -0.2214 -0.1639
59503W        W 2416   7.090  15.260  23.576  0.0875 -0.2683  0.3686
59504W        W 2417  13.277  19.955   5.810  0.1692  0.0225  0.0322
59505W        W 2418  10.204  17.859   1.690 -0.1819  0.0501 -0.3779
59506W        W 2419  17.373  12.752  27.656 -0.1139 -0.3355  0.1163
59507W        W 2420   3.098   9.305  29.477 -0.0745  0.2596  0.2199
59508W        W 2421  10.233  25.950   0.465  0.1934  0.0598 -0.1058
59509W        W 2422  13.103   5.683   2.034 -0.0920 -0.0129  0.1776
59510W        W 2423   9.655  24.562  23.696 -0.0456 -0.1907 -0.1929
59511W        W 2424   9.357  18.807  29.564  0.2128 -0.0521 -0.1515
59512W        W 2425  12.670  15.471  27.506 -0.0670 -0.1469  0.3571
59513W        W 2426  10.771  14.971  29.769  0.0161  0.0449  0.3989
59514W        W 2427  14.787  20.387  26.819 -0.3349 -0.4748 -0.2280
59515W        W 2428   4.984  22.089  26.478 -0.2270 -0.0762  0.0252
59516W        W 2429  13.163  23.434   3.217  0.2459 -0.1520  0.1290
59517W        W 2430  16.845  28.423  10.421 -0.2737 -0.0272 -0.2283
59518W        W 2431  16.832  10.751  27.451 -0.1167 -0.1758 -0.0739
59519W        W 2432  10.026  19.156   2.937 -0.1021  0.0407 -0.0161
59520W        W 2433  14.054  18.229   7.541  0.2992  0.0695  0.0757
59521W        W 2434  32.758   8.109  18.055 -0.1882  0.0060  0.0564
59522W        W 2435  12.972  27.215  18.388  0.1690 -0.1094  0.0475
59523W        W 2436  10.875  22.903  23.354 -0.1325 -0.2935 -0.4398
59524W        W 2437   8.997  22.230  28.043 -0.2215 -0.2836 -0.1816
59525W        W 2438  21.035  24.329   3.028 -0.2325 -0.0363 -0.1494
59526W        W 2439   1.983  11.820   6.941 -0.1832 -0.0933  0.3448
59527W        W 2440  13.190  18.934   3.223 -0.3601 -0.2277 -0.3082
59528W        W 2441  11.104  20.165   4.128 -0.1922  0.0720  0.0489
59529W        W 2442  25.568  21.101  24.781 -0.2218 -0.0035 -0.0108
59530W        W 2443  12.222   4.208  27.608 -0.1291 -0.0638  0.3749
59531W        W 2444   9.364  19.683  14.023  0.0297 -0.0383 -0.0710
59532W        W 2445   3.721  25.053  24.150 -0.1581 -0.0217  0.0405
59533W        W 2446  16.630  24.045   6.099 -0.1617 -0.0377 -0.1241
59534W        W 2447  10.927  23.462  22.606 -0.0246 -0.0124 -0.1405
59535W        W 2448  16.672   8.690  26.884  0.1391 -0.0158  0.1126
59536W        W 2449  16.226  11.280   3.552 -0.0110 -0.1483 -0.1364
59537W        W 2450  19.426  17.270  23.794  0.0416  0.1553  0.1868
59538W        W 2451   6.929  30.320   5.201 -0.0976  0.1234 -0.1403
59539W        W 2452  17.251  18.798  28.150  0.1145 -0.0511  0.1808
59540W        W 2453  16.014   7.918  28.676 -0.0642 -0.0136 -0.2333
59541W        W 2454   2.229  19.732  27.419 -0.0320  0.2942  0.3451
59542W        W 2455  10.462  20.556  19.427 -0.0917 -0.0626  0.0482
59543W        W 2456  14.290  20.931  23.560 -0.0771  0.1317  0.2196
59544W        W 2457  13.163  16.419   1.573  0.2867 -0.0407 -0.2347
59545W        W 2458  19.180  24.672   6.608  0.2572 -0.2807  0.2351
59546W        W 2459   2.890  11.022  28.953  0.0749  0.1556  0.1252
59547W        W 2460  14.160  22.609   7.672  0.0821  0.0278 -0.1044
59548W        W 2461   9.877  20.994  24.092  0.0921  0.0919  0.2444
59549W        W 2462  18.626  11.588  27.326  0.2292 -0.0050  0.0264
59550W        W 2463  11.341   0.441  25.927 -0.0190 -0.0781  0.2765
59551W        W 2464  17.627   4.026  27.379  0.2542 -0.0400  0.2324
59552W        W 2465   6.359  13.694  26.546  0.1177 -0.1990  0.1573
59553W        W 2466   6.617  17.383  27.108 -0.3821  0.0403 -0.0961
59554W        W 2467   8.491   4.579   2.441 -0.2853  0.0791 -0.2283
59555W        W 2468  23.086   9.194  25.467 -0.0839 -0.2440  0.3206
59556W        W 2469  14.812  10.337  16.909 -0.0949  0.2953  0.2777
59557W        W 2470  16.808  13.724  18.397  0.2734 -0.3318  0.1634
59558W        W 2471   6.609  19.947  25.563  0.2639 -0.0124  0.1385
59559W        W 2472  14.683  21.114   8.427 -0.1223 -0.0247  0.1186
59560W        W 2473   7.010   8.124  27.557  0.0920 -0.0498 -0.1773
59561W        W 2474  11.761  12.934   1.767 -0.0349  0.0212  0.0474
59562W        W 2475  17.177  15.930  25.207 -0.0467  0.0141  0.1182
59563W        W 2476   6.548   9.976  25.876  0.1414 -0.1273  0.3210
59564W        W 2477  11.340  17.649  23.904  0.0254 -0.0007 -0.0013
59565W        W 2478   8.320  17.373  26.195  0.1953 -0.0644 -0.2099
59566W        W 2479  12.334  24.122   9.776 -0.1339 -0.0578  0.1659
59567W        W 2480  17.627  13.004   7.740 -0.0671  0.0122 -0.0809
59568W        W 2481  18.790  22.728  23.909  0.1719 -0.0444 -0.1112
59569W        W 2482   2.753  13.999  27.567  0.0746  0.0276 -0.1912
59570W        W 2483  16.810  27.410   7.407  0.2190  0.2245  0.1151
59571W        W 2484   2.619  16.077  25.889 -0.3993 -0.0435  0.2629
59572W        W 2485  13.372  15.467   2.617 -0.0194  0.2594  0.0734
59573W        W 2486  15.181  31.999  24.481  0.1047 -0.2898 -0.0941
59574W        W 2487  20.148  22.481   2.525  0.3251  0.1770 -0.1535
59575W        W 2488  13.957  13.668   1.334  0.1316 -0.1051 -0.0024
59576W        W 2489   4.595  15.653  20.407 -0.0302  0.1250  0.1165
59577W        W 2490   4.192  29.237  18.029  0.1932 -0.0819 -0.1977
59578W        W 2491  14.895  18.703  23.139 -0.0018 -0.1309  0.3666
59579W        W 2492  13.919   9.443   0.824 -0.0738  0.1784 -0.3889
59580W        W 2493  19.136  22.166  28.701  0.1410  0.0633  0.4376
59581W        W 2494  14.486  17.987  21.409  0.0571  0.0371  0.3610
59582W        W 2495  13.334  13.900  19.628 -0.2091  0.2254  0.1930
59583W        W 2496  15.054  13.768   1.007 -0.0718 -0.0818 -0.0013
59584W        W 2497  14.619  16.169  23.304  0.2848  0.0618  0.2212
59585W        W 2498  14.606   1.692  21.351  0.0538  0.2891 -0.1482
59586W        W 2499  10.590  12.687  29.107 -0.1605 -0.1870  0.0281
59587W        W 2500  15.211   4.233  22.633 -0.2037 -0.1140  0.0847
59588W        W 2501  19.173   6.256  15.980 -0.1773 -0.2384 -0.1002
59589W        W 2502   6.729  21.178  15.664 -0.1028  0.2174 -0.4057
59590W        W 2503  13.572  13.283  24.157  0.0242  0.3722 -0.1613
59591W        W 2504   4.335  20.711  22.514  0.0199 -0.0804  0.0739
59592W        W 2505  14.245  13.930  23.241  0.0690 -0.3312  0.1138
59593W        W 2506  10.297  34.310   4.602  0.0271 -0.0170 -0.1493
59594W        W 2507  22.831  24.777  28.743 -0.5475 -0.1525 -0.0376
59595W        W 2508  11.055  28.733  23.558  0.0765 -0.1529  0.2268
59596W        W 2509  10.405   7.561  25.254 -0.1741  0.1411  0.0931
59597W        W 2510   9.631  23.928  23.083 -0.2176 -0.0360  0.0016
59598W        W 2511  13.424  13.879  22.776 -0.2742 -0.0985  0.3378
59599W        W 2512  13.076   6.049  27.031  0.3416  0.1969 -0.2171
59600W        W 2513   4.734   8.534  21.535 -0.1649 -0.4964  0.0610
59601W        W 2514   6.616  27.359  28.604  0.4364  0.1401  0.3662
59602W        W 2515   1.111  23.255  24.903  0.0359  0.1140  0.2234
59603W        W 2516  13.280   8.725  27.673 -0.2322  0.2819  0.1413
59604W        W 2517  14.309  14.974  16.688 -0.0072  0.1017  0.2658
59605W        W 2518   4.491  18.601  15.847  0.1319  0.1120  0.1240
59606W        W 2519   8.044  17.704  23.419  0.1546 -0.1450 -0.0663
59607W        W 2520  21.107  12.672  14.763  0.0832  0.0158 -0.2155
59608W        W 2521  14.424  21.266  29.101  0.1395  0.2949  0.0166
59609W        W 2522  12.522  11.800   2.385 -0.2105  0.1656 -0.1025
59610W        W 2523   9.361  15.190  17.580 -0.0786 -0.1032 -0.1792
59611W        W 2524  10.084   6.490  29.560  0.0814 -0.0642 -0.3214
59612W        W 2525  15.808  13.761  21.659 -0.2684 -0.0099 -0.1461
59613W        W 2526  12.411  11.988  25.080  0.0139 -0.1620 -0.0095
59614W        W 2527  17.147  15.776   5.397  0.3001  0.1238  0.1088
59615W        W 2528   8.593   9.736  22.783  0.0875  0.0800 -0.0836
59616W        W 2529  19.509   8.983  20.839  0.0146 -0.0625  0.1369
59617W        W 2530   9.250  20.145  19.714  0.2610  0.4308 -0.0378
59618W        W 2531  10.201  22.113  29.500  0.1119 -0.2368 -0.2721
59619W        W 2532   9.601   1.624   1.180  0.3306 -0.0492  0.1602
59620W        W 2533  14.211  14.735   3.029  0.1022  0.0134 -0.2260
59621W        W 2534  24.455   4.404  28.732  0.0356  0.0399 -0.1524
59622W        W 2535   4.578   7.646  22.690  0.3140 -0.0423  0.0271
59623W        W 2536   9.146  13.884  18.555  0.1387 -0.1803 -0.0147
59624W        W 2537  16.351  19.077  12.113 -0.0652 -0.0159  0.3141
59625W        W 2538  20.117  11.670  23.879 -0.0808 -0.0385  0.1556
59626W        W 2539  19.919  18.270  26.524  0.0886 -0.0455 -0.3628
59627W        W 2540  17.032   5.895  28.056  0.0472  0.0058  0.3676
59628W        W 2541  12.977   7.730  20.523 -0.3649 -0.3109 -0.0297
59629W        W 2542   5.223  15.051  26.014  0.4045 -0.0712  0.0152
59630W        W 2543  11.060  19.199   5.587 -0.4342 -0.1442 -0.1028
59631W        W 2544  13.596  24.671   1.521  0.1170  0.0362 -0.0416
59632W        W 2545  11.671  31.741  11.028  0.2551 -0.0907  0.1512
59633W        W 2546  12.445  15.728  24.271  0.2772 -0.0284 -0.0716
59634W        W 2547   8.280  19.450   3.164  0.2960 -0.1549 -0.0893
59635W        W 2548  18.541  19.627  27.360 -0.0323  0.0119  0.4073
59636W        W 2549  27.978  18.242   3.418 -0.3030 -0.1371  0.0683
59637W        W 2550  10.354  22.169  23.208 -0.0201  0.2004  0.1845
59638W        W 2551  14.361  18.696  28.341  0.0990 -0.1764 -0.2582
59639W        W 2552  10.029  12.444  22.650 -0.2095 -0.0837 -0.4294
59640W        W 2553   8.978  11.204  25.382 -0.2984 -0.1036 -0.2261
59641W        W 2554  13.650  15.021  26.180  0.2346 -0.2354  0.1276
59642W        W 2555   7.732   5.839   0.155 -0.0906 -0.1173 -0.1737
59643W        W 2556  33.048  16.042  25.259 -0.2315  0.0008  0.1116
59644W        W 2557  12.125  28.987  16.881  0.2999  0.0524 -0.1650
59645W        W 2558  17.929  15.535  25.204  0.1272 -0.0124  0.0283
59646W        W 2559  12.694   9.932  27.662 -0.2909 -0.0946 -0.1524
59647W        W 2560  15.848  18.191  24.175 -0.2562 -0.0147 -0.0672
59648W        W 2561   4.356  12.663  21.203  0.2009 -0.0569 -0.2821
59649W        W 2562  14.052   5.930  15.349  0.2155  0.5588 -0.0631
59650W        W 2563  14.639  32.788   0.533 -0.0164 -0.0419  0.2183
59651W        W 2564   5.619  11.736  28.628 -0.0207 -0.1842 -0.0627
59652W        W 2565  15.189  25.564  27.741 -0.2089  0.0479  0.0203
59653W        W 2566  24.098  11.250  21.471  0.3549 -0.0208  0.3876
59654W        W 2567  14.558  22.406  24.867  0.0638  0.0904 -0.1883
59655W        W 2568  14.771  16.568  29.227  0.1230 -0.4077 -0.0120
59656W        W 2569   8.860   5.116  17.699  0.0179 -0.1592  0.2836
59657W        W 2570  14.412  19.321  26.847 -0.2585  0.0146  0.0903
59658W        W 2571  15.769  14.773  13.522 -0.1093  0.2211 -0.3462
59659W        W 2572  29.660  19.527   2.835 -0.2243  0.0949  0.0116
59660W        W 2573   9.938  20.627  20.876 -0.0151 -0.3163 -0.1034
59661W        W 2574  10.275  11.734  26.067  0.1648  0.2871 -0.0013
59662W        W 2575  10.818  31.142   0.799  0.0183  0.1165 -0.0584
59663W        W 2576  15.508   9.157   9.132  0.1095  0.0504 -0.1660
59664W        W 2577  20.248  23.328  25.581  0.2228 -0.2042  0.0596
59665W        W 2578  12.626  13.459  16.252 -0.1997 -0.1395 -0.2729
59666W        W 2579  16.030  14.705  23.429 -0.0350 -0.1726 -0.0486
59667W        W 2580  26.568   1.792   6.284 -0.1558 -0.1135  0.2357
59668W        W 2581   9.090  30.543   3.576  0.0934 -0.2832 -0.2285
59669W        W 2582  12.295  16.308  16.768  0.1590  0.1744 -0.2940
59670W        W 2583  11.250  12.536  20.916 -0.0736  0.0600  0.0282
59671W        W 2584   5.445  26.747   3.192 -0.0135  0.1371  0.1263
59672W        W 2585   9.686  24.309  27.122 -0.3671  0.0810  0.0454
59673W        W 2586  15.075   9.110  15.197  0.0107 -0.1526  0.1177
59674W        W 2587   2.793  15.665  24.694 -0.0858 -0.0474  0.2242
59675W        W 2588   9.182  17.958  28.662  0.0614 -0.1344  0.2275
59676W        W 2589  21.765   4.209  21.815  0.0394  0.5696 -0.1278
59677W        W 2590  12.583  13.924   3.035  0.1515 -0.0166 -0.1024
59678W        W 2591  11.874  16.190  28.327 -0.0441  0.0698  0.4905
59679W        W 2592  15.930  21.226  29.670  0.3661 -0.0925  0.1491
59680W        W 2593  10.476  22.625   5.946  0.0279  0.3822 -0.0233
59681W        W 2594   3.487  13.831  29.447 -0.3553  0.0240  0.1720
59682W        W 2595  11.840  22.689  28.259 -0.0099  0.0598  0.0420
59683W        W 2596   1.229   4.579   0.332  0.1257 -0.1060 -0.0975
59684W        W 2597   9.350  19.431  27.002 -0.1971  0.0406  0.0918
59685W        W 2598  15.275  30.788   1.801  0.0009  0.0413  0.0698
59686W        W 2599  13.574  17.337  27.189  0.1767  0.2191 -0.0005
59687W        W 2600  11.673  21.591   2.079 -0.4597 -0.5066 -0.0144
59688W        W 2601  23.330   7.452  26.862  0.2101 -0.0342  0.1373
59689W        W 2602   1.132  12.625  22.703 -0.0483  0.0468 -0.1502
59690W        W 2603   5.877  16.168   6.130 -0.0622  0.1710 -0.1245
59691W        W 2604   5.054  13.405  16.664  0.2215 -0.0921  0.1679
59692W        W 2605   5.897   6.837   4.318 -0.0823  0.0169 -0.0384
59693W        W 2606   4.563  29.040  27.444  0.2680  0.0104 -0.0209
59694W        W 2607   9.164  14.636   0.732 -0.1730 -0.0387  0.0291
59695W        W 2608  12.206  21.744  23.719  0.3433 -0.1216 -0.2119
59696W        W 2609   8.649  29.041  26.450 -0.2905 -0.0379 -0.0229
59697W        W 2610   5.594   6.557  12.763  0.1643  0.1045 -0.2141
59698W        W 2611   7.405  22.406   8.287 -0.2259  0.1048 -0.0616
59699W        W 2612  12.853  22.262   0.282  0.0948 -0.0780  0.1697
59700W        W 2613   4.434  12.940  23.642  0.0698  0.0295 -0.2465
59701W        W 2614  13.195  25.006   5.755 -0.0482  0.2052 -0.0434
59702W        W 2615   7.933  16.924   6.151  0.0872  0.0894  0.0732
59703W        W 2616   7.219  11.947   3.439 -0.1468 -0.0111  0.2944
59704W        W 2617  19.010  20.155   3.199  0.0269 -0.1198 -0.0440
59705W        W 2618   7.378  13.603   7.360 -0.0513  0.0232  0.3710
59706W        W 2619   8.143   4.332  12.873  0.1512  0.0672  0.2698
59707W        W 2620   2.382  24.109  19.448  0.0023  0.1071  0.1112
59708W        W 2621  14.062   9.794  24.662 -0.0465  0.0759 -0.0758
59709W        W 2622  13.400  14.857  21.724  0.1691 -0.0360  0.0126
59710W        W 2623  10.558  20.750  20.301  0.0153 -0.1006  0.0352
59711W        W 2624  10.974  11.318  20.200 -0.1035 -0.0206  0.0960
59712W        W 2625   2.109  17.647   7.638 -0.4049  0.3621  0.1212
59713W        W 2626   8.024  11.165  25.528 -0.0578 -0.1061  0.2112
59714W        W 2627  18.718   2.809  24.525  0.1475 -0.1181  0.1617
59715W        W 2628  11.443  21.894  27.584  0.4485  0.2136 -0.0906
59716W        W 2629  11.998   6.609   2.251  0.0014  0.0428  0.1909
59717W        W 2630   5.444  16.265   9.635 -0.3632 -0.1570 -0.3417
59718W        W 2631   0.830   8.554  23.293 -0.2693 -0.1672  0.4267
59719W        W 2632  10.084  21.008   0.510 -0.2654 -0.0002  0.0739
59720W        W 2633  18.774   9.546  22.977  0.1675  0.1524  0.0801
59721W        W 2634  13.313  14.109  29.678  0.0244  0.0662 -0.0319
59722W        W 2635   5.687  31.927  15.780 -0.2007 -0.1861 -0.2472
59723W        W 2636   9.503  26.650  21.895  0.0055 -0.3250  0.0964
59724W        W 2637   7.836   7.904  23.659  0.1405 -0.1020 -0.1356
59725W        W 2638  13.208   9.514  26.897 -0.1941 -0.2350  0.4373
59726W        W 2639  11.970  21.738   0.234 -0.3694 -0.2930  0.1527
59727W        W 2640   3.168   9.264   4.512 -0.0029 -0.0335 -0.2501
59728W        W 2641   2.817  16.707  28.429  0.1653  0.0047 -0.1713
59729W        W 2642  17.529  16.031  29.187  0.3919  0.0206  0.1967
59730W        W 2643  11.387  22.019  26.221 -0.0812  0.2176 -0.2113
59731W        W 2644  10.535  21.316  29.270 -0.2098  0.0922  0.3850
59732W        W 2645  11.507  10.600  17.202  0.4923 -0.0424 -0.0278
59733W        W 2646  12.972  18.547  20.364  0.1451  0.2410  0.0437
59734W        W 2647  10.174  23.521  27.943 -0.2341 -0.1758  0.0450
59735W        W 2648  13.952  21.821   6.813  0.1820 -0.0464 -0.0863
59736W        W 2649   6.076   8.892  27.090 -0.1072  0.1636 -0.0354
59737W        W 2650  17.176  22.246  21.028  0.0295 -0.1324  0.2656
59738W        W 2651   8.154   7.325  26.114  0.1601  0.0004 -0.3219
59739W        W 2652  12.563  13.690  26.868 -0.2289  0.1398 -0.2382
59740W        W 2653  20.562  18.761   1.792  0.1102  0.0034 -0.1792
59741W        W 2654   2.923   5.378  20.500 -0.2321  0.2359  0.0912
59742W        W 2655  22.504  17.736   0.890 -0.1885 -0.0748 -0.0730
59743W        W 2656  29.531  14.187   6.845 -0.1344 -0.1749  0.2410
59744W        W 2657  19.144  25.937  22.745 -0.1948  0.1417  0.1073
59745W        W 2658   9.095   9.720  22.682  0.1186  0.2105  0.2338
59746W        W 2659  18.565  24.249   3.622 -0.1557  0.4446 -0.2982
59747W        W 2660   2.745   9.710  27.632 -0.0274 -0.0312 -0.0332
59748W        W 2661  11.481   5.088  18.012 -0.2217  0.1659  0.0014
59749W        W 2662   6.493   8.287  23.964  0.2166 -0.3647 -0.0383
59750W        W 2663  29.592  19.873  24.943 -0.0923 -0.2958 -0.0561
59751W        W 2664   8.624   7.026  27.381  0.0652 -0.0337 -0.2208
59752W        W 2665  11.148   6.248   0.351 -0.0114  0.0407  0.1208
59753W        W 2666  11.725  16.243  21.717 -0.1779  0.0789  0.1976
59754W        W 2667  13.334  14.751   4.640 -0.1679  0.0089 -0.2765
59755W        W 2668  27.226  18.953   5.939 -0.2090  0.0492  0.0739
59756W        W 2669  11.409  19.231   4.195 -0.1279 -0.0145 -0.1672
59757W        W 2670  10.739  21.511   6.135  0.2429 -0.3559 -0.0833
59758W        W 2671  14.072  21.080   2.968  0.1365 -0.0459  0.1120
59759W        W 2672   9.685  25.188  27.455  0.0923 -0.0256  0.2951
59760W        W 2673  34.411  11.364  27.373  0.0876 -0.1646 -0.0025
59761W        W 2674  16.286  19.961   0.945  0.1850  0.0240  0.0299
59762W        W 2675  16.068   3.067  25.336 -0.2887  0.5268  0.1607
59763W        W 2676   3.196  16.081   3.872 -0.2868  0.0736  0.2767
59764W        W 2677  13.949  23.211  25.640  0.1073  0.0707 -0.2914
59765W        W 2678  11.117  14.669  20.072  0.2587  0.0550  0.0030
59766W        W 2679   6.620  25.401  27.381  0.0332 -0.0347 -0.0625
59767W        W 2680  34.114   8.321  27.662  0.0216  0.2254 -0.0814
59768W        W 2681   9.110  19.207  29.517 -0.0613  0.0811  0.0528
59769W        W 2682  10.193  17.822  24.661  0.2211 -0.1368  0.3668
59770W        W 2683  16.984  15.488  28.939  0.2002  0.1475  0.3517
59771W        W 2684  12.109  26.533  28.275  0.1845  0.1746 -0.1078
59772W        W 2685  12.455  12.075  26.669 -0.0880 -0.0217 -0.2567
59773W        W 2686   5.714  29.657   2.001 -0.0225 -0.1775 -0.1860
59774W        W 2687  13.731  15.414   8.186  0.2922  0.5043  0.2452
59775W        W 2688  15.889  27.306  19.749 -0.4143  0.0889  0.1412
59776W        W 2689  12.861  15.749  26.386 -0.0039  0.2543 -0.2839
59777W        W 2690  13.178   8.751  28.694 -0.1103  0.1322 -0.2035
59778W        W 2691  15.334  14.086  28.264  0.0039  0.1547 -0.0239
59779W        W 2692  13.765  21.842  24.898  0.0449  0.0684  0.0942
59780W        W 2693  11.307  20.946   2.820  0.3591  0.0862  0.1551
59781W        W 2694   8.531  20.598  24.144 -0.1548  0.0651 -0.1495
59782W        W 2695  14.522  22.801   9.387 -0.1460 -0.2043 -0.0977
59783W        W 2696  19.568  10.037   4.969 -0.1509 -0.2473 -0.1120
59784W        W 2697  16.943  13.349  14.886  0.2825 -0.0712  0.0611
59785W        W 2698  13.800   2.883  17.196  0.1389 -0.3728 -0.1537
59786W        W 2699  11.736   7.090  26.975 -0.2095 -0.0927  0.1990
59787W        W 2700   6.661  26.243  25.980  0.0723 -0.0253  0.0346
59788W        W 2701  31.484  29.574  25.727  0.1731  0.0321  0.1672
59789W        W 2702  26.685   9.300  18.723 -0.0760  0.0708  0.2034
59790W        W 2703  16.006  12.140  20.859 -0.1303  0.1894  0.2967
59791W        W 2704  17.134  26.508   6.135 -0.1341 -0.1211 -0.0640
59792W        W 2705   8.258   4.840   1.974 -0.1162  0.2370 -0.0228
59793W        W 2706   7.494  18.918  22.843 -0.1593 -0.0063 -0.1453
59794W        W 2707   0.948  34.364   0.859 -0.2897  0.2708 -0.1999
59795W        W 2708   4.695  28.731  24.169 -0.2032 -0.3248  0.0962
59796W        W 2709  20.243  13.317  27.693 -0.1114 -0.0874 -0.0266
59797W        W 2710   8.998   9.562  29.172  0.1047  0.0695  0.0813
59798W        W 2711  10.129   7.707  28.735  0.2675  0.1843 -0.1922
59799W        W 2712  17.409  19.654   3.411 -0.4390 -0.0284 -0.2024
59800W        W 2713  13.460  22.174  26.675 -0.1944  0.0627 -0.0400
59801W        W 2714  12.950  18.986  24.859 -0.1204 -0.2920 -0.1727
59802W        W 2715   9.224  26.720   2.321  0.1380 -0.0241  0.0359
59803W        W 2716  21.661  12.736   1.183 -0.1323  0.1756  0.2682
59804W        W 2717   7.910   9.088   6.358 -0.0789  0.3442 -0.4567
59805W        W 2718   9.011  30.045  25.869  0.2676  0.3492  0.0194
59806W        W 2719  18.587  21.111  26.638 -0.1472  0.1569  0.1730
59807W        W 2720  18.623  20.987  24.481  0.0691 -0.1554  0.0224
59808W        W 2721  12.930  15.205  21.796 -0.3684  0.0730  0.1781
59809W        W 2722   8.828  16.277  27.673 -0.0160  0.2629 -0.1841
59810W        W 2723  13.938  14.381   5.402 -0.2492  0.0586 -0.0890
59811W        W 2724  15.527  18.748  24.415 -0.0758  0.1554  0.1072
59812W        W 2725  20.486  15.879  24.184  0.0073  0.1881 -0.0723
59813W        W 2726  32.427  15.416  26.552  0.0095 -0.0698 -0.0250
59814W        W 2727  11.551  18.103  29.263 -0.0014 -0.1407  0.0482
59815W        W 2728  12.169  23.809   4.019  0.0795 -0.1756  0.1316
59816W        W 2729  11.019  15.927  24.671  0.1021  0.0505 -0.0771
59817W        W 2730   9.922  19.572  15.517  0.3844 -0.3989 -0.0102
59818W        W 2731  18.435  13.759   2.946  0.1331  0.0198 -0.0334
59819W        W 2732   7.563  19.108   6.638 -0.0420  0.1719  0.2154
59820W        W 2733   9.999  30.748  26.984 -0.0657  0.3291 -0.0537
59821W        W 2734  12.361  18.518  29.499 -0.1058 -0.0090 -0.1388
59822W        W 2735  12.700  20.880  15.400  0.3396  0.1464  0.0253
59823W        W 2736   8.683  22.467  17.778 -0.1232 -0.2191 -0.2983
59824W        W 2737  17.902  11.865   1.056 -0.0071  0.1876 -0.3876
59825W        W 2738  19.879  13.222  18.838 -0.1809 -0.2924  0.0644
59826W        W 2739  12.980  32.329  22.112  0.1330 -0.3101  0.0196
59827W        W 2740   5.500  17.822  28.784  0.2329 -0.0551 -0.4197
59828W        W 2741  12.313  14.708  25.939 -0.1007  0.0340 -0.0669
59829W        W 2742   6.325  15.814   4.704  0.3500  0.1634 -0.1792
59830W        W 2743  17.220  22.803  21.919  0.2183 -0.0639  0.0384
59831W        W 2744  13.384   8.821   2.026  0.1668  0.2536 -0.2738
59832W        W 2745   7.837  13.777  19.875 -0.1655 -0.0669  0.0029
59833W        W 2746  14.267  23.005  14.481 -0.0104 -0.0159 -0.0818
59834W        W 2747  14.859  20.815  20.979  0.2691 -0.3550 -0.0503
59835W        W 2748  33.958  11.195   2.560 -0.1114  0.3351  0.1168
59836W        W 2749  17.194  15.053   2.040  0.1105  0.1719 -0.0162
59837W        W 2750  15.484  13.410  25.253  0.1089  0.0878 -0.2576
59838W        W 2751   4.083  15.998   0.449 -0.3295 -0.1199 -0.4050
59839W        W 2752  11.330  26.612  23.898 -0.0389  0.1337 -0.2165
59840W        W 2753  21.779   7.805  27.018  0.1613  0.2996 -0.2087
59841W        W 2754  33.498   9.719   4.276  0.6546 -0.0893 -0.1611
59842W        W 2755  15.814  10.158  18.888 -0.1223  0.0906 -0.0154
59843W        W 2756  16.848  14.230  27.314  0.1900 -0.3423 -0.1711
59844W        W 2757  15.900  19.184  27.638  0.0030  0.0605 -0.1672
59845W        W 2758   5.651  30.240  29.088  0.3453  0.1487  0.1335
59846W        W 2759  11.134  11.087   5.680 -0.0017 -0.0097 -0.1717
59847W        W 2760  34.074  10.412  19.833 -0.1953 -0.1107  0.1067
59848W        W 2761   1.625  19.655  17.572 -0.1633 -0.0121  0.0122
59849W        W 2762  13.019  19.701  16.333  0.0787 -0.1831  0.0275
59850W        W 2763  13.768  19.090   5.853 -0.1934  0.0566  0.3581
59851W        W 2764  10.765  12.848   0.538  0.0691  0.1679 -0.4143
59852W        W 2765   9.145   8.448  29.365 -0.3364 -0.0311 -0.1562
59853W        W 2766  21.192  25.134   1.088 -0.2862 -0.1498 -0.2098
59854W        W 2767  16.214   7.934   3.279  0.0095  0.0175  0.0468
59855W        W 2768  20.766  24.036   7.989 -0.2596  0.0255 -0.2479
59856W        W 2769  17.491  25.140  21.060 -0.1303 -0.0561  0.2969
59857W        W 2770   7.881  26.663   4.168  0.0789  0.0567  0.4926
59858W        W 2771  16.055  12.737  24.370 -0.1596  0.0495 -0.0998
59859W        W 2772  13.863  11.187  18.283 -0.1561  0.0346 -0.1694
59860W        W 2773   7.609  19.854   1.245  0.1198  0.1578 -0.3303
59861W        W 2774  10.197  25.291   1.346 -0.2439  0.0213  0.0158
59862W        W 2775  14.214  16.273  26.521  0.2041  0.0178  0.0099
59863W        W 2776  12.235  17.004  22.264  0.3094 -0.0944  0.2739
59864W        W 2777  12.380  21.817  28.514 -0.0822  0.0004  0.0798
59865W        W 2778  33.383  10.412  25.283 -0.2177  0.3386  0.0378
59866W        W 2779   1.408  17.529  26.149 -0.0846  0.0229  0.1719
59867W        W 2780  31.484   6.804  21.415  0.2171 -0.3572  0.1251
59868W        W 2781   9.396   8.932  23.331 -0.2775  0.0380  0.0736
59869W        W 2782  15.719  16.266  22.560 -0.0742 -0.1056  0.2111
59870W        W 2783  11.753  16.637  21.083 -0.0595 -0.1480  0.1951
59871W        W 2784   7.243  15.043  21.650 -0.3775 -0.1820 -0.4075
59872W        W 2785  11.187  25.831   2.046 -0.0069  0.2093 -0.0930
59873W        W 2786   6.320  19.381  26.865  0.1038 -0.1788  0.2912
59874W        W 2787  15.171  17.301  24.008 -0.0079 -0.0304 -0.1254
59875W        W 2788  13.737  17.898  28.063  0.0545  0.0777 -0.0228
59876W        W 2789  17.604  17.570  24.064 -0.1177 -0.1341 -0.0254
59877W        W 2790   6.010  30.305  24.100  0.0621  0.0150 -0.2318
59878W        W 2791  16.078  16.430  24.461  0.0785 -0.2525 -0.0059
59879W        W 2792   7.414  10.566  10.975 -0.0186  0.6166  0.2363
59880W        W 2793  15.104  32.604   0.415  0.0377  0.0405  0.3332
59881W        W 2794  18.665  16.669  26.191 -0.1681  0.0772 -0.0863
59882W        W 2795   4.951  30.586   1.825  0.0780  0.0528  0.1974
59883W        W 2796  17.450  13.999   2.725  0.2720 -0.2175 -0.0604
59884W        W 2797  15.811  14.425   3.811  0.1205  0.2084  0.0756
59885W        W 2798  16.164  13.743  28.696  0.0415  0.0916 -0.0746
59886W        W 2799  10.946   9.113   5.227 -0.1762  0.3142 -0.1968
59887W        W 2800  20.620  32.779  28.582 -0.1764  0.0515 -0.1644
59888W        W 2801   7.529  12.165  27.035  0.4099 -0.0939 -0.0484
59889W        W 2802   9.289  20.301   6.225  0.2449  0.2520 -0.0637
59890W        W 2803   4.296  16.351   1.525  0.2171 -0.0211 -0.1100
59891W        W 2804   3.794  11.588  20.383  0.0642 -0.1709 -0.0979
59892W        W 2805  12.417  10.373  27.483 -0.1526  0.2665  0.0512
59893W        W 2806  28.606   3.090  19.109  0.3699 -0.1566  0.0170
59894W        W 2807   5.411  21.281  29.567 -0.2574  0.1671  0.0670
59895W        W 2808  18.676   9.876  16.812 -0.2748  0.0989 -0.0433
59896W        W 2809  16.749  10.388  23.366  0.0751 -0.2412 -0.0634
59897W        W 2810  17.021  11.873  29.347 -0.0527 -0.1441 -0.0863
59898W        W 2811  12.418  17.343   2.741  0.6249  0.3717 -0.1236
59899W        W 2812  14.123  17.444  22.622  0.1651  0.2016 -0.0811
59900W        W 2813  16.066  18.552  26.239  0.3330 -0.1755  0.1199
59901W        W 2814   9.469  24.563   3.174  0.0864  0.1395  0.1391
59902W        W 2815  13.336   7.400  26.909 -0.4302  0.1433  0.1090
59903W        W 2816   0.145  10.451   5.674 -0.2582 -0.0815 -0.0611
59904W        W 2817  11.675  25.890   4.162 -0.0047  0.0822 -0.0571
59905W        W 2818  12.863  21.348  26.447  0.1861  0.1246  0.0353
59906W        W 2819   1.428  23.938  21.902 -0.2078 -0.1537 -0.1402
59907W        W 2820  14.635  13.228  20.766  0.1599  0.1000  0.3065
59908W        W 2821  12.438  22.233  27.635  0.0369 -0.1299  0.1037
59909W        W 2822   9.897  19.136  20.793 -0.1156  0.2937 -0.0646
59910W        W 2823  15.279  19.948   8.377  0.1379 -0.3187 -0.2336
59911W        W 2824  14.756  21.602  21.219 -0.0187 -0.1545  0.1774
59912W        W 2825  10.655  12.512   2.813 -0.1263  0.1900  0.3249
59913W        W 2826  12.060  22.014   2.866 -0.1288  0.1594  0.0600
59914W        W 2827   7.834  28.591   6.038  0.3414 -0.0056  0.1510
59915W        W 2828   8.535   8.766  25.868 -0.2693  0.0902  0.2153
59916W        W 2829  30.741  13.016  24.356 -0.0179 -0.0928 -0.2928
59917W        W 2830   5.656  16.923   1.846 -0.0293 -0.1891 -0.0105
59918W        W 2831  10.583  23.596  20.828  0.1987 -0.2182 -0.0327
59919W        W 2832   0.301  22.832  22.186  0.0793  0.0061 -0.1392
59920W        W 2833  13.330  16.351  17.278 -0.2737 -0.1560  0.3414
59921W        W 2834   7.290   8.940  25.877 -0.0304  0.0748 -0.0838
59922W        W 2835   8.834  17.676   4.589  0.0680 -0.3829  0.1177
59923W        W 2836   9.218  22.092   4.612 -0.0974  0.0582  0.2563
59924W        W 2837  11.685  16.672   1.498 -0.2968  0.1774  0.3175
59925W        W 2838  10.585  20.885  24.815  0.3441  0.2466  0.1114
59926W        W 2839  11.404  21.670  23.125 -0.0377  0.0986 -0.0926
59927W        W 2840  10.585  11.038  21.500  0.3435  0.1816  0.1338
59928W        W 2841   9.575  22.711   1.420 -0.0899 -0.0292 -0.0991
59929W        W 2842  11.201  17.685  23.143  0.0243  0.4468 -0.0424
59930W        W 2843  13.869   5.895   7.497 -0.1154  0.1345  0.4996
59931W        W 2844   6.838  24.483  26.862 -0.1503  0.1025 -0.4462
59932W        W 2845  16.852  18.972  22.714  0.2047 -0.0370  0.0346
59933W        W 2846  11.141  13.475  28.779 -0.2023 -0.0951  0.0366
59934W        W 2847  15.820  24.152  27.956  0.2564  0.1047 -0.0158
59935W        W 2848  11.070  23.520  24.722  0.1946 -0.0887  0.0001
59936W        W 2849  10.026  25.199  21.478  0.2461 -0.4448  0.0101
59937W        W 2850  10.754  12.993   2.561  0.3050  0.0576 -0.0601
59938W        W 2851  10.877  22.683  28.170  0.1482  0.0009  0.1559
59939W        W 2852  14.891  16.341  25.272 -0.3816 -0.0412 -0.0056
59940W        W 2853  10.130  16.774  18.088  0.2355 -0.0205  0.3429
59941W        W 2854   8.311   1.303  28.027  0.1129 -0.0737  0.1526
59942W        W 2855  14.419   7.288  25.900 -0.2335 -0.0404 -0.1154
59943W        W 2856  17.902  13.239  25.168 -0.0980 -0.0349  0.2184
59944W        W 2857   9.705  23.360   7.492 -0.0402 -0.1391  0.1763
59945W        W 2858  24.302  14.578   7.741 -0.1820  0.0120  0.1136
59946W        W 2859  11.658  14.910  27.839 -0.0050  0.1053 -0.2015
59947W        W 2860  25.870  16.419  29.652 -0.2327  0.0875  0.0441
59948W        W 2861  18.359  13.164  24.588  0.1469 -0.1552 -0.2185
59949W        W 2862   6.600  13.015   0.532 -0.0384 -0.1492  0.0267
59950W        W 2863   9.242  12.523  15.306  0.3428  0.0640 -0.1754
59951W        W 2864  12.387   3.407  24.862  0.0472  0.2354  0.1464
59952W        W 2865  15.403  17.584  22.639  0.0106  0.1386  0.3762
59953W        W 2866  14.430  17.965  29.294 -0.2729  0.0214 -0.3340
59954W        W 2867  10.620  26.325   0.371  0.1756  0.0079  0.0380
59955W        W 2868  11.578  16.736   7.156 -0.2032 -0.0994  0.0404
59956W        W 2869   2.684  14.954   3.059  0.0022 -0.2261 -0.0897
59957W        W 2870   8.682  21.838   3.515  0.1393 -0.2259 -0.1276
59958W        W 2871  13.617  18.000   1.537 -0.0548  0.1205  0.0814
59959W        W 2872   9.041  23.356  20.446 -0.0069 -0.1691 -0.0379
59960W        W 2873   6.092   9.031   6.693  0.1921 -0.2583  0.1893
59961W        W 2874   4.920  14.784   2.818 -0.0502 -0.2662 -0.0575
59962W        W 2875   7.702  18.913  25.110 -0.0416  0.1232  0.0558
59963W        W 2876   1.679  24.173  23.189 -0.0137 -0.0307 -0.2807
59964W        W 2877  11.376   8.983  15.556 -0.0600  0.1561 -0.3295
59965W        W 2878   8.273  20.713  24.744  0.0643  0.1789  0.0271
59966W        W 2879  13.860  20.105  12.614 -0.1834 -0.1585  0.3302
59967W        W 2880  12.942  14.568  16.886  0.1113  0.3968  0.0602
59968W        W 2881   9.585  12.387  13.867 -0.2369 -0.0560 -0.1161
59969W        W 2882   5.232   6.037  19.077  0.1003  0.4325 -0.2348
59970W        W 2883  17.525  33.904  21.007 -0.0865 -0.0685  0.2024
59971W        W 2884  14.711  20.764  12.684 -0.1404  0.0047 -0.1687
59972W        W 2885   6.241  18.291  16.309 -0.0399 -0.0709 -0.0971
59973W        W 2886  14.512  19.565  16.228 -0.2335  0.2315 -0.1723
59974W        W 2887  25.883  26.931  15.027  0.1609  0.1509  0.1579
59975W        W 2888   8.570  21.624  18.953  0.0859  0.0277  0.0213
59976W        W 2889  21.231  22.941  18.065  0.0200  0.1937 -0.2313
59977W        W 2890   9.629  17.562  21.407 -0.1043  0.1638 -0.0371
59978W        W 2891   9.261  23.819  16.305  0.0807 -0.1251  0.2065
59979W        W 2892   8.515  16.723  14.249  0.1073  0.0905  0.1116
59980W        W 2893  13.962  20.286  15.279  0.3502 -0.2486  0.1645
59981W        W 2894  27.028  11.022  15.849 -0.3257 -0.2744 -0.0501
59982W        W 2895   7.144  18.115  15.134 -0.2034  0.3062 -0.3039
59983W        W 2896  21.485  15.372  16.248  0.4129  0.1266  0.0024
59984W        W 2897  14.039   5.314  19.002 -0.0756 -0.1494  0.5036
59985W        W 2898  12.422  16.862  16.469 -0.0560  0.1363  0.0317
59986W        W 2899   0.747  17.058  17.715  0.1333 -0.0597  0.0263
59987W        W 2900   1.220   9.547  21.224  0.0067  0.0194  0.3332
59988W        W 2901   8.573  11.344  15.847  0.1704  0.0554 -0.1118
59989W        W 2902  11.930  14.441  14.587  0.0279  0.1066 -0.1771
59990W        W 2903  32.241  27.463  22.204  0.1217 -0.1857  0.2142
59991W        W 2904   8.588  21.094  13.289 -0.0186 -0.0300 -0.1715
59992W        W 2905  14.789  24.484  22.497  0.0389 -0.2150  0.1178
59993W        W 2906   5.428  22.710  19.714  0.1114  0.0135  0.4521
59994W        W 2907  16.678  21.754  14.651 -0.1928  0.2208  0.0948
59995W        W 2908  16.623  15.189  15.744 -0.0132  0.0336  0.1560
59996W        W 2909  24.980  16.832  19.785 -0.1009  0.0703 -0.0864
59997W        W 2910   1.497  21.757  27.001 -0.0392 -0.0067 -0.1209
59998W        W 2911   6.977  24.287  23.438 -0.4493 -0.0977 -0.2792
59999W        W 2912  12.484  16.046  14.155 -0.2082 -0.1119 -0.0506
60000W        W 2913  18.644  25.093  13.431  0.2133 -0.1491  0.1541
60001W        W 2914   6.650  12.031  15.019  0.0343 -0.0185  0.2782
60002W        W 2915   6.254  19.789  19.489 -0.1708 -0.3089  0.0809
60003W        W 2916   3.417  16.552  18.882 -0.3483 -0.0265 -0.1180
60004W        W 2917  21.074   3.559  17.572 -0.0254 -0.2674 -0.0811
60005W        W 2918  15.699   7.823  20.285  0.0139  0.1672 -0.0745
60006W        W 2919   7.029  16.011  16.067  0.1266 -0.1241 -0.2200
60007W        W 2920  16.379  19.311  13.184 -0.3545 -0.0073 -0.3324
60008W        W 2921   1.293  10.418   1.193 -0.1747 -0.0996 -0.1382
60009W        W 2922   7.213  30.202  15.865 -0.0153  0.2075  0.0229
60010W        W 2923  20.357   9.661  13.705  0.0512 -0.1805  0.2241
60011W        W 2924  19.145  10.972  12.659  0.0246 -0.1196  0.0160
60012W        W 2925  12.940  26.132  22.800 -0.0008 -0.0297  0.0558
60013W        W 2926  12.573  28.278  15.809 -0.1185 -0.1386 -0.1353
60014W        W 2927  14.011  16.199  15.364 -0.2225  0.0165 -0.0176
60015W        W 2928   3.934  21.114  21.676 -0.2483  0.2418  0.1967
60016W        W 2929  13.448  26.524  21.191 -0.0006 -0.1625  0.2813
60017W        W 2930  15.594  20.886  16.539 -0.2750  0.0797  0.1769
60018W        W 2931  25.579  19.174  14.311  0.2141 -0.0855 -0.0743
60019W        W 2932  16.013  13.440  18.837 -0.0062  0.0158 -0.0731
60020W        W 2933   5.864  31.527  17.597  0.2410 -0.1088 -0.0995
60021W        W 2934  20.797  21.324  21.368 -0.0703  0.1435  0.0457
60022W        W 2935  12.883  24.869  17.324 -0.3487 -0.0746  0.3219
60023W        W 2936   5.717  15.020  16.286 -0.0546 -0.0211  0.2017
60024W        W 2937  25.763  19.462  19.109  0.0010 -0.2594  0.0143
60025W        W 2938   9.855  23.411  15.477  0.1519  0.0420  0.2364
60026W        W 2939  19.043  22.991  15.157  0.1291  0.0234  0.0749
60027W        W 2940  16.756  20.583  13.003 -0.1857  0.1574  0.1672
60028W        W 2941  10.513  11.993  20.770  0.0963  0.0082 -0.1140
60029W        W 2942  21.969  23.340  13.167 -0.1918 -0.1074 -0.2785
60030W        W 2943  21.071  19.889  14.151 -0.0751 -0.2090 -0.1185
60031W        W 2944  26.562  11.997  15.342 -0.2252 -0.1705 -0.1334
60032W        W 2945  17.412  30.871  17.577 -0.0023  0.0740 -0.1328
60033W        W 2946  21.693  27.809  20.154 -0.2340 -0.2224  0.0067
60034W        W 2947  19.237   6.401  15.190 -0.1966  0.1980 -0.0301
60035W        W 2948   5.485  28.283  14.952 -0.1648 -0.1234 -0.2503
60036W        W 2949  15.351  22.221  15.858  0.3791 -0.0342 -0.1407
60037W        W 2950   4.246  18.045  24.708  0.2386  0.3205  0.1816
60038W        W 2951  19.373  29.862  25.297  0.1282 -0.0497 -0.1415
60039W        W 2952  12.409  24.742  17.463  0.2435 -0.0769 -0.2009
60040W        W 2953  12.230  15.308  14.677  0.3522  0.0801 -0.1931
60041W        W 2954  14.413  13.857  14.349 -0.0764 -0.1498  0.1324
60042W        W 2955  25.762  23.100  24.259  0.0962  0.3019  0.2779
60043W        W 2956  21.050   9.993  15.320  0.0666 -0.0061 -0.0700
60044W        W 2957  12.736  24.089  14.436  0.0021 -0.0762 -0.4393
60045W        W 2958  20.424  29.237  15.249  0.0802  0.1530 -0.2009
60046W        W 2959   8.238  22.866  17.803  0.1735 -0.4523  0.3569
60047W        W 2960  11.763  21.046  19.254 -0.2809  0.4235 -0.0737
60048W        W 2961   5.139  21.339  17.637  0.0998 -0.0275  0.0264
60049W        W 2962   7.332  25.743  22.451  0.3709  0.1066  0.0191
60050W        W 2963  16.391  13.335  13.453 -0.0824  0.0286  0.2560
60051W        W 2964  22.722  21.623  17.039 -0.0621 -0.0430 -0.0760
60052W        W 2965  15.367  14.562  13.798  0.2169  0.1777 -0.4077
60053W        W 2966  19.453  20.058  11.651 -0.0208 -0.3414  0.3424
60054W        W 2967   7.304  13.624  20.827 -0.1140 -0.3053  0.0788
60055W        W 2968  15.355  26.594  15.025 -0.1177  0.0319 -0.2430
60056W        W 2969  12.792  19.013  12.686  0.1675  0.0576 -0.0634
60057W        W 2970  17.923  10.635  12.937  0.0738  0.0874 -0.1375
60058W        W 2971  19.414   5.436  17.602  0.2442 -0.2054  0.0321
60059W        W 2972   8.907  27.381  22.145 -0.1903  0.1350 -0.3941
60060W        W 2973  19.737  25.536  17.275  0.0043 -0.0038 -0.1190
60061W        W 2974   2.571  24.346  17.959 -0.0768  0.2665 -0.3965
60062W        W 2975   6.193  20.877  14.102  0.1419  0.0934 -0.0120
60063W        W 2976   1.312  23.815  19.680  0.0664 -0.0750 -0.0461
60064W        W 2977  14.961   9.400  21.800 -0.0373  0.2092 -0.1774
60065W        W 2978  25.638  28.239  16.055 -0.1653 -0.5350  0.2942
60066W        W 2979  16.775  10.432  19.579 -0.0670 -0.1289  0.0146
60067W        W 2980  11.989  31.395  15.995  0.1882  0.0119  0.3783
60068W        W 2981  12.801  10.578  18.932  0.1743 -0.1426  0.0798
60069W        W 2982   6.360   7.173  22.238  0.2132  0.1937 -0.1987
60070W        W 2983  11.748  22.620  16.321  0.1494 -0.0463  0.0933
60071W        W 2984  21.726  26.765  29.073  0.0037 -0.1028  0.0552
60072W        W 2985  20.873  32.320  14.617 -0.1098  0.4010 -0.1612
60073W        W 2986   1.590  31.683  22.168 -0.3645  0.3272 -0.0893
60074W        W 2987  13.377   7.484  21.320 -0.2880  0.3856  0.0488
60075W        W 2988   6.523  19.152  18.928 -0.1600 -0.1657  0.2589
60076W        W 2989   7.040   1.692  19.670 -0.2123 -0.4174  0.0027
60077W        W 2990  21.416   1.550  21.083  0.3477 -0.1020 -0.0130
60078W        W 2991  14.063  15.797  13.152  0.0199  0.1729 -0.0590
60079W        W 2992   9.557  17.063  18.857  0.0384  0.1151  0.1236
60080W        W 2993  13.972  26.671  21.436 -0.3899  0.1167  0.0481
60081W        W 2994  17.420   7.697  17.712 -0.1102  0.1548  0.0332
60082W        W 2995   3.515  18.432  15.091  0.1089  0.1889  0.3284
60083W        W 2996  16.461  15.491  13.634  0.0561 -0.3509  0.1816
60084W        W 2997   9.423  12.541  16.924  0.2184 -0.0817 -0.0223
60085W        W 2998  31.003  20.978  23.185  0.1519  0.0508 -0.0660
60086W        W 2999   7.972  16.124  19.248 -0.0600 -0.0355  0.0189
60087W        W 3000  10.091  18.786  16.344  0.0460 -0.1917  0.0618
60088W        W 3001   9.796   8.617  20.688  0.0059 -0.0693 -0.1347
60089W        W 3002  23.626  22.219  20.861  0.0136  0.3523 -0.1536
60090W        W 3003  19.799  29.199  17.405  0.1024  0.1643  0.0361
60091W        W 3004  19.724  15.407  14.746 -0.3320  0.2143  0.1774
60092W        W 3005  16.720  10.369  15.379  0.0158 -0.2274 -0.3497
60093W        W 3006  10.802  17.220  14.003  0.0451 -0.0267 -0.4477
60094W        W 3007  15.537  25.990  20.980  0.4649 -0.3224  0.0329
60095W        W 3008  32.247  21.326  13.947  0.1923  0.2703 -0.1878
60096W        W 3009   5.820   9.026  24.994 -0.1286 -0.0105 -0.1395
60097W        W 3010  22.735  18.690  12.398  0.0967  0.1352 -0.0352
60098W        W 3011   1.384  10.283  18.828 -0.1496 -0.3184 -0.0627
60099W        W 3012  26.990  26.886  14.848 -0.2187  0.1244 -0.2212
60100W        W 3013   2.282  21.212  14.922  0.1015  0.0689 -0.0207
60101W        W 3014  22.175  26.091  28.512  0.0669 -0.3558  0.1000
60102W        W 3015  22.399  13.110  19.698  0.0329 -0.2161  0.0708
60103W        W 3016  10.299  11.225  14.642 -0.1851 -0.3348  0.3555
60104W        W 3017  17.855  26.653  17.710 -0.0396  0.1906  0.1654
60105W        W 3018   9.524  11.785  15.067  0.0700 -0.0481 -0.1488
60106W        W 3019   9.465  19.126  16.170 -0.0049  0.3350 -0.0429
60107W        W 3020  18.904  12.212  21.586  0.0177 -0.3872  0.2085
60108W        W 3021  11.687   8.155  17.973 -0.1661 -0.0377  0.3973
60109W        W 3022  11.717  14.572  16.516 -0.3607 -0.2919  0.1072
60110W        W 3023  21.752  22.605  15.632  0.0091 -0.0508 -0.3660
60111W        W 3024   9.282  23.450  17.574  0.2140  0.0463  0.0134
60112W        W 3025  12.112  25.600  20.643 -0.2959  0.4363 -0.2091
60113W        W 3026  11.008  20.540  18.251 -0.1313  0.3806  0.1156
60114W        W 3027  12.049  20.081  16.348 -0.0669  0.1424  0.0461
60115W        W 3028  14.773  31.171  18.685 -0.0947 -0.1897  0.0032
60116W        W 3029  10.050   7.859  20.164  0.0765  0.1045 -0.2662
60117W        W 3030   3.324  30.529  19.346  0.0525  0.0051  0.1090
60118W        W 3031  16.339   5.888  18.065 -0.1663  0.0619  0.2307
60119W        W 3032  11.960  22.982  18.600  0.1141  0.0263  0.0272
60120W        W 3033  14.803  15.662  15.288  0.1038  0.2182 -0.1714
60121W        W 3034  12.447  21.249  14.070 -0.1375  0.1239 -0.0865
60122W        W 3035  16.207  15.919  12.051  0.2437  0.0240  0.2263
60123W        W 3036  12.516  24.578  27.503  0.0555 -0.3407 -0.3642
60124W        W 3037  12.805  22.512  28.211 -0.0214 -0.3199 -0.2071
60125W        W 3038  10.745  19.604  18.611  0.0086  0.2982 -0.1030
60126W        W 3039   8.848  15.765  27.933 -0.0127 -0.0931  0.4808
60127W        W 3040   8.120  24.813  17.509 -0.4169 -0.0669  0.1516
60128W        W 3041  14.385  29.157  18.041  0.1062  0.2143 -0.0082
60129W        W 3042   6.764  29.466  19.190 -0.2019 -0.1897 -0.0030
60130W        W 3043  23.045  25.634  14.906  0.0073  0.1135  0.4884
60131W        W 3044  33.552  19.499  20.723  0.1774  0.0046  0.1423
60132W        W 3045  18.683  11.366  13.802  0.1491  0.2514  0.0271
60133W        W 3046  13.143  13.391  15.100 -0.1728  0.0979  0.0508
60134W        W 3047  12.781   8.512  16.012 -0.3563  0.4247  0.0749
60135W        W 3048  21.040  28.101  12.812  0.3574  0.0866  0.0641
60136W        W 3049  20.080  18.126  12.571 -0.0637  0.0131 -0.1151
60137W        W 3050  18.216  24.176  14.383  0.1340 -0.1626  0.1822
60138W        W 3051  21.690  25.242  17.296  0.0172  0.0848  0.1559
60139W        W 3052  29.972  22.424  16.052  0.2703  0.0728 -0.5305
60140W        W 3053   6.148  27.630  17.304 -0.0648 -0.0242  0.2671
60141W        W 3054  14.094  25.418  17.215  0.2380 -0.0087  0.3064
60142W        W 3055   4.888  17.026  15.698  0.2957  0.0605 -0.0506
60143W        W 3056   5.055  27.994  21.401  0.1065  0.1068  0.1747
60144W        W 3057  12.586  15.982  15.713 -0.0570 -0.0259  0.1368
60145W        W 3058   6.568  20.479  18.346  0.2075 -0.0038  0.0056
60146W        W 3059  10.373  21.915  25.829 -0.0951  0.0310  0.0542
60147W        W 3060  11.107  33.454  29.249 -0.2836  0.0459 -0.1337
60148W        W 3061  11.316  11.956  18.529  0.0698  0.2581 -0.0163
60149W        W 3062   7.975  18.905  13.488  0.1076 -0.0172  0.3057
60150W        W 3063  19.596  24.928  15.895  0.1242  0.2137 -0.0172
60151W        W 3064  10.034  23.892  15.173 -0.2055  0.1022  0.4568
60152W        W 3065  30.415  22.882  18.839  0.0199 -0.1718 -0.0047
60153W        W 3066   3.672  13.678  25.781  0.4294  0.1519  0.1810
60154W        W 3067  27.390  25.507  27.089  0.2668 -0.1221  0.0184
60155W        W 3068   8.754  15.059   3.457 -0.2967 -0.2402 -0.3152
60156W        W 3069   5.834  27.192  16.091 -0.0057  0.1682  0.3909
60157W        W 3070  23.166  10.077  15.801  0.1974  0.0972 -0.0451
60158W        W 3071   6.154  23.269  23.994  0.1540  0.3349  0.1327
60159W        W 3072  25.057  29.711  18.437 -0.0070  0.2122  0.2204
60160W        W 3073   9.665  17.916  18.693 -0.0808 -0.2677 -0.1596
60161W        W 3074  21.307  17.957  11.744  0.1347  0.0409  0.1602
60162W        W 3075   8.857  15.341  14.879  0.0983 -0.3116 -0.2917
60163W        W 3076  19.747  16.692  13.232  0.0030  0.2589  0.0302
60164W        W 3077  12.299  27.918  20.537 -0.2366  0.0871  0.0965
60165W        W 3078  11.123  16.486  18.652 -0.0498  0.0582  0.1273
60166W        W 3079  13.654  14.471  12.104 -0.1719  0.1358 -0.0981
60167W        W 3080   6.506  22.185  23.939 -0.0818  0.0529  0.1791
60168W        W 3081  26.007  20.954  16.409  0.0994 -0.0654 -0.0355
60169W        W 3082  25.195   7.045  20.230  0.2038 -0.1463  0.2429
60170W        W 3083  15.055  22.555  19.034 -0.1358 -0.1495  0.2040
60171W        W 3084  19.512  13.765  14.384  0.2259  0.1302  0.0398
60172W        W 3085  12.555  17.320  16.561  0.2182 -0.2565  0.0647
60173W        W 3086  12.513  32.258  16.192 -0.1297 -0.1753 -0.1966
60174W        W 3087   9.493   8.113  22.845 -0.0555  0.0102 -0.0815
60175W        W 3088  14.630  14.691  17.984  0.1183  0.3282  0.1363
60176W        W 3089  14.752  32.501  15.246 -0.0353 -0.0605  0.1367
60177W        W 3090  12.087   8.918  14.511 -0.0087  0.0336 -0.0369
60178W        W 3091  12.032  17.311  14.547 -0.1534  0.1549 -0.1885
60179W        W 3092  12.087  28.002  17.934  0.0748  0.0458 -0.0919
60180W        W 3093  19.223  13.200  19.654 -0.0146  0.2284 -0.1168
60181W        W 3094   8.803  11.851  15.539 -0.4712 -0.1126  0.0985
60182W        W 3095  16.100  17.915  14.157 -0.2214  0.3686  0.1127
60183W        W 3096  20.264  16.293  12.159  0.1052  0.2645  0.2585
60184W        W 3097  17.170  15.271  14.969 -0.3239  0.2071  0.0897
60185W        W 3098  27.451  25.698  18.292  0.1055 -0.0053 -0.4962
60186W        W 3099  11.778  16.046  13.017  0.1979 -0.2829  0.0675
60187W        W 3100   7.693  13.358  24.757  0.2512 -0.1026  0.2084
60188W        W 3101  12.460  18.514  14.398 -0.2002 -0.1080 -0.0894
60189W        W 3102   6.588  23.803  16.037  0.3187 -0.0783 -0.1165
60190W        W 3103  11.988  13.457  14.307 -0.1898 -0.2190  0.0094
60191W        W 3104  16.107  25.625  15.500 -0.4793  0.0250 -0.1148
60192W        W 3105   3.913  16.728  18.637 -0.3166  0.0215 -0.1245
60193W        W 3106  17.633  19.149  14.684 -0.1180 -0.1197 -0.0913
60194W        W 3107  11.370  24.381  18.777 -0.2007  0.1924  0.0563
60195W        W 3108  12.183  14.918  20.131 -0.1133  0.1759  0.1411
60196W        W 3109  18.495  16.389  12.469  0.1537 -0.1207  0.4135
60197W        W 3110  19.242  22.943  12.553  0.2485  0.1602  0.1174
60198W        W 3111  12.827  26.125  15.528 -0.0438 -0.0245  0.3391
60199W        W 3112   8.692  17.602  16.022 -0.0464 -0.0287 -0.1072
60200W        W 3113  17.394   8.072  19.498 -0.1143  0.1267  0.0889
60201W        W 3114   8.664  14.840  14.652  0.2165  0.0765 -0.1580
60202W        W 3115  12.211   9.435  23.042 -0.2200  0.2138 -0.1405
60203W        W 3116   5.067  26.387  20.193  0.1726  0.0969 -0.0438
60204W        W 3117  11.293  11.904  16.189 -0.1632  0.0348  0.0046
60205W        W 3118  18.229   6.849  16.344 -0.0263  0.0915  0.0080
60206W        W 3119  25.306  30.661  21.277  0.3671  0.0005  0.2081
60207W        W 3120  20.616  25.925  20.474 -0.0223  0.0189  0.0920
60208W        W 3121  11.899  26.727  15.307  0.1713  0.0170  0.2615
60209W        W 3122  13.593  18.807  12.405  0.0302 -0.2210  0.1856
60210W        W 3123  25.681  16.013  15.407  0.0595 -0.2775 -0.1070
60211W        W 3124  24.079  21.616  15.983  0.0430  0.0463  0.1216
60212W        W 3125  10.696   6.724  18.627  0.2311  0.0477 -0.3130
60213W        W 3126  11.979  15.345  13.354  0.0652 -0.0959 -0.2331
60214W        W 3127   8.556  28.379  17.659  0.0410 -0.1771 -0.0716
60215W        W 3128  14.969   9.591  15.500  0.4768 -0.1674  0.1614
60216W        W 3129   1.435  32.403  26.079 -0.3674 -0.0099  0.2292
60217W        W 3130   1.303  20.825  13.925  0.2062  0.0509  0.3138
60218W        W 3131   9.016  23.460  15.157 -0.1715 -0.0645 -0.0728
60219W        W 3132  12.963  10.618  19.515  0.2456  0.3530 -0.0057
60220W        W 3133  24.534  16.018  19.248 -0.0748 -0.0228  0.1553
60221W        W 3134  12.543  25.685  17.940 -0.1101 -0.1827 -0.0336
60222W        W 3135  11.516  13.580  15.581 -0.0511  0.0435 -0.3809
60223W        W 3136   9.478  11.492  28.250 -0.0468  0.2618 -0.5869
60224W        W 3137  12.330  18.245  16.943  0.5546 -0.2398  0.0192
60225W        W 3138  15.535  23.950  24.140  0.1111 -0.1628 -0.0260
60226W        W 3139  28.541  19.802  22.665  0.0637  0.1274 -0.0419
60227W        W 3140   6.118  26.354  17.392  0.0506  0.2043  0.2203
60228W        W 3141   5.215  22.899  15.969  0.0327  0.1334  0.1192
60229W        W 3142  22.087  17.547  15.837 -0.2877  0.0545 -0.1211
60230W        W 3143   8.806  23.226   6.487  0.0539 -0.0579 -0.1175
60231W        W 3144  10.266  16.420  13.614 -0.3716 -0.0987 -0.0420
60232W        W 3145   8.226  24.134  21.797 -0.1517  0.0278 -0.0507
60233W        W 3146  11.267  26.206  17.490 -0.0430  0.0437  0.0867
60234W        W 3147  27.259  12.511  14.448 -0.2302  0.1792 -0.2735
60235W        W 3148  24.201  18.471  12.282  0.1129 -0.1067  0.0184
60236W        W 3149  16.228  10.691  26.282 -0.4751 -0.0968 -0.3381
60237W        W 3150  19.626  13.359  12.109  0.0617  0.3010 -0.1587
60238W        W 3151   9.262  16.463  19.782 -0.1447 -0.1776  0.0348
60239W        W 3152  22.425  16.764  19.614 -0.2119 -0.1280 -0.0340
60240W        W 3153   5.752  32.223  21.859 -0.3484 -0.1204 -0.0552
60241W        W 3154   7.920  15.200  22.433  0.0999 -0.1877  0.3039
60242W        W 3155  16.548  21.074  13.803 -0.0880  0.2044 -0.0461
60243W        W 3156  16.933  30.246  22.926  0.1166  0.1961  0.0241
60244W        W 3157   6.380  23.587  15.602 -0.1428  0.2242 -0.0422
60245W        W 3158  13.417   6.857  20.509 -0.1998 -0.4780 -0.0512
60246W        W 3159   9.341  16.566  18.496 -0.2625 -0.3974 -0.0902
60247W        W 3160   7.660  19.943  14.325 -0.0867  0.4063 -0.0636
60248W        W 3161   7.360  21.110  29.197 -0.3608 -0.1626  0.1930
60249W        W 3162  14.113  13.577  22.156  0.1619  0.0703  0.3392
60250W        W 3163  18.301  24.936  16.100 -0.5311  0.0176 -0.1960
60251W        W 3164  13.877  19.274  12.639  0.2673  0.0871  0.2915
60252W        W 3165  23.050  16.037  19.406 -0.4192  0.0815  0.0633
60253W        W 3166  17.014  18.377  14.029  0.0066 -0.2706 -0.0048
60254W        W 3167   9.663  16.492  16.366  0.2290  0.0953 -0.1612
60255W        W 3168  17.714  15.450  12.321  0.2577  0.3066  0.1681
60256W        W 3169  12.012  23.447  14.292  0.0961  0.0373  0.1911
60257W        W 3170  21.984  13.830  17.263 -0.1352 -0.0836  0.0965
60258W        W 3171  12.156  24.252  20.130  0.0030  0.1553  0.0325
60259W        W 3172  22.600  23.212  21.688  0.1076 -0.1698 -0.3872
60260W        W 3173  15.825  29.886  17.257  0.0604  0.1447 -0.0775
60261W        W 3174  22.023  23.987  19.300  0.2987  0.1497 -0.0107
60262W        W 3175  10.059  22.893  14.559 -0.2382 -0.0375  0.1563
60263W        W 3176  11.580  15.483  17.173  0.0924 -0.1372  0.0476
60264W        W 3177  17.986  22.103  12.281  0.1094  0.1746 -0.1005
60265W        W 3178  11.603  22.439  18.517  0.3741  0.0494  0.0736
60266W        W 3179  11.968  19.210  13.301  0.2508 -0.4314  0.0912
60267W        W 3180   5.592  22.201  20.020 -0.0213  0.1308 -0.1615
60268W        W 3181  11.139  29.516  17.580 -0.1278  0.3335 -0.0948
60269W        W 3182  11.912  14.942  13.746 -0.0732 -0.2190 -0.0411
60270W        W 3183   7.376  18.274  17.860 -0.2535  0.1227  0.0485
60271W        W 3184  13.077  19.560  13.782  0.1055  0.0822 -0.2956
60272W        W 3185  17.635  10.028  24.381  0.2842  0.0704 -0.0653
60273W        W 3186  10.571  10.463  15.723  0.2190 -0.1227 -0.0465
60274W        W 3187  24.530  31.636  20.180 -0.0060 -0.2297  0.1225
60275W        W 3188   8.967  22.046  14.648  0.2638  0.4000  0.0594
60276W        W 3189  26.398  19.098  26.227 -0.0051 -0.0054  0.0279
60277W        W 3190  11.347  32.741  22.164  0.0819  0.1059 -0.0783
60278W        W 3191  12.885  22.913  18.524  0.4298 -0.4020  0.1356
60279W        W 3192  23.810  23.199  18.832 -0.0779  0.0526  0.0372
60280W        W 3193   6.217  20.383  21.129  0.1344 -0.0858 -0.0363
60281W        W 3194  11.916  12.425  15.757  0.0886 -0.2571  0.2270
60282W        W 3195  16.546  18.926  13.566  0.0421  0.0958  0.0567
60283W        W 3196   6.548  22.898  19.566 -0.3203 -0.0366  0.0073
60284W        W 3197   5.861  23.531  21.684 -0.1210 -0.0824 -0.1615
60285W        W 3198  10.588  17.433  15.566  0.0086 -0.2225  0.0007
60286W        W 3199  29.771  20.938  23.596  0.4256 -0.1642  0.0485
60287W        W 3200  11.445   4.786  19.186 -0.0487  0.0952  0.2637
60288W        W 3201  16.827  14.741  29.425 -0.1281 -0.0366 -0.1508
60289W        W 3202  16.711  24.043  23.927 -0.1728  0.0754  0.0156
60290W        W 3203  18.784  12.110  12.000  0.0141 -0.2311 -0.3973
60291W        W 3204   7.443  29.483  18.279  0.0755 -0.0741 -0.1241
60292W        W 3205  16.760  12.752  15.568 -0.0162  0.1432  0.0064
60293W        W 3206  15.137  19.991  14.611  0.0570  0.1751 -0.4993
60294W        W 3207  17.125  16.110  12.481  0.3440 -0.3166 -0.1452
60295W        W 3208   7.008  11.463  19.130 -0.1286  0.3872  0.1529
60296W        W 3209   8.685  19.887  15.676  0.1426 -0.1090 -0.3942
60297W        W 3210  18.315  24.974  18.336  0.0534 -0.2143  0.0663
60298W        W 3211  13.967  20.859  21.147  0.0432 -0.2253  0.0973
60299W        W 3212   9.058  16.157  16.726  0.1619 -0.3645  0.0473
60300W        W 3213  14.469  24.063  13.783  0.4025 -0.1385  0.0032
60301W        W 3214  15.780  27.853  15.910 -0.2547  0.2669 -0.3258
60302W        W 3215   9.804  17.746  14.849  0.1644  0.2510  0.2769
60303W        W 3216   5.233  25.555  20.023 -0.5068  0.2642  0.2555
60304W        W 3217  14.263  16.694  14.885  0.0851  0.0020 -0.1058
60305W        W 3218  14.161  32.379  18.134  0.0999 -0.1396 -0.0530
60306W        W 3219  23.253  21.969  18.215 -0.2990 -0.0665 -0.0486
60307W        W 3220  12.083  13.212  13.714 -0.0185 -0.0589  0.2206
60308W        W 3221   9.328  26.645  23.651  0.2990  0.1840  0.0824
60309W        W 3222  14.632  18.812  12.463 -0.1423 -0.0735 -0.1962
60310W        W 3223  23.632  30.762  15.175 -0.1555  0.0173  0.0893
60311W        W 3224  15.802  21.829  17.646 -0.0298  0.0893 -0.0329
60312W        W 3225   7.480  29.472  16.179 -0.0617 -0.1241  0.0859
60313W        W 3226   6.437  21.749  14.602 -0.0464 -0.0476  0.1237
60314W        W 3227  23.508  14.935  12.468 -0.0262  0.1195 -0.2432
60315W        W 3228  17.355   8.342  15.040 -0.1519  0.2708  0.2568
60316W        W 3229  16.823  25.677  18.002 -0.4298  0.3693  0.3737
60317W        W 3230   5.462  27.716  16.142 -0.7191  0.1512  0.1962
60318W        W 3231   9.545  18.076  13.671 -0.1684 -0.1619 -0.0851
60319W        W 3232  17.396  22.126  27.623 -0.0989 -0.2331 -0.1879
60320W        W 3233  14.727  25.806  14.151  0.0833  0.3973 -0.1139
60321W        W 3234  17.906  16.667  11.811 -0.1184  0.2956 -0.1623
60322W        W 3235  28.044  15.896  22.344  0.1398  0.0373  0.1034
60323W        W 3236  22.126  29.955  19.936 -0.0985 -0.0706 -0.0499
60324W        W 3237   6.853  18.250  14.388  0.2373 -0.1901  0.0380
60325W        W 3238  15.001  10.401  16.163  0.1536  0.1973  0.2224
60326W        W 3239  24.994  14.708  13.891  0.0022 -0.1771  0.0819
60327W        W 3240   8.157  16.877  15.008  0.1103 -0.0777 -0.2972
60328W        W 3241   7.523  23.509  17.817  0.1612  0.0837  0.1856
60329W        W 3242  11.602  17.584  14.995  0.0294 -0.2610 -0.4963
60330W        W 3243  22.078  12.479  15.463  0.3037  0.1242  0.1743
60331W        W 3244   0.631  16.007  19.952  0.1568 -0.0188  0.0055
60332W        W 3245  19.147  29.390  16.586  0.1720 -0.0486  0.0445
60333W        W 3246  17.674  23.810  15.781 -0.2390 -0.0672  0.0319
60334W        W 3247  14.925  26.763  22.540  0.0284 -0.0702  0.0554
60335W        W 3248   7.622  20.010  15.807 -0.2394 -0.1491 -0.1143
60336W        W 3249  16.733  25.638  17.491  0.2187 -0.0619  0.3106
60337W        W 3250   3.625  20.577  16.452  0.3464  0.1195 -0.3768
60338W        W 3251  10.378  20.622  14.045 -0.2015 -0.1527  0.2245
60339W        W 3252   5.128  22.988  26.106  0.2361  0.0176  0.0567
60340W        W 3253  21.489  12.690  18.295 -0.1071  0.0875 -0.0178
60341W        W 3254  10.900  11.042  25.273 -0.0971 -0.3473  0.3392
60342W        W 3255   7.540  27.687  16.916 -0.0387  0.0623 -0.1204
60343W        W 3256  18.933  24.173  16.859  0.1818 -0.0044  0.1098
60344W        W 3257  11.159  18.737  27.189 -0.2976  0.2993 -0.1958
60345W        W 3258   7.602  23.088  20.878 -0.0895  0.1175  0.0278
60346W        W 3259   9.525  32.176  20.413 -0.0998 -0.2488  0.0363
60347W        W 3260  25.079  22.182  16.058  0.1548  0.3648 -0.0242
60348W        W 3261   3.934  23.529  25.084 -0.1045  0.0234 -0.0012
60349W        W 3262   7.682  32.868  18.067  0.1679  0.0802 -0.0610
60350W        W 3263  21.264  20.939  15.043  0.0464 -0.1673 -0.0848
60351W        W 3264  13.049  29.495  15.164  0.3340  0.1448  0.2974
60352W        W 3265   3.461  27.059  20.067  0.0678 -0.1052 -0.0538
60353W        W 3266  17.306  27.529  22.037  0.0112 -0.0250 -0.2885
60354W        W 3267  21.404  23.996  16.480 -0.0428  0.4265  0.2430
60355W        W 3268  10.958  16.080  14.784 -0.2564  0.1594 -0.0047
60356W        W 3269   6.003  21.213  16.431 -0.2243 -0.2845  0.0472
60357W        W 3270  12.626  17.089  17.022  0.2762 -0.0097 -0.0865
60358W        W 3271  12.059  15.166  12.319 -0.1948  0.0952 -0.2458
60359W        W 3272   1.260  28.740  18.874 -0.0214 -0.0129 -0.0209
60360W        W 3273  17.534  13.216  16.305 -0.0472  0.0528  0.2163
60361W        W 3274  23.203  27.568  13.082 -0.1517  0.3880 -0.1481
60362W        W 3275   0.915  18.198  19.785 -0.0639  0.3431 -0.0332
60363W        W 3276  10.615  24.364  25.266  0.1207 -0.0492  0.1187
60364W        W 3277  13.586  16.527  19.587  0.0160  0.0110  0.2041
60365W        W 3278  18.626  21.116  18.098  0.1259 -0.1681 -0.0665
60366W        W 3279   1.142  12.176  22.535  0.2227 -0.1773 -0.0092
60367W        W 3280   9.290  23.020  21.249  0.1191  0.0626  0.1366
60368W        W 3281  24.510  16.648  17.054 -0.3063  0.0024  0.1115
60369W        W 3282   6.524  19.903  18.323 -0.0577  0.4176  0.0633
60370W        W 3283   4.977  19.718  14.525  0.1064  0.0858  0.1897
60371W        W 3284  12.693  13.517  23.331 -0.1451  0.1402  0.0952
60372W        W 3285  14.024  23.311  16.992 -0.1791  0.0765  0.1197
60373W        W 3286  10.858  21.247  16.716 -0.2297 -0.0018  0.0204
60374W        W 3287  16.006  10.291  22.074 -0.4454 -0.3209  0.0767
60375W        W 3288  18.636  21.468  20.125 -0.1134  0.0142 -0.0109
60376W        W 3289  15.739  15.655  13.233 -0.0847  0.5219  0.0252
60377W        W 3290  11.224  24.449  19.343  0.1145  0.2349  0.0107
60378W        W 3291  10.021  17.829  25.316 -0.2055 -0.1304 -0.0467
60379W        W 3292  13.941  16.937  13.398 -0.3495  0.0816  0.0209
60380W        W 3293  17.434  22.446  17.176 -0.1979 -0.2410 -0.0969
60381W        W 3294  16.432  29.436  23.292  0.0834 -0.0064 -0.1510
60382W        W 3295  15.149  24.905  19.098 -0.0991 -0.1827 -0.1757
60383W        W 3296  13.586  21.241  19.986  0.3202  0.1022 -0.0509
60384W        W 3297  22.241  29.242  17.451  0.1816  0.3023 -0.0368
60385W        W 3298  29.361  24.432  16.501 -0.3225  0.2159 -0.2273
60386W        W 3299  12.566  27.446  19.165  0.2304  0.0731  0.0253
60387W        W 3300   9.882  16.933  12.981  0.0836  0.2436  0.0677
60388W        W 3301  18.476  23.714  14.624  0.2689  0.0989 -0.2169
60389W        W 3302  10.205  23.609  16.259  0.0100  0.0159  0.0927
60390W        W 3303  11.288  14.318  16.440  0.0542  0.0747 -0.3214
60391W        W 3304  23.846  19.377  19.717 -0.3130  0.1333  0.0554
60392W        W 3305  13.592  21.829  25.779 -0.2340 -0.1802 -0.0163
60393W        W 3306   6.817  19.661  17.017  0.0132 -0.1157  0.0611
60394W        W 3307  11.652  16.689  17.178 -0.0051  0.1159 -0.1305
60395W        W 3308  14.730  18.713  13.780  0.0170  0.0537 -0.0738
60396W        W 3309  10.832  20.353  17.261 -0.0061 -0.1661 -0.1055
60397W        W 3310   9.518  19.303   5.778  0.1418  0.6012 -0.1165
60398W        W 3311  12.198  14.717  27.826 -0.0097 -0.0595  0.0402
60399W        W 3312   6.601  14.062  13.960  0.2089  0.2916 -0.1620
60400W        W 3313   5.840  18.281  23.106 -0.1565  0.0119  0.0127
60401W        W 3314  13.343  30.944  18.090 -0.1421 -0.3838 -0.0361
60402W        W 3315  32.168  16.483  21.562 -0.1998  0.0649 -0.0676
60403W        W 3316   3.018  24.926  15.713 -0.2903  0.0571  0.1025
60404W        W 3317  13.469  15.865  13.867  0.1318  0.2027  0.2946
60405W        W 3318  19.858  24.458  19.801  0.0140  0.0422 -0.2842
60406W        W 3319   7.652  23.642  23.355  0.2034 -0.1372  0.2674
60407W        W 3320  14.070  22.604   4.425 -0.1767 -0.2682  0.3456
60408W        W 3321  20.190  14.237  17.887  0.1036  0.2923  0.1369
60409W        W 3322   9.605  17.079  23.443  0.1397  0.1057 -0.0442
60410W        W 3323   7.410  16.484  15.972 -0.2262 -0.2525 -0.0661
60411W        W 3324   0.694  14.121  14.634 -0.1772 -0.1732  0.1240
60412W        W 3325  17.643   7.185  15.752 -0.1290 -0.1141 -0.0027
60413W        W 3326  14.475  12.873  15.374 -0.2336  0.2146 -0.1608
60414W        W 3327  15.913  31.034  27.014 -0.1804 -0.1913  0.1533
60415W        W 3328  24.710  22.720  15.805  0.3163 -0.0132  0.2382
60416W        W 3329  12.104  15.821  13.337  0.2440  0.0452  0.0125
60417W        W 3330  17.883  10.203  13.936  0.1538 -0.1925 -0.0136
60418W        W 3331   5.325  17.849  14.890  0.3005  0.0189 -0.0344
60419W        W 3332  13.267  18.492  13.854 -0.0301 -0.1027 -0.0745
60420W        W 3333  13.158  19.201  18.961 -0.1502 -0.0503  0.1731
60421W        W 3334  19.176  11.310  16.177  0.0276  0.1422 -0.2153
60422W        W 3335  11.339  31.391  18.860 -0.1991  0.1229  0.0611
60423W        W 3336  11.003  20.068  22.311  0.3028 -0.3117  0.0985
60424W        W 3337  10.619  23.056  20.514 -0.2858 -0.1180  0.0865
60425W        W 3338  16.866  25.370  18.957 -0.1733 -0.0728  0.0872
60426W        W 3339   2.777  18.791  29.776 -0.3381 -0.2562 -0.1315
60427W        W 3340  16.486   6.306  27.237 -0.0971  0.0342 -0.0311
60428W        W 3341  10.678  24.924  16.203  0.0438  0.0306  0.2571
60429W        W 3342   7.805   6.441  18.945 -0.2196  0.0312  0.4234
60430W        W 3343   3.072  16.261  16.532  0.2143  0.0233  0.0750
60431W        W 3344  14.197  17.304  22.130  0.0029  0.1061 -0.1111
60432W        W 3345   8.808  27.864  18.460  0.0339 -0.1990 -0.1215
60433W        W 3346   1.345  18.355  14.550 -0.1487  0.2496  0.2434
60434W        W 3347  21.867  21.081  24.432  0.1864 -0.1307 -0.1064
60435W        W 3348  10.414  11.147  16.824  0.0104  0.2194 -0.0268
60436W        W 3349   1.002  18.189  20.911 -0.1177  0.1040  0.2493
60437W        W 3350  14.211  13.473  12.963  0.1848  0.0309 -0.3037
60438W        W 3351  13.937  26.935  24.992  0.4512  0.0382  0.4016
60439W        W 3352   1.034  20.638  16.623 -0.1627 -0.0724  0.1126
60440W        W 3353   4.072  34.304  20.239 -0.1003  0.0297 -0.0849
60441W        W 3354   7.524  22.892  21.590  0.1403 -0.0195  0.1228
60442W        W 3355   3.893  14.745  18.488 -0.0216 -0.1417  0.5293
60443W        W 3356   5.458  18.649  13.525  0.4046 -0.1121 -0.0552
60444W        W 3357  19.571  23.317  21.208  0.0689 -0.0835  0.0040
60445W        W 3358  11.059  16.707  16.938 -0.2646  0.1098 -0.0770
60446W        W 3359  13.705  18.712  13.965 -0.1362  0.0566  0.2672
60447W        W 3360   6.331   9.902  21.592  0.0602 -0.1902  0.1774
60448W        W 3361  22.466  12.025  15.261  0.1078 -0.0492  0.1989
60449W        W 3362   6.805  14.585  27.877 -0.3008  0.1758 -0.0078
60450W        W 3363  11.137  30.190  21.878 -0.3715 -0.0146  0.4529
60451W        W 3364  12.998  22.661  14.643  0.1952  0.1148 -0.0823
60452W        W 3365  11.006  20.855  16.413 -0.0169 -0.2256  0.0327
60453W        W 3366   9.084  18.841  15.911  0.3140 -0.0518  0.0866
60454W        W 3367  13.122  25.728  20.374 -0.1723 -0.0416  0.2053
60455W        W 3368  14.866   9.241  25.138  0.0779  0.0394  0.3302
60456W        W 3369  14.975  10.816  16.754  0.1480 -0.2110 -0.0509
60457W        W 3370  15.496  15.003  11.287  0.4149  0.2199  0.3809
60458W        W 3371  13.239  14.437  12.940 -0.1122  0.0172  0.0740
60459W        W 3372   7.667  19.734  18.594 -0.0779 -0.2356 -0.1032
60460W        W 3373   1.010  19.114  19.504  0.1202 -0.2740 -0.0039
60461W        W 3374  19.245  14.280  13.714  0.0763  0.1578 -0.1395
60462W        W 3375  11.016  17.798  20.172  0.1679 -0.0692  0.2925
60463W        W 3376  12.985  30.023  25.328 -0.3011  0.0131 -0.3183
60464W        W 3377  16.414  22.466  13.503  0.0147 -0.1934  0.1052
60465W        W 3378  13.259  18.743  17.397  0.0910 -0.0690 -0.1550
60466W        W 3379  17.693  24.412  25.134  0.2049  0.0787  0.2276
60467W        W 3380  24.680  21.304  19.073 -0.2670 -0.2363  0.4887
60468W        W 3381  11.573  14.492  15.315 -0.0200  0.1146  0.1107
60469W        W 3382  22.198  20.080  16.249 -0.1277  0.0052  0.3987
60470W        W 3383  11.034  19.412   1.347 -0.1101 -0.0812 -0.0207
60471W        W 3384  10.274  23.327  19.003 -0.4486 -0.0564  0.1459
60472W        W 3385  24.643  22.647  14.866 -0.2561 -0.0639  0.0460
60473W        W 3386   4.686  21.600  16.682  0.4547 -0.2614  0.0974
60474W        W 3387   9.744  25.124  25.109 -0.0490  0.0733 -0.2440
60475W        W 3388   4.437  14.780  28.328 -0.0420 -0.1254 -0.2034
60476W        W 3389   8.764  15.123  20.350  0.2049  0.0650  0.0665
60477W        W 3390  20.798  19.159  16.027 -0.1496  0.0363  0.2757
60478W        W 3391   7.330  20.581  17.569 -0.3496 -0.2661 -0.1853
60479W        W 3392   9.214  10.543  17.736  0.0461  0.3499  0.0486
60480W        W 3393  19.909  24.329  27.478 -0.2166 -0.1654  0.0353
60481W        W 3394  27.342  22.637  26.877 -0.3602  0.0107 -0.0690
60482W        W 3395   5.951  21.775  18.887 -0.1314  0.1619 -0.0763
60483W        W 3396  12.159  16.335  14.440  0.3632 -0.0587  0.2749
60484W        W 3397  19.342   7.169  24.241 -0.2864  0.2043 -0.1486
60485W        W 3398   8.506  11.540  25.648 -0.0272  0.1004 -0.0237
60486W        W 3399  17.462  23.148  19.619 -0.2168  0.2103  0.1063
60487W        W 3400   6.497  19.012  28.012  0.2388  0.1094  0.1095
60488W        W 3401   6.393  20.694  29.121  0.1648 -0.0179 -0.0300
60489W        W 3402  17.335  21.864  18.073 -0.0278  0.2470  0.1850
60490W        W 3403  22.251  21.012  15.294 -0.1700 -0.2915 -0.0528
60491W        W 3404   7.914  18.974  27.193  0.2497 -0.0617  0.4096
60492W        W 3405  22.538  20.715  15.647  0.0025 -0.2950  0.2284
60493W        W 3406  33.481  28.389  16.765 -0.2229  0.0763  0.1892
60494W        W 3407  18.921  23.700  14.830 -0.3644  0.0486  0.2249
60495W        W 3408  33.482  25.448  22.562 -0.1349  0.1649 -0.2992
60496W        W 3409  14.433  17.503  15.263 -0.2557  0.0314  0.1938
60497W        W 3410  15.437  11.041  22.430  0.3374  0.1579 -0.3179
60498W        W 3411   8.811  12.112  20.191  0.0112  0.1167  0.0350
60499W        W 3412  22.772  22.231  23.735 -0.0147 -0.1205 -0.1742
60500W        W 3413  15.025  30.974   0.873 -0.1018 -0.3501  0.0500
60501W        W 3414  15.555  24.627  20.538  0.2884 -0.1585 -0.1202
60502W        W 3415   7.205  28.408  26.016 -0.1809  0.2108  0.0455
60503W        W 3416  22.577  17.042  25.949  0.1532  0.3773 -0.0841
60504W        W 3417  22.274  18.340  14.563  0.1272  0.0816 -0.2871
60505W        W 3418  25.704   4.526  18.962  0.1061  0.0066 -0.2998
60506W        W 3419  11.932  30.805  16.914  0.0933  0.2211 -0.1505
60507W        W 3420  12.197   9.429  16.761  0.1276  0.0403 -0.0722
60508W        W 3421   9.796  14.269  14.783  0.1903  0.3287 -0.0884
60509W        W 3422  13.831  32.559  21.487 -0.1243  0.1405 -0.0465
60510W        W 3423  13.019  25.152  16.846  0.1120  0.1525  0.2236
60511W        W 3424   8.128  24.159  24.527  0.0611 -0.1091  0.2771
60512W        W 3425   7.341  26.501  21.522 -0.0096 -0.0188 -0.1692
60513W        W 3426   1.249  12.456  17.199  0.2036  0.1525 -0.0931
60514W        W 3427  12.343  21.756  14.665 -0.2237 -0.1813  0.2414
60515W        W 3428  19.014  14.038   0.351  0.2100 -0.1145  0.2165
60516W        W 3429  19.009  13.395  14.323 -0.2070 -0.0615  0.0578
60517W        W 3430  23.235  25.571  24.412 -0.0399  0.2860 -0.1799
60518W        W 3431  22.803   9.359  17.087 -0.0045 -0.4344  0.0500
60519W        W 3432  10.204  19.812  21.599  0.0082 -0.0483  0.2353
60520W        W 3433  20.842  22.535  14.694  0.3430 -0.2142  0.1385
60521W        W 3434  10.212  27.827  21.567  0.2582 -0.2082  0.0083
60522W        W 3435  19.201  12.455  13.146 -0.0270  0.0245  0.1407
60523W        W 3436   8.234  17.757  19.974  0.4195  0.0258 -0.1037
60524W        W 3437  12.143  19.097  20.490 -0.1091 -0.0719 -0.0872
60525W        W 3438   7.722  11.879  24.606  0.0739 -0.0793 -0.0570
60526W        W 3439  23.062  13.160  20.293 -0.0276 -0.0591 -0.0958
60527W        W 3440   5.418  22.725  26.996  0.1688 -0.2457  0.2444
60528W        W 3441   6.950  15.425  16.080 -0.2021 -0.1257 -0.2905
60529W        W 3442  15.160  24.800  17.504 -0.0811 -0.2113  0.3643
60530W        W 3443  15.510  21.663  19.800  0.0555 -0.0314  0.2177
60531W        W 3444  10.766  19.962  15.933  0.1202  0.6509 -0.0719
60532W        W 3445  16.589  10.811  15.660 -0.0389 -0.2724  0.0049
60533W        W 3446  20.834  25.068  15.272 -0.2620  0.1883  0.2089
60534W        W 3447  14.218  10.090  15.330  0.2348 -0.2230 -0.0427
60535W        W 3448   8.247  31.668  20.341  0.1604  0.1937 -0.1538
60536W        W 3449   6.446  23.306  16.368  0.0840 -0.0253  0.1197
60537W        W 3450  14.547  25.696  26.499 -0.1489  0.1873  0.0479
60538W        W 3451   6.535   7.361  26.650  0.3532  0.4939  0.3240
60539W        W 3452   9.136  23.476  19.617 -0.3596 -0.1061  0.1910
60540W        W 3453   2.958  21.402  21.759  0.2534  0.0677 -0.2057
60541W        W 3454  10.696  23.182  23.782 -0.1639 -0.0845 -0.3506
60542W        W 3455  30.290  26.836  25.155  0.2865 -0.0343 -0.0039
60543W        W 3456  10.725  14.867  22.360 -0.0230  0.0866  0.0713
60544W        W 3457  22.299  14.587  22.580 -0.0421  0.2257  0.1200
60545W        W 3458  21.365  20.440  29.015 -0.1042 -0.1692 -0.0600
60546W        W 3459   2.566  24.177  27.508  0.2421  0.2709 -0.1582
60547W        W 3460  11.057  17.004  24.570  0.1597  0.2787  0.0946
60548W        W 3461   8.369  18.398   5.895 -0.2998  0.0839 -0.4487
60549W        W 3462   8.740  14.195  18.492 -0.2331  0.0025 -0.0972
60550W        W 3463   7.743  20.571  15.039 -0.1985 -0.0831  0.2130
60551W        W 3464   8.397  18.150  19.443 -0.1030 -0.1208  0.1015
60552W        W 3465  13.015  17.266  27.381  0.1841 -0.0028 -0.0900
60553W        W 3466  30.094  20.812  21.168 -0.2799  0.2318 -0.2747
60554W        W 3467   8.511  17.697  12.734  0.3893 -0.0925 -0.1657
60555W        W 3468  21.541  29.912  17.782 -0.2120 -0.1304 -0.2742
60556W        W 3469   8.715  14.540   4.379 -0.0559  0.1041 -0.1896
60557W        W 3470  18.771  28.839  27.361 -0.1161  0.3027  0.1252
60558W        W 3471  27.232  22.676  15.575  0.1891 -0.0240 -0.3274
60559W        W 3472  10.722  29.941  20.452  0.1029 -0.2410  0.2489
60560W        W 3473  23.285  26.879  13.938  0.0598  0.2375 -0.1882
60561W        W 3474  15.838  26.692  22.712 -0.2826  0.0132  0.0207
60562W        W 3475   9.232  19.184   1.070 -0.0166 -0.0532  0.0296
60563W        W 3476  12.534  11.670  26.973  0.0205 -0.1345 -0.0817
60564W        W 3477  18.632  10.723  17.911 -0.2163 -0.1254  0.2365
60565W        W 3478   3.955  27.667  15.650 -0.0495 -0.0799 -0.0466
60566W        W 3479   9.146  15.389  17.094 -0.1539 -0.2118 -0.3031
60567W        W 3480   6.609  19.219  16.644  0.2268  0.0115  0.1709
60568W        W 3481   6.815  28.646  27.381 -0.0715  0.0863  0.1747
60569W        W 3482   2.907  14.338  17.555  0.2671  0.1982 -0.0789
60570W        W 3483   3.316  22.810  20.325  0.0938 -0.1341 -0.0261
60571W        W 3484  10.536  10.473  24.351 -0.1633 -0.0488 -0.0010
60572W        W 3485  11.515   7.799   0.024  0.2808 -0.1866 -0.1621
60573W        W 3486  15.617   3.807  28.369  0.2566 -0.0239 -0.3069
60574W        W 3487   8.499  27.876  24.129  0.0588  0.0207  0.0698
60575W        W 3488   2.408  28.406  26.417 -0.2659  0.0413  0.2647
60576W        W 3489   3.486  14.646  18.807 -0.1878 -0.0416 -0.0139
60577W        W 3490  23.373  23.542  17.522  0.1445  0.2036 -0.1912
60578W        W 3491  10.994  26.800  18.177  0.2843  0.4242  0.0309
60579W        W 3492  21.249   9.164  20.142 -0.0049 -0.0909 -0.2502
60580W        W 3493  16.766   6.969  15.238  0.1846 -0.3193 -0.2934
60581W        W 3494  19.330  21.470  22.594 -0.5570  0.1554 -0.1705
60582W        W 3495   6.022  13.040  18.238 -0.1184  0.3411  0.1388
60583W        W 3496  18.916  15.551  25.419 -0.1307 -0.1255  0.2590
60584W        W 3497  11.935  18.566  18.358  0.0535 -0.2386 -0.3394
60585W        W 3498  14.887  12.867  12.759  0.1393 -0.2187 -0.0508
60586W        W 3499   5.717  19.206  15.422  0.0640 -0.2503  0.1146
60587W        W 3500  17.144  10.999  25.284  0.2140 -0.0530  0.1401
60588W        W 3501  16.964  20.346  15.590  0.0681 -0.2693 -0.1697
60589W        W 3502  15.398   8.263  22.191 -0.1246  0.2648  0.0994
60590W        W 3503  19.483   9.289  16.582  0.1493 -0.1157 -0.3099
60591W        W 3504   5.760  25.882  27.233  0.1093  0.2852 -0.2615
60592W        W 3505   7.769   9.212  20.025 -0.1220 -0.1776  0.2597
60593W        W 3506  12.702  19.603  17.486 -0.0220  0.1686  0.1271
60594W        W 3507  20.248  24.300  13.667  0.2922  0.2626 -0.1289
60595W        W 3508  25.194  10.605  18.290 -0.1032  0.0674  0.0003
60596W        W 3509   6.481  18.322  20.103 -0.2150  0.2157 -0.3765
60597W        W 3510   2.366  33.709  27.074 -0.3567  0.0585 -0.0213
60598W        W 3511   6.011  24.587  15.248  0.2308 -0.0676  0.0041
60599W        W 3512   8.783  24.990  16.679 -0.1669 -0.2140 -0.0454
60600W        W 3513   8.281  15.724  14.586  0.1522 -0.2978 -0.2458
60601W        W 3514  25.628  26.706  18.225 -0.0999 -0.0338  0.2245
60602W        W 3515  13.145  12.967  16.710 -0.1531  0.2011  0.0603
60603W        W 3516   8.519  13.067  15.090  0.0508 -0.2295  0.0448
60604W        W 3517  12.690  20.333  13.856 -0.1063 -0.1031  0.2686
60605W        W 3518  24.758  24.783  17.067 -0.1526  0.3549 -0.0370
60606W        W 3519   8.932  26.617  15.727 -0.1738 -0.0417  0.0657
60607W        W 3520  21.929  23.012  22.224 -0.3198  0.2709  0.1070
60608W        W 3521   6.576  22.239  20.953 -0.0991 -0.1602  0.0411
60609W        W 3522  12.002  27.791  18.881  0.0470  0.0071 -0.0650
60610W        W 3523  10.366  26.226  19.475  0.0979 -0.0800 -0.2853
60611W        W 3524   6.940   4.761  19.468 -0.0074 -0.0396  0.0400
60612W        W 3525   4.706  20.674   0.230  0.1380 -0.1086  0.2225
60613W        W 3526   9.076  12.428  21.137  0.1757  0.2262  0.0960
60614W        W 3527  12.061  21.995  15.504  0.0734 -0.0949 -0.0926
60615W        W 3528   9.697   6.281  19.581  0.1053 -0.4125  0.2356
60616W        W 3529   3.963  33.565  16.677  0.0275  0.0396  0.0073
60617W        W 3530   9.884  27.080  23.050  0.1014  0.3507  0.1436
60618W        W 3531   5.513  26.164  16.080  0.0406 -0.0900  0.0934
60619W        W 3532   9.152  16.620  16.521 -0.0828 -0.1839  0.2982
60620W        W 3533   0.777  17.647  21.033  0.1731 -0.1158 -0.2099
60621W        W 3534   4.210  15.793  20.003  0.0443  0.3191 -0.4737
60622W        W 3535   2.737  31.264  21.876 -0.0287  0.1344 -0.2620
60623W        W 3536  12.351  17.522  24.036  0.0785 -0.1710  0.4495
60624W        W 3537  11.741  16.541  16.475 -0.0086 -0.1551  0.0451
60625W        W 3538   8.340  19.797  13.616  0.1749 -0.0697 -0.1899
60626W        W 3539  19.725  24.587  16.220  0.4328  0.0021  0.1141
60627W        W 3540  22.995  25.748  16.336 -0.0862 -0.0336  0.2917
60628W        W 3541   4.622  28.207  23.945 -0.0041  0.1597  0.2002
60629W        W 3542   5.019  28.799  16.145 -0.2500  0.0481 -0.4145
60630W        W 3543  12.924  22.770  13.250 -0.0042  0.0741  0.0318
60631W        W 3544  13.474  13.792  12.669 -0.0110  0.1103 -0.1038
60632W        W 3545  13.806  10.393  15.942  0.0830 -0.1446  0.1563
60633W        W 3546   9.787  13.843  29.493  0.5068 -0.0870  0.3047
60634W        W 3547  13.750  18.387   7.116 -0.3563 -0.0881 -0.2742
60635W        W 3548  16.710  27.837  25.635 -0.0038 -0.2821 -0.0062
60636W        W 3549  12.902  21.458  15.413  0.2250 -0.1400  0.1655
60637W        W 3550  15.281  12.133  23.765 -0.2872  0.3573 -0.2988
60638W        W 3551   7.685  24.842  22.887  0.0118 -0.1482  0.1264
60639W        W 3552  20.038  13.714  14.145  0.1673 -0.1863 -0.0024
60640W        W 3553   7.821  16.883  16.963  0.2484  0.0175 -0.1361
60641W        W 3554  14.185  19.850  11.915  0.0389  0.1623 -0.1213
60642W        W 3555  15.681  29.213  19.878 -0.3435 -0.0520  0.2200
60643W        W 3556  17.261  13.478  20.157 -0.1569  0.1230  0.1130
60644W        W 3557   8.877  16.573  19.478  0.1268  0.1783  0.1944
60645W        W 3558  14.549  20.175  29.699 -0.0594 -0.0995 -0.0393
60646W        W 3559  16.945  11.294  21.766  0.3499  0.1951 -0.0608
60647W        W 3560  10.039  15.750  13.902 -0.0073  0.0856  0.1254
60648W        W 3561  14.285  24.044  19.965 -0.4199 -0.0050 -0.0005
60649W        W 3562  10.839  17.236  13.018 -0.0036  0.0318 -0.2375
60650W        W 3563   8.759  18.577  21.722 -0.1101 -0.0272 -0.1190
60651W        W 3564  10.221  20.030   8.418  0.0512 -0.0492 -0.2922
60652W        W 3565  10.928  19.611  25.573 -0.0623  0.1035  0.0074
60653W        W 3566  10.385   9.905  15.860  0.1938 -0.2150 -0.0443
60654W        W 3567   7.335  23.656  14.437 -0.3808  0.1122 -0.0318
60655W        W 3568  18.794  19.855  12.321  0.0744  0.3246 -0.1842
60656W        W 3569   8.443  18.686  24.520 -0.1479  0.6579  0.0758
60657W        W 3570  19.573  19.431  22.992 -0.4314  0.2811 -0.0426
60658W        W 3571  13.012  18.375  21.721 -0.1228  0.2069  0.1492
60659W        W 3572  13.183  16.013  16.871 -0.0484 -0.2444  0.0907
60660W        W 3573  11.085  17.475   3.215 -0.3699 -0.1213 -0.2084
60661W        W 3574  11.228  17.329  14.246  0.3444  0.0557  0.1621
60662W        W 3575  10.869  23.261  13.816  0.2064  0.1253  0.4028
60663W        W 3576  22.067  21.375  14.070  0.2067 -0.1835 -0.0681
60664W        W 3577  10.033  16.368  24.925  0.2569 -0.0658 -0.2574
60665W        W 3578   5.780   9.454  18.827  0.2507  0.0454  0.0737
60666W        W 3579  12.096  21.513  16.417  0.2418 -0.2334 -0.2708
60667W        W 3580   7.185  17.842  17.869  0.2957  0.0613 -0.1716
60668W        W 3581  15.457  22.262  13.862  0.2313  0.2466  0.0855
60669W        W 3582  14.173  18.363  16.562 -0.1182  0.6062 -0.3413
60670W        W 3583  16.722  13.553  13.094  0.1061 -0.0783 -0.0941
60671W        W 3584  17.166  12.819  17.719  0.0509 -0.2240  0.1081
60672W        W 3585   9.435  24.929  28.348  0.2868 -0.1057 -0.2585
60673W        W 3586  17.192  19.743  27.332  0.1090 -0.0994  0.2433
60674W        W 3587   8.010  17.524  20.859 -0.1596 -0.2816  0.2530
60675W        W 3588   3.066  17.175  23.138  0.3080 -0.0227 -0.0141
60676W        W 3589  11.610  16.724  24.313  0.0161 -0.1249  0.4586
60677W        W 3590  17.256  23.244  17.526  0.2248  0.1384  0.1371
60678W        W 3591  13.906  12.671  16.131 -0.1582  0.0158  0.0841
60679W        W 3592  12.316  11.469  19.253  0.2728  0.1822 -0.3473
60680W        W 3593  13.789  24.255  16.586  0.0584 -0.0799 -0.3543
60681W        W 3594   2.336  15.997  18.932 -0.3091 -0.2437 -0.2957
60682W        W 3595  16.523  13.389  16.351  0.1547  0.0345 -0.5172
60683W        W 3596  15.800  24.634  15.694 -0.1109  0.2155  0.1591
60684W        W 3597   8.155  29.552  22.265  0.1155 -0.0545 -0.3443
60685W        W 3598  13.868  15.446  19.678  0.2440  0.0848 -0.1377
60686W        W 3599   7.949  15.002  19.206 -0.1990 -0.2159 -0.2234
60687W        W 3600  12.259  25.152  25.067 -0.1536 -0.0183 -0.1318
60688W        W 3601  13.621  25.461  15.331 -0.0793 -0.1153 -0.1992
60689W        W 3602  24.124  15.332  28.272 -0.1111 -0.4739 -0.0010
60690W        W 3603  20.345   0.527  19.851  0.0546  0.0107  0.0451
60691W        W 3604  16.256  20.763  15.489 -0.0977  0.0965  0.3134
60692W        W 3605  12.573  18.696  14.824  0.0273  0.0878 -0.2809
60693W        W 3606  13.010  31.650  20.667  0.0572 -0.0483  0.3028
60694W        W 3607  30.578  32.105  21.714  0.1287  0.0486 -0.2924
60695W        W 3608  17.733  23.077  23.264  0.0126 -0.2298  0.1597
60696W        W 3609  12.827  28.448  18.985 -0.1914  0.0745 -0.1116
60697W        W 3610  18.019  16.864  13.410 -0.1523 -0.0053 -0.1299
60698W        W 3611  15.575  30.357  19.183 -0.2868  0.1626  0.0309
60699W        W 3612  23.748  16.722  14.252 -0.3152  0.0753 -0.1549
60700W        W 3613   3.880  12.659  18.340 -0.0926 -0.0194  0.0820
60701W        W 3614  24.329  25.704  20.497  0.1049  0.2860 -0.4964
60702W        W 3615  22.338   9.697  22.750  0.0324 -0.1913  0.2487
60703W        W 3616   7.490  13.987  18.762  0.2219 -0.1196  0.0562
60704W        W 3617   7.948  22.051  16.030 -0.2003 -0.0710  0.1646
60705W        W 3618  19.414  20.020  12.934 -0.0713 -0.0778  0.1469
60706W        W 3619  26.847  13.690  26.059 -0.0055 -0.3593  0.2405
60707W        W 3620   3.573   9.178  16.963 -0.2150  0.3225 -0.0614
60708W        W 3621  21.289  23.738  14.884  0.1593 -0.0243  0.0992
60709W        W 3622  16.236  23.864  16.658  0.0979 -0.0848  0.4792
60710W        W 3623  12.778  25.291  17.777  0.1084  0.0887 -0.0824
60711W        W 3624  14.820  25.409  28.687  0.1702  0.0888  0.0386
60712W        W 3625  14.495  12.845   5.059 -0.2743  0.1661  0.1118
60713W        W 3626  19.233  13.420  17.252  0.0136 -0.2236  0.0173
60714W        W 3627   9.097  19.663  15.506 -0.0060  0.3007 -0.2377
60715W        W 3628  24.738  10.806  17.152 -0.0622 -0.0365  0.1148
60716W        W 3629   8.580  16.133  22.415  0.0617  0.2724  0.0976
60717W        W 3630  18.524  11.012  18.337  0.1074  0.0749 -0.0287
60718W        W 3631  23.074  15.361  13.859  0.1644 -0.0777  0.0357
60719W        W 3632   2.463  12.650  18.529 -0.0321  0.1234  0.1090
60720W        W 3633  16.965  29.272  18.416  0.0529  0.4205  0.6754
60721W        W 3634  19.299  23.932  15.152  0.1286 -0.1053  0.0971
60722W        W 3635   7.322  25.280  16.349  0.0461 -0.4636 -0.1460
60723W        W 3636   5.492  18.589   0.818 -0.0588  0.1842 -0.0994
60724W        W 3637   8.368   8.043  18.763 -0.2802  0.1804 -0.4765
60725W        W 3638  13.957   0.667  18.003  0.3249 -0.3031  0.2992
60726W        W 3639   6.959  19.206  14.316  0.2533 -0.2755 -0.2256
60727W        W 3640   6.394  13.325  18.047  0.1780 -0.2513  0.0939
60728W        W 3641   3.443  16.999  15.048  0.2992 -0.1246  0.0476
60729W        W 3642   9.441  18.656  28.052  0.2474 -0.3383  0.0101
60730W        W 3643  10.178   6.976  20.111 -0.0459  0.0957 -0.1559
60731W        W 3644  10.747  30.261  23.056  0.1187  0.1845  0.0075
60732W        W 3645  20.902  16.773  11.879 -0.1076 -0.0557  0.0045
60733W        W 3646  12.188  17.147  19.015  0.0746 -0.1507  0.0427
60734W        W 3647  14.827  26.684  17.322  0.3415 -0.0735  0.0695
60735W        W 3648   4.546  16.612  15.039  0.0049 -0.1075  0.4305
60736W        W 3649  25.293  13.016  22.844 -0.0651  0.0176  0.4320
60737W        W 3650   6.815  28.275  26.314 -0.1805 -0.2689  0.2361
60738W        W 3651   6.463  15.825  21.477 -0.2228 -0.1249 -0.2027
60739W        W 3652   3.026  12.855  19.247 -0.0686  0.0520  0.0644
60740W        W 3653  11.836  20.644  14.343  0.0922 -0.2302  0.1777
60741W        W 3654  15.472  25.969  16.945  0.4075  0.0852  0.3630
60742W        W 3655  19.368  10.839  18.827  0.2056 -0.1475  0.2126
60743W        W 3656   7.277  15.066  14.209  0.5214  0.1174  0.2652
60744W        W 3657  13.947  24.104  15.433  0.0870 -0.1130 -0.1561
60745W        W 3658  14.206  23.916  14.241  0.1235  0.0513 -0.1380
60746W        W 3659   4.992  13.481  25.261 -0.3146  0.0201  0.0366
60747W        W 3660   7.011  26.052  21.745  0.1445  0.0708  0.1981
60748W        W 3661  30.000  15.682  16.976  0.0361 -0.4789 -0.1284
60749W        W 3662  13.247  26.886  15.469 -0.0277 -0.0578 -0.1734
60750W        W 3663  12.815  28.175  21.058 -0.0408 -0.0710  0.1227
60751W        W 3664  10.664  21.545  14.320 -0.3748  0.3743 -0.0127
60752W        W 3665   9.787  19.092  29.538  0.1013 -0.1613 -0.1707
60753W        W 3666  18.988  24.047  17.373  0.2826  0.0738  0.2626
60754W        W 3667  12.258  18.042  26.169 -0.4309  0.2118 -0.2315
60755W        W 3668   1.300  27.870  17.140  0.1218 -0.1333 -0.0531
60756W        W 3669  13.466  18.820  16.188  0.1992  0.3377  0.2527
60757W        W 3670   6.920  13.325  24.870 -0.0428  0.3345 -0.0654
60758W        W 3671  16.823  15.623  14.399  0.1467  0.2356  0.3279
60759W        W 3672   8.193  25.001  16.136  0.0355  0.0682 -0.3646
60760W        W 3673  10.813  29.160  23.555 -0.2154  0.0064  0.1194
60761W        W 3674  18.200  17.627  12.972  0.1022 -0.1908  0.0577
60762W        W 3675  15.358  14.544  15.871 -0.0625  0.0882  0.0878
60763W        W 3676  11.069   8.879  21.616  0.0251  0.1620  0.1017
60764W        W 3677  13.774  19.751   6.545 -0.1215  0.1849  0.4042
60765W        W 3678  21.015   7.984  16.226  0.1749  0.0714 -0.1345
60766W        W 3679  12.113  23.600  26.985 -0.1869  0.3291  0.1580
60767W        W 3680   6.693  24.563   6.350 -0.0769  0.3181 -0.0516
60768W        W 3681  33.965  15.676   4.764 -0.0382  0.2625 -0.0193
60769W        W 3682   9.711  16.318   3.470 -0.0828  0.1754 -0.3224
60770W        W 3683   8.791  23.339  24.926 -0.0772  0.0543 -0.0081
60771W        W 3684  12.040  10.078  20.344 -0.1753 -0.4290 -0.0061
60772W        W 3685   9.060  19.737  29.145 -0.1660 -0.0027  0.1790
60773W        W 3686  10.407  20.304   5.562 -0.1545  0.0881  0.1896
60774W        W 3687   9.051  12.704  20.648 -0.1850  0.2301  0.0974
60775W        W 3688  10.220  24.684   7.086 -0.1408 -0.0760  0.2103
60776W        W 3689  12.417  17.718  28.029  0.0126  0.0329  0.2034
60777W        W 3690  10.033   7.921  19.432  0.1788 -0.0847 -0.0107
60778W        W 3691  27.838  24.724  18.522 -0.2178  0.1512  0.3290
60779W        W 3692   9.401  13.894  21.880  0.2948 -0.1966 -0.1093
60780W        W 3693  20.243  20.848  14.817 -0.3389 -0.4916 -0.1045
60781W        W 3694   7.719  28.800  17.289  0.0321 -0.2211  0.0672
60782W        W 3695  10.691  23.307  29.099  0.1086  0.1545 -0.0574
60783W        W 3696  18.167  29.134  24.572 -0.0124  0.1421 -0.1432
60784W        W 3697   3.933  15.094  24.648  0.3042  0.2046 -0.0658
60785W        W 3698   9.357  21.737  29.245 -0.1525  0.2362  0.2458
60786W        W 3699  11.960   4.374   2.045 -0.0649 -0.1821 -0.0945
60787W        W 3700  12.031  19.301  16.966 -0.2045 -0.0630 -0.1687
60788W        W 3701  11.541  20.084  16.567  0.0465 -0.0707  0.0110
60789W        W 3702   1.245  24.697  23.894  0.2563 -0.1458 -0.0647
60790W        W 3703  14.756  21.246  26.842 -0.3118 -0.1888 -0.2373
60791W        W 3704   8.611  23.993  26.503  0.1631  0.1591 -0.1867
60792W        W 3705  10.193  17.272  24.644 -0.1898  0.1995  0.3219
60793W        W 3706  12.562  20.153  12.489 -0.0753  0.0481 -0.0156
60794W        W 3707  17.146  25.478  22.644 -0.1243  0.4406 -0.2615
60795W        W 3708   9.007   5.940  22.195  0.0830 -0.1211 -0.0022
60796W        W 3709  23.926  14.538  14.543 -0.0035 -0.2688  0.1815
60797W        W 3710   6.378  28.046   5.589 -0.0560  0.0491 -0.0805
60798W        W 3711   6.395  17.017  20.766 -0.0260  0.2893  0.0008
60799W        W 3712  11.082  15.591  27.909 -0.4197  0.0339  0.2973
60800W        W 3713  16.910  33.575  10.355  0.1116 -0.0992  0.2184
60801W        W 3714   3.545  20.537   6.436  0.0968 -0.0100  0.0368
60802W        W 3715  12.945  19.444  18.178 -0.0504 -0.1593  0.0599
60803W        W 3716  18.926  30.552  18.717 -0.0163 -0.3078  0.0759
60804W        W 3717   7.952  32.374  15.827  0.3673  0.2001  0.1057
60805W        W 3718   7.828  26.384   6.330  0.0734 -0.3019  0.0184
60806W        W 3719  13.455  27.497   0.914  0.0360 -0.1486  0.0284
60807W        W 3720  13.554  24.309  19.348  0.2318 -0.0379 -0.1250
60808W        W 3721   6.792  17.725  14.301 -0.0376  0.3371 -0.0534
60809W        W 3722   8.491  18.334  26.847  0.4126  0.2245 -0.0881
60810W        W 3723  12.894  15.371  14.269 -0.0082 -0.0221  0.0440
60811W        W 3724  14.221  18.178  13.541 -0.0477  0.0252  0.0664
60812W        W 3725  13.154  24.935   4.377 -0.1473 -0.0367  0.1242
60813W        W 3726  15.075  30.434  18.964  0.1571 -0.0104 -0.2493
60814W        W 3727   8.995  23.972   0.093  0.0449  0.1152 -0.0369
60815W        W 3728  14.843  20.938  24.345  0.1421 -0.0426 -0.0591
60816W        W 3729   5.663  15.570  25.432  0.0230 -0.3108 -0.1988
60817W        W 3730   4.108  17.113  18.834 -0.3342  0.0402  0.1692
60818W        W 3731  17.266  16.390  24.797 -0.0532 -0.2202 -0.1987
60819W        W 3732  11.514  14.628  26.483 -0.0454 -0.0878 -0.0273
60820W        W 3733  14.716  20.587  16.869  0.1314  0.1106 -0.0343
60821W        W 3734   9.495  18.851  15.246 -0.0109 -0.2326  0.1593
60822W        W 3735  10.574  16.199  13.102  0.2862 -0.1367  0.2131
60823W        W 3736  14.006  25.374  28.629  0.2582  0.0821  0.1172
60824W        W 3737   0.625  27.522   3.191 -0.1759 -0.0010 -0.1175
60825W        W 3738   7.432  21.254   0.458 -0.0015 -0.1396 -0.0420
60826W        W 3739   3.827  26.591  27.940  0.0352 -0.3582 -0.0442
60827W        W 3740  29.949  27.266  27.083  0.0549  0.1065 -0.1127
60828W        W 3741  14.003  22.279  21.282  0.0731 -0.1435  0.1987
60829W        W 3742   7.885  15.217   5.492 -0.1085 -0.5457  0.1531
60830W        W 3743  11.937  23.905  24.541  0.1459 -0.0059 -0.1209
60831W        W 3744  19.253  20.872  14.743  0.1283 -0.1408  0.3192
60832W        W 3745  21.926  13.021  19.892 -0.4834 -0.2269 -0.2784
60833W        W 3746   6.606  18.221  22.628 -0.2071  0.0750 -0.1555
60834W        W 3747  28.781  25.729   3.762 -0.1962  0.1180  0.1073
60835W        W 3748   6.286  30.429  22.465  0.0513  0.2080 -0.1541
60836W        W 3749   7.580  24.993  19.255 -0.0270 -0.0728 -0.2716
60837W        W 3750  12.145  21.104   0.408 -0.2282  0.0574  0.0570
60838W        W 3751  21.088  27.333   1.185 -0.3179  0.0099 -0.1427
60839W        W 3752  22.371  13.872  15.818  0.1651  0.0865 -0.1107
60840W        W 3753   4.626  21.454  19.170  0.1902 -0.0248 -0.2685
60841W        W 3754   4.937  20.482  24.112  0.1383 -0.0287  0.1339
60842W        W 3755   7.303  10.047  20.256  0.0957 -0.0733 -0.0981
60843W        W 3756   5.098  18.760  24.309  0.0110  0.0902 -0.0962
60844W        W 3757  11.044  28.959  20.491 -0.4187 -0.0573 -0.1215
60845W        W 3758   5.186  27.927  23.248  0.1069 -0.1733  0.0835
60846W        W 3759  15.905  28.094  26.327 -0.0964 -0.0084 -0.1618
60847W        W 3760   5.877  17.473  15.642  0.0479  0.1681  0.2682
60848W        W 3761  19.281  23.067  18.622  0.2460  0.1141  0.0288
60849W        W 3762  12.784  17.853  29.222  0.1233 -0.1146  0.0953
60850W        W 3763  11.654  20.413  20.967  0.3441  0.1243 -0.0738
60851W        W 3764   9.311  19.034  25.979 -0.0522 -0.2040 -0.1444
60852W        W 3765  10.461  31.698  22.833  0.1480  0.1688  0.0096
60853W        W 3766  14.866  23.633  23.440  0.0688  0.1341 -0.0809
60854W        W 3767  14.594  20.366  20.246  0.0108  0.0885  0.0905
60855W        W 3768  12.706  18.823  13.433 -0.1717  0.1839  0.1111
60856W        W 3769  15.359  18.377  12.837  0.2540 -0.2307  0.4540
60857W        W 3770  13.488  28.618  22.479  0.0914  0.1544 -0.0860
60858W        W 3771  15.621  19.647  27.476  0.1837  0.0694  0.1896
60859W        W 3772   9.634  24.538  20.577  0.5951 -0.0210  0.1120
60860W        W 3773   2.568  15.442  25.212  0.1421  0.0806  0.0282
60861W        W 3774  21.936  25.922  18.168 -0.1143  0.1192  0.1531
60862W        W 3775  14.425  23.619  20.308 -0.2170  0.1493  0.4745
60863W        W 3776  30.153  18.328  25.460 -0.2238  0.0048  0.0946
60864W        W 3777  13.458   9.192  19.771 -0.2440 -0.0394  0.2497
60865W        W 3778   9.996  22.373  26.601  0.2558  0.0540  0.4003
60866W        W 3779   8.838  19.915  27.491 -0.0566  0.0895  0.0636
60867W        W 3780  11.445  29.358   1.638  0.0051  0.0684  0.0780
60868W        W 3781   8.881  25.003  20.637 -0.1846 -0.0308 -0.2634
60869W        W 3782  16.838  26.353  27.737  0.1787 -0.1116 -0.0105
60870W        W 3783   5.888  23.754  14.606  0.0622 -0.2727 -0.1882
60871W        W 3784  20.414  12.663  15.427  0.2197  0.2307 -0.2830
60872W        W 3785   0.336  18.767  20.244 -0.1478 -0.0190  0.3249
60873W        W 3786   6.873  20.049  19.194  0.2424 -0.0063  0.1562
60874W        W 3787  13.800  28.031   5.477  0.0993 -0.1460 -0.1389
60875W        W 3788   7.963  34.130  23.594 -0.1746  0.1562  0.1470
60876W        W 3789  15.528  16.044   0.769  0.0137  0.0009  0.0848
60877W        W 3790  12.746  21.823  21.829 -0.2333  0.2865 -0.1894
60878W        W 3791  22.003  17.022   1.578  0.1002 -0.1623  0.2634
60879W        W 3792  15.060  14.231  23.090 -0.0294  0.0268 -0.2107
60880W        W 3793   4.886  12.538  23.435 -0.1143 -0.3114 -0.0255
60881W        W 3794  12.860  20.612  23.665 -0.2429 -0.3510 -0.1249
60882W        W 3795   7.359  24.069  26.512 -0.0003 -0.2550 -0.3234
60883W        W 3796  13.292  22.736  19.450  0.2210 -0.1769 -0.0765
60884W        W 3797  19.935  21.462  20.685 -0.2133 -0.0323  0.1373
60885W        W 3798  11.471  14.880  12.752  0.0997  0.0266 -0.0879
60886W        W 3799  11.975  18.593  24.709 -0.0721 -0.1746 -0.0211
60887W        W 3800  17.021  24.950  28.812 -0.0938 -0.0070 -0.1358
60888W        W 3801  34.148  12.059  27.954  0.1367  0.2234 -0.0612
60889W        W 3802  20.093  32.752  19.575  0.0492 -0.1032  0.1519
60890W        W 3803   5.958   8.527  28.478 -0.1767  0.3059  0.3522
60891W        W 3804   4.836  19.246  16.634  0.1167  0.2687 -0.1673
60892W        W 3805  12.200  25.138   0.855 -0.0703  0.1526 -0.1888
60893W        W 3806  13.151  25.406  21.739 -0.1116  0.1040  0.0039
60894W        W 3807  16.695  13.545  16.955 -0.3458  0.0104  0.2125
60895W        W 3808  13.744  20.770  28.843  0.1118 -0.2753 -0.1461
60896W        W 3809  11.316  13.299  19.099 -0.2784 -0.0834  0.1394
60897W        W 3810   2.302  16.672  22.987  0.2039  0.0462 -0.1564
60898W        W 3811   5.939  22.754   1.472 -0.2635  0.4597  0.1209
60899W        W 3812  14.384  28.851  26.520 -0.0541  0.1058  0.3132
60900W        W 3813  16.717  22.564  19.665 -0.0740  0.1149 -0.1758
60901W        W 3814   7.944  21.742  26.945 -0.0470  0.1453 -0.0777
60902W        W 3815   4.046  19.944  25.341 -0.1085  0.0279 -0.0435
60903W        W 3816  22.760  17.282  18.096 -0.0765 -0.0354 -0.1792
60904W        W 3817  16.519  13.335  25.608 -0.1005 -0.0543  0.1404
60905W        W 3818  19.026   8.751  20.319  0.1656  0.1311 -0.1130
60906W        W 3819   9.466  23.867  29.521  0.4004 -0.1157 -0.2162
60907W        W 3820  10.583  14.033   2.365  0.2402  0.4901  0.1078
60908W        W 3821   1.643   1.381   1.060 -0.0261 -0.0115  0.1879
60909W        W 3822   8.431  19.883  20.240 -0.0014  0.0418  0.1273
60910W        W 3823   7.355  22.002  23.617 -0.1860  0.0893  0.4377
60911W        W 3824  12.815  28.300  24.988 -0.3958  0.0716  0.2288
60912W        W 3825   6.427  22.117  15.837 -0.0783 -0.0918 -0.0166
60913W        W 3826  11.239  26.829  23.366  0.2530 -0.1589  0.1125
60914W        W 3827   3.209  24.864  29.063  0.0589 -0.0355 -0.0705
60915W        W 3828   9.115  20.955  23.494  0.0216  0.4383  0.1527
60916W        W 3829  25.775  20.095   6.378 -0.2444  0.1002  0.1303
60917W        W 3830   7.099  27.387  29.524  0.0283 -0.0494 -0.0730
60918W        W 3831   8.590  14.593   0.148 -0.1602  0.3088 -0.0785
60919W        W 3832  17.208  21.876  21.347  0.0471  0.0681 -0.1652
60920W        W 3833   2.201  21.814  19.155 -0.0953  0.3459 -0.1163
60921W        W 3834   9.642  17.143  17.151  0.1104  0.0920  0.1898
60922W        W 3835   2.465  14.362  15.774 -0.1675 -0.1490 -0.1313
60923W        W 3836   4.315  20.503  26.397  0.0850  0.1705  0.0996
60924W        W 3837  17.081  21.788  22.965 -0.0686  0.3015  0.5207
60925W        W 3838   8.324  21.149  20.385  0.0315  0.3297 -0.2030
60926W        W 3839  13.788  19.896  16.214 -0.1593  0.2159  0.0194
60927W        W 3840   3.180  23.984  18.107  0.2046 -0.0507  0.0172
60928W        W 3841  18.253  19.942   0.817 -0.2360 -0.2879  0.2362
60929W        W 3842  13.041  19.466  25.084 -0.0508 -0.0395  0.1655
60930W        W 3843  11.956  20.528  17.897  0.1190 -0.2237 -0.0299
60931W        W 3844  20.485  28.218  29.549 -0.0718  0.3118  0.4219
60932W        W 3845  11.175  24.943  19.609 -0.0329 -0.2978  0.3503
60933W        W 3846  15.951  25.312  21.664 -0.2312  0.0170  0.1696
60934W        W 3847   7.768   8.397  25.144 -0.0670  0.1119 -0.0331
60935W        W 3848  10.793  27.965  17.793  0.4203  0.1107 -0.1158
60936W        W 3849  21.292  14.850  17.812  0.3156 -0.0582 -0.1955
60937W        W 3850   4.476   4.372  21.125 -0.0855  0.1862  0.0449
60938W        W 3851   7.914  22.485   4.445 -0.0591 -0.2332 -0.2109
60939W        W 3852  16.960  23.497  28.658  0.0456  0.0279 -0.2977
60940W        W 3853  15.310  33.925  26.805  0.2303  0.1452  0.3689
60941W        W 3854   9.950  11.775  20.193 -0.2257  0.1793  0.1366
60942W        W 3855   8.739  10.590  28.275  0.5866 -0.1848  0.2164
60943W        W 3856  11.111  11.329  19.083  0.2004 -0.1111 -0.0224
60944W        W 3857   8.693  24.421  28.053  0.0205  0.0195 -0.1319
60945W        W 3858   8.778  25.348   2.746  0.1208 -0.2445 -0.1307
60946W        W 3859   7.274  20.711  29.489  0.0716 -0.0905  0.2202
60947W        W 3860  18.971  32.872  28.391 -0.0532 -0.3242 -0.0515
60948W        W 3861  19.311  24.739  24.922 -0.3417  0.5104  0.0219
60949W        W 3862  10.628  30.142  21.889 -0.0393 -0.2431  0.0289
60950W        W 3863  12.803  28.916  17.865 -0.3480  0.1161 -0.0628
60951W        W 3864  15.125  12.827   3.106 -0.0576 -0.2775  0.0136
60952W        W 3865  16.306  27.100  14.513 -0.2921  0.0211  0.3901
60953W        W 3866   9.690  15.927  21.019 -0.1691 -0.0516  0.1970
60954W        W 3867  10.094  24.221  21.768 -0.1038  0.4029  0.2560
60955W        W 3868   3.987  25.205  29.250 -0.3980 -0.2232  0.1673
60956W        W 3869  10.015  21.401   3.614 -0.0002 -0.0926  0.1377
60957W        W 3870  13.071  23.090  22.949  0.0593 -0.1201 -0.2658
60958W        W 3871   0.256  20.461  17.112  0.1918  0.0303  0.0607
60959W        W 3872  16.323  12.485  22.114  0.1605 -0.0316 -0.0974
60960W        W 3873  10.696  29.638  24.738 -0.0186  0.0628  0.0458
60961W        W 3874  16.967  30.315   1.301  0.2001 -0.3651 -0.0997
60962W        W 3875  16.975  23.254  20.528 -0.1592 -0.2619 -0.3971
60963W        W 3876   5.474  19.682  26.713 -0.1379 -0.0526  0.2840
60964W        W 3877  17.314  26.021  19.628 -0.1049  0.1436 -0.1578
60965W        W 3878  12.755  25.034   0.070  0.3610 -0.0128 -0.2632
60966W        W 3879  24.072  21.157   5.931  0.2611  0.0668  0.0773
60967W        W 3880  23.626   7.049  20.038  0.2402 -0.1064  0.2404
60968W        W 3881  13.266  18.667   0.981  0.2386 -0.1946  0.2442
60969W        W 3882   4.997  29.350   1.289  0.0304 -0.2062  0.1198
60970W        W 3883  15.555  17.341  13.103 -0.1490 -0.1697 -0.1042
60971W        W 3884  19.471  12.115   0.216  0.1219  0.1361 -0.1904
60972W        W 3885  23.669   2.857  20.144  0.0281 -0.1681  0.0434
60973W        W 3886   0.064  17.836  24.642 -0.2390 -0.1382 -0.2733
60974W        W 3887   8.458  10.994  21.529 -0.2810 -0.1020 -0.1920
60975W        W 3888  21.210   1.471  15.749  0.1409 -0.1835 -0.0590
60976W        W 3889   6.759   3.124  29.650 -0.1006  0.0581  0.1847
60977W        W 3890   2.385  26.276   2.147  0.2100 -0.0313  0.0467
60978W        W 3891  20.550  12.040  16.770 -0.0826  0.0519  0.0538
60979W        W 3892  15.449  21.704  15.984 -0.1964 -0.1905  0.1495
60980W        W 3893  14.275  23.970  22.894  0.2001  0.5121 -0.1552
60981W        W 3894  10.205  24.434  28.043  0.2642 -0.1256  0.0194
60982W        W 3895  11.214  13.652  27.810  0.4055  0.0216  0.1499
60983W        W 3896  17.238  19.573  26.849  0.0550 -0.0902 -0.1101
60984W        W 3897   9.898  26.721  23.484 -0.1754 -0.2158  0.0490
60985W        W 3898  19.066  10.173  16.518 -0.0348 -0.0557  0.0261
60986W        W 3899  18.517  18.752   4.338 -0.3335  0.2889 -0.0940
60987W        W 3900   7.342  20.557  25.299 -0.2242  0.2756 -0.4152
60988W        W 3901   8.651  21.153  23.777 -0.0452 -0.2265  0.0985
60989W        W 3902  17.985  22.848  24.518 -0.1272 -0.2390 -0.1220
60990W        W 3903  13.936  23.502  22.073  0.1917 -0.3552 -0.0892
60991W        W 3904  24.926  14.579  18.763 -0.2790  0.0246 -0.1054
60992W        W 3905  19.582  22.751   2.796  0.2074  0.0189 -0.0359
60993W        W 3906  17.592  21.381  17.193  0.0017  0.2228 -0.1455
60994W        W 3907  12.234   5.333   2.165 -0.2898  0.1751 -0.3062
60995W        W 3908   2.294  18.890  16.948 -0.0682 -0.0978 -0.1784
60996W        W 3909  15.725  31.895  22.761  0.0774  0.2180 -0.0812
60997W        W 3910  13.035  26.595   5.112  0.0411 -0.1205 -0.0470
60998W        W 3911   8.448  29.915   0.508  0.2585 -0.1310  0.0978
60999W        W 3912  16.857  34.045   1.324 -0.0144 -0.2777  0.1732
61000W        W 3913   5.848  10.654  16.807 -0.2713 -0.0448 -0.0318
61001W        W 3914  16.981  19.526  28.364 -0.0517 -0.1454  0.2548
61002W        W 3915   6.510  27.537  25.070 -0.1174  0.0732  0.0309
61003W        W 3916  13.541  20.689  19.275  0.1458  0.0390  0.1038
61004W        W 3917   5.992  19.341  20.895 -0.3063  0.1390  0.3013
61005W        W 3918  10.889  20.805  26.267  0.0812 -0.1770  0.0257
61006W        W 3919  23.840  32.299  21.719  0.0006 -0.0666  0.1091
61007W        W 3920  20.906  22.020  18.477 -0.1149 -0.0882 -0.1237
61008W        W 3921  12.202  24.531  26.548  0.0192 -0.1532  0.2167
61009W        W 3922   1.724  17.356  27.656 -0.2892 -0.0810 -0.2320
61010W        W 3923   7.658  12.169  26.560 -0.0153  0.0747  0.1098
61011W        W 3924  13.862  20.357  25.638 -0.2719  0.0575  0.0623
61012W        W 3925   7.846  29.701  22.736 -0.3371 -0.2191 -0.1261
61013W        W 3926   6.086  28.169  21.043 -0.3191 -0.2567  0.1092
61014W        W 3927  12.976  17.169  17.505 -0.0764  0.2641 -0.2415
61015W        W 3928   0.525  18.533   1.677 -0.2288  0.0495 -0.0484
61016W        W 3929  17.534  32.295  17.831 -0.0312  0.2156  0.0067
61017W        W 3930  14.566   3.146  18.868  0.1310 -0.2848  0.3670
61018W        W 3931   7.188   0.082   7.648  0.2278  0.2410  0.3188
61019W        W 3932  10.452   9.580  19.768  0.1769 -0.1772  0.1550
61020W        W 3933  14.955  32.490   4.575 -0.1226  0.0122  0.0591
61021W        W 3934  14.893  11.736  18.862 -0.0496  0.0468 -0.1672
61022W        W 3935  16.291  17.348  25.583 -0.0247  0.1393  0.2891
61023W        W 3936  17.247  24.709  20.533  0.0281 -0.1095  0.0940
61024W        W 3937   7.649  14.994   1.439  0.2372  0.2286 -0.2641
61025W        W 3938   9.539  29.450  26.303 -0.0366 -0.2108 -0.2477
61026W        W 3939  18.027   4.144  14.480 -0.1523 -0.0977 -0.2777
61027W        W 3940  16.054  17.089  14.171 -0.3617 -0.0663 -0.0861
61028W        W 3941  12.805  21.384  25.924  0.3352  0.2108 -0.4787
61029W        W 3942   8.452  21.275  24.230  0.1064  0.0173  0.0728
61030W        W 3943   3.716  19.177  25.380  0.1727  0.1491 -0.0318
61031W        W 3944  14.697  27.959  15.053 -0.0449 -0.1664 -0.2993
61032W        W 3945   8.010  12.685  18.478  0.0659  0.0419  0.0734
61033W        W 3946   5.937  25.567  28.669  0.1818 -0.1856 -0.1008
61034W        W 3947  10.326  19.164  22.524  0.3649 -0.2084 -0.0351
61035W        W 3948   4.809  26.317  24.571  0.3582 -0.0994 -0.0917
61036W        W 3949   6.365  27.068  19.347 -0.0086 -0.1325  0.1914
61037W        W 3950  27.745  15.116   0.392 -0.2732 -0.0919  0.1547
61038W        W 3951  19.523  10.896  21.657 -0.1338 -0.1803  0.4006
61039W        W 3952  11.230  21.579  19.162  0.0482  0.0210  0.2314
61040W        W 3953  12.333  27.081  20.150 -0.2367 -0.1923  0.2724
61041W        W 3954  10.484  31.890  23.744 -0.1326 -0.3234  0.0435
61042W        W 3955  24.619  30.658  18.346  0.1162  0.1391 -0.0027
61043W        W 3956   6.708  19.944  25.088  0.0246 -0.0290  0.1259
61044W        W 3957  12.783  18.181  19.416  0.0308 -0.0132 -0.1364
61045W        W 3958  20.373  29.389  25.222 -0.0794  0.0911  0.1184
61046W        W 3959  15.495  18.153  25.730  0.1356 -0.2506 -0.3256
61047W        W 3960  14.697  18.443  21.448  0.2963 -0.1399  0.2129
61048W        W 3961   3.582  12.416  26.324  0.0299  0.0841 -0.1933
61049W        W 3962  12.646  19.586  25.713 -0.2985 -0.0607 -0.2270
61050W        W 3963  12.006   8.647  26.021  0.2225  0.3214 -0.2693
61051W        W 3964  16.681  24.115  23.318  0.0047  0.0177  0.2902
61052W        W 3965  11.578  24.015   2.482  0.2486  0.3305 -0.1747
61053W        W 3966  30.090  18.682  15.150  0.4132  0.1129 -0.1194
61054W        W 3967  11.040  23.964  28.139  0.0783  0.0172  0.3581
61055W        W 3968   7.324  21.841   5.056  0.0175  0.2050 -0.2327
61056W        W 3969  10.636   1.624   3.017 -0.2986  0.4298  0.0522
61057W        W 3970  13.538  19.877  29.028 -0.1469 -0.0210  0.0444
61058W        W 3971  13.913  34.023  28.154 -0.0702  0.0298 -0.0792
61059W        W 3972  11.738  29.115   0.331  0.2190  0.1875  0.0531
61060W        W 3973   8.390  23.914   0.123 -0.1318  0.1533  0.0077
61061W        W 3974  25.273  31.063  24.272 -0.1614 -0.1010  0.0528
61062W        W 3975   9.830  23.747   1.832 -0.0718 -0.0666  0.2157
61063W        W 3976   5.733  21.066  24.019  0.4271  0.0722 -0.0069
61064W        W 3977  15.184  17.633  26.323 -0.3029  0.1371  0.1666
61065W        W 3978  13.304  26.884  23.877 -0.1806 -0.0450 -0.1152
61066W        W 3979  13.728   0.748  21.868  0.0296 -0.1004 -0.0806
61067W        W 3980  17.211  26.548  26.850  0.2415 -0.4101  0.1370
61068W        W 3981  11.790  21.587  21.433  0.2155 -0.1472 -0.0592
61069W        W 3982   8.148  19.147  17.199  0.2092  0.1350  0.0859
61070W        W 3983  17.022  13.605  14.413  0.0123  0.1990 -0.0014
61071W        W 3984  15.038  22.560  18.010  0.0546  0.0524  0.3067
61072W        W 3985  14.786  22.742  20.784 -0.0866 -0.0475  0.0303
61073W        W 3986  14.135  11.920  26.813 -0.4856  0.0787 -0.0719
61074W        W 3987   9.621  18.842  23.832 -0.1708 -0.1365  0.1934
61075W        W 3988   4.711  25.819   0.599  0.0297 -0.3772  0.0260
61076W        W 3989   6.346  20.561  23.672 -0.2597 -0.1187  0.0750
61077W        W 3990   8.786  29.018   0.550  0.3804  0.0983 -0.3776
61078W        W 3991  15.114  23.001  18.196  0.3447  0.1131 -0.2596
61079W        W 3992  17.311  18.438  14.427 -0.2146  0.0824 -0.0757
61080W        W 3993   8.056  30.489  29.558 -0.2101  0.0851  0.1408
61081W        W 3994   6.471  20.634   1.735  0.2257  0.1751  0.0537
61082W        W 3995  22.266  27.230   0.802  0.0658  0.0276  0.1775
61083W        W 3996  15.453  33.120  18.143  0.0758  0.0722  0.1144
61084W        W 3997   5.710  21.645  24.804  0.0277 -0.0428  0.1950
61085W        W 3998  17.341  18.052  26.948 -0.1389  0.1033 -0.1983
61086W        W 3999  14.123  18.992   1.462 -0.2678  0.0069  0.1800
61087W        W 4000  13.650  30.228  29.475  0.1896 -0.0481  0.1466
61088W        W 4001   4.334  17.029  29.575  0.0047  0.0171 -0.0276
61089W        W 4002  14.600  19.095  13.405 -0.0910 -0.0080 -0.1780
61090W        W 4003  15.186  18.924  13.559  0.4439  0.0950  0.0970
61091W        W 4004   9.583  18.832  21.989 -0.0950 -0.2720  0.0019
61092W        W 4005  12.400  21.737  22.226 -0.0849  0.3549  0.1906
61093W        W 4006   6.589  12.705  22.844 -0.0601  0.0635 -0.1301
61094W        W 4007  25.248  21.914   1.930 -0.0228 -0.1580  0.1580
61095W        W 4008   5.168  29.875  26.606 -0.0778 -0.1811  0.2214
61096W        W 4009  11.651  15.646  16.678 -0.1995  0.3588 -0.0069
61097W        W 4010  15.170  12.486  21.857 -0.2312  0.1090  0.0749
61098W        W 4011  11.504  24.076  25.305 -0.2968 -0.1680  0.1701
61099W        W 4012  15.363  17.248  24.523 -0.1573 -0.0491 -0.0962
61100W        W 4013  11.875  22.044   5.097  0.1070  0.1759 -0.2408
61101W        W 4014  11.657  20.315  21.755  0.0565 -0.4257  0.0077
61102W        W 4015  11.850  23.255  27.199  0.1049 -0.3520 -0.0707
61103W        W 4016  17.935  28.080  14.792 -0.0307  0.0885  0.0970
61104W        W 4017   8.253  21.699  16.232  0.1165  0.0921  0.1352
61105W        W 4018  10.327  23.263   9.755  0.1339 -0.0475 -0.0415
61106W        W 4019   8.226  22.265  27.325  0.2493 -0.0730 -0.2204
61107W        W 4020  23.181  23.888   6.565 -0.1458  0.1464  0.0993
61108W        W 4021  16.955  10.379  24.304 -0.1056 -0.1941  0.2695
61109W        W 4022   9.471  13.647  14.417 -0.1199 -0.0572 -0.0176
61110W        W 4023  10.645  14.881  17.954  0.1896  0.1084  0.2328
61111W        W 4024  24.531  18.463  17.178 -0.0850 -0.0721  0.0511
61112W        W 4025  12.370  14.088  25.557 -0.6180  0.1320 -0.1254
61113W        W 4026   4.917  27.390  17.199 -0.2064 -0.1755  0.1354
61114W        W 4027   5.956  17.485  26.440  0.0459  0.2499 -0.0701
61115W        W 4028  11.635  28.194   3.409  0.0255  0.0411 -0.1392
61116W        W 4029  13.949  18.043  21.440  0.3583 -0.0593  0.1110
61117W        W 4030  14.852  27.295   3.396  0.3157 -0.1152 -0.0027
61118W        W 4031  16.672  30.152  22.417  0.0852 -0.3545 -0.0538
61119W        W 4032   5.257  24.526  25.389 -0.1647  0.0837 -0.0109
61120W        W 4033  21.540  28.422  18.603 -0.0384  0.1774 -0.0906
61121W        W 4034  17.699  29.276  15.237  0.2273  0.0428  0.0199
61122W        W 4035   3.495  13.833  26.838 -0.1654 -0.0716  0.0578
61123W        W 4036   5.645  32.639   5.171 -0.0206  0.0775 -0.2285
61124W        W 4037  27.786  22.296  25.850  0.1456 -0.0419  0.3698
61125W        W 4038   5.952  17.835  25.513  0.0363 -0.1529 -0.0407
61126W        W 4039  11.433  19.182  29.517  0.1373 -0.1267 -0.0093
61127W        W 4040  23.571  18.073  16.142  0.0755  0.2251  0.0587
61128W        W 4041  13.498  21.545  18.764 -0.0926  0.0383 -0.0585
61129W        W 4042  12.609  18.948  25.769 -0.1723 -0.1841  0.1962
61130W        W 4043   5.021  27.717   2.889  0.2343 -0.0583 -0.0392
61131W        W 4044   0.544  22.172  28.919  0.2825  0.0502 -0.0081
61132W        W 4045  14.683  20.417  22.813  0.2062  0.0335  0.2631
61133W        W 4046  12.618  17.412  18.974 -0.3650 -0.0304  0.0632
61134W        W 4047  10.385  15.355   1.141  0.1065 -0.2385 -0.1128
61135W        W 4048  16.401  30.958  22.024 -0.0379 -0.2000 -0.0391
61136W        W 4049  34.017  23.936  22.582  0.1843  0.0456  0.2803
61137W        W 4050  25.079  18.072  17.775  0.1364 -0.1490 -0.0393
61138W        W 4051   4.577  18.282  14.779 -0.3384 -0.0114 -0.2534
61139W        W 4052   9.172  22.672   2.793  0.1188 -0.0075 -0.1017
61140W        W 4053   9.904  20.042   2.449 -0.2174  0.2400  0.1440
61141W        W 4054  10.389  24.183  19.432  0.1212 -0.5383  0.0039
61142W        W 4055   4.076   6.683  22.094  0.3362 -0.0959  0.0578
61143W        W 4056   7.541  19.300  22.505  0.1468  0.1320 -0.1043
61144W        W 4057  11.607  23.231  19.270  0.1849 -0.0540 -0.0481
61145W        W 4058  11.728  19.910   3.953 -0.0422 -0.2910  0.2025
61146W        W 4059   1.998  19.164   3.595  0.0317 -0.0620 -0.0436
61147W        W 4060   5.784  17.623  24.863  0.5017  0.0301  0.1426
61148W        W 4061  14.733  33.075  27.987  0.0674 -0.2586 -0.1737
61149W        W 4062   2.741  17.103   1.575 -0.1126  0.0742  0.1429
61150W        W 4063  11.109  21.661   0.748 -0.2461 -0.0232  0.0784
61151W        W 4064   9.986  19.134   1.420 -0.1571  0.4541 -0.0440
61152W        W 4065   4.852  21.791  28.394 -0.2079 -0.2149  0.0247
61153W        W 4066  12.377  22.456   4.016  0.4271 -0.2026 -0.1202
61154W        W 4067  16.755  21.135  14.280  0.1953 -0.1902  0.2045
61155W        W 4068   7.717  12.024  28.028 -0.0797 -0.0923  0.2233
61156W        W 4069  10.874  26.649  22.167 -0.0082 -0.0677 -0.0003
61157W        W 4070  12.483  14.491  14.402  0.0280  0.1740 -0.0004
61158W        W 4071  11.388  26.887   3.412 -0.0812  0.0821 -0.0998
61159W        W 4072  17.995  13.706   0.562  0.0052 -0.1853  0.4930
61160W        W 4073  17.995  20.794  17.425 -0.1040  0.0200  0.1357
61161W        W 4074  17.606  22.031   4.077 -0.0734  0.0232 -0.0341
61162W        W 4075   6.505  26.546  21.107 -0.0724  0.0734 -0.1602
61163W        W 4076   5.046  18.397  22.030 -0.3413  0.1425  0.1377
61164W        W 4077  14.287  15.118  21.568  0.0156  0.0867 -0.0267
61165W        W 4078  15.670  17.379   6.172 -0.1121 -0.0553 -0.1319
61166W        W 4079  11.075  18.068  18.279  0.0719 -0.0390 -0.0688
61167W        W 4080   5.415  16.357  16.855  0.2495 -0.2953  0.0848
61168W        W 4081  14.921  14.333  18.222 -0.0584 -0.0944 -0.0512
61169W        W 4082  12.856  24.880  27.777 -0.0866 -0.2451 -0.0362
61170W        W 4083  14.910   8.786  25.357  0.1195  0.2620  0.0711
61171W        W 4084   9.098  21.403  19.515 -0.2950  0.0521 -0.3588
61172W        W 4085  25.939  11.438   1.124  0.3452 -0.2284 -0.0955
61173W        W 4086   8.945  33.843  28.350  0.0006 -0.2068  0.1592
61174W        W 4087  20.479  20.785   3.818 -0.1774 -0.1482 -0.3611
61175W        W 4088  22.536  23.378   6.544  0.0732 -0.1044 -0.0939
61176W        W 4089  21.075  30.440   3.977  0.2553  0.1286  0.2363
61177W        W 4090   9.882  13.677   0.573 -0.0535 -0.1225  0.0887
61178W        W 4091   9.579  14.848   0.530 -0.1604  0.0429 -0.0311
61179W        W 4092  12.557  19.399  25.045  0.0280  0.4029 -0.1704
61180W        W 4093  14.332  15.742  26.707 -0.1027  0.1533  0.1987
61181W        W 4094   4.164  20.507  18.828  0.1241 -0.1849  0.1694
61182W        W 4095   5.907  18.476  19.319 -0.1025  0.0793  0.3903
61183W        W 4096   8.450  27.079  21.798 -0.0015  0.0887 -0.2439
61184W        W 4097   8.570   4.258   0.369  0.0680 -0.3135  0.1261
61185W        W 4098  11.421  28.713   0.228  0.0401  0.0657  0.0987
61186W        W 4099   5.142  18.780  27.125  0.0357 -0.0314  0.1364
61187W        W 4100  18.136  16.209  23.113  0.0627 -0.0308 -0.0347
61188W        W 4101  16.832  24.216   1.523  0.0151 -0.2267  0.3286
61189W        W 4102  11.023  19.800  16.401 -0.1430  0.3459  0.3944
61190W        W 4103  32.967  17.266   0.402 -0.2672 -0.3111 -0.2064
61191W        W 4104  11.724  30.200   7.021  0.0445 -0.1435 -0.0190
61192W        W 4105   1.725  22.198  26.031 -0.1293  0.1960  0.4125
61193W        W 4106   6.258  19.148  15.726 -0.0816 -0.0698  0.2149
61194W        W 4107   8.634  13.191   0.420 -0.1043 -0.1354 -0.0244
61195W        W 4108  12.693  21.405   7.297  0.1483 -0.1770  0.2269
61196W        W 4109   9.061  13.688  22.707 -0.0744  0.3653 -0.2339
61197W        W 4110  11.692  24.676  15.080  0.4258 -0.2548 -0.0297
61198W        W 4111  15.889  30.781   0.024  0.0353 -0.0046 -0.0093
61199W        W 4112   7.264  27.576  20.803 -0.0929 -0.0173 -0.1362
61200W        W 4113  15.022  19.992  22.154 -0.0525  0.0552 -0.1902
61201W        W 4114   4.970  21.540   2.955  0.2763  0.1405 -0.3519
61202W        W 4115  18.540  20.576   6.841  0.1834  0.1005 -0.0530
61203W        W 4116  12.146  28.826   0.495  0.0891 -0.2750 -0.2098
61204W        W 4117   1.189  19.791   9.421  0.0593  0.0701  0.0326
61205W        W 4118  12.793  32.517   3.757  0.0046  0.0443 -0.0097
61206W        W 4119   8.005  30.240  17.475 -0.1264 -0.1962 -0.0258
61207W        W 4120   8.248  23.678  24.761 -0.4774  0.1373  0.0577
61208W        W 4121  11.912  22.755   5.965  0.0374  0.0014  0.0821
61209W        W 4122  34.173  24.144  19.101  0.0917  0.0399 -0.4109
61210W        W 4123  14.403  16.129   3.020  0.1632  0.0355  0.0918
61211W        W 4124   1.498  25.744  27.186 -0.0703 -0.0322  0.2495
61212W        W 4125  19.438  15.825  23.578  0.3435  0.2547  0.4558
61213W        W 4126  16.250  27.789   5.526 -0.1247  0.1086 -0.2156
61214W        W 4127  18.849  24.011   0.946 -0.0462  0.0860  0.1634
61215W        W 4128   7.444  27.148  20.173  0.0526 -0.2668 -0.0336
61216W        W 4129   6.978  16.633  29.728 -0.4016 -0.0348 -0.1296
61217W        W 4130  12.780  24.963   2.195  0.0022 -0.1722  0.2832
61218W        W 4131   4.443  33.320  18.006  0.2431 -0.0981  0.2444
61219W        W 4132   1.624  10.931  26.889 -0.0460  0.0597 -0.0695
61220W        W 4133  19.302  34.435  21.572  0.3554  0.0410  0.0671
61221W        W 4134   8.882  19.385  25.013  0.3254  0.0419 -0.0629
61222W        W 4135  15.146  22.278   3.991 -0.0384 -0.0635 -0.3102
61223W        W 4136  10.535  16.067  24.877  0.0062 -0.0104  0.1056
61224W        W 4137   9.110  20.665   0.037  0.2540  0.2634 -0.0631
61225W        W 4138  27.031  13.084  23.000 -0.1756 -0.0139  0.1164
61226W        W 4139   9.065  15.179  28.577 -0.0922 -0.2169  0.0509
61227W        W 4140   7.110  14.170  28.986  0.2501  0.0657  0.0674
61228W        W 4141   6.769  17.931  27.291 -0.0935 -0.1662  0.3083
61229W        W 4142   2.035  15.268   7.713 -0.0463  0.2061 -0.0380
61230W        W 4143  15.795  16.894  23.601  0.3328 -0.1934  0.0771
61231W        W 4144  16.376  18.057  23.583  0.1923  0.0316  0.3870
61232W        W 4145   5.299  11.428  25.483  0.0353 -0.0041 -0.0048
61233W        W 4146  20.028  24.106   5.662  0.0040  0.0674  0.1235
61234W        W 4147   7.910  25.538   6.343  0.3596 -0.2546 -0.1315
61235W        W 4148   9.691  21.047  24.657  0.2185 -0.1784 -0.0932
61236W        W 4149  15.167  19.917  25.237  0.2729  0.0421  0.1443
61237W        W 4150   1.803  19.921  27.568  0.3608 -0.0691 -0.1516
61238W        W 4151   3.516  26.377  25.095  0.0063  0.1258  0.0325
61239W        W 4152  11.012  31.056  23.966  0.0146  0.0363 -0.1906
61240W        W 4153  32.245  16.093   6.296  0.0354  0.0470 -0.0408
61241W        W 4154   9.965  17.160  21.643  0.1192 -0.0145  0.0437
61242W        W 4155   8.454  21.861  16.695  0.0806  0.4093  0.2405
61243W        W 4156  22.042  19.156  24.911 -0.0541  0.1786  0.0939
61244W        W 4157  23.927  17.433  28.816 -0.4255 -0.3083  0.2948
61245W        W 4158  14.399  23.127   5.155  0.1775 -0.2130  0.4094
61246W        W 4159  16.461  25.575  29.372  0.0694  0.3601 -0.1654
61247W        W 4160  14.968  20.020  28.345  0.2182 -0.0918  0.2551
61248W        W 4161   6.818  16.508  23.121 -0.2534 -0.1105 -0.0741
61249W        W 4162  13.710  30.495  28.539 -0.1361 -0.0829  0.1198
61250W        W 4163   7.818  20.760  22.451  0.0779 -0.0216 -0.2105
61251W        W 4164   7.628  17.890  17.672 -0.2479 -0.1947  0.0234
61252W        W 4165  20.179  19.715  20.915  0.0097 -0.1005  0.0522
61253W        W 4166  21.762  23.464   6.872 -0.0848 -0.0956 -0.0473
61254W        W 4167  16.769  24.145  27.477 -0.1681  0.1972 -0.3584
61255W        W 4168   4.763  24.118   6.831  0.0048  0.0357  0.0146
61256W        W 4169   2.893  25.303  22.821  0.0168 -0.5287  0.1738
61257W        W 4170  12.833  24.272   3.591 -0.2454 -0.0695 -0.0565
61258W        W 4171  11.387  22.526  26.693  0.2482  0.1459  0.3164
61259W        W 4172  12.642  10.163  25.165 -0.2147  0.0234  0.1002
61260W        W 4173  11.287  27.028  27.949  0.1347 -0.1193 -0.1619
61261W        W 4174   8.661   8.621  26.994 -0.0298  0.0955 -0.1466
61262W        W 4175   6.929  23.094   2.288  0.2069  0.0736 -0.0328
61263W        W 4176  19.290  29.931  15.042 -0.2388 -0.0557  0.1441
61264W        W 4177   7.071  16.714   6.440  0.1377  0.2745 -0.2644
61265W        W 4178  14.347  29.212  27.772 -0.1232 -0.0960 -0.1925
61266W        W 4179  19.532  17.578  13.291 -0.0824 -0.1056  0.0263
61267W        W 4180  18.310  19.760  29.185 -0.1966 -0.0154  0.0669
61268W        W 4181  28.401  15.343  25.406  0.1848  0.1643 -0.1057
61269W        W 4182   2.560  30.271  21.597  0.1044  0.1254 -0.4046
61270W        W 4183  16.911  23.066   1.154 -0.0332  0.0406  0.3655
61271W        W 4184  16.359  26.109  25.844 -0.2109  0.0957  0.0988
61272W        W 4185  12.290  19.539  18.885  0.0031 -0.0153  0.2532
61273W        W 4186  14.721  22.348  18.623 -0.0839  0.2135 -0.0347
61274W        W 4187  10.457  25.211  29.590  0.0797 -0.0771 -0.0610
61275W        W 4188  23.354  33.958  29.094 -0.3321 -0.2801  0.0402
61276W        W 4189   3.312  13.681  29.006  0.1045 -0.1232  0.1897
61277W        W 4190  12.151  21.561   7.262  0.1582 -0.2331 -0.0220
61278W        W 4191   6.064  27.019   0.572  0.0429  0.0119 -0.0672
61279W        W 4192   6.778   8.836  26.562  0.4973 -0.2157  0.0289
61280W        W 4193  14.080  19.700  26.819 -0.3608 -0.3072  0.0887
61281W        W 4194  11.623  23.067  26.351  0.2942  0.1578  0.0091
61282W        W 4195  11.296  32.029   5.966  0.1388  0.1155 -0.2657
61283W        W 4196  22.590  20.634  28.299  0.1541 -0.1780 -0.3456
61284W        W 4197   3.572  27.617   9.668  0.2720  0.0273  0.0283
61285W        W 4198   9.141   9.420  25.984  0.0555  0.0642  0.0989
61286W        W 4199  18.046  24.213   5.805  0.0739  0.3457  0.2810
61287W        W 4200   3.829  31.105   6.575  0.2343  0.0952 -0.0330
61288W        W 4201  16.162   2.134  27.849  0.0318 -0.0268 -0.5470
61289W        W 4202  29.016  14.809  21.398  0.0559 -0.1329  0.3296
61290W        W 4203  11.257  15.577  28.427 -0.1504 -0.2127 -0.1302
61291W        W 4204  31.233  21.141   0.670  0.0095 -0.1876  0.1554
61292W        W 4205  24.607  26.540  21.420 -0.0049 -0.0644  0.0325
61293W        W 4206  17.146  21.273  19.025 -0.2253 -0.2913 -0.0032
61294W        W 4207  10.859  13.201   8.988 -0.0170  0.3079  0.0035
61295W        W 4208  11.442  23.346   6.696 -0.0138  0.1255  0.1849
61296W        W 4209  14.346  12.968  27.058 -0.0247  0.3776  0.3658
61297W        W 4210  11.063  15.146  25.476  0.2641 -0.0314  0.1453
61298W        W 4211  25.995  19.799   5.360 -0.1561  0.1401  0.3299
61299W        W 4212  13.625  18.841  24.744  0.0720 -0.3016 -0.3288
61300W        W 4213   9.768  14.756  25.485 -0.3262  0.2172  0.0014
61301W        W 4214   8.797  20.467   1.062  0.1836  0.0057 -0.0834
61302W        W 4215  24.590  31.577   0.606  0.2036 -0.0864  0.1913
61303W        W 4216  19.409  14.762  15.665  0.1381  0.1389  0.0449
61304W        W 4217   9.923  27.858   3.639  0.0526 -0.0402 -0.4538
61305W        W 4218  20.993  12.882  19.960 -0.1459 -0.2368  0.0078
61306W        W 4219   5.764  22.814  21.603 -0.2793 -0.3645  0.3918
61307W        W 4220  24.759  20.868  18.378  0.2242 -0.4052  0.2996
61308W        W 4221   0.825  27.689  23.993  0.2529 -0.0158 -0.1176
61309W        W 4222  21.792  15.546   0.642 -0.2894  0.1210 -0.1090
61310W        W 4223  14.397  20.786  24.559 -0.5675  0.0295 -0.1900
61311W        W 4224  11.870  23.556  20.651 -0.0257 -0.2563  0.4313
61312W        W 4225   7.601  20.757  18.324  0.3016  0.2334  0.2064
61313W        W 4226   9.400   7.163  28.970  0.0690  0.1849  0.0137
61314W        W 4227  20.076   2.178  18.460  0.1409  0.1858  0.0645
61315W        W 4228   7.835   9.488  28.143 -0.1179  0.0658 -0.0196
61316W        W 4229  18.017  18.546   0.858  0.0960  0.1197 -0.0450
61317W        W 4230   9.025  23.538  23.668  0.0237 -0.6535  0.1600
61318W        W 4231  16.729  15.046   3.377 -0.3535 -0.0460  0.0534
61319W        W 4232  16.004  21.139  16.333  0.0322  0.0017 -0.0178
61320W        W 4233  25.881  20.939   0.571  0.0611  0.4236  0.1952
61321W        W 4234   1.836  25.100  25.330  0.1256  0.1933  0.0874
61322W        W 4235  16.384  19.883   1.446  0.2772  0.0551 -0.2733
61323W        W 4236  11.334  13.928  19.199  0.1048  0.1513 -0.1506
61324W        W 4237   9.873  26.061  25.282 -0.1743  0.2100  0.1634
61325W        W 4238   4.841   0.495  18.871 -0.0348 -0.1616 -0.1071
61326W        W 4239  17.523  21.513  22.984 -0.0581  0.0925 -0.0890
61327W        W 4240   7.764  26.468  17.356  0.0336 -0.2120  0.1091
61328W        W 4241  11.945  21.217  22.686  0.1057  0.0330 -0.0312
61329W        W 4242  15.689  13.047   2.378 -0.0737  0.0043 -0.0429
61330W        W 4243   3.093  13.797  24.261  0.2117 -0.0244  0.1478
61331W        W 4244   6.118  23.578  25.721  0.1081 -0.0922 -0.0786
61332W        W 4245   3.175  18.312  22.057  0.1706  0.2633 -0.1337
61333W        W 4246  11.183  19.257  26.913  0.1224  0.3234  0.3694
61334W        W 4247  18.937  26.418  21.792 -0.0951  0.1017  0.0507
61335W        W 4248  13.459  12.281  25.926  0.2603 -0.0226  0.2160
61336W        W 4249  13.251  20.702  29.302  0.1195  0.0385  0.0836
61337W        W 4250  12.837  10.738   3.261  0.1260  0.1915  0.3410
61338W        W 4251   3.470  12.051  28.401  0.0333  0.3864  0.1537
61339W        W 4252  22.672  17.897   8.411 -0.0820 -0.0763 -0.1701
61340W        W 4253   9.261  13.866   3.876  0.0467  0.0431 -0.2965
61341W        W 4254   9.259  26.770  26.456 -0.1043  0.0283  0.0504
61342W        W 4255   9.270  21.049  20.418  0.1701  0.2497  0.1835
61343W        W 4256   7.595  25.415  23.745  0.1385 -0.1126 -0.3060
61344W        W 4257  11.296   7.375   2.886 -0.1615 -0.0196  0.2791
61345W        W 4258  24.776  27.476  23.168  0.1925  0.0895 -0.1122
61346W        W 4259   7.163  26.014  25.342  0.1857 -0.0479  0.0871
61347W        W 4260   5.767  33.955   6.674 -0.2396  0.1115  0.0554
61348W        W 4261   7.710  14.700  20.961  0.1985  0.0454  0.0547
61349W        W 4262  18.467  14.978   3.489 -0.0625 -0.1270 -0.0348
61350W        W 4263  13.334  21.399  25.757 -0.2858  0.2170 -0.0275
61351W        W 4264   9.808  14.607   0.150 -0.2070 -0.2798  0.1825
61352W        W 4265  17.921  21.347  28.025 -0.2300  0.1205 -0.3548
61353W        W 4266   7.094  13.376  26.286  0.3388  0.0288  0.0131
61354W        W 4267  14.994  22.351  26.644 -0.1126  0.1575 -0.2358
61355W        W 4268   7.924  16.836   1.599 -0.4680 -0.0913  0.1004
61356W        W 4269  18.174  19.739   7.175  0.0749  0.1234  0.0382
61357W        W 4270  11.949  15.223  18.684  0.0098  0.0707 -0.0540
61358W        W 4271  12.026  16.369   1.717 -0.0339  0.0582 -0.1075
61359W        W 4272  17.958  29.233   7.733 -0.0872 -0.2453 -0.0640
61360W        W 4273   3.483  11.202  28.859 -0.2459  0.1983 -0.2040
61361W        W 4274  19.020  27.294   2.890 -0.3791 -0.1107  0.1619
61362W        W 4275   8.529  16.405   3.785 -0.0453 -0.2770 -0.1210
61363W        W 4276  10.105  19.259  26.286 -0.1563  0.1541 -0.2185
61364W        W 4277  19.184  21.846  15.256  0.1413  0.0055 -0.2199
61365W        W 4278   9.553  17.382  29.130  0.0801 -0.0337 -0.1779
61366W        W 4279  11.575  22.823   1.437 -0.1505  0.0316 -0.0943
61367W        W 4280  13.063  19.871  24.266  0.1124 -0.0187  0.0059
61368W        W 4281  14.978  28.885  28.793 -0.2549 -0.0476  0.0490
61369W        W 4282   6.893  20.962  16.515  0.3534 -0.1827 -0.0728
61370W        W 4283  13.613  23.646  25.515  0.1225 -0.3188  0.0098
61371W        W 4284  11.710  10.141   1.276  0.1791 -0.2537 -0.1936
61372W        W 4285  20.489  16.639   2.891  0.0562 -0.0257  0.0688
61373W        W 4286   2.397  21.937  26.743  0.0612 -0.0897  0.2331
61374W        W 4287   3.545  30.718  10.101 -0.3291 -0.1046 -0.0414
61375W        W 4288   9.645  17.044   6.606 -0.1272  0.4397 -0.0101
61376W        W 4289   1.428  23.444   5.931 -0.3694  0.0103  0.0387
61377W        W 4290  10.388  12.556  20.680  0.2487  0.2454  0.2288
61378W        W 4291  28.796  17.429   1.900 -0.1701 -0.0510  0.0696
61379W        W 4292  11.736  24.413  19.251  0.1295 -0.0290  0.2429
61380W        W 4293  16.460  26.245   2.929  0.1855  0.3445 -0.1511
61381W        W 4294   9.525  24.712  29.769  0.0759 -0.0660  0.3679
61382W        W 4295  18.043  22.813  22.946 -0.0837 -0.0020 -0.0559
61383W        W 4296   8.742  11.681  23.468 -0.1426  0.0994 -0.0049
61384W        W 4297   6.065  14.315   3.167  0.2987 -0.0151 -0.1001
61385W        W 4298  33.481  33.307  17.538 -0.0265 -0.0203  0.1101
61386W        W 4299  14.519  29.818   7.920  0.0148 -0.1498 -0.0476
61387W        W 4300  13.184  10.562   0.736  0.0577 -0.4155 -0.0935
61388W        W 4301   5.942  24.496   2.905 -0.2052  0.2787  0.0378
61389W        W 4302  12.952  23.545  23.304  0.0579 -0.0878 -0.2004
61390W        W 4303  17.186  25.241   1.060  0.0222  0.1824  0.0287
61391W        W 4304   5.838  34.129   8.796  0.0037  0.0876  0.0477
61392W        W 4305   3.946  20.012   5.835  0.2223  0.3111  0.0799
61393W        W 4306  13.549  19.241   4.689 -0.2665 -0.1323  0.1838
61394W        W 4307  10.739  25.013   0.544  0.2475  0.1003  0.1217
61395W        W 4308  20.291  28.274   6.173  0.1120 -0.1521 -0.1600
61396W        W 4309  11.121  23.447  26.389 -0.1189 -0.3515  0.2458
61397W        W 4310   5.439  19.739  28.602  0.2238 -0.5023 -0.3365
61398W        W 4311  17.510  18.935  23.732  0.0443  0.1741 -0.3929
61399W        W 4312  14.489  25.711  29.554  0.4036 -0.0403 -0.2827
61400W        W 4313   4.300  18.855  26.081 -0.1241  0.2661 -0.0579
61401W        W 4314  11.728  23.321  22.501 -0.1917 -0.0698  0.1268
61402W        W 4315   7.414  30.207  28.839 -0.0519  0.0718 -0.1053
61403W        W 4316  17.918   2.211   9.241 -0.2400  0.3296 -0.0762
61404W        W 4317  14.004  21.118   1.837 -0.2035 -0.0255  0.3839
61405W        W 4318  20.030   0.149   2.692  0.0646 -0.3128 -0.2116
61406W        W 4319   4.191  12.237  24.298 -0.2343 -0.0953 -0.0234
61407W        W 4320   9.371   3.042   4.124  0.0702  0.2089  0.2118
61408W        W 4321  11.958  23.162  29.713 -0.1592  0.0066  0.2802
61409W        W 4322   7.508  21.588  16.571  0.0566  0.0657  0.0858
61410W        W 4323   3.400  23.413   1.853 -0.0923  0.0545 -0.1377
61411W        W 4324  16.574  11.443   1.886 -0.0644 -0.2499  0.0761
61412W        W 4325   6.367  20.696  22.873 -0.0532  0.0113 -0.0694
61413W        W 4326  10.483   9.683  22.528 -0.0381 -0.2598  0.1694
61414W        W 4327   7.122  25.610   1.102 -0.1978 -0.1697  0.0275
61415W        W 4328  11.764  22.788   8.292  0.0677 -0.0415 -0.2345
61416W        W 4329   5.495  24.572  23.828  0.0096 -0.0269  0.0492
61417W        W 4330  19.306  29.962  19.376 -0.1784  0.2975  0.0970
61418W        W 4331  21.363  15.043  29.113 -0.2545 -0.0152 -0.1732
61419W        W 4332  15.197  25.302   1.347 -0.1764 -0.0290 -0.1618
61420W        W 4333  24.057  21.064   0.902  0.0556  0.1120  0.1095
61421W        W 4334   6.860  26.477  11.181 -0.2170 -0.2836  0.0174
61422W        W 4335   6.701  19.299  23.718 -0.1719  0.0566  0.0234
61423W        W 4336  19.173  19.389  25.192  0.1443  0.0345 -0.4164
61424W        W 4337  11.586  25.838  27.431  0.1103  0.4243 -0.1843
61425W        W 4338  18.805  30.543  28.681 -0.0560 -0.3107  0.0602
61426W        W 4339   9.394   9.235   5.884 -0.0868 -0.0683  0.1139
61427W        W 4340  16.760  25.802  26.821 -0.1258  0.5376  0.3496
61428W        W 4341  14.338   0.518  22.748  0.2625  0.1687  0.1995
61429W        W 4342  14.586  20.113  24.205 -0.1581  0.1849 -0.2283
61430W        W 4343  20.405  19.885  25.045 -0.1868 -0.1882 -0.0434
61431W        W 4344  19.453  22.742  29.176  0.1764  0.1205 -0.0570
61432W        W 4345   8.193  19.175  27.659  0.0506 -0.0770  0.1953
61433W        W 4346   8.453  26.900  20.061 -0.1299 -0.0860 -0.0222
61434W        W 4347  14.147  20.577  28.639 -0.2223 -0.2769  0.2165
61435W        W 4348   2.268  16.335  10.044 -0.2956  0.0094  0.1957
61436W        W 4349  12.952  18.595  14.400 -0.1573  0.0290  0.1950
61437W        W 4350  19.118  19.348   6.684 -0.0573  0.0284  0.0091
61438W        W 4351  14.876  29.220   1.188  0.1643 -0.0653 -0.1221
61439W        W 4352   5.915   0.778  24.085 -0.1588  0.2640  0.1323
61440W        W 4353   8.999  21.008  14.188 -0.0702 -0.3651 -0.0236
61441W        W 4354   9.810  15.489  24.489 -0.2952  0.1422 -0.1502
61442W        W 4355  14.541  18.864   0.482 -0.1103 -0.0632  0.0284
61443W        W 4356  17.815  25.154   7.038 -0.0134 -0.0685  0.0780
61444W        W 4357  19.092  22.695   2.393  0.1997 -0.2775 -0.2082
61445W        W 4358   2.440  16.550  25.278  0.2141 -0.2328 -0.1379
61446W        W 4359  16.227  13.961   4.109 -0.5464 -0.1951 -0.0417
61447W        W 4360   6.991  30.352  19.698 -0.3107  0.3080  0.0300
61448W        W 4361   9.882  30.140  22.812  0.2402  0.0085 -0.3148
61449W        W 4362  11.550  24.293   6.711  0.1135 -0.0292  0.2624
61450W        W 4363   4.937  13.594  23.412 -0.2165 -0.0676  0.0927
61451W        W 4364   9.039   9.259  28.045  0.0055 -0.1257  0.1029
61452W        W 4365  10.066  20.983  25.799  0.0369 -0.0627 -0.1235
61453W        W 4366  20.769  20.050  16.352 -0.0417 -0.1576  0.0089
61454W        W 4367  18.998  26.996   4.435 -0.1435  0.1988  0.2042
61455W        W 4368  12.232  21.947   5.781 -0.1519  0.3140  0.0992
61456W        W 4369   7.548  23.284  26.977 -0.0310 -0.0921  0.2084
61457W        W 4370  11.221  26.883   0.883  0.1703  0.0227 -0.2999
61458W        W 4371  11.656  14.473  25.227 -0.3677  0.1571  0.1665
61459W        W 4372   3.474  24.599  24.077 -0.0588 -0.1058  0.3539
61460W        W 4373  18.314  22.814   9.499 -0.6021  0.1334  0.0090
61461W        W 4374  19.100  26.549   8.437 -0.2744  0.1554  0.0970
61462W        W 4375   6.364  27.384   8.596  0.2513  0.0674 -0.1049
61463W        W 4376   9.430   0.719  27.534 -0.0814  0.0204  0.1535
61464W        W 4377  19.448  14.112  23.345  0.0980 -0.5228 -0.2322
61465W        W 4378  13.160  28.612   8.677 -0.3942 -0.1049  0.1669
61466W        W 4379   9.739  27.237  29.034  0.1493 -0.0608 -0.1847
61467W        W 4380   9.527  22.677   3.142 -0.1039 -0.4516  0.2225
61468W        W 4381   4.574  11.828  28.076  0.0915 -0.1054  0.1177
61469W        W 4382  12.134  26.263   2.356 -0.0763 -0.0956 -0.0950
61470W        W 4383  13.103   0.582  27.889 -0.1275 -0.1453 -0.0343
61471W        W 4384  11.670  21.526  22.006 -0.0574 -0.1104  0.0362
61472W        W 4385  15.834  11.044   1.273  0.0820  0.3555 -0.1117
61473W        W 4386  10.321  20.884   9.077 -0.2715  0.0402 -0.0580
61474W        W 4387  34.149  20.186  26.776  0.0058  0.3329 -0.2287
61475W        W 4388   4.376  22.955  22.257  0.2129  0.1202 -0.2754
61476W        W 4389  21.950  27.688   9.312 -0.3029 -0.1945  0.0860
61477W        W 4390  11.181  23.064   0.566 -0.3950 -0.0725  0.2581
61478W        W 4391  16.567  23.176  28.643 -0.1649  0.1403  0.0012
61479W        W 4392   6.779  20.500   8.563  0.1904 -0.0369  0.2940
61480W        W 4393  12.667  23.759   9.741 -0.0885  0.1169 -0.2316
61481W        W 4394  11.346   1.077  27.062 -0.0798  0.2168 -0.0802
61482W        W 4395  20.696  26.975  27.289 -0.2009 -0.1475  0.2297
61483W        W 4396  15.863  19.319  13.179  0.2344 -0.1825  0.1578
61484W        W 4397  25.269  14.820  28.846 -0.0639  0.0679  0.1279
61485W        W 4398  14.880  19.731   1.000  0.1572  0.1055  0.0535
61486W        W 4399  14.377  16.414   0.575  0.1086 -0.0900 -0.0488
61487W        W 4400  13.169  18.074   1.889  0.3941 -0.1135  0.1666
61488W        W 4401  17.208  15.707   7.706  0.2406  0.0160  0.1877
61489W        W 4402  15.971  14.941  28.887  0.0477 -0.2920  0.1139
61490W        W 4403   5.235  12.175   4.089  0.0853 -0.2980  0.0753
61491W        W 4404  20.868  25.609  23.466 -0.0555  0.2722  0.0666
61492W        W 4405  12.157  27.115  17.150  0.3129 -0.3202  0.1854
61493W        W 4406  14.717  27.966   8.949  0.0536 -0.1526 -0.3377
61494W        W 4407   4.937  16.953  18.388  0.0489  0.0584 -0.1090
61495W        W 4408  16.484  20.555   2.338  0.1100 -0.0465 -0.1426
61496W        W 4409   6.974  18.641   9.543  0.1684  0.4414  0.2720
61497W        W 4410  13.110  19.920   7.923  0.0246  0.2613 -0.0645
61498W        W 4411  10.055  20.501  23.353  0.2828  0.0997  0.3605
61499W        W 4412  13.914  17.351  24.522 -0.1837 -0.0572 -0.0329
61500W        W 4413  10.653   1.016   4.243  0.1844 -0.0390 -0.1358
61501W        W 4414   6.413  19.267  24.506 -0.2452  0.0109 -0.0973
61502W        W 4415   3.388  19.642  19.516  0.0419  0.0225 -0.1063
61503W        W 4416  11.814  33.122  27.899 -0.0295 -0.0847 -0.1769
61504W        W 4417   6.740  30.953  18.599 -0.1757  0.2378 -0.0015
61505W        W 4418  18.321  22.617   3.089 -0.2216 -0.1010 -0.1709
61506W        W 4419   7.824  19.500  24.005  0.1363 -0.0781  0.0638
61507W        W 4420   1.288  18.433  25.582 -0.0136  0.2394 -0.2277
61508W        W 4421   5.842  20.731  22.629  0.1228  0.0972  0.2361
61509W        W 4422   4.672  26.854   6.777  0.3618 -0.1738  0.2385
61510W        W 4423   9.042  13.367   0.647  0.0779  0.0672 -0.2375
61511W        W 4424  15.729  21.572  16.562  0.1597  0.1479 -0.0248
61512W        W 4425  12.830  20.681   4.183  0.1422 -0.1072 -0.0148
61513W        W 4426  11.005  16.730  27.063  0.1422 -0.1262 -0.1637
61514W        W 4427  16.828  14.733  12.934 -0.1620  0.0364  0.4025
61515W        W 4428  16.869  17.795   1.251  0.1398 -0.1596  0.0131
61516W        W 4429  10.027  21.142  26.505 -0.1273  0.0082 -0.2115
61517W        W 4430  29.809  15.271   3.318 -0.0829 -0.1204 -0.2105
61518W        W 4431   8.847  25.104  25.742  0.0434 -0.2815 -0.0400
61519W        W 4432   1.855  30.476   6.454  0.1024  0.1956 -0.0413
61520W        W 4433  11.971  22.284   9.173  0.1532  0.2081  0.1636
61521W        W 4434  25.446  29.803   6.914  0.1132  0.0600  0.0208
61522W        W 4435   7.485  25.693   0.787 -0.1774 -0.0967  0.0326
61523W        W 4436   3.633  18.453   0.333  0.0996 -0.2673  0.1059
61524W        W 4437  23.304  11.446  20.186 -0.1017 -0.0236  0.0243
61525W        W 4438   9.908  20.746   1.920  0.1503  0.2708  0.2758
61526W        W 4439  13.770  26.576  25.244 -0.3478 -0.0665  0.2521
61527W        W 4440  17.014  24.477   0.560  0.0572 -0.1098 -0.2668
61528W        W 4441   4.978  21.275   4.589 -0.0154 -0.1000 -0.0876
61529W        W 4442  10.517  29.045  29.729  0.5213 -0.1204  0.1667
61530W        W 4443   4.862  25.933   1.500  0.1578  0.1125  0.0545
61531W        W 4444  21.587  30.435   5.396 -0.0993  0.1581  0.0875
61532W        W 4445   8.075  19.464   7.991 -0.3267 -0.3234  0.0311
61533W        W 4446   5.243  26.821   4.488 -0.2678  0.0649 -0.0115
61534W        W 4447  16.396  14.106   4.635 -0.1201  0.2650  0.2993
61535W        W 4448  23.293  26.802  22.299 -0.2577  0.2266  0.0497
61536W        W 4449  21.299  20.886  18.434  0.1305 -0.0274 -0.0444
61537W        W 4450   6.877  26.393   1.125 -0.0516  0.1518  0.3001
61538W        W 4451  11.385  30.506  10.508 -0.1291  0.1632  0.0143
61539W        W 4452  11.802  16.900  22.551  0.2087  0.1308 -0.1305
61540W        W 4453  11.295  16.125   5.159  0.1349 -0.2018  0.0266
61541W        W 4454  16.143  21.086  25.320 -0.2713  0.2610 -0.3156
61542W        W 4455   5.422  16.957   0.811  0.0218  0.0470 -0.2055
61543W        W 4456   3.202  15.231  17.701  0.2632 -0.1360 -0.4069
61544W        W 4457  16.968   9.060   2.460 -0.3170 -0.2881 -0.0035
61545W        W 4458   9.880  19.174   6.242 -0.0213  0.2798  0.1677
61546W        W 4459  12.422  25.910   1.241 -0.3629 -0.1697  0.0217
61547W        W 4460  17.532  13.913  23.480  0.0979  0.1054 -0.1541
61548W        W 4461  14.279  29.787  23.980  0.0643 -0.0359  0.2773
61549W        W 4462   3.492  22.667   5.851 -0.2797  0.0508 -0.0728
61550W        W 4463  14.425  19.758   3.553 -0.0162  0.0258  0.1713
61551W        W 4464  13.814  13.668  21.175  0.1159  0.1526  0.1222
61552W        W 4465  13.650  18.186  25.427 -0.3120  0.1689  0.0150
61553W        W 4466   3.208  18.594   5.866 -0.0719 -0.1590  0.0782
61554W        W 4467  13.877  26.583   1.722 -0.3030 -0.3166  0.1135
61555W        W 4468  16.127  21.159  28.054 -0.4214  0.0596  0.0997
61556W        W 4469  13.347  23.024  23.360 -0.1125  0.0335  0.0294
61557W        W 4470  17.154  19.625  29.426  0.4569  0.1265  0.2359
61558W        W 4471  15.118  20.115  23.865  0.0788  0.3841  0.0457
61559W        W 4472  13.451  22.477   1.170  0.1382 -0.0116  0.0517
61560W        W 4473  10.341  21.414  25.710 -0.2250 -0.0808 -0.0235
61561W        W 4474   9.404  25.828  24.597 -0.0341  0.3605 -0.0936
61562W        W 4475   8.835  26.145  18.664  0.3992  0.0015 -0.3638
61563W        W 4476  29.522  23.170   5.045 -0.0990  0.0092 -0.1717
61564W        W 4477  10.023  28.500  24.162  0.1261  0.3384  0.0930
61565W        W 4478   1.255  24.986   9.589 -0.0578 -0.0586  0.0014
61566W        W 4479  17.854  16.284  23.646  0.2236 -0.0241 -0.2790
61567W        W 4480   7.778  17.149  29.602 -0.1228  0.1581 -0.2056
61568W        W 4481  16.421  19.913  27.017 -0.3395  0.0129 -0.3119
61569W        W 4482  11.155  33.429   4.729  0.0768 -0.2587 -0.2576
61570W        W 4483  17.684   2.378   5.927 -0.1344 -0.4854 -0.0317
61571W        W 4484   8.156  28.101  17.528  0.1678  0.0603 -0.0913
61572W        W 4485  13.675  30.518  20.550  0.0841  0.3448 -0.1279
61573W        W 4486  15.698  28.549  11.247 -0.0460 -0.4352  0.0949
61574W        W 4487   6.019  25.311  22.423  0.1403  0.0991  0.1262
61575W        W 4488   6.933  23.702  29.599 -0.0812  0.0096 -0.0567
61576W        W 4489   0.298  23.584  27.354  0.2488  0.0068  0.0750
61577W        W 4490  13.135  24.079   4.337  0.3168  0.2483  0.0309
61578W        W 4491  32.426   7.973   7.871 -0.1373 -0.1561  0.2355
61579W        W 4492  18.631  21.351   4.184  0.0394  0.0396  0.3622
61580W        W 4493   7.998  15.447  26.888  0.2447  0.0246 -0.1329
61581W        W 4494  11.178  22.013   9.522  0.1764  0.1988  0.1313
61582W        W 4495  16.725  23.628   8.453  0.1805  0.1373  0.1146
61583W        W 4496  15.285  19.174   0.841 -0.3692 -0.4165  0.0119
61584W        W 4497   3.889  28.507  25.712  0.2212  0.2643  0.2464
61585W        W 4498   9.058  19.013   2.815  0.1054 -0.0191  0.0425
61586W        W 4499  17.022  21.331   3.072 -0.2987 -0.4517 -0.2294
61587W        W 4500  16.905  28.057   1.483 -0.0564  0.2340 -0.1967
61588W        W 4501   1.423  25.187  14.493  0.1526 -0.0001  0.0570
61589W        W 4502   0.508  26.698   6.610 -0.1350 -0.2103  0.0661
61590W        W 4503  16.355  20.764  23.139 -0.3601  0.4605 -0.1236
61591W        W 4504  11.616  24.444  21.721  0.0816 -0.2803 -0.0978
61592W        W 4505   5.312  13.160   7.487  0.2695 -0.0531 -0.0229
61593W        W 4506  14.606  21.474   2.324 -0.0035  0.0290  0.2919
61594W        W 4507  11.975  26.216   9.755 -0.0411  0.0171 -0.0279
61595W        W 4508   9.581  18.775   5.350  0.2012 -0.0974 -0.0428
61596W        W 4509  16.876  13.043   5.138  0.0823 -0.2888 -0.3297
61597W        W 4510   7.627  15.822   7.629 -0.0037 -0.1151 -0.1618
61598W        W 4511   9.741  21.058   7.354  0.1917 -0.0799 -0.3019
61599W        W 4512   7.872  19.428  18.958 -0.0132  0.1275 -0.2139
61600W        W 4513   6.240  29.722  29.311  0.0684  0.0074 -0.0505
61601W        W 4514   6.537  28.684   0.007 -0.3162 -0.0763 -0.2108
61602W        W 4515   7.332  19.714  27.135  0.0681  0.3749  0.3830
61603W        W 4516   7.302  25.439   5.052 -0.4045 -0.1362 -0.1236
61604W        W 4517  15.708  15.353  22.080 -0.2284 -0.2177  0.0414
61605W        W 4518  28.594  29.372   1.204  0.0961 -0.1248 -0.0911
61606W        W 4519   6.889  14.513  25.188 -0.0316 -0.0596 -0.1134
61607W        W 4520  33.250  19.359  26.115  0.1955 -0.1779 -0.0908
61608W        W 4521  11.944  15.457   8.936  0.4181 -0.1254  0.2652
61609W        W 4522  11.716  12.188   2.300 -0.0760  0.1059 -0.1965
61610W        W 4523  19.929  22.952  18.013 -0.0202  0.3355  0.0541
61611W        W 4524  25.464  27.034  13.031  0.4030  0.1143  0.1188
61612W        W 4525  10.547  14.474  17.649 -0.3003 -0.0298 -0.2977
61613W        W 4526   5.463  30.851  16.567  0.0139 -0.0556 -0.1318
61614W        W 4527  14.801  11.602  15.527  0.1253  0.1537  0.2748
61615W        W 4528  28.892  30.729  25.285 -0.0270 -0.2266 -0.0263
61616W        W 4529  17.880  21.153  13.265  0.2922 -0.1811  0.1550
61617W        W 4530  25.948  27.993  13.239 -0.0970 -0.2400  0.1229
61618W        W 4531   3.650  10.963  16.191 -0.1118  0.0489 -0.2468
61619W        W 4532  23.380  28.261  15.022 -0.0838 -0.0102  0.3744
61620W        W 4533  19.965  25.695  14.803  0.1442 -0.1316 -0.4063
61621W        W 4534  13.428  21.208  24.587  0.1034  0.0888  0.0314
61622W        W 4535   9.477  15.893  17.163 -0.0741  0.0769 -0.0671
61623W        W 4536  12.435  15.303  16.798 -0.0937 -0.0384 -0.0411
61624W        W 4537   7.253  21.306  16.258 -0.5337 -0.1592  0.0808
61625W        W 4538  11.279  14.752  21.135 -0.1527  0.1159 -0.0434
61626W        W 4539   6.888  22.466  19.744 -0.2200  0.2966  0.1692
61627W        W 4540  19.951  30.139  16.837  0.0621  0.1977 -0.1426
61628W        W 4541   9.988  18.357  17.590  0.0432 -0.1173 -0.1250
61629W        W 4542  13.465  18.534  28.714  0.1633  0.0601  0.0779
61630W        W 4543  24.550  16.507  23.020  0.2633  0.3012 -0.1846
61631W        W 4544   5.501  29.935  24.411  0.1635  0.0597  0.2849
61632W        W 4545   5.644  25.226  22.079 -0.1153  0.1992  0.0624
61633W        W 4546  21.990  29.982  18.068 -0.1304  0.0660  0.1888
61634W        W 4547  12.055  18.650  20.751  0.0639  0.1777 -0.0939
61635W        W 4548  15.893  31.079  23.341  0.2125 -0.1994  0.1363
61636W        W 4549  16.830  22.757  14.098  0.2137 -0.2641 -0.1051
61637W        W 4550  15.171  24.536  22.190 -0.2584 -0.0730  0.0269
61638W        W 4551  10.019  26.990  15.149 -0.1426  0.1341 -0.3289
61639W        W 4552  14.823  32.102  21.992  0.0323 -0.0205  0.1331
61640W        W 4553  15.820  18.640  14.160  0.1397  0.1689  0.1408
61641W        W 4554  24.208  29.713  24.488  0.1848  0.0020 -0.0759
61642W        W 4555  18.662  10.847  21.280 -0.2189 -0.0206 -0.1329
61643W        W 4556  10.453  20.529  14.526 -0.1931  0.2345  0.0708
61644W        W 4557   8.714  22.252  16.339  0.1453 -0.1959  0.0935
61645W        W 4558  22.752  25.373  13.224 -0.1862 -0.0398  0.0224
61646W        W 4559  18.135  26.736  24.098 -0.3116  0.0154 -0.0972
61647W        W 4560   5.279  31.544  17.136  0.1781  0.0469 -0.3014
61648W        W 4561  11.185  16.683  14.904  0.0159  0.1066 -0.0014
61649W        W 4562  15.585  24.854  14.318  0.0830  0.0597  0.2552
61650W        W 4563  20.552  15.934  14.115 -0.0890 -0.3356  0.1229
61651W        W 4564  14.520  27.897  16.012  0.1898 -0.2655 -0.1551
61652W        W 4565  34.438  24.387  20.571  0.1061 -0.2118  0.0417
61653W        W 4566  21.588  25.463  25.162 -0.0544 -0.0278  0.0277
61654W        W 4567  14.584  22.106  13.225 -0.2099  0.2271  0.1432
61655W        W 4568   3.278  17.802  20.284 -0.0738 -0.1206 -0.3374
61656W        W 4569  12.757  22.925  14.119  0.3294 -0.1561 -0.1409
61657W        W 4570  12.738  22.619  20.273  0.3102 -0.1008  0.1473
61658W        W 4571  16.512  24.984  20.708 -0.0240 -0.0706 -0.0672
61659W        W 4572  11.504   3.465  17.385  0.4094  0.2363  0.1988
61660W        W 4573  13.476  28.656  16.554 -0.0581  0.2706  0.3029
61661W        W 4574  11.626  18.284  16.636  0.1234  0.0157  0.0780
61662W        W 4575   6.710  31.088  18.078 -0.2373 -0.0232 -0.1757
61663W        W 4576  20.552  31.265  13.297 -0.0686  0.4031 -0.3139
61664W        W 4577   3.323  22.394  25.401 -0.1050  0.0595  0.3033
61665W        W 4578  19.316  27.404  16.819 -0.1166  0.3208  0.0029
61666W        W 4579  19.680  28.032  17.345  0.0955  0.3248  0.0279
61667W        W 4580  15.930  11.219  16.206  0.2582  0.1894  0.0647
61668W        W 4581  27.304  14.057  18.802  0.0793 -0.2141  0.0760
61669W        W 4582  16.274   0.974  27.359  0.1950  0.2170 -0.0207
61670W        W 4583  18.589  12.485  13.607 -0.2114 -0.1319 -0.3289
61671W        W 4584  18.484  29.837  21.804  0.1159 -0.1440  0.2421
61672W        W 4585  16.878  25.844  22.428  0.1484 -0.0776 -0.2451
61673W        W 4586   6.013  20.738  14.647  0.2029 -0.0552  0.1298
61674W        W 4587  12.778  22.999  15.804  0.1008 -0.0503 -0.3141
61675W        W 4588  13.219  16.707   1.150 -0.3989  0.1148  0.2205
61676W        W 4589  23.109  28.219  15.982 -0.0192  0.3026 -0.0706
61677W        W 4590   7.484  28.871  19.583 -0.1397  0.1431 -0.3197
61678W        W 4591  34.384  21.527  21.754 -0.0974  0.0986 -0.1285
61679W        W 4592  16.081  23.374  16.724 -0.1654  0.2007 -0.1243
61680W        W 4593  22.133  15.636  18.433  0.1738  0.1209 -0.1691
61681W        W 4594  16.156  21.882  13.548 -0.1615  0.0148 -0.1276
61682W        W 4595  27.082  19.239  14.703 -0.0616  0.0581  0.1926
61683W        W 4596  11.053  11.832  14.766 -0.0352  0.2793 -0.0323
61684W        W 4597  14.275   9.437  21.447  0.3289  0.2510  0.3007
61685W        W 4598  10.629  30.638  21.450 -0.0473 -0.2215 -0.0973
61686W        W 4599  18.975  22.657  15.550 -0.1042  0.0182  0.4340
61687W        W 4600  14.679  23.367  14.534  0.2423  0.0445 -0.0823
61688W        W 4601   1.214  32.529  21.894  0.0879  0.0861  0.0027
61689W        W 4602  13.953  12.270  15.260  0.1479  0.0253 -0.0386
61690W        W 4603  14.622   2.166  21.006 -0.0035  0.0670  0.2207
61691W        W 4604  15.168  26.383  22.297 -0.2251  0.1478  0.3088
61692W        W 4605   6.357  23.551  21.536  0.1789 -0.0053 -0.1350
61693W        W 4606   3.518  27.968  18.485 -0.0243  0.2070 -0.1850
61694W        W 4607  14.391  26.169  23.042 -0.1733  0.1505  0.1737
61695W        W 4608  19.073  23.066  17.837  0.1221 -0.1754  0.0665
61696W        W 4609  11.396  29.976  29.097  0.1049 -0.2011 -0.1013
61697W        W 4610  13.330  22.269  17.287 -0.0992  0.1754  0.1596
61698W        W 4611  16.964  11.419  19.762  0.0502 -0.5725 -0.1262
61699W        W 4612  20.064  21.354  12.756 -0.5199 -0.0538  0.1095
61700W        W 4613   6.003  30.768  22.604 -0.3665 -0.0317  0.1641
61701W        W 4614   7.945  22.416  22.509  0.0555  0.0744  0.0223
61702W        W 4615  20.920  26.022  15.256  0.3191 -0.2768  0.0332
61703W        W 4616  28.896  22.210  20.381  0.0755 -0.1195  0.0225
61704W        W 4617  14.881  22.814  23.921  0.0068  0.0350  0.2073
61705W        W 4618   7.182  21.311  19.705  0.0209 -0.1188  0.0109
61706W        W 4619  15.109  22.443  17.393  0.3171 -0.2069  0.1981
61707W        W 4620  25.860  23.453  20.165 -0.0987 -0.0211  0.0828
61708W        W 4621  15.779  15.216  15.194  0.0701 -0.3872 -0.0545
61709W        W 4622  14.818  19.238  12.259 -0.0020 -0.0424  0.0609
61710W        W 4623  18.322  17.402  12.512  0.1410  0.1015  0.1069
61711W        W 4624   1.829  21.936  18.737  0.0754  0.3314  0.2610
61712W        W 4625   9.703  19.759  21.326 -0.0579  0.1936 -0.3287
61713W        W 4626  13.088  23.767  16.380 -0.0011 -0.1349 -0.0465
61714W        W 4627  13.481  23.326  15.434 -0.1093  0.1033  0.1831
61715W        W 4628  16.802  10.042  19.278  0.2539 -0.2312  0.0840
61716W        W 4629  18.986  23.249  17.291 -0.0306 -0.0197 -0.0364
61717W        W 4630  22.060  24.794  20.535  0.2751 -0.0308  0.0786
61718W        W 4631   1.829  19.658  15.929 -0.0579  0.1309 -0.0938
61719W        W 4632  10.934   3.989  17.635  0.0170 -0.2447 -0.0077
61720W        W 4633  26.916  27.185  17.414 -0.0643  0.1800  0.0597
61721W        W 4634   0.529  24.816  22.206  0.2755 -0.0764  0.1825
61722W        W 4635  13.796  14.890  22.724 -0.2879  0.1617 -0.1280
61723W        W 4636  17.596  24.949  20.036 -0.0802 -0.1659  0.0268
61724W        W 4637  20.684  24.030  15.817  0.0848 -0.2656 -0.0211
61725W        W 4638  20.858   7.760  19.533  0.3428 -0.3673 -0.4650
61726W        W 4639   4.788  26.914  22.418  0.4227  0.2803 -0.1010
61727W        W 4640   9.241  24.764  22.511  0.1327  0.1446  0.3038
61728W        W 4641   4.870  23.829  16.922 -0.1444 -0.1654  0.1290
61729W        W 4642  15.844  16.107  12.471 -0.0721  0.0868  0.0665
61730W        W 4643   8.804  20.893  20.250  0.4997  0.0397 -0.1464
61731W        W 4644   2.435  28.859  18.283 -0.2418  0.6258  0.0671
61732W        W 4645   9.116  15.922  24.905 -0.0101  0.0002 -0.0465
61733W        W 4646   7.962  17.009  26.961  0.1215 -0.1485 -0.4263
61734W        W 4647  14.164  13.383  13.979 -0.1313  0.0911 -0.0519
61735W        W 4648  12.699  21.384  13.191 -0.2394  0.1665 -0.0916
61736W        W 4649  14.872  23.197  15.133 -0.2253  0.2739 -0.3570
61737W        W 4650  22.529  11.614  15.770 -0.2409  0.1934 -0.4408
61738W        W 4651   9.238  34.109   0.521  0.1191 -0.0749 -0.3534
61739W        W 4652   9.000  22.705  23.630 -0.1188 -0.5031 -0.1869
61740W        W 4653  14.652  15.840  14.755  0.1358 -0.0346 -0.1111
61741W        W 4654  28.354  23.280  18.805  0.1059  0.0770 -0.0462
61742W        W 4655  12.542  24.608  20.360  0.0230  0.4737 -0.0275
61743W        W 4656   6.820  25.134  16.367 -0.0883  0.2212  0.2074
61744W        W 4657  10.916  18.962  14.029  0.1435 -0.1866 -0.3369
61745W        W 4658  10.322  21.700  14.000  0.1084 -0.0085  0.0322
61746W        W 4659  10.692  18.825  13.654  0.0332  0.2186  0.0976
61747W        W 4660   0.489  27.069  19.853  0.1255 -0.1256 -0.1853
61748W        W 4661  11.473  17.232  24.343  0.0245 -0.3431  0.2398
61749W        W 4662  14.166  33.275  20.008  0.0060 -0.0351 -0.0964
61750W        W 4663  11.132  24.108  21.623  0.3812  0.2192  0.0661
61751W        W 4664   9.784  18.212  16.724  0.0511  0.1610 -0.0437
61752W        W 4665  11.135  21.438  15.524 -0.0705 -0.2450  0.3263
61753W        W 4666  17.156   7.301  21.738 -0.2649 -0.1410  0.4293
61754W        W 4667   6.796  18.417  25.408 -0.0382 -0.0666 -0.4535
61755W        W 4668  25.137  23.341  23.425  0.0821 -0.3367 -0.1409
61756W        W 4669  18.005  21.488  14.870 -0.2685  0.0183  0.4515
61757W        W 4670  11.200  16.345  14.487 -0.1944  0.1396  0.1772
61758W        W 4671   8.320  30.000  17.736 -0.0003 -0.2237 -0.1702
61759W        W 4672  12.007  25.870  15.258 -0.0942  0.2745  0.2151
61760W        W 4673  10.290  26.436  23.742 -0.1294 -0.0540  0.1549
61761W        W 4674   4.989  28.399  17.136 -0.0812  0.1120  0.1708
61762W        W 4675  10.793  17.624  18.038 -0.1448 -0.1449 -0.0626
61763W        W 4676  16.662  34.091  14.883  0.3039  0.4183  0.0048
61764W        W 4677   2.146  25.727  16.447  0.0851 -0.1293  0.4078
61765W        W 4678  14.622  23.674  14.926 -0.2731 -0.0953 -0.4623
61766W        W 4679   3.659   2.081  17.596  0.2321  0.2923  0.0125
61767W        W 4680   2.857  32.637  18.794  0.1993 -0.1011 -0.0945
61768W        W 4681   6.919  18.820  16.460  0.0958 -0.0668  0.1943
61769W        W 4682  23.878  15.468  17.989  0.3497  0.0070 -0.0629
61770W        W 4683   4.228  16.052  18.130  0.1721  0.0420 -0.1631
61771W        W 4684   7.586  15.353  16.344 -0.1375 -0.1572 -0.3390
61772W        W 4685   9.903  16.909  19.353  0.1540 -0.1819 -0.1549
61773W        W 4686  11.459  22.849  23.384  0.1019 -0.0926 -0.1201
61774W        W 4687  19.316  27.237  22.137 -0.0170  0.0435  0.0458
61775W        W 4688  14.536  29.028  17.271 -0.1973  0.1095 -0.2977
61776W        W 4689  26.316  13.605  17.630 -0.1521 -0.1026  0.3880
61777W        W 4690  23.643  27.971  15.384 -0.2556 -0.2069  0.1406
61778W        W 4691  11.073  20.396  19.016  0.1903  0.0076 -0.4130
61779W        W 4692   7.005  21.847  16.422  0.0623  0.0080 -0.1664
61780W        W 4693   7.183  16.749  21.762  0.0354 -0.4899 -0.0623
61781W        W 4694   9.166  29.630  21.079 -0.4123  0.1377  0.1794
61782W        W 4695  13.023  22.916  16.309 -0.0172 -0.0355  0.2048
61783W        W 4696  15.599  30.898  17.476 -0.0113  0.1105  0.2103
61784W        W 4697   1.674  16.872  16.336  0.0506  0.0253  0.2267
61785W        W 4698  10.208  20.777  18.010  0.2030 -0.1882 -0.1311
61786W        W 4699   2.314  22.896  19.121 -0.1064  0.0480 -0.0573
61787W        W 4700   9.515  15.616  19.334 -0.0810 -0.2004 -0.2456
61788W        W 4701  15.759  21.999  16.250  0.1304  0.0401 -0.0006
61789W        W 4702  26.086  32.875  27.189  0.1033 -0.2137  0.0709
61790W        W 4703  14.232  19.647  13.960  0.3059  0.0935 -0.0521
61791W        W 4704   9.698  32.638  20.699  0.1352  0.1748 -0.3286
61792W        W 4705  16.762  26.034  17.128  0.0304 -0.0459 -0.3638
61793W        W 4706  23.097  25.782  13.258  0.1275  0.0790 -0.0924
61794W        W 4707  23.902  24.531  18.825 -0.0607  0.0016  0.3608
61795W        W 4708   6.054  24.438  22.354  0.1793  0.0509  0.0399
61796W        W 4709   8.736   8.115  24.821  0.1877  0.1354  0.1766
61797W        W 4710   6.762  34.372  19.559 -0.1024  0.0306 -0.1190
61798W        W 4711  22.642  15.524  13.550  0.0498 -0.0922 -0.0140
61799W        W 4712   8.983  22.002  14.122  0.2596  0.4003  0.1259
61800W        W 4713  14.292  29.377  17.572 -0.0913  0.1548 -0.0257
61801W        W 4714  13.809  34.082  17.055  0.3610  0.0422  0.1207
61802W        W 4715  13.260  17.222  15.779 -0.3661  0.1395 -0.0222
61803W        W 4716   4.639  31.874  19.185  0.1568 -0.3691  0.0829
61804W        W 4717  10.112  23.208  15.909  0.1388 -0.0765  0.2089
61805W        W 4718  15.533  27.799  17.034 -0.0929 -0.0322 -0.1470
61806W        W 4719  17.491  24.325  16.004 -0.2637 -0.2618  0.3330
61807W        W 4720  12.734  18.506  13.924 -0.0909 -0.2392  0.1785
61808W        W 4721  12.806  22.671  18.010 -0.0547  0.1134  0.0671
61809W        W 4722  17.445  27.541  16.440 -0.0502  0.1807 -0.0954
61810W        W 4723  20.168  23.918  22.221 -0.3002  0.0999  0.0890
61811W        W 4724   9.049  29.369  16.763  0.1762  0.0837 -0.1806
61812W        W 4725  11.211  19.650  13.608 -0.1786  0.0683 -0.2753
61813W        W 4726   3.425  23.901  16.865  0.0218  0.1449  0.0131
61814W        W 4727   4.355  18.365  18.560  0.2280 -0.0992 -0.2608
61815W        W 4728  15.628  19.205  12.679 -0.0769  0.1009 -0.3772
61816W        W 4729  14.356  25.896  21.529 -0.1309  0.1467 -0.0039
61817W        W 4730  23.466  11.101  21.315 -0.3741 -0.2433  0.2025
61818W        W 4731  23.696  21.967  16.380  0.4756  0.2362 -0.0678
61819W        W 4732  19.028  13.254  14.833  0.0458  0.0442  0.0895
61820W        W 4733   7.360  18.615  15.064  0.2345  0.1717  0.1434
61821W        W 4734   6.503  20.651  14.547  0.1402 -0.1135 -0.1745
61822W        W 4735  10.546  14.010  22.157  0.1439 -0.2269  0.0766
61823W        W 4736   2.972  26.265  15.137 -0.0098 -0.1842  0.0144
61824W        W 4737  12.652  29.070  16.920  0.2392  0.0638 -0.5253
61825W        W 4738   3.860  21.109  16.501  0.1880  0.2546 -0.3439
61826W        W 4739  12.474  18.529  19.171  0.0759 -0.0554 -0.0939
61827W        W 4740  33.825  26.194  16.173  0.0616  0.0645 -0.0037
61828W        W 4741  18.926  33.452  14.638 -0.0032 -0.2249 -0.2682
61829W        W 4742  23.779  28.500  16.753  0.3107  0.1769 -0.1395
61830W        W 4743  13.447  20.612  24.587 -0.1184 -0.0007 -0.1311
61831W        W 4744  14.241  21.035  15.773 -0.1209 -0.0886 -0.0827
61832W        W 4745  12.415  21.917  19.590 -0.2517  0.1605  0.0646
61833W        W 4746  14.727  23.605  15.811  0.2161  0.1269  0.0284
61834W        W 4747   4.481  26.276  18.538 -0.1078 -0.1307 -0.0284
61835W        W 4748  21.436  21.780  16.286  0.1887  0.1691  0.1107
61836W        W 4749  13.888  26.264  27.942 -0.0323 -0.0845 -0.1766
61837W        W 4750   5.692  22.884  19.232 -0.1976  0.2390 -0.1112
61838W        W 4751  15.007  21.115  14.911  0.2431  0.0044 -0.0157
61839W        W 4752  15.539  20.412  20.450  0.2318 -0.2031 -0.1820
61840W        W 4753  16.745  28.782  22.355 -0.0237  0.0205  0.0514
61841W        W 4754  13.584  20.245  23.258  0.1424 -0.0017  0.1308
61842W        W 4755  13.872  23.923  19.710  0.0668  0.2516 -0.1005
61843W        W 4756  23.563  23.904  22.333  0.0353  0.1570 -0.0092
61844W        W 4757  10.433   0.279  19.792  0.3392 -0.2276 -0.4871
61845W        W 4758   4.170  26.694  18.335 -0.0424 -0.0813 -0.3017
61846W        W 4759  16.420  25.774  18.444  0.2912 -0.0356  0.0577
61847W        W 4760  15.380  32.635  19.454 -0.3048 -0.3612  0.0683
61848W        W 4761  22.565  18.587  14.197  0.2350 -0.0098 -0.0208
61849W        W 4762  12.687  22.511  16.227 -0.0657 -0.2504 -0.0432
61850W        W 4763   4.126   0.371  20.879  0.2279 -0.1717  0.0176
61851W        W 4764  13.892  30.613  19.424  0.0688 -0.1251  0.1770
61852W        W 4765  23.916  22.729  17.215 -0.0122  0.0746 -0.0259
61853W        W 4766  17.484  31.109  15.216  0.0008 -0.2246 -0.1032
61854W        W 4767   7.168  19.425  14.747 -0.1536 -0.3121 -0.2058
61855W        W 4768  13.427  32.226  22.430  0.4933  0.3205  0.0281
61856W        W 4769   1.434  15.800  21.382 -0.0870  0.2755 -0.1323
61857W        W 4770  16.784  24.231  15.463 -0.0184 -0.3870  0.1726
61858W        W 4771  11.286  16.930  15.920  0.2041 -0.3896 -0.0043
61859W        W 4772  21.440  20.784  16.295 -0.0792 -0.0205 -0.1160
61860W        W 4773   9.943  11.204  17.078  0.0544 -0.0870  0.3843
61861W        W 4774  23.764  24.446  21.937 -0.2595  0.1071  0.1617
61862W        W 4775   7.521  24.623  17.784  0.2988  0.0696 -0.1232
61863W        W 4776   4.210  17.290  25.003 -0.3470  0.0439  0.1620
61864W        W 4777   4.999  16.183  15.062 -0.1113 -0.1012 -0.1544
61865W        W 4778  22.072  17.305  16.310 -0.0735  0.1541  0.1890
61866W        W 4779  17.928  22.906  22.445  0.0233 -0.0693 -0.3581
61867W        W 4780  33.225  20.730   3.262 -0.1692  0.2109 -0.1493
61868W        W 4781  28.130  14.313  21.824  0.1434 -0.1208  0.2499
61869W        W 4782  14.510  13.481  17.269  0.1455  0.0378  0.0893
61870W        W 4783   6.708  19.593  21.921 -0.0761 -0.1096 -0.3098
61871W        W 4784  14.066  21.413  15.582  0.1622  0.1608  0.1519
61872W        W 4785  11.765  30.220  26.168  0.1441 -0.0058 -0.0571
61873W        W 4786  15.735  24.098  18.083 -0.0818 -0.2384 -0.1166
61874W        W 4787  12.915  24.021  19.893 -0.1644 -0.0568  0.1049
61875W        W 4788   2.528  25.451  21.042 -0.0074 -0.3282  0.0043
61876W        W 4789  14.273   9.750  17.918 -0.2957 -0.1922 -0.3396
61877W        W 4790  14.181  18.656  23.260 -0.2506 -0.0532 -0.1796
61878W        W 4791  19.539  28.397  18.650  0.1202 -0.0857 -0.0554
61879W        W 4792  23.670  30.628  18.799  0.2127 -0.0172 -0.0025
61880W        W 4793  13.719  31.018  24.665  0.3307 -0.0061  0.2325
61881W        W 4794  17.396  31.118  18.867 -0.0808  0.2189  0.1311
61882W        W 4795  13.079  23.988  19.395 -0.0823  0.1088  0.0195
61883W        W 4796  14.833  29.078  15.645 -0.3046 -0.3175  0.0529
61884W        W 4797  26.583  25.375  22.143 -0.1610  0.0220  0.2332
61885W        W 4798  16.412   0.652  22.577  0.2294 -0.4344  0.0735
61886W        W 4799   3.711  28.464  15.229  0.0765 -0.1880  0.1152
61887W        W 4800   9.418  13.056  17.061  0.0054 -0.3573  0.2287
61888W        W 4801  13.403  17.857  13.681 -0.3043 -0.2151 -0.2066
61889W        W 4802   2.694  22.609  24.568  0.0712 -0.0391  0.1211
61890W        W 4803  11.462  13.784  14.374  0.0752 -0.2697 -0.3472
61891W        W 4804  11.508  23.329  21.076 -0.0029  0.0960 -0.0788
61892W        W 4805  15.809  21.920  14.595 -0.1585 -0.0852  0.3104
61893W        W 4806  13.133  18.937  15.851  0.1482  0.2871 -0.1356
61894W        W 4807   2.900  23.016  18.469  0.2791 -0.1590 -0.1000
61895W        W 4808   6.070  20.518  22.225  0.3659  0.2443  0.0414
61896W        W 4809  22.514  21.099  17.772 -0.3525 -0.1145  0.1983
61897W        W 4810   3.466  12.027  15.364  0.0763 -0.1199 -0.1417
61898W        W 4811  15.015  22.819  16.075 -0.0696  0.0820  0.1298
61899W        W 4812   7.177  26.616  20.399  0.2418 -0.0137  0.3014
61900W        W 4813  11.263  21.079  19.207  0.0401 -0.1964  0.2471
61901W        W 4814   3.011  21.581  24.325 -0.1099  0.1870  0.4391
61902W        W 4815  13.364  31.427  28.232  0.1404 -0.0280  0.1935
61903W        W 4816   7.275  28.446  23.056  0.3020  0.0370 -0.2060
61904W        W 4817   5.666  17.458  18.832 -0.0352 -0.0961  0.1933
61905W        W 4818  27.121  19.112  18.697  0.0784  0.2802 -0.1566
61906W        W 4819  17.490   9.437  16.671 -0.3355  0.1109 -0.2178
61907W        W 4820  26.101  25.308  16.725  0.3218  0.1397 -0.1177
61908W        W 4821  15.931  31.808  21.552 -0.1003  0.2082 -0.1630
61909W        W 4822  10.910  27.985  18.773 -0.0263 -0.1416  0.2328
61910W        W 4823  12.319  18.056  16.422  0.1043 -0.4317  0.6359
61911W        W 4824   1.390  29.003  14.877  0.0350 -0.0451 -0.0097
61912W        W 4825  17.551  11.237  14.854 -0.0369  0.0776 -0.2150
61913W        W 4826  14.173  24.841  27.664  0.2359 -0.0096  0.4433
61914W        W 4827  10.237  17.562  18.254  0.1336  0.0958  0.0605
61915W        W 4828   8.481  16.688  21.545 -0.0442 -0.1416  0.3923
61916W        W 4829   8.334  26.222  24.090  0.1733 -0.0195  0.0354
61917W        W 4830  12.438  15.565  14.285 -0.5193  0.0703  0.0529
61918W        W 4831  11.999  20.554  24.568  0.0992 -0.0952 -0.2700
61919W        W 4832  16.680  24.729  17.942  0.3632  0.0376  0.0796
61920W        W 4833  17.644   0.869  24.440 -0.1885  0.1774 -0.0748
61921W        W 4834  14.472  19.135  15.245 -0.0287 -0.1997 -0.2492
61922W        W 4835  15.291  29.313  22.319 -0.2557 -0.0752 -0.1787
61923W        W 4836   0.329  22.663  17.291 -0.0982  0.2429 -0.0634
61924W        W 4837  21.900  15.167  18.688 -0.0790 -0.0628  0.0584
61925W        W 4838  13.372  12.168  22.155 -0.3300 -0.0258 -0.2378
61926W        W 4839  11.576  13.092  22.589  0.1344 -0.3325  0.2860
61927W        W 4840  18.053  28.922  18.522  0.0982 -0.0982  0.1587
61928W        W 4841   3.928  20.401  13.953  0.0105  0.2914  0.1428
61929W        W 4842   7.495  32.818  18.521 -0.3220  0.0800 -0.2846
61930W        W 4843   6.485  23.867  19.710  0.1930  0.3001 -0.1561
61931W        W 4844   9.810  21.474  23.909 -0.0018  0.1415  0.3410
61932W        W 4845   8.390  25.273  17.447  0.1842  0.2938 -0.0046
61933W        W 4846  17.513  22.713  18.374 -0.1897  0.1142  0.0011
61934W        W 4847  30.983  26.985  20.130  0.1966  0.2232  0.1197
61935W        W 4848  15.715  30.017  22.190  0.1528 -0.0754 -0.3667
61936W        W 4849  14.828  24.536  19.106 -0.2605  0.0990  0.2419
61937W        W 4850  11.236  20.295  12.500 -0.3668 -0.0113 -0.0204
61938W        W 4851  11.368  30.321  20.905  0.2053  0.0455  0.1076
61939W        W 4852  10.111  23.604  18.516 -0.1440  0.0343 -0.0378
61940W        W 4853   9.171  15.747  18.522  0.0856 -0.3374  0.1915
61941W        W 4854   8.765  11.201  27.808 -0.0280 -0.4330  0.1235
61942W        W 4855  13.278  20.218  12.736 -0.0217  0.2592 -0.0502
61943W        W 4856   7.208  23.005  18.967 -0.3230 -0.0826 -0.1926
61944W        W 4857  11.020  19.525  14.093 -0.0844  0.1001 -0.5857
61945W        W 4858  12.338  24.881  19.503 -0.0498  0.3613  0.1196
61946W        W 4859  21.799  28.428  19.136 -0.1466  0.2442 -0.1849
61947W        W 4860  13.226  11.209   3.410 -0.1380  0.0692 -0.3059
61948W        W 4861   8.075  16.649  17.443  0.1455  0.0150 -0.2144
61949W        W 4862   7.730  21.355  14.416  0.2859 -0.0425 -0.0641
61950W        W 4863  12.462  19.461  14.438  0.2026 -0.0467  0.1981
61951W        W 4864  11.625  20.466  17.543  0.0163 -0.5078 -0.0729
61952W        W 4865  26.391  28.914  18.755  0.0669  0.5836 -0.0769
61953W        W 4866   8.942  25.056  14.456  0.3377 -0.1779  0.1809
61954W        W 4867  22.686  21.570  15.613 -0.2124  0.0592 -0.2607
61955W        W 4868  12.067  16.808  15.247  0.1659  0.0391 -0.1331
61956W        W 4869  11.018  18.267  16.911  0.0801  0.2303  0.2956
61957W        W 4870  14.028  22.704  14.081 -0.1326 -0.0610 -0.1733
61958W        W 4871  19.238  32.537  14.900 -0.5138  0.0468 -0.0827
61959W        W 4872  17.883  28.517  18.841  0.3635 -0.0074  0.2097
61960W        W 4873  11.378  18.398  18.966 -0.1308  0.0046 -0.1487
61961W        W 4874   4.505  25.774  16.105  0.1269 -0.1181 -0.0118
61962W        W 4875  15.873  13.263  12.716  0.3036  0.1556 -0.1441
61963W        W 4876   8.648  28.740  18.116  0.3344  0.1806 -0.1292
61964W        W 4877  23.658  31.712  22.531  0.2001 -0.1823  0.4291
61965W        W 4878  14.904  24.791  16.766 -0.0724 -0.2793 -0.0052
61966W        W 4879  19.341  18.211  14.139  0.1190  0.0695 -0.0077
61967W        W 4880  22.399  32.322  19.396 -0.3272 -0.0776  0.1146
61968W        W 4881  22.040  20.697  22.707  0.0419 -0.0034  0.0978
61969W        W 4882  19.311  23.394  16.099  0.2569  0.1655  0.1045
61970W        W 4883  13.540  30.116  17.155  0.1687 -0.1610  0.0254
61971W        W 4884  10.483  23.820  27.437 -0.1144 -0.1339 -0.1751
61972W        W 4885  12.733  20.651  15.806  0.1014  0.2945 -0.3049
61973W        W 4886  20.414  25.395  16.881 -0.1588 -0.2276 -0.2812
61974W        W 4887   1.608  25.298  23.261  0.1712  0.2086 -0.1144
61975W        W 4888   8.802  14.852  19.945 -0.4968 -0.0742 -0.3495
61976W        W 4889   6.036  22.550  14.980  0.0627  0.1048  0.0252
61977W        W 4890  18.099  30.262  21.168 -0.1610  0.1508  0.0392
61978W        W 4891  17.355  26.113  16.347 -0.0459  0.0852 -0.1465
61979W        W 4892  12.989  16.334  16.342 -0.2383  0.3214 -0.1682
61980W        W 4893   9.370  26.417  15.596  0.1460 -0.0736  0.1260
61981W        W 4894  18.720  21.481  15.363 -0.0164 -0.1186  0.1012
61982W        W 4895   8.572   7.086  24.793  0.1480 -0.0627  0.0239
61983W        W 4896   6.436  24.526  17.243 -0.1420  0.0119  0.0104
61984W        W 4897  16.810  17.005  14.146 -0.0949 -0.3025 -0.2057
61985W        W 4898   4.045  17.734  25.082 -0.1580  0.2501 -0.0494
61986W        W 4899  18.861  21.922  13.535 -0.2177 -0.1732  0.1975
61987W        W 4900  11.339  20.557  19.399  0.4094 -0.0951  0.0737
61988W        W 4901  14.333  33.445  19.525 -0.1753  0.2335 -0.0515
61989W        W 4902   3.610  16.373  19.831  0.0104  0.0735  0.0065
61990W        W 4903  33.831  16.595  22.109 -0.0373  0.1170  0.1297
61991W        W 4904   9.265  21.346  20.813 -0.0291 -0.0435  0.0479
61992W        W 4905  17.631  22.919  15.468  0.0766 -0.1058 -0.1551
61993W        W 4906   9.627  10.973  16.343  0.0598 -0.2892  0.1994
61994W        W 4907  19.590  14.709  14.006  0.1008  0.1951 -0.3871
61995W        W 4908  19.333  26.098  17.434  0.0934 -0.0841 -0.2648
61996W        W 4909  24.930  11.049  13.043 -0.3517  0.0649  0.3446
61997W        W 4910  16.386  17.054  12.994  0.2250  0.0601  0.0888
61998W        W 4911  23.566  21.548  16.786 -0.2786 -0.0614  0.0625
61999W        W 4912   1.234  30.581  26.967 -0.0623 -0.1791  0.0424
62000W        W 4913  10.407  28.344  20.578  0.2425 -0.0339  0.1210
62001W        W 4914  13.039  19.784  15.202  0.0120  0.2045 -0.1022
62002W        W 4915  18.213  26.474  16.710 -0.0388 -0.0199 -0.2991
62003W        W 4916  20.724  26.090  14.794  0.0095  0.1376  0.3211
62004W        W 4917  11.535  26.602  18.884 -0.1259  0.3789 -0.1957
62005W        W 4918  14.603  30.556  17.698  0.2512  0.2462 -0.3151
62006W        W 4919  29.109   8.085  18.529 -0.1960  0.0244 -0.0699
62007W        W 4920   3.678  22.505  15.095 -0.1043  0.0052 -0.0506
62008W        W 4921   8.821  21.756  16.249 -0.3837  0.2674  0.1248
62009W        W 4922  17.723  23.873  14.731  0.2048  0.1982  0.0032
62010W        W 4923  19.378  21.382  14.510  0.0174 -0.0021  0.1447
62011W        W 4924  14.112  24.974  24.559  0.0304  0.0238  0.0664
62012W        W 4925   1.394  22.084  18.538 -0.3173  0.3693  0.2699
62013W        W 4926   7.617  14.997  18.162 -0.0782  0.0351 -0.1343
62014W        W 4927  19.731  21.252  17.661  0.2013 -0.1290 -0.2587
62015W        W 4928  12.174  25.499  18.186  0.0127  0.0403  0.0667
62016W        W 4929  12.071  28.224   0.434  0.4148  0.2191 -0.0872
62017W        W 4930  13.265  23.039  14.956 -0.1334 -0.2027  0.2673
62018W        W 4931  15.353  19.265  13.229 -0.2371 -0.0914 -0.4615
62019W        W 4932   9.102  17.240  27.517 -0.2446  0.0471 -0.2001
62020W        W 4933  10.457  17.280  17.177  0.4300  0.1133 -0.2124
62021W        W 4934   4.788  10.736  17.139  0.0390  0.3510  0.0638
62022W        W 4935   6.012  22.592  16.673  0.0072 -0.0079  0.0024
62023W        W 4936  19.880   9.837  16.720  0.1138  0.0683  0.0380
62024W        W 4937   4.947  21.474  23.771  0.1533  0.2406 -0.0860
62025W        W 4938   8.691  21.154  26.874 -0.1589  0.1007  0.0856
62026W        W 4939   5.931  14.642  17.818  0.6520 -0.0705 -0.1612
62027W        W 4940   6.911  32.131  17.600 -0.1875  0.1861  0.5498
62028W        W 4941  16.780  27.930  14.658  0.0889  0.0360 -0.0841
62029W        W 4942  16.768  27.290  22.126 -0.1947  0.1624  0.2259
62030W        W 4943   7.262  28.667  16.397  0.0233 -0.1310  0.0389
62031W        W 4944  10.936  22.175  16.090 -0.0198  0.1793 -0.0712
62032W        W 4945   3.429  17.907  22.027  0.0496  0.4215 -0.2419
62033W        W 4946  13.099  29.068  16.385  0.1130  0.2226 -0.0060
62034W        W 4947   1.589  17.924  15.346 -0.0716 -0.1828  0.0991
62035W        W 4948  14.974  27.928  28.369 -0.0154 -0.1259  0.3037
62036W        W 4949  10.040  26.847  16.814 -0.4338  0.0292 -0.0583
62037W        W 4950  11.652  16.327  19.486 -0.1448 -0.1274 -0.4530
62038W        W 4951  13.008  21.753  20.796 -0.2797 -0.5581 -0.0672
62039W        W 4952  15.857  10.997  15.471 -0.1711  0.1073  0.0077
62040W        W 4953  13.050  26.051   7.325  0.1823  0.2975 -0.2729
62041W        W 4954   6.364  19.982   4.527  0.2518  0.2176  0.2046
62042W        W 4955  10.896  12.164  21.052  0.2194 -0.0379 -0.1875
62043W        W 4956  15.904  27.392  23.784  0.2487 -0.2033  0.1091
62044W        W 4957   7.408  16.563  18.659 -0.1445 -0.3616 -0.0205
62045W        W 4958  22.274   1.193  17.187 -0.0806  0.1818  0.2203
62046W        W 4959  16.096  28.150  28.538  0.0211  0.3908 -0.4463
62047W        W 4960  22.398   5.857  22.758 -0.0259 -0.0925  0.0186
62048W        W 4961  11.798  31.333  22.830  0.0128  0.0680 -0.1955
62049W        W 4962   7.710  28.590  29.126  0.0438 -0.0174  0.1362
62050W        W 4963  23.654  26.580  16.367 -0.1291  0.0071  0.2539
62051W        W 4964  21.351  25.663  23.335 -0.1482  0.1111 -0.1625
62052W        W 4965   7.541  18.456  21.102  0.0369 -0.0869  0.0120
62053W        W 4966  17.332  32.442  14.761  0.0851 -0.3256  0.1548
62054W        W 4967  10.702  18.989  20.310  0.0633  0.0197  0.4728
62055W        W 4968  11.369  14.962  15.180  0.0941  0.0410  0.0327
62056W        W 4969  13.297  24.022  14.692 -0.2687  0.0294  0.1269
62057W        W 4970  19.622  23.417  14.858  0.2232  0.0552 -0.1684
62058W        W 4971  15.169  18.138  26.132 -0.0362  0.1840 -0.1521
62059W        W 4972  13.766  32.886  20.202  0.0907  0.1803  0.0583
62060W        W 4973  11.623  19.803  18.833  0.1110  0.2449 -0.1912
62061W        W 4974  14.829  31.425  24.217  0.1563  0.0302 -0.1147
62062W        W 4975  18.596   0.162  27.407  0.3021 -0.1451  0.1102
62063W        W 4976  11.991  23.849  23.394 -0.5120  0.0926  0.1221
62064W        W 4977  12.247  24.546  15.198  0.0689 -0.1480  0.0286
62065W        W 4978  24.855  29.347  18.040 -0.0597  0.1430  0.3167
62066W        W 4979  11.456  28.150  20.388  0.0476 -0.0758  0.0259
62067W        W 4980   7.787  17.961  13.411  0.0258  0.0406 -0.0731
62068W        W 4981   4.047  28.950  15.342 -0.1442 -0.1655  0.3533
62069W        W 4982   4.032  24.279  19.373  0.0235 -0.0798 -0.0912
62070W        W 4983  26.168  24.371  20.428  0.0543 -0.0986 -0.1279
62071W        W 4984   6.798  16.349  13.766  0.2733 -0.0569  0.2236
62072W        W 4985  19.049  22.946  16.429  0.1565 -0.2487  0.1208
62073W        W 4986  16.283  26.108  24.579 -0.0514  0.0937  0.0162
62074W        W 4987   3.641  22.893  15.459  0.2869 -0.0415  0.1027
62075W        W 4988  18.947  26.472  17.822 -0.0983  0.1288  0.0489
62076W        W 4989  11.797  14.084  15.525 -0.1299 -0.1280  0.2739
62077W        W 4990   8.689  22.956  15.932 -0.3078  0.1511 -0.0271
62078W        W 4991  20.115   9.364  15.890 -0.0236  0.0495  0.2315
62079W        W 4992  15.719  24.100  13.751  0.4175 -0.4247  0.2127
62080W        W 4993   7.608  21.856  16.988 -0.0049  0.0820  0.0627
62081W        W 4994  11.879  32.960  17.628  0.1993  0.0440 -0.3077
62082W        W 4995  13.594  19.618  15.663  0.1514 -0.3800 -0.0916
62083W        W 4996   8.158   2.116  17.345 -0.2328  0.0577 -0.0030
62084W        W 4997   8.121  15.307  18.859 -0.0555  0.0092  0.0148
62085W        W 4998  26.532  17.673  17.735 -0.0792 -0.0614 -0.0590
62086W        W 4999  11.324  17.881  20.927 -0.0678 -0.0667  0.4502
62087W        W 5000   9.792  27.322  17.293 -0.0870  0.0739 -0.1190
62088W        W 5001  17.520  16.104  15.035  0.0519 -0.1015 -0.0723
62089W        W 5002  14.339  26.237  14.868  0.1705 -0.1424  0.0588
62090W        W 5003  18.395  23.428  18.053  0.2529  0.2974  0.3316
62091W        W 5004   5.404  15.119  14.297  0.0745  0.0118  0.0542
62092W        W 5005   7.308   7.103  25.703  0.0930  0.1096 -0.0506
62093W        W 5006  18.472  23.884  20.283  0.2108 -0.3359  0.1303
62094W        W 5007  20.279   8.762  18.643 -0.1386 -0.2780  0.2027
62095W        W 5008   9.336  26.187  22.744  0.0542 -0.1735 -0.3226
62096W        W 5009  17.645   2.691  24.129 -0.0787 -0.0544 -0.0727
62097W        W 5010  13.413  22.809  17.183 -0.3459 -0.0428  0.2089
62098W        W 5011   9.539  16.079  18.473  0.0681 -0.2206 -0.0320
62099W        W 5012  18.839  32.443  26.870 -0.1150 -0.0428 -0.1552
62100W        W 5013   7.558   3.163  22.837 -0.1818 -0.3085  0.2407
62101W        W 5014  24.209  14.827  16.679  0.1507 -0.1840  0.0912
62102W        W 5015  22.795  25.187  21.214  0.0801 -0.1591 -0.3503
62103W        W 5016  16.624  29.093  19.371  0.1162  0.0119  0.1547
62104W        W 5017  11.364  11.077  22.663  0.0559 -0.0007  0.1058
62105W        W 5018   7.036  25.774  17.607  0.3587 -0.0468  0.2371
62106W        W 5019   0.754  30.687  15.473  0.0266 -0.2174 -0.3103
62107W        W 5020  12.559  16.312  18.084  0.2598 -0.1096  0.0554
62108W        W 5021   9.985  25.595  23.188  0.3100  0.0152 -0.0137
62109W        W 5022  21.985  25.635  17.055 -0.1670 -0.0442 -0.2008
62110W        W 5023  14.454  15.188  12.787 -0.0037  0.1705  0.2005
62111W        W 5024   3.341  20.490  20.589 -0.1963 -0.0866 -0.0069
62112W        W 5025  13.177  19.394  23.268  0.4717  0.1594 -0.2749
62113W        W 5026   6.084  20.809  16.045  0.0607 -0.0966 -0.1715
62114W        W 5027  15.281  32.097  19.629 -0.2892  0.0989  0.3052
62115W        W 5028   7.897  22.949  18.929  0.3121  0.2769 -0.1048
62116W        W 5029  10.985  21.568  24.390  0.0640 -0.2619  0.1696
62117W        W 5030  11.513  27.681  25.039  0.0021  0.1971  0.2715
62118W        W 5031   1.886  29.499  17.838  0.1394  0.0582 -0.3426
62119W        W 5032   7.885  25.663  18.766  0.0574  0.0809  0.1179
62120W        W 5033  18.897  23.009  22.577 -0.1932 -0.0930 -0.0655
62121W        W 5034  12.173  28.270  25.538  0.1617  0.1129  0.2384
62122W        W 5035  25.449  28.853  18.337  0.3706 -0.2496  0.0993
62123W        W 5036  11.158  25.319  26.010  0.1114  0.1632 -0.0596
62124W        W 5037  23.755  32.138  14.690 -0.0428  0.1105 -0.0968
62125W        W 5038  18.811  22.595  22.321 -0.0077 -0.0139 -0.0205
62126W        W 5039  10.347  18.934  16.733  0.0861  0.2187 -0.0736
62127W        W 5040  20.931  17.301  14.231  0.2672 -0.2824 -0.0488
62128W        W 5041  21.477  31.075  18.376 -0.0526  0.3492 -0.0268
62129W        W 5042  14.144  21.086  17.975 -0.3780 -0.5123 -0.0291
62130W        W 5043   4.821  13.877  21.697 -0.0814 -0.2133 -0.0454
62131W        W 5044  17.164  27.309  22.476 -0.1502  0.0158 -0.0199
62132W        W 5045   7.064  24.947  15.415  0.0204  0.0770 -0.0514
62133W        W 5046   2.196  16.147  17.876  0.1594  0.1043 -0.2427
62134W        W 5047  30.590  27.245  16.019  0.0740  0.0391 -0.2915
62135W        W 5048   4.116  20.339  19.819 -0.1274  0.0246  0.1652
62136W        W 5049   3.965  28.013  26.533 -0.1251  0.0064 -0.1862
62137W        W 5050  17.078  31.265  25.511 -0.0445  0.2027 -0.1703
62138W        W 5051   6.739  14.586  17.825  0.2905 -0.0323  0.2427
62139W        W 5052   9.293  21.452   0.162 -0.0863  0.0307 -0.1675
62140W        W 5053  13.040  15.382  19.674 -0.0567 -0.4734  0.1388
62141W        W 5054   1.999  24.562  20.295  0.0758  0.0941 -0.0887
62142W        W 5055   4.544  12.791  25.548 -0.1989  0.2789 -0.1902
62143W        W 5056   8.115  23.980  18.278 -0.1738 -0.1133  0.0885
62144W        W 5057  26.832  19.836  27.230  0.0958  0.1584 -0.2606
62145W        W 5058  17.309  30.122  26.908  0.3711  0.1568  0.0154
62146W        W 5059  20.563  12.279  14.629  0.2053  0.0472 -0.3080
62147W        W 5060  12.149  21.490  15.442  0.1243  0.0936  0.2089
62148W        W 5061  10.257  32.655  20.992 -0.0916 -0.0181  0.1511
62149W        W 5062  10.099  24.699  27.547 -0.4425 -0.2959  0.0090
62150W        W 5063   9.878  24.157  15.774 -0.0616 -0.0687  0.4545
62151W        W 5064  15.620  25.116  17.566 -0.0297  0.1602 -0.1243
62152W        W 5065  10.661  31.416  16.314 -0.0133  0.2282 -0.1542
62153W        W 5066  14.125  19.968  23.166  0.0015 -0.0109  0.1579
62154W        W 5067   7.567  27.548  15.215  0.0688  0.2122 -0.0391
62155W        W 5068  11.748  27.486   2.543  0.1752  0.0418 -0.0667
62156W        W 5069  10.406  28.525  18.802 -0.2495 -0.2747 -0.0803
62157W        W 5070   6.847  18.079  21.390  0.3201  0.1033  0.5013
62158W        W 5071  10.136  26.754  21.484 -0.1140 -0.0125 -0.4048
62159W        W 5072   4.010  14.269  25.860 -0.4771  0.3037  0.0014
62160W        W 5073  14.909  30.510   0.610  0.2335  0.2747  0.1597
62161W        W 5074   6.214  23.094  18.062  0.2924 -0.1526 -0.1799
62162W        W 5075  14.199  11.028  18.998 -0.1029  0.0584 -0.1060
62163W        W 5076  10.975  25.765  18.721  0.0386  0.0648 -0.1270
62164W        W 5077   4.377  18.718  21.724 -0.0122 -0.2257  0.2933
62165W        W 5078  13.027  20.033  21.560  0.3267  0.2696 -0.2792
62166W        W 5079  29.230  26.630  19.076 -0.1064  0.0664  0.0884
62167W        W 5080  18.232  15.340  14.462  0.0413 -0.4664 -0.4641
62168W        W 5081  10.619  11.522  25.073 -0.2227 -0.0096 -0.2243
62169W        W 5082   6.434  28.010  17.096  0.2354 -0.2515  0.3457
62170W        W 5083  21.497  22.060  17.677  0.0992  0.2232 -0.1564
62171W        W 5084  10.084  17.435  23.804 -0.2499  0.0349  0.0850
62172W        W 5085  19.861  27.084  16.991 -0.1976 -0.0917 -0.0746
62173W        W 5086   4.831  23.177  26.503 -0.0006  0.0422  0.2217
62174W        W 5087  24.630  26.934   0.731  0.1885 -0.1094  0.0271
62175W        W 5088  13.449  31.137  27.748 -0.2135  0.2065 -0.0591
62176W        W 5089  24.147  10.447  18.650  0.4611 -0.0587 -0.1732
62177W        W 5090   9.658  21.935  14.636 -0.1378  0.0236 -0.2742
62178W        W 5091   4.288  21.869  19.816  0.1642 -0.1821  0.0646
62179W        W 5092  13.084  29.032  15.339 -0.3967 -0.0582  0.1917
62180W        W 5093  17.888  29.708  14.398  0.2070  0.3758 -0.1267
62181W        W 5094   4.358  25.124  22.244 -0.0715  0.1380  0.1753
62182W        W 5095  15.617   7.238  13.333  0.1051 -0.1138  0.1595
62183W        W 5096   9.118  16.150  28.907 -0.0389  0.0960  0.2092
62184W        W 5097   7.045  32.042  21.710  0.0370  0.0357  0.4352
62185W        W 5098  16.401  22.825  21.142 -0.2045  0.0968 -0.2231
62186W        W 5099  16.443  20.618  13.597  0.3547  0.0076  0.2576
62187W        W 5100   5.589  12.684  18.939 -0.0132 -0.0390 -0.4209
62188W        W 5101  12.247  20.434  19.372  0.1059  0.0248  0.0909
62189W        W 5102   8.624  17.508  13.618 -0.1738  0.0199  0.1742
62190W        W 5103   5.379  26.392  18.760  0.0189  0.0451  0.0472
62191W        W 5104  11.472  18.202  27.783  0.0545 -0.1445  0.0571
62192W        W 5105  24.635  28.403  17.346  0.0910  0.0085 -0.2754
62193W        W 5106  25.901  18.699  12.793  0.0616 -0.2654  0.2357
62194W        W 5107  27.191  22.139  18.171  0.2643 -0.1040 -0.1766
62195W        W 5108  17.256  22.649  12.836  0.0253 -0.2265 -0.2079
62196W        W 5109  18.373  24.004  18.077 -0.2328 -0.2086  0.0162
62197W        W 5110  18.706  15.517  11.960 -0.3167  0.3422 -0.3268
62198W        W 5111  11.588  29.831  23.940  0.0016  0.0265  0.1663
62199W        W 5112  17.021   7.979  17.544  0.0391  0.2850  0.0314
62200W        W 5113  11.370  19.336  23.636 -0.0283 -0.2670  0.0149
62201W        W 5114  25.610  32.244  23.280 -0.2021 -0.0008 -0.0438
62202W        W 5115   8.999  11.755  21.841 -0.5359  0.1788  0.3480
62203W        W 5116   8.684  16.426  22.794 -0.2663 -0.1928 -0.0854
62204W        W 5117  13.869  24.102  23.207  0.0919 -0.3420  0.1841
62205W        W 5118   5.644  32.276  18.387 -0.1478 -0.0399 -0.0751
62206W        W 5119  12.278  17.605  22.903  0.1084 -0.4336 -0.3545
62207W        W 5120   5.677  26.787  22.666 -0.0289 -0.0775  0.1912
62208W        W 5121  14.666  24.906  25.728 -0.1596 -0.0384 -0.3651
62209W        W 5122   1.481  19.351  13.650 -0.0689 -0.0395  0.0938
62210W        W 5123   7.089  31.852  16.370 -0.0786  0.0374 -0.0156
62211W        W 5124  14.698  18.376  14.153 -0.0989 -0.0647 -0.3561
62212W        W 5125   8.550  19.238  14.487  0.0822 -0.2410 -0.0746
62213W        W 5126   9.058  17.599  16.676 -0.3547  0.2986  0.0799
62214W        W 5127  14.518  20.873  25.386 -0.1283 -0.0219  0.1953
62215W        W 5128   7.532  14.818  14.983  0.1131 -0.3366  0.1978
62216W        W 5129  20.732  27.292  18.190  0.3410 -0.1094 -0.0540
62217W        W 5130  12.383  27.461  17.948  0.0127  0.0842 -0.1438
62218W        W 5131   6.755  22.878  16.311  0.0722  0.0552 -0.1751
62219W        W 5132  13.051  19.720  13.258 -0.2602  0.2774  0.1344
62220W        W 5133   9.118  25.321  20.988  0.1518  0.1318  0.2820
62221W        W 5134   6.558   1.893  23.945  0.2989 -0.0993  0.2038
62222W        W 5135   5.552  25.135  17.364 -0.2098 -0.2116 -0.2833
62223W        W 5136   5.281  26.516  26.595  0.0111 -0.0097  0.1837
62224W        W 5137  13.807  23.812   6.970  0.2058  0.3469  0.0860
62225W        W 5138  26.637  24.190  15.478 -0.1335  0.2258 -0.1690
62226W        W 5139  24.177  28.784  20.198 -0.0822  0.1578 -0.2564
62227W        W 5140  16.306  31.711  23.162  0.0282 -0.0314 -0.0375
62228W        W 5141   4.008  19.549  18.498 -0.0783 -0.0588  0.0984
62229W        W 5142   3.804  23.956  19.717 -0.2470  0.1695  0.0767
62230W        W 5143  18.412  20.318  14.510  0.1964 -0.1907  0.4090
62231W        W 5144  16.123  16.103  11.586  0.1695  0.2045  0.4589
62232W        W 5145  27.597  32.628  18.534  0.1608  0.2226 -0.0530
62233W        W 5146  19.727  27.011  13.545  0.1298  0.0852  0.1684
62234W        W 5147  19.972  20.511  13.396 -0.1360 -0.2437  0.1084
62235W        W 5148   4.697  21.746  27.892  0.1051 -0.1508 -0.3282
62236W        W 5149  21.364  29.481  19.935  0.1736  0.0148 -0.1673
62237W        W 5150  18.789  25.615  18.188 -0.0298  0.0494 -0.1152
62238W        W 5151  18.882  23.435  13.407 -0.2263  0.0015  0.1738
62239W        W 5152  13.651  25.656  27.507 -0.1022  0.1524  0.1478
62240W        W 5153   6.219  16.752  21.826 -0.0909  0.1058 -0.0080
62241W        W 5154   5.381  16.971  15.504 -0.0856 -0.2094  0.1643
62242W        W 5155  12.699  25.971  19.178 -0.1491 -0.2007  0.0549
62243W        W 5156  20.703  21.484  22.426  0.3661  0.3539  0.3762
62244W        W 5157  24.982  19.754  16.698  0.1560  0.0701  0.0982
62245W        W 5158  25.321  12.754  17.328  0.2972 -0.1410 -0.2339
62246W        W 5159  23.612  29.281  16.940  0.2688 -0.0512 -0.0860
62247W        W 5160  14.271  24.155  16.781  0.2010 -0.2413 -0.2226
62248W        W 5161  15.727  18.975  26.148 -0.1215 -0.0046 -0.1239
62249W        W 5162  10.731  21.035  21.177  0.0849 -0.0587  0.1456
62250W        W 5163  20.237  21.860  21.086  0.0809 -0.1656 -0.1459
62251W        W 5164   3.679  27.639  16.507 -0.0158 -0.2777 -0.1127
62252W        W 5165  29.561  22.487  21.762 -0.2448  0.2262  0.1171
62253W        W 5166  24.396  23.890  16.789  0.1086 -0.0070 -0.0261
62254W        W 5167  16.687  28.399  17.962 -0.0697  0.3378 -0.3260
62255W        W 5168   9.056  26.991  20.974  0.0614  0.3401  0.2724
62256W        W 5169   6.574  23.946  18.405  0.0317 -0.1602  0.0404
62257W        W 5170   3.804  18.633  21.289  0.0324  0.2700  0.1543
62258W        W 5171  10.612  22.582  14.757  0.3897 -0.0648  0.2585
62259W        W 5172   6.460   9.542  27.687  0.2110  0.0835  0.1635
62260W        W 5173  10.409  19.006  14.633 -0.0067  0.1385  0.0110
62261W        W 5174  12.336  24.825  26.984 -0.1343  0.1674 -0.0416
62262W        W 5175   0.070  29.337  29.058 -0.0800 -0.4068  0.1551
62263W        W 5176  17.653  10.119  19.681 -0.1602  0.0825  0.0451
62264W        W 5177   6.995  23.364  24.434 -0.0132  0.0502  0.0042
62265W        W 5178  10.177  29.583  20.733 -0.0791  0.0004 -0.1113
62266W        W 5179  20.065  11.554  18.342  0.1332  0.4265  0.1136
62267W        W 5180  23.889  24.447  28.522 -0.4183  0.2552  0.3192
62268W        W 5181  10.647  26.169  20.795 -0.0168  0.2438  0.2220
62269W        W 5182  13.845  20.746  17.621 -0.0498  0.3339 -0.1812
62270W        W 5183  15.023  28.520  25.671 -0.1188  0.0690 -0.3481
62271W        W 5184  22.400  30.067  15.031 -0.2790 -0.3355 -0.1273
62272W        W 5185  18.792  20.985  12.268 -0.0488 -0.1557  0.1024
62273W        W 5186   8.593  18.093  16.148  0.1041 -0.1898 -0.0389
62274W        W 5187  19.975  18.829  14.310  0.1875  0.0457 -0.0382
62275W        W 5188  13.554  32.038  29.646 -0.1269 -0.2109 -0.0945
62276W        W 5189  15.986   5.493  27.270  0.1882  0.2984 -0.2660
62277W        W 5190  10.670  18.906  23.031  0.0089  0.0363 -0.2082
62278W        W 5191  15.249  26.432  25.243 -0.2936  0.2958 -0.0783
62279W        W 5192  21.896  16.041  17.268 -0.1367  0.1320 -0.0441
62280W        W 5193   8.822  21.052  13.714 -0.0305  0.1906  0.1362
62281W        W 5194  16.965  21.925  14.076 -0.0740  0.1893 -0.3830
62282W        W 5195  12.827  31.460  21.724  0.0275 -0.1493 -0.0101
62283W        W 5196   8.952  32.900  16.015 -0.0777  0.1814 -0.0045
62284W        W 5197  14.304  20.782  20.705 -0.3958 -0.0440 -0.0798
62285W        W 5198   8.729  23.027  16.817  0.0660 -0.1196 -0.0173
62286W        W 5199  11.412  23.335  20.350  0.0992 -0.2693 -0.2407
62287W        W 5200  11.390  25.859  14.528  0.1561 -0.0082  0.1448
62288W        W 5201   8.381  23.402  16.048 -0.0233 -0.3069 -0.2448
62289W        W 5202  11.669  20.627  15.482 -0.2892  0.1182  0.1867
62290W        W 5203   8.419  25.186  14.433 -0.0375 -0.1620 -0.0241
62291W        W 5204  13.577   1.129  17.656 -0.0308 -0.3964 -0.3009
62292W        W 5205  18.162  31.763  18.200 -0.3429  0.1123  0.2125
62293W        W 5206  24.203  24.319  16.536  0.1905 -0.3156 -0.0839
62294W        W 5207  34.359  20.237  24.342  0.0416  0.3271 -0.0051
62295W        W 5208  10.505  14.597  13.918 -0.1927 -0.1120  0.1060
62296W        W 5209   9.235  27.603  17.136 -0.0408 -0.0054  0.1476
62297W        W 5210  14.256  30.708  17.276  0.2648 -0.3731 -0.1197
62298W        W 5211   7.090  17.818  23.660  0.1165 -0.3087  0.0534
62299W        W 5212  23.140  24.615  15.276  0.0303 -0.0521 -0.0635
62300W        W 5213  22.559  30.469  28.278  0.3703 -0.3221 -0.3092
62301W        W 5214  11.613  21.399  16.017  0.0183 -0.0804 -0.3438
62302W        W 5215   9.801   2.983  17.316 -0.1067  0.1231  0.3244
62303W        W 5216   9.033  14.828  19.298 -0.1741  0.2777  0.0956
62304W        W 5217   9.783  11.704  16.861 -0.0487 -0.3477 -0.1637
62305W        W 5218  21.119  22.575  22.074  0.2163  0.1011 -0.2736
62306W        W 5219  19.068  18.124  15.256  0.1142  0.1314  0.1122
62307W        W 5220   5.277  18.374  15.304 -0.1433 -0.0504  0.1191
62308W        W 5221  11.254  19.066  25.649 -0.1572 -0.0057  0.3793
62309W        W 5222  19.707  19.489  15.544  0.3200 -0.2957 -0.2694
62310W        W 5223  16.170  26.122  28.210  0.0251 -0.0241  0.1581
62311W        W 5224  12.433  27.091  21.140  0.2122 -0.0637 -0.0655
62312W        W 5225  12.005   9.905  19.158 -0.0390 -0.1136  0.0771
62313W        W 5226  12.392  30.831  24.051  0.1231 -0.0992  0.0296
62314W        W 5227   5.518  21.356  15.660 -0.1182 -0.4092 -0.4569
62315W        W 5228  16.058  21.554  20.670  0.2648 -0.1529  0.0632
62316W        W 5229   1.928  31.000  24.209 -0.0805  0.0100  0.0132
62317W        W 5230  33.787  21.642  17.141 -0.0859 -0.1177  0.1361
62318W        W 5231  16.995  23.990  13.539  0.1431 -0.0658  0.6040
62319W        W 5232  15.887  20.864  23.632 -0.0041  0.1761  0.0795
62320W        W 5233  15.695  11.336  15.039  0.0116  0.3095  0.1630
62321W        W 5234   5.424  18.269  14.449 -0.1510 -0.0690 -0.0295
62322W        W 5235   1.366  20.187  22.036 -0.0507  0.2380  0.0814
62323W        W 5236  14.387  17.498  12.933 -0.2377 -0.0016  0.1529
62324W        W 5237   0.843  22.691  20.942  0.1169  0.0714 -0.2193
62325W        W 5238   3.657  22.412   0.499  0.0229 -0.0687  0.0035
62326W        W 5239  26.469  22.755  17.167 -0.5345 -0.2688  0.0620
62327W        W 5240   3.467  25.312   2.169  0.3482 -0.0000  0.0116
62328W        W 5241  18.991  22.109  20.896  0.3809  0.1363 -0.0293
62329W        W 5242  12.929  21.109  16.024  0.1154  0.0532 -0.2543
62330W        W 5243  19.387  26.231  18.080  0.0865 -0.0942  0.0905
62331W        W 5244  21.967  23.817  24.887  0.1211  0.0265  0.0602
62332W        W 5245  10.284  14.788  16.829  0.1354  0.2505  0.2527
62333W        W 5246  31.246  18.884  25.150 -0.0362 -0.0464  0.1750
62334W        W 5247  11.967  25.120  16.909 -0.3537  0.0913 -0.3178
62335W        W 5248  15.633   6.149  17.206  0.1018 -0.1479  0.3076
62336W        W 5249   4.739  32.418  18.626  0.0055  0.3100  0.1322
62337W        W 5250   2.793   7.366  23.384 -0.1168 -0.0317  0.2075
62338W        W 5251   3.524  13.248  27.053 -0.3251  0.3480 -0.2080
62339W        W 5252   6.930  16.865  14.526  0.2088 -0.0639 -0.0978
62340W        W 5253  12.708  11.088  15.679  0.0525  0.1809  0.0466
62341W        W 5254  15.654  26.315  29.156 -0.1486 -0.3695 -0.0559
62342W        W 5255   1.516  25.191  14.984 -0.1594 -0.0917  0.2217
62343W        W 5256  20.030  13.984  15.195  0.0760 -0.2969 -0.2595
62344W        W 5257  16.039   9.832  21.831 -0.0407  0.1221  0.0699
62345W        W 5258   6.430   3.346  23.785 -0.0423 -0.1883  0.1832
62346W        W 5259   7.409  21.471  20.103 -0.1327  0.3500 -0.3364
62347W        W 5260  12.582  15.936  27.567  0.2990  0.0438 -0.0142
62348W        W 5261   9.987  26.864  17.301  0.0089  0.0177  0.0528
62349W        W 5262   9.446  14.598  25.782 -0.1833 -0.0417  0.0304
62350W        W 5263  19.415  13.150  14.504 -0.2700 -0.1380  0.0545
62351W        W 5264  12.028  24.995  15.310  0.3092  0.2013 -0.2167
62352W        W 5265  23.459  29.303  18.082 -0.0064  0.0609  0.1353
62353W        W 5266  17.338  21.327  22.592 -0.1145  0.1847 -0.2202
62354W        W 5267   9.765  26.324  23.786 -0.1667  0.3957  0.0524
62355W        W 5268   2.200  28.687  16.327  0.1220  0.0559  0.0774
62356W        W 5269  26.783  18.827  16.926 -0.0550 -0.3254 -0.2774
62357W        W 5270  14.757  23.866  16.836 -0.0539  0.0871  0.2008
62358W        W 5271   3.762  15.526  20.076  0.0921  0.1438 -0.2344
62359W        W 5272  18.124  32.921  23.783  0.0788  0.1025 -0.0148
62360W        W 5273  11.803  24.841   3.621 -0.1343  0.1921  0.1213
62361W        W 5274  20.107  30.704   0.510 -0.3316 -0.2173  0.1493
62362W        W 5275   8.854  17.440  19.276  0.0877  0.0508 -0.5074
62363W        W 5276   9.078  18.545  22.756  0.3347 -0.0939 -0.1653
62364W        W 5277  12.996  24.762  20.536 -0.1760 -0.2353 -0.0179
62365W        W 5278  13.023  22.971  21.611 -0.4308  0.1801 -0.1424
62366W        W 5279  13.918  22.601  14.578  0.4196 -0.0210  0.1165
62367W        W 5280  13.489  15.560  18.004 -0.0268  0.0936 -0.0048
62368W        W 5281   6.629  20.845  24.056  0.0962 -0.0819  0.0268
62369W        W 5282  19.276  28.290  15.674  0.1615 -0.0542 -0.1768
62370W        W 5283  24.277  26.394  26.539 -0.2390 -0.1108  0.0549
62371W        W 5284   9.815  25.647  20.081  0.1626  0.0194  0.1602
62372W        W 5285   9.265  12.235  15.993  0.0680  0.0822  0.0038
62373W        W 5286   8.516  18.239  21.317  0.1738  0.0906 -0.1768
62374W        W 5287  17.763  12.794  18.018 -0.0602  0.0739 -0.3182
62375W        W 5288  16.949  30.100  28.942  0.2358  0.2614 -0.0552
62376W        W 5289  19.119  24.573  14.562 -0.0806  0.0012 -0.3370
62377W        W 5290   0.306  26.257  15.045  0.4495 -0.2913  0.1555
62378W        W 5291  17.671  20.019  13.105  0.2060  0.0755 -0.1170
62379W        W 5292   9.495   8.059  27.174  0.0496  0.0221  0.0396
62380W        W 5293  11.857  22.834  24.526  0.1418 -0.1608  0.1630
62381W        W 5294  18.932  22.069  19.631  0.3683 -0.2171  0.0005
62382W        W 5295   5.027   2.101  20.871  0.1880  0.1362 -0.0001
62383W        W 5296   8.805  18.774  15.456 -0.0018 -0.0801  0.0042
62384W        W 5297   6.096  22.968  16.306 -0.3676 -0.2101  0.2396
62385W        W 5298  22.331  17.738  16.203 -0.2345  0.0761 -0.0443
62386W        W 5299   3.893  25.427  25.966  0.0354  0.0796 -0.1221
62387W        W 5300   5.268  22.887  23.997 -0.0657  0.2930 -0.2764
62388W        W 5301   7.485  23.683  25.619  0.2989  0.2103 -0.0834
62389W        W 5302  19.869  11.004  17.016  0.0745  0.1934  0.0569
62390W        W 5303  24.672  14.510  18.220  0.0334 -0.0453 -0.0544
62391W        W 5304   9.076  22.571  20.040 -0.1032 -0.1168  0.0162
62392W        W 5305  13.505  16.245  16.535  0.0962 -0.1430  0.3089
62393W        W 5306  30.842  21.522  23.032 -0.2370 -0.0989 -0.0396
62394W        W 5307  13.269  20.474  16.361  0.2150 -0.0931 -0.1572
62395W        W 5308   7.893  28.146  17.122 -0.0440  0.1012  0.0091
62396W        W 5309   8.253  15.199  24.182 -0.0907 -0.0038  0.2967
62397W        W 5310  13.493  28.125  22.444 -0.3633 -0.0198  0.2028
62398W        W 5311  23.849  17.282  16.450  0.1614 -0.1088 -0.3621
62399W        W 5312   9.396  20.624  23.196  0.4285  0.0239 -0.1901
62400W        W 5313  25.553  28.003  21.045  0.0382  0.0400 -0.0018
62401W        W 5314  13.333  27.152  20.370 -0.1262  0.1472  0.3730
62402W        W 5315  14.288  25.408  21.785 -0.3516  0.0646  0.3361
62403W        W 5316   7.460  27.959  19.884 -0.2267 -0.1110 -0.2459
62404W        W 5317  25.611  19.248  17.192 -0.2293  0.1175  0.1735
62405W        W 5318  11.279  15.312  19.889 -0.3388  0.0088  0.0868
62406W        W 5319   5.753  23.226  13.842 -0.2321 -0.1431  0.3200
62407W        W 5320  11.127  23.425  23.494  0.0824  0.2812 -0.0999
62408W        W 5321  15.897  29.413  19.023  0.0165 -0.1191 -0.4433
62409W        W 5322  12.307  21.297  20.514  0.0212  0.5781 -0.0249
62410W        W 5323  15.655  25.419  23.347  0.4174  0.0069 -0.2128
62411W        W 5324  24.179  32.049  28.898 -0.2092  0.1142 -0.0377
62412W        W 5325  10.393   4.524  23.992  0.1761 -0.2674 -0.0019
62413W        W 5326  19.002  17.446  13.369  0.0974  0.1121  0.5024
62414W        W 5327   6.901  21.704  22.920 -0.2200 -0.1073  0.1174
62415W        W 5328  14.779  19.635  12.581  0.3130  0.0530  0.0658
62416W        W 5329  21.411  24.606  22.551  0.0510 -0.0696 -0.1075
62417W        W 5330  12.881  31.908  16.554 -0.2710 -0.0192  0.0347
62418W        W 5331  14.813  23.652  24.443  0.1436 -0.0528  0.2210
62419W        W 5332  13.997  28.998   3.347 -0.0690 -0.0716 -0.0292
62420W        W 5333  14.792  26.755  16.534 -0.0477 -0.0938 -0.1537
62421W        W 5334  13.388  28.880   4.526  0.0826 -0.1767 -0.0073
62422W        W 5335  17.898  16.596  14.373  0.2064  0.2686 -0.1068
62423W        W 5336  16.619  23.369  20.146  0.0936  0.3259 -0.4509
62424W        W 5337   5.186  23.757   5.960 -0.2203 -0.1695 -0.0259
62425W        W 5338  15.132  27.182  16.473 -0.1194 -0.4122  0.2558
62426W        W 5339  12.792  19.374  15.292  0.3426  0.0934 -0.0974
62427W        W 5340  17.551  20.959   0.292  0.3472  0.3716 -0.0325
62428W        W 5341  22.702   8.948  21.772  0.2651 -0.1799 -0.2871
62429W        W 5342  16.554  19.677  14.584  0.1106  0.1732 -0.2783
62430W        W 5343  12.681  19.423  14.023  0.0238  0.1021 -0.0086
62431W        W 5344  13.441  15.572  19.371  0.0043  0.0679  0.1406
62432W        W 5345   5.552  24.546  20.031 -0.0765 -0.1455  0.2022
62433W        W 5346  16.323  21.312  14.763  0.0337 -0.1465 -0.2006
62434W        W 5347   8.398  17.386  24.226  0.1159  0.1416 -0.2616
62435W        W 5348   7.381  23.254   0.510  0.3529 -0.0960 -0.0127
62436W        W 5349  14.409  21.617  20.842 -0.1159  0.0193 -0.0195
62437W        W 5350  10.042  24.507   2.356  0.0733 -0.0342 -0.0011
62438W        W 5351   8.549   1.370   0.217  0.1232 -0.0754 -0.1830
62439W        W 5352  12.839  20.183  26.299 -0.1148  0.0463 -0.1423
62440W        W 5353  23.950  22.321  16.849  0.1835  0.1136  0.1721
62441W        W 5354  27.951  27.007  14.353  0.1960  0.0828 -0.0041
62442W        W 5355  20.239  30.015  14.382 -0.0670 -0.4047 -0.3658
62443W        W 5356  22.179  25.079  25.626  0.2276 -0.0861  0.0600
62444W        W 5357   9.801  30.153  19.513  0.3272 -0.1388 -0.0460
62445W        W 5358  13.303  30.915  25.986  0.0280  0.1016  0.0140
62446W        W 5359  14.906  20.009   6.214  0.0171 -0.0234  0.0379
62447W        W 5360   9.764  25.520  25.937 -0.0098  0.0418 -0.1888
62448W        W 5361  18.119  25.975  22.508 -0.0508  0.1201  0.4508
62449W        W 5362   2.012  32.020  24.649  0.0580 -0.0312 -0.0725
62450W        W 5363  14.807  12.684  18.289  0.1039  0.1502 -0.3042
62451W        W 5364  17.325  23.731  16.663 -0.2815 -0.1812 -0.1224
62452W        W 5365  12.731  14.553  15.852  0.1970 -0.1470 -0.2684
62453W        W 5366  15.570  30.350  16.349  0.1055  0.0680  0.0843
62454W        W 5367   8.385  27.084   2.574 -0.3129 -0.2372  0.1628
62455W        W 5368  14.410  20.984  14.821 -0.2315  0.0075  0.2711
62456W        W 5369  14.814  28.950   0.131 -0.1066  0.2013  0.1188
62457W        W 5370  16.199  22.474  16.988 -0.1447 -0.1400 -0.2063
62458W        W 5371  24.126  28.511  21.108  0.0711  0.4238  0.1699
62459W        W 5372  14.053  26.884  19.558  0.0072  0.1201  0.4684
62460W        W 5373  28.540  18.422  19.109 -0.1159  0.2356 -0.1550
62461W        W 5374  16.719  16.143  22.214  0.0951 -0.4607  0.2946
62462W        W 5375   6.193  20.332   1.149 -0.2388 -0.1365  0.2375
62463W        W 5376  12.287  18.635  22.065  0.2338  0.1291  0.0900
62464W        W 5377  23.083  21.922  16.808  0.1534  0.0071  0.0017
62465W        W 5378  12.026  26.227   1.535  0.1011  0.2019 -0.0032
62466W        W 5379   0.046  32.850   3.657 -0.0494  0.1397 -0.1584
62467W        W 5380  19.037  23.515  27.390  0.0275  0.3679  0.0377
62468W        W 5381  18.497  26.158  13.783  0.2253 -0.0051 -0.0993
62469W        W 5382  12.774  22.308  13.515 -0.0675  0.0463  0.1205
62470W        W 5383  19.334  23.571  28.943 -0.2784  0.1532 -0.1351
62471W        W 5384   4.756   9.535  22.176 -0.0293  0.0492 -0.1481
62472W        W 5385   9.124  23.626  16.901  0.2072  0.0791 -0.1677
62473W        W 5386  22.421  31.896   2.295 -0.2223  0.0646  0.2320
62474W        W 5387  10.027   3.099  22.777  0.0789  0.3091 -0.1271
62475W        W 5388  17.392  26.948  15.259  0.1575  0.0357 -0.1303
62476W        W 5389  13.104  23.012  23.805 -0.0883 -0.1728  0.1994
62477W        W 5390   3.652  17.706   0.890  0.2902  0.0083 -0.1116
62478W        W 5391  22.551  14.409  13.551  0.0268  0.1908 -0.1294
62479W        W 5392  11.461  19.656  14.443 -0.2502  0.1511  0.3209
62480W        W 5393  11.474  24.553  23.319  0.1872  0.0923  0.2242
62481W        W 5394   8.148  31.852  16.986  0.3543  0.0048 -0.0391
62482W        W 5395   7.604  24.365  22.972 -0.1007 -0.4018  0.0981
62483W        W 5396  14.039  17.487  15.875 -0.4347  0.0751 -0.0039
62484W        W 5397  11.612  12.843  13.821 -0.1340  0.5163 -0.0349
62485W        W 5398  21.309   3.494  26.574 -0.1387 -0.1730  0.1069
62486W        W 5399  23.526  24.253  21.560 -0.1847 -0.0670 -0.0363
62487W        W 5400  24.357  24.473  17.811  0.2148  0.0064  0.2534
62488W        W 5401  11.552  24.671   6.371  0.2277 -0.1005 -0.2203
62489W        W 5402  32.484  20.364  15.545 -0.2179 -0.0312  0.2332
62490W        W 5403   6.781  19.674   4.539  0.2866  0.2847  0.0461
62491W        W 5404  18.736  27.550  20.826 -0.1584  0.2829 -0.2043
62492W        W 5405  16.218  23.727  24.044 -0.1905 -0.1189 -0.0196
62493W        W 5406  31.668  21.673  17.150 -0.2448 -0.0115 -0.0324
62494W        W 5407   9.136  25.260  22.491 -0.2911  0.1225 -0.1402
62495W        W 5408  13.036  28.354   1.295  0.1746 -0.3282 -0.1351
62496W        W 5409  19.370  24.230  19.826 -0.2451 -0.2217 -0.0470
62497W        W 5410   9.699  27.611   1.934 -0.1354 -0.0501  0.0121
62498W        W 5411   7.953  21.081  17.993  0.1030 -0.1446  0.1591
62499W        W 5412  28.004  21.231  23.428  0.2154 -0.0033 -0.3324
62500W        W 5413   8.926   7.482  22.815  0.1168  0.1779 -0.1223
62501W        W 5414  10.383  17.788  16.286 -0.0812 -0.1780 -0.0769
62502W        W 5415  13.861  17.999  26.473  0.0504 -0.1527 -0.1677
62503W        W 5416  13.762  22.181   2.616 -0.2578 -0.1488  0.3340
62504W        W 5417  20.081  23.059  14.845 -0.0220 -0.1360 -0.3511
62505W        W 5418  25.328  22.226  13.854  0.3311 -0.0789 -0.1948
62506W        W 5419  17.589  24.832  21.534 -0.2053 -0.1414 -0.3340
62507W        W 5420   7.373  28.696  26.353 -0.1329  0.0085  0.0802
62508W        W 5421   7.996  20.970  15.282 -0.3452 -0.0396  0.0680
62509W        W 5422  13.035  17.613  22.367 -0.0879 -0.0583 -0.1297
62510W        W 5423  17.268  20.357  14.551  0.1155 -0.1656 -0.0598
62511W        W 5424   5.143  21.033  15.616 -0.0322 -0.0496 -0.2121
62512W        W 5425  18.888  28.668  18.208 -0.0678 -0.1020 -0.0127
62513W        W 5426  21.486  24.400  27.106  0.1246 -0.0373 -0.0362
62514W        W 5427  21.882  16.363   3.790 -0.1236  0.2284  0.0584
62515W        W 5428  26.311   1.953  19.199  0.1988  0.1330 -0.0937
62516W        W 5429   5.784  31.612  26.784 -0.0152 -0.0184 -0.0008
62517W        W 5430  18.341  11.941  18.727 -0.1008  0.0228 -0.1591
62518W        W 5431  10.984  15.491  20.859 -0.3169  0.0413 -0.0625
62519W        W 5432   7.240  23.349  29.265 -0.2391  0.1833 -0.0004
62520W        W 5433   9.238  24.071  18.653  0.1074  0.0602  0.1373
62521W        W 5434  17.198  23.699   0.414  0.1456 -0.3352 -0.3511
62522W        W 5435   9.812  20.641  21.395 -0.4319  0.1536  0.1714
62523W        W 5436   3.307  22.906  23.998  0.0890 -0.1019  0.0461
62524W        W 5437   3.702   2.919  23.299 -0.2509  0.1162  0.0958
62525W        W 5438  14.006  26.215  25.838 -0.3161  0.0961 -0.3175
62526W        W 5439   7.198  33.845  22.178  0.0610 -0.0824  0.0583
62527W        W 5440   5.308  16.970  19.185  0.0112  0.0798  0.2676
62528W        W 5441  27.634  22.994  21.510  0.2069  0.1365  0.0042
62529W        W 5442  27.181  32.944  23.026 -0.0108 -0.0074 -0.0977
62530W        W 5443  24.266  21.946  27.991 -0.5166 -0.1142  0.1762
62531W        W 5444  14.014  33.387  16.698 -0.4679  0.0302 -0.0851
62532W        W 5445   8.337  21.182  16.195  0.1231 -0.3112  0.0106
62533W        W 5446   8.634  16.502   2.298  0.1980  0.0445  0.1280
62534W        W 5447  13.674  15.679  25.439 -0.3620 -0.0368 -0.2637
62535W        W 5448  14.423  13.598  18.854 -0.2956 -0.0112  0.0564
62536W        W 5449  34.403  12.499  20.979  0.0536 -0.1461 -0.1962
62537W        W 5450  24.289  28.912  25.588  0.0334 -0.0966 -0.4302
62538W        W 5451  19.739   1.495   6.699  0.2141  0.1278 -0.1849
62539W        W 5452  21.458  14.210  22.604 -0.0828  0.0398 -0.0412
62540W        W 5453  11.431  27.390  16.287  0.3374  0.1420 -0.2516
62541W        W 5454  19.240  19.849  14.276  0.1178 -0.2062 -0.1949
62542W        W 5455  15.652  26.790  27.769 -0.1023  0.3351 -0.1935
62543W        W 5456  16.924  22.181  25.576 -0.0756 -0.0755  0.0574
62544W        W 5457  12.917   3.649  18.671  0.1109 -0.0348  0.0041
62545W        W 5458   6.337  15.634  28.831 -0.1055  0.3343  0.0081
62546W        W 5459  17.663  17.649  14.419 -0.0006  0.1231 -0.0429
62547W        W 5460  10.018  22.181  17.601  0.2459  0.3155 -0.2292
62548W        W 5461  13.125  27.906   1.828  0.0275 -0.2152 -0.1189
62549W        W 5462  17.820  19.051  24.364 -0.0414 -0.0459  0.3376
62550W        W 5463   6.151  31.624  21.089 -0.1297  0.0750  0.1229
62551W        W 5464  10.960  20.669  26.748  0.0701 -0.3922  0.0265
62552W        W 5465   9.891  19.682  20.764  0.0897  0.1120  0.1125
62553W        W 5466  16.907  13.724  16.443 -0.1923  0.1948  0.2872
62554W        W 5467   7.722  23.590  15.317  0.2441  0.1988  0.0685
62555W        W 5468  21.930  12.521  13.377  0.0571 -0.6109 -0.0006
62556W        W 5469   2.670  11.195  24.960  0.1417 -0.0969 -0.0758
62557W        W 5470  16.876  23.418  24.844 -0.0004 -0.1540  0.1350
62558W        W 5471  16.794  30.826  24.318  0.0537  0.2151 -0.2109
62559W        W 5472  18.511  24.537  14.216  0.1756  0.2776 -0.1442
62560W        W 5473  17.135  23.301  21.004 -0.5055 -0.1264  0.0641
62561W        W 5474  10.408  12.741  23.239  0.0739  0.2317 -0.1621
62562W        W 5475  10.056  14.703  25.023 -0.1617 -0.0842  0.3277
62563W        W 5476  18.621  25.660  20.585  0.1646  0.1281  0.0827
62564W        W 5477   9.843  29.784   7.125 -0.0366  0.1083  0.1165
62565W        W 5478  15.634  27.874  23.483  0.1318  0.0100  0.4380
62566W        W 5479   0.760  19.681  21.524  0.1079  0.0008 -0.1032
62567W        W 5480   6.550  10.927  19.197 -0.0312 -0.0878  0.2083
62568W        W 5481  11.798  19.604  19.757  0.0163  0.0437 -0.0211
62569W        W 5482  22.868  19.936  20.152 -0.1804 -0.0964 -0.2216
62570W        W 5483  11.593  14.711  14.161  0.5172  0.1238  0.0835
62571W        W 5484  14.323  21.117  24.970  0.0644 -0.1209  0.2455
62572W        W 5485  11.609  15.321  28.667 -0.3097  0.0893  0.1566
62573W        W 5486  20.858  20.476  18.360 -0.1547  0.1473  0.0084
62574W        W 5487  22.369  33.462  16.011 -0.0931  0.2413  0.1064
62575W        W 5488  18.962  18.364  23.867  0.0672 -0.2480 -0.2223
62576W        W 5489  19.456  21.723   5.457  0.0643  0.0873 -0.1362
62577W        W 5490  12.586  30.065  17.262  0.2936 -0.1137 -0.0556
62578W        W 5491  17.931  32.898  22.818 -0.0226 -0.1084  0.1406
62579W        W 5492   4.634  16.088  28.578 -0.1470  0.3340 -0.2036
62580W        W 5493   5.019  20.933  27.916 -0.0562  0.1979  0.0116
62581W        W 5494  18.881  17.651  29.482  0.0831 -0.2026 -0.2567
62582W        W 5495   3.854   1.015  21.699 -0.0865  0.0555  0.1554
62583W        W 5496  20.788   1.787  27.884 -0.1065  0.0966  0.2450
62584W        W 5497  16.945  23.775  17.163  0.0115  0.0364 -0.0164
62585W        W 5498  10.650  20.836   3.406  0.1491  0.2761  0.1515
62586W        W 5499  13.338  14.208  17.011 -0.1337  0.1784 -0.1187
62587W        W 5500  14.846  27.674  29.384  0.0477  0.2120 -0.1538
62588W        W 5501  16.590  23.651  17.999  0.1714  0.2020  0.1011
62589W        W 5502  10.364  25.843  17.041 -0.0590 -0.3819  0.0469
62590W        W 5503  19.494  19.344  14.972  0.2354  0.0101  0.1536
62591W        W 5504  10.471  11.599  16.537 -0.0233 -0.1001  0.0626
62592W        W 5505  12.205  23.288  20.882  0.3267 -0.0864 -0.0872
62593W        W 5506  14.917  27.784   6.040  0.1022  0.0377  0.0740
62594W        W 5507   3.835  21.564  15.642  0.2729 -0.0476 -0.1174
62595W        W 5508  11.815  18.751  16.007 -0.1580  0.2917 -0.1597
62596W        W 5509   1.609  26.986  23.671 -0.0683  0.1441  0.0408
62597W        W 5510  10.261  32.382   1.374  0.0043  0.4019  0.1593
62598W        W 5511  14.386  16.883  17.357  0.2348 -0.2023  0.0940
62599W        W 5512  12.370  10.405  21.382  0.0263  0.2260 -0.3315
62600W        W 5513  12.059  15.900  17.522 -0.0359 -0.0091  0.0587
62601W        W 5514  14.150  25.335  14.898 -0.1754  0.0197 -0.0452
62602W        W 5515  10.305  22.960  21.148 -0.1638  0.1867 -0.2847
62603W        W 5516   3.105  11.933   0.174  0.2563 -0.1226  0.2625
62604W        W 5517  17.263  25.100  18.394 -0.0840  0.2273 -0.0911
62605W        W 5518  17.765  26.653  27.000  0.5815  0.0481  0.1049
62606W        W 5519  17.126  14.287  25.068  0.2510 -0.1124  0.0318
62607W        W 5520  21.434  17.033  14.078  0.1904 -0.1180  0.0345
62608W        W 5521   4.453  12.927  26.000  0.2525 -0.2565 -0.4417
62609W        W 5522   9.740   8.203  23.918  0.0730 -0.1715 -0.2915
62610W        W 5523  18.600   8.318  16.157 -0.0650 -0.1199  0.1605
62611W        W 5524  21.428  25.534   3.219  0.2306  0.1304 -0.2035
62612W        W 5525   9.592  18.680   4.419 -0.0892 -0.0439 -0.1922
62613W        W 5526  10.036  21.160  26.991  0.0189  0.1225 -0.1962
62614W        W 5527  18.935   3.326   1.601  0.3554 -0.1856 -0.0311
62615W        W 5528  30.541  14.197  21.269 -0.1419 -0.0816 -0.1919
62616W        W 5529  19.110   9.666  20.550  0.3137  0.2285  0.0911
62617W        W 5530   4.228  14.831  29.521 -0.0750  0.3134  0.0631
62618W        W 5531  23.794  23.879  15.729  0.3849 -0.2223  0.2056
62619W        W 5532  15.043  18.034  21.544  0.6323  0.4512 -0.0742
62620W        W 5533  29.442  24.378  27.412  0.0440  0.0143  0.2775
62621W        W 5534  19.477  25.144  26.779  0.1675  0.3201 -0.0132
62622W        W 5535   2.492  15.225  19.924 -0.0010 -0.0947  0.1369
62623W        W 5536   3.216  32.701  16.046 -0.3247  0.2916 -0.1714
62624W        W 5537   1.542  30.535  16.390  0.1769 -0.0608  0.2622
62625W        W 5538  18.337  21.888  23.205  0.1723 -0.2589  0.1435
62626W        W 5539   7.671   3.594  19.832  0.1294 -0.0270 -0.1189
62627W        W 5540  12.875  25.596  14.064  0.1808 -0.1123 -0.1575
62628W        W 5541  20.748  25.748   1.079  0.0864 -0.0063 -0.2552
62629W        W 5542  15.627  25.892  20.005  0.2523  0.0652 -0.1864
62630W        W 5543   8.544   0.457  19.445 -0.0374 -0.2366  0.0269
62631W        W 5544   7.597   5.745  21.315  0.1431 -0.0875 -0.0735
62632W        W 5545   5.150  32.079  18.472  0.1070  0.1398  0.0750
62633W        W 5546   9.820  18.539  19.976 -0.0554  0.1136 -0.0529
62634W        W 5547  12.393  20.033   5.235 -0.0726 -0.0090 -0.2604
62635W        W 5548  10.963  12.482  28.060  0.3403 -0.0194  0.3168
62636W        W 5549  14.951  26.803  19.759 -0.0278 -0.1974 -0.0781
62637W        W 5550  13.915  22.904   5.105 -0.0708 -0.3979  0.0211
62638W        W 5551  29.421  16.288  21.982  0.1367 -0.1940  0.0623
62639W        W 5552  14.089  30.952   3.105 -0.0515 -0.0531  0.0461
62640W        W 5553  17.756  22.749  20.695  0.0828 -0.1249 -0.0534
62641W        W 5554   4.055  19.154   8.010 -0.0707  0.1464  0.0171
62642W        W 5555  16.201  23.300  24.324  0.0645 -0.0870  0.1451
62643W        W 5556  23.511  22.799  18.799  0.1513 -0.0060 -0.2023
62644W        W 5557  20.182   8.264  21.666 -0.1272  0.2258 -0.1626
62645W        W 5558  12.835  27.953  26.145 -0.0385  0.2061  0.0015
62646W        W 5559  18.044   8.705  13.814  0.1330 -0.0868  0.0767
62647W        W 5560   8.202  21.495  15.078 -0.3127  0.0095 -0.0583
62648W        W 5561  18.231  24.561  17.244  0.1731 -0.3543  0.1765
62649W        W 5562  13.008  28.343  25.775 -0.0762  0.0861  0.0287
62650W        W 5563  15.034  15.268  22.191  0.0637  0.0934 -0.0720
62651W        W 5564   9.268  20.752  16.122  0.0193 -0.1133  0.0178
62652W        W 5565  30.374  14.006  20.865  0.2238 -0.0011  0.1383
62653W        W 5566   3.731  22.060  22.506 -0.0541 -0.3650 -0.1732
62654W        W 5567   6.589  23.909  13.702  0.2803  0.0621 -0.0107
62655W        W 5568  13.490  29.105  26.631 -0.1283  0.2089 -0.2077
62656W        W 5569  22.365  26.880  24.021  0.2335  0.2325  0.1692
62657W        W 5570  12.670  20.619  28.532 -0.3874 -0.0950  0.0222
62658W        W 5571  14.586  15.633   0.885 -0.0353 -0.3178  0.1648
62659W        W 5572   9.672  20.813  23.553 -0.0746  0.1258  0.1090
62660W        W 5573  16.351  23.888  27.142 -0.1989 -0.2786  0.2604
62661W        W 5574   4.956  29.055  22.153 -0.1542  0.4671 -0.0478
62662W        W 5575  11.051  14.045  24.487 -0.0361  0.0780 -0.2177
62663W        W 5576  10.221  18.340   4.688 -0.0967  0.0408  0.1492
62664W        W 5577   9.600  27.183  23.487  0.0367  0.0075  0.3614
62665W        W 5578  11.650  24.131   1.617 -0.2521 -0.0269  0.0409
62666W        W 5579  11.620   3.224   1.784  0.3688  0.1662 -0.2801
62667W        W 5580   5.406  19.493  16.082 -0.0573 -0.0026 -0.0549
62668W        W 5581   6.157  20.703  26.698  0.1521  0.2115 -0.2147
62669W        W 5582  13.045  25.826  16.271 -0.1082 -0.0173 -0.3314
62670W        W 5583  11.757  30.975  22.452 -0.1339 -0.0790  0.1030
62671W        W 5584  11.380  23.945  16.839  0.0863  0.0639 -0.4616
62672W        W 5585   9.876  27.413   3.912 -0.0193  0.0608  0.1474
62673W        W 5586   7.650  16.878  17.830 -0.1063 -0.0448  0.0862
62674W        W 5587  16.197  21.189  18.699  0.1556  0.2413 -0.0310
62675W        W 5588   7.893  25.729  21.161 -0.2207 -0.1441  0.0085
62676W        W 5589  30.412  17.698  19.142  0.0945 -0.0796  0.0967
62677W        W 5590  20.839  30.236  21.425  0.3017 -0.2776 -0.1295
62678W        W 5591  12.701  18.940  26.206  0.0770  0.0092  0.4026
62679W        W 5592   9.843  20.498  14.088  0.3625  0.1665 -0.0394
62680W        W 5593   9.674  16.009  25.829 -0.2922 -0.0589 -0.0518
62681W        W 5594  34.329  23.346   5.704  0.1169  0.0100 -0.0041
62682W        W 5595  33.560  29.759   3.627  0.2135 -0.1149 -0.1697
62683W        W 5596  14.733  29.189  20.730 -0.1999  0.0278 -0.0433
62684W        W 5597  14.486  21.447  18.949 -0.1268  0.0094  0.1165
62685W        W 5598  12.480  22.664  13.680 -0.0777 -0.3533 -0.3166
62686W        W 5599   9.977  27.888   4.122 -0.0499 -0.1011  0.1231
62687W        W 5600  12.829  26.295  26.269  0.0107  0.3344  0.1824
62688W        W 5601  10.282  27.869  20.464 -0.0254  0.1944 -0.3981
62689W        W 5602   8.736  17.838  22.421  0.1637  0.1118  0.3740
62690W        W 5603  10.327  12.605  14.795 -0.1832 -0.2575 -0.3135
62691W        W 5604  21.845  19.375  21.319  0.0739 -0.1266 -0.0078
62692W        W 5605  16.978  21.744  20.916  0.0965  0.0361  0.0269
62693W        W 5606  20.188  19.809  13.651  0.0353 -0.1015 -0.0468
62694W        W 5607  14.220  27.404  26.390  0.1705 -0.1015 -0.0045
62695W        W 5608  21.947  21.278  24.952  0.3138  0.1039  0.0864
62696W        W 5609  13.083  23.603  26.079 -0.0815  0.1160 -0.4168
62697W        W 5610  12.647   9.909  23.282  0.0713  0.0990  0.0472
62698W        W 5611  20.614  30.629  13.879 -0.3333  0.0307  0.0967
62699W        W 5612  16.029  15.728  24.856 -0.2285 -0.2278  0.2437
62700W        W 5613  34.453  33.184  17.419  0.2389  0.0260 -0.3303
62701W        W 5614   6.568  25.715  26.005 -0.1108  0.0736  0.1672
62702W        W 5615   6.269  21.549  16.901  0.1097  0.1101  0.0817
62703W        W 5616  17.007  23.465  13.479  0.0793  0.0006 -0.1688
62704W        W 5617  10.308  23.570  14.891 -0.1168 -0.1768  0.5123
62705W        W 5618  19.273  31.559  20.712 -0.2282 -0.0112 -0.2879
62706W        W 5619  11.011  31.640  22.835  0.0626 -0.0248 -0.2492
62707W        W 5620  19.220  22.455  12.638  0.0031  0.2307 -0.0588
62708W        W 5621   9.614  29.812  21.281  0.1313  0.2189 -0.0710
62709W        W 5622  11.898  20.820  13.363 -0.1456 -0.2838 -0.0285
62710W        W 5623   2.592  27.045  23.742 -0.0247  0.0289 -0.1964
62711W        W 5624  24.537  32.826  17.579  0.1441 -0.1893 -0.0658
62712W        W 5625  15.495  30.347  18.623 -0.1897 -0.0056 -0.4068
62713W        W 5626  21.983  25.192  27.878  0.1241 -0.0452 -0.0006
62714W        W 5627  23.242  30.448  15.736 -0.0625  0.1250 -0.2739
62715W        W 5628  10.928  16.057  19.570  0.2844  0.2106  0.0297
62716W        W 5629   9.942  31.852  20.310 -0.1399  0.1292 -0.3497
62717W        W 5630  19.511  21.382  15.071 -0.2210  0.4782  0.0790
62718W        W 5631  19.639  10.386  14.371  0.1350  0.0459 -0.6227
62719W        W 5632  20.522  21.368  14.214  0.1399 -0.0495 -0.1654
62720W        W 5633  14.614  23.154  20.507 -0.2835 -0.2080 -0.2638
62721W        W 5634  31.367  25.269  17.101 -0.0019 -0.3656  0.0914
62722W        W 5635  15.614  28.973  24.478 -0.0863  0.0652 -0.0440
62723W        W 5636  14.312  28.547  24.288  0.2055  0.0673 -0.1680
62724W        W 5637  26.495  25.828  18.168 -0.1976  0.2021 -0.2421
62725W        W 5638  15.373  21.366  13.130 -0.0747 -0.3113 -0.1569
62726W        W 5639  12.971  24.730  26.396  0.3332 -0.3675  0.0690
62727W        W 5640  12.889  21.989  24.430  0.1297  0.0105 -0.3026
62728W        W 5641  14.218  25.611  20.357  0.0918  0.0506  0.0524
62729W        W 5642  10.405  22.609  28.037  0.2675 -0.1125 -0.0853
62730W        W 5643   2.650  18.238  20.455  0.1096  0.1566 -0.0924
62731W        W 5644  13.370  21.374  22.596  0.1119 -0.0028 -0.0720
62732W        W 5645   6.838  26.909   0.956 -0.3137  0.3448 -0.1186
62733W        W 5646  20.360   9.397  14.145 -0.2794  0.0258  0.3221
62734W        W 5647   4.123  22.521  26.572  0.0372  0.3081 -0.0498
62735W        W 5648  15.747  25.635  22.773 -0.3032 -0.1931  0.3340
62736W        W 5649  13.836  30.186  18.678  0.1770  0.0518 -0.1456
62737W        W 5650   1.863  17.510  23.884 -0.0365 -0.0697  0.1687
62738W        W 5651  18.221  23.444  14.302 -0.0097  0.2297 -0.4261
62739W        W 5652  18.452   4.753   1.072  0.3330 -0.3581 -0.0866
62740W        W 5653   5.921  24.962  24.815  0.2041 -0.2590 -0.0215
62741W        W 5654  17.314  23.033  18.811  0.3033  0.0289  0.2102
62742W        W 5655  10.358  21.210  22.305 -0.2941  0.3838 -0.1417
62743W        W 5656  15.060  30.699  17.585 -0.1732 -0.1531 -0.3998
62744W        W 5657   8.206  20.255  19.983  0.0276 -0.0883  0.1368
62745W        W 5658  11.510  16.566   0.411  0.0220 -0.1156 -0.0789
62746W        W 5659  24.057  30.932  21.260 -0.0267 -0.1400 -0.2144
62747W        W 5660  10.591  23.007   1.596  0.1467 -0.0894  0.0737
62748W        W 5661  21.172  12.040  22.854 -0.0789  0.1713 -0.1868
62749W        W 5662  13.500  24.978   3.412  0.2712  0.1559 -0.1043
62750W        W 5663  13.043  27.844  18.697 -0.0433 -0.1227 -0.0329
62751W        W 5664  10.105  19.117  22.962  0.2754 -0.3397 -0.2606
62752W        W 5665   8.235  26.914  24.396 -0.0121 -0.5043  0.1318
62753W        W 5666   7.093  22.390  24.205 -0.2779 -0.1226 -0.2692
62754W        W 5667  16.624  22.008   0.637 -0.0540 -0.0181  0.0871
62755W        W 5668  12.464  21.024  26.217 -0.1451 -0.1943  0.0957
62756W        W 5669  16.392  20.792  28.313 -0.3086  0.2079  0.1713
62757W        W 5670   4.789  17.347  20.194 -0.0470 -0.0463  0.0003
62758W        W 5671   1.394  26.879  24.096  0.0885  0.0602  0.3315
62759W        W 5672   9.326  28.180  20.790 -0.0532  0.0710  0.0378
62760W        W 5673  22.171  27.677  15.595  0.2343 -0.0564 -0.1062
62761W        W 5674  14.415  20.562   2.718 -0.0165 -0.0425 -0.1046
62762W        W 5675  13.384  10.495   0.218 -0.2594 -0.0534  0.4553
62763W        W 5676  34.443  19.668  21.010 -0.3361  0.3909  0.1263
62764W        W 5677  21.490  28.068  21.050  0.0872 -0.1249 -0.2089
62765W        W 5678  10.688  26.542  21.237  0.2156 -0.1289  0.0002
62766W        W 5679  14.536  23.478  15.390  0.1305  0.0503  0.0578
62767W        W 5680   9.505  15.498  28.396  0.2176  0.1724  0.0524
62768W        W 5681   9.660  24.242  27.717  0.0847 -0.1588  0.0332
62769W        W 5682   4.686  27.332  20.660 -0.0922 -0.2501 -0.2322
62770W        W 5683  18.994  27.102   7.156 -0.0100 -0.1007  0.0297
62771W        W 5684  18.801  26.216  23.154  0.1341  0.4701 -0.1023
62772W        W 5685  10.032  29.195  22.996 -0.1189 -0.0378  0.0592
62773W        W 5686  13.971  25.136   5.298 -0.0520 -0.1963 -0.0724
62774W        W 5687   8.194  21.749  17.256  0.0262  0.0898  0.2458
62775W        W 5688  13.640  13.197  20.294  0.0940 -0.2636 -0.1525
62776W        W 5689  15.087  24.286  16.288 -0.1652 -0.4684 -0.4460
62777W        W 5690   1.285  16.790  17.179  0.3836 -0.2088 -0.1128
62778W        W 5691  16.096  29.117  15.256 -0.1188 -0.4292  0.2267
62779W        W 5692  13.925  23.989  16.031 -0.0212 -0.0610  0.0110
62780W        W 5693  11.365  32.330  23.654  0.0171  0.2172 -0.2634
62781W        W 5694   5.762  14.939  13.890 -0.1237  0.0640 -0.1109
62782W        W 5695  20.899  34.298   8.281 -0.2204 -0.0598  0.1723
62783W        W 5696   9.626  27.358  19.917 -0.2389 -0.0507 -0.2391
62784W        W 5697   7.319  15.318  16.891  0.2594 -0.2623  0.2489
62785W        W 5698  15.187  27.284  18.880  0.0774 -0.2219 -0.0510
62786W        W 5699   3.471  23.689  20.004 -0.0423 -0.1866  0.0691
62787W        W 5700  16.366  12.701  15.236  0.1618 -0.1085 -0.1608
62788W        W 5701   5.212  23.994  14.053 -0.0674  0.2137 -0.1465
62789W        W 5702   6.396  24.470  21.048 -0.2230 -0.0783  0.1031
62790W        W 5703  15.597  27.101  20.160  0.1320 -0.2567 -0.0481
62791W        W 5704  32.003  25.628  25.721 -0.0438  0.3297 -0.1274
62792W        W 5705   6.268  21.689  18.559 -0.0966  0.1866  0.1637
62793W        W 5706   6.071  16.662  22.711  0.2277  0.3166 -0.2166
62794W        W 5707  12.149  23.283   1.368 -0.2047  0.3283 -0.1573
62795W        W 5708  13.030   0.540  19.976  0.1046  0.1144  0.1311
62796W        W 5709  18.917  18.285  29.040  0.0986  0.0351 -0.1380
62797W        W 5710   1.090  28.795  28.980 -0.0401  0.0104  0.1680
62798W        W 5711  16.373  17.913  17.639  0.0085 -0.4111  0.1628
62799W        W 5712   4.422  18.465  21.349  0.0211 -0.1550  0.1600
62800W        W 5713  14.861  30.051   5.277  0.0283  0.2145  0.1456
62801W        W 5714  16.452  28.078  20.120 -0.0312  0.2665  0.0266
62802W        W 5715  14.432  26.090   2.303 -0.0598 -0.0437  0.3225
62803W        W 5716  16.760  22.375  13.789  0.0706  0.1662 -0.3975
62804W        W 5717  15.511  29.271  21.479  0.0072 -0.0962  0.0987
62805W        W 5718  12.968  27.020  26.199  0.1299 -0.0363 -0.0716
62806W        W 5719  18.347  24.534  15.623  0.0789  0.2285  0.0441
62807W        W 5720   5.778  27.103  28.477 -0.0884 -0.0268  0.3961
62808W        W 5721  13.568  28.714  19.054 -0.1037 -0.0784 -0.0491
62809W        W 5722  11.251  21.000  19.738 -0.1788  0.0346 -0.2350
62810W        W 5723  18.552  23.494  20.641 -0.1901 -0.0148  0.1465
62811W        W 5724   5.827  27.112   0.089 -0.0127 -0.0034 -0.1597
62812W        W 5725  14.187  24.383  15.802  0.0557  0.0382  0.2621
62813W        W 5726  16.304  13.943  26.090 -0.1598  0.1998 -0.0377
62814W        W 5727  17.275  26.000   0.420 -0.0730  0.2214 -0.3098
62815W        W 5728  11.752  25.215  20.642  0.0576  0.2556  0.2152
62816W        W 5729  15.216  18.755   1.187 -0.3803  0.0153  0.1837
62817W        W 5730  10.663  17.142  27.802 -0.0020 -0.1159  0.1406
62818W        W 5731  15.314  18.296   0.362  0.2440 -0.0095 -0.2728
62819W        W 5732  17.727  33.565  21.302  0.1759 -0.0511 -0.5266
62820W        W 5733   1.401  29.754  28.564 -0.0197 -0.0534 -0.1848
62821W        W 5734   8.845  26.048   7.054  0.2647  0.1950 -0.3307
62822W        W 5735  14.246  30.397   7.257  0.1184  0.2544 -0.0313
62823W        W 5736  13.701  28.966  24.646  0.0747 -0.2086 -0.0591
62824W        W 5737   8.501  17.540   6.528  0.0569 -0.3271 -0.0345
62825W        W 5738  16.166  28.588  23.437 -0.2491  0.1859  0.1197
62826W        W 5739  20.890  19.654  14.886 -0.0714  0.3933  0.1716
62827W        W 5740  12.019  25.003  15.892  0.4654 -0.1306 -0.1983
62828W        W 5741   8.432  25.880  19.808  0.1481 -0.0997 -0.0329
62829W        W 5742  14.969  20.237   2.657 -0.0938 -0.0598 -0.0872
62830W        W 5743  13.257  21.982   2.781 -0.1806  0.0057 -0.1711
62831W        W 5744  18.062  31.366   4.425  0.3010 -0.1710  0.0912
62832W        W 5745  11.632  30.382  22.965 -0.1358 -0.1384 -0.1000
62833W        W 5746  12.731  20.716  14.926 -0.1336  0.0183 -0.0243
62834W        W 5747  33.191  23.184  24.027  0.0137  0.1206  0.0591
62835W        W 5748  18.613  27.748  17.533 -0.0589  0.1640  0.0252
62836W        W 5749   9.088  18.601  27.567  0.1347  0.2974  0.1526
62837W        W 5750  10.517  30.603  24.547 -0.0944  0.3652  0.0154
62838W        W 5751   5.786  27.541   2.150  0.1977 -0.4563 -0.0623
62839W        W 5752  23.494  26.019  21.834 -0.0245 -0.0685  0.1392
62840W        W 5753   7.155  24.243  21.710 -0.0857 -0.0928  0.2748
62841W        W 5754   5.870   8.154  21.903 -0.1290  0.4314 -0.0266
62842W        W 5755  22.510  20.112  28.417 -0.2304 -0.1825 -0.0030
62843W        W 5756  24.945  24.275   0.815  0.1255 -0.1186  0.2361
62844W        W 5757  17.921  22.860  27.486 -0.4425 -0.0124  0.3260
62845W        W 5758  12.242  28.361  23.832  0.0911  0.3095 -0.1694
62846W        W 5759  12.236  32.016   3.522  0.1632 -0.1048 -0.1004
62847W        W 5760   7.599  12.541  27.908 -0.2489  0.0272  0.1259
62848W        W 5761  14.854  24.478  24.264 -0.0963  0.0201  0.1435
62849W        W 5762  17.182  21.300  19.913  0.0093 -0.0549  0.0931
62850W        W 5763   9.678  16.225   2.481  0.0082 -0.2072 -0.0662
62851W        W 5764  14.244  30.791   7.558  0.0691 -0.1565  0.2519
62852W        W 5765  13.046  18.414   0.609  0.1104 -0.0784 -0.1849
62853W        W 5766  17.277  14.862  21.814 -0.0880  0.2013  0.0674
62854W        W 5767  17.183  27.111   1.183 -0.3355 -0.1278  0.1088
62855W        W 5768   3.764  11.329  23.697 -0.0903  0.3779  0.0287
62856W        W 5769   7.253  10.284   4.362  0.0314 -0.1283 -0.2300
62857W        W 5770   1.404  22.985  23.135  0.2392  0.2719 -0.2996
62858W        W 5771   5.992  22.455  20.759  0.1956 -0.1721 -0.2095
62859W        W 5772  13.907  26.577  17.451  0.2436 -0.0509 -0.3107
62860W        W 5773  10.756  30.603  18.066  0.0846  0.0103 -0.2903
62861W        W 5774   8.180  30.929   2.484 -0.1411 -0.3393 -0.0207
62862W        W 5775  17.084  17.623   7.533 -0.0878  0.4501  0.1972
62863W        W 5776   8.958  20.016   1.238  0.1351 -0.1506 -0.3122
62864W        W 5777  16.822  27.628  29.042 -0.2201 -0.3252 -0.0106
62865W        W 5778  16.535  19.160  14.712  0.0639  0.0197 -0.3221
62866W        W 5779  14.409  30.285  25.710  0.0534 -0.2820  0.0911
62867W        W 5780  12.027  28.749  24.999  0.2223  0.1368 -0.0614
62868W        W 5781  12.814  22.249  27.093  0.0412  0.1872  0.1129
62869W        W 5782  10.933  21.820  19.660  0.3243 -0.3948 -0.3012
62870W        W 5783  14.498  28.216   9.733  0.5333 -0.0525  0.1900
62871W        W 5784  18.496  21.301  14.895  0.0296  0.1855  0.3266
62872W        W 5785  13.725   8.649   4.723 -0.4028  0.0517 -0.2091
62873W        W 5786  18.474  28.572   6.725  0.1130  0.0344 -0.0842
62874W        W 5787  12.306  25.780  26.162  0.1762  0.4724  0.0292
62875W        W 5788   8.018  19.763  19.968  0.0205 -0.1588  0.2338
62876W        W 5789  27.770  27.589   7.135  0.0693 -0.1771  0.2167
62877W        W 5790   4.976  28.726   2.572 -0.0833 -0.2105 -0.3522
62878W        W 5791  18.914  24.858  25.625 -0.0435  0.3493 -0.0980
62879W        W 5792  17.692  28.506  14.992 -0.3178  0.1010  0.0418
62880W        W 5793  19.888  20.221   1.071 -0.0139 -0.1767  0.0288
62881W        W 5794   7.500  28.119   6.860 -0.4062  0.1033 -0.0872
62882W        W 5795  10.757  18.681   6.337 -0.4855  0.0479  0.1427
62883W        W 5796  21.793  22.991   5.435  0.1199 -0.2018  0.1662
62884W        W 5797  18.924  31.796   8.218 -0.0432  0.0508  0.0644
62885W        W 5798  14.469  30.305  21.332 -0.0489  0.2036 -0.0765
62886W        W 5799  13.267  27.354  25.393  0.0095 -0.0371  0.1713
62887W        W 5800  12.528  10.959  23.732 -0.2075 -0.0093 -0.1539
62888W        W 5801  16.166  30.797  24.005  0.0992 -0.1274  0.2539
62889W        W 5802   6.943  24.758  26.004  0.0037 -0.0641 -0.1709
62890W        W 5803   9.266  31.053   7.181 -0.4368 -0.1752 -0.0148
62891W        W 5804  17.318  12.098  25.539 -0.2264 -0.0437  0.0485
62892W        W 5805  12.544  18.469  23.808  0.0742  0.0552 -0.2304
62893W        W 5806   2.338  31.657  23.600  0.2234  0.2075 -0.1087
62894W        W 5807  12.720  21.072  26.850 -0.2200 -0.2756  0.2989
62895W        W 5808  12.760  28.881   6.646 -0.0861  0.1434  0.0817
62896W        W 5809   9.825  34.383   3.722 -0.2924 -0.0155  0.1461
62897W        W 5810   7.755  19.326   3.190  0.0423  0.0211 -0.3022
62898W        W 5811  10.718  14.044  18.020 -0.0871 -0.0410  0.1297
62899W        W 5812  16.369  16.933  23.718  0.1333 -0.0252  0.2270
62900W        W 5813  18.007  30.853  25.897 -0.0777 -0.0649 -0.0719
62901W        W 5814   7.401  24.719  20.506  0.3752 -0.4829 -0.1247
62902W        W 5815  16.791  30.430  25.712  0.2369 -0.2189 -0.3012
62903W        W 5816  10.302  18.443  19.868  0.1049 -0.0984 -0.1443
62904W        W 5817  18.176  23.764  26.086  0.0847 -0.2694  0.2723
62905W        W 5818  18.714  22.425  25.117  0.0585 -0.0863  0.1093
62906W        W 5819   3.817  14.370  22.785  0.0021  0.1138 -0.0790
62907W        W 5820  13.137  20.334   0.407  0.0048  0.3411 -0.2637
62908W        W 5821  10.419  25.501  24.222  0.0652  0.0949  0.2255
62909W        W 5822  17.588  19.483   0.955  0.0280 -0.0424  0.3298
62910W        W 5823  13.477  31.837   4.011 -0.2536  0.3444 -0.1864
62911W        W 5824   5.742  23.823  28.050  0.0115  0.0398  0.0298
62912W        W 5825  24.180  12.388   3.583 -0.1446 -0.2090 -0.3069
62913W        W 5826  11.316  18.150  23.053  0.3156 -0.0480 -0.0668
62914W        W 5827   8.338  32.542  20.903  0.3833 -0.0121  0.1786
62915W        W 5828  14.989  28.187   1.964 -0.1454  0.0613  0.2632
62916W        W 5829  11.628  11.653  28.802  0.0430 -0.2679 -0.3851
62917W        W 5830  17.487  17.512  29.303  0.1222 -0.1539 -0.3038
62918W        W 5831   8.228  33.030  21.847 -0.2507  0.0176  0.0498
62919W        W 5832  10.839  31.436   2.813  0.1284  0.4764  0.3497
62920W        W 5833  15.163  20.185  24.408  0.4402  0.0682 -0.0458
62921W        W 5834  10.843  30.249  27.667  0.0806 -0.1530  0.0413
62922W        W 5835  12.256  16.657   4.229 -0.1144  0.1320 -0.1748
62923W        W 5836  10.808  21.151  29.758 -0.0278 -0.4509  0.3462
62924W        W 5837  15.844  24.912   0.874 -0.1457 -0.1387  0.0045
62925W        W 5838   6.387  15.244  27.071  0.0250 -0.4755 -0.0865
62926W        W 5839  13.363  17.481   2.294 -0.0433 -0.2563 -0.2545
62927W        W 5840  12.191  21.251  24.708  0.2929 -0.0352 -0.1927
62928W        W 5841  19.090  26.899  20.642  0.0779  0.0954  0.0730
62929W        W 5842   5.313  25.734  26.963 -0.1016  0.1465 -0.3965
62930W        W 5843   6.400  32.648  24.083  0.0295 -0.2504  0.0096
62931W        W 5844   9.236  22.240  23.359  0.1470  0.0608 -0.0560
62932W        W 5845  16.095  19.364  23.923 -0.2387  0.0415  0.0029
62933W        W 5846  11.114  17.960  27.222 -0.1925  0.1115  0.2104
62934W        W 5847  13.561  28.022   4.984 -0.0807  0.1550 -0.1639
62935W        W 5848  13.425   1.887  18.987  0.0321 -0.1736  0.3311
62936W        W 5849  12.602  20.868   5.074 -0.0901  0.0351 -0.5359
62937W        W 5850   6.201  19.768  20.376 -0.2988  0.0085 -0.1065
62938W        W 5851  11.816  23.406   0.431 -0.0416  0.0798 -0.0500
62939W        W 5852  15.529  20.279   4.501  0.1035  0.0751 -0.2076
62940W        W 5853  15.768  30.630   3.764  0.0797 -0.1918 -0.0313
62941W        W 5854  14.840  24.008  24.886 -0.0041  0.0216 -0.2367
62942W        W 5855  12.146  22.668  29.528 -0.0794 -0.1344  0.1311
62943W        W 5856   3.483  16.465  26.086  0.0725 -0.2940 -0.3364
62944W        W 5857  19.020  19.578  27.525  0.0287  0.1668  0.0223
62945W        W 5858  15.060  20.147  16.658 -0.0171  0.0608  0.1738
62946W        W 5859  12.865  23.993   6.117 -0.1694  0.1199 -0.1379
62947W        W 5860  23.750  20.029  23.535  0.0233 -0.1191 -0.0976
62948W        W 5861   7.094  28.256   1.451 -0.0633 -0.0821  0.0328
62949W        W 5862  16.695  20.390   7.437  0.3157 -0.2053 -0.0533
62950W        W 5863   9.035   0.077   4.714  0.1446 -0.0155 -0.0900
62951W        W 5864  30.311  25.197   2.658 -0.1003  0.3290 -0.2591
62952W        W 5865  32.737  18.358  24.899  0.0460  0.0937  0.1542
62953W        W 5866  18.949  27.517  21.789  0.4107 -0.0874 -0.2084
62954W        W 5867  22.627  28.156  27.681 -0.3138  0.0351 -0.4527
62955W        W 5868  18.766  17.385   3.848 -0.1734  0.0318  0.1492
62956W        W 5869  31.542  32.383  23.357  0.3166 -0.5548 -0.2008
62957W        W 5870  16.755  25.834   4.689  0.1138 -0.0757  0.2342
62958W        W 5871  12.542  18.183  15.988 -0.2780  0.0503 -0.0407
62959W        W 5872   1.629  30.681  27.938  0.1176 -0.0465 -0.0973
62960W        W 5873   5.895  18.919   1.663 -0.0378  0.2465  0.3780
62961W        W 5874   6.063  21.501  27.808  0.1206  0.0524 -0.1168
62962W        W 5875   9.824  17.990  27.781 -0.1347  0.1398 -0.0137
62963W        W 5876  11.142  11.686  23.838  0.0382  0.1395  0.1657
62964W        W 5877  14.126  27.667  19.084 -0.0189  0.0807 -0.2748
62965W        W 5878  24.592  28.515   3.007  0.2398  0.0227  0.0306
62966W        W 5879  12.578  29.856   7.377 -0.2395  0.0669 -0.1316
62967W        W 5880   7.426   0.453   5.460  0.0405  0.0293 -0.0205
62968W        W 5881  11.015  18.378  24.744  0.0959  0.0401  0.1437
62969W        W 5882  13.212  20.996  25.515 -0.0374  0.0334  0.0223
62970W        W 5883   7.678  33.700  17.165 -0.0944 -0.0559  0.4736
62971W        W 5884  19.914  26.780   8.268 -0.1089 -0.1230 -0.0619
62972W        W 5885  19.994  17.804  28.738 -0.1060 -0.0108 -0.0431
62973W        W 5886  16.562  24.836   4.035 -0.2867 -0.1604 -0.1026
62974W        W 5887  21.117   6.509  27.366 -0.1049  0.0790 -0.0242
62975W        W 5888  20.456  27.351   0.052  0.4672 -0.0830 -0.0410
62976W        W 5889  17.709  20.482   0.419  0.1162 -0.0909  0.1853
62977W        W 5890  17.980  21.761  15.805 -0.1204  0.0512 -0.0848
62978W        W 5891  14.312  25.162   2.585 -0.0952 -0.0463  0.1355
62979W        W 5892  29.360  19.338  18.039 -0.0535 -0.0925  0.0033
62980W        W 5893  16.597  18.770  24.469  0.0270 -0.0087  0.1903
62981W        W 5894  30.347   4.749  20.279 -0.2182  0.0141  0.1933
62982W        W 5895   2.744   3.400  28.155  0.1570  0.3275  0.1559
62983W        W 5896   7.601  10.910  25.603 -0.2793 -0.0341  0.1964
62984W        W 5897  14.006  30.698   3.570 -0.0702 -0.1962  0.0640
62985W        W 5898  33.958  34.475   1.260 -0.0490  0.2561 -0.0090
62986W        W 5899  10.282  23.524  25.265 -0.0133  0.0679 -0.3363
62987W        W 5900  19.989  18.435   1.085 -0.0243  0.0228 -0.2574
62988W        W 5901   7.039  19.957  29.414  0.2290  0.0171 -0.0955
62989W        W 5902   4.488  13.114   1.408  0.1431 -0.4787 -0.0998
62990W        W 5903  21.486  27.144   4.395 -0.0341 -0.1136 -0.0862
62991W        W 5904  14.603  31.502  28.986  0.0205  0.2009  0.1944
62992W        W 5905  12.559  26.201   1.663 -0.0882  0.0235  0.1732
62993W        W 5906  17.119  25.931  24.762  0.1511 -0.1628 -0.2375
62994W        W 5907  23.913  26.760   5.705  0.1895 -0.1925 -0.3845
62995W        W 5908  12.958  27.607   1.329 -0.4789 -0.1952 -0.1835
62996W        W 5909  10.350  16.162   5.028  0.0625 -0.0978  0.3186
62997W        W 5910  31.572  27.132   0.192 -0.4391  0.1024 -0.0920
62998W        W 5911  21.203  20.031   1.473  0.3227 -0.0339  0.5653
62999W        W 5912  14.935  29.924  20.265 -0.0970  0.1339  0.0413
63000W        W 5913   3.117  26.493  23.007  0.1074 -0.2141 -0.1465
63001W        W 5914  11.266  17.194   4.912  0.0213 -0.0824  0.0888
63002W        W 5915  16.818  32.988   2.785 -0.0151 -0.1590  0.1127
63003W        W 5916  16.373  21.068  23.529  0.0416 -0.3921 -0.3300
63004W        W 5917  12.014  25.328  21.808  0.0659  0.1512  0.1035
63005W        W 5918  11.751   4.505  27.673 -0.1509  0.1422 -0.0364
63006W        W 5919   9.874  34.322  24.986 -0.1062  0.1032  0.1564
63007W        W 5920  13.089  25.724  18.729 -0.1821 -0.1695  0.1832
63008W        W 5921  33.846  31.592   1.978  0.2984 -0.1195 -0.1439
63009W        W 5922   6.085   0.996  28.442  0.1719  0.1503 -0.0304
63010W        W 5923   4.483  24.741  24.623 -0.0197  0.2362  0.2538
63011W        W 5924  10.013  23.268   5.887 -0.0142  0.0504  0.0841
63012W        W 5925  20.114  21.882  18.246 -0.0871  0.1172  0.1194
63013W        W 5926   9.495  31.320  26.540 -0.0366 -0.0980  0.0005
63014W        W 5927  18.758  17.459   1.381 -0.0815 -0.0456  0.2624
63015W        W 5928   8.733  25.518  22.319  0.4985 -0.3280 -0.0565
63016W        W 5929   5.947  14.469   9.324 -0.2700  0.3072  0.0881
63017W        W 5930  11.953  17.398   5.483 -0.0286 -0.0582  0.3572
63018W        W 5931  18.540  29.253  29.164  0.1213 -0.1704 -0.1762
63019W        W 5932  16.836  27.541   9.660 -0.1218 -0.0436 -0.0993
63020W        W 5933   8.074  17.661   1.291  0.1150  0.1950  0.0495
63021W        W 5934  17.981  21.860  18.691  0.1512 -0.0664  0.0208
63022W        W 5935   9.235  29.351   2.244 -0.0700  0.2130  0.1201
63023W        W 5936  16.959   1.394   9.459 -0.1880 -0.1233  0.0850
63024W        W 5937  15.147  29.610  27.473 -0.0074  0.0439  0.0437
63025W        W 5938  14.529  22.959   1.242  0.3904  0.1665  0.2967
63026W        W 5939   3.126  13.990  20.568  0.2488  0.1385 -0.0860
63027W        W 5940   5.168  21.184  28.805  0.1373  0.1291 -0.1467
63028W        W 5941  14.573  11.015   0.312 -0.0784 -0.2288  0.0382
63029W        W 5942   5.696  29.118  24.437 -0.0921 -0.1231  0.2120
63030W        W 5943  16.286   2.551   4.394 -0.2141  0.0030  0.1411
63031W        W 5944   7.780  17.928  28.855  0.3791 -0.2278 -0.3035
63032W        W 5945  21.597  21.069   6.141 -0.0103 -0.4829 -0.2650
63033W        W 5946   2.758  20.071  18.923  0.1471 -0.2891  0.0652
63034W        W 5947  19.720  23.685   5.631  0.0772 -0.2204 -0.1256
63035W        W 5948  21.691  21.397   1.693  0.3448 -0.2951  0.2072
63036W        W 5949  16.668  24.819   2.236  0.1411  0.2070 -0.0592
63037W        W 5950  12.954  22.695   0.561  0.1576 -0.0172 -0.1445
63038W        W 5951   6.431  23.371   2.289  0.0292 -0.0232  0.1581
63039W        W 5952  20.510  22.406   2.034  0.0816 -0.1561 -0.0683
63040W        W 5953  17.979  16.634  24.537  0.2051  0.0545 -0.1296
63041W        W 5954   4.625  21.911  29.704 -0.1193 -0.0801  0.1837
63042W        W 5955  20.290  26.642  23.464  0.1187  0.2850  0.2643
63043W        W 5956  12.531  24.092  21.805  0.1365  0.3308  0.0686
63044W        W 5957  16.187  13.919  22.481  0.4247  0.0464  0.0226
63045W        W 5958  12.943  23.640  21.311  0.0347 -0.0605  0.0157
63046W        W 5959  15.008  23.831  15.256  0.0980 -0.2039 -0.3013
63047W        W 5960   4.737  30.780  20.151  0.0079  0.2607 -0.0044
63048W        W 5961  22.509  26.284  18.998 -0.1511  0.0626 -0.0333
63049W        W 5962   3.145  23.214  26.864  0.1033  0.0823  0.0208
63050W        W 5963  12.113  25.231  25.794  0.3432  0.1061 -0.1197
63051W        W 5964  16.990   3.400  19.513 -0.0532  0.0901  0.3755
63052W        W 5965  16.093   1.991   5.510  0.2088 -0.1549 -0.0589
63053W        W 5966   3.095  26.439   5.031 -0.0888 -0.1319 -0.1676
63054W        W 5967   2.918  20.600  26.429 -0.2250 -0.0736 -0.3211
63055W        W 5968  19.480  21.821  28.713  0.2463  0.1100  0.1027
63056W        W 5969  21.534  26.573  23.700  0.0125  0.1720 -0.3081
63057W        W 5970  19.309  20.366  22.210  0.0491  0.0025 -0.0462
63058W        W 5971  10.469  22.111   1.084  0.0267  0.0852 -0.1623
63059W        W 5972  11.285  23.642  25.809  0.0266 -0.2730 -0.2903
63060W        W 5973   8.887  26.486  26.680 -0.3906 -0.0873 -0.1661
63061W        W 5974  25.834  19.172  28.099  0.0021  0.4053 -0.1684
63062W        W 5975  15.058  13.339   2.748 -0.0402  0.0068 -0.3198
63063W        W 5976  13.173  18.594   1.792  0.0405 -0.0246 -0.2361
63064W        W 5977   9.913  23.156  25.394  0.1286 -0.0237 -0.2188
63065W        W 5978   9.673  18.483  26.311 -0.1503 -0.0730 -0.2342
63066W        W 5979  18.290  15.729  27.362  0.1611 -0.1408 -0.1746
63067W        W 5980  30.880  26.210   7.370 -0.1502  0.0364 -0.2131
63068W        W 5981  13.946  10.862   8.412  0.2470  0.5493  0.0138
63069W        W 5982   9.713  29.279  19.590 -0.0257  0.0850  0.0073
63070W        W 5983   8.712  17.616  20.098  0.2461  0.0488  0.0473
63071W        W 5984  19.089  25.596   6.149  0.2835  0.0845  0.2059
63072W        W 5985   4.917  17.361   4.441  0.1336 -0.0048 -0.1338
63073W        W 5986  14.270  19.576   6.464  0.2011  0.1497  0.2729
63074W        W 5987  22.580  30.809   9.281  0.0477 -0.0241 -0.2113
63075W        W 5988  14.704  19.560   4.998  0.3705  0.0319 -0.0916
63076W        W 5989   9.608  21.747  27.749 -0.0611  0.1613  0.1436
63077W        W 5990  11.751  21.056  27.643  0.0174  0.3554  0.1258
63078W        W 5991  14.989  30.328   1.615  0.0097 -0.0014 -0.3662
63079W        W 5992   4.437  29.283  21.325  0.1175  0.1808  0.0190
63080W        W 5993  20.677  24.478  29.094  0.0635 -0.0785 -0.1886
63081W        W 5994  14.352   5.271   6.005  0.4904  0.1852  0.1381
63082W        W 5995   6.522  26.980  21.395  0.2287  0.1069 -0.1966
63083W        W 5996  11.893   5.409   2.666 -0.2609  0.0635  0.5269
63084W        W 5997  14.663   2.743  23.670  0.1664 -0.0424 -0.1142
63085W        W 5998   5.672  21.882  25.910 -0.1306  0.0338  0.0137
63086W        W 5999  17.680  25.855   0.701 -0.0006  0.0279 -0.2230
63087W        W 6000   3.419  20.024  28.636  0.1804 -0.3053  0.1454
63088W        W 6001   3.499  23.985   2.560  0.2547 -0.0453  0.0251
63089W        W 6002   2.112  21.302  27.745  0.2445 -0.1768  0.2845
63090W        W 6003  17.838  21.624   0.694 -0.2801  0.1080  0.3425
63091W        W 6004  17.053  27.605  22.849  0.4521 -0.0031  0.1206
63092W        W 6005   1.248  31.748   4.959  0.2094 -0.4562  0.1948
63093W        W 6006  21.671  24.950  21.247  0.2436 -0.0693  0.0279
63094W        W 6007  13.688  15.287   0.735  0.2194 -0.0125 -0.0117
63095W        W 6008   5.746  21.627  20.941  0.0506  0.1216 -0.1367
63096W        W 6009   6.119  25.052   2.182 -0.0830 -0.0105  0.1942
63097W        W 6010  13.943  31.046  17.602 -0.1322  0.0895 -0.1478
63098W        W 6011   3.838  15.711  27.761 -0.2468 -0.0124  0.1063
63099W        W 6012  19.080  21.841   2.113  0.0011  0.1461  0.0224
63100W        W 6013  17.254  21.466  20.599  0.2324 -0.0959  0.2947
63101W        W 6014   7.429   0.213   4.391 -0.1962  0.0726  0.2535
63102W        W 6015  12.108  33.312  24.205 -0.1037  0.1201 -0.0784
63103W        W 6016  33.444  18.264  28.738  0.0857  0.2913 -0.1311
63104W        W 6017   5.776  21.165  24.513  0.1720  0.0770  0.2773
63105W        W 6018  14.783  32.928   6.432 -0.1275  0.0592 -0.2210
63106W        W 6019  14.877  34.489  25.967 -0.2715  0.2459  0.1401
63107W        W 6020   0.442  19.825  21.044 -0.0500  0.0778 -0.0546
63108W        W 6021  11.365  16.056  20.355 -0.0693 -0.1454  0.2165
63109W        W 6022   5.260  23.460  28.363 -0.1317  0.2081 -0.1316
63110W        W 6023   6.384  24.235  15.875 -0.2052 -0.0435  0.0965
63111W        W 6024  31.976  18.785  23.225 -0.0548  0.0530  0.0481
63112W        W 6025  19.459  23.050  18.140 -0.0351  0.2163  0.1963
63113W        W 6026  34.245  28.092   5.291 -0.0558 -0.3177  0.3126
63114W        W 6027  13.469  23.828   1.806  0.0506 -0.0087 -0.1813
63115W        W 6028  17.349  26.473   8.214  0.0323 -0.1721 -0.0295
63116W        W 6029  17.906  26.666   5.567 -0.0498 -0.3643 -0.1023
63117W        W 6030   8.240  17.722   2.738  0.2119 -0.0461  0.3010
63118W        W 6031   8.194  29.640   7.567  0.0234 -0.2160 -0.5164
63119W        W 6032   5.537  29.694   6.047 -0.1025  0.1714  0.0953
63120W        W 6033  21.686  30.696  21.352  0.1556 -0.1564 -0.2612
63121W        W 6034  31.705  32.514   2.220  0.4659 -0.0385  0.2628
63122W        W 6035  13.718  26.379  15.686  0.1010  0.1025  0.2253
63123W        W 6036  14.436  19.608  22.978  0.0028  0.0321  0.1195
63124W        W 6037  15.073   9.749  26.295 -0.2931 -0.1476  0.2144
63125W        W 6038  13.165  24.704   0.788  0.0792 -0.1949  0.1949
63126W        W 6039   8.563  33.621  10.896  0.1437  0.2499 -0.1456
63127W        W 6040   1.058  27.489   9.872  0.0688  0.2709 -0.0415
63128W        W 6041  10.307  20.077  27.024  0.1769  0.1911  0.0177
63129W        W 6042   4.750  23.652  23.237  0.0167  0.0203  0.2282
63130W        W 6043  10.032  24.383  29.162  0.2002 -0.0798 -0.1315
63131W        W 6044  14.019  29.474   3.219 -0.1254  0.0453  0.0404
63132W        W 6045  11.837  31.252  24.571  0.3110  0.2810 -0.1018
63133W        W 6046   9.245  23.689  18.266  0.2051 -0.1969  0.2085
63134W        W 6047   7.712  17.692   7.697 -0.0243  0.1247  0.1596
63135W        W 6048  13.387  29.783  28.721 -0.0556  0.0648  0.4049
63136W        W 6049   7.707  28.031   1.290  0.0016  0.1372  0.0773
63137W        W 6050   0.857   0.229  23.545  0.0969  0.0838 -0.0764
63138W        W 6051   4.813  32.325   3.178 -0.1725 -0.1485  0.4502
63139W        W 6052  13.216  26.634  25.399 -0.2970 -0.0059 -0.1540
63140W        W 6053   6.983  18.030  29.382 -0.0793 -0.0387 -0.0830
63141W        W 6054  33.636  20.728  25.841 -0.2404  0.2656 -0.0541
63142W        W 6055  11.442  25.784  23.153 -0.0340 -0.1976 -0.1836
63143W        W 6056  17.744  33.275   6.098 -0.3162  0.1926 -0.1626
63144W        W 6057   8.959  19.149  17.662 -0.0118  0.0696 -0.0976
63145W        W 6058  10.609  18.892  26.342 -0.2305  0.0437  0.1706
63146W        W 6059   1.866  16.886  21.494  0.1424  0.1312  0.2030
63147W        W 6060   1.234  34.234   5.088 -0.2603  0.2375  0.3013
63148W        W 6061  19.868  26.633  23.936 -0.3760  0.0570 -0.0477
63149W        W 6062   9.491  23.450  25.875 -0.0451 -0.0326 -0.2146
63150W        W 6063  11.438  29.977  23.318 -0.0330  0.0294 -0.2039
63151W        W 6064   7.295  25.180   0.742  0.0341 -0.0658 -0.1687
63152W        W 6065   9.896  16.788  23.040 -0.0411 -0.0563 -0.0821
63153W        W 6066   8.918  26.626  24.748  0.1404  0.0397  0.1566
63154W        W 6067  14.438  14.562  13.109 -0.3459  0.0148  0.0172
63155W        W 6068  11.963  24.881   0.029 -0.1471 -0.1451 -0.0747
63156W        W 6069  15.387  14.039   3.175 -0.1813 -0.0154  0.0133
63157W        W 6070  12.929  20.069  18.317 -0.1895  0.1713 -0.2822
63158W        W 6071  21.020  24.995  21.871  0.2778 -0.1677  0.1302
63159W        W 6072   9.651  21.879  18.523 -0.0793 -0.3493  0.0363
63160W        W 6073  13.286  15.740   8.462  0.1680  0.1394 -0.2962
63161W        W 6074  13.484  18.771  26.778 -0.0479 -0.0176  0.2121
63162W        W 6075   9.082  25.481  16.138  0.1663  0.0498  0.3254
63163W        W 6076  23.826  14.758   1.409 -0.1818 -0.2192  0.1820
63164W        W 6077  12.653  20.449  25.070  0.4858  0.2847  0.0204
63165W        W 6078  16.193  24.001   4.675 -0.1852 -0.0000 -0.2736
63166W        W 6079  16.562  24.298  26.818 -0.0271  0.3246  0.2470
63167W        W 6080   5.526  33.147  19.233  0.1161 -0.0029  0.0075
63168W        W 6081  19.869  16.752  14.979 -0.2366  0.4273  0.3681
63169W        W 6082   1.585  16.733   1.112  0.2746  0.0300 -0.0034
63170W        W 6083   4.954  32.516  22.909 -0.1682 -0.0127  0.1067
63171W        W 6084   6.134  31.892  16.685  0.3760  0.0415 -0.1679
63172W        W 6085  33.912  29.361   1.260  0.0074  0.0281 -0.0643
63173W        W 6086  15.159   4.095  24.374  0.2558 -0.0614 -0.1710
63174W        W 6087  14.927  22.312   6.763  0.0835  0.0487  0.0026
63175W        W 6088  14.219  24.790   8.509 -0.0517  0.2370 -0.4620
63176W        W 6089  15.165  19.453  25.862  0.3816 -0.0981 -0.2292
63177W        W 6090   6.764  27.829  21.200 -0.3995  0.2729  0.1121
63178W        W 6091   8.897  13.553   1.085  0.0689  0.1569  0.0721
63179W        W 6092  11.792  24.675   4.587  0.1339  0.1724  0.0559
63180W        W 6093   7.455  21.610  25.572 -0.1867  0.3429 -0.0552
63181W        W 6094  11.912  20.485  18.485  0.0263  0.2778  0.2111
63182W        W 6095  14.302  28.672  29.702  0.0184  0.3482  0.0930
63183W        W 6096  18.718  21.162  18.692  0.0709 -0.1419  0.1457
63184W        W 6097   9.377  26.413  26.824 -0.4621 -0.0828  0.3187
63185W        W 6098   3.240  23.084  22.374  0.2653  0.0857  0.2165
63186W        W 6099  14.953  21.765  23.503  0.1762 -0.1436  0.3000
63187W        W 6100  15.448  22.716   5.736  0.0424  0.1919 -0.0856
63188W        W 6101  10.073  17.897  22.039 -0.1117 -0.1432  0.1102
63189W        W 6102  10.282  17.575  26.521 -0.2668 -0.4588  0.0459
63190W        W 6103   4.908  20.863  18.478  0.2076  0.0174  0.0123
63191W        W 6104   3.890  29.395  18.370 -0.1130  0.1155 -0.0411
63192W        W 6105   9.491  29.330  21.391  0.1872  0.4200  0.1315
63193W        W 6106  17.208  21.443  24.442 -0.2842  0.3532  0.0678
63194W        W 6107   3.381  17.226  22.508 -0.0977 -0.2627  0.1861
63195W        W 6108  25.526  21.043  20.800  0.1064  0.0019  0.0932
63196W        W 6109   8.543  19.205   2.632 -0.1323  0.1479 -0.2973
63197W        W 6110  15.391  31.655  19.388 -0.2175 -0.0073 -0.0615
63198W        W 6111  12.735  23.958  20.846  0.1611 -0.2331 -0.3143
63199W        W 6112   1.732  20.966  17.773  0.1835  0.1923  0.2402
63200W        W 6113  19.626  25.923  26.089  0.1197 -0.2147 -0.2420
63201W        W 6114  15.588  27.957   2.408 -0.0980 -0.3878  0.0463
63202W        W 6115  12.664  20.216   7.279  0.3434  0.0435 -0.2245
63203W        W 6116  18.930  25.039  25.131  0.0440  0.2043  0.0112
63204W        W 6117   4.706  27.783  20.934 -0.0524 -0.1110 -0.0362
63205W        W 6118  12.990  22.486   7.113  0.1684 -0.2460  0.1736
63206W        W 6119  12.194  19.319  27.367 -0.2132 -0.2089  0.1345
63207W        W 6120  19.663  27.103  23.902  0.1054  0.1225  0.3118
63208W        W 6121  34.442  21.792  24.106 -0.0602 -0.0996  0.2446
63209W        W 6122   6.493  14.303  14.979 -0.1407 -0.0930  0.1171
63210W        W 6123   9.099  28.263   0.269 -0.2118  0.1055 -0.0372
63211W        W 6124   4.229  34.015   5.785  0.3404  0.1704  0.1271
63212W        W 6125   4.320  10.387  22.134  0.2657  0.0988 -0.1959
63213W        W 6126  17.380  26.098  29.409  0.0549  0.1848  0.4647
63214W        W 6127   8.410  33.697  29.072  0.3539  0.0422 -0.0178
63215W        W 6128  11.081  14.240  20.367 -0.0539  0.0089  0.1856
63216W        W 6129  19.193  20.900  28.206  0.0015  0.0763 -0.1321
63217W        W 6130  16.911   3.129   9.234 -0.2781  0.0515  0.3177
63218W        W 6131  13.150   2.876  11.595  0.0023  0.0510 -0.1099
63219W        W 6132   8.388  28.055  15.407 -0.2925  0.2674 -0.4674
63220W        W 6133   9.100  23.346   4.021 -0.3677  0.0359  0.0905
63221W        W 6134  19.689  27.937  28.253 -0.3634 -0.1236  0.3778
63222W        W 6135  14.599  26.713   8.051 -0.1313  0.0414  0.0120
63223W        W 6136  13.270  19.121  21.821 -0.1177 -0.1492 -0.2565
63224W        W 6137  14.912  15.862  23.059 -0.0080  0.3498  0.1758
63225W        W 6138  15.207  14.770  17.192  0.0241  0.2027 -0.0548
63226W        W 6139  34.032   0.175   9.412  0.5373  0.1228 -0.0223
63227W        W 6140   8.013  31.670  11.637 -0.4016 -0.0060 -0.2862
63228W        W 6141  17.832  26.051   6.258  0.0206 -0.0793 -0.1035
63229W        W 6142  15.662  21.784   8.017  0.1987  0.0182  0.0677
63230W        W 6143  14.088   6.988   5.585 -0.1342 -0.2172 -0.1332
63231W        W 6144  24.970  16.285   4.461 -0.0227  0.3057 -0.0654
63232W        W 6145  14.195  19.474  27.234  0.2937  0.0677 -0.4074
63233W        W 6146  14.667  16.266  24.865 -0.0393  0.2663 -0.1892
63234W        W 6147  19.754  29.707   1.187  0.0675 -0.1652  0.0048
63235W        W 6148  19.407  30.671  24.646  0.0342  0.0481  0.1110
63236W        W 6149   6.269  33.673   6.716 -0.1109  0.1055  0.1427
63237W        W 6150  24.079  30.980   0.619 -0.0017 -0.0505  0.0600
63238W        W 6151   6.741  22.826  27.482 -0.0114 -0.3314  0.1348
63239W        W 6152  21.314  19.659  28.188  0.0363  0.0979 -0.0824
63240W        W 6153  28.521  31.955   5.833 -0.1495 -0.5079  0.1869
63241W        W 6154   8.772  20.006  29.424 -0.3584 -0.3762  0.2146
63242W        W 6155   7.169  11.420  24.351  0.0984 -0.2934 -0.2673
63243W        W 6156  11.021  23.741   1.793  0.0376  0.3490 -0.2524
63244W        W 6157   5.823  20.120  28.634  0.0593  0.3812  0.2609
63245W        W 6158  17.910  19.754  28.315 -0.1509  0.1145 -0.3425
63246W        W 6159  24.280  28.831   6.680  0.1033  0.0745 -0.0444
63247W        W 6160  13.780  18.153  20.920 -0.0571  0.2026  0.0944
63248W        W 6161  13.705  19.292  26.907  0.2064  0.3160  0.2488
63249W        W 6162  14.381  20.148  26.520 -0.0590  0.0756  0.0586
63250W        W 6163  19.284  31.803   0.162  0.2039 -0.1779  0.0294
63251W        W 6164  11.719  26.041   0.512 -0.2470 -0.3379  0.0080
63252W        W 6165  13.049  31.089   5.360 -0.2217 -0.0583  0.2733
63253W        W 6166  11.012  25.932   1.132  0.2333  0.0212 -0.0234
63254W        W 6167  21.314  25.220   8.579  0.0547  0.0521  0.2227
63255W        W 6168  13.648  22.423   8.586  0.0738  0.1329  0.1026
63256W        W 6169  16.995  25.963   9.006 -0.1788 -0.2386 -0.1785
63257W        W 6170  15.273   4.483   5.407 -0.1985 -0.1682  0.2435
63258W        W 6171  11.469  28.708  23.243 -0.2016 -0.2073  0.0553
63259W        W 6172  11.785  20.890  27.130  0.1085 -0.4169 -0.1113
63260W        W 6173  19.032  16.231  23.318  0.2676 -0.1918  0.2499
63261W        W 6174  17.982  28.104   9.414 -0.2154  0.0002  0.3841
63262W        W 6175  21.479  30.409   0.684 -0.2911 -0.1072  0.0453
63263W        W 6176  11.490   1.325  29.257  0.2387  0.0293  0.0536
63264W        W 6177  15.110  33.082   8.631 -0.0795  0.0037 -0.0493
63265W        W 6178  11.617  23.220   9.111  0.2248 -0.2557  0.2778
63266W        W 6179  16.756  22.052  26.363  0.0850  0.1293 -0.2221
63267W        W 6180   6.806  32.351   0.250 -0.1733 -0.1828  0.0198
63268W        W 6181  19.643  28.840   4.127  0.0122  0.0595 -0.3809
63269W        W 6182  20.719  26.004   0.516 -0.1836  0.0622  0.1517
63270W        W 6183  15.865  30.749   7.115  0.0143 -0.2048 -0.0162
63271W        W 6184   9.109  20.618  29.325  0.0006  0.0234 -0.0303
63272W        W 6185   5.480  19.937   7.071 -0.0137 -0.0913  0.2139
63273W        W 6186   7.455   1.128   0.230 -0.1711 -0.1167  0.1758
63274W        W 6187  16.500  33.419   7.827  0.0292  0.0424 -0.1942
63275W        W 6188  17.946  28.777  22.468  0.1751 -0.2776 -0.1172
63276W        W 6189   7.928  27.892   2.420  0.0505 -0.4139  0.0554
63277W        W 6190  19.557  26.778   5.398 -0.2274  0.0908  0.1225
63278W        W 6191  13.029   0.063  18.878 -0.0147  0.1999 -0.0570
63279W        W 6192  14.124  28.990  19.644  0.0980  0.1466  0.0593
63280W        W 6193  16.424  12.662  12.173 -0.3795 -0.1335  0.0123
63281W        W 6194  17.730  26.007  15.957 -0.1675  0.1239 -0.1555
63282W        W 6195   5.186  18.277  17.615  0.1893 -0.2830  0.2454
63283W        W 6196  25.080  33.801  13.756 -0.2535  0.3660 -0.3959
63284W        W 6197   3.546  14.850  26.489 -0.0727  0.1487  0.1535
63285W        W 6198  21.753  21.169  13.783  0.1468 -0.1313 -0.0927
63286W        W 6199  17.850  21.951  12.797 -0.2373  0.0480 -0.1052
63287W        W 6200  14.296  31.775  16.097  0.0480  0.0132 -0.1076
63288W        W 6201  31.177  34.288  15.895  0.1737 -0.3468  0.2981
63289W        W 6202  14.612  29.511  20.350  0.2038  0.0320  0.2175
63290W        W 6203  15.199  27.991  19.396 -0.0843 -0.0434  0.1195
63291W        W 6204   5.842  26.773  17.577  0.1862 -0.1716 -0.0939
63292W        W 6205  26.886  33.380  19.034 -0.3056  0.1347  0.2433
63293W        W 6206  12.609  24.776  22.516 -0.2422  0.1938 -0.2614
63294W        W 6207   4.019  30.737  18.611 -0.0948 -0.1437 -0.0871
63295W        W 6208   4.842  29.916  20.691  0.2348  0.0957 -0.2048
63296W        W 6209  22.269  22.406  14.141  0.1996  0.2491 -0.0989
63297W        W 6210  25.170  31.874  16.278 -0.0298  0.2424 -0.2593
63298W        W 6211  10.040  20.896  14.331  0.1003  0.0310 -0.0332
63299W        W 6212  19.892  25.570  13.884 -0.1072  0.1576 -0.0374
63300W        W 6213  15.992  28.226  16.176  0.2958  0.0303  0.3246
63301W        W 6214   3.411  31.362  18.822 -0.0945 -0.2827 -0.0886
63302W        W 6215   9.948  30.057  16.596  0.1422 -0.0289 -0.3526
63303W        W 6216   8.898  19.822  21.553 -0.0502 -0.1333  0.0253
63304W        W 6217  24.293  33.359  15.964 -0.1446  0.1087 -0.0879
63305W        W 6218  12.552   4.350  16.558 -0.1083  0.0452 -0.0364
63306W        W 6219  17.642  31.480  16.078  0.5134 -0.0328  0.2463
63307W        W 6220  10.193  18.000  13.950 -0.0534 -0.1467  0.1896
63308W        W 6221   8.595  22.054  24.181 -0.1883 -0.3288 -0.2150
63309W        W 6222  11.253  33.061  20.833 -0.1416  0.0900  0.1721
63310W        W 6223  14.626  24.880  17.696  0.2402 -0.2354  0.0878
63311W        W 6224  21.585  22.019  23.397 -0.1082 -0.3789 -0.2258
63312W        W 6225   3.550  26.352  21.152 -0.0708  0.1289  0.1021
63313W        W 6226  19.888  27.423  23.584  0.2890 -0.1031  0.1293
63314W        W 6227  18.333  32.901  20.825 -0.0996  0.1304  0.0113
63315W        W 6228  21.568  31.196  15.837 -0.0781 -0.3238 -0.2921
63316W        W 6229  20.819   0.768  14.684 -0.0861 -0.2770  0.0151
63317W        W 6230  12.031  31.081  22.042  0.2096  0.2012 -0.1567
63318W        W 6231   7.312  17.198  13.869 -0.0053 -0.0520  0.0250
63319W        W 6232  16.893  30.438  21.427  0.0647  0.0692  0.0777
63320W        W 6233  16.459  28.632  18.991 -0.1188 -0.2882  0.0553
63321W        W 6234   2.414  33.901  16.562 -0.0032  0.2551  0.2341
63322W        W 6235   5.873  26.970  21.746 -0.1087  0.0626  0.1922
63323W        W 6236   7.528  29.884  17.808  0.0312  0.1755 -0.1710
63324W        W 6237  18.693  30.951  15.085  0.3883 -0.0854  0.1729
63325W        W 6238  10.608  20.119  18.216 -0.1114 -0.0217 -0.1755
63326W        W 6239   3.037  23.939  20.263  0.4191  0.2088 -0.1345
63327W        W 6240   9.949  27.151  16.462  0.3103 -0.1105 -0.0954
63328W        W 6241  14.996  22.276  14.241 -0.0231 -0.1070  0.2497
63329W        W 6242   5.469  22.990  17.463 -0.0936 -0.0536  0.0413
63330W        W 6243   5.823  34.197  19.926 -0.3278 -0.1895  0.0645
63331W        W 6244   8.205  22.401  17.597  0.0534  0.2421  0.1141
63332W        W 6245   9.122  21.731  23.134 -0.1801  0.2179  0.0825
63333W        W 6246   5.748  21.757  20.005 -0.0527 -0.0929  0.0174
63334W        W 6247  17.643  30.792  22.551 -0.0055  0.0908  0.0731
63335W        W 6248   6.172  30.513  20.285  0.1605 -0.1307  0.1186
63336W        W 6249  15.312  26.220  20.463 -0.1025 -0.0614 -0.2655
63337W        W 6250   4.047  25.463  22.386 -0.1666  0.0859  0.4039
63338W        W 6251   8.662   4.226  18.100 -0.0101 -0.0546 -0.1355
63339W        W 6252  10.927  28.717  15.612  0.2194 -0.1660  0.2005
63340W        W 6253   3.400  22.224  16.825  0.3586 -0.0879 -0.1990
63341W        W 6254  22.153  19.481  16.697  0.0430  0.1107 -0.1112
63342W        W 6255  19.189   0.938  20.187  0.1753 -0.0645  0.0033
63343W        W 6256  20.970  26.183  20.750 -0.2943 -0.0533 -0.2080
63344W        W 6257  15.719  29.075  15.664 -0.2379  0.1000  0.0523
63345W        W 6258  10.887  17.801  16.483  0.1512 -0.1788 -0.0822
63346W        W 6259  17.335   6.626  16.792  0.0168  0.0630 -0.0068
63347W        W 6260   5.119  21.435  19.218  0.0098 -0.1910 -0.0445
63348W        W 6261   9.786  25.373  24.655  0.1188  0.1132  0.3029
63349W        W 6262  11.305   5.649  22.204 -0.1460  0.1098  0.0642
63350W        W 6263  20.246  17.646  21.984 -0.4206  0.0617  0.0302
63351W        W 6264  11.803  23.924  14.579  0.0484  0.2731 -0.1130
63352W        W 6265   8.077  13.805  17.857  0.2253  0.1089 -0.0825
63353W        W 6266  12.092  26.662  20.274  0.0476 -0.2763 -0.2861
63354W        W 6267  13.673  29.889  18.262 -0.1701 -0.0753  0.0596
63355W        W 6268  17.407  29.926  16.387 -0.0051  0.1702  0.0874
63356W        W 6269  22.726  27.762   1.865  0.3533  0.2360  0.3753
63357W        W 6270   5.688  28.128  15.837 -0.1512 -0.0959  0.2072
63358W        W 6271  23.587  24.642  24.642 -0.1319 -0.0868  0.0143
63359W        W 6272  19.273  24.849  18.809 -0.0208 -0.2679  0.1892
63360W        W 6273   7.279  29.048  17.521 -0.1104  0.4077 -0.0198
63361W        W 6274  18.611  14.182  15.043 -0.3470 -0.0922 -0.0761
63362W        W 6275  22.693  25.368  21.983 -0.1219 -0.1519  0.2122
63363W        W 6276   9.113  26.842  16.604 -0.1618  0.0970  0.1142
63364W        W 6277  33.330  31.873  23.193  0.3159 -0.0449  0.3770
63365W        W 6278  28.401  18.889  25.042  0.1075  0.0587  0.3357
63366W        W 6279  18.519  32.988  15.440 -0.0474  0.2101 -0.2595
63367W        W 6280  11.208   1.789  21.303 -0.0541 -0.0803  0.1870
63368W        W 6281   3.937  24.650  23.860  0.1096 -0.0803 -0.1269
63369W        W 6282  15.245  25.727  14.105  0.0145 -0.1039  0.0355
63370W        W 6283  13.115  26.184  19.019 -0.2724  0.0248  0.0509
63371W        W 6284  12.555   6.435  20.370 -0.1174 -0.3358 -0.0138
63372W        W 6285  15.282  34.459  26.713 -0.2530  0.2514 -0.0117
63373W        W 6286  11.093   7.715  23.483  0.3803  0.0569 -0.4343
63374W        W 6287  11.798  19.583  17.403  0.0527 -0.2838  0.0535
63375W        W 6288  18.180  22.331  14.184  0.0380  0.3534 -0.1651
63376W        W 6289  24.745  20.997  15.612  0.2198  0.0933 -0.0209
63377W        W 6290  20.497   0.688  21.719  0.1379 -0.1351  0.1560
63378W        W 6291   3.489  26.051  18.257  0.1521 -0.1176  0.2188
63379W        W 6292   2.853  30.568  21.271 -0.3131 -0.1607  0.1072
63380W        W 6293  19.565  14.787  13.539  0.1343 -0.0731 -0.2863
63381W        W 6294  15.971  21.135  24.361 -0.0237  0.0607  0.1453
63382W        W 6295  19.712  25.958  24.002 -0.4788  0.0288  0.2469
63383W        W 6296  19.301  14.040  12.450  0.0654  0.1613  0.3220
63384W        W 6297  21.025  16.804  14.204 -0.2501 -0.0332 -0.0400
63385W        W 6298  30.569  30.035  18.665 -0.1312  0.2168 -0.1102
63386W        W 6299  10.794  28.111  20.262 -0.1454  0.4785 -0.1085
63387W        W 6300  22.106  10.996  13.601  0.3186 -0.2117  0.0899
63388W        W 6301   6.663  31.252  26.114  0.0495 -0.0516 -0.1541
63389W        W 6302  21.684  25.518  13.910 -0.0354 -0.2446 -0.2193
63390W        W 6303  24.038  26.950  14.966 -0.0874 -0.1567  0.2455
63391W        W 6304  16.979  33.559  23.267  0.4522 -0.1014  0.0387
63392W        W 6305  15.855   0.927  16.535 -0.1815 -0.0726 -0.0611
63393W        W 6306  20.864  22.767  13.118  0.2428  0.0312  0.4129
63394W        W 6307   0.110  22.045  25.437 -0.1301  0.0709  0.2479
63395W        W 6308  17.817  11.816  27.780 -0.0685 -0.1532 -0.0719
63396W        W 6309  11.122  25.439  16.822  0.2389  0.1795 -0.0632
63397W        W 6310  17.779  31.549  25.569 -0.0601 -0.1787 -0.0635
63398W        W 6311  10.812  30.512  16.601 -0.1397  0.0956 -0.0098
63399W        W 6312  25.334   1.513  18.058 -0.3526 -0.2074 -0.2943
63400W        W 6313  13.924  24.277  26.511  0.1884  0.0185  0.0201
63401W        W 6314  15.688  25.515  22.274 -0.0810 -0.0037  0.1685
63402W        W 6315   3.711  27.758  19.476 -0.1507  0.2814  0.0938
63403W        W 6316  13.739  32.804  17.461  0.2267 -0.4097 -0.2684
63404W        W 6317  21.464   0.693  16.205 -0.0206 -0.1375 -0.0074
63405W        W 6318  12.700  28.912  18.847 -0.1090  0.1133 -0.0890
63406W        W 6319  19.888  21.789  19.366 -0.3892 -0.1066  0.1092
63407W        W 6320  16.639  27.686  18.580 -0.1080  0.0047 -0.0756
63408W        W 6321   7.909  28.874  20.939  0.0622 -0.0393 -0.2537
63409W        W 6322   7.120  34.263  18.584 -0.0094  0.1000  0.0003
63410W        W 6323  28.524  22.472   4.194  0.0448  0.0680  0.1321
63411W        W 6324  17.331  31.067  28.754  0.0895 -0.1327 -0.0287
63412W        W 6325  14.941  17.178  25.845  0.0147 -0.1186  0.0652
63413W        W 6326  16.509  33.048  24.032  0.0878  0.2287  0.2927
63414W        W 6327   9.529  22.902  17.807 -0.0003 -0.0921  0.2810
63415W        W 6328  13.650  28.831  18.599  0.0272  0.0223 -0.0755
63416W        W 6329  23.561  32.741  22.933 -0.0471 -0.3142  0.3909
63417W        W 6330  12.069  20.159  17.611 -0.3003  0.2856 -0.0404
63418W        W 6331  14.682  28.055  22.255  0.0543  0.0377  0.2555
63419W        W 6332  10.827  20.444  15.133 -0.1709 -0.1850  0.1906
63420W        W 6333   4.085  14.736  17.375  0.2144  0.5809 -0.0774
63421W        W 6334  17.166  13.829  12.294  0.1879  0.0337 -0.0914
63422W        W 6335  20.574   1.727  15.428  0.1526  0.0101 -0.0528
63423W        W 6336  23.383  26.264  16.709 -0.0808  0.1705  0.0104
63424W        W 6337   8.471  23.624  22.100  0.2227 -0.0341 -0.1370
63425W        W 6338  10.707  24.244  17.326 -0.1739 -0.0722  0.0191
63426W        W 6339  13.320  24.500  17.453  0.0965 -0.0254 -0.1838
63427W        W 6340  12.061  26.481  23.057  0.0205 -0.1485 -0.0946
63428W        W 6341  12.753  30.399  16.367 -0.0185 -0.3111  0.2280
63429W        W 6342  13.202  30.775  18.535 -0.1085  0.0181  0.0496
63430W        W 6343  14.119  26.886  23.816 -0.2257  0.0776  0.0873
63431W        W 6344   7.834  24.761  15.013 -0.4801 -0.0452 -0.1784
63432W        W 6345   6.154  32.073  22.407 -0.3493 -0.0999  0.0104
63433W        W 6346  20.349  24.125  24.430  0.0525  0.0411 -0.3173
63434W        W 6347  14.300  23.984  14.709  0.2799 -0.3859  0.1445
63435W        W 6348  11.275  13.007  25.085 -0.1249 -0.0032 -0.1416
63436W        W 6349  16.208  26.088  14.650 -0.1236 -0.0728  0.0987
63437W        W 6350   7.629   0.669  18.604  0.0035  0.0458 -0.1927
63438W        W 6351  16.386  15.996  12.644  0.1360  0.6870  0.2601
63439W        W 6352  29.976  20.420  16.764 -0.4268  0.0659 -0.2588
63440W        W 6353   3.752  20.899  17.354  0.0763  0.3262 -0.0119
63441W        W 6354   6.867  22.785  23.353  0.0725  0.4922 -0.1916
63442W        W 6355  13.885  16.968  12.182  0.0125 -0.1865  0.1047
63443W        W 6356  17.221  18.010  12.029 -0.3039  0.0883  0.0094
63444W        W 6357   5.575  24.208  14.471 -0.0730 -0.1333 -0.1852
63445W        W 6358  17.046  24.342  27.025 -0.3072  0.4918  0.0128
63446W        W 6359  10.490   8.549  17.216 -0.0933 -0.4635  0.1489
63447W        W 6360  22.450  21.264  19.206 -0.2176  0.1015 -0.0810
63448W        W 6361  12.599  26.099  21.301  0.2293 -0.1042 -0.2508
63449W        W 6362  14.228  23.508  18.510 -0.1197  0.1832 -0.2909
63450W        W 6363  22.281  32.235  14.127  0.1299 -0.2325  0.1461
63451W        W 6364  11.456  23.334  16.545 -0.1440  0.1493 -0.2716
63452W        W 6365  14.451   4.496  23.247  0.1497 -0.0731  0.3049
63453W        W 6366  13.305  16.014  12.508 -0.1961  0.0740  0.4025
63454W        W 6367  13.461  30.070  16.315 -0.0240 -0.0811 -0.0960
63455W        W 6368  26.832   4.468  19.617  0.2244 -0.4070  0.4473
63456W        W 6369   7.792  24.000  14.502 -0.1320 -0.1897 -0.2019
63457W        W 6370  11.790  23.129  14.973  0.0755  0.0140 -0.2038
63458W        W 6371  14.050  22.647  26.716 -0.2957 -0.3256 -0.1298
63459W        W 6372   9.557  27.951  17.250  0.0077 -0.0956 -0.1368
63460W        W 6373  15.065  12.162  18.478 -0.0409 -0.1523 -0.2847
63461W        W 6374  14.994  24.169  23.429  0.2292 -0.0332  0.2567
63462W        W 6375  12.065   2.735  22.207  0.2771  0.0085 -0.0310
63463W        W 6376  15.355  31.225  19.668  0.2091 -0.0865  0.0137
63464W        W 6377  16.254  32.684  16.741 -0.0847 -0.2548  0.1104
63465W        W 6378   5.297  15.200  18.645  0.0066  0.1419  0.1741
63466W        W 6379   3.194  25.708  21.921  0.0761 -0.1060 -0.2698
63467W        W 6380   4.508  21.306  18.406 -0.1393  0.0539  0.0332
63468W        W 6381   7.627  26.692  25.151 -0.0180 -0.1718 -0.2867
63469W        W 6382  12.711  19.215  21.829  0.0348 -0.2402 -0.6359
63470W        W 6383   1.992  27.937  21.693  0.1473 -0.0576  0.0843
63471W        W 6384  17.203  31.803  16.003 -0.0370 -0.1689 -0.0103
63472W        W 6385  16.290  31.852  23.719  0.1274  0.2511 -0.4027
63473W        W 6386  10.001  18.350  13.653 -0.0397  0.0446 -0.0077
63474W        W 6387  22.759  24.902  15.004 -0.1069 -0.1982 -0.1378
63475W        W 6388   3.020  21.412  19.107 -0.1273  0.1758 -0.2372
63476W        W 6389  10.157  26.373  17.301 -0.2819  0.3391  0.0137
63477W        W 6390  15.290  20.958  13.961 -0.1264 -0.1272 -0.0035
63478W        W 6391   7.355  24.652  23.308 -0.1510  0.2326 -0.3248
63479W        W 6392   0.884  27.026  21.328  0.0185 -0.0277  0.0039
63480W        W 6393  12.730  22.846  16.714 -0.2347  0.1556 -0.4002
63481W        W 6394  19.933  24.159  17.179 -0.0976 -0.0699 -0.1468
63482W        W 6395   7.200  22.953  27.181 -0.3346  0.0171 -0.1068
63483W        W 6396  11.599  14.876  18.237 -0.1389 -0.0243  0.2644
63484W        W 6397  13.007   8.394  15.224 -0.0529 -0.0690 -0.1545
63485W        W 6398   8.984  23.315  14.639  0.0723 -0.1487 -0.2841
63486W        W 6399  16.244  24.890  15.833  0.2465 -0.1052  0.0595
63487W        W 6400   2.937  18.962  17.657  0.2740 -0.0962 -0.0967
63488W        W 6401  19.174  28.328  17.753  0.1909  0.0898 -0.0568
63489W        W 6402   9.240  30.840  23.677  0.1100 -0.1691 -0.1444
63490W        W 6403  20.157  24.247  15.792  0.0183 -0.0756  0.1923
63491W        W 6404  25.838  28.923  13.156 -0.0999  0.0833 -0.2351
63492W        W 6405   3.648  31.818  16.312  0.0563  0.2000 -0.4338
63493W        W 6406   4.664  25.256  17.441  0.0013  0.0233 -0.1025
63494W        W 6407  20.143  25.482  18.404  0.1548 -0.0151  0.0386
63495W        W 6408  20.471  13.365  11.774 -0.1003  0.1455  0.0510
63496W        W 6409  12.391  26.699  15.123  0.2548  0.0659  0.0997
63497W        W 6410   7.394  30.902  16.540  0.0727 -0.1410  0.0015
63498W        W 6411   1.926  20.365  18.551  0.1216  0.1621  0.3986
63499W        W 6412  21.310  33.027  17.673  0.2092  0.0384  0.1956
63500W        W 6413   9.246  26.333  17.601 -0.2894 -0.4421 -0.1640
63501W        W 6414  22.243  14.962  15.728 -0.0246  0.1931  0.2712
63502W        W 6415   2.614  23.832  22.048  0.0809  0.0838 -0.3374
63503W        W 6416  11.882  24.198  21.072 -0.0991 -0.2414 -0.2249
63504W        W 6417   5.480  27.630  20.309  0.0590  0.1739 -0.2209
63505W        W 6418  15.215  26.433  21.267  0.0698 -0.1702  0.1878
63506W        W 6419  20.196  33.963  20.869  0.0676 -0.0728 -0.1980
63507W        W 6420   6.895  19.540  22.420 -0.0665  0.0864  0.3273
63508W        W 6421  12.023  26.471  24.805 -0.2592  0.1626 -0.1695
63509W        W 6422  22.266  22.644  15.740  0.1431 -0.1974  0.1020
63510W        W 6423  13.904  17.882  16.205 -0.0493 -0.0766  0.1851
63511W        W 6424  14.474  16.993  12.420 -0.3036 -0.3206  0.0014
63512W        W 6425  17.488  25.704  22.953 -0.0603  0.1205 -0.0327
63513W        W 6426  10.948  23.429  20.481 -0.0102 -0.1867  0.2478
63514W        W 6427   6.158  27.549  19.102  0.4527 -0.2000  0.1853
63515W        W 6428  23.925  20.650  16.808 -0.2292  0.1248 -0.3316
63516W        W 6429  23.837  22.902  20.331  0.0426  0.1077 -0.5408
63517W        W 6430  18.846  33.840  15.064 -0.1467  0.1623 -0.4252
63518W        W 6431   3.714  23.303  21.508  0.3381  0.1581 -0.0164
63519W        W 6432  16.426  25.654  14.777 -0.1259  0.1650  0.1572
63520W        W 6433  20.142  33.607  17.943 -0.0354  0.0253  0.0461
63521W        W 6434   6.257  28.242  26.904 -0.1675  0.1859  0.1159
63522W        W 6435  21.207  28.355  16.675 -0.0836  0.1310  0.1620
63523W        W 6436   8.791  22.151  18.901 -0.1029 -0.0512 -0.3234
63524W        W 6437  26.873  22.120  14.142  0.0055 -0.2877  0.2358
63525W        W 6438  16.567   6.378  28.961  0.0067 -0.3712 -0.0539
63526W        W 6439  20.986  34.388  19.246 -0.0736 -0.1272 -0.1039
63527W        W 6440  14.945  30.136  21.172 -0.3145 -0.4717 -0.0134
63528W        W 6441  17.755  29.456  24.458 -0.0486 -0.1449 -0.1144
63529W        W 6442  21.564  29.145  22.429 -0.0527 -0.0701  0.4069
63530W        W 6443  16.394  28.659  19.587 -0.0468 -0.1908 -0.2001
63531W        W 6444   4.370  23.940  15.522 -0.1881  0.0479  0.0084
63532W        W 6445   5.175  23.855  24.323 -0.1726  0.2426  0.0613
63533W        W 6446  12.734  33.382  20.975  0.3087 -0.1190 -0.0380
63534W        W 6447  19.866  15.136  13.878  0.0775 -0.0737 -0.0913
63535W        W 6448  14.153  33.037  20.453 -0.0446  0.2499 -0.2405
63536W        W 6449   9.579  32.760  18.094 -0.5229  0.4248  0.0639
63537W        W 6450  24.995  21.005  20.613  0.0772  0.0132 -0.1246
63538W        W 6451   1.513  21.197  20.927  0.0387 -0.4153 -0.5178
63539W        W 6452  13.806  31.476  21.898  0.1016 -0.0009  0.0370
63540W        W 6453  24.720   2.600  17.820  0.3087 -0.3314 -0.2814
63541W        W 6454   7.463   1.304  19.277  0.1238  0.0590  0.1051
63542W        W 6455  14.645  26.534  22.026 -0.4059  0.0903 -0.0105
63543W        W 6456   2.388  23.679  19.108  0.0341  0.3052  0.2099
63544W        W 6457   5.203  24.270  24.963 -0.2253  0.0394  0.0664
63545W        W 6458  13.911  28.979  20.110  0.3175 -0.1706 -0.3258
63546W        W 6459   8.277  19.623  15.568  0.0393  0.2999  0.1358
63547W        W 6460   8.211  20.406  17.590  0.1840  0.4299 -0.2005
63548W        W 6461  18.034  24.196  18.337  0.2457  0.1168 -0.0150
63549W        W 6462  30.765  33.574  29.540  0.0031  0.3666 -0.2081
63550W        W 6463   0.921  25.271  15.829 -0.3821  0.4875 -0.0698
63551W        W 6464  15.443  33.879  18.032  0.0485 -0.0110  0.1377
63552W        W 6465  19.257  24.401  16.055 -0.2368  0.2032 -0.2043
63553W        W 6466   5.359  30.240  17.222 -0.0587 -0.2812  0.1947
63554W        W 6467  22.554  25.678  19.024 -0.1782  0.4530  0.0329
63555W        W 6468   7.206  17.991  18.791 -0.3239  0.2881 -0.1579
63556W        W 6469  10.229  23.253  17.121 -0.0899 -0.0637 -0.1406
63557W        W 6470  19.453  25.503  22.887  0.0402  0.1754 -0.3753
63558W        W 6471  18.363  22.688  16.993  0.1829  0.0834 -0.1597
63559W        W 6472  20.016  30.032  24.382  0.0657 -0.1108 -0.0617
63560W        W 6473  10.621  25.712  15.838 -0.0287  0.0405 -0.0313
63561W        W 6474  15.601   3.841  16.276 -0.4839 -0.1367  0.3143
63562W        W 6475  10.477  23.822  17.130  0.0930 -0.1247  0.1714
63563W        W 6476   6.041  21.607  22.715  0.2869 -0.3348  0.0432
63564W        W 6477   8.761  20.987  17.832  0.2443  0.0635 -0.2947
63565W        W 6478  11.749  31.288  23.345 -0.0165  0.0908  0.0813
63566W        W 6479  13.624  24.372  17.057  0.0475  0.1266 -0.0074
63567W        W 6480  14.618  18.894  14.822 -0.1854  0.0945  0.4030
63568W        W 6481  20.283  27.300  16.865 -0.1386 -0.0493 -0.1116
63569W        W 6482   9.158  33.380  20.454  0.2122  0.1501  0.1099
63570W        W 6483  18.313  29.654  15.705  0.2140  0.1437  0.3082
63571W        W 6484  11.204  22.555  17.182  0.0168 -0.0472  0.3071
63572W        W 6485   4.556  17.815  22.750  0.1686 -0.0494 -0.0279
63573W        W 6486   7.326  30.490  18.576  0.0955  0.0722  0.2650
63574W        W 6487   9.855  30.462  23.372 -0.0998  0.4191  0.1715
63575W        W 6488  23.219  13.717  18.237 -0.2396  0.0658  0.0831
63576W        W 6489  23.168  31.087  21.743 -0.1747 -0.3383 -0.2422
63577W        W 6490  18.304  21.824  20.483  0.0261 -0.2345 -0.1363
63578W        W 6491  32.704  16.903  17.806  0.1618 -0.0329  0.0043
63579W        W 6492  22.267  22.215  19.683 -0.0308  0.0884 -0.0176
63580W        W 6493  23.276  20.930  19.581  0.0977  0.0822  0.0718
63581W        W 6494  19.378  33.291  15.574 -0.1028 -0.1271  0.0959
63582W        W 6495  10.121  30.803  20.151 -0.0944  0.1786  0.1582
63583W        W 6496  16.166  29.008  19.127 -0.1397  0.0123  0.1355
63584W        W 6497   1.490  30.366  14.463  0.0161 -0.4254 -0.1954
63585W        W 6498   2.859  17.339  22.051 -0.1193 -0.1236 -0.0689
63586W        W 6499  13.480  24.614  17.948 -0.3823 -0.0934 -0.1259
63587W        W 6500  12.120  16.799  16.059 -0.1757 -0.0454  0.6579
63588W        W 6501  12.389  23.376  15.235 -0.0544 -0.3710  0.0311
63589W        W 6502   8.847  31.962  21.170 -0.0891  0.2983  0.2522
63590W        W 6503  10.059  21.369  22.645  0.0430 -0.0857 -0.1083
63591W        W 6504  14.633  31.658  17.915 -0.1842 -0.2799  0.0619
63592W        W 6505   7.564  29.490  22.376 -0.1228 -0.1094  0.0100
63593W        W 6506   5.844  31.484  17.038 -0.0810  0.0584  0.3769
63594W        W 6507  23.379  25.863  15.784  0.2017 -0.0540  0.1380
63595W        W 6508   0.471  32.929  21.445 -0.2836 -0.0837  0.0560
63596W        W 6509  12.802  24.297   0.671  0.0973  0.1958 -0.3048
63597W        W 6510  23.971  23.056  13.141 -0.1296  0.1994 -0.0093
63598W        W 6511  33.606  30.958  17.398  0.1293 -0.0111  0.0207
63599W        W 6512  18.674  23.297  12.929  0.0640  0.1003  0.1784
63600W        W 6513  22.034  21.591  13.610 -0.0099 -0.1133  0.0284
63601W        W 6514  28.634  26.837  22.971 -0.2631  0.0102  0.0837
63602W        W 6515  21.401  27.281  16.907  0.1675 -0.0043  0.1711
63603W        W 6516  15.600  26.346  19.735  0.0924 -0.1150  0.0200
63604W        W 6517   9.484  15.866  18.882 -0.1284  0.2819 -0.0828
63605W        W 6518   7.539   3.128  26.566 -0.1739 -0.2294  0.1064
63606W        W 6519   6.691  24.730  18.221  0.2210 -0.2848  0.1058
63607W        W 6520  13.196  31.453  17.338  0.0519  0.0651 -0.0439
63608W        W 6521  10.481  13.426  18.869  0.0826 -0.3310 -0.1790
63609W        W 6522  19.868  24.100  17.714 -0.2167  0.1987  0.2297
63610W        W 6523  21.770  23.716  13.940 -0.3349  0.1472  0.1539
63611W        W 6524  15.364  29.946  16.151 -0.0774 -0.0656  0.2519
63612W        W 6525  13.856  26.414  21.808 -0.7220  0.0872  0.0371
63613W        W 6526   5.853   0.409   5.422 -0.0358 -0.1925 -0.4047
63614W        W 6527  19.370  31.391  17.328 -0.0699 -0.3527 -0.0793
63615W        W 6528  13.924  25.618  16.028 -0.0201 -0.0273  0.1956
63616W        W 6529   5.899   2.611  17.868  0.1225  0.1665  0.1098
63617W        W 6530  19.399  30.457  15.285 -0.0960 -0.1762  0.1634
63618W        W 6531  22.734  20.994  13.655  0.1236  0.0687  0.0381
63619W        W 6532  27.593  29.131  18.938  0.0316 -0.1636  0.1209
63620W        W 6533   5.546  24.119  18.593  0.1186 -0.1738  0.0271
63621W        W 6534  14.345  29.263  20.017 -0.0595 -0.0241 -0.1293
63622W        W 6535  10.674  28.186  16.860  0.0159 -0.0416 -0.1839
63623W        W 6536  10.640  27.595  16.128 -0.3080 -0.1419 -0.1307
63624W        W 6537   5.796  25.501  14.621 -0.3679  0.0697  0.1959
63625W        W 6538   3.314  26.926  18.418  0.2667  0.2283  0.2470
63626W        W 6539  12.116  33.267  23.624  0.0301 -0.1197 -0.0623
63627W        W 6540   1.772  31.715  17.321 -0.0683  0.0647  0.3926
63628W        W 6541  12.099  27.813  19.413  0.0168 -0.2454  0.1967
63629W        W 6542  22.462  33.374  16.990  0.0595  0.2001  0.2840
63630W        W 6543  21.071  16.425  15.829 -0.1014 -0.3459 -0.0138
63631W        W 6544  23.831  17.666  18.753 -0.0771 -0.1638  0.3253
63632W        W 6545  17.494  17.137  12.991 -0.2353  0.1847 -0.1604
63633W        W 6546   4.680  19.226  15.370 -0.1379 -0.1739 -0.2948
63634W        W 6547   4.484  22.894  15.351 -0.2891  0.3255  0.6261
63635W        W 6548  14.917  26.348  16.252 -0.2936  0.2193  0.3246
63636W        W 6549   8.402  18.536  15.582 -0.1544  0.0162  0.2647
63637W        W 6550  11.242   0.381  17.006 -0.0212 -0.0923 -0.2537
63638W        W 6551  10.707  28.802  16.707  0.1559 -0.2500  0.2553
63639W        W 6552  26.760  32.313  18.889  0.4097 -0.1120 -0.0169
63640W        W 6553   5.155  28.607  22.126  0.0784 -0.1009  0.0108
63641W        W 6554  13.317  17.573  23.676 -0.1239  0.0347  0.0420
63642W        W 6555  21.167  21.327  19.432  0.2899 -0.2404 -0.0950
63643W        W 6556  15.542  26.949  19.675 -0.1590  0.1297  0.1523
63644W        W 6557  11.626  28.808  16.720 -0.0329  0.3012  0.2710
63645W        W 6558  15.191  30.491  26.663 -0.0729  0.2909 -0.2780
63646W        W 6559   7.916  24.173  19.256 -0.0801 -0.0247  0.1494
63647W        W 6560  11.729  18.161  17.513  0.1194 -0.0877  0.1844
63648W        W 6561  15.993  14.679  12.525  0.3148 -0.1171 -0.0665
63649W        W 6562  16.764   4.472  17.750  0.1154 -0.0590  0.1003
63650W        W 6563  13.306  34.308  19.451  0.0019 -0.0548 -0.1373
63651W        W 6564   8.065  22.164  14.141 -0.0707  0.2536 -0.0509
63652W        W 6565  18.192  17.099  12.878  0.0852  0.0933 -0.2543
63653W        W 6566  18.213  31.227  19.656 -0.0209  0.0680  0.1547
63654W        W 6567  17.223  30.374  16.540 -0.2798 -0.0583  0.1000
63655W        W 6568   8.350  30.505  16.574 -0.1838 -0.1072 -0.2983
63656W        W 6569   6.303  34.006  16.429  0.3325  0.2376  0.3575
63657W        W 6570   7.976   2.570  20.147  0.3322  0.0689  0.2714
63658W        W 6571  13.407  23.690  15.990  0.1713 -0.0447 -0.0726
63659W        W 6572   5.066  22.673  22.523  0.0952  0.2110 -0.2478
63660W        W 6573  29.125  26.356  14.804  0.1326 -0.0466 -0.0114
63661W        W 6574   7.097  25.825  18.930  0.2261  0.0844  0.0858
63662W        W 6575  15.449  31.427  20.210 -0.2094  0.1567  0.0790
63663W        W 6576   4.818  32.301  16.832  0.0103  0.1203  0.2731
63664W        W 6577  13.286  26.399  15.465  0.1163 -0.1588  0.1261
63665W        W 6578  16.644  23.379  15.500 -0.0063 -0.1023  0.2750
63666W        W 6579   6.287   0.685  20.104 -0.2004  0.1311 -0.1365
63667W        W 6580  26.451  31.300  15.652 -0.1257 -0.1036 -0.2717
63668W        W 6581  18.064  26.835  22.101  0.0052 -0.0769 -0.0058
63669W        W 6582  25.965  25.085  22.685 -0.1154  0.1785 -0.1024
63670W        W 6583   1.316  16.773  25.397  0.2860  0.0480  0.0092
63671W        W 6584  18.989  22.006  16.591 -0.0457  0.3879  0.3828
63672W        W 6585  32.730  28.511  23.770  0.0530 -0.4271 -0.0224
63673W        W 6586  11.449  22.654  14.259 -0.0643  0.3366  0.0165
63674W        W 6587  27.868   4.327  17.506 -0.0388  0.0580  0.0174
63675W        W 6588  24.323  27.906  17.484 -0.1844  0.1014  0.2456
63676W        W 6589  15.405  30.017  17.523  0.0045  0.1350  0.2820
63677W        W 6590   7.398  19.240  18.476  0.2209  0.0193 -0.1601
63678W        W 6591   4.783   0.577  20.200 -0.2409 -0.2325 -0.0360
63679W        W 6592  25.127  22.554  17.127  0.1480  0.2083 -0.1407
63680W        W 6593   7.177  20.967  21.957  0.0054 -0.0876  0.0373
63681W        W 6594   8.941  30.541  29.351 -0.3878  0.2379  0.0052
63682W        W 6595   8.411  23.876  17.360 -0.1578 -0.0944  0.2288
63683W        W 6596  26.488  26.249  18.399 -0.0469  0.3538  0.0775
63684W        W 6597   2.737  18.176   3.413  0.0277  0.3781  0.1519
63685W        W 6598   5.213  33.224  23.456 -0.0739  0.0713  0.2727
63686W        W 6599  13.230   0.608  26.729 -0.0694  0.0541  0.0209
63687W        W 6600   8.074  24.659  19.154 -0.3155 -0.0274  0.1069
63688W        W 6601   7.501  31.278  19.638 -0.0152 -0.0485 -0.1715
63689W        W 6602  34.053  23.267  29.779 -0.0205 -0.1424  0.0650
63690W        W 6603   9.598  23.189   1.200  0.2448 -0.2138 -0.2607
63691W        W 6604  11.270  25.062  23.161 -0.2742  0.2324  0.1870
63692W        W 6605  25.224  31.861  18.307 -0.0711  0.1223  0.2133
63693W        W 6606  13.733   0.070  22.437  0.2797  0.2786  0.0323
63694W        W 6607  24.209  23.693  26.547 -0.4135  0.1355 -0.0392
63695W        W 6608  12.631  28.252  19.764 -0.1262  0.2218 -0.2898
63696W        W 6609  22.079  29.772  13.862  0.2801 -0.1534  0.2725
63697W        W 6610   4.286  29.649  15.167 -0.1465  0.3131 -0.0331
63698W        W 6611  33.712  13.718  13.276 -0.2328  0.1841  0.1009
63699W        W 6612   6.079  28.623  20.879 -0.4182 -0.2438  0.0637
63700W        W 6613  13.277  31.217  20.533  0.1397 -0.0981 -0.1925
63701W        W 6614  15.817  27.711  21.385 -0.1916  0.1057  0.2073
63702W        W 6615  11.967  24.746  27.394  0.0267  0.1712 -0.0458
63703W        W 6616   4.624  24.966  25.066  0.1394 -0.0074  0.2122
63704W        W 6617  20.077  28.282  22.992  0.1223  0.0294  0.0616
63705W        W 6618  17.261  25.811  17.094  0.1452 -0.0417  0.0869
63706W        W 6619  33.270  23.533  21.246 -0.3080  0.1663  0.0514
63707W        W 6620  26.530  26.279  23.276 -0.1401  0.1628  0.1437
63708W        W 6621  15.426  22.580  19.412 -0.0323 -0.1259  0.1061
63709W        W 6622  20.513  26.362  14.312 -0.0774 -0.1936  0.2835
63710W        W 6623  23.858  31.840  15.056 -0.0384  0.2919  0.0462
63711W        W 6624  12.432  29.476  21.712 -0.3174 -0.0908 -0.3921
63712W        W 6625  11.973   1.243  19.292 -0.3022  0.0271 -0.0482
63713W        W 6626  16.217  29.182  21.364 -0.0716 -0.1219 -0.0658
63714W        W 6627   1.360  20.553  24.412 -0.4847  0.0459  0.0679
63715W        W 6628  12.577  24.905   5.029  0.0795 -0.0166 -0.2069
63716W        W 6629  16.466  21.683  20.957 -0.1997 -0.1073 -0.1753
63717W        W 6630  14.599  28.057  19.462  0.0167  0.1756 -0.2415
63718W        W 6631  19.331  33.054  16.671  0.1206  0.0861  0.0717
63719W        W 6632  17.548  30.349  18.564  0.1981 -0.1478 -0.2971
63720W        W 6633   8.678  19.432  21.813  0.2292  0.3373  0.0403
63721W        W 6634   7.669  19.563  27.682 -0.1682 -0.1119 -0.2405
63722W        W 6635  12.277  31.766  19.373  0.0598  0.0857 -0.0830
63723W        W 6636  26.840   0.886  26.245 -0.1331  0.2435 -0.0545
63724W        W 6637  14.999  23.985  21.594  0.1359 -0.0594  0.1004
63725W        W 6638  11.415  19.760  15.051 -0.2017 -0.1503  0.0488
63726W        W 6639  13.566  33.453  17.719 -0.2044  0.1706  0.0441
63727W        W 6640  15.836   4.218  21.946  0.0636  0.0698 -0.1319
63728W        W 6641  20.181  25.135  21.455  0.4230  0.0280 -0.1325
63729W        W 6642   6.591  22.684  25.414 -0.0074  0.0010 -0.0822
63730W        W 6643  15.423  21.379  21.511  0.0177 -0.0642  0.2503
63731W        W 6644  13.514  25.268  25.787 -0.1636 -0.0217  0.1003
63732W        W 6645   4.933  19.476  21.089 -0.0386 -0.0753 -0.1603
63733W        W 6646  17.684  28.936  15.736  0.2541  0.1943  0.0862
63734W        W 6647  16.313  22.808  24.373 -0.1545  0.0489  0.1441
63735W        W 6648  30.571  25.870   4.391 -0.0925 -0.3415 -0.1640
63736W        W 6649  33.792  25.252  20.052 -0.1118 -0.0181 -0.0174
63737W        W 6650  13.606  33.793  20.850  0.3092  0.1800  0.2210
63738W        W 6651   5.226  33.632  24.832 -0.0517  0.0911 -0.0765
63739W        W 6652   6.829  29.953  18.930 -0.2333  0.3692 -0.1676
63740W        W 6653  11.231  29.913  21.143 -0.2195  0.0145  0.3542
63741W        W 6654   8.686  33.109  18.081  0.0987  0.1243 -0.0215
63742W        W 6655  19.858  29.688  17.680 -0.0624  0.0557  0.0460
63743W        W 6656  16.775  25.933  24.317  0.2998 -0.1597  0.1921
63744W        W 6657  12.776  32.631  23.445  0.1332  0.0718 -0.1888
63745W        W 6658   9.453  32.530  19.717 -0.0614 -0.0454 -0.4052
63746W        W 6659  10.451  31.368  20.721  0.3084  0.0719  0.0815
63747W        W 6660  19.539  30.186  21.361  0.1984  0.0768 -0.0270
63748W        W 6661  21.551   2.521  16.262 -0.2973  0.2150  0.0868
63749W        W 6662   2.452  18.750  24.497  0.1761  0.0079  0.0496
63750W        W 6663  17.486  27.510  14.732 -0.2250  0.1401 -0.0413
63751W        W 6664  10.804  20.484  21.193  0.1468 -0.3541  0.0348
63752W        W 6665  17.389  33.013  17.195  0.0861 -0.1801 -0.0588
63753W        W 6666  22.113  28.507  22.797 -0.0444  0.0514 -0.3927
63754W        W 6667   8.390  18.308  21.842 -0.0362 -0.0222  0.0699
63755W        W 6668  13.846  18.622  21.134 -0.2636  0.2317  0.1196
63756W        W 6669  12.081  29.716  16.520  0.5558  0.2733  0.0560
63757W        W 6670   1.708  29.281  20.001  0.2743 -0.0981  0.2120
63758W        W 6671  13.531  34.295  17.768 -0.0673  0.2553 -0.2850
63759W        W 6672  12.275  22.373  26.308 -0.0864  0.0241  0.4195
63760W        W 6673   3.324  31.518  16.863 -0.0294  0.3586  0.0677
63761W        W 6674  18.163  25.514  29.002  0.4809 -0.0083 -0.3935
63762W        W 6675   9.587  24.100  14.981  0.1131 -0.3130  0.0380
63763W        W 6676  17.661  23.937  20.580 -0.1632 -0.2009 -0.1473
63764W        W 6677  15.148  24.935  21.095  0.0802 -0.3079 -0.0053
63765W        W 6678  16.018  18.440  12.040 -0.0886 -0.1110  0.0394
63766W        W 6679  21.889   2.144  25.331 -0.0260  0.1588 -0.0486
63767W        W 6680  31.880  34.001  22.953 -0.3075 -0.1950  0.2727
63768W        W 6681  11.078   1.782  16.780  0.1006  0.2486 -0.0407
63769W        W 6682   3.192  27.184  14.876 -0.0948 -0.1916 -0.0085
63770W        W 6683  10.822  19.661  19.429  0.0533  0.2691  0.0920
63771W        W 6684  19.636  30.282  26.004  0.4114  0.0810  0.2762
63772W        W 6685  14.097  29.571  19.149  0.0727  0.0362 -0.0367
63773W        W 6686  19.455  26.547  21.598  0.0035 -0.2743 -0.2493
63774W        W 6687  19.823  27.802  22.819  0.2596  0.0382  0.2766
63775W        W 6688   1.255  20.381  18.356  0.0654  0.2537 -0.0362
63776W        W 6689  22.737  26.041  19.353 -0.4443  0.1483  0.1374
63777W        W 6690   7.848  28.480  23.242  0.1823 -0.1651  0.0241
63778W        W 6691  12.535  16.720  13.546  0.0994 -0.0670 -0.4294
63779W        W 6692  13.223  20.969  21.428  0.0871  0.1287 -0.2013
63780W        W 6693  17.945  24.043  13.977  0.1232 -0.0323  0.0672
63781W        W 6694  17.286  21.346  23.434  0.2377 -0.0832  0.1681
63782W        W 6695  27.271  29.860  25.861 -0.1503 -0.0631  0.1384
63783W        W 6696  12.159   6.510  21.945  0.2386  0.1900  0.1021
63784W        W 6697   9.302  19.546  16.424  0.0876 -0.1434 -0.1342
63785W        W 6698   4.327  32.883  17.827  0.3723 -0.1047 -0.0620
63786W        W 6699   4.210  23.069  20.410  0.0768 -0.0103 -0.0803
63787W        W 6700  33.424  26.994  23.561  0.0894 -0.1592  0.0028
63788W        W 6701  14.408   2.506  16.199 -0.1051  0.4375 -0.1192
63789W        W 6702  13.037  27.512  28.763  0.2581  0.0582  0.0928
63790W        W 6703  15.455  17.327  14.842  0.4255  0.3677  0.1240
63791W        W 6704  17.325  18.702  14.898  0.0223  0.1568 -0.0824
63792W        W 6705   2.871  28.625  15.796  0.3640 -0.0894 -0.1403
63793W        W 6706  20.745  27.460  20.105  0.2085  0.1527 -0.1741
63794W        W 6707   5.503  25.922  18.629 -0.3510  0.1623 -0.0784
63795W        W 6708   9.149   4.242  23.166  0.0246  0.0108 -0.0730
63796W        W 6709   9.734  34.356  19.764 -0.0088 -0.1428 -0.1505
63797W        W 6710  13.349  30.705  21.360  0.2778 -0.0218  0.3259
63798W        W 6711   9.615  21.460  14.498  0.0019 -0.3921 -0.0405
63799W        W 6712  14.748  25.696  24.629  0.0962  0.0135 -0.0033
63800W        W 6713  32.771  26.345  23.878  0.0338  0.2170  0.1278
63801W        W 6714  14.367  30.641  25.329 -0.0053  0.0606  0.1231
63802W        W 6715   6.653  19.842  27.723 -0.2544 -0.1576 -0.1564
63803W        W 6716  15.558  25.943  25.188 -0.0042 -0.0387  0.2113
63804W        W 6717  33.623   5.924  22.753 -0.2284  0.1715 -0.1976
63805W        W 6718  20.455  28.410  21.198 -0.1146  0.1158  0.2989
63806W        W 6719  12.980   0.408  21.629 -0.0585  0.0312  0.1953
63807W        W 6720  18.373   1.542  19.963 -0.0260 -0.1610  0.1817
63808W        W 6721  11.719  23.485  21.620 -0.0276 -0.1007  0.2193
63809W        W 6722  22.601  25.173  17.010 -0.1640 -0.1505  0.3647
63810W        W 6723  14.747  12.169  20.573  0.1368  0.1037  0.0793
63811W        W 6724  18.459  26.923  28.852  0.0049  0.1398 -0.0471
63812W        W 6725  34.478  24.613  26.028 -0.2165 -0.2668  0.1614
63813W        W 6726   5.079   2.188  17.522 -0.1627  0.1392 -0.0994
63814W        W 6727  10.352  28.526  20.066 -0.0460  0.0066 -0.1410
63815W        W 6728   5.129  26.546  20.659 -0.2099  0.0997 -0.1441
63816W        W 6729  13.520  23.598   0.419 -0.0484  0.3187 -0.1307
63817W        W 6730   7.888  33.537  22.842  0.2243 -0.1041 -0.2732
63818W        W 6731  11.393  33.597  25.982 -0.1341  0.0324  0.1458
63819W        W 6732   8.422  20.220  25.051 -0.0306  0.1020  0.2422
63820W        W 6733   9.285  21.280  27.896 -0.1381  0.1377  0.1273
63821W        W 6734  21.705  26.564  24.951  0.2649 -0.0334  0.1822
63822W        W 6735   6.461  30.754  22.095 -0.3612 -0.2517 -0.0862
63823W        W 6736  11.805  18.868  14.070  0.2171 -0.0946  0.1538
63824W        W 6737  25.161  17.183   3.732  0.0295  0.0464  0.0786
63825W        W 6738  12.514  25.300  15.988 -0.1915  0.2743 -0.0755
63826W        W 6739  20.384  20.203  20.799  0.1236 -0.1933 -0.1852
63827W        W 6740  15.237  18.771  27.764 -0.0494  0.1275 -0.2251
63828W        W 6741  10.960  21.171  26.969 -0.0911  0.0156 -0.0425
63829W        W 6742  17.821  20.894  26.385 -0.0204 -0.0207  0.3596
63830W        W 6743  11.789  20.344  19.628  0.0859  0.0815 -0.1278
63831W        W 6744   9.138  15.198  18.471 -0.1135  0.1573 -0.2002
63832W        W 6745   4.794  18.320   6.386 -0.2757 -0.0101  0.0829
63833W        W 6746  22.320  28.248  12.734  0.1385  0.0121  0.1285
63834W        W 6747   5.919  21.178  16.905  0.1162  0.4514  0.1780
63835W        W 6748  22.678  18.290  19.585  0.0150 -0.0378 -0.2483
63836W        W 6749  27.435   0.448  22.758  0.0912  0.1143 -0.2909
63837W        W 6750   5.784  24.488  14.822  0.0720 -0.1046 -0.1583
63838W        W 6751  16.064  26.888  17.412 -0.0235 -0.1808  0.0800
63839W        W 6752  28.080  28.028  19.556 -0.0837 -0.0093  0.1210
63840W        W 6753  23.266  25.373  15.361 -0.1874  0.1261  0.0848
63841W        W 6754  14.824  31.710  15.545  0.1957 -0.1305  0.4089
63842W        W 6755  14.488  32.761  20.722 -0.1482  0.1815 -0.0827
63843W        W 6756   7.390  26.041  18.019 -0.0485 -0.0511 -0.0355
63844W        W 6757   4.032  31.250  21.149 -0.0273 -0.1808 -0.1140
63845W        W 6758  11.530  28.319  17.514  0.1047 -0.1367 -0.1935
63846W        W 6759  12.820  12.421  13.073 -0.2540  0.1067  0.0830
63847W        W 6760  15.817  22.785  17.065  0.1464 -0.1595  0.1972
63848W        W 6761  21.994  25.186  20.862 -0.1318  0.0221 -0.0371
63849W        W 6762   9.624  20.173  19.332  0.0043 -0.0760  0.1274
63850W        W 6763   7.437  26.550  22.907 -0.1370 -0.4712 -0.1506
63851W        W 6764  10.333  26.891  18.146  0.2899 -0.2099 -0.1932
63852W        W 6765  19.866  34.377  20.743 -0.1077 -0.2970  0.2765
63853W        W 6766  13.955  24.040  18.863 -0.1037  0.0144 -0.1144
63854W        W 6767  24.001   0.854  16.874 -0.0223 -0.1893 -0.0416
63855W        W 6768  13.096  31.472  16.823  0.1475 -0.0181  0.5420
63856W        W 6769  10.105  24.670  15.698  0.0360  0.3330  0.1372
63857W        W 6770  23.220  23.157  16.127 -0.0492  0.1386 -0.0043
63858W        W 6771  18.336  27.976  22.690  0.2341 -0.0510  0.0560
63859W        W 6772  13.806  31.677  23.143  0.2895 -0.0334 -0.0588
63860W        W 6773   3.146  27.248  28.167  0.1469 -0.0950  0.2865
63861W        W 6774  21.568   1.438  16.637 -0.3204 -0.2216  0.2187
63862W        W 6775  15.513  30.397  20.745 -0.2645 -0.1742  0.2931
63863W        W 6776  15.835  25.983  20.569  0.0259 -0.0369 -0.1172
63864W        W 6777  12.344  18.258  20.234 -0.0590 -0.1538 -0.1736
63865W        W 6778  11.241   2.967  18.585 -0.1257 -0.1165 -0.1411
63866W        W 6779  21.736  33.356  19.005 -0.4439  0.2917 -0.1449
63867W        W 6780   9.974   2.039  21.811 -0.1677 -0.2236 -0.2849
63868W        W 6781  21.258  26.273  21.180 -0.1869  0.2022  0.0352
63869W        W 6782  22.334  21.387  12.540 -0.2374  0.3810  0.0191
63870W        W 6783  14.620  32.291  19.493 -0.4269  0.0612 -0.2091
63871W        W 6784   9.704  20.039  13.897 -0.4514  0.4529 -0.0589
63872W        W 6785  16.405  23.835  18.487 -0.1730  0.1750  0.1048
63873W        W 6786  20.035  26.178  27.516 -0.2588 -0.0815 -0.4012
63874W        W 6787   6.555  27.339  18.557  0.0109 -0.1344 -0.0213
63875W        W 6788   8.018  11.883  24.165  0.1083 -0.1045 -0.1268
63876W        W 6789  15.222  14.964  21.839  0.0214 -0.2212  0.0109
63877W        W 6790   8.672  19.912  17.622 -0.4822 -0.0726 -0.0922
63878W        W 6791   7.423  17.957  21.269  0.3285  0.1504  0.0946
63879W        W 6792   2.721  30.398  22.126 -0.2184 -0.5409 -0.4060
63880W        W 6793  22.134  33.955  15.861  0.1374 -0.1078 -0.0215
63881W        W 6794   7.354  28.575  18.682 -0.0520 -0.1400  0.2640
63882W        W 6795  24.347  31.183  17.519 -0.2385  0.1179 -0.1900
63883W        W 6796  22.211  12.410  16.894  0.0956  0.1748 -0.0071
63884W        W 6797  12.850  24.987  21.647  0.0926  0.3022  0.1364
63885W        W 6798  14.638  32.825  20.233 -0.1561 -0.1801 -0.2913
63886W        W 6799   7.330  21.001   6.208 -0.2029 -0.1201  0.0248
63887W        W 6800   4.490  15.124  17.597 -0.1739 -0.0387  0.1272
63888W        W 6801  16.194  23.842   3.230 -0.2356  0.1304 -0.2641
63889W        W 6802   5.204  29.623  18.934  0.0143  0.0596 -0.2107
63890W        W 6803   1.417  27.540  27.958  0.3689 -0.2189  0.5567
63891W        W 6804  19.443  25.635  20.981 -0.2746 -0.0429  0.0008
63892W        W 6805  14.486  19.938  21.386  0.2818 -0.1571  0.1457
63893W        W 6806   8.310  23.159  16.929 -0.1141  0.1446  0.1782
63894W        W 6807  12.774  27.660  18.239  0.0127 -0.1087 -0.0454
63895W        W 6808   9.536  21.000  14.346  0.2105 -0.0471  0.1186
63896W        W 6809  14.924  29.510  26.546  0.5404  0.0427  0.0150
63897W        W 6810  20.015  19.044  13.872 -0.1998 -0.2426  0.0929
63898W        W 6811  12.901  26.321  23.344 -0.2290  0.2377 -0.2858
63899W        W 6812  12.693  24.590  14.467  0.1031  0.0038  0.0144
63900W        W 6813  14.400  19.210  20.315  0.3761 -0.0758 -0.0877
63901W        W 6814  17.436  23.599  22.716  0.0273  0.0354 -0.3346
63902W        W 6815   8.476  28.589  22.969 -0.1817 -0.0837 -0.1230
63903W        W 6816  13.575  19.955   0.528 -0.0662  0.1357 -0.1141
63904W        W 6817  12.657  31.289  23.809 -0.2710  0.3647  0.1605
63905W        W 6818  21.805  28.058  18.831  0.1091  0.2451  0.0589
63906W        W 6819  14.098  26.926  26.328  0.1312 -0.0617  0.2842
63907W        W 6820  10.092  27.834   1.024 -0.2342 -0.0564 -0.2824
63908W        W 6821  21.784  31.031  21.783 -0.0057  0.0580 -0.1407
63909W        W 6822   9.008  27.348  24.292 -0.0972  0.3814  0.0891
63910W        W 6823   6.635  21.547  17.456  0.0814 -0.3076 -0.0476
63911W        W 6824  21.027  22.534  21.000 -0.2096  0.0388  0.4494
63912W        W 6825  17.224  12.314  22.602  0.0587  0.0250  0.1310
63913W        W 6826  25.220  28.918  17.665 -0.0708  0.1000  0.0024
63914W        W 6827   7.501  30.261  17.394 -0.1137  0.1962 -0.2660
63915W        W 6828   4.044  14.416  18.994  0.0254 -0.0783  0.2240
63916W        W 6829  11.128  23.391  14.763  0.0479 -0.0090  0.3147
63917W        W 6830  11.405  25.558  18.948  0.0476 -0.0447 -0.2246
63918W        W 6831   5.779  25.669  19.875  0.3282 -0.2145  0.0356
63919W        W 6832  21.765  29.359  24.212  0.3225 -0.0812 -0.0519
63920W        W 6833  12.192  21.862  13.312 -0.2280 -0.3876  0.4806
63921W        W 6834  13.641  25.157  16.006 -0.0263  0.0754 -0.1854
63922W        W 6835  14.965  21.146  14.414 -0.1237  0.1248  0.0027
63923W        W 6836   7.008  20.356  14.429  0.3548 -0.2800 -0.2043
63924W        W 6837  13.047  33.184  25.251 -0.1930 -0.0031 -0.1197
63925W        W 6838  16.396  26.217  18.157  0.1073  0.3421  0.2480
63926W        W 6839  11.731  28.434  25.258 -0.2476  0.2233 -0.3176
63927W        W 6840  10.923  22.982  20.150  0.3456  0.0810 -0.2673
63928W        W 6841  18.069   4.234  24.592  0.0412  0.1501  0.3651
63929W        W 6842  11.910  17.803  19.531  0.3665  0.0239  0.2224
63930W        W 6843  23.314  17.864  13.414 -0.1504  0.1533  0.1644
63931W        W 6844   7.922  26.609  22.441 -0.0072  0.0032  0.1634
63932W        W 6845   7.671  18.000  19.863 -0.3130 -0.1594  0.0612
63933W        W 6846  14.115  23.416  20.676 -0.0759  0.2195 -0.4200
63934W        W 6847  16.918  25.669  21.634 -0.2140 -0.1729  0.0179
63935W        W 6848  27.705  24.553  16.535  0.1850 -0.0195 -0.0932
63936W        W 6849  10.235  18.714  24.958 -0.1179 -0.2643  0.0752
63937W        W 6850  11.386  17.120  26.569 -0.2717  0.2510 -0.0274
63938W        W 6851  10.548  25.159  15.151  0.0799  0.0552  0.1918
63939W        W 6852  30.594  24.795  17.090  0.0249  0.2875 -0.3040
63940W        W 6853  18.011  26.371  19.746 -0.3280 -0.1679  0.3191
63941W        W 6854  25.222  31.069  16.771 -0.1439 -0.1076  0.2747
63942W        W 6855  10.930  24.699  25.095 -0.1231  0.1140  0.2327
63943W        W 6856  15.651  27.935  21.815  0.1984 -0.0681 -0.0917
63944W        W 6857  15.068  28.126  24.217  0.0018  0.0200  0.3171
63945W        W 6858   9.307  34.314  17.728 -0.3405  0.0886  0.1868
63946W        W 6859  14.600   1.527  29.007 -0.0128  0.1173  0.0882
63947W        W 6860   8.674  23.873  19.875  0.2681  0.1953  0.1405
63948W        W 6861  16.140  26.751  20.990  0.0502 -0.1036 -0.3916
63949W        W 6862  33.800  28.966  26.125 -0.2749  0.0376 -0.0263
63950W        W 6863  13.792  22.124   4.269  0.0759 -0.2175  0.1008
63951W        W 6864  15.112   0.185  17.371  0.2552  0.1364  0.0544
63952W        W 6865  21.701   0.147  15.948  0.1579 -0.1022 -0.2113
63953W        W 6866  10.924  24.155  21.188 -0.0670 -0.2427  0.0471
63954W        W 6867  13.495  27.853   2.450 -0.3178  0.0821 -0.1586
63955W        W 6868   6.770   0.053  27.364 -0.1741 -0.1169  0.0953
63956W        W 6869  13.390  32.254  22.925 -0.2930  0.1249  0.2667
63957W        W 6870  20.656  25.772  21.458 -0.1579  0.0923 -0.2122
63958W        W 6871   2.648   3.200  17.203  0.3341 -0.0369  0.1001
63959W        W 6872   1.454  25.281  27.483 -0.3511  0.0191  0.0773
63960W        W 6873   2.802  31.351  22.569  0.2510 -0.1537  0.2649
63961W        W 6874  17.675   2.283  25.770  0.0744  0.0172 -0.0305
63962W        W 6875   5.894  10.789   0.233 -0.0963  0.0485  0.2379
63963W        W 6876  10.966  25.461  21.665  0.0440  0.0963 -0.0492
63964W        W 6877  20.229   1.275  18.875  0.2036 -0.3030 -0.2619
63965W        W 6878  12.914  33.505  19.967  0.1308  0.1090  0.2442
63966W        W 6879  17.135  31.428  21.724 -0.1375 -0.1513 -0.2647
63967W        W 6880  15.148  24.321  13.589  0.0637  0.0660 -0.2271
63968W        W 6881  22.702  30.259  14.069 -0.1798 -0.1841  0.0586
63969W        W 6882  23.842   1.172  24.066  0.2718  0.0534 -0.3475
63970W        W 6883  11.602  22.694  17.624  0.0506 -0.0684  0.0149
63971W        W 6884  21.395  28.984  24.201 -0.2608 -0.0518 -0.1336
63972W        W 6885  14.199  28.517  17.991  0.1387  0.0080  0.3791
63973W        W 6886   9.742  33.020  23.022 -0.0821  0.1489 -0.0272
63974W        W 6887   7.813  18.401  16.535  0.0051  0.3858 -0.1006
63975W        W 6888  10.582  33.975  23.313 -0.0900  0.0036  0.0456
63976W        W 6889  20.070   1.003  17.767 -0.0636  0.2128 -0.0286
63977W        W 6890   2.090   1.469   3.778 -0.0881  0.0737  0.1206
63978W        W 6891   9.700  32.378  21.216  0.3321 -0.1183  0.0126
63979W        W 6892  17.800  19.346  13.397 -0.0139  0.1171  0.0211
63980W        W 6893  13.305  23.027  18.290  0.0970  0.3255 -0.0666
63981W        W 6894  17.264  31.880  23.143  0.0380  0.1134  0.0764
63982W        W 6895   2.743  28.679  22.320 -0.0745  0.1603 -0.2183
63983W        W 6896  20.599  30.405  18.443  0.1873 -0.0087  0.0650
63984W        W 6897  17.664  30.668  18.104  0.0524 -0.1808  0.0260
63985W        W 6898  14.043  13.224  15.561 -0.0628  0.0547  0.0017
63986W        W 6899  24.422  21.843  19.534  0.0761  0.0959  0.1120
63987W        W 6900  19.907  15.831  14.600 -0.0467  0.0565 -0.0199
63988W        W 6901  11.085  26.851  22.638  0.1578 -0.4156 -0.0261
63989W        W 6902  34.106  24.931   2.254  0.1239  0.1982 -0.1658
63990W        W 6903   8.209  24.282  17.532 -0.1415 -0.1532  0.1086
63991W        W 6904  12.333  24.916  28.988 -0.0867 -0.0342 -0.1441
63992W        W 6905   8.220   0.178  17.625  0.0981 -0.3239 -0.1664
63993W        W 6906  13.114   0.916  21.823  0.2365 -0.1528  0.0052
63994W        W 6907   0.833  22.914  23.413 -0.0102  0.0726 -0.2961
63995W        W 6908  23.145  27.349  20.828 -0.0858  0.1518 -0.1629
63996W        W 6909   7.272  29.509  20.665 -0.0182 -0.0579 -0.0640
63997W        W 6910  21.928  20.210  15.678 -0.1741  0.5212 -0.2255
63998W        W 6911  16.940  26.371  15.580 -0.3085  0.0816 -0.0132
63999W        W 6912  13.204  29.580  16.228 -0.3103  0.0005 -0.0657
64000W        W 6913  13.053   2.557  20.574 -0.3970  0.0011  0.2665
64001W        W 6914  22.098  28.070  21.844 -0.2440 -0.2218  0.0072
64002W        W 6915  19.407  11.539  22.007 -0.3474 -0.0759 -0.1131
64003W        W 6916  15.126  26.202  14.898  0.0470  0.2906  0.0262
64004W        W 6917   4.009  30.700  19.666  0.0640 -0.0598  0.2097
64005W        W 6918  12.319  21.963  14.179  0.0243 -0.0679  0.2434
64006W        W 6919  20.864  29.220  17.538  0.0969 -0.2181 -0.3092
64007W        W 6920  20.413  29.039  15.978 -0.0331 -0.0039 -0.2659
64008W        W 6921   3.342   0.480  20.230 -0.0335  0.0471 -0.1696
64009W        W 6922   8.602  30.439  21.335  0.0305 -0.1965 -0.1039
64010W        W 6923   6.680  26.588  16.305 -0.0752  0.0880  0.0575
64011W        W 6924   8.317  26.223  22.659  0.1804  0.0886 -0.3361
64012W        W 6925  12.942  23.059  25.618  0.0389  0.2220  0.1994
64013W        W 6926   5.458  21.783  15.421  0.4337  0.1241 -0.1513
64014W        W 6927  18.223  23.831  16.413 -0.0646  0.3197  0.0255
64015W        W 6928   8.840  15.523  25.063  0.2911  0.2136  0.1404
64016W        W 6929   7.385  27.969  15.536 -0.2339  0.1930 -0.3590
64017W        W 6930  13.248  24.639  16.672  0.2337  0.2249  0.2267
64018W        W 6931  22.823  26.716  25.570  0.1907 -0.1233 -0.0049
64019W        W 6932  13.808  28.503  16.052  0.0673 -0.1161  0.3103
64020W        W 6933  31.452  15.616  19.286  0.1339 -0.0061  0.0569
64021W        W 6934  13.513  33.223  17.251 -0.0380  0.4108 -0.1205
64022W        W 6935   9.923  21.002  13.783 -0.1565 -0.2376  0.3059
64023W        W 6936   4.654  32.939  28.087 -0.1121 -0.1513  0.2005
64024W        W 6937  19.072  31.698  18.910 -0.1632  0.2639 -0.0769
64025W        W 6938   8.425  17.383  22.326  0.1360 -0.0177  0.1840
64026W        W 6939   8.447   2.885  18.611  0.1452 -0.0699 -0.1001
64027W        W 6940  16.821  24.605   2.929  0.1057 -0.0480  0.0590
64028W        W 6941   4.255  22.033  16.722  0.1922 -0.0224 -0.0582
64029W        W 6942  13.183  27.921  19.762 -0.0054 -0.2310 -0.1238
64030W        W 6943  18.536   2.976  28.436  0.1404 -0.0537  0.1133
64031W        W 6944  17.344  30.918  18.401  0.4092  0.3354  0.1477
64032W        W 6945  13.965  23.063  25.157  0.3416 -0.0441 -0.1060
64033W        W 6946  16.735  34.309  20.818 -0.2847  0.0083  0.2068
64034W        W 6947  25.166  32.380  19.872 -0.1551 -0.2499 -0.0732
64035W        W 6948  18.796  32.033  17.559 -0.0050 -0.1394  0.1568
64036W        W 6949  22.909  24.254  17.638 -0.0250 -0.0882 -0.1468
64037W        W 6950   7.830  33.660  18.725 -0.1658  0.1315 -0.1641
64038W        W 6951  15.219  23.459  19.883 -0.2528  0.0271 -0.0245
64039W        W 6952  15.689  28.228  15.191  0.0502 -0.2990 -0.1265
64040W        W 6953  10.470  23.960   6.225  0.4458 -0.1058 -0.1603
64041W        W 6954  15.725  26.968  16.487  0.1258  0.0015 -0.1823
64042W        W 6955   7.868  24.641  15.956  0.0135 -0.3518  0.0686
64043W        W 6956   5.134  30.433  25.317  0.1572 -0.0068 -0.1117
64044W        W 6957   7.500  22.577  19.000 -0.1246 -0.0162 -0.0308
64045W        W 6958  19.282  31.497  27.451 -0.0033 -0.0985  0.2590
64046W        W 6959  10.667  17.021  16.768 -0.1652 -0.2133 -0.0752
64047W        W 6960  22.350  20.897  14.534  0.0172  0.2409  0.0317
64048W        W 6961   7.071  30.375  18.991 -0.2468 -0.1272 -0.1973
64049W        W 6962  12.374  23.954  17.977  0.3517  0.2485 -0.1055
64050W        W 6963   2.441  22.779  18.618 -0.0429 -0.2368 -0.0186
64051W        W 6964   7.763  24.003  17.918 -0.0912 -0.1749 -0.0480
64052W        W 6965  14.635  24.376  24.680 -0.3080 -0.0477  0.1675
64053W        W 6966   5.390   9.272  25.997  0.2077 -0.0409 -0.0869
64054W        W 6967   6.431   0.135  21.000  0.0264 -0.3096 -0.2100
64055W        W 6968  29.126  31.496  19.294  0.2142 -0.1811  0.0255
64056W        W 6969  23.509  17.668  20.876  0.2023  0.3261 -0.0393
64057W        W 6970   1.129  17.725  19.638  0.2412  0.2233  0.0838
64058W        W 6971   5.923  31.173  21.393  0.3601  0.6495 -0.2318
64059W        W 6972  10.536  30.128  17.756 -0.1355 -0.2197 -0.4205
64060W        W 6973  12.500  30.818  26.433  0.3323  0.0753 -0.2418
64061W        W 6974  19.530  25.645  21.838 -0.1644 -0.0796 -0.1169
64062W        W 6975  10.431  19.109  27.922 -0.0867 -0.0015  0.1491
64063W        W 6976  13.970  20.828  25.724  0.0652 -0.0951 -0.2391
64064W        W 6977   7.176  28.052  21.624  0.0063 -0.0004 -0.1155
64065W        W 6978  13.643  26.579  17.915 -0.0042  0.0227 -0.1929
64066W        W 6979  11.251  19.207  16.374  0.0866  0.0569 -0.2882
64067W        W 6980   6.493  33.154  17.598  0.2513  0.1149 -0.1024
64068W        W 6981   8.228  29.686  24.743  0.1309 -0.1033 -0.2611
64069W        W 6982  10.154  12.496  28.862 -0.0187 -0.1132  0.0655
64070W        W 6983   4.189  29.576  19.634 -0.1769  0.0745  0.1360
64071W        W 6984  15.576  23.070  17.984 -0.1259  0.1928  0.2677
64072W        W 6985  13.610  28.082  16.192 -0.2511  0.1097  0.0031
64073W        W 6986  20.175  30.589  22.999 -0.2510 -0.2899 -0.0973
64074W        W 6987  14.640  27.456  17.227  0.0932 -0.2884 -0.0318
64075W        W 6988  10.525  24.732  22.074  0.0799  0.2162 -0.1480
64076W        W 6989  14.622  27.598  28.175 -0.1558 -0.0608 -0.1115
64077W        W 6990  10.733  25.883  16.297  0.6148 -0.2346 -0.2364
64078W        W 6991  22.403  25.143  20.453  0.1375 -0.0560 -0.0113
64079W        W 6992  16.189   8.787  22.702  0.1030  0.0363  0.2497
64080W        W 6993   7.380  15.184  24.933 -0.1897 -0.0979  0.2135
64081W        W 6994  19.752  31.450  18.335 -0.1549 -0.3174  0.0616
64082W        W 6995  12.049  30.215  19.234  0.0794 -0.2021  0.1900
64083W        W 6996  14.350   3.015   0.205  0.2248 -0.0379  0.2959
64084W        W 6997   6.480  26.715  15.496  0.1614 -0.1889  0.1079
64085W        W 6998  19.060   3.023  27.444  0.2073  0.1952  0.2216
64086W        W 6999  19.850  19.760  27.802  0.1844  0.2142 -0.2448
64087W        W 7000   9.729  17.181  24.783 -0.1817  0.2575 -0.2530
64088W        W 7001  16.509  29.772  26.970 -0.0583  0.1200  0.0611
64089W        W 7002  32.725  18.927   8.546 -0.0671  0.2251  0.1937
64090W        W 7003  21.387  27.085  13.821  0.0134 -0.1757 -0.0211
64091W        W 7004  16.045  26.718  23.958 -0.2361  0.1448  0.1059
64092W        W 7005   5.618  19.597   0.081 -0.0181  0.0371 -0.3778
64093W        W 7006   7.802  27.355  17.421  0.1216  0.0429 -0.3745
64094W        W 7007  16.607  25.064  24.919  0.3724  0.1310 -0.0434
64095W        W 7008  14.695  27.586  22.791  0.0624 -0.0663  0.0033
64096W        W 7009  18.492  24.520  18.096 -0.1484 -0.1476 -0.1012
64097W        W 7010  12.340  28.299  20.226 -0.1828 -0.0546 -0.1520
64098W        W 7011  22.532  24.198  25.484 -0.1051  0.0818  0.3183
64099W        W 7012  17.435  29.176   0.641 -0.1079 -0.0842 -0.0900
64100W        W 7013  13.747  28.134  17.039  0.1380 -0.0024  0.2652
64101W        W 7014   3.666  31.788  23.526 -0.1202 -0.0530  0.0582
64102W        W 7015  10.897  25.527   0.613  0.1648  0.1846 -0.2093
64103W        W 7016   8.209  26.386  21.368 -0.3058 -0.0146  0.0533
64104W        W 7017  16.948   2.049  16.180  0.0551 -0.2275  0.1705
64105W        W 7018  19.198  25.849  20.598 -0.0004 -0.1299 -0.0789
64106W        W 7019   3.635  30.661  18.271  0.3027  0.2850  0.0665
64107W        W 7020  23.177  24.602  26.289 -0.2515  0.1755 -0.0167
64108W        W 7021  11.811   2.329  19.211 -0.2094 -0.1456  0.0074
64109W        W 7022  13.433  23.269  24.048 -0.0752  0.1577  0.0539
64110W        W 7023  16.073  28.027  16.863  0.2049  0.0767  0.1518
64111W        W 7024  15.076  30.724  20.959 -0.1704 -0.0418  0.1792
64112W        W 7025  16.726  28.230  25.275 -0.2483  0.0771 -0.0858
64113W        W 7026   3.126  20.256  15.326  0.0658 -0.1871  0.0409
64114W        W 7027  11.285  27.316  23.374 -0.4656 -0.1359  0.2744
64115W        W 7028  13.810  32.760  28.188  0.2522  0.0538 -0.0408
64116W        W 7029  12.586  16.700  20.427 -0.1549  0.2143  0.0429
64117W        W 7030  13.690  32.327  18.195 -0.0590  0.0823  0.0134
64118W        W 7031  15.761  17.559  15.693 -0.1793  0.0606 -0.1380
64119W        W 7032   9.880  17.850  24.024 -0.1313  0.4826  0.1345
64120W        W 7033  16.052  22.367  28.661  0.2675  0.1666 -0.2118
64121W        W 7034   0.452  14.902  26.630 -0.1451  0.4564  0.0998
64122W        W 7035  10.156  28.678  21.994 -0.3827 -0.3055 -0.2900
64123W        W 7036  20.117  29.052  23.898 -0.4167  0.2425  0.0453
64124W        W 7037  15.255  17.868  15.177  0.0481 -0.1852  0.1662
64125W        W 7038   7.653  31.162  18.330  0.2006  0.0519  0.1302
64126W        W 7039  15.048  18.164  14.813  0.2217 -0.1627 -0.0696
64127W        W 7040  18.384  12.337  13.989  0.0831 -0.1421 -0.0708
64128W        W 7041  18.247   2.948  18.467 -0.0245  0.0405 -0.2284
64129W        W 7042   7.233  27.905  16.478 -0.0540 -0.2719 -0.1953
64130W        W 7043   9.801  29.586   7.630 -0.2101  0.1555 -0.1219
64131W        W 7044  10.721  31.496  26.150  0.1298  0.2521 -0.1113
64132W        W 7045  30.613  22.183  22.682  0.0618 -0.1845 -0.3559
64133W        W 7046   3.096  28.483  19.626 -0.2131  0.1807  0.1824
64134W        W 7047   9.977  19.030  24.368 -0.1165 -0.0812 -0.2087
64135W        W 7048  14.787  20.095  28.847  0.1776  0.1130 -0.1597
64136W        W 7049   7.703  22.559  20.776  0.1245 -0.1256 -0.0474
64137W        W 7050   5.040  28.078   9.748 -0.1945  0.1433  0.0582
64138W        W 7051  11.996  22.126   1.963 -0.3977  0.2347 -0.0708
64139W        W 7052   5.573  28.024  17.875  0.0677 -0.2279  0.2912
64140W        W 7053  22.743  24.026  22.101 -0.4935  0.1219  0.1519
64141W        W 7054  11.608  29.578  16.213 -0.1506  0.3037  0.0265
64142W        W 7055  25.417  15.400  18.515 -0.0913  0.2470 -0.0353
64143W        W 7056  18.856  27.798  24.304  0.1449 -0.1590 -0.1885
64144W        W 7057  10.433  15.914  21.512  0.0912 -0.0855 -0.0042
64145W        W 7058  26.853   4.529   7.949 -0.3058  0.0464 -0.1483
64146W        W 7059  10.721  12.313  21.531 -0.0341  0.1508  0.0109
64147W        W 7060   1.880  30.196  26.355  0.0975 -0.1303  0.0161
64148W        W 7061  20.385  27.122  20.125  0.0837 -0.2539  0.0494
64149W        W 7062  19.477  22.568  28.679 -0.1553  0.0744 -0.1568
64150W        W 7063  16.188  27.383  18.390 -0.2297  0.0693  0.0579
64151W        W 7064   2.868   2.140  22.742  0.0119 -0.0631 -0.2736
64152W        W 7065  29.547  20.705  15.640  0.1814 -0.0582  0.0255
64153W        W 7066  19.189  29.336   3.578  0.1246  0.0543  0.0305
64154W        W 7067  23.313  28.359  18.421 -0.1873 -0.0151 -0.0873
64155W        W 7068  17.476  20.546  23.993  0.1148 -0.5821  0.0737
64156W        W 7069  19.051  32.436  26.397  0.1277  0.0602  0.0127
64157W        W 7070   5.435  25.036  15.360  0.4251  0.0003  0.0775
64158W        W 7071  21.181  27.133  15.909 -0.0650  0.1279 -0.1617
64159W        W 7072  13.716  18.137  12.932  0.0429 -0.0073  0.2443
64160W        W 7073  22.188  29.812  24.581 -0.0926 -0.0960 -0.0620
64161W        W 7074  11.367  19.217  20.554 -0.1725 -0.0700 -0.0779
64162W        W 7075  15.017  12.422  22.388 -0.0321 -0.0921  0.2470
64163W        W 7076  13.526  34.380  27.906 -0.2890  0.1527  0.3244
64164W        W 7077  25.326  20.597  20.784  0.0449 -0.0223 -0.2736
64165W        W 7078  13.752  23.258  17.813  0.2640 -0.1176 -0.2094
64166W        W 7079   8.828  25.770  15.166 -0.1607  0.2366  0.0157
64167W        W 7080   9.247  26.247  21.063  0.1136 -0.2253 -0.1980
64168W        W 7081  33.387   0.352  26.731 -0.2031 -0.1231 -0.0135
64169W        W 7082  11.694   1.390  25.884 -0.1238  0.0912  0.0535
64170W        W 7083  15.263  22.024  20.061  0.0616  0.1651 -0.1594
64171W        W 7084   5.990  21.760  27.343  0.2324  0.1404  0.0619
64172W        W 7085  12.972  28.680  16.697  0.1779  0.2510  0.2195
64173W        W 7086  16.699  24.565   3.681  0.2389 -0.3557  0.1542
64174W        W 7087  16.263  30.674   2.108 -0.0196 -0.0094  0.1410
64175W        W 7088  16.121  13.430   2.285  0.0491  0.6069 -0.1034
64176W        W 7089  27.603  23.411  16.322  0.0999  0.1557 -0.0466
64177W        W 7090   4.296  28.523  16.538  0.0224 -0.2732 -0.1577
64178W        W 7091   8.763  31.401  23.799  0.2300  0.2158  0.1225
64179W        W 7092  14.203  25.890  22.380 -0.2867 -0.1466  0.4146
64180W        W 7093  22.038   2.731  21.897 -0.2617  0.0600 -0.3696
64181W        W 7094  16.628  28.233  29.622  0.0023  0.0420 -0.0354
64182W        W 7095  16.414  22.988  16.896  0.0009 -0.0527 -0.0986
64183W        W 7096   1.220  33.059  28.648 -0.0548  0.3443  0.2851
64184W        W 7097  16.593  28.991  24.063  0.0624 -0.0003  0.1238
64185W        W 7098  11.931  24.187   0.843  0.3861 -0.0046  0.0965
64186W        W 7099   9.888  29.090   5.143 -0.1993 -0.0883  0.2580
64187W        W 7100  10.402  20.441  18.958 -0.1615  0.2881 -0.0843
64188W        W 7101   8.625   8.522  16.446  0.0884  0.0810  0.0948
64189W        W 7102  17.297  22.867  20.911  0.0018  0.2438  0.2710
64190W        W 7103  13.222  26.785  27.505  0.2936 -0.0902  0.2718
64191W        W 7104   9.998  17.821  13.503  0.0079 -0.1368  0.3361
64192W        W 7105   1.925  26.924  27.532 -0.1507  0.1585 -0.4269
64193W        W 7106   9.021  26.520  25.723  0.0619 -0.0420 -0.0951
64194W        W 7107   4.920  30.058  17.255  0.2517  0.2789 -0.3946
64195W        W 7108   4.576  27.137  24.057  0.1309 -0.2275 -0.0775
64196W        W 7109  17.030   0.234  26.758  0.0010  0.1811 -0.1297
64197W        W 7110  25.635  18.729   1.535 -0.2002 -0.0022  0.0690
64198W        W 7111  12.192   3.523  29.266 -0.1204  0.2772  0.1497
64199W        W 7112  22.314  22.545  26.385 -0.2246 -0.2998  0.0074
64200W        W 7113  10.666  24.273   1.887 -0.2459  0.0058 -0.0590
64201W        W 7114  15.249  17.365  26.759  0.2592  0.0130  0.2497
64202W        W 7115  16.161  24.355  13.568 -0.2585  0.0237  0.2906
64203W        W 7116   1.532  28.289  23.914  0.3826  0.1019 -0.3250
64204W        W 7117   9.833  25.462  14.743 -0.0616 -0.0443  0.1327
64205W        W 7118  14.815  28.731  16.531 -0.1579 -0.0696  0.2565
64206W        W 7119  13.922  11.683  21.507  0.0718 -0.0395  0.2581
64207W        W 7120  16.861  33.352   3.528 -0.0232  0.0812  0.2342
64208W        W 7121   9.813  21.414  18.816  0.0432  0.0616  0.0760
64209W        W 7122  12.973  22.565  15.124 -0.0544  0.0143  0.2855
64210W        W 7123  15.816  21.746  27.663  0.0282 -0.1538  0.0787
64211W        W 7124  22.128  32.816  24.769 -0.0851  0.0859 -0.0919
64212W        W 7125   8.448  29.219  25.214 -0.0891 -0.2286  0.0253
64213W        W 7126  16.427  22.547  17.928  0.2496  0.3713 -0.1924
64214W        W 7127   9.598  31.790  17.777  0.1244 -0.1027  0.2404
64215W        W 7128   8.575  29.877  22.171  0.1658  0.0483  0.1467
64216W        W 7129  12.341  17.289  14.036  0.1289  0.1185 -0.1782
64217W        W 7130  21.608  23.805  18.131 -0.0809 -0.3076 -0.0193
64218W        W 7131   5.527  21.283   0.358  0.0256 -0.2879  0.0836
64219W        W 7132   8.784  27.103  20.384 -0.2666  0.1600 -0.1943
64220W        W 7133  24.945  26.144  20.147  0.0289  0.2942  0.2213
64221W        W 7134  29.100  22.714  21.844 -0.2014  0.1780 -0.0269
64222W        W 7135   1.667  24.571  24.168 -0.0817 -0.1842 -0.0037
64223W        W 7136   5.294  19.115  23.279  0.4007 -0.0840  0.2149
64224W        W 7137  22.262  11.641  20.140  0.2542 -0.0505  0.0056
64225W        W 7138  18.567  30.195  18.926  0.2964  0.1466  0.0214
64226W        W 7139  11.053  30.912  17.665 -0.1768 -0.0763 -0.2957
64227W        W 7140   4.962  32.119  27.887 -0.0273 -0.0276  0.2121
64228W        W 7141   1.137  23.571  22.162  0.1869  0.2442 -0.2549
64229W        W 7142  24.933  28.303  19.576  0.0783  0.0349 -0.1327
64230W        W 7143  13.411  20.269  14.978 -0.1859 -0.0778  0.0065
64231W        W 7144  16.642  26.525  21.762  0.1102  0.1227 -0.2405
64232W        W 7145  22.649  21.405   3.700  0.0758  0.2743 -0.2875
64233W        W 7146  31.478   4.775  29.024 -0.1988  0.1610 -0.0229
64234W        W 7147   8.996  22.487  14.255 -0.1253  0.2224 -0.0814
64235W        W 7148   9.005  23.665   5.865  0.1068 -0.3072  0.0343
64236W        W 7149   3.007  27.677  18.508 -0.2635  0.1878 -0.1124
64237W        W 7150  13.846  34.029  21.194  0.0627 -0.1458  0.1094
64238W        W 7151  24.647  16.535  21.244 -0.0726  0.5137 -0.1966
64239W        W 7152  12.272   0.943  28.985 -0.1828 -0.1113 -0.2134
64240W        W 7153  11.998  13.030  19.432 -0.0854 -0.1283  0.1331
64241W        W 7154  26.290  28.319  13.458 -0.1341  0.2265 -0.3724
64242W        W 7155  17.020  22.665  25.662 -0.4511  0.0842  0.0893
64243W        W 7156  14.881  21.637  19.402 -0.1429  0.0135 -0.1885
64244W        W 7157   0.515  30.001  19.483 -0.0952 -0.2132  0.0293
64245W        W 7158  17.332  34.200  29.456  0.0113  0.0112  0.0657
64246W        W 7159  20.755  18.452   1.397  0.3714  0.1432 -0.0308
64247W        W 7160  22.118  20.529  28.488 -0.2356  0.1316 -0.0654
64248W        W 7161  20.037   0.297  17.063 -0.1557 -0.1083  0.1486
64249W        W 7162  13.656  13.552  12.259 -0.0193  0.3363  0.0607
64250W        W 7163   9.813  20.963  23.036 -0.0557 -0.1726  0.1002
64251W        W 7164  15.090   7.787  15.127 -0.0867  0.2607  0.1090
64252W        W 7165   7.502  23.285  20.059 -0.0977 -0.1830  0.0026
64253W        W 7166  24.569  20.475  15.913 -0.0154  0.0906  0.0719
64254W        W 7167   0.271  28.347  27.985  0.0285 -0.0866 -0.1480
64255W        W 7168  11.033  21.242  26.488 -0.1587  0.1288 -0.2848
64256W        W 7169   3.696  32.979   7.116  0.0226  0.1729 -0.0936
64257W        W 7170  11.264  22.673  22.875 -0.1195 -0.2264  0.1709
64258W        W 7171  13.653  24.804  24.888 -0.2376  0.1628 -0.2626
64259W        W 7172  26.069  32.975   8.523 -0.3994  0.0662 -0.1243
64260W        W 7173  12.484   1.764  27.632  0.1673  0.0887 -0.1266
64261W        W 7174   9.083  30.157  22.718 -0.0061 -0.0736  0.3494
64262W        W 7175   9.171  12.362  18.396  0.1106  0.4238 -0.0039
64263W        W 7176   6.071  16.107   2.648 -0.2281  0.2415  0.0473
64264W        W 7177  14.948  22.317   0.291  0.0248  0.0610  0.0184
64265W        W 7178  13.182  20.947  15.659 -0.1709 -0.0564 -0.1309
64266W        W 7179  18.608  25.295  24.715 -0.0210  0.2418  0.3432
64267W        W 7180  11.773  21.807  26.744 -0.2565  0.0326 -0.4493
64268W        W 7181  14.783  20.672  17.760 -0.1320 -0.2101 -0.0256
64269W        W 7182  19.089  20.320  15.740  0.2244 -0.1317  0.1652
64270W        W 7183   8.348  22.948  24.792  0.2149  0.0969 -0.5177
64271W        W 7184  12.658  19.520  27.390  0.0629  0.4077  0.3537
64272W        W 7185  20.955  28.155  14.158  0.2422  0.2775 -0.0328
64273W        W 7186   5.174  32.606   3.366 -0.0832  0.0940  0.0199
64274W        W 7187  16.836  23.230  27.202  0.1661 -0.2905  0.1544
64275W        W 7188  18.935  22.434  13.587 -0.2131  0.0114 -0.1529
64276W        W 7189  14.957  31.166  24.868  0.1015 -0.0392 -0.2335
64277W        W 7190  15.113  20.985  27.631 -0.1291  0.0139  0.1521
64278W        W 7191  19.908  14.003  23.866  0.1221  0.0901 -0.1078
64279W        W 7192  11.960  19.891  22.455 -0.1263 -0.1163  0.0507
64280W        W 7193   3.595  19.940  18.534 -0.1678  0.2038  0.1107
64281W        W 7194   9.222  16.929  22.167 -0.0414 -0.1337 -0.3994
64282W        W 7195   0.879  33.158  20.927  0.0799 -0.1485  0.0597
64283W        W 7196  11.103  20.790  17.759  0.0246  0.1731 -0.1669
64284W        W 7197  11.395  23.229  22.942  0.1468 -0.1039 -0.1760
64285W        W 7198   8.502  29.555  16.373  0.0674  0.1780  0.0214
64286W        W 7199   2.820  28.117  23.243 -0.0418 -0.0614 -0.3274
64287W        W 7200  17.436  22.092  25.789  0.1005 -0.0934 -0.0834
64288W        W 7201  25.388  17.911   5.321  0.0838 -0.0311  0.3081
64289W        W 7202  21.078  24.582  23.363  0.1534 -0.1627  0.2879
64290W        W 7203   7.999  33.288  21.285  0.0432  0.0285  0.1508
64291W        W 7204   1.048  27.422  19.658  0.2205 -0.1239  0.0769
64292W        W 7205  20.973  32.765   0.230 -0.3180 -0.2333 -0.3497
64293W        W 7206  17.777  23.804  13.077  0.0025  0.0649 -0.2302
64294W        W 7207   6.376  28.004  16.571 -0.2835 -0.0145 -0.1941
64295W        W 7208  17.500  22.603  13.308  0.1583 -0.1179 -0.1565
64296W        W 7209  16.729  23.724  19.055 -0.1687 -0.0915 -0.2398
64297W        W 7210   4.740  32.833  15.504 -0.0426 -0.1292  0.1292
64298W        W 7211  20.437  21.764  12.908  0.1792 -0.0344  0.0879
64299W        W 7212  10.094  15.434  28.200  0.1103 -0.3040 -0.2289
64300W        W 7213   9.678   1.368  24.374  0.1133 -0.3165 -0.3651
64301W        W 7214   8.018  28.179  19.982 -0.2279  0.4995  0.0629
64302W        W 7215  15.460   7.842   7.423 -0.2213  0.0250 -0.0146
64303W        W 7216   6.787  28.678  18.597  0.1101  0.0394  0.0957
64304W        W 7217  11.888  30.065  20.334  0.1707 -0.1942  0.1661
64305W        W 7218  11.459  33.934  22.130  0.0093 -0.1497 -0.0520
64306W        W 7219  15.946  28.365  24.237 -0.0867 -0.0657 -0.0192
64307W        W 7220  20.328  27.435  25.470 -0.1724  0.2678 -0.3462
64308W        W 7221  11.359  16.052  22.669  0.0049  0.3436  0.0827
64309W        W 7222   9.059  27.760  27.035  0.3092 -0.1231  0.0308
64310W        W 7223  15.366  29.753  25.434  0.3426 -0.2818 -0.0490
64311W        W 7224  12.777  31.334   4.011 -0.4285 -0.2629  0.1589
64312W        W 7225  24.909  32.149  24.202 -0.1232 -0.3250 -0.2331
64313W        W 7226  13.939  30.143  21.399  0.2268 -0.0116  0.0143
64314W        W 7227   2.345  28.197  25.154  0.2805  0.1741 -0.2409
64315W        W 7228   5.479  19.129  19.595 -0.2091  0.2386 -0.3041
64316W        W 7229  27.116  10.551  15.918  0.1173  0.1650  0.0738
64317W        W 7230  14.884  25.194   4.848  0.2488 -0.1308 -0.3649
64318W        W 7231   7.453  18.146  25.228  0.0729  0.0293 -0.1990
64319W        W 7232  16.478  28.253   5.671  0.2058 -0.0019 -0.2395
64320W        W 7233  21.174  30.365  15.881  0.0054 -0.0804  0.0152
64321W        W 7234  12.540  24.271  23.865 -0.2122  0.1625  0.1506
64322W        W 7235  15.249  18.764  15.576 -0.2336  0.1785  0.2066
64323W        W 7236  17.416  25.438  28.331  0.0642  0.1006  0.3817
64324W        W 7237  11.726  15.719  21.942  0.1750  0.1154 -0.2942
64325W        W 7238  15.993  29.057  27.406 -0.1073 -0.1931 -0.0568
64326W        W 7239  12.849  22.506  15.582 -0.1620 -0.2355 -0.0623
64327W        W 7240  14.279  28.497  23.712  0.0955  0.0206 -0.3981
64328W        W 7241  16.080   1.671  20.722 -0.0240  0.1038  0.0823
64329W        W 7242  10.332  20.758  24.104 -0.1820  0.0534  0.1243
64330W        W 7243  21.895  13.287  13.926 -0.0443 -0.1180 -0.2441
64331W        W 7244   8.658  23.868  27.289  0.1842  0.0636 -0.0064
64332W        W 7245   8.117  20.310   8.967  0.1850  0.0238  0.0429
64333W        W 7246  12.935  23.470  23.826  0.0291 -0.1414  0.1887
64334W        W 7247   4.089  27.364  23.958  0.2219  0.0345  0.2425
64335W        W 7248  12.184  28.201  26.124 -0.0720  0.1888 -0.1977
64336W        W 7249  13.384  31.854  16.981 -0.1829  0.1958  0.1104
64337W        W 7250  20.108  33.477  23.933 -0.2999 -0.0605 -0.1117
64338W        W 7251   7.940  29.970   2.153  0.2567  0.0801 -0.1972
64339W        W 7252   9.217  15.160  26.122  0.3111 -0.2913 -0.2039
64340W        W 7253  17.716  14.729  11.802 -0.0939  0.1566  0.1450
64341W        W 7254  18.573  34.294  22.080 -0.1144  0.0047  0.0420
64342W        W 7255  18.714  28.981  24.956 -0.0507 -0.1618  0.1578
64343W        W 7256   5.051  27.894   0.669  0.1754  0.2910  0.1141
64344W        W 7257  19.460  31.638   5.004  0.0904  0.3019  0.1409
64345W        W 7258  14.082  28.128  25.535  0.0757 -0.0679 -0.0728
64346W        W 7259   8.472  30.957  16.703 -0.1428 -0.1941 -0.0164
64347W        W 7260   0.953  23.648  26.049  0.3926 -0.1527  0.0176
64348W        W 7261   0.252  20.260   2.052  0.0932  0.0615  0.0258
64349W        W 7262   0.486  20.463  16.710 -0.1550  0.3357  0.0878
64350W        W 7263   6.458  27.445  29.107  0.4894 -0.1736 -0.2310
64351W        W 7264  16.517  27.781  22.066 -0.3664 -0.3346  0.0644
64352W        W 7265  25.364  29.192  21.058 -0.0246 -0.0584  0.1174
64353W        W 7266  22.005  31.961  17.881 -0.0698  0.0613  0.1092
64354W        W 7267  13.091  26.885  28.758 -0.0349 -0.1651  0.0603
64355W        W 7268   3.045  27.312   9.019  0.0665 -0.0029  0.0739
64356W        W 7269  12.322  26.172  22.561  0.1585  0.0257  0.0989
64357W        W 7270   6.837  28.373  19.702  0.1408 -0.0062 -0.0525
64358W        W 7271   6.949  20.608  21.248 -0.2292  0.3291 -0.1384
64359W        W 7272  15.170  34.240  11.149 -0.1571  0.1235 -0.2239
64360W        W 7273   5.286  27.137  28.649  0.1389 -0.0701 -0.2486
64361W        W 7274   3.081  24.326  23.054  0.1927 -0.1295  0.0074
64362W        W 7275  13.108  30.987  16.949  0.0284 -0.0888 -0.1153
64363W        W 7276   7.532  18.438   5.992 -0.0213 -0.0240 -0.0311
64364W        W 7277  21.839  23.817  21.819  0.1832 -0.2560  0.0917
64365W        W 7278   6.799  23.795  16.485 -0.1365 -0.2077  0.1826
64366W        W 7279  14.120   3.019  16.438  0.1642 -0.3682  0.0877
64367W        W 7280  28.085  21.002  28.240 -0.1915 -0.3371 -0.1687
64368W        W 7281   4.095  31.694   8.721  0.2424 -0.1749 -0.2482
64369W        W 7282  24.389  30.187  16.526 -0.1026 -0.0113  0.1463
64370W        W 7283   7.899  21.299  22.396  0.0300 -0.2287 -0.2536
64371W        W 7284   0.203  12.968  23.102  0.0077 -0.1315 -0.2612
64372W        W 7285  19.296  18.916  22.361 -0.1050 -0.1559  0.0775
64373W        W 7286   6.376  20.259   4.090 -0.0498  0.0108  0.0470
64374W        W 7287   1.406  31.172  22.233 -0.1610 -0.0986  0.0936
64375W        W 7288  21.235  16.958  20.204  0.3118 -0.1154  0.2281
64376W        W 7289   8.042  22.130  20.692  0.1432 -0.2513 -0.2752
64377W        W 7290   6.224  15.070  23.682  0.1446  0.1348 -0.2944
64378W        W 7291  10.733  25.276  25.175  0.2045  0.0831  0.2699
64379W        W 7292   9.089  20.924  22.198 -0.1944  0.1007  0.4048
64380W        W 7293  11.866   7.027  16.568 -0.0734  0.0227 -0.1082
64381W        W 7294   8.890  22.133  26.522  0.1285 -0.1939 -0.0435
64382W        W 7295  11.162  22.239  13.918  0.0579  0.0671  0.1493
64383W        W 7296   5.748  24.461  26.993  0.0468 -0.0063  0.4273
64384W        W 7297   3.989  22.431  19.710 -0.2832  0.0309  0.3513
64385W        W 7298  25.073  14.470   3.978  0.1333  0.1431  0.2981
64386W        W 7299  11.668  27.583  22.348  0.2195  0.0173  0.2750
64387W        W 7300  21.158  20.766  19.194  0.4165 -0.1355  0.0905
64388W        W 7301  30.071  23.547  16.110  0.1036 -0.1060 -0.1900
64389W        W 7302   7.561  15.136  23.694  0.1274 -0.1709 -0.1091
64390W        W 7303  30.902  27.046  27.394 -0.0097  0.0409 -0.1994
64391W        W 7304  11.779  21.385  20.503  0.1927 -0.5178  0.1204
64392W        W 7305  11.428  22.642  22.078  0.0770 -0.2688 -0.2745
64393W        W 7306  15.462   2.335  23.367 -0.0206  0.0649  0.2420
64394W        W 7307  10.707  25.065  25.971 -0.4887 -0.3299  0.2313
64395W        W 7308  14.847  19.032  22.777 -0.1031 -0.2637  0.0275
64396W        W 7309  20.310  30.275  13.967  0.0417 -0.0220  0.2326
64397W        W 7310  15.019  33.887  24.574 -0.0241 -0.2142  0.0266
64398W        W 7311  16.075  27.391  19.287  0.2827  0.0105 -0.2239
64399W        W 7312  19.906  30.355  26.860  0.2121 -0.0589  0.0783
64400W        W 7313  15.747  22.281  25.969  0.0600  0.1800 -0.3113
64401W        W 7314  29.257  24.752  27.119  0.2727 -0.1472  0.3959
64402W        W 7315   8.967  20.064  28.681 -0.0205  0.0166 -0.2876
64403W        W 7316  14.090  25.738  26.284  0.0709  0.0985 -0.1169
64404W        W 7317  27.619   0.410  14.903 -0.1608  0.0096 -0.2657
64405W        W 7318  14.329  23.933  27.137 -0.1840 -0.1008 -0.3565
64406W        W 7319  10.570  18.264  27.854 -0.1080 -0.0089 -0.2440
64407W        W 7320  21.903  26.923  23.591 -0.0374  0.1173  0.2975
64408W        W 7321  11.952   1.711  27.399  0.1223 -0.2432 -0.2313
64409W        W 7322  15.036  27.520  16.887 -0.0222  0.1175  0.1016
64410W        W 7323  18.747  20.829  28.047  0.3928 -0.0689 -0.4856
64411W        W 7324   5.854  28.470   4.322 -0.0108  0.0142 -0.1123
64412W        W 7325   5.943  20.970   1.034 -0.0782  0.0209  0.0990
64413W        W 7326  10.213  24.156  22.277 -0.1236 -0.2273  0.0317
64414W        W 7327  20.022  20.069  20.468 -0.1049  0.3587 -0.1300
64415W        W 7328   6.318   3.033  24.406  0.0897 -0.3191 -0.0722
64416W        W 7329  12.352  29.696   1.093 -0.2616  0.5709  0.0467
64417W        W 7330  16.235  21.736  21.404 -0.1394  0.2764 -0.1783
64418W        W 7331  10.430  23.005  24.207  0.0488  0.0412  0.0886
64419W        W 7332  18.261  22.186  26.818 -0.1387 -0.1109 -0.0700
64420W        W 7333   2.449   1.169  17.370 -0.1721 -0.0298 -0.1561
64421W        W 7334  17.907  26.510  23.685  0.2188  0.2087 -0.1579
64422W        W 7335   1.795  22.738  21.698 -0.2867 -0.0260 -0.1280
64423W        W 7336  19.728  32.437  23.811 -0.3266 -0.0393  0.0283
64424W        W 7337   9.339  29.428   1.179  0.0405 -0.0470 -0.0754
64425W        W 7338   9.851  28.792  16.888 -0.1340 -0.0545  0.0192
64426W        W 7339  10.571  19.395   1.547  0.2142  0.0559  0.0542
64427W        W 7340  32.586  21.076  24.903  0.0649  0.2671  0.2263
64428W        W 7341  22.253  24.971  27.063  0.1673 -0.1305 -0.1158
64429W        W 7342  34.193  23.225  19.364 -0.2214  0.1294 -0.0581
64430W        W 7343  16.871  20.951  23.366 -0.0426 -0.2771  0.2810
64431W        W 7344  18.309  26.969  16.697 -0.0894 -0.0120 -0.0957
64432W        W 7345   5.329  16.107   6.216 -0.2561 -0.0027  0.0478
64433W        W 7346  13.614  26.625  19.790 -0.0002 -0.0468 -0.1003
64434W        W 7347  16.131  30.618  20.154 -0.1849 -0.1208  0.0887
64435W        W 7348  14.470  26.397  22.504 -0.0388 -0.2779  0.1573
64436W        W 7349   3.241  26.203  22.124 -0.3333 -0.1500  0.0111
64437W        W 7350  34.059  29.974   1.494 -0.1465  0.0711  0.0602
64438W        W 7351  21.579  18.942  14.664  0.1132  0.0887  0.2951
64439W        W 7352  10.261  28.569   3.424  0.0125 -0.2763  0.0798
64440W        W 7353  32.399  29.943  20.622  0.1951 -0.1230  0.0084
64441W        W 7354  12.829  30.693  20.818 -0.4391  0.0049 -0.0730
64442W        W 7355   6.351   0.273  20.535  0.0804 -0.1528  0.2988
64443W        W 7356  11.739  30.560   4.190  0.2941  0.0376 -0.2474
64444W        W 7357  21.764  31.961   3.517  0.0166  0.2738 -0.0414
64445W        W 7358   9.581  19.363  19.588  0.1063 -0.0591  0.1625
64446W        W 7359  18.572  29.226  17.390 -0.0220 -0.1712  0.0922
64447W        W 7360  13.297  21.887  22.179 -0.0021 -0.1107  0.1641
64448W        W 7361  11.950  25.158  16.422 -0.1227  0.1876 -0.0106
64449W        W 7362   6.949  28.177   2.273  0.1085  0.2090 -0.2028
64450W        W 7363  17.047  23.861  27.793  0.0700 -0.0388  0.0750
64451W        W 7364  10.296  24.223  24.298  0.2203 -0.0776  0.3947
64452W        W 7365   8.566  33.296  22.164  0.0808 -0.3399  0.0809
64453W        W 7366   5.528  26.120  21.049  0.1096 -0.0032 -0.1369
64454W        W 7367  12.546  17.677  26.393 -0.2770 -0.1203 -0.1367
64455W        W 7368  12.478  31.496  20.771 -0.0002 -0.0698 -0.1595
64456W        W 7369  13.598  27.834  19.507 -0.1369  0.1279 -0.0525
64457W        W 7370   6.948  13.224  19.151  0.1581 -0.0851 -0.1004
64458W        W 7371  10.595  26.566   2.238 -0.3932  0.0133 -0.0141
64459W        W 7372  11.734  22.873  27.711 -0.0184 -0.0503 -0.1642
64460W        W 7373  10.806  29.195  20.041  0.2145  0.0136  0.0073
64461W        W 7374   9.560  20.261  18.692  0.1719  0.1641 -0.1996
64462W        W 7375   4.874  28.740  28.876 -0.4248  0.0191 -0.1846
64463W        W 7376  12.285  24.921  19.978  0.2259 -0.0638 -0.1063
64464W        W 7377   5.411  33.008  20.667 -0.2009 -0.1683  0.1956
64465W        W 7378  20.006   2.447   0.912  0.5174  0.0709  0.1458
64466W        W 7379  19.289  27.604  29.085 -0.0939 -0.1441  0.1355
64467W        W 7380  14.702  26.865  26.195  0.4136 -0.0486  0.0446
64468W        W 7381   6.120  34.081  18.627 -0.3234  0.1277 -0.1436
64469W        W 7382  15.754  25.228  23.931  0.0685 -0.2124 -0.0815
64470W        W 7383   0.576  32.529  23.044  0.0662  0.0034 -0.2072
64471W        W 7384   9.421  16.702  23.096  0.0547 -0.1237 -0.2560
64472W        W 7385  10.944  20.350   4.595 -0.3447 -0.0288  0.0008
64473W        W 7386  11.327  34.353  21.267 -0.0150  0.3525 -0.2086
64474W        W 7387   7.783  23.743  22.151  0.2229 -0.1733 -0.0883
64475W        W 7388   9.603  24.133   0.808 -0.3599  0.2569 -0.1939
64476W        W 7389   4.044  28.254  27.044 -0.0118 -0.1734  0.0313
64477W        W 7390   5.289  15.087  23.677 -0.1147  0.1021 -0.0321
64478W        W 7391  18.306   0.455   2.876 -0.1169 -0.0667 -0.1461
64479W        W 7392   8.216  23.090  20.156 -0.1304 -0.1842  0.0068
64480W        W 7393  23.907  21.025  17.126  0.0480 -0.0525  0.1939
64481W        W 7394   6.654   5.055  23.533 -0.0287  0.0795  0.0095
64482W        W 7395  15.862  27.190  26.896 -0.0317  0.1291  0.1824
64483W        W 7396  13.673  34.397   1.083 -0.2971  0.1874  0.0262
64484W        W 7397  13.469  17.364  23.262 -0.1544 -0.0163 -0.1329
64485W        W 7398  16.441   0.792   3.593  0.2206  0.1959 -0.1088
64486W        W 7399  25.458  24.144  27.461  0.0356  0.2215 -0.2412
64487W        W 7400  23.779  25.265  18.320  0.2095  0.0738 -0.0591
64488W        W 7401   9.834  22.828   2.716 -0.1620 -0.4906 -0.4093
64489W        W 7402   4.624  24.530  29.326  0.2746 -0.0916  0.1815
64490W        W 7403  12.741  25.159   5.637 -0.1354 -0.0794 -0.0424
64491W        W 7404  16.604  23.963  22.844 -0.1064 -0.2203  0.1566
64492W        W 7405  25.076  14.866   6.163  0.1044 -0.1219  0.3834
64493W        W 7406  16.710  28.443  21.220 -0.1595  0.0912  0.2448
64494W        W 7407   9.786  23.268  26.961 -0.1864 -0.4170 -0.1729
64495W        W 7408   6.780  31.692  28.269  0.2329  0.1606 -0.1800
64496W        W 7409  17.237  29.698  29.278 -0.0414 -0.1629 -0.0966
64497W        W 7410   6.235  25.119  16.354 -0.1307 -0.1241 -0.2945
64498W        W 7411   0.504  31.329   3.015  0.1351 -0.0217  0.0659
64499W        W 7412  13.417  26.027  22.645 -0.0115 -0.1299 -0.0036
64500W        W 7413  10.501  33.376   9.175  0.4011  0.0919 -0.0609
64501W        W 7414  10.099   7.726  20.927 -0.0429 -0.2187  0.2623
64502W        W 7415  13.534  25.709  20.621  0.4115 -0.1063  0.1204
64503W        W 7416  14.115  16.641  26.155 -0.2340  0.1831 -0.1540
64504W        W 7417   9.189  27.491   2.728 -0.0765 -0.0481  0.0885
64505W        W 7418  11.369  32.818  26.490 -0.0636 -0.0249 -0.1822
64506W        W 7419  16.443  29.969  17.697  0.1780 -0.3303 -0.0522
64507W        W 7420  30.708  31.396  20.062 -0.0811 -0.2575  0.3086
64508W        W 7421  10.302  29.564  29.596 -0.0784  0.0364 -0.1298
64509W        W 7422   6.404  29.455  23.615 -0.2355  0.0997 -0.2087
64510W        W 7423  19.611  32.277  27.694  0.0992  0.5615  0.0551
64511W        W 7424  15.693   1.679  28.526  0.0859 -0.1582 -0.3005
64512W        W 7425  13.747  27.267  26.409  0.3526 -0.2031  0.1360
64513W        W 7426  13.485  27.594  29.656  0.2026  0.0219  0.2562
64514W        W 7427  12.012  27.831  22.760 -0.1617 -0.1247  0.1282
64515W        W 7428  12.879   5.710  23.247  0.1650  0.0893  0.1037
64516W        W 7429  17.475  25.956   1.589 -0.0991 -0.2870  0.2909
64517W        W 7430   2.975  21.191  18.149 -0.1915  0.0200 -0.1798
64518W        W 7431  17.077  31.808  26.563 -0.2866  0.2323 -0.1385
64519W        W 7432  16.286  33.060  19.191  0.1209 -0.1766 -0.3502
64520W        W 7433  25.302  25.636   5.034  0.0457  0.1858  0.0525
64521W        W 7434  31.594  26.795   5.233  0.0356 -0.1260  0.2190
64522W        W 7435   4.567  33.359  21.622  0.0881 -0.1220  0.1744
64523W        W 7436   5.112  31.088   0.502  0.1252  0.1860  0.0665
64524W        W 7437   2.456  25.134  26.849 -0.0053 -0.0062 -0.1702
64525W        W 7438  16.654   3.472  21.126  0.0403  0.3370  0.2326
64526W        W 7439   2.439  34.365  10.535  0.0340 -0.1456 -0.1052
64527W        W 7440  20.718  19.781  28.964 -0.0165  0.2824  0.1636
64528W        W 7441  25.190  25.539  27.126 -0.0071 -0.1054  0.3182
64529W        W 7442  18.679  31.574  27.298  0.1731 -0.3932  0.0802
64530W        W 7443  13.507  24.740  28.284  0.1372 -0.3368 -0.2509
64531W        W 7444   4.546  20.130   4.780 -0.1432 -0.5019  0.0626
64532W        W 7445  14.352  18.324   7.086 -0.2206 -0.2543 -0.2821
64533W        W 7446  17.488  19.041  25.056 -0.1324 -0.1052 -0.0479
64534W        W 7447  17.207   0.111  29.120  0.1147  0.1877  0.0458
64535W        W 7448   4.385   0.158  24.212 -0.1933 -0.1463  0.0020
64536W        W 7449  10.575   0.251  22.372 -0.0562 -0.2281  0.0029
64537W        W 7450  14.481  31.938   2.203  0.2120 -0.2006 -0.0170
64538W        W 7451  11.680  28.243  26.378  0.0029  0.1275  0.0584
64539W        W 7452  11.502  26.064   5.550 -0.2369 -0.2263  0.0113
64540W        W 7453   1.281  13.165  20.241  0.4575  0.2384 -0.1592
64541W        W 7454   6.704  19.128  26.601  0.0250 -0.1945  0.4867
64542W        W 7455  13.288  30.996  27.149  0.0949 -0.0569 -0.0352
64543W        W 7456  13.670  26.610  10.237  0.1091  0.4773  0.2181
64544W        W 7457  20.270  26.727   7.059  0.0422 -0.1761  0.0017
64545W        W 7458  13.163  12.283  27.534  0.3821  0.1139 -0.2364
64546W        W 7459  23.381  25.472  18.133 -0.1021  0.2367  0.0741
64547W        W 7460  19.220  17.360  27.428  0.0059 -0.1090 -0.1929
64548W        W 7461  14.314  12.863  15.860  0.2361  0.1225 -0.0701
64549W        W 7462   3.656  23.385  27.425  0.2852  0.0095  0.1106
64550W        W 7463  17.377  24.646  24.211 -0.1034  0.2135  0.0695
64551W        W 7464  12.651   4.265   5.427  0.2203 -0.1589 -0.0299
64552W        W 7465  16.132  27.316  22.750  0.1600  0.2371 -0.0822
64553W        W 7466  23.425  15.495   2.655  0.2524 -0.0144 -0.2815
64554W        W 7467  20.867  18.358  16.390 -0.3159  0.2690  0.0546
64555W        W 7468  33.335   7.096   1.897 -0.3433  0.2729  0.1496
64556W        W 7469  14.740  21.063  19.268  0.0524  0.0075  0.2983
64557W        W 7470  13.401  30.501   8.831 -0.2916 -0.1129 -0.3715
64558W        W 7471   9.088  18.610  25.561 -0.2627  0.0655  0.0063
64559W        W 7472  16.070  32.952   6.988  0.0328  0.1228 -0.2822
64560W        W 7473  13.284  13.182  28.866  0.1678 -0.1270 -0.0236
64561W        W 7474  15.413  29.437   7.531  0.1214 -0.1948 -0.0994
64562W        W 7475  12.309  26.269  23.521  0.2004 -0.0726 -0.2605
64563W        W 7476  12.402  25.198  18.640 -0.0159  0.0269 -0.0470
64564W        W 7477  16.458  30.215   6.048  0.1810  0.0318  0.0315
64565W        W 7478  19.356  32.328   3.329 -0.0388  0.0307  0.2261
64566W        W 7479  12.631  25.209   0.669 -0.0989  0.2571  0.0294
64567W        W 7480   2.364  25.861  16.856 -0.2078  0.4923  0.1409
64568W        W 7481  24.813   2.738  21.787  0.2078  0.1928  0.1562
64569W        W 7482  15.765  15.083  16.754 -0.0154 -0.1920  0.3556
64570W        W 7483   4.866  21.258  23.179  0.1673 -0.3545  0.3358
64571W        W 7484   3.058  31.285  17.244  0.2988  0.0343 -0.4108
64572W        W 7485   5.374  29.846   9.244  0.1382  0.3144  0.2324
64573W        W 7486  24.310  18.717  15.337  0.1275 -0.0496  0.4816
64574W        W 7487  15.086  21.720   2.858 -0.1074 -0.0074 -0.1536
64575W        W 7488  12.793  24.164  27.716 -0.5585  0.0439  0.0456
64576W        W 7489  14.547  22.308   1.666 -0.0676  0.0361 -0.2364
64577W        W 7490   7.434  26.686  27.045  0.0102  0.3516 -0.0004
64578W        W 7491   7.827  21.185   4.346 -0.0591  0.0433  0.0094
64579W        W 7492  13.159  16.551   3.926  0.1309 -0.1562 -0.1204
64580W        W 7493  16.767  27.206  29.439  0.0386  0.0873 -0.1402
64581W        W 7494  17.936  25.893   6.734 -0.0502 -0.1249 -0.1154
64582W        W 7495  11.935   3.068  29.176  0.0139  0.3082  0.0740
64583W        W 7496  11.521   1.078   5.709 -0.3452  0.0375  0.0288
64584W        W 7497  12.322  19.390  24.498 -0.1523  0.1009  0.0791
64585W        W 7498  30.494  32.118  29.633  0.2202 -0.2400 -0.0394
64586W        W 7499  13.938  28.168   1.546 -0.2254 -0.2230  0.0726
64587W        W 7500  14.320  23.870  15.696  0.0884  0.1713 -0.2414
64588W        W 7501  16.776  24.645  22.344  0.0516 -0.0967 -0.0685
64589W        W 7502  15.286  18.903  22.524 -0.1815  0.1203 -0.1184
64590W        W 7503  13.674  18.608  27.278 -0.1755 -0.2230  0.0135
64591W        W 7504  14.549  28.861   4.868  0.2509  0.0333  0.0276
64592W        W 7505  14.952  18.849  29.529 -0.0618  0.3789  0.0767
64593W        W 7506  19.296  29.591  26.019  0.0282  0.3391  0.3450
64594W        W 7507  17.384  27.324  24.146  0.0713  0.1063  0.2204
64595W        W 7508  18.788   0.759  22.963 -0.0054 -0.0799 -0.0360
64596W        W 7509   8.930  18.370   0.489  0.3106 -0.0793 -0.1620
64597W        W 7510   6.148  18.708   5.765 -0.2517  0.0098  0.1594
64598W        W 7511  17.171  24.846  21.303  0.0190  0.0860  0.0346
64599W        W 7512   1.292  10.779   2.745  0.2534 -0.0320  0.2283
64600W        W 7513  14.631  21.414  28.676  0.0769  0.3258  0.0376
64601W        W 7514  18.854  28.987   8.383  0.0020  0.0424 -0.0757
64602W        W 7515  12.977  34.178  21.387  0.0620 -0.1878  0.1985
64603W        W 7516  34.165   7.346  26.776 -0.1851  0.1043 -0.1490
64604W        W 7517   9.457  16.254  28.467  0.1540  0.1471 -0.0153
64605W        W 7518  15.076  26.991  15.217  0.0877 -0.2754  0.0134
64606W        W 7519   3.345  34.013   2.722 -0.1541 -0.4160  0.1133
64607W        W 7520  12.807  20.562  18.453 -0.1013  0.1207  0.0506
64608W        W 7521  22.700  25.057   2.745 -0.2538 -0.2864 -0.1298
64609W        W 7522  11.941  19.787  27.182  0.3279  0.1761  0.0367
64610W        W 7523  18.517  34.215  27.686  0.0642 -0.1023 -0.3794
64611W        W 7524  10.731  13.905   0.468  0.1835  0.0777 -0.2292
64612W        W 7525  22.520  29.669  29.424 -0.4177 -0.0242  0.1957
64613W        W 7526  29.013  14.436  24.360 -0.0614 -0.0135 -0.2466
64614W        W 7527  11.437  23.952   0.016  0.0047 -0.1045  0.1687
64615W        W 7528   8.456  29.293  21.561  0.0316  0.1145 -0.2699
64616W        W 7529  17.138  19.282  27.851 -0.0540 -0.2274  0.4758
64617W        W 7530   4.877  24.176  27.823 -0.3528  0.0434 -0.1468
64618W        W 7531   8.993   3.329   1.914 -0.1669 -0.0475 -0.1478
64619W        W 7532  18.695  23.074   9.308 -0.0270  0.1242  0.0023
64620W        W 7533  15.905  27.295  24.451 -0.2717  0.1054 -0.2909
64621W        W 7534  15.954  12.774   5.090  0.0810 -0.1985  0.2288
64622W        W 7535   5.414  12.863  20.901 -0.3398  0.2455  0.1446
64623W        W 7536   7.739  28.130  23.657  0.3224  0.0184  0.0151
64624W        W 7537  21.487  26.149  26.773  0.0678 -0.1715 -0.0271
64625W        W 7538   5.252  18.127   1.559 -0.0230 -0.3548  0.1855
64626W        W 7539  16.984  29.435  16.951  0.0585 -0.1247 -0.0089
64627W        W 7540   5.945  29.856  24.244 -0.0499 -0.2012 -0.0087
64628W        W 7541  10.560  21.322  17.406 -0.0733 -0.0218  0.2451
64629W        W 7542   9.959  28.155  26.339  0.0884  0.1365  0.1560
64630W        W 7543  17.667   3.137   5.647  0.3227 -0.1801  0.1245
64631W        W 7544  23.518  25.618  21.486 -0.0003 -0.2372 -0.3506
64632W        W 7545  16.619  26.792  27.609 -0.5628  0.1774  0.4653
64633W        W 7546  13.985  27.937  22.811  0.2507  0.2974 -0.0006
64634W        W 7547  10.687  24.001   1.420  0.0245  0.2793 -0.0702
64635W        W 7548   7.909  17.510  25.811  0.0781 -0.0544 -0.3783
64636W        W 7549  14.385  27.329  24.866  0.1055  0.0669 -0.3657
64637W        W 7550   6.665  30.541  27.836 -0.4376 -0.2505 -0.2844
64638W        W 7551  16.231  33.964  22.117 -0.2282  0.2475 -0.2241
64639W        W 7552  14.728  22.539  19.377  0.1681 -0.2848  0.0216
64640W        W 7553  16.236  34.229  22.984  0.0427  0.1856  0.0250
64641W        W 7554   8.200  32.837  28.450 -0.2982 -0.2160 -0.0744
64642W        W 7555  13.012  24.372  17.932  0.1293 -0.1222  0.0036
64643W        W 7556  13.533  18.262  21.423  0.4172  0.1070 -0.1611
64644W        W 7557  17.586  28.172  24.549 -0.0353  0.2076 -0.0891
64645W        W 7558  14.398  28.616   5.315  0.0062 -0.1938 -0.0681
64646W        W 7559  12.948  20.242  20.264  0.3290 -0.2115  0.1517
64647W        W 7560  10.879  23.786  26.065  0.0550 -0.1680 -0.1324
64648W        W 7561  14.970  33.775  16.307 -0.1899  0.2254  0.1527
64649W        W 7562  13.417   9.416  21.939  0.2580 -0.0437 -0.1723
64650W        W 7563  16.091  22.946  29.662  0.0598  0.1147  0.3935
64651W        W 7564   9.811  23.525  29.583  0.2419  0.1192  0.1254
64652W        W 7565  22.318  28.337   4.667 -0.0996  0.2825 -0.2252
64653W        W 7566   9.884  25.960   5.545  0.2674  0.1679 -0.0130
64654W        W 7567   8.323  30.176   0.109  0.1366 -0.1408  0.0811
64655W        W 7568  17.337  29.071  17.548  0.0770  0.1550 -0.0473
64656W        W 7569  28.809  17.400  27.645 -0.0563 -0.1900 -0.2142
64657W        W 7570   8.101  34.240  29.645 -0.0295  0.0200 -0.0522
64658W        W 7571  17.392  27.478  21.363  0.3587  0.0039  0.0869
64659W        W 7572   5.357   1.045   3.654  0.0294 -0.2068 -0.1243
64660W        W 7573  19.824  29.860  27.224 -0.0248 -0.0424  0.0825
64661W        W 7574  24.415  18.821  26.603  0.0658  0.0669  0.2052
64662W        W 7575   9.740  23.871  27.370  0.0581 -0.1320 -0.0334
64663W        W 7576  15.921  26.599   8.687 -0.1816  0.1197  0.1252
64664W        W 7577   5.933  30.118  29.525 -0.0901 -0.0930 -0.1542
64665W        W 7578   8.474  31.273  26.318  0.1750 -0.2882 -0.0755
64666W        W 7579  12.139  30.329  18.209  0.0632  0.1166  0.1952
64667W        W 7580  12.126  28.445  21.332 -0.1497 -0.1900  0.1234
64668W        W 7581   9.014  28.266  26.981  0.2531  0.0548 -0.3094
64669W        W 7582  15.552  23.582  28.263 -0.2671  0.0272 -0.1886
64670W        W 7583   3.541  30.936  27.813  0.0373 -0.2291 -0.2314
64671W        W 7584  16.540  26.916  18.275 -0.1549  0.0073  0.0822
64672W        W 7585  19.616  10.356  22.954 -0.0706 -0.0110  0.0383
64673W        W 7586  19.507  29.578   0.691  0.2910  0.1654 -0.2409
64674W        W 7587   7.418  31.718   4.981  0.0648 -0.1333 -0.2544
64675W        W 7588  15.267  12.943  25.838 -0.1136  0.0598  0.4360
64676W        W 7589  13.767   1.300  26.217  0.0157 -0.1403 -0.1235
64677W        W 7590  24.821   2.240   1.934  0.1303 -0.1815  0.4521
64678W        W 7591  33.289  28.410   1.833 -0.0826  0.0834  0.0064
64679W        W 7592   9.136  20.928  21.692  0.0067 -0.0125  0.0309
64680W        W 7593  31.986  30.304   3.345 -0.3510  0.0950 -0.0656
64681W        W 7594  10.129  23.123   7.617 -0.1138  0.1657  0.2021
64682W        W 7595  20.678   1.217   7.296  0.1293  0.1631 -0.4762
64683W        W 7596   7.672  27.265  21.513 -0.0956 -0.0115 -0.0283
64684W        W 7597  22.665  32.903  25.132  0.1919 -0.0363 -0.3321
64685W        W 7598  13.231  27.516  18.015  0.1436  0.0054 -0.2175
64686W        W 7599  15.448   4.404   6.602 -0.3746 -0.0347  0.0063
64687W        W 7600   9.675  19.363   9.677  0.3410  0.2286 -0.2477
64688W        W 7601  19.464  31.145  21.388  0.0100  0.1972  0.0773
64689W        W 7602  12.351  16.209   4.155 -0.2357  0.0179  0.2490
64690W        W 7603   6.421  31.685   5.844 -0.1627  0.2245  0.2064
64691W        W 7604   8.175  30.782  22.178 -0.0637  0.1286 -0.3661
64692W        W 7605   4.102  22.537  16.382  0.3275  0.0089 -0.0745
64693W        W 7606  12.402  24.841  15.616 -0.2149  0.2727  0.2847
64694W        W 7607   4.172  25.784  29.044  0.0006  0.0131 -0.1183
64695W        W 7608   6.320  21.096   2.829 -0.2777  0.0799  0.2088
64696W        W 7609  11.404  22.789   0.263 -0.1675  0.2645  0.1811
64697W        W 7610  10.758  29.681   0.012 -0.0701 -0.3386  0.0394
64698W        W 7611   9.950  26.213  22.023 -0.1607  0.1773 -0.1253
64699W        W 7612  10.021  31.761  19.798 -0.2674  0.2055 -0.1501
64700W        W 7613  11.637  28.033  26.893  0.0813 -0.1674 -0.0957
64701W        W 7614  21.288   0.054   1.616  0.0651  0.0535 -0.0120
64702W        W 7615  14.845  24.679   1.863  0.0917  0.1505 -0.1110
64703W        W 7616  13.259  29.144  24.482  0.4333  0.3470  0.0254
64704W        W 7617  20.135  24.146  23.440 -0.0238 -0.1755 -0.0915
64705W        W 7618  12.177  27.284   2.662 -0.0310  0.2139  0.2295
64706W        W 7619  14.853  30.890  26.877 -0.1167  0.2570  0.0976
64707W        W 7620  10.207  32.490  27.062  0.1998  0.0887  0.0416
64708W        W 7621   7.153  20.540   6.210 -0.0194  0.0708 -0.0424
64709W        W 7622   4.500  29.158  26.016 -0.0634 -0.3677 -0.2552
64710W        W 7623   5.521  33.530  26.537  0.0281 -0.3094 -0.1383
64711W        W 7624   5.824  15.837  27.446  0.3219  0.0426 -0.1781
64712W        W 7625  16.030  29.925  27.148 -0.0127 -0.0522  0.0100
64713W        W 7626  21.670  32.054   4.764  0.2522  0.2620 -0.0554
64714W        W 7627   7.119  34.011  26.661  0.2343  0.0402  0.0146
64715W        W 7628  14.995   4.867   2.397  0.2722  0.0125 -0.0354
64716W        W 7629   8.444  31.243  29.222  0.1118  0.0581 -0.1466
64717W        W 7630  13.874  21.400  18.309  0.0911 -0.1094 -0.0914
64718W        W 7631  27.001  33.946  22.259  0.0152  0.2340  0.0773
64719W        W 7632  14.185  26.103  29.025  0.4106 -0.0613 -0.1601
64720W        W 7633   6.939  28.265  28.216  0.1507 -0.1819  0.3117
64721W        W 7634  12.376  24.195   3.779  0.2157 -0.0184 -0.1967
64722W        W 7635   5.221  32.637  18.647 -0.2421 -0.0685  0.0801
64723W        W 7636   9.948  10.895  22.519 -0.2765  0.4335 -0.1984
64724W        W 7637  11.938  23.438  15.466  0.0402 -0.1422 -0.0599
64725W        W 7638  12.458   2.713  29.188  0.0951 -0.1370 -0.1992
64726W        W 7639   7.065  32.567  20.393  0.0387 -0.2096 -0.1438
64727W        W 7640   7.245  26.289   9.927 -0.0726 -0.0206 -0.1818
64728W        W 7641  11.501  19.894   0.892  0.0786 -0.1129  0.3811
64729W        W 7642  15.388  29.907  28.016  0.1968 -0.0229  0.1420
64730W        W 7643   1.446  31.834  20.031  0.2389  0.0123 -0.2237
64731W        W 7644  22.446  22.959  29.136 -0.1308 -0.1427 -0.0794
64732W        W 7645   8.346  30.431   4.260 -0.1995 -0.1021  0.0550
64733W        W 7646  20.347  27.795  25.796 -0.2455 -0.1140 -0.0399
64734W        W 7647  12.345  30.074  27.622 -0.0509  0.1323 -0.0525
64735W        W 7648  13.689  29.024   9.107 -0.0112  0.0608  0.1647
64736W        W 7649  21.313  34.071  22.024  0.1572  0.0712  0.2366
64737W        W 7650  12.641  23.364   6.105  0.1965  0.0828  0.1509
64738W        W 7651  33.967  22.858  28.217  0.1707 -0.2510 -0.0739
64739W        W 7652  19.454  34.133  21.991  0.2649 -0.0064  0.0808
64740W        W 7653  15.384  26.501  26.948 -0.2112  0.0269  0.0735
64741W        W 7654   9.702  18.748  18.361 -0.4925  0.0724 -0.1265
64742W        W 7655  10.012  25.585  26.448  0.2204  0.1461  0.0779
64743W        W 7656  16.993  33.886  29.301  0.1643  0.0549  0.2501
64744W        W 7657  13.035   1.422  11.154  0.0171 -0.1205 -0.2368
64745W        W 7658  18.403  27.285  28.068  0.0807  0.0656  0.1969
64746W        W 7659  12.414  20.078  22.330 -0.0150 -0.2115 -0.0297
64747W        W 7660  12.820  34.105  20.119 -0.3507 -0.0896  0.0494
64748W        W 7661  10.383  30.424  28.980 -0.0201 -0.2039 -0.2111
64749W        W 7662   9.700  26.027  28.789  0.2067  0.1408  0.1819
64750W        W 7663   7.914  18.143  26.744 -0.0878  0.2370  0.1167
64751W        W 7664  22.014  26.059   1.074  0.1084 -0.0936  0.0598
64752W        W 7665  19.907  31.928  27.752 -0.1263 -0.0920  0.1213
64753W        W 7666  23.834  22.283  17.456  0.2976 -0.0248  0.0767
64754W        W 7667   6.280  34.219  19.157  0.0426 -0.1596  0.0712
64755W        W 7668  14.139   7.894  24.420  0.0734  0.2662  0.0027
64756W        W 7669  15.556  25.626   1.581 -0.2027  0.0030  0.2105
64757W        W 7670  24.511  25.325  28.205 -0.0694  0.1395  0.2986
64758W        W 7671  18.895  27.403  28.092  0.1831 -0.1020  0.0857
64759W        W 7672  13.981  31.423  24.499 -0.2038  0.0182 -0.0483
64760W        W 7673  14.488  24.020  24.378  0.1823  0.1009 -0.0825
64761W        W 7674  11.742  18.290  14.419  0.1415 -0.0845 -0.0335
64762W        W 7675  18.012  20.155  23.434 -0.2748 -0.1135 -0.2292
64763W        W 7676   5.435  26.733  24.318  0.2307 -0.3902  0.0211
64764W        W 7677  13.146  16.957  25.197 -0.4266  0.1882 -0.2616
64765W        W 7678  14.568  22.711  25.742  0.0522 -0.2458 -0.0654
64766W        W 7679   1.492  33.640   5.290 -0.2024  0.0278 -0.1990
64767W        W 7680   8.724  19.447  27.645 -0.0876 -0.1204 -0.2461
64768W        W 7681  14.345  25.896  25.355  0.1032 -0.2955 -0.2240
64769W        W 7682  18.424  26.254  28.353  0.1365 -0.2381  0.1020
64770W        W 7683  17.621  29.366  19.224 -0.0688 -0.0729  0.1769
64771W        W 7684  16.405  17.752  25.867  0.1019  0.1538 -0.1980
64772W        W 7685  11.040  28.787  23.028  0.1488  0.1295 -0.1949
64773W        W 7686  12.299  18.048  22.334  0.0993 -0.1654 -0.1947
64774W        W 7687  14.307  24.726   6.917  0.4330 -0.1726  0.2870
64775W        W 7688  15.588  28.104   6.348  0.1693 -0.1207  0.0041
64776W        W 7689  21.897  32.480   0.206  0.0302 -0.1869  0.0097
64777W        W 7690  14.619  16.644  23.587 -0.2177 -0.1472  0.1128
64778W        W 7691   5.166  20.411  25.798 -0.1443  0.2736  0.0227
64779W        W 7692   9.380  30.498  17.257 -0.0531 -0.0075  0.1503
64780W        W 7693   9.666  21.286   2.092  0.2431  0.1260  0.0470
64781W        W 7694  15.020  27.392  27.906  0.2327  0.2393  0.2599
64782W        W 7695  16.837  23.906   4.122  0.0176 -0.3374 -0.1016
64783W        W 7696  11.318  16.347  24.908 -0.2670  0.1209  0.0582
64784W        W 7697  32.014  31.219  24.181 -0.1069 -0.0170 -0.1302
64785W        W 7698   3.447  30.475   7.181 -0.0856  0.0815  0.0591
64786W        W 7699  20.697  25.278  21.251 -0.1819  0.3253 -0.0182
64787W        W 7700  16.934   5.508  28.381 -0.0793 -0.1713 -0.0414
64788W        W 7701  15.374  12.695  27.020  0.0689 -0.1163  0.2089
64789W        W 7702  10.015  26.205   6.737  0.0728 -0.0501 -0.1125
64790W        W 7703  13.121  27.974  26.595  0.1587 -0.1050 -0.1660
64791W        W 7704  12.998  28.673   8.163 -0.0561  0.0441  0.1181
64792W        W 7705   6.246   4.430  28.003 -0.1653  0.3637  0.1556
64793W        W 7706   6.091  22.384  23.748  0.3020  0.3103  0.0098
64794W        W 7707  17.726  31.670   8.188  0.2541 -0.0426 -0.1289
64795W        W 7708  21.848  21.389  28.038 -0.2908  0.0521  0.2730
64796W        W 7709  15.785  34.473  18.553  0.1769  0.2077  0.2131
64797W        W 7710  17.250  23.094   8.627 -0.1457 -0.0187 -0.1501
64798W        W 7711  23.757  16.809   9.374  0.0780  0.2385 -0.0518
64799W        W 7712  10.739  22.251   6.720  0.0106  0.1792  0.1776
64800W        W 7713   3.690  30.358   2.078  0.2137 -0.1210  0.2712
64801W        W 7714  23.069  22.404  18.036  0.0340 -0.1355 -0.2485
64802W        W 7715   3.997  26.516  26.205  0.3708 -0.4013  0.0109
64803W        W 7716  12.778  14.883  24.622 -0.1457 -0.1045  0.0622
64804W        W 7717  26.873  32.621  26.275  0.0502  0.2242  0.1119
64805W        W 7718  15.522  23.041  27.602  0.0460 -0.2797  0.0046
64806W        W 7719   6.801  29.882  24.737 -0.1996 -0.0801 -0.2125
64807W        W 7720  21.595  15.861  29.422 -0.0357 -0.2977 -0.1144
64808W        W 7721   9.056  27.982  29.142 -0.5012  0.1104  0.0071
64809W        W 7722  15.708  22.252  13.462  0.1111 -0.3474  0.2035
64810W        W 7723  15.950  14.299   4.410 -0.0008 -0.3428  0.4489
64811W        W 7724  10.214  25.203  27.810 -0.0914  0.2402  0.0270
64812W        W 7725  17.472  18.812   1.509 -0.2651  0.0559  0.3590
64813W        W 7726   4.972  18.608   2.178  0.2065  0.1944  0.1616
64814W        W 7727   4.351  30.599  24.702 -0.0997  0.2906 -0.3134
64815W        W 7728   1.159  29.718  26.590  0.2720  0.4637 -0.1048
64816W        W 7729  12.184  26.266  21.592 -0.1042 -0.2619  0.1544
64817W        W 7730  14.773  25.172   2.057  0.0599 -0.1735 -0.3692
64818W        W 7731  19.679  31.055  24.489 -0.1151  0.0293  0.0857
64819W        W 7732  10.311  28.296   2.769 -0.0493 -0.0889 -0.3339
64820W        W 7733   3.418  23.632   0.541 -0.2820 -0.2427 -0.0592
64821W        W 7734  11.642  29.199   4.428 -0.1741  0.2105  0.3849
64822W        W 7735  15.538  23.354  18.379  0.1238  0.1633  0.0725
64823W        W 7736  19.518  27.391  24.994  0.1972 -0.0081  0.5093
64824W        W 7737   3.821  22.680  20.155  0.3607  0.0398 -0.2599
64825W        W 7738  20.082  24.937  18.420 -0.0026 -0.0216  0.0490
64826W        W 7739   2.776  33.725  21.306  0.0907  0.0875  0.0777
64827W        W 7740  16.541  21.508   3.934 -0.1655  0.0200  0.2116
64828W        W 7741  20.879  20.717   7.321 -0.0455  0.0981  0.1665
64829W        W 7742  19.321  33.009  20.803  0.0502 -0.2472  0.2097
64830W        W 7743   4.098   2.589  25.665 -0.0422  0.0872  0.3343
64831W        W 7744  18.942  26.409  23.958 -0.2199  0.0045 -0.1776
64832W        W 7745   5.229  21.719  24.103  0.0114 -0.1390  0.1164
64833W        W 7746  21.299  19.103   2.311  0.2045  0.0487 -0.4935
64834W        W 7747  10.718  24.076  25.667  0.0899 -0.0566 -0.0339
64835W        W 7748  14.707  27.162   2.304  0.0826  0.1213  0.2746
64836W        W 7749  15.995  25.691  23.702  0.1128  0.0905  0.0078
64837W        W 7750  12.253   0.321  26.222 -0.1062 -0.2547  0.0220
64838W        W 7751   9.745  26.261  29.711  0.1406  0.2126  0.0589
64839W        W 7752   8.586  33.512  25.647 -0.1395 -0.0483  0.1964
64840W        W 7753  12.069  18.457  25.510  0.0404 -0.0337  0.0310
64841W        W 7754   7.878  14.227  23.719 -0.0425  0.2438  0.0470
64842W        W 7755  17.119  33.552   0.233 -0.2300  0.2118 -0.0386
64843W        W 7756   3.377  24.019  23.336  0.0781  0.3225 -0.0460
64844W        W 7757  10.984  14.919  27.051 -0.1835  0.1417  0.1901
64845W        W 7758   9.428  22.421  22.347  0.0926 -0.0712  0.0672
64846W        W 7759  13.109  34.434   9.542 -0.1023  0.2181  0.1810
64847W        W 7760   2.178  32.814  18.699  0.0135  0.2011 -0.1864
64848W        W 7761   1.550  17.910   4.956 -0.1639 -0.3071  0.1242
64849W        W 7762  11.962  24.697   4.072 -0.1656  0.3707 -0.1366
64850W        W 7763   9.800  11.072   0.436 -0.1492  0.0100 -0.1941
64851W        W 7764  12.847  26.698  27.066 -0.0954 -0.0910  0.0246
64852W        W 7765   5.942  21.760  15.764 -0.0429 -0.0766  0.3129
64853W        W 7766   8.744  19.854  25.721 -0.1139  0.3802  0.2901
64854W        W 7767   2.171  26.851   7.522  0.1627  0.3535 -0.2190
64855W        W 7768  19.185   4.741  29.006 -0.3890  0.0870  0.2301
64856W        W 7769  16.273  21.912   0.981 -0.0926  0.0787  0.1675
64857W        W 7770  22.621  18.226  13.349 -0.0067 -0.2426  0.1868
64858W        W 7771  23.671  29.872  22.186 -0.0147  0.0177  0.1688
64859W        W 7772  20.073  17.116  23.293 -0.4189  0.1203  0.3806
64860W        W 7773   4.166  28.397   4.728  0.0486 -0.2295 -0.0140
64861W        W 7774  20.604  16.189  14.793 -0.0774 -0.1371  0.0410
64862W        W 7775  10.060  16.368   7.992  0.0769 -0.0015 -0.3140
64863W        W 7776  16.318  19.027  27.015 -0.1356 -0.0339  0.1827
64864W        W 7777   8.273  20.984  29.453  0.1400  0.1138  0.0349
64865W        W 7778  12.122  33.104   8.316  0.2347 -0.0226 -0.1472
64866W        W 7779   8.668  26.073  28.767 -0.1062  0.2043 -0.2584
64867W        W 7780  16.698  27.123   0.252  0.2157 -0.1832 -0.1641
64868W        W 7781  15.809  28.496   1.883  0.2113 -0.1634 -0.0223
64869W        W 7782  32.423  28.483  28.869  0.0680  0.2203  0.3302
64870W        W 7783  11.281  23.955  24.399 -0.0616 -0.0185  0.2433
64871W        W 7784  10.402  30.070  22.746 -0.3227 -0.0496 -0.3793
64872W        W 7785  32.836  29.693   2.134 -0.3278  0.2061  0.0132
64873W        W 7786  15.547  32.407  25.382  0.0138 -0.2569  0.3521
64874W        W 7787   6.638  20.414  25.831  0.0055 -0.1172 -0.0210
64875W        W 7788  10.255  23.702  17.945  0.1516 -0.1956 -0.2564
64876W        W 7789  16.821  32.693  23.706  0.1994  0.2135  0.1379
64877W        W 7790  11.928  24.866  29.284  0.4476  0.1057  0.1183
64878W        W 7791  23.972  27.530   1.345  0.2127  0.0541 -0.2292
64879W        W 7792   4.456  25.974  27.905  0.0352  0.0003 -0.1987
64880W        W 7793  16.324  26.066   2.425  0.2157 -0.2525  0.2035
64881W        W 7794  18.247  25.894  26.578 -0.1520  0.1404  0.1017
64882W        W 7795  24.025  25.874  25.517 -0.0224  0.1345 -0.0175
64883W        W 7796  13.701  19.675   7.721  0.2466 -0.3445 -0.4842
64884W        W 7797  22.688   0.548   3.197 -0.1868  0.4405 -0.2065
64885W        W 7798   5.437  25.974  19.157 -0.1293  0.0316  0.1767
64886W        W 7799   9.401  26.063   9.724 -0.0531  0.1874  0.0709
64887W        W 7800  20.870  22.980  14.909 -0.2231 -0.1497 -0.2401
64888W        W 7801   9.724  28.219  22.141 -0.4288 -0.1129 -0.0374
64889W        W 7802   2.921  28.146   6.545  0.1653  0.3133  0.2016
64890W        W 7803  15.440  25.452  21.634  0.2107  0.1019  0.1345
64891W        W 7804  17.670  29.719   8.909  0.0356  0.1901  0.2100
64892W        W 7805   9.569  33.683   7.028  0.1073  0.2885  0.0850
64893W        W 7806   9.056  21.988  21.838 -0.1817  0.0409 -0.0585
64894W        W 7807  33.013  24.376  24.142 -0.1178  0.0417  0.1068
64895W        W 7808   6.499   8.093   2.170  0.3858 -0.2355 -0.0618
64896W        W 7809  23.645  25.762  26.744  0.0464  0.1370  0.3148
64897W        W 7810   4.737  20.953  27.369 -0.1753 -0.5393  0.1224
64898W        W 7811  10.217  22.103  16.718  0.1301 -0.0231  0.0776
64899W        W 7812  25.614  27.095   7.476 -0.1094  0.2597  0.0892
64900W        W 7813   7.111  24.070  25.066  0.0320 -0.0660 -0.0432
64901W        W 7814  18.198  29.367   0.355 -0.1473 -0.1476  0.1218
64902W        W 7815  10.840  26.947   3.520  0.3045  0.3279  0.2192
64903W        W 7816   6.231   0.470  27.854 -0.0886  0.1363  0.2276
64904W        W 7817   8.365  27.035   5.009 -0.0482  0.0422  0.2795
64905W        W 7818  13.319  23.680   7.065  0.0212 -0.2739  0.1039
64906W        W 7819  18.989   4.621   8.517 -0.1315 -0.0860 -0.0003
64907W        W 7820  14.876  26.451  23.975  0.1013  0.1598 -0.0310
64908W        W 7821   7.338  29.756  22.031  0.2829  0.1155 -0.0907
64909W        W 7822   9.719  18.770   6.631  0.1665  0.0532  0.1849
64910W        W 7823  22.453  24.089  23.438 -0.2534 -0.1970  0.2466
64911W        W 7824  23.888   5.241   4.666 -0.0719 -0.1013 -0.2813
64912W        W 7825   8.226  30.978  27.057 -0.0796 -0.0505 -0.0585
64913W        W 7826  15.952  23.401   2.975  0.0676 -0.3429 -0.1701
64914W        W 7827   9.984  28.336   0.793  0.0169 -0.1507 -0.1034
64915W        W 7828  23.004  28.021   7.355 -0.1049  0.1138 -0.2425
64916W        W 7829  18.018  22.279  27.693 -0.1946  0.2490 -0.1150
64917W        W 7830  17.444  27.432   8.891 -0.2148 -0.0647 -0.0346
64918W        W 7831  20.914  25.329  17.587 -0.2508  0.2222 -0.0037
64919W        W 7832   8.790  26.196  20.051  0.0959  0.1489  0.0890
64920W        W 7833   9.415  21.557  24.573  0.4885  0.0061 -0.3020
64921W        W 7834  21.627  31.401   8.877  0.0835 -0.0665  0.2279
64922W        W 7835  15.222   1.722   2.054  0.3175  0.0397  0.0984
64923W        W 7836  12.369  29.768   4.130 -0.0009  0.1169 -0.0497
64924W        W 7837   9.300  22.448   7.678 -0.1636 -0.1180 -0.2150
64925W        W 7838   7.449   4.573  27.557  0.2320  0.0931 -0.2996
64926W        W 7839  15.055  31.715   1.550 -0.2022  0.1223  0.0025
64927W        W 7840   4.416  33.824  29.544  0.2062  0.0839  0.3491
64928W        W 7841  15.019  27.859  24.613 -0.3305 -0.0218 -0.0741
64929W        W 7842  20.812  17.678  29.146 -0.0785 -0.1021 -0.4577
64930W        W 7843  19.379  16.081   2.479 -0.4435  0.4614  0.0702
64931W        W 7844   9.355  24.168   4.952 -0.0688  0.0703  0.0564
64932W        W 7845  13.949   2.676   5.396 -0.2577 -0.0236 -0.1660
64933W        W 7846  17.300  20.051   3.939  0.0809 -0.2882  0.3333
64934W        W 7847  20.686   6.621   7.747  0.3589  0.1013 -0.3120
64935W        W 7848  18.026  22.531   8.480  0.1471 -0.2980  0.0391
64936W        W 7849  21.157  23.649  25.400 -0.0745  0.2044  0.1391
64937W        W 7850   1.027  16.965   4.599 -0.0548  0.1105 -0.0486
64938W        W 7851   8.644  24.709   5.165  0.2677  0.1044 -0.0297
64939W        W 7852  15.880  22.478  21.578 -0.3541 -0.0888 -0.0915
64940W        W 7853   2.690  31.343   0.692  0.0952  0.2486  0.0087
64941W        W 7854   9.832  27.081   0.074  0.2443 -0.1328  0.0744
64942W        W 7855  17.855  23.204   1.451  0.1030 -0.1810 -0.1746
64943W        W 7856   9.842  17.954   3.803  0.0239 -0.0631  0.1700
64944W        W 7857  19.674  25.297  25.774  0.3038 -0.1137 -0.3762
64945W        W 7858  28.435  23.411  23.686 -0.2953 -0.0071  0.0282
64946W        W 7859  12.086  31.140  20.781 -0.1714 -0.0379 -0.2317
64947W        W 7860  22.038  28.779  19.512  0.0317  0.1769 -0.4981
64948W        W 7861  23.605  27.433  17.507  0.0233 -0.1579 -0.0614
64949W        W 7862   9.330  19.313  23.671  0.0998  0.1438  0.1871
64950W        W 7863  13.542   6.250  15.770  0.2216  0.0713  0.0413
64951W        W 7864  17.648  26.235  20.029 -0.3597  0.1436 -0.0435
64952W        W 7865  20.824  34.164  17.008 -0.0551 -0.0367 -0.0719
64953W        W 7866  11.550  33.466  20.208 -0.1105  0.3563  0.0744
64954W        W 7867   8.482  25.065  17.939 -0.5974 -0.1701  0.1691
64955W        W 7868   8.675  29.103  24.720  0.0658  0.1387  0.2297
64956W        W 7869   0.223  27.831  26.356 -0.1612 -0.1995 -0.1076
64957W        W 7870   1.818  34.413  17.376  0.2496  0.2696  0.0008
64958W        W 7871   1.892  33.105  16.076 -0.0612  0.4469  0.0233
64959W        W 7872  19.873   5.095  16.511 -0.0920 -0.0782 -0.0426
64960W        W 7873   9.935  25.924  17.376  0.1646 -0.1317 -0.2880
64961W        W 7874  13.496  30.431  15.727 -0.1666  0.1473 -0.0014
64962W        W 7875   3.959  23.582  15.427  0.3376 -0.1632  0.2054
64963W        W 7876  13.573  29.598  15.881  0.1073 -0.1145 -0.2097
64964W        W 7877  11.866  32.797  23.046  0.1629  0.1641 -0.3521
64965W        W 7878   9.644  13.334  16.266 -0.0421 -0.1818  0.0344
64966W        W 7879  21.788  29.733  25.293  0.1659  0.6084  0.1180
64967W        W 7880  12.078  30.599  22.258 -0.2279 -0.1894  0.0061
64968W        W 7881  19.367  31.388  19.986  0.0893  0.0268 -0.0594
64969W        W 7882  24.700  27.349  18.759 -0.3382  0.0494  0.1864
64970W        W 7883  20.171  27.546  21.823  0.3870 -0.1811  0.1455
64971W        W 7884   9.978  26.013  27.212 -0.1890  0.1351 -0.0054
64972W        W 7885  12.352  22.641  15.769  0.1444 -0.2329 -0.1895
64973W        W 7886  16.979  25.162  17.357  0.0763  0.0583 -0.2788
64974W        W 7887  16.469  27.676  16.777  0.0974  0.3654 -0.0722
64975W        W 7888   7.040  17.364  14.720 -0.2553 -0.3220 -0.2331
64976W        W 7889  10.581  28.143  19.160  0.0733  0.0232 -0.2327
64977W        W 7890  13.898  33.011   1.494  0.3170 -0.0804  0.0025
64978W        W 7891   2.483  17.775  22.882 -0.3664  0.1532  0.0958
64979W        W 7892   4.663  33.635  17.318 -0.2284 -0.2573 -0.0310
64980W        W 7893  12.904  30.963  17.809 -0.0440  0.1664 -0.3113
64981W        W 7894   7.554   6.708  20.865  0.0128 -0.1042  0.1346
64982W        W 7895  19.584  29.065  15.329 -0.1548  0.0769 -0.3121
64983W        W 7896  19.293  17.354  14.796  0.0272  0.2231 -0.2056
64984W        W 7897  19.864   1.831  27.060  0.0731  0.1944  0.1010
64985W        W 7898  17.304  29.349  22.857  0.1260  0.0287 -0.1929
64986W        W 7899   6.274  27.014  22.301 -0.1198 -0.0002  0.1258
64987W        W 7900   6.947  24.057  19.845 -0.1340 -0.0819 -0.0322
64988W        W 7901  15.850   2.259  19.271 -0.0656  0.0376  0.1604
64989W        W 7902  12.217  20.307  14.078  0.4080 -0.1997 -0.1627
64990W        W 7903   4.402  29.732  22.031 -0.1056 -0.0296  0.1952
64991W        W 7904  11.333   3.479  18.608 -0.1500  0.2759 -0.0970
64992W        W 7905  15.566  32.893  22.335  0.0982  0.0872 -0.3086
64993W        W 7906   2.615  31.736  25.716  0.0124  0.0521 -0.3346
64994W        W 7907  17.190   7.181  15.419 -0.3093 -0.0044  0.3579
64995W        W 7908  25.206  28.495  18.565  0.1214 -0.2082 -0.0757
64996W        W 7909  16.321  30.620  21.081  0.0201 -0.0073 -0.0622
64997W        W 7910  22.571  30.807  19.805 -0.0895 -0.3269 -0.2438
64998W        W 7911  13.780  29.622  16.320  0.2769  0.1369 -0.2483
64999W        W 7912  19.982  26.673  14.109  0.0176 -0.1934  0.1494
65000W        W 7913   9.611  33.669  20.505  0.0744  0.5961 -0.0535
65001W        W 7914  19.700  27.980  16.668 -0.0076  0.0819 -0.1729
65002W        W 7915  11.771  29.256  16.573  0.1884 -0.0496 -0.0476
65003W        W 7916  22.027   3.866  13.518 -0.1056  0.2157 -0.0593
65004W        W 7917  18.866  28.076  15.471  0.0623 -0.0560 -0.0593
65005W        W 7918  17.337  28.759  22.452 -0.4550 -0.0497 -0.1213
65006W        W 7919  12.512  31.077  21.038  0.3048  0.1668 -0.1536
65007W        W 7920   9.792  22.450  13.477 -0.1321  0.2405  0.3375
65008W        W 7921  11.476  18.388  16.063  0.2139 -0.2585 -0.0623
65009W        W 7922  15.851  26.253  17.010 -0.0742 -0.0794  0.1851
65010W        W 7923  15.807  33.497  17.893 -0.0849 -0.2883  0.1266
65011W        W 7924  19.078   4.544  15.593 -0.0687 -0.2471  0.0129
65012W        W 7925   6.089  31.562  22.187 -0.3413 -0.1387  0.1902
65013W        W 7926   9.064  30.543  25.979 -0.2171 -0.0552  0.1149
65014W        W 7927  15.138  29.504  16.826  0.2035  0.1544  0.0206
65015W        W 7928  12.331   2.440  20.920  0.2397 -0.2046 -0.4002
65016W        W 7929  18.837  19.790  13.999 -0.2624 -0.1825  0.0270
65017W        W 7930  14.407  31.058  17.626 -0.1148 -0.1111  0.0637
65018W        W 7931   6.916  27.032  18.456 -0.1810  0.3422  0.2967
65019W        W 7932   8.958   1.741  22.006 -0.2655 -0.1977  0.2150
65020W        W 7933   6.185   1.670  19.504  0.1097 -0.1829  0.0992
65021W        W 7934  13.635  32.708  16.919 -0.1080 -0.0860 -0.1366
65022W        W 7935  20.903   0.906  24.417  0.1799  0.2549 -0.0619
65023W        W 7936   4.631  31.060  24.032 -0.0862 -0.0419 -0.0423
65024W        W 7937  19.333   0.377  15.407 -0.2889  0.2106 -0.3596
65025W        W 7938   1.588   0.424  22.891 -0.2339 -0.0956 -0.2681
65026W        W 7939  11.822  32.008  27.844 -0.4932 -0.0826 -0.3437
65027W        W 7940  12.417  31.694  24.731  0.2255  0.1488  0.0012
65028W        W 7941   6.469  27.394  19.963 -0.0830  0.1644  0.1459
65029W        W 7942  12.537  23.396  25.807 -0.1562 -0.0114  0.0180
65030W        W 7943  18.383  33.488  19.413  0.0122  0.1879 -0.1016
65031W        W 7944  22.680  33.423   0.457  0.1304 -0.2347  0.1327
65032W        W 7945  16.872  18.710  12.118 -0.0347 -0.1951  0.2685
65033W        W 7946   2.786  33.617  19.625 -0.3154  0.0875 -0.2102
65034W        W 7947  16.920   9.222  24.234 -0.0393  0.2094  0.2680
65035W        W 7948  28.048  29.241  21.076 -0.1034 -0.2661  0.2317
65036W        W 7949  19.227  30.782  18.378  0.0909 -0.1225  0.0636
65037W        W 7950  16.392  30.199  26.051 -0.0410 -0.2359 -0.3166
65038W        W 7951  17.637  26.105  15.466 -0.2011 -0.1481  0.1898
65039W        W 7952  10.929  28.439  20.642 -0.2840  0.0862 -0.0103
65040W        W 7953   5.859  16.417  17.823  0.0412 -0.0341  0.1199
65041W        W 7954  15.034  24.278  15.324  0.0490  0.5726  0.0869
65042W        W 7955   7.167  19.130  15.643 -0.1290  0.1532 -0.0340
65043W        W 7956  22.462  31.250  20.965 -0.1220  0.1208 -0.2319
65044W        W 7957  23.899  32.612  24.346  0.0744 -0.0216  0.0855
65045W        W 7958  11.405  27.828  27.963  0.0243  0.1310  0.1043
65046W        W 7959  11.061  29.930  19.569  0.0288 -0.2984 -0.0382
65047W        W 7960  13.054  27.629  16.759  0.1720  0.2591  0.1425
65048W        W 7961  18.498   5.545  16.739 -0.1223 -0.1000 -0.0422
65049W        W 7962   6.021  30.445  20.774  0.1340  0.2322 -0.3083
65050W        W 7963   5.202  28.206  16.104  0.0032  0.0190  0.2140
65051W        W 7964  17.253  27.688  28.831  0.0497  0.0369 -0.1470
65052W        W 7965  17.309  30.498  20.887 -0.2897  0.0580  0.4900
65053W        W 7966  32.880  30.780  14.767 -0.0719  0.2515 -0.1194
65054W        W 7967  14.420  31.477  24.671 -0.1474  0.0461  0.1234
65055W        W 7968  15.308  34.126  17.411 -0.0222  0.1770  0.0957
65056W        W 7969   8.309  25.117  19.204 -0.1351  0.2864 -0.5655
65057W        W 7970  11.935  23.699  15.931  0.4196  0.2463  0.0829
65058W        W 7971   4.001  34.246  25.530 -0.1906 -0.1888  0.0922
65059W        W 7972  21.457  25.938  13.260 -0.2650 -0.1281 -0.2639
65060W        W 7973  16.302  30.476  16.738  0.0554 -0.4047 -0.2815
65061W        W 7974   4.436  28.968  14.852  0.0405 -0.1793 -0.2941
65062W        W 7975  12.012  33.109  25.650 -0.0906  0.0846  0.0390
65063W        W 7976   8.389  27.476  20.186 -0.1398 -0.0585  0.1835
65064W        W 7977  11.188  33.073  24.651 -0.3774  0.0755  0.5010
65065W        W 7978  20.780  31.137  20.806 -0.3447 -0.0119  0.0286
65066W        W 7979  11.904  26.961  16.216 -0.4820 -0.0602 -0.1897
65067W        W 7980  16.225  31.778  22.029  0.1002  0.1696 -0.0297
65068W        W 7981  11.776  29.877  22.521 -0.2520  0.0615  0.1898
65069W        W 7982  10.402  22.018  27.261 -0.0602 -0.0470  0.2945
65070W        W 7983  19.401  28.144  19.402  0.3466 -0.1072  0.1234
65071W        W 7984   7.282   1.308  23.410 -0.1292 -0.2640 -0.0947
65072W        W 7985  17.875  31.291  19.294  0.3221 -0.0819  0.2815
65073W        W 7986  28.350  32.257  15.339 -0.2436  0.0706  0.0742
65074W        W 7987  19.700  26.826  16.094  0.1686  0.1063  0.2718
65075W        W 7988  14.063  29.567  21.223  0.0160  0.2364  0.0678
65076W        W 7989  19.160  32.135  19.620  0.0328  0.1095 -0.0330
65077W        W 7990   3.971  26.606  17.897 -0.0931 -0.2305 -0.0572
65078W        W 7991   8.354  19.373  24.212  0.0977 -0.1391  0.0340
65079W        W 7992  23.968   2.058  16.768 -0.2728  0.0436  0.0685
65080W        W 7993  13.458   0.238  21.595 -0.0291  0.0718 -0.2026
65081W        W 7994  13.023  10.129  23.008  0.1213  0.1471  0.3123
65082W        W 7995  17.918  33.506  14.733 -0.0730  0.0803  0.0555
65083W        W 7996   3.586  32.331  16.160  0.0416 -0.0142 -0.2597
65084W        W 7997  23.527  27.014  19.338  0.1354  0.1121  0.1680
65085W        W 7998   9.515  20.654  13.061  0.1729  0.1007 -0.0992
65086W        W 7999  18.113  34.423  20.213 -0.2780 -0.1206  0.0502
65087W        W 8000  10.160  30.475  19.137 -0.0791 -0.0609 -0.0292
65088W        W 8001  30.333  30.868  28.141 -0.1978  0.0051  0.0226
65089W        W 8002  21.524  26.954  17.359 -0.1567  0.0106 -0.0933
65090W        W 8003   4.233  28.801  18.410  0.1820  0.1416  0.0219
65091W        W 8004  16.178  34.168  29.686  0.0088 -0.3604 -0.1559
65092W        W 8005  14.167   2.036  20.092  0.1727  0.1171  0.1408
65093W        W 8006  21.614   0.264  14.897 -0.1386  0.0899 -0.1074
65094W        W 8007  18.386  32.262  20.050 -0.1127  0.0609  0.2424
65095W        W 8008   8.516   6.194  19.924 -0.0322 -0.2706  0.0477
65096W        W 8009   7.314  25.920  24.567  0.0353 -0.0423  0.3797
65097W        W 8010   0.392  30.128  17.121  0.1971  0.0436  0.1959
65098W        W 8011  20.781  26.749  17.101 -0.2466  0.3028  0.4109
65099W        W 8012  20.166   2.079  22.799 -0.0273 -0.0689 -0.2165
65100W        W 8013  10.731  32.167  26.728  0.0693  0.2837 -0.3638
65101W        W 8014  15.867  32.086  23.965 -0.2492 -0.1940  0.1695
65102W        W 8015  19.427  25.607  19.410  0.4967 -0.3224  0.1855
65103W        W 8016   7.904  21.638  23.380 -0.0723  0.3312 -0.1687
65104W        W 8017  11.439   8.273   2.488  0.0735 -0.0051 -0.1204
65105W        W 8018   7.776  14.979  26.804  0.0926 -0.2061  0.3837
65106W        W 8019  19.179  29.547  18.486 -0.4777 -0.0281 -0.3916
65107W        W 8020  11.280  28.437  19.868  0.2707  0.0342 -0.5125
65108W        W 8021  13.455  26.639  18.430 -0.2520 -0.0433  0.0202
65109W        W 8022  10.309   2.855  17.462  0.3008  0.1564  0.0647
65110W        W 8023  17.608  29.714  22.586  0.0270 -0.3250 -0.0069
65111W        W 8024   8.105  34.055  21.720 -0.1942  0.0370  0.1989
65112W        W 8025   7.904  23.723  17.475 -0.0649  0.0952 -0.0636
65113W        W 8026  19.045  27.060  16.423  0.0829  0.2796  0.3487
65114W        W 8027  11.942  28.320  19.168  0.0290 -0.0596 -0.1981
65115W        W 8028  15.277   3.208  19.393  0.1566 -0.3195  0.0727
65116W        W 8029  30.283   0.097  21.176 -0.1906 -0.1093 -0.0993
65117W        W 8030  13.763  26.482  19.320  0.1753 -0.0587 -0.0346
65118W        W 8031   5.107  22.187  20.556  0.3340 -0.0468  0.0241
65119W        W 8032   9.421  25.333  18.950 -0.2194 -0.0528  0.0248
65120W        W 8033  21.145  30.500  16.977 -0.2403  0.0749  0.0002
65121W        W 8034  21.787   9.289  14.507  0.1710  0.1923  0.0061
65122W        W 8035   6.669  29.489  18.102 -0.0309 -0.0968 -0.0727
65123W        W 8036  17.941  22.443  13.019 -0.4567 -0.0505  0.3982
65124W        W 8037  14.782  29.641  29.230 -0.1222  0.0599 -0.1004
65125W        W 8038  12.500  25.221  24.472  0.3251  0.0466 -0.0616
65126W        W 8039  15.347  27.962  19.938  0.3058  0.1264  0.1332
65127W        W 8040  11.646   0.378  16.719  0.0630  0.0019  0.2059
65128W        W 8041  19.931  19.854  11.273  0.0785  0.0960 -0.0847
65129W        W 8042   1.496  23.717  28.463  0.1310 -0.0573 -0.3285
65130W        W 8043   8.657  31.281  16.256 -0.1382 -0.0431 -0.1755
65131W        W 8044  15.678  29.503  22.106 -0.0216  0.0204  0.2311
65132W        W 8045  13.722  30.710  17.983  0.2503 -0.0287  0.0068
65133W        W 8046  12.353   4.972  26.444 -0.0858 -0.1469  0.1077
65134W        W 8047   5.184  20.511  14.558  0.1389 -0.1520 -0.1145
65135W        W 8048  15.218  28.642  16.762  0.0348 -0.2547 -0.2295
65136W        W 8049  15.672  34.368  25.513 -0.3381 -0.2450 -0.0353
65137W        W 8050  12.062  22.191  29.232  0.2722 -0.3633  0.1141
65138W        W 8051  25.436  22.875  15.280  0.2309 -0.2539  0.0164
65139W        W 8052  13.029  29.363  19.872 -0.2427  0.1959 -0.0282
65140W        W 8053  19.799   2.139  25.393  0.3292  0.0638 -0.3586
65141W        W 8054  21.660  29.586  18.177  0.1124 -0.0559 -0.4882
65142W        W 8055   7.429  31.291   0.146 -0.1182 -0.0882 -0.2186
65143W        W 8056  10.773   5.152   0.892  0.1642  0.0769  0.2144
65144W        W 8057  12.759  25.954  17.229 -0.1762 -0.2358 -0.0617
65145W        W 8058  10.377  22.604  16.793 -0.1537  0.0217  0.0540
65146W        W 8059  16.389   2.067  20.938  0.1704  0.0234 -0.0315
65147W        W 8060  15.260   3.491  15.813  0.0201  0.1973  0.0317
65148W        W 8061  17.778  29.952  15.685  0.1177 -0.2045  0.1228
65149W        W 8062  19.540  29.879  18.898  0.0293  0.1467  0.1688
65150W        W 8063   8.235   2.790  25.659 -0.0241 -0.1328 -0.0021
65151W        W 8064  21.514  24.654  14.420 -0.3608 -0.0922 -0.0355
65152W        W 8065  19.723  10.616  19.111 -0.0194  0.1381  0.0146
65153W        W 8066  24.696   2.766  22.274  0.3341  0.1562  0.2575
65154W        W 8067  17.206  26.373  20.908  0.1786  0.0763 -0.1921
65155W        W 8068  21.945  32.520  18.011 -0.2463  0.0862 -0.1526
65156W        W 8069  10.801  27.191  16.968  0.4124  0.2364 -0.2314
65157W        W 8070  16.391  29.615  22.406 -0.1453  0.1105  0.1000
65158W        W 8071   0.701  34.316  23.936  0.2561  0.1405 -0.1084
65159W        W 8072  19.251  27.667  22.950  0.0007 -0.3870 -0.2405
65160W        W 8073  12.938  25.518  17.321 -0.0652  0.2405  0.1973
65161W        W 8074  13.522  22.838  16.204  0.0084 -0.0951  0.1148
65162W        W 8075  23.070  24.054  20.172 -0.3953 -0.2221 -0.0890
65163W        W 8076   2.091  26.182  24.212  0.1735 -0.4047 -0.1070
65164W        W 8077  16.902  26.250  16.445 -0.0296  0.1546  0.0257
65165W        W 8078  30.215  33.111  19.604  0.0263  0.1415 -0.1731
65166W        W 8079  14.328  29.045  21.024 -0.2217 -0.2693  0.1941
65167W        W 8080  25.652  30.364  20.996  0.1036  0.1463  0.1229
65168W        W 8081  31.895  23.839  17.304 -0.1556  0.2270  0.1059
65169W        W 8082  18.133  26.815  15.372 -0.1075 -0.1679  0.1434
65170W        W 8083  14.039  19.851  15.524 -0.0139  0.0807  0.1650
65171W        W 8084   0.214  21.095  20.300 -0.1656  0.3395 -0.1008
65172W        W 8085   9.877  30.850  17.643 -0.2333 -0.1067  0.1368
65173W        W 8086  21.330  30.472  25.751  0.3546 -0.2056  0.5372
65174W        W 8087  34.409  20.684  14.672 -0.0956 -0.2850  0.1110
65175W        W 8088  10.822  31.893  16.834  0.2346  0.2422  0.0523
65176W        W 8089  17.702   0.898  25.926 -0.1245 -0.3107 -0.3346
65177W        W 8090  19.333  20.774  12.967 -0.2322  0.2357 -0.1206
65178W        W 8091  13.227  15.886  17.348 -0.0479 -0.3454  0.1433
65179W        W 8092  12.919  23.894  15.076 -0.0107  0.2138  0.1289
65180W        W 8093  27.010  26.367  14.310 -0.1046  0.1973  0.3606
65181W        W 8094   9.943  29.566  29.136  0.3527  0.3119 -0.4418
65182W        W 8095  20.377  32.461  14.699 -0.0221  0.2626 -0.0530
65183W        W 8096   4.645  21.016  17.556 -0.2795  0.0245 -0.1341
65184W        W 8097   5.614   3.799  23.315 -0.0966  0.0845 -0.1211
65185W        W 8098  12.364  21.336  18.028  0.0771 -0.0252 -0.3794
65186W        W 8099  11.641   0.539  17.179  0.2557 -0.0824  0.1867
65187W        W 8100  23.891  21.397  12.785 -0.2449 -0.1762 -0.0779
65188W        W 8101  13.451  24.399  21.434 -0.1730  0.1668  0.2723
65189W        W 8102   9.855  26.826  16.009  0.0751  0.0599 -0.0156
65190W        W 8103  16.645  31.792  25.096 -0.0896  0.1418 -0.1466
65191W        W 8104  13.556  26.807  21.641  0.4122 -0.0546  0.0100
65192W        W 8105  17.541  27.819  17.469  0.0575 -0.2724 -0.3757
65193W        W 8106  15.753   8.402  23.656  0.0236  0.0250 -0.3251
65194W        W 8107   6.900  24.897  26.527  0.1367 -0.2680 -0.0136
65195W        W 8108   6.016  16.982  16.332  0.0324  0.2985 -0.1813
65196W        W 8109  11.771  10.751  18.893  0.0867 -0.0430 -0.1428
65197W        W 8110  12.879  24.936  14.764  0.0321  0.0324  0.0430
65198W        W 8111  11.836  26.831  16.824 -0.0830 -0.1556  0.0984
65199W        W 8112   4.312   0.187  18.058  0.4554  0.1050 -0.0901
65200W        W 8113   8.907  24.432  18.777 -0.0580 -0.0905 -0.0693
65201W        W 8114  11.869  30.626  20.048  0.3821  0.0535  0.2366
65202W        W 8115  17.526  24.498  13.934 -0.0313  0.3133 -0.0451
65203W        W 8116  16.434  31.118  26.719  0.0068 -0.4330  0.0190
65204W        W 8117  13.290  25.188  19.494 -0.3227 -0.0854  0.0544
65205W        W 8118  11.199  22.141  22.981  0.1284 -0.0072 -0.1192
65206W        W 8119  13.141  10.624  20.985  0.0310 -0.2904  0.1107
65207W        W 8120  22.781  34.349  14.466 -0.0210  0.1641  0.2195
65208W        W 8121  18.775  32.465  19.546  0.3110  0.1221  0.1335
65209W        W 8122   9.679  33.254  21.567 -0.0215 -0.1418  0.0331
65210W        W 8123  23.128   0.825  14.659 -0.0577  0.1692 -0.1567
65211W        W 8124   7.784  19.960  19.127  0.1970 -0.0854 -0.1931
65212W        W 8125  25.688  32.846  24.817 -0.0427 -0.2612 -0.1959
65213W        W 8126   1.718  22.096  17.678 -0.1589  0.3285  0.1392
65214W        W 8127   6.753   1.790  20.721 -0.2358 -0.2531  0.0285
65215W        W 8128  26.143   3.866  18.823  0.0369  0.0288  0.0453
65216W        W 8129   3.897  19.704  23.508  0.3696 -0.0971  0.1091
65217W        W 8130   7.597   2.684  20.602 -0.0840 -0.3435  0.2966
65218W        W 8131  11.313  28.052  16.532 -0.1046  0.2338 -0.1903
65219W        W 8132  21.501  30.208  20.357  0.0953 -0.2053 -0.0699
65220W        W 8133   9.637  31.725  17.220 -0.2304 -0.0201 -0.1060
65221W        W 8134   5.633  27.328  22.726 -0.3374  0.0387  0.0310
65222W        W 8135  12.465   1.069  29.407 -0.0021  0.3536  0.0022
65223W        W 8136  14.238  21.701  24.999  0.1558 -0.1403 -0.0067
65224W        W 8137  11.186   0.113  19.355  0.1056 -0.2449  0.2608
65225W        W 8138  12.280  21.682  13.790  0.1264 -0.1111 -0.1576
65226W        W 8139  20.837  29.539  15.274 -0.1571  0.0575  0.3653
65227W        W 8140   9.740  23.218  21.011 -0.2498 -0.0086 -0.0382
65228W        W 8141   6.573  17.922  16.566  0.0466 -0.0491  0.0741
65229W        W 8142   7.910  31.499  18.182 -0.0334 -0.3059  0.1058
65230W        W 8143   8.852  29.468  25.459 -0.1754 -0.1392 -0.0235
65231W        W 8144   6.919  16.406  15.737 -0.2258 -0.0331 -0.0343
65232W        W 8145  15.668  32.078  18.639  0.0821  0.1006 -0.4301
65233W        W 8146  17.386   1.010  17.418 -0.0477 -0.1660 -0.3406
65234W        W 8147  11.126  31.560  17.979  0.0791  0.0803 -0.2639
65235W        W 8148  10.403  33.082  18.243  0.1342  0.0570 -0.0052
65236W        W 8149  10.827   1.785  20.994  0.1968  0.0402  0.0780
65237W        W 8150  10.545  32.596  19.945  0.2954 -0.0863  0.0456
65238W        W 8151  34.421  26.539  14.908  0.1719  0.0666 -0.0676
65239W        W 8152  10.382  28.600  16.988  0.1029 -0.0826 -0.0529
65240W        W 8153   9.058   9.010  19.731 -0.0320 -0.3372 -0.2098
65241W        W 8154  14.423  25.472  16.514 -0.2086 -0.0038 -0.1693
65242W        W 8155  21.268  29.110  19.592 -0.1480 -0.0320 -0.1361
65243W        W 8156  12.336  31.107  15.688 -0.0902  0.0706  0.3692
65244W        W 8157   5.382   0.087  19.440 -0.1430 -0.0356  0.0473
65245W        W 8158   1.399  17.415  16.596 -0.2794 -0.1005  0.0057
65246W        W 8159  29.002  24.292  17.283  0.1978 -0.0771 -0.1520
65247W        W 8160   6.514  25.363  22.169 -0.0524  0.1413  0.1340
65248W        W 8161  15.240  33.213  21.407 -0.0788  0.1984 -0.1282
65249W        W 8162  11.114  19.696  15.628 -0.1231 -0.2044 -0.0353
65250W        W 8163  24.489  31.117  14.116 -0.2084  0.0516  0.0715
65251W        W 8164  10.263  30.497  21.749 -0.1307 -0.0370  0.3163
65252W        W 8165  16.002  26.669  15.592  0.1670 -0.0516  0.1003
65253W        W 8166   6.235  29.309  15.148 -0.0287 -0.0424  0.0431
65254W        W 8167  12.500   4.245  25.345  0.1193  0.1604 -0.1024
65255W        W 8168  16.885   0.829  17.584 -0.1247 -0.1424 -0.0820
65256W        W 8169   7.461  34.193  23.428 -0.1190 -0.2257 -0.0830
65257W        W 8170  21.228  27.144  17.853 -0.0493  0.0867 -0.2155
65258W        W 8171  20.323  17.547  14.645 -0.0103 -0.1644 -0.1456
65259W        W 8172  25.280   1.171  21.380 -0.1841  0.0187 -0.2734
65260W        W 8173  26.984  28.489  23.804  0.0117 -0.1245  0.0897
65261W        W 8174   9.804  29.097  21.890 -0.1360  0.2130  0.1704
65262W        W 8175   4.920  21.161  17.135 -0.0527  0.0048  0.0363
65263W        W 8176  20.615   2.955  19.496  0.0479 -0.2799  0.0545
65264W        W 8177   8.627   9.419  24.999  0.2649 -0.0078  0.1608
65265W        W 8178  10.437  27.406  19.815 -0.1800 -0.1807 -0.2358
65266W        W 8179  22.668  27.236  16.891  0.1000  0.2387 -0.1225
65267W        W 8180  20.099  28.989  23.363 -0.4147 -0.2358 -0.4256
65268W        W 8181   5.728  16.033  14.639 -0.2944 -0.1665 -0.2737
65269W        W 8182  18.008   0.086  19.367 -0.3059  0.0317  0.1902
65270W        W 8183   9.736  32.463  19.278 -0.1027  0.1535 -0.0311
65271W        W 8184  22.728  34.002  22.137 -0.1197  0.3395  0.0948
65272W        W 8185  13.165  32.016  17.400  0.4570  0.2134  0.2378
65273W        W 8186  10.189   0.085  19.382  0.1660  0.2758 -0.2653
65274W        W 8187  10.828  16.024  15.677 -0.1115 -0.2878  0.0542
65275W        W 8188  16.037  30.016  23.167 -0.3964 -0.0799  0.0865
65276W        W 8189   3.556  33.211  27.045 -0.0006 -0.0802  0.0770
65277W        W 8190  17.488  28.458  29.215  0.0897  0.0325  0.0582
65278W        W 8191  11.167   2.002  27.981  0.1138  0.0478 -0.2588
65279W        W 8192   7.427  34.009  18.073  0.1157 -0.1732 -0.0962
65280W        W 8193  26.524  33.186  24.574  0.3276  0.1128  0.0149
65281W        W 8194   8.697  22.898  14.361  0.1630 -0.0043  0.0331
65282W        W 8195  23.473  27.615  23.867 -0.3335  0.1956 -0.1200
65283W        W 8196  24.576  34.458  17.641  0.2578 -0.1629 -0.0550
65284W        W 8197  10.741   5.543  20.684  0.0808 -0.0125 -0.0378
65285W        W 8198  23.580  32.492  14.062 -0.1851 -0.0524 -0.1325
65286W        W 8199  16.468  30.144  28.254 -0.3833  0.1144  0.1635
65287W        W 8200   2.963  26.482  21.381 -0.1062 -0.0460  0.0877
65288W        W 8201  13.081  23.758  15.575 -0.2130 -0.1384  0.1713
65289W        W 8202  13.948  25.945  20.878  0.0647  0.1732 -0.1399
65290W        W 8203   6.531  29.776  20.899 -0.0780  0.0340 -0.0633
65291W        W 8204   9.606  30.762  20.032  0.0254  0.1164  0.1418
65292W        W 8205  15.564  25.742  16.446 -0.2262  0.2114 -0.2867
65293W        W 8206  13.081  29.856  17.066 -0.0436 -0.7144 -0.0045
65294W        W 8207  13.926  20.515  20.276  0.1009  0.1400 -0.0142
65295W        W 8208  13.391  27.064  22.485  0.0811 -0.0681  0.0010
65296W        W 8209  11.706  18.378  13.930 -0.1275  0.0054  0.0432
65297W        W 8210  10.182  22.182  13.751  0.0239  0.0237  0.2810
65298W        W 8211  15.443  26.562  14.142  0.2929  0.0312 -0.3002
65299W        W 8212   4.946  29.698  18.484  0.1792 -0.2258  0.0333
65300W        W 8213   0.707  31.727  14.946  0.3663 -0.0279  0.0240
65301W        W 8214  13.018  30.910  23.893  0.2364  0.0636 -0.0148
65302W        W 8215   6.675  24.964  17.305 -0.1115 -0.1114 -0.1486
65303W        W 8216  16.691  25.119  20.158 -0.1592  0.1649 -0.1224
65304W        W 8217  17.602  28.739  21.189  0.0266 -0.0321  0.1017
65305W        W 8218  11.483  24.371  20.248  0.2913  0.1230 -0.1224
65306W        W 8219  13.413   1.810  28.636  0.0010  0.1359 -0.0615
65307W        W 8220   5.651  33.709  17.602  0.1341  0.0263 -0.0351
65308W        W 8221  11.340  21.277  20.670 -0.1239 -0.0449 -0.0099
65309W        W 8222   4.233  27.514  29.131 -0.0205  0.0568  0.2689
65310W        W 8223   7.833  28.765  21.891 -0.0683 -0.1887  0.0270
65311W        W 8224   6.242  26.671  17.867  0.1672 -0.1394  0.1685
65312W        W 8225   4.137  33.564  29.076 -0.0261  0.1459  0.0116
65313W        W 8226   8.325   6.002  18.570  0.0386  0.0191  0.2966
65314W        W 8227   4.510  31.849   2.502  0.0262 -0.4277  0.0334
65315W        W 8228  14.236  20.129  18.074  0.0552 -0.2098  0.3243
65316W        W 8229  26.689  21.496  13.088  0.1526  0.1586 -0.0298
65317W        W 8230  10.592  34.074  17.028 -0.0553  0.2630  0.1818
65318W        W 8231  22.599  32.049  17.108 -0.1935 -0.0277 -0.1592
65319W        W 8232  20.257  17.522  12.939 -0.2760 -0.1550  0.1720
65320W        W 8233  12.612  27.492  16.306  0.4318 -0.0646 -0.0731
65321W        W 8234  13.811  16.407  16.914 -0.0128 -0.2487  0.0068
65322W        W 8235   5.967  22.913  24.373  0.1819  0.2773  0.1008
65323W        W 8236   9.822  26.932  17.825 -0.4490 -0.1232 -0.0707
65324W        W 8237  23.730  22.167  18.061  0.1071 -0.1261  0.0692
65325W        W 8238  21.103  20.811  15.951 -0.1522  0.0865 -0.3510
65326W        W 8239   6.349  33.192  20.452 -0.1187  0.1819  0.0099
65327W        W 8240  20.806   2.487  17.810  0.1451  0.1917 -0.0340
65328W        W 8241   6.393   1.317  17.664 -0.0745 -0.1491  0.0041
65329W        W 8242  17.058  28.795  18.630  0.1130 -0.1443 -0.0162
65330W        W 8243  16.925  33.726  19.919  0.0428  0.2407 -0.0062
65331W        W 8244  13.030  26.781  19.279  0.1251  0.1450 -0.1295
65332W        W 8245  18.306  30.644  21.479  0.2325 -0.0607  0.3105
65333W        W 8246  17.923   0.888  20.882 -0.2687 -0.0465 -0.1266
65334W        W 8247  22.396  21.649  17.874  0.0715 -0.1689 -0.1031
65335W        W 8248   6.788   8.702  18.436 -0.3206  0.0920 -0.4754
65336W        W 8249  14.198  33.093  21.430  0.2208  0.0886  0.1771
65337W        W 8250   9.603  23.627  18.831 -0.5137 -0.5025 -0.1022
65338W        W 8251  16.501  30.200  15.107  0.2734 -0.0740  0.3572
65339W        W 8252   8.382  32.653  15.896  0.1368  0.4452  0.0027
65340W        W 8253  17.261  26.971  20.163 -0.1124  0.3610  0.1642
65341W        W 8254  11.948   3.122  17.732 -0.1762 -0.1648  0.2395
65342W        W 8255  22.526  29.391  15.589 -0.2123  0.2970 -0.4835
65343W        W 8256   8.277  27.956  21.404 -0.0489  0.0390  0.4800
65344W        W 8257  15.045  31.386  17.739  0.2602  0.2877  0.1551
65345W        W 8258   8.807  27.666  16.818 -0.0364 -0.0886 -0.1513
65346W        W 8259   8.302  27.090  16.273  0.1477  0.1681 -0.2098
65347W        W 8260  18.923  27.541  16.461 -0.1732  0.1466  0.0906
65348W        W 8261  23.630  27.365  16.131  0.0768  0.0205 -0.3893
65349W        W 8262   6.929  26.358  16.645 -0.1527 -0.3702  0.0873
65350W        W 8263  18.588   7.389  23.470 -0.4352  0.0188 -0.2153
65351W        W 8264   7.514  33.232  19.504 -0.0905  0.0444 -0.1207
65352W        W 8265   9.470  26.697  26.037 -0.1256  0.2182  0.1070
65353W        W 8266  21.169  28.127  18.717 -0.4451  0.0811  0.1032
65354W        W 8267  18.471  21.385  23.052 -0.1634  0.0576  0.0519
65355W        W 8268  16.290  25.424  23.978  0.1893 -0.1046 -0.0892
65356W        W 8269  11.974   5.433  26.294  0.0613  0.0554  0.0757
65357W        W 8270  21.768  33.527  16.198 -0.3075 -0.1276  0.1457
65358W        W 8271  20.780  21.156  19.149  0.1319 -0.1720  0.1296
65359W        W 8272  14.655  25.546  22.221  0.1999 -0.0586 -0.0724
65360W        W 8273  19.042   1.078  18.306 -0.0390  0.1016  0.0512
65361W        W 8274  17.922  23.544  17.857  0.0305 -0.1717  0.1435
65362W        W 8275  11.562  28.269  16.957  0.3184 -0.2789 -0.0151
65363W        W 8276  25.758   2.471  22.604  0.1664 -0.0069 -0.0519
65364W        W 8277  17.362   7.462   1.536  0.2522  0.3213  0.0994
65365W        W 8278   6.149  27.486  16.446 -0.0514 -0.3504 -0.1576
65366W        W 8279  17.523  28.432  24.113 -0.0670 -0.0427  0.1589
65367W        W 8280  13.067  27.141   0.251  0.0439  0.0416  0.3397
65368W        W 8281   9.470  32.481  22.005  0.3751  0.1217  0.1100
65369W        W 8282  13.376  32.238  21.791 -0.0335  0.2178  0.5502
65370W        W 8283   5.231  29.595  21.508 -0.1612  0.1854  0.1661
65371W        W 8284  32.112  32.500   3.227  0.1326  0.2066 -0.1346
65372W        W 8285   9.125  26.854  19.424  0.0653  0.1483 -0.3042
65373W        W 8286  16.188   2.924  20.676 -0.2958 -0.2608 -0.2753
65374W        W 8287  17.865  26.863  25.528  0.1821 -0.3342  0.1452
65375W        W 8288   7.181   7.688  18.482 -0.2675  0.0746  0.3453
65376W        W 8289   9.875  23.013  24.464 -0.0455 -0.0783  0.1681
65377W        W 8290  21.233   2.648  17.491 -0.1501  0.1323  0.1604
65378W        W 8291   6.212   6.761  26.107  0.0353 -0.0531 -0.0287
65379W        W 8292  32.765  25.183  26.980 -0.0429  0.2004  0.0260
65380W        W 8293   3.223   6.155  23.922 -0.3111 -0.1266  0.0057
65381W        W 8294  13.205  26.726  20.189  0.2749  0.1862 -0.0317
65382W        W 8295  19.248  31.958  17.570 -0.0883 -0.0803  0.3432
65383W        W 8296  15.029  25.898  20.193  0.0061 -0.1119 -0.0289
65384W        W 8297  17.948  31.726  16.344 -0.0792 -0.2224  0.1477
65385W        W 8298   8.200  26.105  17.366 -0.1380  0.1000 -0.0973
65386W        W 8299   5.540   6.198  25.194 -0.0754  0.0211 -0.1804
65387W        W 8300   6.973  24.020  22.154 -0.2898 -0.0130 -0.2049
65388W        W 8301   4.351  26.356  16.781  0.0602 -0.1871 -0.5053
65389W        W 8302  32.753  20.268  28.050 -0.0879 -0.0508 -0.4076
65390W        W 8303  11.452  33.304  26.417 -0.1592  0.1146 -0.0144
65391W        W 8304  19.380  28.718  25.340  0.2386  0.2562  0.1153
65392W        W 8305   4.168  26.263   1.576 -0.0903  0.4212  0.3774
65393W        W 8306  23.077   0.544  19.465  0.5370  0.0184  0.1844
65394W        W 8307  14.895  25.705   0.088 -0.1799  0.0101 -0.1832
65395W        W 8308  16.963  32.150  16.249  0.2430 -0.2835  0.1381
65396W        W 8309  18.514  25.981  25.326 -0.0527 -0.0139  0.1193
65397W        W 8310  12.377   2.045  23.028  0.0145 -0.2693 -0.0888
65398W        W 8311  12.236  28.259  25.046  0.0859  0.0185 -0.2961
65399W        W 8312  19.966   0.507  18.409 -0.0437 -0.1596 -0.0628
65400W        W 8313  34.258   0.929  17.251  0.1356  0.1028 -0.1101
65401W        W 8314   5.385   1.438  17.630 -0.1279 -0.1911 -0.2386
65402W        W 8315  15.416  25.419  16.147  0.3670 -0.2476  0.0133
65403W        W 8316  17.937  25.433  23.335 -0.0118 -0.0011 -0.0190
65404W        W 8317  11.587  28.387  28.901  0.0227 -0.0612 -0.0413
65405W        W 8318  11.755  34.423  21.535 -0.1102 -0.1894  0.0157
65406W        W 8319   0.919  24.691  22.542 -0.2285  0.1525  0.1379
65407W        W 8320  23.036  13.870  13.675 -0.1009 -0.1925  0.0176
65408W        W 8321   3.864  25.109  17.642  0.0054  0.1561  0.1352
65409W        W 8322   9.603  28.388  15.666 -0.1894 -0.0121 -0.1492
65410W        W 8323  13.965  34.310  27.669  0.0410  0.0020  0.0979
65411W        W 8324  15.843  29.702  28.052 -0.1794 -0.0737 -0.0588
65412W        W 8325  13.595  34.395  16.105  0.1670  0.4100 -0.2093
65413W        W 8326   6.003  18.728  28.024 -0.3065 -0.2828 -0.1764
65414W        W 8327  16.191   3.402  15.618 -0.2800  0.0269 -0.1330
65415W        W 8328  14.384  21.343   5.691  0.3332  0.1262  0.0113
65416W        W 8329  17.433  34.173  22.733 -0.4475  0.0242  0.1839
65417W        W 8330  21.998  19.588  17.660  0.0299 -0.0579 -0.2004
65418W        W 8331  19.965   3.145  29.140  0.0213  0.1248 -0.3697
65419W        W 8332  12.029  28.383  17.635  0.2357  0.1345  0.0056
65420W        W 8333  15.754  31.954  20.981  0.0265 -0.0727 -0.1619
65421W        W 8334  13.079  33.982  19.720 -0.0281  0.3471  0.1775
65422W        W 8335   6.624  32.889  22.825 -0.2434 -0.1508 -0.1069
65423W        W 8336  12.786  25.749  26.224  0.1360  0.1002  0.0641
65424W        W 8337   6.368   2.486  20.924 -0.2351  0.1127  0.3298
65425W        W 8338   9.620  33.779  18.082  0.1598  0.0596 -0.1502
65426W        W 8339  19.707  21.364  22.151  0.0835 -0.0751  0.0950
65427W        W 8340  15.870  28.872  17.495  0.0522 -0.0120  0.0394
65428W        W 8341  13.716  18.052  22.526  0.0654 -0.1248 -0.1125
65429W        W 8342  17.773  23.817  26.421 -0.2312 -0.0559  0.1497
65430W        W 8343  16.901  24.338  19.153 -0.0575 -0.1835 -0.0445
65431W        W 8344   0.113  19.722  26.093 -0.4755  0.0132  0.0547
65432W        W 8345  17.089  27.994  15.643 -0.2048  0.1274  0.2650
65433W        W 8346  18.755  30.611   0.051  0.2298  0.1630  0.0140
65434W        W 8347  17.561  33.392  15.841 -0.1453 -0.4157 -0.1078
65435W        W 8348   4.430  19.882  18.414  0.1048 -0.0231 -0.2114
65436W        W 8349  13.050  21.420  18.892 -0.1004 -0.1697 -0.0467
65437W        W 8350  34.415  28.095  23.932 -0.3312 -0.0991 -0.0839
65438W        W 8351  19.257  24.911  28.081  0.1022  0.2053  0.1193
65439W        W 8352   0.019  30.309   2.480  0.1971 -0.1434  0.2037
65440W        W 8353  16.543  30.408  15.955 -0.1151 -0.1024 -0.2739
65441W        W 8354  25.766  25.727  18.939 -0.0929  0.4071  0.1478
65442W        W 8355  15.168  25.402  20.374 -0.1930  0.0355 -0.2536
65443W        W 8356  13.192  22.724  27.243  0.0073 -0.3141 -0.0024
65444W        W 8357  19.900   0.552  14.411  0.0653 -0.2025 -0.0108
65445W        W 8358  12.139  30.561  26.704 -0.1269 -0.0744 -0.3544
65446W        W 8359  13.083   5.520  18.613  0.2387  0.2581 -0.2931
65447W        W 8360  16.009  27.335  20.241  0.1627 -0.0697 -0.0894
65448W        W 8361   8.411   3.523  22.958 -0.1060 -0.1755 -0.2180
65449W        W 8362   8.899  21.697  19.940 -0.2887  0.0675  0.1785
65450W        W 8363  12.627  23.165  25.253  0.0077 -0.0020 -0.2378
65451W        W 8364  18.494   0.139  16.404  0.0875 -0.0217 -0.3039
65452W        W 8365   8.391  12.869  23.753 -0.1000 -0.0793 -0.0372
65453W        W 8366   6.974   2.421   5.170 -0.1109  0.1069  0.1471
65454W        W 8367  15.549  25.897  28.716  0.0299 -0.0601  0.1302
65455W        W 8368  14.049   6.016  20.590  0.1547 -0.3208  0.1633
65456W        W 8369  23.385  30.433  20.027  0.0447 -0.3049  0.1125
65457W        W 8370  10.878  28.663  18.851  0.1391  0.0265 -0.0602
65458W        W 8371   2.107  33.962  17.433  0.0799 -0.0050  0.0518
65459W        W 8372   5.623  22.589  24.390  0.1940  0.1172 -0.3722
65460W        W 8373   8.489  27.557  27.214  0.1262  0.1401 -0.0409
65461W        W 8374   8.739  33.360  21.678  0.0445 -0.1187  0.1434
65462W        W 8375  15.177  30.360  22.274 -0.2378 -0.0048  0.1310
65463W        W 8376  15.866  28.167  20.823 -0.0045 -0.1339  0.2000
65464W        W 8377   2.167  33.889  17.969  0.0759  0.1131 -0.2340
65465W        W 8378  14.875  33.187  15.609  0.1197  0.1680 -0.0462
65466W        W 8379   5.746  22.374  19.450 -0.1521 -0.0945 -0.0973
65467W        W 8380  18.133   3.343  16.879 -0.4558 -0.0166  0.1002
65468W        W 8381  25.669   7.861  26.204  0.0606  0.1172 -0.4208
65469W        W 8382  22.429  33.660  23.782  0.2906 -0.0498 -0.1112
65470W        W 8383  19.354  33.607  25.657 -0.2245 -0.0793  0.0132
65471W        W 8384  24.568  22.400  12.910  0.0852 -0.3540  0.0615
65472W        W 8385  21.004  26.061  21.822 -0.0723 -0.0012 -0.2202
65473W        W 8386   5.319  23.632  22.317 -0.0664  0.0630  0.0501
65474W        W 8387   9.594  26.257  20.577 -0.1312  0.2250 -0.2223
65475W        W 8388  11.942  26.446  19.211 -0.0577  0.0003 -0.0973
65476W        W 8389  17.697   4.517  22.335 -0.0114  0.0030 -0.0145
65477W        W 8390  14.264  29.126  21.496  0.0358  0.1869  0.2054
65478W        W 8391  21.641   1.802  17.773  0.0502 -0.1907 -0.0697
65479W        W 8392  17.220  31.303  19.845  0.2269  0.0325  0.0482
65480W        W 8393   3.410  31.319  23.647  0.2259 -0.1570 -0.0765
65481W        W 8394  16.007  22.202  13.912 -0.0080  0.0481 -0.1186
65482W        W 8395   7.729  31.610  22.693  0.0791 -0.1208 -0.0009
65483W        W 8396   9.370  32.683  24.978 -0.2217  0.0485  0.2101
65484W        W 8397  16.917  34.300  17.044  0.0058 -0.1660  0.0206
65485W        W 8398  11.561  28.804  16.166 -0.1212 -0.2281 -0.0202
65486W        W 8399   3.963  27.539  18.148  0.0312 -0.1888  0.0800
65487W        W 8400  12.404  25.412  20.135 -0.2104  0.0364  0.1982
65488W        W 8401   6.138  27.474  22.194  0.0306  0.0300  0.0723
65489W        W 8402   7.153  19.905  23.120 -0.0145 -0.0275 -0.0166
65490W        W 8403  15.488  33.904  18.671 -0.1807  0.0671  0.0088
65491W        W 8404   4.944  30.302  25.919 -0.2252  0.1621  0.3969
65492W        W 8405  20.875   0.712  15.229  0.1189 -0.1004 -0.0210
65493W        W 8406  19.405  30.439  19.470  0.0601 -0.1887 -0.1108
65494W        W 8407  12.926  30.355  18.531 -0.2793 -0.1479  0.0754
65495W        W 8408  12.569  32.961  24.317  0.0426  0.3132  0.0385
65496W        W 8409  34.063  31.630  22.650  0.3661 -0.0384 -0.3085
65497W        W 8410  14.375  32.652  19.133 -0.3123  0.0104 -0.2635
65498W        W 8411  13.354  32.525  18.626  0.0013  0.1207  0.1794
65499W        W 8412  15.841  34.183  25.957  0.1616  0.0366  0.0709
65500W        W 8413  23.480  34.189  16.095 -0.1807 -0.0597  0.0471
65501W        W 8414   8.022  31.193  21.338  0.5937  0.0984  0.2385
65502W        W 8415  12.623  29.057  22.022  0.1148  0.0073 -0.0557
65503W        W 8416  15.742  34.443  24.959  0.4081 -0.0003  0.1589
65504W        W 8417   9.382  34.124  26.747  0.2283  0.0856  0.1630
65505W        W 8418  19.626  30.298   1.968  0.0072  0.0327  0.3124
65506W        W 8419   6.057  29.053  21.333  0.0272  0.2006  0.2677
65507W        W 8420   9.432  28.787  18.864  0.0260 -0.0548 -0.1122
65508W        W 8421  14.149  28.053  15.176  0.0243  0.1613  0.0335
65509W        W 8422   0.561   4.235  17.922  0.0280 -0.0648 -0.0663
65510W        W 8423  12.485  26.532  19.441 -0.0372 -0.0808  0.1027
65511W        W 8424   6.874   2.518  27.986  0.1579  0.0424  0.1023
65512W        W 8425   7.948   0.380  20.333  0.1081 -0.0819 -0.1292
65513W        W 8426   1.097  17.899  16.896 -0.2170 -0.1705 -0.1011
65514W        W 8427   1.119  22.103  14.646 -0.1348 -0.2978  0.1383
65515W        W 8428  18.557  32.561  26.145  0.2286  0.0119  0.0704
65516W        W 8429  13.225  25.307  15.001 -0.0894 -0.0211 -0.1141
65517W        W 8430   1.978  29.255  22.448  0.4283 -0.2264 -0.0817
65518W        W 8431  16.896  31.061  29.752 -0.3167 -0.1780 -0.3068
65519W        W 8432   5.775  30.760  21.757  0.3600  0.1511  0.0556
65520W        W 8433  16.186  24.071  14.034  0.3610 -0.0338 -0.0892
65521W        W 8434   8.557  31.107  22.215 -0.0053 -0.0603 -0.1564
65522W        W 8435   5.029   3.037   4.683  0.0598  0.3437  0.0727
65523W        W 8436  15.711  23.447  15.873  0.1014 -0.0576  0.0334
65524W        W 8437  11.837  27.577  21.780  0.0225 -0.2339  0.0207
65525W        W 8438   8.180  27.601  24.510 -0.4232 -0.2113  0.1252
65526W        W 8439  18.000  28.585  14.595  0.1990  0.1471  0.3900
65527W        W 8440   6.431   0.718  29.218  0.0798 -0.0767 -0.2621
65528W        W 8441   5.243  30.982  18.473  0.3231  0.1845  0.1155
65529W        W 8442   2.463  30.678  20.834 -0.0702  0.3297 -0.3315
65530W        W 8443  12.769  33.195   0.245  0.0476 -0.1602 -0.1294
65531W        W 8444  17.740  28.674  23.671 -0.2357  0.0822 -0.0247
65532W        W 8445  10.832  28.894  26.798 -0.0080  0.2884  0.2463
65533W        W 8446   5.595  20.095  16.529  0.0495  0.2182  0.0964
65534W        W 8447  19.454  25.176  19.825  0.1636 -0.0576 -0.0744
65535W        W 8448   9.944   8.091  17.029  0.0255 -0.2826  0.1010
65536W        W 8449  12.707  29.522  24.613  0.2933 -0.1645 -0.1630
65537W        W 8450   8.943  32.241  25.235 -0.0500  0.0528 -0.0272
65538W        W 8451  14.083  32.187  21.130 -0.0351 -0.0418  0.2444
65539W        W 8452  19.954   3.495  25.631 -0.0312 -0.0234 -0.0230
65540W        W 8453  12.823  20.257  22.936 -0.0156  0.0416  0.0995
65541W        W 8454  16.994  33.783  21.676 -0.1362  0.3275 -0.0613
65542W        W 8455  15.491  24.915  21.446 -0.2913  0.0813 -0.1444
65543W        W 8456  19.414  22.649  23.115  0.1273 -0.0797 -0.0240
65544W        W 8457  16.769   6.688  20.800 -0.0523 -0.0212  0.0962
65545W        W 8458  18.256  30.789   4.803 -0.0521  0.1225  0.0939
65546W        W 8459   7.183  29.122  17.999 -0.2509  0.1485 -0.0793
65547W        W 8460  15.420   2.358  18.163  0.0812 -0.1239 -0.0756
65548W        W 8461  16.173   2.091  22.666  0.0981 -0.1308 -0.0398
65549W        W 8462  20.004   5.452  15.310 -0.0472 -0.1892  0.0706
65550W        W 8463  12.745   1.652  17.081 -0.2238 -0.0687 -0.1007
65551W        W 8464  16.867  20.921  13.323 -0.2218  0.5328  0.0142
65552W        W 8465  17.191   6.713  26.970  0.3331  0.0621  0.0711
65553W        W 8466   4.956  22.549  15.747 -0.2083  0.1646  0.4864
65554W        W 8467   0.495  23.133  19.463  0.3299  0.2402 -0.0340
65555W        W 8468  14.518   2.548  16.823  0.0090  0.0469 -0.4148
65556W        W 8469  21.070  33.164  20.615 -0.2710  0.1641  0.1422
65557W        W 8470  18.251  34.363  20.744 -0.1577  0.1716  0.3822
65558W        W 8471   6.828  27.375  15.947 -0.0663 -0.1667  0.3201
65559W        W 8472  20.801  31.633  19.330  0.0548 -0.0890 -0.0575
65560W        W 8473  23.416  13.799  15.724 -0.1988  0.0222  0.1276
65561W        W 8474   7.885  26.837  16.504  0.0068 -0.1667 -0.2041
65562W        W 8475  30.618   1.401  27.764 -0.0427 -0.0007  0.2663
65563W        W 8476  21.965  32.689  15.925 -0.0238 -0.1282  0.2988
65564W        W 8477  11.680   4.615  18.012 -0.0117 -0.0996 -0.2268
65565W        W 8478   4.020  20.146  15.620 -0.0352  0.2359  0.1595
65566W        W 8479  17.986  32.152  22.524 -0.0871  0.4085  0.0263
65567W        W 8480  20.319  28.030  25.046 -0.1708  0.1032  0.0515
65568W        W 8481  14.604  31.033  28.848  0.0935 -0.0635  0.1092
65569W        W 8482   4.035   3.241  20.554  0.1535  0.2050  0.0259
65570W        W 8483   8.635  28.317  24.384 -0.2965 -0.1496 -0.1692
65571W        W 8484  12.005   6.755  24.194 -0.6360  0.2114 -0.1325
65572W        W 8485  11.105  22.511  18.660  0.1107  0.2486 -0.1018
65573W        W 8486  21.957  20.840  15.678 -0.1798 -0.2269 -0.0404
65574W        W 8487   5.221  22.181  24.298  0.2990  0.0538 -0.1911
65575W        W 8488   7.233  21.474  22.192  0.0084 -0.1155 -0.1160
65576W        W 8489  25.309  28.614  25.472 -0.0809  0.0682 -0.2014
65577W        W 8490  24.809   0.470  17.499 -0.0720  0.2258 -0.2692
65578W        W 8491  18.829  22.293  13.089 -0.2312 -0.1166  0.2596
65579W        W 8492  11.979  31.626  16.464 -0.0391  0.0920  0.1516
65580W        W 8493  16.339  28.531  20.225  0.0770 -0.0011  0.2363
65581W        W 8494  14.487   0.658  20.126 -0.0512  0.0036 -0.0440
65582W        W 8495  15.141  27.773  22.002  0.0832 -0.1158 -0.0151
65583W        W 8496  16.355  28.601  14.428  0.0066  0.1581 -0.2433
65584W        W 8497  22.019  26.236   4.432 -0.1554 -0.0922  0.1657
65585W        W 8498  11.593  29.045  25.706 -0.1777  0.1448  0.1399
65586W        W 8499   1.106  27.503  22.277 -0.0761 -0.2087  0.0785
65587W        W 8500  12.121  34.077  29.178  0.1248 -0.0408 -0.1301
65588W        W 8501   7.325  22.280  16.427  0.0658 -0.1318  0.1147
65589W        W 8502   9.757   7.261  27.617 -0.2278 -0.0419 -0.2942
65590W        W 8503  12.221  24.793  14.672  0.0745  0.0075  0.2718
65591W        W 8504   6.852   1.314  21.332 -0.0785 -0.0840  0.2153
65592W        W 8505  19.470  29.435  25.017  0.1733 -0.5028  0.0057
65593W        W 8506  13.418  23.577  21.209 -0.1000  0.0048 -0.3768
65594W        W 8507  23.324  31.565  21.598  0.2245  0.1417  0.2600
65595W        W 8508  15.258  32.144  21.075  0.2829 -0.0357  0.1561
65596W        W 8509   5.338  29.293  22.485  0.0045 -0.0514 -0.1486
65597W        W 8510  20.477  26.616  22.574  0.1513  0.0766  0.0234
65598W        W 8511  19.202   1.065   4.203 -0.2075 -0.0246 -0.0684
65599W        W 8512   3.998  31.641  18.311 -0.1371  0.1954  0.1311
65600W        W 8513  13.623  31.767   9.939  0.1639  0.3783  0.1570
65601W        W 8514  12.916  30.144   7.090  0.0540  0.2016 -0.0022
65602W        W 8515  20.652  30.557  16.762  0.1195  0.0605 -0.3167
65603W        W 8516   9.946  27.502  26.338 -0.1269 -0.3754  0.0542
65604W        W 8517  24.767  25.997  16.934 -0.1375  0.1735  0.7362
65605W        W 8518  13.104  23.891  20.327  0.0055  0.1462  0.0748
65606W        W 8519  17.313  30.090  24.069 -0.0144  0.2813  0.1119
65607W        W 8520  25.185  24.251  16.001 -0.3431  0.4594  0.2190
65608W        W 8521  13.478  33.866  15.580  0.0823 -0.2775 -0.0812
65609W        W 8522   9.345   7.155  19.415 -0.0777 -0.1555  0.2802
65610W        W 8523  10.072  33.422  19.560  0.2029 -0.0834 -0.0187
65611W        W 8524  15.733  31.576  23.921 -0.4208 -0.1958  0.2463
65612W        W 8525  12.792  30.477  17.038  0.0547  0.1101 -0.3351
65613W        W 8526   8.042  21.161  21.618 -0.0521  0.3459 -0.1312
65614W        W 8527  20.633  20.576  23.042 -0.1526  0.3363  0.0614
65615W        W 8528   4.705  30.499  27.508  0.1535 -0.0704  0.1373
65616W        W 8529  11.598  33.329   3.411 -0.4532  0.2289 -0.0330
65617W        W 8530  10.842  32.591  23.866 -0.3501 -0.0444  0.0506
65618W        W 8531   8.534   4.045  24.018 -0.2436 -0.1072 -0.1961
65619W        W 8532  12.504  30.814  23.529 -0.1941 -0.4796 -0.1139
65620W        W 8533  22.109  28.898  23.248 -0.2285  0.0349  0.1302
65621W        W 8534  10.640  24.214  28.484 -0.1005 -0.2701 -0.1966
65622W        W 8535  11.244  30.064  19.142 -0.2960  0.1914 -0.0106
65623W        W 8536   2.522  25.026  22.899 -0.2767 -0.0282  0.2552
65624W        W 8537   0.693  17.608  18.183  0.0209  0.1449 -0.4481
65625W        W 8538  16.066  24.849  16.310  0.4435 -0.1572  0.1650
65626W        W 8539  11.867  24.391  23.092  0.3821 -0.0570  0.1030
65627W        W 8540  21.478  22.544  17.837  0.0352 -0.0760 -0.1615
65628W        W 8541  20.288  15.716  23.620  0.2431  0.1937  0.0985
65629W        W 8542  24.987  26.010  19.671 -0.0766 -0.1349 -0.0007
65630W        W 8543  11.612   6.159  26.471 -0.4228  0.2829 -0.1312
65631W        W 8544  11.108  15.186  20.341  0.2741 -0.0586 -0.0757
65632W        W 8545  10.779  32.129  28.403 -0.4878 -0.1252 -0.0431
65633W        W 8546  16.555  33.824  20.728 -0.0081 -0.2557 -0.1294
65634W        W 8547  17.220  21.039  23.901 -0.0959 -0.0272 -0.1456
65635W        W 8548   6.486  22.294  22.173 -0.1200 -0.1773  0.1119
65636W        W 8549  17.025  20.941  18.446  0.3144 -0.0973 -0.1872
65637W        W 8550   7.375  27.131  21.032  0.1700 -0.1514  0.2514
65638W        W 8551  18.305   0.373  23.756  0.0042  0.0716 -0.2118
65639W        W 8552  20.903  22.097  14.415  0.1500 -0.3227 -0.1892
65640W        W 8553  30.819  21.311  16.582 -0.2039 -0.0274  0.3959
65641W        W 8554   9.204  26.809  22.422  0.2242  0.1192  0.0499
65642W        W 8555   7.091   1.308  21.965  0.0491  0.0436 -0.1264
65643W        W 8556  21.276   3.688  24.254 -0.1719 -0.0197  0.1866
65644W        W 8557   0.321  28.535  18.390  0.4670 -0.1072 -0.1306
65645W        W 8558  14.053  20.290  26.958 -0.0392  0.0078  0.0567
65646W        W 8559  15.135  28.590  16.167  0.3776 -0.2327  0.1893
65647W        W 8560  21.387  33.749  14.417  0.1621 -0.0952 -0.0653
65648W        W 8561   7.734  28.011  28.585 -0.2082  0.1205  0.0226
65649W        W 8562   9.912  24.006  21.355  0.2668 -0.1175  0.3377
65650W        W 8563  20.842  16.369  15.300  0.2801  0.0557 -0.0680
65651W        W 8564   9.999  25.974  17.940 -0.0151 -0.3147  0.0457
65652W        W 8565  16.480  24.500  21.986  0.1568 -0.1191 -0.1822
65653W        W 8566  16.810  26.077  21.361  0.0124  0.2752 -0.0519
65654W        W 8567   9.339  21.572  20.372  0.0436  0.1000  0.0969
65655W        W 8568  12.091  30.700  15.651  0.1188 -0.1721  0.2139
65656W        W 8569  15.177   5.251  23.053 -0.1975  0.0796  0.1511
65657W        W 8570  11.912   1.045   7.982 -0.0781  0.3284 -0.0227
65658W        W 8571   3.629  24.921  17.224  0.3212  0.0021  0.2776
65659W        W 8572   5.974  22.512  21.271 -0.0146 -0.1496  0.1605
65660W        W 8573  12.760   4.412  19.060 -0.2785  0.1064 -0.0137
65661W        W 8574  32.543   1.460  17.414  0.1447  0.2845  0.0029
65662W        W 8575   6.425  31.177  15.738  0.0279  0.2341  0.1443
65663W        W 8576  21.634  33.204  14.424  0.1775 -0.1013 -0.0590
65664W        W 8577   8.697  22.781  22.016  0.1887  0.1628 -0.1787
65665W        W 8578   7.131  18.306  16.177  0.2094  0.0878  0.2004
65666W        W 8579  23.177  33.763  15.680  0.0976 -0.1342  0.0120
65667W        W 8580   5.525  26.387  17.190 -0.1975  0.3027  0.0714
65668W        W 8581   6.292  24.053  20.085  0.4035 -0.1424  0.2065
65669W        W 8582   7.138  30.220  23.732 -0.1273 -0.2565 -0.1609
65670W        W 8583   6.734  11.527  27.966  0.4477  0.1049 -0.0977
65671W        W 8584  12.646  20.334  21.800 -0.0345  0.1768  0.2116
65672W        W 8585  13.354  26.313  21.857  0.0606  0.1959  0.1205
65673W        W 8586  23.058  31.017  15.674 -0.3142 -0.0090  0.3438
65674W        W 8587  14.156  31.498  17.590  0.0158 -0.4284 -0.0138
65675W        W 8588  16.913  17.968  14.280  0.4382  0.2914  0.0401
65676W        W 8589  12.895  26.635  18.548 -0.3130  0.3323 -0.1528
65677W        W 8590  28.599  30.119  26.038  0.5715 -0.1024  0.0012
65678W        W 8591   8.997  28.566  19.031 -0.0597 -0.0092  0.0073
65679W        W 8592   7.159  21.814  26.014  0.2631 -0.1676 -0.1230
65680W        W 8593  25.045  28.622  12.310  0.0891  0.0395  0.0262
65681W        W 8594  12.420   6.904  20.305 -0.2764 -0.1748  0.0874
65682W        W 8595  15.092   1.666  20.530  0.0793 -0.2329 -0.0962
65683W        W 8596   3.193   2.560  24.272  0.0263  0.1877  0.1307
65684W        W 8597  16.256  28.259  21.163  0.3272  0.3521 -0.2660
65685W        W 8598   4.111   2.698  22.213 -0.2302  0.0899  0.0181
65686W        W 8599  20.231  27.107   0.530  0.2594 -0.1536 -0.2793
65687W        W 8600  13.067   1.003  19.726  0.3752  0.0229 -0.0753
65688W        W 8601   9.658   4.241  22.262 -0.0667 -0.1197  0.1878
65689W        W 8602  24.630   5.471  23.988  0.1299  0.2569  0.1447
65690W        W 8603  12.292   4.397  23.795  0.0275 -0.1557 -0.1999
65691W        W 8604  17.433   1.723  16.314  0.0789 -0.2474  0.1718
65692W        W 8605   9.120   2.207  18.649  0.0337  0.0935 -0.1916
65693W        W 8606   5.072  27.264  29.172 -0.0173 -0.1964  0.1292
65694W        W 8607  25.609  22.554  18.863 -0.0398  0.0804  0.0102
65695W        W 8608   5.612  31.612  23.828  0.1169 -0.6248  0.2615
65696W        W 8609  11.737  29.256  22.429  0.2881  0.0284 -0.0155
65697W        W 8610  15.907  28.128  26.868  0.3262  0.0545  0.2267
65698W        W 8611  10.668   1.286  21.476 -0.0346  0.3437  0.0703
65699W        W 8612  13.332  25.549  16.783  0.1475  0.1924 -0.1373
65700W        W 8613  12.351  18.040  25.384  0.1110 -0.2232  0.0587
65701W        W 8614  25.104   0.946  26.853 -0.1084  0.2313  0.2879
65702W        W 8615  21.223   0.255  14.462 -0.0241  0.2300  0.3082
65703W        W 8616  11.145  25.686  15.987 -0.0940  0.0214 -0.0980
65704W        W 8617  14.636  32.369  16.216  0.0216  0.1910  0.0055
65705W        W 8618  17.933  32.863  18.428  0.3893  0.1980 -0.1187
65706W        W 8619  25.782  22.649  18.378 -0.3152 -0.2269  0.3468
65707W        W 8620  22.881  31.052  17.774  0.0681  0.2619 -0.3464
65708W        W 8621  29.308  25.431  18.633 -0.0152  0.4299 -0.0682
65709W        W 8622   3.071  20.672  15.016 -0.1351 -0.2789  0.2170
65710W        W 8623  12.521   7.291  22.178  0.3777 -0.1676  0.1194
65711W        W 8624  22.409   2.158  21.969 -0.0868 -0.0908 -0.1054
65712W        W 8625  15.634  32.337  21.406 -0.2020  0.1290  0.1667
65713W        W 8626  13.825  21.454  23.357  0.2158 -0.1770  0.2888
65714W        W 8627  13.446  24.659  18.634 -0.1199  0.0571  0.0368
65715W        W 8628  29.084  30.391  23.491 -0.1343  0.0362 -0.2029
65716W        W 8629  27.803  18.346  24.798 -0.2387 -0.0280 -0.2483
65717W        W 8630  22.246  33.705  21.236  0.0612  0.0835 -0.2630
65718W        W 8631  13.848  32.908  16.480  0.2204 -0.1844  0.0687
65719W        W 8632  18.646  29.477   0.399 -0.0372 -0.0692  0.1805
65720W        W 8633  16.016  23.180  18.192 -0.0862 -0.1658  0.1842
65721W        W 8634   3.810  20.201  26.266  0.0075 -0.1679  0.1121
65722W        W 8635  12.250  24.797  23.271  0.2027  0.0468 -0.2680
65723W        W 8636  24.555  26.719  24.862 -0.1643  0.2536  0.0908
65724W        W 8637  16.433  33.927  24.785 -0.2096  0.0857  0.0576
65725W        W 8638  24.081  27.452  15.238  0.0262  0.0309  0.1279
65726W        W 8639   2.980   1.235  16.621  0.2196  0.2170 -0.1430
65727W        W 8640  15.552  32.997  15.881 -0.0064 -0.1931 -0.1058
65728W        W 8641  11.444  33.112  27.412  0.0549  0.2140  0.0637
65729W        W 8642  18.520  21.283  14.106  0.3375 -0.3025 -0.2020
65730W        W 8643  10.508  19.889   0.355  0.0169 -0.1895  0.1338
65731W        W 8644   8.509  22.770  17.190 -0.3547  0.1369 -0.4665
65732W        W 8645  21.152  27.734  16.949 -0.0351 -0.0729  0.0157
65733W        W 8646   5.475   3.124  27.164 -0.0834 -0.0753  0.1505
65734W        W 8647  17.444   1.619  21.101  0.1003  0.0504  0.0002
65735W        W 8648  12.875   0.661  22.682 -0.3956 -0.0803  0.0581
65736W        W 8649  17.526  25.404  23.874  0.0629 -0.0155  0.0162
65737W        W 8650  22.650  30.557  14.922 -0.0157  0.0426 -0.3017
65738W        W 8651   9.292  34.327  22.908  0.0281 -0.2286 -0.0086
65739W        W 8652   6.884  24.847  23.414 -0.0629 -0.0893  0.0698
65740W        W 8653  16.155  25.351  22.879 -0.0038  0.1293  0.2997
65741W        W 8654   7.354  28.851  27.354  0.1398  0.2014  0.3147
65742W        W 8655  15.915  33.211  20.203  0.2734  0.2795 -0.2881
65743W        W 8656   7.902  24.041   0.095  0.1406 -0.2335  0.0035
65744W        W 8657   2.179  21.522  24.763 -0.2152 -0.1813  0.0339
65745W        W 8658  16.680  32.972  27.282  0.0298 -0.0848  0.0997
65746W        W 8659  33.480  20.827  20.108  0.1124  0.1200 -0.0469
65747W        W 8660  11.287  18.840   2.393  0.2226  0.1209 -0.2689
65748W        W 8661   5.801  28.630  26.392  0.0131 -0.1303 -0.1768
65749W        W 8662  15.402  20.648  22.646  0.0394 -0.1179 -0.0920
65750W        W 8663  24.757  31.737  24.369  0.0169  0.0688  0.2438
65751W        W 8664   4.366  33.361  28.125 -0.0056  0.0780 -0.0986
65752W        W 8665  16.804  29.838  25.233 -0.1777  0.2085 -0.2580
65753W        W 8666  20.332  29.783   0.300 -0.1845 -0.2893 -0.0872
65754W        W 8667  32.681  28.244   5.518 -0.0901  0.6068 -0.0062
65755W        W 8668  14.748   0.114   4.500 -0.1682 -0.0352  0.5991
65756W        W 8669  18.959  31.126  25.612  0.0976 -0.3491  0.0072
65757W        W 8670   4.736  19.145  27.434  0.3285 -0.0230  0.2252
65758W        W 8671  17.181  27.748  24.420 -0.4751  0.2384 -0.0250
65759W        W 8672  16.913  32.544  21.936 -0.1117 -0.0718 -0.4390
65760W        W 8673  13.033  24.567   2.212 -0.1977  0.2252 -0.1453
65761W        W 8674  17.040   0.691  24.404  0.3076 -0.0924  0.1541
65762W        W 8675   7.767  30.703  28.626 -0.1703 -0.1793 -0.1074
65763W        W 8676  13.691  24.858   4.354  0.4129 -0.2299  0.0823
65764W        W 8677  18.037  22.162  17.767 -0.0606  0.2802  0.0329
65765W        W 8678  10.089  23.664  27.131  0.1441  0.1776 -0.2457
65766W        W 8679  29.362  23.709  28.813  0.1686 -0.2537  0.0284
65767W        W 8680  12.798  27.574  21.076  0.2845 -0.1089  0.0113
65768W        W 8681   3.184  29.746  17.399  0.2616  0.1771  0.5606
65769W        W 8682   9.412   3.458  18.895  0.1480  0.4568 -0.1336
65770W        W 8683   0.867   3.066  27.836  0.1633  0.1185  0.0507
65771W        W 8684  21.993  26.764  22.602  0.0146 -0.1445  0.2528
65772W        W 8685  15.966  31.316  27.473 -0.1316 -0.0632  0.3851
65773W        W 8686  18.630  27.902  27.168  0.0828  0.1455  0.1585
65774W        W 8687  27.895  32.101   1.674  0.0825 -0.2753 -0.1312
65775W        W 8688   0.373  11.892  23.164  0.0708 -0.3617 -0.3183
65776W        W 8689  22.578  31.245  20.022 -0.1187  0.1279 -0.0135
65777W        W 8690  13.054  15.818  22.028  0.1382  0.0444 -0.0926
65778W        W 8691  21.633   9.678  22.649  0.1370  0.0750 -0.1416
65779W        W 8692   6.639  29.787   0.910  0.0959 -0.0761 -0.3956
65780W        W 8693   1.579  34.445  29.010 -0.0901  0.0158 -0.1108
65781W        W 8694   8.672  27.293  25.918  0.0539  0.2683 -0.0951
65782W        W 8695  20.873  32.263  25.133  0.1028 -0.0118  0.0094
65783W        W 8696  11.999  23.121  17.578 -0.0030 -0.0862  0.2510
65784W        W 8697  11.163  30.556  22.732 -0.1662  0.0249 -0.3907
65785W        W 8698   5.696  26.478  28.573 -0.0948  0.2301  0.1642
65786W        W 8699  15.104  27.375  20.984 -0.0559  0.1144 -0.1582
65787W        W 8700   3.878  31.599  26.415 -0.3064  0.1111  0.3133
65788W        W 8701   7.873   1.975  19.893 -0.2112 -0.2383 -0.1420
65789W        W 8702  13.457  26.354  26.721 -0.0115 -0.2212 -0.1673
65790W        W 8703   5.740  27.142  26.136  0.0321 -0.0257  0.1446
65791W        W 8704  18.816  33.300  22.981  0.1681  0.1175  0.1899
65792W        W 8705   6.991  27.350  16.818  0.1872 -0.2529  0.1186
65793W        W 8706   6.666  23.277  18.244 -0.0861 -0.0440 -0.0226
65794W        W 8707  14.318  25.197  20.114 -0.0110 -0.0849  0.1964
65795W        W 8708  11.824  20.601  13.848 -0.1759  0.0320 -0.1786
65796W        W 8709   9.799  31.203   9.692  0.2303  0.1550  0.2112
65797W        W 8710  20.119  27.999   8.097  0.5513 -0.1147  0.2002
65798W        W 8711  18.189   2.466  23.185  0.2895  0.0980 -0.1163
65799W        W 8712  17.546   0.273  23.002  0.0260  0.0814  0.4569
65800W        W 8713  15.097  30.269  23.487 -0.2013  0.3058  0.0157
65801W        W 8714   9.182  30.022  17.489 -0.1953  0.1025 -0.2298
65802W        W 8715  15.603  27.937  22.315  0.0334  0.0907  0.2724
65803W        W 8716  24.927  22.610  16.248 -0.1996 -0.1871 -0.2277
65804W        W 8717  18.508  27.353  14.913 -0.0222  0.3921 -0.1672
65805W        W 8718  15.193  30.797  24.611 -0.1101  0.0238  0.0934
65806W        W 8719  20.499  23.520  20.932  0.2329 -0.0768 -0.0887
65807W        W 8720  17.209   7.500  28.158 -0.1453  0.1778  0.2480
65808W        W 8721  18.549  28.356   9.593 -0.1121 -0.0470  0.0966
65809W        W 8722   4.557  20.933  16.038 -0.3136  0.0212  0.0901
65810W        W 8723  26.646  32.442   1.288 -0.0716  0.0427 -0.1137
65811W        W 8724  11.668  22.735   3.477  0.0803  0.3599  0.0885
65812W        W 8725  19.622   0.776  15.258 -0.3216 -0.1935 -0.0902
65813W        W 8726  32.895  27.742  24.804 -0.0144 -0.1150  0.1371
65814W        W 8727   6.093   0.755   8.792 -0.1504 -0.1473  0.1755
65815W        W 8728   7.155  23.153  18.428  0.0416  0.2403 -0.0474
65816W        W 8729  12.332  20.626  19.839 -0.2516  0.0899 -0.0300
65817W        W 8730  10.082  18.829  23.375  0.1992 -0.3021 -0.2356
65818W        W 8731   6.826  33.667  19.309 -0.0929 -0.2825  0.0930
65819W        W 8732  10.521  33.396  29.206  0.1550  0.1633 -0.0854
65820W        W 8733  16.088   3.297   6.022  0.2391 -0.4234  0.0396
65821W        W 8734  28.975  29.437  15.669  0.0098  0.1993  0.0241
65822W        W 8735  11.432  18.900   0.410 -0.3120 -0.2802  0.2677
65823W        W 8736  14.494  27.321  23.990  0.1945 -0.1689  0.2166
65824W        W 8737  21.956   2.355  22.182 -0.1035  0.4901 -0.2471
65825W        W 8738   4.096  24.305  29.192  0.2208  0.0642 -0.0346
65826W        W 8739   9.371  31.852   5.697 -0.0545  0.2606  0.1477
65827W        W 8740  11.634   1.593  22.612 -0.1560 -0.0635  0.0872
65828W        W 8741  11.152  24.721  28.359 -0.2154  0.3063 -0.0721
65829W        W 8742  20.743  31.589  19.867 -0.0201 -0.0368  0.3512
65830W        W 8743  11.617  29.742  15.696  0.1561  0.1376  0.0338
65831W        W 8744   0.405  26.262   6.371 -0.2261  0.0652 -0.1368
65832W        W 8745  17.590   5.810  16.954 -0.3872  0.0034  0.1400
65833W        W 8746   3.719  27.441   1.275 -0.1237  0.0338 -0.0116
65834W        W 8747   6.431  21.744  22.963  0.0341  0.3522  0.1730
65835W        W 8748  13.374  30.783  20.218  0.1251 -0.2627 -0.2685
65836W        W 8749  23.564  32.119  13.710 -0.0853  0.0778  0.0115
65837W        W 8750   9.587  19.084  25.489 -0.1939  0.2182 -0.1121
65838W        W 8751   6.514  25.717   2.680 -0.2042  0.0538 -0.0272
65839W        W 8752  12.354  20.745  14.258 -0.0441  0.1478  0.0839
65840W        W 8753  13.832  30.205   3.576  0.2103  0.1115 -0.1697
65841W        W 8754  20.596  29.976   1.605  0.2414 -0.3106  0.0958
65842W        W 8755   6.146  25.170  21.841 -0.0251  0.2221  0.1489
65843W        W 8756  21.726   1.019  28.551 -0.1774 -0.0466 -0.2539
65844W        W 8757   7.233  14.968  17.284  0.0477 -0.2582  0.1098
65845W        W 8758   6.584  33.031  28.192 -0.1228  0.1600 -0.0571
65846W        W 8759  28.604  25.472  21.502  0.0107 -0.0324  0.0886
65847W        W 8760   7.418   1.664  24.518  0.0424  0.3538 -0.1309
65848W        W 8761  23.835  22.075  28.316  0.1112 -0.0113  0.1867
65849W        W 8762   4.393   2.524  20.439  0.0769  0.2527  0.1577
65850W        W 8763  23.295  25.409  28.383 -0.0062  0.2766 -0.2221
65851W        W 8764  13.946  23.706   2.756  0.1604 -0.3234  0.0199
65852W        W 8765  14.489  31.495  22.404  0.2846  0.2787  0.0388
65853W        W 8766  12.795  29.879  17.693  0.1280  0.0728  0.0319
65854W        W 8767  19.950   0.412  23.664  0.2818  0.0306  0.0193
65855W        W 8768  14.161  33.039  23.563  0.0084 -0.3401  0.0705
65856W        W 8769  34.245  33.610  19.294 -0.1307 -0.0651  0.0348
65857W        W 8770  18.660  25.737  23.009  0.1247 -0.1445 -0.0628
65858W        W 8771  10.526   0.897  21.239  0.1755  0.2686  0.0656
65859W        W 8772   4.918  19.638   0.401  0.0659 -0.1532 -0.0137
65860W        W 8773   9.179   1.857  20.539 -0.3951 -0.0277  0.2313
65861W        W 8774  25.556  27.343  15.984  0.0395 -0.0157  0.1198
65862W        W 8775   5.318  33.098  23.900  0.1280  0.0100 -0.3250
65863W        W 8776   7.562  33.938  22.752 -0.0524 -0.0207 -0.0546
65864W        W 8777  10.363  19.398  20.111  0.3058 -0.2199  0.4824
65865W        W 8778  19.923  34.275  26.011  0.0112  0.2244  0.0477
65866W        W 8779  24.204  28.500  27.835 -0.1530 -0.0027  0.1054
65867W        W 8780   2.303   0.904  16.940 -0.1783  0.1868  0.2142
65868W        W 8781   5.000  24.128  25.482  0.1495  0.1764 -0.1947
65869W        W 8782   2.368  24.141  15.000 -0.0497  0.1166 -0.0151
65870W        W 8783   5.522  34.466   3.690  0.1657 -0.1764 -0.1268
65871W        W 8784   6.297   1.243   9.601  0.4236 -0.2767  0.4294
65872W        W 8785  19.883  30.533  22.451  0.1818 -0.0107 -0.0573
65873W        W 8786  10.885  30.996  24.421  0.1899  0.0743 -0.0233
65874W        W 8787  21.702  25.702  18.545  0.0965 -0.0957  0.2928
65875W        W 8788   3.114  34.334   5.023  0.1831  0.1503 -0.0322
65876W        W 8789  13.648  33.790   0.373  0.0745 -0.0914  0.0695
65877W        W 8790  14.914   8.241  23.152 -0.0160  0.2558  0.0097
65878W        W 8791   7.345  32.131  29.181  0.1530  0.0461  0.1423
65879W        W 8792   7.175  29.986  21.632  0.4034 -0.6449 -0.5425
65880W        W 8793  14.912  22.100  21.420  0.0398 -0.2011 -0.0404
65881W        W 8794   8.908  22.276  16.813  0.5241 -0.2187 -0.0257
65882W        W 8795  15.012  33.043  23.152 -0.1011 -0.4136  0.0388
65883W        W 8796  19.246  30.489  27.692  0.3288 -0.0405  0.0860
65884W        W 8797   6.130   0.714  28.858  0.0553  0.1812  0.1805
65885W        W 8798  12.826  28.563  22.263  0.0489 -0.0712  0.0798
65886W        W 8799   3.024  27.073   4.096  0.0994 -0.1417  0.0682
65887W        W 8800  32.867  33.632  24.289  0.1060 -0.0801 -0.1823
65888W        W 8801  17.729   0.592  26.413 -0.1243 -0.2122  0.0336
65889W        W 8802  25.057  31.517   8.595 -0.2263  0.2199 -0.1279
65890W        W 8803  13.329  25.425  24.039  0.0901  0.0805  0.2470
65891W        W 8804   9.983  24.876   1.989  0.1346 -0.1086 -0.0173
65892W        W 8805   5.711  25.734   3.180  0.1048 -0.2116  0.0143
65893W        W 8806   4.263  32.495  21.034  0.5869 -0.2693 -0.1203
65894W        W 8807  15.820  23.314  24.799 -0.0771  0.0569 -0.0158
65895W        W 8808   8.380  32.273  22.919  0.1567 -0.0881  0.1163
65896W        W 8809  15.045  24.517  17.154 -0.0541  0.1136  0.1528
65897W        W 8810  17.345   5.504   3.257  0.2508  0.0335  0.1545
65898W        W 8811  13.204   9.100   6.821 -0.1849  0.0111  0.1955
65899W        W 8812  11.665  30.392  22.482 -0.0870  0.2252  0.0508
65900W        W 8813  22.688  23.928  14.263 -0.1306 -0.0878 -0.2262
65901W        W 8814  16.835  26.791  23.445  0.0905 -0.0064  0.2555
65902W        W 8815  26.056  21.159  18.571  0.0894 -0.1514  0.0137
65903W        W 8816  30.974  23.832   2.433  0.2001  0.0122 -0.2632
65904W        W 8817   8.991  33.874  20.437 -0.0830  0.0665  0.0169
65905W        W 8818  10.359   3.833  29.626 -0.0483  0.2760 -0.1763
65906W        W 8819   9.528  29.380  24.874  0.3320 -0.5573  0.1319
65907W        W 8820  11.654  33.094  22.302  0.0588 -0.2698  0.4955
65908W        W 8821  25.268  32.026  25.401 -0.0232  0.2153  0.0795
65909W        W 8822  18.831  27.161  21.134  0.0335  0.0408 -0.0435
65910W        W 8823  17.097  29.733  26.252  0.0789  0.0097 -0.0228
65911W        W 8824  22.963  19.447  17.214 -0.1579 -0.3573 -0.0824
65912W        W 8825  16.270  24.801  17.558 -0.1025  0.0287 -0.4471
65913W        W 8826  11.569   0.736  24.311  0.2555 -0.0386  0.2038
65914W        W 8827  30.062  26.610  22.098  0.0891  0.1223  0.1378
65915W        W 8828  17.234   9.170  28.056  0.1315 -0.0540  0.0536
65916W        W 8829  11.456   1.833  23.640  0.0080 -0.1163  0.0332
65917W        W 8830  11.595  28.007   2.392  0.0301 -0.1521 -0.2338
65918W        W 8831  11.672  21.274  25.600 -0.2389 -0.0108 -0.0809
65919W        W 8832   6.653  18.561   2.943  0.2218 -0.0811 -0.1566
65920W        W 8833  13.277  28.388  22.087 -0.0402  0.0228  0.0216
65921W        W 8834  22.311  23.721  27.325 -0.0507 -0.0973 -0.0571
65922W        W 8835   8.374   1.294  19.516 -0.1503 -0.2636  0.2159
65923W        W 8836  20.640  31.090  25.489  0.0729  0.2329 -0.2112
65924W        W 8837  24.046  32.768   0.786 -0.2794  0.1540  0.0379
65925W        W 8838  24.448  11.242  17.458 -0.0402 -0.0711 -0.1823
65926W        W 8839   7.615  26.665  15.797  0.1536  0.4859 -0.3170
65927W        W 8840  12.434  24.299  16.466  0.2594  0.3695 -0.2703
65928W        W 8841  18.453  19.969  13.750 -0.0796 -0.0278 -0.0691
65929W        W 8842  14.685  30.358  20.206  0.0111 -0.0937 -0.1432
65930W        W 8843   9.488  26.790  28.944 -0.3872  0.1729 -0.0079
65931W        W 8844  14.881  28.043  21.662 -0.0727 -0.0483  0.1763
65932W        W 8845   7.867   1.184  28.826 -0.0695 -0.0324  0.0574
65933W        W 8846  10.478  18.514  17.861  0.3232  0.1216 -0.3453
65934W        W 8847  19.439  28.566  15.182  0.0167  0.1962  0.1921
65935W        W 8848  26.100  29.260   0.428 -0.0896 -0.2405 -0.1027
65936W        W 8849  14.326  17.083  24.811  0.1433 -0.2838 -0.1885
65937W        W 8850  17.408   0.285  21.212 -0.0460  0.0453  0.1514
65938W        W 8851   9.027  24.001   1.515  0.0130 -0.1235  0.1057
65939W        W 8852   7.022  28.878  21.273 -0.2533  0.1666  0.0357
65940W        W 8853  18.839  31.006  21.941 -0.0298  0.1064 -0.2251
65941W        W 8854   8.929  25.998   8.745 -0.1556 -0.0741 -0.0324
65942W        W 8855  12.630  25.622  21.001 -0.2311 -0.0693 -0.1583
65943W        W 8856  10.463  15.062   1.615 -0.1916 -0.0272  0.0048
65944W        W 8857  16.817   0.852  27.459  0.4641 -0.3562  0.0257
65945W        W 8858   8.022   2.776   2.072 -0.0723 -0.0242 -0.0297
65946W        W 8859  33.001   1.671  20.563  0.1360 -0.2340 -0.1740
65947W        W 8860  13.784  28.638  29.641 -0.2388  0.0353 -0.4527
65948W        W 8861  15.097  23.314   6.456 -0.1033 -0.0267 -0.0292
65949W        W 8862  19.896  29.140  25.999 -0.2046 -0.1154  0.0486
65950W        W 8863  14.922  27.994  14.492 -0.3419  0.1081  0.2712
65951W        W 8864  23.667  30.484   1.449 -0.4352  0.3410  0.2625
65952W        W 8865  17.050  25.564  25.616  0.0314  0.0100  0.1290
65953W        W 8866  27.195   3.034  27.807 -0.1992 -0.0997 -0.0561
65954W        W 8867  12.719  21.881  22.997  0.1949  0.2265 -0.1770
65955W        W 8868  18.139  23.355  20.092 -0.2391 -0.3045 -0.1485
65956W        W 8869   4.431  25.093  19.741 -0.3458  0.0855  0.2667
65957W        W 8870  15.803   3.352   4.748  0.0588 -0.0615 -0.0697
65958W        W 8871  13.667  26.614  20.334 -0.3572 -0.1068 -0.0755
65959W        W 8872  17.761  33.755  25.068 -0.1471  0.2462 -0.1334
65960W        W 8873  16.630  26.679  26.704 -0.1745 -0.3052  0.1878
65961W        W 8874   4.100  19.495   6.697  0.1275  0.0240 -0.0632
65962W        W 8875  31.398   1.671  27.226 -0.0283 -0.1053  0.1359
65963W        W 8876  13.352  25.742  14.798  0.0042 -0.2510 -0.0450
65964W        W 8877   8.421  32.118  27.881 -0.1209 -0.1383 -0.1670
65965W        W 8878   8.817  13.106  25.352  0.0534  0.2679  0.1697
65966W        W 8879  16.828  29.649  26.610 -0.1580  0.1244  0.2718
65967W        W 8880  18.402  33.298  15.801 -0.0431  0.0784  0.1802
65968W        W 8881  18.801  25.902  17.641  0.1735 -0.1443  0.2279
65969W        W 8882   5.463  33.838  29.464 -0.1620 -0.3403 -0.0297
65970W        W 8883   9.636  30.242  25.616  0.0422 -0.0886 -0.0966
65971W        W 8884  12.280  33.930   1.539 -0.1466 -0.1598  0.1627
65972W        W 8885  17.359  28.889  27.330 -0.1724  0.2261  0.3280
65973W        W 8886  11.368  22.595  27.881  0.1697  0.1543  0.1057
65974W        W 8887  21.618  30.644   2.134  0.2775 -0.1568  0.0911
65975W        W 8888   2.437   0.889  21.149  0.1852  0.0505 -0.2259
65976W        W 8889  19.664  28.847  27.105  0.0099  0.0667  0.1589
65977W        W 8890  15.849   1.960  22.257  0.1530 -0.1832 -0.1506
65978W        W 8891   8.958  32.108   2.785  0.0187  0.1231  0.1608
65979W        W 8892  25.556   5.952  16.098  0.1319 -0.2288 -0.0239
65980W        W 8893  22.559   2.574  15.059 -0.2103  0.0227 -0.1448
65981W        W 8894  16.173  21.270  23.075 -0.0715  0.2006 -0.0350
65982W        W 8895  16.296   5.475  15.928 -0.0093  0.1346  0.0785
65983W        W 8896  14.621  34.167  18.113  0.2131 -0.0469 -0.3576
65984W        W 8897   9.235  28.109   4.225 -0.0752  0.3795  0.2830
65985W        W 8898   9.072  26.872  18.845 -0.1982 -0.0682 -0.0486
65986W        W 8899  22.168  31.785  22.067 -0.3672  0.1007  0.0715
65987W        W 8900  14.695  28.606   1.983  0.0530 -0.0078  0.2223
65988W        W 8901  16.295  22.164  12.054 -0.4273 -0.1348 -0.0781
65989W        W 8902  17.103  20.076  23.312 -0.0169  0.3330  0.1988
65990W        W 8903  14.865  27.285  22.146 -0.2115 -0.0915  0.4416
65991W        W 8904   3.648   4.167   5.792  0.1025 -0.1592 -0.1073
65992W        W 8905  22.507  24.420  21.664  0.3674 -0.1363 -0.1273
65993W        W 8906   9.237  28.020   6.460  0.0616 -0.0457 -0.1869
65994W        W 8907  15.386  22.859  16.439 -0.1408  0.1546  0.0240
65995W        W 8908  26.129  32.708  22.101  0.0938  0.3056 -0.0037
65996W        W 8909  13.076  28.363  19.557  0.1040 -0.1146  0.0351
65997W        W 8910  28.556  32.909  16.791 -0.0479 -0.6847 -0.0298
65998W        W 8911   4.468   0.061  17.574  0.1633  0.0032 -0.1033
65999W        W 8912   8.528  21.331   1.021 -0.1404 -0.3274 -0.1589
66000W        W 8913  22.047   0.504  25.844  0.1141 -0.1674 -0.1753
66001W        W 8914  17.521  23.746  17.547 -0.2369 -0.1774 -0.1904
66002W        W 8915   9.303  14.510  27.734  0.0285  0.0691  0.0725
66003W        W 8916  10.727  16.566  18.351  0.1391 -0.4292  0.0706
66004W        W 8917  14.420  23.098  25.394 -0.5092 -0.2073 -0.2525
66005W        W 8918   4.150  28.240   0.395  0.0959 -0.0303 -0.0541
66006W        W 8919  13.627  25.041  24.425 -0.1515 -0.1545 -0.1646
66007W        W 8920  15.209  31.494  15.836  0.1869  0.1326  0.0331
66008W        W 8921  20.406   0.786  29.189  0.0690 -0.0097 -0.1222
66009W        W 8922  22.874  27.316  23.137  0.2511 -0.2530 -0.3037
66010W        W 8923  30.848  23.145  26.144 -0.1744  0.2721 -0.0228
66011W        W 8924   7.251  25.985   0.430  0.1522 -0.1497 -0.1001
66012W        W 8925  11.149  26.763  17.542  0.0642 -0.2822  0.1008
66013W        W 8926  21.402   3.047  26.355  0.2164 -0.0132 -0.2077
66014W        W 8927  12.612   0.758  21.760  0.2220 -0.2076  0.1342
66015W        W 8928  15.050  34.060  27.562  0.0541 -0.0108 -0.2442
66016W        W 8929  14.487  24.423  14.732  0.1565  0.1261  0.2263
66017W        W 8930  25.187  30.809  19.362 -0.3092 -0.0052  0.0565
66018W        W 8931  10.570   3.147   2.775  0.1636  0.0457  0.2234
66019W        W 8932  28.903   7.333  25.765  0.3198  0.0763  0.0608
66020W        W 8933  15.502  28.045  17.560  0.0700  0.0434  0.0446
66021W        W 8934  15.690  26.410  21.397 -0.0594  0.2765 -0.1197
66022W        W 8935  12.170  25.977   2.968 -0.1285 -0.0622 -0.4619
66023W        W 8936   2.359  31.201  16.710 -0.0896 -0.0123 -0.0567
66024W        W 8937  10.735  14.402  25.721  0.0635  0.1475 -0.0260
66025W        W 8938   5.624  22.338   3.811 -0.0792 -0.1822  0.2574
66026W        W 8939  20.320   5.717  25.870 -0.2614 -0.0862 -0.2007
66027W        W 8940  10.816  34.137  23.757  0.1912  0.2934  0.1581
66028W        W 8941  19.319  29.149  16.981 -0.0257 -0.0046 -0.1691
66029W        W 8942  16.310  16.535  25.201  0.1723 -0.1249  0.5377
66030W        W 8943   3.539   2.988   3.875 -0.1614  0.0825 -0.0107
66031W        W 8944  18.638  24.137  22.161  0.1471  0.2229  0.0858
66032W        W 8945  27.255  19.643  24.859  0.2144 -0.2154 -0.1900
66033W        W 8946   3.485  22.754  26.193 -0.1678  0.0835  0.0195
66034W        W 8947  30.743  29.499  28.511 -0.0619 -0.1868  0.0424
66035W        W 8948   0.482  18.212  29.277 -0.2049 -0.1155 -0.4362
66036W        W 8949   6.716  23.375  19.705  0.2850  0.1572  0.1671
66037W        W 8950  15.659  24.597   3.440  0.1593  0.6048 -0.0772
66038W        W 8951   7.103  29.188   2.593  0.2293 -0.1923  0.1151
66039W        W 8952  19.701  24.517  20.811 -0.0554 -0.0073  0.1222
66040W        W 8953  13.098  29.749   0.464  0.2370 -0.1355 -0.3591
66041W        W 8954   8.344   2.925  26.421  0.1011  0.2247  0.0248
66042W        W 8955  15.748  24.818   1.711 -0.1498  0.0924 -0.3477
66043W        W 8956  11.373  23.048   2.182 -0.0680 -0.1570  0.0094
66044W        W 8957  16.785   1.068  24.051  0.1427 -0.1804  0.1480
66045W        W 8958   7.167  28.392  27.111  0.0914 -0.0344 -0.1654
66046W        W 8959  22.141  21.485  26.107  0.2287 -0.2977  0.3551
66047W        W 8960  18.230  24.332   1.606  0.0386 -0.3759  0.0885
66048W        W 8961   5.184   0.527  18.561  0.2641 -0.1571 -0.1460
66049W        W 8962   9.443  27.334  26.409 -0.1515  0.0395  0.1338
66050W        W 8963  20.457  25.121  14.358  0.0811 -0.1066 -0.0194
66051W        W 8964   8.512  30.485  19.235 -0.0416  0.1869  0.0693
66052W        W 8965  18.241  34.282  24.430 -0.0353  0.1997  0.3558
66053W        W 8966   6.894  20.246   0.476  0.2187  0.1529  0.1092
66054W        W 8967  16.618  28.749  27.085 -0.0489  0.0571  0.0372
66055W        W 8968  18.732  29.434  18.284 -0.2638 -0.1763  0.2786
66056W        W 8969  17.754  23.648  21.167 -0.1026 -0.0734  0.1381
66057W        W 8970  22.995  29.639  20.954  0.2218  0.0380  0.0178
66058W        W 8971   4.292   9.804  20.411 -0.1902 -0.0732 -0.0325
66059W        W 8972  32.313   1.614  18.010 -0.1220 -0.3346  0.2788
66060W        W 8973  11.816  25.073  26.785 -0.2484  0.1047  0.0610
66061W        W 8974  12.322   5.628  19.417  0.1247 -0.1603 -0.0509
66062W        W 8975   8.968  31.571  21.636 -0.3166 -0.3528 -0.0180
66063W        W 8976  18.153  24.595  23.833  0.0627  0.1644  0.2325
66064W        W 8977  20.686  26.988  22.954  0.2604  0.1151 -0.0156
66065W        W 8978  28.313   4.245   6.405  0.1557 -0.1145 -0.1204
66066W        W 8979  22.960  29.142  17.998 -0.1473  0.1103  0.1892
66067W        W 8980  12.290  31.317   2.464  0.2024  0.1190  0.2600
66068W        W 8981   5.433  27.062  19.612  0.3038 -0.0459  0.0902
66069W        W 8982  10.544  20.666  18.379  0.4773 -0.1111  0.0273
66070W        W 8983  22.660   3.527  14.028 -0.3447  0.1082  0.1102
66071W        W 8984  13.772  22.947   3.176 -0.0588 -0.1228 -0.1244
66072W        W 8985   2.687  23.780  29.596  0.0626 -0.1053  0.2228
66073W        W 8986  13.759   5.148  19.866 -0.1323 -0.1523 -0.1455
66074W        W 8987  10.175   5.323  19.594  0.0732 -0.2048 -0.1808
66075W        W 8988   7.021  26.342  27.256 -0.1063 -0.0883  0.2111
66076W        W 8989  19.374  31.851  27.043 -0.1415 -0.0847 -0.1026
66077W        W 8990  16.438   0.129  21.125  0.1436  0.0645  0.4273
66078W        W 8991  18.336  31.839  26.960 -0.2186 -0.1478 -0.1564
66079W        W 8992   3.157  31.175  22.979  0.0825  0.3297 -0.0451
66080W        W 8993   0.910   4.619  21.032  0.0199  0.2559 -0.0276
66081W        W 8994   0.658  16.075  27.325 -0.0630  0.1021  0.0948
66082W        W 8995  13.255  25.034  14.484  0.1460 -0.2391  0.1012
66083W        W 8996  15.567  21.498  20.744 -0.0630 -0.0866  0.0039
66084W        W 8997  26.557   4.078  17.189  0.0213  0.0307  0.0215
66085W        W 8998   9.742  33.422  11.104  0.1301  0.1118 -0.0177
66086W        W 8999   9.584   0.018  23.556  0.2314 -0.0862 -0.1902
66087W        W 9000  11.651  26.987  17.359 -0.0426 -0.2415 -0.0587
66088W        W 9001  29.099   4.638  28.808  0.2021  0.0001  0.1462
66089W        W 9002  16.732  20.002  13.457  0.0409 -0.0953 -0.0855
66090W        W 9003  13.493  32.809  19.494  0.1460 -0.2642  0.0183
66091W        W 9004  17.017  17.758   3.194 -0.2495 -0.4713 -0.3164
66092W        W 9005  12.061  25.516  16.112 -0.0230  0.0902  0.4213
66093W        W 9006  13.847  31.559  18.519  0.0501  0.0572 -0.0187
66094W        W 9007  14.235  26.631  24.782  0.2335  0.3080 -0.3209
66095W        W 9008  14.255   9.097  28.914 -0.1075 -0.2807  0.2975
66096W        W 9009  12.979  29.752  28.364  0.0201  0.0867  0.1314
66097W        W 9010   8.227   1.785  28.170  0.1725 -0.0603  0.0233
66098W        W 9011  12.837   0.118  20.341 -0.0144  0.0857 -0.3532
66099W        W 9012   9.119  29.237  22.804 -0.0338  0.0175 -0.0640
66100W        W 9013   4.644  19.211  20.324 -0.2234  0.1388 -0.2364
66101W        W 9014   8.168  18.399  15.974 -0.1241  0.1203  0.1128
66102W        W 9015   2.240  34.245  23.719  0.0231 -0.0051 -0.0364
66103W        W 9016  21.366  30.799  16.073  0.0997 -0.0389  0.1366
66104W        W 9017  21.216   8.224   1.567 -0.2554 -0.4124 -0.1397
66105W        W 9018   5.562  29.165  23.950 -0.1560 -0.4468  0.1957
66106W        W 9019  14.560  24.965  23.421  0.0284  0.1426 -0.1044
66107W        W 9020   6.747  24.269  28.355  0.0695  0.2797 -0.3612
66108W        W 9021   8.312  21.832  23.084 -0.4678  0.2749  0.0242
66109W        W 9022  10.032   2.406  22.193 -0.1689  0.0468 -0.0313
66110W        W 9023  13.502  23.538  18.189  0.1275 -0.1440  0.3804
66111W        W 9024   9.570  25.479  21.690  0.0241 -0.1109  0.1557
66112W        W 9025   9.255  13.461   4.204  0.0541 -0.1144  0.1235
66113W        W 9026   7.313  24.711  27.147 -0.0574 -0.0180  0.0878
66114W        W 9027  13.843  33.460  24.024  0.0416  0.1118  0.4331
66115W        W 9028  20.855  26.580  15.994  0.1147  0.2323  0.1556
66116W        W 9029   7.833  23.405  20.421 -0.0773 -0.0805  0.0172
66117W        W 9030  14.718  21.993  25.819 -0.2645  0.0427  0.1286
66118W        W 9031  30.618  23.771  27.757 -0.2460  0.0396  0.0836
66119W        W 9032  10.404  32.402   6.603  0.0370  0.1386  0.1743
66120W        W 9033   1.193  21.520  21.328  0.0741 -0.1047 -0.2267
66121W        W 9034   3.490  29.948   2.745 -0.1451  0.0635  0.1190
66122W        W 9035  21.950  31.400  17.117  0.0236 -0.0619 -0.1119
66123W        W 9036  11.511  30.648  21.494 -0.2111  0.2201 -0.2591
66124W        W 9037  18.702  22.224  16.934 -0.1009 -0.0666 -0.1959
66125W        W 9038  18.043  33.975  26.908  0.1272 -0.0151 -0.0701
66126W        W 9039  18.928  22.216  11.716 -0.1378  0.0528  0.0280
66127W        W 9040   5.928  28.787  24.849 -0.1044 -0.2912 -0.2283
66128W        W 9041   1.186  22.866   5.866  0.1299  0.1441  0.0534
66129W        W 9042  16.391   0.555  19.728 -0.0966 -0.2406  0.2431
66130W        W 9043  14.012  29.804  24.867  0.0532 -0.3047 -0.6155
66131W        W 9044  10.949  28.251   0.748  0.0699  0.0032  0.0131
66132W        W 9045  29.794   0.407  20.680  0.1487  0.0466 -0.0442
66133W        W 9046   7.425   4.431  21.110 -0.1132 -0.0552  0.1103
66134W        W 9047  15.111  29.076   4.249  0.2406  0.1557 -0.4183
66135W        W 9048   7.279  31.464  28.640 -0.2690 -0.0078 -0.1373
66136W        W 9049  21.668  29.145  23.319  0.1601 -0.3098  0.0199
66137W        W 9050  22.273  26.926  20.846 -0.3498 -0.0239 -0.1684
66138W        W 9051  14.764  29.224  16.484  0.1189  0.1159  0.2332
66139W        W 9052   1.755  31.196  28.672 -0.0628  0.0081 -0.0534
66140W        W 9053  14.269   1.296  23.134 -0.2687  0.1600  0.1887
66141W        W 9054  12.830  19.015  16.873  0.2656 -0.2054  0.2552
66142W        W 9055   9.486  25.015  21.442  0.0295 -0.1453  0.1502
66143W        W 9056   5.462  23.665  27.215 -0.3515 -0.0212 -0.0394
66144W        W 9057  17.469  31.663  20.188 -0.0034 -0.3680  0.1651
66145W        W 9058  13.974  22.101   1.756  0.3649  0.0694 -0.1575
66146W        W 9059   9.203   2.357  29.209 -0.2161  0.2730 -0.0761
66147W        W 9060  13.558  32.321  24.560 -0.1358  0.0476 -0.3101
66148W        W 9061  14.098  23.273  19.638 -0.0520 -0.2788  0.0874
66149W        W 9062   1.192  34.470   6.480  0.0605  0.1325 -0.0596
66150W        W 9063  20.208  34.172   2.809 -0.0900 -0.2920  0.2887
66151W        W 9064  20.822  31.400   8.874 -0.0377 -0.4403 -0.1714
66152W        W 9065  19.447  23.971  23.365  0.0430  0.0239 -0.4015
66153W        W 9066  12.435   2.830   9.456  0.1603 -0.4651  0.2076
66154W        W 9067   5.892   2.276  27.977  0.1606 -0.2687  0.0979
66155W        W 9068   9.134  31.663  29.397  0.0059  0.0442 -0.4218
66156W        W 9069   5.311  19.215  16.762  0.1345 -0.1255 -0.2673
66157W        W 9070   6.853  19.470  24.293 -0.4074  0.1310 -0.0568
66158W        W 9071  11.770   2.996  20.380 -0.0957  0.3181 -0.2978
66159W        W 9072  10.385  30.602  25.146 -0.4271  0.2210 -0.3228
66160W        W 9073  20.523  32.760  23.484 -0.0767 -0.2003 -0.1670
66161W        W 9074  32.329   2.393   2.291 -0.0368 -0.1025 -0.2586
66162W        W 9075   9.716  29.889   5.139 -0.0375  0.0624  0.2275
66163W        W 9076  12.508  26.540  26.613  0.0131 -0.3214 -0.0927
66164W        W 9077  12.600  23.483  29.049  0.1173  0.1774  0.2461
66165W        W 9078   4.324  31.118   3.991  0.2752  0.1444 -0.0522
66166W        W 9079  10.219  25.528  28.292 -0.0024 -0.0325 -0.0867
66167W        W 9080  12.431  31.079   7.175 -0.0003 -0.0329  0.3388
66168W        W 9081  27.614  25.463  24.123 -0.0354 -0.2263 -0.0821
66169W        W 9082   7.243   5.870   5.931 -0.0035  0.1208  0.0899
66170W        W 9083  15.726  29.498  26.261 -0.0281  0.0758 -0.0821
66171W        W 9084  13.915  32.780  24.773 -0.0263 -0.0496  0.0832
66172W        W 9085  27.577   8.693  28.603 -0.0649  0.1888 -0.1131
66173W        W 9086  22.137   4.530  21.674 -0.2322 -0.2033 -0.0853
66174W        W 9087  16.418  25.417   1.449  0.4519 -0.1076  0.0012
66175W        W 9088   3.907  27.958   6.415  0.1872  0.0684 -0.1646
66176W        W 9089  15.071  16.366  24.625 -0.2267 -0.0865 -0.1976
66177W        W 9090  16.811  30.689  16.757 -0.0038 -0.0775  0.0131
66178W        W 9091  21.195  23.262  25.801 -0.2045 -0.2580  0.1394
66179W        W 9092  11.087  34.038   3.232  0.1418  0.0812  0.1596
66180W        W 9093  10.199  29.851   5.375 -0.0316 -0.0275  0.1542
66181W        W 9094   8.877  30.054  23.160 -0.1712  0.0050  0.1243
66182W        W 9095  17.532  10.685   4.372  0.2340 -0.0921  0.1820
66183W        W 9096  14.969   3.197   2.160 -0.1020  0.2503 -0.2534
66184W        W 9097  13.431  28.917   0.179  0.0806  0.0885  0.0024
66185W        W 9098  11.329  26.143  27.750 -0.2148 -0.1931  0.0539
66186W        W 9099  19.780  28.768  21.818 -0.0026  0.0850  0.0759
66187W        W 9100  12.456   7.536  29.464 -0.1231 -0.2016  0.0516
66188W        W 9101   7.380   1.494  27.185 -0.1695 -0.2161 -0.3544
66189W        W 9102  10.159   2.351  28.956  0.0338  0.3459  0.1128
66190W        W 9103   3.606   0.960  21.106  0.2374 -0.1872  0.2247
66191W        W 9104   8.595  24.487  16.755  0.0948  0.1169 -0.1188
66192W        W 9105   8.307   0.522   1.216 -0.0313 -0.0458 -0.2955
66193W        W 9106   5.316  30.292  15.770 -0.0290  0.0880 -0.0963
66194W        W 9107  18.373  29.255  21.418 -0.4809  0.2069 -0.2065
66195W        W 9108   9.008   1.253   5.904  0.0360 -0.1727  0.1385
66196W        W 9109  15.957  34.487   5.451 -0.2122  0.1026 -0.1838
66197W        W 9110  15.496  20.869  25.660 -0.1016  0.2255 -0.0740
66198W        W 9111  13.087  22.060   3.269 -0.0145 -0.0231  0.0584
66199W        W 9112   1.435   3.156   1.441  0.1112 -0.0847  0.1113
66200W        W 9113  17.214  21.566  24.982 -0.1814  0.4487  0.1451
66201W        W 9114   2.532  33.340   0.746 -0.0685  0.0129  0.1190
66202W        W 9115  10.396  32.411  27.696  0.3010  0.2805 -0.0444
66203W        W 9116  19.594  32.603  29.633 -0.1173  0.1001  0.2368
66204W        W 9117  12.935  33.477   8.669 -0.0434  0.1632 -0.1879
66205W        W 9118  28.749  32.442  26.268 -0.0505  0.4025  0.1434
66206W        W 9119  16.973  29.690   2.575  0.1751  0.3370  0.0767
66207W        W 9120  19.119  30.261  29.714 -0.2877  0.1120  0.0251
66208W        W 9121   6.686  22.821  28.001  0.2680  0.0364  0.2242
66209W        W 9122  11.700  22.211  24.921  0.0914 -0.0782 -0.1896
66210W        W 9123  18.961  30.092   4.377  0.2578  0.1245  0.3321
66211W        W 9124   7.546  32.836   0.649 -0.1827 -0.0824  0.3547
66212W        W 9125  18.325  30.443  26.725  0.0719 -0.0510 -0.0977
66213W        W 9126   9.586  30.858   3.730  0.0247  0.0231 -0.3652
66214W        W 9127  11.383  31.348  29.547 -0.0914  0.1802 -0.2371
66215W        W 9128   8.402  31.778  22.167 -0.1033  0.1550  0.1483
66216W        W 9129   9.177  29.185  26.639 -0.2061  0.3744 -0.1237
66217W        W 9130   5.977   5.093  21.225 -0.2900  0.0372  0.0548
66218W        W 9131  12.422  21.749  16.673  0.1153 -0.1274 -0.1133
66219W        W 9132  16.926   0.502   1.409  0.0413 -0.0038  0.0915
66220W        W 9133  22.899  29.219  19.519  0.1591  0.1352  0.2360
66221W        W 9134  15.122  29.037  19.656  0.1114 -0.0146  0.3024
66222W        W 9135  13.433  30.379  19.507 -0.2949 -0.3161  0.0366
66223W        W 9136   6.180  21.759  29.217 -0.3642  0.0982  0.2408
66224W        W 9137  22.045  33.875  28.866 -0.2313  0.1456 -0.0636
66225W        W 9138   7.907   6.208  25.466  0.2791 -0.2591 -0.1244
66226W        W 9139  12.261  25.117  27.991 -0.5112 -0.0414 -0.1924
66227W        W 9140  15.567   0.324  27.077  0.1552 -0.0561 -0.2813
66228W        W 9141  11.229  22.467  23.915 -0.0768 -0.2568 -0.0926
66229W        W 9142   5.477  16.764  27.066 -0.2278  0.0134 -0.3841
66230W        W 9143  21.790   5.739   0.917 -0.0720 -0.2866 -0.0018
66231W        W 9144   6.496   3.268   3.044 -0.1349 -0.2932 -0.1175
66232W        W 9145  16.312  22.175   1.733  0.0923  0.1959  0.3961
66233W        W 9146  16.727  31.246   8.720  0.1540 -0.0917  0.3350
66234W        W 9147  20.976  28.189  16.283 -0.3237  0.0196 -0.1319
66235W        W 9148  18.363  27.037  15.725 -0.0394 -0.0977 -0.0816
66236W        W 9149   1.896  30.879  27.357 -0.1149 -0.2733  0.0910
66237W        W 9150  17.763  18.121  23.242  0.1331 -0.0938 -0.1082
66238W        W 9151  17.861  29.019   1.680  0.1764  0.0185  0.0026
66239W        W 9152   8.757  22.439   8.302  0.0002  0.4053  0.4780
66240W        W 9153   6.585  24.260   4.760  0.3067 -0.1984  0.0241
66241W        W 9154  18.114  31.658  23.376 -0.0220  0.1971 -0.0164
66242W        W 9155  12.844  30.773   0.138 -0.2170 -0.0716  0.0650
66243W        W 9156  12.923  22.604  25.793  0.5407  0.0490 -0.0919
66244W        W 9157  16.305  31.803  17.284 -0.3917  0.0643  0.0008
66245W        W 9158   7.348  30.171  15.366 -0.1609 -0.2209 -0.3855
66246W        W 9159  23.061   0.836  22.847  0.0829  0.3104  0.2296
66247W        W 9160  19.351  33.159   5.033  0.0361  0.0730  0.2846
66248W        W 9161   8.709   3.203  23.394 -0.0082 -0.0019 -0.0104
66249W        W 9162  16.564  21.146  25.558  0.0292 -0.5285 -0.1818
66250W        W 9163  12.203  28.084  29.243  0.5156  0.1166  0.2636
66251W        W 9164  23.962  17.811  16.852 -0.0714  0.2874  0.0694
66252W        W 9165   6.085  34.253  29.304  0.0541 -0.0078  0.1372
66253W        W 9166   8.666  25.027  26.543 -0.1743  0.0274  0.2361
66254W        W 9167  16.590  25.923  23.820  0.4202 -0.0831  0.2041
66255W        W 9168   9.754  33.132  12.219  0.1350 -0.1310 -0.1209
66256W        W 9169   4.511  21.764  24.703  0.1867 -0.1221  0.3056
66257W        W 9170   6.873  25.544  24.036 -0.2573 -0.0771  0.4388
66258W        W 9171   6.937  30.875  10.117  0.0468 -0.1574 -0.2155
66259W        W 9172  12.263  27.812  28.118 -0.3633  0.1517  0.0855
66260W        W 9173  16.688  22.437  17.077  0.0309  0.0067 -0.2853
66261W        W 9174  11.857  25.495  25.477 -0.0505 -0.1870 -0.0951
66262W        W 9175   2.101   9.557  28.764  0.3668 -0.0224  0.0959
66263W        W 9176  15.797  33.303  27.837  0.0227  0.2197 -0.0048
66264W        W 9177   6.300  26.292  19.315  0.0212  0.4868 -0.1719
66265W        W 9178  11.384  26.483  18.383 -0.2710  0.0662 -0.1809
66266W        W 9179  20.893  32.638  19.107  0.1876 -0.0575 -0.0999
66267W        W 9180  16.826   2.565  28.830 -0.2679  0.1325  0.0712
66268W        W 9181   5.405  31.428   0.242  0.1428  0.0510  0.1197
66269W        W 9182   4.958  30.175   2.061 -0.0205 -0.1211  0.2392
66270W        W 9183  21.032  26.938   5.905 -0.1302  0.1106 -0.0712
66271W        W 9184  20.834  26.434  22.178  0.0463 -0.0135  0.1950
66272W        W 9185  21.254  32.356   4.747  0.0488 -0.0304  0.0263
66273W        W 9186  17.385   1.535   4.299  0.0669  0.2275  0.1964
66274W        W 9187   9.236  21.740  26.578  0.4028  0.0803 -0.1068
66275W        W 9188  21.457  33.737   9.235 -0.1602 -0.1052  0.0382
66276W        W 9189   6.195  17.957  20.486  0.0423  0.5158 -0.0832
66277W        W 9190  16.899  30.846  21.125  0.0808 -0.2174 -0.0548
66278W        W 9191   9.420  26.327   6.560 -0.1812  0.1158  0.2284
66279W        W 9192  31.032  33.001  25.017 -0.0417 -0.0182 -0.1052
66280W        W 9193   9.216   1.197  28.694  0.1045 -0.1077 -0.4923
66281W        W 9194  20.384  24.304  19.688  0.3884 -0.0749 -0.1254
66282W        W 9195   3.936  24.170  28.203 -0.0290  0.0996 -0.0795
66283W        W 9196  16.090  29.886   2.529 -0.3413 -0.2098 -0.0176
66284W        W 9197  10.027  31.182   5.285 -0.0911  0.4093  0.0270
66285W        W 9198  29.212  27.205  26.097  0.1062 -0.2098  0.2861
66286W        W 9199  11.028  21.201  24.049 -0.1713 -0.0300  0.0884
66287W        W 9200  13.909  25.580   5.547 -0.4597 -0.0736 -0.1267
66288W        W 9201  10.191  24.941  25.771  0.0699 -0.1417  0.5123
66289W        W 9202  12.798  31.735   6.062 -0.1821 -0.0190  0.0903
66290W        W 9203  14.791  24.482  21.760  0.0502  0.0372  0.4872
66291W        W 9204  23.946  28.117  23.378 -0.5030  0.0421  0.0579
66292W        W 9205  11.618  25.840  16.182 -0.0845  0.0339 -0.1203
66293W        W 9206  12.199  33.758   1.995 -0.0088  0.0685 -0.1286
66294W        W 9207  16.702  21.488  20.562 -0.6998  0.0231 -0.0029
66295W        W 9208   4.029  33.225   3.741  0.1058 -0.1917  0.1007
66296W        W 9209  17.150  32.512   4.067  0.0782  0.1711  0.1213
66297W        W 9210   4.291  27.885   0.806  0.0158  0.0692 -0.1385
66298W        W 9211   1.959  28.520   1.198 -0.2565 -0.0737  0.0385
66299W        W 9212  13.165  28.706  28.360 -0.1655 -0.2097 -0.0722
66300W        W 9213   6.472  26.856  25.333  0.0989  0.2767  0.0226
66301W        W 9214  13.523  26.186  10.596 -0.3021 -0.0819 -0.0891
66302W        W 9215  19.364  32.485  28.163 -0.0428  0.1364  0.0923
66303W        W 9216  11.775  26.324   1.984 -0.2075  0.0202  0.1549
66304W        W 9217   7.533  27.203  25.743  0.2045 -0.1605 -0.1297
66305W        W 9218  21.531  21.003  17.988 -0.2058  0.0955  0.4158
66306W        W 9219  16.969  14.543   6.747 -0.0311  0.1550  0.3309
66307W        W 9220  23.787   4.489  17.946  0.0008 -0.0121 -0.1105
66308W        W 9221  20.864  30.226   1.231 -0.1842  0.1231  0.1269
66309W        W 9222  14.166   6.240  25.900 -0.1557 -0.0824  0.0631
66310W        W 9223  24.496  31.194  18.597  0.1097 -0.1332 -0.0986
66311W        W 9224   5.051  23.378  20.383  0.1534  0.1016 -0.1766
66312W        W 9225   3.526  30.375   6.325  0.0909 -0.3475  0.1485
66313W        W 9226   5.610  25.684  22.373 -0.3529 -0.1862  0.0970
66314W        W 9227  16.812  24.562  21.443 -0.0609  0.3057  0.0912
66315W        W 9228   9.332  33.546   2.347 -0.2332  0.2206  0.0885
66316W        W 9229  10.610  18.431  19.474  0.4344 -0.3551  0.2734
66317W        W 9230  18.857  29.584   8.128  0.0722  0.0193  0.0534
66318W        W 9231   4.107   0.073   1.603 -0.1136  0.0225 -0.1643
66319W        W 9232  16.825  32.597  23.043  0.1312 -0.0527  0.0453
66320W        W 9233  18.047  30.432  20.685  0.1028  0.0964 -0.2779
66321W        W 9234  11.526  28.428  27.219  0.1506 -0.0341 -0.0160
66322W        W 9235  14.107  31.268   2.158 -0.0097  0.0975  0.3397
66323W        W 9236  12.605   2.231  18.674  0.0486  0.0656 -0.3101
66324W        W 9237   6.638  21.796  24.921  0.2792 -0.2608  0.1415
66325W        W 9238  10.795   4.433  20.150 -0.0732 -0.0233  0.0454
66326W        W 9239  18.626   2.125   1.400  0.2105  0.2165  0.4021
66327W        W 9240  12.396  29.844   4.774  0.1154 -0.0469 -0.0222
66328W        W 9241   9.852  33.167  25.178  0.3774  0.3153 -0.0150
66329W        W 9242  15.576  28.523  29.444  0.0832 -0.0957  0.0057
66330W        W 9243  18.159  19.748  29.656  0.2646  0.1594 -0.2540
66331W        W 9244   5.165   0.844   2.633 -0.1442  0.0288 -0.0571
66332W        W 9245   9.792  21.040  29.517  0.0436 -0.2231  0.1204
66333W        W 9246  15.028  26.285  25.757  0.2083 -0.2210  0.2677
66334W        W 9247  17.984  33.575  22.113  0.0449  0.1676 -0.1789
66335W        W 9248   9.935  16.110  21.452  0.1010 -0.0041 -0.1365
66336W        W 9249  13.421  21.125  17.659  0.0042  0.1197 -0.0565
66337W        W 9250  11.767  29.077  28.868 -0.0764 -0.2214 -0.3930
66338W        W 9251  17.742   3.298  28.769 -0.1289 -0.2360 -0.0455
66339W        W 9252  17.634  32.322  25.542  0.4153 -0.2245  0.1793
66340W        W 9253   5.500  34.212  23.255 -0.1286 -0.0127  0.2189
66341W        W 9254  10.383  31.190   4.909  0.1911  0.1902  0.4959
66342W        W 9255  10.590  22.484   0.119 -0.1895  0.0451  0.0456
66343W        W 9256  13.660   4.092  26.158 -0.0738 -0.1938  0.1686
66344W        W 9257   9.425  31.825  26.477 -0.1749  0.0973  0.3120
66345W        W 9258  12.304  20.350  29.407 -0.2867 -0.0786  0.2747
66346W        W 9259  15.627  28.483  26.134  0.1532  0.1515 -0.1960
66347W        W 9260  12.342   4.959  27.089  0.1225  0.0681 -0.0852
66348W        W 9261  20.945  16.871   2.887  0.1148 -0.3290  0.0374
66349W        W 9262  14.456  29.186   2.711 -0.0353  0.2218  0.0630
66350W        W 9263   3.715   5.246  21.747 -0.2739  0.0344  0.0856
66351W        W 9264  13.642  29.896  24.407 -0.3469 -0.0387 -0.0820
66352W        W 9265  10.786  19.491  29.482  0.0279  0.0362 -0.3547
66353W        W 9266  16.617  28.095  10.845  0.2282  0.0381  0.2026
66354W        W 9267   4.576  28.654  25.025  0.0315 -0.2704 -0.2031
66355W        W 9268  15.873  31.575  27.033 -0.0161  0.2810 -0.0360
66356W        W 9269  13.095  28.213   2.271  0.2062 -0.0550  0.3320
66357W        W 9270   5.490  29.275   0.579  0.0242  0.2770  0.1717
66358W        W 9271  33.619  20.709  19.619  0.3266  0.0510 -0.0246
66359W        W 9272   2.095   1.931   1.191 -0.0384 -0.0581 -0.1822
66360W        W 9273  26.526  31.285  16.591  0.0953  0.0084 -0.0173
66361W        W 9274  10.915  24.130  29.500  0.1380  0.1293  0.2737
66362W        W 9275   8.882  29.319   4.510  0.1099 -0.1380 -0.0555
66363W        W 9276  12.086  31.010   1.142 -0.1540 -0.0953  0.1046
66364W        W 9277   9.862  28.702   1.058 -0.2328  0.1034  0.2596
66365W        W 9278  12.130  31.313  28.257  0.0797  0.1246 -0.2700
66366W        W 9279   5.007  28.466   0.826  0.1376 -0.0262 -0.1367
66367W        W 9280   4.719  27.667  19.972  0.0399  0.0429 -0.0918
66368W        W 9281   0.220  25.160  19.924 -0.1704  0.0749  0.3222
66369W        W 9282   8.148  26.558   5.005 -0.0169  0.1735  0.1004
66370W        W 9283  23.473  21.337  21.267 -0.2535  0.1140 -0.0880
66371W        W 9284   7.770  26.785   1.861 -0.1040 -0.1863 -0.1554
66372W        W 9285   4.854  33.428   4.341 -0.0164  0.0077  0.1448
66373W        W 9286  24.890  30.062   0.896 -0.1150  0.1013 -0.0323
66374W        W 9287  18.028  29.184  25.841 -0.1530 -0.2440 -0.1819
66375W        W 9288  10.755  26.868  17.751 -0.0355  0.1029 -0.0202
66376W        W 9289   0.356   1.947  10.679 -0.2501 -0.0256 -0.0236
66377W        W 9290  16.178  30.270  26.836  0.0516 -0.1197  0.1002
66378W        W 9291   7.947  34.400   3.692  0.2709 -0.0255  0.0038
66379W        W 9292  25.073  27.095  17.796  0.1818 -0.1042  0.1174
66380W        W 9293  21.437  31.031   1.766  0.1479  0.0600  0.3270
66381W        W 9294  27.952  23.293  15.274  0.0993 -0.0824  0.0772
66382W        W 9295  15.806   7.711   5.214  0.3152 -0.0274  0.0068
66383W        W 9296   4.856   4.383  25.378 -0.0211  0.2325  0.3032
66384W        W 9297  15.648   7.332   8.611  0.3137 -0.3020 -0.3666
66385W        W 9298  26.352   6.607  27.363  0.1736  0.1678  0.0348
66386W        W 9299   9.593  28.637  21.752  0.0113  0.2561  0.0336
66387W        W 9300   6.730  21.883  22.042 -0.3006 -0.1520  0.0449
66388W        W 9301  16.008  21.257  15.304 -0.1711 -0.0391 -0.3596
66389W        W 9302  13.248   1.929  26.716  0.1252 -0.2304  0.3102
66390W        W 9303   5.016  25.007  24.595  0.2823  0.2208  0.0291
66391W        W 9304  11.631  23.981  23.035  0.2717  0.1602 -0.2220
66392W        W 9305   9.000   7.766   5.814  0.2968  0.0753  0.0166
66393W        W 9306   7.907  30.405   0.265  0.1258 -0.4213 -0.1780
66394W        W 9307   8.202  22.697  21.921  0.1559  0.1787  0.1893
66395W        W 9308  19.485  28.832  21.415  0.3474 -0.1697  0.1141
66396W        W 9309   8.653  24.029  29.024  0.0594 -0.4090  0.0722
66397W        W 9310  27.645  19.382  18.637  0.0298 -0.3284  0.1569
66398W        W 9311  12.233  29.227  20.310 -0.3114  0.1997 -0.1229
66399W        W 9312  14.607  28.056   7.953  0.0922 -0.2115  0.0266
66400W        W 9313   9.569  14.008  15.459  0.0014  0.1823  0.0134
66401W        W 9314  12.328  33.625  23.374 -0.1808 -0.1315 -0.0763
66402W        W 9315  21.748  22.431  23.166 -0.0116  0.1617 -0.0395
66403W        W 9316   0.962  32.286   1.470 -0.1374 -0.1192  0.0898
66404W        W 9317  19.568  31.713   0.734  0.1183 -0.3141  0.3422
66405W        W 9318  14.596  30.790  18.927 -0.1915 -0.1559  0.0583
66406W        W 9319  22.765  31.576  17.127  0.2400  0.3732  0.0518
66407W        W 9320   9.342   2.769   6.290 -0.2375  0.2597  0.2457
66408W        W 9321   7.383   6.938   0.706 -0.3335  0.2726 -0.0628
66409W        W 9322  18.317   3.632  14.953  0.3894  0.2270 -0.0014
66410W        W 9323   2.900  33.107  18.180 -0.0161  0.0663  0.0318
66411W        W 9324   1.422  33.568   2.719 -0.1450 -0.0948  0.1403
66412W        W 9325   4.728   3.758  28.130  0.4070 -0.4050 -0.0591
66413W        W 9326   0.686   1.562  28.116 -0.2150  0.2806 -0.0844
66414W        W 9327   8.222  21.544   1.814 -0.2147 -0.1268  0.1528
66415W        W 9328  12.030  22.888  23.323  0.1502 -0.2028  0.2583
66416W        W 9329   7.532  27.753  29.617 -0.1372  0.0324 -0.2046
66417W        W 9330   7.737  29.505  20.998 -0.1133 -0.2903  0.2596
66418W        W 9331  15.509  31.850  28.532 -0.1324  0.2758  0.1852
66419W        W 9332   7.180  22.569   8.962  0.1451 -0.0038  0.1161
66420W        W 9333   8.768   7.229   3.594  0.2788  0.1345  0.0244
66421W        W 9334  22.920  27.827   6.878 -0.0270  0.0471  0.2580
66422W        W 9335  17.906  33.988  26.040  0.1931  0.0416  0.3829
66423W        W 9336  23.087  30.484   3.333  0.2175  0.0891  0.0003
66424W        W 9337   5.374  28.925  17.632 -0.0427 -0.2068  0.2213
66425W        W 9338  29.539  25.744  17.483 -0.0204 -0.0023 -0.0907
66426W        W 9339  19.550  21.111  27.940  0.1219 -0.2291 -0.1127
66427W        W 9340  11.607  21.070   1.128 -0.3870  0.0446 -0.0586
66428W        W 9341  10.247  32.668   4.303 -0.3068  0.0693 -0.0406
66429W        W 9342  21.761  25.973  25.626  0.0017  0.0465  0.1916
66430W        W 9343  10.397  31.864  20.527 -0.2292  0.2410 -0.3671
66431W        W 9344   8.711  18.277  24.601  0.0366  0.1347  0.1177
66432W        W 9345  25.623  27.839  15.011 -0.0503 -0.1072 -0.0335
66433W        W 9346   5.319   4.029  10.198 -0.1468 -0.0015  0.2822
66434W        W 9347  19.654  28.466   0.502 -0.4113  0.1763 -0.1777
66435W        W 9348   9.284  29.079   4.200 -0.0777  0.0224  0.1734
66436W        W 9349   9.964  26.199   2.892  0.1673  0.3734 -0.0211
66437W        W 9350  14.029  21.794  22.969 -0.1075 -0.0613  0.0066
66438W        W 9351   7.201  27.668   0.289  0.0598  0.1353  0.1049
66439W        W 9352  18.477  14.192  20.896  0.1954 -0.6391  0.3850
66440W        W 9353  11.094  25.460  23.398  0.1337 -0.0084  0.0380
66441W        W 9354  22.629  32.108  29.655  0.3107 -0.2998 -0.4089
66442W        W 9355  12.279  24.693  25.190  0.2318  0.1998  0.4353
66443W        W 9356  25.211   8.425  24.018 -0.1613  0.1212  0.3342
66444W        W 9357   5.465   5.632  18.823 -0.1619  0.0217 -0.1434
66445W        W 9358  17.067  19.806   1.665 -0.1803  0.1175 -0.0757
66446W        W 9359  17.329   1.829  25.158  0.0746 -0.1157 -0.1951
66447W        W 9360  10.035  20.827  22.635  0.1749 -0.1686 -0.1916
66448W        W 9361  21.842  25.615  21.808 -0.0416  0.2377  0.0875
66449W        W 9362  10.618  23.919   0.010 -0.1587  0.0667 -0.0282
66450W        W 9363  10.124  34.080  18.285 -0.0662  0.0407  0.2107
66451W        W 9364   2.842   5.649  29.647  0.0440  0.1833  0.1421
66452W        W 9365   6.058  24.933  29.594  0.3848  0.3339  0.2786
66453W        W 9366  17.971  25.177  25.548 -0.3328  0.1654 -0.2270
66454W        W 9367  16.837  28.515  21.694 -0.0374  0.1463  0.2001
66455W        W 9368   5.512  30.195   5.448 -0.2900  0.0169  0.3159
66456W        W 9369  11.059  33.254  26.855 -0.3155  0.0609 -0.2457
66457W        W 9370  10.630  30.944  26.256  0.0331 -0.2458 -0.1309
66458W        W 9371   9.527  30.392  11.420 -0.0239 -0.1821 -0.1846
66459W        W 9372  31.865  33.011   1.434  0.1596 -0.0758 -0.1446
66460W        W 9373  19.497  22.225  26.096  0.0613  0.1398  0.0286
66461W        W 9374   1.319   2.882  28.952 -0.1570 -0.0427 -0.1336
66462W        W 9375  14.602   0.768  16.552 -0.3600  0.2342  0.1523
66463W        W 9376  11.314  33.054  28.933 -0.1001  0.1657 -0.0657
66464W        W 9377  19.351  23.164  22.746  0.1111 -0.1249  0.0329
66465W        W 9378  23.999  27.060   0.442 -0.5687 -0.1874  0.0959
66466W        W 9379   7.880  29.770  21.911  0.0520  0.0259  0.0580
66467W        W 9380   7.656   3.239  21.765 -0.0035 -0.0957  0.1123
66468W        W 9381  32.354  25.422  27.119  0.1138  0.1215  0.3908
66469W        W 9382  24.481   9.464  16.527  0.2631  0.0539  0.0189
66470W        W 9383  10.193  27.098   2.822  0.2308 -0.1222 -0.0303
66471W        W 9384  10.394  20.549  17.084 -0.0718 -0.1036  0.0387
66472W        W 9385   7.582  32.610   5.238  0.0904 -0.2077  0.1761
66473W        W 9386  33.717  19.218  25.967  0.0033 -0.2109 -0.0874
66474W        W 9387  16.525  31.412  21.784 -0.2250  0.0209 -0.4984
66475W        W 9388   6.538  28.187  24.595  0.1235  0.4035 -0.1368
66476W        W 9389   1.339  26.263  27.455 -0.1850  0.1026 -0.4644
66477W        W 9390  20.635  29.400  24.317 -0.0194 -0.2695 -0.0536
66478W        W 9391  25.658  28.839   2.823  0.0328  0.0031  0.1012
66479W        W 9392   6.795  24.205   4.378 -0.1232 -0.3375  0.0936
66480W        W 9393  16.397  32.499  22.128 -0.1508  0.0480 -0.4348
66481W        W 9394  17.260  28.094   9.000 -0.2308  0.0668  0.2505
66482W        W 9395  32.796  25.865   7.342  0.1429 -0.1099  0.1738
66483W        W 9396   1.936  10.355   0.269 -0.1686 -0.1374  0.4016
66484W        W 9397  15.454   3.329  23.687 -0.3584  0.0934  0.3547
66485W        W 9398  14.897  22.028  27.059 -0.1308 -0.0361  0.3311
66486W        W 9399   6.550   7.000  23.697  0.3366 -0.0281  0.0961
66487W        W 9400   5.938  32.505   1.566  0.0687 -0.3641 -0.1379
66488W        W 9401  12.265  13.443   4.808  0.0088 -0.0325 -0.1699
66489W        W 9402   9.957  13.887   5.559 -0.1088  0.0942 -0.0262
66490W        W 9403  10.240  32.807   3.440  0.0211 -0.0924  0.1852
66491W        W 9404  17.027  29.079  24.922  0.1803  0.2783  0.0543
66492W        W 9405   5.288  22.649  26.451 -0.3497 -0.0954 -0.0744
66493W        W 9406  20.719   0.926  22.618  0.0041 -0.0677  0.0004
66494W        W 9407  12.812  26.987  20.042 -0.1849  0.0680 -0.0834
66495W        W 9408  15.525  25.349  14.942  0.3132  0.2998  0.0562
66496W        W 9409   8.089   3.206   0.518 -0.2837 -0.3127  0.2111
66497W        W 9410  22.427  29.781  19.020 -0.1293  0.0890 -0.1948
66498W        W 9411  21.225  25.175  24.270 -0.1183  0.0961 -0.4913
66499W        W 9412  13.659  22.222  23.907  0.1385  0.0743 -0.1488
66500W        W 9413  12.939  18.454  26.142 -0.0051 -0.0269  0.1618
66501W        W 9414  18.831  30.485  23.604 -0.0719  0.1470 -0.0829
66502W        W 9415   7.292  24.731  22.523  0.2812 -0.1551 -0.3681
66503W        W 9416  13.392  27.070  22.987  0.2454  0.3565 -0.1228
66504W        W 9417  14.358  27.933   0.317  0.3875 -0.1684  0.2307
66505W        W 9418  13.736  20.797  29.348  0.2145  0.2791 -0.0114
66506W        W 9419  18.978  23.846   7.645 -0.1239  0.1442 -0.4573
66507W        W 9420  12.650  32.910  10.479 -0.1604 -0.1450  0.2347
66508W        W 9421  14.682  17.007  13.806  0.0545  0.1465  0.3411
66509W        W 9422  14.013  21.754  26.945  0.2216  0.3024 -0.1920
66510W        W 9423  15.886  14.380   3.312 -0.1724 -0.0116  0.1083
66511W        W 9424   1.325  26.605  28.738 -0.1379 -0.2476 -0.3065
66512W        W 9425   4.920  29.801  23.230 -0.1944  0.2445 -0.2053
66513W        W 9426  11.269  29.124  21.569  0.0875  0.3206 -0.1101
66514W        W 9427  10.060  20.893  21.822  0.3099  0.1600  0.2264
66515W        W 9428  17.570  24.758  26.331 -0.3031  0.2799 -0.2231
66516W        W 9429  16.078   4.386  25.133 -0.0558  0.1043 -0.0045
66517W        W 9430  11.861  23.521  22.920  0.0262  0.0878  0.2919
66518W        W 9431  13.229  25.558  17.723  0.1177 -0.2575  0.3113
66519W        W 9432  17.374  14.377  13.129 -0.0497  0.1548  0.2502
66520W        W 9433  23.831  32.175   6.020 -0.0970  0.0787  0.0401
66521W        W 9434  22.195  22.456   3.894  0.2134  0.1429  0.0427
66522W        W 9435  13.026   0.596  20.889 -0.2236  0.1020  0.1454
66523W        W 9436   5.259  25.529  18.042  0.0880  0.2016  0.0818
66524W        W 9437   4.732  28.179  26.204  0.0387  0.1924 -0.1694
66525W        W 9438  10.212  33.802   5.828 -0.0664  0.1923 -0.0957
66526W        W 9439  14.420  34.392   0.405  0.2110 -0.0156  0.0782
66527W        W 9440   3.420  20.428  17.285 -0.2274  0.0758  0.0114
66528W        W 9441   3.207  18.197  24.427  0.0261 -0.4391 -0.5261
66529W        W 9442  22.109  29.624  15.848 -0.2574  0.1848 -0.2611
66530W        W 9443   5.126  28.530  25.869 -0.3325  0.0146 -0.1302
66531W        W 9444  20.045   1.704  15.719 -0.0731  0.0277 -0.2229
66532W        W 9445  27.792   0.363  28.249 -0.2023 -0.1809 -0.1086
66533W        W 9446   7.934  30.907  22.889  0.0689  0.1978  0.0588
66534W        W 9447  16.942  27.652  10.185 -0.0161  0.3006 -0.2586
66535W        W 9448  24.543  28.977   4.294  0.3302 -0.1421 -0.0285
66536W        W 9449  11.311  25.854  24.189  0.0488 -0.1000  0.0168
66537W        W 9450   4.583  27.437   0.721 -0.0364 -0.1646 -0.1213
66538W        W 9451   9.245  32.586  23.696  0.1707  0.3913 -0.0690
66539W        W 9452  19.892   1.658   2.878 -0.0036  0.1266  0.2361
66540W        W 9453  17.524  21.901  15.726  0.0832  0.0318  0.1576
66541W        W 9454  18.342  28.077  20.607 -0.1826 -0.4405 -0.1035
66542W        W 9455   2.686  20.149  27.420  0.2561  0.3463  0.2789
66543W        W 9456  14.614  27.173  20.961  0.1766  0.2733  0.1035
66544W        W 9457  31.928  32.093  27.658 -0.4321  0.2536 -0.1591
66545W        W 9458  17.607  30.442   2.748 -0.3789 -0.5146 -0.1629
66546W        W 9459   7.035   4.445  10.517  0.0207  0.2446  0.0193
66547W        W 9460  32.740  33.917   2.921 -0.0150 -0.0496  0.0066
66548W        W 9461  14.765  32.441  11.065  0.0012 -0.0706 -0.1939
66549W        W 9462  21.285  33.094  27.031 -0.1715  0.0093 -0.0702
66550W        W 9463  11.808  30.721  26.051 -0.0557  0.0192  0.0945
66551W        W 9464   9.262  29.049  24.539 -0.2419 -0.2463 -0.1904
66552W        W 9465  18.489  24.424   2.197  0.1535 -0.5586  0.1058
66553W        W 9466   8.991  28.463  21.600  0.1952  0.2545  0.3267
66554W        W 9467   4.141   1.990  29.034 -0.2026  0.1062  0.1311
66555W        W 9468   8.386  31.719  29.672  0.2919 -0.0674  0.4126
66556W        W 9469  14.670  21.420  25.142 -0.2291  0.3716  0.1084
66557W        W 9470  13.901  32.157  28.867 -0.1495 -0.3976  0.1785
66558W        W 9471  11.868   2.939  10.460  0.1301 -0.3126  0.1214
66559W        W 9472  16.622  32.548   6.601 -0.3496  0.0515 -0.3584
66560W        W 9473  22.900  32.371   5.054 -0.0141 -0.2207 -0.1223
66561W        W 9474  10.020  33.197  23.359  0.0180 -0.1471 -0.1718
66562W        W 9475  23.207  23.022  16.803  0.1068 -0.5277 -0.0628
66563W        W 9476  17.722  23.001   6.580  0.2132 -0.0934  0.0368
66564W        W 9477   5.009   2.574   6.151 -0.1419  0.3676 -0.0376
66565W        W 9478  19.068   1.698  27.404 -0.0094  0.0417  0.4860
66566W        W 9479   8.431  17.690   1.866 -0.3813  0.3920 -0.3668
66567W        W 9480  16.338   0.247  20.105  0.2043  0.0821 -0.0558
66568W        W 9481  18.645  33.364   3.835  0.0624 -0.3553 -0.0497
66569W        W 9482   9.716  30.033  29.668  0.3020  0.3604  0.0306
66570W        W 9483  16.647  25.163   1.061  0.1038 -0.1437 -0.1742
66571W        W 9484  10.949  29.189   8.717 -0.0548  0.2229 -0.0855
66572W        W 9485   2.185  30.514   0.972 -0.1204  0.0277 -0.2186
66573W        W 9486  13.718  20.485   0.427 -0.2163  0.2794  0.1710
66574W        W 9487  12.393  24.205   1.656  0.1667 -0.2945 -0.0041
66575W        W 9488  23.018  33.719  27.019 -0.1358 -0.0457  0.1427
66576W        W 9489  10.653  27.752  22.827 -0.1499  0.4243 -0.1434
66577W        W 9490  15.630  27.009   8.137  0.1051 -0.0861 -0.0521
66578W        W 9491  15.388  26.939   2.813 -0.2709  0.2725  0.3537
66579W        W 9492  15.932  27.586  22.150 -0.2236  0.0116 -0.0290
66580W        W 9493   4.490  24.261  24.494  0.0485 -0.0909 -0.0256
66581W        W 9494  13.213  32.711   6.813 -0.0174 -0.0154 -0.0909
66582W        W 9495   8.144  27.393   1.629  0.3519 -0.2453 -0.2467
66583W        W 9496  16.780  21.912  27.967 -0.1543 -0.0608 -0.2595
66584W        W 9497  10.984  26.937   1.366  0.1706 -0.1235 -0.1654
66585W        W 9498  15.835   0.706   1.152 -0.0344 -0.1507 -0.2854
66586W        W 9499   9.048  32.653   0.266 -0.0850  0.5206  0.0764
66587W        W 9500   4.790  25.638  29.571  0.0622 -0.0756  0.1942
66588W        W 9501  23.813   0.769   5.659  0.1029 -0.0223 -0.1680
66589W        W 9502  14.534  27.825  24.880 -0.2179 -0.0375 -0.0568
66590W        W 9503  12.286   0.683  28.287 -0.0604 -0.0662  0.2045
66591W        W 9504  23.550   1.894  20.499  0.1632 -0.0588  0.3383
66592W        W 9505  14.145  18.248  22.090  0.0691  0.0435  0.0364
66593W        W 9506   5.583  29.200   2.277  0.1291  0.1559 -0.0369
66594W        W 9507  17.414  33.477   2.001 -0.1677 -0.1673 -0.2239
66595W        W 9508  22.394  31.263  16.925 -0.1847 -0.3505 -0.0461
66596W        W 9509  20.692  33.890   9.001  0.3644  0.1370  0.0642
66597W        W 9510  13.596  34.113   9.865  0.0006  0.0541  0.0608
66598W        W 9511  13.887  17.704  17.059  0.1184 -0.1502 -0.2088
66599W        W 9512   8.425  22.290   6.044 -0.2582  0.0841  0.2775
66600W        W 9513  22.812  32.008   7.227  0.2096  0.0163 -0.1112
66601W        W 9514   1.643  21.540   3.669 -0.0306 -0.0461 -0.0295
66602W        W 9515  15.974  20.145  21.877  0.0439 -0.2079  0.0865
66603W        W 9516  14.896  20.518  28.618  0.2948 -0.1506  0.0265
66604W        W 9517  13.694  33.397   7.369 -0.1108  0.1914 -0.0748
66605W        W 9518  13.783   0.460   3.657 -0.1877 -0.0316 -0.3365
66606W        W 9519   9.461  25.973  27.120 -0.0222  0.2655 -0.0428
66607W        W 9520  33.060  31.075   6.752 -0.0092  0.0759  0.2695
66608W        W 9521   9.181   2.435   0.293  0.1698 -0.2689  0.0128
66609W        W 9522   9.958  28.181  20.676 -0.0125  0.2291  0.0270
66610W        W 9523  14.374  23.980  26.649  0.1844  0.1511  0.0015
66611W        W 9524  31.310   1.303   5.903 -0.0467  0.2345 -0.0358
66612W        W 9525  13.623  29.443  17.185  0.3387  0.2424 -0.4507
66613W        W 9526  19.938   4.831  19.831 -0.2389  0.0096 -0.1269
66614W        W 9527  24.208  28.422  21.803  0.3041  0.0606 -0.1953
66615W        W 9528   8.451  28.032  20.861  0.0504 -0.1365 -0.2769
66616W        W 9529  25.230  34.485  16.472 -0.0827  0.1419 -0.2895
66617W        W 9530   9.693   3.669  26.442 -0.0984 -0.0004  0.3162
66618W        W 9531  10.970  33.971  23.010 -0.0205  0.1949  0.0712
66619W        W 9532   5.208  29.417  19.695  0.2611 -0.1004  0.0097
66620W        W 9533  22.454   2.382   3.488  0.3152  0.0487  0.0586
66621W        W 9534  16.220   0.618  18.766  0.0893  0.1014 -0.0113
66622W        W 9535   4.672  16.795  17.544 -0.0035  0.1667  0.2114
66623W        W 9536  16.571  25.413  25.742 -0.1839 -0.2189 -0.1676
66624W        W 9537  14.531  28.834  21.791 -0.2038  0.4767 -0.0647
66625W        W 9538   3.528  31.384  17.483  0.1159  0.1235  0.0349
66626W        W 9539  19.062   2.222  24.996  0.0382 -0.0899  0.0795
66627W        W 9540  18.106  30.181  23.344 -0.1732  0.0051  0.0540
66628W        W 9541   4.031  31.719  20.408 -0.0567  0.2860 -0.0831
66629W        W 9542  32.190   0.429  23.529 -0.2119  0.1687 -0.0273
66630W        W 9543   7.658  30.341  21.265  0.0037 -0.3010  0.1323
66631W        W 9544  17.153  29.574  19.350  0.0780 -0.1806 -0.0012
66632W        W 9545   6.795  22.919  14.925 -0.1527 -0.0404 -0.0757
66633W        W 9546   5.016   7.792  21.838  0.1918  0.1117  0.1376
66634W        W 9547   7.301  29.872  24.080 -0.1818  0.0759  0.1153
66635W        W 9548  13.163  31.661  22.653  0.1372 -0.1093 -0.0280
66636W        W 9549  19.875  33.199  16.027  0.0333  0.0092  0.0192
66637W        W 9550  10.243   1.475  20.407 -0.3036 -0.0382  0.1321
66638W        W 9551  21.864   6.063  26.730 -0.0471 -0.1265  0.1218
66639W        W 9552  19.627  31.353  16.871  0.2443 -0.1910  0.2958
66640W        W 9553   9.876  26.091  22.895  0.2899  0.1876 -0.0126
66641W        W 9554   8.806  32.087  20.225  0.0838 -0.0611  0.3150
66642W        W 9555  18.567  29.432  25.679 -0.2783 -0.0165  0.1836
66643W        W 9556  22.640   2.740  13.896 -0.3149 -0.1034  0.0771
66644W        W 9557  12.298   1.371  17.346  0.0880 -0.5382 -0.2786
66645W        W 9558  11.245   6.090  17.057  0.0942  0.0250 -0.0291
66646W        W 9559  11.629   3.303  20.027 -0.2611 -0.0503  0.0253
66647W        W 9560  23.095  29.286  21.306  0.0159 -0.0882 -0.2859
66648W        W 9561  19.396   7.136  21.604  0.1470  0.0954 -0.0500
66649W        W 9562   5.236  32.299  21.610 -0.0554  0.4583  0.1432
66650W        W 9563  18.115  22.668  18.337  0.0647 -0.1575 -0.2493
66651W        W 9564  21.244  32.923  15.353  0.6387 -0.2406 -0.0672
66652W        W 9565  18.998   3.951  16.344 -0.0897 -0.0970 -0.3987
66653W        W 9566  33.682  28.437  24.300  0.0164 -0.2319  0.0437
66654W        W 9567  11.418   5.804   0.579 -0.0881 -0.0649 -0.0766
66655W        W 9568   8.141  26.580  16.121  0.2678 -0.0530  0.0407
66656W        W 9569  12.594  32.830  17.878 -0.1505  0.1984  0.4311
66657W        W 9570  20.794   1.516  14.961 -0.1167  0.0275 -0.1086
66658W        W 9571   2.138  31.224  18.280  0.0262  0.2801 -0.2190
66659W        W 9572   5.691   7.718  22.138 -0.0130  0.2599 -0.0833
66660W        W 9573  12.024  31.492  24.969  0.0928  0.1715 -0.2601
66661W        W 9574  20.078  11.761  21.406  0.1065 -0.1032 -0.0940
66662W        W 9575   4.433  31.504  22.267 -0.1143  0.0142 -0.3694
66663W        W 9576  16.356  28.333  15.875  0.3411  0.1893 -0.3021
66664W        W 9577  15.031  24.669  15.013  0.0133 -0.0974 -0.1299
66665W        W 9578  20.267  32.935  18.282 -0.1474 -0.1018 -0.0421
66666W        W 9579  11.150  28.465  25.335 -0.0804  0.2070 -0.1341
66667W        W 9580  14.943  32.943  26.702  0.1610  0.0069  0.0416
66668W        W 9581  10.933   8.253  18.128 -0.1398 -0.2812 -0.0583
66669W        W 9582  24.464  31.026  23.497  0.1888 -0.0029  0.0187
66670W        W 9583   9.465   7.170   0.117 -0.2650 -0.1158  0.2638
66671W        W 9584  23.928  31.023  16.758 -0.1902  0.1270  0.1383
66672W        W 9585  18.218   4.355  22.268 -0.1670  0.4044  0.1997
66673W        W 9586   7.739  32.510  22.530  0.1215  0.1401 -0.1743
66674W        W 9587  15.449   2.790  24.356  0.1594  0.1890  0.1197
66675W        W 9588   5.100  25.838  21.258  0.3262  0.0237 -0.0263
66676W        W 9589  15.053   4.469  18.498 -0.0612  0.1684  0.0618
66677W        W 9590  18.930  30.680  15.980  0.1947  0.2869  0.1249
66678W        W 9591  30.308  33.532  15.678  0.2265  0.0926 -0.4550
66679W        W 9592  22.918  27.327  16.276  0.2875 -0.1077 -0.1266
66680W        W 9593  19.913  27.949  21.873 -0.0863 -0.0638 -0.1468
66681W        W 9594  23.995  22.771  25.476 -0.0489 -0.3664  0.0778
66682W        W 9595   6.789   2.647  26.379  0.0820  0.1739  0.3803
66683W        W 9596  12.359  32.873  22.187  0.2537  0.2127  0.2410
66684W        W 9597  23.844  34.487  16.333 -0.0418 -0.0388  0.0624
66685W        W 9598  17.243  28.894  25.340  0.1850 -0.0111  0.1271
66686W        W 9599   3.255   5.628  28.443  0.2346  0.0842  0.0906
66687W        W 9600  17.592  30.577  25.847 -0.1419 -0.0373 -0.2326
66688W        W 9601   6.467  28.267   3.478 -0.2764 -0.1866 -0.0340
66689W        W 9602  10.734   9.565  18.979 -0.0339  0.2513  0.4447
66690W        W 9603  15.807  21.786  13.878  0.4358  0.3850  0.1726
66691W        W 9604  23.980   8.477  19.467 -0.3655 -0.2062 -0.3162
66692W        W 9605  13.539   1.124  16.604 -0.0871 -0.2818  0.2264
66693W        W 9606  17.970  27.670   0.805 -0.0798  0.1876  0.0207
66694W        W 9607  20.959   6.245  29.600  0.2761  0.0361 -0.4197
66695W        W 9608  16.326  32.784  23.610  0.3280 -0.0477  0.0038
66696W        W 9609  11.561  32.944  25.414 -0.0420  0.3141  0.2056
66697W        W 9610  22.411  32.766  26.955  0.3661 -0.0438  0.0117
66698W        W 9611  18.661  29.220  16.554 -0.1029  0.5132 -0.0268
66699W        W 9612   9.843  33.952  22.783  0.1125 -0.0952  0.0558
66700W        W 9613  10.384  23.944  21.103 -0.1152 -0.0969 -0.0948
66701W        W 9614   8.912  26.493  22.672 -0.0505  0.0720 -0.1170
66702W        W 9615  12.125   6.213  17.168 -0.1647  0.4093 -0.1326
66703W        W 9616  14.391  32.169  17.157  0.1440  0.0809 -0.3859
66704W        W 9617  18.075  24.637  15.188 -0.1394 -0.3948  0.0346
66705W        W 9618  20.032  20.748  16.174  0.1221 -0.2661  0.0392
66706W        W 9619  12.773  31.404  22.537  0.2961 -0.3850  0.1871
66707W        W 9620  16.108   5.010  19.284  0.0632  0.0466  0.2038
66708W        W 9621  10.323  27.958  18.723 -0.0979 -0.1344 -0.1553
66709W        W 9622  15.975  29.499  21.647  0.0228  0.1780 -0.1472
66710W        W 9623  18.244   2.551  22.638  0.1411  0.2164 -0.4132
66711W        W 9624  21.724  33.527  14.795  0.0392 -0.0170 -0.0051
66712W        W 9625   4.529   2.112  28.623  0.1781  0.2288 -0.0891
66713W        W 9626  20.403   4.425  26.417  0.0825  0.2062  0.2127
66714W        W 9627  17.941  34.395  16.924  0.1806 -0.0169  0.0113
66715W        W 9628   2.118  29.641  19.960 -0.1690  0.0280  0.1982
66716W        W 9629  11.559   7.166  18.847  0.1001  0.0676  0.2068
66717W        W 9630  20.908   1.414  22.703 -0.1036 -0.0935  0.1094
66718W        W 9631  16.805   1.589  15.656 -0.0707  0.1014 -0.1773
66719W        W 9632  11.924   2.137  26.311  0.0160  0.2526 -0.2245
66720W        W 9633  14.224   5.680  29.248 -0.1963 -0.0200  0.2721
66721W        W 9634  13.275  29.841  19.636 -0.0774  0.0763  0.2024
66722W        W 9635  19.912  34.272  22.421  0.2296  0.0454  0.0065
66723W        W 9636  16.873  27.608  21.623 -0.3119 -0.2323  0.1231
66724W        W 9637  11.266  34.303  23.732  0.0183 -0.0910 -0.1879
66725W        W 9638  13.659  33.647  16.896  0.1846 -0.0183 -0.2205
66726W        W 9639  11.584  30.425  18.282 -0.2503  0.2036 -0.2029
66727W        W 9640  17.048  32.964  20.560 -0.2645  0.0049  0.3701
66728W        W 9641   8.100  32.718  29.020 -0.0208 -0.1961  0.0129
66729W        W 9642   9.913  31.693  21.748 -0.0728  0.0623 -0.2827
66730W        W 9643  11.562  32.756  19.063  0.2136  0.0393  0.1196
66731W        W 9644  16.643  30.287  21.925  0.1001 -0.0779  0.0531
66732W        W 9645  12.300  30.414  17.056 -0.2970  0.4623 -0.1994
66733W        W 9646  17.375  31.356  19.334 -0.2633  0.0194 -0.0624
66734W        W 9647  18.481  31.448   1.345 -0.1975  0.0364 -0.2024
66735W        W 9648  14.685  33.683  17.994 -0.1795 -0.1038 -0.3519
66736W        W 9649  17.277   0.032  17.665 -0.0749 -0.1504  0.0253
66737W        W 9650  13.069   2.128  25.383 -0.0732 -0.1633 -0.2572
66738W        W 9651  17.340   1.334  19.383  0.3402  0.2385 -0.0587
66739W        W 9652  25.968  31.242  20.659  0.1999 -0.0974 -0.1304
66740W        W 9653   8.384  27.235  26.336  0.2136  0.0371 -0.0610
66741W        W 9654  13.196  26.086  15.873  0.1116  0.2828 -0.0615
66742W        W 9655   8.728   2.802  19.115 -0.1070 -0.3711 -0.0762
66743W        W 9656   8.208  33.446  17.191  0.0917 -0.4045  0.2305
66744W        W 9657  31.529  27.060  29.444 -0.1972  0.0050 -0.0777
66745W        W 9658  16.485  33.875  16.257 -0.2732 -0.2231  0.2105
66746W        W 9659   5.567  18.354  20.136 -0.4207  0.1703  0.4243
66747W        W 9660   4.346  34.187  27.065  0.1007 -0.0281  0.2167
66748W        W 9661   3.091  29.174  24.397  0.0109 -0.1217 -0.2075
66749W        W 9662  11.597   2.072  19.752  0.1186 -0.1353 -0.0490
66750W        W 9663   5.640  31.621  21.953  0.1471 -0.1611 -0.3264
66751W        W 9664   2.780   3.737  19.139  0.1437 -0.3048 -0.1252
66752W        W 9665  11.221  31.475   0.736 -0.2439  0.2400  0.0923
66753W        W 9666   7.785  23.175  23.437 -0.1402 -0.4159  0.3035
66754W        W 9667  12.371  30.058  19.994 -0.3223  0.1401 -0.0705
66755W        W 9668   4.206  30.871  25.249  0.1791  0.1725 -0.0228
66756W        W 9669  22.200   3.496  14.311  0.1721 -0.0232  0.0604
66757W        W 9670  18.962  34.055  17.849 -0.1720 -0.2575  0.2782
66758W        W 9671  21.874  29.456  13.229  0.0371 -0.0211  0.2302
66759W        W 9672  24.572  29.855  22.045  0.2419  0.1316 -0.1236
66760W        W 9673   9.819   1.081   0.970  0.0386 -0.3020 -0.0955
66761W        W 9674  13.135   7.525  14.880  0.0622 -0.0308 -0.1292
66762W        W 9675   8.081  32.357  24.812 -0.2401  0.0753 -0.1314
66763W        W 9676  17.090   4.051  21.137  0.3512  0.1397  0.1630
66764W        W 9677   1.816  22.661  20.819  0.0579  0.0602  0.1531
66765W        W 9678  17.040  29.193  17.943 -0.0120 -0.0080 -0.1141
66766W        W 9679   7.278  28.211  20.754  0.3348  0.0602  0.3554
66767W        W 9680  21.798  33.961  26.299 -0.0387  0.0726 -0.0768
66768W        W 9681  13.580   7.988  18.234 -0.0282  0.1943  0.1204
66769W        W 9682   5.795  30.508  19.120  0.2700  0.1111 -0.0774
66770W        W 9683  21.707  33.696  18.355  0.0479  0.0447  0.1691
66771W        W 9684  15.732   1.220  19.482  0.0353  0.0798 -0.2874
66772W        W 9685  11.976   1.381  26.935 -0.1094  0.0549  0.0705
66773W        W 9686  24.779  33.855  15.621  0.1158 -0.2200 -0.1699
66774W        W 9687  16.434   1.755  19.343  0.0767 -0.0822 -0.0728
66775W        W 9688  24.871   2.593  25.618 -0.3676 -0.0049 -0.2618
66776W        W 9689  31.339  28.059  23.599 -0.3244  0.0613 -0.0452
66777W        W 9690  20.195   2.411  14.686  0.2608 -0.2942 -0.3660
66778W        W 9691  25.592   4.309  19.483  0.1894 -0.2203 -0.3148
66779W        W 9692  15.388  27.307  22.181 -0.0635  0.2193 -0.1260
66780W        W 9693  33.627   6.072  28.903 -0.1402 -0.0317  0.0679
66781W        W 9694  11.487  17.273  15.358  0.3312 -0.2651  0.1414
66782W        W 9695  19.240  23.099  19.173  0.0606  0.0041  0.0849
66783W        W 9696  20.237  28.125  16.615 -0.2529 -0.1994 -0.0950
66784W        W 9697   5.581  24.225  22.144 -0.2920  0.2942 -0.1431
66785W        W 9698  18.598  30.304  16.597  0.0780  0.2042 -0.4754
66786W        W 9699   8.387  32.120  18.118 -0.0166  0.0187  0.0088
66787W        W 9700   3.659   2.840  22.444 -0.0333  0.1506 -0.0300
66788W        W 9701  22.450  32.650  14.422 -0.2118  0.0397 -0.0545
66789W        W 9702  32.025   5.339  23.062 -0.1792 -0.1851 -0.2976
66790W        W 9703   7.917   8.298  17.556  0.1518  0.0479  0.0307
66791W        W 9704   2.296  29.377  21.387 -0.0755 -0.3489 -0.0859
66792W        W 9705   6.705   2.283  24.279  0.2775  0.0059 -0.1947
66793W        W 9706  19.159  33.906  14.686 -0.0288 -0.0685 -0.0383
66794W        W 9707  22.939  31.975  25.981  0.0271 -0.2028 -0.0115
66795W        W 9708  12.243  29.241   0.138 -0.0705 -0.0292  0.1045
66796W        W 9709  22.934   1.652  19.231  0.1760  0.1492  0.0490
66797W        W 9710  11.893  24.852  17.905  0.1572  0.0187 -0.0445
66798W        W 9711  16.787  31.345  21.328  0.0104 -0.2393 -0.2236
66799W        W 9712  11.707   1.094  25.048 -0.2739 -0.1608 -0.3190
66800W        W 9713  10.904   0.157  18.396  0.0535 -0.4993 -0.3406
66801W        W 9714  19.397   7.466  20.778 -0.0780 -0.0172 -0.1787
66802W        W 9715  18.175  32.351  20.612 -0.1993  0.0084  0.1376
66803W        W 9716   7.723  28.195   3.207 -0.0262 -0.0724 -0.1764
66804W        W 9717   5.303   7.241   1.160 -0.3432  0.1503 -0.0006
66805W        W 9718   7.714  28.919  16.116 -0.0303  0.0992  0.0430
66806W        W 9719  10.479   2.366  20.478 -0.2637 -0.0685 -0.3497
66807W        W 9720   8.626  17.310  18.797  0.0358  0.1688  0.0306
66808W        W 9721  25.713   3.907  23.641  0.1461  0.2988  0.1210
66809W        W 9722  21.520  20.779  21.909 -0.1518  0.0378 -0.0838
66810W        W 9723  25.723  22.849  12.169 -0.1958  0.1639  0.0200
66811W        W 9724   7.016  32.962  19.388  0.1110 -0.0917 -0.1012
66812W        W 9725   9.041   2.921  16.924 -0.0930 -0.1117 -0.0500
66813W        W 9726   2.396  27.684  21.846 -0.0016  0.0806 -0.1828
66814W        W 9727   7.732  21.110  16.539  0.3422  0.1529  0.1256
66815W        W 9728   4.518  33.568  16.797  0.0603  0.0397  0.2053
66816W        W 9729  12.810   4.867  28.069 -0.0760  0.2437  0.1763
66817W        W 9730  19.325  25.290  18.070  0.0092  0.0478  0.5146
66818W        W 9731   9.372  30.325  19.823 -0.0829  0.2017 -0.0254
66819W        W 9732  12.203  10.766  20.760 -0.0430 -0.0976  0.0106
66820W        W 9733  21.538  32.916  16.672 -0.0600 -0.1837  0.2018
66821W        W 9734   7.510   9.724  16.980 -0.0569 -0.0583 -0.2867
66822W        W 9735  25.835  33.574  15.871 -0.1565 -0.3362  0.0741
66823W        W 9736  11.345  33.752  17.583 -0.0765  0.1748  0.0092
66824W        W 9737  17.725  29.554  16.617  0.2387 -0.0952 -0.1479
66825W        W 9738   9.713   2.110  20.487  0.1492  0.2150 -0.0647
66826W        W 9739  14.013  32.728  27.115 -0.2522 -0.0500  0.0240
66827W        W 9740   4.679  24.117  23.539  0.1307  0.1105  0.1908
66828W        W 9741  18.091   6.879  19.096  0.1933  0.0731  0.0715
66829W        W 9742   5.586  23.975  19.149  0.0403  0.2007 -0.0740
66830W        W 9743  18.072   5.509  17.888 -0.2548  0.0131  0.1997
66831W        W 9744   0.811   5.621  17.896  0.2345  0.0432 -0.0230
66832W        W 9745   4.543   3.420  21.733  0.4264 -0.0769 -0.0119
66833W        W 9746  14.391   0.147  20.202  0.0550 -0.2954  0.0646
66834W        W 9747  18.597  25.888  24.086 -0.0354  0.0120  0.1460
66835W        W 9748  20.401   3.290  28.729  0.0912 -0.1028 -0.2480
66836W        W 9749  11.382  33.918  19.096 -0.1877  0.2506  0.1230
66837W        W 9750  10.593  33.808  19.496 -0.0021  0.3008 -0.1394
66838W        W 9751  17.387   3.398  19.044  0.3235  0.0544  0.0526
66839W        W 9752  15.241   0.151  16.850  0.0043 -0.3262  0.1443
66840W        W 9753   5.876  26.243  20.475  0.2354  0.2988  0.1903
66841W        W 9754  14.141  30.462  16.533  0.0872 -0.0255  0.0145
66842W        W 9755  15.470   5.020  27.721 -0.1409 -0.0993  0.0162
66843W        W 9756  17.424  29.404  19.782 -0.2088 -0.0697 -0.3061
66844W        W 9757  22.724   0.377  14.660  0.1563  0.0321  0.2293
66845W        W 9758  11.038  23.043  17.083  0.0972  0.2011  0.0137
66846W        W 9759  17.396   0.109   8.368  0.2211  0.0061  0.1431
66847W        W 9760  20.311   1.997  18.900  0.0110  0.3081  0.3571
66848W        W 9761  18.121   0.474  29.377  0.3158  0.5931 -0.0432
66849W        W 9762   3.902  32.013  15.940 -0.3551 -0.1714 -0.0136
66850W        W 9763  15.326  32.372  16.657 -0.3805 -0.0287 -0.0734
66851W        W 9764  18.463  30.118  24.788 -0.1006  0.3506 -0.1977
66852W        W 9765  18.125  32.902  21.971  0.1845 -0.2397  0.1369
66853W        W 9766  20.152  27.058  19.518 -0.2541 -0.3714 -0.1320
66854W        W 9767  20.393  30.215  17.165  0.0959 -0.1949  0.0843
66855W        W 9768  10.837  33.885  24.444  0.1201  0.2350  0.0983
66856W        W 9769  11.065  26.551  27.583  0.0197 -0.2803  0.2882
66857W        W 9770  10.432  26.123  24.832  0.0634 -0.1015 -0.2805
66858W        W 9771  10.335   2.846  23.374 -0.1372 -0.0497  0.2618
66859W        W 9772  15.655  28.875  18.969 -0.3240 -0.0438 -0.1339
66860W        W 9773  17.324  34.230   3.066 -0.0520 -0.0527  0.2242
66861W        W 9774  11.034  28.074  22.823 -0.2057 -0.1318 -0.1938
66862W        W 9775  12.661  26.658  17.993  0.0598  0.3744 -0.1447
66863W        W 9776   7.292  27.655  17.380 -0.2548 -0.0863  0.2170
66864W        W 9777  13.740   5.253  15.646 -0.0837 -0.0704  0.0884
66865W        W 9778  24.362   2.155  23.566 -0.1985 -0.0756  0.0564
66866W        W 9779  11.132  34.449   2.431  0.2658  0.0754  0.0222
66867W        W 9780  14.155   0.357  16.192  0.0042 -0.2512 -0.2474
66868W        W 9781  22.690  28.263  13.406 -0.4349  0.1021  0.0312
66869W        W 9782  14.479  33.632  28.712 -0.5561  0.2257 -0.0451
66870W        W 9783  10.942  28.638   0.385  0.0085  0.0405  0.2165
66871W        W 9784  19.762   3.367  16.118 -0.1547  0.0851  0.1844
66872W        W 9785  10.776  27.447  27.682 -0.0452  0.3705 -0.2838
66873W        W 9786   7.113  24.994  19.585  0.1202 -0.1017  0.0677
66874W        W 9787  24.409  20.976  16.945  0.2227 -0.2886 -0.4828
66875W        W 9788  18.652  23.796  22.955 -0.0815  0.0676  0.1286
66876W        W 9789   9.236   1.189  25.202 -0.3305  0.3035 -0.2108
66877W        W 9790  20.554  29.203  21.456  0.0216  0.3325  0.2887
66878W        W 9791   8.192  30.491   3.701  0.1200  0.0722 -0.1261
66879W        W 9792  12.355   8.522  23.937  0.0433 -0.0425 -0.0628
66880W        W 9793   4.754  30.941  17.118 -0.0625  0.0159  0.1266
66881W        W 9794  26.673  33.869  21.021 -0.0172 -0.1659  0.2164
66882W        W 9795   0.278   9.584  16.358 -0.3893  0.1258  0.0685
66883W        W 9796  12.069  23.598  17.827  0.0163  0.2771  0.1315
66884W        W 9797   0.054   0.901  22.656  0.2729 -0.0419 -0.0100
66885W        W 9798  14.655   5.432  17.757 -0.0455 -0.4565 -0.1442
66886W        W 9799  13.004  31.742   4.811 -0.0530  0.4107  0.4928
66887W        W 9800   2.966  29.354  17.625 -0.2264  0.1271  0.1910
66888W        W 9801  17.365  28.112  15.245 -0.0602 -0.0775 -0.0771
66889W        W 9802   4.810  25.076  21.924 -0.1971  0.0437  0.0733
66890W        W 9803   5.227  11.816  27.020  0.0075 -0.2831 -0.1158
66891W        W 9804   3.342  32.344  21.432 -0.1295  0.0265  0.2998
66892W        W 9805  13.029  30.930   1.328 -0.0549 -0.2427  0.0056
66893W        W 9806  13.612   2.698  21.547  0.0216 -0.0228  0.1566
66894W        W 9807  14.932  32.008  20.058 -0.1202  0.2328 -0.0414
66895W        W 9808  16.060  11.335  22.019 -0.0609  0.1459 -0.1027
66896W        W 9809   9.006  27.241  17.819 -0.1507  0.0368 -0.1256
66897W        W 9810  16.643   4.197   4.417 -0.0051  0.1898 -0.2228
66898W        W 9811  26.581   9.838  25.144 -0.0186 -0.3931 -0.0928
66899W        W 9812  20.549  31.743  18.191  0.2411 -0.1849 -0.4017
66900W        W 9813   7.942  27.109  20.070  0.1172 -0.0984 -0.0139
66901W        W 9814  18.302   4.210  23.392  0.1333  0.2344 -0.4395
66902W        W 9815  10.900  26.055  20.190 -0.1231  0.0653  0.0048
66903W        W 9816   3.877  29.720  19.216 -0.1366  0.1030  0.2195
66904W        W 9817  12.986  12.438  14.530 -0.0684  0.0872  0.0790
66905W        W 9818  15.837   0.904  28.369  0.0504 -0.3952 -0.0267
66906W        W 9819  24.665  12.136  23.843 -0.2624 -0.3029  0.1626
66907W        W 9820  28.008  13.965  17.248  0.0489 -0.3386  0.1736
66908W        W 9821  24.167  31.352  20.365 -0.2871 -0.1288 -0.0934
66909W        W 9822  15.022   4.358  28.033 -0.0549  0.4315 -0.2497
66910W        W 9823  34.044  28.380  25.865 -0.3155 -0.0978  0.0716
66911W        W 9824  15.264   1.930  17.853 -0.2835 -0.0318  0.2332
66912W        W 9825  15.433  32.899  27.656  0.0818  0.1446  0.6303
66913W        W 9826   8.477   3.788  17.741  0.0407 -0.0025  0.1850
66914W        W 9827   1.142   0.735  21.010  0.1130 -0.2102  0.0298
66915W        W 9828   5.573  22.504  17.373 -0.3096  0.1222 -0.1304
66916W        W 9829   6.648   5.739  20.152  0.0325 -0.0314  0.2205
66917W        W 9830  16.227   8.185  22.716 -0.1239  0.0732  0.1161
66918W        W 9831  13.148   2.152  18.050  0.2062 -0.0157 -0.0699
66919W        W 9832   0.657   9.221  24.148  0.0575  0.1456  0.2173
66920W        W 9833  18.971   3.905  18.630 -0.1601 -0.0641 -0.1053
66921W        W 9834  11.164  27.246  17.957  0.1741  0.0996  0.1867
66922W        W 9835  20.089  32.047  14.888 -0.0005 -0.2134  0.2823
66923W        W 9836  13.886  29.865  22.152  0.1746 -0.1686  0.2106
66924W        W 9837  18.176  26.390  25.392  0.1118 -0.2241 -0.2874
66925W        W 9838   4.757  30.939  16.268 -0.0848 -0.2945  0.0126
66926W        W 9839   9.375   0.177  21.458 -0.0052  0.1789  0.0462
66927W        W 9840  10.303  19.278  16.311  0.0351 -0.2367  0.1681
66928W        W 9841   2.853  27.316  28.589  0.0117  0.0465  0.1984
66929W        W 9842  13.236   2.346  28.772  0.2071 -0.0276  0.4359
66930W        W 9843  20.046  31.365  26.510  0.1891  0.1660 -0.2369
66931W        W 9844  16.139  25.677  22.431 -0.1188 -0.0779 -0.2272
66932W        W 9845  17.612  28.915  21.996  0.1447 -0.1730  0.2489
66933W        W 9846  17.045   6.217  29.539 -0.2485  0.2219  0.1325
66934W        W 9847  12.353  32.722  16.102 -0.1874 -0.2684  0.0432
66935W        W 9848  15.677  29.832  18.443 -0.0879  0.1590 -0.1338
66936W        W 9849  17.742   2.883  17.670 -0.1719 -0.0690 -0.1097
66937W        W 9850  20.350   8.664  19.503 -0.0995 -0.2122  0.0733
66938W        W 9851  24.958   0.774  15.585  0.3657 -0.1380  0.2263
66939W        W 9852  11.653  27.542  15.850  0.1047 -0.3661 -0.1602
66940W        W 9853  15.443  30.192  25.200  0.0864 -0.0074 -0.2823
66941W        W 9854  25.177   5.480  19.857  0.1861 -0.1667 -0.0746
66942W        W 9855  18.657  27.047  22.744 -0.2029 -0.1027  0.1094
66943W        W 9856  16.751   2.862   0.465 -0.2522  0.0296 -0.2073
66944W        W 9857   5.584  33.362  21.066  0.3268 -0.0662  0.1701
66945W        W 9858  21.326  33.566  17.971 -0.0559  0.1266  0.3260
66946W        W 9859   6.027  25.332  17.722  0.0893  0.0012 -0.1464
66947W        W 9860  12.368  31.600  26.897 -0.0859 -0.2789 -0.0140
66948W        W 9861  21.622  32.236  26.694 -0.0244  0.2305  0.3082
66949W        W 9862  10.225  32.385   0.874  0.2969  0.0130 -0.1844
66950W        W 9863  25.795   9.592  21.461  0.0471 -0.2302  0.0387
66951W        W 9864  20.897  32.468  16.519  0.1500  0.0606  0.0480
66952W        W 9865  25.835  34.307  20.303  0.1550 -0.2414  0.2691
66953W        W 9866  13.249  30.157  27.779  0.0544  0.3273  0.3029
66954W        W 9867  19.352  30.598  21.621  0.2033 -0.1826  0.2040
66955W        W 9868  17.315  33.939  19.627  0.0203 -0.0673  0.0926
66956W        W 9869  16.515  31.118  15.310  0.4243 -0.2507  0.3432
66957W        W 9870  12.515   2.575  19.796  0.2522 -0.1259 -0.0337
66958W        W 9871  14.937   5.278  15.267 -0.3425  0.0445  0.3033
66959W        W 9872  12.230   0.282  17.943 -0.1347 -0.1760  0.1457
66960W        W 9873  16.069  10.423  18.444 -0.0044  0.3189 -0.2928
66961W        W 9874  11.256  26.745  21.930 -0.0807 -0.0422 -0.1487
66962W        W 9875   8.252  10.756  22.956 -0.2621  0.1216  0.5902
66963W        W 9876   3.958   5.885  27.099  0.1709 -0.0244  0.1723
66964W        W 9877   9.553  30.227  16.240  0.1909  0.0037 -0.1536
66965W        W 9878  16.883  34.330  21.343  0.2257 -0.3442 -0.1553
66966W        W 9879   5.673  10.403  18.811 -0.0051  0.1430  0.0293
66967W        W 9880  11.962  23.195  18.120 -0.3541 -0.0477  0.0203
66968W        W 9881   9.172  32.344  25.895 -0.3288 -0.1332 -0.3942
66969W        W 9882  10.777  32.078  24.076  0.0684  0.0913 -0.0782
66970W        W 9883  15.117  25.283  24.768 -0.0409 -0.3422  0.1648
66971W        W 9884   7.151  32.666  21.676 -0.0164  0.1579  0.2323
66972W        W 9885   2.870  29.033  22.603 -0.1403  0.1780 -0.1837
66973W        W 9886  21.448  27.458  21.330 -0.0806 -0.2857 -0.1373
66974W        W 9887  15.649  30.169   9.003  0.0620 -0.2542 -0.2085
66975W        W 9888  17.120  25.791  16.653 -0.0291 -0.1381  0.3019
66976W        W 9889  14.075  25.134  15.844 -0.3253 -0.1227 -0.0833
66977W        W 9890  11.339  33.885  28.269  0.2689 -0.1026 -0.1089
66978W        W 9891  14.799  34.092  27.992 -0.2162 -0.2033  0.1020
66979W        W 9892  12.916  24.456   1.168  0.2721  0.0589  0.2676
66980W        W 9893  16.325  32.993  15.415 -0.1473  0.1680  0.2914
66981W        W 9894  12.146  31.511  26.460  0.2473  0.0221 -0.0921
66982W        W 9895  18.572  32.753  21.267 -0.1021  0.0197  0.0523
66983W        W 9896  18.614  25.134  20.616  0.1552 -0.0094  0.1866
66984W        W 9897   8.761  26.949  22.323 -0.5075 -0.1214 -0.1886
66985W        W 9898  20.380  33.292  21.595  0.0792  0.2099 -0.0873
66986W        W 9899  15.270  34.352  28.827 -0.0453 -0.0984 -0.3025
66987W        W 9900   2.792   1.113  26.914  0.0127 -0.4168 -0.3207
66988W        W 9901   4.584  25.607  21.330  0.0577  0.1580  0.3134
66989W        W 9902   2.142  33.968  16.123  0.0720 -0.3133  0.0292
66990W        W 9903  13.859  34.158  19.382 -0.1858  0.4181 -0.1639
66991W        W 9904  12.096  31.341   3.782  0.4781  0.1593  0.0881
66992W        W 9905  28.331   3.208  18.315  0.2006 -0.0033 -0.3064
66993W        W 9906   6.739  26.390  19.133 -0.2760 -0.0093 -0.1701
66994W        W 9907  11.509  32.361  16.928  0.0010 -0.2887 -0.0786
66995W        W 9908  17.328   4.899  21.185 -0.3258 -0.1491  0.0530
66996W        W 9909   6.820  30.010  23.406 -0.3783  0.0122  0.0288
66997W        W 9910  10.303  31.962  24.417  0.2493  0.0439  0.1062
66998W        W 9911  16.938   6.176  25.739  0.1032 -0.1064 -0.2995
66999W        W 9912   1.234  32.076  19.646 -0.1913  0.1574 -0.0468
67000W        W 9913  17.644  26.505  16.081  0.0365  0.0280 -0.0003
67001W        W 9914  13.655  28.946  23.843 -0.0130 -0.2227  0.0722
67002W        W 9915  25.073  27.890  24.120 -0.4116 -0.1615  0.5334
67003W        W 9916  15.978  24.560  25.612  0.1160 -0.1619 -0.0803
67004W        W 9917  14.617  28.057  23.498  0.0937 -0.0137 -0.1392
67005W        W 9918  14.863  26.869  18.580  0.1648 -0.0719  0.0205
67006W        W 9919  14.344  31.030  19.284  0.0313  0.2966  0.1509
67007W        W 9920  17.352   0.849  15.498  0.1103 -0.1793  0.0939
67008W        W 9921   5.492  29.252  27.621  0.3856 -0.0530  0.4494
67009W        W 9922  14.485   7.788  14.886  0.2948  0.0080 -0.1506
67010W        W 9923  10.107   0.041  20.113  0.0422  0.1776 -0.0688
67011W        W 9924  15.806   1.471  29.478  0.1150 -0.0668  0.0932
67012W        W 9925   0.913  14.299  25.908 -0.1662  0.0701 -0.1090
67013W        W 9926   6.840  25.228  18.185  0.2791 -0.2814  0.1277
67014W        W 9927   0.349  21.664  22.087  0.1619  0.1202  0.1435
67015W        W 9928   7.176  28.692  18.236  0.1702 -0.0104 -0.0687
67016W        W 9929  15.296   0.402  16.113 -0.0872 -0.2343  0.2793
67017W        W 9930   4.041  28.951  28.234 -0.2426 -0.0623 -0.2838
67018W        W 9931  15.357  33.259  15.476  0.4199  0.2846 -0.2195
67019W        W 9932  17.653  27.557  24.488 -0.1097 -0.4152  0.1045
67020W        W 9933  15.991   0.213  20.729  0.0479  0.3937 -0.2362
67021W        W 9934   7.743  32.689  21.757 -0.0617  0.0204  0.1298
67022W        W 9935   6.623   3.251  20.301  0.0161 -0.3506 -0.1721
67023W        W 9936  16.649   5.188  19.547 -0.1458 -0.0058 -0.2294
67024W        W 9937  16.757   4.841  17.306 -0.2025 -0.2273  0.0144
67025W        W 9938  13.140  28.977  23.604 -0.1653 -0.0242 -0.1363
67026W        W 9939  23.919  31.082  17.732  0.1371 -0.0747 -0.3609
67027W        W 9940  17.345  28.878  16.704  0.0909  0.1413  0.0067
67028W        W 9941  14.175   7.229  16.604 -0.1445 -0.0187  0.1790
67029W        W 9942   5.804  30.215  24.736  0.0627  0.1775 -0.1492
67030W        W 9943   9.078   0.200   2.812  0.0304 -0.1603  0.0831
67031W        W 9944  12.645  32.644  18.381  0.0297 -0.1597  0.2326
67032W        W 9945  12.596   2.533  20.354 -0.2013 -0.0443  0.3384
67033W        W 9946  31.926   6.191  28.138  0.1045  0.0922 -0.0664
67034W        W 9947  19.653  22.878  13.458  0.2757 -0.2555 -0.3370
67035W        W 9948  10.542  21.033   1.896  0.0354 -0.0550  0.1393
67036W        W 9949   8.916   2.918  25.106 -0.1772  0.0271  0.0942
67037W        W 9950   6.552   1.249  21.801  0.2965  0.1636 -0.3127
67038W        W 9951   6.763   2.391  29.388 -0.1204  0.5444 -0.0141
67039W        W 9952  20.846   6.355   0.277  0.0413  0.1286  0.2436
67040W        W 9953   5.483  28.323  18.833 -0.3490  0.1420 -0.1661
67041W        W 9954   8.580  27.766  26.311  0.0083  0.1514  0.3379
67042W        W 9955  11.802  33.942  29.557  0.3927 -0.0056  0.0608
67043W        W 9956  10.700  27.158  22.514 -0.0128 -0.2543  0.1344
67044W        W 9957  10.878   3.979  20.037  0.2541 -0.2410  0.1124
67045W        W 9958  30.323  28.694  22.087 -0.4518 -0.1925  0.1990
67046W        W 9959   8.948   0.056  22.300  0.2490  0.2170 -0.0599
67047W        W 9960   4.367   0.304  26.031  0.0069  0.1395  0.0709
67048W        W 9961  26.135  16.346  18.446 -0.1157  0.2050 -0.0814
67049W        W 9962  26.966  30.797  24.179  0.3297 -0.0614 -0.0284
67050W        W 9963  20.058  30.235  22.060  0.3003 -0.0118 -0.1575
67051W        W 9964  14.659   7.765  23.207 -0.2691  0.3487 -0.2020
67052W        W 9965  20.237   3.259  16.216  0.4939  0.1381  0.0157
67053W        W 9966  26.849  30.752  23.251  0.0141 -0.1147  0.2957
67054W        W 9967  17.445  30.574  23.904 -0.0687  0.1692 -0.3922
67055W        W 9968   3.653   1.140  22.806 -0.1038  0.1344  0.0454
67056W        W 9969   8.749  24.209  20.374 -0.0181  0.1609 -0.1352
67057W        W 9970   5.974  32.766   4.109 -0.0098 -0.1259  0.3058
67058W        W 9971  12.948  31.385  28.693 -0.0030 -0.1731 -0.0246
67059W        W 9972  21.428   0.062  13.649  0.0471 -0.1301 -0.1538
67060W        W 9973  15.812  27.700  24.716  0.0740 -0.2805  0.0721
67061W        W 9974  14.185   0.410  16.753 -0.1893 -0.0807  0.1460
67062W        W 9975   8.625  23.549   2.721  0.2761  0.1689  0.0723
67063W        W 9976  17.625  24.741  13.519 -0.1736  0.2238  0.2419
67064W        W 9977  14.245  23.943  21.023 -0.2796 -0.0723 -0.3543
67065W        W 9978  14.296  31.927  27.168 -0.0107 -0.0783  0.0011
67066W        W 9979  10.219  25.280  24.975 -0.2431  0.0056 -0.0573
67067W        W 9980  23.203   2.871  22.159  0.1304 -0.0402 -0.1522
67068W        W 9981  13.598  30.243   1.299  0.2781 -0.1786  0.2082
67069W        W 9982  16.894   3.980   2.605 -0.1458  0.1252 -0.2190
67070W        W 9983   4.271  31.291  24.303  0.1504  0.3304 -0.2674
67071W        W 9984  12.764  30.166   5.067  0.0943  0.1054 -0.0439
67072W        W 9985  19.317  30.357  20.176 -0.0012 -0.4064 -0.0611
67073W        W 9986   9.306   2.900  26.679  0.2856 -0.1498 -0.1402
67074W        W 9987   8.796   1.988   7.237 -0.1621 -0.1936  0.1452
67075W        W 9988  32.133  29.802  16.583 -0.0171 -0.0452 -0.1782
67076W        W 9989  14.404   1.229  24.400 -0.0803 -0.1067  0.0765
67077W        W 9990  14.080  31.946  17.790  0.1188  0.1245  0.1439
67078W        W 9991  13.529   3.808  18.826  0.0286  0.0636  0.0709
67079W        W 9992  11.294  32.543  25.608  0.1848 -0.3291 -0.1535
67080W        W 9993  33.284   3.449  17.444  0.0976 -0.0737 -0.0720
67081W        W 9994  15.475   0.753  17.893  0.0589 -0.1289 -0.0787
67082W        W 9995   4.163  30.817  21.415  0.0110  0.1222  0.5299
67083W        W 9996  18.086  32.730  24.815  0.2154  0.1201 -0.2001
67084W        W 9997  10.162   5.581  28.854  0.2192 -0.1554 -0.1763
67085W        W 9998  16.590  27.770  20.816 -0.0941 -0.3028 -0.1934
67086W        W 9999  19.877   0.208  25.404 -0.0339 -0.2001 -0.2609
67087W        W10000  10.883   3.517   0.469 -0.2295  0.1069 -0.0825
67088W        W10001   9.396  32.843  21.124 -0.0619 -0.0924  0.0421
67089W        W10002  10.505  28.095  28.164  0.1153  0.4553  0.0681
67090W        W10003  10.862  22.145   1.470  0.0212  0.0710 -0.1019
67091W        W10004  15.070  33.732  17.729  0.0197  0.0359 -0.1921
67092W        W10005   9.647  29.224  18.925  0.2431  0.1166  0.0534
67093W        W10006  12.682  24.306  29.502  0.3445  0.3316 -0.1045
67094W        W10007  10.817   6.086   2.456 -0.0416 -0.4022  0.2321
67095W        W10008   0.926  31.398   3.233 -0.0553 -0.1319 -0.2316
67096W        W10009  17.003  29.679  27.087  0.0262  0.1819 -0.1477
67097W        W10010   6.105  19.589  23.469  0.0821  0.0760 -0.0464
67098W        W10011   3.318   0.054  18.387  0.1020 -0.0376 -0.0807
67099W        W10012   9.809   2.432  22.647  0.1932 -0.1510 -0.1415
67100W        W10013  16.611  24.038   5.482 -0.0302 -0.1197 -0.2515
67101W        W10014  31.087  31.540  18.021  0.1645  0.0858  0.0159
67102W        W10015   8.638  22.350  21.668 -0.0217  0.2274  0.0683
67103W        W10016  18.389  28.188  27.668 -0.0472 -0.0942 -0.1447
67104W        W10017  17.647  31.918  20.559 -0.1814  0.1960  0.1529
67105W        W10018   8.929  24.642  20.228 -0.0283  0.1192 -0.0762
67106W        W10019  15.124  27.836  17.912  0.2073  0.0508 -0.6280
67107W        W10020   4.149  30.027  28.869  0.1569 -0.0708  0.0131
67108W        W10021  15.210  18.118  24.955  0.0674 -0.0152  0.3333
67109W        W10022   5.855   1.114  25.495  0.2581 -0.1874 -0.1848
67110W        W10023   6.321  25.914  26.381  0.1787  0.1114  0.0600
67111W        W10024  11.702  21.801  25.833  0.1805 -0.2887 -0.1289
67112W        W10025   3.662   1.202  17.180 -0.0901 -0.0947 -0.2789
67113W        W10026  12.211  28.475  19.705  0.1816  0.0293  0.0871
67114W        W10027  20.732  31.525  27.276 -0.0629  0.0881 -0.1850
67115W        W10028  20.460  27.990  23.790  0.2708  0.0766  0.0023
67116W        W10029  20.330  24.971  28.264 -0.1765 -0.0014 -0.2460
67117W        W10030   6.645  28.260   1.283  0.0170 -0.2422 -0.0700
67118W        W10031   4.974  29.865   1.541  0.0209  0.0097  0.2647
67119W        W10032  14.718  27.642  25.713  0.2406 -0.2525 -0.2900
67120W        W10033   5.143  28.007  20.827 -0.0183  0.0902  0.1437
67121W        W10034  11.561  24.382  19.733  0.1401  0.1053  0.1454
67122W        W10035   3.306  28.673  20.598 -0.0173  0.3182 -0.1604
67123W        W10036  16.947   1.601  25.514  0.3635 -0.0927 -0.0430
67124W        W10037  14.947  34.219  16.473 -0.2504  0.1062  0.1924
67125W        W10038  12.508  32.452  20.904  0.2501 -0.0671  0.2923
67126W        W10039   9.414  30.783  19.446  0.2859  0.1196 -0.3237
67127W        W10040  13.859  27.644  16.703 -0.2221 -0.2295  0.0347
67128W        W10041   7.597  34.295  22.408  0.0163 -0.1443  0.0974
67129W        W10042  14.783  33.322  17.586  0.2266  0.1666 -0.2845
67130W        W10043  20.944  30.378  22.882 -0.0872  0.0841  0.2484
67131W        W10044   9.856  20.381  28.052 -0.2400  0.0773  0.2687
67132W        W10045  11.755  28.480   2.262 -0.1284 -0.0619  0.0739
67133W        W10046   6.972  30.535  20.847 -0.1924 -0.2272  0.2985
67134W        W10047  11.628  25.430  23.458  0.1600 -0.0339 -0.1744
67135W        W10048  10.141  30.935  20.768 -0.1125 -0.2589  0.0204
67136W        W10049  12.933  28.624  24.526 -0.1299  0.2767  0.0110
67137W        W10050  11.572  34.300  29.227 -0.0259  0.0026  0.0412
67138W        W10051  23.711   8.501  15.374  0.0243  0.2450  0.1671
67139W        W10052  17.680   4.078  29.063 -0.0613  0.0331  0.2193
67140W        W10053   8.835  23.270  19.292  0.1153  0.3349  0.0751
67141W        W10054  14.505   1.471   8.802 -0.0209 -0.0558 -0.0928
67142W        W10055   9.546   1.942  25.651 -0.2761 -0.1488  0.1197
67143W        W10056  12.073  31.288  17.048  0.0417 -0.3394  0.2629
67144W        W10057   7.071  30.259  21.243 -0.1616 -0.0327 -0.1183
67145W        W10058   0.763  31.787   2.295 -0.0337 -0.1146  0.2236
67146W        W10059  13.796   1.479  23.754  0.1053 -0.4176  0.4245
67147W        W10060   4.748  26.719  21.415  0.0071 -0.0586 -0.2916
67148W        W10061   2.147  24.032  25.384 -0.1122 -0.0665 -0.4791
67149W        W10062   8.275   3.920   1.646 -0.0897  0.3251 -0.0471
67150W        W10063  19.084   2.359   4.244  0.1553 -0.2322  0.1518
67151W        W10064  22.297  11.334  21.554 -0.0231  0.0386 -0.0531
67152W        W10065  25.117  29.866   2.096  0.2053 -0.1116 -0.0073
67153W        W10066  27.949  26.337  28.036  0.0137  0.0494  0.2196
67154W        W10067  28.241  24.066  24.459 -0.0866  0.2339  0.2212
67155W        W10068  10.471  26.760  20.655  0.3312 -0.2123  0.0195
67156W        W10069  19.591  20.991   1.811  0.0230 -0.3467  0.4919
67157W        W10070  10.602   2.720  23.831  0.0854  0.1650 -0.3850
67158W        W10071   1.149   0.301   1.199  0.0303 -0.1445 -0.0470
67159W        W10072   5.407  23.172   1.394  0.0725 -0.1108 -0.1807
67160W        W10073  25.846  31.516  25.770 -0.0261 -0.1082 -0.2337
67161W        W10074  13.662  31.168  22.264  0.2378  0.3534  0.0446
67162W        W10075  19.775  32.017  15.999 -0.2527  0.1172 -0.1711
67163W        W10076  11.537   4.700  22.004 -0.0307  0.0070  0.0782
67164W        W10077  14.978   2.342  28.931  0.1708  0.1270  0.0688
67165W        W10078  11.982  23.810   2.667 -0.1398  0.0395  0.0032
67166W        W10079  15.189   3.428   8.397  0.1363 -0.0761 -0.1799
67167W        W10080  13.201  33.294  19.544  0.1078 -0.0253  0.0020
67168W        W10081   3.186  23.192  27.432  0.0100  0.0695  0.2501
67169W        W10082   7.215  16.506   7.404 -0.3509  0.3997  0.1020
67170W        W10083  13.094   3.327  26.749 -0.0197 -0.2709  0.1841
67171W        W10084  11.370   1.453  26.415  0.1310 -0.1592  0.0829
67172W        W10085  15.271  24.869  25.598  0.0969 -0.0911  0.2467
67173W        W10086   9.020  19.383  20.748  0.2919 -0.0826 -0.2890
67174W        W10087  32.762  32.015  21.911  0.0293 -0.2843  0.1689
67175W        W10088  10.332  23.323  27.424 -0.0264 -0.1369 -0.1580
67176W        W10089  10.347   1.861  23.715 -0.2974 -0.3197  0.0634
67177W        W10090  11.419  32.528  28.856 -0.0125 -0.3023  0.3188
67178W        W10091   8.390  28.349  17.177 -0.0218 -0.1227 -0.1618
67179W        W10092  15.768  22.181  22.411 -0.0116  0.3315 -0.1971
67180W        W10093  13.516  29.336  21.479 -0.0571 -0.1040  0.1498
67181W        W10094   8.941  21.380  24.139 -0.1075  0.0198 -0.0348
67182W        W10095  15.694   0.221   0.981  0.3087 -0.1136 -0.3758
67183W        W10096  12.435  27.635  26.225 -0.2512 -0.2909  0.1684
67184W        W10097  22.339  32.354  25.767  0.1731  0.0424 -0.5125
67185W        W10098  21.603  27.258  21.861  0.1868 -0.1938 -0.1037
67186W        W10099  22.667  32.674  24.051  0.1376  0.1867 -0.0106
67187W        W10100  10.540  22.923  15.859  0.2056  0.0435 -0.0311
67188W        W10101  16.514  23.666  27.909  0.3514 -0.1208 -0.0080
67189W        W10102  26.978   1.797  28.291  0.0765 -0.1644  0.1933
67190W        W10103  13.126  30.790  25.556  0.1856  0.0679  0.0008
67191W        W10104   1.516   5.775   3.476  0.3674 -0.0825  0.0604
67192W        W10105   5.590  29.741  27.607 -0.1560  0.1000  0.1433
67193W        W10106  12.120  28.865   1.744  0.0694 -0.0567 -0.0298
67194W        W10107   2.004  34.170  27.160  0.0478  0.0431 -0.0783
67195W        W10108  21.425  31.299  14.712  0.0315  0.0538  0.2330
67196W        W10109  22.156   1.789  26.655 -0.0231  0.4140 -0.0120
67197W        W10110  23.572  32.433  24.729  0.1389  0.1594 -0.1393
67198W        W10111  14.691  30.779  23.367 -0.1844  0.3266  0.0830
67199W        W10112   2.846   8.740  18.133 -0.2010 -0.0455  0.0614
67200W        W10113   9.244  23.028  26.808 -0.0390  0.2345  0.0490
67201W        W10114  13.547  22.026   3.437 -0.1987 -0.3640 -0.0266
67202W        W10115  25.571  28.095  26.649  0.1057  0.0081  0.2380
67203W        W10116  15.616   2.459  21.928 -0.2632 -0.2159 -0.1763
67204W        W10117  22.480  30.913  15.831  0.1129 -0.2160 -0.1477
67205W        W10118  13.688  27.023   1.957  0.0043 -0.1998  0.1088
67206W        W10119   6.729  27.796  18.276  0.2819  0.1963  0.1638
67207W        W10120  19.542   1.615  27.490 -0.1261  0.0022 -0.0220
67208W        W10121   7.181  32.533  18.868  0.3263 -0.1359  0.1704
67209W        W10122  19.229  33.838  29.226  0.1452 -0.1036 -0.3162
67210W        W10123   8.469  24.358  23.387 -0.0324 -0.1460 -0.0648
67211W        W10124  20.978   1.292  22.151 -0.1205  0.0703 -0.2464
67212W        W10125  12.330  32.482  20.396  0.1454 -0.0178  0.0972
67213W        W10126  11.161   8.515  17.434  0.2000 -0.0397 -0.2374
67214W        W10127   5.294   4.821  23.169  0.3477 -0.0233  0.0125
67215W        W10128  14.994   1.070  28.324  0.0247 -0.0053  0.0427
67216W        W10129  17.263  27.689   1.016 -0.1405  0.0304  0.0855
67217W        W10130  11.369  32.113  18.057 -0.1729 -0.1250 -0.0599
67218W        W10131   9.280  31.292  21.377 -0.1177  0.1481 -0.3436
67219W        W10132  19.779  25.866  28.261  0.1098  0.0071  0.2240
67220W        W10133   9.492  12.811  23.585  0.0588 -0.1944 -0.1545
67221W        W10134  16.388  23.364  26.280 -0.1492  0.3256 -0.3012
67222W        W10135  21.399   6.130  17.864 -0.3040  0.1416  0.0862
67223W        W10136  14.937  25.057   0.904  0.2534  0.0312 -0.4571
67224W        W10137  17.190  20.592  27.110  0.2117 -0.3141 -0.2168
67225W        W10138  17.782  31.328  24.929  0.1019 -0.0310 -0.2712
67226W        W10139  27.121  32.173  26.386  0.1728 -0.2004 -0.1329
67227W        W10140  12.306   7.381  18.006  0.2756  0.2621 -0.0274
67228W        W10141  18.695  29.298  19.237 -0.0955  0.3933  0.1239
67229W        W10142  12.430  30.521  18.581  0.1021 -0.2941  0.0650
67230W        W10143  20.816  24.638  23.777  0.3180 -0.2853  0.0361
67231W        W10144  16.793  33.505  16.642  0.0221 -0.1013 -0.0503
67232W        W10145  18.408  31.468  20.993 -0.0246  0.1480  0.0428
67233W        W10146   7.254  29.982  27.440  0.2412  0.3711 -0.0851
67234W        W10147  10.152   1.254  17.023 -0.0186  0.0541  0.0814
67235W        W10148  18.754   4.845  22.814 -0.0117  0.1832  0.2436
67236W        W10149   5.124  23.381  21.842 -0.0466 -0.5061  0.0173
67237W        W10150   6.949  30.776   6.690  0.0027 -0.1180  0.3431
67238W        W10151  13.140  25.908  24.834 -0.2004 -0.3205 -0.2957
67239W        W10152   6.030  33.727  22.787  0.2760 -0.2109  0.0749
67240W        W10153   9.572  23.781  26.392 -0.2177  0.0994 -0.0341
67241W        W10154  15.209  22.062  27.423 -0.0453  0.0022  0.0501
67242W        W10155  15.164  33.248   2.559  0.4723 -0.1775 -0.0722
67243W        W10156  14.403  33.860  15.997 -0.1972 -0.1719 -0.0749
67244W        W10157   8.441   2.439  21.674  0.2199  0.2429  0.0603
67245W        W10158  18.748  22.658  19.660 -0.1727  0.1644  0.1176
67246W        W10159   5.410   7.504  17.558 -0.0123  0.3230 -0.1040
67247W        W10160  13.075  20.568  26.831  0.1984  0.0267 -0.4081
67248W        W10161  33.738  19.049   1.526 -0.2364  0.3638 -0.1022
67249W        W10162   7.389   2.041  26.713 -0.1015 -0.2749 -0.0223
67250W        W10163   8.871  26.961  22.883 -0.2386 -0.0040 -0.1128
67251W        W10164  18.124   0.189  18.433  0.0162 -0.0431 -0.0673
67252W        W10165  10.943  28.670   1.910  0.1198 -0.0671 -0.2635
67253W        W10166   6.847  27.301  21.047 -0.2176  0.1837 -0.3415
67254W        W10167  15.769  28.359   0.102 -0.0490  0.1095 -0.1919
67255W        W10168   9.376   6.707  19.632 -0.2244 -0.1128 -0.1408
67256W        W10169   9.211   2.904  22.048 -0.3248  0.1116  0.1480
67257W        W10170  16.956  34.043  24.926 -0.0445 -0.0355 -0.0038
67258W        W10171  11.635  34.049   0.365  0.0843  0.0631  0.5109
67259W        W10172   8.077  34.467  24.047  0.0361 -0.0083 -0.2152
67260W        W10173  11.207  34.068  25.978  0.1218 -0.1616 -0.1652
67261W        W10174  16.898  25.483  25.137 -0.2170 -0.0693 -0.2174
67262W        W10175  13.287   7.182  29.385 -0.0737  0.1597 -0.5494
67263W        W10176   4.349  31.594  19.561 -0.0095 -0.0484 -0.2107
67264W        W10177  13.419  30.426  24.654 -0.1274  0.0091  0.2583
67265W        W10178  15.463   5.204  19.116  0.2060  0.0953  0.2562
67266W        W10179  10.849  28.291  23.705  0.1068 -0.3626  0.0213
67267W        W10180  26.370  33.088  29.121 -0.0339  0.0330  0.2908
67268W        W10181  16.238  24.878   1.279  0.0219 -0.0815 -0.0147
67269W        W10182  10.772  26.080  24.325 -0.1086  0.0523 -0.2775
67270W        W10183  12.469  30.305  25.753  0.1556 -0.2027  0.0379
67271W        W10184   7.770  28.976   9.187 -0.1290 -0.4449  0.0944
67272W        W10185   9.387   5.661   4.983 -0.2760 -0.3695  0.2885
67273W        W10186  19.225   4.164  23.641 -0.1042  0.1455 -0.1447
67274W        W10187   8.144  30.188  25.615 -0.1522 -0.2075 -0.4201
67275W        W10188   5.766  26.716  18.770  0.2056  0.0091 -0.2918
67276W        W10189  14.739   0.573  24.586 -0.1863 -0.2196 -0.0153
67277W        W10190  17.635  28.442  22.152  0.1806  0.0276 -0.1442
67278W        W10191  20.187  25.842  17.160 -0.2522  0.2076 -0.1005
67279W        W10192  32.670  33.271  29.774  0.0423 -0.0761 -0.2049
67280W        W10193  12.414  29.870  21.131 -0.2001  0.0206  0.0779
67281W        W10194  32.903  23.829  19.487 -0.2959 -0.0763  0.1960
67282W        W10195   7.927  31.919   3.588  0.1070 -0.0687 -0.0776
67283W        W10196  18.884  25.022  23.478  0.2964  0.3001 -0.0662
67284W        W10197  15.055  28.104   4.132  0.0866  0.0528  0.4066
67285W        W10198  20.905   2.312  26.848 -0.3087  0.1911 -0.2984
67286W        W10199  20.649  32.088  27.398  0.1006 -0.0439 -0.4062
67287W        W10200  10.241  32.496  11.901  0.0260  0.2840  0.3033
67288W        W10201  15.463  29.101  28.795  0.3399 -0.1393 -0.3208
67289W        W10202   8.676  28.910  28.942  0.2693 -0.0890  0.2299
67290W        W10203  31.149   2.187  11.593  0.4180  0.0735 -0.0267
67291W        W10204  16.845  33.159   7.439  0.1189  0.1163 -0.4056
67292W        W10205  17.512  24.357  19.409  0.0179 -0.1196 -0.1536
67293W        W10206   3.780  16.250  28.399  0.0186 -0.1348 -0.1536
67294W        W10207  10.316  25.455  25.935 -0.0122 -0.4003 -0.2428
67295W        W10208  20.869   4.091  23.646  0.0591  0.2140  0.0222
67296W        W10209  13.537   3.350  19.497 -0.1826 -0.1463  0.0049
67297W        W10210  10.988  34.131   5.428 -0.0034  0.0925 -0.0499
67298W        W10211  10.329  26.503  27.772 -0.0846 -0.1020 -0.0568
67299W        W10212  32.446   3.158  29.531  0.1136 -0.3572 -0.0544
67300W        W10213  17.308  14.625   7.142  0.3254  0.0176  0.3687
67301W        W10214  15.024   6.366  16.133  0.2748  0.0573 -0.2196
67302W        W10215  19.728  31.600  20.470 -0.1480  0.1537  0.0424
67303W        W10216  17.116  10.436  28.764 -0.2034  0.0203  0.2157
67304W        W10217  13.268  32.251   0.227 -0.1094  0.2756 -0.1354
67305W        W10218  11.315  32.509  21.652  0.0213 -0.1530  0.0207
67306W        W10219  20.089  27.325  13.428 -0.1611  0.1532  0.0333
67307W        W10220  14.698  22.453  26.258  0.2032 -0.3309 -0.2672
67308W        W10221  11.598  30.650  26.508  0.2365  0.0338 -0.2861
67309W        W10222  10.617  23.727  24.390  0.0372 -0.2082  0.3495
67310W        W10223   8.948  31.111  29.284  0.1590  0.0726  0.0533
67311W        W10224  10.963  28.116   3.981  0.1450 -0.0097 -0.3725
67312W        W10225  25.271  24.885  24.997  0.1202  0.0178  0.2966
67313W        W10226  21.458   3.354  27.078 -0.1948  0.0847 -0.1451
67314W        W10227   6.456  25.697  24.595  0.1269 -0.1373  0.2208
67315W        W10228   9.424   3.482   4.409 -0.0170  0.2790  0.1298
67316W        W10229  18.435  30.861  28.877 -0.2396 -0.0838 -0.0318
67317W        W10230  11.020  28.266  28.246  0.1620  0.1073  0.1548
67318W        W10231  15.743   4.555   1.967 -0.1074 -0.0699 -0.2429
67319W        W10232  19.550   2.875  27.396 -0.1155  0.4421  0.0365
67320W        W10233   8.446  32.770  16.968  0.2359 -0.0317  0.1074
67321W        W10234  19.241   3.553  10.634  0.3288 -0.0211 -0.1344
67322W        W10235  24.273  12.964  25.146  0.1292 -0.0016  0.0899
67323W        W10236   9.585  31.942  22.146  0.1570 -0.2355 -0.0813
67324W        W10237  18.821   9.836   2.562  0.0787  0.1655 -0.1547
67325W        W10238   8.894  32.870  24.898  0.0760 -0.3495 -0.3912
67326W        W10239   3.203  27.928  25.137  0.2398 -0.1473 -0.1287
67327W        W10240   7.852  21.900   7.120  0.4203 -0.0660  0.3073
67328W        W10241  13.156  21.813  26.549  0.0752 -0.2739  0.1462
67329W        W10242   6.688   8.093   9.686 -0.2827  0.0136  0.0628
67330W        W10243   3.511   5.616  26.836  0.1097 -0.1421 -0.2681
67331W        W10244  15.926  31.909  17.580 -0.1801 -0.0967 -0.1023
67332W        W10245  11.566  33.304  26.937 -0.1276  0.3340 -0.2824
67333W        W10246  11.885  27.326  20.780  0.2739  0.1666  0.1327
67334W        W10247  14.580  24.307  23.791  0.1559  0.0549  0.2756
67335W        W10248   2.833   1.404  23.845 -0.4770 -0.0773  0.2548
67336W        W10249  24.525  15.340  16.164 -0.1016  0.1332 -0.1705
67337W        W10250  20.714  23.768  29.679 -0.1523 -0.2081  0.0944
67338W        W10251  31.612  25.117  26.714  0.0514 -0.3776  0.0020
67339W        W10252  10.273  29.164  10.970  0.0323 -0.0908  0.0284
67340W        W10253  12.493  20.879  23.854 -0.0580 -0.0078  0.1277
67341W        W10254  32.720   0.812   9.037 -0.1651  0.2248 -0.1461
67342W        W10255  17.769  33.846  25.565  0.0815  0.1613  0.5000
67343W        W10256   7.402   2.154   3.680 -0.1703  0.1929 -0.0556
67344W        W10257  12.495  29.901   0.104  0.1356 -0.0347 -0.0028
67345W        W10258  11.118  33.176  22.049 -0.0445  0.0421  0.1753
67346W        W10259  15.064  30.731  29.010  0.0114  0.2555 -0.2944
67347W        W10260  19.087   1.614  17.484  0.1650 -0.0163  0.0100
67348W        W10261  24.455  28.731   8.637  0.4338  0.0790  0.0176
67349W        W10262   0.642  32.553  28.057  0.2731  0.2284  0.2091
67350W        W10263   8.084  28.236  22.811 -0.1514 -0.2065  0.0991
67351W        W10264  15.514  31.444   1.311 -0.2203 -0.1202  0.1322
67352W        W10265   9.631  33.890  27.195 -0.3930  0.1465 -0.0818
67353W        W10266  21.219  14.230  13.939 -0.1064  0.1169  0.1555
67354W        W10267  10.160   4.391   3.477 -0.0440  0.0399 -0.4823
67355W        W10268   9.226  32.574  20.598  0.1838 -0.3830 -0.1964
67356W        W10269  17.308   3.874   4.796  0.5755  0.1204 -0.2945
67357W        W10270   3.061   8.690  28.374  0.0077 -0.0201  0.0135
67358W        W10271  13.250  29.057   7.928  0.0321  0.0206 -0.1914
67359W        W10272  16.488  22.496  25.483 -0.1652 -0.1360 -0.2451
67360W        W10273  16.516  32.770  24.964  0.2445  0.1701 -0.1072
67361W        W10274  14.470   0.269  29.365  0.0012  0.0768 -0.1801
67362W        W10275   4.716   6.050   4.224  0.1319  0.2395  0.1599
67363W        W10276   4.367   1.080  27.753 -0.3163  0.3532  0.0807
67364W        W10277  12.296   6.067  25.472  0.0093  0.0696  0.0430
67365W        W10278  16.124  26.257   9.580 -0.1683  0.5528  0.0540
67366W        W10279  20.232  10.823  28.277 -0.2174  0.1875 -0.2009
67367W        W10280   8.205  21.207   1.424 -0.1566  0.0413  0.2657
67368W        W10281   3.353  34.033   0.343  0.0676 -0.0178  0.1674
67369W        W10282   6.389  11.574  21.277  0.1385 -0.2128  0.0583
67370W        W10283   8.117  31.385  22.983 -0.0684  0.0156 -0.1230
67371W        W10284  10.263  31.650   7.606 -0.1452 -0.4187  0.0728
67372W        W10285   9.636  28.315  19.806  0.0616  0.0453 -0.0882
67373W        W10286  29.588   2.698   3.392  0.1153 -0.0313 -0.0615
67374W        W10287  17.012   2.926   1.956 -0.1464  0.4209  0.3025
67375W        W10288   3.304  20.331   3.431 -0.2282 -0.4063 -0.0614
67376W        W10289   4.446  32.394  27.916  0.1127  0.0696 -0.1472
67377W        W10290   9.212   0.399  29.130 -0.0603  0.1976 -0.1250
67378W        W10291  15.870  24.221  16.961 -0.0847 -0.0939  0.1099
67379W        W10292  14.101  34.252  24.591  0.2304 -0.2493  0.3107
67380W        W10293  14.835  25.971  23.160 -0.1355 -0.0136 -0.1474
67381W        W10294   5.658   0.024   3.077  0.0395  0.0805 -0.5151
67382W        W10295  14.610  17.739  16.780  0.3723  0.0613  0.0140
67383W        W10296  16.339   3.487   3.764 -0.2138  0.0756  0.1079
67384W        W10297  11.908  29.957  23.036  0.1894  0.0162  0.1391
67385W        W10298   8.201   8.498   2.303  0.0655 -0.0394 -0.1741
67386W        W10299   1.070   1.564  22.642 -0.3983  0.1156 -0.2943
67387W        W10300  10.406  30.585  27.264  0.0493  0.1008  0.3178
67388W        W10301  33.589   2.563  27.422  0.0795  0.1390  0.0675
67389W        W10302  23.229  16.787  15.097  0.1398 -0.1216  0.1693
67390W        W10303  14.098  23.627  26.800  0.2934  0.2434  0.1439
67391W        W10304   9.905  24.676   0.826 -0.3834  0.1910 -0.1119
67392W        W10305  16.452  28.221  21.629  0.0691 -0.0198  0.3199
67393W        W10306   4.044   2.470  11.804  0.2520 -0.1853  0.0120
67394W        W10307  31.539  13.377  29.689  0.3691  0.2836 -0.0263
67395W        W10308  11.794  29.320  23.999 -0.0536  0.0401 -0.0578
67396W        W10309  17.717  33.033   5.332 -0.0509 -0.1353 -0.2043
67397W        W10310  20.517  23.621  14.507  0.0413  0.0191  0.1836
67398W        W10311  12.332  32.550  24.720 -0.1971  0.2742  0.0935
67399W        W10312  10.168  28.731  29.484 -0.0418 -0.2127  0.1637
67400W        W10313   6.560  31.644  18.795 -0.1893  0.0529  0.0739
67401W        W10314  10.826  30.166   0.104  0.0277 -0.2308  0.0497
67402W        W10315   5.171  18.464  23.375  0.1489  0.2938 -0.0282
67403W        W10316  12.134  19.315  29.133  0.0260 -0.0228  0.0087
67404W        W10317  31.191  19.458  28.898 -0.0104  0.0981  0.1444
67405W        W10318  30.013   3.855   4.854 -0.0627 -0.0803 -0.3685
67406W        W10319   7.873   9.645   8.467  0.4315  0.2826  0.0235
67407W        W10320   8.609   1.533   4.204  0.1955  0.0814 -0.3532
67408W        W10321   8.795   6.188  21.497 -0.2588  0.1569 -0.0570
67409W        W10322  25.991  15.111   0.705 -0.0162 -0.1949  0.1192
67410W        W10323  24.791  23.835  18.196  0.1471  0.1343  0.0811
67411W        W10324  19.267   4.273  20.337 -0.0337  0.3606  0.0371
67412W        W10325  24.802  22.972  21.483  0.0082 -0.0106  0.1260
67413W        W10326  18.977   1.166   2.696  0.0325  0.1531  0.0812
67414W        W10327  11.608  28.195  24.846  0.1746 -0.0986  0.3840
67415W        W10328   5.654  23.715  29.021 -0.0262  0.1100 -0.0354
67416W        W10329   2.781  30.757  22.897  0.2458 -0.0919  0.0127
67417W        W10330  16.055   5.626   0.299 -0.1975 -0.0675  0.1060
67418W        W10331   6.320  32.996  28.629  0.2595 -0.2596  0.0030
67419W        W10332  34.080  33.949   4.078  0.0522 -0.2971  0.0092
67420W        W10333   9.833   7.861  24.884  0.1330  0.0566 -0.2942
67421W        W10334   5.561   0.308   0.662 -0.1782 -0.0948 -0.1418
67422W        W10335   6.573   3.012  27.228  0.0000  0.0177  0.0608
67423W        W10336  13.335  24.473  23.004 -0.0858  0.0018  0.0170
67424W        W10337   3.857  28.413  28.378 -0.1781 -0.2234  0.1866
67425W        W10338  14.922  29.099  21.478 -0.1441 -0.2139  0.1192
67426W        W10339  31.118   7.146  23.980 -0.0340 -0.3317  0.0104
67427W        W10340   1.739  26.846  29.437 -0.0706  0.1274 -0.3583
67428W        W10341  14.740  23.054  21.193  0.2579 -0.0282  0.2742
67429W        W10342  31.723  23.435  26.169  0.3068 -0.1552  0.2470
67430W        W10343  15.622  30.478  28.462  0.1036  0.0225 -0.4312
67431W        W10344   3.971   2.712   7.863  0.1762 -0.1969 -0.0569
67432W        W10345  15.259   1.380   3.789  0.2382 -0.0303 -0.1767
67433W        W10346  10.461  30.490  26.093  0.0960 -0.0608 -0.0114
67434W        W10347  12.907  27.539  25.891 -0.4742 -0.0848 -0.1875
67435W        W10348   9.025  29.070  20.376 -0.0188 -0.3110 -0.0119
67436W        W10349   8.515   2.551  24.240 -0.1354 -0.0672  0.5649
67437W        W10350   5.990  25.574   3.612 -0.1419 -0.1834 -0.0909
67438W        W10351   8.246  33.283  26.932 -0.1304 -0.0114  0.2281
67439W        W10352  12.305  16.405  29.476  0.1248  0.2119 -0.1932
67440W        W10353  21.797  30.922  29.594 -0.2887  0.0169  0.0694
67441W        W10354  32.369  20.627  22.047  0.2288  0.1711 -0.1798
67442W        W10355   5.135   0.027   7.096 -0.0287  0.2141 -0.3169
67443W        W10356  12.898  27.625   0.367  0.4311  0.0124 -0.2508
67444W        W10357   7.256  30.507   0.340 -0.2047 -0.0316 -0.3107
67445W        W10358  10.612  26.274  17.030  0.0861 -0.0735 -0.0204
67446W        W10359  24.122  30.587  23.453 -0.2887 -0.0509  0.2120
67447W        W10360   9.799  29.712  23.398 -0.5253 -0.0506  0.0612
67448W        W10361   9.295  31.934  19.258 -0.2391  0.0193 -0.2240
67449W        W10362   9.723  29.708   0.268 -0.0007 -0.0268 -0.0608
67450W        W10363   7.104  27.633  27.828 -0.3497 -0.2113  0.2661
67451W        W10364   6.175  25.100  29.185 -0.1861 -0.2174 -0.0712
67452W        W10365  10.281   4.806   9.032 -0.2712  0.0838 -0.2301
67453W        W10366   1.343  17.575  21.684 -0.0343 -0.0286 -0.0801
67454W        W10367   9.059  27.486  21.238 -0.0404 -0.2836  0.2462
67455W        W10368   8.100  22.211   0.255  0.3383  0.1861 -0.1365
67456W        W10369  14.204  13.706   6.114  0.0755  0.2382  0.0363
67457W        W10370   7.822   1.550  23.335 -0.0737  0.0493 -0.0633
67458W        W10371   3.979  26.479   0.368  0.0037 -0.2045 -0.1573
67459W        W10372   6.192  22.736  26.359 -0.0311  0.1814 -0.3165
67460W        W10373  16.948  24.559  25.530 -0.0500 -0.0274 -0.0150
67461W        W10374  14.589   1.823  25.227  0.0768  0.1204 -0.2559
67462W        W10375  12.800   4.431   6.470  0.0351 -0.1412 -0.2368
67463W        W10376  16.529  24.979  27.330  0.3704  0.0891  0.1687
67464W        W10377  11.565  23.714  28.179 -0.0088 -0.2888  0.0570
67465W        W10378   9.620   0.503   6.260  0.1532 -0.1418  0.0427
67466W        W10379  16.633   7.320   4.789  0.0274  0.2764  0.1212
67467W        W10380  20.562   1.471  13.912 -0.0198 -0.0767  0.2699
67468W        W10381   7.118   0.812  23.543 -0.1896 -0.2903  0.0658
67469W        W10382  18.711   4.812   0.534 -0.1120  0.0705 -0.1095
67470W        W10383  15.322  18.905  25.259  0.0996  0.1813 -0.1118
67471W        W10384  10.100  25.164  19.572  0.2122 -0.0476 -0.1214
67472W        W10385  12.177  29.547  26.301 -0.0790 -0.3165  0.3380
67473W        W10386   3.751   3.907  18.129  0.3196  0.1203 -0.3381
67474W        W10387  12.112  28.089  26.684  0.2966 -0.0332  0.0630
67475W        W10388  24.979  31.943   2.178 -0.4154  0.0862 -0.1239
67476W        W10389  34.101  25.201  29.649 -0.4324 -0.2671  0.2331
67477W        W10390  15.210   5.363   3.867  0.0548  0.0352  0.2237
67478W        W10391  15.935   2.252   1.405  0.0264  0.0815 -0.2182
67479W        W10392  17.649  28.343  26.625 -0.2554  0.3065  0.1153
67480W        W10393   5.902  33.416   2.220 -0.2667 -0.1533 -0.0564
67481W        W10394  10.425   2.062  28.576  0.3457  0.1069 -0.1104
67482W        W10395  22.361   7.781   7.043  0.0881  0.1086 -0.0574
67483W        W10396  16.074   6.508   3.704  0.2812 -0.4519  0.0997
67484W        W10397  11.253  30.339   2.544  0.4210 -0.1196 -0.2292
67485W        W10398   5.306  30.087  24.902 -0.0547 -0.2147 -0.0421
67486W        W10399  17.405  26.228  16.912 -0.1698 -0.2991 -0.3974
67487W        W10400  16.051  34.256  27.764  0.0457  0.1436 -0.3317
67488W        W10401  18.491   3.767   0.070 -0.2382  0.0098  0.0687
67489W        W10402  14.561   2.919   9.553 -0.1839  0.0249  0.1098
67490W        W10403   3.745   2.093   9.140  0.1160  0.3729 -0.0009
67491W        W10404  12.354  32.033   8.533 -0.1748  0.1227 -0.3361
67492W        W10405  19.738  28.384  19.671 -0.1583 -0.1649  0.0741
67493W        W10406   9.114  26.739  29.236 -0.1824  0.0050  0.2499
67494W        W10407   8.956   0.823  20.309 -0.1727  0.1908 -0.0954
67495W        W10408   9.512   1.896  26.647  0.0432  0.0817 -0.0027
67496W        W10409  16.235   4.399  28.285  0.0399 -0.2185 -0.0163
67497W        W10410   6.704  10.063  22.877 -0.0095 -0.1054  0.1458
67498W        W10411  13.970  24.006   0.363 -0.1562  0.2257  0.1925
67499W        W10412  32.171  26.831   2.843  0.0394  0.0232  0.0512
67500W        W10413  15.486  28.890  26.578 -0.0957  0.2041  0.3774
67501W        W10414  20.217  23.753  29.636  0.0759 -0.0506  0.1481
67502W        W10415  18.903   0.197  28.903  0.1039 -0.3071 -0.1487
67503W        W10416  18.119  31.129  21.751 -0.1360 -0.1182  0.0835
67504W        W10417   4.391   9.628  27.165  0.1941 -0.1394  0.0663
67505W        W10418   6.838  22.109  14.603 -0.0318 -0.0271  0.2177
67506W        W10419   8.971   7.159   4.867  0.0899 -0.1798 -0.2260
67507W        W10420   6.032  31.688  23.107 -0.0539 -0.0793  0.0546
67508W        W10421  11.225  11.958  25.695  0.3236 -0.0156  0.4346
67509W        W10422  12.245  23.981   9.265 -0.0174 -0.0003 -0.3600
67510W        W10423  12.798   2.666  28.765 -0.1675  0.3429  0.1414
67511W        W10424  11.020   7.641   4.586 -0.0575  0.3325  0.1413
67512W        W10425  18.049  32.634  25.829  0.2787 -0.0827 -0.0963
67513W        W10426   7.854  12.853  22.516  0.0871  0.1809  0.0909
67514W        W10427  15.120   1.292  17.221 -0.0146 -0.1536  0.2040
67515W        W10428  25.100   9.475  17.646 -0.0275  0.0180 -0.1205
67516W        W10429  16.799  31.686  16.226 -0.2159 -0.0321  0.0935
67517W        W10430  24.127  30.778  14.328 -0.0991  0.1372  0.0269
67518W        W10431  14.852  32.480  19.840 -0.2488 -0.3173  0.2280
67519W        W10432  14.295   4.603  16.212  0.0089  0.0716 -0.0341
67520W        W10433  19.001  27.295  15.119 -0.0648 -0.0646  0.3313
67521W        W10434  22.309  26.322  18.013 -0.0441 -0.1501 -0.0849
67522W        W10435  17.855  31.380  27.467 -0.0633  0.0926  0.0989
67523W        W10436  17.230   0.311  14.785 -0.0158 -0.0185  0.0090
67524W        W10437  23.575  29.346  12.359 -0.3074 -0.2224  0.0887
67525W        W10438  14.880   8.067  21.274 -0.3154  0.1053  0.3706
67526W        W10439  14.922   9.871  16.581  0.2521  0.2897  0.1805
67527W        W10440  18.077  11.846  13.307 -0.4265  0.3183  0.0451
67528W        W10441  22.217   4.331  17.102 -0.2016  0.0722  0.1629
67529W        W10442  14.878   3.275  19.631  0.1140 -0.0309  0.1178
67530W        W10443   9.191   3.112  17.985  0.0679 -0.1408  0.0744
67531W        W10444  20.056   3.338  17.089  0.0838 -0.1721  0.2874
67532W        W10445  33.697   1.125  19.510  0.0381  0.1388  0.1554
67533W        W10446  14.144  23.670  16.568  0.3022 -0.2055 -0.1804
67534W        W10447   9.971  28.826  19.521  0.0126  0.1869  0.2251
67535W        W10448  12.713   8.107  15.596 -0.0665  0.1085  0.1498
67536W        W10449   7.677  11.916  18.998 -0.0571  0.1532 -0.2252
67537W        W10450  13.593   0.626  23.349 -0.0179 -0.2656  0.1072
67538W        W10451  24.816   1.132  18.300 -0.0555  0.1544 -0.0132
67539W        W10452  18.959   9.542  22.036 -0.1637 -0.0183 -0.0873
67540W        W10453  19.665   7.898  14.919 -0.0310 -0.2053 -0.1947
67541W        W10454  15.749   9.002  19.530  0.2977 -0.0028 -0.2388
67542W        W10455  16.987  33.833  27.058  0.1118 -0.4250  0.0591
67543W        W10456  13.987  33.800  16.245  0.0925  0.2439 -0.4178
67544W        W10457   9.515  23.104  19.527  0.1364 -0.0349  0.0741
67545W        W10458  16.915   4.574  15.263  0.1460 -0.0022 -0.3648
67546W        W10459  21.796  29.758  16.757  0.1370  0.2790 -0.2100
67547W        W10460  10.304   8.074  21.773 -0.1720 -0.0333 -0.0805
67548W        W10461  17.950   5.607  18.878  0.2505  0.0134 -0.0764
67549W        W10462  14.679  28.985  23.916 -0.1532  0.1429  0.0261
67550W        W10463  21.793   2.726  17.448  0.1373  0.0247  0.2391
67551W        W10464  23.686   2.457  23.686  0.0346  0.2994  0.1406
67552W        W10465  32.077  31.635  17.160  0.0132 -0.1830  0.0301
67553W        W10466  14.922  32.557  20.793 -0.1250  0.0860  0.1504
67554W        W10467  26.324  32.143  17.994 -0.5318  0.3696 -0.0003
67555W        W10468  26.461  26.987  28.404  0.0273 -0.0968  0.3778
67556W        W10469  22.137   1.241  18.487 -0.0140  0.1208  0.1257
67557W        W10470  22.485   5.698  19.387 -0.4468 -0.0757 -0.2359
67558W        W10471  20.297  26.891  18.800  0.1573  0.1709 -0.0772
67559W        W10472  15.564  32.388  17.141 -0.0326  0.2237  0.2619
67560W        W10473   2.972  26.867  23.318  0.2947 -0.1295  0.0935
67561W        W10474  20.475   0.304  20.338 -0.0234 -0.1818 -0.4022
67562W        W10475  33.867   5.093  16.399  0.1815  0.1810 -0.2353
67563W        W10476   8.715   0.967  18.480  0.0135 -0.1242 -0.2468
67564W        W10477  20.951  29.663  24.072 -0.1223  0.0548 -0.0158
67565W        W10478  20.608  31.721  17.021  0.0120 -0.0001 -0.3089
67566W        W10479   6.891   7.021  16.793 -0.0051  0.2445 -0.2383
67567W        W10480  12.863   2.681  23.929  0.0655  0.2467  0.1207
67568W        W10481  23.474   3.896  23.686  0.2140  0.2991 -0.1107
67569W        W10482  22.570  29.506  22.890 -0.2670 -0.1761 -0.1655
67570W        W10483  17.216  32.668  21.489 -0.1657 -0.0712 -0.1597
67571W        W10484  18.429  33.384  24.381 -0.0447 -0.1002  0.4058
67572W        W10485  26.934   1.255  18.285  0.0639 -0.3060  0.0089
67573W        W10486  22.214  25.521   1.151  0.0424  0.1032 -0.2163
67574W        W10487   6.000  33.398  24.751 -0.3608 -0.1400  0.2115
67575W        W10488  17.377   1.186  16.167 -0.2344 -0.0584  0.0300
67576W        W10489  10.261   1.871  19.685 -0.1114  0.0220  0.1192
67577W        W10490  13.074   0.215  18.323 -0.0503  0.1002  0.0896
67578W        W10491  12.549   6.818  16.055  0.2471  0.2434  0.1871
67579W        W10492  28.608   7.590  17.296 -0.0784  0.0057  0.0768
67580W        W10493  12.411  10.298  17.181  0.1331  0.0066 -0.0857
67581W        W10494  14.209  33.929  25.216  0.0268 -0.3249 -0.0084
67582W        W10495  22.339  19.010  16.107  0.4830  0.3093  0.3387
67583W        W10496  26.103  11.836  15.435  0.1845 -0.1425 -0.2248
67584W        W10497  21.104  23.276  16.206  0.0113  0.0274  0.1126
67585W        W10498  30.285  24.781  18.046 -0.3016  0.0744 -0.0105
67586W        W10499  23.140   7.150  13.839 -0.1514  0.0100  0.3737
67587W        W10500  16.675   3.409  18.542  0.0607  0.1653  0.0884
67588W        W10501  22.482  33.296  18.479  0.1283 -0.0059  0.0319
67589W        W10502  24.135   7.246  16.716 -0.0129 -0.0316  0.0277
67590W        W10503  23.406   9.269  18.127 -0.0920 -0.0458 -0.1228
67591W        W10504  12.523   5.742  17.187  0.0036 -0.1608 -0.0460
67592W        W10505  22.201  28.666  17.575  0.1221  0.2106 -0.1552
67593W        W10506  10.880   6.137  17.933  0.2318 -0.1051  0.0359
67594W        W10507  24.371   6.723  20.590 -0.3617  0.1401  0.2372
67595W        W10508  14.628  29.712  24.889  0.0713 -0.0724  0.0796
67596W        W10509  15.544  31.205  25.000 -0.3661 -0.1081 -0.1353
67597W        W10510  19.743  31.412  21.748  0.3064 -0.1540 -0.1264
67598W        W10511  25.886  11.510  14.958  0.0248  0.0427  0.3355
67599W        W10512  13.437  33.178  16.717  0.1046 -0.0172 -0.0129
67600W        W10513   6.626   5.356  23.886  0.1822  0.0834  0.2585
67601W        W10514  22.423  27.310  22.294 -0.1459  0.1668  0.2148
67602W        W10515  22.474  31.853  17.782  0.0332  0.1665  0.1998
67603W        W10516  14.828   6.956  22.714 -0.0243  0.1136 -0.2236
67604W        W10517  19.922  31.617  20.011 -0.1190  0.1502  0.3951
67605W        W10518  21.348   9.331  16.865  0.0854  0.2591  0.2995
67606W        W10519  10.943  32.290  17.012 -0.0042  0.3222 -0.1091
67607W        W10520  10.780  29.727  16.811  0.0037  0.0745 -0.0685
67608W        W10521  11.799  28.650  20.980 -0.2611 -0.0996  0.0933
67609W        W10522  10.812  25.460  17.172 -0.0480  0.0687 -0.0029
67610W        W10523  22.481   2.663  16.840 -0.0388 -0.0809  0.1801
67611W        W10524  12.633  23.164  13.664  0.1065 -0.1540  0.1555
67612W        W10525   6.612   6.622  19.888 -0.0275  0.2567 -0.1510
67613W        W10526  24.226   0.242  16.552  0.0313  0.0309  0.0328
67614W        W10527  12.953   4.513  20.104 -0.0504  0.0230  0.0065
67615W        W10528  24.980  31.960  14.675  0.0667  0.3093  0.2174
67616W        W10529  18.888   7.373  13.640  0.2134 -0.0673 -0.0092
67617W        W10530  19.487  11.621  15.836 -0.1601 -0.0010  0.2631
67618W        W10531  21.968  33.048  23.054 -0.0241 -0.1240  0.1732
67619W        W10532   9.755  33.898   0.646 -0.3796 -0.0786  0.1650
67620W        W10533  20.682  27.035  20.547 -0.4044 -0.0886  0.3465
67621W        W10534   9.683   0.917  17.335 -0.0532 -0.0613 -0.3040
67622W        W10535  20.536   2.933   0.433  0.0822 -0.0721  0.1864
67623W        W10536  16.006  33.035   0.871 -0.1193 -0.0284 -0.2135
67624W        W10537  26.127   0.041  16.196 -0.2758 -0.0260 -0.0788
67625W        W10538   4.397   6.890  17.487  0.0233 -0.2141  0.0812
67626W        W10539  16.278  12.714  28.981 -0.1314  0.0917  0.0519
67627W        W10540  24.411   4.486  24.091 -0.2328  0.3607 -0.2437
67628W        W10541  25.066   8.307  20.639 -0.0442 -0.3859  0.1368
67629W        W10542  14.864  26.456  17.780  0.2145 -0.1311  0.1429
67630W        W10543  22.228  30.455  15.867 -0.2380  0.0041 -0.2935
67631W        W10544  22.321  33.623  24.850  0.2412 -0.1232  0.1816
67632W        W10545  14.068   4.885  19.343  0.0082 -0.0958 -0.1680
67633W        W10546   9.852   9.369  24.670  0.0612 -0.1132  0.2876
67634W        W10547  17.760   9.941   0.614  0.5073 -0.1201 -0.0458
67635W        W10548  13.766  27.223  20.604  0.2969 -0.0992  0.0526
67636W        W10549  15.041  26.757  20.849  0.0321  0.0139 -0.0915
67637W        W10550  15.605   0.592  20.172  0.1164 -0.1715 -0.3284
67638W        W10551   8.726  27.206  16.504  0.2822  0.3553  0.2497
67639W        W10552  18.529  25.399  21.100 -0.3143 -0.5213  0.0707
67640W        W10553  20.429  32.664  17.470 -0.1241  0.3195 -0.2766
67641W        W10554  24.161   3.727  21.144 -0.1009 -0.3693 -0.2239
67642W        W10555  25.477   6.703  18.064  0.1700  0.0323 -0.3578
67643W        W10556   7.283   7.664  17.366  0.0468  0.0742 -0.0120
67644W        W10557  18.945   8.554  16.911  0.0316 -0.3492  0.1134
67645W        W10558   8.497  32.875  19.750 -0.2638 -0.1725 -0.2426
67646W        W10559  14.190   1.590  21.570  0.0120 -0.1755 -0.2711
67647W        W10560  23.616  32.417  21.250  0.1133  0.1738  0.2562
67648W        W10561  19.595   2.654  26.003 -0.2297 -0.0406 -0.0170
67649W        W10562  13.811   1.557  23.268 -0.0892  0.1905 -0.2693
67650W        W10563  20.989  28.107  19.542  0.2507 -0.0386  0.1277
67651W        W10564  24.999   6.669  17.990  0.2717  0.1189  0.2324
67652W        W10565  12.170  33.519  21.178  0.2470 -0.0983 -0.1414
67653W        W10566  10.101   3.111  19.528  0.1687  0.1011  0.1183
67654W        W10567  19.692   1.671  15.352 -0.0754  0.0269 -0.3080
67655W        W10568  15.708   0.828  27.195  0.0612  0.0911 -0.0730
67656W        W10569  30.215   5.629  15.967  0.3690 -0.1805 -0.0815
67657W        W10570  11.303   5.748  19.089 -0.1017 -0.0840 -0.0280
67658W        W10571  14.388   6.398  14.661  0.2731 -0.0449  0.0169
67659W        W10572  10.743  34.340  18.819 -0.0989 -0.4226 -0.0630
67660W        W10573  19.200   1.229  25.275 -0.1169 -0.2243  0.1519
67661W        W10574  24.957  26.900  21.508  0.0645  0.2250  0.1392
67662W        W10575  23.311   5.330  13.439  0.3033  0.1372  0.1142
67663W        W10576  24.880   1.401  16.585  0.1494 -0.1324  0.2202
67664W        W10577  21.163  33.773  19.669 -0.3111 -0.0110 -0.0950
67665W        W10578  23.020   7.750  15.345  0.1800  0.1482  0.1116
67666W        W10579  16.580   1.363  21.526 -0.1220 -0.2319 -0.1792
67667W        W10580  18.757   6.001  16.089 -0.0743  0.0872  0.0705
67668W        W10581  22.148   6.502  19.099  0.1364 -0.0092  0.1233
67669W        W10582  23.101  34.194  20.396  0.0826  0.1204 -0.0463
67670W        W10583  10.222  28.144  22.033  0.2898  0.0885  0.1796
67671W        W10584   7.442  29.973  19.904  0.0030 -0.2547 -0.1574
67672W        W10585  19.886  30.373  14.412  0.1672  0.0960 -0.0680
67673W        W10586  28.170  33.079  21.758  0.0933 -0.3799 -0.1766
67674W        W10587  14.832  27.604  15.755  0.1859  0.0989  0.2465
67675W        W10588  17.684   0.136  22.564  0.0836  0.2288 -0.0436
67676W        W10589   4.950   0.812  18.250  0.1217 -0.0173 -0.2828
67677W        W10590  20.780   1.185  20.583  0.0608 -0.1259 -0.1280
67678W        W10591   7.148  29.018  21.718 -0.2162 -0.1523 -0.1721
67679W        W10592  24.261   4.007  15.194  0.2547  0.0464 -0.0948
67680W        W10593  15.082   7.495  26.691  0.0395  0.0348  0.2150
67681W        W10594  15.099   1.884  19.118  0.2059  0.0779 -0.3216
67682W        W10595  10.880   1.995  23.813  0.0008  0.0102  0.3433
67683W        W10596  23.195   0.485  15.958 -0.2433  0.2811  0.1811
67684W        W10597   9.952  24.978  17.024 -0.1246 -0.0334 -0.4583
67685W        W10598  21.406  26.349  19.244  0.3062 -0.1887  0.1207
67686W        W10599  18.089   6.927  17.432 -0.1747 -0.3083  0.2226
67687W        W10600  13.359   0.071  28.870 -0.0528  0.0212 -0.2139
67688W        W10601  18.561   8.449   1.115 -0.0903 -0.0915  0.3453
67689W        W10602   4.896  29.634  17.961  0.1388 -0.0744 -0.2381
67690W        W10603  16.408   0.478  16.578  0.2496 -0.1228 -0.1570
67691W        W10604  19.216  31.754  14.460 -0.0329  0.1741 -0.2078
67692W        W10605  16.563   7.860  19.287  0.1303  0.1913  0.2148
67693W        W10606  15.727   8.003  17.536 -0.0909 -0.0597 -0.1915
67694W        W10607  19.038  31.249  14.372 -0.2223 -0.3456  0.2266
67695W        W10608  14.636   3.450  16.479  0.0886 -0.3658  0.4172
67696W        W10609  27.393   6.036  26.682 -0.0048  0.0229  0.0818
67697W        W10610  18.894  10.150  18.224 -0.2715  0.0172  0.3370
67698W        W10611  21.752   0.794  26.560 -0.0483 -0.3195 -0.2289
67699W        W10612  14.549  29.506  15.602  0.0780 -0.1288 -0.0063
67700W        W10613  17.019  31.843  19.094  0.1346 -0.0620  0.2667
67701W        W10614  32.092  11.128  21.474  0.0344 -0.1380  0.0190
67702W        W10615  16.054  28.380  18.158 -0.1153  0.1546 -0.1479
67703W        W10616  11.449  32.385  20.378  0.0382  0.1312 -0.2799
67704W        W10617  15.451   6.256  22.795 -0.2029  0.0239 -0.0387
67705W        W10618  15.889  27.787  19.960  0.0883 -0.1462  0.1464
67706W        W10619  21.456  33.510  20.792  0.0511  0.3466  0.0542
67707W        W10620  16.576   3.374  17.439  0.1820 -0.0767 -0.0783
67708W        W10621  24.709   9.445  19.936 -0.0805  0.3023 -0.3647
67709W        W10622  16.277   6.276  19.779  0.1611  0.1977  0.1585
67710W        W10623  13.185   2.376  22.287  0.0871 -0.4067 -0.1272
67711W        W10624  23.846   0.742  15.228 -0.0683  0.1336  0.2317
67712W        W10625  20.973   0.447  24.092 -0.3254  0.1525  0.3419
67713W        W10626  24.939   0.887  16.143 -0.0963 -0.1062  0.0137
67714W        W10627   8.520   5.246  19.659  0.2388  0.0791  0.0475
67715W        W10628  19.147  34.170  18.692 -0.1060  0.0829 -0.1915
67716W        W10629  17.000   4.052  17.809  0.0527  0.2788  0.0773
67717W        W10630  18.375  30.857  24.121  0.1275  0.2576  0.1453
67718W        W10631  15.699   3.875  18.562  0.1934  0.0516 -0.0622
67719W        W10632  26.636   1.756  17.825  0.1340 -0.0485 -0.2953
67720W        W10633  19.549   2.264  20.076 -0.3220  0.3169 -0.2656
67721W        W10634  15.022  34.454  28.388  0.1634 -0.0455 -0.3263
67722W        W10635  24.927   6.937  16.343  0.2725 -0.1058  0.1190
67723W        W10636  16.392  33.653  21.725  0.0900  0.2434 -0.0439
67724W        W10637  10.974   1.583  23.552  0.1896 -0.0182  0.2669
67725W        W10638   9.219  15.458  14.452  0.0393 -0.0994 -0.4506
67726W        W10639  26.677   1.619  25.504  0.1351  0.0110 -0.1308
67727W        W10640   6.734   4.201  25.376  0.0644  0.1616  0.0798
67728W        W10641  19.547  25.594  26.982  0.2492 -0.2582  0.6144
67729W        W10642  19.226  24.963  14.314 -0.1350 -0.0329 -0.0767
67730W        W10643  13.778   7.768  22.430 -0.0319  0.2496  0.1316
67731W        W10644  19.116   8.292  19.927  0.0363 -0.0028  0.0700
67732W        W10645  14.889   4.619  18.936 -0.2991 -0.1739 -0.0173
67733W        W10646  18.544  31.005  20.896 -0.0219 -0.1528 -0.3270
67734W        W10647  16.416  28.077  23.987  0.2251  0.2045 -0.0643
67735W        W10648  24.235   6.450  18.504  0.4040  0.1281  0.2069
67736W        W10649  16.454  26.064  17.617  0.0659 -0.0576  0.2249
67737W        W10650  21.641  33.941  25.569 -0.0188 -0.1459 -0.0042
67738W        W10651  14.907   3.195  20.675  0.0718 -0.2614 -0.1114
67739W        W10652  14.088   4.862  17.028 -0.0535  0.1306 -0.0102
67740W        W10653   8.440   7.013  17.148 -0.0025  0.2059 -0.1832
67741W        W10654  18.295   8.352  14.100  0.1763 -0.0249  0.3612
67742W        W10655  16.483  25.207  18.186 -0.0318  0.1507  0.1222
67743W        W10656   9.574   5.319  27.315 -0.1008  0.2028 -0.0261
67744W        W10657  23.389  29.560  14.158 -0.0496 -0.2031  0.0336
67745W        W10658  19.580   0.425  18.760 -0.0490  0.3281  0.0860
67746W        W10659  16.329  33.608  18.469 -0.0963 -0.3240 -0.0695
67747W        W10660  27.426   1.358  22.348  0.0242 -0.2875 -0.3362
67748W        W10661  16.930   1.631  23.451  0.1069  0.1130 -0.0483
67749W        W10662  17.847  27.467  23.919 -0.4075 -0.0912 -0.0543
67750W        W10663  20.190   9.299  25.150 -0.1575  0.1497  0.0364
67751W        W10664  13.130  34.257  18.069 -0.0212  0.5225  0.0052
67752W        W10665  26.621  29.568  18.206  0.2485 -0.1000 -0.2189
67753W        W10666  24.044   5.118  18.949  0.0315  0.0404 -0.4976
67754W        W10667  20.682  33.166  22.053  0.1160 -0.0168 -0.0866
67755W        W10668  15.673   1.165  26.785  0.4513  0.0441 -0.2174
67756W        W10669  10.608  15.326  20.465 -0.0695 -0.3581  0.1418
67757W        W10670  23.600   2.706  13.997  0.0302 -0.0293  0.1291
67758W        W10671  23.386  33.550  15.134  0.1805  0.1213 -0.3940
67759W        W10672  25.585   2.380  24.546 -0.2552 -0.0068  0.0802
67760W        W10673  14.723  10.051  19.609 -0.1936  0.1088  0.0446
67761W        W10674  13.136   2.277  18.570 -0.0845 -0.2212  0.2163
67762W        W10675  14.106  20.825  18.497 -0.2116  0.2270 -0.2420
67763W        W10676  16.632   0.926  24.522  0.3180  0.3711 -0.0948
67764W        W10677   8.652  26.778  19.159  0.1634 -0.1781 -0.0430
67765W        W10678   7.940  27.036  20.965 -0.1303 -0.3919  0.1329
67766W        W10679  26.256  31.645  22.253  0.1834 -0.2543 -0.0408
67767W        W10680  11.874  33.186  19.872 -0.4525 -0.2593 -0.1803
67768W        W10681  12.306  30.849  17.359 -0.1022  0.0076 -0.1957
67769W        W10682  17.272  33.174  15.377  0.4236 -0.1421 -0.3215
67770W        W10683  18.268   3.645  14.423 -0.0861  0.2278 -0.0732
67771W        W10684  26.021   4.875  17.546  0.3406  0.2214 -0.1243
67772W        W10685  14.962   3.209  16.173 -0.0746  0.1424  0.1016
67773W        W10686  27.462  30.392  19.285 -0.1781 -0.0166  0.1898
67774W        W10687  28.899   6.763  17.112  0.1006 -0.3129  0.0264
67775W        W10688  15.065  33.841  18.965  0.2192 -0.0294  0.1230
67776W        W10689  17.296   1.012  21.553  0.0581  0.0557  0.1589
67777W        W10690  16.473  11.211  19.988 -0.0685  0.2429 -0.1643
67778W        W10691   0.700  11.135  16.457  0.2127  0.4706 -0.2204
67779W        W10692  18.459   4.771  15.030  0.2125  0.0174 -0.0492
67780W        W10693  10.867  31.562  19.855 -0.0683 -0.1530 -0.2367
67781W        W10694  20.445  30.857  15.980 -0.0675  0.4556 -0.0655
67782W        W10695  22.616  29.672  14.735  0.1259  0.1779 -0.0440
67783W        W10696  20.464   9.047  12.528 -0.1321  0.2232  0.4603
67784W        W10697  13.582   0.991  18.192 -0.3024 -0.1236 -0.1120
67785W        W10698  21.231   8.629  26.311  0.3102  0.0898 -0.3937
67786W        W10699  24.054   6.498  18.988 -0.0130  0.0241  0.1594
67787W        W10700  11.427   0.912  20.991  0.1097  0.3120 -0.0733
67788W        W10701  21.150   1.065  21.045  0.0397  0.2524 -0.0771
67789W        W10702  19.797  11.137  18.265 -0.0801 -0.0699  0.1587
67790W        W10703  19.120  33.211  17.647 -0.0262 -0.1503  0.0855
67791W        W10704  20.205   5.160  19.258  0.0274  0.1968 -0.0106
67792W        W10705  22.416   7.140  19.989 -0.0272 -0.2491 -0.0733
67793W        W10706  15.746   7.082  18.724  0.0653  0.4703 -0.2261
67794W        W10707   9.052   4.802  29.707 -0.1019  0.1480 -0.1833
67795W        W10708  25.460   7.864  22.707  0.0576  0.0198 -0.0026
67796W        W10709  14.335   0.979  19.544  0.1718  0.0822  0.1434
67797W        W10710  17.826   3.743  16.866  0.0480  0.1071  0.1592
67798W        W10711  15.775   1.138  20.154 -0.0550 -0.1770 -0.2173
67799W        W10712  20.651   7.875  16.553  0.0302  0.3861 -0.1135
67800W        W10713  21.276  32.125   6.315 -0.0878 -0.1081 -0.1406
67801W        W10714  12.318  25.945  18.408  0.0512 -0.0142 -0.3264
67802W        W10715  19.198  31.817  15.529  0.1093  0.6291  0.3295
67803W        W10716  11.963   8.848  15.467 -0.1899  0.0372  0.0873
67804W        W10717  14.902  32.430  19.048 -0.1694  0.2845  0.0446
67805W        W10718  23.915   2.870  18.951  0.1193 -0.0377  0.0057
67806W        W10719  12.816   5.186  15.637  0.0845  0.0145 -0.0331
67807W        W10720  21.413   1.038  26.920  0.0395 -0.2092  0.0398
67808W        W10721  11.048  29.519  18.168 -0.1090  0.1763  0.0269
67809W        W10722  14.907   4.789  20.213 -0.4911 -0.1921  0.0117
67810W        W10723  19.836  33.707  22.868  0.0276  0.2036  0.0343
67811W        W10724  16.270  32.707  17.722 -0.4772  0.2877 -0.0142
67812W        W10725   5.485  30.319  16.618  0.0557  0.1902 -0.0812
67813W        W10726  23.435   2.089  13.787  0.0312 -0.0020 -0.1647
67814W        W10727  17.677  34.383  19.926 -0.4058  0.0333 -0.1609
67815W        W10728  28.762  28.376   2.530  0.1315  0.2247 -0.1937
67816W        W10729   9.701   4.985  16.684 -0.1829 -0.3388 -0.2026
67817W        W10730  29.258   1.586  26.169  0.3505  0.0319 -0.1776
67818W        W10731  19.532  31.458  15.665  0.0039  0.0486 -0.0155
67819W        W10732  13.319   7.541  18.319 -0.0756 -0.3445  0.1110
67820W        W10733  22.606  31.079  17.357 -0.0137  0.3466 -0.1278
67821W        W10734  16.743   6.162  19.937 -0.1499  0.6715  0.0331
67822W        W10735  10.730  34.257  17.510  0.1394 -0.0776 -0.2129
67823W        W10736  18.731   3.562  14.556 -0.4164 -0.2571 -0.0005
67824W        W10737  25.774  32.554  19.564 -0.2982 -0.1485  0.1137
67825W        W10738  15.266   8.141  20.390  0.2016 -0.0534  0.2368
67826W        W10739  19.194  12.113  12.307 -0.0489  0.1572 -0.1450
67827W        W10740  22.123  33.106  20.948 -0.2706 -0.1923  0.0693
67828W        W10741  23.999   5.152  14.867  0.2069 -0.0998  0.0246
67829W        W10742  11.476  33.966  16.013 -0.0264 -0.0414 -0.1747
67830W        W10743  19.427   1.919  16.582 -0.1125 -0.1650 -0.1254
67831W        W10744  15.678   0.023  17.075 -0.0880 -0.0643  0.0016
67832W        W10745  18.998  28.972  25.495 -0.0237  0.0806  0.2253
67833W        W10746  24.093   1.313  17.692 -0.3368 -0.0517 -0.1830
67834W        W10747  12.644   4.077  21.387 -0.0734  0.0565 -0.3415
67835W        W10748  18.588   0.878  18.024 -0.0759 -0.2715 -0.0470
67836W        W10749  24.929   8.910  14.781 -0.1361 -0.3205  0.1085
67837W        W10750  10.313   1.525  24.687 -0.0187 -0.0079  0.0718
67838W        W10751  22.841  32.383  21.707 -0.0002 -0.1487  0.3459
67839W        W10752  15.719   8.614  22.838 -0.0149 -0.0576  0.1648
67840W        W10753  11.728   1.834  19.223 -0.1189 -0.2599 -0.0328
67841W        W10754  14.964  27.289  23.744  0.0864 -0.0077 -0.1313
67842W        W10755  31.978  23.669  23.921 -0.2958 -0.2572 -0.1399
67843W        W10756  16.536   2.829  21.013 -0.1251 -0.0941  0.3815
67844W        W10757   6.239   2.693  21.816 -0.0385  0.2114  0.0744
67845W        W10758   8.282  28.094  22.275 -0.0816  0.2456  0.0212
67846W        W10759   7.239  29.735  25.595 -0.1426 -0.0778  0.1285
67847W        W10760  27.526  28.857  14.605  0.0011 -0.1755 -0.1694
67848W        W10761  14.101  16.209  12.793  0.2181  0.2614  0.0483
67849W        W10762  24.239   2.733  19.683  0.0641 -0.2061  0.0007
67850W        W10763  24.616   4.504  15.005 -0.0935  0.3199  0.0794
67851W        W10764  31.848  11.695  16.265 -0.3191  0.1599 -0.0287
67852W        W10765  13.856   4.063  16.339  0.2306  0.1112  0.1409
67853W        W10766  21.955  34.043  19.457 -0.2500 -0.2556  0.1085
67854W        W10767  19.344  33.227  14.071  0.2053  0.1943  0.1578
67855W        W10768  20.310  14.675   2.456  0.3310 -0.0631  0.1825
67856W        W10769  15.697  33.863   0.669  0.1102 -0.2398 -0.1089
67857W        W10770  21.532  10.880  13.226 -0.0343 -0.0898 -0.1467
67858W        W10771  18.689  28.342  14.158  0.0604  0.1392 -0.1847
67859W        W10772   4.551  32.875  24.838 -0.2986  0.4067 -0.2116
67860W        W10773  15.570   3.820  14.876  0.0051  0.0303 -0.3807
67861W        W10774  15.742  34.057  17.570 -0.1122  0.1770  0.2790
67862W        W10775  18.896  11.107  18.028  0.1069 -0.0809  0.0984
67863W        W10776  19.982   1.084  22.073  0.1742 -0.1337 -0.3587
67864W        W10777  13.016  34.247  17.546 -0.1049 -0.1041  0.0590
67865W        W10778  23.577  30.903  22.086  0.4015 -0.0436 -0.2389
67866W        W10779  19.204  32.647  17.451 -0.0028 -0.0783  0.0405
67867W        W10780  20.891  33.589  20.804  0.1779 -0.1199 -0.0333
67868W        W10781   5.663  33.721  28.534 -0.0730 -0.0455  0.2499
67869W        W10782  15.814   4.597  17.979 -0.3067  0.2627 -0.2458
67870W        W10783  19.021   2.419  20.065  0.2265  0.0892  0.1312
67871W        W10784  16.365   1.997  17.292 -0.0590 -0.1822  0.0297
67872W        W10785  19.679  10.386  17.730  0.0736 -0.0507  0.1282
67873W        W10786  18.708  33.390  15.126 -0.1727  0.0157 -0.2109
67874W        W10787   9.470  32.023  22.784 -0.0273 -0.2157  0.0881
67875W        W10788  17.389  30.587  15.491  0.2714 -0.0224 -0.0621
67876W        W10789  19.233  26.814  23.791 -0.0329  0.0982 -0.0682
67877W        W10790  17.754   7.111  14.766 -0.1740 -0.0341 -0.0195
67878W        W10791  14.735  33.991  19.490  0.0112 -0.0216 -0.1137
67879W        W10792  16.933  11.382  22.526  0.1076 -0.0223  0.1345
67880W        W10793  16.510   4.821  24.354  0.4297 -0.0077  0.0929
67881W        W10794  22.601   6.323  14.600 -0.1411  0.1203  0.3045
67882W        W10795  14.307  33.883  25.897  0.0118  0.1970  0.3272
67883W        W10796  21.316   0.845  21.939  0.2808 -0.2646 -0.2066
67884W        W10797  13.682   2.944  23.628  0.0625 -0.0975  0.2748
67885W        W10798  20.504   1.652  15.957  0.0469 -0.0115 -0.0254
67886W        W10799  25.568  32.144  19.742 -0.3589 -0.0637  0.3360
67887W        W10800  25.160   0.678  22.441  0.1040  0.0653  0.0167
67888W        W10801  24.429  13.541  21.565 -0.0146  0.0605 -0.2049
67889W        W10802  15.693   4.948  16.565 -0.0771 -0.1098  0.1501
67890W        W10803  23.710  31.700  13.356 -0.0550  0.3114 -0.2767
67891W        W10804  25.940   8.415  21.965 -0.1779 -0.0323 -0.0220
67892W        W10805  20.861  31.262  20.308 -0.4279  0.1512  0.1212
67893W        W10806  15.784  30.764   2.005  0.1690  0.2476 -0.1375
67894W        W10807  10.009  25.668  21.330 -0.0713 -0.2438 -0.3317
67895W        W10808  15.147   6.037  18.898 -0.2291  0.0014  0.0415
67896W        W10809  15.260  29.260  26.813 -0.2279 -0.1069  0.2534
67897W        W10810  13.978  29.149  26.665  0.0358  0.2586 -0.2715
67898W        W10811  19.507  29.390  16.202  0.1527  0.0158  0.2357
67899W        W10812  17.272  13.227  15.804  0.2261 -0.0450 -0.2110
67900W        W10813  20.687  32.449  15.973  0.1383 -0.4720  0.0307
67901W        W10814  14.843   8.177  15.281  0.1069 -0.3756 -0.1288
67902W        W10815   7.175   4.446  19.743 -0.1282 -0.1033  0.2306
67903W        W10816  12.863   6.442  21.227  0.1269 -0.2319 -0.1037
67904W        W10817  12.833  31.365   1.542  0.0536  0.1710  0.2158
67905W        W10818  22.490   3.078  21.577  0.0322 -0.0448 -0.2007
67906W        W10819  11.783  34.482  18.611 -0.0107  0.1933 -0.0569
67907W        W10820  16.386   3.521  25.555  0.2190  0.0447 -0.2558
67908W        W10821  22.715   9.336  16.590  0.0144  0.1213  0.2690
67909W        W10822  32.063  20.163  20.861 -0.0465  0.1655 -0.0872
67910W        W10823  23.006   8.654  16.928 -0.1461  0.1898 -0.0685
67911W        W10824  15.786   3.312  18.006 -0.4159  0.1793  0.1415
67912W        W10825  11.423   5.069  24.216  0.3619 -0.0012 -0.1318
67913W        W10826  17.615   8.011  21.942 -0.1188 -0.3237  0.2627
67914W        W10827  19.116   4.510  21.819 -0.0334 -0.1952  0.1325
67915W        W10828   7.747  30.675  17.581  0.1086  0.0697 -0.0042
67916W        W10829  16.209   8.099  23.979 -0.0403 -0.1246  0.2650
67917W        W10830  18.025  30.213  17.217  0.0592  0.0157  0.2043
67918W        W10831  18.189  29.193  14.343  0.0022  0.1422 -0.1040
67919W        W10832  22.815   7.224  16.636  0.2011 -0.2003 -0.1441
67920W        W10833  12.582  28.871  16.407  0.0225 -0.4123 -0.0385
67921W        W10834  12.474   9.673  21.624  0.1194 -0.0837 -0.1841
67922W        W10835  13.695   5.364  21.380  0.1005  0.1368 -0.1313
67923W        W10836   7.816   9.267  16.993 -0.2876  0.3618  0.0049
67924W        W10837  23.977  25.851  13.198 -0.0293 -0.2684  0.1320
67925W        W10838   2.875   7.989  21.385  0.0342  0.3770 -0.1141
67926W        W10839  24.418  32.250  24.157 -0.0691 -0.1285 -0.0430
67927W        W10840  12.720  33.563  19.421 -0.2699  0.0629 -0.1553
67928W        W10841  29.719  27.618  21.373  0.2106  0.1176 -0.0199
67929W        W10842   8.061  28.888  23.069 -0.5052  0.0776  0.3999
67930W        W10843  21.293   0.101  24.965  0.0881 -0.0554 -0.1124
67931W        W10844  12.670  34.448  28.120 -0.1132  0.1015  0.2555
67932W        W10845  15.978  15.116  12.768 -0.0522 -0.0720 -0.0629
67933W        W10846  23.176  33.008   2.993  0.1963  0.2046 -0.0663
67934W        W10847  12.909   1.029  22.234 -0.2136 -0.0086  0.1607
67935W        W10848  21.944   6.624   4.681 -0.1969  0.1117  0.0105
67936W        W10849  26.284   2.810  20.555 -0.1561 -0.0214 -0.0043
67937W        W10850  12.866   1.579  24.188  0.0715 -0.0153  0.3164
67938W        W10851  31.566  26.661  14.377  0.1009 -0.0372 -0.3046
67939W        W10852   9.612   2.213  19.347  0.1031  0.0506  0.0569
67940W        W10853  17.179  24.766  21.833 -0.0609  0.0808  0.0693
67941W        W10854  10.363   7.755  16.710  0.1720  0.2057 -0.0074
67942W        W10855  25.212  34.171  24.938  0.0540  0.1576 -0.2915
67943W        W10856  20.699   2.074  14.614  0.2475  0.1496 -0.1293
67944W        W10857  13.628  11.875  22.444  0.0857 -0.3880  0.0950
67945W        W10858  13.985  14.035  19.613  0.1164 -0.1166  0.1814
67946W        W10859   9.011  34.350  16.566 -0.0857  0.1280 -0.0441
67947W        W10860  15.177   4.968  18.712  0.0742 -0.1166 -0.0634
67948W        W10861  23.527   3.472  22.809 -0.1024 -0.0110 -0.1902
67949W        W10862  18.444   3.882  28.846  0.0885  0.2980  0.0177
67950W        W10863  18.691   2.832  22.620  0.0650 -0.2264 -0.0825
67951W        W10864  20.758   1.536  24.062  0.0998 -0.1045  0.1344
67952W        W10865  24.605  31.972  19.213  0.0442 -0.1542 -0.0048
67953W        W10866  30.305   5.744  14.949 -0.2883  0.1680  0.1015
67954W        W10867  31.073   5.063  19.847 -0.0159  0.0013  0.0180
67955W        W10868  13.856  14.734  21.582 -0.1465 -0.0923  0.0743
67956W        W10869  15.652  30.413  17.309  0.1160 -0.1719  0.0958
67957W        W10870  17.004  31.827  18.592 -0.1440  0.0640 -0.1239
67958W        W10871  13.942  32.134  18.572 -0.1937  0.0516  0.3506
67959W        W10872  27.441  34.015  26.851 -0.0554  0.1166  0.1056
67960W        W10873  23.081  34.297  21.993 -0.0431  0.0065  0.1191
67961W        W10874  18.707  20.744  19.625  0.1256 -0.1853  0.1896
67962W        W10875  18.140  30.636  22.417  0.2210 -0.0486 -0.2029
67963W        W10876  21.197  34.422  17.604  0.0394 -0.0695  0.0078
67964W        W10877  19.946   0.870  20.908 -0.1580 -0.1820 -0.0304
67965W        W10878   5.380   8.310  17.994  0.0785  0.0147  0.3614
67966W        W10879  10.636   0.930  24.230  0.0350 -0.0221  0.2347
67967W        W10880  26.953   6.496  18.542 -0.2521  0.0348 -0.1941
67968W        W10881   9.103   2.157  22.346  0.1898  0.1496 -0.0790
67969W        W10882   8.966   6.431  20.446  0.3087  0.0939  0.0602
67970W        W10883  13.275   6.303  22.548 -0.0159 -0.5181  0.3946
67971W        W10884  29.601   1.814  20.965 -0.0995  0.0991 -0.1976
67972W        W10885  16.796   0.387  23.379 -0.0467 -0.3279  0.0162
67973W        W10886  12.243   5.551  18.933 -0.1117 -0.3434  0.0096
67974W        W10887  21.624   3.131  17.190 -0.0575  0.1655 -0.3084
67975W        W10888  30.008   2.017  20.925 -0.1306 -0.5347 -0.1769
67976W        W10889  21.098  31.519  13.887  0.2738  0.1993  0.0083
67977W        W10890  10.541  30.972  20.417  0.1392  0.0761 -0.3581
67978W        W10891  23.959  15.146  28.892 -0.3165 -0.0159 -0.2354
67979W        W10892  28.050  27.618  14.510 -0.3143 -0.1301  0.0693
67980W        W10893  13.658  20.874  18.063  0.0270  0.0537 -0.2063
67981W        W10894  19.033   4.474  16.329  0.1280  0.1252  0.1013
67982W        W10895  13.162   0.875  17.869  0.0269 -0.0219  0.1006
67983W        W10896  23.263   8.070  17.407 -0.4877 -0.0380  0.0172
67984W        W10897  14.154   8.927  14.095 -0.1848 -0.0156  0.2269
67985W        W10898  22.931  29.754  22.506 -0.1369 -0.0373  0.2794
67986W        W10899  27.306  30.983  18.619  0.1181 -0.2426 -0.1650
67987W        W10900  19.964   4.154  23.852  0.2958  0.0281  0.2181
67988W        W10901  11.797   3.987  17.514  0.1997  0.0815  0.0603
67989W        W10902  15.114  14.253  13.392  0.3826  0.1899  0.2880
67990W        W10903  26.536   3.403  13.532 -0.1085  0.0662  0.2363
67991W        W10904  10.139   3.974  20.740 -0.0321 -0.0028  0.1370
67992W        W10905  13.658  30.968  29.036 -0.0281  0.3278 -0.1276
67993W        W10906  25.746   3.071  18.869  0.1397 -0.0475  0.1703
67994W        W10907   0.238   2.340   0.464  0.1813 -0.0236 -0.1348
67995W        W10908   8.225  11.764  18.411  0.0682 -0.1657  0.0440
67996W        W10909  19.837  29.285  20.186 -0.0043 -0.2749  0.1086
67997W        W10910  33.209   1.394  22.336 -0.2329  0.3228  0.2284
67998W        W10911  22.001   7.610  13.305 -0.0745 -0.1467 -0.0429
67999W        W10912  25.934   1.859  20.355  0.0988 -0.0169 -0.0407
68000W        W10913  25.082  28.728  28.423  0.1587  0.1968  0.0891
68001W        W10914   7.051  12.472  16.162 -0.2865  0.2748 -0.0952
68002W        W10915   7.258   3.005  24.076  0.4521 -0.0931  0.1776
68003W        W10916  16.560  28.525  16.769  0.0695  0.1254  0.0380
68004W        W10917  11.991  25.845  23.241  0.0857  0.0879  0.3273
68005W        W10918  12.740   4.181  19.554  0.1796 -0.1396  0.0441
68006W        W10919  18.930  33.009  14.844  0.1329 -0.2157  0.1574
68007W        W10920  16.672   9.099  22.936  0.2590  0.1746  0.2573
68008W        W10921  10.755  26.846  28.039 -0.0279 -0.0350 -0.1763
68009W        W10922  15.119   0.144  21.532  0.2035 -0.0442  0.0602
68010W        W10923   9.952  10.004  28.707  0.2100 -0.0753  0.1126
68011W        W10924  20.761  33.355  16.654 -0.0337  0.0543  0.0684
68012W        W10925  18.009   7.060  20.900  0.2704 -0.1794 -0.0002
68013W        W10926  27.991  13.024  15.448  0.1910 -0.2976  0.1215
68014W        W10927   8.317  29.146  16.752  0.2972 -0.1283 -0.0234
68015W        W10928  10.250   1.535   2.721 -0.0682 -0.4301  0.0810
68016W        W10929  19.646  34.215  25.285 -0.2524 -0.2321 -0.0114
68017W        W10930  21.433   9.444  14.014 -0.2166  0.3427  0.2012
68018W        W10931  19.927   8.526   0.898 -0.2379 -0.3032 -0.5690
68019W        W10932  14.305  31.043  23.611  0.1033 -0.1159 -0.2591
68020W        W10933   2.045   8.272  18.255 -0.0935  0.3288 -0.2410
68021W        W10934  11.967   4.507  18.418 -0.0373  0.4670  0.0022
68022W        W10935  23.700   0.643  23.138  0.1811  0.0196  0.1263
68023W        W10936  23.029  32.827  23.348  0.1225  0.1618 -0.0791
68024W        W10937  19.967  31.179  14.429  0.0195  0.0058 -0.2761
68025W        W10938  23.459   5.250  24.213 -0.2973 -0.2063  0.2215
68026W        W10939  12.052   3.413  23.248 -0.0164  0.0233 -0.2629
68027W        W10940  17.003  21.836  24.625  0.0647 -0.0186 -0.0906
68028W        W10941  11.180  29.050  19.042 -0.2553  0.1911  0.1037
68029W        W10942  17.669  27.003  23.837 -0.1150 -0.0006 -0.1122
68030W        W10943  21.647  31.275  23.419  0.0044  0.0895 -0.0173
68031W        W10944  17.317  29.582  25.868 -0.1123 -0.1786  0.0133
68032W        W10945  18.917   2.767  17.835  0.1137  0.1731 -0.0284
68033W        W10946   9.413  30.754  21.557 -0.0641 -0.0696 -0.0540
68034W        W10947  11.242   2.004  22.708  0.1520  0.1557 -0.2013
68035W        W10948  18.776   5.363  17.150  0.1619  0.0220  0.2592
68036W        W10949  18.087   7.428  14.052  0.0372 -0.1990  0.1527
68037W        W10950  15.691   0.724  24.566  0.2161  0.3054 -0.1491
68038W        W10951  16.179  27.576  25.655 -0.0917  0.2255 -0.0306
68039W        W10952  11.226  26.940  20.542  0.1441  0.0380  0.3513
68040W        W10953  15.616  32.526  15.902 -0.1388 -0.2484  0.1441
68041W        W10954  21.944   4.160  23.709 -0.0153 -0.1519  0.1400
68042W        W10955  19.680  10.725  14.735 -0.0232  0.1940 -0.1029
68043W        W10956  16.739   2.720  22.085 -0.1017  0.0150 -0.1318
68044W        W10957  22.299  28.601  20.016 -0.1238 -0.0633 -0.2321
68045W        W10958  12.856  33.702  18.816  0.1076  0.0516 -0.1105
68046W        W10959  19.834   6.605  16.928 -0.3815  0.0848 -0.1899
68047W        W10960   8.131   2.464  18.714  0.0293 -0.1515 -0.2117
68048W        W10961  17.046  34.432  16.106  0.1448  0.0904  0.3915
68049W        W10962  24.051  29.884  13.998 -0.1501  0.5275  0.0386
68050W        W10963  13.434  33.837  17.431 -0.2244 -0.0290  0.1605
68051W        W10964  12.135   5.401  20.422  0.2365 -0.2442 -0.1458
68052W        W10965  11.297   0.114  24.900  0.0602  0.3136  0.1245
68053W        W10966  14.772  12.152  14.544 -0.0500 -0.2137 -0.2437
68054W        W10967  21.241  31.195  20.560 -0.2881  0.1266 -0.1667
68055W        W10968  26.610  29.590  22.342 -0.4256  0.2738  0.0858
68056W        W10969   3.186  31.809  18.671 -0.3405 -0.0165  0.3887
68057W        W10970   9.721  21.526  16.247  0.1151  0.3284 -0.1865
68058W        W10971  10.341   4.715  18.501 -0.1331 -0.1749 -0.2391
68059W        W10972  20.207  27.907  22.352  0.0474 -0.3265 -0.0794
68060W        W10973  20.733   0.035   3.299  0.2188 -0.0004 -0.0330
68061W        W10974  20.663   0.056  24.838  0.1998  0.0352  0.0163
68062W        W10975  16.980  33.032  15.893 -0.2040  0.2951  0.1526
68063W        W10976  17.740  31.815  17.850  0.3132 -0.0773  0.2430
68064W        W10977  18.117   1.090  24.212  0.1921  0.1357  0.2870
68065W        W10978  25.128  28.517   0.596  0.0091 -0.0731  0.2762
68066W        W10979  11.604   0.741  19.918  0.1068 -0.2798 -0.2233
68067W        W10980  29.702  11.126   1.558  0.1163  0.3503  0.1529
68068W        W10981  16.740   5.857  16.594  0.0648 -0.0316  0.1054
68069W        W10982  14.548   0.128  16.467  0.0825  0.2653 -0.1017
68070W        W10983  16.491   8.411  22.359 -0.1158  0.1416  0.0337
68071W        W10984  13.454  15.484  17.006  0.0179 -0.0288  0.5649
68072W        W10985  26.574   4.491  19.176  0.0281  0.0530  0.1615
68073W        W10986  14.405   3.039  17.533 -0.0527 -0.4081  0.2400
68074W        W10987   9.103   3.912  25.856 -0.0444  0.3440 -0.2471
68075W        W10988  26.993  30.564  14.647 -0.1597 -0.3360 -0.0418
68076W        W10989   3.234  28.325  21.106  0.5726 -0.1230 -0.2656
68077W        W10990   8.314  34.435  17.177 -0.0423 -0.2365  0.3033
68078W        W10991  14.208   4.185  19.205  0.0010 -0.0426 -0.2048
68079W        W10992  18.100  29.015  21.941  0.1530  0.4010 -0.3142
68080W        W10993  16.178  33.075  19.762 -0.1160  0.1918 -0.0587
68081W        W10994   8.002  27.045  17.811  0.3164 -0.0840  0.0989
68082W        W10995  14.068  31.539  15.754  0.2855 -0.0172 -0.1536
68083W        W10996  18.433   3.205  14.271  0.1368 -0.0993  0.0162
68084W        W10997  17.491   1.147  20.073  0.2556 -0.3008  0.0819
68085W        W10998  14.097  32.720   2.285 -0.1641 -0.2590 -0.2889
68086W        W10999  20.429   1.236  29.348  0.0667  0.1065  0.2772
68087W        W11000  26.259  32.214  20.928 -0.0170  0.1440  0.1242
68088W        W11001  22.611   4.937  15.042 -0.0924 -0.2131 -0.1254
68089W        W11002  11.314  24.374  24.913 -0.3777 -0.3158  0.0966
68090W        W11003  10.649  15.485  13.436 -0.0600  0.0228  0.1840
68091W        W11004  22.477   3.494  23.895 -0.0298  0.0695 -0.1176
68092W        W11005  14.733   3.556  21.008 -0.2029 -0.1420  0.1148
68093W        W11006   9.922  11.280  15.435 -0.0459  0.1129  0.1025
68094W        W11007  10.334   3.496  18.230  0.0162  0.2263 -0.0616
68095W        W11008  14.564   1.258  18.204 -0.1963  0.2010  0.2414
68096W        W11009  12.838  10.257  21.213  0.0698  0.1324 -0.0520
68097W        W11010  19.013  32.771  18.723  0.0290  0.2840 -0.0673
68098W        W11011  11.699  34.368  20.961  0.0605 -0.0469  0.0421
68099W        W11012  14.805   5.140  18.999 -0.3462 -0.1924 -0.0972
68100W        W11013  22.555  25.823  13.180  0.1833 -0.1356  0.4917
68101W        W11014   9.882  11.609  28.001  0.0809 -0.1643  0.0676
68102W        W11015  16.368  26.616  16.832 -0.0604  0.0223  0.3226
68103W        W11016  24.150  31.447  21.867 -0.0337  0.2247  0.1770
68104W        W11017  15.985  18.030  23.226  0.1031  0.4270  0.1914
68105W        W11018  11.899  32.544  26.471  0.4059 -0.1407  0.1756
68106W        W11019  11.472  25.818   1.085 -0.1709 -0.0769  0.0239
68107W        W11020  27.895  31.771  14.594  0.2078 -0.3120  0.1475
68108W        W11021  12.211   1.396  18.824 -0.0638 -0.0118  0.0464
68109W        W11022   4.441   5.980  18.595  0.3306 -0.0675 -0.1849
68110W        W11023  10.671   6.544  19.901 -0.2514 -0.1867  0.1078
68111W        W11024  10.143  29.317   4.218 -0.2934 -0.0121  0.2277
68112W        W11025  20.541  25.471  17.978 -0.0982  0.1747  0.2037
68113W        W11026  12.097  27.668  16.502 -0.1877 -0.2132  0.0039
68114W        W11027   4.182   4.637  24.075  0.2148 -0.1014 -0.0933
68115W        W11028  32.910  30.428  16.414  0.0204  0.0717 -0.0505
68116W        W11029  16.488   1.203  28.915 -0.1816  0.0088  0.0613
68117W        W11030  22.963   7.010  23.991 -0.0074  0.1398  0.1313
68118W        W11031  12.827  12.572  22.911 -0.2310  0.3678 -0.3062
68119W        W11032   9.501  30.299   0.754 -0.2514 -0.1140 -0.0691
68120W        W11033  20.897  33.862  28.850  0.1431  0.3629 -0.2520
68121W        W11034  23.679   6.618  29.690  0.3444  0.0555  0.3594
68122W        W11035  24.063   2.398  14.378 -0.1210  0.1557  0.0638
68123W        W11036  18.527   2.438  14.033 -0.1752 -0.2018 -0.1679
68124W        W11037  15.001   4.282  18.046  0.1017  0.2701  0.0929
68125W        W11038  15.424  33.677  21.677  0.0768  0.1904  0.2226
68126W        W11039  22.625   9.943  19.097 -0.1367  0.2709 -0.0116
68127W        W11040  11.681   3.945  21.194 -0.1185  0.1237 -0.0159
68128W        W11041  15.091  28.849   6.297  0.0868 -0.3195 -0.1340
68129W        W11042  24.515  34.160  16.855 -0.0434  0.2732 -0.2587
68130W        W11043  18.842   1.912  15.403 -0.1385 -0.0945  0.0832
68131W        W11044  20.223   7.355  19.045  0.0421 -0.1881  0.0794
68132W        W11045  16.107   8.802  13.706  0.1657 -0.0959 -0.1512
68133W        W11046  24.502  30.795  21.003  0.1529 -0.2238 -0.0558
68134W        W11047  17.411  33.466  27.587 -0.1974  0.1971  0.1093
68135W        W11048  30.023  27.635  24.546 -0.2758 -0.2002 -0.0550
68136W        W11049  15.306   9.574  23.382 -0.1473 -0.1530 -0.2210
68137W        W11050   3.740   7.965  17.750 -0.0707  0.1710  0.0441
68138W        W11051  11.610   6.093   2.954 -0.0154 -0.2737 -0.1868
68139W        W11052  25.043   6.727  14.472  0.2149 -0.2596  0.0021
68140W        W11053  20.457   6.501  21.822 -0.3345  0.1889  0.3447
68141W        W11054  22.024  20.438  14.550 -0.1190  0.1559  0.1398
68142W        W11055  20.918  33.346  17.813  0.0242 -0.1558 -0.1057
68143W        W11056  19.800  32.702  18.299 -0.1893 -0.0863  0.0951
68144W        W11057  20.915  29.193  23.935  0.0990  0.0810  0.1529
68145W        W11058   8.356  32.183  20.408  0.1661  0.0672 -0.0178
68146W        W11059  26.167   8.300  17.877  0.1334  0.1068 -0.3308
68147W        W11060   9.310  20.089  21.441  0.4442 -0.2675  0.1652
68148W        W11061   6.023   3.600  29.737  0.0201 -0.2188  0.3431
68149W        W11062  20.772  28.012  22.323  0.0956 -0.0825 -0.1679
68150W        W11063  12.252   8.424  29.614 -0.2648 -0.2783 -0.0281
68151W        W11064  20.482   4.649  23.585 -0.1595  0.1960 -0.0072
68152W        W11065  31.651  16.323  15.585  0.1809 -0.0469 -0.3050
68153W        W11066  26.540  13.224  21.769 -0.0016 -0.1391 -0.3376
68154W        W11067  15.951   8.580  15.346  0.0600 -0.2535 -0.2136
68155W        W11068  17.055  29.914  20.345 -0.0343 -0.0849  0.0075
68156W        W11069  14.573  25.151  24.831 -0.2205 -0.2460  0.0514
68157W        W11070  15.229  34.228  20.204 -0.1021  0.0308 -0.2968
68158W        W11071  13.206   6.450  18.709 -0.0278 -0.1801 -0.0596
68159W        W11072  14.501  30.891  15.854  0.0312  0.2747 -0.0015
68160W        W11073  15.954  27.366  15.042  0.4598 -0.2500  0.1926
68161W        W11074  13.026   2.163  26.351  0.2243 -0.3446 -0.0338
68162W        W11075  27.453   5.381  18.333  0.0129 -0.0223  0.0793
68163W        W11076  11.684  11.630  17.093  0.1127 -0.1166 -0.0253
68164W        W11077  14.517   1.158  27.417  0.0737 -0.2997  0.0394
68165W        W11078  19.082   1.303  19.289 -0.0835  0.0867  0.0101
68166W        W11079  23.546   4.382  21.103 -0.0245  0.4037 -0.0197
68167W        W11080   8.073  30.143   0.766  0.1691  0.2519 -0.0090
68168W        W11081  14.220   8.422  18.474  0.1630 -0.0593 -0.1314
68169W        W11082  23.130   6.549  18.160  0.1881 -0.1343 -0.0020
68170W        W11083   6.215   8.225  29.546 -0.0248  0.1933  0.1331
68171W        W11084  24.498   1.624  20.991  0.1742 -0.2241 -0.0179
68172W        W11085  16.075   1.283  25.901  0.0422 -0.3005 -0.1909
68173W        W11086   8.570   1.303   2.257  0.1118 -0.3408 -0.0209
68174W        W11087  12.492   5.095  16.378  0.2463 -0.0500  0.0972
68175W        W11088  15.390  32.406  19.975  0.4272  0.0725  0.2152
68176W        W11089  10.588  32.662  17.850  0.1254 -0.0275  0.0654
68177W        W11090   7.174   6.767  22.297  0.1381 -0.2463 -0.0354
68178W        W11091  11.653  31.770  15.825  0.0648  0.2362 -0.1105
68179W        W11092   0.559  30.844  24.498 -0.3143  0.2389 -0.1026
68180W        W11093   9.724   4.692  20.103  0.3328  0.0064 -0.1976
68181W        W11094  29.673  13.701  25.156  0.2277  0.0158  0.0747
68182W        W11095  15.500  10.457  18.559  0.0556 -0.1111  0.1834
68183W        W11096  16.817   5.458  20.936  0.3317  0.0259  0.1819
68184W        W11097  15.950   5.692  21.255 -0.1908 -0.0520  0.2352
68185W        W11098  15.720   1.443  18.626 -0.0732 -0.1298  0.3455
68186W        W11099  14.873   4.854  17.132 -0.0042  0.0153  0.0948
68187W        W11100  15.976   7.369  15.638  0.1167  0.3097 -0.4252
68188W        W11101  20.042   8.329  16.556 -0.0583 -0.3493 -0.1282
68189W        W11102  20.368  10.103  12.712  0.1074 -0.2407 -0.1222
68190W        W11103  31.104   2.115  15.870 -0.0455  0.0037  0.2373
68191W        W11104  18.746  10.183  15.507 -0.1406 -0.2718 -0.2398
68192W        W11105  17.274   2.251  15.537 -0.0381 -0.1262 -0.1925
68193W        W11106  12.205   8.346  23.399  0.0341  0.3431 -0.0968
68194W        W11107  17.551   3.571  26.528  0.0649  0.0626 -0.3421
68195W        W11108  20.183   1.464  27.206 -0.0277 -0.0341  0.0025
68196W        W11109  15.386   2.261  19.114 -0.1160 -0.0070 -0.3578
68197W        W11110  17.748   5.139  15.484 -0.3820  0.0759  0.1648
68198W        W11111  11.005  31.110  21.495 -0.4480  0.1635  0.1815
68199W        W11112  23.558   4.377  18.365  0.2143 -0.1139  0.1274
68200W        W11113  19.142  31.908  28.250  0.2259 -0.0990  0.3786
68201W        W11114  11.970  32.015  23.499  0.0183  0.4989 -0.0798
68202W        W11115   8.064  24.125   3.989  0.0359  0.3628  0.2038
68203W        W11116  17.985   2.956  23.384  0.1801 -0.0444  0.2312
68204W        W11117  17.223   2.496  20.535  0.1334  0.2035 -0.1244
68205W        W11118  12.531   7.589  17.634  0.0838  0.1781 -0.1271
68206W        W11119  22.924  28.382  16.896  0.0065 -0.2085  0.1297
68207W        W11120  14.725   6.244  19.993  0.2206  0.4326 -0.1276
68208W        W11121   9.104   3.801  23.962 -0.2847 -0.1021 -0.2288
68209W        W11122  12.722  24.780  17.795 -0.1577 -0.1636 -0.0774
68210W        W11123   7.552  17.865  18.161 -0.2850 -0.0644 -0.2732
68211W        W11124  14.740  25.450  25.990  0.0304 -0.2030 -0.3979
68212W        W11125  10.608   8.583   0.664  0.1559  0.3149  0.2384
68213W        W11126  24.625  30.456  23.428 -0.0139  0.1501 -0.1654
68214W        W11127  18.480  34.103  28.633  0.1834  0.3278  0.0593
68215W        W11128  11.601  21.769  17.807  0.0447  0.2179  0.2226
68216W        W11129  30.037   6.592   1.977  0.1286  0.0413  0.0925
68217W        W11130   7.249  22.108  24.585  0.2383  0.1267 -0.0900
68218W        W11131  19.220   3.493  14.627 -0.0803 -0.2978 -0.1223
68219W        W11132  11.845  33.628  21.578 -0.2264  0.1211  0.0550
68220W        W11133   7.565  28.911  23.298  0.1322  0.1712  0.2684
68221W        W11134  31.397  29.047  19.291  0.1266  0.1371 -0.2745
68222W        W11135  25.697  28.332  17.251  0.4629 -0.0043  0.0105
68223W        W11136  15.130  33.665  27.203 -0.0669 -0.2855 -0.2666
68224W        W11137  20.124   2.437  16.063 -0.0036 -0.0132 -0.0046
68225W        W11138  20.206   2.299  21.071 -0.0511 -0.1626  0.0735
68226W        W11139  17.816  28.231  17.191 -0.1143 -0.1031 -0.0833
68227W        W11140  24.956   8.032  14.873 -0.0456 -0.1391  0.2767
68228W        W11141  23.494  14.270  18.775 -0.0982  0.1655  0.3007
68229W        W11142  13.999   4.964  16.547 -0.0408  0.2256  0.1273
68230W        W11143  22.983   8.589  23.819 -0.2888 -0.0770 -0.4490
68231W        W11144  18.462   5.191  17.709 -0.1766  0.0972 -0.3826
68232W        W11145  22.935  11.954  14.856 -0.1774 -0.0939 -0.1108
68233W        W11146  17.756  27.007  24.769 -0.1645 -0.0124 -0.0211
68234W        W11147  22.642   2.305  25.866 -0.1084 -0.0217 -0.0096
68235W        W11148  14.120   5.976  14.485  0.2165 -0.1241  0.1531
68236W        W11149  26.791  33.863  17.669 -0.1921 -0.1286 -0.2775
68237W        W11150   7.904  34.165  18.616  0.0489  0.0556  0.2659
68238W        W11151  18.746  33.395  14.172  0.1687  0.1010 -0.0230
68239W        W11152  10.981  10.715  22.750 -0.0015  0.0112  0.0266
68240W        W11153   8.949  30.266  19.539  0.1158  0.1694 -0.0258
68241W        W11154  22.355   1.920   1.188  0.0267 -0.0920 -0.0680
68242W        W11155  12.165   4.394  20.284 -0.1658 -0.2498 -0.1795
68243W        W11156  15.463   7.255  26.306 -0.1277  0.0107  0.0034
68244W        W11157  12.762   6.530  21.704  0.0651 -0.1355  0.1751
68245W        W11158  18.544   4.582  16.463 -0.0459  0.0668  0.2279
68246W        W11159  25.699  27.710  21.409  0.0055  0.3291  0.0607
68247W        W11160  16.647   1.275  18.505  0.1734  0.1153  0.0451
68248W        W11161  19.643   0.107  22.006 -0.0241  0.1770 -0.1312
68249W        W11162  10.792  21.631  24.935 -0.1355 -0.0308 -0.2062
68250W        W11163  22.140  32.948  18.181 -0.0782  0.1526  0.0334
68251W        W11164  17.708   4.886  14.610  0.0208  0.0978 -0.1867
68252W        W11165  19.091  29.096  14.493 -0.0845 -0.0476 -0.0674
68253W        W11166  18.506   3.723  15.767  0.1606  0.1140  0.0304
68254W        W11167  16.241   8.120  15.295  0.2253  0.0489  0.3609
68255W        W11168  17.833   1.768  17.796 -0.1483 -0.1520 -0.0808
68256W        W11169  20.262  29.600  22.702  0.0267 -0.1331  0.0513
68257W        W11170  30.468   2.773  16.319 -0.1449 -0.1992  0.0304
68258W        W11171  27.671  31.100  27.060 -0.0711  0.1196 -0.4534
68259W        W11172  19.460   7.081  14.662  0.4009  0.2164  0.1601
68260W        W11173  21.750  26.401  13.147  0.1454 -0.3520 -0.0593
68261W        W11174  23.940   2.061  15.250  0.1273 -0.0837  0.0027
68262W        W11175  13.586   0.228  25.689 -0.0931  0.1103  0.0805
68263W        W11176  27.270   0.336  17.036  0.0759  0.1456 -0.0370
68264W        W11177  29.947  34.257  16.722  0.0191  0.2622  0.1167
68265W        W11178  18.810   6.806  29.322 -0.2358 -0.0265  0.0095
68266W        W11179  16.362   1.842  19.823  0.2276  0.3830 -0.2006
68267W        W11180  28.901  23.421  15.162 -0.2153 -0.1322 -0.0192
68268W        W11181  23.246  28.682  26.124  0.2418 -0.0946  0.0457
68269W        W11182  13.612  33.426  27.588 -0.1878  0.2143  0.0875
68270W        W11183   7.736  24.180  28.520 -0.0612 -0.2029 -0.0017
68271W        W11184  17.663  30.401  16.367  0.0541  0.1077 -0.1603
68272W        W11185   9.763  27.977  19.363 -0.1018  0.1573 -0.2158
68273W        W11186  23.624  26.399  19.201 -0.1935 -0.1925 -0.0871
68274W        W11187  14.806  13.639  16.620  0.0210  0.1033 -0.3861
68275W        W11188  13.965  14.943  13.866  0.0292  0.0121  0.0721
68276W        W11189  23.583  26.387   3.614  0.0990 -0.2228 -0.0011
68277W        W11190  17.515   4.076  20.726  0.3159  0.0037  0.0294
68278W        W11191  20.843   9.378  16.065  0.1017  0.0262  0.1204
68279W        W11192  30.736  33.895  24.540  0.1304  0.5100  0.2665
68280W        W11193  17.361   6.607  19.574  0.0191  0.0828 -0.4430
68281W        W11194   6.750  31.718  19.885 -0.0234 -0.0703 -0.0694
68282W        W11195  16.611  13.556  22.486 -0.0589  0.2929 -0.0240
68283W        W11196  15.341  33.405  19.862  0.0147  0.1001 -0.0882
68284W        W11197  16.660  10.843  15.185  0.2096 -0.0130 -0.0298
68285W        W11198  13.913  27.125  22.277  0.1181 -0.1007  0.3320
68286W        W11199  19.813  15.884   2.316  0.1364 -0.0137 -0.0735
68287W        W11200  30.368  28.091  24.023  0.0335  0.1770 -0.1586
68288W        W11201  14.305   6.181  18.625  0.1600  0.0220 -0.2859
68289W        W11202   7.304  30.437  21.637  0.1611 -0.3432  0.0178
68290W        W11203  33.799   2.661  25.294  0.3134 -0.1705 -0.0463
68291W        W11204   7.095   1.168  25.313 -0.0597 -0.1055 -0.0380
68292W        W11205  18.197  10.250  20.867 -0.0053 -0.0302  0.1830
68293W        W11206   7.870   4.177  22.875  0.2463 -0.0518  0.1585
68294W        W11207   4.382   4.942  26.784 -0.1150  0.0216 -0.0058
68295W        W11208  16.707   1.637  22.603 -0.0446 -0.2504 -0.0141
68296W        W11209  12.259  23.567  21.296 -0.0711  0.0586  0.0745
68297W        W11210   7.137   1.842  25.418 -0.0063 -0.1685 -0.0537
68298W        W11211   2.739  16.859   2.917  0.1960  0.1322  0.2016
68299W        W11212  24.564   3.400  19.985  0.0928  0.3613 -0.1776
68300W        W11213  20.968  22.404  28.115  0.0686 -0.0219  0.0555
68301W        W11214   1.495   2.042  20.880  0.1625  0.1605  0.0410
68302W        W11215  14.769   1.212  15.787  0.5265 -0.3255 -0.0644
68303W        W11216  12.618  30.951  27.971 -0.2267  0.1837 -0.0811
68304W        W11217  20.379   2.010  26.242  0.1035  0.1545 -0.3049
68305W        W11218  11.415  33.841  29.146  0.2048  0.0827 -0.0639
68306W        W11219  15.095  27.316  24.918  0.1773 -0.3264 -0.5807
68307W        W11220   9.463  27.724  20.972 -0.2258  0.0120 -0.0456
68308W        W11221   9.127  31.012  16.357 -0.3796  0.1536  0.0949
68309W        W11222   7.734  29.792  23.844 -0.1944  0.0581  0.2023
68310W        W11223  25.001  33.967  16.811 -0.4808  0.2661 -0.0850
68311W        W11224  18.812  33.274  16.777 -0.3532  0.1865  0.0934
68312W        W11225  20.912  30.232  17.323 -0.2105 -0.1989 -0.3054
68313W        W11226   9.887  27.947  17.622  0.1373  0.0358 -0.0826
68314W        W11227  18.902   6.572  17.035  0.1789 -0.2030  0.0195
68315W        W11228   7.376  32.753  19.609 -0.1748 -0.5432  0.0173
68316W        W11229  14.467  33.546  29.171  0.0236 -0.1676 -0.0772
68317W        W11230  13.272  33.855   0.001  0.1722 -0.2175 -0.1730
68318W        W11231  15.875  33.297  22.449  0.0272 -0.1634 -0.0097
68319W        W11232   8.953  27.825  23.926 -0.1086 -0.0722 -0.0306
68320W        W11233  13.025   3.808  18.002 -0.2311  0.0318  0.0115
68321W        W11234  19.016   0.577   5.815 -0.1181  0.0344  0.2699
68322W        W11235   7.626  10.321  16.169  0.0568 -0.1557 -0.0159
68323W        W11236  20.834   4.264  26.894  0.0057 -0.3462  0.0106
68324W        W11237  21.470  30.415  22.699 -0.3613  0.1186  0.0833
68325W        W11238   4.463   1.016  29.522  0.0908  0.3903  0.1213
68326W        W11239  17.862  30.862  22.092 -0.1772 -0.1268  0.1166
68327W        W11240   8.069   1.690  22.676  0.0633 -0.0198  0.1426
68328W        W11241  17.121   8.782  24.349 -0.0395  0.1066 -0.1440
68329W        W11242  19.227   7.099  19.698 -0.0584  0.0462 -0.0509
68330W        W11243  10.661  10.898   1.509 -0.1591 -0.3912 -0.0548
68331W        W11244   6.785   4.715  21.808 -0.2373 -0.4006  0.0007
68332W        W11245  10.627   2.856  19.450 -0.0589 -0.0608 -0.0158
68333W        W11246  17.414  29.496  23.339  0.2262 -0.2592 -0.0514
68334W        W11247  10.110  29.615  21.213 -0.0185 -0.0258 -0.2468
68335W        W11248  27.193   8.688  23.291 -0.1585 -0.2322 -0.1606
68336W        W11249  21.313   0.601  24.613 -0.1063 -0.0317 -0.2839
68337W        W11250  14.627   7.489  27.188 -0.3263  0.0339 -0.1907
68338W        W11251   9.612  27.306   5.910 -0.1707 -0.0754 -0.2235
68339W        W11252  15.808   7.039  24.859 -0.0953 -0.3953 -0.1377
68340W        W11253  10.405  12.585  27.551 -0.0060  0.0891 -0.1961
68341W        W11254  11.261   4.079  19.681  0.1995 -0.1458 -0.1843
68342W        W11255  11.106   6.746  21.824  0.2350 -0.2890  0.0515
68343W        W11256  11.966   1.363  22.919  0.0354 -0.0071 -0.0787
68344W        W11257  14.462   0.850  17.035 -0.1233  0.0310  0.0608
68345W        W11258  21.566   1.611  24.633 -0.2325  0.0445 -0.1436
68346W        W11259  22.710   5.179  14.193 -0.1364  0.2867 -0.1501
68347W        W11260  21.875   0.605   9.336  0.1762 -0.0224  0.3959
68348W        W11261  24.650   2.603  15.767  0.0438 -0.0687 -0.2055
68349W        W11262  13.040   4.053  21.689 -0.0342  0.1422 -0.1903
68350W        W11263  27.774   2.133  21.277  0.0805 -0.0867  0.1162
68351W        W11264  21.042   1.285  18.584 -0.1858  0.1328 -0.1303
68352W        W11265  12.312  28.863  28.744 -0.0640  0.2161  0.0705
68353W        W11266  15.678   1.848   0.060  0.1340  0.1184 -0.0854
68354W        W11267  15.676  14.139  16.293  0.0267  0.0421 -0.1486
68355W        W11268  17.620   1.889  18.286 -0.0116 -0.1031 -0.1712
68356W        W11269  17.654   1.673  14.953  0.1917  0.4319 -0.0946
68357W        W11270  19.218   1.637  15.631 -0.1960  0.0055  0.2449
68358W        W11271   8.507   3.116  27.064  0.1759 -0.0620 -0.0103
68359W        W11272  18.445  11.667  24.389  0.2280  0.0935 -0.0222
68360W        W11273   9.366  32.175  21.566  0.0343 -0.1136  0.0692
68361W        W11274  14.553   1.492  20.007 -0.1249 -0.1531 -0.0527
68362W        W11275   1.670  32.369  21.578  0.0830  0.0100 -0.0476
68363W        W11276  12.875  15.593   8.153 -0.4961 -0.2662 -0.0970
68364W        W11277  14.222  16.464  15.774 -0.1496  0.0116  0.1973
68365W        W11278   7.444  33.869  24.018  0.1766  0.0093  0.0686
68366W        W11279  14.469  31.840  23.626 -0.1112 -0.3229  0.1850
68367W        W11280   6.386  14.069   1.650 -0.0625 -0.3159  0.0351
68368W        W11281  14.420   5.381   0.527 -0.1077  0.3280 -0.0956
68369W        W11282  22.830  19.772  22.318 -0.1461  0.0972 -0.0620
68370W        W11283   3.718  14.091  27.741  0.2265  0.1664 -0.0611
68371W        W11284  14.583  25.679  10.498 -0.1812 -0.0805  0.1188
68372W        W11285  27.991  34.188  19.554 -0.2909 -0.2609 -0.2453
68373W        W11286  14.397   4.967  24.679 -0.3689 -0.0048  0.0334
68374W        W11287  22.819   3.130  27.899 -0.0412 -0.0983 -0.0039
68375W        W11288  25.737   4.650  21.092 -0.1702  0.2122 -0.2816
68376W        W11289   9.400  10.796   6.042  0.0998 -0.1298 -0.4227
68377W        W11290  22.222   3.205  21.994 -0.0260  0.0868 -0.0824
68378W        W11291  22.164  30.705  18.625  0.2166  0.1605  0.2331
68379W        W11292  19.715   6.795   0.042 -0.2041  0.2303 -0.1878
68380W        W11293  17.304   4.201  28.734  0.1271  0.0646  0.0627
68381W        W11294   8.968  27.950  29.689  0.3221 -0.2735  0.2164
68382W        W11295  22.287  28.956  19.042  0.0158 -0.1212  0.0131
68383W        W11296  15.997  31.811  27.652  0.1599 -0.0905 -0.1826
68384W        W11297  26.848   7.620  15.628 -0.3033 -0.0780  0.1584
68385W        W11298  20.599  27.641  17.091  0.0250  0.2784 -0.1908
68386W        W11299  14.114  32.215  19.048 -0.0252 -0.2191  0.0255
68387W        W11300  10.936  12.139  16.815  0.0025  0.0867  0.2731
68388W        W11301  17.849   3.647  19.508  0.2573 -0.3508  0.3059
68389W        W11302   6.725  28.518  25.058 -0.0611  0.0797  0.1620
68390W        W11303  28.643   1.081   6.408 -0.0755 -0.2564 -0.0470
68391W        W11304  18.146  34.304  16.073  0.3840  0.0509  0.0761
68392W        W11305   6.076   4.789  28.328 -0.2522 -0.0064  0.1053
68393W        W11306  14.162  29.494  27.101 -0.0231  0.0771 -0.0789
68394W        W11307  13.500  30.366  18.287  0.0118  0.3131  0.2570
68395W        W11308  12.792  28.970   1.042  0.4348 -0.0310 -0.0034
68396W        W11309  15.539   2.605  17.278 -0.1627  0.1861  0.0142
68397W        W11310  19.051   9.244   1.305  0.1284 -0.1268 -0.3046
68398W        W11311  16.492   9.701  27.320  0.0078 -0.0823  0.2630
68399W        W11312  20.859   2.135  20.229 -0.2365  0.2810  0.0680
68400W        W11313  18.423   2.554  26.423 -0.0495  0.0740 -0.0286
68401W        W11314  27.700   5.349  25.986 -0.1053 -0.0601  0.2230
68402W        W11315  19.458  19.906  22.502 -0.3905 -0.1405 -0.0994
68403W        W11316  19.478   4.743  27.516  0.0299  0.0489 -0.0863
68404W        W11317  20.537   8.325  16.789 -0.1172  0.1384  0.2908
68405W        W11318  23.035   7.330  21.747  0.2247  0.2175 -0.1433
68406W        W11319  23.201   6.392  18.849 -0.1249  0.0766 -0.0141
68407W        W11320  10.655  26.887  19.045 -0.0683  0.1996  0.2423
68408W        W11321  25.266  28.690   0.129  0.2378  0.0116  0.0238
68409W        W11322  15.925  28.672   0.945 -0.0938  0.2014  0.4387
68410W        W11323   5.003   9.933  27.105 -0.0791 -0.2163 -0.1399
68411W        W11324  21.357  23.893  27.070 -0.0943 -0.2239 -0.2805
68412W        W11325  15.439  29.030  16.993  0.0644 -0.0691 -0.1099
68413W        W11326  26.827  33.035  14.859  0.0257  0.1662  0.0676
68414W        W11327  34.489   4.055  18.073 -0.3396 -0.2258 -0.0348
68415W        W11328  23.347   5.643  19.550 -0.1045 -0.3847 -0.0289
68416W        W11329  29.442  28.481  27.041  0.0986 -0.2649  0.0538
68417W        W11330  14.934  29.954  25.628 -0.0159 -0.1810 -0.1584
68418W        W11331  16.681  11.540  22.996  0.0501  0.2464 -0.0696
68419W        W11332  21.675  31.166  17.478 -0.1158  0.0504 -0.0826
68420W        W11333  19.459  27.586  16.369 -0.1874  0.1117  0.2487
68421W        W11334  14.222  33.752  22.045 -0.0675  0.1664  0.1115
68422W        W11335  19.446   6.058  20.733 -0.0983  0.0117 -0.0966
68423W        W11336  11.788   0.612  25.022 -0.3897 -0.0239  0.2520
68424W        W11337  12.513  34.416  17.436 -0.1423 -0.1276  0.2401
68425W        W11338  16.015   4.151  18.872 -0.0185 -0.0770  0.2923
68426W        W11339   9.623   8.663  17.729 -0.2298 -0.2203 -0.1771
68427W        W11340  16.090  22.583  17.488 -0.0705 -0.0428  0.0427
68428W        W11341  24.833  27.804  15.520  0.3543 -0.4536  0.4382
68429W        W11342  25.229  32.602  21.487  0.2942 -0.1699 -0.3193
68430W        W11343  12.043   8.211  22.898 -0.2098  0.4672  0.1021
68431W        W11344   7.093   3.851  17.760  0.0458 -0.2412 -0.0508
68432W        W11345  13.352   5.741  28.662  0.3622 -0.1425  0.1613
68433W        W11346  17.287   6.623  15.256 -0.1859 -0.1280  0.2996
68434W        W11347  10.628   1.525  19.377 -0.3660 -0.2667 -0.1720
68435W        W11348  15.503  33.943  21.292 -0.2516  0.1857 -0.1699
68436W        W11349  17.023   2.279  18.625  0.0500 -0.2843  0.3272
68437W        W11350  21.000   3.532   5.056  0.2623  0.3015  0.0128
68438W        W11351  21.691   6.082  15.644  0.0195 -0.0021  0.1348
68439W        W11352  10.045  33.157  17.328 -0.1931 -0.1803 -0.0818
68440W        W11353  12.989  23.117  20.232 -0.0409  0.2042 -0.0092
68441W        W11354  18.533  27.291  14.317 -0.1998  0.3820 -0.1501
68442W        W11355  16.331   0.961  23.937  0.1570 -0.1338 -0.0052
68443W        W11356  11.153  34.279  20.786 -0.1518 -0.1241  0.0688
68444W        W11357  16.029  33.722  16.182  0.2146 -0.3794 -0.3419
68445W        W11358  17.071  32.918  22.259 -0.0576 -0.0874 -0.0477
68446W        W11359   7.471  16.872  23.823  0.0954  0.4006  0.0109
68447W        W11360  18.877  33.485   6.777 -0.0921 -0.0043  0.1191
68448W        W11361  13.793   8.197  22.155 -0.2507  0.0133  0.1115
68449W        W11362  20.649   0.290  15.247  0.2613  0.0497  0.2103
68450W        W11363  14.265  31.680   4.304  0.2007 -0.1551  0.0263
68451W        W11364  10.849  23.654   8.654  0.0647  0.0261 -0.0113
68452W        W11365   7.472  33.532  18.137  0.3192  0.3311  0.1682
68453W        W11366  23.768  32.067  24.379 -0.0170 -0.0400 -0.2039
68454W        W11367   9.441  14.767  17.887 -0.4141  0.1378  0.2161
68455W        W11368  17.452   9.780  14.578 -0.0303  0.0393  0.0291
68456W        W11369   9.370   7.904  26.694 -0.1143  0.2445  0.0416
68457W        W11370  10.195  26.646   6.968  0.1667  0.0359 -0.1724
68458W        W11371  10.437  33.399  18.694  0.0683 -0.1918  0.0919
68459W        W11372  11.458  28.867  25.072 -0.2205  0.1157  0.0019
68460W        W11373  18.434   8.850   5.034 -0.0789 -0.2244  0.0456
68461W        W11374   8.766   6.901   0.537  0.0783  0.0975  0.4170
68462W        W11375  12.042   3.546  17.319  0.0728 -0.1583 -0.0962
68463W        W11376   9.879  23.260  20.000  0.0751  0.0734  0.3946
68464W        W11377  14.661  22.705  18.241  0.0230 -0.0265 -0.2201
68465W        W11378  13.420  33.127  22.884  0.3025  0.1539  0.0975
68466W        W11379  25.529   9.225   0.477  0.0197  0.1782  0.1408
68467W        W11380  16.919  34.295  25.352  0.0941  0.0487 -0.2820
68468W        W11381  21.283  32.931   0.794 -0.3545 -0.1878  0.3601
68469W        W11382  24.951   9.940  27.164  0.3726 -0.1330  0.0230
68470W        W11383  16.867  23.328  26.251 -0.1340 -0.1116  0.1068
68471W        W11384  20.160  27.035  23.839 -0.1237  0.2660  0.3168
68472W        W11385  21.377   7.804  21.336  0.0494 -0.0102 -0.0602
68473W        W11386  13.531   0.368  20.163  0.0504 -0.1221 -0.0610
68474W        W11387  15.949  32.602  19.873  0.1172  0.1561 -0.1676
68475W        W11388  13.968  29.577  22.819 -0.0096 -0.1789  0.2743
68476W        W11389  20.003  11.113  17.789 -0.3046 -0.1165 -0.3308
68477W        W11390  21.845   1.084  16.869 -0.1269  0.3731  0.1952
68478W        W11391  19.611  26.060  25.612  0.1703 -0.2412 -0.0901
68479W        W11392  10.982   2.346   0.085  0.1204 -0.2660 -0.0501
68480W        W11393   4.319  31.651  20.894 -0.3482  0.1263  0.1009
68481W        W11394   0.919  32.016  25.919  0.0193 -0.1001 -0.1030
68482W        W11395  16.498   0.987  19.907  0.0385  0.1157  0.1702
68483W        W11396  29.863   6.427  23.543 -0.0615  0.0615 -0.2101
68484W        W11397  17.836  10.509  17.215  0.0513 -0.0456  0.0099
68485W        W11398  10.312   0.484  25.656 -0.2042 -0.4154 -0.0850
68486W        W11399  33.158   0.465  25.178  0.2496 -0.1838 -0.0478
68487W        W11400  13.080   1.670  26.242  0.0950 -0.0254 -0.1783
68488W        W11401   8.685  29.051   5.309  0.0938 -0.0454  0.0151
68489W        W11402  17.982  32.780  23.313 -0.2313 -0.0854 -0.2759
68490W        W11403  33.261  16.858   1.150 -0.1307 -0.3347 -0.0237
68491W        W11404  12.781  32.928  26.015  0.2868 -0.1551  0.1055
68492W        W11405  26.617   8.581  17.839 -0.1455 -0.2527  0.1808
68493W        W11406  21.685   4.393  18.231 -0.0856  0.0991  0.1594
68494W        W11407  27.738   0.332  24.939  0.0011  0.0465 -0.2677
68495W        W11408  19.449  12.873  12.313  0.1859 -0.4868 -0.0462
68496W        W11409  18.296  32.973  17.510 -0.2096  0.1756 -0.1075
68497W        W11410  13.884   2.281  24.967 -0.0684 -0.0426 -0.0386
68498W        W11411  22.530   8.494  28.035  0.1283  0.3425  0.0408
68499W        W11412   6.372  25.782  22.494 -0.2251  0.2992 -0.0688
68500W        W11413  23.657  33.559   0.455 -0.1702  0.4773  0.3046
68501W        W11414  10.715   3.624  20.799 -0.1226 -0.1326 -0.2453
68502W        W11415  20.211  25.267   1.755  0.0337  0.1953  0.0256
68503W        W11416  29.640  29.855  23.957 -0.0009  0.0949  0.1913
68504W        W11417  14.386  12.149  14.915  0.1147 -0.0251  0.1424
68505W        W11418  17.586   3.461   1.408  0.0908  0.3127  0.2873
68506W        W11419  22.565   1.352  19.505 -0.0299 -0.1069  0.3459
68507W        W11420  14.707  30.838  21.303 -0.3134  0.0507 -0.3103
68508W        W11421  12.021   6.824  20.029 -0.1149 -0.0194  0.3780
68509W        W11422  15.312   4.595  24.371 -0.2719 -0.0748  0.2880
68510W        W11423  18.764  30.599  21.577  0.0884  0.0588  0.0291
68511W        W11424  16.620  34.248  23.282 -0.1330 -0.0174  0.1616
68512W        W11425  17.871  17.060  24.304 -0.0712 -0.0088  0.0417
68513W        W11426   7.684   6.597  17.749  0.0791  0.4021 -0.1358
68514W        W11427  24.351  34.172   5.123  0.1357  0.0182 -0.1056
68515W        W11428  15.358  28.325  21.867  0.1289 -0.0515 -0.1649
68516W        W11429  12.080   3.278  24.569  0.0282 -0.1867  0.0440
68517W        W11430  12.100  10.079   1.557  0.0779 -0.0150  0.2052
68518W        W11431  26.871   0.967  24.260  0.0522 -0.0162  0.0674
68519W        W11432  18.215  26.614  27.248 -0.0169 -0.0994  0.1304
68520W        W11433  23.810  30.147  23.659 -0.4892 -0.0385 -0.1092
68521W        W11434  12.476   9.944  21.253  0.1609 -0.0269 -0.4715
68522W        W11435  17.100  32.455   3.533  0.1404  0.0003 -0.1760
68523W        W11436  19.249  33.209   0.251  0.2274 -0.1252  0.1056
68524W        W11437  22.633  33.952  24.141 -0.1051  0.3019 -0.0046
68525W        W11438  12.671   5.178  26.712 -0.1142 -0.0238 -0.0541
68526W        W11439  14.670   8.255  25.099 -0.4132  0.1294  0.2368
68527W        W11440   6.500  26.088  19.811  0.1250 -0.0424  0.0442
68528W        W11441  16.665   0.137  22.958 -0.0650  0.0029  0.2804
68529W        W11442  16.837   1.236  14.663 -0.4634  0.1246 -0.0904
68530W        W11443  28.513  34.441  28.634 -0.0192  0.0020 -0.2916
68531W        W11444   9.877  27.198  21.744 -0.0676  0.0828 -0.1788
68532W        W11445  10.590   0.129  29.010  0.1695  0.2219  0.2773
68533W        W11446  13.185   1.764   1.126 -0.3180 -0.0382  0.0631
68534W        W11447   3.839  29.749  29.219  0.2490 -0.3549 -0.1795
68535W        W11448  18.086  16.239  24.195 -0.0454 -0.0971  0.1636
68536W        W11449  26.977   8.165  27.188 -0.0165  0.1241 -0.1477
68537W        W11450  10.813  32.890  28.998 -0.0986 -0.3025 -0.3980
68538W        W11451  10.703  34.023  27.328 -0.2022  0.1406  0.0606
68539W        W11452   9.741   6.885   0.452  0.0469 -0.0517 -0.1952
68540W        W11453   4.204  34.272   0.718 -0.0234  0.1646 -0.0685
68541W        W11454  31.742   4.179  27.748  0.1965 -0.2817 -0.2728
68542W        W11455  22.965   3.762  18.675 -0.0396  0.2920 -0.0649
68543W        W11456   8.876   1.730  18.812  0.1878 -0.1887 -0.1123
68544W        W11457  14.928   1.530  22.192  0.0457  0.2079  0.0621
68545W        W11458   7.223  19.652  28.437 -0.3152  0.4315  0.3330
68546W        W11459  13.344  10.403  18.670 -0.0865 -0.0887 -0.4487
68547W        W11460  15.965   7.979  25.416 -0.3033 -0.0762  0.1253
68548W        W11461  29.063  33.867  24.985  0.0123  0.2703  0.1392
68549W        W11462   4.351  28.694  27.149 -0.1051  0.1615 -0.2749
68550W        W11463  13.116  24.319  26.636  0.0286 -0.1370 -0.0061
68551W        W11464  19.489  33.756   5.865 -0.2140 -0.3356  0.2587
68552W        W11465  27.386   3.607   0.622 -0.0151 -0.2756 -0.2755
68553W        W11466  21.627   0.171   6.449  0.3385 -0.3580 -0.2037
68554W        W11467  25.735   3.463  25.166 -0.4380 -0.1269 -0.0294
68555W        W11468   8.806  33.688  22.401 -0.0500  0.0523  0.1733
68556W        W11469  20.610  28.149   1.979 -0.0045  0.0691  0.0973
68557W        W11470  19.953  19.774  22.696  0.2845  0.1096  0.1514
68558W        W11471  26.337   8.428  25.222  0.2085  0.1126  0.0160
68559W        W11472  10.282   5.650  17.003  0.0390 -0.1285 -0.1684
68560W        W11473  18.958  32.221  21.979  0.3459 -0.0301 -0.0046
68561W        W11474  11.725   7.894  21.817  0.1392  0.0416 -0.0970
68562W        W11475  17.455   1.883  26.736  0.0141  0.1468 -0.2747
68563W        W11476  16.170   1.529  15.759 -0.0675 -0.0678 -0.0771
68564W        W11477  24.560   0.064  23.902  0.0449 -0.0346 -0.3171
68565W        W11478   6.891  15.486  21.486 -0.0464 -0.1258  0.2183
68566W        W11479  14.702  25.059  19.205  0.0427  0.2739 -0.1052
68567W        W11480  13.688  32.355  27.362  0.1563  0.0870  0.2349
68568W        W11481   5.833  28.753  27.846  0.3999 -0.0134  0.0738
68569W        W11482  21.160  29.112  21.678  0.0680 -0.2344  0.1626
68570W        W11483  17.764   4.278  26.924 -0.0338 -0.1161 -0.1195
68571W        W11484  13.195  30.135  21.993 -0.1947 -0.0765  0.1692
68572W        W11485  15.094  25.628  15.073  0.0203 -0.2898  0.0238
68573W        W11486  14.356   5.895  21.355  0.1060  0.0640 -0.0568
68574W        W11487  16.533   6.983  17.632  0.2011  0.0884 -0.0508
68575W        W11488  17.226  31.693  20.753 -0.1729  0.0061 -0.1585
68576W        W11489   7.891  31.926  19.111 -0.1685 -0.0498  0.2446
68577W        W11490  16.469  31.765  21.419 -0.1905 -0.0723  0.2101
68578W        W11491   8.324  29.834  26.892 -0.0498  0.1421 -0.1046
68579W        W11492  16.427   1.322   0.495 -0.1176 -0.0467 -0.2140
68580W        W11493  20.627   2.539  19.227  0.1260  0.1036  0.2136
68581W        W11494  13.075  30.343   2.812 -0.0696 -0.0229  0.0980
68582W        W11495  26.968   4.195  21.229 -0.0633  0.3161  0.3790
68583W        W11496   9.561   1.045   1.450 -0.0553  0.0106 -0.1202
68584W        W11497   7.424  32.535   8.284 -0.0881 -0.1101 -0.1706
68585W        W11498  21.100  31.902  14.816  0.1833  0.4316 -0.0755
68586W        W11499  16.017  19.848  23.163 -0.2443 -0.0317 -0.0682
68587W        W11500   8.016   5.495  29.712 -0.0237  0.0672 -0.0790
68588W        W11501  16.946   3.484  15.041  0.4410 -0.2091  0.1439
68589W        W11502  12.958   2.958   2.571 -0.0511  0.1113  0.0605
68590W        W11503  16.294   2.451  20.626  0.1783 -0.1807 -0.1028
68591W        W11504  19.326  30.989  27.961 -0.0338 -0.3330  0.1396
68592W        W11505  20.306  30.238  14.815 -0.3747  0.0920  0.3616
68593W        W11506  10.647   6.211  28.731 -0.1467  0.1875  0.0807
68594W        W11507  17.631   5.428  28.604 -0.1183 -0.0260 -0.0705
68595W        W11508  18.360  32.928  28.585 -0.1944  0.0353 -0.1054
68596W        W11509  21.908  11.735  19.780 -0.0501  0.0764  0.1586
68597W        W11510  11.345   5.600  29.294 -0.0518  0.1816  0.0234
68598W        W11511  23.625   9.259  17.308  0.0317 -0.0552  0.0107
68599W        W11512  17.484   8.579  18.095 -0.3384  0.0213  0.3050
68600W        W11513  13.911  31.627  19.981 -0.3497 -0.2181 -0.0030
68601W        W11514  21.775  32.271  18.450 -0.1765 -0.0439 -0.2765
68602W        W11515  12.079   7.783  24.536  0.1700 -0.1457  0.3342
68603W        W11516  24.091   7.162  22.495  0.0085  0.2270 -0.2246
68604W        W11517  34.064   8.954   7.035 -0.2187 -0.1614 -0.5616
68605W        W11518  24.408  28.252   2.095 -0.1377  0.1120  0.0206
68606W        W11519  21.327   0.636  19.454 -0.2560 -0.0805  0.0861
68607W        W11520   9.813  12.517  14.811  0.3351  0.1569 -0.0515
68608W        W11521  20.259  24.950  15.089 -0.2141  0.1717  0.1094
68609W        W11522  19.940  32.855   0.093 -0.2753 -0.1266  0.1186
68610W        W11523  28.401   0.572  22.217 -0.1747  0.3177  0.2353
68611W        W11524  16.218   7.133   1.680  0.2267 -0.0778 -0.3865
68612W        W11525  22.201   0.078  29.336  0.1763  0.0561 -0.3297
68613W        W11526  14.694  28.972  27.431  0.1053  0.2669 -0.0922
68614W        W11527  19.041  34.477  25.967 -0.1078  0.1684 -0.2470
68615W        W11528  22.919   1.858  17.298 -0.1864  0.5260  0.3403
68616W        W11529  26.859   2.257  27.107  0.2417 -0.1571  0.1291
68617W        W11530  12.135  31.491   1.825 -0.0819  0.1870 -0.3186
68618W        W11531  18.369   1.242  25.593  0.1729 -0.0272 -0.0789
68619W        W11532  18.562  33.670  23.883 -0.3842  0.2895 -0.0016
68620W        W11533  19.934   5.072  28.404  0.0334  0.2149  0.1733
68621W        W11534  22.147   4.296   1.655 -0.0508  0.0057 -0.4292
68622W        W11535  18.392   0.711  21.752  0.3060 -0.0008  0.2082
68623W        W11536  21.470  26.099  24.672 -0.3253 -0.1453  0.0780
68624W        W11537  21.555  29.506  12.692  0.2714  0.1014 -0.0265
68625W        W11538  19.004   7.708   1.048  0.0596  0.1398  0.4457
68626W        W11539  21.281  33.552  28.661  0.4219 -0.0938  0.3172
68627W        W11540  21.172  27.499  27.215 -0.0610 -0.0594 -0.3663
68628W        W11541   5.459   5.247  26.616  0.2184  0.2700 -0.0245
68629W        W11542  15.102   5.207   7.063 -0.0091 -0.0866  0.0359
68630W        W11543  17.170  27.184  25.520  0.2625 -0.3432  0.5016
68631W        W11544  20.490   9.354  25.757  0.0000 -0.3434 -0.1016
68632W        W11545  16.608   6.102  24.390 -0.0613 -0.1390 -0.2345
68633W        W11546  14.857   5.784  25.563 -0.2207 -0.1452 -0.1883
68634W        W11547  19.822   1.766  25.932 -0.1039 -0.0376  0.1469
68635W        W11548  12.225  25.391   9.220 -0.2061 -0.1678  0.1572
68636W        W11549  25.445   5.242  14.185 -0.1096  0.0388 -0.1102
68637W        W11550  19.884  33.679   9.874 -0.0836  0.0317  0.0335
68638W        W11551  22.889   8.904   3.208 -0.0874 -0.0014  0.0642
68639W        W11552  16.647  33.998  29.767 -0.1817 -0.3593  0.0687
68640W        W11553  22.729   8.098   5.371 -0.2999 -0.0436 -0.2071
68641W        W11554  11.684  33.029  28.581  0.0533  0.0362 -0.2927
68642W        W11555  13.589  33.583  21.299 -0.1251 -0.1743  0.2702
68643W        W11556  27.239  11.631  17.419  0.1068 -0.2220  0.2325
68644W        W11557  24.352   3.040  24.732 -0.1016 -0.2124 -0.0748
68645W        W11558  16.157   3.416  19.374 -0.0195 -0.1611  0.2932
68646W        W11559   1.087  33.253  22.491  0.1031 -0.1703 -0.0021
68647W        W11560  15.977   4.656   0.126  0.3854 -0.3461 -0.1885
68648W        W11561  15.325  33.454   1.801  0.1292 -0.0331 -0.1994
68649W        W11562  15.764   6.012  19.661 -0.2415 -0.1424  0.1533
68650W        W11563  31.069   2.855  25.688  0.3794  0.0598  0.4187
68651W        W11564  16.577   2.709  19.905  0.1255 -0.2786 -0.0052
68652W        W11565  21.676  32.503  15.288  0.1424 -0.1734  0.0643
68653W        W11566  18.584   1.953   1.833  0.0772  0.1988 -0.1582
68654W        W11567  14.366   2.146  24.875 -0.1157 -0.1451 -0.0012
68655W        W11568  17.272  34.216   0.975  0.0928 -0.1728  0.1086
68656W        W11569  23.229   5.211  21.797  0.2120 -0.0574  0.0160
68657W        W11570  24.045   6.792  21.465 -0.0229  0.3454 -0.1428
68658W        W11571   5.132  29.485  22.075 -0.0364  0.2536 -0.1851
68659W        W11572  22.593   0.223  19.555  0.4619  0.0536  0.2357
68660W        W11573  13.972  29.946  16.659 -0.1446 -0.1140  0.0621
68661W        W11574  14.440  25.383   0.118  0.1548 -0.0759 -0.0112
68662W        W11575  14.563   4.973  21.641  0.2187 -0.1698  0.1587
68663W        W11576  14.923  28.523  14.669  0.0918 -0.0578  0.1517
68664W        W11577   5.212  34.458   0.180 -0.4217 -0.0865 -0.0768
68665W        W11578  18.530  33.234  27.728  0.1808 -0.0365 -0.0581
68666W        W11579  26.674   6.319  25.673  0.0949  0.2598  0.0543
68667W        W11580  18.238   7.284  15.288  0.0447 -0.2273 -0.1528
68668W        W11581   2.383  32.070   1.813 -0.1437 -0.0944  0.0746
68669W        W11582  17.399  27.676  25.519  0.2304 -0.2104  0.0586
68670W        W11583  24.597  31.192  26.597 -0.1517  0.0520  0.1776
68671W        W11584  16.309  34.101  19.241 -0.4168 -0.0846 -0.0751
68672W        W11585  19.723   1.665  13.703  0.1603  0.3633  0.1259
68673W        W11586  10.336  33.771  27.576  0.3537 -0.0567  0.1167
68674W        W11587   6.570   0.899  27.151  0.1944 -0.1996 -0.0939
68675W        W11588  10.203  10.976  24.318  0.5202  0.1819  0.3397
68676W        W11589  10.199   0.063  17.600  0.1846 -0.1683 -0.3325
68677W        W11590   4.725   2.505  17.339  0.2418  0.0349 -0.2447
68678W        W11591   8.596  30.104  20.482 -0.2237  0.0241  0.2072
68679W        W11592  17.944   8.870   3.133 -0.0381 -0.3682 -0.0149
68680W        W11593  23.057  30.696  16.201 -0.0127  0.0280  0.2077
68681W        W11594  14.143  28.869  17.646 -0.1875  0.2620 -0.2881
68682W        W11595   9.635  34.263  28.630 -0.1202  0.0837  0.0943
68683W        W11596  19.873  34.329  17.337 -0.3491  0.0012  0.1578
68684W        W11597  30.691   3.433  20.505 -0.1603  0.2823 -0.3807
68685W        W11598  14.979   4.979  17.636  0.0951  0.1105 -0.1823
68686W        W11599  20.789   6.164  15.026 -0.0976  0.3432 -0.1027
68687W        W11600   7.328   0.638  16.921  0.2048  0.2289 -0.5728
68688W        W11601  12.284  30.640  27.667 -0.0074  0.0395  0.0309
68689W        W11602  16.511  20.956  12.200 -0.0922 -0.1211  0.0316
68690W        W11603   8.492  26.989  27.310 -0.4065  0.0398 -0.0913
68691W        W11604  12.811   4.423  28.526  0.0705 -0.3765 -0.3319
68692W        W11605  20.421  28.877  25.167 -0.1749 -0.0832 -0.0693
68693W        W11606  27.903  21.725  22.268 -0.0762 -0.2547 -0.4858
68694W        W11607  18.652   8.541  26.604  0.1472 -0.0191 -0.4899
68695W        W11608  31.108   5.504  25.832 -0.1493  0.0208 -0.1311
68696W        W11609  25.461   2.484  20.310 -0.0815 -0.1367  0.0995
68697W        W11610  11.173  24.581  22.530  0.0862 -0.1914 -0.2995
68698W        W11611  20.468   4.267  23.987  0.1760  0.2139  0.1037
68699W        W11612   9.225  28.404  19.463 -0.0995  0.3576 -0.2454
68700W        W11613  22.186   4.593  18.061  0.2583 -0.0938  0.0549
68701W        W11614  22.700  28.139  26.708  0.1711 -0.1211 -0.1406
68702W        W11615  26.807   3.384  28.528 -0.0784  0.0268  0.2219
68703W        W11616  11.515   3.539  22.159 -0.0342  0.0603  0.0257
68704W        W11617   8.037  21.915  22.268  0.3985  0.2353  0.1068
68705W        W11618  15.359   1.359  21.099 -0.0597  0.0265 -0.0852
68706W        W11619  23.155  29.652  15.105 -0.2935  0.0813 -0.1369
68707W        W11620  14.582   7.828  18.270  0.1937 -0.0182 -0.0447
68708W        W11621   3.835  29.643  21.968 -0.1348  0.1084 -0.1951
68709W        W11622  11.438   3.075  25.153  0.0793  0.0382 -0.1181
68710W        W11623  11.442   0.876  19.054  0.0518 -0.2353 -0.0517
68711W        W11624  12.987  34.266   3.705 -0.1681  0.0399 -0.2442
68712W        W11625  14.845  13.505   1.369  0.1800 -0.3751 -0.0527
68713W        W11626  14.494   0.786  24.968  0.1185  0.1933  0.0029
68714W        W11627   1.769   9.934   0.650 -0.1649  0.1926 -0.1348
68715W        W11628  17.937  29.025  28.834 -0.0992  0.1354  0.1203
68716W        W11629  15.440   1.029  28.100 -0.0700 -0.0140  0.3137
68717W        W11630   4.936   1.895  24.769 -0.0281  0.2765 -0.1481
68718W        W11631  19.620  23.131  26.910 -0.1137  0.3066  0.0129
68719W        W11632  13.800   0.504  21.287 -0.2352 -0.2097  0.0197
68720W        W11633  11.953  33.910   7.330  0.2306  0.0247  0.1433
68721W        W11634  17.475   5.101   0.268  0.2297  0.3117  0.2589
68722W        W11635  11.850   6.330   7.476  0.4593  0.0203 -0.1017
68723W        W11636  10.751  33.422  22.235  0.4869  0.2660 -0.1340
68724W        W11637  15.278  15.926   6.316  0.0371 -0.3258  0.0335
68725W        W11638  16.638   1.172  22.340  0.0776  0.0188 -0.0893
68726W        W11639  13.722  26.841   9.351 -0.2375 -0.0579  0.0349
68727W        W11640  19.848   3.875  19.972 -0.3945 -0.0155 -0.0557
68728W        W11641  15.625   2.935  29.464  0.1840 -0.0917 -0.0531
68729W        W11642  12.064   2.371   4.244  0.3019 -0.1231  0.0528
68730W        W11643  33.341  25.910  24.023 -0.1948  0.1516 -0.1841
68731W        W11644   7.125  29.886   1.429 -0.0051  0.0747  0.1158
68732W        W11645   8.651  27.691   5.706 -0.1661 -0.0725  0.2110
68733W        W11646   8.375   2.558   4.917 -0.1024  0.0048  0.2278
68734W        W11647  20.640   3.078  26.720  0.2133 -0.1025  0.0203
68735W        W11648  11.743  13.088  23.491 -0.0435 -0.0637  0.2488
68736W        W11649  23.009   4.358  15.783 -0.0367 -0.2281 -0.4329
68737W        W11650  17.045   5.763   1.096  0.0700  0.0429 -0.3559
68738W        W11651  17.355  32.268  20.035 -0.1314  0.0122  0.2435
68739W        W11652   8.456   5.555  24.541 -0.1121 -0.0844 -0.0456
68740W        W11653  24.045   7.970  23.019 -0.0738  0.0141 -0.1336
68741W        W11654  21.779   3.514  27.959  0.2089  0.0046 -0.1012
68742W        W11655  17.960   2.026   2.024  0.1927 -0.1530 -0.1203
68743W        W11656  17.922  34.228  22.764 -0.0193 -0.5240 -0.3048
68744W        W11657  16.215   4.968  28.444  0.0075  0.2599 -0.1699
68745W        W11658  24.283  11.180  18.717 -0.0821  0.1526  0.2729
68746W        W11659  13.189   6.901  19.064 -0.0699  0.0823  0.1839
68747W        W11660  20.503  33.719   1.966  0.3642 -0.0995 -0.0010
68748W        W11661  18.679  27.991  28.624  0.1734  0.2473 -0.2906
68749W        W11662  17.058   8.413  25.614 -0.0793  0.0400 -0.3939
68750W        W11663  16.709  32.174  20.711 -0.0985  0.3808  0.0470
68751W        W11664  19.363   8.292   6.480  0.0922 -0.1182 -0.0638
68752W        W11665  23.663   3.125   2.014 -0.0858  0.0761  0.2005
68753W        W11666  21.929   6.387  16.233  0.0992 -0.1491 -0.0919
68754W        W11667  24.680   6.384  26.338  0.0987 -0.0694  0.0518
68755W        W11668  11.222  29.527  25.724  0.1867 -0.3390 -0.5089
68756W        W11669  13.533   0.020  26.680  0.0521 -0.1031 -0.1062
68757W        W11670  22.494  26.161   1.928 -0.2534 -0.2235 -0.1084
68758W        W11671   5.029   5.175  28.829  0.0529 -0.0479  0.1266
68759W        W11672  13.911   3.933  29.170  0.0434  0.1081  0.3741
68760W        W11673  11.893  34.389  27.012  0.3020  0.0827  0.2001
68761W        W11674  22.961  33.565  22.329  0.1203 -0.3897  0.3451
68762W        W11675   3.533   9.646  24.704 -0.4160  0.1776 -0.0411
68763W        W11676  24.265  33.302  24.767 -0.0912  0.0392  0.4423
68764W        W11677  17.963   0.268  21.168  0.0428 -0.1201 -0.1370
68765W        W11678  18.644  25.867  23.510  0.2766  0.0761  0.2463
68766W        W11679  24.584  34.153   6.256  0.0401  0.2608 -0.0560
68767W        W11680  13.645  10.736   2.116  0.0196  0.2125 -0.2166
68768W        W11681  19.677   2.950   4.830  0.1455  0.2898  0.0096
68769W        W11682  19.538  33.115  25.791 -0.0341  0.1251  0.2593
68770W        W11683  14.539   8.620  18.799  0.2598 -0.1527  0.0428
68771W        W11684   7.747  22.627  22.950 -0.0273  0.0049 -0.1471
68772W        W11685  25.313  30.191  13.553  0.0436  0.0309  0.3725
68773W        W11686  25.235   6.981  25.879 -0.0421 -0.0847  0.1641
68774W        W11687   7.216   5.407  13.853 -0.1441  0.1837  0.2062
68775W        W11688  14.195  30.369   0.574 -0.0905  0.0653 -0.0677
68776W        W11689   6.986  25.334   2.122  0.0303 -0.0655 -0.3400
68777W        W11690  16.658   3.368  27.986  0.2160 -0.0935 -0.0798
68778W        W11691  15.734  34.332  28.967 -0.1562 -0.3253 -0.4554
68779W        W11692  20.045  11.134   7.640 -0.2574 -0.2046  0.1650
68780W        W11693   4.336   9.985  10.905  0.1596 -0.2404  0.0867
68781W        W11694  11.644  12.062   2.761 -0.0438 -0.1326  0.0988
68782W        W11695  17.642  28.052   0.956  0.1583  0.2800  0.0287
68783W        W11696  13.404   1.405  26.666  0.1120 -0.2545 -0.1389
68784W        W11697  21.383   4.631  22.095 -0.4041  0.2382 -0.0809
68785W        W11698  13.747  11.291   7.694 -0.0149 -0.1701 -0.1855
68786W        W11699  31.087   6.539  19.632 -0.0466 -0.0065 -0.1098
68787W        W11700   9.398  31.822  25.193  0.0874 -0.0583 -0.1207
68788W        W11701   9.220  13.263  22.489 -0.1821  0.3586  0.2724
68789W        W11702  19.250   3.085   4.033  0.2187  0.0163  0.1960
68790W        W11703   3.308   1.548  20.396  0.2968 -0.1936 -0.0725
68791W        W11704  33.702  11.400   1.687  0.0166  0.2631 -0.0365
68792W        W11705  16.931   3.967   0.455 -0.0052  0.0945 -0.0898
68793W        W11706  10.823  12.214   0.899 -0.1822 -0.0469  0.1482
68794W        W11707  23.854  25.660  27.190 -0.0181  0.0917 -0.0099
68795W        W11708   8.907  33.151  28.122 -0.2267 -0.1138 -0.0274
68796W        W11709  20.063  33.196  22.731  0.1358 -0.2217  0.0622
68797W        W11710  16.463  26.099   1.917  0.3271  0.0664 -0.3463
68798W        W11711  17.243   1.012  22.099  0.1468  0.1944 -0.1797
68799W        W11712  18.647  10.274   2.364  0.0381  0.1859 -0.0066
68800W        W11713  20.381   1.842   2.064 -0.2140 -0.2717 -0.0820
68801W        W11714  12.128  32.100  16.497 -0.1105  0.1091  0.0725
68802W        W11715  15.023   0.990   1.397 -0.0247  0.5022 -0.2266
68803W        W11716  10.460  34.211  24.640  0.2839 -0.2353  0.1852
68804W        W11717  13.591  10.881  25.944  0.1312 -0.0023  0.0078
68805W        W11718  12.868   7.395  21.039  0.0228  0.0637 -0.0492
68806W        W11719   4.063   0.518  23.932  0.0415 -0.0919  0.0152
68807W        W11720  13.865  32.175  10.184 -0.0789 -0.0679  0.4507
68808W        W11721  14.413   1.176  20.897  0.1721 -0.1826 -0.2783
68809W        W11722   4.601  28.167   4.660 -0.1580  0.1162 -0.1717
68810W        W11723  19.698   9.870   8.087  0.0615 -0.1651  0.3660
68811W        W11724  10.976   0.877  19.239  0.2675 -0.0759 -0.0967
68812W        W11725  21.338  25.004  22.865  0.0814 -0.2088 -0.0956
68813W        W11726   8.598  31.885   0.670 -0.2889 -0.1360  0.0982
68814W        W11727   5.883  25.906  29.356  0.1928  0.2855  0.0588
68815W        W11728  27.116  28.838  21.081 -0.1600 -0.2129 -0.2655
68816W        W11729  11.621  12.149  17.160 -0.2781  0.0496 -0.1192
68817W        W11730  15.053   8.733  27.790 -0.0800 -0.2373 -0.1891
68818W        W11731  21.822   1.853  19.930  0.1561  0.2266 -0.3989
68819W        W11732  22.490   2.947   8.121 -0.4226  0.0980  0.0989
68820W        W11733  16.030   2.537  17.503 -0.3183  0.1743  0.1337
68821W        W11734  20.223  12.667  20.264 -0.0507  0.2337 -0.2286
68822W        W11735  13.713  34.244  19.899  0.3688 -0.0606 -0.0144
68823W        W11736  18.423  32.063  29.511 -0.2094 -0.0298 -0.2778
68824W        W11737  20.647   9.938  29.586  0.1021 -0.1598  0.1179
68825W        W11738  10.555  34.418   2.586 -0.0394 -0.1266 -0.2152
68826W        W11739  18.403  34.493   2.027 -0.1244 -0.2812  0.2977
68827W        W11740  21.491   1.716   0.639 -0.0433  0.1031  0.1078
68828W        W11741  18.987  31.848   2.394 -0.2802  0.1147 -0.2446
68829W        W11742  17.706   0.148   5.747  0.0057  0.2961 -0.0186
68830W        W11743   6.452   6.110  25.020  0.0285  0.1422 -0.1257
68831W        W11744  11.073  15.135  24.965 -0.2925 -0.2003 -0.0047
68832W        W11745  17.689  10.343   0.291 -0.0669  0.1064 -0.0070
68833W        W11746   7.221  28.760   3.626 -0.1586  0.1600 -0.3043
68834W        W11747  23.236   3.675  15.128 -0.0430 -0.2579  0.2684
68835W        W11748  29.521   0.062  23.307  0.3027 -0.1411 -0.0182
68836W        W11749  13.217   1.157   3.864  0.1149 -0.0324 -0.0162
68837W        W11750  17.561   8.060  24.716  0.1196  0.0194 -0.0629
68838W        W11751  15.842   8.445  24.137  0.1750  0.2574  0.1041
68839W        W11752   7.442   0.616  27.676 -0.1408  0.1163 -0.2062
68840W        W11753  17.847  32.472  26.869 -0.2304  0.3822  0.0051
68841W        W11754  13.546  32.790   1.054 -0.4221  0.1108 -0.0213
68842W        W11755   6.859  30.333  21.854  0.3050  0.0849 -0.2955
68843W        W11756   2.193  27.564  23.262 -0.1356 -0.1365  0.0135
68844W        W11757  23.149   3.017   1.239 -0.0617 -0.1986  0.0516
68845W        W11758  29.478   4.020  28.287  0.1585 -0.1739  0.0870
68846W        W11759   8.732  20.466  17.774 -0.1848 -0.0301  0.1160
68847W        W11760  19.268  28.777  28.877  0.0628  0.0119  0.1364
68848W        W11761  21.089   9.821   2.689 -0.2495 -0.0189 -0.1116
68849W        W11762  13.041   7.474  21.735 -0.0324 -0.1607  0.1940
68850W        W11763  22.262  28.850   3.973 -0.3000 -0.0958 -0.0663
68851W        W11764  14.086   8.684  23.499  0.2563  0.0809  0.1928
68852W        W11765  19.662  31.642   7.008 -0.1282  0.0825 -0.2404
68853W        W11766   7.851   0.887  18.189  0.1240 -0.0916  0.0468
68854W        W11767  22.562   0.736   2.633 -0.0952  0.0557 -0.0443
68855W        W11768  24.994  31.497  19.372 -0.2337  0.0744 -0.0605
68856W        W11769  23.222   8.589   8.276  0.0381  0.0525  0.0054
68857W        W11770  14.721   7.821   1.732  0.0280  0.1032  0.2833
68858W        W11771  22.964   1.266  22.579 -0.0389  0.0908  0.0048
68859W        W11772  25.382   7.340   1.309 -0.4846 -0.1201 -0.1451
68860W        W11773  15.380  34.228  15.563  0.3221 -0.1723 -0.0983
68861W        W11774  22.951   0.371  26.001  0.0711 -0.3034  0.3273
68862W        W11775  15.951  33.274  20.703 -0.1782  0.6226 -0.2216
68863W        W11776  32.254   6.119  11.377 -0.0948  0.0523 -0.1595
68864W        W11777  10.073   9.020  16.496 -0.0782  0.2516 -0.1063
68865W        W11778  12.404  27.916  23.630 -0.2445  0.0197  0.0364
68866W        W11779  15.492  33.540  28.407  0.2455 -0.1959 -0.1143
68867W        W11780   4.101  31.741  25.652  0.1248 -0.4266  0.0561
68868W        W11781  10.552   4.957   1.662  0.0062 -0.2678  0.1823
68869W        W11782  13.898   3.957  27.401 -0.2734 -0.0548 -0.2847
68870W        W11783  20.992   1.200  26.726  0.0503 -0.0118  0.2759
68871W        W11784  18.918  24.054  23.382 -0.4546  0.1968  0.1798
68872W        W11785  10.986  33.229   0.416 -0.1375 -0.2497  0.3821
68873W        W11786  17.729   4.055  26.460  0.1818  0.5494  0.3113
68874W        W11787   3.370  29.187  18.793  0.1241  0.2258 -0.1764
68875W        W11788  17.046  32.863  20.065 -0.2159  0.4390  0.0012
68876W        W11789  14.283  10.422  15.705  0.2829 -0.1768 -0.1237
68877W        W11790  20.963  31.239  22.631 -0.0108  0.0211  0.2242
68878W        W11791   1.850   3.929  25.520  0.1493  0.1129  0.1072
68879W        W11792  21.387   3.139   8.546  0.1855  0.1479 -0.2676
68880W        W11793  11.700  33.153  24.465 -0.2601 -0.1203 -0.0224
68881W        W11794   7.100  23.417   1.894 -0.2316 -0.2223 -0.1530
68882W        W11795   9.835   1.871  12.036 -0.2246  0.1608 -0.2578
68883W        W11796  16.874  31.567  27.966 -0.2556 -0.0259 -0.0661
68884W        W11797  26.297   7.151   2.877 -0.2530  0.0247  0.1491
68885W        W11798   9.486   1.599  11.805 -0.1252 -0.3167  0.1013
68886W        W11799  23.666  26.751  17.882  0.0318 -0.0376  0.0148
68887W        W11800   0.903   6.577  24.968 -0.1378  0.1126 -0.0306
68888W        W11801  18.857   1.622   3.187 -0.1678  0.1291  0.1130
68889W        W11802  15.681  11.847  21.303  0.1024 -0.1699  0.1798
68890W        W11803  26.625  30.757   6.818 -0.2088  0.0533  0.1054
68891W        W11804  18.523   8.914  28.085 -0.0211 -0.3437 -0.1018
68892W        W11805   6.304   3.553  26.585 -0.0476  0.0115  0.1481
68893W        W11806   9.912  31.314  23.142 -0.0649  0.3024  0.1692
68894W        W11807  18.149   6.768  25.244 -0.0373  0.0774  0.2616
68895W        W11808  10.154   7.785  16.114  0.1029  0.0558  0.3856
68896W        W11809   8.009  33.320   3.149 -0.1029  0.3464  0.0575
68897W        W11810   7.100  31.159   3.905  0.0424  0.0853  0.2971
68898W        W11811   9.122  30.274   2.552  0.0888 -0.4047 -0.1146
68899W        W11812  18.984   2.988  29.390  0.0017  0.1698 -0.1155
68900W        W11813  22.770  33.426  26.234 -0.1593 -0.0150 -0.0909
68901W        W11814  10.928   2.118  29.354 -0.0180 -0.2338  0.0686
68902W        W11815  10.799   2.463  18.120  0.0277  0.0956  0.1771
68903W        W11816  10.127   8.282  23.165  0.3375 -0.1139  0.0186
68904W        W11817  17.978   2.903  28.546 -0.3940 -0.0329  0.2245
68905W        W11818  21.434  33.463  29.561  0.3246 -0.0635  0.0550
68906W        W11819   9.183   9.767  26.691 -0.0226 -0.3649  0.0904
68907W        W11820   8.594  27.593  21.108  0.1038 -0.1043 -0.1261
68908W        W11821  13.849  12.839  23.423 -0.4229 -0.0310 -0.0469
68909W        W11822  16.129  33.314  10.878  0.4480  0.0109 -0.2871
68910W        W11823  17.376  26.619  22.896 -0.1261 -0.1750  0.1246
68911W        W11824  11.661   7.663  18.663  0.3242  0.0419  0.0439
68912W        W11825  10.976  28.249  25.761  0.0777  0.1890  0.1466
68913W        W11826  23.253  34.455   2.214  0.1428  0.1578 -0.0417
68914W        W11827  20.142   6.431  23.798  0.0493 -0.2609 -0.0801
68915W        W11828  11.470  26.135  26.486  0.0772 -0.1797 -0.0214
68916W        W11829   9.292  34.376  26.279  0.2644 -0.0757 -0.5787
68917W        W11830  18.476  28.899  28.308 -0.2900 -0.2818  0.0999
68918W        W11831  14.036   9.371  29.478 -0.0114  0.2207 -0.1496
68919W        W11832   8.863  31.395  24.715 -0.0947  0.1522  0.1329
68920W        W11833  10.865  11.893  18.061 -0.1865  0.1939  0.0886
68921W        W11834  16.956  28.118  20.868 -0.0458  0.1405 -0.0103
68922W        W11835  13.897   3.611  18.515 -0.2520 -0.3461  0.1247
68923W        W11836  14.349   2.989  28.979  0.1336  0.2832  0.2141
68924W        W11837  20.005   0.031  19.566 -0.1949  0.1398  0.0541
68925W        W11838  23.392  31.178  17.671  0.3739  0.1637  0.0510
68926W        W11839  17.047   3.430   4.972  0.0408 -0.1650 -0.1185
68927W        W11840  15.214  31.805  29.614 -0.1835 -0.0680  0.2865
68928W        W11841  34.473  28.208  18.209  0.0567  0.1022 -0.3718
68929W        W11842  13.470   3.662   4.130 -0.0836 -0.1638 -0.3223
68930W        W11843  21.030   2.569  19.581  0.1089  0.1205 -0.2843
68931W        W11844  12.756  31.751  23.587 -0.0854 -0.0535 -0.1516
68932W        W11845  18.307  34.335  23.771 -0.1600  0.0438 -0.0287
68933W        W11846  16.689   3.444  22.707 -0.4044 -0.0111  0.1405
68934W        W11847  14.559   3.240  29.490  0.0963 -0.3496  0.3200
68935W        W11848  10.167  29.110  26.951 -0.1434 -0.1258  0.2137
68936W        W11849  14.013  32.813  20.991 -0.0273  0.1582 -0.1745
68937W        W11850  19.512  29.859  20.728 -0.3503 -0.1998  0.2064
68938W        W11851  13.483  30.829   1.831  0.1013  0.1055 -0.1234
68939W        W11852  25.131  34.448  20.254 -0.0148  0.4757  0.0783
68940W        W11853  14.769   3.837   2.097 -0.0516 -0.0036  0.1045
68941W        W11854  11.942   6.089   9.618  0.1750 -0.1118 -0.2534
68942W        W11855  28.732   2.558  26.847 -0.0153  0.1169 -0.1322
68943W        W11856  15.561  24.170  22.912  0.1463  0.0415  0.1111
68944W        W11857  18.180  25.016  27.804 -0.2616  0.0071 -0.2218
68945W        W11858  14.382   6.977   9.771 -0.1787  0.3154  0.5263
68946W        W11859  21.956  30.620  27.608 -0.2118  0.0855  0.0343
68947W        W11860  14.623  27.646   2.144 -0.0804  0.0945 -0.1239
68948W        W11861  11.300   2.252  18.105  0.2094 -0.1960 -0.2863
68949W        W11862  15.582   1.506  20.462  0.0428  0.1671  0.0470
68950W        W11863  14.215   5.701   0.956  0.4686  0.1425 -0.3353
68951W        W11864  18.158  10.583   7.987 -0.2707  0.0757  0.0194
68952W        W11865  20.834   3.135   5.540  0.0743 -0.3900  0.0636
68953W        W11866  22.414   3.701   2.523 -0.0588  0.0782 -0.3035
68954W        W11867   1.986  22.958   8.496 -0.2542  0.0352 -0.1806
68955W        W11868  26.248   9.401  21.824 -0.0915  0.1658 -0.4836
68956W        W11869  21.399   7.666   9.398 -0.0515 -0.0569 -0.0495
68957W        W11870   3.107  33.522  21.632  0.1001  0.1985 -0.1520
68958W        W11871  16.970  31.566  29.142 -0.2255 -0.1741  0.0896
68959W        W11872  17.959  33.467  28.770 -0.0652  0.1534 -0.1229
68960W        W11873  20.053   4.571   1.388  0.0819 -0.0662 -0.0754
68961W        W11874  19.976  27.082   2.787  0.1888  0.1379 -0.0464
68962W        W11875  22.698   0.356  24.091 -0.0674 -0.0292 -0.0567
68963W        W11876  10.065  25.988   7.989 -0.1117 -0.0088  0.0838
68964W        W11877  17.358  27.856  21.096  0.2128  0.2190  0.0405
68965W        W11878  12.797  30.161  24.801 -0.0650  0.1057  0.0095
68966W        W11879  24.938   5.663   8.683 -0.4985 -0.2180  0.1047
68967W        W11880  30.073   3.903   3.688  0.1468  0.0514 -0.1692
68968W        W11881  12.749  24.535  24.908  0.1125 -0.1535  0.3658
68969W        W11882  14.174   6.411   9.485 -0.0386 -0.2736  0.2439
68970W        W11883  13.541  23.930   4.827 -0.2121 -0.3138  0.2488
68971W        W11884  21.541   5.836  23.173 -0.3211 -0.0815  0.0297
68972W        W11885  14.933  10.462  22.766  0.1003 -0.1269  0.1538
68973W        W11886  16.056   3.796   1.775 -0.0776  0.0214  0.2092
68974W        W11887   5.202  33.387  25.322 -0.1462 -0.2400  0.0163
68975W        W11888  10.642   1.323  22.453 -0.1083 -0.0022 -0.4868
68976W        W11889  13.546   5.129  28.753  0.0957  0.0650 -0.0642
68977W        W11890  14.267  14.095   1.915 -0.1412 -0.0423 -0.1084
68978W        W11891   4.056  15.858   1.810 -0.2118 -0.0527  0.2479
68979W        W11892  19.223  11.084  25.996  0.1008 -0.1449  0.1242
68980W        W11893  21.063   0.284  25.671  0.2288 -0.0633 -0.0454
68981W        W11894  22.238   9.466  28.376  0.1559 -0.0363  0.1787
68982W        W11895  19.335  30.775  16.636  0.1570  0.3348  0.1786
68983W        W11896   2.444  30.502  22.516  0.1276 -0.0923 -0.0303
68984W        W11897  14.497  30.714   4.461 -0.5836  0.1121  0.2687
68985W        W11898  16.350  13.778  15.936 -0.2956  0.0707  0.0401
68986W        W11899   9.019   7.649  27.435 -0.0309  0.0953 -0.6097
68987W        W11900  26.943   2.254   2.896 -0.1321 -0.1570  0.2811
68988W        W11901  18.282  25.352  29.644 -0.0391  0.0316 -0.1031
68989W        W11902  11.000  33.795  23.467 -0.0555  0.1529 -0.0536
68990W        W11903  21.590  29.628  22.261 -0.5585 -0.4117  0.0576
68991W        W11904   6.371   2.284  25.053 -0.0117  0.0952  0.1733
68992W        W11905  17.742   2.185  23.280  0.0295 -0.0308  0.2997
68993W        W11906  20.702  28.416   5.019  0.0715  0.0608  0.0053
68994W        W11907   4.249   7.591  29.616  0.2766 -0.0442 -0.1790
68995W        W11908  17.799   5.346   5.577 -0.2013  0.1074  0.1558
68996W        W11909  16.624   9.297  13.201  0.1743  0.0995  0.1778
68997W        W11910   7.511   2.630   9.654 -0.0251 -0.0616 -0.2626
68998W        W11911  24.507   0.676  16.658  0.1443 -0.1494  0.1535
68999W        W11912  10.951  23.735  29.179  0.1400 -0.0298 -0.0704
69000W        W11913   2.737   3.849  24.675  0.4926  0.1758 -0.5045
69001W        W11914  13.100  33.753  20.992 -0.1669 -0.3028  0.1815
69002W        W11915  16.910   1.023   4.136  0.3010  0.0802  0.2107
69003W        W11916  28.788   1.754  22.414  0.1489 -0.0343 -0.1282
69004W        W11917  17.701  21.136  18.124 -0.1758 -0.2197  0.1915
69005W        W11918  21.313   1.028   1.237  0.2412  0.3012  0.3427
69006W        W11919  17.260  34.440   4.349  0.2318  0.1709 -0.2175
69007W        W11920  11.302   2.604  11.538  0.0135  0.0523  0.2032
69008W        W11921   7.651  33.293  27.899 -0.0541 -0.3383  0.0975
69009W        W11922  12.138   4.609  25.835  0.1663 -0.3194 -0.1961
69010W        W11923  17.597   5.312  27.303  0.0221  0.1670  0.1693
69011W        W11924  11.932  32.385   0.476 -0.3048 -0.2462 -0.1400
69012W        W11925   7.609  10.106  24.495  0.0202  0.0549  0.0564
69013W        W11926   3.437   3.702  23.174 -0.0129 -0.1856 -0.3859
69014W        W11927   2.150  24.709  27.647 -0.1419 -0.0887  0.2629
69015W        W11928  20.376   1.455   3.591  0.1183 -0.0656  0.4040
69016W        W11929   3.425   3.565   3.120 -0.1392 -0.1300 -0.1378
69017W        W11930  25.737   0.891  22.392  0.3926  0.1425  0.2770
69018W        W11931  11.497   3.743  23.942  0.0235 -0.0944  0.0497
69019W        W11932  14.193   4.431   1.151 -0.0388  0.2170 -0.1169
69020W        W11933  25.125  16.287  28.252  0.1574 -0.1160  0.2716
69021W        W11934  17.147   0.076  26.198  0.1071  0.4279 -0.0912
69022W        W11935  11.957  27.350   1.710  0.3922 -0.0141  0.3156
69023W        W11936  20.587   2.002   5.651  0.0215 -0.2017 -0.4058
69024W        W11937  27.341  29.093  18.389 -0.3384  0.0480 -0.1346
69025W        W11938  22.276  30.180  25.163  0.2110 -0.1266  0.2546
69026W        W11939  18.422  12.650  16.970  0.0579 -0.3439  0.0224
69027W        W11940  21.845   2.752  25.408 -0.0219 -0.1517  0.1322
69028W        W11941  11.771  31.152  29.180 -0.2518 -0.0634 -0.1549
69029W        W11942  14.753  13.802  23.139 -0.0188 -0.2427  0.3385
69030W        W11943   9.918   0.816  25.646 -0.4117 -0.0161  0.3167
69031W        W11944  18.195  11.644   0.005  0.0483 -0.1825 -0.0082
69032W        W11945  14.416   1.504  29.515 -0.1447 -0.0093  0.3944
69033W        W11946  21.990   3.192   9.398 -0.0340  0.2986 -0.1530
69034W        W11947  16.710  13.332  27.404 -0.0345 -0.2772  0.1761
69035W        W11948  11.702   0.290  21.906 -0.1864 -0.3537  0.1265
69036W        W11949  13.497  30.783   1.259 -0.1074 -0.0292 -0.1874
69037W        W11950  10.288  33.480  10.415 -0.1827 -0.1732  0.0002
69038W        W11951  11.744  31.170  25.250 -0.2117 -0.2012  0.0069
69039W        W11952   9.492   1.991   5.812 -0.1369  0.2192 -0.0171
69040W        W11953  14.321   1.072  28.222 -0.1515  0.1721 -0.0570
69041W        W11954  33.371   2.016  27.467  0.0559 -0.0508  0.2830
69042W        W11955  16.281   5.461  26.802  0.2141 -0.0939  0.4289
69043W        W11956  15.961  21.996  16.845 -0.0958  0.0957  0.2237
69044W        W11957  15.644  11.776  23.774  0.0427 -0.0090 -0.2428
69045W        W11958  23.163  21.670  20.101  0.2300 -0.0288  0.0138
69046W        W11959  18.501   1.435  24.097  0.1970 -0.0888  0.2748
69047W        W11960  13.379   4.295   0.258 -0.4195  0.0071  0.0187
69048W        W11961  10.349  10.314   7.451  0.0922  0.2131 -0.3715
69049W        W11962  10.442  26.923  25.480 -0.0786 -0.0935  0.0758
69050W        W11963   5.482   3.418  24.693  0.1131  0.0699 -0.0558
69051W        W11964  16.204   8.866  25.493  0.1432  0.1852  0.1851
69052W        W11965  10.059   7.097  19.299  0.0920 -0.0833  0.0123
69053W        W11966  27.314  33.034   2.428 -0.1577  0.1919 -0.0779
69054W        W11967  11.491   7.628  24.276  0.1253 -0.3155 -0.4317
69055W        W11968  18.740   2.200  16.757 -0.0875  0.0867 -0.3287
69056W        W11969  27.437  29.578  26.262 -0.3499  0.0604 -0.1870
69057W        W11970  13.986   4.718  19.805 -0.0165 -0.2770 -0.0564
69058W        W11971   6.601   9.286  25.036  0.1569  0.2984 -0.1984
69059W        W11972  17.020   2.274  17.657 -0.2954 -0.2047 -0.0401
69060W        W11973  11.396   8.307   0.968 -0.1550 -0.1537 -0.1393
69061W        W11974  22.778   2.271  15.578 -0.0166  0.0824  0.0067
69062W        W11975  13.255   9.446  25.573  0.0402  0.1667  0.4271
69063W        W11976  14.932  32.154   2.338  0.1210 -0.0575  0.0530
69064W        W11977   6.832  23.931   1.228  0.0020  0.2148  0.0984
69065W        W11978  16.969   0.935  22.668 -0.1142 -0.1093 -0.3641
69066W        W11979  10.493   6.943  26.862 -0.0539  0.0586  0.0975
69067W        W11980  24.884  27.973   4.462 -0.0547  0.0562  0.2322
69068W        W11981   1.943  27.060  24.126 -0.0293  0.1022  0.2123
69069W        W11982  21.710  27.068  24.609  0.1435 -0.1289 -0.1294
69070W        W11983   3.806   6.387   1.276  0.2467  0.0101  0.1800
69071W        W11984  16.090   4.134  29.727 -0.1981 -0.0049 -0.0605
69072W        W11985  25.281   0.672  23.490 -0.0147 -0.0828  0.2197
69073W        W11986  14.482  12.055  22.796  0.2225 -0.1561  0.1390
69074W        W11987   7.532  32.335   7.830  0.0913 -0.2605  0.1318
69075W        W11988  33.649   9.813  24.112 -0.3558  0.4554  0.2508
69076W        W11989   5.096  31.635   3.816 -0.2695  0.3160 -0.1416
69077W        W11990  12.964  33.636  24.447  0.4994  0.0078  0.2620
69078W        W11991  10.986  30.711  26.668  0.0624 -0.2298 -0.1061
69079W        W11992   5.372  25.707  20.846  0.2768 -0.0331  0.0805
69080W        W11993  23.021  31.293  24.626  0.0416 -0.4427  0.1294
69081W        W11994  18.635   6.441   0.994 -0.0733 -0.2153  0.0025
69082W        W11995  16.464  27.498   2.444  0.1383 -0.1149 -0.1309
69083W        W11996   4.088   2.545   0.464  0.1360 -0.4005 -0.3183
69084W        W11997  21.878   5.519  20.377 -0.1872 -0.2164  0.2888
69085W        W11998  15.395   1.284  22.072  0.4085 -0.2715 -0.0368
69086W        W11999  18.747  26.882  23.722 -0.2030  0.2227  0.0591
69087W        W12000  25.779  33.927  26.371 -0.2199 -0.2852  0.0187
69088W        W12001  21.495  28.568  25.770 -0.1175 -0.2426  0.0086
69089W        W12002  18.190  27.947  28.618  0.0817 -0.1710  0.3919
69090W        W12003  20.074   3.390  19.875 -0.4421 -0.3044 -0.2692
69091W        W12004  19.207   3.018  21.670  0.0377 -0.3456 -0.1417
69092W        W12005  16.754  12.779   1.177  0.2519  0.1816 -0.0043
69093W        W12006  14.092   2.805  15.947 -0.0571  0.0849  0.0730
69094W        W12007  17.180   3.154  27.362  0.0121  0.0679  0.1600
69095W        W12008  16.182   2.258  21.999  0.3119 -0.0165  0.3723
69096W        W12009  17.058  29.749  19.847 -0.1655  0.2879  0.0958
69097W        W12010  12.429  12.863   2.918 -0.1710  0.1112 -0.2865
69098W        W12011  17.514  24.619  20.997  0.0316  0.1625  0.0763
69099W        W12012  15.526   9.937  26.225 -0.2135  0.3554  0.2236
69100W        W12013   3.860  27.851   7.413 -0.3031 -0.0555  0.2306
69101W        W12014  19.946  25.197  26.493  0.4425 -0.2481  0.0321
69102W        W12015   0.751   1.773  27.451  0.1738  0.0829  0.0854
69103W        W12016  24.504   9.090  21.689  0.2187  0.2047 -0.1421
69104W        W12017  14.529   2.802   1.781  0.1317  0.4743 -0.0451
69105W        W12018  21.148  27.359   2.860 -0.1994  0.1118  0.1853
69106W        W12019   4.292  24.843  27.516  0.0770 -0.0455 -0.1912
69107W        W12020  14.588  31.039  29.364 -0.0513 -0.0485  0.1967
69108W        W12021  15.837   6.703  27.062 -0.2374  0.1985 -0.1456
69109W        W12022  16.972   1.960  26.508 -0.1676 -0.1801 -0.1816
69110W        W12023  17.057  28.389   9.398 -0.3538  0.1519  0.1054
69111W        W12024  29.598   1.559  24.820 -0.0564  0.1699 -0.2281
69112W        W12025  22.915  32.449  25.692 -0.2188  0.3918 -0.3090
69113W        W12026  11.690   5.278  24.948  0.1063 -0.0229 -0.0418
69114W        W12027  16.797  11.844   6.982  0.4053 -0.2683  0.2727
69115W        W12028  19.990  32.436   0.320  0.3311  0.1418  0.0642
69116W        W12029  23.160   0.005  25.209  0.0093  0.2823  0.1558
69117W        W12030   5.083  28.097   7.085  0.2388 -0.0289 -0.3269
69118W        W12031   6.867  28.562   3.107  0.1338 -0.2796  0.1506
69119W        W12032  14.850   0.293   3.529  0.0383  0.2106 -0.2329
69120W        W12033   8.523  33.977   2.454 -0.0979  0.0352 -0.2262
69121W        W12034  13.861   4.882   6.432  0.0703  0.0303 -0.3646
69122W        W12035   3.902  33.386  20.642  0.3318  0.0853  0.0743
69123W        W12036  31.184   4.336  11.088  0.0369 -0.0928  0.1297
69124W        W12037  23.459  32.128  25.166  0.1390 -0.1748 -0.0913
69125W        W12038  11.438  33.977  26.407 -0.1057  0.1469 -0.4036
69126W        W12039  15.493   6.392   0.816 -0.0244  0.1662  0.0195
69127W        W12040  19.695   4.654   5.226  0.0297 -0.0137  0.0491
69128W        W12041  17.174  22.826  27.067 -0.0594 -0.1193  0.0526
69129W        W12042  11.867   4.081  24.945  0.1994 -0.0944  0.0603
69130W        W12043  18.457  30.140  22.351 -0.1015  0.2376  0.1241
69131W        W12044  14.402  22.995   7.977  0.1842  0.1482 -0.1346
69132W        W12045  19.182  14.286  26.943 -0.0859  0.1481  0.2668
69133W        W12046  17.521   8.689  29.234  0.3039 -0.3603 -0.1241
69134W        W12047  14.889  10.874  24.455 -0.0813 -0.0140  0.0335
69135W        W12048  10.863   0.503   3.546 -0.1654  0.1870 -0.1014
69136W        W12049  26.540   0.685  17.787 -0.0892 -0.2805  0.2098
69137W        W12050  16.482  29.213   1.996 -0.0852 -0.1002 -0.1368
69138W        W12051   5.844  33.113  28.591 -0.0918 -0.1969 -0.3061
69139W        W12052  19.377   5.669   5.004 -0.0116  0.0815  0.0120
69140W        W12053   9.159   5.212  28.336  0.0227 -0.0444  0.0331
69141W        W12054  13.004   4.927  25.851  0.0624 -0.2335 -0.1430
69142W        W12055  10.510  28.699   3.010 -0.0700 -0.1055 -0.1139
69143W        W12056  17.767   5.852   8.903  0.0286 -0.2237 -0.1527
69144W        W12057  16.292  29.060   8.803  0.1488 -0.1005 -0.2241
69145W        W12058  14.790   4.443  21.881  0.0168  0.0587 -0.0917
69146W        W12059  17.189  11.884  28.377  0.3166  0.1978 -0.1879
69147W        W12060  16.251  10.371  19.491  0.0160 -0.0318  0.0180
69148W        W12061  11.409   7.508   3.648  0.0814 -0.0537 -0.0108
69149W        W12062  13.442  28.468   4.786  0.3933  0.1115  0.1036
69150W        W12063  16.217   4.973  22.516 -0.0269 -0.0030  0.1075
69151W        W12064   8.240   5.168  18.320  0.2149  0.1932  0.0668
69152W        W12065  18.485  32.894  28.094  0.2796  0.1352 -0.1037
69153W        W12066  13.397  11.816   0.743 -0.1922 -0.0472 -0.0285
69154W        W12067  12.040  28.917   6.517 -0.4038 -0.1650 -0.4857
69155W        W12068  21.659  27.010   5.192 -0.0191 -0.1412  0.2071
69156W        W12069  13.601  21.573  21.977 -0.3612  0.2818  0.1552
69157W        W12070  15.561   0.723   6.701 -0.0537  0.2706  0.1176
69158W        W12071  12.417   3.759   3.478  0.0242 -0.3306  0.1653
69159W        W12072   6.460  29.464   0.557 -0.3848 -0.0322  0.0959
69160W        W12073  17.759  26.436   1.328  0.2663  0.0926  0.0822
69161W        W12074  21.210  11.537   6.602  0.0854  0.1892  0.1655
69162W        W12075  16.012  28.171  25.678  0.1502  0.0479  0.1185
69163W        W12076  13.574   9.104   4.559  0.0710 -0.1444  0.2834
69164W        W12077  12.383  33.437  20.196 -0.0701  0.0393 -0.0079
69165W        W12078  18.100  32.177   0.768 -0.2311 -0.0191 -0.0581
69166W        W12079  21.712  26.126  27.581  0.1191 -0.1318  0.2035
69167W        W12080  23.907  10.006   6.062 -0.0503 -0.3705  0.1023
69168W        W12081  19.607   1.440  28.567 -0.2709 -0.2786 -0.3789
69169W        W12082  19.514  12.919  24.837 -0.3960  0.0130  0.0088
69170W        W12083  20.023  28.316   5.698  0.1481  0.1576 -0.1886
69171W        W12084  18.188  14.161   0.845 -0.0769 -0.0918  0.6511
69172W        W12085  16.273  34.078  10.690 -0.1249 -0.0489  0.1479
69173W        W12086   6.047  30.862   1.226 -0.2913 -0.1887  0.0999
69174W        W12087  13.907  27.592   2.653  0.1768  0.4640  0.2025
69175W        W12088  12.270  31.878  25.244  0.1369 -0.4523 -0.0727
69176W        W12089   9.198  32.713   9.429  0.2483  0.0751  0.0194
69177W        W12090   0.564   1.804   0.168  0.0210 -0.0835 -0.1443
69178W        W12091   5.816   7.853   3.245 -0.1020  0.0736  0.1571
69179W        W12092  29.468   8.802   1.718 -0.1596 -0.1725 -0.0546
69180W        W12093  13.121  32.078   6.260  0.2584 -0.1522 -0.3557
69181W        W12094  32.856  33.401   2.697 -0.0143 -0.1626  0.0037
69182W        W12095   6.915  34.428  24.903  0.1292 -0.0416 -0.1421
69183W        W12096   8.718  12.370  15.559  0.0942  0.1455 -0.0121
69184W        W12097  22.872   5.087  22.118 -0.1589  0.1120  0.0539
69185W        W12098  33.378  31.349  26.385  0.0086 -0.1144  0.5158
69186W        W12099  18.309   5.280  22.329 -0.0494 -0.1968  0.2160
69187W        W12100  13.626   8.369  20.271  0.0579 -0.0353  0.0938
69188W        W12101  24.101  32.669  20.405 -0.0214 -0.1149 -0.0120
69189W        W12102  27.637   7.307  17.191 -0.1744 -0.1910 -0.0080
69190W        W12103  25.121   8.559  27.551 -0.0050 -0.1648 -0.1905
69191W        W12104  22.092   8.836  17.451  0.1480 -0.1811  0.0743
69192W        W12105  14.680   5.868  17.004 -0.1089  0.1178 -0.0398
69193W        W12106  23.453   2.471  20.561 -0.3133  0.0769  0.5098
69194W        W12107   3.427   1.898  16.104 -0.0994 -0.1807  0.0759
69195W        W12108  26.038  17.965  14.706 -0.0798 -0.0594 -0.0242
69196W        W12109  21.472   0.774  25.189  0.1334 -0.1138  0.0720
69197W        W12110  13.264   7.396  17.751 -0.1869  0.0088 -0.3001
69198W        W12111  27.399   8.610  13.764 -0.1668  0.0110 -0.0572
69199W        W12112  15.477   8.764  22.321  0.0696  0.1305  0.0984
69200W        W12113  21.868   4.078  24.604  0.1003 -0.0975  0.0377
69201W        W12114  21.836  31.657  27.218  0.0921  0.2153 -0.1352
69202W        W12115  16.824  12.039  18.636  0.2296 -0.0829  0.1095
69203W        W12116   8.142  12.194  21.827 -0.2852 -0.0348  0.0884
69204W        W12117  23.839   8.019  14.790  0.0696  0.1768  0.1170
69205W        W12118  23.459  14.859  20.464 -0.0477  0.4181  0.1878
69206W        W12119  25.681   3.199  21.196 -0.1071 -0.0323 -0.0138
69207W        W12120  20.075   1.282  16.022  0.1805  0.1342  0.0790
69208W        W12121  19.195  33.885  18.248 -0.1916 -0.0594 -0.1437
69209W        W12122  11.006  19.990  15.136 -0.0260 -0.0153  0.2414
69210W        W12123  27.910  34.110  17.039 -0.0907 -0.1169 -0.3006
69211W        W12124  15.050  31.236  22.809 -0.0650 -0.1739  0.2561
69212W        W12125   8.483   9.527  18.773 -0.1781  0.1598  0.2578
69213W        W12126   8.616   4.053   3.390 -0.0985 -0.1657  0.0283
69214W        W12127  18.114   8.134  16.299  0.1787  0.4057 -0.2915
69215W        W12128   7.931  23.128  14.135 -0.1633 -0.0433 -0.0450
69216W        W12129   9.646  19.126  18.692 -0.1086 -0.0502  0.1654
69217W        W12130  13.307  30.061   2.335  0.1650 -0.5583  0.1497
69218W        W12131  26.751  33.811  14.480 -0.0097 -0.2245 -0.1856
69219W        W12132  16.228   1.020  20.970  0.0267  0.1957  0.1532
69220W        W12133  18.446   8.415  26.050  0.1178  0.1142 -0.0532
69221W        W12134  22.088   6.206  15.427 -0.0903 -0.0274 -0.2768
69222W        W12135  17.373   3.858  26.161 -0.0520  0.0550 -0.0477
69223W        W12136   9.749  21.445  17.260 -0.1833  0.2350  0.0721
69224W        W12137   5.520   5.155  19.721 -0.0314  0.1781 -0.2941
69225W        W12138  12.351   6.991  21.781 -0.3274  0.0815 -0.3303
69226W        W12139  19.594   8.098  20.158 -0.3844 -0.0761 -0.2365
69227W        W12140  15.578  10.097  13.761 -0.1753  0.0003  0.0002
69228W        W12141  10.713   4.264  26.908 -0.4452  0.0305 -0.0638
69229W        W12142  14.947   8.253  15.835 -0.0352  0.2116  0.0659
69230W        W12143  21.638   3.527  20.151 -0.3805  0.0941 -0.1021
69231W        W12144  22.095  30.118  14.681 -0.0962 -0.2651 -0.2317
69232W        W12145  25.751   7.986  21.026 -0.1696 -0.0417  0.2001
69233W        W12146  15.620   3.661  17.582  0.0681  0.1226  0.2780
69234W        W12147  15.089   4.368  15.721  0.2504 -0.3570  0.4351
69235W        W12148  12.850  12.186  14.048  0.0987 -0.2605 -0.0333
69236W        W12149  15.190  34.456  15.083 -0.1128  0.0188  0.0009
69237W        W12150   9.896  33.418   0.583  0.1214 -0.0832  0.1147
69238W        W12151   8.293   8.643  18.057  0.1845  0.1692  0.2160
69239W        W12152  12.778  16.389  13.827 -0.4293  0.2027 -0.2975
69240W        W12153  23.205   7.356  19.292 -0.1259 -0.2544 -0.0621
69241W        W12154  20.382   6.596  17.709 -0.2167 -0.1586 -0.1973
69242W        W12155  13.759   0.139  16.522  0.1908 -0.2191  0.0052
69243W        W12156  24.668  10.433  19.332 -0.2800  0.2250 -0.3087
69244W        W12157  22.504   4.457  19.750  0.1505 -0.0012  0.2869
69245W        W12158  20.132  11.795   0.074 -0.0010 -0.0489  0.1677
69246W        W12159  20.829   4.961  23.915  0.2009  0.3249 -0.3714
69247W        W12160  18.291   9.683  22.974 -0.2078  0.1031  0.0077
69248W        W12161  15.670  11.651  18.138  0.2067 -0.0807  0.2042
69249W        W12162  21.379   3.999  22.549  0.1865  0.0018 -0.2326
69250W        W12163  21.374  10.495  13.621  0.4413 -0.1191 -0.1673
69251W        W12164  18.180  33.315  15.270  0.3259  0.0861 -0.0250
69252W        W12165  20.355  33.227  16.152 -0.1945 -0.0322  0.0620
69253W        W12166  27.176   5.918  18.399 -0.1130  0.0872 -0.2262
69254W        W12167  24.574  18.391  21.844  0.1764 -0.0530  0.1389
69255W        W12168  22.604   8.160  23.793  0.2990  0.1655  0.2473
69256W        W12169  19.535   2.356   0.780  0.0786  0.1961  0.0342
69257W        W12170  12.382   5.937  16.193 -0.1302 -0.3367  0.1063
69258W        W12171  12.486   2.447  16.883 -0.2048  0.2058 -0.0083
69259W        W12172  10.847   7.096  25.636 -0.0128  0.0411  0.3071
69260W        W12173  15.241   5.603  23.436 -0.0480  0.0039  0.1334
69261W        W12174  18.153   2.499  15.723  0.1659  0.0471 -0.0755
69262W        W12175  22.933   4.951  20.055  0.0248 -0.1620  0.0610
69263W        W12176  14.173   7.544  23.216  0.0813  0.1709  0.4066
69264W        W12177  11.951   9.853  14.632  0.2525  0.0506  0.1670
69265W        W12178  13.454   4.806   3.967  0.1426  0.1741  0.3151
69266W        W12179  20.199  33.967  15.832 -0.3260  0.3159  0.1277
69267W        W12180  24.756  30.027  16.192  0.1083 -0.1383  0.3518
69268W        W12181  20.881   6.647  18.558 -0.0725  0.4131  0.0247
69269W        W12182  15.424  14.587  28.190  0.1196  0.3315 -0.1798
69270W        W12183  18.637   6.097  22.182  0.4278 -0.1344 -0.0611
69271W        W12184  14.669  31.173  16.414  0.1337  0.3104 -0.1020
69272W        W12185  21.946   4.440  19.552 -0.1021 -0.1908 -0.2693
69273W        W12186  17.415   2.376  16.512  0.1290 -0.1514  0.0841
69274W        W12187  26.123   8.345  20.892  0.2687  0.1480 -0.1668
69275W        W12188   9.393   1.609  19.152  0.0647  0.1405  0.2736
69276W        W12189  22.512  30.744  14.003 -0.4463 -0.0982  0.1258
69277W        W12190  29.336  34.306  14.692 -0.1545  0.1196 -0.1494
69278W        W12191  13.899  14.811  24.925 -0.3799  0.0898 -0.1658
69279W        W12192  14.546   8.765  22.084 -0.0669  0.1311  0.1489
69280W        W12193  19.565  32.813  15.282 -0.0029 -0.0106  0.2836
69281W        W12194  23.815  34.300  18.195  0.0860  0.3973 -0.0795
69282W        W12195  25.170  30.671  17.147 -0.0501 -0.2568 -0.2274
69283W        W12196  17.788   4.005  19.110 -0.0001  0.1792 -0.2145
69284W        W12197  19.104  17.749  11.529  0.1310  0.0877  0.1395
69285W        W12198  18.313  15.293  13.050 -0.3250  0.0145 -0.2323
69286W        W12199  25.066   2.873  15.876 -0.3662 -0.0656  0.0883
69287W        W12200  18.431   9.955  18.254 -0.1468 -0.0426 -0.0820
69288W        W12201  10.272  11.579  17.137  0.0790 -0.1515  0.2603
69289W        W12202  20.415   8.353  22.145 -0.2322 -0.0275 -0.1569
69290W        W12203  16.934   1.282  15.294  0.1212 -0.0096 -0.0121
69291W        W12204   7.635  13.139  23.714  0.0402  0.0514 -0.1290
69292W        W12205  19.598  14.516  14.693 -0.0936  0.2389  0.2153
69293W        W12206  10.588  12.124  20.029 -0.2501 -0.1044  0.1662
69294W        W12207  24.323  13.228  14.838 -0.1662 -0.1778 -0.0670
69295W        W12208  16.914  12.154  17.025 -0.0068  0.0858 -0.0039
69296W        W12209   9.458  14.370  20.770 -0.0177  0.1125  0.1174
69297W        W12210  25.423  13.997  13.900  0.1439 -0.0878 -0.2219
69298W        W12211  28.255   3.505  20.316 -0.0122 -0.1318 -0.1845
69299W        W12212  23.991  22.115  16.002  0.0338  0.3701  0.2069
69300W        W12213   7.255  10.958  20.890 -0.0454 -0.1815 -0.0637
69301W        W12214  23.091  10.564  16.019  0.0712 -0.0442 -0.1714
69302W        W12215  25.897   4.050  14.763  0.0504  0.1682 -0.3103
69303W        W12216  18.567   8.845  29.366 -0.0356  0.1463 -0.1346
69304W        W12217  13.772   2.044  16.240  0.3237  0.2227  0.2231
69305W        W12218   9.677  33.074  18.958  0.1133 -0.3762 -0.0929
69306W        W12219  10.659  12.208  28.897 -0.0337  0.0836 -0.1782
69307W        W12220   4.701   8.702  23.984  0.1960 -0.0200 -0.0076
69308W        W12221  20.019   8.660  13.934  0.1451 -0.0561  0.2325
69309W        W12222  18.282   6.759  20.535 -0.2160 -0.0039  0.4878
69310W        W12223  17.341   8.754  22.464  0.1092 -0.0229  0.0481
69311W        W12224  24.148   2.273  24.933  0.4448  0.0387 -0.1399
69312W        W12225  20.929   4.581  17.365 -0.3132  0.2447  0.0092
69313W        W12226  14.272   7.058  25.438 -0.0685  0.1876  0.0557
69314W        W12227  10.800  12.004  22.989 -0.0393 -0.1413  0.0872
69315W        W12228  22.724   7.815  22.656  0.0975 -0.4100  0.0735
69316W        W12229  12.356   0.928  17.666  0.1746 -0.1169  0.2890
69317W        W12230  20.277   9.091  16.263 -0.2338  0.0943  0.0519
69318W        W12231  10.783  32.208  29.390 -0.1122  0.0264 -0.0368
69319W        W12232  16.192   7.539  28.397  0.0860 -0.1450 -0.0718
69320W        W12233  11.959  14.449  26.672  0.0276 -0.2608  0.0753
69321W        W12234  12.858  32.561  20.337  0.1085  0.3267 -0.0801
69322W        W12235  23.743   4.761  19.421 -0.0172  0.1246  0.3335
69323W        W12236  19.107   5.191  19.325  0.0363 -0.1590 -0.1185
69324W        W12237  22.171   4.099  15.231  0.1416  0.3469 -0.5791
69325W        W12238  13.271  13.718  17.104 -0.0682 -0.0850  0.0092
69326W        W12239  29.803   7.015  20.113  0.1258  0.1168 -0.3288
69327W        W12240  14.219  32.456  17.577  0.2096  0.0874  0.1874
69328W        W12241  23.658   0.260  28.198  0.1560  0.1118  0.1679
69329W        W12242  11.570   2.946  21.252  0.1939 -0.0530  0.0342
69330W        W12243  11.920   2.881  21.724 -0.2075  0.1135 -0.2070
69331W        W12244  30.326   4.121  15.469 -0.1339  0.1695 -0.0290
69332W        W12245  17.105   0.395  16.640 -0.2979  0.1239 -0.0242
69333W        W12246  16.811   9.578  21.875  0.0019 -0.1615 -0.0682
69334W        W12247  14.281   3.059  22.892  0.2399 -0.0089 -0.0129
69335W        W12248  10.449   8.258  21.312 -0.3407  0.1224  0.0907
69336W        W12249  27.268   4.615  16.600 -0.1449  0.1597 -0.1232
69337W        W12250  14.533  29.410  18.949 -0.0470  0.1922 -0.2748
69338W        W12251  11.890   4.875  26.306  0.0125  0.0646 -0.1144
69339W        W12252  26.699   5.849  22.007  0.2836 -0.0472 -0.1017
69340W        W12253  15.714  26.939  21.953  0.1651  0.1193  0.1863
69341W        W12254  20.306   0.233  17.536  0.0162  0.0620  0.0490
69342W        W12255  19.538   1.133  21.571  0.0170 -0.1710 -0.0826
69343W        W12256  14.185   9.582  18.428  0.1290 -0.1426 -0.1036
69344W        W12257  30.893   6.903  16.633 -0.0082  0.2030 -0.3883
69345W        W12258  19.853   0.390  15.677 -0.2078 -0.0087  0.3400
69346W        W12259  18.962   4.431  14.221  0.0351 -0.0646 -0.0762
69347W        W12260  18.155   6.175  20.334  0.0325 -0.0399  0.0173
69348W        W12261  15.161   7.675  21.384 -0.1018 -0.0160 -0.1080
69349W        W12262   9.892   3.644  19.393  0.6056 -0.4565 -0.3629
69350W        W12263  12.676   1.294  26.336  0.0615 -0.2070  0.5870
69351W        W12264  14.459   6.355  16.871  0.1988  0.0038 -0.2755
69352W        W12265  14.067   4.192  21.802  0.0911 -0.3422  0.2294
69353W        W12266  20.699  12.558  20.205 -0.4014 -0.2234  0.1579
69354W        W12267  19.984   6.918  15.427  0.0585  0.0110  0.2628
69355W        W12268  18.320   3.941  17.886  0.2595 -0.1969  0.1820
69356W        W12269   9.302  33.659  17.266  0.3425 -0.1889 -0.1056
69357W        W12270  21.544   9.414  21.015 -0.0665  0.0469 -0.0141
69358W        W12271   8.649   9.152  21.917 -0.0590  0.0778  0.1986
69359W        W12272  17.654   2.161  16.120 -0.3546 -0.0776  0.3314
69360W        W12273  17.248   2.843  19.798  0.1737  0.3369  0.3632
69361W        W12274  16.733   9.517  22.389 -0.0741  0.3001  0.2758
69362W        W12275  30.359   4.394  22.405 -0.0355 -0.0898 -0.1836
69363W        W12276   7.386   2.326  19.155 -0.0461  0.1662 -0.0016
69364W        W12277  13.561  14.145  15.209  0.1113  0.0918  0.0082
69365W        W12278  14.782  27.420  17.688 -0.2300 -0.0621 -0.0811
69366W        W12279  14.330  10.318  16.636  0.0494  0.0863 -0.1281
69367W        W12280  16.066   4.520  26.266 -0.2502 -0.0430  0.0156
69368W        W12281  21.037   4.980  17.641 -0.0238  0.0509  0.0839
69369W        W12282   9.614  13.452  19.179 -0.0635  0.0264  0.1308
69370W        W12283  23.797  13.152  28.602  0.0274  0.1665  0.2103
69371W        W12284  23.131  23.893  22.991  0.0862 -0.3218 -0.1159
69372W        W12285  17.270   6.678  18.095 -0.0988 -0.2577  0.0697
69373W        W12286   7.472  15.020  20.130  0.0993 -0.1576  0.2989
69374W        W12287   8.686  33.995  21.501 -0.0769  0.0997  0.0101
69375W        W12288  16.232  16.396  12.308 -0.2098 -0.3002  0.0967
69376W        W12289  19.087   2.347  21.130  0.0440 -0.1760 -0.2166
69377W        W12290   9.508   7.249  21.875 -0.2374 -0.2030  0.1625
69378W        W12291  14.533  12.918  20.275  0.5293 -0.0835 -0.2081
69379W        W12292  22.689   2.820  26.145  0.0626  0.0302 -0.0634
69380W        W12293   8.762   4.426  18.921  0.2046 -0.0522  0.1073
69381W        W12294  13.230   9.698  19.956 -0.0762 -0.0248 -0.2716
69382W        W12295   5.496  32.122  26.145  0.2317 -0.1000  0.0205
69383W        W12296   4.110  21.166  22.624  0.1650  0.3145 -0.2345
69384W        W12297  16.523  32.502  15.509  0.1034  0.0798 -0.0568
69385W        W12298  17.562  11.997  13.691  0.1161 -0.1733  0.0347
69386W        W12299  18.327   4.684  20.277 -0.1974 -0.1209  0.1468
69387W        W12300  17.115   2.166  21.500  0.0365 -0.1058 -0.2214
69388W        W12301  24.277  11.983  20.326  0.1687 -0.2372  0.2189
69389W        W12302  13.112  28.452  21.347  0.0673  0.0073 -0.3099
69390W        W12303  21.415   3.848  15.802  0.2442  0.1218 -0.3022
69391W        W12304  26.269  13.510  17.094 -0.2879 -0.1223  0.1745
69392W        W12305   6.690  10.195  21.373 -0.1700  0.0293 -0.2419
69393W        W12306  18.239   4.248  17.353  0.1207 -0.1389  0.0193
69394W        W12307  14.413   3.114  15.511  0.2085  0.1951  0.2283
69395W        W12308  21.284   3.940  16.229  0.1361  0.2107  0.0687
69396W        W12309  10.557   9.093  19.636 -0.1574  0.0712 -0.1973
69397W        W12310  21.165  32.111  26.570 -0.1891 -0.0658 -0.3862
69398W        W12311   7.663  15.978  16.652 -0.2487  0.2160 -0.4119
69399W        W12312  19.462   1.589  21.163  0.2091  0.1785  0.1300
69400W        W12313  21.260  29.737  14.948  0.0288 -0.1963  0.5651
69401W        W12314   5.479   4.989  18.180 -0.1528  0.1963  0.2726
69402W        W12315  14.624   4.487  15.887  0.2139  0.1574 -0.1599
69403W        W12316  17.478  33.695  19.033 -0.2164 -0.3418 -0.0865
69404W        W12317  12.224   0.716  20.595  0.0998 -0.2480  0.0701
69405W        W12318  14.678   3.321   1.798  0.0150  0.2878 -0.2217
69406W        W12319  23.460  19.050  14.417  0.1495 -0.1840  0.2642
69407W        W12320  13.452  12.738  18.398  0.1410 -0.3416  0.1406
69408W        W12321   5.975  18.596  14.418  0.2060 -0.2013 -0.2084
69409W        W12322  24.667   6.466  17.672 -0.0296 -0.1359 -0.1106
69410W        W12323   2.201  26.084  22.181 -0.0793  0.0212  0.1115
69411W        W12324  16.167   4.766  18.834  0.0529  0.1347 -0.0124
69412W        W12325   9.846   6.619  23.800  0.5564 -0.0681 -0.0932
69413W        W12326  18.804   4.073  19.071  0.0249  0.0716 -0.2622
69414W        W12327  32.604  32.239  15.093  0.2239 -0.0765  0.0484
69415W        W12328  16.164   8.362  17.455 -0.2100 -0.1554  0.0493
69416W        W12329  11.096   2.522  17.093  0.0183  0.1622 -0.0668
69417W        W12330  11.716   8.350  19.524  0.0208 -0.3519 -0.2355
69418W        W12331  14.100  13.706  18.003 -0.0079 -0.0479  0.0420
69419W        W12332  20.349   0.354  15.734 -0.0297 -0.0236 -0.2800
69420W        W12333   9.194   5.859  18.238 -0.0881  0.0323 -0.1376
69421W        W12334  24.520  11.427  25.658  0.0044  0.2251  0.0026
69422W        W12335   8.442   6.368  16.600  0.2328 -0.0115  0.1678
69423W        W12336  19.261  31.705  16.706  0.0173 -0.1211 -0.0184
69424W        W12337  15.755   0.925  21.293  0.0095  0.1643 -0.0180
69425W        W12338  27.716   6.202  16.629 -0.0849 -0.0566 -0.3352
69426W        W12339  17.089   3.573  15.665  0.3569  0.0674  0.0567
69427W        W12340  18.638  30.423  21.012  0.3121 -0.0171 -0.4420
69428W        W12341  16.203   5.317  15.431  0.2007  0.0947  0.1701
69429W        W12342  18.038   1.122  21.730 -0.0988 -0.3021 -0.2922
69430W        W12343  18.864  10.298  24.897  0.1658  0.0360 -0.0215
69431W        W12344  19.518   6.330  19.850 -0.0361 -0.1012 -0.1220
69432W        W12345  17.128   0.081  18.913  0.0809  0.3256  0.0465
69433W        W12346  25.878  12.063  19.417  0.1591 -0.1119  0.1814
69434W        W12347  12.072   7.342  18.468  0.2728  0.3129 -0.2306
69435W        W12348  14.707  11.131  17.143 -0.0925  0.0910  0.0574
69436W        W12349  18.517   2.266  16.260 -0.2729  0.1911 -0.1357
69437W        W12350   6.397   2.664  24.088 -0.1005 -0.0879  0.0539
69438W        W12351  11.940   8.132  18.459 -0.0867 -0.2744  0.1256
69439W        W12352  15.779   4.519  19.152  0.3112  0.0033  0.0327
69440W        W12353  13.435   6.966  16.637  0.0866 -0.2250  0.0464
69441W        W12354   8.097   4.465  24.476  0.0196  0.0140  0.1379
69442W        W12355  10.335   6.745  17.272 -0.0107 -0.0351  0.3873
69443W        W12356  20.673   2.514  14.164  0.1812 -0.1929  0.1272
69444W        W12357  21.391  34.225  15.155  0.1078 -0.1317 -0.5239
69445W        W12358  13.470   2.881  20.165  0.1581  0.0089  0.3853
69446W        W12359  12.533   0.644  23.788  0.1468 -0.1885  0.0959
69447W        W12360  21.905  30.159  15.352 -0.1505  0.2479  0.1831
69448W        W12361   4.526  15.265  21.327  0.0276 -0.2092 -0.2229
69449W        W12362  23.409   8.531  21.361  0.2889 -0.1290  0.1866
69450W        W12363  13.606   7.084  18.689  0.3417  0.1437  0.2933
69451W        W12364   7.033  11.928  16.349  0.1012  0.0886 -0.5016
69452W        W12365  22.614   5.181  18.651 -0.0323 -0.0438 -0.1596
69453W        W12366  21.141   8.059  17.556 -0.2216  0.0606  0.2136
69454W        W12367  18.085   2.618  18.106  0.0619  0.2740 -0.1397
69455W        W12368  10.156  13.605  19.246 -0.2018 -0.1190 -0.2725
69456W        W12369  20.535   4.012  19.401  0.2102 -0.2274  0.0598
69457W        W12370  15.215   9.164  15.719 -0.1708  0.3637  0.2223
69458W        W12371  25.508   3.296  26.425 -0.1266  0.1033  0.3016
69459W        W12372  21.449   5.741  26.694  0.1806  0.0143  0.2972
69460W        W12373  17.970  10.676  15.866  0.1141  0.1651 -0.4029
69461W        W12374  13.734   4.252  19.030  0.0750  0.0365  0.0527
69462W        W12375  23.102  34.236  15.754 -0.1262  0.3574  0.0774
69463W        W12376  26.583   4.119  16.049 -0.2148  0.2219  0.2946
69464W        W12377  29.399   0.598  18.196 -0.2280 -0.1917  0.0384
69465W        W12378  23.151   3.742  20.053  0.0045  0.1175  0.1771
69466W        W12379  27.885   5.476  21.929  0.0426  0.1004 -0.0046
69467W        W12380  17.789   8.766  29.646 -0.0307 -0.3361 -0.1393
69468W        W12381  17.972  30.070  26.672  0.0624 -0.2355 -0.0398
69469W        W12382  23.317   0.822  18.987  0.0852 -0.1352 -0.0845
69470W        W12383  26.517   3.720  20.266  0.0437  0.0518 -0.2105
69471W        W12384  15.620   1.437  24.220 -0.0095 -0.0678 -0.0456
69472W        W12385  10.807  15.415  16.792 -0.1891  0.1620 -0.1552
69473W        W12386  19.033   7.843  13.849  0.2451  0.1001 -0.2521
69474W        W12387  19.549  30.917  19.358  0.0249  0.2696  0.0455
69475W        W12388  20.411  22.280  23.087  0.1842  0.1722  0.0656
69476W        W12389  14.185   8.155  16.199 -0.2043  0.1582  0.0622
69477W        W12390  17.519   7.454  16.807 -0.2244  0.1130 -0.0553
69478W        W12391  18.227   9.381  20.372 -0.2118  0.3689  0.4841
69479W        W12392  15.537  28.989  29.266  0.1108  0.1308 -0.1260
69480W        W12393  14.438   1.872  17.458 -0.1028 -0.3130  0.0474
69481W        W12394  19.605   2.199  25.842 -0.1585 -0.0848  0.1948
69482W        W12395  22.149   2.400  15.282 -0.2409  0.0101  0.1119
69483W        W12396  14.695  33.222  18.266  0.1554  0.2386 -0.1229
69484W        W12397  15.668   5.411  17.882  0.0037  0.0592 -0.2907
69485W        W12398  17.539   5.360  21.891  0.1030 -0.1667 -0.0393
69486W        W12399  28.117  29.729  18.207  0.0453 -0.1547 -0.1002
69487W        W12400  16.981   3.608  18.140 -0.3449  0.2848 -0.1825
69488W        W12401  16.806  10.805   3.186 -0.1870  0.2473 -0.0598
69489W        W12402  21.388   4.582  14.124 -0.2897 -0.5010 -0.3773
69490W        W12403  17.933   0.347  22.229 -0.2644 -0.1815  0.1784
69491W        W12404   1.632   1.785  18.927  0.0723  0.0716  0.0502
69492W        W12405  18.197  13.939  13.106  0.1562  0.0887  0.2473
69493W        W12406  12.311  10.510  17.644  0.1669 -0.2078 -0.0706
69494W        W12407  15.660   6.284  15.672 -0.0188  0.0356 -0.1815
69495W        W12408  25.276  27.928  17.279 -0.0411  0.1995  0.0728
69496W        W12409  12.478   8.150  25.397 -0.0703  0.0671 -0.1514
69497W        W12410  19.178   7.547  19.456 -0.0438  0.2655 -0.1566
69498W        W12411  23.139   2.876  20.267  0.2333 -0.0947 -0.3238
69499W        W12412  18.481  31.785  29.104  0.2058 -0.2065 -0.1721
69500W        W12413   9.713   6.804  18.227  0.2008  0.1846 -0.0718
69501W        W12414   4.643  33.497  16.223  0.0323 -0.2058 -0.3026
69502W        W12415  25.550  33.534  14.693  0.1831 -0.2729 -0.0830
69503W        W12416  20.295   4.796  16.485 -0.0434 -0.2276 -0.1842
69504W        W12417  15.780  10.809  18.801 -0.0493  0.2598 -0.4241
69505W        W12418  17.015   6.509  26.345 -0.0094  0.0408 -0.0370
69506W        W12419   9.364  31.716  18.741  0.0588 -0.2913  0.0830
69507W        W12420   6.661   4.942  27.687  0.1855  0.2311  0.2547
69508W        W12421  16.854  31.763  20.412  0.1046 -0.0428 -0.2658
69509W        W12422  22.073  10.931  18.419  0.1615  0.4130  0.2367
69510W        W12423  16.379   8.395  13.414 -0.0001 -0.2582  0.0987
69511W        W12424  11.220  11.220  14.938  0.0972  0.2946  0.1969
69512W        W12425  20.954  11.074  14.557  0.0027 -0.0484  0.1011
69513W        W12426  19.837   9.010  13.285 -0.0397  0.2029  0.2465
69514W        W12427  22.868   1.208  14.925  0.1616 -0.2362 -0.0815
69515W        W12428   9.762   8.504  17.230 -0.1264  0.1769  0.0500
69516W        W12429   3.734   0.283  22.545  0.0404  0.0181  0.2114
69517W        W12430  17.940  11.094  25.439 -0.0471  0.0718  0.1473
69518W        W12431  21.499  31.086  19.568 -0.2176 -0.2538 -0.3257
69519W        W12432  16.826   3.728  19.833  0.3017  0.2989  0.1248
69520W        W12433  13.169   9.515  16.562 -0.2936 -0.2248  0.1521
69521W        W12434  11.365  12.511  19.070 -0.1169  0.1888  0.0692
69522W        W12435  23.010   3.681  21.605  0.4476  0.2777 -0.0380
69523W        W12436  18.664   7.034  16.145  0.0030  0.1685 -0.1280
69524W        W12437  17.881  30.507  25.398  0.5108 -0.1418 -0.1292
69525W        W12438  24.725  27.832  18.989  0.3222 -0.0024 -0.2734
69526W        W12439  19.950  33.779  19.000  0.1273  0.4544  0.0287
69527W        W12440  25.131   2.713  18.481 -0.1598  0.1748 -0.1919
69528W        W12441  15.082  22.578  14.714 -0.1051 -0.2554 -0.0512
69529W        W12442  12.241  18.116  14.567 -0.0484 -0.1098 -0.0818
69530W        W12443  19.517  27.705  23.336  0.2094 -0.0830 -0.0491
69531W        W12444  12.318   8.620  16.781  0.2424 -0.2990 -0.1180
69532W        W12445   0.042   2.437  29.317 -0.1155  0.1587  0.0765
69533W        W12446  15.165  10.409  15.226  0.2285 -0.0397  0.1987
69534W        W12447  25.048  13.196  14.251  0.0891 -0.4599  0.1158
69535W        W12448  26.834  32.514  20.461  0.3135 -0.1379  0.1858
69536W        W12449  22.331   2.200  15.805 -0.0165  0.1617  0.0369
69537W        W12450  32.481   2.917  20.970  0.2577 -0.3601  0.1254
69538W        W12451  21.211  10.472  19.668 -0.4899 -0.2012 -0.1862
69539W        W12452  25.658   6.098  21.750  0.0154 -0.0879 -0.1289
69540W        W12453  17.921   4.010  22.499 -0.1615  0.1244 -0.0088
69541W        W12454  16.375  29.089  20.000  0.0072  0.2811 -0.2121
69542W        W12455  26.559   1.195  21.167 -0.0832 -0.0437  0.1107
69543W        W12456  20.338   0.004  18.438  0.1939  0.0795 -0.1809
69544W        W12457  31.022  30.371  18.781  0.2156  0.4472  0.0369
69545W        W12458   3.774   8.106  27.500 -0.0399 -0.0803  0.0600
69546W        W12459   8.095   4.642   0.878 -0.1371 -0.0479 -0.3588
69547W        W12460  12.467  11.209  18.189 -0.1694 -0.2786 -0.0812
69548W        W12461  18.306   8.956  12.953 -0.0372 -0.1285  0.1993
69549W        W12462  15.483  32.220  26.822 -0.4091 -0.3244 -0.0293
69550W        W12463  11.298  32.053  19.393  0.1497 -0.1997 -0.1933
69551W        W12464  23.180   6.773  16.711 -0.1917  0.0220 -0.0134
69552W        W12465  16.378   5.406  19.191 -0.0443 -0.2852  0.2649
69553W        W12466  14.799   5.844  18.560 -0.0796 -0.0193 -0.0969
69554W        W12467  25.743  11.381  18.724 -0.0337 -0.2617  0.2097
69555W        W12468  20.945  13.082  19.002  0.0465 -0.0910  0.0773
69556W        W12469   6.351  32.807  25.796 -0.2833  0.2594 -0.0636
69557W        W12470  25.640  18.527  16.805 -0.1407 -0.4064 -0.0358
69558W        W12471  20.879   8.614  19.377 -0.1468 -0.1953  0.1077
69559W        W12472  23.531  10.555  16.236  0.1046  0.2455 -0.3957
69560W        W12473  29.909  32.339  16.933 -0.2746  0.0704  0.1685
69561W        W12474  15.632  31.623  16.119 -0.0094  0.0721  0.2883
69562W        W12475  15.144   6.660  15.123  0.1548  0.1422 -0.1525
69563W        W12476  24.778  12.692  23.707 -0.1845 -0.0762 -0.1734
69564W        W12477  16.845  11.341  24.438 -0.1223 -0.0148 -0.0682
69565W        W12478  12.354  34.068  19.171 -0.0498 -0.1684 -0.1467
69566W        W12479  19.036   5.139  20.868  0.0178  0.0889 -0.0635
69567W        W12480  20.877   0.442  23.504 -0.1482 -0.0716  0.2312
69568W        W12481  24.500   5.428  17.658  0.0274 -0.0020 -0.0960
69569W        W12482  17.475  15.311  15.451 -0.1495  0.2159 -0.0459
69570W        W12483   7.809   9.876   2.679 -0.3081  0.1128 -0.3796
69571W        W12484  20.430  31.184  14.660 -0.0229 -0.0225 -0.1611
69572W        W12485  17.152   7.584  14.093 -0.0406 -0.2711 -0.2691
69573W        W12486  16.866   1.304  26.087  0.2737 -0.3199 -0.1189
69574W        W12487  17.961   3.413  14.100 -0.2728 -0.1472  0.0133
69575W        W12488  15.832   6.018  18.173 -0.0658 -0.0804  0.0365
69576W        W12489  20.859  23.009  23.452  0.3031  0.3460  0.3042
69577W        W12490  21.198   0.682  14.150  0.3829 -0.5108  0.0026
69578W        W12491   5.422  22.375  27.351  0.3125  0.0581  0.0382
69579W        W12492  21.629  30.506  14.619  0.1387 -0.1406  0.1570
69580W        W12493  20.160   7.107  25.141 -0.0377 -0.1201  0.1598
69581W        W12494  34.164  32.746  27.541  0.1949 -0.2363 -0.3295
69582W        W12495  16.221  10.831  26.774 -0.0940  0.2935  0.4421
69583W        W12496  20.688  34.472  17.881  0.1277  0.0510 -0.4554
69584W        W12497  12.568   2.620  16.425 -0.0570  0.3221 -0.0152
69585W        W12498  10.391   5.097  20.762 -0.0426 -0.0013 -0.0105
69586W        W12499  27.749   2.979  19.567  0.2082 -0.0638  0.2595
69587W        W12500  15.756  31.324  26.563 -0.0021 -0.2119 -0.0073
69588W        W12501  22.668  28.197  20.333 -0.0743 -0.0772  0.3179
69589W        W12502  29.745  11.989  14.320  0.1260  0.0028 -0.1349
69590W        W12503  23.703   6.203  15.549 -0.0248 -0.1577  0.0829
69591W        W12504  16.815   4.581  21.108 -0.0500  0.0665 -0.0703
69592W        W12505  13.304   2.959  24.931 -0.0712  0.0840 -0.0512
69593W        W12506   3.676   6.335  19.593  0.1219  0.0497  0.0088
69594W        W12507  12.778   4.201  17.478  0.0213  0.0502  0.1349
69595W        W12508   9.760  10.260  28.121 -0.1236  0.3375  0.0551
69596W        W12509  20.883   9.329  12.692 -0.0419 -0.3292  0.2673
69597W        W12510  21.540   0.941  19.922 -0.0757  0.1889  0.0834
69598W        W12511  25.315  16.588  22.232  0.0149  0.0567  0.0099
69599W        W12512  22.340   7.489  17.450 -0.1052  0.0791 -0.2189
69600W        W12513  15.660   7.568  23.692 -0.0816  0.0316  0.0939
69601W        W12514   7.778   1.709  17.274  0.2367  0.0435 -0.1540
69602W        W12515   6.756   9.491  18.580  0.1041  0.1969  0.2453
69603W        W12516  22.217   7.762  15.996 -0.0703 -0.3341  0.3664
69604W        W12517  11.685  33.473  17.802  0.2152  0.0509 -0.0643
69605W        W12518  15.847  13.349  20.448  0.0726 -0.0557 -0.1299
69606W        W12519  21.488   5.535  16.974 -0.0399  0.2972 -0.1426
69607W        W12520  17.642   4.630  24.291  0.0340 -0.0244 -0.1889
69608W        W12521  23.818   9.467  15.810 -0.0915  0.3992  0.0083
69609W        W12522  18.564   7.460  14.912 -0.1557 -0.1623  0.2626
69610W        W12523  23.079   8.248  13.608  0.2246  0.0288 -0.1888
69611W        W12524  16.237   8.638  17.869 -0.1402 -0.0257 -0.0415
69612W        W12525  18.672  10.331  14.048  0.0166 -0.0706 -0.0222
69613W        W12526  28.585  16.288  15.448 -0.1397 -0.1030  0.0294
69614W        W12527  18.117  31.280  23.828  0.0484  0.1596 -0.1553
69615W        W12528  28.041  17.680  22.001 -0.2173 -0.0967  0.2159
69616W        W12529  23.659   9.735  16.414 -0.2094  0.2722  0.2413
69617W        W12530   1.964  18.502  16.718 -0.0187  0.1841  0.2000
69618W        W12531  22.646  30.433  13.627 -0.1104 -0.1946  0.1172
69619W        W12532  19.165  34.451  18.247  0.2101 -0.0812 -0.1032
69620W        W12533  12.264  31.336  20.314  0.0781 -0.4480 -0.1016
69621W        W12534  18.546  32.758  25.667 -0.0275  0.1346  0.0022
69622W        W12535  17.608  32.286  24.505 -0.1508 -0.3052 -0.0293
69623W        W12536   7.008  29.102  24.095 -0.1745 -0.3334  0.1076
69624W        W12537  22.370  13.879  26.533 -0.1260  0.1737  0.2190
69625W        W12538   6.221   8.288  20.428 -0.0493  0.2456  0.4624
69626W        W12539  18.218   7.103  27.470  0.2959 -0.0423  0.0176
69627W        W12540  15.946  15.970  17.365 -0.1966 -0.1780  0.2977
69628W        W12541  12.015  18.004  18.346 -0.0824  0.0590  0.1780
69629W        W12542  17.752   3.536  17.711  0.1805 -0.3330 -0.4750
69630W        W12543  19.183  27.816  18.282 -0.0558 -0.0874 -0.0710
69631W        W12544  16.621   6.694  18.827 -0.0764  0.0970  0.0480
69632W        W12545  16.068   1.807  21.272  0.0171 -0.5316 -0.2198
69633W        W12546  14.706   9.155  20.829  0.0871  0.0662 -0.2811
69634W        W12547  19.286   5.930  15.437  0.1192  0.0945 -0.0195
69635W        W12548  17.850   4.233  15.319 -0.2890  0.0428 -0.2482
69636W        W12549  18.273   5.260  22.912  0.1700  0.0932 -0.1528
69637W        W12550  12.116   4.776  19.566  0.2477  0.1934  0.3312
69638W        W12551  14.053  27.766  24.935 -0.0240 -0.1985  0.2173
69639W        W12552  14.531   7.492  16.931 -0.1198  0.3657 -0.4072
69640W        W12553  21.256   8.545  15.420  0.3185  0.1490 -0.1970
69641W        W12554  20.364  10.522  16.336 -0.0324 -0.2717  0.0280
69642W        W12555   8.796  34.237  17.168  0.0209  0.1799 -0.0897
69643W        W12556  15.808   4.198  15.892 -0.1951  0.2018 -0.0973
69644W        W12557  18.627  13.801  20.611  0.1008 -0.0303 -0.0481
69645W        W12558  16.893   6.261  17.367  0.1528 -0.3919  0.1085
69646W        W12559   8.344  10.553  16.832  0.2818  0.0220 -0.0748
69647W        W12560  23.917  13.759  18.890  0.4340 -0.0344  0.0995
69648W        W12561  30.459   5.322  24.138 -0.1988 -0.2530  0.0209
69649W        W12562  16.636   5.461  14.627 -0.0956 -0.0854 -0.0987
69650W        W12563  23.490   7.333  18.621  0.2497 -0.0152 -0.1336
69651W        W12564  14.294   7.212  20.690 -0.0938  0.2455 -0.0103
69652W        W12565  23.835   4.111  16.084  0.0954 -0.1849  0.2049
69653W        W12566  13.676  13.153  16.251 -0.1636 -0.0652 -0.1488
69654W        W12567  13.994   8.082  20.659  0.2253  0.4539  0.4113
69655W        W12568  14.550   3.957  16.912 -0.0449  0.1891  0.1176
69656W        W12569  14.520  31.484   0.102 -0.0312  0.1570 -0.0771
69657W        W12570  19.742  34.151  23.446  0.3929  0.1703 -0.0001
69658W        W12571  26.732  14.963  20.854 -0.0468  0.4000  0.1544
69659W        W12572  13.518  32.438   6.198  0.0862  0.2145  0.0064
69660W        W12573   4.950  15.511  14.570 -0.3205  0.0879  0.0775
69661W        W12574  19.644  11.369  21.553 -0.0788 -0.0063 -0.0643
69662W        W12575   9.691  16.530  13.611 -0.2314 -0.1514 -0.1517
69663W        W12576  10.521   9.039  21.485  0.2930 -0.1404 -0.1184
69664W        W12577  22.211   4.351  28.015 -0.1025 -0.0558 -0.1888
69665W        W12578   7.126   4.517  18.639 -0.0998 -0.1993 -0.1867
69666W        W12579  23.971   4.261  19.525  0.0702 -0.0136  0.0212
69667W        W12580  16.587  32.001   2.422 -0.2320  0.1377  0.1340
69668W        W12581  25.709   9.915   1.839 -0.0130  0.0661  0.1709
69669W        W12582  11.463  10.666  21.378  0.0795 -0.2785  0.0705
69670W        W12583  18.947   4.594  17.590  0.4005  0.4105 -0.0304
69671W        W12584  18.617  30.081  15.607 -0.2104 -0.0574  0.1307
69672W        W12585  18.792  14.610  12.945  0.0119 -0.0480 -0.0847
69673W        W12586   7.826  13.820  17.382  0.3112 -0.0178 -0.2293
69674W        W12587  13.376  33.661  19.947 -0.1581 -0.0137  0.3150
69675W        W12588  16.842   6.799  23.244  0.2961 -0.0354 -0.1617
69676W        W12589   8.461   1.571  23.525 -0.2948 -0.0126 -0.0696
69677W        W12590   2.800  18.682  15.479 -0.0153  0.2649  0.0840
69678W        W12591   3.714  24.033  21.517  0.0771 -0.0190  0.0523
69679W        W12592  19.232  31.066  24.256  0.0102 -0.2156  0.1951
69680W        W12593  17.735   1.627  23.121  0.1597  0.3754  0.0096
69681W        W12594  17.320   3.809  16.519 -0.1473 -0.1701 -0.2784
69682W        W12595   6.147   0.109  20.118  0.0130  0.1333  0.0610
69683W        W12596  21.274   8.703  16.122  0.1214 -0.0917 -0.1338
69684W        W12597  29.241   6.612  24.565 -0.3174  0.0943  0.0358
69685W        W12598  24.733  12.369  25.699 -0.1881  0.0542 -0.2939
69686W        W12599  13.284   2.145  20.605 -0.0575 -0.0188 -0.1796
69687W        W12600   9.801  15.278  16.132  0.1008 -0.2174 -0.0533
69688W        W12601  16.016  17.138  14.773  0.0274  0.0255  0.0761
69689W        W12602  18.151   4.649  14.655  0.0704  0.3134  0.3340
69690W        W12603  13.218   0.986  20.283  0.1476  0.0468 -0.0336
69691W        W12604  30.199  33.251  16.531 -0.0202  0.0233  0.3747
69692W        W12605  17.198   5.844  20.019  0.5637 -0.2895 -0.4885
69693W        W12606  21.006   8.222  25.550 -0.0544 -0.0396  0.1553
69694W        W12607  27.314   4.841  22.796 -0.1830 -0.2465 -0.1001
69695W        W12608  22.928   3.088   0.384  0.0403 -0.3422 -0.1294
69696W        W12609  17.791   2.891   0.220  0.2754 -0.0751  0.0702
69697W        W12610  25.617   8.488  21.359 -0.1530 -0.2821 -0.0650
69698W        W12611   9.814  15.046  17.614 -0.1053  0.3630  0.0833
69699W        W12612  23.080   7.860  21.694  0.0905 -0.0525 -0.0723
69700W        W12613   9.840   7.471   0.348 -0.0714 -0.0967  0.3255
69701W        W12614  16.603   4.935  19.035 -0.1697  0.0062 -0.4985
69702W        W12615  15.630   1.164  22.623 -0.1829 -0.1766 -0.1882
69703W        W12616  25.317   0.354  17.314 -0.1779 -0.1779 -0.1197
69704W        W12617  27.597  17.098  21.897  0.0842  0.0086  0.0325
69705W        W12618   7.360  11.275  23.869  0.0381 -0.1426 -0.0467
69706W        W12619  30.385   1.429  15.182 -0.2353  0.1784 -0.3462
69707W        W12620   6.359   3.819  21.070 -0.1804  0.1080  0.0888
69708W        W12621  11.245   7.782  17.057  0.1103 -0.2473 -0.0245
69709W        W12622  21.668   3.347  21.273  0.0057 -0.0027 -0.0103
69710W        W12623  28.468  15.229  26.317  0.1773 -0.4181 -0.0660
69711W        W12624  21.210  30.195  14.744  0.1418  0.2383 -0.1472
69712W        W12625  20.770   2.699  17.302  0.1441  0.0546 -0.1863
69713W        W12626  21.782   8.742  26.991  0.1908 -0.1906 -0.1805
69714W        W12627  13.234   5.686  17.635  0.0674 -0.1424  0.1063
69715W        W12628  21.617   8.287  19.231  0.1500 -0.0065 -0.0380
69716W        W12629  19.980   4.637  22.916 -0.2655  0.3737  0.0697
69717W        W12630  31.626  10.663  16.670 -0.0312 -0.3718  0.0456
69718W        W12631  26.354   8.743  21.933 -0.0137  0.0893 -0.3217
69719W        W12632   8.484  16.103  14.176 -0.2334  0.2485  0.1426
69720W        W12633  14.780  33.384  27.054 -0.1455  0.0862 -0.2085
69721W        W12634   5.660   9.286  18.007 -0.1828  0.2306 -0.5195
69722W        W12635  21.376   6.273  16.140  0.0147 -0.1752 -0.0125
69723W        W12636  10.785  33.422  18.253 -0.1005  0.1825  0.1655
69724W        W12637  10.542  15.450  23.472  0.2004  0.0716 -0.0523
69725W        W12638   1.021  14.508  27.814 -0.1867 -0.0405 -0.1351
69726W        W12639  20.178  33.861  21.591  0.1303 -0.0878  0.1505
69727W        W12640  12.319   9.296  16.221 -0.1301 -0.0444 -0.0682
69728W        W12641  14.692  13.700  26.262 -0.0556  0.0256 -0.0422
69729W        W12642  13.269   1.409  19.538  0.2045 -0.1298 -0.1071
69730W        W12643  21.465  33.728  21.657  0.0905 -0.0329 -0.2509
69731W        W12644   5.715   2.885  20.230 -0.0254  0.1958 -0.0787
69732W        W12645  27.154  12.035  16.877  0.0321 -0.0797 -0.2239
69733W        W12646  23.937   3.532  15.203  0.0696  0.2300  0.1668
69734W        W12647  21.705   5.765  14.592 -0.1075  0.0543 -0.0403
69735W        W12648  16.992  11.516  28.773 -0.0510  0.3778 -0.2469
69736W        W12649  14.146  32.031  19.520 -0.1512  0.0169  0.2374
69737W        W12650  12.994   0.189  25.331  0.0457  0.3058 -0.0975
69738W        W12651   7.388  12.569  24.366  0.1679  0.1654 -0.0289
69739W        W12652  12.581  11.966  29.090  0.2188 -0.0271  0.0533
69740W        W12653  18.560   1.932  23.797  0.1687 -0.0202 -0.1841
69741W        W12654   4.006   7.952  24.751 -0.2418 -0.1056  0.0767
69742W        W12655  16.270   5.584  25.833 -0.2389 -0.1080 -0.0195
69743W        W12656  10.423   0.009  25.650  0.1550 -0.0693 -0.0968
69744W        W12657  22.605   5.218  19.192 -0.1213 -0.1289 -0.3621
69745W        W12658  22.630   3.376  24.449  0.0512 -0.2041  0.1402
69746W        W12659   8.442  30.119  19.636  0.4403  0.2155  0.0441
69747W        W12660  23.015   9.863  17.329  0.0269  0.0426  0.0234
69748W        W12661  22.817  10.366  14.977 -0.2379 -0.1730  0.1529
69749W        W12662   7.660  24.354  18.207  0.0082  0.1554 -0.2593
69750W        W12663  21.444   1.503  28.578  0.3048  0.0673 -0.2689
69751W        W12664  20.053  11.968  18.073 -0.1318 -0.3165 -0.2722
69752W        W12665  15.392   7.988  23.534 -0.1341 -0.1294  0.0203
69753W        W12666   6.024  12.083  28.199 -0.3224  0.0038 -0.1971
69754W        W12667  19.510  14.990  22.373  0.0429 -0.0002 -0.1493
69755W        W12668   7.408  17.496  18.917  0.1019  0.1174  0.2094
69756W        W12669  19.490  34.217  24.836 -0.1458 -0.1422  0.0944
69757W        W12670  26.390  11.197  14.078  0.0725  0.0285  0.3901
69758W        W12671  12.836  30.810  26.798 -0.2260 -0.3289  0.0342
69759W        W12672   3.998  21.672  29.186  0.2010 -0.1422  0.2321
69760W        W12673  16.887   8.158  16.347 -0.0590  0.3172  0.1738
69761W        W12674  14.812  30.737  22.678 -0.1500  0.1920  0.0393
69762W        W12675  15.204   6.405  25.329 -0.3066 -0.0885  0.1805
69763W        W12676   6.332  22.508  16.233 -0.1215 -0.0612 -0.2531
69764W        W12677  18.283  10.854  22.301  0.1327  0.3541 -0.0709
69765W        W12678  23.971   6.520  23.812  0.0541 -0.0480 -0.1664
69766W        W12679  20.449  13.837  19.540 -0.0984 -0.2335 -0.1802
69767W        W12680  14.082  10.254  24.465  0.2966  0.0061 -0.2976
69768W        W12681  14.427  33.611   0.768  0.2745 -0.1125 -0.2134
69769W        W12682  19.970   4.568  23.440 -0.0045  0.2657  0.2076
69770W        W12683  18.087   9.519  24.339 -0.0085  0.0767  0.2094
69771W        W12684  18.051  26.383  25.983  0.1673 -0.0002  0.0456
69772W        W12685  15.296   2.318  25.240  0.1784  0.0455  0.3145
69773W        W12686  22.049   6.180  20.708 -0.0310 -0.1277 -0.1315
69774W        W12687  12.484  10.804  19.265 -0.2496  0.0816 -0.0598
69775W        W12688  20.522   5.623  19.165  0.1255 -0.3474 -0.0858
69776W        W12689  20.137  28.916  20.322 -0.1879 -0.0253 -0.2856
69777W        W12690  31.322   9.731  14.837  0.4762  0.0645 -0.2327
69778W        W12691  21.133   1.898  28.377  0.2521  0.0437  0.1184
69779W        W12692  19.186   2.811  24.078  0.1962 -0.0178  0.0839
69780W        W12693  27.935   1.110  24.196  0.3155  0.3881 -0.2227
69781W        W12694  24.012   6.879  18.442 -0.0169 -0.1554 -0.0471
69782W        W12695  24.443  16.374  28.706  0.0824  0.4728 -0.0635
69783W        W12696  12.201  10.990  27.528  0.3206 -0.2353 -0.0259
69784W        W12697  23.086   6.887  13.423 -0.0906 -0.3670 -0.0482
69785W        W12698   8.348   4.225  23.559  0.1486 -0.1533  0.6308
69786W        W12699  21.394  14.248  19.471 -0.0303  0.0655  0.0052
69787W        W12700  20.568  33.730  16.024 -0.1379  0.0953  0.1845
69788W        W12701  17.302  12.931  13.774 -0.1947  0.0126 -0.1488
69789W        W12702  19.218   7.108   0.059  0.1924 -0.0572 -0.0905
69790W        W12703  17.059   8.900  18.932 -0.3153  0.2727 -0.2883
69791W        W12704  22.513   5.439  17.819  0.2973  0.0028  0.0025
69792W        W12705  23.811  30.537  14.747  0.0584 -0.1201  0.3580
69793W        W12706  19.857   2.711  18.729 -0.0157 -0.3064 -0.1941
69794W        W12707  18.232   2.664  28.861  0.1975  0.0993 -0.0527
69795W        W12708  17.319  26.800  24.178  0.0672  0.2514  0.0740
69796W        W12709  15.068   7.954  20.818 -0.1703  0.2065 -0.1387
69797W        W12710  24.461   9.935  17.215 -0.2568  0.3222  0.1209
69798W        W12711  16.086   5.093  23.008 -0.2370 -0.3334  0.3337
69799W        W12712  13.460   5.144  20.802 -0.0896 -0.1864 -0.2504
69800W        W12713   9.521  32.707  24.111 -0.0837 -0.0386  0.3821
69801W        W12714  15.136   5.525  15.821  0.2287  0.3638 -0.0092
69802W        W12715  30.224   8.492  26.215  0.1089  0.1503 -0.0023
69803W        W12716  26.151   6.125  25.397  0.0020  0.2937  0.2108
69804W        W12717  24.825   8.046  19.274 -0.1172  0.1258 -0.2210
69805W        W12718  17.824  32.487  14.777 -0.0492 -0.0052 -0.0199
69806W        W12719  16.536   4.049  18.084 -0.0929  0.0306 -0.1707
69807W        W12720   8.995   2.453  19.400 -0.0047  0.2651 -0.0235
69808W        W12721  16.567   9.531  14.239  0.0944 -0.1547  0.0240
69809W        W12722  28.543  30.403   2.050 -0.2020  0.0154  0.1192
69810W        W12723  17.760   6.040  21.290  0.0658  0.3075  0.0804
69811W        W12724  28.770   6.274  25.762  0.1328 -0.3478  0.0209
69812W        W12725  14.888   8.075  14.760 -0.0190 -0.0252  0.0069
69813W        W12726   2.943  32.800  17.114 -0.3092 -0.2052 -0.1132
69814W        W12727  21.577  13.264  28.174 -0.1117  0.3141  0.0448
69815W        W12728  22.991  32.359  16.995 -0.0034 -0.0349  0.3209
69816W        W12729  18.378  34.151  15.034 -0.3004  0.0283 -0.0916
69817W        W12730  14.681   0.393  16.946  0.3690 -0.0987  0.0840
69818W        W12731  24.320   4.970  23.317  0.1033 -0.0393  0.0756
69819W        W12732  15.684   5.244   0.396 -0.0001  0.2216 -0.2391
69820W        W12733  14.531  33.849  27.254 -0.0873 -0.1582 -0.1008
69821W        W12734  15.418  31.654  23.526 -0.0569 -0.0516 -0.1180
69822W        W12735  19.083  32.260  15.295 -0.1167  0.0959  0.0950
69823W        W12736  18.341  31.100  15.395 -0.4382  0.1864  0.0678
69824W        W12737   9.398   1.454  23.771  0.1535  0.1454  0.0977
69825W        W12738  25.743  11.296  20.178 -0.0977 -0.1058 -0.2636
69826W        W12739   7.509  15.913  14.308  0.1238  0.0199  0.1008
69827W        W12740  13.061   4.542  19.535 -0.1509  0.0180 -0.1353
69828W        W12741   8.607   3.929  25.796  0.0546  0.1669 -0.1188
69829W        W12742  18.669  16.554  23.645 -0.0515 -0.1520  0.1994
69830W        W12743  13.465   0.839  20.719 -0.0360 -0.0801 -0.0677
69831W        W12744  16.770   9.267  17.906  0.1633 -0.1271 -0.1075
69832W        W12745  18.505  13.438  21.430  0.2981  0.1299  0.2107
69833W        W12746  17.518  30.355  20.494  0.0993  0.1900 -0.4186
69834W        W12747  17.228   0.780  15.048  0.1655  0.1330  0.1208
69835W        W12748  19.319   2.726  18.952  0.0720  0.0978  0.0597
69836W        W12749  23.359  33.171  14.442  0.1448  0.0321 -0.1125
69837W        W12750  11.428   4.441  17.237  0.2193  0.0871  0.0970
69838W        W12751  25.759   0.666  17.432  0.2388 -0.2669 -0.0346
69839W        W12752  13.690   6.703  24.084  0.0388 -0.1711  0.0152
69840W        W12753  13.245   0.058  24.895  0.0255 -0.2315 -0.0923
69841W        W12754  17.768   5.466  24.731 -0.2522 -0.0624  0.3206
69842W        W12755  11.641  10.216  14.613  0.0287  0.2713 -0.0393
69843W        W12756  31.357   6.498  20.472 -0.0913  0.4909 -0.2034
69844W        W12757  23.169   6.503  21.451 -0.2747  0.2346 -0.2172
69845W        W12758  16.142   7.472  23.287  0.1086 -0.1663 -0.1054
69846W        W12759   7.461  10.269  16.812 -0.1719 -0.2134  0.2928
69847W        W12760  10.050   1.229  21.338 -0.0899 -0.2157 -0.3319
69848W        W12761  15.809  11.277  23.687  0.1022  0.0445 -0.1420
69849W        W12762  10.939  27.361   4.568  0.0951  0.1540 -0.0603
69850W        W12763   8.252   1.174  20.946 -0.0897  0.1727  0.1087
69851W        W12764  23.833  11.524  22.400 -0.2376  0.3436 -0.1788
69852W        W12765  18.074   7.671  16.515  0.3946  0.0502 -0.0447
69853W        W12766  14.901   1.961  21.658 -0.0827  0.0752  0.0207
69854W        W12767  15.732   1.194  21.709 -0.2559  0.2000  0.0360
69855W        W12768  18.307   2.947  17.791 -0.2742 -0.1256  0.1358
69856W        W12769  16.145   2.850  21.543  0.2314  0.0011  0.3641
69857W        W12770   4.393  29.673  24.843  0.0573  0.0647 -0.1239
69858W        W12771  15.459   5.811  19.171  0.0796 -0.0042 -0.0484
69859W        W12772  16.507   1.059   1.406 -0.2772 -0.2000 -0.4752
69860W        W12773  16.513   5.864  25.489 -0.0750 -0.2187  0.0158
69861W        W12774  12.726   0.771  16.897  0.4046 -0.3147 -0.1761
69862W        W12775   9.760  28.933  24.314  0.1700  0.0947  0.1690
69863W        W12776  18.320   5.836  16.285 -0.0800 -0.1646  0.2938
69864W        W12777   7.623   2.302  20.324  0.1682 -0.1993 -0.2764
69865W        W12778  20.204   5.656  19.523  0.1689 -0.0008  0.1076
69866W        W12779  27.609  33.384   0.016  0.1441 -0.3833 -0.1705
69867W        W12780  16.980  12.078  22.046 -0.1589  0.3340  0.0276
69868W        W12781  21.994  33.839  13.798 -0.1196  0.2194  0.1142
69869W        W12782  11.021   7.998  27.642 -0.0083 -0.1491  0.3324
69870W        W12783  24.462   8.386  19.437  0.0204 -0.1750  0.2587
69871W        W12784  31.959  23.481  19.427  0.1113  0.0557  0.1056
69872W        W12785  20.134   4.589  21.102  0.2696  0.4334  0.0386
69873W        W12786  26.442  11.309  19.326 -0.0777 -0.2697  0.2385
69874W        W12787  18.347   7.247  13.688 -0.3206  0.0042  0.2594
69875W        W12788  17.570   7.621  14.388 -0.0980 -0.0433 -0.0234
69876W        W12789   9.038   8.910  25.965  0.0541 -0.4308  0.0363
69877W        W12790  23.621  12.963  26.985 -0.1633 -0.1490  0.0128
69878W        W12791   9.310   2.117  24.424 -0.2424 -0.0624 -0.0354
69879W        W12792  18.499  31.323  22.050 -0.0731 -0.2138 -0.1489
69880W        W12793  17.405   8.612  21.342 -0.1546  0.0463  0.0719
69881W        W12794  18.980  26.128  19.806  0.1385 -0.0746 -0.0998
69882W        W12795  21.325   6.995  15.664  0.2581 -0.1753 -0.3730
69883W        W12796  18.117   4.384  19.908  0.0758 -0.0596  0.0408
69884W        W12797  15.867   3.231  28.776 -0.1399  0.2195  0.0836
69885W        W12798  11.447   6.785  21.359 -0.0499 -0.2531  0.0954
69886W        W12799  14.277   2.932  17.034  0.2715  0.0530 -0.1133
69887W        W12800  17.233   8.423  19.937 -0.0496 -0.0217  0.0272
69888W        W12801  10.087  34.417  28.258  0.4913 -0.3051  0.0616
69889W        W12802  24.144   0.920  23.660  0.1357 -0.1546  0.0793
69890W        W12803  23.942   6.946  20.462  0.1811 -0.0841  0.0630
69891W        W12804  21.368   8.672  19.417 -0.2484 -0.1299  0.1291
69892W        W12805  22.034  11.360  20.603 -0.2428 -0.0686 -0.0963
69893W        W12806  18.706   5.512  24.331 -0.1164  0.0538 -0.2719
69894W        W12807  22.138   5.006  23.140 -0.1177 -0.1495 -0.1210
69895W        W12808  15.685   5.129  15.937  0.0893 -0.0929 -0.0452
69896W        W12809  15.914  28.620  26.518 -0.1805 -0.2413  0.0895
69897W        W12810  16.687   0.804  23.645  0.0040 -0.0391 -0.0773
69898W        W12811  12.805  25.226  29.298  0.0673  0.0983  0.2860
69899W        W12812  16.347   4.861  15.236  0.1073 -0.0202 -0.2188
69900W        W12813  19.955   0.110  17.974 -0.0668  0.0976 -0.1618
69901W        W12814   2.376   4.104  19.975  0.0086  0.3615 -0.2694
69902W        W12815  17.875   6.636  18.673 -0.3125 -0.0680  0.1212
69903W        W12816  27.925  14.747  16.923 -0.1260 -0.0882 -0.0369
69904W        W12817  15.465   0.376  15.030 -0.2641  0.1334 -0.0485
69905W        W12818  20.202  31.709   0.117  0.0906 -0.3706 -0.1356
69906W        W12819  11.816  31.371  29.736 -0.0900 -0.1916 -0.2048
69907W        W12820  13.496   4.326  18.021  0.4643 -0.1723  0.1618
69908W        W12821  21.756   9.661  14.811 -0.0607  0.0623 -0.2923
69909W        W12822  12.431   6.122  23.035  0.0521 -0.2252  0.3572
69910W        W12823  19.789   0.464  16.482  0.0900  0.0692 -0.0577
69911W        W12824  24.365  10.943  19.330 -0.1681  0.1389 -0.3151
69912W        W12825  20.650   5.437  17.662 -0.1198  0.0715 -0.2051
69913W        W12826  17.985   8.496   1.653  0.2031 -0.0065  0.0163
69914W        W12827  19.445   8.156  13.475 -0.2923 -0.1523 -0.1156
69915W        W12828  19.615  10.686  15.746  0.3049 -0.0325  0.0326
69916W        W12829  14.354  29.126  22.135  0.2898 -0.1606  0.0725
69917W        W12830  25.551   1.897  21.967 -0.0277 -0.0822 -0.0437
69918W        W12831  24.348   3.863  25.260 -0.0672 -0.1957  0.2032
69919W        W12832  16.279   2.659  18.880 -0.0646 -0.3727 -0.2379
69920W        W12833  19.833   9.092   2.716 -0.0556  0.0931 -0.2177
69921W        W12834   9.477  31.460  19.161 -0.4643  0.3060  0.2214
69922W        W12835  32.084   9.252  19.749  0.1074  0.1479 -0.0258
69923W        W12836  12.284  13.139  20.809  0.1694  0.1425 -0.1232
69924W        W12837  22.704   6.709  23.731  0.0918 -0.0809  0.0135
69925W        W12838   6.977   6.616   3.796  0.0625  0.3869 -0.0129
69926W        W12839  19.517   8.271  19.671 -0.0237 -0.1414  0.0001
69927W        W12840  18.502  33.790  22.030 -0.1706 -0.0790 -0.3321
69928W        W12841  16.153  11.620  17.956  0.1695 -0.0958  0.3288
69929W        W12842  14.265  13.634  19.750 -0.1123  0.1126  0.0436
69930W        W12843  21.994   0.091  19.510 -0.5018 -0.0457 -0.0828
69931W        W12844  15.233  34.419  21.987 -0.0565 -0.2511  0.1541
69932W        W12845  21.197  29.804  21.208  0.3003 -0.1306 -0.5162
69933W        W12846   8.604   8.418  18.449  0.0278 -0.1469  0.1005
69934W        W12847  18.880   1.045  14.839  0.3092 -0.1937 -0.0790
69935W        W12848  17.188  30.994  23.939 -0.0342  0.0555 -0.0612
69936W        W12849   6.531  28.710  23.309  0.1408  0.2531  0.5429
69937W        W12850  25.415  33.018  16.433  0.1466 -0.0036 -0.2054
69938W        W12851  17.724   3.265  18.624  0.0535  0.1333 -0.2033
69939W        W12852  22.463   4.434  16.667  0.0135  0.0699  0.0600
69940W        W12853  16.726   7.387  21.459  0.0736 -0.1931 -0.3086
69941W        W12854   5.919   9.682  24.893  0.0121 -0.1756 -0.2870
69942W        W12855   9.927  14.814  14.778  0.0083 -0.1692 -0.0064
69943W        W12856  17.764   2.426  20.549  0.0915  0.0094  0.2014
69944W        W12857  17.285  33.623  22.811  0.0855 -0.2768 -0.1714
69945W        W12858  15.046  32.854   3.472  0.3046 -0.0206  0.2396
69946W        W12859  10.961   0.008  26.001 -0.1399  0.0261 -0.0625
69947W        W12860  13.753   6.574  15.380 -0.0815 -0.2953  0.0073
69948W        W12861  26.210  14.130  27.849 -0.2578  0.2214  0.0243
69949W        W12862  19.851   2.195   2.994 -0.0308  0.3166 -0.2967
69950W        W12863   7.552  27.528  21.944 -0.0025 -0.1426  0.1211
69951W        W12864  22.435   3.576   4.484 -0.2880  0.1108 -0.1529
69952W        W12865  15.456  30.490  27.634 -0.1456  0.1931 -0.0264
69953W        W12866  19.568   1.374  15.912 -0.0039 -0.1260 -0.0812
69954W        W12867  18.533  29.639  25.173 -0.1259  0.1079  0.1073
69955W        W12868  14.020  33.818  28.594  0.0970 -0.0917 -0.1864
69956W        W12869   7.287   9.314  18.287  0.4377 -0.0382 -0.0008
69957W        W12870  14.288   8.060  22.006 -0.3488 -0.0023 -0.0626
69958W        W12871  19.361   9.141   2.025  0.1035  0.1886  0.2936
69959W        W12872  27.080  31.196  29.663  0.1508  0.2396 -0.2579
69960W        W12873  19.900  33.066  18.912  0.2202  0.0411 -0.0439
69961W        W12874  24.263  15.134  14.675 -0.1932  0.1439 -0.1672
69962W        W12875  11.836   0.975  27.179 -0.0299  0.0121 -0.2891
69963W        W12876  25.315   6.302  16.440  0.2614  0.2083 -0.0816
69964W        W12877  11.368   7.473  26.843 -0.2858  0.0191  0.0287
69965W        W12878  13.839  20.845  19.904 -0.4034  0.3846 -0.0573
69966W        W12879  14.451   4.515   5.717  0.2749  0.1400 -0.0268
69967W        W12880   4.826  25.100  28.179  0.0340 -0.1697 -0.3451
69968W        W12881  20.615  29.695  17.839 -0.0160 -0.1166 -0.2641
69969W        W12882  13.424   9.975  19.558 -0.1548  0.2403 -0.3373
69970W        W12883  26.735  13.257  14.006 -0.0307  0.2929  0.0449
69971W        W12884  14.496  33.318  20.405 -0.2242 -0.0124  0.0723
69972W        W12885  25.092  34.203  21.029 -0.0852 -0.0032  0.1135
69973W        W12886  26.270   6.026  24.278 -0.0546  0.1214  0.1183
69974W        W12887  21.016   1.393  19.162 -0.0322  0.2854 -0.1719
69975W        W12888  23.142  12.267  16.811 -0.4321  0.0548  0.0290
69976W        W12889  25.553  18.561  16.258 -0.0459 -0.3902  0.1061
69977W        W12890  19.816   5.638  19.063  0.3258 -0.1369  0.0597
69978W        W12891  21.215   9.399  21.380 -0.1909  0.2342 -0.2608
69979W        W12892   8.287   7.918   4.050  0.0308  0.1524  0.0246
69980W        W12893  14.914  28.493  22.097  0.0515  0.0910 -0.0859
69981W        W12894  22.467   4.777  22.121 -0.1677 -0.1542 -0.1568
69982W        W12895  10.241   1.530  29.032  0.0597  0.1185 -0.0422
69983W        W12896  19.193   6.342  27.934  0.0335 -0.1001 -0.1520
69984W        W12897  14.236   1.129  20.075 -0.1378 -0.0253  0.1215
69985W        W12898   8.671   5.672  21.950 -0.2208 -0.4549  0.0665
69986W        W12899  18.168  34.141  18.093  0.0805 -0.0735  0.2901
69987W        W12900  23.756   0.738  22.637  0.1638 -0.0122  0.1068
69988W        W12901   7.533  17.029  27.288 -0.3372 -0.0111 -0.1203
69989W        W12902  28.939  13.130   3.033  0.0945  0.0313 -0.1731
69990W        W12903  17.421  10.503  18.015  0.1802  0.1205  0.0338
69991W        W12904  18.283  21.303   0.723 -0.1029 -0.2064  0.0678
69992W        W12905  24.777  23.638  20.139  0.1930  0.1812 -0.1648
69993W        W12906  16.252  10.760  18.837 -0.3847  0.0673  0.0648
69994W        W12907  11.672  25.688  24.508  0.0269 -0.0076  0.1459
69995W        W12908  19.621  13.358  16.954 -0.2371  0.0689 -0.1637
69996W        W12909  26.681  32.923   6.528 -0.0995 -0.0343  0.0534
69997W        W12910  18.059  28.968  23.932 -0.0249  0.0054 -0.2184
69998W        W12911   6.364  29.587   0.020  0.3507  0.0953 -0.0506
69999W        W12912  29.108  14.701   3.555  0.1525 -0.0812 -0.2111
70000W        W12913  20.961  28.895  17.865 -0.1225 -0.3405  0.1460
70001W        W12914  21.160   6.540   1.823  0.3477 -0.0017 -0.1515
70002W        W12915  25.972   3.101  28.939 -0.2133 -0.0377  0.1951
70003W        W12916  15.962   6.713  28.098  0.0667 -0.0165 -0.3980
70004W        W12917  27.443   8.924  20.197 -0.0535 -0.1038  0.0648
70005W        W12918   9.284  12.633   1.486  0.3250 -0.1757  0.0990
70006W        W12919   8.098   4.781   2.686 -0.3133  0.0474 -0.4310
70007W        W12920  12.739   9.500  20.324 -0.1434  0.1469 -0.1829
70008W        W12921  17.641   9.667  14.077  0.2202  0.2664  0.2360
70009W        W12922  17.470   2.959  24.675 -0.0718 -0.1017 -0.4406
70010W        W12923   7.452   0.378  28.531 -0.1505 -0.1127  0.2592
70011W        W12924   7.058   9.102  20.636 -0.0281 -0.0716 -0.0141
70012W        W12925  20.827   7.774   4.996  0.0143  0.0448 -0.0871
70013W        W12926   8.406   7.355  22.732  0.2453  0.0978 -0.0500
70014W        W12927   7.340  13.495  15.554  0.2720 -0.0876 -0.2504
70015W        W12928  18.033   1.519  27.320 -0.1984 -0.0929  0.0972
70016W        W12929  19.449   3.652   0.457  0.0077 -0.0672  0.2263
70017W        W12930  21.278   1.731  17.387 -0.0798  0.0070 -0.5151
70018W        W12931  33.202   7.593   0.483 -0.2839 -0.1851 -0.3026
70019W        W12932  15.539  16.657  24.703 -0.0273  0.3011  0.2822
70020W        W12933   9.430  33.286   0.880 -0.0962 -0.1291  0.1880
70021W        W12934   8.334   6.095  23.426 -0.2059 -0.1165 -0.4512
70022W        W12935  19.319   8.075  16.167 -0.0051 -0.1974  0.1082
70023W        W12936  12.644   7.881  26.301  0.0997 -0.1775 -0.1683
70024W        W12937  12.517  16.611  17.132  0.2380 -0.1431 -0.2665
70025W        W12938  16.016   0.389   6.726 -0.0251 -0.4278 -0.1734
70026W        W12939  10.134  15.730  19.228  0.1672 -0.0395  0.0381
70027W        W12940   8.236  13.311  27.259  0.2032  0.0553  0.0962
70028W        W12941  21.231  13.370  20.102  0.3707  0.2321  0.5116
70029W        W12942  16.962   5.051  18.700  0.3276 -0.1512  0.1311
70030W        W12943  20.037   0.855  20.154  0.2091  0.2667  0.1536
70031W        W12944  16.328  15.780  16.470 -0.1253 -0.1587  0.1533
70032W        W12945  13.455   7.579  20.252 -0.1034 -0.0614 -0.1319
70033W        W12946  15.162   3.554  17.476  0.0217 -0.0163 -0.2329
70034W        W12947  18.431   6.408  13.850  0.0342 -0.1991  0.1696
70035W        W12948   5.080  33.594  19.596  0.1268 -0.0656 -0.1414
70036W        W12949  23.196   2.080  19.251 -0.2572  0.0021 -0.1375
70037W        W12950  17.911   7.229  25.913 -0.0172 -0.1706 -0.0147
70038W        W12951  11.050  14.129  25.366 -0.1270  0.0199 -0.1940
70039W        W12952  13.540  13.671  23.819  0.4695  0.1363  0.2855
70040W        W12953  13.882   5.970  19.596  0.1652  0.1871 -0.0707
70041W        W12954  16.044  25.874  27.552  0.1605 -0.2417 -0.1674
70042W        W12955   7.636   9.438  23.556  0.0275  0.0823 -0.2954
70043W        W12956  13.653   7.506  15.397  0.0712  0.1449 -0.0226
70044W        W12957  13.303  14.173  23.706  0.1705  0.1731  0.0245
70045W        W12958  16.763  26.817  24.143  0.2060  0.2572  0.0642
70046W        W12959  11.171  32.368  24.167  0.1783  0.1197 -0.1414
70047W        W12960  12.058  10.889  26.705  0.2262  0.1540  0.2617
70048W        W12961  18.774  26.297  27.046  0.0542  0.0041  0.5094
70049W        W12962  13.585   2.411  17.288 -0.0713 -0.1369 -0.1377
70050W        W12963  18.034   2.066  15.043  0.0564 -0.1124  0.1659
70051W        W12964   7.030  13.733  19.697  0.1057 -0.1749  0.2768
70052W        W12965   8.257  28.283   0.679  0.2016 -0.4104 -0.0623
70053W        W12966   6.270   6.035  29.357 -0.1836 -0.0381  0.1249
70054W        W12967  12.658  33.159  18.247 -0.2293 -0.0709  0.2250
70055W        W12968   8.104  13.772  28.031  0.0643  0.0007 -0.3647
70056W        W12969  19.801   3.489  19.458  0.0881 -0.2759 -0.0460
70057W        W12970  24.051   5.196  20.955 -0.0570  0.0213 -0.1043
70058W        W12971  12.972   3.256  24.193  0.1418 -0.3511 -0.0571
70059W        W12972  16.096   9.288  19.699 -0.1601 -0.1936 -0.0554
70060W        W12973  25.336  11.574  28.786 -0.2774  0.5074  0.0916
70061W        W12974  21.839   4.348  29.497 -0.0145 -0.0413  0.0660
70062W        W12975  16.795   1.440  27.475 -0.0752  0.2171  0.2047
70063W        W12976  11.221   0.884   3.526 -0.0128  0.0464  0.0578
70064W        W12977   0.878  31.552  25.029  0.1207  0.3133 -0.0815
70065W        W12978   9.962  31.229  29.061 -0.5457 -0.0056  0.1004
70066W        W12979  20.185   5.534  20.047 -0.0505 -0.2486 -0.2329
70067W        W12980  22.141  14.258  18.881  0.2938 -0.2509 -0.2094
70068W        W12981  19.955  31.976  22.136 -0.0774  0.3152 -0.3035
70069W        W12982  12.622  33.137  17.022 -0.1092  0.1182  0.0487
70070W        W12983  22.965   7.314  25.062  0.1361 -0.0821 -0.0284
70071W        W12984  10.295   3.024  17.936 -0.1811  0.0185 -0.0862
70072W        W12985  17.800   8.206  27.871 -0.1806  0.1102 -0.0979
70073W        W12986  27.805  23.538  27.789 -0.0653 -0.0768  0.1629
70074W        W12987  11.223  27.223  22.352 -0.0409  0.0955  0.3368
70075W        W12988  15.128   1.201  26.687 -0.1844 -0.0906 -0.0150
70076W        W12989   0.713  32.573  22.297 -0.6275 -0.1214  0.0726
70077W        W12990  15.814   1.196  27.529  0.0378  0.3825 -0.1092
70078W        W12991   8.168  24.582  26.070  0.4530  0.1138  0.1605
70079W        W12992  13.822  26.978  22.801 -0.1794  0.5020 -0.0919
70080W        W12993  20.906  28.234  26.904 -0.1274  0.0296  0.3552
70081W        W12994  15.286   6.198  18.300 -0.1574  0.2116 -0.0246
70082W        W12995  20.859   5.070   6.172  0.0570 -0.1184 -0.2742
70083W        W12996  30.030  10.412  25.375  0.0752  0.0912 -0.0587
70084W        W12997  19.579  10.463  20.640 -0.2707  0.2228  0.0946
70085W        W12998  25.292  33.832  23.490 -0.0313  0.1882 -0.2099
70086W        W12999  21.701   4.529   0.497  0.0797 -0.1023 -0.0881
70087W        W13000  13.101   9.245  23.151  0.0998 -0.1011  0.1274
70088W        W13001  11.358  14.378  24.827 -0.0321  0.1126  0.1460
70089W        W13002  16.316   5.026  28.904 -0.1365 -0.3296  0.0338
70090W        W13003  25.426  26.014  14.769 -0.2127  0.2137  0.3852
70091W        W13004  11.220  10.400  20.119  0.1837 -0.0389  0.1572
70092W        W13005   8.824  32.360  16.651  0.4424  0.2024 -0.0994
70093W        W13006   6.805   2.740  24.494  0.0255 -0.0571  0.3312
70094W        W13007  18.889  32.311  20.045  0.0897  0.1793  0.0726
70095W        W13008  29.469  17.496  13.098  0.0618  0.5830 -0.0428
70096W        W13009  28.044   7.950  16.223 -0.3273  0.1696 -0.2059
70097W        W13010  21.284  31.099  24.627  0.0388 -0.2503 -0.0671
70098W        W13011  25.440   3.314  14.266 -0.0206 -0.1374 -0.2512
70099W        W13012  14.607  13.469  19.306 -0.2764 -0.0531 -0.1838
70100W        W13013  12.347   1.833  17.501 -0.1518 -0.1316  0.2039
70101W        W13014  25.654  16.684  24.472  0.0151  0.1982  0.2931
70102W        W13015   7.497  32.369  18.269  0.1016 -0.1255  0.2505
70103W        W13016  10.977   6.365  25.086 -0.0456 -0.3163  0.2207
70104W        W13017  19.685   7.939  19.307  0.0175 -0.2436  0.1308
70105W        W13018  21.477   8.268  15.863  0.2449  0.1407 -0.0933
70106W        W13019  23.118  16.683  13.422  0.0274 -0.4514  0.0766
70107W        W13020  21.665   1.484  17.350  0.2152  0.0235  0.4408
70108W        W13021  24.754   6.277  21.107 -0.0740  0.1222 -0.3063
70109W        W13022  17.043  17.169   8.428 -0.0729  0.2452  0.3665
70110W        W13023  10.421  12.069  25.313 -0.1061  0.3785 -0.1762
70111W        W13024  27.603   5.798  22.740 -0.0966 -0.0997  0.1645
70112W        W13025  17.503  20.433  15.054  0.0143 -0.0423  0.0353
70113W        W13026   7.223   9.181   3.694 -0.2285 -0.2530 -0.1032
70114W        W13027  21.172   0.139  18.041  0.3925 -0.1979  0.0592
70115W        W13028  14.108   9.003  16.203  0.0217  0.3254  0.0997
70116W        W13029  21.201   4.898  20.769  0.0579 -0.0862 -0.2515
70117W        W13030  17.687  10.268   3.461  0.0323  0.0193  0.3061
70118W        W13031  12.153  11.139  14.773 -0.0443  0.0132  0.0582
70119W        W13032  21.635   0.043  17.911  0.2212  0.1214 -0.1346
70120W        W13033  27.633  12.976  20.324 -0.0776 -0.0725  0.1389
70121W        W13034  21.390  29.906  19.062 -0.0673  0.2004  0.0473
70122W        W13035   6.736   3.432  17.018  0.0933 -0.3945  0.0058
70123W        W13036  10.637   2.337  29.014  0.2407 -0.2562  0.1083
70124W        W13037  24.358   3.015  15.594 -0.0358 -0.2227  0.0181
70125W        W13038  11.280  33.786  25.196 -0.0320 -0.0438 -0.1630
70126W        W13039  22.638   7.694  15.687  0.0912 -0.3264  0.0435
70127W        W13040  13.677  31.322  29.487  0.0290 -0.1584 -0.1016
70128W        W13041  17.086   1.793  21.871  0.0912 -0.2691 -0.2190
70129W        W13042  12.074   5.676  16.960 -0.0780 -0.0001 -0.1100
70130W        W13043  23.158  13.288  13.618 -0.0166 -0.2315  0.0817
70131W        W13044   6.187   7.378  18.437  0.0490  0.0877 -0.2626
70132W        W13045  19.141  33.757  25.174  0.1155  0.1675  0.0123
70133W        W13046   6.140   6.509  20.312  0.1406 -0.3069 -0.0205
70134W        W13047  13.192  10.978  28.655  0.1103  0.0304 -0.0893
70135W        W13048   9.436   5.926  28.167  0.0140 -0.1543 -0.0198
70136W        W13049  23.119   4.308  18.676  0.0336  0.1443 -0.3410
70137W        W13050  28.746  14.256  24.795 -0.3511  0.2583 -0.0284
70138W        W13051  27.361  10.369  21.582 -0.1677 -0.0628  0.0066
70139W        W13052  28.361  20.946  16.717 -0.1654  0.1890  0.0521
70140W        W13053   8.679   9.811  15.602  0.5844  0.1129 -0.0747
70141W        W13054  14.875   3.564  18.680  0.2938 -0.4139  0.1291
70142W        W13055  19.430   1.444  29.591 -0.0471  0.1333 -0.1344
70143W        W13056  15.740  32.465  17.680  0.0765 -0.0381  0.1237
70144W        W13057  18.698   9.617   5.953  0.4453 -0.3614  0.1671
70145W        W13058  20.243   8.015  25.527 -0.2260 -0.1309  0.3136
70146W        W13059  21.788   5.126  20.868  0.2598 -0.2230  0.0571
70147W        W13060  10.793  33.087   4.620  0.3195  0.1341  0.0178
70148W        W13061  15.097   0.326  20.156 -0.0659  0.0005  0.2759
70149W        W13062   7.517   7.004  17.459 -0.0465  0.1799 -0.1422
70150W        W13063  20.278  30.925  21.306 -0.1471  0.0465 -0.3071
70151W        W13064  18.952   8.466  12.925  0.1135 -0.1043  0.0881
70152W        W13065  13.562   9.868  24.952  0.0829  0.0706  0.1574
70153W        W13066  15.383  29.854  20.467  0.1665  0.0625 -0.0577
70154W        W13067  26.926   4.750  21.128  0.1008 -0.1957 -0.0580
70155W        W13068  11.529   4.112  25.296  0.1413 -0.1229  0.0795
70156W        W13069  16.459  12.142   2.435 -0.0771 -0.1609 -0.0905
70157W        W13070  14.160  12.234  16.755 -0.4638  0.1217 -0.1328
70158W        W13071  19.032   0.267   6.245  0.1293 -0.1647  0.0678
70159W        W13072  12.472  24.524  28.050  0.3176 -0.2128  0.1079
70160W        W13073  16.361   0.476  24.515  0.0902 -0.3023  0.1724
70161W        W13074   9.158  10.156  19.444 -0.1670  0.1302  0.3872
70162W        W13075  22.624   4.087  16.015 -0.0527  0.1675  0.1348
70163W        W13076   2.735   6.238  25.583  0.0696 -0.0230 -0.1567
70164W        W13077   8.657   2.871  17.260  0.0912 -0.3745 -0.3931
70165W        W13078  21.401   2.879  24.688 -0.1302 -0.1014  0.3452
70166W        W13079  15.056  13.665  20.523 -0.1578  0.1343 -0.2708
70167W        W13080  18.833   7.674  23.774  0.1088 -0.0461  0.2610
70168W        W13081  17.590   0.306  19.135 -0.1562  0.3243 -0.1601
70169W        W13082  15.144   0.306  21.048  0.0561  0.2076  0.0274
70170W        W13083  26.001   0.992   2.220 -0.0744 -0.5558 -0.0115
70171W        W13084  12.556  22.028  18.639 -0.2426 -0.2702 -0.1099
70172W        W13085  18.936   5.389  28.995 -0.2649  0.2121  0.0446
70173W        W13086  22.949  33.846  23.522 -0.3496 -0.2394  0.4516
70174W        W13087  10.250   4.575  17.350 -0.3742  0.1959 -0.0551
70175W        W13088  19.057   3.308   2.230  0.0380  0.3026  0.2377
70176W        W13089  23.097   3.972   1.884 -0.1637 -0.1321 -0.0393
70177W        W13090  20.833  34.432  22.836 -0.1545 -0.3328 -0.1488
70178W        W13091  16.803   7.716  25.208  0.2483  0.2146 -0.1834
70179W        W13092  10.507   8.621  22.279 -0.0111  0.1059  0.0447
70180W        W13093  10.809  25.809  16.764 -0.0800 -0.0003 -0.4162
70181W        W13094  23.917   0.960   0.464  0.1838  0.0067  0.2445
70182W        W13095   7.830  29.420  21.491 -0.1205  0.3006 -0.0973
70183W        W13096  13.722  31.259   3.193  0.0084 -0.2054 -0.2024
70184W        W13097  17.782  11.875  18.873  0.0456 -0.0341 -0.1123
70185W        W13098  19.070  12.416  26.816 -0.0087 -0.2667 -0.1242
70186W        W13099  13.781  32.055   3.484  0.2550  0.2267 -0.1312
70187W        W13100  13.669   8.133  27.680 -0.0375  0.1043  0.0482
70188W        W13101   9.069   0.805  29.417  0.0616  0.1160 -0.0383
70189W        W13102   4.686   7.091  23.878  0.1445 -0.2244 -0.0636
70190W        W13103  18.298   7.726  26.766  0.0756  0.3714 -0.1323
70191W        W13104  12.438   1.327  18.359  0.3420 -0.1450 -0.2395
70192W        W13105  12.990  29.383  22.011 -0.1443 -0.0067 -0.4379
70193W        W13106  16.891  12.647  26.752 -0.3842  0.1548  0.0059
70194W        W13107  15.837   5.191   6.598  0.2777 -0.0389 -0.3536
70195W        W13108  17.374   2.607  27.180  0.0314 -0.0064  0.1947
70196W        W13109   9.171  32.287  20.051 -0.0408  0.2447  0.0114
70197W        W13110   1.375  28.913  19.719  0.1654 -0.3071  0.3035
70198W        W13111  18.801  31.927  28.737 -0.0033  0.1906 -0.2497
70199W        W13112   8.781   5.300  16.818  0.1830 -0.1901 -0.1514
70200W        W13113   8.277   4.349  17.786  0.0191  0.0171  0.0832
70201W        W13114  19.682   8.866   5.776  0.0105  0.2138  0.1052
70202W        W13115  19.213   1.497  22.361  0.2595 -0.2128 -0.2363
70203W        W13116  22.669   2.633  17.735  0.2393  0.1326  0.0446
70204W        W13117  20.772   8.417  15.165  0.1203 -0.3797  0.3443
70205W        W13118  15.767   6.749   1.003 -0.0448  0.0091  0.0354
70206W        W13119  21.473   7.235  24.779  0.1099  0.0458 -0.0709
70207W        W13120  17.846   2.809  16.101 -0.3919 -0.2305 -0.0898
70208W        W13121   5.148  12.929  16.567  0.2252  0.1707 -0.0357
70209W        W13122  28.173   8.464  18.408  0.1450 -0.0153 -0.1285
70210W        W13123   8.402   2.433   2.181  0.1051 -0.0229  0.3279
70211W        W13124  23.180   2.279  29.491  0.1591 -0.0965 -0.3592
70212W        W13125  28.858  14.994  21.941 -0.2609 -0.0781  0.2635
70213W        W13126   4.794   0.215  27.832  0.0900  0.2303  0.2462
70214W        W13127  13.076   6.967   0.469 -0.0671  0.1728  0.0944
70215W        W13128  23.845  31.516  24.050 -0.0756  0.1201  0.0017
70216W        W13129  18.124   5.490  15.408  0.1387 -0.0569  0.0644
70217W        W13130  26.884  11.486  26.024 -0.1556 -0.2038 -0.2409
70218W        W13131  15.911   9.649  28.180 -0.2569  0.3469  0.1212
70219W        W13132  13.012   5.308  23.017 -0.0760 -0.1100 -0.0231
70220W        W13133  18.553  12.096  24.819 -0.3589  0.1409 -0.1102
70221W        W13134  24.433   8.034  14.857 -0.4742  0.3414 -0.4364
70222W        W13135  16.849   0.073  28.182 -0.2053  0.3425 -0.1597
70223W        W13136   5.223   3.139  20.094 -0.0261 -0.3103  0.1152
70224W        W13137  11.053   3.516  19.762  0.2958 -0.0336  0.0051
70225W        W13138  20.097   9.054  17.377 -0.0607 -0.1703  0.1448
70226W        W13139  24.062   4.992  21.771 -0.0895  0.1677  0.0657
70227W        W13140  27.535  15.135  18.628  0.0963  0.2101  0.2576
70228W        W13141  19.346   6.234  29.256 -0.0947  0.3107  0.0514
70229W        W13142   2.829   8.373  22.057  0.0033  0.1206  0.1420
70230W        W13143  25.429   6.879  16.617  0.3215 -0.2623  0.2703
70231W        W13144  14.783   2.772  20.104 -0.1728  0.0044  0.1892
70232W        W13145  10.933  21.333  19.499 -0.1384 -0.0610  0.0821
70233W        W13146  19.102   6.339  14.212  0.0490 -0.2358  0.0943
70234W        W13147  28.890  28.433  28.414 -0.1263 -0.0640  0.1432
70235W        W13148  16.086  11.972  25.288 -0.2941 -0.0790  0.0722
70236W        W13149  10.903   5.342   4.872  0.0238  0.0863 -0.3315
70237W        W13150  12.036  30.634   1.578  0.1760 -0.0059  0.0810
70238W        W13151  18.577   7.665  24.174 -0.0809 -0.1009  0.0657
70239W        W13152  20.266  31.871  16.196 -0.1366  0.1727  0.4105
70240W        W13153  17.935   3.040   8.008 -0.0379  0.1745  0.0625
70241W        W13154  26.386  19.862   0.923  0.0409 -0.0757  0.1449
70242W        W13155  25.558  15.323  28.626 -0.0006 -0.0637  0.2134
70243W        W13156  21.321   3.364   1.791  0.2474 -0.0832  0.1969
70244W        W13157  26.015   5.367  15.809  0.2112  0.2519 -0.0007
70245W        W13158   9.271   1.680  17.524 -0.0349  0.1293 -0.0769
70246W        W13159  16.217   5.353  19.793  0.0270  0.0111 -0.1069
70247W        W13160  26.282  10.064  24.631  0.3334  0.0575  0.0979
70248W        W13161  16.305  13.257  26.247 -0.1243 -0.1063  0.1225
70249W        W13162   6.290  33.785  22.340 -0.3166  0.1742  0.0868
70250W        W13163  15.016  32.726  21.577  0.0824 -0.4504  0.1076
70251W        W13164  19.775  12.930  17.981  0.1126 -0.0291  0.2194
70252W        W13165  24.239   3.615  19.397 -0.3586 -0.1168 -0.2224
70253W        W13166  17.845   6.647  16.550 -0.0151 -0.1614 -0.2643
70254W        W13167  12.729   5.427  24.760 -0.0984  0.1369  0.5331
70255W        W13168  15.683   9.232  28.376  0.2539  0.3222 -0.1173
70256W        W13169  23.774   2.302  20.218  0.1741  0.1602  0.1744
70257W        W13170  12.717  33.953  28.507  0.1571  0.2578  0.0671
70258W        W13171  25.832   8.938  15.306  0.2166 -0.1195 -0.2238
70259W        W13172  12.702   9.805  24.261  0.2311 -0.5158  0.1077
70260W        W13173  20.073   8.214  13.665 -0.0778  0.0656 -0.0385
70261W        W13174  11.859   5.974  21.126 -0.1971  0.0093  0.3188
70262W        W13175  26.140  25.547  29.660 -0.0461  0.0866  0.1395
70263W        W13176   6.736   3.399  18.616  0.3276  0.3070  0.0990
70264W        W13177  15.804   8.630  26.688 -0.1223  0.6058 -0.1726
70265W        W13178  22.160   9.192  13.020  0.0908  0.0672 -0.1488
70266W        W13179  16.769   1.789  17.581  0.2078  0.1609 -0.1573
70267W        W13180   8.930  16.534  22.239  0.1356  0.5155 -0.0823
70268W        W13181   9.078   9.475  19.988  0.1518 -0.0586 -0.0241
70269W        W13182  11.276   4.268   7.160  0.1029 -0.1745  0.0789
70270W        W13183  10.662  27.588  20.271  0.2333 -0.0086 -0.1994
70271W        W13184  14.710  12.610  21.305  0.1390 -0.1559  0.0046
70272W        W13185  19.643   0.590  25.714  0.2024 -0.3665 -0.0911
70273W        W13186  17.361   3.638  17.050 -0.1139  0.1344 -0.2235
70274W        W13187  19.953   0.982  14.960  0.2295  0.1806  0.0652
70275W        W13188  23.370  30.795  25.016  0.0512 -0.2545  0.0006
70276W        W13189  17.403  29.156  28.964  0.2819  0.1683 -0.1795
70277W        W13190  14.624  30.189  16.385 -0.1032  0.1222 -0.0982
70278W        W13191  28.305  15.007  24.009 -0.1010 -0.0100  0.1754
70279W        W13192  17.016   7.610  19.243  0.0297 -0.1533  0.0385
70280W        W13193  15.895   2.469  22.379  0.3586  0.2066  0.0825
70281W        W13194  10.555   6.060  16.669 -0.2523  0.1320  0.1157
70282W        W13195  25.272  10.730  21.110 -0.1680 -0.2291  0.0617
70283W        W13196  16.188   7.096   2.755 -0.2815  0.0461  0.1408
70284W        W13197  12.455   1.562  23.112  0.2943 -0.0822  0.0090
70285W        W13198  22.845   9.260  18.550 -0.0975 -0.0032  0.1578
70286W        W13199  17.664  28.216  17.734 -0.0247  0.1533  0.4428
70287W        W13200  19.164   7.278  17.495  0.3270  0.1300 -0.2256
70288W        W13201  21.018   1.149  27.278  0.1088 -0.3715 -0.2439
70289W        W13202  13.636   6.274  25.895 -0.1094 -0.0913  0.3140
70290W        W13203  26.191   2.213  24.903  0.0602 -0.0157  0.3394
70291W        W13204  28.051  31.000  16.979  0.0982 -0.2990  0.2932
70292W        W13205  14.199   3.234   6.280  0.1092 -0.1788  0.0621
70293W        W13206  14.992  34.426  20.658 -0.1744  0.0486  0.2575
70294W        W13207  13.243  28.504  23.715  0.1260 -0.0825  0.0752
70295W        W13208  12.697   0.598  23.203  0.1899  0.0288 -0.2958
70296W        W13209  18.369  10.400  22.479 -0.2200 -0.0471 -0.1741
70297W        W13210  23.538  19.180  23.835 -0.1139  0.0187 -0.0215
70298W        W13211  28.291  23.950  18.232 -0.1869  0.4227  0.0407
70299W        W13212  10.298  15.633  22.542 -0.0511  0.2672  0.0492
70300W        W13213  14.204   8.687  22.721 -0.0409 -0.2886 -0.2499
70301W        W13214  16.678   2.249  28.079  0.2182 -0.1680  0.0614
70302W        W13215  16.574   2.354  16.351 -0.5385  0.0720 -0.0711
70303W        W13216   6.440   6.693   0.148 -0.2323 -0.2816  0.1822
70304W        W13217  16.892  13.133  20.335 -0.0505 -0.0194 -0.1200
70305W        W13218  17.206  31.400  18.416  0.1854  0.0609  0.5041
70306W        W13219   7.380  10.982  28.476  0.1120  0.3242 -0.0364
70307W        W13220  16.686  29.313  22.848 -0.0787 -0.0636 -0.1855
70308W        W13221  16.576   1.185   2.398 -0.0227  0.0414 -0.0125
70309W        W13222   5.291  13.602  27.163  0.0543 -0.2489  0.1551
70310W        W13223  34.355   3.543  17.532 -0.1785  0.1493 -0.1825
70311W        W13224  18.975   5.046  23.830 -0.3653 -0.1001 -0.2168
70312W        W13225  21.369   8.472   0.824  0.0904 -0.2985 -0.0670
70313W        W13226  11.118   9.690  25.113 -0.1897  0.0625  0.0946
70314W        W13227  16.687   5.126  15.618 -0.0734 -0.2224  0.2024
70315W        W13228  15.158  18.158  13.756  0.2879  0.0174 -0.2155
70316W        W13229  18.102  10.572  16.422  0.0908 -0.3081 -0.0726
70317W        W13230  13.230  14.735  22.293  0.2003  0.5780  0.3408
70318W        W13231  13.939   5.161  22.918  0.2580 -0.0574 -0.1790
70319W        W13232  17.091   7.194   2.621  0.0467  0.4032  0.0744
70320W        W13233  13.214  10.917  26.652 -0.1690  0.1176  0.4548
70321W        W13234  14.119  19.032  14.800 -0.0764 -0.3015  0.1136
70322W        W13235   6.556   2.192  22.315  0.0043 -0.3486 -0.0933
70323W        W13236  13.831   4.413  27.237  0.1156 -0.1080 -0.1106
70324W        W13237  26.382   2.447  26.833 -0.1840 -0.0542 -0.0087
70325W        W13238  11.973   8.609  24.707 -0.2275 -0.0242  0.0020
70326W        W13239  12.323   1.249   5.147 -0.1652  0.0736 -0.1127
70327W        W13240  10.332   0.223   5.666 -0.0952  0.2831  0.0812
70328W        W13241  14.300  17.785  26.057 -0.2310  0.1135 -0.2088
70329W        W13242  16.874  34.436  18.343 -0.0244  0.1664  0.2434
70330W        W13243   4.125  29.048  20.936 -0.0208 -0.3538  0.2193
70331W        W13244  21.824   1.291  26.499 -0.0273 -0.2415  0.0418
70332W        W13245  11.883   2.895  19.118 -0.0026  0.3425  0.0375
70333W        W13246  17.601  18.109  13.696  0.3375 -0.0621 -0.2279
70334W        W13247  17.611   2.201  19.429 -0.1053  0.1437 -0.4567
70335W        W13248  15.181  29.801  23.479 -0.0133  0.0112 -0.0580
70336W        W13249  20.312  33.249  27.657  0.1983 -0.2971  0.5115
70337W        W13250  28.229   6.835   4.017  0.0285 -0.0771  0.1000
70338W        W13251  25.224   5.747  26.404 -0.3467  0.2607 -0.1432
70339W        W13252  24.262  19.700  21.024 -0.1977  0.0687 -0.1357
70340W        W13253   7.554  19.282  28.721  0.2595  0.1499  0.2610
70341W        W13254  13.448  32.509   0.624 -0.0845  0.0069  0.2150
70342W        W13255   9.954   5.923  16.751 -0.0045  0.0330  0.2185
70343W        W13256  16.208  29.746   1.412 -0.1728  0.0086 -0.2965
70344W        W13257  19.952   4.722  19.331  0.0951  0.0616 -0.0919
70345W        W13258  16.059  30.622   5.312  0.2192  0.1129  0.1348
70346W        W13259  12.277   2.376   9.742  0.0625  0.0478 -0.0794
70347W        W13260  11.137   0.889  19.912  0.1942 -0.1992 -0.4932
70348W        W13261  22.526  33.160  17.969  0.1513  0.1438  0.3100
70349W        W13262  14.802   4.602  22.470 -0.1286  0.0899 -0.0035
70350W        W13263  11.291   2.960  20.189  0.2182 -0.1252  0.1178
70351W        W13264  23.977   4.677  16.045  0.2263  0.0336 -0.1734
70352W        W13265  10.285  14.808   0.131 -0.2394 -0.0611  0.0174
70353W        W13266  15.021   2.706  25.132 -0.0050 -0.1763 -0.3035
70354W        W13267  25.636   2.452  19.137  0.3158  0.3283 -0.0864
70355W        W13268  11.668  33.370  29.143 -0.0419 -0.2258  0.0538
70356W        W13269  16.081   9.212  23.001  0.1380  0.0507  0.2565
70357W        W13270  14.295  11.641  24.990  0.0040  0.2491  0.0795
70358W        W13271  26.545  32.443   1.756 -0.3390 -0.3444 -0.0330
70359W        W13272   8.554   6.690  23.842 -0.0576  0.0585 -0.1683
70360W        W13273   2.321   1.801  24.456  0.1393  0.2987 -0.0563
70361W        W13274  17.366  11.305   7.936 -0.1391 -0.0347 -0.1066
70362W        W13275   7.512  31.322  23.136  0.0738 -0.1379  0.0209
70363W        W13276  28.932   8.450  28.667 -0.0241 -0.2161 -0.1048
70364W        W13277  15.643  15.269  24.890  0.1879  0.2699 -0.0795
70365W        W13278  11.184  13.389  18.335  0.1124  0.1081 -0.1009
70366W        W13279  20.746  33.439  20.323 -0.2801  0.0625 -0.1066
70367W        W13280   9.365   9.332  18.298  0.0305 -0.0017  0.1895
70368W        W13281  13.809  11.797  27.653 -0.1076 -0.1117  0.0808
70369W        W13282  14.061   3.465   3.932 -0.0267 -0.0704 -0.0718
70370W        W13283  12.822  13.125  24.532 -0.2556  0.0580 -0.0157
70371W        W13284   8.068  34.161  23.106 -0.1905 -0.1088 -0.1139
70372W        W13285  14.475  34.267  10.145  0.0574  0.2222  0.1338
70373W        W13286  17.458  27.357  17.672 -0.0825  0.0904 -0.0586
70374W        W13287  19.004   3.858  25.418 -0.0418  0.2133 -0.0553
70375W        W13288  29.519   4.895  22.884  0.1904 -0.0136 -0.0438
70376W        W13289  22.127   7.268  14.506  0.2406  0.2057 -0.0129
70377W        W13290  10.723  29.359  27.559 -0.2146  0.0008 -0.2179
70378W        W13291   9.861   7.301   1.715 -0.0522 -0.2057 -0.1397
70379W        W13292  14.056  11.005  20.854  0.2028  0.0161  0.0456
70380W        W13293  23.159   6.286  16.994  0.0404 -0.1496 -0.1969
70381W        W13294  13.098  16.530  24.122 -0.0954  0.0273  0.1368
70382W        W13295  10.786   4.212  27.943  0.0406 -0.2973 -0.1104
70383W        W13296  10.248   0.532  21.520  0.2209  0.0940  0.0511
70384W        W13297  10.444  32.818   2.614  0.2422  0.1329 -0.0232
70385W        W13298  29.353   5.117  23.909 -0.1172 -0.0117  0.2238
70386W        W13299  12.528   4.159  29.712  0.1201 -0.1449 -0.0068
70387W        W13300   2.709  22.562  29.701  0.0926 -0.1398 -0.1732
70388W        W13301  19.115   3.602   0.880  0.1166  0.1974 -0.1771
70389W        W13302  20.930  34.378  28.198 -0.4376 -0.0411 -0.1124
70390W        W13303  16.816   8.390  24.449 -0.1751  0.0978  0.0232
70391W        W13304  16.540  34.035  26.721  0.2470 -0.1003  0.2648
70392W        W13305   8.266  33.502   1.321  0.3579  0.0388 -0.0684
70393W        W13306  14.463   4.749  18.012 -0.0999 -0.2535  0.0816
70394W        W13307  13.710   0.872  23.819  0.0215 -0.1066  0.3838
70395W        W13308  12.697   4.252  26.356 -0.0010 -0.1711  0.0711
70396W        W13309  15.058   5.891   9.625 -0.4907  0.0252  0.0627
70397W        W13310  23.198   4.886  28.010 -0.1803  0.0283  0.0034
70398W        W13311  11.843  12.584   0.090 -0.3622  0.1802 -0.1390
70399W        W13312   6.651   6.842  24.212 -0.2093  0.0906  0.3591
70400W        W13313   0.638   5.753   6.819 -0.0588 -0.0696  0.0564
70401W        W13314  16.775  33.517   2.886  0.0774  0.1052 -0.1744
70402W        W13315  13.876  12.716  22.376 -0.3622  0.0692  0.2072
70403W        W13316  21.229   0.526  16.674  0.0713 -0.1611 -0.1871
70404W        W13317   9.650  31.760  27.960 -0.1452 -0.0037 -0.4658
70405W        W13318  20.281   9.292   7.662 -0.0032  0.2639  0.1133
70406W        W13319   8.075   1.299  18.194 -0.2413  0.7823 -0.2344
70407W        W13320  21.491   3.467   5.018  0.1142  0.0692 -0.1611
70408W        W13321  10.824   7.625  23.039 -0.0407 -0.1454 -0.1443
70409W        W13322  14.518  14.600  25.393  0.2213  0.1972  0.2360
70410W        W13323  25.139  13.949  29.207 -0.0636 -0.0061 -0.0686
70411W        W13324  16.897  14.701  25.583  0.0140  0.1284  0.0390
70412W        W13325  13.576   8.495  28.493 -0.1001 -0.0468 -0.0955
70413W        W13326   8.054   1.714   2.697 -0.0132  0.2086 -0.2117
70414W        W13327   8.379   2.673  21.204 -0.1096 -0.0161 -0.5329
70415W        W13328  25.542  11.160  23.086  0.0571 -0.1088  0.0456
70416W        W13329  13.994   9.410  21.929  0.1513 -0.1222 -0.2425
70417W        W13330  18.813  30.719   3.092 -0.1168 -0.0134  0.1444
70418W        W13331  14.475  12.160   1.425 -0.2277  0.1252 -0.0231
70419W        W13332  30.230  12.602   9.176 -0.1512 -0.3730 -0.0054
70420W        W13333  17.169   5.482  28.791 -0.2648  0.1987  0.1237
70421W        W13334  17.748   8.298  19.166 -0.5602 -0.2490  0.0635
70422W        W13335  14.348  18.975  23.692 -0.1838  0.3653  0.2028
70423W        W13336  21.789   6.945  23.239 -0.0225  0.0176  0.0755
70424W        W13337  13.095  13.188  29.646  0.1607  0.0351  0.1079
70425W        W13338  11.368  12.356   3.581  0.3931  0.0094 -0.3661
70426W        W13339  17.680  11.591  27.345  0.1462 -0.1636  0.1584
70427W        W13340  21.118   0.523  22.692  0.5162 -0.1394 -0.2960
70428W        W13341  13.015   2.332  24.305 -0.2001  0.0979  0.2096
70429W        W13342   8.162   5.724  27.044 -0.2020 -0.0524 -0.0134
70430W        W13343  16.659   4.626  27.627  0.3430  0.1851 -0.2225
70431W        W13344   2.446  30.422  24.436  0.3468 -0.1968 -0.0414
70432W        W13345  25.716  10.065   8.919  0.0031 -0.1245  0.2179
70433W        W13346  21.181   5.195   3.743 -0.0183 -0.1662  0.0559
70434W        W13347  15.922  32.133   1.749 -0.2540  0.8174  0.0434
70435W        W13348  17.068  11.068  14.966  0.2242 -0.2375  0.3563
70436W        W13349  27.007  30.883  22.156  0.2516  0.0928 -0.0664
70437W        W13350  21.386   5.263  23.207  0.0115  0.5158 -0.0832
70438W        W13351   9.885   4.192  27.523  0.2991  0.2216 -0.1573
70439W        W13352   7.376  16.412   9.464  0.0662 -0.2996 -0.2652
70440W        W13353   9.999  17.274  20.116 -0.1709 -0.2193 -0.5045
70441W        W13354  16.249  27.493   1.479 -0.2875  0.0714 -0.0744
70442W        W13355  13.625  31.830  23.562 -0.1598  0.1156 -0.4568
70443W        W13356   4.074   8.864  27.441 -0.3083 -0.2075 -0.0732
70444W        W13357  12.062   2.644  29.492 -0.0042 -0.1978 -0.0741
70445W        W13358  17.955  13.660  22.244 -0.1557  0.0202 -0.0890
70446W        W13359  19.796   7.225  26.419 -0.1104  0.3274  0.2716
70447W        W13360   5.174   0.877  10.664  0.1055 -0.0722 -0.3638
70448W        W13361  15.507  32.438  22.021  0.1807 -0.0159 -0.1170
70449W        W13362  11.860   7.789  21.063 -0.1416  0.4401 -0.2864
70450W        W13363  10.234  31.336  16.617  0.1206  0.5491  0.1738
70451W        W13364  17.979   9.893  19.074 -0.1047 -0.0888 -0.0701
70452W        W13365  22.108  13.800  27.032  0.0820  0.1139  0.4139
70453W        W13366  15.482   4.581  20.247 -0.3158 -0.0169 -0.2419
70454W        W13367  12.007   3.295  21.359  0.0431  0.1234  0.0471
70455W        W13368  23.050  29.362  15.709 -0.2393  0.1860 -0.1319
70456W        W13369  12.719  32.566   5.136 -0.2344 -0.1110 -0.1382
70457W        W13370  19.494   2.845   0.763 -0.1389 -0.0337 -0.1279
70458W        W13371  17.112   9.485  24.617  0.2419  0.2308  0.0810
70459W        W13372  15.047  31.662   3.934  0.0200  0.0519 -0.6013
70460W        W13373  15.310  13.409  16.645  0.1639  0.0668  0.0524
70461W        W13374  18.939   4.625  13.687 -0.0130  0.1707  0.2577
70462W        W13375  19.010  16.430  24.420  0.2971  0.1650 -0.4088
70463W        W13376  15.362  13.400   1.357  0.2341 -0.0360 -0.0530
70464W        W13377   5.411  33.247  28.411 -0.1386 -0.2845  0.2511
70465W        W13378  11.794   3.360  29.591  0.0200  0.1763  0.1883
70466W        W13379  24.246   7.109  19.785  0.0703 -0.3932  0.1513
70467W        W13380  15.910   8.120   2.861  0.2515  0.2823  0.3800
70468W        W13381  18.370  16.052   1.304 -0.1464 -0.0372  0.0982
70469W        W13382   8.198  28.121  28.772 -0.0073 -0.0546  0.0125
70470W        W13383  22.449   4.390  26.535 -0.0732 -0.0649  0.0093
70471W        W13384  12.640   1.906  23.907  0.0561  0.3286 -0.0302
70472W        W13385  19.328  27.447   9.223  0.1374  0.1047 -0.0260
70473W        W13386   6.559   9.578  27.157  0.0321  0.1461 -0.0125
70474W        W13387  12.468   8.298  24.928  0.0187  0.0731 -0.4316
70475W        W13388  18.090   2.499  19.174 -0.3345  0.2831  0.0933
70476W        W13389   3.787   5.811  23.432  0.2598 -0.3003  0.2180
70477W        W13390  20.747  20.675  24.517 -0.1499 -0.0812 -0.1699
70478W        W13391  18.744  11.930   5.681  0.5427 -0.2488  0.0060
70479W        W13392  24.502  32.082  15.489 -0.0146 -0.2707  0.0042
70480W        W13393  18.354   4.374   3.937 -0.0936 -0.0486 -0.2218
70481W        W13394  15.680   8.874  25.910  0.2599  0.0024 -0.2877
70482W        W13395   8.937   4.160   2.564  0.1620 -0.1346  0.2628
70483W        W13396  17.398  10.247  26.188 -0.2497 -0.2096 -0.0177
70484W        W13397  20.611   3.926   7.376 -0.0817 -0.0254 -0.0559
70485W        W13398  15.709   2.577  20.758  0.3676  0.1187 -0.0081
70486W        W13399  13.797  30.892   2.286  0.1845 -0.1725 -0.0218
70487W        W13400  20.654   2.894   2.139  0.0258 -0.0003 -0.0462
70488W        W13401  18.933   3.410  24.171 -0.1258 -0.2549  0.1543
70489W        W13402   7.971   5.736  23.646 -0.2001  0.0466 -0.1456
70490W        W13403  34.262   7.919   4.067  0.0884 -0.3351  0.0687
70491W        W13404  32.536  14.870  19.114  0.1030  0.0559  0.0865
70492W        W13405  23.206  10.957   6.920 -0.1995  0.0983 -0.5386
70493W        W13406  17.781  13.887  16.804 -0.0813  0.0953  0.1008
70494W        W13407  13.271  10.099   0.592  0.1113  0.0644  0.4326
70495W        W13408   2.812  28.583   0.161 -0.0515  0.0274 -0.0171
70496W        W13409  11.124  30.632  19.458 -0.2296 -0.1780 -0.0367
70497W        W13410  25.465   9.306  26.903 -0.1710 -0.1229 -0.3701
70498W        W13411  22.335   8.230  18.106  0.3874  0.0945  0.1992
70499W        W13412  15.195   5.975  25.091 -0.3514 -0.1569 -0.1794
70500W        W13413  18.656  32.106   4.671 -0.3909 -0.1855  0.1081
70501W        W13414  19.152   4.896  26.137 -0.0312  0.0691 -0.0131
70502W        W13415  26.548  32.991   1.852  0.0016 -0.3002  0.0323
70503W        W13416  10.895  23.255   4.028  0.0812 -0.0843  0.0308
70504W        W13417  21.155   4.251   1.831  0.1146 -0.0182 -0.4910
70505W        W13418  10.779   5.761  18.931  0.0332 -0.1355 -0.0521
70506W        W13419  19.264   4.208  22.240  0.0905  0.1720  0.3046
70507W        W13420   9.864  28.758   0.570  0.5867 -0.1635 -0.0586
70508W        W13421   9.042   9.149  22.679  0.2288  0.3232 -0.1072
70509W        W13422  20.506  13.308  26.931  0.3402  0.2433 -0.0105
70510W        W13423  13.598   2.907  29.630 -0.3327  0.2105  0.0597
70511W        W13424  12.061   5.314  27.300  0.0368  0.0083  0.0311
70512W        W13425  14.263  25.409   1.405  0.0273  0.3393  0.2579
70513W        W13426  10.978   7.123  22.414  0.2647  0.0364 -0.0063
70514W        W13427  26.066  13.145   8.244 -0.2963  0.1602 -0.0590
70515W        W13428  14.515  16.644   3.035  0.1335 -0.0742 -0.1189
70516W        W13429  10.230  11.280  21.191  0.0361  0.0895  0.1205
70517W        W13430  16.298   4.981  26.569 -0.0494 -0.2928 -0.2578
70518W        W13431  14.225  33.820   2.196 -0.3345 -0.0214  0.0043
70519W        W13432  18.176   4.806  28.673  0.1590  0.0801  0.1382
70520W        W13433   9.997   3.791   9.839 -0.1631  0.3345  0.0945
70521W        W13434   9.174  29.731  29.081  0.0709 -0.4915 -0.0488
70522W        W13435  13.598   3.466  27.975  0.1441 -0.1146 -0.2137
70523W        W13436  23.874  30.883  24.827  0.0547  0.0872  0.0636
70524W        W13437   2.558   3.926  28.625  0.2136 -0.0722  0.0047
70525W        W13438  12.295   6.389   0.246  0.0418 -0.1852  0.0919
70526W        W13439  18.570  18.576  22.895  0.1585  0.3070  0.1169
70527W        W13440  14.103   2.477  21.791  0.0128 -0.1266 -0.0996
70528W        W13441  22.988  15.861  22.253  0.0472 -0.1619  0.1227
70529W        W13442  20.251  10.422   3.929 -0.4015  0.2420  0.2127
70530W        W13443  21.606  32.217  28.278  0.1010 -0.3001 -0.3318
70531W        W13444  21.923   8.430  22.521 -0.2551 -0.1479 -0.1598
70532W        W13445   8.444  32.161   0.262 -0.1324  0.0997 -0.0863
70533W        W13446  16.837  32.694   2.253  0.0510  0.4661 -0.0062
70534W        W13447  16.825  10.012   5.574 -0.1047 -0.0138 -0.3997
70535W        W13448  11.577  18.898   2.921 -0.1133 -0.1471 -0.0482
70536W        W13449  20.219   3.801   1.863  0.2623  0.1634 -0.2914
70537W        W13450  20.169   2.131   1.682  0.0094 -0.2567 -0.1170
70538W        W13451  27.861  18.429  15.702  0.0358 -0.0897  0.0601
70539W        W13452  21.731   4.364  15.055  0.2151  0.1790 -0.3659
70540W        W13453   6.919   8.304   0.408  0.0689 -0.2152  0.0471
70541W        W13454  20.038  16.784  29.187 -0.2947 -0.0035 -0.0878
70542W        W13455   5.009   4.863  21.528  0.0787 -0.3071 -0.1748
70543W        W13456   9.638   0.699  22.397  0.2967  0.1656  0.2365
70544W        W13457  21.856  15.732  13.619  0.2406  0.1240 -0.1025
70545W        W13458  15.300   5.850  29.171  0.1592  0.1242  0.1073
70546W        W13459  13.124  27.721   4.074 -0.1643 -0.0455 -0.2535
70547W        W13460  19.133   2.205   1.387  0.0194 -0.0394 -0.3239
70548W        W13461  15.785   3.051  19.356  0.1031 -0.3767 -0.2971
70549W        W13462  16.024  29.909  28.483 -0.2780  0.0809  0.1030
70550W        W13463  16.534   8.976   0.045 -0.0606  0.1255  0.0706
70551W        W13464  25.869  34.116   1.446  0.1596 -0.0820 -0.0211
70552W        W13465  19.033  12.127   3.157 -0.3956 -0.0731 -0.1915
70553W        W13466  10.356  34.378  23.666 -0.0865  0.3128  0.1415
70554W        W13467  18.545   5.730  17.543 -0.0992  0.2542 -0.2160
70555W        W13468  14.916   9.334   7.580 -0.1876 -0.0632 -0.2377
70556W        W13469  18.650   2.972  23.965  0.2353  0.1708 -0.1063
70557W        W13470   9.840   2.081  29.753  0.0767  0.0517 -0.1048
70558W        W13471  28.530   6.362   3.503  0.1465  0.1337 -0.1076
70559W        W13472   4.509  31.914  22.907 -0.0959 -0.2285 -0.1461
70560W        W13473  14.548   9.936  16.970  0.0912  0.0108  0.2660
70561W        W13474  15.501  13.825   0.849  0.3959 -0.2259  0.3286
70562W        W13475   8.365  33.570  24.249  0.0753 -0.2032 -0.0743
70563W        W13476  18.990   6.348  24.788  0.3855 -0.0035 -0.0272
70564W        W13477  20.915  14.669  17.004  0.1280 -0.0600  0.1730
70565W        W13478   9.369  10.607   2.833  0.1148 -0.1402  0.2034
70566W        W13479   4.813  12.205   3.016 -0.3126  0.1779  0.2935
70567W        W13480  10.811   2.592  27.708  0.2129 -0.0222 -0.0146
70568W        W13481  11.462  32.330  29.348 -0.0876 -0.0405 -0.2768
70569W        W13482  11.864   5.886  20.622 -0.3962  0.0123 -0.0837
70570W        W13483  27.213   8.807  17.900  0.0643 -0.2706  0.0433
70571W        W13484   6.485  29.990   5.958 -0.0755  0.2269 -0.1610
70572W        W13485  14.820  30.031  23.899 -0.1559  0.1386 -0.0451
70573W        W13486   4.189   7.270   3.585 -0.1102  0.1823 -0.2058
70574W        W13487  22.046   0.262  24.358 -0.1867  0.5133 -0.0435
70575W        W13488  24.271   2.996  18.606  0.0501 -0.0467 -0.0229
70576W        W13489  29.749  30.337  27.913 -0.0831  0.0078 -0.1189
70577W        W13490  24.675  13.445  22.400  0.1922 -0.2544 -0.2257
70578W        W13491  22.735   4.684   5.330 -0.0916 -0.3818  0.0476
70579W        W13492  12.037   5.104  19.977  0.1690  0.1048 -0.0259
70580W        W13493  21.416  32.635   6.116  0.5284 -0.0954  0.0163
70581W        W13494  14.234  31.944   0.443  0.4084 -0.0089  0.3691
70582W        W13495  13.365  10.903  28.068 -0.1964 -0.1005 -0.0121
70583W        W13496   2.224   3.941   5.637  0.1599 -0.0619  0.3932
70584W        W13497  13.051  29.361  22.792  0.0159  0.0089 -0.3632
70585W        W13498   9.575   1.426  21.153  0.2346  0.0372 -0.0670
70586W        W13499  19.500  30.512   3.526  0.1016 -0.1724 -0.0771
70587W        W13500  13.127   8.728  26.756 -0.1316  0.0080 -0.1442
70588W        W13501  29.595  16.473  28.081 -0.4122 -0.1557  0.0730
70589W        W13502  12.013  24.276   2.469 -0.1599  0.2198 -0.2298
70590W        W13503  10.553   0.240  24.583  0.0266 -0.0157 -0.0416
70591W        W13504  24.691  15.625  20.360  0.0483 -0.0748  0.1918
70592W        W13505  13.413   3.305  25.833 -0.1932 -0.0871  0.1002
70593W        W13506  13.164   0.838   9.589 -0.0046  0.1963 -0.0061
70594W        W13507  18.684   9.979  21.179  0.4329  0.0363  0.0934
70595W        W13508  16.713  28.756  25.135 -0.2461 -0.0168 -0.1827
70596W        W13509  10.030   1.891   1.376 -0.1194 -0.0766  0.1153
70597W        W13510   9.948   7.768  24.119 -0.1470  0.0050 -0.1647
70598W        W13511  15.915   2.909  27.426 -0.3516 -0.0413  0.1849
70599W        W13512  12.813   5.015  17.162  0.1846 -0.2331  0.4554
70600W        W13513  14.171   3.985  18.193  0.2157  0.3074  0.0029
70601W        W13514  10.436   1.113   0.236  0.1545 -0.0208  0.1440
70602W        W13515  17.045  33.100  29.556  0.1155  0.0593 -0.2547
70603W        W13516  29.588   9.034  21.136  0.1741 -0.0016  0.0782
70604W        W13517  28.307   6.827  15.140 -0.0937 -0.1776 -0.1902
70605W        W13518  15.275  28.847  17.910 -0.1880  0.3567  0.4835
70606W        W13519  17.241  25.158  29.569 -0.0919 -0.0829 -0.2633
70607W        W13520  17.795  12.578  24.169  0.0879 -0.0280  0.3127
70608W        W13521  25.860  10.597   0.604 -0.3319  0.2255 -0.1639
70609W        W13522   7.141   7.250  17.173 -0.3614 -0.1972  0.1823
70610W        W13523  11.537   7.612  29.303  0.0160  0.0611 -0.2573
70611W        W13524  14.992   3.487   0.049  0.2527  0.1564 -0.1367
70612W        W13525  20.874   5.699  23.878  0.3102  0.0602 -0.0422
70613W        W13526  12.315   3.117  17.402 -0.3535 -0.0405  0.0231
70614W        W13527  21.415   1.162   4.548 -0.0500 -0.1861 -0.2181
70615W        W13528  26.258  33.563  22.417 -0.2070  0.4200 -0.0509
70616W        W13529  14.307  10.628   7.503  0.0623  0.0841  0.0977
70617W        W13530  16.672   3.767   9.271 -0.1065 -0.1410  0.2963
70618W        W13531  23.080  33.693  26.497  0.1500 -0.0949 -0.1393
70619W        W13532  17.727   6.312  17.595 -0.1915  0.2852 -0.0290
70620W        W13533  15.400   5.701  18.291  0.0115 -0.1678 -0.3206
70621W        W13534  13.493   6.217  19.779  0.3208 -0.2019  0.1823
70622W        W13535  12.107  13.876  24.586  0.3519 -0.2569  0.1311
70623W        W13536  17.592   1.503  24.901  0.3426 -0.1446  0.0103
70624W        W13537   9.695  10.864   4.124 -0.0322 -0.1420 -0.2075
70625W        W13538  24.309   2.482  20.732  0.1447  0.0576  0.0913
70626W        W13539  20.863   0.640  19.199 -0.0698  0.3794  0.0964
70627W        W13540  13.861  34.426   3.345 -0.1061 -0.3087 -0.1804
70628W        W13541  17.117   6.038  26.243  0.0344 -0.2818  0.0638
70629W        W13542  17.428   5.315  16.821  0.3197 -0.0978  0.0971
70630W        W13543  24.936  29.696   1.648 -0.1527  0.0926 -0.0442
70631W        W13544  20.684  16.279  12.885  0.0516  0.3213 -0.0315
70632W        W13545   7.643  34.121   6.545  0.0344 -0.1696  0.0613
70633W        W13546  10.755   1.306  27.779  0.0446  0.1057 -0.2014
70634W        W13547  22.797   0.335  15.633  0.3965 -0.1176 -0.2432
70635W        W13548  19.384   2.339  23.433  0.0157 -0.0373 -0.1368
70636W        W13549  13.999  14.300  24.015 -0.3491 -0.2091  0.1204
70637W        W13550  13.544   2.691  28.516  0.1224  0.2607  0.2169
70638W        W13551   9.598  33.864  11.362 -0.3219 -0.1153  0.0582
70639W        W13552   9.528   7.707  23.880  0.0423 -0.0750  0.0696
70640W        W13553  18.868   7.885  20.108  0.0821  0.0789 -0.1102
70641W        W13554   5.569   3.990  27.594  0.2375 -0.4384 -0.2172
70642W        W13555  18.324  11.080  20.440  0.1072  0.0366 -0.3035
70643W        W13556  22.200   4.058   3.278  0.2707 -0.1353  0.2084
70644W        W13557   7.809  17.763  21.876  0.1212  0.1943 -0.1799
70645W        W13558  20.589   8.335  27.792 -0.3665 -0.2034 -0.0661
70646W        W13559  17.954   7.852  21.241  0.1493  0.1615 -0.3445
70647W        W13560  17.486  15.152  13.665  0.1272  0.4510  0.0007
70648W        W13561  29.698  28.393  22.692  0.2356 -0.3564  0.2305
70649W        W13562  14.457   6.970   6.660 -0.2557 -0.1663  0.2151
70650W        W13563  15.580   1.782  18.278 -0.1262 -0.0227 -0.1777
70651W        W13564  23.565   5.162   1.156 -0.0945 -0.0287 -0.1197
70652W        W13565  23.085  27.519  29.040  0.2457  0.1650 -0.1864
70653W        W13566  15.037  13.132  19.112 -0.1136  0.2145  0.2613
70654W        W13567  17.169   9.278  15.776 -0.0453 -0.0130 -0.2004
70655W        W13568  11.759  11.048   7.629  0.2615  0.2055  0.0248
70656W        W13569  22.074   9.983   2.446  0.0592  0.1147  0.3164
70657W        W13570   1.631  15.320   0.986  0.2993  0.1190 -0.2216
70658W        W13571  18.935   8.334  29.260 -0.2648  0.0489  0.0210
70659W        W13572   2.621  10.886   2.154 -0.1482 -0.1461 -0.0120
70660W        W13573   6.974  17.866   2.348  0.0767  0.0302 -0.1207
70661W        W13574  15.461   0.635  26.260  0.2054 -0.0531  0.1800
70662W        W13575  13.585   4.689   9.443 -0.0659  0.2000 -0.1678
70663W        W13576  14.724  30.294  22.944  0.4373 -0.1205 -0.0173
70664W        W13577  28.637  11.673  13.689 -0.3450 -0.0622  0.0385
70665W        W13578  11.415   8.851  23.314  0.1675 -0.0663 -0.1415
70666W        W13579   2.756  32.581   6.171 -0.1992 -0.3426 -0.1011
70667W        W13580  14.738  27.216   7.928  0.3506  0.2266 -0.1527
70668W        W13581  24.133   6.387  17.904 -0.0675 -0.0994  0.0135
70669W        W13582  18.245  20.881   2.959 -0.2388 -0.1013 -0.2134
70670W        W13583  13.695   4.937   0.124  0.1703  0.0278  0.0296
70671W        W13584  15.022   2.175  19.528  0.0910 -0.1101 -0.2051
70672W        W13585  14.141   3.021   4.110 -0.1117 -0.1418 -0.0268
70673W        W13586  19.870   0.343  19.914  0.0701  0.1739  0.0990
70674W        W13587  17.048  14.232  26.788 -0.0258  0.2782 -0.1112
70675W        W13588  15.200  32.866  23.948 -0.1887 -0.1371  0.1520
70676W        W13589  21.494  10.007   1.787  0.1458  0.0684 -0.1415
70677W        W13590   8.597  32.290   1.324 -0.0366 -0.2797 -0.0294
70678W        W13591  24.217  14.859   4.962 -0.4525  0.0508  0.1444
70679W        W13592   5.535  10.533  21.168 -0.0568  0.0052  0.0391
70680W        W13593  21.635  11.981  22.803 -0.1234  0.0751  0.0152
70681W        W13594   8.332  31.951  24.628  0.1259  0.0099  0.0382
70682W        W13595  21.053   6.720  25.300  0.2062 -0.3179  0.0531
70683W        W13596  19.837   4.767  27.864 -0.1626  0.1614 -0.2408
70684W        W13597  14.560   7.406  24.650 -0.1954  0.1363 -0.1755
70685W        W13598  10.121  30.439  25.693  0.2519  0.3842  0.0176
70686W        W13599  17.040   0.875  27.987 -0.0914  0.0116  0.1500
70687W        W13600  12.662   1.398   5.881  0.0776  0.0951  0.0547
70688W        W13601  19.671   0.882   2.634 -0.0431  0.0157  0.1485
70689W        W13602  20.665   8.492   0.430  0.0491 -0.3609 -0.0566
70690W        W13603  12.467  30.549   5.792  0.0415  0.0502 -0.3836
70691W        W13604  13.950  30.250  25.558  0.1679  0.2746  0.1188
70692W        W13605  14.208   9.306  20.941 -0.1419  0.0545  0.2040
70693W        W13606  15.651   2.336   0.885  0.2189 -0.3374  0.1079
70694W        W13607  14.971   6.751  21.455  0.0642  0.2644 -0.3166
70695W        W13608  12.910  33.915  21.920 -0.1633  0.0971  0.0544
70696W        W13609   8.193  34.429  20.692 -0.1227 -0.0069 -0.3459
70697W        W13610  16.014   9.370  23.865  0.0502  0.0607 -0.1777
70698W        W13611  22.215   5.923  26.457 -0.1508 -0.0583  0.1277
70699W        W13612  17.158   4.058  29.741 -0.1378 -0.2333  0.0422
70700W        W13613  26.727   4.361   5.490  0.1982 -0.2216  0.1605
70701W        W13614  27.585   3.008  14.542  0.1181 -0.2073 -0.0121
70702W        W13615  22.439   6.885  14.351 -0.0951  0.1286  0.0664
70703W        W13616  21.758   9.222   5.057  0.0644  0.0080 -0.1673
70704W        W13617  14.141   1.999  27.271  0.1911  0.1607  0.2508
70705W        W13618  21.580   0.396  25.548  0.0134  0.0275  0.3029
70706W        W13619  10.573   4.229  17.097  0.0691 -0.0426  0.0570
70707W        W13620  19.739   3.968  28.023  0.2153  0.2031  0.0094
70708W        W13621  19.423   2.487  22.782 -0.2481  0.1699  0.0294
70709W        W13622  15.426   2.642  18.648 -0.5600 -0.1203 -0.3323
70710W        W13623  14.475   9.662  23.882  0.2447  0.3360  0.2692
70711W        W13624  16.987  34.051   4.163 -0.1738  0.5084 -0.1436
70712W        W13625  13.758  33.800   1.907 -0.3885 -0.0860  0.1488
70713W        W13626  18.031   9.215  21.664  0.1098 -0.3671  0.4080
70714W        W13627  16.509   8.328  27.379 -0.0854  0.1005 -0.2811
70715W        W13628  21.402   2.919   2.419 -0.0927  0.0558  0.0569
70716W        W13629  22.826  11.615  24.095  0.2379 -0.1727  0.1504
70717W        W13630   4.139  11.824   7.126 -0.1831 -0.0804 -0.0354
70718W        W13631  14.675   3.562  24.188 -0.0326 -0.3483 -0.1566
70719W        W13632  16.058   9.306  25.781  0.2008  0.2173  0.2237
70720W        W13633  11.392   4.877  21.043  0.1833 -0.3446  0.2391
70721W        W13634  12.073   2.426  29.076 -0.0006  0.4230 -0.4453
70722W        W13635  19.028  15.705  24.942  0.0462 -0.1549 -0.1012
70723W        W13636  22.472   6.509  19.464 -0.1665 -0.1197  0.1565
70724W        W13637  15.028  11.201  29.758 -0.0183 -0.1567 -0.1216
70725W        W13638   7.331  33.620  25.323  0.2901  0.2030 -0.1333
70726W        W13639  12.552   2.907  24.216  0.1432  0.0603  0.1276
70727W        W13640  22.980  33.587  29.370  0.1958 -0.1499  0.0075
70728W        W13641  15.072   2.707  27.426  0.0889 -0.0158 -0.0291
70729W        W13642  32.207   8.351  28.846  0.2970  0.2039 -0.1926
70730W        W13643  11.774  31.890   4.544  0.1218  0.0364  0.0608
70731W        W13644   5.000  29.282  28.064  0.1123  0.0648 -0.0212
70732W        W13645   6.581  10.257  28.438  0.1803  0.1269 -0.1145
70733W        W13646  20.974  33.292   0.503  0.0445  0.3004 -0.1960
70734W        W13647  18.655   2.381  24.737 -0.0467  0.0266 -0.1269
70735W        W13648  28.163   1.416   3.391 -0.1395  0.0227  0.1038
70736W        W13649  13.077   3.008  29.612  0.2784  0.1286 -0.6550
70737W        W13650  21.843   2.656  26.967  0.1899  0.2264  0.1050
70738W        W13651  20.328  29.389  17.522  0.0767 -0.0090  0.2835
70739W        W13652  21.808   0.536   0.420 -0.0501 -0.0585 -0.2184
70740W        W13653  11.036  11.486   0.433 -0.0228  0.0443  0.1143
70741W        W13654  15.230   5.177   2.770 -0.2600 -0.0410  0.0462
70742W        W13655  15.926   5.454  22.610 -0.1398 -0.0547  0.1034
70743W        W13656  15.223  32.075  23.503  0.0973 -0.1136 -0.1649
70744W        W13657  17.850  26.233  16.426  0.0379 -0.2954  0.1579
70745W        W13658  15.303   1.973  24.865  0.0489 -0.0355  0.1940
70746W        W13659  17.703  15.018  26.992  0.1313  0.1481  0.2047
70747W        W13660  23.162  15.907  24.130 -0.0991  0.2262 -0.0645
70748W        W13661  30.423   7.615  19.587  0.0522 -0.1362 -0.0354
70749W        W13662  15.100   3.946   7.770 -0.2204  0.1263 -0.3271
70750W        W13663  20.289   0.737  22.931 -0.3313  0.0614 -0.1776
70751W        W13664  17.493   6.671  28.565 -0.0269 -0.1732  0.0773
70752W        W13665   7.965  14.730  26.299 -0.2357 -0.1468  0.2114
70753W        W13666  10.542   9.008  20.124 -0.0896  0.0080 -0.3435
70754W        W13667  14.559   1.110   2.032  0.0185  0.0626  0.1529
70755W        W13668  16.999   1.034  25.446  0.1852  0.2536 -0.0841
70756W        W13669   5.863  11.490   2.955 -0.1738  0.3225 -0.0621
70757W        W13670  15.813  21.312  23.889 -0.1097 -0.0772  0.0755
70758W        W13671  16.780  13.135   8.178  0.0891  0.0340  0.1699
70759W        W13672  17.005   2.377   2.650 -0.0120 -0.1468  0.2944
70760W        W13673  13.362   1.739  21.643 -0.2573 -0.2495  0.0386
70761W        W13674   5.915   3.810   6.302  0.0735  0.0453 -0.0613
70762W        W13675  18.349   4.091   2.079 -0.1526 -0.0558  0.1564
70763W        W13676  17.898   4.462  20.399  0.1639 -0.0141 -0.0346
70764W        W13677  16.574   1.418   0.952  0.1633  0.0075 -0.0974
70765W        W13678  17.577   7.164   3.746  0.1455  0.1816  0.2043
70766W        W13679  30.849   7.538  10.338  0.1072 -0.2762  0.2591
70767W        W13680  26.617  28.402  17.002  0.1499 -0.0405 -0.2055
70768W        W13681  23.600   4.004  23.048 -0.1927 -0.2493  0.1006
70769W        W13682   8.969   5.747   3.861 -0.4576  0.2205 -0.0956
70770W        W13683  19.899  33.345  22.258  0.1742  0.0059  0.0406
70771W        W13684  20.687  16.201  26.803  0.0403 -0.2865 -0.4214
70772W        W13685  13.385   6.272  28.416 -0.3027 -0.1363  0.1821
70773W        W13686  31.956   4.046  23.151 -0.2128 -0.3092  0.0296
70774W        W13687  25.280  15.840   7.299  0.4585  0.1073 -0.0928
70775W        W13688  17.278  29.420  10.230  0.1433  0.1312  0.1812
70776W        W13689  18.209  16.187  26.503 -0.4451  0.0485 -0.0760
70777W        W13690  15.536  11.003  20.558 -0.2693  0.1101 -0.1035
70778W        W13691  15.839  28.485  27.471  0.3590 -0.1734  0.4177
70779W        W13692   5.936  32.875  20.487 -0.1698  0.1211  0.0124
70780W        W13693   7.944  29.317  18.290 -0.0489  0.1902 -0.0558
70781W        W13694  20.023   6.708   3.338  0.0911 -0.1805  0.0198
70782W        W13695  23.187  31.566   5.499 -0.2119  0.0684 -0.0704
70783W        W13696  32.564   3.476  24.643 -0.2740 -0.0333  0.1206
70784W        W13697   2.247  20.011  26.169  0.1674  0.1565 -0.0267
70785W        W13698  13.113   9.699   5.023  0.3175 -0.3800 -0.2242
70786W        W13699  10.974   8.259   0.506 -0.2827 -0.1530 -0.0158
70787W        W13700  13.702   6.521   1.898  0.0779 -0.0202  0.0715
70788W        W13701  15.350   5.843  19.976 -0.0752 -0.1163 -0.2975
70789W        W13702  11.911  15.153  25.200  0.2698  0.2081  0.0959
70790W        W13703  18.862   8.725  25.867  0.1296 -0.0171 -0.2299
70791W        W13704  13.407  29.840  29.343  0.2898  0.0836  0.1261
70792W        W13705  19.926   4.702  26.279 -0.0551  0.2107 -0.1175
70793W        W13706  27.644  10.755   3.138  0.0731 -0.2525  0.1440
70794W        W13707  23.183   6.581  23.023 -0.0709  0.3766  0.0439
70795W        W13708  23.454   1.404   3.509  0.2840  0.1005  0.1444
70796W        W13709  19.580  12.700  22.838 -0.0564  0.0207  0.0238
70797W        W13710  14.672  22.234  28.216  0.1513  0.4326  0.0728
70798W        W13711   6.208  13.249   3.679  0.1391  0.1459 -0.0145
70799W        W13712  12.467   8.035   6.009 -0.0564  0.2354  0.1315
70800W        W13713  12.627   1.639   4.412 -0.2073 -0.0030 -0.0460
70801W        W13714  12.436  30.813   9.158  0.0791  0.4949  0.0448
70802W        W13715  17.631  33.887  28.560 -0.1469  0.0670  0.0418
70803W        W13716   2.079   1.353   4.215 -0.2958  0.2049  0.1995
70804W        W13717  14.659  17.128   2.233  0.0284 -0.0691  0.3026
70805W        W13718  28.974   9.884  23.730 -0.0486  0.1455 -0.3003
70806W        W13719  19.744  12.212   0.657  0.1516 -0.1154 -0.1195
70807W        W13720   7.232  34.275   8.957 -0.1952  0.0068 -0.2042
70808W        W13721  13.623  33.307   1.744 -0.1650  0.0132  0.1148
70809W        W13722   8.253  28.617  28.980  0.0520 -0.1411  0.4809
70810W        W13723  22.712   8.541  18.686  0.0384 -0.0056  0.1640
70811W        W13724  14.424  13.965  24.728  0.2054 -0.0282 -0.3866
70812W        W13725  25.785   2.554   1.981 -0.3216  0.2948 -0.1663
70813W        W13726  20.234  33.076  25.357  0.0098 -0.0135  0.5066
70814W        W13727  14.174  33.689   9.041 -0.1963 -0.2469 -0.0807
70815W        W13728  20.550   7.361   4.824  0.0215 -0.3481  0.1156
70816W        W13729  14.936   4.267   0.619  0.0827 -0.2820 -0.0499
70817W        W13730  19.788   2.992  20.668 -0.1399  0.2371  0.1900
70818W        W13731  24.402   5.535  26.810  0.0067  0.1208 -0.2439
70819W        W13732  16.495   7.472  24.201 -0.1104  0.0157  0.2357
70820W        W13733   5.985  13.717  18.698  0.0592  0.0490 -0.1502
70821W        W13734  14.066   8.810  28.075 -0.0768  0.0167 -0.1369
70822W        W13735  20.758   6.477   4.988 -0.0104  0.0894  0.0374
70823W        W13736   7.924   1.900  13.200  0.3447 -0.1023 -0.0209
70824W        W13737  10.635  14.519  25.244  0.0127 -0.1638 -0.2557
70825W        W13738  25.522   0.029  24.178 -0.0390 -0.2280 -0.0656
70826W        W13739   7.332  21.277   4.094  0.1362  0.1276  0.0211
70827W        W13740  11.088   4.698  22.411 -0.2257  0.0093  0.2426
70828W        W13741  10.981  20.243  22.886  0.0707 -0.3081  0.2622
70829W        W13742  26.188   7.354  16.933  0.3300 -0.2358  0.3419
70830W        W13743   8.806  15.860   5.109  0.1129  0.0050  0.1551
70831W        W13744  12.691  12.380   1.709  0.2712 -0.0040 -0.0013
70832W        W13745   5.437   2.044  17.891  0.0753 -0.1974  0.4136
70833W        W13746  12.723  32.627  28.059  0.1914 -0.0781 -0.2363
70834W        W13747  26.460  10.314  25.090  0.2028  0.0882  0.1730
70835W        W13748  10.169  34.389   6.527 -0.0591  0.4811 -0.0572
70836W        W13749  12.707   4.508  29.392 -0.1077 -0.2914  0.3505
70837W        W13750   6.489  11.496  19.027 -0.1763 -0.1155 -0.2577
70838W        W13751  10.742  30.008   7.142 -0.5854 -0.2371  0.0080
70839W        W13752  25.727  14.890  21.183  0.3087  0.1398 -0.0287
70840W        W13753  15.793   8.761  23.333 -0.1878  0.0157 -0.2109
70841W        W13754   6.828  11.725  21.443  0.2835 -0.1567  0.0838
70842W        W13755   6.100   7.416  10.064  0.3690 -0.0642  0.0975
70843W        W13756  16.545   1.465   8.079 -0.0599 -0.2110 -0.0565
70844W        W13757   9.184   4.701  28.194 -0.0343 -0.2051  0.5446
70845W        W13758  27.659   7.366  27.563  0.2313 -0.1636  0.0705
70846W        W13759  12.765   6.807  18.766 -0.0538  0.1776 -0.2040
70847W        W13760  26.435  15.729   5.243  0.0111  0.1913  0.2398
70848W        W13761  16.861  10.976  13.787 -0.1434  0.1256  0.0744
70849W        W13762  15.786   7.281  16.399 -0.0511  0.1134  0.1179
70850W        W13763  20.895  34.091  14.633  0.2066 -0.1478  0.1033
70851W        W13764  23.235  19.567  18.022 -0.1067 -0.1120 -0.3474
70852W        W13765  17.455  28.159  28.786 -0.1006  0.3858 -0.0077
70853W        W13766  13.627   7.760  16.384 -0.3621  0.0480  0.0135
70854W        W13767  21.225  15.437  15.013 -0.1395  0.2481  0.0080
70855W        W13768   8.778  33.668  16.558 -0.0226  0.2232 -0.1451
70856W        W13769  17.952  10.136  21.284 -0.2752  0.1346  0.2115
70857W        W13770  14.824  15.507  12.741 -0.3092 -0.1443 -0.1870
70858W        W13771  13.359   5.209  16.032 -0.4775 -0.1915 -0.0107
70859W        W13772  13.394  11.812  20.897  0.1380  0.0388  0.1685
70860W        W13773  20.885   9.882  27.582  0.0920  0.3696 -0.3920
70861W        W13774  21.773  13.049  16.947 -0.0851 -0.3896  0.1802
70862W        W13775  18.688  12.571  13.020 -0.0482 -0.2148  0.1892
70863W        W13776  15.022   0.809  23.384  0.2687 -0.0261  0.1586
70864W        W13777  10.801  10.734  17.690 -0.1704 -0.0007 -0.1047
70865W        W13778  19.876   2.107  19.094  0.1262  0.0132  0.2466
70866W        W13779  10.996  15.259  15.392 -0.2319 -0.2510 -0.0202
70867W        W13780  17.033   5.591  18.637  0.0310 -0.1597  0.1904
70868W        W13781  11.551  10.504  15.050 -0.0242  0.2103 -0.2574
70869W        W13782  12.310  17.289  16.001 -0.0167  0.5861 -0.0030
70870W        W13783  16.114   8.736  19.689 -0.1453 -0.1151  0.1588
70871W        W13784  10.086   5.279  29.255  0.3986 -0.1052  0.1381
70872W        W13785  17.126  11.034   4.658 -0.3207  0.1160  0.1890
70873W        W13786  19.693  11.855  13.766 -0.1166  0.0211 -0.1869
70874W        W13787  10.755   2.939  17.755  0.1118  0.0366 -0.1047
70875W        W13788  24.290   9.165  19.577 -0.1012 -0.1896 -0.1974
70876W        W13789  20.010   4.816  27.288 -0.3379 -0.1317 -0.0866
70877W        W13790  27.849   9.940  16.261 -0.3028 -0.0555  0.0715
70878W        W13791  11.742  16.066  14.382  0.2209  0.1813  0.3599
70879W        W13792  12.777  14.419  13.064 -0.1160 -0.0785 -0.0535
70880W        W13793  23.548  12.140  15.071  0.1564 -0.1457  0.5663
70881W        W13794  17.914   3.443  16.452  0.1882 -0.0297 -0.0088
70882W        W13795  20.172  10.502  14.525  0.1886  0.0015  0.3291
70883W        W13796  17.927  10.910  14.868 -0.1096  0.3312  0.1387
70884W        W13797  21.381   4.685  18.469 -0.0309 -0.1188  0.1351
70885W        W13798   9.352  34.127  20.081 -0.1527  0.0253 -0.2859
70886W        W13799  22.861  20.514  17.871 -0.0878 -0.0723  0.0573
70887W        W13800  11.505  11.971  14.314  0.2046 -0.0898  0.0533
70888W        W13801  21.856   3.155  20.385 -0.0192 -0.2977  0.1415
70889W        W13802  23.963   5.429  18.091  0.0074  0.0538 -0.0399
70890W        W13803  19.781   8.983  16.080 -0.2074 -0.0820  0.1060
70891W        W13804  17.599  16.115  14.560  0.2449  0.0143 -0.1131
70892W        W13805   4.728  30.366  19.360  0.2045 -0.2400  0.3358
70893W        W13806  18.353  10.855  23.772 -0.2746  0.1519 -0.2803
70894W        W13807  14.779  14.703  13.523  0.1578  0.1869  0.0002
70895W        W13808  23.250   6.556  23.859  0.1704 -0.0307  0.0504
70896W        W13809  11.901  10.814  16.812 -0.1120  0.1507  0.0682
70897W        W13810  22.744  13.012  16.319  0.0534  0.4168 -0.0772
70898W        W13811  12.451  11.456  18.692  0.1615  0.0486 -0.1286
70899W        W13812   8.344  12.371  15.062  0.4110  0.0137  0.3631
70900W        W13813  22.153  11.366  16.462 -0.1833  0.2317  0.0566
70901W        W13814  18.746   4.186  17.169  0.0115 -0.1291  0.1505
70902W        W13815  11.122   9.683  16.221 -0.0041  0.2446 -0.1922
70903W        W13816  17.499   1.705  24.075  0.1477  0.3706  0.2629
70904W        W13817  12.115  10.511  20.197 -0.1364  0.2961 -0.0960
70905W        W13818  16.424  13.483  14.375  0.3267 -0.0627  0.2640
70906W        W13819  21.170   5.964  16.695  0.2244 -0.0203 -0.1544
70907W        W13820  17.533   1.596  20.358  0.0597  0.0516 -0.1409
70908W        W13821  26.136   0.582  19.177  0.0327 -0.0057  0.0509
70909W        W13822  29.776  11.187  14.977  0.4449 -0.0296 -0.0545
70910W        W13823  18.953  10.382  24.090 -0.3819  0.0594  0.2548
70911W        W13824   7.204   4.152  24.635 -0.2112  0.0793 -0.0460
70912W        W13825  12.418   3.435  24.175  0.1683  0.1355  0.3997
70913W        W13826  18.221   6.283  14.390  0.0818 -0.1717  0.3418
70914W        W13827   4.015  24.771  15.110  0.2195 -0.2100  0.3130
70915W        W13828  29.963   2.734  15.594 -0.1479 -0.0324 -0.0379
70916W        W13829  20.724  19.355  11.962 -0.2913 -0.0529 -0.2195
70917W        W13830  24.293  12.193  18.318  0.1288 -0.2147  0.0474
70918W        W13831  30.607  16.302  13.616 -0.0420 -0.0056  0.0062
70919W        W13832  23.840   1.846  18.702  0.0419  0.5123  0.1037
70920W        W13833  21.338   9.841  18.488 -0.3651  0.0240  0.0337
70921W        W13834  16.288  10.138  18.990 -0.1150 -0.0246  0.2236
70922W        W13835  16.174   7.066  15.987  0.3088  0.1451  0.1817
70923W        W13836  17.535   0.727  14.597 -0.1122 -0.0886 -0.2205
70924W        W13837  14.779  12.786  13.432 -0.0018  0.2086  0.2298
70925W        W13838  12.427  10.885  26.290 -0.0092  0.4052 -0.0057
70926W        W13839  19.099  15.981  13.194  0.1009  0.0759  0.0352
70927W        W13840  18.631  33.115  23.985 -0.3876  0.0155  0.1004
70928W        W13841   8.163  16.583  17.937 -0.4011  0.0262  0.2284
70929W        W13842   6.939  31.826  23.930 -0.1000  0.3437  0.1865
70930W        W13843  16.777   9.833  13.691 -0.2400 -0.0077  0.2332
70931W        W13844  21.362  33.350  18.465 -0.1357 -0.2068 -0.0844
70932W        W13845  25.697  12.596  22.848  0.0504  0.0678 -0.1041
70933W        W13846  16.545  10.053  14.141  0.0194 -0.1837  0.2016
70934W        W13847   9.174  14.842  14.335  0.1813  0.2176  0.1327
70935W        W13848  21.708   6.936  14.483 -0.0153 -0.0282 -0.3197
70936W        W13849  18.885  10.531  19.970 -0.2114 -0.0433 -0.0952
70937W        W13850  10.940   2.400  24.144 -0.3245  0.1696 -0.0295
70938W        W13851  26.810  13.902  20.926  0.2069 -0.0287 -0.1638
70939W        W13852  18.824  33.715  20.381 -0.2323 -0.0164 -0.1993
70940W        W13853  16.169  33.399  21.125 -0.0034 -0.1340  0.2432
70941W        W13854  21.405   9.168  14.821  0.1507  0.1010 -0.0165
70942W        W13855  16.729   7.806  22.483 -0.3552  0.2798 -0.0364
70943W        W13856   6.583  13.658  23.660  0.3263  0.0258 -0.0389
70944W        W13857  20.326   5.518  23.416 -0.0898  0.2488  0.4635
70945W        W13858  23.273   6.025  28.830  0.0429 -0.2090 -0.1184
70946W        W13859  21.980   9.154  14.973 -0.0167  0.2117  0.0693
70947W        W13860  21.644   7.409  18.145 -0.0262  0.1069 -0.0406
70948W        W13861  18.546   6.139  17.082 -0.1448  0.4676  0.3220
70949W        W13862  24.879  13.097  16.620 -0.0066  0.2811 -0.1222
70950W        W13863  13.096   2.775  18.237  0.2144  0.1533 -0.1689
70951W        W13864  16.696   7.284  16.707 -0.1933 -0.0730  0.1310
70952W        W13865  16.528   4.185  22.512 -0.2617  0.1154 -0.0766
70953W        W13866  20.004  10.276  20.068 -0.0122  0.2762 -0.2141
70954W        W13867   6.269   5.704  19.790 -0.0031 -0.1689  0.1014
70955W        W13868  10.046  16.723  14.047  0.2592 -0.1910  0.0572
70956W        W13869  27.323   7.933  14.993  0.3152 -0.0284  0.1498
70957W        W13870  15.305   2.009   0.777  0.1429 -0.0529  0.2470
70958W        W13871  20.431  11.926  12.436  0.3903 -0.2519 -0.1694
70959W        W13872  12.999   8.939  16.448 -0.0818 -0.1415  0.0511
70960W        W13873  24.235  18.659  16.803 -0.3608 -0.3350  0.1662
70961W        W13874  13.007   8.842  19.688 -0.2935 -0.1123 -0.1611
70962W        W13875  17.305  15.770  15.355 -0.1843  0.0176 -0.0435
70963W        W13876  16.294   1.871  18.106  0.0561 -0.0053 -0.0824
70964W        W13877  20.747  10.025  26.178  0.1089 -0.1781 -0.1844
70965W        W13878   6.941  31.556  20.880  0.1314 -0.2759  0.0607
70966W        W13879  11.938  26.369  19.960 -0.0656  0.0153  0.3479
70967W        W13880  15.380   6.373  24.208 -0.0784 -0.0435 -0.0518
70968W        W13881  18.511  33.854  17.796 -0.1117 -0.4205  0.3654
70969W        W13882  18.323   8.933  14.196 -0.0924  0.1653 -0.3163
70970W        W13883  13.177  16.124  14.925 -0.1450 -0.5223  0.0551
70971W        W13884   9.542   0.513  28.022  0.1268 -0.2901  0.2632
70972W        W13885  19.089  11.812  14.460  0.3957 -0.2689  0.1149
70973W        W13886  23.815   9.414  24.023  0.0220  0.4022  0.1480
70974W        W13887  12.701  15.254  14.936  0.0430 -0.0126  0.0513
70975W        W13888  24.431  15.920  24.523  0.2512  0.0164 -0.1037
70976W        W13889   5.391  13.926  19.091  0.2428  0.0136  0.1959
70977W        W13890  19.245   7.940  17.456  0.3220  0.1403 -0.2015
70978W        W13891  14.443   5.074  16.345  0.1410  0.1246 -0.0629
70979W        W13892   7.338   5.088  19.501  0.1193 -0.1738 -0.0301
70980W        W13893  16.866  12.387  20.456 -0.2525  0.1568  0.1439
70981W        W13894   9.083  13.157  21.880  0.0616  0.0550  0.2414
70982W        W13895   4.775   9.160  19.384 -0.1033  0.0725  0.0089
70983W        W13896  14.708  12.535  15.853 -0.2145 -0.0174  0.1074
70984W        W13897  20.345  12.767  22.022 -0.2089 -0.0748 -0.1312
70985W        W13898  10.029  17.626  15.633  0.1491  0.1150 -0.0384
70986W        W13899  25.086   8.499  15.799 -0.0098 -0.1101 -0.2085
70987W        W13900  12.339   9.021  17.248 -0.1581  0.0033  0.1298
70988W        W13901  11.686  12.164  20.046 -0.0239 -0.0326 -0.0404
70989W        W13902  10.550   7.979  19.522 -0.1029 -0.0199 -0.5940
70990W        W13903  17.322  10.950  19.628  0.2849  0.2574  0.0647
70991W        W13904  12.948  14.661  14.239 -0.0936 -0.1245 -0.0736
70992W        W13905   8.055   1.674  18.624  0.1078 -0.2201  0.0983
70993W        W13906  26.605  12.724  23.698  0.2118  0.3176  0.0659
70994W        W13907  18.834  32.358  18.380  0.1123  0.0566  0.0727
70995W        W13908  20.433   3.919  26.167 -0.0723 -0.2388 -0.1943
70996W        W13909  13.778   7.878  26.150  0.3130  0.1276 -0.1595
70997W        W13910  14.080  11.384  16.156 -0.3169 -0.3939  0.0844
70998W        W13911  12.119   0.035  21.838 -0.3424  0.1929 -0.2037
70999W        W13912  17.281  11.993  15.829  0.0080  0.2325 -0.0444
71000W        W13913  15.731   9.502   1.944  0.0989  0.2477 -0.1738
71001W        W13914  12.960   9.359  21.050 -0.0682  0.1250 -0.1055
71002W        W13915  23.550  21.257  13.359 -0.0654 -0.0485 -0.0221
71003W        W13916  18.919  18.010  14.285  0.0720 -0.0810 -0.0514
71004W        W13917  13.785  11.910  14.174  0.0017  0.2119  0.2653
71005W        W13918  20.226   7.346  13.031 -0.2255 -0.2255  0.0192
71006W        W13919  18.632   2.017  19.741 -0.2374  0.0132  0.0433
71007W        W13920  29.447   7.049  15.274  0.1678  0.0593  0.2218
71008W        W13921  13.442  14.635  15.144  0.0138  0.0992  0.1061
71009W        W13922  27.604  17.055  18.595 -0.0783 -0.0693  0.1158
71010W        W13923  11.179  12.729  19.558 -0.0190  0.0268 -0.0018
71011W        W13924   2.084  25.228  19.865  0.0107 -0.0531  0.3308
71012W        W13925  21.200   2.716  16.974 -0.1421 -0.0905 -0.0121
71013W        W13926  17.680   0.395   2.400 -0.0599 -0.2177 -0.3175
71014W        W13927  12.512  11.216  15.097  0.2201  0.0490  0.0523
71015W        W13928  18.703  16.920  15.067 -0.1200  0.3951 -0.1155
71016W        W13929  19.595  23.837  13.882 -0.1393  0.0620 -0.1868
71017W        W13930  14.401   3.326  20.718  0.2448  0.0212  0.1141
71018W        W13931  30.857  13.202   0.553  0.0890 -0.1715 -0.1077
71019W        W13932  22.543  10.006  17.308  0.1515 -0.2667 -0.0677
71020W        W13933  23.736   4.161  16.889  0.0465 -0.1029  0.2036
71021W        W13934   7.165   5.850  18.665 -0.0232  0.1119  0.1605
71022W        W13935  20.229  13.060  16.727 -0.1955 -0.1100 -0.1707
71023W        W13936  27.025  23.789  13.809 -0.1910 -0.4702 -0.3654
71024W        W13937  19.780  11.449  14.377 -0.3441  0.2061  0.0610
71025W        W13938  22.115   7.898   2.416  0.1057 -0.1721  0.2285
71026W        W13939  19.923   6.675  20.016  0.0268 -0.1006  0.0494
71027W        W13940  14.439  16.667  12.808 -0.3247 -0.0230 -0.2198
71028W        W13941  29.270   2.319  19.085 -0.2149 -0.0016  0.0056
71029W        W13942  24.482  10.422  16.218  0.0502  0.1270 -0.3006
71030W        W13943  12.945  10.954  25.188 -0.1980  0.3225  0.3294
71031W        W13944   7.876  15.716  18.755  0.2103 -0.0255  0.1274
71032W        W13945  12.598  10.319  20.233  0.0438 -0.1064  0.3479
71033W        W13946  27.107  20.437  13.832 -0.1895 -0.0794 -0.2136
71034W        W13947  14.266  11.134  14.354 -0.3562  0.0148  0.1169
71035W        W13948   3.969  15.622  16.521 -0.0143 -0.0286 -0.0157
71036W        W13949  16.226   3.214  20.176  0.2772 -0.2176 -0.0504
71037W        W13950  20.562  12.711  13.070 -0.0151  0.1681  0.0370
71038W        W13951  23.708   9.994  15.947  0.2428  0.0214 -0.2169
71039W        W13952  23.861   5.811  14.085  0.3044  0.1324 -0.2027
71040W        W13953  20.210  11.441  13.151 -0.1145 -0.0378  0.2218
71041W        W13954  14.518   3.933  20.132  0.1849  0.3479 -0.2365
71042W        W13955  30.027  16.201  16.969 -0.0091 -0.0581 -0.0718
71043W        W13956  12.772  14.390  16.421  0.1790  0.0112  0.0131
71044W        W13957  15.327  12.660  18.396  0.5958 -0.2195 -0.2859
71045W        W13958  11.084  15.464  14.038  0.0910 -0.0216  0.1566
71046W        W13959  19.389   9.553  15.494 -0.0407  0.2384  0.0034
71047W        W13960   9.388   6.749  20.148  0.0471 -0.0539  0.0201
71048W        W13961   6.448  13.282  15.167  0.2182  0.1821 -0.2120
71049W        W13962  27.980   2.399  16.593  0.0727 -0.4205  0.0625
71050W        W13963  18.731   3.752  22.234  0.1386 -0.1006  0.1095
71051W        W13964  27.543  14.366  17.908  0.3949  0.0664  0.2022
71052W        W13965  11.576  13.259  14.113  0.2969  0.4393 -0.0403
71053W        W13966  21.129   1.779  18.879  0.0608 -0.4064  0.2372
71054W        W13967  30.661   7.297  16.819 -0.2702 -0.0829  0.0696
71055W        W13968  16.354  15.771  14.658  0.3687  0.1381 -0.0023
71056W        W13969   6.629   3.471  23.307 -0.1280  0.0624  0.0719
71057W        W13970  18.703   2.535   1.605 -0.0663  0.3476 -0.1157
71058W        W13971  20.230  12.416  18.028 -0.1961 -0.4373  0.0963
71059W        W13972  19.232  11.599  19.297 -0.1330  0.3493 -0.2632
71060W        W13973  28.994  33.155  25.187  0.3140  0.0820 -0.2500
71061W        W13974  20.328   9.064  26.176  0.0786  0.0833  0.1361
71062W        W13975  22.774  12.071  19.532 -0.0679  0.0601 -0.1453
71063W        W13976  16.317  11.108  21.057  0.1673 -0.1299  0.1652
71064W        W13977  15.332  11.234  18.014 -0.4848 -0.0030 -0.0967
71065W        W13978  10.578  19.679  16.308 -0.1358  0.0437  0.0226
71066W        W13979  11.495   5.138  16.305  0.0896 -0.0638  0.1072
71067W        W13980  22.481   7.173  14.875 -0.1757 -0.3221  0.5647
71068W        W13981  24.996  14.230  27.133 -0.0856  0.0799  0.1095
71069W        W13982  19.004   5.041  19.842  0.2883 -0.0883 -0.0750
71070W        W13983  15.902   9.712  17.997 -0.1734 -0.2788 -0.2189
71071W        W13984  21.712   9.573  21.478 -0.0148  0.1555 -0.1118
71072W        W13985  14.399  11.884  23.305 -0.4436  0.1056  0.2626
71073W        W13986  17.213  13.381  16.694  0.3104 -0.1154 -0.0483
71074W        W13987  19.174  11.708  15.396 -0.0261 -0.2711  0.3516
71075W        W13988  23.036   4.801  14.176 -0.2499  0.0254  0.2429
71076W        W13989  15.707   8.778  19.987  0.2765  0.1086 -0.2017
71077W        W13990  12.057  16.793  14.677  0.2358  0.0415  0.4072
71078W        W13991  17.760   4.302  15.969  0.0246 -0.1065  0.0293
71079W        W13992  15.277  19.412  14.306 -0.1228 -0.1490  0.0873
71080W        W13993  22.634   6.672  21.340 -0.1098 -0.3934  0.1035
71081W        W13994  21.759  32.015  15.422 -0.1088  0.0463 -0.0667
71082W        W13995  25.580  11.138  13.668  0.3103 -0.2493 -0.3227
71083W        W13996  23.708   8.492  19.922 -0.1335  0.4879 -0.2937
71084W        W13997  19.857   7.457  14.586 -0.1440 -0.0034  0.1062
71085W        W13998  15.471  10.307   1.324  0.1455 -0.0476 -0.0595
71086W        W13999  22.928  33.926  19.083  0.2998 -0.1858 -0.0321
71087W        W14000  26.185  18.625  13.916  0.0913 -0.1651  0.1495
71088W        W14001  19.935   0.355  20.534  0.0449  0.0956  0.1106
71089W        W14002  17.767  12.011  25.808  0.3069 -0.0570  0.1799
71090W        W14003  25.087   5.071  15.767  0.0629 -0.1297 -0.0451
71091W        W14004  11.836   8.963  21.129  0.0372  0.1780 -0.1085
71092W        W14005  13.301  20.943  23.686 -0.2475  0.0982  0.0276
71093W        W14006  14.228   2.110  14.926 -0.1947 -0.0562 -0.0769
71094W        W14007  10.660  12.396  16.002  0.3038 -0.0889 -0.2262
71095W        W14008  17.331   7.350  22.503  0.0641  0.1269  0.1042
71096W        W14009   7.612   8.542  19.089  0.2658 -0.1686 -0.0396
71097W        W14010  11.059  12.572  14.024  0.0296  0.1112  0.2310
71098W        W14011  25.769   9.275  18.182  0.0239  0.1816 -0.4705
71099W        W14012  14.615   9.178  15.445  0.1570 -0.1062  0.0598
71100W        W14013  17.420  11.635  20.302  0.0525 -0.1822 -0.3899
71101W        W14014  28.880  18.417  15.893  0.0282  0.1729 -0.3136
71102W        W14015  19.442   5.567  13.590 -0.1368 -0.0599  0.1755
71103W        W14016  13.545   8.399  17.984 -0.1539  0.1047  0.0384
71104W        W14017  14.994  14.743  24.548  0.0193  0.0048 -0.2800
71105W        W14018  17.808   0.693  17.787  0.0200 -0.0292  0.0700
71106W        W14019  19.918   5.520  21.810  0.1406  0.0302  0.0930
71107W        W14020  19.369   9.135  20.211 -0.0080 -0.3071 -0.1732
71108W        W14021  21.311   6.217  20.157  0.1489  0.3063 -0.1700
71109W        W14022  22.640   9.559  17.668  0.0973  0.0265 -0.2168
71110W        W14023  13.454   1.753  15.958  0.0103  0.2035  0.3491
71111W        W14024  20.717   5.772  16.407 -0.3632  0.0297  0.1017
71112W        W14025  28.504  14.376  27.084 -0.1135  0.1601 -0.0553
71113W        W14026  12.936  13.589  16.714 -0.3936  0.0396  0.2207
71114W        W14027  22.213  19.502  13.114  0.0590 -0.2855 -0.1085
71115W        W14028  23.327   8.073  15.603 -0.2139  0.0357  0.2246
71116W        W14029  18.768   3.327  16.602 -0.1382  0.0005 -0.0351
71117W        W14030  15.238   3.295  17.909 -0.0193  0.0057  0.0683
71118W        W14031   3.759  14.998  25.313 -0.1283  0.3484 -0.1077
71119W        W14032  16.607   5.104  20.034  0.0333  0.2869  0.3515
71120W        W14033  12.061   7.354  16.112 -0.0692  0.0383  0.0699
71121W        W14034   4.473   5.398  19.484  0.2952  0.0434 -0.3563
71122W        W14035  11.887   0.571  17.718 -0.2310 -0.2162  0.2698
71123W        W14036  18.331   2.742  14.345  0.2755 -0.1596 -0.0980
71124W        W14037  18.447   6.955  19.482  0.2276  0.0384 -0.2739
71125W        W14038   9.820   8.297  20.234 -0.1176  0.4717  0.1384
71126W        W14039  20.563   7.784  15.354 -0.0233 -0.1278 -0.0819
71127W        W14040  14.924   9.895  15.963  0.0872  0.0990 -0.0571
71128W        W14041  10.726  14.111  19.890  0.1352  0.1454  0.0608
71129W        W14042  23.392  14.454  24.855  0.0929  0.1283  0.0666
71130W        W14043  20.864  17.002  15.142 -0.1484 -0.0565 -0.0244
71131W        W14044  20.970   1.905  15.743 -0.0502  0.0818  0.0831
71132W        W14045  23.925  13.080  25.995  0.0759  0.0974 -0.2786
71133W        W14046  17.663   5.005  14.100  0.0875  0.1114 -0.2525
71134W        W14047  24.131   5.949  15.487 -0.1944  0.0288 -0.1980
71135W        W14048  22.618  13.005  13.269 -0.1498 -0.0169  0.2667
71136W        W14049   7.722  17.753  15.844  0.2101  0.2643 -0.1936
71137W        W14050  23.242   8.262  18.204  0.0802  0.1430 -0.1471
71138W        W14051   3.954  17.220  15.983  0.0769 -0.0063  0.0192
71139W        W14052  29.237   7.487  19.891 -0.3225  0.3585 -0.1719
71140W        W14053  13.120  14.184  13.516 -0.2655 -0.0802 -0.0505
71141W        W14054  18.978   3.314  23.698 -0.1462  0.1083  0.1314
71142W        W14055   8.889   5.564  26.502  0.1514  0.0556  0.1142
71143W        W14056  11.862  11.487  14.598  0.2524 -0.0760  0.2311
71144W        W14057  14.887  12.589  15.424 -0.1569  0.1497  0.3345
71145W        W14058  20.104   8.330  14.744  0.0342 -0.3395 -0.2569
71146W        W14059  14.050  20.870  16.339 -0.0647  0.2499 -0.0655
71147W        W14060  19.254  14.748  13.069  0.0372 -0.0939  0.0540
71148W        W14061  26.329  31.814  19.991 -0.0657 -0.1866 -0.2715
71149W        W14062  13.751  11.157  16.706  0.0695  0.2472 -0.0569
71150W        W14063  13.441  14.850  15.978  0.2317 -0.0096  0.0658
71151W        W14064  14.131   3.367  20.289 -0.3424  0.0333  0.2873
71152W        W14065  12.391  17.989  19.699 -0.3296  0.2130  0.3609
71153W        W14066  18.335  26.742  25.749  0.2300 -0.0453 -0.2084
71154W        W14067  32.276   9.218  24.361 -0.2231 -0.0124  0.0079
71155W        W14068   8.592   6.854  25.197  0.0499  0.2935  0.0118
71156W        W14069   8.085   5.138  21.230  0.3187 -0.1428  0.0815
71157W        W14070  24.374   6.898  15.755  0.0583  0.0934 -0.0743
71158W        W14071  11.924  16.991  27.948 -0.0959  0.1861 -0.1655
71159W        W14072  18.529   0.884  20.927 -0.2542  0.0572  0.0225
71160W        W14073   6.816  14.013  18.621 -0.2543  0.0309 -0.1225
71161W        W14074  26.375   4.800  22.551 -0.3380  0.3448 -0.0260
71162W        W14075   6.612   3.963  23.466 -0.0033  0.1192  0.1344
71163W        W14076   0.359   9.343  25.315  0.0019  0.1324  0.0949
71164W        W14077  28.735   6.369  21.568 -0.1657 -0.1934 -0.1316
71165W        W14078  17.955   5.074  23.249  0.0603 -0.1230  0.1142
71166W        W14079  11.503  16.796  19.672 -0.0387 -0.1325 -0.5690
71167W        W14080  22.425  15.600  27.691  0.3843 -0.1460 -0.1032
71168W        W14081  21.475  16.037  14.378 -0.2726 -0.1639  0.0576
71169W        W14082  25.114   8.380  21.408  0.2112  0.0087  0.1583
71170W        W14083  14.403   9.622  15.130 -0.2854  0.3465  0.0013
71171W        W14084  15.343   9.094  16.238 -0.2941 -0.0819 -0.2787
71172W        W14085  22.424   7.906  25.218 -0.0266 -0.2129 -0.3855
71173W        W14086  28.274  18.612  17.324 -0.1450  0.3139  0.0516
71174W        W14087  23.922   5.653  24.650 -0.1084  0.0294  0.1441
71175W        W14088  17.962   4.659  15.629 -0.1122 -0.1697 -0.1633
71176W        W14089   8.832  15.023  17.008 -0.1826 -0.1026 -0.2798
71177W        W14090   9.288   9.700  20.546  0.1240 -0.1873  0.1553
71178W        W14091   7.793  11.351  21.215 -0.0155 -0.0354 -0.1954
71179W        W14092  18.678   1.764  13.963 -0.2415 -0.1132  0.3802
71180W        W14093  23.720   5.169  16.679  0.0433  0.2173  0.1053
71181W        W14094  16.097   9.531  27.120  0.1913  0.2516  0.1923
71182W        W14095   8.536  13.223  24.146  0.1787 -0.0395 -0.0041
71183W        W14096  20.523  20.449  15.332  0.2439  0.4093 -0.1092
71184W        W14097  16.889   8.624  22.076 -0.2300 -0.0542 -0.0972
71185W        W14098  24.156   5.635  16.029 -0.0967  0.1161  0.0876
71186W        W14099   4.155  21.518  22.973  0.0125 -0.0547 -0.2337
71187W        W14100  27.019   4.844  18.939 -0.0111 -0.2174 -0.0859
71188W        W14101  14.633  11.340  14.134 -0.2899 -0.2517  0.1873
71189W        W14102  13.651  23.907  20.367 -0.1061  0.0865  0.1632
71190W        W14103  11.869  17.782  14.580  0.2357 -0.2551  0.1970
71191W        W14104  15.170   3.867  21.289  0.1932 -0.0466  0.3487
71192W        W14105   1.952   9.383  22.569  0.1431 -0.0974  0.0852
71193W        W14106   8.253  10.053  15.584  0.0769  0.2513 -0.0693
71194W        W14107   8.229  17.135  16.541  0.0988 -0.0813 -0.1211
71195W        W14108  16.891   5.669  19.634 -0.3704 -0.1932  0.2102
71196W        W14109   2.143  28.559  14.694 -0.0888 -0.0836 -0.1835
71197W        W14110  19.742  30.755  20.517  0.1517  0.1059 -0.0535
71198W        W14111   6.085   1.519  20.583  0.2582  0.0034 -0.0668
71199W        W14112  18.472   8.121  21.319 -0.4627  0.1496  0.2372
71200W        W14113  14.941   2.516  25.600  0.1678 -0.0162  0.3415
71201W        W14114  11.405   2.891  28.381 -0.0392  0.0576  0.0666
71202W        W14115  12.242  20.257  13.567 -0.1792  0.0262 -0.0668
71203W        W14116  30.431  12.669  18.852  0.0603 -0.1716  0.3045
71204W        W14117  15.800   9.659  24.542 -0.0768  0.2425 -0.0720
71205W        W14118  21.435  13.431  22.054 -0.0393 -0.0686 -0.3319
71206W        W14119  29.044  14.264  23.522  0.0392 -0.1823  0.0969
71207W        W14120  25.901   9.343  19.250 -0.2949  0.1912  0.0016
71208W        W14121  26.344  14.191  19.374  0.1801 -0.0683  0.2771
71209W        W14122  12.009   6.837  26.641 -0.0923 -0.0125 -0.2139
71210W        W14123   1.989   2.151  17.362  0.2072 -0.3532  0.0610
71211W        W14124  15.090  14.692  14.712 -0.0495  0.1265  0.1874
71212W        W14125  15.839  19.558  15.189 -0.1223  0.0111  0.0699
71213W        W14126  22.461  10.878  14.246  0.1597 -0.2016  0.1731
71214W        W14127  19.573   6.786  15.096 -0.0046 -0.2774  0.0533
71215W        W14128   7.842  14.049  13.642  0.2834 -0.0014 -0.0588
71216W        W14129   4.084   7.061  17.808 -0.0969  0.0825 -0.0164
71217W        W14130   6.517   6.202  20.198 -0.2496  0.1012  0.3862
71218W        W14131  24.061  28.734  14.502 -0.2015  0.2546 -0.1436
71219W        W14132  16.944   5.618  25.102 -0.1533 -0.1205 -0.2585
71220W        W14133  26.370  29.122  17.355 -0.0419 -0.4669  0.0737
71221W        W14134  20.862  11.666  25.043  0.0943 -0.1659  0.2002
71222W        W14135  21.783  20.149  23.241  0.0102 -0.1010 -0.0499
71223W        W14136  16.121  34.237  16.515  0.2315  0.1763 -0.1834
71224W        W14137  20.705  12.978  19.484  0.0607  0.0636 -0.2785
71225W        W14138  14.324  34.361  17.722  0.0948 -0.0180  0.0203
71226W        W14139  26.367  12.534  16.300  0.3085 -0.0827  0.0465
71227W        W14140  14.900   8.755  19.160  0.0499  0.2036 -0.5065
71228W        W14141  22.463   8.976  16.257 -0.1325 -0.0139  0.0911
71229W        W14142  21.326   9.631  15.615 -0.1713 -0.0900 -0.0374
71230W        W14143  18.867  11.691  13.414 -0.0169 -0.1266  0.0832
71231W        W14144  22.467   4.323  14.774  0.0513  0.0088 -0.1211
71232W        W14145  29.586  19.676  21.490  0.3981  0.2341  0.0617
71233W        W14146  23.228   6.777  15.331  0.0313 -0.0145 -0.1320
71234W        W14147  24.876  11.172  20.438  0.0390 -0.1373  0.3595
71235W        W14148  14.469  11.777  17.253  0.0041 -0.0601 -0.1517
71236W        W14149  20.612  14.018  20.386  0.0384  0.1284 -0.0665
71237W        W14150  14.600  22.954  17.824 -0.2719 -0.1816 -0.0486
71238W        W14151  31.028  17.889  27.740 -0.0903  0.1175 -0.0588
71239W        W14152  19.731  11.171  12.782 -0.0858  0.3372  0.2198
71240W        W14153  11.439   9.219  21.104  0.0154 -0.0874 -0.0404
71241W        W14154  12.669  12.641  14.949  0.1551 -0.2424  0.1797
71242W        W14155  11.795  14.984  21.168  0.0574 -0.1596  0.0739
71243W        W14156  14.685   5.650  15.542  0.0970 -0.0375  0.1390
71244W        W14157  17.962  12.335  17.989 -0.0770 -0.0615 -0.3053
71245W        W14158  18.310   3.709  17.427 -0.2506 -0.2125 -0.0443
71246W        W14159  12.058  13.385  14.764 -0.0104  0.0286 -0.0393
71247W        W14160  18.453   5.677  22.564  0.1450  0.1015 -0.3136
71248W        W14161  15.271   5.856  27.861 -0.3753  0.5008  0.1109
71249W        W14162  20.499  20.699  19.123 -0.1733 -0.1281  0.1360
71250W        W14163  26.495  12.923  18.496  0.0675  0.0970  0.2874
71251W        W14164  17.351  12.430  17.044 -0.0137  0.1663  0.0171
71252W        W14165  26.131   9.915  25.316 -0.0879  0.0984 -0.0632
71253W        W14166  10.887  13.216  18.742  0.0703 -0.1315  0.3624
71254W        W14167  24.727  18.423  16.548 -0.1896  0.3105  0.2041
71255W        W14168  27.169   5.610  25.847 -0.2124 -0.1063 -0.0534
71256W        W14169  15.024  13.446  15.992 -0.1026  0.1620 -0.4493
71257W        W14170  20.331   6.389  18.580 -0.0036  0.1328  0.0088
71258W        W14171   9.620  15.697  20.513 -0.0257 -0.2428  0.0313
71259W        W14172  20.931   3.370  20.838 -0.0738  0.0924  0.1189
71260W        W14173  20.809   8.125  20.533 -0.4080 -0.0323  0.0947
71261W        W14174   9.724  21.296  21.060  0.0849 -0.3448 -0.1642
71262W        W14175  10.341  11.236  24.767  0.1013  0.1877 -0.0348
71263W        W14176  13.947   3.931  20.109  0.1352 -0.0807 -0.0999
71264W        W14177  12.124  11.388  17.435  0.1709 -0.0673  0.0232
71265W        W14178  19.632  14.106  22.659 -0.1749  0.2217 -0.3355
71266W        W14179  23.666  19.085  14.877  0.0806  0.0596  0.1155
71267W        W14180  20.395   7.388  13.479 -0.0134  0.2680  0.1360
71268W        W14181  10.972  11.400  18.091 -0.2759  0.0326 -0.4008
71269W        W14182  18.129  11.846   2.517  0.0489  0.2686 -0.0833
71270W        W14183  13.110   7.399  15.400  0.1350  0.1700 -0.1553
71271W        W14184  31.106  17.944  14.869  0.0287 -0.1069  0.1000
71272W        W14185  21.652  20.791  14.726 -0.1149 -0.4514 -0.1141
71273W        W14186  16.967   9.834  22.946 -0.1845 -0.3017  0.0999
71274W        W14187  25.516  17.805  17.808  0.0674 -0.2407 -0.0753
71275W        W14188  13.719   9.362  25.063 -0.0036  0.1988 -0.1124
71276W        W14189  19.945  18.254  13.701  0.0259 -0.0368 -0.1183
71277W        W14190  16.483   9.537   0.048  0.0807  0.0393 -0.3403
71278W        W14191   9.620   7.682  22.534 -0.2004  0.1291  0.0594
71279W        W14192  12.653  11.003  17.614 -0.0372 -0.1742 -0.5198
71280W        W14193   4.974  15.625  16.010  0.0527  0.4537 -0.0816
71281W        W14194  26.879  10.313  19.154  0.2033 -0.0208  0.0602
71282W        W14195  14.397  11.369  14.764 -0.1222  0.3069  0.0218
71283W        W14196   6.115   7.441  20.037  0.2004  0.0798  0.1443
71284W        W14197  16.558  12.568  12.998 -0.1712  0.2160 -0.0640
71285W        W14198  12.175  13.834  29.694 -0.4504  0.1120  0.1905
71286W        W14199  19.911  12.720  19.764  0.1720  0.1640  0.0396
71287W        W14200  21.282  10.225  20.167  0.2277 -0.0347  0.2910
71288W        W14201  13.488   3.730  25.539 -0.1141 -0.1930  0.0938
71289W        W14202   9.730  13.051  23.168  0.2921  0.1020 -0.0655
71290W        W14203  14.980   9.168  18.436  0.3942 -0.0290  0.3537
71291W        W14204  23.849  17.569  17.780  0.1149 -0.0406 -0.0295
71292W        W14205   9.231   9.860  25.025 -0.1098 -0.1782  0.0183
71293W        W14206  27.517  16.097  18.635  0.2838 -0.2806 -0.0942
71294W        W14207   7.571   7.924  21.978  0.2812 -0.3897  0.0730
71295W        W14208  21.360  19.779  16.499  0.1357  0.2589 -0.3731
71296W        W14209  27.754  14.761  14.048 -0.0585 -0.0309 -0.1660
71297W        W14210  18.948  32.001  23.442  0.0493  0.0889 -0.2431
71298W        W14211  10.193  14.070  18.363  0.0786  0.0446  0.0146
71299W        W14212   5.799  20.573  15.724  0.1691 -0.0123  0.1467
71300W        W14213  31.469   0.425  24.362 -0.0447 -0.0900 -0.0690
71301W        W14214  30.447   2.451  19.032 -0.2318 -0.0462 -0.0247
71302W        W14215   8.039   3.476  25.170 -0.1171  0.0478 -0.0933
71303W        W14216  13.183  14.678  20.021  0.1084  0.1031 -0.1110
71304W        W14217  12.967  11.230  16.143 -0.0502  0.0056 -0.1076
71305W        W14218  23.077   5.587  23.213  0.0155 -0.4208  0.2169
71306W        W14219  25.916  33.385  22.783 -0.2032  0.0379 -0.2107
71307W        W14220  20.673   3.073  20.512 -0.1536  0.0392  0.0533
71308W        W14221  14.168   3.464  21.171 -0.0799  0.1147 -0.0646
71309W        W14222   9.549  12.732  17.624  0.0163 -0.1249  0.2487
71310W        W14223  15.688   5.894  24.901 -0.2378 -0.0956  0.3562
71311W        W14224  33.360   9.764  29.739 -0.0722 -0.3368 -0.3175
71312W        W14225  17.928  12.820  13.440  0.0170  0.1111  0.0619
71313W        W14226  23.666  17.126   0.387  0.1744 -0.1182 -0.1079
71314W        W14227  12.084   7.728  20.619  0.2001 -0.1770 -0.1542
71315W        W14228  28.520  12.883  17.055  0.2218 -0.0373  0.0495
71316W        W14229  16.474   6.675  22.903 -0.0913 -0.0053 -0.0532
71317W        W14230  20.342   5.549  18.440 -0.1728 -0.1291 -0.1771
71318W        W14231  14.647  10.651  19.705  0.0026 -0.0951  0.4019
71319W        W14232  26.704   5.377  28.994 -0.1163  0.0994  0.0757
71320W        W14233  22.883  24.638  23.814  0.4069 -0.0481 -0.0489
71321W        W14234  25.492  15.652  29.329 -0.0468  0.3590 -0.0843
71322W        W14235  26.215  11.085  17.938 -0.2659 -0.2637 -0.0679
71323W        W14236   9.249  11.660  17.377 -0.2028 -0.0255  0.1153
71324W        W14237  11.945   2.127  21.542  0.2101 -0.1278 -0.5032
71325W        W14238   4.843  11.331  17.812  0.1386 -0.2097 -0.1948
71326W        W14239  19.374   1.499  20.220 -0.0146  0.0176 -0.2839
71327W        W14240  18.121  10.872  15.377  0.2567 -0.0715  0.2119
71328W        W14241  12.209  21.348   6.316 -0.0783  0.3175  0.2686
71329W        W14242  11.749  13.745  13.903 -0.1698 -0.0413 -0.0472
71330W        W14243  11.815  18.731  21.942 -0.2299  0.1158 -0.2219
71331W        W14244  13.707   3.300  20.959  0.1208 -0.2476  0.1196
71332W        W14245  30.119   5.705  18.242  0.1667 -0.3935  0.0261
71333W        W14246  24.396  15.684  25.201 -0.0273 -0.1426 -0.0933
71334W        W14247  17.260   4.859  22.587 -0.0159  0.0921 -0.3520
71335W        W14248   2.941   7.837  18.474  0.0043 -0.0144 -0.0683
71336W        W14249  13.012  28.867  19.695 -0.1330  0.0920 -0.2613
71337W        W14250  27.452  13.835  24.614 -0.2955 -0.0354  0.2817
71338W        W14251  34.427   8.722  15.493  0.1058 -0.0348 -0.2095
71339W        W14252  21.930  15.903  12.489 -0.1543 -0.1812 -0.2036
71340W        W14253  21.976  16.283  14.332 -0.2886  0.1610 -0.4819
71341W        W14254  15.167  13.968  27.174 -0.3753 -0.1187 -0.0726
71342W        W14255  25.036   3.909   3.398  0.0136  0.0320  0.4631
71343W        W14256  20.788   0.647  20.723  0.2773  0.3346  0.0633
71344W        W14257  14.224   5.384  16.600 -0.0137 -0.0407  0.0920
71345W        W14258  11.126   3.309  18.196 -0.0728  0.1678 -0.3193
71346W        W14259  13.307   2.952  19.340 -0.0754  0.0756 -0.1609
71347W        W14260   8.286   7.517  20.895  0.0979 -0.3660  0.3161
71348W        W14261  10.992  16.131  20.656 -0.2426  0.0685 -0.2407
71349W        W14262  18.712   6.059  18.646  0.0855  0.6950 -0.0174
71350W        W14263   9.194  15.386  28.055 -0.0541 -0.1595 -0.1652
71351W        W14264  23.016  20.957  17.690  0.1004  0.1126 -0.2550
71352W        W14265  18.545   8.957  13.644 -0.0776 -0.0760  0.4242
71353W        W14266  22.603  16.560  20.553  0.0816  0.0616  0.3762
71354W        W14267  11.255  18.242  13.631 -0.1768 -0.0551  0.4001
71355W        W14268  16.698   8.784  23.996  0.0044 -0.1959 -0.0123
71356W        W14269  12.467  32.666  16.959  0.2618  0.1975 -0.1556
71357W        W14270  29.683   9.055  16.526  0.1010  0.0036  0.0153
71358W        W14271  19.121  18.467  12.245  0.0897 -0.0543  0.2397
71359W        W14272  21.979   9.958  20.141  0.0795  0.0254 -0.2714
71360W        W14273  18.377  12.186  20.070 -0.1780  0.0103 -0.1800
71361W        W14274  11.487   6.004  20.326 -0.1653 -0.3222  0.3334
71362W        W14275  21.458   6.347  23.748  0.0042 -0.0345  0.1528
71363W        W14276  19.317  10.361  19.328  0.1035 -0.1539 -0.0677
71364W        W14277  14.890   5.266  18.474  0.0141  0.0475  0.0502
71365W        W14278  14.629  21.727  18.588 -0.1612 -0.2585 -0.1241
71366W        W14279  18.178   5.148  15.005  0.0584  0.5652  0.1288
71367W        W14280  15.556   6.497  28.406 -0.0087  0.3230  0.0765
71368W        W14281  26.277  19.477  21.990 -0.1659 -0.0038 -0.2232
71369W        W14282  13.036  10.094  17.793  0.1116 -0.0029 -0.2969
71370W        W14283  21.939   7.967  18.957  0.0481 -0.0070  0.3924
71371W        W14284  16.202  32.319  21.361  0.2264 -0.2465 -0.0065
71372W        W14285   8.601  19.446  17.769  0.1213 -0.0871  0.0077
71373W        W14286  22.725   2.470  23.300 -0.1467 -0.3581 -0.4606
71374W        W14287  18.118   8.823  16.887  0.2396  0.0139 -0.1660
71375W        W14288  23.844   3.190  17.174  0.1200 -0.3564 -0.1492
71376W        W14289  14.757  12.741  21.819 -0.1323 -0.1901  0.1581
71377W        W14290  22.586   0.721  24.769 -0.1350  0.3018  0.0396
71378W        W14291  27.057   2.095  18.743 -0.0895 -0.0574  0.1932
71379W        W14292  16.017  33.245  18.296  0.1611 -0.1114 -0.0131
71380W        W14293  21.040  12.113  14.092  0.0973 -0.1171  0.0218
71381W        W14294  11.791  17.153  24.863 -0.2828  0.0559 -0.0220
71382W        W14295  20.267  14.746  22.600 -0.2520  0.0748 -0.0294
71383W        W14296  28.540  31.625  19.555  0.0120  0.0299  0.2193
71384W        W14297  22.274  15.961  12.842 -0.1906 -0.1294 -0.0710
71385W        W14298  12.231   2.786  27.193  0.0249  0.2051 -0.0210
71386W        W14299  17.992  14.577  23.005  0.1551  0.1196  0.0652
71387W        W14300  15.871  14.776  13.998 -0.1809  0.3899  0.0168
71388W        W14301  21.151  10.226  23.776 -0.0258 -0.1867 -0.2448
71389W        W14302  16.450  12.448  24.475 -0.2132  0.0153 -0.0289
71390W        W14303  17.894   7.434  25.414 -0.1569 -0.0140  0.0277
71391W        W14304  14.163  13.673  25.955 -0.0702  0.2489 -0.0412
71392W        W14305  27.225  11.740  20.345 -0.0802 -0.0242  0.0456
71393W        W14306  19.160  11.543  21.189  0.2331 -0.3459 -0.2804
71394W        W14307  11.618  16.972  14.977 -0.1803 -0.0927 -0.1258
71395W        W14308  22.324   0.629   0.466 -0.0268 -0.0892  0.1801
71396W        W14309  23.472   0.704  28.488 -0.1333  0.0736  0.0016
71397W        W14310  18.435   9.401  21.876 -0.1031 -0.1515  0.2216
71398W        W14311  20.264   9.049  22.950 -0.2340  0.0503  0.1917
71399W        W14312  18.546  33.925  27.164 -0.0383  0.1088 -0.1057
71400W        W14313  16.573   5.990  16.007  0.0486  0.1079 -0.2659
71401W        W14314  17.055   8.697  19.556  0.0394  0.0357 -0.2054
71402W        W14315  15.991  32.393  26.998 -0.2645  0.1032 -0.2408
71403W        W14316  13.922  18.385  15.190 -0.2453  0.0302  0.3177
71404W        W14317  15.768   3.628  15.832 -0.0307  0.3308 -0.1534
71405W        W14318  13.278   7.628  23.183  0.1629  0.0316  0.0773
71406W        W14319  14.232  12.559  22.054  0.0508  0.2947  0.1998
71407W        W14320  13.517  21.871  20.568 -0.2738 -0.1538 -0.1485
71408W        W14321  23.050  16.036  14.894  0.2270  0.3340 -0.0065
71409W        W14322  17.482   9.136  20.720  0.2627 -0.1978 -0.0430
71410W        W14323  18.282   7.664  28.846 -0.0295 -0.2052 -0.0423
71411W        W14324  14.200  11.656  14.191  0.0781 -0.3248  0.0952
71412W        W14325  12.397   2.099  26.164 -0.1906 -0.0345  0.2215
71413W        W14326  28.970   6.215  16.368  0.0418  0.3181 -0.2387
71414W        W14327  33.593  14.147  17.392  0.0313 -0.0006 -0.0901
71415W        W14328  24.396  32.086  19.824  0.1443 -0.1938  0.4441
71416W        W14329   4.483  15.666  25.647 -0.0762 -0.0308 -0.1931
71417W        W14330  30.220  34.359  15.871  0.1292 -0.1797 -0.0876
71418W        W14331  11.381  12.700  20.015 -0.0960  0.2012 -0.1111
71419W        W14332   9.010   3.396  28.413 -0.1113 -0.1842 -0.1130
71420W        W14333  22.452  12.481  13.291 -0.0132  0.2465  0.1790
71421W        W14334   4.089  15.385  25.393 -0.1900 -0.2244 -0.0421
71422W        W14335  11.901  12.723   2.302 -0.1572  0.2639  0.1821
71423W        W14336  28.067   3.899  22.504  0.0357 -0.1680 -0.1208
71424W        W14337  23.265   8.403  20.857  0.0878  0.5242 -0.0852
71425W        W14338  13.649  12.366  18.771 -0.0348  0.1309  0.0262
71426W        W14339   5.060   5.149  17.443  0.2598  0.1067  0.0722
71427W        W14340  14.567   8.797  18.358  0.0578  0.1497 -0.1729
71428W        W14341  13.516  11.978  13.482  0.0154  0.0362  0.1649
71429W        W14342  17.429  11.448  19.671  0.2388 -0.1692  0.1147
71430W        W14343  16.005   3.949  17.387  0.1127 -0.0045  0.3227
71431W        W14344  16.045  12.535  21.216  0.0790  0.0806 -0.2953
71432W        W14345  11.342  16.514  21.869  0.2731 -0.0471  0.4298
71433W        W14346  24.957  15.371   0.300  0.3215 -0.1065  0.1600
71434W        W14347  11.186  16.321  19.219 -0.0382 -0.0292  0.3215
71435W        W14348  14.396   6.619  22.616 -0.1672  0.0894 -0.0875
71436W        W14349  17.926   7.368  24.864  0.0263 -0.1605  0.1857
71437W        W14350   9.612   8.357  24.904  0.0630  0.0798 -0.4010
71438W        W14351  21.254  23.709  21.921 -0.3524  0.4035  0.0536
71439W        W14352  18.114  29.180  20.421  0.0919 -0.2095 -0.1599
71440W        W14353   7.424   6.194  21.598 -0.0483  0.1144  0.2579
71441W        W14354  12.323   4.382  19.281  0.0588  0.3134 -0.2101
71442W        W14355  22.861   5.376  16.303  0.3286  0.1993  0.1048
71443W        W14356  19.569  34.187  18.073  0.2761  0.0190 -0.1056
71444W        W14357  15.502   8.155  17.931 -0.2637 -0.5298 -0.2678
71445W        W14358   8.710   0.112  28.084  0.0906  0.2133 -0.0293
71446W        W14359  24.374  10.539  23.938  0.0944  0.1210  0.0570
71447W        W14360  11.911   8.596  24.167  0.1180  0.2189 -0.0112
71448W        W14361  17.461  10.208  14.893  0.0605  0.0531  0.4225
71449W        W14362  19.999  14.269  21.100  0.0650  0.2987 -0.5265
71450W        W14363  29.376  14.789  29.382 -0.2267 -0.0176  0.2780
71451W        W14364  24.983  28.003  14.533  0.0633  0.1820 -0.0630
71452W        W14365  16.698  12.320  15.289 -0.5124 -0.0104 -0.0975
71453W        W14366  17.629   6.981  23.558  0.1132 -0.0109 -0.1941
71454W        W14367  26.236   6.599  14.930  0.1196 -0.1527  0.1150
71455W        W14368  26.493   6.670  15.378 -0.2491  0.0686 -0.4043
71456W        W14369  30.038  18.820   2.155  0.2164 -0.1036  0.0258
71457W        W14370  10.489  20.194  22.258  0.0542  0.0537  0.4740
71458W        W14371  27.909  11.375  16.845  0.0314  0.2072  0.1196
71459W        W14372   2.991  17.180  17.503 -0.2166 -0.0301  0.2661
71460W        W14373  23.668   7.314  14.187 -0.2028 -0.3673 -0.0402
71461W        W14374  17.667   6.181  20.513 -0.0101 -0.2979 -0.0636
71462W        W14375  22.341  16.630  25.021  0.0086 -0.0188 -0.2357
71463W        W14376  17.531  13.544  23.845  0.2066  0.0844 -0.1878
71464W        W14377  15.500  19.165  13.886  0.3141  0.3016 -0.2239
71465W        W14378  18.744  11.425  16.655  0.0965 -0.3004 -0.1852
71466W        W14379  16.408   9.819  20.876 -0.1813  0.3540  0.0786
71467W        W14380  17.215  12.272  13.075  0.0162  0.2035  0.1653
71468W        W14381  21.778   7.359  25.197  0.1446  0.0578  0.1119
71469W        W14382  13.948  32.660  23.266  0.0249 -0.0149 -0.0327
71470W        W14383   9.104  14.770  17.458  0.0936 -0.4325  0.1027
71471W        W14384  16.693   4.372  16.739  0.2442  0.0949 -0.0703
71472W        W14385  23.962   3.309  29.348 -0.0881 -0.0413  0.1820
71473W        W14386  13.615  14.383  16.148 -0.0187 -0.5096 -0.1193
71474W        W14387   6.091  16.406  18.482 -0.0441  0.0572  0.1260
71475W        W14388  11.828  10.171  15.786  0.1720  0.4327 -0.0633
71476W        W14389  25.071   9.059   1.317 -0.0280 -0.3359 -0.1795
71477W        W14390  17.098  11.214  23.465 -0.0360  0.2671  0.2181
71478W        W14391   7.799   7.070  21.197 -0.3558 -0.3026  0.1270
71479W        W14392  11.049  18.161  15.148  0.1006  0.1431  0.0650
71480W        W14393  12.994   9.675  18.894 -0.0154 -0.1387 -0.1176
71481W        W14394  19.690  12.656  17.560 -0.0995 -0.1143  0.0524
71482W        W14395   3.307   7.484  28.516 -0.1056  0.2918  0.1346
71483W        W14396  16.476   4.131  21.055  0.0645  0.0473  0.2815
71484W        W14397   2.884  24.005  19.181 -0.3733 -0.2828 -0.0486
71485W        W14398  17.179  11.459  15.830  0.0564 -0.0733  0.2733
71486W        W14399  23.204   0.795  23.327  0.0594 -0.1857  0.1661
71487W        W14400  22.037   3.144  22.790  0.0501  0.0822  0.0684
71488W        W14401  15.440  21.658  13.549  0.1032  0.0881 -0.1622
71489W        W14402  11.780  19.115  20.960  0.0759 -0.1257  0.0643
71490W        W14403  19.965   4.697  29.525  0.1154  0.1319 -0.2221
71491W        W14404  16.977  10.962  24.798 -0.1846  0.1716  0.3598
71492W        W14405   6.670   4.825  28.840  0.0823 -0.1464 -0.1922
71493W        W14406   7.329  18.496  16.606  0.1980 -0.1019  0.2891
71494W        W14407  16.173  16.982  12.462 -0.2121 -0.0637  0.0867
71495W        W14408  20.986   6.055  27.748  0.0222  0.3955 -0.3442
71496W        W14409  14.344   3.532  17.244  0.2639  0.1276 -0.2026
71497W        W14410  15.255  29.141   0.340 -0.1157  0.0389  0.0451
71498W        W14411   4.182  11.030  26.191 -0.0282 -0.0406  0.0450
71499W        W14412  29.488  13.962  25.577 -0.1162  0.0594  0.5649
71500W        W14413  14.440   2.655  23.170 -0.1344 -0.0492  0.0740
71501W        W14414   4.246   3.743  23.209 -0.2124  0.2649 -0.4154
71502W        W14415  10.537  16.396  19.716 -0.0840 -0.0984  0.1054
71503W        W14416  12.814  15.842  14.509 -0.3807  0.1878 -0.3637
71504W        W14417  22.190  15.301  13.507  0.0830  0.0046  0.0304
71505W        W14418  23.428   6.061  19.206 -0.0600  0.2146  0.2136
71506W        W14419  17.529   8.640  14.148 -0.0462 -0.1718 -0.3110
71507W        W14420  16.849  13.181  22.245 -0.0833 -0.0983 -0.0444
71508W        W14421  24.203  16.181  12.968 -0.1186 -0.3320  0.0001
71509W        W14422  16.310   2.780  16.212 -0.2980  0.1390 -0.0580
71510W        W14423  15.754   7.257  20.249 -0.0277 -0.0648 -0.0845
71511W        W14424  21.847   7.956  25.862  0.0385 -0.0735  0.0768
71512W        W14425  16.114   0.466  21.226  0.0132  0.1281  0.1418
71513W        W14426   7.774  14.534  15.308 -0.3850  0.0011 -0.1525
71514W        W14427  19.933  29.805  21.490 -0.1275  0.1281  0.3282
71515W        W14428  16.532  30.011  19.486 -0.1118 -0.2678  0.2349
71516W        W14429  14.421   7.234  20.193 -0.0619 -0.0132  0.0369
71517W        W14430  13.685   1.953  17.061 -0.2231  0.4387  0.0676
71518W        W14431  25.587  18.963  19.443  0.3913 -0.0932 -0.1200
71519W        W14432  25.740  13.640  23.764  0.2767 -0.2057 -0.1791
71520W        W14433  17.374  10.671  12.855 -0.1631 -0.0013  0.0164
71521W        W14434   8.803   1.973  19.518  0.0806  0.1784  0.1770
71522W        W14435  20.093   2.546  19.224 -0.1418 -0.0197  0.1348
71523W        W14436  20.504   6.994  19.481 -0.1208 -0.0038 -0.0801
71524W        W14437  10.765   8.912  24.215 -0.1555 -0.1093  0.0360
71525W        W14438  25.512  19.990   0.345 -0.1157 -0.0003 -0.2002
71526W        W14439  23.254  20.064  16.209 -0.0555 -0.1724  0.0970
71527W        W14440   9.516  21.005  17.385 -0.1224 -0.1796  0.0306
71528W        W14441  14.224   1.503  27.704 -0.3672 -0.0241 -0.2633
71529W        W14442  21.067   6.227  23.341 -0.2338 -0.1444 -0.1589
71530W        W14443   8.085   3.296  19.784  0.2458 -0.1891 -0.1300
71531W        W14444  15.313   8.056  17.040 -0.1201 -0.0093  0.3724
71532W        W14445  28.534  28.163  21.927 -0.0806  0.1637  0.0369
71533W        W14446  12.114   2.110  27.788  0.3076  0.2843 -0.0681
71534W        W14447  23.276   7.876  13.269 -0.1171 -0.1226 -0.0681
71535W        W14448  11.533  11.063  26.313 -0.1347 -0.1850 -0.1934
71536W        W14449  17.834   5.535  14.056  0.0072 -0.0424 -0.0589
71537W        W14450  32.178   9.375  19.061 -0.0255  0.1302 -0.1883
71538W        W14451  21.595   4.517   3.119  0.0785 -0.2554 -0.2004
71539W        W14452  25.215  11.158  15.675 -0.2028 -0.2242  0.1971
71540W        W14453  12.517  12.923  13.330  0.1320  0.2105  0.0173
71541W        W14454  10.061   4.511  22.411 -0.3446  0.1275 -0.2935
71542W        W14455  16.214   7.479  14.240 -0.1118 -0.2003 -0.4230
71543W        W14456  22.349   5.349  16.720  0.0766 -0.0108  0.3923
71544W        W14457  13.801  15.837  16.688 -0.0726  0.0871  0.1275
71545W        W14458  22.801  10.953  22.898 -0.0214  0.3303  0.0486
71546W        W14459   9.813   3.406  18.437  0.2045  0.1182 -0.0185
71547W        W14460  18.432   4.878  15.963 -0.3221  0.1028 -0.0940
71548W        W14461  10.874  12.479  19.155  0.2385 -0.1414 -0.0659
71549W        W14462  14.713  15.105  26.652  0.0234  0.4640 -0.2217
71550W        W14463  25.729   4.897  14.582  0.1117 -0.1226  0.0872
71551W        W14464  21.935  30.036  26.035  0.1131 -0.1247  0.1192
71552W        W14465   9.240  20.791  17.810 -0.2096  0.1939 -0.0006
71553W        W14466  21.938  14.057   1.773 -0.2814  0.0767 -0.0869
71554W        W14467  19.053  10.278  22.744  0.0224 -0.2131 -0.0767
71555W        W14468  24.718   2.711  24.819 -0.1187 -0.2086 -0.0888
71556W        W14469  16.351   4.652  20.865  0.1774  0.2911  0.0330
71557W        W14470  10.683  12.280  29.422 -0.3827 -0.2953  0.0409
71558W        W14471   9.947  17.195  26.671 -0.2898  0.0840 -0.0318
71559W        W14472  20.467   8.827  13.870 -0.2613 -0.1963  0.1741
71560W        W14473  15.538  13.931  14.414 -0.0440 -0.2218  0.2492
71561W        W14474   5.896   9.502  22.325 -0.4946 -0.1287  0.2165
71562W        W14475  17.091   2.247  22.013 -0.1818  0.0243  0.0957
71563W        W14476  10.807  22.029  20.883 -0.1405  0.0523  0.1307
71564W        W14477  19.017   8.493  17.503  0.1402 -0.2660  0.0469
71565W        W14478  23.229  12.749  17.783 -0.0844  0.1710  0.1054
71566W        W14479  20.178  20.410  12.445  0.1625  0.0260  0.1426
71567W        W14480  24.167   6.417  14.537 -0.0889  0.2475 -0.0679
71568W        W14481  22.526  12.857  14.346 -0.0702  0.1124 -0.2112
71569W        W14482  18.537  11.563  23.769 -0.0617  0.0619 -0.1762
71570W        W14483   1.935  16.138  26.565 -0.1025 -0.3307 -0.0708
71571W        W14484  14.501   5.942   3.039  0.0684  0.0587  0.4566
71572W        W14485  16.196   4.435  24.283  0.0112 -0.3106  0.2055
71573W        W14486  15.691  10.087  27.991  0.1342 -0.0951 -0.1565
71574W        W14487  13.616  17.686  25.532  0.0466 -0.3863  0.0140
71575W        W14488  13.989   5.695  14.895  0.2750 -0.0767  0.0704
71576W        W14489  11.643  13.130  19.754  0.0256  0.2236 -0.2284
71577W        W14490  23.510   8.493  19.451 -0.0540  0.2126 -0.1295
71578W        W14491  15.068  13.000  14.258 -0.1353  0.1981  0.0512
71579W        W14492  15.830  12.401  14.625 -0.0267  0.1015 -0.1649
71580W        W14493  18.138  21.575  13.095 -0.1027 -0.1409 -0.3103
71581W        W14494  25.703  13.606  19.473 -0.1141 -0.2436 -0.3809
71582W        W14495  20.126   9.971  20.453  0.0051  0.1229 -0.2574
71583W        W14496  10.126   4.417  24.707 -0.0645 -0.0464  0.0270
71584W        W14497  17.194   7.795  26.001  0.0017 -0.2359  0.2808
71585W        W14498  31.962  33.987  26.358 -0.3417  0.2298  0.2270
71586W        W14499  11.897   7.988  27.562 -0.2313 -0.0403  0.0669
71587W        W14500  18.450   9.448  22.509  0.3672  0.2518  0.1914
71588W        W14501  14.507  13.270  15.735 -0.0679  0.2617  0.1366
71589W        W14502  20.064   8.811  15.085 -0.0378 -0.1943  0.0484
71590W        W14503  29.665  16.549   1.145 -0.0293 -0.4159  0.0819
71591W        W14504  26.879   6.419  14.586 -0.0751  0.2014 -0.0235
71592W        W14505  16.100   4.095  25.953  0.0018  0.2143 -0.0083
71593W        W14506  22.440   8.708  20.370 -0.1391 -0.1712 -0.2432
71594W        W14507  13.513  34.394  15.597  0.2684  0.0056  0.0066
71595W        W14508   8.126   6.462  17.082 -0.0738 -0.0014 -0.1467
71596W        W14509   1.480   8.841  24.106 -0.1967 -0.2994 -0.1770
71597W        W14510   6.663   3.653  26.272 -0.4061  0.1025  0.1290
71598W        W14511  14.510   5.933  20.316  0.1372  0.0358  0.0206
71599W        W14512   9.780   8.325  18.631  0.0531  0.0492  0.0425
71600W        W14513  23.163   8.890  26.778 -0.1351 -0.0224 -0.0864
71601W        W14514  22.522   9.776  18.087  0.0243 -0.0955  0.3421
71602W        W14515  14.554   4.845  19.835  0.1828  0.0382  0.4210
71603W        W14516  28.473  28.950   1.583 -0.1981  0.0448 -0.1408
71604W        W14517  26.203  20.721  17.225  0.3831 -0.2831 -0.1252
71605W        W14518  16.935  14.364  16.423 -0.2866 -0.1323  0.2035
71606W        W14519  27.939   7.551  19.318 -0.1813 -0.1123 -0.1265
71607W        W14520  22.763  15.771  18.092  0.0266 -0.1545  0.2460
71608W        W14521  12.164  19.721  13.289 -0.0280  0.2483  0.1930
71609W        W14522  15.492   7.576  18.839 -0.2238 -0.1127 -0.1104
71610W        W14523  21.334  28.583  26.827 -0.1476 -0.0134  0.3931
71611W        W14524  29.816  13.186  17.355 -0.0789  0.2225 -0.2885
71612W        W14525  20.920   8.151  29.404 -0.0131 -0.2669  0.1970
71613W        W14526  16.767  22.336  18.234  0.0077 -0.2355 -0.1935
71614W        W14527  20.160   4.345  16.800 -0.2556  0.0816 -0.0574
71615W        W14528  16.206   0.540  23.630 -0.0026 -0.3879 -0.3687
71616W        W14529  20.372  22.014  13.530 -0.1965 -0.0185 -0.2280
71617W        W14530   6.408   5.783  28.629 -0.0645  0.3040  0.2046
71618W        W14531  12.310  12.525  18.108 -0.0475  0.0445  0.1344
71619W        W14532  10.801  12.329  20.460  0.1531  0.3439 -0.2559
71620W        W14533  15.339   1.048  23.653  0.1344  0.1239  0.3287
71621W        W14534  18.968   4.765  27.209 -0.1606  0.0582  0.2148
71622W        W14535  30.132   6.772  21.436 -0.1104 -0.0078 -0.0335
71623W        W14536  12.590  27.974  18.770 -0.0426  0.3364  0.1032
71624W        W14537  14.621  12.935  19.152  0.3330  0.0418  0.2034
71625W        W14538   9.697  16.894  23.923 -0.2646 -0.4729 -0.1442
71626W        W14539  17.560   1.984  22.817  0.1352  0.1603  0.0780
71627W        W14540  24.278   1.154  19.570 -0.0004 -0.2364 -0.1252
71628W        W14541  27.135  15.894  16.016  0.0439 -0.1507 -0.0612
71629W        W14542  16.844  16.967  23.981  0.1218  0.0892 -0.4095
71630W        W14543  10.846   2.708   2.139 -0.1467  0.0394  0.0895
71631W        W14544  17.545   1.297  22.764  0.0896  0.0651 -0.0731
71632W        W14545  15.761   9.319  21.149  0.2446 -0.0325  0.5346
71633W        W14546  19.553   7.407  20.086 -0.2334 -0.0951  0.2014
71634W        W14547  22.585  26.078  22.712  0.2612 -0.0495  0.1357
71635W        W14548  17.205   6.157  15.243 -0.3269  0.0283  0.2972
71636W        W14549  11.986   6.335  20.351  0.0714 -0.1543  0.0080
71637W        W14550  12.500  22.348  15.308 -0.1598  0.2998 -0.0936
71638W        W14551   5.169  21.192  19.708  0.0813  0.3560  0.2107
71639W        W14552  12.277   9.590  29.057  0.2611 -0.0342 -0.1021
71640W        W14553  27.163  15.111  22.255 -0.0316  0.2485 -0.3631
71641W        W14554  13.405  11.628  19.402  0.0870 -0.1501 -0.0209
71642W        W14555  18.656  12.099  11.477  0.0837  0.1299  0.1502
71643W        W14556  10.687  12.667  19.619  0.0297 -0.2893  0.1148
71644W        W14557  20.715   3.903  17.634  0.0207  0.2162  0.2088
71645W        W14558   6.273   9.081   1.691 -0.3016 -0.0020  0.1061
71646W        W14559  10.678   5.469  22.907  0.0485  0.2553  0.2927
71647W        W14560  19.898   7.384  18.158 -0.2025  0.2814 -0.1832
71648W        W14561  10.402   2.517   0.764  0.1853 -0.4163 -0.0532
71649W        W14562   9.410  17.904   0.043 -0.0512 -0.0334  0.1429
71650W        W14563  20.711  31.782  22.589 -0.1832 -0.1594  0.0650
71651W        W14564  14.700  33.462  21.175  0.1726  0.3244  0.3323
71652W        W14565  22.969  10.118  19.741  0.5500 -0.3054  0.1855
71653W        W14566  17.048  28.072   4.870  0.3718 -0.0200  0.1841
71654W        W14567  33.886   8.916  25.271  0.2481 -0.1548 -0.3003
71655W        W14568  19.561   8.293  22.433 -0.1679  0.0841  0.2010
71656W        W14569  20.030  14.727  13.607 -0.3769  0.0629 -0.2377
71657W        W14570   2.592   2.595  26.012 -0.2192  0.0627 -0.2622
71658W        W14571   5.938   2.857  19.124 -0.1006  0.3307 -0.0903
71659W        W14572  23.349  10.529  24.316 -0.0500  0.0816 -0.2950
71660W        W14573  28.292   5.770  23.868 -0.2493  0.2120 -0.2495
71661W        W14574  18.963  19.426   3.842 -0.0003  0.2747  0.2549
71662W        W14575   3.774  11.434  29.255  0.0754  0.0539  0.1314
71663W        W14576  17.208  30.392  26.039  0.1021  0.1300 -0.4633
71664W        W14577  10.231   1.060  20.055 -0.3094 -0.3565 -0.0489
71665W        W14578  19.973  25.637  23.720 -0.0340  0.2298 -0.3608
71666W        W14579  19.910   8.968  27.184  0.0430  0.0132 -0.3040
71667W        W14580  14.538  11.788  28.198 -0.0657  0.2218  0.0674
71668W        W14581  13.489  29.738  16.743 -0.7666 -0.1588  0.1799
71669W        W14582   9.319  27.786  27.875 -0.1676  0.4276  0.2963
71670W        W14583  12.583   9.062  16.730  0.0302  0.0429 -0.0973
71671W        W14584  14.452   7.083  22.430  0.0003 -0.2605 -0.1127
71672W        W14585   8.242   4.004  24.432  0.2381 -0.0825  0.0818
71673W        W14586  12.718  33.692  16.665 -0.0239 -0.4616 -0.0107
71674W        W14587  23.825  10.207  18.213 -0.2058  0.2311  0.1881
71675W        W14588  16.630  12.895  20.981 -0.0570 -0.2462  0.0363
71676W        W14589  31.091   4.336  16.908  0.1163  0.2867 -0.1440
71677W        W14590  23.972  19.662  12.922 -0.0681  0.0550  0.0492
71678W        W14591  17.067  11.959   8.539  0.0725 -0.2172 -0.3995
71679W        W14592   4.099   3.248   1.657 -0.1337  0.2311  0.0460
71680W        W14593  11.110   1.665  19.324  0.0751  0.0432 -0.1142
71681W        W14594  25.998  17.377  27.105 -0.1324 -0.0201  0.0508
71682W        W14595  14.357  11.975  20.187  0.0870 -0.2682 -0.2169
71683W        W14596   7.695  12.329  21.367  0.1950  0.0243  0.0371
71684W        W14597  14.316  12.291  19.724  0.2542  0.2423  0.1033
71685W        W14598  20.923  33.887  17.426 -0.0898 -0.1954  0.3606
71686W        W14599  11.720  21.307  13.139  0.2347  0.1769 -0.2937
71687W        W14600  18.947   4.021  20.885  0.0389 -0.1723 -0.0628
71688W        W14601  16.196   6.589  22.022  0.0151 -0.0643  0.0072
71689W        W14602  13.699  15.041  24.437 -0.1107 -0.3412 -0.0410
71690W        W14603  25.723   6.616  16.208 -0.1037  0.1852 -0.2814
71691W        W14604   8.191   7.423  17.981 -0.2433 -0.3338 -0.2107
71692W        W14605  16.662  12.828  28.469  0.2797  0.2385 -0.0670
71693W        W14606   2.664  14.353   5.306 -0.2595  0.1100  0.0415
71694W        W14607  20.612  11.436  22.100  0.1504 -0.1926  0.2113
71695W        W14608  16.947   6.311  18.973  0.1464 -0.1193 -0.0291
71696W        W14609  11.158  14.709  20.597 -0.1752 -0.1820 -0.0137
71697W        W14610  13.726  15.501  24.655 -0.2379  0.1210  0.0183
71698W        W14611  10.237   9.048   3.782 -0.1072 -0.0004 -0.0304
71699W        W14612  21.045   4.550  21.150 -0.1480 -0.0332 -0.0856
71700W        W14613   9.495  28.738  17.789  0.1669 -0.2111 -0.0707
71701W        W14614  23.557   8.783  16.372 -0.1223 -0.0633 -0.1927
71702W        W14615  10.350  20.713  17.563 -0.0214 -0.6262  0.1927
71703W        W14616  17.723  14.921   7.079 -0.0255 -0.0315  0.1851
71704W        W14617  10.250  22.418  19.895 -0.1662 -0.0576 -0.1339
71705W        W14618  25.775  12.392  23.809  0.1877  0.1110 -0.0512
71706W        W14619  15.771  19.609  13.751  0.0901  0.1323 -0.1240
71707W        W14620   9.421  10.088  27.510 -0.2444 -0.0464 -0.1043
71708W        W14621  17.210  10.265  16.297 -0.2785  0.1124 -0.1431
71709W        W14622  13.752   9.843  21.641 -0.0097 -0.2246 -0.1875
71710W        W14623  24.512   3.311  17.306  0.2095 -0.2071  0.0803
71711W        W14624  15.935   3.843  18.034 -0.0007  0.0730  0.2861
71712W        W14625  19.397  15.688  15.519  0.1003 -0.0473  0.3104
71713W        W14626  24.032   9.089  17.069  0.0652 -0.0135  0.0254
71714W        W14627  18.512  12.672  25.630 -0.3448 -0.0312  0.4139
71715W        W14628  16.895  12.440  21.718  0.2879  0.1903  0.3010
71716W        W14629  27.406  21.345  23.053 -0.0469  0.1493  0.1758
71717W        W14630  22.865   4.403   2.706  0.1478 -0.1827 -0.1392
71718W        W14631  15.642  16.981   3.653 -0.4145  0.1761  0.1958
71719W        W14632  16.284  12.932  28.026 -0.0747 -0.2912  0.1382
71720W        W14633  25.796   9.715  25.615 -0.0411 -0.0287 -0.0094
71721W        W14634  11.446  33.457  18.373 -0.1880  0.0972 -0.3485
71722W        W14635  25.890   6.682  24.255  0.5347 -0.2428  0.0729
71723W        W14636  25.509  14.577  23.656 -0.4076 -0.0865 -0.1743
71724W        W14637  17.370   8.028  14.164 -0.0238  0.1000  0.1146
71725W        W14638  11.440  15.153  15.589 -0.2625  0.0366 -0.2246
71726W        W14639  16.590   3.751  15.406  0.0720  0.0872 -0.2186
71727W        W14640  15.099   8.400   3.027 -0.1263  0.1540  0.1348
71728W        W14641  14.166   2.209  23.346  0.0874 -0.1307  0.2413
71729W        W14642   6.946  16.291  19.889  0.2762  0.2149  0.1337
71730W        W14643   9.660   5.843   3.477  0.0077 -0.1347 -0.2459
71731W        W14644  28.485   4.841  24.054  0.2317  0.1830  0.1505
71732W        W14645  15.703   7.978  19.301  0.1650 -0.1489  0.0506
71733W        W14646  19.140  13.359  13.196  0.2620 -0.3470 -0.2733
71734W        W14647  15.870   5.745  26.639 -0.4723 -0.0429  0.3308
71735W        W14648  24.580   9.323  22.634 -0.0301  0.1102 -0.2992
71736W        W14649  13.451   2.495   3.454  0.0583 -0.0053  0.3105
71737W        W14650  22.210   0.755  16.535  0.0183  0.1661 -0.0643
71738W        W14651  19.388  10.520  23.665  0.0622  0.0863 -0.1115
71739W        W14652   4.434   1.624  24.212 -0.2079 -0.1485 -0.1974
71740W        W14653   7.861   2.926  26.020  0.0260 -0.1753  0.2435
71741W        W14654  13.599   6.458  16.781 -0.0529 -0.0040 -0.1340
71742W        W14655   8.943   0.820  24.705  0.4005  0.0276 -0.0949
71743W        W14656  19.220  13.768  25.484 -0.1155  0.2491 -0.1213
71744W        W14657  11.106   4.913  21.451 -0.1703 -0.1631  0.1761
71745W        W14658  25.439  15.734  22.429 -0.5238 -0.0070  0.0945
71746W        W14659  17.039   9.454  13.864 -0.1876 -0.2199 -0.0812
71747W        W14660  18.223   3.923  28.360  0.2348 -0.0995  0.1595
71748W        W14661  21.774   5.286  21.396  0.2444 -0.0192  0.4564
71749W        W14662  27.205  13.083  29.463 -0.3071  0.0074 -0.1191
71750W        W14663  15.780   9.215  18.147 -0.0325 -0.0928  0.1211
71751W        W14664  12.745  14.114  28.712 -0.0006  0.0600 -0.0446
71752W        W14665  15.443  11.002  21.494  0.1095  0.1521 -0.1630
71753W        W14666  18.731   7.437  19.843 -0.1293  0.2126  0.2493
71754W        W14667   2.430  10.757  17.170  0.2638  0.0892 -0.2516
71755W        W14668  19.436  11.013  19.287  0.1623  0.0137 -0.2236
71756W        W14669  16.857  10.864  16.166 -0.0684  0.3097  0.1029
71757W        W14670  11.865  31.462  22.325 -0.0866  0.1865 -0.1024
71758W        W14671  20.497   3.630  15.578 -0.1166 -0.1339  0.0962
71759W        W14672  22.468  32.719   2.124  0.0235  0.0192 -0.1741
71760W        W14673  23.003  10.484  21.090  0.2701 -0.0456 -0.2792
71761W        W14674   9.309  33.621  26.873  0.0489 -0.0166  0.0791
71762W        W14675  16.644  14.515  26.956 -0.1107  0.1249  0.1331
71763W        W14676  16.892   0.353  21.440 -0.2863 -0.3007  0.0530
71764W        W14677  15.032   0.941   3.341 -0.0606  0.0209 -0.3076
71765W        W14678  17.777  14.615  27.830  0.1691 -0.0194 -0.3107
71766W        W14679  16.805  13.391  19.866  0.1373  0.0304 -0.5721
71767W        W14680  18.440   6.113  28.224 -0.2004  0.0544 -0.3277
71768W        W14681  19.415  10.027   0.613 -0.5884  0.1628  0.0220
71769W        W14682   8.568   0.259   4.434 -0.0627 -0.1843  0.0091
71770W        W14683   8.476   4.496  25.834 -0.0897 -0.0712 -0.0558
71771W        W14684  29.590  33.939  24.855  0.2385 -0.3602 -0.1283
71772W        W14685  24.457  30.773  23.063 -0.0208  0.1785 -0.2942
71773W        W14686  13.030  15.643  17.911  0.0694  0.0962  0.1430
71774W        W14687  23.377   4.952   3.833 -0.1894  0.0110  0.1193
71775W        W14688  12.265  12.491  21.718 -0.1421  0.1063 -0.0285
71776W        W14689  16.845  10.908  23.783  0.1689  0.1505  0.1832
71777W        W14690  19.092   7.403  29.457 -0.0180 -0.3382  0.1278
71778W        W14691  23.299  11.172  22.959 -0.0538 -0.2484 -0.1431
71779W        W14692  11.608   1.067   2.232  0.2177  0.1224 -0.1057
71780W        W14693  21.092   1.479  28.103 -0.0901 -0.1489 -0.0689
71781W        W14694  12.493   5.687  22.653 -0.1004  0.1851 -0.0070
71782W        W14695   9.887  29.623  18.690  0.2301  0.1207  0.2262
71783W        W14696  22.114   0.108  23.429  0.2521 -0.2982 -0.2657
71784W        W14697  30.517  10.911  27.035  0.0056  0.1231  0.2475
71785W        W14698  27.245  31.299  21.697 -0.0129  0.1494 -0.1321
71786W        W14699  15.944   4.849  24.385 -0.0305 -0.0311 -0.0667
71787W        W14700  18.524   1.557   1.506 -0.0765  0.2247  0.1674
71788W        W14701  24.265  12.745  15.536 -0.2156 -0.1880 -0.2152
71789W        W14702  16.316   9.269  27.533 -0.3541  0.1655  0.2093
71790W        W14703  14.757   6.761   0.857 -0.0159 -0.2703  0.1894
71791W        W14704  18.434   5.032  16.860 -0.1622  0.0436  0.0121
71792W        W14705  31.987  31.754  25.112 -0.0443  0.0825  0.1185
71793W        W14706  31.181  24.662  23.653  0.0133  0.2187 -0.2373
71794W        W14707  10.874  18.392  22.822  0.3751 -0.1703  0.0597
71795W        W14708  19.302   8.300  23.890 -0.2575  0.0184  0.0694
71796W        W14709  20.324   1.718  21.450  0.2405 -0.2405  0.2470
71797W        W14710  22.283   8.392  28.619 -0.0978 -0.1233  0.1369
71798W        W14711  19.069   7.197  20.280  0.0510  0.0762  0.1607
71799W        W14712  11.825   3.164  22.708  0.0437  0.0543 -0.0164
71800W        W14713  14.912   7.013  19.348  0.0418  0.0132  0.0076
71801W        W14714  18.335  15.689  14.161  0.2070  0.2139  0.2786
71802W        W14715  14.734  14.473  24.949  0.1289 -0.1212  0.3961
71803W        W14716  20.006  14.030  17.134 -0.1109  0.2273 -0.1143
71804W        W14717  14.508  12.668   2.092 -0.0300  0.0598  0.1530
71805W        W14718  11.519  25.128  26.332 -0.0279 -0.4372  0.2273
71806W        W14719   5.210   9.512  26.812  0.5619 -0.1183  0.1888
71807W        W14720  23.790  12.625  20.976  0.1193  0.0645 -0.2269
71808W        W14721  11.796   4.375  19.366  0.2002  0.0275  0.1552
71809W        W14722  13.564  13.144  22.349  0.1709 -0.2467 -0.1857
71810W        W14723   9.892  12.701   1.763  0.0509 -0.0290 -0.0534
71811W        W14724  10.531  11.788  28.296  0.0209 -0.3817  0.1985
71812W        W14725  11.826  10.270  16.376  0.1463  0.2515 -0.0940
71813W        W14726  29.809  33.109   0.980  0.1416 -0.0856  0.0068
71814W        W14727  20.296  11.051  22.952  0.0166  0.0061 -0.0625
71815W        W14728  17.510   1.641  25.532  0.0169 -0.1661 -0.1270
71816W        W14729  24.930   0.312  23.395  0.0604 -0.1515  0.1760
71817W        W14730  29.781  16.015  21.748 -0.1462  0.1840  0.4733
71818W        W14731  13.313  16.551  21.697 -0.2313 -0.1550 -0.2217
71819W        W14732  19.778  14.494  27.549 -0.2020 -0.3721 -0.0177
71820W        W14733  14.142   6.510  26.688 -0.0222  0.0445 -0.0179
71821W        W14734  21.208  12.676  20.425  0.1646 -0.3859 -0.2542
71822W        W14735  18.437  14.394  25.036 -0.0102 -0.1004  0.1893
71823W        W14736  26.436   6.097  15.775 -0.0511 -0.2053 -0.0161
71824W        W14737   5.900  10.457  28.728 -0.2665 -0.0704  0.1725
71825W        W14738   7.868  34.328  24.500  0.2405 -0.2131  0.0355
71826W        W14739  28.024   4.748  23.068 -0.1063 -0.0850 -0.0589
71827W        W14740  17.466   3.393  25.298 -0.1592  0.0093  0.1433
71828W        W14741  17.388  29.180   0.167 -0.0453  0.0594 -0.2352
71829W        W14742  24.133  13.398  20.596 -0.1852  0.0123  0.0343
71830W        W14743  16.593   4.772   5.391  0.0815  0.0491  0.1587
71831W        W14744  22.900   6.609  14.231  0.1224 -0.2755 -0.1841
71832W        W14745  10.989  10.573  17.135 -0.3224 -0.1079  0.0898
71833W        W14746  21.354  31.835  28.060 -0.4568  0.0734 -0.1219
71834W        W14747  21.432   7.031  22.890  0.1159  0.3125 -0.1180
71835W        W14748  25.024  11.484   6.788  0.1731  0.0128 -0.0193
71836W        W14749  19.274  12.052  24.349  0.0661  0.0111 -0.0986
71837W        W14750   4.222  16.533  25.802 -0.0627 -0.2695  0.2665
71838W        W14751  20.757  14.936  13.020 -0.0762  0.0271 -0.0555
71839W        W14752  10.116   9.079  20.417 -0.2834  0.1445 -0.2054
71840W        W14753  11.685  13.532  23.229  0.0027  0.0369  0.2058
71841W        W14754  10.380   6.757  27.809 -0.0764 -0.4802  0.0453
71842W        W14755  21.521  10.686  16.900  0.3951  0.0356 -0.0003
71843W        W14756  19.802   7.253  15.044 -0.0783  0.1516 -0.0874
71844W        W14757  12.913   9.903  18.246 -0.0298 -0.0839 -0.0252
71845W        W14758  18.649   6.095  19.653  0.0861 -0.2891 -0.3260
71846W        W14759  23.148  16.572  22.802  0.0565 -0.1167  0.1043
71847W        W14760  30.158  13.947  25.932 -0.1164 -0.0330 -0.0054
71848W        W14761  23.225   9.834  26.713  0.1045 -0.1344  0.3305
71849W        W14762  14.081  17.076  15.193  0.0378 -0.1070  0.0023
71850W        W14763  14.919  14.410  20.778 -0.1096  0.0568 -0.0688
71851W        W14764  21.866  31.415  22.330 -0.3955 -0.3111 -0.1530
71852W        W14765  18.783  15.293  22.047 -0.3425 -0.1511  0.1087
71853W        W14766   9.593  18.144  20.172 -0.1035 -0.0521 -0.3691
71854W        W14767  23.651  34.441  25.010 -0.1440  0.1912 -0.1040
71855W        W14768  28.675  10.998  22.117  0.1025 -0.0268  0.3318
71856W        W14769  20.421  14.931  19.256  0.1015 -0.2531 -0.0399
71857W        W14770  22.554   3.006   0.071 -0.3974 -0.1444  0.0362
71858W        W14771  18.511  32.924  22.788  0.0096 -0.0650  0.0322
71859W        W14772  10.363   8.048  20.591 -0.0390 -0.1825  0.2165
71860W        W14773  28.246   7.217   4.356  0.0435 -0.0331 -0.0745
71861W        W14774  11.876  34.438  22.244  0.2321 -0.4279  0.0884
71862W        W14775  14.999   2.824  24.533 -0.1422 -0.1650 -0.0063
71863W        W14776  22.948   7.425  14.846 -0.4971  0.2175  0.2248
71864W        W14777  29.831   8.375   4.124  0.0929 -0.3318 -0.2485
71865W        W14778  22.118  12.359  19.102 -0.2025 -0.0079 -0.1138
71866W        W14779  22.578  10.575   1.316 -0.1283 -0.0111  0.3452
71867W        W14780  27.333  15.798   1.400 -0.0437  0.0242 -0.2278
71868W        W14781  13.871   6.754  25.643 -0.0590 -0.1793 -0.2649
71869W        W14782  20.058  11.446  26.331 -0.0590 -0.1807 -0.2334
71870W        W14783  18.319   8.404  15.307 -0.1647 -0.0735 -0.4056
71871W        W14784   7.667   8.903   1.641 -0.2358  0.1502 -0.1552
71872W        W14785   6.955  12.309   0.935 -0.1829  0.0513  0.0079
71873W        W14786  18.748   3.430  28.501 -0.0143  0.1545 -0.0867
71874W        W14787  17.943  10.993  21.802 -0.1444  0.1388 -0.0532
71875W        W14788  29.899  15.476  28.053 -0.0680  0.1318  0.3980
71876W        W14789   4.583  27.939  18.902  0.1852  0.4031 -0.0784
71877W        W14790  10.232  13.800   4.148 -0.0763 -0.0767 -0.5093
71878W        W14791  11.474  11.315   1.236  0.1057  0.0031  0.1645
71879W        W14792  18.752  14.557  26.051  0.0111  0.1615 -0.0268
71880W        W14793  23.649   6.514  25.529 -0.1711  0.2058  0.0021
71881W        W14794  20.034  12.406  24.187 -0.0586  0.2426  0.0530
71882W        W14795  17.720   0.752  16.454  0.2706 -0.4143  0.1517
71883W        W14796   9.402  17.749  12.661  0.0861 -0.2158  0.0223
71884W        W14797  10.250   5.985  18.932  0.2123 -0.4943  0.1381
71885W        W14798  34.204  31.489  26.962  0.3361  0.0493  0.2218
71886W        W14799  15.121   3.365   2.997 -0.0354  0.2511 -0.3726
71887W        W14800  11.499  12.709  21.402  0.0400 -0.0219  0.2749
71888W        W14801  17.518   1.092  25.436 -0.0432  0.2499 -0.2341
71889W        W14802  14.049   4.739  23.748 -0.2117  0.2871  0.1604
71890W        W14803  18.204  14.077  24.117 -0.2699  0.1184 -0.3182
71891W        W14804  10.912  31.583  19.344 -0.1271  0.1672 -0.0197
71892W        W14805  15.315   8.341  23.971 -0.1943 -0.3637 -0.3988
71893W        W14806  10.064  18.307  16.310 -0.0847  0.0768 -0.0194
71894W        W14807   6.910   4.481  20.242 -0.2141  0.4033 -0.0333
71895W        W14808  21.725   9.831  14.313  0.0366 -0.0988 -0.2370
71896W        W14809   9.414   8.327   0.818 -0.1101 -0.1066  0.2095
71897W        W14810  22.621   3.660  26.783 -0.0742  0.0173 -0.2613
71898W        W14811  12.903   3.193  17.444  0.0195 -0.0203  0.2335
71899W        W14812  14.943   0.416  18.687 -0.0041 -0.1482 -0.1313
71900W        W14813  34.107   3.865  19.068 -0.3119 -0.1350  0.1068
71901W        W14814  19.962   9.687   3.255 -0.2476 -0.0716 -0.0049
71902W        W14815  12.658  13.838  24.099  0.0754 -0.1602 -0.0687
71903W        W14816  23.481   8.368  23.903  0.1559 -0.0305 -0.2389
71904W        W14817  25.021   7.891   1.888 -0.1696 -0.3627 -0.0396
71905W        W14818  26.252  28.528  21.588  0.0546  0.0217  0.0417
71906W        W14819  19.273   2.585  14.700  0.1589  0.0263 -0.1959
71907W        W14820  17.937   9.304  20.837 -0.0122  0.1952  0.0724
71908W        W14821  19.205   0.387  24.824  0.3775 -0.0220  0.0161
71909W        W14822  16.451   4.223  19.664 -0.0429  0.0660  0.3072
71910W        W14823  23.030  15.368  29.272 -0.0515 -0.3119  0.1434
71911W        W14824  13.592   7.397  26.240 -0.0277 -0.0769  0.0852
71912W        W14825  12.596   0.413  18.344 -0.1461  0.0394  0.0112
71913W        W14826  11.388  10.558  18.604  0.1205 -0.3259  0.2144
71914W        W14827  17.390  13.074  22.621 -0.0516  0.1139 -0.3233
71915W        W14828  21.997   6.331  16.984  0.0078 -0.1634  0.0521
71916W        W14829  13.208   1.411  21.174  0.0755  0.1261  0.0016
71917W        W14830  23.537   9.218  20.801 -0.2456  0.1179 -0.2995
71918W        W14831  13.504  31.717  20.502 -0.1351 -0.1810  0.0565
71919W        W14832  12.131  22.555  27.874 -0.0652 -0.0175  0.3209
71920W        W14833   5.630  11.805  15.896 -0.0154  0.1294  0.2146
71921W        W14834  17.806   8.722  20.018  0.2310  0.0048 -0.3263
71922W        W14835  14.469   6.669  17.262 -0.0949 -0.2209 -0.2226
71923W        W14836  18.050   8.248  23.561 -0.0403 -0.3643 -0.0553
71924W        W14837  22.263  15.083   1.954  0.2137 -0.0413  0.0266
71925W        W14838  20.148   3.691  17.913  0.1231 -0.2035  0.0622
71926W        W14839  15.812  13.173  17.447  0.0203  0.0953 -0.0092
71927W        W14840  12.239  12.810  14.765  0.1240  0.1944  0.1058
71928W        W14841  25.345   9.171  15.276  0.1805  0.3252  0.0408
71929W        W14842   0.740  11.362  21.220 -0.4346 -0.1058  0.0735
71930W        W14843  17.561   2.232  27.592 -0.0862  0.1621 -0.0937
71931W        W14844  17.057  33.947   3.702  0.0897 -0.3066 -0.2466
71932W        W14845  19.356   2.868  20.962  0.1502  0.1118 -0.1388
71933W        W14846  32.125  17.702  22.531  0.1788 -0.1073 -0.0177
71934W        W14847   7.543  27.213  22.592  0.5484  0.3116  0.0526
71935W        W14848  29.102   8.674  17.703 -0.0614 -0.3445 -0.2316
71936W        W14849   3.442   2.370  21.002 -0.3353 -0.1787 -0.0370
71937W        W14850  12.292   8.087  25.875 -0.0803 -0.0188 -0.3964
71938W        W14851   6.704   3.120  29.145 -0.1883 -0.0507  0.1627
71939W        W14852  23.693   1.916  24.953 -0.1113  0.1535  0.2061
71940W        W14853  21.865   7.404   7.659 -0.1673  0.2997 -0.3284
71941W        W14854  14.442  11.161  27.381  0.3460  0.3369  0.2842
71942W        W14855  21.330  21.526  17.697 -0.1307 -0.0520  0.0326
71943W        W14856  18.020  12.602  14.858 -0.1179 -0.0749 -0.5877
71944W        W14857  24.993   6.819  26.520  0.0617  0.1620  0.1574
71945W        W14858  19.792  32.799  22.372  0.0282  0.0973 -0.0516
71946W        W14859  29.600   4.583  15.886 -0.0019 -0.0280 -0.4651
71947W        W14860   8.664   2.467  11.087  0.1266 -0.0030  0.1888
71948W        W14861  20.787   3.066  21.542  0.1292 -0.1730 -0.1090
71949W        W14862  16.241  29.621  15.170  0.2569  0.4070  0.2472
71950W        W14863  25.578   7.427   5.608 -0.0919  0.1631 -0.0812
71951W        W14864  19.030   5.994  28.965 -0.1015  0.0719  0.1147
71952W        W14865  18.394   4.399  24.249 -0.1876  0.1968  0.2862
71953W        W14866  20.491   0.466  23.912 -0.0571  0.1793 -0.4383
71954W        W14867  19.188   1.683   9.168  0.2541 -0.0939  0.2481
71955W        W14868  11.756  11.783  17.581 -0.1541  0.0534  0.0997
71956W        W14869  14.156   7.197  18.606 -0.1270  0.2532 -0.1165
71957W        W14870  23.251   6.330  19.673  0.2376  0.2545 -0.3182
71958W        W14871  16.741   9.132  22.062 -0.1312 -0.0273  0.3451
71959W        W14872  10.778  17.512  17.498 -0.2361  0.1362 -0.1435
71960W        W14873   9.245  20.527  18.989 -0.1051  0.2931  0.1483
71961W        W14874  13.053   6.898   3.091  0.2265 -0.1783  0.1317
71962W        W14875  16.918   5.045   4.157  0.1120 -0.2064 -0.1809
71963W        W14876  13.267   4.754   2.413 -0.2479 -0.1161  0.0957
71964W        W14877  13.744  17.029   4.306 -0.2028  0.3047 -0.0058
71965W        W14878  19.150  34.164  24.484 -0.0459  0.1840  0.7955
71966W        W14879  25.723  33.561  22.324  0.1000 -0.1666  0.1976
71967W        W14880  15.196   7.583  21.918  0.1055  0.1781  0.0710
71968W        W14881  11.414   8.571  18.083  0.0905  0.0477 -0.1345
71969W        W14882   3.509   2.453  17.292  0.2508 -0.0236  0.0715
71970W        W14883  26.230  13.376  18.795 -0.0216 -0.0669 -0.1164
71971W        W14884  10.614   4.533  23.229  0.3119 -0.3618 -0.0930
71972W        W14885  10.212  21.584  20.947  0.2380  0.2951 -0.2743
71973W        W14886   8.292  10.835   6.206 -0.1359  0.2597  0.0613
71974W        W14887  17.759  29.803  23.532  0.2085  0.0144  0.0053
71975W        W14888  19.450  30.734  21.132  0.0419  0.3761  0.1366
71976W        W14889  12.769   0.894  28.156  0.1515  0.0334  0.0010
71977W        W14890  23.100  16.649  20.071  0.0717 -0.2013  0.0153
71978W        W14891  21.399  29.459  27.837  0.2178  0.2202 -0.1246
71979W        W14892  10.687   7.272  26.120  0.0087 -0.1380 -0.3743
71980W        W14893  21.544   8.293  26.140  0.3520  0.0162 -0.2053
71981W        W14894  15.856  12.212  22.089 -0.2500  0.2582 -0.4146
71982W        W14895   7.650  11.769  22.075  0.2101  0.1193 -0.0871
71983W        W14896  11.747  14.301  19.580  0.0637  0.0511  0.0059
71984W        W14897  14.526  12.017  29.603 -0.2464  0.0098 -0.3700
71985W        W14898  14.749   5.652  27.608  0.0529  0.0063 -0.2111
71986W        W14899  22.860  18.873  25.454  0.1658  0.1254 -0.0444
71987W        W14900   9.655  21.822  25.278  0.0552  0.2304  0.0277
71988W        W14901  10.694   0.786  23.304 -0.3786  0.0030  0.2191
71989W        W14902  19.720   8.382  17.531  0.2796 -0.1157  0.2159
71990W        W14903  18.173   1.332  26.543 -0.0166 -0.3575  0.1558
71991W        W14904  16.903  31.950  16.749 -0.0564  0.0567 -0.2762
71992W        W14905  21.154   7.919  24.189 -0.1881 -0.0302 -0.2176
71993W        W14906   2.818  30.824  27.703 -0.2721  0.0210 -0.0734
71994W        W14907  27.724  14.578   0.078 -0.2306 -0.0814 -0.3962
71995W        W14908  21.092  10.936  26.444 -0.2398 -0.1321  0.2416
71996W        W14909   4.175  31.313  18.023 -0.1459  0.2861  0.0703
71997W        W14910  20.012  31.080  16.650  0.1144  0.2148  0.0460
71998W        W14911  23.205  14.172  17.975  0.1024  0.1408 -0.0841
71999W        W14912  11.167  17.172  14.920  0.0898 -0.3081  0.0892
72000W        W14913  11.733  32.562  17.887 -0.2325 -0.2722  0.2074
72001W        W14914  22.127  11.202  14.115 -0.1398  0.0250 -0.2641
72002W        W14915  25.397   1.344  24.119  0.2313 -0.0646  0.1579
72003W        W14916  16.386   2.519   0.414  0.0200  0.0287  0.1436
72004W        W14917  25.133  17.610  22.463 -0.0071 -0.1424 -0.0868
72005W        W14918  26.263  18.837  23.828 -0.1940 -0.3199 -0.1316
72006W        W14919  20.877  14.743  13.843  0.2322 -0.3068 -0.1210
72007W        W14920  15.536  10.564  20.166  0.1045  0.2107 -0.1547
72008W        W14921   5.513   2.853  25.578 -0.6989 -0.3415 -0.0048
72009W        W14922   9.134   5.310  26.921  0.0707  0.1140 -0.0422
72010W        W14923   4.430   0.297  21.320 -0.0033  0.1443  0.0050
72011W        W14924  16.671  10.768  25.164 -0.1275 -0.3611  0.6813
72012W        W14925  10.750   6.209   1.606  0.0155  0.0776 -0.0727
72013W        W14926  23.958  12.123  19.931 -0.1408  0.0339  0.0208
72014W        W14927  17.265   5.436  24.117  0.1480 -0.1786  0.1831
72015W        W14928  13.882   7.484  20.005  0.2986  0.1126  0.1863
72016W        W14929  12.369  18.446  18.102  0.4938 -0.0326 -0.0801
72017W        W14930  10.541   3.758  22.324 -0.2293  0.3126  0.1626
72018W        W14931  19.464  10.611  27.977  0.0805 -0.1520  0.0191
72019W        W14932  18.119  31.158   1.401  0.1238  0.1136  0.0343
72020W        W14933  22.298  10.135   2.951  0.0694 -0.3017 -0.0286
72021W        W14934  20.453   3.441  29.312  0.0122 -0.2496  0.0388
72022W        W14935   9.132   7.164  27.525 -0.3200  0.2517  0.0794
72023W        W14936  11.950   6.616   1.614  0.2448 -0.0635  0.0162
72024W        W14937  13.588  32.458  20.959 -0.2482  0.0094  0.3856
72025W        W14938  22.624   3.922  21.406  0.0275 -0.0752  0.1108
72026W        W14939   8.294  10.915  24.104 -0.1191  0.2826  0.0350
72027W        W14940  18.371  33.094  23.288 -0.1570 -0.2886 -0.2275
72028W        W14941  20.144  12.303   0.143  0.2366  0.0256  0.2370
72029W        W14942  11.251  14.520  19.239 -0.1551 -0.0200  0.0072
72030W        W14943  18.831   4.163  18.245  0.2480 -0.2137  0.0203
72031W        W14944   8.763  12.000  25.752  0.0738  0.0981  0.1480
72032W        W14945  24.992  10.736  20.682  0.1284  0.0665  0.1755
72033W        W14946  18.709   5.084   3.781 -0.3293 -0.2906 -0.3442
72034W        W14947  13.254  10.761  22.407 -0.0160 -0.5908  0.0528
72035W        W14948  20.016   4.606  23.943 -0.2686  0.1747  0.0762
72036W        W14949  20.474  14.491  24.997 -0.1169 -0.0871 -0.0804
72037W        W14950  13.154  13.100   1.347  0.2245 -0.3165 -0.1736
72038W        W14951  26.962  13.230  27.668  0.1469  0.2232  0.0550
72039W        W14952  20.410  12.490  27.312 -0.0764 -0.2714  0.2326
72040W        W14953  20.115   8.492  27.266 -0.0370  0.0694 -0.0956
72041W        W14954  17.504  13.151  24.861 -0.4109 -0.0349  0.2348
72042W        W14955   3.750  12.268  24.637  0.1166 -0.2614 -0.1864
72043W        W14956  25.130  12.993   3.283 -0.0266  0.1440  0.1903
72044W        W14957  17.656   2.817  28.193 -0.1802 -0.0755 -0.0687
72045W        W14958  18.708  32.718  28.855  0.2973  0.1106  0.1173
72046W        W14959  14.162   5.133  27.697 -0.1321 -0.1714 -0.0033
72047W        W14960  10.085  19.915  16.456 -0.0685  0.2242 -0.1336
72048W        W14961  20.204   7.330   8.174 -0.0444  0.2753 -0.2312
72049W        W14962  16.991   3.558  29.600 -0.0372 -0.0214 -0.3253
72050W        W14963  22.885   7.694  17.355  0.0163 -0.2939 -0.1606
72051W        W14964  23.000   8.234  28.812 -0.2513  0.0990 -0.0030
72052W        W14965  15.135  15.687  28.137  0.1013 -0.1350  0.0357
72053W        W14966  23.280  13.383  22.322  0.0735  0.2513  0.1256
72054W        W14967  14.357  28.868   4.334 -0.0050  0.2554  0.0249
72055W        W14968  13.473  29.873  23.883  0.1240 -0.1030  0.1940
72056W        W14969  20.840   0.838   0.415 -0.1689 -0.1497  0.0552
72057W        W14970  11.007   2.941   6.672  0.1079 -0.1411 -0.0436
72058W        W14971  25.153  10.817  23.999  0.1752 -0.4823 -0.1528
72059W        W14972  22.468   8.718   4.832  0.0413  0.1093  0.1190
72060W        W14973  11.854   3.126  16.635 -0.1650 -0.1022 -0.1898
72061W        W14974  11.682   7.800  26.217  0.0095 -0.1256 -0.2014
72062W        W14975  21.188  10.500  19.140 -0.2819 -0.0406 -0.0379
72063W        W14976   4.222   6.646  27.170  0.3170  0.5043  0.1051
72064W        W14977  29.231  15.863  24.837  0.1241  0.0355  0.0670
72065W        W14978  15.248   2.988   0.299 -0.0554 -0.2655 -0.3201
72066W        W14979  14.715   5.921  26.726 -0.1765 -0.0983 -0.0485
72067W        W14980  26.048  27.752   0.000  0.0681  0.1002 -0.3570
72068W        W14981  13.275  33.640  29.070  0.1747 -0.1436 -0.1527
72069W        W14982  21.575   9.787  26.929  0.0368 -0.1030 -0.2795
72070W        W14983  15.298  16.802   0.257 -0.0268  0.1534 -0.0447
72071W        W14984  14.597  13.666  21.436 -0.1193 -0.0664  0.0833
72072W        W14985  18.898  12.755   3.271  0.0351  0.1292  0.3244
72073W        W14986  16.513   4.613   2.448  0.3460 -0.5024  0.2548
72074W        W14987  31.840  11.891  26.348 -0.1151  0.1084 -0.1583
72075W        W14988  13.268  33.044   2.602  0.0464  0.2196  0.0687
72076W        W14989  21.601   9.786   2.451 -0.1676  0.0460  0.1949
72077W        W14990  14.336   7.141  28.567 -0.1542  0.0457 -0.0342
72078W        W14991  17.398  12.698  24.634  0.0087 -0.1863 -0.1533
72079W        W14992  10.879  10.760  23.474 -0.0607 -0.2627 -0.3178
72080W        W14993  30.102  13.273  27.259  0.2633  0.0871 -0.2004
72081W        W14994  15.227   8.081  24.812 -0.1201 -0.1009  0.0898
72082W        W14995  26.057   0.710   8.212 -0.0408  0.1336 -0.0849
72083W        W14996  19.772   1.465   2.303 -0.0045 -0.2227 -0.0034
72084W        W14997   7.665   1.172  23.776  0.1417 -0.0650 -0.2099
72085W        W14998  22.519  17.840   4.336 -0.0666 -0.2234 -0.3710
72086W        W14999  13.643   7.032  21.285 -0.1227  0.1542  0.1336
72087W        W15000   6.558   5.770  25.662  0.1053 -0.1013 -0.2948
72088W        W15001   1.421  12.069  22.137 -0.1997 -0.0431  0.1177
72089W        W15002  20.647   5.094   0.314 -0.1049  0.1325 -0.1129
72090W        W15003  12.618   3.027  19.971 -0.1155  0.1696 -0.0373
72091W        W15004  20.419   2.847   9.725 -0.1539 -0.1353  0.0309
72092W        W15005  11.679  33.230   4.687 -0.2197  0.1543 -0.1985
72093W        W15006  25.464  16.323   3.563 -0.0865 -0.1194  0.0713
72094W        W15007  23.963   6.722  22.066 -0.0661  0.0108 -0.0941
72095W        W15008  33.657  16.521  27.346  0.1692  0.1942  0.2463
72096W        W15009  22.905   4.107  26.546  0.2462 -0.1582  0.0077
72097W        W15010  20.391   5.892   5.716 -0.2661 -0.2750 -0.1696
72098W        W15011   8.175   5.834  20.574  0.2679 -0.0527 -0.1034
72099W        W15012  10.854  11.349  29.089 -0.1095  0.2707 -0.0696
72100W        W15013  28.375  19.747  18.200 -0.2505 -0.4413 -0.2130
72101W        W15014  18.373  15.106  28.814  0.0105  0.0709 -0.0164
72102W        W15015  15.245   3.661  24.983 -0.1290  0.0861  0.0138
72103W        W15016  27.290  15.662   8.162  0.3181 -0.2801 -0.5427
72104W        W15017   7.736   8.491   8.701 -0.0883  0.1704  0.0661
72105W        W15018  18.448   3.461   5.221  0.2568  0.0383  0.3456
72106W        W15019   9.853  15.433  14.382 -0.1544  0.2297 -0.1808
72107W        W15020  14.612   8.959   1.454 -0.1842  0.1445 -0.2351
72108W        W15021  18.797  18.308  26.785  0.2672  0.1430 -0.0152
72109W        W15022  15.473   9.663  29.276  0.0161  0.1161 -0.0837
72110W        W15023   4.456  12.846   2.003 -0.0060 -0.0312 -0.1595
72111W        W15024   9.929  17.662   2.073  0.0105 -0.3673 -0.2460
72112W        W15025  28.477   0.418   2.975  0.0425  0.0816 -0.0854
72113W        W15026   6.716  32.200  10.641  0.2472  0.0967 -0.0467
72114W        W15027  11.591   9.413  28.611 -0.2451  0.0651  0.1510
72115W        W15028  19.461   2.101   2.112  0.2469 -0.2561 -0.3007
72116W        W15029   7.819  33.983   5.448  0.0902 -0.1069  0.3090
72117W        W15030  18.180  31.879  28.690  0.1962 -0.0961 -0.4505
72118W        W15031   6.076   3.110   0.191  0.3542  0.0347  0.0492
72119W        W15032  16.241  22.049   6.205 -0.0999 -0.2409 -0.1953
72120W        W15033  15.195  32.599  24.467 -0.0961  0.0727 -0.2186
72121W        W15034   2.528   6.892  25.204 -0.5335 -0.0656 -0.0862
72122W        W15035  20.817  20.136  15.026 -0.3446 -0.0513  0.2595
72123W        W15036  11.856   7.333  29.657 -0.0054  0.0052  0.1032
72124W        W15037  19.813  12.747  22.064  0.1977  0.1576 -0.0536
72125W        W15038  19.286   8.407  28.381 -0.0169 -0.0617  0.2882
72126W        W15039   7.343   5.486  22.772 -0.1072  0.0156 -0.0327
72127W        W15040   0.653  16.603   4.641  0.0322  0.2565  0.1626
72128W        W15041  12.494  32.526  29.431 -0.3219  0.2456  0.2590
72129W        W15042  11.172  29.153  25.393 -0.1549 -0.2051  0.0230
72130W        W15043  11.446   8.134  27.889  0.2279  0.3492  0.3699
72131W        W15044  19.466  19.105  20.958 -0.1176  0.0282  0.5236
72132W        W15045  16.359  19.107   3.361 -0.0099 -0.1779 -0.3287
72133W        W15046  13.300   0.282   0.817 -0.0837  0.0965  0.1263
72134W        W15047  12.094  11.526  28.192  0.0502  0.4594 -0.0963
72135W        W15048  17.665   9.007  27.371 -0.0462 -0.0304 -0.1198
72136W        W15049  18.429   3.930  21.708 -0.0891 -0.0290  0.0653
72137W        W15050  20.942   4.513  18.858  0.2034  0.2035  0.1315
72138W        W15051  15.262  10.218  26.574 -0.2740 -0.1516  0.1794
72139W        W15052  21.894   9.747   4.815  0.1302  0.0917 -0.0117
72140W        W15053   6.355   0.349   8.090  0.0343 -0.0489 -0.1054
72141W        W15054  10.795  11.887   1.990  0.0458  0.1043 -0.1598
72142W        W15055  11.269   2.862  26.869 -0.0217 -0.2969 -0.0594
72143W        W15056  13.942   9.764  29.776  0.0790  0.1750  0.4628
72144W        W15057  21.231  11.045   6.545  0.1010  0.1579 -0.1521
72145W        W15058  18.909  14.806  21.630 -0.0595 -0.0023 -0.0455
72146W        W15059  20.725   5.453  15.916  0.2441  0.2105  0.2218
72147W        W15060  20.258   8.814  19.965  0.2080  0.2020  0.1348
72148W        W15061  22.932   4.878   3.490 -0.2300 -0.0828 -0.2427
72149W        W15062  18.480   0.488  10.095  0.0088  0.0860 -0.0502
72150W        W15063  34.348  10.556   3.014  0.1924 -0.0561 -0.4713
72151W        W15064  17.168   0.573  28.824 -0.3801  0.1114 -0.1323
72152W        W15065  11.923  27.142   2.183  0.3437  0.1053  0.0277
72153W        W15066   6.862   2.669   0.052  0.0659 -0.0723  0.1781
72154W        W15067   7.917  12.271  20.417  0.1058 -0.0947  0.0241
72155W        W15068   7.921  28.016  24.079  0.2841 -0.0734 -0.1487
72156W        W15069  18.107   2.991  21.740  0.1547  0.1311 -0.0566
72157W        W15070   4.270  11.507  10.185  0.0181 -0.1126  0.0522
72158W        W15071  19.332   6.065  25.463 -0.0860  0.3963 -0.0280
72159W        W15072   5.898  20.622  23.134 -0.0422 -0.0626  0.2304
72160W        W15073  19.755   8.444  24.088  0.1556  0.2785  0.1639
72161W        W15074  18.544   0.579  28.772  0.1702  0.1742  0.4668
72162W        W15075  20.847  11.857  17.088 -0.2714  0.1822 -0.0412
72163W        W15076  10.438   3.865  25.668 -0.1380  0.1803  0.1573
72164W        W15077  24.411  33.490  27.157  0.0833 -0.0463 -0.0792
72165W        W15078  14.262  32.379  25.341  0.3087 -0.3065 -0.1720
72166W        W15079   7.578   3.813  23.136 -0.0735  0.2539  0.4084
72167W        W15080   6.068  13.168  26.088 -0.0371 -0.3763  0.1448
72168W        W15081  15.041  10.842   1.711  0.1281  0.1774  0.2115
72169W        W15082  14.361  12.291  23.640  0.0296 -0.0448  0.0552
72170W        W15083  11.979   7.410   5.214 -0.0288 -0.0622  0.1746
72171W        W15084   4.459   1.708   3.707  0.0945  0.1302 -0.2375
72172W        W15085  17.566   3.467  18.200 -0.2430 -0.2596 -0.0774
72173W        W15086  30.488   8.215  29.153 -0.0747  0.3815  0.3282
72174W        W15087  17.319  11.191  20.073  0.0043 -0.1351  0.0829
72175W        W15088  17.744  11.743  19.425 -0.0139 -0.1523 -0.2596
72176W        W15089  15.684   3.419   8.459  0.0738 -0.1933 -0.0002
72177W        W15090  17.359  30.993  22.242 -0.1700  0.2468 -0.2661
72178W        W15091  21.904  11.891  23.968 -0.1031 -0.1895 -0.0698
72179W        W15092  21.923   8.075   1.044  0.2882 -0.1897 -0.3252
72180W        W15093  17.195  16.169   7.795 -0.1964  0.1407 -0.0256
72181W        W15094  13.480   3.211  28.502 -0.0952  0.0023 -0.1983
72182W        W15095  18.448   7.602   3.572 -0.0203 -0.0755 -0.1057
72183W        W15096  21.926   5.346   1.314  0.2201 -0.0595  0.1678
72184W        W15097  19.202  31.575   1.873 -0.1468  0.3971 -0.2930
72185W        W15098  14.887   6.408  15.491 -0.0653 -0.5784 -0.2996
72186W        W15099  13.911   0.368   4.514  0.0598 -0.0474  0.0820
72187W        W15100  24.042   7.062  23.923  0.0040  0.1232  0.0966
72188W        W15101  17.517   1.883   5.886 -0.0459  0.0039  0.0280
72189W        W15102  26.187   2.178  21.530  0.1501 -0.0952  0.5250
72190W        W15103  11.841   2.961   2.908 -0.3299 -0.0112 -0.1451
72191W        W15104   0.331  13.008   4.346 -0.0768 -0.2771  0.0945
72192W        W15105   8.501   1.645   5.671 -0.2627  0.3665 -0.2241
72193W        W15106  24.598  10.449   8.023  0.0178  0.1004 -0.2616
72194W        W15107  21.478  10.612  14.557 -0.0781  0.1926  0.1294
72195W        W15108  10.318   2.735   6.367 -0.1624 -0.1199 -0.0650
72196W        W15109  21.560  12.481  20.743 -0.1773 -0.0666  0.0277
72197W        W15110   5.686   4.471  10.434 -0.2061  0.2139  0.1441
72198W        W15111  12.105  28.969  25.557  0.0362  0.0740  0.3753
72199W        W15112  13.872  15.564  22.074  0.0273 -0.1302 -0.2061
72200W        W15113  22.133  14.867   3.335 -0.2366  0.3088 -0.0574
72201W        W15114   4.668   5.698  19.883  0.0063 -0.0856 -0.1609
72202W        W15115  10.348   9.153   1.183 -0.0836 -0.0616  0.2272
72203W        W15116  23.316   7.054  22.282  0.1049 -0.2846 -0.1223
72204W        W15117  23.447  17.808   1.009 -0.3177  0.1387  0.0366
72205W        W15118  18.273  10.956  26.959  0.3886  0.0748  0.2745
72206W        W15119  10.710   9.732   4.015 -0.1525 -0.1218  0.1467
72207W        W15120  12.627   7.780  28.366  0.0084 -0.2800 -0.0467
72208W        W15121  32.431   1.219  26.265 -0.3100  0.0542  0.1168
72209W        W15122   6.698   4.876  26.105  0.0148 -0.0347 -0.2321
72210W        W15123  21.248   6.615   2.689 -0.1556 -0.1084 -0.0217
72211W        W15124  17.307  13.621  25.060  0.0154 -0.0040  0.0955
72212W        W15125  15.432   1.623  22.433  0.1994  0.0461  0.0265
72213W        W15126   7.213  32.558  29.479 -0.0364  0.0941 -0.1535
72214W        W15127  19.166  14.109  24.397 -0.0168 -0.1880  0.4138
72215W        W15128  20.993  33.353   1.060  0.1862 -0.0463  0.0598
72216W        W15129  10.893   1.641   4.708  0.1193 -0.0388  0.0690
72217W        W15130  13.900  13.331  28.876 -0.1544  0.0457  0.2832
72218W        W15131  11.785   8.388  27.123 -0.0985 -0.1015 -0.0081
72219W        W15132  18.352   5.361  20.757 -0.0658  0.0640 -0.1108
72220W        W15133  19.548   4.658   1.480  0.0876  0.1482 -0.0377
72221W        W15134  13.799   3.396  16.534 -0.0424  0.1225  0.2615
72222W        W15135  12.815  10.440  22.568  0.0109  0.0239  0.0385
72223W        W15136  16.466  11.659  21.646  0.4603  0.1932  0.0001
72224W        W15137  17.782  12.265   5.232 -0.0398  0.0791  0.0497
72225W        W15138  13.131   3.929  27.064  0.0750 -0.2089  0.0021
72226W        W15139  17.169  14.104  13.555 -0.0339  0.1475  0.0411
72227W        W15140  13.763  19.816  25.846  0.0746 -0.2720  0.0807
72228W        W15141  19.508  34.389  19.597 -0.1033 -0.1123  0.2495
72229W        W15142  11.756  14.921   3.286  0.0636 -0.0266 -0.0853
72230W        W15143  12.516  10.188   4.437  0.2872 -0.0526 -0.0421
72231W        W15144  22.084   4.248  20.024  0.0188  0.1862 -0.1548
72232W        W15145  14.118  17.815  16.625  0.1001 -0.0260  0.1250
72233W        W15146  20.737   9.068  28.956  0.3891 -0.0340  0.1805
72234W        W15147  15.941   2.331   6.526 -0.0321 -0.0169  0.2455
72235W        W15148  16.080  11.491  18.436  0.1005 -0.1790  0.1385
72236W        W15149  13.512  15.958  20.274 -0.0002  0.2034  0.1571
72237W        W15150  15.281  15.455  25.186 -0.1364  0.1210 -0.0625
72238W        W15151  28.841   9.762  20.963 -0.0062  0.0830 -0.0899
72239W        W15152  16.735   5.407  25.545 -0.1286 -0.1836 -0.2185
72240W        W15153   2.274  12.481   7.439 -0.1990 -0.1194  0.1176
72241W        W15154  12.138   7.729   3.020 -0.1326  0.0503  0.0454
72242W        W15155  20.429   1.178  17.412 -0.0927  0.2567  0.0472
72243W        W15156  18.397   8.903   6.134  0.1952 -0.0943  0.3372
72244W        W15157  12.248   5.050   2.586  0.1764  0.1775 -0.0593
72245W        W15158  11.967  11.878  27.028 -0.3523  0.1097  0.4157
72246W        W15159  12.970  18.242  23.736  0.2259 -0.0093 -0.0110
72247W        W15160  17.407   6.229   1.181 -0.4128 -0.0986 -0.4403
72248W        W15161  24.896  16.239   2.613  0.0722 -0.0216  0.1818
72249W        W15162   8.640   7.181  29.239 -0.2386 -0.0621  0.2336
72250W        W15163  20.563  12.094   5.722 -0.0007 -0.0181 -0.1521
72251W        W15164  13.525  13.079  27.285  0.3525  0.0855 -0.1039
72252W        W15165  17.724   7.301  24.057  0.0299  0.0140 -0.3636
72253W        W15166  12.869  14.845  28.362 -0.3313 -0.0455  0.2483
72254W        W15167  23.739  17.603   4.821  0.0174 -0.0592  0.0401
72255W        W15168  15.480  20.562  14.587 -0.0271 -0.0081  0.0495
72256W        W15169  13.315   6.250  21.564  0.0013 -0.0127 -0.4152
72257W        W15170  17.688   9.144   2.613 -0.1997  0.2955  0.1291
72258W        W15171   9.748  14.367  20.329 -0.0933 -0.1276 -0.1245
72259W        W15172   9.067  34.377  29.549  0.0552 -0.0392  0.1021
72260W        W15173   2.111  12.948  26.038 -0.0640 -0.2699  0.1939
72261W        W15174  10.236  32.387   2.791 -0.1653  0.1263  0.0513
72262W        W15175  14.105  18.430   1.447  0.3595  0.0226 -0.0165
72263W        W15176  11.229  10.979  29.219 -0.2253 -0.1341 -0.2153
72264W        W15177  11.747   2.172   3.817  0.0276  0.3270  0.1008
72265W        W15178  27.702   6.966   2.770 -0.0478 -0.0687  0.1735
72266W        W15179  25.408   2.068  29.166  0.1205  0.0223 -0.1991
72267W        W15180   0.341   6.066  28.952 -0.1509 -0.0248  0.1450
72268W        W15181   3.545  32.655   6.075  0.0202  0.1989 -0.0197
72269W        W15182   5.785   1.052  27.016 -0.0436 -0.0474 -0.0396
72270W        W15183  21.575  15.830   2.917  0.0953  0.0408 -0.1177
72271W        W15184  13.173   5.945   3.762 -0.1343  0.0992  0.0792
72272W        W15185   8.027  13.705  15.559  0.4223 -0.1813 -0.0644
72273W        W15186  20.252   2.022   0.047  0.0680 -0.0007 -0.2543
72274W        W15187  19.383   5.794  27.777 -0.0049  0.0730 -0.1449
72275W        W15188  15.847   4.276  23.819  0.0724 -0.1662 -0.2803
72276W        W15189  17.363   4.075   7.036  0.3054  0.0294 -0.3680
72277W        W15190  21.761   7.537  21.249  0.0671  0.1118 -0.4673
72278W        W15191  13.309  32.589   3.665 -0.3220 -0.0292  0.0005
72279W        W15192  21.599   6.067   4.067 -0.3330 -0.2740  0.4406
72280W        W15193  18.588  12.792  18.579  0.2382  0.2127  0.1085
72281W        W15194  16.132  11.488  27.651  0.1255 -0.1649 -0.1610
72282W        W15195   9.852  10.172   0.128 -0.0654  0.0696 -0.1212
72283W        W15196  26.587   5.566  17.194 -0.0090 -0.0196 -0.4898
72284W        W15197  23.277   6.341   4.140 -0.2637 -0.2365 -0.2141
72285W        W15198   0.867  11.117  23.892  0.1174 -0.0453  0.1920
72286W        W15199  18.923   6.055  22.665 -0.2080 -0.2543 -0.1808
72287W        W15200   7.128   7.713   8.311 -0.1441 -0.3963  0.1620
72288W        W15201  10.419  11.482  27.804  0.0610 -0.1238  0.3198
72289W        W15202  12.423   9.033   0.056  0.2076  0.2080 -0.4005
72290W        W15203  19.950   9.642  17.246 -0.0725  0.1425 -0.1816
72291W        W15204  16.988   8.169  17.030 -0.1623 -0.3590 -0.0569
72292W        W15205  19.427  13.185  15.219  0.0668  0.3244  0.1254
72293W        W15206  17.120  11.498  16.752  0.1109 -0.0301 -0.0568
72294W        W15207   9.331   0.765   4.213  0.0292  0.0488 -0.0561
72295W        W15208  19.344  12.940   7.181 -0.0058 -0.3758  0.0292
72296W        W15209  16.509   5.453  16.883 -0.0840 -0.0609 -0.3172
72297W        W15210  25.281  18.857  22.381  0.0996  0.1379  0.2045
72298W        W15211  23.330  11.770  25.668  0.2495  0.5664 -0.2319
72299W        W15212  11.837  25.306  29.414  0.1915 -0.1113 -0.0821
72300W        W15213  14.882   9.611  22.640 -0.1915  0.1834 -0.1415
72301W        W15214   0.804  17.566  23.345  0.1594 -0.1231 -0.1708
72302W        W15215   0.884  34.358  21.118  0.2186  0.0272  0.0540
72303W        W15216  13.700   2.137  19.803 -0.0494  0.1340 -0.1053
72304W        W15217  20.701   5.239  21.633 -0.0388  0.1689  0.1136
72305W        W15218  17.498   5.489  29.747 -0.2756  0.4149  0.0364
72306W        W15219  14.123  11.484   4.099  0.2198  0.0224 -0.2342
72307W        W15220  14.939   6.918   1.396  0.1167 -0.0037 -0.1110
72308W        W15221   0.576  11.556   0.568  0.1597 -0.1128 -0.0252
72309W        W15222  11.997  12.210  18.464 -0.1223 -0.5603  0.0562
72310W        W15223  11.687   8.982  18.801  0.1281 -0.0988 -0.2774
72311W        W15224  19.330   8.325  17.149  0.2209 -0.2995  0.0221
72312W        W15225   8.643  11.532  22.151 -0.0687 -0.0077 -0.0678
72313W        W15226  13.150   0.766  24.655 -0.1474  0.0118  0.0894
72314W        W15227  15.620  27.586   3.708 -0.1333 -0.0111 -0.3004
72315W        W15228  20.438   5.684   2.869  0.0752 -0.2486 -0.0360
72316W        W15229  11.628  13.997  25.351 -0.0374  0.1264 -0.1003
72317W        W15230  19.894  31.077  22.211 -0.1939  0.3802  0.1387
72318W        W15231  13.108  24.447   4.657  0.1271 -0.1780  0.2707
72319W        W15232  10.669  12.069   6.243  0.1996 -0.0949 -0.1320
72320W        W15233  20.965   7.924   3.272  0.0565 -0.1304 -0.0069
72321W        W15234  20.851   7.969  26.532  0.0329 -0.1483 -0.2711
72322W        W15235  18.768   2.600  28.575 -0.0471  0.0120 -0.0612
72323W        W15236  22.548   3.890   2.053  0.0670 -0.1602  0.0873
72324W        W15237  14.838   2.534   3.448 -0.1707 -0.0973  0.1209
72325W        W15238  14.140   1.118   8.833 -0.1231 -0.1306 -0.0430
72326W        W15239   7.228   8.008  21.032  0.0430  0.0400 -0.2023
72327W        W15240  19.059   3.918  27.143 -0.2661  0.1184 -0.3882
72328W        W15241   6.713   8.636   4.062 -0.3361 -0.2377 -0.3539
72329W        W15242  33.229   7.054   2.672  0.1837  0.0189  0.1356
72330W        W15243  13.038   9.718  25.139 -0.0500  0.2131  0.0360
72331W        W15244  14.910   6.217   8.427  0.2268  0.1650  0.0048
72332W        W15245  22.627   1.827   2.703  0.1829  0.1014  0.0493
72333W        W15246  23.747   9.193   7.297 -0.0113  0.0108  0.0135
72334W        W15247  18.974   5.695  16.888 -0.1740  0.4929 -0.1590
72335W        W15248  23.730  10.679  26.424 -0.1235  0.0902 -0.3521
72336W        W15249  17.288  13.421  19.420 -0.0883  0.4139 -0.0850
72337W        W15250  25.136  16.726   0.659 -0.3669  0.0166 -0.1344
72338W        W15251   4.429   8.231   7.880  0.2006 -0.0197  0.0491
72339W        W15252  29.792  20.943  27.829 -0.4030  0.2005  0.1724
72340W        W15253  21.550   2.687  28.001 -0.0336 -0.0600  0.3024
72341W        W15254  14.502  11.612  21.853 -0.0859  0.0694  0.0152
72342W        W15255  30.107   5.368  23.719  0.0466 -0.1680 -0.0656
72343W        W15256  17.381   3.831   7.649 -0.0021 -0.2083  0.2626
72344W        W15257  13.711  12.497  26.453 -0.2475 -0.2145  0.0718
72345W        W15258   0.970  17.775  25.052  0.2146  0.0138 -0.2030
72346W        W15259   9.483   7.797  25.345  0.0139 -0.2643  0.0749
72347W        W15260  10.805   3.025  27.499 -0.2022 -0.0134  0.3530
72348W        W15261  12.841  32.689  28.561 -0.4049  0.3441  0.0549
72349W        W15262   4.570   9.154  28.143 -0.0245 -0.0989 -0.0344
72350W        W15263   4.121   4.099   0.102  0.2610 -0.0395  0.3134
72351W        W15264   7.139  29.429   1.619 -0.0933  0.0256 -0.0392
72352W        W15265  17.682  16.296  27.814 -0.0927 -0.1552  0.3134
72353W        W15266  17.459  33.405  28.508 -0.1377  0.0315  0.0305
72354W        W15267   5.831   2.245   4.044  0.0382  0.3600  0.1448
72355W        W15268  12.580  15.226  24.240 -0.1076  0.0924  0.1682
72356W        W15269   1.747  11.045  10.620 -0.1316 -0.2040 -0.3045
72357W        W15270  21.480   0.027  28.453  0.1812 -0.0718 -0.0315
72358W        W15271  16.671  14.306  24.222 -0.0616 -0.0448  0.1765
72359W        W15272  10.062  18.178  22.497  0.3063 -0.0804 -0.4616
72360W        W15273  10.833   0.084   5.734  0.0740  0.1106 -0.2144
72361W        W15274  20.543  15.628   2.520  0.1493 -0.1578  0.1575
72362W        W15275  13.240  12.042   9.147  0.1155  0.0411  0.1349
72363W        W15276  16.322  19.270   8.109 -0.2278  0.1335 -0.2582
72364W        W15277  16.296   3.681  19.826 -0.3272 -0.6366 -0.1948
72365W        W15278  18.631   9.005  26.360 -0.1736  0.3017  0.2396
72366W        W15279  10.977   7.299  18.258  0.2552  0.1891  0.1871
72367W        W15280  26.724   2.803   1.712 -0.0963 -0.0708  0.4164
72368W        W15281   8.298   9.883  19.678 -0.0130 -0.1400 -0.0037
72369W        W15282  13.845   3.294  22.738 -0.0454  0.0208 -0.0423
72370W        W15283  19.997  10.053   8.928 -0.0383 -0.0585 -0.0173
72371W        W15284  19.556   4.644  23.697  0.1459 -0.1067 -0.0528
72372W        W15285  12.186  32.266  19.643 -0.0976 -0.1315 -0.1422
72373W        W15286  14.667  19.115  29.216 -0.0764 -0.2679  0.1002
72374W        W15287  11.487  10.122  21.107  0.0038  0.2640 -0.0371
72375W        W15288   5.316  11.876  26.524  0.2900  0.2285  0.2269
72376W        W15289  13.691   4.502   2.244  0.0251 -0.2663  0.1496
72377W        W15290  18.016  27.734  20.411  0.0954 -0.0999 -0.2105
72378W        W15291  23.746   9.708   0.994 -0.1948  0.2995  0.2371
72379W        W15292  14.193   2.743  23.738 -0.2866 -0.0852  0.0943
72380W        W15293  13.191   8.380   7.953  0.1264 -0.4143 -0.1212
72381W        W15294  20.880  29.729  25.365 -0.2485 -0.1258 -0.4080
72382W        W15295  11.264   3.676   3.097  0.0400 -0.1095  0.1108
72383W        W15296  14.038   4.812   2.103  0.1879  0.0687  0.0371
72384W        W15297  16.133  11.206  24.080  0.0124  0.3018  0.1439
72385W        W15298  11.167   0.295   0.045  0.0818  0.5808  0.2119
72386W        W15299  15.368  13.442  17.799  0.2282 -0.0284 -0.3033
72387W        W15300  16.692  12.911  19.889  0.0338 -0.1160 -0.0698
72388W        W15301  16.225  14.977  26.093 -0.0505 -0.0584  0.0333
72389W        W15302  17.600  10.662  21.799 -0.0827  0.0988 -0.0011
72390W        W15303  14.548  34.216  25.489  0.0405  0.4021 -0.1216
72391W        W15304   9.342  30.059  21.654 -0.1222  0.1501 -0.1554
72392W        W15305  14.688   2.197  23.368 -0.0179 -0.2432 -0.0878
72393W        W15306   6.419   0.442   2.792 -0.0757 -0.1176 -0.1808
72394W        W15307  17.119  33.223  27.273  0.0913  0.1847  0.0378
72395W        W15308  14.458  13.408  24.432 -0.0598  0.0366 -0.2331
72396W        W15309  14.948   3.708  19.839  0.0260 -0.3296 -0.1510
72397W        W15310  15.764  19.052   5.091 -0.3386 -0.0849 -0.3273
72398W        W15311  15.964   5.129  23.500 -0.1011 -0.1338 -0.1656
72399W        W15312  12.166   5.736  23.334 -0.2833  0.1646  0.2541
72400W        W15313  10.665   6.271  26.200 -0.0454  0.0557 -0.2575
72401W        W15314   9.924   5.986   6.171  0.0867 -0.2019 -0.1168
72402W        W15315  17.537  13.392   4.321 -0.0540  0.0067  0.1760
72403W        W15316   7.144   6.417   1.497 -0.0393  0.3793  0.2424
72404W        W15317  24.002   8.511   1.134 -0.1328 -0.0011  0.0605
72405W        W15318  19.458  17.081  25.814  0.2215  0.2103  0.1674
72406W        W15319  13.005   3.922   0.747  0.1573  0.1572  0.1062
72407W        W15320  18.459  13.878  23.228 -0.0705 -0.2234  0.1034
72408W        W15321  19.913   5.323  18.283 -0.0952 -0.1352  0.1500
72409W        W15322  15.766   8.596   0.402 -0.0488 -0.1158  0.0077
72410W        W15323  20.257   3.910  24.274 -0.0588 -0.1988 -0.0056
72411W        W15324  15.857  17.612   2.611 -0.0046  0.1885  0.1822
72412W        W15325   4.207   2.067   0.622  0.0632 -0.1382  0.0511
72413W        W15326  15.958  10.139  20.423 -0.1324 -0.0159  0.0604
72414W        W15327  28.604   7.038  29.613  0.2263 -0.0447 -0.1293
72415W        W15328  23.936  12.322  28.423  0.4196  0.0213  0.1466
72416W        W15329  26.740   4.841   9.000  0.2038  0.2532 -0.0120
72417W        W15330   6.722   4.050  10.753  0.0404 -0.4433 -0.2673
72418W        W15331  17.219   6.388   5.531 -0.2218 -0.0838  0.1385
72419W        W15332  13.607  16.893  26.981  0.0802 -0.0034 -0.2139
72420W        W15333  18.551   4.567   9.405 -0.0854  0.0436 -0.1381
72421W        W15334  16.023   3.037  24.823 -0.0731 -0.2071  0.3186
72422W        W15335  16.064   9.315  29.642  0.1264  0.1653  0.2573
72423W        W15336  11.611  13.342  24.751 -0.0037  0.0718  0.1614
72424W        W15337   4.431   5.603   6.295 -0.0327 -0.1434 -0.3308
72425W        W15338   9.923  32.660   1.150 -0.0093  0.3349  0.1365
72426W        W15339  17.006  19.202   4.732 -0.0236 -0.0407 -0.1347
72427W        W15340  18.498   0.676  25.712 -0.0548  0.3675  0.1026
72428W        W15341  27.271  18.328   0.953 -0.0956  0.0432  0.3971
72429W        W15342   5.809   9.960  20.666  0.3749 -0.0540 -0.1662
72430W        W15343   2.501  18.957  23.300 -0.1568  0.2138 -0.3454
72431W        W15344  10.993   4.151   3.330 -0.2245 -0.1210  0.4189
72432W        W15345  22.624  11.132   3.578 -0.1926  0.1566  0.0462
72433W        W15346  19.890   6.703   4.220 -0.0867 -0.1740 -0.1024
72434W        W15347  18.993  13.411   1.766  0.0657 -0.1748  0.0396
72435W        W15348  17.159   1.374  25.146  0.0078 -0.0815  0.2541
72436W        W15349  15.295  17.136  27.976 -0.0441 -0.0684 -0.0227
72437W        W15350  16.923  10.470  15.841  0.0825 -0.0127  0.3099
72438W        W15351  17.991  34.415  25.797  0.1373 -0.0003 -0.0541
72439W        W15352  21.364  11.649   2.594  0.0850  0.2491  0.2034
72440W        W15353  15.446  31.446  24.394 -0.1723 -0.1537  0.0049
72441W        W15354  15.261   8.576  25.775 -0.2717 -0.1618  0.1975
72442W        W15355   9.092   0.994   0.699  0.0684 -0.0418  0.1331
72443W        W15356  24.439   2.227  28.413 -0.4889  0.2716 -0.1842
72444W        W15357   9.713   6.466  25.742  0.0132 -0.0764 -0.1807
72445W        W15358  13.264  12.796  17.850 -0.0826 -0.2400 -0.1781
72446W        W15359  14.558   3.649   9.529  0.1891  0.0480 -0.1123
72447W        W15360  12.597   8.754  25.356 -0.1400 -0.0968  0.1784
72448W        W15361   7.995   4.340  29.200  0.1960 -0.0804 -0.1586
72449W        W15362  15.958   8.392   5.721  0.0144 -0.3234  0.1173
72450W        W15363  16.869  10.628   0.717 -0.1668  0.3922  0.1073
72451W        W15364   5.216  15.205   1.693 -0.1921 -0.1488  0.1394
72452W        W15365  17.921  18.844  24.920 -0.0920 -0.1157  0.0413
72453W        W15366  16.516  11.524  27.225  0.4330 -0.2554  0.1588
72454W        W15367  18.145  17.301   3.243  0.0492  0.5480 -0.0153
72455W        W15368  23.659  13.502  29.645 -0.2650  0.2364 -0.1241
72456W        W15369  24.576  32.851   5.637 -0.0168  0.0091  0.2030
72457W        W15370   5.959  32.105   1.842  0.2835 -0.2399 -0.1151
72458W        W15371   6.530  14.811   9.935  0.0120  0.3888  0.1622
72459W        W15372  16.197   2.819   2.253  0.0159  0.2257  0.2642
72460W        W15373  12.973   3.328  10.791 -0.0452 -0.3525  0.0170
72461W        W15374   4.559   2.100  26.434  0.0901  0.1563  0.1671
72462W        W15375  18.564   3.642  23.880 -0.0390  0.0449  0.0603
72463W        W15376  21.410  16.192  25.528  0.2789 -0.0416 -0.3021
72464W        W15377  12.696  17.151   0.619 -0.1317  0.0897 -0.0742
72465W        W15378  27.682   6.977  26.697  0.0563 -0.0960 -0.2809
72466W        W15379  17.485  30.681  10.831  0.2078 -0.0750  0.3912
72467W        W15380   3.418   7.519   5.224 -0.0772  0.2146  0.0102
72468W        W15381  15.799  29.899   1.673 -0.0794  0.1740  0.1633
72469W        W15382  12.986   7.712  19.152 -0.1271 -0.2546 -0.0155
72470W        W15383  21.939  10.172   3.352  0.0014  0.0450  0.1438
72471W        W15384  25.137  20.646   5.985  0.1537  0.0599 -0.0249
72472W        W15385   0.267   8.055   2.618  0.2169  0.0092  0.0064
72473W        W15386  23.672  10.535   1.209 -0.0017  0.0617 -0.1335
72474W        W15387  13.723   5.625  29.682 -0.1516 -0.1796 -0.3569
72475W        W15388  13.363  21.339   9.351 -0.3829  0.2042 -0.0103
72476W        W15389  20.661  12.720  20.701 -0.1169 -0.2873 -0.1045
72477W        W15390   1.440  14.220  23.708 -0.1902  0.0090 -0.0501
72478W        W15391  25.723   7.780  23.607  0.0958 -0.0611 -0.0717
72479W        W15392  13.815  16.854  23.681 -0.2598  0.0728  0.1845
72480W        W15393   2.236  10.294  21.422 -0.0523 -0.1159 -0.2676
72481W        W15394   9.925   8.569   0.046 -0.0377 -0.4596 -0.0400
72482W        W15395  24.743   9.419   1.002 -0.2058 -0.2352  0.0698
72483W        W15396   3.481   0.265  28.795 -0.1553  0.2069 -0.1506
72484W        W15397  14.477   6.612  23.698  0.0168 -0.0563 -0.1064
72485W        W15398  14.063  23.579   4.895 -0.0554 -0.0380 -0.2622
72486W        W15399  26.538   7.264   4.507 -0.4276  0.2730 -0.2971
72487W        W15400  14.353  11.784   0.565 -0.0214 -0.1021  0.3558
72488W        W15401  21.142   3.325   8.062 -0.1457  0.3596 -0.0161
72489W        W15402  19.217   5.830   4.323 -0.4309  0.2810 -0.2700
72490W        W15403  12.552  14.813  29.213 -0.2956  0.0666  0.1854
72491W        W15404  19.720  18.787  21.417 -0.0837  0.1610 -0.2878
72492W        W15405   5.090   2.514  29.380  0.1871 -0.0853  0.1489
72493W        W15406  17.941  13.664   0.062 -0.1445 -0.1298  0.1585
72494W        W15407  15.641   0.836  23.258 -0.2265  0.0015  0.1756
72495W        W15408  25.935   4.348   8.222  0.0226  0.0734 -0.0704
72496W        W15409  13.218   8.804   4.936  0.3206  0.1004 -0.3125
72497W        W15410   8.007   6.532   7.242  0.2910  0.4176 -0.1388
72498W        W15411  11.347  12.284  24.736  0.1246  0.0017  0.2580
72499W        W15412  16.331  14.165   3.114  0.2443 -0.1866  0.4019
72500W        W15413  25.091   5.389  24.293  0.1518 -0.0843 -0.1932
72501W        W15414  22.787  13.963   2.388  0.3303  0.1289 -0.1289
72502W        W15415  11.495   4.178  28.992 -0.1337 -0.0253  0.1405
72503W        W15416   4.799   9.428   4.770  0.0622 -0.1689  0.2864
72504W        W15417  26.873  15.398  29.079 -0.1541  0.0206 -0.0048
72505W        W15418   4.744   9.654   3.035  0.0055 -0.1138  0.4251
72506W        W15419   8.873  11.096  20.507 -0.2279 -0.3771 -0.2348
72507W        W15420  28.370   7.220   3.345  0.0821  0.1147  0.0234
72508W        W15421  10.485   7.973   5.147 -0.0424 -0.0654  0.1044
72509W        W15422  13.965   9.796   2.514  0.2341 -0.0105 -0.0605
72510W        W15423  11.981   9.478   9.853  0.3810 -0.2059 -0.0573
72511W        W15424  20.811  13.353   3.848  0.1063 -0.3758  0.0292
72512W        W15425  19.714   4.759  25.795  0.0029 -0.2119  0.1350
72513W        W15426  10.400  16.718   9.699  0.1650 -0.0111 -0.1015
72514W        W15427  17.289  10.489   7.589  0.0656 -0.0594 -0.0951
72515W        W15428  12.169  18.482  13.966  0.0532  0.0843  0.0949
72516W        W15429  16.795  20.499  14.524  0.2377 -0.1329 -0.0797
72517W        W15430  15.005  17.072  14.812  0.0622 -0.1258 -0.0104
72518W        W15431  22.275  21.523  16.217  0.0039 -0.3042  0.6597
72519W        W15432  17.827  14.484  12.876  0.2708 -0.0525  0.2377
72520W        W15433  14.752  19.651   1.591 -0.0015 -0.4539 -0.2632
72521W        W15434  12.471  12.024  19.595  0.2896 -0.1938  0.2681
72522W        W15435  21.794   9.471  20.059 -0.0696 -0.1238  0.4064
72523W        W15436  16.635  13.216  12.421 -0.1872 -0.2161 -0.2395
72524W        W15437  10.452  10.416  23.339  0.0503 -0.2721  0.1061
72525W        W15438  25.016  18.427  20.812 -0.0634  0.1511 -0.0814
72526W        W15439  13.694  21.163  13.324 -0.0861 -0.0436 -0.0175
72527W        W15440  17.823   0.517  23.322  0.1191 -0.2152  0.0360
72528W        W15441  13.041  10.967  24.026  0.1706  0.2648 -0.4095
72529W        W15442  19.939   8.379  22.084 -0.2693  0.0815 -0.1235
72530W        W15443   8.802  13.503  14.949  0.1191  0.1376  0.2298
72531W        W15444  11.864  21.971  13.983 -0.2808  0.0345 -0.1620
72532W        W15445  17.643   0.437  17.323 -0.2223  0.3986  0.0817
72533W        W15446  23.992  18.715  14.631  0.1084 -0.0125 -0.3130
72534W        W15447  20.763  14.088  14.709 -0.2834 -0.1123  0.0760
72535W        W15448  13.926  19.041  13.070  0.0878 -0.0691 -0.0474
72536W        W15449  30.497   5.114  16.705 -0.2880  0.1347  0.4105
72537W        W15450  15.274  30.778  20.466 -0.1666  0.2322 -0.3704
72538W        W15451  14.120  33.117  27.934  0.0203  0.0080 -0.0999
72539W        W15452  13.891  12.240  22.330  0.1151 -0.0746 -0.0126
72540W        W15453   3.768  18.985  15.284  0.0452  0.3241 -0.0411
72541W        W15454  20.780  21.679  14.613  0.0006 -0.1758  0.2025
72542W        W15455  18.866   8.114  28.372 -0.2016  0.0231 -0.2114
72543W        W15456  12.729  12.762  19.024  0.0425  0.5326  0.0082
72544W        W15457  19.664   4.141  16.769  0.0411 -0.0829  0.1520
72545W        W15458  24.509  15.246  17.577  0.1841  0.0184  0.1538
72546W        W15459   9.882  10.111  18.368  0.0183 -0.1199  0.0822
72547W        W15460  30.211  11.664  15.732  0.0754  0.3618 -0.1168
72548W        W15461  18.904  32.731  16.850 -0.0543 -0.0419 -0.0837
72549W        W15462  17.283  10.431  12.409  0.2976  0.0234 -0.0016
72550W        W15463  13.412   7.601  23.966  0.1027 -0.2497 -0.1088
72551W        W15464  13.508  13.936  18.114  0.0818  0.0533  0.0182
72552W        W15465  19.638  11.951  22.145 -0.1566 -0.0594 -0.4091
72553W        W15466   7.522  14.051  15.506  0.1294  0.0364  0.0821
72554W        W15467  12.379  14.213  13.935  0.0230 -0.0242 -0.2262
72555W        W15468  24.401   6.259  20.297  0.0812 -0.1981  0.0903
72556W        W15469  13.334   2.900  17.436 -0.1940 -0.3495  0.3356
72557W        W15470  19.073   9.283  17.623 -0.0829  0.3234  0.0635
72558W        W15471  17.667  13.190  14.380 -0.0927 -0.4533 -0.4311
72559W        W15472  21.835  12.832  12.979  0.0406 -0.1569  0.2596
72560W        W15473  25.863   6.059  13.763  0.0910  0.1417  0.0658
72561W        W15474  24.662  12.938  14.486 -0.2789 -0.2389 -0.1175
72562W        W15475  19.971   9.504  14.458  0.0711 -0.1764 -0.0347
72563W        W15476  14.060  12.420  14.011  0.0411 -0.0025 -0.1667
72564W        W15477  25.727  14.899  25.577 -0.3256 -0.0236 -0.0311
72565W        W15478  25.394   6.501  25.815  0.0413  0.1725 -0.0491
72566W        W15479  15.128  15.032  12.728 -0.4567  0.0401 -0.0594
72567W        W15480   6.792  16.765  18.020 -0.2091 -0.0082 -0.0987
72568W        W15481  17.362   1.979  18.891 -0.0358  0.0505 -0.0922
72569W        W15482  20.986  16.335  22.467  0.1647  0.0002 -0.0990
72570W        W15483  19.620  13.623  13.454  0.0653  0.1809  0.0585
72571W        W15484  10.180  15.460  20.246  0.2367 -0.1886 -0.2696
72572W        W15485   5.444  11.423  20.898 -0.1059  0.0819  0.0892
72573W        W15486   8.462   9.090  18.975 -0.1224 -0.0311 -0.5035
72574W        W15487  15.637  15.874  13.821  0.1259  0.1987 -0.2077
72575W        W15488  18.290  13.866  14.847  0.2649 -0.1092 -0.0707
72576W        W15489  16.844   5.411  19.068  0.2374 -0.0245  0.2367
72577W        W15490  16.102  11.032  18.399  0.1993 -0.1907  0.0563
72578W        W15491  18.524  17.530  11.538 -0.1899  0.0870 -0.0221
72579W        W15492  17.257   1.798  29.040  0.1044  0.1044  0.1918
72580W        W15493  32.417  21.989  15.213  0.1485 -0.1603  0.0650
72581W        W15494  11.615  17.123  23.816  0.0984  0.2276 -0.1111
72582W        W15495  13.177  16.622  19.082 -0.2126  0.0421 -0.0928
72583W        W15496  15.284  12.545  12.710 -0.1778  0.1283  0.0444
72584W        W15497  12.444  12.389  19.963  0.1343  0.4270  0.0443
72585W        W15498   6.605  17.876  14.774  0.0357 -0.0396 -0.0254
72586W        W15499  13.685  11.810  12.940 -0.1612  0.3754 -0.0559
72587W        W15500  25.103  24.731  15.027 -0.2330  0.0884  0.0732
72588W        W15501  16.730   3.225  14.662  0.0828 -0.0094 -0.2039
72589W        W15502  10.346   3.452  20.587 -0.1056  0.0176  0.1169
72590W        W15503  18.447   5.683  22.027  0.0565  0.2145 -0.1034
72591W        W15504  32.206  21.366  20.352 -0.0067 -0.0984 -0.2419
72592W        W15505  27.905  15.100  18.289 -0.0938 -0.0025  0.1978
72593W        W15506  14.198  16.084  16.475 -0.0802  0.2468 -0.2259
72594W        W15507  14.941   8.464  23.667  0.1597  0.2738  0.5004
72595W        W15508  15.323   9.407  14.246  0.0295 -0.2252  0.1862
72596W        W15509   8.858  14.095  17.500  0.1672 -0.1542  0.0102
72597W        W15510  10.675   2.583  26.337  0.2677 -0.1662  0.1663
72598W        W15511  27.113  10.044  15.845 -0.1840  0.0765 -0.1468
72599W        W15512  13.195  10.459  17.280  0.0369  0.1595 -0.0692
72600W        W15513  26.271   6.064  18.842  0.1329 -0.0655  0.0556
72601W        W15514  25.650   7.143  18.628  0.1410 -0.0655 -0.2719
72602W        W15515  19.373   7.647  15.490 -0.1679  0.4095  0.1382
72603W        W15516  21.379  10.667  12.719  0.1834 -0.0605  0.1420
72604W        W15517  20.390  21.368  21.042  0.2284  0.0629  0.1549
72605W        W15518  17.626   6.922  19.259 -0.0511 -0.1681  0.5185
72606W        W15519  22.298  21.442  20.426  0.0214 -0.2970  0.0705
72607W        W15520  23.478   1.179  21.804  0.1361 -0.2728 -0.3546
72608W        W15521  14.735  15.177  16.449 -0.0852  0.1594  0.2093
72609W        W15522  13.547   8.337  15.098  0.0900 -0.1261 -0.2116
72610W        W15523  17.969   2.478  15.220  0.2236 -0.1356  0.2638
72611W        W15524   6.994  20.386  17.208 -0.1190 -0.2700 -0.2381
72612W        W15525  31.374  12.146  15.647 -0.0867 -0.1541 -0.0455
72613W        W15526  23.943   7.991  24.183 -0.0685 -0.1052  0.0310
72614W        W15527  13.525   8.108  19.771  0.0470 -0.0427 -0.2122
72615W        W15528  11.596  16.009  17.385 -0.1466 -0.0085 -0.1972
72616W        W15529  19.294  12.921  12.852  0.0371 -0.1791 -0.1772
72617W        W15530  15.094  11.790  18.083  0.3206 -0.0468 -0.0176
72618W        W15531  11.885  19.045  22.312  0.0089  0.0113  0.0909
72619W        W15532  14.614  25.892  16.138  0.1668  0.2824  0.2083
72620W        W15533  22.565  11.658  13.673  0.2483  0.1469 -0.0133
72621W        W15534  21.016   8.520  23.699 -0.1835 -0.0505  0.1671
72622W        W15535   7.596  23.659  19.483 -0.0513 -0.3544 -0.1560
72623W        W15536   8.087  17.964  16.709 -0.0170  0.0403 -0.1237
72624W        W15537  16.063  10.589  12.978  0.1479  0.2068 -0.2016
72625W        W15538  20.098  15.230  12.752  0.0508  0.4644  0.0294
72626W        W15539  13.421   5.037  26.207 -0.0575 -0.1902 -0.1703
72627W        W15540  24.271  21.012  24.155  0.5236  0.1227 -0.0224
72628W        W15541   9.316   8.561  20.584  0.0344 -0.1530  0.0937
72629W        W15542  21.482   8.201  16.352 -0.0399 -0.0336  0.3182
72630W        W15543  21.517  15.449  15.512  0.0508 -0.1142  0.1702
72631W        W15544  10.089   8.926  17.144  0.3092 -0.1900  0.3263
72632W        W15545  22.191   7.718  26.180  0.0537 -0.1939 -0.0559
72633W        W15546  11.361   8.230  16.358 -0.0583 -0.2615  0.0091
72634W        W15547  15.363  14.067  15.356 -0.0317 -0.1828 -0.0713
72635W        W15548  23.914  21.454  18.869 -0.1266 -0.0627 -0.0241
72636W        W15549  30.461  19.278  13.853  0.2481  0.0788 -0.1570
72637W        W15550  13.182  20.676  14.746 -0.1836 -0.2386 -0.0716
72638W        W15551  22.113  10.521  21.691 -0.2516 -0.0499  0.0395
72639W        W15552  21.913   8.777  19.337  0.0468  0.0959  0.0362
72640W        W15553  11.775   4.305  21.636  0.3633 -0.0191  0.1592
72641W        W15554  19.603  23.036  14.501  0.0264 -0.3895 -0.1688
72642W        W15555  18.060  13.076  12.225  0.2083  0.3567  0.1732
72643W        W15556  12.042  22.190  21.436  0.3338 -0.3145  0.2662
72644W        W15557  18.269  32.707  19.756 -0.0837  0.1242 -0.2406
72645W        W15558  19.219  18.011  12.500 -0.0705 -0.0182  0.2488
72646W        W15559  13.770  10.355  17.455 -0.0408 -0.0189  0.0979
72647W        W15560   9.786  13.481  24.803 -0.0144 -0.1998  0.2314
72648W        W15561  15.944  14.713  13.051 -0.2425  0.1462 -0.2647
72649W        W15562  14.726  11.657  21.095  0.1692 -0.0816  0.2637
72650W        W15563  15.481  21.057  14.395 -0.0092 -0.4725  0.1204
72651W        W15564  12.729  12.454  26.259 -0.1996 -0.1211 -0.0861
72652W        W15565  28.413  18.156  15.745 -0.0978  0.2201 -0.1869
72653W        W15566  30.015  24.073  22.934  0.4265 -0.1275 -0.3085
72654W        W15567  26.514  20.081  14.812  0.0471 -0.0333 -0.0478
72655W        W15568   7.272  14.459  15.431  0.0645  0.1636 -0.1045
72656W        W15569  22.086   1.587   1.516  0.1338 -0.1464  0.0321
72657W        W15570  17.101   1.056  18.478  0.0353  0.0670 -0.0349
72658W        W15571  19.273  21.662  13.305 -0.0533  0.1265  0.0020
72659W        W15572  21.273  13.938  14.945 -0.1284 -0.1306 -0.1482
72660W        W15573  14.287   4.385  18.633 -0.3806 -0.0186 -0.1183
72661W        W15574   9.975  34.237  25.508 -0.4415 -0.1957  0.0759
72662W        W15575  20.447   6.479  19.871 -0.0335 -0.0456 -0.1472
72663W        W15576  19.999   6.835  14.041 -0.2177  0.0216  0.0239
72664W        W15577  23.611  12.086  27.988  0.0205 -0.1799 -0.0358
72665W        W15578  16.673  20.096  15.298 -0.0993  0.2604 -0.2808
72666W        W15579  13.096  18.517  12.075  0.1678 -0.1897  0.2470
72667W        W15580  16.627  18.012  13.877  0.0474  0.0036  0.1369
72668W        W15581  20.063  31.826  18.265 -0.2401 -0.0519  0.3591
72669W        W15582   8.062  14.119  16.911  0.2917  0.0064  0.1882
72670W        W15583  10.644  13.941  16.465  0.6045  0.0887  0.4237
72671W        W15584  24.946   4.754  15.395 -0.0842 -0.0893 -0.2728
72672W        W15585  17.468   3.893  17.973  0.0276 -0.2251  0.1255
72673W        W15586  18.085   5.779  19.409 -0.1957  0.1443  0.3332
72674W        W15587  22.213   6.325  21.196  0.0263 -0.0200  0.0575
72675W        W15588  11.334  15.912  16.996 -0.1073 -0.2661 -0.2122
72676W        W15589  14.813  17.889  12.251  0.0779  0.2998 -0.0492
72677W        W15590  12.219  21.291  21.161  0.0121  0.0151 -0.2384
72678W        W15591  25.705  11.778  16.960  0.2924 -0.1488 -0.2750
72679W        W15592   5.185  10.221  18.817 -0.0146  0.0908  0.1900
72680W        W15593  23.506   5.841  15.057  0.3644 -0.3484 -0.1831
72681W        W15594  12.291   7.270   1.703  0.1249 -0.0797  0.1154
72682W        W15595   8.542   8.600  17.640  0.1219  0.0782 -0.1361
72683W        W15596  16.440  15.658  23.421 -0.1037  0.1803  0.0011
72684W        W15597  26.884  11.612  19.051  0.1196  0.3815  0.0265
72685W        W15598  17.961   5.018  22.563  0.1075 -0.0300  0.2565
72686W        W15599  25.022   9.270  14.443  0.3778 -0.1723  0.2569
72687W        W15600  26.986   9.291  17.270 -0.3461 -0.0591 -0.1483
72688W        W15601  12.975  16.753  17.285 -0.0999 -0.1051 -0.2224
72689W        W15602  16.238   1.519  16.710 -0.3876 -0.1411  0.0520
72690W        W15603  16.653   9.848  12.851  0.3522  0.1471 -0.1085
72691W        W15604  18.832  12.214  15.528  0.0534  0.0526 -0.2426
72692W        W15605  15.309   6.658  19.507 -0.1516 -0.2195 -0.5062
72693W        W15606  18.427  10.541  12.873 -0.1304 -0.1498  0.4165
72694W        W15607  27.130  14.526  18.223 -0.0226  0.0536 -0.1170
72695W        W15608  17.306   8.093  18.023  0.1036  0.1703  0.0704
72696W        W15609  21.774  15.965  21.624 -0.1396  0.2080  0.1751
72697W        W15610  10.837  14.530  18.312  0.0440 -0.0404 -0.0166
72698W        W15611  17.520   8.248  20.359 -0.2937  0.1646  0.4996
72699W        W15612  14.783  24.316  16.663  0.0584 -0.1056 -0.0208
72700W        W15613   8.307  11.718  15.706  0.1399  0.0378 -0.0564
72701W        W15614  11.533  15.327  19.461  0.3040 -0.2576 -0.2944
72702W        W15615  12.858  14.228  13.937 -0.0620 -0.1892  0.1344
72703W        W15616  20.872   8.570  14.130 -0.0416  0.1268 -0.1081
72704W        W15617  17.381   6.485  18.536 -0.0275  0.2159 -0.3669
72705W        W15618  10.331  14.620  19.035 -0.0748  0.3309  0.1277
72706W        W15619  25.976   6.923  15.300  0.1458  0.0682  0.0222
72707W        W15620  10.120   0.583  20.896 -0.2119 -0.0083  0.0581
72708W        W15621   9.664  11.492  18.427 -0.0924  0.1193 -0.0114
72709W        W15622  23.892  12.190  19.292  0.1065 -0.2422  0.1877
72710W        W15623   8.696  11.457  25.013  0.1297 -0.1949 -0.0942
72711W        W15624  20.653  11.249  13.330 -0.3227  0.1202  0.0969
72712W        W15625  17.440   8.786  17.358 -0.0986  0.0949 -0.2770
72713W        W15626  14.248  11.983  13.361  0.2801  0.0709 -0.1137
72714W        W15627  18.052  12.962  13.027 -0.2274  0.0230  0.2349
72715W        W15628   8.049  13.049  19.307 -0.0416  0.1114  0.2006
72716W        W15629  20.882  27.144  14.402 -0.0249  0.1791 -0.0710
72717W        W15630  25.447  11.345  15.051  0.3184 -0.2824  0.0399
72718W        W15631   7.908  10.094  17.664 -0.2946 -0.0159  0.1636
72719W        W15632  13.852  22.070  15.542  0.4382 -0.0607 -0.0458
72720W        W15633  18.442  17.560  14.180  0.1433 -0.0753  0.2539
72721W        W15634  22.281  16.736  13.591  0.1438  0.0697 -0.2252
72722W        W15635  24.852   6.654  20.296 -0.0860 -0.0877 -0.0860
72723W        W15636  15.140  12.361  15.838  0.0518 -0.0436 -0.0991
72724W        W15637   9.533  10.585  22.286  0.1508  0.2663  0.2208
72725W        W15638  14.665  23.218  16.157  0.3923  0.0594  0.0747
72726W        W15639  15.562  11.921  13.515 -0.0560  0.0019  0.1299
72727W        W15640  19.319   8.122  12.960 -0.0044  0.1549 -0.1815
72728W        W15641  20.897  13.930  28.815  0.0526 -0.1045  0.0107
72729W        W15642  24.406  16.425  15.202  0.0207  0.0311 -0.0576
72730W        W15643  18.941   5.154  14.441  0.0861 -0.0222  0.3218
72731W        W15644  16.117   6.437  15.842 -0.0385 -0.1100  0.1656
72732W        W15645  17.265  12.316  18.912 -0.2860  0.1586 -0.1957
72733W        W15646  20.330  23.907  14.123  0.0170  0.1940  0.1731
72734W        W15647  12.777  16.528  21.662  0.0961 -0.0310  0.0752
72735W        W15648  20.892  19.351  11.485 -0.0854 -0.3407  0.1183
72736W        W15649   6.605  16.229  17.066  0.0427  0.0353 -0.3037
72737W        W15650  24.337  11.834  14.233 -0.3334  0.1304  0.2832
72738W        W15651  18.796   3.830  24.535 -0.0714 -0.2893  0.1114
72739W        W15652   6.298   9.542  18.783  0.3235 -0.1855  0.1561
72740W        W15653  17.790  24.607  22.457 -0.1961  0.0190 -0.0816
72741W        W15654  13.685  16.203  13.402 -0.0487  0.1340  0.1043
72742W        W15655  14.473  24.959  16.297 -0.2984  0.3876 -0.2657
72743W        W15656  17.703  26.389  20.635  0.1058 -0.0588  0.0075
72744W        W15657  18.760   6.187  20.644 -0.0514  0.2058  0.2589
72745W        W15658  12.834  13.479  12.829 -0.3144  0.5648  0.1072
72746W        W15659  23.608  13.291  12.774  0.3589 -0.1111 -0.1616
72747W        W15660  16.836   4.723  18.171  0.1400 -0.0489  0.1368
72748W        W15661  21.767  19.851  14.552  0.2123  0.0582  0.1449
72749W        W15662  24.864   7.813  19.841 -0.0431 -0.3398  0.0717
72750W        W15663  18.312   1.554  17.991  0.1247  0.2465 -0.0010
72751W        W15664   8.579  14.992  18.551 -0.0399 -0.2722  0.0832
72752W        W15665  16.133   5.646  17.176  0.1153 -0.1390  0.0300
72753W        W15666  12.371  13.759  15.565  0.0199  0.2014  0.2103
72754W        W15667  27.279  14.409  22.716 -0.3013  0.1184 -0.0214
72755W        W15668  18.916   8.432  14.704  0.2354 -0.0006  0.2857
72756W        W15669  22.615  12.992  20.575  0.1227 -0.0775 -0.1356
72757W        W15670  24.892  17.273  14.940 -0.3072 -0.0285 -0.1679
72758W        W15671  22.354   0.095  27.270 -0.1352  0.2791  0.2422
72759W        W15672  13.676   8.867  15.710 -0.0073 -0.1261  0.4578
72760W        W15673  21.386   7.431  16.962 -0.0113 -0.0145  0.0018
72761W        W15674  12.971  15.981  14.009  0.2464 -0.1950 -0.2926
72762W        W15675  28.071  20.656  18.741  0.0074  0.0081  0.2892
72763W        W15676  18.363  10.236  13.661  0.0326 -0.1443  0.3266
72764W        W15677  15.396   8.922  18.235  0.1450 -0.0088  0.2761
72765W        W15678  14.787  15.088  12.369 -0.0035 -0.0698  0.1773
72766W        W15679   9.374   7.630  23.059  0.1537 -0.0821  0.2008
72767W        W15680  11.462  15.249  18.571 -0.0109 -0.2887  0.1716
72768W        W15681  16.372  10.485  17.528  0.0084  0.1117  0.0331
72769W        W15682  19.069  15.916  12.622 -0.0635  0.1126 -0.1074
72770W        W15683  19.197   7.078  22.076  0.1923 -0.0994  0.1784
72771W        W15684   4.304  14.810  15.559 -0.0848 -0.0144 -0.0060
72772W        W15685  22.960  19.329  12.660 -0.0130  0.1844  0.1002
72773W        W15686   4.282  10.176  17.335 -0.1490 -0.0184  0.1846
72774W        W15687  27.415  18.173  20.750  0.0549  0.0882 -0.0613
72775W        W15688   9.434  16.823  22.605 -0.1375 -0.1491  0.0954
72776W        W15689  15.209  20.720  16.799  0.4482  0.4260  0.3358
72777W        W15690  23.406   4.489  22.914  0.1826 -0.0974 -0.0793
72778W        W15691  19.469  11.501  25.544 -0.0188 -0.3400  0.0722
72779W        W15692  11.148  17.619  14.722 -0.1551  0.0365  0.0797
72780W        W15693  14.755   2.232  26.055  0.1720 -0.0050  0.0009
72781W        W15694  11.839   6.906  19.167  0.1660  0.0300 -0.1508
72782W        W15695  16.867   1.512  26.691 -0.4040  0.0007 -0.0832
72783W        W15696  11.801  11.413  17.980  0.2620 -0.1523  0.1503
72784W        W15697  10.974  17.938  15.582 -0.1206  0.0276  0.3363
72785W        W15698  14.524   9.688  14.613  0.0271  0.2124 -0.0419
72786W        W15699  12.408  15.081  13.681  0.0908  0.1428  0.1147
72787W        W15700   8.709  10.948  22.851 -0.1411  0.0708  0.0983
72788W        W15701  15.992  15.388  12.175 -0.0205 -0.0895 -0.2759
72789W        W15702  17.941  10.630  25.125 -0.0592  0.1439 -0.1910
72790W        W15703  15.464   6.809  20.076  0.1015  0.0281  0.2366
72791W        W15704  18.188   6.206  17.423  0.1572 -0.2781 -0.0389
72792W        W15705  22.046   8.967  22.881  0.1011  0.0003  0.1458
72793W        W15706  11.156  14.512  15.033  0.0969 -0.1815  0.0244
72794W        W15707  18.818   7.941  16.040 -0.1878  0.1142 -0.1342
72795W        W15708   7.528  18.127  27.992 -0.1848  0.0968  0.1017
72796W        W15709   9.031  15.587  15.433 -0.0722  0.4284  0.0529
72797W        W15710  10.780  18.071  17.748  0.0477 -0.0164  0.0433
72798W        W15711  15.365   6.547  17.078 -0.1673  0.1848 -0.0167
72799W        W15712  24.073  23.233  14.075 -0.0096  0.0682  0.0010
72800W        W15713  19.926  15.560  13.655  0.2749 -0.2422  0.0266
72801W        W15714  13.379   1.521  23.477  0.0411  0.1696  0.1647
72802W        W15715  25.403  15.306  15.941 -0.0694 -0.0665 -0.0193
72803W        W15716  15.323   6.345  21.087 -0.1983 -0.2073  0.3125
72804W        W15717   9.001   7.248  20.903 -0.1804  0.3045  0.1712
72805W        W15718  13.155  15.588  22.431  0.2071  0.0311 -0.0931
72806W        W15719  10.570  15.437  19.103 -0.3119 -0.0891  0.2150
72807W        W15720  16.620   8.509  19.644 -0.1757 -0.0005  0.4125
72808W        W15721  15.722  12.910  13.107  0.3778  0.0688  0.1273
72809W        W15722  14.454   3.336  19.315 -0.0660 -0.0776 -0.3016
72810W        W15723  16.504  32.994  21.203  0.1417 -0.3048 -0.0395
72811W        W15724  24.507  17.889  16.538 -0.1894 -0.0826  0.0247
72812W        W15725  19.564  15.088  11.612 -0.0511 -0.2128 -0.0282
72813W        W15726  12.443  13.962  16.621  0.0963  0.2554 -0.1612
72814W        W15727  22.034   8.270  17.135 -0.1395 -0.0116  0.0818
72815W        W15728  20.972   2.121  23.261 -0.2294  0.1492 -0.1812
72816W        W15729  22.094  12.721  22.050 -0.0435 -0.0606 -0.2413
72817W        W15730   5.267  32.280  24.292 -0.0500 -0.1776 -0.1833
72818W        W15731  22.367  29.847  21.766  0.0679  0.1782  0.3420
72819W        W15732  11.463  15.482  16.282  0.2515 -0.4470  0.2095
72820W        W15733  30.643   9.315  14.932  0.0625  0.0262  0.1746
72821W        W15734  13.610   4.007  15.804 -0.1917 -0.1946 -0.0345
72822W        W15735   7.876   4.956  19.057  0.1583 -0.0577  0.1024
72823W        W15736  17.717   6.283  19.602 -0.3209  0.2158  0.0138
72824W        W15737  19.100  10.038  19.016 -0.0610 -0.1531  0.1136
72825W        W15738  25.459  14.568  16.865  0.0019 -0.0666 -0.4464
72826W        W15739  15.917  13.422  17.868  0.1068 -0.1058  0.0383
72827W        W15740  16.755   4.168  28.892  0.2128 -0.2342  0.0452
72828W        W15741  23.578   5.057  14.171 -0.0969  0.1026  0.2670
72829W        W15742  22.604  11.607  16.580 -0.0545  0.0321 -0.3421
72830W        W15743  11.499  14.781  14.628 -0.2300 -0.0573  0.3473
72831W        W15744   7.697  21.313  17.040 -0.1929  0.0114 -0.0935
72832W        W15745  13.789   8.786  21.862 -0.1545 -0.0883  0.1249
72833W        W15746  25.932   2.560  21.809 -0.0819 -0.2707  0.0349
72834W        W15747  29.086   7.576  18.142  0.1782 -0.3361 -0.4099
72835W        W15748  14.484   4.650  19.386  0.1455  0.2722 -0.2886
72836W        W15749  15.124  20.974  16.247 -0.3108  0.0126  0.0106
72837W        W15750   8.313   0.794  26.042 -0.0943  0.1006 -0.2980
72838W        W15751   6.005   9.745  24.397 -0.1783  0.1664  0.2204
72839W        W15752   7.606  16.914  25.401 -0.1078  0.1782 -0.1752
72840W        W15753  13.330  20.465  15.857 -0.1500  0.2832  0.0888
72841W        W15754  13.294  10.993  19.953 -0.0702  0.0887  0.1761
72842W        W15755   1.286  15.706  21.843 -0.2103  0.2422 -0.1269
72843W        W15756  11.473  17.039  25.746  0.1716 -0.2945 -0.2181
72844W        W15757  28.111  14.417  20.840  0.1791 -0.1440 -0.2360
72845W        W15758  11.005  18.833  26.626  0.0221  0.1763  0.1106
72846W        W15759  18.736  21.132  13.613  0.1026 -0.2117  0.0123
72847W        W15760  20.739   7.277  27.373  0.3601 -0.1820 -0.1454
72848W        W15761  20.803  12.337  15.479 -0.3006 -0.0053 -0.1401
72849W        W15762  22.427  22.249  12.120 -0.0568 -0.1923  0.2442
72850W        W15763  22.211  24.300  15.084 -0.1842  0.0460  0.3167
72851W        W15764  13.127  17.890  21.809  0.1391 -0.0257 -0.1640
72852W        W15765   6.925  12.888  15.879 -0.0230 -0.1245 -0.2047
72853W        W15766  16.704  11.221  19.070 -0.0632 -0.6714  0.0493
72854W        W15767  22.132  15.654  14.731 -0.1709  0.1550  0.1671
72855W        W15768  12.293  14.769  24.377  0.1775 -0.1702  0.1453
72856W        W15769  26.818  14.408  17.482 -0.1895  0.0628  0.2458
72857W        W15770  10.566  12.551  14.375  0.3246  0.0584 -0.0966
72858W        W15771  24.814  13.513  13.136  0.1338  0.1667  0.0365
72859W        W15772   7.191  11.221  17.914  0.1650  0.1058  0.1762
72860W        W15773  12.803  23.368  16.462 -0.3761  0.0708  0.1994
72861W        W15774  28.546  25.660  17.092  0.1618 -0.2865 -0.4613
72862W        W15775  22.805  12.013  18.077  0.2463  0.2284 -0.2475
72863W        W15776   0.528  16.511  19.127 -0.1970  0.1322  0.0196
72864W        W15777  11.635  12.292  16.529 -0.0475  0.1427 -0.0630
72865W        W15778  14.111  23.348  19.135 -0.1106 -0.2117 -0.1615
72866W        W15779  15.825  13.564  15.116 -0.0901  0.0018 -0.1378
72867W        W15780  14.249   8.975  15.765  0.1012  0.0658  0.0836
72868W        W15781  28.565  17.806  21.699  0.1330 -0.1734 -0.0778
72869W        W15782  13.231  13.426  12.475 -0.0089 -0.0664 -0.0768
72870W        W15783   8.608  22.669  29.757  0.1087  0.1928  0.2232
72871W        W15784  16.997  31.589  17.087 -0.1629  0.3336  0.1894
72872W        W15785  19.867   7.730  19.889 -0.1257 -0.0009 -0.2000
72873W        W15786  11.175  20.383  20.868  0.1759 -0.1347 -0.2865
72874W        W15787  11.192   9.185  27.169  0.0411  0.2673  0.0410
72875W        W15788  21.186   9.594  15.079  0.3492  0.2237 -0.0067
72876W        W15789  12.386  19.516  14.981  0.1682 -0.2818  0.0411
72877W        W15790  11.127  10.648  24.977  0.0417  0.1596  0.0002
72878W        W15791   9.330  20.670  17.037  0.2348 -0.2613  0.1931
72879W        W15792  10.580  23.096  16.809 -0.2563 -0.2860 -0.3598
72880W        W15793   6.182  14.618  24.627  0.0893  0.1442  0.3163
72881W        W15794  11.597  13.410  21.713 -0.3753 -0.0331 -0.0464
72882W        W15795  12.239   7.604  15.266 -0.1142  0.0079  0.1095
72883W        W15796  12.648  11.291  16.765  0.1245 -0.0146 -0.0498
72884W        W15797   5.620  14.873  22.768 -0.3190  0.2406 -0.0823
72885W        W15798  25.156  14.718  19.686 -0.0011  0.1646  0.0992
72886W        W15799  21.418   5.369  20.546 -0.0165 -0.1857 -0.0631
72887W        W15800  16.202  15.011  15.258  0.1433  0.0890  0.1532
72888W        W15801  11.304  12.756  14.964 -0.1494 -0.0273 -0.4638
72889W        W15802  23.543  17.185  14.136  0.0804  0.4252  0.3418
72890W        W15803  10.547  13.996   1.027  0.0883 -0.2138 -0.2661
72891W        W15804   3.771  20.106  19.309 -0.0944 -0.3890  0.0692
72892W        W15805  17.197   5.194  19.405 -0.1244 -0.0363 -0.1033
72893W        W15806  10.409  15.896  13.637  0.0124 -0.2001 -0.1230
72894W        W15807  13.479  12.775  20.577 -0.1915 -0.1300  0.0380
72895W        W15808  24.615  23.551  16.401  0.2751 -0.1973 -0.1173
72896W        W15809   7.209  19.906  13.546  0.3254  0.2334 -0.2042
72897W        W15810  17.778  20.098  13.863 -0.2949 -0.1432 -0.4232
72898W        W15811  11.528  13.479  25.225  0.0950  0.1482 -0.1786
72899W        W15812  25.731  16.928  16.614 -0.0230 -0.1332  0.2066
72900W        W15813  10.270  22.454  21.097  0.1092  0.0550 -0.2428
72901W        W15814   6.354  19.272  19.496 -0.3771  0.2131  0.0109
72902W        W15815  13.288  12.704  15.446 -0.3003 -0.0281  0.1550
72903W        W15816  20.315   7.427  24.186  0.0893 -0.0442  0.0841
72904W        W15817  23.633  15.905  19.891 -0.0046 -0.2336 -0.0717
72905W        W15818  22.246   3.438  18.746 -0.1574  0.0430 -0.0069
72906W        W15819  29.339  13.627  17.823 -0.1356  0.0051 -0.3797
72907W        W15820  13.254  12.247   6.902 -0.1938  0.0276 -0.0472
72908W        W15821  18.165  20.467  12.648  0.2707  0.2340 -0.1628
72909W        W15822   2.846   4.801  26.917  0.0813 -0.3026  0.3499
72910W        W15823  20.840  11.410  20.073  0.0285 -0.1492 -0.2334
72911W        W15824  22.102  16.308  13.338  0.0530 -0.0340 -0.1469
72912W        W15825  26.249  12.279  23.977  0.0258 -0.0800 -0.0419
72913W        W15826  19.235   3.349  16.348 -0.2474  0.1727  0.0414
72914W        W15827  21.957  10.770  19.981 -0.0709 -0.4512 -0.2140
72915W        W15828  15.467   6.662  24.981  0.0325 -0.0845 -0.0507
72916W        W15829  12.805  12.489  21.846 -0.0686  0.2393  0.5369
72917W        W15830  19.461   4.296  28.866  0.1898  0.1438  0.1231
72918W        W15831   7.378  29.851  21.110 -0.0672  0.5284  0.0587
72919W        W15832  12.445  11.002  25.319  0.4026  0.0420  0.1837
72920W        W15833   5.795  13.000  17.014 -0.0017  0.0304  0.0751
72921W        W15834  20.451   5.298  23.871 -0.3874 -0.4052 -0.0428
72922W        W15835  25.522   1.818   0.303 -0.0742  0.0252 -0.1434
72923W        W15836  30.555  17.895  22.528 -0.2397 -0.0778 -0.0242
72924W        W15837   0.119  14.071  18.118 -0.2192  0.0501  0.2516
72925W        W15838  19.171  17.863  13.563 -0.1760 -0.1755 -0.0035
72926W        W15839  15.565   1.474  17.296  0.0293 -0.2326  0.1226
72927W        W15840  13.989   2.478  20.162 -0.1416  0.3955  0.0768
72928W        W15841   3.735  16.958  16.570 -0.0753  0.0699 -0.0651
72929W        W15842  17.424   4.463  27.313 -0.2276 -0.0342  0.3964
72930W        W15843  15.482   3.740  19.832 -0.1310  0.3615 -0.0814
72931W        W15844  16.878   7.670  20.700 -0.0650 -0.0873  0.2973
72932W        W15845  20.278  13.164  14.902 -0.0032  0.1131 -0.3617
72933W        W15846  22.006   0.173  18.295  0.0063  0.0908 -0.0009
72934W        W15847  15.747  10.706   7.175  0.0664 -0.2485 -0.0988
72935W        W15848  10.879   7.479   1.076  0.0346  0.2617 -0.1736
72936W        W15849  13.929   3.621  21.633  0.0071 -0.3966 -0.0385
72937W        W15850  11.181  12.237  19.469 -0.0157  0.0866  0.0757
72938W        W15851  21.292   7.683  19.318  0.0799  0.1541  0.3115
72939W        W15852  10.436  16.809  16.375  0.3146 -0.0718  0.1605
72940W        W15853  20.655   6.370  23.649 -0.0622 -0.0089  0.0632
72941W        W15854  23.615  15.570  17.585  0.0196  0.1356  0.0615
72942W        W15855  19.576   5.777  24.141 -0.2849  0.2121 -0.1406
72943W        W15856  15.918  16.967  13.130  0.0091 -0.1883 -0.0626
72944W        W15857  14.652  21.307  15.638  0.0364 -0.1442 -0.1225
72945W        W15858  19.132  13.552  13.827 -0.2923 -0.3702 -0.3213
72946W        W15859  24.893  18.669  14.412  0.2742  0.0404  0.2618
72947W        W15860  18.676  25.848  22.393 -0.0277  0.0075 -0.2926
72948W        W15861  14.638  21.773  24.435  0.1485  0.3009 -0.0872
72949W        W15862  12.252   9.577  15.386  0.2166 -0.0766  0.0809
72950W        W15863   9.668  14.682  24.143  0.1298  0.0685  0.0500
72951W        W15864  11.593  12.496  19.601  0.0159 -0.2468  0.2572
72952W        W15865  26.655  15.578  25.627  0.0491  0.1440  0.0962
72953W        W15866  14.119   2.978  20.949 -0.1951  0.2414  0.2323
72954W        W15867  15.568   6.935  21.175 -0.1781  0.2587  0.2661
72955W        W15868   9.615  17.347  15.381  0.0326 -0.1063  0.2183
72956W        W15869  18.942  12.057  12.958  0.2907 -0.2433 -0.1112
72957W        W15870  18.942  10.788  21.667  0.0053 -0.3367  0.3865
72958W        W15871  25.693  11.859  14.601 -0.2603 -0.0399  0.1365
72959W        W15872  19.435  10.348  20.064  0.1588  0.1979  0.4688
72960W        W15873  17.506  11.535  19.032 -0.0876 -0.1679  0.2605
72961W        W15874  12.233   7.218  19.447 -0.1451  0.0249  0.1614
72962W        W15875  16.941   3.296  16.087 -0.0986  0.2359  0.0053
72963W        W15876  20.580  11.444  13.791  0.1565  0.3687 -0.1312
72964W        W15877  15.881   3.022  21.136  0.1196 -0.1105 -0.3081
72965W        W15878  15.565  11.100  12.855 -0.2195 -0.0140 -0.0709
72966W        W15879   6.109  19.173  17.979 -0.0034 -0.1291 -0.1070
72967W        W15880  15.301   5.095  16.830  0.1593 -0.1081 -0.4985
72968W        W15881  17.327  14.678  12.747 -0.2012 -0.0890 -0.2738
72969W        W15882  11.896  20.389  16.751 -0.1462 -0.1294  0.1175
72970W        W15883  28.868  14.138  28.998 -0.2256 -0.1387 -0.2135
72971W        W15884  19.708   8.953  22.989  0.0073  0.0252 -0.1343
72972W        W15885  16.009   5.970  19.108 -0.0834 -0.1636  0.0588
72973W        W15886  25.121  19.750  15.772 -0.1045  0.1001 -0.0804
72974W        W15887  15.147   8.733  15.934 -0.0390  0.0582 -0.1112
72975W        W15888  17.058   9.421  18.836  0.1435  0.1342 -0.1442
72976W        W15889   5.986   5.140  18.309 -0.2916 -0.0902  0.1867
72977W        W15890   8.741  21.333  25.722 -0.5825  0.1754 -0.0183
72978W        W15891  14.400  22.442  13.536  0.2131  0.0378  0.2497
72979W        W15892  24.679  24.348  20.203 -0.1560  0.3427  0.0682
72980W        W15893  21.564   6.707   7.787  0.2666  0.1355 -0.0139
72981W        W15894   9.991  14.181  29.056 -0.0412 -0.0149  0.0718
72982W        W15895  13.989   8.292  22.636  0.1169 -0.1347  0.0757
72983W        W15896   1.985   8.161  28.822 -0.0472  0.1854 -0.0084
72984W        W15897  13.401  13.221   5.696 -0.1190 -0.0335 -0.1406
72985W        W15898  19.596  26.765  15.282 -0.3543 -0.0747  0.0526
72986W        W15899  16.128  11.772  13.974  0.0267  0.0392  0.2958
72987W        W15900  17.180   5.402  26.962  0.0954  0.1548  0.1013
72988W        W15901  18.935  14.968  12.249  0.0079  0.1831 -0.0620
72989W        W15902   2.588  16.340  17.119 -0.1613  0.0791  0.1758
72990W        W15903  17.070  20.694  16.004  0.1054 -0.1304 -0.3184
72991W        W15904  10.415   3.919  21.179  0.1489 -0.2150 -0.1133
72992W        W15905  16.979  10.483  14.930  0.2522  0.0219 -0.0705
72993W        W15906   6.577  20.107  29.304  0.1750  0.2092 -0.1930
72994W        W15907  28.754  17.398  16.635  0.0429 -0.2038 -0.0282
72995W        W15908   8.197  16.943  22.029  0.2283  0.4567  0.3462
72996W        W15909   8.347  11.370  20.608  0.0334  0.0781  0.1317
72997W        W15910  18.550   0.095  28.548  0.0246  0.1103 -0.2304
72998W        W15911  12.074   8.622  19.882 -0.2306  0.1449 -0.2522
72999W        W15912  10.748  12.066  22.174 -0.0312 -0.0496  0.1622
73000W        W15913  23.675   1.259  16.781  0.4451 -0.4726 -0.2988
73001W        W15914  12.079   8.978  16.569 -0.1906  0.1114  0.5186
73002W        W15915   7.080   2.574  19.815  0.1510 -0.0112 -0.0306
73003W        W15916  15.456   2.038  20.475 -0.3490 -0.0175  0.0298
73004W        W15917  21.683   4.948  20.392 -0.0259 -0.1434 -0.0851
73005W        W15918  19.768  21.713  14.541 -0.0370  0.1770  0.1331
73006W        W15919  18.737   4.810  18.015  0.0336 -0.2117  0.2229
73007W        W15920  23.942  17.751  16.290 -0.0337  0.2960  0.1287
73008W        W15921  12.575  15.587  23.782  0.0773  0.0872  0.2352
73009W        W15922  15.401   1.502  22.949 -0.0984  0.0583  0.1773
73010W        W15923  12.222  20.318  21.516 -0.0830  0.0414  0.0604
73011W        W15924  17.738   6.613   4.583  0.0159  0.1279 -0.1451
73012W        W15925  12.189  12.151  23.636 -0.1212 -0.0181 -0.0862
73013W        W15926  15.105  10.057  17.267  0.0791  0.2543 -0.2840
73014W        W15927  21.779  16.305  16.003  0.1485 -0.0197  0.0107
73015W        W15928   4.441  13.983  21.430  0.3503 -0.3862  0.0321
73016W        W15929  18.803   9.097  16.802  0.1567 -0.0076  0.1158
73017W        W15930  27.001   5.908  14.622 -0.0173 -0.0034  0.0718
73018W        W15931  24.153  14.463  15.838 -0.2610 -0.0851  0.1667
73019W        W15932  19.241  14.031  16.622  0.0753 -0.2353  0.0920
73020W        W15933   6.436  18.079  13.097 -0.0039  0.1470  0.0891
73021W        W15934  19.112  20.814  14.131  0.2449  0.1281  0.0888
73022W        W15935  17.226  15.264  14.083 -0.1126 -0.2662 -0.3660
73023W        W15936  21.526  15.470  13.306  0.1083  0.0283  0.2548
73024W        W15937  16.850   1.989  26.010  0.1008 -0.0351  0.0708
73025W        W15938  22.481  13.453  16.157  0.3166 -0.2317 -0.1397
73026W        W15939  20.474  15.315  13.103 -0.0281  0.3152  0.0110
73027W        W15940  25.812  12.686  26.553  0.0516 -0.3089 -0.0664
73028W        W15941  11.728  12.516  14.988 -0.0363 -0.0904 -0.1309
73029W        W15942  14.408  11.927  26.011 -0.0617 -0.1484  0.0321
73030W        W15943  21.233   4.353  20.648 -0.4347 -0.3485 -0.0483
73031W        W15944  23.186   3.027  21.700  0.1043  0.1836 -0.1417
73032W        W15945  15.625  11.783  14.887  0.0490  0.1140 -0.0463
73033W        W15946  15.958   5.778  25.508  0.0634 -0.2303  0.1487
73034W        W15947  21.099   7.160  17.781 -0.2949 -0.2577  0.3824
73035W        W15948   2.784  15.132  24.838 -0.2053 -0.3782  0.4831
73036W        W15949  18.236   0.691  21.287  0.1556  0.0551  0.0606
73037W        W15950   5.039  12.273  17.499  0.0713  0.0983  0.0439
73038W        W15951  12.745  10.888  22.721  0.2116 -0.0688  0.3561
73039W        W15952   6.865  15.309  18.679  0.3106 -0.2620  0.2632
73040W        W15953  21.904   5.301  15.892  0.0477  0.2199  0.1345
73041W        W15954  14.807   5.869   4.619  0.0429 -0.1257 -0.1254
73042W        W15955   8.222   8.673  21.174  0.2891 -0.1656  0.1233
73043W        W15956  13.611  23.668  16.495  0.2845  0.0303 -0.2728
73044W        W15957   6.557  20.645  20.883  0.3197  0.1669 -0.2945
73045W        W15958  21.609   0.607  17.070  0.1562  0.1339 -0.0052
73046W        W15959  12.702  16.465  22.575  0.2639  0.2373 -0.3196
73047W        W15960   2.885  21.621  15.640 -0.0408  0.2748  0.1253
73048W        W15961  14.922  33.484  19.561 -0.0404  0.0283  0.1630
73049W        W15962  20.379  18.486  14.421  0.3147 -0.0509 -0.1114
73050W        W15963  20.871  14.470  20.154  0.2872  0.3634 -0.0305
73051W        W15964  15.059  25.802  19.684 -0.0353  0.1310  0.1164
73052W        W15965  21.193  15.968  15.304  0.0886 -0.0305  0.4137
73053W        W15966  22.250   8.457  14.073 -0.0665  0.0692 -0.1550
73054W        W15967  16.854  21.214  17.962  0.2196  0.0365  0.0653
73055W        W15968  15.449  12.810  25.363 -0.0123  0.3756  0.2145
73056W        W15969  11.489   1.261  20.025  0.3141  0.0514 -0.0660
73057W        W15970  17.259   4.478  26.182 -0.1436 -0.2475 -0.1358
73058W        W15971  32.146  12.614  16.733 -0.0295 -0.0682  0.0093
73059W        W15972  15.454   2.617  27.796  0.1375  0.2661 -0.0046
73060W        W15973   1.355   8.486  20.766  0.2893  0.1900  0.4140
73061W        W15974  22.601   8.350  14.440  0.1078  0.1876  0.0170
73062W        W15975  10.455  10.898  23.878  0.2514 -0.1377  0.0422
73063W        W15976  18.968   2.461  22.530 -0.2418  0.0348  0.1161
73064W        W15977  25.550  13.456  20.936  0.2819 -0.0925  0.0828
73065W        W15978  18.781  22.810  16.025 -0.1685 -0.0594  0.3187
73066W        W15979  16.303   0.593   1.215 -0.1050  0.3824  0.0659
73067W        W15980  13.610   3.704  24.744  0.2246  0.4149  0.3230
73068W        W15981   8.571  16.757  23.667 -0.1473 -0.0343  0.1885
73069W        W15982  20.462  11.538  20.359  0.2281  0.0075 -0.0977
73070W        W15983   5.317  19.215  24.177 -0.2450  0.0933 -0.2246
73071W        W15984  17.690   7.683  13.885 -0.1062 -0.0474 -0.0969
73072W        W15985  15.000  10.358  13.805  0.1915  0.1994 -0.0898
73073W        W15986  16.092   7.916  18.986  0.1115  0.3023 -0.0116
73074W        W15987   6.459  12.212  17.950 -0.2157  0.0101 -0.3773
73075W        W15988   3.264  18.451  16.848  0.0540  0.4535 -0.2609
73076W        W15989   9.747  22.355   2.809  0.0294  0.0380  0.0359
73077W        W15990  16.769  34.197  18.766  0.1535 -0.1460  0.0138
73078W        W15991  15.769   2.382  15.946  0.0242  0.1232  0.0754
73079W        W15992  24.479  19.462  17.453 -0.1079 -0.2803  0.0171
73080W        W15993   6.414  17.190  18.796  0.1961 -0.0834 -0.3762
73081W        W15994  18.481   9.338  24.581 -0.0703  0.3482 -0.0065
73082W        W15995  20.274  13.693  22.004  0.0295  0.1344 -0.0300
73083W        W15996  11.879  22.626   0.182 -0.2241 -0.0252 -0.2650
73084W        W15997  16.773  10.049  26.991 -0.2081 -0.0926  0.1050
73085W        W15998  23.678  21.007  17.619 -0.1643  0.0332 -0.0162
73086W        W15999  22.247   9.684  22.156  0.0438  0.1738  0.1642
73087W        W16000  13.083   0.730  25.484 -0.2925 -0.1808 -0.4204
73088W        W16001  13.218  20.359  19.655 -0.1216  0.0831 -0.0940
73089W        W16002  24.518  24.852  19.486  0.2120 -0.2395 -0.4025
73090W        W16003  19.241  10.430  17.293  0.1442  0.0520 -0.1209
73091W        W16004  15.173  14.523  22.103 -0.0342  0.2855  0.2715
73092W        W16005  22.495   6.888  27.228  0.2576 -0.1896 -0.2949
73093W        W16006  11.628  27.004  21.250 -0.0049 -0.0645 -0.1287
73094W        W16007  22.985  11.456   4.415  0.0048 -0.0093 -0.0832
73095W        W16008  19.854  10.469  17.244 -0.3203 -0.1517 -0.3297
73096W        W16009   3.274  30.930  17.462 -0.2470  0.1061  0.2129
73097W        W16010   9.941  11.956  26.992 -0.0598 -0.0043 -0.2118
73098W        W16011  26.256   3.063  16.810  0.0737 -0.0848  0.0943
73099W        W16012  11.451   9.109  18.112  0.1308  0.2281  0.1319
73100W        W16013  22.385   9.106  15.723 -0.0229 -0.0372 -0.2037
73101W        W16014  17.734  11.196  19.397 -0.2183 -0.0457  0.0456
73102W        W16015  14.055   6.214  15.842  0.0454  0.2163  0.1548
73103W        W16016   1.481   9.283  16.552  0.0403  0.2131 -0.0105
73104W        W16017  29.056  16.552  20.258 -0.1053  0.0455 -0.3182
73105W        W16018  16.067  18.410  15.580 -0.0019 -0.2334 -0.3223
73106W        W16019  26.455  21.230  17.341 -0.1811  0.1291 -0.2411
73107W        W16020  26.176  13.382  18.269 -0.0503  0.0797  0.0856
73108W        W16021  23.232   7.077   0.373  0.0111 -0.0584 -0.1196
73109W        W16022  19.003  10.353  18.689  0.0872 -0.4273  0.1783
73110W        W16023  12.160  23.332   6.166 -0.2505  0.3335 -0.2366
73111W        W16024  34.416  18.485  23.543 -0.0515 -0.1597  0.1466
73112W        W16025  15.890   9.897  14.567  0.0651 -0.0835  0.0269
73113W        W16026  17.047  12.780  20.629 -0.0244  0.0590 -0.0281
73114W        W16027  17.430  13.447  14.776  0.3655 -0.1335 -0.0189
73115W        W16028  19.929  32.903  17.382 -0.2084 -0.1028  0.1127
73116W        W16029  17.647   9.159  17.638  0.0963  0.0975  0.0699
73117W        W16030  23.394  12.328  14.226  0.0752 -0.3131  0.0501
73118W        W16031  16.505   7.977  16.041 -0.3158 -0.1419  0.2925
73119W        W16032  16.567  20.825  21.220  0.0137  0.0346 -0.1030
73120W        W16033  20.224   8.830  25.330 -0.0172  0.3670 -0.4111
73121W        W16034  16.563   0.744  15.932  0.1524  0.0418  0.1149
73122W        W16035  18.667  31.614   3.525 -0.2631 -0.2561 -0.0480
73123W        W16036  25.148   7.863  23.667 -0.1796 -0.0791 -0.5041
73124W        W16037  13.363  15.274  13.088  0.2410  0.2554  0.0725
73125W        W16038   7.556  12.065  28.616  0.1171  0.1138 -0.2016
73126W        W16039  18.462   1.628  20.469  0.3110  0.2597  0.3544
73127W        W16040   9.165   8.012  25.693 -0.1378 -0.1094 -0.0191
73128W        W16041  25.139  15.919  15.355 -0.2321  0.0232  0.1249
73129W        W16042  23.110  17.558  17.268 -0.0338 -0.2459 -0.1478
73130W        W16043  20.159   7.662  17.777  0.1834 -0.0080 -0.0654
73131W        W16044  24.855  19.090  18.412  0.1510  0.0516 -0.1725
73132W        W16045  25.318   7.250  18.286  0.2573  0.3239 -0.1009
73133W        W16046  22.648  20.305  15.935  0.3880 -0.0498 -0.4619
73134W        W16047  17.460  23.421  15.377 -0.3056  0.0621 -0.0748
73135W        W16048  15.275   6.326  19.926 -0.2689  0.1197  0.2842
73136W        W16049  24.576  16.914  16.355  0.3073 -0.1134  0.2284
73137W        W16050  14.889  12.991  15.969 -0.1955 -0.3580 -0.2724
73138W        W16051  20.286   7.250  14.770 -0.0300  0.0600 -0.1685
73139W        W16052  25.840  17.400  14.685  0.2487  0.1322 -0.0666
73140W        W16053  13.121  18.507  15.593 -0.1746  0.2238 -0.1573
73141W        W16054  16.104  13.151  15.122  0.0588 -0.1054 -0.0956
73142W        W16055  11.504  15.056  29.096 -0.0830 -0.2232 -0.1875
73143W        W16056  20.922  22.153  17.097  0.2608 -0.2232  0.1838
73144W        W16057  24.209  16.468  20.887  0.0027 -0.0553  0.1581
73145W        W16058  23.022  11.397  16.383 -0.3604  0.1783  0.0045
73146W        W16059  16.289   2.157  18.979 -0.1541 -0.0451 -0.0661
73147W        W16060  20.577  13.063  13.758 -0.1513 -0.3007  0.3219
73148W        W16061  28.259   2.596  27.282  0.0255  0.1888 -0.1884
73149W        W16062  17.231   2.060  25.624 -0.0427  0.0626 -0.0724
73150W        W16063  21.334   5.194  18.591 -0.1176  0.0768  0.1398
73151W        W16064  23.438  23.621  18.634 -0.1290  0.0041 -0.0380
73152W        W16065  11.952  15.712  19.685  0.1456  0.0766  0.0581
73153W        W16066  20.033  13.512  13.079 -0.0908 -0.0643 -0.0274
73154W        W16067  21.075  10.012  14.283 -0.2293  0.1926 -0.2332
73155W        W16068  21.444  18.139  16.599  0.0504  0.1440  0.1709
73156W        W16069  18.676   8.327  19.565 -0.1961 -0.1165 -0.1905
73157W        W16070  15.682  17.059  12.541  0.0301 -0.2329  0.2369
73158W        W16071  10.476   7.826  24.036 -0.0060 -0.2626 -0.1571
73159W        W16072  26.386  13.318  15.604 -0.0208 -0.0801  0.1670
73160W        W16073  25.584  13.214  19.078  0.0023 -0.0588 -0.1753
73161W        W16074  13.624   9.952  17.774 -0.0117 -0.1149 -0.3107
73162W        W16075   9.964   6.219  27.228  0.0647 -0.2697  0.1683
73163W        W16076  21.171   8.682  18.979  0.0248 -0.1341  0.2375
73164W        W16077  28.308  16.417   3.397  0.0659 -0.1461 -0.2892
73165W        W16078  26.010   2.665  18.792  0.3227 -0.1850 -0.2586
73166W        W16079  20.452  19.209  21.001  0.0795 -0.2003 -0.6008
73167W        W16080  31.555   2.796  19.968  0.0212 -0.2499  0.2659
73168W        W16081  13.842  10.945  27.410 -0.2268  0.1097 -0.1443
73169W        W16082  13.770  10.582  23.681 -0.0091  0.2394 -0.1228
73170W        W16083  11.609  14.527  15.878  0.1986 -0.1555  0.0692
73171W        W16084  28.274  14.582  19.750 -0.0238  0.1502 -0.1985
73172W        W16085  30.090  25.446  24.987  0.0080 -0.0428 -0.0057
73173W        W16086  11.961  17.912  16.770  0.1897  0.0027  0.1042
73174W        W16087  22.844  16.198  18.401 -0.0789 -0.1971 -0.2498
73175W        W16088  15.803  20.985   1.812  0.2417  0.3621 -0.1350
73176W        W16089  19.495  10.224   3.892  0.1259  0.0406 -0.0305
73177W        W16090   8.840  21.343  18.595 -0.2059 -0.2881  0.0396
73178W        W16091  22.699  15.538  16.273 -0.1145  0.0994  0.0859
73179W        W16092   7.529  25.810  19.957 -0.0729  0.1860 -0.1354
73180W        W16093  15.854   5.174  21.160  0.1177  0.2354  0.1995
73181W        W16094   2.641   9.995  17.965  0.0719  0.3130 -0.3339
73182W        W16095  17.689  12.518  20.213 -0.0226  0.0165 -0.0440
73183W        W16096  14.505  18.321  12.432 -0.0270  0.1691 -0.0409
73184W        W16097   7.696  15.248  17.413 -0.0431 -0.1265  0.2596
73185W        W16098  13.797  17.092  22.377 -0.1644 -0.0350 -0.1705
73186W        W16099  11.044  15.656  18.634 -0.2378 -0.2141  0.1002
73187W        W16100  12.273   4.770  27.943  0.2013 -0.1723 -0.2007
73188W        W16101  17.173  12.739  20.172 -0.1174 -0.3185  0.2731
73189W        W16102  33.664   3.085  16.739 -0.5246 -0.2888  0.1130
73190W        W16103  23.434   7.118  29.660 -0.0755  0.2030  0.0110
73191W        W16104  12.459  13.581  15.053 -0.1224  0.0754 -0.1803
73192W        W16105  12.582  16.608  12.611  0.3547  0.1699  0.1999
73193W        W16106  17.140  12.325  16.643 -0.2654 -0.2202 -0.0660
73194W        W16107  18.760   6.361  28.554 -0.0673  0.1482 -0.0006
73195W        W16108  17.307   4.474  20.411 -0.0377  0.1191 -0.1221
73196W        W16109  24.651  34.147  24.948 -0.0432  0.3321 -0.1783
73197W        W16110  16.055  22.397  18.295  0.1433 -0.0707  0.0179
73198W        W16111  18.301  13.175  22.601  0.2960 -0.0432  0.2460
73199W        W16112  20.003  12.625  13.197 -0.0205 -0.0423 -0.1135
73200W        W16113  23.291   7.578   0.211 -0.2913 -0.0284  0.0672
73201W        W16114  23.015   6.827  15.949  0.0462 -0.1276  0.3495
73202W        W16115  22.222  15.528  15.868  0.0620 -0.0259  0.2957
73203W        W16116   6.860   4.882   3.206 -0.0778 -0.4612  0.0102
73204W        W16117  26.241   3.967  22.711  0.0120 -0.0735 -0.0201
73205W        W16118  11.248   7.542  16.538  0.0120  0.0986  0.0197
73206W        W16119   7.986  10.852  15.126 -0.1391  0.0807 -0.2141
73207W        W16120  18.696  11.662  19.878  0.0916  0.3920 -0.0989
73208W        W16121  21.727   8.202  18.537 -0.0211 -0.1106 -0.2263
73209W        W16122  14.769  17.132  12.902 -0.0749  0.0172 -0.0046
73210W        W16123  27.807   8.513  23.297  0.1210 -0.1846 -0.0445
73211W        W16124  15.534  12.636  13.567 -0.1839 -0.0249  0.1744
73212W        W16125  16.118  14.642   1.058 -0.3718 -0.0359  0.1080
73213W        W16126  18.835   9.310  12.404 -0.1414  0.4818  0.1658
73214W        W16127  24.059  25.023  21.147  0.0079  0.0799 -0.1185
73215W        W16128   1.588  19.190  21.221 -0.3341 -0.1565 -0.0933
73216W        W16129  22.025  14.000  23.195  0.2795  0.0721 -0.2041
73217W        W16130  16.039  18.324   3.667  0.3349  0.1559 -0.0055
73218W        W16131  26.869  25.412  13.627  0.0359 -0.2856 -0.1402
73219W        W16132  20.767  15.420  20.378  0.2708 -0.0870  0.0021
73220W        W16133  19.560  18.908  21.889  0.0455 -0.1015 -0.0003
73221W        W16134  26.010  11.338  25.870  0.0457 -0.3307  0.1820
73222W        W16135  15.803  13.405  24.809  0.0958 -0.1868  0.0830
73223W        W16136  16.002  31.388  21.833  0.1543 -0.1976 -0.2727
73224W        W16137  30.854   3.745  29.468 -0.0463  0.0356 -0.0347
73225W        W16138  15.798   7.039  19.799  0.3440 -0.0598 -0.2110
73226W        W16139  23.206  19.749  22.738 -0.0110 -0.0124 -0.1115
73227W        W16140  14.004  22.822  16.124 -0.2464 -0.0617 -0.1618
73228W        W16141  16.790  14.700  16.079 -0.0014  0.2666  0.0077
73229W        W16142   4.291  14.934  18.225 -0.1081  0.2696 -0.1150
73230W        W16143  11.902  18.724  12.417  0.0587  0.1711 -0.0371
73231W        W16144  16.333  11.107  23.607  0.3684 -0.2790  0.2112
73232W        W16145   4.005  23.036  17.603  0.0586 -0.0689 -0.0980
73233W        W16146   6.108  16.487  25.537  0.0559 -0.1933  0.0038
73234W        W16147  11.457  19.115  13.149 -0.2978  0.0003  0.0406
73235W        W16148  11.463  17.949  15.341  0.0285  0.0181  0.0290
73236W        W16149  24.565   9.557  24.461 -0.1165 -0.0058  0.1335
73237W        W16150  10.288  14.051  29.548 -0.2812  0.1685 -0.1601
73238W        W16151  11.693   0.422  23.060 -0.1756 -0.2972 -0.0352
73239W        W16152  11.802  17.028  13.177 -0.0166 -0.1960  0.2160
73240W        W16153  26.417  11.870  13.391 -0.3466 -0.1517 -0.0295
73241W        W16154  11.556   6.638  16.507  0.1217 -0.1356 -0.0705
73242W        W16155  21.640  13.434  20.966 -0.0521 -0.1669  0.3214
73243W        W16156  14.891   8.613  14.620 -0.4112 -0.2333 -0.0571
73244W        W16157  11.591   4.673  20.559  0.3555  0.2319  0.0835
73245W        W16158  10.567  13.884  20.632  0.1508  0.0924 -0.1440
73246W        W16159   8.334  14.543  15.507  0.0287  0.0678 -0.0225
73247W        W16160  16.576   4.583  22.187  0.1788 -0.0410  0.0496
73248W        W16161  28.828  15.860  25.354  0.1243 -0.0761 -0.0595
73249W        W16162  15.584   7.442  21.384  0.0880 -0.0647  0.1038
73250W        W16163  15.577  10.648  13.637 -0.0918  0.0262  0.3160
73251W        W16164  21.670  10.768  21.067 -0.2170 -0.2730  0.0053
73252W        W16165  23.479   3.577  15.547 -0.1752  0.1110  0.2714
73253W        W16166  20.436  15.033  12.514  0.1863 -0.1070 -0.2218
73254W        W16167   9.464  10.191  15.936 -0.2568 -0.1090  0.2934
73255W        W16168  19.309  19.750  13.381  0.0968  0.1289  0.1263
73256W        W16169  17.021   8.853  20.583  0.1575 -0.2166 -0.0782
73257W        W16170   5.337  14.866  23.238 -0.1909 -0.2295 -0.0243
73258W        W16171  24.298   5.982  14.265  0.4238  0.2188  0.0886
73259W        W16172  22.970   3.485   4.738  0.2392 -0.1900 -0.0059
73260W        W16173  22.905   6.049  19.464  0.0582 -0.3904  0.0921
73261W        W16174  16.815  20.702  13.976  0.0259  0.0767 -0.1231
73262W        W16175  11.187  21.754  16.193  0.0866 -0.3638  0.2477
73263W        W16176  19.130   4.919  17.122 -0.0816 -0.0115 -0.1139
73264W        W16177  17.588   7.347  22.060 -0.1265 -0.1164 -0.2965
73265W        W16178  18.995  12.560  18.252 -0.0916 -0.2645 -0.1172
73266W        W16179  22.244  18.323  13.928  0.1315 -0.3203  0.1021
73267W        W16180  17.272   3.358  26.065 -0.2313  0.0099 -0.2451
73268W        W16181  21.101  14.919  21.628 -0.2823  0.0404 -0.1201
73269W        W16182  14.904  33.064  20.584  0.4587  0.0324 -0.0967
73270W        W16183   9.290  13.827  19.932  0.0705 -0.2121 -0.0178
73271W        W16184  17.052  16.768  14.980 -0.1566 -0.0375  0.0780
73272W        W16185   9.964  24.243  22.708  0.1513 -0.1665  0.2399
73273W        W16186  16.253  22.095  17.364  0.2278  0.0366 -0.0650
73274W        W16187  15.101  10.779   0.763  0.3726  0.0549 -0.0218
73275W        W16188  21.627   8.716  17.229  0.2622  0.1032 -0.2895
73276W        W16189  11.309  10.120  16.489  0.2117  0.2244 -0.0999
73277W        W16190  15.034   8.547  18.304 -0.1200 -0.0392  0.0797
73278W        W16191   7.385   9.029  20.292 -0.1094  0.2526 -0.0575
73279W        W16192  28.480   4.389  21.584 -0.0523 -0.1044 -0.0023
73280W        W16193  20.363  11.438  17.908 -0.0065  0.0618 -0.0432
73281W        W16194  22.522  10.141  22.567  0.0058  0.4347  0.2011
73282W        W16195  23.434  14.420  21.633 -0.0194  0.2531  0.2424
73283W        W16196  16.464   7.342  17.221  0.1433  0.2127  0.0467
73284W        W16197  10.776  19.842  17.274 -0.2976  0.0243  0.1942
73285W        W16198   9.842  19.369  14.999  0.5013  0.2347 -0.2927
73286W        W16199  13.653  14.819  19.912  0.0810 -0.0505  0.3994
73287W        W16200  21.604  17.683  15.670  0.0555 -0.0151  0.4449
73288W        W16201  12.954   9.897  15.830 -0.1117  0.1222 -0.2514
73289W        W16202  24.595   5.397  18.670  0.2109 -0.0469  0.2287
73290W        W16203  18.367   2.275  22.288  0.0481 -0.1201  0.0888
73291W        W16204  20.033  16.226  23.648  0.1307  0.2751  0.1389
73292W        W16205  27.608   6.851  17.470 -0.3568  0.0205 -0.0148
73293W        W16206  10.922  21.554  15.008 -0.0299  0.0066 -0.0358
73294W        W16207  11.734  17.366  13.635  0.1521 -0.0155 -0.0585
73295W        W16208  12.608   9.642  13.574 -0.0747 -0.0235  0.0290
73296W        W16209  22.747  10.862  16.316 -0.0369 -0.3127  0.1341
73297W        W16210  20.100  33.988  17.095 -0.1321  0.0797  0.0249
73298W        W16211   9.375  13.530  17.075  0.1874  0.0690  0.0028
73299W        W16212  26.557  31.867  14.307 -0.5123  0.0788 -0.1902
73300W        W16213  18.727  22.065  21.369  0.0193 -0.2767 -0.0889
73301W        W16214  10.590   6.910  16.512 -0.0981 -0.0679  0.0105
73302W        W16215  23.064  15.136  23.637 -0.0801 -0.0925 -0.3020
73303W        W16216  11.535   2.352  20.157  0.1999  0.0390 -0.0639
73304W        W16217   7.205  10.859   0.128 -0.0681  0.1733  0.4614
73305W        W16218  26.643  17.212  19.861 -0.0091 -0.1016 -0.0684
73306W        W16219  20.495   7.962  18.187 -0.1457 -0.3517 -0.0691
73307W        W16220  14.932  22.494  15.589  0.2015  0.0026 -0.1796
73308W        W16221  24.960  20.524  15.510 -0.1853  0.1504 -0.4060
73309W        W16222   4.880  10.652  21.601 -0.2753 -0.0466  0.1273
73310W        W16223  13.241  20.735  18.377 -0.0816 -0.3187  0.0605
73311W        W16224  26.360   4.919  16.659 -0.0305 -0.0268  0.0156
73312W        W16225  17.450  14.529  13.599  0.0442 -0.0212  0.0722
73313W        W16226  20.999  30.084  25.912  0.2405  0.0163 -0.0148
73314W        W16227   8.360  11.850  23.746  0.0651 -0.1559  0.3278
73315W        W16228  18.382  13.859  12.663  0.2012 -0.1457  0.2069
73316W        W16229  16.085  11.529  24.915  0.3935  0.0964 -0.3135
73317W        W16230   2.272   6.467  18.447 -0.0677 -0.1318  0.0651
73318W        W16231  16.057  14.609  15.493 -0.0337  0.1211  0.0814
73319W        W16232  14.759  12.672  18.789  0.3002  0.0773 -0.0710
73320W        W16233  18.372  16.625   2.782 -0.2357 -0.0761  0.0261
73321W        W16234   7.389   0.869  26.303 -0.2502  0.0535  0.0556
73322W        W16235  22.185   8.607  14.616 -0.1997  0.2077  0.0060
73323W        W16236  22.124   5.250  18.500  0.1062 -0.0166 -0.0411
73324W        W16237  25.036  10.903  26.721  0.0762  0.1336 -0.0777
73325W        W16238   0.033  13.239   7.531  0.2003 -0.0175  0.1602
73326W        W16239  13.322  10.546  17.802 -0.4921 -0.0353  0.4492
73327W        W16240  22.301   9.867  21.108 -0.0316 -0.0116  0.3312
73328W        W16241  11.702  32.494  24.060 -0.0123  0.0428 -0.0473
73329W        W16242  30.713  21.259   2.008 -0.0564 -0.0763  0.3807
73330W        W16243   2.840  13.478  15.866  0.0821 -0.1912 -0.0304
73331W        W16244  13.223   5.972  17.209 -0.4011  0.0034  0.2937
73332W        W16245  22.911  15.640  12.288 -0.1701 -0.0718  0.3126
73333W        W16246  18.303   9.637  14.912  0.1140 -0.2720 -0.3464
73334W        W16247  13.214  11.950  16.207 -0.0013 -0.0678 -0.2844
73335W        W16248   8.576  34.060  25.574  0.2472 -0.0692  0.1921
73336W        W16249  11.452  14.056  13.456  0.1443 -0.0837 -0.2107
73337W        W16250  10.638  19.863   1.340  0.2765  0.0238  0.3745
73338W        W16251   9.459   4.891  28.630  0.2835 -0.3079  0.3702
73339W        W16252  21.504  11.098  29.379  0.0394 -0.1446 -0.2474
73340W        W16253  21.012  17.595  20.859 -0.1336 -0.0660  0.2124
73341W        W16254  17.459   4.216   2.252 -0.1910 -0.2454 -0.2045
73342W        W16255  16.584   1.318  23.643  0.0346  0.1076 -0.0747
73343W        W16256   9.741  22.096  16.563 -0.1284 -0.3856  0.0770
73344W        W16257  11.226  19.920  20.630 -0.0969 -0.0439 -0.2903
73345W        W16258   6.622   5.311   9.200  0.0806 -0.2433 -0.1241
73346W        W16259  10.895  27.293   5.477 -0.0174 -0.0400 -0.0127
73347W        W16260  22.037   9.629  27.165 -0.5222  0.2038 -0.2010
73348W        W16261  12.186   8.587  25.282  0.2799  0.3921 -0.1677
73349W        W16262  14.676  11.615   0.207  0.2059  0.1982 -0.3653
73350W        W16263  23.751   5.266  21.583  0.2114 -0.2270  0.1838
73351W        W16264  26.525   9.849  23.804  0.3932  0.0800 -0.0157
73352W        W16265  29.818  13.405  21.419  0.1916  0.2856 -0.0780
73353W        W16266  28.365  14.842  13.767  0.0864 -0.2134 -0.0505
73354W        W16267  28.983  17.160  20.544 -0.4026  0.0919 -0.0327
73355W        W16268  10.445  21.971  18.261 -0.0631 -0.0246  0.2564
73356W        W16269  21.126  34.226  14.249  0.2124  0.0281  0.0750
73357W        W16270  20.573  10.219   0.698 -0.0792 -0.0800  0.1207
73358W        W16271   6.756  10.324  29.760  0.2819  0.5181  0.1232
73359W        W16272  25.115  13.870  15.885 -0.3336  0.1065 -0.1983
73360W        W16273  10.364   2.599  21.176  0.0497 -0.0456 -0.0095
73361W        W16274  16.291  26.463  14.996 -0.0718 -0.0684 -0.3121
73362W        W16275  12.114  12.034  19.286  0.2847 -0.1933 -0.0250
73363W        W16276  10.488  11.486  22.945  0.0637  0.1808  0.3216
73364W        W16277  22.762   8.585  22.916  0.1707  0.0838  0.0096
73365W        W16278  20.218  34.034  22.710  0.1654 -0.2978  0.0700
73366W        W16279  11.590   8.596  15.136  0.0513 -0.0448 -0.2766
73367W        W16280  16.201  12.058  26.385 -0.1785  0.0169  0.0122
73368W        W16281   0.650  13.632  27.654 -0.0741  0.1597  0.1491
73369W        W16282   9.087   7.512  25.705 -0.2093  0.1571 -0.0651
73370W        W16283  16.522  14.008  12.743 -0.1246 -0.2054 -0.2244
73371W        W16284  32.238  15.789  26.907  0.1743 -0.1597 -0.1411
73372W        W16285  22.776   5.861  28.705 -0.3025 -0.0299 -0.1562
73373W        W16286   7.537  12.714  26.697 -0.2319 -0.1382  0.4124
73374W        W16287  10.846  14.560   4.586 -0.0158 -0.2193  0.0899
73375W        W16288  12.645  16.093  20.243 -0.0267 -0.2231 -0.1347
73376W        W16289   7.883  20.567  15.610  0.0022  0.0298  0.0042
73377W        W16290  19.206   5.888  24.964  0.2653 -0.0341 -0.2881
73378W        W16291   9.333   8.974  27.186  0.1366  0.2299 -0.1212
73379W        W16292  29.075  10.825  19.047  0.1175 -0.1396  0.4214
73380W        W16293  11.732  34.448  23.794 -0.0078 -0.5077  0.0404
73381W        W16294  24.998  20.834  15.083 -0.4244  0.1176  0.1335
73382W        W16295  17.977   9.761  25.759 -0.0131 -0.0682  0.2337
73383W        W16296  15.265   8.097  25.878 -0.5318  0.0561 -0.2914
73384W        W16297  16.615   9.491  24.578 -0.2071  0.4810  0.0243
73385W        W16298  15.773  16.152  15.229  0.1381 -0.0729 -0.0294
73386W        W16299  15.936  13.148   1.290  0.2598  0.0766 -0.0935
73387W        W16300  20.819  12.836  15.817  0.1199 -0.0568 -0.2760
73388W        W16301  21.593   2.533  19.082 -0.0459  0.0718 -0.0165
73389W        W16302  27.543  12.905  24.420  0.2710 -0.1060 -0.1826
73390W        W16303  13.780   7.227  22.233 -0.2889 -0.0586  0.1339
73391W        W16304  18.380  11.609   0.495 -0.0778  0.0723 -0.1962
73392W        W16305  14.875   6.494  22.461  0.1286  0.0696 -0.0578
73393W        W16306  10.057  11.567   2.281 -0.1094  0.0834  0.2292
73394W        W16307  20.735   5.094   1.689  0.2635 -0.3699 -0.1444
73395W        W16308  25.864   7.947  27.261 -0.0884  0.0770  0.0798
73396W        W16309  16.491  19.199  27.613 -0.1856 -0.0875  0.0024
73397W        W16310  19.254   9.370  24.018 -0.3553 -0.0110 -0.0103
73398W        W16311  16.851  10.018  13.242  0.0336 -0.2375 -0.2177
73399W        W16312  20.474  13.175   1.501  0.0332 -0.1674 -0.0653
73400W        W16313  18.520  15.136  22.599 -0.2205 -0.0375 -0.1910
73401W        W16314   6.502  12.903  24.906  0.4172 -0.1409  0.1161
73402W        W16315  12.264   7.942  24.041 -0.1538 -0.2401  0.0096
73403W        W16316  15.271  14.056  17.540  0.0058  0.1813 -0.1517
73404W        W16317   6.282   8.439  27.219  0.0550  0.2740 -0.0511
73405W        W16318  14.766  13.170  26.258  0.0505  0.3966  0.1317
73406W        W16319  26.110  14.435  21.309  0.1676  0.1295 -0.1265
73407W        W16320  12.981  13.105  23.045 -0.2276  0.0492 -0.1604
73408W        W16321   9.283  14.838  18.845 -0.3205 -0.3236  0.0881
73409W        W16322   8.922  15.245  27.614 -0.1806 -0.0317  0.0427
73410W        W16323  20.233  20.308   6.942  0.4029  0.0700 -0.2104
73411W        W16324  13.355   1.895   0.047  0.0699 -0.0523  0.2998
73412W        W16325  16.188  10.022  27.830  0.1724 -0.0908 -0.1206
73413W        W16326  11.216   3.947   4.313  0.3917  0.1410  0.2549
73414W        W16327  15.288  11.145  26.537 -0.1779 -0.3340 -0.0672
73415W        W16328  17.682  13.012  23.812  0.0272  0.3676 -0.1946
73416W        W16329  23.400  14.836  23.912 -0.0785  0.6078  0.3821
73417W        W16330  17.082  13.185   0.790  0.1124  0.1510 -0.0322
73418W        W16331  13.529  14.847  13.003  0.0920  0.0581  0.0761
73419W        W16332  21.417   4.557  24.548  0.0013 -0.2170  0.1602
73420W        W16333  22.406   6.599  28.146 -0.2010  0.0313 -0.1595
73421W        W16334  25.726   2.213   2.311  0.0716  0.0763  0.4588
73422W        W16335   8.595  26.586  19.667 -0.1522  0.1024 -0.1071
73423W        W16336   8.110   7.986  20.227  0.0523  0.3991 -0.1010
73424W        W16337  14.193   8.511  14.420  0.0836  0.2234  0.0666
73425W        W16338   8.179   9.026  19.427  0.3635  0.0628 -0.1137
73426W        W16339  11.533  18.064  19.338 -0.0679  0.2160  0.2079
73427W        W16340  15.436   8.679  29.083 -0.1019 -0.5037 -0.0410
73428W        W16341   5.467  10.632  25.168 -0.0383 -0.0660 -0.0096
73429W        W16342  15.812   6.105   1.149 -0.0666  0.1893 -0.1353
73430W        W16343  15.526   8.706  27.593  0.1510  0.2474 -0.1565
73431W        W16344  15.646   4.017  19.176 -0.3250 -0.2583  0.2584
73432W        W16345  25.213  14.481  22.334  0.0616 -0.0270 -0.0959
73433W        W16346  10.649  21.999  22.262 -0.0546  0.2605  0.0154
73434W        W16347  26.098  10.132   0.720  0.2380 -0.1224 -0.0188
73435W        W16348  17.137  16.021  14.277 -0.1163 -0.2559 -0.0541
73436W        W16349  19.115  12.459  20.681  0.1842 -0.1262  0.0507
73437W        W16350  13.073  14.771   3.734 -0.1525 -0.0322 -0.0277
73438W        W16351  10.792  12.712  25.568 -0.2243  0.1361 -0.1940
73439W        W16352  28.597  14.248  19.327  0.1743 -0.0410 -0.0668
73440W        W16353  27.276  13.134  23.449  0.2774 -0.2656  0.1085
73441W        W16354   9.650  21.459  26.793  0.0629  0.0216 -0.0004
73442W        W16355  17.123  17.716  27.345  0.0596  0.2484  0.1164
73443W        W16356  19.967  10.856  21.028  0.0482 -0.1938 -0.1208
73444W        W16357  22.591   3.801  23.147 -0.1432  0.1633  0.1876
73445W        W16358   5.269  16.898  14.572  0.0790  0.2101 -0.1558
73446W        W16359  25.475  20.705  26.163 -0.1938  0.1609 -0.0125
73447W        W16360  19.061  11.764  21.662  0.1699  0.0780  0.2756
73448W        W16361  16.665   9.209  20.335  0.0128  0.3799  0.1175
73449W        W16362  14.835  15.596  22.527  0.1033  0.1936  0.1188
73450W        W16363  25.519   1.282   3.749 -0.0479  0.0206 -0.3908
73451W        W16364   8.519  16.037  19.481 -0.1215 -0.2105  0.3034
73452W        W16365  22.472   3.857  17.467  0.0657 -0.0370 -0.1824
73453W        W16366  21.290  17.910  25.160  0.1473 -0.0912  0.2985
73454W        W16367  11.840  10.720  25.447  0.0361  0.2224  0.1902
73455W        W16368  25.262  10.279  21.958 -0.6422  0.0849 -0.1030
73456W        W16369   5.271  14.081  24.815 -0.2518  0.0658  0.0107
73457W        W16370   7.631  17.182  22.412 -0.2721 -0.0102  0.0216
73458W        W16371   4.866   6.912  25.518  0.3145 -0.1244 -0.0233
73459W        W16372  17.016   8.523  14.219 -0.2256  0.3555  0.0775
73460W        W16373  20.037  11.915  23.361 -0.1232  0.0760 -0.2839
73461W        W16374  19.885  16.656  24.832  0.1666 -0.0403 -0.1967
73462W        W16375   9.190  21.087  14.728  0.0080 -0.2123 -0.1579
73463W        W16376  27.909   7.449  23.043 -0.0441 -0.2098 -0.0249
73464W        W16377  21.536  14.806  19.419  0.4155 -0.1317 -0.2700
73465W        W16378  14.538  12.427  19.300 -0.0459  0.2285 -0.0925
73466W        W16379   5.705   8.584  18.495  0.1006 -0.0106  0.1256
73467W        W16380  15.866   3.206  23.337 -0.0769 -0.1788  0.1637
73468W        W16381  16.672   8.518  16.769 -0.0570  0.0083  0.2184
73469W        W16382  16.156  13.501  20.791 -0.1275  0.1167 -0.2567
73470W        W16383  10.797  14.809  15.150 -0.0220 -0.0621  0.0411
73471W        W16384   9.028   4.249  26.964  0.0928 -0.3867 -0.0435
73472W        W16385  12.088  12.613  22.127  0.0198  0.0196 -0.0429
73473W        W16386  21.588   5.994  20.507 -0.1725  0.0380 -0.1133
73474W        W16387  14.990  22.062  26.209  0.0995 -0.0423 -0.0557
73475W        W16388  23.765   3.373   4.736 -0.0966  0.0713 -0.1131
73476W        W16389  14.011   4.887   1.396  0.0940 -0.1410 -0.0890
73477W        W16390   4.651  12.012  19.629 -0.0513  0.0131 -0.0231
73478W        W16391  18.990   8.151  16.547 -0.0069 -0.2313  0.2251
73479W        W16392  11.885  31.505   2.621 -0.0273 -0.1242  0.2294
73480W        W16393  13.394  12.665  22.240 -0.1317  0.1273 -0.0620
73481W        W16394   7.653   4.149  19.817  0.1013  0.0935  0.0563
73482W        W16395  25.522  13.277  27.915  0.0477  0.1635 -0.1080
73483W        W16396  16.583  12.514   2.823 -0.0169  0.0550  0.3070
73484W        W16397  19.526   3.676   5.697  0.1752 -0.0641  0.0955
73485W        W16398  19.184   8.563  26.247 -0.1514  0.1565 -0.0888
73486W        W16399  18.911   2.120  19.047 -0.1208 -0.0102 -0.1123
73487W        W16400   9.869   6.963  25.610 -0.4052 -0.0526  0.2897
73488W        W16401  15.855  14.729  14.963 -0.0731  0.1033 -0.0965
73489W        W16402  23.935  15.285   1.385  0.1416 -0.0140  0.3283
73490W        W16403  12.981  10.568  14.811  0.3122 -0.0580  0.1844
73491W        W16404  22.602  19.515  14.139  0.3269  0.0458  0.1666
73492W        W16405   2.919  10.472  18.179 -0.2082 -0.3541  0.0251
73493W        W16406  16.345  16.048  25.151  0.1465  0.0659  0.0794
73494W        W16407  10.787  16.400  17.278  0.0173 -0.1286  0.2473
73495W        W16408  15.200   5.027  15.610  0.0454  0.1513  0.1645
73496W        W16409  15.840   4.630  28.503 -0.2551 -0.2072 -0.1885
73497W        W16410  26.316  23.541  15.700  0.0106  0.3066 -0.1363
73498W        W16411  19.935  10.845  18.694 -0.3661  0.1894  0.1040
73499W        W16412  19.155  13.544  16.807 -0.2690 -0.0246 -0.3232
73500W        W16413  19.675   6.470  20.438 -0.0052 -0.0776 -0.1610
73501W        W16414  23.192  16.222  12.902 -0.0489  0.3611 -0.0430
73502W        W16415  16.727   2.373  21.174  0.0321 -0.0644 -0.1327
73503W        W16416  12.714  19.815  20.407  0.1493 -0.2672 -0.2593
73504W        W16417   8.265  13.511  19.050  0.0778 -0.1441 -0.2347
73505W        W16418   7.156  33.456   2.737  0.1421  0.3345  0.1473
73506W        W16419  27.010  11.914  18.660  0.0019 -0.1730  0.0504
73507W        W16420  15.227   4.427  29.453  0.2291  0.1748  0.1965
73508W        W16421  12.160  31.090  26.031  0.0829 -0.0222  0.0705
73509W        W16422  12.704   8.970  20.164 -0.2495 -0.0915  0.2153
73510W        W16423  19.136  11.286  21.663 -0.1895  0.1296 -0.3456
73511W        W16424  12.369   7.636  16.760  0.1115 -0.0922  0.1440
73512W        W16425  22.259   9.268   5.202  0.0374  0.0521 -0.0524
73513W        W16426  15.664  11.704  17.142  0.0195 -0.0502  0.2123
73514W        W16427   7.404   5.525  27.209 -0.2576  0.1560 -0.2958
73515W        W16428  22.810  11.135   3.089  0.2684  0.2919  0.0048
73516W        W16429   4.408  13.999  20.873 -0.0102 -0.1204 -0.4201
73517W        W16430  17.969   7.743  27.979 -0.0860  0.3146 -0.1003
73518W        W16431  17.430  33.596  18.530 -0.1426 -0.0506 -0.2479
73519W        W16432  28.792  15.100  17.939  0.1469 -0.1617 -0.2076
73520W        W16433  31.061  17.438  14.735 -0.3057  0.1239  0.0397
73521W        W16434  26.812  16.687  24.588  0.0481  0.0897 -0.0888
73522W        W16435  21.234   4.131   0.535  0.2529  0.0809  0.1982
73523W        W16436  10.930  13.165   3.721 -0.1248  0.1437 -0.0291
73524W        W16437  30.231  15.380  21.321  0.3192  0.0075  0.1559
73525W        W16438  14.506  12.416  22.446  0.2106  0.1184 -0.0955
73526W        W16439  20.061  15.968  13.928 -0.1582 -0.0568  0.0227
73527W        W16440  12.850  10.367  27.868 -0.1176 -0.2020 -0.1856
73528W        W16441   7.097  13.856   7.748 -0.1606  0.0448 -0.0266
73529W        W16442  17.005  13.498  24.019  0.1534 -0.0908  0.0257
73530W        W16443  15.967   0.429  18.300  0.0655  0.0034  0.0567
73531W        W16444  24.173  19.921  19.180  0.3172  0.1259 -0.0291
73532W        W16445   9.384  13.358  24.556 -0.0426  0.0613 -0.3493
73533W        W16446  11.749   8.269  20.036 -0.0282 -0.1509  0.2228
73534W        W16447  16.452  32.302  25.074  0.1024 -0.0388 -0.0497
73535W        W16448  20.167  33.070  23.565  0.0088  0.1739 -0.2977
73536W        W16449  10.002  21.794  28.052 -0.0302  0.2077 -0.4902
73537W        W16450  25.953  20.964  23.892  0.0212  0.1964 -0.1389
73538W        W16451  10.906  18.633  15.810 -0.4041  0.2082 -0.1343
73539W        W16452  17.658  14.806  28.784 -0.0279  0.0579  0.3440
73540W        W16453  13.185   3.979  24.698 -0.3118  0.2472 -0.2556
73541W        W16454  16.902  12.490  21.022  0.1983 -0.0379  0.0173
73542W        W16455  16.230   8.382  15.784  0.3614 -0.1706 -0.1958
73543W        W16456  18.596   7.954   1.224  0.1490 -0.3824 -0.0384
73544W        W16457  20.932  11.819  15.424  0.1198  0.4384 -0.1075
73545W        W16458  25.844  27.484  28.838 -0.0969  0.0497 -0.2654
73546W        W16459  11.130   8.366   2.857 -0.3287  0.2013 -0.2007
73547W        W16460  13.172  12.450  28.232  0.3638  0.2144 -0.1609
73548W        W16461  15.643   9.577  18.468 -0.0476  0.2539  0.1954
73549W        W16462  12.984   2.869  22.293  0.0314 -0.1776  0.0776
73550W        W16463   5.055  14.493   5.113  0.2502  0.4144  0.0644
73551W        W16464  11.892  12.325  24.515  0.4854 -0.1162  0.0706
73552W        W16465  26.480   8.936   5.679 -0.3363 -0.2104  0.0635
73553W        W16466  15.782  12.975  21.405 -0.3576 -0.1701 -0.3252
73554W        W16467  12.861   9.810  20.933 -0.3964 -0.2946 -0.3330
73555W        W16468  18.105  18.066  26.185 -0.1600 -0.4159 -0.1498
73556W        W16469  13.820   5.714  17.488 -0.3866  0.3830  0.2017
73557W        W16470  15.284  15.983  27.679  0.1203  0.2055 -0.1509
73558W        W16471  14.669  12.805  26.625  0.0756 -0.0697 -0.0932
73559W        W16472   9.376  27.850   0.211  0.2375  0.0240  0.4001
73560W        W16473   2.025  12.715  17.322 -0.2086  0.3015 -0.0066
73561W        W16474  24.777  12.889  21.077  0.3779  0.0122 -0.2676
73562W        W16475  25.276  12.521  16.683 -0.2482 -0.2133  0.1134
73563W        W16476  10.333  16.718  25.894 -0.2917 -0.1525  0.1205
73564W        W16477  17.260  23.346  27.027 -0.2640 -0.2915  0.0785
73565W        W16478  14.660   4.515   1.028 -0.1704 -0.0012 -0.0128
73566W        W16479  13.139  13.548  21.583  0.0999  0.0505 -0.0173
73567W        W16480  17.834   6.341  21.877  0.0662 -0.3785  0.0153
73568W        W16481  16.976   9.096  26.716 -0.0226 -0.0223  0.3497
73569W        W16482  24.825  18.839  27.017  0.1070  0.0573  0.1055
73570W        W16483  11.523  11.799  23.010  0.1189 -0.1515 -0.3309
73571W        W16484  23.815  20.657  22.013 -0.1776  0.1391  0.2621
73572W        W16485  10.043   5.526  25.960  0.1436  0.4723  0.2442
73573W        W16486   2.040  10.970  16.377 -0.1242  0.1988 -0.0077
73574W        W16487  24.804  15.939  13.047 -0.3848  0.0387  0.1123
73575W        W16488  14.449  13.175  28.858 -0.2348  0.0609  0.0213
73576W        W16489  22.794   2.321  19.865 -0.1699 -0.0294  0.0891
73577W        W16490  15.253  19.586  13.726 -0.0285  0.3152 -0.1527
73578W        W16491   6.740  10.601  22.074 -0.1202  0.0222 -0.0031
73579W        W16492  21.516  21.346  14.827 -0.0348 -0.1856  0.1564
73580W        W16493   6.505  16.714  25.738  0.0151  0.0143  0.2373
73581W        W16494  14.307  11.041  24.802 -0.0282 -0.1177 -0.1326
73582W        W16495  19.736   7.547   0.914 -0.1943  0.1872 -0.0377
73583W        W16496  24.520   6.909  13.836  0.1856 -0.0454 -0.0094
73584W        W16497  15.433  11.882  26.013 -0.0735  0.0073 -0.0641
73585W        W16498  26.128  17.983  13.268 -0.0055 -0.0909 -0.1293
73586W        W16499  23.330  15.749  13.017 -0.1530 -0.4048  0.0416
73587W        W16500  10.555  19.746  21.280 -0.0464 -0.2109  0.3947
73588W        W16501  13.583   7.039  19.364  0.0312  0.0192 -0.1658
73589W        W16502  15.930   9.170  26.262 -0.0012  0.0340 -0.0037
73590W        W16503   3.919   6.722  17.425  0.1377 -0.1832  0.0631
73591W        W16504  11.964   9.451  21.782 -0.0990 -0.1651 -0.3139
73592W        W16505  22.670  11.193  17.772 -0.0018  0.0374 -0.1651
73593W        W16506  10.587  12.501  21.937 -0.0446  0.3079  0.0665
73594W        W16507   6.311   2.454  24.573 -0.0252  0.0178 -0.1350
73595W        W16508   8.192  13.777  26.101 -0.0584  0.0682  0.0109
73596W        W16509  22.661  17.291  15.890  0.1357 -0.1232  0.2260
73597W        W16510  16.071   9.720  23.061 -0.1291 -0.0475 -0.2473
73598W        W16511  19.754  14.086  17.672 -0.0086  0.6385  0.1602
73599W        W16512  29.504  17.106  25.020 -0.1088  0.0235  0.1408
73600W        W16513   3.536  12.842  24.639  0.0477  0.2265 -0.0584
73601W        W16514   8.291  14.030  17.337 -0.0726 -0.0901 -0.1880
73602W        W16515   8.251  16.828  19.669 -0.0115  0.0211 -0.0002
73603W        W16516  10.343  24.566  19.081 -0.0746 -0.0763 -0.0007
73604W        W16517  17.987  18.697  25.426  0.0062 -0.0098  0.1390
73605W        W16518  14.474  16.571   1.065  0.5221 -0.1625  0.0835
73606W        W16519  15.186   7.193  18.062 -0.2583  0.3055 -0.3767
73607W        W16520  21.283  15.888  28.377 -0.1833 -0.1745  0.0232
73608W        W16521  15.246   3.105  23.272 -0.0642 -0.0135 -0.0917
73609W        W16522   9.883   9.660  21.819  0.0297 -0.1022 -0.5663
73610W        W16523   0.101   6.687  19.835  0.2934  0.1648 -0.2128
73611W        W16524   9.460  16.979  27.951 -0.1096 -0.1757 -0.1114
73612W        W16525  26.621  20.259  27.349  0.3681  0.0717  0.0780
73613W        W16526  15.769   8.791  28.053 -0.3047 -0.0257  0.2044
73614W        W16527  22.292  11.400  13.337  0.0664 -0.0767 -0.1566
73615W        W16528   1.069   5.578  27.299  0.1249 -0.1023  0.0962
73616W        W16529  26.989   8.847  26.449 -0.2116  0.3693 -0.0326
73617W        W16530   9.306  32.982  16.756  0.2110  0.0876 -0.1720
73618W        W16531  19.437  15.113  26.143  0.3562 -0.2716 -0.1929
73619W        W16532  21.355  18.869  13.024 -0.2746 -0.0901  0.0518
73620W        W16533  21.975   9.862  19.683  0.0513  0.3005 -0.4919
73621W        W16534  26.203  16.311  23.999 -0.2697  0.1995  0.2229
73622W        W16535  25.859  12.833  19.317  0.3690 -0.1620 -0.3701
73623W        W16536  33.215   9.901  21.068 -0.0418 -0.0492  0.0110
73624W        W16537  26.236  13.015  16.400  0.1884 -0.2716  0.1238
73625W        W16538  14.960  18.933  14.342  0.0087 -0.3508  0.4017
73626W        W16539  19.627   9.321   4.026  0.0020  0.3419  0.0158
73627W        W16540  13.270   8.987  24.077  0.0772 -0.0173 -0.0895
73628W        W16541   3.600  14.314  19.855 -0.0128  0.2405 -0.2390
73629W        W16542  12.924   4.021  28.099  0.0628 -0.0791  0.1129
73630W        W16543  26.336  15.959  23.437  0.2943  0.0918  0.0423
73631W        W16544  15.900   8.465  26.175  0.0307 -0.5100  0.1454
73632W        W16545   8.116  10.025   0.082  0.1455  0.0302  0.3376
73633W        W16546  17.676   7.952   0.845 -0.0375  0.3001  0.5624
73634W        W16547  23.856  11.621  16.515  0.2214  0.1667  0.0518
73635W        W16548  17.679   8.808  26.040  0.4224  0.1805 -0.1071
73636W        W16549  21.317   9.396  27.151  0.1688  0.0900  0.1573
73637W        W16550   9.851  14.994  16.623 -0.1359 -0.1226  0.0458
73638W        W16551  27.787  22.708  15.144  0.0062 -0.1326 -0.1576
73639W        W16552   8.380   3.637  19.510 -0.1311 -0.1867  0.0752
73640W        W16553   4.182  14.470  19.507 -0.0526  0.0744  0.1451
73641W        W16554   8.888   3.646  23.183  0.1266  0.1346  0.0876
73642W        W16555  17.226  16.893  13.283 -0.1994  0.0486  0.1690
73643W        W16556   7.872   2.942  18.638 -0.2760  0.2884  0.1357
73644W        W16557   8.014   2.189   1.105 -0.1071 -0.2665 -0.2006
73645W        W16558  16.594  10.349  26.547  0.0480 -0.0375 -0.2352
73646W        W16559   7.021   4.869  18.991  0.0085 -0.3103  0.0582
73647W        W16560  20.095   1.525  28.912  0.1528 -0.2123  0.2689
73648W        W16561  24.593   8.911  18.319  0.0944  0.0230  0.3776
73649W        W16562  18.705   8.413  18.121  0.2426  0.0951 -0.1525
73650W        W16563  25.703  19.663   2.798 -0.2621 -0.1582 -0.0845
73651W        W16564  29.639  15.328  25.582 -0.2071 -0.1603 -0.2507
73652W        W16565  11.794  33.059   5.141  0.1960 -0.1945 -0.1184
73653W        W16566  10.273  16.454  25.415  0.1035 -0.1296  0.0594
73654W        W16567   6.410  14.160  23.705 -0.2907 -0.2230  0.0357
73655W        W16568  12.843   8.813  24.292  0.3264 -0.1323  0.0902
73656W        W16569  22.017  17.015   7.752  0.1360 -0.2217 -0.0927
73657W        W16570  15.705  26.651  16.123  0.0834  0.1017 -0.1634
73658W        W16571  11.224  10.196  27.983  0.2907 -0.3150  0.0720
73659W        W16572   7.859   3.009   3.374 -0.1270 -0.1948 -0.1581
73660W        W16573  18.794  13.871   1.657  0.0083  0.1421  0.0984
73661W        W16574  13.264  11.579  22.133  0.1444  0.1274  0.2074
73662W        W16575  15.996  10.610  22.915 -0.2700  0.0644  0.0541
73663W        W16576  19.006  13.344  21.998  0.0247 -0.0016  0.0175
73664W        W16577  14.921   2.538  21.142  0.3307 -0.1021 -0.0526
73665W        W16578  25.919  28.178  14.821  0.0675  0.1877 -0.0392
73666W        W16579  20.778  19.853  21.713 -0.1917 -0.1444 -0.1027
73667W        W16580  12.868  13.530  20.759  0.2133  0.1489 -0.2251
73668W        W16581  10.789  13.323  21.000  0.2238 -0.2933 -0.1954
73669W        W16582  21.589  14.026  17.005 -0.2019  0.0028 -0.0698
73670W        W16583  16.588  14.177  24.678 -0.1800 -0.0436  0.0391
73671W        W16584  24.293   5.597  14.565  0.1193  0.1453 -0.1032
73672W        W16585  12.416  22.894  21.049  0.1330  0.1843  0.1701
73673W        W16586  15.292  10.196  25.281  0.1242  0.3522  0.2026
73674W        W16587  15.049  21.023  28.685  0.2327  0.2929 -0.2952
73675W        W16588  12.285  14.585  16.325 -0.0868 -0.0803  0.2892
73676W        W16589  17.884  12.049  21.421  0.3413  0.1571  0.0914
73677W        W16590  13.673   8.413   0.176  0.3316 -0.0822  0.1866
73678W        W16591  20.179   0.782  17.284 -0.1061 -0.3108  0.3018
73679W        W16592  16.965  10.376   2.217  0.1350 -0.0754 -0.1933
73680W        W16593  27.124  18.951  29.270  0.0673 -0.1553 -0.1076
73681W        W16594  15.170   4.239  21.610  0.2493  0.1355  0.0884
73682W        W16595  16.394  13.160  17.073 -0.1738  0.2191  0.3876
73683W        W16596  20.940   2.809  27.029  0.0297  0.0154 -0.1384
73684W        W16597  14.803  19.763  16.537 -0.2314 -0.0198  0.2135
73685W        W16598  11.917  14.478  18.312 -0.1351  0.1431  0.2841
73686W        W16599   8.734   9.809  17.095 -0.0329  0.3432  0.2339
73687W        W16600  17.585  18.340   0.643 -0.1789  0.3623 -0.0574
73688W        W16601  17.014  10.476  13.692 -0.1140  0.0428 -0.0592
73689W        W16602  21.290  10.372   1.550  0.2963  0.2586  0.3754
73690W        W16603  15.269  19.395  24.316  0.0010 -0.0829 -0.0351
73691W        W16604  12.970  31.154  28.149 -0.0240  0.0338  0.3284
73692W        W16605  14.119  14.497   8.181  0.2050  0.0731  0.0868
73693W        W16606   8.635   9.520  25.989 -0.0188 -0.2078 -0.1495
73694W        W16607  14.264  13.439  29.676  0.2307  0.1633  0.1177
73695W        W16608  12.889  17.081   2.718  0.1234 -0.1291 -0.2345
73696W        W16609  10.390  30.459  20.750 -0.1621 -0.0934 -0.0579
73697W        W16610   9.207  14.399  15.542  0.2820 -0.0436  0.0307
73698W        W16611  12.411   4.783  20.008 -0.0793 -0.0492  0.0563
73699W        W16612  32.810   6.557   6.613  0.0484 -0.2584 -0.0286
73700W        W16613  12.875   6.655   2.724 -0.1800  0.3155  0.0027
73701W        W16614  21.234  15.441   8.486 -0.0630  0.1004 -0.1119
73702W        W16615  27.644   9.199   4.117  0.0343  0.1474  0.0249
73703W        W16616  21.176  19.778  26.817 -0.0109  0.0519  0.0766
73704W        W16617   6.855   7.908  18.189 -0.0889  0.0110 -0.2904
73705W        W16618  17.011  12.468  19.423  0.0473  0.1985  0.2266
73706W        W16619  10.390  14.705  13.416  0.1417 -0.0421 -0.1464
73707W        W16620  19.622  12.718  26.202  0.2977  0.0746  0.1713
73708W        W16621  17.458  14.734  24.498  0.0955  0.0534  0.3045
73709W        W16622   7.254  10.795  23.766  0.0990 -0.3629  0.0654
73710W        W16623  19.051   2.585  25.816 -0.2485 -0.0067 -0.1414
73711W        W16624  10.448  13.891  26.578 -0.2713  0.2186 -0.0779
73712W        W16625  14.985  18.492   0.639  0.0133  0.1420  0.0556
73713W        W16626  31.437   3.628  28.979  0.2289  0.3766 -0.1337
73714W        W16627  18.796  12.921   3.748  0.0547  0.5636 -0.3826
73715W        W16628  21.319  22.243  28.475 -0.6108 -0.0254  0.2253
73716W        W16629   7.257   3.994  28.460 -0.0480 -0.1838 -0.0365
73717W        W16630   4.156  18.689   3.603 -0.3072  0.0576  0.2426
73718W        W16631  14.720  10.640  18.429 -0.0995  0.2857  0.0861
73719W        W16632   3.738   2.348   4.621 -0.0155  0.2436  0.1763
73720W        W16633  13.980  10.410  18.456  0.0117  0.0191  0.1437
73721W        W16634  21.463  12.576   4.786 -0.1460 -0.5035 -0.1593
73722W        W16635  12.272  13.163  17.655 -0.2504  0.0102  0.2367
73723W        W16636  15.539  15.315  21.516 -0.1723  0.0351  0.0228
73724W        W16637  12.418   2.552  23.166 -0.0496 -0.0652 -0.0536
73725W        W16638  19.605  10.905   3.335 -0.0540  0.1415  0.0995
73726W        W16639   1.792   8.590   2.152 -0.0545  0.0923  0.0080
73727W        W16640  13.632  10.007   4.735  0.2320 -0.1347 -0.0565
73728W        W16641  14.888  14.773   4.021 -0.0586 -0.1148 -0.2102
73729W        W16642  21.863  11.796  20.341  0.2403  0.1380 -0.1635
73730W        W16643  15.851  13.339   6.224  0.2576  0.1810 -0.0830
73731W        W16644   7.981  10.845   8.946 -0.0904 -0.1437 -0.0642
73732W        W16645  24.100   5.948   0.868 -0.3150 -0.3205 -0.3982
73733W        W16646  17.185   8.685   0.636 -0.0208  0.0803  0.3545
73734W        W16647  10.298  15.726  27.123  0.0674 -0.0458 -0.0627
73735W        W16648   7.174   9.030  29.212  0.1737 -0.2765  0.0276
73736W        W16649  17.164  33.755   3.226  0.0899  0.4051  0.1909
73737W        W16650   2.677  12.990  18.881 -0.0870 -0.2277 -0.2436
73738W        W16651   7.119   9.990  24.230 -0.1031  0.2860  0.1183
73739W        W16652  18.042  14.237  23.405 -0.3602 -0.1197 -0.1982
73740W        W16653  24.441  10.126  28.117 -0.0172 -0.1876  0.3640
73741W        W16654   8.993   6.359  18.253 -0.3115 -0.0971 -0.1491
73742W        W16655  12.311  17.419  29.162  0.2367  0.2420 -0.0663
73743W        W16656  16.910  18.621   8.076  0.1265 -0.0925 -0.0394
73744W        W16657  18.427  10.660  25.014  0.1411 -0.2709  0.0244
73745W        W16658  17.273  12.938   5.575  0.0715 -0.3380  0.0542
73746W        W16659   9.741  10.600  17.739  0.3573  0.1197  0.0357
73747W        W16660  15.981  10.736  25.783  0.1202  0.1102 -0.0297
73748W        W16661  30.616   6.504   7.519  0.0957  0.1860  0.0269
73749W        W16662  21.145  13.766   3.871 -0.1290 -0.2427 -0.1988
73750W        W16663  17.441   7.242   5.029  0.3005 -0.0026 -0.0193
73751W        W16664  25.226  14.131   1.045 -0.0763  0.1526 -0.0760
73752W        W16665  15.097  13.119  23.186  0.2400 -0.0096 -0.0983
73753W        W16666  11.220  22.209   6.489  0.0432 -0.1233  0.1656
73754W        W16667  32.046   5.037   5.732 -0.1608 -0.1912  0.0753
73755W        W16668  14.326  21.818  27.637  0.0649 -0.0822  0.4062
73756W        W16669   9.898   5.037   2.393 -0.4182 -0.0949  0.1995
73757W        W16670   6.472   3.944  25.793 -0.1768 -0.5093  0.0166
73758W        W16671  13.145   6.304   2.399  0.1304  0.1769 -0.1490
73759W        W16672   7.791  14.698  25.791 -0.1883  0.4188  0.0820
73760W        W16673  22.308   9.131   2.093 -0.0848  0.1336 -0.0195
73761W        W16674  16.924   8.125  22.128  0.0325 -0.1088 -0.1305
73762W        W16675  18.936  14.008  27.363  0.0901 -0.0504  0.0921
73763W        W16676  10.585  33.085  16.595  0.1918 -0.1084  0.0800
73764W        W16677   9.875  18.647  20.862 -0.2525 -0.0185 -0.1663
73765W        W16678  17.680  13.783  24.770 -0.0376 -0.5478 -0.0489
73766W        W16679  18.307  13.541  17.355 -0.1735  0.1686  0.1540
73767W        W16680  20.842  15.484   3.368 -0.1822  0.6210  0.1631
73768W        W16681  11.440   9.992  23.347  0.2626 -0.0532 -0.0920
73769W        W16682   8.292  12.083  28.052 -0.0256 -0.4494 -0.2615
73770W        W16683  23.197  10.921   0.128  0.0947  0.2512 -0.0609
73771W        W16684   9.152   6.409  27.704 -0.2332  0.0626 -0.1503
73772W        W16685  22.608   4.677  25.684 -0.1811  0.2805 -0.1284
73773W        W16686  15.499  15.580  28.578 -0.0497 -0.0064  0.0694
73774W        W16687  14.984   8.735  28.294 -0.1535 -0.0448 -0.2862
73775W        W16688  18.484  14.829  24.513  0.1101  0.0222  0.0972
73776W        W16689   3.901  16.429  23.159 -0.0759  0.2492 -0.1713
73777W        W16690  19.816  11.853  22.763  0.2788  0.1038  0.3704
73778W        W16691  18.422   9.856   8.620  0.1519 -0.0360  0.1194
73779W        W16692  12.907   3.982   0.244  0.4309 -0.0009 -0.2101
73780W        W16693   4.768   6.319  28.199 -0.0673 -0.2272  0.1296
73781W        W16694  16.236  15.193  24.196  0.0194  0.1234 -0.0453
73782W        W16695  20.103   6.144  21.809  0.1284 -0.0671  0.1438
73783W        W16696  20.754   7.371  20.819 -0.0335  0.3139 -0.1312
73784W        W16697   2.598   4.709   0.439  0.0096 -0.3407 -0.0320
73785W        W16698  26.543  19.048  25.648 -0.1861  0.1036  0.1875
73786W        W16699  11.772  17.029  29.156  0.0713 -0.0320 -0.1291
73787W        W16700  25.821  12.713  27.533 -0.2793  0.0311  0.0106
73788W        W16701  14.019  12.275  26.138 -0.1711  0.1074  0.0486
73789W        W16702  19.986   1.682  23.632  0.2100  0.0699  0.0489
73790W        W16703   9.431  17.142  18.395  0.0582  0.2115  0.1300
73791W        W16704  13.364  13.142   1.871  0.1812  0.1975 -0.0329
73792W        W16705  17.340  14.521   0.413 -0.1280 -0.1835 -0.1572
73793W        W16706  23.779   7.670  19.409  0.1516 -0.4345  0.2943
73794W        W16707   7.407   7.307  28.759 -0.2360 -0.0483  0.4322
73795W        W16708  22.074  12.871   1.439  0.2075  0.3839  0.1613
73796W        W16709  12.618  11.914  19.114  0.2077  0.1393  0.0783
73797W        W16710  10.297   3.930   9.136 -0.0021  0.1819  0.1023
73798W        W16711  14.214  32.664   6.581 -0.1258  0.1116  0.1664
73799W        W16712  18.419  10.711  21.718 -0.1607 -0.1626 -0.1086
73800W        W16713  23.568  12.415   1.936  0.3353  0.0366  0.4611
73801W        W16714  26.903   1.283  18.868 -0.0952  0.1888  0.0765
73802W        W16715   3.883   7.288  25.365  0.1336  0.1493 -0.0598
73803W        W16716  12.005   8.263   2.320  0.0769  0.0691  0.0935
73804W        W16717  18.748   7.747  25.513 -0.1243 -0.0101  0.0290
73805W        W16718  21.200  12.999   1.908 -0.2888  0.2577  0.0963
73806W        W16719  11.078   7.107   7.009 -0.2484 -0.0756  0.2613
73807W        W16720  13.685  21.136   8.964 -0.3304 -0.0128 -0.2690
73808W        W16721  11.772   7.700  25.063  0.0257 -0.1812 -0.2926
73809W        W16722  22.694  17.880  26.282  0.0226 -0.1455  0.2630
73810W        W16723  20.257  15.758  28.839 -0.0070  0.1565  0.1269
73811W        W16724  16.949   3.880  10.482  0.2674 -0.0856  0.1404
73812W        W16725   5.121   1.508   0.287 -0.4640  0.1651 -0.1028
73813W        W16726  26.901  10.218   9.197 -0.1509 -0.0037 -0.2375
73814W        W16727  13.496  28.118   7.915 -0.1480  0.0628  0.0407
73815W        W16728  10.019   6.553   1.267 -0.0522  0.0302 -0.1839
73816W        W16729  16.429   6.032  22.078 -0.0709 -0.0802  0.3992
73817W        W16730  20.821  13.875  16.094 -0.0292  0.0561  0.1661
73818W        W16731   7.658   9.986  26.497  0.0938 -0.1247  0.1730
73819W        W16732  26.509   3.841  28.890 -0.0905 -0.0437  0.0601
73820W        W16733  27.633  12.296  29.570  0.1086 -0.1580  0.0463
73821W        W16734  19.732   4.698  24.367 -0.0578  0.2156 -0.3082
73822W        W16735  34.358  13.262   4.381  0.1082 -0.3994 -0.0079
73823W        W16736  27.213   0.188   3.227 -0.3664 -0.1635  0.3652
73824W        W16737  19.151  13.839  27.772  0.0149 -0.1908  0.0370
73825W        W16738  20.376   9.259   1.387  0.0185 -0.0103 -0.2599
73826W        W16739  19.090  10.112  23.492  0.0926  0.3271  0.2963
73827W        W16740  14.374  12.494  23.202 -0.3705 -0.0884  0.1572
73828W        W16741  16.751   4.585   4.155 -0.0477  0.3935 -0.2298
73829W        W16742  11.116   6.814  27.521 -0.1089  0.0575  0.0754
73830W        W16743  14.557   4.951   2.116  0.3232 -0.1213  0.0210
73831W        W16744  17.938   4.335  16.992 -0.0213 -0.0693  0.1295
73832W        W16745  18.459   0.531   0.626 -0.2150  0.1540 -0.0287
73833W        W16746   7.024   5.372  27.660  0.2198  0.0789 -0.1147
73834W        W16747  24.225   8.405  21.234 -0.1401  0.0085 -0.0338
73835W        W16748  21.229  15.408   6.250  0.1749  0.1644 -0.1283
73836W        W16749  19.935   5.966  28.597 -0.1488 -0.2390 -0.0824
73837W        W16750  15.505  13.559   4.043 -0.0173 -0.1046 -0.3633
73838W        W16751  19.968  14.922   0.743 -0.0739  0.0307 -0.0463
73839W        W16752  15.073   6.515  28.645  0.1021  0.1037 -0.0309
73840W        W16753  26.757   4.795  25.570 -0.1435 -0.0826 -0.0148
73841W        W16754   8.292   9.354  19.790  0.3431 -0.4016 -0.1509
73842W        W16755  10.256  11.985  26.605 -0.0245  0.1815 -0.4563
73843W        W16756  11.891  17.492  13.128  0.0392  0.3455  0.3663
73844W        W16757  18.426  16.732  28.014  0.0549  0.1062  0.0319
73845W        W16758   9.530   5.766  21.998  0.0193  0.1160  0.1084
73846W        W16759  16.893  11.160   8.001  0.1932 -0.0210 -0.2162
73847W        W16760   6.625  31.150  23.872 -0.0331 -0.2323 -0.0923
73848W        W16761  18.960  14.276  27.913  0.2261  0.5870  0.0647
73849W        W16762  15.896  11.193  24.531 -0.3422 -0.1640  0.1427
73850W        W16763  16.372  14.006  25.151  0.2038 -0.1848 -0.1599
73851W        W16764  20.229   3.628   5.021 -0.0208  0.0403  0.0072
73852W        W16765  15.924   7.104  20.834 -0.1094 -0.0481  0.1818
73853W        W16766  22.759  10.762  19.077  0.0705  0.2219  0.1646
73854W        W16767  10.447  11.490  25.675  0.2266 -0.0575 -0.0271
73855W        W16768  22.154  22.112   8.816 -0.0345  0.3240  0.0789
73856W        W16769  17.377   2.333  25.229 -0.1175  0.1633  0.2058
73857W        W16770  27.433  13.076  25.714  0.1352 -0.1215 -0.1400
73858W        W16771   5.445   8.076  27.373  0.1892 -0.0523 -0.2606
73859W        W16772  15.211   6.598   9.989  0.2480 -0.3071  0.3821
73860W        W16773  20.496   6.076  19.566  0.2645  0.1893  0.1147
73861W        W16774  13.546   9.029   9.000 -0.0371 -0.1684  0.1233
73862W        W16775  16.142   5.997  15.201  0.2923  0.0847 -0.0023
73863W        W16776  18.742  17.291  27.504 -0.0442  0.2373 -0.2272
73864W        W16777  21.520  13.662   0.168  0.2316  0.1736  0.1350
73865W        W16778  14.575  11.300  20.104  0.0757  0.0310  0.3260
73866W        W16779  18.801  10.757   0.750 -0.0074  0.0341  0.0126
73867W        W16780  14.051   6.720  18.567 -0.1074 -0.2377 -0.1627
73868W        W16781  10.699   4.377  28.459 -0.0267 -0.0586  0.2421
73869W        W16782   6.246  21.898  20.200 -0.1292  0.0644 -0.0704
73870W        W16783  18.166  17.599  28.746 -0.1623  0.2277 -0.0456
73871W        W16784   5.936  10.985  22.426  0.0333  0.1412 -0.0376
73872W        W16785  32.299  15.193  17.842  0.0019 -0.0524  0.0632
73873W        W16786   0.745   4.702  25.189 -0.0092  0.1495  0.1616
73874W        W16787  18.086   8.205  21.752 -0.3620 -0.0506 -0.0513
73875W        W16788  11.833   8.587   2.650  0.3588 -0.3393 -0.1937
73876W        W16789   7.510  17.530   4.252 -0.0192  0.0071  0.3057
73877W        W16790  17.782   7.781  23.747  0.1768  0.2246  0.2594
73878W        W16791  18.424  10.977  28.683  0.3451 -0.2830 -0.2125
73879W        W16792  14.766  12.694   4.644  0.1159  0.2181 -0.0083
73880W        W16793  21.539  18.212   8.410  0.0900  0.0043  0.0846
73881W        W16794   8.309   9.633   7.551 -0.1925 -0.3430  0.3140
73882W        W16795  10.793  11.064  17.167 -0.0559  0.3126  0.0574
73883W        W16796  12.281   0.038  21.151  0.0482  0.3420 -0.1044
73884W        W16797  25.058   9.884  26.166 -0.0072  0.1732 -0.0762
73885W        W16798   8.599   9.653  10.361 -0.1030 -0.1332  0.1431
73886W        W16799  12.774   8.115  28.868  0.0443 -0.2745 -0.0569
73887W        W16800   7.863  11.944   4.030  0.0312  0.2771  0.0239
73888W        W16801  14.330   6.793  16.438  0.0551  0.2148 -0.0101
73889W        W16802   5.619   1.646  11.129  0.1824 -0.1025  0.0271
73890W        W16803  14.877   3.015  26.610  0.2078 -0.0500 -0.3411
73891W        W16804  16.160  32.872  29.579 -0.1774  0.2866  0.1280
73892W        W16805  20.002   3.461  24.546  0.1416  0.1434  0.0499
73893W        W16806  23.124  13.198   4.497 -0.1421 -0.0217 -0.1011
73894W        W16807  12.025   4.791  23.677  0.0818 -0.1725  0.1671
73895W        W16808  12.361  15.900  25.545  0.1798 -0.3415 -0.1111
73896W        W16809  24.578  26.105  21.169 -0.0460  0.2161  0.1080
73897W        W16810  16.753  19.153  28.095  0.1906 -0.2035  0.2977
73898W        W16811  17.834   7.470   5.193 -0.2101  0.3141  0.1300
73899W        W16812  27.917   9.404   0.238 -0.0544 -0.1712  0.2991
73900W        W16813  16.768   9.404   0.931  0.1543 -0.1469 -0.0011
73901W        W16814  10.107  12.928   9.323 -0.4200 -0.0788  0.0018
73902W        W16815  20.988  18.924  22.810  0.0969  0.2714 -0.0226
73903W        W16816  15.647  18.637  23.392  0.1685 -0.1345  0.0716
73904W        W16817  29.787   1.083  27.923  0.3373 -0.1365 -0.3334
73905W        W16818  12.643  15.968   6.162 -0.2689  0.4836 -0.2135
73906W        W16819  13.777  24.748   2.850  0.4058 -0.1936 -0.2771
73907W        W16820  18.572  12.505  22.458  0.1473  0.3406 -0.2951
73908W        W16821  19.913  15.015  13.161 -0.3070  0.3103 -0.1449
73909W        W16822  14.519  13.058  27.532  0.2096 -0.0403 -0.1798
73910W        W16823  14.135  18.277  22.813  0.0089  0.0479  0.0268
73911W        W16824  18.450  11.859  25.231 -0.2110 -0.0168 -0.0915
73912W        W16825  20.864  15.390  23.598 -0.3290 -0.3189  0.3051
73913W        W16826  23.498  17.654  24.897 -0.3682  0.0350 -0.1238
73914W        W16827  12.337   2.804   5.290  0.1501  0.0167 -0.0681
73915W        W16828   0.650  10.877  27.367 -0.4115 -0.0530  0.7889
73916W        W16829  11.283  13.359   9.052  0.0024 -0.3308  0.2355
73917W        W16830  23.292   7.631   3.745  0.0697 -0.0424 -0.4221
73918W        W16831  16.140   2.179   0.800  0.2099 -0.2647  0.0682
73919W        W16832  13.570   5.695  21.705  0.0964  0.0328  0.1117
73920W        W16833  11.836  34.052   5.311 -0.3292 -0.3290 -0.0386
73921W        W16834  17.690  12.948  21.429  0.0534  0.1271 -0.1528
73922W        W16835  14.310  14.329   5.822 -0.0717  0.0719  0.1886
73923W        W16836  15.933   9.147  26.779 -0.1615  0.1389  0.0692
73924W        W16837  11.646  15.816  23.112  0.0774  0.1122  0.1164
73925W        W16838  11.649  10.036  25.648  0.1163  0.0791  0.2198
73926W        W16839   8.500   9.440  23.775 -0.1490 -0.2151 -0.2853
73927W        W16840  18.348  20.035   6.831 -0.1927  0.1251  0.1941
73928W        W16841  13.481  11.244  22.494 -0.2090  0.2794  0.1540
73929W        W16842  26.755  12.256  23.742 -0.1804  0.3009  0.0358
73930W        W16843  11.540  11.805  24.827 -0.0343  0.0163  0.1600
73931W        W16844  18.509  16.776   0.944 -0.3020 -0.0098 -0.2970
73932W        W16845  19.751  33.176   7.135 -0.0297  0.1012  0.4330
73933W        W16846  17.689   7.087   1.533  0.0709  0.2679 -0.1801
73934W        W16847  18.779   8.208  29.776  0.0609 -0.0584  0.0729
73935W        W16848  18.110   5.338  28.380  0.1964  0.3319 -0.0463
73936W        W16849  19.619   4.510  17.986  0.1173  0.0563 -0.1884
73937W        W16850  18.311   6.024  26.292 -0.0009  0.2329  0.0119
73938W        W16851  14.523   9.778   0.962 -0.1424  0.0653 -0.0469
73939W        W16852  20.635  11.206  24.760 -0.0973  0.1144  0.0616
73940W        W16853  19.195   7.114  25.808 -0.4770  0.5434 -0.0594
73941W        W16854  11.019  32.241  25.013  0.0930 -0.2131  0.0481
73942W        W16855  24.893  10.476   7.633 -0.0404 -0.0709 -0.2722
73943W        W16856  21.148  22.476  19.299 -0.1948  0.2855  0.0138
73944W        W16857  11.264   8.031  29.428 -0.2630  0.2734  0.1723
73945W        W16858  11.424  17.212  28.941  0.1615 -0.1099  0.2624
73946W        W16859  11.909  17.092   7.165 -0.0604  0.0852  0.1376
73947W        W16860  12.525   6.032   3.659  0.0461 -0.1645  0.1335
73948W        W16861  16.531  21.598  27.210 -0.0314 -0.0049  0.2148
73949W        W16862  22.491  11.952  26.795 -0.0236  0.0742  0.1238
73950W        W16863  20.443  13.586  24.610 -0.0745  0.3615  0.2206
73951W        W16864  24.982   8.857   6.786 -0.0657 -0.1051  0.1577
73952W        W16865  13.982   9.389  16.996  0.0814  0.2179 -0.0545
73953W        W16866  12.432   9.816   2.496  0.3700 -0.0599  0.0994
73954W        W16867  18.905  20.932   0.862  0.0934 -0.1206  0.1306
73955W        W16868  23.474   2.446  17.564  0.0476 -0.0355  0.1484
73956W        W16869  13.715  18.640   7.659  0.0105 -0.1409 -0.2768
73957W        W16870  11.841  10.720  24.436  0.0585 -0.0885 -0.1268
73958W        W16871  17.222  14.821  22.331 -0.2471 -0.1419  0.1245
73959W        W16872  22.913  23.656   2.721 -0.0561 -0.0052  0.1241
73960W        W16873   8.755   3.784   0.838 -0.0622  0.0404 -0.2182
73961W        W16874  18.291  10.167  24.966  0.0899  0.0465  0.1288
73962W        W16875   6.755   7.192  21.260  0.1843  0.0914  0.2089
73963W        W16876  16.767  31.166  27.531 -0.5268 -0.1909 -0.0993
73964W        W16877  23.020  16.462   0.688  0.4104  0.0370  0.2461
73965W        W16878  16.236  16.339   4.868  0.1130  0.1833 -0.0992
73966W        W16879  12.913  17.347  23.825 -0.0022  0.3594  0.3443
73967W        W16880  24.094   4.990  17.190  0.1471 -0.2124  0.0884
73968W        W16881  10.704  23.683   3.183  0.0017 -0.1630  0.2619
73969W        W16882  27.355  16.013   9.661 -0.5601  0.0271 -0.0143
73970W        W16883  18.871  32.888  18.238  0.2474  0.1608 -0.0606
73971W        W16884  15.531  16.696  26.309 -0.1646 -0.0440  0.3211
73972W        W16885  10.965   5.398  16.339  0.1003  0.1503 -0.1828
73973W        W16886  18.162  12.450  23.444 -0.3084  0.1875 -0.1042
73974W        W16887  23.248   7.623  23.993 -0.0443  0.2830 -0.1285
73975W        W16888  16.559   8.932  24.490  0.1126  0.1434 -0.0638
73976W        W16889  14.945   4.000  28.344 -0.1051 -0.0454  0.2221
73977W        W16890   1.815   6.698   3.739  0.2258 -0.2291  0.0444
73978W        W16891   8.395   6.510  26.665 -0.3105 -0.2531  0.0443
73979W        W16892  18.526   7.517  29.446 -0.2178  0.0102  0.1580
73980W        W16893  17.579  12.162  22.975 -0.4706  0.1623 -0.0416
73981W        W16894  18.936  17.893   2.629 -0.1562  0.0608  0.1344
73982W        W16895  19.278   7.347   4.689  0.1987  0.1263 -0.1365
73983W        W16896  12.510  32.254  22.884  0.0491 -0.0888  0.2014
73984W        W16897  25.461   9.748   8.008 -0.0036  0.3576  0.4206
73985W        W16898  25.824  10.454  21.874 -0.3575 -0.1087 -0.1249
73986W        W16899  10.208   7.654   1.567  0.1574  0.3185  0.0291
73987W        W16900  20.651  10.140   5.496 -0.0317  0.1420  0.3378
73988W        W16901  14.295   7.608   2.507 -0.1061 -0.2681  0.2311
73989W        W16902  13.021  15.554  19.024  0.2129  0.1303  0.1050
73990W        W16903  12.564   1.010   6.663 -0.2655  0.1553  0.0020
73991W        W16904  20.296  22.571  15.484  0.2851  0.0812 -0.2003
73992W        W16905  25.114  17.010   7.967  0.0133  0.0534  0.0351
73993W        W16906  19.852   0.122  27.221  0.3249 -0.1076 -0.1261
73994W        W16907   9.168   0.793  27.078  0.1900 -0.0720  0.0663
73995W        W16908  12.072   3.708   0.618 -0.1365  0.0696  0.1708
73996W        W16909  15.390  15.457  27.461 -0.1548 -0.1050  0.0802
73997W        W16910   9.854   8.196   1.130  0.0336  0.1046  0.2797
73998W        W16911  14.309   5.546  27.438 -0.4152  0.2141 -0.2683
73999W        W16912  20.073  11.839   6.230 -0.0426 -0.1789 -0.2489
74000W        W16913   3.655  10.856  21.909 -0.0327  0.0321  0.1192
74001W        W16914   4.236  21.480   4.585 -0.0494 -0.3465 -0.0229
74002W        W16915  16.489   9.654  26.326 -0.1291  0.1019 -0.1070
74003W        W16916  14.546  33.905  18.666 -0.0543  0.2404  0.0234
74004W        W16917  14.893  12.304  19.685  0.2155 -0.0927  0.0121
74005W        W16918  20.507  27.625   1.097 -0.3733 -0.1289 -0.3566
74006W        W16919   7.408   8.611  29.026 -0.1600 -0.1105  0.0918
74007W        W16920  20.503  11.471  25.702  0.0821  0.1069  0.0670
74008W        W16921  11.905   9.304  10.722 -0.2525  0.0517  0.2521
74009W        W16922  22.129  23.802  23.606 -0.0228  0.0664 -0.1835
74010W        W16923  10.896  14.818   1.836 -0.4366 -0.0255 -0.1025
74011W        W16924  10.503  11.830  24.306 -0.1205  0.3282 -0.3516
74012W        W16925  18.811  32.989  24.438 -0.2989 -0.1927 -0.0892
74013W        W16926   5.951  14.196  18.545  0.1284  0.2941  0.0023
74014W        W16927  13.449  16.918  17.243  0.0389 -0.2111  0.1478
74015W        W16928  20.408  21.947   0.065 -0.4622  0.2236  0.2139
74016W        W16929  19.664  11.818  18.544  0.2217 -0.1549 -0.0568
74017W        W16930  16.205  12.653  19.147 -0.2358  0.3721 -0.2579
74018W        W16931  15.176   7.599   3.737 -0.0271 -0.0686 -0.1172
74019W        W16932  21.891   5.162  26.008  0.0521  0.2337 -0.2690
74020W        W16933  17.253   1.623  24.549  0.0833  0.0181  0.1161
74021W        W16934  14.504  11.500  15.875 -0.4007  0.3280  0.0433
74022W        W16935  25.122   1.595   4.517  0.2900 -0.0202 -0.1985
74023W        W16936  10.908  15.358   3.447 -0.0956  0.1763 -0.2728
74024W        W16937   4.888  13.209   0.432 -0.0919 -0.0634  0.3378
74025W        W16938   7.841   3.955  26.026 -0.1571  0.0670  0.0997
74026W        W16939  25.945  30.138   0.852 -0.4646 -0.1300  0.1269
74027W        W16940  16.531   6.725  19.365  0.2401 -0.1624  0.1191
74028W        W16941   5.401  14.904  24.237 -0.1391  0.4016 -0.0150
74029W        W16942  20.564   8.104  24.951 -0.1428 -0.1144 -0.1045
74030W        W16943  21.878   5.800  19.608  0.0877 -0.1010 -0.0121
74031W        W16944  16.646  18.718  25.578  0.0133 -0.2079  0.1387
74032W        W16945  22.104  12.832  18.872 -0.5355  0.0332  0.3366
74033W        W16946   7.545  20.739   5.865 -0.4071 -0.1364  0.0290
74034W        W16947  20.510   7.965  14.777 -0.3506  0.1646  0.1679
74035W        W16948  16.854   8.830  20.047  0.1851 -0.0450 -0.1357
74036W        W16949   6.745  16.386   2.710 -0.0215 -0.1467 -0.2202
74037W        W16950  18.994  12.430  25.659 -0.2235  0.3144  0.4615
74038W        W16951  13.632  21.356  12.751 -0.0202 -0.3022  0.1516
74039W        W16952  13.836   4.055   0.489 -0.0193  0.0263 -0.2192
74040W        W16953   4.022   2.320  27.757 -0.1043 -0.0165 -0.0455
74041W        W16954  14.280  34.348  21.152 -0.1060  0.1483  0.1713
74042W        W16955   6.381   9.573   3.735  0.2395  0.3305 -0.0294
74043W        W16956   9.250  15.921  28.182 -0.1799 -0.1078  0.1992
74044W        W16957  21.627  14.588   2.122  0.4455  0.1944  0.1201
74045W        W16958   2.313  13.190  22.792 -0.1643 -0.2852 -0.1514
74046W        W16959  26.367  19.670  23.741  0.4274 -0.1294 -0.3711
74047W        W16960  19.550   6.061   7.888  0.1527  0.0557  0.1418
74048W        W16961  15.440  12.334  23.306 -0.0970  0.1088 -0.0314
74049W        W16962  21.701   6.060  22.104  0.0165  0.2238 -0.0682
74050W        W16963  17.206  19.871  22.472  0.4643 -0.0909  0.2570
74051W        W16964   3.172   5.855  17.452 -0.0918 -0.1615 -0.0484
74052W        W16965  14.992   2.437  29.386  0.2543 -0.0567 -0.0804
74053W        W16966   0.330  10.217   0.926  0.0731 -0.0085  0.0612
74054W        W16967  19.777  16.024   5.062  0.0231 -0.0232  0.0233
74055W        W16968  20.197   0.068  14.203  0.0585  0.0126  0.0116
74056W        W16969  28.385  20.130  26.798  0.1360 -0.2959  0.1575
74057W        W16970  14.470   9.199   7.405  0.2561  0.0436  0.0958
74058W        W16971  16.009  18.916  23.228  0.1500  0.0999 -0.2127
74059W        W16972  14.493   8.121  17.520  0.0646  0.1557  0.2668
74060W        W16973  19.986  11.551  21.909 -0.0744 -0.1655  0.2994
74061W        W16974  21.986  12.041   1.000 -0.2301  0.0444  0.1337
74062W        W16975  22.662  16.406  28.181 -0.0807 -0.0105  0.0602
74063W        W16976  19.387  11.153  27.107 -0.3144 -0.3035  0.2158
74064W        W16977  11.538   2.741  19.397 -0.2725  0.2239 -0.2859
74065W        W16978   1.847   6.590  26.515  0.1994  0.0902  0.0062
74066W        W16979   9.635  13.762  27.120 -0.0906 -0.0621  0.0393
74067W        W16980  29.429   7.216  18.923  0.0214 -0.2075 -0.2246
74068W        W16981  16.097  14.454  25.162 -0.0034 -0.3464 -0.2033
74069W        W16982  21.173  11.758   7.435 -0.0389  0.1363  0.3414
74070W        W16983  10.796   1.128  23.661 -0.0377  0.0733  0.0320
74071W        W16984   9.552  34.045   2.362  0.1891  0.2492  0.0111
74072W        W16985  20.616  17.126   0.305 -0.1382 -0.0733  0.0753
74073W        W16986  26.953  22.626  23.139  0.3265  0.3002  0.0045
74074W        W16987  13.488  13.145  18.677  0.4056  0.1793  0.3278
74075W        W16988  22.167  16.285   7.136 -0.1838  0.1690 -0.2659
74076W        W16989  25.890  10.761   2.310  0.0712  0.0142  0.3002
74077W        W16990  20.466   2.733  28.115  0.2339  0.1636  0.0766
74078W        W16991  24.020  22.535  28.740 -0.1217 -0.3247 -0.2286
74079W        W16992  17.103  22.761  17.440 -0.2115 -0.0819 -0.1266
74080W        W16993  17.761  12.212  26.467  0.1759 -0.0677 -0.0933
74081W        W16994  24.000  14.083  25.842  0.0455  0.3324 -0.0982
74082W        W16995  12.255   1.561  24.111 -0.0264 -0.1127 -0.1669
74083W        W16996  24.019  14.896  26.009 -0.0373 -0.2363  0.1324
74084W        W16997  18.596   9.852  27.972 -0.2124 -0.1818  0.1983
74085W        W16998  26.607  11.243  24.400 -0.2467  0.0612  0.0961
74086W        W16999  18.795  11.986  28.688 -0.1328  0.1744  0.2046
74087W        W17000   9.044  14.793  23.057 -0.0443 -0.0848  0.1409
74088W        W17001   3.497  17.210  28.932  0.1531  0.0766 -0.0467
74089W        W17002   7.820  11.006  24.036 -0.0378  0.2392  0.0276
74090W        W17003  13.593   9.184   4.056  0.0983  0.2077 -0.2284
74091W        W17004   8.072  23.288  15.601 -0.1195 -0.4067 -0.3133
74092W        W17005  11.352   8.833  24.849 -0.2549 -0.2075  0.2964
74093W        W17006  15.947  16.705  26.597  0.5039 -0.0368 -0.1528
74094W        W17007  15.548  13.112  15.098  0.0385  0.2711  0.0349
74095W        W17008  13.422  19.098  25.526  0.0978 -0.1876  0.3308
74096W        W17009   1.189   5.401   3.562  0.0757 -0.0313 -0.0368
74097W        W17010  11.079  13.211  23.908  0.1646  0.2193 -0.3427
74098W        W17011  18.120   8.870   7.960 -0.0394 -0.5717 -0.1070
74099W        W17012  18.489   5.862  23.609  0.1672 -0.3883  0.0312
74100W        W17013   9.592  14.612   0.980  0.0684 -0.3078  0.0687
74101W        W17014  11.604  15.091   8.269  0.1702 -0.2020  0.1263
74102W        W17015  20.324   6.670  25.936 -0.3821 -0.2045  0.2166
74103W        W17016  21.400  14.140  26.581 -0.3889  0.0687  0.1986
74104W        W17017  16.272  32.469   6.941 -0.0524  0.1017 -0.1108
74105W        W17018  13.655   6.135   2.697 -0.1470 -0.1896  0.0198
74106W        W17019  14.449  14.239  26.722 -0.0713 -0.0613  0.3716
74107W        W17020  10.841   5.201  26.741 -0.2665  0.2697 -0.0790
74108W        W17021  18.384  15.729  26.790  0.1501 -0.2867 -0.0472
74109W        W17022  13.699  10.616   6.727 -0.1102  0.4243  0.3062
74110W        W17023  13.404   8.865   3.116 -0.2057  0.1991 -0.0219
74111W        W17024  12.481   5.061   0.854 -0.1184  0.0649  0.1351
74112W        W17025  25.873  20.432  25.995 -0.4796  0.1043 -0.0465
74113W        W17026  15.889  12.983  26.249 -0.1509 -0.0028  0.0309
74114W        W17027  10.994  15.446   0.080  0.0296 -0.0738 -0.0027
74115W        W17028  16.680   2.465   1.637 -0.3243 -0.1257  0.0452
74116W        W17029  20.381  10.948  19.026  0.1034  0.1311 -0.0032
74117W        W17030  25.280   7.062  22.124  0.1452  0.0636 -0.3004
74118W        W17031  13.198  13.252  21.115 -0.0759 -0.2700  0.1122
74119W        W17032   9.512   8.064   3.681 -0.2092  0.1770 -0.2171
74120W        W17033   8.990   5.563  17.774  0.2119 -0.0629  0.0291
74121W        W17034  15.679   9.505  19.440 -0.1025 -0.2625  0.0468
74122W        W17035   9.789  11.592   3.265 -0.1570 -0.0747  0.1383
74123W        W17036  13.955  14.349  22.912 -0.2362 -0.1345 -0.0235
74124W        W17037   9.158  17.162  23.062  0.1675 -0.0222  0.2082
74125W        W17038   5.106   8.488   2.406 -0.1265 -0.1474  0.1837
74126W        W17039  15.791  15.649  27.701  0.0018  0.0653  0.1316
74127W        W17040  20.731  12.722   7.638 -0.1586  0.1006 -0.0735
74128W        W17041  12.837   6.432   4.864  0.1445  0.2391  0.3453
74129W        W17042  14.488  18.087   5.499  0.2625  0.2352  0.3027
74130W        W17043  22.224   7.945  29.278 -0.1414  0.0195  0.0553
74131W        W17044  12.469  10.916   1.152 -0.2239 -0.1994 -0.2080
74132W        W17045  28.040  13.902  10.131  0.0801 -0.2126  0.2501
74133W        W17046  11.845   9.964   5.133  0.1593  0.4190  0.1195
74134W        W17047  14.284  20.589   3.711 -0.2538 -0.0084  0.1547
74135W        W17048  11.658  13.406   4.211  0.0519 -0.0508  0.2309
74136W        W17049  17.996  21.409  25.501 -0.1984  0.0280  0.1600
74137W        W17050  16.874   5.050  21.332 -0.2524  0.1106  0.1795
74138W        W17051  10.775  19.436   6.167  0.0345 -0.1119  0.0565
74139W        W17052  10.818  10.588   6.713  0.0639 -0.4074 -0.1104
74140W        W17053  13.465   3.781   3.045 -0.4794  0.5390  0.1261
74141W        W17054  15.046   5.017   1.305  0.0253  0.3762  0.0933
74142W        W17055   6.461  10.455   9.564 -0.0058 -0.0433 -0.2311
74143W        W17056   4.214  20.794   6.065  0.1859  0.3967 -0.2570
74144W        W17057  15.558   2.088   4.434  0.1024  0.1096  0.2560
74145W        W17058  10.798   2.880  24.671  0.1493  0.1492 -0.0098
74146W        W17059  14.734   6.863  24.134  0.0138  0.0382  0.0097
74147W        W17060  18.690  22.228  28.851  0.0556  0.0006  0.0816
74148W        W17061  13.281  23.022   5.879  0.1783  0.0678  0.0896
74149W        W17062  13.271  14.052  20.122  0.0640  0.3042  0.0901
74150W        W17063  17.994   4.766  26.826 -0.0596 -0.3503 -0.1944
74151W        W17064  17.798   9.494  25.261 -0.0505 -0.0474  0.0991
74152W        W17065  15.600  20.037   4.929  0.1445  0.4014  0.1332
74153W        W17066  33.660   3.691  26.223 -0.3682 -0.1808 -0.0364
74154W        W17067  17.259   6.912  22.231 -0.0085 -0.1001 -0.1757
74155W        W17068  24.716  12.913   5.216 -0.2207  0.0409  0.3855
74156W        W17069   5.690  11.019  25.559 -0.0956 -0.0208 -0.1874
74157W        W17070  21.312  18.395  13.327 -0.0429  0.0188  0.2288
74158W        W17071  15.649  27.518  22.650  0.1446  0.1455  0.1070
74159W        W17072  14.349  16.999  14.288  0.0620  0.0837  0.1057
74160W        W17073  24.993  21.012  16.893  0.1331 -0.1610 -0.4739
74161W        W17074  13.222  22.402  13.419 -0.1682  0.1196  0.1299
74162W        W17075  12.650  23.675  17.676 -0.1845  0.0856  0.2279
74163W        W17076  28.615   3.212  22.984 -0.0238  0.0434 -0.1382
74164W        W17077   7.982   9.702  23.732  0.0840  0.2916  0.0400
74165W        W17078  14.828   8.892  19.990  0.2858  0.0271  0.1839
74166W        W17079  21.854   7.626  17.108 -0.2236 -0.1139 -0.2218
74167W        W17080  17.947  12.373  13.620  0.3496 -0.0260  0.2701
74168W        W17081  18.972  12.040  19.261 -0.0514  0.2252 -0.0860
74169W        W17082  21.823   9.644  18.342  0.0710 -0.1793 -0.2591
74170W        W17083  17.819  19.121  12.281  0.0916 -0.2036  0.2022
74171W        W17084  28.001   1.005  20.979 -0.1602  0.1639 -0.3101
74172W        W17085  22.782  19.125  13.844 -0.0820 -0.2851  0.1514
74173W        W17086  19.755   7.946  16.408 -0.0499  0.0715 -0.1760
74174W        W17087  23.103  14.273  14.991  0.0528  0.2352 -0.0899
74175W        W17088  19.028  12.827  16.351 -0.2220 -0.0569  0.4447
74176W        W17089   6.577  13.833  15.188 -0.0144  0.1206 -0.1180
74177W        W17090  26.316  15.784  15.593 -0.1537  0.2385 -0.0922
74178W        W17091  11.420  24.776  14.614 -0.0666 -0.0529  0.0695
74179W        W17092  13.380  16.660  16.242  0.0643  0.0629  0.0248
74180W        W17093  12.547  23.317  14.342  0.2003 -0.0305 -0.3442
74181W        W17094  12.617  12.032   6.240 -0.0693 -0.0791  0.1125
74182W        W17095   8.453  12.715  16.878 -0.2929  0.1433 -0.2534
74183W        W17096  18.199  14.197  13.672  0.1420 -0.2788  0.0487
74184W        W17097  22.894  20.678  21.937  0.1587  0.0765  0.0695
74185W        W17098  12.665  23.807  28.673 -0.0374  0.2974  0.2027
74186W        W17099  17.239  12.456  15.245 -0.2131  0.0931 -0.1095
74187W        W17100  27.950  21.571  17.177 -0.1449 -0.5501  0.1940
74188W        W17101  19.440  16.862  12.819 -0.0779 -0.1225 -0.3518
74189W        W17102  19.863  10.372  23.754  0.2243  0.0835 -0.2360
74190W        W17103  26.479  16.528  15.591  0.1038  0.2848  0.5728
74191W        W17104   4.516  17.957  14.367 -0.2253  0.0068  0.1401
74192W        W17105  26.627  12.246  16.670 -0.1177  0.1431  0.1466
74193W        W17106  20.530  10.827  14.815 -0.1218  0.1676 -0.0260
74194W        W17107  18.108   0.229  17.283  0.0155 -0.3323 -0.1611
74195W        W17108  15.743  23.965  19.029  0.1763  0.0692  0.0128
74196W        W17109  24.496  23.394  21.390  0.1365  0.1954 -0.0878
74197W        W17110  15.446  16.874  15.079  0.0016 -0.0470 -0.1302
74198W        W17111  20.828  14.149  13.638  0.3175  0.2706  0.2379
74199W        W17112  19.284  11.225  18.453  0.1674 -0.1478  0.1811
74200W        W17113  20.650  17.078  16.036  0.0549  0.0946 -0.0142
74201W        W17114  10.831  11.378  15.345  0.0254  0.0368 -0.0564
74202W        W17115  18.583  27.710  18.315  0.1003  0.1370  0.4952
74203W        W17116  19.420  29.153  13.680 -0.1949  0.0194 -0.3399
74204W        W17117  21.733  28.236  22.537 -0.3618  0.0952  0.0880
74205W        W17118  31.872   7.692  16.411  0.1234  0.1405  0.1369
74206W        W17119  13.519  11.283  17.253 -0.2794  0.0652 -0.0095
74207W        W17120  20.043   3.514  16.551 -0.1077 -0.1954  0.0831
74208W        W17121  23.206  20.539  23.343 -0.0194 -0.0294  0.0629
74209W        W17122  15.679   7.653  16.017  0.3047 -0.0208  0.1045
74210W        W17123   7.166  20.492  23.251 -0.2597  0.1604 -0.4056
74211W        W17124  22.639  13.980  14.797  0.0908 -0.1521  0.1136
74212W        W17125  17.088  12.999  15.200  0.0725 -0.1802  0.3099
74213W        W17126  22.658  21.118  21.330 -0.0966 -0.0584  0.1768
74214W        W17127   9.534  26.749  17.000 -0.0024 -0.0602  0.3519
74215W        W17128  23.787   6.329  16.101  0.2044  0.1456 -0.1914
74216W        W17129  22.530  33.318  21.306  0.0120 -0.0206 -0.0969
74217W        W17130  23.762  12.491  16.482  0.2292  0.0694 -0.0861
74218W        W17131  28.694   5.301  17.281 -0.0889 -0.0623  0.1790
74219W        W17132  17.272  28.167  19.317 -0.0873  0.3757  0.1661
74220W        W17133  13.478  22.573  14.804 -0.0240  0.0898  0.0002
74221W        W17134  18.877   9.210  14.012  0.0632  0.3286 -0.3477
74222W        W17135   1.847  22.925  16.530  0.0502  0.0244  0.3352
74223W        W17136   7.835  17.234  15.887  0.0358 -0.1206  0.3724
74224W        W17137   3.039  21.641  17.476  0.2240 -0.1095 -0.0270
74225W        W17138  20.314  21.314  14.652  0.2057 -0.0294 -0.1095
74226W        W17139   6.020  15.305  20.922 -0.0365  0.3055  0.0059
74227W        W17140  20.259  15.221  13.525  0.1545  0.2801 -0.1981
74228W        W17141  10.739   7.110  19.077 -0.1775  0.0362  0.1550
74229W        W17142  25.196  13.545  13.918  0.1645 -0.0079 -0.0463
74230W        W17143  18.490  13.131  18.227 -0.1878 -0.1804  0.4345
74231W        W17144  26.798   8.954  18.199  0.4503 -0.0836  0.1680
74232W        W17145  20.440  17.982  14.396 -0.3593  0.0550  0.0892
74233W        W17146  22.764  21.470  16.169  0.2308  0.1848 -0.0249
74234W        W17147  14.399  22.393  16.269 -0.2075  0.4297  0.1846
74235W        W17148  24.092  23.725  14.796  0.0561 -0.0324 -0.1250
74236W        W17149  13.443  21.214  18.308 -0.1773  0.0429  0.0767
74237W        W17150  22.089  22.602  16.550 -0.1509 -0.1176  0.0084
74238W        W17151  19.775  14.517  13.190  0.2033  0.0435 -0.2379
74239W        W17152  20.263  28.549  15.587  0.3471 -0.0664  0.2207
74240W        W17153  12.255   9.724  23.514  0.0091  0.0063 -0.0286
74241W        W17154  22.437  11.093  22.532  0.1025 -0.2065 -0.0674
74242W        W17155   1.432  17.701  16.169 -0.1046 -0.0758  0.0633
74243W        W17156  13.622  16.479  24.040  0.0949 -0.0898 -0.2670
74244W        W17157  12.324   0.316  16.052  0.2406 -0.3702 -0.0051
74245W        W17158  19.463  10.639  16.766 -0.0093  0.1789 -0.3281
74246W        W17159   6.495  14.572  14.196 -0.0886 -0.1516  0.2989
74247W        W17160  19.580  10.181  16.937  0.2099  0.0344 -0.1783
74248W        W17161   0.319  21.901  21.635 -0.3340 -0.0778  0.1719
74249W        W17162  14.926  10.376  12.533 -0.2334  0.2831  0.2917
74250W        W17163  20.012  19.498  14.021 -0.1505  0.2209  0.2713
74251W        W17164  11.908   9.127  24.087 -0.1246  0.1989 -0.0152
74252W        W17165   6.989   9.700  18.130 -0.3385 -0.3631  0.1094
74253W        W17166  13.059  26.156  22.271 -0.0179 -0.0979 -0.0690
74254W        W17167  34.352  10.270  19.114 -0.2340  0.1219 -0.0301
74255W        W17168   4.938  23.370  18.564  0.1147  0.1344  0.2846
74256W        W17169  16.827  12.197  14.148 -0.1243 -0.1136 -0.1014
74257W        W17170   8.221  13.694  14.998  0.2703 -0.1350 -0.1132
74258W        W17171  21.811  13.161  22.135  0.0666 -0.0377 -0.1902
74259W        W17172  15.518  22.511  18.118  0.0625 -0.1590  0.0381
74260W        W17173  26.513   9.472  14.397  0.0297  0.0959  0.0475
74261W        W17174   9.913   7.089  17.284 -0.0556  0.0431  0.1139
74262W        W17175  14.115   2.956  22.415 -0.0375  0.0915  0.0164
74263W        W17176  19.118  11.280  15.204 -0.0274  0.1593  0.0668
74264W        W17177  23.612   6.924  21.278  0.1943 -0.1228 -0.2339
74265W        W17178  15.842  14.621  15.954  0.0828 -0.1428  0.1533
74266W        W17179  12.470  12.468  14.285 -0.1058 -0.1520  0.1787
74267W        W17180  13.880  14.651  12.458  0.1499  0.1144  0.4932
74268W        W17181  10.766  14.012  17.053  0.0205  0.1517  0.2906
74269W        W17182  17.994  24.199  19.455 -0.2623  0.0677  0.0258
74270W        W17183  21.444  28.312  22.107 -0.1990  0.1065  0.0682
74271W        W17184  20.660  16.040  12.369 -0.0543 -0.0452  0.2281
74272W        W17185  22.827  15.817  17.555 -0.0952  0.0017 -0.1603
74273W        W17186  15.139  18.385  14.368  0.0717 -0.0097  0.3544
74274W        W17187  24.369  21.096  13.795  0.0827 -0.1134 -0.1146
74275W        W17188  14.373  12.891  16.390  0.2165 -0.3512  0.0986
74276W        W17189  11.483  15.577  13.108  0.0303 -0.0901 -0.0412
74277W        W17190  27.115  14.720  19.865 -0.1032 -0.0870 -0.0539
74278W        W17191  16.283  13.872  13.163 -0.0999  0.1028 -0.0291
74279W        W17192   7.714  17.108  18.794 -0.0004  0.2647 -0.0700
74280W        W17193  18.831  22.327  25.576 -0.0559  0.1415  0.0171
74281W        W17194  16.171   0.286  17.320  0.0748  0.0467 -0.3910
74282W        W17195  19.845   0.546  23.164 -0.1790 -0.1313  0.1160
74283W        W17196  19.879  22.175  16.294  0.1607  0.0422 -0.3786
74284W        W17197   9.874   8.301  18.119  0.0543 -0.0425  0.0961
74285W        W17198  16.380   2.765  27.067  0.4096 -0.1922  0.1347
74286W        W17199  23.889  23.563  22.242  0.1185 -0.3233  0.0139
74287W        W17200   7.901  16.574  13.003 -0.0001  0.1497 -0.2053
74288W        W17201  21.833  23.602  12.162  0.0830 -0.0871  0.0161
74289W        W17202   7.739  12.372  16.055  0.4946 -0.3465 -0.2418
74290W        W17203  21.445  21.807  19.361 -0.1216  0.1617 -0.0043
74291W        W17204  24.380   1.968  26.956 -0.0992  0.0571 -0.2593
74292W        W17205  23.289  22.705  15.791 -0.2949  0.1307 -0.2112
74293W        W17206   4.354  24.217  25.421 -0.0001 -0.3752 -0.2218
74294W        W17207  13.755   3.300  25.074  0.1560  0.3089 -0.3818
74295W        W17208   9.066  16.903  18.192 -0.2098  0.0994 -0.2131
74296W        W17209  26.036  11.175  14.506 -0.1062  0.0604 -0.2238
74297W        W17210  18.709   5.764  15.577 -0.1246 -0.0669  0.0713
74298W        W17211  18.036  14.132  11.801 -0.0006  0.2097 -0.0077
74299W        W17212   9.820  18.832  16.950 -0.1261 -0.2024 -0.1405
74300W        W17213   8.259   8.858  16.353 -0.1529  0.1077  0.1749
74301W        W17214  16.284  12.926  15.699  0.0045 -0.3280  0.4187
74302W        W17215  22.087  13.338  20.690 -0.2215  0.2705 -0.1777
74303W        W17216  13.818  19.343   2.756  0.1230 -0.3040 -0.1136
74304W        W17217  26.324  14.507  27.229  0.1754 -0.1844  0.0809
74305W        W17218  15.521  15.703  12.417 -0.0627  0.1112  0.0897
74306W        W17219  11.079  13.403  14.716 -0.2842  0.0379  0.1669
74307W        W17220  24.189  26.358  14.031 -0.1970 -0.2417 -0.0090
74308W        W17221  16.460   5.346  18.167  0.3165  0.1232 -0.2650
74309W        W17222  16.714  22.274  14.326 -0.1034  0.2731 -0.0909
74310W        W17223  26.784  18.398  22.890  0.1579  0.3789 -0.2914
74311W        W17224  17.321  22.117  13.668  0.0237 -0.0931  0.0330
74312W        W17225  27.396  17.478  17.754 -0.1275 -0.0040 -0.0252
74313W        W17226  26.726  14.195  14.512  0.1207 -0.0614 -0.0276
74314W        W17227  11.066  15.799  16.477 -0.0458 -0.3884 -0.4562
74315W        W17228  10.645  18.312  21.418 -0.0275 -0.0561  0.1030
74316W        W17229  28.268  30.555  16.254  0.1893 -0.2954 -0.1691
74317W        W17230  19.992  26.337  19.571 -0.0533  0.2554  0.1997
74318W        W17231  19.049  12.585  17.047  0.1315 -0.0887 -0.2176
74319W        W17232   7.097   8.872  21.126 -0.1463 -0.2145 -0.0205
74320W        W17233   9.865   1.948  23.443  0.0397  0.0227 -0.1056
74321W        W17234   5.805  19.311  18.482  0.0260 -0.2092  0.0355
74322W        W17235  16.865   4.795  20.330  0.1719 -0.0802  0.2906
74323W        W17236   6.647  14.776  20.816  0.0604  0.0396  0.0174
74324W        W17237   7.186  16.870  18.272 -0.3684  0.0334 -0.2069
74325W        W17238  26.662   7.493  17.097 -0.1528 -0.0672 -0.1588
74326W        W17239  26.442   7.380  25.080 -0.3802 -0.1948 -0.0333
74327W        W17240   7.359   7.184  22.407  0.2524  0.0153  0.0060
74328W        W17241   5.480   2.248  22.317 -0.1359 -0.3192 -0.1000
74329W        W17242  21.274  17.611  16.175 -0.2531 -0.1376  0.2608
74330W        W17243   9.341  25.023  23.490 -0.0068  0.1147 -0.0506
74331W        W17244  17.886   6.530  13.931 -0.1700 -0.0820 -0.0452
74332W        W17245  11.695  21.694  15.530  0.1221 -0.1616 -0.1297
74333W        W17246   6.091  19.178  14.114  0.4649  0.1033  0.0539
74334W        W17247  22.365  13.414  19.199 -0.1492 -0.1066  0.2875
74335W        W17248  30.725  10.288  24.062  0.1072  0.0648 -0.0560
74336W        W17249   5.697  26.063  25.935  0.0753 -0.1455 -0.3840
74337W        W17250  16.376   8.756  15.034 -0.1386  0.0352  0.0461
74338W        W17251   4.155  13.270  15.815  0.0592  0.2699 -0.3253
74339W        W17252  29.740  20.535  20.815 -0.0542  0.2167 -0.0130
74340W        W17253   2.060  19.756  20.193 -0.0825 -0.0804 -0.0661
74341W        W17254  13.732  16.956  16.078  0.1324 -0.0660  0.2327
74342W        W17255  12.974  20.943  18.743 -0.0403 -0.1281  0.3355
74343W        W17256   9.123  11.566  15.844 -0.0007 -0.0098 -0.0782
74344W        W17257  16.104  19.699  13.409 -0.3439  0.1744  0.2209
74345W        W17258  21.706  14.614  17.550  0.0624  0.3719 -0.0439
74346W        W17259  13.211  13.253  15.610 -0.1324 -0.1078 -0.3064
74347W        W17260  25.083  13.020  18.930 -0.0508 -0.0630  0.2794
74348W        W17261  10.148  15.549  15.311 -0.1033 -0.0110 -0.0410
74349W        W17262  14.497  11.078  16.164  0.2676 -0.0171  0.2426
74350W        W17263   8.720  15.531  26.081  0.0868  0.1384  0.3504
74351W        W17264  24.388  23.472  13.176 -0.2185 -0.1704 -0.4619
74352W        W17265  14.759  17.961  15.950 -0.0469  0.2819  0.2436
74353W        W17266  14.227  22.293  16.769 -0.0394 -0.3549  0.2428
74354W        W17267  19.583  12.440  17.099 -0.0845  0.0068  0.2913
74355W        W17268  21.512  17.251  12.430  0.2299 -0.0402  0.4428
74356W        W17269  18.807   9.109  12.882 -0.1124 -0.0925 -0.1493
74357W        W17270  13.845  14.510  14.872 -0.1124 -0.2567  0.1790
74358W        W17271  13.621  16.159  12.876 -0.4211 -0.1707  0.0964
74359W        W17272  23.231   3.979  18.224  0.0312  0.2018 -0.2126
74360W        W17273  14.963   7.701  14.332 -0.1563  0.0736  0.0979
74361W        W17274   7.707  13.682  15.199  0.1273  0.3314  0.0507
74362W        W17275  17.000  23.407  15.116  0.1338  0.1913 -0.1679
74363W        W17276  21.628  11.633  14.298  0.0013  0.0261 -0.1312
74364W        W17277  12.487  14.424  16.840  0.0024 -0.1069 -0.2534
74365W        W17278  29.374   8.747  19.538  0.0999 -0.3511  0.0841
74366W        W17279  18.741  14.441  15.901  0.1453 -0.2155  0.0732
74367W        W17280  23.485  19.682  13.779  0.1225 -0.0960  0.1318
74368W        W17281  29.192  20.284  23.115  0.2080 -0.1077  0.1725
74369W        W17282  23.126  22.644  25.095  0.1237  0.2348  0.3922
74370W        W17283  22.955  17.875  12.486 -0.1013 -0.0012  0.0287
74371W        W17284  11.663  21.705  16.434 -0.0333  0.0156 -0.0947
74372W        W17285   1.061  16.490  14.277  0.2069 -0.3768  0.3777
74373W        W17286  10.640  11.491  18.948 -0.1673  0.0775 -0.2083
74374W        W17287   7.962  10.031  19.276 -0.2178 -0.0009  0.0888
74375W        W17288  16.288  10.301  14.457 -0.2097  0.0425  0.1724
74376W        W17289   0.521  11.100  20.093 -0.2235 -0.1497 -0.1809
74377W        W17290  18.718  18.783  12.384  0.2216  0.0771  0.1969
74378W        W17291  14.794  25.219  15.646  0.1376  0.0407  0.1544
74379W        W17292  18.383  12.872  19.049 -0.3134  0.4014 -0.0857
74380W        W17293  15.740  10.228  13.306 -0.1670 -0.1351 -0.1082
74381W        W17294   9.239  18.662  14.090 -0.1427  0.1108 -0.0375
74382W        W17295  10.421  18.654  14.970  0.1722  0.2118  0.0092
74383W        W17296   0.983  20.143  16.882  0.0376 -0.3178  0.2532
74384W        W17297  32.377  11.082  17.513  0.1767 -0.1895 -0.0416
74385W        W17298  23.424  22.749  13.689  0.0988 -0.2425 -0.0095
74386W        W17299  15.517  17.739  24.761  0.0621  0.0086  0.0563
74387W        W17300  16.257   4.633  16.647 -0.0855  0.1347  0.1687
74388W        W17301  10.758  25.495  17.684  0.2718  0.1359 -0.3547
74389W        W17302  22.801   3.121  17.842  0.2036 -0.1538  0.0218
74390W        W17303  17.802  23.865  16.973 -0.2816 -0.2376 -0.0410
74391W        W17304  23.798  24.325  13.359 -0.0181 -0.2747  0.1469
74392W        W17305  11.979  16.698  18.859  0.0153  0.1826  0.3350
74393W        W17306  20.483   4.158  15.749 -0.1357  0.2013  0.2265
74394W        W17307  19.851  10.837  23.374  0.5927 -0.0490 -0.0324
74395W        W17308   8.490  19.210  20.333  0.1552 -0.4256 -0.1009
74396W        W17309  16.304   5.546  16.453 -0.1537 -0.2352  0.0954
74397W        W17310  18.471  24.135  17.163  0.2345  0.3670 -0.0393
74398W        W17311  17.200  15.797  12.980  0.0418  0.0653  0.1276
74399W        W17312  16.420  11.181  21.634  0.2983  0.2499 -0.0199
74400W        W17313  19.562   8.758  14.834 -0.0333  0.2483  0.0036
74401W        W17314  10.128  13.853  14.548  0.3292 -0.0951 -0.0488
74402W        W17315   9.682  21.473  23.018 -0.1029  0.0591  0.4164
74403W        W17316  18.659   8.037  14.157 -0.2371 -0.2432 -0.4331
74404W        W17317  11.124  13.690  16.396 -0.0832 -0.0983  0.1910
74405W        W17318  13.255  15.691  16.447  0.1123  0.0463 -0.4342
74406W        W17319  20.546  31.314  22.173 -0.1329 -0.0945 -0.0245
74407W        W17320   9.245  17.871  18.106  0.1263 -0.0808 -0.0482
74408W        W17321  10.799  10.170  16.083  0.3211 -0.2716  0.2287
74409W        W17322   8.192  23.764  15.459  0.0399 -0.0012  0.1330
74410W        W17323  14.440  31.372  16.861 -0.0393 -0.2231  0.0527
74411W        W17324   2.358  12.938  18.045  0.3174 -0.0492  0.3451
74412W        W17325  21.353  11.575  20.051  0.2887  0.0057  0.4378
74413W        W17326  22.167  10.113  16.371 -0.0875 -0.0957  0.0802
74414W        W17327  20.614  28.489  17.527  0.3123  0.0932 -0.1266
74415W        W17328  19.925  23.826  18.101  0.1570 -0.2992 -0.1116
74416W        W17329  31.284  24.058  15.150  0.1341 -0.1544 -0.1708
74417W        W17330  18.713  10.697  17.390 -0.2639  0.1446 -0.0444
74418W        W17331   7.315   7.453  21.967 -0.4981 -0.1292 -0.0256
74419W        W17332  20.281  21.130  22.452  0.3553 -0.1234 -0.1394
74420W        W17333  26.734  13.386  21.022  0.3604 -0.0773  0.0427
74421W        W17334  10.812  14.309  15.320 -0.2702 -0.1174 -0.1520
74422W        W17335  23.133  16.331  26.211  0.2895 -0.0016  0.3311
74423W        W17336  15.820   6.090  20.618 -0.2256 -0.1182  0.0729
74424W        W17337  18.231  11.149  25.032 -0.2725  0.0708  0.0020
74425W        W17338  11.589  17.897  13.754  0.1179  0.0681 -0.0767
74426W        W17339  19.394   3.583  23.628  0.0580 -0.0942 -0.1076
74427W        W17340  11.332  21.893  15.784 -0.1117 -0.0395  0.1334
74428W        W17341  14.037   6.747  17.553  0.1112 -0.0683 -0.0752
74429W        W17342  30.604  17.346  23.743 -0.2019 -0.0486  0.2157
74430W        W17343  16.896  12.877  24.329  0.0135 -0.0855 -0.2047
74431W        W17344  15.911  19.511  15.699  0.0185  0.1555 -0.0086
74432W        W17345  12.997  19.807  12.727  0.2687 -0.5143  0.1987
74433W        W17346  14.265  16.235  13.951 -0.0677  0.0521  0.0086
74434W        W17347  14.238  13.161  13.479 -0.1121 -0.0076  0.1115
74435W        W17348  14.481  22.023  17.719 -0.0214  0.4757  0.0948
74436W        W17349  12.307  15.781  16.742 -0.0163  0.1589 -0.1353
74437W        W17350  18.858  19.233  11.604  0.1201  0.0067 -0.1016
74438W        W17351  34.299  15.997  15.666  0.2511  0.3233  0.0181
74439W        W17352  31.142  13.411  14.002 -0.1236 -0.0229  0.0541
74440W        W17353  10.973  20.374  20.377  0.0837  0.1733  0.1153
74441W        W17354  18.377   9.227  17.012 -0.1673 -0.0828  0.1340
74442W        W17355  14.950  11.170  19.763 -0.2659  0.1703 -0.1568
74443W        W17356   9.768  18.071  12.833  0.2223 -0.0250 -0.1523
74444W        W17357  14.212  13.844  27.076  0.0124 -0.1237 -0.2461
74445W        W17358  12.798   7.249   1.370  0.0162  0.0109 -0.0014
74446W        W17359   9.327  10.889  18.677  0.1703  0.0897 -0.0118
74447W        W17360   4.274  18.844  17.202  0.6197  0.1277 -0.3531
74448W        W17361  16.640  26.820  18.821  0.1401 -0.1727 -0.1660
74449W        W17362  17.301   5.855  21.620 -0.4500  0.0036 -0.1041
74450W        W17363  17.046  22.319  13.316  0.3386 -0.0420 -0.2754
74451W        W17364  10.010   5.191  22.960 -0.0699  0.0822  0.0518
74452W        W17365  19.566   9.898  19.169  0.3234 -0.2953 -0.0773
74453W        W17366  22.509  20.417  14.480 -0.3785 -0.1043 -0.0711
74454W        W17367  19.259  24.838  18.304 -0.0643  0.0759 -0.1685
74455W        W17368  18.678  12.852  22.807  0.0253 -0.1278 -0.3094
74456W        W17369  12.616  17.347  17.842 -0.2642  0.1091  0.0406
74457W        W17370  18.741  10.432  14.556  0.0770  0.2657 -0.1717
74458W        W17371   6.282   7.691  18.787 -0.1370 -0.0868  0.2165
74459W        W17372  14.960  21.865  15.953 -0.0023 -0.1151 -0.1731
74460W        W17373  32.090  14.746  17.884  0.0065  0.4539 -0.0038
74461W        W17374  24.088  12.773  24.451 -0.0507 -0.0571 -0.0679
74462W        W17375  19.854   5.701  20.903  0.2707  0.2451  0.5711
74463W        W17376  23.715   6.019  25.582  0.0106 -0.0861 -0.1783
74464W        W17377  22.613  13.600  17.951  0.2091 -0.2282 -0.0498
74465W        W17378  16.332   6.424  16.756  0.0056 -0.0003 -0.3354
74466W        W17379  10.490  11.183  17.939 -0.2010 -0.2219 -0.1085
74467W        W17380  17.203  21.039  15.638 -0.0420  0.2476  0.2551
74468W        W17381  16.510   8.855  15.828 -0.2284  0.0377 -0.2960
74469W        W17382  16.734  15.918  12.230  0.1433  0.1440  0.0164
74470W        W17383  19.890  26.486  22.264 -0.0501  0.1257  0.1077
74471W        W17384  18.878  19.012  14.170  0.2734 -0.0490  0.2594
74472W        W17385  24.808   8.820  16.069 -0.0827 -0.4313  0.2838
74473W        W17386  23.240  16.387  16.301  0.2208  0.2325 -0.1561
74474W        W17387  13.216  10.232  24.956 -0.0252 -0.0881 -0.0942
74475W        W17388  18.539  31.296  21.505  0.2137  0.0997 -0.1240
74476W        W17389  13.366   5.585  16.768 -0.0402  0.1194 -0.5978
74477W        W17390  20.557  23.327  16.482 -0.1022  0.2257  0.3654
74478W        W17391  28.636  29.919  18.241 -0.0096  0.3077  0.0020
74479W        W17392  25.267  16.553  18.759 -0.1838 -0.0963 -0.0596
74480W        W17393   7.749  13.193  15.553 -0.3451 -0.1580 -0.0828
74481W        W17394  16.290   9.674  13.812  0.0040 -0.3664 -0.0061
74482W        W17395  25.383  15.069  26.857 -0.2118  0.1257  0.1515
74483W        W17396  24.927  18.022  22.615  0.1547  0.0456  0.1296
74484W        W17397   8.039  23.912  21.402  0.1312  0.3282 -0.1211
74485W        W17398  15.494  12.097  14.498  0.0301 -0.1981  0.2794
74486W        W17399  11.994  21.780  20.030 -0.2462  0.1227  0.3020
74487W        W17400   9.530  13.953  18.952  0.3428 -0.2863 -0.1188
74488W        W17401  21.286  18.113  16.092 -0.2310  0.0287  0.0929
74489W        W17402  13.092  14.901   1.427 -0.1090  0.0596 -0.0964
74490W        W17403  24.662  20.679  14.005 -0.0482  0.1734  0.3337
74491W        W17404  14.802  27.682  27.170  0.0978 -0.1321 -0.2084
74492W        W17405   7.292  20.849  15.532 -0.1632 -0.0213 -0.1975
74493W        W17406  14.863  12.249  15.096 -0.0037  0.2877  0.1159
74494W        W17407  14.311  18.716  13.461 -0.0766 -0.1269  0.1241
74495W        W17408  13.662  12.784  14.852 -0.1553  0.1901 -0.1976
74496W        W17409  14.548  26.100  17.939  0.2682 -0.3983 -0.0463
74497W        W17410  19.748  22.388  13.357 -0.2597 -0.0349  0.1539
74498W        W17411  28.279  15.704  20.978  0.1323  0.1237 -0.1330
74499W        W17412   6.529   9.276  25.512 -0.0874  0.0434 -0.0197
74500W        W17413  26.805  20.268  18.986 -0.2649 -0.1854  0.2671
74501W        W17414   7.773  14.508  16.731 -0.0509 -0.0082 -0.2026
74502W        W17415  10.951  23.827  18.638  0.2395  0.0321  0.2429
74503W        W17416  20.171   2.248  24.547 -0.2586 -0.6083  0.1491
74504W        W17417   7.547  22.311  15.971  0.1120  0.1815 -0.1512
74505W        W17418  10.633  15.196  19.560  0.0238 -0.0856  0.2209
74506W        W17419  22.058   8.511  20.643 -0.0065  0.2975 -0.0696
74507W        W17420  21.945  11.814  20.835  0.0102  0.0966  0.1148
74508W        W17421  25.160  17.779  14.955 -0.0243  0.2713 -0.0525
74509W        W17422  17.351   8.453  21.895 -0.0414 -0.3634  0.1331
74510W        W17423  11.784  17.514  18.960  0.4799  0.0338  0.1050
74511W        W17424  10.591  11.047  16.346 -0.2560 -0.1719 -0.0361
74512W        W17425   0.146  22.038  16.382  0.0071  0.0632 -0.0612
74513W        W17426  13.445  17.065  12.863  0.3573  0.1108  0.0228
74514W        W17427  26.904  14.222  26.155  0.4080  0.2177  0.1064
74515W        W17428  24.356   7.719  19.980 -0.0957 -0.3022 -0.2134
74516W        W17429   9.279  10.507  24.186 -0.0333  0.3064 -0.3106
74517W        W17430  16.699  26.051  14.583 -0.0149 -0.2043 -0.3676
74518W        W17431   8.136   4.794  23.591 -0.1887  0.3222 -0.1348
74519W        W17432   5.581  16.791  16.664  0.1292  0.0469 -0.3814
74520W        W17433  12.286  19.999  20.584 -0.2256  0.0565  0.3462
74521W        W17434  32.693  21.986  23.307  0.1475 -0.1166 -0.0011
74522W        W17435  25.920  16.319  20.400  0.1726 -0.1979 -0.1198
74523W        W17436  16.601  27.251  22.988 -0.0006 -0.1819  0.0403
74524W        W17437  19.463   9.801  16.481  0.1131  0.3182 -0.0627
74525W        W17438  23.806  15.862  13.031 -0.1404 -0.2220 -0.0203
74526W        W17439  10.273  20.514  15.246 -0.2122  0.0551  0.0199
74527W        W17440  19.759  20.460  12.958 -0.0017 -0.0937 -0.1715
74528W        W17441  15.606  13.481  24.133 -0.3343  0.1802 -0.1807
74529W        W17442  21.248  16.202  20.886  0.1037 -0.0948 -0.2270
74530W        W17443  19.912  16.600  26.463  0.2409  0.1476  0.0066
74531W        W17444  24.683  14.603  13.518 -0.1762  0.1009  0.0034
74532W        W17445  11.292  11.574  20.620  0.0627  0.3113  0.0316
74533W        W17446   6.351   9.678  23.780 -0.3866  0.3293 -0.0056
74534W        W17447  10.851   7.790  20.468  0.0727 -0.2752 -0.2679
74535W        W17448  15.434  12.580  15.182 -0.2689 -0.0694 -0.1715
74536W        W17449  15.097  16.821  13.637  0.2174  0.1269 -0.0622
74537W        W17450  22.646  30.956  24.144  0.0941 -0.0675 -0.1446
74538W        W17451  18.196  15.572  12.159  0.1287 -0.1159 -0.1585
74539W        W17452  17.034   6.132  25.186  0.1160 -0.3141  0.2037
74540W        W17453  15.793   9.418  14.458  0.2952  0.1471 -0.1331
74541W        W17454  19.524  16.291  13.356 -0.3884  0.1438  0.2116
74542W        W17455  13.671  14.803  16.405  0.0785  0.3230 -0.0882
74543W        W17456  11.949  11.974  16.724 -0.1006 -0.2573  0.0974
74544W        W17457  22.826   1.344  17.209  0.2570  0.0034  0.0267
74545W        W17458  15.011  13.732  15.182 -0.1217 -0.1650  0.1529
74546W        W17459  28.113  14.281  21.318 -0.0089  0.2398  0.1069
74547W        W17460   7.758  16.022  13.880  0.1175 -0.0951 -0.0230
74548W        W17461  27.229  19.049  12.916 -0.0071 -0.1864 -0.3015
74549W        W17462   7.069  20.533  18.932  0.0443 -0.0800 -0.1830
74550W        W17463  10.581  13.095  17.069 -0.1606  0.1240  0.1596
74551W        W17464  24.853  15.127  15.857 -0.1853  0.1520 -0.3949
74552W        W17465  21.808  17.865  16.083 -0.2044 -0.1129  0.0819
74553W        W17466   7.780  19.230  14.012 -0.0014  0.0376 -0.0981
74554W        W17467  23.550   6.157  21.234 -0.0577  0.3896  0.3188
74555W        W17468   1.950  22.212  25.499  0.1279 -0.0964 -0.1679
74556W        W17469  25.875   8.608  16.417 -0.0210  0.0811  0.3206
74557W        W17470  21.812  23.192  13.784 -0.2038 -0.0371 -0.0311
74558W        W17471   8.614  21.092  17.128  0.1858  0.1835 -0.1955
74559W        W17472  14.083  12.646  12.154  0.0876 -0.1048  0.3657
74560W        W17473   5.652  30.064  18.225 -0.3973  0.3742 -0.1459
74561W        W17474  20.972  17.080  12.287 -0.0601  0.3098  0.0444
74562W        W17475  16.648  13.916  23.237  0.3010 -0.1023 -0.2005
74563W        W17476  24.937  12.459  17.100 -0.0381 -0.3402 -0.0662
74564W        W17477   1.672  12.532  17.879 -0.0758 -0.0941 -0.0918
74565W        W17478  11.974  14.827  12.674 -0.3391 -0.2071 -0.1943
74566W        W17479  12.783   2.312  23.583 -0.4842 -0.0530  0.0746
74567W        W17480  11.756  17.690  22.979  0.1430 -0.1146  0.1330
74568W        W17481   9.123  15.905  14.100 -0.0347 -0.1068 -0.2452
74569W        W17482  22.288  18.365  19.168 -0.0419  0.1423  0.3059
74570W        W17483  19.283   5.908  18.739  0.1877 -0.0366  0.1006
74571W        W17484  27.419  13.912  16.920  0.3318 -0.2049 -0.0875
74572W        W17485  16.302   9.197  22.480 -0.3035  0.0468  0.0039
74573W        W17486  16.668   5.962  21.545 -0.1506 -0.1340 -0.2056
74574W        W17487  21.940  14.545  16.623 -0.0555 -0.0460  0.2230
74575W        W17488   9.340  17.260  13.355 -0.0583 -0.2272 -0.2116
74576W        W17489  13.763   9.541  17.444 -0.1036  0.0390  0.1228
74577W        W17490  16.630  19.167  18.484  0.1330  0.2242  0.2185
74578W        W17491  23.131   5.139  20.550 -0.1047 -0.2916  0.2636
74579W        W17492   7.376  19.960  14.994 -0.1668  0.1504 -0.0403
74580W        W17493  17.702  21.243  15.575  0.0522 -0.0577  0.1850
74581W        W17494  24.153  14.095  23.850 -0.0394  0.0983  0.0180
74582W        W17495  16.493  11.679  15.535 -0.2691  0.1678 -0.1583
74583W        W17496   9.211  25.051  16.420  0.2600 -0.0326  0.0177
74584W        W17497  11.625  25.986  25.086 -0.0513 -0.0037  0.2211
74585W        W17498  10.492  14.534  17.191 -0.0369  0.0850  0.2631
74586W        W17499  24.783  16.283  17.278 -0.1384  0.1266  0.1072
74587W        W17500   5.841   3.749  18.211  0.2124 -0.0626 -0.0054
74588W        W17501   7.615  20.511  19.192 -0.1902 -0.1653  0.0864
74589W        W17502  13.516  27.344  15.485 -0.2175 -0.0887  0.1577
74590W        W17503   5.626  16.263  15.294  0.0027  0.1035  0.3748
74591W        W17504   8.015  12.066  16.404  0.2153 -0.2704 -0.4288
74592W        W17505  14.663  18.101  13.733  0.2364  0.0790  0.3188
74593W        W17506   9.779  23.961  16.308  0.1590  0.4344  0.3542
74594W        W17507   5.781  24.893  15.649 -0.0335 -0.0550  0.1377
74595W        W17508  21.530  17.606  20.868  0.2341  0.1012  0.3267
74596W        W17509  22.939  22.382  15.989  0.0330  0.0897  0.0731
74597W        W17510  22.320  13.787  18.357 -0.1329 -0.2393  0.1695
74598W        W17511  16.921  11.236  26.717 -0.2425  0.1881  0.0378
74599W        W17512  20.002  25.189  17.058 -0.2020  0.3174 -0.2189
74600W        W17513  18.496  14.546  13.343  0.3200  0.0492  0.1209
74601W        W17514   6.887  12.831  14.432 -0.0718 -0.1635  0.2406
74602W        W17515  16.139  11.741  16.921 -0.1022  0.1481  0.3092
74603W        W17516  24.033  10.351  15.482  0.1607 -0.3292 -0.2117
74604W        W17517  11.768  21.741  19.201 -0.0423 -0.2217  0.0862
74605W        W17518  14.600   9.833  21.229  0.2038 -0.1679 -0.0736
74606W        W17519   5.357  21.770  16.921  0.2418 -0.4354  0.0525
74607W        W17520  20.301  25.503  24.583 -0.0172  0.1435  0.2555
74608W        W17521  16.233  19.809  13.907 -0.1143  0.1668 -0.3966
74609W        W17522   9.353   8.876  16.164 -0.0255  0.2281  0.1489
74610W        W17523  12.654  13.277  21.238 -0.2052  0.0203 -0.0315
74611W        W17524  21.701  19.099  13.905  0.3640  0.0604 -0.1236
74612W        W17525  22.489   7.382  29.622  0.1507 -0.0835  0.1030
74613W        W17526  12.327   7.748  18.471  0.0513 -0.2097  0.0985
74614W        W17527   9.962  19.044  15.384  0.3140 -0.0373 -0.3030
74615W        W17528   7.596  12.120  15.451 -0.1742 -0.1200 -0.0850
74616W        W17529  16.651   8.986  17.018  0.0890 -0.1217 -0.1178
74617W        W17530  21.609  21.286  14.287 -0.1322 -0.2386 -0.1938
74618W        W17531   6.280  15.694  19.148  0.1218  0.1449  0.1531
74619W        W17532   9.129  19.909  18.899 -0.1849  0.1426 -0.1842
74620W        W17533  13.579  10.617  21.305  0.3395  0.3906 -0.2781
74621W        W17534  30.204  12.629  19.725 -0.0848  0.1651  0.1015
74622W        W17535  20.813  20.984  20.686  0.1153  0.0184  0.0332
74623W        W17536  15.523   8.833  19.146  0.0491 -0.0515 -0.3858
74624W        W17537  19.981  17.652  15.262 -0.0644  0.0554 -0.0292
74625W        W17538  12.050   7.898  17.696 -0.1845 -0.2905 -0.1166
74626W        W17539  13.034  12.996  27.152 -0.0555 -0.2578 -0.0272
74627W        W17540  19.973  19.137  15.163  0.1183 -0.0396  0.0789
74628W        W17541  24.409  17.511  20.160  0.1586  0.1687  0.1026
74629W        W17542  11.708  11.089  17.192  0.1641  0.0232 -0.1000
74630W        W17543  11.536  23.514  23.339  0.1291 -0.0575  0.1872
74631W        W17544  12.881  14.352  22.350  0.0171  0.1908  0.3728
74632W        W17545  14.630  23.489  16.615 -0.0559  0.0503  0.0141
74633W        W17546  10.357  11.250  15.153  0.1690 -0.2826 -0.0943
74634W        W17547   9.231  10.942  22.089 -0.3438 -0.0846 -0.0426
74635W        W17548  22.898  20.587  22.963  0.0928 -0.2857 -0.1252
74636W        W17549  17.083  25.027  14.495  0.3291 -0.0776 -0.1793
74637W        W17550  15.572  11.133  18.436  0.2414  0.0344  0.1834
74638W        W17551  11.172  21.798  25.792  0.0841 -0.0809  0.1945
74639W        W17552  19.755  18.772  22.473  0.0381  0.0340 -0.0417
74640W        W17553  21.311  14.810  15.535  0.3601 -0.3546 -0.0964
74641W        W17554  17.711  16.619  19.757 -0.1910  0.0700  0.1586
74642W        W17555  25.727  11.427  24.112 -0.1619  0.3387  0.1407
74643W        W17556  18.878   8.369  19.079  0.2285 -0.1718  0.0336
74644W        W17557  18.118  25.892  14.423 -0.0117 -0.1215  0.0592
74645W        W17558  17.654  20.403  12.279 -0.2904 -0.2228 -0.3184
74646W        W17559  13.049  11.495  21.105  0.1307 -0.0790  0.1131
74647W        W17560  23.405  12.333  20.671  0.1945  0.1756  0.1838
74648W        W17561  22.312  19.337  15.356 -0.0550 -0.0690  0.1894
74649W        W17562   8.550  17.247  15.011  0.3948 -0.1735 -0.1833
74650W        W17563  15.972  10.494  13.907 -0.2299 -0.1071  0.0468
74651W        W17564  12.192  20.895  17.619  0.1465  0.1538 -0.1029
74652W        W17565  25.820  13.727  14.592 -0.0906  0.0202 -0.0456
74653W        W17566  24.985  21.664  12.451 -0.1317  0.0795  0.1262
74654W        W17567  11.941  11.941  21.100  0.2785  0.1131  0.1388
74655W        W17568  19.638   1.121  19.935 -0.2938  0.0330  0.4460
74656W        W17569  20.489  22.777  16.836  0.0571 -0.2228 -0.2204
74657W        W17570  18.337  15.000  14.831 -0.4031 -0.0880  0.4042
74658W        W17571   9.443  21.282  25.640 -0.2281 -0.0318  0.0619
74659W        W17572  29.119  16.203  22.421 -0.1242 -0.1457 -0.3606
74660W        W17573  12.474  11.531  19.865  0.2233 -0.2004  0.2916
74661W        W17574  21.002  13.510  27.842  0.0946  0.0052 -0.4086
74662W        W17575  11.299  14.084  17.421 -0.0656 -0.2075  0.1739
74663W        W17576  14.101  12.747  19.817 -0.1490 -0.3656  0.0860
74664W        W17577  26.764  16.178  12.989  0.0488  0.3139 -0.3411
74665W        W17578  15.671  21.566  15.601 -0.1860  0.1826 -0.0094
74666W        W17579  17.788  26.799  19.376 -0.4072  0.0266  0.0671
74667W        W17580  15.068  12.421  20.251  0.1787 -0.1256  0.1385
74668W        W17581  14.172   7.233  27.398  0.1573  0.1114 -0.3746
74669W        W17582  22.441  14.423  19.275  0.1154 -0.0152  0.1378
74670W        W17583  23.468  22.327  29.650  0.1207  0.0535  0.2384
74671W        W17584  10.426  20.754  21.498  0.0726 -0.0557 -0.2888
74672W        W17585  18.066  33.935  24.061  0.1060  0.5727  0.1220
74673W        W17586  18.766   0.006  21.615  0.1915  0.0583  0.0135
74674W        W17587  21.992  17.673  21.747  0.0019 -0.1837 -0.2782
74675W        W17588  15.539   7.591  16.809 -0.0945  0.2581  0.2847
74676W        W17589  21.686   9.464  24.067 -0.0348 -0.3976  0.1503
74677W        W17590  17.060  10.962  15.598 -0.2037 -0.0522 -0.2963
74678W        W17591  17.109  15.648  16.881 -0.1898  0.0920 -0.2174
74679W        W17592  21.781  10.516  22.215  0.0140 -0.1872 -0.0188
74680W        W17593  21.337  19.491  11.768 -0.1673  0.0899  0.0199
74681W        W17594  21.708  13.389  14.961  0.0090  0.0255  0.1950
74682W        W17595  14.931  12.708  16.853 -0.1393 -0.1343 -0.1615
74683W        W17596   7.909  11.855  27.137  0.0121 -0.0948  0.2998
74684W        W17597  11.657  22.822  29.619  0.5680 -0.1046  0.1082
74685W        W17598  11.575  27.097  23.828  0.0724 -0.1634  0.0744
74686W        W17599  16.535  18.446  14.954  0.0992  0.3571 -0.1405
74687W        W17600  15.801  15.259  11.683 -0.0284  0.0410 -0.0619
74688W        W17601  25.574  24.543  19.847 -0.1162 -0.0081  0.1597
74689W        W17602  20.070  13.724  18.018 -0.3548  0.2973 -0.2698
74690W        W17603  15.657  28.500  17.887 -0.4151  0.0760 -0.0091
74691W        W17604  24.094  13.582  13.647  0.0728  0.4783 -0.1548
74692W        W17605  19.201   9.033  15.917  0.0635 -0.1403 -0.1412
74693W        W17606  12.639  10.901  16.319 -0.0929 -0.0682 -0.0172
74694W        W17607  22.384  12.004  17.204 -0.1153 -0.0877  0.0690
74695W        W17608  26.578  17.658  18.279  0.3984 -0.3102 -0.0331
74696W        W17609  16.321  16.279  17.147 -0.0346  0.0022  0.1278
74697W        W17610  22.393  19.220  19.764 -0.0194  0.1644  0.1016
74698W        W17611  10.756  11.730  17.029 -0.2195  0.3055 -0.0269
74699W        W17612  15.103   9.101  16.685  0.0246 -0.0663 -0.0425
74700W        W17613  11.750  24.241  16.675 -0.0861  0.3337 -0.1072
74701W        W17614  10.806   7.237  23.315 -0.1189  0.0000  0.1944
74702W        W17615  19.342  21.817  14.221  0.0024 -0.1982 -0.0304
74703W        W17616  14.782  15.425  13.578 -0.1299  0.5051  0.0559
74704W        W17617  18.782   8.655   4.318 -0.0877  0.2118 -0.1304
74705W        W17618  20.876  19.304  21.240  0.2687  0.1033 -0.0150
74706W        W17619  24.414  11.118  25.240  0.0557  0.3295  0.0753
74707W        W17620  25.069  14.342  16.099 -0.0701  0.0360 -0.1427
74708W        W17621  25.934  14.532  17.566  0.3265  0.0865  0.4937
74709W        W17622  19.121   9.596  22.634 -0.1612  0.2309  0.1857
74710W        W17623  27.453  21.872  12.494  0.0322  0.2702  0.1533
74711W        W17624   9.466  25.142  15.975 -0.1734  0.0379  0.3319
74712W        W17625   9.688  17.948  23.560  0.0356  0.3115 -0.1230
74713W        W17626   9.887  22.327  17.019 -0.0117  0.0559 -0.0754
74714W        W17627   7.942  17.547  21.331  0.1373 -0.2125  0.1096
74715W        W17628   4.639  17.927  16.452 -0.2282  0.0220  0.2316
74716W        W17629  17.398   6.589  22.999 -0.0870 -0.0561  0.0732
74717W        W17630  12.329  18.621  12.693 -0.1667  0.1330 -0.0380
74718W        W17631  16.663  15.785   5.152  0.1502 -0.0178 -0.2705
74719W        W17632   5.028   8.541  21.951 -0.1101 -0.1548 -0.2193
74720W        W17633  15.577  22.923  15.922  0.0216  0.2114 -0.2059
74721W        W17634   4.691   3.211  18.958 -0.0801 -0.1577  0.1437
74722W        W17635  24.681  15.111  18.040  0.1252  0.2006 -0.0998
74723W        W17636  22.467  28.689  22.395 -0.2331  0.0066 -0.1979
74724W        W17637  21.869  16.075  18.383  0.1474 -0.0197 -0.0963
74725W        W17638  10.189  14.245  13.699  0.2809 -0.0904 -0.0450
74726W        W17639  19.343  12.629  25.253 -0.2342 -0.0505  0.4538
74727W        W17640  14.793  14.764  15.878  0.0841  0.0421 -0.1825
74728W        W17641  26.443   2.903  27.158  0.1566  0.0382  0.0163
74729W        W17642   9.738   9.794  16.746  0.1115  0.3030  0.0918
74730W        W17643  25.885  18.812  13.422 -0.3255 -0.1344 -0.1807
74731W        W17644  16.822  23.194  16.006 -0.1293 -0.1419 -0.2157
74732W        W17645  22.308  10.115  15.486 -0.0630  0.0368 -0.1256
74733W        W17646  23.848  18.373  23.581 -0.0152  0.0391  0.1474
74734W        W17647  16.883   8.926  22.510 -0.1265  0.0953  0.2108
74735W        W17648  17.503  23.139   5.650 -0.1321 -0.1279 -0.0264
74736W        W17649   8.490  16.431  18.676  0.0499 -0.0066  0.2305
74737W        W17650   9.204  16.450  14.849 -0.1285  0.1526 -0.1304
74738W        W17651  13.360  13.763  14.441  0.1633  0.1232  0.0666
74739W        W17652  24.865  16.691  26.762 -0.1639  0.1080  0.5939
74740W        W17653  13.931  27.212  21.468  0.0456  0.1080  0.0479
74741W        W17654  31.169  16.316  20.404  0.3956 -0.0427  0.1765
74742W        W17655  15.989  18.674  18.198  0.2864  0.1818 -0.0638
74743W        W17656  18.032   5.565  21.226  0.0440 -0.1596 -0.1836
74744W        W17657  19.855  26.963  17.474 -0.0447  0.3714  0.1853
74745W        W17658  19.877  10.175  14.804  0.2802  0.4000  0.0711
74746W        W17659  28.329  15.912  15.238  0.2142 -0.1786 -0.1215
74747W        W17660   5.236   9.622  18.920 -0.1329  0.3100 -0.2841
74748W        W17661  13.904  15.417  19.190  0.2490 -0.1014  0.0855
74749W        W17662  14.922  14.178  24.624  0.0060 -0.0523  0.1643
74750W        W17663  17.467  16.551  18.763  0.1044  0.1157 -0.1269
74751W        W17664  17.668  10.655  15.551 -0.2418  0.3473  0.0480
74752W        W17665   9.917  16.982  22.580 -0.0510  0.0898  0.0224
74753W        W17666   8.636  12.432  23.527  0.0532 -0.3354 -0.1065
74754W        W17667   7.940   0.510  27.552 -0.1935 -0.0201 -0.0326
74755W        W17668   1.045  19.095  23.672  0.1904 -0.5086 -0.1007
74756W        W17669  22.171  17.310  14.213 -0.1871 -0.1923  0.1766
74757W        W17670  19.535  12.588  18.424  0.0569 -0.0624 -0.1516
74758W        W17671  13.340   7.886  15.534  0.1799  0.2950  0.3317
74759W        W17672  22.026   8.039  20.849  0.1439 -0.4002  0.1397
74760W        W17673  18.901  21.175  22.414  0.1879 -0.1740  0.2058
74761W        W17674   4.212  12.278  18.195  0.1902 -0.1423 -0.1238
74762W        W17675  21.983   3.014  21.455  0.1153  0.1773  0.1361
74763W        W17676  24.210  18.234  20.434 -0.1632 -0.2057 -0.0421
74764W        W17677   4.490  27.655  19.322  0.0419 -0.1896  0.3326
74765W        W17678  11.477  21.925  28.570  0.1463  0.1608 -0.2114
74766W        W17679  21.731  23.453  19.992  0.1466  0.0834  0.1847
74767W        W17680  33.318  16.116   1.632  0.0113 -0.0372 -0.2529
74768W        W17681  17.504   6.638  14.772  0.4046  0.2892  0.0176
74769W        W17682   9.843   9.077  18.026  0.1221 -0.0704 -0.0434
74770W        W17683  27.106  12.390  15.718  0.0537 -0.1911 -0.1666
74771W        W17684  22.942   5.624  24.793 -0.0496 -0.1150 -0.0567
74772W        W17685   7.080  12.025  24.629  0.2864  0.3170  0.1388
74773W        W17686  20.503  20.648  16.831  0.0467  0.3790 -0.1613
74774W        W17687  14.200  26.051  16.794 -0.1224 -0.0395 -0.2557
74775W        W17688  19.801  21.908  13.551 -0.0256 -0.0308  0.2225
74776W        W17689  16.378  15.982  17.562 -0.1252 -0.0787  0.1056
74777W        W17690  24.007  19.548  13.419 -0.0470 -0.3081 -0.0544
74778W        W17691  29.797   9.383  20.804  0.1080  0.0473  0.0648
74779W        W17692  25.803  15.339  14.733  0.1525  0.2496  0.2526
74780W        W17693  19.904  11.163  19.172  0.0021  0.2241 -0.0656
74781W        W17694  26.910  12.334  17.775 -0.0864  0.0058 -0.0288
74782W        W17695  15.791  15.583  16.949 -0.0726 -0.0329  0.2044
74783W        W17696  23.197  12.032  21.702 -0.2698 -0.3565 -0.0837
74784W        W17697   8.317  17.818  22.096 -0.2729  0.1037 -0.0517
74785W        W17698  26.547  12.728  17.858 -0.2334 -0.1812 -0.0341
74786W        W17699  13.308  14.348  14.269  0.1382 -0.0104  0.3194
74787W        W17700  10.138  10.839  21.567 -0.1155 -0.0253 -0.0429
74788W        W17701  22.834   9.208  19.101 -0.0319  0.2596 -0.2296
74789W        W17702  15.768  11.223  17.146  0.2733  0.0029 -0.0633
74790W        W17703  22.958  13.577  17.303  0.1677 -0.1283  0.0036
74791W        W17704  14.413  25.039  15.294 -0.0372  0.1684 -0.0344
74792W        W17705  11.341  14.946  13.790  0.0769 -0.0116  0.1829
74793W        W17706  14.592   9.914  22.363 -0.2771 -0.1932 -0.0591
74794W        W17707  22.194  17.961  15.664 -0.1585 -0.0608  0.0617
74795W        W17708  19.460  12.484  12.629  0.0155  0.0352  0.1955
74796W        W17709   9.907   6.239  26.710 -0.0299 -0.1309 -0.3249
74797W        W17710  25.590   3.115  25.916 -0.3256 -0.0135 -0.0309
74798W        W17711  15.882  24.969  19.837  0.2161 -0.0540 -0.0518
74799W        W17712  20.175  23.998  13.259  0.2070  0.2503  0.4713
74800W        W17713  14.586  12.544  12.983  0.5465  0.1883 -0.0447
74801W        W17714  18.088  17.052  17.935  0.0765 -0.0714 -0.1244
74802W        W17715  12.103  22.240  23.807 -0.1366  0.0041  0.1342
74803W        W17716  17.930  12.411  16.172 -0.1956  0.2841  0.0910
74804W        W17717  15.987   8.660  20.368  0.1783 -0.0732  0.3581
74805W        W17718  21.643  14.323  13.697 -0.2027 -0.1351 -0.0122
74806W        W17719   4.593  19.180  17.505  0.3214  0.1400  0.0854
74807W        W17720  29.292  22.361  16.169 -0.1464 -0.0110 -0.0093
74808W        W17721  17.886   3.777  20.071 -0.0174  0.1658  0.2531
74809W        W17722  20.765  16.617  11.325 -0.0970  0.0063 -0.3988
74810W        W17723  25.896  25.474  25.370 -0.0240  0.2865  0.0109
74811W        W17724  19.121   8.169  14.260  0.1021 -0.0071  0.3293
74812W        W17725  21.117  14.624  28.881  0.1258  0.6124 -0.1933
74813W        W17726  14.927   2.861  21.603  0.1524 -0.2272  0.1465
74814W        W17727  11.474  16.786  24.847 -0.1132  0.2467  0.0697
74815W        W17728  10.822  18.024  13.390 -0.0605 -0.0540  0.1453
74816W        W17729   9.626  11.622  25.784 -0.1020  0.1740  0.0095
74817W        W17730  10.671   8.367  20.878 -0.2264  0.0435  0.0680
74818W        W17731  17.766  11.463  14.027  0.1198 -0.2625  0.2438
74819W        W17732   0.830  20.602  25.423  0.2694  0.1938  0.1531
74820W        W17733  22.341  16.499  14.090  0.0746  0.1324  0.0110
74821W        W17734  18.252  17.655  17.153 -0.0486  0.0453 -0.1348
74822W        W17735  20.273  13.126  21.248 -0.1662 -0.3337 -0.0946
74823W        W17736  23.395  16.399  17.228  0.1815  0.1878  0.1314
74824W        W17737  11.896  12.065  16.186  0.2076 -0.0643  0.0079
74825W        W17738  13.675   9.544  20.338  0.1808 -0.3401  0.3237
74826W        W17739  20.167  11.086  13.525 -0.0985 -0.0652 -0.0423
74827W        W17740  24.879  23.600  18.691  0.1321  0.3888  0.1759
74828W        W17741  20.105  23.378  22.236 -0.1673 -0.1040  0.0300
74829W        W17742  16.719  11.012  17.432 -0.2074 -0.0236 -0.3125
74830W        W17743   3.675  31.306  16.582 -0.0422  0.1290  0.0273
74831W        W17744   5.878  17.174  19.239  0.1450  0.0285 -0.0786
74832W        W17745   7.140  15.585  22.394  0.3272 -0.2000 -0.0274
74833W        W17746  20.028  24.721  17.030 -0.1041 -0.0327 -0.1067
74834W        W17747  15.076  15.878  24.975  0.1406 -0.0991 -0.3231
74835W        W17748   9.617  19.726  26.602 -0.2130 -0.0088 -0.1152
74836W        W17749  10.947  17.097  20.395  0.2568 -0.2433  0.2340
74837W        W17750  12.192  10.726  19.707  0.0259 -0.1563  0.1154
74838W        W17751  13.582  11.307  16.251  0.1238 -0.2464  0.0813
74839W        W17752  11.893  16.544  15.671 -0.1182 -0.0248 -0.3627
74840W        W17753  10.138  18.339  19.211 -0.2166  0.1058 -0.1070
74841W        W17754  11.675  15.887  16.136 -0.1301 -0.0268 -0.0431
74842W        W17755  11.039  19.797  17.733  0.4259  0.0975  0.1011
74843W        W17756   1.935  16.131  14.836 -0.0062 -0.0197 -0.1384
74844W        W17757  14.403   8.900  14.612  0.1949  0.1367 -0.1091
74845W        W17758  10.089  18.751  19.522 -0.1265 -0.2568  0.0645
74846W        W17759  17.793  12.927  18.961 -0.2637 -0.3031  0.0795
74847W        W17760  25.275  14.690  14.773  0.0700  0.2381 -0.1416
74848W        W17761  10.926  11.724  20.876 -0.2199  0.0442 -0.0507
74849W        W17762  24.232  24.306  18.483  0.1691  0.1276  0.2568
74850W        W17763  12.960  11.371  17.849  0.1993  0.1286 -0.2369
74851W        W17764  14.254  21.853  16.340  0.1367 -0.0228 -0.1978
74852W        W17765  19.622   6.042  16.773  0.0343 -0.1324  0.2468
74853W        W17766  27.594  12.614  18.781 -0.0570  0.2349  0.2021
74854W        W17767  14.612  11.021  13.141  0.0258 -0.3253 -0.1010
74855W        W17768  18.106  22.718  15.286  0.1707  0.0400  0.3260
74856W        W17769  20.884  25.265  14.010 -0.4269  0.3259  0.0809
74857W        W17770  13.808  13.172  19.704  0.0409  0.1950  0.0251
74858W        W17771   8.113  17.997  15.664  0.1991 -0.1037  0.1506
74859W        W17772  30.047  11.900  21.111  0.2645  0.1761 -0.1521
74860W        W17773  10.894  21.010  18.244 -0.2467  0.1867  0.0824
74861W        W17774  13.707  15.415  13.869  0.0284  0.2571  0.1214
74862W        W17775   7.675  15.451  18.377 -0.2317 -0.1070 -0.0509
74863W        W17776  11.465  15.980  14.837 -0.1566  0.3413  0.0508
74864W        W17777  14.929  13.216  16.964  0.1968 -0.2186 -0.0192
74865W        W17778  16.229  17.222  18.717  0.1676 -0.1057 -0.0937
74866W        W17779  14.726  10.009  15.186  0.1172  0.1496 -0.2372
74867W        W17780  11.025   8.602  22.161 -0.0614 -0.0266 -0.2417
74868W        W17781  17.112  16.993  16.768  0.1047  0.0018  0.0122
74869W        W17782   9.427  24.998  22.069  0.0905 -0.0046 -0.3223
74870W        W17783  22.040  28.972  20.260  0.2966 -0.2096  0.0630
74871W        W17784  16.700  16.131  13.535 -0.0002  0.0938 -0.0155
74872W        W17785  11.761  11.906  22.091 -0.0509  0.0126 -0.0502
74873W        W17786  21.489  25.235  18.189 -0.5670  0.1942 -0.0030
74874W        W17787   3.700  25.212  25.540 -0.0264 -0.0872 -0.1736
74875W        W17788  23.287  10.046  18.442 -0.0207  0.1139  0.1095
74876W        W17789  21.790  25.058  17.817  0.1800  0.3198 -0.1896
74877W        W17790  20.936  13.729  22.741  0.0341  0.0208 -0.4056
74878W        W17791  10.053  13.531  25.666 -0.1252  0.0692 -0.1808
74879W        W17792  13.269  26.360  23.746 -0.0801 -0.2488 -0.3861
74880W        W17793  13.550  11.799  25.726 -0.3419 -0.0876  0.0674
74881W        W17794  14.178  21.413  23.812 -0.2434  0.1347  0.3033
74882W        W17795  15.760  21.054  22.927 -0.0788  0.0377 -0.1105
74883W        W17796  10.972   8.469  24.087 -0.1000  0.1537  0.0111
74884W        W17797  15.326  17.149  18.357 -0.0185  0.1029 -0.3721
74885W        W17798  14.286  16.235  27.345 -0.4735  0.1104  0.0356
74886W        W17799   6.790  18.408  28.914 -0.2824 -0.2053 -0.0353
74887W        W17800  17.471  18.746  20.074  0.3495 -0.2705  0.0960
74888W        W17801  11.206  20.641  25.785 -0.0741 -0.0542  0.0372
74889W        W17802  14.388  15.575   5.619 -0.0066  0.0489 -0.1349
74890W        W17803  15.708  14.500  23.746 -0.1751 -0.5068 -0.0553
74891W        W17804  11.097  15.027  19.456 -0.2338  0.2386 -0.0064
74892W        W17805  18.357  16.077  18.089  0.1253  0.2824  0.2774
74893W        W17806  17.037  23.335  27.660  0.1166  0.0294  0.2868
74894W        W17807  14.868  17.361  18.251 -0.1205 -0.0856 -0.1184
74895W        W17808  18.318  10.467  19.476  0.0627  0.0495 -0.0124
74896W        W17809  16.261  18.200  17.290  0.2879 -0.1199 -0.2012
74897W        W17810  11.959  17.960  14.091 -0.0486 -0.0023 -0.0664
74898W        W17811  17.276  21.067  19.446  0.0535 -0.2055 -0.0566
74899W        W17812  19.243  16.033  18.417  0.3349 -0.2054  0.4354
74900W        W17813  20.041  14.811  14.683  0.1834  0.1811 -0.1767
74901W        W17814  15.320  14.162  16.641  0.0429  0.0711 -0.1602
74902W        W17815  16.158  18.706  17.644 -0.1049  0.1706 -0.2152
74903W        W17816   6.312   3.408  25.541  0.2466  0.1382  0.1370
74904W        W17817  16.387  18.294  18.401 -0.0595  0.1221 -0.2733
74905W        W17818  28.135  18.976   3.486  0.0739  0.1316 -0.1479
74906W        W17819  19.735  10.196  26.023 -0.2433 -0.2695 -0.1394
74907W        W17820  17.250  17.129  18.136  0.3057  0.0089 -0.4658
74908W        W17821  17.359  18.213  20.359  0.0205  0.2429 -0.0764
74909W        W17822   0.198  11.326  22.010 -0.1685 -0.3146 -0.2626
74910W        W17823  22.530  14.794  23.810 -0.1039 -0.1133  0.0768
74911W        W17824  18.306   7.799  23.724  0.3427 -0.0346  0.0545
74912W        W17825  13.011  12.959  28.023  0.0892 -0.0645 -0.0256
74913W        W17826  17.948  12.411  19.807  0.3426  0.0062 -0.1902
74914W        W17827  23.705   9.518  26.087 -0.2336 -0.0124 -0.0688
74915W        W17828   3.334  30.072  19.798 -0.3734 -0.2101  0.1871
74916W        W17829  18.071  17.190  17.366  0.0040  0.1557 -0.2762
74917W        W17830  18.525  15.592  21.696  0.0316 -0.0627  0.1517
74918W        W17831  15.244   5.573   8.294  0.0817 -0.2796  0.0928
74919W        W17832  17.563   7.507  21.562 -0.2048 -0.0588 -0.0260
74920W        W17833  20.846   6.938  26.624 -0.1871 -0.0414  0.0654
74921W        W17834  18.002  16.957  18.513 -0.1059 -0.2394  0.0281
74922W        W17835   6.224  17.953  23.410  0.1386 -0.1407 -0.2014
74923W        W17836  17.801  17.381  18.682  0.2058  0.1498  0.1763
74924W        W17837  10.542  17.012  27.223  0.0280 -0.3268  0.3057
74925W        W17838  18.618  25.451  22.037  0.3223 -0.1536  0.0906
74926W        W17839  16.738  16.564  16.999 -0.1467  0.0911  0.0599
74927W        W17840  32.612   7.057  20.563  0.0281 -0.1310 -0.1343
74928W        W17841  17.768  16.417  18.406 -0.0895  0.0925  0.3000
74929W        W17842   5.013  23.133  27.731  0.2183  0.0839  0.0923
74930W        W17843  19.074  13.582  16.215  0.3412 -0.0641  0.1528
74931W        W17844  18.665  13.178  15.178  0.1216  0.2336 -0.3561
74932W        W17845  10.461  10.121  19.577 -0.1188 -0.0358 -0.3201
74933W        W17846  19.031   6.690  19.418 -0.1903 -0.2699 -0.3487
74934W        W17847  11.986  10.384  25.828 -0.2431  0.0390 -0.0242
74935W        W17848  18.063  16.707  20.063 -0.0399 -0.0422 -0.0880
74936W        W17849  14.166   9.884  21.017  0.1880  0.1236 -0.1150
74937W        W17850  12.391  16.483  24.721  0.0515  0.0265 -0.0156
74938W        W17851   9.926  18.783  22.443 -0.0571 -0.1920  0.0653
74939W        W17852  15.302  18.588  26.473 -0.0426 -0.0804 -0.2334
74940W        W17853  17.577  16.058  18.113  0.3216 -0.2047 -0.0451
74941W        W17854  21.090  12.762  29.272 -0.1583 -0.5351  0.0339
74942W        W17855  17.994  24.473  19.056  0.0937 -0.0976 -0.1023
74943W        W17856  14.116  14.441  23.399  0.1638  0.3148 -0.0131
74944W        W17857  16.801  16.985  19.493  0.3804  0.1240 -0.0142
74945W        W17858  16.099  14.971  23.015 -0.2964  0.2139  0.1383
74946W        W17859  13.399  13.357  16.595  0.1348 -0.0397  0.0705
74947W        W17860  15.678  17.968  18.198 -0.0505  0.3701 -0.1997
74948W        W17861   8.813  15.517  16.714 -0.1677 -0.2033 -0.0899
74949W        W17862  18.134  16.378  19.638 -0.0728  0.1438 -0.0793
74950W        W17863  20.651  14.561  22.863  0.1227  0.0103  0.0342
74951W        W17864  17.644  13.402  21.707  0.1630  0.3546  0.1071
74952W        W17865  14.821  17.806  18.554 -0.1616 -0.0174  0.0129
74953W        W17866  11.623  10.349  17.627  0.0074  0.1191 -0.0219
74954W        W17867  16.024  17.438  19.118 -0.0524  0.1265 -0.1552
74955W        W17868  16.770  12.018  19.548  0.0662 -0.0425  0.0469
74956W        W17869  16.308  16.809  16.856  0.0838  0.0125 -0.2801
74957W        W17870  17.182   9.533  21.518  0.2129 -0.1908 -0.0054
74958W        W17871  15.500  18.960  18.616 -0.2624 -0.0840  0.1091
74959W        W17872  18.042  11.181  15.978  0.1315 -0.0379 -0.0030
74960W        W17873  17.788  18.303  13.251 -0.2798 -0.1346 -0.0823
74961W        W17874  15.472   5.490  26.347  0.1211 -0.1884 -0.0088
74962W        W17875  16.774   8.809  25.457 -0.0466  0.1224 -0.0193
74963W        W17876  20.185   8.715  21.347  0.3780 -0.0341  0.2200
74964W        W17877  13.038  27.329  15.599  0.0264  0.0394  0.0095
74965W        W17878  17.980  16.806  19.364 -0.1535 -0.1573  0.2622
74966W        W17879  14.799  20.632  14.788 -0.4604 -0.1577  0.0864
74967W        W17880  11.658  12.779  16.518 -0.2102  0.2167 -0.0593
74968W        W17881  16.986  17.417  19.614 -0.0707  0.2119 -0.2831
74969W        W17882  16.852  18.453  18.265 -0.0016  0.0895  0.0220
74970W        W17883  17.311  16.774  17.744  0.1228 -0.1400 -0.0533
74971W        W17884   5.405  19.580  15.617  0.3458 -0.0990 -0.0023
74972W        W17885  32.094  17.434   3.222 -0.0673  0.1366 -0.0364
74973W        W17886   9.669  13.000   1.354 -0.0261 -0.0030  0.2516
74974W        W17887  19.596   5.986  21.706 -0.0978 -0.1048  0.2673
74975W        W17888  17.066  17.721  19.157 -0.2445  0.2566  0.0757
74976W        W17889  17.112  17.566  21.061 -0.0693 -0.0216  0.0732
74977W        W17890  20.307   2.379   5.410 -0.1343  0.1522  0.2310
74978W        W17891  16.092  17.827  18.592 -0.0307 -0.1769  0.2124
74979W        W17892  32.219   8.899  26.532 -0.1264 -0.1335  0.0325
74980W        W17893  17.536  15.223  26.515  0.1032 -0.1050 -0.1614
74981W        W17894  17.432  16.991  18.576  0.0637  0.0404  0.1188
74982W        W17895  19.092  17.525  22.174 -0.2319 -0.0610 -0.0209
74983W        W17896  15.859  21.005  26.563 -0.1216  0.0903  0.2607
74984W        W17897  20.312   8.219  13.174 -0.1835  0.0704 -0.2033
74985W        W17898  23.948  11.409  14.384  0.3228  0.0915 -0.0798
74986W        W17899  16.203  15.627  17.966  0.0497  0.0387  0.1898
74987W        W17900  17.469  10.786  15.119  0.1121  0.1956 -0.0405
74988W        W17901  11.918  10.924  23.011 -0.0813 -0.1640 -0.0302
74989W        W17902  15.398  22.739  20.848 -0.1271 -0.2080 -0.2982
74990W        W17903  18.393  16.163  23.728  0.0382 -0.4200 -0.1029
74991W        W17904  16.468  17.094  17.559  0.0242  0.3426  0.0049
74992W        W17905  27.728  18.556   1.060  0.0513 -0.2200  0.2472
74993W        W17906  14.372  10.164   6.364  0.0449 -0.1048  0.2225
74994W        W17907  22.657   7.157  18.709  0.1387  0.2166 -0.0819
74995W        W17908  24.745  16.142  21.015  0.0079 -0.0055  0.3410
74996W        W17909  16.729  11.334  20.805 -0.1896  0.0074 -0.2559
74997W        W17910  15.604  14.348  25.350 -0.1344 -0.0328  0.3717
74998W        W17911   6.519  27.341  26.576  0.0124  0.0533 -0.0531
74999W        W17912  13.987  12.263  21.457 -0.1269  0.1804 -0.1521
75000W        W17913  17.236  16.576  17.084 -0.0779  0.2103 -0.0759
75001W        W17914   7.769  10.772  17.704 -0.2166  0.1011  0.1886
75002W        W17915  16.217  10.503  24.825  0.0527 -0.0697  0.1713
75003W        W17916  19.894   4.212  26.522  0.0273 -0.1717 -0.1403
75004W        W17917  22.378  13.715  25.975  0.1073  0.3313 -0.2111
75005W        W17918  23.092   4.857  17.273  0.1051  0.0303  0.0719
75006W        W17919  21.763  17.663  22.214  0.0195  0.0801  0.0175
75007W        W17920  17.432  15.029  27.470  0.0490  0.1621 -0.2114
75008W        W17921  15.436  25.061   0.368  0.1890 -0.1153  0.0397
75009W        W17922  14.974  18.542  25.246  0.0654  0.1777  0.0725
75010W        W17923  17.619  18.877  17.876 -0.0166  0.4112  0.1105
75011W        W17924  13.227  10.421  16.529  0.0312  0.2723  0.1516
75012W        W17925  17.322  17.559  18.383 -0.1179  0.0661  0.1378
75013W        W17926   8.398  18.612  22.683  0.1744  0.0982  0.0381
75014W        W17927  18.129  17.287  20.163  0.2856  0.4012 -0.3253
75015W        W17928  16.526  17.646  18.955  0.1197 -0.1740 -0.3919
75016W        W17929  14.781  16.873  18.349 -0.1710  0.0021 -0.0517
75017W        W17930  22.198  11.206  19.740  0.2354 -0.1279 -0.2280
75018W        W17931  13.996  14.720  15.362 -0.0167 -0.0928  0.1325
75019W        W17932  17.106  15.881  18.211 -0.5782 -0.0028 -0.1485
75020W        W17933  17.744  16.801  17.154 -0.2417  0.2762 -0.0704
75021W        W17934  18.046  17.512  17.749 -0.2496 -0.2648 -0.2218
75022W        W17935  20.983  22.942  24.295  0.2435  0.5053 -0.0789
75023W        W17936  12.789   8.881  26.373  0.1230 -0.3491 -0.0775
75024W        W17937  29.681  19.225  25.559  0.0545 -0.0789 -0.3503
75025W        W17938  12.414  25.803  24.449 -0.1213  0.0671  0.1362
75026W        W17939  16.023  15.813  18.415 -0.3327  0.0497  0.2474
75027W        W17940  19.215  25.133  22.633 -0.2355 -0.1406 -0.0905
75028W        W17941  10.620  10.992  18.835 -0.0230  0.0916 -0.1143
75029W        W17942  19.141  13.244  21.555  0.0907 -0.0580 -0.0780
75030W        W17943  18.383  15.610  25.420  0.0406 -0.0613 -0.0051
75031W        W17944  14.929  18.228  17.603 -0.2289 -0.3172 -0.1237
75032W        W17945  12.272  13.045  14.170 -0.1674 -0.1171  0.3049
75033W        W17946  20.933  17.177  29.147  0.1935  0.0649 -0.0665
75034W        W17947   5.723  15.652  21.003  0.1489 -0.0993 -0.0134
75035W        W17948  19.800   9.552   0.683 -0.0932 -0.5186 -0.1993
75036W        W17949  20.991  13.696  19.814  0.0608  0.2334 -0.0327
75037W        W17950  13.056   7.873   8.150 -0.0538  0.3015 -0.1756
75038W        W17951  20.216  24.262  20.657 -0.1312  0.0035 -0.1883
75039W        W17952  10.850  23.111  19.600 -0.0403  0.0677 -0.2806
75040W        W17953  25.007  28.666  26.866 -0.0671  0.0402  0.4914
75041W        W17954  13.739  10.333  21.732 -0.1685  0.1618 -0.3741
75042W        W17955   7.688  12.545  26.217  0.4518 -0.1534  0.0708
75043W        W17956  21.511  18.850   0.389 -0.0422 -0.4861  0.1239
75044W        W17957  16.092  15.364  17.341  0.0681  0.0284  0.2728
75045W        W17958  18.492  16.807  17.676  0.2139  0.0423  0.1089
75046W        W17959   8.967   1.550  16.997  0.1387 -0.1966 -0.3588
75047W        W17960  18.535  16.820  18.567  0.0661 -0.1476  0.1790
75048W        W17961  25.922  10.035  28.123  0.1960 -0.2797 -0.1678
75049W        W17962  23.352   6.466   7.562 -0.3908  0.1729 -0.1183
75050W        W17963  14.232  17.839  18.005  0.1844  0.3112 -0.1048
75051W        W17964  18.045   3.266  26.505  0.0977 -0.0378  0.1659
75052W        W17965   5.745  21.915  26.673  0.4285 -0.1620  0.0148
75053W        W17966   7.947  14.122  15.839 -0.0222  0.1784 -0.0255
75054W        W17967  17.413  17.636  19.614  0.0221 -0.2256 -0.1141
75055W        W17968  17.783  17.209  19.714  0.0522  0.1835 -0.1101
75056W        W17969  16.903  16.708  18.402  0.0048  0.1919 -0.0275
75057W        W17970  17.258  16.868  19.765 -0.1226  0.0347  0.1776
75058W        W17971  11.317   5.640  17.943  0.0495  0.2382  0.0483
75059W        W17972  16.067   3.392  20.649 -0.2297  0.1934  0.1846
75060W        W17973  16.491  17.628  18.434  0.1907 -0.1525 -0.0332
75061W        W17974  17.098  18.099  19.526  0.1334 -0.0873  0.2170
75062W        W17975  16.541  12.215  25.388 -0.3155 -0.2236 -0.0581
75063W        W17976   9.607  11.895   1.425  0.1207 -0.1828  0.0178
75064W        W17977   8.417  10.243  21.648  0.0537 -0.2200  0.2413
75065W        W17978   9.886   9.324  25.262 -0.0731 -0.0839  0.0901
75066W        W17979  30.006  21.445  21.278 -0.0749 -0.1257 -0.2532
75067W        W17980  14.274  21.424  22.549  0.3407  0.2469 -0.4280
75068W        W17981  16.470  15.808  17.026 -0.2775 -0.2344  0.2069
75069W        W17982   6.744  15.174   1.985  0.1130  0.1199  0.1509
75070W        W17983  24.821  14.350  23.051  0.1384 -0.1473 -0.2342
75071W        W17984  16.671  18.020  19.277 -0.3447  0.3364 -0.0800
75072W        W17985  19.043  15.909  20.097 -0.0084 -0.1646 -0.1318
75073W        W17986  16.883  18.245  17.762 -0.0073 -0.2022  0.2316
75074W        W17987   3.585   7.242  24.423  0.1519 -0.2253  0.1764
75075W        W17988  17.333  17.323  20.083 -0.3812 -0.0060  0.0767
75076W        W17989  10.781   3.644  18.454 -0.2833 -0.0956 -0.2273
75077W        W17990  22.297  19.864  17.396 -0.0527 -0.2061  0.2458
75078W        W17991  17.854  18.348  20.259 -0.4491 -0.1366  0.1542
75079W        W17992  16.038  16.438  17.779 -0.0915 -0.0212 -0.3356
75080W        W17993  16.899  17.475  18.088 -0.0759  0.1456 -0.1091
75081W        W17994  20.673   5.754  18.057  0.0297  0.0793 -0.0472
75082W        W17995  16.191  16.904  18.000  0.0850  0.1674  0.1223
75083W        W17996   2.508   2.761   8.123  0.0350 -0.1705 -0.0162
75084W        W17997  15.701  20.750  20.111  0.1383  0.1968  0.3040
75085W        W17998  11.397   9.240  26.464 -0.1173 -0.1833 -0.1280
75086W        W17999  11.487  14.610   1.030  0.3669  0.2714 -0.0437
75087W        W18000   8.958  15.568  23.926 -0.2855 -0.1303  0.1557
75088W        W18001  16.253  12.637  25.993 -0.1745  0.0247 -0.1404
75089W        W18002  22.071  23.766   0.560 -0.0031  0.0738 -0.3511
75090W        W18003  17.046  18.207  28.668  0.1235  0.2228  0.4423
75091W        W18004  16.272  18.478  29.101  0.0731  0.0033  0.2534
75092W        W18005  12.608  19.913   2.971 -0.0226  0.1988  0.2142
75093W        W18006  14.848  21.726  28.365  0.0638  0.2266 -0.0587
75094W        W18007  11.401  12.262  28.627 -0.0851  0.3536  0.0208
75095W        W18008  16.553  15.520  28.697  0.0740  0.3522 -0.2488
75096W        W18009  22.674  17.910  19.210 -0.0548 -0.1633 -0.3731
75097W        W18010  22.271   8.940   1.349  0.0816  0.0274  0.2530
75098W        W18011  26.752   8.163   0.067 -0.4741  0.1568 -0.1019
75099W        W18012  16.982  17.610  29.595 -0.0183 -0.0958  0.0538
75100W        W18013  19.084  12.774   5.884  0.0202 -0.1056 -0.0384
75101W        W18014  15.514  10.735   1.732 -0.5144 -0.1472 -0.0750
75102W        W18015  13.341  12.014  18.806  0.2574 -0.2143 -0.0470
75103W        W18016   7.223  21.441   2.588  0.2567 -0.5859  0.2181
75104W        W18017  10.495   1.017  24.735 -0.0292 -0.1789  0.3135
75105W        W18018   7.916  23.618   8.443 -0.0407  0.1050  0.2510
75106W        W18019  10.243  12.915  22.776  0.2797  0.0514  0.1524
75107W        W18020  23.754   6.125  21.941 -0.1481 -0.0078 -0.1252
75108W        W18021   8.920  20.331  28.231 -0.1353  0.2312 -0.1401
75109W        W18022  11.279  17.230  23.448 -0.1355 -0.0391  0.0380
75110W        W18023  13.204  20.980  26.555 -0.0090  0.1744 -0.1560
75111W        W18024  14.001  21.634  29.313 -0.3751 -0.2711 -0.0515
75112W        W18025  10.305  17.845  23.344  0.2834  0.1134 -0.0547
75113W        W18026  22.368  10.519  25.282  0.1898 -0.1946  0.1543
75114W        W18027  12.833  20.888  28.151  0.2174  0.0495 -0.1442
75115W        W18028  14.776  24.785   3.802 -0.2585  0.0011 -0.1684
75116W        W18029  15.453  12.688  26.276 -0.2317 -0.4373  0.1444
75117W        W18030  17.312  17.403  18.888 -0.2613 -0.0423 -0.0463
75118W        W18031  17.501   8.887  16.793 -0.3020 -0.1752 -0.1983
75119W        W18032  16.035   2.782  16.729 -0.2376  0.3300 -0.3492
75120W        W18033  13.088  21.069  20.000 -0.1174 -0.1921 -0.0036
75121W        W18034  22.462  19.173   3.605  0.0205 -0.0891 -0.0030
75122W        W18035  16.456  12.013  23.440  0.0877 -0.0619  0.0890
75123W        W18036  14.680  12.452  16.459  0.3066 -0.2279  0.1516
75124W        W18037  19.855  12.223   1.102 -0.0651 -0.0954  0.2732
75125W        W18038  22.521  13.532   2.080 -0.0057 -0.2558  0.0408
75126W        W18039  13.822   7.657   9.556  0.1822 -0.2094 -0.0574
75127W        W18040  18.674  12.731  24.315 -0.2455  0.0571  0.0981
75128W        W18041  13.786  14.568   0.445 -0.1434 -0.1497 -0.0477
75129W        W18042  14.893  24.118  22.080 -0.2169 -0.1212  0.1606
75130W        W18043   8.661  20.727   9.442 -0.2130 -0.0663 -0.1344
75131W        W18044  16.631  20.778   4.882  0.2647 -0.0301 -0.0201
75132W        W18045  18.432  16.302  17.614  0.0616 -0.0150  0.0444
75133W        W18046  15.248  14.544   7.400  0.1037 -0.1024 -0.1769
75134W        W18047  20.001  11.691  25.010  0.0212 -0.1155  0.0610
75135W        W18048   8.681   3.241  22.045 -0.3306  0.1286  0.1078
75136W        W18049  24.293  25.430  27.763  0.0186  0.2268 -0.2249
75137W        W18050   4.978  13.425   1.199 -0.2521 -0.2486  0.2685
75138W        W18051  19.473  10.667  26.197 -0.0088 -0.4291  0.1661
75139W        W18052  21.544   5.353   9.636  0.0423 -0.1489 -0.0296
75140W        W18053   4.620  19.717  16.902 -0.0233 -0.0752  0.3284
75141W        W18054  20.332  12.202  26.416  0.1013  0.3143 -0.1692
75142W        W18055  15.288   5.728   7.463 -0.2464  0.1131  0.1372
75143W        W18056  10.110  10.351  15.960 -0.1171 -0.0504 -0.0863
75144W        W18057  18.950  15.339  18.741 -0.0593 -0.2143  0.1836
75145W        W18058  11.534   5.020   1.706 -0.1055  0.4664 -0.2159
75146W        W18059  20.853  20.601  20.962 -0.0482  0.1364 -0.0725
75147W        W18060  15.755   4.931  26.355 -0.3933  0.1469  0.0038
75148W        W18061   8.452  26.895   0.601 -0.1128  0.0001  0.0114
75149W        W18062  12.632   5.351  16.823 -0.1753  0.2215  0.0888
75150W        W18063  26.830  12.033   2.691  0.1175 -0.2292  0.2390
75151W        W18064  32.271  31.149  27.105  0.0190  0.1532 -0.0334
75152W        W18065  24.359  18.175  25.099  0.2416 -0.0567  0.0755
75153W        W18066  15.213  13.391   1.821  0.1193  0.0049 -0.1593
75154W        W18067  13.542  17.596  24.781  0.3042  0.0888  0.0831
75155W        W18068  20.194  14.168  20.098 -0.0143  0.0547  0.3437
75156W        W18069  15.788  24.245   0.844 -0.0021  0.1185  0.0782
75157W        W18070  24.048  16.765  19.760  0.1040  0.0792 -0.2364
75158W        W18071  17.698  14.180  15.068  0.0589  0.1029  0.3747
75159W        W18072  14.486  20.505  25.023  0.0332  0.2424  0.0233
75160W        W18073  11.751   9.503  26.800 -0.2841 -0.2477  0.3120
75161W        W18074  18.080  16.579  18.792 -0.1571 -0.0341 -0.2754
75162W        W18075   7.061   9.711   8.815 -0.0712  0.2334  0.2045
75163W        W18076   7.951  26.152   7.595 -0.0255  0.1179  0.0189
75164W        W18077  19.095  21.778   4.209  0.0620 -0.0247 -0.2054
75165W        W18078   5.073  14.584   0.976  0.1909 -0.0239 -0.0784
75166W        W18079  13.854  12.326   4.180  0.1649 -0.2023  0.1098
75167W        W18080  28.075  14.965   2.686 -0.4005 -0.2426 -0.2738
75168W        W18081  17.690   9.465   1.483 -0.3055  0.0451  0.2026
75169W        W18082  28.762  19.241   2.615  0.3010 -0.2132  0.0416
75170W        W18083  14.096  21.747  22.144 -0.0280 -0.3567 -0.1028
75171W        W18084  24.090  13.031   2.160 -0.4272  0.2536  0.1115
75172W        W18085  22.985   5.958   0.634 -0.0939 -0.1620 -0.0559
75173W        W18086  28.471  12.210  17.751  0.0574 -0.0859  0.1376
75174W        W18087  14.998  12.532   5.233 -0.0517 -0.0076  0.2279
75175W        W18088  16.763   5.074   9.329 -0.3449  0.2948  0.0048
75176W        W18089  17.133   7.738   8.161  0.1147  0.5234 -0.1324
75177W        W18090   9.200  19.537  27.455 -0.4187  0.1985 -0.2098
75178W        W18091  14.554  24.645   8.905  0.2379 -0.1868 -0.2262
75179W        W18092   9.877  27.502  17.819 -0.2020 -0.0305  0.3994
75180W        W18093   4.086  13.002   9.056 -0.0245  0.2247  0.1440
75181W        W18094  25.545  17.580  18.803 -0.0645 -0.2590 -0.3256
75182W        W18095  21.128  23.067   3.889 -0.0094 -0.1565 -0.0559
75183W        W18096  13.963  19.881   1.154 -0.0758  0.0870  0.0396
75184W        W18097   0.365  16.858   1.667  0.2896  0.3323  0.2328
75185W        W18098  21.391  26.874  26.381  0.1550  0.2813  0.3052
75186W        W18099  11.976  14.815  27.390 -0.1941 -0.0834 -0.0198
75187W        W18100  19.089  13.113   0.358 -0.1185 -0.0457 -0.1007
75188W        W18101  19.438  16.379  26.605 -0.0013 -0.0971 -0.1474
75189W        W18102  17.527  14.957   2.518 -0.0336  0.0056 -0.1049
75190W        W18103   8.836  18.516   1.842 -0.1048  0.0695  0.1298
75191W        W18104   2.612  23.514   0.221  0.0819 -0.0620 -0.2337
75192W        W18105   4.234  13.868   2.799 -0.0950  0.0496 -0.2234
75193W        W18106  15.974   7.825  22.976  0.2484  0.1138  0.1558
75194W        W18107  15.862  20.642  28.258 -0.0827  0.1591  0.1069
75195W        W18108  16.478  10.115  21.813  0.0803  0.0206  0.3248
75196W        W18109  24.886  15.053   7.903 -0.1128 -0.1561  0.4358
75197W        W18110  15.893  19.066  22.742 -0.0642 -0.0595  0.2417
75198W        W18111  10.909  16.871  26.461 -0.1737  0.0032  0.0726
75199W        W18112  20.268  14.178   0.333  0.1563 -0.0538  0.1771
75200W        W18113  23.847  23.061  29.109  0.2079  0.2469 -0.0257
75201W        W18114   5.409  18.529   0.327  0.0405  0.1071 -0.1508
75202W        W18115  15.352  21.671   4.358  0.3602  0.1139 -0.4790
75203W        W18116   7.444  10.392  23.353 -0.1113 -0.1012 -0.0338
75204W        W18117  14.498  19.588  14.766 -0.1925  0.1056  0.2649
75205W        W18118  23.878  18.230   3.199  0.0675 -0.2974  0.1512
75206W        W18119  10.761  16.957   3.143  0.1723  0.0470 -0.1030
75207W        W18120   1.928   3.395  26.316  0.0349  0.2885 -0.1418
75208W        W18121   1.254  13.841  25.375 -0.2937  0.1036 -0.2203
75209W        W18122  14.734  18.700   4.586 -0.0717  0.2062 -0.1527
75210W        W18123  21.376  12.803  28.275  0.1522 -0.2690 -0.2949
75211W        W18124  21.822   7.512   4.799  0.0061  0.0151 -0.0034
75212W        W18125  14.402  17.708   2.596 -0.2805  0.0728  0.1002
75213W        W18126  15.763   7.636  26.534 -0.0346 -0.1187 -0.0838
75214W        W18127   6.757  14.860  24.828 -0.1247 -0.0821  0.1168
75215W        W18128  16.802   1.913  20.089 -0.1910  0.0332 -0.6451
75216W        W18129  16.062  11.073   0.510  0.1518 -0.1157 -0.3781
75217W        W18130  21.550  17.482  25.364 -0.3230 -0.3498 -0.0253
75218W        W18131  16.273   8.171   1.291  0.0802  0.0018 -0.1613
75219W        W18132  21.205   8.950  27.360  0.1494  0.2219 -0.0351
75220W        W18133  14.040  19.323  23.090  0.0171  0.1572 -0.0201
75221W        W18134  20.892  25.058  29.733 -0.0413  0.0293 -0.1671
75222W        W18135   9.139  15.813  23.316 -0.2089 -0.1222 -0.0087
75223W        W18136  15.634  23.996   1.288  0.2106 -0.1495  0.0833
75224W        W18137  16.186  10.948   7.421  0.3168 -0.4246  0.3122
75225W        W18138  18.912   9.388  26.455 -0.4152 -0.2176 -0.1775
75226W        W18139   7.955  32.826  27.781 -0.1947 -0.2613 -0.1633
75227W        W18140  22.570  20.546   5.507  0.2704 -0.4862  0.0538
75228W        W18141  17.152   7.362  20.486  0.1017 -0.3808 -0.1951
75229W        W18142  17.583  24.006  29.776 -0.2591 -0.0674  0.0062
75230W        W18143  23.068  10.290   3.928 -0.0386 -0.0837  0.0820
75231W        W18144  21.653   7.469   0.644 -0.4868 -0.2781  0.0204
75232W        W18145  15.307  26.297   4.329  0.0313  0.0180  0.0739
75233W        W18146  14.563  19.042   2.252  0.1600  0.3511 -0.0644
75234W        W18147  20.476  12.736  25.941  0.0805 -0.0510  0.5133
75235W        W18148   9.116  25.859  25.074 -0.1351  0.1649 -0.0803
75236W        W18149  17.738  20.658  29.666  0.0286  0.0427  0.0727
75237W        W18150   9.758  19.577   3.335  0.1021  0.1371  0.1318
75238W        W18151  14.066   5.382   5.567 -0.1407 -0.2724 -0.0438
75239W        W18152  11.910  19.172  28.399 -0.0416  0.1774  0.0677
75240W        W18153  14.750  12.791   6.814 -0.1136 -0.2415 -0.1161
75241W        W18154  17.717  23.701   0.359  0.1242 -0.1324 -0.2975
75242W        W18155  23.169  23.607   2.294 -0.1176  0.0186 -0.2054
75243W        W18156  20.177  18.624  25.590 -0.2792  0.0831 -0.3501
75244W        W18157  18.113  12.694   2.645  0.3909 -0.1530 -0.1870
75245W        W18158  25.424  24.900   2.955  0.2090 -0.1476  0.0947
75246W        W18159  12.671   6.243  25.849  0.1366 -0.2475 -0.1678
75247W        W18160  14.988  13.870  17.977 -0.0420  0.1453 -0.0289
75248W        W18161  16.079   6.792   9.848 -0.1779  0.0274  0.3074
75249W        W18162  10.611  25.208   2.833  0.0491 -0.0513  0.1071
75250W        W18163  13.291  14.804  25.744  0.2285  0.0257 -0.1747
75251W        W18164  12.068  14.289  22.902  0.0269 -0.1618 -0.2010
75252W        W18165  19.808   8.530   3.531 -0.2482  0.1773  0.0629
75253W        W18166  15.432   9.667  24.244  0.0483  0.1403 -0.2004
75254W        W18167  18.101  15.707  20.240 -0.1950 -0.0378  0.0473
75255W        W18168  16.779  15.277  25.169  0.1205  0.0303  0.0569
75256W        W18169  22.799   4.931   6.494  0.2842  0.0973  0.0523
75257W        W18170  27.343  24.843   8.428 -0.2026  0.0721 -0.2082
75258W        W18171  23.869  18.010  27.994 -0.2357  0.1346  0.0268
75259W        W18172  18.132  19.128  29.519  0.1812 -0.2488 -0.0388
75260W        W18173  22.215  12.622  26.574  0.1636  0.0705 -0.0434
75261W        W18174   7.748   0.071  25.591  0.1837 -0.0446 -0.0782
75262W        W18175  23.803  10.547   6.159  0.6584  0.2873  0.0647
75263W        W18176  19.998  18.092  24.341 -0.0004 -0.1210  0.1319
75264W        W18177  14.602  15.456   2.399 -0.1691  0.1142 -0.2982
75265W        W18178  24.059  33.585  23.069 -0.1023 -0.2933 -0.0517
75266W        W18179  20.029  15.230  22.470 -0.2613 -0.0869  0.0099
75267W        W18180   6.058   7.741  28.096 -0.0314  0.0007  0.3639
75268W        W18181  20.472   6.146   4.039  0.3126  0.1413  0.0155
75269W        W18182   4.521  24.595  18.421 -0.0273 -0.1790  0.2964
75270W        W18183   9.206  20.163   5.385  0.1093 -0.0370 -0.0790
75271W        W18184  22.151  14.719  19.565 -0.0024  0.0585  0.1622
75272W        W18185  13.898  17.046   6.637 -0.0113 -0.0118 -0.0840
75273W        W18186  13.206  16.441  26.388  0.3087 -0.0904  0.2085
75274W        W18187  22.414  14.336  28.317 -0.0929 -0.0820 -0.1858
75275W        W18188  22.657  10.372  27.515  0.2563  0.0736  0.0744
75276W        W18189  16.193  16.463   0.646 -0.1125 -0.3975  0.2416
75277W        W18190  23.127  18.391   5.834 -0.5173 -0.2842  0.2863
75278W        W18191  14.951  12.986  21.035  0.0921 -0.0035  0.1921
75279W        W18192  17.381  15.273  25.791 -0.4514 -0.1494  0.1481
75280W        W18193  14.762  15.974   1.822  0.1404 -0.0883 -0.0606
75281W        W18194  15.799  15.082  27.454 -0.1169 -0.2718  0.1709
75282W        W18195  15.267   9.026   8.748  0.0079 -0.3002 -0.0351
75283W        W18196  13.823   5.320   6.598 -0.0287 -0.2058 -0.3134
75284W        W18197  13.362  32.299   6.636  0.1805 -0.1525 -0.1431
75285W        W18198   8.804   9.148   4.116 -0.1758  0.1413 -0.0051
75286W        W18199  27.262  15.248   0.145  0.3738  0.0243 -0.1047
75287W        W18200  16.422  17.977  20.286  0.0571 -0.1723  0.1410
75288W        W18201  21.611  19.799  19.150 -0.0067  0.2351 -0.1496
75289W        W18202  17.046   6.903   0.444  0.3079  0.0299  0.1840
75290W        W18203  15.723   6.548   3.076 -0.3998  0.1064  0.1281
75291W        W18204  15.360  19.316  27.806 -0.0226 -0.0015  0.1734
75292W        W18205  16.378  18.336  17.885 -0.0977 -0.0527  0.1978
75293W        W18206  29.203  15.464   2.746 -0.2190  0.1852 -0.0439
75294W        W18207  26.503  14.922   3.639  0.0757 -0.0101  0.1356
75295W        W18208   7.812  10.688  16.816 -0.0866 -0.1786 -0.1150
75296W        W18209  19.871  14.085   1.686 -0.1878 -0.0633  0.0438
75297W        W18210   9.457  17.392   5.292 -0.3418  0.0720  0.1854
75298W        W18211  24.855  10.486  24.162  0.1869 -0.0010 -0.2095
75299W        W18212  21.563  26.986   5.892 -0.0657  0.0873  0.1891
75300W        W18213   6.781  31.339  26.577  0.1370  0.0730  0.1598
75301W        W18214  18.565   4.565  29.436  0.0142  0.0950  0.0602
75302W        W18215  17.534  12.604  29.161  0.1029 -0.0022 -0.1666
75303W        W18216  16.074  27.883  19.452 -0.0863 -0.1904 -0.2409
75304W        W18217  11.715  15.597   2.416 -0.2687  0.0442 -0.1700
75305W        W18218  18.813  12.637   0.216  0.2050  0.5133 -0.3822
75306W        W18219  25.757  21.355   1.044  0.0770  0.0859 -0.0144
75307W        W18220  17.369  26.306  22.284  0.2077  0.1277  0.2517
75308W        W18221   6.934  19.298  27.498 -0.0022 -0.1468 -0.0419
75309W        W18222  20.186  31.704  23.691 -0.0539 -0.1582 -0.1113
75310W        W18223  14.490   5.276  23.960  0.3637 -0.3632 -0.1007
75311W        W18224  17.626  25.535  28.884 -0.0529  0.0624  0.1721
75312W        W18225  15.015   6.750  18.376  0.0684 -0.2297  0.1720
75313W        W18226  20.222  18.446   1.524  0.0869 -0.0174 -0.0299
75314W        W18227  11.821  19.824   3.041  0.1697 -0.0349  0.2126
75315W        W18228  16.105  17.227  17.099 -0.0838 -0.1007  0.3044
75316W        W18229  12.276  18.398  25.062  0.3094 -0.0300  0.4611
75317W        W18230   8.286   8.669  28.286  0.2285  0.0331 -0.2223
75318W        W18231  16.132  20.513   5.692  0.1091 -0.3189 -0.0430
75319W        W18232  19.653  23.033   4.533  0.0968  0.2198  0.0068
75320W        W18233  14.124  30.734  24.879 -0.0318 -0.1205  0.0279
75321W        W18234  15.576  18.437  18.358 -0.1392  0.2314 -0.1562
75322W        W18235  10.467  17.845  29.520 -0.0386  0.2526 -0.1962
75323W        W18236   9.592   9.632  26.123  0.0071  0.0683  0.0820
75324W        W18237  20.598  15.115  22.827  0.1979  0.2538 -0.1140
75325W        W18238  19.108  10.011   4.262  0.2426  0.1377 -0.4201
75326W        W18239  31.178  12.981  16.958 -0.1131  0.2832  0.1833
75327W        W18240   7.476  17.151   6.393 -0.0394  0.0828  0.3855
75328W        W18241   3.902  16.987  21.664  0.0413 -0.3169 -0.2766
75329W        W18242  14.055  11.430  29.169  0.3061  0.0306  0.2505
75330W        W18243  10.150  27.665  10.415 -0.1195 -0.1343 -0.0539
75331W        W18244  22.666  18.235  15.176 -0.1333 -0.1253 -0.0382
75332W        W18245   6.260  13.724  17.801  0.1071 -0.1219 -0.1974
75333W        W18246  10.933  13.144   0.976  0.2261 -0.1149 -0.3011
75334W        W18247  11.308  15.087   1.219  0.1017  0.0202 -0.0216
75335W        W18248  17.483  16.252  16.487  0.3325  0.2230 -0.2413
75336W        W18249  10.992   8.734  25.531 -0.0181  0.2217  0.2435
75337W        W18250   4.585  22.865  26.000  0.1468 -0.0848 -0.3061
75338W        W18251  23.627  12.086  29.607  0.1593  0.0581 -0.0913
75339W        W18252  11.367  16.967  20.723  0.1301  0.0341 -0.1135
75340W        W18253  15.881  15.750   3.254  0.3623 -0.1771 -0.1163
75341W        W18254  14.375  19.359   0.447 -0.1558  0.0224  0.0782
75342W        W18255  14.714   7.283   0.605 -0.0599  0.1012  0.0029
75343W        W18256   9.343   1.038   5.591 -0.0062 -0.0897  0.0033
75344W        W18257  14.097  11.297  27.691 -0.1139  0.2599  0.0122
75345W        W18258   9.789  15.415  25.453  0.1136 -0.5640 -0.0271
75346W        W18259  14.138  16.038  29.777  0.5424  0.3595  0.2211
75347W        W18260  17.027   7.154  29.298 -0.0394 -0.0456 -0.0555
75348W        W18261  25.730  16.048  17.161  0.0083 -0.3552  0.1553
75349W        W18262   7.502   7.483   8.620 -0.0395 -0.1730  0.2444
75350W        W18263   3.241  10.126  28.977 -0.1659  0.0285 -0.1409
75351W        W18264  17.413  27.929   3.087 -0.2840 -0.1108 -0.0158
75352W        W18265  18.908  24.516   3.384  0.0575 -0.0377 -0.3852
75353W        W18266  17.615   1.387  18.955 -0.1708 -0.1192 -0.1298
75354W        W18267  18.001  14.957  22.629 -0.0086  0.0277 -0.0854
75355W        W18268  24.424  16.601  25.604 -0.0757  0.0080 -0.0206
75356W        W18269  10.940  25.997   4.886  0.1623  0.0890 -0.1128
75357W        W18270   8.492   6.630  23.150  0.2468 -0.0152  0.1932
75358W        W18271  12.563  18.434   0.556  0.0183 -0.2478  0.3939
75359W        W18272  14.791  27.639   8.631  0.0437  0.2133  0.0554
75360W        W18273  18.484  19.288  25.118  0.3098 -0.0343 -0.0094
75361W        W18274   9.160  24.699   8.041 -0.3046  0.0232 -0.0671
75362W        W18275  14.160  21.595  28.719  0.0201 -0.0287 -0.2414
75363W        W18276  14.942  33.680  26.308  0.0909  0.4902  0.0214
75364W        W18277  17.225  11.626   0.819  0.1467 -0.0390  0.2843
75365W        W18278  27.256  17.204   5.423 -0.2087  0.3619  0.0545
75366W        W18279  16.742  17.903  19.772  0.4627 -0.1749 -0.0246
75367W        W18280  17.344   2.849  25.181 -0.0195 -0.2978  0.0529
75368W        W18281  21.285  12.445  24.191 -0.0539 -0.2904 -0.0974
75369W        W18282  11.486  18.186   8.473 -0.0668  0.2142  0.0804
75370W        W18283  17.661  13.766   1.706 -0.0447  0.1533  0.0771
75371W        W18284  16.451  10.848   6.784 -0.2283 -0.0140 -0.0711
75372W        W18285   6.808  19.725  24.687  0.1004 -0.0153 -0.2293
75373W        W18286   8.088  24.294   7.566 -0.0819  0.1642 -0.2404
75374W        W18287  26.764  21.158   2.508 -0.1056  0.0093  0.0453
75375W        W18288  24.046  21.152   7.417 -0.2867  0.1204  0.1996
75376W        W18289  15.076   7.030  26.516  0.1849 -0.1822 -0.1040
75377W        W18290  16.619  11.614  29.522 -0.1154 -0.0157  0.3455
75378W        W18291   6.467  28.351  25.579  0.0354  0.0153 -0.2844
75379W        W18292  18.014  18.779   3.195 -0.1288 -0.0323  0.0384
75380W        W18293  10.244  12.174  24.033 -0.1459 -0.0200 -0.0268
75381W        W18294  17.956   9.132   6.274  0.0776  0.1454  0.2016
75382W        W18295  20.630  13.659  29.577 -0.1552 -0.3921 -0.1295
75383W        W18296   7.361  25.711  21.787 -0.1583 -0.3212 -0.0406
75384W        W18297  16.818  11.509  21.302 -0.3091  0.0241  0.2360
75385W        W18298  19.710  16.367  29.523  0.0847  0.1003  0.0592
75386W        W18299  10.246   3.378  23.239  0.0990  0.1488  0.1947
75387W        W18300  20.284   3.993   0.096  0.3870 -0.1956 -0.0110
75388W        W18301  12.410  23.013  24.457 -0.1883 -0.0875 -0.0179
75389W        W18302  20.528  10.927   1.534  0.0735 -0.2685  0.0613
75390W        W18303  10.507   4.212  17.606 -0.2001  0.0018  0.2531
75391W        W18304  25.497  17.927  25.013 -0.2319  0.2501  0.0475
75392W        W18305  17.421  18.685  18.295  0.0097  0.2259 -0.0852
75393W        W18306  27.813  16.736   4.935  0.1768 -0.1244 -0.1388
75394W        W18307  15.957  25.138   0.351 -0.1741  0.2830  0.1847
75395W        W18308  16.983  15.711  25.741 -0.0080 -0.2897 -0.2592
75396W        W18309  22.409  17.699   1.382  0.1489 -0.1460  0.2000
75397W        W18310   7.992  30.508   9.897  0.0916 -0.0407  0.2300
75398W        W18311  23.957  29.851   9.082  0.0125 -0.0241 -0.0494
75399W        W18312  20.263   8.340  28.140 -0.1129  0.0080 -0.0152
75400W        W18313  18.815  13.065   1.098 -0.1230 -0.0944 -0.0004
75401W        W18314   6.064  15.044   3.008  0.0342  0.0406 -0.0298
75402W        W18315  25.310  16.805  20.617 -0.1118 -0.1348 -0.0741
75403W        W18316   6.016  21.249   3.887 -0.0426 -0.1449  0.1689
75404W        W18317   3.958   1.312   4.118 -0.3494 -0.0607 -0.2711
75405W        W18318  12.657   5.676  21.649  0.0510 -0.0903  0.1622
75406W        W18319  23.408   8.410   6.057  0.2122  0.2087 -0.1855
75407W        W18320  15.359   0.788   2.971  0.0630  0.0564  0.2642
75408W        W18321  28.907  14.121   0.565 -0.0787 -0.3256  0.3749
75409W        W18322   0.286  14.479  18.473  0.1479 -0.1849 -0.1429
75410W        W18323  14.860  11.437   4.112 -0.0023  0.5311 -0.0035
75411W        W18324  15.004  10.928  23.503  0.0614 -0.1660 -0.0976
75412W        W18325  32.810  26.759   4.061 -0.3352  0.1060 -0.0034
75413W        W18326  13.504  20.111   6.821  0.2722 -0.0610 -0.1405
75414W        W18327  15.193  12.844   2.571  0.0004  0.2118 -0.2933
75415W        W18328  24.569  20.990  24.619  0.1631 -0.4157 -0.1009
75416W        W18329  24.775   6.201  22.021  0.0030 -0.2690  0.0761
75417W        W18330  15.629  12.705  27.460 -0.0108 -0.1912  0.1413
75418W        W18331  14.015  26.074   6.867  0.1590  0.0704 -0.3277
75419W        W18332   8.214   8.998  29.562  0.0532 -0.2710  0.1021
75420W        W18333  19.392  27.038   6.573  0.1038  0.2123  0.0698
75421W        W18334  18.152  17.790  23.980 -0.2180 -0.0367 -0.1885
75422W        W18335  18.708  16.197  27.823  0.1285 -0.1035 -0.0400
75423W        W18336  19.446  20.455  29.210  0.0011 -0.0508 -0.2484
75424W        W18337  22.365  12.562   4.092 -0.0516  0.3470  0.0057
75425W        W18338  20.657  14.492  19.156 -0.0896  0.2623  0.0457
75426W        W18339   7.929  21.493   9.497  0.1867  0.2214 -0.0792
75427W        W18340  10.035  14.398  19.898  0.3815 -0.2359 -0.2909
75428W        W18341   6.210  10.931  22.834 -0.1447  0.0471  0.3005
75429W        W18342  17.937  12.260   2.324 -0.2607 -0.0027  0.0095
75430W        W18343  30.230  19.094  27.228 -0.0372  0.1533 -0.2491
75431W        W18344  23.298  23.933   3.542 -0.0018 -0.1428  0.2205
75432W        W18345   4.974  16.112  18.076 -0.0772  0.1442  0.1757
75433W        W18346   6.879  13.744  17.821 -0.0433  0.2023  0.0970
75434W        W18347  16.593  22.877  29.634 -0.0318 -0.1350 -0.0765
75435W        W18348  12.806  11.976  27.769  0.3025  0.1483 -0.0579
75436W        W18349   8.525  19.723  27.006  0.1982 -0.0918  0.0469
75437W        W18350  12.109  21.713   2.274 -0.2590  0.0362  0.0243
75438W        W18351  22.266  19.805  27.980 -0.2118  0.3055  0.0966
75439W        W18352  17.304  18.251  28.203  0.1771 -0.2600 -0.1309
75440W        W18353  22.040  16.280  29.615 -0.0060  0.1213  0.0317
75441W        W18354  20.680   9.184  20.189 -0.1065  0.1018 -0.1033
75442W        W18355   9.467  23.579  22.769 -0.0367 -0.0539  0.1352
75443W        W18356  19.261   9.781   2.046  0.1145 -0.4898  0.2200
75444W        W18357  18.507  14.885  23.119 -0.0102  0.3917  0.0263
75445W        W18358  14.365  13.237   6.863 -0.0204  0.1552  0.0559
75446W        W18359  23.657   7.047   6.129 -0.1916 -0.0286  0.2516
75447W        W18360  22.459  18.774   7.689 -0.2527  0.2715  0.1873
75448W        W18361   9.879  16.368  29.354 -0.2271  0.4151 -0.1828
75449W        W18362  12.363  14.350  26.342  0.2346  0.0099 -0.2466
75450W        W18363  16.510   8.824   4.497  0.0818 -0.0643 -0.0737
75451W        W18364  11.201  28.084   8.152 -0.0153  0.2528 -0.2199
75452W        W18365  19.662  11.880  28.810  0.1312  0.0973  0.0922
75453W        W18366  16.457  13.272   6.281 -0.3935  0.0842 -0.0877
75454W        W18367  14.129  19.352   3.393 -0.4319  0.5743 -0.0679
75455W        W18368  15.477  13.841   4.771 -0.1587 -0.1159  0.0374
75456W        W18369  20.594  16.978  28.110 -0.1607 -0.0917  0.0368
75457W        W18370  10.963  12.188   7.403  0.3227  0.2392  0.0056
75458W        W18371  13.063  16.488  21.213 -0.1780 -0.3833  0.2090
75459W        W18372  20.571  21.240  19.905  0.1590 -0.2448 -0.2303
75460W        W18373  12.801   9.121  19.152  0.0687  0.2526 -0.2388
75461W        W18374  30.937  12.516   2.766  0.1528 -0.0641  0.1018
75462W        W18375  14.071   9.133  23.830  0.0278 -0.1353 -0.2779
75463W        W18376  13.300  23.811   2.799  0.0704  0.1688 -0.0459
75464W        W18377  13.373  18.799  28.161  0.1918 -0.1483 -0.0322
75465W        W18378  16.781   6.688  23.771 -0.1442 -0.4162 -0.0382
75466W        W18379  26.046   8.084  25.989 -0.0019 -0.1836 -0.0026
75467W        W18380  25.377   2.442  28.812 -0.1174 -0.1306  0.0679
75468W        W18381  13.764  14.579  28.128  0.3372 -0.0635  0.0459
75469W        W18382  26.233  10.200   3.882 -0.0252 -0.1020  0.1620
75470W        W18383  15.861  11.875  29.439  0.1225  0.0129 -0.1078
75471W        W18384  12.107  16.381   3.706 -0.1508  0.2643  0.1093
75472W        W18385  14.098  15.192   3.187 -0.2588  0.0677  0.1041
75473W        W18386  19.561  12.745   2.071  0.0347  0.1892  0.0071
75474W        W18387  20.250  30.884   2.631 -0.1169  0.1381 -0.2160
75475W        W18388  10.397  16.659  26.638  0.1439  0.2348  0.2536
75476W        W18389  12.946  23.006   6.312 -0.2411  0.1479 -0.0575
75477W        W18390   9.211  24.785   6.231  0.0258  0.3084  0.0856
75478W        W18391  15.374  19.930   0.993  0.0469 -0.1106  0.2605
75479W        W18392  15.504  17.705  24.063 -0.1670  0.3681 -0.5056
75480W        W18393  16.339  22.930  22.789  0.0264 -0.1977 -0.1309
75481W        W18394  11.266  20.364   1.052  0.1765  0.3832  0.1451
75482W        W18395  15.270  14.710   2.726  0.2905 -0.1546 -0.1259
75483W        W18396   5.310  30.560  26.293  0.1112 -0.0383  0.0882
75484W        W18397   9.557  21.586   4.415 -0.1514  0.2705 -0.2269
75485W        W18398   9.229  18.132  23.612  0.1937 -0.1427  0.1454
75486W        W18399  18.553  17.072  23.870 -0.0435 -0.0514 -0.4121
75487W        W18400  19.835   7.633   4.455 -0.2099  0.2541  0.1283
75488W        W18401   8.151  17.258  18.473 -0.1646 -0.0174  0.1155
75489W        W18402  20.567   7.879  20.967 -0.0833  0.2666 -0.0223
75490W        W18403  19.877  13.373  21.121 -0.1559  0.0953 -0.3115
75491W        W18404   8.492  23.062  21.015  0.0251  0.0616 -0.1260
75492W        W18405  15.159  23.415  21.325 -0.0024  0.1843 -0.1697
75493W        W18406  17.070  23.537  19.559 -0.0528 -0.1306 -0.1768
75494W        W18407  20.036  20.380  15.081 -0.1399 -0.0142  0.3201
75495W        W18408  16.855  21.762  18.069 -0.0379  0.0810 -0.0195
75496W        W18409   9.234  18.810  17.332 -0.1907  0.1625  0.3533
75497W        W18410  15.658   0.300  22.031 -0.0146 -0.0792 -0.2152
75498W        W18411  13.701  20.342  17.335 -0.1181  0.0519  0.0264
75499W        W18412  21.402  27.355  14.875  0.1282  0.1523  0.2226
75500W        W18413  12.103  21.365  14.969 -0.1261  0.3446  0.5198
75501W        W18414  12.855  11.722  16.981  0.0734 -0.1929  0.0566
75502W        W18415  21.933  23.475  15.506  0.0596 -0.1953  0.1291
75503W        W18416  11.334  25.840  16.642  0.0438  0.0073 -0.3714
75504W        W18417  18.873  22.750  12.778  0.0357 -0.0075 -0.0212
75505W        W18418  21.695   6.225  21.070  0.0821 -0.1610 -0.2622
75506W        W18419  15.066  26.261  17.309  0.1908 -0.0831 -0.0537
75507W        W18420  22.419  16.503  16.508  0.0510 -0.1011 -0.2626
75508W        W18421  13.161  24.535  14.675 -0.1341 -0.2261 -0.1798
75509W        W18422  25.676  19.635  14.474  0.0130 -0.2154 -0.1148
75510W        W18423  17.770  25.156  19.204  0.0188 -0.3221 -0.3342
75511W        W18424  13.001  15.813  13.456 -0.0375 -0.1951 -0.3032
75512W        W18425  11.919  17.262  21.532  0.2500  0.0490  0.1971
75513W        W18426  16.457   7.872  19.848  0.0170 -0.3184 -0.0194
75514W        W18427  17.608  19.588  13.834 -0.2224 -0.2465 -0.0321
75515W        W18428  14.349  21.763  15.457 -0.2591  0.4207 -0.0176
75516W        W18429  13.389  14.211  26.584  0.0019 -0.2694 -0.1072
75517W        W18430  22.003  22.273  22.002 -0.2650 -0.1180 -0.2037
75518W        W18431   5.776  11.691  17.422  0.3693  0.2097 -0.0677
75519W        W18432  24.925  24.186  21.481  0.1591  0.1886  0.0215
75520W        W18433  23.978  20.194  17.965  0.2272  0.0431  0.2961
75521W        W18434  10.005  18.171  15.684  0.3099  0.0421 -0.1293
75522W        W18435  21.228  19.377  15.293 -0.3818 -0.1168  0.1096
75523W        W18436  19.973  28.104  18.802  0.1322  0.2040 -0.1565
75524W        W18437   7.919  17.765  19.475 -0.2300 -0.1037  0.1051
75525W        W18438   9.810  24.582  18.246  0.0110  0.0021 -0.0100
75526W        W18439   9.710  24.222  14.428  0.2216  0.2013  0.0355
75527W        W18440  14.267  24.475  24.432 -0.1587  0.0804  0.0105
75528W        W18441  13.754  18.248  13.775 -0.4705  0.1916 -0.0554
75529W        W18442   6.225   1.479  19.940 -0.0867 -0.2812  0.3055
75530W        W18443   6.099  29.685  15.510  0.1115 -0.1280 -0.1704
75531W        W18444  10.279  16.340  12.714  0.0023  0.0438 -0.0279
75532W        W18445  15.232  23.085  13.955  0.0071 -0.0167  0.1525
75533W        W18446  26.970  14.863  20.368  0.0957 -0.0042 -0.0418
75534W        W18447   9.204  15.971  14.625 -0.0748  0.0774 -0.2649
75535W        W18448  24.152  22.824  15.951 -0.2409 -0.3087 -0.1605
75536W        W18449  32.711  16.050  23.770  0.2162  0.3890 -0.0873
75537W        W18450  15.269  16.607  14.641 -0.0392 -0.0900  0.1209
75538W        W18451  15.695  13.701  17.503  0.2494 -0.2152 -0.1761
75539W        W18452   5.240  14.528  14.187  0.0160 -0.0307  0.0944
75540W        W18453  10.375  15.960  20.055 -0.4984  0.1993  0.2860
75541W        W18454  22.292  13.146  17.559 -0.3776  0.0520  0.3647
75542W        W18455  10.094  21.250  16.011  0.2827 -0.1873 -0.0024
75543W        W18456  14.993  14.360  15.418 -0.0481 -0.1893 -0.0493
75544W        W18457  23.852  30.563  19.883 -0.1871  0.0438 -0.1200
75545W        W18458  10.791  12.230  17.513 -0.2160  0.0998  0.2623
75546W        W18459  10.730   1.448  20.622 -0.2892 -0.1757 -0.2964
75547W        W18460  28.553  23.281  13.792  0.1309 -0.4001 -0.3311
75548W        W18461  22.784  16.411  15.150  0.0707  0.3062 -0.0135
75549W        W18462  13.562  12.752  19.894  0.2233  0.1983 -0.0683
75550W        W18463  22.317  28.683  16.918  0.3434 -0.0940  0.0329
75551W        W18464  10.289  15.943  17.725 -0.1547  0.0135 -0.1766
75552W        W18465  17.539  11.548  12.010 -0.2304 -0.1539 -0.0913
75553W        W18466  20.962  11.352  17.223  0.0185  0.1360  0.0399
75554W        W18467  16.003  22.393  19.235  0.0701  0.2828  0.1996
75555W        W18468  14.665  12.016  16.014 -0.1640  0.0918  0.2097
75556W        W18469  16.003  23.416  15.464 -0.1853 -0.2956 -0.1701
75557W        W18470  17.980  22.924  12.768  0.1746 -0.0149  0.0033
75558W        W18471  16.634  25.139  15.518  0.0570  0.0114  0.1077
75559W        W18472  19.186   3.605  16.801  0.1121  0.0316  0.1265
75560W        W18473  17.196  22.365  14.164  0.2108  0.2808  0.2960
75561W        W18474  12.754  17.682  14.054 -0.3696 -0.4093 -0.1025
75562W        W18475   8.757  17.313  16.407 -0.0461  0.3234 -0.4225
75563W        W18476  24.510  14.369  29.154  0.0849 -0.1440 -0.0296
75564W        W18477  15.933  28.561  18.590  0.0005  0.5599  0.0281
75565W        W18478   6.799  17.485  16.764  0.0032 -0.1622 -0.0184
75566W        W18479  12.996  13.373  18.437  0.2350 -0.0647  0.1320
75567W        W18480  19.664  28.854  18.181 -0.1470  0.3847 -0.1912
75568W        W18481   6.129  20.047  15.337  0.0130 -0.1632  0.1690
75569W        W18482  25.039  26.545  20.403  0.0769  0.2029 -0.3390
75570W        W18483  18.255  13.334  13.626  0.2135  0.0893  0.1945
75571W        W18484  27.180  19.725  15.035 -0.2638  0.0768  0.1498
75572W        W18485  16.533  28.922  21.027 -0.0388  0.1117  0.0488
75573W        W18486  23.644  20.513  23.698 -0.0927 -0.3942 -0.0062
75574W        W18487  13.400  16.601  15.725  0.1453 -0.0893 -0.0422
75575W        W18488  20.085  13.082  20.748 -0.0819 -0.0928  0.0494
75576W        W18489  24.659  26.483  18.298  0.0601 -0.2845 -0.0682
75577W        W18490  17.445  26.074  17.492 -0.0302 -0.1587 -0.0756
75578W        W18491  26.112  22.788  19.929 -0.3365 -0.0129 -0.0754
75579W        W18492  11.139  29.704  16.468  0.1700  0.2702 -0.1277
75580W        W18493   5.730  23.676   2.327  0.1031  0.1537 -0.1466
75581W        W18494   6.708  22.772  15.386  0.3799  0.4810 -0.0763
75582W        W18495  19.471  30.694  16.165  0.0199  0.0018 -0.0724
75583W        W18496   7.230   9.867  21.673 -0.0206  0.0037  0.4161
75584W        W18497   8.365  17.504  14.070 -0.1441 -0.1043 -0.5077
75585W        W18498  11.437  12.495  23.457  0.0434  0.5042  0.3427
75586W        W18499  24.312  21.927  17.518  0.1395 -0.2364 -0.2213
75587W        W18500   9.459  16.565  13.170  0.1592 -0.1527 -0.1514
75588W        W18501  17.730  31.143  21.014 -0.0359 -0.4097 -0.0564
75589W        W18502  23.117  18.725  17.741 -0.1377 -0.0904 -0.0766
75590W        W18503  16.290  14.141  12.316  0.4918 -0.0913  0.2117
75591W        W18504  27.863  25.858  21.261 -0.2058 -0.0144 -0.1236
75592W        W18505  16.899  14.028  17.044 -0.2518 -0.2744  0.1035
75593W        W18506  25.092  21.148  13.251 -0.0272 -0.0489 -0.3009
75594W        W18507   9.058  19.018  20.304  0.2926  0.3120  0.2224
75595W        W18508   9.247  28.299  18.276  0.1288 -0.0022 -0.2811
75596W        W18509  22.240  24.149  13.305 -0.5470 -0.1561  0.4514
75597W        W18510  10.912   9.477  19.570 -0.1196 -0.2388  0.2103
75598W        W18511   1.433  17.892  24.701 -0.2800  0.1779  0.0145
75599W        W18512  24.173  19.813  24.101  0.1859  0.0985 -0.2034
75600W        W18513  21.283  13.471  15.823  0.0772  0.0039  0.1913
75601W        W18514  18.005  16.146  14.212 -0.1370  0.1812  0.2102
75602W        W18515  11.093  28.694  16.139  0.0427 -0.0223  0.1878
75603W        W18516  20.671  13.946  17.806 -0.0220 -0.2492 -0.0028
75604W        W18517  11.603  28.023  17.901  0.1760 -0.0314 -0.2519
75605W        W18518  13.107  20.015  19.227  0.3487 -0.0142 -0.2886
75606W        W18519  19.108  25.087  19.301 -0.0342  0.0737 -0.0173
75607W        W18520   5.761  30.004  16.963 -0.1204 -0.2260  0.2439
75608W        W18521   8.321  26.614  17.573  0.1030  0.0048  0.2549
75609W        W18522   9.560   7.471  18.005  0.1702 -0.1219  0.1902
75610W        W18523  16.301  19.362  14.134 -0.2886  0.0735  0.1474
75611W        W18524  20.738  20.883  14.137  0.0560 -0.0621 -0.1357
75612W        W18525  11.702  21.011  15.097  0.1516  0.0338  0.1889
75613W        W18526  14.571  20.012  15.517 -0.1094 -0.0549  0.0295
75614W        W18527  19.150   8.650  15.372  0.2499 -0.0701 -0.0893
75615W        W18528  19.936  13.575  14.777  0.1684  0.1263 -0.0375
75616W        W18529  26.578  13.006  23.201  0.1684  0.1623 -0.0604
75617W        W18530  12.147  11.882  18.795  0.0526  0.0554 -0.1163
75618W        W18531  14.129  12.208  12.899 -0.3766  0.1123 -0.0811
75619W        W18532  14.562  21.212  13.491 -0.3170 -0.1311  0.2139
75620W        W18533  17.262  21.264  21.637  0.2417  0.0248  0.0257
75621W        W18534  13.183  17.731  16.244  0.0397 -0.1739 -0.4114
75622W        W18535  21.984  24.755  13.275 -0.1145  0.2933  0.1380
75623W        W18536  21.976   9.188  15.980  0.2950  0.1707 -0.4280
75624W        W18537   8.570  19.183  19.458  0.5738 -0.0534 -0.0254
75625W        W18538   7.793  18.362  15.473  0.1929  0.3384  0.1905
75626W        W18539  22.854  28.648  19.956 -0.1844  0.0710  0.1714
75627W        W18540  20.113  19.333  12.782  0.1950  0.0437  0.1269
75628W        W18541  11.564   6.791  17.889  0.2404 -0.0841 -0.3943
75629W        W18542  16.390  23.914  16.183  0.0381 -0.1789 -0.1254
75630W        W18543  25.435  14.070  20.652 -0.2174  0.2412 -0.1574
75631W        W18544  13.799  26.440  18.720  0.1675 -0.0670 -0.5344
75632W        W18545   4.849  13.565  14.382  0.2571 -0.0696 -0.4751
75633W        W18546  25.075  23.506  15.128  0.0462  0.2015  0.3432
75634W        W18547   7.129  23.423  14.840  0.2984  0.1280 -0.0387
75635W        W18548  11.519  18.978  19.156  0.1538 -0.0505 -0.0543
75636W        W18549  13.559  24.577  14.330  0.3443 -0.0528 -0.1785
75637W        W18550   6.781   6.471  21.894  0.0043  0.0722  0.0873
75638W        W18551   6.030  14.585  16.278 -0.0524 -0.0530 -0.2702
75639W        W18552   6.289  22.629  18.381 -0.2995  0.0818 -0.0220
75640W        W18553   4.958  14.457  24.935  0.1034 -0.0886  0.4144
75641W        W18554  21.884  27.094  13.048  0.0898 -0.2298  0.1216
75642W        W18555  17.141  22.031  14.527 -0.4182  0.1033 -0.0648
75643W        W18556  19.095  30.417  16.404 -0.1323 -0.0158  0.0908
75644W        W18557  12.053  21.245  15.947  0.0036  0.1801 -0.0839
75645W        W18558  18.685   7.217  25.738  0.1903  0.0440 -0.0894
75646W        W18559  16.036  24.260  15.467 -0.0638 -0.2230  0.1054
75647W        W18560  21.978   8.897  14.153  0.2790 -0.2220 -0.0604
75648W        W18561  31.244  15.983  21.336  0.0968  0.1990  0.2380
75649W        W18562  21.991  21.665  16.543 -0.0653  0.1127 -0.0192
75650W        W18563  10.280  20.093  14.925 -0.0594  0.0460  0.0989
75651W        W18564  11.887  14.934  17.866  0.0561 -0.2508  0.0566
75652W        W18565  13.246  11.537  13.248  0.0393  0.2091 -0.1087
75653W        W18566  20.169  23.068  22.654 -0.2044  0.1578 -0.0120
75654W        W18567  22.792   7.402  17.850 -0.0103 -0.1322 -0.2335
75655W        W18568  19.601  14.241  12.818  0.3523 -0.1946 -0.0414
75656W        W18569  10.782  20.840  17.317  0.1064  0.1518 -0.0882
75657W        W18570  22.846  26.048  14.339  0.2830 -0.0937  0.0613
75658W        W18571  32.429  27.866  21.619 -0.3704 -0.1013  0.0169
75659W        W18572  19.655  18.653  13.958  0.2079  0.1455  0.1023
75660W        W18573   9.331  23.533  15.612 -0.0521  0.0295 -0.3813
75661W        W18574  18.887   0.544  19.856 -0.0654 -0.1699 -0.2531
75662W        W18575  15.947  25.648  18.277 -0.1421 -0.2579  0.2897
75663W        W18576   8.882  12.821  22.297  0.3025 -0.2036  0.2482
75664W        W18577  25.213  18.908  14.031  0.2473 -0.1515  0.2733
75665W        W18578  12.346  15.864  14.655 -0.0684  0.2215  0.3130
75666W        W18579  14.644  10.670  15.886 -0.0967  0.0234 -0.0661
75667W        W18580  34.002   9.458  19.034  0.1058  0.0353 -0.0859
75668W        W18581  19.404   8.781  17.426  0.1248  0.0862  0.0853
75669W        W18582  15.457  20.543  19.200 -0.2261  0.3135 -0.2344
75670W        W18583  20.960  22.913  22.915  0.2289 -0.0675 -0.0988
75671W        W18584  20.673  12.305  17.373  0.1928  0.3787 -0.1267
75672W        W18585   8.319  15.660  26.553 -0.1786  0.0246 -0.2343
75673W        W18586  24.906  18.539  15.075  0.3153  0.1395  0.0567
75674W        W18587  28.166  22.886  15.500 -0.2003 -0.1851  0.2026
75675W        W18588  14.645  20.861  15.363  0.0832 -0.1692 -0.1664
75676W        W18589   8.440  24.274  18.115  0.6061  0.1377 -0.0025
75677W        W18590  15.558  16.932  13.501 -0.0310 -0.0301  0.1740
75678W        W18591  11.348  22.949  18.484 -0.1771 -0.1845 -0.0272
75679W        W18592  19.971  24.808  21.109  0.0144  0.0393 -0.0772
75680W        W18593  17.883  28.307  20.445  0.0199 -0.2328  0.0519
75681W        W18594  18.319   9.838  15.814  0.0163  0.0435 -0.1001
75682W        W18595  22.848  23.121  12.285 -0.0486  0.0556  0.2938
75683W        W18596  13.995  24.417  14.497 -0.0482  0.1829  0.2810
75684W        W18597  10.709  23.373  17.949 -0.0801 -0.2081  0.1408
75685W        W18598  25.072  28.693  20.279 -0.0453  0.3659 -0.3135
75686W        W18599   8.196  21.331  14.614  0.0349 -0.0803  0.2753
75687W        W18600  22.307  18.449  21.848 -0.1014  0.1986  0.2605
75688W        W18601  14.167  24.998  18.263 -0.0851  0.1438  0.2291
75689W        W18602   2.064  16.483  14.488  0.0884 -0.1652  0.0687
75690W        W18603  28.439  17.033  18.442  0.0919 -0.4069  0.3902
75691W        W18604  24.293  16.824  28.481 -0.1018 -0.2668 -0.1401
75692W        W18605   6.739  18.873  15.733  0.2623  0.3583 -0.1422
75693W        W18606  16.540   6.445  14.517  0.1536  0.2853  0.0067
75694W        W18607  24.382  15.406  18.285 -0.4481 -0.0083 -0.0149
75695W        W18608   9.671  17.127  13.823  0.2552 -0.2935 -0.1440
75696W        W18609  20.438  12.207  16.313 -0.0781  0.1939  0.2945
75697W        W18610   9.754  12.462  17.305 -0.1131  0.1056 -0.0418
75698W        W18611  23.908  23.432  19.624 -0.0068  0.1034 -0.3015
75699W        W18612  10.978  21.713  20.160 -0.2743  0.0579 -0.1090
75700W        W18613  26.343  24.147  13.284 -0.0036  0.1698 -0.3879
75701W        W18614  13.382  20.539  20.153 -0.1753 -0.1651  0.0980
75702W        W18615  23.641  20.914  20.166  0.0295  0.1884  0.1726
75703W        W18616  21.953  10.793  17.337  0.1359 -0.1693 -0.0176
75704W        W18617  20.109  27.809  16.977  0.0264  0.2932  0.1789
75705W        W18618  12.159  21.596  18.465  0.1421  0.0978 -0.1079
75706W        W18619  16.185  23.253  13.505 -0.3277  0.1138  0.1142
75707W        W18620  16.982  23.013  12.920  0.1784 -0.4508  0.0367
75708W        W18621   9.832  20.120  26.862  0.0904  0.2725  0.2810
75709W        W18622   9.288  18.380  19.785  0.2079  0.0572 -0.1446
75710W        W18623  20.278  26.424  13.706  0.1292 -0.1968 -0.1478
75711W        W18624  20.059  19.578  16.390 -0.0568 -0.1865 -0.0139
75712W        W18625  11.507  26.446  16.680  0.0994 -0.3235  0.1817
75713W        W18626  18.188  25.086  15.605 -0.0575 -0.2901  0.1751
75714W        W18627  29.468  24.494  18.597  0.5976 -0.1514  0.2358
75715W        W18628  25.639  32.857  21.891 -0.2212 -0.2101 -0.2328
75716W        W18629  16.730  11.224  13.380  0.1250  0.1275 -0.0499
75717W        W18630  19.207  18.108  13.142 -0.0770  0.0867 -0.1317
75718W        W18631  21.651  19.080  15.594  0.0728  0.3326 -0.0928
75719W        W18632  12.307  18.187  15.567 -0.0740 -0.1142  0.0064
75720W        W18633   3.083  26.730  14.750 -0.0687  0.1569 -0.0606
75721W        W18634  21.500  18.081  13.903 -0.0897  0.2015 -0.2802
75722W        W18635  22.921  22.257  22.005 -0.2680  0.3783 -0.1249
75723W        W18636  21.950  25.086  16.519  0.5032 -0.2876 -0.0551
75724W        W18637  21.708  27.628  14.097 -0.1382 -0.1240  0.1125
75725W        W18638  23.923  16.501  21.531 -0.3748  0.1957 -0.0071
75726W        W18639  26.120  17.254  22.774  0.3835 -0.3195 -0.0553
75727W        W18640  19.165  25.445  16.434  0.0725 -0.0081  0.4126
75728W        W18641  14.922  13.360  12.960 -0.0856 -0.5219 -0.0155
75729W        W18642  24.243  14.234  17.398 -0.2405 -0.2706 -0.0852
75730W        W18643  16.551  32.641  19.254 -0.0681 -0.0718 -0.0151
75731W        W18644  16.017  14.253  13.364  0.0504  0.3821 -0.0300
75732W        W18645  22.334  21.483  17.320 -0.2123  0.1669 -0.0658
75733W        W18646  24.579  14.106  20.152 -0.1976 -0.0727  0.1551
75734W        W18647  18.710  30.795  23.012  0.0590 -0.0878  0.0190
75735W        W18648  12.045  15.284  20.575 -0.0329  0.1419  0.0987
75736W        W18649  25.405  29.794  28.320  0.2035 -0.0157  0.2704
75737W        W18650   9.113  15.958  21.240  0.2963  0.1111  0.0862
75738W        W18651  10.422  20.918  18.796 -0.3566 -0.2727  0.1777
75739W        W18652  13.414  12.430  13.427  0.0810 -0.0697 -0.2786
75740W        W18653  13.203  10.108  15.038  0.1393 -0.1022  0.0425
75741W        W18654  17.976  20.551  14.757  0.3623 -0.3286 -0.1485
75742W        W18655  18.930  26.858  18.071  0.1214 -0.0508  0.1419
75743W        W18656  12.728  24.102  18.401 -0.0838 -0.1960  0.1303
75744W        W18657  25.208  19.353  13.282  0.3766 -0.1131  0.0821
75745W        W18658   6.736  19.967  15.940  0.4402  0.1298 -0.1097
75746W        W18659   3.307  15.074  23.501 -0.4381  0.2560  0.0184
75747W        W18660  23.999  13.424  26.934 -0.0540 -0.0102 -0.1960
75748W        W18661  18.490  25.867  18.458 -0.0109  0.1285 -0.2214
75749W        W18662   2.821  10.050  24.437 -0.1769  0.2797 -0.2787
75750W        W18663  13.834  15.189  15.844  0.2690  0.0709  0.0853
75751W        W18664  10.207  14.985  14.325  0.0702 -0.0533  0.1698
75752W        W18665  12.286  25.239  17.591  0.0157  0.0551  0.3941
75753W        W18666  20.030  26.876  16.566 -0.1985 -0.2791  0.0598
75754W        W18667  29.222  24.868  19.429 -0.3507  0.4027  0.2667
75755W        W18668  24.814  13.766  14.295  0.0789  0.0070 -0.0517
75756W        W18669   7.824  21.416  16.164 -0.0822  0.0735 -0.0591
75757W        W18670   9.275  27.835  18.434 -0.0710 -0.2582 -0.0223
75758W        W18671  21.364  11.300  17.690  0.1994 -0.3844  0.5178
75759W        W18672   8.162  17.699  13.668  0.0699 -0.2118  0.1168
75760W        W18673   0.758  24.142  20.395 -0.0233 -0.0609  0.1195
75761W        W18674  10.601  33.333  19.294  0.4207 -0.1669  0.0085
75762W        W18675  19.432  24.483  13.668  0.1373 -0.1481  0.1508
75763W        W18676  20.081  21.353  15.100  0.0546 -0.0008 -0.1536
75764W        W18677  16.833  13.735  13.603 -0.1387  0.0138 -0.0904
75765W        W18678  20.347  12.707  14.525 -0.1555  0.1175 -0.2438
75766W        W18679  14.891  11.314  13.456  0.2862  0.0725 -0.0711
75767W        W18680  14.443  24.854  15.799  0.1335  0.0966  0.1092
75768W        W18681  10.700  21.961  13.735 -0.0611  0.4013 -0.1206
75769W        W18682  22.745  12.751  21.042 -0.1648  0.1457 -0.0899
75770W        W18683  17.194  14.855  13.312  0.3219  0.1150 -0.1998
75771W        W18684  25.860  15.517  18.664 -0.0817 -0.2268  0.2328
75772W        W18685  22.323   3.855  18.993 -0.1549 -0.0083  0.1297
75773W        W18686  16.423  32.135  25.512  0.0832 -0.2486  0.1648
75774W        W18687  15.769   9.886  15.457  0.0301 -0.0905  0.1357
75775W        W18688  19.202  19.502  13.933 -0.1840  0.1615 -0.1065
75776W        W18689  23.783  17.965  21.415 -0.2811 -0.0502  0.0904
75777W        W18690  25.694  17.841  15.783  0.3072 -0.0679 -0.2074
75778W        W18691   2.944  12.096  21.237  0.2529 -0.2049 -0.0131
75779W        W18692  20.972  23.848  15.355 -0.0786  0.0887 -0.0559
75780W        W18693  17.365   8.467  22.890 -0.0075 -0.2249 -0.1158
75781W        W18694  25.718  23.892  21.019 -0.1672  0.0177  0.1158
75782W        W18695  18.175  20.544  15.585  0.0854  0.0643 -0.3759
75783W        W18696   2.622  15.572  14.360 -0.0354 -0.0757 -0.2706
75784W        W18697  28.718  19.926  17.875  0.3858  0.2551 -0.1129
75785W        W18698  13.127  22.038  17.898  0.1363 -0.0737 -0.3487
75786W        W18699  14.929  27.247  16.042  0.1614  0.0225 -0.0675
75787W        W18700  13.163  21.802  16.343  0.3595  0.2875  0.0265
75788W        W18701   6.848  14.356  21.239 -0.1675 -0.0411  0.3301
75789W        W18702  23.858  24.162  19.221  0.4864  0.2265 -0.1098
75790W        W18703  10.633  16.784  20.615  0.0302  0.1311 -0.0823
75791W        W18704  13.448  15.694  15.885 -0.1114 -0.1295 -0.0705
75792W        W18705  28.046  13.333  13.771 -0.0838  0.2530  0.0391
75793W        W18706  12.629  18.462  22.409  0.0423  0.0970 -0.1509
75794W        W18707  15.471  20.938  14.908  0.0001 -0.3341  0.1272
75795W        W18708  11.029  19.540  13.047  0.1415  0.3116 -0.0631
75796W        W18709  15.309  24.980  15.755 -0.0172 -0.2412  0.2985
75797W        W18710  10.511  22.339  16.384 -0.0309 -0.3438  0.1121
75798W        W18711  10.972  15.817  19.102 -0.0741  0.0745  0.0644
75799W        W18712  21.507  19.409  24.353  0.3600  0.3257  0.3318
75800W        W18713  12.253  15.113  15.781 -0.2144 -0.1099  0.0016
75801W        W18714  20.529  16.985  14.358 -0.0194 -0.1430  0.2022
75802W        W18715   9.866  20.337  25.913 -0.0686  0.1290 -0.1187
75803W        W18716  14.890  24.166  14.732  0.4187 -0.3562 -0.4017
75804W        W18717  11.182  18.567  18.560  0.0723  0.1175 -0.1258
75805W        W18718  10.304  16.627  27.520 -0.0452  0.2655  0.0831
75806W        W18719  23.612  17.166  22.835  0.1871 -0.0526  0.1761
75807W        W18720  15.157  24.511  21.426  0.1814 -0.1259  0.0649
75808W        W18721  17.224  25.763  19.053 -0.1490  0.2113  0.0642
75809W        W18722  15.867  21.133  20.386  0.1339 -0.3519 -0.0321
75810W        W18723  19.251   9.123  17.027 -0.1812 -0.0084  0.2714
75811W        W18724  12.846  29.925  15.441 -0.0133  0.0445  0.2449
75812W        W18725  21.057  13.388  13.988 -0.0857 -0.1542 -0.1765
75813W        W18726  15.518  13.759  12.669 -0.2722  0.0995 -0.0216
75814W        W18727  14.348   7.129  23.595  0.1772  0.1501 -0.0570
75815W        W18728  10.199  19.651  14.649  0.2557 -0.0678  0.0013
75816W        W18729  15.932  27.985  17.810  0.1622 -0.2140 -0.0802
75817W        W18730  27.776  18.749  16.476 -0.0475 -0.0222  0.3011
75818W        W18731  11.143   9.984  22.818  0.2885  0.2076 -0.1269
75819W        W18732  22.562  28.792  13.683  0.1017  0.1871 -0.1742
75820W        W18733  10.222  10.483  18.718 -0.1497  0.0341  0.0232
75821W        W18734  23.390  15.280  19.239  0.2678  0.0699 -0.0882
75822W        W18735  17.308  26.973  13.926  0.1105 -0.5619 -0.1553
75823W        W18736   5.683  20.790  16.360  0.0962 -0.0322 -0.1242
75824W        W18737  19.346  12.761  14.091  0.0209  0.0465 -0.2447
75825W        W18738  14.385  22.579  23.068 -0.1696 -0.0539 -0.0695
75826W        W18739  26.375  27.226  18.076  0.0827  0.2461  0.2859
75827W        W18740  20.050  30.975  15.721 -0.0233  0.4230  0.0299
75828W        W18741  18.587   9.982  19.340  0.1765  0.1509  0.0866
75829W        W18742   6.078  14.965  21.840 -0.2516 -0.1160 -0.0438
75830W        W18743  12.865  21.634  15.899  0.0957 -0.1344  0.0596
75831W        W18744  19.650   7.909  17.965  0.3684 -0.1197 -0.0630
75832W        W18745  15.189  27.247  19.797  0.0182  0.0355  0.0627
75833W        W18746  17.547  14.524  14.455 -0.1458  0.0954 -0.0278
75834W        W18747  16.182  12.926  16.524 -0.1105  0.2492  0.1100
75835W        W18748  26.166  22.440  20.283  0.0519  0.0350  0.2223
75836W        W18749  20.553  19.017  12.900 -0.2426  0.4329 -0.1224
75837W        W18750  26.609  20.612  21.002 -0.0739 -0.4722  0.2812
75838W        W18751  21.739  11.101  18.075 -0.1353 -0.1558  0.2187
75839W        W18752   8.363  18.626  13.716 -0.1186  0.2074 -0.2815
75840W        W18753  11.488  23.855  18.642 -0.3472 -0.0443  0.2686
75841W        W18754   8.906  11.643  19.934 -0.3641 -0.2539  0.1283
75842W        W18755   6.516  22.875  14.535 -0.2418  0.1796 -0.1260
75843W        W18756  23.624  25.419  19.150  0.0600 -0.2092 -0.0894
75844W        W18757   6.200  19.648  22.046  0.1783 -0.0212 -0.0710
75845W        W18758  23.281  12.399  14.743 -0.1430  0.2791  0.1328
75846W        W18759  19.281  27.119  19.353 -0.0853 -0.1711 -0.1413
75847W        W18760  22.645  21.022  14.943 -0.0352  0.3148 -0.0606
75848W        W18761  17.095  21.467  14.382 -0.0285  0.0658 -0.3187
75849W        W18762  23.342  19.838  19.107 -0.1045 -0.1055 -0.1318
75850W        W18763   9.825  29.618  28.375  0.0387 -0.0378  0.4219
75851W        W18764  15.843  15.702  11.465 -0.0776 -0.0242 -0.0808
75852W        W18765  21.596  26.079  23.684 -0.3003  0.1513 -0.1206
75853W        W18766  15.708  23.562  23.839  0.4110  0.1533  0.3760
75854W        W18767  15.402  21.703  17.873  0.2737 -0.2657 -0.2865
75855W        W18768   6.963  12.902  25.103 -0.1963  0.0499  0.1611
75856W        W18769  17.427  22.884  12.217 -0.1090 -0.4729  0.0376
75857W        W18770  13.765  13.989  24.635  0.3195  0.0796 -0.2104
75858W        W18771  18.557  25.825  14.713 -0.0728  0.1636 -0.0108
75859W        W18772  11.137  27.914  26.846 -0.0484 -0.1596  0.1406
75860W        W18773  16.889  19.567  13.198  0.0960  0.4263 -0.0774
75861W        W18774  15.578  27.097  22.865  0.0381  0.0495 -0.0026
75862W        W18775  26.203  19.867  15.110  0.0872  0.1003  0.2045
75863W        W18776   7.753  10.947  25.131  0.3355  0.1738  0.2435
75864W        W18777  14.485  10.505  13.860 -0.2961  0.1438  0.2328
75865W        W18778   0.661  34.401  16.871 -0.0773  0.1188  0.0600
75866W        W18779  22.090  20.298  17.525 -0.0990  0.0278 -0.1624
75867W        W18780  24.773  12.738  15.680  0.1114  0.1773  0.0494
75868W        W18781  31.545  17.659  14.556 -0.0593  0.2807  0.3164
75869W        W18782  12.016  20.898  20.279 -0.0846  0.1628 -0.0565
75870W        W18783  12.696   8.827  15.124  0.0024 -0.0718  0.1108
75871W        W18784  12.463  18.552  26.324 -0.0065 -0.4265  0.0336
75872W        W18785  24.688  14.668  20.962 -0.4392  0.0609  0.1220
75873W        W18786  26.820  24.169  29.324 -0.0633  0.0790 -0.0904
75874W        W18787  15.415  19.877  14.185 -0.0352  0.1158 -0.1984
75875W        W18788  14.975   7.168  15.100  0.2033 -0.4729 -0.0513
75876W        W18789  15.993  20.355  15.488 -0.2117  0.1802  0.2659
75877W        W18790  13.823  29.797  29.011 -0.3310 -0.1120 -0.3325
75878W        W18791  19.354  31.121  23.747 -0.1284  0.2082 -0.0473
75879W        W18792  23.859  14.974  18.303  0.1231 -0.0086 -0.2062
75880W        W18793  12.846  24.731  22.949 -0.0280  0.0581  0.2580
75881W        W18794   3.618  15.195  17.337  0.0661  0.1232  0.1577
75882W        W18795  20.880  12.647  12.152  0.1283 -0.1233  0.0437
75883W        W18796  15.322  22.764  15.200  0.1383 -0.2284 -0.1324
75884W        W18797  15.576  19.805  13.349 -0.2772  0.0369 -0.2674
75885W        W18798   9.171  22.295  16.002  0.1053  0.3366 -0.2100
75886W        W18799   7.513  26.160  15.743 -0.1454  0.0158 -0.0441
75887W        W18800  21.889  26.042  20.651  0.1815  0.0621 -0.3683
75888W        W18801  22.576   2.515  19.036 -0.1173 -0.1234 -0.0162
75889W        W18802  11.684  17.258  12.707  0.2454  0.0097  0.0022
75890W        W18803  19.633  27.853  19.722  0.0681 -0.0689  0.0503
75891W        W18804  11.872  23.649  22.040  0.2068 -0.0242  0.1331
75892W        W18805  24.665  14.550  15.075  0.0591 -0.3093 -0.1758
75893W        W18806  23.620  11.576  14.966  0.1212 -0.3487 -0.1268
75894W        W18807   9.441   2.492  25.817 -0.3264  0.0606 -0.2777
75895W        W18808  26.616  11.590  18.603  0.3422 -0.1818 -0.1297
75896W        W18809  22.102  16.409  12.499  0.1291  0.2763 -0.0194
75897W        W18810  16.515  26.777  22.926 -0.2888 -0.1006 -0.3950
75898W        W18811  20.329  15.130  14.421  0.0400  0.3214 -0.0153
75899W        W18812  20.023  32.218  19.336  0.0450 -0.2094  0.1468
75900W        W18813  21.678  24.661  16.313 -0.1291 -0.1624 -0.0990
75901W        W18814  11.428  12.672  17.806  0.2324  0.0395  0.0933
75902W        W18815   6.776  19.702  16.398  0.0327 -0.0407 -0.0788
75903W        W18816  22.069  27.281  15.898  0.3482  0.0558 -0.2164
75904W        W18817  22.016  13.775  16.159  0.1054  0.0383  0.2075
75905W        W18818  23.328  18.839  19.006  0.0166  0.3210 -0.1507
75906W        W18819  22.044  14.791  13.862  0.1847  0.0819 -0.0141
75907W        W18820   7.565  16.276  21.831  0.2713  0.0726 -0.4919
75908W        W18821   6.329  25.445  15.539 -0.0385 -0.1168 -0.0229
75909W        W18822  18.860  29.759  22.157  0.0149 -0.2203  0.0852
75910W        W18823  10.221  19.807  15.956 -0.1836  0.2687  0.0884
75911W        W18824  19.296  19.117  14.578 -0.4792  0.1102  0.1117
75912W        W18825   9.108  17.960  16.059 -0.0347 -0.1051 -0.1005
75913W        W18826  15.431  31.709  25.315  0.3065 -0.1035  0.2753
75914W        W18827  24.155  20.267  19.521 -0.1173  0.0973  0.1265
75915W        W18828  25.739  14.595  21.668  0.5015 -0.0976 -0.1036
75916W        W18829  19.951  13.344  13.747  0.1467  0.0301  0.1609
75917W        W18830  10.921  12.751   1.944  0.0579 -0.1863 -0.1698
75918W        W18831  30.497  19.821  24.638 -0.1811  0.1119  0.2699
75919W        W18832  21.406  16.377  14.849 -0.0807  0.0695 -0.0087
75920W        W18833  17.177  14.920  15.476 -0.0054  0.1581  0.1198
75921W        W18834  21.387  17.437  24.343  0.0553 -0.0677  0.1179
75922W        W18835  14.713  25.870  16.689  0.0700  0.1260  0.0257
75923W        W18836   1.571  19.356  24.097 -0.1121  0.0523  0.1818
75924W        W18837  23.934  12.638  18.314  0.3555  0.1080  0.1111
75925W        W18838  10.109  19.218  19.281  0.1296  0.1734 -0.1228
75926W        W18839   5.046  25.189  15.067  0.0961  0.1931  0.1025
75927W        W18840   2.831  19.952  18.410  0.1581 -0.1297 -0.2506
75928W        W18841  14.625  14.176  21.621  0.0619  0.0075 -0.2396
75929W        W18842   0.194  14.708   0.290 -0.3738 -0.1964 -0.0265
75930W        W18843   9.228  23.920  27.622  0.2179  0.0344 -0.0512
75931W        W18844  21.721   6.139  18.881 -0.2205 -0.1467 -0.0966
75932W        W18845  21.890  27.309  20.989  0.0599  0.0733  0.1446
75933W        W18846  17.906  28.537  19.391  0.0584 -0.1504 -0.0638
75934W        W18847   8.108  24.091  26.017 -0.2750 -0.2018 -0.0832
75935W        W18848  19.836  17.044  13.582  0.3707 -0.0366 -0.1764
75936W        W18849   2.761  22.389  17.866  0.2598  0.0339  0.0421
75937W        W18850  14.712   9.155  14.232 -0.3836  0.3284  0.0688
75938W        W18851  27.326  10.556  18.948  0.0093  0.1563 -0.1088
75939W        W18852  22.897  22.829  14.632  0.0203  0.1762 -0.2025
75940W        W18853  22.668  29.737  15.289 -0.1243 -0.0039  0.2072
75941W        W18854  22.570  24.467  23.083  0.0456  0.2330  0.1039
75942W        W18855  21.070  23.619  14.449  0.0942  0.1523 -0.1346
75943W        W18856  30.065  17.357  14.351 -0.0696 -0.2622 -0.0440
75944W        W18857  17.745   7.176  18.780  0.0265 -0.0456  0.2266
75945W        W18858  12.190  15.635  21.360  0.1230  0.2960 -0.0004
75946W        W18859   6.863  13.764  29.134  0.2251 -0.0175 -0.0568
75947W        W18860  17.703  24.774  17.273  0.0248  0.1518  0.3537
75948W        W18861   9.281  29.669  17.167  0.0939  0.1590 -0.1189
75949W        W18862   6.725  17.476  15.106  0.0460 -0.0908  0.2329
75950W        W18863  25.373  23.751  18.735  0.2031  0.0685 -0.1092
75951W        W18864  10.666  16.024  15.223  0.0590  0.1176  0.0177
75952W        W18865  13.656  17.304  13.827  0.1810  0.1382 -0.1369
75953W        W18866   0.745  26.438  15.072  0.0286  0.0321 -0.3354
75954W        W18867  23.007  21.468  21.404 -0.1379 -0.0603  0.1214
75955W        W18868  12.238  20.511  17.270 -0.0952  0.1863 -0.0661
75956W        W18869  24.843   5.684  20.484  0.0327 -0.1333  0.2186
75957W        W18870  16.267  20.592  14.249  0.1794 -0.2912  0.1790
75958W        W18871  22.184  27.783  18.131 -0.0226 -0.0510 -0.2189
75959W        W18872  22.281  25.805  21.963 -0.0584 -0.0750 -0.1851
75960W        W18873  13.385  29.859  17.532 -0.0074 -0.2409 -0.3223
75961W        W18874   2.701  27.939  18.219 -0.2019 -0.1966 -0.0888
75962W        W18875   7.398  17.329  18.468 -0.0914  0.4628  0.0171
75963W        W18876   0.601  27.591  15.427 -0.0609  0.2682 -0.2669
75964W        W18877  25.208  21.154  18.202  0.2213 -0.1297 -0.0056
75965W        W18878   9.122  24.255  20.023  0.0454 -0.1298  0.1434
75966W        W18879  12.028  14.352  18.768  0.2975 -0.0213  0.3268
75967W        W18880  24.321  17.376  18.740 -0.3355 -0.1106 -0.0802
75968W        W18881  16.941  20.009  12.270 -0.1046 -0.3479 -0.2785
75969W        W18882  29.005  18.776  17.037 -0.4184 -0.0739  0.1691
75970W        W18883  16.071  11.979  15.586 -0.3022  0.0106  0.1625
75971W        W18884   7.959  19.769  13.930  0.1807 -0.0395 -0.1561
75972W        W18885  22.754  20.307  25.556  0.1098 -0.1981  0.0896
75973W        W18886  28.428  21.548   7.572 -0.0480 -0.1555  0.0815
75974W        W18887  28.817  27.424  17.815  0.0485 -0.1030  0.0597
75975W        W18888  20.065  10.259  14.119  0.2331  0.3565  0.0070
75976W        W18889  21.263  23.697  20.720  0.5057 -0.0226 -0.3653
75977W        W18890  15.098  19.019  15.157 -0.2586 -0.3419 -0.4099
75978W        W18891  12.709  16.734  23.117 -0.1405  0.1818 -0.1918
75979W        W18892  11.710  14.478  13.716 -0.2794 -0.1282  0.0992
75980W        W18893   9.864  15.910  20.139  0.1175  0.2044  0.2460
75981W        W18894  12.383  22.338  16.770  0.1427 -0.0027 -0.1763
75982W        W18895  26.560  10.818  16.856 -0.0602 -0.4005  0.1278
75983W        W18896  10.392  21.154  14.619  0.4112 -0.2243  0.1196
75984W        W18897  22.124  16.715  17.788 -0.3713  0.1159  0.2661
75985W        W18898  13.553  15.453  20.098  0.0106 -0.0830 -0.1602
75986W        W18899   6.877  20.867  19.770 -0.3714  0.2129 -0.1587
75987W        W18900  20.745  28.536  18.816 -0.1776 -0.0206 -0.0240
75988W        W18901  20.600  12.754  17.174 -0.2344  0.2723 -0.1897
75989W        W18902  13.022  18.797  13.057 -0.1748 -0.1926 -0.0494
75990W        W18903  15.125   6.611  22.980  0.1139  0.1394  0.1585
75991W        W18904  23.223  22.033  21.704  0.0471 -0.0727  0.0855
75992W        W18905  13.492  34.295   0.467  0.2326 -0.3933 -0.0022
75993W        W18906   2.945  22.874  16.144 -0.0322 -0.0417  0.0174
75994W        W18907  10.827  23.753  14.683 -0.0941 -0.1910 -0.0109
75995W        W18908   0.565  26.628  25.250  0.2593  0.1653 -0.2568
75996W        W18909  15.622  32.474  22.597 -0.1370 -0.0866 -0.1250
75997W        W18910  18.532  21.148   2.256  0.1330  0.0437  0.0659
75998W        W18911  18.225   8.166  20.857 -0.1638  0.0658 -0.0848
75999W        W18912  24.518  18.488  14.742 -0.0815  0.0735 -0.1794
76000W        W18913   1.880  18.436  26.654 -0.1102  0.0446  0.1122
76001W        W18914  22.593  13.510  15.446 -0.1861 -0.3910  0.0116
76002W        W18915  18.898  20.506  14.780  0.1839 -0.1173 -0.3115
76003W        W18916  14.667  28.890  16.087 -0.0262 -0.1125 -0.2298
76004W        W18917  18.315  27.712  19.016  0.3255 -0.1324  0.0302
76005W        W18918  33.072  20.664  20.295  0.0943 -0.1369 -0.1275
76006W        W18919  20.521  21.897  15.896  0.4252  0.2137  0.0592
76007W        W18920  14.988  20.678  17.290  0.0263 -0.1285 -0.0433
76008W        W18921  18.070  24.135  20.269 -0.0749 -0.1416  0.5663
76009W        W18922  19.539   5.509  15.626  0.1258  0.1573 -0.1781
76010W        W18923  20.547  10.771  13.311 -0.0812  0.0871 -0.0433
76011W        W18924   5.534  16.798  17.609 -0.0750  0.0801 -0.2190
76012W        W18925  27.701  13.834  21.245 -0.0298 -0.0723  0.1169
76013W        W18926  17.904  19.653  12.041 -0.1703 -0.2472  0.0561
76014W        W18927  10.940  12.996  19.203  0.1087 -0.0086  0.0136
76015W        W18928   9.285   4.431  20.686 -0.0732  0.0336  0.0166
76016W        W18929  16.626  14.793  14.169  0.1390  0.2642  0.1218
76017W        W18930  15.883  10.395  14.775 -0.0049 -0.2496  0.1360
76018W        W18931   7.589  27.536  27.572  0.4331  0.3719  0.0032
76019W        W18932  26.781  19.746  18.744 -0.1634  0.0242 -0.0753
76020W        W18933   4.372  13.413  18.616 -0.0988  0.1143 -0.3279
76021W        W18934  22.156  23.479  16.027 -0.1424 -0.0416  0.2106
76022W        W18935  23.746  16.079  15.593  0.0367  0.0221 -0.0080
76023W        W18936  19.865   6.043  26.099  0.1492  0.0491  0.0317
76024W        W18937  10.867  26.121  19.529  0.1515  0.0809  0.3888
76025W        W18938  16.786   9.275  19.248  0.0452  0.2263  0.2860
76026W        W18939  13.930  21.250  18.895  0.0743 -0.2816 -0.1181
76027W        W18940  25.370  27.595  19.469  0.0120  0.2142  0.1468
76028W        W18941  14.254  25.517  25.035  0.1645 -0.1091  0.0852
76029W        W18942   9.010  24.469   2.989 -0.1326 -0.1110 -0.2790
76030W        W18943   8.417  26.261  20.910 -0.2330  0.0568 -0.1261
76031W        W18944  16.236  24.399  21.517  0.1054  0.1325  0.0145
76032W        W18945  25.496  22.572  20.913 -0.1827  0.4110 -0.3376
76033W        W18946  20.748  11.335  18.254  0.3193  0.0894 -0.3749
76034W        W18947  24.103  18.793  12.708 -0.3519 -0.1692 -0.2271
76035W        W18948  12.076  26.862  18.107 -0.1262 -0.0365 -0.2075
76036W        W18949  25.272  18.722  17.469  0.2047 -0.0876 -0.2584
76037W        W18950  13.742   0.853  29.486 -0.1590 -0.0870  0.0817
76038W        W18951   7.441  19.546  17.781  0.2439 -0.0782 -0.1169
76039W        W18952  22.955   6.402  20.972  0.2173 -0.0714  0.0336
76040W        W18953  26.970  12.614  20.709  0.0980 -0.2146 -0.0256
76041W        W18954  24.016  16.500  15.641 -0.0305  0.0847  0.2613
76042W        W18955  16.817  17.534  26.963  0.1375 -0.4201 -0.3290
76043W        W18956   9.067  24.547  16.602  0.0399  0.1269  0.2473
76044W        W18957  28.023  16.075  17.202  0.1193  0.3035  0.1686
76045W        W18958  19.779  30.730  18.961 -0.1782  0.0934 -0.2272
76046W        W18959   2.477  10.990  21.863 -0.0411 -0.3373 -0.2220
76047W        W18960  11.320  21.752  14.743 -0.1788  0.2857 -0.0128
76048W        W18961  27.779  12.077  19.649 -0.2996 -0.2426  0.4300
76049W        W18962  21.521  19.813  13.562 -0.1971  0.0683 -0.0586
76050W        W18963  10.629  18.891  16.084  0.4141  0.1084  0.1741
76051W        W18964  23.114  11.944  13.048  0.3100 -0.0765  0.1331
76052W        W18965  12.189  22.120  19.259  0.0248  0.3164  0.2101
76053W        W18966  11.311  17.910  18.850  0.0077  0.0775 -0.2663
76054W        W18967  15.826  15.957  14.674 -0.0796  0.0499  0.1768
76055W        W18968   6.313  18.074  18.685 -0.1472 -0.1183  0.0674
76056W        W18969  19.981  26.408  22.721  0.3917 -0.2490 -0.1896
76057W        W18970  14.561  11.707  17.748 -0.0934 -0.0467 -0.0764
76058W        W18971  15.958  24.220  25.213 -0.0805 -0.1512  0.3569
76059W        W18972  22.360  24.498  26.939 -0.2783  0.1928 -0.4018
76060W        W18973  23.648  25.629  15.429 -0.1038  0.0112  0.0892
76061W        W18974   1.099  20.565  17.843  0.3981  0.1455 -0.0840
76062W        W18975  13.018  16.865  14.377 -0.1293  0.0517  0.4015
76063W        W18976  11.879  18.390  17.090 -0.1130 -0.1352 -0.0677
76064W        W18977  13.890  17.386  14.300 -0.0849 -0.1368 -0.4202
76065W        W18978  21.344  15.658  23.589  0.2069  0.2191 -0.2169
76066W        W18979  14.356  11.863  20.741 -0.3508  0.0416  0.3062
76067W        W18980  24.475  32.577  14.282 -0.4040 -0.2063 -0.2840
76068W        W18981  13.542  20.021  13.631 -0.2385  0.2261 -0.0175
76069W        W18982   3.004  18.272  16.286  0.1573  0.2299 -0.1158
76070W        W18983  16.728  30.281  16.399  0.1296 -0.2516 -0.0316
76071W        W18984  11.927   5.155  18.121 -0.2216 -0.2764 -0.4004
76072W        W18985  11.989  29.554  16.982 -0.0928  0.3470  0.0730
76073W        W18986  30.366  21.139  26.249 -0.0153 -0.0579 -0.3110
76074W        W18987  23.338  13.320  17.461  0.1889  0.1239  0.1176
76075W        W18988  12.861  15.535  15.792 -0.1042  0.0519  0.0241
76076W        W18989  20.580  25.941  15.609  0.2054  0.1155  0.1465
76077W        W18990  27.895  26.357  28.897 -0.1605 -0.2852  0.0188
76078W        W18991  25.281  18.738  19.128 -0.1083 -0.0796  0.0076
76079W        W18992   7.618  17.925  14.415  0.1520 -0.1092  0.0358
76080W        W18993   6.761  11.438  20.646  0.2037 -0.1480  0.0051
76081W        W18994  10.640  21.033  17.792  0.4240 -0.0542 -0.0119
76082W        W18995   3.179  24.016  15.837  0.2495 -0.3295  0.1030
76083W        W18996  16.672  22.125  16.346 -0.0334  0.3855 -0.1827
76084W        W18997  12.610  14.320  14.952 -0.0948 -0.0393 -0.1226
76085W        W18998  19.994  16.434  11.744 -0.0677  0.0779  0.0237
76086W        W18999   4.825  15.178  16.237 -0.2580 -0.2184 -0.1525
76087W        W19000  18.692  16.147  12.872 -0.0741 -0.0091  0.1552
76088W        W19001  18.082  11.293  17.193 -0.0507 -0.1971 -0.2131
76089W        W19002  19.050  15.460  12.411 -0.0491  0.0804  0.1834
76090W        W19003   4.230  19.569  23.004  0.2623  0.1641  0.0624
76091W        W19004  19.967   5.745  21.419 -0.0327 -0.2036  0.0490
76092W        W19005  17.205  21.781  19.778  0.1509  0.1455  0.0183
76093W        W19006  24.804   9.949  13.289  0.1014 -0.0138 -0.0527
76094W        W19007  13.679  12.033  14.923  0.0858 -0.0443 -0.0233
76095W        W19008  11.826  14.620  19.193  0.1110  0.3853 -0.0438
76096W        W19009  14.748  20.303  14.395  0.1623  0.1993  0.0691
76097W        W19010  21.687  19.981  16.120 -0.0512  0.2440 -0.0111
76098W        W19011  23.692  26.375  21.522  0.2181  0.2590  0.4639
76099W        W19012  11.559  18.559  25.472  0.1824  0.1032  0.2551
76100W        W19013  22.609  19.255  14.901  0.0615  0.4927 -0.1260
76101W        W19014  21.099  12.679  15.354  0.1316  0.0816 -0.0017
76102W        W19015  27.284  10.438  16.527  0.0031  0.2928  0.0517
76103W        W19016  23.395  24.127  14.268  0.0259  0.2948 -0.0542
76104W        W19017  15.250  25.019  14.695  0.0024  0.0701 -0.0213
76105W        W19018  16.400  29.781  22.879 -0.3094 -0.1886  0.2219
76106W        W19019  16.261  20.349  27.995 -0.1610  0.1378  0.1115
76107W        W19020  14.012  22.328  21.771 -0.1259  0.0045 -0.0382
76108W        W19021  19.468  22.169  14.565 -0.3705 -0.1153  0.3592
76109W        W19022  20.027  14.491  15.079  0.1666  0.1332  0.0202
76110W        W19023  24.285  12.622  17.959 -0.1158  0.0833  0.2295
76111W        W19024  21.855  32.129  13.648 -0.3961  0.3874  0.1748
76112W        W19025  18.080  27.414  28.501  0.0220  0.2572 -0.2245
76113W        W19026   5.594  24.426  19.035  0.2422  0.0671  0.3274
76114W        W19027  22.919  17.613  26.839 -0.0181  0.0749  0.1108
76115W        W19028  14.519  14.057  18.061  0.1549  0.0945 -0.0228
76116W        W19029  24.151  18.745  21.019 -0.3312  0.2055 -0.1126
76117W        W19030  24.869  28.419  21.590 -0.2715  0.0829  0.2211
76118W        W19031  20.603  24.834  25.768  0.0823 -0.1818  0.0518
76119W        W19032  12.517  26.599  21.168 -0.0397 -0.0091 -0.0229
76120W        W19033  24.158  19.277  21.685  0.1910 -0.2089 -0.0370
76121W        W19034  25.129  26.090  17.625 -0.2328  0.0730 -0.1889
76122W        W19035  13.640  27.744  24.204 -0.2547  0.0917  0.1558
76123W        W19036  11.545  24.861  19.970 -0.1785  0.0432 -0.0717
76124W        W19037  33.619  16.006  28.602  0.0552 -0.2943 -0.0749
76125W        W19038  20.090  16.176  14.965 -0.2399 -0.0609 -0.0665
76126W        W19039   8.768  10.759  24.358  0.0073  0.0031 -0.0276
76127W        W19040  13.908  10.313  14.529  0.0948 -0.1286 -0.1284
76128W        W19041  22.078  29.632  14.426 -0.5791 -0.3140  0.2520
76129W        W19042  12.955  20.147  15.576  0.1955 -0.2575 -0.2927
76130W        W19043  12.597  23.666  15.587  0.1066  0.1712 -0.1243
76131W        W19044  10.066  27.088  25.130  0.0326  0.2057 -0.1516
76132W        W19045   8.771  26.266  17.731  0.1741 -0.2284 -0.0397
76133W        W19046  26.952  18.988  15.446 -0.0541  0.1844 -0.1869
76134W        W19047  11.176  30.472  17.429 -0.1112 -0.0284  0.0846
76135W        W19048  10.702   4.891  25.821 -0.2586  0.0832  0.2688
76136W        W19049  10.604  11.740  14.468 -0.0976  0.2690  0.2749
76137W        W19050  15.182  31.627  14.969 -0.1098  0.0872  0.0634
76138W        W19051   1.107  21.928  28.656 -0.0055 -0.0808 -0.0043
76139W        W19052  21.930  27.282  16.451 -0.0415 -0.0927  0.1128
76140W        W19053  15.418  27.746  23.902  0.1999  0.0484  0.1417
76141W        W19054  14.719  22.482  22.455 -0.0841 -0.3824 -0.3739
76142W        W19055  16.303  23.091  15.079 -0.0410  0.1846  0.1333
76143W        W19056  20.872  12.257  13.165  0.1503 -0.1416 -0.0745
76144W        W19057  24.102  13.140  22.376  0.2803 -0.1735 -0.1547
76145W        W19058  28.381  18.077  19.646  0.0914 -0.1314  0.1044
76146W        W19059  19.295   9.464  27.164 -0.1843 -0.2565 -0.3494
76147W        W19060  20.370  28.070  14.322  0.1491  0.0489  0.3257
76148W        W19061  15.998  14.766  28.436  0.0578 -0.2247  0.0225
76149W        W19062  17.835  24.241  17.470  0.0817  0.0657 -0.1005
76150W        W19063  11.666  16.417  29.240 -0.0291  0.0759 -0.3100
76151W        W19064  17.898  22.685  16.000  0.2054  0.0474  0.2006
76152W        W19065  18.376   8.010  19.845  0.0839  0.1810 -0.3863
76153W        W19066  26.638  25.672  19.755 -0.6486 -0.3103 -0.5538
76154W        W19067  12.747  20.954  25.105  0.2760 -0.0235  0.0827
76155W        W19068  12.984  20.221  14.525 -0.1068  0.1336  0.2632
76156W        W19069  21.240  22.003  18.088 -0.0431 -0.0641 -0.0298
76157W        W19070  10.575  20.562  23.562  0.1249  0.0671 -0.3820
76158W        W19071  13.898  26.387  14.768 -0.2361 -0.2813 -0.1605
76159W        W19072  14.109  20.191  17.126  0.2720 -0.2558  0.1750
76160W        W19073  22.014  27.495  21.493 -0.0981  0.0676  0.0123
76161W        W19074   0.292  15.670  17.063 -0.0509 -0.0038  0.0591
76162W        W19075  13.115  30.257  17.423  0.1518 -0.2128  0.2911
76163W        W19076  20.694  21.119  28.713 -0.0774  0.0340 -0.2380
76164W        W19077  18.657  24.994  14.529  0.0108  0.0562  0.1002
76165W        W19078  32.020  21.667  29.406  0.4938 -0.0377  0.3497
76166W        W19079  28.151  15.983  19.672  0.1429  0.0368  0.1928
76167W        W19080  19.440  15.408  13.734  0.2912 -0.1024  0.1053
76168W        W19081  10.901  15.763  22.003  0.0891 -0.2141  0.3403
76169W        W19082  15.798  16.472  13.285  0.2167  0.1351 -0.0729
76170W        W19083  11.813  21.813  14.526  0.2345  0.0270 -0.2053
76171W        W19084  34.022  20.054  25.474 -0.0400 -0.1255 -0.0448
76172W        W19085  20.128  12.554  17.113 -0.0910  0.2111 -0.1670
76173W        W19086  22.566  23.157  13.786  0.1339 -0.1643  0.2678
76174W        W19087  16.336  17.725  11.727  0.0545 -0.0580 -0.1002
76175W        W19088  16.522  28.104  16.322  0.2213 -0.1661 -0.1381
76176W        W19089  20.912  14.751  15.971 -0.1144  0.0789  0.0547
76177W        W19090  20.867  10.865  18.119 -0.1138  0.0226 -0.0453
76178W        W19091  21.928  23.927  15.778  0.0506 -0.1455 -0.0095
76179W        W19092  21.228  21.955  21.011  0.2547  0.5027 -0.0241
76180W        W19093  21.500   8.756  14.069  0.0416 -0.2203  0.1861
76181W        W19094  16.503  28.149  19.342  0.0473  0.2660  0.1269
76182W        W19095  18.057  19.169  14.424 -0.1865 -0.2876 -0.1240
76183W        W19096   8.105  19.830  24.243  0.2197 -0.0314 -0.3123
76184W        W19097  19.667  15.304  12.471  0.2053  0.3040 -0.1974
76185W        W19098  14.748  24.743  25.098  0.1021  0.0262 -0.2947
76186W        W19099  21.525  27.510  15.749  0.2368 -0.0439  0.2954
76187W        W19100  28.149  25.505  17.330 -0.1915  0.0199  0.1109
76188W        W19101  26.121  19.684  15.619  0.0339 -0.2434  0.1627
76189W        W19102  14.138  11.969  21.862 -0.1348 -0.1447  0.1483
76190W        W19103  16.362  22.587  15.214  0.1590 -0.3049  0.0975
76191W        W19104  20.989  31.629  18.471  0.1372 -0.0805  0.2201
76192W        W19105   9.717   1.130  16.820  0.1834 -0.0932  0.0887
76193W        W19106   6.831  15.761  15.701  0.2552 -0.0827  0.0825
76194W        W19107  20.913  24.506  20.976  0.2705 -0.0101  0.1344
76195W        W19108  23.973  26.831  17.188 -0.0857  0.2652 -0.1667
76196W        W19109  28.946  17.881  13.959 -0.0381 -0.1542  0.0643
76197W        W19110  19.158  23.709  16.528 -0.3178 -0.0352 -0.0592
76198W        W19111   9.168  19.904  14.567  0.0728  0.1654 -0.0484
76199W        W19112   6.265  10.744  20.521 -0.3190  0.0670 -0.0038
76200W        W19113  15.392  25.350  15.467  0.0897 -0.1988 -0.1666
76201W        W19114  32.067  14.425  21.369  0.1603  0.1320  0.3008
76202W        W19115   5.892  15.614  16.987  0.2719 -0.2518 -0.1624
76203W        W19116   3.537  16.466  14.717  0.0596 -0.0166  0.1149
76204W        W19117   8.467  22.063  14.978 -0.0786 -0.1943 -0.0816
76205W        W19118  12.184  24.686   2.294 -0.1698  0.2495  0.0106
76206W        W19119  18.626  26.679  16.380  0.2738 -0.0470  0.3063
76207W        W19120  23.792  22.797  14.197 -0.1223  0.2635 -0.2417
76208W        W19121   6.533  30.385  16.534 -0.0823 -0.1367  0.1855
76209W        W19122  21.040  26.019  24.366 -0.0968 -0.1130  0.1522
76210W        W19123  23.576  21.823  15.890  0.1031 -0.0454  0.1815
76211W        W19124   9.500  17.596  14.184 -0.1476  0.0202 -0.0343
76212W        W19125  26.257  12.766  15.840  0.0429 -0.2997 -0.0976
76213W        W19126   7.329  21.482  22.700  0.0671 -0.2040 -0.2339
76214W        W19127  23.268  29.396  22.367 -0.0636  0.1208  0.3432
76215W        W19128  19.105  25.155  14.740 -0.0676 -0.0309  0.0167
76216W        W19129  12.957   9.430  16.095  0.0183 -0.2027  0.0286
76217W        W19130   9.294  24.818  17.491  0.1729 -0.3104 -0.0812
76218W        W19131  27.785  24.461  22.837  0.2758  0.0415 -0.2149
76219W        W19132  27.477   5.798  17.792 -0.2381  0.0149 -0.0502
76220W        W19133  27.420  16.539  19.941 -0.4714  0.0929  0.0317
76221W        W19134   8.729  11.345   0.288  0.1742  0.2152  0.0973
76222W        W19135  10.079  21.088  18.432 -0.0262  0.0039 -0.0548
76223W        W19136   6.028  23.878  15.847 -0.0483  0.2901  0.1247
76224W        W19137  12.415  26.965  16.121 -0.0430  0.1107  0.1957
76225W        W19138  24.481  28.208  20.908  0.0207  0.0010 -0.0119
76226W        W19139   6.319  16.836  24.344 -0.2467  0.0439 -0.1127
76227W        W19140  33.780  15.529  17.166  0.0363  0.0716 -0.0302
76228W        W19141  16.417  16.934  13.831  0.0262 -0.1646 -0.1502
76229W        W19142  19.654  16.869  23.533 -0.0330  0.2251 -0.2190
76230W        W19143  21.665  24.494  14.938  0.0882  0.0053  0.0720
76231W        W19144  23.749  21.894  14.180  0.0565 -0.0544  0.0807
76232W        W19145  11.311   5.451  17.267 -0.1473  0.1105  0.0541
76233W        W19146  18.449  21.317  22.551  0.0054  0.1107  0.3493
76234W        W19147  15.801  25.121  15.950  0.2362 -0.0629 -0.1556
76235W        W19148  22.482  29.028   1.402  0.2069  0.0298  0.3114
76236W        W19149  17.303  27.817  18.971 -0.6272 -0.1614 -0.0169
76237W        W19150  18.069  26.058  24.958  0.0651  0.3895 -0.2257
76238W        W19151  14.738  21.531  13.992  0.0652 -0.0265  0.1611
76239W        W19152   7.522  15.893  19.356  0.2544 -0.1393 -0.0802
76240W        W19153  14.299   9.488  16.070  0.2421 -0.1793 -0.1392
76241W        W19154   1.326  34.021  20.387 -0.1566 -0.1645 -0.1389
76242W        W19155  21.903  23.475  18.678 -0.2901 -0.1676 -0.1601
76243W        W19156   9.916  31.938  19.323  0.0387 -0.1837 -0.0322
76244W        W19157  34.034  10.704  18.249 -0.4562  0.2514 -0.0013
76245W        W19158  24.181  19.297  12.028 -0.0486  0.1605 -0.3062
76246W        W19159  17.960  25.977  22.968 -0.0804  0.1538 -0.1533
76247W        W19160  18.029  26.829  18.712 -0.2220  0.0129  0.1905
76248W        W19161   8.097  23.516  24.219 -0.0285 -0.2238 -0.0932
76249W        W19162  15.423  17.452  15.303  0.4169  0.0825  0.1728
76250W        W19163  23.562  13.422  26.732  0.3693  0.0754 -0.2588
76251W        W19164  24.434  16.494  19.957 -0.0547 -0.1394  0.2764
76252W        W19165   6.100  22.741  19.472 -0.1455 -0.0919 -0.1800
76253W        W19166  30.429  21.733  16.400  0.1064  0.2531  0.0493
76254W        W19167  13.653  28.772   1.470 -0.1646 -0.1239  0.1562
76255W        W19168   9.218  22.909  28.688 -0.1143 -0.2745 -0.1476
76256W        W19169  25.191  22.988  20.673 -0.4108  0.3906 -0.0339
76257W        W19170  17.710  16.833  18.113  0.0749 -0.0575 -0.0192
76258W        W19171  21.775   3.987  19.723 -0.0932 -0.1368  0.0757
76259W        W19172  17.710  17.358  18.153 -0.3719  0.4175  0.4259
76260W        W19173  24.984  21.858  19.621 -0.0816  0.0614 -0.1490
76261W        W19174   9.691  27.748   6.435  0.1907  0.1447  0.3390
76262W        W19175  16.556  17.033  15.002  0.0547  0.1456 -0.0178
76263W        W19176  24.217  23.255  25.954 -0.0619 -0.0455  0.2412
76264W        W19177  17.695   5.855  21.951  0.0028  0.0584  0.0704
76265W        W19178  21.596  24.718  19.595 -0.4492 -0.0273 -0.1435
76266W        W19179  11.887  14.465  25.703 -0.0478  0.1470  0.1953
76267W        W19180  12.293  25.696   3.346  0.1596 -0.1478 -0.1554
76268W        W19181  12.181  20.856  23.461  0.0647  0.0599  0.2078
76269W        W19182  14.210  20.417  19.908  0.0009 -0.2001 -0.1590
76270W        W19183  14.517  25.411   0.958  0.1738  0.0282  0.0515
76271W        W19184  23.741  16.006  17.190 -0.2849  0.1455  0.1433
76272W        W19185   5.402  20.323  24.257 -0.1120 -0.2578  0.0710
76273W        W19186  17.277  31.093  24.934 -0.0527  0.0210  0.2053
76274W        W19187  16.410  19.647  15.089  0.1995 -0.0105  0.1313
76275W        W19188  17.297  25.270  21.565  0.1840 -0.1793  0.1950
76276W        W19189  12.469  20.871  22.748  0.2218  0.2734  0.0501
76277W        W19190  13.682  27.953  21.979  0.0767 -0.1504 -0.2099
76278W        W19191  18.946  27.034  24.172 -0.0649  0.0294 -0.2110
76279W        W19192   5.299  17.073  16.321 -0.0539 -0.1266  0.2401
76280W        W19193  16.774  16.416  18.027 -0.0825  0.1273  0.0275
76281W        W19194  13.881  24.872  20.035 -0.1965 -0.0891  0.0525
76282W        W19195  17.377  25.419  27.763 -0.2176  0.1058 -0.2961
76283W        W19196   9.133  20.681   2.182 -0.0509  0.1554  0.2678
76284W        W19197  10.809  13.900  27.931  0.2777 -0.1800 -0.1432
76285W        W19198  10.758  24.697  19.404 -0.2888 -0.0265  0.1006
76286W        W19199   5.045  23.232  23.288  0.1751  0.4060 -0.0130
76287W        W19200  14.815  14.131  16.670 -0.4023 -0.2252 -0.0087
76288W        W19201  21.514  17.081  12.914 -0.3702  0.1666  0.1722
76289W        W19202  12.095  22.509  18.899  0.0684  0.0805  0.0106
76290W        W19203  13.632  24.372  14.861 -0.1216 -0.1758  0.1779
76291W        W19204  19.284  23.473  21.806 -0.6246  0.2250  0.0718
76292W        W19205  10.825  16.315  23.723 -0.1526 -0.2332  0.0356
76293W        W19206   7.569  22.445  26.429 -0.2104  0.1719 -0.1234
76294W        W19207  14.721   9.947  17.860  0.0417  0.0043  0.0942
76295W        W19208  16.382  20.783  27.791 -0.0192 -0.4600  0.3334
76296W        W19209   9.792  19.860  14.867 -0.0767  0.1553 -0.0898
76297W        W19210  13.210  19.809  26.136 -0.1321 -0.3109 -0.0896
76298W        W19211  18.521  32.545   3.354 -0.0189  0.1803 -0.0895
76299W        W19212  10.025  26.910  27.110 -0.0122  0.4711 -0.1181
76300W        W19213  22.951  19.278  22.817 -0.1058 -0.0302 -0.0786
76301W        W19214  22.101  23.286  20.903  0.3907  0.3569  0.2090
76302W        W19215  26.259  20.950  21.385  0.0356  0.1619 -0.2796
76303W        W19216  11.912  14.968  14.460  0.0911  0.1213  0.4084
76304W        W19217  14.638   8.841  16.635 -0.1113 -0.1712  0.1761
76305W        W19218  17.291  27.696  18.040 -0.6540  0.0611  0.0919
76306W        W19219  15.183  25.872  21.432 -0.1680  0.1373 -0.1492
76307W        W19220   6.725  23.141  19.157 -0.1223 -0.0972 -0.0291
76308W        W19221  13.980  19.223  24.568  0.0465  0.1057 -0.0465
76309W        W19222  18.803  16.400  18.847 -0.0129  0.0756 -0.0286
76310W        W19223  15.437  10.538  22.657  0.3072  0.1375 -0.2416
76311W        W19224  11.506  25.710  18.438  0.2157 -0.1032 -0.1863
76312W        W19225  10.142  24.593  18.622  0.4124  0.3203 -0.0814
76313W        W19226  19.043  11.298  18.957  0.1505  0.1518  0.2199
76314W        W19227  11.688  23.333  28.713  0.0753  0.1164  0.0615
76315W        W19228  11.001  13.655  17.911 -0.1177 -0.0612 -0.2817
76316W        W19229  16.935  16.445  18.824  0.0562 -0.1625  0.2683
76317W        W19230  16.564  15.812  18.313  0.0788 -0.2869 -0.0049
76318W        W19231   5.701  13.541  25.876 -0.0799 -0.0728  0.0296
76319W        W19232  17.623  16.735  16.661  0.0859 -0.1790 -0.0434
76320W        W19233  22.788   2.260  16.976 -0.0681  0.0662  0.2592
76321W        W19234  17.049  17.519  24.132  0.0335 -0.0260 -0.0132
76322W        W19235  27.938  20.135  20.415 -0.3277 -0.2413  0.0154
76323W        W19236  11.639   7.131  24.159 -0.2171  0.1874  0.2101
76324W        W19237  14.437  18.615  15.230  0.3230 -0.2176 -0.0291
76325W        W19238  18.335  12.097   2.061 -0.4222 -0.0916 -0.0336
76326W        W19239  14.579  24.429   8.469 -0.0905  0.1247 -0.1018
76327W        W19240  11.829  18.344  23.649  0.0623  0.2429  0.1560
76328W        W19241   0.096  24.459  19.022 -0.0401 -0.2744 -0.0564
76329W        W19242  17.883  26.248  22.061 -0.1052  0.2215  0.2539
76330W        W19243  22.315  23.413  19.029  0.2349 -0.4122  0.0237
76331W        W19244  17.604  17.979  19.304  0.1980  0.0128  0.0008
76332W        W19245   0.628  10.059  18.838  0.2157 -0.1160  0.5242
76333W        W19246   8.523  21.294  19.924 -0.0028 -0.0961  0.0203
76334W        W19247   9.768  17.270  25.275 -0.2845 -0.0924  0.1123
76335W        W19248  27.368  16.716  16.101  0.1705  0.0714  0.0640
76336W        W19249   6.750  12.418  25.196  0.2597 -0.4075  0.1789
76337W        W19250  14.996  19.362  21.529  0.0071 -0.0225 -0.0596
76338W        W19251  14.329  13.715  16.447  0.2107  0.0557  0.2741
76339W        W19252  12.853  14.498  19.376 -0.0461 -0.2543 -0.1009
76340W        W19253  18.640  24.927  13.928  0.1192  0.0365  0.0835
76341W        W19254   1.821  26.394  24.682  0.0418  0.0119  0.1571
76342W        W19255  18.196   9.098  19.481 -0.0762 -0.0130  0.2409
76343W        W19256  21.327  23.810  19.976  0.0161 -0.1215 -0.1540
76344W        W19257  15.043  18.187  18.296 -0.0509  0.1183  0.0026
76345W        W19258  12.809  16.381  13.301  0.0462 -0.0375 -0.2117
76346W        W19259  19.107   5.581  14.937 -0.2567  0.0871 -0.2275
76347W        W19260  12.014  15.555  16.344 -0.1473 -0.0062  0.0902
76348W        W19261  19.067  31.990  18.022 -0.0320  0.2282  0.1894
76349W        W19262  11.338  30.895  18.193  0.2008 -0.0196  0.1133
76350W        W19263  18.305  16.671  18.179  0.0872 -0.3180  0.0294
76351W        W19264  29.756  14.606  13.627 -0.4764 -0.0689 -0.4329
76352W        W19265  16.757  17.495  14.373 -0.1970  0.0923  0.1999
76353W        W19266  17.334  17.195  19.367  0.3041 -0.0593  0.1646
76354W        W19267  17.120  22.861  24.660  0.1715  0.2208  0.2001
76355W        W19268  21.664  13.340  21.632  0.0345 -0.1502 -0.0435
76356W        W19269  22.463   9.145  19.449 -0.1260  0.3561 -0.1896
76357W        W19270  16.689  28.685  23.160 -0.3608 -0.0642 -0.2372
76358W        W19271  19.667  12.542   1.478 -0.4605 -0.1603 -0.0339
76359W        W19272   9.881  23.515  21.800 -0.1648  0.1578  0.2745
76360W        W19273  14.718  13.003   1.092 -0.0859  0.2673 -0.1294
76361W        W19274  17.276  16.021  17.314  0.0757 -0.1363  0.0701
76362W        W19275  21.412  11.822  15.177  0.4438  0.0805  0.4151
76363W        W19276  20.711  10.897  18.600  0.1159  0.4037  0.1290
76364W        W19277  19.447  22.257  17.447  0.0833 -0.0746  0.4019
76365W        W19278  15.656  24.963  25.860 -0.1932 -0.3838 -0.0112
76366W        W19279  20.963  29.822  13.550 -0.0244 -0.3529  0.1758
76367W        W19280  12.871  21.861  22.493  0.0356  0.2688  0.0673
76368W        W19281  18.944  28.823  26.292  0.0023  0.2610 -0.0465
76369W        W19282  16.527  17.513  17.325 -0.0668  0.1101  0.0642
76370W        W19283   6.263  14.266  22.879 -0.0336  0.1164  0.0175
76371W        W19284   2.048   1.954  23.805  0.0815 -0.1031  0.0529
76372W        W19285  16.325  10.649  23.345  0.1574  0.1066  0.0413
76373W        W19286  17.708  16.974  19.004 -0.1862  0.0148  0.1950
76374W        W19287  10.619  25.109  21.770  0.0619 -0.0856 -0.2023
76375W        W19288  22.643  31.852  19.567  0.0442  0.1473  0.0260
76376W        W19289   8.859  23.945  22.161  0.1467  0.0189 -0.2772
76377W        W19290  21.026  33.214  24.703  0.0957  0.0276  0.1426
76378W        W19291  17.598  17.541  17.351 -0.1671 -0.3727  0.3363
76379W        W19292   3.598  29.553  23.990  0.0147  0.2480 -0.1112
76380W        W19293  16.164  17.836  18.086  0.0031 -0.0630 -0.1100
76381W        W19294   8.413  17.761  19.155 -0.0042  0.4241  0.0498
76382W        W19295  23.180  22.924  13.249  0.2024 -0.2613  0.0741
76383W        W19296  23.577  29.161  18.625  0.2434 -0.3689  0.1218
76384W        W19297  17.915  21.929  25.618 -0.1725 -0.0140 -0.1145
76385W        W19298   5.728  26.052  17.536  0.3899  0.5567 -0.0617
76386W        W19299   8.017  20.023  22.704  0.3191  0.1619  0.0140
76387W        W19300  27.340   6.827  18.826 -0.2615  0.0405 -0.0540
76388W        W19301  13.778  27.254  17.738 -0.2652  0.0118 -0.2912
76389W        W19302  13.344   7.874  17.317  0.1020  0.0346  0.0746
76390W        W19303  17.644  17.865  17.813 -0.0915  0.1273  0.1253
76391W        W19304  17.709  17.010  20.178 -0.3644  0.1082 -0.2268
76392W        W19305  21.953   3.399  23.665  0.2841  0.0252  0.0262
76393W        W19306  10.137  25.211  26.889  0.0560  0.1573  0.1704
76394W        W19307   7.512  21.024  25.141  0.1624  0.1987  0.2676
76395W        W19308  14.816  19.112  24.068  0.1820  0.5481  0.1148
76396W        W19309  12.551  11.948  21.045  0.0721 -0.2057 -0.2567
76397W        W19310  14.697  21.369  11.654  0.1585 -0.0157  0.0723
76398W        W19311   6.989  22.288  21.267 -0.0460  0.0211  0.1527
76399W        W19312  13.902  18.888  14.390  0.1661  0.0665  0.2936
76400W        W19313  16.902  17.793  17.600 -0.1434 -0.2152 -0.2260
76401W        W19314  26.964  17.561  17.537  0.1103 -0.3047  0.0260
76402W        W19315   2.615  17.797  19.968 -0.0051  0.1018 -0.2379
76403W        W19316  12.417  31.141   4.477 -0.2476 -0.0112  0.1329
76404W        W19317  24.452  17.924  18.346  0.3361 -0.0457 -0.0012
76405W        W19318  31.117  20.375  20.531  0.0606 -0.0263  0.3500
76406W        W19319   7.774  14.846  14.133 -0.1165  0.1919 -0.2206
76407W        W19320  18.505  16.523  23.188 -0.0132  0.1310  0.1360
76408W        W19321  27.794  19.603  20.855 -0.3158  0.0117  0.0303
76409W        W19322  15.455  23.001  24.722  0.1372  0.0150 -0.0138
76410W        W19323  15.243  31.852  14.522  0.0106  0.1704  0.0063
76411W        W19324  16.175  18.458  23.398  0.0935  0.1446 -0.1043
76412W        W19325  13.732  14.307  16.712  0.0515 -0.2745 -0.3578
76413W        W19326   4.325  17.800  27.233 -0.0767 -0.2619 -0.1923
76414W        W19327  13.095  23.301  25.190  0.0513  0.1269 -0.0038
76415W        W19328  17.199  16.261  17.753 -0.0238  0.2084 -0.0362
76416W        W19329  17.289  26.478  20.367  0.2024 -0.3479 -0.0633
76417W        W19330   9.406  26.640  24.703 -0.3183 -0.0750 -0.0448
76418W        W19331  12.630  15.378  18.040  0.0189  0.0456 -0.3039
76419W        W19332  16.720  26.189  15.136 -0.0495 -0.0096 -0.0134
76420W        W19333   8.653  24.501  20.789  0.2781 -0.3467 -0.0696
76421W        W19334  14.675  23.037  26.616 -0.2715  0.0429  0.0976
76422W        W19335  13.287  33.464   2.263  0.2258 -0.1057 -0.1307
76423W        W19336  19.910  24.470  25.758 -0.2804  0.1550  0.0164
76424W        W19337  12.750  30.962  27.527 -0.0926 -0.1892  0.2591
76425W        W19338  11.775  17.449   0.252 -0.1546 -0.3012 -0.0982
76426W        W19339   3.137   9.081  21.032 -0.0200  0.2696  0.1054
76427W        W19340  15.197  17.502  18.706 -0.0021 -0.0678  0.4006
76428W        W19341  17.720  15.499  18.104  0.0766  0.3404  0.6750
76429W        W19342  12.916  25.268  26.415  0.1872  0.0863 -0.2020
76430W        W19343  16.466  14.174  17.231  0.0988  0.0045 -0.1632
76431W        W19344  21.860  25.285  24.267  0.0648 -0.3398 -0.0100
76432W        W19345  13.081  13.349  14.599  0.0407  0.0256  0.1572
76433W        W19346  21.938  13.911  25.815 -0.2642 -0.1721 -0.1231
76434W        W19347  28.894  18.872  21.209 -0.2644 -0.0148  0.0448
76435W        W19348  13.797  27.700   0.673 -0.3447 -0.0373 -0.2460
76436W        W19349  14.667  33.378  24.651  0.0029 -0.1638  0.0025
76437W        W19350  22.533  18.501  17.882  0.2492  0.1091 -0.0327
76438W        W19351  17.396  24.484  19.896  0.0182 -0.0508 -0.1702
76439W        W19352  13.920  20.182  21.825 -0.0239  0.0355 -0.1264
76440W        W19353  11.267  21.698  16.722 -0.1707  0.0713  0.1636
76441W        W19354  18.435  16.280  18.535  0.2297 -0.6172 -0.1559
76442W        W19355   5.284  17.808  21.408  0.1291 -0.0796  0.1847
76443W        W19356  28.890  31.198  19.573  0.1382 -0.0674 -0.0598
76444W        W19357   9.145  18.980   4.474  0.1323 -0.0171 -0.0114
76445W        W19358   8.053  19.739  16.013 -0.0423  0.2499  0.2842
76446W        W19359   9.007  17.589  29.587  0.2142  0.1424 -0.1601
76447W        W19360  13.699  22.453  19.685 -0.1575 -0.0250 -0.1661
76448W        W19361  14.159  29.722  23.350 -0.0586  0.3830 -0.0798
76449W        W19362  27.435  26.847  15.155  0.4930 -0.3804 -0.1990
76450W        W19363  21.300  29.998  26.841  0.1076  0.0125  0.1350
76451W        W19364  20.360  17.245  23.700  0.3086 -0.2291 -0.1572
76452W        W19365  24.920  30.798  26.312  0.0866  0.1449 -0.0066
76453W        W19366  16.772  22.865   7.666  0.4310  0.0742 -0.3158
76454W        W19367  23.010  26.634  22.719  0.0145 -0.0683  0.5105
76455W        W19368  21.021  17.030  24.449 -0.1461  0.2389  0.0817
76456W        W19369  27.412  15.575  14.590 -0.2027  0.0460  0.3317
76457W        W19370  28.462  24.857  14.734 -0.1108  0.1747 -0.0012
76458W        W19371  21.722  32.107  25.191  0.1338 -0.2319  0.0804
76459W        W19372  13.323  19.191   3.668  0.1723  0.1141 -0.2522
76460W        W19373  20.487  18.994  22.153  0.0573 -0.0077  0.0082
76461W        W19374  16.470  22.976  14.543 -0.0134 -0.0582  0.0880
76462W        W19375  24.654  23.358  16.856 -0.1368 -0.2423 -0.1104
76463W        W19376  11.610  23.387  14.583 -0.1963 -0.1190 -0.1826
76464W        W19377  18.790  20.150   6.564  0.2814 -0.0362  0.0976
76465W        W19378  10.437  28.255  21.262 -0.0601 -0.0381  0.1632
76466W        W19379  16.904  21.752  19.042  0.0789 -0.0682 -0.2032
76467W        W19380  14.445  10.773  15.364 -0.0309 -0.0253  0.1179
76468W        W19381   6.657  20.783  26.553 -0.0749 -0.2199 -0.0035
76469W        W19382  10.363  12.209   0.705 -0.0232 -0.0063  0.0918
76470W        W19383  21.908  20.950  27.266 -0.0794  0.0571  0.3800
76471W        W19384   5.308  18.860  17.302  0.0911  0.1109 -0.2546
76472W        W19385  16.711  30.006   1.789  0.0889  0.0103 -0.2169
76473W        W19386  13.372  19.665  22.227 -0.3025 -0.0690 -0.3571
76474W        W19387   6.286  27.346  25.477  0.0577 -0.3257 -0.2765
76475W        W19388  17.040  25.662  27.392 -0.0065 -0.0642  0.0822
76476W        W19389  25.236  19.537  17.089  0.1232 -0.1572  0.3635
76477W        W19390  13.314  23.716  19.100  0.0936 -0.0902  0.1365
76478W        W19391  19.749  28.672  26.131 -0.0003 -0.1253 -0.1737
76479W        W19392  11.522  14.890  22.568 -0.0356  0.1538 -0.2503
76480W        W19393  17.956  15.920  18.387 -0.1685  0.0894  0.1025
76481W        W19394  18.076  16.177  20.106 -0.2231 -0.3840  0.0653
76482W        W19395   4.297  29.190  24.666 -0.0288  0.0012 -0.3070
76483W        W19396  13.746  21.119  26.598 -0.1463 -0.3377 -0.2159
76484W        W19397  14.844  27.513  21.398 -0.1347  0.4379 -0.2189
76485W        W19398  17.967  18.850  20.236  0.3211 -0.0187  0.2337
76486W        W19399   4.736  15.264   4.758 -0.1114 -0.0115 -0.4120
76487W        W19400   6.096  24.167  25.077 -0.1965  0.0754  0.1557
76488W        W19401  16.096  28.116  22.187 -0.2455 -0.0018 -0.2883
76489W        W19402  14.901  21.162  21.363 -0.1185 -0.1726 -0.5095
76490W        W19403  28.237  20.780  19.221 -0.2991  0.1421  0.1305
76491W        W19404  25.466  20.289  18.468 -0.4353  0.1395 -0.0279
76492W        W19405  18.470  21.781   4.086 -0.1427 -0.0633  0.0223
76493W        W19406  20.564  19.800  14.055  0.2770 -0.1500  0.0423
76494W        W19407  17.032   0.219  24.319  0.2660  0.0542 -0.3432
76495W        W19408  17.314  17.507  17.769  0.0707 -0.2256 -0.1715
76496W        W19409   3.834  12.732  21.443  0.1189  0.0568 -0.0502
76497W        W19410  10.086  21.940  20.670 -0.3568 -0.1423 -0.0334
76498W        W19411  13.571  19.960  13.042  0.0303  0.3671 -0.0529
76499W        W19412  15.326  30.111   5.145 -0.0169 -0.1674 -0.2063
76500W        W19413  19.799  20.208  27.563  0.2172  0.2553 -0.0079
76501W        W19414  14.131  15.328  22.842  0.2997  0.0117 -0.1442
76502W        W19415  13.827  27.372  19.484  0.2059 -0.0658  0.2264
76503W        W19416  15.073  15.782  23.597  0.0333  0.0184 -0.1704
76504W        W19417  33.922  28.615  16.495  0.1843 -0.5564 -0.1957
76505W        W19418  14.733   8.766  15.063  0.1618  0.1085 -0.1753
76506W        W19419  20.369  25.524  16.186 -0.1820  0.5177 -0.4815
76507W        W19420  24.873  29.204  15.153 -0.0112 -0.0341  0.0397
76508W        W19421  25.919  32.049  18.492  0.1584  0.0709 -0.1452
76509W        W19422   6.286  28.400   5.232 -0.1342 -0.0693  0.2301
76510W        W19423  22.123  23.143  26.601 -0.0379 -0.0742  0.1804
76511W        W19424  17.765  11.695  14.984  0.1462 -0.2139  0.0817
76512W        W19425   6.091  28.263  28.839 -0.1544 -0.0140  0.1281
76513W        W19426  18.933  23.440  25.489  0.0140  0.3514 -0.3403
76514W        W19427  17.794  21.052  21.778  0.1354  0.1462  0.0035
76515W        W19428  15.677  19.505  24.659  0.0284 -0.1330  0.0272
76516W        W19429  26.681  19.576  14.932  0.0341  0.0587  0.1170
76517W        W19430   9.323  26.882   8.592 -0.0146  0.2065 -0.1293
76518W        W19431  11.866  16.914  18.236 -0.0198 -0.0826 -0.0897
76519W        W19432  16.200  20.321   3.357  0.0212  0.0291 -0.1221
76520W        W19433  28.934  20.264  23.544  0.0368  0.0585  0.2624
76521W        W19434  19.426  15.420  25.320 -0.1928  0.2912 -0.1034
76522W        W19435   8.231  29.452  28.224 -0.1535  0.0747  0.2065
76523W        W19436  15.445  10.351   0.765  0.2211 -0.1292 -0.1049
76524W        W19437  18.104  21.698  28.830 -0.0079  0.1922  0.1630
76525W        W19438  10.073  18.018  17.150  0.3624  0.2071  0.0021
76526W        W19439   7.315  12.480  17.520  0.0938 -0.2612  0.0357
76527W        W19440  12.044  26.332   8.799 -0.0332 -0.5377 -0.1395
76528W        W19441  13.693  22.118  19.339 -0.0637  0.1135 -0.0268
76529W        W19442  11.012  15.865  26.253 -0.1227 -0.0118  0.2009
76530W        W19443  11.203   0.411   2.699 -0.3627  0.0302  0.2507
76531W        W19444  16.419  15.640  14.119  0.0494 -0.1649 -0.1234
76532W        W19445  12.089  22.180   7.205  0.0449 -0.1466  0.1365
76533W        W19446  13.373  17.850  24.369 -0.2431  0.0687  0.0302
76534W        W19447  13.594  19.143  22.986 -0.0930 -0.0556 -0.1868
76535W        W19448   5.985  30.091  19.948 -0.3473 -0.3872  0.1842
76536W        W19449  13.142  19.464  21.499  0.0341  0.0586  0.0168
76537W        W19450  14.740  17.280  29.732  0.4225  0.0454  0.2452
76538W        W19451   8.713  27.272   4.406 -0.0099 -0.1486  0.0479
76539W        W19452  22.498  19.270  19.170 -0.3113  0.3080 -0.2461
76540W        W19453  11.308   7.044  28.175  0.0691 -0.1032 -0.1081
76541W        W19454   9.903  22.793  19.614  0.3409 -0.0758 -0.0251
76542W        W19455   3.654  18.988  27.077 -0.0618  0.3416  0.0914
76543W        W19456  13.262  15.553  26.171 -0.0862 -0.0385 -0.1994
76544W        W19457  16.501  14.182  28.656  0.2713 -0.2356 -0.3533
76545W        W19458   5.208  19.304   0.148  0.0355 -0.1377  0.0715
76546W        W19459   9.602  23.537  21.353  0.4241 -0.1469 -0.2226
76547W        W19460   9.879  16.409  26.060 -0.1016 -0.2514  0.2118
76548W        W19461  24.368  17.285   1.968 -0.3340  0.1887 -0.1627
76549W        W19462  16.196  21.687   3.210  0.0834 -0.1486  0.1617
76550W        W19463   9.521  26.201   3.152  0.1925 -0.0737  0.1067
76551W        W19464  22.417  16.596  26.925  0.0388  0.1590  0.1001
76552W        W19465   6.578  32.535  26.579  0.0068 -0.2372 -0.2660
76553W        W19466  14.977  19.978  29.670  0.3283 -0.1744 -0.1357
76554W        W19467  12.712  29.460   0.245  0.3735  0.0628 -0.2121
76555W        W19468  18.448  23.149  13.470 -0.0030  0.2031  0.3037
76556W        W19469  12.340   2.206  20.007 -0.4676 -0.0195 -0.0932
76557W        W19470  24.698  23.319  18.218  0.0957 -0.0614  0.0716
76558W        W19471  19.405   5.800  22.612 -0.1093 -0.1538  0.0822
76559W        W19472   0.580  19.879  28.208  0.1443  0.0114 -0.4125
76560W        W19473  25.018  16.763  17.247  0.0279  0.1037  0.0123
76561W        W19474  19.988  15.787  28.303  0.0450 -0.2028  0.1062
76562W        W19475  12.212  22.873  27.442  0.0228 -0.3396 -0.0992
76563W        W19476  26.158  27.493  27.019  0.1044 -0.0267  0.0424
76564W        W19477   9.090  11.270  23.024 -0.3360  0.0016 -0.0779
76565W        W19478  22.727  28.276   1.875  0.1635 -0.2902 -0.3514
76566W        W19479   8.733  16.045  21.914  0.1122  0.1884  0.0099
76567W        W19480  17.113  24.882  20.065  0.2553  0.0347  0.1379
76568W        W19481  12.557  16.010   8.117 -0.2708 -0.0308 -0.0502
76569W        W19482  17.722  20.476  26.578  0.0865 -0.0098  0.2310
76570W        W19483  13.483  20.675  29.756  0.1219  0.2708  0.0981
76571W        W19484  25.173  16.517  21.236 -0.3515 -0.2140 -0.1759
76572W        W19485  14.292  21.490  21.325 -0.1675 -0.0385  0.0010
76573W        W19486  18.005  17.647   1.224 -0.1772 -0.0398 -0.0272
76574W        W19487  16.847  23.487   9.345  0.1639  0.2016 -0.3161
76575W        W19488  19.762  33.335   1.562  0.1143  0.0744 -0.3462
76576W        W19489  12.373  15.356   4.477 -0.2361 -0.1860 -0.1495
76577W        W19490  18.688  23.434  21.137  0.2104  0.0030 -0.2051
76578W        W19491  13.796  27.889   3.582  0.0960 -0.1356  0.0189
76579W        W19492  26.334  21.615   7.371  0.0310 -0.0915  0.0193
76580W        W19493  21.101  32.007  19.951 -0.2735 -0.3946 -0.6224
76581W        W19494   1.769  30.510  19.379 -0.0123  0.0847 -0.1391
76582W        W19495  19.554  11.457  17.827  0.0142  0.0687  0.1249
76583W        W19496   3.720  15.186  20.610  0.0606 -0.2109  0.0903
76584W        W19497   4.754  32.167  24.223 -0.1240 -0.4131  0.2413
76585W        W19498  32.170  20.641   0.558  0.1499 -0.2248  0.2251
76586W        W19499  11.865  15.690  26.581 -0.3540  0.1858  0.3782
76587W        W19500  18.455  17.498  23.664 -0.3710 -0.1488 -0.1785
76588W        W19501  18.487  23.732  27.033  0.1402 -0.2333  0.3625
76589W        W19502  20.489  34.192  26.757 -0.0152  0.0381 -0.1665
76590W        W19503  14.493  28.200   2.157 -0.1215 -0.0344 -0.0797
76591W        W19504  15.423  23.341  29.061  0.1586  0.0015 -0.1336
76592W        W19505  10.665  20.603  25.515 -0.1887 -0.3377 -0.1417
76593W        W19506   2.352  30.888   3.014 -0.2347 -0.0881 -0.1522
76594W        W19507   5.450  30.861   2.493 -0.0127  0.1434 -0.2511
76595W        W19508  18.286   2.958  26.196  0.0209  0.3700 -0.2094
76596W        W19509   7.471  14.324   2.508 -0.2543 -0.1633  0.2603
76597W        W19510  11.116  22.249  27.516 -0.0957 -0.3005  0.0466
76598W        W19511  25.227  17.526   2.808  0.2090 -0.4193 -0.2016
76599W        W19512  11.882  21.315  19.954 -0.1087  0.1977 -0.0074
76600W        W19513  22.632  16.653   5.094  0.2230  0.1362 -0.0174
76601W        W19514  13.950  27.725   3.117 -0.2169  0.0728  0.1576
76602W        W19515   9.810  24.639  21.722  0.3299 -0.2265 -0.2249
76603W        W19516  16.813  18.249   1.098  0.0434 -0.3803 -0.0588
76604W        W19517  13.187  21.103  27.604  0.2565  0.3390  0.0840
76605W        W19518  16.478  21.079  24.351 -0.0875  0.0974 -0.1745
76606W        W19519   9.447   1.677   8.283  0.2458 -0.1975  0.0548
76607W        W19520  19.586  12.966  28.391  0.2222 -0.2434  0.2801
76608W        W19521  26.270  15.719  29.134 -0.1450 -0.0113  0.2897
76609W        W19522  16.925  29.054   0.646  0.3091  0.2624  0.3093
76610W        W19523  10.182  27.693  28.328 -0.3619 -0.0683 -0.2125
76611W        W19524  18.271  22.761  28.857 -0.0490  0.0215 -0.1131
76612W        W19525  14.423  28.962   3.820 -0.2220  0.0095  0.1503
76613W        W19526  16.747  20.405  23.263  0.0278  0.0384  0.0647
76614W        W19527   6.438  19.663   8.251  0.1681  0.0153 -0.0330
76615W        W19528  14.582  15.249  27.629  0.0391 -0.2673 -0.2872
76616W        W19529  16.265  19.942  29.229  0.2642  0.3086  0.1503
76617W        W19530  16.204   0.818  28.000  0.0215 -0.2766 -0.0238
76618W        W19531  22.389  12.929  28.111 -0.1514 -0.1915 -0.1243
76619W        W19532  29.510  18.856   3.328  0.1280  0.2544 -0.1080
76620W        W19533  23.420  24.274   0.416 -0.1331  0.1427 -0.1632
76621W        W19534   4.302  25.359   3.758  0.1051 -0.0094  0.0380
76622W        W19535  26.727  24.695  21.727 -0.0820 -0.2887  0.2266
76623W        W19536  28.748  23.612   2.734 -0.0480  0.0226  0.0891
76624W        W19537   6.000  23.223  17.456  0.4340  0.1913 -0.1245
76625W        W19538  16.794  21.769   6.000 -0.0904  0.2620  0.1676
76626W        W19539  22.488  22.097  26.688 -0.0100 -0.1081  0.2257
76627W        W19540  18.547  25.878   9.588 -0.3380 -0.0518  0.3813
76628W        W19541  19.337  22.062  24.310 -0.0194 -0.1498 -0.0940
76629W        W19542  22.579  17.050  25.121  0.2119  0.0289  0.2150
76630W        W19543   6.856  27.915  20.701  0.2862  0.2010  0.1467
76631W        W19544  18.897  21.431  20.989 -0.1215  0.0860  0.2897
76632W        W19545  20.034  14.845  27.954 -0.0001  0.1050 -0.1398
76633W        W19546  19.717  25.534  25.287  0.1571  0.0184  0.0139
76634W        W19547  17.778  17.614  20.138  0.2628 -0.0257  0.0240
76635W        W19548   1.645  17.119   5.404  0.1028 -0.1181 -0.1732
76636W        W19549  17.939  18.797  11.952  0.2110  0.1700 -0.1685
76637W        W19550  14.883  16.317   3.224 -0.2261 -0.0547 -0.0855
76638W        W19551  25.543  21.125  27.420 -0.3315 -0.0250  0.2709
76639W        W19552  11.449  28.712   4.817 -0.3181  0.1168 -0.0274
76640W        W19553  12.401  12.401   3.151 -0.0746 -0.1258  0.2452
76641W        W19554   3.954  17.867  26.760 -0.1578 -0.1994  0.4031
76642W        W19555  14.838  11.548   6.191  0.0699  0.3852 -0.0315
76643W        W19556  24.278  24.822  17.437 -0.1085  0.1158 -0.0637
76644W        W19557  22.934  29.130   4.277 -0.2011  0.3135  0.0264
76645W        W19558  21.378  21.014  28.640 -0.0514 -0.0061  0.0989
76646W        W19559  13.913  27.520   0.172 -0.4044 -0.1247  0.1064
76647W        W19560  22.911  24.177  28.746  0.1757  0.0052  0.0028
76648W        W19561  16.719  18.092   3.473 -0.1465 -0.2408  0.0931
76649W        W19562  22.817   9.937  28.059 -0.0664  0.1871 -0.2494
76650W        W19563  19.577  21.849  22.366 -0.1208 -0.0277  0.1009
76651W        W19564  12.432  12.765  27.475 -0.0571  0.2906  0.0103
76652W        W19565  21.482  20.255  29.494 -0.0628 -0.2333  0.2256
76653W        W19566  18.408  18.706   0.504 -0.0492 -0.0696 -0.0781
76654W        W19567  15.067  15.885   3.846 -0.0981  0.1238 -0.2765
76655W        W19568  19.588  28.330   5.447 -0.0304  0.2931 -0.0515
76656W        W19569  18.323  20.658  26.404  0.1923  0.1939 -0.1403
76657W        W19570  19.571  30.369   6.116  0.1269 -0.0402  0.0314
76658W        W19571  17.633  23.904   3.727  0.0136 -0.0995 -0.1958
76659W        W19572   6.419   9.463  11.496 -0.1525 -0.0813 -0.1701
76660W        W19573  13.247  23.669   2.303  0.1926  0.0043 -0.1452
76661W        W19574  17.596  22.581  27.752  0.1534 -0.0316  0.0254
76662W        W19575  31.576  26.884  17.739  0.0740 -0.1985 -0.0068
76663W        W19576  14.432  25.442  25.491  0.0709  0.0008  0.1050
76664W        W19577  26.535  11.481  14.669 -0.1807  0.2630  0.0533
76665W        W19578   7.253  19.488  29.675 -0.2421  0.0223 -0.1135
76666W        W19579  22.115  25.259  22.141 -0.1589 -0.0109 -0.0821
76667W        W19580   5.662  15.674  25.906  0.2939  0.0419  0.0686
76668W        W19581  16.905  21.626  20.106  0.1313 -0.1188 -0.0383
76669W        W19582  20.098  15.210   7.647  0.0659  0.0113 -0.1246
76670W        W19583  16.188  22.287  24.163 -0.1344 -0.0890  0.0955
76671W        W19584  18.739  19.386  26.548 -0.2076 -0.1436 -0.2629
76672W        W19585  16.370  21.576   7.505  0.2056  0.2113 -0.2449
76673W        W19586  21.536  24.530   6.582  0.2360 -0.1644  0.1104
76674W        W19587  13.875  19.179   0.548 -0.0300 -0.0614 -0.0679
76675W        W19588  34.100  22.732  25.893 -0.0583  0.1911 -0.2134
76676W        W19589  14.299  16.270   2.023 -0.2305  0.0399 -0.0773
76677W        W19590   2.597  19.384  17.685  0.1129  0.0229 -0.0594
76678W        W19591  12.030  29.100  26.070 -0.0939  0.1311 -0.1740
76679W        W19592  11.084  17.459  27.867  0.3129  0.4778 -0.1979
76680W        W19593  19.185  30.463  23.212 -0.0819  0.0106  0.1145
76681W        W19594  23.394  33.207   2.116  0.2656  0.0890 -0.0145
76682W        W19595  15.990  21.216   0.420 -0.0987 -0.1048  0.0989
76683W        W19596   5.670  33.820  27.517 -0.1042 -0.1878 -0.3243
76684W        W19597  17.931  20.728   8.104  0.1241  0.2067 -0.0323
76685W        W19598   4.482  23.177  28.112  0.2222 -0.2861  0.3674
76686W        W19599  15.336  24.054  28.434  0.0752  0.1562  0.0080
76687W        W19600  23.875  27.711  26.005 -0.0999  0.0670 -0.0439
76688W        W19601   6.630  28.378   6.332  0.1595 -0.1757 -0.2489
76689W        W19602  14.545  19.864   2.649  0.2130 -0.1897  0.1723
76690W        W19603  13.953  21.776  15.978 -0.0334 -0.1984  0.3813
76691W        W19604  16.980  20.338  14.951 -0.2437 -0.3082  0.0180
76692W        W19605  10.624  19.334  18.092  0.0078 -0.1785 -0.3176
76693W        W19606  19.310  21.360   1.483  0.0274  0.2747  0.0249
76694W        W19607  17.846  26.866  26.027  0.3363 -0.0342 -0.0731
76695W        W19608  14.423  20.442  15.200  0.1255  0.2625 -0.0399
76696W        W19609  11.233  12.054  27.948  0.1772  0.0008  0.0110
76697W        W19610  12.246  32.031  20.536  0.2380  0.3659  0.0227
76698W        W19611  15.208  14.861  29.726 -0.2431 -0.0135  0.2058
76699W        W19612  18.192  13.917  16.477  0.1733  0.0629  0.0150
76700W        W19613  10.665  17.920  24.404  0.0352 -0.0664  0.1789
76701W        W19614  14.896  23.704   7.824 -0.2463  0.1668  0.0837
76702W        W19615  18.764  16.771  27.656  0.3230 -0.0011  0.0724
76703W        W19616   0.170  24.693  25.588 -0.0752 -0.3682  0.1197
76704W        W19617   7.151  15.862   2.026 -0.1945 -0.2275 -0.0888
76705W        W19618  13.280  17.445  18.804 -0.0287 -0.0083 -0.0764
76706W        W19619  14.850  21.461   9.323 -0.1758 -0.0567  0.1895
76707W        W19620  12.754  11.559  22.053  0.2366 -0.1170  0.1565
76708W        W19621  12.044   8.425   6.395  0.0713 -0.1785 -0.0123
76709W        W19622  11.125  23.649  15.778  0.2003 -0.1579 -0.0029
76710W        W19623   9.638   8.556   6.519 -0.2830  0.0260 -0.1153
76711W        W19624  13.354  20.843  19.682 -0.1970  0.1799 -0.1088
76712W        W19625  10.419  25.646  22.001  0.2065 -0.0536 -0.3294
76713W        W19626  18.266  15.871  28.408  0.2652 -0.1255 -0.0451
76714W        W19627   5.411   2.973  23.012  0.2761  0.1599  0.2488
76715W        W19628   9.234  32.036   2.353 -0.2009 -0.1539  0.1275
76716W        W19629  16.560  16.577  24.750  0.0615  0.1373  0.0505
76717W        W19630  23.846  18.641   8.194  0.0621  0.2241  0.0366
76718W        W19631  15.978   9.767  21.158  0.0725  0.1305  0.2032
76719W        W19632  29.935   9.029   2.649  0.0120  0.2250 -0.0959
76720W        W19633   8.280  11.863   3.567  0.1814 -0.1387  0.2032
76721W        W19634  17.828  18.011  27.745  0.1571 -0.0134  0.2526
76722W        W19635  17.789  27.234   7.831 -0.0976 -0.2856 -0.2368
76723W        W19636  21.569  14.378  18.000 -0.1237  0.0847 -0.0491
76724W        W19637  13.317  21.138   3.311  0.2483  0.1729  0.0456
76725W        W19638  14.786  34.336  19.015 -0.0824  0.1880  0.0569
76726W        W19639  17.750  16.054  18.862  0.2771  0.2847 -0.0610
76727W        W19640  15.862  24.104  29.023  0.2886 -0.1299 -0.0597
76728W        W19641  11.965  33.761  20.203 -0.4100 -0.0963 -0.4915
76729W        W19642   5.356  13.432   3.275  0.2714 -0.0798 -0.0244
76730W        W19643  13.476  23.066  28.924  0.0800  0.0593 -0.0719
76731W        W19644  18.416  28.686  26.183  0.2569 -0.0496  0.1194
76732W        W19645  14.678  21.292  24.611  0.2072 -0.1673  0.1718
76733W        W19646  17.185  17.993  18.068 -0.1229 -0.3039 -0.3366
76734W        W19647   7.023  21.645  24.591  0.1540 -0.2775 -0.1118
76735W        W19648  17.925  26.352   0.894  0.0717 -0.0613  0.0477
76736W        W19649   9.080  16.698  29.325  0.0325  0.1653  0.3728
76737W        W19650  14.025  20.623  25.278 -0.2327 -0.2211 -0.4583
76738W        W19651  18.122  27.009   5.228  0.1081 -0.0792  0.0122
76739W        W19652  21.390  11.260   1.688 -0.1668  0.0244 -0.0316
76740W        W19653  14.624  10.324   1.234  0.1602  0.0661  0.0042
76741W        W19654  11.005  20.674   1.902  0.2015  0.1376  0.2190
76742W        W19655  11.082  21.131   4.628  0.0958  0.0333  0.0213
76743W        W19656  15.234  21.511   1.666  0.2973 -0.3260  0.2549
76744W        W19657  12.774  23.011   5.683  0.1236 -0.2145  0.0864
76745W        W19658  20.704  28.176   6.955 -0.0486 -0.0485  0.0983
76746W        W19659  13.412  13.643  24.822  0.3478  0.1833 -0.0988
76747W        W19660  21.716  13.756  26.698 -0.2537  0.3712 -0.0757
76748W        W19661   9.393  14.152  29.778 -0.0420 -0.2060 -0.1795
76749W        W19662  19.425  26.832  24.826  0.1622  0.2108 -0.1361
76750W        W19663  24.021  32.022  17.498 -0.0578 -0.1212 -0.0746
76751W        W19664  18.308  33.045  26.157  0.1878  0.1237  0.1728
76752W        W19665  18.813   9.962  26.591  0.0584 -0.0715  0.1191
76753W        W19666  19.952   9.739  28.796  0.3358  0.1757  0.0552
76754W        W19667  12.483  16.668  26.618  0.2673 -0.4323  0.0537
76755W        W19668  20.628  33.869   9.538  0.3585  0.3104  0.0864
76756W        W19669  20.778  16.143  22.052  0.0669 -0.1041 -0.0753
76757W        W19670  14.065  21.711   4.436 -0.0424  0.1430  0.4198
76758W        W19671  12.075  19.114   1.258 -0.3609  0.0934 -0.0226
76759W        W19672  13.176  24.677   3.069  0.3093 -0.0590 -0.1624
76760W        W19673  16.285  22.779  21.695 -0.1361 -0.1271 -0.0671
76761W        W19674  11.934  17.062  25.891 -0.1745  0.1691 -0.1243
76762W        W19675  14.172  13.197  20.064 -0.2213  0.0929  0.0118
76763W        W19676   7.448  24.407  19.271  0.0405 -0.0901 -0.0049
76764W        W19677  14.218  21.258   7.912 -0.1420 -0.1810 -0.0811
76765W        W19678  19.308  25.822   0.183 -0.1283  0.1950  0.3144
76766W        W19679  23.530  21.683  19.794 -0.0195  0.5448  0.0914
76767W        W19680   5.870  22.412   0.098 -0.1825 -0.2368 -0.0204
76768W        W19681  13.794  25.290  24.843  0.1354  0.1100  0.1850
76769W        W19682  22.213  18.151  13.067 -0.2399 -0.4794  0.1855
76770W        W19683  31.052  29.736  14.326 -0.2476  0.1643  0.2236
76771W        W19684  13.013  17.017   6.951 -0.1690 -0.1205  0.1596
76772W        W19685  11.930  30.543   1.040 -0.3269 -0.3329 -0.1923
76773W        W19686  27.015   9.498   1.307 -0.2140 -0.0815  0.0782
76774W        W19687  18.072  19.379   2.432  0.1450  0.0761  0.0785
76775W        W19688  27.999  21.763  21.668  0.0820 -0.0787  0.1010
76776W        W19689   7.695  17.150   2.350  0.0147 -0.0267 -0.1490
76777W        W19690  11.943  20.862   1.540 -0.0751 -0.2424 -0.0853
76778W        W19691  13.688  20.721  21.608 -0.1191  0.0430  0.3348
76779W        W19692  16.287   0.050  21.954  0.1572 -0.0105 -0.1750
76780W        W19693  15.764  31.776   1.019 -0.2752 -0.1022  0.1348
76781W        W19694  17.168  29.396   4.624  0.1362 -0.3327  0.0194
76782W        W19695  18.356  10.380   3.784  0.0922  0.1139 -0.0162
76783W        W19696  14.675  20.720  21.484  0.1123  0.0896 -0.2607
76784W        W19697  16.462  20.362  26.948 -0.3341  0.3411 -0.3176
76785W        W19698  26.207  19.594   3.986  0.2932 -0.0457  0.1644
76786W        W19699  20.626  25.599   6.234  0.0102  0.0761  0.0558
76787W        W19700  15.443  32.061  22.409 -0.0611 -0.2096 -0.0778
76788W        W19701  13.142  15.636   4.249 -0.0534  0.1725  0.3919
76789W        W19702  11.224  12.163  23.859  0.1055 -0.3859  0.2166
76790W        W19703  10.908  24.452   3.528 -0.2835  0.0856 -0.0889
76791W        W19704  10.471  27.271   7.674 -0.0191  0.2540 -0.1089
76792W        W19705  12.987  19.375   0.582 -0.1507  0.0484 -0.1000
76793W        W19706  14.524  16.951  25.717 -0.1865 -0.0218  0.0924
76794W        W19707   7.059   7.164  27.565 -0.2092  0.2793  0.0342
76795W        W19708  21.537  21.214  22.152 -0.0250 -0.1097 -0.2214
76796W        W19709  18.795  27.936   2.739  0.1677  0.0416  0.0500
76797W        W19710  27.517   0.732  17.180  0.0848  0.0671 -0.2591
76798W        W19711  17.270  28.079  16.572 -0.2079 -0.0310 -0.1089
76799W        W19712  21.433  17.956  12.235  0.2713 -0.3083  0.0120
76800W        W19713  28.962  17.408  26.713 -0.0036 -0.0133 -0.0877
76801W        W19714  11.208  18.227   1.846 -0.0533 -0.0090 -0.0921
76802W        W19715   9.151  27.495   1.206 -0.4580  0.3803  0.0433
76803W        W19716  27.644  21.384  23.795 -0.3515  0.0558  0.2630
76804W        W19717  21.623  18.260  24.522  0.1371 -0.0556 -0.2439
76805W        W19718   4.957  23.759  23.705  0.1142  0.4203  0.1054
76806W        W19719   3.025  24.345  28.089  0.3139  0.1548  0.2290
76807W        W19720  19.827  29.689  25.201 -0.0643 -0.1051 -0.3528
76808W        W19721  16.650  18.392   7.039 -0.1622  0.0723  0.0703
76809W        W19722  12.474   0.541   9.858  0.1182 -0.1025 -0.3008
76810W        W19723  34.327  18.631  20.951 -0.0098 -0.0984 -0.0597
76811W        W19724  14.981  21.222   7.006 -0.4261  0.2299 -0.0486
76812W        W19725   6.518  24.223   0.424 -0.2370  0.2098 -0.0656
76813W        W19726   2.356  21.336   0.633  0.0474  0.0767  0.2472
76814W        W19727   5.371  24.312   9.874  0.0709  0.0572  0.0689
76815W        W19728  13.348  21.715  24.698 -0.0704  0.0368 -0.1824
76816W        W19729  15.608   0.601  23.674  0.0396  0.2329 -0.1968
76817W        W19730  18.707  29.907  25.554  0.1091  0.0151 -0.1315
76818W        W19731  28.366  28.380   4.339 -0.3641  0.3527 -0.0007
76819W        W19732  14.322  19.041  24.251  0.2570  0.2071  0.2932
76820W        W19733  28.607  14.495  14.877 -0.0887 -0.1971  0.2410
76821W        W19734  10.646  17.015  24.789  0.1243 -0.0345 -0.0318
76822W        W19735  20.908  16.532  24.742  0.3608 -0.0364 -0.2148
76823W        W19736  13.452  13.682   4.294  0.2701 -0.2283 -0.1600
76824W        W19737  11.262  17.748   0.903  0.3420  0.1235  0.1419
76825W        W19738  14.616  21.313  23.581  0.2865 -0.2436  0.1419
76826W        W19739  12.599  19.872   2.329 -0.2069 -0.0066  0.0804
76827W        W19740  19.954  19.602  21.377 -0.3372 -0.0404 -0.3184
76828W        W19741   8.332  23.991   2.925  0.2049  0.0710  0.2188
76829W        W19742  17.424  26.478   2.442  0.0400 -0.0430 -0.0094
76830W        W19743  15.467  31.154   8.335  0.2082  0.0773  0.1509
76831W        W19744  15.659  25.920  21.630 -0.0457 -0.0219  0.0599
76832W        W19745  15.757  23.643   0.368 -0.0246  0.0940 -0.3567
76833W        W19746   1.566   8.528  23.654  0.1485  0.0367 -0.0934
76834W        W19747  19.349  21.950  22.856 -0.2883  0.0012 -0.3399
76835W        W19748   5.938  19.126   2.415  0.0760  0.2473  0.0652
76836W        W19749  24.405  10.649   8.684  0.0120  0.3572  0.3352
76837W        W19750  20.692  25.628  24.197  0.3100  0.0979  0.3765
76838W        W19751  17.503  21.203   1.219  0.2909  0.4034 -0.0164
76839W        W19752  19.760  15.861   0.963 -0.0491 -0.0591 -0.1039
76840W        W19753  15.367  26.832  21.581 -0.1269 -0.3043 -0.1406
76841W        W19754   6.836  30.843  16.518 -0.0599 -0.0837 -0.2560
76842W        W19755  31.704  14.910  26.645  0.1074  0.1058  0.3207
76843W        W19756  19.171  29.062  23.560  0.2601 -0.2084 -0.0393
76844W        W19757   9.593  20.106   3.456  0.1450 -0.0157 -0.1325
76845W        W19758  19.549  26.333  16.086 -0.0199  0.1514 -0.0996
76846W        W19759  11.414  18.524   1.473 -0.2721  0.2652 -0.1362
76847W        W19760  20.245  17.611  25.466 -0.3987  0.0600 -0.0010
76848W        W19761  11.308  20.221  29.575  0.2685 -0.0635  0.1459
76849W        W19762  21.979  15.027  14.804 -0.1712  0.0756 -0.0850
76850W        W19763  16.010  19.152   2.286 -0.2751 -0.0659  0.1413
76851W        W19764  19.090  19.846   6.892 -0.1972 -0.2334 -0.1435
76852W        W19765   7.516  27.542  29.191  0.0791  0.1842 -0.1191
76853W        W19766  10.876  16.146   4.825 -0.0356  0.1767  0.0712
76854W        W19767  14.819  17.156  27.023 -0.1134 -0.1349 -0.0082
76855W        W19768  15.534  23.768  29.340 -0.0565 -0.0471 -0.1766
76856W        W19769  11.596  27.364   7.848  0.3391 -0.0155 -0.2007
76857W        W19770  26.177  16.422   4.287  0.0355  0.2362  0.0786
76858W        W19771  20.482  21.090  18.754 -0.2552 -0.2475  0.4783
76859W        W19772  16.813  24.010   9.470  0.1021  0.1265 -0.0630
76860W        W19773   7.396  22.323   5.554 -0.1060 -0.1401 -0.1777
76861W        W19774   8.237  16.008   1.588 -0.5129  0.0374 -0.2536
76862W        W19775   9.628  18.791  23.063 -0.1203 -0.1549 -0.2666
76863W        W19776  12.079  26.189   8.090  0.1257  0.3841  0.2757
76864W        W19777  12.279  13.388  28.023 -0.2239  0.3262 -0.0779
76865W        W19778   9.434  15.475  14.022  0.0605 -0.3097 -0.2385
76866W        W19779  13.915  23.465  21.195  0.0928 -0.1340  0.1348
76867W        W19780  10.869  20.957   1.448 -0.1539  0.2583  0.1943
76868W        W19781  15.700   3.836   3.112  0.2329 -0.0317  0.2299
76869W        W19782  19.528  24.538  19.054  0.1700  0.1688  0.0478
76870W        W19783  18.154  23.452  25.703  0.2302  0.2631  0.0595
76871W        W19784  12.441  12.444  25.767  0.3249  0.0344  0.0181
76872W        W19785  10.247  22.798  16.288 -0.4235  0.0085 -0.2315
76873W        W19786  19.236  19.023   1.814 -0.1736 -0.2171  0.1499
76874W        W19787  18.409  24.127  21.677  0.1697  0.0602 -0.4983
76875W        W19788   0.141  14.915   8.328 -0.0856  0.1123 -0.0072
76876W        W19789  18.914  22.877   0.290  0.1316 -0.3435  0.0656
76877W        W19790  16.060  33.618   1.847 -0.2271  0.2041 -0.1029
76878W        W19791  23.914  23.664   0.583 -0.0792 -0.3848 -0.0587
76879W        W19792  16.898  15.651  23.902  0.1051 -0.0660  0.1939
76880W        W19793  23.720  31.297   0.306  0.1646 -0.0918  0.2883
76881W        W19794  13.573  21.840  27.188  0.1822 -0.4854  0.0074
76882W        W19795   9.543  29.675   9.768  0.0505 -0.1354 -0.0457
76883W        W19796  10.241  33.383  28.667 -0.2103  0.2860 -0.1141
76884W        W19797  14.994  32.336   5.124  0.2129 -0.0403  0.1084
76885W        W19798  10.715  23.524   5.928 -0.1433 -0.1872  0.0262
76886W        W19799   1.084  21.486  25.510 -0.1941  0.2969 -0.0803
76887W        W19800  28.726  27.385   8.496 -0.0672  0.3337 -0.0681
76888W        W19801  19.534  22.459   2.169 -0.0097 -0.3074 -0.1537
76889W        W19802  13.011  33.804  27.700  0.2895  0.2802 -0.2893
76890W        W19803  17.589  15.551   4.389  0.0111  0.0525  0.2885
76891W        W19804   9.466  13.533  28.622 -0.0505 -0.0200  0.0941
76892W        W19805  17.709  13.101   4.711 -0.1172  0.1646 -0.0061
76893W        W19806  12.364  12.441  29.116  0.0724 -0.5096 -0.2554
76894W        W19807  11.899  24.225   2.952  0.0284  0.2113 -0.1692
76895W        W19808  13.222  22.906   6.765 -0.1953 -0.0541 -0.0934
76896W        W19809  27.624  12.981   5.471  0.1944 -0.3005 -0.1542
76897W        W19810  10.653  27.537  24.329 -0.4098 -0.0185  0.1075
76898W        W19811  17.794  13.675  25.362 -0.2305 -0.0749 -0.0897
76899W        W19812  13.335  16.123  21.274 -0.1082  0.1256  0.0567
76900W        W19813  17.998  21.175  28.887  0.1735 -0.0888 -0.3533
76901W        W19814  17.938  23.060   8.625 -0.2685 -0.1561  0.2323
76902W        W19815  18.101  20.393  28.389  0.1019 -0.2139 -0.0004
76903W        W19816  18.025  23.992   5.355 -0.1417  0.2756 -0.0476
76904W        W19817  19.312  27.424   0.368  0.0357 -0.3977 -0.0326
76905W        W19818  17.330  24.025   3.262 -0.1273 -0.1073 -0.0140
76906W        W19819  21.551  23.468   6.038 -0.1727 -0.0995  0.0262
76907W        W19820  21.056  13.363   2.842  0.0904  0.0153 -0.3076
76908W        W19821  17.817  18.652  24.067 -0.0738  0.3533  0.0968
76909W        W19822   9.531  23.538   8.387  0.0329  0.1248  0.2073
76910W        W19823  21.101  23.450   5.811 -0.1648 -0.3195  0.2156
76911W        W19824  27.354  14.041  15.961  0.1959  0.1555 -0.1950
76912W        W19825  13.464  11.807   1.238  0.2681 -0.0240 -0.0220
76913W        W19826   3.176  25.821  23.948  0.0397  0.0206  0.0302
76914W        W19827  16.822  19.548  26.427  0.0302  0.1219  0.0177
76915W        W19828  29.642  24.676  28.195  0.3196 -0.0054 -0.5602
76916W        W19829   9.744   7.563  21.506  0.3113  0.0365  0.1500
76917W        W19830  15.913  25.782   8.593  0.0237 -0.0697 -0.2722
76918W        W19831  21.160  24.857  19.970  0.0667  0.3099 -0.2272
76919W        W19832   9.922   2.245   0.954 -0.2013  0.1352  0.1277
76920W        W19833  14.252   5.046  10.505 -0.1200  0.0975  0.3152
76921W        W19834   4.019  19.581  29.405  0.0527  0.0156 -0.0685
76922W        W19835  21.770  11.639  23.548  0.0172  0.0196 -0.1744
76923W        W19836   6.340  20.012  23.604 -0.0269 -0.0252  0.3569
76924W        W19837  25.033  25.924  28.480  0.0540 -0.2296 -0.2288
76925W        W19838  13.358  17.480  28.956  0.0559 -0.0447  0.0018
76926W        W19839  18.667  20.603  20.171  0.1255 -0.1225 -0.0298
76927W        W19840   7.679  21.278  25.987  0.0981 -0.2292 -0.0159
76928W        W19841   9.331  31.789   2.823 -0.0571 -0.0311 -0.0808
76929W        W19842  17.041  19.084  28.529 -0.3268  0.1637 -0.1760
76930W        W19843  30.465  17.353   0.963  0.1038  0.0418  0.0045
76931W        W19844  12.894  24.588   8.877  0.1050  0.0370  0.1205
76932W        W19845  16.251  23.836  25.364 -0.0403 -0.0990  0.0852
76933W        W19846  17.747  22.534   8.029  0.1118 -0.0085  0.1975
76934W        W19847  21.698   1.969   4.529  0.0987  0.3388  0.0956
76935W        W19848  15.161  20.740   2.669  0.0491  0.1863 -0.1587
76936W        W19849  17.058  20.333   1.581 -0.1066 -0.0790  0.0615
76937W        W19850  20.264  26.066  23.370  0.3155 -0.1528  0.0952
76938W        W19851  14.124  25.586  29.141 -0.1424  0.1010  0.0259
76939W        W19852   7.649  19.856   4.151  0.1467  0.2650  0.1226
76940W        W19853  20.256  20.888  28.519  0.0196 -0.0224  0.2701
76941W        W19854  19.277  28.382  18.232 -0.0144 -0.2030  0.3056
76942W        W19855   7.413  21.874  21.293 -0.1248 -0.1996 -0.1896
76943W        W19856  18.719  13.680  17.006 -0.1720 -0.1751  0.3566
76944W        W19857  13.610  13.445  15.795 -0.0000  0.1529  0.1274
76945W        W19858   0.640  34.070  22.426 -0.4388 -0.2301 -0.2617
76946W        W19859  12.756  31.141  20.570 -0.1830  0.4400  0.0334
76947W        W19860  18.855  22.477  16.490  0.3571  0.0960  0.2642
76948W        W19861  20.145  26.515  20.775  0.2059  0.0583 -0.0007
76949W        W19862  19.493   3.560  19.872  0.3040  0.1120 -0.0314
76950W        W19863   6.660  26.055  16.302  0.1794  0.0644 -0.1511
76951W        W19864  30.548  14.248  14.714 -0.0787 -0.1250  0.0556
76952W        W19865  15.303  25.630  26.123 -0.0056 -0.0464  0.1231
76953W        W19866  13.384  16.941  26.464 -0.0334  0.0354  0.2001
76954W        W19867   4.271  33.672  17.659 -0.0127  0.2889 -0.0320
76955W        W19868  19.499  24.733  27.115 -0.0046 -0.1994  0.1553
76956W        W19869  14.363  26.431  21.552 -0.1307 -0.4272 -0.0669
76957W        W19870  15.884  18.434  13.259  0.0142 -0.3010 -0.1055
76958W        W19871  23.567  29.743  17.711 -0.4076 -0.5298 -0.1570
76959W        W19872  16.982  29.943  25.780  0.1806 -0.0897 -0.1013
76960W        W19873  13.180  15.187  16.584 -0.1373  0.0330 -0.2059
76961W        W19874  14.156   9.353  19.533  0.2852  0.4155 -0.2356
76962W        W19875  11.697  27.079  22.586 -0.1607 -0.1788  0.0019
76963W        W19876  18.016  27.840  17.016 -0.0719  0.1380  0.2709
76964W        W19877   6.507  18.254  19.122  0.1541  0.1474  0.0364
76965W        W19878  21.038  25.583  19.075 -0.0568 -0.0734 -0.2274
76966W        W19879  25.267  17.131  13.633  0.3013 -0.1688 -0.0341
76967W        W19880  33.732  28.739  20.821 -0.0080 -0.0510  0.1306
76968W        W19881  14.758  25.887  14.669  0.0614  0.2135 -0.0324
76969W        W19882  12.162  32.574  16.590  0.0624 -0.2122 -0.1904
76970W        W19883  12.490  20.360  16.398 -0.0143  0.1426  0.0590
76971W        W19884   5.169  25.304  16.349 -0.2275  0.0576  0.0301
76972W        W19885  19.610  28.018  15.285  0.0477  0.0711 -0.2439
76973W        W19886  23.143  20.910  16.590  0.0066  0.1716  0.0086
76974W        W19887   4.730  16.422  18.804 -0.2348 -0.1397 -0.3785
76975W        W19888  26.292  18.857  21.195  0.3482 -0.0183 -0.2420
76976W        W19889  19.715   1.826  17.740  0.0374  0.1572  0.0791
76977W        W19890  12.902  30.908  21.409  0.1332 -0.1746 -0.1748
76978W        W19891  19.017  26.377  13.922  0.2693  0.0937 -0.1805
76979W        W19892   4.757  17.036  14.719 -0.0156  0.1789  0.0483
76980W        W19893   8.953  17.403  14.716  0.3382  0.1327  0.2201
76981W        W19894  20.851  22.729  17.222  0.0287 -0.0026  0.0112
76982W        W19895  24.453  27.770  16.566  0.0049  0.2237 -0.0537
76983W        W19896  20.309  22.593  14.378  0.1642 -0.3003  0.1582
76984W        W19897  20.022  25.304  16.578 -0.1064  0.4538  0.2512
76985W        W19898  21.017  25.777  17.763 -0.1786  0.0271  0.0673
76986W        W19899  21.980  20.134  17.053  0.0174  0.0725  0.4072
76987W        W19900  21.289  27.664  19.284  0.0911  0.0173  0.0331
76988W        W19901  19.250  15.257  14.307 -0.0044  0.0122 -0.0468
76989W        W19902   9.064  19.370  21.552  0.3444 -0.4312 -0.2781
76990W        W19903  11.171  20.281  17.698  0.0481  0.1730  0.0887
76991W        W19904  24.433  13.224  13.485  0.1467 -0.1139  0.0343
76992W        W19905  14.890  14.738  11.981  0.1026 -0.0284 -0.0706
76993W        W19906   9.738  15.367  27.813  0.1032  0.0009  0.2042
76994W        W19907  14.634  25.187  18.138 -0.1299 -0.2933 -0.1878
76995W        W19908   4.615  16.885  23.699 -0.0714 -0.1761  0.0129
76996W        W19909  21.746  24.419  24.345 -0.0706  0.1545 -0.0710
76997W        W19910  10.693  19.542  14.955 -0.0938 -0.0478  0.0488
76998W        W19911  21.524  28.363  23.950  0.2249  0.2185 -0.1265
76999W        W19912  15.970  25.259  24.409 -0.3601  0.1735 -0.3077
77000W        W19913  28.902   0.979  20.593  0.0905 -0.1796 -0.4456
77001W        W19914  17.223   1.964  20.434  0.1072 -0.2580  0.1602
77002W        W19915  13.187  27.258  15.106 -0.0596 -0.2402  0.0021
77003W        W19916   9.773  21.566  20.619 -0.0243  0.1383 -0.0258
77004W        W19917   2.497  11.617  15.701  0.2979 -0.4480  0.1068
77005W        W19918  14.089  24.627  15.393  0.1352 -0.0522 -0.0267
77006W        W19919  22.132  34.310  18.742  0.0906 -0.1541 -0.1300
77007W        W19920  15.068  21.312  19.654 -0.1598  0.0771  0.1496
77008W        W19921  19.593   8.479  19.219  0.2081  0.0542 -0.0562
77009W        W19922  13.640  25.588  19.525 -0.1629 -0.0367  0.1787
77010W        W19923  16.301  22.165  12.641  0.0263 -0.3192  0.1616
77011W        W19924   6.076  12.655  14.868 -0.1125 -0.0740  0.0535
77012W        W19925  15.807  13.246  15.523 -0.2734  0.0861  0.0991
77013W        W19926  28.314  21.495  18.776 -0.0428  0.1428  0.2940
77014W        W19927  26.052  24.633  22.900 -0.1072  0.0484 -0.3085
77015W        W19928  21.592  30.488  19.783  0.3616 -0.3268 -0.1694
77016W        W19929  11.816  18.336  15.437 -0.1446 -0.0865 -0.0283
77017W        W19930  23.910  16.987  13.836 -0.0053  0.0453  0.0832
77018W        W19931  12.933  10.118  14.605  0.0422  0.1442 -0.1723
77019W        W19932   6.541  28.296  20.438 -0.0858 -0.0300  0.3162
77020W        W19933  20.141  25.913  18.021 -0.2667  0.0942 -0.0833
77021W        W19934  23.728  26.826  15.483 -0.1189  0.0714  0.1774
77022W        W19935  21.212  26.034  22.333  0.1841 -0.0577  0.0757
77023W        W19936  16.414  15.815  13.248  0.5586 -0.2065  0.3526
77024W        W19937  14.607  32.548  24.294 -0.2548  0.0990 -0.0532
77025W        W19938  10.889  29.343  19.528 -0.0059 -0.2575  0.0544
77026W        W19939  19.010   1.596  16.089  0.4234 -0.3040 -0.2336
77027W        W19940  19.457   9.385  14.870  0.2086 -0.1390 -0.2262
77028W        W19941  28.985  22.054  17.104 -0.0618  0.1873  0.0135
77029W        W19942  15.489  27.566  20.179  0.1569  0.0603  0.1276
77030W        W19943  13.693   9.621  19.759 -0.1357  0.1978  0.0573
77031W        W19944  21.640  31.737  24.297  0.0859 -0.1515  0.1801
77032W        W19945  24.255  28.626  15.953 -0.0056  0.3356 -0.1330
77033W        W19946  14.960  28.410  15.207 -0.1572  0.1633  0.2268
77034W        W19947   8.823  24.784  16.228 -0.0611  0.3135 -0.1849
77035W        W19948  18.266  19.662  26.690  0.1933 -0.0371 -0.0022
77036W        W19949  10.470  12.996  16.227  0.0194 -0.0122 -0.1195
77037W        W19950  20.093   9.160  13.792  0.0419  0.0680  0.1190
77038W        W19951  11.865  23.788  18.321 -0.0484 -0.0187  0.4319
77039W        W19952  20.437  10.383  17.573 -0.0272 -0.0195 -0.2083
77040W        W19953  14.231  27.841  20.500 -0.1854  0.2508 -0.2082
77041W        W19954  17.033  24.217  14.234 -0.1185  0.2304 -0.1151
77042W        W19955  21.671  23.195  24.891 -0.5127  0.2436 -0.0997
77043W        W19956  15.781  23.242  14.853  0.0902  0.0114 -0.1875
77044W        W19957  21.266  26.757  16.864  0.0681 -0.0837 -0.0108
77045W        W19958  18.335  24.397  16.199 -0.1809 -0.0760  0.0481
77046W        W19959  13.933  25.059  15.281 -0.0992  0.1051  0.2135
77047W        W19960  27.265  26.847  19.410 -0.3346  0.1855  0.1876
77048W        W19961  13.251  20.851  16.746  0.1991  0.0570 -0.0083
77049W        W19962  11.001  29.043  18.475  0.1540  0.0682 -0.0743
77050W        W19963  30.451  20.343  14.415 -0.2203  0.0932  0.0351
77051W        W19964  21.148  22.220  16.217  0.0837 -0.0181  0.1810
77052W        W19965  26.745  23.206  20.345 -0.0652  0.0114  0.3485
77053W        W19966   7.589  28.187  18.546 -0.2352  0.0337 -0.0272
77054W        W19967  26.878  18.065  18.464  0.0218 -0.2068  0.5026
77055W        W19968  14.498  11.210  17.610 -0.1362  0.2833 -0.1225
77056W        W19969  21.695  19.910  17.517  0.2377  0.1116  0.2004
77057W        W19970  12.394  25.856  16.835 -0.0742  0.1471 -0.0175
77058W        W19971  24.744  14.324  17.443 -0.0740 -0.1086  0.1872
77059W        W19972   9.554  27.177  15.289 -0.0709 -0.1964 -0.0430
77060W        W19973  15.485  26.819  15.507  0.1507 -0.0383  0.0887
77061W        W19974  23.289  19.109  17.432 -0.0174  0.1123 -0.1760
77062W        W19975  14.975  27.487  20.167 -0.0432  0.0723  0.0062
77063W        W19976  10.271  17.928  17.889  0.1971  0.2223 -0.1942
77064W        W19977  22.262  21.924  12.452  0.2577 -0.1427 -0.5202
77065W        W19978  18.822  27.223  18.448  0.3417 -0.3505  0.0614
77066W        W19979  17.030  27.620  16.794 -0.1350  0.0243 -0.1797
77067W        W19980  14.237  20.454  13.175  0.2764 -0.1916  0.0210
77068W        W19981  15.103  26.465  18.857 -0.2155 -0.0654  0.0370
77069W        W19982  22.909  18.660  15.181 -0.0026 -0.0894 -0.3327
77070W        W19983  17.263  24.651  22.493 -0.1365 -0.1594  0.0917
77071W        W19984  21.219  21.832  15.790  0.0582 -0.0666 -0.0938
77072W        W19985  21.336  21.998  13.698 -0.1376  0.0043  0.0356
77073W        W19986  14.444  25.474  15.901 -0.1167  0.1511 -0.2999
77074W        W19987  18.904   9.899  15.018 -0.0055 -0.1615 -0.4219
77075W        W19988   6.146  11.050  16.975 -0.1702  0.0358 -0.2040
77076W        W19989  24.045  25.306  19.441 -0.1903  0.0469  0.0664
77077W        W19990   8.561  20.786  14.253  0.2258 -0.1184 -0.0689
77078W        W19991  20.992  10.896  15.053  0.1073  0.2167 -0.2147
77079W        W19992  16.414  24.152  19.052 -0.1004  0.2552  0.0493
77080W        W19993  15.569  31.062  16.871 -0.1969 -0.0953  0.4492
77081W        W19994  21.090  31.108  14.197  0.2912 -0.2454  0.1665
77082W        W19995   6.347  16.519  13.718 -0.0286 -0.1330 -0.0686
77083W        W19996  14.087  17.551  14.823  0.1762  0.0375 -0.1820
77084W        W19997  23.800  28.704  21.668  0.3452  0.2632  0.1271
77085W        W19998  25.644  13.955  19.978 -0.2006 -0.1728  0.1995
77086W        W19999  18.622  17.825  13.320  0.1950  0.1911 -0.2509
77087W        W20000   4.492  22.167  16.227  0.0698  0.0223  0.2476
77088W        W20001  15.394  24.359  17.691 -0.1353 -0.1233 -0.0125
77089W        W20002  21.008  18.521  12.810 -0.2074  0.4621 -0.1569
77090W        W20003   8.274  24.233  19.556  0.0681 -0.0822 -0.0598
77091W        W20004  23.770  11.028  16.188  0.2291 -0.1630 -0.1551
77092W        W20005  14.614  29.200  26.238  0.0233 -0.2568  0.3135
77093W        W20006  26.395  26.039  14.675 -0.0291 -0.0702  0.0685
77094W        W20007  10.229  24.193  17.378 -0.3469  0.0852  0.3840
77095W        W20008  16.819  31.647  25.903 -0.1729 -0.0726  0.0996
77096W        W20009  13.653  30.292  16.711 -0.1645 -0.2380 -0.3387
77097W        W20010  17.583  21.145  19.097  0.1512 -0.1433  0.0189
77098W        W20011  17.255  17.450  14.180 -0.1890  0.0106  0.1440
77099W        W20012   5.303  17.991  23.515 -0.0267 -0.0248 -0.3327
77100W        W20013  22.948  13.821  16.891  0.0456  0.0720  0.1539
77101W        W20014  24.874  28.891  18.842 -0.0482 -0.2446  0.1650
77102W        W20015  22.238  21.053  13.448 -0.1645 -0.1809 -0.0282
77103W        W20016  17.567  31.226  17.919 -0.0831  0.2459  0.0840
77104W        W20017  18.565  11.559  11.991  0.0510 -0.1008 -0.0745
77105W        W20018  14.194  20.005  13.072 -0.3749  0.4901 -0.3276
77106W        W20019  24.118  19.582  14.742  0.3286  0.1481  0.2981
77107W        W20020  26.012  13.809  23.153  0.0348  0.3668  0.0520
77108W        W20021  14.969  18.489  16.015  0.0477 -0.2459 -0.0613
77109W        W20022  20.321  33.267  20.086  0.2332 -0.0572  0.0377
77110W        W20023  15.527  22.822  14.668 -0.1310  0.0908  0.1049
77111W        W20024  26.782  25.892  21.124  0.1095  0.3915 -0.0262
77112W        W20025  11.706  11.036  16.191 -0.1154  0.3553  0.0029
77113W        W20026   8.252  14.212  18.488  0.0282 -0.0768 -0.0044
77114W        W20027  15.597  14.807  14.527 -0.2974  0.0813  0.1035
77115W        W20028   6.648  25.961  22.875  0.1051 -0.0655  0.1529
77116W        W20029  21.064  31.554  14.491 -0.0350 -0.1100 -0.2962
77117W        W20030   5.589  30.360  23.315  0.1322  0.3290  0.1298
77118W        W20031  19.942  17.700  14.294 -0.2488  0.1262 -0.0428
77119W        W20032   7.885  18.877  14.485  0.3232 -0.0357 -0.1565
77120W        W20033  14.096  13.290  16.073 -0.2474 -0.0258  0.2342
77121W        W20034  16.421  27.042  20.116 -0.0152 -0.1684  0.0504
77122W        W20035  21.885  23.079  15.795  0.1455  0.1625  0.1599
77123W        W20036  12.155  17.248  16.863 -0.0873  0.1536 -0.2246
77124W        W20037  14.008  26.453  16.966 -0.0278 -0.3878 -0.0422
77125W        W20038  20.670  24.995  14.756 -0.0048 -0.1786  0.1745
77126W        W20039  13.597  21.209  15.486  0.0438 -0.0098 -0.2184
77127W        W20040  12.082  18.542  16.584  0.0883 -0.0880 -0.0438
77128W        W20041  23.999  24.760  13.318 -0.1054  0.0374  0.3071
77129W        W20042   7.620  22.820  16.407 -0.0901 -0.2688  0.2786
77130W        W20043   6.692  15.969  14.958  0.3365  0.1414  0.0312
77131W        W20044  11.307  26.347  19.318  0.0227 -0.0842  0.1852
77132W        W20045  22.084  17.646  11.508 -0.0710  0.0697 -0.0202
77133W        W20046  18.925  28.382  22.847 -0.0914 -0.0133 -0.0694
77134W        W20047  15.419  24.089  14.964 -0.1619 -0.2413 -0.1725
77135W        W20048  21.342  25.144  13.805 -0.2079 -0.2507 -0.0433
77136W        W20049  11.881  26.647  15.796  0.1539 -0.1462  0.2047
77137W        W20050  19.001  23.623  17.681  0.0491  0.2830 -0.1749
77138W        W20051   8.837  19.763  16.345  0.1549 -0.2384  0.4531
77139W        W20052  22.062  22.649  17.966  0.2693  0.1306 -0.0063
77140W        W20053  20.265  24.734  16.022  0.1456 -0.0821 -0.1248
77141W        W20054  23.823  24.261  16.116 -0.1986  0.2299  0.1748
77142W        W20055  10.099  28.547  21.036 -0.0794 -0.0931  0.1697
77143W        W20056   1.549  19.289  19.032  0.3422 -0.0749 -0.0208
77144W        W20057   7.248  30.265  22.196 -0.3766  0.0635 -0.1495
77145W        W20058  10.507  16.067  19.289  0.1698  0.1364 -0.2842
77146W        W20059  18.488  17.223  14.693 -0.0232 -0.2940  0.1731
77147W        W20060  28.147  25.659  17.962  0.1097 -0.2518  0.0117
77148W        W20061  33.977  19.316  23.911  0.2075  0.0416 -0.0723
77149W        W20062  22.340  18.030  21.423 -0.1858 -0.0072  0.0535
77150W        W20063  15.348  31.960  16.367  0.3776 -0.0903  0.1916
77151W        W20064  24.230  16.951  19.154 -0.1895 -0.1749 -0.3099
77152W        W20065   1.496  16.238  23.928 -0.0103  0.2625 -0.1644
77153W        W20066  21.821  27.840  17.796  0.0072 -0.0017  0.0104
77154W        W20067   9.031  28.942  15.887  0.0196  0.1116 -0.1201
77155W        W20068  30.054  15.309  15.251  0.2082 -0.0296  0.2299
77156W        W20069  21.934  25.113  21.717 -0.0015  0.0424  0.1182
77157W        W20070  22.420  20.461  21.248  0.2596  0.0962 -0.1903
77158W        W20071  32.068  31.770  15.972 -0.1228 -0.0353 -0.2336
77159W        W20072  22.402  28.840  14.225 -0.0892  0.0350  0.3194
77160W        W20073  19.273  29.346  21.346  0.0488  0.1310  0.1075
77161W        W20074  26.721  19.437  15.404  0.4341  0.2911 -0.3926
77162W        W20075  19.743  20.100  12.590 -0.1302  0.0573 -0.0300
77163W        W20076  14.880  19.729  24.232 -0.3315 -0.1492 -0.3693
77164W        W20077  13.141  24.821  15.158 -0.0126 -0.0994  0.0337
77165W        W20078  12.022  26.614  17.655 -0.2599 -0.0252 -0.1147
77166W        W20079  22.660  14.857  19.912 -0.1324  0.0671 -0.1433
77167W        W20080  19.170  27.799  22.168 -0.1205  0.1588  0.1897
77168W        W20081  15.307  26.428  18.412 -0.4057  0.3124  0.0436
77169W        W20082  11.623  15.019  13.199 -0.2594 -0.0868 -0.1556
77170W        W20083  25.320  18.145  13.340 -0.1004 -0.0923 -0.2977
77171W        W20084  10.646  31.415  23.813 -0.2405 -0.2018 -0.2059
77172W        W20085  14.267  20.471  16.199 -0.0086 -0.0008 -0.0916
77173W        W20086  22.397  25.037  13.251 -0.0515  0.0532  0.2012
77174W        W20087  15.907  25.041  14.755 -0.2008  0.3902 -0.1659
77175W        W20088  30.243  25.264  16.438 -0.2120  0.0364 -0.0270
77176W        W20089  18.010  21.681  13.576 -0.3537  0.3942  0.1241
77177W        W20090  15.203  19.409  12.620 -0.1520 -0.0992  0.1481
77178W        W20091  20.049  33.611  17.385 -0.1985  0.0922 -0.2059
77179W        W20092  16.329   8.943  16.623 -0.4013  0.1187 -0.0934
77180W        W20093  17.495  24.320  16.990  0.0085  0.0933 -0.0906
77181W        W20094  20.302  33.551  23.049 -0.1906 -0.0864  0.0417
77182W        W20095   8.594  22.762  15.409 -0.1134  0.0779  0.0319
77183W        W20096  20.478  23.514  17.482  0.0171  0.2021  0.1186
77184W        W20097  12.623  28.537  21.360 -0.1736 -0.1720 -0.1059
77185W        W20098  13.376  24.825  19.124  0.0458  0.0025  0.2206
77186W        W20099  13.905  25.487  25.357  0.1221 -0.1953  0.2087
77187W        W20100  22.932  28.511  15.247  0.0174 -0.0005 -0.2752
77188W        W20101  18.919  17.456  14.437  0.1587 -0.1180 -0.0697
77189W        W20102  26.884  23.345  14.615  0.0446 -0.1779 -0.3321
77190W        W20103  24.022  20.170  21.762  0.1845 -0.1713  0.0202
77191W        W20104  23.268  24.273  12.816  0.0292  0.2168  0.1646
77192W        W20105   7.181  29.239  19.319 -0.2916  0.0588 -0.0616
77193W        W20106  21.745  29.884  14.984  0.1747  0.0081  0.1255
77194W        W20107   3.686  23.446  29.078  0.3566 -0.0079  0.3106
77195W        W20108  17.949  23.399  13.553 -0.3814  0.0430  0.0876
77196W        W20109  19.053   0.077  15.773  0.3045  0.2338 -0.0053
77197W        W20110  29.087  24.602  19.925 -0.0116 -0.0182  0.2187
77198W        W20111   9.444  23.321  18.024 -0.2453  0.0604  0.0064
77199W        W20112   7.837  20.578  19.634 -0.5589  0.0595  0.0730
77200W        W20113  12.660  29.526  16.311 -0.0739  0.2269  0.1616
77201W        W20114  22.806  20.765  20.943  0.0783  0.0404  0.4015
77202W        W20115  30.140  23.718  18.854  0.0445 -0.0294  0.3784
77203W        W20116   5.712  26.868  24.861 -0.0221  0.1016 -0.0858
77204W        W20117  28.299  31.195  18.812 -0.0643  0.1573 -0.0039
77205W        W20118   7.642   3.587  29.615  0.2537 -0.2298 -0.2483
77206W        W20119  33.072  30.402  21.061 -0.2152 -0.2115 -0.0740
77207W        W20120   3.627  27.213  19.129 -0.2322 -0.1897 -0.3561
77208W        W20121  14.878  27.624  16.358  0.0729  0.1204 -0.0864
77209W        W20122  32.310  24.779  23.863  0.1869  0.0203  0.1269
77210W        W20123  12.928  11.115  17.122  0.1361 -0.1389  0.1090
77211W        W20124  20.868  10.729  16.735 -0.1528  0.1812 -0.2838
77212W        W20125  15.826  20.385  23.397 -0.0378 -0.0398  0.1885
77213W        W20126   4.337  23.094  17.193  0.1685  0.0320 -0.0623
77214W        W20127  21.543  28.726  20.349 -0.0021 -0.2024 -0.0570
77215W        W20128  18.945  24.677  22.185 -0.2331 -0.1262 -0.0676
77216W        W20129  17.796  31.453  19.819 -0.0751 -0.1185  0.1300
77217W        W20130  12.838  24.600  24.311 -0.3847  0.4445  0.1260
77218W        W20131  17.793  29.102  17.289 -0.0662 -0.0441  0.0699
77219W        W20132  14.617  24.511  16.195 -0.1607  0.2234  0.0515
77220W        W20133  12.625  20.318  21.196  0.2247  0.3220 -0.2235
77221W        W20134  15.325  22.682  16.971  0.1249  0.3622 -0.1437
77222W        W20135  19.950  27.581  18.823 -0.0526  0.1358 -0.1665
77223W        W20136  17.632  30.646  15.000 -0.2066  0.0627 -0.0832
77224W        W20137  13.411  23.099  21.356 -0.0953  0.2764  0.2423
77225W        W20138  16.217  23.877  13.519 -0.1743 -0.1844  0.1171
77226W        W20139  17.577  22.970  13.622 -0.0984 -0.1023 -0.0801
77227W        W20140  24.699  20.759  27.895 -0.5944  0.3213 -0.0442
77228W        W20141  16.689   2.355  15.113 -0.2056 -0.1028 -0.2112
77229W        W20142  16.458  32.980  22.101  0.3906  0.2011 -0.0578
77230W        W20143  22.403  20.702  18.409 -0.2924 -0.0517 -0.0454
77231W        W20144   7.155  24.882  19.021  0.0581  0.0706 -0.2384
77232W        W20145  22.504  29.598  19.885 -0.2324 -0.4285  0.1572
77233W        W20146  15.240  26.428  13.732  0.5657 -0.1005 -0.2864
77234W        W20147  31.458  30.535  20.934  0.3698 -0.3700  0.0680
77235W        W20148  22.567  22.568  16.751  0.4762 -0.0619 -0.3483
77236W        W20149  22.097  31.212  19.826 -0.1954  0.0002 -0.1399
77237W        W20150  12.382  22.517  24.155 -0.0707 -0.1047 -0.2875
77238W        W20151  19.038  21.616  18.993  0.0610 -0.1315  0.0108
77239W        W20152  32.826  17.209  21.269  0.0332  0.3884  0.0709
77240W        W20153  17.186  31.335  20.384  0.1066  0.0088 -0.2087
77241W        W20154  21.901  23.845  12.919  0.1724  0.0811  0.0552
77242W        W20155  12.700  20.179  19.382  0.0805 -0.2634 -0.1800
77243W        W20156  14.754  22.084  17.340 -0.3076  0.1431  0.1388
77244W        W20157  12.540  19.818  13.810  0.0741 -0.3253  0.0130
77245W        W20158   7.233  25.279  17.289 -0.1451 -0.1464 -0.2270
77246W        W20159  21.251  33.325  15.724 -0.0919 -0.1177 -0.2885
77247W        W20160  24.878  25.622  20.416 -0.2168  0.0503 -0.1106
77248W        W20161  21.854  24.669  26.318  0.0409  0.0811 -0.1613
77249W        W20162  25.069  13.747  17.487  0.1717  0.2368  0.0168
77250W        W20163  21.172  23.084  22.163  0.1041 -0.0784 -0.0194
77251W        W20164   8.351  28.033  25.914  0.3117 -0.1819 -0.0328
77252W        W20165  27.656  27.282  14.055 -0.3275 -0.0342 -0.1203
77253W        W20166   4.781  20.163  15.200 -0.0457  0.0113  0.0144
77254W        W20167  21.871  21.086  21.756  0.0066  0.2178  0.1826
77255W        W20168  12.647  34.007  17.050 -0.0198 -0.1150  0.1356
77256W        W20169  24.135   5.551  21.406 -0.0182 -0.1909  0.1894
77257W        W20170  17.527  21.922  16.189  0.1425  0.1159  0.1468
77258W        W20171  11.809  24.391  17.490 -0.0706  0.1929 -0.0705
77259W        W20172  16.960  19.337  14.461  0.3859  0.3665  0.1863
77260W        W20173  18.695  24.962  15.546 -0.2579 -0.0048 -0.0174
77261W        W20174  26.594  19.260  21.038  0.0363  0.0931  0.0876
77262W        W20175  24.390  31.048  17.009  0.0228 -0.1569  0.3170
77263W        W20176   8.257   6.782  28.484  0.4880  0.0067 -0.0510
77264W        W20177  27.893   9.011  16.434 -0.0051  0.0491 -0.0461
77265W        W20178  21.187  27.379  18.343 -0.2926 -0.2170  0.0563
77266W        W20179  21.543   7.140  16.059  0.0092 -0.1839  0.3080
77267W        W20180  23.823  10.204  21.632  0.0221 -0.1751 -0.1772
77268W        W20181   9.074  23.562  18.747 -0.2235 -0.3183 -0.1729
77269W        W20182  20.000  32.473  22.051  0.2803  0.0946 -0.2095
77270W        W20183  26.526  20.897  18.657  0.1836  0.3315 -0.2587
77271W        W20184  11.495  28.016  22.537 -0.0093 -0.0014 -0.3566
77272W        W20185   5.024  22.766  17.652 -0.1873 -0.2223  0.1132
77273W        W20186  27.674  25.672  13.019  0.0019 -0.1942  0.0092
77274W        W20187  13.639  25.313  19.105 -0.1284 -0.0757 -0.0481
77275W        W20188  17.666  13.446  13.143  0.2282  0.0315 -0.1955
77276W        W20189  12.677  19.352  16.463  0.1615 -0.4221  0.1534
77277W        W20190  24.266  16.789  13.652 -0.2140  0.1519  0.0153
77278W        W20191  12.747  32.114  20.629  0.0327 -0.0594 -0.1136
77279W        W20192  20.943  28.791  17.334 -0.0280 -0.0767 -0.1273
77280W        W20193  11.432  27.352  20.156  0.1708 -0.0394 -0.2719
77281W        W20194  22.374  26.801  18.199 -0.0850 -0.0009  0.1503
77282W        W20195  14.639  20.720  23.184 -0.0552  0.1348 -0.4759
77283W        W20196  17.024  13.452  15.440  0.0659  0.0911 -0.2078
77284W        W20197  13.590  27.438  17.282  0.1665 -0.0287 -0.1004
77285W        W20198  24.896  29.446  19.885  0.0056  0.0618 -0.3555
77286W        W20199   8.889  19.924  19.988 -0.0302  0.2686  0.0405
77287W        W20200   8.772  30.083  24.133 -0.4718  0.1650 -0.0940
77288W        W20201  11.419  15.279  18.017  0.1615  0.0697 -0.2909
77289W        W20202  20.948   8.080  15.507  0.3745  0.0885  0.4489
77290W        W20203  20.263  23.385  24.447 -0.1015 -0.2030 -0.0155
77291W        W20204   6.209  17.495  25.111  0.0121  0.0988 -0.2171
77292W        W20205  25.336   1.581  15.207 -0.0207  0.0643  0.1172
77293W        W20206  14.159  18.044  14.609  0.0834 -0.2547  0.0029
77294W        W20207  14.530  27.189  18.742  0.0066 -0.1417 -0.1295
77295W        W20208  21.843  22.925  12.732 -0.0311  0.1258  0.0908
77296W        W20209  17.723  23.804  13.569  0.0740  0.1456  0.2851
77297W        W20210  21.500  19.126  17.961  0.0806  0.1934  0.2627
77298W        W20211   8.719  21.257  14.592  0.2434  0.3833  0.2309
77299W        W20212  14.909  30.966  25.354  0.1926 -0.0718  0.1022
77300W        W20213  16.964  29.879  16.590 -0.1671  0.2062 -0.0876
77301W        W20214  16.914  25.586  15.645  0.1351 -0.0422 -0.0227
77302W        W20215  20.454  22.230  14.708  0.2444 -0.1883  0.0054
77303W        W20216  22.399  19.095  12.706  0.3113  0.0621  0.0027
77304W        W20217  15.268  14.194  12.725  0.1274  0.2470  0.1084
77305W        W20218   8.649  20.012  21.981  0.2677  0.2608  0.1397
77306W        W20219  20.651  24.980  20.427  0.2811  0.0188  0.2244
77307W        W20220   5.293  31.139  19.296 -0.1262 -0.1668  0.1826
77308W        W20221  22.272  24.548  18.174 -0.2522  0.2312 -0.0809
77309W        W20222  15.721  28.583  16.974 -0.0609  0.4072  0.1807
77310W        W20223  10.418  23.251  18.343  0.3634  0.0471  0.2898
77311W        W20224   0.808  14.923  16.707  0.0875 -0.0890 -0.0222
77312W        W20225  14.201   7.735  27.424 -0.3507 -0.0961  0.0700
77313W        W20226  19.621  32.381  14.136  0.1955 -0.0127 -0.2482
77314W        W20227  24.732  22.232  17.357 -0.0809 -0.1030 -0.1902
77315W        W20228  25.763  32.582  14.802 -0.0828  0.1671  0.3673
77316W        W20229  23.415  21.673  19.005 -0.1047  0.0568 -0.1460
77317W        W20230   3.478  19.574  13.660  0.2599 -0.2573 -0.0235
77318W        W20231  14.315  20.795  20.179  0.3110 -0.3686  0.0973
77319W        W20232  16.913  19.884  12.747 -0.1697  0.0826  0.2183
77320W        W20233  14.419   9.635   1.831  0.1993 -0.1824  0.2174
77321W        W20234  28.693  23.153  17.754 -0.0252  0.1271 -0.0758
77322W        W20235  14.308  14.577  13.760  0.0601  0.3597  0.3055
77323W        W20236  20.637  23.574  16.021 -0.0239  0.1429  0.1602
77324W        W20237  24.885  30.876  13.890 -0.2088 -0.0344 -0.0674
77325W        W20238  16.779  25.154  29.327 -0.1377  0.1517  0.1513
77326W        W20239  13.776  21.141  19.528  0.1458  0.1919  0.0778
77327W        W20240  10.811  24.324  24.774 -0.1322 -0.1281 -0.1936
77328W        W20241  13.953  18.383  14.308  0.2457 -0.0352 -0.1515
77329W        W20242  13.321  23.180  19.245 -0.1216 -0.1875  0.0722
77330W        W20243  17.231  31.827  22.668  0.1089 -0.2046 -0.1593
77331W        W20244  17.342  25.378  16.698 -0.2512 -0.1515 -0.1255
77332W        W20245  19.607  23.117  13.986  0.0475  0.1210 -0.3514
77333W        W20246  15.613   6.309  19.173 -0.0672 -0.1437  0.0409
77334W        W20247  12.878  20.199  16.103  0.0337 -0.1789 -0.1141
77335W        W20248  30.144  22.840  20.227 -0.1588 -0.4431 -0.0189
77336W        W20249  13.987  16.777  16.546 -0.1621  0.0803  0.1858
77337W        W20250  15.050  31.806  18.067 -0.0175  0.2295  0.1351
77338W        W20251  24.495  24.620  18.742  0.0846  0.1537  0.0896
77339W        W20252   5.728  25.007  21.423  0.0165 -0.0516 -0.1915
77340W        W20253  23.580  20.542  12.520 -0.0696  0.0107  0.1325
77341W        W20254  14.519  18.709  16.059  0.1048  0.1606  0.0422
77342W        W20255  10.216  16.709  14.801 -0.1571 -0.0982 -0.2711
77343W        W20256  20.822  24.938  12.987 -0.0530  0.0266  0.2503
77344W        W20257   8.646  25.961  26.688 -0.1047 -0.0420  0.1115
77345W        W20258  11.419  18.030  14.810 -0.2527  0.2694  0.1326
77346W        W20259  20.253  28.565  19.890 -0.0723  0.0215 -0.2294
77347W        W20260  29.286  13.807  23.597 -0.1428  0.0783  0.0958
77348W        W20261  13.152   3.365  28.790 -0.1031 -0.2243 -0.0705
77349W        W20262   7.367  16.442  14.607  0.0993  0.1952 -0.1050
77350W        W20263  17.697  25.378  18.463  0.2871 -0.0378 -0.0700
77351W        W20264   9.869  16.201  19.244  0.4030  0.0188  0.1989
77352W        W20265  22.255  29.121  12.333 -0.2144  0.0326 -0.0753
77353W        W20266  29.888  21.003  21.613 -0.2183  0.0843  0.2918
77354W        W20267  20.648  21.452  16.541 -0.1612 -0.2207 -0.2188
77355W        W20268  23.390  32.947  17.417  0.0096 -0.3474  0.4535
77356W        W20269   5.318  24.439  23.274 -0.0209 -0.1248  0.4103
77357W        W20270   3.119  23.225   3.886 -0.4121  0.3443  0.2586
77358W        W20271  23.857  23.744  16.677  0.0884 -0.0273  0.1933
77359W        W20272  14.858  26.040  28.016 -0.0787  0.2170 -0.2809
77360W        W20273  13.538  24.779   0.226 -0.0562 -0.0339 -0.1195
77361W        W20274   4.107  17.419  23.579 -0.2415  0.0951  0.1482
77362W        W20275  15.919  26.310  14.331 -0.0781  0.0139 -0.1430
77363W        W20276  22.184  20.415  14.073 -0.0651 -0.0095 -0.1718
77364W        W20277  17.958  24.539  14.568  0.2409  0.0943 -0.0594
77365W        W20278  13.327  26.307  19.459  0.1375 -0.1178  0.1274
77366W        W20279  11.779  14.191  14.096  0.0651 -0.0249 -0.3181
77367W        W20280   4.759   2.913  19.300  0.1849  0.0801 -0.1732
77368W        W20281  21.627  20.958  23.614 -0.0032 -0.2798 -0.2182
77369W        W20282  23.873  18.678  17.797 -0.3809 -0.3110 -0.1241
77370W        W20283   4.473  15.993  26.034 -0.1632 -0.2361  0.2695
77371W        W20284  18.678  33.931  20.843  0.1183 -0.1939 -0.0642
77372W        W20285  14.099  22.078  14.372  0.2116  0.1820 -0.1470
77373W        W20286  17.305  24.283  21.495 -0.0668  0.0388 -0.2613
77374W        W20287   7.225  24.676  18.474  0.2969  0.2209 -0.1502
77375W        W20288  27.149  27.740  13.084  0.1801 -0.0480 -0.1387
77376W        W20289  11.036  27.467   2.066 -0.2646  0.3801 -0.0460
77377W        W20290  13.743  23.786  16.981 -0.0167 -0.0415 -0.1209
77378W        W20291  22.341  21.710  19.448  0.1240  0.1033  0.1833
77379W        W20292   8.396  32.304  17.005  0.0983  0.1295  0.2523
77380W        W20293  27.259  23.599  12.542  0.1411  0.2821  0.0946
77381W        W20294  13.428  27.846  17.693  0.1213  0.2489  0.1303
77382W        W20295  18.472  25.257  28.269  0.0661 -0.0368  0.1207
77383W        W20296  16.522  29.663  24.305 -0.0972 -0.2914 -0.2501
77384W        W20297  11.268  21.217  18.551 -0.1170 -0.4214  0.0938
77385W        W20298  13.780  25.091  23.754  0.1571 -0.2334  0.0365
77386W        W20299  20.562  21.549  13.350 -0.1751 -0.1188 -0.0041
77387W        W20300  34.323  28.683  16.996  0.1590  0.1281 -0.0994
77388W        W20301  13.377  33.639  22.072 -0.1033  0.2077  0.2158
77389W        W20302  19.782  24.179  13.476  0.1500 -0.3109 -0.0027
77390W        W20303  14.780  20.138  14.995  0.1022  0.1407 -0.2522
77391W        W20304  19.035  29.528  20.708  0.0445 -0.2050  0.1564
77392W        W20305  20.336  29.322  26.176  0.3340  0.1207 -0.2674
77393W        W20306   6.907  15.191  22.589  0.0639 -0.3231  0.2627
77394W        W20307  31.960  16.810  20.359  0.2056  0.5763  0.2004
77395W        W20308  11.722  18.571  21.251 -0.0436 -0.3488 -0.3516
77396W        W20309  23.705   6.844  22.538  0.2271 -0.2979 -0.2478
77397W        W20310   6.104  14.956  21.307  0.0197  0.1273 -0.1036
77398W        W20311  21.218  24.623  28.254 -0.2479  0.1794 -0.0713
77399W        W20312   7.173  20.494  22.342  0.2366  0.3134 -0.1763
77400W        W20313   9.509   2.882   3.656 -0.0280 -0.0674 -0.1418
77401W        W20314  18.362  28.606  19.760 -0.0577 -0.2827 -0.4058
77402W        W20315  19.639  19.176  14.177 -0.1501 -0.1733 -0.1153
77403W        W20316  24.365  18.005  23.534 -0.2920  0.2190 -0.1414
77404W        W20317  16.270  22.322  21.354 -0.0978  0.1145  0.2821
77405W        W20318  19.304  16.214  25.729 -0.1753  0.0978  0.0164
77406W        W20319  20.139  26.330  24.356  0.2136  0.1843 -0.1101
77407W        W20320  23.897  18.952  21.967  0.0864  0.2757  0.1356
77408W        W20321  26.754  20.748  17.112 -0.1777 -0.0800 -0.2091
77409W        W20322  11.332  17.140  17.239 -0.2595 -0.0994 -0.1249
77410W        W20323  15.135  25.365  22.114  0.1676  0.1821 -0.1106
77411W        W20324  20.217  16.018  12.994 -0.0511 -0.0518 -0.0049
77412W        W20325   1.182  17.282  27.756 -0.1126 -0.0696  0.0142
77413W        W20326  15.113  13.100  18.481 -0.3772  0.1024  0.3207
77414W        W20327  13.529  27.908  18.334 -0.1576 -0.1438 -0.0694
77415W        W20328   3.401  21.129  28.547 -0.0018 -0.3308 -0.0079
77416W        W20329  11.818  24.851  19.575 -0.1960 -0.0459  0.2343
77417W        W20330  29.767  20.161  16.276 -0.3438 -0.2148 -0.1768
77418W        W20331  22.099  28.935  18.525  0.0073 -0.1648 -0.2427
77419W        W20332   5.135  19.618  17.172 -0.1183  0.2375 -0.2833
77420W        W20333  13.212  25.985  18.222 -0.0198 -0.1287 -0.1707
77421W        W20334  15.319  32.836  22.793  0.4263  0.2145 -0.0359
77422W        W20335  15.587  10.337  24.237 -0.1783  0.0479  0.4008
77423W        W20336   5.289  23.466   3.592  0.1225 -0.4052  0.0687
77424W        W20337   4.968  32.072  17.773 -0.1724 -0.0680  0.1741
77425W        W20338  17.664  22.601  15.000  0.2810 -0.0737  0.2634
77426W        W20339  17.201  26.020  14.749 -0.0745 -0.0532 -0.0315
77427W        W20340   6.081  16.515  16.090 -0.1754  0.0764 -0.0352
77428W        W20341  14.189  10.576  16.204  0.1500  0.3027 -0.0768
77429W        W20342  16.330  25.447  16.425 -0.2907 -0.1564 -0.0999
77430W        W20343  18.137  10.990  12.662 -0.0353  0.0137 -0.2286
77431W        W20344  22.444  23.719  20.873 -0.1389 -0.0624 -0.0956
77432W        W20345   4.575  19.937   0.670 -0.1046  0.2089 -0.2792
77433W        W20346  11.413  18.026  17.112  0.1208  0.0087 -0.1402
77434W        W20347  17.966  17.232  13.803 -0.1592 -0.0876 -0.2873
77435W        W20348  13.334  26.197  23.139  0.1243  0.2159 -0.0498
77436W        W20349  18.660  25.369  15.864  0.2387  0.1211 -0.0191
77437W        W20350   9.516  18.050  14.555 -0.3540 -0.4672 -0.0308
77438W        W20351   6.935  24.043  15.665  0.1100 -0.0767 -0.2507
77439W        W20352  21.123  23.557  15.748  0.1328 -0.1214  0.0060
77440W        W20353   8.681  16.049  15.536 -0.2376  0.1772 -0.1013
77441W        W20354   2.683  17.792  19.103  0.1087 -0.2171  0.0650
77442W        W20355  21.549  24.232  24.812 -0.0535  0.1253 -0.0826
77443W        W20356  20.748   6.222  15.540 -0.0292  0.0736  0.2243
77444W        W20357  25.407  21.153  26.269 -0.0720  0.0008  0.1026
77445W        W20358  19.718  23.563  16.907 -0.3394 -0.2787  0.1910
77446W        W20359  17.171   9.254  20.319 -0.0246 -0.3150 -0.2868
77447W        W20360  23.190  19.923  14.654 -0.0148  0.0459  0.0003
77448W        W20361  10.654  31.755  18.148 -0.0979  0.1525 -0.2290
77449W        W20362  25.334  31.938  19.275  0.2037 -0.1660 -0.0271
77450W        W20363   9.336  26.279  22.235 -0.2431  0.3264  0.0937
77451W        W20364  33.685  29.633  22.682  0.1572 -0.0573 -0.3166
77452W        W20365  23.423  29.245  17.579 -0.0307  0.4377 -0.0715
77453W        W20366  14.958  21.318  12.159  0.0346  0.0960 -0.1930
77454W        W20367  20.343  20.841  20.220  0.1168 -0.0564  0.3138
77455W        W20368  23.800  29.856  26.676 -0.0288 -0.1315  0.1181
77456W        W20369  13.744  25.238  20.427  0.0415  0.1243 -0.0397
77457W        W20370  14.887  12.738  23.361 -0.1077  0.1914 -0.2257
77458W        W20371  24.434  23.824  13.546 -0.2143  0.1979 -0.1577
77459W        W20372  18.335  25.864  16.609 -0.0900  0.0604  0.3567
77460W        W20373  20.050  25.627  20.874 -0.0898 -0.2757  0.2102
77461W        W20374  21.115  15.711  16.001  0.3349 -0.0680 -0.0006
77462W        W20375  18.155  26.645  16.214  0.0446  0.1347 -0.3112
77463W        W20376  19.534  23.325  12.695 -0.0866 -0.1564 -0.2052
77464W        W20377  27.773  24.748  17.400 -0.1236 -0.0259 -0.1113
77465W        W20378  18.550  25.318  23.310 -0.0774  0.1038  0.3292
77466W        W20379  23.995  17.843  23.885 -0.0476 -0.2934 -0.3112
77467W        W20380  16.104  23.878  17.230 -0.0095  0.0312 -0.0504
77468W        W20381  20.042  15.269  15.205  0.3540 -0.4997 -0.2004
77469W        W20382  23.049   9.399  21.147 -0.1923 -0.0947  0.2084
77470W        W20383  22.278  20.583  14.928  0.2630  0.2514 -0.1947
77471W        W20384  17.378  24.190  18.822  0.2248  0.0243 -0.0004
77472W        W20385  15.925  24.728  21.866 -0.2670  0.4372  0.1203
77473W        W20386  23.213  25.036  15.014  0.0175 -0.2550  0.0192
77474W        W20387  27.506  33.673  14.684 -0.3124  0.3814 -0.1015
77475W        W20388   5.162  29.346  23.332 -0.0790 -0.1641 -0.2171
77476W        W20389  20.022  14.498  21.963  0.1104 -0.2493  0.3422
77477W        W20390  13.107   1.054  19.206 -0.2305  0.2347 -0.0836
77478W        W20391  20.924  10.460  17.699  0.2552  0.0921 -0.2259
77479W        W20392   7.837  14.327  18.992 -0.1227 -0.0178 -0.2570
77480W        W20393   9.131  21.596  14.375 -0.0598  0.0219 -0.3817
77481W        W20394  15.892  17.128  15.255 -0.2246  0.1863 -0.1906
77482W        W20395  10.178  27.748  19.295  0.0397 -0.1443 -0.0838
77483W        W20396  14.634  26.607  21.131  0.3864 -0.0233  0.0157
77484W        W20397  23.002  31.564  14.966  0.3079 -0.3149  0.1752
77485W        W20398  13.733  22.867  20.627 -0.0646  0.4002  0.2273
77486W        W20399  13.347  10.672  21.809  0.1315  0.1822  0.1989
77487W        W20400  18.230  24.659  16.601 -0.2981  0.4470 -0.2627
77488W        W20401  16.800  21.482  17.068  0.3473 -0.0084  0.1124
77489W        W20402  23.311  20.207  18.771  0.1191 -0.1369 -0.3780
77490W        W20403  13.512  10.967  13.936 -0.3177  0.3239 -0.2194
77491W        W20404  13.593  28.658   3.401 -0.4171 -0.0848  0.2813
77492W        W20405   9.263  18.029  24.541  0.1918  0.0160 -0.1010
77493W        W20406   4.346  25.497  20.308  0.4595  0.1961 -0.0018
77494W        W20407  22.287  33.962  13.067  0.1009  0.2557 -0.3541
77495W        W20408  23.964  16.874  20.706 -0.0083 -0.3795  0.1931
77496W        W20409  25.098  23.518  16.940 -0.0430 -0.1003 -0.4332
77497W        W20410  20.829  23.417  20.534  0.2336  0.2579 -0.0639
77498W        W20411  20.693  19.847  22.566 -0.1672 -0.1134  0.1170
77499W        W20412  13.058  29.986  15.020  0.2626 -0.0162  0.0015
77500W        W20413  30.047  12.746  19.250  0.0494 -0.1846  0.1213
77501W        W20414   4.032  23.417  17.996  0.0069 -0.0864  0.1504
77502W        W20415  30.523   3.276   5.060 -0.0614 -0.0008  0.1906
77503W        W20416  34.368  22.190  13.611 -0.2411  0.1523 -0.2820
77504W        W20417  15.820  25.831  26.383  0.2636  0.1085 -0.0095
77505W        W20418  14.485  23.487  23.061  0.3806  0.0260 -0.0084
77506W        W20419  21.997  23.327  21.774 -0.0463 -0.1639 -0.0274
77507W        W20420  15.448  33.712  19.509 -0.0672 -0.0251 -0.1236
77508W        W20421  16.012  21.167  17.327 -0.1533 -0.1615  0.1941
77509W        W20422  18.662  13.901  16.580  0.1047 -0.1681 -0.1907
77510W        W20423  17.164  30.792  21.829  0.1337  0.1129  0.2020
77511W        W20424  13.282  27.055  19.782 -0.1413 -0.1050  0.2601
77512W        W20425  24.763  13.922  16.398  0.0716  0.0663  0.0170
77513W        W20426  17.312  11.817  13.214  0.1403 -0.0163  0.0252
77514W        W20427  18.703  27.205  16.076 -0.0400  0.0974  0.0867
77515W        W20428  13.016  27.251  28.326 -0.3708  0.0166 -0.3437
77516W        W20429  22.726  21.783  20.298 -0.1512  0.0181  0.0597
77517W        W20430  11.256  22.810  16.386 -0.1560  0.1943 -0.0555
77518W        W20431  26.399  27.148  13.298  0.3630 -0.0298 -0.0645
77519W        W20432   9.329   8.431  18.435  0.5241  0.0691  0.2187
77520W        W20433   5.007  22.012  15.286  0.2555 -0.2763 -0.2321
77521W        W20434  11.107  31.198  16.349 -0.0058  0.1417  0.1112
77522W        W20435  20.390  27.781  20.252 -0.1672 -0.0401  0.3953
77523W        W20436  26.539  23.980  21.125  0.1460 -0.0019  0.0498
77524W        W20437  11.736  13.169  15.710 -0.0346  0.1036  0.0295
77525W        W20438  21.522  26.414  15.361  0.0816 -0.1630  0.1457
77526W        W20439   5.901  27.012  23.156  0.1897 -0.2103 -0.0857
77527W        W20440  28.947  26.468  18.131  0.1347 -0.1676  0.1711
77528W        W20441  21.226  19.310  26.488  0.0915  0.0255 -0.0295
77529W        W20442  29.783  26.220  17.442 -0.2081 -0.1159  0.4505
77530W        W20443  13.273  27.848  21.024 -0.1225 -0.0610 -0.0333
77531W        W20444  23.966  27.995  29.645 -0.1060 -0.1015 -0.1317
77532W        W20445  18.252  27.255  20.982 -0.2286  0.0102 -0.0629
77533W        W20446  12.908  31.171  22.129  0.3808 -0.0212 -0.0403
77534W        W20447   7.080  15.379  20.070 -0.0886 -0.1206 -0.1686
77535W        W20448  22.856  25.774  18.040 -0.0688  0.1043 -0.3144
77536W        W20449  28.528  28.455  18.165 -0.0336  0.4517 -0.0455
77537W        W20450  21.037  13.371  22.419  0.0234  0.0964 -0.4489
77538W        W20451  15.446  25.477  16.849 -0.2148 -0.0747  0.2273
77539W        W20452  15.749  21.363  12.786 -0.0550  0.1009 -0.1251
77540W        W20453  12.454  21.020  16.215 -0.1380 -0.1719 -0.0469
77541W        W20454  23.516  24.616  14.162 -0.1186  0.3639  0.3175
77542W        W20455   4.136  21.955  15.634  0.0194 -0.0542  0.0407
77543W        W20456  14.404  24.368  23.301 -0.1561 -0.1043  0.1148
77544W        W20457  22.877  29.120  16.140 -0.1407  0.4546  0.0104
77545W        W20458  17.114   0.484  19.309  0.1194  0.2167  0.2005
77546W        W20459  12.189  27.230  26.940  0.2131 -0.0409 -0.0483
77547W        W20460   6.239  30.117  15.698 -0.1329 -0.0402 -0.1172
77548W        W20461  21.990  25.216  26.060  0.3595 -0.0889 -0.1559
77549W        W20462  12.630  21.112  19.142  0.3504 -0.3891 -0.0725
77550W        W20463   8.460  24.585  15.902  0.0762  0.1401 -0.0320
77551W        W20464  15.255  22.791  23.555 -0.0573 -0.0320  0.0325
77552W        W20465  10.492  21.607  20.016  0.0891 -0.2320  0.2242
77553W        W20466  19.655  29.870  26.212  0.1359 -0.0044  0.0064
77554W        W20467  13.641  13.274  14.741 -0.0915 -0.0908 -0.1881
77555W        W20468  19.320  30.343  14.761  0.2448  0.1382  0.1351
77556W        W20469   7.027  18.093  22.825  0.0802 -0.1830  0.1858
77557W        W20470  26.661  25.126  16.006 -0.1583  0.2259 -0.1161
77558W        W20471   1.082  30.068  18.514  0.1021 -0.2276  0.1300
77559W        W20472  15.728  29.627  15.461 -0.3169 -0.1225 -0.2870
77560W        W20473  18.699  13.600  14.868  0.1245 -0.0988  0.1758
77561W        W20474  18.797  22.208  15.600 -0.1769  0.2072 -0.0225
77562W        W20475  25.803  29.550  17.269 -0.1125 -0.3092 -0.3628
77563W        W20476   4.920  24.278  16.530  0.0503 -0.0796  0.1196
77564W        W20477  22.748  23.028  18.936 -0.4335  0.1210 -0.1052
77565W        W20478  21.953  26.682  15.348 -0.0375 -0.0718  0.1536
77566W        W20479  25.167  24.465  15.561 -0.1472 -0.2810  0.0030
77567W        W20480  20.460  20.446  14.011 -0.0540 -0.2832  0.0803
77568W        W20481   5.524  21.384  18.412 -0.2421 -0.0995 -0.3045
77569W        W20482  19.707  26.974  21.317 -0.4008 -0.2527 -0.0406
77570W        W20483  26.076  25.880  19.715  0.0006 -0.0474 -0.0936
77571W        W20484  14.747  24.351  21.212  0.1512  0.0619 -0.0510
77572W        W20485  17.450  25.314  14.703 -0.0033 -0.0597 -0.1326
77573W        W20486  18.990  15.502  12.960 -0.0050 -0.1238 -0.2498
77574W        W20487  10.876  25.778  27.166  0.1400 -0.0355  0.2673
77575W        W20488  30.034  24.281  26.521  0.3320  0.0791 -0.0786
77576W        W20489  14.156  14.539  16.437  0.0719 -0.0030  0.1969
77577W        W20490   8.636  33.044  28.556  0.2764  0.1006 -0.0363
77578W        W20491  17.724  11.469  13.418  0.0280  0.0895  0.0336
77579W        W20492   9.800  30.762  21.060  0.1892 -0.0630  0.0149
77580W        W20493  17.900  26.611  21.583  0.0761  0.2264 -0.5353
77581W        W20494   9.423  20.862  18.614  0.2289 -0.2867 -0.1058
77582W        W20495  22.264  13.835  14.201 -0.1173  0.0294 -0.4199
77583W        W20496   9.550   8.328  16.808  0.0557  0.1849 -0.3301
77584W        W20497  14.564  26.533  15.432  0.1057 -0.2058 -0.2969
77585W        W20498  12.159  23.975  17.449 -0.0631 -0.1167 -0.2530
77586W        W20499  25.608  25.064  20.877 -0.1252  0.0783 -0.1137
77587W        W20500  14.010  26.007  18.547  0.1490 -0.1164 -0.1550
77588W        W20501  14.168  31.678  27.601 -0.0828  0.2104  0.1458
77589W        W20502  33.967  27.218   1.607  0.1153 -0.4118  0.3986
77590W        W20503  22.582  17.541  13.947  0.0551  0.2947 -0.3090
77591W        W20504  16.932  28.462  16.441 -0.3073  0.3137  0.1230
77592W        W20505   6.712  16.595  15.209 -0.2779  0.1050 -0.1804
77593W        W20506  20.304  19.247  15.969  0.0540  0.1137 -0.0181
77594W        W20507  17.657  23.937  19.231  0.0726 -0.3316  0.1170
77595W        W20508  19.867  30.639  17.783 -0.0886 -0.0548 -0.2526
77596W        W20509  22.370  27.581  13.280 -0.0784  0.1075 -0.3936
77597W        W20510   4.034  20.573  19.331  0.1541 -0.2501 -0.1194
77598W        W20511  14.323  21.116  22.174 -0.1129 -0.0331  0.0822
77599W        W20512   2.970  13.191  16.382  0.1075 -0.2492  0.0845
77600W        W20513  21.304  16.404  13.048  0.1732 -0.2616 -0.2357
77601W        W20514  34.379  29.839  26.287 -0.1036  0.1420 -0.0793
77602W        W20515   2.018  30.704  16.029  0.2098 -0.1597  0.1375
77603W        W20516  25.294   3.439  15.818 -0.0692 -0.1576  0.1255
77604W        W20517  22.856   0.767  15.411  0.0667 -0.0556 -0.1271
77605W        W20518  29.283  21.109  22.725 -0.2640  0.3755 -0.0064
77606W        W20519  19.490  22.194  19.598 -0.2689  0.3722  0.3285
77607W        W20520  34.351  32.922   0.810  0.2972  0.1552 -0.3605
77608W        W20521  29.624  22.986  14.781 -0.0183  0.0833  0.4217
77609W        W20522   8.785  15.466  20.702 -0.1739  0.0648 -0.0866
77610W        W20523  28.895  22.255  13.719 -0.0762 -0.0594  0.0524
77611W        W20524  28.266  25.231  16.930  0.2895 -0.2084  0.3026
77612W        W20525  22.194  24.114  16.766  0.2851 -0.4432  0.0474
77613W        W20526   3.539  28.810  17.266 -0.2804 -0.0338  0.0915
77614W        W20527  10.222  29.038  21.106 -0.0611  0.0673 -0.0680
77615W        W20528  12.031  25.983  24.755  0.2379 -0.1141 -0.0856
77616W        W20529  16.032  22.779  14.733 -0.0404 -0.2172  0.1766
77617W        W20530  12.172  18.571  13.417 -0.1390  0.2556 -0.0850
77618W        W20531  21.062  26.772  22.554 -0.1522 -0.0127 -0.2598
77619W        W20532   0.867  22.423  19.953 -0.1218  0.0835  0.1097
77620W        W20533  21.606  25.466  13.372  0.0821 -0.0093 -0.0123
77621W        W20534  23.811  34.143  18.742  0.1703 -0.1526  0.2333
77622W        W20535  23.470  13.414  13.255  0.2416  0.0615  0.0442
77623W        W20536  15.408  28.053  14.463  0.3422  0.1695  0.0847
77624W        W20537  20.869  24.082  16.751  0.1743 -0.0361  0.1094
77625W        W20538   8.105  19.501  15.132 -0.0933  0.0025  0.0238
77626W        W20539  20.557  27.641  21.556 -0.1311  0.1976  0.1343
77627W        W20540  13.528  26.250  28.746 -0.1443  0.1902  0.0583
77628W        W20541   9.012  28.611  16.848 -0.2320  0.1560  0.1469
77629W        W20542  30.384  28.575  13.715  0.0157  0.0300 -0.0949
77630W        W20543  28.240  11.542  16.522  0.2114 -0.0997  0.1256
77631W        W20544  11.203  22.012  25.293 -0.3168 -0.1445  0.3040
77632W        W20545  17.781  24.746  20.613  0.0966 -0.1023 -0.0991
77633W        W20546  19.619  18.453  14.565 -0.0365 -0.1345 -0.0923
77634W        W20547  23.815  19.243  13.951 -0.0628 -0.1376  0.0805
77635W        W20548  23.157  18.089  15.430  0.1030  0.0104  0.1053
77636W        W20549  19.268  29.551  15.832 -0.0683  0.2158  0.0901
77637W        W20550  18.869  21.923  17.575  0.0677  0.1415  0.5999
77638W        W20551  26.521  32.997  21.359  0.2056 -0.1847 -0.0645
77639W        W20552  11.003  27.459  28.802 -0.2032  0.0295 -0.1210
77640W        W20553  21.436  30.213  16.336 -0.2116  0.0159  0.1712
77641W        W20554  11.342  18.653  21.575 -0.4147  0.1889  0.0897
77642W        W20555   9.949  13.764  18.750 -0.0346 -0.0435  0.0398
77643W        W20556  16.982  31.150  26.020  0.0566  0.2099  0.1020
77644W        W20557  23.661  24.564  26.239  0.0728 -0.1713  0.1442
77645W        W20558  15.855  20.748  17.658  0.2228 -0.2359  0.0838
77646W        W20559  10.003  23.775  22.800  0.0986 -0.0688 -0.1188
77647W        W20560  10.566  28.964  22.973  0.0809  0.0275  0.5155
77648W        W20561  12.482  27.215  27.351  0.1398  0.1955  0.1276
77649W        W20562  20.880  23.128  17.544  0.1753 -0.0287 -0.2981
77650W        W20563  25.887  21.861  23.605 -0.1966 -0.1258 -0.4001
77651W        W20564  31.193  30.059  14.718  0.0679 -0.1027 -0.0035
77652W        W20565  13.235  30.523  17.883 -0.0444  0.0460 -0.0579
77653W        W20566   7.720  28.315  15.676  0.3537 -0.1783  0.1207
77654W        W20567  27.537  19.976  23.819 -0.1249 -0.2642  0.1453
77655W        W20568  12.304  19.826  17.257 -0.0975 -0.2389 -0.3276
77656W        W20569  20.004  22.197  17.273  0.1399 -0.1846  0.1415
77657W        W20570   8.280  22.064  18.998  0.0648  0.1482 -0.0329
77658W        W20571  23.350  20.991  15.528 -0.1027 -0.0935 -0.0249
77659W        W20572  21.539  12.988  17.795 -0.0588  0.0094 -0.4203
77660W        W20573  20.226  24.613  12.397 -0.1179  0.0779  0.0702
77661W        W20574  23.659   0.520  19.445  0.1649 -0.0423 -0.0494
77662W        W20575  23.714  33.246  16.116  0.1136 -0.0125  0.1524
77663W        W20576   8.320  22.550  18.814 -0.4187  0.2218  0.0883
77664W        W20577   0.618  18.751  29.174  0.0784  0.1856 -0.0726
77665W        W20578  17.423  17.522  12.700 -0.0404  0.1498  0.2897
77666W        W20579  25.275  24.244  23.022  0.1101 -0.1166 -0.1904
77667W        W20580  19.462  27.650  15.824  0.0334 -0.0611 -0.0560
77668W        W20581  12.940  27.998  23.286  0.0445 -0.1297 -0.0050
77669W        W20582   9.143  24.885  14.871  0.2332 -0.1907 -0.0786
77670W        W20583  24.376  21.307  18.689 -0.0921 -0.1682 -0.0005
77671W        W20584  21.867  26.981  14.030  0.3866 -0.1761 -0.3866
77672W        W20585  15.358  28.977  22.820 -0.2540 -0.6335 -0.0742
77673W        W20586  13.723  24.960  28.659 -0.3503 -0.2568 -0.2496
77674W        W20587  19.768  19.751  26.859 -0.1014  0.1795 -0.0384
77675W        W20588   8.598  26.625  21.651  0.3104 -0.3078  0.0968
77676W        W20589  20.127  25.490  17.619 -0.2551  0.2780  0.2314
77677W        W20590  12.536  28.698  24.868 -0.1415  0.0541 -0.0055
77678W        W20591  21.836  19.225  20.798 -0.0482  0.1475  0.0692
77679W        W20592   8.860  29.045  16.363  0.0584 -0.0733 -0.0162
77680W        W20593  27.651  20.346  25.434  0.3438 -0.0014 -0.2723
77681W        W20594  16.430  28.845  14.898  0.2402  0.1484 -0.1658
77682W        W20595  22.458  13.644  17.446  0.0981 -0.2426 -0.1241
77683W        W20596  14.258  22.663  14.941 -0.0245 -0.1282 -0.0930
77684W        W20597  23.974  11.815  12.823 -0.0477 -0.1903  0.0114
77685W        W20598  22.405  16.449  14.605 -0.0654  0.1675 -0.2344
77686W        W20599  25.109  32.928  18.425 -0.0174  0.3403  0.2668
77687W        W20600   8.823  23.224  21.393  0.1447  0.0260 -0.1345
77688W        W20601   7.266  23.300  20.589  0.3469 -0.1378 -0.0928
77689W        W20602   8.548  16.289  23.273 -0.0130  0.0601 -0.0499
77690W        W20603  19.107  22.445  19.947 -0.3712  0.0862  0.1754
77691W        W20604   8.520  22.164  17.165 -0.2326 -0.0602 -0.1085
77692W        W20605  13.871  27.849  17.483  0.0903 -0.0436 -0.1052
77693W        W20606  12.217  19.767  15.897  0.1002 -0.2219  0.0136
77694W        W20607   8.617  16.448  16.569 -0.0299  0.0118 -0.1258
77695W        W20608  19.461  25.171  21.699 -0.5219 -0.1781 -0.1340
77696W        W20609  31.559  19.965  18.187 -0.3611 -0.3717 -0.1688
77697W        W20610  18.748  23.864  13.648  0.0405 -0.3738  0.4261
77698W        W20611  28.037  33.657  21.027 -0.1401 -0.1757 -0.0097
77699W        W20612  17.778  26.657  17.006  0.1764  0.0203  0.0981
77700W        W20613  25.468  28.786  17.243 -0.1045  0.0702 -0.5360
77701W        W20614  20.968  25.498  16.953  0.1913  0.0128  0.0612
77702W        W20615  17.430  21.427  17.865 -0.0832  0.1022 -0.0103
77703W        W20616  12.377  24.678  24.600  0.1206 -0.1345 -0.0800
77704W        W20617   9.016  21.493  15.450  0.1470  0.0874 -0.0899
77705W        W20618  11.990  20.227  15.565 -0.4813  0.2323 -0.1825
77706W        W20619  17.273  26.328  15.203  0.3490  0.0462  0.0180
77707W        W20620  19.670  30.618  15.685  0.0298 -0.0604  0.3096
77708W        W20621  25.149  32.810  29.480  0.4422 -0.0718 -0.1046
77709W        W20622  23.938  28.091  19.640 -0.0410 -0.4332 -0.1285
77710W        W20623  13.505  21.542  13.711 -0.2516 -0.0284 -0.1310
77711W        W20624  16.028  26.246  21.820 -0.0059 -0.3907  0.0810
77712W        W20625  18.033  24.547  14.019  0.1536  0.1203  0.2368
77713W        W20626  23.485  28.299  19.472  0.0007 -0.1360  0.4463
77714W        W20627  20.101  16.012  25.692  0.1565 -0.1080 -0.3755
77715W        W20628  20.635  21.391  27.407 -0.0197 -0.1253  0.3947
77716W        W20629   4.280  28.393  23.507 -0.0147 -0.1572  0.3179
77717W        W20630  20.767  28.967  15.540 -0.0173  0.0174 -0.0402
77718W        W20631  24.478  32.942  16.176 -0.1299 -0.1201  0.0165
77719W        W20632  14.510  26.766  24.312  0.2640  0.2254 -0.2883
77720W        W20633  21.963  22.695  13.797  0.0556  0.0398  0.0770
77721W        W20634  14.009  29.354  16.717  0.2010 -0.0319 -0.0034
77722W        W20635  14.991  21.924  25.269  0.0093  0.0392  0.0304
77723W        W20636  13.484   0.258  19.625  0.2161 -0.2711 -0.3622
77724W        W20637  15.226  28.762   2.519  0.2035  0.2310  0.0346
77725W        W20638  18.588  25.456  26.371  0.1629 -0.0232  0.1146
77726W        W20639  19.106  27.884  19.120  0.3474  0.1222  0.1192
77727W        W20640  18.367  26.372  15.268  0.0764 -0.1351  0.2806
77728W        W20641   9.814  26.821  26.556 -0.1469  0.0875 -0.1085
77729W        W20642   8.601  18.761   5.381  0.1728  0.0530  0.0729
77730W        W20643  18.700  27.982  21.358  0.3467  0.0862 -0.0469
77731W        W20644  14.476  28.015  21.398 -0.1816 -0.0200 -0.0783
77732W        W20645   8.138  21.282  17.258  0.2413  0.0219  0.2227
77733W        W20646  12.907  25.625  15.820 -0.4088 -0.0632 -0.4529
77734W        W20647  23.543  18.763  21.688  0.1320 -0.0363  0.0246
77735W        W20648  13.634  26.757  22.124  0.0759 -0.0151  0.2373
77736W        W20649  12.544  30.580  19.537  0.0799 -0.1112  0.1739
77737W        W20650  20.921  23.771  23.797  0.1279  0.1349 -0.1040
77738W        W20651   6.457  19.257  14.453 -0.1353 -0.0579 -0.1193
77739W        W20652  12.534  13.918   1.380  0.0114  0.1626 -0.1012
77740W        W20653  23.451  22.538  17.212  0.2534 -0.0923  0.0077
77741W        W20654   3.687  19.406  28.904 -0.3065 -0.1895  0.1225
77742W        W20655   6.730  28.160  19.238  0.0324  0.3994  0.2105
77743W        W20656  24.985  34.240  17.306 -0.0151 -0.1805 -0.1910
77744W        W20657  26.343  14.086  20.982 -0.0376  0.1421  0.0490
77745W        W20658  12.619  18.765  24.284  0.1920 -0.0006 -0.3274
77746W        W20659  19.364  24.134  15.655  0.2843  0.1619  0.1117
77747W        W20660  15.106  18.263  15.498  0.0559  0.2053 -0.1158
77748W        W20661  23.111  15.583  15.110 -0.0801  0.0273  0.2122
77749W        W20662  10.440  29.983  20.928 -0.1363  0.0123  0.0745
77750W        W20663  14.976  30.071  19.279  0.1974  0.2978  0.3556
77751W        W20664  24.018  23.757  22.844 -0.0067 -0.0478 -0.2689
77752W        W20665  16.034  25.474  15.049 -0.1552  0.0470 -0.0279
77753W        W20666  17.378  20.813  25.308 -0.2610  0.0450  0.1551
77754W        W20667  19.909  32.707  25.990 -0.0337  0.1214 -0.2100
77755W        W20668  18.225  23.396  25.174  0.2490 -0.0445  0.2449
77756W        W20669   9.596  13.926  20.656  0.3181  0.0682 -0.0130
77757W        W20670  15.663  31.060  23.936  0.0625 -0.1130 -0.0883
77758W        W20671  10.408  32.179  18.312  0.4544 -0.1960 -0.1122
77759W        W20672  15.942  19.671  24.278  0.1777  0.0221  0.0288
77760W        W20673  11.121  20.884  22.718  0.0580 -0.0694  0.2127
77761W        W20674  21.083  25.475  22.917  0.2908 -0.2219 -0.0704
77762W        W20675  29.650  14.903  19.634  0.0577  0.5374  0.0472
77763W        W20676  20.438  18.070  14.970  0.0684 -0.1307 -0.2980
77764W        W20677  20.647  19.142   2.251 -0.2107 -0.1242  0.0122
77765W        W20678  18.874  13.655  15.741 -0.2917 -0.1280  0.3026
77766W        W20679   3.729  19.586  24.472 -0.0897  0.1498  0.3286
77767W        W20680  13.530  21.702  15.581  0.3110  0.0095  0.0526
77768W        W20681  17.479  27.694  18.523 -0.1432  0.3721  0.3823
77769W        W20682  20.739  22.566  23.330  0.2616 -0.0595  0.1873
77770W        W20683  10.572  23.551  19.436 -0.0597 -0.1342 -0.1447
77771W        W20684  20.318  26.506  26.130 -0.2416 -0.0611 -0.0267
77772W        W20685  11.001  32.683  20.462  0.1402  0.2053 -0.0098
77773W        W20686  20.932  22.157  23.604 -0.3883 -0.1227 -0.0478
77774W        W20687  13.924  27.378   1.024  0.1025  0.0096  0.1833
77775W        W20688  24.999  26.004   0.137 -0.1513  0.0126 -0.0270
77776W        W20689  13.707  18.943  29.464  0.3401 -0.0494  0.1875
77777W        W20690  22.391  17.361  13.527  0.2353  0.1371 -0.2980
77778W        W20691  17.790  21.494  24.817  0.3040  0.0564 -0.0599
77779W        W20692  13.083  26.231  21.419  0.2118 -0.0953  0.0527
77780W        W20693  22.970  20.798  23.740  0.0186 -0.1920  0.0700
77781W        W20694  20.126  10.583  15.078 -0.2630  0.2128 -0.1010
77782W        W20695  15.669  24.252  18.623  0.1624  0.2120 -0.1064
77783W        W20696  20.644  18.066   4.859 -0.0313  0.3222  0.0233
77784W        W20697   7.675  15.675  29.745 -0.0044  0.2611  0.2367
77785W        W20698  21.708  18.511  13.024  0.1039  0.0177  0.2975
77786W        W20699   6.852  17.344   3.126 -0.0955  0.0396  0.5289
77787W        W20700  11.172  17.368  16.224 -0.1062 -0.0282 -0.1489
77788W        W20701  20.114  12.576  14.966 -0.2243 -0.2397  0.0496
77789W        W20702  21.648  25.408  16.724 -0.1312  0.2703  0.1203
77790W        W20703  33.535  26.865  15.123 -0.0522 -0.3630 -0.4105
77791W        W20704  13.651  30.546  17.473 -0.2085 -0.0740 -0.2476
77792W        W20705  14.673  18.486  24.813  0.1770  0.3356 -0.2812
77793W        W20706  19.712  28.568  15.609 -0.0590 -0.1560 -0.1356
77794W        W20707  24.847   4.566  18.786  0.1647  0.0452 -0.1434
77795W        W20708  13.739  17.993  15.647 -0.0341 -0.1641  0.0752
77796W        W20709  17.908  24.610  16.190  0.1338 -0.0054  0.0452
77797W        W20710  21.921  22.650  15.105  0.0700  0.0405 -0.2078
77798W        W20711  17.904  13.180  16.716  0.1273  0.1439  0.0747
77799W        W20712   4.401  18.248  19.916 -0.3542  0.0522  0.0506
77800W        W20713  22.955  29.153  15.184 -0.1875 -0.0835  0.2851
77801W        W20714  10.544  30.927  28.139 -0.0862 -0.1342  0.0426
77802W        W20715  28.902  17.890  16.427 -0.0191  0.0220 -0.2249
77803W        W20716  19.562  24.850  24.427 -0.3252  0.0722 -0.0533
77804W        W20717  12.547  17.827   2.792 -0.1701  0.3458  0.3284
77805W        W20718   9.827  18.955  25.952 -0.1248 -0.3701 -0.0325
77806W        W20719  24.250  20.730  28.157 -0.1809 -0.0067  0.2344
77807W        W20720  12.694  21.905  16.303  0.1121 -0.0809 -0.3751
77808W        W20721  10.471  24.616  14.833 -0.2703  0.3008  0.0604
77809W        W20722   6.974  18.822  15.278 -0.1455  0.3067 -0.1354
77810W        W20723  27.427  15.544  15.608  0.0094  0.1464 -0.0860
77811W        W20724  11.974  34.222   1.943  0.0585  0.1705  0.1834
77812W        W20725   9.187  14.029  23.618 -0.3268 -0.0268 -0.1762
77813W        W20726  24.121  14.785  25.234 -0.0808 -0.0853 -0.0815
77814W        W20727  16.563  21.706  21.785  0.0422  0.1939  0.2593
77815W        W20728  20.461  32.906  14.556 -0.0181  0.0408 -0.2369
77816W        W20729  20.664  22.692  21.884  0.0827 -0.2391 -0.1375
77817W        W20730  11.834  28.419   1.771  0.2587 -0.0682  0.0205
77818W        W20731  17.037  28.297  28.151 -0.0409  0.0955 -0.1971
77819W        W20732  12.291   8.506  19.352  0.0426  0.3885  0.0092
77820W        W20733  16.954  20.409  29.448  0.0997  0.1516 -0.7045
77821W        W20734   4.686  20.587  22.016  0.0133 -0.1071 -0.1001
77822W        W20735  11.140  18.133  21.708 -0.2930  0.0388 -0.0161
77823W        W20736   9.675  21.140  21.610  0.3954 -0.0145  0.0363
77824W        W20737   7.602  21.731  24.599 -0.1059  0.0537  0.3282
77825W        W20738  25.307  31.421  20.788 -0.0668  0.0384  0.0055
77826W        W20739  10.449  17.375  23.476  0.0521 -0.0918  0.1496
77827W        W20740  14.244  14.878  23.103  0.0113 -0.2650 -0.3194
77828W        W20741  13.363  19.397  16.033 -0.2622 -0.1428  0.1101
77829W        W20742   2.518  31.227  18.975 -0.0922 -0.0644  0.0003
77830W        W20743  21.016  19.784  21.304  0.3476 -0.1935  0.0955
77831W        W20744  19.077  23.629  19.127 -0.1143  0.1417  0.2527
77832W        W20745  19.358  24.824  28.553 -0.1707  0.0417 -0.2027
77833W        W20746  16.861  28.270  17.408  0.2128 -0.1954 -0.0964
77834W        W20747  12.710  10.688  17.187  0.0924  0.0557 -0.0196
77835W        W20748   8.941  17.894  19.372  0.0963 -0.1788 -0.1504
77836W        W20749  12.835  28.260  23.715  0.0076 -0.1506  0.0067
77837W        W20750  22.588  23.205   1.481 -0.2774  0.0577 -0.0494
77838W        W20751  13.228  23.844  22.466 -0.0596  0.2603  0.0319
77839W        W20752  17.062  28.496  20.082  0.2997  0.3356 -0.2588
77840W        W20753  27.556  21.422  18.032  0.0322  0.0551 -0.1094
77841W        W20754   4.554  27.129  27.935  0.0140 -0.1153  0.1756
77842W        W20755  20.164  28.700  29.445 -0.1981 -0.2104  0.0352
77843W        W20756   8.345  24.776  18.766 -0.0793  0.0474  0.0145
77844W        W20757  21.838  19.858  16.572 -0.1874 -0.2296 -0.2089
77845W        W20758  21.765  25.955  15.254 -0.0963  0.1874  0.0106
77846W        W20759  11.389  24.348  28.654 -0.1804  0.0720  0.1341
77847W        W20760  13.092  30.173  24.288 -0.1339  0.3291  0.0730
77848W        W20761  24.775  33.416  20.617  0.0268 -0.1603  0.2130
77849W        W20762   8.342  21.538  29.601 -0.0171 -0.1390 -0.0375
77850W        W20763  12.920  32.971  20.653 -0.0020  0.1091  0.1140
77851W        W20764  22.952  22.935   3.742  0.2578 -0.1473 -0.4201
77852W        W20765  24.730  28.397  18.697 -0.1976  0.2850 -0.0534
77853W        W20766   4.714  23.201  29.718 -0.0369  0.0547  0.0177
77854W        W20767  16.992  26.394  29.420  0.0481 -0.1308  0.1618
77855W        W20768   4.496  22.939  17.713 -0.3648  0.2700 -0.1099
77856W        W20769  16.260  24.449  17.935  0.1651 -0.1662 -0.1348
77857W        W20770  14.657  22.911  21.690 -0.0494 -0.1303 -0.1862
77858W        W20771  19.773  28.374  22.604  0.0373 -0.0120  0.1596
77859W        W20772  12.751  24.740  16.595  0.0909 -0.2251  0.3743
77860W        W20773  32.905  16.884  21.639 -0.0340 -0.2339  0.2421
77861W        W20774   4.031  24.384  21.712 -0.1364  0.1026  0.1522
77862W        W20775  26.193  21.702  18.519 -0.0942 -0.0184  0.3871
77863W        W20776  20.167  26.729  13.296 -0.1072 -0.0602  0.1794
77864W        W20777   6.862  17.192  23.880 -0.1045 -0.0097 -0.0902
77865W        W20778  17.695  22.560  23.187 -0.2019 -0.1988 -0.1386
77866W        W20779  12.718  23.554  14.767 -0.1907  0.0549  0.2137
77867W        W20780  10.249  28.202  26.836 -0.0257  0.3134  0.2437
77868W        W20781  31.229  25.825  16.484  0.0665  0.2112  0.1011
77869W        W20782  21.467  23.042   2.963 -0.0468 -0.0790 -0.2136
77870W        W20783  18.269  23.235  29.686  0.1774  0.1794  0.1526
77871W        W20784  24.470  20.265  23.224 -0.2293  0.1181  0.1831
77872W        W20785  20.653  23.766  22.014 -0.0669  0.1672  0.1749
77873W        W20786  18.048  24.368  28.514  0.1625  0.0491 -0.1179
77874W        W20787  24.251  22.179  13.553 -0.2744 -0.0372 -0.0733
77875W        W20788  21.925  31.794  15.853 -0.0960 -0.1695 -0.2166
77876W        W20789  21.065  23.593  16.721  0.2541  0.1147 -0.1409
77877W        W20790  19.644   1.334  27.995 -0.1382  0.1673 -0.2637
77878W        W20791  34.427  19.019  22.762 -0.2009 -0.3052  0.0918
77879W        W20792  13.747  20.048  22.793  0.2324  0.1004  0.3918
77880W        W20793  17.145   5.150   1.256 -0.2043  0.0483 -0.3046
77881W        W20794  22.936  25.505  25.303 -0.1620  0.0536 -0.2142
77882W        W20795  34.116  22.258  20.198 -0.2026 -0.4377  0.3207
77883W        W20796  14.741  15.975  14.012 -0.2564 -0.1077 -0.0180
77884W        W20797  16.262  21.545  18.136 -0.0406 -0.1683  0.0139
77885W        W20798  22.448  15.464  16.743 -0.0664  0.2648  0.0368
77886W        W20799  22.205  20.557  16.035 -0.0760  0.1456  0.1703
77887W        W20800  18.616  23.332  17.613  0.1375  0.3489  0.0004
77888W        W20801  23.634   2.693  21.034 -0.0528  0.0313  0.0482
77889W        W20802  22.467  21.983  17.392  0.1042 -0.3350 -0.0442
77890W        W20803  10.481  25.395  16.240 -0.0853  0.0457  0.0286
77891W        W20804  15.277  14.031  24.287 -0.5702 -0.0389 -0.0454
77892W        W20805  24.671  30.891  22.603  0.0706 -0.4739  0.0434
77893W        W20806   6.422  19.134   7.048  0.1369 -0.0672 -0.4735
77894W        W20807   9.612  22.104   3.654  0.0058  0.2732 -0.0680
77895W        W20808  11.640  34.233   2.365 -0.1027 -0.1218  0.2288
77896W        W20809  19.709  10.632   6.075 -0.2113 -0.1149  0.0154
77897W        W20810  16.244  18.146  27.684 -0.3900  0.1766 -0.0651
77898W        W20811  21.287  22.069  18.948 -0.0318  0.0207  0.0814
77899W        W20812   3.057  26.747  28.300  0.0747  0.0500 -0.1856
77900W        W20813  17.759  26.733  22.559  0.1646  0.0817 -0.0500
77901W        W20814   6.334  24.990  15.085  0.1755  0.0385  0.0263
77902W        W20815  14.379  23.425  21.162  0.1787 -0.1539 -0.0671
77903W        W20816  16.425  23.362  18.603  0.1742 -0.1301 -0.0912
77904W        W20817  26.227  21.743  19.119  0.3516  0.1481  0.1492
77905W        W20818  21.607  29.119  25.257 -0.1516 -0.2252  0.0169
77906W        W20819  12.050  19.613   5.803  0.2224 -0.3660 -0.0852
77907W        W20820   7.769  23.488  18.245 -0.1777  0.0951  0.1756
77908W        W20821  16.871  10.582  17.353 -0.3696  0.0080 -0.1090
77909W        W20822  10.234  19.529  16.746  0.1158  0.4109  0.1081
77910W        W20823  20.909  27.298  19.289  0.1973 -0.0729  0.0658
77911W        W20824  21.997   5.129   0.285 -0.0852  0.2131  0.1038
77912W        W20825  12.457  31.745  21.573 -0.0802 -0.0271  0.5902
77913W        W20826  18.486  13.241  14.464 -0.1790  0.0984  0.1176
77914W        W20827  20.241  25.508  20.441 -0.3668 -0.3554  0.1113
77915W        W20828  12.217  12.081  21.941  0.0030  0.0791  0.1950
77916W        W20829  10.018  21.323  16.847 -0.2156 -0.0113  0.3853
77917W        W20830  15.413  19.530  15.782  0.2339 -0.0755  0.0288
77918W        W20831  23.931  24.507  25.012  0.0066 -0.0496 -0.0916
77919W        W20832  31.812  31.586  25.937  0.0608 -0.0917  0.0157
77920W        W20833  18.100  19.094   5.233  0.0462 -0.4258  0.2522
77921W        W20834  14.905  21.538  22.592  0.0285  0.1260 -0.1906
77922W        W20835  12.560  18.303  21.851 -0.3102 -0.1206 -0.0363
77923W        W20836   9.298  21.710   3.254  0.0090 -0.3016 -0.1190
77924W        W20837  21.152  24.305  20.077 -0.1129 -0.0124  0.0968
77925W        W20838  24.948   1.363  27.544 -0.1562  0.3009  0.1228
77926W        W20839  22.248  30.209  23.859 -0.1396 -0.3294  0.0051
77927W        W20840  17.686  26.387  21.222 -0.3493  0.2876 -0.0309
77928W        W20841  22.808  20.923  14.241 -0.1401  0.0122  0.0710
77929W        W20842  16.925  25.507  28.623  0.0247  0.0201  0.1102
77930W        W20843  16.806  26.663  20.217  0.3717 -0.3294  0.1505
77931W        W20844  31.447  30.069  25.783 -0.2632  0.0529 -0.4272
77932W        W20845  16.949  24.430  16.171  0.0160 -0.1682  0.0126
77933W        W20846  11.533  22.994  26.814  0.0041  0.0006  0.1697
77934W        W20847  28.415  16.869  22.279 -0.3465  0.4005 -0.0883
77935W        W20848  23.089  13.289  16.938 -0.0602 -0.0615 -0.3116
77936W        W20849  24.113  25.961  12.341 -0.3297  0.3164 -0.0644
77937W        W20850  20.394  21.273  12.292  0.1370  0.1365 -0.1414
77938W        W20851  23.853  10.613  21.360  0.0926 -0.1061 -0.2286
77939W        W20852  26.017  28.893  20.511  0.1113 -0.0608  0.0807
77940W        W20853  13.746  20.434  18.403  0.1737 -0.2116  0.0241
77941W        W20854   8.445  22.525  23.903  0.1090 -0.2297 -0.1173
77942W        W20855  17.533  25.080  22.898  0.1132  0.1498  0.1261
77943W        W20856  15.398  15.486  12.868 -0.0068 -0.1125  0.2434
77944W        W20857  27.103  21.115  22.132  0.0892  0.4961  0.1688
77945W        W20858  26.806   9.043  16.474  0.0416 -0.0761  0.0844
77946W        W20859  14.355  17.122  23.596  0.1369  0.1886 -0.3068
77947W        W20860  20.231  21.479  22.027 -0.0415 -0.1112 -0.0306
77948W        W20861  13.661  30.419  23.582  0.1590 -0.0683  0.2239
77949W        W20862  17.995   2.349  19.765 -0.1438 -0.1185 -0.0928
77950W        W20863  18.515  25.730   1.313  0.1346 -0.0068  0.0306
77951W        W20864  28.992  30.832  17.779 -0.5814 -0.0837  0.2184
77952W        W20865  32.845  21.404  24.087  0.0130 -0.2528  0.2509
77953W        W20866  15.092  21.386  24.182 -0.1156  0.3071  0.2425
77954W        W20867   7.750  19.474  21.878  0.0155 -0.0365 -0.2199
77955W        W20868  22.586   6.872  15.610  0.4553 -0.1219  0.1122
77956W        W20869   3.456  18.689  20.461 -0.0680  0.0787  0.1611
77957W        W20870  15.914  11.503  17.532 -0.2173 -0.0890  0.1077
77958W        W20871  23.452  30.440  14.186 -0.1352  0.1548 -0.1462
77959W        W20872  19.619  29.593  27.610  0.1781  0.1636 -0.4262
77960W        W20873  26.541  27.486   1.670 -0.2168  0.0213  0.2134
77961W        W20874  11.140  28.336  23.232  0.2529  0.3022 -0.1192
77962W        W20875   8.088  21.346  23.821 -0.2302 -0.1417  0.0904
77963W        W20876  24.094  19.047  15.999 -0.0421  0.2159 -0.2642
77964W        W20877   5.220   8.395  28.375 -0.0392 -0.2236  0.2580
77965W        W20878  18.423  23.527  21.528 -0.1454 -0.1155  0.0493
77966W        W20879  15.767  20.816  20.940  0.0320 -0.0255 -0.3051
77967W        W20880  23.102  18.212  17.847 -0.0402 -0.0443 -0.0806
77968W        W20881   8.304  32.662   4.732  0.0023 -0.0284  0.3195
77969W        W20882  14.931  18.993  27.265  0.1152 -0.0821  0.1262
77970W        W20883  23.233  14.267  26.306  0.1625  0.2804 -0.2289
77971W        W20884  23.460  31.516  24.331  0.0342  0.2314  0.5111
77972W        W20885  18.912  29.668  16.235  0.0053 -0.2871 -0.2917
77973W        W20886  23.913  15.804   1.195  0.3365 -0.2312 -0.0933
77974W        W20887  13.574  25.444  28.360  0.3123 -0.2831  0.0810
77975W        W20888  28.278  24.775  18.015 -0.0323  0.0558 -0.0970
77976W        W20889  17.054  24.452  19.585 -0.0548 -0.1024  0.0008
77977W        W20890  15.897  12.726  15.019 -0.2405  0.1780  0.0407
77978W        W20891   4.054  20.888   2.892 -0.2763  0.1613 -0.0139
77979W        W20892   7.102  22.228  19.267  0.1140  0.1857 -0.0624
77980W        W20893  21.228  22.656  20.066  0.2450 -0.0445  0.0298
77981W        W20894  24.066  27.625  22.282  0.2903 -0.3082 -0.1713
77982W        W20895  11.590  27.980  19.287 -0.0026 -0.1428  0.0832
77983W        W20896  20.002  24.241  18.416 -0.0648  0.0297  0.1390
77984W        W20897  18.002  30.277  17.742  0.2707 -0.0421  0.1376
77985W        W20898  22.157  12.461  23.192 -0.1522 -0.1988  0.3759
77986W        W20899  19.749  22.546  19.885 -0.0380 -0.0160 -0.0990
77987W        W20900  10.211  25.788  16.421 -0.1207  0.0962 -0.0519
77988W        W20901  11.495  21.234  22.409  0.3123 -0.0721  0.0122
77989W        W20902  11.913  24.019   5.183  0.0559  0.3086 -0.0477
77990W        W20903  20.144  22.675   1.594  0.1978 -0.0026  0.3298
77991W        W20904  13.299   5.129   2.165  0.0037 -0.0141  0.0749
77992W        W20905  11.530  33.564  29.566  0.3437 -0.0786 -0.0024
77993W        W20906  20.397  23.512  26.031 -0.0394 -0.0961 -0.0222
77994W        W20907  29.906   0.265  19.667 -0.0865  0.0829 -0.0879
77995W        W20908  10.897  13.237  25.401 -0.3740  0.1032 -0.1584
77996W        W20909  16.409  32.391  22.635  0.3019 -0.1278 -0.0208
77997W        W20910  12.996  28.002  22.318 -0.0633 -0.2102  0.2477
77998W        W20911  17.830  25.908   4.460  0.0480  0.1237  0.0831
77999W        W20912  25.161  18.810  24.160 -0.2311  0.0978 -0.2823
78000W        W20913  22.043  25.573  25.458  0.3222 -0.2723 -0.0043
78001W        W20914  16.249  24.857  23.118  0.2526 -0.0749  0.1795
78002W        W20915   5.577  23.105   4.512 -0.1393 -0.2677 -0.0930
78003W        W20916   5.681   6.405  26.930  0.3184  0.2079 -0.0712
78004W        W20917   5.025  13.999  25.364 -0.0761  0.1184  0.1567
78005W        W20918  23.138  15.793  16.276 -0.0850  0.1091 -0.3267
78006W        W20919  22.458  22.265  20.465  0.0850 -0.0400  0.2295
78007W        W20920  27.040  18.875  24.631  0.0068  0.0857 -0.0901
78008W        W20921  14.348  26.899  25.222 -0.1073 -0.3296 -0.0997
78009W        W20922  12.275  30.606  16.579  0.1569  0.0433  0.0182
78010W        W20923  22.500  27.502  13.774  0.0681 -0.1627  0.0725
78011W        W20924  20.835  20.356  23.471  0.1899 -0.1897 -0.1029
78012W        W20925  17.540  23.446  20.599 -0.1628 -0.0526 -0.0474
78013W        W20926  19.307  30.044   4.758  0.0398  0.3531 -0.0334
78014W        W20927  16.100  20.367  12.612 -0.2088  0.0134 -0.4025
78015W        W20928  12.341  24.231  14.771 -0.0849  0.1290  0.0928
78016W        W20929  20.780  21.018  13.308  0.2382 -0.0589  0.1864
78017W        W20930  18.752  29.475  23.990 -0.0912 -0.2347 -0.3458
78018W        W20931  14.316  23.481  24.276  0.1566 -0.0085  0.1929
78019W        W20932  14.779  22.446  15.139  0.1126 -0.0572  0.1840
78020W        W20933  18.703  22.077  16.177 -0.0974 -0.0997  0.1443
78021W        W20934  21.657  26.942  15.024 -0.1877  0.0645  0.0693
78022W        W20935  16.365  27.982  25.360  0.2226 -0.1681 -0.1604
78023W        W20936  20.455  16.667  15.116 -0.1585  0.0568  0.0208
78024W        W20937  13.456  29.554  28.175 -0.1055  0.2174 -0.1317
78025W        W20938  13.324  23.592   4.201  0.0354  0.0042 -0.2695
78026W        W20939  14.416  24.445  17.539  0.0475 -0.1777  0.1104
78027W        W20940  16.257  16.667  14.765  0.2875 -0.1265  0.1892
78028W        W20941  20.210  25.109  22.104 -0.2040  0.0745 -0.3595
78029W        W20942   2.059  24.591  11.138  0.2052  0.3328 -0.2427
78030W        W20943  17.811  20.906  23.823  0.0940  0.1155 -0.2535
78031W        W20944  11.995  30.321  21.285  0.1787 -0.1557  0.0679
78032W        W20945   9.405  21.200  23.980  0.2678 -0.0376 -0.3705
78033W        W20946  15.916  20.820  14.552 -0.2645  0.1619  0.2130
78034W        W20947  14.144  23.040  20.299 -0.1702  0.0875 -0.5016
78035W        W20948  14.122  22.173  22.619 -0.0391 -0.1706 -0.2516
78036W        W20949  12.530  14.787  14.012  0.1568  0.1702  0.1169
78037W        W20950  22.552  15.964  28.946  0.0726 -0.0725 -0.1971
78038W        W20951  16.146  18.705  27.597  0.1028  0.1637 -0.0154
78039W        W20952  12.745  21.116  20.694 -0.1561  0.1243 -0.1295
78040W        W20953  22.242  30.711  22.968 -0.0375  0.1946  0.4445
78041W        W20954  11.852  26.434  18.139  0.3051 -0.2427  0.1613
78042W        W20955  32.331  20.594  27.247 -0.2294  0.0793  0.0352
78043W        W20956  14.332  23.132   0.230  0.1601  0.0053  0.4052
78044W        W20957  20.135  32.615  18.654  0.1652 -0.2342  0.1093
78045W        W20958  15.884  25.676   1.182  0.1383  0.2659  0.1871
78046W        W20959  24.300  21.359  19.398  0.3269 -0.3053  0.0547
78047W        W20960   7.347  26.204  16.832  0.2169  0.1436 -0.0073
78048W        W20961  17.786  17.606  24.503 -0.1741 -0.0004 -0.1236
78049W        W20962  14.926  24.598  29.361  0.3609  0.0652 -0.0866
78050W        W20963  18.322   9.175  18.625 -0.0217  0.0197 -0.0637
78051W        W20964  12.184  23.841  20.854 -0.1925 -0.3149  0.0211
78052W        W20965  29.520  25.390   3.186  0.1536 -0.0836 -0.3637
78053W        W20966   4.086  28.466  22.435 -0.1585  0.1857 -0.0743
78054W        W20967   8.333  15.943  18.811 -0.0222 -0.0392 -0.1683
78055W        W20968  10.463  21.373  15.626  0.0864  0.0556 -0.0110
78056W        W20969  13.339  12.216  13.893  0.3403 -0.0520 -0.2349
78057W        W20970   5.097  21.547  22.848  0.0022 -0.0090  0.2371
78058W        W20971  17.830  17.363  27.466  0.1413  0.1390  0.0387
78059W        W20972  17.625  25.565  25.585 -0.1528 -0.1132  0.0774
78060W        W20973  27.808  14.637  26.299 -0.1307 -0.0067 -0.1021
78061W        W20974  16.681  27.535  22.562 -0.1304  0.2528 -0.2447
78062W        W20975  18.662  22.214  18.711 -0.0434  0.2842  0.4006
78063W        W20976  15.531  31.216   0.766  0.5859 -0.4573  0.2391
78064W        W20977  14.332  16.478  29.780 -0.0884  0.2504  0.1200
78065W        W20978  18.956  28.090  20.894 -0.0362  0.2373 -0.0408
78066W        W20979  22.265  26.311  24.920  0.2248  0.2248  0.1044
78067W        W20980  13.751  23.809   2.271  0.2521 -0.0479 -0.0571
78068W        W20981  18.785   6.545  23.084  0.0766  0.2167  0.3897
78069W        W20982  17.106  21.907  16.588 -0.1171  0.3079 -0.2366
78070W        W20983  21.275  16.108  23.346 -0.1167  0.0260  0.0645
78071W        W20984  16.878  30.364  14.733 -0.1902 -0.4371  0.0384
78072W        W20985  18.536  26.002  15.730  0.1642 -0.0864 -0.1206
78073W        W20986  12.071  22.524   0.678  0.0403  0.0475  0.2316
78074W        W20987  16.861  22.633  16.266 -0.2353 -0.1586 -0.1457
78075W        W20988   6.511  27.786  16.026  0.2034 -0.1009 -0.4981
78076W        W20989   5.214  13.640  28.562  0.2056  0.1217 -0.0937
78077W        W20990  12.268  34.485   3.429 -0.0938 -0.1300  0.3152
78078W        W20991  19.563  20.701  21.907 -0.0832 -0.1559 -0.2018
78079W        W20992  13.977  21.815  18.686  0.0816  0.0054 -0.3278
78080W        W20993  20.460  26.609  24.021 -0.0344 -0.0481  0.2412
78081W        W20994  14.512  26.022  18.443 -0.0830 -0.0552 -0.0999
78082W        W20995  20.839  23.391   2.132  0.0254 -0.0567  0.2705
78083W        W20996   9.119  26.425  20.427 -0.2879  0.1603  0.3043
78084W        W20997  23.260   9.604  22.631 -0.1523  0.0767  0.0124
78085W        W20998  10.580  15.830  23.816 -0.0582 -0.0459  0.0330
78086W        W20999  26.612  21.640   2.187  0.1284 -0.0706 -0.1512
78087W        W21000  23.062  28.195   3.932 -0.3878  0.1032 -0.1385
78088W        W21001  17.255  30.746  24.446 -0.0545  0.3516  0.0608
78089W        W21002  19.794  19.757  13.209 -0.0552  0.0556 -0.0652
78090W        W21003  15.492  20.956  18.125  0.2158  0.0455  0.0314
78091W        W21004   7.359  15.725  17.251 -0.0565 -0.1020  0.0537
78092W        W21005  26.689  19.738  22.894 -0.0338  0.0398 -0.0614
78093W        W21006  14.231  14.797  14.289  0.2180  0.1498 -0.1586
78094W        W21007  28.229  18.975  14.413  0.0633  0.1380 -0.2713
78095W        W21008  15.838  22.931  14.218  0.2577  0.3201 -0.3376
78096W        W21009  10.799  19.423  19.864 -0.1020  0.0981 -0.1880
78097W        W21010  29.829  13.007  23.739 -0.3617 -0.0953  0.3791
78098W        W21011  25.330  32.942  15.365  0.1843 -0.2785 -0.0267
78099W        W21012  27.096  31.386  17.854 -0.0228 -0.1696  0.0958
78100W        W21013  19.409  14.220  23.919 -0.0746 -0.4592  0.2299
78101W        W21014  13.473  18.476  25.801 -0.0199 -0.0224  0.0819
78102W        W21015  14.847  19.177  28.620 -0.3510 -0.2479  0.1880
78103W        W21016  23.827  22.788  12.206 -0.1355 -0.0262  0.1744
78104W        W21017  21.259  12.179  17.351  0.0076  0.1200  0.1149
78105W        W21018   8.661  11.030  29.164 -0.1174  0.0710 -0.0202
78106W        W21019   5.155  18.775  28.789  0.0928  0.2472 -0.0183
78107W        W21020  22.645  26.849   2.967 -0.2226 -0.2461 -0.1472
78108W        W21021   8.771  26.684   2.510 -0.1820 -0.2468  0.2220
78109W        W21022  19.196   9.761  26.760  0.0027 -0.0811 -0.2576
78110W        W21023  11.919  16.607  22.947 -0.3260 -0.0624  0.4677
78111W        W21024  26.335  14.042  24.677 -0.2581 -0.0399  0.2019
78112W        W21025   6.391  28.576  19.891  0.1414 -0.1930  0.2349
78113W        W21026  13.220  27.828  25.610 -0.0901 -0.0188 -0.0976
78114W        W21027  11.027  26.936  15.485  0.0807 -0.2548  0.0514
78115W        W21028  17.777  27.702  19.961 -0.0340 -0.0222  0.2352
78116W        W21029  14.581  14.297  21.123  0.1080 -0.0940 -0.1085
78117W        W21030  20.809  20.433  22.475 -0.3607 -0.0621 -0.2252
78118W        W21031  16.519  22.206  20.947  0.1394  0.0509 -0.2594
78119W        W21032   5.606  20.419  22.287  0.2548  0.1157  0.0470
78120W        W21033  28.669  26.443  21.173 -0.2489 -0.1226  0.0022
78121W        W21034  19.464  29.439   2.762 -0.4380  0.3644  0.1977
78122W        W21035  21.299  26.777  28.826  0.1987  0.0098  0.0667
78123W        W21036  15.410  30.363  21.257  0.2033 -0.0173  0.0496
78124W        W21037  15.254  20.936  17.684  0.0161  0.2334 -0.2290
78125W        W21038  23.586  27.919  13.939 -0.2100 -0.0417  0.1554
78126W        W21039  20.045  29.313  21.271 -0.1401  0.2736 -0.1783
78127W        W21040  15.236  28.215  22.345  0.0567 -0.0165  0.2520
78128W        W21041   6.427  32.676  23.495 -0.1431  0.1198 -0.3078
78129W        W21042  26.981  24.157  21.985 -0.1225  0.0712 -0.3401
78130W        W21043  13.006  26.338  17.251  0.3557 -0.0435 -0.0903
78131W        W21044  24.032  25.898   4.846  0.1008 -0.0970  0.1388
78132W        W21045  20.607  21.281  24.762 -0.0666  0.1969 -0.0716
78133W        W21046  13.000  25.934  14.449 -0.1793  0.3224  0.0109
78134W        W21047  22.411  33.177  15.475  0.1105  0.1315 -0.2368
78135W        W21048  20.038  24.105  19.065  0.2118 -0.3152  0.2693
78136W        W21049  17.372   9.625  25.055  0.4244 -0.2775 -0.1134
78137W        W21050  15.487  26.215  14.573  0.0903 -0.1306 -0.1295
78138W        W21051  12.658  22.035  19.108 -0.0921  0.0960  0.1888
78139W        W21052  14.028  25.006   0.108 -0.0900  0.0318 -0.1095
78140W        W21053  17.630  26.048  18.844  0.0868  0.0338 -0.3487
78141W        W21054  14.806  25.723  21.177  0.0647 -0.1410 -0.3301
78142W        W21055  14.630  21.072  18.016 -0.0258 -0.0733 -0.2400
78143W        W21056  33.741  31.186   0.953 -0.0728  0.0155  0.2389
78144W        W21057  10.627  26.419  22.560 -0.0021  0.0750  0.0318
78145W        W21058   5.485  28.135  24.511 -0.2944 -0.0939 -0.2517
78146W        W21059  21.339   0.494   3.314 -0.0126 -0.0400  0.4045
78147W        W21060  22.516  22.524  24.791 -0.0673  0.2527 -0.0325
78148W        W21061  31.978  26.797  28.079 -0.0700  0.1010  0.0627
78149W        W21062  22.170  29.415  28.631 -0.1432  0.0471 -0.1003
78150W        W21063  24.768  20.682  16.600 -0.0045  0.0168  0.0668
78151W        W21064   9.901  31.883   5.671  0.1887 -0.3070 -0.1330
78152W        W21065  21.847  16.018   2.078  0.1872 -0.0662  0.2303
78153W        W21066  16.068  22.486  15.750  0.1971 -0.1080  0.0108
78154W        W21067   7.017  23.149  26.698  0.0063 -0.2114 -0.0958
78155W        W21068  19.567  15.942  27.872  0.2389  0.0140  0.0686
78156W        W21069   8.681  23.958  14.199  0.2470 -0.0117  0.0705
78157W        W21070  19.226  18.043  22.110 -0.0441 -0.1819 -0.0607
78158W        W21071  18.093  33.853  28.430  0.4188  0.1182  0.1275
78159W        W21072  10.127  30.573  23.789  0.0441  0.1635 -0.1109
78160W        W21073   9.978  32.843  23.684 -0.1549  0.0513 -0.0066
78161W        W21074  14.933  22.230   7.657 -0.0750 -0.0813 -0.1466
78162W        W21075   8.321  19.053   4.005 -0.0782  0.2927 -0.0471
78163W        W21076  18.418  12.532  29.675  0.4231  0.0799 -0.0225
78164W        W21077  19.482  24.349  14.911  0.3399  0.1168 -0.2539
78165W        W21078  15.621  26.005  23.931  0.0023 -0.1481  0.1153
78166W        W21079   7.008  15.325   1.312 -0.0711 -0.2388 -0.2889
78167W        W21080  21.475  27.240  13.330 -0.1356 -0.3577 -0.0672
78168W        W21081   8.893  21.445  21.146  0.3449  0.3248  0.1550
78169W        W21082  33.553  29.285  26.719  0.1217 -0.0035 -0.1964
78170W        W21083  18.874  11.238   4.993 -0.3590  0.1019  0.2987
78171W        W21084   7.728  22.115   6.230 -0.0659  0.1061  0.0179
78172W        W21085   5.105  26.448  10.295  0.0255  0.0872 -0.0849
78173W        W21086  17.051  31.455  23.599  0.2105 -0.1912 -0.3117
78174W        W21087  15.498  24.629  29.350 -0.1835  0.2832 -0.1911
78175W        W21088   7.022  22.419  25.580  0.1290 -0.2493  0.1399
78176W        W21089   9.375  18.184   6.150 -0.3815 -0.4194  0.0008
78177W        W21090  12.158  22.656  17.878  0.1010  0.0790 -0.0902
78178W        W21091  33.687  20.217  25.020  0.1149 -0.1765  0.3935
78179W        W21092  14.429  11.967  29.129  0.1922 -0.0251 -0.0697
78180W        W21093  14.645  23.069   3.749  0.1024 -0.3737  0.0462
78181W        W21094  17.749  19.664  25.514  0.0378  0.1239  0.0898
78182W        W21095  14.056  24.458  19.759  0.0763  0.3085 -0.0878
78183W        W21096  30.970  15.668  25.865 -0.0759 -0.0631 -0.1214
78184W        W21097  15.980  22.831   8.422  0.1564  0.0613  0.0838
78185W        W21098  13.240  29.495   4.438 -0.3914 -0.2197 -0.0422
78186W        W21099   8.005  28.240   5.252 -0.0536  0.1682  0.1522
78187W        W21100  20.115  33.351  28.510  0.0339 -0.0454 -0.1049
78188W        W21101  17.862  27.929  24.183 -0.0397  0.1406  0.0415
78189W        W21102  17.150  25.869  23.994 -0.1294  0.0409  0.3636
78190W        W21103  21.854  18.261  23.344 -0.1257 -0.0738  0.1074
78191W        W21104  19.044  23.863   1.393  0.2936 -0.2844 -0.0606
78192W        W21105  15.053  28.212  23.692 -0.3488  0.0708  0.2642
78193W        W21106  24.339  17.594  25.205  0.0430  0.2284 -0.0359
78194W        W21107  30.090   4.979  19.369 -0.5694  0.1281  0.1224
78195W        W21108  21.799   3.792  15.007  0.1343 -0.0148 -0.1294
78196W        W21109  11.885  26.848   0.081 -0.2805 -0.1068  0.1254
78197W        W21110  22.300  27.529   5.277 -0.0152 -0.1360  0.4753
78198W        W21111  12.943  18.880  21.516  0.1025 -0.4208  0.1245
78199W        W21112  15.216  27.089  24.430  0.0154 -0.1626  0.0556
78200W        W21113  16.074  22.830  28.652 -0.3214  0.3823 -0.0415
78201W        W21114  22.175  23.009  26.072 -0.3600 -0.0570 -0.1126
78202W        W21115  12.865  29.077  24.766  0.1110 -0.1788  0.0622
78203W        W21116  15.709  20.554  28.979  0.1233 -0.0309 -0.0117
78204W        W21117  14.198  24.039   2.364 -0.0514 -0.0308 -0.0332
78205W        W21118  25.574  18.672  27.982 -0.0514 -0.2533 -0.3419
78206W        W21119  21.746  33.569  28.585  0.1190  0.2447  0.1310
78207W        W21120   8.504  25.974   8.083 -0.0460 -0.3754  0.3466
78208W        W21121  22.360  21.406  24.722  0.3667 -0.2780  0.4234
78209W        W21122  11.357  20.725  29.611 -0.1327  0.0384 -0.0840
78210W        W21123  16.361  18.523   1.528  0.1619  0.1799  0.0804
78211W        W21124  25.784  16.715  26.962 -0.1341 -0.2219 -0.2001
78212W        W21125  27.139  15.645   2.191 -0.1097  0.1305  0.3731
78213W        W21126  18.917  11.855   8.065 -0.1294 -0.1889  0.0233
78214W        W21127  18.045  29.747   1.128  0.2485  0.0587  0.1188
78215W        W21128  19.132  17.668  12.941  0.2350  0.1281  0.1531
78216W        W21129  16.667  29.398  28.332 -0.0512 -0.2241 -0.0424
78217W        W21130  18.835  25.388  22.556  0.0709 -0.1818  0.0211
78218W        W21131  14.932  21.255  20.153  0.0832  0.4614  0.0041
78219W        W21132  11.590  23.602   5.251 -0.0072  0.3756  0.2153
78220W        W21133  18.127   0.190   0.781  0.1564 -0.3253  0.0006
78221W        W21134  13.058  29.218   1.406 -0.2972  0.0842 -0.1693
78222W        W21135  13.612  20.132  24.701  0.2802 -0.1913 -0.1262
78223W        W21136  13.784  26.493  23.725 -0.0951  0.0944 -0.2278
78224W        W21137  17.277  30.856   7.148 -0.4379 -0.1003  0.1218
78225W        W21138   7.483  13.298   1.707 -0.0787  0.0841  0.1583
78226W        W21139  32.047  15.640   8.804 -0.0172  0.0702  0.0119
78227W        W21140  24.300  25.040  23.277  0.1160 -0.1210 -0.3852
78228W        W21141  33.887  24.992   0.907 -0.0292  0.1240  0.2875
78229W        W21142   5.526  27.157  29.461  0.1123  0.1566 -0.0190
78230W        W21143  20.078  14.322  24.856 -0.0946 -0.0230 -0.1039
78231W        W21144  15.371  23.682  26.508 -0.0785  0.0531 -0.0315
78232W        W21145  18.828  21.330  16.978  0.2503  0.1677 -0.3624
78233W        W21146  15.208  20.899  20.008  0.2678  0.1482 -0.4351
78234W        W21147  14.832  15.852   5.613 -0.0253 -0.1997  0.2950
78235W        W21148  16.264  15.095   3.511 -0.2658 -0.0676 -0.0350
78236W        W21149  13.036  24.625   0.294 -0.1521  0.0386 -0.0588
78237W        W21150   1.198  16.525  29.403 -0.0148  0.1875  0.0667
78238W        W21151   8.643  27.604  20.591 -0.3048  0.2397 -0.0406
78239W        W21152   9.714  25.999  20.988 -0.0959 -0.0717  0.2639
78240W        W21153  18.474  23.652   4.139  0.1807 -0.3121  0.0313
78241W        W21154  18.389  26.770  28.370 -0.2216  0.2382  0.1433
78242W        W21155   5.440   5.308   5.331 -0.0363 -0.2120 -0.2627
78243W        W21156  17.939  21.330  18.732 -0.0167  0.0301 -0.0287
78244W        W21157  18.783  19.236  29.474  0.0292  0.2632  0.1412
78245W        W21158   7.506  23.579   2.783 -0.1325  0.2087  0.1202
78246W        W21159  20.305  26.362   5.750 -0.0470 -0.0958 -0.1312
78247W        W21160  17.550  23.930  27.695  0.0116 -0.0767  0.2622
78248W        W21161  26.094  22.278  22.596  0.2198  0.0767 -0.1246
78249W        W21162  20.397  20.790  24.823  0.1095 -0.0134  0.0054
78250W        W21163   7.162  23.024  24.083 -0.1144  0.0671  0.1396
78251W        W21164  25.067  20.959   1.124  0.0867 -0.0543  0.2668
78252W        W21165  10.562  22.336  24.102  0.3637 -0.0964  0.1718
78253W        W21166  10.474  24.663  26.270  0.0738 -0.0665 -0.0762
78254W        W21167   7.952  24.068  16.653  0.1565 -0.2713 -0.0006
78255W        W21168  32.489  25.858  25.907 -0.3754 -0.2399 -0.2880
78256W        W21169  18.043   2.557   2.847  0.1180 -0.1955 -0.0423
78257W        W21170  11.315  20.016  13.199  0.0933 -0.1877  0.0500
78258W        W21171   8.020  26.287   0.264 -0.0554 -0.1074 -0.1027
78259W        W21172  18.451  31.359  26.746  0.0373 -0.4698  0.1071
78260W        W21173  23.057  28.859  27.066 -0.2574  0.2388 -0.0491
78261W        W21174  20.601  21.131   1.910  0.0927 -0.0829 -0.2071
78262W        W21175  22.541  19.555   4.842  0.1276  0.0972 -0.2498
78263W        W21176  10.429  23.064   7.236 -0.3452 -0.0472 -0.1732
78264W        W21177   6.964  16.871  27.821  0.4258 -0.1457  0.1110
78265W        W21178  23.119  27.602  24.961  0.0216  0.1363  0.1115
78266W        W21179  10.356  11.513   2.860 -0.2427 -0.0858  0.2960
78267W        W21180  29.805  24.649  24.433  0.2209 -0.2183 -0.3637
78268W        W21181  21.122  30.351   0.299  0.0336 -0.2964 -0.0629
78269W        W21182   5.458  33.769   4.998  0.2219  0.2414  0.0602
78270W        W21183  14.015  29.333  29.196  0.2780 -0.1193  0.1331
78271W        W21184  20.658  25.649  17.337 -0.1583  0.3138  0.2031
78272W        W21185  16.808  27.537   1.299  0.5467 -0.1918 -0.1691
78273W        W21186  13.609  26.295   4.513  0.1590 -0.0595  0.0455
78274W        W21187  26.377  20.248  28.870 -0.2640  0.3006 -0.0369
78275W        W21188  11.917  29.012   2.194  0.0457 -0.0067  0.0662
78276W        W21189  21.099  24.750  16.281  0.1284  0.1410 -0.0177
78277W        W21190  17.207  12.867  16.633  0.1140  0.3101  0.2685
78278W        W21191  20.457  24.063   2.170 -0.1185  0.1461  0.1707
78279W        W21192   4.607  28.559   4.391  0.5688 -0.0475 -0.0017
78280W        W21193  15.437  29.915  22.583 -0.0996  0.1177  0.1195
78281W        W21194   9.155  23.838   4.541 -0.1522  0.1686  0.3949
78282W        W21195  20.535  29.056  14.462  0.1424 -0.1627  0.0571
78283W        W21196  25.228  23.024  24.326  0.0247 -0.0144  0.0657
78284W        W21197  19.639  26.905  29.454  0.1827  0.1401  0.2411
78285W        W21198  23.696  29.411  20.384 -0.1499  0.0107 -0.2280
78286W        W21199  14.958  19.211   1.867 -0.4380  0.0862 -0.2856
78287W        W21200  15.007  25.340  21.454  0.0164 -0.1824 -0.0781
78288W        W21201  17.624  28.054  27.995 -0.0605 -0.3268  0.0684
78289W        W21202   0.112  18.445   1.330 -0.1730 -0.0834  0.2617
78290W        W21203   8.610  10.625   7.870 -0.0547 -0.2349  0.0540
78291W        W21204  20.619  26.814  19.230  0.2761 -0.1626  0.0189
78292W        W21205  17.877  24.731  21.941 -0.0663 -0.0384  0.3874
78293W        W21206  27.623  30.545   4.422  0.0945  0.0474  0.0937
78294W        W21207  18.619  23.544  25.884 -0.2878  0.2953 -0.1018
78295W        W21208  22.606  20.659   0.323  0.0906  0.1449  0.2281
78296W        W21209  17.220  30.007  20.818 -0.3161  0.1305  0.1162
78297W        W21210  22.795  30.981   3.178  0.0763  0.2580 -0.2446
78298W        W21211  15.579  23.306   6.140  0.3348 -0.3309 -0.2583
78299W        W21212  19.877  31.589   3.111  0.0948  0.1910 -0.0202
78300W        W21213  13.209  23.884  26.502  0.1776  0.4705 -0.0976
78301W        W21214  11.953   8.134  28.989 -0.0472  0.3043 -0.0921
78302W        W21215  16.891  26.870   3.700  0.3173 -0.0140  0.0556
78303W        W21216  30.144  25.257   1.476  0.1533  0.2346 -0.0894
78304W        W21217  13.056  29.420  23.327  0.3202 -0.3273  0.1078
78305W        W21218  13.562  18.113  21.913  0.0032  0.0688 -0.0194
78306W        W21219  16.394  26.791  25.814  0.0058  0.0479 -0.4947
78307W        W21220   6.511  16.414  29.462 -0.2201 -0.1351  0.1799
78308W        W21221  22.962  24.510  27.541  0.1895  0.4368 -0.0058
78309W        W21222   2.253  23.332  28.953 -0.1586 -0.2965  0.2976
78310W        W21223  15.810  26.725  27.069  0.0694 -0.0685  0.1635
78311W        W21224  22.938  34.058  17.430 -0.0367  0.2080  0.0030
78312W        W21225   8.663  18.922  29.378  0.1529  0.0989 -0.2081
78313W        W21226   2.941  17.824  26.543 -0.0968  0.0229  0.3467
78314W        W21227   5.527  31.049   2.969  0.1956  0.1103  0.0881
78315W        W21228  13.417  20.323   2.109 -0.1802  0.0063 -0.0344
78316W        W21229   8.765  27.754  23.468 -0.1865 -0.1457  0.0145
78317W        W21230   9.172  22.272  24.466  0.1450  0.1637 -0.0548
78318W        W21231  16.150   2.640   2.871  0.1574 -0.1252 -0.1427
78319W        W21232  31.892  22.016  25.229  0.3568 -0.1457  0.2068
78320W        W21233  22.879  10.621  26.165  0.3625  0.0258 -0.0242
78321W        W21234  10.226  18.735  18.520 -0.5081 -0.1598  0.0908
78322W        W21235  12.042  27.218  21.399  0.0237  0.0058 -0.2858
78323W        W21236  13.925  34.064  26.772  0.3334  0.4286  0.0661
78324W        W21237  11.196  21.667  22.200  0.0848  0.0867 -0.0342
78325W        W21238   7.035  20.962  20.615 -0.1411  0.0543 -0.0562
78326W        W21239  21.700  27.514   7.775  0.1333  0.0401 -0.2268
78327W        W21240  19.164  21.067   2.742 -0.4698  0.0052 -0.1605
78328W        W21241  19.319  20.553   2.097  0.1522  0.0326  0.3062
78329W        W21242  25.180  11.846  21.691  0.2096  0.0860 -0.3086
78330W        W21243  13.582  28.611  25.188 -0.1400  0.0368 -0.0418
78331W        W21244  15.665  24.172  29.506  0.3342  0.1491 -0.0980
78332W        W21245  21.500  16.503  26.367 -0.1059 -0.2527 -0.3550
78333W        W21246  18.146  27.715  26.216 -0.1309 -0.0810 -0.4222
78334W        W21247  25.623  27.448   0.482  0.1490 -0.2013 -0.1963
78335W        W21248  15.503  21.264  16.240 -0.1055  0.0961  0.0951
78336W        W21249  23.332  25.905   7.757  0.0409 -0.1111 -0.0603
78337W        W21250  10.979  27.218  22.954 -0.3084  0.1422  0.2342
78338W        W21251  12.420  20.001  27.206 -0.4039 -0.2376  0.0471
78339W        W21252  11.952  23.254  26.032  0.3062  0.0420  0.0655
78340W        W21253  11.362  24.468  23.870  0.2603 -0.0230 -0.0094
78341W        W21254  12.526  12.998  27.933 -0.0355 -0.1467  0.4589
78342W        W21255  15.850  20.688   0.553 -0.0319  0.0727  0.0113
78343W        W21256   8.835  18.276  23.318 -0.3774 -0.2305 -0.1797
78344W        W21257  11.489  21.174  23.920  0.0027  0.1876  0.1123
78345W        W21258   7.048  29.256   9.590 -0.1741 -0.0165  0.0265
78346W        W21259  12.518   5.077  20.431 -0.2949 -0.1835 -0.0951
78347W        W21260  11.513  25.552   3.727 -0.1992 -0.3032 -0.2152
78348W        W21261  10.629  24.449   2.402  0.5168 -0.2187  0.1525
78349W        W21262  27.176  17.051  26.677 -0.1013 -0.1054  0.0980
78350W        W21263  20.750  11.067   4.106  0.0749 -0.0288  0.0953
78351W        W21264  16.014  27.994  18.499  0.0209 -0.0916  0.2396
78352W        W21265  17.416  23.240   1.697  0.0865  0.0587 -0.0209
78353W        W21266  16.225  24.410  28.772 -0.0031 -0.2902  0.2660
78354W        W21267  29.947  34.397  27.309  0.0123 -0.1916  0.1450
78355W        W21268  11.365  25.386  20.374  0.0213  0.0228  0.1454
78356W        W21269  23.910  16.554  28.826  0.3407 -0.2261  0.1528
78357W        W21270  19.928  24.068  26.067 -0.1474 -0.1118 -0.0597
78358W        W21271  20.794   0.156   1.563 -0.1118 -0.1815 -0.0133
78359W        W21272   7.752  17.908  22.944  0.4125  0.3368  0.1722
78360W        W21273  18.892  18.259   3.658 -0.2508  0.5703 -0.1806
78361W        W21274  10.588  26.411   5.506  0.0451  0.0197 -0.4795
78362W        W21275  21.297  30.423  21.171 -0.3781  0.0267  0.0800
78363W        W21276   3.695  24.221  25.848  0.0706  0.2695  0.0536
78364W        W21277   0.796  22.318  27.785  0.0297  0.2781 -0.2700
78365W        W21278  26.499  28.046   7.231  0.1181  0.0203 -0.0869
78366W        W21279  23.023  27.975  23.878  0.0299  0.1869 -0.0820
78367W        W21280   2.840  24.670  29.414  0.1992  0.3366 -0.3762
78368W        W21281  26.892  22.770   1.996 -0.0566 -0.2377  0.5927
78369W        W21282  20.015  19.175  27.068  0.3533 -0.0469 -0.2261
78370W        W21283  34.114   3.288  24.522  0.0977  0.0516  0.2498
78371W        W21284   9.839  23.431   0.818 -0.2144 -0.2364  0.1963
78372W        W21285  13.089  15.381  23.600 -0.0249 -0.2177 -0.0024
78373W        W21286  17.453  24.172  17.812 -0.2491 -0.1182 -0.1450
78374W        W21287  25.960  26.927  28.155  0.1949  0.0418 -0.0965
78375W        W21288  15.244  22.903  21.293 -0.2176 -0.0049  0.0103
78376W        W21289  19.964  23.645  23.742  0.1705 -0.1117  0.1755
78377W        W21290  24.325  25.953   7.990  0.0269  0.1139 -0.1390
78378W        W21291  27.474  18.156   0.488 -0.3156 -0.1918 -0.2556
78379W        W21292  21.856  26.398  23.259 -0.3469 -0.4375 -0.0191
78380W        W21293  26.563  18.736  27.935  0.1708  0.0874  0.0008
78381W        W21294  14.459  30.951   3.813 -0.1186 -0.2487 -0.0113
78382W        W21295  20.749  22.667  14.191 -0.0412  0.0165  0.1235
78383W        W21296  17.845  20.555   6.208 -0.1667  0.1512 -0.0850
78384W        W21297  17.487  25.138   4.970 -0.0359  0.2273 -0.0399
78385W        W21298  19.503  27.482   2.997 -0.2059  0.2639 -0.0286
78386W        W21299  16.393  29.505  17.808  0.3410  0.0400  0.0156
78387W        W21300  18.761  30.614  25.752 -0.2445  0.0970  0.3230
78388W        W21301  18.502  27.330   2.080 -0.3275  0.0907  0.0820
78389W        W21302   5.513  22.521  20.513 -0.3965  0.2546 -0.2352
78390W        W21303  33.219  25.884  18.307 -0.1040  0.0346 -0.0493
78391W        W21304  22.790  19.636  27.299 -0.1650  0.0702 -0.1373
78392W        W21305  12.753  29.518  21.202  0.0164  0.0749  0.0583
78393W        W21306   8.847  23.391  19.994 -0.1163  0.1437 -0.1499
78394W        W21307  16.369  30.883   0.866 -0.0249  0.0998 -0.0713
78395W        W21308  19.311  29.503   1.237  0.3524  0.3857  0.0434
78396W        W21309  20.257  24.977  23.041 -0.0039  0.2391 -0.0051
78397W        W21310   9.743  32.226  27.999  0.2997 -0.0747  0.1067
78398W        W21311  14.790   4.226  29.468 -0.0482  0.2903  0.1587
78399W        W21312  14.154  18.912  21.870 -0.2602 -0.3491 -0.0475
78400W        W21313   9.634  27.443   3.036 -0.3534  0.1367  0.1214
78401W        W21314  10.554  26.477  24.507 -0.1754 -0.0324  0.1221
78402W        W21315  14.886  20.447  26.211 -0.0392 -0.4459 -0.1952
78403W        W21316  15.478  14.686   6.997 -0.2979 -0.0111  0.0686
78404W        W21317  14.720  22.857   5.578  0.2470  0.1570 -0.2493
78405W        W21318   4.222  32.616   0.204 -0.0862 -0.3436  0.2332
78406W        W21319  13.252  28.519  27.208  0.0551  0.0167 -0.3224
78407W        W21320  28.688  27.533   4.064  0.2060  0.4334 -0.0865
78408W        W21321  24.578  27.897  20.243 -0.3215 -0.1136  0.0665
78409W        W21322   4.508  18.758   2.670  0.0738 -0.0347  0.0222
78410W        W21323  28.431  22.390   3.372  0.0996  0.1683  0.1354
78411W        W21324  15.369  22.514   0.084 -0.0272 -0.0627  0.1685
78412W        W21325  17.390  26.432  27.653 -0.3762 -0.2101  0.1906
78413W        W21326  20.342  27.500   4.705  0.0784  0.0472  0.0862
78414W        W21327  13.835  27.632  23.183  0.4360 -0.1494 -0.1181
78415W        W21328  14.239  28.978   0.832  0.2654 -0.1071  0.0413
78416W        W21329  15.542  22.719  27.980 -0.1071  0.1866  0.1168
78417W        W21330   9.513  13.135  21.640  0.0031 -0.1374  0.0183
78418W        W21331  11.896  25.720  16.529 -0.2235 -0.0850  0.0549
78419W        W21332  22.478  15.969  24.956 -0.2372  0.2690  0.3039
78420W        W21333  24.869  16.171  22.941  0.1527  0.0311  0.2731
78421W        W21334   7.429  33.147  17.727 -0.3799 -0.1374 -0.0874
78422W        W21335  25.295  14.826  25.218  0.2185 -0.2630 -0.1371
78423W        W21336   7.477  20.131   3.770 -0.0390  0.3134  0.0468
78424W        W21337  16.497  25.053  22.538 -0.1629 -0.1308  0.1356
78425W        W21338  18.098  33.976   0.193  0.1987  0.0872  0.0365
78426W        W21339  16.306  33.236   9.656 -0.0771  0.1136 -0.2549
78427W        W21340   3.014   9.151  28.019  0.0591  0.1274  0.1549
78428W        W21341  15.494  24.296  26.981 -0.0686  0.0592  0.1509
78429W        W21342  16.711   1.634  11.112 -0.1489  0.1654 -0.2306
78430W        W21343  28.555  29.031  23.547  0.1124 -0.0279  0.0754
78431W        W21344  18.461  30.017   9.612  0.1175 -0.1620  0.2387
78432W        W21345  18.745  30.431  20.067  0.1251  0.0412  0.1393
78433W        W21346  18.780  26.148   1.344 -0.1624 -0.2548  0.1176
78434W        W21347  19.900  21.980  20.647 -0.2373 -0.0703 -0.3379
78435W        W21348  18.306  18.426  26.921 -0.2814 -0.1449 -0.2523
78436W        W21349  15.925  20.141  24.469  0.3377  0.4160 -0.0906
78437W        W21350   5.293  24.253  14.894  0.0909  0.0007  0.1435
78438W        W21351  11.142  30.243  26.846  0.1888 -0.0324  0.0013
78439W        W21352  22.214  20.043   1.280  0.2103 -0.0347 -0.0205
78440W        W21353  12.915  32.130   1.013 -0.2430 -0.1117 -0.0151
78441W        W21354  12.004  25.928  29.171 -0.1932  0.1096 -0.0250
78442W        W21355  24.995  20.162  23.438  0.1958 -0.2421  0.0178
78443W        W21356  21.554  20.626  26.568 -0.1743 -0.2022  0.2046
78444W        W21357   9.843  23.293   6.374  0.0744 -0.0751 -0.2432
78445W        W21358  17.644  17.041   4.495  0.1797 -0.0254  0.0429
78446W        W21359  25.518  28.985  23.230  0.0735 -0.1154  0.1373
78447W        W21360  24.684  23.455  26.736  0.3415 -0.0036  0.2006
78448W        W21361  12.706  29.352  29.088 -0.1738  0.0727 -0.0134
78449W        W21362  15.335  26.962  16.885  0.2972  0.0533  0.0453
78450W        W21363  14.397  21.628   4.025  0.3466 -0.1731 -0.1924
78451W        W21364  10.580  28.896   2.169 -0.0305  0.0514 -0.2287
78452W        W21365  19.994  22.756  28.930 -0.1920  0.0752 -0.2649
78453W        W21366   3.729  23.815  24.757  0.1123  0.1221 -0.2332
78454W        W21367  18.596  15.769  13.155  0.3346  0.2559 -0.1294
78455W        W21368   2.667  22.360  25.007  0.0369 -0.1191 -0.0096
78456W        W21369   9.815  25.884  28.273 -0.2869 -0.1570  0.0740
78457W        W21370  21.918  20.126   0.039  0.1114  0.0677 -0.0739
78458W        W21371  16.199  21.691  16.429 -0.1501 -0.1635  0.1063
78459W        W21372   9.655  29.845  24.667 -0.3019  0.0565 -0.1805
78460W        W21373  10.987  17.680   0.438  0.0475 -0.0586 -0.1823
78461W        W21374  15.977  31.286  20.464  0.0153  0.2628  0.1971
78462W        W21375  22.106  21.514  15.373 -0.3156 -0.0658  0.2855
78463W        W21376  12.319  24.723  23.987  0.1142  0.1402 -0.0203
78464W        W21377  13.514  25.876  21.554 -0.0018 -0.1384 -0.0848
78465W        W21378  18.263  26.374   4.582 -0.1974  0.0521 -0.0464
78466W        W21379   9.719   1.835  23.977 -0.3461  0.1537  0.0727
78467W        W21380  14.654  26.888  23.834 -0.0075  0.1430  0.1480
78468W        W21381  10.414  28.604   1.181 -0.2585  0.1700 -0.2893
78469W        W21382  15.780  21.133   1.316  0.2453  0.1332 -0.2227
78470W        W21383  18.090  18.589  24.478 -0.0822 -0.2277  0.1580
78471W        W21384  11.303  22.716  29.307  0.2466 -0.0318 -0.1786
78472W        W21385  12.032  32.463  26.949 -0.0079 -0.3045  0.1260
78473W        W21386  20.220  20.310  27.958 -0.3310 -0.0348 -0.1591
78474W        W21387  17.946  18.640   5.546 -0.1303  0.1988  0.1640
78475W        W21388   8.310  27.608   2.257 -0.0050 -0.0961 -0.0161
78476W        W21389  25.224  18.783   3.217  0.1305 -0.2196 -0.1749
78477W        W21390  20.286  31.417  25.163  0.1398  0.1908 -0.3691
78478W        W21391  14.773  20.357  20.729 -0.0653 -0.0690  0.0732
78479W        W21392  21.527  26.325  21.613  0.2370 -0.1986  0.4222
78480W        W21393  14.563  20.011  25.114 -0.3469 -0.1280 -0.2147
78481W        W21394  25.557  20.303   2.634  0.0196  0.0778  0.0757
78482W        W21395  19.321  25.075   4.492  0.1468  0.1006 -0.3915
78483W        W21396  11.505  34.017  20.067  0.2678 -0.0873  0.0104
78484W        W21397   7.203  16.272   6.140  0.0307  0.1930 -0.1657
78485W        W21398  25.448  19.967  29.359 -0.1107 -0.0736 -0.0638
78486W        W21399  22.227  19.269  23.373 -0.5429  0.0814  0.3890
78487W        W21400   9.537  27.745  29.106 -0.0426 -0.2224 -0.1466
78488W        W21401   5.104  17.910   3.471 -0.2264  0.4329  0.0441
78489W        W21402   8.869  22.273   9.139 -0.0284  0.0579  0.2478
78490W        W21403  16.729  28.619  20.698  0.1527  0.0160 -0.4095
78491W        W21404  22.434   1.802  22.314 -0.2363 -0.4105  0.0036
78492W        W21405  14.315  27.137  28.058  0.1992 -0.1490 -0.0454
78493W        W21406   6.859  19.065   5.477 -0.1988 -0.1077  0.2737
78494W        W21407  19.369  20.880  24.966 -0.3161  0.1443 -0.4532
78495W        W21408  12.990  29.422   5.394 -0.1769  0.1151 -0.0358
78496W        W21409  18.974  28.134  21.770 -0.4146  0.0364 -0.0712
78497W        W21410   9.488  22.432   1.018  0.2322 -0.2585  0.1403
78498W        W21411  12.793  31.972  28.672 -0.0124 -0.0142  0.1105
78499W        W21412  14.406  29.636  16.474 -0.3708 -0.4335  0.0735
78500W        W21413  14.413  23.950  28.294  0.3919  0.0745  0.0651
78501W        W21414  18.044  30.052   4.622 -0.1745 -0.0900 -0.0975
78502W        W21415  14.638  19.710  28.567  0.0893 -0.2678 -0.2880
78503W        W21416  17.791   9.972   2.570 -0.2317 -0.1272  0.1812
78504W        W21417   4.663  16.563  16.533  0.4326  0.1421 -0.2158
78505W        W21418   7.724   9.310   3.611 -0.1959 -0.1844  0.0008
78506W        W21419  19.701  24.266  27.921  0.1571  0.1195 -0.0682
78507W        W21420  11.211  27.010  18.648 -0.0211  0.0771  0.3759
78508W        W21421  19.270  14.712  28.918  0.0990 -0.2471  0.4060
78509W        W21422  18.203  32.625   5.566  0.0621 -0.2494 -0.0299
78510W        W21423  14.948  29.840  21.677  0.1266  0.0611 -0.0669
78511W        W21424  33.222  20.366   2.008  0.2894 -0.0651 -0.0308
78512W        W21425  19.577  24.088  22.771 -0.1582  0.0889 -0.1021
78513W        W21426  16.978  28.396  22.729 -0.4326 -0.3659  0.1370
78514W        W21427  11.447  30.750   1.303  0.1732  0.0525 -0.0858
78515W        W21428  20.628  26.517   4.152  0.1211 -0.0111 -0.3706
78516W        W21429  19.149  24.384   8.789  0.1876  0.0019  0.1737
78517W        W21430  16.172  21.114   4.940 -0.0219  0.1258 -0.0457
78518W        W21431  17.997  23.616   6.495 -0.2139  0.2539  0.1090
78519W        W21432  17.104   5.488   5.273 -0.1830  0.1211 -0.0050
78520W        W21433  20.200  31.340  25.677 -0.0705 -0.2573  0.0809
78521W        W21434  11.574  29.422  27.462 -0.0535 -0.0732  0.1626
78522W        W21435  11.623  23.347   4.658  0.4041  0.4161 -0.1283
78523W        W21436  24.486  21.001  26.187  0.3320  0.1989 -0.3061
78524W        W21437  14.743  19.865  26.082  0.3216 -0.1843  0.2409
78525W        W21438  20.739  10.967   2.042  0.2973 -0.2303 -0.0573
78526W        W21439  18.026  12.292  17.099 -0.2133 -0.0870  0.1116
78527W        W21440  18.569  19.356  24.263 -0.1174 -0.0860 -0.4617
78528W        W21441  17.511  30.006  22.168  0.1418  0.1527  0.1968
78529W        W21442  14.757  28.105  26.880  0.2554 -0.1949 -0.0801
78530W        W21443  20.928  34.152  20.890  0.0982 -0.2763  0.1738
78531W        W21444  14.217  22.589  27.275 -0.0459  0.0715 -0.1255
78532W        W21445  19.428  20.410   4.690 -0.2070  0.3468 -0.1795
78533W        W21446  12.490  21.402  25.069 -0.2748 -0.1956 -0.1627
78534W        W21447  21.011  19.749  15.979 -0.2956  0.2162 -0.1029
78535W        W21448  13.742  17.359  17.393 -0.1051  0.2386  0.1348
78536W        W21449  19.554  14.437  28.437  0.1016 -0.1085 -0.2972
78537W        W21450   8.034   1.093   0.206  0.1880  0.0239 -0.0411
78538W        W21451  11.131  17.235  17.780  0.1774  0.1679 -0.1296
78539W        W21452   4.836  16.635  22.373  0.1117 -0.0288 -0.0584
78540W        W21453  13.402  18.898  26.094  0.0782  0.0392  0.2460
78541W        W21454  19.508  23.361  29.440  0.1861  0.3082  0.3405
78542W        W21455  16.215  28.862   1.773  0.2685 -0.2767 -0.0334
78543W        W21456   7.185  21.069   2.220 -0.0717  0.2252  0.0780
78544W        W21457  31.661  26.115  10.075 -0.0471  0.1735 -0.0899
78545W        W21458  11.014  25.533  28.202 -0.1264 -0.0842 -0.0619
78546W        W21459  18.715  24.847   2.541 -0.0287 -0.1881 -0.2480
78547W        W21460  27.149  18.299   1.504  0.0447 -0.0943 -0.0828
78548W        W21461  18.860  10.030   3.073 -0.0750  0.0018  0.0087
78549W        W21462  19.856  29.711   4.552  0.1769  0.1514 -0.0453
78550W        W21463  13.281  25.133  16.443 -0.0754  0.0143 -0.0626
78551W        W21464  23.878  33.872  29.129 -0.2758 -0.0395 -0.3351
78552W        W21465  17.562  23.928   8.825  0.4243 -0.0096 -0.0484
78553W        W21466  12.597  24.204   6.484  0.2945 -0.0411 -0.0861
78554W        W21467  12.892  24.942  18.611 -0.2884 -0.0154 -0.0367
78555W        W21468  10.735  23.265   4.835 -0.0841  0.2383 -0.2340
78556W        W21469  16.953  21.260   1.189 -0.0177  0.0307 -0.1454
78557W        W21470  13.768  23.343   1.573 -0.2031  0.2220 -0.1158
78558W        W21471  20.595  18.761   5.574  0.1498 -0.0637 -0.0396
78559W        W21472   6.322  29.663   8.369 -0.0198 -0.0817 -0.3197
78560W        W21473  10.772  21.719   1.137 -0.1535 -0.0809 -0.0407
78561W        W21474  10.934  23.261   8.266  0.1805  0.0340 -0.2254
78562W        W21475   3.267  19.356   1.728  0.0977  0.3177  0.1250
78563W        W21476  14.380  24.907   1.737 -0.0434  0.2083  0.0908
78564W        W21477  16.548  24.355   2.417  0.0585 -0.2385  0.0130
78565W        W21478  18.724   6.942  29.757  0.3706 -0.0656  0.0506
78566W        W21479  17.783  10.942   6.609 -0.0980  0.1046 -0.2795
78567W        W21480   9.811  28.226  24.532  0.0747  0.0137  0.0716
78568W        W21481   6.350  23.990   1.426  0.1658  0.2288 -0.0506
78569W        W21482  20.350  20.366   5.140  0.3917 -0.0777 -0.2553
78570W        W21483  21.911  28.228   3.088  0.1611 -0.1812  0.0612
78571W        W21484  12.409  23.397  26.588 -0.0809 -0.1389 -0.1357
78572W        W21485  23.115  22.270   8.048  0.3441  0.1196  0.0094
78573W        W21486  14.079  23.536  25.235  0.2813 -0.3758 -0.0420
78574W        W21487  12.566  12.964  26.290  0.1036  0.3098 -0.2231
78575W        W21488  25.123  31.722   6.922 -0.2055 -0.2153  0.0782
78576W        W21489  14.127  12.593  27.371 -0.3231  0.0223  0.2240
78577W        W21490  26.837  21.877  28.956  0.2218 -0.1197 -0.2904
78578W        W21491  20.404  24.055   7.047  0.2983  0.3003 -0.4141
78579W        W21492  18.310  34.374   3.278 -0.1338 -0.0690  0.1096
78580W        W21493  23.910  27.950   4.054  0.1161  0.0219  0.1700
78581W        W21494  16.437  27.625   0.916  0.1611  0.3729 -0.2598
78582W        W21495  15.383  23.000   8.750  0.0540 -0.0226 -0.3554
78583W        W21496  22.101  26.698   3.130  0.3476  0.2271  0.0315
78584W        W21497  17.922  20.129   3.202  0.0553  0.0567 -0.2090
78585W        W21498  16.455  22.145   6.682 -0.2203  0.1866  0.0404
78586W        W21499  12.685  19.321  18.638  0.1596  0.0321 -0.3414
78587W        W21500  28.354  24.704  26.136  0.1447 -0.4194 -0.2070
78588W        W21501  30.944  30.730  24.108  0.0123  0.1606 -0.0645
78589W        W21502  16.482  28.562   2.890  0.2157 -0.0686 -0.2200
78590W        W21503   6.622  20.709  17.381  0.2404 -0.0395  0.0560
78591W        W21504   9.596  15.982  22.471 -0.2886  0.0788 -0.1235
78592W        W21505  21.340   9.713  20.062  0.0353 -0.0892  0.2839
78593W        W21506  15.622  13.425   0.055  0.0502 -0.3893 -0.0905
78594W        W21507  17.948  25.872   5.792 -0.0272 -0.2761  0.0220
78595W        W21508  20.039  21.992  27.713  0.1826  0.1884 -0.1015
78596W        W21509  18.373  12.311  27.339  0.0572  0.0456 -0.2669
78597W        W21510  11.095  21.461  29.406  0.2276 -0.0880 -0.0156
78598W        W21511  19.920  30.409  21.579 -0.2827 -0.0058  0.1340
78599W        W21512  15.492  19.979  24.778  0.0215 -0.2771 -0.2260
78600W        W21513   4.521  30.468  22.783  0.2200  0.0591 -0.2673
78601W        W21514  14.692  22.064  20.886  0.2842 -0.1531  0.1033
78602W        W21515  12.481  30.374   0.368 -0.0546  0.1458  0.0496
78603W        W21516  10.413  27.689   5.699 -0.0896  0.1427 -0.0177
78604W        W21517  26.428  34.072  27.979 -0.0238  0.1208  0.0901
78605W        W21518  33.575  24.205  23.102 -0.0268  0.3364  0.0271
78606W        W21519  14.604  26.507   6.360  0.0247  0.0743 -0.5012
78607W        W21520  16.890  28.034  21.905  0.0107  0.1582  0.2371
78608W        W21521  22.420  14.221  20.972  0.0117  0.5870 -0.1152
78609W        W21522  13.401  24.118  18.004  0.0605 -0.5889 -0.3514
78610W        W21523  21.522   3.829  13.512 -0.2106  0.0347  0.0675
78611W        W21524  14.671  32.213  18.124  0.1221  0.1517  0.1759
78612W        W21525  12.613  32.015  21.936 -0.0041  0.1604 -0.0946
78613W        W21526  19.421  27.508  19.983  0.1239  0.1732  0.1038
78614W        W21527  18.621  24.775  19.311  0.0823  0.0183 -0.1650
78615W        W21528   4.268  23.916  19.995  0.1774  0.2671 -0.1315
78616W        W21529  20.419  30.640  18.839 -0.0658 -0.0385  0.1651
78617W        W21530  16.411  29.709  21.388  0.2322  0.2327  0.2249
78618W        W21531  16.796  22.890  20.291 -0.1197 -0.0335  0.3148
78619W        W21532  14.516  24.346  14.263  0.0198 -0.1965  0.1986
78620W        W21533  24.226  27.139  18.700  0.1588  0.3643 -0.0339
78621W        W21534  21.055  24.287  27.844 -0.2032  0.2267  0.2557
78622W        W21535   6.623  32.787  21.923  0.0567 -0.2240 -0.2072
78623W        W21536  18.561  29.310  15.396 -0.3601  0.1102  0.2265
78624W        W21537  14.590  31.469  25.753 -0.1889  0.0291 -0.2971
78625W        W21538  17.748  21.988  14.821  0.3362 -0.1719 -0.2061
78626W        W21539  22.353  16.664   1.436 -0.1450 -0.2202 -0.1762
78627W        W21540  24.801  20.812  13.555  0.4586  0.0969  0.0542
78628W        W21541  15.291  29.844  26.484 -0.4511  0.3095 -0.0253
78629W        W21542  20.716  32.008  19.005 -0.1287 -0.2008  0.1357
78630W        W21543  13.561  16.718  13.725  0.0802  0.0862 -0.1825
78631W        W21544   9.964  22.741  22.457 -0.0403 -0.0804 -0.1157
78632W        W21545  13.556  27.378  28.131 -0.3968 -0.1560 -0.0755
78633W        W21546   9.674  22.033  24.675  0.1679 -0.2070  0.2061
78634W        W21547  20.223  24.249  26.499  0.0237 -0.0951 -0.0323
78635W        W21548  22.441  12.742  15.809 -0.1680  0.0019  0.2954
78636W        W21549  14.342  21.280  14.222  0.0872  0.0230 -0.1277
78637W        W21550  16.593  23.492  13.737 -0.0919 -0.3121 -0.1806
78638W        W21551  24.223  27.506  14.745  0.2789  0.0200 -0.0338
78639W        W21552   9.265  27.501  21.721 -0.1952 -0.2737  0.0956
78640W        W21553  15.043   1.203  22.552 -0.3547  0.1051 -0.0656
78641W        W21554  25.792  33.793  21.342  0.0573  0.1143 -0.1336
78642W        W21555  12.261  29.674  18.542 -0.2614  0.1602 -0.0307
78643W        W21556  10.001  21.626  19.260 -0.0905 -0.2557 -0.0240
78644W        W21557  20.933   2.955  18.247  0.1749  0.0805 -0.2471
78645W        W21558  13.534  29.720  21.181 -0.1133  0.1360  0.0264
78646W        W21559  21.087   0.301  16.268 -0.0485 -0.1492 -0.2428
78647W        W21560  14.527   0.729  23.203  0.1860 -0.1961  0.1016
78648W        W21561  21.359  21.676  13.059 -0.3051 -0.0489 -0.0133
78649W        W21562   9.243  13.774  19.418  0.1369 -0.0297  0.0303
78650W        W21563  27.278  32.042  15.451 -0.0227 -0.0225 -0.0392
78651W        W21564  15.894  30.911  21.995 -0.0577 -0.0650 -0.0114
78652W        W21565  12.200  22.040  16.347  0.0671 -0.1442  0.0704
78653W        W21566  19.819  31.282  13.683  0.1247  0.3806 -0.1529
78654W        W21567  18.325   1.982  24.296  0.1093  0.0922  0.1944
78655W        W21568  32.828  16.760  17.326 -0.0822  0.0647  0.1055
78656W        W21569  20.011  32.072  14.305  0.0211  0.0691  0.2462
78657W        W21570  11.072  19.412  15.200 -0.1669 -0.1046 -0.0723
78658W        W21571  15.025  20.745  19.544 -0.1035 -0.2713 -0.0614
78659W        W21572  12.006  26.259  16.844 -0.2093 -0.2426 -0.1609
78660W        W21573  16.254  28.512  22.479  0.0084 -0.1416 -0.0150
78661W        W21574  22.677  22.961  17.534  0.2186  0.2525  0.1372
78662W        W21575  15.128  24.214  19.474 -0.0765  0.1684 -0.0843
78663W        W21576  23.681  23.639  20.878 -0.0782 -0.0005 -0.2451
78664W        W21577   7.953  34.281  17.814  0.0505 -0.0763 -0.0359
78665W        W21578  19.939  27.973   0.416  0.0808 -0.1963 -0.0236
78666W        W21579   3.008  17.340  16.732  0.1282  0.1931 -0.0704
78667W        W21580  24.621  29.471  18.616 -0.0145 -0.2689  0.2328
78668W        W21581  24.368  31.063  18.164 -0.0812 -0.1064  0.2843
78669W        W21582  12.345  32.089  18.988 -0.0233  0.1734 -0.2913
78670W        W21583  13.103  32.102  20.356 -0.4899  0.0674 -0.2355
78671W        W21584  23.241  18.377  23.570  0.0674  0.1613 -0.2344
78672W        W21585   0.525  29.493  23.486 -0.0423 -0.1036  0.0409
78673W        W21586  19.606  33.961  21.432  0.0508  0.0303  0.0070
78674W        W21587   3.491  31.088  15.668 -0.2875 -0.2769  0.0687
78675W        W21588  25.784  26.298  15.877  0.0597  0.0768  0.0020
78676W        W21589  16.939  28.822  19.715 -0.1326 -0.2161  0.3478
78677W        W21590  17.086  28.291  14.423 -0.1523 -0.4042 -0.3088
78678W        W21591  23.528  29.086  15.596 -0.2877  0.0527  0.1026
78679W        W21592  10.561  13.765  19.511 -0.0995  0.1869  0.1289
78680W        W21593  17.901  25.521  13.678  0.2969  0.0071  0.1997
78681W        W21594  21.816  32.594  13.567 -0.4188 -0.0009 -0.4753
78682W        W21595  17.892  12.742  12.576 -0.0941  0.3463  0.1283
78683W        W21596  21.625  27.341  18.051  0.3058 -0.6097  0.3950
78684W        W21597  19.252  22.633  14.491  0.0139 -0.0545  0.0551
78685W        W21598   5.976  17.520  28.612 -0.1830 -0.1031  0.0905
78686W        W21599  19.606  20.171  14.307  0.1381  0.1669 -0.1490
78687W        W21600   0.663  14.068  16.717  0.0987 -0.1237  0.1629
78688W        W21601  16.230  29.473  15.627 -0.1315  0.2775  0.0804
78689W        W21602   6.367  23.773  14.587  0.0714 -0.2569 -0.0010
78690W        W21603  19.858  23.649  13.447 -0.1380 -0.0905  0.4233
78691W        W21604  10.783  27.354  17.584 -0.2357 -0.4044 -0.1140
78692W        W21605  22.179  21.172  18.637  0.2299  0.1945  0.0299
78693W        W21606   0.245  11.357  21.105  0.1467 -0.1736 -0.0616
78694W        W21607  19.792  24.727  15.183  0.1784 -0.1272 -0.1803
78695W        W21608   9.443  21.669  19.184  0.0616  0.1727  0.0669
78696W        W21609   4.829  19.590  18.414 -0.0965  0.4594 -0.1028
78697W        W21610  18.791  25.514  24.329  0.0967 -0.3043  0.1822
78698W        W21611  17.568  21.487  15.119 -0.0073 -0.0893  0.1007
78699W        W21612  25.962  27.118  16.285 -0.0015 -0.0745  0.0976
78700W        W21613  23.868  33.313  15.488  0.3545  0.0122 -0.0133
78701W        W21614  20.297  23.841  18.472 -0.0591 -0.3023  0.0132
78702W        W21615   8.153  32.190  18.629  0.1059 -0.0493 -0.0999
78703W        W21616  12.849  22.885  17.225  0.1891 -0.2029 -0.0771
78704W        W21617   9.731  29.497  18.203 -0.2593  0.1950 -0.2903
78705W        W21618  18.833  26.585  16.845 -0.0040  0.0701  0.1032
78706W        W21619  22.731  20.050  16.392  0.1833  0.1646 -0.0976
78707W        W21620   6.861  28.757  21.984 -0.4124 -0.0396  0.0027
78708W        W21621  18.525  22.228  13.824 -0.0841 -0.4431  0.5377
78709W        W21622   7.065  19.654  20.162  0.0854  0.1878 -0.1985
78710W        W21623  17.927  29.977  16.146 -0.0443  0.1546 -0.2946
78711W        W21624  18.942  33.256  18.569  0.2880  0.0758 -0.1978
78712W        W21625  25.637   8.540  17.962  0.2022 -0.0908  0.0694
78713W        W21626  10.794  26.507  15.668 -0.0503  0.2663 -0.1768
78714W        W21627  10.248  23.243   3.888 -0.0433 -0.2007  0.4045
78715W        W21628  13.234  25.844  15.428 -0.1913  0.2162 -0.1288
78716W        W21629  23.906   2.305  21.195 -0.0655  0.0480 -0.2023
78717W        W21630   6.939  21.058  18.763  0.3826  0.1197 -0.1061
78718W        W21631   8.326  30.144  17.017 -0.0285 -0.0194  0.0412
78719W        W21632   1.990  31.707  22.542 -0.4579  0.0456  0.0920
78720W        W21633   9.370  20.904  22.679  0.2315  0.2043 -0.0824
78721W        W21634  22.803   1.173  14.446 -0.0755  0.1237  0.1545
78722W        W21635  24.831  28.210  23.298  0.2004  0.0427 -0.0107
78723W        W21636  12.939  30.237  19.282  0.3385  0.2149  0.0821
78724W        W21637   5.747  23.290  21.301  0.0380  0.1519 -0.0995
78725W        W21638  20.079  29.932  19.540  0.1068 -0.2598 -0.0481
78726W        W21639   5.118  31.224  24.072 -0.1822  0.1446  0.1361
78727W        W21640  18.650  28.120  19.053 -0.1973  0.1267 -0.0692
78728W        W21641  16.033  24.461  20.254 -0.1165 -0.1007  0.3207
78729W        W21642  32.074  25.088  16.639  0.2712 -0.0777 -0.0736
78730W        W21643  15.394  26.448  24.124 -0.0458 -0.1940  0.1183
78731W        W21644   8.022  21.504  20.684  0.1438  0.0992  0.2880
78732W        W21645  15.774  23.830  14.168  0.4606 -0.2933  0.1210
78733W        W21646  16.564  23.123  20.758 -0.3172 -0.4072 -0.0442
78734W        W21647   6.288  23.298  22.202  0.0198 -0.0494  0.2583
78735W        W21648  32.640  24.930  14.859 -0.0135  0.0929  0.0215
78736W        W21649  16.395  15.250  14.418  0.4663  0.3299  0.0498
78737W        W21650  19.474  25.302  18.949 -0.0054 -0.3645 -0.0251
78738W        W21651  18.832  34.422  20.689 -0.1152 -0.4643 -0.0648
78739W        W21652  14.617  26.134  19.008  0.0612 -0.0502 -0.1389
78740W        W21653  18.253  28.660  20.554  0.1643 -0.1715  0.0605
78741W        W21654  14.554  24.592  17.051 -0.1361  0.2956 -0.4072
78742W        W21655  16.208  31.721  18.117 -0.1227 -0.2410  0.5517
78743W        W21656  21.149  22.478  18.296 -0.0553  0.2786  0.0476
78744W        W21657  23.969  33.485  22.556  0.1436  0.0985  0.1950
78745W        W21658   5.849  29.912  23.166 -0.2279  0.0943  0.0123
78746W        W21659  21.297  26.451  12.663 -0.2740 -0.0158  0.0513
78747W        W21660  23.127  33.676  19.457  0.1505  0.1497  0.1260
78748W        W21661   6.376   0.366  19.202 -0.1576  0.3819  0.2458
78749W        W21662  11.588  19.115  17.751  0.1359 -0.0211 -0.1244
78750W        W21663  14.269  17.013  15.730 -0.0803 -0.2606 -0.1263
78751W        W21664  23.015   0.965  18.629  0.3204 -0.1121 -0.2870
78752W        W21665  22.980  29.591  25.957 -0.0088  0.1871 -0.0000
78753W        W21666  20.976  20.755  21.424 -0.1246 -0.1466 -0.0444
78754W        W21667  19.088  27.330  18.902  0.0005  0.0145 -0.0060
78755W        W21668  25.758  33.204  17.200  0.0450  0.2442 -0.0514
78756W        W21669  23.458  25.015  16.923 -0.1824 -0.1857 -0.2852
78757W        W21670   7.771  14.937  21.499  0.1834 -0.0088 -0.1125
78758W        W21671   5.527  29.533  18.452 -0.1921 -0.1017 -0.0824
78759W        W21672  23.343  32.071  21.524 -0.1520 -0.0567 -0.1645
78760W        W21673  19.822  33.124  14.436 -0.0160 -0.3406  0.0422
78761W        W21674  16.374  26.294  16.442  0.0133  0.2025 -0.0876
78762W        W21675  24.081  29.877  15.325 -0.0206  0.3395  0.1401
78763W        W21676   8.071  25.921  15.491 -0.3465 -0.1519  0.0295
78764W        W21677  25.770  23.655  16.345  0.3507  0.3715 -0.0142
78765W        W21678   8.279  27.604  25.635 -0.0908  0.2154 -0.0889
78766W        W21679  14.774  25.796  26.985  0.0777 -0.0010 -0.0915
78767W        W21680  21.688  32.775  19.695  0.2598 -0.0524  0.0201
78768W        W21681   2.055  16.861  16.010 -0.1478 -0.4458 -0.1842
78769W        W21682  20.294  31.095  21.835  0.0085 -0.0785  0.0005
78770W        W21683  22.636  32.103  15.549 -0.0130 -0.1546 -0.1208
78771W        W21684  21.510  31.143  16.949  0.0935 -0.0015  0.2489
78772W        W21685  12.701  26.990  18.962 -0.0779 -0.1833 -0.2073
78773W        W21686  26.806  14.113  15.112  0.2983 -0.1002  0.1701
78774W        W21687  31.950  25.890  20.543  0.1258 -0.0537 -0.0328
78775W        W21688  21.979  29.939  22.221  0.0950 -0.0898 -0.2630
78776W        W21689  20.916  24.049  21.697  0.0863  0.1779 -0.0265
78777W        W21690  18.216  27.347  18.062 -0.1930 -0.2401 -0.3354
78778W        W21691  24.387  23.048  13.433 -0.2149 -0.0149 -0.1259
78779W        W21692   8.624  19.056  18.626 -0.1137  0.0674 -0.0376
78780W        W21693  24.114  30.492  15.211 -0.0102  0.1244 -0.0075
78781W        W21694  18.765  21.758  12.471  0.2469 -0.0696  0.0561
78782W        W21695   7.872  20.689  13.791 -0.2734  0.0335 -0.1203
78783W        W21696  26.332  21.003  19.184 -0.0215 -0.1891 -0.2131
78784W        W21697  10.342  29.687  16.998  0.1869 -0.0296 -0.1258
78785W        W21698   9.632  24.673  14.912  0.4532  0.2344 -0.1406
78786W        W21699  24.726  18.073  17.461 -0.1659 -0.1185  0.1156
78787W        W21700  20.573  26.641  20.250  0.1788  0.0558 -0.1867
78788W        W21701  20.872  31.484  27.804  0.2390 -0.0607  0.0600
78789W        W21702  27.611  34.317  18.323  0.0249 -0.0271  0.1452
78790W        W21703   9.294  26.033  19.481  0.0680 -0.1960 -0.3566
78791W        W21704  20.931  29.990  14.393  0.3712 -0.4429 -0.2295
78792W        W21705  16.169   0.668  20.218 -0.2462 -0.0919  0.0912
78793W        W21706  18.352  11.912  12.308 -0.1560  0.2683 -0.0849
78794W        W21707   7.794  29.576  19.982  0.2739 -0.2123 -0.0058
78795W        W21708  17.321  26.490  19.769 -0.2130  0.2480 -0.0828
78796W        W21709  15.406  21.780  21.235 -0.0779  0.0262  0.1665
78797W        W21710  19.015  10.730  16.509 -0.0490 -0.0365 -0.2387
78798W        W21711  25.144  26.772  18.304 -0.0931  0.0488 -0.0629
78799W        W21712  27.570  32.815  14.193 -0.0752  0.0127 -0.2072
78800W        W21713  10.425  32.495  22.358  0.3701 -0.1370  0.0297
78801W        W21714  22.280  21.511  13.044 -0.2636  0.0653 -0.1457
78802W        W21715  20.844  22.980  20.111  0.0193  0.1917  0.0824
78803W        W21716  19.907  23.467  20.311  0.2625  0.2538  0.0177
78804W        W21717   4.956  34.117  19.596 -0.3278 -0.0854 -0.1221
78805W        W21718  18.818  31.932  18.576 -0.0138 -0.2421 -0.1093
78806W        W21719  13.517  32.339  20.362 -0.3009 -0.1395 -0.2599
78807W        W21720  20.551   0.138  24.364  0.0566 -0.0146  0.0042
78808W        W21721  23.108  28.779  20.838 -0.0853  0.2081  0.2126
78809W        W21722   7.410  23.656  15.769 -0.2125  0.4621  0.1765
78810W        W21723  23.465  24.676  25.740  0.0638 -0.2815  0.0245
78811W        W21724  21.051  31.016  16.687 -0.1746  0.3560 -0.0463
78812W        W21725  19.198  21.442  17.435  0.1132 -0.1151  0.0057
78813W        W21726  12.792  27.766  20.627  0.0405 -0.2030 -0.4156
78814W        W21727  24.892  24.929  18.169 -0.3082 -0.0049 -0.1418
78815W        W21728  12.775  13.859  14.244  0.3243 -0.0837 -0.1105
78816W        W21729  17.131  27.609  20.162 -0.0463 -0.0963  0.1732
78817W        W21730   6.935  32.918  18.660  0.0276  0.1576  0.0481
78818W        W21731  29.613  24.900  21.041  0.0524 -0.0088  0.2340
78819W        W21732  10.568  16.151  22.411 -0.2314  0.1132  0.0522
78820W        W21733  21.201  32.616  23.886 -0.0115  0.1435  0.0004
78821W        W21734   7.602  31.342  21.615 -0.2641 -0.1842 -0.0139
78822W        W21735  23.065   7.957  22.994 -0.1092  0.1846 -0.3654
78823W        W21736  13.756  20.680  13.855 -0.3130  0.1632 -0.0964
78824W        W21737   4.491   6.984  25.861  0.0782  0.0472  0.0412
78825W        W21738  26.981  26.148  16.405  0.0740 -0.1345 -0.2288
78826W        W21739  14.950  26.292  16.777  0.0983 -0.0060  0.2711
78827W        W21740  19.335  21.218  15.943  0.1448 -0.3199 -0.2712
78828W        W21741  11.882  23.899  19.674  0.0564  0.1114  0.0088
78829W        W21742  21.421  31.711  16.598  0.1590  0.0154  0.0200
78830W        W21743  17.759  30.278  19.205 -0.1591  0.3139 -0.0938
78831W        W21744   7.416  26.338  15.022 -0.2285 -0.0229  0.0393
78832W        W21745  27.131  12.554  16.879  0.0597  0.0371 -0.1548
78833W        W21746   7.004  30.482  17.107 -0.0962  0.2885 -0.1198
78834W        W21747  15.795  21.333  14.799 -0.1972 -0.0784  0.0968
78835W        W21748   9.896  19.800  28.361  0.0259 -0.1174  0.0616
78836W        W21749  26.810   2.217  20.092  0.0443  0.2184  0.0565
78837W        W21750  16.136  10.289  23.892 -0.0176 -0.0192  0.0963
78838W        W21751  22.899  28.390  14.646  0.2815 -0.0022 -0.1191
78839W        W21752   9.686  27.481  18.382 -0.0387 -0.0715  0.0084
78840W        W21753  22.999  25.261  22.549  0.3566 -0.2217  0.3706
78841W        W21754  18.195  27.302  22.036 -0.3373 -0.0192 -0.0368
78842W        W21755  18.618  14.921  13.726 -0.1098 -0.2510 -0.1484
78843W        W21756  27.154  26.915  20.171 -0.0830 -0.0505  0.2166
78844W        W21757  19.864   1.013  22.979  0.1916  0.0215  0.1868
78845W        W21758  20.030   0.037  23.310  0.0335 -0.0076  0.3526
78846W        W21759  13.010  24.296  21.753  0.0967 -0.2752 -0.2198
78847W        W21760  21.990  30.950  17.050 -0.0027  0.1464  0.1706
78848W        W21761  27.376   4.082  17.785 -0.0100 -0.0799  0.1374
78849W        W21762  20.555   8.771  20.914 -0.3360 -0.2173  0.0528
78850W        W21763  18.934  28.833  19.143 -0.0644 -0.0002 -0.2627
78851W        W21764   0.464  30.216  18.672 -0.1420  0.1788  0.0958
78852W        W21765   4.031  31.529  16.330 -0.0070  0.2886  0.1577
78853W        W21766  22.895  26.600  22.052 -0.2557  0.1079  0.4274
78854W        W21767  21.516  18.324  15.180  0.1588  0.1657 -0.0665
78855W        W21768  22.125  22.369  18.400 -0.2702 -0.2813 -0.0865
78856W        W21769  26.160  28.440  12.953  0.0080 -0.1360  0.1036
78857W        W21770  10.642  14.829  20.421 -0.0732 -0.4077  0.1256
78858W        W21771  28.460  31.702  18.708 -0.0954 -0.1487  0.3149
78859W        W21772   4.470  24.269  17.400 -0.1090 -0.0671  0.0774
78860W        W21773   2.657  18.472  19.972  0.0596  0.0269  0.0108
78861W        W21774  23.652  18.571  18.675 -0.2372 -0.1153 -0.1084
78862W        W21775   9.440  33.482  19.517 -0.0291 -0.3625 -0.2170
78863W        W21776   8.338  26.281  20.038 -0.2154  0.0260  0.0550
78864W        W21777  25.940   2.520  20.273  0.1206  0.3515 -0.3420
78865W        W21778  20.783  26.317  21.335  0.0285  0.2585 -0.0757
78866W        W21779   7.634  31.632  17.793 -0.2238 -0.0936  0.0483
78867W        W21780  25.090  30.155   0.467 -0.2402 -0.1123  0.2244
78868W        W21781  23.243  28.945  13.991  0.1051  0.0118 -0.1221
78869W        W21782  17.644  26.312  19.348 -0.1628 -0.1180 -0.0823
78870W        W21783  23.181  25.512  26.948  0.0743  0.1243  0.0230
78871W        W21784  11.602  20.319   0.160 -0.0117  0.0368 -0.0886
78872W        W21785  26.041  24.897  12.265 -0.0739  0.2594 -0.0333
78873W        W21786  23.523  30.968  19.911  0.3593  0.0949 -0.2105
78874W        W21787   9.905  29.689  16.242 -0.1633 -0.0188 -0.2754
78875W        W21788  16.420  22.514  20.558 -0.2173 -0.1270 -0.3088
78876W        W21789  12.842  19.279  16.005  0.0462 -0.2637 -0.2038
78877W        W21790  25.550  33.091  19.701  0.1057 -0.2173  0.0846
78878W        W21791  18.635  24.705  15.134 -0.0632 -0.0781 -0.1851
78879W        W21792  16.155  24.459  16.630 -0.0568  0.1343 -0.0489
78880W        W21793  13.838  22.756  18.140  0.3545  0.0599  0.3821
78881W        W21794  12.962   3.173  28.315  0.0219  0.0028 -0.1282
78882W        W21795  18.161  33.137  19.155 -0.0689  0.0370  0.1784
78883W        W21796  20.028  30.941  18.584  0.1121  0.2389  0.0977
78884W        W21797   3.575  15.146  18.700  0.2584 -0.1742  0.0574
78885W        W21798   7.436  26.256  18.817  0.0095 -0.0255  0.5103
78886W        W21799  12.178  21.742  21.754 -0.1072  0.3458 -0.2774
78887W        W21800  26.268  30.337  15.663  0.1184  0.1010  0.1721
78888W        W21801  15.791  29.967  18.972  0.0387  0.0923  0.1563
78889W        W21802  11.101  27.808  21.002  0.3099  0.1037 -0.2169
78890W        W21803   8.891  19.085  17.083  0.3073  0.1895  0.0832
78891W        W21804  19.999  27.676  13.080  0.0154 -0.1942  0.1633
78892W        W21805  24.714  28.487  25.485  0.2016 -0.0717  0.1636
78893W        W21806   9.846  22.416  14.602 -0.2105 -0.1590 -0.0303
78894W        W21807   6.956  30.142  17.602  0.0826 -0.1902 -0.0869
78895W        W21808  19.899  25.565  19.637 -0.2400 -0.0251 -0.1492
78896W        W21809  18.928  22.227  21.913  0.1809 -0.4595  0.2634
78897W        W21810  23.152   5.214  13.960  0.2039 -0.0662 -0.1331
78898W        W21811  18.248  25.957  20.637  0.2486  0.0225 -0.0063
78899W        W21812   6.334  26.546   2.992 -0.2355 -0.3494 -0.3182
78900W        W21813  25.372  16.931  17.745 -0.1597  0.0565 -0.1364
78901W        W21814  15.586  27.177  19.208 -0.0405  0.3627 -0.2850
78902W        W21815  17.522  30.352  26.526  0.2063  0.0983  0.1147
78903W        W21816  14.590  29.863  15.969 -0.1300 -0.0964  0.0752
78904W        W21817   7.268  26.184  19.243 -0.1667 -0.2083  0.4378
78905W        W21818   4.530  29.985  18.708  0.0993 -0.1572  0.1045
78906W        W21819   6.744  27.487  21.614 -0.5149  0.0038 -0.1237
78907W        W21820  19.697  25.740  20.478 -0.1070  0.1532 -0.2354
78908W        W21821  26.221  22.086  25.069  0.1605 -0.2655 -0.0327
78909W        W21822  22.256  26.043  17.020 -0.0688  0.0486  0.1952
78910W        W21823  11.101  14.965  17.035 -0.0648  0.1740  0.2592
78911W        W21824  11.886  24.098  17.878 -0.3378  0.1985  0.1967
78912W        W21825  19.567  27.086  16.506  0.1093  0.1002 -0.1067
78913W        W21826  12.189  28.741  18.631 -0.3725  0.0215 -0.1246
78914W        W21827  16.045  26.106  15.633 -0.2981  0.1143  0.0824
78915W        W21828  20.425  22.301  18.434 -0.1178  0.0608 -0.0992
78916W        W21829  20.487   4.384  17.224  0.2217  0.2944  0.3218
78917W        W21830  22.954  26.817  18.067  0.2996  0.1255 -0.3618
78918W        W21831  20.391  33.541  20.943 -0.1001 -0.2131  0.0168
78919W        W21832  19.929  25.091  23.463 -0.2526  0.0695  0.1561
78920W        W21833   5.770  17.992  23.710  0.0584 -0.0157  0.2077
78921W        W21834   3.787  30.557  21.162  0.0247 -0.0444  0.4717
78922W        W21835  11.295  24.550  16.726  0.0025  0.0958 -0.1007
78923W        W21836   7.467  14.335  24.410  0.1735  0.1352 -0.0489
78924W        W21837  23.671  31.564  17.693  0.1065  0.3636  0.0065
78925W        W21838  12.890  24.095  16.000  0.3062  0.1349 -0.1168
78926W        W21839  22.011   0.551  20.217 -0.0556  0.1550 -0.2858
78927W        W21840  13.692  23.053  19.491  0.1959  0.1833  0.1065
78928W        W21841  12.552   4.029  21.861  0.2077  0.2407 -0.1340
78929W        W21842  11.302  28.586  21.735 -0.1558 -0.2148 -0.1295
78930W        W21843  20.226   5.234  13.477 -0.2084  0.2865  0.0056
78931W        W21844  17.685  33.218  27.240 -0.4941  0.0970  0.0747
78932W        W21845  14.767  25.546  18.515 -0.1017 -0.1505  0.1850
78933W        W21846   8.468  25.609  20.202  0.2443  0.1503  0.0497
78934W        W21847  12.969  22.282  19.984 -0.1193  0.1277 -0.2425
78935W        W21848  24.510  25.232  21.241  0.1424  0.1058 -0.0647
78936W        W21849  20.036  26.934  20.914  0.4631  0.1999 -0.2530
78937W        W21850  24.055  16.012  14.356  0.0634 -0.0301 -0.0074
78938W        W21851  12.409  22.151  15.850 -0.0686 -0.0770 -0.0283
78939W        W21852  19.523   1.342  14.039 -0.0638 -0.3052 -0.0701
78940W        W21853  10.004  27.038  20.642  0.0265  0.0794 -0.2101
78941W        W21854   9.792  25.130  15.589  0.0805 -0.0782  0.1120
78942W        W21855  18.742  26.553  13.523  0.1020  0.0263 -0.1816
78943W        W21856  17.140  22.423  16.760 -0.0856 -0.1945 -0.0496
78944W        W21857  23.005  27.446  15.058  0.1394 -0.0639 -0.1184
78945W        W21858  17.414  26.882  17.954 -0.0108 -0.0145 -0.1619
78946W        W21859  17.437  26.656  15.659  0.4732  0.1818  0.2352
78947W        W21860  21.170  27.450  14.051 -0.0169 -0.0879 -0.0081
78948W        W21861  13.066  32.295  28.121 -0.0963  0.1660  0.2706
78949W        W21862  18.478  28.075  17.176 -0.2901  0.0119  0.0483
78950W        W21863  17.005  29.312  16.003  0.1075  0.1013  0.1136
78951W        W21864  10.255  25.949  21.705  0.0042 -0.1599 -0.2533
78952W        W21865  23.303  22.128  15.080  0.1587  0.1936  0.0365
78953W        W21866  21.360  32.515  20.118  0.1583  0.0449  0.2339
78954W        W21867  12.560  23.872  17.219  0.1326 -0.1067  0.0926
78955W        W21868   6.005  25.208  24.402  0.1052  0.1240  0.1075
78956W        W21869  13.749  33.555  15.811 -0.0782 -0.2487  0.0058
78957W        W21870  22.160  18.018  16.604 -0.0259  0.2510 -0.1139
78958W        W21871  19.808  29.744  16.382  0.0503 -0.0539  0.3325
78959W        W21872   7.431  26.108  17.325  0.1821  0.0273  0.0288
78960W        W21873   4.069   3.218  17.636 -0.2946 -0.2417  0.2592
78961W        W21874  19.091  26.846  21.904 -0.1726  0.0938  0.3104
78962W        W21875  12.764  24.454  14.964  0.0170 -0.1267  0.3137
78963W        W21876  16.790   1.032  18.018 -0.1317 -0.2999  0.1511
78964W        W21877  11.591  29.941  19.525 -0.0115 -0.0508 -0.0057
78965W        W21878  19.914  29.387  15.038 -0.0676 -0.4080  0.0620
78966W        W21879  25.470  27.990  13.321  0.0784 -0.1658 -0.0226
78967W        W21880  30.002  21.103   1.530 -0.0218  0.0838  0.0230
78968W        W21881   0.126  15.080  20.230 -0.2953 -0.1385 -0.2376
78969W        W21882  13.758  31.308  16.342  0.1655  0.1339  0.2185
78970W        W21883  23.780  18.315  14.239  0.2882 -0.1014  0.3610
78971W        W21884  19.722  29.919  14.201  0.3182 -0.0289  0.2265
78972W        W21885  30.820  20.751  15.238 -0.2612 -0.1187  0.3169
78973W        W21886  22.483  32.585  20.779  0.4512 -0.0605  0.3244
78974W        W21887  20.320  23.489  13.336 -0.1077  0.1793 -0.0994
78975W        W21888  10.355  11.748  18.171  0.1312 -0.1217  0.2814
78976W        W21889  14.830  12.651  14.487  0.0088  0.0733 -0.0544
78977W        W21890  13.860  22.732  19.177  0.2690  0.2484  0.1449
78978W        W21891  28.426  29.837  20.681 -0.0977 -0.5162 -0.1840
78979W        W21892   7.100  15.486  25.232  0.0181  0.1193 -0.1795
78980W        W21893  15.728  24.335  19.558 -0.3371  0.1473 -0.1780
78981W        W21894  21.546  33.060  16.033  0.0772  0.0079  0.0201
78982W        W21895  10.896  23.514  16.829  0.3409 -0.1572 -0.0083
78983W        W21896  22.517  26.401  16.027  0.1884 -0.1389  0.1008
78984W        W21897  17.962  17.732  13.958  0.1582  0.2376 -0.2722
78985W        W21898  23.667  26.100  15.473  0.0989 -0.0830 -0.2778
78986W        W21899  26.408  24.108  21.756 -0.2315 -0.0944 -0.0572
78987W        W21900  11.208  30.722  16.343  0.0124  0.1060 -0.1404
78988W        W21901  17.989   5.283  26.061  0.0378 -0.1645 -0.0317
78989W        W21902  21.315  32.088  18.560 -0.0596  0.1154  0.0171
78990W        W21903  20.174  10.634  19.361  0.1471 -0.2512 -0.2257
78991W        W21904  20.415  28.715  17.117  0.1342 -0.0756 -0.1829
78992W        W21905  10.432  15.405  21.568  0.0610 -0.0508 -0.2792
78993W        W21906   0.197  30.176  26.046 -0.0015 -0.1935  0.2353
78994W        W21907  14.775  26.977  28.007 -0.1616 -0.1163  0.2203
78995W        W21908  26.323  33.794  21.569  0.0590  0.1405  0.0600
78996W        W21909  10.724  30.119  18.182 -0.2860  0.0293 -0.0481
78997W        W21910   0.118  14.262  23.016 -0.1890 -0.1177 -0.1323
78998W        W21911   8.652  25.491  18.057  0.0804  0.0040 -0.1261
78999W        W21912  24.761  27.914  18.387  0.1213 -0.1550 -0.2948
79000W        W21913  20.842  23.111  16.916 -0.0043  0.1620 -0.0217
79001W        W21914  21.733  32.679  21.823 -0.2335  0.2296 -0.0169
79002W        W21915  19.036  16.903  14.640 -0.1199  0.3279  0.0508
79003W        W21916  25.819  26.303  13.777  0.1908 -0.1246 -0.2332
79004W        W21917  12.309  18.495  23.237 -0.0283  0.0106 -0.0608
79005W        W21918  20.458  18.755  15.849 -0.2432  0.2374 -0.2269
79006W        W21919  14.231  26.561  23.379  0.0201  0.0150  0.0084
79007W        W21920  19.155  31.315  15.358 -0.1388  0.1673  0.0488
79008W        W21921  12.309  29.793  20.426  0.1382 -0.0835  0.0196
79009W        W21922   1.856  24.189  21.628 -0.2523  0.0738  0.1592
79010W        W21923  23.593  19.688  20.050  0.0989  0.1903 -0.1177
79011W        W21924  21.412  22.506  13.407 -0.3069 -0.0763 -0.4451
79012W        W21925  15.057  30.435  16.342 -0.1993 -0.0072  0.0221
79013W        W21926  21.433   0.160  17.254 -0.1901 -0.1707  0.1652
79014W        W21927  16.509  21.379  25.138  0.0393  0.1099  0.3504
79015W        W21928  20.953   3.625  22.860  0.3090 -0.0926  0.0136
79016W        W21929  19.539  29.414  20.573 -0.2709 -0.0189 -0.3526
79017W        W21930  11.451  31.856  18.990 -0.3913 -0.1551 -0.1575
79018W        W21931  21.308  22.564  22.602  0.2038  0.0844  0.2029
79019W        W21932   6.777  25.942  18.174  0.0000  0.0673 -0.0047
79020W        W21933   8.986  22.994  19.774 -0.1178 -0.0690  0.2390
79021W        W21934  19.971  17.380  13.942 -0.2087  0.3161 -0.1988
79022W        W21935  28.742  23.537  16.030 -0.0793 -0.0837  0.1183
79023W        W21936  10.153  26.753  29.699  0.1022  0.1091  0.0504
79024W        W21937  22.395  24.484  23.850 -0.0417 -0.2755  0.0181
79025W        W21938  17.463  21.966  17.061  0.3300  0.0269  0.1662
79026W        W21939  16.488  20.757  12.665  0.3279 -0.1761  0.0332
79027W        W21940   0.974  17.329  29.304  0.2005  0.0334  0.0654
79028W        W21941   0.111  25.493  21.878 -0.0158  0.0260 -0.0387
79029W        W21942  19.829  19.661  24.943 -0.0158 -0.2744 -0.4277
79030W        W21943   7.732  15.438  21.492 -0.2030  0.0499  0.0331
79031W        W21944  16.111  27.345  16.646 -0.1366 -0.0726  0.3795
79032W        W21945  16.042  20.646  24.541  0.3190 -0.4523  0.1076
79033W        W21946  12.835  34.168  19.156 -0.4545 -0.0287  0.1403
79034W        W21947  15.165  18.768  14.755  0.0814 -0.1534  0.4913
79035W        W21948  19.087   0.088  23.690  0.2990  0.2768  0.1670
79036W        W21949   5.753  18.666  19.769  0.0923  0.0010 -0.0295
79037W        W21950  15.869  20.174  14.394  0.0773 -0.3128  0.0479
79038W        W21951   7.118  28.962  18.928 -0.1732 -0.4102 -0.1530
79039W        W21952  25.282  32.144  14.300  0.2752  0.3710  0.0339
79040W        W21953  12.779   3.610  29.074 -0.1085  0.0797 -0.0748
79041W        W21954  29.056  25.846  19.366 -0.1497 -0.1720 -0.0009
79042W        W21955  13.604  29.348  15.465  0.0773 -0.3246 -0.2354
79043W        W21956  21.574  33.254  20.365  0.0596  0.0242  0.0494
79044W        W21957  17.686   1.288  16.582 -0.0706  0.0342 -0.0689
79045W        W21958   7.663  25.764  16.559  0.0382 -0.2962  0.1338
79046W        W21959  21.167  28.938  20.052 -0.0755 -0.2962  0.2380
79047W        W21960  17.201  26.086  26.014  0.1518  0.0483 -0.2019
79048W        W21961  15.886  20.406  18.937  0.1068  0.3672 -0.0272
79049W        W21962  18.331  19.030  12.206 -0.1554 -0.2610 -0.0260
79050W        W21963  27.931  22.286  14.877  0.0186 -0.2066 -0.0433
79051W        W21964   0.470  25.709  24.144  0.0295  0.0459  0.1811
79052W        W21965  12.160  30.940  18.708  0.2770  0.1464  0.3551
79053W        W21966  13.172  23.075  16.783  0.0220  0.1257 -0.1868
79054W        W21967  25.683  26.661  28.509 -0.0136  0.1758 -0.0413
79055W        W21968   7.535  23.209  15.589 -0.1009  0.2287  0.1195
79056W        W21969  16.111  29.222  14.738 -0.1818 -0.0012  0.3315
79057W        W21970  14.904  30.043  17.642 -0.0966 -0.4237  0.1392
79058W        W21971  21.627  33.731  16.633  0.0283  0.0188  0.1722
79059W        W21972  19.342  26.973  17.804  0.2629  0.0165  0.0988
79060W        W21973  20.954  29.912  27.738 -0.2359  0.1830 -0.0335
79061W        W21974  21.627   0.561  15.656  0.0093 -0.1425 -0.1129
79062W        W21975   4.034  29.271  17.532 -0.3491 -0.1403 -0.0445
79063W        W21976  26.406  18.217  17.816  0.1474  0.1829  0.0244
79064W        W21977  21.337  30.072  20.824  0.2276  0.0105  0.1118
79065W        W21978  14.042  19.943  13.566  0.2646 -0.0554 -0.0269
79066W        W21979  13.607  24.839  14.861 -0.1309 -0.4078  0.3184
79067W        W21980  21.741  25.282   1.260  0.0085  0.2029 -0.0055
79068W        W21981  24.427  27.657  14.306 -0.2687  0.0843 -0.0241
79069W        W21982  19.865  21.711  17.523 -0.2282 -0.0958  0.0086
79070W        W21983  16.012  31.427   0.777 -0.2836 -0.0165  0.0552
79071W        W21984  15.645  30.510  22.314 -0.1620  0.3657  0.1661
79072W        W21985   7.639  18.934  19.530 -0.0720 -0.3454  0.0828
79073W        W21986  16.494  32.005  17.757 -0.2022  0.0416 -0.1223
79074W        W21987  27.425  31.028  17.102  0.3757 -0.2007  0.0420
79075W        W21988  23.641  10.373  18.694 -0.1184 -0.1619  0.3841
79076W        W21989  25.277  27.066  15.680 -0.1091  0.1716  0.0265
79077W        W21990   7.787  25.370  22.679 -0.1457 -0.2281 -0.1014
79078W        W21991  31.193  33.627  22.546  0.0175  0.1885 -0.2243
79079W        W21992  18.837  21.242  21.573  0.1944 -0.3832 -0.0172
79080W        W21993  18.175  30.382  16.262  0.2155  0.1382  0.5298
79081W        W21994  22.920  29.931   1.369 -0.2169 -0.2137 -0.0441
79082W        W21995  15.747  23.234  18.840  0.0530  0.1514  0.0846
79083W        W21996  32.674  29.270  16.017  0.0883 -0.3435  0.0567
79084W        W21997  17.808  32.969  15.493  0.2190  0.0244  0.0247
79085W        W21998  10.060  22.163  24.212  0.1425  0.1113  0.1002
79086W        W21999  11.370  27.010  24.672 -0.1433 -0.0256 -0.1604
79087W        W22000  17.228  23.827  20.325  0.0367  0.2674  0.1411
79088W        W22001  13.410  21.349  25.115  0.1039  0.1254  0.1947
79089W        W22002  13.921  30.819  23.473  0.1344 -0.0328  0.1492
79090W        W22003  11.015  32.916  18.263  0.0171 -0.1275 -0.0009
79091W        W22004  21.986  16.764  16.671  0.1933 -0.2939 -0.2373
79092W        W22005  15.862  24.522  18.251 -0.1845  0.1237  0.0993
79093W        W22006  25.017  29.654  14.471 -0.0545  0.2571 -0.2992
79094W        W22007  21.088  30.157  13.102  0.3368  0.0018  0.2221
79095W        W22008  12.381  18.627  18.605 -0.3097 -0.1386  0.1646
79096W        W22009   9.128  27.421  25.182  0.0001 -0.0068  0.3569
79097W        W22010  16.564   3.663  24.467 -0.3164 -0.1458  0.2992
79098W        W22011  17.264  25.819  18.431  0.0896 -0.2346 -0.2672
79099W        W22012  24.048  30.662  27.145  0.2113 -0.0302 -0.0117
79100W        W22013   7.820  19.541  21.253  0.1240  0.0389 -0.3966
79101W        W22014  11.535  21.784  18.531  0.1554  0.0085 -0.1445
79102W        W22015  16.483   2.297  14.562 -0.3334 -0.1738 -0.3622
79103W        W22016  25.664  20.750  16.108 -0.1466  0.1096 -0.3830
79104W        W22017  25.233  32.208   4.548 -0.0052  0.2886 -0.1616
79105W        W22018  15.902  20.077  13.109 -0.3997 -0.3316  0.0787
79106W        W22019  16.452  29.255  26.681 -0.0180  0.2093 -0.0394
79107W        W22020  17.914  27.544  22.626 -0.3643 -0.0891  0.1428
79108W        W22021  25.550  12.660  15.342 -0.0596 -0.0265  0.2316
79109W        W22022  24.183  29.058  26.078 -0.0783 -0.1677 -0.1636
79110W        W22023  20.484   6.007  20.116  0.1354 -0.0479  0.3196
79111W        W22024   6.027  18.591  14.944 -0.0474  0.1464 -0.0242
79112W        W22025  11.300  31.586  21.420 -0.0118 -0.0963 -0.0139
79113W        W22026  18.830  26.947  20.215  0.1874  0.0163  0.0040
79114W        W22027  21.591  33.639  17.106  0.4039  0.1358  0.1134
79115W        W22028  22.615  34.383  15.860  0.1558 -0.0189  0.0569
79116W        W22029  24.401   1.762  18.935  0.1555 -0.0187 -0.1635
79117W        W22030   7.676  15.076  14.612  0.0233  0.1285 -0.1254
79118W        W22031  20.822   0.587  19.757  0.4365 -0.2011  0.0753
79119W        W22032  15.004  25.400  18.947  0.0332 -0.0495 -0.1191
79120W        W22033  25.087  24.478  23.695 -0.0084  0.0861 -0.4198
79121W        W22034  18.245  33.407  16.343 -0.4231 -0.0812 -0.0096
79122W        W22035   3.231  30.952  18.388  0.1809  0.3629 -0.0513
79123W        W22036   4.382  29.790  25.347 -0.2294  0.0059 -0.2250
79124W        W22037  19.298  26.998  19.803  0.0328 -0.2189 -0.0447
79125W        W22038  12.022  23.602  14.896  0.1795 -0.1780  0.0220
79126W        W22039  29.478  28.780  28.166  0.1280 -0.0316 -0.2899
79127W        W22040  14.104  24.182  19.313  0.0027 -0.2667  0.0600
79128W        W22041  18.359  19.473  13.621  0.0901  0.0040 -0.1876
79129W        W22042  10.581  26.040  18.617  0.1216 -0.2054 -0.0365
79130W        W22043  13.147  31.871  24.701 -0.0857  0.2827  0.2395
79131W        W22044  12.192   6.404  18.255  0.0066 -0.2867 -0.4199
79132W        W22045  20.443  12.388  14.125  0.0080  0.1205  0.1113
79133W        W22046  12.357  25.601  25.597 -0.0884  0.2021  0.0753
79134W        W22047   7.894  27.176  29.215  0.1157 -0.3662 -0.0394
79135W        W22048  22.851  31.683  14.419 -0.0931 -0.1705 -0.5017
79136W        W22049  23.613  31.604  13.889 -0.5940 -0.3778  0.2006
79137W        W22050  14.848  17.177  23.583  0.1113  0.0839 -0.2427
79138W        W22051  16.319  30.834  20.542 -0.3531 -0.1657  0.0208
79139W        W22052   9.178  22.472  18.011 -0.0374 -0.4076  0.1806
79140W        W22053  14.745  24.020  23.046  0.0585  0.2553 -0.0452
79141W        W22054  12.016  19.157  17.954  0.0464 -0.2596  0.1991
79142W        W22055  19.123  28.211  24.351  0.0325  0.1410 -0.0534
79143W        W22056  26.985  18.719  19.553  0.0158 -0.0489 -0.1481
79144W        W22057  22.325  19.958  16.704  0.1354 -0.3219  0.0416
79145W        W22058  16.908  13.055  18.165 -0.1528  0.0301 -0.0830
79146W        W22059  18.590  27.038  15.261 -0.1152 -0.0347  0.2113
79147W        W22060  13.740  23.393  24.462 -0.1821 -0.2877  0.1025
79148W        W22061  11.195  21.687  18.214  0.0746 -0.0543 -0.3086
79149W        W22062   3.293  16.951  17.067  0.1191 -0.0707  0.3984
79150W        W22063  25.845  15.561  24.480 -0.0200 -0.0467  0.1108
79151W        W22064  28.527  30.595  24.951 -0.0663  0.3404  0.2433
79152W        W22065  21.522  21.434   5.046 -0.1183 -0.1037  0.0038
79153W        W22066  23.033  19.001  13.453  0.0190 -0.3454  0.0513
79154W        W22067  24.151  28.436  24.318  0.0736  0.1528  0.0075
79155W        W22068  18.575   8.932  23.848 -0.1154  0.0211  0.0147
79156W        W22069   2.658  16.813  20.616 -0.0603  0.0974  0.4548
79157W        W22070   7.167  25.567  23.538 -0.0537  0.3179 -0.2828
79158W        W22071  25.512   5.850  20.612 -0.0129  0.0188  0.1617
79159W        W22072  16.398  15.578  12.423  0.2148 -0.4327  0.0418
79160W        W22073  19.531  20.940  19.170 -0.1963  0.0973  0.1353
79161W        W22074  10.949  14.480  26.202  0.1003  0.2111  0.2828
79162W        W22075  12.239  29.370   0.608  0.3091  0.0709  0.1089
79163W        W22076   7.554  29.530  16.709 -0.0522 -0.2866  0.1880
79164W        W22077  23.864  33.492  17.032 -0.2140 -0.2434 -0.1316
79165W        W22078   3.045  18.202  18.522  0.0068  0.0014  0.2688
79166W        W22079  18.267  23.360  12.659 -0.0880 -0.0756  0.0225
79167W        W22080   6.521  30.204  20.559 -0.0827  0.0093 -0.3310
79168W        W22081  11.251  22.585  18.138  0.0546 -0.2604  0.2603
79169W        W22082  19.250  20.109  12.458 -0.4421 -0.1272  0.1928
79170W        W22083  21.821  33.926  15.244  0.0076 -0.0176 -0.1265
79171W        W22084  17.375  24.676  14.336 -0.1452  0.4289  0.1258
79172W        W22085   6.648  29.070  16.618  0.1866 -0.0261  0.0777
79173W        W22086  24.380  21.147  12.833  0.1784 -0.0442  0.2274
79174W        W22087  22.633  16.292  17.958  0.2592 -0.4603  0.1006
79175W        W22088  18.193  31.673  21.766 -0.2011 -0.0617  0.2824
79176W        W22089   5.885  26.037  19.461 -0.2546 -0.0941 -0.3831
79177W        W22090  17.120  12.948  21.242 -0.0953 -0.0487  0.1220
79178W        W22091  20.597  21.358  15.111  0.2115 -0.2533  0.0558
79179W        W22092  28.405   9.770  20.081 -0.2809  0.1177 -0.1105
79180W        W22093  19.639  28.059  20.188 -0.0374  0.0377 -0.1446
79181W        W22094  14.841  31.783   0.254  0.0509  0.3029 -0.0665
79182W        W22095  18.301  28.488  23.710 -0.2965  0.1582  0.1075
79183W        W22096  18.634  12.801  14.198 -0.0848  0.1563  0.1196
79184W        W22097  24.861  25.656  21.321 -0.2509 -0.0832  0.2708
79185W        W22098  13.562  19.350  13.307 -0.0792 -0.0370 -0.0856
79186W        W22099  22.227   1.343   5.636 -0.2269 -0.0714  0.0203
79187W        W22100  30.111  17.844  18.277  0.1499  0.0517  0.0461
79188W        W22101  20.023  28.858  15.258  0.1213  0.1025 -0.2136
79189W        W22102  10.512  13.412  20.521  0.1666 -0.2892  0.1254
79190W        W22103  30.574  27.223  23.836  0.2813  0.0982 -0.0817
79191W        W22104  24.930  31.607  13.455 -0.1092 -0.0173  0.1865
79192W        W22105  16.136   6.244  14.722  0.1228 -0.3078  0.1469
79193W        W22106  25.495   0.489  16.879  0.0609 -0.0452 -0.0413
79194W        W22107  14.394  20.015  19.514  0.0261 -0.1443  0.3708
79195W        W22108  11.509  25.864  15.039  0.0598 -0.0992  0.2910
79196W        W22109  18.517  13.331  12.241 -0.0890 -0.1361  0.1193
79197W        W22110  13.959  23.589  17.484  0.2221  0.0906 -0.3625
79198W        W22111  13.053   3.995  19.940  0.1536 -0.4950 -0.2491
79199W        W22112  14.315  25.779  15.061 -0.1087 -0.0672  0.1229
79200W        W22113  19.648  28.715  22.245  0.0638 -0.1593  0.2367
79201W        W22114  24.924  26.128  14.851  0.4439 -0.1765  0.0783
79202W        W22115  10.426  18.323  15.996  0.1096 -0.0691  0.1731
79203W        W22116  15.516  26.055  17.417 -0.1055  0.1400  0.0700
79204W        W22117  19.324  28.801  18.506  0.1682 -0.0631 -0.0841
79205W        W22118  21.692  29.900  19.643 -0.3291  0.2842  0.3424
79206W        W22119  17.444  27.869  23.989 -0.0177  0.0202 -0.1956
79207W        W22120  29.156  25.409  20.073 -0.2067 -0.0431 -0.1097
79208W        W22121  25.069  33.030  22.437  0.1120 -0.4900 -0.0146
79209W        W22122  23.827  28.107  24.542  0.3207 -0.1606  0.2369
79210W        W22123  24.451  26.098  13.331  0.0763  0.1366 -0.0829
79211W        W22124  23.648  14.850  15.080 -0.1373 -0.1630  0.2593
79212W        W22125  13.103  24.972  18.092 -0.3627  0.0662  0.2802
79213W        W22126   9.124  26.453  19.757 -0.2644  0.1091 -0.3085
79214W        W22127  16.951  27.235   2.146 -0.0414  0.0550 -0.0245
79215W        W22128   8.178  15.587  18.095 -0.3684  0.3352  0.1434
79216W        W22129   3.400  22.329  22.815  0.3336 -0.1214 -0.0231
79217W        W22130  25.399  29.046  14.376 -0.0781 -0.0914  0.2508
79218W        W22131  30.963  22.502  20.347 -0.1707  0.2262 -0.1822
79219W        W22132  19.041  28.148  29.017 -0.3511  0.1130 -0.0206
79220W        W22133  14.043  30.011  27.267  0.0366  0.0188 -0.0198
79221W        W22134  20.818  18.967  15.125  0.0994 -0.0601 -0.0698
79222W        W22135  27.746   3.205  16.462  0.2346 -0.0409 -0.1768
79223W        W22136  28.189  32.484  16.694 -0.2710 -0.0079  0.1682
79224W        W22137  16.544   0.655  21.111  0.0486 -0.0883  0.1096
79225W        W22138  11.767  28.737  17.399  0.2653 -0.1335 -0.3493
79226W        W22139  16.387  25.263  25.313  0.0179  0.2992  0.0890
79227W        W22140  22.943  33.205  16.835 -0.0230  0.1422  0.0487
79228W        W22141  14.519  22.937  24.947  0.0174  0.5469 -0.1067
79229W        W22142  22.162   4.856  20.794 -0.2338 -0.1665  0.0068
79230W        W22143  12.439  19.002  13.016  0.0997  0.0623 -0.1710
79231W        W22144   1.515  32.828  20.553 -0.0159 -0.0567  0.3667
79232W        W22145  15.044  25.755  22.466 -0.0797  0.0630  0.1915
79233W        W22146  18.048  23.218  21.405  0.0994  0.2728  0.1680
79234W        W22147  25.163  31.377  16.367 -0.0184 -0.1297 -0.1011
79235W        W22148  24.319  22.785  21.525  0.1007  0.2705 -0.2133
79236W        W22149  20.888   2.937  21.099  0.1218  0.2343 -0.1273
79237W        W22150  22.379  28.536  13.123  0.1699 -0.0160 -0.0842
79238W        W22151   9.857  22.266  22.533  0.0077 -0.0716  0.1097
79239W        W22152   8.902  21.831  25.729  0.2904 -0.0253 -0.0163
79240W        W22153  15.101  25.844  19.128 -0.1743 -0.1634 -0.0642
79241W        W22154  20.175  12.621  18.933 -0.0134  0.0775  0.0055
79242W        W22155  31.707  18.320  28.335 -0.1041 -0.1187  0.1347
79243W        W22156   3.156  27.912  15.250  0.1531  0.1531  0.2876
79244W        W22157  19.975  29.837  26.648  0.1673 -0.0003 -0.1452
79245W        W22158  21.363  24.519  17.877  0.4890  0.0906  0.0099
79246W        W22159  26.296  23.633  16.239 -0.2077 -0.0564 -0.0915
79247W        W22160  12.787  24.593  15.443  0.1258  0.2116 -0.0460
79248W        W22161   9.445  24.277  22.747 -0.0835  0.3130 -0.1803
79249W        W22162  21.212   4.463  22.777 -0.0305 -0.2062  0.1094
79250W        W22163  18.384  23.533  24.688  0.0596  0.0483 -0.3274
79251W        W22164  17.315  28.332  21.788  0.2572 -0.1664 -0.0109
79252W        W22165  19.351  19.511  27.981  0.2166 -0.2918  0.0469
79253W        W22166  12.517  17.960  15.166 -0.0475 -0.1043  0.0872
79254W        W22167  13.548   2.469   0.633 -0.3111  0.2122  0.0162
79255W        W22168  10.776  31.452   1.274  0.3398 -0.0015 -0.1684
79256W        W22169   9.553  24.721  24.481 -0.0403  0.0253  0.1951
79257W        W22170   4.961  13.675   0.728 -0.0949 -0.2190  0.0019
79258W        W22171  11.158  14.228  13.109 -0.3287 -0.2198  0.3348
79259W        W22172   6.829  27.708  23.298  0.0402 -0.0822  0.1066
79260W        W22173  24.668  26.317  15.374  0.0979  0.0376 -0.0689
79261W        W22174  11.531  26.413  21.405 -0.0254 -0.1765  0.2414
79262W        W22175   9.924   0.442  19.904  0.1017  0.1973 -0.1676
79263W        W22176  21.408  10.635  16.392  0.0195 -0.1333  0.1514
79264W        W22177  16.301  28.772  18.315 -0.2830 -0.3072 -0.0341
79265W        W22178  19.553  29.045  14.148  0.0926 -0.0047 -0.0040
79266W        W22179  16.761  30.593  20.129  0.1841 -0.2756  0.2178
79267W        W22180  26.872  24.214  23.859  0.2014 -0.1443  0.3396
79268W        W22181   9.117  30.824  18.418 -0.0647  0.1248 -0.0331
79269W        W22182  15.659  28.137  19.584  0.0816 -0.1263 -0.0891
79270W        W22183  25.996   2.561  15.205  0.0126 -0.3307  0.0620
79271W        W22184  27.510   0.303  19.757 -0.2374 -0.1738 -0.3999
79272W        W22185  23.854  21.276  23.394  0.2972  0.0778 -0.0941
79273W        W22186   9.411  19.061   0.470  0.0434 -0.2007  0.1571
79274W        W22187  22.758  25.014   0.517  0.0678  0.0241 -0.1535
79275W        W22188  14.782  19.620  15.158 -0.0207 -0.1909  0.0954
79276W        W22189  16.923  13.156  13.439 -0.3882 -0.2853 -0.0317
79277W        W22190  18.807  24.596  13.581 -0.1138 -0.1204 -0.0876
79278W        W22191  28.923   3.520  22.734 -0.0837 -0.1192 -0.2675
79279W        W22192  16.815  28.905  20.220 -0.3139 -0.1744  0.2678
79280W        W22193  23.217  25.926  18.454 -0.1034  0.1444  0.0250
79281W        W22194  25.510   1.569  20.526 -0.0672  0.1803 -0.1425
79282W        W22195  31.645  21.276  26.399 -0.2580 -0.1732 -0.2052
79283W        W22196  27.687  26.301  23.185 -0.1619  0.2768 -0.1847
79284W        W22197  17.275   9.470  23.672  0.1768  0.1941 -0.0520
79285W        W22198  34.483  17.014  25.725  0.0408  0.1648  0.0281
79286W        W22199  10.481  26.849  17.249 -0.2790  0.0300 -0.1042
79287W        W22200  26.915  16.553  19.792  0.1924 -0.1371  0.0288
79288W        W22201  23.267  33.128  20.683  0.3556  0.1406 -0.1683
79289W        W22202  19.224  22.327  16.937 -0.1271 -0.0204  0.4148
79290W        W22203  10.501  26.782  16.731  0.1123  0.1805 -0.2558
79291W        W22204   8.965  18.794  13.652  0.0895  0.2539  0.1556
79292W        W22205  23.246  24.135  15.165 -0.3416  0.0762  0.0228
79293W        W22206  15.285  31.278  15.362  0.1224  0.3186  0.0369
79294W        W22207  15.426  18.912  14.360  0.1309 -0.2967  0.3026
79295W        W22208  22.695  30.027  22.891 -0.0406  0.0448 -0.1065
79296W        W22209  23.556  22.412  21.825  0.2491  0.0333 -0.0361
79297W        W22210  20.031  23.325  18.828 -0.1426 -0.0337  0.0319
79298W        W22211   8.818  29.911  20.088  0.0340 -0.0905  0.0447
79299W        W22212  23.077   3.819  16.165 -0.0064 -0.0959  0.0565
79300W        W22213  14.931  32.009  20.666 -0.1364  0.0363 -0.0304
79301W        W22214   9.912  28.056  16.378  0.0622 -0.1731 -0.0215
79302W        W22215  25.212  19.269  16.214 -0.0858 -0.0557  0.0592
79303W        W22216  17.299  22.287  19.546  0.1169 -0.2681 -0.1027
79304W        W22217   0.342  23.087  15.607 -0.2492 -0.1368 -0.1376
79305W        W22218  18.075   5.601  14.872  0.0711  0.2578 -0.3584
79306W        W22219  17.312  31.489  22.270 -0.0675 -0.2124 -0.0413
79307W        W22220  17.249  32.189  22.260  0.0535 -0.0346  0.1165
79308W        W22221  12.050  32.755  25.208 -0.0897  0.2266 -0.0828
79309W        W22222  23.457  19.971  14.264 -0.1913  0.3764 -0.1006
79310W        W22223  17.867  27.389  16.677 -0.2587  0.0891  0.0966
79311W        W22224  19.987  22.995  19.433  0.0252 -0.2584 -0.0578
79312W        W22225  10.549  15.118  17.108 -0.1666  0.0246  0.0654
79313W        W22226  18.682  31.019  14.617  0.1579  0.0798  0.0923
79314W        W22227  10.391  31.654  28.944  0.1070  0.4224 -0.2339
79315W        W22228  15.425  24.410  24.369  0.1070  0.0327 -0.1812
79316W        W22229  19.437  23.952  17.885  0.2570 -0.0304  0.3510
79317W        W22230  23.378  17.707  18.943  0.3069 -0.0083 -0.0636
79318W        W22231  15.920  15.782  14.254 -0.0183 -0.0734  0.0546
79319W        W22232  20.543   4.266  22.005  0.1437  0.1000 -0.0835
79320W        W22233   7.502  27.775  20.404  0.2789 -0.1339  0.1375
79321W        W22234  21.413  22.536  18.740 -0.0536  0.2130 -0.1278
79322W        W22235   9.240   9.355  19.462  0.1425  0.0320 -0.0764
79323W        W22236  11.831  20.276  22.747 -0.1126  0.1308  0.2600
79324W        W22237  23.555  21.842   0.772 -0.0626  0.1041 -0.1298
79325W        W22238   1.977  28.965  21.605  0.1761  0.3589  0.0939
79326W        W22239  15.521  32.337  15.415  0.0357 -0.0009  0.0226
79327W        W22240  29.962  21.440  13.627  0.2005 -0.1423  0.2891
79328W        W22241   9.102  17.105  17.592 -0.0088 -0.0430 -0.0484
79329W        W22242  24.015  23.359  20.538 -0.0488  0.0446 -0.0542
79330W        W22243  25.735  31.755  16.649 -0.0140  0.2837 -0.3663
79331W        W22244  17.920  33.111  15.992 -0.1465  0.0554 -0.0995
79332W        W22245  28.991   3.579  16.751  0.0285  0.0775 -0.2811
79333W        W22246  21.092   2.413  14.606 -0.1256 -0.2686  0.0265
79334W        W22247   7.201   8.503  20.278  0.2426 -0.1233 -0.0076
79335W        W22248  17.580  20.971  18.571  0.0039 -0.0421 -0.1329
79336W        W22249  11.438  25.019  16.838 -0.2679 -0.2149  0.0392
79337W        W22250  15.649  31.757  19.828  0.0695 -0.0430  0.1500
79338W        W22251  18.397  20.819  25.365  0.0160  0.0223  0.3974
79339W        W22252  22.629  28.203  21.957 -0.0154 -0.0192 -0.0078
79340W        W22253  12.445  26.875  17.573  0.0285  0.0663 -0.1710
79341W        W22254   4.272  33.523  20.166 -0.0589  0.3776 -0.1188
79342W        W22255   8.334  28.705  19.713  0.2046 -0.2553  0.0424
79343W        W22256  14.495   2.836  19.699 -0.2814  0.0734  0.1018
79344W        W22257   7.926  22.518  16.135 -0.0936  0.1254 -0.1507
79345W        W22258  11.263  30.063  22.840 -0.2446 -0.0237 -0.0257
79346W        W22259  20.197  26.021  26.327  0.2194 -0.2329 -0.1452
79347W        W22260  10.622  21.086  24.343  0.1652 -0.0256 -0.4922
79348W        W22261  28.716  28.654  22.747 -0.0530 -0.1328  0.1980
79349W        W22262  21.512  24.898  16.816 -0.0936  0.0163 -0.0468
79350W        W22263   6.828  25.147  25.187 -0.1128  0.0269  0.2884
79351W        W22264  16.789  31.133  16.410 -0.4170 -0.0013  0.2769
79352W        W22265  24.871  23.048  28.144  0.3053  0.0896 -0.0880
79353W        W22266  23.669  22.844  16.158  0.4265 -0.1686  0.0404
79354W        W22267  10.161  20.276  17.921 -0.2299 -0.3549  0.1501
79355W        W22268  15.925  30.740  14.750 -0.0680  0.1409  0.1083
79356W        W22269  16.631  30.967  25.705  0.0312 -0.0051  0.2020
79357W        W22270  12.740  18.527  16.970  0.0136 -0.1731 -0.0145
79358W        W22271  24.549  19.952  22.822  0.0012 -0.0028  0.0207
79359W        W22272  25.379  25.447  20.420 -0.1062 -0.0084 -0.1196
79360W        W22273  21.336  26.697  18.450  0.0897 -0.2520  0.1242
79361W        W22274  18.244  26.575  17.296  0.0966 -0.0724 -0.1157
79362W        W22275  13.575  28.925  17.322 -0.2297 -0.1224  0.0265
79363W        W22276   8.826  34.084  20.976  0.1970  0.0261 -0.0804
79364W        W22277  23.785  24.887  20.321 -0.2654  0.0522  0.1117
79365W        W22278   8.298  28.471  21.031 -0.3340 -0.1133  0.0258
79366W        W22279  17.493  10.177  15.767 -0.1975  0.0107 -0.3949
79367W        W22280  10.738  33.343   8.167 -0.4720 -0.0086 -0.0557
79368W        W22281   8.935   2.392  20.413  0.0821 -0.1641 -0.0208
79369W        W22282  26.508  33.351  14.641 -0.2067  0.2103  0.1170
79370W        W22283   8.575  25.769  17.182 -0.2088 -0.1112  0.4545
79371W        W22284  11.790  32.348  18.830 -0.0563  0.0412  0.1805
79372W        W22285  12.480  16.833  18.750  0.1593  0.0980  0.0728
79373W        W22286  13.705  33.131  18.174  0.1970  0.0474  0.2857
79374W        W22287  17.699  28.124  19.586  0.0635  0.0972  0.2005
79375W        W22288  19.631  16.182  22.295 -0.0635 -0.0708  0.0449
79376W        W22289  24.944  34.260  19.719  0.0690  0.0517  0.0248
79377W        W22290  17.031  25.839  23.526  0.2074 -0.0433  0.0912
79378W        W22291  12.944  21.820  24.912 -0.1217  0.0104 -0.2684
79379W        W22292  16.937  25.094  22.244  0.0247 -0.0589  0.3649
79380W        W22293  22.923  25.532  15.757  0.0338 -0.1883 -0.3879
79381W        W22294  23.570  29.074  25.946 -0.0445  0.2609  0.1294
79382W        W22295  18.422  24.974  19.726 -0.3663  0.0516 -0.1417
79383W        W22296  18.440  18.894  13.918 -0.4777  0.3662  0.0582
79384W        W22297  12.614  22.772  18.976  0.1275  0.0267  0.1389
79385W        W22298  23.290  17.079  20.187 -0.1639  0.0956 -0.2295
79386W        W22299   8.233  24.510  16.366  0.0963 -0.1774 -0.0324
79387W        W22300   2.038  23.216  24.191  0.0504  0.1775  0.2431
79388W        W22301  27.207  22.440  13.859  0.0596 -0.3023 -0.0430
79389W        W22302  23.551  24.977  23.123 -0.1452 -0.3434  0.0420
79390W        W22303  15.294   1.351  25.750  0.1838  0.1886 -0.0024
79391W        W22304  21.410  24.503  21.218  0.2401 -0.0935  0.0892
79392W        W22305  23.320  28.226  16.499  0.2383  0.1431 -0.2871
79393W        W22306  16.587  27.081  21.736 -0.2559  0.0878 -0.1430
79394W        W22307  18.979  25.770  15.802 -0.3823  0.1472 -0.1479
79395W        W22308   9.661  25.646  15.279  0.4048  0.0347  0.0614
79396W        W22309  13.664  30.794  16.536  0.1200 -0.5056  0.0659
79397W        W22310  23.018  21.540  27.982  0.0398  0.2290 -0.2030
79398W        W22311  18.306  28.627  24.688 -0.0439  0.0248 -0.1595
79399W        W22312  19.263   0.732  16.346  0.1201 -0.0419 -0.1049
79400W        W22313  10.749  27.533  15.187 -0.2283  0.0336 -0.1268
79401W        W22314   1.064  24.142  17.520 -0.2139  0.3715  0.1775
79402W        W22315  15.746  23.038  23.404 -0.1305  0.0386 -0.0594
79403W        W22316  31.434  25.896  13.975 -0.2984 -0.1139  0.2933
79404W        W22317  26.270  23.219  17.108 -0.1277 -0.0441 -0.0014
79405W        W22318  17.988  13.557  14.493  0.1447  0.2628  0.2972
79406W        W22319  21.366  31.592  22.591 -0.2751  0.1374  0.4505
79407W        W22320  25.433  28.877  14.897 -0.0773 -0.1681  0.0003
79408W        W22321   2.616   0.978  24.147  0.0797  0.3397  0.1208
79409W        W22322  18.657  28.270  15.051  0.0633 -0.1284 -0.1950
79410W        W22323  14.433  27.507  19.482  0.1652 -0.0449  0.0641
79411W        W22324  22.653  14.700  16.038  0.0769 -0.2885 -0.0822
79412W        W22325  17.829  30.177  28.963  0.3220 -0.2807 -0.3528
79413W        W22326  14.941  28.518  21.547  0.2220  0.0497  0.0835
79414W        W22327  21.957  23.659   4.817  0.2969 -0.0154  0.0526
79415W        W22328  31.403  18.339   1.820 -0.0312 -0.0150 -0.2623
79416W        W22329  20.971   6.971  29.365  0.3197 -0.2541  0.0412
79417W        W22330  17.448   7.416  26.311  0.1570  0.1042  0.0408
79418W        W22331  18.996  20.987  20.544  0.1431  0.1740  0.5668
79419W        W22332  17.624   4.856  19.403  0.1576  0.3922  0.0844
79420W        W22333   7.206   7.984  20.508  0.0084  0.2074  0.1696
79421W        W22334  15.672  24.298  23.741 -0.4585 -0.1031 -0.0363
79422W        W22335   8.940  17.834  23.111  0.3200  0.2145 -0.2643
79423W        W22336  25.435  15.538  20.897  0.5239 -0.0311 -0.1975
79424W        W22337   8.703  31.633  20.128  0.2906  0.2654 -0.0971
79425W        W22338  18.559  21.032  19.168 -0.4390 -0.0945  0.2107
79426W        W22339  19.432  20.870  29.778  0.1781 -0.0585 -0.2528
79427W        W22340  27.945   3.404  22.444 -0.0325  0.0546 -0.0025
79428W        W22341  11.805   1.239   3.379 -0.0163 -0.0556 -0.2395
79429W        W22342  11.799  32.032  19.340 -0.2650  0.1188 -0.1056
79430W        W22343  24.676  22.621  13.357  0.4169 -0.0630 -0.0320
79431W        W22344  13.382  26.190   1.488 -0.1119  0.0255 -0.0833
79432W        W22345   7.772  22.922  27.290 -0.0886 -0.2138  0.0179
79433W        W22346   5.662  31.235  18.434  0.1362  0.3128  0.0868
79434W        W22347  23.949   0.342  27.130  0.1562  0.4871  0.2709
79435W        W22348   6.959  25.877  20.054 -0.1043 -0.0702  0.0628
79436W        W22349   4.407  16.391  17.775  0.1411  0.1271  0.0654
79437W        W22350  19.102  27.893  23.837  0.1946 -0.1359  0.0567
79438W        W22351  27.263  21.001  19.034  0.2955  0.2575  0.0726
79439W        W22352  24.988  19.558  14.975 -0.1253  0.0525  0.0771
79440W        W22353   9.132  19.762  21.081  0.0849  0.0983 -0.0462
79441W        W22354  22.686  26.032  20.249 -0.0539  0.2460  0.1230
79442W        W22355  16.499  29.984  18.896 -0.1427  0.0712 -0.2394
79443W        W22356  19.726  18.330  22.242  0.3255 -0.0584 -0.0809
79444W        W22357  19.404  24.696  19.497  0.0166 -0.2785  0.0976
79445W        W22358   3.335  16.952  25.749 -0.1204  0.0206 -0.2224
79446W        W22359   2.592  26.402  15.985 -0.0130 -0.1305  0.1594
79447W        W22360  16.729  21.395  18.400 -0.0175 -0.0432  0.0155
79448W        W22361  25.035  21.791  16.655  0.1004  0.1992 -0.2773
79449W        W22362  20.060  27.366  18.170  0.1150 -0.3325  0.0951
79450W        W22363  14.267  24.624  25.906  0.1988 -0.1712 -0.1263
79451W        W22364  18.896  10.313   7.377 -0.2990  0.0541  0.2361
79452W        W22365  20.297  15.440  14.037  0.4287 -0.0211  0.3631
79453W        W22366  33.814  17.935  19.840  0.0864 -0.0951  0.1069
79454W        W22367  10.679  21.002  14.252  0.3535  0.0187 -0.0504
79455W        W22368  17.543  17.126  13.572  0.1877  0.2552  0.1833
79456W        W22369  18.049  22.424  14.739 -0.2260  0.0109  0.0006
79457W        W22370  30.453  16.923  20.930 -0.0402 -0.2918  0.0936
79458W        W22371  19.039  26.034  19.286 -0.1209  0.1698 -0.2251
79459W        W22372  17.063  30.483  18.397 -0.0639 -0.1799  0.2163
79460W        W22373  24.639  33.738  17.048 -0.1151 -0.2568  0.4623
79461W        W22374  23.739  16.847  14.759 -0.2000 -0.0819 -0.2466
79462W        W22375  19.042  17.905  12.051 -0.0870  0.0198  0.2394
79463W        W22376  15.660  23.328  26.725  0.3497 -0.2739 -0.0488
79464W        W22377  12.672  32.192   6.099  0.1777  0.0501 -0.1134
79465W        W22378   8.134  25.034  25.852 -0.0660  0.1570  0.1176
79466W        W22379  20.860  28.716  16.846 -0.0764  0.0220  0.1111
79467W        W22380  20.126   1.547  21.986  0.3533 -0.2107  0.0090
79468W        W22381  18.473  24.703  18.829 -0.2927 -0.1697  0.1955
79469W        W22382  15.680  30.049  23.573  0.0277  0.3683 -0.2260
79470W        W22383  19.534   2.906   2.580 -0.1061 -0.2532  0.0862
79471W        W22384  13.968  19.203  20.661 -0.1355  0.1833 -0.1962
79472W        W22385   1.403   3.188  23.362 -0.0929  0.1935  0.0951
79473W        W22386  11.565  27.180  22.015  0.1009 -0.1230  0.0503
79474W        W22387  15.524  28.213  23.956  0.2238  0.2529  0.2891
79475W        W22388  20.895  21.667  12.805 -0.1162  0.1467  0.3884
79476W        W22389  13.940  23.997   7.443  0.1830 -0.0531  0.0571
79477W        W22390  18.903  19.794  21.035 -0.1338 -0.0319 -0.3019
79478W        W22391  16.425  24.616  13.862 -0.0341  0.2178 -0.2401
79479W        W22392  17.459  17.946  12.453 -0.1667 -0.0571 -0.0331
79480W        W22393   8.478  18.812  27.096  0.0610  0.1129 -0.0760
79481W        W22394  14.825  32.278  24.648  0.1843  0.0362 -0.0178
79482W        W22395   0.026  30.014   1.542 -0.2436 -0.0578  0.0882
79483W        W22396  13.219   0.667  25.999  0.3229 -0.2656  0.0647
79484W        W22397  28.694  34.312  25.820 -0.0167  0.2310  0.0137
79485W        W22398   9.985  27.270  27.454 -0.2823 -0.2801 -0.0792
79486W        W22399  28.209  27.415  25.846  0.1147 -0.1335  0.1199
79487W        W22400  11.607  28.865   3.959 -0.0864 -0.0274 -0.1087
79488W        W22401  14.856  27.632  19.697  0.1419 -0.1370  0.0697
79489W        W22402  17.449  23.451  27.852  0.4257  0.0521  0.0414
79490W        W22403  19.664  25.069  19.342 -0.0368 -0.2093  0.1984
79491W        W22404   3.440  28.790  24.494  0.0078  0.1472 -0.2761
79492W        W22405   6.793  20.813  26.116 -0.2030  0.0818  0.0437
79493W        W22406  20.628  32.273  20.071 -0.2473  0.2657 -0.2440
79494W        W22407  11.210   0.505  28.810  0.0509 -0.0197  0.1727
79495W        W22408   9.935  17.028  15.085  0.4428 -0.1482  0.0258
79496W        W22409  20.932  28.345  13.697 -0.1304 -0.1066 -0.4875
79497W        W22410   9.813  24.247  16.992  0.2214  0.0345 -0.2171
79498W        W22411  11.297  19.482  17.427 -0.1278  0.1356  0.0825
79499W        W22412  31.218  24.403  17.009 -0.0230  0.2105  0.0945
79500W        W22413   2.333  24.268  18.437  0.2012  0.1170 -0.1255
79501W        W22414   9.690  28.193  25.856  0.1740 -0.0216  0.4916
79502W        W22415  11.061  28.085  26.365 -0.1995  0.1113 -0.0550
79503W        W22416  19.536  24.468  18.034 -0.0730  0.1624  0.2948
79504W        W22417  24.083  19.730  28.273  0.1927 -0.0135  0.0708
79505W        W22418  19.837  22.678  25.508  0.2334 -0.1835  0.2367
79506W        W22419  32.402  30.089  21.742  0.1048  0.1034 -0.3253
79507W        W22420  25.877  28.639  18.089  0.0234  0.1232  0.0911
79508W        W22421   9.513  33.526  21.200 -0.0758 -0.1857 -0.0634
79509W        W22422  16.473  23.217  21.965 -0.0730 -0.3245  0.0661
79510W        W22423   7.937  28.680   2.968  0.0562  0.0146 -0.1458
79511W        W22424  11.662  28.809  26.194 -0.0405  0.0089 -0.0819
79512W        W22425  23.849  16.415  14.585  0.1416  0.1678  0.4543
79513W        W22426  11.487  25.506  28.432  0.5070  0.0648 -0.0523
79514W        W22427  17.190   9.381  22.725 -0.0195 -0.3550  0.1085
79515W        W22428   5.240  33.151  18.468 -0.4630  0.1933  0.0782
79516W        W22429  16.482  33.897  27.724  0.0170  0.0458  0.0039
79517W        W22430  17.100  30.368   1.828  0.0152 -0.1631 -0.0984
79518W        W22431  25.143  22.754  20.001 -0.1773  0.0410 -0.0539
79519W        W22432   4.779  25.289  22.491 -0.1195  0.1588 -0.1401
79520W        W22433  22.168  34.336  17.249  0.1230 -0.1940 -0.4193
79521W        W22434  25.662  20.428  15.713 -0.3733 -0.2040 -0.2981
79522W        W22435   3.354  26.904  22.499  0.0792 -0.2328  0.0200
79523W        W22436  27.375  22.568  21.131 -0.0674  0.0483 -0.2194
79524W        W22437  16.878  30.435  23.510 -0.1038  0.2671 -0.1186
79525W        W22438  14.684  32.406  28.917  0.0425 -0.2593  0.0770
79526W        W22439  18.992  23.631  14.331  0.1045  0.2313 -0.1164
79527W        W22440  21.087  25.204  22.351 -0.1604  0.5038  0.0486
79528W        W22441  20.346   5.059  15.042 -0.1734 -0.0289  0.2708
79529W        W22442  32.562  30.757  22.437  0.0545 -0.0552  0.1932
79530W        W22443   9.032   3.706   9.962 -0.1820 -0.0632 -0.1844
79531W        W22444   3.943   1.001   2.504  0.2068  0.1111  0.1322
79532W        W22445   8.785  28.366  15.378  0.1737 -0.0368  0.0736
79533W        W22446  27.607  25.821  19.614  0.1191 -0.0471  0.0575
79534W        W22447  28.042  21.300  21.989 -0.0846  0.1082  0.1330
79535W        W22448  12.368  20.593  13.162  0.1184  0.2622 -0.2192
79536W        W22449  14.457  28.117   7.108  0.0111 -0.1840  0.1772
79537W        W22450   4.585  27.256   0.158  0.1815  0.4801 -0.1956
79538W        W22451  15.721  24.552  13.543  0.0286 -0.1458 -0.0553
79539W        W22452  20.797  19.415  18.595  0.1734 -0.3095 -0.1331
79540W        W22453  15.695   1.041  17.002  0.2549  0.1575 -0.3702
79541W        W22454  15.138  23.016  20.130 -0.4813 -0.3736  0.0863
79542W        W22455  20.006  31.805  25.530 -0.2308  0.0828  0.3702
79543W        W22456   8.569  23.728  19.395 -0.0750  0.0990  0.2697
79544W        W22457  16.995  30.391  15.293  0.0115  0.1416 -0.2129
79545W        W22458  17.458  26.233   0.985  0.0723  0.1239 -0.0853
79546W        W22459  12.067  33.970  23.067  0.0050 -0.1088 -0.1675
79547W        W22460  21.718   4.814  21.761 -0.2447  0.1253 -0.1356
79548W        W22461  24.706   1.774  22.077 -0.0890 -0.2319  0.0796
79549W        W22462  20.700  19.927  17.350 -0.1930 -0.0025 -0.5377
79550W        W22463  11.676  16.033  19.953 -0.0951 -0.0099  0.0553
79551W        W22464  18.106  31.616  15.736 -0.3283 -0.0871  0.1256
79552W        W22465  21.375  23.120  23.463 -0.1118  0.2142  0.0913
79553W        W22466  24.590  19.614  14.449  0.1606 -0.4456 -0.0021
79554W        W22467  21.487   0.330  13.205 -0.3801  0.2482 -0.0787
79555W        W22468  22.054  11.551  17.098 -0.3084  0.1821  0.0464
79556W        W22469  16.963  33.262  18.525 -0.0903 -0.0812  0.1468
79557W        W22470  25.807  32.689  16.193  0.1043  0.0510 -0.0150
79558W        W22471   7.880  22.768  24.619  0.2703 -0.4527 -0.0214
79559W        W22472  16.351  24.854  21.647  0.0919  0.2250 -0.0375
79560W        W22473   5.701  29.451  15.680 -0.3122  0.2638  0.1020
79561W        W22474  13.530  25.637   0.568  0.0919 -0.0624 -0.0549
79562W        W22475  12.772  20.190  23.936  0.1682 -0.0982  0.0499
79563W        W22476  13.731  28.897  26.015 -0.1699 -0.0417 -0.1584
79564W        W22477  17.289  22.270  18.342  0.3736  0.2271 -0.0827
79565W        W22478  25.825  29.593  27.531 -0.1911  0.2192  0.0836
79566W        W22479  25.135   1.166  26.152 -0.0052  0.1690 -0.0742
79567W        W22480  23.436  13.298  19.049 -0.2199 -0.3102 -0.2895
79568W        W22481   4.238  31.306  18.597 -0.2807 -0.1825 -0.2458
79569W        W22482  23.229  28.837  24.120 -0.1206  0.1788  0.5324
79570W        W22483  12.916  22.401  17.045 -0.2228 -0.3100 -0.0526
79571W        W22484   5.950  22.309  20.300  0.1004  0.2288 -0.0181
79572W        W22485  26.551  29.935  15.110 -0.1282 -0.0956 -0.2421
79573W        W22486  10.021  29.471   1.705  0.1282  0.1893 -0.1896
79574W        W22487  13.845  16.864  17.562  0.1431  0.0101 -0.2072
79575W        W22488   3.585  31.129  25.172  0.1117  0.0305 -0.1160
79576W        W22489  32.956  26.970  16.838  0.0656  0.0264  0.0044
79577W        W22490  12.754  30.721  25.946  0.0223  0.1355  0.1906
79578W        W22491  12.187  32.867  19.633 -0.3657 -0.0868  0.1231
79579W        W22492  22.249  16.483  17.039  0.0783 -0.0624 -0.1009
79580W        W22493  20.289  20.886  12.636 -0.0380  0.1793  0.3539
79581W        W22494   9.384   1.336  20.279 -0.0149 -0.2353  0.1586
79582W        W22495   9.911  33.256  26.295  0.0003 -0.2933  0.0913
79583W        W22496  16.662  31.059  19.119  0.3437  0.0285  0.0299
79584W        W22497  17.173  23.404  20.042 -0.1789  0.0292  0.1110
79585W        W22498   5.270  25.605   4.991 -0.2185  0.2126  0.1018
79586W        W22499   6.883  18.704  16.946 -0.0071 -0.0571  0.2355
79587W        W22500  18.053  25.014  28.872  0.0209  0.1370 -0.1360
79588W        W22501  21.200  29.419  13.679 -0.1422  0.1179 -0.0859
79589W        W22502  15.999  30.437  20.627 -0.1188  0.0660  0.1348
79590W        W22503  13.497  19.976  21.469 -0.4182  0.0201 -0.3264
79591W        W22504  29.597  16.483   7.186  0.0110 -0.0247  0.1514
79592W        W22505   8.206  23.504  20.865  0.1975  0.1538  0.2206
79593W        W22506  15.215  22.188  13.444 -0.1298  0.1361  0.2259
79594W        W22507  14.666  24.052   8.195 -0.0502  0.1330  0.0223
79595W        W22508  13.523  18.982  20.446  0.3390  0.0123  0.0572
79596W        W22509  17.920  30.049  20.416  0.0338  0.0919 -0.0086
79597W        W22510  10.243  12.222  15.125  0.3147 -0.0171  0.1408
79598W        W22511  17.100   3.419  26.577 -0.0489 -0.0649  0.0282
79599W        W22512  26.322  28.132  18.217  0.1797  0.2109  0.1610
79600W        W22513  18.092  23.792  24.373  0.4228  0.0217  0.1214
79601W        W22514   8.650  25.977  18.199 -0.0759  0.0538 -0.1957
79602W        W22515  22.767  23.780  24.299 -0.0627 -0.0246  0.0047
79603W        W22516  16.798  31.117  27.022  0.0192  0.2146  0.2358
79604W        W22517  18.581  27.302  18.990  0.0205 -0.0831  0.0240
79605W        W22518  14.997  23.404  17.590 -0.2501  0.3345 -0.1867
79606W        W22519  15.091  29.051  24.282 -0.0443 -0.3178  0.0621
79607W        W22520  21.595  28.277   3.491 -0.0182 -0.0068  0.0060
79608W        W22521  12.382  24.675  18.680  0.2200 -0.0519  0.0428
79609W        W22522  27.798   1.740  21.659  0.2529  0.1751 -0.0475
79610W        W22523  10.152  23.609   3.573  0.0732  0.0311 -0.0673
79611W        W22524   9.394  15.547  25.850  0.1054 -0.0839 -0.1439
79612W        W22525  20.793  26.723  23.456 -0.0279 -0.1945 -0.1359
79613W        W22526  13.782  25.745  17.059 -0.1705  0.0359 -0.1376
79614W        W22527  15.326  21.271  16.719  0.1610 -0.0400  0.0918
79615W        W22528  21.136  15.511  17.298  0.1097  0.0346 -0.4147
79616W        W22529  20.593  28.441  16.510  0.2652  0.1457  0.4190
79617W        W22530  16.688  16.525  23.934  0.2797 -0.0768 -0.1413
79618W        W22531  26.597   5.325  22.392 -0.0355 -0.1240 -0.0433
79619W        W22532  15.240  28.604   0.092  0.0502 -0.1705 -0.1352
79620W        W22533  17.300   0.960   8.568 -0.0898 -0.1657 -0.2609
79621W        W22534  19.926  21.281  16.044 -0.2848  0.3835 -0.1382
79622W        W22535  13.300  32.338   1.511 -0.0563  0.0045 -0.0304
79623W        W22536  32.880  29.735  25.847  0.0146 -0.0009  0.1782
79624W        W22537  21.663  30.260  19.316  0.1228  0.1879  0.3285
79625W        W22538  19.088  11.268   0.357  0.0789  0.1688  0.0277
79626W        W22539  21.650  19.371  12.956  0.1880 -0.3680  0.0732
79627W        W22540  18.334  26.811  19.322 -0.1598 -0.0170 -0.0711
79628W        W22541  16.365  26.239  22.458 -0.0089 -0.0850 -0.0565
79629W        W22542  19.449  11.931  18.093 -0.1709 -0.0586 -0.0394
79630W        W22543  29.165   4.589  19.505 -0.1170  0.0065  0.0569
79631W        W22544  13.612   7.770   0.692 -0.1757 -0.0490  0.1332
79632W        W22545  13.887  21.176  15.037 -0.0904  0.0750 -0.2566
79633W        W22546  14.134  30.242  20.820 -0.1661  0.1284  0.2024
79634W        W22547  21.768  27.046  21.430 -0.0142  0.3274  0.1233
79635W        W22548  18.908  25.933   2.976 -0.2115 -0.3254  0.3528
79636W        W22549  14.511  23.672  25.510 -0.0366 -0.0706 -0.0921
79637W        W22550   4.205  18.822  18.654 -0.1554 -0.3163  0.0766
79638W        W22551  11.024  18.356  27.527 -0.2733 -0.0208 -0.0523
79639W        W22552   9.282  14.849  21.570  0.0576 -0.0104 -0.1257
79640W        W22553  22.803  14.200  22.206 -0.1067  0.0531 -0.0046
79641W        W22554  11.664  22.421  23.600  0.0014 -0.0728 -0.1326
79642W        W22555  32.756  21.403  22.215 -0.0918 -0.0481  0.0555
79643W        W22556  16.642  12.993  18.612  0.0033  0.2024  0.2641
79644W        W22557  18.445  28.572   2.725  0.0274  0.2009  0.0718
79645W        W22558  21.597  20.997  26.195 -0.0424 -0.0033 -0.1157
79646W        W22559  15.176  33.673  16.809 -0.0080 -0.0490 -0.2134
79647W        W22560  16.141  24.198  29.745  0.0688  0.0705  0.0068
79648W        W22561  22.804  25.241  18.951 -0.3023  0.2543  0.1248
79649W        W22562  14.224  31.910  20.432  0.2439 -0.1245 -0.0292
79650W        W22563  11.366  26.745   0.007 -0.0604  0.1673 -0.0241
79651W        W22564  12.510  25.232  21.873  0.1017 -0.1812  0.3169
79652W        W22565   8.205  30.408  18.691  0.1778 -0.1428  0.0659
79653W        W22566   9.563  21.325  22.519  0.0177  0.1212 -0.1541
79654W        W22567   3.783  18.610  18.427 -0.0112 -0.4293  0.0673
79655W        W22568  26.808  28.422  15.386  0.0126 -0.0425 -0.0425
79656W        W22569   7.948  30.983  29.317  0.0017 -0.1066  0.2057
79657W        W22570  16.649  24.706  19.903 -0.2038  0.1538  0.0206
79658W        W22571  25.520   0.208  23.306  0.1973 -0.1588  0.2473
79659W        W22572   8.429  29.875  18.802 -0.1539 -0.0845  0.1006
79660W        W22573  18.012  20.359   1.064  0.0526 -0.0288 -0.3226
79661W        W22574  11.902  29.415   8.537  0.0438 -0.3253 -0.0164
79662W        W22575   8.000  22.910  22.562 -0.1566  0.0477  0.5913
79663W        W22576  21.316  24.686  25.481 -0.2811 -0.1488 -0.0715
79664W        W22577  19.257  30.344   3.944 -0.1457  0.1444  0.2213
79665W        W22578  22.526   8.135  16.717  0.4459 -0.1574 -0.1461
79666W        W22579  15.024  29.619  24.544  0.0192 -0.4522  0.0604
79667W        W22580  22.225  22.878  16.965 -0.0276 -0.0848 -0.2579
79668W        W22581  15.754  32.802  26.833 -0.0436  0.2192 -0.1155
79669W        W22582  18.250  22.658   3.671  0.1395  0.0398  0.2597
79670W        W22583  20.741  18.569  12.413  0.0115 -0.0343  0.1312
79671W        W22584  19.079  30.284  16.929 -0.0684 -0.0217 -0.0446
79672W        W22585   2.346   3.474  28.483 -0.1431 -0.1864  0.0886
79673W        W22586  15.603  32.901   4.919 -0.2256 -0.3785 -0.2325
79674W        W22587  23.185  34.306  24.699  0.0359  0.5240 -0.2126
79675W        W22588  18.536  27.742  24.775 -0.1259  0.2059  0.0851
79676W        W22589  23.034  26.681  16.828  0.1000 -0.4190 -0.0536
79677W        W22590  25.729  12.656  15.910  0.1061  0.0725 -0.0654
79678W        W22591  13.589  23.381   4.941 -0.3117 -0.0890  0.0893
79679W        W22592  14.524  25.289  23.984 -0.1848 -0.2058 -0.0169
79680W        W22593  21.753  21.960  18.783  0.0759 -0.1872 -0.0160
79681W        W22594  21.047  22.900  18.846 -0.0496  0.0832 -0.1384
79682W        W22595  17.295  29.264  22.326  0.1350 -0.2158 -0.2314
79683W        W22596  15.740   0.403  25.659  0.3022 -0.1284 -0.0765
79684W        W22597   5.060  30.478  17.583 -0.1874  0.2008  0.0812
79685W        W22598  22.832  29.092  22.165  0.4217  0.0054  0.2013
79686W        W22599  18.337  25.779  20.178  0.3202  0.2935  0.1683
79687W        W22600  28.135  26.641  16.965  0.0177  0.0230  0.1688
79688W        W22601  14.206  26.417  25.314  0.1866 -0.2050 -0.0082
79689W        W22602   6.117  23.565  27.833 -0.3295 -0.0491  0.0620
79690W        W22603  23.519  14.089  14.750 -0.1177  0.2656 -0.0500
79691W        W22604  15.647  30.608  26.913  0.1427 -0.1267  0.2546
79692W        W22605  16.690  32.414   4.707  0.1871  0.0246 -0.1568
79693W        W22606  17.431  34.368  15.171 -0.0671  0.0392 -0.3184
79694W        W22607  23.699  14.888  20.966 -0.1970 -0.1778  0.0642
79695W        W22608  12.394  24.231  28.442 -0.2355 -0.1661  0.0828
79696W        W22609  16.211  23.665   6.648 -0.1804  0.0928  0.0070
79697W        W22610  13.949  28.371  17.463 -0.2896 -0.1348  0.0081
79698W        W22611  16.449  18.940  12.764 -0.4282  0.3291 -0.0222
79699W        W22612  16.273  26.396  22.896 -0.0320 -0.0213 -0.1218
79700W        W22613  11.593  23.952  21.586 -0.1282 -0.1270 -0.1373
79701W        W22614  12.837  22.971  19.386 -0.0541 -0.2712  0.1235
79702W        W22615  16.902   0.675  26.982 -0.0296 -0.2106 -0.2253
79703W        W22616  11.405  22.406  24.443  0.0615  0.4467  0.0854
79704W        W22617  22.946   8.708  15.156  0.1786 -0.1216 -0.1498
79705W        W22618  17.717  11.851  12.419 -0.1139 -0.2798 -0.0412
79706W        W22619  14.203  28.462  26.832  0.0256 -0.0352  0.0169
79707W        W22620  22.615   2.904  29.338 -0.0637  0.0822 -0.1360
79708W        W22621  31.553  24.984  19.259 -0.1632  0.1811 -0.3760
79709W        W22622  13.257  23.120  19.776 -0.0381 -0.1671 -0.3111
79710W        W22623  13.264  19.992  23.831  0.3647  0.2513 -0.0036
79711W        W22624  22.750  33.306  16.331 -0.1694 -0.1334 -0.2100
79712W        W22625  15.986  25.980  18.797 -0.1405  0.1934 -0.3297
79713W        W22626  23.036  30.333  12.948  0.3286  0.0024 -0.0451
79714W        W22627  16.829  31.966  27.083 -0.0082  0.0752 -0.5012
79715W        W22628  12.755  25.495  18.325  0.1909 -0.1891  0.0517
79716W        W22629  19.008  27.642  23.402 -0.3176  0.0333  0.0662
79717W        W22630  16.179  25.186  21.162 -0.1827 -0.0911 -0.0068
79718W        W22631  21.067  22.922  20.599  0.0555 -0.2273  0.3255
79719W        W22632   8.935  28.665  24.730  0.0797  0.1079 -0.1848
79720W        W22633   5.652  25.293  20.892 -0.1528 -0.0207 -0.1547
79721W        W22634  20.638  23.422  27.008 -0.2191  0.2577 -0.1528
79722W        W22635  21.303  29.076  17.207 -0.2391  0.3705 -0.1228
79723W        W22636  15.154  24.336  23.878  0.0131 -0.1080  0.0407
79724W        W22637  25.224   0.379  23.957 -0.3468  0.2602 -0.3263
79725W        W22638  28.667  30.948  14.910  0.1824 -0.1119  0.0786
79726W        W22639   7.304  25.716  20.399  0.0549 -0.0721  0.0898
79727W        W22640  15.042  27.655   1.807 -0.2542 -0.3245  0.0908
79728W        W22641  19.401  28.966   5.524  0.1365 -0.2637  0.0365
79729W        W22642   7.643   2.621  22.833  0.7107  0.2904 -0.0657
79730W        W22643  14.601  27.889  17.518  0.2335  0.0660 -0.1838
79731W        W22644   5.693  15.569  23.308 -0.1986  0.0574 -0.0725
79732W        W22645  12.235  27.468  28.567 -0.0287 -0.1043  0.1150
79733W        W22646  14.408   9.632  28.740 -0.2429  0.0530 -0.1368
79734W        W22647  14.922  24.150  18.345  0.0630 -0.4056  0.4340
79735W        W22648   8.405  30.519  24.218  0.0607  0.2845 -0.1267
79736W        W22649  29.267  32.539  14.835  0.0449  0.4067 -0.2411
79737W        W22650  19.716  26.901  25.953 -0.0223 -0.0471  0.4050
79738W        W22651  17.970  28.251   4.747 -0.1275  0.4489  0.0226
79739W        W22652  21.837  22.583  17.312 -0.1229 -0.3340 -0.1501
79740W        W22653  14.831  28.670  18.296 -0.1933 -0.0356 -0.1707
79741W        W22654  29.063  30.309   1.909  0.0276  0.1599  0.1651
79742W        W22655  19.158  28.671   9.405  0.1414 -0.1046  0.4323
79743W        W22656  18.791  21.594  16.119 -0.2254 -0.0851 -0.1893
79744W        W22657  24.649  28.549  28.132  0.1311  0.0710  0.0782
79745W        W22658  23.709  28.934  17.866  0.0231 -0.2202  0.1510
79746W        W22659   9.636  26.432  21.331 -0.4011 -0.0511  0.0651
79747W        W22660  23.686  18.933  19.394  0.1183 -0.2764 -0.2393
79748W        W22661   0.772  28.575  23.067 -0.1082 -0.0562  0.1486
79749W        W22662  18.955  25.826  18.635  0.0461  0.2001 -0.0106
79750W        W22663  13.493  20.911  20.456 -0.0396 -0.0679  0.0067
79751W        W22664  17.258  23.738  20.842 -0.1494  0.1567 -0.2956
79752W        W22665  16.407  17.804  25.376 -0.3113 -0.1705  0.1018
79753W        W22666  19.912  26.143   1.486  0.1112 -0.2091 -0.0724
79754W        W22667  18.160  29.247  19.921 -0.0088  0.1182  0.2309
79755W        W22668  22.827  25.681  12.802 -0.0756 -0.0697 -0.0068
79756W        W22669  20.091  21.839  20.205  0.2311 -0.1166  0.1957
79757W        W22670  25.550  20.817   0.248  0.2278  0.1327 -0.5540
79758W        W22671  21.520  14.812  24.935 -0.0124  0.1231 -0.0818
79759W        W22672  11.293  17.413  18.913 -0.1367  0.0525 -0.0811
79760W        W22673  16.602  29.255  15.339 -0.3417  0.1769 -0.0916
79761W        W22674  10.606  23.017  17.499  0.0665  0.0750  0.0245
79762W        W22675  14.468  21.857  14.971  0.0973  0.1098  0.1503
79763W        W22676  16.067  22.774  13.750 -0.1286 -0.1193  0.0740
79764W        W22677  12.925  15.159  27.919 -0.0092 -0.4085  0.2043
79765W        W22678  22.178  28.079  13.307  0.0821 -0.3023 -0.0590
79766W        W22679  17.481   0.650   1.188 -0.3842  0.2435  0.1680
79767W        W22680  15.680  27.447  15.654 -0.0871  0.0646  0.0738
79768W        W22681  28.577  31.190  23.433  0.1865  0.0109 -0.0616
79769W        W22682  19.647  34.336  27.595 -0.2678 -0.1386  0.2714
79770W        W22683   0.476  22.322  16.710  0.0514 -0.0039 -0.2473
79771W        W22684  25.555  18.444  13.749 -0.1928  0.0912  0.3828
79772W        W22685  18.346  30.173  25.338  0.1797 -0.2949 -0.0223
79773W        W22686  34.012   2.025   2.127 -0.2414 -0.1191 -0.2379
79774W        W22687   6.109  26.770  17.025  0.1294 -0.2551 -0.0403
79775W        W22688  19.064  20.324  19.137  0.0606  0.0672  0.0140
79776W        W22689  16.581  20.687  21.747  0.1248  0.1198 -0.0236
79777W        W22690  17.343  29.716  24.305 -0.1356  0.0957 -0.0492
79778W        W22691   8.688  20.356  15.658 -0.1472 -0.0352  0.3745
79779W        W22692  23.921  29.899  18.692 -0.1878  0.0910 -0.1606
79780W        W22693  15.223  27.973  14.973 -0.0437  0.0773  0.1713
79781W        W22694  12.297   0.500  19.308 -0.3134 -0.0409  0.1018
79782W        W22695   7.357  18.289  19.604 -0.1086  0.0426 -0.0876
79783W        W22696  22.500  26.539   0.600 -0.2809 -0.1012 -0.2690
79784W        W22697   5.332  29.499  26.280 -0.3086  0.1545 -0.1289
79785W        W22698  28.677  22.842  19.021  0.1725  0.2036  0.2650
79786W        W22699   1.364  33.652  23.294  0.2342  0.1946  0.1241
79787W        W22700   6.938  13.352  27.961  0.2878 -0.0821  0.3007
79788W        W22701  14.651  24.041  20.292 -0.2615  0.0799 -0.4350
79789W        W22702  12.507  33.449  28.501  0.2464 -0.0408 -0.1533
79790W        W22703  15.133  26.758  19.267 -0.2214  0.2339 -0.2026
79791W        W22704  17.293  29.638  21.159  0.3351  0.0614  0.2978
79792W        W22705  14.809  22.902  18.669  0.0183  0.3368 -0.1624
79793W        W22706  15.736  32.495  20.910  0.1894 -0.1522  0.0484
79794W        W22707   9.109  22.655  27.255 -0.2663  0.0143 -0.3259
79795W        W22708  22.737  30.231   2.544 -0.0171 -0.1072 -0.1712
79796W        W22709  29.164  18.233  26.187 -0.0674  0.0508 -0.0332
79797W        W22710  16.736  25.076  21.225 -0.0594 -0.0362  0.0335
79798W        W22711   5.449   0.891  21.500  0.2692  0.1734 -0.1791
79799W        W22712  22.262   1.744  21.854 -0.2967  0.0720 -0.3448
79800W        W22713   9.170  28.798  18.165 -0.2914 -0.0540 -0.0712
79801W        W22714  14.942  33.539  22.921 -0.0715  0.0272 -0.1963
79802W        W22715  19.599  13.278  16.063 -0.3010  0.1370  0.1906
79803W        W22716  13.869   0.568  22.515  0.4149  0.0569 -0.1201
79804W        W22717   3.005  30.342  24.424 -0.3981  0.4277 -0.0931
79805W        W22718  20.096  22.507  24.941 -0.1198 -0.1833 -0.0138
79806W        W22719  20.292  19.830   1.805 -0.0031  0.0699  0.2023
79807W        W22720  13.766  30.626  21.047  0.1193  0.2981 -0.2897
79808W        W22721  23.355  28.234  24.622 -0.2012 -0.1459  0.1448
79809W        W22722  21.913  24.031  23.183  0.1807 -0.0076  0.2181
79810W        W22723  24.463  27.632  23.780  0.0521  0.3205 -0.1982
79811W        W22724  18.439  24.568   7.564  0.1542 -0.0675 -0.0576
79812W        W22725   8.104  28.297  21.807 -0.3016  0.2766  0.0534
79813W        W22726  27.484  28.962   1.772 -0.0431  0.2454 -0.1122
79814W        W22727  14.401  26.615  10.990 -0.1894  0.0437  0.0361
79815W        W22728  23.143  25.190  27.499 -0.1688  0.2490 -0.1745
79816W        W22729   9.173  31.404  10.441  0.1784 -0.2357 -0.1200
79817W        W22730  21.261  34.075  16.616 -0.3546 -0.3480 -0.0147
79818W        W22731  30.203   5.343  22.885 -0.1466 -0.0801 -0.0408
79819W        W22732  17.325  26.660   1.408  0.0091 -0.0839  0.1210
79820W        W22733  15.759  26.564   2.038  0.0791  0.1417  0.1176
79821W        W22734  17.759  28.135   5.808  0.3740  0.0547 -0.0358
79822W        W22735   8.452  32.886   0.812 -0.2091 -0.0465  0.1484
79823W        W22736  28.782  22.240   0.321  0.0613  0.0280  0.0567
79824W        W22737  15.223  25.853   4.902  0.2185  0.3566  0.1688
79825W        W22738  24.573  30.691   8.456  0.1807  0.1718 -0.0824
79826W        W22739  24.753  23.397   1.928  0.1920  0.0322 -0.0105
79827W        W22740   7.974  27.778  22.011  0.0858  0.0983 -0.1084
79828W        W22741  13.778  15.270  25.192 -0.1067  0.0405  0.1908
79829W        W22742  19.792  27.683  26.670  0.1644  0.0520 -0.3850
79830W        W22743  12.140  23.291  21.747 -0.1836 -0.0499  0.3397
79831W        W22744   9.659  30.152   2.603 -0.3212  0.0199  0.1960
79832W        W22745  23.937  21.057   4.295  0.2524  0.3277  0.2639
79833W        W22746  18.389  29.583  24.642  0.3911 -0.1097 -0.0161
79834W        W22747  10.764   0.723  21.699  0.0975 -0.0268  0.1169
79835W        W22748  18.633  28.319  28.146  0.3699 -0.1216  0.4442
79836W        W22749  13.547  20.557  25.213  0.0714  0.0721  0.0084
79837W        W22750   3.381  21.343  28.097  0.1765 -0.2270  0.0521
79838W        W22751  20.580  31.626  24.149 -0.1437  0.2005  0.1186
79839W        W22752  10.260  27.312  17.072  0.4285 -0.0278 -0.1902
79840W        W22753  14.053  27.299  25.461  0.2210  0.2667 -0.1433
79841W        W22754  19.034  26.884  22.420 -0.1810 -0.1954 -0.2226
79842W        W22755  17.591  21.171  16.614  0.0824 -0.1446 -0.0799
79843W        W22756  20.871  22.649  19.717 -0.0093 -0.1592 -0.0495
79844W        W22757  12.296  23.741   3.083  0.1488  0.1281  0.2043
79845W        W22758  15.941  22.555  28.223 -0.3050  0.1599  0.1869
79846W        W22759  19.133  26.371   1.061  0.1821  0.0165  0.2623
79847W        W22760  16.128   9.178  28.913  0.0274 -0.0688  0.1009
79848W        W22761  33.285   3.401   3.697  0.0428  0.2033  0.0080
79849W        W22762  15.300  31.820  24.019  0.1557  0.2108  0.2539
79850W        W22763  24.668  21.051  19.536 -0.0313 -0.0377  0.2175
79851W        W22764  11.896  24.435  26.111 -0.1491 -0.1439 -0.1067
79852W        W22765  16.066  32.454   0.028 -0.1919 -0.0937 -0.0399
79853W        W22766  17.803  21.796  27.819 -0.1757  0.1112  0.2705
79854W        W22767  11.590  30.443  19.357  0.1691  0.0089  0.3203
79855W        W22768  18.069  23.847  26.828  0.0314 -0.2514  0.0539
79856W        W22769   7.864  31.821  21.320  0.0228 -0.0708 -0.4043
79857W        W22770  15.766  33.184   2.618  0.4589  0.1090 -0.0077
79858W        W22771  16.806  31.606  23.048 -0.2301 -0.0754  0.1173
79859W        W22772  23.503  22.796  19.797 -0.0764  0.0738 -0.1898
79860W        W22773  14.213  19.209   5.032  0.1065 -0.2190 -0.1995
79861W        W22774  33.217  31.798  28.261 -0.0524  0.1562  0.2709
79862W        W22775  18.719  23.260  28.230 -0.1298  0.0778 -0.2586
79863W        W22776   4.638  22.545  26.448 -0.0714  0.0937 -0.2470
79864W        W22777   4.998  18.277  27.215  0.0426  0.1822  0.0952
79865W        W22778  14.339   7.427  21.942  0.0924  0.2528 -0.0956
79866W        W22779  30.111  33.607  27.899  0.0989 -0.1859 -0.0573
79867W        W22780  16.458  31.368  29.302  0.2672  0.0811 -0.1780
79868W        W22781  21.224  27.819   5.586  0.4392  0.0598 -0.0549
79869W        W22782  12.806  27.444  25.424 -0.0757 -0.3416  0.2356
79870W        W22783  19.445  24.631   3.355 -0.1371 -0.0020 -0.0342
79871W        W22784   9.305  32.878   3.622  0.0764  0.1368 -0.0132
79872W        W22785  22.553  15.794  21.220  0.1592  0.4548 -0.0488
79873W        W22786  22.738  29.021   7.260  0.0905 -0.4648 -0.2184
79874W        W22787  11.539  26.472   6.569  0.1306  0.2754 -0.2028
79875W        W22788  16.443  20.440  29.449 -0.1135  0.0668  0.0576
79876W        W22789  21.400  24.881  29.742  0.1726  0.1893 -0.0082
79877W        W22790  26.051  22.037  21.546 -0.0021 -0.2839  0.2056
79878W        W22791  17.549  20.410  23.517 -0.3235 -0.0947  0.0390
79879W        W22792   0.552  17.442  26.000  0.2250  0.0091  0.1857
79880W        W22793  11.714  18.088   5.594  0.0453 -0.1383  0.1107
79881W        W22794   5.088  21.552  16.300 -0.0271 -0.0624  0.0632
79882W        W22795   7.995  27.828   0.951  0.0118  0.2550 -0.3777
79883W        W22796  15.596  27.743  19.089  0.2265 -0.0284  0.1631
79884W        W22797  25.812  25.363  16.343 -0.1741  0.2507 -0.1702
79885W        W22798  13.597  24.318   0.397  0.3027 -0.4452  0.2949
79886W        W22799  14.228  27.675   1.900  0.1807  0.0288 -0.1642
79887W        W22800  15.558  32.981  28.837  0.1925  0.0749 -0.0164
79888W        W22801  19.905  31.415   1.023  0.2685 -0.1171 -0.1298
79889W        W22802  11.363  23.244   9.673 -0.2782  0.1400 -0.3141
79890W        W22803  26.126  29.312  29.251  0.4229  0.1960  0.1155
79891W        W22804  15.837  21.732  25.891 -0.0866  0.0182  0.2142
79892W        W22805  22.878  26.935  18.557 -0.1019  0.1192 -0.1685
79893W        W22806  10.635  14.837  27.986 -0.2650  0.1456  0.0558
79894W        W22807  24.837  13.067  23.341 -0.1161 -0.1148 -0.4323
79895W        W22808  16.849   0.063   0.798  0.0860  0.1747 -0.2674
79896W        W22809  16.935  22.392  20.492  0.1823  0.1449 -0.1689
79897W        W22810  21.581  17.636  13.586  0.2217  0.1596  0.2072
79898W        W22811  16.679  29.934  20.626  0.0949 -0.4488  0.0587
79899W        W22812   7.305  30.768  25.440  0.0360 -0.0019  0.1117
79900W        W22813  21.165  32.726   3.275 -0.3398 -0.1876  0.0071
79901W        W22814  18.413  20.749  24.893  0.0974 -0.0720 -0.1485
79902W        W22815  13.183  29.430   0.910 -0.1325  0.0567  0.0066
79903W        W22816  22.876  28.732  28.459 -0.0827  0.1052  0.0927
79904W        W22817  12.329  27.711   0.387  0.0438  0.0637 -0.1614
79905W        W22818  18.725   1.542  18.802  0.0577 -0.2858  0.1065
79906W        W22819  14.690  30.042   3.008  0.0183  0.5441 -0.0021
79907W        W22820  19.536  29.204  29.076  0.3999  0.1208  0.1768
79908W        W22821  13.046  33.236  29.209 -0.1374 -0.1067  0.1605
79909W        W22822  19.826  21.157  14.659  0.2212 -0.0400  0.0440
79910W        W22823  14.423  28.707  24.760  0.1813 -0.0987 -0.3589
79911W        W22824  19.616  28.418  27.351 -0.0609 -0.0392 -0.0799
79912W        W22825  16.895  28.783  26.632 -0.2979 -0.3249  0.0063
79913W        W22826  17.388  30.365  28.791 -0.0207  0.2797 -0.0362
79914W        W22827  13.153  11.959  28.630  0.0950  0.0597  0.0778
79915W        W22828  17.549  17.123   3.998 -0.2237  0.2376 -0.0933
79916W        W22829  15.312   0.830  21.058 -0.0361  0.1885 -0.1971
79917W        W22830  30.279  26.050   0.271 -0.2329  0.0091  0.0716
79918W        W22831  18.942  28.365  17.165  0.0425 -0.2080 -0.1913
79919W        W22832  23.537  32.077  20.739  0.1506 -0.0470  0.1671
79920W        W22833  20.741  24.330  24.164 -0.0890  0.1115  0.1988
79921W        W22834  24.168  20.463   0.925 -0.0463  0.1563  0.1563
79922W        W22835  24.991  27.833  28.444  0.0971  0.1431 -0.4050
79923W        W22836  23.220  29.044  21.869 -0.2816 -0.0476  0.5647
79924W        W22837  18.187  27.094  22.481  0.0501  0.1153  0.0614
79925W        W22838  21.855  32.993   9.744  0.2044 -0.0082 -0.0598
79926W        W22839  16.752   0.769   7.180 -0.0947  0.1299  0.1391
79927W        W22840  16.963  24.487   2.040  0.3006 -0.1751  0.0555
79928W        W22841  23.164  26.235  22.229  0.1988  0.1270 -0.1554
79929W        W22842  16.480  31.999   5.208 -0.0746 -0.0990  0.0961
79930W        W22843   9.802  21.354  27.496 -0.2372 -0.0855  0.1258
79931W        W22844  13.301  20.544   1.710 -0.4034 -0.2958  0.0049
79932W        W22845  15.939  19.469  23.443 -0.0088 -0.0957 -0.1287
79933W        W22846  21.152  33.789   5.504 -0.0336 -0.3080  0.0928
79934W        W22847  16.190  25.421   6.674 -0.2061  0.1066 -0.1885
79935W        W22848  25.100  26.330  25.861 -0.3527 -0.0930 -0.0325
79936W        W22849   5.725  28.773  25.338 -0.2158 -0.3440 -0.1665
79937W        W22850  18.065  32.675  28.210  0.3493  0.0451  0.0203
79938W        W22851   7.717   1.483  29.688 -0.2384  0.0476 -0.0448
79939W        W22852  30.687  28.782  20.388 -0.0294 -0.1419  0.1031
79940W        W22853   5.107  30.741   2.860  0.1342  0.0220  0.0681
79941W        W22854   7.785   5.504  26.682 -0.1512  0.0398  0.1368
79942W        W22855  11.785  31.610  26.835 -0.1233 -0.1386  0.1546
79943W        W22856  16.221  27.126  27.809 -0.3076  0.1529 -0.1179
79944W        W22857   9.940  31.254  24.813  0.0299  0.2394 -0.2228
79945W        W22858   8.865   3.092  29.288  0.0943  0.1578  0.0281
79946W        W22859   8.263  33.408  18.267 -0.1356 -0.0230  0.0382
79947W        W22860  22.198  24.484  18.951 -0.1435 -0.0035  0.1642
79948W        W22861   8.913  12.066  28.735 -0.3339  0.0186  0.2098
79949W        W22862  23.934  22.945  13.664 -0.1397 -0.3667  0.0456
79950W        W22863  10.080  17.078  27.396 -0.1407  0.1427  0.1217
79951W        W22864  26.857  33.684   3.185  0.1037 -0.1249  0.2639
79952W        W22865  19.211  23.086  28.679 -0.0579  0.1802 -0.0066
79953W        W22866  10.383   2.795   4.613  0.1051 -0.0855  0.1797
79954W        W22867  24.737  23.873   1.010 -0.0258 -0.2072 -0.0017
79955W        W22868  18.977   1.063   5.748 -0.0778 -0.0931  0.0096
79956W        W22869  14.041  29.781   3.612 -0.1694  0.0533 -0.0007
79957W        W22870  16.997   5.256   6.658  0.0124 -0.1790  0.1081
79958W        W22871  19.074  18.628  26.419  0.2225  0.0220 -0.2835
79959W        W22872   3.433  24.157  26.318 -0.0573  0.0257  0.0518
79960W        W22873  13.591  20.457   7.753  0.3826  0.1645 -0.3090
79961W        W22874  20.233   2.419  27.722 -0.0055  0.1311 -0.1737
79962W        W22875  15.167  31.518  10.012  0.1118  0.2430  0.1852
79963W        W22876  15.887  22.473   0.068  0.1854 -0.2037  0.3046
79964W        W22877  30.373  33.698   5.734  0.0511 -0.0086 -0.0546
79965W        W22878  16.020  22.210  17.822 -0.0302 -0.3050 -0.0690
79966W        W22879   7.885  28.867  29.563 -0.0552 -0.3840 -0.0537
79967W        W22880   9.515  30.287  20.779 -0.1439 -0.1449 -0.1921
79968W        W22881  14.487  25.662  18.875 -0.1303  0.1533 -0.2096
79969W        W22882  17.476  32.775  10.621  0.2442 -0.1888 -0.1562
79970W        W22883  22.618  16.039  16.555 -0.0300  0.0785 -0.2141
79971W        W22884  30.732  31.236   1.385  0.0637  0.1620 -0.2332
79972W        W22885  17.652   0.842  29.649 -0.0447 -0.1477  0.0869
79973W        W22886  22.895  23.685  23.849 -0.0230  0.0600 -0.2975
79974W        W22887  14.676  26.331  23.500 -0.1299 -0.3669 -0.0733
79975W        W22888   6.339  15.415  28.144 -0.5387  0.1873 -0.1647
79976W        W22889   5.912  33.813  25.420 -0.1940  0.0049  0.3676
79977W        W22890   6.564  20.337  26.877  0.0920  0.0118  0.2067
79978W        W22891  18.450  28.858  24.269  0.1828 -0.1338 -0.1101
79979W        W22892  20.387  23.605   1.932  0.1337  0.3905  0.2978
79980W        W22893  18.445  24.691  22.785  0.3684 -0.0727 -0.1317
79981W        W22894   8.085  16.858   3.025 -0.4405  0.2225  0.0345
79982W        W22895  27.163  25.858   4.502  0.0838  0.0158 -0.0319
79983W        W22896  18.465  14.701  26.398  0.3928 -0.3083 -0.1758
79984W        W22897  13.990  25.875  27.202  0.0064  0.0393 -0.2805
79985W        W22898  33.538  27.340  20.777  0.0551  0.0323 -0.2954
79986W        W22899  15.110  20.458  13.648 -0.4150  0.1605  0.2300
79987W        W22900  11.079  19.491   8.385 -0.4258  0.3154  0.1193
79988W        W22901  15.029   1.819  29.118 -0.3963  0.2590 -0.1014
79989W        W22902   3.088  28.984  28.349 -0.0028  0.1842 -0.0230
79990W        W22903  16.918  33.985  26.186 -0.4091 -0.4177 -0.3788
79991W        W22904  16.326  21.135  20.836  0.4861  0.1330  0.0245
79992W        W22905  22.692  31.293   1.455  0.2594  0.2834 -0.1191
79993W        W22906   8.956  19.011   1.873 -0.1453  0.0955  0.0125
79994W        W22907  28.288  30.547  26.071  0.0232 -0.0284  0.0050
79995W        W22908  11.149  23.459   3.219 -0.0835 -0.0329  0.2325
79996W        W22909  21.541  25.445  14.611 -0.3706 -0.0900 -0.1725
79997W        W22910  11.741  33.239   7.360  0.0444  0.0404 -0.1832
79998W        W22911  27.779  30.129  14.254  0.2652  0.0556 -0.3635
79999W        W22912  15.254  30.954  27.838  0.1257 -0.3344 -0.1263
80000W        W22913   3.946  30.252   5.558  0.0262  0.1252 -0.0978
80001W        W22914   9.761  27.585   7.128 -0.2403  0.0111 -0.1730
80002W        W22915  21.244  34.452   3.471 -0.0103 -0.1360  0.0636
80003W        W22916  17.421   7.718   6.820 -0.3976  0.1238  0.0138
80004W        W22917  10.661  20.979   5.844 -0.1765 -0.2122  0.1745
80005W        W22918  12.443  28.914  29.603  0.2103  0.0776 -0.0199
80006W        W22919  16.151  18.492  24.964 -0.0411 -0.1082  0.0482
80007W        W22920  16.197  26.123  26.360  0.1076 -0.0766  0.0863
80008W        W22921  10.234  23.474  10.223  0.0610 -0.0253  0.1628
80009W        W22922   2.027  14.354   3.389 -0.1024  0.2802 -0.0256
80010W        W22923   8.696  27.936   9.061  0.1194 -0.3315  0.1283
80011W        W22924  27.551  23.896  21.315  0.1386  0.0284 -0.2041
80012W        W22925   7.128  31.245  22.243 -0.4780  0.3309  0.2105
80013W        W22926  13.487  28.408  18.445 -0.0038 -0.3300 -0.0977
80014W        W22927  11.593  15.702   7.536  0.4675  0.1801 -0.0805
80015W        W22928   1.087  32.059  20.955  0.1175 -0.0353 -0.2119
80016W        W22929  18.357  23.969  25.126 -0.0310  0.2330  0.1776
80017W        W22930  17.245   7.423  24.024  0.1389  0.0393  0.1563
80018W        W22931  18.187  21.136  22.182 -0.0887 -0.0054  0.0983
80019W        W22932  12.719  32.367   6.901 -0.2805 -0.1239 -0.5389
80020W        W22933  12.644  31.455   7.493 -0.2409 -0.3634  0.0565
80021W        W22934  28.143  10.065   3.553  0.1282 -0.0499 -0.1456
80022W        W22935  24.522  26.543  25.788 -0.4747  0.0083  0.1831
80023W        W22936  14.918  22.695  24.458  0.0807  0.0705  0.1574
80024W        W22937   2.950  30.150  15.323 -0.0325 -0.0172  0.2292
80025W        W22938  22.943  33.195   7.917  0.0690 -0.1239 -0.2216
80026W        W22939   7.552   0.688  26.740  0.2334 -0.2253  0.2264
80027W        W22940  16.070  26.343  19.754 -0.2255 -0.2915 -0.0998
80028W        W22941  22.919  23.816  17.984 -0.2642 -0.0431  0.0855
80029W        W22942  19.673  25.972  22.931 -0.0521 -0.4276 -0.0446
80030W        W22943  10.978  23.786  16.273 -0.3019 -0.1790 -0.1628
80031W        W22944  11.621  25.313  22.853  0.0425 -0.1299 -0.0699
80032W        W22945  22.493   7.030   5.374  0.2608 -0.0183 -0.4192
80033W        W22946  14.210  18.969   3.951  0.0547  0.0111  0.2283
80034W        W22947  15.944  25.166   3.472  0.2011  0.0897 -0.2832
80035W        W22948  17.447  26.417  29.766 -0.1501 -0.1520 -0.0631
80036W        W22949   0.703  21.086   0.502 -0.2609 -0.0332 -0.0446
80037W        W22950  22.939  27.749  27.893  0.2869 -0.1369  0.0642
80038W        W22951  14.845  27.282   6.850 -0.1178  0.1124 -0.0386
80039W        W22952  12.729  29.630  18.418 -0.3213 -0.0035  0.1377
80040W        W22953  24.840  24.663  25.099  0.2479  0.2977 -0.2170
80041W        W22954  12.999  24.633  28.159  0.0517 -0.0168 -0.0439
80042W        W22955  22.921  33.805  20.125  0.1222 -0.0615 -0.1263
80043W        W22956  23.112  32.713   0.919 -0.1801  0.0294  0.2640
80044W        W22957  20.075  23.442  21.176 -0.0449 -0.4454 -0.0989
80045W        W22958  22.276  26.192  19.408 -0.2078  0.0239  0.0127
80046W        W22959  19.828  22.771  21.964  0.0822 -0.2630  0.0160
80047W        W22960  12.852  25.574  25.763  0.0999  0.1726  0.1173
80048W        W22961  17.039  30.683  27.051  0.1508 -0.0737  0.0775
80049W        W22962  18.642  27.688  19.379 -0.0400 -0.2765 -0.4496
80050W        W22963  19.201  26.053  23.693 -0.2615  0.0577 -0.0210
80051W        W22964  16.963  26.512   7.413 -0.2330  0.0743  0.1596
80052W        W22965   8.725  21.379   1.503  0.0819  0.1227  0.0632
80053W        W22966  19.979  23.312  29.587 -0.2891  0.0765 -0.4050
80054W        W22967  16.447  26.989  26.280  0.1457 -0.0018 -0.1156
80055W        W22968   8.359  29.953  26.365 -0.0105 -0.3712  0.0904
80056W        W22969  11.083  25.487  22.899  0.0041 -0.1615 -0.0948
80057W        W22970  23.956  25.920  28.900 -0.0014 -0.2425  0.0835
80058W        W22971  25.278   2.748   3.144  0.0360  0.1136  0.4509
80059W        W22972  16.158  32.042   2.666  0.3076  0.2770  0.5462
80060W        W22973  17.237  25.584   0.043 -0.0493  0.1819 -0.3159
80061W        W22974   5.349   3.136  26.093 -0.1419  0.0856 -0.0769
80062W        W22975  19.327  27.451  26.669 -0.1833  0.1772 -0.3225
80063W        W22976  20.679  10.317  25.786 -0.1962  0.0970  0.2629
80064W        W22977  16.111  16.573  28.683 -0.0278  0.0297 -0.1882
80065W        W22978  28.429   0.946  28.318 -0.1586  0.1004  0.0481
80066W        W22979  14.224   7.000  28.066 -0.0438 -0.2602 -0.2023
80067W        W22980  17.973  25.548   7.978 -0.1680 -0.3494  0.1005
80068W        W22981  26.462   4.174  27.745 -0.2955  0.1426  0.2320
80069W        W22982  25.806  19.625  21.231  0.2754 -0.0230  0.0796
80070W        W22983  10.577  19.929  28.778 -0.0078  0.1268 -0.3430
80071W        W22984  16.286  31.743   5.646 -0.1297 -0.0600 -0.5311
80072W        W22985  17.452  29.924   7.426 -0.0353 -0.0501 -0.2178
80073W        W22986  16.921  19.155  24.872  0.2771  0.2700 -0.1180
80074W        W22987  18.027  15.657  21.816 -0.0076  0.0782  0.1938
80075W        W22988  23.167  23.259  19.783  0.1387 -0.0896 -0.1280
80076W        W22989  22.425  29.986  20.333 -0.2901  0.3390  0.1904
80077W        W22990   6.637   2.903   0.856  0.1422 -0.2427 -0.0939
80078W        W22991  15.406  25.748  27.009 -0.3707  0.0963 -0.2004
80079W        W22992  24.611  24.412  27.206 -0.0355 -0.4383  0.1651
80080W        W22993   8.952  27.828  24.455 -0.1134 -0.1278  0.0361
80081W        W22994  14.084  34.408  25.052  0.2824 -0.0852  0.3385
80082W        W22995  13.197  27.391  20.827  0.3642  0.2323 -0.3536
80083W        W22996  17.458  27.065  27.774 -0.1129 -0.3674  0.1302
80084W        W22997  10.962  20.897   9.808  0.0875 -0.1863  0.1136
80085W        W22998  28.179  33.167  25.868  0.0419 -0.0919  0.1554
80086W        W22999   8.695  23.478  26.338 -0.1010  0.3754  0.0073
80087W        W23000  28.008  28.706  20.762  0.0083 -0.0980 -0.0547
80088W        W23001   3.532  33.135  15.348 -0.1712 -0.1718  0.1434
80089W        W23002   7.654  24.878   1.351 -0.0797 -0.0823  0.0899
80090W        W23003  15.601  21.833  15.043  0.0750  0.2211 -0.1738
80091W        W23004  17.068  15.756  27.969 -0.0312  0.2117 -0.1911
80092W        W23005   6.503  13.767  25.598  0.1927  0.1794 -0.0168
80093W        W23006  24.016  16.175  16.736  0.0558  0.1347  0.3269
80094W        W23007  19.680  32.381  29.157 -0.2213 -0.2779  0.0162
80095W        W23008  11.530  17.606  24.729 -0.1803  0.0762  0.2198
80096W        W23009  18.747  30.885   8.261  0.0805 -0.2084  0.1231
80097W        W23010  24.929   4.708  28.899 -0.0022  0.2569  0.2411
80098W        W23011   2.640  31.535   9.582 -0.0885 -0.1510 -0.2884
80099W        W23012   7.099  23.470  19.250 -0.1381 -0.0028 -0.3397
80100W        W23013   1.402  23.132   3.882 -0.1016  0.4076  0.0113
80101W        W23014  21.549  18.916  22.644 -0.4086 -0.1216 -0.0092
80102W        W23015  25.280  24.452   5.880  0.0470 -0.1265 -0.0676
80103W        W23016  24.208  33.116  22.805 -0.0912 -0.0618 -0.0319
80104W        W23017  13.676   1.936   2.027 -0.0720 -0.3247 -0.1120
80105W        W23018  10.798  24.512  16.580 -0.1872 -0.0202  0.1077
80106W        W23019  19.979  34.048   0.040  0.0635 -0.3563  0.2596
80107W        W23020  14.905  28.343  28.786 -0.1785 -0.2370 -0.1852
80108W        W23021   4.666  29.090  19.026 -0.0738 -0.0060  0.1719
80109W        W23022  14.054   1.714  26.096 -0.0553  0.1574 -0.1859
80110W        W23023  11.677  33.274  10.209  0.1298  0.4680 -0.1672
80111W        W23024  28.077  21.013   1.967 -0.3922 -0.0965 -0.1882
80112W        W23025  20.299  25.728  19.969  0.1097 -0.1058 -0.0708
80113W        W23026  24.856  30.942   5.650  0.4705  0.0540 -0.0195
80114W        W23027  15.024  33.211  22.486  0.1479 -0.0023 -0.0936
80115W        W23028  10.254  27.747  15.739 -0.1751 -0.2552 -0.2146
80116W        W23029   5.492   3.817  24.972 -0.1135  0.0915  0.0135
80117W        W23030   9.494  25.603  26.349  0.1991 -0.3394  0.0482
80118W        W23031   8.400  23.025  18.621 -0.1130 -0.0020  0.0324
80119W        W23032  20.812   5.604   6.797 -0.2691 -0.2007  0.2341
80120W        W23033  16.245  23.314  17.271 -0.0978  0.2067 -0.1902
80121W        W23034  21.580  27.419  27.985  0.0953  0.2203  0.1007
80122W        W23035  17.048  21.169  25.319  0.0481  0.0834 -0.2752
80123W        W23036  15.713  24.806   7.784  0.2334 -0.1093 -0.2836
80124W        W23037  19.714   8.425  28.190 -0.0518 -0.0647  0.1448
80125W        W23038   6.777  17.915  23.251  0.2826  0.0938  0.1299
80126W        W23039  17.446  27.855  27.522  0.2011 -0.1296  0.2775
80127W        W23040  17.255   2.532  26.664 -0.2250  0.1659  0.0997
80128W        W23041   9.888  29.547  21.691  0.0883 -0.1426  0.0296
80129W        W23042  16.086  19.061   7.119 -0.2458  0.0744  0.3696
80130W        W23043   9.585  26.669   0.173  0.2501 -0.1286 -0.0053
80131W        W23044  18.674  32.837  23.574 -0.0826 -0.0838  0.0088
80132W        W23045   5.655  25.287  29.355 -0.0638  0.3289 -0.3177
80133W        W23046  22.166  25.172  19.813 -0.0223 -0.1227 -0.0641
80134W        W23047  20.149  34.038  23.717  0.3205 -0.0554 -0.0720
80135W        W23048   3.122   0.576   4.898  0.0180  0.1596  0.0442
80136W        W23049  26.995  15.399   2.774 -0.1016 -0.1773 -0.2529
80137W        W23050  13.091  10.160   4.673  0.0207 -0.1888  0.0724
80138W        W23051  18.252  12.335  17.544 -0.1931 -0.0809  0.0962
80139W        W23052   2.270  29.050  23.977 -0.0798 -0.3615  0.0925
80140W        W23053  10.133  21.892   0.621 -0.1453 -0.0736 -0.1399
80141W        W23054  20.149  30.403  20.631  0.0727 -0.1227  0.0901
80142W        W23055  15.070  22.694  28.204  0.3367 -0.0494 -0.0651
80143W        W23056  27.692   0.478   0.790  0.3454 -0.1590 -0.0515
80144W        W23057  10.228  24.204  27.172  0.1553 -0.2170 -0.1726
80145W        W23058  15.566  30.963   7.612 -0.1623  0.0785  0.1114
80146W        W23059  18.168  26.290  21.239  0.0863 -0.2194 -0.0792
80147W        W23060  23.607  33.520  16.595  0.1855  0.2583  0.1297
80148W        W23061  14.595  24.214  19.472  0.0011  0.0714  0.1701
80149W        W23062  13.535  29.485   6.674  0.2365 -0.2451 -0.0465
80150W        W23063  12.647  23.827   3.487 -0.0805 -0.0531 -0.0065
80151W        W23064  10.452  22.900  17.968  0.0673 -0.1971 -0.0208
80152W        W23065   5.315  24.993  21.648 -0.0082 -0.0600 -0.0528
80153W        W23066  17.135  21.138  22.966 -0.3448 -0.5321 -0.1231
80154W        W23067  27.923  28.091  17.383  0.3332  0.2500 -0.0511
80155W        W23068   2.452  24.151   3.396 -0.5232 -0.0306  0.1320
80156W        W23069   9.639  21.996  16.052 -0.1008  0.0373  0.2257
80157W        W23070  24.953  25.410  18.355  0.0806  0.1300  0.0187
80158W        W23071  19.117  25.810  22.028  0.0931  0.1429  0.1194
80159W        W23072   5.248  32.711  17.770  0.2278 -0.0411  0.3236
80160W        W23073  12.313  24.108  27.851 -0.0237 -0.0167 -0.0116
80161W        W23074  10.043   1.073  17.974  0.3480 -0.2085  0.2330
80162W        W23075  10.734  23.593  27.886  0.0612 -0.2769  0.1630
80163W        W23076   9.404  21.321  17.770  0.0384  0.1523 -0.1361
80164W        W23077  21.088  20.330  25.941 -0.2465  0.1126 -0.3044
80165W        W23078  12.950  25.682  26.838 -0.2973  0.0091 -0.2847
80166W        W23079  21.105  18.856   5.291  0.1424  0.0588 -0.0880
80167W        W23080  11.073  21.148   1.848 -0.2576  0.1889 -0.1529
80168W        W23081  12.906  30.105  27.298 -0.0849  0.0976 -0.2048
80169W        W23082  11.904   3.371  21.876 -0.3336  0.1386  0.3511
80170W        W23083  27.442  31.083  24.830 -0.0383 -0.2837 -0.1055
80171W        W23084  12.115  32.240  24.291 -0.0360 -0.0054  0.2840
80172W        W23085  12.568  30.825  21.825  0.2168 -0.0702  0.2009
80173W        W23086  15.979  25.964  16.481  0.1824 -0.2917 -0.1891
80174W        W23087  26.047   6.637   1.083 -0.5150 -0.0176 -0.0122
80175W        W23088  20.017  20.600  18.753 -0.2947 -0.1668  0.0428
80176W        W23089  25.273  28.406   3.998  0.2861  0.0515 -0.3593
80177W        W23090  16.163  24.672   3.612  0.3230 -0.2552 -0.3909
80178W        W23091  15.993  19.967   1.701  0.0328  0.0672 -0.0482
80179W        W23092   4.475  33.302  20.534 -0.0693  0.1459  0.2542
80180W        W23093  19.868   2.654   2.876 -0.1477  0.1822  0.2869
80181W        W23094  16.920  28.467   0.232  0.0110 -0.0849  0.0015
80182W        W23095  15.396  21.389  25.653  0.0630  0.2633 -0.0294
80183W        W23096  21.108  17.535  25.806  0.1435 -0.0958 -0.2358
80184W        W23097  14.161  24.115   5.543 -0.0745 -0.0952  0.1805
80185W        W23098  20.510  19.630  26.252 -0.2529 -0.1858 -0.1926
80186W        W23099  19.260  23.521   5.445  0.0169 -0.1365  0.1184
80187W        W23100   1.380  27.248  21.881 -0.0116 -0.1687 -0.0176
80188W        W23101   2.348  22.445  27.703 -0.2034  0.0764 -0.2360
80189W        W23102  21.895  24.727   2.816 -0.1642  0.1852  0.2640
80190W        W23103  13.936  19.915  17.546  0.1989  0.1600 -0.0427
80191W        W23104  11.871  27.732  27.747 -0.1345 -0.0001 -0.0982
80192W        W23105   6.669  27.647   0.480  0.3818 -0.1499  0.0229
80193W        W23106  16.999  21.775  15.981  0.1392 -0.0032  0.1010
80194W        W23107  19.439  26.508   7.592 -0.0345  0.0040 -0.1399
80195W        W23108  16.632  21.704   2.975 -0.1758 -0.0654  0.0069
80196W        W23109   8.159  34.388   0.318 -0.0088  0.0721 -0.2077
80197W        W23110  15.267  25.514  21.071  0.0720  0.1925 -0.3712
80198W        W23111  12.278  31.394   0.899  0.2136 -0.0030 -0.3036
80199W        W23112  13.834  33.371  18.654 -0.3040  0.2080  0.4798
80200W        W23113  20.566  29.016   3.549  0.1547 -0.3498  0.0234
80201W        W23114  24.527  19.874  20.663 -0.0910  0.0848  0.1074
80202W        W23115  21.311  26.832  29.476  0.1617  0.5152 -0.2921
80203W        W23116  23.724  25.243  28.587  0.0858 -0.2656  0.0563
80204W        W23117  19.131  21.077   5.808 -0.4181 -0.0881 -0.0422
80205W        W23118  22.508  23.424  25.256  0.3814  0.0662 -0.5894
80206W        W23119  18.463  18.532  25.019 -0.1503  0.0236  0.1030
80207W        W23120  12.432  26.978  24.832  0.4080 -0.1294  0.0387
80208W        W23121  15.674  22.541   2.204 -0.0758  0.0478 -0.1995
80209W        W23122  22.039  27.845  25.616 -0.1749 -0.1400 -0.0098
80210W        W23123  21.238  31.498   9.197  0.0114 -0.1358 -0.1896
80211W        W23124  14.330  19.160   2.979  0.0066 -0.0146  0.3640
80212W        W23125  16.123  28.647   4.105  0.2667 -0.2401  0.1438
80213W        W23126  13.265  30.158  26.357 -0.2443  0.0907 -0.1692
80214W        W23127  30.252  27.664  23.711  0.0456 -0.1626 -0.3796
80215W        W23128   9.151  22.856  16.049  0.0849  0.2978 -0.0168
80216W        W23129  22.816  27.159   7.679  0.1557  0.3086  0.4518
80217W        W23130  19.615  28.641  28.078 -0.4944  0.1986  0.2514
80218W        W23131  17.197  25.588   2.138 -0.4838  0.1680  0.0842
80219W        W23132   7.476  30.578   3.059  0.1306  0.1058  0.0772
80220W        W23133   8.848  28.896  21.828  0.0155 -0.0002 -0.1205
80221W        W23134  13.651   0.712   1.290 -0.2898  0.2272  0.3779
80222W        W23135  14.997  27.103  23.122 -0.2386 -0.1209  0.0114
80223W        W23136  11.579  28.233  27.724  0.1538 -0.2485 -0.1650
80224W        W23137  34.160   5.131   1.041  0.1380 -0.0276 -0.2917
80225W        W23138  26.507  26.190   6.076 -0.1606 -0.1029 -0.3644
80226W        W23139  11.546  24.598   9.417  0.0231  0.1039  0.0087
80227W        W23140  12.247  29.440  20.786  0.1624 -0.1160  0.0611
80228W        W23141  10.332  21.213  23.880 -0.3124 -0.1846  0.1596
80229W        W23142  14.278  32.675   9.504  0.0386  0.3703 -0.0181
80230W        W23143  25.480  31.832   2.788 -0.1753  0.1548  0.0325
80231W        W23144  26.047  25.822  28.522 -0.3445 -0.2963  0.0378
80232W        W23145  21.146  28.899  25.464 -0.1531 -0.0350 -0.0474
80233W        W23146  13.489  29.333  29.511 -0.0996  0.1240 -0.0094
80234W        W23147   5.900   3.629   0.484  0.2169  0.0157  0.0248
80235W        W23148   3.145  28.497  22.530 -0.3497  0.0259 -0.0497
80236W        W23149  13.391  13.870  16.153  0.1014  0.0135  0.0906
80237W        W23150  24.881  19.541   1.386 -0.0039 -0.0952  0.1351
80238W        W23151  18.111  33.467   0.175 -0.3945 -0.0294 -0.0150
80239W        W23152  15.118  30.048   6.833 -0.0894  0.1729 -0.2071
80240W        W23153  13.501  15.182  29.619 -0.0930  0.1333 -0.0188
80241W        W23154  24.511  23.894  25.488 -0.2834  0.0133  0.2671
80242W        W23155  11.446  22.542   1.093  0.1925 -0.0291  0.1785
80243W        W23156  18.144  19.452   6.207 -0.2262  0.2001 -0.2478
80244W        W23157  15.285  21.553  20.302 -0.1604 -0.0803  0.1613
80245W        W23158  21.265  28.688   1.030  0.0032  0.3044  0.4041
80246W        W23159  15.302  29.157   1.507 -0.0091  0.1544 -0.2973
80247W        W23160  21.680  23.898  16.875  0.2179  0.1687 -0.0047
80248W        W23161  20.934  29.811   2.025 -0.0413 -0.2377  0.1436
80249W        W23162  24.543   4.756   8.672 -0.0624 -0.6081  0.1258
80250W        W23163  23.838  13.189   5.573  0.1975  0.0165  0.0682
80251W        W23164  21.076  32.463  29.305  0.3708 -0.1070 -0.0290
80252W        W23165  12.997  25.608   0.706  0.0406 -0.3414  0.1210
80253W        W23166  15.834  33.372   7.889 -0.1666  0.0761 -0.0717
80254W        W23167  17.937  28.699  27.070 -0.1841 -0.0927  0.0554
80255W        W23168  31.036   1.342   5.353 -0.1954  0.1002 -0.1098
80256W        W23169   6.190  19.861  15.906  0.1318  0.0367  0.2875
80257W        W23170  16.371  28.718   6.902 -0.5185  0.0431  0.0396
80258W        W23171  28.299  15.460   7.313  0.1235  0.3296 -0.1353
80259W        W23172  27.490  16.688   2.977  0.2075  0.1582 -0.0556
80260W        W23173   1.801  29.780  22.515 -0.0360  0.1658 -0.2560
80261W        W23174  16.280  19.252  16.169 -0.3857 -0.0692  0.1654
80262W        W23175  11.440  19.871  23.505  0.1445 -0.0390 -0.0183
80263W        W23176  13.625  21.247  29.492  0.0575 -0.2072  0.2034
80264W        W23177  18.855   9.150   6.050  0.0411  0.0194 -0.0560
80265W        W23178   6.789  29.402   4.219 -0.0127 -0.1554  0.0303
80266W        W23179   8.567  33.311   6.410  0.0972 -0.0513 -0.2046
80267W        W23180  18.442   1.401   9.620 -0.1088  0.0259 -0.0292
80268W        W23181   8.446  29.440  28.712 -0.2557  0.4136  0.1375
80269W        W23182  15.301  29.287   6.466  0.0868 -0.1797  0.2460
80270W        W23183  15.951  21.439  24.997  0.3182 -0.0582 -0.1888
80271W        W23184  10.002  21.746   8.508  0.1946 -0.0528  0.2789
80272W        W23185  23.434  20.542  29.729  0.0495 -0.0916  0.1491
80273W        W23186  18.924  33.521   0.694  0.1881  0.1521  0.0091
80274W        W23187  18.197  28.665  27.938 -0.0331  0.3423  0.0233
80275W        W23188  25.623  29.673  18.419 -0.0256 -0.0006 -0.1510
80276W        W23189  23.078  22.798  15.071 -0.2505 -0.1879 -0.1828
80277W        W23190  25.050   0.449  16.437  0.0054 -0.2490 -0.2154
80278W        W23191  25.063   3.236  23.437  0.0485 -0.1518 -0.0502
80279W        W23192  11.084  26.252  21.073 -0.1902  0.0566 -0.0754
80280W        W23193  20.425  29.370  20.289 -0.1749 -0.2496  0.0805
80281W        W23194  23.690  33.496  17.505 -0.0627  0.0951 -0.0572
80282W        W23195  15.259   1.079  21.611 -0.2843 -0.0774  0.2477
80283W        W23196  14.292  25.919  15.644  0.2393  0.0860  0.0136
80284W        W23197  18.912  29.378  22.919  0.1285  0.0397 -0.0038
80285W        W23198   9.016  32.759  23.242 -0.1978 -0.1040  0.3009
80286W        W23199  34.256   1.805  17.228 -0.0297 -0.2243 -0.1000
80287W        W23200  16.518  30.694  27.008  0.1510 -0.1722 -0.2542
80288W        W23201  12.457  33.105  19.244  0.2782 -0.2393 -0.1022
80289W        W23202   2.478  23.796  23.553 -0.1830  0.3644 -0.2739
80290W        W23203  14.639  23.868  18.064 -0.0414  0.0700  0.1895
80291W        W23204  15.509   3.989  22.270 -0.1195  0.2514  0.0436
80292W        W23205  27.388   4.876  24.938  0.1780  0.1434  0.1355
80293W        W23206  26.122   5.252  21.291  0.0702 -0.1620  0.1622
80294W        W23207  10.400  30.951  16.869 -0.1374 -0.0108  0.2002
80295W        W23208  19.179  19.288  13.444 -0.2351 -0.0911  0.2104
80296W        W23209  22.715  27.040  15.227  0.4499  0.1193  0.1253
80297W        W23210  17.348  33.007  18.107  0.2987  0.0928  0.3992
80298W        W23211  23.770  32.809  21.539 -0.1891 -0.0373 -0.2890
80299W        W23212  18.348  18.269  13.255 -0.1856 -0.0070  0.4036
80300W        W23213  15.376  20.132  13.008  0.2118  0.3012  0.1042
80301W        W23214  26.478  22.323  19.226 -0.3802  0.0135  0.3451
80302W        W23215  16.608   2.237  22.266  0.2117 -0.1543 -0.1899
80303W        W23216  18.263   2.544   1.317 -0.0847 -0.2050  0.1832
80304W        W23217  19.491   2.294  18.045 -0.0892  0.0725  0.0071
80305W        W23218  18.785  28.681  20.625  0.1236 -0.0493  0.0737
80306W        W23219  14.548  29.906  19.465  0.0819 -0.3634 -0.0154
80307W        W23220  34.076  28.819  19.501  0.3125  0.0540  0.2081
80308W        W23221  24.519   0.671  19.967  0.1001  0.0568 -0.1273
80309W        W23222  19.305  33.210  13.563  0.0672  0.0924 -0.0836
80310W        W23223  17.951  18.694  28.745  0.1809  0.2209 -0.3110
80311W        W23224  17.997  28.936  14.944  0.1410 -0.3168  0.0499
80312W        W23225   7.340  31.258  22.675 -0.0653  0.1676  0.1075
80313W        W23226  16.159  29.119   0.059  0.1207 -0.3078 -0.2118
80314W        W23227  22.702   0.946  22.338 -0.1476  0.2509 -0.2510
80315W        W23228  15.762  25.264  16.453  0.0589  0.1256 -0.3707
80316W        W23229  14.150   9.562  19.047 -0.2089  0.3784 -0.1613
80317W        W23230   7.812   6.428  21.845 -0.2327  0.0338  0.0523
80318W        W23231  18.806   0.463  15.480  0.2848  0.2228 -0.2367
80319W        W23232  25.230  32.228  21.083  0.1397 -0.3150 -0.3306
80320W        W23233  18.830  26.054  16.643 -0.0691 -0.2004  0.1366
80321W        W23234  25.692  19.981  12.604 -0.1640  0.1952 -0.1441
80322W        W23235  19.269   7.101  16.621 -0.0446 -0.0986  0.2261
80323W        W23236  16.248  25.952  15.145  0.0087  0.3566  0.3299
80324W        W23237  15.548  32.530  23.702 -0.0345 -0.1539 -0.1261
80325W        W23238  16.901  32.846  15.436 -0.0497 -0.1449  0.0668
80326W        W23239   9.431  28.563  23.218 -0.0452 -0.1928 -0.1287
80327W        W23240  18.617  26.244  14.336  0.0236 -0.0016  0.0706
80328W        W23241  22.879  29.465  25.077 -0.0264 -0.1083 -0.0086
80329W        W23242  25.163  28.087  18.190 -0.0507  0.1029  0.0093
80330W        W23243  29.042  20.202  20.874 -0.1817 -0.1779  0.0461
80331W        W23244   7.214  32.084  18.635 -0.3269 -0.0117  0.2057
80332W        W23245  25.448   1.751  14.756  0.0871  0.0634 -0.3844
80333W        W23246  11.879  32.629  16.132  0.1995 -0.1013 -0.3075
80334W        W23247  16.919  19.625  24.032  0.1530 -0.0397 -0.1870
80335W        W23248   7.121  34.422  22.185  0.1265 -0.1572  0.0087
80336W        W23249   9.324  32.869  19.338 -0.3135  0.0406 -0.1653
80337W        W23250  19.501  22.262  20.624  0.4378  0.0799 -0.0634
80338W        W23251  22.746  29.974  16.444  0.2575 -0.0720  0.0228
80339W        W23252  14.386  27.670  15.384  0.0119 -0.0588 -0.3965
80340W        W23253  26.461   4.923  13.853 -0.1186 -0.0777  0.1942
80341W        W23254   6.141  27.899  24.364 -0.0726  0.0630 -0.1226
80342W        W23255  16.439  29.154  16.014 -0.0421  0.1438  0.2836
80343W        W23256  21.847   2.277  16.601  0.1727 -0.0204  0.0715
80344W        W23257  18.271   1.008  14.063 -0.3372 -0.0918  0.1119
80345W        W23258  19.358  33.048  16.037 -0.0608  0.1705 -0.0222
80346W        W23259  22.057   4.367  15.699  0.2865  0.2185 -0.1980
80347W        W23260  21.894  31.755  16.751 -0.2307  0.3807 -0.2508
80348W        W23261  16.045  27.723  14.664 -0.4013 -0.2226  0.2139
80349W        W23262  22.960  27.449  17.318 -0.0786 -0.2481 -0.1797
80350W        W23263  18.591   6.390  29.052 -0.2482 -0.0871 -0.2555
80351W        W23264  20.466  32.552  14.188  0.1244  0.2719  0.0777
80352W        W23265   7.997  28.841  16.539  0.0515  0.1362  0.0145
80353W        W23266  23.744  26.922  20.088 -0.0801  0.0852  0.2159
80354W        W23267   7.885  20.989  25.488  0.0922 -0.1799 -0.1171
80355W        W23268  11.928  23.119  20.035  0.1635 -0.0818 -0.4060
80356W        W23269  14.186  26.845  20.253 -0.1258 -0.0417 -0.1587
80357W        W23270   3.938  17.614  18.172  0.2594 -0.2112 -0.3604
80358W        W23271  17.792  28.840  24.404 -0.1678  0.1179  0.2501
80359W        W23272  11.878  25.899  18.122  0.2116 -0.2314 -0.1086
80360W        W23273  19.619   2.271  18.600  0.0759  0.0365  0.1846
80361W        W23274  15.821  29.786  24.004 -0.0243 -0.2772 -0.1147
80362W        W23275  20.612   1.087  18.580 -0.0852  0.3559  0.2644
80363W        W23276  27.962   5.161  18.126 -0.1822  0.1856 -0.0408
80364W        W23277  23.392  29.621  14.650 -0.0431  0.1807  0.1698
80365W        W23278  16.671   1.252  20.672 -0.2078 -0.0846  0.1224
80366W        W23279  20.776  29.926  14.872  0.2394  0.2771  0.0873
80367W        W23280  18.572  31.366  17.082  0.2823 -0.1934  0.0153
80368W        W23281  28.769  29.055  23.032 -0.1299 -0.0853 -0.3113
80369W        W23282  16.624  23.121  19.580 -0.1637 -0.1820 -0.1292
80370W        W23283  13.013  26.628  19.742  0.1080 -0.1570 -0.2658
80371W        W23284  14.642  23.247  18.272 -0.2569 -0.2425 -0.1901
80372W        W23285  14.852  27.434  15.260 -0.0413  0.3075  0.0520
80373W        W23286  12.472  25.673  16.334  0.0532 -0.3382  0.1154
80374W        W23287  14.128  33.871  16.779  0.1652 -0.1768 -0.0426
80375W        W23288   1.593   2.181  16.953 -0.0131 -0.1114 -0.3964
80376W        W23289  22.304  29.998  15.634 -0.2070 -0.0488 -0.2150
80377W        W23290  14.787  30.693  28.558 -0.1810  0.0145 -0.0806
80378W        W23291  28.844  28.406  17.722 -0.1164  0.1872  0.1781
80379W        W23292  19.567  29.178  21.005  0.1163 -0.0836 -0.0577
80380W        W23293   9.770  28.109  26.988 -0.2313 -0.1671  0.1615
80381W        W23294  10.287  24.208  15.485 -0.1631  0.0644 -0.0596
80382W        W23295  15.605   5.259  18.423 -0.2824  0.1509  0.1420
80383W        W23296  10.816  31.296  21.094 -0.1111  0.2272  0.1320
80384W        W23297  25.712  29.838  20.819 -0.1220  0.2126  0.0335
80385W        W23298  10.963  32.933  17.552  0.0342  0.3195 -0.0604
80386W        W23299  23.408   1.392  29.117  0.4897 -0.2263  0.0263
80387W        W23300  15.480  31.033  14.945  0.3802 -0.0479 -0.1328
80388W        W23301  21.626  31.652  15.046 -0.0579  0.0934  0.0452
80389W        W23302  16.992  25.669  19.809 -0.0588 -0.1967 -0.1984
80390W        W23303  17.828  30.170  23.805  0.3760 -0.0045  0.0512
80391W        W23304  10.891  25.229  15.876  0.2024  0.1287 -0.2177
80392W        W23305  19.337  17.368  13.750  0.2499 -0.0206 -0.1759
80393W        W23306  18.888   0.426  24.420  0.2756 -0.2102 -0.2250
80394W        W23307  10.943  25.317  18.575  0.0455  0.1485  0.4471
80395W        W23308  17.201  29.526  20.714  0.2941  0.0229 -0.1882
80396W        W23309   7.499  31.534  26.741 -0.1972  0.1132  0.0690
80397W        W23310   5.524  17.887  15.374 -0.1501 -0.1660 -0.0375
80398W        W23311   7.843  31.974  17.477 -0.2642 -0.2219 -0.2121
80399W        W23312  19.614  33.971  24.361 -0.2836  0.0400 -0.0330
80400W        W23313  32.688   1.159  23.957 -0.0609  0.0776 -0.0423
80401W        W23314  20.906  21.339  16.935 -0.0871 -0.1311  0.1792
80402W        W23315  13.768  32.402  16.501 -0.3557 -0.0798 -0.1975
80403W        W23316  12.906  28.686  20.938  0.1625 -0.3653  0.0042
80404W        W23317  11.374  26.980  16.904 -0.3262 -0.0513  0.0720
80405W        W23318  12.758  18.411  15.302 -0.1532  0.0341 -0.0397
80406W        W23319  30.785   5.450  21.579  0.0375 -0.0944 -0.1148
80407W        W23320  14.580  33.678  19.931 -0.1891  0.1478  0.0809
80408W        W23321  23.285  17.421  14.504  0.2441 -0.0139 -0.1042
80409W        W23322  14.907  26.814  25.190 -0.0994  0.1988  0.1618
80410W        W23323  10.697  33.953  20.093  0.1636 -0.1564 -0.1942
80411W        W23324   9.935  26.364  14.789  0.3927 -0.1754 -0.0475
80412W        W23325  10.032  23.683  17.300  0.0704  0.1144  0.0844
80413W        W23326  14.016   1.587  20.868  0.0430  0.4027  0.0069
80414W        W23327   2.052  26.231  15.341  0.3155 -0.0161  0.4877
80415W        W23328  11.027  27.113  15.924 -0.1175 -0.2723 -0.1178
80416W        W23329  10.586  18.103  22.427  0.0749  0.3399  0.1562
80417W        W23330  30.362  16.651  26.748 -0.0203  0.1403  0.2148
80418W        W23331  17.287   5.217  16.178  0.0052  0.1939  0.1910
80419W        W23332  21.925   0.198  17.006 -0.2836 -0.0862 -0.1289
80420W        W23333  15.248  26.476  15.848  0.2130  0.1291 -0.1091
80421W        W23334  24.433  33.272  14.111 -0.0832 -0.0393  0.1088
80422W        W23335   4.235  28.615  20.314  0.0572  0.0826 -0.1070
80423W        W23336  23.079  25.273  17.258  0.0385 -0.0212  0.4460
80424W        W23337  14.246  13.697  15.382 -0.0237 -0.1500 -0.1824
80425W        W23338   3.047  31.643  15.360  0.3686 -0.2611  0.2616
80426W        W23339  17.323   0.587  20.251  0.0221  0.1253 -0.3001
80427W        W23340  24.126  27.309  12.982 -0.2100 -0.0567 -0.3176
80428W        W23341  15.626  23.696  14.698 -0.1659 -0.0657  0.0917
80429W        W23342  26.460  29.803  14.550  0.1199  0.0479 -0.2316
80430W        W23343  15.006   6.092  17.913 -0.0813 -0.0528  0.4733
80431W        W23344  14.321  30.465  18.609  0.0215 -0.3117 -0.3247
80432W        W23345  16.153  32.231  15.664  0.0578  0.0729 -0.1392
80433W        W23346  14.756   2.756  26.186 -0.2267 -0.2993 -0.2829
80434W        W23347  19.749   3.530  20.352  0.1010  0.0715  0.0969
80435W        W23348  17.897  30.375  21.994  0.2054  0.0189 -0.0602
80436W        W23349  16.832  28.906  16.257 -0.1615 -0.0337  0.1104
80437W        W23350  14.464  32.245  18.609 -0.1943 -0.1302  0.1329
80438W        W23351  20.295   5.686   0.936 -0.0733  0.1190  0.0104
80439W        W23352  24.453  27.909  13.179 -0.1458  0.1261  0.3342
80440W        W23353  22.781  31.489  20.439 -0.0812  0.1930 -0.0305
80441W        W23354  10.366  29.083  20.215  0.3602  0.1009 -0.2535
80442W        W23355  18.618  26.666  14.026  0.2177 -0.0208  0.1714
80443W        W23356  22.328  28.634  18.202 -0.1308 -0.1905 -0.4692
80444W        W23357  13.251  26.708  14.981  0.1279  0.1064 -0.0304
80445W        W23358  22.479  22.471  16.223 -0.0785 -0.1675  0.1086
80446W        W23359  16.681  27.011  22.540 -0.0985  0.1841 -0.1498
80447W        W23360  16.787  24.749  15.251  0.1669 -0.0916 -0.2692
80448W        W23361  10.802  26.459  19.868  0.0809  0.1134  0.0864
80449W        W23362  33.073  26.492  28.961  0.0081  0.0251 -0.1577
80450W        W23363  21.310  13.618  15.360 -0.1782 -0.2946  0.1112
80451W        W23364  17.554  28.396  20.054  0.0831  0.0218  0.0290
80452W        W23365  16.915  31.847  21.165 -0.0173 -0.1704  0.0191
80453W        W23366  14.193  26.797  16.316  0.0650 -0.2782  0.0311
80454W        W23367  22.762  31.458  18.162  0.0550 -0.2270 -0.2303
80455W        W23368  14.159  20.537  15.672 -0.1190 -0.3231  0.0120
80456W        W23369  23.101  28.027  15.502  0.0189  0.1372 -0.1545
80457W        W23370  27.651   7.142  15.715  0.2660 -0.1064  0.1092
80458W        W23371  18.192  30.215  15.792 -0.1001 -0.0276 -0.0035
80459W        W23372   2.132  28.988  29.735  0.4128 -0.1199  0.2112
80460W        W23373  15.344   4.824  19.842 -0.1479 -0.2147  0.0055
80461W        W23374  18.807  28.936  16.987  0.1162  0.3009 -0.2530
80462W        W23375  17.294   0.350  15.310 -0.0902 -0.0780  0.1673
80463W        W23376  16.738  27.330  17.073 -0.1174 -0.0207 -0.2770
80464W        W23377  26.782  28.361  21.226  0.1994 -0.3637 -0.0076
80465W        W23378  18.713  30.923  14.055 -0.0266  0.4913  0.1742
80466W        W23379  17.440  30.473  27.307 -0.1957 -0.0493 -0.4787
80467W        W23380  24.987  28.844  14.693  0.0966 -0.1124 -0.0241
80468W        W23381   6.417  30.798  22.906  0.0834  0.1840  0.0823
80469W        W23382  21.934  30.719  16.625 -0.1484 -0.1494  0.3536
80470W        W23383  29.297  23.016  15.294  0.0340 -0.1793  0.0105
80471W        W23384  21.760  21.128  12.345 -0.2279 -0.3209 -0.0620
80472W        W23385   9.842  21.241  15.566 -0.1294 -0.1755 -0.1428
80473W        W23386  23.268   0.628  20.994 -0.2173  0.3708 -0.0419
80474W        W23387  13.070  26.525  16.772  0.1838 -0.0260  0.0569
80475W        W23388  22.371   3.846  14.798  0.0841 -0.0533 -0.0207
80476W        W23389  18.431   5.205  16.372  0.2629  0.2770 -0.3145
80477W        W23390  21.786  33.977  17.917  0.0397 -0.0147 -0.0865
80478W        W23391  18.630  24.777  26.039 -0.1958  0.5048  0.2591
80479W        W23392  12.828  29.493  17.369  0.1586 -0.1214  0.0820
80480W        W23393   8.686  26.572  18.566 -0.0107  0.2206  0.1742
80481W        W23394  18.536  23.588  19.158 -0.1751 -0.1894 -0.0918
80482W        W23395   9.489  25.630  17.184  0.0339  0.3593  0.2081
80483W        W23396   6.885  23.253  16.639 -0.0105  0.0072  0.2077
80484W        W23397  19.413  33.889  16.334  0.1033 -0.1279  0.2592
80485W        W23398  25.408  27.255  22.862  0.2383 -0.1893 -0.0724
80486W        W23399  18.524  26.663  18.878 -0.0482 -0.1938  0.1645
80487W        W23400  13.748  26.532  15.219 -0.1810  0.0309  0.0064
80488W        W23401  26.559  30.689  16.485  0.0613 -0.1451 -0.0543
80489W        W23402  10.982  25.258  19.217  0.0919  0.0293  0.0108
80490W        W23403   7.487  32.099  17.845  0.2199 -0.0012 -0.2793
80491W        W23404  21.915  22.225  21.084  0.1510 -0.0083 -0.1080
80492W        W23405  14.574   0.666  23.716  0.0853 -0.3215  0.0216
80493W        W23406  21.670  34.132  13.484  0.0068 -0.0013  0.0376
80494W        W23407  12.075  24.472  15.651  0.1138  0.2285  0.0840
80495W        W23408  13.493   5.237  18.711  0.3107 -0.2506  0.1860
80496W        W23409   8.928  30.277   6.658 -0.1096  0.3340 -0.0356
80497W        W23410  25.264  26.656  18.854 -0.1745 -0.3104 -0.2307
80498W        W23411  16.542   1.384  20.236  0.0152 -0.0038  0.1808
80499W        W23412  20.909  23.546  18.883  0.1979  0.3766  0.1263
80500W        W23413  22.991  20.615  16.201  0.1973 -0.0605 -0.0543
80501W        W23414  18.237  24.868  14.772  0.2894 -0.0611  0.1077
80502W        W23415  23.003   0.079  13.478  0.1334 -0.0356  0.1363
80503W        W23416   9.859  32.238  17.297  0.2866  0.3800 -0.2099
80504W        W23417  22.539  23.356  22.893 -0.0871  0.2559  0.2201
80505W        W23418  25.985  28.896  21.870  0.0407  0.5059 -0.1091
80506W        W23419  19.003   0.030  14.513 -0.0692 -0.2304 -0.2421
80507W        W23420  10.182  33.129  26.702 -0.1389 -0.1987 -0.0144
80508W        W23421  20.319  33.877  20.168  0.0973  0.1064 -0.1320
80509W        W23422  18.569  27.440  26.193 -0.2819  0.3398  0.1627
80510W        W23423  28.601  27.912  23.302 -0.2828  0.1282  0.0187
80511W        W23424  11.527  19.573  18.008 -0.0960 -0.0026  0.0211
80512W        W23425  18.491   3.836  20.712 -0.1766  0.2167 -0.0350
80513W        W23426   1.716  23.353  19.694  0.0623  0.1355 -0.0106
80514W        W23427  26.293  27.515  17.114  0.0535 -0.0015  0.1565
80515W        W23428  11.934  22.267  17.249  0.0617 -0.1017  0.2132
80516W        W23429  21.651  19.927  18.271  0.0948  0.0501 -0.1683
80517W        W23430  13.192  30.429  25.875  0.1061  0.0136 -0.4418
80518W        W23431  23.381   0.141  19.582 -0.2355  0.3221  0.0972
80519W        W23432  10.500  31.201  19.387  0.2385  0.2121 -0.0259
80520W        W23433  17.560   0.311  15.741 -0.1377 -0.0897  0.1638
80521W        W23434  19.647  33.009  19.431  0.3567  0.1453  0.1252
80522W        W23435   7.056   1.710  22.520  0.3365  0.0359 -0.0768
80523W        W23436  17.353  29.578  17.510 -0.0599 -0.0196  0.1472
80524W        W23437  16.979  32.460  15.719 -0.1376 -0.0842  0.0629
80525W        W23438  19.968  23.551  13.980 -0.2914  0.0278 -0.1030
80526W        W23439  11.159  28.064  21.744  0.1626 -0.0486  0.1609
80527W        W23440   5.900  31.986  19.527  0.2368 -0.1250  0.0494
80528W        W23441  24.233   2.043  24.141  0.4078  0.0983 -0.2122
80529W        W23442   7.586  25.676  15.687  0.5472 -0.0825  0.1131
80530W        W23443   4.291  25.388  25.374 -0.1987  0.1332 -0.0741
80531W        W23444   8.673  24.333  17.382  0.2833  0.2236  0.1051
80532W        W23445  21.769  31.744  18.328  0.2206  0.0263 -0.2226
80533W        W23446  22.100  32.255  20.536 -0.1467 -0.0307 -0.2623
80534W        W23447  21.304  18.266  19.723  0.0349  0.0164  0.0918
80535W        W23448  25.616  23.360  17.676  0.3474 -0.0757 -0.0934
80536W        W23449  13.022  22.562  17.557 -0.0569  0.2005 -0.0810
80537W        W23450  20.637  28.828  22.515 -0.0438  0.1109 -0.0273
80538W        W23451  10.640  23.762  15.327 -0.0681  0.0365  0.1667
80539W        W23452   8.204  27.404  21.431 -0.0100 -0.0529  0.0706
80540W        W23453   6.630  31.761  26.121 -0.1214 -0.1535 -0.4050
80541W        W23454  25.351   5.265  15.325  0.2984 -0.4370 -0.4117
80542W        W23455   8.468  29.712  22.999 -0.3978  0.2726  0.1255
80543W        W23456  11.897  31.653  17.446 -0.0497  0.2084 -0.1635
80544W        W23457  18.510  24.542  29.443 -0.0853 -0.2099 -0.0799
80545W        W23458  26.204  26.151  15.577  0.1828 -0.2100 -0.1750
80546W        W23459  13.113  33.320  21.343 -0.2031  0.0810  0.0825
80547W        W23460  10.120  21.613  14.470  0.3013  0.0760 -0.0618
80548W        W23461  23.465   3.181  13.455 -0.1213 -0.2013 -0.2618
80549W        W23462  22.494   1.710  15.703  0.2183 -0.1675 -0.0666
80550W        W23463  24.737  27.795  17.068  0.0526  0.0196  0.1991
80551W        W23464   9.010  19.453  14.788 -0.0460  0.1769  0.1802
80552W        W23465   8.425  20.354  21.667  0.4026 -0.0864  0.1625
80553W        W23466  16.092  29.050  17.917 -0.1479 -0.2019 -0.1734
80554W        W23467  17.777  25.944  25.296 -0.0409 -0.0287 -0.0275
80555W        W23468  20.997  24.286  16.224 -0.3433  0.1397 -0.2761
80556W        W23469  13.601   5.710  19.141  0.2444  0.1798 -0.1151
80557W        W23470  13.577  25.976  16.602 -0.2148  0.2236  0.0005
80558W        W23471  24.230  22.689  14.274 -0.0176 -0.0335 -0.2894
80559W        W23472  16.611  24.105  20.986  0.1158 -0.0523  0.4452
80560W        W23473  26.213  27.463  20.324 -0.2679 -0.0922 -0.4013
80561W        W23474  24.285  22.417  17.280  0.1036  0.1551 -0.0324
80562W        W23475  13.321  33.838  17.962 -0.0830  0.1282  0.0750
80563W        W23476  17.603   5.938  19.245  0.0705 -0.0121 -0.1859
80564W        W23477  10.001  22.932  17.732 -0.3415 -0.2228  0.0817
80565W        W23478   3.274  31.137  22.394  0.0573  0.2193 -0.2654
80566W        W23479  18.923  26.613  18.520  0.3353  0.2023 -0.0077
80567W        W23480  14.987   2.462  16.578  0.1544 -0.0324  0.3274
80568W        W23481  25.811  16.653  18.821 -0.3029 -0.2204  0.2356
80569W        W23482  18.465  26.378  18.489 -0.0725  0.2539  0.0931
80570W        W23483  15.044  28.192  16.454  0.2374  0.0828  0.2720
80571W        W23484  15.052  25.720  17.118 -0.3493 -0.2450  0.1714
80572W        W23485  26.458   6.008  21.524  0.0395 -0.0797 -0.1433
80573W        W23486  26.107  22.816  23.802 -0.0974 -0.2693  0.1205
80574W        W23487  24.709   7.334  28.857 -0.0414  0.4015 -0.0761
80575W        W23488  10.442  23.824  26.461  0.0589 -0.0475 -0.3204
80576W        W23489  12.850   1.710  19.672  0.0004  0.0612  0.0372
80577W        W23490  18.923  27.504  14.498 -0.1894 -0.0241 -0.3220
80578W        W23491  24.197  31.909  14.618  0.1096 -0.1640  0.0960
80579W        W23492   9.939  20.675  26.344 -0.0325 -0.0212  0.4108
80580W        W23493  23.187  33.808  16.801  0.0362  0.0494  0.0966
80581W        W23494  23.956  29.877  21.027  0.0544 -0.0782  0.2932
80582W        W23495  26.214  34.074  15.866 -0.1691 -0.1293  0.0666
80583W        W23496  14.582   1.765  15.645 -0.0418  0.2945  0.1756
80584W        W23497  20.409  25.829  14.550 -0.1080 -0.0425 -0.0302
80585W        W23498  13.883  25.117  14.505  0.0557  0.2613 -0.0562
80586W        W23499  23.632  19.886  15.803  0.0340 -0.0563  0.2871
80587W        W23500  18.697  22.430  14.248 -0.0107 -0.2621 -0.1924
80588W        W23501  20.775  19.501  15.355  0.2853 -0.1591  0.3575
80589W        W23502   3.265  28.189  22.924  0.1795 -0.2041 -0.2327
80590W        W23503  18.181  31.189  17.347 -0.0847  0.3860  0.1130
80591W        W23504   9.222  28.516  29.060 -0.4262  0.3152 -0.1313
80592W        W23505  32.660  18.138  14.117  0.0489  0.2328 -0.1028
80593W        W23506   0.234  11.243  19.653 -0.0309  0.1908  0.3695
80594W        W23507  25.839  27.109  13.438  0.0367  0.0597 -0.2240
80595W        W23508  15.341   3.094  17.116 -0.0044 -0.2215 -0.0948
80596W        W23509  15.221  23.572  24.227 -0.0295 -0.0244  0.0491
80597W        W23510   4.080   2.770  21.690 -0.0685 -0.2904 -0.0743
80598W        W23511   8.085   8.404  18.559 -0.0022 -0.1537 -0.0344
80599W        W23512  19.830   6.494  13.616  0.4115  0.0201 -0.3260
80600W        W23513  18.914  32.090  15.820 -0.0990 -0.0679  0.2385
80601W        W23514  21.269  29.613  16.550 -0.0564  0.2170  0.0891
80602W        W23515  17.284  30.857  19.333 -0.1818 -0.0120  0.1781
80603W        W23516  15.071  27.551  14.780 -0.2730 -0.0548 -0.1633
80604W        W23517   5.960  31.366  24.061 -0.1588  0.1804 -0.1357
80605W        W23518  21.146  32.974  18.175 -0.1652 -0.0072 -0.0962
80606W        W23519  26.200   0.601  14.295 -0.2366  0.1392  0.1590
80607W        W23520  16.462  25.077  17.195  0.0482  0.0724  0.0084
80608W        W23521  17.378  28.380  20.670 -0.3722  0.0159 -0.0187
80609W        W23522  19.828  31.973  23.949  0.3216  0.0232  0.1603
80610W        W23523  21.065  25.044   0.542 -0.4005  0.3111 -0.0073
80611W        W23524  20.667  32.912  13.984 -0.1312 -0.0613  0.1344
80612W        W23525  10.787  28.636  21.094 -0.0266 -0.0536 -0.0997
80613W        W23526  10.948  30.154  23.484 -0.1228  0.1239 -0.1315
80614W        W23527  13.532   7.478  19.650  0.1470 -0.0205  0.2777
80615W        W23528  15.243  22.369  25.318  0.0661 -0.3822  0.1093
80616W        W23529  21.328  31.058  23.735 -0.0629  0.0700  0.4800
80617W        W23530  23.656  23.220  17.911 -0.0324 -0.2306  0.0616
80618W        W23531  19.479  31.496  16.278 -0.0651 -0.2758  0.0241
80619W        W23532  19.448  26.316  19.176  0.2143 -0.2025 -0.0367
80620W        W23533  21.199  19.256  16.756  0.3764 -0.2301 -0.2678
80621W        W23534  12.521  29.593  16.886 -0.3221  0.2811  0.3500
80622W        W23535  13.011  28.284  15.883 -0.1417  0.2401  0.1738
80623W        W23536  15.553  24.443  15.321 -0.2218  0.0686 -0.0037
80624W        W23537  14.634  31.406  15.973 -0.0302 -0.0663 -0.0703
80625W        W23538  13.614   4.769  16.838 -0.2687 -0.0704 -0.0167
80626W        W23539  11.719  26.774  29.216  0.0003  0.4089  0.0094
80627W        W23540   5.271  33.002  21.154 -0.0897 -0.0481  0.1621
80628W        W23541  10.171  32.388  21.436 -0.1734  0.0521 -0.2182
80629W        W23542  19.145   2.196  15.749  0.0381  0.4072 -0.0737
80630W        W23543  16.791  26.762  16.393 -0.0308  0.1149  0.3802
80631W        W23544  17.952  32.509  15.643  0.0568  0.0796 -0.0403
80632W        W23545   9.363  31.629  16.661 -0.0074  0.1036  0.4160
80633W        W23546  16.112  25.967  23.244 -0.3700  0.0086 -0.1769
80634W        W23547  11.100  26.203  16.919  0.1294 -0.1313 -0.4797
80635W        W23548  17.534  33.003  21.308 -0.0697 -0.1235 -0.0542
80636W        W23549  14.161   1.485  19.638 -0.0662  0.0421 -0.1000
80637W        W23550  24.597  15.880  14.393  0.4174  0.0585  0.0780
80638W        W23551  14.088  29.443  26.125  0.2011 -0.2021  0.0504
80639W        W23552  14.799  25.552  25.105 -0.1736 -0.1626  0.3738
80640W        W23553  24.115   4.548  21.935 -0.3732 -0.0679  0.1005
80641W        W23554  28.886  23.480  18.228  0.0071  0.0992  0.0788
80642W        W23555  24.987  27.583  20.324  0.1345  0.4074 -0.1384
80643W        W23556   5.995  10.027  19.055  0.2336 -0.1199  0.0796
80644W        W23557  20.199  21.363  20.266 -0.1849  0.0783  0.1477
80645W        W23558  24.239   1.434  16.032  0.3044 -0.0277  0.1522
80646W        W23559  10.348  24.845  16.722 -0.3728  0.2623  0.1861
80647W        W23560  11.932  34.136  16.283  0.0323  0.1600 -0.0231
80648W        W23561  26.101  25.403  13.514 -0.3387  0.0453  0.2117
80649W        W23562  11.176  30.408  17.930  0.0001  0.3291 -0.4439
80650W        W23563   2.364  29.992  17.692  0.1428  0.0101  0.1475
80651W        W23564  13.412  28.100  21.546 -0.2168 -0.0324  0.1163
80652W        W23565  13.745  20.996  16.788  0.1539  0.1225  0.5193
80653W        W23566  23.291  29.325  28.293 -0.0881  0.0240 -0.2280
80654W        W23567   9.796  28.816  19.996 -0.0775 -0.1372 -0.0964
80655W        W23568  16.161   2.385  24.748  0.2260 -0.3183 -0.3774
80656W        W23569   9.799  27.680  16.728  0.1143  0.1745  0.1134
80657W        W23570  16.962  24.945  19.186  0.2187 -0.0350 -0.0040
80658W        W23571  12.879   1.791  21.852  0.0266  0.0529 -0.1617
80659W        W23572   1.816  34.307  15.748 -0.0089  0.0645  0.3635
80660W        W23573  14.043  22.123  13.329 -0.0509 -0.0835 -0.3085
80661W        W23574   8.698  23.739  20.389 -0.1040 -0.3165  0.1596
80662W        W23575  13.322  26.026  13.773 -0.0580 -0.1640 -0.1976
80663W        W23576  17.424  32.151  15.205 -0.2134 -0.0077 -0.2665
80664W        W23577  10.179  26.878  18.744  0.1684  0.2781 -0.0446
80665W        W23578  18.101  34.080  21.326 -0.0183 -0.1212 -0.0061
80666W        W23579  27.941  29.794  18.738  0.2673 -0.3448  0.0301
80667W        W23580   7.295  22.104  17.344 -0.0924 -0.0844  0.2521
80668W        W23581  16.715  24.054  21.535  0.0943  0.0086  0.3509
80669W        W23582   8.567  25.838  17.676 -0.1537 -0.3938 -0.1306
80670W        W23583  28.255  30.805  18.286  0.1309 -0.0783  0.3124
80671W        W23584  14.256  31.790  18.245 -0.0541  0.0947 -0.0381
80672W        W23585  21.084   3.472  14.838 -0.2449  0.0091 -0.0513
80673W        W23586   9.296  30.822  25.650  0.0341  0.1003 -0.2140
80674W        W23587  20.457  29.140  19.436  0.0814 -0.0000  0.1937
80675W        W23588  27.604  17.911  17.876 -0.2719 -0.1655 -0.0103
80676W        W23589  14.014   6.511  17.090  0.0240 -0.1070  0.0113
80677W        W23590  21.601  28.664  21.667  0.3058  0.1671 -0.3233
80678W        W23591  17.480   1.361  28.572 -0.2165 -0.1181  0.0601
80679W        W23592  12.733  28.253  20.512 -0.0871  0.1779 -0.0964
80680W        W23593   2.074  33.539  16.381 -0.3877  0.0657 -0.0418
80681W        W23594   5.776  24.305  24.108  0.0207 -0.1191 -0.1071
80682W        W23595  31.670   1.760  19.336 -0.0477 -0.2795  0.1874
80683W        W23596  22.163  31.015  24.299 -0.1286 -0.2521  0.0225
80684W        W23597  23.305  26.006  14.452  0.0814  0.0895 -0.1338
80685W        W23598  24.468  19.726  15.125 -0.1887 -0.0824 -0.0514
80686W        W23599  10.805   4.589  27.663  0.2995 -0.0449  0.0989
80687W        W23600   7.775  22.490  18.003  0.1556 -0.4295  0.0147
80688W        W23601  10.771   0.761   2.570 -0.4371  0.1058 -0.0098
80689W        W23602  21.265  28.811  21.315  0.3054 -0.1597 -0.0274
80690W        W23603  13.496  23.175  22.255 -0.0196 -0.1741  0.1242
80691W        W23604  17.662  33.665  23.863  0.0449  0.1333 -0.1465
80692W        W23605   4.449  18.035  16.902  0.0266  0.0843  0.1273
80693W        W23606  14.731  23.084  27.132 -0.3939 -0.0809 -0.2087
80694W        W23607  24.200  33.773  18.708 -0.4212 -0.1430 -0.0062
80695W        W23608  17.590  19.769  15.537 -0.1338 -0.0385  0.1517
80696W        W23609   2.395   7.349  19.780 -0.0895  0.1831 -0.1089
80697W        W23610  22.701  33.687  17.682 -0.3666  0.3129  0.1085
80698W        W23611  17.027   3.791  24.190 -0.2413 -0.0215 -0.0412
80699W        W23612   5.988  22.309  15.822 -0.0282  0.0821 -0.0934
80700W        W23613  29.496  29.545  15.667 -0.0664 -0.2733  0.1151
80701W        W23614   9.034  31.701  24.159 -0.0217  0.0611  0.1925
80702W        W23615  22.608  28.785  24.087 -0.2211 -0.1311  0.1528
80703W        W23616  20.532  33.108   0.206 -0.1477 -0.0648 -0.1827
80704W        W23617  18.365  21.796  13.979  0.1435  0.2619 -0.0019
80705W        W23618  12.504   8.070  23.003 -0.0177  0.4066  0.2098
80706W        W23619  14.254  32.384  15.410 -0.0055 -0.1423  0.3464
80707W        W23620  16.501  26.453  28.067  0.1032  0.2189 -0.1664
80708W        W23621  14.101  25.820  19.857  0.0287 -0.1876  0.0935
80709W        W23622  21.582  28.286   0.646  0.0686 -0.1014  0.0382
80710W        W23623  10.648  21.117  23.448  0.1692  0.2192  0.5149
80711W        W23624  15.546   2.974  15.842 -0.0740  0.1615  0.1085
80712W        W23625  12.195   2.237  18.418  0.2721 -0.3036  0.0988
80713W        W23626   4.662  18.661  24.446 -0.1859 -0.2352  0.0826
80714W        W23627  15.719  29.670  14.996 -0.0252  0.0153  0.0185
80715W        W23628   4.397   2.242  17.091 -0.3659 -0.3593  0.0388
80716W        W23629   5.449   5.666  25.638 -0.0619 -0.1637 -0.3365
80717W        W23630   1.173  24.874  21.746 -0.0791 -0.1393 -0.1440
80718W        W23631  10.377  32.848   7.071  0.0171 -0.2816  0.1732
80719W        W23632   6.148  26.958  19.765 -0.0474 -0.1312  0.0032
80720W        W23633  27.497  25.574  16.008  0.0852  0.4216 -0.2815
80721W        W23634  17.085   4.041  20.306 -0.2546 -0.0755  0.0643
80722W        W23635  27.155  23.099  22.928  0.1883 -0.2804 -0.2187
80723W        W23636   9.661  20.225  23.643 -0.0155 -0.1728  0.0692
80724W        W23637  26.691  24.430  14.978  0.0424  0.0620 -0.1309
80725W        W23638   4.175  24.227  21.206 -0.4067  0.0564 -0.0346
80726W        W23639  20.100  24.553  17.964  0.2381 -0.2473 -0.1793
80727W        W23640  14.283  23.568  16.079 -0.2711 -0.1487 -0.2269
80728W        W23641  30.976  27.371  14.252  0.0574  0.1532 -0.0014
80729W        W23642  19.142   0.880  21.609 -0.0528  0.2880 -0.1557
80730W        W23643  12.991  31.595  18.694 -0.0901  0.1082  0.0794
80731W        W23644   4.163  27.258  22.683 -0.1041  0.0570  0.3476
80732W        W23645  21.191  32.186  17.673 -0.1127 -0.0718 -0.0586
80733W        W23646   7.373  23.519  18.700 -0.0412 -0.1634  0.1302
80734W        W23647  13.026  28.144  17.923  0.3775 -0.2494 -0.1036
80735W        W23648  15.185  30.340  20.142  0.0823 -0.0258 -0.0367
80736W        W23649  11.264  21.631  24.793  0.2429  0.0772  0.2366
80737W        W23650  15.243  31.336  23.912 -0.1268  0.1234  0.2282
80738W        W23651  10.791  25.904  21.748 -0.0851  0.2858 -0.0333
80739W        W23652  13.366  26.279  20.715  0.1596  0.0220 -0.2121
80740W        W23653  21.480  29.962  18.518  0.2581  0.2242  0.3522
80741W        W23654  11.648  25.244  18.189 -0.1766 -0.0413 -0.1712
80742W        W23655  26.911   3.057  18.506  0.2073  0.0258 -0.3759
80743W        W23656  24.252  31.234  20.836  0.3299  0.1306 -0.1250
80744W        W23657  15.444  28.325  26.539 -0.0075  0.0205 -0.1933
80745W        W23658  18.577  24.978  22.318 -0.0513  0.0394 -0.1850
80746W        W23659  19.950   0.314  21.567  0.0619  0.2080 -0.0319
80747W        W23660  17.562  28.361  14.535 -0.2195  0.2032 -0.1831
80748W        W23661  10.250   3.562   1.404  0.3285 -0.0738 -0.3410
80749W        W23662  25.244  23.091  12.244 -0.0341 -0.0058 -0.3860
80750W        W23663  17.716  31.886  27.591 -0.0336  0.0563  0.1084
80751W        W23664   9.698  30.620  19.054  0.0690 -0.1042 -0.1224
80752W        W23665   6.820  25.958  21.009 -0.0308 -0.1358  0.1271
80753W        W23666   9.296  20.600  19.596  0.1109  0.2740  0.1808
80754W        W23667  24.279  30.567  16.933  0.1608  0.3047  0.0745
80755W        W23668  18.459   2.753  23.549  0.2753  0.1854 -0.2029
80756W        W23669  19.500  30.171  24.439  0.2538  0.0094 -0.1354
80757W        W23670   1.842  31.822  28.283 -0.1206 -0.1260 -0.3067
80758W        W23671  24.694  25.170  21.686  0.2558  0.0650 -0.1963
80759W        W23672  13.187   1.417   1.554  0.2672  0.1008  0.2694
80760W        W23673  23.382  23.867  24.191  0.0830  0.2981  0.1897
80761W        W23674  15.562  23.680  18.017 -0.0878 -0.1819 -0.0179
80762W        W23675   9.285  24.339  15.454  0.1859 -0.2635  0.2692
80763W        W23676  10.156  20.157  20.625 -0.0963  0.0936 -0.1139
80764W        W23677  15.361   7.009  22.134 -0.1172 -0.0840 -0.2580
80765W        W23678  10.286  34.019  17.491 -0.0173 -0.2154  0.0952
80766W        W23679  22.220   6.571  17.874  0.2590  0.1088 -0.2236
80767W        W23680  21.096  28.847  14.543 -0.1022 -0.0577 -0.1504
80768W        W23681  17.598  33.655  20.596 -0.0354  0.0376  0.0256
80769W        W23682   1.839  19.058  26.860 -0.1227 -0.0227 -0.0589
80770W        W23683  16.909   0.999  26.571  0.1113 -0.1086 -0.0207
80771W        W23684  20.460  33.888  19.252  0.1331  0.3256  0.2054
80772W        W23685  21.465  30.840   1.012 -0.0124 -0.1706  0.1782
80773W        W23686  15.355  22.519  27.344 -0.0506 -0.0199  0.3509
80774W        W23687  21.810  26.467  16.166 -0.2075  0.0789 -0.1093
80775W        W23688   0.069  23.179  23.655 -0.1444  0.1460 -0.1658
80776W        W23689  20.994  18.098  20.647  0.0733 -0.1196 -0.1442
80777W        W23690  12.181   1.361  21.002 -0.2845 -0.4723  0.2627
80778W        W23691  21.072  26.750  18.914  0.0113 -0.0568 -0.1524
80779W        W23692  11.854   2.861  26.376  0.0528 -0.1426  0.0109
80780W        W23693   2.033  28.798  15.844  0.1211 -0.0098 -0.0095
80781W        W23694  19.439  11.138  14.701  0.1998 -0.3340 -0.0895
80782W        W23695  12.841   1.344  21.657  0.1151  0.3054  0.0114
80783W        W23696  15.193  29.801   1.687  0.6013 -0.1721  0.1176
80784W        W23697  15.094  26.991  20.235  0.2175 -0.0184  0.0788
80785W        W23698  26.771   3.235  14.730 -0.0511 -0.1443  0.1748
80786W        W23699  15.507  33.575  19.044  0.0082  0.2300 -0.2958
80787W        W23700   8.404  29.655  19.856 -0.1107  0.1129 -0.0382
80788W        W23701  24.570  26.447  12.775  0.1379  0.0462  0.0872
80789W        W23702  14.581  22.833  16.506 -0.3012 -0.3042  0.2311
80790W        W23703  22.007  24.231  23.994  0.0649  0.0982  0.0671
80791W        W23704  31.392  32.954  20.588 -0.0118 -0.0942  0.0139
80792W        W23705   9.131  30.050  20.483  0.0853  0.1811 -0.1957
80793W        W23706  19.725  15.342  21.442 -0.1343  0.3107 -0.2489
80794W        W23707  16.837  29.625  17.973 -0.2691  0.0970 -0.0539
80795W        W23708  19.939  33.045  21.390 -0.1206 -0.1523 -0.0479
80796W        W23709   7.755  27.784   0.425 -0.3158 -0.2947 -0.3697
80797W        W23710  14.272  33.871  19.327  0.2608 -0.0460  0.1527
80798W        W23711  16.019  33.793  21.371 -0.0736 -0.3976 -0.0843
80799W        W23712  15.354  27.591  18.298 -0.0602 -0.1753 -0.1566
80800W        W23713  17.255  32.499  28.970 -0.1868  0.1011  0.0168
80801W        W23714  18.675  20.471  15.308 -0.0775  0.0122  0.1797
80802W        W23715  22.288  32.778  17.743 -0.2389  0.1778  0.0813
80803W        W23716  12.951  32.430  25.946  0.0627  0.0895 -0.0749
80804W        W23717  21.221   1.807  20.476 -0.3448  0.0840 -0.1828
80805W        W23718  20.782  26.441  18.561 -0.1849 -0.0121  0.2006
80806W        W23719  10.457  21.866  21.843 -0.2748 -0.1868 -0.5043
80807W        W23720  21.911   3.235  18.042 -0.0549 -0.0184 -0.0113
80808W        W23721  19.112  31.977  21.574  0.0121  0.0177  0.2002
80809W        W23722  12.754   2.871  15.973  0.0741  0.0696 -0.0181
80810W        W23723  15.559   4.128  26.207 -0.0188 -0.2341 -0.1653
80811W        W23724  29.330   3.907  17.564 -0.1238  0.0772  0.3000
80812W        W23725  25.190  21.454  27.427 -0.1604  0.2520 -0.1369
80813W        W23726  19.087  26.031  14.266 -0.1039 -0.0003 -0.1435
80814W        W23727  23.316  33.239  22.371  0.1939 -0.0068 -0.1115
80815W        W23728   9.519  29.231  22.466 -0.1662  0.1757 -0.0925
80816W        W23729  28.519  30.160  16.427  0.0865  0.2605  0.0954
80817W        W23730   9.767  29.115  16.471 -0.3708  0.0783 -0.1160
80818W        W23731  26.299  10.980  20.262  0.1571  0.1399  0.1333
80819W        W23732  16.393  30.864  18.715 -0.0209 -0.0486  0.2570
80820W        W23733   7.307  20.906  19.353  0.1830  0.3243 -0.1949
80821W        W23734  18.590   6.307  20.129  0.2830  0.0449 -0.0128
80822W        W23735  28.013  29.528  21.910 -0.0440 -0.1085 -0.1128
80823W        W23736  10.341  20.163   2.657 -0.0424  0.1609 -0.1457
80824W        W23737  17.559  21.857  29.427  0.1233  0.1962 -0.0626
80825W        W23738   7.318  33.398  18.658  0.1737  0.2837 -0.1911
80826W        W23739   6.570  26.031   6.215 -0.2218  0.1573  0.2725
80827W        W23740  16.493  30.371  20.487  0.0631 -0.0570  0.2354
80828W        W23741  21.125  24.223  20.632 -0.1374  0.0457 -0.0447
80829W        W23742  10.666  26.378  27.386  0.2871 -0.0148  0.1474
80830W        W23743  20.731  25.965  23.133  0.1829 -0.0979 -0.2120
80831W        W23744  16.184  24.301   0.456 -0.0783  0.1377 -0.1118
80832W        W23745  28.334  20.438  14.270  0.2006  0.4643 -0.0990
80833W        W23746  12.028  32.221  23.031 -0.1066 -0.1629 -0.2902
80834W        W23747  17.286   2.712  22.203 -0.2520 -0.2821  0.2057
80835W        W23748  18.974  31.683  17.235 -0.2731  0.1163  0.0922
80836W        W23749  10.577   7.258  22.706  0.3126 -0.0658  0.2725
80837W        W23750  12.010   1.793  23.248 -0.3455 -0.0426  0.1626
80838W        W23751  15.926  28.204  20.235  0.0768  0.3116  0.1795
80839W        W23752   8.118  29.157  17.272  0.0951 -0.1038  0.0025
80840W        W23753  23.922  22.035  21.638  0.0853 -0.1293 -0.0158
80841W        W23754   6.532   1.766  22.541  0.2455 -0.0413  0.3444
80842W        W23755  14.000  33.757  24.801 -0.1988 -0.2198  0.0134
80843W        W23756  20.940  29.815  20.776 -0.3179  0.0134 -0.0426
80844W        W23757  28.626  21.659  23.975  0.0716 -0.2334 -0.0445
80845W        W23758   9.580  32.661  23.335 -0.2203 -0.4260 -0.2593
80846W        W23759  21.151  20.344  26.457  0.0798  0.0224 -0.0967
80847W        W23760  24.580  31.547  18.952  0.3162 -0.0211 -0.1083
80848W        W23761  27.232  25.659  17.180 -0.1752 -0.0010 -0.0107
80849W        W23762  10.028  26.141  20.193  0.4056 -0.1588 -0.2531
80850W        W23763  26.611  22.113  22.118 -0.2895  0.0810  0.3482
80851W        W23764  23.902  16.293  18.493 -0.1846  0.3084  0.0994
80852W        W23765  22.914   1.761  15.419  0.0377  0.0796  0.0142
80853W        W23766   8.844  23.309  18.431 -0.1707  0.1982 -0.1405
80854W        W23767  23.478  31.869  20.316  0.2069  0.1397  0.0088
80855W        W23768   7.906  17.183  20.467  0.0043  0.3343  0.2851
80856W        W23769  19.929  30.812  15.250  0.2218 -0.1295  0.0113
80857W        W23770  24.805   2.702   2.937  0.0889  0.1159 -0.1589
80858W        W23771  17.981  28.350  18.178  0.1934  0.1622  0.2169
80859W        W23772  19.300   7.656   2.507 -0.1306 -0.0573  0.1374
80860W        W23773  21.534  24.246  27.663 -0.1968  0.0640 -0.0707
80861W        W23774  31.641  31.711  17.457 -0.1325 -0.3288  0.0035
80862W        W23775  15.952  32.845  17.309 -0.1435 -0.0622  0.1430
80863W        W23776  22.144  18.684  21.422 -0.0652  0.1037  0.1060
80864W        W23777  15.628   2.922  19.846 -0.0706  0.1988  0.0818
80865W        W23778  25.246  32.844  20.064 -0.1196  0.4039  0.5931
80866W        W23779  12.455  26.794  25.608  0.0457 -0.1460  0.2396
80867W        W23780  13.043  25.992  16.843  0.0304  0.2741  0.1191
80868W        W23781   9.646  32.845  22.409 -0.1164  0.0956 -0.4171
80869W        W23782  13.122  29.913  21.108 -0.1375  0.0756  0.0097
80870W        W23783  23.455   5.370  18.094  0.3257  0.0491  0.2142
80871W        W23784  27.172  23.298  14.211  0.3401  0.0555  0.2661
80872W        W23785  27.549  24.306  18.373 -0.0139 -0.1371  0.1367
80873W        W23786  26.077  26.828  17.936  0.0002 -0.5026 -0.1889
80874W        W23787  22.873  29.989  21.881  0.1076 -0.1053 -0.0214
80875W        W23788   6.971  33.461  27.517  0.0232  0.3028 -0.1038
80876W        W23789  17.041  26.865  17.554 -0.2297 -0.0857 -0.2722
80877W        W23790  13.265   9.086  15.991 -0.4094 -0.1297 -0.1371
80878W        W23791  22.394  26.720  27.641  0.5679  0.2171 -0.2476
80879W        W23792  21.454  20.996  21.405 -0.4893 -0.0620 -0.1982
80880W        W23793  23.268  19.672  21.111 -0.1201 -0.1014 -0.5295
80881W        W23794  23.725  18.170  19.946  0.2836 -0.0640  0.1299
80882W        W23795  17.595  26.563  18.917  0.0477 -0.3736  0.0384
80883W        W23796  19.007  34.042  21.778 -0.1940 -0.2762 -0.3032
80884W        W23797  17.611  23.760  29.291  0.4264  0.0619  0.1764
80885W        W23798  25.126  33.771  18.608  0.3364  0.1859 -0.0088
80886W        W23799  10.124  27.842  18.138  0.2842 -0.0749  0.0818
80887W        W23800   9.297  22.399  20.969 -0.0599  0.0614 -0.3489
80888W        W23801   5.820  29.297  19.305  0.0303 -0.1193  0.0462
80889W        W23802   9.441  27.229  16.181  0.2393  0.3615 -0.2657
80890W        W23803  12.779  27.256  21.710  0.3362 -0.2220  0.0083
80891W        W23804  31.626  27.619  27.607 -0.0787 -0.0393 -0.0533
80892W        W23805  20.138  26.299  24.855 -0.0783 -0.0913 -0.0013
80893W        W23806  26.035  25.212  14.371 -0.0794 -0.2778  0.1344
80894W        W23807  29.637  27.816  29.297  0.2288 -0.0453 -0.2272
80895W        W23808  12.202   3.027   7.396 -0.0744 -0.1503  0.0729
80896W        W23809   8.834  25.632  18.549 -0.0499 -0.0380  0.0411
80897W        W23810  23.341  31.289  23.752 -0.0778  0.3243  0.4977
80898W        W23811  10.860  34.230  22.052  0.1205 -0.0039 -0.3000
80899W        W23812  11.629  27.789  16.816  0.1547  0.2048  0.0802
80900W        W23813  25.835  33.479  21.770  0.0632  0.0838  0.1487
80901W        W23814  10.656  31.064  17.365  0.1556  0.0192  0.2756
80902W        W23815   7.461  29.577  19.608 -0.2383 -0.0080 -0.3502
80903W        W23816  26.914   3.865  22.446  0.1144 -0.3968 -0.1968
80904W        W23817  12.206  30.431  23.205 -0.1431  0.2140  0.0110
80905W        W23818  17.152   2.476  18.114  0.0514  0.1319  0.0790
80906W        W23819  26.120  27.623   1.126 -0.0795 -0.0981 -0.0574
80907W        W23820  23.712  30.810  23.608  0.3540  0.2751 -0.2514
80908W        W23821  30.751   0.080  21.700 -0.1035 -0.0511  0.3835
80909W        W23822  24.464  34.047  21.502  0.2280 -0.1690 -0.4029
80910W        W23823  25.280  18.977  18.684 -0.0367  0.2598 -0.0966
80911W        W23824  15.415   1.776  18.804 -0.1318  0.3390  0.2270
80912W        W23825  30.103  27.037  19.411 -0.0650  0.0033 -0.0561
80913W        W23826  12.694  31.593  20.304  0.2400 -0.2852  0.1025
80914W        W23827  13.635  27.104  27.691 -0.1880 -0.0039 -0.0657
80915W        W23828  10.409  27.756  29.503  0.1198  0.6691  0.1515
80916W        W23829  11.527  29.060  22.893 -0.0902 -0.0370 -0.0147
80917W        W23830   4.609  21.798  18.002  0.0224 -0.1824 -0.0300
80918W        W23831  24.783  32.286  16.663 -0.1460 -0.1739  0.1815
80919W        W23832  14.738  31.798  17.093 -0.1730  0.1769 -0.0276
80920W        W23833  16.885  31.473  19.428  0.4094 -0.0756 -0.0380
80921W        W23834  12.905  27.026  22.668  0.0257 -0.2264  0.2412
80922W        W23835   4.097  33.079  20.196  0.0110 -0.0614  0.0763
80923W        W23836  14.267  33.169  22.048 -0.0229 -0.2607 -0.2366
80924W        W23837  26.070  31.608  17.421 -0.1057 -0.1371 -0.0929
80925W        W23838  21.199  32.578  16.922 -0.1769 -0.1432  0.0964
80926W        W23839  17.235   4.683   2.375 -0.0324  0.2073  0.2736
80927W        W23840  22.554  29.670  26.434 -0.3582 -0.1928  0.1329
80928W        W23841  31.885  30.176   0.808  0.2607 -0.2146  0.2587
80929W        W23842  25.348  24.607  21.047 -0.1339  0.1096  0.0064
80930W        W23843  25.481  16.816  19.704  0.1101 -0.3596  0.2582
80931W        W23844  19.845  33.498  20.098 -0.1621  0.0218  0.0400
80932W        W23845  17.037  33.218  25.432 -0.1487 -0.1441  0.1510
80933W        W23846   2.468  28.755  23.570  0.3650  0.1228 -0.2385
80934W        W23847  19.271   4.849  25.620  0.1568 -0.1934 -0.1718
80935W        W23848  14.109  19.405  14.396  0.0592  0.0403 -0.1806
80936W        W23849  18.114   1.010  16.604  0.0547  0.2320  0.0578
80937W        W23850  11.188  24.583  15.215  0.0196 -0.3616  0.0715
80938W        W23851  32.043  30.873  15.552 -0.2335 -0.3529 -0.2126
80939W        W23852  23.739  25.676  19.566  0.1644  0.0143 -0.0361
80940W        W23853  11.716  21.413  18.821  0.0896  0.0319  0.2180
80941W        W23854  18.403  32.294  27.925 -0.1461  0.0446  0.0430
80942W        W23855  27.578  33.788  16.188 -0.2308  0.0073 -0.0540
80943W        W23856  20.890  26.035  16.338 -0.0373 -0.0819  0.3404
80944W        W23857  19.139  29.199  17.448 -0.0909  0.1398  0.2035
80945W        W23858  16.488  33.163  17.442 -0.0733  0.0834  0.0292
80946W        W23859  13.256  31.759  15.965 -0.1677 -0.1455 -0.0440
80947W        W23860  21.362  32.604  27.034 -0.0568 -0.2311  0.2586
80948W        W23861   4.295  19.683  13.943  0.0274  0.1200 -0.0507
80949W        W23862   4.216  29.845  26.279 -0.0147  0.0612  0.2006
80950W        W23863  20.077   1.461  24.651 -0.0759  0.3562  0.0239
80951W        W23864  22.675  16.713  16.932  0.2766 -0.0243  0.1610
80952W        W23865  18.742   0.914   0.419  0.1153  0.0898  0.0498
80953W        W23866  13.163  28.710  17.609 -0.1980 -0.1095  0.0135
80954W        W23867  17.551   0.154  18.578 -0.1770 -0.0531 -0.0210
80955W        W23868   7.136  14.196  17.889  0.1323 -0.2821 -0.0407
80956W        W23869  16.266  20.116  13.507  0.2179  0.0722 -0.2459
80957W        W23870  13.046   1.788  18.601  0.0663 -0.0802  0.0396
80958W        W23871  10.813  17.259  14.524 -0.2508 -0.0519 -0.0791
80959W        W23872  24.972  26.859  25.911 -0.1040  0.3247  0.1379
80960W        W23873   7.887  23.537  25.105  0.0320 -0.0090 -0.0532
80961W        W23874  28.431  29.444  23.016  0.0180 -0.0203  0.4348
80962W        W23875  18.775  31.325  22.860  0.0866 -0.2590 -0.1128
80963W        W23876  20.865  31.827  28.680  0.3687 -0.1272  0.0903
80964W        W23877  32.758  20.943  14.706 -0.0537 -0.0587 -0.0950
80965W        W23878  13.204  24.199  14.233  0.0332 -0.0399 -0.1949
80966W        W23879  17.893  29.985  24.493  0.0892 -0.1024  0.0281
80967W        W23880  33.948  29.493  13.635 -0.0460  0.0612 -0.1078
80968W        W23881  24.814  29.106  13.689  0.1850 -0.1672 -0.1599
80969W        W23882   7.379  24.055  27.930 -0.0056 -0.0227 -0.0407
80970W        W23883   3.015  21.539  14.992 -0.2570  0.3236  0.2031
80971W        W23884   8.114  23.708  19.354  0.2868  0.2288 -0.0340
80972W        W23885  19.063   2.328  19.566  0.0912 -0.0131  0.0610
80973W        W23886  12.528  18.986  27.130 -0.1577 -0.1711  0.0446
80974W        W23887  23.488  27.903  21.588 -0.0752  0.0096  0.1131
80975W        W23888  11.890   0.711  22.170 -0.0245 -0.1052  0.0423
80976W        W23889  21.467   0.152  27.571  0.3203  0.0707 -0.2374
80977W        W23890  11.586   0.572  28.365 -0.2859  0.0415 -0.0856
80978W        W23891  23.987  10.839  18.925 -0.0541 -0.1497 -0.5563
80979W        W23892  21.681  24.992  25.372  0.0116 -0.1881 -0.1908
80980W        W23893  30.496  23.546  13.920 -0.2068 -0.3586  0.4485
80981W        W23894  21.516  20.258  14.856 -0.2212  0.2535  0.1569
80982W        W23895  27.309  22.281  19.495  0.0733  0.1458 -0.1869
80983W        W23896  23.930  25.111  16.748 -0.0725  0.0476 -0.2127
80984W        W23897  28.896  17.972  15.011  0.1780  0.2062 -0.0489
80985W        W23898  13.182   2.063  22.743 -0.0022 -0.0621  0.3568
80986W        W23899  16.968  16.647  12.882 -0.0762 -0.1430 -0.1661
80987W        W23900  22.674  22.349  18.476 -0.0894 -0.0458 -0.1836
80988W        W23901  27.639  27.148  20.071  0.0490  0.1022  0.0751
80989W        W23902  12.241  31.714  16.898  0.0294 -0.0278 -0.0344
80990W        W23903  18.895   1.510  18.321 -0.0472  0.0904  0.2859
80991W        W23904  20.882   3.868  19.852 -0.0755 -0.2232 -0.0743
80992W        W23905  24.908  24.152  22.237  0.0417  0.0784 -0.2652
80993W        W23906  23.323  34.108  15.214  0.0863 -0.2272  0.2848
80994W        W23907  18.670  31.349  23.738  0.3761  0.1273 -0.3351
80995W        W23908  12.496  34.098  18.741 -0.1233  0.1570  0.0471
80996W        W23909   6.647  34.459  23.971  0.0678  0.3729  0.1650
80997W        W23910  23.363  27.953  18.781  0.4256  0.2391 -0.1515
80998W        W23911  12.045  18.636  24.038  0.1079 -0.0071  0.1280
80999W        W23912  13.445  30.368  24.051  0.0653  0.1877 -0.0366
81000W        W23913  18.732  31.743  19.290  0.3910  0.1667  0.1039
81001W        W23914  19.164  20.020  13.748 -0.0377 -0.1556 -0.1243
81002W        W23915   8.118  28.714  16.997  0.4270  0.1284 -0.0792
81003W        W23916   7.889   5.450  22.951  0.1289 -0.0258  0.0557
81004W        W23917   7.342  24.600  15.157 -0.0750 -0.1111  0.0522
81005W        W23918  21.611  29.309  16.750 -0.0255 -0.0578  0.0606
81006W        W23919   1.138  18.714  15.812 -0.2760 -0.3241 -0.0708
81007W        W23920  13.587  31.114  18.547  0.1070  0.2725  0.0069
81008W        W23921  30.375  17.674  23.426  0.0493  0.0821 -0.0750
81009W        W23922  25.679   2.874  18.373  0.1009  0.2127 -0.1346
81010W        W23923  10.024   2.558  19.526  0.2000  0.1371  0.2274
81011W        W23924  22.244  26.693  24.658  0.2303  0.1489 -0.0166
81012W        W23925  10.972   3.540   4.436 -0.2828  0.0703 -0.0991
81013W        W23926   6.857  30.677  17.553  0.3397  0.2511 -0.0013
81014W        W23927   7.400   5.053  21.844  0.0663  0.0688  0.0394
81015W        W23928  12.059  31.915  16.045 -0.2069  0.1416 -0.3014
81016W        W23929   4.653  23.230  22.506 -0.2024 -0.1379  0.2495
81017W        W23930  19.604  31.691  18.844 -0.3331 -0.0099 -0.0676
81018W        W23931  30.115  26.382  14.363  0.1221  0.1567 -0.0217
81019W        W23932  25.060  21.466  23.040  0.0189  0.0020  0.1818
81020W        W23933  16.522  32.937  20.111 -0.2513  0.1584  0.0080
81021W        W23934  10.732   7.112  27.615 -0.2511 -0.2137  0.0304
81022W        W23935  14.390  25.143  16.880 -0.0361 -0.0609  0.2551
81023W        W23936  14.950   0.366  16.515 -0.1616  0.1857 -0.0942
81024W        W23937  30.322  25.446  26.275  0.2751 -0.2371 -0.0388
81025W        W23938   7.832   3.366  27.926 -0.0868 -0.0313  0.2773
81026W        W23939  22.109  32.456  14.989  0.0706  0.1739 -0.0429
81027W        W23940  15.677  31.099  22.462 -0.3109  0.1210  0.0871
81028W        W23941  18.557   4.751   2.753 -0.1677 -0.3081 -0.0863
81029W        W23942  16.527  17.447  15.236  0.3586  0.0136  0.1829
81030W        W23943  18.162  30.449  16.791 -0.3589  0.4209 -0.1786
81031W        W23944   3.542  33.764  23.830 -0.1904  0.1062  0.3830
81032W        W23945  17.788  27.756  21.357 -0.2006  0.1549 -0.0161
81033W        W23946  17.762  28.077  20.921  0.3308  0.0545  0.1557
81034W        W23947  14.884  23.578  26.052  0.0158 -0.0500  0.1290
81035W        W23948   5.911  30.997  25.850 -0.1505 -0.0343 -0.2037
81036W        W23949  18.944  16.605  12.614  0.1324 -0.1651  0.2379
81037W        W23950  12.196  28.938  21.038 -0.1958  0.1496 -0.1310
81038W        W23951  17.892  15.922  12.256 -0.0418  0.1203 -0.1693
81039W        W23952  18.400  22.504  16.113 -0.0425  0.1406 -0.0702
81040W        W23953  23.269   3.062  19.800 -0.0696  0.1464  0.1750
81041W        W23954  20.923   5.279  19.825  0.0987  0.0835  0.1691
81042W        W23955  20.129   6.596  24.367  0.0898 -0.0628 -0.0426
81043W        W23956  17.186  33.625  25.115  0.1309 -0.1403 -0.1640
81044W        W23957  16.412   6.898  21.269 -0.1897 -0.3179  0.1620
81045W        W23958  22.688  27.978  17.712 -0.0344  0.1280  0.0905
81046W        W23959  20.447  33.508   3.965  0.0662  0.0404 -0.2846
81047W        W23960  23.269   7.842  14.556  0.0495  0.0422 -0.1387
81048W        W23961  16.711  30.679  26.114  0.0785 -0.2386  0.0951
81049W        W23962  20.342  29.708  15.322  0.0884 -0.0600 -0.2756
81050W        W23963   2.359  33.305  19.680 -0.2198 -0.2211  0.2083
81051W        W23964   9.457   5.115  17.621  0.0571 -0.0978 -0.2862
81052W        W23965  14.774  28.385  22.613 -0.0033 -0.2499 -0.2323
81053W        W23966  18.504  30.871  20.019 -0.3020  0.3091 -0.0410
81054W        W23967  18.330  33.708  29.484  0.2588  0.0531  0.3223
81055W        W23968  12.403  20.891  18.644 -0.0872 -0.3954 -0.1697
81056W        W23969  24.844  30.332  13.751 -0.4865  0.2296 -0.7846
81057W        W23970  19.410  28.714  17.379  0.0589 -0.1707 -0.0722
81058W        W23971  14.723  23.432  21.596  0.0753  0.1033  0.0967
81059W        W23972  21.582  25.374  20.655  0.3933 -0.0556  0.0761
81060W        W23973  34.340  24.237  17.296  0.4536 -0.2225  0.1113
81061W        W23974  12.870  27.019  16.003  0.2547  0.1844 -0.1425
81062W        W23975   3.852  22.954  18.665  0.0454  0.2429  0.0213
81063W        W23976  11.667   2.111  20.643  0.2057 -0.0164 -0.0255
81064W        W23977  31.116  29.951  21.653 -0.1051  0.1382 -0.0573
81065W        W23978  21.239   2.256   8.501 -0.0634  0.3023 -0.1034
81066W        W23979  18.182  21.449  21.748  0.1164 -0.0790  0.0816
81067W        W23980   0.451  19.301  20.330  0.1168  0.1641 -0.1788
81068W        W23981  16.156  30.491  21.952 -0.0962  0.2136  0.1342
81069W        W23982  10.388  21.829  19.538  0.1425  0.0865 -0.1661
81070W        W23983  12.854   8.593  19.275  0.1226 -0.0755  0.1347
81071W        W23984   0.377  30.535  24.119 -0.2453  0.0168 -0.2161
81072W        W23985  18.146  25.980  15.453  0.1448  0.1747 -0.2270
81073W        W23986  22.188   2.254  20.360  0.4563  0.2492 -0.0619
81074W        W23987  27.418   2.164  25.691 -0.0244 -0.1208  0.1028
81075W        W23988  23.151  27.608  14.061  0.2807  0.1961 -0.2749
81076W        W23989  26.643  26.871  18.825 -0.1558  0.2168  0.0847
81077W        W23990   8.579  26.223  24.801  0.1042  0.0300 -0.1608
81078W        W23991  14.473   2.389  19.986 -0.1176  0.1464  0.0188
81079W        W23992  20.436  24.182  21.754 -0.0915  0.1970  0.0511
81080W        W23993  15.669  29.478  28.468  0.2569  0.1898  0.1097
81081W        W23994  25.633  28.384  28.121  0.1446  0.2713 -0.0370
81082W        W23995  13.599  27.592   3.939  0.0641  0.3955 -0.0520
81083W        W23996  21.551  22.080  24.587 -0.1026  0.3186 -0.1696
81084W        W23997  23.069   1.451  19.817 -0.2958  0.1104 -0.3611
81085W        W23998  16.881  23.981  18.650 -0.3661 -0.0704 -0.0695
81086W        W23999  22.021   1.519   2.273 -0.0393  0.1025  0.0439
81087W        W24000  23.556  26.067  24.311 -0.0094 -0.3429 -0.3811
81088W        W24001  18.088  25.734  18.747  0.1088 -0.0327 -0.2241
81089W        W24002   1.655  29.064  24.781  0.0016 -0.0350 -0.6160
81090W        W24003   2.662  27.652  23.019  0.1325  0.0998  0.0736
81091W        W24004   5.235  23.455  28.891  0.0380  0.2934  0.1641
81092W        W24005  25.608  28.647  18.971  0.1817  0.3124 -0.2112
81093W        W24006  20.194  29.595  29.589  0.0340 -0.0861  0.0697
81094W        W24007  19.846  23.278   5.304 -0.0019  0.0693  0.1213
81095W        W24008  15.340  22.444  29.066  0.0290 -0.0077  0.0659
81096W        W24009   9.464  24.828  19.186  0.1512  0.3345 -0.0108
81097W        W24010  16.747  26.196  23.315 -0.0626 -0.4717  0.1390
81098W        W24011   9.305   4.965   5.979  0.2313  0.1967  0.2091
81099W        W24012  13.235   0.312  22.672 -0.0960 -0.0935 -0.0806
81100W        W24013  10.689   4.953  20.295 -0.1004 -0.2814 -0.1731
81101W        W24014  19.128   6.745  22.785 -0.2641 -0.1605 -0.0879
81102W        W24015  14.880   1.575  24.845 -0.0264 -0.3471 -0.0258
81103W        W24016  21.574  28.104  19.609  0.1089 -0.1063  0.0755
81104W        W24017  14.616  30.987  26.425  0.1232 -0.1298 -0.2134
81105W        W24018  14.850   2.750   0.067 -0.0623  0.1263 -0.2880
81106W        W24019  18.497  26.423  23.673  0.0881  0.0870 -0.0611
81107W        W24020  28.544  32.593  22.497 -0.2282  0.5583  0.4491
81108W        W24021  26.919  34.027  17.143 -0.1635 -0.2069 -0.0267
81109W        W24022   1.033  33.886  18.825  0.2426 -0.5214  0.1864
81110W        W24023  17.126  29.574  24.946  0.1536  0.2781  0.0879
81111W        W24024  18.189  34.218  17.595  0.0398  0.1610 -0.2883
81112W        W24025  26.750  31.978  24.434  0.0336 -0.3172 -0.1705
81113W        W24026  11.615  31.833  16.318  0.0716 -0.0855 -0.0870
81114W        W24027   7.410  23.537  24.748 -0.0334  0.0338 -0.2213
81115W        W24028  28.710  27.919  17.815  0.1382  0.2886 -0.0459
81116W        W24029  14.174   0.228  21.446 -0.0987 -0.0311  0.2936
81117W        W24030  24.002   3.668  17.259 -0.1856 -0.1915 -0.0525
81118W        W24031  12.497  32.011  29.149  0.1753 -0.2995  0.0535
81119W        W24032  17.011   0.676  20.661  0.2494  0.2767 -0.0610
81120W        W24033  30.142  29.802  26.061  0.1027 -0.1501  0.0965
81121W        W24034  13.445   1.138   0.635  0.0739  0.2185  0.0439
81122W        W24035  22.050   0.462  14.151 -0.0045  0.1288 -0.0704
81123W        W24036  21.021  30.280  20.490  0.0862 -0.0229 -0.3788
81124W        W24037  23.415  33.312  15.723  0.1254 -0.2477  0.1025
81125W        W24038  21.729  32.395  14.051  0.0935 -0.0041 -0.2668
81126W        W24039  21.260  27.785  28.184  0.0186 -0.1023  0.2534
81127W        W24040  15.339  31.717  20.738 -0.0497 -0.0416 -0.0700
81128W        W24041   9.877   6.863   8.903  0.2553  0.1946 -0.3600
81129W        W24042  22.046  22.235  26.824 -0.1525 -0.0335 -0.1678
81130W        W24043  17.731  22.483  22.670 -0.3244  0.1303  0.2533
81131W        W24044  14.462   2.228  22.117  0.1861  0.2173 -0.2609
81132W        W24045  14.300  24.703  29.495  0.0933  0.1696  0.4019
81133W        W24046  19.207  30.677  22.303 -0.0244 -0.2430  0.1309
81134W        W24047  12.056  32.142  20.118 -0.1375  0.2368  0.2142
81135W        W24048  11.160  20.204  26.785 -0.0893 -0.0252  0.0105
81136W        W24049  12.427  26.330  27.904 -0.0763  0.2878  0.0577
81137W        W24050   8.866  26.176  20.779 -0.0618  0.3008 -0.1167
81138W        W24051  11.171   2.262  27.024 -0.0552 -0.2240  0.4172
81139W        W24052  19.843  26.475  21.200 -0.0081  0.1536  0.1135
81140W        W24053   8.269  25.437  21.509  0.2280 -0.1274  0.0993
81141W        W24054   8.688  19.824  14.368  0.0358 -0.0784  0.0789
81142W        W24055  17.976  30.225  26.116  0.0568  0.1972 -0.0309
81143W        W24056  16.452  23.414  25.770  0.4218  0.2122  0.3677
81144W        W24057  28.717  34.222  23.995  0.0694 -0.0489  0.2880
81145W        W24058   5.836  22.743  23.933 -0.0073 -0.0441 -0.2781
81146W        W24059  20.508   3.477  16.735  0.0436 -0.4976  0.2696
81147W        W24060  20.814  31.857  26.900  0.2103 -0.0799  0.2661
81148W        W24061   8.774   2.133   5.815 -0.0208 -0.1348 -0.0082
81149W        W24062  19.340  28.672  24.297 -0.0541  0.0216 -0.3457
81150W        W24063   5.855   5.187  17.825 -0.3452 -0.4366 -0.3453
81151W        W24064  10.713  29.100  21.445 -0.2356  0.0433  0.2959
81152W        W24065  16.870  32.591  24.163 -0.3181 -0.1584  0.0389
81153W        W24066  14.181  30.858  10.828  0.1866 -0.1844  0.1611
81154W        W24067   5.604   2.770  19.730  0.1292  0.2638  0.1938
81155W        W24068  14.173  33.946  21.538  0.2727 -0.1527 -0.3127
81156W        W24069  15.725  25.643   2.088  0.0501 -0.4198  0.2841
81157W        W24070   9.336  33.984  20.822  0.1056  0.0719  0.2596
81158W        W24071   8.904  34.181  26.076 -0.0235 -0.3578  0.1207
81159W        W24072  14.335  24.568  25.379 -0.0158  0.0172 -0.3210
81160W        W24073   9.049  33.097  22.248  0.0726  0.0910 -0.1655
81161W        W24074  21.097  27.017  22.068 -0.0493 -0.0859 -0.0873
81162W        W24075  17.587  28.270  21.334  0.0561  0.2249 -0.0659
81163W        W24076  17.567  28.650  18.486 -0.1214 -0.0884  0.1982
81164W        W24077  23.402   0.565  16.742  0.0623 -0.1387 -0.1268
81165W        W24078  20.395  25.321  18.908  0.5223 -0.1095  0.3125
81166W        W24079  31.491  34.114  19.377  0.0618  0.0114 -0.0357
81167W        W24080  14.369   2.249  17.153  0.2454 -0.1453 -0.2976
81168W        W24081  21.833  32.504  17.152  0.1452  0.1244 -0.1733
81169W        W24082  22.258  20.428  19.570 -0.1519 -0.0708 -0.1875
81170W        W24083  15.606  30.818   6.455 -0.1333 -0.3914  0.1669
81171W        W24084  17.643  33.323  22.670  0.4144 -0.1310 -0.2176
81172W        W24085  16.478  29.966  23.494  0.3438  0.0837 -0.0030
81173W        W24086  19.194   3.113   0.048 -0.1209 -0.1473 -0.1327
81174W        W24087  13.702   4.150  20.608  0.1750  0.1132  0.1193
81175W        W24088  17.555  34.124  26.824  0.1210 -0.0186 -0.0378
81176W        W24089  24.639  20.770  28.434 -0.0105 -0.2210  0.0505
81177W        W24090  14.518  20.981  16.259  0.1911  0.1157 -0.2943
81178W        W24091  16.289  30.932  27.419  0.0837 -0.1566  0.1984
81179W        W24092  24.079  32.466  21.244  0.2115 -0.2299 -0.1400
81180W        W24093  13.733  25.552   5.054  0.1296 -0.0872 -0.1125
81181W        W24094  21.778  33.964  21.277  0.2340 -0.0511 -0.0542
81182W        W24095   7.855   0.837  19.550  0.2753  0.1185 -0.0321
81183W        W24096  25.382  29.374  19.870 -0.2544  0.3807 -0.2498
81184W        W24097  22.251   6.985  19.029 -0.0890 -0.1523  0.0434
81185W        W24098  27.295  30.262  27.169 -0.1091  0.3079  0.0869
81186W        W24099  17.393  17.762  23.513  0.1953  0.3456 -0.2599
81187W        W24100   7.244   3.372  19.350  0.2429 -0.0146 -0.0354
81188W        W24101  17.959   0.462  21.727 -0.2863 -0.0382  0.0249
81189W        W24102  23.731   0.777   2.372 -0.3397 -0.4144 -0.2842
81190W        W24103  22.484  20.053  20.420  0.2803 -0.0405  0.1312
81191W        W24104  23.387  20.699  27.754  0.1160  0.2786  0.2910
81192W        W24105  15.433  28.516  18.470  0.3099  0.1665  0.1568
81193W        W24106   6.442  23.686   5.589 -0.1003  0.0612  0.1005
81194W        W24107   7.587  26.846  17.573  0.1414  0.0940  0.2526
81195W        W24108  28.996  29.159  20.167  0.3709  0.0362 -0.0689
81196W        W24109  28.811  27.341  24.613  0.0548  0.1277 -0.1198
81197W        W24110  13.842   1.939   0.069  0.1064 -0.0312  0.0997
81198W        W24111  14.598  33.276  26.510 -0.0225 -0.1310  0.0384
81199W        W24112  20.074  27.618  19.934  0.2969 -0.1548 -0.0083
81200W        W24113  17.009  27.992   3.397 -0.0856 -0.2440 -0.3411
81201W        W24114   9.553  25.703  22.793  0.0298  0.0899  0.1639
81202W        W24115  17.409  27.023  16.078  0.1442  0.1800 -0.1312
81203W        W24116  24.414   1.318   6.540  0.0859 -0.0010 -0.2011
81204W        W24117  16.625   1.671  22.027  0.0314  0.0730 -0.1362
81205W        W24118   2.051  24.521  26.528 -0.0921 -0.0598 -0.1525
81206W        W24119  25.502  20.849  27.906  0.0386  0.0589  0.1225
81207W        W24120   5.390  28.175  23.643  0.1678 -0.0294  0.0278
81208W        W24121   4.815  20.463  16.172 -0.3015  0.1298  0.0633
81209W        W24122  14.678   8.660  23.317 -0.1169  0.1335  0.0895
81210W        W24123  20.531  20.391   2.507 -0.1483  0.1921  0.0083
81211W        W24124  12.460  28.170  17.102 -0.0965  0.2115  0.0213
81212W        W24125   5.192  27.595  27.597 -0.0834  0.3078  0.0325
81213W        W24126  20.086  29.495  25.637  0.2892 -0.0669  0.2799
81214W        W24127  19.548  31.766  17.910  0.4275 -0.1696  0.0219
81215W        W24128  15.897  30.328  24.618 -0.2733 -0.2343 -0.0629
81216W        W24129  22.748  21.981  20.784 -0.2315 -0.1355  0.1018
81217W        W24130  16.276  23.879  28.800  0.1406 -0.1430  0.0224
81218W        W24131  12.770  31.986   3.460 -0.3395  0.1290  0.0198
81219W        W24132  24.576  24.206  24.986 -0.2516 -0.1196  0.4561
81220W        W24133  14.632  28.699  17.825  0.1128 -0.1210  0.0479
81221W        W24134  16.232  19.440  28.993 -0.5501 -0.3113 -0.0849
81222W        W24135  17.485  31.637  29.509 -0.2483  0.3382  0.0605
81223W        W24136  15.415  25.148  22.545 -0.1045  0.0479  0.0746
81224W        W24137  13.377  30.744  25.068 -0.2000 -0.3755  0.1260
81225W        W24138   6.704  19.432  28.416 -0.1159 -0.1990 -0.1211
81226W        W24139  21.779  28.757   0.769 -0.2532  0.0440 -0.1423
81227W        W24140  20.612  30.843  23.965  0.1820  0.1051 -0.1663
81228W        W24141   5.777   2.419  25.749 -0.2194  0.1989  0.4104
81229W        W24142  19.595   2.547   1.257 -0.0761 -0.3797  0.0198
81230W        W24143  21.085  30.857  25.311 -0.2193  0.2141 -0.1385
81231W        W24144  15.907  11.608  19.312  0.0330 -0.0295 -0.2305
81232W        W24145  18.570  32.675   0.584 -0.0521  0.0637 -0.0028
81233W        W24146  12.638   2.487  24.564 -0.1750  0.0097  0.0298
81234W        W24147  12.689   1.937  18.252  0.0813 -0.2119  0.1108
81235W        W24148   8.475  26.844  26.740 -0.1512 -0.0257  0.0324
81236W        W24149   5.384   3.095  29.523 -0.3624  0.0322  0.1689
81237W        W24150   8.288  30.728  23.686  0.1356  0.1550  0.2326
81238W        W24151  22.385   8.600   2.429 -0.0946  0.1433 -0.2415
81239W        W24152  16.891  32.077  24.819  0.0100 -0.1133 -0.2380
81240W        W24153  27.135  29.653  27.040  0.3390  0.0908  0.1628
81241W        W24154  20.274   4.204  27.904 -0.1007  0.3878 -0.0904
81242W        W24155  18.335  23.675  18.579  0.0706  0.4538 -0.3745
81243W        W24156  10.122  24.005   1.545 -0.0686 -0.2378 -0.1142
81244W        W24157  10.615  30.270  19.357 -0.3356  0.0651 -0.4591
81245W        W24158  15.935  25.479  18.710 -0.2033 -0.0985  0.1014
81246W        W24159  14.697  33.865  16.803 -0.0711 -0.0366  0.1732
81247W        W24160  23.923  28.675   3.343 -0.0769 -0.1463 -0.1328
81248W        W24161  10.909  27.708   9.518 -0.1644 -0.0983 -0.3426
81249W        W24162  19.076  34.274  20.276 -0.0097  0.0613  0.0904
81250W        W24163  18.833  29.829  14.140 -0.1093  0.2024 -0.3961
81251W        W24164  19.512  21.679  15.752  0.0133 -0.1178 -0.0354
81252W        W24165  18.385  21.894  22.707 -0.1227 -0.4185  0.1652
81253W        W24166   9.108  15.728  26.316  0.4105 -0.1735 -0.1354
81254W        W24167  21.201  29.760  20.394 -0.0734 -0.2749 -0.0370
81255W        W24168  18.783  19.267   1.633 -0.1555 -0.1797  0.0070
81256W        W24169  16.700   2.894  17.563 -0.1920  0.0541  0.2131
81257W        W24170  20.562  33.199  24.267  0.3310 -0.1163 -0.0018
81258W        W24171  16.328  22.692  19.413 -0.0343 -0.1251  0.0647
81259W        W24172  10.115  28.218  19.069  0.0086 -0.2362  0.2061
81260W        W24173  22.959  27.483   1.090 -0.3346 -0.4103 -0.0755
81261W        W24174  16.340  26.605  23.367  0.1542 -0.0837  0.1491
81262W        W24175  23.357  28.388  27.282 -0.0172  0.1196 -0.2615
81263W        W24176  13.240   3.200  22.696  0.2991 -0.1153 -0.0419
81264W        W24177  19.425  33.829  17.732  0.2708  0.0520  0.0554
81265W        W24178  16.263  24.882  20.216 -0.1598 -0.4349  0.0390
81266W        W24179  15.075  28.863  27.751  0.0843  0.1596 -0.0531
81267W        W24180  20.676  29.384  14.832  0.0818 -0.3370 -0.1473
81268W        W24181  26.014   2.924  27.486 -0.2912 -0.1654 -0.1601
81269W        W24182  25.696  20.328  28.774 -0.2992  0.1733  0.1953
81270W        W24183   7.026   5.354  19.816  0.2312 -0.1165 -0.1032
81271W        W24184  15.374   2.065  17.240 -0.2163 -0.0901 -0.1580
81272W        W24185  18.758  29.188  24.432 -0.1400 -0.0263 -0.0608
81273W        W24186   9.925  28.419  17.977  0.0423  0.1730  0.1009
81274W        W24187  18.823  25.419   0.055  0.2724 -0.1157 -0.1245
81275W        W24188  16.013  34.376   1.583 -0.0062 -0.2180  0.1136
81276W        W24189  11.491  18.478  24.833 -0.0760  0.2159 -0.1500
81277W        W24190   7.180  24.044  20.917  0.1706 -0.1779  0.2705
81278W        W24191  25.998   0.533  16.980 -0.1324 -0.1651  0.0382
81279W        W24192   4.174   2.673   1.393 -0.2344  0.1356 -0.2802
81280W        W24193  24.024  31.788   1.325 -0.2528  0.0616 -0.0996
81281W        W24194  13.125  27.687  20.265 -0.0608 -0.0466 -0.1386
81282W        W24195  12.812   3.732  28.473  0.1341 -0.3898  0.0612
81283W        W24196  14.053  24.278   4.001 -0.0280  0.0956 -0.2249
81284W        W24197  15.073  29.419  18.769  0.1173  0.1550 -0.2481
81285W        W24198  27.581   1.803  16.852  0.1663  0.2070  0.0961
81286W        W24199  13.671  30.762  15.334 -0.4820 -0.0234 -0.1862
81287W        W24200   1.605  22.787  27.327  0.1544 -0.0297 -0.1609
81288W        W24201  13.060   3.631  19.507 -0.1282 -0.3958 -0.1766
81289W        W24202  17.903  19.930  23.026 -0.0462 -0.2632  0.0842
81290W        W24203  14.752  28.285   9.330  0.0506  0.1938  0.1706
81291W        W24204  26.576   1.993  22.421 -0.0334 -0.4012 -0.0102
81292W        W24205  20.710  17.769  13.347 -0.0585 -0.0619 -0.1882
81293W        W24206  22.891  30.702  19.451  0.0879  0.1843 -0.2122
81294W        W24207  17.826  27.662  22.110  0.4508 -0.1516 -0.3761
81295W        W24208  20.835  28.028  22.857  0.0918 -0.0931  0.1979
81296W        W24209  18.728  23.096  18.440 -0.3962 -0.0410 -0.2602
81297W        W24210  14.674   1.957  19.857 -0.0202 -0.0850 -0.3834
81298W        W24211  17.611   1.350  17.110 -0.0629  0.0102  0.0451
81299W        W24212  20.385   1.883   3.782 -0.1366 -0.0708 -0.0971
81300W        W24213  20.969  22.585  17.772 -0.1524 -0.1891 -0.0583
81301W        W24214  24.612  33.234  21.082  0.1742 -0.0148  0.2097
81302W        W24215  18.166  22.259  15.732  0.1180 -0.0412  0.3476
81303W        W24216  18.438  32.020  20.842  0.0622 -0.1312 -0.1523
81304W        W24217  13.725  29.380  20.377 -0.0401 -0.0120  0.2679
81305W        W24218  12.227  27.897   0.877 -0.2534 -0.2711  0.3276
81306W        W24219  18.027  31.031  18.402  0.0633 -0.0993  0.2235
81307W        W24220  16.596  23.485  26.764  0.2444  0.2656  0.1271
81308W        W24221  13.006  29.458  29.639 -0.0554 -0.1471  0.2450
81309W        W24222   7.760   2.312  19.535  0.3568 -0.0012  0.2517
81310W        W24223  12.781  32.776  19.398  0.2465 -0.2225  0.0580
81311W        W24224  16.111  33.782  16.698  0.2221  0.2002 -0.3248
81312W        W24225  16.104   4.431  20.021 -0.2935 -0.2029 -0.2895
81313W        W24226   5.788  25.864  26.659  0.1636 -0.1202 -0.2516
81314W        W24227  19.478  24.330  28.338  0.1672 -0.0636  0.0515
81315W        W24228  29.914  33.492  16.020 -0.2038 -0.0419 -0.0608
81316W        W24229  11.546  21.941  29.087 -0.0889 -0.1264 -0.2059
81317W        W24230  16.809  29.844   3.178 -0.0490 -0.0529  0.0440
81318W        W24231   5.080  26.841  15.950  0.0213 -0.0777 -0.1552
81319W        W24232  11.730  29.259   3.632 -0.1556 -0.0636  0.0245
81320W        W24233  22.967  26.125  16.860  0.1825  0.3774  0.2208
81321W        W24234  16.578  31.431   5.363 -0.3145  0.0843  0.2311
81322W        W24235  16.031  19.890  27.662 -0.2664 -0.2580 -0.0529
81323W        W24236  21.779  32.966   9.231  0.4021  0.0390  0.2668
81324W        W24237  19.657  32.220  18.396  0.0200 -0.0025 -0.2175
81325W        W24238   3.007  29.069   2.518  0.0234 -0.1218 -0.2307
81326W        W24239  16.952  32.880   3.277 -0.0043  0.1233  0.0769
81327W        W24240  18.079   4.905  19.765  0.1690  0.2291  0.0690
81328W        W24241  16.112  28.744  27.003  0.3378 -0.1793 -0.0780
81329W        W24242  16.705  16.142  14.671 -0.0377  0.1159 -0.0327
81330W        W24243  21.801   4.632  14.371 -0.0578  0.0404  0.1025
81331W        W24244  22.894  23.196  25.324 -0.3906 -0.1054  0.2827
81332W        W24245  19.198  23.493  24.119  0.1687 -0.1289  0.1788
81333W        W24246  21.233  30.140  19.592  0.1546 -0.0199 -0.2888
81334W        W24247  11.453  25.031  28.684  0.1357 -0.1663  0.0719
81335W        W24248  10.853  31.005  16.747  0.1149 -0.0210 -0.0581
81336W        W24249  11.704  25.120   0.650 -0.1016  0.2066  0.0686
81337W        W24250  23.484  16.139  25.774  0.0041  0.1507  0.2620
81338W        W24251  12.661  25.786  22.545  0.3883 -0.2752  0.1179
81339W        W24252  19.132  21.370  28.984  0.1323  0.0143 -0.0036
81340W        W24253   9.706   0.825  24.311  0.0485 -0.1666 -0.1374
81341W        W24254  14.279  22.755  21.354 -0.1670 -0.1499 -0.2517
81342W        W24255  18.357  19.870  11.483  0.2395  0.4523 -0.1867
81343W        W24256  14.639  29.414  21.715 -0.1308  0.1982  0.0644
81344W        W24257  16.905  29.397  24.096  0.1218 -0.3281  0.0446
81345W        W24258  12.472  30.390  29.637  0.1243  0.0719 -0.0038
81346W        W24259  22.708  20.797  26.938 -0.0618 -0.0364  0.0639
81347W        W24260  27.312  12.723  17.636 -0.0891 -0.1531 -0.0705
81348W        W24261  10.858  32.801  24.357  0.3300  0.1856  0.0763
81349W        W24262   6.262  24.189  27.465  0.3125  0.3346 -0.2094
81350W        W24263  25.650  33.369  21.122 -0.0433  0.1007 -0.1889
81351W        W24264   7.690  19.494  19.419 -0.2713  0.0552 -0.2734
81352W        W24265  15.752  32.129   6.532 -0.2825  0.1188  0.1065
81353W        W24266  23.335  26.708  14.775  0.0709  0.2371  0.0407
81354W        W24267  18.725  33.514  26.127  0.0744  0.1221  0.1617
81355W        W24268  28.677  19.483  20.417  0.0379 -0.0252  0.2460
81356W        W24269  17.411   3.997  15.639 -0.0702 -0.1440  0.3359
81357W        W24270  31.075  20.385  16.548 -0.2163 -0.0132  0.1097
81358W        W24271  16.676   2.144  21.774  0.1532  0.0833  0.1708
81359W        W24272   7.471  26.425  19.586 -0.3504 -0.3127  0.1147
81360W        W24273  27.392   3.166  16.890 -0.1370 -0.0419  0.0009
81361W        W24274  31.921  29.059   2.914 -0.1646  0.1699 -0.0841
81362W        W24275  20.793  34.257  18.324  0.1963  0.0587  0.0711
81363W        W24276  21.323  28.002  26.820  0.2394  0.4134 -0.2207
81364W        W24277  20.363  21.942  29.262 -0.2322 -0.0102  0.1990
81365W        W24278   7.669  30.215  22.938 -0.0042  0.0630 -0.1485
81366W        W24279  17.852  32.875  20.920  0.0294  0.0935  0.0313
81367W        W24280  17.586  21.872  20.912 -0.0360  0.0126 -0.0059
81368W        W24281  26.805  30.222  21.120 -0.2616 -0.1287  0.1616
81369W        W24282   4.594  28.795  19.866  0.0180 -0.1304  0.0911
81370W        W24283  25.965   6.051  19.505  0.1970 -0.0587  0.1815
81371W        W24284   9.674   7.513  17.544  0.0059 -0.0303 -0.0248
81372W        W24285  13.783   5.731  16.582 -0.2084 -0.2287 -0.1830
81373W        W24286  12.075   1.782   2.227  0.1516 -0.0475 -0.3950
81374W        W24287   9.862  30.687  19.618 -0.1348  0.2875  0.0989
81375W        W24288  21.626  27.089  20.029 -0.2657 -0.2818  0.3295
81376W        W24289  26.472  33.721  18.810 -0.0837 -0.0283  0.1723
81377W        W24290  14.684  32.209  22.758 -0.1126  0.3947  0.0054
81378W        W24291   7.054  22.227  16.914 -0.1434  0.1481  0.0877
81379W        W24292   9.625  24.912  20.948  0.0076 -0.1255 -0.0977
81380W        W24293  14.034  30.115  17.294 -0.1327 -0.1997 -0.0482
81381W        W24294  24.816  29.004   0.236  0.2596  0.1883 -0.0374
81382W        W24295  20.710  32.549  18.257  0.3470  0.0181  0.0727
81383W        W24296  13.655  33.027  20.714  0.0988 -0.3334 -0.0284
81384W        W24297  10.327   0.985  21.761 -0.0148  0.0990 -0.1079
81385W        W24298   8.490  34.289  22.390 -0.2321  0.1155  0.0630
81386W        W24299  13.559   7.239   0.774 -0.3298  0.2209  0.0606
81387W        W24300   8.428   5.604   5.497  0.0350 -0.0106 -0.3210
81388W        W24301  13.058   7.186  26.028 -0.0118  0.1139  0.3099
81389W        W24302   4.696  28.913   0.926 -0.0058  0.0641  0.2148
81390W        W24303  26.503  32.533   2.448  0.2317  0.0991  0.2488
81391W        W24304  28.496   5.379  22.514 -0.2251 -0.3384 -0.1688
81392W        W24305   9.759  29.510  26.752  0.0490  0.0229 -0.3364
81393W        W24306  19.655  33.919  20.948  0.0203  0.0365  0.0346
81394W        W24307  11.111   3.432  27.568  0.0325 -0.1509 -0.0308
81395W        W24308  15.589  23.345  16.357  0.0153  0.0313 -0.2352
81396W        W24309   8.675  26.976  24.015 -0.1060  0.2264 -0.1080
81397W        W24310   5.718  29.645  22.595 -0.1131  0.2263  0.2757
81398W        W24311   7.666  30.815  29.681 -0.2516 -0.3302  0.0949
81399W        W24312  17.072  33.976  24.021 -0.2667  0.0982 -0.0285
81400W        W24313  18.789   1.162   3.324  0.1961  0.0783 -0.0418
81401W        W24314   5.837   7.650  22.634  0.1313  0.0490  0.0280
81402W        W24315  19.179  23.026  28.175  0.0392  0.2777  0.3344
81403W        W24316   9.283  28.850   0.641  0.2447  0.0254 -0.5289
81404W        W24317   4.556  24.261  19.626  0.0637 -0.2743 -0.2036
81405W        W24318  20.360   2.135  19.384  0.2731 -0.1849  0.0470
81406W        W24319  14.898  33.722  17.265 -0.4216 -0.0165 -0.1320
81407W        W24320  16.470  22.911  23.886  0.0103  0.3328  0.1664
81408W        W24321   4.517  29.005  20.358 -0.2157 -0.2162 -0.1603
81409W        W24322  19.781  25.547   0.157 -0.0381  0.1084 -0.1478
81410W        W24323   4.867  27.110  23.644 -0.1975  0.0215 -0.2692
81411W        W24324  17.855  22.959  25.041 -0.1120 -0.0479 -0.1868
81412W        W24325  13.451  27.075  26.057 -0.0208 -0.0183 -0.1316
81413W        W24326  21.119  26.071  19.495 -0.1724 -0.0607 -0.1504
81414W        W24327  34.477   3.962  24.395 -0.1711  0.2459 -0.1149
81415W        W24328   7.797  31.185  20.527  0.2735  0.2671  0.2710
81416W        W24329  25.693  24.746  17.495  0.1505  0.1546  0.2232
81417W        W24330  15.513  17.604  22.130  0.1801  0.0327  0.3584
81418W        W24331  28.175  34.142  21.108  0.2037 -0.1182 -0.1386
81419W        W24332  14.657  28.343  16.218 -0.0159 -0.0698  0.2984
81420W        W24333  15.383  29.481  29.693 -0.0604 -0.0470 -0.0451
81421W        W24334  24.923  21.004  23.131 -0.1184  0.0330  0.1556
81422W        W24335  13.292  20.751  28.580  0.4042 -0.0647 -0.0208
81423W        W24336  24.685   2.319  26.156  0.0809 -0.0514 -0.2668
81424W        W24337  11.886  32.532  28.701  0.2743  0.0704  0.0265
81425W        W24338  13.383   3.045  28.027 -0.2942  0.1050 -0.1975
81426W        W24339  12.931  23.080  24.238  0.2762  0.0650 -0.2151
81427W        W24340  30.807  33.268  20.118 -0.0900 -0.2512 -0.2740
81428W        W24341  19.085  33.944  25.978 -0.0240 -0.1116 -0.1227
81429W        W24342  29.209  21.701  28.163  0.2518 -0.3179 -0.0672
81430W        W24343  14.349  28.605  21.288 -0.0940 -0.1464 -0.1484
81431W        W24344  18.656  23.795  13.151  0.1784  0.1777  0.1448
81432W        W24345  20.996   0.402  26.152  0.0218  0.1215 -0.1556
81433W        W24346  24.661  17.216   1.054  0.0422  0.1821  0.3579
81434W        W24347  20.707   1.723  20.452  0.0726 -0.1581 -0.0149
81435W        W24348  15.426  31.842  21.506  0.1015 -0.3867 -0.2066
81436W        W24349  13.568  30.876  19.761  0.2508  0.0169 -0.4373
81437W        W24350   5.270  25.240  26.058  0.0899 -0.2617 -0.1349
81438W        W24351  14.276  27.312  20.461  0.1473 -0.1449  0.3067
81439W        W24352  11.077   3.416   0.927 -0.0949 -0.1302 -0.0144
81440W        W24353  18.295  32.113  22.088 -0.4185  0.3373  0.1823
81441W        W24354  30.976   2.232   2.155 -0.1692 -0.0289  0.1495
81442W        W24355  11.533  21.092  22.979  0.1922  0.2741  0.0983
81443W        W24356  19.229  32.291  27.266 -0.2395 -0.1751  0.0792
81444W        W24357  17.683  21.091  17.612  0.0028  0.0834  0.3023
81445W        W24358  13.254  29.340  19.369  0.2281 -0.0857  0.3759
81446W        W24359   9.910  27.264  22.290 -0.2213  0.1898  0.0631
81447W        W24360  24.870  23.086  14.960 -0.1231 -0.1071 -0.0278
81448W        W24361  11.576  32.911  21.188  0.2017 -0.1803 -0.2429
81449W        W24362  32.540  15.018  23.197 -0.1210 -0.1384  0.1676
81450W        W24363  15.635   4.464  22.436  0.1708  0.0984  0.3508
81451W        W24364   2.809   4.592  29.006  0.1897  0.0351  0.1114
81452W        W24365  27.540  27.443  19.133 -0.1857 -0.0134  0.0127
81453W        W24366  28.314  31.695  17.654 -0.0904 -0.1987  0.1553
81454W        W24367  25.072  33.423  23.766  0.4208  0.2276  0.1632
81455W        W24368  24.383  27.871  27.202 -0.0911  0.1110  0.0454
81456W        W24369  25.591   3.717  16.876  0.0397 -0.1246  0.3087
81457W        W24370  10.647   2.954  22.026  0.3191  0.0286 -0.0748
81458W        W24371  12.888  26.456  25.073  0.1471  0.1001  0.2063
81459W        W24372  18.195   9.618  27.028 -0.1726  0.0722  0.0591
81460W        W24373  12.428   5.776  16.649 -0.2336 -0.0726 -0.0586
81461W        W24374  18.052  31.515  17.693 -0.1718  0.1562  0.2564
81462W        W24375   2.427  19.962  17.197 -0.1495 -0.0349 -0.3754
81463W        W24376  20.643   1.444  27.551 -0.1122  0.3525  0.1505
81464W        W24377   7.879  21.996  27.746 -0.3688  0.0378 -0.0031
81465W        W24378  34.445  34.323   1.302  0.0383 -0.0599  0.2167
81466W        W24379  19.524  33.027  20.350  0.0154 -0.2415  0.1807
81467W        W24380  11.331  17.366  21.062  0.3402 -0.0205 -0.2025
81468W        W24381  14.143  25.494  15.442 -0.0424 -0.0447  0.1015
81469W        W24382  12.491  24.939  16.987  0.0414 -0.0544  0.0848
81470W        W24383   8.849   2.811   0.254 -0.1587  0.1546 -0.2279
81471W        W24384  12.820  22.505   6.131 -0.3154 -0.0971 -0.0950
81472W        W24385  16.868  27.502  28.476 -0.3542 -0.3109 -0.0404
81473W        W24386   4.127  29.989  25.713 -0.3686  0.3808 -0.1451
81474W        W24387  23.230   0.008  22.433  0.0218  0.1535 -0.0178
81475W        W24388  16.944  28.147  23.879 -0.0852 -0.5109 -0.1596
81476W        W24389  17.012  29.183  23.244  0.1635 -0.1381  0.0699
81477W        W24390  12.777  29.038  23.174 -0.1339 -0.0609 -0.0678
81478W        W24391  19.345  25.353  28.335  0.1611 -0.0282 -0.1916
81479W        W24392  19.937  25.383  21.826 -0.0945  0.1363  0.0475
81480W        W24393  15.949  32.187  22.302 -0.0020  0.2810 -0.0515
81481W        W24394   7.799  25.500  21.705  0.0238  0.1468  0.1911
81482W        W24395  23.698  29.983  16.423  0.2809  0.1020 -0.4772
81483W        W24396  18.087  12.090  23.107 -0.0211  0.4073  0.0805
81484W        W24397  17.541   5.875  17.747 -0.3190 -0.1684  0.2720
81485W        W24398  28.821  28.444  23.231  0.0511 -0.0886 -0.1254
81486W        W24399   3.798  25.025   2.917  0.0816  0.0518 -0.1704
81487W        W24400  21.881  21.093   1.348  0.1000 -0.6778  0.2288
81488W        W24401  12.886  23.386  29.566 -0.1837  0.0899 -0.0648
81489W        W24402  20.311  16.458  27.446 -0.2535 -0.1132 -0.0263
81490W        W24403  20.001  32.265  22.517 -0.0164  0.4675  0.0493
81491W        W24404  19.809   2.185   5.407 -0.1977 -0.0367  0.2522
81492W        W24405  19.735  24.957  23.026 -0.3182  0.1125  0.2043
81493W        W24406  16.207  32.114  19.882  0.1238  0.1209 -0.1723
81494W        W24407  14.064  30.407   0.030 -0.1178 -0.2460  0.3568
81495W        W24408  18.401  27.987  24.245  0.2644  0.3371  0.1697
81496W        W24409   9.342  25.725   0.378  0.2581  0.0306  0.1855
81497W        W24410  13.142  25.146   0.428 -0.0989  0.0536 -0.1229
81498W        W24411  24.744  26.077   2.894 -0.1452  0.1349 -0.1374
81499W        W24412  11.012  28.360  19.225  0.0726  0.0752 -0.0594
81500W        W24413  19.748  30.786  17.335  0.2840 -0.1795  0.1265
81501W        W24414  19.468  22.242  28.323 -0.0070  0.3571 -0.0304
81502W        W24415  28.050   6.199  24.012  0.1008 -0.2433  0.1653
81503W        W24416  20.516   0.911  17.938  0.0253  0.3136 -0.0181
81504W        W24417  17.142   1.642  27.071  0.0874 -0.0560  0.2899
81505W        W24418  14.490  26.629  19.825  0.1471  0.0210 -0.1203
81506W        W24419   9.012  33.901   6.412  0.1795  0.2167  0.0497
81507W        W24420  33.883  28.240   7.419  0.2541 -0.0589  0.1398
81508W        W24421  28.288   3.166  20.673 -0.2891 -0.0593  0.1743
81509W        W24422  12.613   6.607  16.499 -0.0773 -0.0594  0.0740
81510W        W24423   5.946  26.912   1.352  0.1464  0.2292 -0.0023
81511W        W24424   6.346  24.231  27.992 -0.1559 -0.0323 -0.2338
81512W        W24425  11.662   3.102   2.422 -0.1269 -0.2445 -0.0347
81513W        W24426  22.024  30.294   1.935  0.2141  0.0879  0.0771
81514W        W24427  25.032  25.538   0.506  0.2141 -0.2144  0.1787
81515W        W24428  15.670  27.537  28.472 -0.2358  0.0002  0.4341
81516W        W24429  20.211  31.585   2.172 -0.0589 -0.2334 -0.5119
81517W        W24430   9.216   2.184   4.985 -0.0856  0.0472  0.0838
81518W        W24431  28.958   2.776  23.819 -0.2037  0.0388 -0.1534
81519W        W24432  24.666  34.350  25.916  0.0067  0.0108 -0.0997
81520W        W24433   7.711  25.626  28.537 -0.0198  0.1141  0.0209
81521W        W24434  15.463  27.804  25.642 -0.1098  0.0950  0.1199
81522W        W24435  16.420  27.188  20.862 -0.0696  0.2155  0.0894
81523W        W24436  21.962  24.628  20.982 -0.0252  0.1196  0.3272
81524W        W24437  17.359  26.137  23.280 -0.0395  0.1808  0.3180
81525W        W24438  21.898  32.408  21.388 -0.0016 -0.2462  0.1966
81526W        W24439  22.829   0.258  27.189 -0.0531  0.1695  0.1591
81527W        W24440  33.296  34.133  21.269  0.1900 -0.0194 -0.2639
81528W        W24441  11.228  28.446  29.685 -0.1247 -0.3426 -0.0671
81529W        W24442   7.132  25.133   1.199 -0.0521 -0.3064  0.0431
81530W        W24443  15.809   2.625   2.038  0.2206  0.1125 -0.0054
81531W        W24444  24.047  29.420  29.271 -0.2143  0.3151 -0.1314
81532W        W24445   8.759  23.017   2.834 -0.3873  0.3127 -0.2988
81533W        W24446   9.734  27.205  18.820  0.0976 -0.1189 -0.1860
81534W        W24447  23.906  20.869  15.288  0.1944  0.1892 -0.1624
81535W        W24448  10.278  30.487  18.134 -0.0363 -0.5839 -0.1815
81536W        W24449  13.573  32.118  26.513  0.2567 -0.1116  0.0060
81537W        W24450  13.926  29.562  28.005  0.0425  0.0636  0.2050
81538W        W24451  17.254  22.111   0.023  0.3796  0.2033 -0.2231
81539W        W24452   2.749  28.514  21.157 -0.2401  0.3790 -0.1191
81540W        W24453  13.934   1.864  15.768  0.3892 -0.1150 -0.3897
81541W        W24454  14.569  22.714  15.942  0.3295 -0.1124  0.2160
81542W        W24455  21.461  28.821  16.620 -0.1984 -0.1519  0.2151
81543W        W24456  14.239  27.458  23.496 -0.3342 -0.1659 -0.0677
81544W        W24457  19.836  22.118   2.446 -0.0513 -0.0666 -0.1842
81545W        W24458  29.396   4.832  24.716  0.1136  0.0698 -0.2568
81546W        W24459  27.105   0.145  22.442  0.0231 -0.1168  0.0705
81547W        W24460  18.900  30.061  17.863 -0.1603  0.2427  0.2673
81548W        W24461  16.200  29.471  28.559  0.0360 -0.0345  0.2069
81549W        W24462  18.551  22.342  14.741 -0.2587  0.1045 -0.1242
81550W        W24463  11.823   4.832  28.845 -0.0703 -0.0740  0.3508
81551W        W24464  14.734  33.422  16.069 -0.2732  0.1866 -0.3799
81552W        W24465  24.657  21.231   1.226 -0.1993  0.1762  0.0199
81553W        W24466  25.689  29.761  29.250  0.3000  0.0333 -0.1319
81554W        W24467  28.425  27.982  29.198  0.0572 -0.0745 -0.0229
81555W        W24468   3.027  30.523  26.419  0.2778 -0.1361  0.0440
81556W        W24469  19.898  32.625  19.100  0.1468 -0.0347 -0.0351
81557W        W24470   9.533  31.327  18.485 -0.0276  0.1738  0.0477
81558W        W24471  19.555  20.795  27.524  0.0407 -0.1301  0.1978
81559W        W24472  11.762   1.621  11.101  0.4140  0.3947 -0.1519
81560W        W24473  13.151  29.041  22.428 -0.4367  0.0094 -0.0958
81561W        W24474   7.621  20.301  22.489 -0.3618  0.0006  0.2119
81562W        W24475  26.715  14.431  19.579  0.2868  0.3042  0.2250
81563W        W24476  16.987  32.945  26.906  0.4179 -0.1026 -0.0835
81564W        W24477  17.788  33.948  29.494 -0.1153  0.0241  0.3093
81565W        W24478  27.501   2.439  17.844  0.3244 -0.2455 -0.1487
81566W        W24479  15.684  28.915   0.018 -0.3315  0.3767  0.0751
81567W        W24480  15.203  30.056  16.630 -0.3096 -0.0188  0.0470
81568W        W24481  14.713  21.621  22.099 -0.0120  0.1699 -0.1632
81569W        W24482  19.169  24.554  17.038 -0.0737  0.1934 -0.0065
81570W        W24483  16.385  22.803  26.261 -0.0701  0.0428 -0.1044
81571W        W24484  25.805  30.972   6.424  0.1833 -0.0846 -0.3247
81572W        W24485  13.793  26.947  21.011 -0.0971 -0.1130  0.2046
81573W        W24486  21.151  32.064   0.352 -0.2969  0.2850 -0.0431
81574W        W24487  19.280  33.256   6.940 -0.0843 -0.0429 -0.2964
81575W        W24488  10.396   7.577  20.350  0.1177  0.0898 -0.0581
81576W        W24489  13.479  24.430   4.049  0.1252 -0.1049 -0.0496
81577W        W24490  15.356  30.898  22.028 -0.0256  0.2442  0.2022
81578W        W24491  18.633  32.184   0.568  0.0883  0.0477 -0.2569
81579W        W24492  14.959  23.805  19.248 -0.1006 -0.0795 -0.0961
81580W        W24493  20.328  31.194   7.621 -0.0201  0.2487 -0.1193
81581W        W24494  20.832  32.802   2.513  0.1077  0.1187  0.1632
81582W        W24495   7.680  33.056  22.765 -0.0796  0.1051 -0.0733
81583W        W24496  15.016  24.270  26.650  0.1030  0.1374 -0.0182
81584W        W24497  16.594  30.946  23.853 -0.0617 -0.3878 -0.2583
81585W        W24498  17.697  33.042  26.739 -0.1594 -0.0671 -0.0042
81586W        W24499  16.787  30.967  20.651  0.1474  0.1019  0.2820
81587W        W24500  11.616  30.774  17.819  0.0339  0.0951 -0.1113
81588W        W24501  10.503  28.867  22.425  0.1365 -0.1833  0.2426
81589W        W24502  15.724  23.404  27.311  0.2658  0.3065  0.3141
81590W        W24503   9.710  26.390  28.105  0.0603  0.0728  0.1609
81591W        W24504  17.487  32.731  20.273  0.1914  0.1473 -0.0283
81592W        W24505  23.115  30.362  14.555 -0.1282 -0.1256 -0.0074
81593W        W24506  24.700  30.785  25.138  0.1565 -0.0275  0.0097
81594W        W24507   7.294   1.038   2.762 -0.0291 -0.0048  0.0380
81595W        W24508  12.703   0.192   3.534  0.4260 -0.0257  0.1996
81596W        W24509  23.729  23.466  23.551 -0.1723 -0.1316 -0.3335
81597W        W24510  21.273   7.846  25.916 -0.2562  0.1104 -0.1985
81598W        W24511  21.682   0.271  22.655  0.3708  0.3478 -0.1558
81599W        W24512  13.215  26.422  28.333 -0.0925 -0.3813  0.0277
81600W        W24513  16.690   3.876   7.488  0.0250  0.5923  0.0414
81601W        W24514  16.756  26.040  19.179 -0.0137 -0.1331  0.4111
81602W        W24515  17.515  25.105  28.705  0.0969 -0.3636  0.3332
81603W        W24516   1.029  31.302  10.191 -0.2228 -0.1202  0.0801
81604W        W24517  11.695  32.003   0.715  0.0857 -0.0456 -0.2615
81605W        W24518   4.966  19.947  28.348 -0.6684  0.2822 -0.1922
81606W        W24519  30.816   1.210  15.888  0.1622  0.2580  0.2223
81607W        W24520   6.952  30.509   2.062  0.2800  0.0291  0.1206
81608W        W24521   6.017  18.344  23.998  0.2898 -0.1073  0.1429
81609W        W24522   4.686   0.591  21.611 -0.1178  0.0848 -0.0379
81610W        W24523  22.709  32.970   6.272 -0.1842 -0.0399  0.1890
81611W        W24524  23.747  30.376  22.193  0.0852  0.0155  0.2648
81612W        W24525   4.928   6.603   0.536  0.2376 -0.0021 -0.0598
81613W        W24526  25.145  25.997  27.421 -0.0915  0.0048 -0.1073
81614W        W24527  17.590  29.651  24.840  0.5046  0.1854 -0.1214
81615W        W24528  15.897  23.266  27.831 -0.0516 -0.5813  0.2126
81616W        W24529   3.973  31.158  28.706 -0.1608 -0.2372  0.2321
81617W        W24530  22.383  34.029   1.232 -0.1742  0.3506 -0.0715
81618W        W24531  23.740   4.096  20.767  0.0673 -0.2457  0.0051
81619W        W24532  25.629  32.461  15.745 -0.1586  0.0628 -0.1052
81620W        W24533  30.305  28.833   9.059  0.1664 -0.1084  0.1753
81621W        W24534  17.593  22.189  24.168 -0.2708  0.2000  0.0975
81622W        W24535  22.882   6.530  27.439 -0.4391 -0.1039  0.3553
81623W        W24536  22.599  29.188  29.523 -0.0783 -0.1129  0.1577
81624W        W24537  15.131  25.810  16.587  0.0149  0.2512  0.3027
81625W        W24538  13.247  31.407   0.561 -0.0003 -0.3381  0.1060
81626W        W24539  25.219  18.149   4.219  0.0637  0.0597 -0.0547
81627W        W24540  32.545  19.551  29.554  0.2247 -0.1265 -0.2181
81628W        W24541  16.739  20.922  23.910 -0.4658 -0.1623 -0.0831
81629W        W24542  19.372  25.625  25.652  0.3164  0.2031 -0.1415
81630W        W24543  23.894  14.367   0.663  0.1211 -0.0559 -0.1252
81631W        W24544  16.310  15.512  15.949 -0.2018 -0.3195 -0.0460
81632W        W24545  10.792   2.392   4.010 -0.0070  0.0804  0.0228
81633W        W24546   9.565  25.503  22.291  0.0121 -0.0044 -0.1623
81634W        W24547  11.009  30.478  18.961 -0.1010 -0.0585  0.1928
81635W        W24548  20.431   1.874   4.604  0.2310  0.1207  0.0761
81636W        W24549  18.718  25.261  25.887 -0.4236  0.0464 -0.4499
81637W        W24550  14.064   2.837   1.414  0.1121 -0.2646 -0.2668
81638W        W24551  18.530  25.064  27.328  0.1722 -0.2407 -0.2754
81639W        W24552  21.667   2.107   0.475 -0.3230 -0.1751 -0.2321
81640W        W24553  15.307  21.566  25.107  0.0781 -0.4603 -0.0037
81641W        W24554  18.573   0.166  25.871 -0.0884 -0.1462 -0.2350
81642W        W24555  10.057  33.921  21.836  0.3425 -0.4870  0.1627
81643W        W24556  13.975   2.528  22.368  0.0845  0.1629  0.1884
81644W        W24557  15.719   0.417   0.038  0.1530 -0.0724  0.0761
81645W        W24558  18.449  28.515  27.050  0.0698 -0.0816 -0.3030
81646W        W24559  16.282  29.658  17.303  0.1293  0.1897  0.1092
81647W        W24560  11.717  20.731   4.319 -0.2078 -0.1032 -0.0596
81648W        W24561  15.997  26.639  29.437 -0.2221 -0.1075  0.1451
81649W        W24562  21.787  29.783  28.047 -0.1087 -0.1290 -0.3849
81650W        W24563  31.744  26.046  13.597 -0.0779  0.0780 -0.0090
81651W        W24564  24.294   4.121   7.791 -0.0670  0.0877  0.0593
81652W        W24565  24.413   4.552  25.856  0.3332 -0.3383 -0.1612
81653W        W24566  22.816  24.387  26.070  0.0121 -0.0519  0.1403
81654W        W24567  28.024  25.508   5.640 -0.3035 -0.0081  0.0509
81655W        W24568   7.284  31.165  20.641  0.1308 -0.0007  0.3670
81656W        W24569   4.524  23.370  13.792 -0.2111  0.0719  0.0715
81657W        W24570   5.592  33.717   8.018  0.1260  0.3038 -0.3222
81658W        W24571  21.658  33.006  27.363 -0.1996 -0.0647  0.0572
81659W        W24572  16.310  21.377  23.920  0.1981 -0.2477  0.1553
81660W        W24573  14.194  32.323   9.146 -0.0106  0.0428  0.0776
81661W        W24574  27.823   7.082  16.671 -0.2677  0.1921  0.0467
81662W        W24575   9.759   3.047   7.657  0.0433 -0.1204  0.3771
81663W        W24576  10.371  29.558  18.940  0.4180  0.0368 -0.0767
81664W        W24577  30.604  25.623   2.690 -0.3023 -0.0492 -0.0306
81665W        W24578   2.609  29.920   2.109 -0.0982  0.1811  0.1386
81666W        W24579  16.939  28.734   3.149 -0.2332  0.1325 -0.1447
81667W        W24580  18.304   1.266  28.952 -0.2088  0.0060 -0.1312
81668W        W24581  16.002  26.155   1.296  0.0554 -0.3364  0.0095
81669W        W24582  13.042   4.203  24.236 -0.0021 -0.2994 -0.1020
81670W        W24583  20.386  29.663   4.926 -0.0661 -0.2493 -0.0745
81671W        W24584  22.942  21.894  18.768  0.2389 -0.1630  0.2518
81672W        W24585  27.760  29.716  24.380  0.0091 -0.1016 -0.0309
81673W        W24586  23.800  32.149  16.039  0.3835 -0.1163 -0.2049
81674W        W24587  16.289  24.859   0.680 -0.2383 -0.2334  0.2463
81675W        W24588  11.850  34.047  28.200 -0.1002 -0.4558 -0.2823
81676W        W24589   4.841   5.648   9.314 -0.1190  0.3055 -0.2026
81677W        W24590  12.669  23.445  20.973  0.0615 -0.4591  0.2505
81678W        W24591  20.450   0.383  26.217 -0.4226 -0.2528 -0.1842
81679W        W24592  16.525  34.409  17.443 -0.0578  0.0606 -0.1125
81680W        W24593  12.597   5.684   2.166  0.1919  0.0897  0.2457
81681W        W24594   6.453   6.171   0.051 -0.3838 -0.0590 -0.1922
81682W        W24595  20.910  31.042  16.174 -0.0707 -0.0505 -0.2242
81683W        W24596  29.763  28.293  16.083 -0.3307 -0.0360  0.1017
81684W        W24597  18.132  32.227   5.210  0.1355  0.0521 -0.3703
81685W        W24598  11.656   2.076  22.476  0.1259  0.0415  0.0794
81686W        W24599  13.292  31.902   0.688  0.1619 -0.0682  0.1140
81687W        W24600  20.488   0.220  21.526  0.0367 -0.1587 -0.2037
81688W        W24601   1.565  32.944   1.004 -0.4245  0.1945  0.0964
81689W        W24602  23.315  18.500  17.215 -0.2845  0.3454 -0.0050
81690W        W24603  20.322  25.167  27.473 -0.0298  0.0155 -0.4254
81691W        W24604  22.159  32.089  28.248  0.1586 -0.1120  0.0606
81692W        W24605  16.477  32.602   0.754 -0.0942 -0.0453 -0.1353
81693W        W24606  12.135  27.040  23.844  0.0072  0.3346  0.1173
81694W        W24607  13.289  23.775   5.219 -0.2610  0.1115  0.2007
81695W        W24608  23.703  27.201   2.631 -0.0999 -0.1415  0.0252
81696W        W24609  21.019  29.831  29.137 -0.2184 -0.0363 -0.2167
81697W        W24610  17.819  11.102  18.913 -0.0293  0.1403  0.3662
81698W        W24611  17.483  14.459  26.900  0.1857  0.1023 -0.0409
81699W        W24612  22.762  28.614  25.657  0.1334  0.0838  0.0717
81700W        W24613  12.072  27.827  22.232 -0.2045  0.1339  0.2828
81701W        W24614  21.453  19.505   1.152  0.2869  0.1106  0.2405
81702W        W24615  25.260   1.208   7.148 -0.3208  0.3942  0.2266
81703W        W24616   9.458  22.606  17.358 -0.1218  0.0268  0.0014
81704W        W24617  20.077  29.339   3.484  0.1375  0.0874 -0.1631
81705W        W24618   9.220  21.492   1.890  0.2687 -0.0157  0.2741
81706W        W24619   3.231   4.752  18.379 -0.2374 -0.1843  0.2017
81707W        W24620  17.618  27.492   3.414 -0.0183 -0.3224 -0.0429
81708W        W24621  18.986  23.501  26.880  0.2238  0.1900  0.2643
81709W        W24622  20.067  24.350  15.034  0.0649  0.1656 -0.1228
81710W        W24623   6.934  26.328  17.161  0.1003  0.1249 -0.2590
81711W        W24624  26.361   8.702  19.135  0.2517  0.2825 -0.0478
81712W        W24625  18.960   2.418  17.464  0.1779  0.0599 -0.1630
81713W        W24626  21.719  29.292   1.475 -0.3312 -0.2620 -0.0969
81714W        W24627  17.536   2.531  20.047  0.0382  0.0958 -0.0507
81715W        W24628  18.282  19.947  28.575 -0.2478  0.0186  0.4018
81716W        W24629  13.300  31.770   9.099  0.0186 -0.2531 -0.2689
81717W        W24630  15.816  30.615  23.625 -0.4644  0.0525 -0.3405
81718W        W24631   8.925  21.691  26.977  0.0151  0.1334 -0.1453
81719W        W24632  25.607   2.073  28.526 -0.0072 -0.2735 -0.0287
81720W        W24633  19.198  31.964  20.407 -0.0252  0.1783 -0.1812
81721W        W24634  21.938  30.146   7.633 -0.2437  0.0186  0.2129
81722W        W24635  13.379  31.177   8.312 -0.1994  0.0140  0.0308
81723W        W24636  24.301   0.507  23.981  0.1235  0.0224  0.1327
81724W        W24637  11.517  22.123  17.037 -0.1206 -0.2051 -0.3318
81725W        W24638  10.593  34.425  20.677  0.3000 -0.0244 -0.1693
81726W        W24639  12.859   2.314  17.658  0.3658  0.2060 -0.0669
81727W        W24640  33.117   9.466   7.572  0.4314 -0.1760 -0.0214
81728W        W24641  15.272  34.408  27.901 -0.2244  0.0398  0.0169
81729W        W24642  14.087  27.020   1.457  0.2319 -0.2062 -0.1126
81730W        W24643  17.793  31.091   8.522 -0.1159  0.2370 -0.0444
81731W        W24644  25.318  31.120   1.692  0.1646  0.1416  0.0979
81732W        W24645  14.924   0.518  26.262 -0.0180  0.1456 -0.1901
81733W        W24646   8.345  20.793   5.483 -0.1568 -0.2742  0.2495
81734W        W24647   4.275  26.802   4.004 -0.0636  0.1328  0.1201
81735W        W24648  16.144  24.520  19.786  0.1663 -0.2084 -0.2295
81736W        W24649  24.578   4.642  26.384 -0.0817 -0.2301 -0.2444
81737W        W24650  20.655  26.634  20.817 -0.2075  0.3024 -0.0608
81738W        W24651  14.765  30.473  16.814 -0.1413  0.1977  0.0964
81739W        W24652  16.543   5.772   4.161 -0.1836 -0.1080  0.0209
81740W        W24653  11.011  23.838   1.147 -0.1694  0.1459  0.1381
81741W        W24654  13.879  25.348  18.388  0.3787 -0.3966  0.0283
81742W        W24655   1.343  23.856  15.107  0.0633  0.3441 -0.1040
81743W        W24656  11.419  23.658   1.532  0.0529 -0.1613  0.3783
81744W        W24657   7.307   2.788  26.119  0.1712  0.1681 -0.0596
81745W        W24658  11.663  18.417  24.349  0.2633  0.1799  0.0947
81746W        W24659  19.011   3.511   0.233 -0.0245 -0.1622  0.1723
81747W        W24660  21.314   2.369  23.581  0.3085 -0.0964 -0.1563
81748W        W24661   7.933  22.021  17.703  0.0784 -0.1452 -0.0498
81749W        W24662  21.174  19.559  28.943  0.0730 -0.2885  0.1702
81750W        W24663   9.525   6.408  26.256 -0.1934 -0.0538 -0.0916
81751W        W24664  12.122  24.676  28.350 -0.4214 -0.1134 -0.3411
81752W        W24665  18.970  31.968  22.407 -0.1292  0.1473 -0.0622
81753W        W24666   7.184   3.060   4.976 -0.0412  0.0190  0.0766
81754W        W24667  18.838  29.313  22.406 -0.1269  0.0382 -0.1271
81755W        W24668  13.380  25.769  23.718  0.4029 -0.6047 -0.1403
81756W        W24669  13.953  26.235  22.687 -0.1837 -0.0020  0.0323
81757W        W24670  17.998  22.058  22.410  0.0886 -0.1657 -0.2195
81758W        W24671  17.076  18.872  13.790  0.1443 -0.0020  0.1248
81759W        W24672   7.793   0.318   2.648 -0.1293 -0.1804 -0.0498
81760W        W24673  16.302  34.461   6.891 -0.1599  0.2509 -0.0687
81761W        W24674   7.535  29.157   3.419  0.2761 -0.2771  0.0451
81762W        W24675  19.494  17.319   0.291  0.2451  0.2384  0.5043
81763W        W24676  17.693  23.768   1.578 -0.0126  0.0568 -0.2872
81764W        W24677   5.783  32.617  17.728  0.0529 -0.1843  0.1072
81765W        W24678  13.134   6.271  26.060 -0.0513  0.5351 -0.0801
81766W        W24679  20.844  15.625   7.245 -0.3378 -0.1495 -0.1459
81767W        W24680  24.533  31.163   2.594  0.1614 -0.1041 -0.0824
81768W        W24681  22.919   4.250  25.088  0.0454  0.1532  0.1751
81769W        W24682  16.357  27.651  19.949  0.1642  0.0903  0.0827
81770W        W24683   9.410  29.999  23.069 -0.1219 -0.2803  0.0907
81771W        W24684  12.289  28.961  19.393 -0.2461  0.0523  0.3225
81772W        W24685  22.120  23.173   6.796  0.0240  0.0609  0.3692
81773W        W24686  17.639  26.886  19.815  0.0065  0.1092  0.1299
81774W        W24687  27.795  30.000  22.023  0.0103  0.2876 -0.1357
81775W        W24688  20.059  21.599  27.388 -0.1851 -0.1224  0.0120
81776W        W24689  13.588  27.438  22.772 -0.3335  0.1928 -0.2247
81777W        W24690  19.005   5.572   1.127 -0.0140  0.1946 -0.1033
81778W        W24691  18.372  30.764  20.505 -0.0727 -0.0077  0.0548
81779W        W24692   7.728  30.770  21.510 -0.2352  0.2559 -0.1036
81780W        W24693  22.606  32.247  28.346  0.3802 -0.3705 -0.2875
81781W        W24694   9.753   1.573  23.062 -0.0432 -0.0269  0.0516
81782W        W24695  24.008  30.449   3.635  0.4033  0.1997 -0.2006
81783W        W24696  14.045  31.647  20.860  0.3902 -0.0035 -0.1887
81784W        W24697  17.918   3.844   6.181 -0.3185 -0.0618  0.3184
81785W        W24698  20.090  32.906  20.448  0.1519 -0.0398 -0.6345
81786W        W24699  13.222   3.573  28.246 -0.1412  0.1084 -0.0962
81787W        W24700  21.106  24.562  25.916  0.3125  0.2257  0.0873
81788W        W24701  11.392  24.941  17.840  0.0611  0.0952 -0.0246
81789W        W24702  16.110  29.940  24.406  0.1256 -0.0789 -0.0637
81790W        W24703  11.303  30.410  26.095  0.1496  0.1036  0.1741
81791W        W24704  16.792  26.536  17.882  0.2056  0.1190  0.1392
81792W        W24705  19.659  30.300  20.895  0.4023  0.0206 -0.1300
81793W        W24706  25.762  30.250  17.673  0.2400 -0.0681 -0.2737
81794W        W24707  19.883   5.212  25.618 -0.2104  0.1258  0.0597
81795W        W24708  21.566  23.332  28.445 -0.1021  0.1917  0.0245
81796W        W24709  21.789  21.924   2.283  0.1616 -0.3141  0.1503
81797W        W24710  18.151  23.863   4.514 -0.0600 -0.0967  0.0043
81798W        W24711  15.766  28.688  15.385  0.0638  0.0430 -0.0505
81799W        W24712  21.001   4.103  20.275  0.0995 -0.1433 -0.0932
81800W        W24713  27.441  33.540  17.420  0.0482  0.1587  0.2546
81801W        W24714  21.374  26.661  20.212  0.2522 -0.0744  0.0165
81802W        W24715  17.644   1.146   9.917 -0.1508  0.0338  0.4616
81803W        W24716   8.084   2.091  26.503  0.3590  0.0796 -0.4285
81804W        W24717  24.238  27.772  21.116  0.1969  0.1529 -0.0518
81805W        W24718  25.075   6.610   0.373 -0.0805 -0.0206 -0.0141
81806W        W24719  14.798  27.834  28.821  0.0377 -0.2008 -0.0681
81807W        W24720  20.628  22.038  24.031 -0.2197  0.2009 -0.0997
81808W        W24721  21.289  29.160   8.336 -0.0201 -0.0001  0.0289
81809W        W24722   6.829  29.947  29.094 -0.4777 -0.2534 -0.0252
81810W        W24723  20.805  20.003   1.826 -0.2883 -0.0291 -0.0067
81811W        W24724  19.509  31.850  21.975  0.1349  0.2280 -0.2775
81812W        W24725  22.280  23.834  19.921 -0.3261 -0.0387 -0.0278
81813W        W24726  20.868   3.405  29.009 -0.1181 -0.1053  0.2470
81814W        W24727  19.434  25.602  22.328 -0.1615 -0.0393 -0.3028
81815W        W24728  19.233  28.113   4.087 -0.0777 -0.0469  0.3195
81816W        W24729  15.488  25.799   0.866  0.0951  0.0266 -0.0804
81817W        W24730  19.702  33.549  26.594  0.2621  0.1089  0.2689
81818W        W24731  29.200  31.411  22.260  0.3649 -0.0273 -0.0540
81819W        W24732  27.472  28.952  29.142 -0.0229  0.0710 -0.0140
81820W        W24733  15.721  31.887  28.088 -0.0342 -0.1876  0.0838
81821W        W24734  17.243  30.062  17.698 -0.0452  0.1323  0.0543
81822W        W24735  14.849  31.616  20.968 -0.0143 -0.1260  0.1524
81823W        W24736  17.474   2.043   3.231  0.0792  0.4531 -0.0082
81824W        W24737  23.256  26.449  25.936  0.0937  0.1642  0.1006
81825W        W24738  10.486  34.210   0.583 -0.2529 -0.3341  0.0460
81826W        W24739   7.912  32.058   8.940 -0.3231 -0.3327 -0.0316
81827W        W24740  10.787   1.411   0.063  0.4082  0.4111 -0.3045
81828W        W24741  21.247  28.102  22.547 -0.1663  0.0783  0.3280
81829W        W24742  19.046   9.888   5.074 -0.0029  0.1524  0.1925
81830W        W24743   9.451  29.122   6.085  0.6096  0.0472  0.0397
81831W        W24744  14.325  25.049  20.645  0.0398  0.2056  0.2070
81832W        W24745  24.604   9.034  27.047  0.0594  0.1844  0.5083
81833W        W24746  19.637  19.150  24.954 -0.3647  0.1903  0.0405
81834W        W24747  20.037  24.144  26.941 -0.3457 -0.2859  0.0876
81835W        W24748  12.860  25.413   2.768  0.1138  0.1569  0.1741
81836W        W24749   2.301  25.723  24.861 -0.3282 -0.0034 -0.2658
81837W        W24750   7.986  31.482  29.023 -0.2708 -0.0277 -0.0352
81838W        W24751  15.749   9.983   3.543 -0.1953  0.1645 -0.1519
81839W        W24752  20.758  25.415  26.355 -0.2297 -0.0360  0.2168
81840W        W24753  29.947  26.416  16.023  0.2327 -0.1581  0.1682
81841W        W24754   0.464  27.605  25.591  0.0491 -0.0750  0.0732
81842W        W24755   9.385  28.779   1.283  0.2666  0.0412 -0.3249
81843W        W24756   6.902  30.625   4.225 -0.0271 -0.0241 -0.2172
81844W        W24757  16.132  27.244  21.724 -0.2359 -0.0686  0.1777
81845W        W24758  18.364  21.466  18.942 -0.2570  0.2096  0.3922
81846W        W24759   7.101  23.734  24.100  0.0059  0.1178  0.0030
81847W        W24760   6.032  33.699  29.240  0.4528  0.1451  0.0168
81848W        W24761  14.215  27.644  25.840 -0.1921  0.2100  0.0336
81849W        W24762  18.434  31.357  28.719  0.1781 -0.0849  0.3684
81850W        W24763   6.755   4.001   9.930  0.1146  0.0135 -0.2849
81851W        W24764  14.802  27.103   2.891 -0.0406 -0.5182 -0.0109
81852W        W24765  22.392  28.008   2.308 -0.0127  0.2730 -0.3523
81853W        W24766  17.332  34.451  24.029 -0.1358  0.2013  0.0758
81854W        W24767  25.959   0.839  15.968  0.3124 -0.1441 -0.0826
81855W        W24768   9.107  23.961  27.061  0.0105  0.4416 -0.0879
81856W        W24769  15.161  21.327  26.558 -0.2497 -0.0705 -0.0536
81857W        W24770  20.063  19.641  24.157  0.0167 -0.0599  0.0470
81858W        W24771  29.808  26.105   1.623  0.0636  0.0077 -0.3266
81859W        W24772  23.236  21.639   6.906 -0.3789  0.0968  0.3263
81860W        W24773  19.435   8.207  25.980 -0.2739  0.1517  0.0806
81861W        W24774  14.858  19.480  27.979  0.1112  0.2517 -0.2621
81862W        W24775  21.812  27.925  14.983  0.3594 -0.0635 -0.1061
81863W        W24776   5.823   2.365  22.896 -0.0655  0.0193  0.1440
81864W        W24777  16.100  28.842  16.228 -0.2560 -0.4177  0.0970
81865W        W24778  11.933  27.623  26.896  0.0766  0.0246  0.1724
81866W        W24779  15.023  25.807  26.551 -0.0494 -0.3173 -0.0128
81867W        W24780  22.607  30.849   6.203 -0.0558 -0.3040  0.1533
81868W        W24781  33.855  33.898  23.369  0.0278 -0.1016 -0.2910
81869W        W24782   2.489  30.381  27.673 -0.3257  0.1868 -0.1442
81870W        W24783  18.670  19.853  26.897 -0.1630  0.2816 -0.0334
81871W        W24784   2.745  28.616   1.788 -0.2615  0.1335 -0.0067
81872W        W24785  27.919  24.230  20.741 -0.2099  0.1719  0.1362
81873W        W24786  10.343  31.854  26.873  0.1045 -0.2778  0.4283
81874W        W24787  18.620  21.055   4.601 -0.1966  0.2157 -0.2497
81875W        W24788  19.187  26.904  25.708  0.1046 -0.0893  0.0644
81876W        W24789  15.583   0.775   1.597  0.1992  0.3711 -0.1019
81877W        W24790  24.670   3.612   0.573  0.1388 -0.0830 -0.3611
81878W        W24791  18.076   5.570   3.799  0.0781 -0.1049 -0.1409
81879W        W24792  13.850  15.172  21.839  0.2702  0.0744  0.0190
81880W        W24793  21.892  33.673   1.926  0.1300  0.1988  0.1315
81881W        W24794  18.348   6.174   2.250  0.1956 -0.0674 -0.1834
81882W        W24795  25.450  31.221   0.844 -0.0947 -0.1116 -0.3670
81883W        W24796  17.948   5.314   1.623  0.0056 -0.1583 -0.0143
81884W        W24797  21.745  30.834  23.006 -0.0560  0.3496 -0.3331
81885W        W24798   2.426  32.099  23.799 -0.1828  0.1695 -0.2390
81886W        W24799  11.873  26.756  27.088 -0.1449 -0.1019 -0.1706
81887W        W24800  23.885  31.981  21.285  0.1063 -0.4776 -0.5732
81888W        W24801  25.841  25.086   0.853  0.2006  0.0138 -0.1843
81889W        W24802   5.942  28.219  24.011  0.0761 -0.0432 -0.0760
81890W        W24803  19.407  33.053  14.763 -0.0543 -0.0486  0.2855
81891W        W24804   7.660   5.027  28.481 -0.1061  0.0289 -0.0804
81892W        W24805  28.235  23.667   1.685  0.0470  0.0073  0.2206
81893W        W24806  23.954   3.835   4.811  0.3650 -0.1351  0.0151
81894W        W24807  14.610  30.878   7.884  0.0026 -0.0351  0.0388
81895W        W24808   7.136  27.361   5.496  0.1052 -0.1143  0.1342
81896W        W24809  13.941   1.176  20.586  0.3437  0.1266 -0.2391
81897W        W24810  15.259  23.541  25.689 -0.1818 -0.2357 -0.0257
81898W        W24811  14.522  29.177  28.956  0.1680  0.0990 -0.0341
81899W        W24812  12.004  25.303   6.233  0.0379 -0.2492  0.0891
81900W        W24813   9.483  26.955   6.242  0.2011 -0.1875 -0.0479
81901W        W24814  17.065  28.398  22.216  0.0096  0.0817  0.1011
81902W        W24815  20.090  21.606   2.524 -0.2040  0.0305  0.0547
81903W        W24816  20.015  22.300   1.958  0.1310  0.0945  0.0615
81904W        W24817  21.691  29.315  15.170  0.1731  0.2469 -0.2630
81905W        W24818  32.362  32.075  21.629  0.0111 -0.3462  0.1726
81906W        W24819  23.596  32.760  23.974  0.0142 -0.0939  0.3030
81907W        W24820  24.322  32.609  24.999 -0.1424  0.1181  0.1393
81908W        W24821  20.334  30.761   3.552 -0.0658 -0.0069 -0.1346
81909W        W24822   9.467  24.065   2.918 -0.0018  0.1821 -0.0137
81910W        W24823  12.000  33.413  28.473 -0.1277 -0.1177  0.0646
81911W        W24824  17.928  22.443  25.318 -0.1965 -0.2316 -0.0386
81912W        W24825  12.474  20.253  28.944  0.0611  0.0702 -0.0745
81913W        W24826  16.473  33.829   2.258  0.4324  0.3095  0.1058
81914W        W24827  20.653  25.825   2.367 -0.1665  0.1828 -0.0479
81915W        W24828  17.436   6.637  27.448  0.0789 -0.0954  0.0262
81916W        W24829  16.764  32.283   3.807  0.1145  0.3113  0.1132
81917W        W24830  23.839  24.082  15.226 -0.0330 -0.2231  0.0544
81918W        W24831  21.975   0.202   0.125 -0.0965  0.1598  0.0073
81919W        W24832  11.969  31.689  20.788  0.4517 -0.1064  0.0976
81920W        W24833  11.844  20.856   0.066 -0.3735 -0.0331 -0.2019
81921W        W24834  16.607  34.185   3.612  0.2783 -0.2277  0.2336
81922W        W24835   6.883  26.161  27.931  0.0514 -0.1912 -0.1668
81923W        W24836  14.169  22.410   1.353  0.0782  0.1687 -0.3381
81924W        W24837  16.449  31.132  21.034  0.1053  0.2015 -0.2181
81925W        W24838  29.510   0.751   0.239 -0.1100  0.0743  0.1145
81926W        W24839  14.085  32.897  25.375  0.0409 -0.3652 -0.3509
81927W        W24840  25.186  30.756   0.604 -0.1843  0.0810 -0.0062
81928W        W24841  18.197  31.742  27.423  0.0667 -0.1304 -0.0986
81929W        W24842  14.968  26.979  21.265 -0.0399  0.3368  0.1089
81930W        W24843  17.502  24.252   5.908  0.1872 -0.1142  0.0660
81931W        W24844  27.712  25.996   1.507 -0.0289  0.1300 -0.1171
81932W        W24845  18.728  30.234   0.395 -0.1055  0.2474 -0.0121
81933W        W24846  10.690  34.315  12.141 -0.1141 -0.1514  0.1048
81934W        W24847  23.875  33.653   6.088  0.0946  0.2492  0.1077
81935W        W24848  16.861  22.086  19.513 -0.0348  0.0291  0.1836
81936W        W24849  23.778  15.547   2.241  0.2537  0.2617 -0.1131
81937W        W24850  20.213  21.589  24.639  0.2012 -0.1446  0.0202
81938W        W24851   6.484  33.889   0.897 -0.1350  0.0102 -0.1860
81939W        W24852  21.818   3.980   3.910  0.3330  0.0818 -0.0903
81940W        W24853  24.816  30.291  25.047 -0.0410 -0.2171 -0.0984
81941W        W24854  18.291  33.350  16.870 -0.0047  0.3522  0.0904
81942W        W24855  32.622  33.717  18.627  0.0634  0.3066 -0.2772
81943W        W24856  16.211  31.818  22.602  0.0336 -0.1320  0.0851
81944W        W24857  21.913   5.630  15.542 -0.0180  0.0025  0.3891
81945W        W24858  17.182   3.371  18.620 -0.0037  0.1164  0.1121
81946W        W24859   2.119  25.943  21.152 -0.1454 -0.0660  0.4012
81947W        W24860  28.235   4.204  14.790  0.0428 -0.2036 -0.2298
81948W        W24861  22.994   3.865  17.225 -0.1843 -0.4452 -0.0391
81949W        W24862   4.244  30.393  22.313  0.1825  0.0541 -0.0718
81950W        W24863  16.986  29.911  16.009 -0.0225 -0.0595 -0.3810
81951W        W24864  19.368  28.888  16.380 -0.1833  0.2651 -0.0082
81952W        W24865  15.099  21.736  20.864  0.1134 -0.0411 -0.1273
81953W        W24866  25.299  25.983  20.541  0.0797  0.0172  0.0122
81954W        W24867  20.547  27.668  16.131  0.1290 -0.3689  0.1749
81955W        W24868  20.671  33.752  21.713 -0.2636 -0.2306  0.1064
81956W        W24869  23.535   5.617  21.898 -0.0114 -0.0549  0.0997
81957W        W24870   8.448  27.911  21.858 -0.2691 -0.0170 -0.0208
81958W        W24871  18.720  28.322  15.895 -0.3027 -0.0533  0.1131
81959W        W24872  19.347   3.578  18.413 -0.4327 -0.3367  0.1997
81960W        W24873  19.999  25.981  16.040  0.1734  0.0886 -0.1270
81961W        W24874  20.545  34.410  15.607  0.0876  0.1586 -0.0835
81962W        W24875  21.413  31.136  16.429 -0.1101  0.0059 -0.1356
81963W        W24876  13.776  32.613  16.048 -0.0460  0.0845 -0.2030
81964W        W24877  15.947   4.882   3.767 -0.0856 -0.0128 -0.1749
81965W        W24878  23.961   4.880  24.338 -0.1134  0.0993  0.0976
81966W        W24879  18.512  22.633  15.588  0.1426 -0.0897  0.1596
81967W        W24880  17.040  34.254  21.838  0.1037  0.1487 -0.0515
81968W        W24881  18.066   2.493  21.854  0.1723 -0.0445 -0.2201
81969W        W24882   6.610  27.690  18.894  0.1649  0.1151  0.0073
81970W        W24883   9.064   1.280  18.568 -0.3878 -0.0465 -0.2976
81971W        W24884  13.922   4.450  20.256  0.3247 -0.0565 -0.0376
81972W        W24885  18.107  30.708  17.423  0.0335  0.1602 -0.2305
81973W        W24886  22.263   0.458  22.621  0.2911  0.0129  0.2895
81974W        W24887  10.508  27.487  28.635  0.0876  0.0989 -0.0386
81975W        W24888  19.876  21.448  16.685 -0.4189 -0.2567  0.0351
81976W        W24889  16.989  27.817  17.604 -0.0718 -0.2872  0.1152
81977W        W24890  17.441  29.618  23.849 -0.2386 -0.1985  0.0600
81978W        W24891  17.446  32.363  15.656  0.2153 -0.1328 -0.1461
81979W        W24892  18.659  25.837  16.237  0.0194  0.0643 -0.1312
81980W        W24893  18.885  27.083  15.612 -0.1338 -0.1487  0.2825
81981W        W24894  23.654   2.345  19.704  0.3033  0.3505 -0.0839
81982W        W24895  10.593   0.702  26.301  0.2549  0.2198 -0.0385
81983W        W24896  17.100  31.247  17.484  0.0129  0.0986 -0.0205
81984W        W24897  14.237  34.337  18.479 -0.3452 -0.0914  0.3489
81985W        W24898  15.881   1.791  19.042  0.1759  0.2440  0.1829
81986W        W24899  19.142  31.506  25.273  0.1355 -0.2226  0.1370
81987W        W24900  19.811  30.381  14.968  0.3092  0.1447 -0.0880
81988W        W24901   8.924  32.188  18.024  0.0896  0.0063 -0.3746
81989W        W24902  17.413  31.859  25.668  0.1405  0.1163 -0.2165
81990W        W24903  12.252  27.053  16.602  0.0352  0.0200 -0.0546
81991W        W24904  16.972  33.281  17.125  0.0470  0.1771 -0.1737
81992W        W24905  19.253   7.892  23.638  0.1004 -0.1069 -0.1324
81993W        W24906   0.185  32.156  23.976 -0.0420  0.0447  0.0196
81994W        W24907  21.981   2.517  15.995 -0.0757  0.0645 -0.1295
81995W        W24908  11.663  30.392  24.605 -0.0480 -0.1643 -0.0927
81996W        W24909  17.930   6.419  19.153  0.0652  0.0247 -0.2367
81997W        W24910  19.768  27.258  21.784 -0.0212  0.0996  0.2452
81998W        W24911  28.400   0.378  17.235  0.1944  0.1653 -0.0265
81999W        W24912  25.805  29.875  22.874  0.1655 -0.2074  0.1386
82000W        W24913  16.876   6.509  15.473  0.1881  0.2069  0.0119
82001W        W24914  17.424   6.275  21.015  0.0868  0.1422  0.0539
82002W        W24915  15.897  27.125  20.705  0.2711 -0.1202  0.0166
82003W        W24916   4.646   4.069  18.329  0.1089  0.0677  0.0689
82004W        W24917  25.738   1.639  18.984 -0.1235  0.1977 -0.4341
82005W        W24918  21.378   3.749  15.255  0.0228  0.3201  0.1435
82006W        W24919  15.369  32.654  18.084  0.0639  0.1709  0.0810
82007W        W24920  15.021  33.146  26.259  0.1047  0.0025  0.2905
82008W        W24921  13.229  30.754  17.443 -0.0330  0.0460 -0.0202
82009W        W24922  25.667  19.001  13.826  0.0897 -0.1048 -0.0905
82010W        W24923  22.484   1.503  15.188  0.1208  0.2330  0.2580
82011W        W24924  20.141  23.862  16.825 -0.3088 -0.1706 -0.0461
82012W        W24925   9.113  30.574  21.197  0.2063  0.1045  0.0791
82013W        W24926   7.815   6.230  22.464 -0.2689  0.0425  0.0785
82014W        W24927  14.932  31.544  28.603  0.1312  0.0397 -0.2491
82015W        W24928  23.853   1.233  17.242 -0.1255 -0.1106  0.0122
82016W        W24929  21.582   3.152  24.280  0.1996  0.1093 -0.4696
82017W        W24930  20.302   5.278  16.853 -0.1045 -0.0128 -0.1486
82018W        W24931  19.211  30.819  25.159 -0.2040  0.0817  0.1314
82019W        W24932  33.879  21.629  22.358 -0.1134  0.4717  0.1416
82020W        W24933  12.810  31.849  19.139  0.2719 -0.2691  0.4526
82021W        W24934  11.383  30.271  15.561 -0.1596 -0.2142 -0.0303
82022W        W24935  15.716   6.478  19.663 -0.0940 -0.1774  0.0284
82023W        W24936  26.438  32.583  17.805  0.0036 -0.1012 -0.2215
82024W        W24937  17.802  33.350  18.082  0.1722 -0.2023 -0.2283
82025W        W24938  22.559  27.509  14.265 -0.1141 -0.1681  0.0994
82026W        W24939  24.085   0.492  21.881  0.1996 -0.1576 -0.2075
82027W        W24940  12.688  34.408  18.399 -0.2551 -0.1084  0.0819
82028W        W24941  26.817  19.529  19.242 -0.3115  0.2412 -0.1528
82029W        W24942  14.929  12.968  12.255 -0.2472  0.1935  0.3244
82030W        W24943  20.512  29.842  23.530 -0.0064 -0.2220  0.3725
82031W        W24944  13.985  34.122  20.752  0.1141  0.3249  0.0906
82032W        W24945  31.101  32.842  16.253  0.1731  0.1349 -0.0139
82033W        W24946  28.144   1.362  21.681 -0.1379  0.1398  0.1996
82034W        W24947  14.303  32.917  24.444 -0.1317  0.1294 -0.3317
82035W        W24948  25.054  30.170  17.148 -0.0225  0.0082  0.0164
82036W        W24949  25.991   2.481  23.685 -0.1158 -0.3672 -0.0574
82037W        W24950  23.004   1.294  15.408  0.4652  0.0536 -0.0933
82038W        W24951  27.712  24.732  13.467  0.1363 -0.5121 -0.0633
82039W        W24952  17.604   9.762  27.497 -0.1669 -0.2058 -0.0038
82040W        W24953  27.233   7.156  16.843  0.1653  0.1610  0.0306
82041W        W24954  13.973  29.825  14.986  0.3997  0.0284 -0.1263
82042W        W24955  13.644   4.914  17.311  0.0529  0.1219 -0.0432
82043W        W24956  14.476   3.101  16.087  0.2373 -0.0715  0.1790
82044W        W24957  13.102   2.915  27.088 -0.5479 -0.0749  0.0838
82045W        W24958   6.453  19.402  21.194 -0.2288 -0.2058 -0.0277
82046W        W24959  20.765   1.439  23.169  0.0215 -0.0385 -0.4259
82047W        W24960  12.232  33.503  16.596 -0.0706  0.3027  0.3427
82048W        W24961   5.228  26.831  18.542  0.1503 -0.2009 -0.0480
82049W        W24962  21.568   2.337  14.604 -0.0566 -0.3865  0.1361
82050W        W24963  19.785   3.175  19.098  0.4548  0.1052  0.3143
82051W        W24964  25.795  34.365  19.391 -0.0354  0.0078  0.1090
82052W        W24965  25.875   6.861  24.800  0.1631  0.2001 -0.0479
82053W        W24966  23.496  31.692  23.181 -0.0890 -0.1953  0.2444
82054W        W24967   6.482  32.114  19.589  0.0208 -0.0085  0.0171
82055W        W24968  24.196   2.069  19.264 -0.2905 -0.2020 -0.0839
82056W        W24969  14.874  31.978  15.988 -0.1948 -0.0728 -0.2499
82057W        W24970  24.287   4.209  21.573  0.0110 -0.0021 -0.1136
82058W        W24971  26.081  25.297  20.834 -0.0685  0.0884  0.1212
82059W        W24972  23.997  25.212  15.172 -0.0427 -0.0979  0.1795
82060W        W24973  16.443  29.401  18.948  0.1231  0.3614 -0.0607
82061W        W24974  26.435  26.907  16.210 -0.2285  0.4594  0.0708
82062W        W24975  19.307   2.983  19.362 -0.0676 -0.2637  0.4051
82063W        W24976   9.962   5.632  18.679 -0.2343  0.2148 -0.1769
82064W        W24977  19.047  26.778  15.117  0.1669  0.0389  0.0550
82065W        W24978  26.037   1.278  21.023  0.0471  0.2274 -0.2028
82066W        W24979  17.015   1.549  16.186 -0.2055 -0.1865  0.0181
82067W        W24980   3.487  30.875   9.174  0.0661  0.4242 -0.1380
82068W        W24981   8.730   0.818  25.135 -0.0616  0.0809 -0.2605
82069W        W24982  26.345   0.212  17.152  0.0373  0.1238  0.0384
82070W        W24983   9.855   3.487  24.887  0.1986 -0.1422  0.2080
82071W        W24984  15.495   5.605  23.892  0.0177  0.0522  0.0056
82072W        W24985  17.460  32.251  16.125 -0.1416 -0.4969  0.1834
82073W        W24986  17.518  28.712  25.734 -0.2185  0.0032  0.0062
82074W        W24987   9.227  33.358   2.872 -0.0025 -0.2375 -0.0344
82075W        W24988  18.458  33.411  20.808 -0.1809 -0.0967 -0.1897
82076W        W24989  17.913  33.188  25.047 -0.1055  0.1088 -0.0598
82077W        W24990   4.844  25.953  16.494  0.0084  0.0913 -0.0636
82078W        W24991   6.022  18.161  20.007 -0.0041  0.0491 -0.5577
82079W        W24992  15.556   2.494  27.204 -0.2011  0.0724 -0.2148
82080W        W24993  15.079  32.283  15.662 -0.0134  0.1781 -0.1277
82081W        W24994  19.637   2.746  16.725  0.1225  0.1143  0.0770
82082W        W24995  29.677  34.424  17.741 -0.1238 -0.0133  0.1984
82083W        W24996  21.434   3.503  16.498 -0.0792 -0.2162 -0.2408
82084W        W24997   2.622  27.320  15.953  0.1625 -0.1367 -0.2067
82085W        W24998  22.490  27.665  12.355 -0.4819  0.0080 -0.2316
82086W        W24999  24.139  32.208  19.334 -0.0500  0.3197 -0.2378
82087W        W25000  14.164   5.738  17.008 -0.1378 -0.0192 -0.1257
82088W        W25001   1.697   4.183  23.031 -0.0331 -0.0966  0.0257
82089W        W25002  11.342  32.839  23.709 -0.1966  0.1673  0.0847
82090W        W25003  16.149  33.134   7.533 -0.3557  0.0314  0.2705
82091W        W25004  26.428   1.832  14.932  0.0937  0.1058 -0.1751
82092W        W25005  18.710  27.792  22.088  0.1789 -0.2088  0.0961
82093W        W25006  21.914   2.415  20.012 -0.1116 -0.0683 -0.0113
82094W        W25007  15.046   1.531  18.101 -0.2143  0.1496 -0.1691
82095W        W25008  27.892  34.009  20.664  0.2885  0.0886 -0.3572
82096W        W25009  22.602   5.807  16.469  0.1536  0.1262  0.0151
82097W        W25010  15.047  25.633  15.817 -0.0210  0.0841  0.0308
82098W        W25011  14.918  30.633  15.813  0.0011 -0.1221 -0.3955
82099W        W25012  17.133  23.117  15.528 -0.0048 -0.1453  0.0264
82100W        W25013   9.861   3.133  24.217  0.0661 -0.1117 -0.0263
82101W        W25014  11.291  31.201  28.984 -0.1411  0.0303 -0.1469
82102W        W25015   3.346   0.396  19.495  0.0702  0.2426  0.3735
82103W        W25016  18.799  31.032  15.644  0.0630  0.3058 -0.2339
82104W        W25017  11.066  30.682  21.785 -0.2538  0.0450  0.1459
82105W        W25018  23.155   3.657  14.321  0.2791 -0.2133 -0.0930
82106W        W25019   6.744   0.292  27.824  0.0027 -0.0088 -0.0419
82107W        W25020  17.820  25.874  20.399  0.2976 -0.3932 -0.0022
82108W        W25021  18.682  31.960  15.348  0.0060  0.2322  0.2777
82109W        W25022  12.620  30.216  20.840 -0.0764  0.2242 -0.1006
82110W        W25023   7.591  27.042  15.003  0.2188  0.2456  0.1619
82111W        W25024  28.153  32.851  17.053 -0.0053 -0.0645 -0.3621
82112W        W25025  17.284  32.350  23.209  0.0197 -0.0790 -0.0819
82113W        W25026  15.044  33.878  19.893 -0.4575 -0.0143 -0.2814
82114W        W25027  18.159   2.008  15.996  0.0157  0.1952 -0.2252
82115W        W25028  23.467  32.021  17.691 -0.0091 -0.0908  0.2586
82116W        W25029  25.802  23.505  21.433 -0.3148  0.3426 -0.0447
82117W        W25030  28.669  29.739  22.623  0.2122 -0.1888  0.3090
82118W        W25031  18.097  31.510  29.075 -0.0098  0.0950 -0.4818
82119W        W25032  15.026  30.743  19.836 -0.2307  0.0301 -0.0276
82120W        W25033  34.255  23.377  14.462 -0.1695  0.4461 -0.0474
82121W        W25034  22.433  33.708  15.482  0.2596  0.1399  0.0971
82122W        W25035  22.400   2.169  26.344  0.0512  0.2760 -0.1124
82123W        W25036  16.420   2.809   0.825  0.0280  0.0445  0.1540
82124W        W25037  17.337  23.983  26.799 -0.1817  0.0871 -0.2585
82125W        W25038  16.242  34.407  24.740  0.3973 -0.2945 -0.0197
82126W        W25039  24.691  30.387  15.829 -0.2842  0.0313 -0.1666
82127W        W25040  19.629   3.735  15.557  0.1817 -0.0811 -0.0656
82128W        W25041  16.701  29.426  16.419 -0.0158  0.1110 -0.1737
82129W        W25042  21.652  31.520  13.764 -0.0820 -0.1206 -0.0904
82130W        W25043  20.204   5.251  17.370  0.3392 -0.0201 -0.3821
82131W        W25044  10.391  33.148  21.003  0.2550  0.0283 -0.2912
82132W        W25045  13.249  32.224  16.641  0.3598  0.2020 -0.0788
82133W        W25046  12.496   3.871  17.275 -0.1418  0.0092  0.0095
82134W        W25047  14.392   6.635  25.704  0.0131 -0.3668 -0.1487
82135W        W25048  16.324   6.433  22.496  0.1421  0.3395  0.0608
82136W        W25049   8.428  26.801  25.860  0.4354  0.3218 -0.3523
82137W        W25050  13.007  18.959  18.334 -0.1507  0.1772 -0.1695
82138W        W25051  24.283  11.059  19.830  0.3252  0.2860  0.1944
82139W        W25052  30.163  34.139  17.464  0.0969  0.0263 -0.2076
82140W        W25053  13.144  31.093  19.938  0.2297 -0.1572  0.1883
82141W        W25054  17.699  18.913  13.677 -0.2075  0.3121  0.0621
82142W        W25055   8.303  27.612  17.325  0.1453  0.2587 -0.1617
82143W        W25056  23.725  28.507  22.513  0.1491  0.1794 -0.1547
82144W        W25057  22.943  34.307  14.907  0.2650  0.1217 -0.1004
82145W        W25058  15.767  30.296  18.189 -0.1668 -0.1194 -0.0748
82146W        W25059   0.557  22.983  23.847 -0.0278  0.0182  0.0716
82147W        W25060  12.272  31.969  17.626  0.0053  0.0388 -0.0564
82148W        W25061  18.153   3.019  16.461  0.0923  0.3196  0.1424
82149W        W25062  21.679   7.344  14.198 -0.0065 -0.0763 -0.4018
82150W        W25063  19.145   0.192  18.902  0.0683  0.3319 -0.1169
82151W        W25064  15.419  31.248  18.561 -0.3623 -0.1159  0.1487
82152W        W25065  14.625  30.291  15.566  0.1530  0.5157  0.2610
82153W        W25066  19.238   8.683  14.396  0.2740 -0.2357  0.2297
82154W        W25067  18.530   1.737  28.677  0.3256  0.0587  0.0553
82155W        W25068  18.164   2.073  17.640 -0.2162 -0.1687  0.1016
82156W        W25069  11.788  34.254  19.100  0.0017 -0.3902 -0.1177
82157W        W25070  27.508  30.170  16.666 -0.0384 -0.0718 -0.0224
82158W        W25071  20.135  31.596  14.612 -0.2900 -0.0263  0.1297
82159W        W25072  13.207  31.938  19.373  0.1860  0.1976 -0.0046
82160W        W25073  19.124  26.236  15.705 -0.0742  0.0565  0.1407
82161W        W25074  21.823  15.975  18.905 -0.0025 -0.1871 -0.0202
82162W        W25075  13.734  23.073  19.972  0.0583 -0.1008  0.1860
82163W        W25076  22.211   3.256  27.999 -0.1358  0.1657  0.4719
82164W        W25077  23.180  24.211  27.039  0.2412 -0.1171  0.0294
82165W        W25078  23.236   0.140  24.265  0.0038 -0.1306 -0.0635
82166W        W25079  21.061  29.642  17.030 -0.4002 -0.0211 -0.0869
82167W        W25080  21.698  32.923  15.568  0.0297  0.3708  0.0414
82168W        W25081  25.966  30.276  23.786  0.0702  0.2751 -0.0361
82169W        W25082  20.480  25.548  14.131 -0.1116 -0.1242 -0.2733
82170W        W25083  13.189  21.924  13.520 -0.1001  0.3887  0.1477
82171W        W25084  26.230  33.659  16.140 -0.2282 -0.1071  0.1085
82172W        W25085  22.728  31.979  26.438  0.0592  0.0305  0.1631
82173W        W25086  19.639   2.153   1.546  0.0426  0.0657  0.0047
82174W        W25087   9.952  28.619  22.911  0.0716 -0.0130  0.3042
82175W        W25088   5.785  25.753  21.193 -0.2454 -0.0829 -0.0532
82176W        W25089  22.052  25.662  20.888 -0.1064  0.0162 -0.2378
82177W        W25090  10.408   2.700  18.329  0.1317 -0.3252 -0.0605
82178W        W25091  17.125   1.462  20.791 -0.3740  0.1153  0.4115
82179W        W25092  14.019   1.190  17.933  0.2936 -0.0715  0.0673
82180W        W25093   5.281   4.776  24.731  0.0098 -0.1446 -0.0083
82181W        W25094  19.956  29.766   1.645  0.0265  0.1527 -0.0759
82182W        W25095  28.739   4.142  20.510  0.0439 -0.0048 -0.0010
82183W        W25096  26.972  32.903  23.825  0.2854  0.1610  0.3796
82184W        W25097  15.406  31.036  17.922 -0.1466 -0.1088  0.1423
82185W        W25098  22.098  33.310  23.961  0.2565 -0.1995  0.0230
82186W        W25099  30.356  34.455  15.286  0.0575  0.0747  0.2565
82187W        W25100  26.230   1.391  25.542 -0.0162  0.0703 -0.0681
82188W        W25101  21.962  25.741  22.366 -0.3369  0.2006 -0.2357
82189W        W25102  24.505  24.040  19.905 -0.0667  0.1843  0.0043
82190W        W25103  26.058   2.107  22.019  0.1515 -0.3744  0.0750
82191W        W25104   9.490   2.622  17.286 -0.1082 -0.0499 -0.2010
82192W        W25105  17.543  29.955  19.619 -0.1224  0.1981  0.0799
82193W        W25106  10.768   4.384   0.364 -0.2312 -0.3221 -0.1970
82194W        W25107  12.955  23.520  17.301 -0.0680 -0.0603 -0.1267
82195W        W25108  20.884  28.798  19.533  0.0361  0.0864  0.0868
82196W        W25109  20.334  30.854  20.309 -0.1943 -0.1192  0.0836
82197W        W25110  19.792  33.074  20.905 -0.1489  0.1595  0.1113
82198W        W25111  23.699  33.491  20.046 -0.1403 -0.1264 -0.4280
82199W        W25112  14.519  31.726  16.506 -0.2055  0.1143 -0.1409
82200W        W25113   8.521   0.834   0.835  0.0856  0.2567  0.0286
82201W        W25114  25.202  31.753  23.299 -0.0828 -0.0482 -0.2365
82202W        W25115  17.298   3.651   0.231  0.0365  0.1006 -0.0121
82203W        W25116  18.197   0.458  28.386  0.1120  0.0013 -0.1354
82204W        W25117  20.467  28.635  15.109 -0.0840 -0.0623  0.1376
82205W        W25118  20.559  29.594  27.798  0.1937 -0.0174  0.0668
82206W        W25119   4.541  27.389  22.407 -0.3115 -0.0528 -0.2563
82207W        W25120  21.074  17.988  13.558 -0.1805  0.1122  0.0218
82208W        W25121  13.188  33.744  19.183 -0.1108  0.1724 -0.0414
82209W        W25122  20.960  21.689  23.816 -0.2951  0.0994  0.2255
82210W        W25123   7.113  30.477  16.648 -0.1094  0.1823 -0.1457
82211W        W25124  18.196  23.834  19.876  0.1235 -0.1113 -0.1847
82212W        W25125  25.126  22.219  18.158 -0.2302  0.1140  0.4569
82213W        W25126  29.852   4.893  23.774 -0.1674  0.4405 -0.1355
82214W        W25127  23.942   4.432  15.068 -0.3354 -0.0885 -0.0906
82215W        W25128  16.835   4.475  18.986 -0.2875  0.3375  0.0807
82216W        W25129  22.674  34.242  23.285  0.0972  0.0366 -0.0214
82217W        W25130  24.490   5.218  21.544  0.1409 -0.0555  0.0882
82218W        W25131  16.926  32.808  17.411 -0.1728 -0.1654  0.1608
82219W        W25132  26.021  32.082  15.461 -0.1412 -0.0923  0.1333
82220W        W25133  26.795  25.578  14.584  0.2600  0.1338  0.2328
82221W        W25134  16.680   2.303  23.837 -0.0925 -0.0700 -0.2400
82222W        W25135  19.730  31.423  23.865  0.0749  0.0137 -0.0260
82223W        W25136  26.765  30.303  20.614  0.2549 -0.0762  0.1791
82224W        W25137  16.440  14.947  14.818 -0.2149  0.0130  0.0017
82225W        W25138  15.467  25.277  18.572  0.0574  0.1672  0.1930
82226W        W25139  17.022  28.436  15.368  0.3583  0.3062  0.2109
82227W        W25140  15.479  30.774  18.902  0.1769 -0.2926 -0.1016
82228W        W25141   5.812   1.500  20.178  0.0609 -0.0091  0.1815
82229W        W25142  26.787   0.524  23.449  0.0240  0.1628 -0.0227
82230W        W25143   9.094   0.535  19.315 -0.0279 -0.1546 -0.0523
82231W        W25144  20.859   6.757  15.747 -0.2094  0.0280 -0.1761
82232W        W25145   9.908  27.119  21.106 -0.1035 -0.1938 -0.4781
82233W        W25146  14.626  34.413  16.901 -0.0639 -0.1329 -0.1978
82234W        W25147  13.313  32.041  17.931 -0.2297  0.2890 -0.1652
82235W        W25148  24.271  30.167  23.863  0.0337  0.5324 -0.1603
82236W        W25149  22.374  29.219  20.636  0.1669  0.0907  0.1188
82237W        W25150  19.285  33.604  18.629 -0.0151  0.0164 -0.2657
82238W        W25151  19.116  30.932   1.316  0.0139 -0.2326  0.1363
82239W        W25152  18.962  26.595  14.435 -0.0386  0.2580  0.2152
82240W        W25153  12.535   3.677  19.585  0.2298 -0.3858 -0.1356
82241W        W25154   6.312  29.390  18.985 -0.0032  0.0107  0.2351
82242W        W25155  17.339   0.142  17.121 -0.2014  0.4648 -0.1867
82243W        W25156   9.188   4.073  27.737 -0.1506  0.0801  0.0677
82244W        W25157  11.105  29.478  21.307 -0.0672 -0.1508  0.3657
82245W        W25158  24.416   3.157  14.629  0.1191  0.0236  0.2268
82246W        W25159   0.005   8.142  22.162  0.1396 -0.0115  0.2815
82247W        W25160  12.376   9.349  19.505 -0.0680 -0.0547 -0.1050
82248W        W25161  11.297  32.569  24.659  0.2131 -0.0519 -0.1872
82249W        W25162  26.185  23.286  17.611  0.2138 -0.3599  0.2715
82250W        W25163  16.275  26.051  19.252 -0.0249  0.3055 -0.3001
82251W        W25164  17.149  30.030  18.420  0.1359 -0.0140  0.3965
82252W        W25165  12.043  26.155  22.083 -0.1540 -0.1816 -0.0393
82253W        W25166  21.041   4.288  22.288  0.1231 -0.1675 -0.2694
82254W        W25167   9.871   4.224  18.627 -0.1942 -0.2503 -0.0191
82255W        W25168  15.537  26.370  25.678  0.0399  0.0123  0.2770
82256W        W25169  21.886  32.980  22.559 -0.2143 -0.3964 -0.2219
82257W        W25170  26.039  29.076  22.688  0.2870  0.1129  0.0065
82258W        W25171  16.227  28.599  22.024 -0.0751 -0.1404  0.0949
82259W        W25172  13.030   1.739  28.186  0.1301 -0.0794 -0.1010
82260W        W25173  12.309   3.868  17.803  0.4347  0.0074  0.0904
82261W        W25174  21.763   8.425  26.584  0.2411 -0.1517  0.0059
82262W        W25175  14.259   1.216  19.088  0.0959  0.1398  0.1439
82263W        W25176  23.163  23.780  19.675  0.2060 -0.1563  0.0007
82264W        W25177  29.421  25.275  19.643  0.4059 -0.0730  0.0507
82265W        W25178  24.461  28.675  20.646  0.1457  0.0276 -0.1848
82266W        W25179   8.513  27.972  24.711  0.0720 -0.1230 -0.1658
82267W        W25180  25.415  25.736  12.883  0.2798 -0.2874 -0.1001
82268W        W25181  13.884  33.525  19.360  0.0421 -0.1519  0.2183
82269W        W25182   7.569  28.782  19.088 -0.1526 -0.1507  0.0712
82270W        W25183  15.414  30.422  23.853  0.1403 -0.1650 -0.0002
82271W        W25184  13.527  31.402  23.979 -0.0179 -0.1236 -0.1311
82272W        W25185  13.863   3.112  27.742  0.0125  0.2727  0.0191
82273W        W25186  27.295  33.413  15.510  0.1902 -0.2169  0.3230
82274W        W25187  12.068   0.873  17.142 -0.2027 -0.1942 -0.0120
82275W        W25188  17.245  27.370  17.203  0.2603 -0.1330  0.1322
82276W        W25189  23.108  32.742  14.311 -0.1367  0.0852 -0.1309
82277W        W25190  14.481  33.792  23.081  0.1791  0.2957 -0.1441
82278W        W25191  15.985   4.891  25.112  0.1012 -0.1714 -0.3900
82279W        W25192  12.473  23.823  23.055  0.1391  0.0580 -0.5295
82280W        W25193  18.226  25.004  14.219  0.0560  0.2609  0.1266
82281W        W25194  17.952  24.156  23.997 -0.0064 -0.2074 -0.0397
82282W        W25195   8.789  25.820  23.625 -0.0856 -0.1358  0.0894
82283W        W25196  18.551   4.551  15.502  0.0461 -0.0177  0.3193
82284W        W25197  23.724  19.583  21.363  0.0612 -0.0326 -0.0968
82285W        W25198  19.360  29.723  21.646 -0.1759 -0.2515 -0.1765
82286W        W25199   6.851  34.215  26.276 -0.0965 -0.0725 -0.1128
82287W        W25200   8.641   1.004  21.217 -0.1959 -0.1854 -0.4197
82288W        W25201  18.460  24.943   0.006 -0.0492 -0.1063 -0.0407
82289W        W25202  23.162   5.890  20.988  0.3277 -0.1005 -0.0292
82290W        W25203  14.452   1.693  18.914 -0.0305  0.0213 -0.0662
82291W        W25204  25.428   2.225  21.579  0.1148 -0.3706  0.1453
82292W        W25205  34.047  32.587  15.240  0.0083 -0.3098 -0.2141
82293W        W25206  22.050  28.443  24.537  0.3542 -0.1715 -0.1325
82294W        W25207  11.414  30.395  19.800 -0.0381  0.0369  0.3394
82295W        W25208  21.303  31.115  17.896  0.0673  0.0365 -0.0814
82296W        W25209  11.404   2.599  20.897 -0.0353  0.3552  0.0883
82297W        W25210  20.315  23.740  20.499 -0.1385 -0.4586  0.0509
82298W        W25211   6.743  28.914  18.125  0.0595 -0.1039  0.2109
82299W        W25212  16.984  24.314  21.990  0.3234  0.1729  0.1239
82300W        W25213  16.582   7.288  13.917 -0.0979 -0.2073 -0.1369
82301W        W25214  29.717   0.602  16.732 -0.1092  0.0519  0.1713
82302W        W25215  12.481   0.559  21.221  0.0311  0.1346 -0.1503
82303W        W25216  23.049   0.512  13.662  0.1508 -0.3204 -0.2896
82304W        W25217  23.074  24.761  19.504  0.0035 -0.0843 -0.1084
82305W        W25218  19.519  34.488   3.969  0.0102  0.3698 -0.2225
82306W        W25219   5.787   0.596  19.511 -0.1558 -0.1296 -0.1456
82307W        W25220  22.352   4.899  24.492 -0.3157 -0.0678 -0.0187
82308W        W25221  18.981   3.947  21.642  0.0301  0.0949 -0.1580
82309W        W25222  16.781  24.550  22.941 -0.3927  0.1329  0.0534
82310W        W25223  23.771  13.099  20.880  0.0676  0.2635 -0.0533
82311W        W25224  10.589  22.069  20.424 -0.0700  0.2024 -0.1038
82312W        W25225  14.804  29.144  23.491  0.1815 -0.1995 -0.2394
82313W        W25226  14.921   2.271  17.075 -0.2127  0.2435  0.1946
82314W        W25227  23.547  34.215  28.549 -0.0664 -0.1856  0.2384
82315W        W25228  13.220  33.624  16.536  0.0260 -0.1757 -0.0862
82316W        W25229  19.154   1.256  28.191  0.2887  0.3905 -0.3162
82317W        W25230  18.110  29.837  17.997  0.1288 -0.2686 -0.0742
82318W        W25231   3.023   2.950  19.357 -0.2047  0.0918  0.3817
82319W        W25232   3.631  25.788  26.146  0.3598  0.0651  0.1328
82320W        W25233  17.403  29.651  16.007  0.1057 -0.4039 -0.2439
82321W        W25234  15.466  26.769  23.289  0.2509  0.1901  0.1851
82322W        W25235  23.725  26.803  25.031 -0.2512  0.0540  0.0660
82323W        W25236  28.342   6.346  15.930 -0.0847 -0.0988 -0.0273
82324W        W25237  24.374   4.416  23.559 -0.1632  0.2106 -0.0132
82325W        W25238  15.498  23.458  17.544  0.1137 -0.0736 -0.2246
82326W        W25239  20.131  31.192  16.180  0.0354 -0.0016 -0.1075
82327W        W25240  20.325  31.240  23.847 -0.2475 -0.0531  0.1445
82328W        W25241  19.627   3.206  16.561 -0.3642 -0.1743 -0.0753
82329W        W25242  23.768  17.671  25.369 -0.1172  0.1084 -0.0997
82330W        W25243  25.999   3.430  27.794  0.0221  0.1473  0.1765
82331W        W25244  18.983  31.558  17.765 -0.0336 -0.0473 -0.0496
82332W        W25245  23.273   5.703  15.688  0.0984  0.3088 -0.1174
82333W        W25246   9.267   4.925  24.074 -0.2624 -0.1139 -0.0680
82334W        W25247  18.736   6.805  28.761 -0.0915  0.0019 -0.1691
82335W        W25248  25.409   8.403  14.624  0.0849 -0.0309  0.6081
82336W        W25249  15.246   2.590  15.850  0.0270  0.1705  0.2572
82337W        W25250  21.179  29.527  26.799 -0.1372  0.1081 -0.1379
82338W        W25251  23.127   0.241  23.823  0.3655 -0.1413 -0.2039
82339W        W25252   9.133   2.671  26.283  0.3698 -0.1216  0.0817
82340W        W25253   7.338  29.385  25.203 -0.0704 -0.2143 -0.1131
82341W        W25254   5.982  21.900  16.268 -0.1709 -0.4701 -0.0467
82342W        W25255  17.431   9.591  25.573  0.1132  0.0213  0.0903
82343W        W25256  18.872  22.956  25.166  0.1926 -0.1248 -0.0982
82344W        W25257  17.044  29.179  18.946 -0.0402  0.1098  0.0485
82345W        W25258  17.347   3.786  15.154 -0.1194 -0.1540  0.1158
82346W        W25259  14.264  28.753   1.762 -0.3682 -0.0802  0.2389
82347W        W25260   4.639   0.347  19.328 -0.0329  0.0045 -0.3639
82348W        W25261  27.098   2.216  17.333 -0.0241  0.1066 -0.1579
82349W        W25262   4.297   2.453  27.382 -0.2090 -0.0695 -0.0503
82350W        W25263  19.572   8.758  15.597  0.2417  0.0274 -0.0209
82351W        W25264  19.301  31.101  20.413  0.3138 -0.3404  0.4264
82352W        W25265  31.162  27.246  17.052  0.2222 -0.1004 -0.1751
82353W        W25266  15.965  28.765  19.779 -0.1515  0.0379 -0.0757
82354W        W25267  11.919  33.268  18.682 -0.0325 -0.2292  0.0926
82355W        W25268  33.750  21.959  22.698  0.3574 -0.5273 -0.1112
82356W        W25269  15.786  26.383  23.124 -0.0195 -0.2833  0.0877
82357W        W25270   3.254   4.703  22.875 -0.1194 -0.1620 -0.2949
82358W        W25271   7.043   5.160  26.911  0.1632 -0.3834  0.0351
82359W        W25272  22.934  33.870  16.316  0.0731 -0.2402  0.0810
82360W        W25273   9.324   2.016  19.665  0.0938 -0.0818  0.2753
82361W        W25274  21.344   7.649  16.319  0.0161 -0.0030 -0.0673
82362W        W25275  12.993   6.785  29.197 -0.1550 -0.0178 -0.2445
82363W        W25276  26.160  27.520  13.067  0.0377  0.0442  0.0943
82364W        W25277   7.816   1.479  20.768 -0.0426 -0.0638  0.4293
82365W        W25278  22.008  28.809  13.924  0.3591  0.2513 -0.1496
82366W        W25279  20.905   1.210  15.411  0.2819 -0.0203 -0.1663
82367W        W25280   9.918  32.663  28.069  0.0992 -0.0940 -0.1262
82368W        W25281  22.869   0.474  13.193 -0.0742  0.1675 -0.1984
82369W        W25282  28.026  29.988  16.538 -0.1228  0.2479  0.0704
82370W        W25283  16.768  34.105  28.051 -0.1079  0.2130 -0.1102
82371W        W25284  12.456  10.093  18.124 -0.0073  0.0157  0.2196
82372W        W25285   9.294  29.289  16.315 -0.1250  0.0862 -0.2092
82373W        W25286   9.823   1.278  21.761  0.1109  0.0424  0.0970
82374W        W25287   9.331   3.688  19.320 -0.0354  0.2322  0.0553
82375W        W25288  21.083  18.371  26.614 -0.0933 -0.0687  0.2426
82376W        W25289  14.851   0.118  28.823 -0.1735  0.1455 -0.0383
82377W        W25290  24.708   4.792  14.136  0.1889 -0.0367  0.0048
82378W        W25291  18.713   9.447  28.235 -0.0558  0.0875  0.1149
82379W        W25292  11.386  32.101  25.296 -0.3302  0.5545 -0.1393
82380W        W25293  23.337   9.618  17.066  0.3229 -0.0909  0.0587
82381W        W25294  20.493   6.209  28.872 -0.3013 -0.0820 -0.1016
82382W        W25295  12.368   5.171  11.454  0.0085  0.0216  0.0990
82383W        W25296  10.967   5.325  19.127  0.1477 -0.0062  0.1098
82384W        W25297  19.151  23.871  22.061 -0.0557  0.2285 -0.1588
82385W        W25298  20.984  34.437   0.175  0.0273  0.3061  0.0137
82386W        W25299  18.816   2.531  23.039  0.4788  0.0736 -0.1404
82387W        W25300  10.867  32.886  26.600  0.2855  0.3961 -0.0501
82388W        W25301  15.012   1.885  27.165 -0.0723  0.0902  0.0183
82389W        W25302  11.996  34.461  22.763  0.1456 -0.2268 -0.2020
82390W        W25303  26.365   6.159  22.924 -0.3057  0.1622  0.1766
82391W        W25304  15.110  17.178  13.349 -0.1210 -0.2009 -0.4442
82392W        W25305  14.727  26.483   1.442  0.2989  0.0554 -0.3135
82393W        W25306  11.008  29.726  20.062 -0.2062 -0.4136  0.2225
82394W        W25307  17.829   0.709  15.588  0.3000 -0.2468 -0.2804
82395W        W25308  20.918  26.654   2.229 -0.2543 -0.0162  0.0751
82396W        W25309  23.757  31.748   2.201  0.1996 -0.1743 -0.0171
82397W        W25310  16.042  32.836  21.107  0.1613 -0.2668  0.0964
82398W        W25311  17.780   2.504   1.083 -0.2942  0.2301 -0.0435
82399W        W25312  16.015   2.221   3.129  0.0950  0.2543  0.0199
82400W        W25313  14.166  29.964   2.397  0.3222  0.1901  0.4508
82401W        W25314  29.752  30.523  23.308 -0.0782 -0.0445  0.2770
82402W        W25315   9.688  21.733  15.367  0.0348  0.0633  0.2405
82403W        W25316  22.153  24.088  26.741 -0.4443  0.0753 -0.0693
82404W        W25317  10.245   0.758  23.071 -0.0273 -0.0927 -0.2298
82405W        W25318   8.831  28.333   2.305  0.0396 -0.0119  0.0237
82406W        W25319  12.168   2.332   1.096  0.1385  0.4729  0.1096
82407W        W25320  13.239  24.610  25.991  0.0090 -0.1366 -0.5141
82408W        W25321  18.222  29.736  22.714  0.0194  0.2037  0.0556
82409W        W25322  23.282   0.576  28.042 -0.0758 -0.2041  0.1892
82410W        W25323  21.768   0.696  24.567 -0.1140 -0.1198 -0.3154
82411W        W25324  20.677  27.085  22.483  0.1033  0.0463  0.0580
82412W        W25325  12.874  32.892  27.304 -0.2398 -0.0042  0.0578
82413W        W25326  12.708  30.491  18.103  0.1714 -0.0318 -0.2045
82414W        W25327  16.869  25.947  25.239 -0.0323 -0.2301 -0.3395
82415W        W25328  27.426  29.574  18.823 -0.0533  0.1397 -0.0375
82416W        W25329  16.907  29.905  17.356 -0.0145  0.0213 -0.0076
82417W        W25330  17.217  27.349  27.003  0.3477 -0.4637 -0.0202
82418W        W25331   8.300  34.443  20.231 -0.0216  0.0057  0.2416
82419W        W25332  13.323  24.061  16.723  0.3452 -0.1948  0.0230
82420W        W25333  29.494   2.432  24.702 -0.0650 -0.1167  0.1075
82421W        W25334  10.999  28.239  21.289  0.2249  0.2289  0.0676
82422W        W25335  17.615  24.195  24.399  0.1000  0.0713 -0.0423
82423W        W25336   5.586   2.139  16.861  0.0536  0.2076  0.1286
82424W        W25337  19.644   4.591  25.322  0.3738 -0.1083 -0.1852
82425W        W25338  13.145   9.351  23.673 -0.0884  0.0759 -0.0647
82426W        W25339   2.289  32.739  21.989 -0.1959  0.0332  0.1363
82427W        W25340  14.718  27.391  26.228 -0.1148 -0.3203 -0.0115
82428W        W25341  18.582   8.052  24.610 -0.2206 -0.1450  0.1968
82429W        W25342  19.356  32.080  23.782  0.1846 -0.1315  0.1207
82430W        W25343  22.166   8.210  21.647  0.0334  0.1490 -0.1571
82431W        W25344  15.322  29.969  20.945 -0.5094  0.0400 -0.0919
82432W        W25345  14.017  24.628  23.183  0.1711  0.0663 -0.0905
82433W        W25346  26.693   6.921  15.984  0.0656  0.0414 -0.0214
82434W        W25347  14.930  25.128   0.287  0.0983 -0.0672  0.2551
82435W        W25348   4.444   1.639  18.063 -0.0061  0.4420  0.1117
82436W        W25349  12.389   3.718  22.395 -0.3084  0.1670 -0.0153
82437W        W25350  13.188   0.881   0.167  0.3423  0.1396  0.0984
82438W        W25351  24.744   0.762   5.830  0.0242 -0.0597  0.3098
82439W        W25352  17.048  32.466  27.023  0.2217  0.1534  0.0650
82440W        W25353  18.355   3.494  19.455 -0.0537 -0.0531 -0.0690
82441W        W25354  14.376  32.926  17.423 -0.1225  0.4233  0.2799
82442W        W25355  28.644  23.231  20.933  0.0143 -0.0088  0.0124
82443W        W25356   9.594  26.609   1.939  0.2596 -0.2582 -0.1049
82444W        W25357  14.573  26.647  16.072  0.2915 -0.2619  0.2356
82445W        W25358  16.810  25.456  24.650  0.0052  0.4350 -0.0952
82446W        W25359  21.640  33.668  15.749  0.1068 -0.2388 -0.0749
82447W        W25360  19.206   3.322  23.247 -0.2029 -0.0472  0.2656
82448W        W25361  24.475   5.463  15.656 -0.0519  0.1632 -0.0265
82449W        W25362   7.803  31.506  20.010  0.2405 -0.2487 -0.2590
82450W        W25363  17.986  28.135  14.211  0.0766 -0.2306 -0.2267
82451W        W25364  13.670   0.840  15.877  0.0935  0.0666 -0.0980
82452W        W25365  21.364  31.604   2.648 -0.2028 -0.0687 -0.0012
82453W        W25366   6.621  27.635  23.732  0.1354  0.1746 -0.2675
82454W        W25367  18.751   7.613  14.374  0.1463 -0.0124 -0.0023
82455W        W25368  17.109  33.845  28.663  0.1652  0.2155 -0.2409
82456W        W25369  18.840  28.468  21.371  0.0805 -0.0759  0.0952
82457W        W25370  31.131  13.050  21.320  0.0397 -0.0392 -0.0198
82458W        W25371  15.427   3.595   5.071 -0.0522  0.2622 -0.0059
82459W        W25372   4.872  28.294  28.519 -0.1445  0.1133 -0.0823
82460W        W25373  15.751   0.059  27.519  0.0260 -0.0413 -0.1252
82461W        W25374  13.916  28.970  25.162  0.0818 -0.0279  0.2978
82462W        W25375  11.919  31.141  19.945 -0.0913  0.1022 -0.0006
82463W        W25376   6.570   5.280  20.676 -0.0604 -0.2562  0.4336
82464W        W25377   5.519  26.560  20.220 -0.2374 -0.1163  0.1820
82465W        W25378   9.754  31.649   1.097  0.3944 -0.1216 -0.3563
82466W        W25379  31.370  31.225  16.840  0.0260  0.0903 -0.0975
82467W        W25380  25.007   5.830  20.916 -0.0325  0.0640 -0.4074
82468W        W25381  18.536  27.451  21.421 -0.2339 -0.2258 -0.1380
82469W        W25382   2.006  27.364   0.935  0.0777 -0.0219  0.0363
82470W        W25383  18.784  29.660  26.106 -0.1060  0.2298  0.3844
82471W        W25384  23.189  30.841  14.336  0.1204  0.0873 -0.1020
82472W        W25385  18.198  30.891  13.982 -0.0379 -0.0365 -0.2377
82473W        W25386  14.580  30.835  18.377  0.0525 -0.2153 -0.0321
82474W        W25387  20.066  22.337  22.270 -0.2536  0.1376 -0.1296
82475W        W25388  12.248  11.798  20.668 -0.0837 -0.2643 -0.0746
82476W        W25389  19.901   0.460  28.648  0.0648 -0.0948 -0.2039
82477W        W25390  16.576  29.376  25.166 -0.1217 -0.1860  0.0802
82478W        W25391  17.435   6.441  24.385 -0.2485  0.2267 -0.1496
82479W        W25392   8.069  29.684  25.968 -0.0059  0.2181 -0.3285
82480W        W25393  20.766  31.662  25.145  0.1818 -0.1604 -0.0674
82481W        W25394   7.302   9.115  23.312  0.2911  0.2794  0.2892
82482W        W25395  24.102   0.344  16.072  0.0178 -0.0946  0.0847
82483W        W25396  16.978  33.809  27.584  0.0661 -0.1369  0.3354
82484W        W25397  10.906   3.103  20.518  0.2750 -0.1110  0.0718
82485W        W25398  21.079   4.779  15.694  0.1217 -0.1147 -0.0309
82486W        W25399  25.050   4.055  26.609  0.0566 -0.1183 -0.1733
82487W        W25400  13.718   5.242   1.226  0.0866 -0.1095  0.0282
82488W        W25401   8.580  30.753  18.436 -0.1387 -0.0609 -0.0340
82489W        W25402  21.250  31.016  21.670  0.3192 -0.1480  0.1030
82490W        W25403  24.333  32.721  24.048 -0.1004 -0.0194  0.0650
82491W        W25404  15.846  28.252   1.463 -0.1905 -0.0142 -0.0666
82492W        W25405  13.054   0.741  18.425  0.1681  0.0330 -0.0166
82493W        W25406  20.689  32.021  24.793 -0.3264  0.0482  0.4336
82494W        W25407  24.389   0.024  20.454  0.1683 -0.0271  0.0790
82495W        W25408  25.731  11.418  16.233  0.1615 -0.2091  0.1991
82496W        W25409   5.348  26.413  19.713  0.0190  0.0739  0.0433
82497W        W25410  12.727  23.598  20.279  0.1682  0.2589 -0.1910
82498W        W25411   4.855  32.444  21.950 -0.0694  0.0455 -0.0798
82499W        W25412  18.043   3.558   3.297  0.1505  0.1205 -0.1355
82500W        W25413  14.279  24.897  26.829 -0.1765 -0.1118  0.1573
82501W        W25414  17.794  30.777  19.183  0.0618  0.0331 -0.1324
82502W        W25415  16.177  29.366  20.340 -0.1454 -0.0005  0.0210
82503W        W25416   6.551  25.980  25.516  0.0972  0.0462  0.2680
82504W        W25417  24.483   3.509  20.698  0.0821  0.1086  0.0716
82505W        W25418   8.433  29.138  18.328 -0.1342 -0.2717 -0.2470
82506W        W25419  10.689  28.040  26.683  0.1492  0.1158 -0.1130
82507W        W25420  17.000   0.917   2.169 -0.1978  0.1843 -0.1073
82508W        W25421  13.252  29.530   3.627  0.0572 -0.0726 -0.2876
82509W        W25422  17.419   3.507  22.661  0.0616  0.2070  0.0811
82510W        W25423  11.446   3.080  20.748 -0.1851 -0.0736 -0.2156
82511W        W25424  23.818   2.884  24.139 -0.1598 -0.4072  0.1003
82512W        W25425  21.341  23.195  14.848 -0.0477 -0.1624 -0.0383
82513W        W25426  24.823  31.084  17.332  0.0457  0.0255  0.2286
82514W        W25427  11.488  27.758  26.483  0.1547  0.0008  0.0108
82515W        W25428  15.810  28.443  21.259 -0.2154 -0.0728  0.0682
82516W        W25429  14.556  23.008  24.413 -0.0055 -0.0285 -0.1313
82517W        W25430  22.586  27.248  15.887 -0.1309  0.1012 -0.0036
82518W        W25431  27.261  20.940  17.362  0.0934  0.2163  0.2034
82519W        W25432  23.500   6.634   0.386 -0.0861  0.1761  0.5961
82520W        W25433   7.336   6.328  20.573 -0.1868  0.4659  0.0709
82521W        W25434  10.562  30.131  21.396  0.4933 -0.2049 -0.1385
82522W        W25435  12.969  34.402  29.123 -0.1543 -0.3380 -0.1230
82523W        W25436  15.598  27.418  26.401  0.1512 -0.2176 -0.0176
82524W        W25437  11.677   3.708  19.707  0.0778 -0.2290  0.1000
82525W        W25438  17.237   4.558  22.951  0.0148 -0.1807 -0.1252
82526W        W25439  13.497  31.135  25.498  0.2249  0.0812  0.1407
82527W        W25440   9.346  20.648  21.332 -0.0411  0.2928 -0.0397
82528W        W25441  10.551  34.176  28.860 -0.0106 -0.2729 -0.4620
82529W        W25442  22.097   2.041  20.805 -0.1711  0.2421  0.1813
82530W        W25443  12.438  26.237  20.824 -0.2336  0.2188  0.3299
82531W        W25444  24.103  18.972  19.782 -0.5601  0.3122 -0.1042
82532W        W25445  13.622  33.190  19.102  0.0303 -0.2296  0.3015
82533W        W25446  13.972   2.651  15.484  0.1439 -0.0321 -0.2465
82534W        W25447  14.022  27.136  27.318 -0.0279  0.0324 -0.0335
82535W        W25448  12.497  31.453  24.306 -0.3580 -0.1860  0.1095
82536W        W25449  12.780  26.414  21.899 -0.0538 -0.0126  0.3563
82537W        W25450  21.507  25.781  17.988 -0.2294 -0.2255  0.1342
82538W        W25451   8.845  32.674  21.139 -0.1541 -0.0414  0.0335
82539W        W25452  20.499  31.350  21.093  0.0162  0.2732 -0.3645
82540W        W25453  16.666  21.790  12.813  0.1288 -0.2042 -0.3535
82541W        W25454  25.690  29.703  24.877 -0.1313  0.0052 -0.1151
82542W        W25455  15.509  27.300  25.894  0.0484 -0.1398 -0.0415
82543W        W25456  26.327  23.937  24.807  0.0005 -0.2954 -0.0354
82544W        W25457  12.194   8.161  15.932  0.0588 -0.1245  0.0184
82545W        W25458  11.241   1.320  20.710  0.1617 -0.0838  0.1178
82546W        W25459   5.435  23.790  21.877 -0.0898  0.0704 -0.0261
82547W        W25460  15.673  23.425  19.320  0.1580 -0.0785  0.1228
82548W        W25461  10.685  32.279   3.334 -0.0812  0.1433  0.0252
82549W        W25462  15.278  19.902  26.168 -0.2217 -0.0113 -0.1452
82550W        W25463  20.589  25.784  25.133 -0.0800  0.1557  0.0414
82551W        W25464  28.403  28.141  25.106  0.1212 -0.0445  0.0306
82552W        W25465  19.840  23.802  18.700  0.1988 -0.2758 -0.0006
82553W        W25466  17.753  24.666  15.680  0.2337 -0.1667 -0.1806
82554W        W25467   6.153  32.717  22.954  0.3215  0.1661 -0.2299
82555W        W25468  19.316  33.657  20.175  0.1785 -0.5095 -0.0167
82556W        W25469  31.432  31.918  25.155 -0.0623  0.3323  0.0012
82557W        W25470  18.689   1.962  15.871 -0.0455 -0.3098  0.1660
82558W        W25471  12.548   0.304  19.774  0.0922 -0.1229  0.3601
82559W        W25472   7.461  26.230  24.201  0.0422  0.0841 -0.1029
82560W        W25473  14.785  26.493  28.234 -0.0782  0.0996  0.2412
82561W        W25474  31.054  32.247  23.140 -0.0444 -0.1197  0.1663
82562W        W25475  15.233   3.185   6.709  0.0219 -0.1365  0.0479
82563W        W25476  16.071  29.674  23.589 -0.2830 -0.1704 -0.2042
82564W        W25477   7.848  33.087  20.424 -0.2653 -0.0313  0.2220
82565W        W25478  11.619  19.296  25.281 -0.0642 -0.0276  0.3990
82566W        W25479  12.490   0.812   0.517  0.0235 -0.0572 -0.0946
82567W        W25480  20.224  33.609  16.819  0.2937  0.2005 -0.1741
82568W        W25481  12.004  33.913  27.687 -0.3706 -0.2561 -0.0676
82569W        W25482  20.430  26.794  15.080  0.2258 -0.0346 -0.0984
82570W        W25483  18.302  29.111  29.583 -0.1843  0.3949  0.0599
82571W        W25484  13.315   5.314  25.421 -0.1272  0.2069  0.1510
82572W        W25485  24.773   0.458  14.655 -0.0603  0.1019  0.2989
82573W        W25486  11.756   7.222  15.755  0.1604  0.1470 -0.0143
82574W        W25487  21.514  31.772  17.616 -0.1748 -0.2206 -0.0476
82575W        W25488  15.811  30.937   5.814 -0.2811  0.2090  0.0645
82576W        W25489  13.841  25.248  26.203 -0.0312 -0.0965 -0.0242
82577W        W25490  15.350  32.750  20.688 -0.2936  0.3483  0.0668
82578W        W25491  25.470  23.687  19.397 -0.1892  0.3077 -0.0803
82579W        W25492  10.983  29.946  17.797  0.0554 -0.1887  0.0922
82580W        W25493   9.781  28.399   9.418 -0.4013  0.0374  0.0288
82581W        W25494  18.528   1.240  24.735  0.0865 -0.1084  0.2542
82582W        W25495   8.660  22.866  24.248 -0.0631  0.2848  0.0991
82583W        W25496  11.958   7.930  18.958 -0.1134 -0.2374  0.0561
82584W        W25497  19.365  33.633  24.673 -0.1449  0.1395  0.0482
82585W        W25498  14.236  29.020  16.289  0.3642 -0.0450 -0.1622
82586W        W25499  26.566   3.327  18.197 -0.1298  0.0751  0.1584
82587W        W25500  13.191  30.873  24.637 -0.4560  0.0233 -0.1963
82588W        W25501  20.777  11.905  22.588  0.0826 -0.2302  0.3365
82589W        W25502   5.173  20.409  28.269  0.3781 -0.1747 -0.2463
82590W        W25503  13.841   2.094  27.982  0.0537 -0.0409 -0.0218
82591W        W25504  11.851   0.444  25.980  0.0901 -0.1202 -0.2737
82592W        W25505  19.123   2.934  17.408  0.4272  0.0012 -0.0324
82593W        W25506  15.413  19.719   7.834  0.1088  0.0035  0.1469
82594W        W25507  22.973  26.173  26.817 -0.0917  0.2128 -0.4307
82595W        W25508  19.076  31.696  22.045 -0.1617  0.0347  0.0938
82596W        W25509  15.593  22.707  13.765 -0.2207 -0.0184  0.0498
82597W        W25510  23.286   0.238  19.089 -0.2319 -0.3044  0.1847
82598W        W25511  12.799  10.050  21.698 -0.0554  0.1824 -0.1351
82599W        W25512  19.513  10.687  27.287  0.4543  0.3646 -0.1011
82600W        W25513  14.248   2.180  17.922  0.1476 -0.2095  0.6206
82601W        W25514  13.763  21.448   3.148  0.0697 -0.2702  0.1737
82602W        W25515  14.124   0.206  20.697 -0.3075  0.2913  0.0543
82603W        W25516  23.375  34.435   5.485 -0.3281  0.1571  0.2787
82604W        W25517  12.566  13.186   2.281  0.3452  0.0567 -0.2366
82605W        W25518   5.275  34.013   3.907 -0.2373  0.0627 -0.0933
82606W        W25519  10.929  22.607   0.494  0.0711 -0.1756  0.0107
82607W        W25520   4.614  24.220   3.238 -0.1426 -0.2118  0.0160
82608W        W25521  14.847  32.066   0.677  0.2666  0.4325 -0.3102
82609W        W25522   1.590   0.207   0.313  0.3562  0.1160 -0.1750
82610W        W25523  26.461  13.340   6.378 -0.0521 -0.0428  0.0996
82611W        W25524  22.750   4.110   7.228 -0.2163  0.0898 -0.1119
82612W        W25525  17.652   1.066  23.295 -0.3225  0.2137  0.0139
82613W        W25526  16.352  26.428   8.511 -0.0082  0.0186 -0.0381
82614W        W25527   6.893  26.492   0.442 -0.0019 -0.1855 -0.2663
82615W        W25528   8.833   4.379  27.416  0.2088 -0.0068  0.2632
82616W        W25529  16.255   1.432  26.916 -0.1639  0.0123 -0.1375
82617W        W25530  15.845  33.015   1.345 -0.0026  0.0486 -0.1047
82618W        W25531  16.314   3.513  18.079 -0.2170  0.0608  0.0803
82619W        W25532  24.091  34.448   0.550 -0.0116  0.0045  0.3476
82620W        W25533  14.560  11.187   1.805 -0.0065  0.0907 -0.1539
82621W        W25534  29.645  32.775  20.322  0.2686 -0.2857  0.1418
82622W        W25535  12.854   0.026  24.376  0.1161 -0.0927 -0.1256
82623W        W25536  13.883  20.146  14.783 -0.4357  0.0804  0.0579
82624W        W25537  21.075  25.818  26.311  0.1612 -0.2527 -0.1497
82625W        W25538  23.995  27.694  26.780 -0.0044  0.0034  0.1394
82626W        W25539  13.475   2.569   6.678  0.1638  0.2965 -0.1197
82627W        W25540  12.010   1.251  29.301 -0.0341  0.0791  0.0259
82628W        W25541  18.378  33.636   2.317 -0.0727  0.2508 -0.1374
82629W        W25542  22.257  25.051  21.255 -0.0190  0.2773  0.1986
82630W        W25543  15.248  28.144  29.618 -0.0090  0.2672  0.0141
82631W        W25544  19.016  24.856   7.475  0.2085 -0.1447 -0.0328
82632W        W25545  18.809   8.339  22.265  0.1254 -0.2800 -0.2458
82633W        W25546  14.151  29.003   1.341  0.2661 -0.2010 -0.1302
82634W        W25547  16.067  30.452  25.115 -0.2663  0.0719 -0.0986
82635W        W25548  12.166  29.862  23.466  0.0330  0.3240  0.0132
82636W        W25549  16.501   7.822   9.026  0.0900 -0.1154  0.0306
82637W        W25550  21.082  24.837  27.811 -0.1498 -0.1491  0.0245
82638W        W25551  14.090  10.050  28.859 -0.3303  0.2074  0.0401
82639W        W25552  18.169   2.158  29.458 -0.2133 -0.1358  0.1319
82640W        W25553  14.407   1.583  27.230 -0.2896 -0.1554  0.0329
82641W        W25554  18.825  31.592   6.623 -0.0303 -0.0383  0.1026
82642W        W25555   8.111  27.636   0.164  0.0500 -0.1703 -0.0926
82643W        W25556  17.640  24.135  16.567 -0.1834  0.0805  0.0979
82644W        W25557  14.188  26.823  17.825 -0.0543  0.2010  0.2628
82645W        W25558   8.273  33.367  20.269 -0.2771 -0.1237  0.4712
82646W        W25559  18.469  29.294  22.755  0.0056 -0.1528  0.2446
82647W        W25560  19.066  34.284  19.329 -0.1272  0.1121 -0.1640
82648W        W25561  16.644   2.799   2.725 -0.1506  0.0308 -0.0946
82649W        W25562  16.400  29.051   9.837  0.1326 -0.2536 -0.0030
82650W        W25563  23.980   2.307  29.665 -0.2377 -0.1264  0.1251
82651W        W25564  23.528  31.643  18.969  0.0262  0.2918 -0.3408
82652W        W25565  24.744  34.459   2.114  0.0329 -0.0112 -0.3979
82653W        W25566   9.565   9.710  19.175 -0.0013 -0.2997  0.0102
82654W        W25567  14.654  33.242   5.365  0.0247 -0.2993 -0.0150
82655W        W25568  24.537  26.448  16.586  0.1087  0.1194 -0.1220
82656W        W25569  11.230   3.820   1.234  0.1264  0.0598  0.4041
82657W        W25570  14.210  29.229  22.605  0.0082  0.3119 -0.2450
82658W        W25571  14.787  12.957  25.804  0.1778  0.1203 -0.2130
82659W        W25572  24.289   6.362  20.896 -0.0331 -0.2994  0.1593
82660W        W25573  33.161  29.505  23.926  0.1357  0.1619  0.3772
82661W        W25574  14.350   0.711  27.232  0.1696  0.0552 -0.0350
82662W        W25575   8.987  28.118  10.665  0.1197 -0.0750 -0.0077
82663W        W25576  13.254  19.018  23.555  0.1789  0.1646  0.3212
82664W        W25577   9.674  26.794   4.004  0.2504 -0.1735 -0.1259
82665W        W25578  10.849   1.290  26.318  0.1253  0.2041 -0.0285
82666W        W25579  15.619   7.986  27.448  0.0217  0.0607  0.0140
82667W        W25580  19.638  34.010  25.709  0.2378 -0.0896 -0.0789
82668W        W25581  16.119  26.154   8.941 -0.2484  0.2068  0.0001
82669W        W25582  18.551   3.799  27.516 -0.5450  0.2750  0.2914
82670W        W25583   4.754  34.412  17.991  0.2866 -0.2406 -0.0296
82671W        W25584  17.719  34.151  23.783 -0.1014  0.1293  0.1626
82672W        W25585  17.227  30.479   0.589 -0.0025 -0.1434  0.2513
82673W        W25586  16.147  32.697   3.517 -0.0658  0.0752  0.1735
82674W        W25587  20.681  32.690   1.388  0.1802 -0.1489 -0.2131
82675W        W25588   4.970   0.821   7.718 -0.1072  0.0227  0.0708
82676W        W25589  12.728   3.548   4.280 -0.0919  0.1813 -0.1416
82677W        W25590  21.442   4.615  18.975  0.1249  0.0078  0.4424
82678W        W25591  15.732  30.765  24.344  0.0314 -0.1783 -0.0161
82679W        W25592  18.678   7.223   3.832  0.0195 -0.1282 -0.1596
82680W        W25593  21.761   4.570   8.759 -0.1961  0.0703 -0.0703
82681W        W25594   6.225  22.810   0.049  0.0390 -0.2092  0.0699
82682W        W25595   0.936  26.029  23.232 -0.0129  0.2203 -0.0572
82683W        W25596  14.536   2.960  25.798 -0.2372  0.2696  0.1565
82684W        W25597  16.416  33.517  19.961 -0.0019  0.0872  0.0679
82685W        W25598  23.632   4.567   3.603  0.0411  0.0049  0.1864
82686W        W25599  22.144  32.606  29.498  0.4388 -0.0218 -0.0447
82687W        W25600  21.410  29.493  20.817  0.1012  0.1232  0.0793
82688W        W25601  29.694  29.364   2.914 -0.1176 -0.0749 -0.0704
82689W        W25602   9.607  32.024  20.857 -0.1578  0.0719  0.1259
82690W        W25603  17.433  33.838  27.271 -0.0604 -0.1855 -0.0436
82691W        W25604   9.007  26.903  21.900  0.0777  0.3174 -0.0612
82692W        W25605  11.074   7.264   3.386 -0.1749  0.0097 -0.1278
82693W        W25606  15.719  22.944  21.454 -0.1970 -0.2231 -0.1961
82694W        W25607  12.864  29.588  27.182  0.0415 -0.0117 -0.0445
82695W        W25608  20.495  23.360   0.144 -0.1019  0.1339  0.1147
82696W        W25609  22.181  27.717  24.260 -0.2742  0.0318  0.1305
82697W        W25610  15.500   4.627  10.235 -0.0707 -0.1349  0.0701
82698W        W25611  10.447  28.030   4.300  0.1099  0.1761 -0.1334
82699W        W25612  20.439  34.153  17.495  0.1855 -0.2073  0.0141
82700W        W25613   6.917  19.222  24.782  0.0163  0.1462  0.0196
82701W        W25614  16.505   8.658   6.083  0.2863 -0.3904 -0.2486
82702W        W25615  16.192  16.906  27.589 -0.3062 -0.1106  0.0280
82703W        W25616  24.706   9.902   4.058  0.0052 -0.1558  0.0486
82704W        W25617   6.592   6.134  29.000  0.0596  0.0229  0.3789
82705W        W25618   9.668   2.702   9.766 -0.2627  0.0230  0.1176
82706W        W25619  23.223  33.894  20.849 -0.2093  0.1094 -0.0047
82707W        W25620  13.453  34.071  25.236  0.0611 -0.0966  0.0576
82708W        W25621   3.846   1.735  25.316 -0.1171  0.0847 -0.0822
82709W        W25622  15.677  34.220  26.449 -0.3205  0.0400 -0.3472
82710W        W25623  21.561  33.872  22.741 -0.0296 -0.0821 -0.0624
82711W        W25624  12.969   2.574  25.519 -0.0576  0.2596  0.1799
82712W        W25625  15.398  32.440   4.819 -0.1361  0.0024  0.1171
82713W        W25626  13.354  22.826  25.849 -0.1100  0.0209 -0.4707
82714W        W25627  13.779   4.050  29.731 -0.1952 -0.2936  0.0414
82715W        W25628   8.905  31.217  25.919  0.0116  0.0476 -0.0431
82716W        W25629  27.548  30.725  27.682  0.1707  0.1488  0.1096
82717W        W25630  11.099   5.702   7.501 -0.2722  0.1249 -0.2455
82718W        W25631  16.349  25.589   2.615 -0.2071 -0.2356  0.2263
82719W        W25632  23.304   0.955  26.684  0.0980  0.2493 -0.3103
82720W        W25633  21.000   4.708  27.756 -0.0706 -0.0484 -0.0059
82721W        W25634  12.647   7.057   2.305 -0.0546 -0.1765 -0.0557
82722W        W25635  26.086  24.402   2.419 -0.2469  0.1980  0.1889
82723W        W25636  13.579  26.650   2.378  0.2170  0.0704 -0.2464
82724W        W25637  26.108  33.896   5.247 -0.1747  0.0783  0.3039
82725W        W25638  16.171   0.732  25.871 -0.3776  0.2118 -0.1775
82726W        W25639  20.510   3.774   2.386  0.0799 -0.0739  0.1689
82727W        W25640  23.255  17.845  21.413 -0.5163  0.1749 -0.2559
82728W        W25641  14.991  33.955  22.139 -0.0101 -0.1097  0.1055
82729W        W25642  22.328   0.338   2.373  0.0129  0.0936 -0.3529
82730W        W25643   2.143  31.740   1.181 -0.1620 -0.3031  0.1385
82731W        W25644  12.799   9.555  17.525  0.2427  0.1762  0.1428
82732W        W25645  11.056  28.280  27.440 -0.0621 -0.0259 -0.1942
82733W        W25646  10.922  27.449  29.641 -0.4517  0.2839  0.3203
82734W        W25647  13.564  10.765   8.092  0.0167  0.1122  0.2114
82735W        W25648   9.168   3.051  19.154 -0.0268  0.0420 -0.0284
82736W        W25649  15.034   4.831  27.881 -0.1147  0.1412  0.0038
82737W        W25650  21.358   4.431   9.738  0.1262  0.0516  0.0864
82738W        W25651  12.229  30.112   2.750 -0.0962  0.0585 -0.0578
82739W        W25652   8.042   2.386   1.831  0.2892 -0.0666  0.0592
82740W        W25653  10.838  33.715   9.023 -0.1554  0.1808  0.2436
82741W        W25654   8.110  30.197  22.178  0.0709  0.0984 -0.0356
82742W        W25655  24.944   2.473   0.824 -0.0311 -0.0386  0.0409
82743W        W25656  20.394  33.551   5.391  0.5073 -0.3341  0.2820
82744W        W25657  26.557  27.352   5.925  0.1845 -0.3450 -0.0579
82745W        W25658   5.784  29.906   1.065 -0.1298 -0.1441  0.0935
82746W        W25659  26.367  32.747  23.027  0.0824  0.2618  0.0697
82747W        W25660  12.281  32.452  18.662 -0.2526 -0.0916  0.2682
82748W        W25661  11.352  30.463  25.571  0.2647  0.0735  0.0249
82749W        W25662  15.748   2.029   3.767 -0.3019 -0.0484 -0.0027
82750W        W25663   0.828  25.571  17.991 -0.0440  0.1185  0.0912
82751W        W25664  16.883   0.473  24.781  0.0756 -0.1537  0.0110
82752W        W25665   9.712  26.108  27.641 -0.2556  0.1502 -0.2317
82753W        W25666  15.079   7.035  27.021 -0.2152  0.0571  0.1273
82754W        W25667  24.758   3.375   0.152  0.0884 -0.0831 -0.1978
82755W        W25668  12.555  28.418  25.882 -0.0796 -0.0786  0.1621
82756W        W25669  22.372  28.932   2.189 -0.1365  0.1193  0.0826
82757W        W25670  18.446  31.090  29.729 -0.4791  0.0971 -0.3302
82758W        W25671  21.256  26.749  21.615  0.1030 -0.0198  0.0465
82759W        W25672   3.651  26.249  24.639 -0.2910  0.5889 -0.0199
82760W        W25673  17.699  30.025  20.826  0.1012  0.1955  0.1449
82761W        W25674  16.719  33.400  27.721  0.6696 -0.0227 -0.1950
82762W        W25675  10.077  28.066  27.758  0.0674  0.3196  0.0821
82763W        W25676  17.504  24.966  24.554  0.0744  0.3375 -0.0445
82764W        W25677  11.655  30.257  21.955  0.1273 -0.1771  0.1240
82765W        W25678  17.608   5.292  17.938  0.1367 -0.0809 -0.2177
82766W        W25679  26.857  28.607  28.386 -0.0673 -0.0522  0.0978
82767W        W25680  14.482  30.689   3.373  0.0814  0.1203  0.1378
82768W        W25681  13.267  27.170  29.549 -0.1514 -0.0131  0.1132
82769W        W25682  18.500  29.381   4.440 -0.3244 -0.2973  0.0899
82770W        W25683  16.535   9.980   2.646 -0.0407 -0.0079  0.1271
82771W        W25684  33.326   7.787   0.881  0.1954  0.1444 -0.1514
82772W        W25685  27.144  26.948  24.990 -0.0132  0.2696 -0.0811
82773W        W25686  19.925  31.966   1.021 -0.4798 -0.2000 -0.0151
82774W        W25687  20.270   0.750  15.363 -0.0025 -0.4672 -0.0800
82775W        W25688  22.993  26.051  20.765  0.0467 -0.0864  0.2487
82776W        W25689  19.030  31.647  14.013 -0.1011 -0.1650  0.1026
82777W        W25690  17.205   1.877  19.374 -0.0573  0.1676 -0.1030
82778W        W25691  21.386  27.569  23.975 -0.0453  0.0816 -0.2633
82779W        W25692  12.583   3.201   5.113 -0.1666 -0.1689 -0.0612
82780W        W25693  23.077   4.690  25.397 -0.0333  0.1631 -0.2504
82781W        W25694  22.580   2.940  18.709  0.1613 -0.1434 -0.0168
82782W        W25695  28.087  29.069   8.650 -0.0183  0.0734  0.0805
82783W        W25696  16.888  32.062  24.085 -0.1475  0.2718 -0.1435
82784W        W25697  13.723   2.593  27.902 -0.0665  0.2207  0.0162
82785W        W25698  17.128  29.745   4.206  0.0847 -0.0284 -0.2908
82786W        W25699   8.343  27.485  23.084 -0.3004  0.1136 -0.0905
82787W        W25700  14.594  30.519  20.858  0.1968 -0.0586  0.1993
82788W        W25701  15.186   7.752  27.661 -0.0213  0.0747 -0.2044
82789W        W25702  13.406  21.081  28.886  0.0010 -0.0063  0.0485
82790W        W25703  10.501   8.045  28.889 -0.0101  0.1560  0.1543
82791W        W25704  19.422  23.439  17.899 -0.0193  0.0559  0.0994
82792W        W25705  11.940  27.924  23.785  0.1782 -0.0597  0.0037
82793W        W25706  17.471  29.425   1.768  0.0873  0.1471 -0.2096
82794W        W25707  11.364  24.826  24.723 -0.0893 -0.2109 -0.0219
82795W        W25708  14.031  33.109   1.963  0.0372  0.2133  0.1057
82796W        W25709  14.702  10.265  29.413 -0.0567  0.3342 -0.0163
82797W        W25710   4.204   4.436   6.645 -0.3438 -0.0148 -0.3821
82798W        W25711  27.275   2.653  14.361 -0.2082  0.4324  0.0162
82799W        W25712  17.599  12.949   2.933 -0.1184  0.2493  0.2164
82800W        W25713  18.236   8.261   5.138 -0.0699 -0.1353  0.0582
82801W        W25714  20.218  24.255   5.133 -0.0108  0.0692 -0.2999
82802W        W25715  29.972  29.237  16.464 -0.0124 -0.0683 -0.0159
82803W        W25716  14.380  26.070   1.629 -0.0218 -0.1430 -0.0215
82804W        W25717  16.562  33.780  24.061 -0.2913 -0.0862  0.1454
82805W        W25718  12.348  29.178  24.862  0.5063  0.1494  0.2940
82806W        W25719  17.982   3.976   7.063 -0.4946 -0.1645 -0.2910
82807W        W25720  18.554   2.180  28.888 -0.3210 -0.1426 -0.0441
82808W        W25721  10.666  29.625   1.886 -0.0034  0.0478 -0.2237
82809W        W25722   7.585   1.739  19.540 -0.2618  0.0032 -0.0892
82810W        W25723  16.771  34.470   2.284  0.2405  0.1266 -0.1512
82811W        W25724  16.529   1.575   1.436 -0.2412  0.2405 -0.0289
82812W        W25725  28.118   2.683   5.922  0.0368  0.4396  0.1475
82813W        W25726  22.240   5.443   3.902  0.0166 -0.3078  0.0854
82814W        W25727  17.509  31.030  15.719  0.0599  0.2322  0.0840
82815W        W25728  13.716  30.224  26.589  0.0762 -0.0045  0.0056
82816W        W25729  13.886  24.757  20.661  0.2525  0.0093  0.1244
82817W        W25730  11.253  31.666  28.645 -0.0305 -0.3010  0.1834
82818W        W25731  15.598  23.662  27.723 -0.2762 -0.2322  0.0876
82819W        W25732  15.670   1.324   1.438 -0.1994  0.3515  0.2557
82820W        W25733   9.162  22.899  20.384  0.2917 -0.1819  0.2552
82821W        W25734  12.741  26.093   0.756  0.0139  0.0453  0.0128
82822W        W25735  10.596   2.001   0.181 -0.4831  0.0400 -0.1818
82823W        W25736  13.314  23.833   6.550 -0.0940 -0.0588 -0.1216
82824W        W25737  17.625   0.865   0.355  0.0153 -0.2369 -0.2152
82825W        W25738  14.015   2.484  28.286  0.0050 -0.0016 -0.1381
82826W        W25739   7.347   0.068  26.219 -0.1414  0.0175  0.1288
82827W        W25740   8.826  27.944  21.462 -0.1525  0.1391  0.0251
82828W        W25741  15.836  27.614  23.085 -0.0205  0.0800 -0.1153
82829W        W25742  17.255  33.796  26.608 -0.0216 -0.0662 -0.2795
82830W        W25743  24.237   0.685  29.654 -0.0690  0.0260 -0.0876
82831W        W25744  17.727  10.823  22.257 -0.0097 -0.1294 -0.2854
82832W        W25745   9.248   3.964  26.349 -0.0671  0.0060  0.1024
82833W        W25746  14.490   6.154  29.257 -0.0119  0.0135 -0.1621
82834W        W25747  23.134  31.326   2.476  0.0580 -0.1091  0.3335
82835W        W25748   8.057  26.014  25.578  0.3548 -0.3882  0.0123
82836W        W25749   8.821   2.128   2.155 -0.2846  0.0891 -0.0293
82837W        W25750   4.220  30.992   5.310 -0.0091  0.0721 -0.1510
82838W        W25751  28.979  22.421  15.401  0.0456 -0.0434  0.0494
82839W        W25752   9.984  31.591  28.628  0.5563 -0.0156 -0.0182
82840W        W25753  15.654  32.324   0.407  0.0023 -0.1638  0.1777
82841W        W25754  17.835  33.973   7.237  0.0677 -0.3273 -0.0660
82842W        W25755  19.193   6.533   5.911  0.2165  0.1510 -0.1459
82843W        W25756  23.018  27.287  25.823 -0.2026 -0.1454 -0.3866
82844W        W25757  21.611   7.442  25.677  0.1522 -0.0898 -0.0117
82845W        W25758  26.443   2.547  21.056  0.2838  0.3154 -0.0414
82846W        W25759  25.729   1.555  23.248 -0.3984  0.0928 -0.2055
82847W        W25760  30.136  12.542  23.048  0.1219  0.1383  0.1148
82848W        W25761  30.625  34.151  19.958 -0.2527 -0.0195 -0.2022
82849W        W25762  21.133   5.378  25.353  0.2171  0.0407  0.0469
82850W        W25763  30.066  34.333  18.924 -0.0225  0.2424  0.2133
82851W        W25764  28.247  32.728  20.119  0.0225  0.0757 -0.0428
82852W        W25765  20.207  12.109  13.765  0.2520 -0.0033 -0.0449
82853W        W25766  24.771   5.370  14.473  0.1588 -0.1413 -0.0682
82854W        W25767  17.688   7.420  15.285  0.0273 -0.1024  0.3027
82855W        W25768  32.437  31.371  25.091 -0.1207  0.1320  0.2752
82856W        W25769  24.007  15.373  13.844 -0.0376 -0.1848  0.3428
82857W        W25770  25.750   1.430  15.401  0.0742  0.2700  0.1810
82858W        W25771  33.813  29.799  28.278 -0.0665  0.2596 -0.0034
82859W        W25772  19.190   2.043  20.374  0.1291 -0.1096 -0.0827
82860W        W25773  26.209   3.270  19.507 -0.0735  0.0932  0.0049
82861W        W25774  28.343  20.151  18.573  0.3036 -0.0843  0.0331
82862W        W25775  16.679  34.309  23.897  0.0743  0.2064 -0.0985
82863W        W25776  29.380  34.027   1.378  0.2082 -0.1294  0.0404
82864W        W25777  28.500   0.157  20.188 -0.1082  0.2464 -0.2148
82865W        W25778  17.588   4.041  14.074  0.2763  0.0979  0.1992
82866W        W25779   1.767  26.356  17.604 -0.0159  0.1690 -0.0137
82867W        W25780  17.873  31.213  22.474  0.0053  0.0065  0.0317
82868W        W25781  15.142   1.206  16.092  0.0129  0.1367  0.1643
82869W        W25782  21.941   3.226  14.679 -0.0282 -0.1819  0.0512
82870W        W25783  11.068   5.800  18.483 -0.0469  0.1540  0.0811
82871W        W25784  27.869   5.142  25.108 -0.1708 -0.1570  0.0359
82872W        W25785  33.482  28.026  13.812  0.1421 -0.3158  0.1612
82873W        W25786  18.935   2.409  15.322 -0.1672  0.0381  0.3250
82874W        W25787  18.831   2.016   3.894 -0.1431  0.0576  0.3327
82875W        W25788  22.959   1.555  16.778  0.0157  0.2599 -0.0461
82876W        W25789  20.510  27.910  17.502  0.0154 -0.0618 -0.1995
82877W        W25790  21.423   9.427  20.540 -0.0866 -0.1503  0.1955
82878W        W25791  30.844   6.555  22.174 -0.0122 -0.1566  0.2065
82879W        W25792  28.007   6.245  16.270 -0.3303 -0.0931  0.1976
82880W        W25793  23.925   1.821  20.088  0.4414  0.0142 -0.1115
82881W        W25794  19.499   6.311  16.373  0.2718  0.0900  0.1692
82882W        W25795  18.401   4.477  16.940  0.2298  0.0642 -0.0466
82883W        W25796  26.027   9.389  19.972  0.2534  0.3291  0.1744
82884W        W25797   6.910  33.782   1.635 -0.1243 -0.1543  0.3726
82885W        W25798  19.266  32.359  16.067 -0.3721 -0.1352 -0.1220
82886W        W25799  20.648   9.011  14.307  0.0760 -0.2618 -0.1513
82887W        W25800  30.899   5.305  18.139 -0.0195  0.0102 -0.0897
82888W        W25801   6.838  32.977  20.149 -0.0030  0.0018  0.0276
82889W        W25802  24.482   0.077  20.990 -0.1304 -0.2754 -0.3426
82890W        W25803  27.187  31.472  20.467  0.0033  0.3699  0.2020
82891W        W25804  28.426  26.614  24.954 -0.1938  0.2056  0.0025
82892W        W25805  15.146  29.575  21.260  0.0389  0.0050 -0.1085
82893W        W25806  20.149  33.713  26.756  0.1435  0.0580 -0.5029
82894W        W25807  20.901  28.138  17.761 -0.4723  0.2489  0.1242
82895W        W25808  28.312  28.915  22.720 -0.0990  0.0449 -0.1988
82896W        W25809  22.953   1.745  22.189  0.2167  0.0953 -0.0172
82897W        W25810  17.725   8.409  16.074  0.1229  0.0023  0.1991
82898W        W25811  18.749  32.416  22.869  0.1716  0.1221 -0.4824
82899W        W25812  31.657  30.319  20.287 -0.0151  0.0416  0.0411
82900W        W25813  11.676   1.327  21.250 -0.1538  0.0359  0.2794
82901W        W25814  17.724   6.766  18.202 -0.0579  0.0197 -0.5571
82902W        W25815  12.114   5.490  18.468  0.1787  0.1019  0.1992
82903W        W25816  21.304   4.174  26.455  0.0066 -0.0167 -0.2387
82904W        W25817  14.428  12.363  15.385 -0.0447 -0.0039  0.1379
82905W        W25818  10.701  28.454  22.100 -0.1193 -0.0412  0.2513
82906W        W25819  23.110  30.729  16.904 -0.2162 -0.1821 -0.2469
82907W        W25820  22.123   9.048  18.183  0.0709  0.1249 -0.0851
82908W        W25821  20.700  30.774  22.545 -0.2111 -0.0499 -0.2199
82909W        W25822  22.798  13.951  20.765 -0.0549  0.0245  0.0602
82910W        W25823  10.343  10.108  19.077  0.3084 -0.0268  0.0182
82911W        W25824  23.068   0.056  17.285 -0.0099  0.3093  0.0396
82912W        W25825  12.836   2.227  21.028 -0.1796  0.0880 -0.2315
82913W        W25826  30.435   1.223  18.351  0.0944 -0.0946 -0.1148
82914W        W25827  19.919   2.232  23.604  0.1012  0.1516 -0.1711
82915W        W25828   2.750   4.545  20.698 -0.1108  0.1210  0.2169
82916W        W25829  20.709   0.758  17.506  0.3195 -0.0808  0.0000
82917W        W25830  22.532  29.260  13.813 -0.3959  0.0302 -0.1178
82918W        W25831  10.275   3.357  20.066  0.5260  0.3304  0.0831
82919W        W25832  20.032  28.396  22.117 -0.1021  0.0175 -0.0668
82920W        W25833  12.603   6.976  16.899 -0.0853 -0.1028 -0.0855
82921W        W25834  22.391  31.376  22.218 -0.1883 -0.3243 -0.1736
82922W        W25835  19.298  29.448  23.835 -0.1058  0.0037  0.0811
82923W        W25836  18.882  23.282  21.620 -0.4410 -0.0989 -0.0102
82924W        W25837   6.821   1.363  20.087 -0.5586  0.1751  0.2362
82925W        W25838  10.551   3.202  17.313  0.1885  0.2206  0.2572
82926W        W25839  23.660   7.374  21.011  0.0103 -0.0830  0.0671
82927W        W25840  14.058  34.344  16.177 -0.0587  0.1649 -0.0487
82928W        W25841  22.946  32.863  22.009 -0.0503 -0.1646  0.0685
82929W        W25842  29.155   1.812  19.773 -0.1365  0.1545  0.0919
82930W        W25843  27.110   0.904  14.502  0.1079  0.2322 -0.1386
82931W        W25844  21.619  26.177  15.824 -0.1609 -0.1767  0.0147
82932W        W25845  23.665   5.021  16.178  0.2823  0.1722  0.0960
82933W        W25846  25.694  33.133  15.040 -0.0169 -0.0050 -0.2139
82934W        W25847  23.867   0.709  17.835 -0.1168  0.1127  0.0898
82935W        W25848  19.755  34.011  20.407  0.1240 -0.1813 -0.2868
82936W        W25849  11.071  31.834  21.891 -0.2415 -0.0386  0.0742
82937W        W25850  27.130  31.371  14.151  0.0703 -0.1270 -0.1023
82938W        W25851  18.916  33.015  21.697  0.0395 -0.0452 -0.1209
82939W        W25852  19.627  29.445  16.795  0.1322  0.1441 -0.3143
82940W        W25853  16.999   5.782  16.131  0.2407  0.1100  0.4159
82941W        W25854  21.913  32.709  14.527 -0.0718  0.3468  0.0862
82942W        W25855  32.897  33.496  15.976 -0.0463  0.0388  0.1093
82943W        W25856  21.491   7.355  13.607 -0.0188 -0.2605 -0.2938
82944W        W25857  23.868   6.353  20.600  0.0164 -0.0561  0.0902
82945W        W25858  29.503   3.295  24.593  0.0356 -0.1983  0.1366
82946W        W25859  21.762  14.611  15.698 -0.2086  0.1090  0.1392
82947W        W25860  29.241   0.724  25.699 -0.0659  0.3787 -0.2514
82948W        W25861  20.767  33.488  13.822  0.0723  0.0904 -0.0345
82949W        W25862  14.852  21.630  17.689 -0.2762 -0.1112  0.0036
82950W        W25863  33.971   1.780  22.915 -0.1331 -0.1063  0.0516
82951W        W25864  26.796   7.736  22.040 -0.0651 -0.0369  0.3023
82952W        W25865  24.955  11.551  14.780 -0.0123  0.1441  0.2827
82953W        W25866  29.204  31.781  23.245 -0.1775 -0.0462 -0.2557
82954W        W25867  19.335   3.245  20.441 -0.3185 -0.1936  0.0307
82955W        W25868  25.237   1.140  20.075 -0.0668 -0.0152 -0.1626
82956W        W25869  21.547  33.477  22.081 -0.2962  0.2501 -0.1773
82957W        W25870  29.352   0.234  21.446 -0.1267 -0.0551 -0.0002
82958W        W25871  22.149   6.100  14.729  0.1508  0.2877 -0.2649
82959W        W25872  21.392   3.299  14.506 -0.1114 -0.0108 -0.0160
82960W        W25873  21.224   0.858  17.302 -0.0807 -0.0331  0.1531
82961W        W25874  24.958   1.415  22.660 -0.2045 -0.1574 -0.0238
82962W        W25875  27.263  33.859  18.414  0.1975 -0.0712 -0.1245
82963W        W25876  19.866  28.099  14.516  0.1797  0.1148  0.2404
82964W        W25877  14.741   7.598  17.408  0.2641 -0.5043 -0.1165
82965W        W25878  26.255  10.119  20.835 -0.0814 -0.1188  0.2005
82966W        W25879  19.574   2.602  19.341  0.0882 -0.0261  0.1042
82967W        W25880   2.134  31.542  18.770  0.0283 -0.1526  0.2528
82968W        W25881  15.551  30.852  16.425  0.2468  0.2020 -0.1093
82969W        W25882  24.635  31.678  19.712 -0.3237 -0.2341  0.0728
82970W        W25883  18.215   4.806  20.776  0.1055  0.1015  0.0877
82971W        W25884  25.958  13.094  14.725  0.1935 -0.3640  0.0981
82972W        W25885  19.500  28.589  13.892 -0.1647  0.0290 -0.0102
82973W        W25886  21.171   4.308  19.836  0.0008  0.3505 -0.2995
82974W        W25887  19.323  28.280  22.251  0.1209  0.4816  0.2913
82975W        W25888  26.032   5.921  14.994 -0.0503 -0.2347 -0.0517
82976W        W25889  28.205  12.515  14.012 -0.2368 -0.0266  0.4422
82977W        W25890  28.038   1.399   1.758  0.3211 -0.0743 -0.0142
82978W        W25891  25.122  33.309  19.920 -0.0694  0.0249  0.3140
82979W        W25892  10.494  13.084  17.641  0.0693 -0.1409  0.1484
82980W        W25893  19.979  31.134  20.808  0.1524 -0.0402  0.1665
82981W        W25894  15.450   6.430  23.266 -0.1300 -0.4390 -0.0682
82982W        W25895  23.137  27.628  26.667 -0.1270 -0.5855  0.3537
82983W        W25896  19.998   0.975  14.018  0.0795  0.1421  0.2897
82984W        W25897  31.739   5.937  21.458  0.1684  0.1390  0.1018
82985W        W25898  30.562   8.156  21.277  0.1166  0.0127 -0.0389
82986W        W25899  25.897   6.178  20.890  0.1233 -0.2467  0.0313
82987W        W25900  17.963  32.856  17.934  0.1143  0.1910 -0.2895
82988W        W25901  24.557   2.230  22.510 -0.2790 -0.0566  0.0837
82989W        W25902  29.729  25.392  14.718  0.2164  0.0520 -0.4307
82990W        W25903  11.804   7.318  24.568  0.2225 -0.3514  0.0681
82991W        W25904   0.492  26.941  13.827  0.3227 -0.2096  0.1261
82992W        W25905  23.892   5.249  15.831  0.0375 -0.1643 -0.3007
82993W        W25906  24.640  34.100  19.213 -0.0858 -0.3493 -0.0153
82994W        W25907  22.632   3.070  17.373  0.2543  0.1002  0.2610
82995W        W25908  31.212  23.246  20.940 -0.0927 -0.1237 -0.3138
82996W        W25909  29.128   3.147  24.925  0.0165 -0.1432 -0.3123
82997W        W25910  29.660   6.774  23.229 -0.0909 -0.0851  0.0179
82998W        W25911  21.864  34.274  22.573  0.0240 -0.1041  0.1013
82999W        W25912  12.591   3.772  18.261  0.2046  0.0208  0.3798
83000W        W25913  27.779   3.785  14.852 -0.0946  0.1857  0.1897
83001W        W25914  22.889   4.767  19.534  0.0904  0.0336 -0.0503
83002W        W25915  23.651   3.591  16.070  0.1151 -0.1080 -0.2491
83003W        W25916  24.228  31.882  21.646 -0.0531  0.0278  0.0768
83004W        W25917  27.707  31.297  18.725 -0.1450  0.2695 -0.1217
83005W        W25918  14.389   2.730  17.936  0.1061  0.1239  0.0438
83006W        W25919  19.774   5.589  16.574  0.1246  0.1576  0.0057
83007W        W25920  27.818   1.757  23.011  0.1147  0.0297  0.2148
83008W        W25921  18.993  31.551  20.233  0.1350  0.1215  0.1730
83009W        W25922  30.589  32.552  20.786 -0.0691  0.4223  0.0691
83010W        W25923  13.145  12.882  14.918 -0.0100 -0.2136  0.3087
83011W        W25924  28.833   2.550  19.416  0.4014 -0.1849  0.1151
83012W        W25925  16.852  33.554  17.553 -0.0844  0.1112 -0.1299
83013W        W25926  19.083   6.118  20.209 -0.2921  0.0400 -0.0798
83014W        W25927  18.547   2.280  17.234  0.0314 -0.2433  0.0107
83015W        W25928  29.133   2.775  25.591  0.0474  0.0279  0.2226
83016W        W25929  26.276   3.592  23.044 -0.1405  0.0005 -0.0048
83017W        W25930  14.975  12.149   0.966 -0.1535 -0.1844 -0.2306
83018W        W25931  30.276  32.116  22.613  0.0497  0.1956 -0.0642
83019W        W25932  20.481  26.183  16.034 -0.0746  0.0209 -0.0158
83020W        W25933  13.206  26.733  29.225 -0.2159 -0.2818 -0.3309
83021W        W25934   9.471   3.247  17.595 -0.1981 -0.1338 -0.0243
83022W        W25935  21.025   1.859  16.874  0.0469  0.0164 -0.2996
83023W        W25936  19.174   6.424  26.639  0.1120 -0.2053 -0.0159
83024W        W25937  23.211  26.408  17.205  0.0516  0.1504 -0.2114
83025W        W25938  16.401  34.343  15.233 -0.0779  0.0585 -0.1789
83026W        W25939   2.123   3.075  17.278 -0.1984  0.0872 -0.1302
83027W        W25940  19.974   7.884  18.870  0.1320  0.1284  0.0083
83028W        W25941  15.740  33.971  23.175 -0.0500  0.2905  0.0930
83029W        W25942  18.006   5.302  15.882 -0.1417  0.0356 -0.0486
83030W        W25943  25.171  15.095  15.306 -0.2858 -0.0469 -0.1073
83031W        W25944  18.730  34.200  18.324  0.2792 -0.0708  0.2242
83032W        W25945  27.354   7.028  17.885  0.2347  0.0504 -0.2162
83033W        W25946  23.908  29.591  16.654 -0.3699  0.3328  0.3192
83034W        W25947  20.988   1.652  16.237  0.0958 -0.0169  0.0151
83035W        W25948   8.424  28.742   0.949  0.0525  0.0144  0.0190
83036W        W25949  30.938  31.843  20.042  0.2634  0.0617 -0.1828
83037W        W25950   2.169   2.348  16.939 -0.4033  0.2173  0.2052
83038W        W25951  26.150   7.553  23.249  0.1147  0.0436  0.0921
83039W        W25952  25.520   2.238   3.236 -0.4359  0.1500 -0.0199
83040W        W25953  21.630   5.323  19.606  0.0008  0.1387 -0.0819
83041W        W25954  19.553   1.190  19.435  0.0799  0.0108  0.1460
83042W        W25955  23.517   0.725  15.600 -0.1302 -0.0435 -0.0436
83043W        W25956  19.467  26.903  24.285  0.2675 -0.0236  0.1292
83044W        W25957  16.088  11.941  14.721 -0.1589  0.0752  0.0364
83045W        W25958  23.458  23.371  20.531 -0.0604 -0.0347  0.2295
83046W        W25959   8.353   0.296  18.960  0.0710 -0.4432 -0.2198
83047W        W25960  22.881   2.641  23.843  0.2157  0.2276  0.0161
83048W        W25961  18.751   2.784  14.681  0.0326  0.0771 -0.2852
83049W        W25962  24.931  32.213  22.388 -0.1173 -0.1142 -0.0216
83050W        W25963  24.603   8.141  13.607  0.2425  0.1341 -0.0768
83051W        W25964  26.949   9.142  22.299 -0.2452 -0.1368  0.4337
83052W        W25965  23.394   9.230  18.825 -0.2861 -0.1539  0.0583
83053W        W25966   6.333   7.532  22.686  0.3031  0.3120  0.1349
83054W        W25967  25.721  17.976  16.567 -0.3811 -0.1839  0.3245
83055W        W25968  10.789   3.020  18.354  0.0742 -0.4401 -0.1671
83056W        W25969   7.597  11.091  24.608 -0.3027  0.0698  0.0516
83057W        W25970  24.009  32.879  20.836  0.0226 -0.0479 -0.1032
83058W        W25971  17.873   1.681  14.519  0.1162 -0.2000 -0.1399
83059W        W25972  23.601  13.178  17.054  0.1138 -0.3022  0.1377
83060W        W25973  20.876  32.860  20.994 -0.0390 -0.1866 -0.2698
83061W        W25974  27.992  25.916  13.344  0.2394  0.0014  0.0525
83062W        W25975  29.460   0.112  16.668  0.1144 -0.0978  0.0389
83063W        W25976  12.609  29.885   6.722  0.2098  0.2355 -0.5973
83064W        W25977  24.893   6.706  18.944  0.0911  0.1012  0.3625
83065W        W25978  25.008  29.055  20.747 -0.0254  0.2578  0.2640
83066W        W25979  18.981   3.373  22.142 -0.0062  0.0355 -0.0251
83067W        W25980  25.925   7.803  28.157 -0.0563 -0.0618  0.4448
83068W        W25981  23.533   5.302  19.131  0.1175  0.2022  0.0535
83069W        W25982   0.282  32.253  15.811 -0.0876  0.0517  0.0654
83070W        W25983  22.652   6.527  17.618 -0.0467 -0.0620  0.0687
83071W        W25984  14.288   5.886  25.662 -0.1232  0.0325  0.2207
83072W        W25985  27.031  30.680  17.776  0.1755 -0.0385 -0.1051
83073W        W25986  22.190   4.205  16.245 -0.0891 -0.3172  0.0083
83074W        W25987  18.390  33.225  21.534 -0.1417 -0.0176 -0.0162
83075W        W25988  20.600   7.539  13.967  0.1504 -0.0996 -0.0346
83076W        W25989  14.508  32.420  22.281 -0.0195 -0.2087 -0.0888
83077W        W25990  26.995  32.456  21.059  0.2194 -0.0684  0.2973
83078W        W25991  27.710   1.309  14.799 -0.0675 -0.2108  0.0620
83079W        W25992  16.340   0.092  19.567  0.2831 -0.2462 -0.1278
83080W        W25993  23.695  33.531  22.012  0.0515  0.0146  0.1856
83081W        W25994  25.003  27.765  19.863  0.0363  0.1018  0.0009
83082W        W25995  25.699   0.950  21.215  0.2212  0.2436 -0.0066
83083W        W25996  29.332   4.640  21.044  0.1702  0.0720 -0.0390
83084W        W25997  23.700  32.902  15.769  0.1008  0.0006 -0.0280
83085W        W25998  26.006   2.215  25.546 -0.0917 -0.0777  0.2603
83086W        W25999  25.931  27.931  20.528  0.1021  0.0481 -0.1606
83087W        W26000  22.941   2.699  19.363 -0.0617  0.0979  0.1213
83088W        W26001  21.849  30.790  15.227  0.0490  0.3622 -0.2138
83089W        W26002  29.237   6.073  19.760 -0.0114 -0.3432 -0.0351
83090W        W26003  17.151  30.814  27.495 -0.0842 -0.0518 -0.1086
83091W        W26004  18.179  30.454  19.138  0.0544  0.1421 -0.2558
83092W        W26005  18.873   3.533  19.789  0.2468 -0.0691  0.1341
83093W        W26006  27.864   2.109  22.033 -0.1155  0.0879 -0.1999
83094W        W26007  21.677  32.918  25.522  0.0819  0.0202 -0.3813
83095W        W26008  32.745  10.738  15.649  0.0749  0.1127 -0.0321
83096W        W26009  27.298  31.716  20.068  0.3518 -0.0744 -0.2495
83097W        W26010  17.727  33.232  16.870 -0.0586 -0.1815 -0.1140
83098W        W26011  16.939   1.513  18.154 -0.0968 -0.2294  0.2050
83099W        W26012  30.137   9.984  22.414  0.0549  0.0763 -0.1169
83100W        W26013  24.794  31.367  21.153 -0.1286 -0.0313 -0.4000
83101W        W26014  27.803   6.740  15.075 -0.3138  0.5138 -0.0761
83102W        W26015  19.663  30.174  19.762  0.2075  0.0052 -0.1863
83103W        W26016  18.018   0.694  14.431  0.0949 -0.2311  0.0938
83104W        W26017  14.316   4.346  20.636  0.0505  0.0322  0.2744
83105W        W26018  27.104  29.308  21.577  0.2586  0.2107  0.3115
83106W        W26019  10.901  33.130  16.233  0.2721  0.0640 -0.2515
83107W        W26020  30.762  33.588  18.390 -0.2553 -0.2094  0.2706
83108W        W26021  17.403   3.364  16.286  0.1355 -0.4248  0.1970
83109W        W26022  23.469   2.550  25.580  0.2530 -0.3780  0.1246
83110W        W26023  17.374   1.766  15.375  0.0559  0.2300 -0.1354
83111W        W26024  27.295   4.031   5.262  0.1748  0.1567  0.2737
83112W        W26025  19.825   0.750  22.559  0.0932  0.1936  0.1313
83113W        W26026  27.949   3.885  29.274 -0.0699 -0.4062 -0.5878
83114W        W26027  11.119   8.550  20.890  0.1818  0.2286 -0.2164
83115W        W26028  14.269  31.244  21.088  0.0331 -0.0368  0.1246
83116W        W26029  22.451  29.206  15.073 -0.1311  0.3888 -0.1332
83117W        W26030  20.116  34.092  16.333 -0.2948  0.2940  0.1862
83118W        W26031  19.995   2.930  14.364  0.2857  0.0012 -0.1875
83119W        W26032  20.280  30.737  17.323  0.2662 -0.1081 -0.2519
83120W        W26033  30.725  34.445  19.524 -0.2548  0.0998  0.1718
83121W        W26034  22.175  26.125  23.617  0.1767  0.4073  0.1137
83122W        W26035   9.829   1.197  19.282 -0.0828  0.0034 -0.2473
83123W        W26036  29.939  30.512  18.090  0.5341 -0.0083 -0.0287
83124W        W26037   8.168  28.465   5.710 -0.1058 -0.2530 -0.2904
83125W        W26038  19.636   3.629  23.060 -0.0100  0.0854 -0.1433
83126W        W26039   0.440   7.128  23.290 -0.0610  0.3014 -0.1402
83127W        W26040   7.220   4.054  24.161 -0.2143  0.2481 -0.0992
83128W        W26041  21.081  26.035  15.701 -0.0646  0.0724  0.0061
83129W        W26042  22.410  30.970  25.127 -0.0287 -0.0442 -0.0665
83130W        W26043  21.020   2.652  20.447  0.1952 -0.0941  0.0207
83131W        W26044  23.249  33.021  18.761 -0.1608 -0.0540  0.0751
83132W        W26045  20.839   2.817  22.665  0.0273 -0.0077  0.0328
83133W        W26046  28.658  32.750  23.087  0.0438  0.0137  0.1599
83134W        W26047  13.407   8.003  14.604  0.1204 -0.2063  0.0164
83135W        W26048  24.687  33.665  15.072 -0.3168  0.2112 -0.1305
83136W        W26049  20.012  32.590  14.296  0.0930  0.0072  0.2089
83137W        W26050  11.355   7.604  21.625  0.2209  0.0180  0.1560
83138W        W26051  18.289   2.937  20.293  0.4266  0.0713  0.0422
83139W        W26052  22.903   2.723  17.161  0.3099 -0.1862  0.0456
83140W        W26053  30.375  30.024  17.897 -0.1222 -0.3216 -0.1935
83141W        W26054  28.445   9.652  23.491  0.0314  0.0928  0.4925
83142W        W26055  22.757  34.398  24.921 -0.1975  0.2186 -0.3092
83143W        W26056  21.822  28.138  14.540 -0.2586 -0.0921 -0.0303
83144W        W26057  19.676  30.803  14.748 -0.0506 -0.1760 -0.2462
83145W        W26058  23.323  27.187  14.709 -0.0538  0.1613  0.0290
83146W        W26059  10.900   8.770  19.941 -0.2576  0.0900 -0.0174
83147W        W26060  25.235  26.788  24.391 -0.3097 -0.0123 -0.0295
83148W        W26061  20.856  34.219  15.156  0.2031  0.0044  0.4451
83149W        W26062  21.828  32.792  18.881 -0.1497  0.3398  0.0474
83150W        W26063  22.744   7.630  18.391  0.0072 -0.0527 -0.1396
83151W        W26064  22.608   4.083  15.507 -0.2444 -0.1864  0.0421
83152W        W26065  24.599   2.317  19.048  0.0189 -0.0441 -0.0107
83153W        W26066  20.414   4.945  22.819 -0.1733 -0.2766  0.2567
83154W        W26067  25.736  33.230  20.203  0.0362  0.1774  0.2274
83155W        W26068  22.578  33.180  17.436  0.1931 -0.0346 -0.2782
83156W        W26069  24.039   1.493  20.469 -0.2124 -0.0127 -0.2084
83157W        W26070  10.438   6.453  18.175  0.2528 -0.2046  0.0335
83158W        W26071  14.550   7.141  17.449 -0.2930  0.0598  0.2886
83159W        W26072  19.307  33.351  23.160 -0.0529 -0.0461 -0.0326
83160W        W26073  24.728   0.784  14.269 -0.1147 -0.0153 -0.4238
83161W        W26074  16.461   0.708  20.623  0.0774 -0.0365  0.2626
83162W        W26075  21.109  29.515  25.842 -0.0638 -0.3604 -0.2081
83163W        W26076  21.829  24.310  18.137  0.1418  0.1928 -0.2755
83164W        W26077  23.168   5.894  16.613 -0.1453  0.0700  0.3444
83165W        W26078  23.790   9.783  19.979 -0.0384 -0.3289 -0.0182
83166W        W26079  25.386   7.791  19.736  0.1030  0.2065  0.0116
83167W        W26080  25.721   4.036  18.483 -0.1780  0.0997  0.0109
83168W        W26081  24.414   8.743  17.892  0.4127  0.0190  0.0260
83169W        W26082  15.776  30.223  20.235  0.2490  0.0735 -0.1334
83170W        W26083   4.466   4.213  19.015 -0.1068 -0.2004  0.0153
83171W        W26084  24.309  27.336  24.146 -0.0398 -0.1579 -0.3108
83172W        W26085  24.601   4.386  18.401 -0.2775 -0.3533  0.0858
83173W        W26086  24.040   0.132  15.093  0.1930  0.1652  0.0139
83174W        W26087  21.482  33.052  22.333 -0.1713  0.2331  0.0545
83175W        W26088  24.865   5.068  21.157 -0.1112  0.0983  0.2155
83176W        W26089  22.899  23.393  16.634 -0.0031 -0.2695 -0.0366
83177W        W26090  12.680   6.097  19.366 -0.2022 -0.1049 -0.0508
83178W        W26091  21.255   0.513  13.654  0.2908  0.0653 -0.1469
83179W        W26092  18.102   2.543  17.502 -0.0404  0.0117 -0.0393
83180W        W26093  31.634   1.470  22.614  0.2543 -0.2835  0.1033
83181W        W26094  26.360   5.123  17.226 -0.1256  0.1791 -0.0048
83182W        W26095  15.239  30.764  21.535 -0.0461  0.0004  0.0225
83183W        W26096  31.045  19.398  18.612 -0.0660 -0.0512 -0.2662
83184W        W26097  22.082  24.469  14.088 -0.1591 -0.1253  0.2312
83185W        W26098  23.001  27.846  16.275 -0.0217 -0.1180 -0.0144
83186W        W26099  25.513   0.288  18.455 -0.1741 -0.1727  0.0760
83187W        W26100  31.293  30.691  14.021  0.4132  0.2172 -0.0882
83188W        W26101  26.965  23.641  19.432 -0.2895 -0.1536  0.1376
83189W        W26102  20.831   0.492  24.745  0.0518 -0.1912 -0.1839
83190W        W26103  27.058  16.127  17.381  0.0895  0.0443  0.0367
83191W        W26104  27.540  31.787  18.573  0.0497 -0.1838  0.0522
83192W        W26105  20.592  23.801  13.078  0.2030 -0.2203  0.1805
83193W        W26106  19.396   5.993  14.937 -0.1719 -0.2210 -0.1263
83194W        W26107  23.084   1.640  18.095 -0.2705  0.0458  0.0350
83195W        W26108  29.767  27.939  14.871 -0.0493 -0.3114 -0.0195
83196W        W26109  23.252   1.645  21.719  0.0419 -0.1395  0.1414
83197W        W26110  17.674   2.623  15.694 -0.0620 -0.2519  0.0657
83198W        W26111  22.911  27.850  20.664 -0.1963  0.0119 -0.0560
83199W        W26112  24.840   4.858  18.269 -0.2262  0.1215 -0.0575
83200W        W26113  22.209  34.337  16.785 -0.1178 -0.3137  0.3289
83201W        W26114  21.838   3.101  24.943  0.0374 -0.1370  0.3183
83202W        W26115  29.652  31.359  15.889 -0.1486 -0.1684  0.1963
83203W        W26116  12.301  30.109  16.217 -0.2255  0.0170 -0.0968
83204W        W26117  24.190   4.468  17.003  0.5567 -0.2337  0.2864
83205W        W26118  25.052   6.245  22.505 -0.1042 -0.3407 -0.0121
83206W        W26119  12.868  32.085  21.141  0.2800 -0.0806  0.0822
83207W        W26120  24.758  14.743  16.173 -0.1944 -0.0196 -0.1029
83208W        W26121  25.931   0.582  25.068 -0.1595 -0.1408  0.4606
83209W        W26122  19.939  22.813  11.937  0.0696  0.0567  0.1236
83210W        W26123  22.431   0.337  17.511  0.0096 -0.1341 -0.2877
83211W        W26124  20.462  33.807  14.486 -0.2019  0.1464 -0.0177
83212W        W26125  21.255   1.334  26.296 -0.3391  0.2322  0.1125
83213W        W26126  14.158  30.308  21.838  0.2490  0.2338 -0.0936
83214W        W26127  27.598   5.149  24.609 -0.0992  0.4797  0.1470
83215W        W26128  22.935   7.247  15.632 -0.4516 -0.1772 -0.2959
83216W        W26129  16.689  27.794  17.239 -0.1481 -0.1129  0.0119
83217W        W26130  14.828   0.066  19.465 -0.2443  0.0664 -0.0728
83218W        W26131  32.881  31.175  24.159  0.1760  0.0116  0.2585
83219W        W26132  24.172  30.433  17.606 -0.2432 -0.2262 -0.1473
83220W        W26133  19.930  30.617  19.552  0.0567  0.0632 -0.2417
83221W        W26134  34.464  31.956  23.567  0.1126  0.0115  0.0248
83222W        W26135  23.209   1.066  19.503 -0.4891  0.1495  0.1122
83223W        W26136  21.723  28.098  24.449  0.1892 -0.0646  0.1704
83224W        W26137  16.044  33.075  24.221 -0.1973  0.1421  0.0784
83225W        W26138   9.280   3.379  19.678  0.1134  0.0352  0.0987
83226W        W26139  18.833  29.554  23.463  0.2454  0.1364  0.2826
83227W        W26140  22.852  33.930  14.269 -0.2547  0.0552  0.2994
83228W        W26141  16.898  30.270  18.825  0.0700  0.0249  0.0794
83229W        W26142  12.491  33.248  21.441 -0.0089  0.0755  0.0737
83230W        W26143  25.345  28.712  27.307  0.1077 -0.0981  0.0239
83231W        W26144  13.395  29.805  20.589  0.2036  0.0184 -0.0938
83232W        W26145  10.855   5.285  17.747  0.1740 -0.0279 -0.1062
83233W        W26146  33.264  10.658  20.963  0.0456 -0.0004  0.3760
83234W        W26147  25.234  33.670  20.808  0.1911 -0.1494  0.0594
83235W        W26148  23.243  34.225  16.533  0.0226 -0.0969 -0.0389
83236W        W26149   9.162  33.829  19.187 -0.2773 -0.1359  0.0418
83237W        W26150  16.452   0.484  19.204 -0.0415 -0.2009 -0.3462
83238W        W26151  22.817   5.948  22.181 -0.2498 -0.1344 -0.0092
83239W        W26152  23.124  33.459  18.675 -0.0724  0.1192  0.0148
83240W        W26153  24.480  10.364  21.343  0.3941  0.0722  0.0609
83241W        W26154  29.431  33.055  19.987  0.0822  0.0733 -0.0534
83242W        W26155  15.566   5.375  15.506  0.1170 -0.1560 -0.0673
83243W        W26156  16.674   4.667  22.728  0.0783  0.0418 -0.2198
83244W        W26157  11.101  34.353  26.561 -0.1166  0.0114  0.0834
83245W        W26158  24.556  32.571  18.013 -0.1395  0.0684  0.0073
83246W        W26159  28.261   8.763  21.395  0.0388 -0.4571  0.0015
83247W        W26160  13.837   8.317  19.466  0.1290 -0.0519 -0.2595
83248W        W26161  10.317  29.432  25.455 -0.0228 -0.2283  0.0577
83249W        W26162  17.706   5.218   2.029  0.3706  0.1191  0.1289
83250W        W26163  26.013   2.675  27.001 -0.3019  0.1633  0.0905
83251W        W26164  17.316  31.129  21.320  0.0228  0.2462  0.0249
83252W        W26165  11.452   0.658  22.671  0.0315  0.0938  0.0486
83253W        W26166  20.384  34.358  19.309 -0.0311 -0.1650 -0.4621
83254W        W26167  22.257  22.913   0.403 -0.0968  0.0904  0.0454
83255W        W26168  17.617  12.603   2.539  0.0832  0.1618  0.0761
83256W        W26169  19.898  20.128  19.961  0.1377  0.0058  0.0851
83257W        W26170   4.720  17.431  20.705 -0.3524  0.0966 -0.0376
83258W        W26171  25.549  11.346  14.461  0.5200 -0.0290  0.3710
83259W        W26172  25.893   4.581  22.292  0.3706  0.5033 -0.1761
83260W        W26173  19.867   2.367  16.429  0.1568 -0.0811  0.2076
83261W        W26174  18.413   4.383  28.486  0.0535  0.1295 -0.0142
83262W        W26175  30.113   6.155  28.413  0.0794 -0.1386 -0.2470
83263W        W26176  27.883   3.219  26.666 -0.3604  0.0649 -0.0527
83264W        W26177  20.633  32.729  18.693  0.1510 -0.0368  0.2091
83265W        W26178  12.331   2.154  16.344  0.2633  0.1018  0.0664
83266W        W26179   4.868  31.596  22.455 -0.1289  0.0066 -0.2903
83267W        W26180  20.772  30.638   0.114  0.0050  0.1795 -0.3420
83268W        W26181  17.010   4.415  22.520 -0.2617 -0.0189  0.1841
83269W        W26182  22.623   4.474  24.656 -0.1957  0.0450  0.1205
83270W        W26183  20.232   3.951  25.696 -0.0856 -0.2242  0.1352
83271W        W26184  22.644   3.966  22.397 -0.0675  0.0363 -0.3614
83272W        W26185  23.036  33.324  14.042 -0.2413  0.0023  0.3052
83273W        W26186  13.334  28.895   6.795 -0.0931  0.0183 -0.2097
83274W        W26187  24.070   6.165  13.729  0.0860 -0.1676 -0.1872
83275W        W26188  12.995   1.735  16.120 -0.0180 -0.0699  0.6704
83276W        W26189  27.371   4.797  20.079 -0.3299 -0.0413  0.1407
83277W        W26190  22.720  18.814  19.147 -0.0256 -0.0724  0.1619
83278W        W26191  21.599  13.050  14.553  0.1548  0.2829  0.2997
83279W        W26192  18.992   0.309  19.341  0.2683 -0.0099 -0.1573
83280W        W26193  15.614   0.433  21.033 -0.0017 -0.0285  0.0216
83281W        W26194  20.100   8.975  15.608 -0.0299  0.0385 -0.0693
83282W        W26195   2.367   1.560  21.718 -0.1123  0.0599 -0.2657
83283W        W26196  14.731   2.688  18.879  0.1191 -0.0478  0.2462
83284W        W26197  12.599  26.369  29.609  0.1787  0.1302 -0.2092
83285W        W26198  20.663  30.050  19.222 -0.1196  0.0088 -0.1034
83286W        W26199  17.112   3.219  17.276 -0.4225 -0.1627  0.1171
83287W        W26200  19.886   2.897  21.754  0.2449  0.3519 -0.1109
83288W        W26201  15.601  12.381  22.469 -0.1732  0.0664  0.0892
83289W        W26202  29.930   7.353  24.550  0.1439 -0.2326 -0.2209
83290W        W26203  21.034   5.451  16.796 -0.0412 -0.3268  0.0756
83291W        W26204  23.254   2.128  20.216 -0.1156  0.0964 -0.0849
83292W        W26205  27.800   1.998  18.570 -0.2227  0.2447  0.0925
83293W        W26206  33.827   3.502  17.591  0.0762 -0.0959 -0.3234
83294W        W26207  29.820  24.551  18.974 -0.0616  0.0799  0.0951
83295W        W26208  18.539   1.704  16.337 -0.3279 -0.1086 -0.0641
83296W        W26209  23.640  27.229  21.305  0.0278 -0.1328  0.0453
83297W        W26210  11.633   8.419  20.976 -0.1043 -0.0444  0.0795
83298W        W26211  13.475   3.136  21.778 -0.2710 -0.2395  0.0500
83299W        W26212  21.457  19.546  14.892  0.3570 -0.1446 -0.2575
83300W        W26213  12.827   2.823  23.251 -0.1581  0.1519 -0.1261
83301W        W26214  11.557  32.409  23.157  0.2446  0.3022 -0.1126
83302W        W26215  28.827  34.028  21.781  0.3133  0.2071 -0.2281
83303W        W26216  21.552  31.820  14.527 -0.2607  0.1548  0.2621
83304W        W26217  20.139   1.950  15.292  0.1449  0.0906  0.0688
83305W        W26218  20.537   8.654  15.508  0.1617  0.2301 -0.0146
83306W        W26219   1.073  14.423  13.931  0.3102  0.0392 -0.2241
83307W        W26220  13.923  31.305  18.024 -0.0543 -0.1258 -0.0280
83308W        W26221  24.641   6.288  18.117 -0.1143  0.0162  0.1626
83309W        W26222  23.626   4.870  15.639  0.0767 -0.3838 -0.5342
83310W        W26223  19.569  30.334  26.463 -0.0061 -0.1396 -0.1552
83311W        W26224  27.021   8.752  22.808  0.0114  0.1557 -0.1427
83312W        W26225  18.105   1.541  14.928 -0.3260 -0.2438 -0.0637
83313W        W26226  25.633  17.676  23.787 -0.2203 -0.1483 -0.1157
83314W        W26227  22.750  33.195  18.924 -0.4116  0.1258 -0.0290
83315W        W26228  13.738  30.490  23.048 -0.2440  0.0300  0.1534
83316W        W26229  17.829   7.398  29.734 -0.2453  0.1892 -0.1752
83317W        W26230  21.055   1.076  14.959 -0.0441  0.1745 -0.1777
83318W        W26231  17.717  27.768  15.148  0.0347  0.0786  0.0168
83319W        W26232  16.345  30.880  29.026  0.0128 -0.0942 -0.0088
83320W        W26233  26.969  21.839  22.389  0.2102  0.1479  0.3047
83321W        W26234  15.844  25.918   0.153 -0.3223  0.0441  0.2332
83322W        W26235  24.307   7.270  14.232  0.1980  0.2540  0.0415
83323W        W26236  25.693   8.128  19.133 -0.0622  0.1029 -0.1858
83324W        W26237  19.525   4.020  18.626  0.2558  0.2331  0.3783
83325W        W26238  26.126   9.602  24.945  0.1573  0.2771 -0.1220
83326W        W26239  13.401   2.309  20.143  0.5188  0.1876 -0.0503
83327W        W26240  25.533  33.386  15.479  0.5229 -0.1591 -0.1399
83328W        W26241  27.461  27.637  15.813 -0.0384  0.0157 -0.0458
83329W        W26242  26.269  34.074  19.179  0.0462  0.2115 -0.1194
83330W        W26243  18.075  32.432   7.314 -0.0667 -0.4038  0.3621
83331W        W26244  26.798  27.776  14.794  0.0516 -0.0118  0.1728
83332W        W26245  20.925   3.783  21.795 -0.2575 -0.2105  0.3908
83333W        W26246  31.725  32.483  15.395 -0.0558 -0.0356 -0.1189
83334W        W26247  30.266  28.870  18.612  0.0031 -0.1416  0.3796
83335W        W26248  22.751   2.949  23.458  0.0839 -0.0988 -0.2888
83336W        W26249  27.551   5.661  15.804 -0.0888  0.0450  0.2439
83337W        W26250  25.629   3.691  15.510 -0.1045 -0.0983  0.0735
83338W        W26251  26.872   7.019  18.019 -0.1589  0.0001  0.0986
83339W        W26252  17.649   2.409   2.509  0.2308 -0.3406 -0.0548
83340W        W26253   7.239  29.103  22.209 -0.1742  0.0546  0.0825
83341W        W26254  19.088  30.217  20.724 -0.2854 -0.1440 -0.1903
83342W        W26255  29.862  26.308  24.388 -0.0552 -0.1071 -0.1686
83343W        W26256  19.912  33.540  21.258  0.0571 -0.1785 -0.3294
83344W        W26257  24.228   0.211  13.957  0.0274 -0.0870 -0.0793
83345W        W26258  17.513  34.037  17.043 -0.3072 -0.0491 -0.3922
83346W        W26259  22.980   1.609  15.998 -0.2095 -0.0387 -0.2632
83347W        W26260  21.010   1.626  25.936  0.1117  0.0016  0.1587
83348W        W26261  28.022   3.556  16.258 -0.2082 -0.3853 -0.0679
83349W        W26262  20.991   3.304  23.273  0.2423  0.1934  0.1630
83350W        W26263  26.911  32.988  17.035 -0.2504 -0.1277  0.0357
83351W        W26264  20.322   4.465  24.430  0.4014  0.0182  0.2413
83352W        W26265  16.618   5.622  26.496 -0.3295  0.1885  0.2985
83353W        W26266  11.542  32.972  20.401  0.1216  0.0451  0.2959
83354W        W26267  26.314   3.940  26.674 -0.1592 -0.2583  0.2442
83355W        W26268  11.494   7.363  18.331  0.1057 -0.0548  0.1333
83356W        W26269  26.219   9.305  20.405  0.1446  0.1056 -0.3509
83357W        W26270  13.785   7.203  16.247 -0.0857 -0.1161 -0.0233
83358W        W26271  16.283  26.421  17.280  0.1490 -0.0998  0.1140
83359W        W26272  15.999   8.219  17.961 -0.0562  0.0676  0.0356
83360W        W26273  23.658  19.497  14.352 -0.1457  0.1619  0.3475
83361W        W26274   7.747   0.873  26.010 -0.2766  0.0791  0.1065
83362W        W26275  27.044  33.289  15.960  0.5890  0.3906  0.1252
83363W        W26276   9.422   0.978  24.734 -0.0816 -0.4198 -0.2917
83364W        W26277  13.315  24.012  23.405  0.0426  0.1565  0.0356
83365W        W26278  25.263   2.366  14.060 -0.2593  0.1669 -0.1611
83366W        W26279  22.810   5.485   1.695  0.0198  0.2274 -0.1775
83367W        W26280  22.139  28.964  26.865 -0.0505 -0.2253  0.0307
83368W        W26281  27.862  31.844  13.632  0.2019 -0.1469 -0.0746
83369W        W26282  22.147   3.812  28.706 -0.1543 -0.1575 -0.0318
83370W        W26283  28.180   2.485  23.280 -0.0728  0.3399 -0.6867
83371W        W26284  23.753   2.528  16.910 -0.0935  0.1378  0.1059
83372W        W26285  16.384   2.620  15.389  0.1837 -0.1329  0.0224
83373W        W26286  25.702  32.436  21.313 -0.0418  0.0158 -0.2125
83374W        W26287  21.957   5.252  13.669 -0.0700  0.0264 -0.1449
83375W        W26288  32.522   8.461  22.446 -0.0596  0.1545 -0.0650
83376W        W26289  27.740   5.887  20.858  0.0158 -0.0029 -0.2801
83377W        W26290  18.947   1.177  16.489  0.1884 -0.1238  0.0168
83378W        W26291  12.681   2.029   2.804  0.1832  0.3805  0.1020
83379W        W26292  22.602   9.264  13.845 -0.0896  0.0346 -0.0181
83380W        W26293  29.681  29.041  21.766 -0.1675  0.0650  0.1334
83381W        W26294  32.252   4.112  26.189 -0.1231  0.0407  0.0460
83382W        W26295  16.239  32.700  15.827  0.0551  0.0717  0.1928
83383W        W26296  11.355  32.902   0.563 -0.0124  0.1268 -0.0770
83384W        W26297   2.426  28.502  15.775 -0.0165 -0.0416  0.1216
83385W        W26298   1.214   5.865  19.246  0.0213  0.3024  0.1665
83386W        W26299  18.928  21.831  24.317  0.3606 -0.1434 -0.2444
83387W        W26300  20.080  34.126  14.449 -0.1198  0.2510 -0.2396
83388W        W26301  12.938   3.785   3.642 -0.0531  0.3478 -0.1264
83389W        W26302  20.128  30.710  14.712  0.1737  0.0863  0.1122
83390W        W26303  20.264  26.851  16.076  0.0386  0.0928  0.3854
83391W        W26304  15.593   5.512  14.594 -0.1805  0.0045 -0.0820
83392W        W26305  21.895  26.371  16.986 -0.1319 -0.1315  0.1344
83393W        W26306  24.970   0.592  16.996 -0.2228  0.1379  0.0812
83394W        W26307  19.681   1.526  16.900 -0.2289 -0.1800  0.1452
83395W        W26308  17.213   3.093  15.350 -0.0701 -0.5358  0.1601
83396W        W26309  22.345   3.800  28.236 -0.0238 -0.1544 -0.2033
83397W        W26310  21.697   5.306  26.817 -0.1258 -0.2903 -0.1415
83398W        W26311  12.304   1.675  23.616  0.0862 -0.1363 -0.2179
83399W        W26312  26.872  32.510  16.316 -0.4376  0.0782 -0.3269
83400W        W26313  26.144  30.554  18.388  0.0324  0.1204  0.0641
83401W        W26314  23.741   1.386  23.543  0.0686 -0.0391  0.0334
83402W        W26315  19.405  23.976  21.639  0.1654  0.0922 -0.1241
83403W        W26316  22.794  33.930  15.286 -0.0225 -0.1113 -0.1615
83404W        W26317  20.004  25.288  15.312 -0.2356 -0.1006 -0.2785
83405W        W26318  23.198   5.524  17.134 -0.0353  0.0766  0.3411
83406W        W26319  25.969  12.051  17.862  0.1645 -0.1207 -0.0741
83407W        W26320  22.670  33.339  14.929  0.0919  0.3786 -0.3325
83408W        W26321  20.397   1.834  24.629  0.2293  0.2382 -0.1588
83409W        W26322  26.219   3.778  20.639 -0.0652 -0.1859  0.1288
83410W        W26323  14.414   0.168  19.683 -0.2009 -0.1624 -0.2228
83411W        W26324  27.438   4.189  14.676 -0.2125 -0.1515  0.1717
83412W        W26325  12.422   0.508  25.179  0.1229  0.3986 -0.1911
83413W        W26326  24.858  28.926  21.749  0.0499  0.2132  0.0284
83414W        W26327  22.697   3.647  14.498 -0.1757 -0.2075 -0.3997
83415W        W26328  11.560  28.751  23.763 -0.1518 -0.0277 -0.1172
83416W        W26329  25.230   4.515  19.176  0.1860 -0.0020  0.1137
83417W        W26330  19.571  10.128  25.042 -0.0053 -0.2007  0.0000
83418W        W26331  31.551  29.559  19.674 -0.1798 -0.3662 -0.1287
83419W        W26332  28.892  28.724  17.138 -0.3752 -0.0885  0.3707
83420W        W26333  13.823   5.360  16.907 -0.0723 -0.1108  0.0594
83421W        W26334  23.346   6.925  14.878  0.3561 -0.1296  0.0765
83422W        W26335  27.599   0.178  15.767  0.1358  0.2345 -0.1325
83423W        W26336   5.208   0.125  20.720  0.1413  0.0230  0.3786
83424W        W26337  18.863   0.086  25.398  0.0149  0.0679  0.0594
83425W        W26338  13.183  34.158  16.405 -0.1639 -0.3274 -0.1993
83426W        W26339  31.848   2.972  16.606 -0.2658 -0.3186 -0.0029
83427W        W26340  25.483  31.127  28.611 -0.3015 -0.2128  0.1606
83428W        W26341  21.184  34.086  23.103 -0.0592  0.1754  0.0092
83429W        W26342  22.462   9.507  14.520 -0.2287  0.0102 -0.3341
83430W        W26343   2.873  12.926  15.948 -0.0692 -0.0105  0.1375
83431W        W26344  22.498   0.087  13.855  0.5533 -0.3353 -0.2042
83432W        W26345  24.288  30.324  20.719 -0.0525 -0.0391 -0.1079
83433W        W26346  26.069  29.069  16.110  0.2661 -0.0513 -0.3138
83434W        W26347  26.070   4.821  23.220 -0.1056  0.0173 -0.3381
83435W        W26348  22.719   0.494  21.368  0.0769 -0.1400  0.3705
83436W        W26349  24.348  27.228   2.021  0.1158 -0.5352 -0.1552
83437W        W26350  26.056   8.879  26.717  0.1693  0.0287  0.2588
83438W        W26351  25.454   2.599  13.608  0.0206 -0.1169 -0.1474
83439W        W26352  19.411  33.303  21.164  0.0968  0.1587  0.1184
83440W        W26353  17.028  28.560  28.585 -0.1988 -0.1140 -0.0688
83441W        W26354  17.702  25.641  17.366  0.0446  0.2831  0.0760
83442W        W26355  18.954  11.518  12.972 -0.0848  0.1905  0.2466
83443W        W26356  16.401  34.093  19.770 -0.2307 -0.1135  0.1282
83444W        W26357  24.484   2.255  22.023  0.0499  0.3275 -0.1776
83445W        W26358  24.745  11.478  25.191 -0.0761 -0.0902  0.0388
83446W        W26359   3.311  27.471  22.360  0.2088  0.3654  0.2075
83447W        W26360  19.739  29.552  22.484 -0.1814  0.1118  0.0731
83448W        W26361  17.565  33.308  20.929  0.1081  0.2406  0.1705
83449W        W26362  23.318   5.604  27.491  0.2252 -0.1890  0.0391
83450W        W26363  12.522  25.544  26.605 -0.0046  0.3712  0.2172
83451W        W26364  24.780  33.084  29.781 -0.1418  0.1046 -0.0102
83452W        W26365  24.373   4.049  22.156  0.0887 -0.1751  0.0580
83453W        W26366  29.979  29.185  17.518 -0.4129 -0.0039 -0.1234
83454W        W26367  14.401   0.588  28.172 -0.0041 -0.0067 -0.1621
83455W        W26368   9.903  12.404   0.548  0.0131  0.2327 -0.0754
83456W        W26369  18.343   0.135  15.189 -0.0441 -0.0166 -0.0219
83457W        W26370  16.101  32.261  17.913 -0.2874  0.1884  0.0061
83458W        W26371  21.115  33.711  13.196  0.0070  0.1179 -0.1827
83459W        W26372  21.999   1.042  19.846  0.1858  0.0357  0.1216
83460W        W26373  20.305   5.211  17.916 -0.2983 -0.1330 -0.0296
83461W        W26374  24.393   3.973  18.592 -0.0382 -0.1647  0.0931
83462W        W26375  25.868  10.713  20.316 -0.1323 -0.0633 -0.1672
83463W        W26376  18.626  30.643  17.138  0.0611 -0.0897 -0.2387
83464W        W26377  26.403   9.960  17.664  0.4087  0.2867 -0.0342
83465W        W26378  19.914   8.700  22.578 -0.0325 -0.0099 -0.1333
83466W        W26379  14.981   5.498  14.815 -0.1381 -0.0509 -0.1895
83467W        W26380   5.102   0.476  21.180  0.0288 -0.3822  0.1537
83468W        W26381  28.108   6.417  17.516  0.0005  0.4725  0.2762
83469W        W26382  19.181  10.966  21.243  0.0218 -0.2263  0.3204
83470W        W26383   1.695  29.760  25.528  0.1791  0.0559 -0.0412
83471W        W26384  15.718  32.715  24.611  0.2596  0.0659  0.0653
83472W        W26385  21.613   3.307  23.266  0.1568  0.0032  0.0630
83473W        W26386  19.720  28.739  24.906 -0.1291 -0.0902  0.0661
83474W        W26387  18.409   1.220  18.373  0.0705 -0.0337 -0.0649
83475W        W26388  20.509  33.106  19.584 -0.0806  0.3257 -0.1725
83476W        W26389  25.471  13.813  17.826  0.3257 -0.0298  0.0840
83477W        W26390  19.453   0.173  17.190 -0.1571 -0.0752 -0.1768
83478W        W26391  18.668  23.292  14.481  0.1879  0.0024 -0.2067
83479W        W26392  11.555  33.414  21.147 -0.0987  0.7957  0.2421
83480W        W26393  10.199   3.226  16.960 -0.0858  0.0563  0.1270
83481W        W26394  14.035  29.075  17.206 -0.0833  0.0883 -0.0584
83482W        W26395  17.964   2.493  23.639  0.0206 -0.2091  0.2978
83483W        W26396   7.488  30.680  20.554 -0.1367  0.1043 -0.0783
83484W        W26397  21.641   4.466  22.517  0.0338 -0.0892 -0.0600
83485W        W26398  10.553   3.072  24.271 -0.2264 -0.1621 -0.1051
83486W        W26399  19.423  28.316  17.064 -0.1582  0.0537  0.0220
83487W        W26400  22.136  29.480  23.215  0.0769  0.0406 -0.0555
83488W        W26401  15.802  31.629  22.321 -0.0273  0.1647  0.1384
83489W        W26402  19.361  32.479  16.801  0.2833 -0.2631 -0.0465
83490W        W26403  16.653   4.668  15.659 -0.0587 -0.0703  0.0496
83491W        W26404  26.482   0.455  18.879  0.0840  0.1401 -0.0015
83492W        W26405  21.099   6.683  15.273  0.1228 -0.1325 -0.1132
83493W        W26406  13.818   5.293  27.367  0.2123 -0.2403 -0.2521
83494W        W26407  24.306   0.070   1.076  0.2826 -0.1626 -0.1542
83495W        W26408  18.943  11.655  22.874 -0.2967 -0.0993 -0.2081
83496W        W26409  17.150  22.484  14.763 -0.0954 -0.1618  0.0959
83497W        W26410  26.123   1.917  17.539 -0.0245 -0.0242 -0.0709
83498W        W26411  31.100  12.623  18.144  0.1145  0.0860 -0.0984
83499W        W26412  11.635  28.653  17.874 -0.2902 -0.1756 -0.1954
83500W        W26413  15.088   3.802  22.000  0.0458 -0.1798 -0.1647
83501W        W26414  11.222  26.177  25.967  0.1915 -0.0687 -0.0029
83502W        W26415  17.600   4.166  21.196  0.1054 -0.1775 -0.1062
83503W        W26416  17.100   0.521  22.958 -0.2164 -0.3644 -0.0028
83504W        W26417  17.414  27.657  24.925  0.2571 -0.1571 -0.0700
83505W        W26418  25.113  30.232  25.471 -0.0149  0.1554  0.0411
83506W        W26419  14.223   5.197   3.542  0.0366  0.0877 -0.0155
83507W        W26420  22.577   4.274  23.806  0.0780  0.1650 -0.1762
83508W        W26421  22.609   9.560  21.346 -0.2436 -0.0929  0.1373
83509W        W26422  20.838   9.483   1.374 -0.0848 -0.0428 -0.3358
83510W        W26423  19.858   3.399  21.802 -0.0689 -0.1852  0.0305
83511W        W26424  17.065  34.156  19.169  0.2085 -0.0988  0.0185
83512W        W26425  14.713  29.036  19.246  0.1146 -0.1918 -0.2450
83513W        W26426   7.782   2.147  23.580  0.2808 -0.5283 -0.2927
83514W        W26427  28.432   0.001  15.103  0.0500 -0.1170 -0.0720
83515W        W26428  14.636  34.337  23.967  0.0358  0.2773  0.1108
83516W        W26429  20.053   5.221  14.417  0.0417 -0.2818  0.1048
83517W        W26430  17.159  33.471  20.689  0.1740  0.0044 -0.1787
83518W        W26431  21.072  33.160  24.031  0.0857  0.2360 -0.0557
83519W        W26432  22.876  10.353  24.621 -0.0015 -0.2348  0.4081
83520W        W26433  13.455  34.239  20.656 -0.0394 -0.1811  0.0179
83521W        W26434   8.987   0.933  25.553 -0.1988  0.0836  0.1174
83522W        W26435  26.088   7.024  23.913 -0.3304  0.1250  0.1377
83523W        W26436  18.450   0.635  20.006  0.2961  0.2287  0.0100
83524W        W26437  26.807   1.329  16.295  0.0520 -0.1368 -0.0206
83525W        W26438  20.723   1.462  21.779  0.3797  0.6757  0.0026
83526W        W26439  27.760   5.116  18.568  0.2168  0.1528 -0.0843
83527W        W26440  14.937  33.586  21.678 -0.1126  0.1647 -0.0499
83528W        W26441  29.250  31.498  20.186 -0.0207  0.3416  0.0747
83529W        W26442  26.270   2.020  15.349 -0.1548 -0.0912 -0.0963
83530W        W26443  16.725   0.167  15.723  0.0353 -0.1234 -0.0384
83531W        W26444  25.856  34.021  19.830  0.2460  0.0300 -0.1151
83532W        W26445  22.400  30.370   0.880 -0.0992 -0.0028 -0.0716
83533W        W26446  15.678  26.816  25.697 -0.1310 -0.0496  0.0065
83534W        W26447  10.988  25.195  26.533  0.1529 -0.1352  0.0545
83535W        W26448  25.788   7.915  26.745  0.0519  0.0964 -0.1030
83536W        W26449  19.785   1.205  15.510 -0.1300  0.1272  0.1687
83537W        W26450  23.552  31.106  17.010  0.2047 -0.3275 -0.1943
83538W        W26451  17.523  32.859  22.516 -0.0546 -0.0914  0.0339
83539W        W26452  27.406   1.044  24.104  0.0661 -0.5420  0.0424
83540W        W26453  20.250   1.314  19.808 -0.0109  0.1170 -0.1602
83541W        W26454  25.133   0.938  16.615  0.0844 -0.2063  0.0472
83542W        W26455  19.997   5.658  27.731  0.0590  0.4985  0.0269
83543W        W26456  21.091   9.133  16.430  0.0794  0.0511 -0.2305
83544W        W26457   9.496  28.392  20.306  0.5369 -0.0588  0.1525
83545W        W26458  14.829  32.330  21.308  0.3233  0.2551 -0.1202
83546W        W26459  21.045   4.581   3.672  0.0765  0.1031 -0.0789
83547W        W26460  24.240   5.398  23.638  0.0509 -0.2357  0.0460
83548W        W26461   3.911  13.148  23.274  0.3024  0.1688  0.1739
83549W        W26462   2.398  31.637  20.582  0.0492  0.1553 -0.2908
83550W        W26463  22.545  27.785  17.196 -0.0911  0.1158 -0.2493
83551W        W26464  14.245   0.826  15.989 -0.1577  0.1112 -0.0132
83552W        W26465  16.299   4.608  18.120 -0.0263 -0.0334  0.0126
83553W        W26466  18.219  32.567  16.277  0.3405 -0.0761 -0.1126
83554W        W26467  12.503  27.377  17.466 -0.2552  0.1898 -0.0132
83555W        W26468  10.327  10.115  29.724  0.1255  0.0883 -0.1280
83556W        W26469  14.457  28.007  22.694  0.1134 -0.0799  0.1403
83557W        W26470  23.319  11.490  21.085 -0.0151  0.1726  0.2458
83558W        W26471   7.792   2.443  25.781 -0.1932 -0.0477  0.0873
83559W        W26472  17.364   5.518   2.712  0.3087  0.1309  0.3148
83560W        W26473  12.979  30.834  23.405 -0.1032 -0.0024  0.1313
83561W        W26474   8.972  28.953  19.764  0.0071 -0.1689  0.4723
83562W        W26475  14.885   7.508  14.774 -0.1434  0.1238 -0.1559
83563W        W26476  22.468   1.211  21.694  0.4486 -0.0789 -0.0963
83564W        W26477  26.211  28.016  19.467 -0.1614 -0.0466 -0.0113
83565W        W26478  13.769  34.302  23.751 -0.3263  0.1666  0.3446
83566W        W26479  22.772  14.064  19.448 -0.0377 -0.1345  0.2586
83567W        W26480  21.393   2.921  21.397 -0.0091  0.0109 -0.0471
83568W        W26481  25.513   5.774  19.727 -0.1795  0.2032  0.2313
83569W        W26482  30.744  10.791  19.199 -0.0125  0.1185 -0.0913
83570W        W26483  18.582  32.916  22.251  0.0991  0.0839 -0.1551
83571W        W26484  20.147   0.251  22.866  0.1445  0.1044  0.1784
83572W        W26485  16.856   2.077  17.210 -0.1193 -0.1173 -0.0501
83573W        W26486  21.763   1.357  14.526  0.2826  0.1974 -0.0108
83574W        W26487  14.071   0.102  26.761 -0.2810  0.0524 -0.3136
83575W        W26488   7.556   6.665  25.132 -0.3053 -0.3368 -0.0162
83576W        W26489  33.381  26.944  22.270 -0.1529  0.1192  0.0912
83577W        W26490  21.781  13.728  24.991  0.1954 -0.0332 -0.2283
83578W        W26491  12.916   1.177  22.767  0.2380  0.1121 -0.0571
83579W        W26492  30.249   7.318  19.956 -0.0901 -0.1003  0.1356
83580W        W26493   2.805   7.329  16.298 -0.4336 -0.0643 -0.2465
83581W        W26494  29.600  32.929  19.199 -0.0191 -0.0225 -0.0199
83582W        W26495  29.526  29.128  18.780  0.0725 -0.0461 -0.0723
83583W        W26496  27.015  31.927  16.201 -0.1982  0.0219  0.2128
83584W        W26497  27.177  28.601  20.558 -0.1465  0.3139  0.0134
83585W        W26498  24.717   2.926  18.235 -0.3814  0.1927  0.0297
83586W        W26499  19.371   0.403  19.789 -0.0887 -0.0208  0.2211
83587W        W26500  13.136  34.318  22.742 -0.0968  0.1239 -0.0471
83588W        W26501  24.942   5.243  13.974 -0.1593 -0.3160 -0.3469
83589W        W26502  18.409   5.726   0.489 -0.2481  0.0356 -0.0213
83590W        W26503  11.513  27.822  17.320  0.0288 -0.0861 -0.0205
83591W        W26504  15.813  30.895  15.259 -0.2112 -0.1394 -0.1078
83592W        W26505  30.176   7.401  21.616 -0.0340 -0.1282  0.0932
83593W        W26506   1.903  24.797  28.477  0.4423  0.0389 -0.0908
83594W        W26507  20.926   7.142  18.258 -0.3007  0.3903  0.0246
83595W        W26508  11.851   7.795  28.143 -0.2330 -0.3410 -0.2287
83596W        W26509  27.259   7.028  22.551  0.0017 -0.0945 -0.1690
83597W        W26510  21.071   2.518  25.994  0.1229  0.1291  0.3102
83598W        W26511  14.040   5.525  23.825 -0.1418  0.3255  0.4205
83599W        W26512  15.342  25.729  24.651  0.3037  0.0445 -0.0333
83600W        W26513  26.111   9.706  18.260  0.0942 -0.3790  0.0630
83601W        W26514  13.406   8.383  15.620 -0.0983 -0.0519  0.0407
83602W        W26515  16.486   6.179  15.490 -0.0310  0.2604  0.3568
83603W        W26516  16.272   2.514  18.055  0.0773 -0.0795 -0.2825
83604W        W26517  23.730   1.280  24.929  0.0502 -0.0801 -0.1761
83605W        W26518  11.296   9.416  17.333  0.0556  0.3538  0.1522
83606W        W26519  20.997   8.013  21.701 -0.4648 -0.1931  0.1324
83607W        W26520  23.214  33.784  17.786  0.1743 -0.0196  0.0165
83608W        W26521  23.398  10.997  18.421 -0.1462  0.0482 -0.0798
83609W        W26522  20.660  30.511  19.445 -0.1799 -0.0570  0.0473
83610W        W26523  22.842   3.108  14.227 -0.1860 -0.3881  0.4055
83611W        W26524  20.338   4.023  26.783 -0.2829 -0.0012  0.2129
83612W        W26525  27.831  32.305  17.163  0.4295  0.2300  0.0451
83613W        W26526  15.781  30.511  16.791  0.3140 -0.0794  0.1803
83614W        W26527  15.749   0.097  23.791 -0.0022  0.0625  0.1023
83615W        W26528  11.154  33.606  24.750  0.1922 -0.0840  0.1925
83616W        W26529  33.181  25.556  17.898 -0.0034  0.0441  0.2005
83617W        W26530  25.664   3.060  16.763  0.0789  0.1272 -0.3540
83618W        W26531  32.810  27.701   3.661  0.2023  0.1719  0.1887
83619W        W26532  17.399   3.120  24.131 -0.3235  0.3408 -0.0305
83620W        W26533  21.478  32.207  20.976  0.1492 -0.4029 -0.2021
83621W        W26534  18.115  31.876  21.199 -0.0933 -0.2914  0.1771
83622W        W26535   7.610  32.478  17.530  0.1664 -0.0077 -0.0963
83623W        W26536  27.421  28.093  17.452 -0.0308 -0.0734 -0.2836
83624W        W26537   7.913  34.384  19.168  0.1335  0.0365  0.0946
83625W        W26538  18.771   2.420  21.575  0.2307 -0.2026  0.3642
83626W        W26539  29.913  26.179  23.336  0.1494  0.0032  0.2175
83627W        W26540  15.677  20.519  21.368  0.3571  0.2332 -0.2931
83628W        W26541  31.206   3.995  27.200  0.0199  0.3581 -0.3524
83629W        W26542   9.171  12.118  19.064  0.0821  0.1604 -0.2551
83630W        W26543  22.513   0.202  23.070 -0.1704  0.0620  0.0470
83631W        W26544  22.575  34.293  19.039 -0.0682 -0.0718 -0.0025
83632W        W26545  24.975  29.580   1.122 -0.1046 -0.0357  0.1738
83633W        W26546  11.036   0.733   0.779  0.3128 -0.1886  0.0708
83634W        W26547  19.028  24.611  14.045  0.2680 -0.0573  0.2711
83635W        W26548  21.332   4.287  17.572  0.1429  0.1292 -0.2550
83636W        W26549  22.194  28.402  21.111  0.1990 -0.1186 -0.1388
83637W        W26550  26.959  30.556  22.751 -0.0458  0.1854 -0.2358
83638W        W26551  11.456  29.996   2.794 -0.3534 -0.0964  0.0130
83639W        W26552  24.156   1.936  29.275 -0.0421 -0.1783  0.1084
83640W        W26553  18.907   4.487  15.096 -0.3012  0.0750  0.0075
83641W        W26554  26.968   5.334  22.747  0.0841  0.0066 -0.1093
83642W        W26555  11.913  34.391  23.281 -0.2550  0.1242 -0.0116
83643W        W26556  17.570  30.178  18.069  0.0044 -0.4167 -0.0675
83644W        W26557  14.245  17.413  23.995 -0.0600 -0.2070  0.0057
83645W        W26558  12.103   8.552  15.091 -0.0185  0.0956  0.1446
83646W        W26559  24.006  32.598   0.296  0.1333 -0.1297  0.2016
83647W        W26560  18.427   5.148  21.814  0.1678 -0.1169 -0.1375
83648W        W26561  13.466  33.297  21.706  0.0345  0.2572 -0.0393
83649W        W26562  11.599   0.894  26.076  0.2281 -0.1117  0.0783
83650W        W26563  19.418  27.178  23.358  0.0180  0.1803  0.0183
83651W        W26564  26.254  31.124  28.339 -0.0413  0.0691  0.0011
83652W        W26565  21.816   8.794  24.697 -0.2301 -0.2129 -0.0056
83653W        W26566  22.967  33.415  17.986  0.0576  0.0067  0.1736
83654W        W26567  18.696  20.846  21.311 -0.0361  0.0072  0.1360
83655W        W26568  14.610   1.669  23.164 -0.1867 -0.1845 -0.1646
83656W        W26569  22.453   6.431  14.103  0.1738  0.1775  0.0298
83657W        W26570  20.987  29.943  23.156 -0.0796 -0.0258 -0.0038
83658W        W26571  20.827   1.725  17.613 -0.4503  0.0300  0.1519
83659W        W26572  13.563  11.445  19.861  0.0274  0.0279 -0.1321
83660W        W26573  19.047  31.409  21.636  0.0820 -0.5211  0.0902
83661W        W26574   9.758   1.156  22.343  0.5721 -0.2604 -0.2444
83662W        W26575  18.582   3.123  19.905 -0.0651  0.0537 -0.0914
83663W        W26576  16.628  30.932   2.813 -0.2375 -0.1825  0.0863
83664W        W26577  25.473   1.420  14.384 -0.0187  0.1419 -0.1788
83665W        W26578  27.424   2.284  22.290 -0.1320  0.0348 -0.0517
83666W        W26579  19.972   0.765  13.543  0.0991  0.0944  0.1080
83667W        W26580  15.897   5.745   2.192  0.1045  0.1823 -0.0401
83668W        W26581  16.082   0.123  25.299  0.1997 -0.0298 -0.1102
83669W        W26582  20.884  28.491  27.794  0.0697 -0.2166  0.0615
83670W        W26583  20.884   6.241  15.978 -0.0123 -0.1649 -0.1134
83671W        W26584  13.103   7.399  26.492 -0.1639  0.2212  0.1574
83672W        W26585  15.877   0.819  19.727  0.1279  0.2474  0.0008
83673W        W26586  20.805  32.212   1.093  0.2054 -0.0497  0.0643
83674W        W26587  15.280  29.395   0.878 -0.0416  0.3022 -0.2506
83675W        W26588  23.405  29.809  22.681  0.0134  0.0725 -0.1500
83676W        W26589  17.862   1.622  22.578 -0.0085 -0.2000  0.0822
83677W        W26590  25.550   7.293   2.270 -0.0021  0.0469 -0.1306
83678W        W26591  26.676  29.049  22.611 -0.1530 -0.0714 -0.0636
83679W        W26592  20.521  30.017  24.392 -0.1186  0.2802 -0.1568
83680W        W26593  16.218   4.832  23.930  0.0864 -0.0146  0.1317
83681W        W26594  29.798   5.403  28.975 -0.3663 -0.2666 -0.1472
83682W        W26595  28.011  32.039   5.084 -0.0383 -0.2328 -0.0391
83683W        W26596   7.201   2.511  24.206  0.0884 -0.2041  0.0127
83684W        W26597  12.254   1.306  26.049 -0.0031 -0.0036 -0.1115
83685W        W26598  15.533   0.264  24.222 -0.3251 -0.1781 -0.0037
83686W        W26599  13.300  27.207  17.659 -0.2469  0.3187  0.0437
83687W        W26600  19.544  31.828  22.505 -0.1379 -0.0724  0.0676
83688W        W26601   4.243  33.752  20.716 -0.1779 -0.1104 -0.0430
83689W        W26602  31.456  22.642  25.055 -0.0540 -0.0517  0.0473
83690W        W26603  24.384  33.529  21.494 -0.4693 -0.4197  0.0576
83691W        W26604  21.654  27.589  27.012  0.1922  0.0435 -0.2865
83692W        W26605  34.479   0.052  16.878  0.2190  0.0515 -0.1480
83693W        W26606   8.776   9.075  24.519 -0.0253 -0.1014 -0.3064
83694W        W26607  16.804  14.139  13.149 -0.0415  0.0754 -0.5245
83695W        W26608  17.081  10.942  24.296  0.0632  0.0795 -0.2067
83696W        W26609  30.642  30.657  25.930  0.0725 -0.1383 -0.2222
83697W        W26610  20.238  24.330   2.761  0.3760 -0.0842  0.2079
83698W        W26611  21.569  30.158  28.419  0.1951  0.0842  0.0782
83699W        W26612  19.438  27.830  26.250 -0.0965  0.1281 -0.0512
83700W        W26613  24.521  27.718  28.689 -0.2080  0.2026 -0.0014
83701W        W26614  17.555   1.513  14.146  0.3542  0.0778  0.1694
83702W        W26615  28.653   7.111  15.356 -0.2654 -0.0683 -0.0191
83703W        W26616  17.617   3.730  18.650 -0.3300 -0.3730 -0.1585
83704W        W26617  28.070  34.076  18.937  0.5936 -0.2183 -0.1000
83705W        W26618  22.907  31.546   0.621  0.0645 -0.1878 -0.0513
83706W        W26619  18.642   7.904  27.352 -0.0198 -0.0227  0.1951
83707W        W26620  33.673   1.755  24.505  0.0278  0.0106 -0.0167
83708W        W26621   7.387   1.071  19.766  0.0880  0.0971 -0.1700
83709W        W26622  19.044  33.823  23.468  0.0819  0.3790  0.0125
83710W        W26623  20.981  32.789  22.984 -0.1364 -0.3865  0.0364
83711W        W26624  21.647  24.261  22.831  0.0798 -0.1363  0.1408
83712W        W26625  19.716   2.412  21.938 -0.5250  0.0848 -0.0292
83713W        W26626  29.903   3.955  21.184  0.2174  0.1906 -0.2821
83714W        W26627  27.258  34.313  21.266 -0.0923 -0.1850 -0.0683
83715W        W26628  22.100  31.211  27.167  0.0912 -0.2438  0.1659
83716W        W26629  19.228  20.348  23.997 -0.3523 -0.3070  0.0834
83717W        W26630  26.075  16.679  14.537  0.1908 -0.0412  0.0282
83718W        W26631  24.181  32.744  17.154 -0.1029 -0.2121 -0.1419
83719W        W26632  20.691   7.996  28.171 -0.1264 -0.2655  0.0498
83720W        W26633  16.500  32.322  23.390 -0.0034 -0.0392  0.0690
83721W        W26634  19.673   2.721  29.277 -0.0779 -0.1929 -0.3966
83722W        W26635  15.534  11.518  19.647  0.2160 -0.2410  0.1176
83723W        W26636  18.322   9.294   5.229 -0.2083  0.0296 -0.0197
83724W        W26637  20.352   8.791  26.975  0.2031 -0.2000  0.0958
83725W        W26638  19.856  33.391  25.480  0.1281 -0.1189 -0.0363
83726W        W26639  10.391   1.907  22.198 -0.2926  0.0594  0.1276
83727W        W26640   8.184   2.286  24.964  0.0425  0.1884 -0.0204
83728W        W26641  25.804  22.553  12.599 -0.0413 -0.1999  0.0018
83729W        W26642  22.697  26.425  24.576  0.3908 -0.2314 -0.1167
83730W        W26643  23.857  34.480  17.300  0.0955 -0.0290 -0.0252
83731W        W26644  19.937  32.495  15.315 -0.0937 -0.0676  0.0478
83732W        W26645  15.436   5.467  24.670 -0.2183  0.4773 -0.4609
83733W        W26646  19.479  10.207  13.489  0.3571 -0.0816  0.3904
83734W        W26647  12.911  33.602  22.351 -0.1111  0.1089  0.0858
83735W        W26648  16.693   8.417   4.313 -0.3505  0.1254 -0.1070
83736W        W26649  17.292   2.646   0.312 -0.0946 -0.1483 -0.1073
83737W        W26650  21.895  31.858  14.093  0.0807 -0.1134  0.0132
83738W        W26651  27.507   2.136  24.224 -0.5250 -0.5684 -0.0561
83739W        W26652  31.018   0.010  19.938  0.2256 -0.1455 -0.1141
83740W        W26653   7.486  32.233  19.238 -0.3776  0.0958 -0.0597
83741W        W26654  17.016   6.934  17.579  0.2940 -0.0346 -0.0810
83742W        W26655  26.934   3.915  16.839  0.3088 -0.0786 -0.0277
83743W        W26656  26.409   0.425  16.260  0.1248  0.0508 -0.1034
83744W        W26657  18.485  34.109  16.419 -0.1224 -0.1737 -0.0156
83745W        W26658  12.345  34.362  20.064 -0.0114 -0.0673  0.2483
83746W        W26659  26.356   3.027  19.077  0.0299 -0.3527  0.0117
83747W        W26660  24.874  31.961   3.145  0.1458 -0.3702 -0.0446
83748W        W26661  17.630   1.087  23.970  0.0363 -0.2153 -0.0942
83749W        W26662  19.159   2.062  23.009  0.6576  0.0161  0.2587
83750W        W26663  18.738   7.046  24.848 -0.2697 -0.1244 -0.1867
83751W        W26664   2.740  12.513  24.724  0.0600 -0.0795 -0.5048
83752W        W26665  15.429  27.866  28.202  0.0677 -0.2476 -0.1270
83753W        W26666   5.450  32.372  17.481 -0.3524 -0.0193  0.3512
83754W        W26667  29.890   7.487  21.996 -0.1636  0.0862 -0.2142
83755W        W26668  29.874   7.528  15.888  0.0046  0.1293  0.1330
83756W        W26669  18.581  15.753  26.308 -0.1249  0.0378 -0.1966
83757W        W26670  26.303   0.436  24.305 -0.2870  0.0157 -0.0387
83758W        W26671  19.882   1.846   2.002 -0.1411 -0.1034  0.1441
83759W        W26672  13.684  26.151  19.729 -0.3190  0.2570  0.0267
83760W        W26673  12.135   0.762  18.109  0.1180 -0.1792 -0.1313
83761W        W26674  30.074  15.357  24.279 -0.0166 -0.0956  0.0890
83762W        W26675  20.284  14.128  16.740  0.2130 -0.0154 -0.1402
83763W        W26676  18.931   4.966  22.028  0.0219  0.0029  0.6234
83764W        W26677  18.888  11.002   2.865 -0.3295  0.0370  0.1724
83765W        W26678   0.713   2.375  19.691 -0.2993  0.0441 -0.0412
83766W        W26679  26.447  13.740  20.218 -0.0722 -0.0978 -0.2523
83767W        W26680  21.381   4.375  15.782 -0.0653 -0.0095 -0.2954
83768W        W26681  10.892  30.427  24.112  0.4426 -0.1577  0.3023
83769W        W26682  25.907   4.348  23.377  0.0254  0.1710  0.2467
83770W        W26683  22.249   2.861  14.768  0.0290 -0.2517  0.1717
83771W        W26684  19.708   8.589  14.296 -0.0411  0.1802 -0.0798
83772W        W26685  22.417   7.837  17.798 -0.4448  0.2603 -0.0032
83773W        W26686  19.696  28.201  25.949 -0.1269  0.0323 -0.1254
83774W        W26687  15.945   6.781  20.285 -0.1754  0.0362  0.2267
83775W        W26688  27.126  28.976  18.920  0.0780  0.0609  0.2326
83776W        W26689  18.990  14.975  22.599  0.0899 -0.1327 -0.0623
83777W        W26690  21.989  10.038  22.508  0.2044  0.0163 -0.3313
83778W        W26691   8.084  24.996  20.098 -0.3949  0.0481  0.0082
83779W        W26692  12.805   0.317  17.301 -0.3242  0.4028 -0.0111
83780W        W26693  23.913   7.588  13.830  0.0457  0.0215  0.0039
83781W        W26694  16.765   0.792  16.725  0.0382  0.3311  0.1109
83782W        W26695   2.958  32.495  28.164  0.0289 -0.2532  0.1245
83783W        W26696  19.300  25.859  26.589 -0.4015  0.0172  0.0982
83784W        W26697  22.986  32.575  20.708 -0.1801  0.2297 -0.1697
83785W        W26698  22.416   5.239  27.993 -0.2192  0.1278  0.1077
83786W        W26699  22.862   1.213   0.411 -0.0348 -0.1468  0.1185
83787W        W26700  21.327   2.966  15.333  0.0666 -0.1548  0.0376
83788W        W26701  25.317  29.437  26.275  0.1760 -0.2824 -0.0572
83789W        W26702  14.397   3.591  18.382  0.1647 -0.1353 -0.1716
83790W        W26703  28.760  23.111  23.428 -0.0042  0.1304  0.2854
83791W        W26704   8.976   2.559  25.648 -0.5639  0.0884  0.4858
83792W        W26705  24.042   0.801  18.659 -0.0779 -0.0605 -0.1392
83793W        W26706  13.636  29.481  27.201 -0.2466  0.1172 -0.1884
83794W        W26707  23.159  34.379  23.452 -0.2408 -0.0674 -0.2065
83795W        W26708  24.899  31.102  10.022  0.3004 -0.0581 -0.1045
83796W        W26709  15.574  24.629  20.018  0.0985  0.3190  0.1947
83797W        W26710  18.518  13.019  20.421 -0.0787  0.1104 -0.0936
83798W        W26711  17.315  25.758  25.164 -0.1671 -0.3068 -0.3718
83799W        W26712  24.558   7.448   5.058  0.0047 -0.2270  0.1164
83800W        W26713  25.411   4.245  27.772 -0.2077 -0.1042 -0.2672
83801W        W26714  24.135   6.126   1.337  0.0666 -0.3594 -0.0322
83802W        W26715  10.077   9.558  15.846 -0.2090 -0.2470 -0.2466
83803W        W26716  19.172   4.903  15.255 -0.0695  0.0621 -0.1723
83804W        W26717  15.654  30.358  19.670  0.1126 -0.1732 -0.1636
83805W        W26718  26.959  32.348   2.557 -0.1643  0.3982 -0.0604
83806W        W26719  23.039   0.735  27.113  0.0471 -0.0145 -0.1670
83807W        W26720  14.537  32.933  23.962 -0.0105  0.0703 -0.0662
83808W        W26721  24.760  15.655  24.802  0.0725 -0.0944  0.2192
83809W        W26722  22.988  31.144  20.877  0.3635 -0.3066 -0.0885
83810W        W26723  21.820   8.022  21.339 -0.0388  0.2153 -0.1241
83811W        W26724   8.384  17.443  20.495 -0.0771 -0.5146  0.0505
83812W        W26725  23.726   4.583  26.392  0.0617 -0.0709 -0.1756
83813W        W26726  23.636  31.153  15.590  0.0240 -0.0838 -0.2496
83814W        W26727  29.471  10.346  16.014 -0.3652  0.0756 -0.0469
83815W        W26728  11.027  27.726  25.581  0.0174 -0.2421 -0.1374
83816W        W26729  22.799   5.161  28.317 -0.1805  0.0067  0.0580
83817W        W26730   8.423  26.315  18.950  0.4676 -0.1127  0.2125
83818W        W26731   0.435   0.122   0.172  0.1420 -0.1210 -0.6628
83819W        W26732  27.321  24.737  21.436  0.1736  0.0643 -0.1491
83820W        W26733  23.035   4.336  22.630  0.0397  0.1104 -0.1582
83821W        W26734  19.740   5.352  26.972 -0.1487 -0.0404 -0.0888
83822W        W26735  23.670  33.453   7.353  0.1745 -0.0089 -0.0828
83823W        W26736  28.249  31.759   1.727 -0.3061 -0.1088 -0.2548
83824W        W26737  19.432   0.789  26.488 -0.2290  0.2863  0.0703
83825W        W26738  13.783  31.980  22.038  0.0707 -0.0819 -0.0637
83826W        W26739  20.240   1.296  14.699 -0.1241  0.2264 -0.3084
83827W        W26740  22.092  24.759  14.977 -0.0222  0.1528  0.1005
83828W        W26741  16.231   8.556  23.656 -0.1245 -0.1571  0.2752
83829W        W26742  22.786  28.876  16.859 -0.3272 -0.2333  0.3462
83830W        W26743  29.807   6.792  26.478  0.1133 -0.0795 -0.1998
83831W        W26744  19.599   8.536  23.388 -0.5305  0.0622 -0.3157
83832W        W26745  10.175  10.644  21.101 -0.2759  0.3064 -0.0240
83833W        W26746  25.282   0.592  14.731 -0.1543 -0.0373  0.1698
83834W        W26747  29.537   4.165  17.165 -0.0141 -0.1556 -0.0820
83835W        W26748   9.119   7.217  24.561 -0.5418  0.0792 -0.1005
83836W        W26749  16.947   9.935  15.076  0.1080 -0.1734  0.1559
83837W        W26750  19.320   6.299  19.408  0.2167  0.3229 -0.0567
83838W        W26751  23.583   8.970  14.056  0.1750  0.1334  0.2640
83839W        W26752  32.283  32.516  26.846 -0.3815 -0.1823  0.0646
83840W        W26753  22.875  28.507  18.220  0.0481  0.0567  0.2575
83841W        W26754  21.851   5.428  28.004 -0.0445  0.0226 -0.1299
83842W        W26755  24.954  29.892  29.138  0.0786 -0.1420  0.0220
83843W        W26756  18.155   6.053  22.137 -0.1410  0.0100 -0.2793
83844W        W26757  22.069   3.466  29.021  0.0420  0.2048 -0.4677
83845W        W26758  14.885  32.947  25.702 -0.3940 -0.2591  0.1571
83846W        W26759  24.411  10.587  22.249  0.1117  0.1224 -0.2249
83847W        W26760  20.011   3.420  20.858 -0.1933  0.1271 -0.0080
83848W        W26761  26.263  30.994  21.376 -0.5465  0.1273  0.0420
83849W        W26762  22.915   2.168  14.267  0.3887 -0.1065 -0.0771
83850W        W26763  25.043  24.194  25.269 -0.1336  0.2162  0.2904
83851W        W26764  18.064   4.840  24.181 -0.0019  0.2231 -0.3435
83852W        W26765  13.308   3.837  28.930  0.0737  0.2403  0.1881
83853W        W26766  16.502  31.256  26.281  0.1922 -0.0846 -0.1650
83854W        W26767  15.457  26.450   2.554  0.4748  0.3673  0.1671
83855W        W26768  24.562   1.689  22.552  0.0375  0.2261  0.2646
83856W        W26769  14.238   6.766  24.093  0.1211  0.0226 -0.2290
83857W        W26770  20.184   1.685   2.485  0.0790  0.1143 -0.0058
83858W        W26771   9.178   8.573  16.548  0.1018  0.1635 -0.0926
83859W        W26772  20.876   7.228  18.756 -0.0084  0.3857 -0.2462
83860W        W26773  22.606  16.356  13.694  0.3439  0.1012  0.3285
83861W        W26774  14.290   5.231  21.981 -0.1044 -0.1191  0.0176
83862W        W26775  25.643  26.752  13.878  0.1879 -0.2727 -0.0961
83863W        W26776  23.978  34.174  23.022 -0.3582 -0.4457  0.3222
83864W        W26777  11.412  31.756  17.636 -0.3319 -0.0563  0.2128
83865W        W26778  11.708  30.602  21.056  0.1507 -0.2543 -0.2540
83866W        W26779  22.216   8.573  29.093  0.1285 -0.3271 -0.1283
83867W        W26780  15.539   1.789  20.894 -0.0453  0.1859  0.3213
83868W        W26781  15.913  34.327   0.690 -0.4472  0.2144 -0.0313
83869W        W26782  25.972   0.642  27.996  0.2602 -0.1740  0.0125
83870W        W26783  16.002   4.451  15.358 -0.0312 -0.0275  0.1642
83871W        W26784  20.679  32.059  15.031 -0.0635 -0.3383  0.2679
83872W        W26785  22.836   1.210   1.067 -0.0856 -0.1005  0.3160
83873W        W26786  11.970   0.398  11.523  0.0755  0.3087 -0.1403
83874W        W26787  16.152  28.254  19.787 -0.1101 -0.3636 -0.1629
83875W        W26788  15.186  29.149  27.257  0.0004 -0.1711  0.0361
83876W        W26789  18.209   2.537  16.764 -0.0562  0.1547  0.0529
83877W        W26790  22.026  32.383   3.624 -0.0289  0.0920 -0.1594
83878W        W26791  19.702  33.768  23.910 -0.0521  0.1091 -0.1070
83879W        W26792  18.568   5.346  28.179 -0.0133 -0.1313 -0.1221
83880W        W26793  15.819   7.173  28.188 -0.0210  0.1340 -0.1027
83881W        W26794  29.252   0.677  20.834  0.0259 -0.2338  0.0667
83882W        W26795  23.033  10.516  20.213 -0.0818  0.3875  0.0228
83883W        W26796  20.401   9.176  23.968  0.1427 -0.0414 -0.1576
83884W        W26797  21.261   4.995  22.506 -0.0654  0.2703 -0.0738
83885W        W26798  18.305   1.227  20.685 -0.4374  0.2553  0.2940
83886W        W26799  15.790  34.047  19.026  0.3682 -0.4622 -0.1226
83887W        W26800   5.479  27.690   0.495  0.2165  0.0736 -0.0562
83888W        W26801  22.512  11.153  12.976 -0.2064  0.0787  0.1637
83889W        W26802  15.181   0.587  24.376  0.0882  0.0127  0.0180
83890W        W26803  14.993   4.820  29.635  0.1314  0.0349  0.0052
83891W        W26804  10.553   5.000  16.604 -0.0466  0.0141 -0.2323
83892W        W26805  21.833  32.111  29.238  0.1884 -0.3401 -0.0899
83893W        W26806  27.285  31.479  15.428 -0.0764 -0.0495  0.1770
83894W        W26807  16.963   8.149  28.326 -0.1235  0.1242 -0.0730
83895W        W26808  26.781  15.071  25.591 -0.3146  0.2435 -0.1993
83896W        W26809  27.155   6.111  22.583  0.1830 -0.4023  0.0008
83897W        W26810  12.487  30.936  16.892  0.0143  0.2076 -0.2296
83898W        W26811  25.849   5.630   5.400 -0.2310  0.0866  0.0550
83899W        W26812  20.038  32.481  29.489  0.2054 -0.0331  0.0408
83900W        W26813  26.446  29.346  20.913  0.0914 -0.0212 -0.0656
83901W        W26814  17.816  23.189  20.971 -0.2601 -0.2217 -0.0065
83902W        W26815  16.036  33.877  20.100  0.2684 -0.2644 -0.1448
83903W        W26816  18.297  34.108  18.686  0.0689  0.1712  0.1052
83904W        W26817  24.097  25.907  26.522 -0.0638  0.1368  0.0964
83905W        W26818  11.504   7.384  20.644 -0.0315  0.0999  0.0628
83906W        W26819  18.962  29.633  26.847 -0.0504  0.1188  0.3774
83907W        W26820  18.171   2.001  23.471  0.0040  0.1021 -0.0278
83908W        W26821  16.051   2.288  15.299 -0.1194 -0.1334  0.2841
83909W        W26822  14.331   1.382  26.451  0.1333  0.1565 -0.0215
83910W        W26823  22.311  32.794  22.723  0.0438 -0.1907  0.2234
83911W        W26824  12.350  34.309  20.688 -0.3069 -0.0643  0.1086
83912W        W26825  14.741  17.397  14.329 -0.1998 -0.3510  0.0972
83913W        W26826  13.619   4.238  16.758 -0.2797  0.1359 -0.0761
83914W        W26827  10.111  34.304   0.924  0.0466  0.0646  0.4783
83915W        W26828  18.190  33.829  29.054  0.3138  0.0519  0.5313
83916W        W26829  13.740   6.522  28.143  0.1509  0.1100 -0.1512
83917W        W26830  22.194   3.788  15.635 -0.0769  0.1963 -0.0753
83918W        W26831  14.655  29.578  17.828 -0.4378 -0.2257  0.0026
83919W        W26832  20.917   2.735  24.883 -0.1327 -0.2905  0.2600
83920W        W26833  19.567  30.952  22.578  0.2583 -0.0664  0.2557
83921W        W26834  23.977   3.468  26.339  0.0294  0.1528 -0.2347
83922W        W26835   5.206  26.974  26.094  0.0626 -0.0749  0.2229
83923W        W26836  14.800  32.810  23.556 -0.1418 -0.3067  0.0875
83924W        W26837  14.231  22.392  19.399 -0.3761 -0.2246 -0.0917
83925W        W26838  28.410  34.283   5.964 -0.2532 -0.0652  0.3200
83926W        W26839  25.125  33.023  25.673  0.1170  0.0016  0.0396
83927W        W26840  16.238  32.264  19.417 -0.2157 -0.2834 -0.1308
83928W        W26841  30.888   4.622  28.023 -0.1642  0.2203  0.0526
83929W        W26842   1.441   2.907  25.247 -0.0605 -0.0898 -0.0815
83930W        W26843  13.700   6.842   4.270 -0.3089  0.1451  0.2377
83931W        W26844  31.893  33.024  18.787  0.1080  0.1851 -0.1028
83932W        W26845  17.176  29.676   5.463  0.3492 -0.1243  0.1501
83933W        W26846  20.303  31.875  25.079 -0.0203 -0.0813  0.1325
83934W        W26847  13.452  28.710  21.638 -0.4490 -0.0129  0.3274
83935W        W26848   8.191   1.007  21.473  0.0964 -0.2192 -0.2604
83936W        W26849  19.802   2.499  27.622  0.4520 -0.3975 -0.2198
83937W        W26850  23.577   4.276  17.542  0.0051 -0.1675 -0.1236
83938W        W26851  31.522  33.984  25.112  0.1945  0.0755 -0.3718
83939W        W26852  26.238  34.153  18.112 -0.0280  0.1296  0.1994
83940W        W26853  23.288   2.965   2.413 -0.0395 -0.0704 -0.2605
83941W        W26854  21.568   9.315   2.573 -0.0828 -0.2410 -0.0068
83942W        W26855  21.116  13.623  19.089  0.5502  0.0008 -0.2200
83943W        W26856   8.025  25.527  26.178 -0.0363 -0.0663  0.2046
83944W        W26857  13.000  31.460  24.138 -0.3708  0.0024 -0.0286
83945W        W26858   6.059  29.027  25.658 -0.0318 -0.1029 -0.1489
83946W        W26859  18.422  32.270  26.703 -0.1202  0.2292 -0.1523
83947W        W26860  22.467  29.179  21.840  0.2772 -0.2647 -0.2072
83948W        W26861  24.407   3.258  29.161  0.2070  0.0048 -0.3466
83949W        W26862  20.139   6.128  19.153 -0.1866 -0.0837 -0.0082
83950W        W26863  17.645   1.886  29.297  0.0762  0.2254 -0.2763
83951W        W26864  17.180  34.018   0.076  0.1272  0.0654  0.0412
83952W        W26865  20.398   0.319  20.862  0.0486  0.2339  0.2058
83953W        W26866  10.018   9.453  22.325 -0.3213 -0.1105  0.1333
83954W        W26867  26.568  31.586  16.097  0.0921  0.0025  0.5651
83955W        W26868  17.198   1.635  22.979 -0.3260  0.1230 -0.0043
83956W        W26869  22.725  29.710   4.849 -0.0675 -0.2109  0.0520
83957W        W26870  29.472  29.827   0.958  0.0858  0.0520 -0.2854
83958W        W26871  20.015   6.254  19.753  0.2502  0.2038  0.1689
83959W        W26872  21.927   2.282   2.583 -0.1051 -0.0279 -0.0227
83960W        W26873  14.577  28.718  29.172  0.1471  0.0927 -0.0936
83961W        W26874  13.199   5.161  22.096  0.3470  0.1028 -0.0456
83962W        W26875  15.827  25.517  25.584 -0.2172  0.0898 -0.0291
83963W        W26876  20.948   0.923   4.494 -0.0508 -0.1835 -0.0085
83964W        W26877  17.304   0.582  18.815  0.3625  0.0082  0.2790
83965W        W26878  12.768  30.594  27.247  0.0877 -0.2324 -0.0775
83966W        W26879  25.540  14.454  16.336 -0.3177 -0.1185  0.2779
83967W        W26880  12.492   4.095   1.104 -0.0435  0.0849  0.0120
83968W        W26881  21.892   0.486  15.227  0.2182 -0.1571  0.1297
83969W        W26882  32.286   0.290  15.455 -0.1096 -0.2222 -0.2070
83970W        W26883  27.994  31.077  22.729  0.0229 -0.0350 -0.1697
83971W        W26884  26.701   0.809   6.064  0.1513 -0.1957  0.1214
83972W        W26885  27.259   0.718  23.124  0.2644  0.0875 -0.1358
83973W        W26886  23.075  27.479  21.959 -0.1577  0.0027 -0.1638
83974W        W26887   8.087   5.976  26.297 -0.0477 -0.3594 -0.1088
83975W        W26888  18.827   6.748  28.168 -0.0904  0.1325 -0.1461
83976W        W26889  10.151  30.845  25.969 -0.1144  0.0960 -0.1881
83977W        W26890  14.896  24.389  17.632  0.2798  0.1148 -0.3492
83978W        W26891  22.716   7.711  21.258 -0.1699 -0.3453  0.2578
83979W        W26892  16.703   6.310  16.405 -0.3534  0.0833 -0.0289
83980W        W26893  21.912  20.794  16.688 -0.1532  0.0752 -0.4073
83981W        W26894  23.039   5.011  17.821  0.0396  0.0846 -0.3037
83982W        W26895  15.298   3.802  17.993  0.1478 -0.0356  0.1200
83983W        W26896  25.273  31.796  25.843 -0.0638 -0.2290  0.0204
83984W        W26897  18.023   3.951   4.423 -0.1372 -0.1596  0.0628
83985W        W26898  24.516  27.736  18.005 -0.0256 -0.3431 -0.0390
83986W        W26899  15.910  33.544  21.965 -0.1166  0.0066 -0.1941
83987W        W26900  10.071  34.329  24.291 -0.0516  0.1086  0.0621
83988W        W26901  25.023  29.400   5.072 -0.3049 -0.0354  0.2544
83989W        W26902  14.775  28.815  21.078 -0.0055 -0.0036  0.2995
83990W        W26903  24.716   7.774  22.122 -0.0636 -0.0382 -0.1647
83991W        W26904  14.849   2.532  28.486 -0.2074  0.0476 -0.0601
83992W        W26905  16.910  27.323  23.372  0.3124 -0.1272 -0.2066
83993W        W26906  10.699  27.355  25.632 -0.4665 -0.2292 -0.0402
83994W        W26907  23.243  29.670   5.115  0.0717 -0.1313  0.1510
83995W        W26908   6.733  18.213  28.448 -0.0509 -0.0510 -0.1470
83996W        W26909  19.300   0.156   0.010  0.0615 -0.2223  0.2657
83997W        W26910  12.723  30.344  23.366 -0.1534 -0.0786  0.0985
83998W        W26911  25.239  30.166  21.180  0.0762 -0.2176  0.1642
83999W        W26912  15.204  30.770  23.072 -0.1325  0.1665  0.0235
84000W        W26913  27.141   6.077  24.141  0.1756 -0.3640  0.0220
84001W        W26914  33.019  25.979  26.549 -0.0409 -0.0499  0.0830
84002W        W26915  21.289  31.858  15.375 -0.1625  0.0856 -0.0615
84003W        W26916  13.568   9.381   1.989  0.0278 -0.0638  0.3025
84004W        W26917   9.341  28.184  21.885  0.0072  0.1377  0.2081
84005W        W26918  21.685  29.798  20.157 -0.3907 -0.0765 -0.2419
84006W        W26919  14.401   0.664  20.729 -0.3079  0.0657  0.2661
84007W        W26920  15.796   2.697  17.984  0.1692  0.1797  0.0889
84008W        W26921  22.371   8.664  23.216 -0.2786 -0.2210  0.1201
84009W        W26922  14.573  34.237   7.523 -0.2115  0.3556  0.0245
84010W        W26923  21.857  30.675  22.566 -0.0163  0.4132 -0.0388
84011W        W26924  15.656   3.705  28.885 -0.0810  0.1197 -0.2659
84012W        W26925  12.720  32.644  22.589 -0.5068  0.0535 -0.2410
84013W        W26926  14.110   6.843  20.334  0.0536  0.2343 -0.0471
84014W        W26927  27.353  27.679  16.664 -0.1195  0.0715  0.1542
84015W        W26928   0.327  29.588  16.984 -0.0084  0.1619  0.0935
84016W        W26929  23.115   2.250  25.867 -0.0847  0.4481  0.4020
84017W        W26930  25.085   3.602  21.824 -0.3389 -0.1111  0.3041
84018W        W26931  31.441  10.138  21.907  0.1810 -0.0160  0.2808
84019W        W26932  16.839   2.115  19.068  0.3772  0.1985  0.0853
84020W        W26933  27.648  28.934  22.668 -0.2616  0.0700  0.0321
84021W        W26934  22.984   0.587  16.431  0.1609 -0.1080 -0.0694
84022W        W26935  29.109  34.026  29.288  0.4030 -0.1015  0.0992
84023W        W26936  17.815  30.254  22.495  0.0394  0.0061 -0.0451
84024W        W26937  21.263   3.712  14.158  0.1977 -0.0497 -0.1977
84025W        W26938  15.482   5.556   2.502 -0.0778  0.3667  0.0279
84026W        W26939  18.411   2.784  15.278  0.0269  0.0282  0.0346
84027W        W26940  27.480  27.244  14.600  0.0639  0.3244  0.1126
84028W        W26941  22.762   4.541  16.210 -0.3052 -0.0401  0.1561
84029W        W26942  15.751   6.928  26.013  0.0780 -0.0247 -0.2001
84030W        W26943  16.768  34.171  15.748 -0.0342  0.0672  0.1426
84031W        W26944  21.122   5.320  13.790 -0.2258  0.0654  0.1839
84032W        W26945  14.645   7.262  25.126 -0.0339  0.1475  0.1268
84033W        W26946  17.094   1.084   2.717 -0.1649 -0.1190 -0.1490
84034W        W26947  18.762  20.167   0.088  0.0525 -0.1227 -0.0917
84035W        W26948  22.148   1.855  17.763  0.2903 -0.2202 -0.0083
84036W        W26949  17.180   3.001  26.838  0.4239 -0.2671 -0.0050
84037W        W26950  16.474  11.811  18.364  0.4249 -0.0650 -0.2140
84038W        W26951  22.590   4.567   3.681  0.1520 -0.0930  0.0193
84039W        W26952  25.700  13.267  24.767  0.3584 -0.0098 -0.2003
84040W        W26953  10.577   3.165  26.142  0.1858 -0.0087  0.0761
84041W        W26954  22.585   4.088   6.085  0.1688  0.0058 -0.0280
84042W        W26955  26.028   3.354  22.072 -0.1763  0.0620  0.0384
84043W        W26956  13.173   1.331  17.356  0.0213  0.0775 -0.4207
84044W        W26957  20.831   6.866  28.077  0.0540  0.0140 -0.4168
84045W        W26958  17.224   2.846   6.652  0.0257  0.2434 -0.0745
84046W        W26959  25.411   7.506  23.969  0.0906  0.2559 -0.0703
84047W        W26960  20.234   3.229  14.700  0.1267  0.1325  0.0703
84048W        W26961  11.514  27.510  21.364 -0.0869 -0.0831  0.0799
84049W        W26962  10.799   7.666  22.445 -0.2837  0.0418 -0.2051
84050W        W26963  30.269   5.553   2.834 -0.3522 -0.1438  0.0096
84051W        W26964   4.828  28.489  26.752 -0.0683 -0.2076 -0.0744
84052W        W26965  22.313  13.603  29.029 -0.0285  0.0845  0.0087
84053W        W26966  26.418  33.804   2.198 -0.3802  0.2569  0.2377
84054W        W26967  19.848   4.213  24.471  0.0376 -0.1090 -0.2002
84055W        W26968  12.568   1.413  10.776 -0.1103  0.1203  0.3183
84056W        W26969  11.575  34.257  10.598 -0.0462 -0.0376  0.0715
84057W        W26970  19.793   6.759  24.048  0.1868 -0.0929  0.2678
84058W        W26971  21.102  30.691   1.317 -0.1322  0.0486  0.0647
84059W        W26972  26.863   8.642  26.031  0.2651  0.0802  0.3294
84060W        W26973  24.201  34.424   4.425  0.1851 -0.1879 -0.2907
84061W        W26974  10.108  20.087  23.079 -0.0466  0.4265  0.1248
84062W        W26975  16.827  27.278   0.869 -0.0328 -0.2104  0.0056
84063W        W26976  11.176  18.170  29.592 -0.1065 -0.2548 -0.2349
84064W        W26977  19.726   9.737   6.868  0.0745  0.2038  0.5503
84065W        W26978  20.986   2.385  24.499  0.0908 -0.0005 -0.1929
84066W        W26979  26.665   1.824  23.322  0.0893 -0.0057  0.4421
84067W        W26980  17.986   0.823  25.531  0.0254  0.3883 -0.0551
84068W        W26981  16.104   5.940   6.876 -0.0078 -0.1022  0.0197
84069W        W26982  21.611  33.919  27.468  0.2180 -0.0028  0.0051
84070W        W26983  19.832  10.664  25.260  0.2215  0.2918  0.0287
84071W        W26984  33.385   2.413  25.166 -0.1723 -0.2911 -0.1004
84072W        W26985  15.508   2.784  23.677  0.1771  0.0856 -0.3339
84073W        W26986  17.473   3.477  24.597 -0.0022 -0.1314  0.2074
84074W        W26987  10.150   2.735  21.844  0.0094  0.0959 -0.1620
84075W        W26988  19.639   3.271  14.586  0.1782 -0.1625  0.0553
84076W        W26989  24.224   3.236  28.178 -0.1310  0.1021  0.0247
84077W        W26990  25.937   4.342  25.842  0.1156 -0.0215 -0.0237
84078W        W26991  12.068  33.230   6.649 -0.1728 -0.1946  0.3353
84079W        W26992  26.039  30.899  26.594 -0.1318 -0.0638 -0.2146
84080W        W26993  24.640   6.779   1.333 -0.1432  0.4978  0.0657
84081W        W26994  21.548  30.359  18.800 -0.1205  0.0446  0.0538
84082W        W26995  21.251   9.366  25.419  0.0526 -0.0100  0.3387
84083W        W26996  18.775   5.461  27.757  0.3070  0.2817 -0.0839
84084W        W26997  20.334  29.589   4.385 -0.4384 -0.2330  0.1729
84085W        W26998  16.495  31.186   0.397 -0.1627 -0.3259  0.1702
84086W        W26999  22.686   2.210  14.708 -0.0519 -0.0123  0.3961
84087W        W27000  28.326   0.336  29.038  0.0244  0.0021  0.0924
84088W        W27001  13.455   2.133  27.662 -0.2121  0.0387  0.0326
84089W        W27002  17.483  33.046  29.426  0.0530 -0.3083  0.1491
84090W        W27003   8.444   0.536  21.540 -0.2782 -0.1078 -0.1972
84091W        W27004  15.734   1.577   1.968  0.2219 -0.1875 -0.1311
84092W        W27005   7.090  26.210  29.635 -0.1157  0.1814  0.2840
84093W        W27006  24.698  25.126   4.508  0.1919  0.1710 -0.2620
84094W        W27007  26.305   2.199   2.822 -0.2888 -0.1798  0.0109
84095W        W27008   8.168   2.457  28.156 -0.3276  0.0858 -0.0549
84096W        W27009  31.607   1.662   9.968  0.2368  0.1838 -0.0442
84097W        W27010  24.351   1.967   1.141  0.0378  0.0158 -0.2200
84098W        W27011  25.323   9.434  25.409  0.1024  0.2433  0.0007
84099W        W27012  14.491   2.735  22.050 -0.0515  0.0136  0.2802
84100W        W27013  18.255   1.301   0.361  0.0610 -0.0686 -0.0053
84101W        W27014  17.408   4.249  17.046  0.4354  0.0699 -0.0424
84102W        W27015  15.267   8.272  27.688 -0.3504  0.0859  0.1065
84103W        W27016  18.876  17.738  27.588  0.1079 -0.0278  0.0330
84104W        W27017  21.516   5.520  24.465  0.2307 -0.1022  0.0288
84105W        W27018  16.241   3.241  25.933  0.3266 -0.0189  0.1959
84106W        W27019  16.197   4.249  17.795 -0.0852 -0.0804 -0.1363
84107W        W27020  22.572  30.687   0.185 -0.0696  0.0379 -0.0274
84108W        W27021  18.097   8.669  29.148 -0.1178  0.0695  0.1496
84109W        W27022  18.941  31.421   0.118  0.1652  0.0873 -0.0323
84110W        W27023  14.451  10.785  26.966  0.1024 -0.0642 -0.0516
84111W        W27024  18.076  34.127  27.498  0.1176  0.3795  0.0976
84112W        W27025  17.384   0.965   3.420 -0.2136  0.2234  0.1319
84113W        W27026  21.777   7.488   3.150  0.1264 -0.1430 -0.0450
84114W        W27027  23.930   3.519   2.794  0.0453  0.1445  0.1678
84115W        W27028  17.904  33.441  29.499 -0.1637  0.0701  0.1564
84116W        W27029  18.029  27.077   1.954 -0.0895 -0.0891 -0.1053
84117W        W27030  19.571   6.645  23.524  0.0510 -0.3652 -0.0776
84118W        W27031  28.808  28.218   1.609  0.0053 -0.1396 -0.0193
84119W        W27032   8.354  13.942  19.993  0.1907  0.0408 -0.0499
84120W        W27033  21.720   8.920  13.206  0.1697  0.3548 -0.2553
84121W        W27034  17.503   3.682  20.425 -0.1033 -0.0385 -0.1586
84122W        W27035  25.534   3.733   3.443  0.1803  0.1235  0.1340
84123W        W27036  20.266   0.024   9.581  0.0547 -0.0563 -0.0301
84124W        W27037  16.225   4.013  24.613 -0.2494  0.0052 -0.1530
84125W        W27038  13.124  34.165  18.585 -0.2496  0.1496  0.0857
84126W        W27039  25.313  33.794  26.715 -0.0116 -0.2345  0.1885
84127W        W27040  21.478  30.624  27.616 -0.1478 -0.2285  0.0204
84128W        W27041  26.092  32.775  29.420  0.1317  0.2096 -0.1803
84129W        W27042  18.513   1.986   6.142 -0.0503 -0.1271  0.1734
84130W        W27043   0.777  26.305   0.999 -0.3036 -0.1713 -0.1031
84131W        W27044  17.296  31.654   3.603 -0.1345 -0.0786  0.0757
84132W        W27045  12.722   3.751   5.565 -0.1582  0.0708 -0.0006
84133W        W27046   5.761  33.235  24.041  0.0850  0.0535  0.0249
84134W        W27047  31.117   3.776  28.115  0.0706  0.0318 -0.3988
84135W        W27048  15.544   5.070  25.872 -0.2722 -0.0182  0.0565
84136W        W27049  20.534   3.064  10.488 -0.0331 -0.1181  0.1186
84137W        W27050  32.303   8.815  22.880 -0.0088  0.0323  0.1293
84138W        W27051  13.614  28.197  26.580  0.2258 -0.0907 -0.0439
84139W        W27052   6.426  22.321  19.444  0.0338 -0.0666  0.1059
84140W        W27053  21.484   0.327   9.514 -0.2241  0.2559  0.3025
84141W        W27054  16.528   3.883  23.993 -0.1597 -0.3484 -0.2048
84142W        W27055  24.473  27.828   4.173  0.0388  0.0460 -0.2994
84143W        W27056  23.113  26.115   5.181 -0.0211  0.1029  0.0309
84144W        W27057  11.782   0.097   5.445  0.1731 -0.1688  0.0821
84145W        W27058  23.983  28.078   5.427  0.1631  0.0618 -0.1590
84146W        W27059  23.933   5.006  19.953  0.1577 -0.2724 -0.0413
84147W        W27060  20.780  32.036   0.647 -0.1177  0.4621 -0.1239
84148W        W27061  17.689   1.118   3.808  0.1823  0.1888  0.2304
84149W        W27062  27.720  32.833  22.224  0.0039  0.2794  0.0878
84150W        W27063  21.606  31.183  15.212  0.0652 -0.1460  0.0645
84151W        W27064  17.163   4.907  17.824 -0.0717  0.2262  0.1325
84152W        W27065  25.417  10.562   2.248 -0.0445  0.0636  0.2602
84153W        W27066  24.730   1.309   4.432  0.4571  0.0984  0.0829
84154W        W27067  21.838   5.492   3.028 -0.0144  0.1700  0.0415
84155W        W27068  15.742  13.620  19.538 -0.2018  0.3529  0.4017
84156W        W27069  23.227  11.590  27.230  0.0590 -0.1748 -0.0374
84157W        W27070  17.183  19.419  22.879  0.0464  0.0237 -0.1414
84158W        W27071  23.298  11.117  25.940 -0.2819 -0.0439 -0.1306
84159W        W27072  26.787   0.839  21.459 -0.0237 -0.1755 -0.0783
84160W        W27073  19.520  12.712  27.791  0.4134 -0.0244  0.0713
84161W        W27074  20.632   9.222  16.550  0.2928 -0.3366  0.2919
84162W        W27075  18.232   1.577  23.281 -0.0179 -0.0436  0.0310
84163W        W27076  22.090   0.580  28.139  0.1865 -0.2336  0.1505
84164W        W27077   8.796  18.994  22.674 -0.2037 -0.0026  0.1573
84165W        W27078  19.377  29.758  28.899  0.1351  0.0283 -0.0031
84166W        W27079  20.620  30.585   9.180 -0.1070 -0.2919 -0.0907
84167W        W27080  23.093  30.491  21.952 -0.0598  0.1223 -0.1104
84168W        W27081  13.697  31.257   0.213  0.0044 -0.1790 -0.0576
84169W        W27082  28.090  27.801  28.224 -0.0531  0.0066 -0.0468
84170W        W27083  23.229  26.910  15.277 -0.2484 -0.2593 -0.2379
84171W        W27084  13.434  32.275   1.034  0.2234  0.3425  0.1592
84172W        W27085  28.689  30.390  23.003  0.1637 -0.2059 -0.2535
84173W        W27086   0.572  23.771  29.198 -0.0437 -0.2096 -0.0868
84174W        W27087  19.829  33.045  19.918 -0.0861 -0.1387 -0.0526
84175W        W27088  12.304   4.589  20.843 -0.0767 -0.1784 -0.0474
84176W        W27089  23.744   3.183   9.824  0.3167 -0.1372  0.1622
84177W        W27090  20.606  32.558  21.831 -0.0089 -0.0099  0.0988
84178W        W27091  30.102   3.329   4.728 -0.0250 -0.1172 -0.1391
84179W        W27092  22.565  30.557  25.726 -0.0248 -0.1164  0.2322
84180W        W27093  14.089  34.023  23.272 -0.0671 -0.2370  0.2288
84181W        W27094  20.130   9.878  24.020  0.0484  0.0863  0.2945
84182W        W27095  15.135  27.694  23.438  0.0257 -0.0326  0.2510
84183W        W27096  20.984   2.734  26.446  0.0714 -0.2670  0.1254
84184W        W27097  25.197   5.429  16.215 -0.3001  0.0774 -0.1513
84185W        W27098  27.911  13.907  28.741 -0.0228 -0.0563  0.2176
84186W        W27099  22.487  32.976  26.171  0.1883 -0.1266 -0.1156
84187W        W27100  26.874   1.891  15.604 -0.2136  0.1731 -0.1590
84188W        W27101  19.439   0.922  18.664 -0.2283 -0.0122  0.2102
84189W        W27102  29.641  21.002  24.814  0.1432  0.2148 -0.0536
84190W        W27103  24.624   3.424  10.091  0.0936 -0.1093  0.0280
84191W        W27104  32.358  33.662   6.686 -0.1202  0.1448  0.0522
84192W        W27105  23.003  28.499  21.838 -0.3421 -0.0526 -0.1647
84193W        W27106  15.196   3.505  15.019  0.2586  0.1032 -0.2590
84194W        W27107  29.212  30.915  28.248  0.2598  0.2430 -0.0886
84195W        W27108  26.033   6.131  23.336  0.1339 -0.2381 -0.0522
84196W        W27109  13.282   0.839  24.176  0.2714  0.0887 -0.1696
84197W        W27110  18.688  27.093  21.765 -0.2969  0.2506 -0.1371
84198W        W27111  24.661  31.045   6.803  0.1263 -0.0766 -0.2402
84199W        W27112  25.094   1.382  19.624 -0.2143  0.0064  0.1253
84200W        W27113  13.584  29.806   3.362  0.1315 -0.2409  0.4594
84201W        W27114  13.868   0.787  28.158  0.2600 -0.4181  0.0271
84202W        W27115  12.217  12.703   5.813 -0.3999  0.0368  0.0677
84203W        W27116  22.856   6.450   8.569  0.0072 -0.0298  0.2765
84204W        W27117  23.164  32.504  17.465  0.2588  0.1975  0.1345
84205W        W27118  22.181  28.582  16.097 -0.2360 -0.0433 -0.0646
84206W        W27119  13.531  31.648  22.304  0.1914 -0.1589  0.1011
84207W        W27120  18.182  27.681  27.173  0.3450 -0.3033  0.2995
84208W        W27121  20.894  34.297  27.678  0.1981 -0.1827  0.0764
84209W        W27122  22.357  30.001   5.129 -0.0868  0.0554  0.2111
84210W        W27123  16.580  33.946  17.278  0.5003 -0.0325  0.1946
84211W        W27124  19.617  31.184  15.245 -0.0929 -0.1167  0.0229
84212W        W27125  20.299   7.524  21.150 -0.0578 -0.0813 -0.0866
84213W        W27126  31.997   0.019  22.981  0.0656 -0.0097 -0.0651
84214W        W27127  30.893  32.507   3.425 -0.1679 -0.0326 -0.1934
84215W        W27128  20.115   1.111  19.319 -0.0470 -0.1565  0.3227
84216W        W27129  11.136  31.937   0.487  0.2793  0.0876 -0.1519
84217W        W27130   8.595  27.929  29.271  0.2998 -0.0370  0.2431
84218W        W27131  21.865   6.292  28.976 -0.1285 -0.3274 -0.1694
84219W        W27132  27.480  31.432  24.041  0.2411 -0.0440 -0.2118
84220W        W27133  18.371   7.707   1.617  0.0498 -0.2771 -0.2507
84221W        W27134  24.688   2.993   7.749 -0.0793 -0.1197  0.3016
84222W        W27135  18.262  33.187  20.221  0.0492 -0.0241  0.3801
84223W        W27136  18.219  29.019   4.131  0.0946 -0.0309  0.0457
84224W        W27137  18.940   0.454  27.172  0.0675 -0.0001 -0.1400
84225W        W27138  18.317  26.055  29.637  0.1621  0.3042 -0.2897
84226W        W27139  20.629   4.944   4.498  0.1505  0.0135  0.0883
84227W        W27140  21.327  11.764   5.316  0.1218  0.4107  0.4155
84228W        W27141  22.387   4.000   0.469  0.2280 -0.0382  0.3307
84229W        W27142  11.022  20.139  28.772 -0.2198 -0.0903 -0.3773
84230W        W27143  22.422  12.878  26.970 -0.0000  0.0587  0.0237
84231W        W27144  20.159  28.967  27.019  0.0036  0.1306 -0.4408
84232W        W27145  30.520  32.736   9.731  0.2331 -0.0148 -0.0699
84233W        W27146  29.485  30.959  24.396  0.1193 -0.0661  0.0040
84234W        W27147  15.544   8.910   1.900 -0.1616  0.0928  0.0685
84235W        W27148  18.938   0.165   8.168  0.2605  0.0822 -0.1891
84236W        W27149  18.944   9.321   0.810  0.1241  0.1213  0.1776
84237W        W27150  11.310  27.275   8.288 -0.0354 -0.0954  0.1717
84238W        W27151  15.053   6.100  20.335 -0.1277  0.2148  0.2508
84239W        W27152  13.705   8.644   4.049 -0.1351 -0.2262  0.0951
84240W        W27153  18.948   5.507   3.971  0.2122 -0.2843 -0.1306
84241W        W27154   8.826  19.233  25.834  0.1831 -0.2961 -0.0809
84242W        W27155  24.294   9.833   0.935 -0.0923 -0.1260  0.2020
84243W        W27156  19.315   9.643   0.958 -0.0231 -0.1200  0.0090
84244W        W27157  25.084   9.577  23.699 -0.0364  0.1040  0.2363
84245W        W27158  15.366  33.231  20.447 -0.0272  0.0330 -0.0526
84246W        W27159  15.829   5.750   9.551  0.2098  0.0772  0.1120
84247W        W27160  25.799  30.722  18.001  0.1071  0.1040  0.2676
84248W        W27161  16.390  31.678  25.627  0.1040  0.1760 -0.0063
84249W        W27162  22.279  28.139  15.829 -0.0933  0.0586  0.0601
84250W        W27163  31.620   5.234   1.854 -0.1148  0.2047 -0.0814
84251W        W27164  10.617   6.835  20.963 -0.0316 -0.1538 -0.0876
84252W        W27165  17.644  32.626   7.319 -0.2788 -0.0711 -0.0700
84253W        W27166  18.302  32.259  27.446 -0.0695 -0.0840  0.1636
84254W        W27167  25.387   3.630   1.604  0.1764 -0.0776 -0.1647
84255W        W27168  18.792   1.194  27.418 -0.4846 -0.0066  0.0394
84256W        W27169  27.205   0.671  22.383  0.2499  0.0322 -0.0634
84257W        W27170  18.961   9.554  28.725 -0.1485 -0.1256  0.0510
84258W        W27171  21.171   0.506  21.000 -0.0318 -0.0931  0.0674
84259W        W27172  18.175   3.731   0.399  0.1217  0.4586  0.0822
84260W        W27173  22.178  30.732   4.649 -0.0826 -0.0011  0.0789
84261W        W27174  20.960   5.912  19.279 -0.1246 -0.2979  0.3588
84262W        W27175  26.460  33.607  22.974  0.0010  0.0272 -0.1389
84263W        W27176   9.867  33.245  22.203 -0.3200  0.0193  0.3299
84264W        W27177  25.906  28.474  20.255  0.0490 -0.1247  0.0917
84265W        W27178   0.390  26.350  22.277  0.0627 -0.0041  0.0657
84266W        W27179   4.464   3.826   2.177 -0.0446 -0.3222  0.0589
84267W        W27180  22.762   1.872  22.668 -0.1869  0.0685 -0.2184
84268W        W27181  25.579   8.327   6.837 -0.0351  0.0907 -0.1952
84269W        W27182  21.332  16.054  22.829 -0.0351  0.0190 -0.0196
84270W        W27183  10.559   3.862   1.133 -0.4376  0.1855  0.1749
84271W        W27184  28.009  32.257   4.579 -0.0479 -0.0370  0.1401
84272W        W27185  18.234  25.923   2.105 -0.0592 -0.0168 -0.0845
84273W        W27186  18.843   3.578  25.914 -0.1764 -0.2449  0.2309
84274W        W27187  12.458  34.258   0.753  0.0021 -0.3231  0.1246
84275W        W27188  16.268   7.631  26.744 -0.2001 -0.2743 -0.4196
84276W        W27189  18.279  29.030  19.503 -0.2374 -0.2535 -0.0511
84277W        W27190  15.509   3.584   6.896  0.2681  0.0147  0.0989
84278W        W27191  17.155  30.523  17.909 -0.2987 -0.1910 -0.1439
84279W        W27192  20.164   7.107  17.696 -0.2242  0.1434  0.1115
84280W        W27193  12.197   4.771   1.169 -0.2335 -0.2208 -0.0782
84281W        W27194  31.620   5.219  17.930  0.0680  0.0149  0.1381
84282W        W27195  21.435   3.450  24.673  0.1719 -0.1249  0.1242
84283W        W27196  18.325  31.636  24.683  0.0688  0.5924 -0.1891
84284W        W27197  20.615  29.781  27.279  0.2522 -0.2061 -0.1323
84285W        W27198  18.116   2.023   1.482 -0.2809  0.1086 -0.0162
84286W        W27199  22.211  31.124  15.427  0.0516 -0.1392 -0.2226
84287W        W27200  25.535   0.515  22.086 -0.1135 -0.0908  0.1663
84288W        W27201  23.411  33.175   9.209  0.0853 -0.0013  0.0391
84289W        W27202  10.359   6.361  16.335 -0.0677  0.2793  0.2870
84290W        W27203  21.775  23.942  24.466 -0.3400 -0.0872 -0.1769
84291W        W27204  21.690   8.860   3.898  0.1700  0.2404  0.3504
84292W        W27205  21.326  30.399  23.925  0.3080  0.0975  0.0223
84293W        W27206  20.351   4.975   6.812  0.3028 -0.1201  0.1057
84294W        W27207  15.650   8.112  26.320 -0.0142 -0.3526 -0.0658
84295W        W27208  15.512  29.504  20.910 -0.0468  0.0072  0.1243
84296W        W27209  21.262  30.030   5.736 -0.1571 -0.0232  0.3168
84297W        W27210  13.211  31.646  29.570 -0.1226  0.1237 -0.1524
84298W        W27211  17.921   3.577  29.204 -0.0398  0.0608  0.3219
84299W        W27212  29.660  33.524   7.053 -0.2279  0.1513  0.2344
84300W        W27213  23.339   6.536  28.676 -0.2716  0.0038 -0.1148
84301W        W27214  23.249   8.772  21.887 -0.1628  0.0203  0.0408
84302W        W27215  24.270  18.949   3.816 -0.1589 -0.0099  0.0053
84303W        W27216  22.545   3.502  29.049 -0.4132 -0.2969 -0.0077
84304W        W27217  23.293   5.654  26.915  0.0751 -0.0977 -0.3329
84305W        W27218  32.931  21.276  21.397 -0.1121  0.2716  0.0853
84306W        W27219  25.846   2.351  28.180  0.0693 -0.0217  0.3748
84307W        W27220  29.032  27.925   3.888 -0.0503  0.1650 -0.0082
84308W        W27221  12.249  34.324   2.693  0.3602  0.1661 -0.0885
84309W        W27222   9.353   0.883  22.831  0.1263 -0.0345 -0.1288
84310W        W27223  15.825  34.369  22.245  0.5424  0.0006 -0.0988
84311W        W27224  20.476   1.431  28.076 -0.0849  0.1108  0.0096
84312W        W27225  10.233   3.553  26.205  0.1112  0.2062  0.3663
84313W        W27226  24.453  27.016   3.101 -0.2327  0.2841 -0.2850
84314W        W27227  13.099   5.301  28.710  0.0236 -0.2507  0.0958
84315W        W27228  22.815  12.521  29.374  0.1194  0.0064 -0.0618
84316W        W27229   4.952   6.443  27.744 -0.0186  0.0069  0.3267
84317W        W27230  26.091  32.954  19.588 -0.1489 -0.1085  0.4098
84318W        W27231  18.833  27.013  28.481 -0.2232 -0.1162 -0.0260
84319W        W27232   7.499  34.122  21.953  0.1612 -0.1014  0.0429
84320W        W27233  11.924  33.445  17.097 -0.0109 -0.1142 -0.1547
84321W        W27234  18.212  30.757  27.158 -0.0061  0.3136 -0.0494
84322W        W27235  29.881   2.680   4.089 -0.0706  0.1379  0.0919
84323W        W27236  20.612  11.836  23.767  0.1561 -0.0158  0.0616
84324W        W27237  21.692  26.536  17.500  0.0743  0.2535  0.2595
84325W        W27238  15.650   5.640   3.923  0.0179  0.1064  0.3133
84326W        W27239  24.590  20.452   1.974  0.1242 -0.1122 -0.2178
84327W        W27240  26.395  29.036   8.454 -0.1780  0.2212 -0.0050
84328W        W27241  24.772  31.912   4.514 -0.1109 -0.0347  0.0885
84329W        W27242  14.964  26.055  25.027  0.0854 -0.0741  0.0642
84330W        W27243  15.063   7.255   4.137 -0.0220  0.0269 -0.3039
84331W        W27244   2.854   1.866  29.606  0.0060  0.1396 -0.1533
84332W        W27245  28.402   9.171   6.934 -0.2881 -0.2176  0.4578
84333W        W27246  21.847   2.008   1.426  0.0963 -0.0317  0.0089
84334W        W27247   2.454  28.842  24.475 -0.2192  0.1249 -0.1861
84335W        W27248  10.292  30.499  28.467  0.0688 -0.0397  0.3012
84336W        W27249  28.189  32.953   1.695 -0.1442 -0.2558  0.0806
84337W        W27250  28.107   1.228  27.233 -0.3205 -0.0253  0.1819
84338W        W27251  18.578  32.792  20.084  0.1935 -0.2945 -0.1427
84339W        W27252  12.428   9.802  22.146  0.1612 -0.1189  0.1144
84340W        W27253  16.945   5.544  21.475  0.1541  0.0619 -0.2111
84341W        W27254  20.422   9.561  12.676 -0.0376  0.0286 -0.4518
84342W        W27255  31.126   5.373   0.498  0.0683 -0.0723 -0.1305
84343W        W27256  26.960   3.852  25.024  0.1076  0.1037 -0.1157
84344W        W27257  21.986  32.222   0.962 -0.2363  0.0743 -0.2238
84345W        W27258  21.614  33.989  28.724 -0.1964 -0.1226  0.0779
84346W        W27259  15.150  17.453  29.510 -0.0040 -0.1787 -0.0929
84347W        W27260  18.473   9.402  28.660  0.2401 -0.3246 -0.1799
84348W        W27261  23.778  31.402   7.713  0.2473  0.0303 -0.0517
84349W        W27262  27.950   2.346  26.110  0.1941  0.0292 -0.0382
84350W        W27263  24.687  29.514   2.802 -0.0149  0.0324  0.3759
84351W        W27264  17.385   7.191  18.407  0.1532  0.1067  0.1338
84352W        W27265  28.310   8.967  28.023  0.3099  0.1461  0.2723
84353W        W27266  28.147   6.559  22.332  0.0746 -0.0363  0.1236
84354W        W27267  23.186   0.203   0.462 -0.1048 -0.0424  0.0200
84355W        W27268  26.898  30.497  27.065  0.0690 -0.2303  0.0274
84356W        W27269  24.489  28.495  19.614 -0.1235  0.4391  0.2373
84357W        W27270  25.755  33.688  23.606 -0.0693  0.0255 -0.0539
84358W        W27271  22.229   2.215  19.141  0.3481  0.2098  0.2561
84359W        W27272  30.593   6.068  29.734 -0.0354  0.2219  0.0390
84360W        W27273  17.018   3.105  22.430 -0.1503  0.0764  0.3409
84361W        W27274  14.896   5.108  22.581  0.1484 -0.2159  0.0333
84362W        W27275  21.193  29.813  18.132 -0.0413  0.2010 -0.0418
84363W        W27276  21.899   1.458   4.541  0.0170  0.2501  0.2051
84364W        W27277  12.933   6.937  23.376 -0.1101 -0.1977 -0.0737
84365W        W27278  22.427  30.768  16.784 -0.1985  0.2205  0.0205
84366W        W27279  25.078  11.245  22.926 -0.0459  0.3089 -0.0841
84367W        W27280  30.528  27.497  29.222 -0.0138  0.2237  0.0987
84368W        W27281  29.323   6.795   8.868  0.0249 -0.0594 -0.0624
84369W        W27282  19.705   7.558  23.585  0.1150  0.1714  0.3528
84370W        W27283  28.697  30.271  29.425 -0.0827  0.1327  0.0522
84371W        W27284  14.003  33.957  29.082  0.3755  0.1062 -0.0685
84372W        W27285  19.850   6.274   4.581 -0.0106  0.4784 -0.0487
84373W        W27286  26.501  12.207  28.607 -0.2368 -0.0070 -0.1792
84374W        W27287  12.392   6.295   4.641 -0.1142  0.1582 -0.1218
84375W        W27288  16.926   2.092  28.884  0.0494 -0.0339  0.1836
84376W        W27289  16.778  29.523   4.924 -0.0132 -0.1749 -0.1380
84377W        W27290   8.449  32.372  23.991 -0.2140 -0.2974 -0.0965
84378W        W27291  11.273   1.757   1.868 -0.1175 -0.0772  0.0045
84379W        W27292  16.285  23.791  29.301  0.0406  0.4464  0.2149
84380W        W27293  15.587   2.117  23.954  0.0129  0.2787  0.0043
84381W        W27294  31.718   4.685   3.497 -0.2429 -0.1950 -0.2972
84382W        W27295  15.109   0.270   5.940  0.0498 -0.0309  0.1336
84383W        W27296  21.615   2.833   1.019  0.1422  0.1814 -0.1288
84384W        W27297  15.551  33.698  10.217 -0.1671  0.2092 -0.0240
84385W        W27298  17.017   7.108  27.228  0.2708  0.1102  0.0354
84386W        W27299  20.221   4.010  21.275 -0.3209  0.0640 -0.1443
84387W        W27300  29.824   2.048  24.563 -0.4258  0.3418  0.1644
84388W        W27301  24.326  11.380  28.706 -0.0650 -0.0909  0.3817
84389W        W27302   9.740  27.047   2.083 -0.0240  0.4213 -0.0632
84390W        W27303  22.462   7.575   6.613 -0.0973  0.0707  0.0172
84391W        W27304   5.812   0.785  17.734  0.2031  0.0911  0.1046
84392W        W27305  19.529  10.499   6.817 -0.0181  0.1225  0.0848
84393W        W27306  12.357  32.881  27.265  0.0476  0.4063  0.1417
84394W        W27307  27.876   1.445  22.062 -0.1075 -0.0994 -0.1341
84395W        W27308  25.455  30.943  20.786  0.2179 -0.0743 -0.0573
84396W        W27309  12.014  30.548   2.077 -0.1062  0.1259  0.3823
84397W        W27310  12.571   6.308  28.578  0.0896 -0.2588 -0.2380
84398W        W27311  16.515   2.952   1.838 -0.2065 -0.0814 -0.1108
84399W        W27312  28.549   4.033   5.400 -0.3566 -0.0800 -0.1836
84400W        W27313  20.086  10.266  25.142 -0.1498  0.0667 -0.2425
84401W        W27314  23.293   4.437   6.817  0.0163  0.0912  0.1002
84402W        W27315  26.519   7.465  21.233 -0.1310  0.3221 -0.1113
84403W        W27316  12.939  10.085   6.678 -0.1528  0.0343  0.3167
84404W        W27317  13.386  34.180  21.155 -0.0844  0.0691 -0.0510
84405W        W27318  31.588  28.538   1.565  0.0012 -0.1921  0.1265
84406W        W27319  20.054   1.230  23.964  0.1874 -0.1023  0.0731
84407W        W27320  14.890  29.850  27.795  0.0770 -0.2788 -0.0000
84408W        W27321  17.036  29.600  15.588 -0.2590  0.1413 -0.3040
84409W        W27322  17.593   9.190  15.550 -0.2063 -0.2517  0.1281
84410W        W27323  22.952   5.301  26.409 -0.1105 -0.2366  0.0895
84411W        W27324  30.255   8.452   0.408  0.0692  0.4793 -0.2829
84412W        W27325  24.346   0.097   8.775 -0.0513 -0.0831 -0.2613
84413W        W27326  20.656   2.488  27.300 -0.1133 -0.0311  0.0254
84414W        W27327  16.681   8.799  27.368 -0.2788  0.3896  0.0957
84415W        W27328  23.823   0.218   4.645 -0.0284 -0.3469 -0.0783
84416W        W27329   9.818  24.550  25.579 -0.0138  0.3256  0.0244
84417W        W27330  21.545   2.227   1.056  0.0595 -0.0372 -0.0803
84418W        W27331  21.118  27.129  20.170  0.3423  0.2833 -0.1283
84419W        W27332  20.232   2.821  14.954  0.2928  0.0768  0.2254
84420W        W27333  14.585   9.517   0.518 -0.0357 -0.1253 -0.0771
84421W        W27334  18.088   2.944  20.757  0.1159 -0.2831  0.2102
84422W        W27335   8.414   6.926  27.973  0.4313  0.4614  0.2239
84423W        W27336  16.195  31.062   3.734  0.0138 -0.1418  0.1681
84424W        W27337  17.207  24.977  26.761  0.2184 -0.1848 -0.2916
84425W        W27338  20.566   4.768  19.112  0.0620 -0.1924  0.2498
84426W        W27339  21.259  22.928  26.172 -0.2436  0.1904  0.2817
84427W        W27340  19.632  30.135   3.222  0.0521  0.0697  0.1591
84428W        W27341  22.917   4.429  20.010  0.3987  0.1057 -0.0036
84429W        W27342  18.031   2.141   3.995 -0.3139 -0.0344 -0.0437
84430W        W27343   7.156   2.540  20.320 -0.2968  0.2938 -0.0063
84431W        W27344  21.527   4.125  29.153  0.0216  0.1694 -0.3443
84432W        W27345  21.982  13.052   3.163 -0.2362 -0.1956 -0.2925
84433W        W27346  23.094  29.140   7.803  0.0620  0.1182 -0.0533
84434W        W27347  26.477   7.702   0.756  0.0006 -0.0273 -0.1914
84435W        W27348  24.922   8.315   2.991 -0.0776  0.0387 -0.1653
84436W        W27349  22.906  33.016  24.467  0.0084 -0.2525 -0.2872
84437W        W27350  25.852  25.032  14.939 -0.2963 -0.0077  0.1239
84438W        W27351  16.195   3.136   5.070  0.0660  0.0706  0.1305
84439W        W27352  20.179   6.996  16.716  0.0803 -0.0274 -0.4091
84440W        W27353   7.758  33.326   1.946  0.1617 -0.2726  0.4023
84441W        W27354  23.117  19.650  15.062  0.2746 -0.0319 -0.1404
84442W        W27355  11.762   4.940  27.186  0.0685 -0.5355  0.0206
84443W        W27356  28.290  33.471   8.489  0.2269 -0.2186  0.0555
84444W        W27357   3.762  33.263  23.602 -0.0788  0.1684  0.2570
84445W        W27358  20.623   4.078  24.690 -0.0417 -0.4020 -0.2316
84446W        W27359  24.092  32.557  17.645  0.3489  0.3794  0.1732
84447W        W27360  22.003   5.709   7.689 -0.1625 -0.1577  0.3199
84448W        W27361  20.440   2.647   0.835 -0.0599 -0.0706  0.1273
84449W        W27362  32.441  12.643  29.733  0.2717  0.1419 -0.2209
84450W        W27363  19.001   5.612  28.556 -0.1876  0.1850 -0.1277
84451W        W27364  15.384  25.890   3.318  0.0872 -0.3111  0.0196
84452W        W27365  27.939  11.319   1.208 -0.2463  0.4369  0.0285
84453W        W27366  32.608   4.840  11.202  0.0615  0.0060  0.1112
84454W        W27367  13.539   1.024   5.396 -0.1102 -0.1321 -0.1009
84455W        W27368  12.888  33.610   5.731 -0.0793 -0.2125  0.2203
84456W        W27369  24.705   5.169  16.121  0.1125 -0.0632  0.0264
84457W        W27370  15.331  25.901  25.640 -0.2032  0.1084  0.2118
84458W        W27371   5.041  29.193  29.117  0.1818 -0.2475 -0.0908
84459W        W27372  10.658   9.548  29.721  0.1157  0.0900  0.0582
84460W        W27373  19.033  10.821   6.306  0.0787 -0.2228 -0.0080
84461W        W27374  19.857   0.083   8.470 -0.0493  0.0455  0.1290
84462W        W27375  15.671  26.108  28.225 -0.0885 -0.0590  0.0408
84463W        W27376  22.534  30.481   9.697 -0.2184 -0.0796  0.0174
84464W        W27377  20.751   3.795  23.276  0.0530 -0.0402 -0.2258
84465W        W27378  30.199  24.724  25.228  0.2918  0.2791 -0.0910
84466W        W27379  16.912  28.574   0.730 -0.2068 -0.0140 -0.0277
84467W        W27380  23.240   3.600   0.617  0.3856 -0.1070  0.2499
84468W        W27381  15.960  27.807   6.556 -0.4623 -0.2862 -0.0128
84469W        W27382  20.135  29.337  27.810  0.3469  0.1403  0.0604
84470W        W27383  27.882   4.775   8.552 -0.2094 -0.0466  0.1276
84471W        W27384  25.539   5.304   3.213  0.1099 -0.2530  0.3969
84472W        W27385  25.679  31.758  20.597 -0.2586 -0.1218 -0.0239
84473W        W27386  20.496  20.978  27.694  0.1221  0.0336  0.0879
84474W        W27387  28.013   4.420   4.272  0.0181 -0.1034  0.1575
84475W        W27388  24.852   7.890  23.252  0.0130  0.4297 -0.2805
84476W        W27389  18.570   5.630  21.535 -0.0969  0.0697  0.0145
84477W        W27390  14.054   6.166   3.605  0.1514  0.0048  0.0934
84478W        W27391  23.184   2.105  21.629 -0.1578  0.0065 -0.0566
84479W        W27392  13.577   6.631  28.698  0.1451 -0.1591 -0.1701
84480W        W27393  16.739   2.965  27.478  0.2224  0.0464 -0.1681
84481W        W27394  21.070   0.115   1.084 -0.0346 -0.1855  0.1730
84482W        W27395  24.589  10.413  20.545  0.0403 -0.1261 -0.0728
84483W        W27396  17.224  10.236  26.733  0.1385 -0.0950 -0.0738
84484W        W27397  27.847  15.791  21.843  0.4005  0.2570  0.4923
84485W        W27398  15.879  27.990   3.384  0.1751 -0.4232  0.1948
84486W        W27399  22.561   7.550  28.244 -0.1050 -0.0412  0.1881
84487W        W27400  10.847   9.484  22.271  0.0258  0.2001  0.1063
84488W        W27401  15.544   4.358   2.404 -0.0373 -0.0357  0.1351
84489W        W27402  19.413  14.937   2.685  0.1305  0.0130 -0.1722
84490W        W27403  13.021  28.946  26.605 -0.0179  0.1860  0.0524
84491W        W27404  12.455  32.272  22.324  0.4353 -0.1740 -0.3079
84492W        W27405  24.794  11.984   1.944 -0.2656 -0.1402  0.1761
84493W        W27406  12.285  31.175  27.661 -0.3907  0.0423  0.3603
84494W        W27407  15.522  32.097  28.936 -0.1357  0.4429 -0.0811
84495W        W27408  17.339   0.926  28.375 -0.1036  0.1025 -0.1296
84496W        W27409  19.189   1.706   5.608 -0.1392 -0.2166 -0.2594
84497W        W27410  20.913   1.663  20.883 -0.5643  0.1334  0.1467
84498W        W27411  22.842  19.813  24.229  0.0650 -0.1026  0.0884
84499W        W27412  22.006  24.385  23.489  0.0302 -0.0262  0.0540
84500W        W27413   1.641   6.978  21.740 -0.1891  0.0180  0.1366
84501W        W27414  20.173   0.290   0.043  0.2954 -0.1371  0.2062
84502W        W27415  23.446  29.835   1.611  0.2920  0.0892  0.0657
84503W        W27416  24.460   5.321   1.460 -0.2151  0.0393  0.0229
84504W        W27417  18.799   6.281  15.528  0.0678  0.1247 -0.4743
84505W        W27418  13.643   0.339   4.978  0.0969  0.1105 -0.3568
84506W        W27419  10.466  34.480  29.446 -0.0018  0.1168 -0.0866
84507W        W27420  23.015  34.074   5.123 -0.0778  0.1276 -0.3800
84508W        W27421  28.660   0.407   8.365  0.3160  0.2088  0.3779
84509W        W27422  24.591   3.554   2.211  0.1537  0.0484 -0.3749
84510W        W27423  26.097  33.782   1.757  0.0835  0.3663  0.0322
84511W        W27424  21.491  17.769  21.357 -0.0804  0.1152  0.0306
84512W        W27425  27.108   0.426  21.911 -0.2698  0.0303  0.0473
84513W        W27426  28.784  33.910  16.192 -0.1804 -0.0911  0.0805
84514W        W27427  15.121  11.909  14.852 -0.5028 -0.1507 -0.2301
84515W        W27428  26.606  12.182  15.950  0.0852  0.2260 -0.3294
84516W        W27429  25.318  16.771  15.249 -0.0456  0.3089  0.1107
84517W        W27430  12.774   1.247  17.670  0.0490  0.0207  0.0562
84518W        W27431  21.881  10.781  12.518 -0.3102 -0.1946  0.0304
84519W        W27432  15.229  13.419  24.472 -0.1957 -0.0249  0.2536
84520W        W27433  24.983   5.437  18.314  0.2398  0.1300 -0.2868
84521W        W27434  23.165  27.936  22.722 -0.0184  0.0019  0.0006
84522W        W27435  18.641   4.548  14.652 -0.1433 -0.0713 -0.2725
84523W        W27436  27.091   2.908  15.411 -0.0524  0.2912  0.2173
84524W        W27437  33.872  34.321  22.700 -0.0831  0.0058 -0.2477
84525W        W27438  22.644  33.970  22.653  0.0616  0.0492 -0.2274
84526W        W27439  24.138  11.259  16.769  0.0815 -0.0567 -0.2424
84527W        W27440  32.076  32.762  20.861 -0.2411 -0.1270 -0.2300
84528W        W27441  23.192  27.536  15.917 -0.0375 -0.0145  0.0186
84529W        W27442  17.697  12.256  16.647 -0.0512 -0.1115  0.0386
84530W        W27443  15.658  29.414  22.712  0.0856  0.2269  0.0167
84531W        W27444  25.195  29.163  17.073  0.0613  0.3554  0.0187
84532W        W27445  22.749  32.665  13.494 -0.0827  0.2380  0.0252
84533W        W27446  17.969   2.188  18.593 -0.0182 -0.2068  0.2047
84534W        W27447  27.229   6.814  18.285  0.0995  0.2671  0.2011
84535W        W27448   7.143   6.781  20.580 -0.1030  0.1495  0.3035
84536W        W27449  25.282   4.537  20.350 -0.3163 -0.0951  0.2252
84537W        W27450  23.978   5.313  25.056  0.0088  0.0743 -0.1264
84538W        W27451  16.609   6.594  24.398  0.1803 -0.0397 -0.1175
84539W        W27452  16.043  12.493  13.301  0.4060 -0.2274 -0.1275
84540W        W27453  21.935   8.377  16.113  0.0274  0.0948 -0.2058
84541W        W27454  20.925   0.695  22.257 -0.0744 -0.1494 -0.1406
84542W        W27455  16.370  14.560  11.118 -0.3165  0.1542  0.0440
84543W        W27456  25.153   4.305  25.067  0.2436 -0.0379 -0.2141
84544W        W27457  22.794   5.999  20.314  0.0455  0.0631 -0.0689
84545W        W27458  22.217  10.329  19.768 -0.1728 -0.1118  0.0846
84546W        W27459   8.258  30.870  19.368  0.3129  0.0383  0.1026
84547W        W27460  26.283   6.687  15.960 -0.1145  0.1362  0.2090
84548W        W27461  11.499   0.205  17.504 -0.1441  0.6707  0.0298
84549W        W27462  17.907   8.528  27.508  0.0614  0.2561 -0.0510
84550W        W27463  17.527   4.089  20.126 -0.1988 -0.1261  0.0905
84551W        W27464  26.300   6.205  14.598  0.0739 -0.2994  0.2291
84552W        W27465  15.745   4.963  15.335  0.0437  0.1858  0.0204
84553W        W27466  28.618  28.782  16.216  0.0659 -0.0290  0.1300
84554W        W27467  12.143   2.233  17.218  0.1436 -0.0463  0.4804
84555W        W27468  19.009   2.089  16.318  0.3187 -0.3230  0.1851
84556W        W27469  24.581   8.644  16.545  0.1441 -0.1584  0.1578
84557W        W27470  12.901  14.200  14.530 -0.0850  0.0355 -0.0137
84558W        W27471  26.339   1.666  20.805 -0.2454  0.2858  0.1287
84559W        W27472  20.004   5.244  18.790 -0.0942  0.0796 -0.1012
84560W        W27473  23.929  28.894  20.645 -0.2747 -0.0630  0.0823
84561W        W27474  20.722   4.399  17.769 -0.4462  0.0359  0.1051
84562W        W27475  18.487  12.518  12.142 -0.0303 -0.0199  0.1741
84563W        W27476  16.416  11.126  24.724 -0.0441 -0.0081  0.1892
84564W        W27477  16.810  31.755  21.886  0.0510  0.2595 -0.0541
84565W        W27478  29.868  31.304  19.395 -0.1124 -0.0326 -0.2486
84566W        W27479  20.454   4.354  21.531  0.0317  0.0650  0.3819
84567W        W27480  18.164  10.992  12.097 -0.1162 -0.1725 -0.1609
84568W        W27481  15.948  12.094  17.162  0.0715  0.1703 -0.0601
84569W        W27482  15.476  12.431  17.212  0.2314  0.1299  0.1160
84570W        W27483  20.349  10.779  18.340 -0.1392  0.1323  0.0039
84571W        W27484  11.414  16.887  12.829  0.1905 -0.0714  0.0300
84572W        W27485  28.762   5.619  15.406 -0.1467  0.2390  0.3736
84573W        W27486  28.782   9.512  25.759 -0.0948  0.1890 -0.1155
84574W        W27487  19.297   5.401  17.096  0.1335 -0.1370 -0.0380
84575W        W27488  14.506   4.777  16.764 -0.0735 -0.0773 -0.2714
84576W        W27489  13.621   2.695  16.103  0.0130  0.2126  0.1218
84577W        W27490  23.692   7.651  27.655  0.1185  0.0284  0.2069
84578W        W27491  24.515   9.051  15.129 -0.2956  0.1669 -0.1218
84579W        W27492  18.043  30.137  18.834 -0.0112  0.2072  0.1771
84580W        W27493  20.813   6.369  14.516 -0.3123 -0.1133  0.0106
84581W        W27494  22.989   2.583  26.937 -0.0342  0.3921  0.2323
84582W        W27495  22.542  33.208  24.724 -0.1488  0.2545 -0.0986
84583W        W27496  22.740   1.917  25.497 -0.2876 -0.1629  0.3207
84584W        W27497  19.932   9.151  17.831  0.2047  0.1436  0.1691
84585W        W27498  22.859   7.632  13.866 -0.2534 -0.0051 -0.1869
84586W        W27499  17.498  33.698  17.891 -0.0537 -0.0775 -0.0988
84587W        W27500  25.076   1.816  14.382  0.1436 -0.0910 -0.1015
84588W        W27501  21.235   3.967  16.755  0.4377 -0.0126  0.0356
84589W        W27502  14.517   6.449  15.795 -0.1094  0.1470  0.1304
84590W        W27503   9.725  12.337  16.122 -0.2244  0.0228  0.1976
84591W        W27504  15.321  34.198  25.146  0.1660 -0.0619 -0.1081
84592W        W27505  17.579   3.674  23.609  0.0205  0.2966  0.2846
84593W        W27506  15.249  11.540  15.138 -0.0914  0.0273 -0.0805
84594W        W27507  11.896  18.038  22.629  0.2655 -0.2179  0.1722
84595W        W27508  32.068  20.189  14.468  0.0059  0.5246  0.0709
84596W        W27509  20.665  31.374  17.408 -0.0457 -0.0573 -0.0532
84597W        W27510  20.241   4.525  15.405  0.0675  0.0741  0.2622
84598W        W27511  21.262   6.761  16.152  0.1659  0.0891 -0.1224
84599W        W27512  24.400  13.703  19.207 -0.0478  0.1328 -0.0579
84600W        W27513  24.018   7.685  21.677 -0.1684  0.3095 -0.1674
84601W        W27514  28.209   0.270  25.179 -0.1013  0.1404  0.1170
84602W        W27515  13.019   4.851  21.345  0.3515  0.1012  0.1907
84603W        W27516  23.271   5.452  20.077 -0.1221 -0.0885  0.1843
84604W        W27517  23.179  34.197   1.614 -0.3549 -0.1158 -0.2074
84605W        W27518  16.999   0.749  14.632 -0.2372 -0.1618  0.0103
84606W        W27519  27.354  12.051  27.437  0.0309 -0.0762  0.0244
84607W        W27520   0.810  15.165  27.677 -0.1644  0.1787 -0.0589
84608W        W27521  25.158   1.738  28.424  0.0543 -0.0528 -0.0495
84609W        W27522  19.367   3.219  27.810  0.3531  0.1999 -0.0015
84610W        W27523  19.568  12.792  21.586  0.1328  0.1619  0.0089
84611W        W27524  19.873   9.896  23.068  0.0168 -0.0229 -0.1952
84612W        W27525  32.083  25.548  25.232  0.2740 -0.2956 -0.4907
84613W        W27526  21.713  32.507  22.699  0.1919  0.0505  0.1049
84614W        W27527  24.597   0.171  17.165  0.1316  0.0881 -0.2251
84615W        W27528  18.689   8.947  18.286 -0.0690 -0.1059  0.3213
84616W        W27529  15.983   7.628  25.836 -0.2930 -0.0618 -0.1728
84617W        W27530  20.905   3.556  25.224 -0.2502  0.0140 -0.0721
84618W        W27531  22.917   7.929  18.800 -0.0384 -0.6050 -0.1531
84619W        W27532  20.264   9.557  14.965  0.1073 -0.2197 -0.1593
84620W        W27533  25.090   2.556  21.350 -0.2728  0.1511  0.0125
84621W        W27534  12.896   4.622  18.637 -0.2724 -0.0886  0.0205
84622W        W27535  12.462  31.760   0.246  0.1037  0.0185 -0.0762
84623W        W27536   7.825   0.371  24.661 -0.0076 -0.1110 -0.1619
84624W        W27537  30.353   0.329  18.313 -0.0550  0.0623  0.0624
84625W        W27538  24.608   1.817  14.771  0.3217 -0.2591 -0.2529
84626W        W27539  27.597   2.698  16.519 -0.0640 -0.3830  0.1351
84627W        W27540  15.735   4.711   0.601 -0.1263 -0.3104 -0.1812
84628W        W27541  18.084  31.161  20.676  0.2228 -0.0292 -0.3595
84629W        W27542  23.100   8.032  22.276  0.1385  0.0001  0.1249
84630W        W27543   9.360   3.192  18.468  0.1637 -0.1810 -0.3136
84631W        W27544   9.386  12.966  18.041 -0.1753 -0.2412 -0.0549
84632W        W27545   0.442  32.084  20.029  0.0246 -0.0130  0.1780
84633W        W27546  26.054   0.662  18.151  0.0206  0.3280  0.1910
84634W        W27547  24.080  30.062  21.939 -0.0464 -0.2904 -0.2474
84635W        W27548  11.882   4.009  16.324 -0.2615 -0.0066  0.1753
84636W        W27549  27.241   8.498  21.570  0.2502  0.0653 -0.1366
84637W        W27550  27.209   7.185  17.387  0.0284  0.1478 -0.1172
84638W        W27551  26.691   3.056  15.774  0.1448 -0.0419 -0.2558
84639W        W27552  19.073   9.230  16.333  0.0906 -0.3000  0.1202
84640W        W27553  33.329   6.896  21.654  0.1521 -0.0790 -0.2245
84641W        W27554  28.109   4.700  21.836  0.1657  0.0257  0.0655
84642W        W27555  21.567  30.842  25.429  0.4105  0.1319  0.0023
84643W        W27556  14.031   2.624  17.562  0.0648  0.0265 -0.1447
84644W        W27557  29.029  12.721  20.210 -0.0519  0.1637  0.0171
84645W        W27558  23.576   6.266  24.146  0.0899  0.0252 -0.1934
84646W        W27559  31.221   8.054  19.157  0.1863  0.1731 -0.0584
84647W        W27560  34.061  32.702  19.696 -0.3217 -0.1809  0.2586
84648W        W27561  22.992  33.219  26.693 -0.0550  0.0106 -0.2198
84649W        W27562   7.651  29.189  22.883 -0.2568  0.1746  0.1904
84650W        W27563  25.312  12.642  22.435 -0.1623 -0.2029 -0.0573
84651W        W27564  15.844   5.711  21.765  0.0813  0.0951 -0.1093
84652W        W27565  12.961   1.828  16.617 -0.1837  0.0371 -0.1543
84653W        W27566  23.371  33.361  19.150  0.2663  0.0021  0.0893
84654W        W27567  27.011   9.621  28.574  0.1613 -0.2529 -0.3623
84655W        W27568   5.355  29.737  20.616  0.0042  0.2951  0.0920
84656W        W27569  16.835   2.231  20.740  0.1817 -0.0491 -0.1504
84657W        W27570  31.383  29.605  27.125 -0.4192  0.1608  0.2637
84658W        W27571  15.986  34.055  27.300  0.1689  0.2932  0.0211
84659W        W27572  16.111  33.135  16.951  0.2485  0.0457  0.2733
84660W        W27573  23.083   3.943  23.022 -0.0461 -0.0927  0.1999
84661W        W27574  22.709   6.721  24.338  0.0828  0.3183 -0.0652
84662W        W27575  11.169   0.863  25.634  0.1680 -0.2020 -0.2802
84663W        W27576  22.347   7.434  18.017  0.0857  0.1708  0.3304
84664W        W27577  19.691   6.461  18.496 -0.2384 -0.2891  0.1109
84665W        W27578  22.936  33.448  15.328 -0.0947  0.1948  0.0731
84666W        W27579   9.337  15.094  14.770 -0.0862 -0.1370  0.3724
84667W        W27580   9.256   1.688  25.274  0.0170 -0.1743 -0.2900
84668W        W27581  13.291   0.170  16.397  0.1637  0.2432  0.1566
84669W        W27582  22.489  11.789  23.090  0.1197  0.0467 -0.0393
84670W        W27583  20.545   8.473  18.262  0.4326 -0.0124 -0.0895
84671W        W27584  17.604   4.261  23.000  0.1823  0.2193 -0.2268
84672W        W27585  31.368   4.883  17.123  0.0245 -0.0848 -0.1757
84673W        W27586  17.060   8.688  16.963 -0.0024  0.3606 -0.1779
84674W        W27587  20.529  34.223  21.680 -0.1937 -0.2307 -0.0750
84675W        W27588  31.052  33.841  16.060  0.0234 -0.3620 -0.0871
84676W        W27589  28.192  33.542  19.017  0.1685  0.3360 -0.3026
84677W        W27590  13.406   5.011  23.206  0.0165  0.2806 -0.0309
84678W        W27591  24.063   7.303  15.748 -0.2501 -0.1826 -0.1868
84679W        W27592  15.797  26.809  15.124  0.4906  0.1028 -0.3164
84680W        W27593  21.078   0.189  19.571  0.1143 -0.4066  0.0262
84681W        W27594  22.289   5.275  17.369 -0.3351  0.3727 -0.2173
84682W        W27595  20.838   4.735  22.450 -0.0406 -0.0206 -0.0626
84683W        W27596  25.651  16.889  13.364  0.0700  0.0695 -0.0734
84684W        W27597  25.832  12.464  16.395  0.1425  0.2127  0.0833
84685W        W27598  28.630   6.804  26.595  0.2476 -0.1601 -0.0344
84686W        W27599  25.034   1.064  18.779 -0.3311 -0.0710 -0.0434
84687W        W27600  23.325   3.396  27.756 -0.3158  0.1866  0.0388
84688W        W27601  16.440   9.135  15.342 -0.0923  0.0993  0.3379
84689W        W27602  23.425   4.046  15.770 -0.2762  0.1406 -0.1455
84690W        W27603  16.568  33.775  15.335  0.0880  0.1346  0.0572
84691W        W27604  29.452  27.208  23.212  0.0802  0.1172 -0.0015
84692W        W27605  24.590  13.534  16.622  0.0004  0.2912 -0.0023
84693W        W27606  27.731  33.857  26.031 -0.1368  0.1954 -0.3876
84694W        W27607  11.853   9.207  20.178 -0.1937  0.4914  0.0034
84695W        W27608  24.251   5.717  17.317 -0.1607  0.0250 -0.0276
84696W        W27609  13.940   5.850  22.130 -0.1330  0.2017  0.0101
84697W        W27610  34.443   2.449  21.772 -0.0053  0.2080  0.5187
84698W        W27611  19.458   9.022  17.862 -0.0921  0.0685  0.1687
84699W        W27612  27.059  11.639  14.552 -0.2354  0.1523 -0.1949
84700W        W27613  20.461  13.651  23.020  0.4098 -0.1833  0.2781
84701W        W27614  24.009  24.003  25.179 -0.0299  0.0442  0.4018
84702W        W27615  11.155  30.996  17.201 -0.2252 -0.0210  0.2886
84703W        W27616  29.878   0.381  15.628  0.2521 -0.1153 -0.1238
84704W        W27617  28.268  28.542  18.899 -0.2953 -0.0219 -0.3030
84705W        W27618  10.985   9.549  20.892  0.0968 -0.2748  0.2251
84706W        W27619  23.850  24.371  23.707 -0.0386 -0.0076  0.1054
84707W        W27620  18.519   8.527  17.624 -0.1374 -0.0857  0.1466
84708W        W27621  19.333  30.132  18.405 -0.2672  0.1703  0.0401
84709W        W27622  19.425  11.608  14.914 -0.0244  0.3540  0.0761
84710W        W27623   9.695  29.562  22.139  0.0987 -0.0005 -0.0103
84711W        W27624  14.782  13.836  16.183  0.1349  0.0915  0.1715
84712W        W27625  21.706  14.839  14.242  0.2365 -0.0116 -0.3183
84713W        W27626  16.183   3.394  21.419  0.1136 -0.0215 -0.0893
84714W        W27627  32.833   6.536  16.076  0.2606  0.1781  0.2355
84715W        W27628  18.140   7.913  13.886 -0.1491 -0.1607  0.1498
84716W        W27629  18.023   8.023  22.245 -0.1883 -0.0235 -0.0810
84717W        W27630  18.799  30.541  18.156  0.2100  0.2552  0.5576
84718W        W27631  24.971   9.381  15.027  0.0939 -0.0367  0.1934
84719W        W27632  29.799  12.403  18.728 -0.3571  0.0914  0.0720
84720W        W27633  15.855  33.507  19.811 -0.2967 -0.0637  0.0107
84721W        W27634  21.786   7.716  18.542  0.0519 -0.0198  0.2400
84722W        W27635  14.389   6.395  20.340 -0.1006  0.0200 -0.0473
84723W        W27636  14.014  10.407  18.941 -0.0305  0.3046  0.0990
84724W        W27637  12.637   0.281  18.859  0.2632 -0.1636 -0.0636
84725W        W27638  26.732   5.064  24.999  0.1736  0.1297 -0.0480
84726W        W27639  21.248   1.620  15.134 -0.4072 -0.1119 -0.1038
84727W        W27640  23.742  34.010  14.185  0.0187  0.2765  0.1956
84728W        W27641  27.536  10.177  21.136  0.1204  0.5598 -0.1491
84729W        W27642  16.604  31.510  15.790 -0.1520 -0.0034  0.1303
84730W        W27643  22.543   1.026  27.736 -0.1380  0.1179  0.0846
84731W        W27644  18.835   3.986  20.303  0.1127 -0.2225 -0.0570
84732W        W27645  22.572   5.589  18.295 -0.1942 -0.1435  0.0112
84733W        W27646  21.404  13.538  14.246  0.1424 -0.2730 -0.2607
84734W        W27647  27.724   2.556  21.849  0.0696  0.1300  0.2259
84735W        W27648  18.549   4.984  19.341  0.1047 -0.3167 -0.3042
84736W        W27649  19.734  33.805  16.821  0.1798  0.2168  0.1052
84737W        W27650  28.443  13.054  15.742 -0.0277 -0.3084  0.1987
84738W        W27651  15.442  10.540  17.571  0.0104 -0.0493  0.0786
84739W        W27652  30.871  33.510  20.555 -0.4632  0.2542  0.0827
84740W        W27653  26.244  10.219  16.032 -0.4286  0.2318  0.1140
84741W        W27654  20.408   1.638  14.367 -0.0926  0.0520  0.1256
84742W        W27655  10.379  32.581  26.556 -0.1501 -0.0497 -0.0560
84743W        W27656  31.709   8.390  21.509  0.0702  0.2727 -0.0456
84744W        W27657  23.339   8.388  16.634  0.3402  0.0319  0.1716
84745W        W27658  16.681   9.385  16.664 -0.2461  0.2785 -0.0321
84746W        W27659  11.564  16.453  17.951 -0.2802 -0.1285  0.1138
84747W        W27660  23.788   9.936  13.293  0.0812  0.3905 -0.3144
84748W        W27661  21.470  10.824  25.091  0.1745 -0.0612  0.2740
84749W        W27662  10.838   2.104  21.448  0.2173  0.0519 -0.0258
84750W        W27663  22.532  30.797  15.322 -0.2476  0.1619  0.3011
84751W        W27664  17.992   6.168   1.841  0.0866 -0.0083  0.1846
84752W        W27665  25.121  12.388  17.574  0.2324 -0.2615 -0.0371
84753W        W27666  28.276   0.770  15.489  0.1626  0.0095 -0.2417
84754W        W27667  16.709   5.125  17.757  0.1456  0.0355 -0.1878
84755W        W27668  28.332  13.656  17.159 -0.0906  0.0065  0.0512
84756W        W27669  22.514   0.466  15.172 -0.1162 -0.1762 -0.2797
84757W        W27670  15.793   9.115  20.632  0.0564 -0.1312 -0.0944
84758W        W27671   7.328   7.852  19.592  0.0912 -0.2468 -0.1272
84759W        W27672  26.753   3.779  15.733  0.1785  0.0400  0.0633
84760W        W27673  21.980  26.047  21.597 -0.0467  0.1785 -0.0107
84761W        W27674  23.908  32.447  23.162 -0.1533 -0.0144 -0.0062
84762W        W27675  17.088  14.096  21.830  0.0722 -0.1615  0.0705
84763W        W27676  21.865   4.667  13.875  0.0984 -0.2824  0.1092
84764W        W27677  23.329   6.328  14.206  0.2866 -0.1587  0.0211
84765W        W27678  25.492  29.495  19.271  0.0741 -0.2542 -0.3021
84766W        W27679  17.744   6.526  20.132 -0.4580 -0.2433 -0.0265
84767W        W27680  25.405   2.267  18.502  0.1912 -0.0305 -0.1144
84768W        W27681  28.444   3.367  16.710  0.1435  0.0699 -0.0251
84769W        W27682  19.147   0.110  22.730  0.0515 -0.1837 -0.1107
84770W        W27683  20.092  33.861  24.328 -0.2255 -0.1146 -0.0050
84771W        W27684  11.700  12.450  21.785  0.0454 -0.1241 -0.2643
84772W        W27685  11.707   8.229  20.522  0.1667  0.1964 -0.2031
84773W        W27686  21.733   4.653  15.481  0.1752 -0.1957 -0.3265
84774W        W27687  26.804   8.620  20.673 -0.1046  0.0320  0.0520
84775W        W27688  14.938  31.911  19.257  0.0858 -0.0217 -0.0638
84776W        W27689  10.565   4.867  17.617 -0.1020 -0.0938 -0.0122
84777W        W27690   7.324   2.500  17.404  0.1669  0.0956  0.1879
84778W        W27691  19.874   3.200  23.330 -0.0560 -0.2214 -0.3016
84779W        W27692  15.587   4.108  20.120 -0.3236 -0.4588  0.0717
84780W        W27693  22.867   3.487  17.521 -0.0434  0.1670  0.2792
84781W        W27694  11.778   9.154  25.502  0.1895  0.1880  0.0855
84782W        W27695  23.992  32.433  15.702 -0.5208 -0.0075  0.4994
84783W        W27696  21.672   3.517  15.567  0.1133  0.1586 -0.1286
84784W        W27697  26.979  34.172  25.421 -0.0163 -0.1220  0.1499
84785W        W27698   7.169   2.675  21.522 -0.2151 -0.0322 -0.5103
84786W        W27699  22.568  10.788  14.772 -0.4023  0.1626 -0.1349
84787W        W27700  26.199  30.171  14.283 -0.1144 -0.1068 -0.1725
84788W        W27701  24.165   8.066  16.061 -0.0905  0.2490  0.2372
84789W        W27702  23.402  33.592  14.216 -0.0544 -0.2064 -0.0027
84790W        W27703  18.873   5.677  18.961  0.0624  0.3428 -0.0093
84791W        W27704  15.327   9.995  18.667 -0.2550  0.1855 -0.0480
84792W        W27705  24.457  10.584  14.130  0.1418 -0.0793 -0.0028
84793W        W27706  28.710  28.125  23.828 -0.1489 -0.0416  0.0794
84794W        W27707  33.881  34.048  27.982  0.1891 -0.2719 -0.2217
84795W        W27708  23.896  33.214  14.338 -0.1354  0.3196  0.0202
84796W        W27709  33.586   2.018  20.039 -0.1729 -0.0544  0.2252
84797W        W27710  13.047   2.530  15.827 -0.4186 -0.0394 -0.1724
84798W        W27711  17.505   6.980  20.216  0.1685  0.0601 -0.2721
84799W        W27712  21.324   9.580  16.171  0.0403 -0.0799  0.4278
84800W        W27713  22.339   8.922  20.840  0.0773  0.2514 -0.0036
84801W        W27714  19.839   8.800  16.581 -0.1831 -0.3055  0.0868
84802W        W27715  13.272  12.809  17.319 -0.2923 -0.2905 -0.0172
84803W        W27716  26.045  13.879  17.970 -0.1105 -0.0439 -0.1740
84804W        W27717  26.189   6.049  27.935 -0.2064  0.0683 -0.0042
84805W        W27718  26.917   5.236  21.358  0.0523 -0.0333  0.0658
84806W        W27719  18.608   0.916  15.256 -0.0906  0.0117 -0.3151
84807W        W27720  20.667   9.289  13.731 -0.2923 -0.2986 -0.3480
84808W        W27721  15.018   3.189  16.715  0.0955 -0.1285  0.2689
84809W        W27722  23.926   5.333  17.597 -0.0335 -0.1922 -0.1428
84810W        W27723  20.386   6.878  14.415  0.2380 -0.0906 -0.1157
84811W        W27724  20.385   2.474  26.491  0.1520  0.2501  0.0956
84812W        W27725  22.199   3.529  26.499 -0.0959 -0.0711  0.0475
84813W        W27726  18.799   4.072  17.675  0.0713  0.0066 -0.0808
84814W        W27727  10.613   6.231  20.277  0.2059  0.1195 -0.0978
84815W        W27728   0.081  12.364  16.428 -0.0687  0.2135 -0.2020
84816W        W27729  26.609  34.102  16.297 -0.1101 -0.0692 -0.4195
84817W        W27730  13.715   9.023  17.198  0.1806  0.0754 -0.3297
84818W        W27731  23.591  10.284  19.211  0.0168  0.1352  0.3186
84819W        W27732  23.454  30.127  18.661 -0.2912 -0.2867  0.2030
84820W        W27733  18.213  34.267  19.667  0.0274 -0.1119 -0.2893
84821W        W27734  20.730  30.071  15.446 -0.0787 -0.1361 -0.1449
84822W        W27735  20.869  12.207  19.171  0.0706  0.3123 -0.0161
84823W        W27736   1.438   2.181   1.147  0.2590 -0.1309 -0.2644
84824W        W27737  18.528  14.129  11.658  0.3325 -0.0936  0.1682
84825W        W27738  19.308   8.091  15.204  0.1760  0.0078  0.0597
84826W        W27739  27.320   4.601  13.823 -0.2311  0.2406 -0.0338
84827W        W27740  22.864  26.896  23.530  0.1160 -0.1589  0.2687
84828W        W27741  15.508   8.203  13.506  0.1056 -0.0797  0.0079
84829W        W27742  21.112   2.186  16.204 -0.0582  0.0665  0.4042
84830W        W27743  25.846   0.882  14.966 -0.1446 -0.1620 -0.1018
84831W        W27744  19.566  33.823  15.097 -0.0127 -0.0661 -0.0437
84832W        W27745  27.820  33.195  17.182 -0.0534  0.3125  0.1927
84833W        W27746  28.668   2.151  18.133  0.2771  0.1813  0.1390
84834W        W27747  15.118   7.374  20.952  0.3477 -0.0849 -0.2842
84835W        W27748  25.015  11.125  15.190  0.2301 -0.0012  0.1433
84836W        W27749  19.205  32.398  20.655 -0.3221  0.0648  0.2032
84837W        W27750  27.646  32.337  16.726 -0.0099 -0.0099 -0.1045
84838W        W27751  19.494   6.943  22.490 -0.2902  0.2631  0.0530
84839W        W27752  16.474  17.960  12.792  0.4240  0.2212  0.1827
84840W        W27753  23.213   3.412  15.883 -0.0850  0.0568 -0.1677
84841W        W27754  20.889   5.852  13.565 -0.0538 -0.0244 -0.0860
84842W        W27755  22.504   5.140  19.844  0.1783  0.1967  0.0670
84843W        W27756  30.430   2.060  23.484 -0.0130 -0.2374  0.0143
84844W        W27757  14.741   1.041  19.887  0.0721 -0.0395  0.2452
84845W        W27758  18.216  13.740  13.995 -0.0493  0.1397 -0.0080
84846W        W27759  29.775  10.213  22.938  0.0868  0.1806  0.3083
84847W        W27760   3.456  34.351  22.740 -0.1401  0.0866 -0.0263
84848W        W27761  28.884   4.059  17.079 -0.1209  0.2361  0.2038
84849W        W27762  22.930  32.035  14.851  0.2103 -0.1323 -0.1697
84850W        W27763  18.878  28.591  20.038 -0.0758  0.1146 -0.1227
84851W        W27764  14.268   9.757  19.750  0.2187 -0.2071 -0.0317
84852W        W27765  22.496  14.903  17.968 -0.0070  0.0132  0.1575
84853W        W27766   6.952  21.681  15.941  0.0787  0.4967 -0.0193
84854W        W27767  25.803   1.235  16.331  0.1853 -0.0687 -0.3173
84855W        W27768  18.432   0.481  19.495  0.2477 -0.1626  0.0694
84856W        W27769  21.340   1.825  19.965 -0.2624 -0.0032  0.1383
84857W        W27770   2.926   3.017  24.338 -0.0051 -0.1234 -0.2075
84858W        W27771  26.361   2.914  21.839  0.2982  0.1699  0.1389
84859W        W27772  21.423  10.006  24.866 -0.0476 -0.1338 -0.0494
84860W        W27773   7.068  31.347  25.879 -0.0783 -0.0773 -0.2451
84861W        W27774  23.189  34.152  25.838 -0.1349 -0.1051 -0.1443
84862W        W27775  18.874   1.730  21.991  0.0822  0.2324 -0.0254
84863W        W27776  19.810  32.746  25.495 -0.1543 -0.0331 -0.0295
84864W        W27777  17.515   3.264  20.697  0.0959 -0.0399 -0.1525
84865W        W27778  26.996  30.107   0.956 -0.0332 -0.0953 -0.3762
84866W        W27779  22.101   5.720  17.621 -0.0703 -0.1686 -0.2463
84867W        W27780  27.645  10.054  20.467 -0.2389  0.4004  0.2175
84868W        W27781  19.924  32.386  21.594 -0.0967  0.1709 -0.1778
84869W        W27782  21.812  12.523  18.728 -0.0087 -0.0495 -0.3752
84870W        W27783  13.614   3.537  27.475 -0.2060  0.3771 -0.1498
84871W        W27784  14.759   9.084  19.541  0.0828  0.2338 -0.0717
84872W        W27785  26.715   2.907  17.313  0.3439  0.0661 -0.0488
84873W        W27786  16.936   4.454  27.258 -0.1266 -0.2867  0.3603
84874W        W27787  18.813   5.564  16.341 -0.1929  0.0784  0.0191
84875W        W27788  23.124   6.824  23.435 -0.0897 -0.3805 -0.0719
84876W        W27789  15.755   0.187  26.092  0.0897  0.0765  0.0816
84877W        W27790  20.252  32.654  22.520 -0.0287 -0.2898 -0.0573
84878W        W27791  30.839  33.271  22.589 -0.1598 -0.2365 -0.2752
84879W        W27792  17.849   5.143  18.303 -0.4062 -0.0965 -0.1379
84880W        W27793   9.404  22.133  15.591  0.0254  0.3786 -0.2488
84881W        W27794  29.937  12.060  29.342  0.0372 -0.3373  0.0902
84882W        W27795  34.071  13.003  23.618 -0.1192 -0.3468 -0.0756
84883W        W27796  30.039  34.034  24.465  0.2439 -0.0265  0.1611
84884W        W27797  23.107   8.887  29.326  0.0436 -0.2320 -0.0822
84885W        W27798  22.383  31.767  29.374 -0.2390  0.2813  0.0394
84886W        W27799  32.706  31.848  19.350  0.0073 -0.1359  0.2015
84887W        W27800  15.874  29.805  19.632 -0.2795  0.1082  0.1496
84888W        W27801  19.160   2.229  26.124  0.3090 -0.0241  0.1283
84889W        W27802  11.677   5.477   3.068  0.2377 -0.2188  0.0592
84890W        W27803  21.778  12.103  23.252  0.3236  0.5077  0.2136
84891W        W27804  24.653  32.727  14.810 -0.1347 -0.0722 -0.1218
84892W        W27805  18.735  34.432  24.418 -0.2802  0.1423 -0.1151
84893W        W27806  21.511   0.392  21.773  0.0483  0.1351  0.0946
84894W        W27807   4.349   8.042  20.253 -0.2667  0.0436  0.1112
84895W        W27808  24.163   5.964  18.867 -0.0352  0.0389 -0.1208
84896W        W27809  25.810   5.566  22.333  0.1729  0.1039 -0.0250
84897W        W27810  17.011   5.167   0.011 -0.4585  0.2646 -0.3001
84898W        W27811  20.215   3.131  18.038 -0.2164 -0.3479 -0.4857
84899W        W27812  28.348  14.019  15.338  0.2705 -0.1922 -0.1221
84900W        W27813  29.925   6.458  21.105  0.1510  0.2737  0.1508
84901W        W27814  15.077   9.538  16.280  0.0475 -0.0425  0.1623
84902W        W27815  27.286   8.238  17.182  0.1436 -0.4017  0.3138
84903W        W27816  18.835  33.245  19.064  0.2262 -0.1702  0.2038
84904W        W27817  20.168  33.841  14.853 -0.1021 -0.1722 -0.2395
84905W        W27818  20.281  33.358  14.673 -0.2407  0.3739 -0.1995
84906W        W27819  16.484  10.584  13.932  0.1440  0.3548  0.2395
84907W        W27820  28.335   9.159  18.931  0.0255  0.1304  0.0136
84908W        W27821  25.769  29.999  13.400  0.1888 -0.0330  0.0524
84909W        W27822  23.794   5.790  18.352  0.3633  0.1486 -0.0435
84910W        W27823  22.008   1.942  19.498 -0.0422 -0.2308 -0.2512
84911W        W27824  27.864  29.820  21.546  0.0436  0.1285  0.0991
84912W        W27825  23.372   5.852  25.894  0.1470 -0.5830 -0.1024
84913W        W27826  22.143   5.336  23.741  0.2230  0.1526  0.2318
84914W        W27827  12.178  11.254  23.287  0.0713  0.0261 -0.3170
84915W        W27828  21.287  26.279  23.312  0.3198 -0.3443 -0.0634
84916W        W27829  27.020   4.386  20.052 -0.0469 -0.2329 -0.1141
84917W        W27830  23.490   0.809   2.768  0.2215 -0.0123  0.0823
84918W        W27831  24.987  22.828  17.472 -0.0211 -0.0838  0.1308
84919W        W27832  21.319   7.592   1.514  0.2112  0.0190 -0.0193
84920W        W27833  25.875   5.249  19.286 -0.2161 -0.0298 -0.1318
84921W        W27834  30.087  32.826  17.131 -0.0851  0.1459  0.0777
84922W        W27835  18.849   6.156  19.162  0.1061 -0.3501 -0.2383
84923W        W27836  17.788  34.303  18.400  0.5236  0.0160 -0.2203
84924W        W27837  32.486   8.887  17.765  0.2355 -0.0362 -0.1001
84925W        W27838  18.269  30.666  23.296 -0.0190 -0.1010  0.0224
84926W        W27839  21.745   3.437  16.079 -0.1693 -0.1734  0.3081
84927W        W27840  17.073  32.235  25.803  0.0314  0.2134 -0.0598
84928W        W27841  17.615  27.329  25.809  0.0626  0.1796 -0.0354
84929W        W27842  18.914   6.710  21.841 -0.4756  0.2305  0.3433
84930W        W27843  11.300   5.136  26.488 -0.0842 -0.0206  0.2647
84931W        W27844  29.847  19.006  17.772 -0.0448  0.1927  0.0779
84932W        W27845  18.830  12.518  11.725 -0.2071  0.0570 -0.3418
84933W        W27846  15.158   1.150  17.769 -0.0542  0.2644 -0.4904
84934W        W27847  16.530   2.076  16.827 -0.3141 -0.0558  0.0608
84935W        W27848  10.379   1.648  18.108  0.0925 -0.4091 -0.2142
84936W        W27849  29.524   5.474  24.342  0.2612 -0.0780 -0.1261
84937W        W27850  14.956  10.859  19.308  0.1259  0.0746  0.0706
84938W        W27851  10.191   6.992  22.811 -0.1613  0.0364  0.0246
84939W        W27852  14.881   6.679  25.617  0.3490  0.1261 -0.1658
84940W        W27853  13.972  12.221  17.804  0.2749 -0.2085  0.1489
84941W        W27854  26.873  11.337  14.146  0.4157 -0.0665 -0.4506
84942W        W27855   9.906   4.825  21.318 -0.2604 -0.4450 -0.1225
84943W        W27856  32.518  10.863  19.971 -0.0736  0.1779  0.0504
84944W        W27857  23.389  10.341  23.292 -0.3459 -0.1833  0.0881
84945W        W27858  26.778  14.242  23.050 -0.1027  0.0334 -0.1878
84946W        W27859  18.047   1.118  15.272 -0.3373  0.0688 -0.0875
84947W        W27860  18.237   8.976  15.500 -0.0269 -0.1932  0.1628
84948W        W27861  21.045   6.010  29.173  0.3410 -0.2202  0.1006
84949W        W27862  19.219   5.867  13.972  0.1377  0.0366  0.2595
84950W        W27863  16.499   8.305  14.887 -0.2747  0.1252  0.2981
84951W        W27864  27.882  34.245  15.534  0.2479 -0.1751  0.1058
84952W        W27865   5.526   2.414  17.552 -0.0447 -0.1909 -0.1851
84953W        W27866  23.901   3.826  15.659 -0.1641 -0.0087  0.0241
84954W        W27867   7.894   4.048  18.935 -0.1544 -0.0542  0.0956
84955W        W27868  18.168   2.090  20.120  0.0471 -0.5403 -0.0903
84956W        W27869  23.922   6.185  15.042  0.0839 -0.1087  0.0767
84957W        W27870  23.242   6.521  24.451 -0.2538  0.0916 -0.0973
84958W        W27871  31.920  10.654  15.182  0.0356 -0.1026 -0.0375
84959W        W27872  26.100   2.922  15.588  0.0406  0.0297 -0.1101
84960W        W27873  23.755  34.158  19.658 -0.1592  0.1575  0.1390
84961W        W27874  27.876   3.288  13.929  0.1257  0.0974  0.4122
84962W        W27875   8.349  27.473  18.730 -0.1116  0.0572  0.1079
84963W        W27876  25.068   5.543  18.824  0.1169  0.0783  0.0530
84964W        W27877  17.002   4.802  16.381  0.0576 -0.0633 -0.0334
84965W        W27878  16.554  29.843  14.731  0.2098 -0.1510 -0.0774
84966W        W27879  26.930   4.788  15.557  0.1105 -0.0304 -0.0065
84967W        W27880  17.239  10.329  21.690 -0.3215 -0.0593  0.1628
84968W        W27881   7.156  28.011  18.966  0.2999  0.0209 -0.1801
84969W        W27882  28.384   7.681  16.029 -0.2185 -0.0604  0.0637
84970W        W27883  12.675  11.846  20.164  0.0262 -0.5377 -0.1578
84971W        W27884  25.142   2.254  20.616 -0.3350  0.0780  0.1202
84972W        W27885  26.178   3.600   2.823 -0.1106 -0.0457  0.0030
84973W        W27886  10.666   8.433  23.727  0.2838  0.0808  0.2507
84974W        W27887   8.026   7.263  17.010 -0.3337 -0.1648  0.1820
84975W        W27888  10.868  33.106  18.922  0.0302 -0.2591  0.1903
84976W        W27889  15.331  17.909  14.476 -0.2567 -0.0908  0.0699
84977W        W27890  15.625   2.329  28.681  0.2991  0.1706 -0.0021
84978W        W27891   8.697   9.444  22.399 -0.1873  0.0915  0.1136
84979W        W27892  17.916   0.786  19.886 -0.2077  0.3304  0.3198
84980W        W27893  12.474   9.121  27.333  0.2872 -0.0255  0.3542
84981W        W27894  25.039   9.051  20.124  0.1760  0.1044  0.0322
84982W        W27895  18.475   6.229  17.851  0.0856  0.1416  0.2315
84983W        W27896  30.420   7.494  20.381  0.1273 -0.2224 -0.1154
84984W        W27897  25.988   6.069   0.219  0.1678  0.2709 -0.2818
84985W        W27898  15.478  14.391  14.867 -0.0531 -0.2188  0.1376
84986W        W27899  25.337   5.962  13.744 -0.0460 -0.0319  0.1128
84987W        W27900  27.498   8.933  14.085  0.0599 -0.0151  0.4325
84988W        W27901  17.605  15.491  14.855  0.0199  0.0361 -0.0880
84989W        W27902  19.889  32.147  16.807  0.2187 -0.1936 -0.0609
84990W        W27903  13.195  11.503  18.927  0.2613  0.4108 -0.0939
84991W        W27904  15.004  29.602  15.903  0.1439 -0.3019  0.0559
84992W        W27905  18.766   6.575  18.533 -0.2402  0.0021 -0.0673
84993W        W27906  24.508   1.649  15.680  0.1946 -0.0052 -0.1576
84994W        W27907   8.930  33.496   0.253  0.0379  0.0477  0.0904
84995W        W27908  13.849  33.983   3.954  0.0827 -0.0157 -0.1248
84996W        W27909  25.770  12.460  25.058 -0.0084 -0.2827  0.1277
84997W        W27910  20.782  28.576  27.254 -0.0586 -0.1370  0.4333
84998W        W27911   0.139  33.286  25.963 -0.3254  0.0223  0.0065
84999W        W27912  26.284   4.258  15.042  0.2438  0.3936  0.3876
85000W        W27913  29.201  15.862  20.983  0.0692 -0.2300  0.2319
85001W        W27914  11.940   0.089  29.388  0.2187 -0.0185  0.2897
85002W        W27915  25.009   0.456  15.952  0.2664 -0.1749  0.0263
85003W        W27916  14.744   4.283  16.610  0.2936  0.2997 -0.0135
85004W        W27917  22.673   0.601  16.791 -0.1763 -0.0898  0.1570
85005W        W27918  14.616  31.723  19.599 -0.1587  0.1396 -0.1558
85006W        W27919  19.749  32.797  16.879  0.3849 -0.2073  0.2820
85007W        W27920  19.856  10.166   2.728 -0.1777 -0.0898  0.0308
85008W        W27921  24.427  28.881  22.216  0.0414 -0.2635 -0.0624
85009W        W27922  24.343  32.244  26.717  0.1110 -0.4456  0.1007
85010W        W27923  17.708  34.164  17.898 -0.3947 -0.1508 -0.0009
85011W        W27924  12.150  33.047  16.767  0.4884  0.2230  0.3193
85012W        W27925   9.985   4.217  19.181 -0.2481  0.3093  0.1007
85013W        W27926  21.345   8.091  15.290 -0.0045  0.1054  0.0252
85014W        W27927  13.885   5.690  22.845  0.0747 -0.2652 -0.0326
85015W        W27928  30.738   6.519  25.295 -0.3890  0.0229  0.1610
85016W        W27929  14.474   1.729  18.103  0.0708  0.1639  0.1853
85017W        W27930  26.092   1.130  23.208 -0.2757 -0.1759  0.1498
85018W        W27931  19.571  29.090  24.058  0.1434  0.2223 -0.1633
85019W        W27932  19.565  31.438  22.185 -0.2914 -0.0051  0.1523
85020W        W27933  18.146   5.183  26.532  0.3264  0.1113 -0.0547
85021W        W27934  23.593  15.582  15.462 -0.1741 -0.2426 -0.1057
85022W        W27935   9.965   8.769  20.039 -0.2789  0.1563 -0.1736
85023W        W27936   9.628  30.646  23.822  0.0568  0.0347 -0.2369
85024W        W27937   1.667  31.826  26.846  0.0171 -0.2496 -0.1643
85025W        W27938  20.398  14.941  15.182 -0.3519  0.2525  0.0161
85026W        W27939  17.644   4.273  18.283  0.0077 -0.1127  0.3574
85027W        W27940  27.441   1.660  14.579 -0.3839  0.2328 -0.0056
85028W        W27941  19.687  10.155  15.622  0.0137 -0.2058  0.1031
85029W        W27942  25.705  34.006  24.935 -0.0239 -0.2443 -0.1162
85030W        W27943  13.584  18.586  16.658  0.0233 -0.0287  0.1619
85031W        W27944  25.256   3.413  15.310 -0.0612 -0.1636 -0.1423
85032W        W27945  21.841   5.639  20.893  0.0924 -0.4001  0.2514
85033W        W27946  26.799  33.371   0.211 -0.2752  0.1842  0.4222
85034W        W27947  17.086   8.458  17.663 -0.2161  0.5744  0.0717
85035W        W27948  28.116   6.981  17.100  0.1608 -0.1701  0.3152
85036W        W27949  27.245  32.464  14.109 -0.1045  0.2001  0.2915
85037W        W27950  12.953  29.083  18.365  0.1682  0.1741  0.3141
85038W        W27951  24.736   3.524  13.941 -0.3640  0.2123 -0.1006
85039W        W27952  10.885  33.153   1.383 -0.1772  0.1784  0.0621
85040W        W27953  24.380   2.522  18.119 -0.2498 -0.1718 -0.2238
85041W        W27954  28.373   1.491  25.124  0.3731 -0.0712 -0.1290
85042W        W27955  27.074  17.278  14.769 -0.2573  0.1378  0.1545
85043W        W27956  16.571   3.934  17.143  0.1288  0.2345 -0.2122
85044W        W27957  28.996   2.923  20.795 -0.1958 -0.0219  0.0783
85045W        W27958  29.989   6.281  16.430 -0.2188  0.0419  0.1440
85046W        W27959  26.987  34.237  22.704  0.0994 -0.0274 -0.1869
85047W        W27960  29.315   6.960  22.369  0.0144 -0.0380 -0.0307
85048W        W27961  11.696  29.956  29.605 -0.1249  0.2497  0.0164
85049W        W27962  20.789   8.672  26.662  0.1924  0.2356 -0.2997
85050W        W27963  23.112   5.918  16.122 -0.1373 -0.2418 -0.0092
85051W        W27964  16.838   9.450  18.417 -0.0614  0.0275  0.3663
85052W        W27965  31.567   9.653  24.258  0.1331 -0.0056  0.2710
85053W        W27966  15.612   4.426  21.540  0.0636  0.0761  0.0723
85054W        W27967  21.183   4.576  28.261  0.1300 -0.1241 -0.1765
85055W        W27968  20.041   1.394  28.420  0.0321  0.0540  0.2104
85056W        W27969  13.075   0.314  19.341  0.0097 -0.2245 -0.0231
85057W        W27970  14.199  13.633  25.427  0.3725  0.0512 -0.0562
85058W        W27971  28.828   1.405  23.362 -0.0831 -0.0445  0.0796
85059W        W27972  27.080  11.270  21.677 -0.0457 -0.0379 -0.1808
85060W        W27973  20.259   1.656  24.199  0.2076  0.0379 -0.2903
85061W        W27974  26.972   7.459  20.479 -0.0041 -0.3782 -0.3433
85062W        W27975   4.778  10.336  24.921 -0.1339 -0.2761  0.2465
85063W        W27976  19.199   6.413  18.830  0.2284  0.1199 -0.1903
85064W        W27977  19.126   7.885  24.755  0.0816 -0.2492 -0.1158
85065W        W27978  17.196  11.192  16.235 -0.3097 -0.2082 -0.1091
85066W        W27979   1.759   0.835  17.785 -0.0202 -0.1882 -0.0830
85067W        W27980  31.107   6.769  23.054  0.0006 -0.0395 -0.4338
85068W        W27981  20.871   3.387  14.304  0.1098 -0.4046 -0.0364
85069W        W27982  22.668  33.893  14.822 -0.4162  0.2520 -0.0807
85070W        W27983  19.249  32.236  18.681  0.0117  0.1146 -0.0097
85071W        W27984   7.180  32.487  17.768 -0.0310 -0.0135  0.1547
85072W        W27985  30.424   8.098  22.504  0.0127  0.0185  0.0434
85073W        W27986  22.655  25.139  14.209  0.3189  0.2287 -0.1102
85074W        W27987  14.668  11.149  18.403 -0.0566  0.2455  0.1634
85075W        W27988  14.606   6.838  15.042 -0.1465 -0.0238  0.3063
85076W        W27989  12.256   1.285   0.085  0.0801  0.1518 -0.2727
85077W        W27990  17.744   9.318   4.486 -0.0249 -0.2262 -0.0148
85078W        W27991  17.437  34.230  21.437  0.1019  0.2764  0.0985
85079W        W27992  13.324   1.496  23.972 -0.0981  0.1607 -0.0104
85080W        W27993  15.256  30.808  24.144  0.0397 -0.0159 -0.1114
85081W        W27994  16.342  33.235  26.144 -0.0389 -0.3369  0.1678
85082W        W27995  20.422  12.613  25.028 -0.1414 -0.1709 -0.1679
85083W        W27996  20.500   0.385  17.105  0.0956 -0.0654 -0.0742
85084W        W27997  30.559  10.329  18.481  0.3824  0.0163 -0.1155
85085W        W27998  21.516   0.541  22.306  0.0599  0.0916  0.0893
85086W        W27999  16.298  33.196  27.528  0.2310 -0.1616 -0.3329
85087W        W28000  33.200   7.709  20.990  0.0703  0.1584  0.2662
85088W        W28001  30.688   9.122  24.801  0.3012 -0.0007  0.4334
85089W        W28002  14.409   4.407  23.885  0.0686  0.2010  0.0307
85090W        W28003  17.201   2.955  20.324 -0.0692  0.1340  0.1531
85091W        W28004  10.872  10.215  20.411 -0.4363 -0.2111 -0.0866
85092W        W28005  19.875   5.528  17.631 -0.0490  0.0618 -0.0272
85093W        W28006  12.240  11.245  16.460 -0.1138  0.1352 -0.0374
85094W        W28007  22.959   8.260  21.480 -0.0232 -0.3832 -0.0935
85095W        W28008  24.759   8.698  21.954  0.2332 -0.0285 -0.2366
85096W        W28009  17.636  33.407  15.186 -0.4689  0.0456 -0.2617
85097W        W28010  18.458   5.726  28.540 -0.4498 -0.2023 -0.2627
85098W        W28011  29.111   8.753  16.704  0.3028 -0.0144 -0.3908
85099W        W28012  19.639   8.164  13.951 -0.1394 -0.0304  0.1234
85100W        W28013  17.905   1.153  16.138 -0.0246  0.2966  0.1136
85101W        W28014  19.367  27.626  14.913 -0.1167  0.3830  0.0382
85102W        W28015  16.545   6.897  22.323 -0.2937  0.1117 -0.2385
85103W        W28016  13.499   4.596  15.923 -0.0820  0.2456  0.2373
85104W        W28017   8.645   0.040  19.755  0.2604 -0.2431 -0.1651
85105W        W28018  29.290  10.114  16.817  0.0588  0.3199  0.0115
85106W        W28019  24.075  29.602  24.945 -0.2561  0.1538  0.0401
85107W        W28020  14.838   4.133  22.321  0.1282  0.0451 -0.1547
85108W        W28021  17.925  15.186  22.173  0.2267  0.1388 -0.1571
85109W        W28022  25.505  13.626  20.421 -0.2303  0.2660  0.2419
85110W        W28023  24.264  29.324  20.505 -0.1221 -0.0158 -0.1006
85111W        W28024  26.231   4.785  25.628 -0.1236  0.2629  0.1662
85112W        W28025  14.149   4.104  17.269 -0.0593 -0.1883 -0.0791
85113W        W28026  17.308  10.900  27.263 -0.0427  0.1510 -0.1580
85114W        W28027  19.222   1.459  20.725 -0.3769 -0.2334  0.0582
85115W        W28028  22.371   2.657  26.693 -0.0806  0.0174  0.2023
85116W        W28029  26.089   5.719  14.564  0.1048  0.0932  0.5112
85117W        W28030  12.527  30.097  18.418 -0.0451  0.1992  0.0974
85118W        W28031  23.896   7.536  14.575 -0.0438 -0.0853  0.0501
85119W        W28032  26.962  32.759  21.505  0.0274  0.2688 -0.2096
85120W        W28033  20.405   4.565  18.428  0.1418  0.0290  0.0728
85121W        W28034  12.548  12.036  18.476  0.0812 -0.2040  0.0437
85122W        W28035  12.724   8.606  18.765  0.0106  0.2526  0.2281
85123W        W28036  13.193   8.315   0.271 -0.0851 -0.1984 -0.2569
85124W        W28037  16.977   1.556   0.222 -0.0783 -0.3811  0.3680
85125W        W28038  28.318   1.135  16.753  0.2162  0.4045  0.1814
85126W        W28039  28.322  33.556  18.510  0.0886 -0.1533  0.0329
85127W        W28040  16.940  11.569  18.408  0.0125 -0.2725  0.1196
85128W        W28041  14.414   4.848  20.651 -0.0965 -0.2357  0.1973
85129W        W28042  24.278   4.500  15.508 -0.0199  0.0567 -0.1621
85130W        W28043  29.509   6.170  18.691 -0.0590 -0.0396 -0.0997
85131W        W28044   6.484  29.775  19.682  0.0640  0.0111  0.3561
85132W        W28045  20.227   8.094  24.591 -0.4363 -0.1704 -0.1410
85133W        W28046  27.201  12.999  15.953  0.0294  0.3132  0.1486
85134W        W28047  12.929   7.888   0.437 -0.0165  0.2693 -0.0779
85135W        W28048  22.382  29.201  22.415  0.2178  0.0910  0.0618
85136W        W28049  18.699   6.605  14.170  0.1743  0.3792  0.0016
85137W        W28050   7.134   4.159  22.277 -0.0339 -0.0877  0.3222
85138W        W28051  14.910   9.628  14.311 -0.1621  0.0590 -0.1433
85139W        W28052  25.077  28.045  16.040  0.2868 -0.1637  0.0831
85140W        W28053  24.197   3.219   0.427  0.1149  0.0860  0.0887
85141W        W28054  22.802   3.731  19.641  0.1428  0.4090 -0.0713
85142W        W28055  26.696  10.576  15.649  0.0137  0.0514 -0.2360
85143W        W28056  26.850  12.522  19.278  0.3037 -0.1925 -0.1524
85144W        W28057  11.804  19.593  16.257 -0.0306  0.1224 -0.0388
85145W        W28058  11.874   9.128  25.987 -0.1364  0.0492 -0.3165
85146W        W28059  19.957  20.594  20.004 -0.0165 -0.0307 -0.1258
85147W        W28060  20.351  18.661  15.324  0.1179  0.0751 -0.1775
85148W        W28061  25.234   4.725  18.497 -0.3085 -0.0467 -0.0918
85149W        W28062  21.049   0.775  18.639  0.0298  0.0433  0.1092
85150W        W28063  30.024   2.246  28.325  0.0220  0.1288  0.2387
85151W        W28064  25.008  32.058  15.569  0.1272  0.0847  0.0481
85152W        W28065  17.263   9.191  19.503  0.0397 -0.2809  0.2960
85153W        W28066   9.808  31.142  25.761 -0.0682  0.1318 -0.0974
85154W        W28067  18.623   4.794  18.481 -0.0807 -0.1282  0.0004
85155W        W28068  12.357   9.312  19.996  0.0779  0.0174 -0.1435
85156W        W28069  20.764  33.263  25.203 -0.1948  0.1235 -0.2155
85157W        W28070  26.536  25.675  20.752 -0.1286  0.3094  0.2644
85158W        W28071   0.227   0.261   3.184 -0.1013 -0.0027 -0.0593
85159W        W28072  17.990   1.079  24.801  0.2382 -0.0659  0.2974
85160W        W28073  22.316  28.345  13.859  0.0724  0.1270 -0.2289
85161W        W28074  14.887   5.600  18.150  0.0968 -0.0278  0.1761
85162W        W28075  27.288   0.286  18.202 -0.3719 -0.0742 -0.0024
85163W        W28076  22.231  26.195  15.137 -0.1829  0.0090 -0.2364
85164W        W28077  11.764   9.951  19.623 -0.1257 -0.0781  0.3583
85165W        W28078  24.518   5.648  26.328  0.0995  0.1982  0.1257
85166W        W28079  27.039   3.512  23.715  0.1128 -0.1431 -0.0119
85167W        W28080  30.649   7.414  18.209 -0.0299 -0.0504  0.0715
85168W        W28081  28.305   0.698  25.349  0.1796  0.3034  0.1766
85169W        W28082  20.685   5.637  25.582  0.5197  0.3245 -0.1156
85170W        W28083  16.170  30.953  17.547  0.2152  0.2684 -0.2232
85171W        W28084   9.053   1.523   0.599 -0.1855 -0.2513 -0.0218
85172W        W28085  12.769  13.299  19.861  0.0116  0.1507 -0.2121
85173W        W28086  21.512   2.526  22.521  0.2458 -0.0067 -0.0162
85174W        W28087  22.048   1.291  22.160  0.0793 -0.1165  0.3213
85175W        W28088  15.752  30.474  15.524 -0.2170 -0.0175 -0.0924
85176W        W28089  16.421  33.411  24.429 -0.0801 -0.2181 -0.0296
85177W        W28090  22.126  14.247  13.893  0.2031  0.3994  0.0848
85178W        W28091  24.970   6.306  17.293  0.2399  0.0604  0.0424
85179W        W28092  17.113   2.246   5.536  0.1336 -0.3091 -0.0521
85180W        W28093   8.701   5.378  18.501  0.0137  0.3124 -0.0332
85181W        W28094  21.142  10.377  18.198 -0.3753  0.2074 -0.1680
85182W        W28095  14.943   2.673   3.928 -0.1980  0.0182 -0.0642
85183W        W28096   9.696   1.492  25.441 -0.0983  0.0235  0.0598
85184W        W28097  16.192   3.001  17.827  0.0162  0.2945 -0.0621
85185W        W28098  31.111  10.150  17.931 -0.2834  0.0409 -0.2996
85186W        W28099  28.691  28.312  24.376  0.5455 -0.3208  0.1472
85187W        W28100  25.678  12.101  15.712 -0.1454 -0.0744  0.1411
85188W        W28101  20.142  34.401  25.012 -0.0535  0.1223 -0.3340
85189W        W28102  18.959   6.115  21.159 -0.2200 -0.1567  0.1072
85190W        W28103  19.622  30.613  22.968  0.2543  0.1630  0.0836
85191W        W28104  18.018   7.551  14.787  0.1653 -0.1020  0.1660
85192W        W28105  14.444   3.943  20.960 -0.0927  0.0542  0.0919
85193W        W28106  24.126   5.569  18.643  0.0698  0.1190 -0.0113
85194W        W28107  29.818   1.740  15.999 -0.3133 -0.2688  0.0932
85195W        W28108  19.690   2.970  17.269 -0.1056 -0.0321  0.0170
85196W        W28109  17.534  12.879  28.700 -0.2428 -0.0741  0.1489
85197W        W28110  22.520   9.063  21.283  0.0693  0.1656  0.0635
85198W        W28111  29.186  19.518  25.050  0.2190  0.3496 -0.2849
85199W        W28112  28.081  28.712  18.133  0.1884  0.0322 -0.0268
85200W        W28113  21.384  28.824  22.034  0.0056 -0.0802  0.1750
85201W        W28114  24.725   4.425  29.274 -0.0119  0.2609  0.1300
85202W        W28115  13.050   7.126  25.018  0.1274  0.1878 -0.0202
85203W        W28116  24.059  30.989  13.798 -0.0353 -0.0138 -0.0491
85204W        W28117  24.660  33.985  17.656  0.0102  0.2425  0.1848
85205W        W28118  17.403   8.870  13.223  0.2756 -0.0382  0.3200
85206W        W28119  28.763   4.708  25.512  0.0770 -0.0044 -0.2608
85207W        W28120  20.077   4.331  20.257 -0.1630 -0.3159  0.0605
85208W        W28121   8.272   5.441  28.308  0.2898 -0.2836  0.0824
85209W        W28122  11.169  34.320  28.169  0.2371 -0.2696 -0.1316
85210W        W28123  24.780   0.876  17.890 -0.3853 -0.0181  0.0492
85211W        W28124  22.951  26.383  26.322  0.2664  0.1738  0.1187
85212W        W28125  19.527  33.647   0.004 -0.0371 -0.0387 -0.2105
85213W        W28126  15.095  10.902  22.863 -0.1540  0.1525  0.2432
85214W        W28127  17.808   7.291  18.265 -0.1517  0.0480  0.1057
85215W        W28128   9.327   8.334  17.402 -0.0382 -0.2368  0.1720
85216W        W28129  20.326  29.762  21.966  0.2681 -0.2967 -0.4232
85217W        W28130  19.758  33.460  18.670  0.1860 -0.1723  0.2859
85218W        W28131  20.172  34.287  29.444 -0.2266 -0.1334  0.3478
85219W        W28132  33.654   0.912  18.298  0.0994  0.1247 -0.0056
85220W        W28133  16.527  10.352  18.070 -0.0706  0.6491  0.1530
85221W        W28134  25.426   9.597  22.241  0.0612 -0.0648 -0.2071
85222W        W28135  17.558   5.322  26.287  0.0109 -0.0321  0.2506
85223W        W28136  26.167  32.646  18.226 -0.4860 -0.1416 -0.1140
85224W        W28137  26.110   3.605  19.894 -0.0006  0.3381 -0.2472
85225W        W28138  31.719  18.907  18.046 -0.0056  0.2430 -0.1123
85226W        W28139  27.876  29.290  15.645 -0.2260  0.3571 -0.0714
85227W        W28140  20.840   2.455   0.516  0.2117 -0.0297  0.0185
85228W        W28141  24.602  12.180   6.325 -0.1145  0.2156 -0.1894
85229W        W28142  17.062   0.428  18.400  0.0495  0.1066 -0.2158
85230W        W28143  31.660  29.917  15.603  0.0949 -0.1427 -0.3238
85231W        W28144  15.856  12.257  13.892 -0.0348  0.2091 -0.1619
85232W        W28145  24.940  28.895  18.249  0.3882 -0.1731 -0.1144
85233W        W28146  27.668   5.858  18.349  0.0294  0.2236  0.0219
85234W        W28147  14.882  33.254  23.759  0.1776 -0.0047 -0.0230
85235W        W28148  17.133  26.709  22.496 -0.0096  0.1583  0.0791
85236W        W28149  31.267   8.944  21.262  0.1018 -0.4002 -0.0190
85237W        W28150  31.200   0.747  15.579  0.2472  0.1879 -0.0750
85238W        W28151  23.314  15.310  24.897 -0.0377 -0.1386 -0.0977
85239W        W28152  15.267   7.205  18.567  0.0400 -0.2415 -0.3790
85240W        W28153  18.869  12.984  25.779  0.1932 -0.1805  0.1735
85241W        W28154  18.687  33.002  19.605 -0.0964  0.1494 -0.2446
85242W        W28155  24.200  14.103  18.256  0.2113  0.0310 -0.0055
85243W        W28156  25.854  30.463  16.589 -0.0986  0.2665 -0.1559
85244W        W28157  22.985  12.181  24.958 -0.0106 -0.0124  0.1045
85245W        W28158  21.313   8.317  25.185 -0.1214  0.1774  0.2052
85246W        W28159  19.871  30.888  23.407  0.1516  0.1577  0.2608
85247W        W28160  15.194   4.506  26.274  0.0034  0.3261  0.1552
85248W        W28161  21.394  28.174  23.046  0.1129 -0.3149  0.3557
85249W        W28162  28.903  11.811  16.774  0.2492 -0.0019 -0.1165
85250W        W28163  22.965  10.664  27.270  0.0477 -0.1279 -0.0323
85251W        W28164  18.244   9.842  13.930  0.0363 -0.1535 -0.1266
85252W        W28165  27.890  12.494  22.936  0.1373  0.3520  0.3960
85253W        W28166  14.188   2.531  20.772  0.0821  0.2743 -0.0483
85254W        W28167  22.819   4.244  17.716  0.1199  0.0300  0.0158
85255W        W28168  23.840   1.261  19.996 -0.0743 -0.3154  0.4049
85256W        W28169  20.908   9.318  23.749 -0.2135 -0.0686  0.1957
85257W        W28170  15.274  32.708  25.565 -0.0862  0.2206 -0.3611
85258W        W28171  28.638   7.775  19.847 -0.0196 -0.0123  0.1336
85259W        W28172  21.045   7.388  29.764  0.2479  0.1000  0.0026
85260W        W28173  23.622  30.670  17.528 -0.0678  0.0741  0.1723
85261W        W28174  26.599  33.762  22.061 -0.1823 -0.1783  0.1810
85262W        W28175   7.913   5.557  19.737  0.0266 -0.2436  0.3077
85263W        W28176  25.151   8.180  17.149 -0.2971 -0.1179 -0.2479
85264W        W28177  30.279  10.138  20.659  0.3203  0.3375 -0.0417
85265W        W28178  13.919   8.654  26.257 -0.0826 -0.2410 -0.0438
85266W        W28179  21.475   5.412  19.050  0.2541 -0.1045 -0.2138
85267W        W28180  30.189   6.132  17.950  0.1714 -0.0258 -0.4043
85268W        W28181  27.376   7.902  20.525 -0.1426  0.2899 -0.1176
85269W        W28182  28.466   8.008  23.207 -0.1816  0.0196  0.0774
85270W        W28183  17.338  10.653  20.357 -0.3357  0.2487  0.0081
85271W        W28184  13.009  31.396  25.568 -0.0314  0.3049 -0.0579
85272W        W28185  18.601   2.353  14.519  0.2961  0.3475  0.4599
85273W        W28186  10.692   1.518  27.361 -0.0269  0.5326 -0.1337
85274W        W28187  32.050  31.495  20.576  0.1192  0.0194 -0.0975
85275W        W28188  29.606   7.303  14.867 -0.0643 -0.0256  0.1374
85276W        W28189  22.691   1.181  25.724 -0.1817  0.2536  0.3218
85277W        W28190  25.325  10.267  19.321 -0.1824  0.1997  0.2368
85278W        W28191  19.813  14.085  16.440 -0.1783  0.0572  0.1371
85279W        W28192  23.638   6.085  27.712 -0.0619 -0.0820 -0.1428
85280W        W28193  12.303  34.411  16.362  0.0145 -0.0900 -0.1000
85281W        W28194  27.894  30.130  17.794 -0.1219  0.1622 -0.3663
85282W        W28195  14.422  10.156  19.999  0.1055  0.0951  0.1930
85283W        W28196  21.691   9.386  13.183 -0.0825 -0.0103 -0.2147
85284W        W28197  32.878   4.466  16.987  0.0435 -0.0208 -0.0652
85285W        W28198  18.510  11.004  24.597 -0.2200  0.2735 -0.0886
85286W        W28199  13.368  12.952  14.379 -0.0002  0.0056  0.0979
85287W        W28200  18.108  27.616   7.948  0.0314  0.1118 -0.1874
85288W        W28201   9.759  30.875  22.439  0.0878 -0.0775 -0.1223
85289W        W28202   1.912  34.364  22.761 -0.5343 -0.0774  0.1818
85290W        W28203  21.693  28.658  22.895  0.0079 -0.3691 -0.2740
85291W        W28204  22.643   6.583  16.799 -0.1897 -0.2558  0.1154
85292W        W28205  18.617   0.248  22.922  0.1655  0.1520 -0.0505
85293W        W28206  25.284  27.788  13.742 -0.1760 -0.0028  0.2384
85294W        W28207  16.428  15.560  23.935 -0.0916  0.5699 -0.0082
85295W        W28208  13.937   8.021  18.657  0.4952 -0.0235 -0.2534
85296W        W28209  19.534   7.677  13.048  0.0907  0.3459  0.1756
85297W        W28210  25.674   9.490  15.038 -0.0285  0.0877 -0.1231
85298W        W28211  23.073   3.869  13.878  0.1628  0.1762  0.1220
85299W        W28212  22.432  32.989   0.704 -0.2006  0.1428 -0.0833
85300W        W28213  24.069   6.025  27.531  0.1935  0.0001 -0.3291
85301W        W28214  30.455   0.608  27.178 -0.0829 -0.3476 -0.1228
85302W        W28215  29.921   3.879  16.325 -0.1254 -0.2907 -0.1339
85303W        W28216  13.595  17.249  27.991 -0.0774  0.0542  0.0612
85304W        W28217  22.902   9.111  19.677  0.1032 -0.1384 -0.2306
85305W        W28218  25.817   9.589  17.341  0.0216  0.0083  0.1700
85306W        W28219  17.171   5.320  14.054 -0.1046 -0.0258  0.4453
85307W        W28220  24.105  17.995  17.340 -0.1213 -0.0575  0.0878
85308W        W28221  29.712   5.942  16.855 -0.2372 -0.1301 -0.0779
85309W        W28222  23.321  34.141  18.172  0.0697 -0.0169  0.0332
85310W        W28223  18.387   0.296  20.382  0.0292 -0.4223 -0.2218
85311W        W28224  25.001  13.103  26.457 -0.0592  0.2686  0.0375
85312W        W28225  15.216   3.183  15.438  0.0746 -0.3042 -0.0973
85313W        W28226  19.375   7.801  19.846 -0.0246 -0.1779  0.1067
85314W        W28227  15.371  30.586   0.070  0.1516 -0.1766  0.0038
85315W        W28228  17.141   5.889  29.125  0.2252  0.1078  0.0922
85316W        W28229  20.278   6.247   6.041  0.1461 -0.1631 -0.1150
85317W        W28230  31.525  30.842  26.242  0.0523 -0.1864  0.2679
85318W        W28231  18.993  12.117  28.227 -0.0583  0.2103  0.3918
85319W        W28232  27.026  32.200  19.373  0.1106 -0.0032 -0.0107
85320W        W28233  28.966  14.468  21.762  0.1351  0.0373  0.0481
85321W        W28234  18.004   5.551   0.176  0.0152  0.2232 -0.1028
85322W        W28235  22.540  12.718  21.862  0.2677  0.1850  0.2227
85323W        W28236  18.597   2.624  22.025  0.2132  0.0855  0.1657
85324W        W28237  10.263  28.583   6.705  0.0731 -0.2497  0.1096
85325W        W28238  21.467   8.434  25.660  0.0639  0.1753 -0.0753
85326W        W28239   4.591  27.956  28.291  0.1075  0.0515  0.2080
85327W        W28240  16.130  10.773  15.859 -0.3294  0.1093  0.1858
85328W        W28241  23.617  31.036  24.062  0.0939  0.0390 -0.0902
85329W        W28242  29.275  15.591  28.263 -0.1253 -0.0659  0.1165
85330W        W28243  15.216   2.010  29.555 -0.0095 -0.0382 -0.2551
85331W        W28244  17.740  11.569  24.344 -0.0543 -0.2009 -0.0100
85332W        W28245  26.529   4.939  20.554  0.2395  0.2799  0.0115
85333W        W28246  27.223  11.912  22.301  0.1274  0.0267  0.1384
85334W        W28247   4.232   7.199  27.802 -0.3121  0.0359  0.0878
85335W        W28248  26.098  33.918  23.263  0.0226 -0.1929 -0.0946
85336W        W28249  19.709  17.176  27.238  0.0191  0.0248 -0.1329
85337W        W28250  12.162  32.726  21.172  0.1008 -0.1332 -0.0040
85338W        W28251  10.418   7.213  16.929 -0.0806 -0.0647 -0.1386
85339W        W28252   9.340   9.171  26.429 -0.0540 -0.0003  0.0743
85340W        W28253  21.683  34.124  16.163  0.0140 -0.0886  0.3444
85341W        W28254  15.082  30.897  16.666  0.3061  0.0764  0.1431
85342W        W28255  28.819   6.229  18.067 -0.2288  0.2255 -0.2971
85343W        W28256  25.179  32.273  15.995 -0.0505 -0.0446 -0.0177
85344W        W28257   0.316   5.913  18.648  0.0117  0.2018  0.1078
85345W        W28258  21.082   9.990  20.666  0.0884  0.0020 -0.1411
85346W        W28259  18.017   8.254   0.523 -0.0179 -0.0952 -0.1769
85347W        W28260  13.747  16.302  14.017 -0.0477 -0.0958  0.1293
85348W        W28261  19.587   4.991  20.599  0.2263  0.1512 -0.1596
85349W        W28262  23.319   6.522   5.586 -0.1409 -0.2869 -0.0694
85350W        W28263  26.415   7.808  27.244 -0.1777 -0.1630 -0.0182
85351W        W28264  23.549  32.549  16.900  0.0895  0.2607  0.1023
85352W        W28265  27.074  17.090  17.714 -0.1236  0.3963  0.1513
85353W        W28266  14.200   5.816  28.371  0.2191  0.1792 -0.0431
85354W        W28267  11.016   9.207   5.706 -0.2749 -0.1751  0.0306
85355W        W28268  16.994  16.528  25.777 -0.1899  0.2565 -0.2288
85356W        W28269  17.690   9.906  18.585 -0.1724 -0.1518  0.0469
85357W        W28270  25.917  33.276  24.206 -0.1154  0.1120 -0.0013
85358W        W28271  24.404  33.518  22.049 -0.0182 -0.0146 -0.1716
85359W        W28272  21.358   1.262  14.328 -0.1230  0.0958  0.0612
85360W        W28273  22.840   9.265  16.032  0.0973 -0.0161 -0.1761
85361W        W28274  31.302   3.808  21.138 -0.1554  0.1208  0.0503
85362W        W28275  13.689   4.846  17.924 -0.2667  0.0575  0.0227
85363W        W28276  24.675   2.978  23.501 -0.2232  0.1271 -0.5321
85364W        W28277  31.279  14.078  16.846  0.3827 -0.1976 -0.0402
85365W        W28278  11.563   0.656  27.448  0.0251  0.0251 -0.1559
85366W        W28279  15.514  28.579  28.873  0.0188  0.0501  0.3629
85367W        W28280  16.364   0.880  28.475 -0.6579 -0.2335  0.0531
85368W        W28281  19.317   6.115  18.270  0.0724 -0.2562  0.1467
85369W        W28282  22.176  33.556  17.442  0.1985 -0.2229  0.0941
85370W        W28283  23.029   4.734  21.773  0.3450  0.1379  0.1349
85371W        W28284  10.956   8.045   0.037 -0.0184 -0.1664  0.2463
85372W        W28285  32.102  33.406  16.771 -0.0026 -0.1145  0.3238
85373W        W28286  18.951   4.695  20.298 -0.0012  0.1149 -0.5074
85374W        W28287  16.222   7.532  16.079  0.2247 -0.0332 -0.3844
85375W        W28288  27.738   8.877  17.945  0.3556  0.1680 -0.1002
85376W        W28289  20.557  11.239  28.054 -0.0066  0.0080  0.1955
85377W        W28290  10.682   5.573  18.123 -0.2757 -0.2696  0.2349
85378W        W28291  11.138  31.814   5.070 -0.1208 -0.2635  0.0465
85379W        W28292  18.334   4.894  25.103  0.2351  0.1151  0.1798
85380W        W28293  24.038  14.194  20.154  0.1003  0.1667 -0.1354
85381W        W28294  19.437   9.041   0.722  0.1599  0.1383  0.0601
85382W        W28295  31.204  12.279  16.517  0.2636  0.1097  0.1624
85383W        W28296  19.618   5.819   4.622 -0.1577 -0.1291 -0.2282
85384W        W28297  15.963   2.821  15.155  0.1771 -0.3051  0.1538
85385W        W28298  26.337  10.498  20.551  0.2243 -0.4706 -0.0587
85386W        W28299  16.458   8.058  24.416  0.2102 -0.2661 -0.1935
85387W        W28300  16.449  14.922  25.428 -0.0951 -0.0524  0.3791
85388W        W28301  18.734  12.350  26.372 -0.0749  0.0006 -0.1604
85389W        W28302  22.490   9.742   2.625 -0.1326 -0.0766  0.2896
85390W        W28303  26.952  11.405   5.966 -0.1379  0.0330 -0.0950
85391W        W28304  12.405   4.064  23.434 -0.0265 -0.1276  0.2424
85392W        W28305   7.327   6.021  24.524  0.2414  0.1379 -0.2107
85393W        W28306  20.430  28.531   1.655  0.2428  0.3116  0.0634
85394W        W28307  23.092   7.025  20.218 -0.0357  0.1254  0.0576
85395W        W28308  23.331   6.658  20.777 -0.2789 -0.2852 -0.1074
85396W        W28309  18.613  33.934  19.482  0.1432 -0.1583 -0.1571
85397W        W28310  14.300  29.070  20.500 -0.0241  0.2751 -0.0128
85398W        W28311  32.912   2.129   0.601  0.1010 -0.0742 -0.5989
85399W        W28312  10.598  10.551  19.020 -0.0414 -0.2124 -0.0235
85400W        W28313  24.791   3.645  15.146 -0.0830  0.2950  0.0603
85401W        W28314  20.124   8.018  20.234  0.0059  0.1118 -0.0566
85402W        W28315  16.999   7.783  14.558  0.0358  0.0904  0.0819
85403W        W28316  12.890  32.118  25.197  0.0913 -0.2518  0.1245
85404W        W28317  23.925   3.919  24.263 -0.1175 -0.0847  0.0932
85405W        W28318  13.753   3.867  18.025  0.1322  0.1221 -0.2629
85406W        W28319  26.670   0.635  24.008 -0.0311  0.1646  0.1421
85407W        W28320  24.143   7.487  28.118  0.1547  0.3592 -0.1687
85408W        W28321  11.839   3.779  28.891 -0.0523  0.1714  0.2583
85409W        W28322  17.609  11.203  25.104  0.1296  0.2413  0.0713
85410W        W28323  25.864  12.528  24.273 -0.5931  0.5816  0.2172
85411W        W28324  12.428   5.192  18.158 -0.1262 -0.0229 -0.4112
85412W        W28325  11.079   3.204  26.123  0.1624  0.0500 -0.3782
85413W        W28326  22.581  11.651  24.882 -0.1024 -0.0276 -0.1961
85414W        W28327  26.392  24.918   0.822 -0.2333 -0.1989 -0.1391
85415W        W28328  12.895  32.140  22.577 -0.0769 -0.0856  0.3172
85416W        W28329  16.337  33.430  20.424 -0.3453 -0.0395  0.2189
85417W        W28330  25.005  10.295  19.726  0.1771 -0.0390 -0.0409
85418W        W28331   9.279   2.970  20.000 -0.0756 -0.1388  0.0252
85419W        W28332  20.625  34.031  25.271 -0.0578 -0.2230 -0.3616
85420W        W28333  18.851  11.428  18.472 -0.2866 -0.0870 -0.0769
85421W        W28334  18.598   9.594  20.528 -0.0810  0.1080  0.2244
85422W        W28335  11.932   7.542  16.577 -0.0348 -0.0841 -0.1613
85423W        W28336   7.002  30.043  26.910  0.2696  0.3759 -0.1521
85424W        W28337  10.206  17.719   4.079  0.0101 -0.2613 -0.2323
85425W        W28338  13.776   4.189  17.667  0.0078  0.1725  0.3663
85426W        W28339  18.349  25.952  29.190 -0.0445 -0.0835 -0.1966
85427W        W28340  25.354  34.419  20.677  0.0049 -0.0656 -0.2565
85428W        W28341  17.474   5.358  14.439  0.0247 -0.1750  0.1593
85429W        W28342  28.380   9.597  16.825  0.1752  0.0930 -0.1445
85430W        W28343  14.826   0.604  19.660 -0.0788 -0.3307 -0.0027
85431W        W28344  19.334   5.462  18.319 -0.0972 -0.0706  0.1699
85432W        W28345  15.684   9.907   2.218  0.2302  0.2003 -0.2939
85433W        W28346  22.164   5.063  20.337  0.1384 -0.0730 -0.2478
85434W        W28347  14.486  15.577  13.143  0.2386 -0.1317 -0.1410
85435W        W28348  14.054   0.139   5.821  0.1558  0.0430  0.1377
85436W        W28349   8.297  12.826   1.029  0.1417 -0.0398  0.0670
85437W        W28350  20.146   0.234  15.291 -0.1123 -0.0391  0.2049
85438W        W28351  14.254  10.893  18.523  0.2363 -0.0224  0.2929
85439W        W28352  24.619  11.435  19.612  0.3385  0.3516  0.1483
85440W        W28353  17.516   0.775  22.918 -0.1228 -0.2261 -0.0477
85441W        W28354  19.002   1.996  17.162 -0.0363 -0.1695  0.1855
85442W        W28355  17.786   4.629   9.448  0.0964 -0.1451  0.0361
85443W        W28356  18.967   1.480  15.165  0.0683 -0.2074  0.2302
85444W        W28357  20.043   6.083  13.261  0.0740  0.0549  0.2658
85445W        W28358  21.477   7.954  18.879  0.5166 -0.0788  0.0261
85446W        W28359  15.909   3.386  19.779  0.1147 -0.1512  0.0937
85447W        W28360  22.717   4.034   0.056  0.1622 -0.1246  0.1997
85448W        W28361  14.830  29.263  24.978  0.2150 -0.2042 -0.3727
85449W        W28362  24.668  31.762  21.536 -0.0247 -0.0713 -0.0067
85450W        W28363  26.529  12.238  17.149  0.2553 -0.0119  0.3971
85451W        W28364  16.449  10.433  22.293  0.0227  0.1043  0.2229
85452W        W28365  15.852   2.833  26.806 -0.1734 -0.1309 -0.0192
85453W        W28366  15.245  24.400  25.704 -0.2741 -0.0520  0.0074
85454W        W28367  14.035   9.818  25.161 -0.2462  0.2128  0.0980
85455W        W28368  27.444  31.545  13.778 -0.1681 -0.1349  0.1687
85456W        W28369  16.267  33.274   4.524  0.0585  0.1642  0.5604
85457W        W28370  16.882   3.198  18.981 -0.2001  0.2692  0.3533
85458W        W28371  25.488   4.656  15.444 -0.0921  0.1396 -0.0102
85459W        W28372  17.953   1.870  21.079 -0.0657 -0.2127 -0.0223
85460W        W28373  21.297  13.555  13.083  0.4872  0.0739  0.2064
85461W        W28374  13.210  26.352  27.274 -0.0687  0.3377 -0.1639
85462W        W28375  15.440  34.441  21.120 -0.2167  0.0483 -0.0411
85463W        W28376  21.515   2.642  26.108 -0.1104  0.0502  0.0477
85464W        W28377  27.378   1.944  20.907 -0.0856  0.2483 -0.1688
85465W        W28378  23.620  25.157   0.569 -0.3797 -0.4214 -0.1008
85466W        W28379  17.944   8.456  18.259 -0.1713  0.2134 -0.1510
85467W        W28380  20.347   1.757  20.962  0.0389  0.2128  0.0920
85468W        W28381  10.242   0.048  25.176 -0.1434 -0.1822 -0.2552
85469W        W28382   9.582   1.124  23.289 -0.2795  0.1201 -0.1725
85470W        W28383  17.140  12.446  14.581  0.2408 -0.1816  0.1371
85471W        W28384  10.005   5.326  21.064  0.2510 -0.1735  0.2596
85472W        W28385  15.284  33.298  28.028  0.1605  0.0552 -0.2400
85473W        W28386  10.404   8.202  18.090 -0.3068 -0.0406  0.0672
85474W        W28387  21.268   6.647   0.558  0.0129 -0.1661 -0.1533
85475W        W28388  18.128  10.814  24.260  0.2920 -0.0682 -0.0906
85476W        W28389  24.091   1.811  13.277  0.1854 -0.2086 -0.0064
85477W        W28390  22.655   2.803  18.218 -0.1783 -0.0602 -0.0662
85478W        W28391  22.778   5.349  28.809 -0.1991  0.0844  0.2283
85479W        W28392  18.560   7.861   3.143  0.2296 -0.3597  0.3910
85480W        W28393  19.449   1.864  16.017  0.2451  0.2155 -0.0414
85481W        W28394  18.379   7.917  17.497  0.1190  0.1327  0.0213
85482W        W28395  23.188  11.174   1.872  0.0765 -0.0832 -0.0722
85483W        W28396  17.578   0.018  28.683 -0.0318  0.2398 -0.0708
85484W        W28397  18.123   2.745   0.792  0.0747  0.0786  0.0722
85485W        W28398  22.805   3.843   1.091  0.5631 -0.0266  0.0369
85486W        W28399  28.245  32.611  21.694 -0.2501  0.2762 -0.2427
85487W        W28400  16.234   3.560  28.974  0.1561  0.0775 -0.2941
85488W        W28401  12.894   1.794  17.726 -0.1199  0.1317  0.2544
85489W        W28402  11.985   6.042  16.587  0.0109 -0.3034 -0.2530
85490W        W28403  20.513  18.453  21.881 -0.1862 -0.1649 -0.0917
85491W        W28404  23.381   1.487  22.233 -0.1859  0.0927  0.0879
85492W        W28405  18.074  10.856  19.675  0.2137  0.0508  0.1475
85493W        W28406  21.609  33.741  19.274  0.1351 -0.1958  0.2086
85494W        W28407  14.027   1.267  27.265 -0.2291 -0.2495  0.1644
85495W        W28408  21.492   4.002  29.696 -0.0985 -0.2182 -0.1120
85496W        W28409  14.993   4.770  29.129  0.2395 -0.0716  0.1934
85497W        W28410  24.642  29.330  23.270 -0.2346 -0.1417  0.2472
85498W        W28411  23.682  32.710  17.835  0.0016 -0.1152 -0.0064
85499W        W28412  12.957  10.066   5.347  0.1355 -0.0633 -0.1099
85500W        W28413  32.888   1.965  18.755  0.1503 -0.3346  0.0648
85501W        W28414  21.996  11.209  26.028 -0.1735  0.1422  0.1659
85502W        W28415  23.414   0.529   3.617 -0.1265  0.2458  0.0018
85503W        W28416   8.325   7.470  24.563 -0.0820  0.3595  0.0884
85504W        W28417  19.030   7.119  15.838  0.2200  0.1814 -0.1487
85505W        W28418  22.345   2.790  15.538 -0.0037 -0.0570  0.3851
85506W        W28419  17.990   8.066  26.963  0.2320 -0.1162  0.0190
85507W        W28420  14.335   1.765  23.599 -0.1194  0.0743  0.2028
85508W        W28421  24.800  13.256  18.557 -0.1905  0.1894  0.0282
85509W        W28422  15.609   9.578  27.176 -0.0603  0.0661  0.0080
85510W        W28423   8.016   7.028  19.651 -0.1778  0.2325 -0.2881
85511W        W28424  17.596   3.030  26.574 -0.0492 -0.2700 -0.0362
85512W        W28425  15.237  30.569  27.187  0.2235 -0.2731 -0.0296
85513W        W28426  32.768  27.975  25.268  0.0912  0.1664  0.1478
85514W        W28427  21.698  32.280  17.644 -0.0991 -0.0969 -0.0839
85515W        W28428  29.147   3.200  28.038  0.0350 -0.1403  0.2567
85516W        W28429  17.178   7.910  22.726 -0.0933  0.1710  0.0177
85517W        W28430  18.903   6.478  16.560 -0.0159  0.0533 -0.3915
85518W        W28431  19.700   2.788  28.824  0.3120  0.0253  0.0983
85519W        W28432  15.019  32.323  17.271  0.0464 -0.1050  0.1122
85520W        W28433  10.110   3.816  21.561 -0.0072  0.0077 -0.0063
85521W        W28434  21.153  34.208   5.146 -0.2291  0.3459 -0.5085
85522W        W28435   2.971   1.850  25.780  0.1609 -0.5017 -0.0079
85523W        W28436  25.191  17.821  17.316  0.0622 -0.3135 -0.0453
85524W        W28437  20.447   2.990  29.660  0.0589  0.0005  0.1444
85525W        W28438  26.292   8.089  18.809  0.1656 -0.3264  0.2811
85526W        W28439  24.195   4.333  26.265 -0.1176 -0.3450  0.1794
85527W        W28440  10.459  26.102  22.181  0.0921 -0.3106 -0.1030
85528W        W28441  24.449  15.364  24.670  0.1624  0.3074  0.0209
85529W        W28442  26.090  15.845  20.398  0.1897 -0.2882  0.2855
85530W        W28443  34.341   6.629  22.789  0.1569 -0.0692 -0.0043
85531W        W28444  10.474  34.492  23.164  0.1425  0.1967  0.0322
85532W        W28445  18.484   4.835   5.139  0.1026 -0.3712 -0.2467
85533W        W28446  17.175   2.592  15.131 -0.2615 -0.2238  0.2720
85534W        W28447  19.225  30.276  28.592 -0.2456  0.0653  0.1252
85535W        W28448   7.379  23.327  21.426  0.1595 -0.0755 -0.1140
85536W        W28449  20.091  31.685  15.762  0.0721 -0.1338  0.0239
85537W        W28450  21.865   0.869  21.849  0.0263  0.0298  0.0120
85538W        W28451  23.516  31.341  24.886  0.1014 -0.0443  0.1026
85539W        W28452  18.808  32.956  27.367 -0.0549  0.1587  0.0195
85540W        W28453  28.184   5.930  29.586  0.2889  0.0746  0.1807
85541W        W28454  11.880   3.125  17.119 -0.1280  0.0714 -0.3694
85542W        W28455  29.475  33.332  21.432  0.0951 -0.1302  0.2062
85543W        W28456  30.545  29.770  25.108 -0.0452  0.4747  0.0586
85544W        W28457  30.014   5.229  15.600  0.0534 -0.1540  0.1499
85545W        W28458  19.179   8.744  22.983  0.1781 -0.1017  0.3454
85546W        W28459  11.765   7.521  28.621 -0.2458 -0.0439  0.5219
85547W        W28460  16.149   9.850   3.215 -0.1074 -0.0526 -0.1873
85548W        W28461  29.416  21.335   0.098 -0.1920 -0.0204 -0.1753
85549W        W28462  31.520   5.924  16.029  0.0902 -0.2382  0.2561
85550W        W28463   8.705  10.378  17.860  0.0174  0.0050 -0.1328
85551W        W28464  21.558   9.182  28.925 -0.1888  0.3819 -0.0007
85552W        W28465  26.230   1.677  23.591 -0.1241  0.1678  0.1486
85553W        W28466  22.192  33.293  23.450 -0.3778  0.1252 -0.1235
85554W        W28467  18.019   9.776  14.403  0.0486  0.0946  0.0314
85555W        W28468  23.087   0.946  24.775 -0.0021  0.0721 -0.0177
85556W        W28469  12.270   6.514  17.615  0.3523 -0.0346 -0.0025
85557W        W28470  26.970   5.937  23.649  0.1404 -0.0946  0.2286
85558W        W28471  12.268   5.220  17.167 -0.0782 -0.0772 -0.0138
85559W        W28472  18.445   3.297  16.204 -0.1511 -0.0424  0.4833
85560W        W28473  11.225   9.276  20.551  0.0374 -0.2632 -0.0116
85561W        W28474  26.022   2.914  22.717  0.1285 -0.0439  0.1036
85562W        W28475  17.875  34.327  25.308  0.0379  0.4780 -0.1505
85563W        W28476  24.038  27.757  12.269 -0.1362  0.4419 -0.3920
85564W        W28477  21.080   1.838  18.399  0.0441  0.6358  0.6724
85565W        W28478  12.041   9.416  21.320 -0.3722 -0.1047  0.2395
85566W        W28479   2.100   0.988  18.602 -0.0929 -0.0975 -0.0217
85567W        W28480   5.356  34.419  19.908 -0.1207 -0.0595 -0.2883
85568W        W28481  23.228   2.394  15.563 -0.1859 -0.0151 -0.3159
85569W        W28482  32.873  31.676  19.776 -0.0944 -0.2856 -0.2804
85570W        W28483  15.837   4.968   3.137 -0.1050  0.0551 -0.2806
85571W        W28484  24.142  33.612  26.269 -0.2209  0.1991 -0.1377
85572W        W28485  16.337   2.510  19.414  0.0455 -0.3357  0.1669
85573W        W28486  25.725   8.499  24.155  0.3604 -0.2194 -0.0169
85574W        W28487  29.796  29.305  20.209  0.0771  0.0502  0.3322
85575W        W28488  18.642  16.069   2.892  0.1327 -0.1467 -0.4690
85576W        W28489  24.567   0.538  19.319 -0.0319  0.0380 -0.1575
85577W        W28490  27.065  12.128  24.427 -0.1942 -0.4581 -0.2925
85578W        W28491   8.597   0.551   2.115 -0.2243  0.1152  0.2204
85579W        W28492  23.818  11.490  24.230  0.1545  0.0047  0.0814
85580W        W28493  16.460  13.137  11.995 -0.0046 -0.0668  0.0886
85581W        W28494   8.601   2.106   3.064 -0.0596  0.0777  0.1457
85582W        W28495  10.131  33.431  21.503  0.1416  0.0132 -0.1939
85583W        W28496  10.463  10.210  25.562 -0.1782 -0.1413  0.2223
85584W        W28497  19.062  24.995  20.297 -0.1814  0.0442 -0.0208
85585W        W28498  19.401   9.507  21.656 -0.0202  0.1041  0.2029
85586W        W28499  24.265   9.929  21.692 -0.0281 -0.1131  0.0304
85587W        W28500  22.010   0.481   6.805  0.2223  0.0801  0.1103
85588W        W28501  18.888   6.373  24.264 -0.0486  0.0481  0.1660
85589W        W28502  13.925  30.632  16.947  0.0623  0.0782  0.1224
85590W        W28503  29.835   4.305   3.927 -0.3068  0.2658  0.0594
85591W        W28504  32.213   3.720  22.898 -0.2002  0.0689  0.3733
85592W        W28505  22.412  14.475  13.077 -0.0263 -0.0388  0.0899
85593W        W28506  18.809  29.914  18.299 -0.1377  0.0038 -0.0220
85594W        W28507  25.665  13.206  21.394 -0.3257 -0.1653 -0.2310
85595W        W28508   7.996   3.993  17.649  0.0480 -0.2274  0.0469
85596W        W28509  23.005   3.968   5.785 -0.6628 -0.0224 -0.0540
85597W        W28510  16.101   3.710   2.596  0.0458 -0.1787  0.1995
85598W        W28511  15.453  32.014  15.856  0.3235 -0.2798 -0.1304
85599W        W28512  19.734   1.599  24.254 -0.3203  0.1034 -0.1410
85600W        W28513  14.062  34.304  28.531  0.0278  0.0304 -0.2523
85601W        W28514   8.404   4.371   3.690 -0.1712 -0.1656 -0.0684
85602W        W28515  24.806   3.778   2.848  0.1417  0.2151  0.1652
85603W        W28516  10.607   4.028   4.580  0.0740 -0.1052 -0.0994
85604W        W28517  18.162   5.623  23.940  0.0276  0.2537 -0.0991
85605W        W28518  17.524   4.165   4.359  0.1214  0.1020  0.0854
85606W        W28519  23.462   0.950  16.424 -0.0552  0.1770  0.0765
85607W        W28520   2.600  33.893  28.603 -0.0521 -0.0503 -0.0187
85608W        W28521  33.244   7.862   0.044  0.1574  0.0266 -0.0701
85609W        W28522  13.179   9.068  15.042  0.1425 -0.3358  0.1806
85610W        W28523  18.455  31.241  15.941 -0.2366  0.0617 -0.1687
85611W        W28524  14.366   4.417  15.436  0.0019 -0.0097 -0.2574
85612W        W28525  31.157   4.052  26.524 -0.1659 -0.0847 -0.2121
85613W        W28526  18.534  33.397  17.566 -0.0576  0.2437 -0.3223
85614W        W28527  13.843   0.101  28.854 -0.2352 -0.1180 -0.3894
85615W        W28528  13.196  18.894  14.730  0.2202  0.0323 -0.1185
85616W        W28529  29.804  33.861  17.027 -0.1934  0.0101 -0.2760
85617W        W28530  14.049  13.640  20.198 -0.2257  0.0015 -0.0776
85618W        W28531  26.323  13.562   0.561  0.0510 -0.0810 -0.3322
85619W        W28532  25.259   0.750  26.449  0.1340  0.1196  0.1641
85620W        W28533  19.702   2.480   3.494 -0.0543 -0.1461 -0.5195
85621W        W28534  11.300  34.238  17.663  0.1624  0.0910 -0.2022
85622W        W28535  18.244   6.859   0.245 -0.2808 -0.0265  0.1661
85623W        W28536  16.959  26.886  19.784  0.1850  0.0760 -0.0911
85624W        W28537  18.490   5.571  26.537 -0.0953  0.0358  0.0079
85625W        W28538  22.549   3.953  16.985 -0.2550  0.1100 -0.0910
85626W        W28539  13.434  32.183  26.006  0.1330  0.0807  0.0531
85627W        W28540  18.673   3.182  21.170 -0.1670  0.0873 -0.1523
85628W        W28541  19.721  34.406  19.024 -0.1501 -0.1086  0.1426
85629W        W28542  17.553   5.067  22.266 -0.1307  0.2409 -0.1266
85630W        W28543  21.850   0.751  20.707  0.2188 -0.2126 -0.0771
85631W        W28544  33.548   4.448  23.211  0.0942 -0.2502  0.1722
85632W        W28545  26.304  11.657  24.264  0.2491 -0.0436 -0.2517
85633W        W28546  25.940  10.680  27.812  0.3051 -0.2649  0.1867
85634W        W28547  25.448   4.824  27.860 -0.0872 -0.1482  0.2550
85635W        W28548  17.862  33.868  27.879  0.0855 -0.1197 -0.1776
85636W        W28549  18.361   0.019  22.479  0.1787 -0.0758 -0.3299
85637W        W28550  18.162   3.368   2.169 -0.3004 -0.2444  0.0583
85638W        W28551  26.491   7.745  21.622 -0.0369  0.3646  0.2092
85639W        W28552  12.806   1.499  25.423 -0.5510 -0.0678  0.2225
85640W        W28553  27.661  30.202  27.668 -0.0506 -0.2650  0.1809
85641W        W28554  19.546  10.666  21.178  0.1305 -0.4232 -0.0881
85642W        W28555  24.071   9.907  21.232  0.1495  0.0562 -0.1053
85643W        W28556  14.841  14.547  20.285  0.4241  0.0847  0.2431
85644W        W28557  16.944   8.235   6.036  0.0526 -0.3453 -0.5087
85645W        W28558   8.585   6.801   1.552  0.1760 -0.0350 -0.4425
85646W        W28559  30.154   9.455  15.763  0.1822 -0.0724 -0.0443
85647W        W28560  26.551   8.925  25.577  0.2841 -0.1057  0.0025
85648W        W28561  18.613   3.173  14.934  0.0376 -0.0050  0.1571
85649W        W28562  22.708   3.183  26.600  0.1483 -0.1950  0.1776
85650W        W28563  22.060   2.747   1.822  0.1948 -0.0943  0.0593
85651W        W28564  17.277   4.464  20.981 -0.1605 -0.0357  0.0425
85652W        W28565  17.029   9.942  15.597  0.0352  0.0442  0.0384
85653W        W28566   7.147   3.141  18.487  0.2305  0.0959 -0.4106
85654W        W28567  17.850  33.893  18.793 -0.2619  0.0517 -0.1218
85655W        W28568  20.001  34.072  19.371  0.1483  0.0548 -0.1483
85656W        W28569  12.228  18.863  23.634 -0.1870 -0.0256 -0.2220
85657W        W28570  12.293   3.422  22.769 -0.0571 -0.1578  0.1444
85658W        W28571  19.682   5.244  27.442  0.0742 -0.2058  0.2394
85659W        W28572   4.013   4.515  23.585  0.2417  0.0187 -0.1311
85660W        W28573  14.366  13.640  22.809 -0.0354  0.0511  0.1894
85661W        W28574  26.246   1.707   2.894 -0.4137  0.0246  0.1498
85662W        W28575   1.263  30.359  28.183 -0.3322  0.2207  0.0819
85663W        W28576   6.397   4.273  26.197 -0.0905  0.4131  0.2008
85664W        W28577  28.276   3.486  17.297  0.2110  0.2536 -0.4532
85665W        W28578  18.103   0.809  23.595 -0.2227  0.0411 -0.2182
85666W        W28579  13.995   8.971   3.743  0.4443 -0.2405 -0.0308
85667W        W28580  21.727   6.024  18.360  0.2719  0.2449 -0.0003
85668W        W28581  24.741  21.765  26.252 -0.2094 -0.0592  0.2807
85669W        W28582  12.763   9.970  26.607 -0.0966  0.0649  0.1131
85670W        W28583  17.170  14.425  25.934  0.2790 -0.1210  0.0976
85671W        W28584  20.559   9.751  26.644  0.0658 -0.1539  0.1999
85672W        W28585  10.174  32.322   3.385 -0.2003  0.2012 -0.0983
85673W        W28586  22.346  32.906  24.301 -0.1978  0.0110 -0.1239
85674W        W28587  16.258  31.902  27.155 -0.0915 -0.0400  0.0101
85675W        W28588  19.412   2.512  26.502 -0.1590 -0.1103 -0.1639
85676W        W28589  25.502   6.567  22.351 -0.0232  0.3442  0.1377
85677W        W28590  16.936   0.838  16.248  0.2262  0.2561 -0.2986
85678W        W28591  30.880   6.726  29.165 -0.0425  0.1668 -0.0664
85679W        W28592  23.998   8.370  26.013  0.1995  0.0713 -0.0504
85680W        W28593  29.561   3.581  28.012 -0.3447  0.1645 -0.0601
85681W        W28594  13.130  26.633  22.887  0.2068  0.1081  0.0024
85682W        W28595  16.660  13.006  26.001  0.0772  0.1118  0.1198
85683W        W28596  15.931   6.904   6.760 -0.0350 -0.3934  0.1626
85684W        W28597  18.531  33.049   3.513 -0.0779  0.0890  0.1420
85685W        W28598  10.933   0.441  24.301 -0.0234  0.3660 -0.0054
85686W        W28599  17.126   8.096   4.122 -0.0027 -0.2327 -0.0228
85687W        W28600  11.858  11.110  14.306 -0.0118  0.4415  0.1366
85688W        W28601  27.780   8.466  23.826 -0.0157  0.1521 -0.2041
85689W        W28602  20.516   8.201  16.239 -0.2223 -0.0083 -0.2489
85690W        W28603  24.100  28.048  13.946 -0.1176  0.2181  0.2639
85691W        W28604  26.602  18.981  19.367 -0.0809  0.2894 -0.2731
85692W        W28605  22.107   5.964   4.007  0.1743  0.1573 -0.0966
85693W        W28606  20.688   2.025  23.754  0.0532 -0.1285 -0.0623
85694W        W28607  19.655   9.175  26.174 -0.1049  0.3193 -0.3263
85695W        W28608  26.307   7.096  14.978 -0.1908  0.0862 -0.1396
85696W        W28609  22.011  23.535  22.298  0.1384 -0.4012 -0.0466
85697W        W28610  14.503   6.971  16.918 -0.1029 -0.0768  0.0501
85698W        W28611  25.219   2.429  15.743  0.0088  0.0282 -0.1244
85699W        W28612  18.734   3.720  16.972 -0.2573 -0.0501  0.0763
85700W        W28613  22.289   4.875  19.492 -0.0134 -0.0135 -0.0018
85701W        W28614  25.145   5.405   1.225  0.0507 -0.1560 -0.3307
85702W        W28615  24.908  12.169  18.453  0.0660 -0.2269 -0.0193
85703W        W28616  15.397  34.428  18.847  0.5851 -0.1861  0.0237
85704W        W28617  22.481   0.387  29.761 -0.1103  0.3096 -0.2412
85705W        W28618  17.004  29.947  22.078 -0.0575  0.0746 -0.1076
85706W        W28619  25.975   9.394  14.416 -0.0150 -0.1311  0.3186
85707W        W28620  22.347   4.209   1.229  0.1355 -0.1047  0.1309
85708W        W28621  27.673   0.720  23.378  0.0766  0.2847  0.0009
85709W        W28622  25.975   5.903  21.437 -0.1448  0.0406  0.1890
85710W        W28623  19.670  20.473  25.365 -0.0344  0.0292 -0.2003
85711W        W28624  24.391   6.165  23.674  0.0484 -0.1718  0.1536
85712W        W28625  21.527  13.250   3.101  0.0133  0.1900 -0.1079
85713W        W28626  30.703   5.448   2.136 -0.1773 -0.0711 -0.1702
85714W        W28627  13.739   0.380  23.816 -0.1968 -0.0863 -0.0324
85715W        W28628  17.058   5.007  25.036 -0.0173 -0.0736 -0.3230
85716W        W28629  18.801   0.392  22.449 -0.1277 -0.1214  0.0308
85717W        W28630  19.542   4.374  24.881  0.2464  0.1637 -0.2411
85718W        W28631  20.471   6.177  24.112  0.0934 -0.1410  0.1362
85719W        W28632  20.302   9.025   5.025 -0.2547 -0.0935  0.0816
85720W        W28633  10.013  32.517   0.391 -0.1494 -0.2237  0.1514
85721W        W28634  14.036  33.375   0.556  0.1827  0.1453  0.1988
85722W        W28635  19.713   8.726   0.462  0.1577 -0.0161  0.1081
85723W        W28636  17.169   2.860   2.514  0.2387  0.0272 -0.0291
85724W        W28637  19.794   3.906  29.772 -0.1610 -0.2491 -0.0672
85725W        W28638  12.983   6.259   7.654 -0.2222 -0.1164 -0.2443
85726W        W28639  24.775  14.575  20.175  0.0137  0.0710 -0.2193
85727W        W28640  18.160  33.303   2.600 -0.0856  0.2218 -0.1209
85728W        W28641  19.323   5.087  17.983  0.1284  0.0622 -0.0100
85729W        W28642  33.148  15.183   9.373  0.1483 -0.2279  0.2206
85730W        W28643  12.426  30.814   0.647  0.0233 -0.1202 -0.1041
85731W        W28644  21.621  13.716  23.455 -0.2246 -0.1981  0.0537
85732W        W28645  14.838  30.045  26.569  0.2415 -0.0663 -0.1943
85733W        W28646  14.449   8.308  22.523 -0.0236  0.0767 -0.0682
85734W        W28647  24.935   2.339  28.449  0.2402 -0.2267 -0.2237
85735W        W28648  19.716   2.372  28.499  0.0065  0.4142 -0.0477
85736W        W28649  15.175  27.464  25.530 -0.1544  0.1913 -0.0911
85737W        W28650  28.027  12.336   2.074 -0.3179  0.0001  0.0354
85738W        W28651  27.851   5.829  27.384  0.3142  0.0219  0.1215
85739W        W28652  12.938  11.885  26.436  0.1841  0.1055 -0.1907
85740W        W28653  18.672   6.796  23.989  0.0177  0.2581 -0.0504
85741W        W28654  23.134   2.867   9.446  0.2156 -0.0872  0.1215
85742W        W28655  18.159   5.970  21.628 -0.0003  0.0286  0.0855
85743W        W28656  25.917  31.202   4.979 -0.2842  0.0876  0.1029
85744W        W28657  16.166  13.063  25.795 -0.1286 -0.0349  0.2324
85745W        W28658  21.988  12.581   3.385 -0.2588  0.1470  0.0141
85746W        W28659  17.803  12.668  26.624  0.2060 -0.1960 -0.1265
85747W        W28660  19.350  10.352  14.737 -0.0392  0.5767  0.1872
85748W        W28661  25.532  31.596  28.437 -0.0719 -0.0161  0.3104
85749W        W28662  23.230   7.033   6.306  0.0910 -0.3396 -0.0332
85750W        W28663  15.211  32.498   3.814  0.3969  0.0246 -0.3027
85751W        W28664  16.164   5.893  24.989  0.0260 -0.4703 -0.2306
85752W        W28665  15.938   8.946   8.304  0.0856 -0.1557 -0.2143
85753W        W28666  18.343   3.692  23.418 -0.2679  0.0830  0.0136
85754W        W28667  18.637   8.673   1.580  0.0253  0.1245 -0.1032
85755W        W28668  24.640   4.754   6.093  0.1014  0.1357  0.3473
85756W        W28669  15.389  27.043   1.180 -0.1694  0.1115 -0.0983
85757W        W28670  12.986   9.696   1.779  0.2682 -0.1371 -0.0078
85758W        W28671  16.659   7.837   0.785 -0.1828  0.0046 -0.1988
85759W        W28672  13.747  12.310  29.579 -0.0273 -0.1873 -0.1020
85760W        W28673   8.514   2.024  18.550  0.2154 -0.1486  0.0703
85761W        W28674  16.407   2.988   4.084 -0.0320  0.0131 -0.1005
85762W        W28675  23.575  18.803   7.261  0.0031 -0.0408 -0.0035
85763W        W28676  20.223  31.205   5.995  0.0777  0.0072  0.1547
85764W        W28677   1.752   7.630  24.929 -0.0949  0.0911 -0.1024
85765W        W28678   9.497  25.206  22.896 -0.0819  0.0606 -0.2127
85766W        W28679  25.792  32.321  23.928  0.0654  0.1193 -0.0848
85767W        W28680   5.531   1.742  26.209 -0.1812  0.1787 -0.1971
85768W        W28681  21.392   4.200  21.097  0.2709 -0.0086 -0.1684
85769W        W28682  16.603   3.588   1.251  0.1192  0.3276 -0.1426
85770W        W28683  27.513   8.222  19.063 -0.1469  0.0165 -0.0884
85771W        W28684  23.075  29.233   4.957  0.0851 -0.1798  0.0994
85772W        W28685  20.829   3.108  28.003 -0.2086 -0.2073  0.0253
85773W        W28686  20.074  30.099  16.202 -0.0722 -0.1303 -0.0315
85774W        W28687  21.422   2.908   3.205  0.3877 -0.4958 -0.1351
85775W        W28688  15.933  29.837  22.694 -0.0401 -0.1615  0.1256
85776W        W28689  22.113   3.319   0.945 -0.1188  0.2967 -0.2371
85777W        W28690  21.028   6.123  28.705 -0.2311 -0.2172 -0.0457
85778W        W28691  18.641   4.101  23.045 -0.0164  0.3767  0.4429
85779W        W28692  25.316   6.742   9.055 -0.1845  0.0548 -0.0012
85780W        W28693  28.084  10.147   2.978  0.0750 -0.1330 -0.3021
85781W        W28694  15.890  13.047  25.315 -0.0147 -0.2922  0.1943
85782W        W28695  14.977  22.795  25.501 -0.0808  0.3291  0.2369
85783W        W28696  21.359   1.048  15.543 -0.1815  0.1636 -0.3894
85784W        W28697  29.306  29.286  20.586 -0.1891 -0.1363  0.3183
85785W        W28698  11.091  13.624  15.847  0.5422  0.4088  0.0103
85786W        W28699  31.862   6.799   6.313  0.0697  0.2044  0.2051
85787W        W28700  22.696   4.268  26.019  0.0366 -0.0790  0.4851
85788W        W28701  29.328  14.015   0.915  0.1158 -0.0442  0.0639
85789W        W28702  22.739   0.005  22.351 -0.0017  0.2822  0.0398
85790W        W28703  19.315  14.818  26.675  0.2875  0.1247  0.2949
85791W        W28704  18.768   4.598  21.005 -0.3179 -0.0881 -0.2892
85792W        W28705  21.434  26.473  27.958  0.1332 -0.1981 -0.0085
85793W        W28706   7.755   1.959   0.745  0.0506  0.1132  0.0404
85794W        W28707  13.056  29.726  26.183  0.0849  0.0733 -0.1597
85795W        W28708  10.455  30.980   5.932  0.0637  0.1315  0.0233
85796W        W28709  23.700  30.469  25.061 -0.2206  0.1292 -0.0178
85797W        W28710  31.961   0.540   7.620  0.0884  0.0340 -0.0202
85798W        W28711  25.353  30.909  23.842  0.2359 -0.4476 -0.2110
85799W        W28712   5.954  33.638   2.733 -0.2461 -0.2630  0.0949
85800W        W28713  18.657   2.676   4.951  0.1815  0.1593  0.3209
85801W        W28714  23.774   8.328  16.843  0.0931 -0.1277  0.2521
85802W        W28715  21.869   8.082  28.552 -0.2626  0.0490 -0.0935
85803W        W28716  22.892  31.072  25.786  0.0283  0.3268  0.0023
85804W        W28717  11.465  12.454  18.571 -0.1424 -0.0750 -0.0127
85805W        W28718  26.458   1.617   4.647 -0.0987 -0.0978 -0.3283
85806W        W28719  23.544  31.876  23.919 -0.1216  0.1572 -0.5058
85807W        W28720  31.141   4.563   0.467 -0.4579  0.0347  0.3301
85808W        W28721  27.759  28.138  23.252 -0.1446  0.0091 -0.4368
85809W        W28722  21.955  33.454  29.450 -0.1397  0.2492  0.1185
85810W        W28723  15.707   5.602  18.834 -0.0627  0.1919  0.0407
85811W        W28724  29.382   6.067  15.945  0.0259 -0.0065 -0.2705
85812W        W28725   1.894  10.043  27.941  0.1965 -0.0045  0.3203
85813W        W28726  33.725  13.308   1.128 -0.0350  0.1815 -0.1312
85814W        W28727  21.444  33.509  23.890 -0.1358  0.0853 -0.2768
85815W        W28728  17.963  31.402   2.749 -0.1103 -0.5254  0.1551
85816W        W28729  12.765   6.173   0.091 -0.0826 -0.1964 -0.2064
85817W        W28730   5.104   7.358  24.158 -0.2723  0.1945 -0.0353
85818W        W28731  29.963  34.201   6.568 -0.1559  0.1938  0.0662
85819W        W28732  17.149  33.307   1.178 -0.1511 -0.0155  0.0345
85820W        W28733  27.691   2.645  23.935 -0.1714 -0.0432  0.0811
85821W        W28734  12.185  11.033  17.869 -0.3122 -0.0767  0.2035
85822W        W28735  28.000   4.444   6.063  0.2370  0.2070  0.1769
85823W        W28736  23.995   8.968  24.782 -0.1365  0.0265 -0.0770
85824W        W28737  25.829  32.079  26.652 -0.2675  0.0829 -0.0596
85825W        W28738   5.934  33.634  25.945  0.1533  0.0454  0.0467
85826W        W28739  24.559  11.839  29.523  0.0776  0.0665  0.2631
85827W        W28740  24.526  33.894  26.052 -0.0210 -0.1342 -0.2746
85828W        W28741  15.292   4.318  24.776  0.1522  0.1932  0.1873
85829W        W28742  18.431  32.598  27.117  0.1563 -0.3280  0.0169
85830W        W28743  30.376   2.183  25.681  0.2339 -0.2784  0.2885
85831W        W28744  25.003   2.582  23.639 -0.0939  0.0218 -0.2566
85832W        W28745  24.647   6.086  24.098 -0.0974 -0.1124 -0.0374
85833W        W28746  22.263  31.551  26.168  0.0016  0.0816  0.1912
85834W        W28747  27.166   8.661   6.819  0.3567  0.3947  0.1519
85835W        W28748  14.031  28.840  29.255 -0.0629 -0.1800 -0.1849
85836W        W28749  19.224  11.755   6.795 -0.1321 -0.0025  0.0670
85837W        W28750  23.596  31.118  26.498  0.2252  0.1856 -0.1214
85838W        W28751  17.302   2.140  24.260 -0.0919 -0.0029 -0.0610
85839W        W28752  22.592  30.248  19.791 -0.1626  0.2487  0.1168
85840W        W28753  24.385  24.271  13.354 -0.0735 -0.0752 -0.1673
85841W        W28754  15.195   9.130   0.062 -0.0804  0.3707 -0.1283
85842W        W28755   4.671   6.298  25.675  0.0779  0.0233  0.0416
85843W        W28756  29.008   5.976   4.417  0.0490 -0.1232  0.2538
85844W        W28757  15.816   9.385  25.002 -0.1646  0.2558 -0.1797
85845W        W28758  17.365  26.658  23.637 -0.0646  0.0252  0.1344
85846W        W28759   9.422  15.312  18.864  0.1146  0.0312  0.0295
85847W        W28760  17.459   8.273  27.496  0.1681 -0.1426  0.1935
85848W        W28761   3.867   7.971  29.275 -0.3586 -0.2844 -0.0973
85849W        W28762  17.696  29.441   6.490  0.0457 -0.1270 -0.0120
85850W        W28763   8.925  12.563  16.913  0.2372  0.1707  0.1223
85851W        W28764  20.198  33.598   7.114  0.0299 -0.1792 -0.0089
85852W        W28765  19.466   5.200  29.002 -0.0263 -0.1405  0.0786
85853W        W28766  15.972   2.672  27.954  0.0123 -0.0866 -0.4145
85854W        W28767  20.021  16.073  24.307 -0.2134  0.1824 -0.3164
85855W        W28768  20.370   0.543   7.252 -0.3083 -0.2874 -0.2417
85856W        W28769  22.850  33.064   6.745 -0.3850  0.1351  0.0238
85857W        W28770  14.469   5.286  22.888 -0.0644  0.3468 -0.2993
85858W        W28771  20.463   3.367   1.919  0.1715  0.0503 -0.0340
85859W        W28772  12.432  34.388   1.595  0.0760 -0.0635 -0.1598
85860W        W28773   5.167  14.610  26.289  0.0293  0.1280 -0.0696
85861W        W28774  29.011  19.333  26.983 -0.2829 -0.1114 -0.0127
85862W        W28775  19.347   1.147   2.303 -0.3388 -0.4030  0.0040
85863W        W28776  19.631   5.714  24.787  0.0002 -0.2661 -0.0759
85864W        W28777  19.024  15.471  29.671  0.1078 -0.0068 -0.1984
85865W        W28778   9.599   8.910  20.392 -0.1466  0.1209 -0.0604
85866W        W28779  15.193   8.115   6.313 -0.0462  0.0364  0.2014
85867W        W28780  21.411  30.267   1.172 -0.0403  0.1143 -0.2396
85868W        W28781  13.883   8.125   1.684  0.2924 -0.0347 -0.3026
85869W        W28782  16.870   6.565  19.688 -0.1012  0.0190 -0.3300
85870W        W28783  22.795  30.366   0.448 -0.0827  0.2007 -0.1893
85871W        W28784  24.743  32.556  21.312 -0.1210 -0.0552 -0.0663
85872W        W28785  14.940   1.961   9.475 -0.2527  0.2364 -0.3272
85873W        W28786  13.977   3.607   1.352 -0.1640 -0.0006 -0.0528
85874W        W28787  16.395   2.064   8.096 -0.1652  0.0827  0.2175
85875W        W28788  15.146   6.019  23.136 -0.2137  0.0211 -0.3897
85876W        W28789  13.091  33.077  26.429 -0.1751 -0.0293  0.7123
85877W        W28790  11.839   5.421   5.672  0.4138 -0.1820 -0.3321
85878W        W28791   9.056  10.447  22.209 -0.1065  0.2715 -0.0534
85879W        W28792  21.911   6.188  25.092  0.3931 -0.0441 -0.0172
85880W        W28793  10.244  28.401  25.114 -0.0633 -0.0685  0.2078
85881W        W28794  22.612  27.716   1.403  0.1432 -0.1750  0.1696
85882W        W28795  20.862  32.089  19.508 -0.0859 -0.1235  0.0858
85883W        W28796  24.092   6.229  22.844  0.1475 -0.0619 -0.0240
85884W        W28797  21.172   0.709  28.907  0.2172  0.1846  0.0602
85885W        W28798   6.465  11.739  21.894  0.1643  0.3007 -0.0781
85886W        W28799  24.511  27.503  21.766 -0.1138  0.0770  0.3146
85887W        W28800  23.633  31.598   5.308 -0.1271  0.1090 -0.0191
85888W        W28801  16.239   5.928   0.746  0.1158  0.1480  0.0508
85889W        W28802  14.143   1.227   5.871  0.0263  0.1030 -0.0276
85890W        W28803  16.681   8.701   5.036  0.3705 -0.2577  0.3040
85891W        W28804  17.881  27.566  25.315  0.3022  0.2290  0.1080
85892W        W28805  14.990   5.510  26.409  0.2036  0.1067 -0.1608
85893W        W28806  25.998   0.981  15.433 -0.1928  0.1512  0.1123
85894W        W28807  24.212  11.864  26.654  0.0706  0.1409  0.1797
85895W        W28808  26.372   5.011   9.709  0.0299 -0.0254  0.2279
85896W        W28809  20.717  29.786  13.090  0.0972  0.1717 -0.0005
85897W        W28810  21.062  14.032  24.747  0.0258 -0.4141 -0.0093
85898W        W28811  18.649  32.693   3.828  0.0621 -0.2351  0.1580
85899W        W28812  17.773   4.581  29.173 -0.1916 -0.0166  0.5137
85900W        W28813  16.440  24.332  25.218  0.1229 -0.0825 -0.2798
85901W        W28814  20.534   8.570   2.131  0.2569 -0.2518  0.3880
85902W        W28815  11.086   5.019  19.584 -0.2714 -0.1958 -0.0298
85903W        W28816  17.277   0.485  27.190  0.0072  0.0898 -0.1783
85904W        W28817  21.934  29.554  26.234  0.2569  0.1858  0.1516
85905W        W28818  17.343   8.235   2.771  0.0302  0.0808 -0.0343
85906W        W28819  13.063   3.413   2.326 -0.1840  0.2018  0.0865
85907W        W28820  28.016   7.021  19.937 -0.1250  0.4365 -0.1380
85908W        W28821  21.317   5.167   5.726 -0.1054 -0.0520 -0.1151
85909W        W28822  15.645   6.169   0.181 -0.3293  0.0701  0.1402
85910W        W28823  17.440   7.925  26.902 -0.0546  0.0360  0.0697
85911W        W28824  25.518   5.962  21.140 -0.0752  0.1369 -0.2453
85912W        W28825  15.535   4.174  20.699 -0.0452 -0.2092  0.0721
85913W        W28826  12.967   2.145   9.259  0.1922  0.3259 -0.1519
85914W        W28827  10.556  15.478  13.908 -0.0630 -0.2052 -0.3065
85915W        W28828  22.875   2.957  28.385  0.0114 -0.0084  0.1171
85916W        W28829  28.131   3.125  21.570  0.1989 -0.2538 -0.1488
85917W        W28830  27.845  32.451  23.761  0.1308 -0.0123  0.1588
85918W        W28831  13.332  31.250  21.431 -0.2830  0.0273 -0.0379
85919W        W28832  14.685   0.431   0.247  0.1430 -0.0863 -0.1818
85920W        W28833  17.356   9.485  19.914 -0.0595 -0.1010  0.0720
85921W        W28834  27.638  12.429   7.048 -0.1503 -0.0518  0.3933
85922W        W28835   9.531   9.492   1.420 -0.1136 -0.0202  0.1428
85923W        W28836  18.367   8.486  22.163  0.0869 -0.4041 -0.1167
85924W        W28837  26.067   2.997  25.060  0.0148 -0.1616  0.3013
85925W        W28838  16.617   0.516  28.044  0.1056  0.2988 -0.0636
85926W        W28839  16.505   8.012  24.929  0.3297 -0.0405 -0.2348
85927W        W28840  13.999  33.467   0.042 -0.0354 -0.3815  0.1813
85928W        W28841  16.961   9.333   2.059  0.1019 -0.1055 -0.1434
85929W        W28842  19.094  32.426  13.629 -0.2480 -0.0493 -0.2650
85930W        W28843  22.738  30.282   3.605  0.2260 -0.0705 -0.1152
85931W        W28844  18.523   3.252  20.610  0.1410  0.0828  0.0215
85932W        W28845  16.731  34.089   4.971  0.1580 -0.0498 -0.1494
85933W        W28846  10.175  10.636  27.518  0.1459 -0.0376  0.0668
85934W        W28847  22.864   1.358  28.340 -0.1388  0.2545  0.0446
85935W        W28848  26.654   3.762  16.429 -0.0074  0.0539  0.2040
85936W        W28849  16.902   2.639  22.655  0.0886 -0.3251  0.1688
85937W        W28850  13.112   8.091  15.939  0.1999 -0.3183 -0.0778
85938W        W28851  18.530  15.816  22.787 -0.0423 -0.1365 -0.2798
85939W        W28852   6.798   0.257  28.421 -0.3348 -0.0640  0.1516
85940W        W28853  16.114   2.584  21.124 -0.2874 -0.3747  0.1431
85941W        W28854  25.188   1.303   0.131 -0.0072  0.2166  0.0315
85942W        W28855   6.945   6.363  18.748 -0.1407  0.0436  0.0598
85943W        W28856  19.090   0.720   5.324 -0.1060  0.0534  0.7169
85944W        W28857  19.906  32.049   2.977 -0.1706  0.1914 -0.0452
85945W        W28858  30.860  31.821  23.229 -0.0535  0.0151  0.0478
85946W        W28859  25.832  33.660  24.516  0.1878  0.2967  0.2881
85947W        W28860  29.415   6.648  14.730  0.2243 -0.1034  0.0005
85948W        W28861  25.209  31.509  18.889  0.1255 -0.5282 -0.0929
85949W        W28862  18.116  12.038  19.175 -0.0656 -0.3407 -0.1015
85950W        W28863  23.430  12.052  26.863 -0.0455  0.1457  0.0181
85951W        W28864  16.718   2.372  25.706 -0.3165  0.0963  0.0841
85952W        W28865  22.707  10.883   6.917 -0.0710 -0.0698 -0.4013
85953W        W28866  24.691  33.962  28.821 -0.2477  0.2388  0.0098
85954W        W28867  22.982  11.387   7.580  0.0557  0.3796  0.0668
85955W        W28868  22.210   7.116  28.107 -0.1117 -0.2027  0.1644
85956W        W28869  19.552  30.104  21.958 -0.3457 -0.1980  0.1842
85957W        W28870  29.209  11.610  21.428  0.0164  0.1820 -0.1490
85958W        W28871   0.323   4.264  10.115  0.0413  0.0431 -0.0776
85959W        W28872  23.414   1.407   6.435 -0.4553  0.1269  0.0066
85960W        W28873  18.051   3.726  27.875 -0.2298  0.0101  0.1297
85961W        W28874  20.511   2.697  13.765  0.1955 -0.3758 -0.0493
85962W        W28875  19.463  14.988  14.776 -0.0309  0.0224  0.1151
85963W        W28876  11.979   6.461  25.458  0.1910  0.1688  0.0948
85964W        W28877  10.314   8.711  21.062  0.3602 -0.2831  0.0134
85965W        W28878  18.691   4.474  28.014  0.4709  0.3007  0.1855
85966W        W28879  25.484   6.469  28.919  0.1834 -0.0955  0.0419
85967W        W28880  16.971   0.933   0.559 -0.0735  0.1731 -0.2407
85968W        W28881  16.152  32.794  27.284  0.1539 -0.0165 -0.1842
85969W        W28882  23.984   2.631  15.577  0.5428 -0.1923  0.0521
85970W        W28883  21.895   5.596   9.885  0.1532  0.0232 -0.0069
85971W        W28884  19.591   9.590   9.676  0.2675  0.1772 -0.0232
85972W        W28885  13.429   4.395   0.752  0.1146 -0.0304 -0.1349
85973W        W28886  18.244  27.858   1.371 -0.0722 -0.1899  0.2131
85974W        W28887  18.149   5.309  25.568 -0.0218 -0.0584 -0.3302
85975W        W28888  11.567  27.023  26.775 -0.1363 -0.0974  0.2443
85976W        W28889  22.524  30.923  24.614 -0.0146 -0.3744 -0.3499
85977W        W28890  21.992  33.570  27.527  0.2002  0.1305  0.1262
85978W        W28891  23.029  13.655   8.249 -0.1412 -0.1926 -0.2334
85979W        W28892  28.994  32.489  22.703  0.2339 -0.0280  0.0595
85980W        W28893  23.013  13.610  23.702 -0.0613 -0.3869 -0.1639
85981W        W28894  13.231   0.256   1.883  0.0065 -0.3858  0.0141
85982W        W28895  20.959  10.643  23.182  0.2109  0.2367 -0.1087
85983W        W28896  15.962   1.965  23.633  0.2773  0.0006 -0.4769
85984W        W28897  33.469  19.465   6.903  0.2549 -0.0162 -0.0642
85985W        W28898  18.700   1.314  29.635 -0.1296 -0.0188  0.0088
85986W        W28899  22.555  34.022  26.323 -0.0504 -0.0992  0.0046
85987W        W28900  14.259  33.695  18.259  0.0986  0.1416  0.0165
85988W        W28901  22.006   7.588  28.379 -0.2401 -0.2045 -0.0370
85989W        W28902  10.610  14.971  25.063  0.1449  0.0051  0.1207
85990W        W28903  24.117   3.353   4.065 -0.0725  0.1386 -0.4188
85991W        W28904  12.865  34.127  22.382 -0.1111  0.0080  0.1066
85992W        W28905  22.136  30.929  22.204 -0.2735 -0.1961 -0.4075
85993W        W28906  21.879   4.567  18.699 -0.1847 -0.1453  0.1437
85994W        W28907  29.154  27.436   0.122  0.2181  0.0228 -0.0701
85995W        W28908  14.870   6.821  17.692  0.0924 -0.2386  0.0090
85996W        W28909  27.103   2.767   4.869 -0.0757  0.1883  0.0521
85997W        W28910  24.718  31.220  16.707 -0.0073 -0.0742  0.2906
85998W        W28911  15.068  11.535  20.115 -0.1968  0.0401  0.2743
85999W        W28912  26.020   3.323   5.981  0.0745  0.1042 -0.2621
86000W        W28913  12.303   3.942   1.914  0.0652 -0.1216 -0.1853
86001W        W28914  12.349   5.885   7.297 -0.1066 -0.2784  0.0977
86002W        W28915  18.310  29.361  23.543  0.4107  0.0042  0.0352
86003W        W28916  12.591  15.839  18.855  0.1120 -0.1736 -0.0147
86004W        W28917  22.778  31.603   7.551 -0.1196 -0.2087  0.0783
86005W        W28918  21.362   4.613  27.407 -0.1514 -0.1332  0.0250
86006W        W28919  14.721   3.529   2.474 -0.0734 -0.3226  0.3761
86007W        W28920  20.105  33.152   8.057 -0.4283  0.2173 -0.0527
86008W        W28921  19.173  25.607   8.724  0.0329 -0.0427  0.2574
86009W        W28922  18.989  29.278  26.483  0.2675  0.2564 -0.1204
86010W        W28923  15.002   3.615   6.500  0.2318  0.1013  0.0288
86011W        W28924  15.896   6.268  23.576 -0.3841  0.0441 -0.3683
86012W        W28925  26.301   8.023   5.710 -0.2773  0.1697 -0.0686
86013W        W28926  11.617   9.882  29.568  0.0678 -0.3284 -0.3054
86014W        W28927   7.199  15.619  27.128 -0.0893 -0.0517  0.2503
86015W        W28928  24.831  34.201   1.352 -0.1489  0.3181  0.1827
86016W        W28929  23.618   5.041  27.742 -0.1300  0.0225  0.1379
86017W        W28930  21.719   3.769  27.393 -0.1745  0.1272  0.1680
86018W        W28931  24.123  19.348  22.317 -0.1399  0.0223 -0.0094
86019W        W28932  16.507   4.021  18.928  0.0325  0.3027  0.1907
86020W        W28933   9.245  13.914  28.914 -0.0375 -0.0642  0.0481
86021W        W28934   2.894   3.560  11.469 -0.2076 -0.1221  0.2498
86022W        W28935  27.164   4.120  13.669 -0.0614  0.0264 -0.1216
86023W        W28936  20.238  30.644  26.455  0.2672  0.4555  0.2848
86024W        W28937  20.709   2.044  24.272 -0.0408 -0.2551  0.1852
86025W        W28938  11.556   3.562  16.404 -0.0721 -0.1115  0.2232
86026W        W28939  15.755   6.794  25.426 -0.0311 -0.1141 -0.1673
86027W        W28940  16.429   6.637   6.579  0.0216 -0.0528 -0.1383
86028W        W28941  21.624   4.259  20.209  0.0954 -0.2776 -0.0826
86029W        W28942  20.191  32.451  20.373 -0.1895  0.3419  0.1168
86030W        W28943  23.078   2.546   2.720  0.0406  0.0787  0.0362
86031W        W28944  23.206   7.858  29.112 -0.3991 -0.0192  0.0062
86032W        W28945  16.636   3.370  26.327 -0.1402  0.2419  0.1491
86033W        W28946  13.849  10.104   5.783 -0.3482 -0.3807  0.0785
86034W        W28947   7.752   2.338  26.808 -0.1992  0.0697  0.1391
86035W        W28948  25.431  15.308   0.308 -0.0623 -0.0819  0.3949
86036W        W28949  17.599   9.084  24.386 -0.0370  0.0800  0.2098
86037W        W28950   9.889  10.411  26.359 -0.0618  0.1031 -0.2726
86038W        W28951  28.122   1.022  29.743  0.1444 -0.0230 -0.0387
86039W        W28952  20.524   7.285  23.210  0.0056  0.2680 -0.1037
86040W        W28953  29.685  27.296   1.840 -0.0521  0.2170  0.0477
86041W        W28954   0.551  14.794   8.664  0.2816 -0.0131  0.1263
86042W        W28955  16.367  16.668  23.029 -0.0449 -0.1534  0.2443
86043W        W28956  14.597  12.883  25.348 -0.0596  0.1959 -0.2063
86044W        W28957   6.926  28.952   7.598  0.1499  0.1625  0.2527
86045W        W28958  17.650   5.634   0.524  0.1639 -0.0746  0.2716
86046W        W28959  18.112  34.418  28.402  0.1626  0.0223 -0.3281
86047W        W28960  19.816  34.261  22.910  0.2762  0.0990 -0.1190
86048W        W28961  13.876   6.377   1.219  0.0426  0.1402  0.3104
86049W        W28962  20.909  25.670  26.820 -0.1734  0.2073 -0.0973
86050W        W28963  22.599   8.283  19.656 -0.0067 -0.4222 -0.0860
86051W        W28964  22.527  32.815  18.707 -0.1321  0.2333 -0.1425
86052W        W28965   7.611   4.257  25.536  0.1210 -0.1040  0.0002
86053W        W28966  17.027   7.113   1.174  0.1087  0.2236  0.3351
86054W        W28967  17.161   9.376   3.307  0.1672  0.0569 -0.0309
86055W        W28968   9.085  33.660  22.893 -0.2999  0.4215 -0.1191
86056W        W28969  16.647   7.321  24.740  0.0136 -0.0964  0.2464
86057W        W28970  21.012   6.909  20.873 -0.1486  0.2680  0.1502
86058W        W28971  16.465   1.981   0.360 -0.1126  0.2815  0.0476
86059W        W28972  18.268  29.365  24.208 -0.0768  0.0191  0.3041
86060W        W28973  15.116   1.946  23.193 -0.0102  0.1181  0.2214
86061W        W28974  14.174  32.455   3.820  0.1206 -0.3205 -0.0517
86062W        W28975   8.108  28.754  24.389 -0.4126 -0.0649 -0.0133
86063W        W28976  19.399  14.966  28.481 -0.0949  0.1597  0.0498
86064W        W28977  22.391   0.708   1.209 -0.2444  0.0363  0.0261
86065W        W28978   1.891  12.660  28.091  0.1347 -0.0057 -0.0713
86066W        W28979  23.914  33.108  25.683 -0.1366 -0.3047 -0.2758
86067W        W28980  21.463   8.256  23.226  0.3022  0.0033 -0.1605
86068W        W28981  17.198   3.628  22.205  0.2493  0.1114 -0.3140
86069W        W28982  21.969  11.662   5.041 -0.0168  0.0296  0.1119
86070W        W28983  23.037   0.086   1.329  0.0539 -0.1491  0.5307
86071W        W28984  33.024   5.786   0.622 -0.0707 -0.1510 -0.2442
86072W        W28985  15.221   9.651  25.230 -0.2887  0.0591  0.0490
86073W        W28986  18.047  27.729   4.862  0.0398  0.5459 -0.1280
86074W        W28987  13.411   6.356  16.248 -0.1203 -0.1516  0.1909
86075W        W28988   8.719  10.025  24.416  0.1733  0.0039  0.0542
86076W        W28989  19.796   6.952  28.376 -0.1953  0.0315  0.0962
86077W        W28990  18.227   8.958  22.089  0.2172 -0.0017 -0.0790
86078W        W28991  12.204   2.171  27.271  0.0978  0.0004 -0.1469
86079W        W28992  11.432  12.796   2.098  0.0759 -0.2617  0.0066
86080W        W28993  22.969   4.675  23.598 -0.0001  0.2978  0.4053
86081W        W28994  21.868  11.357  22.041 -0.0524  0.1072 -0.1251
86082W        W28995  18.404  29.330   0.831 -0.0273  0.2036  0.2400
86083W        W28996  20.624   8.472   8.573  0.1439  0.0854 -0.1460
86084W        W28997  22.260  26.726  25.182  0.0496  0.2528  0.1130
86085W        W28998  19.005   6.272  25.780 -0.0461 -0.0258 -0.3921
86086W        W28999  10.007   9.599  28.391  0.3983 -0.2441  0.0854
86087W        W29000  18.321   5.760  24.545 -0.1287 -0.1130  0.1127
86088W        W29001  13.571  28.834  28.753 -0.0254  0.2610  0.1366
86089W        W29002  12.421   6.589  15.598 -0.1810 -0.0407 -0.3417
86090W        W29003  19.712   7.302  24.942 -0.4154 -0.0639  0.0027
86091W        W29004  20.718   0.377  29.770 -0.1900 -0.3280  0.2462
86092W        W29005  22.020  10.058  15.045  0.2366 -0.3067  0.5105
86093W        W29006   9.334  30.682  28.061  0.0737  0.2687  0.2060
86094W        W29007  26.718  13.481   8.476  0.3193  0.1430  0.1039
86095W        W29008  16.841   3.518  25.283  0.0028 -0.1043  0.0483
86096W        W29009   6.373   2.854  26.789  0.3981  0.3934 -0.2119
86097W        W29010  10.050  11.337  16.581 -0.1579  0.1246  0.0156
86098W        W29011   9.017   0.399   2.354  0.0546 -0.2149 -0.1020
86099W        W29012  31.832   0.168  24.541 -0.1872 -0.0087  0.2453
86100W        W29013  21.763   4.355  26.627  0.4781  0.0471  0.0922
86101W        W29014   7.917   9.278  29.105  0.0509 -0.0630  0.1054
86102W        W29015  16.872   5.161   9.992  0.1255 -0.0670  0.1832
86103W        W29016  16.057  32.150   3.127  0.1557  0.1439 -0.0104
86104W        W29017  17.064  26.727  26.402  0.3949  0.2438  0.0764
86105W        W29018   8.314  10.625   1.170 -0.1969  0.1680  0.0062
86106W        W29019  22.575  27.167  27.738 -0.0225  0.1694  0.4486
86107W        W29020  22.067  10.287  25.668 -0.0724  0.0480  0.3108
86108W        W29021  25.024   7.659  17.205 -0.4725 -0.1048 -0.0843
86109W        W29022  28.105  20.809  25.003 -0.2451 -0.1372  0.2841
86110W        W29023  22.830   2.840  19.858 -0.0280 -0.1629  0.3167
86111W        W29024  25.826   9.982  29.421  0.0591  0.1551  0.2476
86112W        W29025  19.442   0.924   1.048 -0.0444  0.4882  0.0828
86113W        W29026   8.310   4.319   2.016 -0.2479 -0.1706 -0.0381
86114W        W29027  17.943   4.536   2.960  0.3056  0.0814 -0.3047
86115W        W29028  13.041  32.357  18.186  0.0256  0.2007 -0.1423
86116W        W29029  12.854   7.314  29.191 -0.0136  0.0328 -0.0327
86117W        W29030   8.207   6.755   3.056 -0.2493  0.2153 -0.1706
86118W        W29031  25.980  29.510   1.644  0.0389 -0.2107  0.0511
86119W        W29032  15.426   0.051   7.887 -0.1823 -0.0589 -0.1676
86120W        W29033  17.527   6.683   3.945 -0.3008  0.1375 -0.3130
86121W        W29034  18.988   7.614  28.493  0.0175 -0.2218 -0.0421
86122W        W29035  13.686  34.082   2.911  0.2487  0.2469  0.2688
86123W        W29036  13.559   9.030  23.509 -0.1289  0.0109  0.1041
86124W        W29037   8.760   5.504  28.418  0.0945 -0.1506 -0.3770
86125W        W29038  13.271  12.300  17.898  0.0996 -0.1875 -0.0917
86126W        W29039  12.981  11.788  18.595  0.0759 -0.0656  0.1927
86127W        W29040   7.733  26.493  27.454 -0.0699  0.3080 -0.1545
86128W        W29041   4.867  30.278   1.233  0.0065  0.1030 -0.1946
86129W        W29042   4.793   0.874  24.604 -0.0404 -0.1293 -0.3388
86130W        W29043  22.392   2.239  22.505  0.0827 -0.0272 -0.0182
86131W        W29044  23.056   0.459   4.516  0.3315  0.4338 -0.1162
86132W        W29045  18.074   6.806   9.222  0.3966 -0.0871 -0.0514
86133W        W29046  18.181  10.919   0.612  0.0672 -0.3856  0.1426
86134W        W29047  31.936  29.762  29.684 -0.2896 -0.0484 -0.2009
86135W        W29048  24.783   4.599   1.565  0.1894 -0.0411 -0.0239
86136W        W29049  15.073   3.211   1.078  0.1057 -0.1484 -0.2725
86137W        W29050  11.816   2.150  24.820  0.0139  0.2414 -0.1716
86138W        W29051  22.114  12.022   8.417 -0.1918  0.4795 -0.2663
86139W        W29052  16.132  34.156  23.473 -0.0394 -0.0832 -0.2413
86140W        W29053  12.756  10.657   8.434  0.0509 -0.1545 -0.0035
86141W        W29054  29.616   2.632  26.580 -0.0818 -0.1086 -0.2681
86142W        W29055  20.492   5.712  24.307  0.3181 -0.1400  0.0346
86143W        W29056  12.107   1.602  28.533  0.1157  0.1431  0.0690
86144W        W29057  17.898   3.465   5.306 -0.0133  0.2313 -0.0256
86145W        W29058  15.245   8.469  20.011 -0.0783  0.0475  0.1618
86146W        W29059  23.300   4.100   7.150  0.0991  0.2677  0.1945
86147W        W29060  22.683   5.232   3.137  0.3495  0.0085  0.0933
86148W        W29061  21.599  30.260  27.947 -0.5364 -0.5553  0.1498
86149W        W29062  10.746   9.980  26.869  0.0011 -0.0477  0.0788
86150W        W29063  22.640   3.096   3.989  0.1962  0.1757  0.0712
86151W        W29064  28.627  33.042  23.967  0.2367  0.1534 -0.0143
86152W        W29065  23.207   3.968  28.556  0.0900  0.0017 -0.2504
86153W        W29066  14.720   6.946   3.212  0.1009  0.0136 -0.0014
86154W        W29067  13.117  32.725   0.250 -0.2478 -0.1038  0.1197
86155W        W29068  22.050   2.730  12.984 -0.2117  0.0696 -0.2198
86156W        W29069  28.236   0.842   8.470  0.1818 -0.1787 -0.1391
86157W        W29070  19.182   3.636   1.896 -0.1132  0.1605  0.2233
86158W        W29071  23.355   3.110  28.195  0.0042  0.1411  0.2568
86159W        W29072  24.686   6.410   0.621  0.1730 -0.2051  0.1970
86160W        W29073  13.952   6.114   6.499 -0.2396  0.0067 -0.0747
86161W        W29074  19.168  10.472  15.601  0.0461 -0.0352 -0.2010
86162W        W29075  28.345  30.538   6.458  0.3071  0.0582  0.1883
86163W        W29076  25.762   2.035   5.980  0.2648  0.0581 -0.0201
86164W        W29077  17.258  20.469  21.384 -0.0204  0.2552 -0.0477
86165W        W29078  19.776  10.846   2.598  0.0580 -0.0548 -0.0539
86166W        W29079  17.532   5.876   2.972 -0.0220 -0.1270 -0.1539
86167W        W29080  29.187  17.075  20.043 -0.0990  0.3053 -0.0559
86168W        W29081  12.535  22.404  14.786  0.0764  0.0990  0.0675
86169W        W29082  22.689   0.827  26.054 -0.2346 -0.1897  0.3519
86170W        W29083  23.558   2.878  22.765  0.0545  0.2004 -0.2118
86171W        W29084  15.535  14.313  27.463 -0.0201  0.1408  0.1333
86172W        W29085  21.820   9.816  24.646 -0.1924 -0.4168  0.0010
86173W        W29086  21.950  32.233   3.046 -0.0931  0.1744  0.1202
86174W        W29087  28.249  24.670   3.672 -0.0798 -0.0096  0.0903
86175W        W29088  11.504   7.232  21.212 -0.1176  0.1653 -0.0707
86176W        W29089  18.023  16.410  27.206  0.0937  0.1175  0.2155
86177W        W29090  14.323  33.438  23.866 -0.4439 -0.3534 -0.0252
86178W        W29091  21.424   6.191  28.089  0.1806  0.0875  0.1778
86179W        W29092  28.209  12.694  22.334  0.3468  0.0127 -0.3504
86180W        W29093  24.114  10.537  20.293  0.2389  0.0135  0.0522
86181W        W29094  17.763   8.276  13.955 -0.1059  0.3167  0.0123
86182W        W29095  17.590   3.143  16.712 -0.2308 -0.1072 -0.2514
86183W        W29096  11.721   4.162  16.942 -0.3835 -0.0552  0.1513
86184W        W29097  20.758   2.008  17.974  0.2274 -0.0425  0.1516
86185W        W29098  22.359  14.371  23.372 -0.0310  0.1077 -0.0327
86186W        W29099  22.938  12.935  24.901  0.0927  0.2571  0.2317
86187W        W29100  31.139   7.966  16.456 -0.0736  0.2567  0.2026
86188W        W29101   2.963   8.221  26.398 -0.1532  0.2857  0.0736
86189W        W29102  17.652   6.340  15.151 -0.0482  0.1159 -0.0684
86190W        W29103  23.232   2.993  21.170  0.1524  0.3236  0.2296
86191W        W29104  12.012  14.073  13.628 -0.2357  0.0537 -0.2737
86192W        W29105  20.469   0.615  18.587 -0.0242 -0.1257 -0.1604
86193W        W29106  15.668  10.353  14.282  0.1637 -0.0068 -0.1602
86194W        W29107  22.878  13.219  14.330 -0.3407  0.1363  0.2347
86195W        W29108  28.969   4.791  17.658  0.0751 -0.1136  0.1561
86196W        W29109  15.834  11.449  13.158 -0.3682  0.1457 -0.0488
86197W        W29110  17.192  11.730  22.351  0.1718 -0.0938 -0.1820
86198W        W29111  27.187  17.233  16.189 -0.4297 -0.0736  0.1368
86199W        W29112  16.975   8.965  17.445  0.0180  0.4016 -0.1275
86200W        W29113  24.652   6.351  14.412  0.3640 -0.0709 -0.2432
86201W        W29114  21.537   4.192  14.381  0.0446 -0.0625  0.1876
86202W        W29115  28.324   9.155  16.682  0.0692 -0.0104 -0.1083
86203W        W29116  25.848   2.079  13.826  0.0337 -0.1837  0.0354
86204W        W29117  20.110  11.596  13.734  0.2835 -0.0144 -0.0803
86205W        W29118  28.775   7.750  22.811 -0.2247  0.1855  0.1323
86206W        W29119  23.014   2.604  16.715  0.4006 -0.3175  0.0713
86207W        W29120  28.167  12.452  21.364 -0.2599 -0.0953 -0.3937
86208W        W29121  16.176   1.532  17.233  0.0429 -0.2619 -0.1645
86209W        W29122  10.825   9.584  17.549  0.1123  0.1485 -0.0378
86210W        W29123  22.488  11.155  21.087  0.0746 -0.2004 -0.3724
86211W        W29124  30.904   4.111  16.459 -0.2794 -0.2291 -0.1406
86212W        W29125  27.065   9.408  17.857 -0.0701 -0.0358 -0.2046
86213W        W29126  23.702  14.314  23.910 -0.0802  0.0992  0.0375
86214W        W29127  10.766  13.049  24.968  0.3137 -0.1072 -0.1007
86215W        W29128  19.330   3.419  17.307  0.2367  0.2304  0.1438
86216W        W29129  23.382   9.225  15.711  0.1272  0.2947  0.0625
86217W        W29130   6.042   6.407  28.249  0.2815 -0.2786 -0.0200
86218W        W29131  15.330   6.061  16.812  0.0172  0.0670  0.0353
86219W        W29132  20.565  12.658  18.320 -0.0409  0.0586 -0.2369
86220W        W29133  16.480   6.071  17.536 -0.0605 -0.2677  0.1953
86221W        W29134   5.697  11.602  25.702  0.1599 -0.1085 -0.1454
86222W        W29135  19.563   8.571  18.003 -0.2481  0.1689 -0.0271
86223W        W29136  21.821   8.993  16.815  0.3070 -0.0399  0.1464
86224W        W29137  18.658   4.119  25.209  0.3577  0.0866  0.0416
86225W        W29138  29.446   6.122  16.442 -0.0253 -0.0618 -0.1095
86226W        W29139  18.573  21.389  12.747  0.1876  0.1030 -0.2653
86227W        W29140  22.456   1.617  18.532  0.0897  0.2903 -0.1828
86228W        W29141  25.808  10.260  19.667  0.1308 -0.3708  0.0909
86229W        W29142  16.214  13.437  16.730 -0.2355  0.1956 -0.0980
86230W        W29143  24.470  12.823  22.304 -0.0197  0.1021  0.1540
86231W        W29144  29.993  12.767  28.127 -0.2163  0.0497  0.2100
86232W        W29145  28.689  18.747  14.436 -0.0066  0.1312 -0.2431
86233W        W29146  23.795   7.165  17.515 -0.2880 -0.0085 -0.0007
86234W        W29147  19.403  15.291  23.396 -0.2194 -0.3927 -0.1594
86235W        W29148  21.913   1.438  19.408  0.3505  0.0487 -0.4205
86236W        W29149  25.127  10.681  19.204  0.0126  0.0970  0.0656
86237W        W29150  16.746  14.083  12.250 -0.1658  0.1274  0.0426
86238W        W29151  18.195  11.426  15.582  0.0436 -0.4123  0.2370
86239W        W29152  18.374   0.324  24.399  0.0145  0.3414  0.1012
86240W        W29153  19.792  14.429  23.629  0.2328 -0.0927  0.0144
86241W        W29154  19.689  11.009  20.659 -0.1144  0.1815  0.0141
86242W        W29155  21.333   4.211  18.657  0.0171 -0.0780 -0.3152
86243W        W29156  18.433  14.118  22.419  0.2995 -0.0859  0.3980
86244W        W29157   9.141   3.913  21.878 -0.1373  0.2824 -0.1883
86245W        W29158  20.415   5.936  14.747 -0.1095 -0.0636  0.0990
86246W        W29159  26.653  16.420  17.615 -0.0394 -0.0606 -0.0234
86247W        W29160  22.232  15.711  16.372 -0.1185 -0.0731 -0.0389
86248W        W29161  18.428  12.866  13.355 -0.0086  0.0003 -0.1477
86249W        W29162  31.100  30.603  22.268  0.1063 -0.2002  0.3321
86250W        W29163  30.460   3.155  16.956 -0.0701  0.0096 -0.4137
86251W        W29164  25.520  12.315  13.299  0.4953 -0.2944  0.2315
86252W        W29165  24.529  11.297  22.196 -0.0119  0.0069  0.1877
86253W        W29166  24.457  12.435  15.171 -0.0180  0.2654 -0.1970
86254W        W29167  22.134   6.988  22.102 -0.0012  0.0360 -0.0271
86255W        W29168  23.201  14.758  21.205  0.0130  0.5079  0.2548
86256W        W29169  13.380   8.321  21.441 -0.2371  0.0869  0.1489
86257W        W29170  23.163   6.347  17.550  0.1667 -0.0334  0.1000
86258W        W29171  24.108   9.073  20.655  0.1627  0.1691  0.0414
86259W        W29172  16.652  10.560  19.115 -0.0216  0.0167  0.1936
86260W        W29173  22.258   4.446  14.232  0.1408  0.2450  0.3263
86261W        W29174  15.388   5.752  20.454 -0.1343 -0.1461 -0.1892
86262W        W29175  12.190  14.995  18.367  0.1592 -0.0719  0.0339
86263W        W29176  25.023  33.415  15.547  0.1308  0.2529  0.3491
86264W        W29177  25.161  33.581  16.406  0.0640  0.3842  0.0908
86265W        W29178  27.051   4.655  21.943  0.0384 -0.1237 -0.0692
86266W        W29179  13.627  23.721  17.736 -0.0817  0.1505 -0.1434
86267W        W29180  31.436  16.225  18.540  0.0529 -0.2480 -0.0606
86268W        W29181  19.484   1.294  17.520 -0.2247 -0.0319 -0.2270
86269W        W29182  26.537  13.715  19.033 -0.0255 -0.1727  0.1192
86270W        W29183  23.390  21.418  19.410  0.0835  0.2249 -0.1039
86271W        W29184  22.558   8.502  13.523  0.0291 -0.0074  0.0204
86272W        W29185  29.071  15.472  15.582  0.3143 -0.2656  0.0219
86273W        W29186  15.300   1.169  24.662 -0.1083  0.1690 -0.0967
86274W        W29187  18.788   3.275  13.934  0.0115 -0.3850  0.1979
86275W        W29188  23.989   5.238  15.382 -0.2367  0.0576  0.1039
86276W        W29189  17.747  11.967  14.362 -0.1905  0.0135 -0.0805
86277W        W29190  30.195  26.390  20.771  0.0004 -0.0834  0.0301
86278W        W29191  14.857  12.956  22.681 -0.2075  0.0641  0.3671
86279W        W29192  16.370  11.515  12.214  0.1778 -0.1713 -0.0162
86280W        W29193  16.077  10.564  13.451  0.1251  0.4570 -0.4936
86281W        W29194  15.134   4.144  18.896 -0.1945  0.0164 -0.0273
86282W        W29195  14.700   5.528  21.489 -0.0624  0.1669  0.0632
86283W        W29196  28.599   8.343  17.477 -0.0900  0.0170 -0.4398
86284W        W29197  26.725  12.425  21.068  0.1041  0.2510 -0.2626
86285W        W29198  15.312  14.759  13.233  0.0151  0.0152 -0.2834
86286W        W29199  12.020   9.839   2.133 -0.1876 -0.2075  0.1755
86287W        W29200  25.481  13.975  14.848  0.1988  0.1009  0.1861
86288W        W29201   7.159  12.826  18.499  0.0281  0.0142  0.1757
86289W        W29202  15.556   8.636  16.290  0.0041 -0.1184  0.0490
86290W        W29203  17.915  32.797  27.235  0.1957  0.1947 -0.0956
86291W        W29204  18.010   5.220  14.443  0.2214  0.0422  0.0609
86292W        W29205  15.097  10.767  20.002 -0.2194 -0.2084 -0.0044
86293W        W29206  20.729   8.014  22.593  0.0801  0.1655 -0.1537
86294W        W29207  16.446  32.944  16.370 -0.1775  0.1690 -0.2204
86295W        W29208  28.008   9.521  17.318  0.1670  0.3708 -0.1795
86296W        W29209  21.466  28.134  17.508 -0.0663 -0.2906 -0.2696
86297W        W29210  21.810   6.540  18.584 -0.1739  0.0198 -0.4455
86298W        W29211  22.526   2.997  19.212  0.2568 -0.0812  0.2032
86299W        W29212  25.305   9.441  18.117 -0.0329  0.0863  0.1355
86300W        W29213  14.642  12.046  12.959 -0.0764 -0.0529 -0.2777
86301W        W29214  24.360   7.850  17.542 -0.0503 -0.1922 -0.2994
86302W        W29215  20.334  16.352  12.611 -0.0473  0.1565  0.3664
86303W        W29216  10.219  16.179  16.806 -0.0154  0.1760 -0.2445
86304W        W29217  25.950   8.550  15.592  0.1117 -0.0220  0.0108
86305W        W29218  22.537   8.936  24.654 -0.3411  0.1944  0.1233
86306W        W29219  23.310  12.880  13.971 -0.1462  0.0320  0.1134
86307W        W29220  21.413   4.718  23.166  0.1164 -0.1539 -0.0189
86308W        W29221  18.662   7.197  24.340 -0.0174  0.1275 -0.0213
86309W        W29222  31.717   3.385  18.686 -0.3782  0.2314  0.1162
86310W        W29223  22.714  23.656  14.734  0.2815  0.0417 -0.2006
86311W        W29224  15.272   5.402  16.330 -0.3473 -0.0828 -0.4515
86312W        W29225  23.393   7.487  19.781  0.4876  0.0109  0.0226
86313W        W29226  25.406   6.310  19.722  0.0355  0.1012  0.3811
86314W        W29227  25.970  12.401  18.685 -0.1426 -0.2158  0.0399
86315W        W29228  10.617   3.032  28.451 -0.0168 -0.1614  0.1631
86316W        W29229  19.586  32.507  19.654  0.0645  0.0434 -0.3412
86317W        W29230  20.036  33.768  15.344  0.5044  0.0755 -0.2366
86318W        W29231  26.546   8.396  24.742  0.3125 -0.0850 -0.0882
86319W        W29232  17.722  11.983  16.057 -0.0751  0.2841 -0.0436
86320W        W29233  22.891  14.263  20.040 -0.0589  0.1991  0.2712
86321W        W29234  17.329   0.322  16.227 -0.1874 -0.2523 -0.0204
86322W        W29235  27.897  19.687  16.857  0.0214  0.0135  0.1134
86323W        W29236  19.810   4.665  16.946  0.3926 -0.1119 -0.2484
86324W        W29237  22.835  10.817  21.847 -0.0423  0.1119 -0.5079
86325W        W29238  23.088   7.049  24.655 -0.0686  0.1026 -0.1140
86326W        W29239  17.734  10.307  16.167  0.0540 -0.0131 -0.0286
86327W        W29240  27.024   2.243  19.304  0.0349 -0.0906  0.1434
86328W        W29241  18.074   9.389  15.774  0.3809 -0.3815  0.0976
86329W        W29242  19.066  10.106  17.650  0.3296 -0.1307  0.1028
86330W        W29243  27.169   1.160  16.739 -0.0339 -0.3463  0.0583
86331W        W29244  29.777  15.507  17.675 -0.0692  0.0434 -0.2059
86332W        W29245  13.352  13.654  18.633 -0.4356  0.2194 -0.0508
86333W        W29246  26.688   5.834  18.983  0.0888  0.1329  0.0992
86334W        W29247  21.144  11.608  14.179  0.1650 -0.0433 -0.0656
86335W        W29248  17.541   1.439  17.593  0.1254 -0.1534 -0.0817
86336W        W29249  23.517  30.117  14.886  0.1177  0.0174 -0.1350
86337W        W29250  16.643  32.555  16.063  0.1202 -0.0200 -0.3645
86338W        W29251  27.456  32.568  20.179  0.0920  0.0085  0.1529
86339W        W29252  24.602   8.398  15.611 -0.0910 -0.0850 -0.0649
86340W        W29253  19.170  11.235  14.264  0.3069  0.0176  0.1161
86341W        W29254  27.491   4.685  24.086 -0.1758 -0.1219 -0.1230
86342W        W29255  18.513   0.882  14.445 -0.1231  0.2137  0.2184
86343W        W29256  30.205  13.484  13.762 -0.4084  0.3185  0.1729
86344W        W29257  23.581  21.793  13.059  0.3013  0.1609 -0.0932
86345W        W29258  31.426   8.942  22.039 -0.0325 -0.2188  0.2959
86346W        W29259  21.286   6.162  15.282  0.0526  0.0809 -0.0035
86347W        W29260   8.811  14.681  18.824  0.1083  0.0101  0.1826
86348W        W29261  25.179   7.111  24.292  0.2022 -0.2866 -0.1424
86349W        W29262  25.195  33.466  15.062  0.1033 -0.0277  0.0579
86350W        W29263  20.263   5.134  15.959 -0.0773  0.3373 -0.1667
86351W        W29264  24.992   9.080  19.011 -0.1764 -0.1191 -0.0855
86352W        W29265  21.586  15.149  17.384 -0.0602  0.0276 -0.1193
86353W        W29266  33.546   8.141  16.078  0.0356  0.1546  0.0856
86354W        W29267  23.651   3.627  17.632  0.0806  0.0988  0.1355
86355W        W29268  27.741   8.116  18.543 -0.0946 -0.0730  0.3977
86356W        W29269  17.758   2.679  16.604  0.1434  0.1746  0.0259
86357W        W29270  19.244   2.394  16.676 -0.0310 -0.2713 -0.1115
86358W        W29271  19.111  33.638  16.728  0.0240 -0.1384  0.1719
86359W        W29272  23.476  17.991  22.266 -0.2277 -0.0107 -0.0588
86360W        W29273  22.130  13.193  12.695  0.1844 -0.0016 -0.2690
86361W        W29274  19.973  11.919  13.325  0.1098  0.0770  0.1826
86362W        W29275  19.864   9.683  25.901  0.3184 -0.0516 -0.2850
86363W        W29276  15.138   8.437  14.996  0.2103  0.2274  0.1135
86364W        W29277  22.158   4.187  20.907  0.0325 -0.0739 -0.4597
86365W        W29278  23.243   3.849  20.827  0.3125  0.1091  0.4172
86366W        W29279  21.233   9.600  13.078  0.0822  0.0135 -0.1840
86367W        W29280  28.751   3.669  20.272 -0.0799  0.0640  0.1412
86368W        W29281  28.936  13.233  14.352  0.1212  0.3151 -0.0076
86369W        W29282  27.940  11.610  19.947  0.0833  0.2714 -0.1027
86370W        W29283  15.187   6.891  16.191  0.2628 -0.3241 -0.0300
86371W        W29284  29.326  18.595  18.724 -0.2999 -0.1432  0.3762
86372W        W29285  12.437   8.562  14.709 -0.0817 -0.2531 -0.4821
86373W        W29286  19.716   6.379  25.749  0.0936 -0.1456 -0.1085
86374W        W29287  25.441   5.268  19.460  0.1767  0.0386 -0.1185
86375W        W29288   8.894   1.866  25.629 -0.2142  0.1398  0.1886
86376W        W29289  10.441  17.068  18.448  0.3178 -0.4159  0.0566
86377W        W29290  24.037  30.841  17.299 -0.1488 -0.3125  0.1463
86378W        W29291  28.804   6.540  23.072 -0.1523  0.0156 -0.1524
86379W        W29292  17.925   8.941  15.965  0.1716  0.1161  0.0909
86380W        W29293   9.606  13.270  17.474  0.0309 -0.0057  0.0261
86381W        W29294  24.575   1.215  15.487  0.1118  0.1309  0.4909
86382W        W29295  26.991  10.932  15.375 -0.3768  0.0296  0.0135
86383W        W29296  20.875   3.550  17.093 -0.1917 -0.0562 -0.2058
86384W        W29297  29.141  25.269  14.014  0.0186  0.1087  0.1298
86385W        W29298  26.661  17.668  19.772 -0.0794 -0.0931 -0.1175
86386W        W29299  22.511   3.460  17.170  0.0863 -0.1392 -0.2217
86387W        W29300  28.121   8.287  15.122  0.0489 -0.0597  0.1457
86388W        W29301  14.710   1.390  19.495 -0.0913 -0.1157 -0.0406
86389W        W29302  25.858  17.573  24.201  0.1167 -0.0216  0.0258
86390W        W29303  21.397  19.131  12.540  0.1060 -0.0657 -0.0355
86391W        W29304  15.443  10.736  16.429  0.2185  0.3903 -0.0856
86392W        W29305  22.080   6.411  13.374  0.0785  0.0701 -0.1664
86393W        W29306  29.675  18.721  18.334  0.4241 -0.1678  0.0814
86394W        W29307  11.809  13.140  18.781  0.0623 -0.1523  0.0543
86395W        W29308  15.953   4.073  19.691  0.1301  0.0635  0.4099
86396W        W29309  29.809  13.052  14.721 -0.0770 -0.1356  0.1664
86397W        W29310  20.911  11.853  12.709 -0.1521  0.4065 -0.3739
86398W        W29311  20.809   3.527  21.284 -0.2691 -0.0028  0.1445
86399W        W29312  31.538   3.362  18.138 -0.1475 -0.2295  0.0041
86400W        W29313  26.776  17.683  18.777 -0.0377 -0.3445  0.0503
86401W        W29314  19.247  12.940  21.978  0.2435  0.0201 -0.0139
86402W        W29315  27.089  14.116  17.805 -0.2268 -0.1321  0.1913
86403W        W29316  18.971   7.077  20.767 -0.1792  0.1342 -0.1665
86404W        W29317  28.242   4.462  23.611 -0.1071  0.1257 -0.0574
86405W        W29318  25.886  29.522  14.803 -0.0879  0.3932 -0.0711
86406W        W29319  14.490  15.072  13.878  0.1893 -0.0146  0.0374
86407W        W29320  14.100  15.485  12.743  0.0987 -0.0631 -0.0419
86408W        W29321  18.230   5.428  17.270 -0.0616  0.0704 -0.0899
86409W        W29322  18.245   4.034  20.368 -0.1458 -0.2083  0.1143
86410W        W29323  21.873  15.037   0.586  0.1566 -0.0075 -0.2308
86411W        W29324  21.009   3.654  18.519 -0.1146 -0.0556 -0.0129
86412W        W29325  23.090  33.980  22.768 -0.0866  0.1437 -0.0849
86413W        W29326  23.891   2.697  17.376  0.0309 -0.1066 -0.0576
86414W        W29327   0.945   7.233  18.625 -0.1123  0.1033 -0.0654
86415W        W29328  19.074  10.039  13.759  0.2893  0.1947  0.1472
86416W        W29329  20.415  32.212  22.300  0.1111 -0.0900  0.0485
86417W        W29330  17.836   1.533  18.542  0.0342 -0.2592  0.0580
86418W        W29331  22.434  19.096  14.367 -0.0983  0.1972  0.2644
86419W        W29332  23.122  13.546  12.731  0.1362 -0.3224  0.2443
86420W        W29333  18.258  28.714  21.473 -0.2936 -0.3001  0.2240
86421W        W29334  22.176  13.343  17.079 -0.2339 -0.0236 -0.0654
86422W        W29335  18.289   7.780  15.275  0.0846  0.1110  0.1478
86423W        W29336  12.964  21.435  13.723 -0.0166 -0.2726 -0.2009
86424W        W29337   9.710  28.095  23.127 -0.2796 -0.0306 -0.1361
86425W        W29338  24.127   7.275  21.329 -0.0965  0.2114 -0.0068
86426W        W29339  21.027   1.538  13.996 -0.1099 -0.4328  0.1119
86427W        W29340  27.902   8.204  17.461  0.0812  0.2717 -0.0134
86428W        W29341  28.965   3.445  25.640 -0.0212 -0.1515  0.1541
86429W        W29342  21.409   5.452  14.282  0.1822 -0.1106  0.0674
86430W        W29343  23.221   6.862  19.601 -0.1954 -0.3019 -0.1724
86431W        W29344  16.977   5.688  15.166  0.0448  0.3097 -0.0005
86432W        W29345  32.161  23.448  16.384 -0.1829  0.2042 -0.0780
86433W        W29346  33.741   5.061  19.514  0.2125  0.0672  0.3533
86434W        W29347  24.601  11.369  15.220  0.0309 -0.3053  0.3465
86435W        W29348  24.601   7.769  13.950 -0.0497 -0.1368  0.0790
86436W        W29349  23.759   5.620  17.195 -0.0132  0.0494  0.0329
86437W        W29350  24.298   8.705  19.796 -0.1702 -0.1488 -0.0792
86438W        W29351  14.179  16.427  13.502 -0.0292 -0.0901  0.1464
86439W        W29352  22.316  11.188  14.672  0.0542 -0.4290 -0.0863
86440W        W29353  19.583  10.507  15.212 -0.1570 -0.0778  0.0869
86441W        W29354  27.199   9.120  16.796 -0.2515 -0.1923  0.0243
86442W        W29355  14.725  11.604  20.494  0.1994  0.0569 -0.1041
86443W        W29356  15.805  10.608  20.631 -0.0647 -0.0655 -0.4009
86444W        W29357  20.319   8.639  20.453 -0.1437 -0.0329 -0.0762
86445W        W29358  21.671  31.922  19.427 -0.0252  0.2498  0.1732
86446W        W29359  19.170   6.008  22.109  0.0401  0.2671  0.1121
86447W        W29360  13.146  14.740  15.603  0.0409 -0.1237  0.1667
86448W        W29361  16.041   5.965  24.512  0.2758  0.3119 -0.4980
86449W        W29362  21.326   5.260  15.032 -0.0178  0.1245 -0.2079
86450W        W29363  10.468  25.983  19.975 -0.0515  0.0418  0.2684
86451W        W29364  26.499  14.795  20.441  0.0244  0.3074  0.1601
86452W        W29365   8.612   6.946  16.534  0.0571 -0.0267 -0.3031
86453W        W29366  20.986   4.026  21.343 -0.0400  0.1035 -0.1530
86454W        W29367  26.383   7.288  20.709  0.2107  0.0490 -0.3130
86455W        W29368  22.574  14.669  14.012  0.2702  0.0388  0.1875
86456W        W29369  22.241   8.124  15.283  0.3334  0.0645  0.0978
86457W        W29370  27.747  14.653  15.200 -0.0137  0.4018 -0.2341
86458W        W29371  21.662  12.182  15.823 -0.1079  0.0705 -0.0846
86459W        W29372  20.451  17.679  15.542  0.1409 -0.0866  0.1838
86460W        W29373  16.272   1.933  14.973  0.2193  0.0061 -0.2973
86461W        W29374  32.198  17.953  21.681  0.0363  0.4607  0.0321
86462W        W29375  21.727   6.274  14.571 -0.1611 -0.0976  0.0513
86463W        W29376  12.225  20.266  24.961 -0.1302  0.0405  0.2014
86464W        W29377  17.677  11.151  12.263  0.2329  0.0901 -0.4341
86465W        W29378  11.912   6.974  21.478  0.0693 -0.0276 -0.0455
86466W        W29379  15.556  32.865  15.220  0.3990 -0.0220 -0.2689
86467W        W29380  23.674  11.166  17.709 -0.1804  0.1826  0.0723
86468W        W29381  18.905   6.436  13.684 -0.2360  0.2222  0.1713
86469W        W29382  25.355   5.874  17.439  0.0330  0.2928 -0.1704
86470W        W29383  17.848   8.097  14.448  0.3793  0.3063 -0.0416
86471W        W29384   8.372  20.685  15.896  0.2450 -0.0660  0.0931
86472W        W29385  21.138   5.578  17.623  0.0959 -0.1153 -0.1987
86473W        W29386  23.523  11.513  13.672  0.3378  0.2765 -0.2004
86474W        W29387  26.660   9.952  13.991  0.0261  0.0948 -0.1205
86475W        W29388  28.684  15.481  19.130  0.0216 -0.1723  0.1067
86476W        W29389  16.344  11.595  24.357 -0.0574  0.1652  0.0929
86477W        W29390  28.568  14.237  16.980 -0.0231  0.1394  0.0077
86478W        W29391  27.299  22.648  16.706 -0.1061 -0.0189 -0.1985
86479W        W29392  22.019   1.732  26.137  0.0798  0.0007 -0.0886
86480W        W29393  10.365  15.450  14.356 -0.0621 -0.3155  0.2037
86481W        W29394  24.496  14.659  14.594  0.1598  0.1560  0.3019
86482W        W29395  29.369  32.028  14.130 -0.2019 -0.0028 -0.0102
86483W        W29396  15.505  11.385  29.512  0.0918 -0.0813  0.1007
86484W        W29397   7.787  14.031  18.224  0.0832  0.1207 -0.3166
86485W        W29398  22.527   6.823  24.820 -0.1406 -0.0539  0.2706
86486W        W29399  33.564  11.807  15.054  0.0941  0.0811  0.2236
86487W        W29400  21.119  11.102  20.386 -0.4372 -0.1016  0.2862
86488W        W29401  19.459   1.770  19.323  0.2829  0.0318 -0.0814
86489W        W29402  25.347   7.157  17.835 -0.2319 -0.1195 -0.0849
86490W        W29403  19.851  29.435  23.583  0.1321 -0.0281  0.0129
86491W        W29404  22.539   3.672  13.517  0.0967 -0.2587 -0.2381
86492W        W29405  19.890   5.135  21.419  0.0942  0.4692  0.2374
86493W        W29406  21.370   6.584  22.516  0.0910  0.0474  0.1561
86494W        W29407  12.057   4.876  20.467  0.0326  0.2796  0.2139
86495W        W29408  25.253   9.596  14.703 -0.0999 -0.2454  0.0591
86496W        W29409  13.206  15.108  14.509  0.1515  0.0386  0.3464
86497W        W29410  21.644   6.621  15.880 -0.1539 -0.1928 -0.3965
86498W        W29411  23.893  10.518  22.563 -0.0423 -0.2093  0.2072
86499W        W29412  14.856   7.900  26.825 -0.1311  0.2490  0.0354
86500W        W29413  25.340   5.184  25.586 -0.0524  0.1690  0.0865
86501W        W29414  20.160  10.013  15.521 -0.0302 -0.0995 -0.2103
86502W        W29415  22.697   7.644  23.223 -0.1405 -0.0358 -0.1158
86503W        W29416  17.897   5.766  17.442 -0.1092 -0.0825  0.1188
86504W        W29417  15.467  15.335  12.039 -0.1065 -0.1128 -0.0594
86505W        W29418  23.883   7.162  16.174 -0.2655  0.0020  0.1920
86506W        W29419  23.860   2.177  24.460  0.0419 -0.1326  0.0604
86507W        W29420  31.990  18.957  26.208 -0.2161 -0.1095 -0.1740
86508W        W29421  25.615  21.567  13.342 -0.0721  0.1589 -0.0213
86509W        W29422  21.425  20.360  15.357 -0.0226 -0.0958  0.0490
86510W        W29423  13.308   8.534  24.309 -0.1993  0.2864  0.0312
86511W        W29424   9.825  19.758  14.307  0.2639 -0.3191  0.1744
86512W        W29425  12.581  10.300  22.169 -0.0056  0.0072 -0.2890
86513W        W29426  25.428   8.000  17.724 -0.0206 -0.2546 -0.1155
86514W        W29427  18.900   4.945  16.182 -0.1364  0.0674  0.1088
86515W        W29428  14.223   7.063  24.940 -0.1541  0.3868 -0.0256
86516W        W29429  25.997   5.750  16.122  0.0781  0.0081  0.1493
86517W        W29430  20.634  14.397  13.197  0.0234 -0.0830 -0.0615
86518W        W29431  17.955   5.101  16.349 -0.0581  0.0085 -0.3044
86519W        W29432  23.174   9.468  17.602 -0.2684 -0.2927 -0.0528
86520W        W29433  21.914   4.898  17.330  0.2028  0.2301 -0.2429
86521W        W29434  18.613  11.154  25.863 -0.0685  0.3595  0.1956
86522W        W29435  24.478   6.874  19.285 -0.3478  0.1588 -0.2169
86523W        W29436  24.432   8.791  25.293  0.1035  0.1146 -0.0458
86524W        W29437  14.044   6.718  14.872 -0.1560 -0.1542  0.1417
86525W        W29438  14.623   3.633  24.903  0.3042 -0.1668  0.0529
86526W        W29439  26.658  24.177  19.066  0.0199 -0.2255 -0.2537
86527W        W29440  18.890  10.353  16.033  0.0747  0.0497  0.0414
86528W        W29441  21.402  12.032  19.867  0.0481  0.3405 -0.0780
86529W        W29442  17.837   6.326  17.087 -0.2541 -0.1159  0.2093
86530W        W29443  23.223  12.222  22.750 -0.0250 -0.1116  0.0243
86531W        W29444  22.732   4.988  16.003 -0.0991  0.1441 -0.1416
86532W        W29445  17.032  10.977  13.090 -0.0482 -0.2525  0.1755
86533W        W29446  18.032  31.919  20.235  0.1879 -0.1872 -0.0614
86534W        W29447  17.895  12.076  20.248 -0.0019 -0.2258 -0.0629
86535W        W29448  24.620  16.192  22.055 -0.0162  0.3234 -0.2099
86536W        W29449  16.227   7.387  19.947  0.4264 -0.1096  0.2718
86537W        W29450  28.541  19.436  17.730  0.2202  0.2073  0.0718
86538W        W29451  23.642   5.833  25.076 -0.0709  0.0716 -0.1724
86539W        W29452  15.234  12.475  14.702  0.0011 -0.4005  0.2623
86540W        W29453  18.438   3.238  22.070 -0.0148 -0.3905 -0.0193
86541W        W29454  13.347  12.110  14.420  0.1922 -0.3256 -0.1702
86542W        W29455  23.561  16.049  13.452  0.0495 -0.0009  0.0759
86543W        W29456  19.105  10.147  19.714  0.1960  0.4939 -0.0771
86544W        W29457  19.305   2.794  20.274 -0.1108 -0.1616  0.2212
86545W        W29458  19.067   3.963  26.605  0.3046 -0.0878 -0.0806
86546W        W29459  18.349   8.230  18.440 -0.1777 -0.1067 -0.1247
86547W        W29460  22.840  21.030  15.888  0.2824  0.1748 -0.1484
86548W        W29461  32.463   4.127  23.289  0.2027  0.2086  0.3013
86549W        W29462   2.333   3.461  17.478  0.2121 -0.0515  0.2434
86550W        W29463  20.944  11.763  14.974 -0.2511  0.0089  0.1743
86551W        W29464  22.953  14.542  14.419 -0.0247  0.0427 -0.0058
86552W        W29465  33.107   0.223  19.241  0.2270  0.3761 -0.0157
86553W        W29466   6.508   5.915  18.092 -0.2976 -0.2009 -0.1327
86554W        W29467  21.832   4.474  17.614  0.0766 -0.2122  0.1504
86555W        W29468  16.055   8.337  27.486  0.3417 -0.0977  0.0988
86556W        W29469   0.147   0.859  15.500  0.0082  0.2515  0.0144
86557W        W29470  19.708  15.592  14.156 -0.1804 -0.0769 -0.0956
86558W        W29471  19.955  14.951  21.679 -0.1289  0.0957 -0.1846
86559W        W29472   6.904  22.660  20.958  0.1371 -0.2989  0.0676
86560W        W29473  22.317  34.102  14.403  0.1590  0.2298 -0.1300
86561W        W29474  27.961   0.900   0.437  0.0452 -0.3848  0.0676
86562W        W29475  22.056   3.766  20.179 -0.3061 -0.0875 -0.1818
86563W        W29476  26.741   8.357  14.936 -0.1341  0.0461  0.2476
86564W        W29477  17.536  31.056  20.134 -0.0693  0.0590  0.0872
86565W        W29478  10.628  12.964  23.743 -0.2568  0.0215  0.0041
86566W        W29479  13.433  14.879  18.390 -0.1196 -0.0307  0.0316
86567W        W29480  28.189  12.020  29.293 -0.1701 -0.3052  0.0213
86568W        W29481  19.249   4.839  14.174  0.2962 -0.0624 -0.6089
86569W        W29482   1.574   7.239  16.515  0.3196 -0.1067  0.1145
86570W        W29483   8.314  14.219  14.706 -0.1528  0.1645  0.0904
86571W        W29484  28.037   9.910  21.745  0.2841 -0.2582 -0.1864
86572W        W29485  21.533   1.433  13.727  0.1175  0.0559 -0.0504
86573W        W29486  13.501  14.384  19.781  0.2003  0.3369 -0.2813
86574W        W29487  18.944  12.267  14.661 -0.1401  0.1511 -0.1865
86575W        W29488  23.407  13.760  19.558 -0.0770  0.1102 -0.0135
86576W        W29489  20.453   9.170  17.049  0.1437  0.1353  0.0664
86577W        W29490  26.134  13.624  16.129 -0.2386  0.0010  0.3076
86578W        W29491  21.726   3.868  16.489  0.1606 -0.0539  0.2414
86579W        W29492  10.946   7.572  17.576 -0.2385  0.1911 -0.5471
86580W        W29493  31.929  12.104   0.267  0.3276 -0.0097  0.1585
86581W        W29494  15.820   4.737  19.728 -0.1035 -0.1523  0.0119
86582W        W29495  14.970   0.685  17.826  0.3873 -0.0369  0.2330
86583W        W29496  20.445  18.736  16.364  0.1324  0.1720 -0.2873
86584W        W29497  17.205  33.944  15.911 -0.3716  0.2852 -0.1394
86585W        W29498  13.959   6.477  16.265 -0.2295  0.1956  0.2004
86586W        W29499  23.490  11.171  27.450  0.0920  0.0533 -0.0607
86587W        W29500  29.477  14.095  15.784  0.0529  0.0042 -0.0982
86588W        W29501  30.819  30.289  29.195  0.3671 -0.1026 -0.2911
86589W        W29502  18.551   8.941  20.280  0.1185 -0.1013  0.3385
86590W        W29503  19.875   7.126  19.822  0.2826 -0.4415 -0.0857
86591W        W29504  17.421  11.677   1.266  0.3428  0.0967 -0.0026
86592W        W29505  28.787  10.545  22.512  0.1312 -0.1334 -0.0830
86593W        W29506  19.897  12.568  12.175 -0.2174 -0.2602  0.2794
86594W        W29507  13.825  16.422  16.117 -0.4701  0.2553  0.3556
86595W        W29508  22.869  10.337  17.111 -0.2968  0.0844  0.2524
86596W        W29509  21.698  16.074  15.276 -0.0813  0.1521  0.0051
86597W        W29510  16.259   6.169   1.378 -0.0812  0.2268  0.1215
86598W        W29511  22.914   8.561  16.429 -0.3968  0.1482 -0.0332
86599W        W29512  22.330   7.975  14.265 -0.1210  0.4107 -0.2493
86600W        W29513  19.192  13.425  25.881 -0.2135 -0.3204 -0.3700
86601W        W29514  21.060   8.167  19.177 -0.1316 -0.4607 -0.0643
86602W        W29515   9.287  11.901   2.194 -0.1681  0.0292 -0.0445
86603W        W29516  21.304  10.421  21.005  0.1511  0.1465 -0.1353
86604W        W29517  20.371  11.717  16.003  0.1920 -0.0714 -0.0710
86605W        W29518  20.902   9.599  20.315  0.0362  0.0122  0.1044
86606W        W29519  12.914   8.384  23.290  0.4386  0.0389  0.0786
86607W        W29520  16.915  14.532  15.358  0.2169 -0.0467  0.1371
86608W        W29521  21.125   8.015  24.711 -0.0825  0.0022  0.1928
86609W        W29522   6.235  27.085  24.942  0.0713 -0.0906 -0.0016
86610W        W29523  15.712   4.489  16.786  0.0518  0.1494  0.0859
86611W        W29524  33.357  13.603  22.706  0.0229  0.3287 -0.0013
86612W        W29525  28.918  13.791  22.845 -0.0962  0.0909  0.0744
86613W        W29526   1.041  12.382  16.675  0.2309  0.0073 -0.0378
86614W        W29527  17.626   9.588  19.435  0.0375  0.2753  0.2379
86615W        W29528  24.083   8.554  20.781 -0.0867  0.3604 -0.1816
86616W        W29529  14.587   2.317  27.959  0.2561  0.1007  0.0658
86617W        W29530  21.989   9.289  24.617  0.0001  0.2854  0.1600
86618W        W29531  26.053  18.615  18.078 -0.1206 -0.1633  0.2031
86619W        W29532  21.094   7.533  21.698  0.0459  0.0003 -0.2794
86620W        W29533  25.388  12.732  24.638 -0.2710  0.3692 -0.0065
86621W        W29534  25.139  11.211  18.242 -0.0691 -0.4758  0.0996
86622W        W29535  17.355   9.117  18.513 -0.0606 -0.0482  0.0108
86623W        W29536   7.337  32.290  21.379  0.2254  0.0162 -0.1796
86624W        W29537  30.236   3.594  16.695  0.1243  0.0390  0.1044
86625W        W29538  20.147   3.052  24.896 -0.4373  0.2930  0.2304
86626W        W29539  26.433   6.115  15.225  0.0416 -0.3150  0.3476
86627W        W29540  19.748  26.189   0.251  0.0885  0.2064  0.1424
86628W        W29541  20.659  14.134  12.728 -0.0688  0.1857  0.0830
86629W        W29542  22.661  11.050  27.120 -0.1203  0.2858 -0.0169
86630W        W29543  18.943   7.675  15.183  0.2293 -0.0526  0.0456
86631W        W29544  29.408  17.466  20.236 -0.0479  0.0968 -0.0429
86632W        W29545  10.179  21.009   2.278 -0.2051  0.0551  0.3919
86633W        W29546  23.696   4.209  24.635  0.0205  0.1136 -0.0087
86634W        W29547  27.949  10.157  25.243 -0.0958 -0.2970 -0.0216
86635W        W29548  13.269   3.346  22.173  0.1114  0.0448  0.0389
86636W        W29549  26.789  11.954  20.090  0.2071  0.1279  0.1057
86637W        W29550   5.156   9.250  21.253 -0.3162  0.0167 -0.0584
86638W        W29551  14.160  11.559  19.171  0.1132  0.1874 -0.0489
86639W        W29552  30.924  32.727  20.416 -0.0743 -0.1579  0.0743
86640W        W29553  20.643  10.443  19.718 -0.1669  0.1830  0.1345
86641W        W29554  29.240   5.189  16.491 -0.2091  0.0479  0.1406
86642W        W29555  17.920  31.150  23.385  0.2487  0.4042 -0.1220
86643W        W29556  28.214  11.041  25.440  0.4521 -0.2039 -0.0676
86644W        W29557  22.118  15.381  15.394 -0.1033  0.3415 -0.2852
86645W        W29558  25.740   5.017  18.267  0.0181 -0.0515 -0.0268
86646W        W29559  21.202  13.596  23.684 -0.1762  0.4518  0.2113
86647W        W29560  20.047  11.646  20.906  0.2757 -0.0711 -0.1154
86648W        W29561  16.026   7.017  17.459  0.2252  0.1570 -0.1764
86649W        W29562  10.527  11.333  18.495  0.1137  0.3378  0.1069
86650W        W29563  13.636  29.146  22.652  0.1834  0.1604  0.1897
86651W        W29564   0.121   5.866  20.011 -0.0745  0.2623  0.1119
86652W        W29565  20.634   7.619  16.122  0.1339  0.4369  0.0813
86653W        W29566   9.262  11.444  18.675  0.1683 -0.1702  0.0365
86654W        W29567  22.761  19.173  12.226  0.0206  0.1423  0.0542
86655W        W29568  18.576  18.065  23.868  0.0179  0.0400  0.2178
86656W        W29569  23.536  19.780  17.005  0.0783 -0.1619  0.1719
86657W        W29570  19.036  32.589  25.878 -0.0079  0.1795  0.0374
86658W        W29571  15.912   1.187  22.992 -0.0044 -0.0574  0.4612
86659W        W29572  22.538  11.189  20.613  0.3401  0.0759 -0.1199
86660W        W29573  21.275   9.806  21.610  0.2209  0.2118  0.0113
86661W        W29574  18.953  11.524  22.176 -0.1099  0.1712  0.1671
86662W        W29575  23.685  18.834  17.318  0.1139 -0.3206  0.0207
86663W        W29576  28.294   4.918  20.099  0.3179 -0.1322  0.1220
86664W        W29577  15.854  12.206  19.983  0.4123  0.1217 -0.0407
86665W        W29578  22.899  27.567  22.448  0.0327 -0.0717  0.1719
86666W        W29579  13.811  33.550  26.718 -0.1447 -0.0162 -0.0461
86667W        W29580  10.822  20.540  16.095  0.0338 -0.0198  0.2670
86668W        W29581  25.199  10.129  27.577  0.0220  0.2296  0.0154
86669W        W29582  33.675   6.132  25.390 -0.2485 -0.1181  0.3128
86670W        W29583  22.071   0.895  22.593  0.3417  0.1676  0.5005
86671W        W29584  16.246   3.465  17.054  0.0197 -0.0815 -0.0334
86672W        W29585  29.674   4.820  17.717 -0.0716 -0.0739 -0.0889
86673W        W29586  21.931  33.331  28.223 -0.2842  0.0283  0.0045
86674W        W29587  26.938  13.204  18.482 -0.2812  0.0475 -0.1915
86675W        W29588  24.394   2.156  21.150  0.1163 -0.0527 -0.1401
86676W        W29589  14.240  12.829  21.093 -0.1116  0.1698  0.0531
86677W        W29590  15.970   2.767  24.393 -0.0079  0.2755 -0.0221
86678W        W29591  23.608  12.548  24.390  0.2834  0.1078  0.1765
86679W        W29592  25.802   9.188  28.055  0.1672 -0.2773  0.1360
86680W        W29593  16.774   9.343   2.808  0.2234 -0.2286  0.0716
86681W        W29594  18.379   3.220  23.116  0.1276  0.0487 -0.2253
86682W        W29595  17.171  19.527  12.383  0.2887 -0.0048  0.1746
86683W        W29596  15.363   4.699  15.247 -0.0268  0.1321  0.4352
86684W        W29597  14.901  29.712  16.413 -0.0871  0.0646  0.5212
86685W        W29598  20.431  28.184  19.039  0.0919 -0.0364 -0.1092
86686W        W29599  18.532  32.522  24.531 -0.1500 -0.2740 -0.1029
86687W        W29600  11.935  15.625  12.917  0.0747 -0.0557  0.1493
86688W        W29601  18.904   3.064  16.102 -0.0109  0.1712 -0.1111
86689W        W29602  13.714  10.883  17.447 -0.2764 -0.0085  0.2272
86690W        W29603  20.605  16.898  12.752 -0.1426  0.3943  0.0539
86691W        W29604  28.456   7.540  15.533 -0.0633  0.0752 -0.1938
86692W        W29605  22.111  22.158   2.873  0.2810  0.1688 -0.2801
86693W        W29606  18.227  11.355  19.502 -0.1102 -0.1279 -0.2600
86694W        W29607  22.972  11.601  14.451 -0.1025 -0.1652 -0.1286
86695W        W29608  18.487  13.284  19.525 -0.1377 -0.1368  0.1735
86696W        W29609  18.036   5.479  21.792  0.1251  0.2781 -0.0879
86697W        W29610  19.985   4.056  16.346 -0.2942  0.2498  0.1025
86698W        W29611  21.340   3.156  28.009  0.1655 -0.0837 -0.0151
86699W        W29612  25.898  15.649  22.687 -0.0442 -0.2375  0.1582
86700W        W29613  21.264  12.147   4.977  0.2374 -0.0948 -0.0845
86701W        W29614  23.929   7.073   8.037  0.2597  0.1711 -0.2275
86702W        W29615  30.199   2.149  18.111  0.0243 -0.2227  0.1541
86703W        W29616  15.478  20.510  17.405  0.1361 -0.0246  0.1795
86704W        W29617  29.950  15.659  25.232  0.1105 -0.2806 -0.1864
86705W        W29618  28.968  16.943  16.455  0.1947 -0.4854  0.4708
86706W        W29619  27.235   3.904  20.152 -0.1886  0.1425  0.2188
86707W        W29620  28.660  19.913  16.439  0.0407 -0.0294 -0.1602
86708W        W29621  23.404   4.834  20.161 -0.1065 -0.1670  0.0717
86709W        W29622  23.541   7.054  25.772 -0.0785 -0.3023  0.1417
86710W        W29623  22.559   5.150  22.531  0.1779  0.2207 -0.0155
86711W        W29624  23.470  10.589  26.023  0.0405 -0.1451 -0.1065
86712W        W29625  21.949  13.213  17.931  0.0520  0.0091  0.2182
86713W        W29626  15.834   0.917  18.199  0.0286 -0.1615  0.0271
86714W        W29627  21.904  19.724  25.662 -0.1436 -0.2146 -0.0066
86715W        W29628  22.086   1.353  17.627 -0.0737 -0.1169  0.0874
86716W        W29629  32.992  16.203  29.376  0.0349  0.1129 -0.2334
86717W        W29630  26.329  15.163  29.700 -0.0241 -0.2091  0.2541
86718W        W29631  24.427   8.574  17.030  0.3192  0.1418  0.3304
86719W        W29632  22.176   4.848  22.658  0.1037  0.1041  0.2022
86720W        W29633  24.744   3.968  16.617  0.0533 -0.0601  0.1928
86721W        W29634  17.272  34.436  15.620 -0.0896  0.1801 -0.1358
86722W        W29635  18.518   9.505  19.090 -0.1734 -0.0062  0.1684
86723W        W29636  22.703   8.549  20.985 -0.2338 -0.0837 -0.2467
86724W        W29637   8.068   9.602  26.890 -0.0219 -0.1182  0.1584
86725W        W29638  24.572  15.888  18.297 -0.1670 -0.1393 -0.0693
86726W        W29639  30.494   0.550  19.518  0.0503  0.0923  0.2450
86727W        W29640  17.651   9.693  12.501 -0.0652 -0.1138  0.1297
86728W        W29641  20.539   7.830  23.500  0.0897  0.3925 -0.0862
86729W        W29642  32.090   3.190  20.132 -0.1020  0.1906  0.1159
86730W        W29643   6.905  13.937  14.810  0.0375  0.3385  0.2131
86731W        W29644  26.362   5.223  19.426  0.3229  0.1377 -0.3229
86732W        W29645  29.216  14.190  25.910  0.2604  0.1015  0.2970
86733W        W29646   2.771  12.216  20.161 -0.0278  0.1345  0.3828
86734W        W29647  17.168   4.038  16.054 -0.3479  0.3477  0.0128
86735W        W29648  11.318   3.981  18.816 -0.0809 -0.1417  0.0457
86736W        W29649  17.041  21.196  17.485  0.1293 -0.0207  0.1965
86737W        W29650  15.242  16.987  12.254 -0.1784 -0.0948  0.0289
86738W        W29651  15.201  33.365  20.917  0.2639  0.1199 -0.1385
86739W        W29652  13.008   2.356   2.253 -0.0962 -0.2894  0.1604
86740W        W29653  22.841   5.333  17.404 -0.2397  0.0699 -0.0304
86741W        W29654  28.781  11.778  20.380  0.0526 -0.0932  0.0060
86742W        W29655  22.417  12.514  20.461  0.2512  0.2761 -0.0234
86743W        W29656  29.700  12.511  14.415 -0.3617  0.1517 -0.0191
86744W        W29657  29.934   6.328  19.764  0.2530  0.0643  0.0105
86745W        W29658  11.528  27.292   0.029 -0.0571 -0.1266  0.0939
86746W        W29659  29.611  15.587  15.705 -0.0169 -0.2126 -0.2641
86747W        W29660  22.105   7.937  16.432 -0.0058 -0.3177  0.1264
86748W        W29661  20.235  19.388  11.860  0.1341  0.1075 -0.2440
86749W        W29662  15.753  10.931  26.825  0.2086  0.0667 -0.0666
86750W        W29663  12.452  18.088  13.971 -0.0968  0.1370  0.1349
86751W        W29664  18.730  32.624  15.079 -0.0628 -0.0038 -0.2685
86752W        W29665  24.994  20.483   0.922  0.0671 -0.0183  0.1098
86753W        W29666  24.714   4.178  15.403 -0.2346 -0.1950 -0.1702
86754W        W29667  16.589   4.852  21.683  0.0417  0.3430  0.0222
86755W        W29668  29.719   9.710  22.778  0.2060 -0.1017  0.0094
86756W        W29669  31.502  10.465  18.542  0.1814 -0.2496 -0.1860
86757W        W29670  18.464   8.372  16.687 -0.2507 -0.0427 -0.2693
86758W        W29671  17.858   2.214  24.174 -0.0061  0.3721 -0.0276
86759W        W29672  14.953   4.178  16.167 -0.3109  0.0116 -0.1139
86760W        W29673  21.429  19.801  17.872  0.2203  0.0225 -0.1443
86761W        W29674  18.217   3.663  22.241  0.2364  0.1105  0.0636
86762W        W29675  12.891  23.312  18.167  0.0239  0.3007 -0.2952
86763W        W29676  13.554   2.118  27.140  0.1040 -0.0602 -0.0042
86764W        W29677  33.318  13.354  25.648 -0.0669 -0.3206 -0.0614
86765W        W29678  15.265   6.518  17.954 -0.2344 -0.0479 -0.0584
86766W        W29679  17.069  16.232  15.312 -0.0075 -0.0537  0.0947
86767W        W29680  19.972  10.027  13.499 -0.0671 -0.0322 -0.0922
86768W        W29681  22.527   1.382  22.181 -0.1143 -0.2864 -0.0148
86769W        W29682  25.688   6.214  17.379 -0.1858 -0.2925  0.0301
86770W        W29683  26.386   8.182  17.353  0.1890 -0.1005 -0.1099
86771W        W29684  21.345   4.923  25.004  0.0514 -0.2066 -0.1238
86772W        W29685   0.701   3.661  18.574  0.0927 -0.0134 -0.1202
86773W        W29686  22.221   9.998  23.412  0.0414  0.0049  0.0465
86774W        W29687  27.737   3.232  24.821 -0.1088  0.0550 -0.0278
86775W        W29688  18.213  10.789  18.684  0.1001 -0.1340  0.0805
86776W        W29689  14.614   4.433  20.989 -0.2529 -0.0405 -0.2126
86777W        W29690   9.380  23.295  21.711  0.0890  0.0651  0.1211
86778W        W29691  22.355  12.065  17.756  0.0955  0.2511  0.4422
86779W        W29692  26.422  11.730  15.808  0.3185  0.3694 -0.0248
86780W        W29693  17.513  12.381  18.279 -0.2100 -0.3175 -0.4249
86781W        W29694  20.244   4.786  17.096  0.2167 -0.0745 -0.5542
86782W        W29695  19.759   8.398  15.123 -0.0890 -0.0424  0.1345
86783W        W29696  22.704  17.561  22.076  0.2491 -0.1094 -0.2215
86784W        W29697  22.904   3.391  23.049  0.1422  0.1349  0.0102
86785W        W29698  21.002   1.367  16.631  0.1514  0.0046  0.2033
86786W        W29699  29.253   9.621  19.968  0.0495  0.2388  0.0007
86787W        W29700  17.669  13.035  27.394  0.1659 -0.0918  0.0287
86788W        W29701  20.779  15.239  13.644 -0.6941  0.1260  0.2158
86789W        W29702  24.097   8.538  13.506 -0.1317 -0.0085 -0.0660
86790W        W29703  26.021  22.747  22.714 -0.2504  0.1526 -0.2160
86791W        W29704  26.035   2.825  23.282 -0.2901 -0.0561  0.0323
86792W        W29705  21.497   2.710  19.670 -0.0231  0.1492 -0.4321
86793W        W29706  14.507  15.995  13.544  0.2925  0.4410  0.1695
86794W        W29707  24.171  12.635  26.918  0.0900 -0.0004 -0.0730
86795W        W29708  19.251   5.126  21.723  0.2260  0.2745  0.2541
86796W        W29709  30.595  33.514  26.337 -0.0999  0.3476 -0.1209
86797W        W29710  25.328   5.774  14.721 -0.3642  0.0960 -0.1683
86798W        W29711  19.458   7.148  25.369  0.1699  0.3422  0.2355
86799W        W29712  20.455   1.688  16.619  0.2646 -0.1076  0.0953
86800W        W29713  11.592  32.757  22.606 -0.1367  0.1533 -0.1432
86801W        W29714  23.993  12.007  16.882  0.0149  0.1929 -0.1047
86802W        W29715  18.802   0.785  19.355 -0.0871 -0.3621  0.1054
86803W        W29716  11.287  19.534  25.985 -0.1571 -0.0033  0.0510
86804W        W29717  12.686   9.515  16.559 -0.0412 -0.2358 -0.1310
86805W        W29718  27.484  16.954  14.880  0.1682  0.1375  0.0417
86806W        W29719  15.526   8.779  21.416  0.0040  0.1942 -0.0216
86807W        W29720  27.521  11.310  24.223  0.3943  0.0104  0.0165
86808W        W29721  20.760  31.562  16.604 -0.2128  0.3039  0.6719
86809W        W29722  21.001   2.962  25.952  0.0108 -0.1943  0.0709
86810W        W29723  32.804  13.227  15.065  0.1421  0.0501 -0.3533
86811W        W29724  30.672   1.865  17.347 -0.1238 -0.0771 -0.0149
86812W        W29725  17.919   7.620  20.771 -0.1561 -0.1711  0.2572
86813W        W29726   3.317   3.930  21.353  0.3914 -0.3905 -0.2078
86814W        W29727  13.008   9.346  28.372 -0.2483 -0.3207 -0.1097
86815W        W29728  21.935   9.103  15.488  0.4505 -0.1353 -0.0204
86816W        W29729  20.388   0.658   0.292 -0.0560  0.3386  0.1993
86817W        W29730  14.187   9.578  22.494 -0.0597 -0.2474  0.0676
86818W        W29731  26.203  11.295  16.095 -0.0619  0.1376 -0.0497
86819W        W29732   9.023  15.217  24.366 -0.0040  0.0174  0.2628
86820W        W29733  14.753  11.186  20.965 -0.0341  0.0535  0.0787
86821W        W29734  15.368  13.261  26.940 -0.2902  0.0252  0.2600
86822W        W29735  22.937   6.865  17.776 -0.0665 -0.1743  0.1514
86823W        W29736  17.158   4.772  19.781  0.1629  0.2360 -0.0359
86824W        W29737  14.705   2.105  17.769  0.0661  0.2552 -0.0570
86825W        W29738  17.792  11.800  16.536  0.3684 -0.0384 -0.2336
86826W        W29739  18.920   5.027  16.671  0.0359  0.2352  0.2385
86827W        W29740  21.005   0.871  16.388 -0.1735  0.0393 -0.0474
86828W        W29741  14.055  10.706  21.613  0.0755 -0.2157 -0.2751
86829W        W29742  20.708  24.287  13.952 -0.1723 -0.0508  0.1677
86830W        W29743  10.869  34.424  24.390  0.0932  0.0723 -0.0308
86831W        W29744  17.312   6.170  14.766  0.2736 -0.3133  0.2253
86832W        W29745  22.004  13.790  23.852 -0.1701 -0.0195 -0.0737
86833W        W29746  25.896   4.929  16.404 -0.0530 -0.2732 -0.2596
86834W        W29747  14.927   0.878  16.899 -0.0355 -0.1900  0.2205
86835W        W29748  23.418   6.970  17.759 -0.1508  0.1624 -0.0833
86836W        W29749  18.718  30.115  23.242 -0.0186  0.0262 -0.0292
86837W        W29750  19.475  13.861  16.082  0.0116 -0.1986 -0.0073
86838W        W29751  29.698   9.555  26.752  0.2657  0.0554  0.0259
86839W        W29752  10.788  18.511  19.051  0.3589  0.1381 -0.0519
86840W        W29753  17.653  11.586  15.694 -0.2912  0.1725  0.3604
86841W        W29754  21.362  10.204  16.715  0.1223  0.0003 -0.1106
86842W        W29755  29.122   4.013  15.231  0.0387  0.1648 -0.1028
86843W        W29756  21.558   8.269  26.992 -0.4538 -0.0660 -0.1259
86844W        W29757   8.010  31.622  21.858 -0.1104 -0.0948 -0.5484
86845W        W29758  17.259   8.390  16.042  0.2727  0.2628  0.1101
86846W        W29759  28.762   0.928  15.111 -0.1824 -0.0886 -0.0819
86847W        W29760   2.694  19.175  21.947  0.1616  0.0201 -0.0261
86848W        W29761  21.435  34.013   3.507  0.3324  0.0059  0.1349
86849W        W29762  10.673  22.736  25.544  0.0191 -0.2404 -0.1851
86850W        W29763  26.694  21.954  15.012  0.0715 -0.0948 -0.1717
86851W        W29764  23.867  11.381  15.761 -0.4540 -0.0487  0.1589
86852W        W29765  16.465  12.791  13.526 -0.0225 -0.0808 -0.0148
86853W        W29766  13.768  20.404  16.312 -0.2890  0.1396  0.0055
86854W        W29767  31.539  12.677  21.433  0.2436  0.3151 -0.0301
86855W        W29768  19.794   2.291  23.119 -0.0078  0.0383  0.1959
86856W        W29769  14.748   7.941  22.683 -0.1076  0.1423  0.0175
86857W        W29770  18.972  12.565  12.672  0.0532  0.1349 -0.0429
86858W        W29771  26.537   4.642  18.631  0.2345 -0.2860 -0.0665
86859W        W29772  14.069   8.437  25.778 -0.2007 -0.0481  0.2809
86860W        W29773  15.273   6.850  14.658 -0.2942 -0.1120 -0.1652
86861W        W29774  28.209  11.079  24.746  0.1263  0.0074 -0.2302
86862W        W29775  26.594  11.658  29.735  0.1394 -0.4283  0.0284
86863W        W29776  28.704   6.435  15.234 -0.1715 -0.1124  0.0084
86864W        W29777  16.043  11.220  19.722 -0.0238  0.3130 -0.2025
86865W        W29778  13.851   7.729  25.239  0.0650  0.1702 -0.1771
86866W        W29779  20.728   5.701  19.690  0.1207  0.2510 -0.0964
86867W        W29780  28.768   9.898  25.350 -0.1025 -0.4231  0.0841
86868W        W29781  22.708  10.997  25.873  0.2431 -0.0518  0.0938
86869W        W29782  19.469  17.402  11.657  0.0257  0.3224 -0.0396
86870W        W29783  21.456   3.038  15.841 -0.0880 -0.4568  0.1387
86871W        W29784  25.823   9.020  22.784 -0.3503  0.1006  0.2655
86872W        W29785  31.570   8.308  29.027 -0.3793  0.2892  0.0354
86873W        W29786  27.273  13.426  17.357  0.2808  0.1279 -0.1650
86874W        W29787  21.195  33.434  17.407  0.1792  0.0973 -0.2840
86875W        W29788  32.760   3.220  17.555  0.2633 -0.0424  0.0013
86876W        W29789  12.060  11.852  24.658 -0.2138  0.0958 -0.2810
86877W        W29790  15.479  15.582  25.658  0.1166  0.0421  0.0910
86878W        W29791  26.502   6.713  13.658 -0.3597 -0.0524 -0.1521
86879W        W29792   1.951  26.542  23.503 -0.5079 -0.3962 -0.2017
86880W        W29793  27.554   6.421  19.054  0.0866 -0.0125 -0.1144
86881W        W29794  10.353   9.299  23.854  0.1859 -0.3470  0.1081
86882W        W29795  26.928  13.772   0.675  0.3369 -0.0143 -0.0184
86883W        W29796  28.480   5.917  16.216 -0.2222 -0.0743  0.0304
86884W        W29797   8.894  14.343  23.358  0.0982 -0.1617 -0.2957
86885W        W29798  17.079  32.594  17.895 -0.0969 -0.0361  0.4306
86886W        W29799  30.878  15.465  19.913 -0.2788  0.0987  0.0264
86887W        W29800  31.348  10.920  18.515 -0.0674  0.4883 -0.2108
86888W        W29801  25.900  21.820  22.484 -0.4779  0.0178  0.1111
86889W        W29802  11.792   7.249  17.951  0.0670  0.0197 -0.0155
86890W        W29803  26.317  20.426  18.344 -0.2308  0.1147 -0.0159
86891W        W29804  17.482   8.033  21.288  0.0849  0.2698  0.0110
86892W        W29805  24.322  10.959  13.766  0.2201 -0.1734  0.1662
86893W        W29806  21.877   2.029  24.849 -0.0669 -0.0108  0.0987
86894W        W29807  16.956   8.451   3.789  0.1372 -0.1878  0.0167
86895W        W29808  25.512  11.429  26.162 -0.2459 -0.1337 -0.0429
86896W        W29809  22.995  31.541  26.222 -0.1041 -0.0295 -0.0601
86897W        W29810  13.309   3.414  17.234 -0.2292 -0.0751  0.0963
86898W        W29811  12.256   6.401  19.919  0.0875  0.0474 -0.0878
86899W        W29812  30.624  13.621  19.087 -0.1359  0.3697  0.0733
86900W        W29813  14.149  11.299  21.851 -0.1643  0.0916  0.0920
86901W        W29814  17.241   8.642  18.531 -0.2462  0.3320  0.0570
86902W        W29815  25.803  10.379  20.674 -0.0252 -0.0144 -0.1074
86903W        W29816  25.198   0.588  18.904 -0.2085 -0.0200 -0.2758
86904W        W29817  26.286  10.504  19.506  0.0764 -0.1412  0.1371
86905W        W29818  16.652   2.152  19.557  0.0034 -0.3236 -0.2417
86906W        W29819  24.538   5.483  20.910 -0.1640  0.2274 -0.1192
86907W        W29820  27.220   0.710   3.184 -0.2749 -0.2328  0.0380
86908W        W29821  10.449  17.600  20.972 -0.1087  0.1255 -0.2169
86909W        W29822  17.046   4.565  18.554 -0.0630 -0.2938  0.0304
86910W        W29823  14.427  26.081  26.259 -0.1356 -0.2078 -0.2662
86911W        W29824  25.070   8.328  23.535 -0.1859 -0.0992  0.0010
86912W        W29825  23.616  15.386   1.013 -0.3598  0.0865  0.2830
86913W        W29826  24.573   9.727  23.774  0.4079 -0.1490  0.1620
86914W        W29827  13.603   6.242  22.076  0.3581  0.0615  0.0629
86915W        W29828  24.950  25.132  28.994 -0.0228  0.1351 -0.2072
86916W        W29829  25.546  10.231  23.206 -0.1030 -0.0968 -0.2664
86917W        W29830  13.646  13.629  19.915 -0.1733  0.0243  0.1376
86918W        W29831   9.935  14.069  22.230 -0.1995  0.0010 -0.2358
86919W        W29832  29.156   2.410  15.778 -0.0808  0.1279  0.0374
86920W        W29833  23.343   7.328  26.180  0.2621 -0.1405 -0.1539
86921W        W29834  20.793  10.243  16.039  0.3952  0.0771  0.2983
86922W        W29835   9.683  10.316  29.061  0.1105 -0.0567 -0.2617
86923W        W29836  25.008   3.248  20.845 -0.1831  0.0267 -0.0022
86924W        W29837  10.670   7.241  20.038 -0.0634  0.2455  0.1540
86925W        W29838  12.157  12.934  22.591  0.1954 -0.0480  0.0040
86926W        W29839  18.560   7.840  26.111  0.1765 -0.1441 -0.1500
86927W        W29840  16.734  12.280  19.045 -0.2069  0.0144  0.0549
86928W        W29841  25.009   7.599  21.232 -0.2474  0.3816  0.1424
86929W        W29842  17.548   0.635  18.243  0.1789  0.1182  0.0704
86930W        W29843  16.901   7.250  22.327  0.0665  0.1461 -0.0917
86931W        W29844  19.365   6.622  16.758  0.1792 -0.1290 -0.1767
86932W        W29845  26.804   4.858  16.480  0.1543 -0.2099  0.0799
86933W        W29846   7.682   1.787  19.025  0.1994 -0.1135 -0.4369
86934W        W29847  18.303   1.565  15.875  0.2075 -0.0799  0.0038
86935W        W29848  20.378  10.935  21.408 -0.1416 -0.3531  0.1824
86936W        W29849  14.778   7.913  17.067  0.1499  0.1517  0.0280
86937W        W29850  23.225   1.663  14.232  0.0582 -0.0945 -0.0740
86938W        W29851  29.133   2.417  26.594  0.2887 -0.1523  0.2104
86939W        W29852  20.819   8.088  18.500  0.2605 -0.0164 -0.0076
86940W        W29853  16.566   4.408  14.807  0.1932 -0.2752  0.4644
86941W        W29854  11.511   4.750  25.206 -0.2033  0.0214 -0.3473
86942W        W29855  22.108   5.576  18.112 -0.0365 -0.0477 -0.0380
86943W        W29856  13.981   6.365  22.372 -0.1672 -0.2750 -0.0171
86944W        W29857  15.750   3.457  17.156 -0.0393  0.0997  0.0082
86945W        W29858  21.644   0.592  29.736  0.2340 -0.2435  0.1391
86946W        W29859  31.001   5.571  15.469 -0.0276 -0.0413 -0.2237
86947W        W29860  24.445   4.937   0.840  0.1828 -0.1772 -0.0897
86948W        W29861  20.608  12.302  12.702 -0.1008 -0.0877 -0.1820
86949W        W29862  22.651  18.694  14.705  0.2036  0.2802  0.0108
86950W        W29863  24.344   4.233  16.415  0.1662  0.1468  0.1137
86951W        W29864  16.133   0.873  24.868 -0.0479  0.0853 -0.0780
86952W        W29865   2.007   2.764   0.522  0.0697  0.0711 -0.0063
86953W        W29866   4.687  10.118   1.090  0.1684 -0.2997  0.1658
86954W        W29867  27.677   2.892  24.395  0.0343  0.2386 -0.2334
86955W        W29868   9.703  18.203  27.311  0.0801 -0.1272 -0.0096
86956W        W29869  16.699   7.320  14.444  0.1901 -0.0502  0.0391
86957W        W29870  23.638   7.902  20.033 -0.1524  0.0595 -0.1212
86958W        W29871  21.798  15.539  22.981  0.2277 -0.0884 -0.3069
86959W        W29872   2.210   1.536  19.598 -0.1440 -0.0354 -0.1444
86960W        W29873  16.457  12.084  22.926  0.2668 -0.2323  0.0900
86961W        W29874  22.406  16.943  16.257  0.2544 -0.1137  0.0155
86962W        W29875  18.689   1.504  23.570  0.2997 -0.0070  0.0388
86963W        W29876  15.104   8.875  14.098  0.1360 -0.0522 -0.0505
86964W        W29877  15.148   2.452  17.541  0.0067  0.1094 -0.3587
86965W        W29878  28.161  26.711  15.248 -0.2256  0.0305 -0.0352
86966W        W29879  10.109  21.323  19.764  0.0221 -0.3682  0.0839
86967W        W29880  26.422   3.252  24.109  0.1878 -0.1711 -0.1494
86968W        W29881  24.001   6.802  14.858 -0.1149  0.1764 -0.3443
86969W        W29882  23.521  16.985  19.649 -0.2153 -0.2396  0.0177
86970W        W29883  24.060   3.202  20.580 -0.1165 -0.1127 -0.1260
86971W        W29884  18.536   9.990  12.931 -0.0986  0.0420 -0.0345
86972W        W29885  18.591   6.240  27.750  0.2376 -0.3905  0.3568
86973W        W29886  10.725   8.856  16.266 -0.0994 -0.0489  0.0419
86974W        W29887  14.251   7.185  21.183  0.3019 -0.0085  0.0896
86975W        W29888   6.376  33.712  19.122 -0.2519 -0.0390 -0.1572
86976W        W29889  25.388  17.940  22.829 -0.2462  0.1908 -0.1459
86977W        W29890  21.248  30.616  20.187  0.0194  0.2112 -0.2074
86978W        W29891  15.918   7.638  15.258  0.0064  0.1285 -0.2744
86979W        W29892  20.273  21.699  19.778 -0.0206  0.3652  0.0481
86980W        W29893  22.895   2.665   2.194 -0.0298  0.0066 -0.0213
86981W        W29894  17.967   9.420  23.252  0.1244 -0.0070 -0.0516
86982W        W29895  13.507   6.954  25.242  0.1399 -0.0187 -0.3578
86983W        W29896  21.412  14.951  26.907 -0.0712  0.1723  0.2534
86984W        W29897  23.871   5.744  22.924  0.0528  0.2000  0.3805
86985W        W29898  24.393  13.681  13.217  0.3475  0.0496  0.1042
86986W        W29899  23.059  16.505  28.788 -0.0070  0.1018 -0.3119
86987W        W29900  18.222  17.423  19.345 -0.1681  0.1878  0.4508
86988W        W29901   7.983   8.457  20.708 -0.0066  0.1554  0.4525
86989W        W29902  33.710  10.698  22.389 -0.0352 -0.3239 -0.2373
86990W        W29903  28.253  15.213  19.091 -0.1728 -0.1118  0.2693
86991W        W29904  22.278   6.241   1.358  0.0919 -0.1680  0.0526
86992W        W29905  31.760  14.553  23.338  0.3387 -0.0917 -0.0764
86993W        W29906  25.949   8.604  14.853  0.2723 -0.0894 -0.0386
86994W        W29907  28.986   5.622  26.499  0.0119 -0.0613  0.3816
86995W        W29908  29.693  11.551  23.656 -0.1893  0.0254  0.2726
86996W        W29909  26.496  14.782  16.798  0.0241  0.0076 -0.1066
86997W        W29910  23.091  15.225  23.023  0.3117 -0.0195 -0.1394
86998W        W29911  25.633   6.419  21.313  0.1878  0.0966  0.1509
86999W        W29912  32.314  12.298  20.682  0.0166 -0.2359  0.0837
87000W        W29913  11.226   7.029  15.864 -0.2340  0.0507 -0.1182
87001W        W29914  18.605  12.378  22.911  0.0892 -0.1793 -0.0363
87002W        W29915  20.752  16.105  21.092 -0.1892  0.0637 -0.0013
87003W        W29916  17.768   6.654  21.404  0.0245 -0.0993 -0.2936
87004W        W29917  17.954  30.668  23.887 -0.1278 -0.1260 -0.1058
87005W        W29918  13.405  20.585  27.579  0.1232  0.3733  0.2080
87006W        W29919   7.011  16.593  16.232  0.0026  0.1865 -0.0645
87007W        W29920  18.493  14.841  26.900 -0.2202 -0.0608 -0.0619
87008W        W29921  22.436   8.159  21.167  0.1975 -0.0556  0.2148
87009W        W29922  17.656   2.433  17.942 -0.0648  0.0231 -0.3923
87010W        W29923  24.784  15.056  14.853 -0.2243 -0.0261 -0.2077
87011W        W29924  33.696  17.565  14.049  0.0347  0.2287  0.0769
87012W        W29925  17.629  15.126   1.823 -0.1111  0.1690 -0.0752
87013W        W29926  22.599  15.005  20.365  0.3221  0.4416 -0.2992
87014W        W29927  27.516   7.515  21.479  0.0241 -0.1894 -0.0150
87015W        W29928   0.175   4.513  18.188  0.0020  0.0969  0.1406
87016W        W29929   6.490   1.673  20.343  0.1167 -0.0528  0.1707
87017W        W29930  32.241  16.115  28.841  0.0456 -0.2295  0.0617
87018W        W29931  18.894   5.842  23.343 -0.0534  0.1510  0.0109
87019W        W29932  17.727   5.989  20.010  0.0504 -0.0893  0.1064
87020W        W29933  30.159   0.618  26.674 -0.2387 -0.2737  0.0537
87021W        W29934  18.452   7.386  21.894 -0.3627 -0.0488 -0.0816
87022W        W29935   8.810  12.499  19.201 -0.2382 -0.3540 -0.1155
87023W        W29936  20.192   6.316  15.036 -0.3174  0.1063 -0.0841
87024W        W29937  24.744  16.610  24.090  0.0442  0.0149  0.4983
87025W        W29938  21.855  19.399  20.212  0.0495 -0.5775 -0.0273
87026W        W29939  16.947   8.903  25.943 -0.2969 -0.2456 -0.3262
87027W        W29940  11.564   8.745  19.250 -0.2978 -0.2938 -0.0013
87028W        W29941  20.362   4.678  27.711 -0.3677 -0.0764  0.1848
87029W        W29942  15.951   4.663  25.613  0.1226  0.0684 -0.2871
87030W        W29943  16.831   4.054  28.409  0.0459  0.2471  0.1601
87031W        W29944  20.394  12.286  13.333  0.2286  0.2728 -0.0930
87032W        W29945   9.528   3.490   0.116 -0.1430 -0.1440  0.2307
87033W        W29946  30.433   3.264  16.372 -0.0291  0.0023  0.0029
87034W        W29947   6.303  31.651   0.652 -0.0399 -0.1130  0.0522
87035W        W29948   9.320   1.778  26.173  0.0217  0.1939 -0.0223
87036W        W29949   8.138   1.533  26.673 -0.1271 -0.4219 -0.0686
87037W        W29950  31.449   2.573  17.542 -0.0166  0.0424 -0.1242
87038W        W29951   1.739  16.892  14.583  0.0428 -0.2638 -0.2535
87039W        W29952  19.123   5.744  21.544  0.0115 -0.1854  0.1865
87040W        W29953  15.827   0.682  22.709  0.1204  0.0199 -0.4149
87041W        W29954  11.999   6.228   5.629  0.2833  0.0129  0.0874
87042W        W29955  13.413  31.789  24.248  0.4328  0.1768 -0.0312
87043W        W29956  16.998  30.345  20.536 -0.3832  0.1670 -0.0300
87044W        W29957  11.649  14.534   5.701  0.1775  0.1460 -0.0183
87045W        W29958  25.104  17.259  18.500  0.1382  0.0782  0.1582
87046W        W29959  22.254  18.872  13.914  0.0289 -0.0321  0.0384
87047W        W29960  11.185  16.223  17.751 -0.1334 -0.3716 -0.2484
87048W        W29961  29.424  18.012  19.426  0.0341  0.1127  0.1368
87049W        W29962  31.823   4.982  22.522  0.0701  0.0819  0.1872
87050W        W29963  15.363   0.618  29.429  0.2454  0.0797  0.1828
87051W        W29964  25.461  12.029  23.290 -0.2014  0.2305  0.0540
87052W        W29965  27.690  14.236  21.580  0.1775  0.3756 -0.2256
87053W        W29966  15.227   4.416   2.009 -0.0709  0.0981 -0.1467
87054W        W29967  33.105  11.967  15.296 -0.0106  0.0306 -0.0586
87055W        W29968  17.671  16.686   0.830  0.2724  0.0648  0.2670
87056W        W29969  23.391  11.875  14.608 -0.0150 -0.2522  0.0292
87057W        W29970  19.661   3.976  23.469  0.2448 -0.3453 -0.3275
87058W        W29971  14.606   9.995   6.874 -0.0290 -0.0785  0.2250
87059W        W29972  21.094   1.733  24.392 -0.3469  0.1000 -0.1313
87060W        W29973  24.760   9.548  25.168  0.0234 -0.0679  0.2155
87061W        W29974  17.054   1.135  18.964 -0.2140 -0.0624 -0.1417
87062W        W29975  27.052  14.631  23.762 -0.0022 -0.2003 -0.0452
87063W        W29976  29.626   8.281  18.025  0.3348 -0.0156 -0.2220
87064W        W29977  16.372   1.125  22.770 -0.0281  0.2490  0.0676
87065W        W29978  30.182   3.129   0.490 -0.1491  0.2839 -0.0252
87066W        W29979  21.785   3.486   1.711 -0.0069  0.0549  0.1448
87067W        W29980  25.104   9.484  18.608 -0.0132  0.1513 -0.1825
87068W        W29981  19.006  28.719  15.962  0.2263 -0.1468 -0.1999
87069W        W29982  22.712  18.386  12.758  0.2561  0.2931  0.0098
87070W        W29983  14.613  11.282  23.790 -0.0286  0.2738  0.0848
87071W        W29984  16.114  34.076  18.610 -0.0323 -0.0680 -0.2458
87072W        W29985  26.894  13.633  19.364 -0.3618  0.1687 -0.0212
87073W        W29986  22.374   2.968  14.276  0.2627  0.3307 -0.1389
87074W        W29987  27.009  21.932  21.836 -0.1968 -0.0768 -0.2363
87075W        W29988  15.406  33.496  22.176  0.0783  0.2599  0.3403
87076W        W29989  28.097   1.332  20.087  0.2479  0.1079  0.3672
87077W        W29990   0.109  14.656  23.608 -0.1303  0.0494  0.3780
87078W        W29991  15.445  32.046  17.739  0.0794  0.1613  0.1599
87079W        W29992  22.112  32.265  24.064  0.2626 -0.0723 -0.0714
87080W        W29993  26.997  10.073  14.391 -0.1058 -0.3332  0.0417
87081W        W29994  18.470   4.767   6.198  0.0965 -0.2675  0.0494
87082W        W29995  21.763  11.153  23.340 -0.2458 -0.3981  0.1508
87083W        W29996  24.892  11.201  23.808  0.0754 -0.0814  0.1310
87084W        W29997  15.993   0.960  26.327 -0.1282  0.0323 -0.0491
87085W        W29998   6.109  11.012  27.345 -0.3190 -0.0651  0.1161
87086W        W29999  10.045  18.508  24.352  0.0566  0.0084 -0.2911
87087W        W30000  18.122   8.048  14.873 -0.1344 -0.0098  0.1028
87088W        W30001  24.395  14.037   3.123  0.2260 -0.0120 -0.1196
87089W        W30002  23.327   7.452  17.554 -0.1145 -0.0575 -0.0532
87090W        W30003   5.633  10.077   2.831  0.0647  0.1078 -0.2035
87091W        W30004  23.717   9.584  22.444  0.1026  0.0637  0.0034
87092W        W30005  15.618   2.494  20.139  0.3847 -0.2204  0.1927
87093W        W30006   6.541  10.581  28.093 -0.0447 -0.0029  0.1681
87094W        W30007  13.374   3.998   7.853  0.0082  0.0834 -0.0170
87095W        W30008  28.347  16.165  27.370  0.3307 -0.1420  0.0879
87096W        W30009   6.673  19.221  17.138 -0.1220 -0.0474  0.1413
87097W        W30010  11.800  17.526  15.614  0.0769  0.1064  0.1412
87098W        W30011  17.585   4.811  20.667  0.1296  0.0135  0.0141
87099W        W30012  32.078   5.539  28.979 -0.1895  0.3024 -0.1569
87100W        W30013  27.249  10.674   1.912  0.2963 -0.3644  0.1228
87101W        W30014  12.367   8.892  19.006  0.2229 -0.3651 -0.0546
87102W        W30015  19.031  10.882  14.906 -0.1678 -0.0349  0.2046
87103W        W30016  27.080  16.563  18.861  0.0225  0.2039 -0.2720
87104W        W30017  15.099   6.624  19.037 -0.1349  0.0517 -0.0531
87105W        W30018  25.505   8.043  25.145 -0.3782  0.2453 -0.2558
87106W        W30019  31.615  13.644  24.157 -0.1572  0.3298  0.2904
87107W        W30020  28.695  14.403  13.938 -0.0027  0.1202 -0.1408
87108W        W30021  21.794   8.410  14.373  0.1364  0.1135  0.0017
87109W        W30022  17.263   5.839  20.543 -0.1180  0.0870  0.2321
87110W        W30023  21.946  13.082  26.810  0.3028  0.2862  0.0636
87111W        W30024  29.047  11.100  18.529 -0.3441  0.2278 -0.0576
87112W        W30025  25.335   8.672  17.086  0.1505  0.1544  0.3686
87113W        W30026  23.762   7.485  23.999 -0.3011 -0.0154 -0.1024
87114W        W30027  25.336  16.643  16.428 -0.1393  0.1681  0.2821
87115W        W30028  25.044  10.338  26.695 -0.0921  0.2540  0.1675
87116W        W30029  21.927   5.572   9.380  0.2551 -0.2089  0.1944
87117W        W30030  29.030   2.073   7.825  0.0859 -0.1445  0.1297
87118W        W30031  31.788  29.474  27.367  0.0886  0.0899 -0.0368
87119W        W30032  31.180   4.581  21.625 -0.1997 -0.1687  0.1233
87120W        W30033  14.257   1.406  23.908  0.0297 -0.0846 -0.2288
87121W        W30034  14.725  34.115  11.222 -0.0416  0.0708  0.1118
87122W        W30035  15.999   5.626   2.713 -0.0150  0.3042 -0.3607
87123W        W30036  34.295  32.692   0.053  0.0396  0.2466 -0.1536
87124W        W30037   6.156  15.587  22.463  0.0002 -0.1358 -0.0947
87125W        W30038  21.633   1.811  22.792 -0.0580 -0.1236 -0.1034
87126W        W30039  21.015   5.532  18.877  0.0148 -0.5330 -0.1127
87127W        W30040  26.906  12.143  14.342  0.3263 -0.0832  0.3423
87128W        W30041  14.357  30.031  17.766 -0.1699 -0.2494  0.1794
87129W        W30042  20.162   8.095  26.471  0.6017 -0.0484 -0.1134
87130W        W30043   6.380  10.104  20.681  0.3018 -0.1268  0.4475
87131W        W30044  19.890  13.035  23.609 -0.2868  0.3106  0.3966
87132W        W30045  22.538   7.828  20.502 -0.2362  0.1839 -0.3572
87133W        W30046  18.104  27.220  16.225  0.1542  0.2426  0.0279
87134W        W30047  20.407  13.889  13.105 -0.1852  0.3399  0.1592
87135W        W30048  22.096   8.522   1.161  0.0000 -0.0397  0.2659
87136W        W30049  20.939   4.379  25.648 -0.0001 -0.2899  0.0946
87137W        W30050   9.251   8.634   3.003 -0.0540  0.0449  0.2195
87138W        W30051  32.661   6.829  23.083 -0.0419 -0.0471  0.0378
87139W        W30052  21.715   4.607  20.928 -0.0955 -0.1475  0.1679
87140W        W30053  24.715   3.101  16.868 -0.1865  0.4316  0.0359
87141W        W30054  19.668  11.729  23.637  0.1647  0.0832 -0.1879
87142W        W30055  28.050  15.578  17.316  0.1829  0.0839 -0.0636
87143W        W30056   3.438  18.252  19.755 -0.0574 -0.3217 -0.2159
87144W        W30057  13.737   1.472  25.759  0.2650 -0.0025 -0.0471
87145W        W30058  22.675   5.684  15.966 -0.0405 -0.1574 -0.2509
87146W        W30059  31.425   9.631  17.934 -0.1060  0.0943  0.0022
87147W        W30060  14.915   5.125  20.638  0.1258  0.0336 -0.0168
87148W        W30061  17.913   9.499  29.528 -0.0103 -0.0515  0.1553
87149W        W30062  15.562   1.819  25.361  0.0244 -0.0508  0.1355
87150W        W30063  24.796  12.134  28.312  0.3622  0.4373 -0.1729
87151W        W30064  30.300  10.340   6.153  0.2300  0.1062  0.0672
87152W        W30065  32.505  32.510  20.786 -0.1394  0.6471 -0.1781
87153W        W30066  18.213   4.225  27.964 -0.0158  0.0301  0.0872
87154W        W30067  16.445  14.543  15.157 -0.0192  0.4031 -0.1353
87155W        W30068   5.021  11.801  24.732 -0.0975 -0.1959 -0.0535
87156W        W30069  20.561  13.321  25.912 -0.0432 -0.0702 -0.2429
87157W        W30070  27.444   1.090  18.677  0.2120 -0.2146  0.2756
87158W        W30071  21.818  10.820  29.745 -0.0460  0.2503  0.1827
87159W        W30072  25.880  16.917  17.594  0.0618 -0.4532 -0.1536
87160W        W30073  33.656  16.234  29.334 -0.3739 -0.3923  0.0118
87161W        W30074  22.219  10.701  13.192 -0.2116  0.0321 -0.1030
87162W        W30075  12.089   5.954  22.707  0.0081  0.0596 -0.1225
87163W        W30076  22.301   2.161  29.410 -0.0301 -0.2121 -0.0670
87164W        W30077  19.103  14.805  27.175 -0.1246  0.0821  0.2428
87165W        W30078  18.008   4.264  28.755 -0.1614  0.1103  0.0051
87166W        W30079  20.954   8.776  28.630  0.1943  0.1312  0.1763
87167W        W30080  22.932  30.034  26.377  0.0656  0.4735  0.2050
87168W        W30081  13.836  11.655  17.090 -0.1153  0.0755  0.0392
87169W        W30082  14.620  33.657   2.576  0.0241  0.0149 -0.0115
87170W        W30083  10.570  15.882  16.605 -0.2406 -0.0446 -0.1016
87171W        W30084   0.404   4.467  19.869 -0.0025  0.0532 -0.1997
87172W        W30085  21.583  13.439  23.909 -0.1099 -0.3672 -0.2391
87173W        W30086  23.438  14.279   0.874 -0.0380 -0.0594  0.2334
87174W        W30087  22.073   6.483  24.522 -0.0374 -0.0212 -0.0044
87175W        W30088  23.042   0.499  17.132  0.0133  0.0814  0.0470
87176W        W30089  29.028  17.439  24.864  0.0174 -0.0194 -0.0340
87177W        W30090  15.668   1.476  23.659 -0.1841  0.1658 -0.1711
87178W        W30091  17.270  11.824  22.850  0.1770 -0.0018  0.0204
87179W        W30092  23.716  17.216  24.764  0.0474  0.0705 -0.0464
87180W        W30093  23.480   9.246   0.924 -0.0704 -0.1255 -0.1951
87181W        W30094  18.275  13.657  21.017 -0.0530 -0.0509 -0.2807
87182W        W30095  24.554  12.772  19.759 -0.0681  0.1506 -0.2654
87183W        W30096  27.745   2.832  18.549  0.0512 -0.0018 -0.1881
87184W        W30097  14.455  10.637  24.464  0.2861 -0.2192 -0.1922
87185W        W30098  16.733  13.163  22.801 -0.1171  0.0101  0.1102
87186W        W30099  15.731  10.396  23.371 -0.0752  0.2152 -0.0400
87187W        W30100  27.800  10.931  18.328  0.1734  0.0037  0.0177
87188W        W30101  25.691   4.633  17.210 -0.1967 -0.1312  0.0576
87189W        W30102  25.941  14.736  27.015 -0.0494 -0.5092  0.0114
87190W        W30103  25.518  10.179  26.380 -0.2324  0.0391 -0.2285
87191W        W30104  20.299  31.406  19.550 -0.0512 -0.3099 -0.0650
87192W        W30105  13.563   0.852  27.769  0.0867 -0.2177  0.0383
87193W        W30106  12.937   9.436  13.846  0.1198  0.0817 -0.0426
87194W        W30107  14.053   0.283  27.243 -0.1081  0.0057  0.0263
87195W        W30108  24.757   5.827  22.944  0.3079 -0.1497 -0.0587
87196W        W30109  21.887   1.854  29.525 -0.0886  0.4049 -0.0762
87197W        W30110  33.909   0.096  17.649  0.0032 -0.3227 -0.0903
87198W        W30111  10.069   6.841  22.359  0.0536  0.0667 -0.2095
87199W        W30112  21.171   8.081  22.888 -0.1928 -0.4401  0.1227
87200W        W30113  20.329  18.319  11.675 -0.0759 -0.2200 -0.0053
87201W        W30114  16.040   4.242  18.335 -0.4136 -0.2709 -0.2147
87202W        W30115  19.681   2.795  10.364  0.1980  0.0148  0.1576
87203W        W30116  18.018   4.758  16.684  0.1027  0.1056  0.1401
87204W        W30117  17.984   5.619  22.350 -0.2374 -0.1203  0.1914
87205W        W30118  19.613  16.680  22.359 -0.0227  0.1183  0.0301
87206W        W30119  28.236  17.003  22.710  0.3249 -0.1889  0.0641
87207W        W30120  21.234  11.825  16.277  0.0868  0.3333 -0.1389
87208W        W30121  12.501   5.853  28.798 -0.0667  0.0413 -0.2354
87209W        W30122  22.625  10.946  29.395 -0.3158  0.1875  0.0771
87210W        W30123   8.942  13.551  25.013 -0.3665 -0.0666 -0.2265
87211W        W30124  20.298  11.857   4.243  0.1546  0.0523 -0.0179
87212W        W30125  26.732   0.639  25.045 -0.0573  0.3107 -0.0253
87213W        W30126  26.942   6.865  22.979 -0.1530 -0.0220 -0.0121
87214W        W30127  28.154  22.496  18.382 -0.0155 -0.0362 -0.0826
87215W        W30128  24.123  10.967  29.072  0.1200  0.1743 -0.0347
87216W        W30129  27.224  12.250  20.993  0.0056 -0.4544  0.0966
87217W        W30130  22.122   6.582  19.917 -0.1429 -0.1494  0.4198
87218W        W30131  25.440   6.633  25.001 -0.1066  0.2610 -0.2493
87219W        W30132  18.201  32.205  23.499 -0.1463 -0.2322  0.1764
87220W        W30133  22.395   9.661  24.869 -0.1000 -0.1509 -0.0617
87221W        W30134   9.672   0.240  28.966 -0.0528  0.0498 -0.1910
87222W        W30135  24.919  14.930  26.657  0.0016  0.3063 -0.0667
87223W        W30136  18.187   7.678  27.237 -0.0034 -0.1639  0.0349
87224W        W30137  32.350  33.597  26.759 -0.4532 -0.1388 -0.0409
87225W        W30138  14.111  14.797  12.859  0.1978  0.1067  0.1898
87226W        W30139  26.716   8.087  26.752 -0.2609  0.2924  0.0210
87227W        W30140  22.210   5.818  23.761 -0.2415  0.0312 -0.4015
87228W        W30141  30.148  18.941  13.873 -0.0528  0.0689 -0.2494
87229W        W30142  21.507  12.222   4.326 -0.0893  0.2395 -0.2252
87230W        W30143  22.384   0.633  29.328 -0.3693 -0.1843  0.1761
87231W        W30144   4.901   7.708  26.200  0.1102 -0.1383 -0.0318
87232W        W30145  21.645   2.929  18.798 -0.3530  0.1264 -0.1495
87233W        W30146  20.807   8.910  26.174  0.0404  0.1914 -0.3715
87234W        W30147   8.159  11.387  21.612 -0.0322 -0.0754  0.1234
87235W        W30148  29.359  34.065  27.981 -0.0992  0.1936 -0.2532
87236W        W30149  27.672  33.965  21.234  0.1504 -0.3603  0.1571
87237W        W30150  21.989  13.586   6.005  0.1635 -0.0160 -0.0183
87238W        W30151  12.001   4.046  25.479 -0.0657 -0.0505 -0.0384
87239W        W30152  13.661  10.019  27.835 -0.2628 -0.0544  0.0771
87240W        W30153  14.324  31.615  21.731 -0.4505  0.1795  0.2692
87241W        W30154  18.257   6.667  19.980 -0.0407 -0.0282 -0.0402
87242W        W30155  11.659  13.886   6.598  0.0827  0.0971  0.1456
87243W        W30156   6.003   4.426   2.842 -0.1583  0.4340 -0.0891
87244W        W30157  13.366   4.434   5.744 -0.1438 -0.2952 -0.1039
87245W        W30158  16.487   0.025  24.311 -0.4351  0.2285  0.0280
87246W        W30159  29.738  15.081  20.157  0.0476 -0.2983 -0.0932
87247W        W30160  18.709   7.029  22.132 -0.1023  0.1302 -0.2158
87248W        W30161  15.819  16.411  17.105 -0.2088  0.1350 -0.0014
87249W        W30162   8.993   8.008   7.306 -0.1574 -0.0197  0.0941
87250W        W30163  21.186  16.049  21.431  0.0745 -0.0239  0.4561
87251W        W30164  23.527   3.163  19.376  0.2330 -0.0970 -0.1026
87252W        W30165  12.981   5.063  19.004 -0.1850  0.1280 -0.4367
87253W        W30166  13.964   6.246  29.094  0.1273 -0.2188  0.2461
87254W        W30167  18.656   6.950   1.062 -0.4586 -0.2161 -0.2269
87255W        W30168  19.223   8.847  16.537  0.0595 -0.0262 -0.2092
87256W        W30169  19.905  10.325  12.500  0.0277  0.6143  0.1159
87257W        W30170  17.727   8.665  24.657  0.2119 -0.0713 -0.1651
87258W        W30171  16.755   3.278  17.874  0.0482  0.1925  0.0287
87259W        W30172  13.008   8.209  19.776 -0.0178  0.2593 -0.0713
87260W        W30173  20.623  11.902  14.000  0.0365 -0.1319 -0.0328
87261W        W30174  21.817  15.881  22.560 -0.0619 -0.1746 -0.2560
87262W        W30175  21.283   9.794  27.867 -0.3516  0.2034  0.0336
87263W        W30176  20.179  16.212  14.345  0.0163  0.4549  0.2731
87264W        W30177   7.817  20.437  27.952  0.2377 -0.4076  0.0984
87265W        W30178  23.467  29.637  18.517  0.0219 -0.1558  0.2046
87266W        W30179  20.745   1.197   1.843  0.3408 -0.2368  0.2923
87267W        W30180  15.706  10.106  28.490 -0.2566 -0.2609  0.2233
87268W        W30181   4.076   9.328  20.714  0.2680  0.3925  0.2544
87269W        W30182  23.758   5.564  21.085 -0.0329 -0.1591 -0.1388
87270W        W30183  25.259  10.631  21.633  0.0816 -0.1063  0.1889
87271W        W30184  25.639  18.966  15.080 -0.2292 -0.0297  0.1043
87272W        W30185  13.815   8.047   3.221 -0.1053 -0.0889 -0.0315
87273W        W30186   0.893   7.404  19.389  0.0359 -0.0982 -0.6630
87274W        W30187   7.385  31.801   5.858 -0.0184 -0.0680  0.1792
87275W        W30188  24.805   6.034   5.883  0.0500  0.1128  0.2816
87276W        W30189  10.538  21.499  27.208 -0.1772 -0.0758 -0.1855
87277W        W30190  19.757   1.118  24.428  0.2556  0.1636  0.0982
87278W        W30191  27.454  13.437  20.416 -0.0220  0.1238  0.0824
87279W        W30192  18.023   7.363  23.553 -0.1824 -0.2352  0.2069
87280W        W30193  28.990  15.432   1.638 -0.0009  0.0086 -0.2972
87281W        W30194  23.385  11.595  26.199 -0.3039 -0.0185  0.1116
87282W        W30195  14.771   9.824  25.322 -0.0480 -0.0687  0.0686
87283W        W30196  30.020  11.223  21.622 -0.1357 -0.1132 -0.0514
87284W        W30197  28.222   6.782   2.561 -0.0081 -0.2347 -0.2569
87285W        W30198   7.511  13.021  24.223  0.1882 -0.0242 -0.0394
87286W        W30199  12.517   9.121  22.825 -0.0020 -0.0038 -0.0793
87287W        W30200  18.760   9.632   5.435 -0.0058 -0.1479  0.3040
87288W        W30201  28.274   4.073  22.053  0.2829 -0.0082 -0.0173
87289W        W30202  15.538  13.265  18.214 -0.3766  0.0106  0.0785
87290W        W30203  20.895  15.860  14.508 -0.1831  0.3043 -0.0968
87291W        W30204  23.246   7.820  18.434 -0.0222 -0.0227 -0.0307
87292W        W30205  23.377  11.908  17.100  0.1447  0.0931  0.0378
87293W        W30206  18.587   4.041  29.378 -0.2715  0.1327  0.3089
87294W        W30207  16.180   6.075  21.510 -0.1170  0.3101 -0.0849
87295W        W30208   0.536  17.245  26.814  0.0373  0.0783  0.0708
87296W        W30209  25.870  20.186  23.371  0.1130  0.2617  0.0048
87297W        W30210  24.362   4.674  21.515 -0.1331  0.2438  0.1637
87298W        W30211  21.299   7.756  26.907 -0.0068 -0.0457  0.0412
87299W        W30212  15.665   8.859  27.138  0.0424  0.0084 -0.2500
87300W        W30213  18.316  12.885  22.169  0.0445 -0.1291  0.0394
87301W        W30214  23.210   9.129  15.080 -0.0294  0.0532  0.0100
87302W        W30215  18.559  21.961  24.604 -0.1023 -0.3176 -0.2238
87303W        W30216  27.206  22.341  17.122  0.6984  0.2687 -0.0666
87304W        W30217  19.643   5.600  26.478 -0.1730  0.2774  0.1362
87305W        W30218  14.560  12.414  20.156 -0.2953 -0.2235  0.2614
87306W        W30219  23.392  33.730  16.188 -0.0883 -0.1066  0.0521
87307W        W30220  21.758  14.967  29.779  0.2234 -0.4656  0.0830
87308W        W30221  12.814  11.196  26.346 -0.0402 -0.2048 -0.3544
87309W        W30222  21.818   3.023  27.672 -0.1668  0.0383  0.0408
87310W        W30223  23.100  10.790  23.813  0.1956  0.5086  0.1745
87311W        W30224  19.060  17.955  24.148 -0.3171  0.0149 -0.0158
87312W        W30225   7.373   9.707  19.381 -0.0042  0.1661 -0.1513
87313W        W30226  14.604  10.208  13.461  0.0550 -0.0458  0.1034
87314W        W30227  22.834  14.596  19.518 -0.3974  0.1228  0.0851
87315W        W30228  21.200   4.306  15.159  0.1474  0.0312 -0.2538
87316W        W30229  24.640   5.446   2.962 -0.1478 -0.2355 -0.0848
87317W        W30230  26.141  10.742  25.106  0.2542  0.1196  0.0285
87318W        W30231  26.906  10.727  13.565  0.0146  0.2909 -0.2326
87319W        W30232  27.422   9.488  24.147 -0.0135 -0.1450 -0.1098
87320W        W30233  12.868  32.982   3.511  0.0389 -0.0940 -0.2073
87321W        W30234   9.496  10.187  21.984  0.0731  0.1517 -0.1837
87322W        W30235  20.344   1.383   4.393  0.0794 -0.0611 -0.1462
87323W        W30236  24.696   6.854  28.766  0.1031 -0.2021 -0.1548
87324W        W30237  16.234  32.592  28.993 -0.1114 -0.1715 -0.5050
87325W        W30238  12.294  15.760  20.561  0.0829 -0.1507 -0.2302
87326W        W30239  19.047  15.013  29.169  0.0097  0.1603  0.0681
87327W        W30240  29.033  11.584  19.545  0.1438  0.1269 -0.0040
87328W        W30241  19.326   0.450  17.667  0.3640 -0.0975  0.0923
87329W        W30242  28.163  14.090  22.338 -0.0535 -0.1085 -0.1182
87330W        W30243  19.575   4.755  21.625  0.1379  0.0532  0.1892
87331W        W30244  22.032  22.198  15.487  0.1589 -0.4721 -0.1004
87332W        W30245  22.845  29.880  29.075  0.1995 -0.0020 -0.3659
87333W        W30246   8.422   7.792  11.814 -0.2767  0.1626 -0.1071
87334W        W30247  24.211   7.997  28.329  0.2818 -0.3062 -0.0105
87335W        W30248  22.075   6.894  19.526  0.1995 -0.2617 -0.1205
87336W        W30249  18.111   1.032  18.740  0.1366  0.0080 -0.0382
87337W        W30250  28.024   3.702  26.907 -0.2094  0.3696 -0.0292
87338W        W30251  25.117   4.847   4.776 -0.2210 -0.0881 -0.2582
87339W        W30252  19.498   7.141  23.728 -0.0799  0.4190  0.1005
87340W        W30253  10.779   6.333  23.724  0.1527 -0.0490  0.2232
87341W        W30254  12.634  10.171  28.429 -0.0264  0.0778 -0.1737
87342W        W30255  20.901  15.786  20.646 -0.0678 -0.3443 -0.1330
87343W        W30256  23.730   9.569   6.229  0.1334  0.2548 -0.0141
87344W        W30257  27.498   3.645  23.954  0.1658 -0.3343 -0.1815
87345W        W30258  14.408  33.512  17.087  0.0414 -0.2416  0.1145
87346W        W30259  21.763  34.381  29.563 -0.2593 -0.3939 -0.1665
87347W        W30260  29.466   5.100  25.173  0.3000 -0.1316  0.1761
87348W        W30261  21.657   4.165   0.886  0.1545 -0.3188 -0.0696
87349W        W30262   8.836  12.868  17.815 -0.0211  0.4183 -0.1260
87350W        W30263  20.750   7.167  14.572 -0.2810  0.1954 -0.2784
87351W        W30264  18.115   1.500  24.552  0.0106 -0.2193 -0.0003
87352W        W30265  26.960   2.874  28.452  0.1240  0.1646 -0.1609
87353W        W30266  28.054  22.471  22.434 -0.0732 -0.4041  0.1112
87354W        W30267  18.251  32.427  21.104 -0.1008  0.4755  0.1795
87355W        W30268  30.569   1.854  21.350 -0.1451 -0.2433  0.2414
87356W        W30269  24.460   9.597   0.472  0.3826 -0.4208  0.0861
87357W        W30270  13.744   4.132  22.956  0.3425  0.1158  0.2910
87358W        W30271  26.641  13.907  17.809  0.0884 -0.1429 -0.0256
87359W        W30272  21.830  12.534  22.855  0.0884 -0.2149  0.0100
87360W        W30273  15.675   6.724  22.955 -0.0864  0.1621 -0.1787
87361W        W30274  26.140  10.072  24.077 -0.1868 -0.0170 -0.1491
87362W        W30275  19.297  10.181  24.503  0.3307 -0.2536 -0.1857
87363W        W30276  25.972  19.882  16.639  0.1670 -0.3255 -0.2958
87364W        W30277  20.672   6.990  21.832  0.1017 -0.1983  0.3956
87365W        W30278  24.042   1.592  16.986  0.0113 -0.1232  0.5161
87366W        W30279  10.090   9.241  19.926 -0.3914 -0.0619 -0.1432
87367W        W30280  24.127   9.426  21.568  0.1410  0.1458  0.1299
87368W        W30281  25.720  10.901  18.944 -0.0844  0.1854 -0.0953
87369W        W30282  16.855   6.368  26.860  0.2466  0.1311  0.3806
87370W        W30283  13.597   7.320  24.886  0.0655  0.1172 -0.0240
87371W        W30284  19.521   7.425  26.849 -0.0877 -0.1120  0.0605
87372W        W30285  27.951  16.782  16.751 -0.2320  0.1888  0.1841
87373W        W30286  21.706   8.783  29.250 -0.0148 -0.0482 -0.1731
87374W        W30287   9.719  17.682  18.238  0.0341  0.1584 -0.1663
87375W        W30288  16.066   7.988  18.417  0.2607  0.1723  0.1859
87376W        W30289   5.017   1.658   1.984 -0.0543 -0.1057  0.0901
87377W        W30290  24.398  17.435  15.495  0.0179  0.1166 -0.0062
87378W        W30291  22.748   9.759  18.528  0.0323  0.1578  0.2438
87379W        W30292  19.149   7.962   4.151 -0.0074 -0.2556  0.2740
87380W        W30293  17.370   3.278   2.770  0.1043 -0.0350  0.1495
87381W        W30294   8.818   9.804  20.865  0.2133  0.0525 -0.1058
87382W        W30295  10.211   2.379  18.644  0.0605 -0.1600  0.0252
87383W        W30296  26.149  21.772  16.241  0.0448 -0.1547 -0.3034
87384W        W30297  17.668   6.735   5.528 -0.0765  0.0185 -0.0011
87385W        W30298  22.848   3.553  20.817  0.2020 -0.1728 -0.4515
87386W        W30299  13.063   9.642   0.672 -0.2940 -0.0782 -0.1981
87387W        W30300  23.761   8.253  21.044  0.3254  0.1443 -0.2682
87388W        W30301  21.286   6.079   8.961  0.2913  0.0093 -0.0679
87389W        W30302  18.171  11.390  15.045  0.3790 -0.0711  0.2215
87390W        W30303  24.583   5.103  22.033  0.0812  0.1844 -0.0024
87391W        W30304  15.861   8.982   3.394 -0.1250  0.2628  0.1896
87392W        W30305  14.191  31.495  22.927 -0.2142  0.1008 -0.2521
87393W        W30306  17.016  33.054   3.926 -0.3028 -0.1253 -0.2060
87394W        W30307  29.129  16.095  23.774 -0.3383 -0.2281  0.1197
87395W        W30308  17.841   6.062   4.830 -0.0921 -0.0729 -0.0266
87396W        W30309  21.974   9.024   4.240 -0.1019  0.3458  0.1727
87397W        W30310  13.534   0.348  20.699  0.0369  0.1064  0.0310
87398W        W30311  15.297   8.206   0.131  0.1889 -0.2074  0.2494
87399W        W30312  30.379   1.174  24.946  0.0276  0.0419  0.2425
87400W        W30313  18.227  13.978   1.733  0.3665 -0.1328  0.2509
87401W        W30314   4.119   4.008  17.784  0.0077  0.1666 -0.0100
87402W        W30315  16.367   1.047  16.409 -0.0617  0.1185 -0.1186
87403W        W30316  22.388  33.364   8.178 -0.1624 -0.1911  0.2125
87404W        W30317  21.959   1.707   5.357 -0.1875 -0.1892 -0.1762
87405W        W30318  22.629  15.480  19.853  0.0860  0.4784  0.0304
87406W        W30319  18.942  12.555  22.017 -0.0012  0.2360 -0.1063
87407W        W30320  18.565  13.967   7.676 -0.2683 -0.2278 -0.0218
87408W        W30321   8.956   9.772  28.631 -0.0338 -0.2766  0.3461
87409W        W30322   9.982   7.165  26.869 -0.2885 -0.2818 -0.0073
87410W        W30323  25.229   9.077  17.356 -0.2350 -0.2242  0.0776
87411W        W30324  19.328   1.037  28.758 -0.2170 -0.3003 -0.0308
87412W        W30325  19.409   1.962  20.844 -0.1290 -0.2556  0.3604
87413W        W30326  19.232   9.728  19.981 -0.1185  0.0571 -0.0075
87414W        W30327  13.217   6.110  21.018 -0.0792  0.1491 -0.0715
87415W        W30328  17.931  12.699  25.018  0.1925  0.0179  0.0651
87416W        W30329  26.611   9.693   8.735  0.1450  0.3684 -0.0515
87417W        W30330  17.291  19.589  23.731  0.0961 -0.2398 -0.1874
87418W        W30331  21.470  10.439   4.366  0.0352 -0.1181 -0.0605
87419W        W30332  16.026  10.925  27.903  0.2824  0.0659  0.2479
87420W        W30333  26.144   4.388  18.692  0.0685  0.0621 -0.0749
87421W        W30334   6.898  11.471   3.397 -0.0177  0.0870  0.1472
87422W        W30335  13.958   3.463  19.098 -0.1583  0.0761  0.0551
87423W        W30336  16.962  15.283  13.515 -0.0120 -0.2186 -0.0661
87424W        W30337  11.245   9.671  16.770 -0.2169  0.2408  0.0998
87425W        W30338  20.251   6.880  23.059  0.1272  0.2016  0.1508
87426W        W30339  16.059   6.596  25.778  0.2144 -0.1588 -0.2642
87427W        W30340  12.364   4.704   0.518  0.0246  0.0045  0.0935
87428W        W30341  15.212   8.599  21.885  0.2540  0.1228  0.2034
87429W        W30342  20.587  29.941  28.877  0.1258  0.1821 -0.1449
87430W        W30343  19.285   0.102   5.726 -0.2903  0.4074  0.0676
87431W        W30344  24.330   5.729   9.350  0.3206 -0.1265 -0.0189
87432W        W30345  12.459   7.116  21.159 -0.1033 -0.0458  0.0952
87433W        W30346  20.058  12.870   5.786 -0.2104  0.1114 -0.4703
87434W        W30347  11.906   9.934  17.557 -0.3999  0.0437 -0.2026
87435W        W30348  18.830  16.416  25.729  0.0451 -0.0181 -0.1767
87436W        W30349  19.556   8.051  28.686 -0.3140  0.0970  0.1683
87437W        W30350  18.749  15.891  22.021 -0.1919  0.2906 -0.2116
87438W        W30351  12.712  13.891  22.063  0.0140  0.2681 -0.3509
87439W        W30352   3.506   6.106  26.074  0.1714 -0.0925 -0.3527
87440W        W30353   4.982   7.872  27.561  0.0604 -0.0328  0.1109
87441W        W30354  18.403   8.580  23.532 -0.0725 -0.1523  0.5762
87442W        W30355  22.803  12.952  25.688  0.0788  0.0540  0.2651
87443W        W30356  24.286   8.186   4.562  0.2179  0.0255  0.2966
87444W        W30357  29.473   2.721   0.037 -0.4398 -0.2800  0.1369
87445W        W30358  13.841  10.866  22.029 -0.1439  0.1645  0.1078
87446W        W30359   8.134  14.608  19.420  0.0587 -0.1268 -0.1034
87447W        W30360  33.226  29.960  15.120  0.0937 -0.0364  0.2327
87448W        W30361  19.149  28.659  16.830  0.2659 -0.1677 -0.1389
87449W        W30362  13.641  29.291  28.859  0.0550 -0.3737 -0.0041
87450W        W30363  30.577   4.994   4.194  0.3948  0.0444  0.0246
87451W        W30364  21.988   7.484  29.742  0.1606  0.0178  0.2465
87452W        W30365  13.536   6.507  21.178  0.1248 -0.4287  0.0312
87453W        W30366  25.845   4.982   2.931 -0.1046 -0.2461 -0.1139
87454W        W30367  19.795   3.372  22.346 -0.3102 -0.1547  0.1709
87455W        W30368   7.475   1.382   3.816 -0.0200 -0.1075  0.0585
87456W        W30369  23.886   5.076   3.755  0.2156 -0.0163  0.0317
87457W        W30370  19.803  13.644  22.465  0.1725 -0.1337  0.1145
87458W        W30371  21.833  13.448  25.997  0.1337 -0.0418  0.1876
87459W        W30372  16.299  18.378  23.990 -0.2789  0.2904 -0.1759
87460W        W30373  23.328   5.946  20.076  0.0520 -0.0100 -0.1470
87461W        W30374  20.035  11.321   8.521 -0.2318 -0.0051 -0.0439
87462W        W30375  19.836  11.280   2.216 -0.0386 -0.0754 -0.0193
87463W        W30376  19.205   7.946  22.311  0.1482  0.0706 -0.0289
87464W        W30377  24.723  11.036   4.632 -0.2164 -0.1491 -0.3062
87465W        W30378  21.220  17.565  23.357  0.0350 -0.0573  0.2879
87466W        W30379   9.840  11.183  26.077  0.1158  0.3126 -0.0619
87467W        W30380  30.345  16.039   3.573  0.1734 -0.0597  0.1857
87468W        W30381  30.676  14.736  25.637  0.2950 -0.0889  0.0517
87469W        W30382  15.185   0.727  17.319 -0.2818  0.0762  0.4782
87470W        W30383  15.258  12.029  22.219  0.0049 -0.0885  0.1479
87471W        W30384  14.045   1.765   5.888 -0.1953 -0.3026  0.2361
87472W        W30385  14.647   0.811  21.797  0.0421 -0.1483 -0.2499
87473W        W30386  16.331  10.811  14.724 -0.2229  0.1743 -0.1059
87474W        W30387  12.154   2.536  26.113 -0.0663 -0.2019  0.3436
87475W        W30388  20.918  18.105   3.119  0.1991 -0.0060 -0.2667
87476W        W30389  21.893   8.092   5.892 -0.2771  0.0195  0.1209
87477W        W30390  12.640  12.332  28.694 -0.2228 -0.3893  0.0723
87478W        W30391  17.087   8.904  27.653 -0.1283 -0.0832 -0.1386
87479W        W30392  16.399   7.303  27.390 -0.0296 -0.0487  0.2828
87480W        W30393  10.966  11.537  27.053  0.1657  0.1930  0.2342
87481W        W30394  22.956  28.931   3.080  0.0424  0.0063 -0.3507
87482W        W30395  21.866   6.729  22.812  0.3701 -0.4727 -0.0914
87483W        W30396  18.173  10.438   6.016 -0.2370  0.0315 -0.4475
87484W        W30397   5.712  33.337  23.053  0.2590  0.0854  0.1340
87485W        W30398  10.798  15.939   3.207 -0.1492 -0.1751 -0.0357
87486W        W30399  13.917   6.894   1.484 -0.2943 -0.0435 -0.1737
87487W        W30400  20.430   4.696   8.299 -0.0855 -0.2174 -0.1157
87488W        W30401  27.921  11.997  27.561  0.0957  0.3811  0.0071
87489W        W30402  16.022  12.220   2.690  0.3164 -0.0892  0.1032
87490W        W30403  14.480   8.416  14.803 -0.1329  0.0761  0.1523
87491W        W30404  14.623  31.787  28.338  0.1388  0.1012  0.1840
87492W        W30405  18.605   6.035   3.315 -0.2641  0.1096 -0.1576
87493W        W30406  21.935   3.924  18.708 -0.2001  0.1711 -0.1774
87494W        W30407  14.933  12.224  18.979  0.0842 -0.1158 -0.3143
87495W        W30408  18.503  31.919   1.063 -0.0516  0.1392  0.0586
87496W        W30409  15.772  33.303  29.668 -0.0629  0.2695  0.2851
87497W        W30410   7.557   8.380  22.807  0.0084 -0.0650  0.1548
87498W        W30411  24.341  14.826   2.501  0.0929 -0.1838 -0.0444
87499W        W30412  25.299   5.240  24.721 -0.1436  0.1220 -0.3463
87500W        W30413  19.060   9.182  20.619  0.0304 -0.1029 -0.1825
87501W        W30414  16.383   0.053   9.498  0.3011  0.1243 -0.1451
87502W        W30415  24.055  18.876  27.803  0.3150  0.1163  0.1220
87503W        W30416  10.746  13.149  18.222 -0.0803  0.3097  0.2070
87504W        W30417  14.139   7.709   8.914 -0.1762  0.1685 -0.1688
87505W        W30418  26.207  25.919  28.057  0.2944 -0.0745  0.2431
87506W        W30419  15.367  11.000  28.927  0.1256  0.0944 -0.3208
87507W        W30420  16.800   3.477   6.606  0.1961 -0.0619 -0.0590
87508W        W30421  20.920  18.076  29.770 -0.1907 -0.1072 -0.0615
87509W        W30422   6.233  10.215  29.043  0.1250  0.1520 -0.0057
87510W        W30423  10.421  19.045   0.578 -0.3553 -0.2885 -0.0205
87511W        W30424  19.628  15.602  24.265 -0.0676  0.1342 -0.0777
87512W        W30425  15.235   4.352  22.091 -0.1219  0.2649  0.2695
87513W        W30426  21.055  33.798  29.324  0.1499  0.2363  0.0090
87514W        W30427  19.561  15.889  22.672  0.1187 -0.0716 -0.1329
87515W        W30428  28.860   7.535  27.721 -0.1682 -0.2737  0.0025
87516W        W30429  14.944   8.962   3.376 -0.1125  0.1701 -0.1207
87517W        W30430  16.272  30.278  21.521  0.1721 -0.0973 -0.0026
87518W        W30431  27.083   4.259  28.659 -0.4446 -0.1712  0.3645
87519W        W30432  18.724   3.904  26.234  0.1261 -0.1641  0.3582
87520W        W30433   9.930   8.692  19.525 -0.1605 -0.0440 -0.0290
87521W        W30434  13.020   8.843  23.514 -0.0310  0.1950  0.2941
87522W        W30435  20.910  15.712  25.908 -0.3076  0.0076 -0.0372
87523W        W30436  15.432   6.104   1.739 -0.1547 -0.3231  0.2645
87524W        W30437  27.844  10.573  29.465 -0.2984  0.1644 -0.0333
87525W        W30438  24.215  17.991  29.497  0.2104 -0.0791  0.0388
87526W        W30439  12.935   8.421  25.274  0.3015  0.0433  0.2440
87527W        W30440  14.782   7.664  15.488 -0.0570  0.1257  0.1460
87528W        W30441  13.724   5.386  24.426 -0.1027 -0.0076  0.4586
87529W        W30442  22.715  13.159  29.719  0.0026  0.1646 -0.0279
87530W        W30443  15.729  23.613  19.844  0.3750  0.0840  0.4124
87531W        W30444  25.799  13.744   0.093  0.1010 -0.2962 -0.1797
87532W        W30445  18.231   1.977  25.984  0.2729  0.0406 -0.1664
87533W        W30446  25.198   8.969   5.347  0.0079 -0.2869  0.0846
87534W        W30447  26.675   5.236   5.528 -0.3265  0.4247 -0.3768
87535W        W30448  16.522   4.864   1.394 -0.0523  0.0033 -0.1800
87536W        W30449  15.354  11.812  29.321 -0.0304 -0.6830 -0.3554
87537W        W30450  23.397   6.909  21.787 -0.0719  0.0383 -0.1835
87538W        W30451  11.602   8.583  21.870 -0.0201  0.1812 -0.0211
87539W        W30452  21.084   5.737  19.997  0.2193  0.1597 -0.1300
87540W        W30453  34.271  11.001   0.547  0.3376 -0.2294 -0.1357
87541W        W30454  19.103  31.388  24.717  0.1834 -0.1373  0.0508
87542W        W30455  31.919   2.766  28.649  0.1064  0.0655 -0.0551
87543W        W30456  19.505   7.824   6.523 -0.1573  0.0743 -0.0421
87544W        W30457  24.695  18.557  29.399  0.1588 -0.0438  0.0445
87545W        W30458   7.261   6.710  21.789  0.0368  0.1477 -0.2996
87546W        W30459  16.802   2.324  15.727  0.1058  0.2424 -0.3468
87547W        W30460  18.074  11.560  29.051  0.2698 -0.1780  0.0689
87548W        W30461  10.258  33.016   1.460  0.2546 -0.0289 -0.2729
87549W        W30462  17.318   7.834   0.491  0.3233 -0.3007  0.1019
87550W        W30463  16.802   3.524  16.977  0.2634  0.3329 -0.2417
87551W        W30464  17.649  16.459   5.022 -0.2264  0.1298 -0.0232
87552W        W30465  20.194  10.630   6.303 -0.0384 -0.0723 -0.2604
87553W        W30466  27.683  32.990  23.052 -0.0697 -0.0109 -0.2449
87554W        W30467  15.749   9.886   6.876  0.1271  0.0846  0.0567
87555W        W30468  13.682   9.782  20.772  0.0238 -0.1292  0.1242
87556W        W30469  17.416  31.770  21.389 -0.1021  0.1450  0.1390
87557W        W30470  24.994  21.752  27.817  0.2425  0.0351 -0.0650
87558W        W30471  18.686  15.104  29.465 -0.0245 -0.1315 -0.0836
87559W        W30472  21.341  10.742  23.581 -0.0666 -0.0469 -0.0912
87560W        W30473  22.447   3.313   7.744  0.0718  0.0451 -0.0254
87561W        W30474  31.775   2.473  10.440  0.2964  0.0589 -0.0625
87562W        W30475  13.167  15.081  15.022  0.1598 -0.0650  0.3463
87563W        W30476  26.785  30.317   1.360 -0.0942  0.1168  0.1092
87564W        W30477  22.751   1.561  26.928  0.3743 -0.3472  0.0399
87565W        W30478  22.817  16.879   1.511 -0.0875 -0.2321  0.2824
87566W        W30479  14.426   9.444  27.642  0.1215 -0.1199  0.1422
87567W        W30480  13.466   8.037  23.432 -0.1498  0.2037 -0.1313
87568W        W30481   6.155   8.612   1.046 -0.0143 -0.2562 -0.0437
87569W        W30482  13.341   4.615  27.109 -0.0836  0.5307 -0.0199
87570W        W30483   0.908   1.249   8.800  0.0893 -0.0060  0.2814
87571W        W30484  21.061  11.558   2.999  0.0015  0.0821  0.1533
87572W        W30485  24.939  19.025  27.520 -0.3282 -0.1775  0.2191
87573W        W30486  13.748   6.738  23.121 -0.0544 -0.0038 -0.0475
87574W        W30487  17.567  29.148  24.069  0.0091  0.1686  0.1402
87575W        W30488  12.189   7.699  26.354 -0.4642 -0.5765 -0.0831
87576W        W30489  17.132  10.281  27.289 -0.2245  0.0514 -0.1988
87577W        W30490  21.606   2.264  20.402 -0.1532  0.0240  0.0362
87578W        W30491  22.018   4.098  25.121  0.0293 -0.0687  0.1854
87579W        W30492  21.946  12.825  27.232 -0.2445  0.3178 -0.5196
87580W        W30493  15.026  16.238  29.598 -0.3074  0.0697  0.3543
87581W        W30494  23.258   2.269  16.028  0.1505 -0.0790 -0.0053
87582W        W30495  32.854   7.725   7.894 -0.0176 -0.1264  0.0519
87583W        W30496  19.350   4.085  18.163 -0.1693  0.0568  0.1239
87584W        W30497  29.745   4.447  22.728 -0.0355 -0.0049  0.3807
87585W        W30498  23.707  12.834  25.269 -0.2681 -0.4254  0.3121
87586W        W30499  13.771  11.166  23.470 -0.0195 -0.3332  0.0812
87587W        W30500  24.394  33.009  19.380  0.0806 -0.0856 -0.0750
87588W        W30501  19.223   3.916   3.557 -0.7314 -0.0638  0.0830
87589W        W30502  21.927  14.962  19.128 -0.3076  0.2026  0.0685
87590W        W30503  18.127   9.002  26.405 -0.2205  0.0934  0.1022
87591W        W30504  22.525   7.771  24.507  0.3257 -0.0061 -0.2247
87592W        W30505  27.506  31.321  18.239 -0.2628  0.2111 -0.1580
87593W        W30506  13.284  32.878  21.058  0.0698  0.0096  0.0413
87594W        W30507  19.821  32.015   4.309 -0.0370 -0.2856 -0.0919
87595W        W30508  16.952   8.955   1.124  0.1577  0.0833  0.1416
87596W        W30509  24.350   3.710  26.094  0.2138  0.0246 -0.3457
87597W        W30510  23.362  14.143   7.103  0.0814 -0.1497 -0.1684
87598W        W30511  24.360  32.540  27.507  0.0604 -0.3727  0.1955
87599W        W30512  16.956   6.736  20.146  0.1569 -0.1002  0.0815
87600W        W30513  29.527   3.428   1.659  0.0673  0.2714 -0.3820
87601W        W30514  21.148   1.211   0.310 -0.1174  0.0334  0.0753
87602W        W30515  17.895  13.528  21.338  0.0092  0.1991  0.0415
87603W        W30516  20.522   6.763  22.684  0.1531 -0.1245  0.2002
87604W        W30517  17.554   9.210  22.471 -0.1891  0.0013  0.2106
87605W        W30518  26.459   1.187  26.252  0.0667 -0.1019  0.1747
87606W        W30519  20.763  17.159  24.060 -0.1044  0.2237 -0.0143
87607W        W30520  28.415  12.951  29.572 -0.0051  0.1563 -0.0438
87608W        W30521   9.455  10.181  28.610  0.2500  0.2980 -0.1030
87609W        W30522  12.931  11.482  15.374  0.1116  0.0695  0.0936
87610W        W30523  16.727  29.654   1.349 -0.1258  0.1429  0.2917
87611W        W30524  24.507  14.814  23.432  0.2605 -0.1267 -0.0226
87612W        W30525  24.316  10.418  26.114  0.0485 -0.5176 -0.1225
87613W        W30526  29.136  30.970  19.967 -0.1864  0.0162  0.1165
87614W        W30527  24.364  14.210   0.561  0.1809  0.0906  0.2310
87615W        W30528  19.393   8.434   0.784  0.1356 -0.0735 -0.0999
87616W        W30529  23.305   0.720  27.572  0.1763 -0.1578  0.1135
87617W        W30530  15.616  10.241  15.144 -0.2694  0.1162  0.1606
87618W        W30531  15.570   9.903  24.929 -0.1632  0.0399 -0.4476
87619W        W30532  16.938  16.363  23.155  0.0776  0.0259  0.1130
87620W        W30533  22.356   5.347  21.388 -0.0833  0.2246 -0.1125
87621W        W30534  13.388  34.210  22.227  0.1607 -0.0150  0.4203
87622W        W30535  28.705   5.691  25.545  0.0894 -0.1648  0.0340
87623W        W30536  15.587  28.679   0.531  0.3291  0.0112  0.0319
87624W        W30537  22.079   3.478  27.540 -0.1361  0.2708 -0.0646
87625W        W30538  15.478   6.254  28.910 -0.2570 -0.1762  0.2129
87626W        W30539  24.407   3.289   9.163  0.2657  0.1308  0.1041
87627W        W30540  27.462   9.472  29.209  0.3067 -0.0647  0.0552
87628W        W30541  17.731  13.958  24.342 -0.3358 -0.0083  0.1422
87629W        W30542  12.669  14.097  18.713  0.2189 -0.0944  0.1219
87630W        W30543  17.010   7.724  21.230 -0.0733 -0.0759  0.1705
87631W        W30544  28.667  20.708  27.604  0.0352 -0.1146 -0.0238
87632W        W30545  23.473   6.686   3.157  0.1897  0.2640 -0.0029
87633W        W30546  17.092   0.386   9.208  0.0756 -0.1838  0.4253
87634W        W30547  28.656   5.925  28.679  0.0630 -0.1318 -0.3733
87635W        W30548  20.696   9.935  16.928 -0.2413 -0.0301  0.0407
87636W        W30549  13.989   2.485  16.963  0.1780 -0.1743 -0.2062
87637W        W30550  21.692  27.627  16.715  0.0943 -0.2074 -0.0623
87638W        W30551  10.326   9.573   8.394 -0.2152  0.0546  0.2260
87639W        W30552  19.669  10.470   0.723  0.1096 -0.2304 -0.0511
87640W        W30553  14.935   3.099   7.368  0.0204  0.0308  0.3145
87641W        W30554  18.780  13.551  28.611  0.1299 -0.0222 -0.0151
87642W        W30555  17.317   0.841   9.172 -0.1875  0.0826  0.1214
87643W        W30556  20.527  18.851   4.335  0.0661 -0.1267  0.0629
87644W        W30557  16.896  15.902   0.483  0.3076 -0.0355 -0.2814
87645W        W30558  24.695  18.304  26.808  0.0210 -0.4933 -0.2153
87646W        W30559  12.236  17.163  18.447  0.1970 -0.1435 -0.1784
87647W        W30560  12.291   9.863  19.549  0.0430 -0.1809  0.0529
87648W        W30561   8.435   9.710   6.870 -0.2194 -0.1561  0.0010
87649W        W30562  11.279   2.394  27.505  0.2530  0.0932 -0.0562
87650W        W30563  16.430  17.125  14.498  0.2584 -0.4760  0.2052
87651W        W30564   5.825  10.678   1.487 -0.0335  0.2595  0.2298
87652W        W30565  25.313   9.309   8.261  0.2358  0.0403  0.0403
87653W        W30566  12.541  10.476   1.345 -0.2557  0.5257 -0.1295
87654W        W30567  25.666   4.710  27.225  0.2952  0.0013  0.1664
87655W        W30568   2.975   5.310   1.820  0.0096  0.0767 -0.0282
87656W        W30569  16.081   4.078  26.493  0.2331 -0.0974  0.2300
87657W        W30570  24.645  22.119  22.461  0.2505  0.0145  0.0315
87658W        W30571  23.966   8.819  17.690  0.0733  0.0411 -0.0469
87659W        W30572  25.912   9.109  26.302 -0.5062  0.1518 -0.0379
87660W        W30573  17.510  34.370   0.138  0.2640 -0.2003  0.1973
87661W        W30574  27.252   7.767  24.428 -0.2177 -0.1527  0.0052
87662W        W30575  27.538   5.511   4.915  0.3893  0.2361  0.0919
87663W        W30576  20.510  11.712  12.879 -0.2672  0.1268  0.2327
87664W        W30577  30.301   5.514  22.351  0.0072  0.1094  0.0882
87665W        W30578  23.216   3.238  26.700  0.1408  0.1947 -0.1212
87666W        W30579  18.010   2.090  10.356  0.0589  0.2715 -0.2820
87667W        W30580  19.129  34.298  26.570 -0.0699  0.2085 -0.0315
87668W        W30581  17.145   3.280  27.852 -0.0170  0.0572 -0.3741
87669W        W30582  27.261  14.445  16.263  0.4944  0.3611  0.0139
87670W        W30583  26.304   2.764   3.449  0.2373 -0.1323 -0.1962
87671W        W30584  11.568   8.434  24.878  0.0924 -0.2486 -0.1201
87672W        W30585  19.319   1.887   4.708  0.1460  0.0799 -0.2446
87673W        W30586  13.999  22.479   4.933  0.2941  0.0645 -0.1679
87674W        W30587  10.698  31.985   0.045  0.1504 -0.0381 -0.3373
87675W        W30588  24.907  16.759   1.114  0.0905  0.0446  0.1151
87676W        W30589   9.536  23.366   6.712 -0.3933 -0.4370 -0.2185
87677W        W30590   3.643   7.055  26.270  0.0482 -0.0456 -0.0280
87678W        W30591  20.734  10.695  24.675 -0.0231 -0.0938  0.2321
87679W        W30592  19.264   2.048  17.682 -0.2104 -0.1011 -0.0735
87680W        W30593  19.451   9.640  22.185 -0.1853  0.1161  0.2693
87681W        W30594  23.057   9.871   5.617  0.0008 -0.1780  0.1794
87682W        W30595  25.466  32.863  21.117  0.1471  0.4140  0.2412
87683W        W30596   1.300  14.011  24.369 -0.0414  0.0346  0.0574
87684W        W30597  18.345  34.191   0.729 -0.0831  0.1469 -0.2252
87685W        W30598  20.801   8.729   5.762  0.4124 -0.0293  0.0488
87686W        W30599  19.757  27.032  22.615  0.0892  0.1036 -0.3343
87687W        W30600  10.159  10.295  25.958 -0.5413  0.0367  0.2042
87688W        W30601  13.625  14.021  19.166 -0.0928  0.0826  0.3773
87689W        W30602  31.135   8.251  25.055  0.0941  0.2089 -0.4367
87690W        W30603  22.012   4.620  22.137  0.1330 -0.2960 -0.0619
87691W        W30604  20.925  13.915  25.218 -0.1394 -0.1265  0.1717
87692W        W30605  15.798  10.041   2.792  0.0655  0.3668  0.0130
87693W        W30606  21.643  13.702   6.337 -0.0376  0.0422  0.0019
87694W        W30607  25.873   8.261   1.103 -0.2041 -0.2045  0.1795
87695W        W30608  21.011   7.545   3.640  0.0117 -0.0868  0.1035
87696W        W30609  14.444   1.453  22.691  0.1783 -0.1907  0.0171
87697W        W30610  22.362   8.905  28.651  0.3286 -0.2001  0.3909
87698W        W30611  23.719   5.786   8.023  0.1998  0.0905  0.1651
87699W        W30612  21.328   4.801  15.243  0.0492  0.2269  0.0246
87700W        W30613  17.475  12.606  19.698  0.0827 -0.1845  0.0403
87701W        W30614  28.449   8.485  28.552 -0.0528  0.1981 -0.0202
87702W        W30615  19.604  18.084   4.836  0.0357  0.0403 -0.2989
87703W        W30616  21.949  12.702  28.968  0.0659 -0.2354  0.2331
87704W        W30617   5.512   2.298   9.290 -0.1981  0.1451 -0.4510
87705W        W30618  16.959   8.772  29.409 -0.1075 -0.2698  0.1577
87706W        W30619  20.399   8.312  28.608  0.2240 -0.0172  0.3115
87707W        W30620  24.235   6.827   2.058  0.0816 -0.1655  0.1375
87708W        W30621  20.461  14.068  28.651 -0.0597 -0.4793  0.0708
87709W        W30622  13.738  13.633  19.475 -0.1937 -0.1498  0.1463
87710W        W30623  21.657  19.676   4.997  0.2245 -0.0954 -0.1082
87711W        W30624  14.058   8.394  29.653  0.0897  0.0210  0.0402
87712W        W30625  23.458  17.346   4.456  0.1656 -0.0201  0.0724
87713W        W30626  12.610   3.383   1.215 -0.0203 -0.2176  0.1861
87714W        W30627  20.011  32.493   9.731 -0.0449 -0.0480  0.0418
87715W        W30628  10.416  34.117  21.473 -0.3446  0.2753  0.0904
87716W        W30629  13.746   0.457   5.432  0.0139  0.0131 -0.2648
87717W        W30630  13.072   7.331  11.310 -0.0518 -0.1926 -0.0386
87718W        W30631  20.814   0.536   3.394 -0.3202  0.0493  0.2393
87719W        W30632  25.967  14.812  23.921  0.1105  0.2320 -0.1075
87720W        W30633  22.684  13.852  21.848  0.0102  0.1575  0.4736
87721W        W30634  14.896  15.603  15.795 -0.1371 -0.0600 -0.1202
87722W        W30635  18.184  24.354  24.425 -0.0357 -0.1689  0.3251
87723W        W30636  21.165  10.257  21.473 -0.2017 -0.1406 -0.1624
87724W        W30637  18.508  10.603  25.928  0.1128  0.2561  0.0341
87725W        W30638  24.945   5.478  26.798  0.0416  0.2021  0.1835
87726W        W30639  23.816  13.529   0.773  0.0295 -0.2528  0.0890
87727W        W30640  16.000   3.148   0.827 -0.2979 -0.3200  0.0410
87728W        W30641  19.920   4.810  18.360 -0.3725  0.0101  0.1562
87729W        W30642  14.125   3.007  24.342  0.0046  0.0919  0.3315
87730W        W30643  23.742  11.704  18.977  0.1059 -0.1078 -0.0821
87731W        W30644  12.077  10.685  16.355  0.0701  0.1889 -0.0917
87732W        W30645  16.869   5.379   1.916 -0.1337 -0.3941  0.1591
87733W        W30646  23.977   9.409  13.322  0.0943  0.0677  0.3130
87734W        W30647  20.978  10.668  25.147 -0.2783  0.1135  0.1145
87735W        W30648  27.372   3.137  23.041 -0.1108  0.0056  0.1833
87736W        W30649  26.231   3.650  21.153  0.1023  0.1157  0.1353
87737W        W30650  32.197   8.836   3.648 -0.1816 -0.1996  0.0312
87738W        W30651  23.044  15.048   1.671 -0.0331 -0.1519 -0.4593
87739W        W30652  14.721   8.919   6.526 -0.1373 -0.0885  0.1520
87740W        W30653  16.101  15.013  15.805 -0.0143  0.1416  0.0075
87741W        W30654  23.644  33.714  24.215 -0.4638  0.2997  0.3296
87742W        W30655  19.227   2.495  21.829 -0.0248 -0.2258 -0.2161
87743W        W30656  11.227  10.423   3.146  0.0309  0.2337  0.1861
87744W        W30657  20.798  15.891  20.140  0.0256  0.2198 -0.1941
87745W        W30658  22.843  26.141   6.068 -0.2199  0.1121  0.3672
87746W        W30659  22.694   2.095  19.334 -0.0840  0.1664  0.0551
87747W        W30660  16.136   4.887  20.125 -0.1560 -0.1199 -0.0648
87748W        W30661  17.395   7.556  23.436 -0.2949 -0.1279  0.1527
87749W        W30662  18.102  15.000  26.632 -0.2473  0.2765 -0.0386
87750W        W30663   1.221  19.663   1.156  0.2043  0.0549  0.1336
87751W        W30664  17.134  12.945   3.673 -0.0962 -0.0368  0.2128
87752W        W30665  18.592   5.034   3.251  0.0513  0.3787 -0.2701
87753W        W30666   9.335   4.152   9.872  0.0835 -0.0907 -0.0062
87754W        W30667  13.807  22.690  29.576 -0.1623 -0.0684 -0.2062
87755W        W30668  18.717   7.411  28.903  0.0159 -0.3297  0.2976
87756W        W30669  11.193   8.732   1.696  0.1906 -0.0265  0.1456
87757W        W30670  25.061   2.395  29.253  0.0758  0.1310  0.1799
87758W        W30671  13.538   7.247  21.721  0.1261  0.2054 -0.0266
87759W        W30672  10.559  33.851   5.200  0.1281 -0.0366 -0.0700
87760W        W30673  16.763   3.224  15.442 -0.0543 -0.0388  0.3032
87761W        W30674  22.903  12.105   5.107  0.3374  0.0620  0.2157
87762W        W30675  25.921   7.128  27.152  0.1781  0.1364  0.0219
87763W        W30676  23.189   5.372   3.524 -0.1443  0.1885  0.0246
87764W        W30677  18.094   5.761  25.954 -0.1911 -0.1110  0.1226
87765W        W30678  21.736   1.802   1.846  0.2525  0.0079  0.2293
87766W        W30679  23.715  10.967  21.742 -0.0781  0.0585 -0.1051
87767W        W30680  15.748  16.472   7.532  0.1922 -0.0521  0.4612
87768W        W30681  25.345   9.682  20.700  0.2086 -0.0807  0.1036
87769W        W30682  20.582   9.188  19.437 -0.1672  0.1991  0.0466
87770W        W30683  12.035  13.289   3.052 -0.0545 -0.2630 -0.2549
87771W        W30684  21.533   2.650   0.184 -0.1433  0.0700 -0.2904
87772W        W30685  25.535  24.456   0.591 -0.0205  0.1786 -0.0525
87773W        W30686  28.051   9.111  21.680 -0.0269  0.1440  0.4712
87774W        W30687  12.787  11.527  22.717  0.2455  0.0263  0.1834
87775W        W30688   9.466  11.078  28.015 -0.3080  0.1171  0.0791
87776W        W30689  15.346   1.947  21.414 -0.1787  0.2299  0.0519
87777W        W30690  25.294  20.783  13.773  0.0873 -0.3085 -0.0037
87778W        W30691   9.431  11.324   1.110 -0.0076 -0.0026 -0.2344
87779W        W30692  16.118  14.551  27.984 -0.4200  0.0238 -0.0207
87780W        W30693   4.195  27.170  18.424  0.0103  0.0669  0.2025
87781W        W30694   2.594  15.265  28.512 -0.2463  0.0580 -0.1404
87782W        W30695  14.775   9.464  23.496  0.1054 -0.0682 -0.1423
87783W        W30696  13.905   3.317  26.628 -0.0920 -0.1195  0.1685
87784W        W30697  24.960   8.487   8.173  0.0320 -0.1251 -0.3083
87785W        W30698  15.445  15.190   5.710 -0.3116  0.0215 -0.1239
87786W        W30699  23.005   5.324  22.699  0.0191 -0.2561  0.3015
87787W        W30700  16.839  13.537  17.901 -0.2027 -0.0995 -0.2148
87788W        W30701  22.418  18.216  24.069  0.0229 -0.3599 -0.0571
87789W        W30702  11.604  11.267   5.376  0.0139  0.1328  0.0309
87790W        W30703  13.443  27.970  28.817 -0.1955  0.0077  0.4133
87791W        W30704  12.142   5.891  29.768  0.0158 -0.3841  0.0022
87792W        W30705   1.374   8.294  29.596 -0.0465  0.1773 -0.1395
87793W        W30706  12.528  18.110  18.392 -0.0421  0.0475 -0.1642
87794W        W30707  24.713  23.480  25.712  0.1133 -0.1558 -0.0818
87795W        W30708  16.594   1.308  19.396 -0.0786 -0.0882  0.4748
87796W        W30709  22.104  31.724   4.344 -0.4261 -0.4430  0.1257
87797W        W30710  17.710   8.548   4.979  0.2966  0.2574  0.2602
87798W        W30711  22.882   5.856   2.301 -0.0177 -0.1836  0.0095
87799W        W30712  12.266   9.480   1.694  0.1918 -0.0347 -0.2771
87800W        W30713  19.849   5.745   3.688  0.0063 -0.2022 -0.1229
87801W        W30714  18.745  11.553   6.000 -0.2136  0.0056  0.1761
87802W        W30715  11.956   4.888   6.127 -0.1715  0.0091 -0.2436
87803W        W30716  21.261   9.410   5.022 -0.1237 -0.1428 -0.0986
87804W        W30717  33.081   3.751   6.503 -0.0103  0.0905 -0.0488
87805W        W30718  20.020  22.066  24.724 -0.3315  0.3083 -0.0097
87806W        W30719  12.645  33.518   6.162  0.1673 -0.1003  0.1929
87807W        W30720  17.129   1.963   3.615 -0.0038  0.0256  0.1278
87808W        W30721  15.724   8.820   0.916 -0.2767 -0.4703  0.0475
87809W        W30722   9.374   9.370   1.894 -0.1250  0.1398  0.3068
87810W        W30723  14.780   4.252  20.405 -0.1492 -0.1747  0.0958
87811W        W30724  14.892   2.926  29.106  0.1820  0.2323  0.1119
87812W        W30725  18.256   3.391  28.758  0.1329  0.0864 -0.0871
87813W        W30726   8.936   0.394  29.662 -0.1931  0.1547  0.5769
87814W        W30727  21.197  17.978   1.617  0.2954 -0.2440 -0.1817
87815W        W30728  22.867   7.312   0.163 -0.1286  0.2589 -0.0750
87816W        W30729  16.727   4.169  24.514  0.0551  0.1452  0.0454
87817W        W30730  14.219   7.889   8.413  0.0065 -0.0338 -0.0309
87818W        W30731  25.890   6.560   4.290 -0.2956 -0.1274  0.0761
87819W        W30732   1.932   7.234  23.522  0.1747  0.0510  0.1981
87820W        W30733  19.704   3.519   3.417 -0.0601 -0.2589 -0.1358
87821W        W30734  12.836   8.167  29.612  0.4929  0.2032  0.1146
87822W        W30735  20.991  28.106   7.577  0.3394  0.0215  0.0687
87823W        W30736  19.452  13.383   6.111  0.0804  0.0969 -0.1751
87824W        W30737  14.993   1.179   7.375 -0.1872 -0.2080 -0.2103
87825W        W30738  17.117   2.474   3.905 -0.1143  0.1933 -0.1388
87826W        W30739   9.086  17.751  28.154  0.4597 -0.3289  0.3731
87827W        W30740  17.060  12.334  19.898  0.0029  0.1874  0.0353
87828W        W30741  12.431  10.620   2.524  0.2494  0.1124  0.2402
87829W        W30742  24.994   4.397  29.707 -0.2909  0.0158 -0.3243
87830W        W30743  10.994  32.829   6.206  0.0482 -0.1793 -0.1504
87831W        W30744  20.813   9.249   3.632 -0.0002 -0.0267 -0.2795
87832W        W30745  12.994   1.582   4.028 -0.0419 -0.1782  0.0789
87833W        W30746  19.101   7.282  23.435 -0.0123 -0.3027  0.1879
87834W        W30747   9.842   5.250  28.742 -0.2716  0.2393  0.1621
87835W        W30748  22.209   7.169   0.235  0.2704 -0.1869 -0.1761
87836W        W30749  13.265   5.049  23.816  0.0003 -0.1695 -0.0701
87837W        W30750  21.491   1.418  19.702  0.0081  0.1804  0.3031
87838W        W30751  20.288   7.686  22.968 -0.1708 -0.2517  0.2638
87839W        W30752  18.990  19.493   1.209 -0.2841 -0.0258  0.1355
87840W        W30753  12.534  15.206   6.248  0.3470 -0.0777 -0.1109
87841W        W30754  21.414  11.756  23.959 -0.3475 -0.2290  0.3399
87842W        W30755  26.181   1.881   2.415  0.2973  0.0429  0.3483
87843W        W30756  25.018  14.630  16.577 -0.2213  0.1503  0.2261
87844W        W30757  15.944  10.392  27.638 -0.0882 -0.0562  0.0966
87845W        W30758   9.622  12.896  15.251  0.4044  0.0211 -0.0341
87846W        W30759  21.319  10.939  14.220 -0.0751  0.6140 -0.0872
87847W        W30760  24.453  24.427  21.445 -0.0539 -0.2125  0.2622
87848W        W30761  13.464  16.551  14.519  0.1393  0.0348  0.1675
87849W        W30762  21.068  16.219  13.490 -0.1196 -0.1083 -0.0245
87850W        W30763  19.972  13.330  17.681  0.2314 -0.1243 -0.0361
87851W        W30764  21.968  12.409  18.268 -0.0780 -0.0636  0.3202
87852W        W30765  14.491  22.917  15.362  0.0533 -0.1458 -0.0974
87853W        W30766  22.337  17.102  16.728 -0.1234  0.0575 -0.0261
87854W        W30767   9.370   7.588  19.698 -0.2084  0.1510 -0.1888
87855W        W30768  31.440  22.263  15.189  0.1187  0.1027  0.1481
87856W        W30769  17.160   4.177  19.790  0.0808 -0.1040 -0.0987
87857W        W30770  25.811   5.288  27.213  0.2635  0.3696 -0.2028
87858W        W30771  24.021   0.885  28.419  0.0172 -0.0812  0.2439
87859W        W30772  30.682   8.723  20.255 -0.0598 -0.0276  0.1406
87860W        W30773  25.034  14.762  22.790  0.0090  0.2829  0.1843
87861W        W30774  21.804   5.650  24.027  0.1663  0.2417 -0.2126
87862W        W30775  28.567  19.649  13.787  0.2308  0.2061  0.0161
87863W        W30776  24.123  25.988  20.822 -0.0380 -0.1907 -0.1773
87864W        W30777  18.608   8.849  14.636 -0.0994  0.1075  0.0622
87865W        W30778   8.052   8.808  18.936  0.1845 -0.4962  0.3210
87866W        W30779  14.105  15.534  16.149 -0.1848 -0.0412  0.1856
87867W        W30780  18.774   9.721  19.800 -0.1543 -0.0881 -0.2041
87868W        W30781  16.557   9.805  15.476 -0.3830 -0.0097 -0.1280
87869W        W30782  23.128  13.429  15.523 -0.0300  0.2095  0.2064
87870W        W30783  23.562  21.293  15.219 -0.2768 -0.0494 -0.1562
87871W        W30784  20.462   6.173  17.923 -0.1100  0.0498 -0.1374
87872W        W30785  10.130  15.690  23.535  0.0132 -0.4152  0.0652
87873W        W30786  16.695  21.636  16.624 -0.4132 -0.0023  0.1371
87874W        W30787  32.094  14.441  19.175  0.1149  0.0664 -0.0801
87875W        W30788  28.231  23.442  16.203  0.0567 -0.0999 -0.5038
87876W        W30789   9.802  15.173  22.464  0.1152  0.1412 -0.2096
87877W        W30790  24.392  15.340  15.083 -0.2189  0.0710  0.2317
87878W        W30791  24.252  15.693  23.363 -0.0400  0.2359 -0.0467
87879W        W30792  13.757  22.182  22.207  0.0382 -0.2012  0.0225
87880W        W30793  22.824  12.939  21.496  0.0019  0.1002 -0.0350
87881W        W30794  29.276  14.117  22.685  0.0871  0.2056 -0.0318
87882W        W30795  24.824  22.545  18.592 -0.0155  0.1541  0.0169
87883W        W30796  26.580  17.592  13.974  0.0948 -0.0357  0.0638
87884W        W30797  25.899  14.503  22.893 -0.0327  0.2366  0.2840
87885W        W30798  10.121  16.501  20.034 -0.0477  0.0918 -0.0818
87886W        W30799  14.625   6.029  19.077 -0.0683 -0.2200 -0.0984
87887W        W30800  33.380  14.719  14.858  0.4016 -0.1587  0.0143
87888W        W30801  23.341  21.032  18.132 -0.3342 -0.2006 -0.0352
87889W        W30802  21.591  16.213  13.916 -0.0560  0.2791 -0.0648
87890W        W30803  16.602   4.042  20.135 -0.0452 -0.0879 -0.1815
87891W        W30804  24.828  12.729  21.803  0.1903 -0.0664 -0.1702
87892W        W30805  24.600   9.687  17.683  0.0333 -0.0459  0.2443
87893W        W30806  16.118   5.580  23.084 -0.0384  0.0725  0.4765
87894W        W30807   2.302   9.048  21.486 -0.0145 -0.0671  0.1853
87895W        W30808  26.957  12.800  18.887  0.1312 -0.0435 -0.1514
87896W        W30809  24.241  16.535  22.173 -0.1634 -0.2224 -0.1795
87897W        W30810  26.227  19.187  16.309 -0.2023  0.1795  0.0570
87898W        W30811  12.487   4.880  18.992  0.3325  0.2367  0.2228
87899W        W30812  19.266   9.793  25.306  0.0752  0.1510 -0.2117
87900W        W30813  20.066   7.473  18.607 -0.1040  0.2002 -0.2380
87901W        W30814  21.861  15.740  13.063  0.0944  0.1319  0.1000
87902W        W30815  33.058  26.253  13.987  0.4947 -0.0428 -0.2137
87903W        W30816  12.177  19.486  21.696  0.1442 -0.1707 -0.1940
87904W        W30817  21.648  15.827  20.251 -0.2278 -0.1980  0.3763
87905W        W30818  14.266  17.876  12.438  0.0576 -0.3468 -0.0004
87906W        W30819  30.468  12.052  15.549  0.0457 -0.1605 -0.0245
87907W        W30820  18.845  21.842  14.043  0.1330 -0.0009  0.1377
87908W        W30821  17.532  13.074  25.596  0.1873  0.1845 -0.0436
87909W        W30822  22.173  13.521  15.230 -0.2260  0.2663 -0.5208
87910W        W30823  20.766  20.867  19.563 -0.0358  0.2589 -0.0512
87911W        W30824  24.746  14.982  19.249 -0.5262 -0.0032  0.0799
87912W        W30825  27.175  11.576  15.973  0.2048  0.0806 -0.3026
87913W        W30826  21.491  24.864  15.900 -0.1531 -0.2079 -0.3170
87914W        W30827   9.821   8.928  25.577 -0.1798  0.0646 -0.0677
87915W        W30828  24.797  20.273  16.326 -0.1410 -0.0790 -0.1845
87916W        W30829  21.339  13.645  25.191 -0.1431 -0.0841  0.0056
87917W        W30830  26.242  14.907  15.494  0.2990  0.3701  0.2603
87918W        W30831  16.068   7.093  15.194 -0.2406  0.0067 -0.0698
87919W        W30832  19.642  11.451  13.383 -0.0298  0.3709  0.1783
87920W        W30833  17.902  10.415  14.615  0.1669  0.0096  0.1466
87921W        W30834   0.530   3.261  16.972 -0.1083  0.0076  0.2260
87922W        W30835  16.486   6.811  18.093 -0.0329  0.0295  0.0374
87923W        W30836  26.287  10.020  16.468  0.2116 -0.2449  0.0542
87924W        W30837  17.195  19.519  15.333 -0.1577  0.4086 -0.0713
87925W        W30838  23.905  13.137  23.515 -0.0344  0.1794 -0.3419
87926W        W30839  21.634   6.689  15.379  0.2435  0.1208  0.0926
87927W        W30840   8.189  20.297  15.045 -0.0380 -0.0554  0.0532
87928W        W30841  15.343  12.917  17.933  0.1019 -0.1959 -0.3447
87929W        W30842  10.857  16.574  15.829 -0.0526 -0.0022  0.1132
87930W        W30843  25.389  10.395  22.419 -0.1549  0.1691 -0.0644
87931W        W30844   8.562   5.790  17.598 -0.2964 -0.2925  0.0780
87932W        W30845  21.735   7.058  18.657  0.0530 -0.1088  0.2646
87933W        W30846  13.198   7.790  16.826  0.3000 -0.0716 -0.1503
87934W        W30847  21.470  11.416  17.151 -0.2827  0.3846  0.0521
87935W        W30848  27.156  22.126  19.936 -0.2527 -0.0270  0.4141
87936W        W30849  22.008  21.371  22.250  0.1431  0.0297  0.0236
87937W        W30850  22.534  14.253  25.081 -0.2467 -0.0305 -0.1326
87938W        W30851  12.256  17.219  20.324  0.1000  0.0250  0.3174
87939W        W30852  11.447  11.456  16.159  0.3379  0.1363  0.2530
87940W        W30853  17.287   9.996  17.012  0.0039  0.1156 -0.0350
87941W        W30854  33.493  22.291  27.764 -0.0420  0.0363 -0.3426
87942W        W30855  18.607   4.025  14.952 -0.2801 -0.0176 -0.0392
87943W        W30856  11.540  11.531  18.968 -0.0742 -0.0756 -0.0676
87944W        W30857  19.874  16.650  12.738 -0.1170 -0.0872  0.2071
87945W        W30858  21.799   6.082  26.069  0.0058  0.0514 -0.0887
87946W        W30859  26.785  10.228  14.935 -0.1303 -0.1180 -0.0130
87947W        W30860  19.252  19.040  13.850 -0.0726 -0.0834  0.1307
87948W        W30861  23.456  22.258  12.903  0.2897 -0.0628  0.3599
87949W        W30862  23.770  17.910  13.764 -0.1185  0.0181 -0.1483
87950W        W30863  24.273  17.529  14.342 -0.0465 -0.2686 -0.0455
87951W        W30864  23.962  19.899  13.817 -0.0825 -0.0080 -0.3411
87952W        W30865  11.013  15.663  18.142  0.1876 -0.0894 -0.0900
87953W        W30866  10.932  17.731  13.025  0.0078 -0.1061  0.0187
87954W        W30867  19.136   4.562  18.106 -0.2514  0.1813  0.0969
87955W        W30868  27.931  23.316  20.011 -0.1188 -0.1370 -0.2083
87956W        W30869  25.313  10.669  15.062  0.0470 -0.0048 -0.0442
87957W        W30870  21.118  11.537  22.721 -0.0599  0.1890  0.1625
87958W        W30871  22.634  13.350  25.204 -0.0302 -0.0858  0.0081
87959W        W30872   8.494  11.894  19.323  0.1263  0.3381 -0.1813
87960W        W30873  27.390  20.035  26.417 -0.0635  0.0491  0.1994
87961W        W30874  22.267   9.242  20.332  0.4980 -0.0082  0.0041
87962W        W30875  32.241   7.915  18.032 -0.3780 -0.0899 -0.1275
87963W        W30876  27.907  23.266  17.206  0.1016 -0.3044  0.0513
87964W        W30877   9.193  13.381  28.229  0.0805  0.0361  0.0476
87965W        W30878  17.783   3.107  26.071  0.4058 -0.1184 -0.1774
87966W        W30879  14.158  15.059  14.740 -0.0088  0.1937 -0.1292
87967W        W30880  14.933  17.416  15.224 -0.3096  0.1457  0.4642
87968W        W30881  18.132   0.963  26.190 -0.3745 -0.1066 -0.0176
87969W        W30882  25.150  13.300  21.308 -0.1767 -0.1922 -0.2048
87970W        W30883  13.671   4.400  17.221 -0.1130  0.1525  0.0630
87971W        W30884  25.573  26.989  17.709 -0.2385 -0.2979 -0.1549
87972W        W30885  15.465  20.945  12.883 -0.0257  0.0512  0.0789
87973W        W30886  29.814   8.951  15.999 -0.1384 -0.0180 -0.0576
87974W        W30887  27.077   4.394  22.765 -0.2783 -0.1058  0.0704
87975W        W30888  10.218   9.802  16.915  0.0900 -0.2207 -0.1822
87976W        W30889  24.331   8.490  17.491  0.0755 -0.2303  0.0548
87977W        W30890  18.621   7.182  17.727  0.0414 -0.0291  0.2404
87978W        W30891  19.077   7.938  21.771 -0.2190  0.2043  0.2775
87979W        W30892  14.245  15.077  12.376 -0.3567  0.0583 -0.1510
87980W        W30893   1.385  10.986  16.993 -0.2243  0.2185  0.2686
87981W        W30894  16.280  12.131  15.157 -0.1016  0.2691  0.1948
87982W        W30895  23.005  17.171  16.962  0.1336 -0.0636 -0.1135
87983W        W30896  25.681  24.201  18.550 -0.0765  0.1790  0.1718
87984W        W30897  16.395  19.368  15.654  0.1346 -0.0887  0.0069
87985W        W30898  20.150   8.954  28.222 -0.3551  0.3190 -0.1938
87986W        W30899  15.293  24.090  18.856  0.0291  0.2448  0.2767
87987W        W30900  13.733   6.741  15.900 -0.1690  0.1559 -0.0393
87988W        W30901  26.858   5.358  14.627  0.0532  0.1223 -0.4421
87989W        W30902  24.133  11.675  17.545 -0.1397 -0.1204 -0.1104
87990W        W30903   8.448  19.368  16.303 -0.1833 -0.0459  0.1283
87991W        W30904  10.350  12.147  16.969 -0.1456  0.4171 -0.2338
87992W        W30905   5.140  22.404  21.072  0.2957 -0.1059 -0.0746
87993W        W30906  21.045  24.469  14.672 -0.2149  0.0739 -0.1860
87994W        W30907   9.248  18.527  24.010  0.1147 -0.3210 -0.0378
87995W        W30908  15.899   8.577  14.138  0.0374  0.0534 -0.1580
87996W        W30909  21.377  16.651  16.517 -0.2864 -0.3191 -0.1657
87997W        W30910  17.851   8.914  15.187 -0.1795 -0.0844  0.3081
87998W        W30911  25.590   4.169  21.098 -0.4049 -0.1393 -0.4515
87999W        W30912  16.880  15.724  13.348 -0.0140 -0.1652 -0.2313
88000W        W30913  18.809   5.938  24.625  0.1208  0.1710 -0.0060
88001W        W30914  20.641  21.714  13.814 -0.1288  0.2909 -0.2043
88002W        W30915  15.626  21.807  18.810  0.1918 -0.1647  0.0650
88003W        W30916  20.266  11.240  19.988 -0.0980 -0.1456  0.0208
88004W        W30917  25.314  14.840  24.697 -0.1415 -0.2032  0.0868
88005W        W30918  29.798  22.748   0.173  0.0836 -0.1282 -0.0025
88006W        W30919  24.696   7.419  25.204 -0.1577 -0.0240 -0.2005
88007W        W30920  13.157  20.535  15.350 -0.4759 -0.2023  0.0445
88008W        W30921  12.188  16.741  23.351 -0.4205 -0.0183 -0.3422
88009W        W30922   6.227   4.869  19.985 -0.0855 -0.1226 -0.1451
88010W        W30923  29.499  16.873  18.556 -0.1006  0.2943  0.0200
88011W        W30924  20.419  17.444  14.155 -0.2245 -0.0929  0.1300
88012W        W30925  28.706   9.293  14.579  0.3284 -0.1756 -0.1952
88013W        W30926  11.383  17.322  19.466 -0.0385  0.0744  0.3244
88014W        W30927  32.723  16.092   3.560  0.1700  0.1991  0.1071
88015W        W30928  29.084  11.920  19.153 -0.0707  0.0281 -0.0328
88016W        W30929  19.992  14.281  13.873 -0.0448  0.0785 -0.0821
88017W        W30930  18.909  11.115  13.436 -0.3186 -0.1204  0.3271
88018W        W30931   4.054  10.440  22.641  0.2137  0.2670 -0.0634
88019W        W30932  18.299   4.995  15.450 -0.1227  0.1487 -0.1396
88020W        W30933  25.412   9.950  18.875  0.1629 -0.3076  0.1972
88021W        W30934  21.437  13.059  14.005 -0.1194  0.1284  0.0783
88022W        W30935  28.842   4.264  22.868 -0.3134  0.0164  0.2032
88023W        W30936  31.191   7.308  20.232  0.0273  0.1808 -0.0911
88024W        W30937  31.063  10.147  14.738 -0.1272  0.1248  0.0527
88025W        W30938  14.857   5.907  15.100 -0.1314 -0.1391 -0.0974
88026W        W30939  12.196  18.218  13.028 -0.0719 -0.3507 -0.0628
88027W        W30940  26.556  16.823  14.550 -0.1263  0.1597  0.3191
88028W        W30941  15.038   9.965  13.493 -0.2073 -0.2062 -0.1113
88029W        W30942  18.142  12.186  15.818  0.0368  0.2503 -0.0528
88030W        W30943  21.354   2.103  15.440  0.1132  0.4256  0.0669
88031W        W30944  10.315  15.866  15.973  0.0358 -0.0717  0.3509
88032W        W30945  30.756  15.451  21.530  0.0484 -0.2696  0.2783
88033W        W30946  19.469   1.983  24.632  0.3492 -0.2228 -0.3022
88034W        W30947  25.676  20.318  16.984  0.1055  0.1230 -0.0391
88035W        W30948  18.018  11.966  13.922  0.3202 -0.4350  0.4969
88036W        W30949  22.233  17.759  28.438 -0.4150  0.0628  0.0268
88037W        W30950  15.196  11.759  14.381 -0.1346  0.2347  0.0429
88038W        W30951  11.665  16.810  21.624 -0.0021 -0.1634 -0.0010
88039W        W30952  25.979  13.570  15.465 -0.0275  0.0997 -0.0110
88040W        W30953  20.088  18.425  13.069  0.2366  0.1831 -0.0110
88041W        W30954  24.636  15.476  12.686 -0.1785  0.0509 -0.0816
88042W        W30955  23.829  14.279  12.822 -0.0962  0.0534 -0.0809
88043W        W30956  14.478  11.041  13.735  0.1484 -0.2346  0.0683
88044W        W30957  28.308  11.228  17.181  0.0882 -0.2390 -0.0036
88045W        W30958  20.100  14.252  16.058 -0.2364 -0.0336 -0.1290
88046W        W30959  15.506  17.878  13.023  0.0180 -0.3581  0.1495
88047W        W30960  10.651   1.356  20.040  0.3343  0.1088  0.1940
88048W        W30961  24.919   9.578  13.565 -0.3286 -0.1801 -0.1859
88049W        W30962  12.767   9.791  15.388 -0.1019 -0.3808  0.1057
88050W        W30963  21.544   9.990  15.235  0.0925 -0.2024 -0.1776
88051W        W30964  29.077  15.302  18.858 -0.0711  0.1276  0.1815
88052W        W30965  13.513  15.041  13.633 -0.2078  0.0467  0.2595
88053W        W30966  13.057  14.421  21.923 -0.4813  0.1128  0.1980
88054W        W30967  22.874   6.330  15.983  0.0821 -0.0721  0.1098
88055W        W30968  20.265  25.990  18.525 -0.1414  0.0845 -0.0488
88056W        W30969  17.703   6.484  15.667 -0.2006  0.1398 -0.1988
88057W        W30970  13.649  19.068  15.629 -0.0068  0.0647 -0.3817
88058W        W30971  18.991  12.578  12.202 -0.1026 -0.0075 -0.2571
88059W        W30972  26.469   6.570  18.618  0.3901  0.3099  0.1090
88060W        W30973  26.049  22.449  17.098  0.1041  0.1731  0.0929
88061W        W30974  16.113   6.813  18.466  0.2184 -0.0593 -0.0715
88062W        W30975  18.513  11.855  13.719 -0.0382 -0.1261 -0.0334
88063W        W30976  13.773  33.405  20.293  0.2443  0.0427 -0.4265
88064W        W30977  25.594   4.806  19.542 -0.0564  0.2636 -0.0728
88065W        W30978  14.133  13.512  12.341  0.1403 -0.0492 -0.0120
88066W        W30979  17.223   4.771  19.027 -0.2152 -0.1800  0.2800
88067W        W30980  18.196   9.777  13.443 -0.2352  0.1236 -0.0366
88068W        W30981  15.390  13.562  15.417 -0.3830 -0.2489 -0.1262
88069W        W30982  26.980  10.485  18.137  0.1696 -0.4354  0.3989
88070W        W30983  10.548  18.154  16.919  0.1474  0.1477  0.2715
88071W        W30984  23.430   1.030  20.034  0.0078  0.2504 -0.1993
88072W        W30985  28.860  24.024  15.105 -0.0799 -0.0384 -0.1383
88073W        W30986  20.513   8.359  20.127 -0.0290  0.1641 -0.3471
88074W        W30987  23.503  14.327  16.361  0.0890 -0.1511  0.0537
88075W        W30988  10.446  12.725  18.101  0.0733  0.0352 -0.2220
88076W        W30989  23.749   9.435  21.229  0.2079  0.0312  0.0105
88077W        W30990  11.217  15.041  14.306 -0.2313  0.2666 -0.0559
88078W        W30991  19.838   7.074  20.945  0.2000 -0.1446 -0.0428
88079W        W30992  21.602  10.367  14.103 -0.0823 -0.0522  0.0749
88080W        W30993  11.395  10.522  19.239 -0.0408 -0.0182 -0.0143
88081W        W30994  12.271   3.865  16.791 -0.4389 -0.3179 -0.1248
88082W        W30995   5.639  12.621  15.242  0.2169 -0.0956 -0.1863
88083W        W30996  29.434  16.558  14.743  0.2116  0.1621 -0.0182
88084W        W30997  27.087   8.625  16.850  0.2432  0.0973  0.0444
88085W        W30998  34.300  12.977  16.635  0.4946 -0.0101  0.1668
88086W        W30999  24.814   9.686  18.949 -0.1858  0.0362 -0.5121
88087W        W31000   4.227  16.440  16.224 -0.2309  0.2623  0.2346
88088W        W31001  13.897  10.573  15.385 -0.2113  0.0786  0.0499
88089W        W31002  23.152  11.476  14.896  0.0420  0.3531 -0.2064
88090W        W31003  12.560  14.243  15.473 -0.0342  0.0282 -0.0290
88091W        W31004  16.969  13.514  11.501 -0.3806  0.2882 -0.1272
88092W        W31005  15.055  12.058  24.467  0.2840  0.1555  0.2904
88093W        W31006  23.081  19.913  25.266 -0.0799 -0.1089 -0.2221
88094W        W31007  13.087  12.437  16.949  0.2137 -0.0036 -0.0952
88095W        W31008  19.151   5.780  15.933 -0.0471 -0.1615 -0.0502
88096W        W31009  24.271  14.784  13.267 -0.2784  0.1441  0.1266
88097W        W31010  27.571  17.036  15.783  0.0293 -0.4979  0.0514
88098W        W31011  16.784  15.325  13.047 -0.0146  0.0376 -0.0925
88099W        W31012  25.737  21.726  15.958  0.0220 -0.1379 -0.0342
88100W        W31013  14.846  22.079  19.062 -0.1071  0.1905  0.0933
88101W        W31014  14.576   8.766  28.582 -0.0243  0.1710  0.0691
88102W        W31015  19.960   9.731  14.001 -0.2068 -0.1710 -0.0075
88103W        W31016  18.705   0.723  24.869 -0.0734  0.2855  0.0394
88104W        W31017  26.061  18.381  18.928  0.2435 -0.3118  0.1871
88105W        W31018  20.016   1.507  27.693  0.1576 -0.1014 -0.1740
88106W        W31019  15.471  33.706  24.790 -0.0816  0.1112 -0.0399
88107W        W31020   8.550  23.570  16.694  0.0435 -0.1201 -0.0753
88108W        W31021   4.938  12.823  16.062 -0.1706  0.1334 -0.1491
88109W        W31022  15.864  18.340  12.605 -0.1786  0.2722 -0.1612
88110W        W31023  27.440   7.808  16.343  0.0608 -0.1267  0.0647
88111W        W31024  28.095  13.569  25.074  0.0745  0.0575  0.0793
88112W        W31025  21.817  15.774  17.998 -0.0960 -0.1034 -0.1093
88113W        W31026  26.397   3.450  16.012 -0.2768 -0.4795  0.1801
88114W        W31027  30.906  20.319  15.737 -0.2555  0.0994 -0.0944
88115W        W31028  17.914   8.247  23.088 -0.0317  0.1181 -0.1227
88116W        W31029  12.830  23.573  22.763 -0.0411 -0.2148  0.0872
88117W        W31030  21.690   9.754  22.165 -0.2085  0.0178 -0.3245
88118W        W31031  21.046   7.404   2.229 -0.0237 -0.1316  0.2506
88119W        W31032  10.517  17.820  19.704 -0.0516 -0.0103 -0.3244
88120W        W31033  18.437  19.883  13.142 -0.0849 -0.2405 -0.1368
88121W        W31034  30.305  21.913  18.013  0.1607 -0.1632  0.0159
88122W        W31035  23.577  11.523  20.572 -0.0148  0.0675 -0.2035
88123W        W31036  10.470  14.394  18.623  0.3026  0.2888  0.2547
88124W        W31037  22.583  19.607  12.812 -0.1134  0.1912  0.3139
88125W        W31038  28.724  11.576  15.748 -0.0474  0.1288 -0.1604
88126W        W31039  21.199  29.291  22.187  0.2219 -0.1019  0.1501
88127W        W31040  21.287  10.450  15.057 -0.2781 -0.3157  0.0671
88128W        W31041  31.978  19.333  17.267  0.1739 -0.0667  0.0641
88129W        W31042  18.290   6.387   2.769  0.1775 -0.1712 -0.4235
88130W        W31043  28.776   7.435  26.235  0.4254  0.0093 -0.0708
88131W        W31044  13.835  15.314  13.163  0.2098 -0.3381 -0.1791
88132W        W31045  13.360  25.656  27.972  0.1792  0.1806  0.1078
88133W        W31046  10.947   4.051  25.962 -0.4041  0.3419 -0.0097
88134W        W31047  14.130  17.391  13.462 -0.0917  0.1532 -0.0857
88135W        W31048  17.993  12.610  11.924  0.0399 -0.1122  0.1456
88136W        W31049  20.679   9.568  18.112 -0.1504 -0.0469  0.0268
88137W        W31050  16.463   4.075  16.334 -0.1774 -0.2010  0.2230
88138W        W31051  26.673   6.866  16.468 -0.2145 -0.0046  0.1484
88139W        W31052  25.346  16.095  15.806 -0.0604  0.0248 -0.2309
88140W        W31053  29.223  18.338  17.522  0.2888  0.1215 -0.0327
88141W        W31054  24.022  13.926  26.372  0.2088  0.2497 -0.0791
88142W        W31055  10.462  26.633  14.984 -0.0255  0.0117 -0.2494
88143W        W31056  10.200  17.359  19.610  0.0769  0.4355  0.2099
88144W        W31057  15.458  15.491  14.144  0.2093  0.0520  0.0914
88145W        W31058  23.791   1.067  19.018  0.1468  0.0963  0.2087
88146W        W31059  18.000   8.138  15.706 -0.1333 -0.1191  0.1264
88147W        W31060  22.641   6.975  19.482 -0.3685 -0.0223 -0.0954
88148W        W31061  25.168  22.529  13.074  0.2069 -0.1484 -0.0207
88149W        W31062  24.687  19.424  20.887 -0.0602 -0.1438 -0.2547
88150W        W31063  25.549  10.523  25.733  0.2016 -0.0365  0.0992
88151W        W31064  15.670   5.699  22.233  0.0342  0.0384 -0.3530
88152W        W31065  26.308   8.727  20.607  0.4760 -0.0406 -0.1041
88153W        W31066  14.699   8.957  16.075 -0.1022  0.1046  0.0541
88154W        W31067  23.362  17.425  19.879  0.1265 -0.2009 -0.1928
88155W        W31068  17.002   9.707  17.929  0.0636 -0.2079 -0.1828
88156W        W31069  25.860  21.223  13.026  0.1238  0.1417  0.0772
88157W        W31070  27.456  19.031  16.194  0.1020  0.3049 -0.0478
88158W        W31071  26.033  11.567  17.974  0.2186  0.0304  0.1285
88159W        W31072  26.805   9.937  17.264  0.2650  0.0450  0.1854
88160W        W31073  25.282  17.040  15.777 -0.0006  0.2228 -0.1148
88161W        W31074  16.039  13.803  12.662  0.0697 -0.0990 -0.1929
88162W        W31075  14.708   4.280  22.859 -0.6374 -0.0208  0.0517
88163W        W31076  27.530   8.262  16.196 -0.3931 -0.2876 -0.0320
88164W        W31077  20.138   2.545  22.636 -0.1927 -0.2208 -0.1011
88165W        W31078  17.070  24.915  16.396 -0.0228 -0.0710 -0.2869
88166W        W31079   7.728  17.709  20.376 -0.2421  0.1320 -0.2891
88167W        W31080   6.864  11.993  16.820  0.1782 -0.2286  0.1719
88168W        W31081   0.224  16.335  18.717  0.2277  0.1454 -0.3015
88169W        W31082   4.801  23.676  21.610 -0.2342 -0.0822  0.2997
88170W        W31083  22.491   8.445  25.350  0.0909  0.1623  0.1912
88171W        W31084  33.855   9.487  20.525  0.3197 -0.0417  0.0460
88172W        W31085  15.630   8.387  14.978 -0.0322  0.1149  0.1052
88173W        W31086  22.163   7.928  22.535  0.0428  0.1664 -0.1643
88174W        W31087  28.015  17.492  14.414  0.1402 -0.1269 -0.3839
88175W        W31088  17.733  18.874  13.115  0.0701 -0.2093  0.1227
88176W        W31089  13.507  14.188  14.673 -0.0154  0.2725 -0.2088
88177W        W31090  24.942   6.503  16.797  0.0192  0.0983 -0.2137
88178W        W31091  16.332  22.861  19.925  0.0378  0.0134 -0.3149
88179W        W31092  27.070  16.959  28.084 -0.2663  0.4190  0.1627
88180W        W31093  19.114   9.511  13.702  0.1441 -0.1823 -0.0882
88181W        W31094  19.607  12.236  14.864  0.0293  0.3946  0.0940
88182W        W31095  21.750  12.628  13.834  0.1036 -0.2819  0.0465
88183W        W31096  12.116  21.479  19.462 -0.1644 -0.4964  0.2686
88184W        W31097  22.890  19.233  15.999 -0.2877  0.0503 -0.0489
88185W        W31098   6.194   7.676  26.227 -0.1097 -0.0720  0.2548
88186W        W31099  27.262   1.250  21.043  0.2419 -0.1268 -0.2376
88187W        W31100  17.390   4.815  14.986 -0.2004  0.1709  0.1838
88188W        W31101  23.536  18.055  12.515 -0.0072  0.1044 -0.0821
88189W        W31102  29.823  14.343  14.380  0.3993 -0.1343 -0.0065
88190W        W31103  19.779  12.873  13.832  0.1425  0.1915  0.0955
88191W        W31104  12.573  13.438  26.295 -0.3071 -0.0274 -0.1096
88192W        W31105  21.250   5.670  16.290 -0.1300 -0.1723  0.4270
88193W        W31106  14.192  14.039  16.760  0.4085 -0.1195 -0.1425
88194W        W31107  23.179  14.891  14.173 -0.0919 -0.3013  0.3539
88195W        W31108  19.121   7.092  17.974 -0.1687 -0.0286  0.0403
88196W        W31109  18.529   0.388  14.318 -0.1651 -0.0216  0.0297
88197W        W31110  25.176  19.637  14.279 -0.1383  0.1470  0.1340
88198W        W31111  26.529   5.062  21.043  0.0577  0.3094 -0.0849
88199W        W31112  21.754  20.839  13.268  0.1793  0.0004  0.0680
88200W        W31113  18.160  18.685  13.048  0.1050 -0.0316 -0.0358
88201W        W31114  22.737  20.555  15.198  0.3262 -0.0011 -0.1914
88202W        W31115  23.960  11.127  13.433  0.0981 -0.1997  0.0767
88203W        W31116  13.677   6.008  22.560  0.0771 -0.2037  0.1476
88204W        W31117  17.693  12.377  15.657 -0.1416  0.0919 -0.2586
88205W        W31118  17.651  12.221  15.127  0.1793  0.1646 -0.1961
88206W        W31119  17.428  32.630  18.474  0.0063 -0.2904 -0.0794
88207W        W31120  26.246  18.398  14.440  0.1511  0.1254 -0.1419
88208W        W31121  27.073   8.682  14.261  0.0915  0.2486  0.2610
88209W        W31122  19.598  21.784  23.286 -0.2598 -0.3378 -0.0001
88210W        W31123  21.755  11.420  15.268 -0.0319  0.1041  0.2511
88211W        W31124  19.595   8.637  13.662  0.0566  0.1599  0.0765
88212W        W31125  23.592  20.676  13.292 -0.3908 -0.1883  0.3925
88213W        W31126  27.100  12.424  18.553  0.1794  0.2631  0.5787
88214W        W31127  16.967  16.538  14.210  0.0374 -0.0610 -0.0428
88215W        W31128  26.406  18.003  24.740  0.3579 -0.0237 -0.1459
88216W        W31129  26.049  14.515  13.789  0.0361  0.2233 -0.2335
88217W        W31130  26.412  17.481  15.390  0.0448  0.2050  0.1131
88218W        W31131  26.009  18.159  21.557  0.0375  0.0362 -0.0310
88219W        W31132  27.836   8.864  17.281  0.0186  0.2058  0.1567
88220W        W31133  22.099  17.220  25.934  0.2332  0.0603  0.2715
88221W        W31134  25.502  19.406  18.589 -0.1995 -0.0985  0.0938
88222W        W31135  13.518  17.328  12.422  0.0597  0.1591  0.3249
88223W        W31136  13.697  12.525  16.967 -0.0466 -0.3610 -0.3312
88224W        W31137  24.542  10.943  16.527  0.0617 -0.0493 -0.0131
88225W        W31138  23.725   3.294  21.086  0.0233  0.1220 -0.2992
88226W        W31139  19.855   0.582  17.938 -0.2230 -0.1248 -0.0967
88227W        W31140  20.446  11.892  15.518  0.1244 -0.2373  0.1272
88228W        W31141  25.092   1.911  19.761  0.0483 -0.0783 -0.0152
88229W        W31142  20.802  13.549  15.481  0.3361  0.0534  0.0965
88230W        W31143  22.428  15.472  23.069 -0.0854  0.4347 -0.2166
88231W        W31144  15.635  11.251  16.632 -0.0455 -0.2529  0.1916
88232W        W31145  20.198  16.906  13.961 -0.1003  0.0980  0.1197
88233W        W31146  24.458  13.293  18.926 -0.2721  0.1197  0.4322
88234W        W31147  19.549   8.429  22.871 -0.0592  0.1986 -0.2096
88235W        W31148  24.031   8.418  15.760 -0.2388 -0.1488  0.1001
88236W        W31149  27.775  16.642  13.959  0.1797 -0.1950 -0.0978
88237W        W31150  30.900  30.901  24.607  0.0778 -0.0906 -0.0504
88238W        W31151  29.992   9.300  19.382  0.0255  0.1592  0.0310
88239W        W31152  13.511   4.891  21.218 -0.2505  0.1875  0.0728
88240W        W31153   7.919   7.204  18.403  0.0419  0.0524  0.2902
88241W        W31154  23.558  16.738  26.595 -0.3064 -0.4585  0.3862
88242W        W31155  25.805  11.650  13.792  0.0840  0.2463  0.1749
88243W        W31156  24.989  15.331  21.585  0.0869 -0.0116 -0.1994
88244W        W31157  17.700   2.982  20.371 -0.1345  0.0798  0.2199
88245W        W31158  16.837  18.581  14.458 -0.0030  0.1907  0.0657
88246W        W31159  27.066  27.019  21.492 -0.0921  0.3897 -0.0237
88247W        W31160  17.258   9.828  27.068 -0.2139 -0.0325  0.0399
88248W        W31161  32.443  14.834  20.214 -0.0687 -0.1340 -0.1869
88249W        W31162  17.035   7.288   5.761 -0.3230  0.2475 -0.0126
88250W        W31163  18.230   1.090  17.047 -0.2772 -0.0242 -0.0309
88251W        W31164   8.687  13.079  14.567 -0.3535 -0.1627 -0.1332
88252W        W31165  22.020  22.650  14.610 -0.3209  0.0117  0.0708
88253W        W31166  22.499  18.981  13.379 -0.1103 -0.1582  0.0761
88254W        W31167  19.953   9.685  21.897 -0.0290 -0.0231 -0.0107
88255W        W31168  17.004  25.548   7.824  0.2278 -0.1184  0.0811
88256W        W31169   1.983  14.012  16.367  0.1879 -0.0000  0.2330
88257W        W31170  24.153   2.329  18.800 -0.2538 -0.1722 -0.0136
88258W        W31171  24.118  12.116  14.874  0.1219 -0.1458 -0.0367
88259W        W31172  23.951  10.759  20.734  0.1799  0.1198 -0.0757
88260W        W31173  27.726  24.875  21.644  0.0789 -0.1702  0.0687
88261W        W31174  11.949   8.753  17.168 -0.0197  0.0551 -0.1547
88262W        W31175  25.357   8.765  24.483 -0.0376  0.0608 -0.0477
88263W        W31176  16.734  15.002  12.017  0.1298 -0.0057 -0.1450
88264W        W31177  19.444   8.604  20.534  0.0284  0.4077  0.0189
88265W        W31178  20.081  31.439  18.700  0.0169  0.0840 -0.0560
88266W        W31179  11.295   9.136  16.365 -0.0220 -0.0153  0.1119
88267W        W31180  27.083   7.743  20.926  0.0987  0.1936 -0.2231
88268W        W31181  23.984   5.894  26.669  0.0150  0.0957  0.0129
88269W        W31182  23.188   1.634  23.345  0.0737  0.4151 -0.1754
88270W        W31183  22.747  15.300  17.724 -0.2119  0.1968  0.3397
88271W        W31184  29.213  18.841  15.934  0.3146  0.0851 -0.1618
88272W        W31185  13.177  12.957  19.506 -0.1042  0.2383 -0.2724
88273W        W31186  16.455  14.566  12.115 -0.2463  0.2474 -0.0449
88274W        W31187  17.202  22.890  16.486  0.0360 -0.0186 -0.1107
88275W        W31188  16.147   5.529  17.668 -0.0835  0.0702 -0.1193
88276W        W31189  11.900  15.347  18.182 -0.0534  0.4287 -0.1608
88277W        W31190  20.516   6.670  15.402  0.1561  0.1229 -0.3391
88278W        W31191  12.424  22.361  19.791  0.0294 -0.0011 -0.0639
88279W        W31192  23.322  12.105  26.396  0.0974 -0.1996 -0.1386
88280W        W31193  21.877   8.371  19.697 -0.0263  0.2230 -0.1049
88281W        W31194  18.312   6.779  21.168 -0.0410  0.0543  0.2806
88282W        W31195  24.232  15.366  26.964 -0.4692  0.0435  0.0622
88283W        W31196  13.242   7.445  16.446  0.0783  0.0142  0.0399
88284W        W31197  16.466   7.669  22.929  0.0224  0.2780  0.1537
88285W        W31198   2.115   9.452  19.661  0.0826 -0.1379  0.1758
88286W        W31199  16.969  12.644  13.417  0.3448  0.2567 -0.1072
88287W        W31200  16.339   9.049  20.632  0.0193  0.1719  0.0667
88288W        W31201  25.517  23.082  20.137 -0.0563 -0.1895  0.0985
88289W        W31202   9.921   0.673   1.219 -0.1799  0.0883 -0.0849
88290W        W31203  31.858  23.184  18.006 -0.0299  0.0274  0.2105
88291W        W31204  27.600  13.570  18.947 -0.0302  0.0227 -0.1071
88292W        W31205  30.157  17.399  16.965  0.0351  0.0292 -0.1447
88293W        W31206  18.826  33.698  27.549  0.0045  0.0130 -0.1766
88294W        W31207  16.915  11.165  27.820  0.1283  0.0431  0.1279
88295W        W31208  20.021  12.818  15.782 -0.0535 -0.2375  0.1017
88296W        W31209  13.024  10.310  15.581  0.0180  0.1065 -0.1319
88297W        W31210  27.237  11.591  20.806 -0.1239 -0.1105 -0.0342
88298W        W31211  29.284  13.666  19.941 -0.2837  0.0758 -0.2011
88299W        W31212  20.189  11.822  19.947  0.0276 -0.2064  0.0513
88300W        W31213  15.887  13.522  17.090  0.2577  0.2067  0.2082
88301W        W31214  20.628   9.330  13.115  0.3841  0.1388 -0.0660
88302W        W31215  23.716   9.359  18.462 -0.3892  0.2326 -0.0106
88303W        W31216  21.331   8.275  14.259 -0.0808  0.0922  0.0353
88304W        W31217   9.013  16.329  20.304 -0.1420  0.4063  0.2265
88305W        W31218  15.490   9.228  14.842 -0.0594  0.0113  0.2558
88306W        W31219  25.848   9.890   0.188 -0.2016 -0.0054  0.1942
88307W        W31220  22.522   5.457  25.119 -0.0273 -0.0218  0.0412
88308W        W31221  28.545  22.330  22.690  0.2189 -0.1140  0.2862
88309W        W31222  14.406   3.118  23.477  0.3392 -0.1803 -0.0738
88310W        W31223  27.969  14.661  18.003 -0.0655 -0.0793 -0.1446
88311W        W31224  24.471  12.715  17.074  0.2903 -0.0024  0.2534
88312W        W31225  18.317  32.775  15.853  0.0684 -0.1789  0.0542
88313W        W31226  24.343  11.205  24.560 -0.2316 -0.2957 -0.2149
88314W        W31227  13.830  24.560  24.268 -0.0473  0.2946  0.1006
88315W        W31228  21.258  13.076  25.198 -0.0533  0.3543 -0.0152
88316W        W31229  24.715  19.423  21.761  0.0869  0.1401 -0.0279
88317W        W31230  24.849   3.596  21.162 -0.0861  0.0532  0.3115
88318W        W31231  14.529  17.190  14.821  0.1562  0.0526 -0.1434
88319W        W31232  31.087  16.997  18.060  0.0164 -0.0065  0.2411
88320W        W31233  24.176   6.039  22.302 -0.0108 -0.0766  0.3062
88321W        W31234  26.398  13.648  26.004  0.1420  0.0799  0.1939
88322W        W31235  17.862  14.388  13.957 -0.0020 -0.1504  0.1906
88323W        W31236  20.015  11.041  21.740  0.2519 -0.0729  0.0216
88324W        W31237  19.754   9.857  16.086  0.3191 -0.0671 -0.0474
88325W        W31238  19.001   7.267   0.732  0.0634 -0.3373  0.1928
88326W        W31239  24.720   3.900  15.814 -0.0867 -0.0837 -0.1774
88327W        W31240   7.988  16.493  21.764 -0.0416  0.2542  0.3738
88328W        W31241  14.264   8.102  23.964  0.2136  0.1626 -0.4145
88329W        W31242  26.112  14.606  19.590  0.0799  0.3208 -0.0456
88330W        W31243  19.159   0.478  29.385 -0.0865  0.0594  0.4548
88331W        W31244  28.419   7.142  14.733 -0.0881 -0.0985 -0.0173
88332W        W31245  27.484   9.335  17.118 -0.0641 -0.0118 -0.0912
88333W        W31246  21.683   8.702  18.923 -0.0470 -0.0356  0.1298
88334W        W31247  15.472  11.157  13.646 -0.2085  0.0872  0.2699
88335W        W31248  25.677  17.195  15.478  0.2806  0.0766 -0.1663
88336W        W31249  22.306  20.581  17.956 -0.1485  0.0120 -0.2455
88337W        W31250  18.058  14.649  27.039  0.0231 -0.0928  0.0996
88338W        W31251  31.737   9.646  14.637 -0.2049  0.1130  0.0855
88339W        W31252  19.229   9.963  15.726 -0.1436  0.1039 -0.4530
88340W        W31253  20.496   9.917   5.010  0.1076  0.1547 -0.2539
88341W        W31254  29.875  16.637  13.970 -0.0872  0.3015  0.2026
88342W        W31255  12.270  18.483  15.166  0.3634  0.1441 -0.5315
88343W        W31256  11.104   9.599  21.386  0.1101  0.1631 -0.0873
88344W        W31257  12.635  20.841  22.123 -0.4513 -0.2826  0.0698
88345W        W31258  21.742   7.858  16.135  0.1046 -0.1542 -0.3054
88346W        W31259  25.612  14.106  16.757  0.1110 -0.0215  0.1196
88347W        W31260  19.808   7.865  15.423  0.1503 -0.1187 -0.1348
88348W        W31261  29.828  25.033  24.938  0.0714  0.2407  0.0389
88349W        W31262   6.380  11.235  20.421 -0.2182 -0.1219  0.0745
88350W        W31263   7.866  10.639  27.138 -0.0973  0.3680  0.0499
88351W        W31264  23.967  24.112  17.999 -0.0109  0.1718  0.0724
88352W        W31265  13.242  11.700  15.069  0.0165  0.1906 -0.0904
88353W        W31266  17.012  23.765  23.107 -0.0773 -0.1724  0.0462
88354W        W31267  14.487   6.107  15.478 -0.3758 -0.2297 -0.0186
88355W        W31268  26.914  11.588  24.269  0.0374 -0.1487 -0.2332
88356W        W31269  12.452   6.170  23.571  0.2119 -0.0126 -0.0464
88357W        W31270  11.264  20.802  17.303 -0.0682 -0.0926 -0.0868
88358W        W31271   7.753   7.333   6.649  0.0090  0.1132 -0.3027
88359W        W31272  21.411   7.928  27.356 -0.0193  0.2433 -0.1023
88360W        W31273  21.405  34.227  21.070 -0.2643 -0.0767  0.1584
88361W        W31274  14.645   6.816  20.581 -0.6263  0.3074  0.1061
88362W        W31275  26.793  16.176  15.788  0.1163  0.0941  0.2649
88363W        W31276  17.905   3.119  18.058 -0.0510  0.1164 -0.0743
88364W        W31277  16.695  31.610  24.626 -0.0748  0.1178  0.0549
88365W        W31278  21.086  27.153  17.308 -0.1415  0.0607  0.1915
88366W        W31279  18.503  34.147  20.328 -0.0226 -0.0527 -0.3882
88367W        W31280  29.795  20.752  18.080 -0.0928  0.0441 -0.0989
88368W        W31281  27.197  15.550  16.608 -0.1998 -0.2136 -0.2014
88369W        W31282  26.942  21.237  18.701 -0.3447  0.0288 -0.2853
88370W        W31283  16.094   5.878  16.733 -0.1553 -0.0604 -0.0357
88371W        W31284  22.176   8.735  15.929 -0.0293 -0.0906 -0.1112
88372W        W31285  20.862   6.746  19.735 -0.1953  0.1345  0.0072
88373W        W31286  25.627   9.800  17.969 -0.1423  0.0291 -0.0595
88374W        W31287  20.521  12.165  29.043  0.0768  0.1002 -0.0861
88375W        W31288   7.388   9.515  20.435  0.1524 -0.1697 -0.1059
88376W        W31289  26.259  17.553  19.464  0.2457 -0.0062 -0.1072
88377W        W31290  21.986  17.185  21.837 -0.2153  0.0406  0.0058
88378W        W31291  21.269  12.176  15.498  0.0738  0.1099 -0.0161
88379W        W31292  16.238  12.191  12.952 -0.2557  0.2426 -0.1837
88380W        W31293  26.186   9.550  20.989 -0.0841  0.2501  0.6240
88381W        W31294  13.727  18.205  14.761 -0.2254  0.1834 -0.0633
88382W        W31295  16.184   7.003  23.152  0.1363  0.1867 -0.2123
88383W        W31296  16.017   7.134   0.357 -0.0483  0.0341 -0.1995
88384W        W31297  19.109   9.695  19.478  0.0462  0.1506  0.0612
88385W        W31298  17.796  13.319  22.872 -0.1445 -0.4576 -0.0571
88386W        W31299   5.990  18.420  16.736  0.1078  0.1555 -0.0584
88387W        W31300  16.384  13.660  15.417 -0.1880  0.0680  0.1289
88388W        W31301  17.650   4.450  19.004 -0.2322 -0.0328  0.0712
88389W        W31302   0.381  26.838  15.067 -0.1217  0.0235 -0.3131
88390W        W31303  23.907   7.754  21.191  0.0652  0.1412  0.2046
88391W        W31304  27.006   4.250  17.506 -0.1669  0.0325  0.0877
88392W        W31305  24.182  10.442  13.747  0.0701 -0.0227 -0.1154
88393W        W31306  19.334   9.009  13.980  0.1164 -0.0874 -0.2336
88394W        W31307  28.190  18.593  19.432  0.3507 -0.0682  0.0551
88395W        W31308   9.900  18.920  17.903 -0.3292 -0.2717 -0.4565
88396W        W31309  25.780   3.034  21.709  0.0157 -0.2371 -0.0113
88397W        W31310  23.033  14.567  13.690  0.1062  0.0072 -0.0854
88398W        W31311   7.664  16.658  16.446 -0.1400  0.1101  0.2429
88399W        W31312  18.483  10.758  13.602 -0.0077  0.0792 -0.1833
88400W        W31313  17.466  10.863  23.742 -0.0330 -0.2974 -0.0629
88401W        W31314  18.344   9.847  20.126 -0.0975 -0.1264 -0.0119
88402W        W31315  15.079   5.493  25.214 -0.3016  0.0792  0.1392
88403W        W31316  19.821  12.713  14.337 -0.2427 -0.3259  0.1830
88404W        W31317  19.074  13.181  24.718  0.2327 -0.1109 -0.2673
88405W        W31318  18.275   2.859  22.284  0.0044 -0.2799  0.0711
88406W        W31319  24.354   9.333  23.201 -0.3316 -0.2029 -0.2642
88407W        W31320  31.612  23.479  14.280  0.2014  0.0390  0.4801
88408W        W31321  15.770  10.944  13.281 -0.0275  0.0495  0.2175
88409W        W31322  23.099  10.253  25.850 -0.0146  0.0183 -0.0311
88410W        W31323  26.113  18.561  23.315  0.0693 -0.3114  0.0243
88411W        W31324  28.418  20.014  23.810 -0.2657  0.0254 -0.1608
88412W        W31325  15.203   2.836  22.819  0.0445 -0.0804  0.0099
88413W        W31326  11.378   6.968  22.123  0.0435  0.1054  0.0422
88414W        W31327  33.681  16.197  23.026 -0.2623 -0.1820  0.0106
88415W        W31328  23.409  14.202  13.806  0.2646 -0.0957  0.1776
88416W        W31329  21.606  12.220  20.316  0.0599 -0.0801  0.0559
88417W        W31330  19.475  16.556  14.331  0.2170 -0.2384 -0.0125
88418W        W31331   4.375  12.686  17.981 -0.1333  0.0538 -0.0537
88419W        W31332  11.536  15.531  20.221  0.0769  0.1001  0.1298
88420W        W31333  14.553  10.680  20.226  0.2018  0.2744  0.0057
88421W        W31334   6.086  11.704  29.299 -0.2427 -0.0430  0.0424
88422W        W31335  19.189   7.985  25.381  0.2594 -0.1401 -0.1614
88423W        W31336  31.640   6.300  16.964  0.2992  0.1669  0.1748
88424W        W31337  22.244  15.027  21.843 -0.0007 -0.2839 -0.1262
88425W        W31338  25.377  11.050  16.094 -0.0485 -0.0110 -0.1083
88426W        W31339  21.608   8.832  15.110 -0.2308 -0.1625 -0.0661
88427W        W31340  23.974  14.994  24.159  0.0443 -0.2405 -0.2098
88428W        W31341  22.595  11.367  14.260 -0.1794  0.0174 -0.4099
88429W        W31342  15.323   3.432  21.527 -0.3029 -0.2924  0.4337
88430W        W31343  25.618  16.531  15.611  0.1418 -0.1393  0.0145
88431W        W31344  16.172  14.441  26.043  0.0217  0.2070  0.0222
88432W        W31345  29.143  13.324  24.602  0.1288 -0.0305 -0.0630
88433W        W31346  22.279  19.651  19.526 -0.0490  0.2152  0.0130
88434W        W31347  17.313  10.051  13.336  0.1194  0.4292 -0.0629
88435W        W31348   5.156  10.267  20.204 -0.2928  0.1532 -0.0562
88436W        W31349  18.467   6.251   1.726  0.0762  0.0365  0.2386
88437W        W31350  22.824  14.474  20.796 -0.3176 -0.0350 -0.1185
88438W        W31351   8.456   6.588  17.453  0.0585 -0.0659  0.0039
88439W        W31352  22.877  12.586  25.289 -0.0054  0.2393  0.0193
88440W        W31353  23.502   9.855  20.464 -0.1347  0.0537  0.2985
88441W        W31354  18.714  29.610  18.784  0.1440 -0.0624 -0.3590
88442W        W31355  18.120   7.300  28.029  0.1938  0.2574  0.0382
88443W        W31356  30.090  10.353  22.035 -0.0623 -0.0286 -0.0494
88444W        W31357  26.651  12.944  22.668  0.0271  0.2200 -0.1359
88445W        W31358  25.595   5.133   2.380  0.1674  0.2650  0.2622
88446W        W31359  17.679   5.500  23.323 -0.0221  0.0724  0.2038
88447W        W31360  24.730  21.222  17.329 -0.0626  0.3025 -0.0965
88448W        W31361  22.472   1.666  19.038 -0.1370  0.1805 -0.3211
88449W        W31362  13.579  10.018  14.242  0.0006 -0.3006  0.0284
88450W        W31363  16.011   8.891  21.068  0.1096  0.0706 -0.1317
88451W        W31364  22.889  14.711  16.821 -0.0996 -0.0955  0.1932
88452W        W31365  25.270   6.726  23.486  0.2361  0.3590 -0.0798
88453W        W31366  15.063  13.686  19.919  0.1685  0.0476  0.0529
88454W        W31367  28.279  11.625   7.296  0.1338 -0.1054  0.0174
88455W        W31368  24.505   3.768   1.294  0.0100  0.1918  0.1611
88456W        W31369  16.458  22.029  19.166  0.0694  0.1780 -0.2225
88457W        W31370  29.188   3.140  15.946 -0.2587 -0.3704  0.0136
88458W        W31371  17.297   6.150  22.779 -0.1527 -0.0681  0.4391
88459W        W31372  20.320  15.161  15.690  0.3120  0.3147 -0.3730
88460W        W31373  17.079   8.416  15.566 -0.1673 -0.2542 -0.0872
88461W        W31374  17.114   4.842  29.398  0.0221  0.0476  0.0975
88462W        W31375  19.752   4.234  17.280 -0.5042 -0.1994  0.1360
88463W        W31376  22.767   9.483  15.036  0.4475 -0.1841 -0.1509
88464W        W31377  19.353  13.021  21.050  0.0771 -0.0892 -0.1367
88465W        W31378  20.837   5.486  26.930 -0.0508  0.0026 -0.0450
88466W        W31379  19.974  11.456  23.053  0.1319 -0.0080  0.0885
88467W        W31380  12.994   8.406  22.266 -0.0995 -0.1257  0.0171
88468W        W31381  27.689  12.405  24.405 -0.1067  0.3262 -0.1605
88469W        W31382  21.403  32.672  26.517 -0.1578  0.1923  0.1604
88470W        W31383  30.178   7.029  15.848 -0.3342 -0.1064  0.0246
88471W        W31384  18.974  34.177   0.266  0.2019 -0.2754  0.0715
88472W        W31385  19.868   2.685  26.477  0.3566 -0.0814  0.1057
88473W        W31386  28.574  11.734  19.374 -0.3507 -0.2151 -0.3203
88474W        W31387  24.347   7.212  20.333 -0.0304  0.1072  0.1857
88475W        W31388  15.397  14.725  25.694  0.4094 -0.2117 -0.0441
88476W        W31389  27.785  22.473  15.636  0.1072  0.2805  0.2363
88477W        W31390  23.694   6.333  20.150  0.0490  0.0434  0.0420
88478W        W31391  19.150  10.060  13.104  0.0313 -0.0184 -0.2068
88479W        W31392  27.269  16.322  15.796  0.2419  0.2993  0.1917
88480W        W31393  28.909  19.104  17.901  0.0053  0.1260  0.1173
88481W        W31394  14.003   6.226  21.092  0.1614  0.0187  0.1154
88482W        W31395  12.823   8.330  24.383 -0.0870  0.1730  0.1448
88483W        W31396  22.493  13.576  23.726  0.0110 -0.2049 -0.4698
88484W        W31397  18.324   5.832  19.983 -0.2436  0.1368  0.2145
88485W        W31398  20.855  21.443  22.954  0.1844  0.0470  0.4369
88486W        W31399  25.913  25.964  14.644 -0.0062  0.2982 -0.2969
88487W        W31400  25.562  12.413  14.372 -0.1896  0.1024  0.1876
88488W        W31401  22.430   3.319  15.528 -0.1325 -0.0565  0.1718
88489W        W31402   8.870  16.406  25.533  0.1576  0.0529  0.2877
88490W        W31403   4.104  21.579  16.635 -0.0004 -0.0920  0.1090
88491W        W31404  14.157  28.172  16.149 -0.2074 -0.2234 -0.0503
88492W        W31405  20.246  12.685  13.634  0.0894  0.2725 -0.1275
88493W        W31406  27.312  15.168   6.795 -0.0453 -0.0830 -0.0840
88494W        W31407  28.342  10.572  18.398  0.0699 -0.0940 -0.1468
88495W        W31408  29.711  14.018   0.159 -0.1195  0.4465 -0.1128
88496W        W31409  22.095   9.531  15.654  0.0801 -0.0527  0.0506
88497W        W31410  32.446  11.248  20.232 -0.2587  0.1074  0.2360
88498W        W31411  21.097   7.942  20.852  0.1412 -0.0494 -0.1506
88499W        W31412  15.191  15.190  14.484 -0.0041 -0.1238  0.0447
88500W        W31413  22.914  11.443  12.894 -0.0613 -0.0217 -0.0363
88501W        W31414  21.543   9.170  24.526 -0.3407 -0.0598 -0.2365
88502W        W31415  24.011  21.539  22.960 -0.1697  0.1824 -0.0695
88503W        W31416  11.972   4.678  22.319  0.0143  0.1210  0.0505
88504W        W31417  21.820  33.106  13.516 -0.0677 -0.1598  0.3031
88505W        W31418  31.825  17.120  18.543  0.2233  0.4524 -0.0277
88506W        W31419  20.434  13.158  15.805  0.0544  0.1496  0.1474
88507W        W31420  27.344  18.290  23.990  0.2658  0.2423  0.0284
88508W        W31421  17.536  11.353  22.699  0.1128 -0.1772 -0.0583
88509W        W31422  20.516  13.094  15.319 -0.2994  0.1402 -0.1000
88510W        W31423  12.826  15.096  15.461 -0.0574  0.0829  0.3050
88511W        W31424  29.632   2.105  17.944 -0.1709  0.1168  0.0179
88512W        W31425  27.427   1.681  20.060 -0.0452  0.0049  0.1224
88513W        W31426  20.701   5.092  17.160  0.0740 -0.0216 -0.1898
88514W        W31427  14.145  14.280  17.294  0.1739 -0.5118  0.2151
88515W        W31428  10.721  20.499  17.817  0.2333  0.2315  0.1904
88516W        W31429  17.537  19.461  12.951 -0.2466  0.1400 -0.0212
88517W        W31430  15.384  21.158  18.671 -0.1593 -0.0245  0.2879
88518W        W31431   2.208   2.494  25.298  0.0124 -0.1480  0.0291
88519W        W31432  15.859   3.706  26.221  0.0358  0.2216  0.2168
88520W        W31433  23.984  11.279  17.307 -0.2263 -0.2069  0.1563
88521W        W31434  15.953   1.556  14.900 -0.1175  0.1192 -0.0847
88522W        W31435  28.803  17.943  19.257 -0.3172  0.1049 -0.4197
88523W        W31436  14.109  11.972  24.563 -0.2036  0.1372  0.1435
88524W        W31437  27.746  12.442  14.208 -0.1218 -0.1938 -0.1339
88525W        W31438  10.898  21.527  17.084  0.0840 -0.1514  0.0403
88526W        W31439  22.972  10.415  23.512 -0.0710 -0.2156  0.0754
88527W        W31440  13.462  11.621  14.613 -0.2621  0.2790  0.0424
88528W        W31441  15.649  10.894  14.058 -0.1802 -0.1420  0.1072
88529W        W31442  24.606   4.947  23.674 -0.1516 -0.0852  0.0662
88530W        W31443   5.298  19.528  18.599 -0.0107 -0.1410  0.1286
88531W        W31444  26.502   5.751  14.915 -0.0249  0.0191 -0.1496
88532W        W31445  14.402  11.239  20.598  0.0520  0.0849  0.2577
88533W        W31446  11.470  11.663   0.040  0.1309 -0.0265  0.1067
88534W        W31447  26.591   9.932  22.382  0.3928 -0.0418 -0.0308
88535W        W31448  18.365  10.377  15.990  0.2015 -0.0893 -0.2341
88536W        W31449  25.659   9.609   1.251  0.4096  0.1218 -0.0870
88537W        W31450  21.412   2.605  20.765 -0.1775 -0.0518 -0.0237
88538W        W31451  20.284  17.952  13.100  0.0379  0.1242 -0.0468
88539W        W31452  22.890  17.070  18.712 -0.1300  0.2434  0.0740
88540W        W31453  13.294  23.304  18.722  0.3876  0.0970 -0.0739
88541W        W31454  13.999  17.067  12.836 -0.1354 -0.0251 -0.0234
88542W        W31455  27.713  10.633  14.576 -0.0102 -0.0562 -0.4043
88543W        W31456  21.681  13.325  16.031  0.3579  0.0344 -0.1035
88544W        W31457  33.012  21.477  26.345 -0.2834 -0.1017  0.0794
88545W        W31458  16.158  12.151  14.292  0.2959 -0.1233 -0.2103
88546W        W31459  19.571   5.317  24.470  0.4936  0.2481 -0.0799
88547W        W31460   3.468  16.848  18.441  0.1081 -0.3198  0.1214
88548W        W31461  24.836  12.810  22.719 -0.0655  0.1657 -0.0123
88549W        W31462  26.515  15.563  14.380 -0.4215  0.2616 -0.1211
88550W        W31463  22.534  17.344  28.598 -0.0298 -0.0714 -0.0009
88551W        W31464  26.470  16.874  22.694  0.0992  0.0579  0.0566
88552W        W31465  21.760  11.399  23.991  0.0169  0.0431  0.0552
88553W        W31466  29.646   8.413  19.342  0.0226 -0.0200  0.2982
88554W        W31467  20.928   6.565  22.225  0.1165 -0.0062  0.0454
88555W        W31468  28.445   9.039  14.961 -0.1352 -0.0544  0.2224
88556W        W31469  25.578   6.330  20.508 -0.0798 -0.0349  0.0675
88557W        W31470  14.764   4.062  23.879  0.2573 -0.3254  0.0283
88558W        W31471  19.734  28.571  14.326  0.1168 -0.3362 -0.0724
88559W        W31472  23.294  13.249  18.044 -0.1368 -0.0558  0.3178
88560W        W31473  20.015   2.074  17.312 -0.0351 -0.3053  0.3227
88561W        W31474  32.538   5.941  17.092 -0.0837  0.3142 -0.0880
88562W        W31475  20.240  34.052  23.247  0.0775 -0.0454 -0.2380
88563W        W31476  14.375  13.336  23.932 -0.1075  0.1172 -0.1248
88564W        W31477  20.321   3.286  15.200 -0.3295  0.0844  0.3175
88565W        W31478  17.770   7.874  16.896  0.1450  0.1864 -0.3778
88566W        W31479  26.302  21.355  15.560  0.0541 -0.2281 -0.0587
88567W        W31480  26.130  10.231   8.726 -0.2426  0.1151 -0.0447
88568W        W31481  18.244   8.021  27.651 -0.2103 -0.2580 -0.0372
88569W        W31482  20.027  11.485  17.210  0.0868  0.3426  0.3628
88570W        W31483  26.990  21.261  19.689  0.1113 -0.2023  0.0048
88571W        W31484  16.188   9.803  15.859 -0.0170  0.0361  0.1040
88572W        W31485  30.022  13.581  24.761  0.1118 -0.1194 -0.1475
88573W        W31486  29.288  19.168  21.035  0.1590  0.2614  0.3253
88574W        W31487  19.870  12.270   1.945 -0.0171 -0.0245  0.3329
88575W        W31488  23.899  13.281  16.357 -0.4060  0.0345 -0.0153
88576W        W31489  20.622  10.145  14.584  0.0148 -0.1688 -0.1293
88577W        W31490  16.248  14.362  14.178  0.1722  0.3896  0.0371
88578W        W31491  18.252  33.640  18.890  0.1510 -0.1014 -0.2331
88579W        W31492  11.421  18.528  17.059 -0.1430  0.0816  0.1317
88580W        W31493  13.363  18.103  14.188 -0.2755  0.1524 -0.1012
88581W        W31494  30.086   6.973   3.049  0.0499 -0.1875  0.0103
88582W        W31495  17.337  15.750  13.543 -0.0919  0.3204  0.2990
88583W        W31496  31.717  16.230  14.713 -0.1862 -0.1518 -0.0600
88584W        W31497  24.950  17.236  21.543 -0.0786 -0.2766 -0.1047
88585W        W31498  12.744  17.436  28.236  0.0010  0.2323 -0.1334
88586W        W31499  22.714  30.982  22.049  0.0795  0.3530 -0.2212
88587W        W31500  28.929   0.837  18.401 -0.3191 -0.0243  0.0905
88588W        W31501  22.503  24.957   4.980 -0.1452 -0.3157 -0.3219
88589W        W31502  31.664  12.803  22.118 -0.2319  0.0678 -0.0111
88590W        W31503  17.752   4.647   5.139  0.0375 -0.3023 -0.2840
88591W        W31504  16.340  10.724  12.548  0.0347  0.0930 -0.1360
88592W        W31505  16.718  10.290  20.728  0.0309  0.1415 -0.0166
88593W        W31506  20.451   7.753  20.500  0.2580 -0.0972  0.0387
88594W        W31507  27.637  21.825  15.641  0.2555 -0.3373 -0.1860
88595W        W31508  23.572  10.553   0.721 -0.0061  0.1973  0.2218
88596W        W31509  15.607   9.539  26.535  0.1508  0.0837  0.0223
88597W        W31510  29.421  12.010  16.857 -0.2053 -0.1775 -0.2281
88598W        W31511  19.679  19.125  23.798  0.0673  0.0712 -0.1837
88599W        W31512  18.209   0.548  16.390  0.0699  0.0199 -0.2095
88600W        W31513  17.211   9.764  16.044  0.1615 -0.1599  0.2688
88601W        W31514  20.936   8.166  18.031 -0.1424 -0.0122  0.2136
88602W        W31515  18.964   7.381  16.343  0.0172  0.0405 -0.2536
88603W        W31516  29.556  13.677  26.569 -0.2386 -0.2433  0.1803
88604W        W31517  15.589  15.206  16.203  0.0292 -0.2692  0.3044
88605W        W31518  19.732  15.139  16.189 -0.3776  0.0168  0.3996
88606W        W31519   9.741   9.463  20.286  0.1906 -0.3506  0.4999
88607W        W31520  18.555  25.258  16.829 -0.0716  0.1343 -0.1689
88608W        W31521  25.342  14.279  21.909 -0.0583 -0.2682  0.3640
88609W        W31522  19.185  11.335  22.550  0.1284 -0.6494  0.2756
88610W        W31523  21.243  17.533  11.961 -0.0760  0.2589 -0.2941
88611W        W31524  12.470  10.690  14.883  0.0737  0.1595 -0.0369
88612W        W31525  17.211   9.879  17.506  0.0614 -0.4305 -0.0925
88613W        W31526  18.675   8.074  22.814  0.0086 -0.1738 -0.2410
88614W        W31527  29.788  14.174  16.155 -0.1976  0.0677 -0.0888
88615W        W31528  11.836   7.565  26.626 -0.1715  0.0494  0.1198
88616W        W31529  24.481  29.796  20.392 -0.0844  0.1610 -0.1855
88617W        W31530  22.314  12.484  17.427  0.0908 -0.2586  0.3784
88618W        W31531  27.059  13.611  28.158 -0.0077 -0.1483  0.0270
88619W        W31532  19.890   1.893  24.917  0.1991  0.0599 -0.4737
88620W        W31533   0.661  12.571  19.202 -0.2492  0.3724 -0.0268
88621W        W31534  23.017   4.608  20.445  0.0040  0.3543  0.0632
88622W        W31535  14.715   8.580  22.836 -0.1202 -0.0216  0.0435
88623W        W31536  12.927  16.366  15.773  0.4007  0.1210 -0.0068
88624W        W31537  17.883   8.347  21.263  0.3347 -0.1379  0.0242
88625W        W31538  20.485  28.436  28.106 -0.0118 -0.0103 -0.1220
88626W        W31539   4.500   7.132  19.851 -0.1404  0.2105 -0.4548
88627W        W31540  21.116   7.556  25.549  0.1074  0.0237 -0.0115
88628W        W31541  27.284  11.850  19.375 -0.2243 -0.0457 -0.1296
88629W        W31542  21.081   2.747  21.788  0.2369  0.2558  0.0824
88630W        W31543  28.781  18.334  13.672  0.0341  0.0990 -0.1822
88631W        W31544  26.065  13.345  23.948  0.0714  0.2304  0.1512
88632W        W31545  27.292  16.436  14.773 -0.1810  0.0578 -0.0395
88633W        W31546  33.196  18.117  19.169 -0.0461  0.2041  0.1627
88634W        W31547  19.887   4.362  27.550 -0.2067 -0.0407 -0.3587
88635W        W31548  20.525   0.982  19.586  0.4341  0.1208  0.3174
88636W        W31549  15.483   9.085  21.846  0.2252  0.0247 -0.1105
88637W        W31550  20.088   6.762  19.562  0.2523 -0.2363 -0.1420
88638W        W31551  17.054  19.566  25.896  0.0421 -0.0597  0.1164
88639W        W31552  22.262  14.077  21.518  0.2015  0.2666 -0.0653
88640W        W31553  28.861   5.330  16.217  0.1653 -0.0736 -0.1379
88641W        W31554  12.878  11.871  14.445  0.0800 -0.0911 -0.0925
88642W        W31555  23.707   0.734  22.076 -0.3803 -0.1645 -0.2953
88643W        W31556  25.858   6.533  16.762 -0.3031  0.2611 -0.2134
88644W        W31557  15.624   3.311  28.269  0.0079 -0.0383 -0.0955
88645W        W31558  21.089   7.667  15.252  0.0093 -0.0820 -0.1518
88646W        W31559   7.154   7.601   2.099  0.1023 -0.1123  0.0865
88647W        W31560  17.143   2.633  21.701 -0.0550  0.0022 -0.0491
88648W        W31561  22.727  19.725  16.838  0.2633 -0.3879 -0.0278
88649W        W31562  25.573  11.909  22.035 -0.0582 -0.1798  0.1516
88650W        W31563   8.555   2.074  26.823  0.0758 -0.0251  0.1264
88651W        W31564  18.341   8.156  24.100  0.1945 -0.0288 -0.3445
88652W        W31565  20.911  11.526   2.511 -0.0047  0.3946 -0.0664
88653W        W31566  30.947  24.863  14.906  0.3302 -0.3680 -0.0573
88654W        W31567   8.800  16.037  20.856 -0.0442  0.0280  0.0897
88655W        W31568  22.245  32.773  21.273 -0.0544  0.0940 -0.1281
88656W        W31569  21.383  12.015  22.344 -0.1334 -0.0953  0.2234
88657W        W31570  15.487  13.143  19.608  0.1444 -0.0389 -0.1115
88658W        W31571  20.516  18.578  27.677 -0.1586  0.0827 -0.0631
88659W        W31572  29.797  12.479  15.456 -0.2327 -0.1020 -0.1146
88660W        W31573   5.078   9.516  20.285 -0.2183  0.1062 -0.2714
88661W        W31574  20.935  10.421  27.571 -0.0310 -0.0462 -0.1128
88662W        W31575  16.502   3.709  22.289  0.1258 -0.0186 -0.0297
88663W        W31576   8.178  17.171  23.250  0.4499 -0.2128  0.1028
88664W        W31577   5.129  15.106   1.127  0.2630 -0.2750 -0.0848
88665W        W31578  28.541  11.001  18.553 -0.3756  0.2416 -0.3716
88666W        W31579  20.498  17.009  21.173  0.0272  0.1816  0.2383
88667W        W31580  25.022  11.921   4.675 -0.2616 -0.0188  0.1834
88668W        W31581  17.642  10.316  27.211 -0.1647  0.1937 -0.1556
88669W        W31582  27.874  11.705  28.021 -0.2268 -0.2467 -0.1029
88670W        W31583  24.535  11.659  18.354  0.2476  0.3392 -0.0488
88671W        W31584   9.656  11.731  21.618  0.2491 -0.0922  0.2071
88672W        W31585  18.065   3.445  20.411 -0.1357  0.2355  0.2725
88673W        W31586  21.211  21.415  24.161 -0.0112 -0.4705 -0.1579
88674W        W31587   1.811  15.722  26.237  0.0745  0.1116 -0.2131
88675W        W31588  23.812  12.138  18.229  0.1209 -0.3019  0.2675
88676W        W31589  26.599  22.712  25.165  0.1024  0.2338 -0.0499
88677W        W31590  12.092   8.874  27.002 -0.2375  0.1502  0.0368
88678W        W31591  14.703  13.768  26.789 -0.1527  0.2403  0.3319
88679W        W31592  26.249  10.233  18.466  0.1265 -0.2558 -0.0007
88680W        W31593  24.626  18.217  23.130  0.2551  0.3023 -0.1208
88681W        W31594   8.230  13.888  21.966  0.1510  0.0268 -0.2610
88682W        W31595  18.656   8.636  28.476  0.1234 -0.0145 -0.2798
88683W        W31596  16.751  13.901   3.310  0.1147 -0.3260  0.1655
88684W        W31597   3.558  17.295   2.266  0.3483  0.0133 -0.1255
88685W        W31598  22.630  20.534   8.545  0.1038  0.1915  0.0747
88686W        W31599  28.681  10.244  18.843  0.1600  0.1967 -0.0630
88687W        W31600  15.649  16.339  13.760  0.5089  0.3381  0.1738
88688W        W31601  13.516  12.745  16.497 -0.2310 -0.0129  0.1511
88689W        W31602  22.526   9.459  13.356  0.1450  0.0667  0.1289
88690W        W31603  24.268  17.630  13.650  0.1134 -0.4932  0.0836
88691W        W31604  16.951  13.278  16.217  0.1216  0.1788  0.0647
88692W        W31605  25.235  13.879  21.124 -0.3388 -0.2486  0.1460
88693W        W31606  12.399  22.526  29.098  0.0211 -0.2822  0.3096
88694W        W31607  22.067   5.727   4.831 -0.3692 -0.2127  0.1623
88695W        W31608  17.697  14.269  28.688  0.0798  0.0435 -0.1760
88696W        W31609  14.599  13.167  14.752 -0.1235 -0.2116 -0.2556
88697W        W31610  16.445  12.780  24.053  0.0370  0.0141  0.2107
88698W        W31611  10.861  10.193  23.573 -0.3564  0.1392  0.0549
88699W        W31612  23.750  21.228  22.118  0.2254 -0.0732  0.3202
88700W        W31613  24.550   3.800  19.022 -0.3072 -0.0721  0.1493
88701W        W31614  12.102  13.369  26.659  0.2933  0.2255  0.0229
88702W        W31615  13.822  15.994  21.167 -0.1101 -0.2616 -0.1502
88703W        W31616  10.730  16.946   6.329 -0.2246  0.0562  0.1973
88704W        W31617  20.852   2.835  20.040 -0.2245  0.0999 -0.0081
88705W        W31618  23.170   9.243   7.764 -0.0546 -0.0088 -0.3450
88706W        W31619  14.793   9.328   6.136  0.0849 -0.0799 -0.2207
88707W        W31620  20.306  12.322  20.636  0.0208  0.1113  0.0646
88708W        W31621  24.276  29.943   3.556 -0.1777  0.1226  0.1382
88709W        W31622  22.180  11.080  17.823 -0.3584  0.1002  0.0487
88710W        W31623  29.649  11.978  13.166  0.0384 -0.0258 -0.0077
88711W        W31624  13.119   8.377  29.142  0.1623 -0.2462  0.0227
88712W        W31625  23.138  17.425  21.686 -0.3255  0.1241  0.0636
88713W        W31626  31.464  13.984  28.519  0.1591  0.2479  0.0618
88714W        W31627  18.898   7.903  27.890  0.1024 -0.2641 -0.3380
88715W        W31628  25.132  14.349  25.374 -0.2707  0.0209  0.1613
88716W        W31629  20.891  21.020  27.167  0.2012 -0.0485  0.0511
88717W        W31630  17.300   0.982  26.276  0.4140 -0.2016 -0.2258
88718W        W31631  11.524   2.332  29.142 -0.3309  0.0107 -0.1173
88719W        W31632  23.767  24.542  29.035  0.3037 -0.0542 -0.1306
88720W        W31633  22.983  12.848  19.062  0.1089  0.3574  0.1133
88721W        W31634  29.930  12.954  22.625 -0.3943  0.0685  0.2237
88722W        W31635  24.126  11.917   2.930 -0.0425 -0.2332  0.2904
88723W        W31636  18.860   9.124  22.656 -0.2581  0.2331 -0.1612
88724W        W31637  23.262  10.694  16.863  0.2308  0.0477  0.0400
88725W        W31638  18.732  13.053  21.749  0.1321  0.2569 -0.0611
88726W        W31639  24.255  31.645  18.447 -0.0156  0.1877 -0.0635
88727W        W31640   7.864   3.064   4.203  0.1767 -0.0603  0.0348
88728W        W31641  19.907   8.626  26.225  0.0673  0.0298  0.3591
88729W        W31642  26.713   8.710  14.618  0.0132 -0.2564 -0.1383
88730W        W31643  23.410   8.526  17.245  0.2893 -0.0612 -0.1286
88731W        W31644  12.665  11.904  24.644  0.0523 -0.1161  0.4820
88732W        W31645  26.274  10.657  16.407  0.2470  0.0317 -0.1353
88733W        W31646  24.845  13.934  27.976 -0.2123 -0.1014 -0.2449
88734W        W31647  22.410  10.533  16.420  0.0525 -0.1007 -0.0708
88735W        W31648  15.618   5.084   1.391  0.1702  0.1051 -0.1394
88736W        W31649  23.949  12.086  20.982 -0.2008  0.0172  0.0389
88737W        W31650  29.983  11.026  19.154 -0.1349 -0.0239  0.0485
88738W        W31651  20.189  10.967   1.880  0.2444  0.5196  0.1996
88739W        W31652  11.714  27.384  24.672  0.0179  0.0948  0.0385
88740W        W31653   4.357   7.565  20.057 -0.0433  0.2038  0.1717
88741W        W31654  23.619  11.191  19.869 -0.2711 -0.0222 -0.0416
88742W        W31655  21.467  21.603  28.360 -0.1657  0.2514 -0.2494
88743W        W31656  21.942  20.176  29.334  0.0125  0.1846 -0.1116
88744W        W31657  18.487   9.714  25.650  0.0230  0.1224  0.1947
88745W        W31658  12.016  12.632  25.478  0.1491 -0.0787  0.1050
88746W        W31659  15.039  15.331   0.013  0.0988  0.0166  0.0695
88747W        W31660  22.545  12.429   3.469  0.0800 -0.0259  0.2133
88748W        W31661  31.120  10.682  16.754 -0.4390  0.1171  0.1685
88749W        W31662  27.538  15.149  21.354 -0.0296 -0.2566  0.0841
88750W        W31663  23.878  14.485  21.302 -0.2569 -0.1471  0.0499
88751W        W31664  23.880   8.969  18.736 -0.0260 -0.1513 -0.0314
88752W        W31665  22.621  12.915  24.520 -0.0588 -0.1259 -0.1027
88753W        W31666  17.283  11.510  26.005  0.0957  0.3454  0.0101
88754W        W31667  21.585  14.310  20.895 -0.0358 -0.0200  0.1934
88755W        W31668  14.745   6.409  14.975  0.2342 -0.0391  0.3306
88756W        W31669  21.037   5.700  22.002 -0.0863 -0.0546  0.1055
88757W        W31670  16.219  13.443  17.469  0.1164 -0.0481 -0.0498
88758W        W31671  13.062   6.890  17.045 -0.0518  0.1002 -0.3457
88759W        W31672  31.793  13.771  13.366 -0.0251 -0.0559  0.0867
88760W        W31673  22.520  16.755  26.457 -0.2071 -0.1277 -0.0567
88761W        W31674  21.516  12.663  25.037  0.0188  0.0211  0.1584
88762W        W31675  22.263  12.015  13.364  0.0444 -0.0268 -0.0061
88763W        W31676  22.005   3.564  27.040 -0.1099 -0.0537 -0.0412
88764W        W31677  22.193   4.999  19.010 -0.1412 -0.1400 -0.2481
88765W        W31678  21.898   6.977  16.312  0.0455 -0.1219 -0.3737
88766W        W31679  18.033  10.268  20.004  0.2828 -0.1186  0.0264
88767W        W31680   4.650  23.597  14.872  0.1504  0.3441  0.2344
88768W        W31681  17.809   6.353  22.817 -0.0016 -0.0554 -0.0843
88769W        W31682  11.976  10.312  17.942 -0.2302  0.3107 -0.2519
88770W        W31683  26.834   5.277  17.526 -0.1944 -0.0592 -0.1432
88771W        W31684  18.500   9.452  13.697 -0.1041  0.0172  0.1706
88772W        W31685  24.623  13.158  14.018  0.2125  0.1092 -0.0551
88773W        W31686  15.837  11.171  28.683  0.0520 -0.1778  0.0679
88774W        W31687  31.729  17.270  20.456  0.1899  0.0601  0.1208
88775W        W31688  23.978  19.342  20.945  0.0204  0.1418 -0.1950
88776W        W31689  10.825   9.173  18.179 -0.2577 -0.0663 -0.1024
88777W        W31690  22.281   5.083  25.602 -0.0605  0.0705 -0.1085
88778W        W31691  20.701   4.003   3.701 -0.2873  0.0734  0.0803
88779W        W31692  18.144  20.694  21.182  0.0182 -0.1597  0.2164
88780W        W31693  19.712  11.243  13.830  0.3954 -0.3465  0.1940
88781W        W31694  19.989   7.077  20.308 -0.0485  0.0624 -0.1382
88782W        W31695  22.486   9.172  23.037  0.1029  0.1078  0.1682
88783W        W31696  18.555  32.296  18.950  0.0578 -0.1791  0.1977
88784W        W31697  13.288   8.005  24.486  0.0669 -0.2783 -0.0839
88785W        W31698  17.790   4.094  24.190 -0.1933 -0.2154 -0.1821
88786W        W31699  32.280  10.180  18.342  0.2769 -0.0872 -0.0402
88787W        W31700  32.464   9.254  18.602 -0.2494 -0.0258 -0.0136
88788W        W31701   9.138  11.263  24.889 -0.2437 -0.0039 -0.1968
88789W        W31702  25.139   2.671  19.932 -0.0468 -0.1389  0.1847
88790W        W31703  12.860   7.728  17.307 -0.0620  0.0483 -0.0930
88791W        W31704   9.152  18.601  18.139  0.0726 -0.2356 -0.0516
88792W        W31705   5.302   5.904   1.867 -0.0727 -0.0836 -0.0023
88793W        W31706  33.085  15.470  25.165  0.1724  0.0406 -0.1154
88794W        W31707  12.476   5.002  24.617 -0.1309 -0.1199 -0.3259
88795W        W31708  16.136   7.996  27.909  0.2217  0.0674  0.0515
88796W        W31709  18.886  19.498  14.388  0.1417  0.1111 -0.0257
88797W        W31710  11.418  10.383  24.602  0.0259 -0.2028  0.1374
88798W        W31711  14.188   2.371  18.965  0.2154 -0.2454  0.2061
88799W        W31712  26.195  11.922  16.894  0.0619 -0.1656 -0.2861
88800W        W31713  30.736  15.979  14.120 -0.4146 -0.2960  0.0427
88801W        W31714  25.262  13.552  27.559  0.2903  0.1127 -0.0600
88802W        W31715  33.908  13.132  21.419 -0.1176 -0.0315 -0.0830
88803W        W31716   4.463   4.377  21.935 -0.0806  0.0485 -0.1390
88804W        W31717  13.374  15.551  14.275  0.0663  0.1589  0.2229
88805W        W31718   9.282  12.331  19.976 -0.0715 -0.0565 -0.0660
88806W        W31719   3.407   4.560   4.977 -0.1364 -0.0580 -0.3004
88807W        W31720  18.091   7.178  24.374  0.0258  0.2179 -0.1531
88808W        W31721  25.178   7.644  29.576 -0.0369 -0.3723  0.1032
88809W        W31722  22.275   8.010  29.731 -0.0282 -0.1390 -0.0694
88810W        W31723  27.232  11.654  22.861 -0.2373  0.1594 -0.0011
88811W        W31724  25.302  12.830  19.276  0.0917  0.1640 -0.1711
88812W        W31725  24.565  11.897  25.374 -0.4210 -0.1809  0.2646
88813W        W31726  20.542  11.836   7.450 -0.0988  0.0461 -0.1204
88814W        W31727   8.222   3.630  26.027 -0.2617 -0.0337  0.1032
88815W        W31728  26.623  11.770  19.566 -0.0183  0.3647  0.1072
88816W        W31729  21.697  10.852  19.571 -0.1013 -0.1949  0.0733
88817W        W31730  18.800  10.451  19.398 -0.5257  0.0698 -0.2700
88818W        W31731  14.132  15.469  23.333  0.2551 -0.3110  0.0052
88819W        W31732  15.772  12.941  26.700  0.1139  0.1100  0.3187
88820W        W31733  23.735  16.581  28.317  0.1325 -0.0909  0.3571
88821W        W31734  19.317   3.800  20.530  0.1564 -0.0858 -0.1235
88822W        W31735  20.015   9.133  27.659  0.0595 -0.1089  0.1676
88823W        W31736  13.083   4.846  28.582 -0.0583 -0.0267 -0.0091
88824W        W31737  27.794  26.137  28.441  0.0415 -0.0746  0.0876
88825W        W31738  19.592  13.517  19.449 -0.0683  0.0828  0.1486
88826W        W31739  14.665  17.759   4.367  0.3564 -0.2614  0.0239
88827W        W31740  19.557  19.480   2.929 -0.4081 -0.0025 -0.1445
88828W        W31741  14.410  15.046   2.753 -0.0102  0.0720  0.0280
88829W        W31742  19.957  12.750  24.596  0.1823 -0.0551 -0.0812
88830W        W31743  30.537  22.264   8.815  0.0769 -0.2545  0.1833
88831W        W31744  23.338  10.726  17.591 -0.1309  0.1309  0.2169
88832W        W31745  18.789   8.101  17.068 -0.0892 -0.2145  0.0177
88833W        W31746  22.880  13.886  24.996 -0.1846 -0.1076 -0.1722
88834W        W31747  18.800  20.231  22.328  0.2540  0.1856  0.0775
88835W        W31748   8.584  15.911  17.946  0.3866 -0.2339  0.0407
88836W        W31749  12.745  12.666  16.640 -0.2859  0.2729  0.4523
88837W        W31750  32.505  11.189  21.768  0.0380 -0.0867 -0.0770
88838W        W31751  23.866  15.361  14.410 -0.0193  0.1305 -0.1575
88839W        W31752  23.645  11.793  20.074  0.2412 -0.1219  0.2569
88840W        W31753  13.707  10.771  29.525  0.0959  0.1995  0.1693
88841W        W31754  19.122  33.338  27.394 -0.0337  0.0747  0.0798
88842W        W31755  20.483   7.807  19.915  0.3891  0.4278 -0.0917
88843W        W31756  21.966   8.631  18.497  0.0897 -0.0705  0.2407
88844W        W31757  20.487  33.987  16.657  0.7239 -0.0534  0.1518
88845W        W31758   3.320  10.896  18.296 -0.1639 -0.2880  0.1557
88846W        W31759  11.671   8.083  28.532 -0.1858  0.0767 -0.0286
88847W        W31760  32.697  14.064  21.479 -0.3424 -0.0994 -0.2344
88848W        W31761  12.416   1.612  24.632  0.0824 -0.2023 -0.2477
88849W        W31762  21.549   3.902  27.835  0.1515 -0.0250  0.3487
88850W        W31763  18.856  18.554  13.998  0.0921 -0.2280 -0.0362
88851W        W31764  14.411   9.354  25.982 -0.0052  0.2486  0.1539
88852W        W31765  17.303  10.839  17.546 -0.0979 -0.1397 -0.1214
88853W        W31766  13.793  26.006  25.406  0.0068 -0.1301 -0.2477
88854W        W31767  21.643  20.797  24.732 -0.1551 -0.1972  0.2335
88855W        W31768  17.880   7.393  19.292  0.1081  0.0196  0.3296
88856W        W31769  19.596  18.259  12.287 -0.2251  0.1195 -0.3446
88857W        W31770  13.344  13.124  13.600  0.2520  0.0424  0.1801
88858W        W31771  27.357  12.898  18.425  0.3914  0.6102 -0.2396
88859W        W31772  19.084  12.389   3.630 -0.2759  0.0066 -0.1249
88860W        W31773  20.603  12.061   0.050 -0.1135 -0.1964  0.1885
88861W        W31774  10.814  17.206  20.981  0.2713  0.0077 -0.3148
88862W        W31775  22.455   7.146   0.760  0.0315 -0.2961  0.3813
88863W        W31776  24.605  17.278  18.269  0.0804 -0.2418  0.4756
88864W        W31777  25.204  15.273  18.075 -0.0604  0.4662  0.0032
88865W        W31778  14.183  13.808  19.225  0.4223  0.0133 -0.4154
88866W        W31779  32.502  19.939  27.788  0.3375 -0.0651  0.0884
88867W        W31780   8.929  12.873  18.353  0.2340  0.0503  0.1308
88868W        W31781  29.952  11.868  28.805 -0.1168 -0.1867  0.1539
88869W        W31782  28.212  15.684  18.959  0.1499  0.1882  0.1112
88870W        W31783  27.782   4.671  15.806  0.0457  0.3660 -0.2589
88871W        W31784  24.435   6.753  21.193 -0.2587 -0.2186 -0.3031
88872W        W31785  26.453  21.443  16.390  0.1165  0.2736  0.0471
88873W        W31786  24.399  12.547  22.872 -0.1629 -0.2308 -0.2930
88874W        W31787  22.682  10.061  24.991 -0.0415 -0.3099 -0.3136
88875W        W31788  27.597  19.393  25.324  0.3625  0.2099 -0.3085
88876W        W31789  21.584  18.388  14.551 -0.1073 -0.0591  0.0933
88877W        W31790  23.917  23.956  23.338  0.1730  0.2218 -0.0863
88878W        W31791  18.337   6.885  28.122 -0.2394  0.0310  0.2999
88879W        W31792  14.860   4.496  24.122  0.1530  0.1468 -0.1068
88880W        W31793  21.533   8.637  13.566 -0.1441  0.2289 -0.1765
88881W        W31794  22.920  10.540  25.130  0.3320 -0.0146  0.3111
88882W        W31795  27.143  20.733  20.720  0.0656 -0.2212 -0.1294
88883W        W31796  21.183  18.458   4.963 -0.2297  0.1238 -0.0454
88884W        W31797  24.182  14.505  13.765  0.3503 -0.1496 -0.1528
88885W        W31798  21.867   0.034  26.679 -0.0503  0.1202 -0.1979
88886W        W31799  32.572   3.690  18.482 -0.3270  0.1118  0.0935
88887W        W31800  14.710  34.335   1.629  0.1623 -0.0037 -0.2934
88888W        W31801  22.973  14.130  27.964  0.0858  0.0145  0.2527
88889W        W31802  10.091  12.228  19.800 -0.3309  0.1273 -0.1365
88890W        W31803   9.575   8.964   0.638 -0.3560  0.1364  0.2704
88891W        W31804  21.856   3.428  19.062  0.1313 -0.0215  0.1414
88892W        W31805  26.563  18.827  24.302 -0.4851  0.0322 -0.1404
88893W        W31806  21.421  13.603   1.241  0.1264 -0.2131 -0.1368
88894W        W31807  16.367   6.783  15.574 -0.1101  0.3044  0.0930
88895W        W31808  20.508   7.193  16.365  0.1387  0.1150 -0.2990
88896W        W31809  26.010  12.491  13.311  0.0044 -0.2857 -0.1049
88897W        W31810  34.354  21.990  17.861  0.2195 -0.2616 -0.0829
88898W        W31811  17.149   7.150  28.641 -0.3651 -0.1771 -0.2087
88899W        W31812  17.476  32.480   0.845 -0.1555  0.2708 -0.1662
88900W        W31813  25.557   7.003  17.336 -0.0337  0.0924  0.0504
88901W        W31814  17.381   6.174  23.343 -0.1644  0.0922 -0.0883
88902W        W31815  24.791  17.097  18.915 -0.1319 -0.0076  0.1119
88903W        W31816  15.523  13.798  18.090 -0.2319  0.0643 -0.1962
88904W        W31817  21.662  14.475  15.160  0.1796 -0.0903  0.2286
88905W        W31818  28.733   8.964   1.809  0.6710 -0.2736 -0.1281
88906W        W31819   3.852  15.907   0.886 -0.4533  0.0882 -0.2720
88907W        W31820  21.862  13.063  26.303 -0.2303  0.0539 -0.3384
88908W        W31821  22.195   9.932  14.610 -0.3596 -0.0071  0.1461
88909W        W31822  28.453   8.812  15.871 -0.2278  0.2765 -0.2880
88910W        W31823  26.384  18.915  21.699  0.4180 -0.2841  0.0990
88911W        W31824  14.766   7.925  25.484  0.0749 -0.0899  0.1558
88912W        W31825  24.825  19.656  17.973  0.0871  0.1401  0.0872
88913W        W31826  18.089  10.509  26.975 -0.0119 -0.2111 -0.2231
88914W        W31827  31.763   8.980  26.768  0.1013  0.2749  0.1402
88915W        W31828  14.900   2.528  17.925  0.1426  0.0718  0.0903
88916W        W31829   4.735   7.701  18.062  0.2233  0.2920  0.1574
88917W        W31830  20.587   1.707  25.559 -0.0539  0.1817 -0.1056
88918W        W31831  29.162  29.631  29.417 -0.3011  0.1276  0.2055
88919W        W31832  15.534   5.553  16.947  0.0313  0.0903 -0.1819
88920W        W31833  26.758  10.338  17.692 -0.2575  0.1015 -0.0663
88921W        W31834  30.791   7.631  18.622  0.3576 -0.1915 -0.0936
88922W        W31835  12.966   1.585  19.075  0.2930 -0.0051 -0.0925
88923W        W31836  12.351  10.321  10.681  0.1737 -0.1006  0.1529
88924W        W31837  20.087  14.623  12.457  0.2163  0.2474  0.0836
88925W        W31838  22.838  11.376  23.234  0.1710  0.1723 -0.1604
88926W        W31839  13.836  23.198  18.383 -0.1053  0.1159 -0.2615
88927W        W31840  22.102   2.447  26.006  0.1575 -0.2564  0.0553
88928W        W31841  24.126  32.223  24.675  0.1721 -0.3571 -0.0286
88929W        W31842  31.619  18.515  28.845  0.0823  0.0773  0.0213
88930W        W31843  28.208  17.623  25.128 -0.0733  0.1181  0.0714
88931W        W31844  21.156   8.535  20.783 -0.0971  0.1120 -0.2827
88932W        W31845  30.297   5.271  15.255 -0.2438  0.1742  0.1393
88933W        W31846  15.577   9.885  14.199  0.4821 -0.0378  0.1751
88934W        W31847  18.992  17.901  26.521 -0.1117  0.1332 -0.1803
88935W        W31848  29.399  17.893  24.302  0.0060 -0.2207 -0.4280
88936W        W31849  15.501  11.406  24.098 -0.0162  0.4207 -0.2044
88937W        W31850  12.721  12.687  15.454  0.2618 -0.1167 -0.0591
88938W        W31851  19.779   7.716  16.868 -0.0066  0.2882  0.0048
88939W        W31852  22.470   8.093   1.138 -0.0166  0.1455 -0.0511
88940W        W31853  24.274   7.893  26.259  0.2054  0.0256 -0.0260
88941W        W31854  27.785   9.149  23.952  0.0557  0.1296 -0.2112
88942W        W31855  14.588  18.174  15.068 -0.1374 -0.1257 -0.0501
88943W        W31856  19.024  12.193  25.215 -0.0551 -0.3065 -0.0281
88944W        W31857   8.146   8.202  23.427 -0.4033  0.0351 -0.1034
88945W        W31858  23.580  11.187  16.692 -0.0204  0.0495 -0.0923
88946W        W31859  18.678  22.377  27.310 -0.0991  0.2158  0.0181
88947W        W31860  20.704   7.020  16.857 -0.0372 -0.0799  0.0715
88948W        W31861  23.616  10.535  21.981  0.3890  0.0652 -0.0388
88949W        W31862  23.112   5.391  25.662 -0.1150  0.1178 -0.1202
88950W        W31863  20.164   6.511  29.141 -0.0454 -0.0199  0.2378
88951W        W31864  17.088  17.910  13.797  0.1977  0.1030 -0.1211
88952W        W31865  27.474   6.537  25.060  0.0814 -0.0525  0.1629
88953W        W31866  19.850   8.588   2.650 -0.1224  0.1259  0.3474
88954W        W31867  28.024  11.147  21.509 -0.4721 -0.0469 -0.2290
88955W        W31868  23.746  20.432   0.657  0.1075  0.0783 -0.0275
88956W        W31869  13.198   1.892  23.260 -0.0115  0.1237 -0.0502
88957W        W31870  25.676   9.320  21.016  0.1256  0.1608 -0.3530
88958W        W31871  18.674   1.816  23.147 -0.3031 -0.2264  0.0115
88959W        W31872  22.036  11.418  22.568 -0.3125 -0.1702 -0.0021
88960W        W31873  17.649  11.422  16.195  0.0384 -0.0662  0.1964
88961W        W31874   9.088   6.837  25.382 -0.1027 -0.0858  0.2718
88962W        W31875  20.108   8.002   3.537 -0.2093 -0.4532 -0.3373
88963W        W31876  19.505  18.014  28.686 -0.0400  0.2691 -0.2058
88964W        W31877  27.895   4.028  20.486  0.4645 -0.1370 -0.1530
88965W        W31878  15.815  18.602   1.605  0.1114  0.1153  0.1074
88966W        W31879  14.254   7.900   2.009 -0.1474 -0.2065  0.0807
88967W        W31880  30.068  11.412  25.708  0.4319  0.1131 -0.0923
88968W        W31881  20.654   4.732  21.896  0.1552  0.0209 -0.0375
88969W        W31882  20.972   9.122  19.093 -0.4127  0.1140 -0.2785
88970W        W31883  28.943  14.999  28.261  0.0303 -0.0481  0.1781
88971W        W31884  12.103  10.002  18.559  0.0014 -0.1520 -0.3256
88972W        W31885  22.060  12.765  24.587 -0.1179  0.2366  0.0722
88973W        W31886  20.357  11.564   5.016 -0.0527 -0.0776  0.0091
88974W        W31887  28.714  11.092  27.512 -0.0416  0.0368 -0.0042
88975W        W31888  18.129   4.154   0.142  0.0670 -0.0631  0.1156
88976W        W31889  14.254  11.898  18.260 -0.1753 -0.1689  0.0645
88977W        W31890  30.657  11.209  13.865  0.1736  0.0956  0.0699
88978W        W31891  20.611   4.474   5.928 -0.0061  0.3042  0.0145
88979W        W31892  25.153  20.316  14.992 -0.0087  0.0825 -0.3119
88980W        W31893  19.179   1.759  18.828  0.0187  0.1734 -0.3256
88981W        W31894  22.738   9.869  26.841  0.1340 -0.2972  0.0292
88982W        W31895  11.754  16.032  15.314 -0.1202 -0.2208  0.1848
88983W        W31896  22.637  12.739  22.308 -0.0984 -0.0469 -0.2622
88984W        W31897  13.998  11.091  22.586 -0.1374 -0.4273  0.0427
88985W        W31898   7.606  11.159   3.971 -0.0441 -0.0690  0.2960
88986W        W31899  18.896   9.091   1.805  0.0156 -0.1269  0.1770
88987W        W31900  21.364  12.702  16.623 -0.0008 -0.2002  0.2572
88988W        W31901  12.407  33.584  17.159  0.0425 -0.3849 -0.2046
88989W        W31902  33.319  15.354  19.047 -0.2043  0.0279 -0.1282
88990W        W31903  22.231  34.406  26.340 -0.1529 -0.0023  0.0523
88991W        W31904  13.382   7.045  23.253  0.0331 -0.1411  0.0472
88992W        W31905  28.268   2.919  19.970  0.1262  0.2941  0.1790
88993W        W31906  17.571  31.357  24.447 -0.0654  0.2557  0.2313
88994W        W31907  20.308   9.599  21.530 -0.0011  0.0778 -0.0230
88995W        W31908  23.483  16.045  23.794  0.0290 -0.0686 -0.4450
88996W        W31909  15.390  30.804  15.509 -0.2432  0.2464 -0.0105
88997W        W31910  20.842  16.013  15.716 -0.0128 -0.2185  0.0280
88998W        W31911  14.475   8.676  20.686 -0.1998  0.1561 -0.0126
88999W        W31912  20.688  14.583  12.514  0.1421  0.3893  0.0023
89000W        W31913  21.436  14.127   1.922  0.0921  0.3914  0.1851
89001W        W31914  16.926   9.314  29.628 -0.1215  0.3145 -0.0423
89002W        W31915   8.344  10.016  18.920  0.2813 -0.2748 -0.1984
89003W        W31916  24.862  17.933   0.682 -0.0218  0.0521  0.3695
89004W        W31917  14.292   4.780  26.340 -0.0701  0.2822 -0.3705
89005W        W31918  14.742   3.258  17.129  0.1301  0.0509 -0.1146
89006W        W31919  20.082  13.107   0.615 -0.0742 -0.0482  0.1016
89007W        W31920  15.141  11.817  27.302 -0.0000 -0.2367 -0.2089
89008W        W31921  22.062   5.604  21.849  0.4551  0.0510 -0.3205
89009W        W31922  33.440  10.469  26.365 -0.2027  0.1918  0.1397
89010W        W31923  26.799   5.901   0.946  0.1645  0.1058 -0.1252
89011W        W31924   8.897  20.413  21.364  0.1616  0.0932 -0.1679
89012W        W31925  26.789  26.524  27.991  0.0486  0.0776  0.2902
89013W        W31926   9.402  18.664  21.168 -0.1330  0.1942 -0.0564
89014W        W31927  31.541  11.644  24.671  0.0520  0.1067 -0.1214
89015W        W31928  21.029   8.636  25.826 -0.0111  0.0053 -0.1680
89016W        W31929  23.351   5.750  28.006 -0.0876  0.4230  0.1099
89017W        W31930  27.676  14.709  25.559 -0.4134  0.1958 -0.1020
89018W        W31931  19.942  15.621   5.565 -0.4047  0.0787 -0.0492
89019W        W31932   1.392  16.645  17.711  0.1767  0.0566  0.0835
89020W        W31933  26.479  25.714   6.213 -0.1027 -0.3054  0.0381
89021W        W31934  24.234   7.323   2.123 -0.0777 -0.2013 -0.3949
89022W        W31935  19.795  33.780   2.034  0.2534  0.0284  0.0600
89023W        W31936   3.944   4.293  21.887  0.1999 -0.1362 -0.1301
89024W        W31937  11.754  16.474  14.088  0.1075 -0.4207 -0.0786
89025W        W31938  19.201   4.396  17.163  0.0370 -0.0290 -0.0799
89026W        W31939  10.442  17.195  26.213  0.1982  0.0451 -0.1464
89027W        W31940   2.678  16.888  24.032  0.3427 -0.1352 -0.2768
89028W        W31941  21.402   4.233  23.413 -0.0594  0.1832  0.4678
89029W        W31942  16.831   5.598  24.337 -0.0934 -0.0231 -0.0447
89030W        W31943  30.256  16.001   1.559  0.2149 -0.0440  0.1216
89031W        W31944  17.828   8.453  22.122  0.0487 -0.1780  0.0974
89032W        W31945   9.119  19.474  17.351 -0.1852 -0.0487  0.3302
89033W        W31946  10.066  12.647  27.945  0.0415 -0.1662 -0.0772
89034W        W31947  27.170  25.325  27.489  0.0034  0.1898 -0.1579
89035W        W31948  20.515   2.502  25.964  0.4950  0.3017  0.0780
89036W        W31949  21.440   7.476  23.688  0.1674 -0.1746  0.0118
89037W        W31950  23.743  17.770   3.121  0.0664 -0.0356  0.0160
89038W        W31951  21.825  15.294  26.803  0.1869 -0.0808  0.2071
89039W        W31952  24.320  11.729  27.119 -0.0599  0.0318 -0.1027
89040W        W31953   8.582  21.948   4.649  0.0562  0.1862 -0.0387
89041W        W31954  18.874   5.343  18.070  0.1424 -0.1536  0.0923
89042W        W31955  25.466  15.328  24.277 -0.0500  0.1212  0.0969
89043W        W31956  22.106   5.414  27.582  0.0472 -0.1966 -0.0399
89044W        W31957  18.196   6.629  24.151  0.0057 -0.1560  0.3042
89045W        W31958  21.028  20.255  18.814  0.0277 -0.2295 -0.1409
89046W        W31959  16.341  30.571   3.166 -0.2183  0.3782 -0.0081
89047W        W31960  11.225  21.714  13.755  0.3547  0.0243 -0.2865
89048W        W31961  21.481   9.348  28.208  0.1617  0.0125  0.1314
89049W        W31962  17.123  12.278  24.656  0.0941 -0.0478 -0.0135
89050W        W31963  20.085   3.381  15.693  0.0850 -0.4520 -0.0884
89051W        W31964  13.688  30.991   5.001  0.1772  0.1858 -0.0425
89052W        W31965  19.910   3.606  23.654  0.3073 -0.1482  0.0531
89053W        W31966  24.607  21.532  23.792 -0.2803  0.1604 -0.0662
89054W        W31967  16.263  10.830   3.319  0.0714 -0.0717  0.3091
89055W        W31968  17.506  11.234   0.880 -0.2004 -0.1793  0.3816
89056W        W31969  29.701   4.216   9.520 -0.0551  0.1385 -0.2009
89057W        W31970   2.835  15.529   1.177  0.0301 -0.2401 -0.2628
89058W        W31971  11.111  14.214  29.254 -0.1518  0.0568 -0.1626
89059W        W31972  17.969  10.577  21.507  0.1957 -0.0416 -0.3384
89060W        W31973  15.125   4.337  27.482 -0.3424  0.0375  0.4406
89061W        W31974  25.093   4.015  22.532 -0.1017 -0.2363  0.3392
89062W        W31975  13.601  19.394  16.964  0.1126  0.0842 -0.0486
89063W        W31976  12.425   1.967  28.707  0.1227 -0.2363 -0.3759
89064W        W31977  20.340   2.548   9.310 -0.0053  0.2952  0.0965
89065W        W31978  18.807  13.450  27.600 -0.0563  0.1327 -0.3003
89066W        W31979  21.698  10.423   7.026 -0.3101 -0.0102  0.1050
89067W        W31980  33.349  28.508  25.906  0.1077  0.1289 -0.1089
89068W        W31981  19.182   7.894  14.758  0.0836 -0.3215  0.0828
89069W        W31982   6.840  10.293  23.322  0.1256  0.1170 -0.3866
89070W        W31983   9.311  21.364   2.817 -0.2190 -0.1351  0.0786
89071W        W31984  21.766  13.209  27.500 -0.1241  0.0632 -0.3573
89072W        W31985  16.800  16.032   3.490  0.1603 -0.0018 -0.1242
89073W        W31986  16.047  19.566   0.773 -0.1667 -0.1713  0.1756
89074W        W31987  16.728   8.884  24.999 -0.2816 -0.2022 -0.0628
89075W        W31988  16.437  33.628  27.310  0.0508  0.2420 -0.2002
89076W        W31989  12.216  20.016  28.095 -0.1995 -0.0402  0.1230
89077W        W31990  25.289  12.692   6.647 -0.2474  0.4073  0.0287
89078W        W31991  17.212  21.034   2.625 -0.0215  0.0659  0.0376
89079W        W31992  11.303  13.962  28.663  0.0937  0.0958  0.1216
89080W        W31993  24.969  13.089  27.429  0.1179 -0.0062  0.0832
89081W        W31994  20.833  27.977  29.780  0.0809 -0.1771  0.0810
89082W        W31995  13.438   1.405  20.536  0.0462  0.3037  0.0226
89083W        W31996  13.791  21.077  23.795  0.1704 -0.0153 -0.0094
89084W        W31997  17.913   5.162  28.827  0.0470  0.0089  0.2212
89085W        W31998  19.238  16.418  12.961  0.1917 -0.2330  0.2093
89086W        W31999  23.477  13.572  24.462 -0.2338 -0.1137 -0.1071
89087W        W32000  11.765   9.733  16.726 -0.0296  0.1174  0.2680
89088W        W32001  25.721  14.108   7.113 -0.0788 -0.0536  0.1746
89089W        W32002  26.102  10.511   1.218  0.2325  0.1380  0.0053
89090W        W32003  11.472   6.915  29.524 -0.0615 -0.1057  0.0360
89091W        W32004  26.099  21.627  17.443 -0.0712  0.0778 -0.2824
89092W        W32005  23.007   9.925   7.321  0.1550  0.2302 -0.2049
89093W        W32006  22.331  13.090  25.976 -0.0667  0.2121  0.0745
89094W        W32007  13.339  13.189  24.602 -0.2092 -0.2159 -0.1155
89095W        W32008  20.817   7.169  25.546  0.0631 -0.1060  0.3173
89096W        W32009  26.931  20.028  20.565  0.0617  0.2092  0.2985
89097W        W32010  28.722   3.529  24.905 -0.3460 -0.1999  0.2080
89098W        W32011   8.190  26.221   6.013 -0.2035 -0.2450 -0.3804
89099W        W32012  14.269  17.390   1.319  0.0940 -0.0839 -0.1779
89100W        W32013  15.426   9.069  17.109  0.1496 -0.2439 -0.0117
89101W        W32014  16.782  13.776   6.214 -0.1463 -0.1930 -0.0480
89102W        W32015  23.023  18.183  23.075 -0.1160 -0.3010 -0.1859
89103W        W32016  17.597   2.880   0.693  0.0143 -0.2722 -0.1266
89104W        W32017  27.633  14.663   9.068 -0.1788 -0.0096 -0.0326
89105W        W32018  11.662  11.804  25.816 -0.2000 -0.0814  0.1712
89106W        W32019  21.555  17.788  17.634  0.2415 -0.0082 -0.2650
89107W        W32020  29.459   9.035   5.875  0.1466 -0.1528  0.1950
89108W        W32021  17.761  10.092  17.562 -0.1066  0.1574  0.2181
89109W        W32022  29.657  17.804  28.010  0.1103 -0.2098 -0.0183
89110W        W32023  19.084  16.423  26.213 -0.0409  0.1811  0.3809
89111W        W32024  25.001   6.509  28.479 -0.0713  0.0363 -0.0784
89112W        W32025  11.694  24.477  29.664 -0.1487 -0.1168  0.0642
89113W        W32026   1.005   7.577  24.568  0.0377  0.0695 -0.0618
89114W        W32027  13.146  14.347  16.002 -0.1843 -0.2719  0.0114
89115W        W32028  19.047   7.610  24.349 -0.0549  0.1559 -0.1791
89116W        W32029   6.556  14.914   0.562 -0.1734  0.1948 -0.0752
89117W        W32030  20.908   3.786  22.260 -0.1755  0.3398  0.1767
89118W        W32031   6.136   7.186   7.531 -0.1031  0.0235 -0.2480
89119W        W32032  21.799   3.960   1.370 -0.0076 -0.1741  0.2238
89120W        W32033  26.622   7.166  15.463 -0.1307  0.1195 -0.3146
89121W        W32034  19.336   5.042   1.837  0.0820 -0.3355 -0.0127
89122W        W32035  24.842  18.534  17.666  0.3426 -0.1000  0.2442
89123W        W32036  19.195   7.559  25.601  0.1047  0.2305  0.0370
89124W        W32037  13.925   5.027  26.013 -0.0220  0.2230 -0.0136
89125W        W32038  30.729  15.852   4.014 -0.1826  0.1002  0.2176
89126W        W32039  16.486   8.158  26.744 -0.0794 -0.0991  0.1412
89127W        W32040  20.719  10.960   8.505 -0.0960  0.1182  0.1683
89128W        W32041  16.433  10.685   1.675  0.2784  0.0774 -0.0928
89129W        W32042  20.680   6.681  17.351  0.2224 -0.3544 -0.3295
89130W        W32043  18.926  10.009   5.680 -0.0731 -0.2854 -0.1135
89131W        W32044  29.336  14.040  24.248 -0.1682  0.2500  0.2317
89132W        W32045  24.733   8.617  28.747 -0.0802  0.1158  0.2579
89133W        W32046  10.112   6.072  20.325 -0.0756  0.0734 -0.2073
89134W        W32047  22.461  16.537  22.466  0.2006 -0.0127  0.1740
89135W        W32048  22.125  18.295   2.147  0.4032 -0.0428  0.1990
89136W        W32049  28.230  15.982  16.669  0.2317 -0.1433 -0.3830
89137W        W32050  27.390   3.948  29.378 -0.0718  0.1131 -0.1420
89138W        W32051  23.609   4.238   2.573 -0.1951 -0.0213 -0.2150
89139W        W32052  13.731  16.755   5.754  0.0746 -0.6079  0.0770
89140W        W32053  29.341  11.917   1.277  0.0029  0.2774  0.1476
89141W        W32054  17.912   6.752  29.611 -0.0044 -0.0246 -0.1363
89142W        W32055  20.238   3.451  27.415 -0.0294  0.2552 -0.1446
89143W        W32056  21.456  19.050   6.975 -0.1303 -0.0368  0.3847
89144W        W32057  23.547  14.910  25.137  0.0401 -0.1322  0.3409
89145W        W32058  19.175  12.411   0.479  0.2157 -0.1794 -0.3161
89146W        W32059  29.147  14.024  26.612 -0.1735  0.1279  0.0626
89147W        W32060  26.727  10.375  19.672  0.0736 -0.4217  0.2893
89148W        W32061  19.535   1.835  17.223 -0.1833  0.0075 -0.1733
89149W        W32062  22.527  10.846   3.985 -0.1614  0.0314  0.0251
89150W        W32063  18.142  13.800  23.645  0.1465 -0.0092  0.0161
89151W        W32064   4.507   7.747   4.557 -0.1675  0.0579 -0.1947
89152W        W32065  13.609   7.888  29.075 -0.0223 -0.0474  0.2030
89153W        W32066   9.383  15.747  22.063 -0.0957 -0.4296 -0.1811
89154W        W32067  14.161  17.173   4.510  0.1346  0.2886  0.1547
89155W        W32068  18.193   5.503  25.020 -0.0187 -0.0926 -0.1681
89156W        W32069  14.069  15.130   1.084 -0.0820 -0.4189  0.2491
89157W        W32070  10.410   7.056  28.903 -0.0742  0.0512  0.0317
89158W        W32071  20.519   7.556   2.283 -0.0866  0.0903  0.1109
89159W        W32072  15.687   6.593  20.869 -0.1782 -0.1093 -0.1175
89160W        W32073  25.306   8.936  24.939 -0.0939  0.0665  0.1410
89161W        W32074  22.047  17.501  25.436 -0.0298 -0.0957 -0.2451
89162W        W32075  28.420   5.012   4.860 -0.1925 -0.0789  0.1327
89163W        W32076  14.470  14.587  18.916 -0.4152 -0.0993 -0.0212
89164W        W32077  19.603   8.778  22.173  0.1577 -0.0707 -0.0893
89165W        W32078   6.395   5.304  20.173 -0.1794  0.2594  0.0615
89166W        W32079  19.659  18.736  28.854 -0.0673  0.0406 -0.2334
89167W        W32080  26.855   3.040  20.592 -0.0866  0.3979 -0.3823
89168W        W32081  16.302  27.138   0.570  0.1216  0.0318 -0.1307
89169W        W32082  19.321   9.901  29.570  0.0203 -0.0035  0.3299
89170W        W32083  23.322  11.759   4.888  0.1658  0.0116 -0.0734
89171W        W32084  29.114  10.003   1.855  0.1478 -0.0692  0.0147
89172W        W32085  19.675   3.300  28.715  0.1007 -0.2634  0.1349
89173W        W32086  30.406  12.724  25.768 -0.0927 -0.0404 -0.1365
89174W        W32087  16.417  11.141   6.349  0.1460 -0.3844 -0.2369
89175W        W32088  16.531   1.436  17.852  0.2298 -0.0212  0.1203
89176W        W32089  20.280  34.036   0.958 -0.0383  0.0110 -0.3894
89177W        W32090  11.391   7.016  23.444 -0.1926 -0.0789 -0.1610
89178W        W32091  21.399   4.550   9.215 -0.1011  0.0883  0.3483
89179W        W32092  18.766  18.601   7.248  0.2105 -0.0207 -0.3000
89180W        W32093  14.076  16.880  22.957 -0.2217  0.3195  0.3762
89181W        W32094  19.112  19.192  24.718 -0.3440 -0.1262  0.3346
89182W        W32095  16.663   4.363  28.086 -0.0924  0.0573 -0.0121
89183W        W32096   7.278  11.991  20.090  0.1715 -0.1156 -0.0222
89184W        W32097  20.185  17.412  25.915 -0.0524 -0.3859 -0.0775
89185W        W32098  15.451   2.392   4.874  0.4880  0.0664  0.1473
89186W        W32099  24.806   8.048   4.319 -0.1502 -0.3295  0.3108
89187W        W32100  21.233  17.689  22.232 -0.1821 -0.1100 -0.0906
89188W        W32101  29.234  20.269  24.564  0.0972 -0.0885  0.1034
89189W        W32102  33.243  21.667   4.033 -0.3014 -0.3136 -0.1849
89190W        W32103  11.278   5.023  18.772 -0.2197  0.0039  0.0420
89191W        W32104  27.926  13.984  28.241 -0.1071 -0.0391 -0.0316
89192W        W32105  14.751   3.029   8.438 -0.0098  0.3783  0.1316
89193W        W32106  23.533   3.602   6.159  0.1812 -0.1609  0.1693
89194W        W32107  11.797   7.967  23.218  0.2294  0.0723  0.2740
89195W        W32108  17.259   4.599  23.435 -0.0695 -0.0568  0.1777
89196W        W32109  19.785  18.621  25.190 -0.0527 -0.2713  0.0867
89197W        W32110  25.888   2.745  25.509  0.1550  0.4510  0.0480
89198W        W32111  15.264   9.154  10.098  0.0971 -0.2226  0.1341
89199W        W32112  14.038  10.985  24.300  0.3478  0.2422  0.0736
89200W        W32113  15.938  10.130   5.990 -0.1312 -0.1342  0.0664
89201W        W32114  10.515  15.198  28.368  0.1812  0.2415 -0.0861
89202W        W32115  23.947   5.617  14.962 -0.3030  0.2209  0.0207
89203W        W32116  10.386   0.327  27.662  0.0112 -0.1368 -0.3733
89204W        W32117  27.910   9.247  25.002 -0.0109 -0.1019  0.0364
89205W        W32118  14.861   6.153  27.907  0.3893 -0.1048 -0.1380
89206W        W32119  16.518   0.476   7.606 -0.5082  0.4524 -0.3462
89207W        W32120  29.322  19.462  22.474 -0.1787  0.2033 -0.1859
89208W        W32121   0.221   8.123   8.724 -0.0160  0.0073  0.3693
89209W        W32122  11.912  25.593   0.790  0.1812 -0.2674  0.0155
89210W        W32123  28.117  16.758  27.441 -0.4967  0.1180 -0.0454
89211W        W32124  19.177  21.500  12.485 -0.0155  0.1009  0.3017
89212W        W32125  10.412  11.208   2.039  0.0732  0.1803 -0.1975
89213W        W32126  16.995   4.091  26.434 -0.0161 -0.2477  0.0482
89214W        W32127   2.056  13.511  24.008 -0.3014 -0.1537  0.0653
89215W        W32128  20.516  17.375  20.845  0.0534 -0.2545 -0.2411
89216W        W32129  22.453  18.459  23.072 -0.1834 -0.0536  0.2991
89217W        W32130  22.202  15.094   0.948 -0.3759 -0.1038 -0.0037
89218W        W32131  14.136  13.304  17.616  0.0202 -0.1831  0.1099
89219W        W32132  27.855  14.789   8.626  0.1485 -0.1961  0.0503
89220W        W32133  16.657   3.953   0.044  0.1870 -0.1290 -0.2227
89221W        W32134  20.879  13.442  26.564 -0.1669 -0.0272  0.1622
89222W        W32135  32.831  13.266  20.737 -0.0410  0.0062 -0.0564
89223W        W32136  16.084  17.735   1.764  0.0926  0.0804 -0.1395
89224W        W32137  23.525  15.021  27.130  0.1309  0.0441  0.0427
89225W        W32138  25.253  31.112   2.211  0.1061 -0.1412 -0.0836
89226W        W32139  26.212  17.838   0.631 -0.1144  0.0534 -0.1767
89227W        W32140  29.120   7.157   3.548  0.0328 -0.3304 -0.0017
89228W        W32141  25.353  12.869  25.694  0.3427  0.1470 -0.1460
89229W        W32142  20.514  17.424  26.344  0.2355  0.0726 -0.0224
89230W        W32143  26.914   7.573  10.670  0.2504 -0.0231  0.2562
89231W        W32144  10.798  13.766   4.841 -0.1054  0.1151 -0.1704
89232W        W32145  17.135  13.928  25.904  0.2350 -0.2546 -0.1777
89233W        W32146  17.509  12.584  29.706  0.0325 -0.1371 -0.1004
89234W        W32147  22.061  20.912  22.205  0.2413  0.1975  0.1431
89235W        W32148  21.434  34.175   0.292  0.0711 -0.0545  0.1038
89236W        W32149  23.828  31.695  20.692  0.0734 -0.0787  0.0891
89237W        W32150  20.782  17.585  24.853  0.0998 -0.1005 -0.2152
89238W        W32151  24.934  17.072  24.100  0.0514 -0.0954  0.2217
89239W        W32152  19.468  21.883  21.850  0.3323 -0.0202 -0.3057
89240W        W32153  18.185   8.506  28.613 -0.2814 -0.0645 -0.0172
89241W        W32154  20.961  15.013  20.003  0.0822  0.4429 -0.3911
89242W        W32155  30.145   3.399  27.928  0.0504 -0.0162 -0.2929
89243W        W32156  23.498   6.181  23.636 -0.3888 -0.0448 -0.0622
89244W        W32157  12.495   1.039  28.548  0.1182  0.4100  0.1529
89245W        W32158   8.117   6.241  28.501 -0.1230 -0.1715 -0.0869
89246W        W32159  20.744   5.594   5.381 -0.0626 -0.0399 -0.3051
89247W        W32160   3.130   7.668  28.052  0.0822 -0.4649  0.1213
89248W        W32161  14.520  18.699  22.815  0.0682  0.1740  0.0085
89249W        W32162  20.845   7.156  23.642  0.1543 -0.0056 -0.1468
89250W        W32163  13.569   8.849  25.912 -0.0586 -0.0542  0.0830
89251W        W32164  18.463  10.717   2.331 -0.0474  0.1094 -0.0571
89252W        W32165  21.687   6.556   5.143  0.1491  0.0138 -0.1521
89253W        W32166  20.777   0.746  27.455 -0.2876  0.0121  0.3303
89254W        W32167  16.585   7.213  23.791  0.0266 -0.1567  0.0848
89255W        W32168   6.159  20.148  26.643  0.1238  0.3715  0.1721
89256W        W32169  13.053   1.422   8.250  0.1031  0.0099  0.0642
89257W        W32170  18.720  24.057  29.534 -0.2971 -0.0797  0.1149
89258W        W32171  19.709   3.904  28.716  0.0848 -0.2210 -0.0303
89259W        W32172  28.491  33.602   8.053 -0.3653 -0.1358  0.1650
89260W        W32173   4.150  15.104  10.110  0.1729  0.0538 -0.2082
89261W        W32174  29.936   0.357   2.913  0.1761  0.1200  0.1093
89262W        W32175  25.087   4.768   9.604  0.0667 -0.0591 -0.0397
89263W        W32176  27.050  15.982   7.736  0.0980  0.0766  0.0234
89264W        W32177  19.749   5.524  22.330 -0.1808 -0.0502  0.2576
89265W        W32178  23.671  18.513  20.518  0.1143 -0.1961 -0.0782
89266W        W32179   8.740  32.069   2.298 -0.0243  0.1249  0.0692
89267W        W32180  16.622   8.065  20.528 -0.1873 -0.0712 -0.1321
89268W        W32181  21.656  11.930  14.763 -0.2407 -0.2602 -0.3408
89269W        W32182  11.089  11.380  29.558 -0.1530  0.0513  0.0177
89270W        W32183  27.742  14.716  21.619 -0.2551 -0.0820 -0.2651
89271W        W32184  26.349   6.295   1.272 -0.1675  0.0793  0.3723
89272W        W32185  29.465   4.816   1.752  0.3436  0.0252  0.0833
89273W        W32186  21.640  15.008  26.440  0.0251 -0.1428  0.0789
89274W        W32187  30.013  17.224  23.128 -0.2370 -0.1781  0.4786
89275W        W32188  14.475  16.889  22.379  0.3196 -0.0994  0.2068
89276W        W32189  22.825   0.175  10.105  0.4763  0.1806  0.1182
89277W        W32190  20.563   6.353   1.617  0.2862 -0.1441  0.1646
89278W        W32191   8.285   9.112   0.232 -0.0670 -0.0567 -0.0063
89279W        W32192  16.896  11.519  28.213  0.1277  0.1266 -0.0369
89280W        W32193  10.738   3.623  26.026 -0.2884  0.0564  0.3956
89281W        W32194  13.437   8.125   1.399  0.1744 -0.1025  0.1306
89282W        W32195  33.340   5.407   2.755 -0.0101  0.2120 -0.3075
89283W        W32196  16.003   8.064  24.899 -0.1642 -0.0808  0.0371
89284W        W32197  27.676   9.054   8.222 -0.0019  0.1464 -0.2117
89285W        W32198  20.555  14.540   3.414 -0.2359  0.0397  0.1934
89286W        W32199  15.619  34.492   1.857 -0.0146  0.0363 -0.3788
89287W        W32200  12.668   7.202  19.170  0.1087  0.2078  0.2744
89288W        W32201  30.046   8.384  15.796  0.2445  0.0202 -0.1510
89289W        W32202  25.513   7.287  20.628  0.3137 -0.1964  0.4222
89290W        W32203  23.397  16.536  12.530 -0.0386 -0.2097 -0.2372
89291W        W32204  18.261  20.718  28.819  0.0176 -0.0842 -0.3774
89292W        W32205  18.401  10.961  22.923  0.4502 -0.1478 -0.0122
89293W        W32206  24.030  10.938  26.761  0.1114 -0.2746 -0.0677
89294W        W32207  18.059  11.606  23.369 -0.1372  0.0629 -0.0691
89295W        W32208  20.368   6.130  24.596  0.0998  0.2379 -0.2560
89296W        W32209  18.352  31.443  19.228  0.0460  0.2374 -0.0195
89297W        W32210  13.621  12.809  28.209  0.1219  0.1640 -0.0510
89298W        W32211  20.282  20.142   1.375  0.0427  0.1321 -0.3791
89299W        W32212  28.531   9.303  28.848 -0.0662  0.2045  0.0732
89300W        W32213  28.596  14.791  24.439 -0.2266  0.3737  0.1398
89301W        W32214  12.652   9.445  27.875  0.0921  0.2429  0.0801
89302W        W32215  15.444  32.420  10.307 -0.0149 -0.4165  0.4856
89303W        W32216  26.883   8.340  23.134 -0.3218 -0.0182  0.0729
89304W        W32217  20.972  11.607  24.554 -0.0684  0.0297 -0.0312
89305W        W32218  16.771  30.439  17.589 -0.1093  0.1213 -0.1609
89306W        W32219  18.459  13.567   7.971  0.1302  0.0433  0.0089
89307W        W32220  18.179  23.710  29.328 -0.0638 -0.1525 -0.0577
89308W        W32221  13.496  15.456  15.116 -0.0224 -0.0784 -0.1158
89309W        W32222  25.906  16.150   1.970  0.2748  0.0309  0.0295
89310W        W32223  19.885   7.407  16.448  0.1105 -0.0026  0.0562
89311W        W32224  10.816   0.968  22.784  0.1697 -0.1776 -0.2674
89312W        W32225  23.208  10.555  26.574  0.1846 -0.0059  0.2038
89313W        W32226  30.832  18.966   6.476 -0.2126  0.0554 -0.2775
89314W        W32227  20.965  16.584  21.130 -0.2226 -0.0707 -0.1808
89315W        W32228   2.742  13.605   0.148 -0.1506  0.1353  0.0572
89316W        W32229  19.768  14.898   7.890  0.0118 -0.1164 -0.2180
89317W        W32230  16.382   6.145   1.992  0.3636  0.0561 -0.1036
89318W        W32231  20.241  12.267  29.481 -0.0999 -0.4015 -0.2593
89319W        W32232  19.162  22.173  26.527 -0.1207  0.1919 -0.3028
89320W        W32233  19.575   9.635   3.610  0.0663 -0.0274  0.2262
89321W        W32234  24.824  10.691  26.335  0.1040  0.1699  0.0143
89322W        W32235   3.862  20.220   4.110  0.0644 -0.0493 -0.0630
89323W        W32236  23.831  28.432   4.199  0.3366  0.0321  0.0290
89324W        W32237  16.323   1.329   4.971  0.1694  0.2592  0.1717
89325W        W32238  24.386   1.972  26.482  0.2752  0.1133 -0.1967
89326W        W32239  20.945   5.094   1.098  0.0712 -0.0283 -0.2013
89327W        W32240  19.186  10.898  24.123  0.0614  0.1736 -0.0147
89328W        W32241  24.681   8.134   0.240  0.2072  0.0493  0.1338
89329W        W32242  20.989  13.231  29.117  0.2159  0.0966 -0.1869
89330W        W32243  22.066   6.368   2.918  0.2001 -0.0422 -0.1009
89331W        W32244  17.764  15.455  22.887  0.0977 -0.0050  0.0905
89332W        W32245  16.748   0.192  21.951  0.0333  0.1395  0.3647
89333W        W32246  24.069  23.970   6.048  0.1653 -0.0705  0.0523
89334W        W32247  23.946  16.798   1.558  0.0907  0.0821 -0.0731
89335W        W32248  23.413   5.843   0.365 -0.1288 -0.1292 -0.0303
89336W        W32249  23.613  15.197   3.606  0.3668  0.0539  0.2652
89337W        W32250  12.912   6.786  26.478 -0.1485 -0.1895  0.3255
89338W        W32251  28.396  11.349  28.257  0.2678  0.0181  0.0474
89339W        W32252  26.021   1.895   5.568 -0.1174  0.2324  0.0839
89340W        W32253  18.782   7.817  19.562  0.0802  0.2516 -0.1257
89341W        W32254  25.443   8.383  27.944  0.1210 -0.2097 -0.4145
89342W        W32255  15.816   8.994   2.571 -0.2485 -0.0164 -0.0527
89343W        W32256  21.385  15.229  19.765 -0.1214  0.1586  0.0360
89344W        W32257  16.052  17.860  12.573 -0.0674 -0.1874  0.0536
89345W        W32258  22.520  13.764   0.643 -0.2889 -0.0255 -0.1594
89346W        W32259  17.099   2.147  27.019 -0.0152 -0.1390 -0.1707
89347W        W32260  11.829  19.371  22.762 -0.0240 -0.3234 -0.1953
89348W        W32261  16.210   6.808  24.616 -0.0356 -0.3437  0.0793
89349W        W32262  22.687  21.164  23.554  0.0411  0.0606 -0.2193
89350W        W32263  15.749   3.703  20.690  0.1183  0.0438  0.0870
89351W        W32264  27.111  19.113  20.244  0.1749  0.4498  0.0245
89352W        W32265  13.131  13.865   3.063  0.1721  0.0048 -0.1275
89353W        W32266  23.350   6.272   4.620  0.1132  0.1935  0.0611
89354W        W32267  18.874  19.041  26.185  0.1452  0.4258  0.0994
89355W        W32268   7.140   9.036  27.764  0.1596 -0.2030  0.1166
89356W        W32269  24.404  26.533   3.544 -0.2395  0.0362  0.0797
89357W        W32270  18.129  16.830  22.938 -0.0661  0.4035  0.1320
89358W        W32271  13.113  12.495   7.426 -0.1356 -0.1645 -0.1084
89359W        W32272  10.014  12.950  17.532 -0.1133  0.0769 -0.1250
89360W        W32273  22.599  17.416  27.223  0.2368 -0.1317  0.1931
89361W        W32274  12.217  14.630  21.361 -0.1373  0.1198 -0.2933
89362W        W32275  20.038   2.014  21.754 -0.2394  0.0873  0.0759
89363W        W32276  11.144   7.433  26.274  0.1422 -0.1272  0.2768
89364W        W32277  25.356   7.373  23.425 -0.1524 -0.0036  0.1476
89365W        W32278  31.987   4.227  17.070 -0.2840 -0.0432  0.0417
89366W        W32279  21.686   6.981   0.471  0.1823 -0.1333  0.0705
89367W        W32280   8.430  34.074   5.403  0.4325 -0.1327 -0.0006
89368W        W32281  16.159   9.105   2.988 -0.0415 -0.0608 -0.4352
89369W        W32282  21.389  33.955   2.280 -0.1882 -0.0181 -0.1924
89370W        W32283  21.981   9.837  29.090 -0.1629  0.1138  0.1794
89371W        W32284   1.069  10.080  20.440 -0.2234 -0.0148 -0.0388
89372W        W32285  17.254  19.126  22.425  0.0530 -0.0232  0.0816
89373W        W32286  26.230  22.583  28.232 -0.1214 -0.2889  0.3974
89374W        W32287  15.046   6.906  24.906 -0.0700 -0.1568 -0.2598
89375W        W32288  20.190  28.903  22.124 -0.1052  0.1923  0.0665
89376W        W32289  21.405  16.117  27.884  0.0448 -0.1226 -0.2469
89377W        W32290  16.738   1.139  29.707  0.0896  0.2933 -0.2588
89378W        W32291  32.080   7.639  22.034  0.0222  0.2545 -0.2924
89379W        W32292   9.941   2.149  16.954 -0.1277 -0.1813 -0.0825
89380W        W32293  24.029   9.179  26.505 -0.0076  0.0097  0.3128
89381W        W32294  18.334   3.251  23.630  0.0698  0.0498  0.0232
89382W        W32295  22.712  19.423  29.604  0.1705 -0.0810  0.1552
89383W        W32296  24.857   9.827   1.829 -0.4403 -0.2818  0.2101
89384W        W32297  23.589   5.576   0.002  0.0692  0.1298  0.1686
89385W        W32298  19.678  16.495   5.914  0.0078  0.0933  0.1094
89386W        W32299  12.401  14.414  23.353  0.0538  0.1807 -0.1296
89387W        W32300  32.148  21.027  26.226  0.2589  0.2165  0.1101
89388W        W32301  21.044  13.007   6.000  0.1422 -0.2504 -0.1513
89389W        W32302  29.311  13.011  26.573  0.2141  0.0029  0.0514
89390W        W32303  15.781   9.590  13.864 -0.0619 -0.0271  0.4463
89391W        W32304  17.879  13.815  23.160  0.1310 -0.0927  0.1374
89392W        W32305  13.584  13.327  21.461  0.0959  0.0544  0.0077
89393W        W32306  18.963   5.027   8.920  0.1328  0.0829  0.1182
89394W        W32307  13.754   5.643  18.072 -0.0767  0.4748 -0.1043
89395W        W32308  14.721   7.054  21.146 -0.0443 -0.1327  0.3119
89396W        W32309   7.968   4.673  22.557 -0.0193 -0.0214  0.0654
89397W        W32310  15.691   8.393  25.435 -0.1351  0.3164  0.0650
89398W        W32311  16.200   6.449  26.818  0.2476  0.1198 -0.0747
89399W        W32312  27.714  12.786  27.488  0.2484 -0.3039 -0.0431
89400W        W32313  19.712  12.233  27.866 -0.3021 -0.0533  0.3093
89401W        W32314   5.000   5.149   1.986 -0.0221 -0.0380  0.1440
89402W        W32315  25.313  13.361   4.995 -0.1154  0.0741  0.1269
89403W        W32316  16.383   5.985  28.607 -0.2662  0.0080  0.1448
89404W        W32317  15.283  14.847   3.177 -0.2214  0.2047  0.0887
89405W        W32318  25.713   8.968  19.513 -0.0267 -0.4448 -0.2766
89406W        W32319  24.165   8.478  24.927  0.1973 -0.3288  0.0525
89407W        W32320  23.776  14.951  17.032 -0.2400 -0.1781 -0.0151
89408W        W32321  31.052  11.149   3.998  0.2887  0.1267 -0.2155
89409W        W32322  20.535  10.886  26.806 -0.0054  0.1521 -0.0366
89410W        W32323  27.790   3.466   7.526 -0.1921  0.0471 -0.2748
89411W        W32324  20.024  10.589   2.949 -0.0976 -0.0394  0.1552
89412W        W32325  28.265  14.107  23.920  0.0292 -0.0378  0.4577
89413W        W32326  18.392   4.912   1.718 -0.1144  0.1004  0.1343
89414W        W32327  13.367  15.021  23.391  0.1674  0.0684  0.2068
89415W        W32328  22.182   9.665   7.884 -0.0030  0.1504 -0.0678
89416W        W32329  18.744   8.269  20.886 -0.1190 -0.0184 -0.0357
89417W        W32330  19.470   5.203   7.973 -0.2437  0.0831 -0.2030
89418W        W32331  17.906  10.596  23.863 -0.1468  0.0984  0.2238
89419W        W32332  21.470   1.409   2.134 -0.3018 -0.1699 -0.3442
89420W        W32333  28.080  13.942  20.981 -0.1934 -0.0997 -0.3569
89421W        W32334  19.226   6.505  27.222  0.0160 -0.0031 -0.4129
89422W        W32335  27.942  14.247  20.064 -0.1582  0.3576  0.1956
89423W        W32336  21.655   9.926  24.121 -0.0225 -0.2436 -0.1438
89424W        W32337  27.294  21.558  29.097  0.0751  0.2403 -0.1680
89425W        W32338  27.108   6.737  19.754 -0.0115  0.0912 -0.0956
89426W        W32339  11.663  20.086  26.814  0.1265  0.1404  0.2226
89427W        W32340  16.819   4.832   2.114 -0.0901 -0.0785 -0.0419
89428W        W32341  17.984  13.355  28.177  0.2581 -0.0483 -0.0420
89429W        W32342   8.371   5.725   5.018  0.3753  0.0257  0.1749
89430W        W32343  19.225  10.485   1.531 -0.0500 -0.2281 -0.3364
89431W        W32344  15.766   4.543  24.747  0.0590 -0.3019  0.0538
89432W        W32345  12.971   0.442   7.039  0.0829 -0.2351  0.0625
89433W        W32346  22.694   7.703  24.017 -0.0053  0.1410  0.2620
89434W        W32347  16.847  10.765  17.873  0.1426 -0.0078  0.0892
89435W        W32348   8.471  17.202  28.783 -0.1712 -0.1309  0.0775
89436W        W32349  23.047   6.481   0.495  0.2760  0.2158  0.0445
89437W        W32350  27.547   7.037  25.481 -0.1483 -0.0165  0.0615
89438W        W32351  15.176  16.709   3.557 -0.0541 -0.0256  0.1176
89439W        W32352  13.086   5.407   6.687 -0.1576 -0.0175 -0.2544
89440W        W32353  14.220  18.962   0.946 -0.0266  0.0258 -0.1361
89441W        W32354  21.058  11.463   5.023  0.0866  0.0953  0.1924
89442W        W32355  22.106   9.964   6.512  0.2740  0.0954 -0.1192
89443W        W32356  28.409  21.864  20.620  0.0111 -0.1529 -0.2370
89444W        W32357   7.395   7.436   3.611  0.2024  0.0653  0.1173
89445W        W32358  15.229  19.624   1.895  0.3881  0.1532  0.0909
89446W        W32359  11.169   6.052  11.774 -0.0886 -0.1382  0.1298
89447W        W32360  18.596   2.239  28.282 -0.4242  0.4759  0.1391
89448W        W32361  22.870  19.464  21.429  0.1668 -0.0548 -0.0204
89449W        W32362  30.449   5.966  28.856  0.0076 -0.0175  0.1012
89450W        W32363  26.239   4.896  15.919  0.1003 -0.4085 -0.0789
89451W        W32364  24.414  10.077  28.988  0.1126  0.0521 -0.1892
89452W        W32365  18.437  17.984   8.257  0.0484 -0.1971  0.1832
89453W        W32366  24.397  22.253  28.436 -0.2127  0.1415  0.0455
89454W        W32367  27.723  11.043   3.790 -0.4054 -0.1801  0.0793
89455W        W32368  13.870   6.341   8.336 -0.0074 -0.3029  0.0468
89456W        W32369  10.486  10.692   2.020 -0.4175  0.0819  0.1882
89457W        W32370  20.320  13.172  24.144  0.0054  0.0554  0.0423
89458W        W32371   4.414  11.021   1.901  0.2633  0.1107 -0.2889
89459W        W32372  27.390  33.583   6.888 -0.0427 -0.0215  0.2795
89460W        W32373  14.357   3.307   1.336 -0.1475 -0.0366 -0.2770
89461W        W32374  21.700   7.667   4.208 -0.0880  0.0452 -0.0816
89462W        W32375  17.321  15.894   2.224 -0.2644  0.0686 -0.2175
89463W        W32376  15.402  19.655  26.577  0.2933 -0.0087 -0.0401
89464W        W32377  16.551  11.375   8.692  0.0383 -0.3015  0.0479
89465W        W32378  16.483  10.462  27.058  0.1445 -0.0670  0.1000
89466W        W32379  17.076   9.743   3.616 -0.1158 -0.1179  0.2886
89467W        W32380  18.121  14.114   0.218  0.2299 -0.0568 -0.0478
89468W        W32381  28.234   2.442   0.681 -0.0009  0.2624  0.1745
89469W        W32382  18.934   2.414  18.658 -0.0598 -0.0793 -0.1215
89470W        W32383   3.490  15.309   7.087  0.0017 -0.1107 -0.2792
89471W        W32384  24.680   9.290  23.600  0.1233  0.1172 -0.2194
89472W        W32385  29.472  15.194   8.547 -0.1572 -0.2092 -0.0621
89473W        W32386  24.399  11.144  27.208  0.0020  0.1215  0.2308
89474W        W32387  14.208   3.949   4.700  0.2238  0.2478  0.3653
89475W        W32388  21.200   3.924  25.584 -0.0333 -0.0232  0.3861
89476W        W32389  14.641   6.206   1.251  0.2091 -0.0528 -0.0926
89477W        W32390  18.942   5.016   4.911  0.3412 -0.1003  0.0619
89478W        W32391  12.697  19.793  23.636 -0.1057 -0.4536 -0.2442
89479W        W32392  20.154  15.257   3.806  0.1860  0.1939  0.1431
89480W        W32393  23.128   1.181  17.985 -0.1993 -0.0349 -0.3323
89481W        W32394  21.872   8.736  28.696 -0.5309  0.1918 -0.1305
89482W        W32395  24.697   8.882   3.081 -0.0198 -0.2840 -0.0458
89483W        W32396  24.549  12.758  24.654 -0.1541 -0.1136  0.1903
89484W        W32397  20.399   2.750  21.471 -0.2039  0.0876  0.1875
89485W        W32398  12.724   5.616  28.352 -0.0740  0.2991  0.0520
89486W        W32399  13.216   9.206   0.639  0.3122 -0.0920  0.0587
89487W        W32400  22.129   5.828   1.227 -0.1426 -0.2676  0.2685
89488W        W32401  23.684   9.699  27.750 -0.0486  0.2546 -0.0508
89489W        W32402  13.349  11.637  26.979 -0.0751 -0.0591 -0.1083
89490W        W32403  20.451  12.559  28.224  0.2017  0.0520  0.1604
89491W        W32404  17.464   3.992  24.540  0.0406 -0.0357  0.1970
89492W        W32405  16.182  10.011   0.256  0.0359  0.0279  0.2484
89493W        W32406  18.615  11.945  23.140 -0.1368  0.2103 -0.3443
89494W        W32407  24.601  12.555   6.015  0.0627 -0.0354  0.1054
89495W        W32408   2.208  15.996   8.356 -0.0963  0.2170  0.1307
89496W        W32409  13.397  15.907   1.591 -0.0563  0.1474  0.0354
89497W        W32410  32.679  19.805   0.435  0.4855  0.2426 -0.0812
89498W        W32411  20.855  16.869   5.925  0.2951 -0.4880 -0.0653
89499W        W32412   0.056  14.576  25.150 -0.0302  0.0107  0.2962
89500W        W32413  25.020  14.896  21.925  0.1235 -0.1269 -0.0336
89501W        W32414  16.687   9.352  15.785 -0.0274  0.4229  0.1154
89502W        W32415  27.488  22.421  14.727 -0.0144  0.0308 -0.0663
89503W        W32416  14.909  23.027  13.583 -0.1480  0.2687  0.1391
89504W        W32417  24.763   8.850  19.632  0.3045  0.0454 -0.0738
89505W        W32418  25.186   8.587  15.090  0.0953 -0.0558  0.1553
89506W        W32419  22.465  25.493  20.076  0.4209  0.2715 -0.1240
89507W        W32420  20.638  21.201  18.336  0.0425 -0.2443  0.0039
89508W        W32421  22.030  14.057  16.623 -0.1382 -0.0791  0.2203
89509W        W32422   7.950  17.486  16.353 -0.1047 -0.1215  0.0512
89510W        W32423   8.746  18.844  16.412  0.0194  0.0850 -0.0144
89511W        W32424  26.558   8.520  22.782  0.2309 -0.1624 -0.0191
89512W        W32425  19.057  13.524  15.301  0.1168 -0.1462  0.1191
89513W        W32426  19.333  11.899  18.904 -0.0861  0.0545  0.0429
89514W        W32427  22.138  10.277  17.293 -0.3197  0.0277  0.3183
89515W        W32428  25.346  12.327  14.914 -0.1891  0.3882 -0.1894
89516W        W32429  24.168  16.227  13.579 -0.2831  0.0475  0.0892
89517W        W32430   7.951   9.711  17.320 -0.3262  0.1432 -0.2744
89518W        W32431  18.394  14.312  12.834  0.1183  0.0829 -0.2280
89519W        W32432  25.752  12.138  15.171 -0.0605  0.3675 -0.1260
89520W        W32433  28.999  12.950  23.270  0.1619  0.2424 -0.0733
89521W        W32434  15.181  11.024  17.555 -0.1784 -0.0896  0.1731
89522W        W32435  10.634  18.958  15.451  0.3938  0.0071 -0.1257
89523W        W32436  14.795  16.042  12.270  0.3132 -0.0185 -0.1512
89524W        W32437   5.767  14.871  15.194 -0.0809  0.2016  0.0567
89525W        W32438  20.921  18.930  16.529 -0.0175  0.0261  0.0391
89526W        W32439  16.818  12.637  14.954  0.0952  0.1855 -0.3982
89527W        W32440  18.247  14.149  14.227  0.0593  0.1610 -0.1704
89528W        W32441  22.057  22.028  19.235 -0.1201 -0.1041  0.1460
89529W        W32442  15.796  14.337  14.502  0.2711  0.0207 -0.0611
89530W        W32443  12.312  12.300  16.137 -0.3024  0.0630  0.1963
89531W        W32444  25.704  24.328  12.820 -0.0065 -0.0557 -0.0299
89532W        W32445  19.215  13.877  13.436  0.0333 -0.4587 -0.1103
89533W        W32446  28.215  18.016  20.164 -0.3894 -0.3029 -0.1575
89534W        W32447   5.742  20.775  17.195 -0.5907 -0.1891 -0.0297
89535W        W32448  16.309  12.919  17.473 -0.1823 -0.1447  0.3159
89536W        W32449  10.071   8.909  17.643 -0.2310 -0.1250  0.1555
89537W        W32450  15.363  12.319  19.839  0.1147  0.0118  0.2910
89538W        W32451  17.124  10.972  17.047 -0.1977  0.0802 -0.0801
89539W        W32452  24.623  14.149  15.883 -0.1724 -0.0190 -0.0671
89540W        W32453  16.741  10.372  20.160  0.2331 -0.2611  0.2769
89541W        W32454  19.397  15.250  12.049 -0.3271 -0.4328 -0.2258
89542W        W32455  21.900   9.524  16.877 -0.1910 -0.1226 -0.0334
89543W        W32456   9.160  30.317  25.479 -0.0493 -0.1370  0.0750
89544W        W32457  31.449   4.316  17.308 -0.0063  0.2525  0.0658
89545W        W32458  16.333  31.395  16.334  0.0811 -0.3308  0.0096
89546W        W32459  14.155  10.388  21.981  0.0319 -0.0399  0.1987
89547W        W32460  20.533  25.066  16.525 -0.0067  0.2459  0.0279
89548W        W32461  17.085   3.750  20.748 -0.2329  0.0342 -0.3134
89549W        W32462   4.112  14.557  16.903 -0.0875  0.1007  0.0999
89550W        W32463  16.580  23.270  17.721  0.1424  0.3994 -0.3515
89551W        W32464  17.480   4.700  15.487  0.0150  0.4084  0.3530
89552W        W32465  19.850   9.768  15.111  0.0569  0.1945  0.1978
89553W        W32466  29.535  27.776  20.880 -0.1198  0.1316  0.0556
89554W        W32467  22.423   2.907  21.062  0.0272 -0.0508 -0.0093
89555W        W32468  25.730  17.918  17.339 -0.1571 -0.0286  0.0139
89556W        W32469   8.718  26.606  16.809  0.3679 -0.0558  0.2032
89557W        W32470  26.801  25.438  20.343  0.2220 -0.0255  0.0770
89558W        W32471  13.954  20.002  16.728  0.3295 -0.1032  0.1815
89559W        W32472  21.383  17.591  12.768  0.0987  0.1334 -0.1195
89560W        W32473  19.471  20.972  16.398  0.0929 -0.1867 -0.0420
89561W        W32474  11.220  13.998  16.837  0.0119  0.1332 -0.3680
89562W        W32475  24.341  21.808  14.255  0.0083 -0.1593 -0.0956
89563W        W32476   7.928  13.688  18.645  0.3105  0.0364  0.1933
89564W        W32477  17.689  27.326  18.155  0.1034 -0.1548 -0.0219
89565W        W32478  14.733  20.050  16.147 -0.4227  0.3152  0.0213
89566W        W32479  25.450   3.800  17.433 -0.2751  0.1630  0.0455
89567W        W32480  22.403  15.880  13.333  0.3131  0.1641  0.0537
89568W        W32481  22.251  20.977  20.869  0.5588  0.1297  0.0335
89569W        W32482  25.318  25.554  14.634  0.0049 -0.0080  0.0400
89570W        W32483  21.063  12.139  16.617  0.1444  0.1370 -0.3656
89571W        W32484  23.399  21.456  24.631 -0.0045  0.1501 -0.1769
89572W        W32485  21.385   3.519  19.530  0.1291 -0.0369  0.0110
89573W        W32486  11.759   9.001  16.022 -0.1028 -0.0557 -0.1493
89574W        W32487  19.631  18.255  15.021  0.0506 -0.1627  0.0127
89575W        W32488  22.519  14.239  16.829 -0.0570 -0.0498 -0.0465
89576W        W32489   9.642  20.354  19.953 -0.1214  0.2222  0.1999
89577W        W32490  22.377  15.900  15.434 -0.4515  0.0742 -0.2504
89578W        W32491  24.374  15.188  15.729 -0.0893 -0.0792  0.0978
89579W        W32492  25.094  24.850  13.989  0.0856 -0.0604 -0.3915
89580W        W32493  15.587  19.652  14.620 -0.3855  0.1154  0.0028
89581W        W32494  14.250  21.609  14.545 -0.0303 -0.1979 -0.0044
89582W        W32495  13.298  10.133  21.534  0.1897  0.3575  0.0800
89583W        W32496  10.733  16.416  13.772 -0.0352 -0.2888 -0.1742
89584W        W32497  23.881  10.732  17.516 -0.2594 -0.2794 -0.0133
89585W        W32498  17.321  23.460  15.893 -0.3726 -0.0196  0.0744
89586W        W32499  20.902  11.096  14.030 -0.2564  0.4584 -0.0646
89587W        W32500  15.605  11.709  15.456  0.0124 -0.0207  0.0339
89588W        W32501  18.783  13.376  16.540  0.1137 -0.4935  0.1872
89589W        W32502  22.410  14.735  20.911  0.1758 -0.1480 -0.0159
89590W        W32503  23.040  17.093  19.738  0.1323  0.0275 -0.1139
89591W        W32504   6.664  15.096  25.990 -0.0055 -0.3789  0.2222
89592W        W32505  20.611  23.076  13.435  0.0956  0.0946  0.2237
89593W        W32506  30.020   9.326  19.939 -0.0898  0.1170  0.2414
89594W        W32507  10.641  16.807  21.265  0.4302  0.2195  0.2324
89595W        W32508  23.510  23.880  17.126  0.0062  0.0990  0.0758
89596W        W32509  24.569  23.488  14.834  0.0544 -0.2879  0.0803
89597W        W32510  16.090  14.376  22.604  0.0493  0.3245 -0.0270
89598W        W32511  22.354  16.023  14.217 -0.3062 -0.3559 -0.1867
89599W        W32512  14.510   9.852  15.705  0.0532  0.1195  0.0860
89600W        W32513  26.988  18.354  20.567 -0.1230  0.2069 -0.1732
89601W        W32514  25.847  21.535  15.504  0.1119  0.1509 -0.1676
89602W        W32515   5.727  19.801  23.078  0.4154 -0.0871 -0.3045
89603W        W32516   3.887  15.962  15.286 -0.1004  0.0223  0.0012
89604W        W32517  25.280   9.838  13.239  0.0530 -0.1751  0.2528
89605W        W32518  29.619  14.268  20.507  0.1275  0.0087  0.0596
89606W        W32519   2.230  29.909  21.212 -0.3994  0.4654 -0.0870
89607W        W32520  22.576  13.935  13.782 -0.1113  0.0578  0.0706
89608W        W32521  22.748  26.751  14.131 -0.2712 -0.0740 -0.3522
89609W        W32522  21.597  12.560  15.443  0.2071 -0.1756  0.2022
89610W        W32523  18.140  25.789  14.949 -0.0569  0.1139  0.0840
89611W        W32524   7.477  20.225  16.926 -0.2777  0.1260 -0.1437
89612W        W32525  31.599  12.847  14.566  0.1192 -0.2227 -0.2802
89613W        W32526  24.102  12.511  19.661  0.3094  0.2690  0.0553
89614W        W32527  19.971  19.991  15.495 -0.2727  0.0813 -0.3249
89615W        W32528  15.853  16.592  12.792 -0.0620 -0.1802  0.0014
89616W        W32529  29.664  19.695  15.435  0.1279 -0.2261  0.2104
89617W        W32530  17.355  24.709  15.402  0.1405  0.1610  0.1096
89618W        W32531  23.430  25.096  14.090  0.0720  0.0306 -0.3786
89619W        W32532  23.500  26.459  18.231  0.2664  0.3882 -0.0057
89620W        W32533  16.539   5.933  17.029 -0.2852  0.0681 -0.1778
89621W        W32534  23.583  18.059  17.918  0.1801  0.1553 -0.0955
89622W        W32535  13.889  20.185  13.992  0.2926  0.1020 -0.0487
89623W        W32536  15.452  20.466  14.028  0.0838  0.0623 -0.0229
89624W        W32537   0.106  19.301  25.775  0.0256  0.0033  0.1171
89625W        W32538  20.871  23.178  21.774  0.6325 -0.1355 -0.2350
89626W        W32539  20.834  21.433  17.414 -0.0812 -0.0922  0.1216
89627W        W32540  30.579  16.832  26.325 -0.0399  0.0948 -0.0706
89628W        W32541  12.987  16.342  14.404 -0.3087 -0.1339  0.0170
89629W        W32542  18.466   9.331  13.176 -0.1522 -0.1586 -0.1730
89630W        W32543  23.765  10.723  18.031  0.2040  0.0840  0.0324
89631W        W32544  11.033  15.305  18.962 -0.1004 -0.2257 -0.0341
89632W        W32545  21.048  12.977  20.928  0.0405  0.3814  0.0850
89633W        W32546  22.032  17.990  18.959 -0.0021  0.2055  0.1628
89634W        W32547  17.570  21.595  12.873  0.0075 -0.0449  0.2681
89635W        W32548  24.467  19.424  16.621 -0.3933  0.0398  0.3013
89636W        W32549  17.450  12.049  14.714  0.1930 -0.0293 -0.0884
89637W        W32550  26.441   7.193  17.819 -0.1246  0.1018  0.1075
89638W        W32551  18.344  14.611  13.971 -0.0278 -0.1649  0.1792
89639W        W32552  28.091   6.370  19.195  0.1206  0.4294 -0.0837
89640W        W32553  32.156  24.454  19.438 -0.0099  0.0859 -0.2662
89641W        W32554  27.477  12.858  14.089  0.1713 -0.2821  0.0025
89642W        W32555  14.982  16.113  13.486 -0.4104  0.1440 -0.0676
89643W        W32556  30.720  20.155  18.172 -0.1777 -0.0412  0.0833
89644W        W32557  10.518  18.406  15.437 -0.1233  0.1233  0.0464
89645W        W32558  16.723  13.044  16.726 -0.2518 -0.0255 -0.1702
89646W        W32559  21.340   7.641  17.831  0.1774  0.0177  0.2633
89647W        W32560  23.808   8.339  16.337  0.2385  0.0528  0.1725
89648W        W32561  14.375  15.499  15.580  0.1014 -0.0547 -0.1726
89649W        W32562   2.286  20.109  21.274  0.0675 -0.0690  0.1479
89650W        W32563  19.321   5.436  19.684  0.3076 -0.0166  0.3300
89651W        W32564  27.859  13.906  21.966 -0.1304 -0.2457 -0.0040
89652W        W32565  10.430  19.772  24.620 -0.3054  0.0216 -0.1979
89653W        W32566  17.678  20.562  14.196  0.0380 -0.2604 -0.0026
89654W        W32567  10.310  18.601  21.210 -0.0770  0.2350 -0.0432
89655W        W32568  27.120  12.055  18.168 -0.0611 -0.0206  0.2406
89656W        W32569  26.352  17.305  21.656 -0.2847  0.0380 -0.3622
89657W        W32570  17.504  14.226  12.562  0.0401  0.0870 -0.0584
89658W        W32571  11.397  30.747  20.651  0.3810  0.3784  0.0079
89659W        W32572  22.372  31.221  21.722  0.0037 -0.0189 -0.1494
89660W        W32573   8.367  20.758  21.364  0.1125 -0.0602  0.0718
89661W        W32574  12.378  25.290  16.601  0.4140 -0.3405 -0.2299
89662W        W32575   9.509  13.185  15.708  0.0536 -0.0791 -0.3261
89663W        W32576  14.612   0.849  27.840  0.1434  0.0090 -0.1752
89664W        W32577  22.472  11.995  19.133  0.0325 -0.0702  0.1451
89665W        W32578  16.611  13.251  15.254 -0.4201 -0.1414  0.2159
89666W        W32579  23.982  16.123  19.009 -0.2821 -0.1211 -0.1287
89667W        W32580  17.664  22.520  17.931  0.2532 -0.3057  0.3652
89668W        W32581  12.817   6.132  16.377 -0.3311 -0.1801 -0.1705
89669W        W32582  15.321  11.479  13.253  0.2521 -0.0040  0.0836
89670W        W32583   9.031  17.564  21.131  0.0678  0.1282 -0.0618
89671W        W32584  14.187   8.087  24.970  0.0987  0.0815  0.0125
89672W        W32585  16.834  27.226  26.437 -0.0997  0.4925  0.0315
89673W        W32586  30.403  14.146  16.592  0.0281 -0.0066 -0.1040
89674W        W32587  26.259  19.563  18.488 -0.2553  0.3083  0.1470
89675W        W32588  17.678  34.153  19.390 -0.0074 -0.0263 -0.2773
89676W        W32589   1.401  16.245  28.444 -0.0162 -0.0635  0.2617
89677W        W32590   8.849  17.249  24.479  0.1462 -0.3868  0.0170
89678W        W32591  25.806  19.581  16.229 -0.0191 -0.2831 -0.4637
89679W        W32592  13.739  12.418  14.416 -0.0266 -0.1383 -0.0428
89680W        W32593  23.021  17.670  16.745 -0.1658 -0.1575 -0.3107
89681W        W32594  20.056  22.800  28.352  0.0065 -0.3538  0.0519
89682W        W32595   9.702   7.190  22.364 -0.2581  0.3538 -0.1911
89683W        W32596  22.748  27.230  17.717 -0.0335  0.0304 -0.1872
89684W        W32597  22.568  10.206  21.366  0.0223 -0.2739  0.0103
89685W        W32598  28.625  14.164  21.553  0.3030  0.2150 -0.1854
89686W        W32599  21.004  13.846  12.166  0.0048  0.0452 -0.3607
89687W        W32600  18.607   6.498  16.173 -0.2165 -0.0051 -0.3627
89688W        W32601  14.259  22.255  17.325 -0.1701 -0.0507 -0.0425
89689W        W32602  18.282  12.764  17.980  0.2014 -0.1701  0.1118
89690W        W32603  27.142  11.891  13.541  0.0100 -0.0477 -0.2100
89691W        W32604  31.807  17.217  15.150  0.0498 -0.0028  0.4638
89692W        W32605  21.661   7.421  20.181 -0.0934 -0.2557 -0.1631
89693W        W32606  20.752  22.666  15.619 -0.0596 -0.0793  0.0277
89694W        W32607  28.473  14.426  23.527  0.0984  0.0698  0.0106
89695W        W32608  26.345  14.785  14.631 -0.2186  0.0395 -0.1957
89696W        W32609  14.301   6.947  26.472  0.0128  0.0213  0.0626
89697W        W32610  10.621  15.012  24.162  0.1320  0.0113  0.1041
89698W        W32611  20.702  15.783  13.099  0.2424 -0.1229 -0.0020
89699W        W32612   8.503  15.162  18.071  0.0430 -0.3357 -0.0040
89700W        W32613  18.305  27.445  17.033  0.0360  0.0746  0.1014
89701W        W32614  13.307  14.319  16.555 -0.2092 -0.2827  0.0712
89702W        W32615  16.094  14.241  12.869  0.3469 -0.3843 -0.0136
89703W        W32616  19.630  15.937  13.708 -0.4014 -0.2039  0.2652
89704W        W32617  18.203  14.584  11.885 -0.3220  0.0415  0.2026
89705W        W32618  29.573  23.381  16.879 -0.2260 -0.0807 -0.1928
89706W        W32619  18.400  20.225  14.970  0.1329 -0.2437 -0.1572
89707W        W32620  18.152  26.019  17.483  0.1529 -0.2136 -0.0184
89708W        W32621  18.312  27.877  21.069  0.2097 -0.2447  0.3621
89709W        W32622  18.970  13.113  16.914 -0.1703 -0.1114  0.1117
89710W        W32623  16.114  10.796  14.306  0.2030  0.0264  0.0918
89711W        W32624  22.917   8.533  20.518 -0.0194 -0.3215 -0.3325
89712W        W32625  26.434  12.042  18.699  0.3755  0.0380 -0.0339
89713W        W32626  27.750  23.806  18.345 -0.0702  0.0165  0.2443
89714W        W32627  25.017   6.025  15.033 -0.2375  0.0828  0.1290
89715W        W32628  24.113  17.032  14.345  0.1892 -0.0821 -0.0091
89716W        W32629  21.557  10.432  24.050  0.2067  0.0884  0.1479
89717W        W32630  17.072  18.596  12.587 -0.0224  0.0483 -0.2105
89718W        W32631  17.543  12.999  20.917  0.2438 -0.0581  0.1018
89719W        W32632  21.633  16.120  13.341 -0.0273 -0.1975 -0.1596
89720W        W32633  22.962  10.939  14.036 -0.0632 -0.0771  0.4942
89721W        W32634  24.372  18.660  17.743  0.0647 -0.2762 -0.2326
89722W        W32635  21.406  18.205  21.642 -0.2643 -0.1165  0.2768
89723W        W32636  14.343  11.508  22.891 -0.0414  0.1920 -0.2864
89724W        W32637  29.045   9.765  17.990  0.2896  0.0399 -0.0778
89725W        W32638  15.893   0.948  19.035  0.3386 -0.3281  0.1159
89726W        W32639  25.855  17.224  22.088 -0.1879 -0.0310 -0.1681
89727W        W32640  25.666  22.926  13.645 -0.0170 -0.0695  0.1798
89728W        W32641  10.623  12.175  14.699 -0.0169 -0.2734 -0.0763
89729W        W32642  23.507  11.145  17.219 -0.2622 -0.0017  0.2977
89730W        W32643  25.577  22.837  13.113  0.0954 -0.0310 -0.1493
89731W        W32644  22.686  24.205  17.028 -0.1487 -0.0226 -0.4566
89732W        W32645  28.465  24.320  16.569 -0.0323 -0.2709 -0.3085
89733W        W32646  18.798   8.755  14.168 -0.1642  0.0648  0.1348
89734W        W32647  12.444  22.982  18.158 -0.1615  0.1366  0.2840
89735W        W32648  25.656   0.755  17.911 -0.0900  0.0911  0.1096
89736W        W32649  16.474   0.093  14.798  0.2391  0.0006  0.2952
89737W        W32650  23.034  13.150  20.783 -0.0561 -0.1407  0.1716
89738W        W32651  21.805  27.624  14.607 -0.3733  0.2134 -0.2541
89739W        W32652  26.010  22.236  19.861  0.1928 -0.0360 -0.1279
89740W        W32653  23.910  23.252  15.087 -0.1598  0.1379  0.0762
89741W        W32654  21.074  16.884  22.372  0.2622  0.1561 -0.0116
89742W        W32655   1.482   2.935  24.188 -0.2742 -0.1279 -0.2492
89743W        W32656  11.724  15.381  21.545 -0.2316  0.0059 -0.1393
89744W        W32657  30.710  19.819  26.456 -0.2456  0.1879  0.0500
89745W        W32658  23.273  18.049  12.115  0.0419 -0.1831  0.2215
89746W        W32659  27.173  20.578  13.230  0.1215  0.2610 -0.1589
89747W        W32660  13.590  19.433  17.485  0.3177  0.1132  0.0728
89748W        W32661  21.387  23.339  17.065 -0.0033  0.1056  0.0029
89749W        W32662  15.285  18.673  13.979 -0.0155 -0.0411 -0.1032
89750W        W32663  13.059  15.182  18.158  0.0391  0.0158  0.1370
89751W        W32664  18.743   9.835  13.414  0.0965 -0.1155  0.1093
89752W        W32665  22.069  12.979  23.082  0.1310  0.2162 -0.3883
89753W        W32666  26.014  16.630  19.403  0.2534 -0.1602 -0.0953
89754W        W32667  17.570   9.597  13.430  0.0152  0.1066  0.1111
89755W        W32668  12.177  10.463  18.965  0.0617  0.3428  0.3490
89756W        W32669  15.341  21.514  14.059  0.1151 -0.0589  0.2293
89757W        W32670  16.435  22.006  13.904 -0.2924 -0.3310 -0.0253
89758W        W32671  22.345  22.130  17.995  0.2358 -0.4655 -0.0346
89759W        W32672  15.702  26.342  18.702  0.0862 -0.1447 -0.3919
89760W        W32673  11.475  13.632  17.283  0.3664 -0.4356  0.2877
89761W        W32674  10.148  20.717  19.858  0.0471 -0.0649  0.1113
89762W        W32675  22.979  12.457  18.178 -0.2316  0.0108 -0.0405
89763W        W32676  20.043  31.243  14.953 -0.0248 -0.0344  0.1470
89764W        W32677   9.399  19.575  15.088 -0.0382  0.0708 -0.3937
89765W        W32678  13.652  15.404  16.346 -0.1531 -0.1318  0.1886
89766W        W32679  18.410  21.175  13.222 -0.2536  0.0618  0.2251
89767W        W32680  20.001  25.211  27.003  0.1638  0.1258 -0.3697
89768W        W32681  29.045  16.008  19.437 -0.2318 -0.2408 -0.0568
89769W        W32682  17.742  11.160  17.593 -0.0359 -0.0073 -0.0505
89770W        W32683  23.304  19.181  13.856  0.1799  0.1988 -0.0884
89771W        W32684  26.153  30.021  26.128 -0.3680 -0.0314  0.1107
89772W        W32685  17.647  14.005  13.703 -0.0813 -0.0745  0.0583
89773W        W32686  21.212   0.271  18.981 -0.0679 -0.1561 -0.0614
89774W        W32687  22.901  15.577  14.619  0.3213  0.2424  0.4616
89775W        W32688  21.336  17.016  11.801  0.1876  0.0198 -0.0006
89776W        W32689  12.590  16.647  14.548 -0.1036  0.0337  0.1118
89777W        W32690  24.295  12.287  14.438 -0.0218 -0.2577  0.1728
89778W        W32691  22.041  15.504  19.135 -0.0867  0.4615 -0.3203
89779W        W32692  28.103  26.881  16.215 -0.1078  0.1056 -0.1215
89780W        W32693  24.795  21.738  17.444  0.0687 -0.1357  0.2303
89781W        W32694  11.921  16.181  14.863  0.2857  0.0590  0.1016
89782W        W32695  27.894  10.800  16.466 -0.0371 -0.1268  0.1767
89783W        W32696  27.900  22.091  20.734 -0.0331 -0.0919  0.1558
89784W        W32697  21.793  22.134  12.538 -0.0742  0.1212 -0.0872
89785W        W32698  14.544  12.955  14.282  0.2409 -0.3391  0.0013
89786W        W32699  18.966  12.097  13.629  0.0139 -0.0636 -0.0414
89787W        W32700  17.222  27.964  14.839 -0.1435  0.1236  0.1321
89788W        W32701  26.691  19.399  16.417 -0.2747  0.1466 -0.1459
89789W        W32702  18.172   9.213  17.930 -0.2128 -0.1294  0.2244
89790W        W32703  20.464  19.041  11.555  0.0340  0.1238  0.1425
89791W        W32704  13.228  22.362  22.323 -0.2238  0.1095  0.0583
89792W        W32705  19.863   9.388  16.274 -0.0597  0.1613 -0.0369
89793W        W32706  24.031  14.962  14.136 -0.1070 -0.0973  0.0322
89794W        W32707  15.241  14.954  12.232 -0.0232  0.2498 -0.3424
89795W        W32708  27.829  10.256  18.347 -0.2121  0.2044  0.0561
89796W        W32709  12.620  11.840  15.571  0.0822  0.3727 -0.0553
89797W        W32710  15.629  30.066  15.303 -0.1616  0.0088  0.0578
89798W        W32711  22.542  19.334  18.668 -0.0052 -0.1663 -0.2866
89799W        W32712  18.270  16.300  14.671 -0.2297 -0.0605 -0.1742
89800W        W32713  25.482  25.598  21.299 -0.0833 -0.0661 -0.0973
89801W        W32714   8.561  10.964  20.986  0.4249  0.2681 -0.0667
89802W        W32715  24.997  15.139  16.372 -0.1712 -0.0123 -0.0925
89803W        W32716  17.253   7.505  14.979 -0.1673 -0.1410  0.1594
89804W        W32717  26.770  11.590  21.408  0.1376 -0.1006  0.0267
89805W        W32718  20.380   7.924  24.131  0.4073 -0.2072  0.0023
89806W        W32719  16.592  19.491  12.825  0.1588  0.2630 -0.3434
89807W        W32720  12.918  14.698  14.742  0.1363 -0.2744 -0.3808
89808W        W32721  29.832  16.044  18.273 -0.1623 -0.0922 -0.1124
89809W        W32722  13.158  15.921  15.592 -0.1419 -0.2465 -0.2695
89810W        W32723  14.775  25.216  21.820  0.2215  0.3276 -0.0282
89811W        W32724  24.477  11.224  15.678 -0.2555 -0.1208 -0.1641
89812W        W32725  11.195  11.427  17.177 -0.0971 -0.2829 -0.0786
89813W        W32726  21.794   6.810  13.489 -0.0276  0.2223 -0.2880
89814W        W32727  28.893  22.645  16.135  0.1162 -0.1966 -0.0449
89815W        W32728  23.062  14.952  17.857 -0.0486  0.1309 -0.2132
89816W        W32729  16.567   2.604  29.317 -0.0940  0.2760  0.0595
89817W        W32730  21.214  12.528  15.880 -0.3065 -0.1331  0.0028
89818W        W32731  23.618  29.240   0.860  0.0118 -0.0685  0.1221
89819W        W32732  24.121  10.440  19.164  0.2254 -0.0104 -0.1827
89820W        W32733  13.768  25.725  18.071  0.0867  0.0443  0.0513
89821W        W32734  32.744   9.076  14.589  0.0724 -0.3946 -0.1338
89822W        W32735  24.061   9.258  20.029  0.0287  0.3276 -0.1603
89823W        W32736  21.267  21.104  13.917 -0.0244 -0.0490  0.2118
89824W        W32737  26.458  21.679  22.363 -0.2578  0.1130 -0.0465
89825W        W32738  17.563   8.734   2.834 -0.0290 -0.0486 -0.0847
89826W        W32739  23.411  25.428  20.387  0.3241 -0.1002  0.0295
89827W        W32740  20.968   2.916  14.363 -0.0275  0.1481  0.2613
89828W        W32741  16.025  25.718  19.597  0.1974 -0.1226 -0.0873
89829W        W32742  24.641  22.860  24.098  0.0704  0.0395  0.1508
89830W        W32743  22.472  14.626  17.103  0.0687 -0.0134 -0.1763
89831W        W32744  21.882  11.713  24.392  0.0064 -0.0515 -0.0392
89832W        W32745   8.049  18.044  21.166  0.1045  0.2005 -0.1127
89833W        W32746  16.898  25.486  16.984 -0.0261 -0.0906 -0.0336
89834W        W32747  14.559  22.409  21.696 -0.0332 -0.1027  0.0569
89835W        W32748  24.292  21.729  19.075  0.0672 -0.1903  0.1137
89836W        W32749  21.953  10.068  13.809 -0.1181  0.0815 -0.3921
89837W        W32750   3.634  20.620  15.145 -0.1407 -0.0499 -0.0550
89838W        W32751  27.066   9.162  24.196  0.0947  0.0350 -0.0472
89839W        W32752  21.638   8.810  15.739 -0.0045  0.4875  0.2429
89840W        W32753  22.282  10.334  24.787  0.0752  0.1724  0.1345
89841W        W32754  16.000   9.206  20.215  0.0989  0.0613 -0.0223
89842W        W32755  27.769  32.917  17.962  0.0257  0.0952  0.0313
89843W        W32756   6.810   9.144  25.894  0.3590  0.0495 -0.0597
89844W        W32757  11.197  11.826  15.389 -0.0248  0.0550  0.1025
89845W        W32758  10.969   9.828  23.323  0.2157 -0.0537 -0.2451
89846W        W32759  20.128  11.051  15.170  0.0253 -0.0746  0.2087
89847W        W32760  14.094  16.553  14.342  0.1402  0.2389  0.1525
89848W        W32761  30.327  17.543  18.630 -0.1678 -0.1254 -0.1260
89849W        W32762  15.434  21.713  19.292  0.1394  0.3943  0.3799
89850W        W32763  12.366  16.048  18.458  0.1301  0.0826  0.3028
89851W        W32764  21.780  11.131  24.801  0.1103 -0.1947 -0.1036
89852W        W32765  22.458  11.978  14.636  0.1133 -0.1951  0.0364
89853W        W32766  14.275  19.966  15.956 -0.0139  0.1445  0.2414
89854W        W32767  17.268  11.059  22.297 -0.0458  0.3806  0.0011
89855W        W32768  18.590  10.009  18.824 -0.0549  0.2075  0.0206
89856W        W32769  22.363  20.519  20.718  0.2357 -0.1506 -0.0744
89857W        W32770  16.973   7.445  17.653 -0.4523  0.0562 -0.0728
89858W        W32771  12.964  11.079  20.792 -0.1916 -0.1562  0.2670
89859W        W32772  23.795  17.780  12.809  0.2799  0.0818  0.0696
89860W        W32773  28.027  15.327  14.009 -0.2547  0.0898 -0.0308
89861W        W32774   9.809  20.655  17.640 -0.2327 -0.1721  0.1564
89862W        W32775   6.835  10.477  16.486 -0.0638 -0.0147 -0.3813
89863W        W32776  19.670  10.187  21.248 -0.2506  0.0361 -0.0600
89864W        W32777  26.612  17.152  14.880 -0.0211  0.1393  0.0106
89865W        W32778  23.926  33.052  17.552  0.2598 -0.0340 -0.1848
89866W        W32779   4.495  21.911  14.182 -0.4004  0.2117 -0.2729
89867W        W32780  27.603  23.103  26.041 -0.4808 -0.1183 -0.1455
89868W        W32781  18.730  11.896  21.242  0.2688  0.1510 -0.2239
89869W        W32782  23.907  15.704  13.529  0.2248  0.1003  0.2476
89870W        W32783  14.560   6.594  21.050  0.0035 -0.0885  0.0785
89871W        W32784  24.788  17.388  13.718  0.0932  0.1368 -0.1055
89872W        W32785  21.150   2.833  19.076  0.0482  0.2844  0.0312
89873W        W32786  28.680  13.095  14.957 -0.2870 -0.3242  0.1161
89874W        W32787   6.053  17.655  19.619  0.0302  0.0757 -0.1844
89875W        W32788  15.222  12.789  19.870 -0.0214  0.2211  0.1289
89876W        W32789  20.135  13.743  13.526 -0.2244 -0.1686 -0.2772
89877W        W32790  19.759  17.217  13.086 -0.2949  0.1738  0.3171
89878W        W32791  20.501  22.607  18.043 -0.2895 -0.1026  0.1796
89879W        W32792  18.436  24.731   0.522 -0.1776 -0.0777 -0.1759
89880W        W32793  26.232  20.331  13.949  0.0558  0.2298  0.0147
89881W        W32794  33.775  19.181  18.358  0.2373  0.3176 -0.3685
89882W        W32795  20.534  24.830  13.860  0.0898 -0.0106  0.0198
89883W        W32796  31.090  25.460  14.761 -0.0165 -0.2759 -0.0357
89884W        W32797  21.588  18.824  16.691 -0.0332  0.0886  0.0989
89885W        W32798  14.646  31.435  17.437 -0.1299 -0.1373  0.1162
89886W        W32799  14.979  26.305  19.934 -0.1607 -0.0871  0.0430
89887W        W32800  21.160  17.480  13.204 -0.1341  0.2649 -0.1112
89888W        W32801  12.949  15.897  16.115 -0.0960 -0.1623 -0.0824
89889W        W32802  30.226  17.337  22.056  0.0757  0.2466 -0.0802
89890W        W32803  23.661  15.975  18.072 -0.0940  0.0846 -0.2002
89891W        W32804   8.938  13.926  15.560 -0.0167  0.0073  0.1707
89892W        W32805  25.971  18.170  19.764 -0.2257  0.0089 -0.0045
89893W        W32806   6.286  23.997  22.446 -0.1829 -0.0568 -0.2531
89894W        W32807  15.702  25.148  17.007 -0.2269  0.1508  0.2934
89895W        W32808  19.316  19.023  15.927  0.3757  0.0865 -0.1585
89896W        W32809  20.645  20.556  20.561 -0.1523  0.2564 -0.2461
89897W        W32810  17.931  25.420  14.163  0.6263  0.0492 -0.2440
89898W        W32811  12.126  13.571  20.473 -0.3745 -0.3198  0.0146
89899W        W32812  18.707  13.321  13.419  0.1426 -0.1462  0.2081
89900W        W32813  25.726  12.068  19.957  0.1577 -0.0395  0.1725
89901W        W32814  17.760   7.944  15.276  0.2129 -0.0827 -0.0557
89902W        W32815  30.592  11.018  19.926  0.0665  0.0258 -0.1046
89903W        W32816  19.908  10.645  21.493  0.0845  0.0796 -0.2395
89904W        W32817  20.999  30.051  18.741  0.1688  0.0356  0.0985
89905W        W32818  20.729   3.905  25.655 -0.1978 -0.1281 -0.1190
89906W        W32819  18.301   3.351  24.146  0.0329 -0.0167  0.2120
89907W        W32820  28.013  12.373  18.522 -0.0222 -0.3799 -0.5888
89908W        W32821  23.190   8.300  18.800 -0.1344  0.2858  0.2125
89909W        W32822  16.757  22.958  15.198 -0.0044 -0.0021 -0.1649
89910W        W32823  25.874  15.053  17.497 -0.0161  0.0415 -0.1054
89911W        W32824  12.335  13.499  16.781 -0.1485  0.0923 -0.0287
89912W        W32825  16.534  21.530  16.072 -0.2907 -0.1119 -0.1354
89913W        W32826  15.312  13.128  15.726 -0.1230  0.0792 -0.1320
89914W        W32827  15.872  11.042  20.920  0.1480 -0.2477 -0.1348
89915W        W32828  20.328   8.749  16.604  0.0913  0.0340  0.2938
89916W        W32829  20.385   7.388  18.147  0.0072 -0.0103  0.1825
89917W        W32830  19.587   8.101  21.724  0.1060 -0.0118 -0.1188
89918W        W32831   9.131  12.568  22.599 -0.0854  0.0725  0.2093
89919W        W32832  24.473  16.602  17.557  0.1917  0.1213  0.1477
89920W        W32833  16.795   9.709  20.601 -0.1373 -0.0724 -0.2759
89921W        W32834  18.643   9.013  17.743  0.1764 -0.0042 -0.1810
89922W        W32835  20.992  15.382  13.167 -0.5566 -0.0493  0.0874
89923W        W32836  13.423  27.230  18.487  0.0581  0.1838  0.4595
89924W        W32837  22.405  16.337  23.386 -0.0696  0.0589  0.1308
89925W        W32838   1.032  20.406   1.226  0.0866 -0.2183  0.2208
89926W        W32839  33.649  12.099  25.489 -0.0555  0.5174 -0.4328
89927W        W32840  15.413   9.611  17.281  0.1101 -0.2474 -0.0375
89928W        W32841  26.563  12.930  24.156 -0.2417  0.0261  0.2744
89929W        W32842  22.656  16.757  22.902 -0.1793  0.2638  0.1387
89930W        W32843   6.891  17.244  20.240  0.2712  0.1780 -0.1910
89931W        W32844  23.449  15.098  17.431  0.1318 -0.2335  0.0124
89932W        W32845  15.446  22.214  13.040  0.1672  0.0600  0.0922
89933W        W32846  12.574  18.502  16.512 -0.2052 -0.0684 -0.0557
89934W        W32847  18.869   2.487  20.635  0.2200 -0.1320  0.1656
89935W        W32848  22.400  10.691  17.536 -0.0283 -0.2156  0.1932
89936W        W32849  20.937   5.458  20.649  0.0799 -0.0426 -0.1277
89937W        W32850  15.822  21.272  25.723 -0.2343 -0.1539 -0.1416
89938W        W32851   9.710   8.722  18.346  0.1664  0.2355 -0.0685
89939W        W32852  22.442  10.529  22.935  0.2872 -0.0969 -0.0283
89940W        W32853  21.494  24.239  12.725  0.1004 -0.3074 -0.0262
89941W        W32854  27.798  15.184  23.178  0.0327  0.1519 -0.1075
89942W        W32855  14.761  23.372  20.063 -0.2252  0.0623  0.2099
89943W        W32856  25.273  21.197  23.479 -0.1514 -0.1226  0.2030
89944W        W32857  13.311  21.049  13.871 -0.2138 -0.2149 -0.0339
89945W        W32858  12.829  15.751  12.489 -0.4591  0.0430 -0.0563
89946W        W32859  15.851  18.190  17.783 -0.0349  0.0864 -0.2663
89947W        W32860  18.778  16.466  13.803  0.0321  0.1864 -0.0896
89948W        W32861  20.425  18.799   0.111 -0.0834 -0.2461  0.1039
89949W        W32862  17.648  10.568  19.944  0.3040 -0.0953  0.2048
89950W        W32863  16.069  20.934  13.617  0.1226  0.0310 -0.2053
89951W        W32864  29.627  19.682  12.855 -0.0656 -0.0194  0.0055
89952W        W32865  16.388  10.192  26.063  0.2644  0.2081  0.2414
89953W        W32866  12.864  13.299  13.370  0.2312  0.0450  0.0459
89954W        W32867  13.833  19.861  14.395  0.3473  0.1083 -0.0119
89955W        W32868  17.877  14.994  12.451 -0.1971  0.1234  0.2608
89956W        W32869  15.154   8.431  20.857  0.0321 -0.0999  0.1434
89957W        W32870  20.983   9.924  18.802  0.3266 -0.1397 -0.0531
89958W        W32871  24.921  16.075  14.081 -0.1771 -0.2955 -0.2535
89959W        W32872  23.660  21.891  22.901 -0.0262 -0.4136  0.1033
89960W        W32873   8.401  14.217  24.062 -0.2202  0.0387  0.2023
89961W        W32874  21.125  13.344  20.604 -0.1903 -0.0519  0.1795
89962W        W32875  18.345  19.912  12.118 -0.2535  0.0156  0.4043
89963W        W32876  17.723  16.161  11.813 -0.0382  0.2257  0.1449
89964W        W32877  20.291  19.640  14.489 -0.0864 -0.0985  0.1146
89965W        W32878  12.763  11.992  16.115  0.0041  0.0590 -0.0892
89966W        W32879  19.223  10.619  25.054 -0.1925 -0.1511  0.0428
89967W        W32880  19.259   8.215  17.901 -0.0568 -0.0032 -0.1813
89968W        W32881   5.012  22.525  25.041 -0.1736 -0.1491  0.1208
89969W        W32882  11.923  19.647  14.824 -0.4374  0.1623 -0.1193
89970W        W32883  28.105  21.079  15.764  0.0296  0.1398 -0.1981
89971W        W32884  27.215  14.909  21.737  0.2129  0.1421 -0.2966
89972W        W32885  20.167  10.595  16.793  0.0824 -0.1880 -0.0319
89973W        W32886  25.121  20.809  24.168 -0.5527 -0.1906  0.1189
89974W        W32887  17.522   4.839  16.469 -0.3278  0.3862  0.2563
89975W        W32888  16.094  14.181  16.007  0.2626 -0.1690 -0.0362
89976W        W32889  17.804  25.085  16.021  0.0938 -0.1598  0.0612
89977W        W32890  15.830   5.496  19.354 -0.0376  0.1799  0.1432
89978W        W32891  20.066  10.884  12.458  0.1972  0.1457  0.2407
89979W        W32892  19.905  24.372  14.550  0.1311 -0.0070 -0.0014
89980W        W32893  23.148   9.014  17.197 -0.0569 -0.1157  0.0774
89981W        W32894  28.695  17.098  14.232 -0.1511 -0.0555  0.1546
89982W        W32895  14.412   9.975  22.837 -0.3055 -0.3469 -0.2610
89983W        W32896  15.073  11.163  14.217 -0.0031  0.0937  0.1846
89984W        W32897  27.357  20.478  16.034 -0.0613  0.0963 -0.0696
89985W        W32898  14.975  11.950  17.596  0.2337 -0.1267  0.0957
89986W        W32899  23.331  24.732  12.733 -0.0648 -0.3191 -0.0679
89987W        W32900  15.654  22.417  15.479 -0.1229  0.3083 -0.1965
89988W        W32901  14.436   8.024  18.787 -0.0631 -0.0866  0.1725
89989W        W32902  11.535  10.577  22.762 -0.0067  0.0862  0.3586
89990W        W32903  18.247  17.032  19.709 -0.1510 -0.0954 -0.1336
89991W        W32904  19.305   7.072  15.462  0.0907 -0.0571 -0.1697
89992W        W32905  14.079  16.714  13.886  0.4419 -0.0676  0.2282
89993W        W32906  21.765  18.274  25.876 -0.1507  0.0037 -0.0310
89994W        W32907  22.855  18.388  17.441  0.1022 -0.3938 -0.2780
89995W        W32908  25.220  16.851  29.075  0.1282 -0.1116  0.1584
89996W        W32909  18.032  25.534  21.020  0.1767  0.0225  0.1975
89997W        W32910  18.932  30.241  17.398 -0.2040 -0.0067 -0.1956
89998W        W32911  13.800  21.236  15.988  0.1575  0.0263  0.0264
89999W        W32912  14.366  31.040  20.599 -0.1305 -0.0105 -0.2126
90000W        W32913  12.223  16.778  26.190  0.1851  0.3314 -0.0469
90001W        W32914  22.116   5.889  16.506 -0.1330 -0.0650  0.2119
90002W        W32915  19.378  14.621  24.338 -0.1838 -0.0268 -0.0462
90003W        W32916  22.837  19.748  15.808  0.2511  0.0785  0.0760
90004W        W32917  22.281   2.189  16.271 -0.1548  0.1070 -0.0601
90005W        W32918  20.851  21.117  23.875  0.0389 -0.0675  0.0630
90006W        W32919  31.667  14.553  24.367 -0.0288 -0.0752  0.1728
90007W        W32920   7.617  15.466  26.127  0.2634  0.4443  0.1908
90008W        W32921  19.518  26.174  21.953  0.0444 -0.1104 -0.0924
90009W        W32922  16.541  17.098  18.287 -0.2712  0.2729 -0.1030
90010W        W32923  30.197  19.950  17.594 -0.3236 -0.0613 -0.0166
90011W        W32924  19.819  10.311  16.516 -0.1003 -0.2738  0.1224
90012W        W32925  24.292   9.648  14.288  0.1564  0.1105  0.1853
90013W        W32926  22.634  15.374  15.544 -0.3117 -0.3028  0.0765
90014W        W32927  14.860  16.115  11.780  0.0406  0.3010 -0.1503
90015W        W32928  25.952   2.983  24.355  0.0327 -0.2568  0.0699
90016W        W32929  14.399  16.125  14.414 -0.1441 -0.0404  0.2085
90017W        W32930  21.688  21.242  18.399 -0.1930 -0.1264  0.4251
90018W        W32931  14.558  11.729  14.517  0.1553 -0.3243  0.0367
90019W        W32932  25.005  19.395  17.520 -0.0913  0.3301  0.0452
90020W        W32933   8.916  15.053  22.648  0.0922 -0.3835 -0.0477
90021W        W32934  22.338  18.851  18.843  0.1331 -0.1109  0.0107
90022W        W32935  22.980  15.259  18.245  0.1675  0.1777  0.1923
90023W        W32936  29.597  26.824  18.656 -0.0571  0.1962  0.0287
90024W        W32937  29.948  29.089  25.405  0.0478 -0.0462  0.2802
90025W        W32938  26.898  22.881  16.366 -0.0795  0.0371 -0.0089
90026W        W32939  19.526  20.552  12.488 -0.2861 -0.1077 -0.0188
90027W        W32940  16.714  20.786  16.590  0.2365  0.0906 -0.1885
90028W        W32941  16.487  17.507  19.419 -0.1789  0.2291  0.1968
90029W        W32942  26.139  12.980  26.365  0.2637 -0.0213  0.3167
90030W        W32943  10.695  20.279  20.743 -0.1824 -0.1472 -0.0502
90031W        W32944  21.376  11.935  13.374  0.1249 -0.4618  0.2170
90032W        W32945  11.532   8.443  18.708 -0.0209  0.1815 -0.1295
90033W        W32946  20.195  29.002  14.806  0.1834 -0.0110 -0.1249
90034W        W32947  13.641  22.052  13.605 -0.0176  0.0564 -0.1360
90035W        W32948  26.786  20.429  22.757 -0.0675 -0.1872  0.1246
90036W        W32949  18.745  14.200  13.624  0.1176 -0.0950  0.2287
90037W        W32950  24.981  18.144  18.263 -0.0864 -0.2527 -0.0286
90038W        W32951  24.759  19.557  25.313  0.0318 -0.2843  0.0101
90039W        W32952  12.395  21.989  27.124 -0.1953  0.0813  0.2015
90040W        W32953  25.443  12.203  17.130  0.2534  0.2063 -0.0267
90041W        W32954  13.271  24.534  15.734  0.0068 -0.0793 -0.2910
90042W        W32955  12.692  17.701  13.485  0.1921  0.0234  0.1519
90043W        W32956  22.848  17.512  12.791 -0.2434 -0.2444  0.0515
90044W        W32957  12.997   9.998  20.278 -0.0999 -0.2519 -0.4585
90045W        W32958  25.030  15.606  21.167 -0.1234  0.3002  0.0170
90046W        W32959  27.905  12.601  20.460 -0.0048  0.0315  0.0608
90047W        W32960  15.316  26.632  22.828  0.0978  0.0504 -0.0736
90048W        W32961  19.831  14.707  24.728 -0.0723 -0.0443  0.1190
90049W        W32962  24.324   9.425  15.557 -0.2556 -0.2337 -0.0208
90050W        W32963  23.721  16.996  16.016 -0.3509 -0.2713  0.2280
90051W        W32964  21.009  10.003  19.792  0.1632 -0.1373 -0.1409
90052W        W32965  21.995  19.892  18.631 -0.0459  0.0567  0.0530
90053W        W32966  32.290  26.378  26.119 -0.4891 -0.4009 -0.3070
90054W        W32967  18.351   3.904  24.326 -0.0057  0.4958 -0.2983
90055W        W32968  12.759  12.248  17.971  0.1312 -0.4216 -0.1123
90056W        W32969  17.642  10.946  17.074 -0.0929  0.2205 -0.3026
90057W        W32970  30.134  26.895  18.219 -0.0746  0.1012 -0.1358
90058W        W32971  26.878  19.440  20.505 -0.2683 -0.3208 -0.1513
90059W        W32972  17.413  14.020  25.487  0.0327 -0.0168 -0.1404
90060W        W32973  22.504  17.929  18.745 -0.0291  0.0635  0.2481
90061W        W32974   5.768  17.392  22.296 -0.0310 -0.1732  0.2011
90062W        W32975  27.315  29.390  13.746  0.3706 -0.0231 -0.2303
90063W        W32976  25.189  22.184  17.651 -0.0860  0.1846  0.1805
90064W        W32977  31.791  19.062  23.708  0.0803 -0.1915 -0.1502
90065W        W32978  23.322  14.223  19.718 -0.1344 -0.4087  0.2317
90066W        W32979  33.747  16.764  15.644  0.0329 -0.0836  0.1853
90067W        W32980  26.073  13.440  16.598  0.1318 -0.0995 -0.1085
90068W        W32981  17.006  17.676  12.371  0.1598 -0.0958  0.3048
90069W        W32982  13.284  16.333  15.336  0.1528 -0.0044 -0.1813
90070W        W32983  22.307  16.519  15.994 -0.0922  0.0080  0.0188
90071W        W32984  15.525   7.182  26.859  0.2187 -0.0638 -0.1733
90072W        W32985   5.660  14.120  17.083  0.0521 -0.1955 -0.4998
90073W        W32986  12.563  29.132  19.787  0.2820  0.2672 -0.2501
90074W        W32987  16.463  16.552  17.577 -0.3275 -0.0778 -0.2732
90075W        W32988  19.785   6.438  19.303 -0.0282  0.2281  0.1295
90076W        W32989  12.307  13.555  12.959 -0.2822  0.0525 -0.2112
90077W        W32990  24.335   7.796  22.567 -0.5841  0.0630  0.0105
90078W        W32991  13.255  13.769  15.543  0.2983 -0.0539 -0.4383
90079W        W32992  29.950  10.017  14.162  0.1582  0.1970  0.1364
90080W        W32993  11.976  21.051  14.619 -0.1836  0.0455  0.1526
90081W        W32994   9.831  22.713  21.200  0.0636 -0.1535  0.0755
90082W        W32995  16.470  21.975  26.819  0.0661  0.1032 -0.0697
90083W        W32996  23.159   8.190  15.071 -0.2054  0.2823  0.1685
90084W        W32997  21.603  27.335  23.028  0.1142 -0.1173  0.3996
90085W        W32998  21.739  18.556  13.993  0.2731 -0.1716  0.0014
90086W        W32999  16.931  17.273  17.559 -0.0788  0.0806  0.0153
90087W        W33000  16.790  16.107  17.316  0.2870  0.0259 -0.3078
90088W        W33001  22.521   5.470  23.093  0.1859 -0.0881 -0.2285
90089W        W33002   8.388  10.011   0.901  0.1894 -0.0728 -0.0626
90090W        W33003  22.165  11.849  16.695 -0.1572  0.2307  0.1558
90091W        W33004  18.204  11.873  18.110 -0.1400 -0.1873 -0.2522
90092W        W33005  12.545  19.674  16.865  0.0576  0.0171  0.0827
90093W        W33006  17.234  10.829  14.077  0.0356  0.2582 -0.3467
90094W        W33007  24.163   6.738  29.515  0.0851 -0.0771 -0.2152
90095W        W33008  19.244  16.439  14.799  0.0389  0.1540  0.0880
90096W        W33009  20.661  11.167  16.145  0.1372  0.0990 -0.1317
90097W        W33010   5.214  19.744  18.107 -0.1596 -0.0271  0.2043
90098W        W33011  32.465  16.274  23.412 -0.3528 -0.4408  0.2752
90099W        W33012  19.326  24.975  20.915  0.4547 -0.0257 -0.0428
90100W        W33013  19.381   3.641  15.960  0.0630  0.0922 -0.2288
90101W        W33014  15.437  15.598  15.887 -0.1893  0.0421  0.2873
90102W        W33015  12.016   4.968  21.850  0.2270 -0.0601  0.1998
90103W        W33016  18.003   9.388  19.051  0.1150  0.0801  0.0166
90104W        W33017  18.605   9.992  16.279  0.0852 -0.1236 -0.1635
90105W        W33018  23.523   6.562  17.276 -0.0993 -0.0837 -0.0313
90106W        W33019  26.396   4.969  26.904  0.1473 -0.1712 -0.1489
90107W        W33020   6.613  15.111  17.830 -0.3538  0.1198 -0.0225
90108W        W33021  10.995  23.570   4.572  0.0419  0.1792  0.0408
90109W        W33022  31.812   6.129  24.604  0.1415 -0.2846  0.4924
90110W        W33023  25.926  12.772  24.675 -0.0084  0.1156  0.0153
90111W        W33024  18.653   8.115  23.687 -0.1563  0.0743 -0.0060
90112W        W33025  19.519  24.506  24.072 -0.2746  0.1801 -0.1257
90113W        W33026  17.227  11.357  12.925 -0.0091 -0.0701 -0.0596
90114W        W33027  16.716  17.973  15.304 -0.2277  0.2862  0.2265
90115W        W33028  28.067  10.569  19.755  0.0144 -0.1471  0.1450
90116W        W33029  26.999  21.805  13.281 -0.3973 -0.1755  0.0246
90117W        W33030  23.922  14.443  13.323  0.1674  0.1103 -0.4293
90118W        W33031  22.176  25.885  16.095  0.0750 -0.0493  0.1992
90119W        W33032  16.075  17.356  18.259 -0.3439  0.1652 -0.3936
90120W        W33033  16.871  12.201  17.520  0.0678  0.0009 -0.0076
90121W        W33034  22.254  19.577  21.010  0.1640  0.1374 -0.2847
90122W        W33035  27.274  19.486  16.383 -0.0851 -0.5690  0.1377
90123W        W33036  28.504  24.793  26.634 -0.3612  0.1821 -0.0958
90124W        W33037  15.522  27.853  26.611  0.0266 -0.1402 -0.2439
90125W        W33038   6.406  20.119  21.993 -0.3278 -0.2699  0.0155
90126W        W33039   3.261  14.707  24.025  0.1378  0.0054  0.0516
90127W        W33040  13.404  26.366  16.368  0.0150  0.1193  0.0989
90128W        W33041  19.749  11.700  16.288  0.2058 -0.1458 -0.1674
90129W        W33042   6.482  16.742  16.341  0.0545 -0.0281  0.0715
90130W        W33043  26.393  17.635  14.926 -0.1239 -0.3219 -0.1923
90131W        W33044   6.072  30.320  14.808 -0.2504 -0.1544 -0.1094
90132W        W33045  12.863   9.322  19.858 -0.2150 -0.1323  0.0141
90133W        W33046  23.840  16.350  26.764 -0.4582  0.0145  0.1912
90134W        W33047  27.109  19.557  23.453  0.0385  0.0926 -0.1152
90135W        W33048  25.521  18.997  12.544 -0.1321  0.1059 -0.4296
90136W        W33049  30.736  26.364   1.776  0.0276 -0.2875  0.2562
90137W        W33050  19.906  13.248  14.381  0.1007 -0.0991 -0.1730
90138W        W33051  26.370  14.010  22.747 -0.1138 -0.1334 -0.1229
90139W        W33052  22.312   7.340  21.176  0.2022 -0.1627 -0.3613
90140W        W33053  23.884  10.472  24.022 -0.0945  0.0769  0.1306
90141W        W33054  11.578  22.879  18.949 -0.0992  0.1835 -0.1456
90142W        W33055  18.885   5.451  21.890  0.2501  0.2379  0.0855
90143W        W33056  18.384  11.440  22.992  0.0198  0.1253 -0.3007
90144W        W33057  18.292  10.448  26.524  0.1967 -0.2596 -0.0592
90145W        W33058  20.857  11.573  15.934  0.2186 -0.2931  0.1241
90146W        W33059  18.660  13.091  12.971  0.0596 -0.0358 -0.2806
90147W        W33060  14.650   4.801  18.477  0.0777 -0.2711 -0.5390
90148W        W33061  20.763  13.580  20.254  0.4320 -0.2160  0.2882
90149W        W33062  26.186  19.185  13.666  0.1858  0.1069  0.2304
90150W        W33063  13.440  17.066  13.408  0.2185 -0.1563  0.3844
90151W        W33064  20.056   9.151  19.489 -0.2230  0.1084  0.1321
90152W        W33065  26.503   6.842   0.862  0.0763 -0.0552  0.3738
90153W        W33066  11.809  22.790  22.390  0.1319 -0.2593 -0.0689
90154W        W33067  29.261  24.364  25.366  0.0473  0.0439 -0.4010
90155W        W33068  30.463   4.403  16.446  0.0468  0.2690  0.1654
90156W        W33069  24.227   6.725  23.402 -0.1976 -0.0201 -0.2542
90157W        W33070  17.389   9.770  26.567  0.1324  0.0818  0.3664
90158W        W33071  26.505  21.278  27.152  0.3490 -0.1810  0.0197
90159W        W33072   9.447  21.898  17.925  0.1727 -0.0709  0.1173
90160W        W33073   6.662  15.698  24.436  0.1801  0.2443  0.0185
90161W        W33074  21.020   9.750  23.498  0.0143 -0.2476  0.2855
90162W        W33075  30.969  20.676   4.715 -0.0567  0.2445  0.3181
90163W        W33076  11.568  25.372  15.871 -0.1136  0.3350 -0.0989
90164W        W33077   0.455  10.080  23.576 -0.0183  0.0579  0.1269
90165W        W33078  27.489  14.888  20.329 -0.2177  0.0492  0.0167
90166W        W33079  23.684   3.596  16.858 -0.2024  0.1935 -0.1653
90167W        W33080  22.658  15.535  20.365  0.2597  0.2448  0.1836
90168W        W33081  22.990  16.291  17.450  0.0879 -0.3261 -0.1068
90169W        W33082  28.572  20.669  13.924  0.1499 -0.0981  0.2388
90170W        W33083  11.278  14.306  21.896 -0.2090 -0.2946  0.3394
90171W        W33084  16.760   7.525  15.919  0.0744 -0.0867 -0.2259
90172W        W33085  25.016  19.195  21.282  0.0751 -0.4319  0.2583
90173W        W33086  23.497   9.765  15.544 -0.0744 -0.1654 -0.2405
90174W        W33087  18.820  23.208  18.995  0.3205  0.0137  0.0842
90175W        W33088  24.773   7.314  15.952  0.0852  0.0569  0.1377
90176W        W33089  11.919  14.524  17.105 -0.2446  0.1536  0.2793
90177W        W33090  13.435  18.258  13.359 -0.1295  0.0975  0.0069
90178W        W33091  18.521  18.051  25.093  0.3526 -0.0093 -0.0937
90179W        W33092  25.408  15.637  17.824  0.0201 -0.2055 -0.4152
90180W        W33093  23.937  15.430  19.990  0.2145  0.0264 -0.2172
90181W        W33094  22.642  13.498  20.619  0.1449 -0.0841  0.0658
90182W        W33095  14.196  11.557  16.652 -0.1835 -0.1946  0.1136
90183W        W33096  34.006  22.490  17.617 -0.0699  0.1466 -0.1387
90184W        W33097  17.485   8.321  17.039  0.1966 -0.0649  0.2963
90185W        W33098  19.614  19.883  13.866 -0.1035 -0.0780  0.2846
90186W        W33099  22.839  21.993  17.821  0.0049  0.1073 -0.2093
90187W        W33100  20.357  10.972  16.505 -0.0722  0.0063 -0.0088
90188W        W33101  13.055  13.136  18.923 -0.1503  0.0407 -0.0166
90189W        W33102   6.689  16.804  21.210 -0.1650 -0.3443 -0.3227
90190W        W33103  19.115  13.758  23.077 -0.2394 -0.2539 -0.1274
90191W        W33104  23.345  12.511  21.337 -0.1171 -0.1289  0.2136
90192W        W33105  18.333   9.752  17.178 -0.3944 -0.1844  0.2498
90193W        W33106  21.769   8.818  16.318 -0.4231  0.1877  0.0865
90194W        W33107  27.916  23.421  15.728  0.2973 -0.1503 -0.3096
90195W        W33108  24.309   7.842  14.321 -0.0822  0.2512 -0.2624
90196W        W33109  24.585  33.126  24.315 -0.2619 -0.0400  0.0360
90197W        W33110  25.974  18.711  16.006 -0.0619  0.1740 -0.3988
90198W        W33111   8.623  17.355  17.651 -0.3796 -0.0368  0.2831
90199W        W33112  15.675  19.502   1.704  0.1399 -0.1569 -0.0269
90200W        W33113  17.956   8.123  18.720 -0.3429 -0.0464  0.0397
90201W        W33114  23.865   9.883  18.544 -0.1998 -0.0137 -0.1220
90202W        W33115  17.734  16.225  13.689  0.0960  0.2494  0.1392
90203W        W33116  26.502  13.299  19.400  0.1241 -0.0744 -0.1512
90204W        W33117  25.893  31.748  19.796 -0.0096  0.1470 -0.2641
90205W        W33118  22.112  19.041  16.578 -0.0174  0.2241  0.5265
90206W        W33119  19.731   6.251  18.031 -0.1365  0.0182 -0.0256
90207W        W33120  23.763  13.492  17.990  0.3479  0.1492 -0.0883
90208W        W33121  26.654  23.909  14.588 -0.0492 -0.1302 -0.2043
90209W        W33122  30.742  26.173  26.809  0.0936  0.2179 -0.0799
90210W        W33123  21.535  19.824  24.007  0.4377 -0.2574 -0.3976
90211W        W33124  18.434   7.781  18.668  0.0512  0.3059 -0.3526
90212W        W33125  19.470  17.898  18.263 -0.0737  0.1214 -0.0735
90213W        W33126  23.518  20.816  25.329 -0.1032 -0.2563  0.2498
90214W        W33127  15.719   9.055  15.929  0.1505 -0.1092  0.0600
90215W        W33128   9.584  11.617  15.550 -0.1177 -0.0442  0.0464
90216W        W33129  15.190  13.865  13.817  0.0447 -0.1934 -0.2003
90217W        W33130  25.387  16.770  16.929 -0.2171 -0.2416  0.1083
90218W        W33131  26.388  13.577  20.756  0.0150  0.1309  0.0022
90219W        W33132  29.343  10.080  22.715 -0.1082 -0.1177 -0.0288
90220W        W33133  15.266   4.578  19.152 -0.0745  0.2845 -0.0673
90221W        W33134  22.800  11.505  21.077  0.2653  0.1223 -0.0283
90222W        W33135  20.700  14.772  15.550 -0.2731 -0.5406 -0.1338
90223W        W33136  32.630  12.112  18.813 -0.4080  0.1139 -0.0886
90224W        W33137  27.670  24.472  21.212  0.1796 -0.0524 -0.0928
90225W        W33138  13.254  17.632  14.148 -0.2225 -0.1037  0.0644
90226W        W33139  20.882  13.140  12.807 -0.0731 -0.2159 -0.2092
90227W        W33140  18.498  13.150  17.101  0.0360  0.0351 -0.0864
90228W        W33141  26.401  27.004  26.336  0.1109 -0.1108  0.1270
90229W        W33142  21.081  16.758  12.764  0.1958 -0.2728 -0.1669
90230W        W33143  19.303   2.635  18.448  0.0265 -0.0888  0.0807
90231W        W33144  14.988  16.393  13.920 -0.2523 -0.1491  0.3515
90232W        W33145  20.674   9.500  23.152 -0.0979  0.1237  0.2475
90233W        W33146  18.486  16.460  19.997  0.0175  0.1570 -0.0336
90234W        W33147  18.108  14.962  27.952  0.0281  0.0737 -0.2411
90235W        W33148  19.549  24.957  17.241  0.3823 -0.2729  0.3083
90236W        W33149  21.476   5.734  21.791 -0.3427 -0.2731  0.2461
90237W        W33150  19.191  15.599  22.017  0.1817  0.1150  0.0730
90238W        W33151  17.277  16.176  19.071 -0.2249  0.2896  0.1901
90239W        W33152  31.979  25.497  15.392 -0.1671  0.3966  0.1727
90240W        W33153   8.836  10.380  19.063  0.2518 -0.3874  0.0182
90241W        W33154  13.509  13.587  27.385 -0.1121  0.2769  0.4633
90242W        W33155  19.095  20.470  19.914 -0.0173 -0.0043 -0.1521
90243W        W33156  17.505  13.612  25.728  0.0637  0.1406  0.0259
90244W        W33157  15.999  16.508  16.662  0.0451  0.1218  0.0460
90245W        W33158  11.800  22.313  26.081 -0.1047  0.0577 -0.1457
90246W        W33159   8.980  10.214   2.635  0.2808  0.0739  0.0926
90247W        W33160  13.270   3.822  25.965 -0.1871 -0.0752  0.0386
90248W        W33161  21.189  12.102  23.318  0.1353 -0.0860  0.1722
90249W        W33162  19.901  10.156  27.308  0.2375 -0.2727  0.6479
90250W        W33163  17.135   8.516  26.653  0.0396 -0.1017  0.0134
90251W        W33164  16.708  15.071  27.149  0.3139  0.1380 -0.0413
90252W        W33165  19.056  14.271  26.337 -0.2045 -0.2426  0.2577
90253W        W33166  14.421  18.802  12.024  0.0261  0.0041 -0.0684
90254W        W33167  14.739  22.839  28.493 -0.1080 -0.2126 -0.2534
90255W        W33168  28.887  24.393  22.743  0.1407  0.2763  0.1909
90256W        W33169  16.869  16.051  16.816  0.1490 -0.1109  0.1837
90257W        W33170  23.114  10.503  18.633  0.0840  0.1242  0.0175
90258W        W33171  24.495  15.292  23.282 -0.3644 -0.0864  0.0875
90259W        W33172  16.587  15.523  17.614  0.0134  0.0360 -0.0213
90260W        W33173  30.943  19.114   4.121  0.1641 -0.2026 -0.2197
90261W        W33174  16.399  17.463  17.907 -0.0867  0.1015  0.1862
90262W        W33175  30.000   8.287  26.607  0.2296 -0.1348  0.0076
90263W        W33176  18.578   4.458  19.434 -0.1727 -0.1637 -0.1701
90264W        W33177  24.441  18.485  13.143  0.2265  0.0293 -0.1551
90265W        W33178  28.345  16.993  21.306 -0.2360 -0.1615  0.4777
90266W        W33179  28.524  19.393  23.897 -0.0132 -0.2403  0.1384
90267W        W33180  22.781  24.186   1.206  0.0025 -0.1766  0.0575
90268W        W33181  21.985  31.509  20.934 -0.2092 -0.0218  0.4310
90269W        W33182  16.531  12.516  19.494 -0.1495 -0.4773  0.3158
90270W        W33183  21.601  14.864  16.223 -0.2562  0.0269  0.0921
90271W        W33184  33.075  16.366  14.024  0.1610  0.1201 -0.0645
90272W        W33185  21.970  15.202  19.554 -0.2423 -0.3648 -0.4451
90273W        W33186  19.191  21.927  16.139  0.2475  0.5656 -0.0256
90274W        W33187  22.814  16.700  25.540  0.3419  0.0584 -0.0310
90275W        W33188  17.757   6.819  16.081 -0.0238  0.1258  0.2487
90276W        W33189  17.515  16.459  17.468 -0.1383 -0.2885  0.1323
90277W        W33190   8.613   6.171  23.019  0.2015  0.1078  0.0370
90278W        W33191  16.861   4.309  29.412 -0.2615  0.0484 -0.2155
90279W        W33192  19.810   5.422  23.503 -0.3200  0.1821  0.0333
90280W        W33193  13.222  12.744  27.562  0.0638 -0.2937 -0.1641
90281W        W33194  18.856  13.288  18.719 -0.1000 -0.0684 -0.4242
90282W        W33195  20.854   5.212  29.543 -0.1171  0.1515 -0.1293
90283W        W33196  17.671  16.469  20.303  0.0854  0.1935  0.1630
90284W        W33197  18.827  16.106  17.819 -0.0606  0.1421  0.0889
90285W        W33198  18.043  17.923  19.074 -0.0446  0.0856 -0.1725
90286W        W33199  21.027  22.147  20.054 -0.0536 -0.2032  0.3170
90287W        W33200  20.600  14.122  15.244  0.0206  0.2040 -0.2160
90288W        W33201   8.721   5.990  27.830 -0.0905 -0.2070  0.2143
90289W        W33202  25.113  15.072  22.394 -0.0676  0.2280 -0.0091
90290W        W33203  17.821  13.188  22.337 -0.3294  0.0839  0.2646
90291W        W33204  20.760   7.497  22.588  0.0452 -0.2441 -0.0363
90292W        W33205  24.959  29.644  23.472  0.0322  0.0892  0.0958
90293W        W33206  19.468  26.962   1.576 -0.2288  0.0799  0.1162
90294W        W33207  18.131  11.491  19.014  0.0174 -0.2338 -0.0374
90295W        W33208  25.143  15.728  28.423  0.0426 -0.0680  0.1079
90296W        W33209  12.107  17.605  21.213  0.0613 -0.0407 -0.0623
90297W        W33210  16.678  17.976  18.121  0.0670  0.1762 -0.0938
90298W        W33211  12.445  10.412  23.376  0.0511  0.0846  0.2620
90299W        W33212  24.313  13.935  16.717  0.0678  0.0496 -0.1173
90300W        W33213  22.650  16.793  28.619 -0.1039  0.2346 -0.1894
90301W        W33214  25.252  31.144   3.179 -0.0233 -0.1131  0.0997
90302W        W33215  18.522  23.363  22.460 -0.0530 -0.2218 -0.0669
90303W        W33216  18.979  15.304  27.542 -0.0679  0.0171  0.0835
90304W        W33217  17.038  15.510  18.532 -0.1068 -0.1279  0.1073
90305W        W33218  27.760  16.922  22.577  0.2057 -0.0180  0.2542
90306W        W33219  23.026  11.856  23.057  0.1686 -0.2537  0.0677
90307W        W33220  17.376  12.717  19.226  0.2127 -0.0308 -0.1459
90308W        W33221  15.968   6.143  27.193  0.1753 -0.0529  0.0176
90309W        W33222  19.417  24.229   4.690 -0.2924  0.1291  0.0652
90310W        W33223  15.902   9.688  20.226  0.4072 -0.1473 -0.0060
90311W        W33224  17.660  17.160  17.686 -0.3107 -0.1123 -0.0354
90312W        W33225  17.703  16.321  16.969 -0.1345 -0.0310 -0.2556
90313W        W33226  16.823  15.504  18.057  0.0785  0.0914 -0.0569
90314W        W33227  13.789  11.001  19.873  0.1374  0.3478  0.0843
90315W        W33228  24.858  17.864  20.028  0.3832 -0.2227  0.2238
90316W        W33229  22.470  23.416  20.442  0.1619  0.2897  0.0957
90317W        W33230  31.739  20.098  17.669 -0.2199  0.2740 -0.0994
90318W        W33231  33.827   0.374  25.025 -0.0777 -0.0559  0.0401
90319W        W33232  12.919  22.107  15.074 -0.1706 -0.0580  0.2338
90320W        W33233   2.655  18.197  18.218 -0.1945  0.0224 -0.1861
90321W        W33234   7.032  14.035  20.549 -0.3074 -0.1910  0.0138
90322W        W33235  33.365  23.076  14.885 -0.0848  0.0216 -0.1541
90323W        W33236  15.011  16.952  18.813  0.0943  0.0797  0.2422
90324W        W33237  17.565  15.652  19.067 -0.1136 -0.2907  0.1895
90325W        W33238  13.664  15.884  19.702 -0.1485 -0.6381 -0.3621
90326W        W33239  18.970  13.353  12.038  0.3555  0.0699 -0.1808
90327W        W33240  16.375  16.983  19.241 -0.0983  0.0025  0.2164
90328W        W33241  25.560  10.789  22.612  0.2137  0.0547 -0.1918
90329W        W33242  28.515  15.470  24.209  0.0207 -0.0559  0.1313
90330W        W33243  14.581   9.113  17.552  0.1179 -0.1872 -0.0974
90331W        W33244  10.394   6.438   2.402 -0.5057  0.1631 -0.1343
90332W        W33245  22.793  16.933  29.454 -0.4144 -0.3744  0.2507
90333W        W33246  32.389  20.611  20.148  0.1180  0.2805 -0.0108
90334W        W33247  16.036  16.041  13.524 -0.0419 -0.0926 -0.4801
90335W        W33248  34.025  10.656  22.801 -0.0396  0.1879  0.2665
90336W        W33249  16.747  17.090  17.093 -0.2405  0.2982 -0.1440
90337W        W33250  21.203  13.947  17.809  0.3721  0.3408  0.3100
90338W        W33251  20.306  13.755  15.817  0.3215 -0.4321  0.0909
90339W        W33252  13.774   6.791   7.756 -0.2992 -0.0125  0.2606
90340W        W33253  16.229  23.594  19.989  0.1454  0.1339  0.1300
90341W        W33254  26.965  21.448  21.592  0.2431  0.2345  0.0291
90342W        W33255  17.410  13.298  18.964  0.0860  0.0236 -0.0307
90343W        W33256  20.827  13.470  28.682 -0.2771  0.1869 -0.0878
90344W        W33257   0.494  17.253  20.767  0.3812  0.1188  0.0233
90345W        W33258  22.619   4.494  20.789 -0.0315 -0.1146 -0.0556
90346W        W33259   6.989  21.169  22.763  0.2199  0.0360 -0.0775
90347W        W33260  23.114  21.429  15.779  0.1174 -0.3531  0.0090
90348W        W33261  23.772  18.858  25.788 -0.2103 -0.1289  0.1148
90349W        W33262  30.801  10.558  23.417 -0.0841 -0.2501  0.2261
90350W        W33263  15.400  10.320  19.757 -0.2101 -0.1262 -0.1092
90351W        W33264  31.360  16.635  22.631  0.1859  0.1540  0.3045
90352W        W33265  16.443  16.614  18.369  0.1829  0.3847  0.2104
90353W        W33266  21.897  12.943  18.400  0.2617  0.2195  0.3422
90354W        W33267  18.071  17.548  16.627 -0.0523 -0.0295  0.1385
90355W        W33268  16.830  17.276  19.116 -0.0287  0.1626 -0.0508
90356W        W33269  23.513  22.334  27.508 -0.2721  0.1559  0.1211
90357W        W33270  19.559  17.368  14.330  0.3368  0.3352  0.1444
90358W        W33271  15.456  32.903  26.003 -0.1364  0.0638  0.1467
90359W        W33272  32.158  20.189   0.819  0.0154  0.3358  0.3213
90360W        W33273   8.828  21.094  15.131 -0.0982  0.1732 -0.0795
90361W        W33274  13.947  22.267  23.146  0.0955 -0.1830  0.2752
90362W        W33275  17.077  19.274  18.207 -0.1036  0.1720 -0.1005
90363W        W33276  16.948  17.761  18.633  0.2712 -0.0267  0.3827
90364W        W33277  29.808   1.414   0.482  0.0835 -0.1358 -0.0732
90365W        W33278   8.964  21.157  25.316 -0.0770 -0.0393  0.0962
90366W        W33279  16.784  15.977  17.791 -0.0301 -0.0252  0.3737
90367W        W33280  34.298  15.537   5.124 -0.0016  0.2431  0.0680
90368W        W33281  25.407   7.837  21.488  0.2332 -0.0965  0.0202
90369W        W33282  19.778  15.397  25.746  0.1405  0.0616  0.3594
90370W        W33283  17.790   9.566  21.302  0.0314  0.3030 -0.2955
90371W        W33284  10.106  21.941   2.574 -0.0371  0.3067  0.1095
90372W        W33285  26.969  14.145  25.385  0.1044 -0.0025 -0.4393
90373W        W33286  15.493   8.783  23.747 -0.0442 -0.3212 -0.2192
90374W        W33287  18.870  16.945  18.941  0.0590 -0.0032 -0.0160
90375W        W33288  21.208  16.334   6.693  0.4501 -0.1314 -0.1154
90376W        W33289  20.334  16.335   7.656 -0.3797  0.1592  0.4174
90377W        W33290  30.878  22.164  17.232  0.0080  0.0037 -0.0638
90378W        W33291  15.490  27.822   5.397 -0.2911  0.1322 -0.1149
90379W        W33292  27.916  26.499   2.097  0.0547 -0.0805 -0.1206
90380W        W33293  23.884  13.633  21.449 -0.1601  0.0644 -0.2726
90381W        W33294  20.297   7.396  19.687  0.0757 -0.5851 -0.1701
90382W        W33295  20.003  15.385  23.297 -0.2064 -0.0081  0.0261
90383W        W33296  25.814  24.914  27.314 -0.2678  0.0647 -0.1324
90384W        W33297  19.141  18.198  18.820 -0.2602  0.4397 -0.0548
90385W        W33298  30.524  17.496  28.280  0.0765 -0.1816 -0.1146
90386W        W33299  25.648   8.734  17.486 -0.0328 -0.0449  0.2167
90387W        W33300  27.788  30.372  13.373 -0.0531 -0.0032 -0.3820
90388W        W33301  27.552   8.915  15.448  0.1314  0.3434  0.1414
90389W        W33302  18.547  16.747  14.634  0.1407 -0.1537 -0.0859
90390W        W33303  16.468  25.315  28.960 -0.0084 -0.0024  0.0633
90391W        W33304   3.792   9.738  20.464 -0.1339 -0.0711  0.1180
90392W        W33305   6.539  13.582  19.555 -0.3835  0.0149  0.1911
90393W        W33306  13.147  20.951   8.951  0.2782  0.3121 -0.2883
90394W        W33307  27.137  19.756  24.378 -0.0954 -0.0979 -0.0872
90395W        W33308  16.771  12.192  29.703  0.0617 -0.1205  0.0014
90396W        W33309  21.164  10.918  27.408  0.0642  0.1805  0.1173
90397W        W33310  23.999  10.806  23.648  0.0748 -0.1722 -0.2519
90398W        W33311  22.539  15.745  22.648 -0.2262 -0.0141 -0.0665
90399W        W33312  17.454  17.829  18.813  0.1708 -0.0643 -0.2148
90400W        W33313  21.576  16.374   5.668 -0.1277  0.1751 -0.3773
90401W        W33314  26.616  24.157  20.392 -0.1290  0.2052 -0.1819
90402W        W33315  14.482   9.655  28.084 -0.2536 -0.2068  0.1611
90403W        W33316  26.316  20.152  16.478 -0.0835 -0.1554 -0.0649
90404W        W33317  17.308  16.816  20.341  0.5238  0.0452 -0.3204
90405W        W33318  18.086  20.991  16.896  0.0628  0.4152  0.2010
90406W        W33319  24.585  17.516  23.400 -0.2524 -0.2069  0.0658
90407W        W33320  12.475  14.127   3.563 -0.1199 -0.0095  0.0041
90408W        W33321  24.087  25.609  12.692  0.0705  0.0442  0.2566
90409W        W33322  21.665  12.330  17.700 -0.3027  0.0188 -0.0693
90410W        W33323  24.889  15.409  23.595 -0.0306  0.0275 -0.0538
90411W        W33324  29.700  15.179  14.694 -0.2591  0.0426 -0.0168
90412W        W33325  25.120   7.710  24.958  0.3517 -0.1079  0.0497
90413W        W33326  26.066  10.871  21.669 -0.0952 -0.2110 -0.0427
90414W        W33327  20.668   4.830  18.019 -0.1050  0.1858 -0.2045
90415W        W33328  12.062  15.139  22.571 -0.2345  0.1910  0.1908
90416W        W33329  28.262  21.296  17.518 -0.3611 -0.0747 -0.2784
90417W        W33330  26.837  13.581  22.005  0.0404 -0.0942 -0.1628
90418W        W33331  17.099  16.888  18.987  0.0141  0.1657  0.2770
90419W        W33332  15.930  13.740  15.596  0.2995 -0.0198  0.0545
90420W        W33333  25.916   9.082  29.470  0.1608 -0.2285  0.0890
90421W        W33334  31.799  21.281  24.558  0.0268 -0.1075  0.1863
90422W        W33335  18.199  17.047  16.873 -0.1611  0.3271 -0.0984
90423W        W33336  21.200  14.077   1.497 -0.3869 -0.0103  0.1878
90424W        W33337  16.351  15.033  12.406 -0.1773 -0.0672 -0.3044
90425W        W33338  25.386  20.647   4.388 -0.5828 -0.0023 -0.0570
90426W        W33339  23.808  12.714  14.144 -0.0682 -0.0446 -0.1368
90427W        W33340  25.239  11.901  18.774 -0.0048  0.0084 -0.0197
90428W        W33341  25.989  22.684  27.803 -0.0024  0.1793  0.0958
90429W        W33342  22.059  17.186  28.298 -0.3713  0.1886 -0.4846
90430W        W33343  27.191   8.056  25.554  0.2443  0.1337 -0.2785
90431W        W33344  20.402  12.577  23.259 -0.2129 -0.3783 -0.1050
90432W        W33345  32.642  12.465  16.684  0.1104  0.2332  0.1618
90433W        W33346  24.836  11.755  20.487 -0.0064  0.3589  0.3479
90434W        W33347  29.468  31.096  14.999 -0.1247  0.0881 -0.0116
90435W        W33348  17.130  10.443  23.828  0.1410  0.0201  0.1592
90436W        W33349  33.556  16.998  27.130 -0.2469 -0.1601  0.2878
90437W        W33350  24.314   6.412   3.032 -0.0550 -0.0286 -0.0252
90438W        W33351  19.179  15.787  17.974 -0.2274 -0.0413  0.0994
90439W        W33352  24.615  32.106   4.041  0.0855 -0.4404 -0.1332
90440W        W33353  19.209   8.678   0.395  0.0135 -0.0002  0.0341
90441W        W33354  32.618   2.780  19.916  0.1085 -0.0984 -0.0812
90442W        W33355  17.968  16.210  20.596  0.0123 -0.0249  0.1617
90443W        W33356  21.675  17.173  14.516  0.2546 -0.0461  0.3146
90444W        W33357  19.439   9.471  16.032 -0.2743  0.2628  0.0560
90445W        W33358  29.827  20.972  22.135  0.0054 -0.1112  0.1417
90446W        W33359  22.143  13.485  26.412 -0.0457 -0.2424 -0.0720
90447W        W33360  30.169  17.626  27.342 -0.1459  0.0720  0.1192
90448W        W33361   0.506  17.684   0.952 -0.3663  0.1949  0.0990
90449W        W33362  16.352  10.800  19.801  0.1411 -0.1925  0.0018
90450W        W33363  13.717  13.559  21.876 -0.0437  0.0374  0.3350
90451W        W33364  20.320  16.136  28.247  0.0470 -0.2297  0.2951
90452W        W33365  21.126  21.454  27.471 -0.2730  0.2898  0.2006
90453W        W33366  17.550  15.604  18.518 -0.0198 -0.1647 -0.1672
90454W        W33367  26.759   5.001  28.678 -0.1866 -0.3370  0.0305
90455W        W33368  21.406  13.752  20.684 -0.1497 -0.0897 -0.2878
90456W        W33369  27.900  14.628  19.465  0.0655  0.2030 -0.0922
90457W        W33370  22.254  22.726   4.281 -0.0915  0.3219  0.1955
90458W        W33371  18.577   7.963   2.122 -0.0265  0.1022 -0.0056
90459W        W33372  17.778  17.470  19.201 -0.0662 -0.3473 -0.1838
90460W        W33373  10.678  21.843  15.325  0.0140 -0.0101  0.3757
90461W        W33374  24.967  22.180  27.041 -0.0044  0.0261  0.2322
90462W        W33375  22.611  15.669   5.328 -0.3929 -0.3376  0.1150
90463W        W33376  15.632  13.071  24.421 -0.0226  0.0505 -0.0804
90464W        W33377  25.658  15.972   5.157 -0.0890  0.0393 -0.0787
90465W        W33378  13.241  23.154  28.506  0.3448 -0.1176  0.2808
90466W        W33379  17.945  16.176  17.416  0.0417  0.1452  0.0175
90467W        W33380  17.408  28.372   3.362 -0.3574 -0.0511 -0.2252
90468W        W33381  23.127  22.653  22.869 -0.0778  0.0190 -0.0592
90469W        W33382  25.683  19.610  17.537  0.1398  0.0932 -0.0819
90470W        W33383  16.963   7.441  22.863 -0.0557  0.1816 -0.5224
90471W        W33384  33.328  20.742   1.580  0.4291 -0.0811 -0.0481
90472W        W33385  19.922   8.488  20.793  0.0138 -0.0998  0.0100
90473W        W33386  17.956  22.060  13.884 -0.1431 -0.2023 -0.1052
90474W        W33387  24.553  17.535  19.212 -0.3582  0.1521  0.0553
90475W        W33388   9.928  20.640  28.842 -0.2997  0.2453 -0.0701
90476W        W33389  15.245  17.721  18.269  0.0377 -0.0627 -0.0778
90477W        W33390  24.563  14.779   8.739 -0.0524  0.0123 -0.1525
90478W        W33391  17.250  13.839   6.356 -0.2863  0.0857  0.2504
90479W        W33392  22.417  17.393  21.722 -0.0636 -0.2729 -0.0442
90480W        W33393  20.092  13.464   2.301 -0.2164  0.1003 -0.1656
90481W        W33394  15.325   9.103  23.097 -0.1302  0.0407  0.0275
90482W        W33395  30.777  12.913  22.139 -0.0339  0.0597 -0.1927
90483W        W33396  25.755  12.002   0.283  0.3183 -0.0971  0.0400
90484W        W33397  17.473  13.792  22.051  0.1679  0.1783 -0.0160
90485W        W33398  16.532  20.798  25.221 -0.0500  0.0386 -0.1206
90486W        W33399   9.612   2.906  22.902 -0.0845  0.1604 -0.3347
90487W        W33400  10.108  16.583  22.175  0.2740  0.1266  0.1889
90488W        W33401  33.136  15.388  21.441  0.0705 -0.0184 -0.1367
90489W        W33402  20.759  22.304  29.169 -0.0841  0.3795 -0.0251
90490W        W33403  10.702  18.016  20.673  0.1042  0.2278 -0.0545
90491W        W33404   0.932  18.493   2.081  0.0592 -0.2750 -0.3556
90492W        W33405  21.220  16.871  14.724  0.1308  0.0960  0.1852
90493W        W33406  18.314  18.443   1.261 -0.0018  0.1374 -0.0018
90494W        W33407  23.133  18.739  28.302 -0.0922  0.2240 -0.0627
90495W        W33408  18.030  17.374   0.372 -0.3432 -0.0555 -0.0916
90496W        W33409   5.447  23.230  26.461  0.2639  0.1971  0.0098
90497W        W33410  19.523  22.317  22.144 -0.5506 -0.3062  0.1790
90498W        W33411   9.037  10.336  25.614 -0.2004 -0.0953  0.0357
90499W        W33412  20.655  13.691  13.536 -0.0579  0.0886  0.1266
90500W        W33413  27.022   9.012   4.618 -0.0726 -0.0114  0.1720
90501W        W33414  16.697  11.938  28.497  0.3045 -0.1620 -0.3197
90502W        W33415  19.660   8.617   7.839 -0.2905  0.1441  0.3013
90503W        W33416  19.666  20.098  23.961  0.4647 -0.1539  0.3170
90504W        W33417  24.328  12.137   5.853  0.1933 -0.0028  0.0048
90505W        W33418  21.646  31.694  28.942  0.0625 -0.2163 -0.2709
90506W        W33419  30.534  15.107  15.288  0.0999  0.1116  0.2041
90507W        W33420  24.601   4.068  23.786 -0.4906  0.1738  0.2210
90508W        W33421  21.294  19.415  21.439 -0.1408  0.2956  0.0858
90509W        W33422  11.594   8.545   6.715  0.0181 -0.3507  0.0502
90510W        W33423  21.563  20.372   4.357  0.0591 -0.1123 -0.1990
90511W        W33424  18.024  11.560  25.330 -0.3209 -0.2030 -0.3925
90512W        W33425  21.023  10.646  22.288 -0.0212 -0.1107 -0.0013
90513W        W33426  24.440   6.674   7.590  0.0873  0.2331 -0.2844
90514W        W33427  22.011  25.801   1.564 -0.0227 -0.0216 -0.2246
90515W        W33428  17.255  20.535  24.702 -0.0774 -0.2963 -0.2733
90516W        W33429  13.316  21.623   3.096 -0.0271 -0.1746 -0.0301
90517W        W33430  21.178  22.673  25.089 -0.2321 -0.1491  0.0854
90518W        W33431  28.343  13.223  20.580 -0.0210 -0.1130  0.0077
90519W        W33432  21.390  10.504  25.744  0.0061 -0.1566 -0.0019
90520W        W33433  18.572  17.520  27.998 -0.1361  0.0043  0.1659
90521W        W33434  16.522   4.681  29.643  0.2677  0.1864 -0.0763
90522W        W33435  21.383   8.572  28.158 -0.0740 -0.2361  0.1832
90523W        W33436  24.226  14.293   6.184  0.0514  0.1238  0.0442
90524W        W33437   0.459  22.691  27.648  0.0364  0.0983  0.0171
90525W        W33438  25.943  24.773  25.601  0.1551  0.2675  0.0697
90526W        W33439  23.673  13.849  28.541 -0.0380 -0.0110  0.0260
90527W        W33440  14.888  17.494  27.440 -0.1893 -0.1081  0.0686
90528W        W33441  15.214  17.004   3.951  0.1376 -0.0279  0.1953
90529W        W33442  24.683  11.476  22.741 -0.1583  0.2567  0.0187
90530W        W33443  28.602  29.800  26.579  0.0334 -0.0208  0.1195
90531W        W33444  20.129   8.511   6.586 -0.0668  0.0850  0.4248
90532W        W33445  22.574   6.522  23.214 -0.0714 -0.1296  0.0161
90533W        W33446  13.844  15.762  23.068  0.2774 -0.0198 -0.0107
90534W        W33447  25.146  26.720  28.536 -0.0030 -0.0073 -0.1420
90535W        W33448  32.623  18.398  20.037  0.1605 -0.1141  0.0049
90536W        W33449  21.970  15.460  16.846 -0.0592 -0.2031  0.0543
90537W        W33450  18.120  18.855  26.845 -0.1458  0.3030 -0.2570
90538W        W33451  15.550  23.113   8.211  0.0948  0.1316 -0.4608
90539W        W33452  23.043  11.004   7.898  0.1675 -0.0438 -0.1922
90540W        W33453   9.042  13.403  27.729 -0.2012 -0.4143 -0.0114
90541W        W33454  25.163  19.522   2.790  0.0191 -0.2252 -0.1349
90542W        W33455  12.895  26.351   3.731  0.2025 -0.0154  0.2069
90543W        W33456  29.540  23.416  26.824 -0.0697  0.0282  0.1199
90544W        W33457  11.160  13.255   2.742  0.1772 -0.0816  0.1446
90545W        W33458  17.732  23.813  25.787 -0.2411  0.4260 -0.2339
90546W        W33459  24.728  21.325  24.232  0.2291  0.1051  0.1293
90547W        W33460  18.997  12.728   5.004  0.0014 -0.0447 -0.2170
90548W        W33461  22.517  17.658   2.128 -0.1491  0.1860  0.0583
90549W        W33462  15.938  24.846  24.949  0.1510 -0.0610  0.0263
90550W        W33463  19.633  21.545   1.136  0.2399 -0.2822 -0.1017
90551W        W33464  23.812  15.882   1.905  0.0904 -0.0394  0.0503
90552W        W33465   3.314  15.737  27.699 -0.1115  0.1465 -0.0087
90553W        W33466   7.656  24.487  17.307 -0.1706 -0.1300  0.0389
90554W        W33467  15.800  18.123  29.521  0.1578 -0.1601 -0.1984
90555W        W33468  23.116  16.213   2.442 -0.0200  0.0807 -0.1098
90556W        W33469  30.871  16.137  24.742 -0.0251 -0.3490  0.1252
90557W        W33470  23.635  10.991  25.525 -0.0890  0.1739 -0.1046
90558W        W33471  18.015   9.142   0.861 -0.1601  0.0970 -0.0986
90559W        W33472  28.021  10.786   8.251  0.1036  0.2724  0.0816
90560W        W33473  24.965  15.809  21.654 -0.0541  0.1861  0.1579
90561W        W33474  21.081   2.374  22.757 -0.1958 -0.0234 -0.0600
90562W        W33475  17.127  21.056   4.908  0.0314  0.0649 -0.1121
90563W        W33476  18.963  11.509   5.461 -0.2517 -0.1938  0.1528
90564W        W33477  33.806  20.608  23.671  0.1199  0.2361 -0.0404
90565W        W33478  23.632   9.419   1.415  0.2461 -0.1225  0.2368
90566W        W33479  22.287  12.393  27.034 -0.0321  0.0978  0.2464
90567W        W33480  17.096  16.441  27.194  0.0247  0.0946 -0.1333
90568W        W33481  12.801  17.423   4.660  0.0651 -0.0109  0.3626
90569W        W33482  14.895  10.321  20.035 -0.1110 -0.1844  0.0158
90570W        W33483  26.398  13.009   6.936 -0.1567 -0.2174  0.0591
90571W        W33484  22.501  10.369   7.729  0.2092 -0.1591  0.2805
90572W        W33485   4.205   7.497  24.843 -0.0923  0.0339 -0.0968
90573W        W33486  30.050  16.792  27.962  0.0082 -0.0788 -0.0294
90574W        W33487  21.278  22.634  23.386  0.1554  0.3208 -0.2515
90575W        W33488   8.054  16.672   4.096  0.1306 -0.2132  0.0859
90576W        W33489  14.852  16.037   5.043 -0.1571  0.0418  0.2735
90577W        W33490   4.766   7.130   5.344 -0.4392 -0.0414  0.2250
90578W        W33491  34.037  20.503  28.733 -0.1249 -0.3560 -0.0255
90579W        W33492  25.941  11.447  26.500  0.2968  0.2179  0.1236
90580W        W33493  13.037   3.758   1.250 -0.1338  0.3377 -0.2799
90581W        W33494  16.104  16.539  26.147  0.1282 -0.0595 -0.1041
90582W        W33495  15.860  14.933   6.693  0.0358 -0.4964  0.1139
90583W        W33496  21.584   6.061   5.445 -0.2941  0.2025 -0.0666
90584W        W33497  27.656  18.455  25.590  0.3185 -0.3999 -0.1147
90585W        W33498  16.048  22.846  24.834  0.2407  0.4684  0.1311
90586W        W33499  31.324   2.679   2.337 -0.1223 -0.0704  0.1752
90587W        W33500  23.704  15.491  20.707 -0.1359 -0.1962  0.1974
90588W        W33501  23.580   3.823  20.365  0.1917 -0.1643 -0.1455
90589W        W33502  34.052  19.310  22.380 -0.1424  0.0156 -0.2354
90590W        W33503  16.261  12.968  22.885 -0.0253  0.1101 -0.2330
90591W        W33504  17.161   7.161  24.887 -0.2277 -0.2305  0.1219
90592W        W33505  32.532  15.444  27.110  0.1356 -0.0617 -0.0097
90593W        W33506  16.713  12.569   5.380 -0.0881  0.0819  0.2718
90594W        W33507   1.879   0.477  19.454  0.4884  0.0182  0.3631
90595W        W33508  17.366   9.569  23.187  0.1386  0.2731 -0.1474
90596W        W33509  14.123  21.172  26.241  0.1172  0.1065  0.2920
90597W        W33510  22.208  15.300  20.575 -0.1293  0.0069 -0.1837
90598W        W33511  20.866   8.938  29.475 -0.3673  0.2027 -0.4247
90599W        W33512  20.876  19.635  25.212 -0.2429  0.2159 -0.4373
90600W        W33513  30.767   7.924  26.739  0.0601 -0.0194  0.3369
90601W        W33514  15.201  11.162  25.398 -0.4849  0.1439 -0.2997
90602W        W33515  20.530  15.413  22.419 -0.0720 -0.0663 -0.1459
90603W        W33516  20.522  28.249  28.752  0.2610 -0.1246  0.1375
90604W        W33517  21.236  14.715  17.361  0.1377 -0.0671  0.0931
90605W        W33518  25.548  18.016  26.294  0.0333 -0.1797 -0.0007
90606W        W33519  22.931  25.964  27.938  0.2791  0.2061 -0.0793
90607W        W33520  25.170  25.749  24.689 -0.1968  0.1329 -0.1065
90608W        W33521  27.411  14.094  28.264 -0.1326 -0.0197 -0.1292
90609W        W33522  21.750  17.187   2.002 -0.0692 -0.1780  0.0439
90610W        W33523  32.897  11.749  24.303  0.0767 -0.2365 -0.1640
90611W        W33524  30.116  30.951  14.154  0.1922 -0.0856 -0.0500
90612W        W33525  20.106  17.094   6.393  0.0178 -0.0039  0.1326
90613W        W33526  12.090  25.725  17.678 -0.0120  0.1328 -0.2690
90614W        W33527  24.645  34.050   0.039  0.0206  0.0579 -0.0302
90615W        W33528  27.160   5.479  24.600  0.3181 -0.1456 -0.1649
90616W        W33529  24.979  16.051  26.983 -0.0367  0.4439 -0.0900
90617W        W33530  13.890  22.658   0.999 -0.1757  0.1126  0.0351
90618W        W33531  18.376   1.065   0.872  0.4873  0.1389  0.0304
90619W        W33532  14.182  24.860  28.459  0.0979 -0.0484 -0.0076
90620W        W33533  23.801  24.548  19.861  0.2857  0.0145 -0.1457
90621W        W33534  25.857   3.511  26.035 -0.0146 -0.2063 -0.0443
90622W        W33535  24.725  14.296  26.217  0.4374 -0.1031  0.1376
90623W        W33536  14.881   6.727  29.034  0.0019  0.1365  0.0624
90624W        W33537  26.388  24.423  26.771 -0.0865  0.1371  0.2872
90625W        W33538  16.401  11.316  22.388  0.0692  0.1552 -0.1466
90626W        W33539  15.980  11.431  29.674 -0.2594 -0.0026 -0.2326
90627W        W33540  32.366  30.522  28.445 -0.4956  0.4031 -0.0232
90628W        W33541  26.504  18.483   2.518 -0.1750  0.1563 -0.0016
90629W        W33542  12.592  25.976   2.123  0.0309 -0.4215 -0.0341
90630W        W33543   3.396   7.825  29.457  0.0373 -0.1452  0.3415
90631W        W33544  14.397  19.800   0.815  0.1381 -0.1500  0.1168
90632W        W33545  28.820  14.698  27.870  0.0128  0.3457  0.3484
90633W        W33546  12.399  18.408   7.756 -0.0042  0.1592 -0.1380
90634W        W33547  20.446  11.113   5.237 -0.0869  0.2522 -0.0557
90635W        W33548  20.910  23.599  24.872  0.0032  0.1227  0.2821
90636W        W33549  22.356  20.118  26.350  0.1250 -0.2218  0.0413
90637W        W33550  28.618  12.352  25.713 -0.3558 -0.0580 -0.1733
90638W        W33551  22.070  20.884   6.234 -0.3416  0.0674  0.0213
90639W        W33552  18.445  13.102  28.218 -0.2124 -0.1386 -0.2830
90640W        W33553  23.251  12.432  29.041  0.1487  0.0322 -0.0275
90641W        W33554  30.692  12.756  26.228  0.0616  0.0132  0.0866
90642W        W33555  15.670  14.410  28.548  0.0217  0.2623  0.1783
90643W        W33556  27.136  12.627   0.555 -0.0068  0.0423 -0.2084
90644W        W33557  23.009  11.835   6.051 -0.1077 -0.4685  0.1497
90645W        W33558  19.499  12.204  25.983 -0.2988 -0.0526 -0.0151
90646W        W33559  23.438  32.623  20.713  0.0429  0.1428 -0.2301
90647W        W33560  15.723  14.213  12.546  0.1607  0.1261 -0.0942
90648W        W33561  13.037   6.750   9.455  0.0338 -0.2951  0.1823
90649W        W33562  32.366  19.350  26.074  0.0851  0.2587 -0.2387
90650W        W33563  25.099  17.320   1.370 -0.0346  0.0933 -0.0429
90651W        W33564  23.993  20.035  20.029  0.0891 -0.3243  0.2817
90652W        W33565  23.253  20.146  29.078  0.0142 -0.1724 -0.1415
90653W        W33566  24.156  14.216   1.446  0.1400 -0.0113 -0.1034
90654W        W33567  21.689  16.343  25.944  0.0749  0.1862 -0.0881
90655W        W33568  24.023  20.863  25.507 -0.1740 -0.0527 -0.2898
90656W        W33569  19.411  18.506  23.096  0.1578  0.0014 -0.2466
90657W        W33570  27.129  18.045  29.053 -0.0698  0.1660  0.0943
90658W        W33571   1.420   8.960   2.499  0.2035 -0.4795 -0.3260
90659W        W33572  12.071  27.694  20.005 -0.3632  0.1621 -0.0834
90660W        W33573  21.374  10.354  18.688 -0.0503 -0.2173 -0.2761
90661W        W33574  26.206  27.149   7.808 -0.0968  0.1650 -0.2201
90662W        W33575   8.624  33.615   2.125  0.0236 -0.1009  0.0636
90663W        W33576  24.222  26.741   1.894 -0.1251 -0.0755  0.3958
90664W        W33577  14.967  17.441   1.878  0.0788 -0.2681  0.3582
90665W        W33578  29.789  30.584  25.767 -0.0729  0.0181 -0.1425
90666W        W33579  21.253  12.927   1.078  0.2386 -0.2050 -0.0886
90667W        W33580  18.169  30.444   7.604 -0.0019 -0.0981 -0.0233
90668W        W33581  19.311  31.334  29.135  0.1469  0.0070 -0.1027
90669W        W33582  24.119  18.210  17.762 -0.1155  0.0129  0.2561
90670W        W33583  27.607  26.599  28.530 -0.2929 -0.0973  0.0264
90671W        W33584   9.957  23.920   0.325  0.4711  0.2025  0.1179
90672W        W33585   8.101   4.128   3.149  0.2962  0.0677  0.0021
90673W        W33586  26.731  23.920  27.365 -0.0242  0.2836  0.0155
90674W        W33587  26.536  17.805  26.350 -0.0928 -0.1586  0.1166
90675W        W33588  31.819  10.338   3.695 -0.3893  0.3707  0.0332
90676W        W33589  24.972  21.734  21.451 -0.1879 -0.1313  0.0878
90677W        W33590  18.971   8.737  21.792 -0.1114 -0.2133 -0.0040
90678W        W33591  17.214  26.704  25.517 -0.0681 -0.1720  0.0457
90679W        W33592  25.230   3.715  18.808 -0.0971  0.0273 -0.2914
90680W        W33593  23.292  15.030  22.536  0.0590  0.0774  0.0585
90681W        W33594  16.354   4.562  19.278 -0.0416  0.2346  0.1118
90682W        W33595  19.665   3.182   5.877  0.1962 -0.3094 -0.1608
90683W        W33596  12.751  21.854  27.523  0.0541 -0.1441  0.4381
90684W        W33597  30.405  28.909  27.485  0.3440 -0.2992 -0.2291
90685W        W33598  17.452   6.394  19.091  0.1129  0.2460 -0.0105
90686W        W33599  17.097  28.729  29.121  0.3287 -0.1350 -0.0010
90687W        W33600  21.188  13.633  16.320 -0.1455  0.1102  0.5038
90688W        W33601  20.986   0.256  27.346 -0.0402  0.1383  0.2851
90689W        W33602  17.783   9.793  15.904  0.1552  0.2800 -0.1135
90690W        W33603  11.686  16.512   3.332 -0.1114 -0.1097 -0.3417
90691W        W33604  31.740  21.589   3.048  0.0231  0.0647  0.0011
90692W        W33605  26.520  18.948   2.676  0.1256  0.3194  0.1653
90693W        W33606  27.240  16.782   4.155  0.1148 -0.5635 -0.1922
90694W        W33607  13.646   8.304   0.627  0.2286 -0.0272 -0.1653
90695W        W33608  18.009  13.668   2.635 -0.1661 -0.2851 -0.0457
90696W        W33609  15.252  32.283  28.283  0.2840  0.0076 -0.2425
90697W        W33610  29.207  16.570   2.965 -0.0575 -0.3030 -0.1405
90698W        W33611   6.593  13.260   1.097 -0.0031 -0.0368  0.0062
90699W        W33612  21.496   8.152  21.811  0.0174  0.2047 -0.0934
90700W        W33613  27.706  20.992  16.665  0.0857  0.0897 -0.0345
90701W        W33614  19.460   9.655  27.622 -0.2623 -0.3717 -0.0235
90702W        W33615  15.118   9.843  22.120  0.0867 -0.0174 -0.0279
90703W        W33616  26.833  12.847   7.236  0.2597 -0.2109  0.0952
90704W        W33617  16.984   5.686  29.602  0.1487 -0.0135 -0.2046
90705W        W33618  20.826  12.333  22.991 -0.0276  0.2279  0.0566
90706W        W33619  24.434  15.071  13.678  0.1478  0.4406  0.0803
90707W        W33620  23.502  17.777   0.502 -0.1053 -0.0572  0.3031
90708W        W33621  32.724  10.648  27.505 -0.0362 -0.0161  0.3613
90709W        W33622  17.731  17.274   4.963 -0.0016 -0.0898  0.0117
90710W        W33623  10.549  22.476   9.396  0.0269 -0.0620  0.0555
90711W        W33624  34.369  19.377  23.074 -0.1439 -0.1483 -0.0957
90712W        W33625  20.066  24.536  18.802 -0.1351 -0.0132  0.1130
90713W        W33626  14.574   4.852  28.815  0.3383  0.0918 -0.0148
90714W        W33627  20.991   6.278  21.145  0.2173  0.0350  0.0390
90715W        W33628  19.318  10.938   6.698 -0.2564 -0.2609  0.0721
90716W        W33629  18.828  20.339  25.703 -0.2370 -0.3010 -0.3526
90717W        W33630  21.599   3.616  25.587  0.0243 -0.0354  0.2974
90718W        W33631  20.755  19.982   3.352  0.0069  0.1678  0.2241
90719W        W33632  13.350  25.079   8.994  0.2656 -0.1944 -0.1778
90720W        W33633  11.988  25.332  26.357 -0.1396 -0.1587  0.2959
90721W        W33634  25.485  11.164  24.469  0.2612 -0.1505  0.1507
90722W        W33635  23.600  17.489  23.454 -0.1627  0.1706  0.2700
90723W        W33636  17.970  10.869  28.399 -0.0503 -0.3021  0.0899
90724W        W33637  27.324  15.275   0.681 -0.0645  0.2395  0.0491
90725W        W33638  31.577  33.821  23.341 -0.2974 -0.0555 -0.1528
90726W        W33639  20.085  18.473  21.415 -0.2013  0.0087  0.0013
90727W        W33640  17.244   6.088  19.523 -0.1044  0.1780 -0.0972
90728W        W33641  17.239  10.659  20.846  0.1350 -0.3882 -0.2536
90729W        W33642  19.598  24.999  20.272 -0.2819 -0.2023 -0.2256
90730W        W33643  13.163  29.931   6.374  0.0921  0.0358 -0.1025
90731W        W33644  23.591  11.731   1.216 -0.0872  0.2969 -0.0861
90732W        W33645  19.860   6.936  27.090 -0.0875 -0.0025 -0.0866
90733W        W33646  23.499  19.305  27.579  0.1061 -0.5120 -0.1873
90734W        W33647  23.538  24.768  28.366  0.2262 -0.0174  0.0307
90735W        W33648  12.218  22.713  21.440  0.0613 -0.0255  0.0627
90736W        W33649  21.344  20.674   7.823  0.1838 -0.1716  0.0570
90737W        W33650  22.586  19.755  14.993 -0.0991  0.2176 -0.2707
90738W        W33651  18.064   2.862  23.905 -0.3867 -0.1949 -0.1671
90739W        W33652  26.533  11.043   3.372 -0.0620  0.0298  0.2364
90740W        W33653  25.302  16.286  17.072 -0.0721 -0.2393  0.0379
90741W        W33654  15.282  17.241  23.007  0.0676  0.2614 -0.2050
90742W        W33655  14.814  17.402   2.603 -0.0985  0.2036 -0.1822
90743W        W33656  17.855  22.522  28.623  0.0338 -0.1344 -0.1369
90744W        W33657  29.828  11.791  22.802  0.0111  0.0811  0.1337
90745W        W33658  23.263  12.672  25.615 -0.1157  0.0116 -0.0587
90746W        W33659  26.775   4.488  28.951  0.0175 -0.5799  0.2135
90747W        W33660  33.762  21.349  28.395  0.0744 -0.3100  0.2082
90748W        W33661  20.776  19.810  13.213  0.0171 -0.2816  0.2167
90749W        W33662  19.561  22.621  26.859  0.1726  0.3109 -0.0604
90750W        W33663  26.476   8.185  23.805 -0.0811  0.1677  0.0017
90751W        W33664  24.051   8.574  18.312  0.0520 -0.2244 -0.0212
90752W        W33665  26.572  19.024  28.332 -0.1326  0.1840 -0.0066
90753W        W33666  30.754  16.117  19.229 -0.1411 -0.2496  0.1154
90754W        W33667  21.959  21.389   8.387  0.1546 -0.0809  0.0130
90755W        W33668  25.894  11.528  24.575 -0.0059  0.2696 -0.2826
90756W        W33669  20.028  31.473  24.452 -0.0097  0.2247  0.0114
90757W        W33670  19.299  21.392  24.998 -0.3491 -0.0892 -0.0675
90758W        W33671   3.155  19.851  24.728 -0.0388 -0.0361 -0.1843
90759W        W33672   4.135  18.457  28.405 -0.0951 -0.0458  0.0184
90760W        W33673  26.461   5.284  27.349 -0.3023  0.0049 -0.0689
90761W        W33674  32.018  17.105   3.607  0.1652  0.0657 -0.1078
90762W        W33675   6.333  29.020   0.309  0.4530 -0.0822  0.1043
90763W        W33676  24.736  14.768   0.874  0.1136 -0.0156  0.1628
90764W        W33677  19.485  13.302  26.905 -0.1009 -0.2740  0.0417
90765W        W33678  26.397   3.347  26.262 -0.0449 -0.3764  0.1594
90766W        W33679  23.131  18.576  19.376  0.0330  0.0829 -0.1397
90767W        W33680  32.647  20.807   0.521 -0.1979 -0.1710 -0.0349
90768W        W33681  14.152   7.569  10.439 -0.0972 -0.1616  0.1969
90769W        W33682  22.788  19.303   5.697 -0.1915  0.2585 -0.0190
90770W        W33683  22.482  20.789   3.130 -0.2071 -0.0114  0.2212
90771W        W33684  17.498   9.618   2.858 -0.1018  0.0675  0.1829
90772W        W33685  23.163  15.297  22.111  0.1492  0.3457  0.1560
90773W        W33686  25.346  20.226   1.632  0.0269  0.1161 -0.0982
90774W        W33687  26.569  18.680   1.976 -0.2761  0.0685  0.0569
90775W        W33688  24.535  22.988  26.552  0.1597 -0.0213  0.1541
90776W        W33689   8.977  18.082  24.954 -0.1146  0.3117 -0.2250
90777W        W33690  22.293  11.470   3.324  0.0326 -0.0574 -0.0337
90778W        W33691  25.588  10.151   0.566  0.2223 -0.3287 -0.1530
90779W        W33692  14.557   6.339  27.524 -0.0666 -0.0853 -0.0624
90780W        W33693  32.282  15.565  25.609 -0.0026  0.2168 -0.2109
90781W        W33694   8.964  10.577  19.561  0.1216 -0.1539 -0.1300
90782W        W33695  19.941  21.918  21.483 -0.1462  0.0640 -0.4963
90783W        W33696  24.635  16.168  28.314 -0.2051  0.3003 -0.0892
90784W        W33697  15.679  11.454  26.722 -0.0376  0.0612  0.2316
90785W        W33698  31.614  17.424  24.069 -0.0632 -0.0634  0.1310
90786W        W33699  13.925  13.024  18.268 -0.0246  0.1628  0.1160
90787W        W33700  17.908  18.316   2.881 -0.2321  0.1601 -0.3441
90788W        W33701  29.937  10.205  19.894  0.0333  0.2587  0.1583
90789W        W33702   7.847  21.439  18.289  0.3433 -0.2818  0.2178
90790W        W33703  24.657   8.377  28.285  0.0756  0.1799 -0.1414
90791W        W33704  30.062  14.970  27.325 -0.4580  0.1466  0.0390
90792W        W33705  26.271  22.262  27.712  0.3087  0.1225  0.1793
90793W        W33706  27.266  18.169  26.067  0.2543 -0.0035 -0.0249
90794W        W33707  30.860  15.689   6.634  0.0131 -0.0320  0.2689
90795W        W33708  22.894  13.201  19.381  0.0914 -0.0721  0.2068
90796W        W33709  21.275  25.993  25.865 -0.2620 -0.2430 -0.1417
90797W        W33710  15.117  17.978   8.079  0.0108  0.0626 -0.0363
90798W        W33711  19.609  16.492  28.241 -0.1893 -0.4331  0.1482
90799W        W33712  17.000  14.521  26.386 -0.2523  0.0513  0.0987
90800W        W33713  20.933  22.659   6.123  0.0039  0.1324 -0.0313
90801W        W33714  22.576  31.281   9.055  0.1587 -0.0780  0.1488
90802W        W33715  21.441  20.351  19.403  0.4364  0.5481  0.1729
90803W        W33716  16.259  21.981  26.359  0.1305  0.0701 -0.0178
90804W        W33717  14.327   8.331  23.084  0.4289 -0.0553  0.3594
90805W        W33718  15.292  13.934  19.020  0.0915 -0.0833  0.2747
90806W        W33719   3.329  13.303   7.287  0.1011 -0.0318 -0.0233
90807W        W33720  32.568  12.932   4.283  0.2657 -0.1067  0.1408
90808W        W33721  17.056  24.945  24.693  0.0156 -0.0440  0.0455
90809W        W33722   7.809  19.838  29.062 -0.0636  0.4739 -0.1774
90810W        W33723  16.458   9.663  21.521 -0.0496  0.2118 -0.0949
90811W        W33724  27.446   6.572   7.149 -0.1797  0.1046  0.4217
90812W        W33725   4.685  18.224   3.260 -0.1023 -0.1030  0.2190
90813W        W33726  17.839  26.932  28.538  0.0046 -0.0726  0.0208
90814W        W33727  28.791  15.183   2.544 -0.0124  0.0226  0.0521
90815W        W33728  21.777  23.116  19.638 -0.1603 -0.4042 -0.2045
90816W        W33729  25.530  19.167   3.013 -0.0114 -0.1881 -0.2010
90817W        W33730  26.118   7.856  17.133  0.0838 -0.0947  0.3189
90818W        W33731  26.842  24.716  27.573 -0.1348  0.3891 -0.1726
90819W        W33732  28.228  14.477   0.939 -0.0805  0.2383 -0.3070
90820W        W33733  22.118   6.797  29.032 -0.1765 -0.2848 -0.1635
90821W        W33734  23.444  33.632  18.242  0.0511  0.0972 -0.3931
90822W        W33735  27.209   9.788  24.652  0.1307  0.0533 -0.0884
90823W        W33736   0.511   7.544  24.852 -0.0074  0.2487 -0.3655
90824W        W33737  14.652  21.013  27.841  0.2151 -0.0006 -0.1686
90825W        W33738  26.280  12.093  25.778  0.2166  0.0557 -0.3786
90826W        W33739  31.279  16.566   2.151 -0.1827  0.1910  0.1054
90827W        W33740  20.997  20.658  27.996 -0.1568  0.2479  0.1068
90828W        W33741  17.886  20.832  16.428 -0.0896 -0.3719  0.0377
90829W        W33742  24.322  25.734  26.926  0.0111 -0.0493  0.0474
90830W        W33743  18.802  10.333  26.258  0.2976  0.1100 -0.1975
90831W        W33744  17.971   1.996  21.805 -0.1613 -0.0609 -0.3993
90832W        W33745  12.819  22.666   4.070 -0.2804 -0.0556  0.2629
90833W        W33746  15.419   3.436   9.903 -0.4275  0.1665  0.1934
90834W        W33747  22.068  17.633  23.951  0.0398  0.0076  0.0889
90835W        W33748  25.305  15.740   1.362  0.2973 -0.1108  0.1709
90836W        W33749   5.110   7.630   2.280  0.0656  0.0431 -0.1722
90837W        W33750  16.605  15.910  15.150  0.0395  0.2362  0.1837
90838W        W33751  20.530   9.214  18.467  0.0906  0.1610  0.0694
90839W        W33752  29.866  11.453  27.276  0.0162 -0.0454  0.0060
90840W        W33753  22.140   3.443  21.189  0.0221 -0.2540 -0.2522
90841W        W33754  25.007  14.677  28.138 -0.2854  0.0010 -0.1681
90842W        W33755   9.793  22.939   4.590 -0.0525 -0.1453  0.1240
90843W        W33756   1.176  13.629   4.316  0.2113 -0.0035  0.0106
90844W        W33757  16.681  14.249   3.694  0.2602  0.3454 -0.1119
90845W        W33758  29.805  19.292   2.424 -0.3960  0.0155  0.0048
90846W        W33759   2.312  13.118   7.088 -0.0636 -0.1475  0.0710
90847W        W33760  30.360  18.439   1.506  0.1146 -0.2106 -0.0170
90848W        W33761  22.800  20.088  26.524  0.1631 -0.0142  0.3598
90849W        W33762  25.383  21.360   2.054  0.1545 -0.2089 -0.1141
90850W        W33763  30.921  24.638  28.227 -0.0299 -0.0528  0.3273
90851W        W33764  24.435  26.745  19.073 -0.2622  0.1302 -0.0453
90852W        W33765  31.597  31.748   1.132  0.1006 -0.0354  0.0727
90853W        W33766  22.160  11.073  27.381 -0.0558  0.0494 -0.0849
90854W        W33767  10.833  14.378   3.470 -0.0997  0.3481 -0.1054
90855W        W33768  21.935  27.368  25.715 -0.4369 -0.1647  0.1359
90856W        W33769  16.567  15.030  28.074 -0.1449 -0.0202 -0.1242
90857W        W33770  19.948  19.037  26.593 -0.0982 -0.0200 -0.0590
90858W        W33771  19.274  20.788   0.489  0.0565 -0.0815  0.3588
90859W        W33772   9.134   8.755   0.704  0.2197  0.0100  0.0890
90860W        W33773  22.148  21.334   6.992  0.0610  0.1274  0.0549
90861W        W33774  17.779   4.950  28.309 -0.1166 -0.1434  0.2380
90862W        W33775  19.896  30.355   2.778  0.3361  0.3035  0.0120
90863W        W33776   3.864  10.694  26.874 -0.0377 -0.3275 -0.1607
90864W        W33777  19.267  12.881   4.577 -0.0820 -0.1392 -0.0693
90865W        W33778  20.740  20.289   7.051  0.1556  0.3471 -0.2448
90866W        W33779  12.398  11.282   5.624  0.0219  0.1847  0.0685
90867W        W33780  24.858   7.964   2.357  0.3991  0.3468  0.0183
90868W        W33781  18.990  17.706  23.723 -0.1133  0.1043  0.0940
90869W        W33782  14.409  21.312   4.773  0.0573  0.2180  0.1139
90870W        W33783  11.847  18.846  29.739  0.0377 -0.0228  0.0438
90871W        W33784  18.207  19.168  24.635  0.1028 -0.0148 -0.1068
90872W        W33785  22.224  28.168  19.375 -0.0930 -0.5786 -0.0605
90873W        W33786  32.290  19.468  27.142 -0.1744 -0.1573 -0.1713
90874W        W33787   4.362  17.821   6.164  0.0948  0.2096 -0.1624
90875W        W33788  22.419   6.408   6.685  0.3448 -0.0688 -0.0790
90876W        W33789  11.701   9.237   1.443 -0.0063  0.5403  0.1202
90877W        W33790  17.979  18.247  25.198 -0.1261  0.2640  0.4173
90878W        W33791  15.835  11.078   3.289 -0.2389  0.3807 -0.0647
90879W        W33792  24.289   6.375  26.716 -0.1008 -0.1169  0.1996
90880W        W33793  11.390  11.133   1.756  0.0693 -0.0919 -0.1263
90881W        W33794  21.319  25.533   2.282 -0.0552  0.4939 -0.2109
90882W        W33795  26.017  23.123  28.109  0.0590 -0.1347  0.0622
90883W        W33796  13.654  11.904  15.893 -0.2291  0.1597 -0.0041
90884W        W33797  17.639  14.681  25.870 -0.2668  0.0369 -0.1168
90885W        W33798  11.615  15.211   6.248 -0.3082 -0.3129  0.0985
90886W        W33799  29.711  12.711   4.164  0.0227  0.0964 -0.2418
90887W        W33800  22.954  10.749   3.392 -0.1042  0.1101  0.2798
90888W        W33801  26.845   0.845  28.108  0.2265 -0.3156 -0.2124
90889W        W33802  23.829  11.944   5.573 -0.3843 -0.2344  0.2948
90890W        W33803  15.065  13.674  28.081 -0.1844  0.2141  0.0361
90891W        W33804  21.014  17.522   5.282  0.1830  0.1008 -0.2882
90892W        W33805  24.384  17.140  24.945 -0.2170 -0.3130  0.0108
90893W        W33806  23.597   8.509   0.541 -0.0167 -0.2572  0.0843
90894W        W33807  14.334  10.231  20.544 -0.1246 -0.2542 -0.2668
90895W        W33808  26.379   5.281   4.691  0.1048 -0.3985  0.0630
90896W        W33809  18.028  12.224  24.889  0.0903  0.1738 -0.0760
90897W        W33810  29.018  12.609   3.034 -0.1507  0.2914 -0.2627
90898W        W33811  33.857   2.247  23.048  0.2145  0.0251 -0.1388
90899W        W33812  24.364  17.117   2.820  0.1429 -0.2137 -0.1284
90900W        W33813  25.372  18.499   4.534  0.0960 -0.0019  0.3215
90901W        W33814  18.779  12.000   0.466 -0.2709  0.0726  0.3221
90902W        W33815  15.927   1.467  22.395  0.5940 -0.1755  0.2208
90903W        W33816  15.185  14.347  27.841  0.3132 -0.1330 -0.0204
90904W        W33817  21.686  22.244   2.639 -0.3781  0.1172  0.1266
90905W        W33818  21.843  12.249  22.429 -0.0731 -0.1264  0.0520
90906W        W33819  15.219  11.694   4.835 -0.2063  0.0050  0.0764
90907W        W33820  27.114  15.377  28.626 -0.1576  0.2783 -0.1079
90908W        W33821  22.489  18.400  27.194  0.1716  0.0945 -0.0691
90909W        W33822  21.261  20.727  25.754 -0.2406 -0.0574 -0.1562
90910W        W33823  23.747  19.658  29.517 -0.0062  0.1126 -0.0485
90911W        W33824  18.637  29.820  19.233 -0.2067 -0.1414 -0.0309
90912W        W33825  28.285   1.627  27.654 -0.2713  0.3041 -0.1920
90913W        W33826  25.775  25.697   3.632 -0.0286  0.0363  0.2739
90914W        W33827  23.225   2.245  18.508 -0.4062 -0.1830 -0.0355
90915W        W33828  14.611  18.194  22.417  0.4148 -0.1012 -0.0572
90916W        W33829  23.499  13.007  28.164  0.0722 -0.0623  0.1385
90917W        W33830  11.469  22.904   6.982 -0.0206 -0.1811  0.0662
90918W        W33831  15.758  13.747  28.229 -0.0093  0.0826 -0.2582
90919W        W33832  21.702  26.826  26.894 -0.1116  0.2172 -0.0896
90920W        W33833  17.156   8.307   0.309 -0.0188  0.0344  0.0926
90921W        W33834  13.935  16.773   5.216 -0.4707 -0.1565  0.0740
90922W        W33835  20.494   9.735  23.624 -0.1543 -0.1136  0.4142
90923W        W33836  21.610  15.649   5.986  0.0885 -0.0282  0.1235
90924W        W33837  10.899  29.308   3.047  0.3121 -0.1345  0.0116
90925W        W33838  17.759  19.259   6.572 -0.0536 -0.0295 -0.2640
90926W        W33839  18.018  19.722   7.672  0.0778  0.1861  0.1159
90927W        W33840  15.960  13.968  25.468  0.3819  0.1221 -0.0649
90928W        W33841  15.601  13.540  15.927  0.2364  0.1948 -0.1610
90929W        W33842  16.341  14.631  13.715  0.1352 -0.0352  0.1239
90930W        W33843  25.487  18.471  25.001  0.5534  0.0719 -0.0831
90931W        W33844  13.521  20.267  14.381 -0.2284 -0.3131  0.0528
90932W        W33845   8.235  18.510  20.398  0.2052  0.0148  0.0486
90933W        W33846  26.790  33.203  21.803  0.0683 -0.0781  0.1128
90934W        W33847  20.235  13.804  12.669  0.3214 -0.3100  0.0581
90935W        W33848  21.767  14.982  15.383  0.1805 -0.1391  0.1218
90936W        W33849  18.144  13.327  12.619  0.1423 -0.4081 -0.0936
90937W        W33850  19.820  13.482  15.259 -0.1753  0.0794  0.0786
90938W        W33851  14.183  21.517  24.466  0.1082 -0.1383  0.1347
90939W        W33852   9.226  11.821  20.271  0.1398  0.0323  0.2476
90940W        W33853  23.605  21.810  11.873  0.0900  0.3886  0.0121
90941W        W33854  18.300  17.742  15.086  0.1812  0.1996 -0.0911
90942W        W33855  25.789  23.210  18.469  0.3068 -0.1425  0.0962
90943W        W33856  11.300  13.149  17.424 -0.2570  0.3670  0.1418
90944W        W33857   6.475  12.459  15.649  0.0295 -0.0393  0.0697
90945W        W33858  29.472  19.456  19.224  0.0242 -0.1416 -0.0994
90946W        W33859  23.526  21.761  15.402 -0.1349  0.1090 -0.1313
90947W        W33860  24.693  21.935  17.939  0.0225 -0.2579  0.0485
90948W        W33861  30.060  16.526  26.154  0.2489  0.1412 -0.2346
90949W        W33862  23.535  16.997  16.975 -0.2291  0.0421  0.3019
90950W        W33863  10.854  15.272  21.867 -0.1303 -0.1737 -0.2085
90951W        W33864  18.130  21.552  12.554 -0.0157 -0.2946  0.1338
90952W        W33865   9.565  21.771  14.139  0.5314 -0.0845 -0.0136
90953W        W33866  22.616   7.380  14.287 -0.0819  0.2965 -0.1063
90954W        W33867  21.829  19.776  20.972 -0.0374  0.0225 -0.1219
90955W        W33868  19.307  22.650  13.093  0.3117 -0.2012  0.1784
90956W        W33869  19.954   9.217  22.577 -0.0267  0.0306  0.0014
90957W        W33870  19.213  15.112  13.417  0.1754 -0.0067  0.2205
90958W        W33871  18.241  21.900  14.882 -0.1132 -0.0930  0.0488
90959W        W33872  28.932  28.052  25.799  0.1816 -0.2825 -0.1470
90960W        W33873  32.344  23.049  18.106 -0.3158  0.0383  0.2062
90961W        W33874  30.068  21.033  13.840  0.0406  0.0919 -0.0416
90962W        W33875  26.955  24.653  19.780 -0.1282 -0.3939  0.0596
90963W        W33876   1.917  33.834  21.603 -0.3126  0.1345  0.3208
90964W        W33877  19.139  11.598  12.002  0.0536 -0.0496  0.2124
90965W        W33878  26.958  17.943  13.923  0.1473  0.1492 -0.0175
90966W        W33879  12.878  33.704  17.403 -0.3280  0.1086 -0.1016
90967W        W33880  26.652  22.251  15.976 -0.1908  0.0295 -0.1413
90968W        W33881  18.642  25.566  15.351  0.2084 -0.1233 -0.1940
90969W        W33882   0.366  25.389  29.571  0.0294  0.2674 -0.1520
90970W        W33883  22.484   9.936  19.637  0.2399  0.0769  0.0209
90971W        W33884   8.283  16.440  15.271  0.0689 -0.2166  0.1575
90972W        W33885  12.916  22.280  18.309 -0.2205  0.1153 -0.1293
90973W        W33886  22.962  24.446  14.383  0.2232 -0.1444 -0.0710
90974W        W33887  12.762  16.906  12.227 -0.0377  0.4884 -0.1041
90975W        W33888  22.819  21.095  15.378  0.2537 -0.0294 -0.0478
90976W        W33889  18.883  12.405  14.017  0.4523 -0.1737  0.0584
90977W        W33890  18.003  11.186  24.545  0.1711 -0.0346 -0.1338
90978W        W33891  14.889   8.879  17.081  0.0685  0.1534 -0.0311
90979W        W33892  17.975  28.108  19.121  0.1608 -0.1246 -0.1464
90980W        W33893  22.364  24.401  17.734  0.1823 -0.0252 -0.0422
90981W        W33894  27.715  22.188  19.820 -0.0178 -0.2857  0.0824
90982W        W33895  13.220  17.097  13.996 -0.0590  0.2169  0.0689
90983W        W33896  23.127  12.784  19.849  0.1613 -0.5561  0.1002
90984W        W33897  27.493  20.556  14.976  0.0496  0.0664  0.1183
90985W        W33898  10.190  26.014  15.916  0.1324  0.2632 -0.0365
90986W        W33899  26.300  10.381  15.399  0.0710 -0.0440 -0.1219
90987W        W33900  20.989  11.674  18.031  0.0848  0.1110 -0.1274
90988W        W33901  23.678  27.511  14.759 -0.0235  0.2786 -0.0119
90989W        W33902  12.624   9.326  18.748 -0.5072 -0.1425 -0.1172
90990W        W33903  21.020  16.206  13.975 -0.1467 -0.2632 -0.2446
90991W        W33904  25.277  24.418  21.998 -0.1840  0.2807 -0.0325
90992W        W33905  19.780  13.338  12.604  0.0900  0.0878 -0.1113
90993W        W33906  29.301  24.002  19.174 -0.2015  0.0968  0.0895
90994W        W33907   7.284  19.237  19.357  0.1299 -0.0078 -0.0457
90995W        W33908  25.755  16.150  21.204 -0.0572 -0.1184  0.0954
90996W        W33909  18.731  23.672  17.148 -0.1712  0.0967  0.0802
90997W        W33910  19.808  23.898  14.379  0.1182  0.1302 -0.1929
90998W        W33911  19.464  24.045  17.316 -0.2167 -0.1539  0.0086
90999W        W33912  25.586  17.665  22.159  0.0562  0.3032 -0.0562
91000W        W33913  22.640  24.086  15.066  0.3147 -0.2743 -0.0403
91001W        W33914  16.428  25.433  15.846  0.1486  0.0128 -0.0399
91002W        W33915  28.251  19.683  22.165  0.0848 -0.1224 -0.1585
91003W        W33916   7.668  17.411  17.899 -0.4059  0.0113 -0.0133
91004W        W33917  25.272  23.165  13.354 -0.3549 -0.1038 -0.1842
91005W        W33918  22.241  26.916  21.361  0.2320  0.0271 -0.3510
91006W        W33919  26.189  17.664  15.846  0.0481  0.0365 -0.0021
91007W        W33920  23.115  10.728  15.488 -0.5020 -0.1296 -0.1568
91008W        W33921  23.559   8.483  14.330  0.1753 -0.1044  0.1271
91009W        W33922  13.777  23.029  14.812 -0.3170 -0.1929  0.3398
91010W        W33923  27.612  21.844  13.475 -0.0707 -0.0324 -0.1730
91011W        W33924   0.999  16.203  20.220 -0.1488 -0.0815 -0.0862
91012W        W33925  11.196  15.844  15.968  0.0790  0.2847 -0.0999
91013W        W33926  17.400  19.544  11.963 -0.0219 -0.0792  0.0947
91014W        W33927  28.470  15.834  17.085  0.2678  0.1678  0.0653
91015W        W33928  30.929  26.468  23.229  0.1312  0.3090 -0.1590
91016W        W33929  12.818  16.356  20.732 -0.0175 -0.0620 -0.0014
91017W        W33930  25.842  21.422  18.965  0.0969  0.1971  0.0999
91018W        W33931   3.217  19.013  16.775 -0.1280 -0.3568 -0.5231
91019W        W33932  17.356  10.355  17.314 -0.2210  0.1015  0.0842
91020W        W33933  19.434   9.739  13.365  0.1788  0.0737  0.2526
91021W        W33934  18.503   9.442  18.249 -0.0966 -0.0701 -0.0417
91022W        W33935  22.477  19.452  13.600  0.2295  0.1181 -0.1108
91023W        W33936   7.608  17.428  13.489 -0.0742  0.1017  0.0412
91024W        W33937  15.206  25.361  13.796  0.2674  0.1463 -0.0428
91025W        W33938  13.043  23.358  22.207 -0.2816  0.0652 -0.0694
91026W        W33939  27.457  21.144  14.153  0.0482  0.1058 -0.1302
91027W        W33940  24.635   1.769  19.864  0.0364  0.0148 -0.0426
91028W        W33941  23.546  16.813  17.469  0.2053  0.0909 -0.0959
91029W        W33942  29.515  26.019  21.437  0.2859 -0.2855  0.0021
91030W        W33943  31.436  26.320  18.967 -0.2402 -0.1019 -0.2039
91031W        W33944  25.674  10.944  14.821 -0.4262  0.0467 -0.2223
91032W        W33945  17.020  28.647  19.245 -0.1565  0.0112  0.3297
91033W        W33946   6.052  17.559  20.212 -0.0894 -0.0188  0.0310
91034W        W33947  21.953  21.729  17.660  0.0070  0.0266 -0.1164
91035W        W33948  24.984  14.667  15.453 -0.2045 -0.1440 -0.1144
91036W        W33949  14.520  10.090  24.897 -0.1153 -0.1398 -0.0389
91037W        W33950  14.392  26.996  22.388  0.0469  0.0970  0.0741
91038W        W33951  21.864  25.196  12.580  0.2735  0.0154 -0.0058
91039W        W33952  30.217   7.093  18.847 -0.2956  0.0437  0.0008
91040W        W33953  24.269  15.701  17.300  0.0283  0.2045  0.0807
91041W        W33954  26.806  19.891  18.253 -0.0591 -0.1348 -0.2077
91042W        W33955   5.199  17.430  17.943  0.0592 -0.0029 -0.1705
91043W        W33956  28.131  15.985  14.617 -0.1268  0.0855  0.2683
91044W        W33957  23.336   1.513  13.751  0.0599  0.1035  0.1643
91045W        W33958  17.731  27.006  14.885  0.0249  0.3011 -0.0398
91046W        W33959  24.462  21.642  15.101 -0.2818  0.0871  0.1336
91047W        W33960  10.527  20.260  16.397 -0.2299  0.2273  0.0729
91048W        W33961  21.101  14.120  20.907  0.0329  0.1940  0.2294
91049W        W33962  21.554   9.166  26.805  0.0012 -0.0210 -0.3497
91050W        W33963   8.476  16.827  18.322 -0.0374 -0.1939 -0.0864
91051W        W33964  10.539  24.054  16.451  0.0324 -0.2109 -0.1713
91052W        W33965  15.650  25.347  24.801 -0.1927 -0.1026  0.1255
91053W        W33966  24.036  26.365  18.861 -0.2191  0.1824  0.2875
91054W        W33967   9.503  20.380  15.891 -0.0924 -0.1371  0.1376
91055W        W33968  32.051  19.235  14.234 -0.0360 -0.0193  0.0367
91056W        W33969  28.031  17.477  29.751  0.1923 -0.0917  0.1403
91057W        W33970  10.988  19.609  18.206  0.0669  0.0380  0.0936
91058W        W33971  27.853  26.196  16.736  0.2799  0.2566 -0.2636
91059W        W33972  24.715  20.987  14.649  0.0541  0.0654 -0.0051
91060W        W33973  20.764  32.914  15.732 -0.1450 -0.1441  0.1145
91061W        W33974  20.006  21.915  18.852  0.2819 -0.2745  0.0885
91062W        W33975  20.717   9.764  16.398  0.3173  0.0603 -0.0950
91063W        W33976  21.946  19.682  15.771  0.2316  0.0230 -0.0547
91064W        W33977  15.564  25.106  20.857  0.0134  0.1038 -0.0050
91065W        W33978  20.680  20.983  17.278 -0.0807  0.0080  0.3857
91066W        W33979  27.229  12.185  20.056  0.0816  0.0832  0.2391
91067W        W33980  28.583  15.563  18.635  0.2482 -0.2662  0.3293
91068W        W33981  29.851  17.662  16.656  0.1498 -0.2832 -0.0948
91069W        W33982  19.202  19.568  12.397  0.0848 -0.2315 -0.3229
91070W        W33983  14.913  13.679  14.653 -0.1679  0.1053 -0.2235
91071W        W33984  29.885  16.013  28.284 -0.2287  0.0638 -0.2721
91072W        W33985  27.131  17.877  22.333  0.0877 -0.0286 -0.1156
91073W        W33986  28.974  22.237  14.316  0.2218 -0.0608 -0.1443
91074W        W33987  14.878  25.022  18.647  0.2990  0.3439 -0.0544
91075W        W33988  21.552  17.755  11.378  0.1251  0.0133  0.0452
91076W        W33989  18.213   9.384  19.891 -0.1115  0.1111 -0.1850
91077W        W33990  14.169  17.928  12.965  0.0535  0.3564 -0.0728
91078W        W33991  14.714  11.869  18.407  0.2791  0.3426 -0.0895
91079W        W33992  29.323  26.885  22.858  0.0747  0.0972  0.0590
91080W        W33993  33.786  24.788  14.752 -0.0689  0.0037  0.0279
91081W        W33994  16.250  23.725  21.059  0.1802 -0.0094 -0.3293
91082W        W33995  27.931  30.090   3.855 -0.0285  0.0488  0.0758
91083W        W33996   1.422  26.123  27.927  0.0160  0.0900  0.0684
91084W        W33997  23.951  11.842  15.328  0.0245 -0.2174  0.1025
91085W        W33998  24.957  15.558  13.292 -0.0650  0.1832 -0.2822
91086W        W33999  28.522  33.204  15.032 -0.2421  0.0336  0.0472
91087W        W34000  21.060  18.100  12.489  0.0485  0.2096  0.2940
91088W        W34001  23.846  10.731  19.929 -0.0286  0.1771  0.1580
91089W        W34002  12.536  24.916  15.118 -0.1186  0.0286 -0.0728
91090W        W34003  14.520  16.539  15.299  0.0507 -0.2459 -0.1915
91091W        W34004  11.697  17.484  16.116 -0.2515  0.1304  0.0725
91092W        W34005  24.219  28.767  17.626 -0.0018 -0.2307  0.1930
91093W        W34006  23.771  29.144  27.081 -0.3066  0.1815  0.4662
91094W        W34007  26.462  25.370  13.213  0.0975  0.0506  0.0449
91095W        W34008  26.368   8.770  17.478 -0.0410 -0.0352 -0.0277
91096W        W34009  23.206  10.779  14.880 -0.1435  0.0526  0.1668
91097W        W34010  21.694  12.498  14.656 -0.0770  0.0728 -0.2822
91098W        W34011  34.339  11.372  16.386  0.0662 -0.2743  0.1952
91099W        W34012  29.637   8.140  15.316  0.1027 -0.0158  0.0687
91100W        W34013  25.125  20.484  14.130 -0.1527  0.0457  0.0401
91101W        W34014   2.738  16.850  17.181  0.2422  0.1042 -0.2009
91102W        W34015  27.322  29.250  17.020  0.2978 -0.0128  0.1445
91103W        W34016  22.959  21.501  18.036 -0.0129  0.0111 -0.2269
91104W        W34017  12.465  23.383  19.377  0.1404 -0.0735  0.2562
91105W        W34018  22.680  25.185  23.320  0.0172 -0.2154  0.2253
91106W        W34019  20.501   0.661  16.687  0.1668  0.2211  0.0224
91107W        W34020  19.703  23.824  16.469 -0.1898 -0.0779  0.0606
91108W        W34021  29.114  19.738  13.762  0.3165 -0.0201  0.1655
91109W        W34022   4.207  26.450  19.755  0.0847  0.0720 -0.0734
91110W        W34023  23.934  30.491  21.671 -0.0981 -0.0223  0.2094
91111W        W34024  18.749  19.292  12.233 -0.2717  0.1050  0.1660
91112W        W34025  27.825  21.646  18.971  0.4753  0.0989  0.0160
91113W        W34026  26.220  23.647  14.434  0.2170 -0.0462 -0.3153
91114W        W34027  23.608  16.617  20.055  0.3818  0.0751  0.2841
91115W        W34028   8.298  14.375  22.043 -0.0898 -0.0636  0.0930
91116W        W34029  21.628  13.795  16.493  0.4908  0.0291  0.1717
91117W        W34030  22.051  19.238  22.542  0.1800 -0.1567  0.1856
91118W        W34031  19.524  10.284  18.783  0.2324  0.0431 -0.1635
91119W        W34032  22.568  26.504  18.543  0.1186  0.2262  0.0712
91120W        W34033  30.742  19.972  17.729 -0.2246  0.1565  0.1055
91121W        W34034  16.991  23.716  21.272 -0.3038  0.1494  0.1430
91122W        W34035  24.107  29.699  14.440 -0.4705  0.1369  0.1673
91123W        W34036  24.479  26.447  24.130 -0.1393  0.0404 -0.1197
91124W        W34037  28.920  15.931  13.543 -0.0631 -0.0128 -0.0373
91125W        W34038  18.685  22.843  13.797 -0.1624 -0.0405 -0.0858
91126W        W34039  30.037  29.909  15.790  0.1081  0.3420 -0.1265
91127W        W34040  29.067  20.043  12.914 -0.0984 -0.0998  0.3576
91128W        W34041  20.817  25.485  14.489  0.0735 -0.1282  0.0296
91129W        W34042  24.528  16.347  14.271  0.1174 -0.0862 -0.1019
91130W        W34043  25.646  10.423  16.891 -0.0322 -0.3127 -0.1076
91131W        W34044  26.162   4.513  13.769  0.1739 -0.1349  0.0467
91132W        W34045  31.685  20.362  24.210  0.3648  0.0515 -0.1895
91133W        W34046  11.283   7.874  20.621  0.0203 -0.0844  0.0884
91134W        W34047  16.387  10.084  19.864  0.2063 -0.0031 -0.1492
91135W        W34048  19.399  20.879  15.343  0.1584  0.1762 -0.2517
91136W        W34049  13.320  21.924  28.644  0.1336 -0.0393 -0.0810
91137W        W34050  19.706  21.632  14.004 -0.1169  0.1627 -0.1547
91138W        W34051  29.667  14.397  23.490 -0.1067  0.0419 -0.0065
91139W        W34052  18.318   2.870  25.567  0.0094  0.5711  0.2353
91140W        W34053  25.680  18.363  15.663  0.0316 -0.1091 -0.0970
91141W        W34054  21.257  11.050  16.852  0.2618  0.0140  0.0804
91142W        W34055  18.398   9.445  15.454 -0.0971 -0.2494  0.1265
91143W        W34056  14.436   9.370  26.713 -0.1243  0.1670  0.1394
91144W        W34057  21.504  16.581  14.284  0.1984  0.0681  0.1385
91145W        W34058  17.517  24.132  18.317 -0.2643  0.2837 -0.0359
91146W        W34059  16.539  33.331  18.824 -0.0329  0.0720 -0.1688
91147W        W34060  20.577  11.422  14.292  0.0303  0.1404  0.1420
91148W        W34061  21.410  24.143  14.682 -0.3007  0.0461  0.4808
91149W        W34062  20.342  25.380  14.857 -0.1832  0.1888  0.0072
91150W        W34063  24.156  11.660  18.055  0.1141  0.0960  0.1236
91151W        W34064  20.034  23.187  13.616 -0.1956  0.2127  0.0463
91152W        W34065  11.100  16.336  15.268  0.0371  0.1631  0.3356
91153W        W34066  21.419  25.776  21.503 -0.1314  0.1519  0.2838
91154W        W34067  22.297  24.951  17.901  0.1097  0.1751 -0.0043
91155W        W34068  18.339   9.935  15.310 -0.0870  0.3061 -0.1038
91156W        W34069  27.423  18.642  16.786  0.0122  0.1232  0.0582
91157W        W34070  10.684  14.367  14.816  0.0677 -0.0140 -0.2495
91158W        W34071   8.926  13.418  17.942 -0.1079 -0.2291  0.0551
91159W        W34072  19.268  24.182  18.741 -0.0852 -0.2121  0.1010
91160W        W34073   6.273  11.004  19.964  0.0717 -0.1720 -0.0652
91161W        W34074  18.803   9.698  15.517  0.1933  0.1488 -0.2993
91162W        W34075  28.163  13.444  19.067 -0.2193  0.1115 -0.0793
91163W        W34076  27.723  22.488  18.738 -0.0129  0.0361  0.0803
91164W        W34077  17.920  28.981  19.085  0.1226  0.1338 -0.0898
91165W        W34078  19.929  24.497  23.045  0.0420  0.0675 -0.0741
91166W        W34079  23.311  19.055  13.003  0.1277  0.0862  0.3842
91167W        W34080  17.873  10.946  18.305  0.1388  0.2573  0.2716
91168W        W34081  27.576  24.772  16.123 -0.2594 -0.0040 -0.1752
91169W        W34082  23.278  12.731  24.063  0.4139 -0.1442 -0.2762
91170W        W34083  20.186   3.647  18.464 -0.1710  0.3896 -0.1435
91171W        W34084  18.318  24.841  24.482  0.1128 -0.2314  0.2627
91172W        W34085  13.182  32.005  23.876 -0.0667  0.2555  0.1289
91173W        W34086  25.209  13.349  19.471 -0.0397 -0.1762  0.1300
91174W        W34087  23.606  18.481  12.299 -0.1916  0.2258  0.0673
91175W        W34088  25.191  17.935  14.316  0.0670  0.0348  0.3344
91176W        W34089  19.269  12.494  17.800  0.0403 -0.1397  0.1972
91177W        W34090  19.862  27.773  20.529 -0.3950  0.0276 -0.0017
91178W        W34091  22.348   8.377  20.056  0.2167  0.1474 -0.1729
91179W        W34092  15.323  16.486  13.413  0.1539 -0.2164 -0.0541
91180W        W34093  33.855  32.111  23.590 -0.4244  0.4161 -0.0342
91181W        W34094  14.512  15.542  12.310 -0.2361 -0.0029  0.0022
91182W        W34095  30.818  33.982  22.455  0.0371  0.0737  0.3071
91183W        W34096  14.664  13.160  18.706  0.2660 -0.3078  0.1907
91184W        W34097  18.084   6.444  28.080  0.2460  0.1692 -0.4637
91185W        W34098  10.534  25.368  18.192 -0.0359 -0.1072  0.4745
91186W        W34099  20.238   0.393  24.883  0.0901  0.4807  0.1945
91187W        W34100  28.193  23.105  14.154  0.2032  0.0497  0.1688
91188W        W34101  18.461  15.758  14.639  0.0785 -0.0603 -0.0312
91189W        W34102  16.609   9.693  18.860  0.2303  0.1591 -0.1502
91190W        W34103  18.564  12.337  14.989  0.0798  0.4269 -0.0950
91191W        W34104  11.491  20.777  14.636  0.0957  0.1807  0.0009
91192W        W34105  24.155  32.637  22.571 -0.0497 -0.0778  0.4565
91193W        W34106  11.975  19.732  15.461 -0.2998  0.1085 -0.0001
91194W        W34107  11.551  23.830  15.620 -0.1680 -0.2885  0.1319
91195W        W34108  23.941  13.094  15.276  0.0007 -0.0268  0.0074
91196W        W34109  16.608  14.933  13.458  0.0019  0.0858 -0.0931
91197W        W34110  23.851  21.567  19.396 -0.1410  0.2560 -0.2045
91198W        W34111   1.844  20.147  18.008 -0.0063 -0.0437 -0.3648
91199W        W34112  27.751  14.932  20.758  0.1112 -0.1883 -0.4132
91200W        W34113  28.408  25.150  20.398  0.1047  0.1425  0.1587
91201W        W34114  26.691  29.285  26.279  0.4200 -0.0173 -0.0744
91202W        W34115  14.431  15.080  13.364 -0.0349  0.1813 -0.0363
91203W        W34116  27.268  20.100  18.739  0.2459  0.0422  0.3430
91204W        W34117  21.500  20.086  16.959  0.2417 -0.1955 -0.2609
91205W        W34118  28.712  23.688  23.318  0.1306 -0.0353  0.1607
91206W        W34119  29.853  18.517  20.028 -0.1779  0.2665 -0.1662
91207W        W34120  14.293  19.959  14.542  0.1153  0.0541  0.1429
91208W        W34121  26.705  30.837  19.819  0.2536  0.4225  0.2332
91209W        W34122  23.553  15.977  14.582 -0.1967  0.1136 -0.0781
91210W        W34123  17.000  14.262  12.724  0.2659  0.4039 -0.2238
91211W        W34124  24.262  21.508  17.208 -0.0049 -0.0217 -0.2700
91212W        W34125  21.189  22.337  15.650 -0.0460  0.1004 -0.1141
91213W        W34126  21.861   0.625  23.628  0.0750 -0.1855 -0.0158
91214W        W34127  17.149  21.481  13.894  0.0245  0.2010  0.0152
91215W        W34128  20.627  30.686  14.761 -0.1278 -0.0744 -0.1506
91216W        W34129   8.863  17.118  13.461 -0.2295  0.1202 -0.2905
91217W        W34130  15.800  26.271  24.376 -0.3972 -0.1118 -0.3051
91218W        W34131  24.992  24.305  14.694  0.1656  0.0155 -0.0213
91219W        W34132  25.131  18.912  12.877  0.2910 -0.0901 -0.2037
91220W        W34133  30.707  24.572  23.537 -0.0962 -0.0449  0.2536
91221W        W34134  26.439  19.518  17.955 -0.1161 -0.1072 -0.3369
91222W        W34135  27.914  30.427  17.367  0.2696 -0.5812  0.0469
91223W        W34136  22.448  14.488  14.748  0.0619  0.0736 -0.2257
91224W        W34137  27.433  18.327  14.169 -0.0819  0.0548  0.0757
91225W        W34138  28.275  15.172  17.040 -0.0704  0.1376 -0.0599
91226W        W34139  19.661   7.113  16.851 -0.1501 -0.1408  0.1460
91227W        W34140  24.205  25.811  14.323 -0.2943  0.1481 -0.0333
91228W        W34141  18.503  11.960  17.709 -0.2216 -0.0024  0.0763
91229W        W34142  20.485  26.328  17.175 -0.0302 -0.2710 -0.1906
91230W        W34143  17.885  23.238  14.568 -0.2666  0.1434  0.0751
91231W        W34144  25.292  13.904  17.101  0.1376  0.4760  0.1784
91232W        W34145  17.668  24.346  14.980 -0.0216  0.1516  0.4476
91233W        W34146  30.883  15.668  16.696  0.3647  0.1487  0.0650
91234W        W34147  14.531  12.912  23.058  0.1640  0.1616 -0.1561
91235W        W34148  12.840  13.987  15.782 -0.1086  0.1148  0.1249
91236W        W34149  21.353  30.305  14.239 -0.0815  0.2315 -0.0150
91237W        W34150  26.824  18.272  22.281  0.0888 -0.0183 -0.2057
91238W        W34151  11.280  13.066  16.554  0.1198  0.0154 -0.2864
91239W        W34152  14.242  28.965  27.043 -0.0877 -0.2551 -0.1226
91240W        W34153  20.147  11.042  14.532 -0.2137 -0.1257 -0.5035
91241W        W34154  19.497  27.839  25.717  0.1301 -0.0151  0.2201
91242W        W34155  26.124  11.683  18.518  0.2002 -0.1183  0.4890
91243W        W34156  29.432  12.830  19.962 -0.0535  0.1746 -0.0310
91244W        W34157  19.564  27.646  19.295 -0.1379  0.3699  0.1890
91245W        W34158  11.875  18.171  14.922  0.0065  0.0030  0.1774
91246W        W34159  18.422  25.429  14.419  0.0346 -0.0624  0.0459
91247W        W34160  21.734  15.643  28.259  0.2194 -0.3226  0.1044
91248W        W34161  17.907  19.661  11.541 -0.4149  0.2472 -0.2085
91249W        W34162  22.272  13.029  15.395 -0.3963  0.1002 -0.1523
91250W        W34163   8.644  17.040  25.646  0.4251 -0.0599  0.0190
91251W        W34164  27.360  14.473  16.836 -0.1382  0.0009  0.2640
91252W        W34165  18.086   8.293  17.499 -0.0005 -0.2807 -0.1017
91253W        W34166  26.359  18.420  16.238  0.2602 -0.1018 -0.1768
91254W        W34167  21.684  24.980  14.822  0.3767  0.1520  0.0533
91255W        W34168  20.494  19.705  16.630  0.1914  0.1854  0.0887
91256W        W34169  24.110   8.890  21.960 -0.0055 -0.0922  0.4636
91257W        W34170  20.519  15.602  12.680  0.0383  0.1928 -0.0509
91258W        W34171  31.889  16.799  16.415  0.0634  0.3478 -0.1304
91259W        W34172  27.103  23.705  17.973  0.1669 -0.0165 -0.0457
91260W        W34173  26.811  24.990  16.507 -0.1618  0.0501  0.1544
91261W        W34174  24.052  25.056  17.812  0.1296 -0.2172  0.3230
91262W        W34175   5.503  15.021  21.168 -0.1842  0.1368 -0.2135
91263W        W34176  15.940  28.573  19.303 -0.1292  0.0353  0.0603
91264W        W34177  19.705  12.926  11.847 -0.0338  0.0052  0.0882
91265W        W34178  23.883  30.273  18.353  0.1547  0.5259  0.2133
91266W        W34179  16.697  22.714  13.213 -0.3636  0.0002 -0.2402
91267W        W34180  23.195  17.400  19.327  0.2636 -0.2568  0.2267
91268W        W34181  16.730  26.294  24.781 -0.2445 -0.1505 -0.1665
91269W        W34182   0.250  17.999  18.185 -0.4792 -0.0322  0.0556
91270W        W34183  19.639   9.373  13.908  0.0684 -0.0614 -0.1456
91271W        W34184  27.807  11.752  17.635  0.3656  0.2747  0.0819
91272W        W34185  14.739  15.144  15.524  0.0097 -0.1676  0.1169
91273W        W34186  30.193   3.516  22.935 -0.2092 -0.0571  0.1363
91274W        W34187  23.101  21.113  19.140 -0.1784  0.1038  0.2054
91275W        W34188  13.079  18.590  16.584  0.1765 -0.3465  0.1107
91276W        W34189  25.332  19.378  21.625  0.2742 -0.0198  0.0135
91277W        W34190  27.770  19.875  28.168 -0.0957 -0.2694 -0.1589
91278W        W34191  23.073   7.262  25.761 -0.0853 -0.0518 -0.1833
91279W        W34192  18.177  29.129  15.677 -0.0715 -0.1307 -0.0039
91280W        W34193  11.586  20.196  14.606  0.1914  0.0703  0.2109
91281W        W34194  27.278  14.399  20.241 -0.1196 -0.2237  0.0483
91282W        W34195  22.035  19.481  19.033  0.3161 -0.2801  0.2285
91283W        W34196  19.126  29.171  18.158  0.2098 -0.1958 -0.1729
91284W        W34197  20.321  26.228  19.998 -0.2966 -0.1893 -0.4093
91285W        W34198  26.224  21.870  17.953 -0.0572 -0.0674  0.1634
91286W        W34199   7.549  11.347  19.836  0.0797  0.2878  0.3284
91287W        W34200  16.586  11.414  17.030  0.2354  0.0154 -0.0305
91288W        W34201  23.686  28.999  16.532  0.2717  0.1632 -0.2569
91289W        W34202  18.646  26.258  20.163  0.1665 -0.1436 -0.0155
91290W        W34203  19.025  15.585  13.503  0.1742  0.2457 -0.1785
91291W        W34204   7.806  21.208  18.739  0.1631  0.1981 -0.0979
91292W        W34205  28.300  30.439  16.753 -0.0043 -0.0009  0.1769
91293W        W34206   9.191  21.415  16.408 -0.2588  0.2611 -0.0353
91294W        W34207  22.821   7.178  17.339  0.1747 -0.1197 -0.1746
91295W        W34208  26.808  15.233  22.706  0.1833 -0.0729 -0.4114
91296W        W34209  29.893  23.741  15.255 -0.1329 -0.2762  0.0082
91297W        W34210  28.705  23.335  19.190  0.1433 -0.0166  0.1331
91298W        W34211  28.111  14.184  19.506 -0.2702 -0.0222 -0.3504
91299W        W34212  16.798  13.148  14.400 -0.4329 -0.1635  0.0345
91300W        W34213  24.015  19.908  16.556 -0.2580  0.2276 -0.1424
91301W        W34214  30.061  11.363  26.710 -0.1281 -0.3169  0.1609
91302W        W34215  28.237  12.905  19.437 -0.1145 -0.0024  0.2635
91303W        W34216  26.650  12.427  20.183 -0.0220 -0.0375  0.1535
91304W        W34217  10.252   4.779  19.421  0.2543 -0.1567 -0.1555
91305W        W34218  18.200   8.116  17.040 -0.3089  0.2704 -0.1491
91306W        W34219  17.154  18.164  12.901  0.0624 -0.0442  0.3104
91307W        W34220  18.635  15.656  12.646 -0.0517 -0.0511  0.0469
91308W        W34221  21.673  25.305  23.811 -0.1184  0.1918  0.3022
91309W        W34222  20.256  22.172  17.870 -0.2772 -0.0468  0.5443
91310W        W34223  23.708   0.201  17.741  0.1070 -0.0597  0.1456
91311W        W34224  20.702  25.596  16.568  0.0582  0.1010 -0.1092
91312W        W34225  12.460  28.159  22.137 -0.2586  0.2093  0.1937
91313W        W34226  27.537  22.126  22.206 -0.0212 -0.2391  0.1942
91314W        W34227  19.656  28.452  17.812  0.4702  0.1648  0.1215
91315W        W34228  23.951  30.455  16.525  0.0374  0.2246  0.1108
91316W        W34229  23.055  21.138  22.710  0.1370  0.3352  0.1014
91317W        W34230  24.790   9.767  14.513  0.1053  0.0619  0.4971
91318W        W34231  13.976  19.423  15.918  0.3948 -0.1160  0.0318
91319W        W34232  19.260  21.785  23.908  0.3431  0.1128  0.0297
91320W        W34233  20.750  25.829  13.805 -0.3183 -0.1277 -0.0930
91321W        W34234  31.092  27.196  25.809  0.1655  0.0721 -0.1408
91322W        W34235  13.840  26.955  15.600  0.0010 -0.0066  0.1762
91323W        W34236  15.644  11.402  21.127 -0.0305 -0.0041 -0.1369
91324W        W34237  18.231  19.212  13.190 -0.0632 -0.2874  0.1649
91325W        W34238  19.645  20.596  14.833  0.2196  0.0775 -0.2308
91326W        W34239  15.092  10.757  21.808 -0.0255  0.2871 -0.3605
91327W        W34240  22.619  16.137  22.185  0.0720 -0.0935 -0.2242
91328W        W34241  30.633  20.950  20.820 -0.0698 -0.2172  0.5062
91329W        W34242  20.758  12.833  24.037 -0.3363 -0.2310  0.2138
91330W        W34243  11.500  13.106  20.257  0.0659  0.0191 -0.1682
91331W        W34244  19.266  21.823  19.953 -0.3221 -0.2182  0.0903
91332W        W34245  16.326  23.362  24.882 -0.2509 -0.0250  0.0920
91333W        W34246  22.576  22.224  15.677  0.0873 -0.1095  0.4915
91334W        W34247  19.543  15.730  12.826 -0.2267 -0.0624  0.0600
91335W        W34248  23.437  26.194  12.880  0.0794  0.1419  0.0510
91336W        W34249  15.929  13.460  21.276 -0.1798 -0.0601  0.3488
91337W        W34250  24.171  14.330  15.328 -0.0240 -0.2697 -0.0400
91338W        W34251  19.600  17.612  24.306 -0.1519 -0.1348  0.1031
91339W        W34252  25.427  23.023  18.116  0.2409  0.0598  0.3692
91340W        W34253  26.711  22.612  17.552  0.2969  0.0756  0.2048
91341W        W34254  13.195  33.263   4.178 -0.1807 -0.1706  0.0499
91342W        W34255  16.027  32.305  23.584 -0.2314 -0.0519 -0.1019
91343W        W34256  32.249   9.373  21.378 -0.1286  0.2198 -0.2589
91344W        W34257  13.105  23.746  14.319 -0.1798  0.2906  0.1792
91345W        W34258  32.725  18.735  20.689 -0.1423 -0.1359 -0.0408
91346W        W34259  14.576  24.504   1.454 -0.1105  0.1033  0.0628
91347W        W34260  21.946  10.103  17.666  0.2679 -0.0286 -0.3661
91348W        W34261  22.802  24.077  16.018 -0.1719  0.1419  0.0252
91349W        W34262  10.036  28.183  20.157  0.0569 -0.2403 -0.2939
91350W        W34263  20.705   9.632  14.547 -0.2069 -0.2834 -0.0104
91351W        W34264  21.360  28.367  16.122  0.0944  0.2619  0.1781
91352W        W34265  30.260  12.480  18.413  0.0332 -0.1577  0.4189
91353W        W34266  20.935  16.204  11.929 -0.1059 -0.1787 -0.1105
91354W        W34267  26.794  14.927  15.529  0.2611  0.0747  0.0257
91355W        W34268  20.958  21.276  28.319  0.0412 -0.0632  0.0446
91356W        W34269  14.129  17.262  13.920  0.3044  0.1553  0.0720
91357W        W34270  13.887  11.887  19.709  0.1492 -0.0242 -0.1672
91358W        W34271  18.550  24.084  15.843 -0.2960 -0.2835 -0.2657
91359W        W34272  30.341  12.855  23.994  0.0604  0.3332  0.0045
91360W        W34273  30.300  26.301  15.230  0.1592 -0.0244  0.1292
91361W        W34274  14.656  19.193  15.961 -0.0260  0.0457  0.1181
91362W        W34275   0.631  11.533  18.824 -0.1343 -0.0697  0.1124
91363W        W34276  29.693  22.700  26.030 -0.2351  0.1822  0.3546
91364W        W34277  26.489   5.643   3.210 -0.1701 -0.0018 -0.2210
91365W        W34278  22.566  20.674  17.414  0.0065 -0.2038 -0.2261
91366W        W34279  22.628  21.995  16.119  0.1875 -0.1935  0.1756
91367W        W34280  30.960  26.152  29.450  0.0488 -0.6655  0.1592
91368W        W34281  29.231  10.644  19.645 -0.2424  0.1279  0.1717
91369W        W34282   2.504  25.447  25.770  0.0514 -0.0806 -0.0599
91370W        W34283  16.088  13.839  14.366  0.1625  0.0255  0.0445
91371W        W34284  18.614  21.287  22.000 -0.1185  0.0801  0.2482
91372W        W34285  28.387  23.428  19.592  0.0172 -0.2982  0.1012
91373W        W34286  19.532  24.831  14.692 -0.2014 -0.3200  0.0556
91374W        W34287  20.967  12.793  13.306  0.1761  0.2090  0.2736
91375W        W34288  30.554  23.874   6.386 -0.2183  0.0816  0.0910
91376W        W34289  26.451  26.188  21.595  0.3194  0.0876 -0.1010
91377W        W34290  17.827  29.546  20.699 -0.0744 -0.0776 -0.2476
91378W        W34291   6.554  20.122  14.515 -0.1354 -0.0463  0.0280
91379W        W34292  31.381  29.351  15.231  0.0606  0.0819  0.2210
91380W        W34293  30.323   8.150  17.224 -0.3171 -0.1449 -0.4440
91381W        W34294  27.154  25.213  16.207  0.1338 -0.2695 -0.0928
91382W        W34295  24.293  10.079  18.336  0.3844 -0.4348 -0.0648
91383W        W34296  19.986  13.079  13.355 -0.2580  0.0901  0.1798
91384W        W34297  19.671  25.383  15.772 -0.1625 -0.0470 -0.0191
91385W        W34298  23.047  19.574  13.578  0.0174  0.3354  0.1489
91386W        W34299  23.501  21.450  14.379 -0.1056 -0.2777  0.0370
91387W        W34300  17.646  19.514  15.032 -0.1458 -0.5003  0.0804
91388W        W34301   5.391  18.608  20.780  0.2045  0.0340  0.1196
91389W        W34302  29.027  27.924  23.514  0.0035  0.0215  0.0437
91390W        W34303  28.607   9.162  17.726 -0.1925  0.1023  0.1418
91391W        W34304  20.415  16.946  25.683 -0.2352  0.1073 -0.1604
91392W        W34305  22.815  17.415  23.684  0.0896 -0.0423 -0.1799
91393W        W34306  28.201  16.976  14.382 -0.2745 -0.0856  0.3095
91394W        W34307  16.010  14.470  17.242  0.0124 -0.1537  0.0002
91395W        W34308  21.291  24.787  18.583  0.3426  0.2437  0.1998
91396W        W34309   8.183  25.578  16.413 -0.0703 -0.2878 -0.5785
91397W        W34310  26.634   8.932  16.913 -0.1342 -0.1800  0.2257
91398W        W34311  20.673  16.608  25.960 -0.0326 -0.2611  0.3497
91399W        W34312   9.018   9.831  22.196  0.0146  0.1037 -0.0287
91400W        W34313  19.878  27.258  20.181 -0.1451 -0.0061  0.0053
91401W        W34314  24.152  21.020  19.041  0.1668 -0.0947  0.3373
91402W        W34315  23.143  13.702  27.143  0.1055  0.4308 -0.2279
91403W        W34316  11.138  10.448  22.377 -0.3632 -0.1844 -0.1913
91404W        W34317  21.559  21.502  21.689 -0.2342  0.0881  0.0086
91405W        W34318  27.137  19.708   5.748  0.1180  0.1773 -0.1876
91406W        W34319  20.115  12.685  21.578  0.1505 -0.2859  0.2749
91407W        W34320  12.582  29.029  21.290 -0.0228  0.0885  0.2929
91408W        W34321  14.923  19.238  13.889  0.4238 -0.0377  0.2317
91409W        W34322   7.393  21.046  22.438  0.0419 -0.1233 -0.0849
91410W        W34323  25.718  11.657  22.918  0.1084 -0.1504  0.0264
91411W        W34324  21.986   5.786   5.305 -0.2125  0.0427  0.1598
91412W        W34325  27.810  20.280  16.101 -0.0497  0.0660 -0.0855
91413W        W34326  21.457  25.676  15.758  0.1230 -0.2503  0.0767
91414W        W34327   2.108  25.453  19.185 -0.1546  0.1269  0.0661
91415W        W34328   0.017  10.892  22.214 -0.0053  0.2259  0.0825
91416W        W34329  23.590  31.554  16.828 -0.2869 -0.2708  0.1135
91417W        W34330  33.453  22.666  16.721  0.0510 -0.2105  0.0168
91418W        W34331  33.564  16.698   0.293 -0.0252  0.0880  0.0133
91419W        W34332  13.212  15.325  16.072 -0.0912 -0.0928  0.2274
91420W        W34333  32.575  14.669  24.347  0.0302  0.1620  0.0289
91421W        W34334  18.637  23.719  12.648  0.0861 -0.2825  0.1793
91422W        W34335  14.497  16.175  13.076  0.1683  0.1057  0.0978
91423W        W34336  12.379  22.411  17.277  0.0419  0.1652  0.0260
91424W        W34337  15.024  17.609  14.745  0.1437 -0.2149  0.1078
91425W        W34338  24.548  18.578  19.899  0.0251 -0.0289 -0.3413
91426W        W34339  18.014  25.688  22.061  0.0059 -0.4221 -0.0962
91427W        W34340  26.704  17.617  21.068 -0.2483  0.2311  0.2310
91428W        W34341  26.224  28.218  17.280  0.1405  0.2831  0.0482
91429W        W34342   8.792  20.291  12.912  0.1434  0.1050  0.1267
91430W        W34343  11.315  20.548  15.844 -0.1344 -0.1897  0.1699
91431W        W34344  21.568  14.298  20.002 -0.0935 -0.1431  0.1086
91432W        W34345  11.238  16.717  23.245 -0.1121 -0.0127 -0.0285
91433W        W34346  25.377  21.719   0.294 -0.1126 -0.0880  0.2930
91434W        W34347  22.706  21.142  17.234 -0.0702  0.1861  0.1201
91435W        W34348  14.848  11.558  16.873 -0.1624  0.2127 -0.1998
91436W        W34349  30.264  24.306  22.294  0.0834 -0.0625 -0.2125
91437W        W34350  26.774  14.310  21.926  0.1905 -0.2375  0.3703
91438W        W34351  32.881  22.973  19.019 -0.0825  0.0923  0.1949
91439W        W34352  12.953  14.172  17.400  0.0182  0.2193 -0.0822
91440W        W34353  29.608  22.378  21.252  0.2263  0.1617 -0.1177
91441W        W34354  21.216   8.849  21.482  0.1229 -0.0214 -0.0821
91442W        W34355  24.006  28.900  15.035  0.1564 -0.2275  0.1086
91443W        W34356  22.298  24.174  24.408 -0.3127 -0.1217  0.0801
91444W        W34357  25.666  18.734  23.306  0.1423 -0.1763 -0.1790
91445W        W34358  19.872  26.932  17.959 -0.3957 -0.3309  0.1942
91446W        W34359  23.506  27.928  23.508 -0.3299  0.2225 -0.1580
91447W        W34360  21.098  14.904  13.346 -0.3350  0.0867 -0.0392
91448W        W34361   2.789  23.189  21.980  0.1830  0.1945 -0.4389
91449W        W34362  27.103  22.601  21.693  0.2538 -0.1206  0.3559
91450W        W34363  21.708   0.160  20.727 -0.0155 -0.1835 -0.1733
91451W        W34364  28.278  14.004  24.983  0.0035  0.1011 -0.0627
91452W        W34365  14.815  31.881  21.486  0.0004 -0.2140  0.1399
91453W        W34366  13.731  22.632  21.534 -0.0548  0.0667 -0.3126
91454W        W34367   6.110  22.396  17.952 -0.2227  0.0562 -0.0914
91455W        W34368  21.466  17.579  14.082 -0.0255 -0.1296  0.1043
91456W        W34369  21.341  27.123  20.591 -0.1350 -0.0949  0.2572
91457W        W34370  31.897  20.967  13.863 -0.1634  0.0479  0.0161
91458W        W34371  11.802  13.172  17.393 -0.0274 -0.1499  0.0957
91459W        W34372  18.017  27.023  20.563  0.0236  0.1278  0.0446
91460W        W34373  23.721  27.291  19.795  0.3292  0.2945  0.1364
91461W        W34374  24.722  22.136  16.387  0.1543 -0.0849 -0.1137
91462W        W34375  22.542  24.662  14.067  0.2145  0.0525  0.0588
91463W        W34376  19.936  18.900  12.983  0.0472 -0.0904 -0.0076
91464W        W34377  23.972  16.281  27.285  0.1164  0.0655  0.3664
91465W        W34378  25.935  23.804  13.146  0.0509 -0.1910 -0.2884
91466W        W34379  33.079  24.507  21.712  0.1187  0.0301 -0.0361
91467W        W34380  22.225  15.664  19.588 -0.1763 -0.0499 -0.1951
91468W        W34381  19.054  25.042  17.169 -0.2723  0.3157  0.0583
91469W        W34382  13.846  21.947  17.893 -0.1227  0.1100  0.1535
91470W        W34383  16.980   7.822  23.193  0.4600 -0.2525  0.2519
91471W        W34384  23.274   6.223  20.506 -0.0491 -0.0695 -0.0968
91472W        W34385  11.767  10.404  23.282 -0.0762  0.1914 -0.0139
91473W        W34386  33.708  33.087  15.892  0.3043  0.4155 -0.0768
91474W        W34387  10.883  28.653  20.158  0.1223 -0.3096  0.0573
91475W        W34388  12.485  20.144  15.779  0.3855 -0.1927 -0.0661
91476W        W34389  20.549  23.113  14.452  0.1437  0.1945 -0.1140
91477W        W34390  20.246  14.191  15.611  0.2082 -0.2182 -0.1076
91478W        W34391  27.088  19.199  21.004  0.0909 -0.0063 -0.2094
91479W        W34392  13.225   8.757  17.906 -0.2145  0.1157 -0.0724
91480W        W34393  14.509   6.117  18.124  0.0110 -0.0576 -0.1323
91481W        W34394  21.100  21.236  16.401  0.2890  0.2914 -0.1986
91482W        W34395  28.804  19.090  15.139 -0.2583  0.1257 -0.1734
91483W        W34396  21.322  27.794  29.571  0.2336 -0.1168 -0.1959
91484W        W34397  19.419  14.466  24.852 -0.1323  0.1226 -0.0837
91485W        W34398  19.846   0.622  25.134  0.1856 -0.0095 -0.1245
91486W        W34399  23.709  23.316  16.456  0.0391  0.3142 -0.2172
91487W        W34400  32.392  19.532   5.141 -0.0220  0.1941  0.1293
91488W        W34401  18.887  16.713  12.167  0.1393  0.0229  0.1254
91489W        W34402  11.393  23.903  22.034 -0.3149 -0.0714 -0.1779
91490W        W34403  16.740  11.528  12.993 -0.5147 -0.1909  0.1170
91491W        W34404  27.004  25.223  19.444  0.1103 -0.1138 -0.4067
91492W        W34405  16.719  22.108  12.323  0.1983 -0.1640 -0.0910
91493W        W34406  23.266  15.801  20.279 -0.1126  0.0841 -0.0364
91494W        W34407  13.026   7.971  21.930  0.3923  0.0349  0.0255
91495W        W34408  20.557  20.867  15.777 -0.2172  0.0745 -0.0655
91496W        W34409  22.066  15.666  23.409  0.1992  0.2489 -0.1098
91497W        W34410  27.859  12.580  19.485 -0.0792  0.0428  0.2262
91498W        W34411  25.807  18.325  13.262 -0.1664 -0.0396 -0.0160
91499W        W34412  25.094  11.094  21.742 -0.2418 -0.0821 -0.0010
91500W        W34413  20.051  25.059  14.077  0.1223 -0.3952 -0.2335
91501W        W34414  18.667  24.552  25.273  0.3609 -0.2185  0.1666
91502W        W34415  20.244  21.193  16.431 -0.3606 -0.1322  0.1561
91503W        W34416  32.092  31.938  25.740 -0.1151  0.1717 -0.1327
91504W        W34417  11.900  23.409  25.215  0.0082  0.3473 -0.2751
91505W        W34418  26.144  11.386  17.525  0.1611 -0.0131  0.0856
91506W        W34419  19.921  12.400  22.407 -0.0557 -0.0503 -0.1351
91507W        W34420  32.015  28.772  22.609  0.1945 -0.2171 -0.2696
91508W        W34421  24.314  21.122  14.976  0.2346  0.0150 -0.2384
91509W        W34422  21.796  10.321  20.809  0.0662  0.1469 -0.0518
91510W        W34423  24.115  25.932  17.934  0.2398 -0.1012 -0.0260
91511W        W34424  16.372  22.249  22.844  0.2370  0.0802 -0.2057
91512W        W34425   4.874  25.994  16.949 -0.0885 -0.0517 -0.3558
91513W        W34426  30.582  17.922  14.646  0.2722  0.1682  0.0881
91514W        W34427  22.696   5.575  20.810  0.0629  0.0484  0.3692
91515W        W34428  21.290  23.717  19.101 -0.0309 -0.2826  0.1350
91516W        W34429  24.533  16.191  17.891  0.1395 -0.1161  0.3267
91517W        W34430   1.393  16.307  15.148 -0.0203 -0.1101 -0.0715
91518W        W34431  15.545  26.113  13.935 -0.3500  0.0428 -0.1157
91519W        W34432  21.205  18.582  16.801  0.3224 -0.1404  0.1803
91520W        W34433  21.881  20.820  18.283  0.0356  0.0629 -0.1758
91521W        W34434  17.397  19.961  12.678  0.3220 -0.1563 -0.1128
91522W        W34435  20.740  18.656  14.129 -0.0714 -0.1923 -0.1575
91523W        W34436  10.810  15.829  14.247 -0.2226  0.2544 -0.0215
91524W        W34437  24.397  29.390  16.627  0.2043 -0.3002 -0.0005
91525W        W34438  20.193  25.791  16.558  0.0096  0.1950 -0.0068
91526W        W34439  21.866   6.680  20.828  0.1013  0.0157 -0.1484
91527W        W34440  22.284  16.749  21.576 -0.4830  0.1514 -0.1010
91528W        W34441  28.129  25.978  19.757 -0.0279  0.1315 -0.1791
91529W        W34442  25.761  19.342  15.407 -0.2380 -0.2872 -0.1617
91530W        W34443  25.086  19.301  24.490  0.1108  0.2558 -0.0278
91531W        W34444  21.284  18.374   0.195  0.1030 -0.1375  0.0098
91532W        W34445  20.049  20.354  16.935  0.0103  0.1658 -0.0765
91533W        W34446  18.229  26.947  14.877  0.2610  0.1141  0.0126
91534W        W34447  17.380  22.183  12.841 -0.3922 -0.0466 -0.3871
91535W        W34448  25.484  18.040  16.187  0.0699 -0.0132  0.1206
91536W        W34449  18.040   6.583  14.916  0.1078 -0.0110 -0.2516
91537W        W34450  15.237  26.847  17.665  0.2503  0.1628  0.0029
91538W        W34451  25.601  22.071  16.326  0.2009 -0.0502  0.0127
91539W        W34452  22.328  21.735  12.004  0.0972  0.2709  0.2773
91540W        W34453  26.783  17.876  20.633  0.2038  0.1839 -0.2926
91541W        W34454  15.678  26.836  17.991  0.1950  0.0890 -0.1043
91542W        W34455  20.097  23.067  14.153  0.0263 -0.0972  0.0280
91543W        W34456  24.562  21.934  20.717 -0.1782 -0.1366  0.1513
91544W        W34457  17.717  27.775  28.593 -0.0679  0.1474  0.3139
91545W        W34458  24.484  18.937  13.447  0.0560 -0.1714 -0.1420
91546W        W34459  30.255  23.835  23.460 -0.0037  0.1605 -0.0083
91547W        W34460  16.967  20.528  25.209  0.0344  0.0358 -0.1672
91548W        W34461  13.750  12.679  17.943 -0.2333 -0.1436 -0.0555
91549W        W34462  15.573  14.572  15.358  0.0723  0.0173  0.3249
91550W        W34463   3.117  22.650  19.872 -0.0333 -0.4002  0.0072
91551W        W34464  28.238  17.634  26.430 -0.1104  0.1179 -0.3259
91552W        W34465  27.054  10.632  16.934  0.0754  0.1698  0.0037
91553W        W34466  22.821   0.775  20.889 -0.2095 -0.0107  0.0660
91554W        W34467  22.222  13.012  20.266 -0.0883  0.0837  0.2308
91555W        W34468  23.744  14.232  15.784 -0.0261  0.0089  0.0100
91556W        W34469  22.675  25.583  15.295 -0.0435  0.3407 -0.1919
91557W        W34470  22.199  22.831  17.492  0.0858 -0.1671 -0.0689
91558W        W34471  22.107  13.344  15.730  0.1716 -0.2601 -0.0336
91559W        W34472  26.166  21.805  21.928  0.1817 -0.2912  0.0200
91560W        W34473  18.761  19.758  28.397 -0.2756 -0.0483  0.2471
91561W        W34474  20.645  12.618  14.979 -0.0668 -0.1306 -0.0960
91562W        W34475  18.962  27.414  13.933  0.0884 -0.1896 -0.1277
91563W        W34476  26.237  21.922  24.014  0.0346 -0.2828 -0.0507
91564W        W34477  21.774   2.146  15.027 -0.0461 -0.1434 -0.0882
91565W        W34478  30.447  24.825  22.009  0.1051 -0.1431 -0.0713
91566W        W34479  22.777  12.164  13.455  0.2797  0.0548 -0.0178
91567W        W34480  28.457  17.238  14.729 -0.2966  0.0554  0.0188
91568W        W34481  15.296  18.813  13.002  0.5082 -0.1396 -0.1317
91569W        W34482  31.318  15.949  24.410  0.3389 -0.1232 -0.0586
91570W        W34483   9.951  18.048  26.484 -0.1838 -0.0901  0.1203
91571W        W34484  10.762  16.527  19.271 -0.0242  0.0075 -0.1845
91572W        W34485  26.117  31.019  19.091  0.0598 -0.1098 -0.3005
91573W        W34486  22.376  18.736  11.973 -0.3154  0.2233  0.0083
91574W        W34487  22.021  23.523  14.486  0.3161  0.0824 -0.0239
91575W        W34488  12.559  31.301  17.772 -0.0503  0.1806  0.0045
91576W        W34489  29.248  18.260  27.867  0.0639 -0.0712 -0.0432
91577W        W34490  20.216  27.978  13.639 -0.0263  0.1242 -0.0274
91578W        W34491  22.132  26.520  29.208 -0.1846 -0.1150 -0.0234
91579W        W34492  13.841  24.889  19.499 -0.0386 -0.0497 -0.3909
91580W        W34493  18.680  20.080  11.773  0.0362 -0.1647 -0.1377
91581W        W34494  28.284  26.923  23.892 -0.0972  0.0571  0.1716
91582W        W34495  19.482  18.977  15.373 -0.1145 -0.2604  0.0982
91583W        W34496  18.947  23.530  20.364  0.1727  0.2894  0.2409
91584W        W34497  30.419  17.091  16.668 -0.3320  0.0906  0.0102
91585W        W34498  23.178  28.307  21.023 -0.1599  0.2914 -0.1179
91586W        W34499  23.198  31.663  17.915  0.4127 -0.2352  0.1983
91587W        W34500  23.067  29.312  18.432 -0.2739 -0.0255  0.1217
91588W        W34501  14.708  12.144  18.018  0.0793 -0.1973 -0.0534
91589W        W34502  17.157  27.231   0.425  0.0667 -0.1751  0.2608
91590W        W34503  27.866  23.815  17.014 -0.0236 -0.0253 -0.1406
91591W        W34504  15.203  31.784  22.041 -0.0606  0.0128 -0.1737
91592W        W34505  20.581  10.855  15.361 -0.0061  0.0564  0.3529
91593W        W34506  20.619  18.184  12.753 -0.0584 -0.2439 -0.1102
91594W        W34507  27.555  26.823  14.145  0.0800  0.1577 -0.1099
91595W        W34508   5.297   8.642  21.221  0.2192 -0.5041  0.0023
91596W        W34509  22.677   8.608  16.001 -0.2608 -0.0000 -0.0876
91597W        W34510  30.052  22.167   0.074  0.2763  0.0490 -0.0143
91598W        W34511  15.057  18.056  13.170  0.0128 -0.0565 -0.0779
91599W        W34512  22.180  12.306  12.808  0.2351 -0.0356 -0.0120
91600W        W34513  20.463  23.381  19.391 -0.0232 -0.3021 -0.0999
91601W        W34514  11.770  21.068  16.429  0.1860 -0.1755  0.3128
91602W        W34515  25.193  20.899  18.643  0.2023 -0.0601 -0.0604
91603W        W34516  20.088  26.653  15.354 -0.1403 -0.0411 -0.0293
91604W        W34517  22.288  22.945  23.527 -0.1501  0.1645 -0.1362
91605W        W34518  31.436  11.001  17.051 -0.0593  0.3537  0.0547
91606W        W34519  23.760  14.129  17.730  0.2990  0.1905 -0.1220
91607W        W34520  10.231  20.139  18.580  0.1396 -0.3215  0.2613
91608W        W34521  25.695  26.801  18.735  0.0978 -0.2505  0.3738
91609W        W34522  10.032  28.209  16.846  0.3374 -0.1038 -0.0017
91610W        W34523  22.039  17.101  23.830  0.0253  0.1594  0.2126
91611W        W34524  12.674  17.769  16.247 -0.0127  0.0428 -0.0766
91612W        W34525  21.561  23.737  14.449  0.1432 -0.1595 -0.0724
91613W        W34526  22.285  20.034  20.867  0.4834 -0.1983  0.2575
91614W        W34527  24.549  14.024  15.185  0.2790  0.1179 -0.1966
91615W        W34528  29.908  21.393  21.920  0.1821 -0.3119 -0.3639
91616W        W34529  22.700  28.239  21.004  0.0347  0.2981 -0.2135
91617W        W34530  30.390  18.091  16.382  0.2824  0.3972  0.4816
91618W        W34531  14.402  25.096  22.149 -0.2277  0.2720 -0.1134
91619W        W34532  12.143  18.856  25.992 -0.2907  0.1020  0.1914
91620W        W34533  22.970  14.670  20.350  0.0396  0.1361  0.2949
91621W        W34534  17.638  21.375  23.803 -0.0379  0.1394 -0.0710
91622W        W34535  22.009  33.598  20.688  0.1127 -0.0523 -0.1584
91623W        W34536  18.443  11.364  12.445  0.2677 -0.2526  0.1017
91624W        W34537   5.820  21.345  22.370 -0.0552  0.0210 -0.0191
91625W        W34538  19.639  20.417  20.412 -0.2795 -0.1726 -0.0080
91626W        W34539   8.894  26.416  21.962 -0.0194 -0.0176 -0.2142
91627W        W34540  19.605   4.711  21.063  0.0554 -0.1031 -0.1471
91628W        W34541   9.276  17.720  25.101  0.1760 -0.1455  0.2205
91629W        W34542  23.929   7.211  23.438  0.1440  0.0970 -0.0218
91630W        W34543  27.236  23.183  15.423  0.0389 -0.1111 -0.1411
91631W        W34544  15.226  10.657  14.210  0.1848  0.3314 -0.1586
91632W        W34545  25.629  11.693  15.398  0.0584 -0.1940 -0.1377
91633W        W34546   2.192  19.800  15.135 -0.4727 -0.0891 -0.0554
91634W        W34547  16.557  28.316  27.807  0.3629 -0.0896  0.0244
91635W        W34548  21.805  22.150  16.393  0.0929  0.1916 -0.1207
91636W        W34549   8.531  10.999  17.409  0.0836  0.2301 -0.2367
91637W        W34550   8.899  18.315  26.544 -0.2479 -0.1342  0.2275
91638W        W34551  30.165  27.110  22.021 -0.1721  0.0160  0.0278
91639W        W34552  21.872  12.026  17.182 -0.1727 -0.0858 -0.0801
91640W        W34553  23.151  19.992  16.755  0.1533 -0.3990  0.2194
91641W        W34554  29.243  29.451  17.042  0.1865  0.1864  0.1244
91642W        W34555  19.883  23.856  14.894  0.2658  0.1307  0.2671
91643W        W34556  32.849  13.409  23.896 -0.2108 -0.1774 -0.2384
91644W        W34557  14.600  21.464  16.548  0.4344  0.1916  0.0251
91645W        W34558  12.691  17.547  12.951 -0.1222 -0.1604  0.0984
91646W        W34559  13.778  20.029  20.416  0.3519  0.1175  0.2856
91647W        W34560  11.879  11.309  21.649 -0.3166 -0.3996 -0.1412
91648W        W34561  29.412  12.650  22.411  0.2044  0.1490  0.1157
91649W        W34562  30.517  18.035  29.441  0.0989 -0.0936 -0.0891
91650W        W34563   3.623  13.973  18.984 -0.1545  0.2663 -0.1429
91651W        W34564  21.561  11.152  12.710  0.0030 -0.1275 -0.2321
91652W        W34565  21.491  18.098  22.328 -0.0586 -0.0036  0.1240
91653W        W34566  29.923  25.403  21.686  0.0921 -0.0667  0.1542
91654W        W34567  14.250  20.883  19.138  0.1377  0.0662 -0.0107
91655W        W34568  29.438  17.416   0.596  0.0729  0.1659  0.0137
91656W        W34569  17.236  21.495  16.860  0.0785 -0.1529  0.0191
91657W        W34570  19.876  17.803   2.491  0.0796 -0.2162  0.0269
91658W        W34571  21.420  28.560  17.125 -0.0888 -0.2446 -0.0487
91659W        W34572   8.481  25.105  15.738 -0.1832 -0.1601  0.0203
91660W        W34573  16.508  21.087  15.210  0.1173  0.0447  0.0861
91661W        W34574  31.179  13.853  14.309 -0.1647  0.0496 -0.0902
91662W        W34575  29.256  16.668  22.775  0.2558 -0.0474  0.0495
91663W        W34576  10.623  23.378  20.096 -0.1188 -0.3907 -0.0773
91664W        W34577  20.337   3.662  27.928  0.2323 -0.0881  0.2050
91665W        W34578  19.642  14.007  14.832 -0.0309 -0.2412 -0.0983
91666W        W34579  10.517  14.928   6.611  0.0387  0.3240 -0.2410
91667W        W34580  27.819  21.404   2.589 -0.1209  0.0772 -0.3173
91668W        W34581  29.183  13.107  15.258  0.0846 -0.1760 -0.2934
91669W        W34582  10.319  21.190  14.044  0.0123  0.0881  0.0148
91670W        W34583  19.625  30.514  16.939  0.2473  0.1867 -0.3582
91671W        W34584  24.155  11.608  14.879 -0.1519  0.2695 -0.2430
91672W        W34585  10.133  10.582  22.935 -0.4033 -0.1443  0.0504
91673W        W34586  22.111  29.935  26.623 -0.1539  0.0231 -0.2224
91674W        W34587  12.204  20.754  21.292  0.1871 -0.2090  0.2033
91675W        W34588  21.947  23.779  13.430  0.2652  0.1055 -0.0169
91676W        W34589  20.925  17.827  16.426  0.1830 -0.0991  0.0651
91677W        W34590   3.259  26.166  26.842  0.1107 -0.3864 -0.3831
91678W        W34591  22.287  22.903  16.194  0.0005  0.1699  0.1840
91679W        W34592  13.163  19.572  18.614 -0.0992 -0.0574  0.3107
91680W        W34593  19.879  11.080  19.684 -0.1314  0.0011  0.1960
91681W        W34594  12.989  11.234  22.399  0.3067 -0.1851 -0.0682
91682W        W34595  17.726  32.745  18.979  0.1810 -0.1023 -0.1209
91683W        W34596  19.615   9.218  24.891 -0.1761  0.1301  0.0238
91684W        W34597  15.281  21.496  14.608  0.0720  0.2581  0.2091
91685W        W34598  29.858  16.567  22.721  0.2989 -0.1538  0.2063
91686W        W34599  24.557  28.872  28.573  0.0382  0.0609  0.0449
91687W        W34600  21.829  23.681  20.810  0.2518  0.0488  0.2774
91688W        W34601  22.341  18.727  15.164  0.0411 -0.0519  0.1128
91689W        W34602  23.831  33.150  19.345 -0.5349  0.0572 -0.1678
91690W        W34603  16.165  23.412  23.252  0.1812  0.1395  0.1999
91691W        W34604  18.389  10.898  25.434 -0.3151 -0.0344  0.0012
91692W        W34605  23.683  13.976  18.212 -0.1054  0.0822  0.0334
91693W        W34606  18.110   8.515  19.481  0.0222  0.1273  0.2527
91694W        W34607  20.837   4.081  22.680 -0.0523 -0.1302  0.0401
91695W        W34608  16.496  24.362  14.317  0.2047  0.3398 -0.1400
91696W        W34609  17.646  11.844  18.090 -0.1324 -0.1066 -0.0714
91697W        W34610  22.658  17.861  17.303 -0.0173  0.3951  0.0897
91698W        W34611  23.124  19.163  21.078  0.2425  0.0297  0.0609
91699W        W34612  24.680  25.374  25.811 -0.3752  0.2196  0.1111
91700W        W34613  26.342  20.160  23.487  0.1043 -0.1411 -0.0679
91701W        W34614   6.241  22.761  17.208 -0.1742 -0.1955  0.3145
91702W        W34615  15.692  31.873  24.823  0.4371  0.0010 -0.0961
91703W        W34616  27.245  23.024  13.735  0.3265 -0.1396 -0.2352
91704W        W34617  31.147   8.525  15.755  0.0176  0.1280  0.0711
91705W        W34618  14.811  28.315  18.796 -0.0382  0.0270 -0.1184
91706W        W34619  24.485  15.719   0.570 -0.2334 -0.2150  0.0503
91707W        W34620  12.498  15.979  19.750 -0.1208 -0.0527  0.0671
91708W        W34621  32.839  18.089  16.726 -0.1027  0.1843  0.0272
91709W        W34622  19.210  25.992  16.194  0.0040  0.1958 -0.4169
91710W        W34623  20.349  24.328  25.961  0.3013 -0.0578  0.2768
91711W        W34624  22.690  21.096  22.179  0.0091 -0.0041 -0.0874
91712W        W34625  14.418  30.669  19.965  0.1897 -0.2075  0.3721
91713W        W34626  21.008  26.678  19.897  0.1686 -0.3171  0.2265
91714W        W34627  25.611  26.665  12.713  0.2132 -0.2789  0.1920
91715W        W34628  31.578  16.239  21.106 -0.0715  0.0950  0.0820
91716W        W34629  17.882  27.127  26.961 -0.1201 -0.0780  0.0720
91717W        W34630  29.397  27.585  22.256 -0.3101  0.0364 -0.2663
91718W        W34631  13.181  20.339  24.968 -0.0203  0.1932 -0.0609
91719W        W34632   7.652  26.189  22.515 -0.3696  0.1405  0.2796
91720W        W34633  20.275   9.841  16.150 -0.0815 -0.2961  0.1221
91721W        W34634  32.904  19.259  20.117 -0.0248 -0.1371  0.1277
91722W        W34635  19.230  19.515  20.737  0.1676  0.0789 -0.1012
91723W        W34636  21.975  13.115  19.315  0.2274  0.0310 -0.1971
91724W        W34637  19.149  29.856  21.188  0.2449  0.1065  0.0860
91725W        W34638  22.071  14.332  14.448  0.0189  0.0265 -0.0010
91726W        W34639  27.781  29.626  23.867 -0.0691 -0.0950  0.0153
91727W        W34640  14.345  28.830  18.384  0.1874  0.3079  0.0241
91728W        W34641   1.089  13.705   0.594 -0.1999 -0.1270 -0.0282
91729W        W34642  10.684  16.312  14.394  0.2372  0.3947  0.1464
91730W        W34643  21.729  19.255   0.456 -0.0890  0.1886 -0.0042
91731W        W34644  12.775  17.535  15.135  0.0134  0.1058  0.2372
91732W        W34645  28.969  12.261  26.924 -0.0239  0.0240 -0.0791
91733W        W34646  18.650  12.526  16.448 -0.1219 -0.0614  0.0311
91734W        W34647  31.528  19.465   6.694 -0.1475 -0.1114 -0.0436
91735W        W34648  30.101  21.993  26.781  0.0663 -0.0803 -0.2611
91736W        W34649  23.591  23.144   2.843 -0.2180  0.3087 -0.1711
91737W        W34650  28.983  20.150  19.431  0.2296 -0.2387 -0.0285
91738W        W34651  26.435  16.468   4.782  0.2842 -0.0984 -0.2997
91739W        W34652  11.524  27.653  19.769  0.2711  0.1711 -0.1763
91740W        W34653  30.596  22.138  26.142 -0.3242  0.1628 -0.3794
91741W        W34654  18.327  23.250  18.847 -0.0470 -0.2571  0.3772
91742W        W34655  29.143  15.460  20.730  0.1946 -0.3190 -0.3441
91743W        W34656  23.514  14.289  14.324  0.2052  0.1466  0.2483
91744W        W34657  16.718  30.725  24.829  0.2753  0.1087  0.1494
91745W        W34658  23.951  18.797  23.751  0.2739 -0.3366  0.1406
91746W        W34659  32.064  27.201  20.929  0.2950  0.0157 -0.1110
91747W        W34660  18.473  29.986  26.507 -0.1021 -0.0208  0.0313
91748W        W34661  26.068  29.230  19.051 -0.0605  0.0503  0.2420
91749W        W34662  17.731  20.581  24.465 -0.0155  0.1725  0.2912
91750W        W34663  21.142  27.598  14.506  0.1862  0.2475 -0.0665
91751W        W34664  16.636  28.751  26.103 -0.3088 -0.1467 -0.1436
91752W        W34665  11.963  28.343  22.235 -0.3658 -0.1715  0.0143
91753W        W34666  23.658  20.327  19.808  0.1655  0.2310  0.1406
91754W        W34667  16.363  12.447  17.320  0.2401  0.0287 -0.3326
91755W        W34668  20.167   4.787  18.772  0.0803 -0.2227 -0.4362
91756W        W34669  26.287  25.016  23.092  0.0083 -0.0738 -0.0329
91757W        W34670  18.527  24.909   5.113 -0.2696  0.1965 -0.1693
91758W        W34671  17.218  21.153   1.686 -0.0733  0.3038 -0.0837
91759W        W34672   7.650  23.233  16.124  0.3401 -0.1559  0.0929
91760W        W34673  19.056  31.285  22.355  0.0349  0.1622 -0.3092
91761W        W34674  21.054   9.016  20.634  0.1495 -0.2550 -0.1047
91762W        W34675  23.663  14.471  18.313  0.2200  0.3265  0.0712
91763W        W34676  19.629  20.944  29.151 -0.2360 -0.2433  0.0290
91764W        W34677  33.678  18.096  21.764  0.0513  0.1048  0.1220
91765W        W34678   9.663  24.590  25.011 -0.1995  0.0703  0.3465
91766W        W34679  20.708  21.489  26.407 -0.0660  0.3058  0.2133
91767W        W34680  24.894  14.489  19.284 -0.2354 -0.2233  0.1542
91768W        W34681  26.999  19.593  26.403 -0.1927 -0.0153 -0.0653
91769W        W34682   9.721  17.074  16.590  0.2250 -0.1731 -0.1933
91770W        W34683  23.569  24.394  18.340 -0.1276 -0.0867 -0.1145
91771W        W34684  18.652  19.864  22.776  0.2106  0.1424  0.0248
91772W        W34685  31.763  29.717  18.439 -0.1085 -0.3775 -0.2155
91773W        W34686  22.382  27.983  20.748  0.1005  0.0239 -0.1006
91774W        W34687  25.033  22.263  23.698  0.0955  0.0487  0.0678
91775W        W34688  20.043  20.788  25.374  0.1130  0.0758 -0.0502
91776W        W34689  14.607  21.560  13.070 -0.1638 -0.0209  0.1974
91777W        W34690   0.292  24.885   0.652 -0.0857 -0.2072  0.2275
91778W        W34691  23.508  29.010  20.943  0.1057 -0.2252 -0.2792
91779W        W34692  19.977  26.945  24.821 -0.1383  0.1456 -0.1454
91780W        W34693  22.445  13.794  16.964 -0.0820 -0.2285  0.1063
91781W        W34694  17.183  27.073  21.733  0.0523 -0.0366  0.0073
91782W        W34695  21.497  26.268  24.165  0.1423  0.0004 -0.0643
91783W        W34696  23.343  12.033  18.156 -0.0776 -0.0968  0.1418
91784W        W34697  31.194  26.285   1.119  0.2549  0.2764  0.0625
91785W        W34698  13.294  27.280  21.510 -0.1630  0.2434 -0.1479
91786W        W34699  24.616  24.393  24.408 -0.1852  0.1889  0.1180
91787W        W34700  12.282  21.918  26.660  0.1272 -0.1269 -0.0023
91788W        W34701  22.396  18.835   2.067 -0.2475  0.1834 -0.0943
91789W        W34702  15.125  13.244  14.732  0.0634  0.1317  0.1154
91790W        W34703  17.102  24.350   3.892 -0.0704  0.1130  0.1619
91791W        W34704  27.571  24.585  15.031  0.1504  0.0528  0.2789
91792W        W34705  28.436  16.099  16.229 -0.1427 -0.1141 -0.0127
91793W        W34706  23.828  27.595  22.884 -0.2127 -0.0481 -0.1541
91794W        W34707  33.193  30.386  23.054  0.1159 -0.0903  0.3463
91795W        W34708  22.735  23.558  27.951 -0.1273 -0.0156 -0.2967
91796W        W34709  10.385  14.201  19.452  0.0431  0.2014  0.1497
91797W        W34710  23.254  26.862  16.355 -0.2154 -0.1081 -0.0379
91798W        W34711  23.888  25.363  13.123 -0.2765  0.0171 -0.2167
91799W        W34712   7.775  25.281  16.603  0.3992  0.0656 -0.1770
91800W        W34713  20.718  29.610  16.589 -0.0550 -0.2004 -0.0978
91801W        W34714  23.930  19.308  25.519  0.1204  0.0089  0.2561
91802W        W34715  23.088   9.469  20.630  0.2810 -0.2824 -0.0948
91803W        W34716  26.343  25.998   5.361  0.0163  0.2452 -0.0813
91804W        W34717  24.717  19.104  19.931  0.0992  0.1540 -0.1069
91805W        W34718  13.740  15.961  16.219 -0.0366  0.1723  0.0495
91806W        W34719  25.330  25.172  23.314  0.1381 -0.0708  0.3208
91807W        W34720  14.886  25.886  28.674  0.2659  0.0983 -0.0304
91808W        W34721  20.686  19.576  27.645 -0.1256 -0.0427  0.1683
91809W        W34722  30.022  20.138  15.398 -0.1564  0.1463  0.1560
91810W        W34723  27.343  24.562  26.051 -0.0966 -0.1201  0.3103
91811W        W34724  12.107  29.942  25.963 -0.0526 -0.0457  0.1451
91812W        W34725   7.910   7.776  27.016  0.0273  0.5369 -0.3339
91813W        W34726  32.209  18.444  19.088  0.0101  0.2165 -0.0128
91814W        W34727  18.197  31.781  25.717  0.2001 -0.4338  0.2007
91815W        W34728  31.346  17.394  20.736 -0.0184 -0.1600  0.0690
91816W        W34729  27.206  20.586  18.186  0.0055 -0.2900 -0.0190
91817W        W34730  23.387  21.683  25.602 -0.4826  0.0163  0.0503
91818W        W34731   0.353  21.082   3.522  0.2468 -0.0382  0.1701
91819W        W34732  17.647  18.031  19.907  0.0952 -0.0703  0.0108
91820W        W34733  21.310  23.617  22.626 -0.1358  0.0109 -0.2015
91821W        W34734  30.722  20.490  13.587 -0.3426  0.1760 -0.0776
91822W        W34735  19.301  27.188  21.080 -0.2370 -0.1263  0.0362
91823W        W34736  17.794  20.161   5.513  0.1924  0.0278 -0.2710
91824W        W34737  22.373  15.874  19.137  0.3255  0.1846 -0.2713
91825W        W34738  24.446  22.695   0.351  0.1881 -0.1897 -0.0261
91826W        W34739  28.005  15.925   2.705 -0.3635 -0.1827 -0.1805
91827W        W34740  14.546  32.084  17.654 -0.0539  0.0365 -0.0545
91828W        W34741  20.785  19.392  20.395 -0.1673  0.0423  0.2416
91829W        W34742  25.442  17.362  21.737 -0.0811 -0.0755 -0.0318
91830W        W34743  13.976  13.245  16.623 -0.0376 -0.0980  0.2677
91831W        W34744  14.136  22.675  24.808 -0.0834 -0.1904 -0.1289
91832W        W34745  15.098  27.572  26.604  0.2507 -0.0298  0.1744
91833W        W34746  23.658  21.584  22.488  0.3681 -0.1984  0.1469
91834W        W34747  16.830  12.708  17.233 -0.1614 -0.1064 -0.0563
91835W        W34748  30.740   0.295  15.485 -0.1228  0.1156 -0.3822
91836W        W34749  19.177  20.478   0.854 -0.0954 -0.2382  0.1065
91837W        W34750  24.900  15.042   5.026 -0.1279 -0.0985 -0.0739
91838W        W34751  23.873  20.534  25.074 -0.0473  0.1647 -0.0396
91839W        W34752  17.842  28.605  17.516  0.1443 -0.4588  0.2739
91840W        W34753  25.741  22.607  28.418  0.3157  0.0785  0.2107
91841W        W34754  15.763  24.762  16.732  0.0131 -0.3379 -0.1805
91842W        W34755  25.942  24.698   5.396  0.2464  0.2786  0.3337
91843W        W34756  18.181  17.372  18.304 -0.0116  0.0512 -0.1721
91844W        W34757  17.400  27.844  21.683 -0.2278  0.3466 -0.1101
91845W        W34758  18.650  23.126  15.547 -0.2302 -0.2500 -0.0613
91846W        W34759   8.230  30.082  15.688 -0.0379 -0.0293  0.0559
91847W        W34760  25.372  19.911   2.418  0.2659  0.1830  0.0111
91848W        W34761  24.821   8.161   5.855  0.0181 -0.0612  0.1155
91849W        W34762  14.609   6.717  25.117  0.2244 -0.1620  0.1236
91850W        W34763  26.999  20.210  14.835 -0.0307 -0.3189 -0.1294
91851W        W34764  19.208  13.026  18.096  0.1723  0.0654  0.2012
91852W        W34765  20.006  18.718  21.948 -0.3244  0.2338 -0.0063
91853W        W34766  28.402  28.023  17.373  0.1724 -0.0030 -0.1416
91854W        W34767   5.435  27.063  25.587  0.1611 -0.0253  0.0076
91855W        W34768  34.453   2.042   2.918 -0.1423  0.0384 -0.0881
91856W        W34769  15.379  20.672  28.538 -0.1453  0.5514  0.1833
91857W        W34770  23.247  26.393   4.423 -0.1471 -0.1996  0.2318
91858W        W34771  20.885  21.176   0.558  0.3004 -0.0719  0.0589
91859W        W34772  10.926  23.263  26.826  0.2443 -0.0289  0.2826
91860W        W34773  24.327  20.496  20.824  0.1786 -0.1725  0.0121
91861W        W34774  15.668  24.601  14.758 -0.5161  0.1632 -0.0068
91862W        W34775  24.762  23.056  19.028  0.2166 -0.2635  0.1613
91863W        W34776  22.897  25.626  28.681 -0.4182 -0.2910  0.0843
91864W        W34777  30.618  20.860  19.829 -0.0541 -0.1091 -0.4882
91865W        W34778  21.908  11.145  13.081 -0.4144  0.4448  0.0096
91866W        W34779   9.183  26.793  15.222 -0.0840 -0.0712 -0.0735
91867W        W34780  32.677  24.745  26.115  0.3525  0.0558 -0.1753
91868W        W34781  27.762  13.489  17.150  0.3942 -0.1458  0.0203
91869W        W34782  11.490  19.140  24.769 -0.0175 -0.2760  0.1041
91870W        W34783  25.744  33.800   1.036  0.3004 -0.0476  0.1686
91871W        W34784  12.753   4.809  17.681  0.4128  0.1586 -0.0172
91872W        W34785  13.783  21.352  24.218 -0.1477  0.1231  0.0125
91873W        W34786  25.169  16.248  24.018 -0.2066 -0.0357 -0.1087
91874W        W34787  24.533  11.408  20.740 -0.1348 -0.1884  0.6098
91875W        W34788  16.856  23.086   3.101  0.1067 -0.0507  0.1085
91876W        W34789  16.520  23.876  24.842 -0.2838  0.1375 -0.0579
91877W        W34790  26.222  26.206  16.789 -0.2651 -0.2261  0.3150
91878W        W34791  15.438   7.363   4.419  0.1533  0.0343 -0.1154
91879W        W34792  23.331  23.561  22.636 -0.1411 -0.1563 -0.1268
91880W        W34793  11.329  22.236  25.814 -0.1593  0.0340  0.2311
91881W        W34794  30.509  17.256   8.679 -0.1078  0.0541  0.0402
91882W        W34795  27.329  26.542  18.972  0.2490  0.3563  0.4385
91883W        W34796  25.943  20.353   6.956 -0.1009  0.2966 -0.2964
91884W        W34797  17.657  22.050  21.384  0.0443 -0.0177  0.1260
91885W        W34798  21.129  14.762  24.710 -0.0216 -0.1987  0.0016
91886W        W34799  20.858  23.546  13.672 -0.1964 -0.1413  0.1199
91887W        W34800  19.266  18.550  22.020  0.1834 -0.0240 -0.0799
91888W        W34801  14.072  22.510  27.780 -0.2848  0.1604  0.0180
91889W        W34802  23.077  20.067  27.373 -0.0494 -0.1035 -0.1154
91890W        W34803  33.028  15.538   6.277 -0.0958  0.2768 -0.2582
91891W        W34804  23.974  19.007   0.558  0.0647  0.0214 -0.0718
91892W        W34805  25.522  17.610  19.342 -0.1316  0.0908 -0.0356
91893W        W34806  24.319  11.541  13.522  0.0128 -0.0567 -0.3423
91894W        W34807  11.620  14.934  16.942  0.1393 -0.1435  0.1064
91895W        W34808  16.801  23.716  15.997  0.1219 -0.5096 -0.0868
91896W        W34809  16.495  29.264  17.007  0.1505  0.0457 -0.1001
91897W        W34810  10.291  23.260   0.497  0.0095  0.1599  0.3681
91898W        W34811  22.974  21.413  26.418  0.0502  0.1783 -0.1852
91899W        W34812  19.368  26.326  22.993 -0.0142  0.0047 -0.0121
91900W        W34813  22.935  26.566  20.409 -0.0192  0.2029 -0.1547
91901W        W34814  20.108  10.864  16.058  0.2737 -0.0756 -0.1512
91902W        W34815  22.022  27.318  23.298 -0.0072  0.1257 -0.2042
91903W        W34816  22.135  18.836  22.161  0.0974  0.1625  0.0257
91904W        W34817  12.992  27.707   2.302  0.1898  0.1799 -0.2444
91905W        W34818  25.411  20.846  23.035  0.2187 -0.0791 -0.2260
91906W        W34819  20.696  19.409  28.191  0.0789 -0.0222 -0.0538
91907W        W34820  23.159  26.959  23.951  0.0995  0.2125  0.3671
91908W        W34821   3.401   0.810  17.095  0.3034  0.1315 -0.2017
91909W        W34822   9.332   6.026   4.292  0.1145  0.1321 -0.2269
91910W        W34823   7.479  27.954  26.298 -0.3069  0.0033 -0.1456
91911W        W34824  19.960  25.919  21.891  0.1286  0.2478 -0.1626
91912W        W34825  23.341  30.383  20.510  0.3008  0.1003  0.5289
91913W        W34826  29.218  12.486   0.331  0.2076  0.1300  0.0199
91914W        W34827  22.462  25.467  26.387  0.0213  0.1377  0.0898
91915W        W34828   4.695  17.372  19.706 -0.1987 -0.1489  0.0055
91916W        W34829   3.863  22.137   1.708  0.1665 -0.4110 -0.0051
91917W        W34830  21.033  21.797  12.347  0.1010 -0.4365 -0.0870
91918W        W34831  18.553  20.815  12.678 -0.0364 -0.1134  0.0390
91919W        W34832  18.343   4.696  24.624 -0.0942 -0.2143 -0.1769
91920W        W34833  15.173  21.856  22.163 -0.0752  0.0516  0.1452
91921W        W34834  19.566  26.968  27.501 -0.0884 -0.2593  0.1934
91922W        W34835  27.896  22.608  26.918 -0.1391 -0.1533  0.2422
91923W        W34836  21.579  23.383  23.994  0.0125 -0.0041 -0.0307
91924W        W34837  25.498  19.902  21.584  0.0194  0.0209 -0.2241
91925W        W34838   1.922   6.529  24.138  0.0133 -0.4786 -0.0136
91926W        W34839  14.198  26.753  21.890  0.1604 -0.4959  0.0536
91927W        W34840  26.535  26.311   3.144 -0.0267 -0.3351  0.3752
91928W        W34841  32.479  29.744   5.100 -0.1743  0.0929  0.1821
91929W        W34842  22.304  13.096  22.357 -0.0718 -0.1338  0.0938
91930W        W34843  14.827  23.189  28.139 -0.2034 -0.0564  0.1242
91931W        W34844  13.473  18.200  15.323 -0.2036  0.1334 -0.0126
91932W        W34845  26.241  11.353  28.989  0.1302  0.2281 -0.1787
91933W        W34846  29.000   6.350  18.878  0.1022 -0.4442  0.0311
91934W        W34847  13.080  13.286  17.117  0.1649  0.1204 -0.2511
91935W        W34848  19.711  22.108  27.288 -0.2702 -0.1454 -0.2152
91936W        W34849  18.191  25.451  18.341 -0.0768  0.1168 -0.4326
91937W        W34850  27.366  19.080  22.884 -0.3738  0.0765  0.2483
91938W        W34851  26.877  23.545  26.551 -0.2104 -0.0847 -0.2081
91939W        W34852  21.645  23.489  27.207 -0.0521  0.1369 -0.2143
91940W        W34853  20.329  18.309  24.654  0.1565 -0.1386  0.3704
91941W        W34854  15.234  24.327   0.516  0.2422  0.3356 -0.0161
91942W        W34855  26.328  29.817   2.959  0.1876 -0.0454  0.1406
91943W        W34856  18.042  22.969  19.702 -0.0379  0.2716 -0.2584
91944W        W34857  22.810  16.341  26.626 -0.2341 -0.0036 -0.0657
91945W        W34858  18.535  29.081   5.248  0.1118 -0.1341  0.0153
91946W        W34859  16.141  17.398   4.872 -0.0658 -0.2648 -0.0154
91947W        W34860  18.203  26.110  21.716 -0.1249 -0.1513  0.1334
91948W        W34861   8.350  29.710   0.975  0.0934 -0.3110  0.1104
91949W        W34862  27.663  20.749  14.327  0.0192 -0.2157  0.2784
91950W        W34863  23.423  22.697  24.616 -0.0888  0.0699 -0.0353
91951W        W34864  33.796  26.471  24.075  0.0558 -0.0661 -0.0595
91952W        W34865  27.818  19.936  28.677  0.2490  0.1487 -0.2140
91953W        W34866  20.877  21.990   2.485 -0.0021  0.1606 -0.0147
91954W        W34867  26.974  14.938   0.510  0.1103  0.1447  0.0272
91955W        W34868  11.357  24.868  20.484  0.0214  0.1189  0.0899
91956W        W34869  22.647  33.099  23.063  0.0139 -0.1823  0.0144
91957W        W34870  20.908  21.667  17.932 -0.1930 -0.1541  0.2837
91958W        W34871  21.054   9.737  25.756 -0.1944 -0.0140 -0.0718
91959W        W34872  17.979  12.805  29.025 -0.2475  0.0666 -0.0793
91960W        W34873  10.585  19.742   3.569 -0.1469  0.3685 -0.2328
91961W        W34874  29.438  27.644  23.124 -0.2490 -0.2141  0.1203
91962W        W34875  32.542  25.584   2.586  0.1028 -0.1748 -0.2194
91963W        W34876  25.227  17.630  16.343 -0.2584 -0.0898  0.2162
91964W        W34877  23.727   6.476  18.227  0.0522 -0.2243 -0.1096
91965W        W34878  19.205  21.521  22.076  0.1444 -0.1523  0.1962
91966W        W34879  29.323  15.952  18.066  0.0835 -0.0381  0.1711
91967W        W34880  22.455   3.499  22.738 -0.2129 -0.1639  0.2978
91968W        W34881  24.062  11.601  20.522 -0.0316 -0.2009 -0.1070
91969W        W34882  14.572  24.912  24.369  0.0054  0.1966 -0.2646
91970W        W34883  22.746  16.997  24.506  0.0719 -0.4052  0.1043
91971W        W34884  24.599  21.840  24.328 -0.1010 -0.1472  0.2057
91972W        W34885  11.900  17.512  18.237  0.1846  0.0872 -0.0773
91973W        W34886  19.985  13.660   4.589  0.2217 -0.0087 -0.0762
91974W        W34887  15.620  20.744  18.647 -0.2973  0.0817  0.1619
91975W        W34888   9.198  30.505  23.043 -0.2649  0.0324  0.2695
91976W        W34889  23.915  12.411  20.387 -0.3201 -0.2049 -0.1108
91977W        W34890  21.577  15.289  21.027  0.2029 -0.3044  0.2292
91978W        W34891  19.778  21.032  12.512 -0.1369 -0.4526  0.2260
91979W        W34892  26.333  33.593  24.384  0.1828  0.1111 -0.1782
91980W        W34893  30.908  12.783  28.021 -0.0382  0.1077  0.2413
91981W        W34894  23.017  16.062  21.265  0.1188 -0.1455 -0.0452
91982W        W34895  20.368  21.433  19.369 -0.2181 -0.0942 -0.1431
91983W        W34896  21.406  13.676  19.482  0.3084  0.0330  0.2249
91984W        W34897   7.588  16.586  23.366  0.0969 -0.2442  0.2081
91985W        W34898  30.763  27.677  23.824  0.1191 -0.0178 -0.1525
91986W        W34899  22.195  27.154  15.390 -0.0331 -0.1246  0.3264
91987W        W34900  20.110   8.479  29.077  0.1589  0.0935 -0.3198
91988W        W34901  11.371  27.113  25.171 -0.1486  0.1667 -0.1719
91989W        W34902  26.495  30.189  16.466 -0.2527 -0.0962  0.0085
91990W        W34903  24.466  16.626  20.459  0.2473  0.0485  0.1800
91991W        W34904  24.886  17.356  19.968  0.1286 -0.0425 -0.1729
91992W        W34905  28.877  22.461  26.888 -0.2546 -0.1043  0.1800
91993W        W34906  22.938  24.493  22.061  0.1326  0.0664  0.1044
91994W        W34907  25.122  17.651   0.980 -0.1289  0.0735 -0.2222
91995W        W34908  11.964  26.066  27.746  0.1101 -0.0723 -0.2374
91996W        W34909  26.307  24.833  19.579 -0.0191  0.1309 -0.1288
91997W        W34910  29.518  29.325  25.467 -0.3471  0.0535  0.1683
91998W        W34911   9.918  23.907  20.146 -0.1600 -0.1479 -0.0314
91999W        W34912  18.531  11.810  21.767 -0.0207 -0.1604 -0.0978
92000W        W34913  32.955  27.484  23.014  0.1916  0.1433  0.1371
92001W        W34914  24.207  23.115  24.970 -0.0706  0.2568  0.1782
92002W        W34915  25.907  23.957   1.971 -0.1504 -0.0226  0.1806
92003W        W34916  26.170  27.209  25.887  0.3446  0.1578 -0.2650
92004W        W34917  17.939   7.690  23.153 -0.0698 -0.1583 -0.1388
92005W        W34918  27.954  19.700  20.154 -0.1629 -0.1771  0.1573
92006W        W34919  15.924  21.409  13.335 -0.2157 -0.3199 -0.0568
92007W        W34920   4.293  19.435  19.644 -0.0373 -0.0690 -0.0846
92008W        W34921  23.844  29.392   3.691  0.2267  0.3062  0.4273
92009W        W34922  29.051  19.588  20.045  0.0996  0.1616 -0.1440
92010W        W34923  31.678  26.401  23.071 -0.0533 -0.1438  0.2341
92011W        W34924  25.616  21.797  20.238 -0.3214  0.1196 -0.1125
92012W        W34925  23.904  12.142   7.028 -0.0488  0.0869  0.1460
92013W        W34926  16.674  27.259  16.621  0.1283  0.2251  0.0637
92014W        W34927  26.565  31.578   1.909 -0.1742  0.2282  0.1107
92015W        W34928  18.794  19.127  13.107  0.0355 -0.2063 -0.0546
92016W        W34929  18.575  30.331  27.348  0.0726  0.2370  0.2089
92017W        W34930  16.426  25.681  18.924  0.1351  0.2941  0.2789
92018W        W34931  24.556  31.416  22.626  0.1335 -0.1061  0.2190
92019W        W34932  23.629  17.859  29.613 -0.2379  0.1509  0.0712
92020W        W34933  20.661  21.263  17.825  0.3318 -0.2480 -0.0443
92021W        W34934  16.155  22.874   0.884  0.0388  0.0465 -0.0624
92022W        W34935  24.692  20.606  28.892  0.1564 -0.2555  0.3767
92023W        W34936  21.745  18.233  18.529  0.0690 -0.1315 -0.0372
92024W        W34937  21.781  21.777  15.982  0.1015 -0.0550  0.1881
92025W        W34938  19.372  27.067  14.786 -0.0301 -0.0549  0.1956
92026W        W34939  18.869  24.405  20.402  0.0893  0.4349  0.0720
92027W        W34940  26.055  16.935   0.747 -0.1503  0.0901  0.0667
92028W        W34941  19.938  22.628  26.017 -0.0069  0.4740  0.0335
92029W        W34942  13.469  20.549  21.166  0.2497 -0.0414  0.2559
92030W        W34943  19.810   8.703  24.966 -0.0292 -0.3155  0.1723
92031W        W34944  28.547  18.984  24.147  0.2023 -0.1032  0.0424
92032W        W34945  31.354  26.154  25.645  0.1398  0.1039 -0.3964
92033W        W34946  23.265  18.067  13.974  0.2491 -0.0059  0.1592
92034W        W34947  19.304  11.756  17.425  0.1957  0.3549  0.0930
92035W        W34948  22.799  20.190  26.042  0.2300 -0.0964  0.0694
92036W        W34949  16.334  20.249  25.934 -0.0833  0.2005 -0.1270
92037W        W34950  29.726  16.479   2.859 -0.0700  0.1287  0.1410
92038W        W34951  29.243  21.368  13.940 -0.0573 -0.1530 -0.2378
92039W        W34952  17.861  18.674  18.491 -0.0857  0.1664  0.1165
92040W        W34953  24.237  18.610  28.659  0.3105 -0.0498  0.2917
92041W        W34954  19.076  13.845  26.152 -0.1016 -0.0756 -0.0923
92042W        W34955  20.247  22.820  22.209  0.1401  0.1838  0.1002
92043W        W34956  25.004  11.594  22.389 -0.0812 -0.1498  0.0951
92044W        W34957   0.887  29.466  16.912 -0.0110 -0.1198 -0.0853
92045W        W34958  21.973   9.365   1.217 -0.0409 -0.0316 -0.1351
92046W        W34959  17.348  19.602  24.372 -0.1022  0.2036  0.1218
92047W        W34960  14.981  20.505  23.518  0.0536  0.1586  0.0888
92048W        W34961  15.157  29.270  23.772 -0.3095 -0.0705 -0.3751
92049W        W34962  21.629  32.266  24.315 -0.0867  0.1534 -0.1736
92050W        W34963  21.105  19.061  22.260  0.1071  0.0944 -0.3068
92051W        W34964  22.407  15.027  17.411  0.0367  0.1795  0.2443
92052W        W34965  22.602  12.088  29.615 -0.1636  0.0487 -0.0176
92053W        W34966  21.442  10.741   0.928  0.0906  0.2783 -0.0813
92054W        W34967  26.125  18.334  25.008  0.4314 -0.2331  0.1654
92055W        W34968  20.027  17.203  14.416 -0.0454 -0.1883 -0.0740
92056W        W34969  24.881  30.462  21.133 -0.1297  0.1537  0.2444
92057W        W34970  20.499  15.484  15.353  0.0187  0.0958  0.0091
92058W        W34971  24.299  21.504   3.466 -0.0452 -0.1172  0.0348
92059W        W34972  23.136  12.200  29.763 -0.3035 -0.1701 -0.2921
92060W        W34973  17.275  16.497  18.193  0.0545  0.0430 -0.1203
92061W        W34974  18.445  11.842  26.948 -0.1673 -0.1918 -0.0133
92062W        W34975  18.559  22.917  16.567  0.0777 -0.1078 -0.4350
92063W        W34976  29.600  20.757  22.981  0.1267 -0.2076 -0.1777
92064W        W34977  17.332  16.280  12.875  0.1668 -0.0413  0.1082
92065W        W34978  24.925  21.802  21.931  0.2607  0.1627 -0.0337
92066W        W34979  23.931  16.854  17.839 -0.1862  0.0654  0.1893
92067W        W34980  28.924  27.022   5.487 -0.0416  0.0633  0.0778
92068W        W34981  19.621  29.911  23.539 -0.5614 -0.1915  0.1150
92069W        W34982  21.016  24.824   5.890 -0.1079 -0.1658  0.0660
92070W        W34983  26.913  24.437  23.323 -0.1057  0.2261 -0.3210
92071W        W34984  32.478  19.116  22.991  0.1945  0.1408 -0.0098
92072W        W34985  32.908  23.949  23.831 -0.2793  0.0547  0.0569
92073W        W34986  10.824  28.694  24.531 -0.3877  0.1138  0.1155
92074W        W34987  27.913  27.700  26.245 -0.1413  0.1501  0.0940
92075W        W34988  29.226  14.116  28.652  0.0493  0.3568  0.2750
92076W        W34989  17.154  17.802  20.004  0.1247 -0.1502 -0.2057
92077W        W34990  26.020  26.031  17.270  0.2293 -0.0734 -0.1371
92078W        W34991  13.770  26.727  26.031 -0.0520  0.0042 -0.0548
92079W        W34992  12.766  16.273  15.295 -0.0100 -0.1339 -0.1439
92080W        W34993  16.552   9.269  25.377 -0.4401  0.3135  0.2109
92081W        W34994  17.401   6.511  29.223 -0.2526  0.0490  0.1651
92082W        W34995  27.690  20.396  26.536 -0.2514  0.0590 -0.1798
92083W        W34996  19.229  15.666  23.984  0.1929 -0.1596 -0.1299
92084W        W34997  23.531  18.234  24.804  0.4401  0.0036 -0.0340
92085W        W34998  19.438  15.461  26.703  0.4807 -0.0103 -0.2609
92086W        W34999  17.716  20.151  28.139 -0.1056  0.1716  0.2343
92087W        W35000  20.879  18.917   3.578 -0.1380  0.1391  0.0330
92088W        W35001  17.060  14.932  26.639 -0.4027 -0.2918 -0.1528
92089W        W35002   9.650  22.579  22.844  0.0504  0.0800 -0.0589
92090W        W35003  17.813  27.904   7.637 -0.3401  0.2641 -0.2266
92091W        W35004  26.001  21.245  27.292 -0.2712  0.2557  0.0618
92092W        W35005  24.617  11.830   3.059  0.0591 -0.0596 -0.2749
92093W        W35006  21.296  15.462  21.536 -0.0657  0.0612 -0.1199
92094W        W35007  18.980  12.863  20.223 -0.0194 -0.1590 -0.3180
92095W        W35008  10.628   5.630   4.488 -0.2086  0.1173 -0.0210
92096W        W35009  16.962  16.837  26.189  0.0905 -0.0722 -0.3127
92097W        W35010  22.561  20.631  26.107  0.1740  0.6022  0.1277
92098W        W35011  18.331  22.962  28.308  0.0352 -0.0025 -0.2138
92099W        W35012   8.226  16.269  29.502 -0.3408 -0.0293  0.1144
92100W        W35013  23.993  27.737  23.684 -0.2368  0.0102  0.0535
92101W        W35014   7.053  17.470   0.212 -0.0436 -0.2086 -0.0912
92102W        W35015  13.796  14.079  27.258 -0.0965  0.1391 -0.0035
92103W        W35016  22.155  26.486  19.836 -0.2592 -0.0785 -0.0839
92104W        W35017  20.515  18.843  24.685  0.1269  0.1755 -0.4572
92105W        W35018  17.449  21.580   3.519 -0.1160 -0.2439  0.1344
92106W        W35019  12.287  18.175  22.889 -0.0872 -0.0257 -0.1011
92107W        W35020  23.489  15.343  20.193 -0.3164  0.0923 -0.0967
92108W        W35021  32.381  19.598  25.203 -0.0795  0.3880 -0.2217
92109W        W35022  20.989  17.698  27.079  0.2370 -0.0919 -0.5909
92110W        W35023  19.452  20.786  20.761 -0.0354  0.1733  0.2432
92111W        W35024  16.643  19.420  28.712 -0.0431  0.1203 -0.0303
92112W        W35025  17.351  19.977  25.739  0.2272  0.1952 -0.1060
92113W        W35026  13.566  23.489  26.790  0.1791  0.3381  0.2891
92114W        W35027  21.788  27.781  23.856 -0.1300  0.1613  0.2293
92115W        W35028  22.636   4.593  22.558  0.0604  0.0164  0.0592
92116W        W35029  16.570  25.960   8.698  0.1013 -0.0501  0.0168
92117W        W35030  21.364  18.557  16.345  0.0491  0.0489  0.1344
92118W        W35031  19.071  16.984   3.230  0.2160  0.0040 -0.0710
92119W        W35032  20.879  22.435  24.213  0.0407  0.1339  0.2142
92120W        W35033   9.794  18.591  21.600 -0.2579  0.0108 -0.0068
92121W        W35034  18.137  14.433  26.148 -0.2246 -0.4087  0.1212
92122W        W35035  14.501  28.180  15.496 -0.2839 -0.0716 -0.1095
92123W        W35036  15.669  20.337   8.339 -0.2094 -0.0059 -0.0590
92124W        W35037  19.296  21.707   8.123  0.1442  0.1587  0.3135
92125W        W35038   5.990  28.567  11.238  0.1402 -0.1207  0.0560
92126W        W35039  20.157  15.200  26.955  0.1745 -0.1466 -0.0525
92127W        W35040  12.705  20.110  24.538 -0.0700 -0.0420  0.1059
92128W        W35041  30.706  25.244  25.944 -0.0445 -0.3351 -0.3309
92129W        W35042  25.936  20.501  15.235 -0.0387 -0.3403  0.0885
92130W        W35043  25.310  17.417  26.526  0.2994 -0.2182  0.1667
92131W        W35044  24.962  23.693   0.030 -0.0715  0.0971 -0.2461
92132W        W35045  16.386  16.608  26.963 -0.1477 -0.2034 -0.0625
92133W        W35046  22.532  18.315  25.152 -0.2640 -0.1234 -0.0737
92134W        W35047  25.437  15.781  21.878 -0.2040 -0.0642  0.0616
92135W        W35048  22.649  16.456  19.968 -0.1902  0.1429  0.2070
92136W        W35049  15.693  22.228  24.047 -0.0171 -0.2511  0.1287
92137W        W35050  23.847  22.416   4.789  0.0173 -0.2473  0.0233
92138W        W35051  21.304  19.447  18.309 -0.0565 -0.1508  0.1679
92139W        W35052  20.143  24.151   3.787 -0.2728  0.1655  0.0028
92140W        W35053  28.294  16.142  23.588 -0.1699 -0.2996 -0.3239
92141W        W35054  19.138  22.506  27.035 -0.1321 -0.2945 -0.0967
92142W        W35055  21.964  15.999  26.136 -0.0126 -0.2576  0.0071
92143W        W35056  14.350  22.781  22.574 -0.0613  0.1334 -0.2213
92144W        W35057  18.460  21.823  29.703 -0.1297  0.0186  0.2289
92145W        W35058  21.946  23.417   8.229  0.1003 -0.2440  0.0424
92146W        W35059  18.840  31.210   5.715  0.0362  0.3454  0.0133
92147W        W35060  15.371  16.922   8.093  0.1978  0.0367  0.1545
92148W        W35061   9.337  18.232  27.765  0.1879  0.0077 -0.0670
92149W        W35062  26.269  23.865  27.048  0.4624  0.0281  0.3247
92150W        W35063  23.596  20.062  21.367  0.0531 -0.3302 -0.0025
92151W        W35064  27.303  26.239  25.956 -0.1668 -0.1876  0.0936
92152W        W35065  28.047  16.000   0.560  0.1661  0.2677  0.1778
92153W        W35066   1.843  21.596  29.503  0.2367  0.0440  0.4502
92154W        W35067  26.839  20.432  19.580 -0.0136  0.1690  0.0417
92155W        W35068  20.424  16.621  20.864  0.1869  0.3603 -0.1325
92156W        W35069  24.890  19.467  26.596 -0.0414  0.2308 -0.2516
92157W        W35070  18.832  25.860  29.416  0.0716 -0.0474 -0.4272
92158W        W35071  19.955  18.558  26.940  0.2723  0.0529  0.0136
92159W        W35072  27.018  26.947   7.762 -0.0789  0.0328 -0.0230
92160W        W35073  24.377  27.341  25.354  0.2370  0.4029 -0.1093
92161W        W35074   1.706  26.212  18.889 -0.3178  0.2029 -0.0263
92162W        W35075  31.831  27.055  26.486  0.2033  0.0357  0.2989
92163W        W35076  25.719  21.779  26.348 -0.1341 -0.3536 -0.0647
92164W        W35077  20.576  22.535   4.657 -0.1491 -0.1072  0.0851
92165W        W35078  32.789  18.939  18.820 -0.0909 -0.3501 -0.0742
92166W        W35079  28.929  15.180  22.491 -0.1979  0.0487  0.0860
92167W        W35080  17.232  12.557   1.265 -0.0941  0.1146  0.3637
92168W        W35081  31.184   7.445  27.332 -0.1294  0.2023  0.4428
92169W        W35082  27.351  20.452  23.364 -0.1195  0.2479  0.0060
92170W        W35083  34.193  14.180  19.052 -0.2873 -0.2808  0.1064
92171W        W35084  21.829  25.967  14.031 -0.0488 -0.2649  0.1761
92172W        W35085  12.120  28.613  26.393  0.2943 -0.0301 -0.0219
92173W        W35086  22.371  18.434  22.377  0.1423  0.2141 -0.2195
92174W        W35087  20.502  14.543  29.419 -0.1342 -0.0045  0.1112
92175W        W35088  20.210  24.636   7.586 -0.1099 -0.1100  0.2722
92176W        W35089  18.393  10.643  20.089  0.0137 -0.1351 -0.0589
92177W        W35090  13.064   8.942   2.678 -0.4618  0.2292  0.3670
92178W        W35091  27.954   3.659   7.105  0.0842  0.5175 -0.0349
92179W        W35092  21.740  23.491  23.331 -0.0887 -0.3911 -0.0315
92180W        W35093  21.066  19.074  23.987  0.0180  0.0344  0.1331
92181W        W35094  19.896  19.607  22.187  0.0073 -0.1145  0.3916
92182W        W35095  19.018  10.666  18.293  0.3064  0.0330  0.0444
92183W        W35096  21.473   8.772   2.529  0.0417 -0.0805  0.0379
92184W        W35097  28.248  18.667  12.997  0.1229 -0.2631 -0.1064
92185W        W35098  15.349  28.042   3.756  0.0572  0.0208 -0.1181
92186W        W35099   8.164  20.713  27.684  0.1384 -0.1637  0.1916
92187W        W35100  19.711  13.781   0.743 -0.3044  0.1615  0.0682
92188W        W35101  14.546  18.802  12.977 -0.1095  0.1030  0.0117
92189W        W35102  16.471  23.947  25.978  0.0716  0.1411  0.0731
92190W        W35103  29.126  25.591  27.565  0.5199  0.2360  0.0226
92191W        W35104  13.846  26.117   4.015  0.0208 -0.0668  0.1704
92192W        W35105   6.372  19.764  26.527  0.1505  0.0915 -0.1160
92193W        W35106  21.590  18.255   1.717 -0.2313  0.0365 -0.4088
92194W        W35107  29.194  27.252   8.408  0.0232  0.2573 -0.3365
92195W        W35108  28.374  25.621   1.656  0.0997 -0.0323  0.0993
92196W        W35109  14.532  18.735   3.131 -0.0299  0.1955  0.0803
92197W        W35110  20.762  22.387  22.806 -0.3011  0.0117  0.2117
92198W        W35111  17.815  24.325   3.499 -0.2357  0.0776 -0.0553
92199W        W35112  31.442  16.431  29.371 -0.0995 -0.1281  0.0558
92200W        W35113  28.613  23.915  29.671  0.1967  0.1918 -0.0983
92201W        W35114  23.077  19.394  20.317 -0.0609  0.1571 -0.0341
92202W        W35115  21.660  21.276   3.047 -0.0182 -0.1221  0.1361
92203W        W35116  25.956  10.262  26.749  0.0788  0.3037 -0.1782
92204W        W35117  20.688  31.911   4.258 -0.4242 -0.1336 -0.1635
92205W        W35118   4.990  15.888  23.910 -0.1264  0.0604  0.1566
92206W        W35119  18.791  17.361  22.609  0.4129  0.2374 -0.2220
92207W        W35120  13.908  22.684  22.808  0.3106 -0.2382 -0.1366
92208W        W35121  23.058  20.061   4.246  0.0261 -0.1244 -0.0444
92209W        W35122  12.507  20.643  20.876 -0.0796  0.0057 -0.0921
92210W        W35123  22.099  23.273   3.654  0.1947  0.0951  0.2177
92211W        W35124  24.163  29.911  22.824  0.0003 -0.1257 -0.3707
92212W        W35125  29.488  22.748   7.713  0.2753  0.0736  0.0087
92213W        W35126  20.469  28.640  19.260  0.0117  0.2048 -0.0264
92214W        W35127   7.547  23.750  14.870  0.2094  0.0001  0.0915
92215W        W35128  20.411  30.041  23.008  0.1728 -0.0806  0.0293
92216W        W35129  17.893  19.704   4.873  0.1918  0.1956 -0.1071
92217W        W35130  14.409  19.958  21.917 -0.0308 -0.1123 -0.6521
92218W        W35131  23.585   8.244   6.999  0.1781  0.1405 -0.4783
92219W        W35132  15.888  18.781   6.652 -0.1941  0.0363 -0.3987
92220W        W35133  20.540  32.832   6.617 -0.0827 -0.2688  0.1585
92221W        W35134  21.081  17.394  25.278  0.3297  0.0115  0.0964
92222W        W35135  18.624  29.843   4.167  0.0162 -0.2422  0.0897
92223W        W35136  15.355   0.616  16.765 -0.0202  0.2679 -0.2169
92224W        W35137  24.607  26.156  16.107  0.2684  0.1165 -0.2908
92225W        W35138  24.512  13.299  27.247 -0.0414 -0.2502  0.0693
92226W        W35139  26.144  29.652  18.198  0.3043  0.1238  0.2279
92227W        W35140  14.915  19.480  26.883 -0.4163 -0.0816 -0.0228
92228W        W35141  21.593  17.189  23.959  0.3534  0.1214 -0.1739
92229W        W35142  21.049  19.138  19.440  0.1996 -0.3227 -0.1132
92230W        W35143  12.359  24.603   7.874  0.0415  0.0783  0.3411
92231W        W35144  15.701  17.222  24.897 -0.1038 -0.1388 -0.1135
92232W        W35145  10.227  22.246  22.126  0.2231 -0.2078 -0.0704
92233W        W35146  21.243  28.000  24.243 -0.1565  0.0184 -0.1160
92234W        W35147  22.247   0.256  16.486  0.0381 -0.0767  0.1011
92235W        W35148  17.805  17.200   2.505  0.0983  0.0642  0.1984
92236W        W35149  22.431  13.085  26.489 -0.0530  0.0098 -0.3233
92237W        W35150  16.535  11.906   1.251 -0.0182  0.1592  0.0116
92238W        W35151  15.841  19.756  22.500  0.2290  0.1607 -0.0252
92239W        W35152  29.038  23.046  27.101 -0.0786  0.0679  0.2162
92240W        W35153  30.059  24.361   1.063 -0.1616  0.0245  0.4846
92241W        W35154  18.683  19.653  20.201  0.0380  0.2332 -0.2609
92242W        W35155  23.308  16.231  26.773 -0.1269  0.2436 -0.1158
92243W        W35156  10.957  25.191  20.553 -0.0511 -0.1321  0.0102
92244W        W35157  18.483  22.800  27.505 -0.0634  0.0785 -0.0017
92245W        W35158  17.159  24.173  22.752 -0.4051 -0.1358  0.0373
92246W        W35159  16.229  21.313   1.818 -0.1485  0.0858  0.1246
92247W        W35160   8.857  27.729  22.936  0.1591  0.1556 -0.3346
92248W        W35161  26.846  25.168   3.971  0.2285  0.0958  0.1711
92249W        W35162  24.245  18.166  27.620 -0.0334  0.0386  0.3476
92250W        W35163  15.935  15.972  24.372 -0.0373 -0.0889 -0.1203
92251W        W35164  12.541  13.485   3.796 -0.1077 -0.2982  0.0272
92252W        W35165  15.365  21.778  22.611 -0.0179  0.0606  0.2718
92253W        W35166  16.023  20.157  26.860 -0.1348  0.4579  0.0175
92254W        W35167  16.125  23.326  19.606 -0.1707 -0.1423 -0.1478
92255W        W35168  24.200  26.040  15.812  0.0893 -0.1663 -0.1347
92256W        W35169  23.665  16.375  26.194  0.1373 -0.1746  0.1960
92257W        W35170  20.350  15.305  28.986 -0.2318 -0.1461  0.0403
92258W        W35171  10.252  14.956   3.769 -0.0216 -0.0322 -0.1436
92259W        W35172  17.433  27.929  29.269 -0.2008  0.0649  0.2302
92260W        W35173  17.559  27.577  27.920  0.0611  0.3647 -0.0658
92261W        W35174  27.325   8.163   6.021  0.1857  0.0050 -0.0931
92262W        W35175  23.927  22.841  18.483 -0.2201  0.0709 -0.0477
92263W        W35176  16.821  20.193  25.591 -0.1297  0.0813  0.1590
92264W        W35177  22.300   9.040  25.866 -0.1148  0.0493  0.1419
92265W        W35178  18.237  21.925  28.009 -0.2964  0.2838 -0.0459
92266W        W35179  16.245  10.774  21.999  0.1597 -0.0332  0.1179
92267W        W35180  24.929  23.408  24.634  0.1484  0.0708  0.0384
92268W        W35181  18.122  10.562  28.045  0.0973 -0.3552  0.0134
92269W        W35182  22.401  21.180  24.329 -0.2149 -0.0528  0.2140
92270W        W35183  26.221   1.761   8.371  0.1531 -0.0296 -0.2515
92271W        W35184   7.986   7.924  18.210 -0.1611 -0.0087 -0.1127
92272W        W35185  31.402  28.083  29.561  0.1603 -0.0099  0.4787
92273W        W35186  22.638  24.327  22.623 -0.0030 -0.2453 -0.1188
92274W        W35187  28.754  28.491  22.277  0.0328 -0.0062  0.1066
92275W        W35188  18.826   5.550  24.929  0.0156  0.0866  0.0232
92276W        W35189  17.140  18.185  24.897 -0.3200  0.0501  0.0586
92277W        W35190  15.475  17.779  14.022  0.1987  0.0146 -0.2628
92278W        W35191  23.783  26.350  22.081 -0.1384 -0.2086 -0.2178
92279W        W35192  24.492  18.327   8.199 -0.4972 -0.1436  0.1898
92280W        W35193  23.799   5.781  27.149 -0.4105 -0.0292 -0.3103
92281W        W35194  24.276  17.911   6.400  0.0138  0.1893  0.1667
92282W        W35195  18.639  21.648  29.123 -0.4051 -0.0393 -0.0018
92283W        W35196  12.549  27.300  15.731 -0.3339  0.0665 -0.1828
92284W        W35197  17.780  27.422  17.185  0.1410  0.2851 -0.1049
92285W        W35198  21.236  22.767  27.577 -0.0782 -0.0982 -0.0746
92286W        W35199  25.104  19.396  25.781  0.1442  0.0728 -0.1872
92287W        W35200  28.208  30.411  23.133  0.2237  0.1085 -0.1898
92288W        W35201  27.908  28.288  28.522  0.0177 -0.2088 -0.3621
92289W        W35202  19.208  25.202  24.094  0.1143 -0.1398 -0.1563
92290W        W35203  31.952  18.869   0.955 -0.1284  0.0199 -0.3702
92291W        W35204  16.765  27.709   1.833  0.0952 -0.0793 -0.0417
92292W        W35205  18.601  21.472  25.143 -0.0612  0.1373  0.0097
92293W        W35206  23.752  28.605   1.623 -0.1605 -0.0415  0.0825
92294W        W35207  28.041  23.202  29.685 -0.3246 -0.1038  0.1483
92295W        W35208  18.675  24.950  21.834  0.2033 -0.1848  0.0708
92296W        W35209  22.447  26.140   0.857  0.2497  0.0404  0.2086
92297W        W35210  20.246  13.821  18.507 -0.1331  0.0305  0.3498
92298W        W35211  12.735  15.650  28.697  0.2528 -0.3402  0.1146
92299W        W35212  24.906  27.546   4.915  0.1611 -0.0190 -0.0765
92300W        W35213  21.263  18.431  29.501 -0.1925 -0.1827 -0.0224
92301W        W35214  16.498  14.766  24.231  0.3509 -0.1360 -0.2786
92302W        W35215  14.489  30.303   1.921  0.1463 -0.1816 -0.2897
92303W        W35216  14.948  15.116   3.439 -0.2165 -0.0235  0.3194
92304W        W35217  29.046  20.047  25.597 -0.1554 -0.0835 -0.0916
92305W        W35218   7.287  21.561  24.186  0.0104 -0.2578  0.1547
92306W        W35219  26.657  22.863  28.053  0.0656  0.0832 -0.0062
92307W        W35220  25.042  20.422  23.874  0.1966  0.1966 -0.1274
92308W        W35221  10.238  20.068  27.901  0.0884 -0.1265  0.0528
92309W        W35222  19.660  18.668  25.729  0.0021  0.1731 -0.1662
92310W        W35223  32.072  28.159  23.536  0.0266  0.0621  0.0229
92311W        W35224  30.362  24.137  19.608  0.0356  0.0239  0.3548
92312W        W35225  19.526  31.900   2.432 -0.0619  0.1636 -0.1392
92313W        W35226  21.670  22.668  18.282  0.0015  0.1284 -0.0764
92314W        W35227  28.374  19.623  19.991  0.1249 -0.1351  0.2979
92315W        W35228  22.564  15.646   0.089 -0.1376  0.3331  0.3686
92316W        W35229  20.416  31.937  27.848 -0.4505 -0.0655 -0.4759
92317W        W35230  29.054   4.382  29.670 -0.2632 -0.0214 -0.1343
92318W        W35231  31.062  25.407  27.633  0.1369 -0.0285 -0.0574
92319W        W35232  19.962  11.788  17.641  0.3649  0.1848  0.2583
92320W        W35233  25.388  21.266   1.410  0.0554 -0.2538 -0.2083
92321W        W35234  14.012  32.564  25.733 -0.0901  0.0796 -0.0512
92322W        W35235  17.300  16.711   7.008  0.4919  0.2650 -0.1978
92323W        W35236   9.717  27.590  28.661 -0.0373  0.1154  0.0690
92324W        W35237  23.650  18.295  17.489 -0.4707 -0.0456  0.1163
92325W        W35238  15.952  22.950   7.495  0.2650  0.1013  0.3176
92326W        W35239  29.229  18.369   4.615 -0.0872 -0.3215  0.1195
92327W        W35240  18.134  24.614  25.250 -0.1270 -0.1537  0.0152
92328W        W35241  19.278  23.015  24.953 -0.0086  0.2530  0.1071
92329W        W35242  20.237  12.749  17.642  0.0940  0.1620 -0.1127
92330W        W35243  24.998  23.532   7.482  0.2188  0.0885 -0.0661
92331W        W35244  17.093  13.311  20.865  0.0351 -0.0252 -0.1847
92332W        W35245  17.426  22.009   8.025  0.1783 -0.0327 -0.0579
92333W        W35246  19.703  12.768  18.896  0.0400  0.1663 -0.0189
92334W        W35247  25.171  20.572   3.976  0.1559 -0.2286  0.2859
92335W        W35248  15.197  25.602   0.500  0.2357  0.0872 -0.1397
92336W        W35249  15.612  11.555  22.759  0.0803  0.1996  0.1587
92337W        W35250  18.579  25.848  19.338  0.2095  0.1468 -0.3296
92338W        W35251  27.343  27.215  22.994  0.0899 -0.1746  0.1994
92339W        W35252  13.572  23.662  28.132  0.0209 -0.2506 -0.0367
92340W        W35253  20.662  12.643  19.062  0.0909  0.0784 -0.0001
92341W        W35254  23.828  24.774  26.733 -0.0918 -0.2735 -0.1928
92342W        W35255  29.784   3.616   0.510  0.1639 -0.0209 -0.0631
92343W        W35256  15.560  19.896  22.918  0.0352  0.2958 -0.2725
92344W        W35257  22.181   8.815  28.217 -0.2822 -0.0675  0.0503
92345W        W35258  16.123  26.763  26.718 -0.0100  0.1138  0.0442
92346W        W35259   9.724   1.028  25.153  0.0167  0.1240  0.2402
92347W        W35260  29.966  16.578  16.087 -0.0545  0.0572 -0.1484
92348W        W35261  18.718  27.173  27.645  0.2683 -0.0018 -0.0164
92349W        W35262  11.928  23.123  21.287  0.3333 -0.2067  0.1107
92350W        W35263  12.863  17.717  20.559  0.1885 -0.0493  0.1311
92351W        W35264  29.417  16.805  24.564 -0.1712 -0.0693 -0.0301
92352W        W35265  14.620  19.532  23.427  0.0116  0.3792 -0.1309
92353W        W35266  30.983  12.927  22.694 -0.3682 -0.1613  0.2185
92354W        W35267  29.368  26.678  14.607  0.2710  0.0155  0.1679
92355W        W35268  14.658  20.247   1.761  0.1474  0.1657  0.0987
92356W        W35269  18.253  33.334  14.464 -0.2218  0.1335  0.0429
92357W        W35270  14.649  15.518   5.156 -0.1253 -0.0905  0.1616
92358W        W35271  12.167  29.895  21.726 -0.3962  0.0465 -0.0143
92359W        W35272  13.457  23.284  29.684  0.1524  0.2039 -0.0621
92360W        W35273  23.158  23.057   5.978 -0.1792 -0.2137  0.0746
92361W        W35274  21.377   7.296  21.048 -0.0816  0.0222 -0.1121
92362W        W35275  20.861  15.987  28.157  0.0675 -0.1036  0.0990
92363W        W35276  24.389  12.606  20.217  0.1859  0.1563  0.1382
92364W        W35277  20.071  30.483  27.352 -0.0196 -0.2355 -0.0940
92365W        W35278  18.170  22.763  26.082  0.0342  0.2605  0.1538
92366W        W35279   5.710  19.404  22.248 -0.2270  0.0642  0.4923
92367W        W35280  21.611  21.877  21.392 -0.0745  0.0321  0.1128
92368W        W35281  16.183  18.101   6.712 -0.1374 -0.0280  0.0337
92369W        W35282  22.570  16.086  17.206  0.1414  0.0697  0.0906
92370W        W35283  19.007  23.741  20.821  0.0459 -0.0320 -0.3269
92371W        W35284  13.131  19.759  29.524 -0.1668 -0.1234 -0.1393
92372W        W35285  23.378  16.004  23.313  0.1403  0.2477  0.1522
92373W        W35286  18.553  16.943  24.898 -0.2066 -0.1414  0.3806
92374W        W35287  25.951   5.702  23.653 -0.2282  0.1502  0.0819
92375W        W35288  28.073  32.627   7.763  0.3167 -0.2499  0.1294
92376W        W35289  25.591  24.445  24.834 -0.2524 -0.0869 -0.1110
92377W        W35290  23.408  18.170  21.065  0.1441 -0.0566 -0.0326
92378W        W35291  20.098  27.439  26.240 -0.0155 -0.2779 -0.0992
92379W        W35292  29.105  12.576   1.484 -0.1300  0.0595  0.0929
92380W        W35293  21.960  16.624  22.528 -0.0757 -0.0849  0.2744
92381W        W35294  20.629   9.522  22.555  0.0379  0.0060 -0.1393
92382W        W35295  18.594  26.951  20.695  0.0945 -0.1808 -0.1453
92383W        W35296  32.112  15.853  25.193 -0.2653 -0.4019 -0.0604
92384W        W35297  14.936  29.555   0.099  0.1913 -0.0309 -0.1358
92385W        W35298  25.769  25.870   1.364  0.0137  0.1912 -0.4135
92386W        W35299  31.367  21.044  15.334  0.1716  0.0156  0.1561
92387W        W35300  13.557  22.047  18.841 -0.1640 -0.3832  0.3187
92388W        W35301  18.251  13.092  25.844  0.1890  0.3847 -0.2671
92389W        W35302  19.587  21.229   0.309 -0.0456 -0.1580 -0.2443
92390W        W35303  24.497   7.765   4.678 -0.2880 -0.3959  0.0964
92391W        W35304  26.750  26.975  21.080  0.4350 -0.0008 -0.0248
92392W        W35305  23.882  21.385  29.780 -0.4759  0.0103  0.0873
92393W        W35306  32.071  12.793  27.133  0.0462 -0.0912  0.1802
92394W        W35307  19.905  17.226   2.319  0.1512 -0.0630  0.3585
92395W        W35308  32.582   3.859   5.393  0.1741 -0.1912  0.0375
92396W        W35309  13.786  21.308  22.857 -0.1031  0.1506 -0.1766
92397W        W35310  20.801  22.877   3.602 -0.0212 -0.2439  0.1951
92398W        W35311  18.538  22.158  22.250  0.0529  0.1154 -0.1803
92399W        W35312  32.259  21.473  24.210  0.3419 -0.1871  0.1622
92400W        W35313  26.227  18.428  25.582 -0.6202 -0.0089  0.1499
92401W        W35314  23.414  13.850  19.035 -0.2199 -0.1946  0.0966
92402W        W35315  13.378  25.858  22.001  0.1229  0.1875 -0.0331
92403W        W35316  18.760  26.953  26.449  0.2029 -0.0931 -0.0624
92404W        W35317  27.187   8.423  22.122  0.2053 -0.1677 -0.3954
92405W        W35318  21.401  23.233  21.630 -0.1713  0.0693  0.0766
92406W        W35319  19.192  27.350  23.796  0.0931  0.0218 -0.2506
92407W        W35320  28.239  16.188   6.530  0.1066  0.2857 -0.2415
92408W        W35321  22.473  10.693   8.927  0.0201  0.3667  0.0875
92409W        W35322  23.267  16.637   0.218  0.1858 -0.0040 -0.1157
92410W        W35323  22.021  17.745  17.628 -0.2091 -0.4034  0.0487
92411W        W35324  27.117   2.201  29.005 -0.1487 -0.0194 -0.1843
92412W        W35325  19.547  20.426  19.730 -0.1415  0.1187 -0.0163
92413W        W35326  10.299  29.125   4.696 -0.0047 -0.1660  0.0088
92414W        W35327  17.646  24.042  22.655 -0.0302 -0.1566 -0.2978
92415W        W35328  22.471  15.160  26.113  0.0450 -0.0256  0.0587
92416W        W35329  31.017  22.672   6.637 -0.1191 -0.0004  0.1651
92417W        W35330  23.841  12.906   2.644 -0.0494 -0.1031  0.2311
92418W        W35331  16.964  12.372  15.889  0.1320  0.0173  0.2526
92419W        W35332  22.346  21.010  25.894  0.1934  0.1475 -0.1541
92420W        W35333  20.642  22.290  25.100 -0.1739  0.1303  0.1329
92421W        W35334  19.126   2.729  24.957 -0.1052 -0.0522 -0.3251
92422W        W35335  33.269  12.026  29.665 -0.2033 -0.0558  0.0739
92423W        W35336  17.964  21.668   6.700 -0.0701  0.3267 -0.1173
92424W        W35337  17.905  17.878  20.549 -0.1953 -0.0690  0.0282
92425W        W35338  28.618  26.633  20.522  0.4092  0.1756 -0.4083
92426W        W35339  27.819  16.308   6.230  0.1820 -0.1368 -0.0984
92427W        W35340  25.247  22.463  26.135  0.0285 -0.5555 -0.0883
92428W        W35341  15.505  29.541  27.127 -0.0475  0.3324  0.2134
92429W        W35342  15.144  25.861   4.265  0.1655  0.1426 -0.0783
92430W        W35343  15.322  11.247   6.332  0.0322  0.0299  0.0837
92431W        W35344  28.864  15.475  20.239  0.0164 -0.3373  0.0448
92432W        W35345  23.044  20.709  29.340 -0.0896 -0.0407  0.1716
92433W        W35346  21.807  17.721   4.554 -0.1029 -0.1111  0.2764
92434W        W35347  29.516  27.617   4.709 -0.0043 -0.0086 -0.2219
92435W        W35348  17.814  22.536   0.825  0.0576  0.0481  0.0659
92436W        W35349  20.419  16.703   8.133 -0.3164 -0.1221 -0.0245
92437W        W35350  19.170  20.570   5.085 -0.2704  0.2378  0.3089
92438W        W35351  13.128  33.211   7.186 -0.2787  0.0950  0.3005
92439W        W35352  11.180  26.466   8.140 -0.1448 -0.2970 -0.4807
92440W        W35353  28.890  20.452   0.764  0.0533  0.0229 -0.3612
92441W        W35354  29.393  11.070  22.224 -0.1490  0.3375 -0.1478
92442W        W35355  15.930  29.990  25.386 -0.0463 -0.1762  0.1397
92443W        W35356  30.557  19.776  22.329  0.1680 -0.0105  0.1730
92444W        W35357  16.432  27.249  19.645 -0.2431 -0.0978  0.0779
92445W        W35358  25.480  30.304   1.762 -0.0636  0.0868 -0.2896
92446W        W35359  12.096  10.876  29.727 -0.3744 -0.3521  0.0176
92447W        W35360  23.795  22.843  24.903  0.1648 -0.2313  0.2287
92448W        W35361  28.817  22.024   1.081 -0.1197 -0.2360  0.5643
92449W        W35362  23.085  21.495   0.824  0.1549  0.1714 -0.1782
92450W        W35363  23.710  15.792  24.153 -0.2297  0.0043 -0.2430
92451W        W35364  22.471  15.868  25.897 -0.0845  0.1955  0.0291
92452W        W35365  14.861  25.240   3.905 -0.1457  0.2770  0.2659
92453W        W35366  22.945  16.080  28.577 -0.0996 -0.2288 -0.2375
92454W        W35367  22.900  25.647  26.533  0.1812  0.1460 -0.2572
92455W        W35368  22.567  17.477   2.577 -0.0952 -0.2199 -0.1049
92456W        W35369   0.335  10.909  29.742 -0.1258 -0.0218 -0.3351
92457W        W35370  17.518  26.889  17.418  0.3910  0.1042 -0.2616
92458W        W35371  24.607  30.216  21.571  0.1612  0.0768  0.1883
92459W        W35372  13.850  16.930  29.437  0.0341 -0.1673 -0.1239
92460W        W35373  16.885  11.202   6.565  0.2536 -0.3874  0.0179
92461W        W35374  22.423  17.188   1.204  0.0743 -0.2108 -0.0885
92462W        W35375  30.473  21.878   2.752 -0.2506 -0.1350  0.4085
92463W        W35376  22.543  24.998  26.099 -0.0211 -0.1206 -0.0763
92464W        W35377  21.053  22.082   1.765  0.3975 -0.4159 -0.1952
92465W        W35378  25.045  16.972  23.627  0.0203 -0.4311  0.1337
92466W        W35379  22.529  22.416  24.242 -0.3830  0.0535 -0.1412
92467W        W35380  26.482  22.316   7.783  0.1940 -0.1005 -0.0908
92468W        W35381  12.340  23.501   0.176 -0.3848  0.1134 -0.0887
92469W        W35382  22.047  21.191   4.847  0.2469  0.3986 -0.0014
92470W        W35383  15.635  15.859  28.081  0.1477  0.1687  0.0636
92471W        W35384  31.405  16.331   6.675 -0.2288 -0.0931  0.0316
92472W        W35385  16.819   0.091  17.866 -0.0023 -0.1227  0.1880
92473W        W35386  26.872  20.717  29.539  0.0950 -0.3831 -0.2272
92474W        W35387  22.321   8.085  25.695 -0.0036  0.2591  0.2366
92475W        W35388  23.581  17.627  21.881 -0.0077 -0.2949  0.3147
92476W        W35389  14.326  13.125  19.545  0.0850 -0.0749  0.0286
92477W        W35390  25.211  26.159  18.993 -0.0559  0.3761  0.0978
92478W        W35391  19.501  17.672  22.542 -0.0064  0.0386  0.4307
92479W        W35392  18.295  16.752   1.898  0.1414 -0.2475  0.2645
92480W        W35393  17.925  15.532  26.712  0.2066  0.0526  0.3682
92481W        W35394   7.169  29.960   3.580  0.1446  0.1657  0.0842
92482W        W35395  21.321  17.490  24.840 -0.1241  0.2182 -0.1746
92483W        W35396  27.269  19.648  18.436  0.2885  0.4008  0.0313
92484W        W35397  17.969  20.099   1.859  0.2434  0.1634 -0.1478
92485W        W35398  22.377  19.836   7.760 -0.1280 -0.0556  0.1810
92486W        W35399  24.246  21.160  20.025 -0.3169 -0.3632  0.1576
92487W        W35400  17.323  22.953   6.337 -0.2930 -0.0921  0.1797
92488W        W35401  23.958  25.224  28.100 -0.1042 -0.0373  0.1910
92489W        W35402   5.018  22.617  29.234  0.1270  0.1351  0.1312
92490W        W35403   8.781  21.607  25.140  0.0968  0.3044  0.1109
92491W        W35404  23.902  22.195   1.953  0.0426  0.1696  0.0929
92492W        W35405  25.377  23.014  27.001 -0.0218 -0.1094 -0.2496
92493W        W35406  22.964   0.390  24.796 -0.0307  0.2356 -0.3664
92494W        W35407  19.416  24.084   0.242 -0.2503 -0.0313  0.1666
92495W        W35408  17.847  19.659   3.157 -0.0364 -0.3452  0.0447
92496W        W35409  15.741  17.673   3.082 -0.1986  0.1097 -0.0082
92497W        W35410  17.564  26.237  28.722  0.2047 -0.1556 -0.2229
92498W        W35411  12.722  16.998  28.472 -0.0754 -0.0210 -0.0080
92499W        W35412  20.559  17.573   6.656 -0.3754 -0.2085  0.0695
92500W        W35413  12.150   8.476   0.435  0.4175 -0.0081  0.0971
92501W        W35414  18.988  12.254  22.629 -0.3676  0.2078 -0.0094
92502W        W35415  21.966  18.576  20.275  0.1299 -0.1632  0.1831
92503W        W35416  25.193  19.124  26.848 -0.1933 -0.2483 -0.1114
92504W        W35417   5.470  22.937  23.322  0.3507  0.0765 -0.3022
92505W        W35418  24.998  27.517   7.372 -0.2794  0.1560  0.1172
92506W        W35419  16.728  27.944  28.652 -0.1346  0.1696  0.0508
92507W        W35420  19.811  17.717  21.656  0.2616  0.0260  0.0624
92508W        W35421  17.235  18.842   0.078 -0.1292 -0.4765  0.0459
92509W        W35422  16.173  19.721   4.142  0.0926 -0.1121  0.0222
92510W        W35423  25.088  24.951  23.711  0.0458  0.2648 -0.1030
92511W        W35424  20.184  17.953   1.985  0.1583 -0.0378 -0.1021
92512W        W35425  11.039  11.014  26.729  0.0871 -0.0510  0.0260
92513W        W35426  22.357  29.578  26.006 -0.1743 -0.1788 -0.0167
92514W        W35427  22.211  27.415   3.751 -0.3246 -0.0265  0.0218
92515W        W35428   7.567  26.582   4.990 -0.0527  0.2111  0.0976
92516W        W35429  17.466  17.677   1.212  0.1264 -0.0456  0.3128
92517W        W35430  21.295  21.281  23.616 -0.1953  0.0045 -0.1715
92518W        W35431  19.803  23.742  27.877  0.0653  0.0996 -0.0488
92519W        W35432  29.936  15.127  25.194  0.1973 -0.1182 -0.0965
92520W        W35433  24.452  13.875  26.076 -0.1358 -0.3385  0.0039
92521W        W35434  16.479  33.648   4.790 -0.0729 -0.1990  0.1289
92522W        W35435  26.500  25.544   7.540 -0.0205  0.0097  0.1323
92523W        W35436  27.888  17.431  22.643  0.2825  0.1018  0.1720
92524W        W35437  22.328  19.056  20.926  0.0772  0.0077 -0.0341
92525W        W35438  14.827  19.097  27.715 -0.1607 -0.1305  0.0353
92526W        W35439  21.032  22.242  24.684  0.0617 -0.1092 -0.0265
92527W        W35440  23.772  19.596  23.917 -0.0369  0.0965  0.1386
92528W        W35441  24.087  25.820  19.181 -0.2008  0.0132 -0.4883
92529W        W35442  24.791  15.582   6.702  0.4484 -0.2248 -0.2129
92530W        W35443  23.961  22.383  29.738  0.0236 -0.0976 -0.0354
92531W        W35444  20.835  23.160   2.684 -0.2317  0.2989 -0.1717
92532W        W35445   1.780  20.764   2.465 -0.1823 -0.4345 -0.1106
92533W        W35446  24.408   8.709  29.138  0.1834 -0.2412 -0.0884
92534W        W35447  15.154  24.214  20.329 -0.3877 -0.3544  0.0047
92535W        W35448  17.410  16.276   3.490 -0.2978 -0.1198  0.1202
92536W        W35449   2.978  19.766   2.251 -0.0248 -0.2320  0.0044
92537W        W35450  14.920  14.356   4.419  0.0623  0.1211  0.3926
92538W        W35451  16.491  18.660   5.980 -0.2457  0.4446 -0.2558
92539W        W35452  12.990  25.241  20.393  0.0217  0.1356 -0.0101
92540W        W35453  15.185  29.956  18.633  0.0935  0.0611 -0.1043
92541W        W35454   5.893  24.051   4.320  0.3469  0.0744  0.2580
92542W        W35455  22.661  14.860   4.597 -0.0447 -0.0138  0.0486
92543W        W35456  22.164  17.068  26.458  0.0763  0.1971 -0.1104
92544W        W35457  19.281  12.487  27.305 -0.1988  0.0342  0.2019
92545W        W35458  22.534  21.587  21.567  0.2614 -0.1091  0.1667
92546W        W35459  19.945  27.765  16.273 -0.2026 -0.1541 -0.1192
92547W        W35460  27.202  23.848  18.456 -0.1368  0.2874  0.1948
92548W        W35461  12.993  15.596  12.037  0.0591  0.0091  0.0603
92549W        W35462  11.723  31.068  19.110 -0.1399 -0.1799  0.1143
92550W        W35463  22.730  18.106  18.210  0.1179 -0.0595  0.2710
92551W        W35464  21.879  25.847  13.554 -0.1183  0.2253  0.1310
92552W        W35465  25.783  17.722  19.835  0.0110  0.0160  0.0661
92553W        W35466  19.718  31.652  22.933  0.3012 -0.1507 -0.2990
92554W        W35467  20.037  29.097  19.104 -0.0260  0.0495  0.4466
92555W        W35468  30.419  22.698  17.868  0.1046  0.0249 -0.2083
92556W        W35469  15.042  19.901  15.756 -0.1655 -0.0107 -0.0184
92557W        W35470  14.475  22.244  14.134  0.1054 -0.0340  0.0936
92558W        W35471  19.670  22.759  25.069 -0.0939  0.0720  0.4291
92559W        W35472  26.028  13.935  17.370  0.0485 -0.1784  0.0504
92560W        W35473  25.940  24.069  14.563 -0.4043 -0.1412  0.4772
92561W        W35474  16.102  26.853  19.401 -0.1626 -0.0452 -0.1074
92562W        W35475  10.717  22.807  16.377  0.3470  0.3583  0.0104
92563W        W35476  16.571  20.102  14.782 -0.3441 -0.3667 -0.2666
92564W        W35477  29.561  15.488  18.885 -0.1299 -0.1082 -0.2566
92565W        W35478  26.208  24.732  17.483 -0.0315 -0.0833  0.1071
92566W        W35479   3.621  28.345  17.221 -0.1804  0.1570  0.0411
92567W        W35480   9.153  18.886  12.637  0.1433  0.0760 -0.3473
92568W        W35481  23.039  25.320   2.433 -0.2795  0.0228  0.2708
92569W        W35482  30.232  23.706  19.364 -0.2500  0.1279 -0.2282
92570W        W35483  13.809  18.521  17.137 -0.1455 -0.4324  0.0603
92571W        W35484  22.734  28.004  19.269  0.0976 -0.3179 -0.1386
92572W        W35485  19.428  22.529  13.766  0.3801 -0.0028 -0.0576
92573W        W35486  17.741  22.128  19.244  0.3010 -0.0823  0.3533
92574W        W35487  11.076  22.767  17.678  0.2511 -0.0736 -0.2147
92575W        W35488   9.777  24.359  19.420 -0.2748  0.0073  0.0004
92576W        W35489  10.117  23.012  28.800  0.0558  0.0994  0.1941
92577W        W35490  22.536  27.103  12.369 -0.0402 -0.4028 -0.0387
92578W        W35491  22.627  19.728  21.820 -0.0455  0.3018  0.2392
92579W        W35492  16.972  27.064  18.063 -0.1015 -0.2096 -0.2418
92580W        W35493  21.472  28.081  13.054 -0.0097 -0.0415  0.0167
92581W        W35494  15.026  14.198  14.665 -0.1000  0.0944 -0.0934
92582W        W35495  13.041  19.592  14.350  0.3248 -0.1683 -0.0930
92583W        W35496  28.592  20.676  25.147  0.2124 -0.0196  0.1713
92584W        W35497  21.400  19.008  17.193 -0.0444 -0.0836  0.2054
92585W        W35498  21.601  26.659  19.724 -0.1946 -0.0176 -0.1891
92586W        W35499  15.200  32.465  15.041 -0.1894  0.1215 -0.1576
92587W        W35500  29.015  30.990  19.054 -0.1739  0.2011 -0.0512
92588W        W35501  19.425  26.488  22.538  0.0789 -0.0258 -0.0428
92589W        W35502  18.568  24.815  20.201 -0.2449  0.0556  0.4003
92590W        W35503  22.901  13.752  15.817  0.0100  0.1008 -0.2254
92591W        W35504  19.059  24.077  13.948 -0.1662 -0.6304 -0.0196
92592W        W35505   0.567  32.452  18.170 -0.0217 -0.0401 -0.0482
92593W        W35506  22.514  34.195  16.445  0.1307  0.2528 -0.0315
92594W        W35507  31.365  18.460  16.677 -0.0937  0.1831 -0.1272
92595W        W35508  18.824  18.199  12.761 -0.1950  0.0570  0.0678
92596W        W35509   2.050  23.392  23.578 -0.3163 -0.1660 -0.0314
92597W        W35510  23.906  25.009  12.840  0.1090 -0.1835 -0.1075
92598W        W35511  12.189  32.631  22.702  0.2705  0.1392 -0.1505
92599W        W35512  26.704  22.153  29.509 -0.0394 -0.0378  0.2598
92600W        W35513  32.965  21.441  18.745  0.0803  0.1020  0.0437
92601W        W35514  20.294  28.590  18.661  0.1500  0.1194 -0.0247
92602W        W35515  25.232  24.266  14.070 -0.3613 -0.0191 -0.2035
92603W        W35516  27.625  22.985  18.838 -0.0519  0.0537 -0.0681
92604W        W35517  24.805  33.201  14.907 -0.0239 -0.0749  0.1097
92605W        W35518  23.065  11.066  19.324  0.0495  0.0562 -0.0243
92606W        W35519  19.658  19.246  16.256  0.2582  0.1065  0.1234
92607W        W35520  20.570  26.707  16.536  0.0160  0.0713  0.0852
92608W        W35521  11.295  18.398  14.271  0.0962 -0.1424  0.0642
92609W        W35522  21.374  25.781  19.927  0.3912  0.0370  0.0831
92610W        W35523  13.654  23.101  16.731  0.1199 -0.1515 -0.2053
92611W        W35524   3.457  19.699  14.160  0.3213  0.1292  0.1682
92612W        W35525  21.797  15.159  15.864 -0.3930 -0.0518  0.0486
92613W        W35526  20.116  28.303  17.519 -0.1295 -0.3336  0.1798
92614W        W35527  23.100  27.063  21.761 -0.0770 -0.0386 -0.0004
92615W        W35528  20.546   1.569  22.333 -0.1187 -0.2061 -0.2333
92616W        W35529  14.885  10.987  21.348  0.0200  0.3038  0.0262
92617W        W35530  17.322  17.554  13.192 -0.1778 -0.0727 -0.2833
92618W        W35531   8.481  22.001  15.939 -0.3852  0.0085  0.1267
92619W        W35532  31.143   8.601  18.035  0.0512 -0.1144  0.2132
92620W        W35533  11.583  17.531  19.914 -0.2154  0.0131 -0.4038
92621W        W35534  24.642  33.670  18.796  0.3165 -0.0024  0.0735
92622W        W35535  21.835  26.209  17.813  0.0449  0.1616 -0.2840
92623W        W35536  24.423  10.602  14.727 -0.1286  0.0486  0.1117
92624W        W35537  17.096  30.682  17.197  0.2185 -0.0969  0.2667
92625W        W35538  18.261  24.614  22.305 -0.2174  0.0091  0.0029
92626W        W35539  24.115  34.063  21.155 -0.3482 -0.0340 -0.1225
92627W        W35540  14.915  11.495  17.375 -0.0067 -0.0414 -0.1364
92628W        W35541   9.759  19.582  16.265 -0.0455  0.1385  0.2505
92629W        W35542  20.135  27.632  14.285  0.4857  0.4041 -0.0956
92630W        W35543  28.414  26.040  15.856  0.2907 -0.1019 -0.1298
92631W        W35544  12.374  12.871  20.261  0.0832 -0.2324  0.2536
92632W        W35545  19.632  32.067  24.736 -0.3010  0.0479 -0.2908
92633W        W35546  17.230  20.979  13.897 -0.0812 -0.0195  0.2089
92634W        W35547  17.640  31.352  17.472 -0.0829  0.3806  0.3271
92635W        W35548  23.163  25.746  25.693 -0.1067 -0.1168  0.0621
92636W        W35549  23.057  23.230  14.160 -0.0112 -0.1613  0.1982
92637W        W35550  23.892  27.468  20.789  0.0656 -0.1263 -0.1301
92638W        W35551  24.277  20.749  14.638  0.1238  0.0787 -0.2213
92639W        W35552   7.971  30.047  18.960  0.0823  0.2002 -0.3306
92640W        W35553  16.158  29.809  19.226  0.2007  0.0715 -0.3532
92641W        W35554  22.596  24.890  18.540  0.2763 -0.0765  0.2364
92642W        W35555  24.646  27.773  13.690  0.3149  0.1797  0.2260
92643W        W35556  16.946  23.403  18.208 -0.0705 -0.0599  0.0556
92644W        W35557  24.253  30.831  14.905  0.0666  0.0663  0.1433
92645W        W35558  22.873  28.907  14.424  0.1008 -0.1948  0.0797
92646W        W35559   9.166  19.989  16.675 -0.3293 -0.0092 -0.0310
92647W        W35560  11.785  24.149  26.519  0.0887  0.1481  0.1673
92648W        W35561  25.767  30.687  19.918 -0.0259 -0.1878 -0.1903
92649W        W35562  21.008  25.496  19.671 -0.0313 -0.2748 -0.3147
92650W        W35563  16.876  27.482  15.568  0.0087 -0.0697  0.4107
92651W        W35564  26.954   7.878  17.519 -0.0626  0.0631  0.0062
92652W        W35565  24.099   3.099  20.070 -0.3504 -0.2004 -0.3264
92653W        W35566   8.552  18.379  18.254  0.0193 -0.2917  0.1333
92654W        W35567  17.537  23.280  18.440 -0.0284 -0.2699  0.0909
92655W        W35568  26.720  20.488  24.222  0.1060 -0.2125  0.2776
92656W        W35569  23.323  16.171  18.635  0.1350  0.0631 -0.0359
92657W        W35570  30.843  22.726  16.611 -0.0469  0.4026 -0.2234
92658W        W35571  26.573  17.366  16.302  0.4679 -0.1064  0.1230
92659W        W35572  26.383  19.441  19.473 -0.0738  0.1481  0.2799
92660W        W35573  15.349  23.039  17.309 -0.0015 -0.2495 -0.2195
92661W        W35574  24.565  14.128  13.823  0.2545 -0.1744 -0.1238
92662W        W35575  20.799  13.593  18.666 -0.0703  0.2089 -0.1136
92663W        W35576  21.529  25.820  19.001  0.1336 -0.0150  0.1284
92664W        W35577  19.475  23.479  17.413 -0.0315  0.1604 -0.0083
92665W        W35578   2.011  25.879  19.475 -0.2773  0.2569  0.2253
92666W        W35579  25.746  19.553  13.913  0.0620 -0.2713  0.0161
92667W        W35580  27.752  19.841  18.787 -0.1841  0.3435 -0.0216
92668W        W35581  14.998  22.116  17.777 -0.0409 -0.0950  0.0840
92669W        W35582  23.370  27.064  15.788 -0.3018  0.3129 -0.0807
92670W        W35583  17.941  21.614  26.855  0.1742 -0.0439 -0.1515
92671W        W35584  28.557  12.783  23.037  0.0675  0.0034 -0.0007
92672W        W35585  17.439  23.441  14.773 -0.0445  0.1339  0.1150
92673W        W35586  24.401  23.132  15.646 -0.2423 -0.2442 -0.1132
92674W        W35587  26.425  30.911  18.709  0.0221 -0.1654 -0.0055
92675W        W35588  28.882  18.444  21.067  0.0036 -0.1905  0.0059
92676W        W35589  29.154  14.577  22.842  0.1423  0.1780 -0.2246
92677W        W35590   9.540  24.504  17.803  0.2297 -0.0734  0.0361
92678W        W35591  22.204  27.567  15.045  0.0772 -0.2839  0.2073
92679W        W35592  23.385  29.833  15.969 -0.1345  0.2268  0.0573
92680W        W35593  30.510  18.805  14.835 -0.1885 -0.1811  0.1852
92681W        W35594  18.408  34.488  26.319  0.1016 -0.1223 -0.0315
92682W        W35595  33.305  27.789  17.326 -0.0713  0.3742  0.1305
92683W        W35596  21.450  21.930  11.864 -0.0347  0.0821 -0.1381
92684W        W35597  23.239  14.793  19.933  0.3043  0.1048  0.0168
92685W        W35598  22.558  14.381  18.063 -0.1797 -0.2246  0.1332
92686W        W35599  25.235  20.557  16.301  0.0733 -0.3528 -0.1638
92687W        W35600  21.029  17.241  12.768 -0.1377  0.0788  0.0330
92688W        W35601  27.929  24.380  15.350  0.1703  0.1404 -0.1587
92689W        W35602  17.976  23.805   2.056  0.0699  0.2657  0.0689
92690W        W35603   9.492  22.007  20.758 -0.1174  0.1770 -0.2304
92691W        W35604  27.745  32.749  16.445 -0.1820 -0.2726 -0.0425
92692W        W35605  21.048  21.442  14.930  0.1135  0.0960 -0.0267
92693W        W35606  26.687  32.141  20.778  0.2392  0.1856  0.1925
92694W        W35607  33.909  22.068  26.922 -0.0581  0.0058 -0.1791
92695W        W35608  21.734  21.339  13.254 -0.2020 -0.3890 -0.0773
92696W        W35609  24.058  21.448  13.984 -0.1126  0.0368  0.1625
92697W        W35610  21.079  31.559  16.228  0.0243 -0.1991  0.0108
92698W        W35611  12.702  21.149  19.679  0.0601 -0.0120 -0.0160
92699W        W35612  32.186  27.550  27.830 -0.3956  0.1226 -0.0945
92700W        W35613  19.508  26.251  19.682  0.0394  0.2164 -0.0697
92701W        W35614  23.026  31.438  23.351  0.0449 -0.3055  0.0088
92702W        W35615  25.167  26.558  12.982  0.1430 -0.0801 -0.2134
92703W        W35616  13.321  21.866  14.028  0.1178  0.0471 -0.1468
92704W        W35617  28.100  16.392  16.426  0.0309 -0.0587 -0.2351
92705W        W35618  27.599  17.398  16.088  0.2062  0.2385  0.0292
92706W        W35619  24.332  32.464  16.312 -0.4236 -0.2991 -0.1066
92707W        W35620  23.283  26.046  17.969  0.0589  0.0292 -0.0661
92708W        W35621  28.072  18.188  13.020 -0.0809 -0.0113  0.0204
92709W        W35622  30.719  29.127  15.802 -0.1199  0.0176  0.1192
92710W        W35623  32.170  18.785  14.068 -0.1524  0.1652 -0.0349
92711W        W35624  23.660  27.842  17.703 -0.1478 -0.1805 -0.2768
92712W        W35625  28.414  23.762  19.182  0.1394  0.0644  0.2398
92713W        W35626  25.210  32.728  14.878  0.1179 -0.1383 -0.1657
92714W        W35627  25.533  18.525  14.960  0.3165  0.2659 -0.1199
92715W        W35628  25.641  12.364  17.634 -0.1063  0.0970  0.4454
92716W        W35629  24.867  24.425  20.994  0.0837 -0.1900 -0.3425
92717W        W35630  16.101  18.787  12.445  0.0077 -0.3148 -0.2089
92718W        W35631  30.139  27.467  19.214 -0.0101  0.1875 -0.1246
92719W        W35632  20.471  18.922  12.136 -0.2881 -0.1734 -0.1026
92720W        W35633  27.538  23.650  18.843 -0.0535  0.2789 -0.0572
92721W        W35634  25.125  27.964  19.255  0.1796 -0.1588 -0.5138
92722W        W35635  21.829  25.126  13.662 -0.0614 -0.0102  0.2035
92723W        W35636  22.173  16.470  18.301  0.1043 -0.0189 -0.4559
92724W        W35637  23.391  26.429  27.567 -0.1321  0.1135 -0.1506
92725W        W35638  27.927  22.435  19.204  0.0874  0.1847 -0.0444
92726W        W35639  32.787  22.715  21.634  0.0750  0.4334 -0.1219
92727W        W35640  23.449  27.379  20.178 -0.4174  0.0199  0.3799
92728W        W35641  16.607   8.183  18.478  0.0164 -0.1702  0.0348
92729W        W35642  11.967  20.455  14.812 -0.1204  0.0158  0.0321
92730W        W35643  20.353  33.652  14.028  0.0922  0.3112  0.0057
92731W        W35644  19.244  27.173  16.016  0.0166 -0.0434 -0.0337
92732W        W35645  22.075  20.645  20.212 -0.1823 -0.1868  0.3564
92733W        W35646  24.467  28.887  18.545 -0.0772  0.4699  0.0296
92734W        W35647  20.243  16.799  12.435 -0.0638 -0.0752 -0.0626
92735W        W35648  12.882  29.750  19.313 -0.0179 -0.0898  0.3504
92736W        W35649  18.507  26.298  17.921  0.0633  0.1069  0.0227
92737W        W35650  26.966  30.509  23.765  0.0066 -0.0738  0.0974
92738W        W35651  17.957  12.321  12.362  0.0473 -0.0439  0.1082
92739W        W35652  19.821  24.348  22.343 -0.0339 -0.1345  0.1750
92740W        W35653  21.417  21.656  20.651  0.0106  0.0567  0.3297
92741W        W35654  22.758  23.275  18.043 -0.1820 -0.0307 -0.1358
92742W        W35655  23.384  26.979  18.347 -0.0511 -0.1562  0.2649
92743W        W35656  22.853  20.679  14.715  0.0712  0.0464 -0.2199
92744W        W35657  22.644  15.331  12.605  0.0998 -0.0190  0.0178
92745W        W35658  24.641  34.158  14.167 -0.2622  0.1706  0.2548
92746W        W35659  24.044  23.227  17.523 -0.0241  0.0342 -0.2148
92747W        W35660  24.658  12.993  18.124 -0.0929 -0.1482  0.0349
92748W        W35661  22.180  25.414  13.460 -0.4929  0.0986  0.0454
92749W        W35662  29.343  29.018  24.984 -0.2708  0.0507  0.0691
92750W        W35663  25.343  26.573  15.725 -0.1948 -0.2896 -0.0050
92751W        W35664  10.976  31.443  17.463  0.1415 -0.0784 -0.2801
92752W        W35665  19.357  21.008  22.245  0.0846  0.2251  0.1216
92753W        W35666  15.367  24.503  13.984 -0.2223  0.0820 -0.0966
92754W        W35667   0.936  22.662  14.917 -0.2366 -0.0955  0.1338
92755W        W35668  11.090  19.073  15.598  0.0639  0.1413  0.2879
92756W        W35669  21.564  30.538  18.299  0.0557 -0.2817 -0.3215
92757W        W35670  13.342  12.143  16.680  0.1382 -0.0939  0.0460
92758W        W35671  21.695  10.355  19.273  0.1485  0.4366  0.0660
92759W        W35672  16.604  27.879  21.289 -0.2389  0.0467  0.4202
92760W        W35673  25.575  15.739  14.505 -0.0590  0.1660 -0.0725
92761W        W35674  27.899  18.783  14.738  0.0125 -0.1639  0.0283
92762W        W35675  21.586  23.710  17.311  0.0321 -0.1589 -0.0185
92763W        W35676  22.224  22.789  18.650  0.1376  0.0617  0.0431
92764W        W35677  23.414  11.578  15.639  0.2911  0.2846  0.2313
92765W        W35678  25.664  29.748  19.688 -0.2321 -0.1546  0.0077
92766W        W35679  20.819  19.100  12.466 -0.1551  0.2118 -0.0203
92767W        W35680  12.620  27.326  16.830 -0.1996  0.1623 -0.0268
92768W        W35681  29.342  16.390  19.406 -0.0791  0.1303 -0.1351
92769W        W35682  23.825  22.241  12.115  0.2628 -0.3377 -0.0436
92770W        W35683  16.450  26.168  18.803 -0.0865  0.0785 -0.1330
92771W        W35684  27.453  20.299  13.486 -0.3510  0.0706  0.2841
92772W        W35685  24.840  12.127  16.533  0.0495  0.0307 -0.5048
92773W        W35686  25.491  17.592  21.282 -0.0026 -0.1460  0.0913
92774W        W35687  10.573  31.961  22.235  0.1686  0.3137 -0.1499
92775W        W35688  27.049  33.299  22.736 -0.2146  0.0298  0.0577
92776W        W35689  23.094  18.200  14.935 -0.4169  0.0518  0.2596
92777W        W35690  23.899   8.622  17.217 -0.3098 -0.0632  0.3014
92778W        W35691  18.316  30.959  16.800 -0.2187  0.3198 -0.0922
92779W        W35692  18.104  20.827  15.211  0.3329  0.0263  0.0738
92780W        W35693  20.953  12.662  12.778 -0.1321  0.1200  0.0051
92781W        W35694  26.737  24.485  16.585  0.0346 -0.0579  0.0888
92782W        W35695   7.547  23.195  28.676  0.2047 -0.1605 -0.1243
92783W        W35696  30.338  19.393  17.026  0.1024  0.0677 -0.1896
92784W        W35697  25.146  26.491  13.825 -0.0799  0.0437  0.2670
92785W        W35698  12.890  18.975  13.841  0.0992  0.2058 -0.2360
92786W        W35699  28.820  24.140  14.003  0.0108  0.0099 -0.2441
92787W        W35700  15.863  15.215  14.268 -0.0904 -0.1934 -0.3620
92788W        W35701  15.404  12.931  16.768 -0.1102 -0.0337 -0.0365
92789W        W35702  25.568  24.746  14.034 -0.0556 -0.4431 -0.0152
92790W        W35703  12.027  21.826  17.977  0.1907 -0.1194  0.0502
92791W        W35704  27.600  22.315  16.291 -0.1895  0.2082 -0.0539
92792W        W35705  12.786  12.143  16.560  0.1714 -0.2716  0.0197
92793W        W35706  22.596  29.538  17.104 -0.2882  0.0815 -0.0172
92794W        W35707  24.238  13.180  18.477  0.0010  0.2092 -0.6766
92795W        W35708  23.154  23.699  14.364 -0.0193 -0.0878  0.0667
92796W        W35709  12.889  26.175  20.277 -0.1632  0.2061  0.0468
92797W        W35710  15.080  15.436  12.367  0.0110 -0.1954  0.1499
92798W        W35711  20.426  34.268  14.814  0.3078 -0.1697 -0.2009
92799W        W35712  21.531  17.172  13.455 -0.0584  0.3297  0.1706
92800W        W35713  29.404  27.448  16.918  0.0083  0.1969  0.2852
92801W        W35714  19.268  25.589  15.416 -0.0315  0.0037  0.1769
92802W        W35715  31.599  31.769  16.955  0.1170 -0.4482 -0.1749
92803W        W35716  21.854  10.793  14.170 -0.2007 -0.2211  0.5136
92804W        W35717  14.703  14.574  14.455 -0.1987  0.1248 -0.0514
92805W        W35718  20.436  19.110  15.376 -0.0181 -0.1563 -0.2381
92806W        W35719  34.029  34.078  17.543  0.1943  0.1447  0.0475
92807W        W35720  27.639  19.921  25.668 -0.4395  0.2952  0.1572
92808W        W35721  21.987   6.091  21.694  0.1746  0.0676 -0.0186
92809W        W35722  22.515  26.651  22.593 -0.1726  0.1828  0.1582
92810W        W35723  29.294  10.718  15.704  0.2670  0.0449  0.2604
92811W        W35724  23.538  11.646  27.697 -0.1632 -0.1009 -0.0476
92812W        W35725  15.740  28.390  22.569 -0.2764  0.0850  0.1911
92813W        W35726  23.880  15.603  16.622  0.1057  0.1586 -0.0731
92814W        W35727  24.465  16.337  16.113  0.0116  0.0539 -0.0323
92815W        W35728  24.590   3.044  13.811 -0.1257  0.3185 -0.1808
92816W        W35729   7.912  16.425  16.856 -0.0338 -0.2288  0.0783
92817W        W35730  13.962  28.525  19.827 -0.3244 -0.0707  0.2678
92818W        W35731  26.765  27.668  13.695 -0.2306 -0.2407 -0.2008
92819W        W35732  23.024  25.011  16.725 -0.2337  0.1580  0.1239
92820W        W35733  16.512  30.537  15.523  0.0071  0.0382 -0.1123
92821W        W35734  29.169  29.918  23.671  0.1191 -0.1035 -0.2874
92822W        W35735  26.306  26.773  27.207 -0.2078  0.0046  0.3694
92823W        W35736   6.050  12.070  17.156 -0.3839  0.2743 -0.0347
92824W        W35737  22.852  19.471  19.892 -0.0168 -0.0184 -0.1217
92825W        W35738  23.204  27.137  13.480 -0.0534 -0.0394  0.0841
92826W        W35739  34.404  22.103  14.481  0.2739  0.0449  0.3721
92827W        W35740  16.037  17.361  12.782  0.4051  0.2287  0.3376
92828W        W35741  16.993  22.811  18.395 -0.0727  0.1221  0.2095
92829W        W35742  17.516  22.882  14.648  0.0759 -0.0080  0.1306
92830W        W35743  20.676  32.840  16.261  0.0262 -0.1446 -0.0207
92831W        W35744   1.062  27.457  21.521  0.1618 -0.1808  0.0966
92832W        W35745  22.070  16.709  21.104 -0.0576  0.0752  0.0913
92833W        W35746  23.822  18.528  19.115 -0.1381 -0.0930 -0.2409
92834W        W35747  22.305  23.933  21.691  0.0201  0.0282 -0.0900
92835W        W35748  16.095  31.377  15.832 -0.0827 -0.0339 -0.0386
92836W        W35749  27.960  31.185  26.605  0.2853 -0.1663 -0.0698
92837W        W35750   6.165  14.727  22.738  0.1411 -0.0002  0.0608
92838W        W35751  28.393  30.883  15.696 -0.2857  0.0385 -0.1129
92839W        W35752  25.435  29.920  17.436 -0.1703  0.1941  0.0443
92840W        W35753  21.570  23.473  16.578 -0.1038  0.2763  0.3073
92841W        W35754  11.787  20.410  22.221 -0.0153 -0.0549  0.0259
92842W        W35755  31.831  26.078  27.451 -0.1128 -0.4057  0.0440
92843W        W35756  25.385  23.162  14.276 -0.1500  0.1105  0.1166
92844W        W35757  30.397  17.971  17.169  0.0419 -0.1351 -0.2910
92845W        W35758  27.174  28.417  19.832  0.1136 -0.0387 -0.0040
92846W        W35759  33.229  27.667  15.163  0.0691 -0.0441 -0.0654
92847W        W35760  22.038  29.425  21.472  0.1337  0.2376  0.3029
92848W        W35761  14.384  18.791  14.303  0.1258  0.0947  0.1333
92849W        W35762  29.856  28.846  19.756  0.1345  0.3073 -0.1542
92850W        W35763  27.696  22.820  17.012 -0.2210 -0.2340 -0.0067
92851W        W35764  23.528  15.681  13.850 -0.0466  0.0653 -0.2498
92852W        W35765  14.502  12.889  17.141 -0.3156  0.1440  0.1135
92853W        W35766  15.965  24.711  15.165  0.0820 -0.1050 -0.0602
92854W        W35767  21.496  30.865  14.279 -0.1105 -0.0650 -0.1045
92855W        W35768  18.301  23.677  16.916 -0.2726 -0.1507 -0.0399
92856W        W35769  19.680  18.075  13.284  0.1260  0.3345 -0.1409
92857W        W35770  18.669  28.231  17.637  0.1367  0.2051 -0.3174
92858W        W35771  33.092  19.863  18.446 -0.2369  0.1735  0.2066
92859W        W35772  31.437  13.354  17.264 -0.0923 -0.1961  0.1957
92860W        W35773  27.903  23.697  14.955  0.3032 -0.0663  0.1650
92861W        W35774  27.624  15.110  27.882  0.1625  0.2078  0.1461
92862W        W35775  10.374  20.783  26.624 -0.1831 -0.3969 -0.0850
92863W        W35776  25.604  25.467  13.275 -0.0395  0.0066 -0.2089
92864W        W35777  10.894  19.286  16.040 -0.0587 -0.1506  0.0347
92865W        W35778  12.422   1.708  21.506  0.2441 -0.1442 -0.0897
92866W        W35779  30.671  32.385  14.378 -0.0376 -0.3423  0.0580
92867W        W35780  25.466  13.258  14.699  0.1097 -0.0047  0.2758
92868W        W35781  25.584  15.133  17.012  0.1512 -0.0807 -0.0189
92869W        W35782  23.248  19.035  22.093 -0.2744  0.0038  0.0843
92870W        W35783  23.888  20.189  13.187  0.1459  0.0859 -0.0463
92871W        W35784   8.207  20.173  15.706  0.0077  0.0422 -0.1828
92872W        W35785  22.503  12.835  14.899  0.0544 -0.1638 -0.2585
92873W        W35786  20.660  32.345   2.620  0.1997  0.0211  0.5910
92874W        W35787  28.378  15.772  17.699 -0.2408  0.0647  0.1444
92875W        W35788  26.690  24.576  19.344 -0.1968 -0.1118 -0.0262
92876W        W35789  22.881  31.837  16.218  0.0030 -0.1918 -0.1433
92877W        W35790  29.182  22.794  23.466  0.1752 -0.3199  0.0605
92878W        W35791  18.648  18.261  12.271 -0.1251  0.0648  0.0324
92879W        W35792  16.851  32.033  19.617  0.1555 -0.0378 -0.0855
92880W        W35793  24.352  27.020  20.020  0.0253 -0.2711  0.1163
92881W        W35794  21.807  27.706  16.195 -0.2216 -0.1079 -0.0318
92882W        W35795  19.944  23.138  17.349  0.4201 -0.2279 -0.2294
92883W        W35796  17.330  22.192  15.118 -0.0362  0.1115  0.1506
92884W        W35797  17.039  33.528  18.083 -0.1093  0.2992  0.1149
92885W        W35798   9.861  24.146  17.931 -0.2489 -0.1311 -0.1879
92886W        W35799  19.310  23.072  25.476 -0.3931 -0.0118  0.2396
92887W        W35800  19.638  29.617  21.163  0.0634  0.0408 -0.0917
92888W        W35801  24.051  10.184  16.338 -0.0820  0.0215 -0.0485
92889W        W35802  19.619  33.647  13.476 -0.2055  0.0293  0.2753
92890W        W35803  30.340  29.172  22.410  0.0816  0.3481  0.1278
92891W        W35804  14.248  21.129  16.751  0.0243  0.2284  0.0120
92892W        W35805  17.760  31.938  19.745 -0.4582 -0.3281 -0.2426
92893W        W35806  25.412  25.205  14.257  0.0102  0.0890  0.1009
92894W        W35807  25.207  12.406  23.623  0.1247 -0.2018 -0.0664
92895W        W35808  21.485  24.071  13.558  0.0338 -0.0716  0.1399
92896W        W35809  24.577  29.683  15.343 -0.1337 -0.4182  0.1609
92897W        W35810  26.927  31.167  20.113  0.0161 -0.3091  0.1190
92898W        W35811  15.022  25.724  20.699 -0.3638  0.0794  0.3334
92899W        W35812  19.459  10.983  17.964  0.1044 -0.3210  0.0126
92900W        W35813  16.484  16.359  11.894  0.2481 -0.0807 -0.0023
92901W        W35814  26.801  27.199  16.484 -0.0369  0.0797  0.0014
92902W        W35815  22.385  24.128  13.868 -0.3609  0.2214  0.0051
92903W        W35816  18.748  15.424  14.038  0.0939  0.3986 -0.2020
92904W        W35817  23.362  22.195  15.599  0.0271 -0.2130  0.0465
92905W        W35818  28.881  24.816  15.002 -0.0739 -0.0872  0.2152
92906W        W35819  17.277  23.037  18.037  0.3340  0.0574 -0.1137
92907W        W35820  24.351  17.729  17.849  0.1425  0.0353 -0.2871
92908W        W35821  25.042  21.842  20.945 -0.1364 -0.1700 -0.1331
92909W        W35822  24.426  18.012  15.464  0.2282 -0.0198 -0.1760
92910W        W35823  24.182  33.957  22.636 -0.2793 -0.2518  0.2484
92911W        W35824  12.576  29.609  20.081 -0.3335 -0.0387  0.1016
92912W        W35825  17.362  14.944  14.610 -0.2655  0.2754  0.0369
92913W        W35826  24.406  29.388  17.522 -0.0260 -0.1744  0.0800
92914W        W35827  13.770  24.424  20.235 -0.2445 -0.1402 -0.0058
92915W        W35828  31.109  22.802  13.796 -0.0869 -0.1626  0.1120
92916W        W35829  25.237  20.438  13.127  0.0189 -0.0552 -0.0471
92917W        W35830  19.321  28.369  21.219  0.0372 -0.0092  0.1102
92918W        W35831  17.240  22.887  15.962  0.0417 -0.1526  0.3775
92919W        W35832  27.972  28.807  21.286  0.5273 -0.1506 -0.0194
92920W        W35833  21.172  19.205  14.676  0.1394  0.0235 -0.0275
92921W        W35834  21.056  12.254  15.052  0.1185  0.0795 -0.2594
92922W        W35835  22.222  22.030  13.347 -0.2882 -0.1276  0.2955
92923W        W35836  23.478  22.418  20.230  0.1219 -0.3269  0.1947
92924W        W35837  18.639  12.213  16.046 -0.0009 -0.1811  0.2511
92925W        W35838  18.311  11.166  23.436 -0.1493  0.0787  0.1321
92926W        W35839  16.211   0.178  17.852 -0.0712  0.1140 -0.2380
92927W        W35840  17.126  20.387  12.656 -0.2658 -0.2552  0.0172
92928W        W35841  10.828  29.161  20.884  0.1541 -0.0858  0.1029
92929W        W35842  14.349  26.422  23.884 -0.3297  0.0320 -0.1463
92930W        W35843  26.943  28.569  16.664 -0.3918 -0.0937 -0.1325
92931W        W35844  26.742  25.959  15.953 -0.0325 -0.0088 -0.2186
92932W        W35845  27.945  23.441  22.587 -0.3426 -0.2200  0.1000
92933W        W35846  26.304  19.224  14.739 -0.1440  0.0854 -0.0403
92934W        W35847  30.776   6.418  17.505 -0.0658 -0.2667 -0.0653
92935W        W35848  13.976  23.236  22.564 -0.1157 -0.0684 -0.2116
92936W        W35849  27.580  25.148  16.423 -0.1875  0.1610  0.0238
92937W        W35850  21.991  18.164  12.563 -0.0498  0.3216  0.0478
92938W        W35851  21.820  29.665  16.235  0.2254  0.3175  0.1144
92939W        W35852  23.861  20.975  23.873 -0.0949 -0.1624 -0.1590
92940W        W35853  18.192  21.459  16.794 -0.6478  0.1403  0.2490
92941W        W35854  25.529  31.818  14.717  0.0940 -0.0875  0.0517
92942W        W35855  25.858  17.113  18.743  0.1144 -0.0947 -0.1853
92943W        W35856  24.259  24.229  13.866  0.3914  0.0376 -0.0997
92944W        W35857  20.985  30.226  20.025 -0.0887 -0.0945 -0.0150
92945W        W35858  18.287  23.109  22.099  0.2525 -0.1292 -0.1916
92946W        W35859  26.530  21.603  14.162  0.0012 -0.0515  0.1356
92947W        W35860  20.471  23.307  25.131  0.1529  0.0645 -0.4089
92948W        W35861  12.798  14.859  23.510  0.0745  0.4859  0.0368
92949W        W35862  28.028  13.644  14.767  0.2207 -0.1510 -0.3194
92950W        W35863  24.216  34.176  16.372 -0.1600  0.2258 -0.0768
92951W        W35864  20.250  21.063  24.455  0.0577 -0.2476 -0.1625
92952W        W35865  18.268  16.198  13.069  0.2378  0.2216  0.1635
92953W        W35866  25.498  19.341  23.991  0.3325 -0.1445 -0.0925
92954W        W35867  18.159  12.035  14.974  0.0875 -0.3466 -0.0284
92955W        W35868  22.373  30.541  16.394  0.0824  0.0261  0.3763
92956W        W35869  19.066  21.529  16.502 -0.0465 -0.1761 -0.1536
92957W        W35870  20.945  21.469  20.811 -0.0481 -0.3247  0.3431
92958W        W35871  24.025  10.909  15.614 -0.2867 -0.1738  0.1338
92959W        W35872  16.945  17.210  12.961  0.4846 -0.1040  0.2064
92960W        W35873  24.235  29.793  16.301  0.0433  0.0670 -0.0213
92961W        W35874  14.287  19.365  18.156  0.1145  0.0227 -0.2053
92962W        W35875  11.459  18.451  15.154 -0.1160 -0.0138 -0.2262
92963W        W35876  24.330  22.203  20.407  0.2038  0.0488 -0.0691
92964W        W35877  28.602  26.463   1.692 -0.1355  0.0414  0.2058
92965W        W35878  26.967  18.482  16.654 -0.0058 -0.1934 -0.2447
92966W        W35879  19.407  20.106  20.084 -0.0716  0.2737  0.3075
92967W        W35880  13.474  28.393  19.915 -0.1230 -0.2315 -0.0044
92968W        W35881  15.526  23.583  15.154  0.0266  0.1149 -0.3993
92969W        W35882  20.449  26.236  16.594 -0.2348 -0.3227 -0.0499
92970W        W35883  25.390  26.772  15.192 -0.2038  0.0574  0.0003
92971W        W35884  26.318  28.857  23.981  0.3820 -0.0300  0.0387
92972W        W35885  21.025   0.152  13.970 -0.2238 -0.0398 -0.0377
92973W        W35886  27.605  28.496  15.864 -0.0711  0.1176 -0.1586
92974W        W35887  24.285  22.921  22.092 -0.1446  0.2043  0.0919
92975W        W35888  16.929  18.513  13.498  0.0275 -0.2773  0.2079
92976W        W35889  21.338  31.615  18.071 -0.2799 -0.0620 -0.0840
92977W        W35890  19.084  30.131  19.827  0.2075  0.0758 -0.0031
92978W        W35891  24.749  22.104  19.170  0.1309  0.0797 -0.2397
92979W        W35892  11.911  21.687  22.418 -0.1962  0.1550  0.1079
92980W        W35893  25.711  32.503  22.901 -0.0225  0.0986  0.0670
92981W        W35894  20.472  22.402  13.070 -0.2206 -0.3752  0.0976
92982W        W35895  24.972  19.953  24.132  0.0093 -0.2430  0.0159
92983W        W35896  23.893  19.589  22.850  0.0742  0.1913 -0.0793
92984W        W35897  22.223  14.754  25.214 -0.1575  0.2281 -0.0867
92985W        W35898  13.101  19.526  16.800 -0.2437 -0.1785 -0.0437
92986W        W35899  26.381   6.209  20.371  0.1523  0.1273  0.2472
92987W        W35900  29.471  32.595  15.427 -0.2147  0.1501 -0.0958
92988W        W35901  11.046  11.029  18.439  0.2034 -0.0183 -0.4407
92989W        W35902  19.339  21.032  17.100  0.0507 -0.0269 -0.2287
92990W        W35903  18.610  18.707  15.036 -0.1352  0.3454  0.0861
92991W        W35904  13.659   1.668  19.598 -0.0565  0.1053 -0.0937
92992W        W35905  19.066  27.986  14.129 -0.2159 -0.0382 -0.0315
92993W        W35906  24.395  24.878  15.132  0.2041  0.0308  0.2373
92994W        W35907  22.402  23.659  12.997  0.0065 -0.0433 -0.0377
92995W        W35908  28.249  15.324  15.965 -0.3018 -0.2169  0.0343
92996W        W35909  30.020   9.860  28.464 -0.1686 -0.0725 -0.2826
92997W        W35910   7.787   7.843  16.511  0.1725 -0.0994  0.0283
92998W        W35911  25.188  25.832  25.790  0.1244 -0.1915  0.1437
92999W        W35912  14.776  25.697  21.795  0.1815 -0.3161  0.3552
93000W        W35913  22.774  19.038  20.181 -0.1647  0.0757  0.0640
93001W        W35914  23.143  32.783  16.634 -0.1172  0.0404 -0.0231
93002W        W35915  15.115  15.410  16.246 -0.0870 -0.2497  0.0820
93003W        W35916  27.744  26.558  18.155 -0.3750 -0.2381 -0.0167
93004W        W35917  19.551  25.152  16.465  0.1497 -0.1870  0.0536
93005W        W35918  29.068  28.542  15.131  0.5085  0.0936  0.1132
93006W        W35919  30.745  28.228  22.918 -0.2464 -0.1680  0.1691
93007W        W35920  16.144  22.295  14.889  0.2330  0.0424 -0.4057
93008W        W35921  13.483  21.658  16.863  0.1024 -0.0043 -0.1561
93009W        W35922  17.138  15.148  12.826  0.1830 -0.4151  0.2693
93010W        W35923  27.648  26.737  16.916 -0.4692 -0.0307  0.2048
93011W        W35924  19.231  30.180  23.655 -0.1456  0.0700 -0.0676
93012W        W35925  32.071  27.692  14.533 -0.0965  0.0982 -0.1264
93013W        W35926  22.822   7.014  15.190 -0.0196  0.1068  0.3199
93014W        W35927   9.962  14.512  15.490  0.3311 -0.1901  0.0824
93015W        W35928  25.504  33.996  14.408 -0.2293  0.0149 -0.1221
93016W        W35929  18.686  24.726  16.969  0.1105 -0.0432 -0.0504
93017W        W35930  24.460  25.490  15.004  0.4922  0.0920 -0.1536
93018W        W35931  12.829  12.242  15.260 -0.0724 -0.2805  0.1138
93019W        W35932  21.793  26.914  17.854  0.1642 -0.0478  0.2555
93020W        W35933  17.490  12.533  13.437  0.3288  0.3351  0.3094
93021W        W35934  16.156  27.701  18.870  0.0092 -0.0789 -0.0682
93022W        W35935  28.322  29.062  17.222 -0.0813  0.1458 -0.1705
93023W        W35936  20.453  29.815  16.219  0.0811  0.1381  0.1357
93024W        W35937   8.614  19.527  18.408  0.0870  0.1970 -0.1103
93025W        W35938  27.285   1.500  29.384  0.0599  0.0296  0.3043
93026W        W35939  25.254  16.587  18.175  0.4783 -0.1828  0.1203
93027W        W35940  13.163  25.509  20.824  0.0058 -0.0150  0.1717
93028W        W35941  12.340  27.494  21.646  0.0808 -0.0150 -0.4318
93029W        W35942  25.319  18.416  14.156  0.0992 -0.2259  0.1005
93030W        W35943  26.004  17.077  15.919 -0.0753 -0.0989  0.2094
93031W        W35944  13.625  10.338  19.265 -0.0474  0.0425  0.2815
93032W        W35945  20.398  19.320   1.052  0.1570 -0.0382 -0.2152
93033W        W35946  33.442   8.651  29.441 -0.2494  0.0245  0.2492
93034W        W35947  16.286   9.925  18.453 -0.0901 -0.1492  0.1063
93035W        W35948  31.186  12.263  26.927 -0.0191  0.2996  0.0533
93036W        W35949  29.946  29.357  21.514  0.2186 -0.1140 -0.0654
93037W        W35950  16.946  24.526  18.633  0.1068  0.2668 -0.3163
93038W        W35951  22.206  22.348  17.054 -0.1409  0.2052 -0.1687
93039W        W35952  27.564  11.957  14.325 -0.0053 -0.2304  0.2539
93040W        W35953  24.816  21.708  15.962 -0.1220  0.2219 -0.1209
93041W        W35954  19.733  29.461  28.705  0.1442  0.5926  0.1647
93042W        W35955  19.429  13.476  15.634 -0.0460 -0.0117  0.1623
93043W        W35956  10.322  19.734  18.924  0.1208  0.0775 -0.1903
93044W        W35957  22.897  10.300  16.603 -0.0248 -0.1724 -0.2546
93045W        W35958  16.209  14.363  14.776 -0.0884 -0.3950  0.1065
93046W        W35959  21.548  17.548  14.981  0.0899  0.0027 -0.1769
93047W        W35960  17.892  26.267  27.447 -0.1722 -0.1487 -0.0962
93048W        W35961  23.703  16.485  13.669 -0.1978 -0.3529  0.0774
93049W        W35962  29.915   7.944  17.793 -0.1054  0.0982  0.0575
93050W        W35963  15.748  21.554  17.131 -0.0734  0.0841 -0.2452
93051W        W35964  15.457  26.245  16.484 -0.0865 -0.0589 -0.0868
93052W        W35965  27.400  25.770  14.852 -0.0290 -0.1612  0.0367
93053W        W35966  26.654   4.512  17.789 -0.2947 -0.0445  0.2291
93054W        W35967   8.471  24.333  18.596  0.1310  0.2812 -0.2444
93055W        W35968  21.263  20.138  13.136 -0.1440 -0.3811 -0.0981
93056W        W35969  21.816  26.717  18.293 -0.1477  0.1406  0.1108
93057W        W35970  17.680  32.782  24.461  0.1937 -0.0172  0.1016
93058W        W35971  30.834  20.563  16.957  0.0799  0.0060 -0.1378
93059W        W35972  18.793  21.586  14.567  0.0251  0.4772  0.2422
93060W        W35973  14.924  31.448  16.793 -0.0939 -0.0154  0.0694
93061W        W35974  25.265  12.237  15.419  0.2588 -0.0451 -0.0278
93062W        W35975  26.932  22.244   2.938  0.0442  0.0166 -0.3088
93063W        W35976  28.601  27.591  18.779 -0.0593  0.2206  0.1886
93064W        W35977  19.125  31.332  18.550 -0.0988  0.1405 -0.0201
93065W        W35978  10.004  33.138  18.559  0.3143  0.0883  0.2714
93066W        W35979  25.272   1.788  25.690 -0.0323  0.0044 -0.1501
93067W        W35980  13.169  18.430  15.001 -0.2129 -0.2098 -0.4845
93068W        W35981  30.963  21.359  25.567 -0.1026 -0.1372  0.2299
93069W        W35982  25.107  26.284  24.194  0.1645  0.1683 -0.2372
93070W        W35983  20.289  30.900  19.315 -0.1850  0.1336  0.1551
93071W        W35984  24.634  14.986  24.885 -0.4036 -0.0100  0.0560
93072W        W35985   6.961  20.407  15.788 -0.0076  0.1791 -0.3274
93073W        W35986  16.916  15.122  14.503 -0.1859  0.0614  0.0965
93074W        W35987  21.629  23.490  24.502 -0.1898  0.3364 -0.1464
93075W        W35988  16.852  25.910  18.688 -0.1190  0.2764  0.1826
93076W        W35989  25.581  21.480  14.636 -0.1410  0.2984 -0.0938
93077W        W35990  27.346  20.770   2.957  0.1026  0.1724  0.1858
93078W        W35991  24.636  23.537  19.170  0.2996 -0.2428  0.1406
93079W        W35992  19.117  30.735  19.883  0.0834 -0.2902  0.0708
93080W        W35993   4.281  18.606  24.092 -0.1680  0.1165 -0.0760
93081W        W35994  15.724  21.321  17.818 -0.2209 -0.3324 -0.4375
93082W        W35995  18.351  26.235  16.289  0.1194 -0.1868 -0.2338
93083W        W35996  32.636  24.543  15.286 -0.3657 -0.2503 -0.1785
93084W        W35997  19.523  24.196  16.773  0.1883 -0.0547 -0.2765
93085W        W35998  22.624  28.754  21.047  0.1912 -0.0703 -0.0074
93086W        W35999  14.708  28.032  20.694 -0.0717 -0.1539  0.0071
93087W        W36000  25.549  25.045  17.063  0.1374 -0.0547 -0.1430
93088W        W36001  18.269  20.711  13.179 -0.0940  0.0134  0.5678
93089W        W36002  24.507  25.626  18.625 -0.2604 -0.1021 -0.1197
93090W        W36003  27.942  18.388  13.931 -0.3444  0.0132 -0.0715
93091W        W36004  25.655  25.757  20.787 -0.0024  0.1786  0.1275
93092W        W36005  26.592  19.941  25.904 -0.2450 -0.0462  0.0493
93093W        W36006  32.349  24.991  17.764  0.1160 -0.2265 -0.0335
93094W        W36007  16.788  22.350  24.109  0.1133 -0.1004 -0.2821
93095W        W36008  21.898  26.459  19.309 -0.1170 -0.1228 -0.3049
93096W        W36009  28.873  17.458  22.457 -0.5278  0.3703 -0.1397
93097W        W36010  11.719  22.172  21.082 -0.1005 -0.1196  0.1590
93098W        W36011  24.105  24.943  15.617  0.0851 -0.3769  0.2290
93099W        W36012  23.623  23.473  12.471 -0.2975  0.2756 -0.0585
93100W        W36013  20.990  12.708  18.670  0.3597 -0.1682  0.2804
93101W        W36014  22.745  20.184  14.834 -0.0293  0.0769 -0.0691
93102W        W36015  22.814  12.968  13.903 -0.0121  0.0128 -0.1866
93103W        W36016   9.029  12.994  24.869 -0.0798  0.1780 -0.0040
93104W        W36017  23.992  22.674  21.113 -0.0551  0.0752  0.1064
93105W        W36018  16.776  25.305   0.026 -0.1007 -0.0663  0.4098
93106W        W36019  18.905  32.353  24.260 -0.2514 -0.1341  0.1536
93107W        W36020  26.920  32.760  17.522 -0.1938  0.0150  0.4444
93108W        W36021  23.754  25.568  17.780 -0.1223  0.0856 -0.3364
93109W        W36022  23.367  24.511  20.410  0.1701 -0.0152  0.1183
93110W        W36023  23.270  21.884  14.284  0.1519 -0.2363 -0.1639
93111W        W36024  28.265  25.666  18.671  0.3460 -0.1202 -0.1895
93112W        W36025  18.865  28.108  14.570 -0.0043  0.0400 -0.3026
93113W        W36026  18.854  11.852  17.080  0.1191  0.1222 -0.0721
93114W        W36027  29.786  26.057  15.166 -0.3350  0.1850 -0.2453
93115W        W36028   9.502  20.414  13.625 -0.1507  0.0844  0.0369
93116W        W36029  23.793  15.539  19.071  0.2880  0.3505 -0.1025
93117W        W36030   7.789  29.976  17.003  0.1664  0.0373 -0.2891
93118W        W36031  12.886  28.196  16.803 -0.2664  0.0994 -0.0450
93119W        W36032  25.511  22.953  21.894 -0.3685  0.0796  0.2878
93120W        W36033  10.010  16.786  16.122  0.2407 -0.2585  0.1206
93121W        W36034  15.839  19.133  14.229  0.1207 -0.0554  0.3226
93122W        W36035  18.767  28.474   9.136  0.3136 -0.2352 -0.1202
93123W        W36036  15.310   9.617  21.515  0.0714  0.0942 -0.2111
93124W        W36037  27.287  14.219  29.764 -0.4178 -0.3239  0.0739
93125W        W36038  20.602  21.683  18.319  0.0814 -0.0943  0.2987
93126W        W36039  25.541  27.473  13.195 -0.2513  0.2914 -0.0258
93127W        W36040  26.453  20.008  28.036 -0.2366  0.0121 -0.3590
93128W        W36041  13.351  23.300  16.376  0.1483 -0.0149  0.0610
93129W        W36042  26.764  30.601  15.110 -0.1931 -0.0231 -0.2615
93130W        W36043  32.568  24.014  20.028 -0.2294 -0.2238  0.1373
93131W        W36044  15.435  24.534  19.188 -0.1605  0.3390 -0.2424
93132W        W36045  12.702  13.248  15.357  0.1508  0.4131  0.0222
93133W        W36046  25.294  13.696  12.992  0.1806 -0.0524 -0.2559
93134W        W36047  30.010  17.245  16.339  0.2939 -0.0140  0.1851
93135W        W36048  23.186  14.741  15.782 -0.2215 -0.0209  0.1592
93136W        W36049  26.802  31.389  25.931  0.0959  0.0721 -0.0870
93137W        W36050   9.429  23.778  25.514  0.2040 -0.0620  0.0959
93138W        W36051  18.818  28.631  23.647 -0.1434  0.1090  0.2293
93139W        W36052  17.132   7.932  18.469  0.0809  0.1962 -0.3377
93140W        W36053  33.238  30.006  20.781 -0.2240 -0.0064 -0.1067
93141W        W36054  30.665  27.596  15.225  0.1296 -0.1927 -0.1022
93142W        W36055  12.918  23.402  14.006 -0.3150  0.1809 -0.0603
93143W        W36056  24.461   6.301  16.701  0.2197  0.0968  0.1915
93144W        W36057  22.667  12.437  19.067 -0.0793  0.1108  0.0661
93145W        W36058  23.496  33.491  21.034  0.1935  0.2803  0.1317
93146W        W36059  24.449  13.316  17.089  0.0293 -0.2257 -0.1158
93147W        W36060  18.163  25.076  20.861 -0.0813  0.3338 -0.0943
93148W        W36061  13.880  17.851  13.447 -0.2448 -0.0320  0.1693
93149W        W36062  26.684  21.659  18.001 -0.2279  0.0685  0.2656
93150W        W36063  20.705  28.572  14.710  0.0117  0.0118  0.1119
93151W        W36064  24.278  14.008  16.192  0.0813  0.0660  0.0346
93152W        W36065  22.902  10.463  17.632  0.2509  0.4591  0.1182
93153W        W36066  11.837  26.462  22.599 -0.1367 -0.0158 -0.0811
93154W        W36067  12.781  22.709  19.808  0.2891 -0.1767 -0.0360
93155W        W36068  21.636  27.175  18.578  0.0376  0.1469  0.0356
93156W        W36069  31.040  20.193  23.699 -0.0209  0.0184  0.1376
93157W        W36070  11.768  26.925  19.126  0.0229  0.1866 -0.3031
93158W        W36071  21.293  30.273  13.566 -0.1928  0.0785 -0.0543
93159W        W36072  16.145  30.626  18.322  0.1270  0.1147  0.0264
93160W        W36073  22.650  31.219  12.917  0.0468 -0.2772  0.1347
93161W        W36074  19.892  21.834  15.361 -0.0274  0.3638  0.3525
93162W        W36075  29.046  25.421  16.469  0.1720  0.2997  0.1022
93163W        W36076  23.646  28.322  20.368  0.0618 -0.1810  0.0321
93164W        W36077  15.455  32.079  19.146 -0.0996  0.1506  0.0584
93165W        W36078  22.497   9.503  18.917  0.1741 -0.1457  0.1878
93166W        W36079  24.753  26.666  13.199 -0.0338  0.1896 -0.0140
93167W        W36080  11.561  22.165  14.334 -0.2794  0.2716  0.1331
93168W        W36081  29.467  23.833  16.635 -0.1535  0.0321  0.0573
93169W        W36082  18.330  18.356  14.177 -0.0295  0.1589  0.0847
93170W        W36083  24.548  24.917  14.202  0.2290  0.0403 -0.0252
93171W        W36084  19.536  11.938  20.262  0.1711 -0.1200 -0.1310
93172W        W36085  25.436  19.677  22.046 -0.1178  0.1218 -0.0316
93173W        W36086  26.170  13.017  16.909 -0.1024 -0.0807  0.0107
93174W        W36087  10.587  20.371  19.936  0.0061  0.0720 -0.1861
93175W        W36088  23.920  13.255  18.827 -0.0259  0.1003 -0.1160
93176W        W36089  18.919  30.664  17.699 -0.0404  0.0391  0.0889
93177W        W36090  22.886  22.385  14.886  0.1882 -0.1031  0.1572
93178W        W36091  19.958  24.672  13.687  0.0907 -0.0257  0.0542
93179W        W36092  16.579   8.626  16.298 -0.1786  0.3400 -0.3636
93180W        W36093  29.045  33.668  23.370 -0.0383  0.1592 -0.2462
93181W        W36094  15.260  20.575  13.195 -0.0172  0.0355 -0.1960
93182W        W36095  17.930  30.341   6.298  0.0076 -0.2595 -0.0644
93183W        W36096  16.779  25.869   0.401  0.1135 -0.2138 -0.1025
93184W        W36097  26.017  18.440  21.214  0.1215 -0.0397  0.0117
93185W        W36098  23.310  24.256  25.909  0.1275 -0.1495  0.0811
93186W        W36099  21.124  25.082  19.463  0.0792  0.3197  0.3928
93187W        W36100   8.348  25.380  25.561 -0.0840 -0.2246  0.4411
93188W        W36101   9.882  17.312  13.387  0.3937 -0.3225 -0.3743
93189W        W36102  13.812  26.960  18.216  0.2602  0.0921 -0.2939
93190W        W36103   6.566  15.573  20.651  0.1610  0.1304  0.1349
93191W        W36104  29.437  27.247  18.502  0.2785 -0.1366 -0.3491
93192W        W36105  21.593  10.590  18.298 -0.0672  0.0852 -0.5684
93193W        W36106  17.914  26.438  15.663  0.4225 -0.3798 -0.1327
93194W        W36107  27.933  17.403  20.127  0.0957 -0.1905  0.0498
93195W        W36108  24.384  25.068  12.923 -0.0014  0.4294  0.1999
93196W        W36109  22.393  31.184  13.839  0.0136 -0.2707  0.0237
93197W        W36110  30.039  24.478  25.683 -0.0081  0.2239 -0.0750
93198W        W36111  23.358  26.619  23.638 -0.0574  0.1334  0.1737
93199W        W36112  19.227  16.993  14.171  0.1088  0.0968  0.0855
93200W        W36113  28.924  26.043  25.281 -0.1831 -0.0596  0.1664
93201W        W36114  15.968  27.358  17.096 -0.3304  0.0565 -0.3234
93202W        W36115  22.697  13.607  19.592  0.3105  0.1181  0.1623
93203W        W36116  20.523   4.586  14.951 -0.3379  0.3118  0.1822
93204W        W36117  17.584  24.381  29.446 -0.1257  0.0531  0.1075
93205W        W36118  18.795  26.860  19.304  0.3310 -0.3314  0.0036
93206W        W36119  24.039  19.152  28.407  0.2168  0.0361 -0.2665
93207W        W36120  25.914  31.759  21.888  0.0296 -0.0856 -0.2799
93208W        W36121  13.027  12.547  23.832  0.0404 -0.1470 -0.1490
93209W        W36122  24.455  20.378  13.595 -0.1193 -0.1586  0.1461
93210W        W36123  20.397  27.339  18.570 -0.0002  0.1579 -0.3108
93211W        W36124  31.939  22.272  14.976 -0.1594  0.0527 -0.1790
93212W        W36125  21.825  22.049  24.142  0.0658 -0.1532  0.1055
93213W        W36126  30.178  18.762  19.118  0.2000  0.1482  0.1129
93214W        W36127  13.402  24.969  21.454  0.0743  0.1202 -0.0035
93215W        W36128   3.041  23.113  15.673  0.0198 -0.1079  0.2408
93216W        W36129  18.207   8.763  14.917 -0.0771  0.2894 -0.0348
93217W        W36130  24.556  19.172  16.218  0.0100 -0.0134 -0.1007
93218W        W36131  17.179  22.003  11.984 -0.0861 -0.1501 -0.0493
93219W        W36132  33.705  28.472  14.080 -0.3422  0.0426 -0.0831
93220W        W36133  19.608  11.329  23.904  0.1378 -0.1412  0.2104
93221W        W36134  16.973  32.517  19.646  0.1639 -0.2115 -0.0122
93222W        W36135  24.340  19.253  13.053 -0.0038 -0.0507 -0.1577
93223W        W36136   9.582  19.699  22.590  0.1902  0.0600 -0.0782
93224W        W36137  30.525  24.434  18.269 -0.3013  0.2855 -0.3023
93225W        W36138  20.757  16.621  13.747  0.0344 -0.0571  0.1992
93226W        W36139  22.770  20.807  12.350 -0.1743  0.2306 -0.0353
93227W        W36140  21.275  19.292  14.211 -0.1044  0.1805  0.0165
93228W        W36141  25.094  24.451  17.875 -0.0899  0.1118  0.4319
93229W        W36142  11.068  19.383  18.992  0.4684  0.0012 -0.1831
93230W        W36143  19.052  27.380  20.492 -0.1703 -0.0028 -0.0542
93231W        W36144  19.176  22.226  18.249 -0.0303  0.0714  0.0906
93232W        W36145  14.119  24.712  17.846 -0.0524  0.0060  0.0012
93233W        W36146  24.346  25.659  22.511  0.1804 -0.2330 -0.1188
93234W        W36147  17.398  24.919  27.689  0.2403 -0.0578 -0.1354
93235W        W36148  24.769  29.347  15.621  0.1012  0.1197  0.1952
93236W        W36149  21.905  17.328  16.858  0.3870 -0.0516  0.1355
93237W        W36150   9.906  12.313  27.514 -0.3448  0.0276 -0.1869
93238W        W36151  29.358  15.650  17.638  0.1567 -0.0368 -0.0364
93239W        W36152  19.077  25.074  21.365 -0.0351  0.0445 -0.0940
93240W        W36153  10.960  24.391  20.334 -0.2869 -0.1837  0.4370
93241W        W36154  23.273  14.063  17.427  0.1715  0.2224 -0.1489
93242W        W36155  13.965  31.331  25.150 -0.1283  0.1077  0.0377
93243W        W36156  22.163  20.955  17.445 -0.0900 -0.0129 -0.1619
93244W        W36157  12.075  13.658  16.380  0.1818  0.0621  0.0945
93245W        W36158  22.435  22.786  14.935  0.1754 -0.0641  0.1927
93246W        W36159  23.690  27.450  23.385 -0.0100  0.0511 -0.1666
93247W        W36160  15.037  30.954  19.065 -0.0674  0.3578 -0.1731
93248W        W36161  22.446  19.814  18.935 -0.1754 -0.1329  0.4080
93249W        W36162  25.661  24.587  24.354  0.0514  0.2370 -0.1409
93250W        W36163  24.603  27.188  14.371 -0.0320  0.0010  0.0189
93251W        W36164  24.714  30.530  29.517 -0.0424  0.1109 -0.0345
93252W        W36165  15.642  24.720  23.990  0.1521  0.1852  0.3062
93253W        W36166  23.345  16.828  13.856  0.1146  0.0534 -0.2704
93254W        W36167  25.217  24.854  17.361  0.0726 -0.0131  0.0583
93255W        W36168  20.045  21.339  14.217 -0.3351 -0.1874  0.2777
93256W        W36169  13.216  18.364  12.932  0.0879  0.0476 -0.3514
93257W        W36170  19.412  13.128  13.617  0.0221  0.0359  0.1635
93258W        W36171  29.672  21.209  20.374  0.0911  0.1090  0.1050
93259W        W36172  26.629  10.866  17.755  0.0675  0.3132 -0.2816
93260W        W36173   8.060  23.893  23.400 -0.0891  0.0812 -0.0649
93261W        W36174  22.235  31.842  13.728 -0.3684  0.1681 -0.0098
93262W        W36175  23.164  30.094  13.965  0.1159  0.0683 -0.0292
93263W        W36176  22.523  22.863  18.255 -0.1377 -0.0503 -0.0357
93264W        W36177   9.990  23.316  18.079 -0.0253 -0.1208  0.2021
93265W        W36178  10.058  23.027  16.699 -0.3141 -0.1341 -0.0760
93266W        W36179  17.237  23.369  14.300 -0.1021 -0.0327  0.0589
93267W        W36180  22.385  20.512  16.559  0.0416  0.0560 -0.0995
93268W        W36181  13.270  25.031  17.614  0.0519 -0.0536  0.2641
93269W        W36182  23.842  18.870  18.360 -0.1545 -0.0251 -0.0257
93270W        W36183   0.664  22.400  23.905 -0.0160 -0.0447 -0.2713
93271W        W36184  31.435  26.700  27.961  0.2093  0.2201 -0.3036
93272W        W36185  23.967  15.686  21.092 -0.0686  0.2013  0.2192
93273W        W36186  12.455  22.352  21.205 -0.0363  0.2123  0.2515
93274W        W36187  22.178  22.682  26.924  0.0557 -0.1928  0.3092
93275W        W36188  19.162  13.459  17.774 -0.0746 -0.2392  0.0168
93276W        W36189   9.267  21.633  14.902 -0.0185 -0.1917  0.2285
93277W        W36190  31.503  21.528   0.383  0.2715 -0.0737  0.3174
93278W        W36191  24.519  15.818  25.931 -0.2966 -0.0823 -0.0861
93279W        W36192  14.565  31.426  19.074 -0.0745  0.0956 -0.2820
93280W        W36193  16.737  19.256  15.177 -0.2747  0.1791 -0.0859
93281W        W36194  21.172  29.840  15.496 -0.0716  0.0060 -0.3270
93282W        W36195  20.475  12.865  16.243 -0.1788 -0.0349 -0.1343
93283W        W36196  14.896  31.122  15.654  0.4474 -0.2462 -0.1286
93284W        W36197  26.007  20.156  20.020 -0.0776  0.0065  0.1176
93285W        W36198  16.258  21.183  21.362 -0.1385 -0.0252  0.0349
93286W        W36199  20.883  30.231  13.969  0.3025  0.3566  0.1575
93287W        W36200  27.748  21.928  25.171  0.0880 -0.0378 -0.3201
93288W        W36201  30.999  16.552   0.461 -0.3089  0.3192 -0.0748
93289W        W36202  18.216  21.802  15.352  0.2401 -0.0017 -0.1122
93290W        W36203  10.984  17.618  22.392 -0.0183 -0.1404 -0.0623
93291W        W36204  13.956  21.532  16.705 -0.2678 -0.0012 -0.0666
93292W        W36205  21.388  16.030  15.785  0.0558  0.2194  0.0307
93293W        W36206  23.002  16.685  12.964 -0.1809 -0.1125 -0.1988
93294W        W36207  22.383  19.732  18.358  0.2108 -0.2274 -0.0391
93295W        W36208  29.951  14.272  20.877  0.2608  0.2073 -0.3399
93296W        W36209  26.430  23.242  14.854 -0.0054  0.2298 -0.3779
93297W        W36210  19.730  28.827  17.025 -0.0847  0.0594  0.2597
93298W        W36211  20.689  32.008  23.087 -0.2489  0.2534  0.0220
93299W        W36212  22.468  27.038  12.946 -0.0850  0.1607  0.1464
93300W        W36213  13.813  30.443  16.175 -0.1474  0.1165  0.1941
93301W        W36214  24.521  23.433  13.846 -0.1643  0.2006 -0.0566
93302W        W36215  24.851  23.958  15.522  0.1580 -0.1274 -0.1653
93303W        W36216  10.501  21.134  20.640  0.1921 -0.0844  0.1373
93304W        W36217  16.926  23.501  28.166  0.0162  0.0022  0.0397
93305W        W36218   8.108   9.180  18.086 -0.0116 -0.0662 -0.0053
93306W        W36219  23.185  28.354   3.042  0.2784  0.3774 -0.3471
93307W        W36220  13.110  30.271  20.655 -0.0660  0.3638  0.3397
93308W        W36221  12.826  17.808  18.832 -0.4037  0.0607 -0.0601
93309W        W36222  17.279  26.428  17.818  0.0516 -0.0383  0.1363
93310W        W36223   9.708  20.924  18.049  0.1645 -0.1786 -0.1478
93311W        W36224  33.249  22.092  21.168 -0.1417 -0.1380  0.2108
93312W        W36225  18.463  12.149  16.853  0.0793 -0.1517  0.1838
93313W        W36226  21.949  14.887  17.200 -0.1733 -0.3311  0.2837
93314W        W36227  24.336  25.320  18.313 -0.3131  0.0776 -0.0762
93315W        W36228  31.783  18.247  20.838 -0.2496  0.0424  0.1003
93316W        W36229  21.948  30.607  19.058  0.0792 -0.2855 -0.0029
93317W        W36230  21.043  11.152  28.230 -0.1119 -0.0726  0.1115
93318W        W36231  21.594  22.969  24.376  0.0851 -0.0180 -0.2318
93319W        W36232  15.923  27.761  16.455  0.0420 -0.1388 -0.0608
93320W        W36233  25.002   4.853  16.345  0.1895  0.1295 -0.1453
93321W        W36234  29.005  21.467  20.314  0.4340  0.1985  0.1849
93322W        W36235  19.441  13.724  20.341  0.0399 -0.3373  0.1771
93323W        W36236  26.295  17.473  14.383  0.2746 -0.1395  0.0864
93324W        W36237  10.371  18.714  21.707  0.1369 -0.3668 -0.3666
93325W        W36238   1.171  18.754  19.836 -0.0012  0.1057  0.4006
93326W        W36239  15.201  10.693  15.743 -0.3886  0.2581  0.2494
93327W        W36240  18.911  11.796  14.952 -0.0362  0.2700  0.0037
93328W        W36241  23.341  26.927  19.837 -0.3976 -0.2032 -0.0601
93329W        W36242  25.395  34.038  19.564  0.0111 -0.0449  0.1598
93330W        W36243  15.357  11.315  15.659  0.2911  0.0879  0.0253
93331W        W36244  10.505  20.775  16.543 -0.0030  0.1450 -0.2125
93332W        W36245  24.775  23.691  25.113  0.0375  0.0987 -0.0857
93333W        W36246  26.081  21.594  19.567 -0.2099  0.2550  0.0681
93334W        W36247  19.376  26.234  24.788 -0.4507 -0.2565  0.0960
93335W        W36248  24.064  29.733  24.061 -0.1514  0.2353 -0.0274
93336W        W36249  21.658  18.879  13.445  0.0408 -0.0996  0.1681
93337W        W36250  29.040  27.715  20.897  0.0189 -0.0619 -0.4101
93338W        W36251  10.473  21.222  19.385 -0.1237  0.5478 -0.0610
93339W        W36252  20.234   0.484  13.978  0.0671  0.1748 -0.1308
93340W        W36253  15.167  23.547  16.626  0.2144 -0.3594 -0.2169
93341W        W36254   8.423  32.840  18.499 -0.0859 -0.0210  0.1546
93342W        W36255   2.777  28.237  15.408 -0.1212 -0.3329 -0.0739
93343W        W36256  24.068  27.732  21.563 -0.1526  0.0683  0.1272
93344W        W36257   8.164  18.967  13.007 -0.1018  0.0270  0.0402
93345W        W36258  21.195  20.746  23.533 -0.1602  0.0970 -0.1407
93346W        W36259  27.113  29.530  14.261 -0.1100 -0.0834 -0.3894
93347W        W36260   6.045  34.137  25.115 -0.0658  0.2556  0.2968
93348W        W36261  26.105  30.047  18.619 -0.5647 -0.3480 -0.0460
93349W        W36262  25.307  27.916  29.261  0.1297  0.1313 -0.1633
93350W        W36263  26.864  20.140  24.511  0.0608 -0.1095  0.2418
93351W        W36264  24.648  26.116  20.640  0.1232 -0.1241 -0.0632
93352W        W36265  32.234  26.298  20.553  0.1966  0.5260 -0.1330
93353W        W36266  21.187  15.194  15.829  0.2255  0.1348  0.0471
93354W        W36267  21.437  29.866  24.100  0.3244  0.0275  0.3489
93355W        W36268  21.475  32.883  25.059 -0.0834  0.0542 -0.0652
93356W        W36269  18.977  18.775  14.710  0.0146  0.2182  0.1242
93357W        W36270   8.429  24.867  23.018 -0.1027  0.2623  0.1526
93358W        W36271  18.112  16.727  12.465  0.0972 -0.0545 -0.0441
93359W        W36272  25.300  28.461  13.574  0.2902 -0.2822 -0.1967
93360W        W36273  20.815  27.785  24.164  0.0804 -0.0363  0.0177
93361W        W36274   6.969  25.258  29.584  0.1398 -0.1591  0.0461
93362W        W36275  19.141   9.238  23.174  0.0853  0.1778  0.0958
93363W        W36276  15.118  15.179  15.831  0.2469 -0.0970  0.0897
93364W        W36277   7.018  11.295  28.234  0.0757  0.0321 -0.0646
93365W        W36278  23.921  23.666  17.185 -0.0939 -0.3316  0.4024
93366W        W36279   8.596  21.639  19.499 -0.0400 -0.0362 -0.0332
93367W        W36280  17.349  23.064   2.222  0.0422 -0.2577 -0.2006
93368W        W36281   5.324  24.369  25.872 -0.3897 -0.0976  0.0095
93369W        W36282  21.291  22.634  16.963 -0.1106 -0.0486  0.2990
93370W        W36283  24.914  16.351  16.781  0.2066  0.0092  0.2300
93371W        W36284  23.307  23.834  21.459 -0.1387  0.1767  0.0062
93372W        W36285  29.618  29.133  16.955  0.0350 -0.3495  0.2164
93373W        W36286  26.410  24.348  23.148 -0.1481  0.3661  0.0542
93374W        W36287  17.749  28.276  28.412 -0.0887 -0.0049 -0.0163
93375W        W36288  34.092  32.582  14.728 -0.1081  0.0194 -0.2574
93376W        W36289  21.435  13.726  18.308  0.0820 -0.0723 -0.0450
93377W        W36290   6.903  22.266  20.597 -0.0213  0.1969 -0.1570
93378W        W36291  24.336  34.173  17.304 -0.3147  0.1063  0.1886
93379W        W36292  29.962  19.377   5.078 -0.0622  0.3234  0.3506
93380W        W36293  25.697  24.317   1.069 -0.0371  0.2227 -0.2351
93381W        W36294  13.703  32.291  17.724 -0.0965  0.2126  0.2388
93382W        W36295  31.709  30.672  18.494 -0.1051 -0.1864  0.1098
93383W        W36296  14.787  23.055  23.491 -0.0072  0.2179  0.0546
93384W        W36297  24.085  27.125  15.627 -0.1917 -0.2171  0.3452
93385W        W36298  24.064  25.376   0.933  0.0897 -0.1597  0.0952
93386W        W36299  25.915  29.307  19.771  0.0140 -0.0010  0.0515
93387W        W36300  14.272  20.255  19.034  0.0170 -0.2915  0.1891
93388W        W36301  24.521  19.436  27.584  0.1025  0.1659 -0.2203
93389W        W36302  30.650  22.278  24.026 -0.1661 -0.0635  0.0347
93390W        W36303  26.951  23.072  18.024  0.0889  0.2080 -0.2351
93391W        W36304  29.752  18.224  17.415  0.2044  0.1155 -0.1998
93392W        W36305  24.470  23.402  22.008 -0.0040  0.2483 -0.1061
93393W        W36306  19.475  28.204  21.688  0.1563  0.0607 -0.3372
93394W        W36307  15.931  18.072  14.591  0.0525  0.0107 -0.1525
93395W        W36308  26.937  17.391  22.193  0.1076  0.1282  0.1776
93396W        W36309   9.331  23.359  16.067 -0.0549 -0.1763 -0.1278
93397W        W36310  19.585  23.947  28.718 -0.2024  0.2554  0.0622
93398W        W36311  30.850  18.515  16.918 -0.0037  0.0240  0.0034
93399W        W36312   9.714  20.807  15.778  0.1613 -0.2807  0.2557
93400W        W36313  22.391  25.756  18.258  0.1108  0.1862 -0.0993
93401W        W36314  21.973  21.006  16.182  0.1287 -0.1447  0.2236
93402W        W36315  26.212  19.284  21.389  0.2710  0.0158 -0.1483
93403W        W36316  15.380  18.428  15.134  0.2085  0.0883 -0.0024
93404W        W36317   7.091  26.665  19.393  0.1184 -0.0269  0.1277
93405W        W36318  11.007  25.760  18.214 -0.0904 -0.0652 -0.3156
93406W        W36319  15.851  13.416  13.442 -0.0999 -0.1929  0.0305
93407W        W36320  21.646  21.706  22.995 -0.1306 -0.1976 -0.2500
93408W        W36321  11.922  32.577  20.110 -0.1852  0.1515  0.1364
93409W        W36322  21.897  18.608  11.737  0.1756 -0.0285 -0.0289
93410W        W36323  11.937  21.330  25.149 -0.0963  0.0034 -0.2527
93411W        W36324  11.455  20.870   3.785  0.1511  0.1427 -0.1910
93412W        W36325  24.993  19.408  27.862 -0.1155 -0.1109  0.1291
93413W        W36326  17.872  23.494  18.783 -0.0315  0.0379 -0.0693
93414W        W36327  17.755   0.646  10.110  0.0969 -0.1301 -0.2304
93415W        W36328  17.204  20.388  11.974 -0.4108 -0.2535  0.0331
93416W        W36329  33.324  23.547  14.925  0.2529  0.1200 -0.0231
93417W        W36330  21.374  28.116  20.463 -0.1421 -0.1762 -0.2482
93418W        W36331  24.431  25.574  29.062  0.1152  0.3406  0.0005
93419W        W36332  24.685  15.468  24.082  0.0914  0.0594  0.3100
93420W        W36333  14.627  13.782  12.239  0.0831 -0.2877  0.1597
93421W        W36334  24.320  21.838  15.547  0.0684  0.1941  0.2542
93422W        W36335  28.171  20.595  15.945 -0.0565  0.3070 -0.3909
93423W        W36336  15.566  26.802  23.820  0.1536  0.0261 -0.2363
93424W        W36337  19.407  15.402  28.796  0.0980 -0.2753 -0.0240
93425W        W36338  11.357  23.133  14.017 -0.1158 -0.2328 -0.2242
93426W        W36339  20.510  21.935  17.406  0.2179  0.0469  0.1472
93427W        W36340  15.619  19.908  19.047 -0.1899  0.0207  0.1239
93428W        W36341  11.889  24.738  18.786  0.1622 -0.0477  0.0992
93429W        W36342  15.998  19.102  15.096 -0.0668 -0.3759 -0.2179
93430W        W36343  19.276  16.094  21.919  0.0197  0.0075 -0.2959
93431W        W36344  16.119  20.781  25.713  0.0715 -0.0847  0.0843
93432W        W36345   1.268  19.470  18.608 -0.2509  0.2514 -0.1086
93433W        W36346  26.157  21.062  25.025  0.2692 -0.2057 -0.1395
93434W        W36347  21.407  22.437  24.271 -0.0849  0.0984 -0.2594
93435W        W36348  33.540  21.403  15.581  0.0754  0.0448  0.1291
93436W        W36349  26.506  17.469  23.576  0.1712 -0.0701 -0.1558
93437W        W36350  21.404  13.936  16.012  0.2184 -0.2842 -0.2064
93438W        W36351  19.637  20.118  17.110  0.3185 -0.3646 -0.0655
93439W        W36352  15.375  27.033  15.978  0.0588  0.0626 -0.3077
93440W        W36353  15.233  20.396  19.868 -0.0823  0.4208  0.0875
93441W        W36354  28.692  19.866  20.785  0.1844 -0.0268  0.0450
93442W        W36355  20.504  17.240  22.121 -0.1855 -0.2071 -0.0970
93443W        W36356  26.676  20.697  13.981 -0.1634  0.0331 -0.1472
93444W        W36357  23.123  19.815  25.890 -0.1506 -0.2781 -0.2819
93445W        W36358  18.390  23.982  20.752  0.1142 -0.2927  0.1340
93446W        W36359  12.214  19.114   5.726  0.3012  0.1500 -0.0688
93447W        W36360  24.108  20.561  23.383  0.0962 -0.0168 -0.4408
93448W        W36361  13.678  29.663   2.148  0.1380 -0.0885  0.2094
93449W        W36362  21.711  24.703  24.984  0.2330  0.2969 -0.0257
93450W        W36363  21.789  15.635  23.862 -0.1353  0.0540  0.2146
93451W        W36364  17.643  28.572  25.190  0.0047 -0.3238 -0.1170
93452W        W36365   3.133  34.444  21.751  0.2519  0.1283 -0.1598
93453W        W36366  25.641  32.072  16.197 -0.1633  0.1010  0.1016
93454W        W36367  11.779  24.926  21.665 -0.1827 -0.1435 -0.0628
93455W        W36368  22.520  24.827  20.841  0.0854 -0.1285 -0.0399
93456W        W36369  18.830  26.455  20.582 -0.3404 -0.0673  0.1246
93457W        W36370   9.547  19.718  25.621  0.0924  0.1163  0.1120
93458W        W36371   8.557  19.835  16.780 -0.1281 -0.2939  0.0749
93459W        W36372  20.486  22.643  11.696  0.0962 -0.0400 -0.1834
93460W        W36373  19.924  24.217  21.855  0.2007 -0.3330  0.0257
93461W        W36374  27.587  20.945  13.361  0.4369  0.1591  0.1713
93462W        W36375  14.283  27.315  21.919  0.3316 -0.4164 -0.2898
93463W        W36376  21.744  22.402  16.883 -0.0737  0.0407  0.2794
93464W        W36377   1.988  19.867  28.055  0.0289 -0.1020  0.0351
93465W        W36378  15.153  23.296  19.275  0.0577 -0.1495 -0.3604
93466W        W36379  31.433  26.075  24.850  0.3269 -0.1747 -0.2039
93467W        W36380  17.394  23.956  24.009  0.3398 -0.0971 -0.0500
93468W        W36381  31.984  24.381   0.002 -0.1294 -0.1417 -0.3875
93469W        W36382  18.263  24.236  17.671 -0.3241  0.2245  0.2460
93470W        W36383  16.831  23.575   1.159 -0.1367 -0.3429  0.0366
93471W        W36384  13.999   5.009  21.507  0.0948  0.2125  0.2197
93472W        W36385  21.031  29.821  17.592 -0.2473 -0.0843 -0.1136
93473W        W36386  17.264  18.359   1.772  0.3204 -0.1288  0.0542
93474W        W36387  10.387  22.006  15.670 -0.0153 -0.1275  0.0278
93475W        W36388  19.082  16.221  14.112  0.1050 -0.0914  0.2791
93476W        W36389  27.563  25.581   1.272  0.1396 -0.0450 -0.0331
93477W        W36390  16.089  10.691  27.224  0.1802  0.0009 -0.3897
93478W        W36391  28.508   0.398  24.113 -0.0700 -0.3736 -0.0841
93479W        W36392  11.316  30.056  22.342  0.1030 -0.1426  0.2197
93480W        W36393  30.097  14.670  14.621 -0.0483  0.1105  0.0895
93481W        W36394  17.972  32.475  17.502 -0.0613  0.0578  0.2593
93482W        W36395  16.916  21.406  22.020  0.2034 -0.4519 -0.2310
93483W        W36396  13.412  20.160  18.658 -0.1597 -0.1003  0.3492
93484W        W36397  15.077  26.127  27.152 -0.0309 -0.1382  0.0579
93485W        W36398  20.317  23.649  19.970 -0.1698  0.2283 -0.1673
93486W        W36399  16.488  32.376  27.211 -0.2365  0.2639  0.0206
93487W        W36400  34.318  25.289  15.757 -0.0065 -0.2632  0.1531
93488W        W36401  29.213  22.136  22.029  0.0143 -0.0963 -0.1292
93489W        W36402  21.805  24.832  19.167 -0.1158 -0.0989  0.1674
93490W        W36403  23.840  22.229  25.794 -0.0081  0.0910  0.0157
93491W        W36404  20.311  25.210  20.893  0.1110  0.2731 -0.0824
93492W        W36405  13.296  24.192   0.782  0.1519 -0.0826  0.1749
93493W        W36406  31.597  18.479  22.599 -0.0161  0.0549 -0.0237
93494W        W36407  24.129   3.370  24.420 -0.3584 -0.0448 -0.2570
93495W        W36408  25.744  24.473  13.289  0.0331  0.2546  0.0370
93496W        W36409  20.590  26.590  28.485 -0.0938  0.2554 -0.0190
93497W        W36410  10.592  31.997  25.209  0.1011  0.0025 -0.1512
93498W        W36411   7.338  17.362  25.963  0.0846 -0.0178 -0.2599
93499W        W36412  13.758  27.761  25.443  0.0666 -0.0807  0.1101
93500W        W36413  22.183  19.710  21.621  0.0436 -0.1025  0.0557
93501W        W36414  16.997  17.374  14.965 -0.2755 -0.1671 -0.1950
93502W        W36415  23.814   5.734  19.369 -0.1690 -0.3128  0.0214
93503W        W36416  20.514  31.266  15.613 -0.0410  0.1980  0.0614
93504W        W36417  26.273  15.646  22.280 -0.1861  0.0605 -0.0369
93505W        W36418  29.217  20.990  21.369 -0.1776 -0.0573 -0.1690
93506W        W36419  18.954  25.568  19.564 -0.0315 -0.3471 -0.1001
93507W        W36420  22.990  19.217  19.283 -0.0001 -0.2792  0.2074
93508W        W36421  30.169  32.715  21.000 -0.0835 -0.0625  0.2165
93509W        W36422  17.556  26.851  18.462  0.0859  0.3695  0.0179
93510W        W36423  22.304  22.838  27.334 -0.0158  0.0683  0.0001
93511W        W36424  13.845  22.748  22.300 -0.0873  0.1709 -0.2791
93512W        W36425  21.019   3.020  17.769  0.2282 -0.1240  0.2520
93513W        W36426  23.885  24.711  15.012 -0.1336 -0.0872 -0.1149
93514W        W36427  20.430  21.031  23.030  0.3467  0.0721  0.2281
93515W        W36428  22.949  23.518  20.630 -0.1346  0.1905  0.1357
93516W        W36429   5.794  25.158  26.317 -0.2377 -0.0892  0.1840
93517W        W36430  22.780  21.673   5.617 -0.2300 -0.2153 -0.0794
93518W        W36431  22.736  29.160   1.891 -0.0311  0.1315  0.2564
93519W        W36432  15.720  30.068  15.828 -0.1134  0.0246 -0.3714
93520W        W36433  31.438  21.703  13.723  0.2191  0.3216 -0.0596
93521W        W36434  24.432  32.210   1.476 -0.0158  0.1797 -0.0301
93522W        W36435  17.112  20.071  13.167 -0.0616  0.2181  0.1555
93523W        W36436  12.537  16.811  14.070 -0.1217  0.0255  0.0697
93524W        W36437  15.310  28.205  25.282  0.1391  0.0487 -0.2639
93525W        W36438  11.750  26.156  23.585  0.1621  0.2601 -0.3421
93526W        W36439  17.855  31.154  28.744 -0.0888  0.0804 -0.0125
93527W        W36440  26.276  26.551  21.988  0.4111  0.1060 -0.1148
93528W        W36441  18.235  25.230  15.151  0.1681  0.2514  0.1393
93529W        W36442  20.134  27.531  24.061  0.1708  0.3861  0.1521
93530W        W36443  19.850   1.903  21.125 -0.2836 -0.0360 -0.1152
93531W        W36444  23.861  22.093  15.511  0.2427  0.1989 -0.1179
93532W        W36445  27.766  14.176   2.015 -0.1275  0.1900 -0.1089
93533W        W36446  14.920  16.646  15.021  0.3093  0.4628  0.1119
93534W        W36447  20.017  12.100  16.781 -0.0832 -0.0814 -0.1309
93535W        W36448  18.419  14.906   2.788 -0.2214 -0.0948  0.3352
93536W        W36449   6.261  21.997  22.549 -0.2084  0.2119  0.0060
93537W        W36450  22.817  22.542  23.285 -0.2197  0.2642 -0.1796
93538W        W36451  22.001  26.862  17.272  0.2732  0.1288  0.1686
93539W        W36452  10.286  32.698  17.424 -0.2237  0.1326 -0.1768
93540W        W36453  16.585  26.731  29.511 -0.1524 -0.0327  0.0790
93541W        W36454  25.036  23.145  27.462  0.0695 -0.1054  0.0997
93542W        W36455  12.730  26.077  18.167  0.2361  0.1380 -0.0726
93543W        W36456  18.333  31.621  28.291 -0.0310  0.0266 -0.0431
93544W        W36457  27.557  32.251  15.858  0.0363 -0.3432  0.2071
93545W        W36458  14.586  17.919  13.289  0.0993 -0.0372  0.1363
93546W        W36459  27.858  31.928   3.437 -0.3647  0.3711 -0.3552
93547W        W36460  13.063  30.828   2.842  0.2749 -0.2375  0.1799
93548W        W36461  22.977  19.333  25.811 -0.3713  0.2598  0.0756
93549W        W36462  30.666  27.935  16.571  0.0731 -0.1619  0.0483
93550W        W36463  18.036  12.757  15.739 -0.0863  0.0998  0.2540
93551W        W36464  21.595  25.012   1.941  0.0567 -0.2879  0.4090
93552W        W36465  10.645  21.063  15.045 -0.0225 -0.1264  0.1833
93553W        W36466  18.126  25.954  25.650 -0.1246  0.3736  0.1636
93554W        W36467   3.249  18.121  27.216 -0.0164 -0.2653  0.0064
93555W        W36468   9.415  30.954  17.484 -0.2772 -0.0614  0.0338
93556W        W36469  23.764  29.410   8.937  0.2329 -0.0266 -0.2102
93557W        W36470  26.284  27.465  21.674 -0.0365  0.1488 -0.0120
93558W        W36471   4.932  22.056  23.849 -0.0657  0.1493 -0.0689
93559W        W36472  24.050  29.270  16.300 -0.0809 -0.0176 -0.0642
93560W        W36473  19.192  27.794  21.383  0.1482 -0.0485 -0.2409
93561W        W36474  19.518  16.528  15.443 -0.1967 -0.1052 -0.0392
93562W        W36475  26.162  20.264  25.505  0.1684 -0.2222  0.0490
93563W        W36476  16.467  27.274  15.913 -0.0807  0.0967  0.4061
93564W        W36477  23.188  25.171   2.974 -0.1983 -0.1857  0.3299
93565W        W36478  13.547  19.717  15.130  0.0454 -0.4029 -0.7276
93566W        W36479  29.089  20.411  18.845 -0.0325  0.0693 -0.1314
93567W        W36480  24.790  19.727  21.312 -0.1950 -0.0924 -0.6618
93568W        W36481  15.270  22.079  18.183  0.0878  0.0798 -0.3337
93569W        W36482  23.478  20.414  28.287 -0.1348 -0.0904  0.3729
93570W        W36483  28.776  14.736  24.945  0.1916 -0.2137  0.1932
93571W        W36484  26.631  27.083  22.724 -0.1209 -0.0133 -0.0468
93572W        W36485  23.177  13.711  21.882  0.0438 -0.0378  0.1124
93573W        W36486  24.784  26.597  26.359  0.3046 -0.2061  0.1065
93574W        W36487  28.070  19.812  24.642 -0.1394 -0.0020  0.3312
93575W        W36488  23.943  17.024   6.963 -0.1147 -0.0078  0.1257
93576W        W36489  20.797  24.668  12.532  0.4095  0.0603 -0.0784
93577W        W36490  17.751  24.304  13.107  0.0414  0.1811  0.2348
93578W        W36491  28.157  16.124  24.747  0.2440 -0.0971  0.0248
93579W        W36492  26.564  24.841  23.458 -0.1381 -0.0719 -0.1097
93580W        W36493  14.422  20.755  27.146  0.3897  0.1546 -0.0799
93581W        W36494  14.359  23.208  14.955 -0.2487 -0.1882  0.3667
93582W        W36495   5.572  23.648  24.508  0.2048 -0.1569 -0.2337
93583W        W36496  23.729  17.030  23.388 -0.0934  0.2246 -0.0752
93584W        W36497  29.802  18.907  28.722 -0.0485  0.0881  0.0158
93585W        W36498  15.965  27.029  15.937  0.1108 -0.1585  0.0046
93586W        W36499  21.724  22.915  20.082 -0.1826 -0.1575 -0.1684
93587W        W36500  19.445  22.161  26.895 -0.0767  0.0430  0.0955
93588W        W36501  15.196  27.817  27.637  0.0021  0.0628 -0.2049
93589W        W36502  21.108  13.900  27.480 -0.2265  0.1971 -0.0496
93590W        W36503  21.750  16.216  27.532  0.1790 -0.1595  0.4107
93591W        W36504  19.194  21.243  18.681 -0.3136  0.1565  0.0573
93592W        W36505  23.318  20.570  17.531  0.1129 -0.0124 -0.2588
93593W        W36506  15.944  32.780  27.748 -0.2504 -0.3582 -0.1594
93594W        W36507  22.449  25.436  20.943 -0.1573  0.0266 -0.1604
93595W        W36508  18.182  27.259  27.605 -0.0928 -0.0459  0.0902
93596W        W36509  18.734  21.671  18.615 -0.0668  0.1163  0.2545
93597W        W36510  18.508  24.372  14.760 -0.0411 -0.0742 -0.1321
93598W        W36511  16.955  23.590  14.637 -0.1413  0.0149  0.0736
93599W        W36512   8.876  21.908   3.033  0.2097 -0.0876  0.0425
93600W        W36513  16.130  10.036  15.226  0.2285  0.0486  0.0102
93601W        W36514  22.312  19.719  27.309  0.2673 -0.1561 -0.0379
93602W        W36515  30.458  21.202  23.141 -0.2085 -0.0440 -0.2335
93603W        W36516  13.529  32.769  17.923 -0.0267 -0.0681  0.1050
93604W        W36517  26.713  16.852  27.588  0.0576 -0.0406 -0.0024
93605W        W36518  25.102  27.127  25.392  0.2148 -0.2099  0.1456
93606W        W36519  29.933   5.741  28.634  0.0384 -0.0842 -0.0973
93607W        W36520  14.293  19.466  29.384  0.1113 -0.5025 -0.2494
93608W        W36521  29.075  13.627  15.261 -0.0095 -0.0488  0.3850
93609W        W36522  23.338  19.014  25.569 -0.1923 -0.0310 -0.2100
93610W        W36523  29.757  17.542  25.168  0.0056  0.1933  0.1483
93611W        W36524  17.172  31.365  16.619  0.2581  0.0075 -0.2173
93612W        W36525  27.115  16.416   2.718 -0.1175  0.2044  0.0469
93613W        W36526  27.409  22.988  16.228  0.0042  0.2234  0.0534
93614W        W36527  27.678  25.924  20.210 -0.1189  0.1806 -0.1136
93615W        W36528  17.928  17.727  12.408 -0.0728 -0.2198  0.0119
93616W        W36529  22.543  13.359  20.173 -0.1530  0.1764 -0.2000
93617W        W36530  17.343  19.694  14.653 -0.1332 -0.1986 -0.1002
93618W        W36531  31.405  25.541  19.160 -0.0956 -0.2370 -0.0503
93619W        W36532  10.283  24.567  28.722  0.0152  0.2805  0.1289
93620W        W36533  14.519  33.517  15.561  0.2711  0.1149  0.1932
93621W        W36534  15.767  24.878  23.420  0.2426  0.0485  0.0242
93622W        W36535   3.937  25.099  21.947 -0.0389 -0.2278  0.1725
93623W        W36536  24.591  17.731  17.062 -0.1908  0.1146 -0.0017
93624W        W36537  26.905  31.166  17.452  0.1770  0.0409  0.0754
93625W        W36538  20.944  24.568  19.604 -0.1913 -0.0698  0.1143
93626W        W36539  13.859  31.042  27.147 -0.2417  0.1480 -0.1764
93627W        W36540  25.013  31.698  28.694  0.0488 -0.0474  0.2875
93628W        W36541  20.589  24.749  21.300  0.2553 -0.0160 -0.1857
93629W        W36542  21.085  24.728  20.447 -0.1300  0.0402  0.1615
93630W        W36543  30.842  19.852  19.076 -0.1155 -0.0926 -0.2332
93631W        W36544  17.988  11.894  17.627  0.3046  0.1520 -0.0654
93632W        W36545  17.987  23.395  15.449 -0.1802 -0.0323 -0.0284
93633W        W36546  26.268   4.259  25.426  0.0707 -0.0207  0.1508
93634W        W36547  33.428  18.125  13.214  0.2248  0.3533  0.1923
93635W        W36548   1.449  17.378  23.597  0.0200 -0.0959 -0.0873
93636W        W36549  27.608  17.400  26.680 -0.1380 -0.2084 -0.1257
93637W        W36550  19.214  23.394  19.877 -0.2204  0.1009 -0.0394
93638W        W36551  20.699  29.340  13.710  0.1143 -0.2264  0.1108
93639W        W36552  29.075  18.243  28.725  0.1492  0.0978  0.2466
93640W        W36553  15.805  20.556  22.304 -0.1427  0.2604 -0.1096
93641W        W36554  29.906  27.824  17.093  0.2725 -0.0827 -0.5978
93642W        W36555  21.413  11.990  24.456  0.1723 -0.0199 -0.1377
93643W        W36556  12.704  23.858   3.971  0.0874 -0.2125  0.2069
93644W        W36557  28.576  31.206   1.253 -0.0123  0.0345 -0.0748
93645W        W36558  27.906  15.536  16.836 -0.0588 -0.0246 -0.2033
93646W        W36559  12.170  24.762  20.865  0.2228 -0.0081 -0.1359
93647W        W36560  12.821  28.281  21.760  0.4132  0.1403  0.1134
93648W        W36561  27.635  15.950  13.356  0.2344  0.1624  0.0683
93649W        W36562  24.488  25.119  20.772 -0.1065  0.1990 -0.3423
93650W        W36563  32.287  28.465  14.137 -0.1413 -0.1902  0.0854
93651W        W36564  33.112  31.293  21.190  0.1662  0.2332  0.0684
93652W        W36565  17.436  33.115  18.631 -0.1942 -0.0390  0.0362
93653W        W36566  19.725  27.944  21.350 -0.3135 -0.3636 -0.0300
93654W        W36567  22.825  22.897  22.489  0.2926 -0.0060 -0.0309
93655W        W36568  24.965  23.280  23.920  0.2206 -0.1562  0.4159
93656W        W36569  21.474  20.375  20.275 -0.0334 -0.3402 -0.0615
93657W        W36570  33.833   7.374  27.679 -0.1418  0.0892 -0.0812
93658W        W36571  22.201  22.679  20.076  0.1654 -0.0659 -0.1458
93659W        W36572  10.274   5.945   2.407  0.1892  0.2872  0.0713
93660W        W36573  32.406  17.669  19.809 -0.3086  0.0441  0.0721
93661W        W36574  22.812  18.747  22.096  0.0457  0.1370  0.0723
93662W        W36575  10.593  23.473   1.354 -0.2157 -0.0161 -0.1411
93663W        W36576  22.846  26.010  17.574 -0.1030 -0.0710 -0.0757
93664W        W36577  26.152   9.023  16.932  0.0165 -0.0989 -0.4564
93665W        W36578  19.246  26.234  18.537  0.4000  0.1862 -0.0430
93666W        W36579  23.673  20.236  20.406 -0.0511 -0.0682  0.0219
93667W        W36580  28.975  20.056  16.023 -0.0003  0.0415  0.2436
93668W        W36581  21.450  20.074  28.428 -0.1786 -0.1283 -0.1178
93669W        W36582  12.348  10.966  18.798 -0.2486 -0.0757  0.1213
93670W        W36583  21.503  24.298  23.308 -0.0272 -0.1022 -0.4551
93671W        W36584  18.022  27.308  20.117  0.3546 -0.0496 -0.1051
93672W        W36585  25.698  23.794  25.701  0.0118  0.1325  0.3564
93673W        W36586  26.098  22.437  18.790  0.0441 -0.0874 -0.2105
93674W        W36587  26.251  30.361  15.143  0.3497 -0.1197 -0.3013
93675W        W36588  16.909  24.591  20.861  0.1224  0.1728  0.0813
93676W        W36589  17.001  29.193  26.898  0.0137 -0.1888 -0.3214
93677W        W36590  28.392  15.421  27.767 -0.1089 -0.1671  0.0409
93678W        W36591  19.920  20.178  29.241 -0.0640  0.2641 -0.0079
93679W        W36592  11.744  27.303  16.655 -0.0557  0.1286  0.0793
93680W        W36593  20.360  22.469  16.448 -0.0626 -0.0088  0.0894
93681W        W36594  23.136  22.240  21.067  0.1611  0.0168 -0.2744
93682W        W36595  26.238  25.397  19.482  0.3944 -0.1912  0.2562
93683W        W36596  18.136  29.975  16.588  0.0298  0.3450  0.0653
93684W        W36597   0.758  28.427  24.557 -0.2027 -0.0920 -0.1865
93685W        W36598  14.365  29.302  24.034 -0.0215 -0.1593 -0.2473
93686W        W36599  20.980  23.236  12.736  0.1431 -0.0579  0.1852
93687W        W36600  22.101  21.974  22.433  0.2659  0.0710 -0.0467
93688W        W36601  33.173  10.199  20.695 -0.3262 -0.0700  0.2418
93689W        W36602  20.585  24.055  23.095 -0.0931 -0.3295  0.5153
93690W        W36603   7.967  23.024  21.613 -0.1974  0.0697 -0.1030
93691W        W36604  23.784  24.438  17.593  0.1154 -0.1389  0.2204
93692W        W36605  24.207  12.521  25.493  0.0403 -0.0433  0.1486
93693W        W36606   6.092  20.328  27.097 -0.2193 -0.1464  0.2318
93694W        W36607  23.763  33.822   2.879 -0.0289 -0.0633 -0.1437
93695W        W36608  17.935  28.456   0.835  0.0263  0.1123  0.2300
93696W        W36609   6.635  12.086  16.002  0.2470  0.2040  0.4224
93697W        W36610  14.503  25.642  17.104  0.2490  0.1660 -0.0893
93698W        W36611  18.018  28.962  23.361  0.1371  0.1283  0.0483
93699W        W36612   9.709  25.993  22.398  0.4021 -0.0895 -0.2356
93700W        W36613   9.129  33.048  17.769 -0.1390  0.0702 -0.1476
93701W        W36614  18.506  23.594  15.572 -0.2341 -0.2559  0.0554
93702W        W36615  18.788  11.315  19.451 -0.1522  0.3749 -0.3776
93703W        W36616  27.332  22.952  14.625  0.3487  0.1072 -0.1092
93704W        W36617  27.676  31.517  21.895  0.0438 -0.1159  0.1741
93705W        W36618  17.631  21.178  13.707 -0.0655 -0.0196 -0.0572
93706W        W36619   9.042  24.963  22.953 -0.2813  0.1436 -0.2101
93707W        W36620  26.211  25.527  21.731 -0.2627  0.3399  0.0693
93708W        W36621  10.641  23.420  15.820  0.2498 -0.1546 -0.0206
93709W        W36622  19.238  24.925   1.856  0.2455 -0.0103  0.0269
93710W        W36623  25.124  26.792  24.880  0.0126 -0.0590  0.0391
93711W        W36624  12.520  21.223  15.717  0.0260  0.1662  0.2348
93712W        W36625  23.665  13.202  14.747  0.0766 -0.0607 -0.2550
93713W        W36626  31.529  29.464  23.108 -0.1523  0.3848  0.0210
93714W        W36627  31.914  22.727  25.743 -0.0480  0.1288  0.2305
93715W        W36628  21.333  32.479  25.280  0.1174  0.1658  0.0383
93716W        W36629  20.010  21.489  18.537 -0.0305 -0.0035  0.0585
93717W        W36630  25.787  23.338  12.224 -0.1024  0.1082  0.2065
93718W        W36631  16.678  26.692   5.126  0.5717  0.0532 -0.1727
93719W        W36632  24.751  10.246  23.186  0.2136 -0.1948  0.1239
93720W        W36633  22.275  23.427  23.326 -0.1673 -0.2778  0.1744
93721W        W36634  16.521   0.685  26.600 -0.0883  0.0572  0.1219
93722W        W36635  28.407  29.671  16.449  0.0830  0.1059  0.0411
93723W        W36636  19.953   9.686  22.424 -0.2043  0.1161 -0.1066
93724W        W36637  23.599  16.651  24.840 -0.1441 -0.3216 -0.0228
93725W        W36638  18.221  23.860  12.884 -0.0767 -0.1537  0.2392
93726W        W36639  11.032  33.028  26.164 -0.2053  0.0235 -0.0845
93727W        W36640  13.666  34.128  22.773 -0.2671  0.4510  0.1789
93728W        W36641  19.971  15.504  29.317  0.1921 -0.3202 -0.0715
93729W        W36642  24.019  19.035  13.445  0.1099  0.0680 -0.1586
93730W        W36643  27.644  26.969  19.137 -0.0175 -0.1384  0.3036
93731W        W36644  14.290  29.365  18.508 -0.1625  0.4838  0.0347
93732W        W36645  26.677  16.188  18.751 -0.0053  0.0597 -0.3761
93733W        W36646  23.298  26.036  20.331  0.1145 -0.0123 -0.1414
93734W        W36647  14.590  22.356  23.856 -0.0477  0.3248  0.1970
93735W        W36648  32.279  31.191  25.851 -0.3945  0.0362 -0.3497
93736W        W36649  23.913  26.928  13.191 -0.0295 -0.0881  0.0479
93737W        W36650  17.908   9.938  14.875  0.0071  0.2423 -0.1896
93738W        W36651  15.538  24.731  16.222 -0.0266  0.2855 -0.0542
93739W        W36652  22.526  13.899  23.180  0.1268 -0.1541 -0.2447
93740W        W36653  22.006  21.755  25.298  0.1027 -0.0308  0.1042
93741W        W36654  17.399   9.543  17.145 -0.2496 -0.2361 -0.0614
93742W        W36655   3.633  24.563   5.509  0.0242 -0.6181 -0.0911
93743W        W36656  29.666  22.030  19.866  0.2602 -0.0928 -0.0742
93744W        W36657  28.497   1.606  19.008  0.3069  0.0470 -0.0635
93745W        W36658  18.818  20.640  26.222  0.1436  0.4976 -0.0622
93746W        W36659  10.331  26.215  25.321  0.2215  0.2047 -0.0375
93747W        W36660  18.217  26.580  22.807 -0.1516 -0.2381  0.0154
93748W        W36661  22.617  23.548   5.542  0.1550  0.0558 -0.3360
93749W        W36662  31.528  13.329  21.898  0.4176  0.0074 -0.0075
93750W        W36663  29.793  23.610  18.562 -0.1033  0.2212 -0.2787
93751W        W36664  16.801  21.093  25.979 -0.3464 -0.1978 -0.3093
93752W        W36665  19.214  25.531  29.475 -0.0516 -0.1460  0.1509
93753W        W36666  24.793  22.980  29.526 -0.2635  0.0801  0.0297
93754W        W36667  21.476  30.618  16.625 -0.2348  0.0411  0.0452
93755W        W36668  20.459  14.249   5.769 -0.0227  0.2622  0.0040
93756W        W36669   7.518  22.783  27.713  0.0546  0.1136 -0.3584
93757W        W36670  25.330  16.512  23.647 -0.0922 -0.1259 -0.0288
93758W        W36671  16.714  13.749   0.834  0.1667  0.0696  0.0256
93759W        W36672  18.125  20.676  27.317 -0.0069  0.2021 -0.0366
93760W        W36673   6.422  19.218   2.498  0.3375 -0.0121  0.0011
93761W        W36674  29.999  27.152  18.620 -0.0450  0.1007  0.1669
93762W        W36675  12.096  30.616  21.657  0.1305  0.2072 -0.0582
93763W        W36676  12.737  21.044  16.739  0.0772  0.0659 -0.2091
93764W        W36677  23.454  29.524  20.876 -0.0470  0.1731  0.2933
93765W        W36678  26.451  20.156  20.759  0.2640 -0.0513  0.0366
93766W        W36679  26.074  31.933   0.795 -0.1271 -0.0985 -0.1540
93767W        W36680  33.219  27.102  21.667 -0.0298  0.2885 -0.0728
93768W        W36681  16.811  25.976   3.500  0.2158 -0.0604 -0.1186
93769W        W36682  17.193  26.218  27.212  0.0397  0.1207  0.0888
93770W        W36683  14.829  26.226  26.742  0.2159  0.1981 -0.1303
93771W        W36684  25.701  19.420  29.186 -0.0271  0.0075  0.2734
93772W        W36685  13.663   7.831  26.703 -0.1569  0.0182 -0.0995
93773W        W36686  19.822  24.740  21.927 -0.2972 -0.2010 -0.1042
93774W        W36687  27.245  24.896   4.201 -0.2900 -0.5843  0.3101
93775W        W36688  11.811  20.175   5.482  0.2184 -0.1101  0.1948
93776W        W36689  23.201  26.890  23.133  0.0982  0.1065 -0.1379
93777W        W36690  18.185  16.663  28.619 -0.1658  0.2014  0.2038
93778W        W36691  21.107  16.196  12.496 -0.0453 -0.5085 -0.3169
93779W        W36692  21.404  22.798  29.648  0.1676  0.0587 -0.0340
93780W        W36693  24.782  34.430  21.369 -0.1727  0.0131 -0.3745
93781W        W36694  23.360  27.772  14.994 -0.0567  0.0481 -0.0571
93782W        W36695  16.829  24.649  14.690  0.1778  0.0869  0.0235
93783W        W36696  27.201  16.981  19.790  0.1168  0.1707 -0.0598
93784W        W36697  16.426  22.725   8.117 -0.3023 -0.2949  0.1952
93785W        W36698  21.638  15.405   1.578 -0.0075 -0.1222  0.5039
93786W        W36699  12.796  30.516  25.267  0.1065  0.0644 -0.2231
93787W        W36700  21.952   6.441   4.144  0.1351  0.1402 -0.0005
93788W        W36701  26.318  21.557   3.468  0.0508 -0.0349  0.0046
93789W        W36702  29.171  19.801  26.126 -0.0382 -0.2068 -0.1180
93790W        W36703  13.838  18.325  24.835 -0.2485 -0.1678  0.3057
93791W        W36704   0.061  31.638   3.001 -0.0146 -0.4214  0.4266
93792W        W36705  23.353  21.790  25.077  0.1387 -0.4312  0.1376
93793W        W36706  14.515  24.948   5.273 -0.1441  0.3648  0.0584
93794W        W36707  17.069  20.850  12.023 -0.1597 -0.0737 -0.0003
93795W        W36708  24.367  18.480   4.228 -0.1203 -0.1956  0.0424
93796W        W36709  19.403  28.426   1.673  0.2688 -0.0192  0.1691
93797W        W36710  14.323  24.812  21.174 -0.0356 -0.0810  0.0035
93798W        W36711  21.889  21.893  25.894  0.3579  0.0387 -0.0409
93799W        W36712  11.253  12.702  25.937  0.0474  0.2957 -0.0950
93800W        W36713  12.666  23.029  26.062  0.2584  0.0352 -0.3235
93801W        W36714  18.365  30.511   7.094 -0.0478  0.0966  0.1325
93802W        W36715  16.220  30.021  27.721 -0.1695 -0.2404  0.2094
93803W        W36716  28.521  15.834  21.979 -0.2213  0.3003  0.2003
93804W        W36717  21.558  20.177   0.494  0.3206 -0.0586 -0.2288
93805W        W36718  30.244  29.150  14.536 -0.1926  0.0142 -0.2513
93806W        W36719  14.331  24.808  21.701 -0.2164 -0.1758 -0.0236
93807W        W36720  21.373  30.372  23.188  0.0833  0.0687 -0.1373
93808W        W36721  31.048  21.545   7.764  0.1982 -0.0916  0.2469
93809W        W36722   8.708   9.483  19.589  0.0636  0.0914 -0.1418
93810W        W36723  21.639  19.043  18.441  0.2389 -0.1701  0.0395
93811W        W36724  17.394  25.116  25.406 -0.1138  0.1683 -0.1463
93812W        W36725  28.921  24.046   1.338 -0.3055 -0.3043 -0.0131
93813W        W36726  13.131  12.891   2.259  0.0721  0.2248 -0.2182
93814W        W36727  22.165  28.654   0.428  0.1787  0.1599  0.0141
93815W        W36728  22.695  20.560  13.215  0.5189 -0.0286  0.1209
93816W        W36729  27.941  21.629  29.712  0.1182  0.0923  0.1194
93817W        W36730  27.198  33.660  26.615  0.0828  0.1557 -0.0018
93818W        W36731  24.536  21.518  18.152 -0.0203 -0.0514  0.1804
93819W        W36732  29.645  27.595  28.808 -0.0247 -0.0116  0.0111
93820W        W36733  15.070  22.521  21.636 -0.2354  0.0452  0.5744
93821W        W36734  14.762  20.781  19.963 -0.0900  0.0222  0.3312
93822W        W36735  21.363  19.313  20.367  0.2123 -0.3117 -0.0883
93823W        W36736  24.536  26.818   4.990 -0.0979 -0.1755  0.2568
93824W        W36737  14.033  20.083   1.863  0.0293 -0.1989 -0.3475
93825W        W36738  16.584  15.423  22.588  0.0309 -0.0299 -0.3130
93826W        W36739  11.168  30.328   7.295  0.4194  0.2271 -0.1872
93827W        W36740  28.038  22.088  18.730  0.0851 -0.1000  0.0942
93828W        W36741  19.142  30.435   1.035 -0.2895 -0.2112  0.0325
93829W        W36742  21.686  25.757   2.758 -0.0300  0.0013  0.1392
93830W        W36743  29.867  20.554  21.852  0.2019  0.0022 -0.0160
93831W        W36744  20.835  26.970  28.654  0.0404  0.2531  0.0032
93832W        W36745  17.625  29.246  21.025 -0.2613 -0.0230 -0.2781
93833W        W36746   3.188  13.712  16.172  0.0945  0.0049 -0.2333
93834W        W36747  27.673  13.397  25.269 -0.1076 -0.1951 -0.0591
93835W        W36748  20.345  30.392  22.545  0.0087 -0.0205  0.0005
93836W        W36749  23.272  29.032   7.267  0.1276 -0.2325 -0.0513
93837W        W36750  18.662  23.362  13.978 -0.0467  0.1748  0.2266
93838W        W36751  14.401  14.040  28.499  0.2812  0.0861  0.0457
93839W        W36752  22.691  25.499   0.256 -0.0627  0.0316  0.0135
93840W        W36753  22.647  23.189  13.321 -0.1079  0.3386  0.2690
93841W        W36754  26.470  24.725   5.568  0.0338  0.5363  0.0480
93842W        W36755   6.472  18.569   0.374  0.1435  0.1315  0.3500
93843W        W36756  26.524  17.155  20.814 -0.1992 -0.0894  0.0249
93844W        W36757  18.714  23.600  24.279  0.1302  0.0862  0.1830
93845W        W36758  20.329  14.679  27.621  0.0598 -0.0237  0.1052
93846W        W36759  20.371  23.170   2.252 -0.1526 -0.1674  0.0644
93847W        W36760  28.789  28.835  24.007  0.2528  0.3070 -0.3196
93848W        W36761  17.382  31.568  25.239  0.0605  0.1963 -0.1163
93849W        W36762  27.673  33.153   3.428 -0.2386  0.3156  0.1613
93850W        W36763   5.991  14.029  28.096 -0.0322  0.0084 -0.0048
93851W        W36764  18.087  21.042  29.583  0.1254 -0.2889 -0.1968
93852W        W36765  21.241  27.029  27.241 -0.1725  0.2310 -0.1045
93853W        W36766  26.381  26.493   4.004  0.1671  0.1965 -0.1699
93854W        W36767  18.358   0.481  23.271 -0.1349  0.3942  0.0411
93855W        W36768  23.525  32.599  18.508 -0.4293 -0.3027 -0.2222
93856W        W36769  22.520  18.894  29.498 -0.4598 -0.0567 -0.0772
93857W        W36770  20.733   2.709   7.534  0.0855 -0.1005  0.1215
93858W        W36771  19.495  19.019  25.447 -0.1977  0.3596  0.0923
93859W        W36772  14.476  19.955  29.295  0.2959 -0.1727  0.0819
93860W        W36773  24.095   1.499   9.625 -0.3012 -0.2513  0.1933
93861W        W36774  20.816  29.695  22.764  0.2623  0.0298  0.2359
93862W        W36775   9.092  19.553  25.457  0.4355  0.3239  0.1906
93863W        W36776  27.399  31.006   3.244  0.1390  0.0177 -0.0584
93864W        W36777  31.298  30.650  16.338 -0.3747  0.0342  0.3185
93865W        W36778  20.511  20.939  25.328  0.2069 -0.1928  0.2112
93866W        W36779  13.326  28.098   3.364 -0.3172  0.0712 -0.0803
93867W        W36780  19.136  13.908  20.824 -0.2033  0.1369  0.0578
93868W        W36781  31.005  29.872  25.647  0.2548 -0.0606  0.1827
93869W        W36782  19.378  25.349  16.905 -0.0706 -0.1323  0.1695
93870W        W36783   4.774  31.012  28.128 -0.1929  0.0456 -0.0999
93871W        W36784  18.293  23.554   0.256 -0.1794  0.2329  0.0543
93872W        W36785  22.395  33.003  22.032  0.1517 -0.0624  0.4584
93873W        W36786  17.427  23.808  21.440  0.1255 -0.0370  0.2519
93874W        W36787  24.498  25.232   0.061 -0.0539 -0.0231  0.0182
93875W        W36788  15.983  18.168  22.488  0.1959  0.2493  0.1090
93876W        W36789   5.810  15.275  21.588  0.2486  0.1042  0.0827
93877W        W36790  25.808   2.868   6.040 -0.3413 -0.3983 -0.0927
93878W        W36791  17.970  16.215   3.833  0.1610  0.2785 -0.1251
93879W        W36792  28.863  25.909   0.601 -0.0097 -0.2292 -0.1278
93880W        W36793  20.732  24.312  13.409  0.1845  0.0390 -0.2715
93881W        W36794  19.361  32.210  22.767  0.2977  0.1576  0.2798
93882W        W36795  20.659  27.521  20.631  0.1409 -0.1138 -0.0363
93883W        W36796   7.794  21.441  28.579 -0.0273  0.0749 -0.2870
93884W        W36797  16.085  26.984  23.084 -0.3588  0.0816 -0.4764
93885W        W36798  22.057  17.022  25.153  0.0961  0.3301  0.2923
93886W        W36799   8.440  23.677  22.630  0.1721 -0.1249 -0.1134
93887W        W36800  17.559  24.370  20.383 -0.1588  0.1991  0.3666
93888W        W36801  29.583  22.314  24.171  0.0109 -0.0301 -0.0543
93889W        W36802  16.659  28.499   4.334 -0.1355  0.1215 -0.1526
93890W        W36803  13.567  15.969   5.183 -0.0900  0.2501 -0.1271
93891W        W36804  14.970  19.016   4.321 -0.3217 -0.1871 -0.0006
93892W        W36805  24.155   0.888   3.077  0.1738  0.1482 -0.0605
93893W        W36806  16.308  19.278  22.979 -0.0222  0.1414  0.2503
93894W        W36807  16.066  24.839  18.757 -0.3388  0.2219 -0.0067
93895W        W36808  16.297  24.278  29.205  0.1435 -0.1231  0.1368
93896W        W36809  18.180  29.131  26.921  0.1307  0.1533 -0.3022
93897W        W36810  16.674  25.443  20.811  0.0039 -0.0904 -0.0095
93898W        W36811  10.047  24.667  27.060 -0.0457 -0.0133  0.1870
93899W        W36812  22.969  30.169  28.246  0.3208 -0.0924 -0.0623
93900W        W36813  12.566  19.182   1.027 -0.5094  0.1162 -0.2283
93901W        W36814  23.348  20.252  25.988 -0.0221 -0.3213  0.6131
93902W        W36815  11.402  27.758  28.536  0.1438 -0.0443 -0.2413
93903W        W36816   8.903  32.792  17.051 -0.2411 -0.0191  0.0218
93904W        W36817  21.826  17.774  25.832  0.3695  0.2629  0.2876
93905W        W36818  21.942  14.090  26.284 -0.1129 -0.0361  0.2402
93906W        W36819   8.288  21.082   3.415 -0.1600 -0.1914  0.1018
93907W        W36820  15.276   4.936  21.041  0.3284  0.0570 -0.0564
93908W        W36821  25.723  19.770   3.931 -0.1830 -0.3154 -0.2484
93909W        W36822  15.592  25.466  19.053  0.2572 -0.1849  0.2833
93910W        W36823  23.591  27.852   1.736 -0.2437 -0.0743  0.2577
93911W        W36824  13.141  26.394  24.636 -0.1515 -0.0884  0.1448
93912W        W36825   0.408  23.536  22.714 -0.0981 -0.0929  0.1279
93913W        W36826   6.883  20.165   4.623 -0.6133  0.1851  0.1623
93914W        W36827  30.967  25.281   1.327 -0.1833 -0.0790 -0.1877
93915W        W36828  12.870  13.619  18.868 -0.1227  0.0313 -0.0758
93916W        W36829   7.128  26.466  25.727 -0.0411  0.0693  0.0519
93917W        W36830  25.679  17.698  26.764 -0.0256  0.0015  0.2374
93918W        W36831  17.943  19.131  22.620 -0.0626 -0.3278  0.0269
93919W        W36832  25.964  32.263  29.255 -0.0512 -0.0018  0.0090
93920W        W36833  22.804  23.589  18.901  0.0430  0.0295 -0.1655
93921W        W36834  10.927  29.674   3.829 -0.1426 -0.0468  0.2231
93922W        W36835  17.046  17.299   1.250 -0.1022 -0.1489 -0.4096
93923W        W36836  15.450  19.190  15.430 -0.1144 -0.1599  0.0782
93924W        W36837  16.505  20.895  14.685 -0.0893  0.0986 -0.1069
93925W        W36838  11.836  19.486  18.391 -0.2755  0.1067 -0.1681
93926W        W36839  14.744  18.292  28.270  0.3122 -0.2617  0.1636
93927W        W36840  22.429  28.319   0.043 -0.0659  0.0118  0.1705
93928W        W36841  16.930  17.153  18.554  0.1173  0.0439 -0.0139
93929W        W36842  25.224  20.449   0.344  0.1521 -0.1077 -0.0131
93930W        W36843  23.011  20.234   5.590  0.0240  0.1719 -0.1157
93931W        W36844  17.435  22.340  21.761  0.1775  0.1113 -0.0948
93932W        W36845  16.526  15.772  29.324  0.0807  0.0418 -0.0697
93933W        W36846  29.462  24.250  16.925 -0.1796  0.0716  0.1979
93934W        W36847  22.050  20.553  26.045 -0.2692 -0.3022  0.0082
93935W        W36848  11.464  24.261  28.165 -0.4493 -0.1041  0.0084
93936W        W36849   8.894  28.497   6.420  0.2252 -0.0051  0.2409
93937W        W36850   9.495  31.490   1.553  0.2494 -0.3064  0.0091
93938W        W36851  23.444  19.012   6.388  0.0446  0.2766  0.2133
93939W        W36852  12.738  25.105   1.683  0.0480  0.0311  0.1863
93940W        W36853  17.212   9.180   0.713  0.2183  0.1779  0.2819
93941W        W36854   8.967   1.508  19.419  0.1677 -0.0342  0.2466
93942W        W36855  20.054  16.282  25.160 -0.2648 -0.1357  0.1134
93943W        W36856  19.449  24.410  21.915  0.1379  0.2529  0.0261
93944W        W36857   0.910  21.501  23.037  0.0296 -0.0001 -0.1170
93945W        W36858  16.747  28.369  18.591 -0.2025 -0.0401 -0.1095
93946W        W36859  20.310  25.843  18.965 -0.0561  0.1051  0.4842
93947W        W36860   9.417  26.883  18.535  0.1542 -0.0167  0.1424
93948W        W36861  26.297  21.873  20.040  0.0888 -0.0221  0.2094
93949W        W36862  11.829  24.084  29.454  0.0767 -0.0752 -0.1358
93950W        W36863  24.733  22.576  24.935 -0.1447 -0.0565  0.1287
93951W        W36864  22.378  32.802  28.990 -0.2744 -0.0682 -0.1041
93952W        W36865  17.096  29.135  28.133  0.0418  0.2227 -0.0248
93953W        W36866  14.191  27.212  19.913  0.1771  0.0778  0.1763
93954W        W36867  19.893  22.589  17.658  0.1237 -0.1665 -0.0848
93955W        W36868  20.689  24.734   0.640  0.0378  0.0716  0.1205
93956W        W36869  23.501  31.591  27.910  0.0808 -0.0464 -0.2019
93957W        W36870  16.809  24.624  25.051  0.1746  0.0408 -0.0663
93958W        W36871  20.852  14.507  27.261  0.2236 -0.1171  0.3737
93959W        W36872  15.594  21.152  25.237 -0.3627  0.0428 -0.1853
93960W        W36873  13.848  19.091  21.543  0.3736 -0.3218  0.2323
93961W        W36874  18.970  26.756  21.436 -0.1815  0.0948  0.2931
93962W        W36875  22.475  12.427  18.147  0.0950  0.4404 -0.2944
93963W        W36876  31.582  26.884  28.538  0.1164  0.2725  0.1545
93964W        W36877  24.042  11.747  28.050  0.0408 -0.1123  0.1060
93965W        W36878  16.426  26.889  28.286 -0.0561  0.1283 -0.1481
93966W        W36879  13.837  25.330  23.086  0.0345 -0.0564  0.1421
93967W        W36880  27.761  20.611  15.590  0.0126  0.2591  0.3391
93968W        W36881   0.820  23.092  27.669  0.1189  0.0654 -0.2817
93969W        W36882  13.864  20.562  23.719  0.0659  0.1030 -0.0103
93970W        W36883  24.534  17.705  25.819  0.2911  0.1477  0.1154
93971W        W36884  22.937  21.513  23.192  0.2178  0.0504 -0.1393
93972W        W36885  15.386  28.905  25.642  0.2629  0.1067  0.2932
93973W        W36886  28.951  13.678   0.803 -0.1435 -0.0407 -0.1061
93974W        W36887  20.143  24.649  26.234 -0.2687 -0.0545 -0.0872
93975W        W36888  10.015  16.476   2.687  0.3102 -0.1654 -0.3036
93976W        W36889  27.914  23.995  26.085  0.3208  0.0648 -0.0881
93977W        W36890  28.128  24.896  25.699 -0.0551 -0.3237 -0.0644
93978W        W36891  16.302  25.962  16.081  0.1182 -0.0160  0.0541
93979W        W36892  15.757  24.689   0.451 -0.0136 -0.0124  0.1407
93980W        W36893  17.982  16.342  17.924  0.3801 -0.1462  0.0773
93981W        W36894  25.591   0.237  20.299 -0.3053  0.0597  0.1148
93982W        W36895  22.619  24.140  27.101 -0.0915 -0.1056 -0.2306
93983W        W36896  23.153  18.506  13.037 -0.1644 -0.0696 -0.0722
93984W        W36897  18.591  25.676  27.320  0.1985 -0.1068 -0.1880
93985W        W36898  13.567  21.632  19.622 -0.0347  0.0420  0.0355
93986W        W36899  23.037  23.180  23.898  0.0068  0.1645  0.0253
93987W        W36900  18.570  20.898  22.830  0.2996  0.3886  0.2555
93988W        W36901  10.533  26.459   7.537 -0.1277  0.0976 -0.1422
93989W        W36902  29.538  21.998  24.641  0.1393  0.1775  0.1557
93990W        W36903  15.008   2.587  18.391  0.4413 -0.0238  0.2372
93991W        W36904  13.399  23.503  23.495 -0.2450  0.0438 -0.0043
93992W        W36905  22.047  18.390   2.705 -0.2074 -0.0662 -0.3791
93993W        W36906  19.567  21.722  20.394 -0.4087  0.3261  0.0977
93994W        W36907  13.025  31.943  21.633  0.2513  0.0657  0.1373
93995W        W36908  19.869  20.441  19.309 -0.1061  0.0149  0.1362
93996W        W36909  13.646  31.937  21.107 -0.1363 -0.2309  0.0996
93997W        W36910  25.880  19.486  14.926  0.0451  0.0069  0.0964
93998W        W36911  26.416  16.633   3.315 -0.0173  0.1296 -0.2726
93999W        W36912   9.648  21.191   4.059 -0.3141 -0.4590 -0.0783
94000W        W36913  11.550  25.517   2.572  0.0858 -0.0365  0.0621
94001W        W36914  12.212  16.848   6.569  0.0288  0.2083  0.0416
94002W        W36915  18.678  23.200  27.243  0.3456  0.1518  0.0794
94003W        W36916  11.396  24.416  26.206 -0.1145 -0.1614  0.0697
94004W        W36917  12.619  19.724  21.694  0.1446  0.4227 -0.0494
94005W        W36918  19.058  20.965  16.699 -0.1002  0.2421 -0.1858
94006W        W36919  17.158  19.126   8.005 -0.1573  0.0066  0.0160
94007W        W36920  21.068  29.544   7.510 -0.2100 -0.1232  0.0667
94008W        W36921  21.908  17.457   4.983 -0.3026 -0.1890  0.1906
94009W        W36922  17.335  32.802   5.614  0.1029  0.3047  0.0014
94010W        W36923  12.703  19.183   3.088  0.4288 -0.0732  0.1769
94011W        W36924  14.139  33.901   8.113 -0.1563 -0.1639  0.0937
94012W        W36925  22.090  16.167  24.135  0.0446  0.2156  0.2430
94013W        W36926  14.622  20.582  19.224 -0.4128 -0.0787  0.2668
94014W        W36927  18.568  20.064  21.660  0.2380  0.1778 -0.2802
94015W        W36928  14.199  16.802  21.485  0.1245 -0.1957  0.0037
94016W        W36929   2.603  30.354  29.610  0.0442  0.1972  0.2181
94017W        W36930  15.987  20.393   4.701  0.2891  0.0353 -0.1127
94018W        W36931  19.577  26.464  27.525  0.1751 -0.2261  0.3160
94019W        W36932  20.286  22.312  21.785  0.0167 -0.3579 -0.0258
94020W        W36933  14.936  26.069   9.550  0.2212  0.0787  0.3046
94021W        W36934  29.929  20.468  22.777  0.1002 -0.0218  0.1903
94022W        W36935  18.938  30.294  25.368 -0.1702  0.3304  0.1048
94023W        W36936  14.204  27.664   1.347  0.0446  0.0393  0.1090
94024W        W36937  23.639  26.430  20.145  0.1159 -0.3840 -0.2783
94025W        W36938  17.367  23.464   3.314 -0.2147  0.2361 -0.0815
94026W        W36939  22.346  16.010   1.937  0.1625 -0.1125 -0.0569
94027W        W36940  14.937  19.462  13.381 -0.0164 -0.2845 -0.1550
94028W        W36941  23.840  13.450  25.251  0.1004 -0.2148 -0.1097
94029W        W36942  14.101  31.233   1.083  0.1513  0.0596  0.2205
94030W        W36943  15.860  24.674  29.044  0.3834  0.1930 -0.0510
94031W        W36944  17.239  21.402  21.144  0.1626 -0.2276 -0.0433
94032W        W36945   7.333  30.354  17.924  0.0749  0.1950  0.0976
94033W        W36946  12.577  24.645   8.363  0.3290 -0.0781  0.0740
94034W        W36947  16.924  32.255  26.380 -0.2458 -0.0362  0.2022
94035W        W36948  17.256  20.198   5.382  0.0702 -0.1559  0.0427
94036W        W36949   9.040  26.454  23.185  0.1577 -0.0614 -0.1475
94037W        W36950  22.145  17.295  27.435  0.1592  0.1684  0.0032
94038W        W36951  18.214  31.265   3.514 -0.1805  0.0167  0.0560
94039W        W36952   9.453  27.884   2.891 -0.1025 -0.1606  0.1387
94040W        W36953  15.431  10.798   1.250 -0.0499 -0.0500 -0.0082
94041W        W36954  23.234  16.512  23.607 -0.1068  0.3485  0.2357
94042W        W36955  28.404  21.661  13.193  0.3064  0.1853  0.2932
94043W        W36956  20.746  16.567  28.424  0.0556  0.1773 -0.1204
94044W        W36957  25.825  28.223   4.807  0.0439  0.0195 -0.0487
94045W        W36958  27.568  24.720   5.057 -0.1991 -0.0138 -0.4148
94046W        W36959  17.675  22.785  21.632  0.0378  0.3071 -0.1947
94047W        W36960  12.944  24.160  26.153 -0.0635  0.1000 -0.1766
94048W        W36961  19.669  22.093  21.104 -0.5192  0.0101  0.0573
94049W        W36962   9.704  23.626   2.656  0.3433  0.0801 -0.3332
94050W        W36963  17.904  27.862   5.353 -0.3544  0.1805 -0.3375
94051W        W36964  25.962  18.830  17.450 -0.0254  0.2084 -0.0660
94052W        W36965  17.147  19.778   7.141 -0.3901 -0.1769 -0.1497
94053W        W36966  25.674  13.025  24.312  0.0221 -0.0961 -0.0462
94054W        W36967  21.521  24.992   7.332 -0.0538 -0.1446 -0.1291
94055W        W36968  32.662  12.397  19.198 -0.1180  0.0466  0.1072
94056W        W36969   7.705  19.128  29.715 -0.2338 -0.2137  0.3850
94057W        W36970  21.526  16.639  27.483  0.0863  0.0357 -0.3026
94058W        W36971  14.967  24.565   6.872 -0.4713  0.1900 -0.0267
94059W        W36972  25.536  24.530  23.544  0.0593  0.2907 -0.0232
94060W        W36973  21.162  28.488  26.124  0.0113  0.4134  0.2825
94061W        W36974  15.253  22.634   1.935  0.1972 -0.0723  0.0203
94062W        W36975  14.988  28.161   4.625  0.3462 -0.0771  0.1254
94063W        W36976  12.744  23.085   4.560  0.0526  0.0620 -0.1577
94064W        W36977  20.793  22.254  28.534 -0.0266 -0.1851  0.2523
94065W        W36978   5.900  19.397   1.576 -0.0577 -0.0883 -0.0870
94066W        W36979  15.718  34.052  16.861  0.0188 -0.0691  0.0145
94067W        W36980   9.814  23.787  28.598 -0.0217 -0.2744  0.4327
94068W        W36981  12.534  19.622  22.254  0.0757 -0.1481  0.0067
94069W        W36982  13.649  17.803   2.601 -0.1882 -0.0268  0.1767
94070W        W36983  10.411  24.804  24.211 -0.3102  0.0992 -0.1552
94071W        W36984  24.781  33.680  24.789  0.1433  0.1245  0.1725
94072W        W36985  18.801  28.897   0.554 -0.1185 -0.1181 -0.3262
94073W        W36986   8.941  22.127  28.976 -0.0578 -0.0560 -0.0579
94074W        W36987  18.275  33.132  27.219  0.1539 -0.0075 -0.0304
94075W        W36988  20.751   9.581   0.563 -0.2519  0.0856  0.0064
94076W        W36989  24.867  21.286  16.371  0.1185 -0.1728 -0.1571
94077W        W36990   8.367  19.757  27.507 -0.2825  0.1270  0.2557
94078W        W36991  17.769  30.025  27.951 -0.1821 -0.0452  0.2113
94079W        W36992  11.577  21.474   5.477 -0.0893  0.2707 -0.3958
94080W        W36993  16.004  23.686  28.055  0.0986  0.3664  0.1410
94081W        W36994  21.194  23.295  27.465 -0.1246  0.3420  0.0075
94082W        W36995  21.492  12.992  20.697 -0.0441  0.0388 -0.0171
94083W        W36996  20.585  22.621   4.157  0.2470 -0.3869 -0.2355
94084W        W36997  14.084  24.664   5.059 -0.3122 -0.0554  0.0043
94085W        W36998  23.097  20.942  26.592 -0.0990 -0.0812  0.0676
94086W        W36999  24.548  28.782  27.555  0.4276  0.0455 -0.1128
94087W        W37000  19.921  24.997  19.816  0.2791 -0.0359  0.0277
94088W        W37001  28.749  20.123  14.127  0.0311 -0.0102 -0.0479
94089W        W37002  30.415  34.291  24.626 -0.1592 -0.0504  0.0958
94090W        W37003  11.194  24.095  27.113  0.1204 -0.4697 -0.0620
94091W        W37004  23.038  15.433   0.449  0.0275  0.0573 -0.2908
94092W        W37005  12.565   2.351  28.095  0.0512  0.3152  0.2453
94093W        W37006  10.788  26.009   8.764 -0.2419 -0.1676 -0.1025
94094W        W37007  21.475  16.930  22.683 -0.1469  0.0510  0.0086
94095W        W37008  13.654   7.000  28.205  0.1826 -0.0134  0.0874
94096W        W37009  11.325  24.827   2.912  0.2535 -0.0256  0.2077
94097W        W37010  10.968  20.770  18.684  0.1747 -0.1166 -0.2184
94098W        W37011  15.786  20.273  28.556  0.2733  0.0997  0.1499
94099W        W37012  17.907  28.618   2.823  0.4095 -0.4239 -0.4085
94100W        W37013  18.753  34.067  19.917  0.0932  0.2056  0.0075
94101W        W37014  27.634   7.879  28.213  0.3574  0.0058  0.0756
94102W        W37015  26.116  22.703  24.259  0.0012 -0.1628 -0.0115
94103W        W37016  22.367  19.891  15.823 -0.0244 -0.0807 -0.1877
94104W        W37017  24.523  23.880   2.049 -0.2938 -0.0044 -0.1548
94105W        W37018  33.207  19.534  21.122  0.1527 -0.1999 -0.1090
94106W        W37019  28.911  26.450  25.029  0.1892  0.0774 -0.2076
94107W        W37020   8.329  29.606   2.061 -0.1479  0.0909  0.3547
94108W        W37021  14.439  20.833  22.601 -0.1769 -0.0572  0.0757
94109W        W37022  20.814  19.664  24.720 -0.2299  0.0352 -0.1357
94110W        W37023  20.092  28.366   0.057 -0.0612  0.0231  0.1861
94111W        W37024  25.563  24.586   5.132 -0.2143 -0.0047  0.0299
94112W        W37025   7.953  31.088  19.809 -0.1085 -0.1805 -0.2049
94113W        W37026  10.654  25.050  29.082  0.1204 -0.1041 -0.1282
94114W        W37027  20.895  17.547   5.945 -0.1324  0.1112 -0.0881
94115W        W37028  13.068  29.454  26.596  0.2055 -0.1243 -0.0610
94116W        W37029  15.050  27.291  27.364 -0.0967  0.0261 -0.1348
94117W        W37030  28.990   2.381  18.489 -0.1074  0.3798  0.4589
94118W        W37031  23.617  28.510  21.112 -0.3490  0.0449  0.0790
94119W        W37032  26.849  22.723  16.831  0.1250 -0.0259  0.1717
94120W        W37033  13.406  15.577   4.722  0.0156  0.0045 -0.0186
94121W        W37034  23.594  24.389  25.305  0.2692 -0.0653 -0.2278
94122W        W37035  25.004  32.776   9.794 -0.0532  0.1151 -0.0317
94123W        W37036  18.407  28.226  28.996  0.0856 -0.1413 -0.1118
94124W        W37037  20.646  16.808  23.742  0.0105  0.4543 -0.2024
94125W        W37038  20.221  19.329  27.678  0.2217 -0.0497  0.0079
94126W        W37039  11.468  22.444   0.626  0.1685 -0.0835 -0.1779
94127W        W37040  12.848   5.961   0.540  0.0477 -0.1320  0.0942
94128W        W37041  15.320  16.506   1.074 -0.1882 -0.2504  0.0087
94129W        W37042  23.479   1.160  28.268  0.3415  0.2899 -0.1934
94130W        W37043  23.143  25.229  20.861 -0.0296  0.0959 -0.1171
94131W        W37044  20.414  24.293  21.135 -0.1814  0.1134  0.1751
94132W        W37045  23.595  12.838  27.466 -0.0692 -0.3302 -0.1438
94133W        W37046  23.895  17.093  28.438  0.2157 -0.4517  0.2429
94134W        W37047  30.359  27.019   3.045  0.0215 -0.3009 -0.0384
94135W        W37048  16.315  29.989   3.060  0.1308 -0.3124 -0.3670
94136W        W37049  15.708  24.985  29.727 -0.2682  0.2484 -0.2254
94137W        W37050  20.102  17.464  24.090  0.4241  0.0128  0.0362
94138W        W37051  15.534  24.590  21.042 -0.0236 -0.0242 -0.1471
94139W        W37052  11.941  22.192  29.767  0.0714  0.1105  0.1904
94140W        W37053   6.559  19.237   1.779 -0.2594  0.0523  0.0604
94141W        W37054  27.090  25.444  22.223 -0.4665 -0.1978 -0.1962
94142W        W37055  14.481   9.589  24.984  0.0479 -0.1100 -0.0801
94143W        W37056  20.208  14.801  23.118  0.3663  0.3238 -0.2615
94144W        W37057  11.240  19.917  27.678  0.0144  0.1277  0.1370
94145W        W37058  21.640  13.369   2.471  0.2259 -0.3569  0.3044
94146W        W37059  23.718  29.415   8.408  0.1765  0.0615 -0.0096
94147W        W37060  21.799  19.618  19.763 -0.1128 -0.2163  0.2700
94148W        W37061   0.801  29.883  25.663 -0.0160 -0.0226  0.0218
94149W        W37062  14.209  33.354   7.368 -0.1669 -0.0142 -0.0199
94150W        W37063  10.210  20.210  23.732 -0.2935  0.0068 -0.2516
94151W        W37064  18.140  25.335  26.605  0.0810  0.2403 -0.1918
94152W        W37065  13.546  16.927  28.655  0.3761  0.1448 -0.1251
94153W        W37066  18.569  18.139  24.366 -0.0835  0.0590 -0.2698
94154W        W37067  14.637  31.143  19.843 -0.0595 -0.2573  0.2157
94155W        W37068  22.180  25.026  26.519 -0.0474 -0.3593 -0.2309
94156W        W37069  16.945  23.082   2.564  0.0049  0.1060 -0.0697
94157W        W37070  20.534  18.466   2.245 -0.0135  0.1160 -0.0092
94158W        W37071  10.825  30.909   9.283 -0.0420  0.0715 -0.0467
94159W        W37072  22.129  29.538  20.271  0.1484  0.0443  0.0651
94160W        W37073  11.594  19.813   6.824 -0.0077 -0.1833  0.1094
94161W        W37074  17.813  12.213   5.832 -0.3663  0.0087  0.0437
94162W        W37075  16.453  25.601  13.824  0.0430  0.3425  0.0119
94163W        W37076  33.303  24.187   8.026 -0.0774 -0.0985  0.0085
94164W        W37077  28.862  22.863   3.900 -0.0372 -0.1985  0.0463
94165W        W37078  25.902  18.937   5.593 -0.2803  0.0713  0.0171
94166W        W37079  11.932  34.147  10.251  0.1943  0.2438  0.3877
94167W        W37080   5.749  26.333  26.892  0.0308 -0.2118 -0.1213
94168W        W37081  16.803  16.927  17.917 -0.0889  0.1998 -0.1476
94169W        W37082  12.360  27.099   5.576  0.0492 -0.2955  0.0465
94170W        W37083  19.203  15.530  21.073  0.0773 -0.0302  0.2666
94171W        W37084  14.516  31.244   8.809 -0.1740  0.0322 -0.1725
94172W        W37085  17.053  17.159   4.373 -0.4449  0.2273 -0.0451
94173W        W37086  24.353  31.222  27.916  0.1643 -0.0533  0.1832
94174W        W37087  16.840  31.167   5.751 -0.0012 -0.3661 -0.0243
94175W        W37088  10.120  17.703  29.203  0.4814 -0.1912  0.1340
94176W        W37089  18.709  23.158  24.442 -0.0301 -0.4679 -0.0692
94177W        W37090  12.367  22.985  20.194 -0.1301  0.1881  0.0162
94178W        W37091  27.360  10.660  29.333 -0.2613 -0.0056 -0.2396
94179W        W37092  25.525  26.811  26.695  0.3178  0.3125 -0.2455
94180W        W37093  11.685   0.282  24.614 -0.1110  0.2190 -0.2194
94181W        W37094  25.104  26.257   3.238  0.1774  0.0868  0.2955
94182W        W37095  19.385  25.742  24.736 -0.0105  0.1647  0.2663
94183W        W37096  12.164  16.488   6.079 -0.2423  0.1078 -0.1682
94184W        W37097  25.067  29.314   3.069 -0.3132 -0.0997 -0.1603
94185W        W37098  22.349  14.539   0.878  0.2000 -0.2022  0.2421
94186W        W37099  19.378   6.963   7.327 -0.2413  0.1739  0.0500
94187W        W37100  15.291  21.471  23.727  0.0017  0.0033 -0.1330
94188W        W37101  18.526  22.032  23.878 -0.0617 -0.0395 -0.0646
94189W        W37102   2.769   9.242  23.880 -0.3797 -0.1467 -0.0915
94190W        W37103  12.491  24.431   5.902 -0.1825 -0.3438  0.0121
94191W        W37104  20.890  19.452   0.520 -0.0463 -0.1595  0.0247
94192W        W37105  17.357  17.079  24.027 -0.0108  0.1243 -0.0045
94193W        W37106  21.837  20.270  25.613 -0.4946  0.1432 -0.1561
94194W        W37107  22.270  23.041   8.521  0.1377 -0.0997 -0.1029
94195W        W37108  30.492  26.815   1.662 -0.1812  0.0320 -0.0656
94196W        W37109  24.508  17.202  17.050  0.0422  0.2473  0.3379
94197W        W37110  12.611  22.132   4.844  0.1429  0.1655 -0.1697
94198W        W37111  24.272  24.364   6.520  0.0008 -0.2533 -0.3077
94199W        W37112  16.713   2.728  20.502 -0.0688  0.1227 -0.0391
94200W        W37113  27.639  22.181   4.299  0.0436 -0.2846  0.1315
94201W        W37114  27.175  22.399   4.229 -0.0894  0.3009 -0.0108
94202W        W37115  11.820  28.045  28.135 -0.1108 -0.0939  0.1142
94203W        W37116  24.299  24.491  28.849  0.1129  0.2818 -0.0949
94204W        W37117   6.843  33.605  25.525 -0.1185 -0.2159 -0.0682
94205W        W37118  19.578  25.402   7.069 -0.1621 -0.0558  0.4374
94206W        W37119  12.854  29.038  28.660 -0.1175  0.1289  0.0366
94207W        W37120   8.219  21.344   2.281  0.2844 -0.0160  0.2837
94208W        W37121  16.029  20.843   6.531 -0.1696  0.2663  0.0138
94209W        W37122  14.044  16.002  22.447 -0.0805  0.1567  0.1521
94210W        W37123  17.041  23.842  24.544 -0.0086 -0.5245  0.1583
94211W        W37124  11.425  15.891  19.421  0.0378  0.3052  0.3259
94212W        W37125  23.704  19.116  22.432 -0.4002  0.1746 -0.1936
94213W        W37126  20.448  24.029  15.305  0.0103  0.1433  0.2026
94214W        W37127  30.058  22.234  18.333 -0.0161  0.3039  0.3301
94215W        W37128  16.605  24.677  23.384 -0.1083 -0.1901  0.0476
94216W        W37129  15.139  27.236  17.307  0.1126 -0.0096 -0.0805
94217W        W37130  18.680  31.454  15.412  0.1353 -0.0037 -0.0861
94218W        W37131   3.647  25.863  21.612 -0.3699 -0.0054  0.1430
94219W        W37132  25.717  34.307  14.771  0.2440 -0.3264  0.0566
94220W        W37133  20.541   0.137  13.823  0.1775 -0.3984  0.1880
94221W        W37134  33.975  20.354  16.447  0.2085 -0.0622 -0.0699
94222W        W37135  11.146  30.448  24.611 -0.0953 -0.2218 -0.2639
94223W        W37136  18.436   7.536  18.029 -0.0289  0.3278 -0.3327
94224W        W37137   9.771   1.729  19.596 -0.1913 -0.1944 -0.1876
94225W        W37138  20.096   9.559  20.753 -0.2042  0.2756  0.4955
94226W        W37139  22.828  27.920  18.197  0.0165 -0.0444 -0.0828
94227W        W37140  21.476  27.380  16.348  0.0683  0.1419 -0.3014
94228W        W37141  23.356  24.607  16.096  0.2520  0.1170 -0.1088
94229W        W37142  14.294  23.192  17.449 -0.2624  0.1085  0.1455
94230W        W37143  26.567  29.046  15.971 -0.1652 -0.0615  0.1203
94231W        W37144  12.581  27.460  29.142 -0.0303 -0.0462  0.0321
94232W        W37145  24.212  28.393  25.371  0.0488  0.0150 -0.0809
94233W        W37146  18.255  32.026  15.539 -0.2422  0.0188  0.2905
94234W        W37147  22.514  28.041  27.141 -0.1449 -0.1006 -0.2585
94235W        W37148  22.268  26.830  19.358  0.0703  0.0061 -0.2583
94236W        W37149  25.680  31.031  19.353  0.1902  0.1986  0.0622
94237W        W37150  24.456  25.987  17.443 -0.1251  0.1511 -0.1131
94238W        W37151  24.351  20.844  25.165  0.0786  0.1875 -0.2292
94239W        W37152  23.568  19.843  23.135 -0.2169  0.1356 -0.1749
94240W        W37153  23.762  27.243  18.639  0.1173 -0.2721  0.2013
94241W        W37154  20.713  31.952  16.318 -0.1650  0.2064  0.0970
94242W        W37155  21.140  27.914  13.393  0.2163  0.0044  0.0957
94243W        W37156  18.256  14.722  12.405  0.0888  0.1209  0.1629
94244W        W37157  28.255   3.762  21.135  0.0343  0.1440 -0.1324
94245W        W37158  29.412  25.682  14.381 -0.0300  0.1928  0.1300
94246W        W37159  17.798  32.346  20.139  0.3443  0.0995  0.0207
94247W        W37160  27.186  27.738  15.397  0.0697 -0.2925 -0.1155
94248W        W37161  30.679  33.971  20.568 -0.1225  0.2225  0.3554
94249W        W37162  32.160  32.932  28.057 -0.0399 -0.0002 -0.2704
94250W        W37163  21.549  20.882  19.521  0.0031 -0.4385 -0.0747
94251W        W37164  12.977   0.053  19.802  0.1077  0.1732 -0.1394
94252W        W37165  22.263  26.885  16.820 -0.0096 -0.1557 -0.2987
94253W        W37166  16.511  27.634  19.362 -0.2293 -0.2058 -0.1906
94254W        W37167   5.173  25.047  18.289  0.1943 -0.0403  0.1447
94255W        W37168  32.469  13.114  24.219  0.1117 -0.0622  0.2358
94256W        W37169  19.353  25.786  18.338  0.0338  0.0476  0.2082
94257W        W37170  26.624  23.521  17.788  0.0097  0.1816 -0.0064
94258W        W37171  13.738  29.395  25.263  0.0396 -0.1212  0.0499
94259W        W37172  17.766  33.223  17.461  0.1605 -0.1376 -0.1497
94260W        W37173  26.069  22.765  13.410  0.0628  0.1526 -0.2211
94261W        W37174  23.039  21.346  14.203  0.2414  0.0927  0.0050
94262W        W37175  23.763  22.387  13.781  0.0688  0.4076  0.0528
94263W        W37176  28.846  31.006  18.232 -0.0634 -0.1029 -0.0391
94264W        W37177  11.932  19.875  20.906  0.1425 -0.1351 -0.1177
94265W        W37178  25.153  25.525  21.689  0.2902  0.1748 -0.1228
94266W        W37179  22.959   8.488  17.400 -0.1600 -0.1127 -0.2482
94267W        W37180  34.361  14.889  13.970  0.1320 -0.2587 -0.2255
94268W        W37181  15.201  33.328  16.017 -0.0941 -0.1388  0.2107
94269W        W37182  20.201  27.442  14.740 -0.1850  0.0281 -0.3562
94270W        W37183  15.301  34.361  16.129 -0.0426 -0.1050 -0.1524
94271W        W37184  26.027  25.872  18.234 -0.0236  0.1116 -0.0409
94272W        W37185  24.181  33.564  17.434  0.0348 -0.3170  0.2067
94273W        W37186   9.152  18.142  27.335 -0.0642  0.2801  0.3958
94274W        W37187  18.508  27.294  20.026 -0.0472 -0.1560  0.0630
94275W        W37188   7.680  25.076  17.432 -0.2679  0.2466  0.1280
94276W        W37189  12.685  27.777  17.126  0.2207 -0.1931 -0.2696
94277W        W37190  28.379  26.012  14.135 -0.1981 -0.1117 -0.0608
94278W        W37191  28.622  17.288  15.620  0.1484 -0.0350  0.0686
94279W        W37192  23.692  26.460  15.001 -0.0490  0.0664 -0.0547
94280W        W37193  27.937  28.384  18.558  0.0159 -0.1045  0.0868
94281W        W37194  24.356  25.991  12.875  0.1018 -0.0964  0.0912
94282W        W37195  18.086  33.317  19.768  0.2089 -0.1965 -0.0928
94283W        W37196  23.807  20.154  14.684 -0.2140 -0.1282 -0.0895
94284W        W37197  20.670  26.145  27.629 -0.1656  0.0192  0.1675
94285W        W37198  18.110  32.967  16.570  0.2790  0.1389 -0.3713
94286W        W37199   9.511  19.589  21.760 -0.1375  0.1340 -0.3081
94287W        W37200  11.513  27.064  18.262 -0.0893  0.1810 -0.1617
94288W        W37201  26.272  25.630  17.072 -0.0507  0.0725 -0.0111
94289W        W37202  12.885  24.454  18.758  0.0202  0.0694 -0.2321
94290W        W37203   9.686  24.097  17.432 -0.0626  0.1586 -0.2976
94291W        W37204   8.674  20.594  28.634  0.0812 -0.3017  0.0474
94292W        W37205  20.716   5.472  15.020  0.2180  0.0114 -0.2457
94293W        W37206  26.316  29.640  17.349  0.0472 -0.0296 -0.0496
94294W        W37207  16.966  26.120  18.155  0.2546  0.2978 -0.0487
94295W        W37208  22.101  26.245  16.487  0.0146  0.0239  0.2497
94296W        W37209  22.402  27.604  23.215  0.1317 -0.1259  0.3194
94297W        W37210  30.812  27.869  14.162  0.1094 -0.2498  0.1393
94298W        W37211   5.060  24.666  15.261 -0.0023 -0.4340  0.1033
94299W        W37212  30.802  26.298  16.456 -0.3044 -0.0338 -0.1009
94300W        W37213  12.240  20.840  14.975 -0.2965 -0.3693  0.1209
94301W        W37214  29.864   8.010  21.597  0.1873 -0.1424 -0.1046
94302W        W37215  23.687  31.399  20.285  0.0932 -0.2178 -0.2052
94303W        W37216  28.100  29.843  22.787 -0.0591 -0.2819 -0.0576
94304W        W37217  18.372  27.696  16.153  0.1808 -0.0420 -0.0932
94305W        W37218  26.615  26.581  20.775 -0.1266 -0.3114 -0.1654
94306W        W37219  23.213  15.703  18.861  0.0962  0.1376 -0.0731
94307W        W37220  18.531   7.530  22.484  0.1923  0.1770  0.1169
94308W        W37221  20.307   3.190  21.796 -0.2455  0.2727 -0.1076
94309W        W37222  15.618  25.844  15.173  0.0275 -0.2951  0.0367
94310W        W37223  16.915  32.628  20.884  0.0514 -0.1536  0.0023
94311W        W37224  14.519  33.898  21.188 -0.2515  0.1146  0.1976
94312W        W37225  21.913  27.658  18.561  0.1242 -0.1718 -0.2157
94313W        W37226  19.185  14.777  14.419  0.0177  0.0024 -0.0060
94314W        W37227  31.647  29.196  24.407  0.0336  0.2623 -0.2929
94315W        W37228  26.199  32.854  15.131 -0.1390 -0.0269  0.4168
94316W        W37229  26.747  21.000  21.650  0.0795 -0.1368  0.1754
94317W        W37230  17.171  21.958  20.424  0.0564  0.2993  0.1246
94318W        W37231   2.476  26.339  21.122 -0.0343 -0.3607  0.0574
94319W        W37232  14.402  21.829  19.923 -0.0909 -0.2819  0.0952
94320W        W37233  18.289  27.912  15.172  0.1791 -0.0271 -0.2866
94321W        W37234  27.687  31.746  19.056 -0.1860  0.1542 -0.1075
94322W        W37235  26.892  24.011  15.079 -0.1197 -0.1417 -0.0291
94323W        W37236   7.870  23.559  13.842 -0.3075 -0.0593  0.0772
94324W        W37237   9.699  24.931  16.416  0.1507  0.0180  0.1598
94325W        W37238   7.106  24.424  22.966 -0.0514 -0.2094  0.2789
94326W        W37239  21.798  16.733  15.636 -0.0855  0.0507 -0.0920
94327W        W37240  19.604  23.792  13.009 -0.0116 -0.2219  0.0365
94328W        W37241  23.499  25.531  16.739 -0.3047  0.2141 -0.2834
94329W        W37242  25.677  31.085  27.316  0.0991 -0.1359  0.1584
94330W        W37243  20.296  24.295  23.950 -0.1756 -0.1707 -0.0565
94331W        W37244  15.620  29.041  22.124 -0.2959 -0.3157  0.1514
94332W        W37245  28.713  29.304  15.267  0.0470  0.3945 -0.0963
94333W        W37246  21.385  23.566  13.476  0.1702  0.1763 -0.2367
94334W        W37247  24.259  25.001  19.054 -0.0957 -0.0896 -0.0436
94335W        W37248  28.347  20.654  15.453 -0.3123  0.2116  0.0674
94336W        W37249  18.398  11.461  13.344  0.0018 -0.0281 -0.1770
94337W        W37250  22.160  28.132  16.368  0.1916 -0.1138  0.0598
94338W        W37251  23.176  28.987  17.219 -0.3749  0.0167  0.1910
94339W        W37252   1.067  22.789  18.927 -0.0941  0.1074 -0.1199
94340W        W37253  24.414  12.281  18.883  0.3842  0.1237 -0.0692
94341W        W37254  32.297  26.542  17.366 -0.2798  0.2642  0.1994
94342W        W37255  25.759  24.347  21.797  0.0890  0.1284 -0.0316
94343W        W37256  21.736  25.971  19.461  0.0478  0.0282 -0.0756
94344W        W37257  22.460  27.275  19.170 -0.1681 -0.1424  0.2916
94345W        W37258  22.925   6.075  14.386 -0.1292  0.2709 -0.3841
94346W        W37259  20.194  16.536  13.055 -0.1074  0.0884 -0.2545
94347W        W37260  16.073  20.899  15.015 -0.0966 -0.1685 -0.0769
94348W        W37261  27.531  23.451  14.708  0.0096 -0.3547 -0.0661
94349W        W37262   7.786  26.738  18.615  0.0710 -0.1789 -0.1444
94350W        W37263  16.557  30.900  22.599 -0.1545  0.0149  0.2215
94351W        W37264  17.736  29.434  15.701  0.0518 -0.1458 -0.0975
94352W        W37265  23.623  27.285  25.924  0.0182 -0.2195  0.3169
94353W        W37266  29.647  30.259  21.010  0.1273 -0.0349  0.0475
94354W        W37267  20.354  22.764  21.491  0.2161  0.2054  0.1658
94355W        W37268  13.550  32.514  19.884 -0.0582 -0.2242 -0.1311
94356W        W37269  11.306  28.983  20.013  0.1645 -0.0123  0.2212
94357W        W37270  26.402  28.619  18.271  0.0362 -0.1759  0.0880
94358W        W37271  24.888  24.489  19.788 -0.1926  0.1080  0.0177
94359W        W37272  28.140  26.355  21.372  0.1246 -0.1000  0.2266
94360W        W37273  23.565  28.970  12.706 -0.2230 -0.2835 -0.0007
94361W        W37274  32.707  31.233  16.435 -0.1084 -0.2568 -0.1598
94362W        W37275  10.112  31.789  17.481 -0.4618  0.0931 -0.0291
94363W        W37276  20.024  20.896  19.188 -0.0253 -0.0885 -0.1634
94364W        W37277  15.331   1.320  15.604  0.2953  0.1700 -0.2479
94365W        W37278  20.743  16.660  13.136 -0.2533 -0.1735  0.0570
94366W        W37279  19.958  30.663  21.027 -0.1591  0.2416 -0.2138
94367W        W37280  30.258  26.199  18.264  0.0370 -0.0160  0.0495
94368W        W37281  29.611  19.881  14.455  0.0133  0.2756 -0.2268
94369W        W37282  17.892  25.424  20.110 -0.1715  0.0829  0.3452
94370W        W37283  30.745  10.142   0.228 -0.0760  0.0063  0.1401
94371W        W37284  30.776   3.558  17.579  0.0260 -0.0463 -0.3191
94372W        W37285  26.618  22.525  18.693 -0.0463  0.2218 -0.4009
94373W        W37286  11.540  25.787  15.653  0.0461  0.0362  0.3672
94374W        W37287  23.310  25.203  18.805 -0.0218  0.1464 -0.1142
94375W        W37288  25.235  21.845  14.731 -0.1005 -0.0059 -0.1796
94376W        W37289  24.487  29.010  16.272 -0.0353  0.0199  0.2980
94377W        W37290   0.355  13.154  16.600 -0.0635 -0.3230  0.0042
94378W        W37291  26.605  28.586  14.309 -0.0099 -0.1155  0.0120
94379W        W37292  21.406  21.385  20.224 -0.0776 -0.1090  0.0817
94380W        W37293  16.860  31.140  17.006 -0.1759 -0.1597  0.2651
94381W        W37294  16.817  17.697  13.447 -0.1103  0.0046 -0.2656
94382W        W37295  29.851  30.260  14.966 -0.0744 -0.1367  0.0394
94383W        W37296   6.660  27.402  20.521  0.2199  0.1376 -0.0375
94384W        W37297  11.927  15.527  15.392 -0.1055  0.1406 -0.0259
94385W        W37298  20.278  23.484  14.969 -0.1781 -0.0810 -0.0008
94386W        W37299   1.732  28.787  17.109 -0.0293  0.5603  0.0366
94387W        W37300  13.657  27.020  15.009 -0.0082  0.1265  0.0499
94388W        W37301  25.538  31.485  19.529  0.1189 -0.1288  0.2245
94389W        W37302  12.932   4.005  25.440  0.0233 -0.0196  0.3784
94390W        W37303  15.149  26.015  15.464 -0.0736 -0.2560 -0.1241
94391W        W37304  20.017  12.979  15.278  0.1989  0.1757 -0.0409
94392W        W37305  22.661  34.246  21.685  0.0655 -0.1689  0.2867
94393W        W37306  28.548  27.100  18.821  0.3916  0.2331 -0.2769
94394W        W37307  27.028  25.409  21.186 -0.0056 -0.2058 -0.2271
94395W        W37308  23.953  29.471  13.620  0.0479 -0.1030 -0.3628
94396W        W37309  21.762  33.034  15.054 -0.1910 -0.1273 -0.3676
94397W        W37310  25.291  21.748  17.881 -0.1556 -0.3217  0.0139
94398W        W37311  27.702  16.813  14.471  0.0974  0.0957 -0.3699
94399W        W37312  25.247  14.666  21.514  0.2489 -0.0192  0.2211
94400W        W37313  21.474  23.383  12.978 -0.4442 -0.1348  0.0667
94401W        W37314  18.914   9.733  18.475 -0.3074  0.0545 -0.1966
94402W        W37315  23.416  14.223  15.383  0.1178  0.2528  0.0715
94403W        W37316  20.500  31.212  16.963 -0.0570 -0.0420  0.0040
94404W        W37317  17.325  29.275  21.506  0.2027  0.5455  0.0727
94405W        W37318  20.863  18.880  17.058 -0.2635 -0.2059  0.0542
94406W        W37319   8.005   0.790  20.045 -0.0414  0.1215  0.0049
94407W        W37320  15.523  33.769  15.422 -0.0062  0.1145 -0.0757
94408W        W37321  17.699  26.498  24.207 -0.1008  0.0292  0.1255
94409W        W37322  14.911  28.940  14.939  0.2859 -0.2197 -0.0517
94410W        W37323  22.890  25.606  20.998  0.1739  0.1413 -0.0429
94411W        W37324  20.821  13.361  16.041  0.2642  0.1318  0.1286
94412W        W37325   1.823   0.264  24.402  0.0416 -0.2035 -0.1339
94413W        W37326  21.769   2.232  14.159 -0.0789  0.0505 -0.4021
94414W        W37327  17.351  30.269  29.319  0.1180  0.0867 -0.1023
94415W        W37328  23.486   3.949  18.831 -0.0939 -0.2616 -0.0080
94416W        W37329  24.350  28.439  15.471 -0.2066 -0.0564 -0.2313
94417W        W37330  19.342  26.656  15.738 -0.1366 -0.0991  0.2332
94418W        W37331   3.729  16.906  19.088  0.2957  0.2432  0.1536
94419W        W37332  16.707  26.471  17.416  0.0069 -0.0886  0.0642
94420W        W37333  33.659  22.347  15.381  0.1058  0.3181 -0.0662
94421W        W37334  20.797  20.834  12.811  0.1935  0.1694 -0.3843
94422W        W37335  18.776  24.540  15.931  0.0606  0.1217  0.0473
94423W        W37336  20.696  17.095  13.850 -0.0285  0.4287 -0.0797
94424W        W37337  31.981  19.119  26.924  0.0918  0.1132  0.1653
94425W        W37338  14.609  24.144  25.330 -0.0430 -0.1083  0.1193
94426W        W37339  21.364  28.265  15.240 -0.0144  0.2271 -0.0814
94427W        W37340  18.278  18.503  12.122 -0.1563 -0.1153 -0.1207
94428W        W37341  26.561  18.647  15.829 -0.4023 -0.2359 -0.1559
94429W        W37342  18.334  25.578  25.023  0.5057  0.1111  0.1538
94430W        W37343  16.387  23.455  14.735  0.0934 -0.1578  0.2247
94431W        W37344  19.447  23.665  20.550  0.1017 -0.0644  0.2223
94432W        W37345  16.778  22.406  17.558  0.1460 -0.1951 -0.0862
94433W        W37346  22.120  23.718  16.501 -0.3803 -0.0780  0.0434
94434W        W37347  23.313   1.495  15.056 -0.1319 -0.1200 -0.1123
94435W        W37348   1.404  31.605  16.704 -0.2907  0.1764  0.0324
94436W        W37349  18.610  23.488  19.950 -0.1912  0.1349  0.2542
94437W        W37350   8.975  27.895  20.974 -0.0045 -0.0094 -0.0168
94438W        W37351  26.360   4.235  19.591 -0.0089  0.2786 -0.0429
94439W        W37352  18.864  26.272  18.903  0.3251  0.0871 -0.0086
94440W        W37353  18.390  26.724  20.233  0.1509 -0.0289 -0.0774
94441W        W37354  22.113  17.689  12.812  0.1278 -0.0433 -0.1368
94442W        W37355  25.073  18.122  20.452  0.0591 -0.0240 -0.0586
94443W        W37356  16.559  18.384  15.489  0.1457  0.0233 -0.1523
94444W        W37357  10.228  16.180  21.864 -0.1024  0.0973 -0.1363
94445W        W37358  20.077   0.283  18.912 -0.3053 -0.1044 -0.1172
94446W        W37359  22.597  26.798  17.167 -0.0811 -0.3484  0.1231
94447W        W37360  24.962  29.683  14.950 -0.1810  0.2664  0.1535
94448W        W37361  29.301  32.943  21.694  0.0016  0.2450 -0.0024
94449W        W37362  11.495  21.904  20.057 -0.0230 -0.0316  0.0429
94450W        W37363  20.489   1.986  17.052 -0.0341  0.1568  0.2350
94451W        W37364  21.461  34.197  15.725  0.1984 -0.1588  0.0913
94452W        W37365  19.930   1.266  16.537  0.1375 -0.2111 -0.1901
94453W        W37366  27.856   0.463  17.459  0.1828  0.1765  0.1363
94454W        W37367  27.328   3.930  15.726 -0.0392 -0.0843 -0.1144
94455W        W37368  29.201  28.149  16.047  0.2198  0.2164  0.2748
94456W        W37369  21.812  23.970  20.015 -0.2140  0.2464 -0.1434
94457W        W37370  22.974  27.308  24.324  0.2213 -0.2786 -0.0743
94458W        W37371  23.375  33.364  17.055 -0.3601 -0.0433 -0.0111
94459W        W37372  25.436  20.314  17.954 -0.3469 -0.2742  0.0333
94460W        W37373  26.903  28.712  15.832 -0.0846  0.3803 -0.2217
94461W        W37374  22.968  26.905  28.473 -0.0872  0.0027 -0.0047
94462W        W37375  22.111  14.198  14.948  0.0605  0.0185  0.1930
94463W        W37376  26.923  25.891  13.237 -0.3315  0.1388  0.3376
94464W        W37377  20.602  29.838  13.964 -0.1609  0.0958  0.0914
94465W        W37378  22.363  33.041  16.570  0.0563 -0.2102 -0.0075
94466W        W37379  21.927  23.445  22.809 -0.0850  0.1879 -0.1409
94467W        W37380  20.132   4.711  13.622  0.1390 -0.0067  0.0896
94468W        W37381  20.390  22.316  16.944  0.0891 -0.0558  0.0800
94469W        W37382  19.225  19.052  12.258  0.0507 -0.1164  0.1492
94470W        W37383  19.346  21.972  13.761  0.3443  0.0567  0.0039
94471W        W37384  22.520  28.383  21.489  0.4732  0.0623  0.0535
94472W        W37385  27.622  25.951  17.142  0.0541 -0.1413 -0.0087
94473W        W37386  28.184  30.983  14.971  0.1035 -0.1449  0.0424
94474W        W37387  28.334  26.272  13.627 -0.2693  0.1158  0.0284
94475W        W37388  32.182  27.973  14.179  0.1829 -0.0855  0.1638
94476W        W37389  23.455  21.372  11.744 -0.2673 -0.0002 -0.0993
94477W        W37390   6.134  30.313  18.260  0.0610 -0.2656  0.1237
94478W        W37391  27.889  18.349  21.886 -0.0366  0.1466 -0.1959
94479W        W37392  27.685  20.100  17.713 -0.0954  0.3867 -0.1827
94480W        W37393  29.380  28.200  20.718 -0.3576 -0.2579 -0.0364
94481W        W37394  21.169  21.657  19.860 -0.2914 -0.0938  0.0966
94482W        W37395  21.013  29.299  20.289  0.0706 -0.3448 -0.0578
94483W        W37396  19.852  23.655  29.242 -0.3843 -0.0742  0.0627
94484W        W37397  20.309  29.875  25.280  0.0556 -0.0806 -0.0333
94485W        W37398  25.135  33.272  21.131  0.0309  0.1692 -0.3303
94486W        W37399   6.852  28.141  16.254  0.2005  0.1906 -0.2251
94487W        W37400  16.869  32.345  18.641 -0.1444  0.2927  0.2733
94488W        W37401  18.997   2.333  18.065  0.0382  0.1396 -0.2102
94489W        W37402  23.567  17.919  22.824  0.1426 -0.4654  0.2421
94490W        W37403  14.972  16.512  12.212 -0.0683 -0.1261  0.1434
94491W        W37404  29.264   4.990  16.014 -0.0692  0.0701  0.1709
94492W        W37405  20.205  29.914  15.747 -0.2425  0.1458 -0.5143
94493W        W37406  17.120  30.750  22.622 -0.2038 -0.0649 -0.0059
94494W        W37407  21.359   7.755  14.270  0.3221  0.0598 -0.2005
94495W        W37408  21.832  28.425  20.693  0.0272  0.2442  0.0554
94496W        W37409  20.434  24.497  14.719 -0.1918 -0.0046 -0.1463
94497W        W37410  18.139  29.487  15.243 -0.0925  0.0398 -0.0189
94498W        W37411  26.463  25.864  21.979 -0.0517  0.0718  0.0037
94499W        W37412  17.700   0.344  25.650 -0.1105 -0.2340 -0.3565
94500W        W37413  23.105  18.506  19.839 -0.0013 -0.0899  0.0385
94501W        W37414  26.172  34.429  19.671  0.3636  0.0750  0.1093
94502W        W37415  14.257   3.556  25.190  0.1510  0.1507  0.0948
94503W        W37416  19.126  33.082  19.452 -0.0311  0.4763  0.1094
94504W        W37417   6.940  20.756  14.215  0.1587  0.3575  0.0006
94505W        W37418  21.743  28.576  14.246 -0.1921  0.0016 -0.0662
94506W        W37419  27.903  28.922  16.949  0.0044  0.2246 -0.0167
94507W        W37420  21.490   0.669  20.382  0.3112  0.2445 -0.0367
94508W        W37421  15.950  18.904  11.841 -0.0169  0.0368 -0.0029
94509W        W37422  23.703   0.525  18.915  0.1350  0.1608  0.1354
94510W        W37423  27.660   1.492  17.689 -0.1481  0.1923  0.0569
94511W        W37424  26.131  32.782  20.130 -0.2688  0.2217  0.3718
94512W        W37425  16.467  23.862  15.589 -0.1647  0.1823 -0.0519
94513W        W37426  20.464  19.823  20.488  0.1111 -0.0854  0.0161
94514W        W37427  18.877  28.729  17.447  0.0607 -0.0383  0.0652
94515W        W37428  24.873  25.244  14.341 -0.3788  0.3433 -0.2142
94516W        W37429  19.185  30.877  15.120 -0.1394  0.1442  0.0106
94517W        W37430  15.404  10.658  19.139  0.0677  0.1657 -0.0893
94518W        W37431  24.115  32.249  15.138 -0.0189 -0.0408  0.3239
94519W        W37432  22.674  32.235  20.239  0.0038 -0.1136 -0.0914
94520W        W37433  21.517  26.242  18.252 -0.2677  0.1905 -0.3153
94521W        W37434   2.704  23.808  18.717  0.2230  0.1703  0.1959
94522W        W37435  26.335  22.056  14.204 -0.3888 -0.3010 -0.0260
94523W        W37436  18.859  26.183  25.003  0.0954 -0.4922  0.0182
94524W        W37437  19.866  21.735  22.832  0.0851  0.2505 -0.0643
94525W        W37438   9.179  24.548  21.536 -0.1726  0.0487  0.2292
94526W        W37439  17.073  28.915  22.021 -0.0212  0.0554 -0.0080
94527W        W37440  19.630  20.161  13.427 -0.2822 -0.0677 -0.0229
94528W        W37441  22.940   0.885  19.885 -0.1679 -0.1123  0.4416
94529W        W37442  15.331  25.815  21.990 -0.0187 -0.0910  0.0555
94530W        W37443  24.030  27.923  14.990 -0.0799 -0.2347 -0.1090
94531W        W37444  20.844  22.475  16.706  0.1460  0.0184  0.1698
94532W        W37445  26.273  20.817  20.628 -0.1256  0.2581 -0.2879
94533W        W37446  22.589  29.963  18.009 -0.1084  0.3186  0.0633
94534W        W37447  25.877  27.356  17.349 -0.4161 -0.0394  0.1624
94535W        W37448  21.786  19.057  19.000 -0.2084  0.0453  0.2786
94536W        W37449  16.667  26.384  16.034  0.0774  0.0482 -0.3234
94537W        W37450  24.934  27.334  13.909  0.0826 -0.0297  0.0162
94538W        W37451  21.441  28.720  22.511 -0.3999 -0.0416 -0.2167
94539W        W37452  10.145  29.017  19.080 -0.1454 -0.3128  0.0573
94540W        W37453  23.606  24.418  20.915 -0.3315 -0.0147 -0.2635
94541W        W37454  23.372  31.813  14.685 -0.0942  0.2657  0.1793
94542W        W37455  23.803   0.270  22.825 -0.2216 -0.0212 -0.0337
94543W        W37456  17.724  24.980  15.050 -0.1004  0.3713 -0.0696
94544W        W37457  33.343  24.355  14.597  0.1332 -0.0265 -0.0451
94545W        W37458  26.582  15.431  13.545  0.0240  0.0093  0.1775
94546W        W37459  15.001   2.210  16.071  0.0819  0.0756 -0.1476
94547W        W37460  20.514  29.719  17.084  0.0470  0.3025  0.1571
94548W        W37461  17.696  32.653  16.160  0.1725 -0.2973  0.2941
94549W        W37462   5.962  30.348  22.934 -0.2460  0.1800 -0.0181
94550W        W37463  22.199  20.223  20.034  0.3840  0.4450  0.1104
94551W        W37464  22.696  26.821  16.365 -0.0666  0.0553  0.2435
94552W        W37465  17.232  26.478  17.300  0.2146  0.0295 -0.1048
94553W        W37466  25.061  30.195  14.207 -0.0056 -0.3607 -0.0237
94554W        W37467  24.919  22.818  18.150  0.1201 -0.3068  0.0665
94555W        W37468  21.445  20.865  11.982 -0.1270 -0.4236 -0.1329
94556W        W37469  19.883  28.518  21.386 -0.0536 -0.0481  0.1800
94557W        W37470  15.126  23.067  14.422  0.0890 -0.0563  0.1491
94558W        W37471  20.780   2.277  18.832 -0.1466 -0.1231 -0.0470
94559W        W37472  27.738  27.132  16.630 -0.0228  0.1666  0.0698
94560W        W37473  11.333  31.957  16.696  0.2979  0.0396  0.0989
94561W        W37474  23.667  13.180  22.556  0.1415  0.0331 -0.1079
94562W        W37475  27.736  23.869  12.535 -0.2682  0.1096  0.0928
94563W        W37476  25.499  26.198  12.950 -0.1471 -0.3335  0.1248
94564W        W37477  22.736  22.783  23.746 -0.0012 -0.1259 -0.1466
94565W        W37478  19.089   1.083  16.013  0.2898  0.1507 -0.3833
94566W        W37479  12.840  29.941  18.795 -0.2550  0.2740  0.0423
94567W        W37480  10.920  24.689  17.059  0.0828  0.0256  0.1509
94568W        W37481  30.731  31.712  20.458  0.0979  0.1891  0.0310
94569W        W37482  21.712  22.466  12.934  0.1202 -0.0321  0.3391
94570W        W37483  11.454  24.267  14.730  0.0461  0.0654 -0.2049
94571W        W37484  25.047  31.466  17.627  0.0329  0.2579  0.1593
94572W        W37485  15.322  27.633  15.979  0.1077 -0.0114 -0.0783
94573W        W37486  26.573  14.234  21.440 -0.3001  0.1205  0.0782
94574W        W37487  14.132  21.356  13.222  0.1143 -0.2624  0.2331
94575W        W37488  24.875  21.305  13.812 -0.2722 -0.1350  0.0561
94576W        W37489  28.759  27.316  26.333 -0.0136  0.0672  0.2045
94577W        W37490   3.863  29.041  26.465 -0.1390 -0.2319 -0.0659
94578W        W37491  21.735  24.763  18.217 -0.0496  0.0475 -0.1352
94579W        W37492  27.835  31.174  17.392 -0.0540 -0.0822  0.3106
94580W        W37493  11.397  26.016  18.060 -0.1307 -0.0363 -0.0412
94581W        W37494  20.452  31.934  14.556 -0.0204  0.2476  0.0359
94582W        W37495  22.787  34.235  16.936  0.1104  0.2260  0.1479
94583W        W37496  22.570   7.629  15.123  0.1288  0.2029  0.1231
94584W        W37497   7.624  26.176  21.143  0.2166 -0.2468  0.1612
94585W        W37498  22.493   1.532  16.899 -0.0032 -0.0995  0.2591
94586W        W37499  15.135  31.176  17.252 -0.1350  0.0573  0.2365
94587W        W37500  18.649  30.672  19.129  0.3596  0.0447  0.0233
94588W        W37501   8.095  30.208  20.544  0.1045  0.1566 -0.0992
94589W        W37502   9.530  26.234  14.553 -0.1526  0.4585  0.0298
94590W        W37503  22.531  32.374  16.051  0.1544  0.2992 -0.3467
94591W        W37504  27.305  26.547  19.865  0.1780 -0.1515  0.0482
94592W        W37505  13.889   7.575  21.433  0.1100 -0.2398 -0.1981
94593W        W37506  21.230  20.262  17.337 -0.0092 -0.1200  0.1793
94594W        W37507  23.408  28.790  25.114  0.2908  0.0288 -0.1713
94595W        W37508  21.210  30.899  23.239  0.0439 -0.3977  0.1162
94596W        W37509  30.611  19.188  14.347 -0.0524 -0.0700  0.2248
94597W        W37510  20.439  24.799  13.336 -0.0537  0.2280  0.2052
94598W        W37511  27.367  17.378  17.279 -0.1368 -0.3484  0.1104
94599W        W37512  25.264  34.414  25.480 -0.3316 -0.1687 -0.1035
94600W        W37513  22.112  31.873  19.597 -0.0636 -0.1434 -0.1450
94601W        W37514  22.258  30.279  18.890 -0.2472  0.1640  0.1039
94602W        W37515  19.329  26.695  21.080 -0.2641 -0.0361  0.1290
94603W        W37516   9.939  29.626  19.230  0.1585  0.0369 -0.0080
94604W        W37517   6.193  26.217  22.948  0.1611 -0.0933 -0.0605
94605W        W37518  17.214  27.070  14.784  0.0760  0.2060  0.3327
94606W        W37519  24.557   1.758  14.294  0.4256  0.3102  0.1276
94607W        W37520  21.470   3.005  18.223 -0.0565  0.3693 -0.1256
94608W        W37521  30.264   2.893  15.151 -0.0874 -0.2208  0.1213
94609W        W37522  24.690   4.262  17.022 -0.1118 -0.3000 -0.1653
94610W        W37523  19.460   0.817  14.725  0.2102  0.3544 -0.2869
94611W        W37524  27.952  26.095  12.819  0.0540  0.1158  0.0522
94612W        W37525  32.344  29.379  15.113  0.0771  0.1828  0.0394
94613W        W37526  33.924  25.252  24.889 -0.0114 -0.0148 -0.2489
94614W        W37527  20.589  30.377  14.374 -0.1271  0.0579  0.0015
94615W        W37528  20.282  26.823  17.038  0.2445 -0.2392 -0.0130
94616W        W37529  20.283  26.710  19.849  0.1382 -0.0484  0.1135
94617W        W37530  24.978  28.128  13.377 -0.1968  0.2290 -0.0864
94618W        W37531  25.584  28.177  22.252 -0.0472 -0.0811 -0.4575
94619W        W37532  24.402  24.787  18.227 -0.2154 -0.0576 -0.0769
94620W        W37533  22.685  26.058  23.437 -0.0361 -0.2389 -0.1990
94621W        W37534  23.853  25.611  22.127 -0.1262  0.0094 -0.0249
94622W        W37535  12.162  28.486  15.493  0.1487 -0.1725  0.3587
94623W        W37536  22.108   9.548  17.454  0.3880 -0.3682 -0.1188
94624W        W37537  25.277  30.465  25.012 -0.1285 -0.1045 -0.0032
94625W        W37538  26.374  29.991  16.034  0.1907  0.1653 -0.0334
94626W        W37539  20.641  27.018  23.806 -0.2871 -0.0072 -0.0480
94627W        W37540  19.843  25.232  14.824  0.2685 -0.1485 -0.0062
94628W        W37541  30.450  27.292  14.870 -0.1843 -0.0944 -0.2016
94629W        W37542  18.943  20.382   1.887  0.3661  0.4005 -0.3321
94630W        W37543  21.996  19.530  16.248  0.1964  0.2008 -0.2783
94631W        W37544  19.438  23.167  17.025 -0.0864 -0.0723  0.1136
94632W        W37545  11.480  23.795  28.639 -0.1834 -0.0018 -0.3593
94633W        W37546  30.186  20.862  16.620 -0.0005  0.0998 -0.0831
94634W        W37547  29.539  20.215  21.307  0.2059 -0.1209 -0.2345
94635W        W37548  28.128  19.052  23.879 -0.0004 -0.0834 -0.2991
94636W        W37549  22.556  27.592   2.563  0.2634  0.0534 -0.0856
94637W        W37550  24.331   4.346  19.950 -0.2271  0.2098  0.0508
94638W        W37551  14.086  27.664  14.962  0.1037 -0.0613  0.1205
94639W        W37552  27.694  29.610  17.661  0.0699 -0.1393 -0.0192
94640W        W37553  29.678  28.395  20.238  0.4116 -0.0619  0.1567
94641W        W37554  26.214  15.209  20.249  0.0210 -0.0027 -0.0913
94642W        W37555  27.967  27.257  15.897 -0.2498 -0.2634  0.2153
94643W        W37556  14.190  26.878  18.540  0.1603 -0.0428 -0.1602
94644W        W37557  13.922  14.698  15.926 -0.0973 -0.2637  0.1938
94645W        W37558  20.880  18.288  14.439  0.0077 -0.1566 -0.0248
94646W        W37559  18.241  32.085  16.666  0.0528 -0.1111  0.1377
94647W        W37560  23.816  25.521  12.260 -0.2087 -0.2639  0.0241
94648W        W37561  19.499  34.486  20.152  0.0420  0.0369 -0.1744
94649W        W37562  19.836  34.489  14.683 -0.3550  0.0235 -0.1636
94650W        W37563  10.432  26.221  23.082 -0.0336 -0.0251 -0.0238
94651W        W37564   4.022  22.166  27.953 -0.3460 -0.2772 -0.2422
94652W        W37565  17.318  19.937  28.339 -0.1112 -0.0829  0.0225
94653W        W37566  20.803  25.985  14.290 -0.1273 -0.2703 -0.2394
94654W        W37567   6.862  24.334  24.614 -0.1056 -0.2285  0.1606
94655W        W37568   0.609  25.325  29.048 -0.3261  0.0918 -0.0320
94656W        W37569  11.650  33.680  28.719  0.1137 -0.3421 -0.1952
94657W        W37570  18.845   5.569  19.512 -0.0285 -0.3120 -0.3497
94658W        W37571  24.464  32.127  21.232 -0.0160 -0.0856  0.0706
94659W        W37572  19.199  25.220  13.252 -0.4708  0.0780  0.0230
94660W        W37573  20.405  25.439  19.504 -0.0502 -0.3186 -0.0700
94661W        W37574  22.437  24.961  21.742  0.3103  0.2057 -0.0321
94662W        W37575  21.075  21.569  13.505  0.0958  0.4621 -0.1872
94663W        W37576  22.009   0.600  23.156 -0.1072 -0.0276  0.1171
94664W        W37577  27.363  15.300  18.172 -0.3198  0.1533  0.1637
94665W        W37578  25.813  27.408  12.756  0.3057  0.0358 -0.1766
94666W        W37579  11.124  11.540  22.875 -0.0465  0.1852 -0.2116
94667W        W37580  24.766   5.261  15.338 -0.1127  0.0458  0.4974
94668W        W37581  26.578  24.678  24.037  0.0960 -0.1330  0.1900
94669W        W37582  28.571  22.026  23.185  0.0223  0.2847  0.2671
94670W        W37583  29.170  30.682  28.721 -0.5944 -0.0741 -0.3803
94671W        W37584  21.362  27.980  14.838 -0.0470  0.4492 -0.1111
94672W        W37585  23.468   4.692  24.557  0.3677 -0.0224 -0.0759
94673W        W37586   8.495  27.088  20.926 -0.0890  0.1077 -0.1550
94674W        W37587  22.152  20.943  28.138 -0.0589  0.2818 -0.2677
94675W        W37588  21.973   5.879  14.230  0.0150 -0.0992 -0.2297
94676W        W37589  15.494   0.466  21.529  0.3096  0.1168  0.1043
94677W        W37590  24.795  20.633  17.210 -0.1769  0.3195  0.1610
94678W        W37591  30.878  31.121  25.015 -0.0433  0.4238  0.0925
94679W        W37592  11.453  12.749  15.592  0.0320 -0.2712  0.1971
94680W        W37593  23.759  22.122  13.362  0.1014  0.0903 -0.3077
94681W        W37594  17.276  28.224  18.716  0.2536 -0.1681 -0.0613
94682W        W37595  33.150  31.217  18.138  0.1495  0.3182  0.0023
94683W        W37596  19.034   0.451  14.150 -0.1613 -0.0021 -0.2691
94684W        W37597  20.489  27.467  19.597  0.1672 -0.3052 -0.2556
94685W        W37598  17.306  22.795  20.364  0.0382 -0.1666  0.1121
94686W        W37599  32.401   0.092  18.266 -0.0604 -0.1595  0.3579
94687W        W37600  15.460  27.383  15.165  0.2195  0.4093 -0.2631
94688W        W37601  25.901  23.522  13.604 -0.1757 -0.1222  0.1806
94689W        W37602  23.297  20.222  17.150  0.0700  0.2041  0.0247
94690W        W37603  31.932  16.857   0.580  0.4064  0.3323 -0.3262
94691W        W37604  26.273  16.234  14.741 -0.0649 -0.2348  0.1118
94692W        W37605  15.506   2.761  15.437  0.1251  0.2245 -0.1116
94693W        W37606  21.703  15.839  16.269  0.1040  0.0334 -0.0012
94694W        W37607  14.359  28.894  16.856  0.1285 -0.0591  0.0613
94695W        W37608  12.965  24.246  16.475  0.0220 -0.1848  0.0525
94696W        W37609  24.538  25.287  20.195  0.0657 -0.0476  0.0198
94697W        W37610  12.894  28.772  25.579  0.1647 -0.1554  0.0346
94698W        W37611  25.890  17.718  21.585  0.0031  0.2306  0.1524
94699W        W37612  10.415  26.081  17.617 -0.0002  0.3469 -0.0232
94700W        W37613   8.128   7.518  23.360  0.2259 -0.3114  0.0107
94701W        W37614  29.284  24.937  16.452 -0.1450  0.3178 -0.0441
94702W        W37615  28.641  28.912  21.821 -0.1374  0.0053  0.2474
94703W        W37616  22.641  23.685  13.487 -0.2281  0.0543 -0.0776
94704W        W37617  22.010  29.638  29.430 -0.1998  0.0656 -0.4613
94705W        W37618  20.679  20.859  23.497 -0.2987 -0.1069 -0.2585
94706W        W37619  23.040  19.623  16.261  0.1493  0.2761  0.1051
94707W        W37620  24.062  21.456  18.380 -0.2559  0.1841 -0.0440
94708W        W37621  33.334  32.248  23.525 -0.3446  0.0315 -0.0804
94709W        W37622  12.582  24.491  21.476  0.0133 -0.0423 -0.2845
94710W        W37623  25.650  16.481  20.813  0.0015 -0.0277  0.0935
94711W        W37624  22.582  30.240  21.583 -0.0663  0.1902  0.2356
94712W        W37625  16.679  31.584  23.959 -0.1008  0.1386 -0.0126
94713W        W37626  32.023  19.297  25.110  0.1596  0.2333  0.1003
94714W        W37627  16.608  29.252  25.691  0.4143 -0.2207 -0.3765
94715W        W37628   9.131  24.452  23.749 -0.1305 -0.0455  0.0910
94716W        W37629  23.164   2.999  16.429 -0.1473 -0.0068  0.1368
94717W        W37630  34.023  26.163  15.251  0.0418 -0.1243  0.0714
94718W        W37631  21.803  24.581  18.645  0.1716 -0.3199 -0.2617
94719W        W37632  23.862  32.031  16.971  0.0545  0.0087  0.1956
94720W        W37633  26.750  28.109  28.823  0.0516  0.1034  0.1842
94721W        W37634  22.043  24.270  20.370  0.2145 -0.2148  0.3019
94722W        W37635  15.750  29.110  19.395  0.4718 -0.1502 -0.0617
94723W        W37636  25.053  30.273  19.405  0.3838  0.0220  0.0930
94724W        W37637  24.714  31.394   1.269 -0.1737 -0.0798  0.2807
94725W        W37638   5.778  15.308  19.665  0.1563 -0.1280 -0.0099
94726W        W37639  11.379  23.681  20.733 -0.0260 -0.0142 -0.0370
94727W        W37640  26.503  22.011  16.664 -0.0463  0.1934 -0.0034
94728W        W37641  20.122  23.941  16.251 -0.2348  0.0346 -0.2512
94729W        W37642  19.164  31.157  13.865  0.0784  0.0718 -0.0733
94730W        W37643  32.209  24.249  17.004 -0.3828  0.0528  0.1068
94731W        W37644  13.610  28.332  19.425  0.0868 -0.2243  0.4849
94732W        W37645  24.503  29.005  14.793  0.0287 -0.2360 -0.2521
94733W        W37646  22.937  26.309  15.844 -0.1272  0.1782  0.1222
94734W        W37647  21.735   6.522  29.397  0.0718  0.0132  0.0804
94735W        W37648  18.726  27.324  26.778  0.3508  0.0932  0.0763
94736W        W37649  26.008  25.793  16.523  0.0067 -0.0908  0.2197
94737W        W37650   9.563   9.318  20.743 -0.3238 -0.0118  0.2613
94738W        W37651  19.614  26.631  17.085 -0.0921  0.1955 -0.1547
94739W        W37652  26.372  29.001  14.511 -0.1653 -0.1141 -0.2046
94740W        W37653  20.506  25.138  18.341  0.0651  0.0291  0.0339
94741W        W37654  26.096  19.003  19.318 -0.1161  0.2456  0.0923
94742W        W37655  31.253  15.923  25.610  0.0819  0.2040  0.2256
94743W        W37656  12.824  12.935  17.563  0.1935  0.3429 -0.2007
94744W        W37657   5.164  28.490  20.661 -0.2808  0.1129 -0.1162
94745W        W37658   8.324  23.282  25.243  0.0002  0.1206  0.1980
94746W        W37659  24.631  30.961  14.569  0.3430  0.2057  0.1298
94747W        W37660  28.536  13.497  14.035 -0.3090 -0.0254 -0.0482
94748W        W37661  26.836   0.054  16.261 -0.0156  0.3102  0.0956
94749W        W37662  14.407  23.624   0.246 -0.0296  0.0480 -0.0361
94750W        W37663  18.371   3.450  28.239  0.0629 -0.2272  0.0257
94751W        W37664  24.805   2.023  18.629  0.3021  0.0130  0.1289
94752W        W37665  14.376  26.493  17.450 -0.0610 -0.1402 -0.0469
94753W        W37666  12.167  27.677  16.982 -0.0737 -0.5271 -0.1814
94754W        W37667  13.465   0.154  19.137  0.1747 -0.0078  0.0880
94755W        W37668   4.731   2.501  16.785  0.1662 -0.0057  0.0951
94756W        W37669  22.322  28.573  27.543  0.0409 -0.1287  0.1553
94757W        W37670  26.871  29.891  17.213  0.0935  0.1621  0.2366
94758W        W37671  15.309  29.543  20.083 -0.0540  0.2614 -0.1574
94759W        W37672  18.498  28.874  20.143  0.0947  0.0782 -0.0196
94760W        W37673  17.392   2.047  17.790  0.0555  0.1946  0.0218
94761W        W37674  21.783  10.587  15.057  0.2953 -0.3148 -0.0953
94762W        W37675  21.316  27.749  17.815  0.4458  0.0655  0.2302
94763W        W37676  19.574  16.381  25.181  0.0472 -0.0968 -0.2111
94764W        W37677  16.491  22.947  18.279  0.2747  0.0838  0.0942
94765W        W37678  21.720  22.032  13.304  0.0521  0.1369 -0.1846
94766W        W37679  26.442  22.637  18.153 -0.2831 -0.0935  0.3460
94767W        W37680  14.205  31.236  16.114 -0.3405 -0.3225 -0.1409
94768W        W37681  20.876   9.074  21.125 -0.3340  0.1098  0.2341
94769W        W37682  19.865  31.689  16.496  0.2291  0.0879 -0.1036
94770W        W37683  21.434  27.563  20.853  0.1711  0.0547 -0.0383
94771W        W37684  28.568  26.654  14.844 -0.0981 -0.0249 -0.0085
94772W        W37685  14.924  23.168  24.727  0.0774  0.1344 -0.1708
94773W        W37686   7.231  31.003  21.610  0.2538  0.1594 -0.2239
94774W        W37687  16.685  34.404  20.079  0.2885 -0.1380  0.0754
94775W        W37688  13.977  12.001  18.654 -0.4171 -0.1150 -0.2165
94776W        W37689  14.492  26.628  16.926  0.1079 -0.1656 -0.1174
94777W        W37690  25.863  25.462  18.540 -0.4641 -0.0712 -0.0690
94778W        W37691  25.122   4.868  23.348 -0.1360 -0.0515 -0.2418
94779W        W37692  10.426  23.771  14.415  0.0515 -0.0653  0.1501
94780W        W37693  11.709  23.152  29.220  0.1530 -0.4997 -0.1005
94781W        W37694  33.609  21.737  23.729 -0.1076  0.0802 -0.1238
94782W        W37695   7.622  25.869  23.738 -0.0403 -0.0683  0.0057
94783W        W37696  25.471  26.349  20.250  0.0579  0.0332  0.0182
94784W        W37697  22.346  25.132  15.239  0.2366 -0.2348  0.0838
94785W        W37698  19.078  32.585  15.672  0.2462  0.0511 -0.1043
94786W        W37699   9.694  22.558  19.275  0.0882 -0.0674 -0.0753
94787W        W37700  26.878  28.229  23.326 -0.1899  0.1483 -0.1549
94788W        W37701  21.008  22.701  13.703  0.0970 -0.0874 -0.0547
94789W        W37702  17.767  30.540  15.876  0.0015 -0.0163  0.0935
94790W        W37703  18.536   1.789  19.251 -0.0421  0.1220  0.0441
94791W        W37704  14.749  19.687  13.847  0.0445 -0.2003  0.1135
94792W        W37705  26.673  15.853  22.026 -0.0079 -0.3070  0.3036
94793W        W37706  10.252  27.299   1.881  0.0274  0.2022  0.3902
94794W        W37707  22.957  18.768  18.167 -0.4020  0.0614  0.0948
94795W        W37708  17.284  29.076  19.416 -0.1370 -0.1806  0.3124
94796W        W37709  15.875  28.182  18.962 -0.0782  0.3059 -0.1810
94797W        W37710   6.776  26.892  19.054 -0.2296 -0.1167  0.1423
94798W        W37711  33.645  27.730  20.164  0.0387  0.1218  0.2746
94799W        W37712  17.565  30.500  14.550  0.0847  0.1641 -0.0917
94800W        W37713  24.830  31.526  18.498 -0.1346 -0.4036  0.1546
94801W        W37714  17.387  12.312  16.221  0.0368  0.0030  0.1645
94802W        W37715  23.195  16.725  16.751  0.0196  0.3991  0.0112
94803W        W37716  24.181  26.293  23.114  0.0245 -0.0693  0.1589
94804W        W37717  28.370   5.469  16.334 -0.2661  0.1201  0.2706
94805W        W37718   8.315  23.458  18.463  0.0441  0.1144  0.0070
94806W        W37719  27.660   0.856  14.604  0.2491 -0.0489  0.1130
94807W        W37720  18.226  26.608   1.807  0.2090 -0.2386 -0.1754
94808W        W37721  22.872  29.587  19.071  0.0232  0.0608 -0.1352
94809W        W37722  13.378  16.985  14.720 -0.1103 -0.1803 -0.0104
94810W        W37723  22.481  26.510  13.760  0.0818 -0.1615 -0.1951
94811W        W37724  23.290  22.843  21.958  0.0410  0.3468  0.0336
94812W        W37725  22.920  31.578  23.844  0.0562 -0.1634 -0.2330
94813W        W37726  16.465  34.387  16.182 -0.0324 -0.0800  0.1208
94814W        W37727   9.776  29.296  21.017  0.0238  0.0701  0.1252
94815W        W37728  28.061  25.057  20.042 -0.3010  0.1940 -0.2142
94816W        W37729  15.108  33.787   1.497  0.4289  0.0632  0.1178
94817W        W37730  33.043  24.387  16.265  0.0508  0.0935 -0.0972
94818W        W37731  30.996  27.765  26.028 -0.1414 -0.1826  0.3673
94819W        W37732  33.109   9.970  19.725  0.0697 -0.0659 -0.2233
94820W        W37733  19.065  20.874  11.811 -0.1280  0.1489  0.0500
94821W        W37734  21.428  23.544  15.327 -0.1713  0.1075 -0.2575
94822W        W37735  15.095  21.902  13.866 -0.0548  0.0789  0.1296
94823W        W37736  22.889   3.236  19.449 -0.2716  0.0407  0.0997
94824W        W37737  15.743  32.431  18.285 -0.2233  0.0212  0.4862
94825W        W37738  20.466  16.890  24.772  0.1022 -0.0883  0.2083
94826W        W37739  22.067  23.750  17.325 -0.1039  0.1717  0.3717
94827W        W37740  14.113  25.731   1.931  0.0938  0.1908  0.0711
94828W        W37741  29.526  21.506  24.692  0.1405 -0.1692 -0.3927
94829W        W37742   5.578  30.079  20.985  0.1666  0.0798 -0.1427
94830W        W37743  19.526  19.135  12.633 -0.0243  0.2601 -0.1738
94831W        W37744  17.320  25.147  18.861  0.0053 -0.0328 -0.2385
94832W        W37745  19.828  26.674  14.855 -0.3901 -0.2859  0.2489
94833W        W37746  17.590  34.000  24.261 -0.1255  0.2021  0.0831
94834W        W37747  33.286  22.757  17.263 -0.3626  0.2314  0.1043
94835W        W37748  20.339  28.091  15.970 -0.0919  0.2654 -0.0251
94836W        W37749  23.396  20.479  15.360  0.0491  0.0239  0.1377
94837W        W37750  31.756  23.243  21.176 -0.0079  0.0119 -0.1154
94838W        W37751  27.449  10.280  15.629 -0.0914  0.0660  0.1846
94839W        W37752  17.940   0.024   5.258 -0.2576 -0.1002  0.1465
94840W        W37753  16.550  22.848  17.373  0.1609 -0.0088 -0.2911
94841W        W37754  20.906   3.291  26.291 -0.0339  0.3082  0.1274
94842W        W37755  10.586  29.191  18.172  0.0568  0.3452 -0.2451
94843W        W37756  27.751  25.254  20.408 -0.0435 -0.2649  0.0449
94844W        W37757  29.429  27.435  27.904 -0.0111 -0.0595 -0.0768
94845W        W37758  12.093  29.454  22.112  0.1919 -0.0785 -0.0085
94846W        W37759  25.559   3.954  15.121  0.3590  0.0606  0.1449
94847W        W37760  21.421  29.909  15.924  0.1989  0.5919  0.0555
94848W        W37761   9.408  29.785  16.110  0.3819  0.0809  0.0934
94849W        W37762  20.169  29.481  27.275 -0.1700 -0.1698  0.0442
94850W        W37763  15.755   0.056  16.001  0.0695 -0.0881 -0.0989
94851W        W37764  19.053  28.963  20.989  0.1841 -0.0272 -0.0467
94852W        W37765  14.166  32.338  21.951  0.0294 -0.1335 -0.3061
94853W        W37766  11.112  20.916  14.941 -0.1279 -0.1283  0.1039
94854W        W37767  16.207  23.064  13.078 -0.0472  0.1012 -0.1396
94855W        W37768  15.316  25.773  14.633  0.2368  0.1904  0.3494
94856W        W37769  20.876  30.819  15.747 -0.1462  0.2790  0.2518
94857W        W37770  18.860  14.049  16.137 -0.0469  0.1119 -0.2995
94858W        W37771  12.499  20.581  12.674 -0.2811  0.0381 -0.0767
94859W        W37772  23.698  34.310  15.507 -0.3431 -0.1195  0.0624
94860W        W37773  14.317  28.703  20.088 -0.2974  0.3457 -0.3194
94861W        W37774  21.702   0.780  13.967  0.0848  0.1349 -0.1992
94862W        W37775  29.169  20.767  26.234  0.1772 -0.1450 -0.0693
94863W        W37776   8.627  29.859  17.375 -0.0336 -0.0843  0.1658
94864W        W37777  17.923  29.689  18.860 -0.1394  0.0070 -0.1319
94865W        W37778  18.566  24.094   5.221 -0.1352 -0.0189  0.0803
94866W        W37779  17.115   1.142  27.188  0.0975  0.2222  0.1092
94867W        W37780  30.332  24.041  13.948  0.1216 -0.0113  0.0253
94868W        W37781  24.465  21.808  22.899 -0.2328  0.0280  0.0025
94869W        W37782   1.806  27.940  15.611  0.2023 -0.0817 -0.0494
94870W        W37783  19.011  20.624  12.548  0.1527  0.2508  0.2174
94871W        W37784  23.588   2.100  15.667  0.1552  0.2397 -0.0715
94872W        W37785  29.602  28.891  17.814  0.0586  0.0822 -0.0655
94873W        W37786  10.343  21.849  24.836 -0.1018 -0.1562 -0.1786
94874W        W37787  23.432  23.435  19.318  0.3956 -0.1217  0.0450
94875W        W37788  26.932  23.323  16.994 -0.1386 -0.4138  0.1227
94876W        W37789  21.463  32.106  25.643 -0.0167 -0.4527 -0.2336
94877W        W37790  18.872  31.527  23.332  0.0506 -0.2051 -0.0074
94878W        W37791  33.931  23.833  21.766  0.1329  0.2765 -0.2164
94879W        W37792  19.336  22.913  22.223  0.0958  0.5972  0.5319
94880W        W37793  15.930  31.380  22.760  0.1746 -0.1344  0.1204
94881W        W37794  15.492   3.264  20.927 -0.0754  0.1451  0.0547
94882W        W37795  16.896  25.277   8.224  0.2811  0.0709 -0.2048
94883W        W37796  28.963  27.363  18.416 -0.1768 -0.2446 -0.0729
94884W        W37797  26.244   6.456  21.137  0.2009  0.1307 -0.2447
94885W        W37798  29.502  22.958  16.585 -0.0497  0.2140  0.1865
94886W        W37799  22.804   9.814  14.037 -0.0148  0.1498 -0.1211
94887W        W37800  28.818  27.028  20.294 -0.1208  0.2889 -0.3875
94888W        W37801  20.775  29.238  19.855  0.1666 -0.0939  0.0044
94889W        W37802  16.316  23.081  14.081 -0.2217 -0.0108 -0.2156
94890W        W37803  18.764  29.396  16.979  0.0030 -0.1391 -0.2910
94891W        W37804  19.729   6.158  18.875 -0.2023  0.0298 -0.0527
94892W        W37805  16.271  27.004  15.017  0.5484 -0.0499 -0.1288
94893W        W37806  31.543   4.508  16.841 -0.2180 -0.3705 -0.2574
94894W        W37807  24.740  11.962  22.380 -0.1683  0.0379  0.0756
94895W        W37808  28.646   6.523  23.960 -0.1301 -0.2195 -0.2620
94896W        W37809  21.478   3.676   2.123  0.0082 -0.1400 -0.2226
94897W        W37810  24.959   5.290  20.762  0.1508  0.0993 -0.1685
94898W        W37811   7.190  29.071  16.988  0.1273  0.2148 -0.2991
94899W        W37812  10.979  16.335  22.742 -0.0507  0.0372  0.1264
94900W        W37813  21.097  27.696  24.581 -0.2789  0.0640 -0.0769
94901W        W37814  29.800  30.770   1.234 -0.1171 -0.2631  0.0399
94902W        W37815  15.657  32.029  23.291  0.3030 -0.1986  0.0679
94903W        W37816  25.421  30.139  20.011 -0.0458 -0.2513 -0.1147
94904W        W37817  23.538  29.163  15.062 -0.0734  0.0929 -0.1090
94905W        W37818  13.035  31.234  23.011 -0.1871 -0.2781 -0.2282
94906W        W37819   0.527  19.357  28.298  0.0830  0.2590  0.1405
94907W        W37820  24.135  24.429  20.262 -0.0277  0.2062 -0.2258
94908W        W37821  18.773  14.789  14.723 -0.2800 -0.1709 -0.1689
94909W        W37822  27.520  27.999  16.161  0.3878 -0.0538  0.0169
94910W        W37823  14.186  31.093  22.106  0.0764  0.3435 -0.0607
94911W        W37824  14.173  11.510  20.233  0.1308  0.0352  0.3655
94912W        W37825  17.965  24.105  16.036 -0.2966 -0.2867 -0.1768
94913W        W37826   0.555   0.433  16.180  0.1181 -0.3061  0.0667
94914W        W37827  13.173  17.925  17.002 -0.4045 -0.2217 -0.5862
94915W        W37828  24.239  19.125  16.979  0.1251 -0.0005 -0.1643
94916W        W37829  27.804  30.141  23.142  0.0942  0.1155  0.2384
94917W        W37830  20.307  19.644  13.205  0.1673 -0.1476 -0.3564
94918W        W37831  25.512  22.629  22.991 -0.0523  0.2721 -0.0287
94919W        W37832  33.317  28.155  14.850 -0.1240 -0.0757 -0.3183
94920W        W37833  12.483  22.554  18.431  0.2269 -0.1976  0.1967
94921W        W37834  22.657  20.932  24.789 -0.1345  0.0572  0.3382
94922W        W37835  27.101  13.652  19.834 -0.1364  0.0179  0.0290
94923W        W37836   5.774  23.236  17.886  0.0081 -0.2401  0.1850
94924W        W37837  27.681  12.687  16.552 -0.1131  0.0700  0.2901
94925W        W37838  25.520  27.742  16.307 -0.0443 -0.0468  0.1275
94926W        W37839  22.680  27.805  14.873 -0.0427 -0.0247  0.2759
94927W        W37840  20.314  24.044  17.478 -0.1846  0.1864  0.0574
94928W        W37841  31.601  22.663  24.457 -0.0336  0.0974  0.2881
94929W        W37842  23.248  25.379  13.003 -0.1171 -0.0170  0.0779
94930W        W37843  16.934  31.420  22.567  0.0278  0.1536  0.0153
94931W        W37844  19.406  29.003  15.871  0.0031  0.5098 -0.0409
94932W        W37845  19.686  21.264  15.508  0.0637 -0.0731 -0.0873
94933W        W37846  21.480  22.358  15.237  0.2389 -0.1945  0.1350
94934W        W37847  17.527  32.811  17.664  0.1029  0.0009  0.1555
94935W        W37848  27.734  32.384   0.582  0.2566 -0.3461  0.2294
94936W        W37849  30.979  24.422  21.008 -0.0456  0.3049  0.2053
94937W        W37850  32.105   0.170  21.795 -0.0759  0.1367 -0.2129
94938W        W37851  13.065  23.192  14.489  0.1169 -0.1852  0.3829
94939W        W37852  24.044  30.467  19.432  0.2132 -0.0065  0.0852
94940W        W37853  30.216  22.810  17.337  0.5662 -0.0654 -0.0337
94941W        W37854   2.672  25.092  14.825  0.1951  0.1751 -0.0547
94942W        W37855  26.622  19.217  18.896  0.3022  0.0782  0.1670
94943W        W37856  18.178  28.183  28.126 -0.1367  0.0636 -0.0681
94944W        W37857  13.132  15.364  24.577 -0.4591  0.1704  0.0914
94945W        W37858  23.064   0.718  23.791 -0.1977  0.1603 -0.1076
94946W        W37859  17.516  27.934  20.386 -0.2216 -0.1146  0.0706
94947W        W37860  28.649  25.786  19.025  0.0477 -0.3712 -0.0165
94948W        W37861  20.753  13.754  22.240 -0.3320 -0.1777 -0.0015
94949W        W37862  29.171  22.117  21.486 -0.0742 -0.1126  0.1937
94950W        W37863  24.477  32.617  20.942  0.2949 -0.4821  0.0143
94951W        W37864  21.489  29.002  14.121  0.2836 -0.1087 -0.1071
94952W        W37865  31.871  20.708  17.529  0.1445 -0.1789  0.2432
94953W        W37866  23.734  24.475  12.922  0.1767  0.0359  0.2232
94954W        W37867  25.051  26.571   0.825 -0.0842  0.2245  0.4563
94955W        W37868  14.069  20.751  17.139 -0.3246  0.4458 -0.0051
94956W        W37869  23.143  25.741  17.145 -0.2585 -0.1409 -0.2772
94957W        W37870  24.635  28.887  22.731  0.0750 -0.0668  0.3685
94958W        W37871  22.321  27.163  25.417  0.0598  0.1818  0.2336
94959W        W37872  22.655  28.221  16.139  0.0480 -0.1317  0.1550
94960W        W37873  19.826  28.846  18.709 -0.0842 -0.2073  0.2672
94961W        W37874  10.410  21.673  16.084 -0.5066  0.1686 -0.0644
94962W        W37875  32.473  31.105  22.977  0.1651 -0.0489 -0.0275
94963W        W37876  23.057  28.634  13.118  0.0636  0.1409 -0.0826
94964W        W37877  20.775  26.814  17.598 -0.1616  0.1665  0.0489
94965W        W37878  19.382  31.660  21.316  0.0356 -0.0886 -0.0321
94966W        W37879  29.247  29.444  16.526  0.2601  0.1695 -0.0041
94967W        W37880  25.480  20.119  20.960  0.2144 -0.1974  0.1274
94968W        W37881  34.481  25.349  24.830 -0.2125 -0.1642  0.1535
94969W        W37882  14.089  30.465  17.668  0.0681 -0.0873  0.0207
94970W        W37883  20.910  19.191  21.754 -0.0977  0.2084 -0.1239
94971W        W37884  20.817   1.560  29.418  0.0605  0.0927 -0.2093
94972W        W37885  11.997  33.567  18.244 -0.0308  0.0834  0.0575
94973W        W37886  18.121   1.063  27.025  0.1062 -0.2701 -0.0851
94974W        W37887  12.949  28.791  21.710 -0.1846 -0.1341 -0.0761
94975W        W37888  25.797  30.699  15.100 -0.1061  0.3936  0.2571
94976W        W37889  15.591  14.124  11.770  0.1576  0.0381  0.0600
94977W        W37890  21.646  26.791  13.465  0.2252  0.3565  0.1608
94978W        W37891  20.403  25.660  21.844  0.1410 -0.0641 -0.0463
94979W        W37892  29.151  32.699  28.569  0.1973 -0.1671 -0.0780
94980W        W37893  21.286  27.653  23.292 -0.2002 -0.0255 -0.1532
94981W        W37894  25.994  18.609  22.528  0.0518 -0.0877 -0.1302
94982W        W37895  18.322  31.248  18.023  0.3704  0.0677  0.1350
94983W        W37896  20.842  27.187  18.717 -0.0690  0.4149  0.0413
94984W        W37897  27.973  28.592  14.655 -0.1445 -0.0515 -0.3141
94985W        W37898  23.294  20.326  21.918  0.0563  0.0301  0.1774
94986W        W37899  18.865  27.356  17.345  0.0690 -0.2983  0.0358
94987W        W37900   7.893  33.824  17.586 -0.0879 -0.0207  0.0342
94988W        W37901  14.869  16.316  12.721  0.1774  0.2864  0.1663
94989W        W37902  31.108  30.919  20.971 -0.0605 -0.1812 -0.0356
94990W        W37903  26.201  19.983  22.173  0.1708 -0.3092  0.0473
94991W        W37904  19.475  18.954  24.449  0.0519 -0.0545 -0.2793
94992W        W37905  26.693  25.240  20.833  0.2848 -0.0863  0.0527
94993W        W37906  10.461  29.021  19.733 -0.0145  0.1058 -0.1394
94994W        W37907  29.268  24.699  24.318  0.2631 -0.0968 -0.4465
94995W        W37908  32.805  16.976  24.096  0.1801  0.0117  0.0920
94996W        W37909  17.815   2.528  14.307  0.5030  0.1239  0.1778
94997W        W37910  26.939  16.488  23.811  0.0275  0.2690 -0.2847
94998W        W37911  19.452  23.265  20.324 -0.2647 -0.0137  0.0843
94999W        W37912  22.215  24.380  17.196 -0.3442 -0.1844  0.0528
95000W        W37913  22.993  25.972  19.845 -0.0061 -0.0376 -0.1779
95001W        W37914  15.471  23.182  16.842  0.0784 -0.0560  0.2211
95002W        W37915  22.778  19.241  21.823 -0.3796  0.2500 -0.2140
95003W        W37916  23.914  28.909  21.275 -0.0919  0.4606 -0.1890
95004W        W37917  22.148  16.547  19.293 -0.2122  0.0432  0.0063
95005W        W37918  22.313  19.990  24.499 -0.0711  0.1249 -0.1123
95006W        W37919  21.735  28.134  13.488  0.2531  0.0010 -0.0331
95007W        W37920  13.635  13.423  17.315  0.3567 -0.1346  0.0625
95008W        W37921  21.865  29.071  26.444  0.1481  0.2499  0.3496
95009W        W37922  30.242  28.872  15.865  0.0185  0.3675 -0.1049
95010W        W37923  19.277   5.422  18.858  0.2140  0.1275  0.2538
95011W        W37924  23.333   1.581  15.619  0.2214 -0.1410 -0.0504
95012W        W37925  21.212  22.792  15.335 -0.1325 -0.0330 -0.3676
95013W        W37926  21.145  29.582  18.604  0.1086 -0.1482  0.0045
95014W        W37927  15.720  30.630   1.491  0.2162 -0.0180 -0.0982
95015W        W37928  15.887  32.789  16.265 -0.2547  0.2235  0.2036
95016W        W37929  18.583  20.341  21.274 -0.0384  0.3102 -0.0630
95017W        W37930  16.524  26.483  26.221  0.1788 -0.0553  0.1768
95018W        W37931  22.840  22.642  20.797 -0.3166 -0.0629  0.1225
95019W        W37932  21.802  24.460  16.813 -0.0378  0.0434 -0.1431
95020W        W37933  31.238  29.077  25.013 -0.0070  0.1639 -0.3210
95021W        W37934  18.935  22.720   6.018  0.3088  0.0647  0.1959
95022W        W37935  15.266  21.830  28.619 -0.0275  0.0149  0.1457
95023W        W37936  12.559  31.464  18.312  0.1996  0.0054  0.2079
95024W        W37937   8.448  23.234  19.677  0.1275  0.0667  0.0661
95025W        W37938  10.973  23.882   0.373 -0.3105 -0.0725  0.2168
95026W        W37939  22.074  27.325  19.506 -0.0359  0.0376 -0.2921
95027W        W37940  28.163  26.829  25.361  0.3239 -0.0873  0.1277
95028W        W37941  14.949  26.877  15.703 -0.3013  0.0337  0.4763
95029W        W37942  19.308  26.283  26.292 -0.0622 -0.0123  0.0484
95030W        W37943  28.349  24.638  18.511  0.2388  0.0447 -0.0329
95031W        W37944  10.895  28.821  19.485  0.1752  0.2796 -0.0930
95032W        W37945  22.602  22.975  25.643  0.2202 -0.3026  0.0241
95033W        W37946  11.336  28.734  17.107 -0.1849  0.0735  0.3694
95034W        W37947   3.754  30.657  21.631 -0.3093 -0.1131 -0.0252
95035W        W37948  20.768  32.777  25.312 -0.0075 -0.3361  0.0570
95036W        W37949  18.999  24.232  19.483 -0.0761  0.1610  0.1869
95037W        W37950  21.550  24.460   1.575  0.0338  0.2141  0.3881
95038W        W37951  33.677  30.441   0.359 -0.1941  0.3787 -0.0001
95039W        W37952  19.179   0.921  19.677 -0.0449  0.0246  0.0216
95040W        W37953  15.535  21.283  23.287  0.0127 -0.3078  0.3331
95041W        W37954  21.418  24.209  21.753 -0.0614  0.0054 -0.1914
95042W        W37955  20.530  14.322  16.262  0.2471 -0.1444 -0.0706
95043W        W37956   3.459  20.393   0.687  0.1414  0.1884 -0.0133
95044W        W37957  25.375  21.284  16.755  0.2073  0.2332  0.0114
95045W        W37958  25.844  12.781  25.592  0.1295 -0.0978 -0.1631
95046W        W37959  12.898  23.535  15.994  0.3305 -0.1024  0.2474
95047W        W37960  10.957  25.332  16.337 -0.3211  0.1612  0.0540
95048W        W37961  20.441  28.171  19.537 -0.0286  0.1883  0.1435
95049W        W37962  25.349   1.000  17.089  0.0787  0.2183 -0.1691
95050W        W37963   9.273  22.202   3.125 -0.0467 -0.1191 -0.3974
95051W        W37964  11.150  31.712  16.324 -0.3702  0.2071  0.0680
95052W        W37965  15.308  26.088  26.116  0.3635  0.0398 -0.0566
95053W        W37966  22.704  25.431  29.243  0.0748 -0.1518  0.1074
95054W        W37967  16.631  29.572  19.379 -0.1358 -0.0311  0.0210
95055W        W37968  16.877   0.305  17.412 -0.1179  0.0123 -0.0827
95056W        W37969  18.696  20.308  12.819 -0.2951  0.2419  0.2357
95057W        W37970  23.500   4.576  20.613 -0.0583 -0.1651 -0.0141
95058W        W37971  17.976  25.718   0.331  0.2484  0.0797  0.0718
95059W        W37972  21.800  25.282  28.910 -0.0880 -0.2872  0.1428
95060W        W37973  29.803  23.881  25.081 -0.0729  0.1290 -0.4451
95061W        W37974  17.713  19.545  14.329  0.0475  0.3128 -0.0672
95062W        W37975  23.458  17.234  25.176  0.0222  0.2631  0.2805
95063W        W37976  26.658  27.925  16.932  0.0904 -0.0752 -0.0108
95064W        W37977  21.984  27.159  28.588 -0.2339  0.0275  0.1319
95065W        W37978  25.404  28.024  25.868  0.2739  0.1942  0.1799
95066W        W37979  13.092  33.632  27.191 -0.0638  0.1845  0.0776
95067W        W37980  22.108  26.752  26.591 -0.0892 -0.0245  0.0837
95068W        W37981  25.774   0.063  22.033  0.0234 -0.1086 -0.0174
95069W        W37982  26.724  21.146  14.141  0.1076 -0.0495 -0.0876
95070W        W37983  17.675   3.945   0.409 -0.0907  0.2534  0.0546
95071W        W37984  13.515  30.537  21.833  0.0982  0.1018 -0.1735
95072W        W37985   4.055  24.396  19.872 -0.0392 -0.1971  0.0114
95073W        W37986   9.962  28.452  17.378 -0.1656 -0.0418  0.0344
95074W        W37987  15.988  24.026  25.743 -0.0084 -0.1695  0.1278
95075W        W37988  18.949  26.326   5.525 -0.2098 -0.0494  0.0840
95076W        W37989  25.207  26.956  26.378  0.2086  0.2881  0.2331
95077W        W37990  20.363  25.162   9.013 -0.0950 -0.1914  0.0386
95078W        W37991  19.668  26.922  22.164 -0.3102 -0.0689  0.1547
95079W        W37992  20.350  21.810  14.426 -0.0181  0.0648  0.0352
95080W        W37993  31.337   5.738  21.308  0.2722 -0.0070 -0.2326
95081W        W37994  29.754   7.030  27.989  0.1605  0.1088  0.1162
95082W        W37995  19.150  26.543  19.514  0.0061 -0.5051 -0.2257
95083W        W37996  15.329  21.616  27.635 -0.0802 -0.1195  0.0425
95084W        W37997  18.243  23.823   3.685  0.1490 -0.0205  0.1095
95085W        W37998  25.992  21.562  16.699 -0.0160 -0.1317 -0.2626
95086W        W37999  11.997  26.210  26.582 -0.0050  0.0983  0.3088
95087W        W38000  14.443  28.823  23.243  0.3365  0.0277 -0.2097
95088W        W38001  19.672  29.177  19.588  0.0219 -0.0060 -0.0111
95089W        W38002  20.430   3.792  21.791 -0.0934  0.2525 -0.0432
95090W        W38003  11.272  23.698  22.934 -0.1345 -0.1062  0.0956
95091W        W38004  26.134   5.926  21.946  0.3103 -0.1493 -0.1141
95092W        W38005  22.205  14.811  14.400  0.1028  0.1741 -0.3487
95093W        W38006  20.130  29.122  20.800 -0.2940 -0.0565 -0.0402
95094W        W38007  13.140  31.125  18.891 -0.2353 -0.0979 -0.0022
95095W        W38008  29.179  29.639  28.547 -0.0177 -0.0248 -0.5128
95096W        W38009  18.207  14.020  24.674 -0.1630 -0.0091  0.1070
95097W        W38010  24.351   3.677  23.580  0.2954  0.1124  0.1530
95098W        W38011  11.754  20.053  14.197 -0.2227 -0.1943 -0.1113
95099W        W38012  24.875   4.040  18.730 -0.0173  0.1623  0.0937
95100W        W38013  11.810  30.301  27.401  0.0761 -0.1799  0.1654
95101W        W38014  19.960   7.314  13.770  0.1088 -0.0697 -0.2204
95102W        W38015  19.192  15.412  14.857  0.4134  0.0480  0.0323
95103W        W38016  19.132  23.943  22.892  0.1507 -0.3178 -0.2756
95104W        W38017  30.887  25.404  23.674  0.0492 -0.3029 -0.2290
95105W        W38018  19.746   2.470  14.257 -0.0237  0.0417 -0.1151
95106W        W38019  23.422  12.496  22.346  0.2386  0.0893 -0.0110
95107W        W38020  21.044  16.358  14.461 -0.2464 -0.0197  0.2667
95108W        W38021  20.835  32.869  27.102  0.0467  0.3356 -0.0134
95109W        W38022  10.208  13.195  15.352 -0.2707 -0.0745 -0.2499
95110W        W38023  20.640  29.743  25.838  0.0983 -0.0323 -0.0282
95111W        W38024  19.550   1.161  20.507  0.2432 -0.0835  0.2639
95112W        W38025  17.917  30.084  25.660 -0.1199 -0.1581  0.0476
95113W        W38026  27.596  29.219  19.929 -0.0815 -0.1287  0.3669
95114W        W38027   0.684  29.869  27.535  0.0861 -0.1595  0.1229
95115W        W38028  28.120  13.154  25.383  0.1063  0.3122 -0.0825
95116W        W38029  24.759  22.449  21.304  0.3104  0.0693 -0.2801
95117W        W38030  22.851  21.773  21.950  0.0454 -0.2248 -0.0584
95118W        W38031  22.210  32.030  18.452 -0.1807  0.0350  0.1172
95119W        W38032  18.682  28.219  18.223 -0.1234 -0.0358  0.1020
95120W        W38033  22.046  14.498  20.033  0.0413 -0.1192 -0.1374
95121W        W38034  12.479  16.169  12.464 -0.2307 -0.2241  0.1917
95122W        W38035  28.187  28.593  25.154 -0.0101  0.0695  0.0249
95123W        W38036  31.983  22.495  25.303 -0.0490 -0.0159 -0.0215
95124W        W38037  18.815  25.008  24.305 -0.3103  0.0730  0.3191
95125W        W38038  16.535  26.099  19.657 -0.0374 -0.0546 -0.2257
95126W        W38039  21.007  19.698  22.966  0.1984 -0.0987 -0.0386
95127W        W38040  12.400  21.062   8.036 -0.2690 -0.0742  0.0352
95128W        W38041  16.065  29.116  18.628  0.2401  0.0727  0.0545
95129W        W38042  28.161  29.251  18.110  0.0120 -0.1344  0.2413
95130W        W38043  20.924  23.435  13.169  0.0526 -0.0288 -0.1874
95131W        W38044  26.140  26.434   5.573  0.2455  0.1671  0.4295
95132W        W38045  10.511  32.296  19.513  0.0733  0.1498  0.4251
95133W        W38046  23.913  27.171  26.297 -0.0552  0.0330 -0.1749
95134W        W38047  18.710  21.501   0.777 -0.2130 -0.3653  0.1417
95135W        W38048  16.026  23.929  23.042 -0.0427 -0.1613 -0.0207
95136W        W38049  18.438  21.344  15.842  0.0480  0.0429  0.0979
95137W        W38050  15.133   3.189  24.227 -0.1390  0.1759 -0.0178
95138W        W38051  18.363  31.739  19.646  0.3355 -0.1034 -0.1333
95139W        W38052  30.507  20.384  15.342  0.0460  0.0094  0.0875
95140W        W38053  18.165  24.962  20.381 -0.2349 -0.0895  0.1538
95141W        W38054  14.196  30.530  20.428  0.1297 -0.0234  0.0813
95142W        W38055  21.933  20.312  24.681  0.0386  0.0536 -0.0777
95143W        W38056  11.096  19.960  19.694  0.3671  0.0226  0.0368
95144W        W38057  23.419  15.389  16.547  0.1049 -0.1546 -0.2336
95145W        W38058  24.033   1.761  23.790  0.0283  0.1265 -0.2474
95146W        W38059  27.533  21.638  19.892 -0.4284 -0.0203 -0.0075
95147W        W38060  20.754   3.387  22.029 -0.0736 -0.3898 -0.0647
95148W        W38061  23.486  19.658  26.689 -0.2660  0.0169  0.2722
95149W        W38062  25.765  26.974  24.293 -0.2128  0.2028 -0.0105
95150W        W38063  24.170  21.321   2.542  0.2208  0.0413  0.2400
95151W        W38064  25.517  24.913  13.133 -0.1360 -0.1081  0.0675
95152W        W38065  16.565  30.761  17.222 -0.0652  0.1932 -0.0561
95153W        W38066  17.285  26.591  24.664  0.0780  0.2093 -0.0039
95154W        W38067  18.975  24.291  21.739 -0.1497  0.1816 -0.0442
95155W        W38068  28.525  26.506  29.740  0.1855  0.1114  0.1233
95156W        W38069  29.109  21.380  17.770 -0.0129 -0.2539  0.0209
95157W        W38070  21.940  27.305  17.583  0.4232 -0.2644 -0.0591
95158W        W38071  28.329  27.291  17.907  0.2739 -0.1218  0.1678
95159W        W38072  34.405  29.218  27.616 -0.0823 -0.0860  0.1121
95160W        W38073  19.605  23.674  26.945  0.0202 -0.4227  0.0152
95161W        W38074  20.784  16.660  24.250  0.1491  0.1584 -0.0037
95162W        W38075  26.453   0.853   0.088  0.2795  0.1256 -0.1562
95163W        W38076  12.969   2.410   3.622  0.4984 -0.0701  0.3076
95164W        W38077  19.213  29.884  27.600 -0.1783  0.0044  0.4565
95165W        W38078  20.002  33.324  24.407  0.1236  0.1986  0.1666
95166W        W38079  28.363  31.347  17.259 -0.0349  0.0141 -0.3650
95167W        W38080  20.202  29.985  20.325 -0.1282  0.3203  0.1928
95168W        W38081   7.355  33.471   2.268 -0.0971  0.3316  0.1360
95169W        W38082  21.925  26.138  24.578  0.0059 -0.0608  0.0978
95170W        W38083  20.080  14.289  25.741 -0.0104 -0.1782 -0.2075
95171W        W38084  24.049  25.542  23.782 -0.0023 -0.3114  0.1163
95172W        W38085  23.378  29.079  16.112  0.3580 -0.0779 -0.0017
95173W        W38086  22.135   4.802  16.852  0.0921  0.0960 -0.2625
95174W        W38087  19.160  23.929  27.112  0.0200  0.0474  0.0633
95175W        W38088  17.707  24.957  25.047 -0.1262  0.4105 -0.0454
95176W        W38089   9.604  26.972  27.368 -0.0900 -0.0001 -0.1175
95177W        W38090  27.888  24.351  28.554  0.0367 -0.2159  0.1359
95178W        W38091  27.186  23.077  12.667 -0.0346  0.0820 -0.0992
95179W        W38092  22.351  12.240  21.527  0.2181 -0.1106  0.2220
95180W        W38093  25.511  24.545  15.195 -0.3125 -0.0969  0.1033
95181W        W38094  17.309  30.321  16.014  0.2160  0.2124  0.3043
95182W        W38095  15.275  24.949  17.036  0.3115 -0.2404 -0.0062
95183W        W38096  16.594  22.571  14.750  0.2272 -0.1246 -0.2745
95184W        W38097   6.612  25.782  21.903 -0.0109  0.0355  0.1119
95185W        W38098  16.977   0.201   2.945  0.2154 -0.0167 -0.0072
95186W        W38099  16.049  28.765  24.974 -0.2357  0.1584  0.1101
95187W        W38100  20.014  31.591  14.112  0.0820 -0.1590 -0.0572
95188W        W38101  20.074  22.186  19.761 -0.0954 -0.1128  0.0614
95189W        W38102  25.760  32.119  14.992 -0.1293  0.0088  0.1999
95190W        W38103  19.881  25.548  13.283 -0.1134 -0.1296  0.0151
95191W        W38104  14.454  24.590  22.142 -0.3067 -0.2477 -0.0417
95192W        W38105  26.754  22.372  27.854  0.1308 -0.1040  0.2325
95193W        W38106  25.160  24.167  18.362 -0.1365 -0.2582 -0.0561
95194W        W38107  16.219  27.792  21.631  0.1395  0.0149 -0.0423
95195W        W38108  24.127   7.559  17.138 -0.3275 -0.2219  0.0988
95196W        W38109  29.632  18.972  15.220 -0.1382 -0.2153  0.3338
95197W        W38110   4.964  29.069  21.618  0.3574 -0.2320 -0.0744
95198W        W38111  15.767  26.432  20.184 -0.1131  0.2118  0.3173
95199W        W38112  24.930  17.710  19.513 -0.2550 -0.3664 -0.2045
95200W        W38113  14.746  21.661  20.487 -0.0433  0.0405  0.0349
95201W        W38114  30.951  32.036  26.513  0.0648 -0.2385 -0.1672
95202W        W38115  16.885  18.905  17.974  0.0325  0.3917 -0.0161
95203W        W38116  28.626  33.305  18.851 -0.3533 -0.2583  0.3179
95204W        W38117  10.155  23.919  23.218 -0.3975 -0.0073  0.1830
95205W        W38118  15.798  14.893  12.111 -0.0056  0.2607  0.0839
95206W        W38119   0.647  20.312  14.215 -0.2060  0.3142 -0.1281
95207W        W38120  11.570  27.501  19.236 -0.3175  0.2085  0.0057
95208W        W38121  16.836  27.254  15.093  0.3062  0.2095 -0.1442
95209W        W38122  27.386  20.386  20.433  0.1286  0.1823 -0.0415
95210W        W38123  24.289  29.402  19.133  0.0359  0.0838 -0.1038
95211W        W38124  17.812  32.960  19.970 -0.0034  0.1212  0.3944
95212W        W38125  27.633  20.505  19.513 -0.0541  0.2511 -0.3872
95213W        W38126  16.465  34.205   1.631 -0.0899  0.0727  0.1370
95214W        W38127  10.202  18.488  16.929  0.1167 -0.1850 -0.1134
95215W        W38128  20.842  22.250  29.637 -0.0858  0.0795 -0.1839
95216W        W38129   6.970  25.574  16.096  0.1301  0.0333  0.1369
95217W        W38130  19.624  20.051  21.386 -0.0112 -0.1920 -0.0633
95218W        W38131  16.128  29.500  16.797 -0.0049  0.1143 -0.3505
95219W        W38132  24.624  26.109  21.672  0.3229 -0.1980  0.0874
95220W        W38133  16.540  23.281  22.499 -0.1496 -0.0474  0.2105
95221W        W38134  22.691  21.978  23.054  0.2901  0.0029  0.0757
95222W        W38135  26.542  31.953   3.711 -0.3011 -0.1953  0.1132
95223W        W38136   9.446  14.156  25.422 -0.0946 -0.1200  0.3084
95224W        W38137  18.588  28.799  15.747  0.4437 -0.2316  0.2045
95225W        W38138  15.539  29.960  28.471 -0.6666  0.0448 -0.0186
95226W        W38139  30.140  27.494  16.704  0.0114 -0.3945  0.3951
95227W        W38140  23.444  28.527  22.067  0.1536 -0.1283 -0.3692
95228W        W38141  13.175  32.298   2.812 -0.1342 -0.1217  0.1887
95229W        W38142   0.406  26.051  25.091 -0.1279  0.0702 -0.1076
95230W        W38143  13.953  30.718  18.921  0.0986 -0.1965 -0.1309
95231W        W38144  25.478  21.964  19.674 -0.1800 -0.1783 -0.2783
95232W        W38145  15.606  25.929  23.279 -0.0490  0.0243 -0.2371
95233W        W38146  16.803  27.232  18.570  0.4237  0.0438 -0.0490
95234W        W38147  26.133  19.738  21.617  0.1642 -0.0161  0.1131
95235W        W38148   9.864  24.396  15.320  0.2145 -0.1465  0.2550
95236W        W38149  26.300  22.103  17.393 -0.2819 -0.0985  0.0889
95237W        W38150  20.384   1.666   3.162 -0.1679 -0.1187 -0.3593
95238W        W38151  18.739  16.824  25.415  0.3061 -0.0292 -0.0138
95239W        W38152  30.142  23.729  17.933  0.1552  0.2091 -0.1833
95240W        W38153  26.397  29.909  20.839  0.1974  0.0844  0.2450
95241W        W38154  17.527   1.751   1.477 -0.0133 -0.0420 -0.1469
95242W        W38155  24.934  19.031  22.712  0.1058 -0.0404  0.0240
95243W        W38156  24.411  27.924   2.519 -0.2088  0.3569 -0.0083
95244W        W38157  22.707  17.386   0.589  0.1081 -0.0507 -0.2073
95245W        W38158  12.934  21.305  21.584  0.0033 -0.2223 -0.2455
95246W        W38159  26.692  23.666  20.702 -0.1053  0.0005 -0.0055
95247W        W38160  22.347  22.651   6.513  0.1709  0.2772  0.2535
95248W        W38161  15.865  32.776  23.367  0.1360  0.2215  0.1937
95249W        W38162  15.015  18.297   1.220  0.0351  0.0924  0.1745
95250W        W38163   0.619  19.828  23.120 -0.1183 -0.1177 -0.1493
95251W        W38164  18.683   3.037  25.956 -0.0714 -0.1410 -0.0446
95252W        W38165  31.808  22.961  23.045 -0.1790 -0.0023 -0.4550
95253W        W38166  12.341  27.424  20.509  0.1385  0.1760  0.1431
95254W        W38167  11.822  20.118  15.137  0.1451  0.0408 -0.0991
95255W        W38168  34.460  23.346   4.543  0.2476  0.0920  0.3350
95256W        W38169  19.683  30.636  18.452  0.0022 -0.1667  0.1499
95257W        W38170  27.605  24.238  20.301 -0.1982  0.2518 -0.0684
95258W        W38171  15.795  22.397  24.621 -0.0336 -0.1063  0.1737
95259W        W38172  19.466   0.173  14.448 -0.3481 -0.1735  0.0304
95260W        W38173  19.567  27.279  27.050 -0.1136 -0.1751  0.0640
95261W        W38174  19.511  27.854  17.899 -0.3644 -0.0618 -0.0011
95262W        W38175  22.776  30.137  17.535  0.1234  0.1330 -0.2095
95263W        W38176  10.969   0.259  21.725  0.3117 -0.1009  0.0631
95264W        W38177  19.884  26.955  23.400  0.3722  0.2501 -0.0527
95265W        W38178  12.238  27.602  23.240 -0.2515  0.0413 -0.3527
95266W        W38179  11.377  20.413  18.560  0.0221 -0.0636  0.1311
95267W        W38180  20.088  18.991  21.232  0.0752 -0.3331  0.0420
95268W        W38181  23.440  31.761  21.116 -0.2228  0.0073 -0.0659
95269W        W38182  27.957  31.924  16.747 -0.0184  0.2468  0.0738
95270W        W38183  21.208  18.601  20.611 -0.1465  0.0334 -0.0097
95271W        W38184  11.930  28.595  21.854 -0.5469  0.2754  0.1194
95272W        W38185  33.106  22.565  13.946 -0.0387  0.2903  0.3540
95273W        W38186  19.468  25.491  14.992 -0.3895 -0.2068 -0.2215
95274W        W38187  15.611  31.818   2.630 -0.1284 -0.0518  0.0786
95275W        W38188  15.699  27.596  17.476  0.2941 -0.3828  0.1354
95276W        W38189  21.839  30.335  17.679  0.1205 -0.0001  0.0595
95277W        W38190  15.916  29.500  23.169 -0.0813 -0.1692 -0.0746
95278W        W38191  16.648  19.556  12.328  0.0761 -0.0728  0.2520
95279W        W38192  32.210  29.042  16.947  0.0536  0.0764  0.1060
95280W        W38193  24.524  30.265  22.908  0.0076 -0.1374  0.0796
95281W        W38194  23.915  26.186  26.904 -0.0770  0.1305  0.0016
95282W        W38195  16.011  22.477  22.105 -0.1891  0.2235 -0.0456
95283W        W38196  22.316  22.144  16.550 -0.0272  0.0743  0.0775
95284W        W38197  23.310  18.697  21.230  0.1223  0.3204  0.1382
95285W        W38198  19.605  26.864  20.702 -0.0746 -0.1046  0.1702
95286W        W38199  22.557  23.124  20.979  0.3023  0.3524 -0.1992
95287W        W38200  19.721  21.046  18.680 -0.2379 -0.0620  0.0674
95288W        W38201   9.840  31.394  22.151  0.0389 -0.0412  0.1625
95289W        W38202  18.516  28.441  22.567 -0.0286  0.0062 -0.2073
95290W        W38203  24.924  28.869  22.284 -0.2259  0.0411 -0.1112
95291W        W38204  19.948  28.158  25.496  0.0135 -0.2129  0.1219
95292W        W38205  20.533  22.908  12.608  0.0834  0.1552  0.0991
95293W        W38206  26.129  33.347  21.356  0.1402  0.1796  0.1765
95294W        W38207  28.274  14.118  29.089 -0.2885  0.3961  0.3504
95295W        W38208  17.492  22.721  29.281 -0.4498  0.0240 -0.1840
95296W        W38209  22.975  29.192  28.649  0.1180  0.2389  0.1182
95297W        W38210  24.653   1.890  29.227 -0.0087 -0.0958 -0.0263
95298W        W38211  15.769  30.287  28.010 -0.0681  0.2638  0.1871
95299W        W38212  23.225  29.875  16.630 -0.1569  0.1289 -0.0509
95300W        W38213  14.416  25.966   3.205  0.0962 -0.1011  0.1775
95301W        W38214  19.792  31.937  23.488  0.3691  0.5143  0.3234
95302W        W38215  11.263  29.681  28.302  0.2398  0.1454  0.0991
95303W        W38216  26.710  27.469  18.976 -0.2616  0.2050 -0.0600
95304W        W38217  28.346  21.481  13.960 -0.2669  0.0500  0.2718
95305W        W38218  30.722   4.224  22.182 -0.3817 -0.4691 -0.2344
95306W        W38219  23.445  23.105  18.383 -0.1658  0.1494 -0.2934
95307W        W38220  23.658   5.143  24.678  0.2298 -0.3560  0.0758
95308W        W38221   0.733  30.754  16.394  0.2705  0.0765  0.0634
95309W        W38222  18.104   0.770  28.869 -0.3997 -0.1509  0.2063
95310W        W38223  20.759   5.255  28.612 -0.4551 -0.3185  0.3481
95311W        W38224  22.555  32.822  23.626  0.0198  0.1094  0.0528
95312W        W38225  26.348  21.388  24.379 -0.0503  0.4036 -0.0973
95313W        W38226  29.453  23.887  20.933 -0.0861  0.0031 -0.2706
95314W        W38227  26.142  17.053  14.886  0.2746 -0.1421 -0.1033
95315W        W38228  24.449   0.050  28.039 -0.2490  0.1797 -0.0159
95316W        W38229  23.936  25.341  20.250  0.0673 -0.0123 -0.1241
95317W        W38230   2.931  20.322   1.661  0.1756 -0.0971 -0.0204
95318W        W38231  34.211  17.651  18.973  0.1592  0.3447 -0.1174
95319W        W38232  28.261   9.041   2.465  0.0596  0.3651 -0.0402
95320W        W38233  13.632  32.208  23.960  0.0190  0.2372  0.2446
95321W        W38234  21.853  28.181  13.981  0.0788 -0.0082  0.0094
95322W        W38235  21.566  18.223  27.273 -0.0661  0.0510 -0.2002
95323W        W38236  34.055  32.975  19.278 -0.0351 -0.0659 -0.1421
95324W        W38237  25.401   1.167  22.073  0.3235 -0.1376 -0.0344
95325W        W38238  21.597  29.482  21.328 -0.1782 -0.0516 -0.0789
95326W        W38239   5.461  21.815   3.222  0.1212  0.2414  0.2268
95327W        W38240  23.432  31.074   0.652  0.2216 -0.2127  0.3458
95328W        W38241  23.018  26.557  29.361 -0.1614 -0.1430  0.1658
95329W        W38242  23.758   2.095  17.821  0.0013 -0.0770  0.3570
95330W        W38243  19.542  28.055  16.164 -0.0620  0.0935 -0.2204
95331W        W38244  13.723  27.411  14.671 -0.1453 -0.1360 -0.0665
95332W        W38245  23.817   1.187  22.244 -0.1652  0.1730 -0.1384
95333W        W38246  20.609   8.819  25.631  0.1012  0.1692  0.0059
95334W        W38247  22.023  30.316  20.399  0.0769  0.0654 -0.0085
95335W        W38248   2.967  29.100  19.030  0.3296  0.1227 -0.0142
95336W        W38249  20.302  30.676  25.737 -0.2435 -0.2626  0.3051
95337W        W38250  18.366  29.642  17.168  0.1959 -0.1246 -0.0948
95338W        W38251  26.612  33.186  23.130  0.0646 -0.2609 -0.0821
95339W        W38252   7.054  22.537   0.242 -0.0617 -0.0244  0.1582
95340W        W38253  15.788  29.861  16.372 -0.0937 -0.0419 -0.1846
95341W        W38254  22.508  20.484  28.808 -0.2208 -0.0512 -0.3238
95342W        W38255  34.489  29.919  22.322  0.1357 -0.1447  0.0200
95343W        W38256  13.197   3.389  19.075  0.0206 -0.0789 -0.1143
95344W        W38257  21.164  20.853  22.277 -0.1482 -0.0687 -0.2148
95345W        W38258  34.374  20.475  25.517  0.0392 -0.1254  0.1622
95346W        W38259  30.336  26.823  15.938  0.2331 -0.2699  0.0377
95347W        W38260  11.224   4.186  23.986 -0.3793 -0.0029 -0.4288
95348W        W38261  20.533  23.664  17.987  0.0235 -0.0812 -0.0387
95349W        W38262  12.291   4.347  19.790 -0.0626 -0.0091 -0.2170
95350W        W38263  27.026  24.865  20.986  0.1065 -0.3762  0.1965
95351W        W38264  13.573  33.590  24.437 -0.0321  0.1927 -0.0350
95352W        W38265  26.814  24.961  22.409 -0.0601  0.0531  0.3322
95353W        W38266  26.191  26.251  14.235  0.0421 -0.0493  0.1419
95354W        W38267  11.572  23.663  17.891  0.0680  0.0916 -0.1676
95355W        W38268  20.910  33.791  16.389 -0.3221  0.3897  0.0033
95356W        W38269  16.014  17.967  12.098  0.0620  0.2892  0.0401
95357W        W38270   8.215  30.194  21.135  0.0497  0.0907 -0.0309
95358W        W38271  20.482   2.156  15.863 -0.2623 -0.0331 -0.1426
95359W        W38272  17.138  21.332  26.435 -0.0040  0.0480 -0.1287
95360W        W38273  23.324  26.295  24.915  0.2684 -0.3254 -0.2851
95361W        W38274  26.826   0.107  25.004 -0.0355 -0.0382  0.0570
95362W        W38275  12.670  24.130  15.378  0.0680  0.1332 -0.0874
95363W        W38276  14.282  32.296  29.141  0.1495 -0.0287 -0.0698
95364W        W38277  20.960  19.479  16.450  0.0964  0.0415  0.0626
95365W        W38278  23.619  22.265  18.607 -0.1836 -0.3419  0.1962
95366W        W38279   0.606  27.251  19.029 -0.2447  0.5638  0.1669
95367W        W38280  17.671  33.115  24.027 -0.6644  0.0921 -0.2207
95368W        W38281  19.614  27.133  26.446 -0.1126 -0.2066 -0.4274
95369W        W38282  23.465  34.435  29.241  0.0865  0.0094  0.2451
95370W        W38283  21.544  24.695  17.245 -0.1145 -0.2156  0.1180
95371W        W38284  25.722  30.306  29.691  0.3061 -0.1866  0.0332
95372W        W38285  26.120  28.543  16.782 -0.0943  0.0892  0.1189
95373W        W38286  26.082  30.756  22.385  0.0959  0.1429 -0.1817
95374W        W38287  17.532  31.182  29.753  0.3485 -0.0693 -0.0036
95375W        W38288  20.404  24.656  29.485  0.1746 -0.0431 -0.1954
95376W        W38289  24.831  20.433  18.604 -0.1349  0.1879 -0.2301
95377W        W38290  27.501  31.365  14.588  0.3093 -0.0340 -0.2373
95378W        W38291  22.911  23.652  13.907 -0.1212 -0.0553 -0.0722
95379W        W38292  15.052  32.998   3.011  0.1678  0.1137 -0.1530
95380W        W38293   3.182  25.971  21.367 -0.2125 -0.3068 -0.0200
95381W        W38294  18.805  21.558  17.955 -0.0694 -0.1432 -0.3163
95382W        W38295  10.992  21.974  26.556 -0.0905 -0.1252  0.0368
95383W        W38296  18.457  22.443  21.775 -0.4231  0.0668 -0.0889
95384W        W38297  17.179  30.765  19.876 -0.0296 -0.3432 -0.2120
95385W        W38298  24.835  28.619  24.679  0.2625  0.1318  0.1373
95386W        W38299  18.487  21.089  25.838 -0.3642 -0.2021 -0.1629
95387W        W38300  32.900  24.690  28.757 -0.0326  0.0448  0.0025
95388W        W38301  10.292  28.957   6.428  0.2711  0.0599 -0.2687
95389W        W38302  23.713  29.100  28.027  0.0164 -0.2326  0.1932
95390W        W38303  20.760  30.828  21.923  0.3419  0.0923 -0.1014
95391W        W38304  20.847  27.620  14.967  0.2542 -0.0810 -0.3471
95392W        W38305   3.403  22.800  15.945 -0.0652 -0.0430  0.3750
95393W        W38306  15.405  21.652   0.729 -0.1407  0.2595  0.0916
95394W        W38307  15.309   2.770  17.942 -0.2464  0.0265 -0.3422
95395W        W38308  13.598  31.576  24.768 -0.3528  0.1492 -0.0166
95396W        W38309  24.504  25.988  15.026 -0.0568  0.2113 -0.1452
95397W        W38310  20.773   1.848   2.777  0.0319  0.2319  0.1563
95398W        W38311  10.130  26.176  21.290  0.1802  0.2168  0.1431
95399W        W38312  20.709  25.050  19.733  0.1943 -0.3706 -0.0591
95400W        W38313  10.290  22.325  24.652 -0.0491 -0.1511 -0.0097
95401W        W38314  15.903  19.131  28.793  0.0084  0.0895  0.0215
95402W        W38315  18.333   1.680  29.773  0.0770 -0.0942  0.2032
95403W        W38316  11.114  28.662  17.601 -0.2279 -0.2268 -0.2587
95404W        W38317  22.799  27.662   7.646 -0.1138  0.3623  0.0860
95405W        W38318  20.642  28.850  20.178  0.0938  0.1097 -0.0411
95406W        W38319  19.228  26.390  13.440 -0.3261 -0.6040 -0.0794
95407W        W38320  21.746  28.995  29.168 -0.0407 -0.3006 -0.1952
95408W        W38321  18.570   1.772  17.034  0.0105 -0.0982  0.1721
95409W        W38322  15.359   0.762  19.174 -0.1312 -0.0287 -0.0513
95410W        W38323  28.256   1.390  21.162 -0.2324  0.0873 -0.0518
95411W        W38324  17.294  31.202  27.219 -0.4107  0.0009 -0.0135
95412W        W38325  19.211  18.535  24.336 -0.0017 -0.0288  0.0881
95413W        W38326  28.947  15.701  17.155 -0.1864  0.0076 -0.0249
95414W        W38327  29.682  33.879   3.074 -0.3780  0.0539 -0.0287
95415W        W38328  15.888  25.600  26.866  0.1436 -0.0090 -0.1857
95416W        W38329  23.658  22.396  21.336 -0.0534  0.1645 -0.0447
95417W        W38330  23.042  27.336  27.581 -0.0369  0.1294 -0.9387
95418W        W38331  16.153  22.324   2.238  0.1856  0.0389  0.1371
95419W        W38332  20.089  26.145  25.832 -0.0533 -0.1880 -0.1272
95420W        W38333  15.359  19.823   7.094  0.0962 -0.1133 -0.0495
95421W        W38334   7.815   0.216  26.847  0.1701 -0.0288 -0.2757
95422W        W38335  14.727  27.000  24.695  0.0275 -0.0508  0.0039
95423W        W38336  19.615   0.311   6.578  0.0895 -0.1035  0.0390
95424W        W38337  13.976  33.803  26.295 -0.1558  0.0662  0.0814
95425W        W38338  24.512  25.479   8.669 -0.0292 -0.0534  0.1776
95426W        W38339  14.453  10.791  21.303 -0.1210  0.2769 -0.0227
95427W        W38340  17.916  21.581   2.364 -0.1421 -0.0088 -0.3229
95428W        W38341  26.549  25.292  29.501 -0.1251  0.1411 -0.1047
95429W        W38342  16.183   0.027   1.125  0.0725  0.1018  0.0632
95430W        W38343  11.430  19.145  21.348  0.3288  0.4212 -0.0693
95431W        W38344  10.866  17.154  15.827  0.1574 -0.1279  0.2808
95432W        W38345  29.847  27.652   7.038  0.1181  0.0805 -0.0171
95433W        W38346  18.629  18.937   0.082  0.0831 -0.4632 -0.1146
95434W        W38347  10.342  20.661  22.233 -0.1745  0.0556 -0.1742
95435W        W38348  20.213  27.575   6.781  0.2813 -0.3045  0.1759
95436W        W38349  13.834  21.804  21.489 -0.1409 -0.2234 -0.1001
95437W        W38350  21.531  31.095  22.480 -0.4384 -0.0718  0.1570
95438W        W38351  29.707  33.832  21.321  0.1536  0.3175 -0.2134
95439W        W38352  17.290   3.419   5.933  0.0475 -0.5040  0.1876
95440W        W38353  14.783  23.252  25.709 -0.1194 -0.4547  0.2645
95441W        W38354  12.349   1.088  21.463 -0.1417 -0.2850 -0.1805
95442W        W38355  18.722  30.995  25.142  0.1069  0.0937 -0.2160
95443W        W38356  23.236  30.014  25.816 -0.0060  0.2154  0.0374
95444W        W38357  28.684  24.719  22.188  0.0653  0.0411 -0.5909
95445W        W38358   8.456   4.984  12.028 -0.0999  0.2330 -0.0758
95446W        W38359  12.280   1.613  29.454 -0.0951  0.2537 -0.2205
95447W        W38360  19.425   3.114   5.244  0.4596 -0.4300 -0.1730
95448W        W38361  26.881  30.829  18.544  0.2696 -0.1080  0.2967
95449W        W38362  16.202  30.945   2.583 -0.0256  0.4323 -0.0721
95450W        W38363  15.517  29.013  20.704  0.2519  0.0371  0.1031
95451W        W38364  23.519  24.872  20.797 -0.1413 -0.2778 -0.0793
95452W        W38365  24.659  23.621   3.696  0.0457  0.1775  0.0250
95453W        W38366  24.135  32.629  14.783  0.1582 -0.1925 -0.0951
95454W        W38367  19.716  21.316  20.152 -0.0759 -0.0937  0.0744
95455W        W38368  25.018  30.088  23.306 -0.0656  0.2610 -0.2233
95456W        W38369  21.610  34.375   9.718  0.1175  0.2439  0.1157
95457W        W38370  23.406  31.431   2.007  0.0072 -0.1318 -0.3874
95458W        W38371  11.899  30.222  16.766  0.0138 -0.1021 -0.0600
95459W        W38372  26.355  30.033  19.692 -0.3985  0.3288 -0.1105
95460W        W38373  17.061  24.525  26.501  0.0855  0.0167  0.0303
95461W        W38374  23.470  33.604  20.498  0.0312 -0.0606  0.4816
95462W        W38375  25.532  29.533  27.918 -0.2314  0.0554 -0.3171
95463W        W38376  17.243  25.009  28.207  0.0444  0.2367 -0.1438
95464W        W38377  14.242  33.862   4.359  0.1768 -0.1789  0.0279
95465W        W38378  32.854  22.295   6.533 -0.1176  0.2485 -0.0435
95466W        W38379  18.604  27.934  26.117  0.1078 -0.0354 -0.1316
95467W        W38380  17.307  25.347  16.193 -0.1707  0.1193 -0.1304
95468W        W38381  14.544  23.532  24.891  0.4598  0.4061  0.0395
95469W        W38382  26.805  23.591   2.348  0.1088  0.0821  0.3604
95470W        W38383  28.637   5.549  22.986 -0.1401 -0.2513  0.3187
95471W        W38384  15.195  31.669  26.270  0.0244  0.4580 -0.0911
95472W        W38385  19.993  33.535  28.952 -0.0548 -0.1591 -0.4222
95473W        W38386  21.702  21.851   3.574 -0.3036 -0.0777  0.1447
95474W        W38387  13.373  27.411   1.379 -0.0155  0.1382  0.0277
95475W        W38388  14.279  21.277  27.309  0.1229  0.4310 -0.3882
95476W        W38389  17.577  21.070   3.597 -0.2856  0.5482 -0.4026
95477W        W38390  11.178  24.143  25.833  0.3392 -0.1727 -0.3938
95478W        W38391  14.958  33.606   0.142 -0.2092 -0.0463  0.0918
95479W        W38392  14.298  34.366  19.187  0.2643 -0.1135  0.2279
95480W        W38393  18.935  21.388  23.706  0.0660  0.2167 -0.0842
95481W        W38394  20.981  26.750  21.206 -0.0481 -0.1323  0.0101
95482W        W38395  20.101  26.225  23.827 -0.2711 -0.0737  0.1089
95483W        W38396  23.773  26.086  27.490  0.1142  0.3585 -0.1158
95484W        W38397  15.373  23.443  25.228  0.1868  0.3771  0.4770
95485W        W38398  25.379  24.114  29.654  0.0102  0.0040 -0.4029
95486W        W38399  25.364  33.007  14.056 -0.2327 -0.2182  0.1799
95487W        W38400  22.496  26.382  27.281 -0.0429 -0.1473 -0.0598
95488W        W38401  23.438  29.433  28.776 -0.1556 -0.2748  0.1518
95489W        W38402  28.689  19.762   0.535 -0.1303  0.0290 -0.2021
95490W        W38403  20.993   3.098  29.390  0.3485 -0.0053  0.3338
95491W        W38404  24.832   1.140  25.583 -0.0732  0.0040  0.1072
95492W        W38405  20.675  19.433  29.323 -0.1796  0.0206 -0.2322
95493W        W38406  21.643  21.565   0.713  0.0611 -0.0697 -0.1882
95494W        W38407  16.987  30.328  28.513  0.4092 -0.3124 -0.0440
95495W        W38408  19.571  30.802   8.744  0.0468  0.0472 -0.2597
95496W        W38409  10.254   1.165  26.221  0.0504  0.2512  0.0811
95497W        W38410  19.916  24.003  20.157 -0.2140 -0.3413  0.0075
95498W        W38411  20.200  23.731   6.222 -0.1864  0.0102 -0.2047
95499W        W38412  25.172  29.096  23.649  0.2782  0.0182 -0.1594
95500W        W38413  26.598   0.292  26.883  0.1377 -0.0580 -0.0231
95501W        W38414  18.350  25.179   3.836  0.3968  0.3209  0.2996
95502W        W38415  23.277  27.171  28.820  0.0617 -0.1954  0.0311
95503W        W38416  27.769  24.977  13.932 -0.1272  0.2309  0.0300
95504W        W38417  19.522   5.763  29.362  0.2786  0.0479  0.0285
95505W        W38418  21.515  22.211  26.488 -0.2532 -0.0082  0.1572
95506W        W38419  17.220  33.023  24.467  0.2457  0.0977 -0.0999
95507W        W38420  19.502  29.245   0.074  0.1390 -0.2023  0.0865
95508W        W38421   1.512  13.640  14.358 -0.1033  0.0257  0.0230
95509W        W38422  19.689  22.383  21.600  0.0678 -0.1490 -0.1146
95510W        W38423  26.691   6.392  18.117  0.0520  0.2786 -0.0984
95511W        W38424  15.544  24.895  24.597 -0.0058 -0.1742 -0.1609
95512W        W38425  21.864  19.063  17.051 -0.0024 -0.1445 -0.0217
95513W        W38426   9.721  22.015  26.280  0.1941 -0.3063  0.0835
95514W        W38427   1.487  30.790  16.887 -0.0623 -0.2227 -0.0214
95515W        W38428  15.985  23.341   1.855  0.2048 -0.1370 -0.1617
95516W        W38429  18.883  28.775   5.108 -0.2695 -0.2407 -0.0531
95517W        W38430  10.814  22.864   9.232 -0.0679 -0.0881 -0.2013
95518W        W38431   7.438  26.017  25.764  0.0460  0.0708  0.1736
95519W        W38432  19.067  23.881   1.935 -0.2509 -0.1779 -0.0428
95520W        W38433  16.894  31.552   0.587 -0.0562  0.1199  0.0068
95521W        W38434  30.394  21.509   3.070  0.0343 -0.4798 -0.0632
95522W        W38435  27.410   5.532   9.846 -0.0047  0.1905 -0.0936
95523W        W38436  26.852  23.046   0.363 -0.3552 -0.0176  0.2998
95524W        W38437  12.355  28.136   6.210 -0.2025  0.3201 -0.0901
95525W        W38438  14.214  25.088  28.983  0.2778 -0.0368 -0.1628
95526W        W38439  24.232  20.381  20.306  0.0238 -0.0497 -0.0055
95527W        W38440  13.889  25.677   3.479 -0.0935  0.4500 -0.0359
95528W        W38441  11.695  28.531   0.589  0.0734  0.1323 -0.1871
95529W        W38442  20.839  27.205  29.578 -0.1980  0.2202  0.1388
95530W        W38443  14.769  26.638  23.050  0.0015 -0.0463  0.0411
95531W        W38444  13.648  25.953   7.383  0.2276 -0.1601 -0.1228
95532W        W38445  17.603   0.584  23.750  0.1191 -0.3113  0.1930
95533W        W38446  21.973  32.816   3.400 -0.0288  0.1516 -0.1207
95534W        W38447  10.494   1.525  28.618  0.0557  0.0621  0.2125
95535W        W38448  26.063  33.180  24.761 -0.0729 -0.0006 -0.1324
95536W        W38449   8.770  16.628  26.028 -0.4761 -0.2160 -0.1349
95537W        W38450  21.642   0.761  27.869 -0.1148  0.2502 -0.1726
95538W        W38451  27.344  24.270  19.733 -0.3160 -0.1138  0.2597
95539W        W38452   4.156  25.372  27.643 -0.1559 -0.2825  0.0181
95540W        W38453  17.977  24.685  24.765  0.0199 -0.0075 -0.1571
95541W        W38454  26.205  31.425   4.404 -0.0522  0.1219 -0.1125
95542W        W38455  17.261  19.512  24.897 -0.0604 -0.0973  0.2078
95543W        W38456  26.125  29.368  18.578 -0.1169 -0.2948  0.1558
95544W        W38457  14.928   6.146  26.347 -0.0684 -0.4261  0.4170
95545W        W38458  30.269  23.252   2.835 -0.2296 -0.0298  0.2195
95546W        W38459  20.414  29.450  28.639  0.2407 -0.0278 -0.0465
95547W        W38460  24.230   4.000   1.956 -0.1664  0.0469  0.1549
95548W        W38461  23.718   0.953   4.397  0.0076  0.0822 -0.1594
95549W        W38462  19.812  30.401  23.384  0.2598  0.1660 -0.2256
95550W        W38463  28.796   3.920   4.941  0.0633 -0.0692 -0.0481
95551W        W38464  24.115  32.478  19.874 -0.5974  0.0965 -0.0933
95552W        W38465  19.806  26.446  26.137  0.2264  0.1014 -0.1073
95553W        W38466  20.414  28.083  15.495 -0.2672 -0.0675  0.1074
95554W        W38467   6.930   7.047  21.947 -0.1570  0.1103 -0.0652
95555W        W38468  22.642  32.489  26.176 -0.0658 -0.0196 -0.1614
95556W        W38469  14.172  26.823  27.753 -0.2191 -0.3878 -0.2438
95557W        W38470  22.475  10.861  23.933  0.2097 -0.2259 -0.0930
95558W        W38471  16.455  23.619  28.425 -0.1087  0.1318 -0.1853
95559W        W38472  23.812  15.931  25.335  0.2924  0.3218  0.5066
95560W        W38473  21.344  32.525   2.199  0.1751  0.0884  0.1555
95561W        W38474  10.309  23.990  25.373 -0.0196  0.0460 -0.2224
95562W        W38475  13.215  20.480  21.596 -0.2091  0.1349  0.0482
95563W        W38476   9.806  18.121  20.658  0.0667 -0.4217 -0.1421
95564W        W38477  19.431  19.867   3.252 -0.0195 -0.1693  0.0858
95565W        W38478  17.336  19.104  29.439  0.3811  0.4057  0.3612
95566W        W38479  13.050  26.086   5.252  0.1369  0.2394  0.1066
95567W        W38480  16.793  21.361  23.665  0.2317  0.3249  0.2780
95568W        W38481  17.449  24.653   2.004  0.0230 -0.2482  0.1073
95569W        W38482  19.787  29.867  14.882  0.2014 -0.0679 -0.1371
95570W        W38483  12.450  23.706  23.548 -0.5765  0.3565 -0.1676
95571W        W38484  13.450  21.776  24.181  0.2014  0.0445  0.4107
95572W        W38485   9.401  21.309  22.010 -0.0904  0.2657  0.0090
95573W        W38486  30.720  23.644  23.607  0.0512  0.0310  0.2196
95574W        W38487  19.650  22.260   0.732  0.3999 -0.0687 -0.1428
95575W        W38488  16.845  33.060  17.888 -0.1404 -0.0178  0.4932
95576W        W38489  28.355  23.082  24.549 -0.4162  0.1749 -0.0154
95577W        W38490  19.160  19.116  28.198 -0.1869 -0.0518 -0.1392
95578W        W38491  18.235  30.649  19.691  0.1492 -0.4422 -0.1440
95579W        W38492  17.790  26.845   0.927  0.1715  0.2557 -0.0684
95580W        W38493  21.887  25.244  15.617  0.0636  0.0560  0.1932
95581W        W38494  14.918  29.016  16.908 -0.3635  0.0558  0.1892
95582W        W38495  27.587  17.976  21.705  0.1831  0.2638 -0.1306
95583W        W38496  30.267  28.458  27.661 -0.2299 -0.1274 -0.4057
95584W        W38497  11.550   6.635  20.105 -0.0024  0.1297 -0.0787
95585W        W38498  14.997   3.317  22.745 -0.2625  0.2553  0.2610
95586W        W38499  25.992  32.336  26.169 -0.0895 -0.0573 -0.0162
95587W        W38500  17.752  25.672   7.116  0.2050  0.0959  0.2369
95588W        W38501  29.070  17.192  15.367 -0.0397 -0.0895  0.0216
95589W        W38502  13.444  21.395   8.311  0.1151 -0.0351 -0.1384
95590W        W38503  12.403  33.786   3.515 -0.1756 -0.0227 -0.2351
95591W        W38504  23.832  21.726  25.778  0.2289  0.0389  0.2125
95592W        W38505  20.933   4.083  29.498 -0.0948 -0.1233  0.0081
95593W        W38506  28.658  23.778  16.534  0.0034  0.0643 -0.1422
95594W        W38507  16.787  16.579  25.357  0.1521 -0.0671  0.4690
95595W        W38508  23.742  19.026  25.152 -0.0500 -0.0635 -0.2808
95596W        W38509  17.500   0.955  24.916 -0.0309 -0.0868  0.1629
95597W        W38510  19.103  23.086   1.084 -0.0087 -0.0798 -0.0269
95598W        W38511  10.657  27.997  21.758 -0.1294  0.0428 -0.0294
95599W        W38512  20.818  33.313  21.183  0.1557  0.2045  0.0586
95600W        W38513  16.737  23.062  24.299  0.0897  0.0310  0.1053
95601W        W38514  24.083  22.700   1.163  0.1491  0.5545 -0.0128
95602W        W38515  15.590  20.813  19.620  0.0563  0.0458 -0.0893
95603W        W38516  19.393   5.129   5.125 -0.0893 -0.1482  0.3390
95604W        W38517  18.745  25.201  16.325  0.2535 -0.1014 -0.0170
95605W        W38518  17.509  26.582   9.379 -0.1396 -0.1050  0.0617
95606W        W38519  13.760  21.768  22.590 -0.3994 -0.1336  0.0349
95607W        W38520  23.663  19.716   0.257  0.1041  0.1137  0.2412
95608W        W38521  31.834  26.751  25.730 -0.0609  0.1402  0.1418
95609W        W38522  15.086  24.068  24.460  0.0210  0.0917  0.0932
95610W        W38523  25.506  25.170  19.992  0.0630 -0.3575  0.0684
95611W        W38524  15.066  22.922  27.762 -0.0476  0.2485 -0.1761
95612W        W38525  16.275  32.943   2.179  0.1756  0.0353  0.0361
95613W        W38526  10.843  32.229  27.843  0.0750  0.1485  0.1353
95614W        W38527   7.831   1.879  28.457 -0.3819 -0.1791  0.0996
95615W        W38528  18.012  18.730  14.103 -0.0660  0.1420 -0.1445
95616W        W38529  17.878  26.491  24.713  0.1816  0.0659  0.0287
95617W        W38530  26.521  24.821  29.729 -0.0912  0.3411  0.2993
95618W        W38531  18.189  31.991   0.254 -0.0650  0.3088 -0.1203
95619W        W38532   0.857  26.542  28.634  0.0742  0.0262  0.1882
95620W        W38533  16.678  23.682  27.444  0.5231  0.1524 -0.1666
95621W        W38534  26.729  29.809  28.346  0.0842 -0.0897  0.0640
95622W        W38535  18.177  34.121  26.435  0.1303 -0.1872 -0.1040
95623W        W38536  15.916  28.844  20.277  0.0439 -0.0023  0.4574
95624W        W38537  21.814  29.724   5.861  0.2407  0.0448 -0.2598
95625W        W38538  11.147  18.749  20.394  0.0479  0.3629  0.1233
95626W        W38539  19.374  20.953   3.193  0.1437  0.0631  0.2298
95627W        W38540  24.018  15.303  21.814 -0.0200  0.0870  0.0576
95628W        W38541  16.541  19.781  23.246  0.1975 -0.1702 -0.2288
95629W        W38542  18.503  28.717  25.336  0.0896  0.1197 -0.1273
95630W        W38543  25.487  32.022   4.998 -0.2081  0.0915  0.2334
95631W        W38544  15.117   0.153  22.436 -0.1090  0.0032 -0.1420
95632W        W38545  13.766  29.313   1.268  0.0737  0.0689 -0.1766
95633W        W38546  23.040  16.787  17.333  0.0534 -0.0779  0.1744
95634W        W38547  33.514  33.710  15.074 -0.0721  0.0579 -0.1054
95635W        W38548  12.519  26.740   0.236  0.0901  0.1082  0.0227
95636W        W38549  19.127  14.172   2.012 -0.1522 -0.3345  0.0375
95637W        W38550  20.995  20.876   0.212 -0.1995 -0.2403  0.0018
95638W        W38551  29.409  18.024  14.852  0.2805  0.0567 -0.0713
95639W        W38552  11.323   4.986   7.065 -0.2583  0.1350  0.1788
95640W        W38553   9.079  20.752  26.925 -0.1814 -0.2128 -0.0770
95641W        W38554  15.336  21.256  22.814  0.4031 -0.0474  0.0638
95642W        W38555  27.286  29.606  28.431  0.2093  0.1597  0.0067
95643W        W38556  18.826  30.892  16.705 -0.0945  0.1863 -0.0751
95644W        W38557   9.471  25.584  23.279  0.0903  0.1506  0.0948
95645W        W38558  12.828  22.096  27.982 -0.3201 -0.0464  0.0699
95646W        W38559  14.268  24.896   4.275 -0.0310 -0.1353 -0.0329
95647W        W38560  16.174  28.479  26.145 -0.0849  0.2326  0.3702
95648W        W38561  11.983  22.141  22.747 -0.1304 -0.1636  0.1461
95649W        W38562  15.475  18.415  25.234  0.1949 -0.1385 -0.0058
95650W        W38563  18.767  22.284   1.205  0.1577  0.0183 -0.3298
95651W        W38564  19.095  22.094   5.420  0.0100  0.0044 -0.2739
95652W        W38565  30.913  22.640  22.831  0.1446 -0.1360  0.3124
95653W        W38566  23.458  25.416  26.308 -0.0577 -0.4556  0.1932
95654W        W38567  23.768  24.546  14.572  0.1754 -0.2669  0.0361
95655W        W38568  17.942   2.294  21.383 -0.1599  0.2794 -0.1058
95656W        W38569  22.854  25.034   4.649 -0.0196  0.3145  0.1908
95657W        W38570  25.954  34.344  28.026  0.0000 -0.1877  0.1776
95658W        W38571  18.572  10.886  19.674 -0.5170 -0.0336  0.0335
95659W        W38572  24.927  21.803  23.466 -0.0842  0.1841 -0.2171
95660W        W38573  23.299  24.757  27.275  0.1656  0.0903 -0.2810
95661W        W38574  25.270  24.093   6.224 -0.1836 -0.1495 -0.1187
95662W        W38575  18.460  15.301  27.674 -0.0475  0.1894 -0.1397
95663W        W38576  15.289  24.543   8.492  0.0179 -0.1273  0.0991
95664W        W38577   8.549  23.214  22.854 -0.3469  0.5060  0.2008
95665W        W38578   0.045   3.839   5.159 -0.0407 -0.1541 -0.2135
95666W        W38579   9.839  20.592  24.402  0.1733  0.0197  0.0798
95667W        W38580  31.781  29.105  21.472 -0.0332 -0.1372 -0.3126
95668W        W38581  34.089  18.288  19.580  0.0329 -0.1246  0.0233
95669W        W38582  23.499  24.353  23.323  0.1502 -0.1985  0.1046
95670W        W38583  22.924  24.694  22.509 -0.4395  0.0992 -0.2109
95671W        W38584  29.041  21.609   1.448 -0.0408 -0.1612 -0.1028
95672W        W38585  16.328  26.237  25.128  0.1076  0.3240 -0.1701
95673W        W38586  14.859  10.546   5.187 -0.1466  0.1685  0.0913
95674W        W38587  22.084   1.255  27.476  0.1290 -0.0154 -0.0280
95675W        W38588  30.924  18.405  19.114  0.0622  0.0009  0.3302
95676W        W38589  15.635  25.113  21.993  0.0412  0.2611 -0.2926
95677W        W38590  17.620  32.321   9.234  0.0763  0.0164  0.1039
95678W        W38591  20.211  33.661   9.178 -0.0804  0.0727 -0.2031
95679W        W38592  33.353   8.798   2.283  0.3353  0.2442 -0.2002
95680W        W38593  16.782  30.344  25.238  0.0499 -0.1677 -0.2204
95681W        W38594   4.898  31.171  20.503  0.0331 -0.0835  0.1389
95682W        W38595  28.214   1.438   4.614  0.1799  0.0781 -0.0939
95683W        W38596   8.374   7.785  26.290  0.2510 -0.0483 -0.2416
95684W        W38597  20.326  23.631  22.715  0.0699  0.2469  0.0028
95685W        W38598  16.868  25.113  25.467 -0.0848 -0.1513  0.1195
95686W        W38599  17.519  32.847   0.521 -0.0825 -0.1312 -0.2224
95687W        W38600  20.767  30.906   2.820  0.1019  0.0643 -0.1229
95688W        W38601  10.914  21.116   0.644 -0.0304  0.2710 -0.0967
95689W        W38602  21.966   0.112  25.458  0.0688  0.3706  0.3434
95690W        W38603  19.541  29.729  18.066  0.0165  0.1374  0.0117
95691W        W38604  10.700  28.761   6.162  0.0882  0.1115 -0.1793
95692W        W38605  32.190  23.034  26.144  0.3085 -0.3079  0.0332
95693W        W38606  21.454  27.387   7.326 -0.1315  0.1650  0.0625
95694W        W38607  12.234  24.262   8.233 -0.0451 -0.0327 -0.1493
95695W        W38608   4.170  18.618   8.014 -0.0530  0.2777  0.0957
95696W        W38609  21.633  22.129  22.741 -0.1631  0.0704  0.1968
95697W        W38610  28.622  34.354   1.656 -0.2407  0.0543 -0.1065
95698W        W38611  20.313  20.828   2.181  0.0326 -0.0587 -0.2535
95699W        W38612   5.330  12.499  24.151  0.1476 -0.1292 -0.2316
95700W        W38613  18.991   2.172   1.891  0.2317 -0.3472  0.1316
95701W        W38614  17.622  17.335  25.804 -0.1821 -0.0240  0.1609
95702W        W38615  30.005  23.275  19.491 -0.3431  0.0427 -0.0208
95703W        W38616  10.185  33.461  27.085 -0.2723  0.3206  0.0134
95704W        W38617  20.956  11.009   3.641 -0.1003  0.2440  0.1376
95705W        W38618  10.769   9.901  16.703  0.1640 -0.0235  0.0667
95706W        W38619  18.027  15.909   0.912 -0.0136 -0.1024 -0.0460
95707W        W38620  17.534  25.446  18.026 -0.2377  0.1348  0.1892
95708W        W38621  20.142  32.379  27.885  0.1103  0.0107 -0.0650
95709W        W38622  15.006  29.780  19.757 -0.3069 -0.0843  0.2137
95710W        W38623  18.464  25.892  17.090  0.0567  0.1972  0.2879
95711W        W38624  11.025  23.144  21.469 -0.2714 -0.0579 -0.1801
95712W        W38625  13.032  15.466   7.433  0.5539  0.1891 -0.2451
95713W        W38626  17.626  24.287  26.518 -0.2044  0.4533  0.0980
95714W        W38627  23.838  29.327  26.336 -0.2684 -0.1771 -0.1981
95715W        W38628  22.342  16.821  25.520 -0.1233 -0.1573  0.0640
95716W        W38629  17.206  34.464  10.065  0.1850  0.1047  0.0367
95717W        W38630  23.320  16.843   4.337  0.5005 -0.3661  0.1785
95718W        W38631  16.149  24.656  26.086  0.1703  0.1646 -0.1832
95719W        W38632  10.651  28.122   0.326 -0.0010  0.0168  0.0670
95720W        W38633  18.600  21.754  21.800  0.0651 -0.0359 -0.1464
95721W        W38634  30.767  26.095   9.786 -0.0486 -0.2030  0.1814
95722W        W38635  19.230  27.728  15.389  0.0261 -0.3015 -0.1792
95723W        W38636  19.817   4.132  17.808 -0.0123  0.0983  0.1782
95724W        W38637  29.206  22.415  23.168 -0.0898 -0.1670 -0.1700
95725W        W38638  22.400   5.047  28.629  0.0722 -0.2330 -0.1181
95726W        W38639  13.372  27.624  24.617 -0.2824  0.0858 -0.2678
95727W        W38640  24.087  29.403  21.335  0.1992  0.2928  0.2142
95728W        W38641   7.755  33.762  26.071 -0.3593 -0.0994 -0.1262
95729W        W38642  19.253  13.005   2.936 -0.1124 -0.0900  0.0238
95730W        W38643  21.081  25.091  25.652  0.1247 -0.5395  0.1423
95731W        W38644   3.364  30.136  21.920 -0.1222  0.2655 -0.1110
95732W        W38645  16.329  23.650  22.258 -0.1967  0.2235  0.5143
95733W        W38646  20.348  30.728  23.461  0.0394  0.0919 -0.0138
95734W        W38647  26.468  27.920   0.335  0.1224  0.2965  0.0814
95735W        W38648  29.249  17.952   0.249 -0.1081 -0.1905 -0.0752
95736W        W38649  12.761  18.672   3.474 -0.0367 -0.1478  0.0475
95737W        W38650  20.927  15.538  22.658 -0.3324 -0.0414  0.5647
95738W        W38651  19.429  24.625   1.518 -0.0837  0.1326 -0.1115
95739W        W38652  24.213  19.110   2.151 -0.0777  0.1290 -0.1079
95740W        W38653  17.533  27.052  29.134 -0.0590  0.3026 -0.0134
95741W        W38654  12.205  22.202  20.214  0.0824  0.0477  0.3861
95742W        W38655  21.516  11.648  18.067 -0.1028 -0.2553  0.0159
95743W        W38656   7.179   1.492   9.071 -0.0838 -0.1294 -0.1594
95744W        W38657  27.698  21.000   2.335  0.0727 -0.2728  0.3886
95745W        W38658  12.554  31.787   2.225  0.2669 -0.1986 -0.2628
95746W        W38659  19.770  24.866   1.061  0.2288 -0.1010  0.2897
95747W        W38660  11.376  23.086  27.337  0.2312  0.0917  0.3525
95748W        W38661  27.639  13.574   8.656  0.2242 -0.1150  0.0790
95749W        W38662  23.813  31.631  26.036 -0.4019 -0.0169 -0.1643
95750W        W38663  24.010  24.309   3.840  0.0554 -0.1706 -0.2219
95751W        W38664  21.449  28.741  15.152 -0.2238 -0.1061  0.1281
95752W        W38665  19.238  21.700   0.199  0.0343 -0.0383 -0.0851
95753W        W38666   4.931  16.069   1.119  0.0857  0.0491 -0.0747
95754W        W38667  10.491  21.820   1.532 -0.0817 -0.0202  0.0936
95755W        W38668  17.730  11.967   3.012  0.0677  0.3100 -0.1659
95756W        W38669  17.427  32.294  19.432 -0.2187  0.1629 -0.0239
95757W        W38670  13.066  15.461  26.837  0.3479  0.1474  0.1835
95758W        W38671  18.336  23.078   3.343  0.1933  0.0969 -0.0988
95759W        W38672  28.472  13.359   4.935  0.0815 -0.0459 -0.1024
95760W        W38673  23.050  34.389   3.598 -0.0736  0.0437 -0.2026
95761W        W38674  20.721  20.544  26.303 -0.3582 -0.1597  0.1887
95762W        W38675  20.109  28.231   8.609  0.1880 -0.1640  0.4413
95763W        W38676  14.499  23.856   0.676 -0.1649  0.2265 -0.4685
95764W        W38677  21.708  18.633  19.509 -0.5065  0.1172 -0.2520
95765W        W38678  13.601  31.456  20.928  0.0902  0.1482  0.0093
95766W        W38679  20.667  30.606  25.164  0.0666 -0.1215  0.0348
95767W        W38680  14.584  30.240  28.546  0.0353  0.0195  0.0416
95768W        W38681  12.460  34.457  28.589  0.2950  0.4024  0.1164
95769W        W38682  17.795  23.206  21.846  0.1678  0.0465 -0.2512
95770W        W38683  24.444   4.090  19.444  0.1917  0.0897 -0.1549
95771W        W38684  20.153  22.501   3.975  0.2803  0.0433  0.2163
95772W        W38685  22.421  32.043  16.467 -0.1052 -0.0136  0.3605
95773W        W38686  22.889  18.612  16.488  0.0034  0.3190  0.2801
95774W        W38687  18.586  13.952   2.167 -0.0288  0.1722 -0.0242
95775W        W38688  21.651  18.743  23.150 -0.0127 -0.1120  0.2140
95776W        W38689  19.619  31.041   9.212  0.1840  0.1535  0.2021
95777W        W38690  20.550  23.333   1.102  0.0753 -0.1354  0.2006
95778W        W38691  24.510   3.752  21.697  0.0044  0.0837 -0.0024
95779W        W38692  18.057  22.823  29.367  0.1358 -0.1805 -0.0533
95780W        W38693  15.782  27.484  29.652  0.0360 -0.1184  0.4044
95781W        W38694  27.534  32.453  27.677 -0.1225 -0.2621 -0.3857
95782W        W38695  23.004  27.042  19.408  0.0170 -0.2102 -0.0941
95783W        W38696  16.606  27.703  23.479 -0.0757  0.0795 -0.0650
95784W        W38697  21.531  29.875  27.551 -0.0308  0.0876  0.0768
95785W        W38698  18.787  25.906  20.981 -0.2296 -0.0056  0.1710
95786W        W38699  23.080  31.307  20.107  0.0154  0.1484  0.2282
95787W        W38700  14.512  25.809  28.283  0.0326  0.0381 -0.1631
95788W        W38701  23.042  29.424   1.576  0.1363  0.1156  0.0739
95789W        W38702  12.179  27.304  27.780  0.1256 -0.0023 -0.1619
95790W        W38703  20.225  20.566  21.139  0.1285 -0.0192  0.0980
95791W        W38704  28.697  29.281  27.846  0.0018 -0.1178 -0.0381
95792W        W38705  23.671   2.147  29.255 -0.2017  0.2958 -0.0352
95793W        W38706   3.393  27.955  22.398  0.0476  0.0981  0.1947
95794W        W38707  18.754  30.169  26.916 -0.1133  0.0184  0.0341
95795W        W38708  28.107  34.303  28.987  0.0352 -0.1033 -0.0462
95796W        W38709  19.436  20.176  27.014  0.2831 -0.0229  0.0067
95797W        W38710  26.193  29.098  26.364 -0.0561 -0.1170  0.1460
95798W        W38711  19.537  21.308  27.423 -0.1119  0.0043  0.0764
95799W        W38712  13.557  24.300  23.985 -0.2615 -0.1138  0.1041
95800W        W38713  21.925   1.861   0.944  0.3156 -0.1129 -0.2646
95801W        W38714   9.715   0.240   1.088 -0.0483  0.0885  0.0119
95802W        W38715  17.970   2.071   2.978 -0.0425  0.1601 -0.2326
95803W        W38716  20.201  31.199  29.495  0.0999 -0.0131  0.0489
95804W        W38717  19.147  18.310  14.684 -0.1855  0.1490 -0.1354
95805W        W38718  29.878  24.515   0.563  0.2743  0.1031 -0.1723
95806W        W38719   0.731  22.875   2.909 -0.1274  0.0099  0.2184
95807W        W38720  17.836  23.403  22.292 -0.0498  0.0852  0.2183
95808W        W38721  11.920   4.228  28.130  0.0174 -0.0627 -0.0303
95809W        W38722  23.369  23.469  26.220  0.0490 -0.0061  0.1196
95810W        W38723  27.089   4.698  27.190  0.2836 -0.1510  0.1727
95811W        W38724  12.854   2.539  26.045  0.0239 -0.2732  0.0820
95812W        W38725  10.181  21.107  24.569 -0.1616 -0.0018  0.1610
95813W        W38726  14.910  21.919  27.905 -0.0811 -0.2857 -0.0136
95814W        W38727  21.612   0.028  22.177  0.2914 -0.1214 -0.1340
95815W        W38728  26.026  25.812  25.748  0.2572  0.1341  0.0634
95816W        W38729  18.532  26.707  21.139  0.1572  0.1235 -0.1849
95817W        W38730  19.068  33.831   3.414 -0.2039 -0.0410  0.0048
95818W        W38731  17.657  23.632  26.958  0.1849  0.1958 -0.2889
95819W        W38732   7.914  23.419   2.180  0.3421 -0.0074  0.1556
95820W        W38733  18.261  22.418   7.960  0.0577 -0.1114 -0.0290
95821W        W38734  19.989   6.466  26.313  0.3279  0.3539 -0.0262
95822W        W38735  24.530   0.600  27.874  0.0572  0.2852  0.1854
95823W        W38736  13.441  12.486   3.099 -0.2583  0.1125 -0.0174
95824W        W38737  11.868  20.899   9.493  0.2450 -0.1000 -0.1713
95825W        W38738  29.971  27.751  25.141 -0.0881 -0.0461  0.1175
95826W        W38739  15.557  19.574  28.891  0.0040  0.2071  0.3557
95827W        W38740  22.834  25.146  24.958  0.0263 -0.0777  0.3497
95828W        W38741  16.426  25.140   1.890 -0.0649 -0.0886 -0.0069
95829W        W38742  16.189  22.064  29.640  0.0194  0.0677  0.1177
95830W        W38743  20.446  29.635   8.638 -0.1316 -0.1229  0.0451
95831W        W38744  20.793  26.287   7.301 -0.0100  0.2639  0.2724
95832W        W38745  22.441  23.168  11.967  0.1315  0.0931 -0.4981
95833W        W38746  25.347  24.647  27.251 -0.3089  0.2070  0.0592
95834W        W38747  23.722  25.334   4.081 -0.0961  0.1741  0.1562
95835W        W38748  22.276  18.094  27.973  0.0595 -0.1071 -0.0669
95836W        W38749  19.625  26.597  29.049 -0.1512 -0.0808 -0.1684
95837W        W38750  15.677  31.757   9.976  0.0702  0.0299  0.1397
95838W        W38751  28.698  29.707   6.369 -0.2660  0.0991 -0.1077
95839W        W38752  20.417  34.473   2.403  0.0877 -0.3162  0.0747
95840W        W38753  15.248  27.424   0.724  0.0709 -0.1219 -0.2333
95841W        W38754  10.480  22.448  25.879  0.0830  0.2597  0.0042
95842W        W38755  22.474  27.123   3.467 -0.1640 -0.0664 -0.1210
95843W        W38756  19.523  32.096  19.285  0.0204 -0.0321  0.1725
95844W        W38757  29.470  29.134   6.536 -0.0674 -0.1017  0.0544
95845W        W38758  14.897  21.001  23.800 -0.2312 -0.1172  0.0014
95846W        W38759   7.292  20.989  20.142 -0.1483  0.3692  0.0521
95847W        W38760  23.044  14.694   4.202 -0.0656 -0.1295  0.0375
95848W        W38761  22.015  29.341  28.098 -0.0194 -0.1520 -0.1109
95849W        W38762  22.795  18.327  20.334  0.2339 -0.0962  0.2741
95850W        W38763  23.300  32.915   2.509 -0.1085 -0.2003 -0.0746
95851W        W38764  21.032  18.939  17.661 -0.0579  0.1233 -0.0615
95852W        W38765  14.807  33.006  10.359  0.2556  0.0208  0.2525
95853W        W38766  18.787  26.888   8.703 -0.1013 -0.1253  0.2960
95854W        W38767  23.026  24.936  29.197  0.0716  0.0681 -0.2136
95855W        W38768  10.811  33.758  29.012  0.3500 -0.1191 -0.1946
95856W        W38769  20.378  19.140  25.771 -0.3119 -0.3143  0.0517
95857W        W38770  23.962   1.633   6.814  0.2679 -0.1118  0.1920
95858W        W38771  20.336  23.260   6.249  0.0139  0.1825  0.0147
95859W        W38772  20.268  23.636   7.298  0.1835  0.2384 -0.1418
95860W        W38773  14.126  34.421  22.869 -0.0347 -0.3227  0.1966
95861W        W38774  18.534  28.291   4.601  0.0170 -0.0276 -0.0789
95862W        W38775   6.591  30.626  19.584 -0.0980 -0.1562 -0.0310
95863W        W38776  13.341  28.316  18.873  0.1737  0.2604 -0.2624
95864W        W38777  21.706  20.050   2.396  0.1521 -0.1227 -0.0051
95865W        W38778  23.812   8.339  26.887  0.1363  0.3344  0.0375
95866W        W38779  16.715  28.892   3.538 -0.1778  0.0615  0.0190
95867W        W38780  12.948  28.754  22.758  0.2925  0.1786 -0.0266
95868W        W38781  12.826  20.873  13.813  0.0281  0.0611  0.1955
95869W        W38782  19.303  18.620  24.950 -0.1923 -0.1809  0.0624
95870W        W38783  19.928   1.755  26.432 -0.0364  0.1355 -0.1549
95871W        W38784   3.215  28.999   1.632  0.1423 -0.0183 -0.1008
95872W        W38785   0.298  26.976  23.567  0.1635 -0.1879 -0.0037
95873W        W38786  14.178   1.400   2.235  0.2290  0.3305  0.0469
95874W        W38787  23.592  16.532  18.127 -0.0440 -0.3430  0.6010
95875W        W38788  22.620  14.539  24.242  0.2373  0.1630 -0.0248
95876W        W38789  17.360  23.935   4.119  0.0827  0.1250 -0.0337
95877W        W38790  29.874   5.923  24.567 -0.0180  0.2703  0.2256
95878W        W38791  25.960  27.943   5.377  0.1563  0.0249 -0.2863
95879W        W38792  19.660   1.795  18.780 -0.0669 -0.0241 -0.0167
95880W        W38793   7.382   0.497  26.001 -0.1811 -0.2315  0.3052
95881W        W38794  20.887  25.703  22.510  0.0217 -0.0881 -0.0735
95882W        W38795  22.301  32.361  13.665  0.0515  0.0789  0.2554
95883W        W38796  22.658  22.352  20.023 -0.1024  0.0049 -0.0476
95884W        W38797  19.430   0.343  14.919 -0.2152  0.0203 -0.0813
95885W        W38798  17.482   5.452  21.380 -0.0170 -0.0395  0.2759
95886W        W38799  27.189  34.102  15.513  0.0648 -0.0483  0.1138
95887W        W38800  28.133  23.362  20.899 -0.2221  0.0951  0.0546
95888W        W38801   2.765   3.633  19.676  0.1042 -0.2570  0.0497
95889W        W38802  17.086  24.181  21.092  0.1674  0.2610  0.1385
95890W        W38803  25.322   5.112  13.297 -0.0145 -0.1625  0.0108
95891W        W38804  28.459  21.159  20.455  0.0527  0.2363 -0.0874
95892W        W38805  16.608  29.852  16.923  0.0874  0.3362 -0.1514
95893W        W38806  31.884  31.622  16.418 -0.0064  0.1385  0.2151
95894W        W38807  12.909  31.797  18.185  0.1050 -0.0245 -0.2600
95895W        W38808  28.070  32.250  15.767  0.0692 -0.0280 -0.0425
95896W        W38809  18.981   1.058   0.885  0.0915  0.0383  0.1127
95897W        W38810  21.828  18.150  16.955  0.0135 -0.0835 -0.2402
95898W        W38811  26.307  23.254  19.993 -0.0718  0.0259 -0.3132
95899W        W38812  28.451  30.146  19.079 -0.0132 -0.1980  0.1565
95900W        W38813  27.478  29.615  15.529  0.2669 -0.3647  0.0215
95901W        W38814  20.767  33.181   4.548  0.0984  0.1607 -0.1191
95902W        W38815  18.088  31.083  16.376 -0.1011  0.0271  0.4586
95903W        W38816  11.430  28.097  25.456 -0.1253  0.0315  0.1442
95904W        W38817  23.906  26.808  19.053 -0.0468  0.0436  0.1137
95905W        W38818  16.298  25.979  16.919 -0.0326 -0.1864  0.0024
95906W        W38819  16.225  27.395  27.381 -0.2121 -0.0001  0.3622
95907W        W38820  22.192  18.235  16.111 -0.2520  0.3193  0.2287
95908W        W38821  15.206  34.202  19.534  0.1566  0.2557  0.0451
95909W        W38822  21.708  34.322  18.489  0.0754 -0.0551  0.2637
95910W        W38823  21.985   5.847  22.510  0.4076 -0.0792 -0.0826
95911W        W38824  18.086  19.862  15.147 -0.0478 -0.0502  0.3497
95912W        W38825  24.097  27.222  22.604 -0.1943  0.0229 -0.0812
95913W        W38826  24.253  34.385  19.865  0.1074  0.1207  0.4696
95914W        W38827  29.768   1.304  15.809  0.3936  0.2803  0.3180
95915W        W38828  21.022  27.552  19.707  0.2222  0.1558  0.1324
95916W        W38829  24.526  31.292  13.652  0.0662 -0.0150 -0.3104
95917W        W38830  25.877  28.125  13.742 -0.3390 -0.3958  0.0341
95918W        W38831  15.108  31.295  14.572 -0.0713  0.0086 -0.0861
95919W        W38832  25.235   3.215  17.168  0.0300 -0.4664  0.0068
95920W        W38833  25.056  15.382  17.396  0.1458  0.1844 -0.2750
95921W        W38834  17.076   2.002  23.786  0.1008  0.1573  0.1524
95922W        W38835  16.785  28.068  16.757  0.1191  0.1535 -0.2451
95923W        W38836  15.868   0.181  20.237  0.2781 -0.0848  0.3147
95924W        W38837  20.100   0.542  16.137 -0.0805  0.0119 -0.3848
95925W        W38838  26.800  34.129  14.895  0.2675 -0.0673  0.3254
95926W        W38839  24.527  31.823  13.656  0.2882 -0.0364 -0.2385
95927W        W38840  22.088  29.053  15.398 -0.1366  0.1840 -0.2436
95928W        W38841  24.539   6.378  19.026  0.1310  0.2057  0.1509
95929W        W38842  23.294   3.039  28.732 -0.0126 -0.2511 -0.0246
95930W        W38843   8.260   3.866  20.488 -0.0412  0.0205  0.1601
95931W        W38844  18.071  13.931  15.462 -0.0141 -0.3584 -0.0710
95932W        W38845  24.127   1.232  15.212 -0.2072  0.1099 -0.2669
95933W        W38846  11.004  26.213  18.410  0.2400 -0.2437  0.0086
95934W        W38847  23.020   4.033  20.405 -0.0907 -0.0284  0.0766
95935W        W38848  18.780   8.127  17.711  0.2594 -0.0226  0.1206
95936W        W38849  18.079  27.491  15.611 -0.1222  0.2566 -0.2210
95937W        W38850  29.748  28.050  23.062 -0.0993 -0.1723  0.1557
95938W        W38851  33.846   4.072  18.108  0.0250 -0.2474 -0.1480
95939W        W38852  17.399  33.059  16.140 -0.0460 -0.0036 -0.2752
95940W        W38853  21.925  22.477  13.370  0.1192 -0.1792  0.0334
95941W        W38854  31.118  10.423  14.265 -0.0475  0.1056 -0.0355
95942W        W38855  18.518  24.182  15.253  0.1162 -0.0616  0.0907
95943W        W38856  14.901  30.409  24.324  0.0906 -0.0748 -0.2746
95944W        W38857  31.153  34.125  26.782  0.1926 -0.0604 -0.1555
95945W        W38858  20.430   3.136  21.010  0.0742 -0.0426 -0.2214
95946W        W38859  21.553  24.663  21.668 -0.2176 -0.1034  0.1123
95947W        W38860  12.346  32.366  25.175  0.3621 -0.1319  0.0592
95948W        W38861  17.949  22.900  17.100 -0.0179 -0.0131  0.2244
95949W        W38862  14.564  30.676  16.344 -0.1086 -0.0422  0.0833
95950W        W38863  18.822  34.451   0.676  0.0183  0.0226 -0.1173
95951W        W38864  16.799   0.381  18.831 -0.0533  0.1038  0.0099
95952W        W38865  12.577  22.842  15.344  0.2282  0.1728 -0.2212
95953W        W38866  16.517  33.940  20.221 -0.0327  0.0401  0.3908
95954W        W38867  24.952  30.984  15.224 -0.2134 -0.0390 -0.1452
95955W        W38868   9.529  25.944  17.650  0.2910  0.1608  0.3365
95956W        W38869  22.098  26.964  19.916 -0.1833  0.2980  0.0469
95957W        W38870  23.327   2.309  16.992  0.0811  0.1484 -0.2620
95958W        W38871  13.785  29.209  17.670  0.0725 -0.1906  0.1088
95959W        W38872  18.982  25.400  20.797 -0.2211 -0.0289  0.1588
95960W        W38873  22.074  31.925  15.015 -0.3285  0.2464 -0.2643
95961W        W38874  12.076  29.454  28.675 -0.0706 -0.0331  0.0323
95962W        W38875  17.928  26.153  17.025  0.0385 -0.3045  0.0654
95963W        W38876  26.047   3.204  20.776 -0.1053 -0.0864  0.1812
95964W        W38877  22.841   4.057  16.548  0.1807 -0.3368  0.0183
95965W        W38878  22.415   3.465  17.785 -0.2365 -0.1714 -0.2868
95966W        W38879  25.005  30.634  17.650 -0.0034  0.1466  0.3090
95967W        W38880  20.826  23.512  14.913 -0.1305 -0.1704  0.3907
95968W        W38881   8.522  24.617  17.780  0.0657 -0.1207  0.0003
95969W        W38882  11.990  27.323  19.645 -0.2158 -0.0646 -0.0551
95970W        W38883  27.548  21.987  17.824 -0.1941  0.0471 -0.1813
95971W        W38884  21.225  33.719  21.204  0.0249  0.2380  0.1754
95972W        W38885  19.878  25.296  22.651  0.0009  0.2757  0.4078
95973W        W38886  19.052  27.601  27.020  0.1397  0.0204  0.0383
95974W        W38887  18.830  24.207  16.327 -0.0574  0.0049  0.0342
95975W        W38888  21.901   0.338  17.484  0.0263  0.3012  0.0613
95976W        W38889  10.166  19.551  13.203 -0.2442  0.3120 -0.0205
95977W        W38890  31.765  27.084  14.256 -0.0887 -0.1464 -0.0163
95978W        W38891  18.385   0.036  29.046  0.1253  0.2064 -0.0855
95979W        W38892  24.783  33.002  20.080  0.0046 -0.1720  0.2517
95980W        W38893  14.805  22.992  19.135  0.1408  0.1767 -0.0460
95981W        W38894  24.699   5.914  18.548 -0.3079  0.1034 -0.0717
95982W        W38895  16.358  28.361  22.948 -0.0913  0.0734 -0.2210
95983W        W38896  23.928   3.504  19.752  0.1361 -0.3477 -0.1952
95984W        W38897  18.096  31.338  24.320 -0.1705 -0.0428  0.1236
95985W        W38898  21.881  21.382  20.019  0.1703 -0.1045  0.3172
95986W        W38899  14.171  33.198  18.312  0.0205 -0.0151 -0.0792
95987W        W38900  15.857  34.147  22.687 -0.6378  0.1777 -0.1765
95988W        W38901  17.380  31.082  17.069  0.1407  0.0196 -0.0766
95989W        W38902  21.438  31.682  15.878 -0.0659 -0.2597  0.1603
95990W        W38903  24.440   2.961  20.393  0.0764 -0.1485  0.2309
95991W        W38904  15.527  33.681  26.453 -0.2001  0.0324 -0.2593
95992W        W38905  27.625  29.098  17.989  0.0545  0.1347 -0.1162
95993W        W38906  28.104  31.200  23.232  0.0480  0.2484 -0.2897
95994W        W38907  18.685  23.728  16.545  0.1355 -0.1785  0.1297
95995W        W38908  26.922  25.900  14.905 -0.2636 -0.2441 -0.0616
95996W        W38909  21.726  19.881  13.047  0.0718  0.3080  0.1042
95997W        W38910  26.232  22.215  16.268 -0.0307 -0.0633 -0.2374
95998W        W38911  13.489  27.297  16.807 -0.2202 -0.2113  0.4193
95999W        W38912  20.460  27.269  19.131  0.0966  0.1407  0.0273
96000W        W38913  31.037  31.208  17.666  0.1689  0.1263  0.0724
96001W        W38914  15.826  22.969  15.301  0.0076 -0.3233  0.0078
96002W        W38915  28.982  29.925  16.510  0.1873  0.2550  0.1902
96003W        W38916  22.233  32.999  14.789  0.0272 -0.0073  0.0686
96004W        W38917  19.942   0.453  14.894  0.2083 -0.1042 -0.0364
96005W        W38918  19.952  28.747  17.440 -0.0050  0.0173 -0.0853
96006W        W38919  23.749  32.927  18.898 -0.1981  0.1214 -0.1800
96007W        W38920  27.341   1.134  17.435  0.0177  0.1264 -0.1150
96008W        W38921  25.725  26.419  15.399  0.0456  0.1411  0.0765
96009W        W38922  20.171   0.061   1.046  0.1813  0.2401 -0.0428
96010W        W38923  23.793  26.310  17.227  0.0293  0.1613 -0.1713
96011W        W38924  22.854   1.195  19.113 -0.1978  0.1566 -0.2761
96012W        W38925  30.095  29.702  14.564  0.3892  0.0980  0.0607
96013W        W38926  22.298  25.397  18.652  0.3110 -0.0695  0.0483
96014W        W38927  20.505  29.598  14.391 -0.1588 -0.0981  0.0351
96015W        W38928  24.743  24.824  14.673  0.1240  0.1332  0.0992
96016W        W38929  19.435   2.849  14.274 -0.1044 -0.1307  0.0489
96017W        W38930  14.475  30.015  20.534 -0.2358  0.2012  0.2915
96018W        W38931  21.343   3.998  14.808 -0.0881 -0.0421 -0.1968
96019W        W38932  15.705   8.168  14.574 -0.0799 -0.2569  0.2640
96020W        W38933   8.986  24.074  16.585  0.0303  0.0662 -0.0285
96021W        W38934  22.090  22.159  14.955 -0.0055  0.2133  0.0772
96022W        W38935  21.976  29.097  23.746 -0.2801 -0.2079 -0.2443
96023W        W38936  24.961  10.033  13.851 -0.1431  0.0637  0.0723
96024W        W38937  15.887  31.570  18.481  0.2158  0.0575 -0.0979
96025W        W38938  23.709  25.034  14.621  0.0770 -0.0295 -0.1859
96026W        W38939  17.738   1.818  26.004 -0.0004 -0.0779 -0.1055
96027W        W38940  25.328  10.919  20.180 -0.0424  0.1030  0.1325
96028W        W38941  20.437   1.442  17.820  0.1766 -0.3590 -0.2588
96029W        W38942  21.028  26.530  16.440  0.1173 -0.2768  0.1386
96030W        W38943  21.053  31.136  19.847 -0.0120 -0.3852  0.1253
96031W        W38944  22.747   0.062  21.112 -0.5707  0.1122 -0.0975
96032W        W38945  21.571  28.847  23.761  0.6152  0.0220  0.0458
96033W        W38946  22.920  31.879  16.760  0.1169 -0.2317  0.0545
96034W        W38947  20.764   3.092  16.420  0.0325 -0.0204  0.0103
96035W        W38948  24.179  34.180  19.297  0.1279  0.0492  0.2357
96036W        W38949  21.329  32.791  14.841 -0.0848  0.1846  0.0004
96037W        W38950  24.602   4.171  17.942  0.0369  0.3211  0.1054
96038W        W38951  31.511   1.640  18.481  0.1819  0.2979 -0.2474
96039W        W38952   0.008   8.627  27.444  0.2842  0.0211  0.0725
96040W        W38953  22.368  30.389  18.154  0.0832 -0.0968 -0.1385
96041W        W38954  20.057   3.755  14.711 -0.1630 -0.3358  0.0072
96042W        W38955   6.047   0.379  24.881  0.3327 -0.1410  0.2307
96043W        W38956  13.802   2.458  21.100 -0.3907 -0.1741 -0.0429
96044W        W38957  28.206   1.461  26.711 -0.2440  0.0964  0.2913
96045W        W38958  23.188  26.431  28.032  0.1986 -0.0473 -0.1176
96046W        W38959  24.362  29.137  15.383 -0.1456  0.0947 -0.1079
96047W        W38960  14.554  25.943  19.606  0.2117 -0.0695  0.1011
96048W        W38961  20.829  29.329  13.253 -0.0822  0.0278 -0.1542
96049W        W38962  12.160  28.815  20.075 -0.1738 -0.2168 -0.1686
96050W        W38963  26.101  31.331  16.309  0.1579  0.0245 -0.0434
96051W        W38964  28.658   7.988  16.967 -0.0427  0.0871 -0.0371
96052W        W38965  16.715   3.556  27.462 -0.0961  0.1152  0.0695
96053W        W38966  30.821   0.049  15.004  0.0573  0.1086 -0.1317
96054W        W38967  14.435  28.628  18.835  0.1114 -0.3148 -0.1613
96055W        W38968  18.450   2.948  27.863 -0.0793 -0.0116 -0.5422
96056W        W38969  21.145  30.666  17.502  0.0296 -0.1023 -0.0673
96057W        W38970  27.527  33.436  20.924  0.0301 -0.0340  0.1844
96058W        W38971   1.754  19.766  16.709  0.0443 -0.0861  0.3711
96059W        W38972  18.421  28.186  25.259  0.1741  0.2480 -0.2151
96060W        W38973  15.385   0.836  15.331 -0.3778 -0.0062  0.0533
96061W        W38974  30.923  29.887  23.534  0.0475  0.0146 -0.3428
96062W        W38975  15.014  27.969  15.459  0.1112 -0.0440 -0.1897
96063W        W38976   8.656  31.201  19.588  0.0499  0.1136  0.1040
96064W        W38977  15.417  20.976  23.664  0.0810 -0.0813  0.1542
96065W        W38978  17.071  32.820  16.869 -0.0875  0.2230  0.2487
96066W        W38979  28.406  30.286  17.235 -0.1010 -0.0642 -0.0632
96067W        W38980  16.803  32.168  20.071 -0.2166 -0.0758 -0.0419
96068W        W38981  18.178  15.822  13.545  0.0577 -0.1864  0.5094
96069W        W38982  18.686   8.325  21.697  0.0833  0.1882 -0.0705
96070W        W38983  27.219  29.721  13.387 -0.0734  0.2256  0.1234
96071W        W38984  26.396   1.361  22.304 -0.2028 -0.1080 -0.2658
96072W        W38985   7.865  19.978  21.752  0.1563  0.2480  0.2995
96073W        W38986  16.117  24.758  14.393  0.2057  0.1247 -0.2344
96074W        W38987  20.856  31.030  15.323  0.1332  0.3223  0.1357
96075W        W38988  21.935   5.429  18.990 -0.1097  0.0226 -0.1171
96076W        W38989  18.098  33.857  16.346  0.0352  0.3324  0.1159
96077W        W38990  26.456  30.435  22.912  0.0504  0.0279  0.0420
96078W        W38991  27.474   0.564  16.056  0.0474 -0.1650 -0.0113
96079W        W38992  19.611  34.011  18.612  0.0195  0.1558  0.0671
96080W        W38993  14.613  33.961  21.831  0.2202 -0.1300 -0.0234
96081W        W38994  19.806   0.343  17.504  0.0243  0.4325 -0.0887
96082W        W38995  19.869  25.776  18.712  0.0946  0.2094 -0.4240
96083W        W38996  14.525  28.649  20.635 -0.1214 -0.1487 -0.1215
96084W        W38997  12.528  21.284   0.042  0.0593  0.2330 -0.1037
96085W        W38998  26.540  27.895  24.915 -0.3731 -0.1945  0.0969
96086W        W38999   0.654  23.592  20.357  0.2347 -0.1424 -0.1256
96087W        W39000  22.825  28.211  18.615 -0.0137 -0.0703  0.2524
96088W        W39001  23.146   0.985  16.799 -0.1417 -0.1567  0.2634
96089W        W39002  18.383  28.262  14.557 -0.0571 -0.1659 -0.1805
96090W        W39003  31.320  32.133  23.827 -0.3071 -0.1838  0.1313
96091W        W39004  20.203   5.490  16.282  0.2464  0.4688  0.0130
96092W        W39005  26.778  31.593  19.868 -0.0188 -0.1782 -0.0592
96093W        W39006  16.334  26.560  17.757  0.0968  0.1836 -0.0102
96094W        W39007  25.394   3.321  19.165  0.1393  0.0083  0.1213
96095W        W39008  27.911   5.239  17.549  0.0389  0.1104 -0.2933
96096W        W39009  19.082  29.771  16.999  0.0807  0.2985 -0.2034
96097W        W39010  29.049   1.766  21.154 -0.3379 -0.2372 -0.0346
96098W        W39011  24.517  31.177  19.953 -0.2683  0.0288  0.1004
96099W        W39012  20.772   1.209  25.819 -0.0932  0.1746 -0.1112
96100W        W39013  30.239  23.300  21.407  0.2392 -0.0815 -0.0300
96101W        W39014  10.421  27.900  15.293  0.0198  0.4486  0.0365
96102W        W39015  22.424  30.862  18.220  0.3321  0.0561  0.0102
96103W        W39016  13.280  26.841  16.317 -0.0577 -0.3464 -0.1240
96104W        W39017  22.483  30.447  20.452  0.1347 -0.0101  0.2140
96105W        W39018  14.585  31.932  18.959 -0.0421  0.0862  0.1656
96106W        W39019  20.194  31.618  15.287 -0.0264  0.1777 -0.0371
96107W        W39020  27.555   4.498  24.558 -0.0159  0.0458  0.3155
96108W        W39021  22.092  31.505  17.614  0.0134 -0.2827  0.0108
96109W        W39022  27.004  29.373  16.133 -0.0951  0.0869  0.1636
96110W        W39023  12.944  26.443  13.636 -0.2629 -0.0396 -0.0476
96111W        W39024  24.272  30.244  15.595  0.0435 -0.0134 -0.2142
96112W        W39025  24.820   1.607  18.103 -0.1454  0.0172  0.4576
96113W        W39026  21.963  31.472  14.484 -0.2406 -0.0139  0.1686
96114W        W39027  21.597   4.880  16.829  0.1733  0.1012  0.3133
96115W        W39028  17.735  29.293  17.828  0.1571  0.1099  0.0811
96116W        W39029  23.049   3.953  19.153  0.2641  0.0901  0.0941
96117W        W39030  24.207  23.867  18.904 -0.0420 -0.0801 -0.1568
96118W        W39031  18.073   0.247  19.813  0.1020 -0.1701  0.0247
96119W        W39032  23.976  32.730  16.137 -0.2877 -0.1343 -0.2525
96120W        W39033  27.896  32.560  20.856 -0.0036  0.0419  0.2197
96121W        W39034  27.032  33.510  17.046  0.1102  0.1217 -0.4755
96122W        W39035  27.681  25.464  17.900  0.1876  0.1027  0.0216
96123W        W39036  25.094  28.177  13.986  0.1756  0.2000  0.0339
96124W        W39037  20.668  25.907  18.109  0.0471 -0.0703  0.1117
96125W        W39038  15.013   1.304  29.231  0.0282 -0.0230  0.1031
96126W        W39039  18.760   5.164  22.434  0.1215  0.0658  0.1796
96127W        W39040  16.455  24.187  15.158  0.1336 -0.0018 -0.2767
96128W        W39041  22.294  19.707  20.023 -0.0267 -0.1037 -0.1634
96129W        W39042  34.115  16.996  28.766  0.2290 -0.2209 -0.2569
96130W        W39043  14.328  17.031  16.260 -0.0676 -0.0387  0.0807
96131W        W39044  19.920  30.542  20.073  0.0650 -0.0240 -0.0012
96132W        W39045  24.125  23.499  16.233  0.3481 -0.0576 -0.0400
96133W        W39046  17.600   2.893  21.841 -0.0424  0.1034  0.0713
96134W        W39047   9.985  21.710  27.135  0.1858  0.0449 -0.0046
96135W        W39048  17.507  33.789  16.607  0.3706 -0.0808  0.3401
96136W        W39049  21.172  27.593  20.419 -0.0566 -0.0520 -0.1236
96137W        W39050  20.794  30.177  16.213  0.1424 -0.0914 -0.0798
96138W        W39051  25.464  24.397  16.472 -0.1329 -0.0374 -0.0274
96139W        W39052  13.638   2.572  29.083 -0.2451 -0.5460  0.0510
96140W        W39053  33.281  14.393  21.570  0.0404 -0.0960 -0.1390
96141W        W39054  17.624   0.058  24.918 -0.0783  0.0313 -0.1112
96142W        W39055  21.676  34.425  19.856 -0.2120  0.1134  0.3739
96143W        W39056  28.663  26.230  14.550 -0.0611 -0.0571  0.3300
96144W        W39057  29.134  21.818  19.530  0.2064  0.2380  0.0986
96145W        W39058  23.015  26.545  21.540  0.4013 -0.2488  0.1830
96146W        W39059  22.959  31.121  14.646  0.3591 -0.2302 -0.1035
96147W        W39060  18.005  28.524  16.384  0.0293 -0.3024  0.3310
96148W        W39061  24.850   1.956  23.437 -0.1167 -0.2783  0.0222
96149W        W39062  22.302  27.167  18.595 -0.0096 -0.1011 -0.2440
96150W        W39063  10.115  25.369  15.134  0.1006 -0.2093 -0.0237
96151W        W39064  21.391   0.686  15.214 -0.0942 -0.1622  0.0368
96152W        W39065  15.350  29.466  19.585 -0.0810  0.0308  0.1488
96153W        W39066  23.663  32.402  20.317 -0.1050  0.1107  0.1225
96154W        W39067  29.245   0.057  18.610  0.0562  0.4112 -0.0325
96155W        W39068  19.429  26.078  20.193 -0.0837 -0.0700  0.0136
96156W        W39069  12.772  28.316  29.569 -0.3494  0.1534 -0.1674
96157W        W39070  17.307  31.572  15.571  0.1407 -0.1196 -0.0078
96158W        W39071  14.662  27.138  19.978  0.0506 -0.2677  0.2242
96159W        W39072  17.552  22.493  21.159 -0.2632  0.1303  0.1519
96160W        W39073  28.398  23.627  13.460  0.2668  0.1049  0.0258
96161W        W39074  10.720  26.173  27.905  0.0458  0.0597  0.0251
96162W        W39075  21.475  23.659  16.139 -0.5100  0.0109 -0.2624
96163W        W39076  18.364  27.264  19.479 -0.3254 -0.3777  0.2616
96164W        W39077  23.914   1.704  17.458  0.2419  0.0209 -0.1439
96165W        W39078  31.134  30.178  20.266 -0.1820 -0.2927  0.1126
96166W        W39079  32.121  20.048  16.444  0.0412  0.1501  0.3214
96167W        W39080  30.784  28.979  18.623 -0.1475  0.2104  0.1499
96168W        W39081  21.251  28.909  15.911 -0.4132 -0.0925 -0.0284
96169W        W39082  23.453  32.621  13.494 -0.3636 -0.0741  0.0063
96170W        W39083  19.737  28.038  28.972  0.0241  0.0765 -0.1428
96171W        W39084  20.928  28.136  24.652  0.1013 -0.1949 -0.1878
96172W        W39085  17.381  25.399  14.182  0.1994  0.0997  0.1730
96173W        W39086  16.747  30.025  15.543  0.1059 -0.0053 -0.0167
96174W        W39087  18.625   7.932  18.203 -0.5005  0.0865  0.1430
96175W        W39088  21.869   0.975  15.440  0.1153  0.2550 -0.1004
96176W        W39089  23.012  33.431  21.104  0.1425 -0.1075 -0.0938
96177W        W39090  24.008  28.041  18.088 -0.1783  0.1016 -0.3358
96178W        W39091  20.165  27.436  22.692  0.0710  0.0107  0.1283
96179W        W39092  18.360  29.955  17.544  0.2476  0.1106 -0.0855
96180W        W39093  25.123   4.499  14.045  0.1682  0.3235  0.0609
96181W        W39094  14.022  26.487  29.396  0.0874  0.0666 -0.2842
96182W        W39095  21.067  27.455  13.540 -0.2506  0.0490 -0.0598
96183W        W39096  28.000  29.946  19.954  0.1689 -0.0833 -0.1806
96184W        W39097  21.456  32.748  14.340  0.2490 -0.0484 -0.1003
96185W        W39098  31.974  25.277  19.038  0.3847 -0.2827  0.2785
96186W        W39099  15.862  31.244  17.924  0.0359  0.0002  0.0437
96187W        W39100  17.682  31.764  22.461 -0.2060  0.0833  0.0387
96188W        W39101  18.580   5.520  14.681  0.0376  0.1835 -0.3592
96189W        W39102  27.394  29.651  16.494 -0.0727 -0.3371 -0.0020
96190W        W39103  23.770  29.310  19.112  0.0352 -0.0713  0.1661
96191W        W39104  29.553  34.101  17.338 -0.2477  0.0456 -0.0233
96192W        W39105  30.458  23.946  24.863 -0.3305 -0.0623  0.1101
96193W        W39106  21.045  27.856  20.808 -0.1316  0.3475 -0.2335
96194W        W39107  17.953   8.421  25.757  0.0010  0.0203 -0.1666
96195W        W39108  25.945   0.534  16.456 -0.1073  0.0057 -0.0542
96196W        W39109  22.562  28.293  17.226  0.0260 -0.2344 -0.2637
96197W        W39110  12.880  25.965  23.748 -0.1710 -0.1430  0.0721
96198W        W39111  22.200   2.672  16.459  0.1531 -0.1842 -0.1732
96199W        W39112  26.699  31.123  15.210  0.3125 -0.3053 -0.2219
96200W        W39113  15.912  32.320  16.637 -0.2300 -0.2486 -0.0844
96201W        W39114  19.373  33.371  18.098  0.2248 -0.0693  0.1673
96202W        W39115   9.222  28.958  21.500 -0.1440  0.1390 -0.0939
96203W        W39116  12.093  29.122  22.717 -0.1834  0.1639  0.1014
96204W        W39117  23.383  33.184  18.325 -0.1607 -0.0666  0.2899
96205W        W39118  18.470  31.794  18.849  0.2206 -0.2432 -0.1412
96206W        W39119  14.758  22.103  18.182 -0.1089  0.0570 -0.0398
96207W        W39120  26.581   6.547  21.503 -0.2013 -0.0625  0.1889
96208W        W39121  22.468  29.740  24.145 -0.2558  0.0313  0.0638
96209W        W39122  21.904  30.124  16.433  0.0037  0.4202 -0.0819
96210W        W39123  16.172  33.667  19.003  0.3311 -0.3231  0.1093
96211W        W39124   0.097  22.871  19.310  0.1345 -0.1840  0.1759
96212W        W39125  22.707  25.710  21.496 -0.0741  0.2303 -0.0185
96213W        W39126   8.640  31.084  25.080 -0.3723  0.1683  0.3835
96214W        W39127  18.751  32.678  17.287  0.2987  0.1546  0.0363
96215W        W39128  14.942   3.678  16.780  0.0651  0.2989 -0.0434
96216W        W39129  33.079   7.228  23.008 -0.1826 -0.2434  0.0830
96217W        W39130   9.512  23.843  14.044 -0.2446 -0.2229  0.0054
96218W        W39131   9.901  29.777  15.729  0.0976 -0.1580 -0.1747
96219W        W39132  31.625  20.868  20.092 -0.0576 -0.1744  0.2251
96220W        W39133  30.553   1.380  25.350  0.0052 -0.0642 -0.0172
96221W        W39134  11.889   0.413  20.284 -0.0586 -0.0182 -0.0069
96222W        W39135  20.472  24.564  23.125 -0.1039  0.0912 -0.0974
96223W        W39136  27.437  26.323  14.060 -0.0055  0.1213  0.5388
96224W        W39137   2.531  25.423  18.924 -0.0369  0.2026  0.0083
96225W        W39138  32.874  23.333  19.394 -0.2028  0.1426 -0.2403
96226W        W39139  24.361   3.594  15.489 -0.1579 -0.5034 -0.1530
96227W        W39140  23.150   4.322  24.565 -0.2585  0.3080 -0.3661
96228W        W39141  22.477  28.817  23.577 -0.0374 -0.0386 -0.4017
96229W        W39142  12.555   4.692  23.407  0.2433  0.1392 -0.3398
96230W        W39143  11.309  15.275  16.719  0.0664  0.2233  0.2087
96231W        W39144  32.361  30.804  26.750  0.0806 -0.0343  0.0571
96232W        W39145  24.260   4.715  19.639  0.3803  0.0350  0.4776
96233W        W39146  15.137  25.059  23.111  0.0178  0.2665  0.2486
96234W        W39147  20.008  28.210  21.024 -0.1326 -0.1019 -0.0270
96235W        W39148   9.918  32.945  21.225 -0.1156 -0.0108  0.1235
96236W        W39149  31.243  25.447  21.100 -0.2411  0.0169  0.2886
96237W        W39150  11.978   0.421  24.180  0.1030 -0.1724  0.1493
96238W        W39151  12.525  26.550  22.989 -0.1191 -0.1265 -0.2104
96239W        W39152  26.635  32.035  14.786  0.1943 -0.2623  0.2439
96240W        W39153  27.929  32.957  23.481 -0.3211  0.4470  0.0305
96241W        W39154  17.953  18.719  12.553 -0.1495 -0.0975 -0.0488
96242W        W39155  15.872  30.694  17.869  0.0761 -0.1371  0.1223
96243W        W39156  23.725  33.555  23.426  0.0382 -0.1215 -0.2654
96244W        W39157  17.733  26.258  14.504 -0.0616  0.1660  0.2091
96245W        W39158  23.881  29.216  14.619  0.0105 -0.2623  0.0477
96246W        W39159  24.240  29.402  14.992 -0.0179 -0.3985 -0.2909
96247W        W39160   4.544  30.513  17.543 -0.1427  0.0875  0.1923
96248W        W39161   9.633   8.911  16.851  0.1353 -0.0659 -0.1443
96249W        W39162  32.451  21.639  18.875  0.2145  0.1447 -0.0973
96250W        W39163  22.597  29.659   1.598 -0.2856  0.2775  0.1722
96251W        W39164  21.879  25.451  16.069  0.0682  0.2447  0.1305
96252W        W39165  26.394   3.653  29.371 -0.0711  0.2465 -0.0565
96253W        W39166  21.571  29.812  13.434  0.0759 -0.2350  0.1011
96254W        W39167  26.843   9.116  15.562  0.1772  0.0935  0.3386
96255W        W39168  25.413   5.143  26.974 -0.1309  0.1127 -0.0069
96256W        W39169  22.898  31.845  20.030 -0.0454 -0.1563 -0.3600
96257W        W39170  20.274  31.589  17.746 -0.0736 -0.2342 -0.3559
96258W        W39171  25.528  20.890  13.322  0.3494  0.2168 -0.0074
96259W        W39172  11.272   8.306  20.244 -0.2751 -0.1023 -0.0579
96260W        W39173  17.177  22.155  19.091 -0.1141  0.0279 -0.1568
96261W        W39174  12.975  30.348  21.197  0.0449 -0.0303 -0.3729
96262W        W39175  20.831   0.115  14.775 -0.0299 -0.1437  0.2766
96263W        W39176   8.230  29.731  25.416  0.1965  0.1432 -0.0084
96264W        W39177  21.032   4.967  16.700 -0.0354  0.0287  0.3313
96265W        W39178  18.899   2.722  16.951 -0.0381  0.0792 -0.0889
96266W        W39179  22.579  26.164  22.212  0.1336  0.0293  0.2213
96267W        W39180  17.960  30.691  18.734  0.0179 -0.1938 -0.1867
96268W        W39181  19.382   6.464  13.837 -0.3747  0.0406  0.2223
96269W        W39182  26.761  28.170  13.421 -0.2248 -0.2597  0.0317
96270W        W39183  11.649  33.232  16.702 -0.0898 -0.1899 -0.3238
96271W        W39184  22.979  34.413  19.385  0.2583 -0.0597 -0.0892
96272W        W39185  10.175  31.825  17.966  0.1938  0.1366  0.3586
96273W        W39186  23.891  29.507  22.742  0.1388 -0.2516  0.1498
96274W        W39187  20.290  33.539  21.997 -0.1042  0.1079 -0.3446
96275W        W39188  27.762  27.407  17.811  0.0208 -0.1073  0.3553
96276W        W39189  20.875  29.199  16.129 -0.0164  0.2073 -0.0786
96277W        W39190  28.535  24.461  14.306  0.2735  0.0706 -0.2017
96278W        W39191   5.592  23.238  14.687  0.3297  0.2068 -0.1832
96279W        W39192  20.631   9.836  25.541 -0.1100 -0.1575  0.2831
96280W        W39193   1.387  27.574  14.870  0.1213 -0.0846 -0.0535
96281W        W39194  16.443   2.999  19.198 -0.3644  0.1022  0.1637
96282W        W39195  26.849  33.990  19.722  0.0345  0.0902  0.1768
96283W        W39196  27.177  17.497  18.530 -0.1589  0.3607  0.2204
96284W        W39197  14.175  20.610  18.055  0.2275 -0.0793 -0.0661
96285W        W39198  23.663   4.535  14.032  0.0912 -0.0754 -0.1400
96286W        W39199  26.856  26.944  15.354  0.1878 -0.0443 -0.2129
96287W        W39200  25.515   4.217  16.883 -0.0869 -0.0196 -0.0186
96288W        W39201  16.621  29.593  15.880  0.1054 -0.0072  0.1464
96289W        W39202  23.307   7.159  16.301 -0.3068  0.2652  0.1426
96290W        W39203  22.513   2.242  13.759  0.0851  0.0408 -0.0226
96291W        W39204  18.720  27.658  25.233  0.0159  0.0157 -0.1087
96292W        W39205  20.053  25.480  14.404  0.0261  0.1575  0.2346
96293W        W39206  10.021  26.110   1.946 -0.0052  0.2605  0.0216
96294W        W39207  32.114  31.311  18.175  0.0393 -0.3864 -0.1272
96295W        W39208  20.331   6.027  28.268 -0.1002 -0.2556  0.0435
96296W        W39209  11.058  34.147  27.652  0.3188 -0.1241 -0.2610
96297W        W39210  19.487  33.417  16.307  0.0285 -0.3638 -0.0925
96298W        W39211  22.581  26.454  14.543 -0.3155  0.4679 -0.0088
96299W        W39212  22.839  26.264  18.129  0.0065 -0.3555  0.1419
96300W        W39213  24.235  33.027  15.079  0.4477 -0.0400 -0.2550
96301W        W39214  21.763  31.869  20.643  0.2068  0.0965 -0.1713
96302W        W39215  20.711  28.788  21.597 -0.1025  0.0015 -0.0725
96303W        W39216  24.894  33.366  18.364  0.1227 -0.0372 -0.0602
96304W        W39217  24.599  28.656  16.638  0.2292 -0.4324  0.1220
96305W        W39218  22.491   0.228  24.636 -0.3120 -0.0445  0.1437
96306W        W39219  25.505  26.861  16.564 -0.2418 -0.1150  0.2484
96307W        W39220  19.967   4.199  14.387  0.0307 -0.1051  0.0892
96308W        W39221  24.883  29.798  13.846 -0.1048 -0.0021 -0.0184
96309W        W39222  22.477  27.742  21.622 -0.0667 -0.0521 -0.4307
96310W        W39223  15.691   0.496  17.159  0.0060  0.0127 -0.1817
96311W        W39224  22.249   5.192  14.823 -0.2680  0.0098 -0.0955
96312W        W39225  25.507   1.683  16.032  0.1036  0.4316  0.0834
96313W        W39226  29.004   1.446  20.234  0.2295 -0.0340  0.0024
96314W        W39227  25.923  25.691  15.581 -0.0852 -0.1779  0.2642
96315W        W39228  18.930  27.517  25.820  0.1985 -0.1580 -0.0083
96316W        W39229  18.480   2.136  22.823 -0.3898  0.2338 -0.5411
96317W        W39230  15.496  19.098  14.906  0.2183  0.1970  0.0745
96318W        W39231  25.386   6.866  21.209  0.1514 -0.1200 -0.1577
96319W        W39232  21.518  26.842  16.295  0.2252  0.1625  0.4941
96320W        W39233  24.049   6.641  15.324  0.0420  0.1431  0.0195
96321W        W39234  21.587  21.558  25.995 -0.0245  0.3617  0.0029
96322W        W39235  21.294  31.304  25.115 -0.2258  0.2173  0.0540
96323W        W39236  25.288  20.856  15.789  0.0628 -0.1519  0.1357
96324W        W39237  28.543  32.929  27.346 -0.0868 -0.0520  0.1069
96325W        W39238  18.136  31.462  13.913 -0.0327  0.3590  0.1082
96326W        W39239  27.068  29.835  15.434  0.0241  0.2105  0.3533
96327W        W39240  25.254  30.814  28.291 -0.0397  0.3405  0.2007
96328W        W39241  13.997  18.358  26.101  0.2542  0.0616  0.1089
96329W        W39242  25.333   4.973  26.097  0.0993 -0.0559 -0.1005
96330W        W39243  16.060   0.596  29.468 -0.1269 -0.0792  0.1258
96331W        W39244  32.226  14.989  26.415 -0.2062  0.1084  0.0105
96332W        W39245  18.294  21.581  14.477  0.0297 -0.1340 -0.0348
96333W        W39246  21.735  30.149  25.582  0.0737 -0.2225 -0.0673
96334W        W39247  14.835  25.783  25.634 -0.1261 -0.1741 -0.0727
96335W        W39248  22.129  26.607  14.776  0.0236 -0.2739 -0.1762
96336W        W39249  13.701  31.220  19.441 -0.0127 -0.2973 -0.2015
96337W        W39250  26.951  33.116  18.502 -0.2810 -0.0198 -0.0434
96338W        W39251  19.580   0.821  15.745  0.1248  0.1984  0.1074
96339W        W39252  15.069  32.528  20.333  0.0860 -0.0981 -0.2834
96340W        W39253  25.412  30.843  15.514  0.0366 -0.1434  0.1176
96341W        W39254  27.747   0.237  14.369 -0.1356  0.0190 -0.0566
96342W        W39255  25.875   1.787  20.914 -0.0516 -0.0915 -0.1616
96343W        W39256  10.357  25.497  22.899 -0.0531 -0.0963 -0.1457
96344W        W39257  14.850  27.970  20.221 -0.0573  0.0009  0.0951
96345W        W39258  32.991  22.406  22.982 -0.1446  0.0965  0.2010
96346W        W39259  30.848  22.228  24.518  0.1024  0.2282  0.0635
96347W        W39260  19.495  31.208  24.932  0.0574 -0.1617 -0.0931
96348W        W39261  23.095  15.183  15.432  0.2150  0.2975 -0.0446
96349W        W39262  10.995  29.958  18.603  0.0348  0.1911 -0.1085
96350W        W39263  19.770  27.034  15.626 -0.0873  0.0398  0.0904
96351W        W39264  13.830   4.598  24.328 -0.1405 -0.1756 -0.0513
96352W        W39265  16.815  10.910  19.466 -0.0386 -0.0103  0.0891
96353W        W39266  25.473  31.407  26.086 -0.0546  0.2646 -0.1844
96354W        W39267  26.186  29.538  24.949  0.1617  0.4436  0.0102
96355W        W39268  24.334  32.118  17.892  0.2562 -0.0888 -0.1273
96356W        W39269  17.905  27.156  17.648 -0.2932 -0.1324 -0.1105
96357W        W39270  29.348  23.200  18.321  0.4376 -0.1788  0.1315
96358W        W39271  19.908  23.234  23.116  0.2220  0.0675  0.0605
96359W        W39272  23.765   3.747  19.313  0.1600  0.0406 -0.0254
96360W        W39273  19.832  26.361  20.271 -0.0659 -0.2244  0.2964
96361W        W39274  26.765  28.812  22.131 -0.3467  0.0005  0.0496
96362W        W39275  19.573  19.327  21.574 -0.1760  0.1682  0.0167
96363W        W39276  26.013  31.181  17.703 -0.1613  0.3018 -0.3720
96364W        W39277  20.972  22.075  19.462  0.0925  0.1114  0.1747
96365W        W39278  27.240   1.965   1.757  0.4579 -0.0138  0.0309
96366W        W39279  26.197   1.295  15.024 -0.0046  0.0466 -0.1354
96367W        W39280  16.329  28.614  17.689  0.1237 -0.2789 -0.4127
96368W        W39281  23.491  33.672  22.627  0.0971 -0.0918  0.3590
96369W        W39282   3.151  31.652  14.236  0.0480  0.0650  0.0964
96370W        W39283  14.876  27.982  22.999  0.0989 -0.0992 -0.1764
96371W        W39284  23.922  16.087   4.902 -0.0157  0.0109  0.1025
96372W        W39285  26.976  24.929  25.785 -0.0106  0.0060  0.0083
96373W        W39286  27.819   4.854  19.854 -0.2240 -0.1872  0.1139
96374W        W39287  19.775  29.630  19.836  0.1297 -0.1896  0.1154
96375W        W39288  16.310  21.964  16.042  0.1771 -0.0408 -0.0853
96376W        W39289   7.431  14.504  16.344 -0.2705  0.3027 -0.1237
96377W        W39290  21.317  34.255  22.518  0.3275 -0.1099  0.1409
96378W        W39291  27.026  31.226  23.939  0.0639 -0.4491 -0.1121
96379W        W39292  19.278   8.668  25.452 -0.0315 -0.1782 -0.0967
96380W        W39293  22.598  26.791  21.676  0.1447  0.1449 -0.0964
96381W        W39294  19.928  32.831  14.866 -0.0269 -0.1179 -0.0178
96382W        W39295  21.269  18.506  25.757  0.0293  0.0800 -0.2503
96383W        W39296  30.033  29.846  18.739 -0.0910  0.2387 -0.3358
96384W        W39297  23.323   0.153  13.867 -0.1753 -0.2135  0.4536
96385W        W39298  21.863   0.598  19.195  0.0625  0.0999  0.1398
96386W        W39299   7.208   0.159   0.075 -0.3153  0.0966 -0.2006
96387W        W39300  15.208  27.881  26.990  0.1248 -0.1703  0.1226
96388W        W39301  28.926  21.800  20.643  0.1121 -0.2205  0.1821
96389W        W39302  30.164  31.803  23.038  0.0538 -0.0114  0.1894
96390W        W39303  20.044  24.472  13.201 -0.0858  0.0056 -0.1275
96391W        W39304  17.160  32.058   0.660 -0.0350 -0.0726 -0.1274
96392W        W39305  20.468  14.478  13.840  0.1601  0.0257  0.0043
96393W        W39306  25.160   2.191  16.165 -0.1123 -0.1250 -0.0901
96394W        W39307  33.101  29.424   3.575  0.2565  0.2299  0.2379
96395W        W39308  22.017  22.564  12.401 -0.1302  0.2460 -0.0280
96396W        W39309  25.978  25.709  24.518 -0.0484 -0.0713 -0.3450
96397W        W39310  21.693  22.102  20.634 -0.0975 -0.1925 -0.3371
96398W        W39311  25.812   3.767  20.941 -0.0478  0.0363  0.1817
96399W        W39312  29.322   1.500  15.736 -0.1170 -0.1225  0.2254
96400W        W39313  22.296   3.843  23.523  0.0457  0.1432  0.3662
96401W        W39314  21.070  30.739   2.407  0.0885 -0.1117 -0.0103
96402W        W39315  28.534  34.444  28.161  0.1852 -0.1385 -0.3453
96403W        W39316  17.711   0.205  17.831 -0.0926  0.0008  0.2832
96404W        W39317   8.577  28.278  18.196  0.2980  0.0911  0.0921
96405W        W39318  23.451  27.842  27.581  0.1406 -0.0731 -0.1197
96406W        W39319  32.681  18.769  21.390  0.1882  0.2820 -0.1179
96407W        W39320  14.620   3.890  26.099  0.0502 -0.0036  0.0610
96408W        W39321  25.459   4.448  14.495 -0.0646  0.0015  0.1524
96409W        W39322  29.064  31.817  21.424 -0.2081 -0.1945  0.0026
96410W        W39323  18.960  28.872  22.201  0.0920  0.0426 -0.2193
96411W        W39324  29.856  23.298  20.161 -0.0019  0.1297  0.0073
96412W        W39325  21.980  33.268  18.503 -0.0541 -0.1369 -0.0992
96413W        W39326  26.154  21.650  13.842 -0.2734  0.0659  0.0108
96414W        W39327  15.865  30.079  21.654  0.2514 -0.0710  0.0765
96415W        W39328  23.055   1.295  23.734  0.2910  0.2715 -0.2585
96416W        W39329  22.701  34.209  25.503  0.0073  0.1889  0.0013
96417W        W39330  20.050  29.475  16.034  0.0836  0.0138  0.2040
96418W        W39331  20.158  26.880  22.875 -0.2793 -0.0007 -0.0541
96419W        W39332   0.455  34.123  17.278  0.0277 -0.0469  0.2872
96420W        W39333  23.169   2.742  18.469  0.0167  0.0873 -0.4669
96421W        W39334  26.056  22.543  20.767 -0.1625  0.0061 -0.1100
96422W        W39335  30.807  26.551  24.392  0.2105  0.0399 -0.0389
96423W        W39336  13.426  19.725  18.205  0.2133  0.1746  0.1372
96424W        W39337  30.079  29.685  23.723  0.2015 -0.2071 -0.2324
96425W        W39338  30.293  13.255  19.029  0.1321 -0.1549  0.2309
96426W        W39339  17.064   1.342  28.299 -0.0761 -0.0760  0.0714
96427W        W39340   9.756  33.657  19.160 -0.0505  0.0862 -0.1349
96428W        W39341  21.561   0.128  14.115  0.0221  0.0758  0.2571
96429W        W39342  17.400  27.403  23.652 -0.0765 -0.0365  0.0136
96430W        W39343  18.853  29.696  24.466 -0.0764 -0.0285 -0.2971
96431W        W39344  13.063  25.022  24.462  0.0814  0.4274  0.2660
96432W        W39345  16.811   9.085  14.986 -0.1895  0.0455  0.0917
96433W        W39346  26.721  27.884  20.331  0.1482 -0.0186  0.0521
96434W        W39347  15.368  31.567  22.675  0.0780  0.1134 -0.0379
96435W        W39348  27.370  24.660  13.887  0.2107 -0.0160  0.1137
96436W        W39349  24.701   8.714  19.122  0.3631  0.0017 -0.5400
96437W        W39350  29.792   9.898  22.070  0.0277  0.0452  0.1336
96438W        W39351  12.753  31.883  15.990 -0.0292 -0.0628  0.2089
96439W        W39352  24.728  14.965  19.820  0.1482 -0.3122 -0.1910
96440W        W39353  20.792  28.066  15.839  0.3950  0.2552 -0.3358
96441W        W39354  31.011   1.238  17.526 -0.1793  0.1955 -0.0321
96442W        W39355  27.301   3.496  14.656  0.2503 -0.0649 -0.0487
96443W        W39356   4.632  22.448  13.934  0.1770  0.0229  0.1928
96444W        W39357  32.539  28.977  24.046 -0.0017  0.0113  0.0967
96445W        W39358  23.571  15.062  17.921  0.0220  0.2001 -0.0501
96446W        W39359  22.099   1.089  20.339  0.0855 -0.0291 -0.0527
96447W        W39360  26.626   3.402  19.272  0.0233  0.2336 -0.1557
96448W        W39361  23.202  29.556  13.351 -0.3487 -0.1489  0.1155
96449W        W39362  14.850  23.097  15.631 -0.0874 -0.1394 -0.3371
96450W        W39363  20.978  23.456  21.075  0.1964 -0.0715 -0.1135
96451W        W39364  32.854  32.081  25.217  0.1126  0.1530  0.0512
96452W        W39365  24.126  33.847  16.810  0.0058  0.1216  0.0208
96453W        W39366  30.819  32.678  16.974  0.1432 -0.1728 -0.1869
96454W        W39367  14.777  28.391  19.870 -0.2293  0.4169 -0.3485
96455W        W39368  26.414  29.406  14.878  0.0191 -0.1739 -0.3071
96456W        W39369  26.007   3.550  22.590  0.1561  0.0470  0.0360
96457W        W39370   9.706  34.174   1.149 -0.0041  0.0408 -0.1593
96458W        W39371  24.822   4.845  21.587 -0.0572 -0.0885 -0.1056
96459W        W39372   5.950  25.648  18.528  0.1268  0.1885  0.2071
96460W        W39373  24.281  24.606  16.012 -0.4165 -0.1781 -0.0727
96461W        W39374  28.699  30.192  20.887  0.2576 -0.3417  0.0281
96462W        W39375  31.639  25.824  19.792  0.0338  0.0846 -0.0919
96463W        W39376  28.071  33.952  18.456  0.4104  0.3612  0.3353
96464W        W39377  12.243  27.618  21.018  0.5211  0.1747 -0.0286
96465W        W39378  19.171  30.288  27.225  0.2761  0.1296  0.3084
96466W        W39379  21.645   0.118  23.332  0.2607 -0.1206 -0.2219
96467W        W39380  18.368  28.480   0.003 -0.4454 -0.0754  0.2413
96468W        W39381  19.145  24.776  23.907  0.0309  0.1705  0.0188
96469W        W39382  22.895  30.052  20.654 -0.1740  0.1281 -0.4546
96470W        W39383  32.403   5.013  17.538 -0.2424 -0.0888 -0.2219
96471W        W39384  10.229  26.187  24.259  0.0142  0.2450  0.1800
96472W        W39385  19.764  25.515  18.052 -0.0416 -0.0435 -0.0039
96473W        W39386  19.968  33.460   4.130  0.1287  0.0428 -0.1201
96474W        W39387  18.697   4.349   1.314 -0.1687  0.1701 -0.0096
96475W        W39388  12.297  20.763  13.726  0.0820 -0.0478 -0.1467
96476W        W39389  13.712  33.899  20.304 -0.1898  0.4267  0.0235
96477W        W39390  24.881  29.251  17.474  0.0787  0.2910  0.0097
96478W        W39391  33.135  30.142  18.277 -0.1041  0.1917 -0.0479
96479W        W39392  22.849   5.635  14.033 -0.1043  0.0999 -0.1577
96480W        W39393  11.714  31.971  20.508  0.2896  0.2531 -0.2254
96481W        W39394   6.650  31.378  22.266  0.0035 -0.1062  0.2142
96482W        W39395  15.322  31.769  18.476  0.2451 -0.0312 -0.1270
96483W        W39396  11.507  31.150  21.117 -0.0765 -0.0635  0.0403
96484W        W39397  22.537  27.377  24.207 -0.2420 -0.2068 -0.0172
96485W        W39398  14.442  32.097  27.792 -0.3628  0.0147  0.1749
96486W        W39399  26.288  26.141  13.744  0.5254 -0.1013 -0.2532
96487W        W39400  21.796  31.559  25.128  0.2531  0.0175 -0.1273
96488W        W39401  20.353   1.868  17.566  0.1085 -0.0417 -0.3102
96489W        W39402  20.270  18.551  13.928  0.0833 -0.0537  0.1033
96490W        W39403  16.301   4.888   4.298 -0.3748  0.2513  0.0426
96491W        W39404  15.066  31.287  22.321 -0.4619  0.0442 -0.1186
96492W        W39405  22.876  22.497  26.887 -0.2224  0.3672  0.1370
96493W        W39406  26.824  29.827  21.893 -0.0208 -0.0399 -0.1298
96494W        W39407  21.272  11.844  21.603  0.0549 -0.0351 -0.0534
96495W        W39408  25.969  10.580  23.638  0.2275  0.0014 -0.1669
96496W        W39409  23.303   3.950  25.333  0.2766 -0.1730  0.2288
96497W        W39410  25.226   0.090  18.848 -0.1599 -0.1613  0.2090
96498W        W39411  18.060  27.165  19.112 -0.2709  0.0168  0.1160
96499W        W39412  19.788  27.818  18.341  0.2154 -0.0514 -0.2540
96500W        W39413  15.585  34.058  19.905 -0.0514  0.2041 -0.2128
96501W        W39414  19.574   6.508  28.754 -0.1510 -0.1079 -0.2009
96502W        W39415  19.943  14.015  13.121  0.0501  0.0562 -0.2162
96503W        W39416  23.273  21.300  25.227 -0.1127 -0.0671 -0.1236
96504W        W39417  20.984   6.379  19.409  0.2982  0.0459  0.0977
96505W        W39418  20.478  24.430  12.880  0.1646 -0.0217 -0.0153
96506W        W39419  17.616  30.391  24.847  0.0353  0.1196  0.1640
96507W        W39420  21.652  14.040  25.406 -0.2818 -0.0017 -0.1986
96508W        W39421   8.254  15.587  16.762  0.4117  0.2901 -0.4592
96509W        W39422  18.488  30.429  17.619 -0.1654 -0.2019  0.2470
96510W        W39423  22.472   2.113  23.020  0.0299 -0.3116  0.2222
96511W        W39424  28.382  23.699  21.225 -0.0503 -0.1551  0.0046
96512W        W39425   0.250  25.631  14.780 -0.2540  0.1566  0.1985
96513W        W39426  15.428   6.182  22.305 -0.0265  0.1287 -0.2032
96514W        W39427  28.540  29.665  17.370 -0.4188 -0.1484  0.3279
96515W        W39428  14.176   0.209  22.314  0.0250 -0.2947 -0.3674
96516W        W39429  15.736  32.073  27.268 -0.1315  0.1539  0.0394
96517W        W39430  20.154  34.245  15.283 -0.1769  0.1792 -0.2943
96518W        W39431  30.753  27.424  17.416 -0.2731  0.0681 -0.2838
96519W        W39432  26.570  33.372  15.178  0.0557  0.2105 -0.0702
96520W        W39433  24.405   0.523  24.479 -0.1365 -0.3213  0.0496
96521W        W39434  26.141  26.745  14.135 -0.0218  0.0817 -0.0098
96522W        W39435  22.145  30.767  13.661  0.3236 -0.0008  0.0001
96523W        W39436  17.253   2.885  23.228  0.0726  0.0053 -0.6164
96524W        W39437  30.039  27.810  25.711  0.0821  0.0784  0.5915
96525W        W39438  26.902  21.898  23.546  0.2458  0.1150  0.4287
96526W        W39439  28.226  27.525  19.651  0.2390  0.1388 -0.2501
96527W        W39440  23.227  26.987   1.076 -0.1818  0.3058  0.1170
96528W        W39441  24.109   0.381  17.060  0.0613  0.1762 -0.0815
96529W        W39442  23.952  33.369  13.476  0.0878  0.4433 -0.1281
96530W        W39443  18.182   0.623  15.923 -0.1662 -0.2382 -0.1203
96531W        W39444  14.199  25.280  17.794 -0.2686  0.1246 -0.2381
96532W        W39445  21.391   2.449  15.826  0.1982  0.5918 -0.0807
96533W        W39446  23.997   8.192  21.682  0.4579  0.2184  0.1072
96534W        W39447  24.796  29.101  21.238 -0.5025 -0.1344 -0.3421
96535W        W39448  23.829  26.023  16.594  0.0054  0.0187  0.1219
96536W        W39449  33.983  20.673  18.423  0.0111 -0.0887  0.1212
96537W        W39450  18.873   4.286  24.269 -0.1286 -0.1013 -0.2430
96538W        W39451  20.047  28.038  27.416  0.1768 -0.1290 -0.3914
96539W        W39452  24.990  23.192  20.244  0.0443 -0.1270 -0.4968
96540W        W39453   7.483   3.246  26.027  0.0756 -0.0895 -0.0523
96541W        W39454   8.477  34.353  26.307 -0.2161  0.1189  0.1066
96542W        W39455  19.753  30.220  19.232 -0.1493  0.0300  0.1354
96543W        W39456   7.341   1.041  18.184 -0.1610  0.0708  0.0903
96544W        W39457   3.794  15.125  23.377 -0.1453 -0.1463  0.0232
96545W        W39458  23.295   7.272  15.269 -0.0136 -0.2989  0.1191
96546W        W39459  26.557   1.342  19.684  0.0705 -0.3671 -0.0514
96547W        W39460  17.064   0.930   1.112 -0.1827  0.2167  0.2404
96548W        W39461  20.168   2.569  24.165 -0.0548 -0.1475 -0.2192
96549W        W39462  25.329   2.894  21.007 -0.0884  0.2152 -0.4323
96550W        W39463  25.254  34.407  27.732  0.3171  0.3112 -0.1288
96551W        W39464  23.661  31.200  21.637 -0.0269 -0.2412  0.0286
96552W        W39465  25.312  25.926  22.651  0.0938  0.0997 -0.0994
96553W        W39466  21.843  29.547  18.708 -0.2689  0.4118  0.2338
96554W        W39467  14.403   8.199  19.579 -0.0768  0.1015  0.1088
96555W        W39468  14.176  22.805  21.864  0.2122  0.1784  0.1262
96556W        W39469  13.384  31.747  16.464 -0.0927 -0.3551  0.0447
96557W        W39470  19.408  31.040  21.909  0.2516  0.2599 -0.0298
96558W        W39471  25.704  23.388  19.703  0.0086  0.2385 -0.0742
96559W        W39472  12.365  27.976  17.558  0.3529 -0.0479 -0.0123
96560W        W39473  15.901  31.039  18.465  0.1455 -0.1284  0.3759
96561W        W39474  13.962  24.595  27.993 -0.1594 -0.0142 -0.1046
96562W        W39475  31.232  24.924  16.387 -0.1262  0.0301 -0.2419
96563W        W39476  11.417  27.977  15.720  0.1742 -0.1500  0.0349
96564W        W39477  24.956  33.081  17.100 -0.1919  0.1397 -0.0938
96565W        W39478  22.744  25.255  14.686 -0.1924  0.2145  0.1531
96566W        W39479  26.003   3.399  15.486  0.2864 -0.0503  0.1011
96567W        W39480  27.962   6.285  19.674  0.1648  0.0056  0.0967
96568W        W39481  29.913   3.217  16.980 -0.0595 -0.1732  0.2985
96569W        W39482  13.868  25.689  23.590 -0.0029  0.0000 -0.0288
96570W        W39483  15.437  28.755  27.369  0.2037  0.0575 -0.0461
96571W        W39484  23.319   4.317  23.355  0.2639 -0.2079  0.2670
96572W        W39485  18.373  26.401  20.775  0.2323 -0.1023  0.1223
96573W        W39486  18.699  29.161  20.592 -0.1687  0.0607  0.2501
96574W        W39487  28.743  30.168  19.528 -0.1212 -0.5033  0.1205
96575W        W39488  23.369  29.108  14.512  0.0182  0.0807 -0.1436
96576W        W39489  21.697   0.969  25.529  0.0376  0.1113  0.3459
96577W        W39490  20.552  29.937  22.409  0.0944 -0.3460 -0.0030
96578W        W39491  17.020  31.166  15.539  0.1042 -0.0919  0.4668
96579W        W39492  12.431  22.504  23.558 -0.1529 -0.1448  0.2152
96580W        W39493  27.713   2.281  16.132 -0.1752  0.1403  0.3499
96581W        W39494  21.967  29.801  24.035 -0.0918 -0.0994  0.1698
96582W        W39495   0.752  29.820  17.366  0.2310 -0.3337 -0.0965
96583W        W39496  21.933  24.097  14.687  0.1789  0.2373  0.1020
96584W        W39497  25.654   1.348  13.580 -0.1488  0.0816 -0.0208
96585W        W39498   4.830  34.160  21.559 -0.2499  0.0843  0.0391
96586W        W39499  22.109  27.492  19.963  0.3995 -0.2001 -0.1396
96587W        W39500  20.624  32.095  20.648 -0.0541  0.0885  0.0534
96588W        W39501  29.481   1.159  24.485 -0.0138 -0.0224 -0.1166
96589W        W39502  27.688  28.929  13.675 -0.2532 -0.1787 -0.1083
96590W        W39503  28.164  27.682  20.423  0.2258  0.1108  0.0750
96591W        W39504  33.089  32.028  15.905 -0.0902 -0.3640 -0.0720
96592W        W39505  16.113   1.369  19.199  0.1598  0.3310  0.1427
96593W        W39506  27.370   5.679  14.367 -0.2451  0.2494 -0.1494
96594W        W39507  24.157   1.780  24.651  0.1389 -0.1279  0.0103
96595W        W39508   9.579  31.235  20.943 -0.2827 -0.0924 -0.1596
96596W        W39509  22.574  21.790  13.599  0.0303 -0.1457 -0.0003
96597W        W39510  26.319  30.245  22.142 -0.0372  0.0988  0.0152
96598W        W39511  25.088   0.230  25.146 -0.0036 -0.2399 -0.0060
96599W        W39512  18.549  13.796  14.431 -0.2409  0.0138  0.1661
96600W        W39513  20.424  20.124  15.776  0.2951 -0.0441  0.1769
96601W        W39514  20.735  32.981  21.564 -0.1442 -0.0061 -0.2909
96602W        W39515  20.589   3.382  18.500 -0.3792 -0.1603  0.3081
96603W        W39516  17.611  33.597  29.110 -0.0376  0.2097  0.1111
96604W        W39517  15.060  28.736  20.683  0.0538  0.1735  0.1486
96605W        W39518  15.474  23.295  20.486 -0.2331 -0.0691  0.2055
96606W        W39519  28.507   5.979  17.752  0.0822  0.0952 -0.0532
96607W        W39520  22.617  17.372  17.176 -0.0121  0.0046  0.1888
96608W        W39521  24.032  30.926  16.222 -0.2785 -0.1623  0.1055
96609W        W39522  25.319  25.110  22.622 -0.1206  0.2554  0.0884
96610W        W39523  22.522  25.487  23.776  0.2342 -0.1704 -0.1455
96611W        W39524  26.720   0.958  14.890 -0.0647  0.2286 -0.1073
96612W        W39525  15.630  33.594  20.949  0.3635  0.2094  0.0539
96613W        W39526  24.967  21.472   6.511  0.0768  0.1752  0.2041
96614W        W39527  22.695  30.939  20.459 -0.2348  0.0029 -0.2587
96615W        W39528   7.292  32.098  24.129  0.3732  0.1413 -0.2673
96616W        W39529  24.919  34.000  16.189 -0.0479  0.4989 -0.0268
96617W        W39530  23.525  22.092  19.303 -0.1012 -0.0910 -0.1417
96618W        W39531  29.066  34.475  21.804 -0.2123 -0.0130 -0.0025
96619W        W39532  27.933  24.190  14.895 -0.0930 -0.0980  0.0975
96620W        W39533  14.760  27.715  19.115 -0.0117  0.0279  0.1339
96621W        W39534  18.382  28.806  16.676 -0.1790  0.0473 -0.3214
96622W        W39535  29.247  33.356  14.636  0.1265  0.1233 -0.2227
96623W        W39536  28.612  19.633  16.807  0.0524 -0.0337 -0.3062
96624W        W39537  22.633  28.626  26.756 -0.0417 -0.2570  0.3471
96625W        W39538  23.771  30.293  20.735 -0.0258 -0.0874  0.3629
96626W        W39539  23.423  29.847  19.513  0.0954 -0.1875  0.1298
96627W        W39540  23.729  29.944  24.998 -0.2648  0.1454 -0.0059
96628W        W39541  20.095  33.063   0.569 -0.0160 -0.0385 -0.3289
96629W        W39542  24.700  29.366  22.230  0.0703  0.0856  0.0961
96630W        W39543  19.247  26.986  18.552 -0.3384  0.2281  0.1436
96631W        W39544  14.525  25.278  21.308 -0.0751 -0.0539 -0.1905
96632W        W39545  19.871   4.852  26.735 -0.0031 -0.2843  0.3151
96633W        W39546  19.126  30.364  26.149 -0.2624 -0.0500 -0.1541
96634W        W39547  14.672   9.598  19.324 -0.0377  0.2084  0.1560
96635W        W39548  14.021  34.298  25.579 -0.1317  0.0415  0.3718
96636W        W39549   9.685  28.655  25.667 -0.0502  0.0783  0.2028
96637W        W39550  23.565  24.201  20.108 -0.1084 -0.0533  0.1344
96638W        W39551  21.054  12.672  17.319  0.0720 -0.2533 -0.3174
96639W        W39552  11.834  10.401  24.870 -0.1671  0.2466  0.1152
96640W        W39553   1.881  28.998  19.622 -0.2417  0.1130  0.0899
96641W        W39554  29.005   5.202  22.686  0.1169 -0.2160  0.0989
96642W        W39555  27.363  31.033  17.583 -0.2186  0.0183  0.0549
96643W        W39556  24.115  27.147  25.838  0.2086  0.0236 -0.1500
96644W        W39557  23.366  27.607  23.047  0.2345  0.1308  0.1056
96645W        W39558  18.547   2.429  17.788 -0.0785  0.0260 -0.2033
96646W        W39559  24.207   0.328  17.562  0.0715 -0.0721  0.1307
96647W        W39560   9.425  33.021  26.231 -0.2165  0.0930 -0.1381
96648W        W39561  19.675  26.040  17.136 -0.3923  0.3429 -0.0384
96649W        W39562  22.051  33.766  22.647  0.1017 -0.0621 -0.2245
96650W        W39563  10.792  21.223  20.254  0.0716  0.0809 -0.0228
96651W        W39564  26.822   0.619  22.866 -0.1204  0.2156  0.1115
96652W        W39565  15.115   0.127   1.583 -0.0910  0.1439  0.2422
96653W        W39566  19.297  31.856  16.007  0.3123 -0.2591 -0.0904
96654W        W39567   6.444  20.102  16.920 -0.1953  0.0905  0.1781
96655W        W39568  17.114  27.681  20.648 -0.0076 -0.3323  0.2237
96656W        W39569  27.848   4.100  25.969  0.4103 -0.1575  0.0995
96657W        W39570  22.943  29.046  13.538 -0.0277 -0.2786 -0.0175
96658W        W39571  23.195  18.806  20.284  0.0614 -0.0967  0.0609
96659W        W39572  28.986  31.201  15.214 -0.1162 -0.2723  0.1106
96660W        W39573  30.712  30.950  14.844  0.0505 -0.0192  0.0475
96661W        W39574  12.898  34.450  21.908 -0.0266 -0.2394 -0.0188
96662W        W39575  17.455  21.908  23.729 -0.0620 -0.1878 -0.2064
96663W        W39576  16.882  33.565  24.671 -0.1552 -0.1894 -0.3068
96664W        W39577  24.132  28.587  12.560  0.0890 -0.0561  0.0799
96665W        W39578  25.654  30.344   5.243 -0.1214  0.1759 -0.2785
96666W        W39579  29.493  28.048  21.377 -0.0217 -0.5227  0.0457
96667W        W39580  16.338  30.105  20.939  0.2507 -0.2782 -0.0919
96668W        W39581  19.139  34.068  17.351 -0.0868 -0.2108 -0.1394
96669W        W39582  32.523  33.436  16.436  0.1868 -0.0317 -0.0844
96670W        W39583  24.932   2.133  21.162  0.3910 -0.2077 -0.0482
96671W        W39584  23.295  25.123  25.910  0.0939 -0.1876 -0.0060
96672W        W39585  21.434   5.618  15.376 -0.0076 -0.4679 -0.0891
96673W        W39586  25.353  20.143  15.481  0.0845  0.1044 -0.0504
96674W        W39587  30.090  13.395  18.525  0.1051 -0.0217  0.2106
96675W        W39588  17.399  28.258  23.624 -0.0428  0.0420 -0.1759
96676W        W39589  14.258  25.735  23.903  0.0868 -0.2482  0.2991
96677W        W39590  20.477  28.978  18.918 -0.3094  0.4146 -0.0335
96678W        W39591  17.501  29.619  25.365  0.2519  0.1083 -0.1280
96679W        W39592  15.067   4.361   0.170  0.4113 -0.0648 -0.1099
96680W        W39593  27.826  34.450  20.463  0.0142  0.2126 -0.4561
96681W        W39594  25.791  19.552  22.441  0.1348 -0.0777 -0.0206
96682W        W39595  18.556  26.046  24.585 -0.0681  0.0711 -0.0547
96683W        W39596  27.377  28.213  20.830  0.2695  0.1004  0.1762
96684W        W39597  17.041   5.509  15.656  0.1810 -0.1347  0.0199
96685W        W39598  29.601   0.220  27.405 -0.0621  0.0444  0.3158
96686W        W39599  24.210  32.832  18.585 -0.0566  0.0237  0.3429
96687W        W39600  15.596  33.657  20.271 -0.2396  0.1969 -0.0926
96688W        W39601  10.152  26.373  22.487 -0.4412 -0.2791 -0.0647
96689W        W39602  13.777  27.048  20.049 -0.2947 -0.1476  0.1212
96690W        W39603  24.968   4.954  26.496  0.0228 -0.2516 -0.1514
96691W        W39604  20.617  29.056  23.425 -0.2706  0.4034 -0.3335
96692W        W39605  19.108  23.114  15.667  0.0525 -0.2236  0.3504
96693W        W39606  22.645   5.907  17.748  0.0193 -0.0174 -0.0106
96694W        W39607  16.825  31.081  22.960 -0.0499 -0.0025  0.0992
96695W        W39608  20.833  30.395   2.663 -0.0807 -0.2184 -0.2154
96696W        W39609  18.452  32.092  24.367  0.4934 -0.0551 -0.2537
96697W        W39610  18.975   4.598  28.468 -0.1685 -0.0605 -0.1195
96698W        W39611  12.384  27.190  26.430 -0.1643  0.1560  0.2103
96699W        W39612  30.258  24.283   6.113  0.0151 -0.3373 -0.1113
96700W        W39613  18.860  28.579  25.829  0.1138  0.2406 -0.0662
96701W        W39614  29.242  33.990  27.040 -0.2151 -0.5199 -0.1059
96702W        W39615  30.958  21.192  21.148  0.3735 -0.2506 -0.0179
96703W        W39616  29.873  28.843  16.191  0.0557 -0.0009 -0.0033
96704W        W39617  21.717  29.714  22.998 -0.0072  0.0487 -0.0159
96705W        W39618  20.716  26.430   1.389  0.2001 -0.1196  0.3744
96706W        W39619  25.015   7.389   4.938 -0.1403 -0.2454  0.2097
96707W        W39620  20.938  27.644  16.398 -0.0283  0.2471  0.2334
96708W        W39621  23.410  30.031   1.140 -0.2323 -0.2712  0.1059
96709W        W39622  24.416  30.428  22.023  0.0931  0.1954  0.1424
96710W        W39623  17.739  30.496  23.433  0.2585  0.2190  0.2216
96711W        W39624  22.645  33.555  19.274 -0.2700 -0.1434 -0.0616
96712W        W39625  26.729   1.266  25.865  0.0548  0.0288  0.0173
96713W        W39626   8.925  22.726  22.456  0.0664 -0.3091 -0.0964
96714W        W39627   9.397   7.010  20.591  0.1693  0.2512  0.1657
96715W        W39628  25.853   3.183  14.593  0.1417  0.0638 -0.1904
96716W        W39629  15.915  31.415  26.099  0.1693 -0.2570  0.0006
96717W        W39630  18.433  28.577   8.165  0.2037  0.1115  0.1424
96718W        W39631  11.276  26.286   2.076  0.1048  0.1296  0.0903
96719W        W39632  11.927  25.526  27.905 -0.1077 -0.1401  0.0833
96720W        W39633  28.887  25.926  25.769  0.1275  0.0488 -0.0503
96721W        W39634  15.969  34.177  21.725  0.3281 -0.1554 -0.0779
96722W        W39635  20.418  21.748  27.043 -0.3214  0.1433 -0.0278
96723W        W39636   5.680  31.712  29.526  0.0718  0.0931  0.2000
96724W        W39637  12.711  27.094  19.486  0.0004  0.0311 -0.4117
96725W        W39638  19.154  28.390  19.003  0.1683  0.1331  0.0655
96726W        W39639   6.698   0.800  19.352  0.2116 -0.3016 -0.1989
96727W        W39640  19.830   4.539  16.462  0.2670 -0.0275  0.2722
96728W        W39641  23.709   0.934   1.280  0.1777  0.0183 -0.0608
96729W        W39642  14.674  30.148  26.095 -0.0061  0.5727 -0.3986
96730W        W39643  20.362  11.870  21.818  0.0138  0.2207 -0.2011
96731W        W39644  18.614  33.563   7.811  0.3804  0.0277  0.1552
96732W        W39645  25.494   7.315  19.345  0.1198  0.0985 -0.1723
96733W        W39646  28.659  31.126  14.439  0.1168  0.0194  0.1448
96734W        W39647  19.192  30.243   6.595 -0.1042 -0.1400 -0.1240
96735W        W39648  11.691   3.987  27.700 -0.3893 -0.0487  0.1383
96736W        W39649  30.522  24.284  26.627 -0.1860  0.0972 -0.0800
96737W        W39650   2.023   0.241  23.913  0.0551 -0.0500  0.2381
96738W        W39651  15.123  22.732  26.206  0.1164 -0.1380 -0.1590
96739W        W39652  22.906   3.020  24.741 -0.0663  0.1198 -0.1425
96740W        W39653  29.859  32.241  27.893  0.0144  0.3691 -0.0897
96741W        W39654  17.232  32.733  28.532 -0.2169  0.0271 -0.1438
96742W        W39655  23.099  25.108  23.591  0.0783 -0.3226 -0.0577
96743W        W39656  16.873  25.484  18.445 -0.1088 -0.0684  0.3675
96744W        W39657  17.476  23.214  21.382 -0.1837  0.2322  0.0641
96745W        W39658  23.539   0.950   3.339  0.0744  0.0323 -0.2281
96746W        W39659  22.218  19.570   1.118 -0.1736  0.1082 -0.1631
96747W        W39660   7.971  29.421  24.125 -0.2265  0.1663  0.3579
96748W        W39661  20.972  25.585  15.514 -0.0197 -0.2329 -0.3353
96749W        W39662  22.356  26.972  17.737  0.1416 -0.2504 -0.0163
96750W        W39663  24.843  32.594  16.231  0.0223 -0.1077  0.2582
96751W        W39664  28.803  24.191  17.705  0.1258  0.2202 -0.0007
96752W        W39665  19.155  24.805   4.121  0.0170  0.1842 -0.2012
96753W        W39666  18.288  24.081  23.622 -0.3378 -0.4035  0.2176
96754W        W39667  23.171  32.001  27.254  0.4670 -0.0810 -0.0603
96755W        W39668   5.059  27.134  14.530  0.1022 -0.2259 -0.3463
96756W        W39669  20.507  30.035  20.791 -0.0289 -0.1238 -0.0008
96757W        W39670  22.796  20.165  29.277 -0.2452  0.1364 -0.2643
96758W        W39671  17.615  23.330  26.606  0.0074 -0.2033 -0.0636
96759W        W39672  17.825  33.923   5.304 -0.0467  0.0442 -0.2145
96760W        W39673  20.373  30.073  21.588 -0.6223  0.2025 -0.0626
96761W        W39674   9.362  30.786  24.219  0.2252  0.2946  0.0076
96762W        W39675  20.006  13.360  15.709 -0.0400  0.1525 -0.2315
96763W        W39676  20.033  32.184  28.837  0.0676 -0.2595  0.4866
96764W        W39677  32.852  29.392  14.915  0.1236 -0.0223  0.1137
96765W        W39678   9.929  28.700  24.866 -0.2062 -0.0353  0.0295
96766W        W39679  26.436  32.657  23.859  0.1533  0.0067 -0.0482
96767W        W39680  31.632  31.096  14.870  0.1642  0.2165 -0.0948
96768W        W39681  16.073  33.045  25.207 -0.2872  0.0237  0.0373
96769W        W39682  26.864  31.929  22.748  0.2285 -0.0423 -0.0729
96770W        W39683  12.311  32.097  26.176  0.2660  0.1354  0.1182
96771W        W39684  33.604  30.107  29.139  0.1189 -0.0976 -0.1296
96772W        W39685  18.175  33.254  22.454  0.3189 -0.0413 -0.3281
96773W        W39686  27.257   5.598  29.357 -0.0982  0.2077  0.1801
96774W        W39687  24.968  21.694  15.183  0.0534 -0.0365  0.2496
96775W        W39688  20.629  23.239  22.743 -0.0430  0.1607 -0.0908
96776W        W39689  24.611  26.916  16.787  0.0721  0.4607 -0.0442
96777W        W39690  19.683   5.774  18.096  0.1539  0.0770  0.1392
96778W        W39691  15.357  31.874  27.664 -0.0266  0.2278 -0.0929
96779W        W39692  33.001  24.473  18.988 -0.1604  0.1972 -0.2185
96780W        W39693  20.877  21.125  29.533  0.4675  0.2291  0.2822
96781W        W39694  12.588  26.406  23.928  0.1921  0.2802  0.1621
96782W        W39695  20.671  28.431  24.970  0.0563  0.3431  0.4182
96783W        W39696  26.029  11.103  23.120  0.0614  0.1266  0.1288
96784W        W39697  16.491  26.709  19.684 -0.0965 -0.2022 -0.2442
96785W        W39698  22.466   7.419  22.796 -0.1846  0.1270 -0.0491
96786W        W39699  22.005  12.562  16.064 -0.4116 -0.1375 -0.0343
96787W        W39700  12.107  31.638  25.939 -0.1459 -0.2298  0.3326
96788W        W39701   8.691  30.993  24.015 -0.0616 -0.0593  0.1904
96789W        W39702  17.848   3.390  21.389 -0.0249  0.2204 -0.1477
96790W        W39703  13.885   5.545  28.787 -0.0646  0.1604  0.0880
96791W        W39704  14.338  19.342  25.326  0.2009  0.1944 -0.1800
96792W        W39705  21.348   4.409  26.959  0.1050  0.3669 -0.1247
96793W        W39706  25.512  33.230  23.761 -0.2786  0.1369 -0.0369
96794W        W39707  32.089  11.520  24.254  0.0878  0.2167  0.3159
96795W        W39708  16.552  26.758  20.643  0.0763 -0.3787 -0.3606
96796W        W39709  17.150  33.121  22.748 -0.0533  0.1392  0.0942
96797W        W39710  19.577  27.686   0.871  0.1803  0.5592 -0.1319
96798W        W39711  28.830  28.831  25.185 -0.3441 -0.2109  0.2183
96799W        W39712   4.835  27.238   1.732  0.0273 -0.0018 -0.0861
96800W        W39713  30.757  23.393  20.703  0.0456 -0.2065 -0.2392
96801W        W39714  17.780  31.420  22.026  0.0317 -0.3033 -0.4024
96802W        W39715  30.172  26.022  15.898  0.2284  0.2169 -0.0635
96803W        W39716  16.109  31.490  16.818 -0.0454  0.2112 -0.0962
96804W        W39717  10.068  18.625  27.261 -0.1039  0.0770  0.1087
96805W        W39718  21.195  23.432  24.340  0.2948  0.2953  0.0821
96806W        W39719   5.478  31.971  22.893 -0.1799  0.1146 -0.0538
96807W        W39720  21.095   2.630  27.629 -0.3002 -0.0373  0.0360
96808W        W39721  24.791  24.063  28.199  0.2771  0.3051 -0.4027
96809W        W39722  14.047  30.254  18.180 -0.0723 -0.1433 -0.3905
96810W        W39723  21.359  30.935  25.846  0.1416 -0.0972  0.2923
96811W        W39724  12.985   6.371   1.427  0.1424  0.2160  0.1625
96812W        W39725  27.075   2.246  26.063 -0.1997 -0.1337  0.2698
96813W        W39726  10.682   1.861  22.795 -0.0801 -0.1353 -0.1451
96814W        W39727  17.266   2.585  25.666 -0.0712  0.1440  0.1910
96815W        W39728  24.592  29.277  24.700  0.0072 -0.1155 -0.0473
96816W        W39729  16.127  23.617  13.099 -0.0056 -0.0255 -0.1141
96817W        W39730  11.745   3.010  27.036 -0.2024 -0.0752  0.0197
96818W        W39731   4.642  25.361   2.469 -0.4101 -0.2720  0.0756
96819W        W39732  30.822  26.982  28.808 -0.0681  0.2574 -0.1755
96820W        W39733  16.906   1.913  15.298 -0.1991 -0.0337 -0.0833
96821W        W39734  15.986   5.303  16.812 -0.0556  0.0791 -0.2135
96822W        W39735  15.780   3.885   0.414  0.4178  0.1142 -0.1112
96823W        W39736  28.862  32.208  21.583 -0.0222  0.0780  0.1153
96824W        W39737  11.764  25.197  24.345  0.0247  0.1944  0.0923
96825W        W39738  25.381  17.350  14.863 -0.0366  0.3562 -0.1267
96826W        W39739  12.740   1.312  19.446 -0.0515 -0.1123  0.0616
96827W        W39740  20.314  28.590  14.286 -0.0015 -0.2651  0.0898
96828W        W39741  13.225  31.085  16.485  0.0674  0.4763 -0.2445
96829W        W39742  15.276  34.161   1.874  0.0599  0.1240  0.4378
96830W        W39743  19.361  31.237  29.704  0.0692  0.0178 -0.0165
96831W        W39744  23.314  31.136  18.262 -0.1386  0.1662 -0.0580
96832W        W39745  10.159  28.724  18.294  0.0068 -0.2318 -0.1802
96833W        W39746  18.536  32.495  16.626  0.0542  0.2760 -0.0264
96834W        W39747  33.074  29.753  19.371  0.0237  0.0613  0.0057
96835W        W39748  21.204  24.096  18.136  0.0409 -0.2610  0.1368
96836W        W39749  16.767  18.094  13.193 -0.0539 -0.2630  0.4625
96837W        W39750  22.726  29.653  18.440 -0.2376 -0.1030 -0.0842
96838W        W39751  21.108   2.183  24.032  0.0993 -0.2325  0.0529
96839W        W39752  16.610   0.427  24.026 -0.2264 -0.2885  0.1081
96840W        W39753  13.585   0.751  25.488 -0.0503  0.0244 -0.1456
96841W        W39754  24.716  33.062  27.091  0.2146  0.0970  0.2249
96842W        W39755  33.146   5.758  23.985  0.0494  0.0881  0.2987
96843W        W39756  16.168   1.141  20.473  0.1544  0.0990 -0.2230
96844W        W39757  28.079  22.551  13.866  0.1480  0.0154  0.3506
96845W        W39758  15.290  25.635  28.355  0.2037 -0.4012  0.1204
96846W        W39759  23.832  27.543   0.785 -0.0353 -0.0922 -0.2928
96847W        W39760  15.734  26.143  16.009 -0.1384  0.1145 -0.1189
96848W        W39761  26.859  25.588  21.650 -0.2402  0.3010 -0.0906
96849W        W39762  23.756   0.307   0.351  0.2654  0.0173  0.1438
96850W        W39763  16.774  30.104  26.370  0.3881  0.0665  0.0498
96851W        W39764  23.767  18.470  21.282 -0.0064 -0.0480  0.3122
96852W        W39765  17.789  30.202   5.759  0.0218  0.1363 -0.2193
96853W        W39766  22.880   3.702   2.811  0.3976 -0.2071  0.1811
96854W        W39767  23.926  23.077   1.432 -0.0689  0.0767 -0.0901
96855W        W39768  16.375  32.329   1.621 -0.1055  0.0061 -0.0622
96856W        W39769  24.043   3.932  22.901 -0.1364  0.1552 -0.0277
96857W        W39770  16.811  11.586   4.197 -0.1349  0.0585  0.1696
96858W        W39771  21.363  23.961  15.663  0.3803  0.0807  0.0964
96859W        W39772  16.567  31.042  15.941  0.2042 -0.0961  0.2284
96860W        W39773   9.888  30.856  22.910  0.1062 -0.0987 -0.1634
96861W        W39774  24.175  22.298  25.350 -0.0297  0.0005  0.0450
96862W        W39775  25.317   0.120  21.710 -0.2976  0.0680  0.0137
96863W        W39776  26.289  31.966  25.181  0.2797 -0.1122  0.2186
96864W        W39777  27.113  24.227  14.696 -0.2115 -0.0296  0.1684
96865W        W39778  24.443  23.736  29.177 -0.0512 -0.2629  0.2570
96866W        W39779  24.004  29.759  20.569 -0.0346  0.2234 -0.2713
96867W        W39780  18.339  22.617   0.534 -0.3522 -0.0117  0.1733
96868W        W39781  20.333  28.530  24.596 -0.0571  0.3501  0.0527
96869W        W39782   9.972  20.170  18.987 -0.1031  0.0354 -0.0926
96870W        W39783  19.358   1.395  18.486  0.0449 -0.1920  0.0445
96871W        W39784  12.286  31.347  22.701  0.0520  0.0909 -0.2531
96872W        W39785  23.281  30.864   0.215 -0.1095  0.0812  0.0133
96873W        W39786  17.504   3.588  24.080 -0.2379 -0.0752  0.0034
96874W        W39787  24.044   0.852  25.957  0.0495  0.0697  0.0136
96875W        W39788  20.287  32.322  22.927 -0.1749  0.1202  0.2549
96876W        W39789  24.469  27.024  17.981  0.2637 -0.1498 -0.0882
96877W        W39790  10.541   4.020   3.667 -0.0346 -0.3254 -0.3298
96878W        W39791  20.957   0.127  15.817  0.2215 -0.3008  0.2090
96879W        W39792  15.937   1.852  19.608  0.4376 -0.1582  0.1311
96880W        W39793  20.527  30.216  26.110  0.0180  0.0670 -0.0758
96881W        W39794  14.545   6.400  24.289 -0.1781 -0.0932  0.0662
96882W        W39795  11.091   3.940  18.165 -0.0055 -0.0633 -0.2402
96883W        W39796  21.590  22.604  24.784  0.2324 -0.0545  0.1541
96884W        W39797  30.695  30.757  21.891  0.1131 -0.2378  0.1607
96885W        W39798  25.180  28.496  17.948 -0.1543 -0.1000  0.2408
96886W        W39799  27.471  21.053  19.879 -0.0023  0.0835  0.1352
96887W        W39800   9.347   9.970  18.444 -0.4186 -0.0342  0.1892
96888W        W39801  16.355  29.799  25.607 -0.1363 -0.1003 -0.0999
96889W        W39802   1.178  29.616  25.445 -0.0275  0.3020 -0.3176
96890W        W39803  19.350  23.417  27.893 -0.1656 -0.1696 -0.1136
96891W        W39804  17.875   0.625  27.537  0.3523 -0.3777 -0.1162
96892W        W39805  20.557  28.574  29.119 -0.3348  0.2304  0.0326
96893W        W39806  22.579  27.928  16.669  0.0205 -0.2714 -0.0898
96894W        W39807  22.444  24.222  19.343 -0.1242  0.2664  0.0983
96895W        W39808  24.716   6.047  28.630 -0.2260 -0.0144 -0.2834
96896W        W39809   9.035   7.551  16.693  0.2147 -0.2597  0.0040
96897W        W39810  26.159  16.129  17.942  0.2011  0.1403 -0.0006
96898W        W39811  33.045   2.430  23.563  0.1588 -0.2268  0.1193
96899W        W39812  22.076   6.422  28.496  0.1815  0.1415  0.0649
96900W        W39813  24.411  30.794  16.474  0.0791 -0.3463  0.4439
96901W        W39814  23.945   1.679  15.564  0.0547  0.2872 -0.1043
96902W        W39815  30.422   1.305  26.778 -0.2522 -0.3038 -0.0483
96903W        W39816  25.021  30.790  24.665 -0.0529  0.3535 -0.2122
96904W        W39817  25.689  18.547  22.107  0.1633 -0.2245 -0.5062
96905W        W39818  13.667  16.031  15.022  0.0721 -0.0127 -0.0381
96906W        W39819  25.974  26.663  26.118 -0.3090  0.1279 -0.1866
96907W        W39820  23.526  22.972  23.104 -0.0448 -0.0100 -0.0563
96908W        W39821  13.426   3.684  16.236 -0.3880  0.1753  0.3208
96909W        W39822  23.790  22.350  22.287  0.2380 -0.2889  0.1108
96910W        W39823  23.380   1.668   5.769  0.2469 -0.2505  0.0441
96911W        W39824  23.277  31.407  20.561 -0.0333  0.1399 -0.0345
96912W        W39825  28.149  24.824  23.079 -0.2913  0.4663  0.0992
96913W        W39826  22.205   3.912  27.718  0.0232  0.0017  0.2901
96914W        W39827  23.307  24.597  16.638  0.1059 -0.0307  0.4620
96915W        W39828  22.099  28.122  28.411 -0.1127 -0.1047 -0.4499
96916W        W39829  23.225   3.457  21.187 -0.0222 -0.0847  0.1663
96917W        W39830  14.591  22.535  17.540  0.1254 -0.0032 -0.2755
96918W        W39831   7.256   1.555  21.166  0.1094 -0.0534  0.1683
96919W        W39832  14.813  29.050   2.299  0.1666 -0.1647 -0.4138
96920W        W39833  21.711  22.946  16.705  0.4253  0.1779  0.2271
96921W        W39834  20.121  23.646  12.918  0.0863 -0.0932  0.1107
96922W        W39835  15.945   0.295  24.723  0.0572 -0.0691 -0.2307
96923W        W39836  30.431  31.702  21.907  0.1103  0.0562 -0.0630
96924W        W39837  16.328  25.109  15.096 -0.3426 -0.2482  0.1037
96925W        W39838  24.203   8.349  26.482  0.0778 -0.0307  0.0347
96926W        W39839  11.014  26.235  23.878 -0.1030  0.0275  0.0257
96927W        W39840  11.506  27.579  23.880 -0.1705  0.1907 -0.2416
96928W        W39841  22.849   1.814  21.191  0.1116 -0.0716  0.2129
96929W        W39842  12.698  25.494  23.023  0.2606  0.0321 -0.1935
96930W        W39843  26.902  31.213  15.770  0.1544 -0.1237 -0.0335
96931W        W39844  26.312  19.700  21.134 -0.1602  0.0442  0.0610
96932W        W39845  14.506  22.064  22.917 -0.1239 -0.2181 -0.1056
96933W        W39846  16.741   3.174  25.841  0.1105 -0.0395  0.0951
96934W        W39847  24.418  31.344  25.757  0.0701  0.1980  0.1582
96935W        W39848  10.809   0.824  26.954 -0.2166  0.2862 -0.3064
96936W        W39849  22.437  18.087  17.677 -0.0017 -0.0782  0.1524
96937W        W39850  25.902   1.930  16.181  0.4321 -0.0589  0.0712
96938W        W39851  34.137   3.978  17.718  0.2434  0.0591  0.2911
96939W        W39852  23.255  30.797  14.814  0.0054  0.2056 -0.1950
96940W        W39853   9.890  30.549   1.175 -0.0935  0.0272  0.2385
96941W        W39854  19.644   3.233  24.032  0.1040 -0.0460 -0.1220
96942W        W39855  33.252  33.142  26.910  0.0285  0.4156  0.2228
96943W        W39856  14.115   4.821  29.470  0.0063  0.3392 -0.1183
96944W        W39857  21.992  19.003  17.997 -0.1120  0.2480 -0.1564
96945W        W39858  16.157  32.853  22.555  0.1984  0.0370 -0.3549
96946W        W39859  15.106   3.745  23.999  0.2534  0.4018 -0.0682
96947W        W39860  19.148  32.595  21.143 -0.0663  0.0395 -0.0561
96948W        W39861  16.845   0.729  22.093  0.0321  0.0193  0.2133
96949W        W39862  13.541  28.950  20.583 -0.3117  0.5046  0.4260
96950W        W39863  12.253  25.685  25.074 -0.1754 -0.0327 -0.0366
96951W        W39864  27.155  34.246   2.319 -0.3775  0.1974  0.0009
96952W        W39865  31.067  29.921  23.991 -0.2886 -0.0655  0.3259
96953W        W39866  21.866  24.490  17.683 -0.2121  0.2210 -0.0566
96954W        W39867  20.859  25.909  28.694 -0.2657 -0.0687  0.2276
96955W        W39868  18.019  29.914  22.160  0.1276 -0.1426 -0.2985
96956W        W39869  14.797  30.574  23.836 -0.0213  0.1748  0.1197
96957W        W39870  21.677  23.309  21.204 -0.0529  0.7009 -0.1796
96958W        W39871  14.471  29.340   7.762 -0.0006  0.1609 -0.1397
96959W        W39872  26.517   2.296  17.995  0.2017  0.2042 -0.1622
96960W        W39873  28.228   7.391   0.822 -0.0130 -0.1126  0.1509
96961W        W39874  29.707  28.437  21.153  0.0012 -0.0331  0.0241
96962W        W39875  29.489  32.717  15.924 -0.0487 -0.0606  0.0126
96963W        W39876  27.556  22.530   8.773  0.1056  0.2291 -0.0554
96964W        W39877  26.005   7.851  21.831 -0.0210  0.3597  0.0575
96965W        W39878  22.756   4.962  13.725 -0.5869  0.1851  0.0571
96966W        W39879   4.527  25.644  26.750  0.0696  0.0963 -0.1505
96967W        W39880  19.572  32.679  16.238  0.2164 -0.1857 -0.2578
96968W        W39881  24.146  33.815  24.020  0.1302  0.1416 -0.4679
96969W        W39882  15.697  29.114  16.200 -0.0203 -0.4520 -0.0752
96970W        W39883  14.762  31.990  24.182  0.2332  0.1748  0.0200
96971W        W39884   5.595   5.684  23.457  0.0040  0.1191  0.0118
96972W        W39885  23.765  18.295  16.579  0.2681 -0.1475  0.0461
96973W        W39886  26.782  18.334  24.978 -0.1175  0.0223 -0.0802
96974W        W39887  29.430   1.953  15.930 -0.0945  0.2584 -0.0116
96975W        W39888  26.809  27.482  17.776 -0.2044  0.0139  0.1415
96976W        W39889  13.763  31.580  27.923 -0.2928  0.1517 -0.0223
96977W        W39890  24.672  27.095  26.189 -0.0690 -0.2361 -0.2689
96978W        W39891  26.617  33.587  26.810  0.2537  0.2307  0.0149
96979W        W39892  23.521   3.284  21.526 -0.2160  0.2626 -0.1739
96980W        W39893  16.510  29.898  28.790 -0.0706  0.2000  0.1881
96981W        W39894  28.243  23.124  23.258  0.2277 -0.0725 -0.0262
96982W        W39895  26.484  24.415  24.515  0.2269 -0.0070  0.5308
96983W        W39896  27.997  15.358  28.043 -0.0993  0.0984 -0.1390
96984W        W39897  17.773  27.800  17.966 -0.0964 -0.0599 -0.0896
96985W        W39898  15.545  23.184  21.000  0.1572 -0.2006  0.2033
96986W        W39899  22.942  16.251  16.836  0.0669  0.0616  0.0727
96987W        W39900  22.447  29.975  17.255 -0.1887  0.0411 -0.0282
96988W        W39901   8.815   4.194  17.541 -0.0494 -0.0867 -0.0187
96989W        W39902  31.556  28.060   1.651  0.0359 -0.0079 -0.2680
96990W        W39903  17.579  26.988   0.379 -0.1141 -0.1098 -0.3120
96991W        W39904  24.032  32.487  18.154  0.1754 -0.0691 -0.0258
96992W        W39905  21.827  22.737  27.321 -0.1352  0.0411 -0.3661
96993W        W39906  16.265  27.868  29.410  0.2262  0.0824 -0.2605
96994W        W39907  13.738  23.534   4.508  0.1096 -0.0084  0.0409
96995W        W39908  25.590  33.200  23.276  0.1271  0.0929 -0.2832
96996W        W39909  24.686   2.071  20.742 -0.2823  0.1966  0.0392
96997W        W39910  30.886   9.316  29.578 -0.2385 -0.2118  0.0649
96998W        W39911  22.813  33.337  23.562  0.0194 -0.0129 -0.0521
96999W        W39912  13.509   2.546  18.336  0.0286 -0.2848  0.1821
97000W        W39913  18.157  31.640  15.203  0.2176  0.1907 -0.2302
97001W        W39914  22.356  25.715  23.383 -0.0701 -0.1761 -0.0242
97002W        W39915  15.563  29.814  23.090 -0.0676  0.2215  0.2091
97003W        W39916  27.491   7.192   3.522 -0.1165  0.0163 -0.2803
97004W        W39917  21.254  34.277  27.353 -0.3066 -0.2356  0.3887
97005W        W39918  19.020  30.330  19.204 -0.2263  0.0290  0.1028
97006W        W39919  14.965  27.753  25.203 -0.2759 -0.0554 -0.2376
97007W        W39920  16.990  27.645  23.939  0.1653  0.3027  0.1315
97008W        W39921  20.387  32.123  26.937 -0.0683  0.0601 -0.0056
97009W        W39922  29.929  30.344   3.072 -0.0027 -0.1534  0.0454
97010W        W39923  25.266  23.523  24.233  0.1252 -0.0939 -0.2240
97011W        W39924  30.657   3.149  17.893 -0.4880 -0.1902 -0.2661
97012W        W39925  10.891  32.292  19.139  0.2120  0.1060  0.0829
97013W        W39926  33.540   7.704  23.792 -0.1204  0.2015  0.1679
97014W        W39927  12.653  21.141  24.325  0.0645 -0.3891 -0.0849
97015W        W39928  26.329  31.833  15.097 -0.1058  0.2698  0.0225
97016W        W39929  13.677  19.768  23.227 -0.1316 -0.0012  0.2420
97017W        W39930  24.024  31.361  22.365 -0.3463  0.0043  0.3062
97018W        W39931  26.081  34.399  22.419  0.0797 -0.1448 -0.0731
97019W        W39932  17.797  25.952  20.930 -0.1182  0.0610 -0.3862
97020W        W39933  23.285  31.362  14.229  0.2278  0.0944 -0.0234
97021W        W39934  24.327   0.831  17.710 -0.0173 -0.1515  0.0149
97022W        W39935  15.818  27.343  18.753 -0.0163 -0.0157 -0.2773
97023W        W39936  25.123  20.680  28.143  0.1741  0.2282  0.0089
97024W        W39937  10.344  34.289   1.804 -0.1232 -0.3820 -0.1455
97025W        W39938  15.229   1.835   0.335  0.1139  0.2011 -0.0746
97026W        W39939  14.686  28.107  25.432 -0.2250  0.2968 -0.3713
97027W        W39940  17.311  19.518  26.339 -0.1606 -0.5486 -0.0184
97028W        W39941  12.274  33.384  28.045  0.1006 -0.2150 -0.1338
97029W        W39942  27.416  24.616  28.567  0.1655 -0.0532  0.2231
97030W        W39943  19.485  28.011  29.468 -0.0056  0.1393 -0.1612
97031W        W39944  16.027  24.682  17.179 -0.1833  0.0247  0.0505
97032W        W39945  29.121  28.902  22.447 -0.0050  0.1137  0.1775
97033W        W39946  21.282  23.339  23.029  0.2555 -0.3295 -0.3356
97034W        W39947  14.833  21.366  16.124  0.0536 -0.0045 -0.3990
97035W        W39948  16.684   2.079  22.776 -0.2940 -0.0415 -0.0487
97036W        W39949  18.282  25.572  17.456 -0.2335 -0.4808 -0.1230
97037W        W39950   7.928   1.034  27.667  0.2087 -0.2820 -0.0627
97038W        W39951   9.923  31.348  17.021 -0.0416  0.0539  0.0626
97039W        W39952   1.442  18.735  25.160 -0.3466 -0.0949 -0.0411
97040W        W39953  15.683   1.057  24.978  0.2726 -0.0751  0.1280
97041W        W39954  22.817  27.786  24.248 -0.1760  0.0002 -0.2347
97042W        W39955  29.593   1.115  21.836  0.0722  0.0750 -0.2594
97043W        W39956  29.518  16.425  23.407  0.0511 -0.1168  0.1527
97044W        W39957  20.636   1.693  25.040 -0.0594  0.2700 -0.0308
97045W        W39958  15.057  34.079  21.604  0.0458  0.1121 -0.0130
97046W        W39959  24.241   5.417  20.172 -0.1334 -0.0639 -0.3653
97047W        W39960  25.811  33.134  13.718  0.0828 -0.0044  0.4226
97048W        W39961  23.089   1.535  26.588 -0.0374  0.1257 -0.0504
97049W        W39962  21.381  26.164  17.637  0.1329  0.2362 -0.2979
97050W        W39963  20.140  26.105  21.054  0.3579 -0.2049  0.0653
97051W        W39964  25.021  21.652  18.265  0.3914 -0.0212  0.2220
97052W        W39965  24.663  19.185   2.278  0.0892 -0.2685  0.1128
97053W        W39966  25.052  22.005  17.101 -0.0222  0.1801  0.0064
97054W        W39967  21.731  27.974  28.056 -0.2243  0.0525 -0.0685
97055W        W39968  32.492  25.315  18.349  0.0806 -0.0995 -0.1027
97056W        W39969  20.762   2.748  18.789 -0.0082 -0.1884  0.1356
97057W        W39970  18.950  31.366  28.485  0.2270 -0.0488 -0.1864
97058W        W39971  13.490  20.662   3.567 -0.3514 -0.4216 -0.2655
97059W        W39972  19.865   3.227  27.181  0.0177  0.0151 -0.0968
97060W        W39973  17.363  22.170  28.490 -0.2468 -0.3176 -0.1275
97061W        W39974  21.073   9.988  26.582 -0.2128 -0.1238 -0.5203
97062W        W39975  23.924  20.590  18.332  0.3006  0.1246  0.5413
97063W        W39976  18.539  33.743  15.984  0.1310  0.1452  0.2145
97064W        W39977  28.787  31.123  24.460  0.0444  0.4346 -0.3776
97065W        W39978  23.014  27.939  27.314  0.0772 -0.2856 -0.1863
97066W        W39979  26.016  30.596  17.265 -0.2916 -0.4565  0.0059
97067W        W39980  14.935  30.102   2.082  0.0712 -0.0090  0.4269
97068W        W39981   0.695   6.236  21.713  0.3790  0.3034 -0.0651
97069W        W39982  26.331  30.788  21.908  0.0850  0.3078 -0.0462
97070W        W39983  22.607  24.890  20.035  0.4249 -0.2108  0.1034
97071W        W39984  19.951  30.287  23.873  0.0783  0.2327 -0.0041
97072W        W39985  13.639  29.772   0.652 -0.3111  0.0710 -0.1601
97073W        W39986  14.019  10.551  23.260 -0.0242 -0.0814 -0.3998
97074W        W39987  21.118  25.194  26.661  0.2821 -0.1986  0.2103
97075W        W39988  26.863  33.737  24.584  0.1740  0.0553 -0.3198
97076W        W39989  21.792  16.652  13.749  0.1706  0.2822  0.1020
97077W        W39990  27.779   4.584   7.823 -0.1723 -0.1135  0.2837
97078W        W39991  10.978   3.544  16.467  0.0406 -0.3042 -0.1000
97079W        W39992  25.189  23.389  28.602  0.0132  0.1968 -0.0306
97080W        W39993  15.937  30.116  17.722  0.0248  0.0789 -0.3545
97081W        W39994  17.267  31.180   0.852  0.1197 -0.0440 -0.0795
97082W        W39995  24.374  24.811  27.896 -0.0212  0.1784 -0.1798
97083W        W39996  20.202   0.137  16.594  0.0789  0.0570 -0.7348
97084W        W39997  20.141  22.374  21.265 -0.1535 -0.3388 -0.1992
97085W        W39998   8.140  26.964  28.209  0.1446 -0.3251  0.2689
97086W        W39999  25.031  21.623  26.897  0.0508  0.3540  0.0057
97087W        W40000  14.445  29.702  25.775  0.2559  0.0938 -0.0512
97088W        W40001  24.393   7.598  27.080  0.3015  0.3404 -0.1477
97089W        W40002  12.246  26.351   4.428  0.1809 -0.2298  0.1548
97090W        W40003  17.146  17.839   3.701 -0.0031 -0.0110 -0.1406
97091W        W40004  24.881   0.695  15.129 -0.1362  0.1319 -0.0008
97092W        W40005  15.987  11.250  25.851 -0.0547  0.3456  0.0818
97093W        W40006  19.503   5.326  23.108  0.3580  0.0811  0.2590
97094W        W40007   7.811  20.211  17.277 -0.2607  0.2099  0.1659
97095W        W40008  14.120  22.764  29.042  0.4688 -0.2374 -0.0459
97096W        W40009  30.201  32.244  15.183  0.2054 -0.0893  0.1772
97097W        W40010   0.430   0.306   5.721  0.3593  0.1010 -0.1039
97098W        W40011  15.592  23.190  28.605 -0.0978  0.3237 -0.0733
97099W        W40012  27.714  23.599  26.849 -0.0913  0.0445  0.0766
97100W        W40013  26.090  22.986  21.036 -0.1949  0.1894  0.0374
97101W        W40014  17.224  19.368  14.039  0.0408  0.1314  0.0038
97102W        W40015  22.366  33.751  19.854  0.2573  0.2169 -0.1036
97103W        W40016  25.455  30.371  23.920  0.1729  0.0344 -0.0545
97104W        W40017  22.191   9.109   4.738 -0.0302  0.1102  0.0984
97105W        W40018  21.273   5.957   6.160  0.1385 -0.2569  0.4285
97106W        W40019  22.958  30.191  23.380  0.1764 -0.1063  0.1274
97107W        W40020  13.844  19.612  25.409 -0.1887 -0.1045  0.0915
97108W        W40021  27.711  24.423   3.131  0.1177 -0.2967  0.1175
97109W        W40022  19.737  31.647  27.300  0.1202  0.2747 -0.2252
97110W        W40023  13.626  27.944   0.276  0.1040  0.2150 -0.0267
97111W        W40024  12.403  25.822  13.783 -0.3531  0.2276 -0.0750
97112W        W40025  19.955   0.215  29.333 -0.1641  0.0614  0.0190
97113W        W40026  20.541  32.647   0.514  0.2130 -0.1123  0.1127
97114W        W40027  13.155   2.777  24.447  0.1745  0.1540 -0.2001
97115W        W40028  24.272  11.868  22.105  0.0853  0.0551 -0.0977
97116W        W40029  10.009  34.071   7.829  0.0977  0.0509  0.1646
97117W        W40030  21.155  33.493  25.987 -0.0356  0.0296 -0.1544
97118W        W40031  12.183  29.772   3.186  0.1018 -0.0685 -0.1967
97119W        W40032  24.605   0.827  29.277 -0.0150 -0.4282 -0.0099
97120W        W40033   9.726  25.927  26.712 -0.0664  0.4204 -0.0542
97121W        W40034  27.506   0.841  25.150 -0.4735  0.1855  0.5192
97122W        W40035  18.107  28.205  27.199  0.1669 -0.0186  0.1115
97123W        W40036  28.333  25.950  25.778  0.2027 -0.1059  0.3145
97124W        W40037  27.430  28.594   4.672 -0.2553  0.1508 -0.0009
97125W        W40038  14.966  30.406  29.579  0.0596  0.1758 -0.0352
97126W        W40039  20.248  28.035  21.412 -0.2036  0.2440 -0.1103
97127W        W40040  28.994   1.560  15.073  0.4264 -0.3156 -0.1147
97128W        W40041  15.197  24.723  22.742  0.5396  0.2105 -0.2536
97129W        W40042  23.348  25.526  27.860  0.1287 -0.1203 -0.0439
97130W        W40043   9.211  25.703  29.389  0.1555 -0.1913  0.4955
97131W        W40044  18.663  17.331  25.708  0.0230 -0.0957  0.0290
97132W        W40045  24.289  32.360  22.156  0.1328 -0.1695 -0.0414
97133W        W40046  25.421  29.007  21.934 -0.1978 -0.0908 -0.3170
97134W        W40047  16.799  18.822  14.898 -0.3187 -0.1142 -0.0067
97135W        W40048  21.765  31.605  19.845  0.1916 -0.0238 -0.1470
97136W        W40049  29.102  22.368  23.690 -0.1661 -0.3291  0.0178
97137W        W40050  17.737  32.626  29.160  0.1301  0.3577 -0.0841
97138W        W40051  28.461   8.716   1.425 -0.1823 -0.1661  0.2982
97139W        W40052  27.178  31.191   4.781  0.5725  0.1771  0.0392
97140W        W40053  19.698   1.479   7.713 -0.1045 -0.3107  0.0002
97141W        W40054  13.465  23.660  22.051  0.1240 -0.0269  0.0624
97142W        W40055  13.287  22.078   2.295 -0.0172  0.4092  0.5178
97143W        W40056  19.795  22.992  18.492 -0.0705 -0.1608 -0.0281
97144W        W40057  29.836  25.054   4.691 -0.0455 -0.0057 -0.1820
97145W        W40058  20.959  28.896   7.493 -0.2364 -0.2167  0.2279
97146W        W40059  27.276  26.577  25.496 -0.0075  0.2676 -0.0621
97147W        W40060  21.030  22.162   4.734  0.0417 -0.1731 -0.1499
97148W        W40061  17.493   0.339  27.609 -0.0932 -0.1482 -0.0498
97149W        W40062  10.072  22.630  24.220 -0.0118  0.4027 -0.0676
97150W        W40063  20.094  30.057   5.287  0.1341  0.1516  0.0753
97151W        W40064  28.606  27.955  24.683  0.0011 -0.1725  0.2253
97152W        W40065   8.179  28.307  19.025 -0.0754 -0.1784 -0.1262
97153W        W40066  19.702  33.213   2.895  0.2285  0.0690 -0.1922
97154W        W40067  22.957   6.171  14.983 -0.0254  0.1347  0.0341
97155W        W40068  15.532  28.013  24.508 -0.0708  0.2315 -0.0305
97156W        W40069  26.630   7.639   4.200 -0.0180  0.0038 -0.1787
97157W        W40070  22.350  25.446  27.457  0.2014 -0.0741  0.1876
97158W        W40071  26.576  32.621  22.275  0.0517 -0.2744  0.0522
97159W        W40072  21.444   0.247  21.303 -0.1674 -0.1410  0.2707
97160W        W40073  21.652  26.382  29.581 -0.1276  0.0097  0.1617
97161W        W40074  28.421  21.289  22.419  0.0350  0.0889  0.2476
97162W        W40075  16.995  18.659  29.421  0.2810  0.0474 -0.0742
97163W        W40076  19.008   0.757   3.833 -0.0943 -0.4095 -0.0526
97164W        W40077  22.412  24.010  23.941 -0.1391  0.0350  0.1207
97165W        W40078  16.808  32.425  17.024 -0.0392  0.1655 -0.2151
97166W        W40079  18.989   2.952   8.300 -0.0526  0.0395  0.0102
97167W        W40080  12.629  21.267  28.347  0.1918 -0.0835 -0.1754
97168W        W40081  25.461  27.191  18.196  0.0706  0.0682 -0.0841
97169W        W40082  22.389   2.059  24.555 -0.0575  0.0883  0.0643
97170W        W40083  17.865  24.711  24.262  0.0444 -0.2774 -0.0974
97171W        W40084  33.338  27.190  24.941  0.1696 -0.0867 -0.0393
97172W        W40085  21.756  32.315  23.170 -0.0024  0.3256 -0.0609
97173W        W40086  29.273   5.331  29.036 -0.0023 -0.2255 -0.0152
97174W        W40087  20.958  23.152   0.415  0.7511 -0.5994 -0.0211
97175W        W40088  21.068  25.347  27.991  0.0039 -0.3399  0.1942
97176W        W40089  32.488   2.390  26.805 -0.0385 -0.0022  0.0676
97177W        W40090  18.495  25.234   4.748 -0.0157  0.1618 -0.1154
97178W        W40091  15.230  25.341   3.576  0.0006  0.1885 -0.0169
97179W        W40092  23.746   5.776  17.806 -0.1028 -0.0261 -0.1069
97180W        W40093  29.294  33.137   2.381 -0.1433 -0.0805  0.0862
97181W        W40094  11.730   2.341  22.019 -0.0294  0.0145  0.0797
97182W        W40095  28.395  32.058  26.104 -0.1391  0.0382  0.1232
97183W        W40096  18.436  28.937   1.800 -0.1668 -0.2658 -0.3396
97184W        W40097  19.255  20.117  24.466  0.1427  0.2046  0.1503
97185W        W40098  21.403  26.956  21.062 -0.0750  0.2940 -0.3434
97186W        W40099   8.962   3.044  28.699  0.0553  0.2813 -0.0008
97187W        W40100   5.169  11.088   7.744 -0.3181 -0.2086  0.4137
97188W        W40101  17.871  23.596  24.869 -0.0879  0.1373  0.3604
97189W        W40102  19.209  31.577  23.662  0.0352 -0.0106  0.1286
97190W        W40103  22.518   1.131  18.751 -0.1845 -0.1032 -0.1819
97191W        W40104  13.070   6.337  29.493 -0.0483 -0.1212 -0.0724
97192W        W40105  26.271   0.315  22.173  0.4245 -0.0577  0.0577
97193W        W40106  17.506   2.872   1.207 -0.0317 -0.0346 -0.0751
97194W        W40107  13.990   0.700  26.831  0.0424  0.2014  0.1990
97195W        W40108  21.702  28.523  21.195  0.1891  0.2231  0.1933
97196W        W40109  25.554  19.013  25.253 -0.1918 -0.4954 -0.0525
97197W        W40110  18.429  23.747   5.582  0.2690 -0.0658 -0.1326
97198W        W40111  16.543  33.260   5.322  0.1835  0.0156 -0.1191
97199W        W40112  11.760   9.402  17.217  0.0832 -0.0325  0.0347
97200W        W40113  23.475  26.858  26.170  0.0135 -0.1118 -0.1418
97201W        W40114  10.897  19.734   1.817 -0.0872 -0.1255 -0.1813
97202W        W40115  24.501  28.861  25.083 -0.2547  0.0495  0.0793
97203W        W40116  17.880  27.114  24.274 -0.2162  0.1796  0.4619
97204W        W40117  16.793  33.394  21.964 -0.1815 -0.1249  0.0709
97205W        W40118  33.071  20.096  24.273 -0.1203  0.0688 -0.0423
97206W        W40119  22.841  12.191   0.799 -0.0659 -0.2044  0.0720
97207W        W40120  18.264  29.536  27.886  0.1332 -0.0317  0.1214
97208W        W40121  23.710  29.578  25.318  0.2523 -0.1290  0.5383
97209W        W40122  16.113  32.054   0.739 -0.4083  0.5351  0.1232
97210W        W40123   7.616  10.038  21.196 -0.2294  0.0199 -0.0917
97211W        W40124   8.407  28.136   2.101 -0.3409  0.0132  0.1111
97212W        W40125  21.209   1.807   5.187  0.1670  0.0482  0.1026
97213W        W40126  11.718  31.941   6.966  0.2856  0.0555  0.0104
97214W        W40127  20.993  19.498  23.687 -0.1168  0.2159 -0.0118
97215W        W40128  20.465  21.054   0.217 -0.3357 -0.1583  0.0158
97216W        W40129  21.717   3.231   3.709 -0.2225  0.0156  0.5626
97217W        W40130  17.310   1.288  26.762 -0.2064 -0.1626 -0.0779
97218W        W40131  21.253  27.336   5.338  0.1856 -0.0591 -0.0221
97219W        W40132  18.166  32.924  26.804 -0.1080  0.1075 -0.1353
97220W        W40133  24.181  16.850  16.714  0.1071 -0.1623  0.2224
97221W        W40134  33.923   0.607  28.217 -0.2964  0.0463  0.0921
97222W        W40135  25.068   2.666  14.623  0.2081  0.0801 -0.0088
97223W        W40136  28.673  28.381   3.054 -0.2206  0.2814  0.2253
97224W        W40137  19.885  19.233  23.383  0.1655  0.2135 -0.0751
97225W        W40138   8.423  30.297  23.334 -0.1865  0.1229 -0.2554
97226W        W40139  21.255  27.941  19.983  0.0296  0.0044  0.0594
97227W        W40140  25.150  25.980  22.069  0.1450 -0.0358  0.0956
97228W        W40141  20.017  21.935  16.749  0.1500 -0.1573 -0.0575
97229W        W40142   8.786  19.021  13.262  0.0707  0.0157  0.0941
97230W        W40143  22.328  20.405   5.037 -0.0337  0.0312  0.1441
97231W        W40144   7.113  20.622   3.140  0.0193  0.2227 -0.2966
97232W        W40145  24.084  32.487  26.367 -0.4227 -0.2195 -0.1530
97233W        W40146  20.893   4.407  15.965 -0.2222 -0.2405  0.2828
97234W        W40147  14.272  28.200  26.419  0.1422  0.0223  0.1137
97235W        W40148  24.178   5.162  16.236  0.1855 -0.1280  0.0287
97236W        W40149  30.760  24.491  20.243 -0.2213  0.2487  0.3013
97237W        W40150  20.538   2.566   0.097  0.2693 -0.1922 -0.0225
97238W        W40151  23.333   1.114   4.911 -0.1036  0.2754 -0.2193
97239W        W40152  16.098  25.307  17.419 -0.0607 -0.0983  0.2203
97240W        W40153  23.544   0.014   0.011 -0.1495  0.0640  0.4511
97241W        W40154  13.315   1.089   2.408  0.2587 -0.2634 -0.0631
97242W        W40155  17.616  19.022  26.854  0.2393  0.0663  0.0441
97243W        W40156  26.973  25.903  29.535  0.2888 -0.2271  0.0334
97244W        W40157  16.326  24.513  20.620  0.0796 -0.0351  0.0214
97245W        W40158  24.415  28.031  19.786  0.1211  0.2237  0.3687
97246W        W40159  15.065  25.052  26.053  0.3639 -0.2473  0.0797
97247W        W40160  27.331  33.781  27.326  0.0855  0.1754  0.1017
97248W        W40161  21.761  30.261  26.535  0.1032  0.0142 -0.1255
97249W        W40162  20.892  22.718  23.803  0.0774 -0.0518  0.0381
97250W        W40163   8.481  28.357   7.097 -0.0015 -0.0014  0.2564
97251W        W40164  13.256  26.716  23.342 -0.0730 -0.1621 -0.0229
97252W        W40165  18.612  26.923  17.146 -0.3268 -0.0973 -0.2612
97253W        W40166   8.525  33.186   2.378  0.0289  0.1009  0.2022
97254W        W40167  20.260  29.647  19.901 -0.0522  0.0438 -0.0630
97255W        W40168  11.933   3.931  23.527 -0.0825 -0.1923  0.2612
97256W        W40169  25.137  26.293  26.975 -0.0612  0.0184  0.2789
97257W        W40170  21.693  14.603  14.691 -0.0146 -0.1374  0.1249
97258W        W40171  23.657  31.327  16.342  0.0801 -0.1108 -0.0130
97259W        W40172  16.864  29.911  24.600 -0.2025 -0.0315  0.0975
97260W        W40173  20.197  28.465  26.351 -0.1874  0.0032 -0.1589
97261W        W40174  18.109   4.587  16.238  0.4953  0.1186 -0.1898
97262W        W40175  29.476  28.896  20.137 -0.0936  0.0032  0.3166
97263W        W40176  15.159  26.454   0.568 -0.1027  0.2671 -0.2811
97264W        W40177  26.778  27.802   5.793 -0.1215 -0.2206 -0.1309
97265W        W40178  10.423  33.902   1.358 -0.2002  0.0409 -0.0738
97266W        W40179  15.557  19.954  25.671  0.0975  0.3620  0.5204
97267W        W40180  12.074   0.706   0.889  0.0177 -0.0725 -0.1894
97268W        W40181   5.093  25.020   7.655  0.0478  0.0486 -0.1042
97269W        W40182  22.153  34.302   1.588 -0.0357  0.2272 -0.1217
97270W        W40183  16.796  34.155   0.474  0.1877  0.0833 -0.3701
97271W        W40184  18.959  23.282  16.787  0.3773 -0.1902  0.2615
97272W        W40185  13.800  23.112  29.296 -0.2380 -0.0290 -0.1082
97273W        W40186  23.154  33.567   0.553  0.0955 -0.0171  0.1129
97274W        W40187   4.722  27.155  25.742 -0.1531 -0.1287 -0.1104
97275W        W40188  27.559   8.663  14.552 -0.1499  0.2632  0.0983
97276W        W40189  22.328   1.959  24.032 -0.0485 -0.1282 -0.0143
97277W        W40190  20.992  25.981  24.864 -0.1928  0.0005 -0.1366
97278W        W40191  29.156   2.667   7.039  0.1941 -0.0642 -0.0453
97279W        W40192   8.741  31.407  21.218  0.0140 -0.2255  0.0307
97280W        W40193  25.495  29.473  23.507  0.0347 -0.0443  0.0743
97281W        W40194  17.191  20.509   2.811  0.0361 -0.0034  0.1503
97282W        W40195  20.411  20.258  20.260 -0.1612 -0.2273 -0.0723
97283W        W40196  19.722   2.089  24.213 -0.4002  0.3030 -0.0328
97284W        W40197  24.976   3.641  20.007  0.2046  0.1342  0.1120
97285W        W40198  34.354  12.643   7.610  0.2042 -0.0127 -0.1405
97286W        W40199   5.232  27.415  18.144 -0.1124 -0.1036 -0.1265
97287W        W40200  22.632  27.282  21.836  0.0429  0.1045  0.0837
97288W        W40201   6.690  29.986  22.487 -0.2293 -0.0232 -0.2347
97289W        W40202  21.561   3.618  22.826  0.1829 -0.2262  0.0233
97290W        W40203  16.071  26.637  26.159  0.0496  0.0582  0.2856
97291W        W40204  11.982   4.532   2.709  0.0757  0.2494 -0.1156
97292W        W40205   4.947   5.857   0.053  0.2326  0.1010  0.1483
97293W        W40206  21.347  32.026   0.900  0.1200 -0.1404 -0.2920
97294W        W40207   8.201  24.156   5.886  0.0705 -0.4460 -0.2070
97295W        W40208  22.248  17.816  14.758 -0.3394 -0.3168  0.0686
97296W        W40209  12.543  32.617   2.281  0.0583 -0.1439 -0.1806
97297W        W40210  24.070  20.005  15.129 -0.1858 -0.1594 -0.1118
97298W        W40211  22.029  25.053   8.277 -0.2064  0.0243 -0.2791
97299W        W40212  27.860  30.429  26.267  0.0632  0.1246  0.1945
97300W        W40213  12.845  25.521  27.322 -0.0343  0.0226 -0.2153
97301W        W40214  26.105  33.914   0.191 -0.1442 -0.0707  0.2528
97302W        W40215  18.940   3.236   4.433  0.0541  0.0922  0.0011
97303W        W40216  28.115  33.977   2.208 -0.0867  0.2317  0.0883
97304W        W40217  16.552   1.022   2.950 -0.0612  0.1360  0.0979
97305W        W40218  23.734  25.959   1.074  0.3670  0.0758  0.0894
97306W        W40219  20.156  21.618  17.137 -0.0488  0.0250  0.2387
97307W        W40220  24.677  26.890   1.763 -0.1928 -0.1237 -0.1283
97308W        W40221  26.186   4.271  27.219 -0.0416 -0.4224  0.0081
97309W        W40222  16.118  25.630   0.565  0.1423 -0.3522  0.2481
97310W        W40223  15.106  29.294   9.831  0.2281 -0.1940 -0.0108
97311W        W40224  20.077  10.721  28.827 -0.1957 -0.3005 -0.1652
97312W        W40225   9.442  23.875  24.284 -0.2088  0.2160  0.2139
97313W        W40226  15.763  14.426  29.060 -0.0053  0.3280 -0.2124
97314W        W40227   1.000  29.206  24.262  0.0449  0.0293  0.0147
97315W        W40228  14.243  25.746  17.736  0.0590  0.3542  0.0989
97316W        W40229  14.626  23.259   1.787  0.1463 -0.0079  0.2825
97317W        W40230  22.798  22.079  25.803  0.1127 -0.1798 -0.1581
97318W        W40231  28.138  19.990  25.711 -0.1978  0.0802  0.1308
97319W        W40232  18.688  33.440  27.138  0.0445  0.1779 -0.0862
97320W        W40233  23.094  32.910  26.248  0.3571  0.0657  0.0169
97321W        W40234   6.838   1.126  18.545  0.2034  0.3110 -0.0444
97322W        W40235  18.716  29.193  26.964  0.1292 -0.0555 -0.2882
97323W        W40236  12.735  27.010   0.675 -0.0480 -0.2477 -0.1243
97324W        W40237  24.221   0.947   2.307 -0.3249  0.2386  0.1552
97325W        W40238  17.485  29.754  29.759 -0.0531  0.1710 -0.0519
97326W        W40239  12.420   2.950   1.375  0.0621 -0.0713  0.1067
97327W        W40240  14.626   0.989   8.366 -0.3327 -0.1848 -0.2063
97328W        W40241  25.456  34.154  24.461 -0.1697 -0.1543  0.3185
97329W        W40242  25.892  24.593   2.835  0.0910 -0.1998  0.0846
97330W        W40243  33.912   0.705  25.580  0.0856  0.3652  0.2884
97331W        W40244  20.715  32.383  27.816  0.0694 -0.0352 -0.2090
97332W        W40245  15.793  23.699  25.133  0.0450  0.0820 -0.2502
97333W        W40246   4.341  25.945  17.759  0.1375  0.0477 -0.0853
97334W        W40247  27.649   7.076  20.286 -0.1627 -0.1431  0.1894
97335W        W40248  12.871   0.703   5.250  0.2233  0.0032  0.2634
97336W        W40249  22.788  28.963  21.589 -0.1139 -0.1473  0.1496
97337W        W40250  22.225   5.050   3.037  0.1504 -0.1865  0.1150
97338W        W40251  13.394  28.404   2.993 -0.2023 -0.1140 -0.0322
97339W        W40252  24.669   0.173   9.318  0.3348 -0.0012 -0.3157
97340W        W40253  18.098  26.770  29.382  0.2128 -0.0140  0.0936
97341W        W40254  14.822  32.288  29.590 -0.0914 -0.0817 -0.0809
97342W        W40255  25.625   0.974   1.905 -0.0615  0.0270  0.2261
97343W        W40256  21.930   4.783   6.236  0.0357 -0.1363 -0.3438
97344W        W40257  22.766  19.445  28.570  0.2959 -0.3243 -0.0741
97345W        W40258  26.644  29.949   0.080 -0.2505 -0.0005 -0.0445
97346W        W40259  12.652   2.143  17.223 -0.2860 -0.2770  0.1010
97347W        W40260  23.371  31.117  25.432  0.0300 -0.1421 -0.0676
97348W        W40261  25.990  28.814  27.225  0.2579  0.2223 -0.0382
97349W        W40262  21.828  27.635  25.223 -0.0544  0.2103  0.1544
97350W        W40263  18.371  34.391  25.498 -0.1391  0.4216 -0.0394
97351W        W40264  19.527  30.547  28.112 -0.1925  0.1510 -0.3556
97352W        W40265  26.310  32.524  20.521 -0.0134 -0.0582  0.0916
97353W        W40266  16.947   9.983  26.362  0.2187  0.1017 -0.2252
97354W        W40267  17.319  21.675  26.896  0.3188  0.0574  0.0522
97355W        W40268  19.262  30.629  20.643 -0.1504 -0.0436 -0.1905
97356W        W40269  12.836  34.426   5.067  0.3100 -0.0892  0.0412
97357W        W40270  18.311  29.793  18.479 -0.2312 -0.0737 -0.0728
97358W        W40271  27.875   1.275  26.405  0.1807  0.0296  0.0759
97359W        W40272  30.000  33.274  19.131 -0.0692 -0.1578 -0.3244
97360W        W40273  21.973  33.923   9.875  0.1082  0.2346 -0.2269
97361W        W40274  18.744   4.311  27.128  0.2289 -0.3159  0.2921
97362W        W40275  22.445  31.435   4.053 -0.1309 -0.2858 -0.2203
97363W        W40276  28.116   0.430  26.998 -0.0416  0.1948 -0.0528
97364W        W40277  30.429   0.234  26.518 -0.0994  0.3749 -0.0070
97365W        W40278   8.907  27.650  28.390 -0.0283  0.0183 -0.0592
97366W        W40279  11.418  23.955  29.224 -0.0072  0.0773  0.1655
97367W        W40280  17.601   0.430  19.731  0.1190  0.3362 -0.3268
97368W        W40281  19.079  23.598  23.286 -0.2006  0.0285 -0.2276
97369W        W40282   7.304  31.770  20.015 -0.0322 -0.0459  0.1929
97370W        W40283   5.378   3.752  25.718 -0.3001 -0.1161  0.0896
97371W        W40284  19.798   1.421   0.520 -0.2270 -0.0500  0.1212
97372W        W40285  19.746  24.353   0.947  0.2271 -0.0398  0.3278
97373W        W40286  19.475   0.259   2.017 -0.0580  0.0054 -0.0501
97374W        W40287   8.974  32.126   0.965 -0.2737  0.1139  0.0784
97375W        W40288  22.775  22.989  20.471  0.3329  0.3030 -0.2559
97376W        W40289   8.470  20.566  26.134 -0.0587  0.1431 -0.1772
97377W        W40290  17.793  27.234  21.193 -0.2288 -0.4238 -0.2438
97378W        W40291  25.409  17.832  23.309  0.6436 -0.3222 -0.2209
97379W        W40292   8.278  31.661  19.854 -0.1474  0.0310 -0.0094
97380W        W40293  15.580  31.132  21.592 -0.1240 -0.0605  0.0020
97381W        W40294  21.809  21.456  26.479  0.0923 -0.1156 -0.1408
97382W        W40295  20.158  19.782  19.235  0.1390  0.3457  0.2904
97383W        W40296  21.244  24.418  29.266  0.1177  0.0323  0.0063
97384W        W40297  14.710  29.645  18.379 -0.2223 -0.0442 -0.1081
97385W        W40298  11.886  24.594  26.943  0.1405 -0.0500 -0.0040
97386W        W40299  15.061  29.345   5.098  0.0696  0.3489  0.0792
97387W        W40300  15.229  28.528   3.623  0.1547 -0.0747 -0.0464
97388W        W40301  18.158  22.918  23.990 -0.0323  0.1596  0.1224
97389W        W40302  18.834  23.477  26.306 -0.1503 -0.0159  0.2020
97390W        W40303  23.143  31.513   6.102  0.2667 -0.0579  0.1449
97391W        W40304  17.825  32.390  18.617  0.0838  0.1674 -0.4009
97392W        W40305  15.906   2.102  20.664  0.1169  0.1405  0.2384
97393W        W40306  21.299  10.336   2.883  0.2959 -0.0385  0.0290
97394W        W40307  26.729  24.647   7.652 -0.0654 -0.1951 -0.1417
97395W        W40308  28.230   0.723   6.080 -0.3343  0.1207 -0.4184
97396W        W40309  19.000  18.890  15.486  0.2108 -0.0554  0.1818
97397W        W40310  25.352  28.275  28.527  0.0588  0.5815  0.1888
97398W        W40311  29.104  33.220   9.993 -0.0417  0.1598  0.2449
97399W        W40312  23.680  31.393   2.787  0.3568  0.1118  0.5106
97400W        W40313  16.214  27.525  24.148 -0.0964 -0.1966  0.1535
97401W        W40314  30.085   2.545   9.860  0.0546 -0.0574 -0.3454
97402W        W40315  15.933  21.846   2.534 -0.2049 -0.0695  0.0274
97403W        W40316  23.246   4.075  16.767 -0.1200  0.0557 -0.0356
97404W        W40317  20.391   2.640   2.565  0.1353 -0.1968 -0.1041
97405W        W40318  22.864   2.127   7.666 -0.1001 -0.0072 -0.0056
97406W        W40319  21.174  15.415   0.962  0.0738  0.2528  0.2278
97407W        W40320  22.872  27.779  26.095 -0.0002  0.1965 -0.0079
97408W        W40321  17.933  22.164   0.503  0.2407 -0.1788 -0.1012
97409W        W40322   9.317  31.023   1.643 -0.4305 -0.0614 -0.0847
97410W        W40323   9.538   3.817  19.959  0.1093  0.2483 -0.0599
97411W        W40324  27.380  30.608  28.941  0.0930 -0.0838 -0.1746
97412W        W40325  15.326  32.809  16.319  0.0100  0.2048 -0.1988
97413W        W40326  14.103  30.858  27.946 -0.2305 -0.0259  0.0007
97414W        W40327  27.660  33.932   2.409  0.0440 -0.2537 -0.1819
97415W        W40328  14.403   3.495   0.122  0.2206  0.1496  0.2700
97416W        W40329  23.239   9.576  27.373 -0.1509  0.0132 -0.1980
97417W        W40330  15.540  31.350  23.114  0.0613  0.0300  0.0972
97418W        W40331  16.952  27.019  20.599  0.5883 -0.1307 -0.1752
97419W        W40332  16.882  30.726  28.864 -0.1786  0.1891 -0.2033
97420W        W40333  24.212  23.924  19.414 -0.0176  0.1286  0.1860
97421W        W40334  33.020  29.813   3.886 -0.1465 -0.1312 -0.1419
97422W        W40335  10.740  29.409  24.029 -0.1481  0.1967  0.3315
97423W        W40336  13.101   5.625  21.815  0.0326  0.2198  0.0501
97424W        W40337  20.373  22.848  23.051 -0.0744 -0.1020  0.0104
97425W        W40338  19.357   8.071  18.916 -0.0757  0.1506 -0.2460
97426W        W40339  25.479  26.254  18.013 -0.1050  0.1567 -0.0993
97427W        W40340  30.028  26.311   8.158  0.0212 -0.2067  0.1374
97428W        W40341  18.848  22.807  25.766 -0.0790  0.1607 -0.1379
97429W        W40342  34.486  24.068   0.768  0.0666  0.1200  0.0033
97430W        W40343  14.075  29.772   1.916 -0.0061  0.2313  0.2493
97431W        W40344  32.606  25.163  19.170  0.2188  0.0590  0.1117
97432W        W40345  28.232  33.044   9.284  0.1043 -0.0127 -0.1831
97433W        W40346  16.642  25.893  26.232 -0.2305 -0.2580 -0.0915
97434W        W40347  24.379  27.951  18.636  0.0222 -0.0484  0.0785
97435W        W40348  19.106  21.628  18.336 -0.0481 -0.3225 -0.1841
97436W        W40349  13.404   4.235  25.658 -0.1106  0.0467  0.0117
97437W        W40350  22.167  23.248   4.107 -0.2314  0.0374 -0.2494
97438W        W40351  14.851  21.472   0.776  0.0213  0.0314  0.2057
97439W        W40352  28.061  21.365  26.851 -0.2731 -0.3967  0.0727
97440W        W40353  20.735  30.010   0.133 -0.2839 -0.0778  0.0294
97441W        W40354  26.628  30.762   0.453 -0.5332  0.1047 -0.0316
97442W        W40355  15.393   4.726   2.821  0.2609 -0.0971 -0.0222
97443W        W40356   1.172  29.130  22.161 -0.2131  0.0199  0.0563
97444W        W40357  13.429   3.327   0.046 -0.1548 -0.2013  0.0455
97445W        W40358  29.295  29.014  23.772  0.1709 -0.4782  0.1561
97446W        W40359  31.964  32.525   1.390  0.0374 -0.3650  0.0166
97447W        W40360   8.702  21.768  23.388 -0.0423  0.1710  0.0596
97448W        W40361  25.270  20.037  17.088  0.1064  0.0723  0.0262
97449W        W40362  22.202  28.631   1.111  0.1381 -0.0820  0.0699
97450W        W40363  12.467  28.558  27.724 -0.2732  0.1124  0.1985
97451W        W40364   0.696  27.160  29.491 -0.1337 -0.1066 -0.2232
97452W        W40365  23.741  31.023   1.634 -0.0553 -0.0486  0.2306
97453W        W40366  17.020  29.474  29.726  0.1072  0.1915  0.0066
97454W        W40367  15.022  15.786  29.350  0.3156 -0.0917 -0.1217
97455W        W40368  22.432  24.469  28.749  0.0619 -0.2765 -0.0381
97456W        W40369  28.160  26.575  28.433  0.0401 -0.0456  0.0594
97457W        W40370  14.196  31.793   9.967 -0.0722  0.1514  0.2060
97458W        W40371  27.843  27.341   3.745 -0.1203  0.3030 -0.2609
97459W        W40372  13.883  28.220  10.033  0.0960  0.0979 -0.1151
97460W        W40373  24.913  12.428  22.168 -0.1947 -0.1739 -0.1810
97461W        W40374  33.605  22.349  28.241  0.1601 -0.1052  0.3814
97462W        W40375  16.745   8.484   0.033  0.2195  0.3043 -0.2818
97463W        W40376  24.540   3.013  25.545  0.0075 -0.1632  0.1105
97464W        W40377  34.339  24.146  21.932 -0.1826 -0.0294 -0.0376
97465W        W40378  24.945  32.655  15.700  0.1410 -0.2308 -0.0498
97466W        W40379  30.053   6.606  25.875 -0.2953  0.2384 -0.0523
97467W        W40380  23.051  29.389  29.184 -0.0410  0.2089  0.0728
97468W        W40381   7.125  27.681   4.142  0.1169 -0.4721  0.5649
97469W        W40382  16.991  30.625  26.527 -0.3156  0.3112  0.1377
97470W        W40383  23.128  31.236  29.215 -0.0649  0.0090 -0.0552
97471W        W40384  17.159  34.106   5.975  0.1750  0.1365  0.1040
97472W        W40385  19.283  30.694  29.472  0.0481 -0.0732  0.0205
97473W        W40386  15.112  24.067  21.169 -0.0834  0.3968 -0.0382
97474W        W40387  25.621  29.898  13.897  0.4685 -0.2143 -0.2652
97475W        W40388  27.136  28.177  14.998 -0.2051  0.1158 -0.1381
97476W        W40389  15.802  31.732  15.618 -0.2111 -0.0828 -0.1264
97477W        W40390  11.894  27.151   1.219 -0.2107 -0.0436  0.0038
97478W        W40391  10.690  25.820   4.245  0.2208  0.3341  0.1830
97479W        W40392  31.229  28.795  27.202 -0.0380  0.0726 -0.0707
97480W        W40393  19.756   1.906   2.477 -0.1832 -0.1847 -0.0384
97481W        W40394  22.130  27.763   5.883 -0.0942  0.1917 -0.1828
97482W        W40395  18.757  31.424   2.198  0.0392 -0.0673  0.0077
97483W        W40396  15.891  23.325  29.299  0.5515 -0.0673  0.1555
97484W        W40397  19.454  32.658   8.825 -0.3800 -0.3042  0.2080
97485W        W40398  16.936  22.982  23.149 -0.2113 -0.0413 -0.1750
97486W        W40399  19.931  30.221  28.027 -0.1418  0.0747  0.0137
97487W        W40400   4.161  24.147   4.796 -0.0914  0.0847  0.2173
97488W        W40401  23.953  19.526  15.198  0.3312 -0.1102  0.3031
97489W        W40402  28.023  19.964  23.585 -0.1338 -0.0974 -0.1024
97490W        W40403  20.579  25.847  26.087 -0.0858  0.1692 -0.1272
97491W        W40404  25.720  30.754  28.286  0.0762 -0.1291  0.1028
97492W        W40405  19.854   5.480  17.108 -0.2806  0.3389 -0.2753
97493W        W40406  18.828  28.210  26.857  0.1067  0.0762  0.1543
97494W        W40407  14.260   1.414  25.376 -0.1095  0.1559  0.2051
97495W        W40408  15.745  34.102   0.199  0.3681  0.1110  0.0504
97496W        W40409  28.316   6.688   7.111  0.1083  0.2685  0.1987
97497W        W40410  19.874   0.523   3.658  0.1564 -0.1910  0.1597
97498W        W40411  17.578  31.063  21.758 -0.1297  0.0695  0.2858
97499W        W40412  25.966  21.800  24.431  0.0742  0.1280 -0.0294
97500W        W40413  24.248   8.231  15.268 -0.2318  0.0053 -0.0024
97501W        W40414  13.575   3.101  29.197 -0.0305 -0.1126  0.2636
97502W        W40415  11.028  21.750  28.910 -0.2639 -0.4074  0.3271
97503W        W40416  19.342   1.887   2.869  0.1998  0.1685 -0.1341
97504W        W40417  29.701  33.316  28.053  0.0208  0.0790 -0.0719
97505W        W40418  13.158   3.581  27.733  0.0704  0.1510  0.2236
97506W        W40419  29.708   8.891  20.079  0.1920 -0.1205 -0.1143
97507W        W40420  16.345  20.228  22.966 -0.1874  0.4264  0.0165
97508W        W40421  27.072   0.485   4.248  0.0071 -0.1924  0.0532
97509W        W40422  13.976  32.575  26.635 -0.3460 -0.0866  0.2075
97510W        W40423  21.731  33.306   2.227  0.0596 -0.1887 -0.0841
97511W        W40424  24.281  30.086  23.367 -0.0791  0.2744 -0.0324
97512W        W40425   3.136  25.123   4.482 -0.1459 -0.0170  0.1398
97513W        W40426  19.922  31.175   5.149 -0.0751  0.0621 -0.0434
97514W        W40427  22.720  28.529   3.124  0.2808 -0.0472 -0.0044
97515W        W40428  12.641  22.811  23.072 -0.0103  0.2236  0.2297
97516W        W40429  11.893  24.699   5.503  0.1637 -0.0943  0.1254
97517W        W40430  18.209  27.577  28.986 -0.0117  0.0890 -0.0372
97518W        W40431  17.689  31.515  22.985  0.0825  0.1352  0.0722
97519W        W40432  23.244  24.571  27.947 -0.0209 -0.4236 -0.2138
97520W        W40433  12.913   3.479   8.973 -0.1570  0.2550  0.2949
97521W        W40434  26.102  31.235   7.794 -0.0216 -0.0751 -0.0681
97522W        W40435  27.999  26.185   1.045 -0.1862 -0.0053 -0.2480
97523W        W40436   6.144   4.747   0.432  0.1728 -0.0741  0.0024
97524W        W40437  17.247   5.582   2.172 -0.2052  0.0467  0.1097
97525W        W40438  20.384  31.898  25.959 -0.2319 -0.0299 -0.1625
97526W        W40439  15.251  26.982   4.884 -0.0775  0.0555  0.0681
97527W        W40440  15.599   2.321  22.883  0.0979 -0.3706  0.0763
97528W        W40441  17.799  28.069  18.630  0.3553  0.2936  0.1638
97529W        W40442  19.459   2.109  21.376 -0.1014  0.1701 -0.0095
97530W        W40443  30.035  28.602  27.212  0.0839 -0.0659 -0.1708
97531W        W40444  15.813  29.898  20.687 -0.1725  0.1047  0.2687
97532W        W40445  26.874  24.185  22.916 -0.1803  0.1083 -0.1211
97533W        W40446   9.544  21.063  28.737  0.0808 -0.1526  0.3803
97534W        W40447  33.496  15.010  23.566  0.4307 -0.1158 -0.0287
97535W        W40448   6.684  33.050  27.593  0.1214  0.1133 -0.0936
97536W        W40449   2.312  27.743   3.194  0.0409 -0.0386 -0.0778
97537W        W40450  13.528  31.301  26.258  0.2811 -0.1344 -0.1738
97538W        W40451  21.924  21.673   3.200  0.0053  0.2471 -0.0575
97539W        W40452   9.854  22.804   5.139 -0.2778 -0.1807  0.0067
97540W        W40453  13.883  17.549   3.486 -0.1608  0.0252  0.0290
97541W        W40454  22.156  22.590   5.573  0.4692  0.4283  0.1807
97542W        W40455  26.421   2.060   9.603  0.4409  0.2953  0.0169
97543W        W40456  24.014   3.182  19.373  0.1971 -0.0212 -0.2912
97544W        W40457  14.053   0.311  28.313 -0.0194 -0.2858 -0.0952
97545W        W40458  23.834  21.207  24.331 -0.0000 -0.2195  0.1048
97546W        W40459  26.710  29.670  20.463  0.0525 -0.1411 -0.0919
97547W        W40460  25.110   1.308  17.670  0.1979  0.1690 -0.0808
97548W        W40461  18.858   1.296  20.994  0.1124  0.4033 -0.1431
97549W        W40462  26.993  30.908  13.263  0.1380 -0.0560 -0.0359
97550W        W40463  16.742   2.743  18.051 -0.0779  0.0533  0.0556
97551W        W40464  20.176   2.368  16.982  0.0394  0.3847 -0.1218
97552W        W40465  28.852   1.570  15.567  0.2346  0.0289 -0.1467
97553W        W40466  34.337  24.345  16.811  0.0608 -0.2537  0.2236
97554W        W40467  20.036  30.352  18.685 -0.0180 -0.0319 -0.2195
97555W        W40468  26.647  22.160  18.325  0.1899 -0.2490 -0.4699
97556W        W40469  24.793   4.022  14.375  0.4365  0.1337  0.3782
97557W        W40470  22.712  30.747  18.802 -0.2102 -0.4238 -0.3490
97558W        W40471  27.675   4.784  25.429 -0.6462 -0.1362 -0.2330
97559W        W40472  24.303   7.816  15.561  0.1917 -0.1556 -0.2824
97560W        W40473  15.409   1.250  16.639 -0.3397  0.1656  0.2496
97561W        W40474  23.261  28.347  22.504  0.1157 -0.0980 -0.3734
97562W        W40475  19.671  27.926  22.289 -0.0315 -0.1193 -0.0081
97563W        W40476   8.917   6.893  19.460 -0.1628 -0.1855 -0.1690
97564W        W40477  28.955  22.373  24.187  0.0481 -0.0727 -0.0458
97565W        W40478   0.086  27.557  25.909  0.1645 -0.0949  0.1578
97566W        W40479  21.922  31.250  16.641  0.0091  0.3537 -0.1198
97567W        W40480  25.960  26.796  23.221 -0.0399  0.1016 -0.3630
97568W        W40481  20.741  26.762  14.109  0.0149 -0.1661 -0.0399
97569W        W40482  21.991   6.275  25.608 -0.0507 -0.0502  0.0962
97570W        W40483  25.731  13.929  24.982  0.1811 -0.1047  0.1690
97571W        W40484  17.259  29.388  16.530 -0.2655  0.1777  0.0987
97572W        W40485  18.218  31.554  22.889 -0.0331  0.0231 -0.0262
97573W        W40486  31.808   5.143  24.166 -0.4181 -0.0155  0.4441
97574W        W40487  20.234   3.797  15.954 -0.2171  0.0915 -0.2416
97575W        W40488  19.140   4.401  26.831  0.2395 -0.1317  0.0236
97576W        W40489  23.626  34.363  13.455 -0.2267  0.1499 -0.1936
97577W        W40490  27.648  34.014  18.696 -0.2803 -0.0679 -0.2050
97578W        W40491  24.466  31.317  19.396  0.3183  0.1316  0.0485
97579W        W40492  17.724  28.833  20.607  0.0297 -0.0718  0.0382
97580W        W40493  21.472   4.918  21.285 -0.0241  0.1960  0.1355
97581W        W40494  29.644  15.360  20.725 -0.1722  0.4029 -0.1043
97582W        W40495  25.593  27.560  20.504  0.3945 -0.1255 -0.2808
97583W        W40496   8.866  24.761  23.351 -0.2445  0.1247  0.3188
97584W        W40497  22.287  27.635  25.237 -0.2792  0.2411  0.0360
97585W        W40498  27.570  33.544  19.171 -0.2231 -0.2378  0.0995
97586W        W40499  19.139   3.739  15.521 -0.0445 -0.0014  0.6180
97587W        W40500  10.933  29.900  23.976  0.5734  0.1224  0.0317
97588W        W40501  21.551   2.281  23.011  0.1794 -0.1941 -0.0139
97589W        W40502  20.832  33.689  18.868  0.0753 -0.0054 -0.1809
97590W        W40503   6.317  31.187  18.984  0.4230  0.2948 -0.0740
97591W        W40504  23.886   4.411  16.442 -0.0253 -0.2273 -0.1431
97592W        W40505  16.469  32.312  23.944  0.1008 -0.1669  0.0378
97593W        W40506  14.976  33.596  20.343  0.1820 -0.2701 -0.2768
97594W        W40507  29.685  24.039  21.790 -0.0094  0.1273  0.1603
97595W        W40508  25.755   6.494  23.802  0.0296 -0.0098 -0.1288
97596W        W40509  30.077  29.958  14.019 -0.1582 -0.1409 -0.1797
97597W        W40510  13.957  24.470  22.135  0.2634  0.0919 -0.3964
97598W        W40511  33.538  27.887  24.197  0.4705  0.0810 -0.2595
97599W        W40512  18.747  26.711  27.486  0.2160  0.0193 -0.0212
97600W        W40513  22.854  31.330  21.301  0.0237 -0.0030 -0.0505
97601W        W40514  10.181   2.749  25.998 -0.0856  0.0713  0.3468
97602W        W40515  23.683   8.514  22.160 -0.0998  0.0633 -0.0180
97603W        W40516  18.911   0.227  15.078 -0.1805  0.0385  0.1767
97604W        W40517  11.873   9.793  22.293 -0.2385  0.0325 -0.0786
97605W        W40518  23.724   7.861  14.271  0.0414  0.0741 -0.0141
97606W        W40519  18.345  27.133  23.217 -0.4043 -0.1114  0.1706
97607W        W40520  26.751  34.044  18.147 -0.0876  0.1239 -0.3555
97608W        W40521  17.074  28.171  21.380 -0.3316 -0.1641  0.0492
97609W        W40522  24.713   5.620  19.662  0.0469 -0.0484  0.2198
97610W        W40523  20.693  33.758  14.968  0.2147 -0.0951 -0.1305
97611W        W40524  30.334   7.291  17.581 -0.2206 -0.0394  0.0637
97612W        W40525  16.088  32.812  18.711 -0.1515 -0.2680  0.0762
97613W        W40526  29.444  20.303  16.625  0.2163  0.2611 -0.3487
97614W        W40527  19.823  27.182  14.093  0.0829  0.2555 -0.3581
97615W        W40528  18.759   9.309  19.528  0.2659  0.2588 -0.0799
97616W        W40529  20.092  22.079  13.131 -0.2855 -0.1621  0.0548
97617W        W40530  27.235  30.487  21.262  0.3037  0.1683  0.1115
97618W        W40531  22.216   7.458  20.316  0.0528 -0.2239 -0.1678
97619W        W40532  25.082  31.172  14.284 -0.1313  0.5529 -0.2876
97620W        W40533  32.627  26.789  26.080  0.0784  0.0546 -0.0085
97621W        W40534  27.172  31.241  14.950  0.0745  0.4923  0.2292
97622W        W40535  27.683  32.755  17.015  0.0818  0.2777 -0.0033
97623W        W40536  22.308   1.874  14.825 -0.1800  0.1961  0.0265
97624W        W40537   6.286  25.745  20.136 -0.1259 -0.0882 -0.0357
97625W        W40538  22.966  24.550  19.964 -0.1546 -0.0587  0.0002
97626W        W40539  19.903  28.010  19.282  0.3385  0.4213  0.2332
97627W        W40540  10.745   6.413  16.027 -0.0191 -0.1885 -0.1794
97628W        W40541  22.379  32.248  18.048  0.1535 -0.1406 -0.1576
97629W        W40542  17.486   5.595  15.324  0.2227  0.2029  0.2527
97630W        W40543  22.745  28.524  14.147 -0.0274  0.1466 -0.1811
97631W        W40544  14.237  10.969  19.718 -0.4541 -0.1696  0.1700
97632W        W40545  24.430   4.770  24.557 -0.3657  0.5296 -0.1583
97633W        W40546  20.920   3.564  19.412  0.1070 -0.1234  0.2588
97634W        W40547  14.013  25.638  21.308  0.1371  0.3037  0.2473
97635W        W40548  33.095  29.608  16.795 -0.4347 -0.0669 -0.4526
97636W        W40549  32.898  24.386  22.663  0.2268  0.1422 -0.0785
97637W        W40550  14.688   3.969  24.430 -0.1475  0.1782 -0.1012
97638W        W40551  25.000   0.609  20.125 -0.4072  0.0040  0.0751
97639W        W40552  17.575  31.852  19.150 -0.0971  0.1951 -0.3984
97640W        W40553  22.278  30.155  20.820 -0.1697 -0.4853  0.4647
97641W        W40554  19.609  23.285  22.188 -0.1637 -0.0665 -0.0811
97642W        W40555  18.017  27.106  28.970  0.1190  0.3810 -0.0597
97643W        W40556  23.001  28.516  13.710  0.0270 -0.0276 -0.0319
97644W        W40557  25.917  26.898  22.730 -0.0226  0.1464 -0.0552
97645W        W40558  27.011  28.724  23.323 -0.4152 -0.0724 -0.0474
97646W        W40559  24.184   5.218  24.613  0.0820  0.1991 -0.0561
97647W        W40560  25.538  33.540  19.044  0.1794 -0.0112 -0.2029
97648W        W40561  28.274   0.803  23.174 -0.3862 -0.0557 -0.1955
97649W        W40562  22.822  19.189   1.925 -0.1518  0.0041 -0.0828
97650W        W40563  15.250   1.051  24.196  0.1496  0.2724 -0.0414
97651W        W40564  24.286  26.658  15.408 -0.2119  0.1300  0.1018
97652W        W40565  29.247  26.316  18.517  0.0576  0.4420  0.0044
97653W        W40566  17.485   4.515  13.905 -0.3246 -0.1931  0.2010
97654W        W40567  19.472  28.828  19.222  0.0872  0.0027  0.2239
97655W        W40568   7.432  11.372  18.898 -0.2405  0.0156  0.0774
97656W        W40569  23.545  26.781  13.519  0.2055 -0.7015 -0.1657
97657W        W40570  20.036  26.218  14.478 -0.0510 -0.0180 -0.0325
97658W        W40571  26.447  34.206  16.956 -0.0172 -0.2574 -0.0589
97659W        W40572  27.272  32.429  18.141  0.2087 -0.0714  0.3378
97660W        W40573  23.479   0.619  13.829 -0.1297 -0.2600 -0.2222
97661W        W40574  16.717  26.465  18.519  0.1006  0.2619  0.0081
97662W        W40575  13.761  29.188  19.272 -0.1453  0.0526 -0.0276
97663W        W40576  25.670   1.047  20.735 -0.0878  0.1334  0.1932
97664W        W40577  29.503   6.979  17.628 -0.2757 -0.3144  0.3888
97665W        W40578  26.709  33.675  16.057 -0.1748  0.3691  0.3348
97666W        W40579  20.896  30.543  15.224  0.0695 -0.0227 -0.0375
97667W        W40580  27.968  33.830  24.222 -0.2015  0.0658 -0.0614
97668W        W40581  27.515  25.060  19.901 -0.0419  0.1684 -0.1663
97669W        W40582  32.923  24.946  25.710  0.0846 -0.1689  0.0062
97670W        W40583  17.107   4.425  15.681  0.1955 -0.1649  0.2351
97671W        W40584  11.677  26.367  26.071 -0.1592 -0.1138 -0.1717
97672W        W40585  30.706  34.321  17.141  0.0529  0.0394  0.0573
97673W        W40586  18.492   1.269  21.900  0.2499 -0.3276  0.0089
97674W        W40587  21.587   0.171  20.291  0.3554 -0.0194 -0.1668
97675W        W40588  19.790  28.709  25.606  0.0675 -0.1118  0.1828
97676W        W40589  25.549  30.364  20.424 -0.1313  0.1336 -0.0614
97677W        W40590  27.379   2.544  14.849  0.2876  0.1235 -0.0813
97678W        W40591  23.682  28.870  14.235  0.1014 -0.2031 -0.3066
97679W        W40592  25.945   2.166  19.425  0.2606  0.3494 -0.0365
97680W        W40593  27.161  27.569  18.621 -0.1564  0.3690 -0.2181
97681W        W40594   9.957  17.775  16.089  0.0928  0.0901 -0.1514
97682W        W40595  11.114  33.492   5.706  0.2031 -0.1566 -0.1356
97683W        W40596  25.297  30.380  18.963  0.0147 -0.2302  0.2646
97684W        W40597  33.125  33.190  22.336 -0.4387  0.0642 -0.2329
97685W        W40598  17.784   1.225  15.679 -0.1666  0.2448  0.0190
97686W        W40599  22.273  29.610  16.598  0.0330 -0.0735  0.0603
97687W        W40600  23.386   7.789  18.899 -0.4276 -0.0197 -0.0519
97688W        W40601  21.300  22.960  17.430 -0.1034  0.0945  0.2323
97689W        W40602  22.970  33.068  19.412  0.2003 -0.1043  0.4840
97690W        W40603  22.028  31.423  19.394  0.2864  0.0302 -0.0470
97691W        W40604  28.151  27.351  16.405 -0.3648  0.2852 -0.0755
97692W        W40605  17.898  27.124  22.899  0.1584  0.0788 -0.0857
97693W        W40606  28.787  28.495  16.585  0.2245  0.1292 -0.2283
97694W        W40607  21.166   9.136  14.333  0.0552 -0.1132 -0.0207
97695W        W40608  31.431  26.117  17.293 -0.0427 -0.1397  0.1326
97696W        W40609  25.569   2.485  18.066  0.0291 -0.1654  0.1760
97697W        W40610  25.444  32.402  17.591 -0.2394  0.0737 -0.2169
97698W        W40611  16.696   2.129  18.066  0.1099 -0.1883 -0.0781
97699W        W40612  15.758   3.190  15.400  0.0161 -0.1646 -0.2784
97700W        W40613  19.561   5.122  18.593 -0.0051 -0.0570  0.0622
97701W        W40614  26.713  21.149  16.777  0.2270  0.0750 -0.2100
97702W        W40615  26.034  25.298  19.935 -0.1164  0.1472  0.1341
97703W        W40616  14.849   6.199  14.457  0.1606 -0.1651  0.0549
97704W        W40617  24.256   1.078  20.336 -0.0050  0.0839  0.0794
97705W        W40618  24.381  28.764  21.453  0.0699 -0.2016 -0.1011
97706W        W40619  29.872  30.827  19.606 -0.6275 -0.3683 -0.3955
97707W        W40620  21.561  28.571  13.768 -0.0505 -0.1920  0.0982
97708W        W40621  24.819  12.511  13.158 -0.2244  0.3181  0.0077
97709W        W40622  14.206  30.739  21.177  0.0294  0.1095 -0.2017
97710W        W40623  19.988   6.044  17.115 -0.1872 -0.0248 -0.0666
97711W        W40624  29.255   3.776  14.774  0.0380 -0.1023 -0.4759
97712W        W40625  18.549  33.431  19.903 -0.0509  0.1263 -0.1987
97713W        W40626  26.030  29.636  19.428 -0.2201 -0.1454  0.1527
97714W        W40627  21.573  28.951  14.656  0.1550 -0.1777  0.1239
97715W        W40628   1.728  30.975  19.433  0.2202  0.1988 -0.2137
97716W        W40629  19.783  32.085  20.233  0.4341  0.1895  0.2500
97717W        W40630  23.684  28.549  24.822 -0.1524 -0.0306  0.4670
97718W        W40631  19.156  33.825  19.738  0.0395 -0.0352 -0.3256
97719W        W40632  26.600  25.792  13.652 -0.0192  0.2344 -0.1207
97720W        W40633  20.432  27.744  18.045 -0.0019  0.0303 -0.1339
97721W        W40634  29.967  22.630  18.636 -0.0926 -0.1920  0.1647
97722W        W40635  19.914  30.183  17.323 -0.0688  0.2092 -0.0908
97723W        W40636   5.347   4.712  26.440  0.0697 -0.0621  0.0350
97724W        W40637  27.078   6.267  17.420  0.0194  0.1355  0.0509
97725W        W40638  12.473  24.193  18.869 -0.0010 -0.0578  0.3802
97726W        W40639  18.397  33.704  14.896 -0.0214 -0.1553  0.0023
97727W        W40640  28.167   1.836  21.287  0.1762  0.0020  0.1584
97728W        W40641  25.216   4.111  24.635  0.0735  0.0787  0.0031
97729W        W40642  28.996  31.359  26.162 -0.1547  0.2413  0.1676
97730W        W40643  25.801  27.132  20.310  0.0402 -0.3037  0.2162
97731W        W40644  12.964  32.936  18.600 -0.1295  0.1811  0.1295
97732W        W40645  19.757  26.504  25.087 -0.0389  0.0523 -0.0180
97733W        W40646  21.752  30.938  20.934 -0.1750  0.1137  0.0910
97734W        W40647  14.069   4.676  17.525 -0.0065  0.4274 -0.2063
97735W        W40648  16.464  28.550  16.303  0.2014  0.0655 -0.0259
97736W        W40649  15.870  28.896  22.600  0.0611 -0.3335  0.1739
97737W        W40650   9.244  30.795  16.779 -0.0518  0.1723 -0.0478
97738W        W40651  25.497  30.704  17.501 -0.1689  0.1133  0.0609
97739W        W40652   7.619  26.002  15.309  0.1342  0.2059  0.0081
97740W        W40653  21.654   4.674  19.892 -0.0798 -0.2197 -0.1071
97741W        W40654  21.934  29.034  14.373 -0.0141 -0.3741  0.0293
97742W        W40655  19.803   1.287  18.513 -0.1025 -0.0917  0.1952
97743W        W40656  23.279  30.230  20.937 -0.1320  0.0402 -0.1925
97744W        W40657  18.797   5.502  13.601 -0.0594  0.1479 -0.1823
97745W        W40658  25.644  24.315  15.685  0.1221 -0.2610 -0.0044
97746W        W40659  19.297  28.622  23.754 -0.0728 -0.0388  0.0256
97747W        W40660  26.147   3.100  18.472 -0.1172 -0.2112 -0.0311
97748W        W40661  31.500   0.095  25.446  0.2732 -0.4881  0.1325
97749W        W40662  13.053   3.554  16.676 -0.1261  0.3397 -0.0506
97750W        W40663  19.603   9.445  19.498  0.1407 -0.0433 -0.2460
97751W        W40664  23.142  31.058  27.155  0.0331 -0.1467 -0.0172
97752W        W40665  32.371   6.282  22.655  0.0508 -0.0523 -0.1956
97753W        W40666   8.303  29.276  24.451 -0.0913  0.2487  0.0773
97754W        W40667  31.627   5.302  16.989  0.0018 -0.1579 -0.0963
97755W        W40668  20.037  34.232  21.235 -0.1554 -0.1174 -0.0125
97756W        W40669  30.053  27.208  21.576  0.0619 -0.0191 -0.0354
97757W        W40670  16.485   7.748  14.665 -0.1053 -0.2465  0.1448
97758W        W40671  15.788  31.233  19.927 -0.0578 -0.2682  0.2778
97759W        W40672  23.719  29.808  21.561 -0.2617  0.1369  0.1433
97760W        W40673  24.781  29.386  26.237  0.4046 -0.4011 -0.2134
97761W        W40674  20.669  33.473  13.229  0.0477  0.2208  0.3515
97762W        W40675  30.301  28.869  16.529 -0.2035  0.1356 -0.2422
97763W        W40676  20.945  24.222  12.732 -0.0740 -0.1488  0.5280
97764W        W40677  24.874  26.807  20.799 -0.1297 -0.1790  0.1261
97765W        W40678  22.440  31.586  14.703 -0.0705  0.1119  0.0258
97766W        W40679  15.500  24.723  18.618 -0.1271  0.3276 -0.0468
97767W        W40680  23.228   4.398  17.929  0.0690  0.3379 -0.0326
97768W        W40681  21.115  18.322  13.995  0.1548  0.1048  0.0424
97769W        W40682  24.385   9.648  19.221 -0.1878  0.0994  0.3824
97770W        W40683  18.703   1.075  25.255  0.1391  0.4418 -0.3238
97771W        W40684   5.032  19.862  21.910  0.0094  0.0085 -0.1523
97772W        W40685  26.164  11.193  20.787  0.0422 -0.1310 -0.1369
97773W        W40686  20.760   7.608  24.012  0.2191  0.0455 -0.1471
97774W        W40687  14.917  32.828  19.456  0.2445 -0.1432 -0.0080
97775W        W40688   8.272  21.603  24.943  0.2042 -0.0173  0.1677
97776W        W40689  22.901  30.338  22.496 -0.2555  0.1017  0.0384
97777W        W40690  23.203  25.104  15.970 -0.0612  0.1729 -0.1646
97778W        W40691  26.110  28.306  17.788  0.1583 -0.0784  0.2583
97779W        W40692  19.124  33.189   2.129  0.1023  0.4293  0.2282
97780W        W40693  13.479   1.984  22.094 -0.3512  0.2523  0.3160
97781W        W40694  10.293  33.710  19.914  0.0047 -0.0641 -0.0984
97782W        W40695  11.374  33.539  17.016  0.0480 -0.2856 -0.2566
97783W        W40696  24.013  24.288  12.553  0.1100 -0.0046 -0.0098
97784W        W40697  19.987   0.754  24.199  0.0516  0.4315  0.0210
97785W        W40698  20.254  30.042  27.125 -0.1625 -0.1227  0.1047
97786W        W40699  21.595  20.526  12.349  0.2032  0.1194  0.0966
97787W        W40700  23.887  24.064  20.634 -0.2334 -0.4664  0.1210
97788W        W40701  21.759   5.202  14.537  0.1091 -0.1607 -0.1345
97789W        W40702  18.286   9.791  17.725  0.2071 -0.1369 -0.2455
97790W        W40703  12.468   0.075  26.597  0.0024  0.5482 -0.1533
97791W        W40704  12.407   1.909  21.978 -0.3266 -0.1541  0.0835
97792W        W40705   4.313  32.880  22.410 -0.0269 -0.2302 -0.2219
97793W        W40706  22.034  28.472  18.659 -0.1712 -0.2129  0.3786
97794W        W40707  21.195   5.901  15.807 -0.0254 -0.2987 -0.0341
97795W        W40708  31.893  23.891  16.391  0.0040  0.2809 -0.3951
97796W        W40709   3.987  26.480  17.379  0.3979 -0.4379 -0.3567
97797W        W40710  21.066   4.562  13.692 -0.4650 -0.1148 -0.1655
97798W        W40711  12.572  24.458  19.910 -0.0514  0.0366  0.1760
97799W        W40712  13.500  31.567  27.489 -0.3018  0.1379  0.2621
97800W        W40713  31.223  25.407  26.319  0.2906 -0.1399  0.1310
97801W        W40714  21.509   0.864  14.741 -0.0665  0.1366  0.0874
97802W        W40715  17.294   0.019  19.436  0.1482 -0.1058  0.0821
97803W        W40716  12.351  23.783  14.545 -0.1012  0.1149  0.1783
97804W        W40717  18.475   4.903  25.678  0.1008 -0.0485 -0.0376
97805W        W40718  26.535   0.832  13.890  0.0315 -0.3153  0.1151
97806W        W40719  15.986  24.034  22.520 -0.4072 -0.1336 -0.1555
97807W        W40720  29.049  26.714  20.782 -0.2508 -0.2594 -0.1033
97808W        W40721   3.518  14.743  17.620  0.0104 -0.1328  0.0599
97809W        W40722  26.980  32.595  19.873  0.0437  0.1574 -0.4018
97810W        W40723  19.562   4.564   6.736 -0.0149 -0.0759 -0.0440
97811W        W40724  14.025   3.278  15.758 -0.0691  0.1006  0.1325
97812W        W40725  13.358  29.990  18.621 -0.0132  0.4256 -0.0445
97813W        W40726  16.130   5.756  27.874  0.1822  0.0094 -0.0106
97814W        W40727  17.257  25.861  15.317  0.0277 -0.1174  0.4126
97815W        W40728  17.126   1.606  14.946  0.0541 -0.0429 -0.3185
97816W        W40729  26.444  32.853  17.370  0.1270 -0.0927  0.1593
97817W        W40730  31.702  24.338  19.094  0.4324 -0.6965 -0.0645
97818W        W40731  13.627  32.166  18.946 -0.0660  0.1129 -0.0072
97819W        W40732  12.576   7.342  18.683 -0.1963 -0.2824  0.0735
97820W        W40733  19.394   3.339  14.110  0.4107 -0.2793 -0.1111
97821W        W40734  21.019  29.725  16.111 -0.3354  0.2890  0.2239
97822W        W40735  17.898   3.697  26.877  0.1928  0.0517  0.4038
97823W        W40736  22.421  31.802  16.014  0.0251  0.0691 -0.5506
97824W        W40737  25.093  29.084  26.536 -0.2520  0.3018 -0.0234
97825W        W40738  21.789  30.474  25.181  0.2019  0.0095  0.0217
97826W        W40739  19.519   5.699  28.283  0.1235  0.1709 -0.3055
97827W        W40740   9.430   0.548  19.808 -0.2307  0.1461 -0.0822
97828W        W40741  17.458  32.312  21.850  0.3789  0.0712 -0.2827
97829W        W40742  30.008  30.573  16.592  0.2903  0.0312 -0.3119
97830W        W40743  18.403   0.735  19.034 -0.0509  0.4399  0.0777
97831W        W40744  21.077  31.853  17.327  0.0033 -0.2530  0.3481
97832W        W40745  14.481  32.992  19.759  0.1487  0.2600 -0.1287
97833W        W40746  26.010   5.497  21.695  0.1807  0.0115  0.1257
97834W        W40747  25.227  28.915  19.821 -0.1275  0.3567 -0.0107
97835W        W40748   4.249  33.103  19.687  0.0619 -0.0857 -0.0015
97836W        W40749  29.760  31.905  15.595 -0.1900  0.2323  0.2481
97837W        W40750  13.763  29.168  28.376 -0.0351 -0.2993  0.1783
97838W        W40751  17.654   4.901  15.932  0.0259  0.1656 -0.2008
97839W        W40752  23.409  23.846  23.485  0.2021 -0.0471 -0.0720
97840W        W40753  20.126  32.063  20.768  0.2589  0.0518 -0.1722
97841W        W40754  19.968   2.442  19.749  0.0924 -0.2619 -0.3452
97842W        W40755  17.782   0.695  15.044  0.3678 -0.0890 -0.1419
97843W        W40756  25.930   5.062  22.158  0.1011 -0.0665 -0.3520
97844W        W40757  20.088  21.303  23.211  0.0752 -0.1796  0.1642
97845W        W40758  29.984  27.541   0.577 -0.0810 -0.3879 -0.0449
97846W        W40759  18.845  25.484  13.541 -0.0191 -0.1231 -0.0208
97847W        W40760  32.724  33.005  20.054 -0.1943  0.0886  0.2101
97848W        W40761  22.574  31.461  24.242 -0.0928  0.1131 -0.1291
97849W        W40762  26.108  30.939  16.647  0.1308 -0.0969 -0.0082
97850W        W40763  20.908  32.245  15.542  0.0344 -0.0968 -0.1427
97851W        W40764  27.548   7.469  25.825  0.0181  0.1311 -0.0357
97852W        W40765  11.778   4.174  19.852  0.1820  0.2692 -0.2946
97853W        W40766  30.903  30.680  17.762 -0.1780 -0.1841 -0.1914
97854W        W40767   9.424  30.140  28.117  0.1762  0.0447 -0.0160
97855W        W40768  25.670   4.819  20.063 -0.2919 -0.0119  0.2207
97856W        W40769  18.492   1.178  16.222 -0.0497 -0.0154  0.1355
97857W        W40770  13.792  29.364  19.771 -0.0383 -0.0752  0.1539
97858W        W40771  15.572  26.477  19.193  0.0519 -0.0846 -0.1036
97859W        W40772  30.816   8.473   0.335  0.0086  0.2076  0.1661
97860W        W40773  17.450  26.641  14.668 -0.0934 -0.1825 -0.0821
97861W        W40774  16.036  23.855  15.809  0.2124 -0.2836 -0.1050
97862W        W40775  15.021   0.908  18.791 -0.0507 -0.0304 -0.1452
97863W        W40776  28.285  31.222  19.596  0.1784  0.1963  0.0430
97864W        W40777   8.513  31.492  22.656  0.1366  0.1204 -0.0378
97865W        W40778  16.883  30.951  23.425  0.0817  0.1582  0.2660
97866W        W40779   9.308  33.364  18.980  0.0920  0.0040  0.1475
97867W        W40780  27.179  24.601  14.319 -0.1647 -0.0766  0.1187
97868W        W40781  24.653  25.506   5.138  0.2534  0.2052 -0.0464
97869W        W40782  22.724  29.138  19.958 -0.2834 -0.0913  0.2483
97870W        W40783  20.736   4.325  13.995 -0.3004 -0.1506  0.1622
97871W        W40784  13.416  20.044  16.588  0.2799  0.1639 -0.0406
97872W        W40785  19.702   2.329   0.334  0.3021 -0.4198  0.0873
97873W        W40786  30.690  30.723  27.271  0.0523  0.3396  0.3023
97874W        W40787  19.161  30.005  15.544  0.2057 -0.2789  0.1993
97875W        W40788  21.729  34.076  20.676  0.3152  0.1129 -0.1655
97876W        W40789  15.933  32.723  19.397 -0.1219  0.1019 -0.0330
97877W        W40790  21.699  33.204  21.713 -0.0906 -0.3554  0.3768
97878W        W40791  22.530   1.521  16.173 -0.1432 -0.1535  0.0027
97879W        W40792  22.005   0.121  22.956  0.0318 -0.1619 -0.1057
97880W        W40793  27.973  30.894  15.975 -0.1262 -0.2125 -0.1742
97881W        W40794  24.413   4.173  24.470  0.0073 -0.0724 -0.0803
97882W        W40795  15.541  31.362  22.019  0.0450 -0.0031  0.0831
97883W        W40796  19.162   4.126  15.930  0.0390  0.3152  0.0986
97884W        W40797  22.040  23.584  26.347  0.0183  0.1527  0.0650
97885W        W40798  17.595  29.285  20.301 -0.1384  0.0277 -0.3182
97886W        W40799  28.287  34.426  27.202  0.0080 -0.1947  0.0576
97887W        W40800  13.024   8.856  20.729  0.2514  0.0707  0.3279
97888W        W40801  16.037  28.256  27.880 -0.2249 -0.2161 -0.2597
97889W        W40802   2.159  10.731  28.723  0.0625 -0.0548 -0.3632
97890W        W40803  24.564  23.822  22.675 -0.0375  0.0968 -0.4802
97891W        W40804  13.192  31.711  21.162 -0.0091  0.2738 -0.1850
97892W        W40805  23.199   5.356  14.400 -0.0072 -0.0732  0.3463
97893W        W40806  18.683  26.340  17.388  0.1824  0.1301 -0.4127
97894W        W40807  24.249   4.293  24.942 -0.2258  0.2757  0.0325
97895W        W40808  25.420   0.164  15.716 -0.1064  0.2404  0.0255
97896W        W40809  27.728  26.777  18.603 -0.1186  0.0464  0.0082
97897W        W40810  17.914  33.701  19.340 -0.0792 -0.0859  0.0838
97898W        W40811  18.379   7.521  24.749 -0.1122  0.2059  0.0694
97899W        W40812  24.491   6.115  16.071  0.1881  0.1216  0.3555
97900W        W40813  20.496   2.501  19.808  0.3346  0.1734  0.0747
97901W        W40814  27.678  28.851  25.924  0.0655 -0.3309 -0.0340
97902W        W40815  16.739  21.550  22.664 -0.3582  0.0832  0.1852
97903W        W40816  15.971  32.758  22.088 -0.2074  0.1523  0.0261
97904W        W40817  15.872  26.527  16.597 -0.1172  0.1560 -0.0053
97905W        W40818  14.257  24.661  16.662 -0.1792 -0.0511 -0.1332
97906W        W40819  25.940   6.528  25.173 -0.2662 -0.0695 -0.3109
97907W        W40820  33.389  28.589  15.290  0.1229 -0.0475 -0.0392
97908W        W40821  26.955  30.754  17.191 -0.0750 -0.1902  0.0852
97909W        W40822  26.522  29.390  14.110 -0.3424 -0.4970 -0.4477
97910W        W40823  24.774  24.290  16.325  0.1126 -0.0575 -0.2628
97911W        W40824  14.460  29.818  21.586  0.1899 -0.0062  0.1577
97912W        W40825   8.522   1.676  19.145 -0.0845 -0.3987 -0.2334
97913W        W40826  19.041  33.937  22.268  0.5746 -0.0732  0.1015
97914W        W40827   7.515   7.853  22.710  0.1008 -0.0280  0.3321
97915W        W40828  15.395  30.692   4.317  0.3793 -0.1147 -0.1791
97916W        W40829  12.916  23.792  29.249  0.2319  0.0246 -0.0470
97917W        W40830  32.216   1.968  22.348  0.3527 -0.0812  0.1853
97918W        W40831  24.532  27.055  15.356 -0.3368  0.2531 -0.0857
97919W        W40832  21.272  33.867  14.872 -0.0521  0.1464 -0.4186
97920W        W40833  17.246  31.668  17.962  0.0322 -0.1416  0.0911
97921W        W40834  16.849  27.598  24.725 -0.0534  0.0718 -0.0611
97922W        W40835  21.835   2.418  21.029  0.3922 -0.3527  0.0271
97923W        W40836  11.050  34.208  29.238  0.1322 -0.1064  0.0124
97924W        W40837  24.670   0.439  20.455 -0.1093  0.0516 -0.1642
97925W        W40838   9.917   2.453  18.181  0.4229 -0.0730 -0.2064
97926W        W40839  24.409  32.346  18.385 -0.1065 -0.2266  0.0790
97927W        W40840  22.460  33.921  17.218  0.2671  0.1480  0.2808
97928W        W40841  14.442  31.939  28.798 -0.1329  0.1822 -0.0711
97929W        W40842  12.262  11.559  21.164  0.0900 -0.1897 -0.1129
97930W        W40843  18.225   0.248  17.804  0.3537  0.2378  0.2742
97931W        W40844  12.344  30.676  19.111 -0.1335  0.0094 -0.2389
97932W        W40845  16.297   2.251  21.474 -0.1289 -0.0654  0.3689
97933W        W40846   4.439  32.060  20.373  0.2610 -0.1391  0.2354
97934W        W40847  16.371   5.777  19.585  0.1640  0.0464  0.1133
97935W        W40848  11.574  26.763  17.863  0.0096 -0.0710 -0.0102
97936W        W40849  16.159  33.957  15.053 -0.2120  0.0267  0.0693
97937W        W40850   2.644   2.351  26.492 -0.0225 -0.3601 -0.3021
97938W        W40851  23.626   1.224  15.367 -0.0714 -0.2229 -0.0477
97939W        W40852  20.278  30.011  17.636  0.1067  0.1730 -0.1833
97940W        W40853  20.652   0.194  18.967 -0.1289  0.0490 -0.1573
97941W        W40854  29.690   5.094  16.709  0.0708  0.0876  0.1427
97942W        W40855  27.472  26.198  20.617 -0.4258  0.1894  0.3141
97943W        W40856  10.976  27.400  18.416  0.1573  0.1074 -0.3000
97944W        W40857  19.359   0.520   4.092  0.3767 -0.2778  0.1415
97945W        W40858  30.226   0.838  24.589  0.2169 -0.1366  0.3604
97946W        W40859  22.745   7.946  14.799  0.1386 -0.0536 -0.1016
97947W        W40860  10.076  31.311  22.627  0.0203  0.0652  0.2717
97948W        W40861   9.582  10.561  19.418  0.0800  0.0695 -0.1499
97949W        W40862  20.620  24.099  19.299 -0.0964 -0.1539  0.0169
97950W        W40863  12.295   0.939  18.594  0.0376  0.1531 -0.1204
97951W        W40864  16.257  33.492  19.469 -0.0037 -0.1223  0.0726
97952W        W40865  11.764  11.584   8.373 -0.0510  0.0639 -0.3393
97953W        W40866  21.912  33.887  27.104  0.1366  0.1905 -0.2222
97954W        W40867  17.759  17.463  15.248  0.2004 -0.0612  0.3693
97955W        W40868  23.418   4.012  24.230  0.1365  0.0920  0.1365
97956W        W40869  20.512  28.479  22.155  0.4057  0.1510  0.3871
97957W        W40870   8.132   8.785  27.468  0.2619 -0.2662  0.2131
97958W        W40871  14.047  33.057  22.726 -0.0568  0.0831 -0.2063
97959W        W40872  22.559  24.979  22.286 -0.4442 -0.2836  0.0893
97960W        W40873  20.564  32.225  17.847 -0.0627  0.3450 -0.1519
97961W        W40874  16.686  29.331  14.815 -0.0903 -0.0248 -0.0989
97962W        W40875  17.040   7.107  19.532 -0.2152 -0.0209 -0.1440
97963W        W40876   9.630   6.263  22.867  0.3303  0.0586  0.0936
97964W        W40877  20.773  24.996  23.167 -0.2043 -0.2586  0.1425
97965W        W40878  21.260  24.792  15.020  0.3103  0.0218 -0.1964
97966W        W40879  12.483  12.959  23.069  0.2708 -0.3223 -0.1316
97967W        W40880  19.709  24.928  18.074 -0.3638 -0.4572 -0.2585
97968W        W40881  19.914  29.516  14.486 -0.2051 -0.2654 -0.1208
97969W        W40882  20.386   0.008  16.119  0.2402 -0.0106 -0.1169
97970W        W40883  10.691   5.013  21.762  0.1299 -0.0028  0.2497
97971W        W40884  23.894  10.355  25.016 -0.1858 -0.1664  0.1043
97972W        W40885  28.723  25.496  13.865 -0.1201 -0.4425  0.1278
97973W        W40886  26.240   1.901  18.014  0.3095 -0.0799 -0.0400
97974W        W40887  24.337  20.305  14.076  0.3103 -0.3159  0.1678
97975W        W40888  17.790  31.685  28.419  0.1172  0.0344  0.1039
97976W        W40889  11.664   0.240  27.232 -0.0907  0.0141  0.0926
97977W        W40890  15.044   0.660  27.952  0.2330 -0.0758  0.0154
97978W        W40891   9.628  34.009  17.456  0.0084  0.1275 -0.0114
97979W        W40892  27.814   7.522  18.489  0.1048  0.1124  0.1892
97980W        W40893  20.293  27.635  26.761  0.0022  0.2558  0.2114
97981W        W40894  29.872  17.652  22.661  0.2896 -0.1843  0.2257
97982W        W40895  25.325   4.297  18.726 -0.2489 -0.0691  0.1510
97983W        W40896  18.558   4.878  23.362 -0.0559 -0.3789 -0.2105
97984W        W40897  15.672  18.919  13.424  0.3197 -0.0425 -0.1086
97985W        W40898  18.501  24.314  20.051  0.1283 -0.0766  0.2216
97986W        W40899  18.935   0.789  28.947  0.0164 -0.0253  0.1412
97987W        W40900  16.108   2.819  29.389 -0.2898  0.3035  0.0955
97988W        W40901   8.646   4.590  19.429  0.0771  0.0059 -0.0148
97989W        W40902  23.902   4.664  28.737 -0.3023 -0.2080 -0.2255
97990W        W40903  16.719  14.143  15.943  0.1665  0.0450  0.2297
97991W        W40904  10.641   9.438  24.279 -0.3261 -0.0027  0.2579
97992W        W40905  21.483  18.315  12.567 -0.1000 -0.3059  0.0114
97993W        W40906  18.718  30.262   3.958  0.1623  0.1711 -0.0413
97994W        W40907  16.001  23.532  17.809 -0.1334  0.2105 -0.1816
97995W        W40908   3.624  34.484  17.933 -0.0413 -0.2152 -0.3368
97996W        W40909  15.562   3.228   1.079  0.6068 -0.1677  0.2448
97997W        W40910  29.257   2.760  18.268 -0.3045  0.1909 -0.1931
97998W        W40911  16.457  34.117  27.209 -0.0812  0.0475 -0.4232
97999W        W40912  14.727  27.489  23.316 -0.0169  0.2552 -0.0737
98000W        W40913  17.218   9.857  28.871 -0.1433  0.1401 -0.1482
98001W        W40914  27.561   9.032   0.344  0.1780  0.1259 -0.2374
98002W        W40915  12.464   1.063  22.991  0.1772  0.2087 -0.2006
98003W        W40916  28.711  24.685  13.400 -0.3065 -0.0197 -0.1378
98004W        W40917  21.644  31.313  26.207  0.4105 -0.0461  0.1318
98005W        W40918  17.780  28.862  29.268 -0.0967 -0.1370 -0.1166
98006W        W40919  31.593   1.488  15.488 -0.1230  0.0345 -0.2204
98007W        W40920  27.094  14.183  27.855  0.1061 -0.1034  0.2072
98008W        W40921   9.844  23.771  20.828  0.2506 -0.1060 -0.2509
98009W        W40922  14.104  33.295   5.100  0.1311  0.2225  0.1509
98010W        W40923   1.797  27.626  24.306 -0.1316 -0.2517 -0.0083
98011W        W40924  19.929   1.960   8.493  0.1693 -0.4715  0.0038
98012W        W40925  22.743   6.686  13.715 -0.1958 -0.0785 -0.4099
98013W        W40926  19.700  11.351  26.678  0.1352  0.2835 -0.0789
98014W        W40927  25.887  31.772  23.264  0.2044  0.1006 -0.1848
98015W        W40928  21.836   5.729   3.649 -0.0538  0.2108 -0.1372
98016W        W40929  25.491  29.627  21.275  0.0752 -0.1259 -0.1872
98017W        W40930  20.995   4.326  21.771  0.0674  0.2037  0.1452
98018W        W40931  14.674   2.446  21.643 -0.2223 -0.3022  0.2208
98019W        W40932  21.901  28.466  22.065  0.1091  0.0031 -0.3176
98020W        W40933  21.881  16.878  22.918 -0.1770  0.0609  0.0916
98021W        W40934  20.987   2.508  21.376  0.2890  0.1787 -0.0265
98022W        W40935  13.725  19.648  20.697  0.1615 -0.0107 -0.2313
98023W        W40936  19.002   4.668  27.683  0.2502 -0.0771  0.1281
98024W        W40937  21.692  31.885  22.295 -0.1694 -0.0486  0.1308
98025W        W40938  11.508  34.486  26.251 -0.0301  0.1812  0.0727
98026W        W40939   8.595  33.031  25.758  0.0193  0.0219 -0.1496
98027W        W40940  23.262  32.048  24.318  0.1207 -0.0982 -0.1194
98028W        W40941  32.260  30.405  22.214  0.0289  0.0877 -0.1034
98029W        W40942  27.810  26.416  13.583 -0.1376  0.2358 -0.0044
98030W        W40943  23.739  29.228  27.571  0.2787 -0.1603  0.3286
98031W        W40944  21.659  24.788  23.367 -0.3152 -0.0417  0.1034
98032W        W40945  27.644  27.922  19.342 -0.1033  0.2870  0.0015
98033W        W40946  23.502  30.705  20.912  0.3595  0.0480 -0.2196
98034W        W40947  22.669  25.957  16.010 -0.1468 -0.0537 -0.2657
98035W        W40948  31.676   2.080  21.330 -0.0285  0.0103  0.1261
98036W        W40949  16.317  31.063  18.059 -0.0173 -0.2357  0.2585
98037W        W40950  19.436   1.653  26.662  0.0452  0.0033  0.1555
98038W        W40951  14.676   1.439  17.748 -0.1256  0.1828  0.1155
98039W        W40952  26.021  22.986  25.240 -0.0749  0.0635 -0.3393
98040W        W40953  14.098   1.114  29.699 -0.3746  0.1313  0.3320
98041W        W40954  15.944   3.687  23.046  0.2153 -0.1399 -0.0097
98042W        W40955  22.965  24.757   3.104 -0.0745  0.2476 -0.3633
98043W        W40956  30.809  29.243  26.462  0.1400  0.1063 -0.0351
98044W        W40957  11.251  32.140  28.494  0.2524 -0.2854  0.1503
98045W        W40958  22.708  29.364  16.557 -0.3099  0.1218 -0.0564
98046W        W40959  26.227  26.486  29.741  0.3165  0.5383  0.3086
98047W        W40960  17.820   2.096  16.576  0.2455  0.1799  0.0522
98048W        W40961  17.885   7.080  21.733  0.0036 -0.0672 -0.0873
98049W        W40962  27.427   0.342  21.100  0.3215  0.0435 -0.2317
98050W        W40963  23.717  25.950  18.231  0.2873  0.2936 -0.0581
98051W        W40964  20.283   9.221  28.845  0.1548 -0.3107  0.0123
98052W        W40965  27.200  28.861  20.162 -0.0200 -0.1938  0.1390
98053W        W40966  16.659  28.732  28.125 -0.1244 -0.1506  0.0732
98054W        W40967  31.352  24.432  16.545  0.1096  0.2459  0.0376
98055W        W40968  25.544   5.767  28.068 -0.2772  0.1911 -0.4025
98056W        W40969   8.385  29.323  25.706 -0.1876 -0.1363  0.0430
98057W        W40970  14.962   4.765  18.111 -0.1284 -0.0205  0.0794
98058W        W40971  12.741   5.599  19.644  0.0462  0.1117  0.0232
98059W        W40972  17.607  17.104   1.280  0.0094  0.1173  0.3017
98060W        W40973   8.468   5.677  20.005  0.0838  0.0253  0.2274
98061W        W40974  18.768  32.285  21.111 -0.1217  0.2891  0.2071
98062W        W40975  28.823   2.987  29.761  0.2004 -0.1578  0.0932
98063W        W40976  26.174  27.271  22.417  0.1627 -0.0521 -0.4057
98064W        W40977   8.156  33.483  27.686 -0.0984 -0.3732  0.0713
98065W        W40978  25.510  34.372  17.430 -0.0159  0.2060 -0.1945
98066W        W40979  24.380   3.593  14.844 -0.2056 -0.1659 -0.1045
98067W        W40980  21.368   2.211  17.249 -0.0358  0.1942 -0.1373
98068W        W40981  20.747   6.375  20.303 -0.1562 -0.3468 -0.1800
98069W        W40982  18.701  34.011  26.285  0.1224 -0.0763  0.0876
98070W        W40983  21.215   6.451  15.682 -0.0746  0.1522 -0.0249
98071W        W40984  23.543  19.818   3.201 -0.3251  0.0468  0.3033
98072W        W40985  14.330   1.872  28.022  0.2415 -0.4077  0.1763
98073W        W40986  14.783  32.407  25.319 -0.2532  0.0197 -0.0326
98074W        W40987  19.677  33.604  15.846 -0.2606  0.2311  0.0655
98075W        W40988  11.996  25.343  19.178  0.3403  0.0055  0.1287
98076W        W40989  14.445  24.433  22.838 -0.1277 -0.7154 -0.0398
98077W        W40990  28.347  29.107  19.447  0.0542 -0.0445  0.1585
98078W        W40991  21.394  22.205  23.835  0.0037 -0.1139  0.2124
98079W        W40992  15.306  32.506  28.684  0.0619 -0.0649  0.0827
98080W        W40993  13.872   0.300  24.774 -0.0005 -0.0978  0.0391
98081W        W40994   7.307  13.258  25.193 -0.3203  0.0173  0.2041
98082W        W40995  16.066   1.831  25.483 -0.0672 -0.4549 -0.3252
98083W        W40996  15.373  26.218  24.795 -0.0108 -0.1048  0.0053
98084W        W40997  21.116   3.948   4.698  0.2025  0.1115 -0.1679
98085W        W40998  14.405   0.258  23.173 -0.4823 -0.0941  0.3129
98086W        W40999  22.561  30.058  13.130 -0.1633  0.0161  0.1728
98087W        W41000  20.991  20.695  26.781 -0.0139  0.4243  0.0674
98088W        W41001  21.038   4.310   6.295  0.1531  0.1420 -0.2973
98089W        W41002   8.956  20.971  19.731  0.1473  0.2153  0.3116
98090W        W41003  29.820  32.903  15.596 -0.1112  0.0988  0.2978
98091W        W41004  14.048   1.726   0.659 -0.0975  0.2351 -0.2786
98092W        W41005  21.238  34.145   1.180 -0.0156 -0.0740  0.0476
98093W        W41006  22.184   6.936  26.264  0.1100 -0.3392 -0.0427
98094W        W41007  20.950  23.604  28.932  0.2737 -0.0265 -0.1680
98095W        W41008   8.136   0.196  21.791 -0.3925  0.0723  0.0335
98096W        W41009  18.148  29.935  19.297  0.0104 -0.0549 -0.1546
98097W        W41010  19.503  29.957  27.971 -0.1608 -0.0045 -0.0487
98098W        W41011  20.981  29.137  14.126 -0.0779  0.0720  0.4169
98099W        W41012  22.317  28.067  15.325  0.0229 -0.0650 -0.2783
98100W        W41013  19.866  31.137  20.231  0.2349  0.2667  0.0129
98101W        W41014  17.433  32.719  19.794 -0.2044 -0.0710  0.2064
98102W        W41015  33.797  25.682   2.820  0.2649  0.1481  0.1757
98103W        W41016  22.770  33.369  19.751 -0.0298 -0.4224 -0.0972
98104W        W41017  15.293  29.257  25.222 -0.0876 -0.0629 -0.0396
98105W        W41018  17.075  32.147  21.616  0.0087  0.2691  0.3631
98106W        W41019  18.685  11.992  14.270 -0.1203 -0.1969  0.2991
98107W        W41020  15.207  30.537  19.429 -0.1284  0.2928 -0.0168
98108W        W41021  16.111   5.290  18.780  0.0977  0.0487  0.1062
98109W        W41022  25.594  31.562  17.125  0.2093 -0.1323  0.2439
98110W        W41023  20.949  31.388  26.813  0.3463 -0.1684 -0.3086
98111W        W41024  11.732  29.357  25.333 -0.2997  0.1328 -0.2663
98112W        W41025  26.577   7.317  25.560 -0.0273  0.0750 -0.1599
98113W        W41026  21.314  29.189   5.451  0.1188 -0.1818  0.1909
98114W        W41027  22.031  28.687  25.014 -0.2762  0.2250 -0.0745
98115W        W41028  21.745  31.307  17.974 -0.0138 -0.1678  0.3353
98116W        W41029  23.816  26.332  22.643  0.1151 -0.0135  0.0512
98117W        W41030  25.892   1.287  18.739 -0.1266  0.1086  0.0046
98118W        W41031  26.202  26.689  16.664 -0.2183 -0.0070  0.3600
98119W        W41032   2.244  30.592  24.886  0.0594  0.4133 -0.1110
98120W        W41033  24.471   1.118  18.688  0.1461  0.1297 -0.1006
98121W        W41034  28.911  25.833  16.603 -0.1305  0.1734 -0.1948
98122W        W41035  23.871  33.432  29.485  0.3608  0.4518 -0.1109
98123W        W41036  11.602   2.712  29.463  0.0333  0.0666  0.0516
98124W        W41037  21.082  19.034   4.272 -0.1651  0.0897  0.0238
98125W        W41038  21.221  31.904  19.127 -0.4440 -0.2395  0.2107
98126W        W41039  14.843  33.920  25.227 -0.1407  0.3856  0.5306
98127W        W41040  24.916   4.008  22.041  0.1798 -0.0469  0.1091
98128W        W41041  24.285  14.649  18.460 -0.0898  0.0666  0.1321
98129W        W41042  21.668  33.376  22.690  0.4436 -0.0654  0.0169
98130W        W41043  15.781  33.938  25.116 -0.0172  0.0945  0.2228
98131W        W41044  14.001  29.785  26.756  0.1142  0.1086  0.1216
98132W        W41045   5.273   1.732  20.610 -0.0443 -0.0503  0.0138
98133W        W41046  19.880  20.653  22.318  0.0575  0.1821 -0.0527
98134W        W41047  16.347  28.216  20.641  0.2117 -0.2223  0.0457
98135W        W41048   8.589  31.627  27.768 -0.0144  0.2100 -0.1135
98136W        W41049  27.169  34.114  23.233  0.1158  0.1762 -0.0958
98137W        W41050  19.310  30.142   0.425  0.2691  0.2754  0.0953
98138W        W41051  20.457  25.997  17.616 -0.0543  0.2584 -0.0393
98139W        W41052  20.085   3.220  26.101 -0.1479 -0.4583 -0.1705
98140W        W41053  14.279   8.462  16.612  0.0301  0.2395  0.2144
98141W        W41054  15.669  33.018  19.726 -0.0233  0.0435  0.4197
98142W        W41055  11.104  23.597  15.294  0.0822 -0.0172  0.4030
98143W        W41056  12.985  26.451  20.920  0.0139 -0.1375 -0.1718
98144W        W41057   8.548  33.360  19.638 -0.0569  0.2172  0.0298
98145W        W41058  31.418  26.513   0.761 -0.0979 -0.1868 -0.0833
98146W        W41059  17.613   3.196  23.041 -0.1567 -0.3011 -0.0040
98147W        W41060  18.469  34.218   2.441 -0.3980 -0.0446  0.0626
98148W        W41061  25.703  28.390  18.575 -0.0984 -0.2171  0.1615
98149W        W41062  27.120   4.807  24.505  0.0364 -0.2472 -0.0450
98150W        W41063  13.595   3.056  10.588  0.0382 -0.4550  0.0101
98151W        W41064  25.022  29.608  23.973 -0.2433  0.2878  0.2100
98152W        W41065  25.199   8.296  19.008  0.0046 -0.0075 -0.0693
98153W        W41066  18.640  32.385  23.340  0.1567  0.2466  0.0352
98154W        W41067  21.509  11.614  24.771 -0.1903  0.0048  0.2553
98155W        W41068  17.054   3.136  23.747 -0.3156  0.0684 -0.0267
98156W        W41069  26.719  27.121  25.867  0.1963 -0.1289 -0.0615
98157W        W41070  20.998   0.541  21.667 -0.0443  0.1553 -0.2957
98158W        W41071  30.006   4.549  24.167  0.0456 -0.4647  0.0666
98159W        W41072  22.307   0.387  19.091  0.0759 -0.1543  0.0230
98160W        W41073  10.572   6.279  21.901  0.0988  0.0865  0.1464
98161W        W41074  17.638  22.508  29.704 -0.0293 -0.1007 -0.3265
98162W        W41075  20.962   2.514   4.501 -0.1214  0.0608  0.1603
98163W        W41076  12.042  24.836  22.787 -0.2920 -0.1168  0.1964
98164W        W41077  20.497  28.363  22.685 -0.2843 -0.0073 -0.0105
98165W        W41078  27.708   1.618  26.704  0.2362 -0.1008  0.0107
98166W        W41079   6.034  22.395  24.277 -0.0092 -0.0830  0.3953
98167W        W41080  10.641  26.830  16.271 -0.1806  0.0565  0.0177
98168W        W41081  14.790   3.664  27.054  0.1165  0.1323 -0.0323
98169W        W41082  12.711   3.496  19.082 -0.0000  0.0362 -0.0491
98170W        W41083  26.854  26.882  25.423 -0.1110 -0.1188  0.4093
98171W        W41084  11.844  27.738   4.897 -0.1838  0.1248 -0.1727
98172W        W41085  30.449   3.013  19.753  0.1772 -0.2404  0.1585
98173W        W41086  16.628  33.382  16.141 -0.0267 -0.1253 -0.0933
98174W        W41087  23.339   2.469  23.036  0.0809 -0.2112 -0.2107
98175W        W41088  26.299  10.622  23.282 -0.2289 -0.0762  0.0173
98176W        W41089  20.716  32.568   7.945  0.0395  0.0289 -0.0563
98177W        W41090  18.770   9.469  23.912  0.0519 -0.0700 -0.0236
98178W        W41091  21.919  29.364  20.943  0.1406 -0.1654  0.0210
98179W        W41092  10.362   8.072  26.254 -0.0144 -0.2919  0.1450
98180W        W41093  30.411   3.657  29.232  0.0566  0.1096  0.0623
98181W        W41094  22.519   2.566   8.429  0.0600  0.1085 -0.1130
98182W        W41095  19.617  29.066  23.390  0.0857  0.3880  0.2285
98183W        W41096  16.904  19.710  14.951  0.0441  0.2032 -0.2035
98184W        W41097  15.026  31.434   1.099  0.3103 -0.0721 -0.1045
98185W        W41098  24.687   7.957  15.286 -0.0598 -0.2052 -0.1558
98186W        W41099  10.066   3.797  18.620  0.2694 -0.1468  0.0491
98187W        W41100  26.262  24.186  14.222 -0.2765 -0.0673  0.0523
98188W        W41101  21.331  19.116  16.298  0.4696  0.1695 -0.0813
98189W        W41102  22.293   0.192  15.611  0.1754 -0.2610  0.2941
98190W        W41103   9.355  17.650  15.049  0.0113 -0.0274  0.3281
98191W        W41104  17.003   3.638  23.706  0.1709  0.2745  0.2645
98192W        W41105  27.181   2.558  16.785 -0.1544 -0.0883 -0.1585
98193W        W41106   6.315   4.191  22.652  0.1113 -0.1041 -0.2584
98194W        W41107  13.388   2.584  24.035  0.0327 -0.1464  0.1473
98195W        W41108  25.786  30.521  18.993 -0.0641  0.0031 -0.3681
98196W        W41109   8.952  25.177  29.202 -0.0896 -0.2313  0.2961
98197W        W41110  10.377  27.028  28.368 -0.0081  0.0320 -0.2064
98198W        W41111  21.372  21.931  21.898  0.1504  0.3434 -0.1676
98199W        W41112  22.304  29.664  25.095  0.0980 -0.2551 -0.1856
98200W        W41113  13.609  24.900  23.295 -0.2205 -0.1993 -0.2733
98201W        W41114  16.114  25.916  20.050 -0.0366 -0.1404  0.0641
98202W        W41115  13.492  22.305   3.832  0.1317  0.1622 -0.1859
98203W        W41116  14.841   7.444  19.622  0.0023  0.1593 -0.1398
98204W        W41117  23.425  25.656   0.219  0.0036 -0.2337  0.1893
98205W        W41118  25.895  28.589  19.784 -0.0156 -0.2008 -0.1305
98206W        W41119  21.611  33.417  29.043  0.2367  0.1791 -0.1151
98207W        W41120  15.750  33.479  28.883  0.0943  0.3894  0.1331
98208W        W41121  20.960  31.221   0.361 -0.2689 -0.0215 -0.0047
98209W        W41122  17.259  27.119  24.578 -0.2369  0.1907  0.1590
98210W        W41123  17.205   4.181  19.011 -0.2136  0.0708 -0.1821
98211W        W41124  18.539  32.770  26.555 -0.0767 -0.1078  0.2761
98212W        W41125   9.384  19.799  20.638 -0.1923 -0.1939 -0.2197
98213W        W41126  10.069   5.974  11.529 -0.3620 -0.1850  0.0208
98214W        W41127  16.813  20.799  24.816  0.1505 -0.0105  0.1959
98215W        W41128  19.053  31.572  25.762  0.1973  0.2873  0.0802
98216W        W41129  28.349  31.605  28.629 -0.0950 -0.1254  0.0923
98217W        W41130  15.515  27.348  27.514 -0.0623 -0.0826 -0.2678
98218W        W41131  28.805  33.111  14.478  0.0886 -0.0702 -0.2245
98219W        W41132  16.057   7.242  24.476  0.0679 -0.2643 -0.3526
98220W        W41133  10.829  33.152   2.754 -0.1986 -0.1624 -0.0918
98221W        W41134  30.957   2.502   6.820 -0.0448  0.1282  0.0384
98222W        W41135   7.613  32.412  25.039  0.2239 -0.0509  0.0434
98223W        W41136  26.037   2.412   7.768 -0.0846  0.1705 -0.1125
98224W        W41137  24.766  26.224  27.720 -0.0659 -0.1432 -0.0961
98225W        W41138  19.933   4.440   5.680 -0.3604  0.1165 -0.1024
98226W        W41139  16.839  33.557  29.626 -0.2188  0.0720 -0.2886
98227W        W41140  20.908  25.160  27.301  0.2631 -0.2086 -0.2636
98228W        W41141  12.083  21.266  29.676 -0.3121 -0.0911  0.1360
98229W        W41142  26.402   6.018  16.304 -0.0061  0.2368 -0.0518
98230W        W41143  21.008   5.234  15.535  0.0087 -0.1172  0.0709
98231W        W41144  22.661  28.115  23.402  0.0413 -0.2180  0.1391
98232W        W41145  18.515  29.846   0.704 -0.0098  0.0426  0.2340
98233W        W41146  22.722  30.544  23.897  0.2242  0.0830  0.0856
98234W        W41147  27.117  26.040   6.871  0.0291 -0.0834 -0.0543
98235W        W41148  16.647  32.010  22.762 -0.1487  0.0947  0.0532
98236W        W41149  27.367   3.039   3.254 -0.1526  0.3540 -0.0057
98237W        W41150  34.334   6.419  24.801  0.3287 -0.0024  0.1892
98238W        W41151  14.209  23.093  18.083 -0.1838  0.0088 -0.0107
98239W        W41152  20.706  29.236  25.658 -0.0351 -0.2210  0.1999
98240W        W41153   7.283  31.226   2.638  0.1527 -0.0728 -0.1076
98241W        W41154  24.888  28.780  19.404 -0.0546  0.1094  0.1645
98242W        W41155  14.132  30.101  24.424  0.1546 -0.2224  0.3081
98243W        W41156  18.600  26.759  22.160 -0.5329 -0.1798  0.0196
98244W        W41157  27.995  29.059   8.085 -0.0318 -0.2498 -0.1422
98245W        W41158  20.061  29.903  19.006  0.1220 -0.0005 -0.2882
98246W        W41159  18.107   0.482   5.593  0.0990  0.0063  0.2106
98247W        W41160   3.899  33.870   5.442 -0.0779  0.0942  0.1147
98248W        W41161  12.624  26.609  20.466  0.0274 -0.1066 -0.1941
98249W        W41162  12.581  34.172   0.253  0.2125  0.3143 -0.1724
98250W        W41163  27.008  16.401  21.186  0.0876  0.1536  0.1385
98251W        W41164  13.885   2.120   3.658  0.0155  0.1369  0.1830
98252W        W41165  16.166  27.459   0.220 -0.2110  0.0635  0.1332
98253W        W41166  17.892   6.732  26.090  0.1690 -0.3023 -0.3607
98254W        W41167  24.235  26.013  22.101  0.2758 -0.0289  0.0476
98255W        W41168  29.906  30.523   5.342 -0.0905 -0.0061  0.1956
98256W        W41169  31.616  32.975  24.341 -0.0298 -0.0138 -0.0406
98257W        W41170  33.103   7.483  28.817 -0.0949 -0.1549  0.1183
98258W        W41171  20.688  29.009   4.080 -0.1337 -0.1130 -0.2034
98259W        W41172  25.185  25.984  27.922 -0.2042 -0.0501  0.0921
98260W        W41173  26.594  31.398  18.458  0.1927 -0.3300 -0.0021
98261W        W41174  16.728   1.573   4.136  0.2933 -0.2556 -0.2917
98262W        W41175  12.177  20.115   2.872 -0.1742  0.1049  0.1576
98263W        W41176  31.669  26.540  24.871 -0.0511  0.2478  0.3010
98264W        W41177  28.360   4.005   0.479  0.1461 -0.3936  0.0021
98265W        W41178  33.974  27.720  20.693 -0.0975  0.0207  0.0410
98266W        W41179  20.430  32.531  20.875 -0.1531 -0.5935 -0.0590
98267W        W41180   9.214   7.823  22.003  0.2200  0.1249  0.1398
98268W        W41181  18.603  24.480  26.434 -0.3258 -0.1194 -0.1193
98269W        W41182  24.027  30.428  22.984  0.2326 -0.2487 -0.1033
98270W        W41183   7.189  22.457  28.591  0.2813 -0.2176 -0.0040
98271W        W41184  13.592  33.034   2.203 -0.0281  0.3946 -0.0369
98272W        W41185   9.930   0.541  18.012  0.0578  0.0599  0.2059
98273W        W41186  13.452  22.622  26.299 -0.1164  0.3100  0.3293
98274W        W41187  12.972   2.581  29.223 -0.1767 -0.3236 -0.2112
98275W        W41188  30.193  27.799  28.408  0.1270  0.0673 -0.0124
98276W        W41189  19.531  31.207  20.927 -0.1551 -0.1950  0.1265
98277W        W41190  15.302  26.986  25.386  0.1801 -0.1278 -0.4018
98278W        W41191  22.171  30.573   1.553 -0.1339  0.2098  0.2651
98279W        W41192  24.068  11.191   1.890 -0.1732 -0.0477  0.0747
98280W        W41193   8.501  30.300  21.849  0.3143  0.1161 -0.2964
98281W        W41194  12.232  22.885   7.795 -0.0254  0.0513 -0.2635
98282W        W41195  13.658  30.823  10.863  0.0929  0.2808 -0.1214
98283W        W41196  13.314  27.367   4.371  0.1628  0.0140 -0.1379
98284W        W41197  12.871  27.364   9.912  0.3736 -0.1158 -0.0385
98285W        W41198  21.540   7.583   3.591  0.0807  0.1105 -0.1010
98286W        W41199  20.862  31.672  20.886 -0.1836 -0.2342 -0.1096
98287W        W41200  31.431  28.933   2.973  0.1248 -0.0592  0.1051
98288W        W41201   9.368  33.516  28.254 -0.1034  0.0318  0.2171
98289W        W41202  26.049  25.088  22.200 -0.1720 -0.2822 -0.0654
98290W        W41203  14.292  24.703  24.879 -0.1209  0.3180  0.0911
98291W        W41204  29.981  30.086  28.321  0.1742  0.2946  0.1484
98292W        W41205  21.647   5.781   1.440  0.1398  0.2299 -0.1619
98293W        W41206  20.513  29.240  18.075  0.0664  0.1339  0.1814
98294W        W41207  23.639  30.242  21.313  0.0010  0.0898  0.0814
98295W        W41208  17.682   5.914  23.032  0.2303 -0.2038  0.2307
98296W        W41209   6.706  33.698  26.247  0.3332  0.0345 -0.0243
98297W        W41210  21.546  24.362   4.245 -0.0591  0.1075  0.0145
98298W        W41211  15.042   2.596   1.648 -0.0269  0.1752  0.0252
98299W        W41212  16.499  30.946   6.745  0.0199 -0.1019 -0.2096
98300W        W41213   9.717  27.372  15.806 -0.1980  0.1134 -0.1834
98301W        W41214  13.226  22.208  25.757  0.1025  0.0064  0.1882
98302W        W41215  28.322   6.354  23.643 -0.0768  0.2174 -0.4304
98303W        W41216  17.139  24.022  29.456  0.0364  0.0837  0.1210
98304W        W41217  12.116  31.216  24.111  0.4351 -0.0586  0.0887
98305W        W41218  19.928   1.513  23.016  0.1741 -0.1059 -0.0212
98306W        W41219  18.360  28.918   0.335 -0.0712  0.1487 -0.1273
98307W        W41220  29.530   2.819  28.018  0.1332 -0.2338 -0.1539
98308W        W41221  20.738  22.412  27.024  0.0479  0.1534 -0.0463
98309W        W41222  20.240  33.887   4.235  0.1780  0.1525 -0.0241
98310W        W41223  19.290  23.981  13.520 -0.0536  0.2888 -0.0899
98311W        W41224  26.043  34.428  23.872 -0.2172 -0.0855  0.0344
98312W        W41225  18.287   7.109  22.332  0.2671  0.0253 -0.1327
98313W        W41226  21.110  29.011  20.689  0.1870 -0.2360  0.1047
98314W        W41227  30.854   4.692  28.523 -0.2911  0.1584  0.3377
98315W        W41228  15.159   2.828   4.742 -0.2512  0.1592  0.0247
98316W        W41229  16.535   0.555   3.040  0.2859 -0.1094  0.1958
98317W        W41230  11.177  31.904   2.047 -0.0593  0.0437 -0.2898
98318W        W41231  16.378  27.536  28.285  0.0684 -0.2414 -0.1484
98319W        W41232  20.942  31.857  15.873 -0.0312 -0.1236 -0.0364
98320W        W41233  28.040  27.162   0.648  0.2144  0.0228  0.2334
98321W        W41234  13.489  28.320  28.476  0.0345 -0.3145  0.0582
98322W        W41235  27.453  30.936  24.028 -0.1712 -0.3066 -0.1479
98323W        W41236  18.316   7.336  23.924 -0.1084 -0.2286  0.0513
98324W        W41237  28.968   1.356   6.135  0.0803  0.1496 -0.0793
98325W        W41238  27.070  15.812  21.355  0.1856 -0.0694  0.0867
98326W        W41239  21.797  28.410  27.592 -0.1745  0.0395 -0.0315
98327W        W41240  17.642  12.718   1.503 -0.0111 -0.0309 -0.0945
98328W        W41241  16.084  20.202  22.543  0.0600  0.4183  0.0675
98329W        W41242  27.884   9.215  28.328 -0.2470  0.0101 -0.1781
98330W        W41243  24.193  26.427  29.434  0.2014 -0.0405 -0.3577
98331W        W41244  26.416  10.197  23.456 -0.0248  0.2581 -0.1770
98332W        W41245  23.116   4.450  28.408 -0.1051  0.2365 -0.1047
98333W        W41246  17.679  27.999   0.508  0.1914  0.4908  0.2376
98334W        W41247  19.303  10.482  22.153 -0.1476  0.0373 -0.3191
98335W        W41248  28.968   0.188  23.956 -0.1063  0.3323 -0.0994
98336W        W41249  23.982  25.541  26.180  0.1442 -0.1250 -0.2155
98337W        W41250  20.994  32.082   5.113 -0.2778 -0.0417 -0.1757
98338W        W41251  19.699   0.384   1.188  0.3664 -0.1774  0.1784
98339W        W41252  11.004  29.778  22.107 -0.2052  0.4644 -0.1777
98340W        W41253  14.941   3.023   3.521  0.0466  0.2355 -0.1821
98341W        W41254  18.328   6.528  26.796 -0.1241 -0.0498 -0.0139
98342W        W41255  20.158   5.425  27.266  0.2117  0.1693 -0.0888
98343W        W41256  16.365  31.040  29.703 -0.1360  0.0927  0.0251
98344W        W41257  17.063  31.552   6.170  0.1365 -0.0173 -0.1384
98345W        W41258  19.307  29.181  26.983  0.2964  0.1314  0.1026
98346W        W41259  14.962  22.433  27.813 -0.1191 -0.1084  0.1550
98347W        W41260  20.015  29.153   2.775  0.0293 -0.3974  0.0740
98348W        W41261  24.494   3.834  17.342 -0.0082 -0.1897 -0.1735
98349W        W41262  22.307   1.985   2.381 -0.0910 -0.3964 -0.2503
98350W        W41263  17.511   6.256   2.111  0.0833  0.0136 -0.1378
98351W        W41264  18.621  22.944  17.970 -0.2747  0.1131 -0.3646
98352W        W41265  21.992   4.230   6.660  0.1866 -0.1041 -0.2716
98353W        W41266   8.693   3.782  26.226  0.3014  0.1370  0.0947
98354W        W41267  17.149   4.829   2.909 -0.0541  0.0782  0.0330
98355W        W41268   8.909  28.555  28.222 -0.0534 -0.3351  0.5735
98356W        W41269  12.786  31.981  27.738  0.0816 -0.1565 -0.0730
98357W        W41270  19.215  30.528  26.788  0.0188 -0.0483 -0.0912
98358W        W41271  30.618   0.678  26.376  0.1242 -0.0854 -0.1071
98359W        W41272  26.640  22.203   5.061 -0.1458 -0.3647 -0.0647
98360W        W41273  24.755  30.073   3.521 -0.0844  0.1590  0.1872
98361W        W41274  29.422  24.275  24.504  0.1106 -0.0650  0.0647
98362W        W41275  18.796   3.457  15.322 -0.0038  0.0234 -0.0358
98363W        W41276   8.600  33.031  29.707 -0.4161  0.2056 -0.0339
98364W        W41277  16.453  33.279  24.949 -0.0067  0.0105 -0.0072
98365W        W41278  23.289  28.548   0.053 -0.1639  0.1770 -0.2213
98366W        W41279  17.695  26.223  22.633  0.1434  0.2369  0.0064
98367W        W41280  17.715  31.017  27.771 -0.0108 -0.2489  0.0756
98368W        W41281  20.574  33.081  22.671 -0.0475  0.0161 -0.0760
98369W        W41282  17.448  26.816   6.709 -0.3713 -0.2279 -0.0754
98370W        W41283  22.495   1.167  28.961 -0.0967  0.1839  0.0164
98371W        W41284  24.163   6.234  19.863  0.2205  0.0638 -0.0922
98372W        W41285  29.448  30.342  23.942  0.1995 -0.0178  0.0017
98373W        W41286  20.785   2.341   8.328 -0.2510  0.1441 -0.2428
98374W        W41287   8.046  31.552  26.232  0.0608  0.0590 -0.1036
98375W        W41288  17.628   8.197  29.429  0.2576 -0.0306 -0.0209
98376W        W41289  12.511  33.714  11.000 -0.2475 -0.3213 -0.1713
98377W        W41290  14.695  32.931  22.276  0.1119 -0.3007 -0.0059
98378W        W41291  10.547  34.331   1.157 -0.1205 -0.2111 -0.1897
98379W        W41292  32.043  32.442  25.914  0.1147  0.3151  0.1804
98380W        W41293  23.999  31.492   0.648  0.2466 -0.0779 -0.1425
98381W        W41294  16.808  27.678  26.270  0.2126 -0.1704  0.3147
98382W        W41295  25.644   1.154  29.748 -0.1488 -0.2065  0.0844
98383W        W41296   3.253  23.365  28.772  0.1278  0.2104  0.0956
98384W        W41297  20.465  30.186   7.655  0.1136  0.4100 -0.0097
98385W        W41298  21.861  30.245  23.022  0.1788  0.2778  0.2476
98386W        W41299  25.142   0.866  10.294 -0.1708  0.0327 -0.1166
98387W        W41300  15.470   2.323   6.414  0.2457 -0.0122  0.3603
98388W        W41301  20.905   2.012   4.337  0.0055 -0.1219  0.0583
98389W        W41302  28.743   0.781  25.712 -0.0674 -0.1156  0.2350
98390W        W41303  17.992   4.488  22.707  0.3565  0.4304 -0.2328
98391W        W41304  24.096  29.973   2.955  0.1584 -0.2401  0.1444
98392W        W41305  11.742  33.028  23.910 -0.4531  0.2198  0.1777
98393W        W41306  21.781   9.125   5.666  0.0523  0.1222  0.1072
98394W        W41307  16.692  34.264  28.497  0.2288  0.1802  0.0599
98395W        W41308  16.372   8.216  28.867 -0.1093  0.1310  0.0024
98396W        W41309  19.749  24.832  28.169 -0.3111  0.1433 -0.2728
98397W        W41310  23.813   8.615   8.937 -0.3836  0.2335  0.1536
98398W        W41311  20.718   4.586   1.776 -0.0914  0.1299 -0.0297
98399W        W41312  18.666   0.709  17.150 -0.0310 -0.1724  0.1482
98400W        W41313  22.780  33.152  28.381 -0.1745 -0.0298 -0.3882
98401W        W41314  15.753   2.674  29.038  0.2203 -0.2004  0.0716
98402W        W41315  13.505  28.211  15.695 -0.0843 -0.1663 -0.1788
98403W        W41316  25.593  26.327  29.311  0.2371  0.1578 -0.1433
98404W        W41317  24.205  26.491  22.335  0.0126 -0.1716  0.0037
98405W        W41318  19.009  33.444  26.799  0.3565  0.0262  0.2724
98406W        W41319  21.430  31.539  18.697  0.1807  0.3136 -0.3465
98407W        W41320  15.987  33.881   2.463 -0.3287 -0.0319  0.0001
98408W        W41321  18.093   9.662  24.822 -0.1966 -0.2117 -0.0382
98409W        W41322  20.552   8.811   9.046 -0.1678  0.0965 -0.0262
98410W        W41323  12.877   3.356   6.020  0.3025  0.1324  0.3271
98411W        W41324   0.629  23.357  20.909 -0.0072  0.1649  0.1234
98412W        W41325  13.769  30.821  29.556  0.2748  0.2185  0.1130
98413W        W41326  19.356   1.816  14.932  0.1695 -0.1447  0.1007
98414W        W41327  31.147  29.737   1.716  0.0469 -0.1300  0.0714
98415W        W41328  26.090  30.095  19.137 -0.0244 -0.1472 -0.0543
98416W        W41329  16.119   8.373  28.411  0.0368 -0.1160 -0.0042
98417W        W41330  22.008   0.397  22.174  0.2511  0.3320 -0.2976
98418W        W41331  32.289   5.862   9.260 -0.4002 -0.1794 -0.2901
98419W        W41332  25.754  12.248   9.600 -0.4532  0.3211 -0.0220
98420W        W41333  20.490   2.355  25.475  0.2451 -0.0387  0.0690
98421W        W41334  13.722  33.480  28.889  0.1869  0.1106  0.2334
98422W        W41335   2.110  15.893  29.573 -0.0047 -0.1088 -0.3933
98423W        W41336  20.843   2.234  26.281  0.1383 -0.4216  0.1841
98424W        W41337  23.003   3.924  23.938 -0.1823  0.1462  0.2041
98425W        W41338  17.512  33.349  26.371  0.1298 -0.2342 -0.0757
98426W        W41339  28.300  20.182   0.712 -0.0293  0.0154  0.0635
98427W        W41340  16.380  29.259   4.675  0.2305 -0.0364 -0.4924
98428W        W41341  23.883   0.919  21.615 -0.2308 -0.0729 -0.0592
98429W        W41342   7.306   2.356  21.964 -0.1420 -0.1579 -0.1128
98430W        W41343  20.789   7.400  28.970  0.0510  0.2928  0.3199
98431W        W41344  24.196   8.624   0.670 -0.2052 -0.0375 -0.0041
98432W        W41345  26.492  27.470  28.959 -0.0384  0.1408  0.2930
98433W        W41346   9.479  34.149   7.875 -0.0002  0.1449 -0.0464
98434W        W41347  19.883  33.305   7.588 -0.1342 -0.0316  0.0595
98435W        W41348  15.070  28.647   0.550 -0.1244 -0.1730 -0.0533
98436W        W41349  19.715  14.855  23.286  0.1278  0.2841 -0.0911
98437W        W41350  27.283   2.605   1.020  0.1297 -0.3542 -0.0585
98438W        W41351  10.270  22.797   1.916 -0.1070 -0.1060 -0.2650
98439W        W41352  31.385  34.439   4.514 -0.2103  0.0650  0.1478
98440W        W41353   6.400   0.661  26.579 -0.2354  0.1157 -0.0849
98441W        W41354  16.066  19.854  25.464 -0.2124 -0.0202  0.0979
98442W        W41355  10.169  32.561   5.151  0.0572 -0.0225  0.2874
98443W        W41356  15.585   3.038  17.614  0.1578  0.2356 -0.1887
98444W        W41357  13.675  21.326  27.076  0.0655 -0.2210 -0.1882
98445W        W41358  15.893  29.642  28.930 -0.1915  0.0443  0.2530
98446W        W41359  16.725   4.511   1.797 -0.0451 -0.2413 -0.1225
98447W        W41360  21.437   0.258  18.431 -0.0681  0.1696  0.1436
98448W        W41361  25.929   8.959  17.842  0.1788 -0.2544  0.1645
98449W        W41362  20.522  13.237  13.239  0.2048  0.0788  0.1283
98450W        W41363  26.752  27.366  20.320  0.2020 -0.4769  0.1403
98451W        W41364  30.953   2.417  17.467 -0.1638  0.1795  0.1568
98452W        W41365  11.278  12.316  18.106  0.0744  0.1593 -0.1658
98453W        W41366  23.453  14.585  12.792  0.2039 -0.1094  0.1029
98454W        W41367  19.694   8.182  26.404  0.1576 -0.1292  0.2188
98455W        W41368  23.002  12.988  14.800  0.1630 -0.2019 -0.3501
98456W        W41369  24.485  11.890  23.435  0.2087  0.1254  0.1490
98457W        W41370  16.548  31.511  22.299 -0.1446  0.0791 -0.2060
98458W        W41371  27.280  11.112  17.272 -0.6996 -0.0705 -0.1424
98459W        W41372  15.110  11.513  28.260 -0.3178 -0.0050 -0.3645
98460W        W41373  25.111  31.977  17.583  0.2089  0.1062  0.1531
98461W        W41374  26.953  26.178  19.207  0.0835 -0.0879  0.3459
98462W        W41375   6.862  13.586  17.144 -0.0549 -0.3952  0.1446
98463W        W41376  22.359   2.643  22.252  0.0273  0.0110 -0.0285
98464W        W41377   2.896   0.954  18.335  0.4555 -0.2019  0.2377
98465W        W41378  25.922  33.199  17.698  0.1296  0.1168  0.1975
98466W        W41379  23.445  31.177  23.223 -0.3469  0.0579  0.2498
98467W        W41380  14.074   6.732  21.228  0.0087  0.2240  0.1646
98468W        W41381  23.288  29.295  23.602  0.1451  0.2018 -0.3769
98469W        W41382   1.230  30.598  15.669 -0.0249 -0.2336  0.1394
98470W        W41383  20.435  34.320  13.465  0.4272  0.0631  0.1420
98471W        W41384  20.903  32.452  23.383 -0.2235 -0.3031 -0.2714
98472W        W41385  33.011  33.219  16.430  0.0311  0.0166 -0.2040
98473W        W41386  27.407   9.598   0.421 -0.2127 -0.3139  0.0114
98474W        W41387  32.359   7.667  20.045  0.0061  0.0724 -0.0408
98475W        W41388  29.297  23.177  13.276 -0.0248 -0.0133 -0.2048
98476W        W41389  24.672   6.510  15.759  0.1533  0.1842  0.2125
98477W        W41390  22.745  33.752  25.869  0.1358  0.1520 -0.0430
98478W        W41391  25.950   4.457  22.832 -0.1146 -0.0910  0.1761
98479W        W41392  16.446  31.017  27.980  0.2939  0.3965 -0.0259
98480W        W41393  24.668  10.067  22.009 -0.0774  0.2394  0.2964
98481W        W41394  31.324   1.248  19.753  0.2200  0.2592 -0.0858
98482W        W41395  25.207  31.829  19.801 -0.0002  0.1042  0.1654
98483W        W41396  22.682   3.895  21.912  0.2657 -0.1238 -0.2685
98484W        W41397  27.921   3.298  19.888  0.1092  0.0875 -0.0232
98485W        W41398  28.638   2.598  19.903 -0.1538  0.0708  0.0602
98486W        W41399  15.393   1.593  16.297  0.0158 -0.0836 -0.1580
98487W        W41400  17.727  28.657  27.608 -0.0889 -0.0825  0.0653
98488W        W41401  29.889   6.440  17.236 -0.2068 -0.0105 -0.1661
98489W        W41402  23.749   5.646  15.509  0.1019 -0.1284  0.1792
98490W        W41403  29.720   8.775  27.372 -0.0673 -0.1859 -0.2851
98491W        W41404  17.801  27.914  22.952  0.0170  0.5007  0.2543
98492W        W41405  30.197  31.366  17.760  0.0140  0.0966  0.3662
98493W        W41406   4.188   1.174  24.022  0.2437  0.0236  0.1416
98494W        W41407   0.210  31.478  16.099  0.1028  0.3021 -0.0578
98495W        W41408  17.467   3.407  21.734 -0.1576 -0.1422 -0.0806
98496W        W41409  31.809   2.095  23.327  0.0568 -0.0902  0.1396
98497W        W41410  29.160  33.450  26.118 -0.1196 -0.3162 -0.1895
98498W        W41411  22.383   0.112  21.518  0.1276 -0.0544  0.1464
98499W        W41412  16.628  32.515  18.021 -0.0827 -0.0007 -0.1511
98500W        W41413  21.971   1.405  15.131  0.0183  0.2263 -0.0545
98501W        W41414  13.827  12.383  19.630  0.3220 -0.1225  0.1245
98502W        W41415  26.801  25.087  12.445 -0.1433 -0.0251  0.0915
98503W        W41416  32.342  33.412  29.325 -0.3834  0.0450 -0.0716
98504W        W41417  32.938   2.484  18.985  0.1850 -0.2976 -0.4202
98505W        W41418  28.709  30.583  22.286 -0.2081  0.3433 -0.0359
98506W        W41419  23.197   7.803  16.144  0.2652 -0.0727  0.3855
98507W        W41420  23.578   0.594  25.065 -0.0423 -0.4264 -0.5036
98508W        W41421  32.204  34.219  22.059 -0.1479  0.0599 -0.4080
98509W        W41422  26.687  28.189  19.698  0.1126 -0.1233 -0.0288
98510W        W41423  24.959  12.857  17.612  0.0836 -0.0182 -0.0478
98511W        W41424  19.747   2.753  14.798 -0.0524 -0.0075  0.0009
98512W        W41425  33.113  30.821  16.861  0.0196  0.0193 -0.0300
98513W        W41426  33.145  33.783  15.699  0.2546 -0.2849 -0.2945
98514W        W41427  22.152   7.420  25.793 -0.0937  0.5612 -0.1093
98515W        W41428  24.109   1.648  19.558 -0.1474  0.1720  0.1185
98516W        W41429  22.056   4.253  26.274  0.1669  0.0545  0.2793
98517W        W41430  17.887  33.265  23.512  0.0380 -0.1142  0.0271
98518W        W41431  28.382  26.905  24.418 -0.2857  0.1798 -0.0306
98519W        W41432  29.145  34.267  15.935  0.0418 -0.2105 -0.0574
98520W        W41433  27.894   4.913  26.004  0.3122  0.0223  0.3484
98521W        W41434  23.490  29.756  19.011  0.0719 -0.1139 -0.0026
98522W        W41435  23.300  32.733  22.431  0.0059 -0.2339  0.2837
98523W        W41436  26.527  30.308  28.369  0.1707 -0.1258 -0.1560
98524W        W41437  29.392  23.457  21.542 -0.2150  0.1821 -0.1362
98525W        W41438   2.718   4.375  18.583 -0.0241  0.1204 -0.2557
98526W        W41439  30.147  29.707  17.537 -0.1661  0.0787  0.1330
98527W        W41440  34.196   0.855  18.127  0.0477  0.0396  0.0526
98528W        W41441  26.054  12.471  19.665  0.0389 -0.1562 -0.0144
98529W        W41442  18.533  33.197   0.774 -0.0972  0.2711  0.1022
98530W        W41443  27.066  32.143  16.657 -0.1606  0.0042 -0.0350
98531W        W41444  33.330   7.790  29.300 -0.0302  0.2801  0.1887
98532W        W41445  24.496   5.591  18.196 -0.1242  0.2084 -0.2026
98533W        W41446  21.325  31.823  25.276 -0.1966  0.3094 -0.2034
98534W        W41447  17.732   3.915  14.850 -0.2557  0.3683  0.0594
98535W        W41448  32.900   9.365  19.109 -0.1505  0.1929 -0.1881
98536W        W41449  23.366   0.603  17.625 -0.0594  0.0334 -0.0025
98537W        W41450  28.337   1.769  16.446 -0.1451  0.0995  0.1473
98538W        W41451  31.975  34.458  15.894 -0.0527  0.0027 -0.3213
98539W        W41452  33.669   2.702  22.217  0.0681 -0.0355  0.0957
98540W        W41453  22.797  11.521  18.852 -0.0093  0.3186 -0.0176
98541W        W41454  20.269  32.086  17.236 -0.0790  0.1440 -0.2655
98542W        W41455  20.869   0.920  16.859  0.0047  0.0197 -0.1016
98543W        W41456  14.565  33.987  15.454  0.2430 -0.0528  0.0507
98544W        W41457  34.233  30.499  14.325 -0.0752  0.0667  0.1984
98545W        W41458  31.226  31.765  14.699 -0.0598  0.3648 -0.1578
98546W        W41459  18.701  33.351  28.249 -0.2610  0.0827 -0.0819
98547W        W41460  20.740  32.707  22.272  0.0069  0.1937 -0.0380
98548W        W41461  28.384   3.200  16.248 -0.2505  0.1222  0.1388
98549W        W41462  24.663   7.502  15.097 -0.0965 -0.0813  0.1802
98550W        W41463  22.746   6.949  20.630  0.0297  0.2041 -0.4486
98551W        W41464  22.457   3.292  14.671  0.1016  0.1891 -0.2520
98552W        W41465  24.363   2.058  20.181 -0.0911 -0.0511  0.2086
98553W        W41466  21.802  32.103  23.592  0.0365 -0.0623 -0.1018
98554W        W41467  29.417   0.959  16.409  0.0512 -0.0035 -0.4827
98555W        W41468  20.863   3.386  15.280  0.2334  0.0688  0.3335
98556W        W41469  14.814  27.053  16.962 -0.1720 -0.0117  0.2388
98557W        W41470  28.182  12.780  16.106 -0.0954  0.5219  0.0038
98558W        W41471  25.037   0.088  24.668 -0.0121 -0.1905  0.1034
98559W        W41472  32.099  27.924  16.353  0.1985 -0.1956  0.0111
98560W        W41473  22.211   4.714  14.774 -0.2098 -0.0379 -0.0889
98561W        W41474  23.241   4.109  28.045  0.0712 -0.0202  0.0597
98562W        W41475  34.161  18.924  17.282 -0.0185  0.1502  0.0447
98563W        W41476  23.525   6.734   1.771 -0.0754  0.1529  0.0896
98564W        W41477  24.052   9.796  15.518 -0.2390 -0.0636 -0.0023
98565W        W41478  28.005   1.523  17.215 -0.0885  0.3356  0.1319
98566W        W41479  17.098  11.314  17.720 -0.1563 -0.0021  0.1622
98567W        W41480  33.108  33.322  21.659 -0.0493 -0.4492  0.1355
98568W        W41481   1.095  34.204  16.994  0.0678 -0.0091  0.2521
98569W        W41482  25.541  29.565  21.876 -0.1408 -0.2140  0.0229
98570W        W41483  26.014  34.100  20.697 -0.1107  0.0998  0.2190
98571W        W41484  26.506  27.061  22.085  0.4012  0.2260  0.1036
98572W        W41485  29.618   1.590  18.422  0.0473  0.1007 -0.1916
98573W        W41486  12.268  18.951  13.696 -0.1344  0.0506  0.0681
98574W        W41487  24.749   0.614  20.982 -0.0198  0.2124 -0.0456
98575W        W41488  26.805   6.161  28.042  0.1748 -0.2126  0.2631
98576W        W41489  15.225   4.048  16.646 -0.1137  0.1891  0.2948
98577W        W41490   2.884  11.663  23.282  0.1936 -0.1653 -0.3354
98578W        W41491  16.967  26.059  17.590  0.3690 -0.1001  0.0455
98579W        W41492  31.946  31.818  22.473 -0.2215 -0.2442  0.2066
98580W        W41493  24.630   2.490  13.781 -0.2577 -0.0524 -0.1581
98581W        W41494  21.948  28.077  21.351  0.3317  0.2673  0.0897
98582W        W41495  29.307   2.823  17.717  0.2994 -0.0246 -0.1522
98583W        W41496  25.883  27.177  21.347 -0.0402  0.0478 -0.0355
98584W        W41497   0.361   5.667  17.662  0.0727 -0.1556  0.0096
98585W        W41498  25.070  29.740  25.374  0.0015 -0.2300 -0.0047
98586W        W41499   0.024  31.227  19.625  0.4699 -0.2890  0.0583
98587W        W41500  28.684   2.588  25.084 -0.0524 -0.1510  0.1820
98588W        W41501  22.047   3.832  22.664 -0.1292 -0.0589  0.0655
98589W        W41502  22.507  34.025  20.399  0.2169 -0.0166  0.0462
98590W        W41503  27.638  30.352  20.188 -0.0758 -0.1223  0.1560
98591W        W41504  13.929  32.012  17.378  0.2562  0.0550 -0.2417
98592W        W41505  21.299  30.104  24.945 -0.1718  0.3632  0.2117
98593W        W41506  26.858   7.906  20.347  0.1445  0.1639 -0.0098
98594W        W41507  22.912  33.347  15.834  0.2087 -0.1130  0.2949
98595W        W41508  26.685   6.196  14.139 -0.2459  0.3646 -0.3558
98596W        W41509  29.171  34.325  20.578  0.0190 -0.1960 -0.2257
98597W        W41510  26.308  30.820  15.362 -0.0359 -0.3461  0.1302
98598W        W41511  27.749  32.024  15.474  0.3726  0.0213 -0.2977
98599W        W41512  24.370   1.439   0.763 -0.0467  0.1835 -0.2713
98600W        W41513  24.707   7.469  17.557 -0.1072  0.0225  0.0670
98601W        W41514  22.539   5.367  24.630  0.0048 -0.2476  0.0758
98602W        W41515  32.019  28.013  27.708 -0.0904  0.1182  0.2554
98603W        W41516  19.297  29.356  24.393 -0.0821  0.3618 -0.0102
98604W        W41517  22.805   8.291  22.539  0.2929  0.2567  0.0552
98605W        W41518  21.301   1.279  20.659 -0.1755 -0.0268 -0.0972
98606W        W41519  26.321  30.517  19.901  0.1784 -0.0833  0.3364
98607W        W41520  26.600   3.978  20.945 -0.0517  0.0566 -0.3134
98608W        W41521  25.295  28.853  13.932 -0.0650 -0.0699 -0.0210
98609W        W41522  21.318   5.038  23.643  0.1023 -0.0158 -0.0957
98610W        W41523  27.828  31.663  23.526 -0.1213  0.0003 -0.0335
98611W        W41524  30.121  10.554  22.608 -0.0194  0.4360 -0.2721
98612W        W41525  24.627  28.777  15.187  0.0472  0.2411 -0.0251
98613W        W41526  18.133  25.022  16.977  0.1017  0.4138 -0.5436
98614W        W41527  19.794  12.336  21.446 -0.0854  0.1389 -0.1028
98615W        W41528  26.553   6.344  16.734  0.1613 -0.3481  0.1277
98616W        W41529  28.682  30.433  17.622 -0.1669 -0.4861  0.4747
98617W        W41530  26.133   0.246  27.755 -0.0185  0.0452  0.1644
98618W        W41531  18.981  12.899  13.288  0.1389  0.0629  0.0861
98619W        W41532  26.533  13.369  19.888  0.2240 -0.0547 -0.4682
98620W        W41533  20.512  33.411  18.182 -0.0059 -0.0240 -0.0422
98621W        W41534   1.203   6.469  21.536  0.0097 -0.0124 -0.1355
98622W        W41535  20.836  32.028  28.210 -0.0110 -0.1026  0.0222
98623W        W41536  27.513   3.908  19.288  0.2073 -0.1006 -0.2859
98624W        W41537  24.803   5.291  23.396 -0.0041 -0.0330  0.2832
98625W        W41538   9.548  23.642  19.899 -0.3809 -0.2503  0.0396
98626W        W41539  16.551  34.219  21.695  0.1234  0.0310 -0.0346
98627W        W41540  13.166  33.355  18.275 -0.2543  0.1749  0.2644
98628W        W41541  29.289   3.001  21.662  0.1015 -0.3805  0.1701
98629W        W41542  27.795   5.643  24.712 -0.3035  0.0467  0.2087
98630W        W41543  27.804  33.525  18.636 -0.0718 -0.2662  0.1979
98631W        W41544  26.757   3.612  17.800 -0.2116  0.0934  0.0869
98632W        W41545  17.798  32.862  19.477 -0.0147  0.0724  0.0311
98633W        W41546  27.801  33.144  28.957 -0.1487 -0.1794  0.1416
98634W        W41547  24.820   3.319  20.392  0.3099 -0.1039  0.1231
98635W        W41548  26.286  30.116  18.178 -0.0490  0.0171  0.1719
98636W        W41549  20.107   2.941  16.694 -0.1321  0.0201 -0.0512
98637W        W41550  30.315   1.652  19.549 -0.2016 -0.1969 -0.2774
98638W        W41551  18.457  31.998  23.072  0.0566 -0.2273 -0.1346
98639W        W41552  29.407  32.106  20.959 -0.0275  0.1669  0.3142
98640W        W41553  20.776   1.321  14.520 -0.1519 -0.1318  0.1976
98641W        W41554  27.982  23.416  19.089  0.1640 -0.5646 -0.0248
98642W        W41555   4.120  29.042  16.762  0.0851 -0.0874 -0.3393
98643W        W41556  25.145   0.350  20.516  0.0781 -0.0196 -0.0508
98644W        W41557  15.985  32.004  19.024 -0.0912  0.2115 -0.2181
98645W        W41558  31.846   5.510  17.435  0.0147  0.0598  0.2311
98646W        W41559  22.136  28.360  27.948  0.1176  0.0483  0.0059
98647W        W41560  23.058   2.664  20.807 -0.1424  0.1184 -0.1260
98648W        W41561  27.361  32.463  22.114  0.0746 -0.2545  0.3188
98649W        W41562  24.684   9.537  13.994  0.0799  0.1306  0.3441
98650W        W41563  18.873  33.517  19.492  0.3289 -0.0877  0.0492
98651W        W41564  17.537  31.617  18.756  0.0303 -0.0406  0.1854
98652W        W41565  31.857   9.674  21.713 -0.0788  0.2239 -0.0230
98653W        W41566  13.792   0.012  20.394  0.0574  0.0453  0.0514
98654W        W41567  23.302  31.425  15.801  0.1881 -0.1189 -0.2012
98655W        W41568  28.173  34.436  18.478 -0.1355  0.1326 -0.1183
98656W        W41569  31.821   4.885  16.754  0.1248 -0.2651 -0.1804
98657W        W41570  34.230  32.368  17.867 -0.3112  0.0642  0.0043
98658W        W41571  19.336   6.115  24.440  0.2102 -0.0355  0.1219
98659W        W41572  18.756  33.206  20.403 -0.1596  0.0753  0.0886
98660W        W41573  25.315   6.888   1.437  0.2711 -0.1485 -0.2533
98661W        W41574  24.644  33.432  28.628 -0.0223 -0.2950  0.2703
98662W        W41575  22.919  32.863  17.208  0.0314 -0.1139 -0.0196
98663W        W41576  28.286   0.460  15.066 -0.0555  0.1002 -0.0247
98664W        W41577  21.153   3.955  17.980  0.1202  0.0715 -0.0775
98665W        W41578  27.661  30.458  15.841  0.0851 -0.1436 -0.0455
98666W        W41579  24.982   5.035  16.815  0.0885  0.2761  0.2660
98667W        W41580   0.721  30.602  26.914 -0.0347  0.3040  0.0855
98668W        W41581  28.256  30.904   3.551 -0.0024 -0.0347  0.2565
98669W        W41582  29.245  18.992  16.478  0.1013 -0.0183  0.4839
98670W        W41583  26.336   7.701  20.358 -0.0697 -0.0272  0.1487
98671W        W41584  19.225   2.855  16.435  0.2325  0.0422 -0.4480
98672W        W41585  21.669   4.086  15.463 -0.0602 -0.0513 -0.0139
98673W        W41586  26.758  32.283  17.439 -0.2127 -0.0718 -0.1747
98674W        W41587   4.470  16.528  25.375  0.0328  0.3042  0.1306
98675W        W41588  23.886   4.550  20.265 -0.0740  0.0480 -0.4258
98676W        W41589  17.449   3.566  21.152  0.1350  0.0542 -0.0316
98677W        W41590  29.757   8.566  26.925 -0.0376  0.1211  0.1545
98678W        W41591  18.363  27.585  23.456  0.2127 -0.0825  0.0368
98679W        W41592  17.708  32.469  21.458 -0.1816 -0.3448  0.0303
98680W        W41593  24.852   3.632  16.196 -0.0155  0.1192 -0.3195
98681W        W41594  28.115  23.782  23.499 -0.2884 -0.1118  0.1140
98682W        W41595  30.385   7.781  17.613  0.3142  0.2516  0.0488
98683W        W41596  30.457  33.619  17.821 -0.1966  0.5199  0.1653
98684W        W41597  22.989  22.550  20.364  0.0068  0.0582 -0.0878
98685W        W41598  25.520   0.355  16.198  0.0721  0.1257 -0.2473
98686W        W41599  29.704  34.377  24.407  0.0856  0.2935 -0.2781
98687W        W41600  22.941   0.672  24.358 -0.3196 -0.1339 -0.3794
98688W        W41601  32.056  29.388  18.743 -0.1636  0.2603  0.1162
98689W        W41602  32.647  28.379  15.762  0.0299 -0.2470 -0.0592
98690W        W41603  25.158   1.129  23.133 -0.1098  0.2082 -0.1963
98691W        W41604  29.457  29.218  13.543 -0.0357 -0.0200 -0.0884
98692W        W41605  20.455  30.519  16.332  0.3463 -0.3104  0.0243
98693W        W41606   2.791   0.980  17.077  0.0461  0.0515  0.0412
98694W        W41607  28.768   2.954  21.472 -0.2044  0.2130 -0.2331
98695W        W41608  24.812   6.180  19.380  0.1326  0.0904 -0.0607
98696W        W41609  29.971  14.354  21.409 -0.0447  0.2875 -0.1086
98697W        W41610  25.863   3.775  17.873  0.3440  0.3076 -0.0875
98698W        W41611  24.499   3.195  22.610 -0.0899  0.2136  0.0319
98699W        W41612  22.417  31.750  20.658  0.1101  0.1465  0.2902
98700W        W41613  25.325  29.432  20.686  0.0673  0.0912  0.0446
98701W        W41614  34.162  32.677  17.260 -0.0116  0.2357  0.1819
98702W        W41615  22.100   5.067  21.753 -0.3338 -0.0662 -0.2313
98703W        W41616  23.993  21.002  16.355 -0.1540 -0.1507  0.0939
98704W        W41617   3.097   7.489  18.003  0.3388 -0.0140 -0.2348
98705W        W41618   2.819  25.480  25.088 -0.1817 -0.0009  0.0824
98706W        W41619  23.872  24.004  18.534 -0.1725 -0.0245  0.0177
98707W        W41620  29.358  29.287  22.169  0.3159  0.0314  0.0260
98708W        W41621  22.362  17.754  18.071  0.1645  0.1390 -0.1587
98709W        W41622  21.456   2.077  27.578 -0.2381  0.4437 -0.0692
98710W        W41623  33.241  30.702  20.309 -0.0682  0.2737  0.0275
98711W        W41624  27.686   3.369  26.179  0.0420  0.0214 -0.0417
98712W        W41625  26.520   2.859  15.270 -0.1813  0.4079  0.0907
98713W        W41626  25.038   4.936  14.468 -0.0160 -0.2616 -0.1388
98714W        W41627  17.316  27.882  26.690 -0.0576 -0.2107 -0.1144
98715W        W41628  24.902   4.131  17.535 -0.2466 -0.1511  0.0767
98716W        W41629  19.544  31.684  25.710  0.2203 -0.0351 -0.2953
98717W        W41630  22.815   7.281  16.117  0.3552  0.1294  0.1479
98718W        W41631  24.083   2.704  13.853 -0.0857 -0.3086  0.1995
98719W        W41632  25.186   0.730  19.668  0.0514  0.3692  0.2013
98720W        W41633  12.365   4.684  16.190 -0.0360  0.1069 -0.0719
98721W        W41634  20.174   1.396  15.262 -0.1717 -0.3868 -0.0462
98722W        W41635  23.792  31.913  18.618 -0.1768 -0.2343 -0.0288
98723W        W41636  20.426  29.154  22.796  0.1090 -0.2436 -0.2409
98724W        W41637  27.809  33.146  18.954  0.0537 -0.2014  0.1227
98725W        W41638  24.859  29.777  17.466 -0.1224  0.4110 -0.0598
98726W        W41639  26.063  12.468  15.508 -0.0731 -0.2124  0.2125
98727W        W41640  23.704  28.690  18.487  0.1657  0.0673  0.3127
98728W        W41641  23.202  31.864  26.734 -0.0729  0.2249  0.1212
98729W        W41642  16.102   4.224  16.985  0.0824  0.2348 -0.2123
98730W        W41643  29.811   2.827  18.844 -0.2440  0.0354 -0.0506
98731W        W41644   6.418   5.284  16.955 -0.2357 -0.0078  0.2339
98732W        W41645  28.502  28.742  19.784  0.2563  0.1355  0.2084
98733W        W41646  33.145   1.449  16.196  0.0333  0.0591  0.1913
98734W        W41647  22.979   2.402  18.053  0.2098  0.2674  0.2692
98735W        W41648  11.063   0.856  26.106 -0.0553  0.0245  0.1196
98736W        W41649  20.962   9.026  19.679 -0.1118 -0.0582 -0.1748
98737W        W41650  20.397   3.501  19.427  0.1387  0.0083 -0.2220
98738W        W41651  27.087   1.373  25.441  0.2624 -0.0508 -0.1999
98739W        W41652  27.279  33.714  20.022 -0.1976 -0.3567 -0.1075
98740W        W41653  28.699   5.223  16.727  0.0152 -0.2619  0.3360
98741W        W41654  29.012   9.531  23.349 -0.2804 -0.2235 -0.1460
98742W        W41655  16.343  26.474  20.123 -0.0777 -0.0655 -0.2366
98743W        W41656  27.203   0.741  24.686 -0.2356  0.2752 -0.1368
98744W        W41657  18.680  34.310  16.013  0.1089  0.1600  0.2159
98745W        W41658  18.552   4.229  24.698 -0.0540  0.1723  0.0068
98746W        W41659  20.928  32.337  18.674 -0.1481  0.2514  0.3664
98747W        W41660  23.577  34.436  14.959 -0.1687  0.1359 -0.0870
98748W        W41661  21.922   1.243  14.037 -0.0872  0.1108 -0.1644
98749W        W41662  18.942  33.374  16.246 -0.2813 -0.1401 -0.3563
98750W        W41663  21.115  30.860   7.283  0.0054  0.2281  0.0514
98751W        W41664  25.392  27.543  23.309  0.3222 -0.2239  0.4901
98752W        W41665  17.488   2.708   4.200 -0.0369 -0.0329 -0.3035
98753W        W41666  27.742  30.212  24.524  0.2543 -0.1856 -0.1451
98754W        W41667  23.232   8.580  22.903  0.0501 -0.0750 -0.4054
98755W        W41668  14.903   0.814  20.393 -0.0949  0.1345  0.1744
98756W        W41669  28.868   2.742  16.138  0.2131 -0.0096  0.1550
98757W        W41670  31.329   4.791  22.722  0.0929 -0.0068  0.3080
98758W        W41671  30.423  31.673  24.114  0.0356 -0.0089 -0.2895
98759W        W41672  17.767  24.957  23.846  0.1955 -0.2213  0.0749
98760W        W41673  20.702   7.416  19.205 -0.1691  0.0639  0.1451
98761W        W41674  17.254   6.744  15.752 -0.1033  0.2738  0.1339
98762W        W41675  28.548   2.572  20.871 -0.0770  0.0078 -0.0026
98763W        W41676   4.865  29.993  14.855 -0.0471  0.1440  0.0051
98764W        W41677  17.035   3.647  24.705  0.0592  0.0544 -0.0445
98765W        W41678  26.424   0.184  17.997  0.2537 -0.1544 -0.1246
98766W        W41679  24.389  34.303  18.789 -0.0555  0.3364  0.1551
98767W        W41680  27.626  34.279  16.136  0.1487  0.3289 -0.2488
98768W        W41681  26.219   9.390  22.825  0.0718  0.2225 -0.0546
98769W        W41682  29.032   3.300  17.507 -0.2843  0.0110 -0.0200
98770W        W41683  28.495  13.587  24.477 -0.1719  0.0312 -0.0612
98771W        W41684  17.722  23.117  14.071  0.1180 -0.1020 -0.1159
98772W        W41685  29.397  27.747  24.349  0.1498  0.2580 -0.0105
98773W        W41686  22.234   7.802  18.386 -0.0951 -0.0441  0.2719
98774W        W41687  20.739  32.334  23.849  0.2601  0.0834  0.2401
98775W        W41688  28.200   3.955  17.460  0.0447 -0.1459 -0.0943
98776W        W41689  24.430   7.497  25.675  0.1630 -0.1323 -0.3139
98777W        W41690  26.729  30.337  16.063 -0.0048 -0.1409  0.2603
98778W        W41691  26.797   1.978   0.788  0.3279  0.2081  0.0406
98779W        W41692  23.209   5.355  20.968  0.0548 -0.0558  0.1492
98780W        W41693  30.669  28.922   1.219 -0.1545 -0.0757 -0.0556
98781W        W41694  14.664   3.985  15.647  0.1416 -0.2318  0.0958
98782W        W41695  22.463  32.554   0.191 -0.3751  0.1646 -0.0444
98783W        W41696  21.518  29.855  29.306 -0.0806  0.4355 -0.1776
98784W        W41697  23.266  33.288  24.248 -0.1400  0.2258 -0.0530
98785W        W41698  28.409   6.418  26.833 -0.0734 -0.0712  0.0665
98786W        W41699  26.211   8.285  22.513  0.2305 -0.0530  0.0092
98787W        W41700  27.702   6.952  16.155 -0.1897  0.0802 -0.1834
98788W        W41701  13.404   3.620  21.720  0.1477 -0.1141  0.1688
98789W        W41702   2.636  12.778  16.327 -0.0223 -0.0593  0.3989
98790W        W41703  23.496   0.628  24.006  0.2142  0.0507  0.0956
98791W        W41704  16.717  33.948  17.825 -0.1274 -0.0887  0.1854
98792W        W41705  28.120  30.465  20.012 -0.0031  0.2155  0.0640
98793W        W41706  20.357  30.859   1.684  0.1099 -0.0651  0.0941
98794W        W41707  22.573   9.644  15.472  0.0439 -0.1728  0.0958
98795W        W41708  16.958  33.066  16.413  0.1439 -0.0118  0.1625
98796W        W41709   2.335  32.909  26.214  0.1735  0.1801 -0.4859
98797W        W41710  23.352   4.861  23.345 -0.0474 -0.0255  0.0619
98798W        W41711  15.482  31.222  20.677  0.3212 -0.2542 -0.0400
98799W        W41712  27.438  28.580   0.910 -0.1253  0.1708  0.0897
98800W        W41713  21.014   4.003  17.259  0.1466 -0.0663  0.2716
98801W        W41714  14.887   1.685  18.622  0.1986  0.3015  0.0980
98802W        W41715  33.656   1.782  25.674 -0.0801  0.1131  0.0730
98803W        W41716  17.980   3.504  21.842 -0.0606  0.4189 -0.1712
98804W        W41717  26.926   1.834  21.517 -0.1813 -0.0390  0.0359
98805W        W41718  32.754  12.963  16.817  0.0766 -0.4644 -0.0319
98806W        W41719  23.155  31.931  15.438 -0.3731  0.3285  0.0861
98807W        W41720   0.104  30.712  23.413 -0.1562  0.0308 -0.0590
98808W        W41721  26.428   6.192  19.317  0.0824 -0.0239 -0.3314
98809W        W41722  31.152  31.857  25.637  0.0582 -0.0252  0.0722
98810W        W41723  32.330  33.685  20.834  0.0515  0.0266  0.1541
98811W        W41724  28.128  29.020  19.962  0.0240  0.1219  0.0324
98812W        W41725   0.776  25.387  19.905 -0.1026 -0.1328  0.0413
98813W        W41726  17.523  31.655  26.525 -0.1501  0.1142 -0.1505
98814W        W41727  31.480  32.899  20.078  0.1644  0.1129  0.2464
98815W        W41728  27.398  33.431  18.190 -0.2074 -0.0159 -0.2707
98816W        W41729  23.718   3.038  16.625 -0.0236 -0.0263  0.1297
98817W        W41730  19.811   9.309  28.568  0.1930 -0.0738  0.2010
98818W        W41731  19.407   2.111  15.346 -0.0430 -0.0321  0.0591
98819W        W41732  30.726  26.957  17.350 -0.1076  0.0099  0.7115
98820W        W41733  22.970   0.577  18.188  0.0782  0.0902  0.1522
98821W        W41734  19.288   5.476  26.214 -0.2187 -0.0872  0.1993
98822W        W41735  24.480  25.172  23.758  0.1320 -0.1388  0.1688
98823W        W41736  29.065  30.201  19.911 -0.1604 -0.0515  0.2287
98824W        W41737  33.656  26.670  16.125 -0.4553  0.1564  0.1850
98825W        W41738  30.973  31.555  15.485  0.2281 -0.1464 -0.1654
98826W        W41739  24.058   2.770  14.696 -0.1270 -0.1905  0.0254
98827W        W41740  24.708   5.822  19.054  0.1778 -0.2215  0.1107
98828W        W41741  23.500   1.820  16.835 -0.1682 -0.1939 -0.1706
98829W        W41742  15.955  30.695  28.797 -0.3048  0.0958 -0.0067
98830W        W41743  25.055   2.253  13.630  0.3711 -0.1665 -0.0038
98831W        W41744  29.805  31.191  22.230 -0.0878  0.2604  0.0859
98832W        W41745  18.657   5.330  15.313  0.2377  0.0927 -0.1933
98833W        W41746  19.807  34.481  18.539 -0.0470 -0.1973 -0.0287
98834W        W41747  27.693   8.398  21.211 -0.1848  0.0989 -0.2097
98835W        W41748  27.295  18.062  16.552  0.4535 -0.3856 -0.2070
98836W        W41749  21.546  26.292  13.692 -0.0686  0.0346  0.1666
98837W        W41750  28.365  24.196  26.174  0.0495  0.0217 -0.0978
98838W        W41751  23.496   5.111  17.139  0.0435 -0.0082  0.0983
98839W        W41752  34.353  11.969  23.262  0.0423  0.1243 -0.1057
98840W        W41753  25.755  33.622  15.142  0.0311  0.1283  0.3289
98841W        W41754  22.475   2.258  18.061 -0.1975 -0.0741  0.2822
98842W        W41755  31.647  25.203  28.390  0.1810 -0.0543  0.2428
98843W        W41756  22.391  34.248  19.658  0.0221  0.1426  0.2239
98844W        W41757  34.096  34.189  28.792 -0.0820  0.0617 -0.2051
98845W        W41758  26.534   2.231  17.475 -0.1981 -0.0744 -0.0688
98846W        W41759  20.962  21.864  20.473 -0.0733  0.1145  0.0251
98847W        W41760  20.402  33.702  19.715  0.0992  0.0080  0.2128
98848W        W41761  27.580   3.467  29.440 -0.3828 -0.3341 -0.2411
98849W        W41762  34.292   1.958  16.658 -0.0604  0.1510 -0.0556
98850W        W41763  17.770   2.206  26.325 -0.0261  0.1092  0.0644
98851W        W41764  25.022   7.091  17.381 -0.0995 -0.2062  0.0236
98852W        W41765  27.022  24.139  15.871  0.4241 -0.2215 -0.2267
98853W        W41766  22.462   4.478   0.370  0.1814  0.2669  0.2320
98854W        W41767  24.992  21.185  24.943  0.3841 -0.0372 -0.0832
98855W        W41768  24.137   2.041  26.004  0.0097  0.0617 -0.1117
98856W        W41769  21.821  10.878  21.804  0.0237 -0.0751  0.1140
98857W        W41770  24.319   0.532  26.834 -0.0477  0.2051 -0.0801
98858W        W41771  18.472   1.420  17.437 -0.1554  0.1679 -0.0735
98859W        W41772  15.615  32.266  24.434 -0.1248 -0.4025  0.1362
98860W        W41773  18.797  29.660  15.729  0.1182 -0.0788 -0.1174
98861W        W41774  18.685  29.028  17.875 -0.0581  0.0739  0.0037
98862W        W41775  22.113  31.569  18.696  0.0526  0.0635  0.0366
98863W        W41776   1.225   9.967  16.903  0.0168 -0.0655 -0.1502
98864W        W41777  28.145  32.122  20.073 -0.0581  0.1355 -0.1622
98865W        W41778  13.643  29.662  19.408 -0.4343  0.3054  0.2631
98866W        W41779  23.094   7.702  26.441  0.1064 -0.0164  0.1393
98867W        W41780  22.165  32.278  16.879  0.0924 -0.4362 -0.0351
98868W        W41781  16.711   3.124   2.356  0.0737 -0.0459 -0.0381
98869W        W41782  24.845  31.019  16.267  0.3376  0.2524  0.1929
98870W        W41783  17.479   4.228  21.944  0.1183 -0.1349  0.0045
98871W        W41784  25.625   2.133  20.667 -0.0884  0.3042  0.2680
98872W        W41785  24.788  11.176  16.870 -0.0039 -0.2273 -0.2318
98873W        W41786  21.426  32.079  23.927  0.2684 -0.0420  0.2403
98874W        W41787  15.862   9.600  28.702  0.0943 -0.0740 -0.0705
98875W        W41788  19.696   2.630  15.665 -0.0183  0.3113  0.2026
98876W        W41789  25.971   3.359  13.703  0.2239  0.1753 -0.1519
98877W        W41790  27.935   7.476  20.557  0.2247 -0.0417 -0.2029
98878W        W41791  28.580   2.227  21.853 -0.0404 -0.0842  0.1042
98879W        W41792  17.979   3.170  29.569 -0.0294  0.4800  0.2970
98880W        W41793  26.645  15.063  14.986 -0.0263 -0.1382 -0.0916
98881W        W41794  20.239   5.466  22.632  0.3057 -0.2028  0.0768
98882W        W41795   0.372   9.564  15.278  0.1113  0.0003 -0.3250
98883W        W41796  21.790  26.743  22.105  0.2093 -0.1787  0.0221
98884W        W41797  18.674  26.564  14.872 -0.2808 -0.1936  0.2960
98885W        W41798  10.159   7.964  23.681  0.1408 -0.4432 -0.1402
98886W        W41799  33.428   9.672  18.552  0.1598  0.0372 -0.2652
98887W        W41800  14.449  29.401  19.483  0.2930 -0.0333 -0.2074
98888W        W41801  21.305  23.309  20.255 -0.0158 -0.0659  0.3826
98889W        W41802  28.294   7.826  17.657  0.2459  0.0323 -0.0247
98890W        W41803  23.708   9.677  19.396  0.2646  0.0067 -0.1884
98891W        W41804  27.235  32.405  18.925 -0.1173 -0.0041  0.3981
98892W        W41805  21.763  32.882  21.320 -0.0759 -0.1398 -0.3421
98893W        W41806   6.260  31.203  17.786 -0.0272 -0.2379 -0.2648
98894W        W41807  27.600   9.541  21.274  0.1198  0.1639  0.0674
98895W        W41808  22.832  31.812  24.496 -0.2914 -0.0634 -0.2507
98896W        W41809  19.890   7.740  26.655  0.0623 -0.1731  0.1185
98897W        W41810  17.182  34.229  23.585  0.0337  0.2013 -0.1664
98898W        W41811  21.745  24.356  19.120  0.1627 -0.0783 -0.1221
98899W        W41812  28.760   3.577  17.184  0.2179  0.2297  0.1963
98900W        W41813  18.447   1.527  15.322 -0.1067  0.0804  0.1624
98901W        W41814  27.100   8.161  16.392  0.1149  0.1859 -0.1123
98902W        W41815  25.705  11.232  15.694  0.0226 -0.1022 -0.1346
98903W        W41816  24.957   2.314  22.188 -0.1703  0.0893  0.1017
98904W        W41817  33.860   3.493  24.144 -0.0019 -0.2641 -0.1206
98905W        W41818  16.640  15.628  27.092  0.1040 -0.2417  0.0060
98906W        W41819  25.982   1.446  24.387  0.1441  0.1943  0.1022
98907W        W41820  21.128   2.910  14.848 -0.2899 -0.3233 -0.0937
98908W        W41821  25.255   3.367   9.233 -0.0271 -0.0437  0.0975
98909W        W41822  21.117   5.810  25.130  0.0439 -0.1574  0.1724
98910W        W41823  18.460   0.065  16.903 -0.1503  0.1992 -0.0960
98911W        W41824  21.840   1.534  23.864 -0.1107  0.2591  0.2351
98912W        W41825  29.698   5.375  19.779 -0.0012 -0.2994 -0.1907
98913W        W41826  25.208   9.188  19.481 -0.0887  0.0609 -0.1611
98914W        W41827  23.682   9.436  14.448 -0.0963 -0.0686  0.0280
98915W        W41828  23.922   3.457   0.083  0.3926 -0.1993  0.2651
98916W        W41829  30.105  19.597  15.223 -0.0478 -0.2705  0.0953
98917W        W41830  24.333   0.517  14.950  0.0345  0.0760  0.1737
98918W        W41831  21.099   6.755   1.324 -0.3729 -0.1022 -0.2178
98919W        W41832  20.867  33.060  13.490  0.2604 -0.1670  0.0161
98920W        W41833  33.965  31.005  16.804 -0.0661 -0.1753 -0.0338
98921W        W41834   9.997  13.912  15.746  0.0992 -0.0473  0.0899
98922W        W41835  30.122   2.945  19.256  0.0100 -0.1391  0.0759
98923W        W41836  24.194   7.562  25.220 -0.0421 -0.0110 -0.1664
98924W        W41837  19.101   8.691  18.020 -0.4053 -0.0741 -0.1323
98925W        W41838  15.464   0.087  19.859  0.2596  0.1554 -0.3593
98926W        W41839  13.259   6.536  25.040 -0.1557  0.1029  0.0932
98927W        W41840  20.577   7.575  24.874 -0.1114  0.0560 -0.1255
98928W        W41841  31.777   5.929  19.924  0.1122 -0.0795  0.0779
98929W        W41842  25.197   0.006  23.610 -0.1490 -0.0050  0.1334
98930W        W41843  26.945   0.937  20.725 -0.3801  0.0492 -0.2990
98931W        W41844  28.703   4.944  22.417 -0.1992 -0.1018  0.0794
98932W        W41845  14.910  10.526  20.952  0.0090  0.2482 -0.3312
98933W        W41846  28.991   5.547  19.043 -0.2648 -0.1799 -0.1527
98934W        W41847  22.989  27.121  14.362  0.3367  0.4621 -0.2810
98935W        W41848  24.135  31.535  17.780  0.0347  0.2743  0.0773
98936W        W41849  29.758  33.466  20.856  0.0144 -0.2533 -0.0051
98937W        W41850  26.364  27.148  23.590 -0.1363 -0.1041 -0.3137
98938W        W41851  27.756   6.716  17.907  0.3146  0.2960  0.0676
98939W        W41852  19.717   7.456  17.659  0.0627 -0.0002  0.1469
98940W        W41853  20.353  28.570  16.086 -0.1348 -0.2774  0.2505
98941W        W41854  23.305  26.687  28.866  0.0238  0.0197 -0.1086
98942W        W41855  16.415   8.313  19.034  0.0610  0.0131 -0.0513
98943W        W41856  16.780  30.162  27.802  0.0378 -0.0576 -0.1702
98944W        W41857  26.815   4.521  22.354  0.0070  0.2092 -0.0988
98945W        W41858  17.769  34.328  15.562  0.0852 -0.2294  0.2462
98946W        W41859   1.254  31.328  18.413  0.0187 -0.5053 -0.1412
98947W        W41860  22.921  32.939  21.043 -0.2379  0.2959  0.2139
98948W        W41861  18.920  33.400  24.843 -0.2900 -0.0708 -0.1604
98949W        W41862  30.508  11.250  19.032 -0.2248  0.1103 -0.1214
98950W        W41863  34.135   1.287  19.293  0.1555  0.0712 -0.0378
98951W        W41864  25.321   4.460  20.822  0.2566  0.0682 -0.0492
98952W        W41865  28.049   6.672  16.705  0.0320  0.3293 -0.0596
98953W        W41866  14.317   0.212  17.227 -0.0364 -0.1108  0.1346
98954W        W41867  24.221   3.241  23.802  0.0856  0.1636 -0.1180
98955W        W41868  18.025   5.066  27.269  0.1239 -0.1103 -0.0123
98956W        W41869  26.138  31.643  28.366  0.1851  0.0231 -0.1610
98957W        W41870  22.116  34.366  16.171 -0.0130 -0.0689  0.0463
98958W        W41871  17.703  12.130  13.178 -0.3607 -0.2933 -0.2434
98959W        W41872  26.425  16.999  23.769  0.1421  0.0180 -0.0766
98960W        W41873  16.937  26.216  26.480 -0.3709 -0.2271 -0.1297
98961W        W41874  15.466  33.780  24.256  0.1898 -0.1098  0.1002
98962W        W41875  13.262  11.663  22.807 -0.0803 -0.0638  0.2473
98963W        W41876  22.477   9.174  15.246  0.1519  0.2843  0.1606
98964W        W41877  19.580   4.671  14.998 -0.1182  0.1766  0.3330
98965W        W41878  21.333   6.015  27.422  0.1634  0.1112  0.0941
98966W        W41879  32.972  33.272  22.899  0.0808  0.0685  0.0464
98967W        W41880  27.562  11.243  20.975  0.0136  0.2051  0.1827
98968W        W41881  28.116   5.559  17.899 -0.1753 -0.0705  0.1273
98969W        W41882  29.097   4.833   3.550 -0.1436  0.4120  0.3720
98970W        W41883  19.786  20.199  16.421 -0.0184 -0.0875  0.0700
98971W        W41884  20.503   1.392  23.662 -0.3321 -0.0815 -0.1181
98972W        W41885  29.293  31.967  21.886  0.0178  0.4606  0.1813
98973W        W41886  16.403   7.616  15.168  0.3965 -0.1022 -0.0844
98974W        W41887  16.061  32.241  20.559  0.0243 -0.0547  0.0790
98975W        W41888  21.450   8.741  14.569 -0.1359  0.0104 -0.1286
98976W        W41889   4.866   3.196   2.031 -0.0967  0.2956  0.0976
98977W        W41890  28.477   1.762  25.506  0.1150 -0.0275  0.1307
98978W        W41891  19.661  31.540  14.936 -0.2075 -0.1435 -0.1906
98979W        W41892  23.626   4.366  23.709 -0.1330 -0.1465 -0.2050
98980W        W41893  28.992  30.110  25.722 -0.0309 -0.0388 -0.0759
98981W        W41894  27.822  10.023  18.889  0.3617 -0.0086 -0.1009
98982W        W41895  22.657   2.970  27.102  0.0805 -0.0271  0.1391
98983W        W41896  20.236  27.421   1.470  0.0071  0.1484 -0.1299
98984W        W41897  20.198  28.445  24.007  0.2047 -0.0756 -0.4530
98985W        W41898  24.835  21.479  12.899 -0.3344 -0.0267 -0.1525
98986W        W41899  22.364   0.130  14.326 -0.0160  0.0335  0.1853
98987W        W41900  26.397   6.978  21.099  0.2313  0.2513 -0.0527
98988W        W41901  22.926  29.021  28.057  0.1150 -0.1053 -0.0485
98989W        W41902  29.583  21.728  13.845 -0.1973  0.2502  0.2583
98990W        W41903  17.706  29.859  18.415  0.0952  0.0219 -0.2983
98991W        W41904  19.411  31.850  19.992  0.2094  0.1365  0.1034
98992W        W41905   0.509   8.680  19.886 -0.0910  0.0463  0.1645
98993W        W41906  29.977  33.615  22.126 -0.0233  0.0907  0.1109
98994W        W41907  32.023  33.896  15.713  0.0289 -0.2015  0.2049
98995W        W41908  24.207  26.401  27.574  0.1708  0.0460 -0.2085
98996W        W41909  24.015   5.602  25.846  0.5703 -0.3143 -0.3774
98997W        W41910   0.522  28.548  20.637 -0.0042 -0.2606 -0.4792
98998W        W41911  18.833   3.237  17.134  0.1878  0.4880 -0.0707
98999W        W41912  18.574   0.114  19.899 -0.0594  0.0391 -0.0642
99000W        W41913  16.222   4.413  15.954  0.1200  0.0364  0.0173
99001W        W41914  22.626   4.547  13.460 -0.0121 -0.3409  0.1581
99002W        W41915  19.108  29.601  19.690 -0.0674 -0.0049  0.1417
99003W        W41916  26.553  34.441  23.990 -0.0768 -0.1199  0.1782
99004W        W41917  23.023  30.077  18.241  0.0452  0.3758 -0.0962
99005W        W41918  20.854  27.567   0.272 -0.4148  0.0090 -0.0702
99006W        W41919  23.511  31.958  14.209  0.0257  0.0834  0.1214
99007W        W41920  24.307   5.808  22.771 -0.1711  0.0314  0.2508
99008W        W41921  24.153   4.316   2.341 -0.0034 -0.0675  0.1375
99009W        W41922  28.717   8.078  21.595  0.1043  0.3705 -0.1331
99010W        W41923  19.285  32.466  24.612  0.1450  0.1283  0.0123
99011W        W41924  23.511  30.930  16.019  0.0618 -0.3184 -0.1695
99012W        W41925  14.892  28.472  26.624  0.1560  0.0729 -0.0935
99013W        W41926  17.003  26.397  24.310  0.2337  0.2264 -0.1113
99014W        W41927  15.032  28.023  26.387  0.1565 -0.2224  0.1651
99015W        W41928  33.146  33.733  16.529 -0.0861 -0.1819 -0.3050
99016W        W41929  10.266  29.507  18.381  0.0798 -0.1781  0.0359
99017W        W41930  22.718  33.895  15.834 -0.2565  0.0846 -0.1656
99018W        W41931  24.143  31.207  15.837  0.0276 -0.1936  0.0189
99019W        W41932  21.096  30.475  22.305  0.1641  0.3076  0.0607
99020W        W41933  22.977  31.952  18.268  0.0894 -0.0611 -0.2383
99021W        W41934  31.015  33.875  21.458  0.0112 -0.3296  0.0366
99022W        W41935  26.202   6.144  25.860 -0.0770  0.1389  0.1429
99023W        W41936  31.686   3.804   1.389 -0.0575  0.1646  0.0438
99024W        W41937  23.802   7.376   0.303 -0.3925  0.0801  0.0266
99025W        W41938  12.257  32.999  28.655  0.0433  0.2075 -0.2974
99026W        W41939  20.227   4.697  14.298  0.3233 -0.0292 -0.1525
99027W        W41940  29.166   9.180  16.458  0.3227 -0.0421  0.2164
99028W        W41941  33.371   0.833  17.905 -0.1026  0.1005 -0.2672
99029W        W41942  10.961   1.305  19.650  0.2856  0.0829 -0.2901
99030W        W41943  16.584  28.294  22.183  0.1614  0.0361 -0.2383
99031W        W41944  29.998  27.980  21.136  0.1695  0.1487  0.1907
99032W        W41945  19.588  13.283  13.045  0.0486 -0.0227 -0.1255
99033W        W41946  24.081  31.018  15.387 -0.0379  0.0512  0.2122
99034W        W41947  25.549   8.180  21.788 -0.1431 -0.0028 -0.0932
99035W        W41948  24.759  27.244  15.770  0.1826  0.0996  0.1058
99036W        W41949  21.063  11.540  25.473 -0.0406 -0.2134  0.1757
99037W        W41950  33.603  28.667  28.934  0.1926  0.0743 -0.2767
99038W        W41951  28.183   2.520  23.762 -0.1421  0.2862 -0.0087
99039W        W41952  23.243  30.022  24.339  0.2128  0.2596  0.1662
99040W        W41953  17.407   6.385  25.425  0.0917 -0.0859  0.1560
99041W        W41954  13.736   9.398  14.351  0.2543 -0.2168 -0.1579
99042W        W41955  22.823  27.150  25.355 -0.2755  0.2745 -0.0418
99043W        W41956  16.241   1.829  21.732 -0.0832  0.0115  0.0489
99044W        W41957  28.205   2.660  18.348 -0.0747  0.1065  0.0745
99045W        W41958  20.212   0.034  21.995 -0.0921 -0.1374 -0.0091
99046W        W41959  28.196   6.334  24.858  0.2994 -0.0468 -0.1361
99047W        W41960  25.191   3.236  24.071  0.1063  0.0817 -0.1331
99048W        W41961  29.521  30.271  22.826 -0.0176 -0.0698 -0.2082
99049W        W41962  17.678   4.385  14.776  0.0141 -0.1408  0.0248
99050W        W41963  22.164  17.958  22.382 -0.0182  0.1809 -0.1374
99051W        W41964   2.431  31.671  24.565 -0.1267  0.1494 -0.0130
99052W        W41965  26.687   7.332  14.744  0.2160 -0.3564 -0.1504
99053W        W41966  18.028  34.364  27.924 -0.1701  0.0445 -0.0207
99054W        W41967  22.199  30.364  13.962 -0.4107  0.3419 -0.2451
99055W        W41968  19.928   2.707  17.693  0.0054 -0.0748  0.2659
99056W        W41969  23.686   2.827  27.972  0.1697 -0.3444  0.1016
99057W        W41970  26.192  30.423  17.752  0.3114  0.1155  0.1124
99058W        W41971  22.607  20.036  19.710  0.0844 -0.1565  0.0490
99059W        W41972  18.949   1.122  18.877 -0.2362  0.0465  0.2340
99060W        W41973  25.948  30.000  15.465  0.0638 -0.0870 -0.0136
99061W        W41974   6.056  23.622  15.163 -0.0200  0.0105  0.1553
99062W        W41975  23.876  30.542  13.952 -0.2515 -0.1513  0.1014
99063W        W41976  27.914  30.648  14.273  0.1126 -0.0961  0.3487
99064W        W41977  12.407   6.862   1.318 -0.0411  0.1409  0.0672
99065W        W41978  25.225   3.552  22.369 -0.1017 -0.4831 -0.3696
99066W        W41979  24.884  32.354  15.097  0.1065  0.1380 -0.0236
99067W        W41980  17.518  34.294  18.978 -0.1577 -0.1091  0.3412
99068W        W41981  11.117  33.923  19.694  0.1600  0.2753 -0.2395
99069W        W41982  32.406  10.283  16.634 -0.0354 -0.0338  0.0188
99070W        W41983  15.632   3.138  16.777 -0.1708 -0.3704  0.2615
99071W        W41984  27.325  10.167  17.792 -0.0164  0.2986  0.0276
99072W        W41985  25.295   5.489  20.365 -0.3418 -0.1480 -0.0610
99073W        W41986  27.681  10.695  28.913  0.1963 -0.1872 -0.3095
99074W        W41987  32.149  24.993  19.534 -0.1687  0.3804  0.0340
99075W        W41988  22.247  28.397  14.341 -0.2325 -0.2783  0.1020
99076W        W41989  32.742   2.298  26.026 -0.1827  0.1678 -0.1828
99077W        W41990  19.167  33.799  26.457  0.0349  0.1806  0.0777
99078W        W41991  22.180   3.379  25.801 -0.1241 -0.1207 -0.2174
99079W        W41992  14.551   5.221  20.318 -0.0535  0.2287  0.1025
99080W        W41993  20.401  30.524  19.867  0.0561  0.2820 -0.1940
99081W        W41994  27.356   6.328   2.434  0.2580 -0.0260 -0.1107
99082W        W41995  29.597  28.415  18.089  0.1630  0.3688 -0.2755
99083W        W41996  31.491   5.100  18.426 -0.0270 -0.0440  0.1376
99084W        W41997  20.824  27.507  17.765 -0.0579 -0.1389 -0.0295
99085W        W41998  23.954  33.201  21.226 -0.0997  0.1678  0.3753
99086W        W41999  25.871   6.359  24.615  0.0024 -0.0354  0.0616
99087W        W42000  16.046  30.555  23.168 -0.0211 -0.0677 -0.0108
99088W        W42001  13.985   3.239  23.820  0.1633  0.1390 -0.3625
99089W        W42002  28.832   3.655  21.178  0.2446 -0.4349 -0.0072
99090W        W42003  27.074   3.441  26.895  0.0046  0.1626  0.0484
99091W        W42004  29.458   4.965  27.449  0.3356  0.1969  0.0975
99092W        W42005  28.327   0.525  16.632 -0.1509  0.3949 -0.2430
99093W        W42006  17.191  34.439   0.507  0.0032 -0.1570 -0.2485
99094W        W42007  27.515  33.693  23.480  0.2243 -0.1984  0.0506
99095W        W42008  28.429  26.897  22.460  0.1891  0.0574  0.0663
99096W        W42009  34.011   4.677  27.157  0.0325 -0.1752 -0.0297
99097W        W42010  18.386   8.329  27.197 -0.0962  0.1033  0.0014
99098W        W42011  12.631   1.145   9.012  0.0765 -0.0724  0.1291
99099W        W42012  17.107   0.622  25.186  0.0767 -0.0880 -0.4154
99100W        W42013  23.481  32.180  15.142  0.2425 -0.1515  0.2610
99101W        W42014  29.879   8.769  27.959 -0.2615  0.0461  0.0173
99102W        W42015  19.555  28.528  16.089  0.0158  0.0115 -0.2500
99103W        W42016  27.560   3.975  28.877  0.0071  0.2178  0.0544
99104W        W42017  14.088   3.699  27.024 -0.2843 -0.1965 -0.0646
99105W        W42018  21.044  31.345  15.756 -0.0676 -0.2747 -0.3083
99106W        W42019  27.438   1.825  18.076  0.0136 -0.0739 -0.3424
99107W        W42020  18.761  34.173  29.098  0.2414  0.0799 -0.1668
99108W        W42021  27.999  25.680  25.025 -0.0325 -0.1487 -0.0552
99109W        W42022  21.767   4.053  27.041  0.4052 -0.2379  0.3587
99110W        W42023  33.557   5.831  20.763 -0.1657 -0.0883  0.2098
99111W        W42024  24.137  25.573  21.044 -0.0267  0.2074  0.1676
99112W        W42025  28.065   3.310  21.152  0.0375  0.1893 -0.0180
99113W        W42026  10.835  32.825  22.261  0.0611  0.2611  0.1193
99114W        W42027  18.817   2.876  20.234 -0.2226  0.1696 -0.0254
99115W        W42028  25.896  28.126  16.428 -0.0230 -0.0808  0.0758
99116W        W42029  17.672  31.327  16.543 -0.2777  0.1780 -0.0835
99117W        W42030  24.937  15.461  15.068 -0.2008 -0.2160 -0.0671
99118W        W42031  21.436  32.582  25.835  0.0460 -0.2063  0.0849
99119W        W42032  25.818  27.256  23.193  0.3265  0.1575 -0.0979
99120W        W42033  18.527  18.697  13.467 -0.0693  0.2151 -0.0021
99121W        W42034  20.669  34.474  14.323 -0.0343  0.0455 -0.0322
99122W        W42035  29.537  34.389  18.948 -0.0598  0.2121  0.0436
99123W        W42036  14.766   0.514  22.376  0.1864 -0.0537 -0.0301
99124W        W42037   0.555   0.930  26.512 -0.2665 -0.0005 -0.0641
99125W        W42038  26.684   9.503  15.277 -0.1905  0.1193 -0.0658
99126W        W42039  24.351   3.763  14.416 -0.0283 -0.1518 -0.1975
99127W        W42040   4.216  13.126  21.373  0.0614 -0.2343  0.2592
99128W        W42041  30.969   5.916  18.453 -0.2153 -0.1913  0.1883
99129W        W42042  22.974  26.868  26.121  0.0192 -0.1091 -0.0180
99130W        W42043  33.050   7.364  16.825 -0.1923 -0.2151  0.0026
99131W        W42044  32.471   5.298  25.451 -0.1644 -0.1727 -0.0278
99132W        W42045  24.611   2.652  28.272  0.1996 -0.2551 -0.0711
99133W        W42046  27.444   3.333  19.801  0.2067  0.1374  0.1403
99134W        W42047  20.753  23.977  18.352  0.1652 -0.0059  0.1066
99135W        W42048  31.464   3.203  17.338 -0.1733  0.2070 -0.1288
99136W        W42049  23.433  29.914  29.019 -0.0537 -0.0175 -0.1404
99137W        W42050  31.096   4.587  23.189  0.2794 -0.1810  0.0763
99138W        W42051  13.911   3.007  28.246  0.1828 -0.1953  0.1041
99139W        W42052  26.869   8.138  21.679 -0.1354 -0.0081  0.0696
99140W        W42053  28.846   4.647  19.171  0.0293 -0.0070  0.0475
99141W        W42054  11.530  33.808  22.653  0.2496  0.1003  0.0220
99142W        W42055  33.478  25.811  26.828 -0.3344 -0.3192  0.0864
99143W        W42056  30.131   4.054  17.181 -0.1737  0.0037 -0.1586
99144W        W42057  12.178  11.577  15.011 -0.1122 -0.5950  0.0643
99145W        W42058  24.630   8.416  14.218 -0.1786  0.2144  0.1046
99146W        W42059  17.485  24.859  18.015 -0.3150  0.1359  0.0967
99147W        W42060  27.288   9.219  18.782 -0.0604 -0.0048  0.0703
99148W        W42061  25.208  30.536  22.329  0.1247 -0.3817 -0.1848
99149W        W42062  21.570  33.365  27.790  0.1633 -0.2139  0.0886
99150W        W42063  13.762   3.349  18.081  0.1208  0.1178 -0.1689
99151W        W42064  29.472   8.935  18.640 -0.0160  0.4126 -0.4110
99152W        W42065   0.842  28.138   1.370  0.4302 -0.0284 -0.0121
99153W        W42066  22.100  27.557  27.581  0.1328  0.0608 -0.0525
99154W        W42067  32.244   7.890  16.123  0.0696 -0.1915  0.1414
99155W        W42068  24.561  32.889  20.510 -0.5381 -0.1287 -0.0537
99156W        W42069  31.447  22.319  15.712  0.0840  0.0789 -0.2066
99157W        W42070  24.198   5.866  25.283 -0.0450 -0.1190 -0.5470
99158W        W42071  14.655  29.460  22.650  0.1552  0.1985  0.1004
99159W        W42072  28.359  13.429  17.941 -0.1214  0.2748  0.4948
99160W        W42073  14.863   4.449  23.589  0.2488 -0.0481  0.2258
99161W        W42074  22.119  29.580  14.919 -0.3100 -0.0783 -0.1260
99162W        W42075  34.139  28.142  15.209  0.1988  0.2395  0.0141
99163W        W42076  21.959  33.048  16.338 -0.0667 -0.0231 -0.2443
99164W        W42077  27.293   4.711  21.443 -0.2022 -0.0402 -0.2637
99165W        W42078  26.755   3.440  29.075 -0.3013 -0.1559 -0.2105
99166W        W42079  20.981   4.331  23.229  0.2158 -0.2877  0.1280
99167W        W42080  24.864   2.113  14.071 -0.1051  0.0396  0.0027
99168W        W42081  12.866   6.197  23.342  0.3026 -0.2082  0.0138
99169W        W42082  30.767  25.944  15.013 -0.0818  0.0116 -0.0243
99170W        W42083  21.126  25.340  13.360  0.1856  0.4992  0.0575
99171W        W42084  33.626  29.012  17.873  0.1107  0.4221  0.1990
99172W        W42085  21.812   6.566  20.338 -0.0188  0.1151 -0.1893
99173W        W42086  21.282  33.255  14.848 -0.0622 -0.2641  0.0029
99174W        W42087  31.488   1.030  17.825 -0.2889  0.3623 -0.2132
99175W        W42088  13.973  33.509  21.698 -0.1310  0.3373  0.1634
99176W        W42089  28.544   1.209  20.295 -0.2400 -0.0773  0.1989
99177W        W42090   1.231  27.625  21.076 -0.1681  0.1961  0.2267
99178W        W42091   6.627  30.090  25.154 -0.0941 -0.0235  0.0496
99179W        W42092  22.675   1.861  16.510  0.0426 -0.0723 -0.1752
99180W        W42093  28.567  31.357  25.910 -0.0763 -0.0474  0.1919
99181W        W42094  14.741  24.812  14.526 -0.0189  0.2138  0.0073
99182W        W42095  22.793   1.938  27.729 -0.0532  0.0600 -0.1031
99183W        W42096  29.179   6.809  23.272  0.0633  0.0088 -0.2762
99184W        W42097  24.815  33.633   3.649  0.0473  0.1173  0.0429
99185W        W42098  24.437   1.571  18.403  0.1344  0.2334 -0.1686
99186W        W42099  22.672   5.499  29.597 -0.0298 -0.1488 -0.0523
99187W        W42100  29.930   7.430  20.366  0.0179 -0.0104  0.1728
99188W        W42101  25.763   0.991  14.454  0.0678  0.1833 -0.2989
99189W        W42102  22.237   0.857  13.881 -0.2661  0.1590 -0.1012
99190W        W42103  21.305   3.969  22.022  0.2969  0.1307 -0.1990
99191W        W42104  22.134   5.076  27.060 -0.0405  0.0382 -0.0831
99192W        W42105   0.501  31.110   1.879  0.1619 -0.0292 -0.2564
99193W        W42106  26.468   5.632  23.697 -0.0710  0.1816 -0.2309
99194W        W42107  16.849  23.791  19.978  0.1419 -0.2135 -0.3855
99195W        W42108  25.669  31.624  14.160 -0.1017 -0.4044 -0.1553
99196W        W42109  24.855  31.475  13.945 -0.0118  0.0362  0.3736
99197W        W42110  14.099   1.849   1.319 -0.0920 -0.0601 -0.1257
99198W        W42111  24.385   9.475  20.334  0.1224  0.0761  0.0992
99199W        W42112  26.554   2.629  28.156 -0.0550 -0.0886 -0.0610
99200W        W42113  20.025  18.697  13.478 -0.3231  0.3309 -0.0729
99201W        W42114  32.237   3.978  17.480 -0.1198  0.0295 -0.0008
99202W        W42115  25.459  33.332  18.075  0.0877  0.1088  0.0649
99203W        W42116  26.304  34.475  26.582  0.0193  0.0888 -0.0445
99204W        W42117  13.658   8.750  17.640  0.1404  0.1726 -0.1621
99205W        W42118   1.664  32.625  18.830  0.2343 -0.0346 -0.0678
99206W        W42119  25.583   7.534  22.060  0.1344 -0.1360  0.1785
99207W        W42120  29.381  29.953  24.896  0.2362 -0.1671 -0.0103
99208W        W42121  28.219   2.825  15.161  0.0002 -0.3204 -0.1402
99209W        W42122  18.575  31.247  20.401 -0.2379 -0.0217  0.0397
99210W        W42123  14.756   7.295  20.588  0.2876 -0.1081 -0.3289
99211W        W42124  23.420  32.053  29.198  0.0671  0.0469 -0.0119
99212W        W42125  15.644  12.438  26.715 -0.0708 -0.0166 -0.2122
99213W        W42126  20.575  27.462  15.374  0.2105 -0.2617 -0.2151
99214W        W42127  26.997  34.237  20.266  0.1117  0.0427 -0.0572
99215W        W42128  27.176   3.975  23.729  0.1437  0.2410 -0.0922
99216W        W42129  18.021  32.161  24.740 -0.2289  0.2917 -0.0180
99217W        W42130  13.594   0.570  17.611  0.0078  0.2306 -0.1578
99218W        W42131  33.297  33.344  27.474  0.0221 -0.3038  0.1272
99219W        W42132  22.985  34.209   0.755 -0.3530  0.0530 -0.1115
99220W        W42133  22.202  18.633  12.634 -0.2092 -0.1712  0.1046
99221W        W42134  25.550  34.448  16.927 -0.2264  0.1963 -0.0519
99222W        W42135  14.410   4.569  20.214  0.1315 -0.0242 -0.0154
99223W        W42136  25.945   1.981  24.501 -0.0126  0.1137 -0.0263
99224W        W42137  29.599   2.944  22.028 -0.4422 -0.3249 -0.1761
99225W        W42138  24.977   1.558  21.246  0.0584  0.0384 -0.3655
99226W        W42139  30.601   0.050  20.323  0.0667  0.0314 -0.2090
99227W        W42140  24.230   3.007  21.720  0.1020 -0.1627 -0.2194
99228W        W42141  16.358   9.307  14.640  0.3432 -0.0343  0.1762
99229W        W42142  15.817   7.659  14.588  0.1075 -0.1862  0.1290
99230W        W42143  18.401  31.156  22.551  0.2664  0.4785  0.1310
99231W        W42144  25.807  32.304  25.138 -0.0475 -0.2963 -0.1776
99232W        W42145  23.788  10.258  19.655 -0.3831 -0.1531  0.3237
99233W        W42146  21.635  19.701  28.686 -0.0990 -0.0285  0.3469
99234W        W42147  30.957   2.981  22.789 -0.2681 -0.1962  0.0522
99235W        W42148  17.315  30.481  18.988 -0.4142  0.0275 -0.1326
99236W        W42149  21.664   1.172  21.261  0.2030  0.0812  0.0361
99237W        W42150  25.765  15.193  22.456  0.0638  0.1066  0.1343
99238W        W42151  21.222  10.122  16.237 -0.0663  0.0243  0.1109
99239W        W42152  28.204  28.469  22.489  0.1912  0.2267  0.0395
99240W        W42153  19.629   6.138  15.765 -0.1013  0.0745  0.1935
99241W        W42154  25.452  30.923  26.390  0.0430 -0.1343 -0.1052
99242W        W42155  24.500   6.841  16.710  0.0140  0.1701 -0.2471
99243W        W42156  16.824  34.100  24.449  0.0104 -0.2413  0.0422
99244W        W42157  11.641   6.079  19.348  0.4206 -0.1721  0.0240
99245W        W42158  14.993  30.137  15.913 -0.2418 -0.1196 -0.1876
99246W        W42159  24.450   0.651  13.883 -0.0240 -0.4082 -0.2127
99247W        W42160  19.974  31.909   0.527  0.0578 -0.1871  0.1071
99248W        W42161  26.915   1.234  10.744 -0.1605  0.0107  0.0390
99249W        W42162  28.464   7.785  18.084 -0.0885  0.0339  0.1097
99250W        W42163  16.921  31.734   1.048 -0.1094  0.2153 -0.0783
99251W        W42164  25.603  27.257  22.402 -0.0135  0.0200  0.1369
99252W        W42165  27.784  33.840  29.700  0.0917  0.0280 -0.1540
99253W        W42166  24.972   7.873  25.427  0.3049  0.0632  0.0134
99254W        W42167  22.914  11.175  18.332  0.0937  0.0440  0.0534
99255W        W42168  14.538  29.800  19.942  0.2545 -0.3131  0.1400
99256W        W42169  16.682  12.881  25.527 -0.2498  0.2974 -0.1490
99257W        W42170  15.375   0.446  27.558  0.0836  0.3424 -0.0098
99258W        W42171  16.108   0.649  23.157  0.0460 -0.0792 -0.1005
99259W        W42172  27.232   3.021  14.941 -0.0786 -0.1880  0.1836
99260W        W42173  17.617  31.934  18.353 -0.3517  0.1490  0.0197
99261W        W42174  29.404  33.971  26.224  0.0804  0.0146 -0.4488
99262W        W42175  26.347   7.342  26.247  0.1094  0.1180  0.1395
99263W        W42176  17.168  22.035  24.105  0.0437  0.0808  0.2075
99264W        W42177  27.329   0.129  20.690 -0.0160  0.1018 -0.0615
99265W        W42178  18.533   8.684  24.283  0.3146 -0.0757  0.0391
99266W        W42179  19.838   9.222   2.119 -0.0171 -0.1145  0.4675
99267W        W42180  26.943  11.313  19.463 -0.0095  0.2017  0.1387
99268W        W42181  27.959   2.841  15.575 -0.0702 -0.0398 -0.0190
99269W        W42182  25.205  32.332  17.171 -0.1868  0.1112  0.0549
99270W        W42183   7.926  31.015  17.245  0.1070 -0.2370 -0.5669
99271W        W42184  26.381   2.727  24.156 -0.0214 -0.3115 -0.3919
99272W        W42185  30.141   4.941  29.033  0.2200 -0.2332  0.1163
99273W        W42186  13.261  34.274   4.118 -0.4541  0.1564 -0.3182
99274W        W42187  28.836   4.377  18.668 -0.0517 -0.0104  0.1528
99275W        W42188  14.293  26.159  21.992  0.0724 -0.1676 -0.1363
99276W        W42189  33.947   2.264  29.508  0.0028  0.2303 -0.0903
99277W        W42190  34.096  19.535   2.937  0.0973  0.0449  0.1009
99278W        W42191  19.636   2.973  18.127 -0.2153  0.1200 -0.0407
99279W        W42192  26.494   5.816  26.621  0.2118 -0.1781 -0.0661
99280W        W42193  20.119  32.221  27.413 -0.3570 -0.0449 -0.0251
99281W        W42194  22.823  29.451   0.109 -0.0416 -0.1203  0.3747
99282W        W42195  33.439   9.705  19.107 -0.0594  0.0127  0.2406
99283W        W42196  29.203   1.538  25.656  0.0543 -0.0686 -0.0851
99284W        W42197  26.440   3.177  20.206 -0.0996  0.1626  0.1071
99285W        W42198  20.050   1.260   5.696  0.1163  0.1658  0.0210
99286W        W42199  23.290  17.754  20.274  0.0560  0.2319  0.1071
99287W        W42200  24.580   6.846  14.406  0.1707  0.1022 -0.1479
99288W        W42201  13.836  33.257  28.289  0.0624  0.1571 -0.1372
99289W        W42202  13.978  11.134  21.308  0.2095 -0.2822 -0.1635
99290W        W42203   1.008  32.479  22.729 -0.0172 -0.0292  0.0082
99291W        W42204  14.072  25.944   5.879  0.1106 -0.1056  0.1497
99292W        W42205  27.021  12.820  25.021  0.3089  0.0326  0.0512
99293W        W42206  24.192  31.002  13.324  0.2790  0.0095  0.4012
99294W        W42207  18.384   8.295  19.005  0.1349 -0.0883  0.0718
99295W        W42208  26.705   2.027  28.687 -0.0580  0.0314 -0.1684
99296W        W42209  27.916   9.756  18.227  0.1040 -0.3115 -0.0181
99297W        W42210  24.548  32.866  26.328  0.0539  0.1409  0.3666
99298W        W42211  32.792  30.007  28.282 -0.3322  0.1444 -0.0993
99299W        W42212  15.110   8.081  18.231  0.0141 -0.0659  0.1235
99300W        W42213  24.440  27.309  24.592 -0.0796 -0.2205  0.1946
99301W        W42214  22.674   1.731  19.931 -0.0967 -0.2293 -0.1875
99302W        W42215  27.917   6.614  21.676  0.2433 -0.0150  0.0286
99303W        W42216  15.164  31.830  28.129 -0.1181  0.1123 -0.1436
99304W        W42217  21.663  30.643  17.276 -0.1607  0.1520 -0.1439
99305W        W42218  17.119   0.017  23.190  0.2148  0.0441  0.0808
99306W        W42219  19.675   2.270  16.948  0.1319  0.1273  0.0561
99307W        W42220  26.192   4.974  24.471  0.0343  0.0659 -0.1493
99308W        W42221  20.034  32.155  17.811 -0.1426  0.0771  0.0331
99309W        W42222  17.380   3.942  17.444  0.0139 -0.2177 -0.0231
99310W        W42223  20.631  31.040  19.597  0.1889 -0.3696 -0.3488
99311W        W42224  19.495  33.479  20.672 -0.2197 -0.3927 -0.1846
99312W        W42225  25.402  29.413   0.919 -0.3828 -0.1232 -0.2319
99313W        W42226  18.124   7.301   3.716 -0.1768  0.5918 -0.1854
99314W        W42227   9.277   8.942  20.941 -0.0653 -0.0649 -0.0350
99315W        W42228  22.204  24.655  24.271  0.1875 -0.3956  0.0434
99316W        W42229  13.262  10.873  29.644  0.1310  0.4840 -0.0950
99317W        W42230  26.261   6.128  29.288 -0.1786  0.0493 -0.0485
99318W        W42231  24.706   8.343  17.750 -0.1681 -0.2223  0.2390
99319W        W42232  26.393  31.839  21.772  0.1514 -0.1266  0.1963
99320W        W42233  17.260   8.861  26.314 -0.0684 -0.2101  0.0335
99321W        W42234  30.354  34.345  29.350 -0.0255 -0.2771  0.1001
99322W        W42235  19.864   4.001  18.259  0.2415  0.1243  0.0797
99323W        W42236  16.236  12.312  18.812 -0.0024 -0.2538  0.0416
99324W        W42237  29.031  27.774   4.930  0.1375  0.1846  0.0671
99325W        W42238  21.984  32.638  28.525  0.2021  0.0155  0.0871
99326W        W42239   9.548  34.000  18.770  0.1532 -0.0173  0.1484
99327W        W42240  15.803  34.263  18.028 -0.0249  0.0724  0.2858
99328W        W42241  15.001   9.270  17.344 -0.2152 -0.0372 -0.3963
99329W        W42242  19.743  34.199  29.291  0.2113  0.0435 -0.0795
99330W        W42243  16.847  31.137  20.111  0.0258  0.0717  0.0991
99331W        W42244  21.766  30.406  29.442  0.1751  0.1960  0.0399
99332W        W42245   7.932  11.403  15.967 -0.0586 -0.0439 -0.0951
99333W        W42246   6.619  30.240  23.800 -0.1142  0.2950 -0.0350
99334W        W42247  11.639  28.165   4.659 -0.0243  0.0252 -0.0934
99335W        W42248  33.943   1.412  15.554  0.1611  0.1387 -0.0075
99336W        W42249  19.248   3.544  19.433 -0.0012  0.1528 -0.0186
99337W        W42250  16.924   5.271   7.547 -0.1207 -0.1990  0.2189
99338W        W42251  12.374  25.783  27.975 -0.1074  0.0960 -0.3525
99339W        W42252  20.093   6.515  28.231  0.0240 -0.1695  0.2337
99340W        W42253  18.692   3.554  19.085  0.0869  0.1512 -0.3067
99341W        W42254  22.976   1.966  26.488 -0.1896 -0.0934  0.2334
99342W        W42255  25.965   7.570  20.765 -0.1722  0.2467  0.3574
99343W        W42256  18.877   3.620  16.019  0.0080 -0.0516  0.1633
99344W        W42257  23.775  29.653  23.608  0.0848 -0.1203  0.0979
99345W        W42258  19.758  24.104  23.830  0.0779  0.2908  0.2451
99346W        W42259  28.537   7.670  25.829  0.1798  0.0016 -0.0534
99347W        W42260  29.355   1.314  17.147 -0.0832 -0.2166 -0.1033
99348W        W42261  27.972   6.313  29.451 -0.0489  0.1424  0.2500
99349W        W42262   2.493  26.334  16.945  0.0502 -0.2443 -0.0992
99350W        W42263  24.916   0.320  27.641 -0.0620 -0.1393  0.1500
99351W        W42264  22.546   4.662  25.120  0.1061  0.0991  0.0500
99352W        W42265  10.750   3.904  16.711 -0.0292 -0.1206 -0.2941
99353W        W42266  21.492   7.507  29.404  0.3018  0.0722  0.2197
99354W        W42267  27.784   6.475  14.136 -0.2415  0.1537 -0.0111
99355W        W42268  20.939  27.744   3.632 -0.0892 -0.2453  0.0132
99356W        W42269  16.811   0.356   0.436 -0.1390  0.0114  0.0356
99357W        W42270  16.341   3.722  27.737  0.0921 -0.0332 -0.0450
99358W        W42271  20.658   6.976   4.291  0.2528  0.0516  0.2526
99359W        W42272  14.770  10.373  14.338  0.3051  0.0762 -0.0968
99360W        W42273  26.556  34.260  20.600  0.1483 -0.0939  0.3093
99361W        W42274  20.333  21.291  21.507 -0.0059 -0.1094 -0.2192
99362W        W42275  27.446  32.942  20.832  0.2113  0.2467 -0.3695
99363W        W42276  29.861   0.551  27.795 -0.4134  0.1164 -0.0556
99364W        W42277  13.339  23.948  21.582 -0.1748  0.1218 -0.1805
99365W        W42278  25.986   4.838  18.687 -0.3566 -0.2348  0.1551
99366W        W42279  27.490  15.670   0.299 -0.0026  0.1521  0.2193
99367W        W42280  23.467   4.503  15.927  0.1700 -0.2231  0.1605
99368W        W42281  15.805   9.951  24.014 -0.2781  0.0268  0.1342
99369W        W42282  32.837  28.435  28.026  0.1505  0.1883  0.1222
99370W        W42283  23.671   2.438  21.583  0.0059 -0.2177 -0.1411
99371W        W42284  18.221   1.628  21.550 -0.1168  0.0805  0.2090
99372W        W42285  15.583   1.350  15.178  0.5167  0.0313  0.1467
99373W        W42286  29.023  32.017  19.441 -0.0841  0.3249  0.2561
99374W        W42287  18.881  25.561  28.508 -0.0063 -0.0558 -0.0591
99375W        W42288   0.283  32.111  16.668 -0.6209 -0.2687 -0.0104
99376W        W42289  29.423  30.556   0.761 -0.0026  0.1073 -0.0582
99377W        W42290  23.896  13.488  19.774  0.0128 -0.2859  0.0127
99378W        W42291  20.894  33.698  18.333 -0.0746 -0.0611 -0.5660
99379W        W42292   0.150   1.803  19.716 -0.2140 -0.0169  0.1478
99380W        W42293  16.775  10.991  21.355 -0.1486 -0.1393 -0.0549
99381W        W42294  21.276   3.021  16.336  0.2362 -0.1562 -0.0504
99382W        W42295  33.320  32.958   2.080 -0.1842 -0.4002 -0.1616
99383W        W42296  29.786  24.704  16.605 -0.3813 -0.1992 -0.2390
99384W        W42297  23.865  10.532   9.500  0.1678  0.0114 -0.0799
99385W        W42298  25.249  30.591  19.810  0.2044 -0.0407 -0.2126
99386W        W42299  21.839  26.951  27.327 -0.0423  0.0778 -0.0547
99387W        W42300  20.659   1.017  28.414  0.0478 -0.0187 -0.0657
99388W        W42301   5.014   4.892   5.146 -0.0267 -0.0612  0.1502
99389W        W42302  22.494   5.853  15.503 -0.0306  0.4064  0.1360
99390W        W42303  30.601  31.935   4.294  0.0265  0.1512 -0.1521
99391W        W42304  19.377  12.373  14.448 -0.2486 -0.3040 -0.0038
99392W        W42305  31.456   7.494  16.223 -0.4989  0.0404  0.1583
99393W        W42306  19.423   9.643  23.363 -0.2127 -0.3346 -0.0364
99394W        W42307  20.546  33.692  24.039  0.4282 -0.0902 -0.0240
99395W        W42308  21.553  31.143  20.062 -0.3152 -0.0959  0.0821
99396W        W42309  25.038  22.489  22.815  0.1019  0.0493  0.1561
99397W        W42310  27.307   8.818  22.428 -0.2570  0.2735 -0.1134
99398W        W42311  20.536  23.788  21.406 -0.2087  0.1728 -0.0214
99399W        W42312  26.566  33.828  25.332 -0.2112 -0.0591 -0.1694
99400W        W42313  26.137  33.865   6.802  0.1018  0.1264 -0.3834
99401W        W42314  21.960   3.214   5.294  0.1599  0.1491 -0.2263
99402W        W42315  19.321  31.813  28.841 -0.4116  0.0545 -0.1949
99403W        W42316  22.188  15.040  23.318  0.0047  0.2226  0.0902
99404W        W42317  19.248   8.645  27.514  0.1098  0.1249 -0.0030
99405W        W42318  17.374   3.728  28.438 -0.0882 -0.1487 -0.0131
99406W        W42319  13.259   8.754  17.285  0.0738 -0.3387 -0.0552
99407W        W42320  21.184  25.196  20.387 -0.3068 -0.1623 -0.1723
99408W        W42321  29.019   3.816  29.641 -0.1071 -0.2501  0.0273
99409W        W42322  31.855   1.757  23.810 -0.1492 -0.1028 -0.2264
99410W        W42323  23.618   6.887  24.601 -0.1751  0.1737  0.2250
99411W        W42324  25.504  25.860  26.993  0.0991 -0.0158  0.3239
99412W        W42325  12.846  13.799  19.818 -0.3192 -0.2729  0.1183
99413W        W42326  10.486   4.615   2.024  0.1883  0.0641 -0.1178
99414W        W42327  14.572  29.388  16.090  0.1174  0.0828  0.0565
99415W        W42328  22.170  33.748   2.866 -0.1384 -0.0909  0.0737
99416W        W42329  29.945  26.540  16.879 -0.3395 -0.1866  0.3152
99417W        W42330  26.311  26.532  20.272  0.1693  0.0435  0.2311
99418W        W42331   3.056  33.268  22.888 -0.2341  0.4760  0.0091
99419W        W42332  17.953   0.303   1.949 -0.0890 -0.3740 -0.2691
99420W        W42333  13.297   5.322  29.775  0.1742 -0.1467  0.0564
99421W        W42334  13.306  10.614  15.298 -0.1068  0.2171 -0.1820
99422W        W42335  20.887   2.408  18.326 -0.0999 -0.3340 -0.0840
99423W        W42336  13.917   6.747  23.606 -0.1406 -0.1560 -0.0678
99424W        W42337  17.574   5.937   1.601 -0.0252  0.1342  0.0889
99425W        W42338  27.747  11.508   2.947  0.2316 -0.0114  0.4000
99426W        W42339  27.275   9.002  29.195 -0.0776  0.0593  0.1710
99427W        W42340  18.021  29.487   1.592  0.2414 -0.1207 -0.1251
99428W        W42341  14.085  29.736  19.623  0.1676 -0.1536  0.2380
99429W        W42342  25.062   0.039  17.669 -0.0589  0.3984 -0.1964
99430W        W42343  20.677   7.475   1.729  0.3175 -0.2114  0.0290
99431W        W42344  20.777   9.552  21.339 -0.3368 -0.1579 -0.2686
99432W        W42345  26.128  31.223  23.959 -0.1018 -0.0215  0.0903
99433W        W42346  25.152  31.901   6.347 -0.0589  0.0414  0.1102
99434W        W42347  23.406  30.578  22.464  0.0710  0.0124 -0.0889
99435W        W42348  24.083  26.937  27.603  0.1767 -0.0148 -0.2744
99436W        W42349  32.177  32.845  19.851 -0.1054  0.1083  0.0189
99437W        W42350  19.879  34.252  24.028  0.0446 -0.3203  0.1840
99438W        W42351  22.804   8.478   4.531  0.1830  0.2304 -0.0246
99439W        W42352  27.578   2.012   0.424 -0.1147 -0.3061  0.0947
99440W        W42353  18.196   2.273   5.859  0.0969  0.0078  0.3221
99441W        W42354  18.601   3.797  26.970  0.0846  0.2465  0.4410
99442W        W42355  29.016   4.379  15.570 -0.1302  0.3396 -0.2369
99443W        W42356  29.857  10.802  22.225  0.2625 -0.1919  0.0750
99444W        W42357  28.491   0.536  23.607  0.1513 -0.1444  0.0455
99445W        W42358  26.995   0.103  19.632  0.1608  0.0896 -0.1694
99446W        W42359  16.915  14.582  21.962 -0.1576 -0.0856 -0.0079
99447W        W42360  21.140   1.193   3.969  0.2166 -0.0583 -0.2063
99448W        W42361  30.410  33.558  22.400 -0.0886  0.3692 -0.1230
99449W        W42362  25.365  34.209   1.296 -0.1436 -0.0729  0.0243
99450W        W42363  17.137  31.607  24.793 -0.1493 -0.2622  0.0183
99451W        W42364  31.482  24.533  25.448 -0.1097 -0.1509  0.2175
99452W        W42365  24.200  33.213  23.956  0.1279  0.0303  0.0336
99453W        W42366  21.361  32.663  21.104  0.0269  0.2302  0.1089
99454W        W42367  29.076  26.628  23.850 -0.0603 -0.0140 -0.0856
99455W        W42368  11.031  33.571  19.311  0.1245 -0.2002  0.2609
99456W        W42369  31.677   6.214  19.450  0.2704 -0.0859  0.3192
99457W        W42370  15.696   7.365  18.267  0.0817  0.2953 -0.0988
99458W        W42371  20.289  32.032   3.993  0.0882 -0.6169  0.1278
99459W        W42372  17.226  10.047   7.481 -0.0219  0.0353 -0.1346
99460W        W42373   1.689   7.264  17.315  0.2090  0.0235  0.2083
99461W        W42374   2.536   0.926  22.485  0.3829 -0.0130 -0.4990
99462W        W42375  19.992   6.596  13.055 -0.2823 -0.2106 -0.2589
99463W        W42376  25.936   5.870   6.440  0.2413 -0.0880 -0.0216
99464W        W42377  23.824   6.190   0.423 -0.2062  0.1359 -0.2905
99465W        W42378  24.946  11.458  15.946 -0.0686 -0.1270 -0.1616
99466W        W42379  17.916   3.691  25.299 -0.0640 -0.1357  0.0116
99467W        W42380  21.689  30.844  26.337 -0.2444  0.1098  0.0933
99468W        W42381  27.883  32.631   0.130 -0.1513  0.0227  0.1192
99469W        W42382  22.630   4.170  22.829  0.0587  0.1210  0.0808
99470W        W42383   5.822   0.861   0.250  0.0297 -0.1788 -0.1096
99471W        W42384  18.645  25.980   3.411 -0.0758  0.0549 -0.2500
99472W        W42385  26.662  28.017  28.236  0.0388  0.0048 -0.2561
99473W        W42386  28.888  11.041   2.242 -0.1978  0.0351  0.1704
99474W        W42387  18.247   4.776  22.945  0.1472 -0.1392  0.2137
99475W        W42388  16.428  31.452  27.276  0.1037  0.2289 -0.1842
99476W        W42389  18.590  17.808  14.683  0.0094  0.0159  0.0899
99477W        W42390  27.942   8.800  22.586 -0.3492  0.1600 -0.0274
99478W        W42391  21.218   2.356  25.001 -0.2510 -0.0997  0.0883
99479W        W42392  23.383   7.384  27.985  0.2871 -0.0620 -0.2195
99480W        W42393  15.529  24.038  20.922  0.1723  0.0720 -0.1640
99481W        W42394  19.102  31.967   4.896  0.4700  0.2382  0.1944
99482W        W42395  24.532  30.294  20.212  0.0839  0.0936  0.1439
99483W        W42396  31.458  11.450  18.899  0.1048  0.1418  0.3585
99484W        W42397  14.319   5.314  28.960  0.0398 -0.1791  0.3642
99485W        W42398  24.708   3.297  21.606  0.2237 -0.0104 -0.2292
99486W        W42399  29.240   4.367  27.961 -0.0238  0.1541  0.0396
99487W        W42400  24.168  12.097  28.928  0.1467 -0.0355  0.1471
99488W        W42401  21.319   8.957  23.688 -0.0671 -0.1629  0.2731
99489W        W42402  30.471   6.647   2.682 -0.0922  0.1271  0.0470
99490W        W42403  15.378  32.259  20.608 -0.1864  0.1517  0.1849
99491W        W42404  18.069   6.919  22.751  0.0151 -0.1427  0.0583
99492W        W42405  16.978   8.440  22.543 -0.0378  0.0073  0.0689
99493W        W42406   9.820   3.885   1.604  0.1904  0.0017  0.1496
99494W        W42407   3.907  30.620  22.774  0.2219  0.0149  0.0688
99495W        W42408  26.538   2.665  26.384 -0.3023 -0.0751  0.2938
99496W        W42409  26.696   4.969  22.909  0.0379  0.1107  0.2543
99497W        W42410  30.718   0.038  15.906  0.1872  0.0035 -0.0536
99498W        W42411  27.489  34.086  28.235  0.0586  0.2199 -0.2395
99499W        W42412  18.087   4.988  19.162 -0.0407 -0.1182  0.0607
99500W        W42413  32.281  12.152  21.588 -0.0077 -0.3669 -0.0421
99501W        W42414  13.111   5.547  20.846  0.1745 -0.0961 -0.0108
99502W        W42415  11.739   2.397  25.769 -0.0131 -0.1278  0.0723
99503W        W42416  18.893  30.821  20.400  0.1465 -0.1401 -0.0251
99504W        W42417  19.823  32.372  17.272 -0.1167 -0.0684 -0.0573
99505W        W42418  16.064   2.546   3.518  0.2069 -0.2520 -0.2625
99506W        W42419  14.764   0.937  19.209  0.1344 -0.0538 -0.0887
99507W        W42420  19.223   3.927  25.895  0.1025 -0.1770  0.0608
99508W        W42421  26.152  32.689  15.629  0.2279 -0.1695  0.1129
99509W        W42422  13.485   9.919  23.115  0.0074 -0.1629  0.1279
99510W        W42423  20.681  32.799  23.929 -0.1307  0.2147  0.1509
99511W        W42424  23.021  27.781   0.230 -0.0762  0.2082 -0.1457
99512W        W42425  22.524  27.785  23.846 -0.0108  0.0409  0.3392
99513W        W42426  30.727   3.268  15.602 -0.0013 -0.2802 -0.2257
99514W        W42427  18.538   3.407  27.214  0.1331 -0.2691 -0.0310
99515W        W42428  22.825  33.555  24.445 -0.0451 -0.0735 -0.2328
99516W        W42429  22.072   2.294   1.132 -0.2995 -0.2400 -0.0414
99517W        W42430  19.607  34.185  28.550  0.0262 -0.1362 -0.0618
99518W        W42431   9.268  24.315  24.710  0.1193 -0.2283  0.2628
99519W        W42432  33.150  25.450  24.287  0.3898  0.2633  0.2380
99520W        W42433  21.750  33.494  13.979 -0.3369  0.1298  0.2738
99521W        W42434  19.240  15.775  14.066 -0.1465  0.0180 -0.2385
99522W        W42435  25.469   8.353  19.571 -0.1884  0.2853 -0.1835
99523W        W42436  23.411   7.347  14.593 -0.0019  0.0886  0.0640
99524W        W42437  17.966   8.632  14.404  0.2958  0.0462  0.1511
99525W        W42438  21.886  25.652  19.787  0.0060  0.1768  0.0453
99526W        W42439  21.629   8.913  22.450  0.2945  0.4444  0.1276
99527W        W42440  14.353  28.266  25.058 -0.1796 -0.0712  0.0576
99528W        W42441  16.003   3.872  24.160  0.0448 -0.0859 -0.0690
99529W        W42442  30.942   5.902   4.548 -0.2135  0.4144 -0.2771
99530W        W42443  24.608  31.363  15.459 -0.1504  0.1532 -0.1211
99531W        W42444  31.225  11.693  15.740  0.3151  0.1819 -0.1223
99532W        W42445  22.600  33.864   0.824  0.1100  0.1397  0.0584
99533W        W42446  33.379   5.324  20.537  0.2835  0.2010  0.1976
99534W        W42447  27.173   9.904   4.419 -0.0526  0.1322  0.0073
99535W        W42448  21.301   2.046  14.897  0.2398  0.0125 -0.2419
99536W        W42449  25.261  13.588  23.662 -0.1262 -0.3081  0.0990
99537W        W42450  19.620   1.762   6.279 -0.0034  0.2342  0.0356
99538W        W42451  25.569  33.043   0.166 -0.2521 -0.1482  0.0087
99539W        W42452  22.700   3.589  15.873  0.1124  0.0046 -0.1519
99540W        W42453  28.655  26.790  25.381  0.1087 -0.2264 -0.2842
99541W        W42454  22.154   2.652   0.334 -0.0054 -0.1757 -0.0261
99542W        W42455  12.975   7.512  22.224 -0.0330 -0.0368 -0.1638
99543W        W42456  14.765   7.413  17.897  0.0228  0.0331  0.4043
99544W        W42457  14.375  23.782  23.880 -0.0315 -0.0914 -0.1225
99545W        W42458  24.207  17.487  17.396 -0.0591  0.0597  0.1163
99546W        W42459  28.993   7.185  26.594 -0.1356 -0.0062 -0.0895
99547W        W42460  17.764   4.183  19.557 -0.1049 -0.1788  0.1923
99548W        W42461  21.220   2.220  25.519  0.1324  0.4516  0.0661
99549W        W42462  21.720  31.898  18.849  0.0409 -0.0014  0.0702
99550W        W42463  29.699   5.285  16.097 -0.1822  0.2657  0.1564
99551W        W42464  27.898  33.038  26.390 -0.0886 -0.0167 -0.4706
99552W        W42465  26.040  30.744  19.485 -0.2635  0.1991  0.2649
99553W        W42466  30.861  28.237  29.257  0.1163  0.2452  0.4194
99554W        W42467  19.796   1.701  29.298 -0.1316 -0.1282  0.0468
99555W        W42468  24.699  11.601  26.814 -0.0108  0.0985  0.1716
99556W        W42469  21.839   9.234  25.769 -0.1011  0.2190  0.2481
99557W        W42470  28.832   3.555   3.181 -0.0318  0.2633  0.1033
99558W        W42471  22.349   1.401  20.713  0.0377  0.1715 -0.0864
99559W        W42472  23.044   1.246   5.841  0.2280  0.2967  0.0520
99560W        W42473  22.898   8.145  15.887 -0.0648  0.1324 -0.1271
99561W        W42474  24.311   5.401  29.272 -0.3667  0.0172  0.0137
99562W        W42475  16.797  11.432  25.895  0.4100  0.0842 -0.2221
99563W        W42476  18.942  32.972  26.786  0.0457 -0.0230 -0.1302
99564W        W42477  28.476  32.826   6.464 -0.0681  0.2366 -0.0098
99565W        W42478  18.174  32.448  23.010 -0.0896  0.0768  0.1549
99566W        W42479  22.682   5.651  18.798  0.2095 -0.1394  0.0503
99567W        W42480  21.917  30.661   3.437  0.4527 -0.1516  0.0195
99568W        W42481  24.149  27.322  17.289  0.0221 -0.2902  0.0314
99569W        W42482  24.460  30.241  28.396  0.3027  0.0216  0.0888
99570W        W42483  25.691   1.520  22.294 -0.2549 -0.0128  0.2625
99571W        W42484  23.035  26.307  25.404 -0.0198 -0.1086  0.0654
99572W        W42485  17.411   8.114   2.310  0.0860 -0.1041  0.2788
99573W        W42486  19.819  33.402  14.909 -0.1207 -0.0877  0.0088
99574W        W42487  24.518  33.581  22.828 -0.2066  0.1677  0.1376
99575W        W42488  15.550   5.891  24.396 -0.1615 -0.0952 -0.1301
99576W        W42489  18.941  32.476  17.891  0.2077  0.1216  0.2745
99577W        W42490  18.462   6.759  27.217 -0.0219  0.2236  0.0473
99578W        W42491  11.926  28.956  18.242  0.1138  0.1081  0.0017
99579W        W42492  16.119   2.688  20.241 -0.1327 -0.1101  0.3755
99580W        W42493  29.955  28.421  24.091  0.1918 -0.0567 -0.1338
99581W        W42494  28.021   2.509   1.917  0.1942  0.1107  0.0041
99582W        W42495  24.608   8.497   6.702  0.0218  0.3047 -0.1677
99583W        W42496  11.116   4.390  22.854 -0.0208  0.1728 -0.1016
99584W        W42497  14.346  13.011  24.694 -0.0773 -0.0287 -0.0316
99585W        W42498  20.194  29.645  16.684 -0.0237 -0.1595 -0.0400
99586W        W42499  23.386   0.152  18.100 -0.0466 -0.2192 -0.0524
99587W        W42500  17.610   0.930  28.834  0.0140  0.1813  0.3426
99588W        W42501  27.509   9.265   0.888  0.1922 -0.0036 -0.0576
99589W        W42502  16.167  10.687  25.286 -0.0384  0.0284  0.3090
99590W        W42503  21.960   8.897   2.645  0.0763  0.1731 -0.0449
99591W        W42504  23.751  21.446   1.020  0.1079  0.3259  0.0953
99592W        W42505  22.027  12.488  25.054  0.1088  0.3116 -0.2090
99593W        W42506  30.685   6.994  22.437  0.3862  0.1093 -0.0969
99594W        W42507  25.450   5.239  22.410 -0.3113  0.1989  0.2515
99595W        W42508  15.370  28.230  21.282 -0.0048 -0.0424 -0.1008
99596W        W42509  29.743  27.030   1.367  0.1111 -0.1463  0.1531
99597W        W42510  29.121   1.765   5.889 -0.0761  0.1557  0.1589
99598W        W42511  23.503  27.212  24.277  0.1034  0.0718 -0.3876
99599W        W42512  26.885   5.323  26.544  0.1795  0.1266 -0.2321
99600W        W42513  15.098  23.263  26.307 -0.2502  0.0637 -0.4288
99601W        W42514  23.535   4.628  28.345  0.0023 -0.1404  0.2624
99602W        W42515  26.089   4.732   7.454 -0.2328  0.1336 -0.1250
99603W        W42516  27.939   3.806  16.666  0.0806 -0.1616 -0.2072
99604W        W42517  15.815  31.783  20.479  0.1235  0.0715  0.1285
99605W        W42518  14.387  28.744  25.227 -0.4124 -0.0386 -0.0908
99606W        W42519  21.613  32.396  20.516 -0.1996  0.0526 -0.0209
99607W        W42520  20.246   4.306  13.928  0.1813 -0.0154  0.0563
99608W        W42521  31.628  29.858  22.615  0.0179  0.1319  0.0427
99609W        W42522  20.738  30.940  23.023  0.2893 -0.1022  0.0957
99610W        W42523  18.548  23.801  25.517 -0.0418  0.0002 -0.2407
99611W        W42524  20.622  10.986  20.215  0.0604 -0.3506 -0.0689
99612W        W42525  33.533   4.020  16.933  0.1962  0.1050  0.2867
99613W        W42526  14.908  34.294  27.060  0.2012  0.1865  0.1646
99614W        W42527  30.493   6.273  19.730  0.1566 -0.1957  0.0725
99615W        W42528  31.380   8.982  23.133  0.0811  0.0013  0.5649
99616W        W42529  12.212   5.218  22.341 -0.1541 -0.2578 -0.2124
99617W        W42530  20.152  33.040  28.907 -0.1011 -0.2397 -0.1680
99618W        W42531  22.035   8.607   3.177 -0.2629  0.0525  0.0940
99619W        W42532  26.916   6.738   4.264 -0.1194 -0.0242  0.0171
99620W        W42533  27.517  16.279  13.705 -0.0478  0.4460 -0.1131
99621W        W42534  24.407   5.112  18.136  0.3129 -0.0422 -0.2164
99622W        W42535  29.301   4.017   7.940 -0.0368 -0.3111 -0.2702
99623W        W42536  27.290  21.639  23.517  0.0757  0.2848 -0.1301
99624W        W42537  15.920   6.019  22.525  0.0914 -0.0761  0.0472
99625W        W42538  18.873  28.679  24.556  0.3038  0.4638 -0.0157
99626W        W42539  18.460   2.690  18.962 -0.1260 -0.0377  0.1317
99627W        W42540  17.882  32.484  23.906 -0.0818 -0.1326 -0.0446
99628W        W42541  18.721  33.782  18.623  0.2448  0.0432  0.0898
99629W        W42542  13.017  29.259  21.474  0.1428  0.0241  0.0049
99630W        W42543  29.083   3.443  20.727  0.0410  0.3354  0.3003
99631W        W42544  21.052  12.104  23.923  0.1307 -0.1015 -0.0894
99632W        W42545  13.343  25.013  22.511 -0.1622  0.2298 -0.1940
99633W        W42546  20.033   8.334   0.475  0.1342  0.1403 -0.1424
99634W        W42547  23.985  32.699  19.418  0.0636  0.0339  0.1228
99635W        W42548   8.731  28.361  25.173  0.0719  0.0355 -0.0793
99636W        W42549  33.991  10.077  17.790  0.1917 -0.3208  0.1251
99637W        W42550  24.408  13.217  21.977 -0.0455 -0.0247  0.2048
99638W        W42551  16.847   5.974  27.327 -0.0570  0.1819 -0.2184
99639W        W42552  21.740   4.471  17.072  0.0998 -0.1079 -0.0320
99640W        W42553  14.459  31.512  20.654  0.0273  0.1875 -0.2527
99641W        W42554  18.651  25.877  21.801  0.0114 -0.3598 -0.0380
99642W        W42555  25.493  27.051   0.781 -0.2031  0.0261 -0.1564
99643W        W42556  29.865  33.923  19.045  0.2259  0.1531  0.1051
99644W        W42557  11.484  34.448  25.769  0.0079 -0.0491 -0.0008
99645W        W42558  34.228   4.987  20.330  0.0117  0.2987  0.3479
99646W        W42559  22.732   7.354  20.312 -0.0245 -0.0346  0.0459
99647W        W42560  25.829   7.007  16.911 -0.1178 -0.2719  0.0595
99648W        W42561  27.528   2.237  25.155 -0.0058 -0.2623  0.0837
99649W        W42562  16.998  32.377  15.189  0.0480 -0.0458 -0.0808
99650W        W42563  18.091  34.036   2.741  0.1937  0.2030  0.1560
99651W        W42564  21.893   7.805   0.296  0.2493  0.0497  0.1828
99652W        W42565  22.511   8.606  25.815 -0.3034  0.1768 -0.0210
99653W        W42566  17.298   6.696  13.809  0.0641 -0.0462 -0.1652
99654W        W42567  12.752  29.885  29.472 -0.1652  0.1167 -0.0505
99655W        W42568  25.148   6.202   9.854  0.0482  0.1305 -0.0597
99656W        W42569  22.795  32.557  28.913 -0.0447 -0.1765 -0.0450
99657W        W42570  25.627   1.012  23.197  0.0879 -0.0998 -0.0186
99658W        W42571  18.166  21.023  18.380 -0.1913 -0.1164 -0.1506
99659W        W42572  17.113   4.277   8.332  0.1542  0.1676  0.1626
99660W        W42573  28.648   7.460  25.053  0.0485  0.1196  0.1912
99661W        W42574  20.899  28.440  18.165  0.0636  0.2441  0.1882
99662W        W42575  31.615  32.525  11.514  0.0004  0.1622  0.2325
99663W        W42576  29.032   0.218  25.820 -0.0210 -0.2127  0.1985
99664W        W42577  11.256   2.175  21.649 -0.0615 -0.0660 -0.0064
99665W        W42578  18.132  34.029   2.128 -0.0529  0.2650  0.2638
99666W        W42579  13.877  32.354  22.566 -0.1117 -0.1870 -0.1696
99667W        W42580  21.448  28.736  28.779  0.3487  0.2002 -0.1530
99668W        W42581  19.016   0.021  26.990 -0.0330  0.0635 -0.0583
99669W        W42582  24.566  22.789  22.651 -0.1057 -0.2213 -0.0056
99670W        W42583  18.185  31.049  21.238 -0.0438 -0.1896 -0.0113
99671W        W42584  26.120   5.385  24.019 -0.1570 -0.1630  0.1784
99672W        W42585  27.016   3.442   9.765  0.2194  0.1869 -0.1488
99673W        W42586  22.275   1.957  28.632 -0.0839  0.2011  0.0885
99674W        W42587  16.642   8.256   0.477 -0.3556  0.0774 -0.1508
99675W        W42588  26.623  11.939   4.012 -0.0347  0.4523 -0.1392
99676W        W42589   0.684  12.896   4.779  0.0863  0.0175  0.0821
99677W        W42590  30.064   0.206  24.787  0.2217 -0.0111 -0.1386
99678W        W42591  28.714   1.802  24.420 -0.0049 -0.0925 -0.1324
99679W        W42592  17.777   9.634  23.697 -0.2097 -0.0786 -0.1112
99680W        W42593  19.990  14.245  28.526  0.1662 -0.0302  0.2906
99681W        W42594   1.050   5.040   0.276  0.4848  0.0248 -0.0819
99682W        W42595  22.232   9.651  26.641  0.3804  0.1896  0.1323
99683W        W42596   0.733   6.640  29.616 -0.0384 -0.1372  0.2578
99684W        W42597  14.856   1.406  25.450 -0.1741  0.0543 -0.0304
99685W        W42598  26.230  13.417  29.442  0.0290  0.1519 -0.0270
99686W        W42599  29.070  30.393  24.907 -0.0741 -0.3725 -0.2371
99687W        W42600  17.976  11.727  22.322 -0.3774  0.1550 -0.1500
99688W        W42601  21.932  30.226  24.320  0.0689  0.0257  0.1185
99689W        W42602  12.271   6.325  22.437 -0.1607  0.0913 -0.1593
99690W        W42603  19.116   1.064   0.064  0.1047 -0.0646  0.2365
99691W        W42604  27.254  30.649  28.309  0.1848 -0.3525 -0.1902
99692W        W42605  21.083   1.105  25.340  0.4282 -0.1280  0.1643
99693W        W42606  27.444  30.961   6.619 -0.0542 -0.2911 -0.4352
99694W        W42607  15.570  34.280   1.319  0.1124  0.1353 -0.1130
99695W        W42608  32.833   0.380  19.620 -0.2442 -0.0360 -0.0213
99696W        W42609  31.219  33.351  18.475 -0.0053  0.1181 -0.0461
99697W        W42610  27.191   0.190  26.221  0.0646  0.1812 -0.2700
99698W        W42611  17.021   3.182  24.504  0.0257  0.0144 -0.0445
99699W        W42612  24.169  30.818   1.414 -0.4446  0.1722 -0.1207
99700W        W42613  14.179   5.783  25.071  0.2110 -0.2668 -0.0460
99701W        W42614  32.355  27.289  27.331 -0.0628 -0.1582 -0.1631
99702W        W42615  15.248  19.604  21.895 -0.2705 -0.2922 -0.0430
99703W        W42616   0.091  13.177  25.269  0.1625 -0.0024 -0.1474
99704W        W42617  30.624   7.059   8.431 -0.0164  0.2456 -0.1110
99705W        W42618  21.680   0.623  27.020 -0.3505  0.0656 -0.0900
99706W        W42619  26.081   7.174   3.414 -0.6074  0.1421 -0.0407
99707W        W42620  27.438   5.405  25.054  0.1831 -0.0353  0.0639
99708W        W42621  33.934   1.537  16.705  0.0497 -0.2601 -0.1569
99709W        W42622  19.796  11.273  25.165 -0.1259  0.1682 -0.2270
99710W        W42623  14.833  30.287  18.573  0.0271  0.0762 -0.1134
99711W        W42624  23.809   0.157  25.859  0.3178 -0.3105  0.2395
99712W        W42625  20.117   3.534  21.353 -0.2416 -0.2825  0.1022
99713W        W42626  30.869  23.916   7.658  0.0222 -0.2456 -0.0246
99714W        W42627  21.215  30.835  22.735  0.1740 -0.1129 -0.1624
99715W        W42628  22.696  31.707  23.058  0.1605  0.0960  0.0994
99716W        W42629  30.248   3.717   4.341  0.0587 -0.0360 -0.3862
99717W        W42630  30.287   1.065  20.896  0.0111 -0.1321 -0.1525
99718W        W42631  27.120  32.137  20.184  0.2801  0.1703 -0.0332
99719W        W42632  23.272   8.495  17.765 -0.0536  0.1440 -0.0304
99720W        W42633  20.997  33.023  23.530  0.2244  0.0862  0.0479
99721W        W42634  17.953  28.734  26.022 -0.0069 -0.1106  0.0762
99722W        W42635  23.409   9.908   8.718 -0.0202 -0.1277  0.1911
99723W        W42636  26.096   5.886   4.088  0.2347  0.2218  0.1560
99724W        W42637  22.981  19.760  18.413  0.0277  0.3058 -0.2043
99725W        W42638  18.134  29.892   4.172 -0.2683 -0.0089  0.0573
99726W        W42639  28.015   2.430  24.249 -0.2200 -0.2447 -0.0382
99727W        W42640  18.588   0.847   5.867 -0.1264  0.2789 -0.0274
99728W        W42641  11.430   9.698  28.160 -0.1125  0.0566  0.0474
99729W        W42642  15.661  33.307  23.286 -0.0583  0.0040 -0.2408
99730W        W42643  30.497   3.853  20.739  0.1327 -0.1002  0.1725
99731W        W42644  25.803   0.856  23.607 -0.1861 -0.0226  0.2157
99732W        W42645  25.968   2.046  26.168  0.0672  0.1556  0.2015
99733W        W42646  25.258   9.018  27.312  0.0925 -0.1013 -0.1000
99734W        W42647  25.387  28.266  14.945 -0.1056 -0.2042  0.0902
99735W        W42648  25.899  28.667  24.610  0.1996 -0.2189  0.0116
99736W        W42649  26.934  34.326   0.781 -0.2094 -0.2002 -0.0217
99737W        W42650  20.118  14.250   2.471  0.7135 -0.2613  0.0328
99738W        W42651   1.611   4.333  19.748  0.0522 -0.2342 -0.2074
99739W        W42652  15.863   6.784  28.743 -0.3219 -0.1524 -0.0944
99740W        W42653  21.164  31.955   6.899 -0.0831 -0.3127 -0.0279
99741W        W42654  28.842   7.791  23.552  0.3119  0.0859 -0.1376
99742W        W42655  32.771  31.597  20.915 -0.1014  0.0943 -0.0058
99743W        W42656  13.064   6.385  20.173  0.1442 -0.2449  0.4305
99744W        W42657  22.030  32.602  27.502  0.1456 -0.1053 -0.1943
99745W        W42658   2.393  34.389   3.507 -0.1226  0.1145 -0.0859
99746W        W42659  23.576   5.525  25.465  0.0280 -0.0792  0.0789
99747W        W42660  21.112  13.804  23.231 -0.0199  0.1570 -0.2346
99748W        W42661  19.694  24.402   1.866  0.0803 -0.1280  0.2189
99749W        W42662  22.182  32.680  26.458 -0.1632 -0.1196 -0.2638
99750W        W42663  21.374  30.592  24.979  0.1281 -0.2602 -0.1951
99751W        W42664  22.096   4.353   0.773  0.1144  0.2754 -0.1226
99752W        W42665  26.692   4.025  19.332 -0.2077  0.6384  0.0137
99753W        W42666  24.982  33.889   4.641  0.1849 -0.0024  0.0773
99754W        W42667  18.879   8.179  26.343 -0.1459  0.0938 -0.1676
99755W        W42668  16.815   8.429  20.850  0.3527 -0.1573 -0.0337
99756W        W42669  23.689   1.108  25.810  0.0139  0.0575 -0.4625
99757W        W42670  24.485  33.951  23.671 -0.1359  0.1344  0.0006
99758W        W42671  18.687  10.168   0.087  0.1510 -0.0663  0.0058
99759W        W42672  19.794  28.780   0.167  0.3628  0.0117 -0.0252
99760W        W42673  19.524   6.237  27.566 -0.1608  0.0679 -0.1090
99761W        W42674  23.688  10.193  27.799 -0.1690 -0.2406  0.2333
99762W        W42675  26.508  11.200  26.525  0.2210 -0.0736  0.1432
99763W        W42676  27.540   2.461  24.614 -0.3524 -0.1791 -0.0822
99764W        W42677  26.268  28.974  23.467  0.1338 -0.0495  0.0843
99765W        W42678  21.054   6.668  21.585 -0.0770 -0.1055 -0.0415
99766W        W42679  27.960  25.722  23.613 -0.1410 -0.0594 -0.2316
99767W        W42680  29.115  26.599  22.062  0.2358  0.0845  0.0807
99768W        W42681  22.954  26.327  13.926 -0.1479  0.1882 -0.2480
99769W        W42682  23.404   0.512  19.948  0.2323 -0.3376 -0.2513
99770W        W42683   8.511   3.068   4.912 -0.0814  0.0340  0.1979
99771W        W42684  16.286  32.898  25.741  0.0060  0.0267  0.0229
99772W        W42685  26.483   5.076  26.423  0.2991 -0.0456  0.1211
99773W        W42686  16.455  29.322   1.544  0.0807 -0.1778 -0.1880
99774W        W42687  24.773   9.039  17.826  0.2398 -0.2799  0.0309
99775W        W42688  17.560   2.795  20.927  0.2903  0.3068  0.1242
99776W        W42689   1.047   1.288   2.135 -0.0871  0.1339  0.1078
99777W        W42690  29.421  13.227  24.232  0.0321  0.0107  0.2163
99778W        W42691   8.506  31.309  19.080  0.0242 -0.0098 -0.2295
99779W        W42692  22.863  21.315  24.497  0.1677  0.1451 -0.3013
99780W        W42693  30.580   3.862   6.428 -0.2428 -0.0331 -0.0783
99781W        W42694  29.155   6.286  29.494 -0.2788  0.1408  0.0320
99782W        W42695  28.400   6.092   3.010 -0.3142  0.0082 -0.0697
99783W        W42696  25.056  31.043  23.294  0.1257  0.2812 -0.0002
99784W        W42697  22.756   0.381  22.653  0.0347  0.1448 -0.3303
99785W        W42698  16.943  30.175   5.645  0.0902  0.0529  0.0313
99786W        W42699  17.898  33.247   4.453 -0.3736 -0.1104  0.0276
99787W        W42700  25.451  15.729   5.983  0.0584  0.0471 -0.3811
99788W        W42701  20.304  30.249  24.819  0.0774 -0.1381  0.0221
99789W        W42702  20.873  32.521  25.719  0.2844  0.2061  0.0576
99790W        W42703  26.209   1.655  18.703 -0.0685  0.2357 -0.4412
99791W        W42704  14.898   5.029  25.251  0.0708  0.0115 -0.1085
99792W        W42705  19.776   0.972  18.986 -0.1261  0.3985  0.0286
99793W        W42706  27.892   5.633  25.185 -0.0189  0.0997  0.0410
99794W        W42707  18.622   6.122  21.632  0.1570  0.1443 -0.2250
99795W        W42708  19.985  25.170   2.237 -0.3719 -0.0016 -0.1566
99796W        W42709  23.442   2.335   3.001  0.2082  0.1786 -0.3038
99797W        W42710  32.724   4.293  29.460  0.1932  0.0467  0.0852
99798W        W42711  18.820   8.387  23.300  0.1070 -0.0262  0.2836
99799W        W42712  23.436  34.085   3.691 -0.1002 -0.1913  0.1301
99800W        W42713  26.369   1.187  18.750  0.1627 -0.1843  0.0082
99801W        W42714   0.405  33.985   2.709  0.0646 -0.2597  0.1497
99802W        W42715  24.164  11.659   7.260  0.1728  0.1529  0.0374
99803W        W42716  25.896   4.378   0.078 -0.0082  0.2742  0.0538
99804W        W42717  28.918  29.835  24.765  0.2333  0.1270 -0.2772
99805W        W42718  14.435  34.338  23.491  0.1229  0.0479 -0.3126
99806W        W42719   8.509   6.131  27.170  0.1851 -0.1053 -0.0402
99807W        W42720  22.101  10.978   4.324 -0.3130 -0.0074  0.0672
99808W        W42721   4.757  27.951  27.765  0.3379 -0.1216  0.1280
99809W        W42722  29.868  15.722  29.209  0.1314  0.0546  0.2713
99810W        W42723  17.842   9.381  14.999  0.0427 -0.0824 -0.1143
99811W        W42724  25.469   9.947  25.899  0.0475 -0.1981 -0.0159
99812W        W42725  23.870  27.299  19.137 -0.1000 -0.0366 -0.0897
99813W        W42726  17.413   8.927  23.924 -0.1379  0.0927 -0.0548
99814W        W42727  13.902  27.188   0.584  0.1817  0.3000  0.3234
99815W        W42728  26.325  11.290  17.036 -0.0401 -0.0327 -0.0715
99816W        W42729  31.362  10.413  23.301 -0.0078 -0.0009  0.0179
99817W        W42730  33.187   5.870  25.464  0.2153 -0.0686  0.2363
99818W        W42731  21.154   6.310  20.672 -0.5012  0.0366  0.0993
99819W        W42732  28.577   3.591   1.388 -0.1177 -0.2640  0.0878
99820W        W42733  30.071   1.446  25.365 -0.0559 -0.0430 -0.1876
99821W        W42734  16.364   6.752   5.747 -0.4487  0.0620 -0.2534
99822W        W42735  24.757   0.965   2.331  0.2687 -0.0115 -0.2349
99823W        W42736  27.719  30.937  26.217 -0.0288 -0.0302  0.2653
99824W        W42737   3.816   0.504  25.447 -0.2518  0.0899  0.1727
99825W        W42738  31.870   3.862   2.336 -0.1910 -0.1069  0.0887
99826W        W42739  21.532   1.252  21.832 -0.0795  0.0242  0.1339
99827W        W42740  26.625   2.015  25.083  0.1660  0.0254 -0.3498
99828W        W42741  24.637  32.193  24.629 -0.3433 -0.2254  0.0494
99829W        W42742  23.481   6.578  19.229 -0.4807  0.0559 -0.3125
99830W        W42743  29.233   8.330  27.825  0.1547 -0.1243 -0.0133
99831W        W42744  20.922   5.597  27.660 -0.1131 -0.2745  0.1576
99832W        W42745  14.566   3.169  24.489 -0.1037 -0.3403  0.3710
99833W        W42746  23.325   0.109   8.410 -0.1340  0.2690 -0.0143
99834W        W42747  15.165   1.731   2.525 -0.0740  0.1597  0.1461
99835W        W42748  22.101   6.906  29.517 -0.0372  0.0884  0.0299
99836W        W42749  12.098  27.363  15.247  0.0519 -0.1837  0.3406
99837W        W42750  25.271  26.786   3.158  0.0119  0.2283  0.1680
99838W        W42751  30.420  32.807  29.315 -0.2434 -0.1996 -0.2646
99839W        W42752  22.007   3.691  18.218 -0.3749  0.3538 -0.1971
99840W        W42753   7.586   5.150   3.010  0.4692 -0.0197 -0.1661
99841W        W42754  28.876  33.848  25.888 -0.1785  0.1857  0.0623
99842W        W42755  33.961  33.523  28.046  0.2028  0.1699 -0.0185
99843W        W42756  19.176   9.895  28.452  0.1401  0.1217  0.1108
99844W        W42757  14.196   0.988  18.370  0.0883 -0.2277  0.0972
99845W        W42758  32.218   7.775  26.148 -0.6725 -0.2181  0.2744
99846W        W42759  30.150   9.532   0.096  0.0028  0.0211  0.0151
99847W        W42760  17.857   4.576  25.002 -0.3199  0.0425  0.2846
99848W        W42761  23.577   1.615  17.848 -0.0013  0.0466 -0.1244
99849W        W42762   9.912  34.131  19.100 -0.0415 -0.0221 -0.0811
99850W        W42763  19.048   5.936  24.078  0.0379  0.0584  0.2326
99851W        W42764  21.142   0.949  20.231 -0.2205  0.2067 -0.1102
99852W        W42765  29.884  32.642  19.536 -0.1594 -0.0695  0.0563
99853W        W42766  24.858   0.390  25.529  0.1233 -0.1071 -0.0152
99854W        W42767  27.829  33.444   9.325 -0.2988 -0.0726 -0.0446
99855W        W42768  26.627   2.473   5.704  0.1329 -0.0316 -0.2869
99856W        W42769  25.488   4.193   0.126 -0.0164  0.2154  0.1538
99857W        W42770  20.015  23.543   2.847  0.0405  0.1689 -0.5551
99858W        W42771   9.543   0.821   0.541  0.1501 -0.2039  0.5508
99859W        W42772  12.899   0.584  25.016 -0.0591  0.0042 -0.3462
99860W        W42773  22.456  12.378  21.054  0.4594  0.1416 -0.1047
99861W        W42774  22.057  30.700  25.512  0.0710  0.2618  0.0941
99862W        W42775  25.174   9.521  29.588  0.0200 -0.1831  0.0055
99863W        W42776  29.185   3.926  23.958 -0.1806  0.1545 -0.0966
99864W        W42777  21.114  12.102  27.551 -0.3414  0.0684  0.0908
99865W        W42778  23.312   1.501  25.133 -0.3524 -0.0397 -0.0314
99866W        W42779  20.401   2.531   1.995  0.0582 -0.1322 -0.2958
99867W        W42780  31.953  30.734  29.452  0.0013 -0.4871 -0.1844
99868W        W42781  20.767  33.734   0.756  0.0857  0.0250 -0.0476
99869W        W42782  23.377   7.760   2.864  0.1388  0.1399  0.1494
99870W        W42783  22.911  13.856  15.266  0.0295 -0.0234 -0.1752
99871W        W42784  28.097   2.867   1.543 -0.0372 -0.1012 -0.1775
99872W        W42785  29.908  10.993  26.960  0.0132  0.1093 -0.2979
99873W        W42786  21.998   2.243   0.061 -0.1515  0.0525 -0.0815
99874W        W42787  27.459  33.773  22.148  0.0249  0.1266  0.1493
99875W        W42788  21.797   3.056  28.205 -0.5900 -0.0648 -0.0575
99876W        W42789  26.816   3.122  24.383 -0.1410 -0.0359  0.0685
99877W        W42790  25.065   4.071   5.456  0.0169 -0.1792  0.2056
99878W        W42791   9.459  29.336  28.633 -0.0235  0.0542  0.2579
99879W        W42792  16.977  11.644   3.415  0.3630  0.1349  0.1641
99880W        W42793  15.879  29.348  29.433  0.2099 -0.0291  0.2564
99881W        W42794  21.934   0.579   6.275 -0.0459  0.0511 -0.1271
99882W        W42795  22.139  31.373  29.095 -0.1506  0.1188  0.0440
99883W        W42796  25.135  28.451  19.074  0.0344 -0.0309 -0.0744
99884W        W42797  22.514   6.193   2.915 -0.0172  0.3152 -0.2623
99885W        W42798  24.567  34.117   8.090 -0.2072  0.0522 -0.0330
99886W        W42799   0.462  34.194  26.466  0.3438  0.2555  0.0440
99887W        W42800  22.252   1.344  24.022  0.2188  0.1525 -0.0999
99888W        W42801  15.983  12.114  26.915 -0.0024 -0.0264 -0.1306
99889W        W42802  21.884   8.532   0.711 -0.0696  0.0776 -0.0142
99890W        W42803  30.881   7.173   0.880  0.0204  0.2252 -0.0456
99891W        W42804  23.323   2.963  23.912  0.1609 -0.2920  0.2273
99892W        W42805  23.631  30.398  16.079  0.2500  0.2328 -0.2463
99893W        W42806  19.870  28.683  26.694  0.1900 -0.0890 -0.0761
99894W        W42807  31.177   0.970  28.042  0.2570 -0.0159  0.0744
99895W        W42808  19.902  15.049   6.301 -0.0908 -0.1402 -0.4889
99896W        W42809  27.386  22.535  23.011  0.1300  0.1609  0.0703
99897W        W42810  29.792  28.108   8.442  0.1972  0.0236  0.0031
99898W        W42811  22.931   2.330   8.723 -0.1605 -0.1017 -0.3007
99899W        W42812  23.319  33.161  27.076  0.2189  0.2377  0.0731
99900W        W42813  16.380  23.232   3.208 -0.0416  0.0458 -0.0159
99901W        W42814   6.122  28.412  29.744  0.0353 -0.2498 -0.2213
99902W        W42815  23.676  25.645  28.204  0.2579 -0.1035 -0.0363
99903W        W42816  12.281   7.160  15.724 -0.1007 -0.1837  0.0791
99904W        W42817  19.491   0.201  29.136 -0.0522  0.0152 -0.0547
99905W        W42818  32.912  23.777   6.345  0.0810  0.2829  0.1037
99906W        W42819  25.444  30.931  18.326  0.0648  0.2071 -0.1473
99907W        W42820  28.070  29.931   8.638 -0.0419 -0.1844 -0.2546
99908W        W42821  30.893   1.955  10.127  0.2593  0.1667 -0.1223
99909W        W42822  20.020   5.858  14.484  0.2046  0.1251  0.2619
99910W        W42823  21.424   2.539  24.336 -0.0275  0.1842 -0.1906
99911W        W42824  25.805   3.433  17.538  0.1670 -0.1052  0.2230
99912W        W42825  24.292   1.503  26.718 -0.2787 -0.1711  0.2107
99913W        W42826  25.468  28.029  19.690  0.2922  0.0547 -0.0867
99914W        W42827  22.235  25.666  24.239 -0.0577  0.1857 -0.1875
99915W        W42828  24.044   9.445  28.533 -0.2889  0.3250  0.1677
99916W        W42829  21.524   2.054   0.028 -0.0537 -0.0090 -0.0091
99917W        W42830  22.387   6.445  27.446  0.1674  0.2376 -0.2417
99918W        W42831  17.814   0.061   3.969 -0.0247  0.1045  0.3439
99919W        W42832  22.322  12.901   3.463  0.2049  0.1628  0.2514
99920W        W42833  10.632  13.867  14.612 -0.3080  0.1347  0.3367
99921W        W42834  14.124   2.294  29.255 -0.3460 -0.0907 -0.2542
99922W        W42835  17.779  12.866   3.515  0.2879  0.0512 -0.0341
99923W        W42836  33.418   8.125  20.192 -0.2044 -0.2614 -0.1337
99924W        W42837  19.759   4.064   6.471  0.0272  0.3000 -0.1091
99925W        W42838  26.071  26.116   2.476  0.1039  0.1105  0.1939
99926W        W42839   9.452  32.747   1.601 -0.3257 -0.1102  0.0050
99927W        W42840  24.879  15.205  13.609 -0.2983  0.0745 -0.4381
99928W        W42841  31.498  14.643   3.142  0.1418 -0.0564 -0.0723
99929W        W42842  16.871  12.037  21.335 -0.1838 -0.1131  0.1788
99930W        W42843  20.283   8.979  29.347 -0.3066 -0.1769 -0.0938
99931W        W42844  10.357   2.745   2.232 -0.0451  0.0855 -0.0558
99932W        W42845  30.323  29.292   0.866  0.0533 -0.0024  0.1258
99933W        W42846  22.583  20.639  23.435  0.2373  0.1154 -0.0603
99934W        W42847  24.220   2.449  26.372 -0.1396  0.0745 -0.0910
99935W        W42848   0.204  30.523  25.311 -0.0974 -0.0226  0.2472
99936W        W42849  29.195  13.052  27.134  0.0900 -0.3587 -0.0771
99937W        W42850  31.912   0.368  25.394  0.2044  0.0793 -0.1211
99938W        W42851  23.141   9.399   3.003 -0.2750  0.1542 -0.1264
99939W        W42852  24.351  32.896  19.859 -0.3598 -0.3454  0.1660
99940W        W42853  16.613   1.721  16.447 -0.0545 -0.1469  0.2455
99941W        W42854  21.540   6.535  27.736  0.0978 -0.0812  0.0395
99942W        W42855  33.862   3.680  11.523  0.0366  0.2776 -0.0384
99943W        W42856  23.645   5.689  18.841 -0.3808 -0.3267 -0.2594
99944W        W42857  25.547  30.524  16.106  0.0011 -0.3734 -0.3781
99945W        W42858  20.143  14.357  29.079 -0.0927  0.1181 -0.4473
99946W        W42859  18.880  30.567   1.565 -0.2521 -0.2262 -0.0661
99947W        W42860   4.980   0.494   4.165 -0.1145  0.2835 -0.1989
99948W        W42861  19.238   6.725  21.471 -0.1061 -0.1061  0.0217
99949W        W42862  19.533  11.367  28.830  0.1778  0.1765 -0.1905
99950W        W42863  14.108  31.455  27.117 -0.2704  0.0124 -0.2129
99951W        W42864  20.703  12.697  21.274  0.3596 -0.2803  0.0390
99952W        W42865  22.396  34.199   5.016 -0.2086  0.0265 -0.1186
99953W        W42866  15.792   2.745   1.136 -0.0979 -0.2281  0.1009
99954W        W42867  11.187  33.648   3.494 -0.2997 -0.0977  0.2633
99955W        W42868  11.735   2.509   2.514  0.1429  0.1828 -0.1416
99956W        W42869  23.558  31.123  22.537  0.0635  0.0102  0.0533
99957W        W42870  25.359   7.713   0.450  0.1527 -0.2651  0.2391
99958W        W42871  31.689  24.426  26.244 -0.0599  0.0780  0.0436
99959W        W42872  21.618   6.082   4.889  0.4158  0.0551 -0.0503
99960W        W42873  29.359  32.292  29.362 -0.2255 -0.0934  0.1620
99961W        W42874  20.999  30.747  23.685 -0.0424 -0.0427  0.0153
99962W        W42875  21.258  19.265   0.283 -0.4276 -0.2575  0.0529
99963W        W42876  27.024   9.589   2.376  0.1648  0.0274  0.0033
99964W        W42877  22.261   2.956  28.403  0.0856  0.2440 -0.1974
99965W        W42878  21.366  26.383  29.134  0.1983  0.0476 -0.3448
99966W        W42879  13.984   2.466   3.310  0.1832 -0.1129 -0.0169
99967W        W42880  20.891   1.401   1.417  0.1045  0.3741  0.2834
99968W        W42881  22.252  26.426  24.267 -0.2075  0.0025 -0.2867
99969W        W42882  23.641  32.465   7.700 -0.0621 -0.1632  0.0217
99970W        W42883  25.667  13.767  26.712  0.2524 -0.0958  0.1315
99971W        W42884  21.708  33.420  21.257 -0.0086  0.2728  0.0610
99972W        W42885  20.739   0.475  21.189 -0.0057 -0.0361  0.1272
99973W        W42886  32.552   5.458  28.820  0.1727  0.2559  0.1607
99974W        W42887  27.397  33.184  16.854  0.1825  0.0846 -0.4766
99975W        W42888  20.030   1.236   4.038 -0.0517  0.0622  0.3017
99976W        W42889  22.520   7.816   1.595  0.2668  0.0211  0.1346
99977W        W42890  13.043  30.807  26.365 -0.1180 -0.1246  0.2822
99978W        W42891  20.542  32.439  19.594  0.0890 -0.1230  0.0228
99979W        W42892  23.029   4.679  29.162 -0.2463  0.0968  0.1644
99980W        W42893  13.910   5.941  26.245  0.0849 -0.0126  0.2107
99981W        W42894  17.403  10.334   2.461 -0.2259 -0.2120  0.0239
99982W        W42895  17.731   1.518  23.641  0.1946  0.1976 -0.0957
99983W        W42896  19.561  31.875   3.407 -0.2669 -0.0687 -0.0954
99984W        W42897  21.431   5.268  28.511  0.1310 -0.1116  0.0214
99985W        W42898  23.629  14.761  22.843  0.0835  0.1083 -0.1536
99986W        W42899  30.244   0.399  29.466 -0.0909  0.0324  0.0528
99987W        W42900  23.302   3.144  24.342  0.1603 -0.4548  0.2445
99988W        W42901  24.752   3.125  28.244 -0.2015  0.2434  0.0672
99989W        W42902   2.291   6.241   1.260 -0.1271 -0.3214  0.0381
99990W        W42903  21.272  15.129   1.314 -0.1943 -0.3053  0.2188
99991W        W42904  19.888  32.169   1.679  0.2599 -0.0160 -0.2646
99992W        W42905  24.826  10.006   5.494  0.2326  0.0475 -0.0375
99993W        W42906  27.370   3.646   6.449  0.1098  0.1443 -0.1740
99994W        W42907  31.083  30.066  26.631 -0.0970 -0.0681  0.2155
99995W        W42908  19.897  25.324  28.309 -0.1864  0.1349 -0.1529
99996W        W42909  13.669   5.755  25.086  0.2158 -0.0594 -0.2097
99997W        W42910  30.340  30.494  25.528  0.5978 -0.0111 -0.2846
99998W        W42911  19.090   0.449  25.750  0.2743  0.0227 -0.0626
99999W        W42912  23.346  31.254  21.188 -0.2444  0.3048 -0.0955
    0W        W42913  25.564  32.932   3.762  0.0710 -0.1715 -0.1587
    1W        W42914  28.740   8.987  15.454 -0.1600 -0.0366 -0.2432
    2W        W42915  29.926   2.519  24.450  0.1024 -0.0098  0.1968
    3W        W42916  25.898   1.307  23.865  0.0520  0.0108 -0.3967
    4W        W42917  22.180   2.762  27.915 -0.0208 -0.1455  0.0722
    5W        W42918  27.306  17.667  25.544  0.2080  0.2931  0.0419
    6W        W42919  17.449   0.502  20.763  0.2399 -0.1481 -0.0128
    7W        W42920  26.764   7.043   1.815  0.0201  0.1292  0.3579
    8W        W42921  23.327  32.345  23.872  0.0659  0.0661  0.2616
    9W        W42922  26.580  33.109  22.289 -0.0015 -0.1488  0.0091
   10W        W42923  24.546  23.334  24.311  0.0537 -0.0573 -0.0973
   11W        W42924  33.221   3.716  25.951 -0.1795 -0.1442  0.0845
   12W        W42925  23.680   9.115  29.639 -0.0471 -0.0692 -0.1203
   13W        W42926  18.055   3.288   4.821 -0.1549 -0.1797 -0.0718
   14W        W42927  30.452  34.366   1.078  0.1188  0.0276 -0.0543
   15W        W42928  16.289   2.373  29.680  0.0519  0.0666  0.0780
   16W        W42929  21.611   7.590  26.171  0.0440  0.0715 -0.3410
   17W        W42930  26.379  28.321  28.509  0.1328 -0.2682 -0.0963
   18W        W42931   1.435   5.789   0.552 -0.0097 -0.0727 -0.3079
   19W        W42932  18.567   1.845   8.734 -0.4433  0.2529  0.0058
   20W        W42933  20.409  31.367  22.642 -0.1765  0.0472  0.0010
   21W        W42934  33.625  31.885  10.411 -0.1288  0.2277 -0.1389
   22W        W42935   1.046  31.316   1.305 -0.3040 -0.0167  0.1617
   23W        W42936  22.232   0.264   1.834 -0.0259 -0.1140 -0.0299
   24W        W42937  16.213  34.152  17.681 -0.2399 -0.0620 -0.3609
   25W        W42938  17.450   7.062  26.767 -0.2829 -0.2545  0.0371
   26W        W42939  23.015  28.382   5.847  0.4300  0.1323 -0.1036
   27W        W42940  25.263   3.932   8.194  0.1613  0.4159  0.0362
   28W        W42941  22.232   8.305   4.692  0.0056 -0.0907  0.0406
   29W        W42942  11.337   3.014   3.673  0.0043 -0.0371  0.0802
   30W        W42943  32.946  33.664  19.036  0.1076  0.0196 -0.3391
   31W        W42944  23.858  13.045   6.572  0.3164 -0.1130 -0.0623
   32W        W42945  12.956   1.369  29.371  0.1646 -0.3172  0.4001
   33W        W42946  14.430   8.330  13.893 -0.1034 -0.0398 -0.1451
   34W        W42947  27.886   3.190  29.692  0.1091 -0.3501  0.1981
   35W        W42948  29.390  28.286  21.821  0.0936 -0.0126 -0.2113
   36W        W42949  18.262   2.629  28.238  0.1490  0.3689 -0.0882
   37W        W42950  20.217  22.707  24.473  0.2217  0.0610 -0.2648
   38W        W42951  22.201  32.541  27.962 -0.1681 -0.0492  0.2735
   39W        W42952  17.358  31.289  10.285 -0.3968  0.1531 -0.1071
   40W        W42953  25.287   1.340  16.267 -0.1022  0.0214 -0.1067
   41W        W42954  25.316   2.064  24.885  0.0958 -0.1471 -0.1132
   42W        W42955  19.029   0.582   0.659 -0.2797 -0.0504  0.0845
   43W        W42956  20.535   3.106  27.220  0.2997  0.1396  0.2429
   44W        W42957  21.923   4.275  16.644  0.4838  0.0215 -0.1595
   45W        W42958  27.511   0.788  17.773  0.0175 -0.3832 -0.0829
   46W        W42959  23.866  31.482  27.482 -0.0695 -0.2163 -0.1541
   47W        W42960  32.115  29.662   8.173  0.5678 -0.1213  0.2050
   48W        W42961  27.378   9.523   2.923 -0.1027 -0.1489  0.2192
   49W        W42962  22.053  33.496  22.120 -0.4366 -0.0199  0.0653
   50W        W42963   6.036  28.051   1.998  0.0952 -0.2963  0.0672
   51W        W42964  18.075   4.301  23.818 -0.1028 -0.0624 -0.0649
   52W        W42965  21.156   6.640   7.530  0.0704  0.0077  0.0680
   53W        W42966  29.417  29.293  23.051 -0.1652  0.2384 -0.0037
   54W        W42967  25.115   5.179   0.527  0.2006 -0.3194 -0.1084
   55W        W42968  17.319  24.800  14.876  0.0838 -0.0993 -0.4774
   56W        W42969   2.824  30.051  24.036  0.1372  0.4487 -0.0267
   57W        W42970  22.584   2.560   6.562 -0.2848 -0.0597  0.4360
   58W        W42971  17.437   5.697  16.372  0.0198 -0.0677 -0.0771
   59W        W42972  30.072  30.980  28.855  0.2135 -0.1418 -0.2328
   60W        W42973   6.852  10.157   9.219  0.1018 -0.1893  0.1070
   61W        W42974  13.121   2.263   1.338 -0.0186  0.2073  0.0807
   62W        W42975  20.843  11.763  23.104  0.0776 -0.0228  0.1206
   63W        W42976  27.971  14.773  21.157  0.0331  0.0473  0.2489
   64W        W42977  27.797  27.356  28.308  0.0871 -0.0207  0.1326
   65W        W42978  21.017   0.683   5.012  0.0063 -0.1019 -0.1428
   66W        W42979  19.426   1.421  29.079 -0.1099  0.0835 -0.2830
   67W        W42980  29.701  17.984   0.433 -0.1452 -0.0982  0.1984
   68W        W42981  26.638   2.243  18.990  0.1116  0.1629 -0.3440
   69W        W42982  16.137  30.266  16.303 -0.0034 -0.0097 -0.3116
   70W        W42983  11.730  23.374  27.697  0.3060  0.0160 -0.0562
   71W        W42984  19.217   5.160  27.566  0.4227 -0.0801 -0.0450
   72W        W42985  23.389   1.540  27.958 -0.0223  0.1250  0.2366
   73W        W42986  29.334   9.543  10.109  0.0955  0.0100 -0.1776
   74W        W42987  30.797  32.652  17.472 -0.1154 -0.1506 -0.0861
   75W        W42988  24.478  12.819   1.633  0.1358  0.2024 -0.0005
   76W        W42989  30.321  25.823   9.962  0.1686 -0.1889 -0.0504
   77W        W42990  21.095   0.118   3.012 -0.0609  0.0455  0.2591
   78W        W42991  24.910   0.976   3.039 -0.0659  0.0574  0.0583
   79W        W42992  25.694  31.527   1.582  0.1441 -0.0526  0.2525
   80W        W42993   3.149   0.632  21.130 -0.1032  0.0174  0.1792
   81W        W42994  28.521  10.360   0.170  0.0142  0.3056  0.2966
   82W        W42995  17.609  33.064  28.861 -0.0106  0.1157 -0.0724
   83W        W42996  21.329  12.178   8.641 -0.2899  0.2775  0.2329
   84W        W42997  26.356   6.886   2.009 -0.3129 -0.4017  0.2582
   85W        W42998  20.692   6.359   6.666  0.1340  0.0853  0.1042
   86W        W42999  18.855  33.897  29.555 -0.2690  0.2913 -0.3271
   87W        W43000  22.852  25.240   7.285 -0.3825 -0.0733 -0.1985
   88W        W43001  19.725  32.808  15.772  0.1387  0.2095  0.0540
   89W        W43002  32.297   2.727   1.317  0.0513 -0.0431  0.0143
   90W        W43003  24.104  31.627  29.208  0.3412  0.1058  0.1447
   91W        W43004  12.513  31.550  28.494 -0.0376  0.2788  0.1391
   92W        W43005  15.243   2.401  24.632  0.1410  0.1745  0.1695
   93W        W43006  12.780   0.597   0.039  0.1963  0.1914 -0.1510
   94W        W43007  24.352  26.395  27.060 -0.0165 -0.1331  0.1266
   95W        W43008  29.504   3.331  25.727 -0.0762 -0.0886 -0.2385
   96W        W43009  15.008  32.853  28.975  0.0228 -0.1371 -0.1914
   97W        W43010  20.502  34.409   0.051  0.1651  0.1522 -0.1274
   98W        W43011  11.430  14.742  23.945  0.2970  0.0201  0.3648
   99W        W43012  23.344  28.349  23.874  0.1488  0.3456 -0.4228
  100W        W43013  27.040   0.319  20.100  0.0500 -0.0145  0.2962
  101W        W43014  19.147  21.391  20.254  0.2304 -0.1591 -0.3603
  102W        W43015  18.658   3.638   4.373  0.1230 -0.3355  0.0306
  103W        W43016  27.273  30.655   1.918  0.1907  0.2607  0.1014
  104W        W43017  23.898  33.056  23.290  0.3515 -0.0531  0.3768
  105W        W43018  27.354   5.498   7.948 -0.2941 -0.1245 -0.1370
  106W        W43019  30.473  29.255  26.861  0.0357 -0.3625 -0.0411
  107W        W43020   6.562  29.981  26.162 -0.1028  0.2520  0.3122
  108W        W43021   6.452   6.484  18.901 -0.3087  0.0639  0.1645
  109W        W43022  23.060   6.982   2.976 -0.3131  0.2017  0.0962
  110W        W43023  18.436  34.181  23.030  0.2424  0.2411 -0.0253
  111W        W43024  22.793   1.981  29.576 -0.1877 -0.2459 -0.2398
  112W        W43025  21.944  34.268   8.035 -0.1428 -0.0507  0.0300
  113W        W43026  33.544   1.959  29.222 -0.2269 -0.2318  0.0698
  114W        W43027  19.074   0.785  21.119 -0.0878 -0.0981  0.1223
  115W        W43028  27.818   3.233  19.025  0.0902  0.0244 -0.0747
  116W        W43029  24.233  29.772  12.714  0.0361 -0.1893 -0.0437
  117W        W43030  17.891  32.249  19.114  0.1649 -0.0671 -0.0905
  118W        W43031  18.947   2.576  16.142 -0.1428 -0.0409  0.0422
  119W        W43032  29.559   3.076  16.403  0.0144  0.0289 -0.2514
  120W        W43033   2.425  33.361  16.697  0.0109 -0.0085  0.1349
  121W        W43034  23.529   2.072  21.007  0.1956  0.2076 -0.1581
  122W        W43035   1.752  11.766  17.057  0.1613 -0.1355 -0.0013
  123W        W43036  22.336   8.676  19.592 -0.1698  0.0256  0.2509
  124W        W43037  21.895  18.176  14.250  0.0877  0.0539  0.0829
  125W        W43038  23.981   4.598  20.833  0.2685 -0.2472  0.0735
  126W        W43039  14.768   0.387  20.545 -0.1191  0.4268 -0.0227
  127W        W43040  31.195   0.692  22.792  0.0747  0.3234  0.2126
  128W        W43041  19.021   3.784  15.018  0.1996  0.1704  0.2953
  129W        W43042  24.309  10.393  16.763  0.0322 -0.1634 -0.0956
  130W        W43043  20.942   5.166  21.170 -0.1042  0.2722  0.5466
  131W        W43044  25.550   4.656  16.586 -0.4143 -0.2544 -0.1526
  132W        W43045  24.886  10.348  17.068 -0.1156 -0.2863 -0.1715
  133W        W43046  23.093  11.074  18.805  0.3894 -0.1554 -0.2096
  134W        W43047  25.174  10.157  24.259  0.2824  0.2595  0.1710
  135W        W43048  22.212  21.979  21.460  0.2631 -0.0746 -0.0379
  136W        W43049  17.774  19.257  11.776  0.0559 -0.0464  0.3369
  137W        W43050  20.541  33.850  13.548  0.0372 -0.2751  0.0491
  138W        W43051  19.393  25.892  14.679 -0.1250 -0.1676 -0.1315
  139W        W43052  25.797   4.342  28.994 -0.0257 -0.2575  0.1583
  140W        W43053  28.210   2.191  16.155  0.2076 -0.0875 -0.2168
  141W        W43054  29.616  21.474  22.821 -0.0017 -0.0189  0.0304
  142W        W43055  20.893   4.169  16.428  0.0602  0.1352 -0.1105
  143W        W43056  15.447   4.485  27.786 -0.0475 -0.0757 -0.0253
  144W        W43057  19.277   1.809  24.184 -0.1754 -0.2066 -0.1181
  145W        W43058  14.945  10.887  18.000 -0.1118  0.1906 -0.0784
  146W        W43059  19.183  33.814  24.013  0.0661 -0.3555 -0.2768
  147W        W43060  13.967   2.897  26.902  0.0354 -0.1225  0.0418
  148W        W43061  24.442   6.255  13.208 -0.1395 -0.2597 -0.0572
  149W        W43062  22.494   4.562  15.798  0.1784 -0.0845 -0.0650
  150W        W43063  21.929   3.123  27.198  0.1499  0.2145  0.0626
  151W        W43064  19.447   2.943  15.986 -0.2725  0.1989 -0.0359
  152W        W43065  21.511   0.271  24.342 -0.3174 -0.2824 -0.0507
  153W        W43066  25.423   4.705  22.446  0.1806  0.1315  0.1213
  154W        W43067  26.349  12.236  14.443  0.1492  0.0706  0.1218
  155W        W43068  25.215   7.183  14.493 -0.0988  0.0598 -0.0406
  156W        W43069  21.190   1.673  17.940 -0.0774  0.1573 -0.3135
  157W        W43070  20.717   9.674  15.083 -0.1262  0.2624  0.0158
  158W        W43071  27.919   8.493  27.400 -0.0170 -0.0421 -0.0643
  159W        W43072   2.773  10.689  19.276 -0.4090 -0.1732 -0.3192
  160W        W43073  32.263  11.642  21.514 -0.0582  0.0292  0.0642
  161W        W43074  28.631   8.188  18.479 -0.2101  0.3963 -0.0086
  162W        W43075  23.625   1.961  13.375  0.1560  0.0663 -0.2719
  163W        W43076  29.045  34.027  18.188  0.0471 -0.2200  0.1697
  164W        W43077  28.557   2.088  25.037 -0.0432  0.1060  0.1686
  165W        W43078  22.481  25.889  20.762  0.0414  0.0773 -0.1946
  166W        W43079  20.441   8.074  14.139 -0.0974  0.0274 -0.0803
  167W        W43080  16.941   7.248  25.458  0.0435 -0.2253  0.1311
  168W        W43081  27.810   4.531  14.774 -0.1360  0.2064  0.1996
  169W        W43082  21.357   7.977  18.250 -0.2479  0.3005 -0.0794
  170W        W43083  34.043  13.781  14.242  0.1835  0.1645  0.0820
  171W        W43084  22.732   3.399  18.875 -0.1518 -0.1400 -0.3453
  172W        W43085  29.371   9.018  24.458  0.2233  0.1906 -0.1381
  173W        W43086  31.113  15.908  19.934 -0.1044 -0.1766 -0.0543
  174W        W43087  27.002  11.137  22.903  0.1070 -0.1095 -0.2909
  175W        W43088  30.702   6.819  15.785 -0.0627  0.1024 -0.1046
  176W        W43089  26.456  28.213  16.544 -0.1053  0.3145  0.0020
  177W        W43090  28.882  29.674  22.134  0.0681  0.0752  0.0865
  178W        W43091  29.347   3.982  15.678  0.0087  0.2087  0.0197
  179W        W43092  24.477  30.101  21.112 -0.0795  0.0431 -0.0443
  180W        W43093  12.458  33.584  24.441 -0.1279  0.0160  0.0477
  181W        W43094  32.885  13.710  16.283 -0.0974 -0.1876  0.2210
  182W        W43095  26.105  29.617  13.847 -0.0027 -0.0310  0.2560
  183W        W43096  24.201   7.012  17.149 -0.1764  0.0085 -0.6548
  184W        W43097  27.466   9.718  15.985  0.1299  0.0682  0.3413
  185W        W43098  24.416  11.796  13.001  0.3531  0.0717 -0.0726
  186W        W43099  22.610   2.553  15.962  0.1127 -0.0092 -0.1336
  187W        W43100  31.672  12.089  22.857 -0.0970 -0.2384 -0.0108
  188W        W43101  28.800  33.243  23.514  0.0968  0.1171  0.0132
  189W        W43102  25.920   4.317  17.761  0.1102 -0.1887 -0.0689
  190W        W43103  25.030  11.111  22.303 -0.0137 -0.1463  0.1593
  191W        W43104  25.367   3.708  21.262 -0.0025 -0.2063 -0.5343
  192W        W43105  26.462   4.027  17.771 -0.1387  0.3271 -0.0725
  193W        W43106  21.830  33.195  19.956 -0.3561 -0.1593  0.2112
  194W        W43107  23.126   4.936  14.676 -0.0285 -0.0577 -0.0361
  195W        W43108  29.814  13.693  16.564  0.1425 -0.1451 -0.1898
  196W        W43109  29.201  13.340  17.059  0.1512  0.0692 -0.1708
  197W        W43110  21.150   3.469  16.094 -0.0763 -0.2196 -0.3245
  198W        W43111  23.920   5.408  24.201 -0.5040  0.3287  0.1558
  199W        W43112  28.569  33.492  17.559 -0.1817 -0.2389  0.3094
  200W        W43113  26.712  15.817  16.446 -0.1408 -0.0112  0.0979
  201W        W43114  24.177  30.338  16.112 -0.2020 -0.2511  0.2613
  202W        W43115  28.560   4.672  21.983  0.2807 -0.1237 -0.0151
  203W        W43116  32.151  10.529  17.737 -0.2433  0.0414  0.0295
  204W        W43117  25.779   1.092  18.288 -0.2952 -0.2704  0.1702
  205W        W43118  23.906  29.932  15.893  0.0867 -0.6380  0.0453
  206W        W43119  21.079  33.719  16.900  0.1177  0.0645  0.2840
  207W        W43120  29.437   5.700  26.930 -0.3166  0.1422  0.2162
  208W        W43121  18.007  29.488  16.106 -0.0485 -0.0837  0.1675
  209W        W43122  29.361  33.249  16.091  0.0604 -0.1997  0.3637
  210W        W43123  29.858  23.661  19.791  0.2376  0.0510  0.0265
  211W        W43124  28.529  16.253  14.355  0.0315 -0.0590  0.2113
  212W        W43125  22.464   5.387  15.193  0.1966 -0.0711 -0.3169
  213W        W43126  21.545  10.905  26.163 -0.2672 -0.0902  0.1094
  214W        W43127  26.433   0.464  14.701 -0.0201  0.0319  0.0360
  215W        W43128  18.783   6.834  23.532  0.0013 -0.1634  0.0452
  216W        W43129  19.352   6.134  17.692  0.1072  0.0072 -0.0901
  217W        W43130  17.851   5.843  16.091  0.1938  0.2270  0.1150
  218W        W43131  33.053   7.197  17.803  0.0114  0.1826  0.0872
  219W        W43132  13.646   6.378  17.491 -0.0955 -0.1806  0.0169
  220W        W43133  29.508  13.888  21.873 -0.0477 -0.0314 -0.1496
  221W        W43134  20.869   4.946  14.951  0.0143 -0.1111 -0.1817
  222W        W43135  18.900  14.614  22.980 -0.1849  0.0573 -0.3202
  223W        W43136   7.879   7.659  25.128  0.0549  0.2053 -0.1807
  224W        W43137  23.454   4.464  14.941 -0.1013  0.0609  0.0168
  225W        W43138  32.644  14.564  13.791 -0.2328  0.0734 -0.0449
  226W        W43139  20.464   6.891  18.966 -0.1994 -0.3468  0.0614
  227W        W43140  22.012  19.271  13.530 -0.1727  0.0495 -0.0840
  228W        W43141  25.387  12.325  16.233  0.0725 -0.0472 -0.0655
  229W        W43142  17.205   0.199  22.194  0.0473  0.3133  0.3505
  230W        W43143  25.952   8.504  19.337 -0.1578  0.1883 -0.0804
  231W        W43144  23.159   7.476  22.914  0.0924 -0.2985  0.1748
  232W        W43145  27.954  11.247  20.239  0.0275  0.1409  0.1896
  233W        W43146  20.221   6.858  17.213  0.0165 -0.2591 -0.1232
  234W        W43147  17.095   6.321  16.004 -0.0199 -0.1618 -0.2969
  235W        W43148  10.812   1.861  18.297 -0.2068 -0.0387 -0.2862
  236W        W43149  27.515   6.347  17.545 -0.1471  0.1311 -0.1925
  237W        W43150  14.832   9.179  23.058  0.3590  0.3082  0.2644
  238W        W43151   8.848   9.916  19.739 -0.1941  0.2062  0.1505
  239W        W43152  14.998   0.465  19.216 -0.3307 -0.4702  0.2122
  240W        W43153  31.195  14.888  14.243 -0.0965  0.2580 -0.1900
  241W        W43154  21.939   1.711  18.267  0.0492 -0.0167 -0.1008
  242W        W43155   9.602  33.059  19.775 -0.3129  0.1344 -0.1148
  243W        W43156   0.354   7.773  19.785 -0.2048  0.4201  0.0854
  244W        W43157  26.062   0.194  25.327 -0.1160 -0.1535  0.0381
  245W        W43158  26.425   7.300  24.179 -0.0377  0.0100  0.0654
  246W        W43159  17.782   8.003  24.187 -0.1719  0.0294  0.2633
  247W        W43160  27.066   9.989  21.946  0.0508 -0.2219 -0.0171
  248W        W43161  27.737   0.722  15.617 -0.2260  0.0349 -0.1999
  249W        W43162  20.987   2.446  15.536 -0.2953 -0.0820 -0.0163
  250W        W43163  13.398   2.029  16.571  0.2937  0.2436  0.0361
  251W        W43164  20.470   6.370  23.181  0.1193  0.0685  0.0870
  252W        W43165  11.574  16.638  18.466  0.1282 -0.0215 -0.1708
  253W        W43166  26.285   4.543  16.302 -0.3907  0.1877 -0.3381
  254W        W43167  23.190   6.182  15.528 -0.0786 -0.1856 -0.0253
  255W        W43168  26.297  33.441  27.136  0.0729  0.0136 -0.1692
  256W        W43169  25.069  16.039  24.984 -0.2434  0.1205  0.1474
  257W        W43170  27.848   1.021  17.448 -0.2290  0.1467  0.5604
  258W        W43171  25.941   3.077  26.291  0.0361  0.4198 -0.2337
  259W        W43172  26.829   8.043  15.906 -0.0748 -0.0070 -0.1127
  260W        W43173  24.873  11.862  14.130 -0.1513 -0.2064  0.1449
  261W        W43174  30.125  29.728  18.277 -0.1851 -0.1123  0.0667
  262W        W43175   2.340  13.643  21.781  0.0180 -0.3163  0.1086
  263W        W43176  12.989  29.705  22.433 -0.4760  0.0058  0.1170
  264W        W43177  25.914  11.138  14.003  0.1956  0.3771 -0.0794
  265W        W43178  14.453   9.292  13.833  0.1120  0.1892 -0.0345
  266W        W43179  26.189   3.955  16.845  0.1712  0.1164  0.0679
  267W        W43180  25.807  24.954  16.049 -0.1694  0.2180  0.1957
  268W        W43181  29.979  33.360  25.565  0.0578 -0.2795 -0.2146
  269W        W43182  29.124   5.986  15.515  0.1343 -0.0179 -0.0085
  270W        W43183  30.124   4.509  15.718 -0.1476  0.0062  0.2396
  271W        W43184  21.548  11.668  13.791  0.0528  0.0379  0.3053
  272W        W43185  24.853   0.255  22.559  0.3346 -0.0469 -0.2184
  273W        W43186  26.385  14.762  25.095 -0.2098 -0.0001 -0.0662
  274W        W43187  24.810   7.037  14.857  0.0191 -0.2332  0.0308
  275W        W43188  18.845  34.022  16.873 -0.3241  0.1876 -0.1465
  276W        W43189  15.785   4.869  17.033  0.1078 -0.1007 -0.0558
  277W        W43190  34.420   7.887  16.958 -0.0406 -0.1810 -0.1849
  278W        W43191  17.409   7.972  14.738  0.2150 -0.1436 -0.0344
  279W        W43192  17.048   6.636  29.767 -0.0289  0.1737 -0.0706
  280W        W43193  26.901  34.344  20.992 -0.1240  0.1032  0.2621
  281W        W43194  20.372  13.422  14.491 -0.0522 -0.0476 -0.0895
  282W        W43195  28.199  10.878  21.984 -0.1538 -0.1270 -0.0438
  283W        W43196  23.943  29.321  14.101 -0.4774  0.1205 -0.1491
  284W        W43197   4.234   3.162  21.345  0.2979  0.0407 -0.0485
  285W        W43198  23.918   0.315  26.451  0.5841  0.1894  0.1271
  286W        W43199  19.710   6.429  21.548 -0.0491 -0.0297  0.3088
  287W        W43200  21.278   2.528  18.065 -0.1225 -0.1047  0.2302
  288W        W43201  18.262  11.050  17.906 -0.2488 -0.2208  0.2990
  289W        W43202  23.978   0.967  15.661  0.0501  0.2053 -0.0662
  290W        W43203  19.884   1.418  17.999  0.3157 -0.2482  0.1199
  291W        W43204  32.116   4.186  21.079  0.0270  0.0102 -0.1864
  292W        W43205  26.086   9.523  16.929  0.0998  0.0960 -0.2889
  293W        W43206  26.024   4.263  19.204 -0.1436 -0.2782 -0.2987
  294W        W43207  22.237  26.631  22.992  0.1856 -0.0915  0.2604
  295W        W43208  30.778   6.924  17.741 -0.0449  0.2828  0.0546
  296W        W43209  11.996   4.772  19.046  0.0681  0.1821 -0.0253
  297W        W43210  20.731  10.068  21.226  0.1833  0.1095 -0.2687
  298W        W43211  21.442   5.291  25.777 -0.2338  0.0375 -0.0348
  299W        W43212  23.633   8.241  18.532  0.0781 -0.0823 -0.1798
  300W        W43213  24.819  30.163  19.802  0.1539 -0.1210  0.1501
  301W        W43214  27.788  15.249  17.776 -0.0667  0.0184  0.2884
  302W        W43215  25.581   0.295  17.731  0.2192  0.0957  0.1080
  303W        W43216  19.574  21.967  12.374 -0.0027 -0.0097 -0.2521
  304W        W43217  22.024  12.986  14.297  0.0460 -0.1518 -0.0227
  305W        W43218  22.706   1.225  18.299 -0.0197 -0.0547  0.1138
  306W        W43219  13.154   8.976  18.378 -0.0233 -0.0872  0.0256
  307W        W43220  25.246   8.805  14.308  0.3385  0.0174  0.2759
  308W        W43221  28.342   1.978  15.619  0.1731  0.1455  0.2062
  309W        W43222  26.955   4.002  14.629  0.0019 -0.0995 -0.0372
  310W        W43223  19.163   2.284  28.644  0.3003  0.3245  0.5495
  311W        W43224  29.131   7.829  21.250  0.0885  0.0421  0.0466
  312W        W43225  25.932  12.355  14.722 -0.1794  0.2289 -0.1054
  313W        W43226  29.913  25.817  24.668 -0.0393  0.1668  0.3496
  314W        W43227  26.412   7.968  22.974  0.1707  0.1960  0.4096
  315W        W43228  29.229  12.300  22.680  0.2394 -0.1775 -0.1382
  316W        W43229  30.941  32.769  17.950 -0.0066 -0.1914  0.0331
  317W        W43230  18.954   1.927  14.377  0.0352 -0.1937 -0.0656
  318W        W43231  23.910   2.724  20.557  0.2958  0.1704 -0.0680
  319W        W43232  17.578  33.438  19.634 -0.1575 -0.1563  0.4157
  320W        W43233  18.820  32.584  14.073  0.1143 -0.0758 -0.2296
  321W        W43234  21.029  15.744  12.671 -0.1772  0.0681 -0.0435
  322W        W43235  22.944  34.488  18.331  0.0100  0.1948  0.2154
  323W        W43236   3.887   5.896  19.307  0.0206  0.1811  0.1812
  324W        W43237  28.988  33.797  15.751 -0.0909  0.0524 -0.2661
  325W        W43238  31.284   9.066  16.502  0.2579 -0.0183  0.2456
  326W        W43239  21.607   8.403  18.084 -0.0453  0.1783 -0.0180
  327W        W43240  29.836  12.529  16.973  0.1367  0.0831  0.0161
  328W        W43241  16.711   4.479  24.107  0.1184 -0.1063 -0.2253
  329W        W43242  26.235   5.347  20.687  0.0704  0.1959  0.0023
  330W        W43243   8.838  31.555  22.159  0.0274 -0.4514 -0.3117
  331W        W43244  33.317  15.849  14.102  0.0063 -0.3492 -0.0579
  332W        W43245  20.244  10.091  17.144 -0.3634  0.0290  0.2172
  333W        W43246  15.686   0.176  22.587 -0.4557 -0.3129  0.0873
  334W        W43247  32.746  33.892  16.336  0.0398 -0.0223 -0.0774
  335W        W43248  14.192  34.197  19.735 -0.1447  0.3754 -0.0553
  336W        W43249  25.181  11.357  13.839  0.4391 -0.1686  0.0383
  337W        W43250  15.354  29.281  24.689  0.2284  0.1163  0.1388
  338W        W43251  20.884  30.143  16.749  0.2271 -0.0984  0.0587
  339W        W43252  26.628   4.748  24.600  0.0140 -0.1541  0.1844
  340W        W43253  26.125  13.882  14.932 -0.4515  0.0227 -0.5295
  341W        W43254  25.541  30.939  22.256 -0.0324 -0.1629  0.2144
  342W        W43255  18.453  31.226  23.258 -0.0844  0.1234  0.2620
  343W        W43256  28.465   8.643  20.891  0.0174  0.0737  0.1438
  344W        W43257  23.887  28.516  14.016 -0.0580 -0.5441  0.1966
  345W        W43258  20.899  10.117  19.280 -0.0519  0.0918 -0.0653
  346W        W43259  19.502   6.371  17.244  0.0413  0.0428  0.0938
  347W        W43260  13.832  34.341  18.896 -0.0876  0.3024 -0.1384
  348W        W43261  22.758  31.341  22.636  0.1855 -0.1094 -0.0235
  349W        W43262  27.205  33.670  16.506  0.1891  0.2234 -0.0590
  350W        W43263  31.168   4.432  19.701 -0.1726 -0.2743 -0.2285
  351W        W43264  32.376   6.330   1.433 -0.1200 -0.0342  0.0813
  352W        W43265  25.694   6.212   0.736  0.0645 -0.2481 -0.0162
  353W        W43266  25.061   4.577  17.851  0.1391 -0.2966 -0.1513
  354W        W43267  27.143   7.411  22.784  0.3976 -0.0976 -0.0603
  355W        W43268  20.619   1.315  16.251 -0.0088  0.0802 -0.0389
  356W        W43269  14.899  23.949  25.712  0.1173 -0.2093  0.1617
  357W        W43270  23.362  32.091  16.552 -0.0639  0.4384 -0.0488
  358W        W43271  10.358  18.825  18.987  0.0520  0.0262  0.4143
  359W        W43272  19.809   3.159  15.102 -0.0898 -0.4385 -0.1317
  360W        W43273  26.168   4.800  14.916 -0.3729  0.0697 -0.0138
  361W        W43274  24.575   9.836  16.208 -0.1126 -0.0764  0.0715
  362W        W43275  19.750   3.668  17.483 -0.0732 -0.0118  0.0415
  363W        W43276  24.962  12.593  15.130  0.0304  0.1075 -0.3111
  364W        W43277  21.818   7.413  24.456  0.1449 -0.3823 -0.0184
  365W        W43278  24.668  15.429  17.092 -0.0354 -0.1742  0.0180
  366W        W43279  18.843   8.074  18.645 -0.0955 -0.2103 -0.0853
  367W        W43280  29.060  32.921  19.062 -0.0356 -0.3688 -0.0531
  368W        W43281  26.385   8.158  16.021  0.1822 -0.0110  0.0270
  369W        W43282  22.799   6.464  15.482  0.1880 -0.1357  0.2838
  370W        W43283  28.424  18.834  14.866 -0.3789  0.0515 -0.1785
  371W        W43284  26.824  30.064  19.606  0.1139 -0.1967  0.3445
  372W        W43285  29.000   6.853  19.040 -0.0684 -0.3657 -0.0604
  373W        W43286  14.080  31.013  16.550  0.0775 -0.0719 -0.2552
  374W        W43287  23.017   5.529  19.200  0.0797 -0.2552  0.2637
  375W        W43288  21.307  33.136  21.139 -0.1512  0.2402  0.0960
  376W        W43289  21.291   9.493  17.415  0.0060  0.0620  0.2362
  377W        W43290  24.071   3.848  16.447 -0.3201  0.1006  0.0849
  378W        W43291  29.633  10.118  19.535  0.1768  0.3196  0.2211
  379W        W43292  28.599  10.114  21.706 -0.1085  0.0773 -0.0464
  380W        W43293  15.264  15.339  15.351  0.0507 -0.0247 -0.0457
  381W        W43294  24.094  27.206  23.716  0.2088  0.0298  0.0305
  382W        W43295  28.296   9.996  21.309 -0.0171  0.1287  0.0850
  383W        W43296  26.716  31.540  22.493 -0.2007 -0.0196  0.1687
  384W        W43297  26.840   0.140  20.554  0.2614  0.2018 -0.0937
  385W        W43298  21.048   5.409  24.847 -0.0992 -0.0916 -0.1956
  386W        W43299   0.444   5.190  17.646  0.1209  0.0801 -0.0969
  387W        W43300  29.801  33.149  23.784  0.1153 -0.0252  0.1066
  388W        W43301  32.374   9.944  16.967  0.0604  0.1332  0.0362
  389W        W43302  25.228   7.324  19.801 -0.2139  0.0149 -0.0625
  390W        W43303   1.179   7.761  23.508 -0.2787 -0.0787  0.0022
  391W        W43304  26.090  10.711  14.679 -0.1811 -0.2015 -0.3465
  392W        W43305  26.996   2.599  17.605  0.1731 -0.3163  0.1616
  393W        W43306  23.979  11.690  13.884  0.2055 -0.0207 -0.2143
  394W        W43307  21.718   8.365  14.843  0.2650 -0.0853 -0.2513
  395W        W43308  26.815   6.667  26.793  0.1040  0.0079  0.3146
  396W        W43309   0.423  32.335  17.130 -0.2174  0.2603  0.0926
  397W        W43310   7.858  31.127  27.411 -0.1454  0.1282 -0.1154
  398W        W43311   8.478  10.092  16.035 -0.1056 -0.2065 -0.0185
  399W        W43312  27.572   6.553  21.309  0.5868 -0.0005  0.1424
  400W        W43313  25.735   6.985  21.986  0.0258 -0.2246 -0.2359
  401W        W43314  16.340  10.141  13.655  0.3704 -0.1188 -0.1547
  402W        W43315  21.166   4.855  19.513 -0.1932  0.3362 -0.2147
  403W        W43316  24.569  32.036  23.324 -0.2345 -0.2827  0.2231
  404W        W43317  23.136  31.678  29.512 -0.1117  0.1319 -0.1232
  405W        W43318  21.039   3.878   2.264 -0.2131 -0.1179  0.3782
  406W        W43319  28.910   9.761  21.953  0.1565 -0.0923 -0.2714
  407W        W43320  31.162   7.537  17.283  0.1916  0.0145  0.0330
  408W        W43321  22.290   6.137  17.484 -0.1617  0.1997  0.2844
  409W        W43322  30.847   6.951  17.223 -0.1163 -0.1037  0.3627
  410W        W43323  28.816   8.859  20.022  0.0228  0.0736  0.2661
  411W        W43324  24.880   6.544  22.879  0.0799 -0.0881  0.0077
  412W        W43325  26.986  29.102  25.241 -0.0126 -0.1214  0.0532
  413W        W43326  24.118  12.085  22.991 -0.1730  0.0596 -0.2393
  414W        W43327  23.797   3.208  13.905 -0.0038 -0.2708  0.0419
  415W        W43328  20.000  33.605  16.348 -0.1407 -0.1482  0.0165
  416W        W43329  26.693   9.743  24.644  0.2567  0.1151  0.0604
  417W        W43330  24.447   5.163  20.577  0.2403 -0.0966  0.2955
  418W        W43331  24.238  34.328  25.382  0.0291 -0.0343 -0.1437
  419W        W43332  32.646   3.416  18.916  0.0267 -0.3083 -0.0920
  420W        W43333  16.323  33.400  15.140 -0.2793  0.0336 -0.0443
  421W        W43334  20.088   3.909  16.965  0.1729 -0.0801  0.0126
  422W        W43335  17.960  32.884  17.178 -0.0371 -0.1374  0.1291
  423W        W43336  29.351   3.953  16.651 -0.1448  0.0795 -0.0286
  424W        W43337  21.294  12.110  12.905 -0.1068 -0.0641  0.1509
  425W        W43338  33.345   7.261  15.558  0.0084  0.5149  0.1119
  426W        W43339  23.846   3.236  14.768 -0.1549 -0.0894 -0.0487
  427W        W43340  31.935  12.738  14.222 -0.1986  0.2255  0.0707
  428W        W43341  26.919   5.640   0.472  0.1194  0.0225  0.0392
  429W        W43342  30.670   4.638  16.988  0.0943 -0.3239  0.1013
  430W        W43343  27.222   7.359  18.326 -0.1497 -0.0904 -0.1855
  431W        W43344  24.462   2.807  17.298 -0.0907 -0.0840 -0.1602
  432W        W43345  25.456   9.930  13.739  0.3020 -0.2280 -0.1591
  433W        W43346  20.197  11.340  16.211 -0.0740 -0.1375 -0.1027
  434W        W43347  32.561  34.278  18.719 -0.2591 -0.3859 -0.0614
  435W        W43348  30.943  13.631  20.885 -0.2203 -0.0064 -0.0273
  436W        W43349  28.851   0.902  21.641  0.0136  0.0456  0.0327
  437W        W43350  27.020   6.598  15.351  0.1106  0.0042  0.3715
  438W        W43351  33.954  29.013  16.822  0.0777 -0.2652  0.1215
  439W        W43352   2.443   5.302  19.648 -0.1777  0.1160 -0.3842
  440W        W43353  12.278  11.698  24.128  0.1890 -0.0106 -0.1346
  441W        W43354  25.406  33.975  17.151  0.2438  0.1454 -0.0120
  442W        W43355  26.478  10.621  18.209  0.4933  0.0170  0.1047
  443W        W43356  32.254   5.500  21.261 -0.0232 -0.0267 -0.0134
  444W        W43357  28.645   4.593  25.001 -0.2304 -0.2082  0.0151
  445W        W43358  26.397  18.621  16.745  0.1073 -0.2257  0.2849
  446W        W43359  21.115  32.917  16.464  0.2681 -0.0175 -0.2754
  447W        W43360  20.235  32.947  15.762 -0.4863 -0.1847  0.1661
  448W        W43361  13.872   4.661  20.818 -0.0142  0.2153 -0.0451
  449W        W43362  21.357   5.580  22.390  0.4700  0.0047 -0.0171
  450W        W43363  20.786  13.606  12.832  0.1512 -0.0852  0.2087
  451W        W43364  31.254   2.659  15.854  0.2472  0.2446 -0.4226
  452W        W43365  24.512   5.950  20.793 -0.1059  0.0181  0.0119
  453W        W43366  27.971   4.120  18.437 -0.0986 -0.2104  0.3232
  454W        W43367  26.024   8.569  23.513  0.0551 -0.3271 -0.2867
  455W        W43368  22.234  33.999  22.245 -0.0464  0.2752  0.3612
  456W        W43369  21.471   4.458  19.439  0.0526  0.2650 -0.2864
  457W        W43370  25.917   3.290  15.940 -0.3129  0.0382 -0.1857
  458W        W43371  29.272   1.780  18.018 -0.1199  0.1587 -0.2352
  459W        W43372  26.061  31.300  23.048  0.3267  0.1994  0.1114
  460W        W43373  28.693   5.160  19.855  0.1970  0.0905  0.3128
  461W        W43374  24.151   7.872  19.015 -0.0983  0.0306  0.1345
  462W        W43375  30.776  11.049  14.836  0.1504  0.2100  0.0966
  463W        W43376  27.002   9.485  19.612  0.0594 -0.2265 -0.1048
  464W        W43377  21.092   5.176  16.154 -0.1664  0.2342 -0.3094
  465W        W43378  23.011   0.505  22.237 -0.0858  0.2200 -0.1410
  466W        W43379  20.172  12.850  22.530 -0.1080 -0.1120 -0.1279
  467W        W43380  22.768   8.628  20.006 -0.1262 -0.0115 -0.2002
  468W        W43381  23.994   9.657  14.738 -0.4355 -0.0614 -0.1094
  469W        W43382  22.417   5.634  22.223 -0.1425  0.0030  0.2904
  470W        W43383  19.434   2.444  16.113 -0.3173 -0.0245  0.1342
  471W        W43384  26.840   2.406  18.384  0.1787  0.0948 -0.1567
  472W        W43385  22.713   2.455  18.558 -0.1887  0.1805 -0.2976
  473W        W43386  19.764   1.659  16.306  0.2086 -0.1535 -0.2502
  474W        W43387  29.645   6.217  19.364 -0.2324 -0.0848  0.1043
  475W        W43388  24.226   9.472  20.993 -0.1588 -0.1948 -0.3023
  476W        W43389   0.455  12.663  19.665 -0.1785  0.0577  0.1565
  477W        W43390  12.072   2.572  21.365  0.1475  0.0011 -0.0948
  478W        W43391  25.408  26.090  14.009 -0.1301  0.1606  0.0095
  479W        W43392  27.105   9.785  20.323 -0.0562 -0.5091 -0.1603
  480W        W43393  26.671  32.833  15.971 -0.3165 -0.1191 -0.3353
  481W        W43394  24.090  17.046  21.699 -0.0345  0.0645  0.0953
  482W        W43395  21.225   3.220  18.588 -0.0903  0.1842  0.1994
  483W        W43396  24.830   4.647  15.887 -0.0301 -0.2728 -0.1946
  484W        W43397  25.697  29.700  16.677  0.0299  0.0845 -0.0416
  485W        W43398  30.283   2.951  23.464 -0.0840 -0.0198  0.4589
  486W        W43399  25.292   3.925  15.926  0.2116  0.0401  0.4191
  487W        W43400  28.281   3.085  22.527  0.0033 -0.4158  0.0163
  488W        W43401  30.033   5.427  16.939 -0.0774  0.0549  0.1759
  489W        W43402  22.834   4.728  18.578 -0.1414  0.1137 -0.1247
  490W        W43403  31.897   8.242  16.288 -0.0504 -0.0174  0.2725
  491W        W43404  27.004  31.816  17.532 -0.2908 -0.0039  0.1964
  492W        W43405  33.476   4.704  19.244  0.0617 -0.1721 -0.1098
  493W        W43406  26.860  28.916  15.211 -0.0059 -0.1147 -0.1119
  494W        W43407  29.188  32.584  20.217 -0.3864 -0.3661 -0.0786
  495W        W43408  28.246   5.082  15.885 -0.0976 -0.2253  0.0107
  496W        W43409  25.462   5.423  18.449 -0.1941  0.1988 -0.1346
  497W        W43410  25.008   1.398  17.072 -0.3892 -0.0411  0.0411
  498W        W43411  34.469   7.011  18.476 -0.0069  0.0278 -0.1333
  499W        W43412  27.789  10.423  19.225  0.0055  0.0345 -0.0328
  500W        W43413  18.335   4.537  17.739  0.1078  0.0499 -0.1789
  501W        W43414  19.596   4.312  19.976  0.1242 -0.1466 -0.0611
  502W        W43415  29.009  31.026  20.858 -0.1216  0.0652  0.0943
  503W        W43416  19.781   9.182  16.979 -0.1118 -0.0254 -0.0293
  504W        W43417  24.513  10.188  18.928 -0.3637 -0.2034  0.0013
  505W        W43418  24.932   8.644  18.096 -0.0756  0.0476  0.0488
  506W        W43419  31.653  13.737  14.233  0.0642  0.0693 -0.1650
  507W        W43420  23.709  30.481  27.497  0.1955 -0.1531 -0.2476
  508W        W43421  29.621  20.081  13.151  0.0164  0.0602  0.2330
  509W        W43422  28.399   6.587  17.010 -0.0946  0.2691 -0.0650
  510W        W43423  21.957   0.934  14.910 -0.0995  0.1777 -0.0872
  511W        W43424  33.077   8.272  24.327 -0.0781 -0.2924  0.0694
  512W        W43425  22.670  34.428  15.301 -0.1375  0.1786  0.1293
  513W        W43426  17.163   5.733  18.088  0.2566 -0.2480  0.0062
  514W        W43427  13.443  34.429  17.302 -0.1689  0.1611 -0.0776
  515W        W43428  25.040   6.182  18.865  0.0770 -0.0689 -0.2268
  516W        W43429  21.831  12.026  15.407  0.3042 -0.0360 -0.0073
  517W        W43430  30.370  29.782  21.465  0.2866 -0.3694  0.2201
  518W        W43431  28.049  15.133  16.527  0.0685 -0.3451 -0.1407
  519W        W43432  19.250   2.063  22.482 -0.2976  0.1005  0.0285
  520W        W43433  18.833  31.055  18.004 -0.0510 -0.2286  0.4730
  521W        W43434  28.062   9.557  16.461 -0.1537  0.2211  0.0335
  522W        W43435  26.579   3.809  25.419  0.0120 -0.2495  0.1057
  523W        W43436  22.978  14.878  12.753 -0.1336  0.1590  0.0365
  524W        W43437  22.818   0.670   6.082 -0.2574 -0.1555 -0.4449
  525W        W43438  20.738  30.806  21.406  0.3935 -0.3689 -0.1796
  526W        W43439  14.811   3.025  17.929  0.2592  0.0391  0.1199
  527W        W43440  22.784  32.395  25.241 -0.4216  0.0868  0.1275
  528W        W43441  27.965  10.434  22.796 -0.1275  0.0658 -0.2295
  529W        W43442  23.742  19.072  18.931 -0.1167 -0.1416 -0.0590
  530W        W43443  30.828   4.853  20.253  0.3127 -0.0271  0.2537
  531W        W43444  19.907   2.023  14.004 -0.0477  0.2317  0.0822
  532W        W43445  30.652  10.406  17.968  0.2506 -0.0751 -0.0528
  533W        W43446  22.790   9.679  20.054 -0.1724 -0.1267 -0.0710
  534W        W43447  26.156   8.367   3.915 -0.2497  0.0718 -0.1758
  535W        W43448  21.557   2.656   1.937 -0.1030 -0.1769  0.0149
  536W        W43449  27.562   5.388  19.918 -0.4046  0.0697  0.2089
  537W        W43450  19.715  34.119  16.006 -0.2327 -0.0959  0.1510
  538W        W43451  25.500   0.678  15.726 -0.0294 -0.2211 -0.0102
  539W        W43452  25.468  19.183  17.675 -0.1352  0.4327 -0.1255
  540W        W43453  27.213   8.753   0.101  0.3290  0.2267 -0.1376
  541W        W43454   1.200   7.406  21.046  0.0205  0.5464  0.0280
  542W        W43455  14.410   0.263  18.208  0.0476  0.0857 -0.1445
  543W        W43456   1.651   2.909  22.605  0.2058 -0.1094  0.0334
  544W        W43457  21.017   2.519   2.289 -0.3261 -0.1079 -0.0798
  545W        W43458  18.729  34.402  15.374  0.0154  0.0969  0.2176
  546W        W43459  22.657   4.781  14.516 -0.3854 -0.1550 -0.3530
  547W        W43460  20.405   3.445  26.399 -0.0211  0.2765  0.2722
  548W        W43461  24.685  20.248  14.987 -0.0341  0.3295  0.2091
  549W        W43462  18.871   9.665  29.586  0.1587  0.1645 -0.0104
  550W        W43463  26.880  15.816  19.394  0.0553  0.0117 -0.2293
  551W        W43464  12.982  12.979  16.267  0.1183  0.0279  0.0306
  552W        W43465  19.878  10.452  26.451  0.0332 -0.2225 -0.1405
  553W        W43466  21.478  11.534  20.527 -0.0998 -0.0866  0.0487
  554W        W43467  26.308   5.788  22.380 -0.3273 -0.2132  0.0307
  555W        W43468  24.000  32.771  23.675  0.2933 -0.0353 -0.1214
  556W        W43469  27.763   4.392  16.251 -0.2103  0.2096 -0.3885
  557W        W43470  14.890   1.712  17.329  0.1308 -0.0197  0.1938
  558W        W43471  15.394  32.922  23.483 -0.1227  0.2737  0.2400
  559W        W43472  24.777  15.520  16.651  0.0089 -0.0921 -0.1968
  560W        W43473  28.249  13.263  16.828 -0.0473  0.2300 -0.2792
  561W        W43474  16.787   4.409  16.226  0.1361  0.0703  0.1300
  562W        W43475  30.017  29.430  20.659 -0.2455  0.0238 -0.1414
  563W        W43476  18.973  29.385  25.122 -0.0003  0.1219 -0.2698
  564W        W43477  29.701  10.316  23.836  0.1143 -0.0004 -0.0346
  565W        W43478  25.322  23.038  19.673 -0.0717  0.1360 -0.1240
  566W        W43479  32.753  33.403  20.886 -0.0312 -0.1880  0.2002
  567W        W43480  10.909  34.352  16.556  0.1100  0.2324 -0.0973
  568W        W43481  18.131  31.670  22.323  0.0917 -0.0971 -0.1318
  569W        W43482  25.108   8.615  25.257  0.0833  0.2585 -0.2624
  570W        W43483  30.049  29.823  13.450  0.3584  0.1189  0.1362
  571W        W43484  25.638   7.912  17.225 -0.1540  0.2319 -0.0179
  572W        W43485  29.321  11.099  20.890  0.0783 -0.1160  0.2217
  573W        W43486  25.738  24.801  21.335  0.3046 -0.0105 -0.0270
  574W        W43487  23.952   2.461  27.746 -0.2858  0.1002 -0.0628
  575W        W43488  28.740   5.929   1.173 -0.1747 -0.1341  0.1361
  576W        W43489  30.888   7.528  20.635 -0.1070  0.1697 -0.1067
  577W        W43490  22.689   1.652  23.945 -0.2463 -0.2436  0.1885
  578W        W43491  20.674   1.556  18.314 -0.0364 -0.2772  0.0193
  579W        W43492  31.216  11.896  18.791  0.0885 -0.0716 -0.1494
  580W        W43493  22.962   3.701  28.923  0.3754  0.1296  0.2476
  581W        W43494  26.472  12.560  20.622 -0.1924 -0.1355 -0.3386
  582W        W43495  26.308   5.306  16.306 -0.3621 -0.2321 -0.4291
  583W        W43496  22.187  10.597  16.871 -0.2119  0.0726 -0.0210
  584W        W43497  26.369   4.021  14.495 -0.0751  0.3870 -0.1160
  585W        W43498  27.351  15.213  26.286  0.0064 -0.2340  0.1025
  586W        W43499  21.800  11.325  20.009 -0.2629 -0.5457  0.0788
  587W        W43500  13.161   8.226  20.646 -0.0790  0.0117 -0.2615
  588W        W43501  27.383   5.071  26.292 -0.1303 -0.0651  0.1099
  589W        W43502  33.192   7.836  20.501 -0.0220  0.0551  0.1998
  590W        W43503  32.461  16.736  25.827 -0.1185 -0.2020  0.2798
  591W        W43504  18.090   6.934  15.704 -0.3115 -0.1914  0.0836
  592W        W43505  12.160   0.422  18.635  0.1173 -0.1069 -0.2538
  593W        W43506  13.706   4.534  16.371  0.1896  0.1302 -0.1961
  594W        W43507  18.873   6.989  21.277  0.1292  0.1166 -0.1851
  595W        W43508  25.007   3.595  22.837 -0.0523 -0.0589 -0.1081
  596W        W43509  23.706   5.729  22.426  0.2473  0.1249  0.0021
  597W        W43510  21.469   2.781  14.411  0.0564  0.0685  0.0748
  598W        W43511  25.363   1.126  22.639  0.1922 -0.1723 -0.1134
  599W        W43512  27.264   5.538  15.386 -0.2297 -0.2446  0.2040
  600W        W43513  11.139  33.306  25.160  0.1190 -0.2422  0.0071
  601W        W43514  25.452   1.766  26.177  0.0618  0.1705  0.1530
  602W        W43515  24.016   4.646  17.528  0.0895  0.0892  0.3815
  603W        W43516  25.296   5.953  20.186 -0.1533 -0.1615 -0.0143
  604W        W43517  17.820  32.251  16.434  0.4304 -0.2354  0.1292
  605W        W43518  18.507   3.800  18.387 -0.3472 -0.2323 -0.0771
  606W        W43519  25.500   4.066  17.951  0.1065  0.0213 -0.1533
  607W        W43520   8.669  32.064  18.690  0.1124 -0.0995 -0.2314
  608W        W43521  25.615  33.677  16.410 -0.3166 -0.0792  0.1584
  609W        W43522  25.177   7.287  18.860 -0.1369  0.0914  0.0944
  610W        W43523  31.334   9.851  23.408 -0.3120  0.0931 -0.0649
  611W        W43524  18.398   9.431  12.693  0.0601  0.2550  0.2582
  612W        W43525  25.939  32.784  25.265 -0.1711  0.0543  0.2132
  613W        W43526  31.661  29.752  16.428  0.0293  0.0924  0.2101
  614W        W43527  17.541   9.078  23.378 -0.2560  0.3317 -0.0012
  615W        W43528  27.521  19.029  18.974  0.0723  0.1869  0.0926
  616W        W43529  25.988   3.403  17.046  0.0803  0.1324 -0.0854
  617W        W43530  17.514   2.755  29.649  0.1870  0.1655  0.0066
  618W        W43531  32.789   8.148  25.326 -0.4438  0.0372  0.1004
  619W        W43532  27.786  18.809  21.410  0.3138  0.0263 -0.1151
  620W        W43533  25.795   2.661  14.641 -0.2142 -0.3070  0.0578
  621W        W43534  23.011  25.055  27.049 -0.1629  0.2220  0.0299
  622W        W43535  16.645   6.507  25.956  0.1069 -0.0311  0.2809
  623W        W43536  32.454  15.273  18.768  0.1667  0.0215  0.0305
  624W        W43537  22.557  29.089  26.102 -0.0333  0.2542 -0.0778
  625W        W43538  20.134  15.387  24.157  0.1293  0.1167  0.0874
  626W        W43539  26.251   7.093  25.851 -0.1170  0.2543 -0.1487
  627W        W43540  25.730  13.554  15.041 -0.1289  0.2170  0.1030
  628W        W43541  21.585  26.023  21.998  0.1301  0.1971 -0.3329
  629W        W43542  30.200   7.232  22.469 -0.0879  0.0825  0.0262
  630W        W43543  27.819   0.308  23.114  0.2591  0.0746 -0.0559
  631W        W43544  27.218  26.321  22.425  0.2693 -0.1580  0.0428
  632W        W43545  32.013   6.509  20.711  0.1594 -0.1955  0.0426
  633W        W43546  30.556   8.850  17.085  0.1986 -0.0029  0.2749
  634W        W43547  26.887   5.251  21.920 -0.0136 -0.0583 -0.0028
  635W        W43548   5.971   9.446  20.754 -0.2236  0.0109  0.0764
  636W        W43549  28.581  11.805   1.757 -0.2726  0.3754 -0.1098
  637W        W43550  12.602  10.872   0.173 -0.2786 -0.1944 -0.1792
  638W        W43551  21.853  32.669  20.162 -0.3975  0.2899  0.3291
  639W        W43552  12.502   8.531  17.210  0.0837 -0.1553  0.3322
  640W        W43553  23.985  10.378   3.164  0.0517  0.0875 -0.2475
  641W        W43554  23.250  31.922  22.819 -0.1174  0.4516  0.1244
  642W        W43555  27.383  14.152  18.308  0.1571  0.2039  0.1317
  643W        W43556  23.836   8.491  13.948  0.1562 -0.1702 -0.1470
  644W        W43557  21.409  14.447  15.988 -0.2095  0.1586  0.1852
  645W        W43558  18.776   2.164  25.785  0.3793 -0.0506  0.1600
  646W        W43559  23.927   6.336  23.290 -0.4493 -0.3565  0.2794
  647W        W43560  22.214  33.450   0.609 -0.1407  0.1147  0.0574
  648W        W43561  29.665   5.988  20.052  0.0825 -0.2831 -0.0239
  649W        W43562  13.740  15.163  14.468  0.2915  0.0651  0.0020
  650W        W43563  24.208   0.422  21.301 -0.1856  0.1375  0.1984
  651W        W43564  26.950  34.184  24.099  0.1964 -0.1274  0.0274
  652W        W43565  30.693  11.289  21.640 -0.0277  0.3878 -0.3218
  653W        W43566  24.230  30.322  18.993 -0.2262  0.1237  0.3512
  654W        W43567  19.452  10.007  15.193  0.3943  0.0036 -0.3053
  655W        W43568  28.444   4.606  15.651 -0.0268  0.2049  0.2626
  656W        W43569  32.509  30.831  20.264  0.0485  0.0574 -0.0366
  657W        W43570   1.604   8.709  21.146  0.0291 -0.0584  0.0703
  658W        W43571  16.845  10.889  22.664 -0.0339  0.1319  0.1175
  659W        W43572  20.656   4.812  15.440 -0.1806 -0.2656 -0.1225
  660W        W43573  33.709   4.763  17.341  0.0029  0.0982 -0.1269
  661W        W43574  25.544   0.840  21.710  0.0641 -0.3234  0.0407
  662W        W43575  24.849  11.063  19.120 -0.2893  0.2369 -0.0565
  663W        W43576  28.370   5.992  27.571  0.1967 -0.0898 -0.0769
  664W        W43577  22.200   0.922  24.510  0.1623 -0.0127  0.1734
  665W        W43578  22.236   0.840  26.783  0.0076 -0.0200  0.0624
  666W        W43579  30.606  34.079  16.672 -0.2495 -0.0123 -0.0707
  667W        W43580  15.773   1.946  16.375 -0.1031  0.0150 -0.0828
  668W        W43581  28.897   8.675  15.836  0.0931 -0.0827  0.0618
  669W        W43582  16.301  16.076  26.118  0.3436 -0.1563 -0.2206
  670W        W43583  16.762   0.340  16.221  0.5492  0.2040  0.1428
  671W        W43584  28.152   8.648  21.997 -0.2247 -0.0962 -0.1033
  672W        W43585  24.762  29.906  13.285  0.0345  0.0002 -0.1142
  673W        W43586  14.437   8.396  24.533  0.0876 -0.0346  0.1776
  674W        W43587  22.768   6.097  21.286 -0.0665  0.1835  0.0521
  675W        W43588  18.011   1.536  17.407 -0.1722 -0.1456 -0.0955
  676W        W43589  23.053   5.699  14.739 -0.1657  0.0031 -0.1806
  677W        W43590  26.758   4.844  18.217  0.1252  0.1979 -0.1955
  678W        W43591  24.281  14.274  14.819  0.0267 -0.0775  0.0109
  679W        W43592  21.105  30.678  14.530 -0.2688  0.0488 -0.1857
  680W        W43593  27.426   0.395  18.695 -0.1995 -0.0337  0.1209
  681W        W43594  28.628  11.748  14.667 -0.0706  0.4615 -0.0667
  682W        W43595  16.975   6.249  21.317 -0.1297 -0.0990  0.0869
  683W        W43596  25.945   7.401  17.345  0.1013  0.0537  0.3853
  684W        W43597  22.902   3.364  19.971  0.1852  0.1474  0.1625
  685W        W43598  18.408   1.564  22.726  0.2728  0.2160  0.1133
  686W        W43599  17.082   4.429  14.791 -0.1254 -0.1343 -0.0753
  687W        W43600  25.081   5.980  16.937  0.0620 -0.2500  0.0816
  688W        W43601  28.244  11.616  15.924  0.1289 -0.4339 -0.0745
  689W        W43602  31.737   5.474  20.339 -0.0473  0.2915  0.1954
  690W        W43603  11.546   0.923  18.082 -0.0230  0.1838  0.0769
  691W        W43604  19.489  32.201  21.235  0.1671 -0.2094 -0.1592
  692W        W43605  20.326   6.196  20.649 -0.1280  0.0854 -0.2794
  693W        W43606  20.226   1.767  20.454  0.0656 -0.0179  0.2461
  694W        W43607  33.439   9.409  16.338  0.2453  0.1215  0.0797
  695W        W43608  20.346   0.470  17.994 -0.2306  0.2013 -0.0825
  696W        W43609  14.257  31.606  18.689  0.1795 -0.0326  0.2890
  697W        W43610  33.186   2.225  16.506 -0.1231 -0.2144  0.1518
  698W        W43611  19.048   8.117  15.626 -0.1399 -0.0262  0.1314
  699W        W43612  17.123  33.999  17.467  0.1694 -0.0128  0.7063
  700W        W43613  34.301  12.391  24.292  0.1777 -0.1068  0.1671
  701W        W43614  29.783  21.455  15.699 -0.0349 -0.1018  0.1212
  702W        W43615  30.904  30.126  16.033 -0.2429  0.1311  0.0332
  703W        W43616  19.400   9.138  22.644  0.3618  0.0868  0.3861
  704W        W43617  20.429   0.916  14.277  0.2289 -0.0774  0.1022
  705W        W43618  23.134   8.052  16.953 -0.1018 -0.2647  0.1976
  706W        W43619  19.154   4.107  16.743  0.3812 -0.4769 -0.0115
  707W        W43620  32.934  14.538  15.322 -0.0024  0.1342  0.0938
  708W        W43621  27.733  26.876  21.318  0.0708 -0.0514 -0.0485
  709W        W43622  23.569  12.397  17.127 -0.3933 -0.3250 -0.1057
  710W        W43623  27.848   8.982  21.121 -0.0372 -0.1551 -0.1704
  711W        W43624  26.680   6.430  16.214  0.0669  0.2705  0.3642
  712W        W43625  23.805  14.185  20.770 -0.4931  0.3347 -0.1850
  713W        W43626  26.705   8.590  19.710  0.0906 -0.0223  0.0779
  714W        W43627  18.962   5.611  20.548 -0.3457 -0.3407 -0.2054
  715W        W43628  28.332  10.800  21.389  0.0811  0.0759  0.1903
  716W        W43629  28.315   9.571  20.904 -0.0078 -0.1905 -0.1545
  717W        W43630  14.853  33.335  16.601 -0.1709  0.1705 -0.2072
  718W        W43631  31.692  31.217  24.541  0.0146  0.0204  0.0166
  719W        W43632  19.556   6.772  13.220  0.1800 -0.0088 -0.5087
  720W        W43633  21.537  13.517  18.725 -0.2640 -0.1604  0.2544
  721W        W43634  24.898   4.494  26.754  0.4081  0.0259 -0.1122
  722W        W43635  16.879  32.322  19.165  0.0899  0.3859 -0.2250
  723W        W43636  30.036   4.128  23.802  0.1465 -0.0784  0.2047
  724W        W43637  28.756  32.689   0.381 -0.0950 -0.1293  0.1866
  725W        W43638  32.877   2.779  26.856  0.3197 -0.1026 -0.1018
  726W        W43639  12.702  10.734  20.004 -0.1341  0.0647  0.3286
  727W        W43640  27.069   4.445  18.571  0.0556 -0.3267  0.1121
  728W        W43641  24.634   7.848  24.963  0.0926  0.2357 -0.0185
  729W        W43642  32.860  26.954  17.733 -0.1770  0.1151  0.2716
  730W        W43643  24.575   7.821  18.741 -0.0931 -0.1012  0.0125
  731W        W43644  24.069   4.151  23.854 -0.1540  0.0458 -0.3010
  732W        W43645  21.077   0.625   0.862  0.3035 -0.0643 -0.1013
  733W        W43646  23.804  10.049  17.179 -0.1609 -0.1442  0.1471
  734W        W43647  23.436   2.921  15.560 -0.4468 -0.0800 -0.1288
  735W        W43648  22.345  12.285  22.401 -0.1802 -0.1402 -0.4515
  736W        W43649  22.058   7.535   3.917  0.0473 -0.2985  0.5755
  737W        W43650  18.682   4.618  26.193 -0.1135  0.1543 -0.3105
  738W        W43651  30.585   3.752  15.697 -0.3268 -0.2395 -0.2611
  739W        W43652  27.304  30.288  17.130  0.0530  0.0923  0.0078
  740W        W43653  28.576  33.472  21.556  0.1230  0.3597 -0.0215
  741W        W43654  13.991  11.155  25.694  0.1026  0.0087 -0.2307
  742W        W43655  14.666   8.907  29.112 -0.1494  0.0420 -0.0552
  743W        W43656  22.045  12.002  27.983 -0.2504  0.4757  0.1799
  744W        W43657  21.865   8.427  20.223  0.3328 -0.1833 -0.2231
  745W        W43658  13.026  27.393  17.287  0.5117  0.1050  0.1050
  746W        W43659  11.157   5.839  24.967  0.1001 -0.2232 -0.0931
  747W        W43660  29.214   5.660  15.154 -0.3423 -0.1075  0.1987
  748W        W43661  17.813   6.245  26.293  0.3583  0.0934  0.0269
  749W        W43662  18.975   9.642  23.517  0.0468  0.0951  0.3528
  750W        W43663  28.817  10.740  23.580  0.1355 -0.2426 -0.1707
  751W        W43664  22.837   3.077  20.655  0.2359  0.0580 -0.0561
  752W        W43665  26.894   1.670  29.159 -0.0798  0.0480  0.2282
  753W        W43666  24.991   9.862  15.812  0.2247  0.1241  0.0155
  754W        W43667  22.208   2.491  21.398 -0.2454 -0.0469 -0.1081
  755W        W43668  30.217   1.978  23.024  0.1046 -0.3362 -0.0244
  756W        W43669  22.115   7.132  22.600 -0.2047  0.0627  0.0154
  757W        W43670  26.322   0.868   5.474 -0.0361  0.0574 -0.5646
  758W        W43671  11.668   5.020  17.493  0.1123 -0.0690  0.1315
  759W        W43672  29.254   0.486  22.257 -0.0453 -0.2072  0.0146
  760W        W43673  13.071  31.470  17.872  0.0172  0.2032  0.1340
  761W        W43674  22.454   8.690  18.280 -0.0517 -0.3360  0.1265
  762W        W43675  33.932  33.197  21.652  0.0281  0.1600 -0.0637
  763W        W43676  21.743   2.540  24.970  0.1442  0.0614 -0.1770
  764W        W43677  21.958  30.263  18.477  0.1542 -0.0560 -0.0377
  765W        W43678  19.651  30.591  24.165  0.0529 -0.2809 -0.0985
  766W        W43679  25.486   9.608  15.577 -0.1913  0.1011 -0.1134
  767W        W43680  27.673   0.210  16.780 -0.0356  0.1869 -0.2901
  768W        W43681  19.537   3.962  26.299 -0.3044 -0.0752 -0.0692
  769W        W43682  18.434   8.844   0.811  0.2647 -0.0492  0.0523
  770W        W43683  22.353  31.837  23.906  0.1164  0.1712  0.0202
  771W        W43684  17.282   6.195  18.136 -0.0294  0.0386 -0.0329
  772W        W43685  32.056  33.531  18.938  0.1637 -0.0501  0.1335
  773W        W43686  21.759   7.714  13.866 -0.2344 -0.1468  0.1505
  774W        W43687  33.846   5.207  19.069  0.2650  0.0933 -0.0849
  775W        W43688  15.158   2.226  18.697 -0.1008  0.1521  0.3201
  776W        W43689  22.549   4.851  21.637  0.3417 -0.0226  0.0068
  777W        W43690  21.719  32.943  13.979  0.0018  0.1902  0.1572
  778W        W43691  27.832   2.648  21.277  0.0859  0.1033 -0.2482
  779W        W43692  31.493  13.046  15.798  0.2396  0.0398 -0.0001
  780W        W43693  17.676  33.611  26.883  0.2492 -0.0400  0.1732
  781W        W43694  22.755  14.940  26.523  0.1504  0.1527  0.0840
  782W        W43695  20.993  10.609  13.030  0.0489  0.3553  0.3450
  783W        W43696  16.139   6.682  25.133 -0.0546  0.0639 -0.0692
  784W        W43697  18.807  34.016  15.661  0.1813 -0.1389 -0.0471
  785W        W43698  29.123  19.670  26.673  0.2715  0.1447  0.0163
  786W        W43699  18.834  14.135  12.651  0.0802 -0.1493 -0.2295
  787W        W43700  30.194   6.740  19.789  0.0317 -0.0477  0.0895
  788W        W43701  20.944   1.204  18.097 -0.0989  0.0450 -0.2482
  789W        W43702  21.984  33.284  15.777 -0.1734 -0.3408  0.0794
  790W        W43703  19.243   8.370  21.979 -0.0526  0.1123 -0.0164
  791W        W43704  19.451   4.696  17.554  0.2127  0.1924 -0.3064
  792W        W43705  25.133  10.633  16.041 -0.0269  0.0894 -0.2496
  793W        W43706  29.090   6.263  24.132 -0.3268 -0.1074 -0.1743
  794W        W43707  31.296  12.789  16.486 -0.1110  0.1214  0.4032
  795W        W43708  17.532  10.433  16.675  0.1480 -0.1587 -0.0823
  796W        W43709  32.096   3.591  19.801 -0.0312  0.0723 -0.3385
  797W        W43710  28.613   7.537  15.055  0.3539 -0.2277 -0.2622
  798W        W43711  30.006   0.586  17.132  0.2836 -0.0574  0.2014
  799W        W43712  31.636  11.268   0.487  0.0576 -0.0626 -0.2536
  800W        W43713  24.824   8.574  20.139 -0.0120  0.0172 -0.1099
  801W        W43714  23.749  13.129  18.360 -0.0046  0.0623 -0.0404
  802W        W43715  24.364  32.323  21.656  0.1569  0.0260  0.2595
  803W        W43716  31.486  34.119  23.732 -0.0221  0.1439  0.0798
  804W        W43717  28.825   4.107  27.129 -0.1081 -0.4001  0.1089
  805W        W43718  21.417   1.634  24.032  0.2597 -0.0481  0.3720
  806W        W43719  17.470   9.723  26.042  0.1992 -0.0820  0.0430
  807W        W43720  23.896  12.227  18.753 -0.1154 -0.1888  0.0600
  808W        W43721  26.880  12.901  14.354 -0.0809  0.1528  0.0228
  809W        W43722  20.346   9.367  17.758  0.0111  0.2928  0.0888
  810W        W43723  29.002  14.211  15.659  0.0466  0.1525  0.1795
  811W        W43724  16.308   7.181  21.745 -0.0048  0.1442 -0.0414
  812W        W43725  29.919  25.351  16.021 -0.1176 -0.1347  0.0707
  813W        W43726  22.422   6.205  24.307  0.0753  0.0970  0.5070
  814W        W43727  21.823   4.242  27.550 -0.0008  0.3476 -0.0024
  815W        W43728  11.512  11.438  25.473 -0.0817 -0.0778 -0.0365
  816W        W43729  21.121   8.329  13.805  0.0954  0.0117 -0.3068
  817W        W43730  23.854   0.196  20.487 -0.1856 -0.3884 -0.1859
  818W        W43731  25.361   2.211   1.175 -0.3673 -0.1283  0.0455
  819W        W43732  29.978  10.617  16.876  0.0517  0.0901  0.1287
  820W        W43733  19.760  11.616  16.789  0.0347  0.1284  0.0454
  821W        W43734  22.540   3.047  22.987 -0.3076  0.2687  0.2400
  822W        W43735  20.221   7.971  16.823 -0.1133  0.0191  0.3711
  823W        W43736  25.839   5.337  14.465 -0.0934 -0.1554  0.0276
  824W        W43737  32.944  11.975  19.823 -0.1497  0.1475 -0.1519
  825W        W43738  29.547  28.111  17.545 -0.0228  0.0861  0.2789
  826W        W43739   0.182   6.248  23.537 -0.3674 -0.2370 -0.1486
  827W        W43740  27.231   0.387  25.175  0.3621 -0.0078  0.1208
  828W        W43741  22.384   6.352  15.811  0.1673 -0.0027 -0.0002
  829W        W43742  25.102  13.256  12.776 -0.3068  0.0152  0.0907
  830W        W43743  23.582   8.703  13.487 -0.0147 -0.2074 -0.2711
  831W        W43744  31.467   9.011  19.732 -0.1567 -0.0585  0.2603
  832W        W43745  19.796   4.967  17.899  0.0860  0.2520 -0.0965
  833W        W43746   1.852  12.152  19.305  0.0301 -0.0274  0.0125
  834W        W43747  19.713   6.324   1.298 -0.1136  0.3166 -0.3218
  835W        W43748  16.310   3.766  16.676  0.1373  0.1296  0.2642
  836W        W43749  15.199   9.787  19.457  0.0066 -0.3736 -0.2022
  837W        W43750  30.072  31.703  19.621 -0.2085  0.3220 -0.1076
  838W        W43751  19.714   9.696  24.994 -0.0532  0.4351 -0.0205
  839W        W43752  19.275  32.577  18.277 -0.0400 -0.4647 -0.0710
  840W        W43753  15.754   3.524  21.241 -0.2166 -0.0798 -0.2028
  841W        W43754  17.758  28.447  23.199 -0.4190 -0.0394 -0.0171
  842W        W43755  15.558  27.241  24.076 -0.1076 -0.1437 -0.0124
  843W        W43756  27.634   7.379  22.670  0.2740  0.1229  0.0404
  844W        W43757  27.575   6.822  27.657 -0.0680  0.0534 -0.2239
  845W        W43758  29.428  26.863  24.361 -0.0062  0.0627  0.0590
  846W        W43759  21.654   9.267  16.374  0.2758 -0.2434 -0.1359
  847W        W43760  16.432  31.797  18.688  0.2535  0.0290 -0.4306
  848W        W43761  19.198   8.039  19.379  0.0618 -0.1002 -0.2892
  849W        W43762  18.391  22.387  22.693  0.0496  0.1861 -0.2060
  850W        W43763  22.029   5.101  16.477 -0.0505  0.0905 -0.1426
  851W        W43764  25.016   0.349  22.010 -0.3900  0.0968  0.3266
  852W        W43765  20.968   7.994  14.918 -0.0198  0.0711 -0.2173
  853W        W43766  25.835  10.924  15.349 -0.0157 -0.2874 -0.2589
  854W        W43767  23.253   8.870  26.291  0.0006 -0.2058  0.1979
  855W        W43768  23.739   4.631  17.130  0.0716 -0.2207  0.0415
  856W        W43769  20.544  30.115  27.939 -0.0653  0.2131 -0.4123
  857W        W43770  21.434   7.050  15.010 -0.0793  0.0211 -0.1462
  858W        W43771  27.958   4.664  13.933 -0.0237  0.2051  0.0544
  859W        W43772  32.446  29.096  20.845 -0.0928 -0.1710 -0.3779
  860W        W43773  23.850   9.517  13.886 -0.0979  0.2602  0.2249
  861W        W43774  23.679   4.048  17.990  0.1097  0.1822 -0.1392
  862W        W43775  20.511  10.423  12.268 -0.1192  0.1204 -0.2756
  863W        W43776  22.106  33.226  14.333 -0.0247  0.0835 -0.2895
  864W        W43777  13.889   3.002  19.563 -0.0144  0.1363 -0.1729
  865W        W43778  13.601  23.579  22.607 -0.0914  0.3907 -0.0015
  866W        W43779  19.724   0.228  14.050  0.2015 -0.2346 -0.2131
  867W        W43780  24.356   3.785  24.132  0.2963  0.2697 -0.0541
  868W        W43781  30.337   2.824  18.097 -0.1911 -0.1323 -0.1404
  869W        W43782  20.366   0.697  19.182  0.0480  0.3234  0.3142
  870W        W43783  23.924   2.255  18.311  0.1109  0.0971 -0.3940
  871W        W43784  18.867   4.581  16.849  0.4503  0.0169 -0.2655
  872W        W43785  23.333   1.350  18.938  0.0887 -0.0820  0.2435
  873W        W43786  21.236  11.386  21.320 -0.2981 -0.1362  0.0561
  874W        W43787  33.985  12.115  21.071 -0.2180 -0.0698 -0.2838
  875W        W43788  25.562   7.481  14.573 -0.4862 -0.1406 -0.0520
  876W        W43789  23.664   6.952  15.383  0.2389 -0.0438  0.0322
  877W        W43790  17.089   1.945  16.669  0.1098  0.0360 -0.0343
  878W        W43791  24.105   4.847  16.684  0.0565  0.4820 -0.0654
  879W        W43792  24.728   5.519  29.050 -0.3067  0.0965 -0.0682
  880W        W43793  25.217  12.043  22.368  0.0467 -0.1791  0.2523
  881W        W43794  16.003  17.053  13.614  0.0406 -0.1142  0.2681
  882W        W43795  33.543   5.244  17.332 -0.0761 -0.0230 -0.4047
  883W        W43796  27.672  21.351  27.246  0.0084 -0.2391  0.2407
  884W        W43797  18.585   2.465   0.504  0.0491  0.2558  0.2122
  885W        W43798  23.786  10.313  14.680 -0.0718  0.2385  0.0089
  886W        W43799   6.235  10.771  18.009  0.1474 -0.0759  0.3365
  887W        W43800  16.559   2.631  21.594  0.0050 -0.0142  0.0148
  888W        W43801  28.767   4.724  18.135  0.0321 -0.0559 -0.0161
  889W        W43802  30.943  30.909  18.971  0.0059 -0.1716 -0.3217
  890W        W43803  26.018  31.910  17.039  0.0969  0.3567 -0.3901
  891W        W43804  20.002   2.824  13.510 -0.0805 -0.0894 -0.2094
  892W        W43805  26.397   7.638   8.077  0.1060 -0.2142 -0.0599
  893W        W43806  21.177   7.018  22.462 -0.1240  0.1639  0.1370
  894W        W43807  23.414   4.333  25.030  0.2564 -0.2902 -0.2268
  895W        W43808  31.201  31.057   1.624  0.1809 -0.1220 -0.1150
  896W        W43809  21.019   8.859  15.686  0.4142 -0.3455 -0.3264
  897W        W43810  25.283   9.767  21.273  0.1708 -0.1860 -0.1401
  898W        W43811  27.774   1.447  20.410  0.0127  0.1609  0.0968
  899W        W43812  21.973   5.461  24.702 -0.2866 -0.1069 -0.1848
  900W        W43813  26.740   1.414  24.528  0.2747 -0.1451 -0.0123
  901W        W43814  34.054   3.151  18.413  0.2727 -0.0712 -0.2960
  902W        W43815  20.108   7.296  14.196 -0.3385  0.0129  0.0937
  903W        W43816  17.243  30.220  17.097 -0.1836  0.0811 -0.3020
  904W        W43817  23.012   2.207   1.944 -0.0888  0.0659 -0.1620
  905W        W43818  28.661  29.511  17.860 -0.0572 -0.3562  0.1109
  906W        W43819  20.255   1.980  25.204 -0.4190  0.2170  0.0469
  907W        W43820   0.689  29.361  15.003  0.0098  0.0144 -0.2639
  908W        W43821   8.837   5.027  21.552 -0.0109 -0.0953 -0.0287
  909W        W43822  20.214   0.902  23.656  0.1597 -0.0221  0.2670
  910W        W43823  20.324   0.922  16.295  0.1049  0.1601 -0.2002
  911W        W43824  27.628  11.375  16.469 -0.0901  0.2280 -0.2162
  912W        W43825  24.416   4.615  20.564  0.1996  0.3764 -0.1651
  913W        W43826  33.042   8.845  21.669 -0.2212 -0.3587  0.3440
  914W        W43827  20.544   0.734  25.141  0.0673 -0.0214 -0.3366
  915W        W43828  21.073   1.652  25.338 -0.0451 -0.0892  0.0615
  916W        W43829  21.275  13.297  25.722 -0.3396  0.0846 -0.1467
  917W        W43830  22.426  10.139   4.828  0.3007  0.0407 -0.1157
  918W        W43831  19.124   6.243  21.648 -0.0375 -0.3363 -0.1232
  919W        W43832  15.737  10.943  17.545  0.1610  0.1843  0.3218
  920W        W43833  22.652   9.117  26.762 -0.1958 -0.1715  0.0546
  921W        W43834  27.392   7.520  14.643 -0.2610 -0.3017  0.0053
  922W        W43835  16.667  31.998  15.855 -0.0425  0.2897 -0.2198
  923W        W43836  20.532   9.633  18.800  0.2402  0.1919  0.2986
  924W        W43837  20.167  10.939  12.982 -0.0906 -0.0016 -0.0026
  925W        W43838  23.967  10.898   1.454  0.1724  0.0234 -0.1084
  926W        W43839  20.707  10.594   3.846 -0.0096 -0.1059  0.0111
  927W        W43840  23.037   0.870  21.424  0.0281  0.0057 -0.2366
  928W        W43841  22.586   6.130  23.728 -0.2216 -0.1974 -0.0235
  929W        W43842  22.523   8.627  23.938 -0.2671  0.0492 -0.1028
  930W        W43843  28.030  11.225  16.207 -0.1232  0.1727 -0.2233
  931W        W43844  27.209   0.637  20.443 -0.0741 -0.0542  0.1964
  932W        W43845  28.532   8.808  22.799  0.0974 -0.1466 -0.0092
  933W        W43846  25.574  10.944  26.030  0.0379  0.0367 -0.0205
  934W        W43847   0.132   5.343   2.054 -0.2084  0.1175 -0.1008
  935W        W43848  33.250  24.438  25.808  0.1611 -0.1148  0.0485
  936W        W43849  28.357   2.176  20.640 -0.3943  0.2083  0.1082
  937W        W43850  25.848   5.689   1.687 -0.2303  0.1646 -0.2060
  938W        W43851  20.325   8.754  21.792  0.0970 -0.3657  0.1131
  939W        W43852  26.399  28.853  26.931 -0.2126  0.0669  0.0316
  940W        W43853  28.927   1.157  26.050  0.1482 -0.1617  0.1184
  941W        W43854  20.690   9.237  28.442  0.1153 -0.0223 -0.1532
  942W        W43855  21.280   4.979  29.459  0.1527  0.1912  0.0137
  943W        W43856  20.628  32.944  17.904  0.0453 -0.0838 -0.1778
  944W        W43857  23.619  10.464  28.739  0.0291  0.1401  0.2312
  945W        W43858  27.269   2.332  23.881 -0.1920 -0.0451  0.2405
  946W        W43859  23.617  10.773  13.313 -0.2240  0.0097  0.2293
  947W        W43860  14.113   8.008  23.429  0.2885 -0.2406  0.3341
  948W        W43861  21.190  10.481  22.779 -0.1362  0.0299  0.1175
  949W        W43862  29.155  12.881  29.116  0.0137  0.0570 -0.1756
  950W        W43863  31.979  11.210  20.982  0.0073  0.2989 -0.2663
  951W        W43864  24.649   6.273   1.094  0.0829 -0.0742  0.2652
  952W        W43865  31.099   6.840   5.126 -0.1450 -0.0464 -0.1295
  953W        W43866  24.838   4.969  24.772 -0.0586  0.2521 -0.0786
  954W        W43867  25.200  33.423  25.113  0.1534 -0.0314 -0.3090
  955W        W43868  20.635  34.183  18.831  0.1138  0.0061 -0.0947
  956W        W43869  26.485   2.085  18.444  0.1158  0.1083  0.1698
  957W        W43870  13.335   7.443  20.792 -0.1808 -0.0142 -0.1889
  958W        W43871  32.438   7.629  16.546  0.2135  0.0018 -0.1149
  959W        W43872  18.105   4.151  29.406  0.0577  0.0772 -0.1258
  960W        W43873  23.515  18.313  19.523 -0.2532  0.0507 -0.0143
  961W        W43874  26.043   8.076  15.154 -0.3601 -0.2524  0.2088
  962W        W43875  12.574   1.230  24.368  0.0193 -0.2380  0.2367
  963W        W43876  10.315   9.259  18.337  0.2400 -0.0158 -0.1471
  964W        W43877  21.913   3.626   4.288 -0.1419  0.1985  0.2191
  965W        W43878  20.118   2.578  13.940  0.1319 -0.0883  0.1042
  966W        W43879  22.002   6.578  14.309 -0.2188 -0.1757 -0.0497
  967W        W43880  25.531  33.185  20.676 -0.1578 -0.0079 -0.0507
  968W        W43881  30.859  32.555  18.556  0.1615  0.0053 -0.3518
  969W        W43882  25.746   5.651  26.337  0.0935  0.0089 -0.2581
  970W        W43883  11.267  17.386  26.123 -0.1152  0.0044 -0.0203
  971W        W43884  11.383   9.690   2.744 -0.1742  0.0994 -0.2194
  972W        W43885  28.733  14.629   3.180 -0.2387  0.3843  0.1600
  973W        W43886  24.689   6.763  17.194  0.0250  0.0924  0.1655
  974W        W43887  23.076   8.277  19.281  0.0052  0.0907 -0.0330
  975W        W43888  13.497  14.188  20.661  0.0257  0.3787 -0.1178
  976W        W43889   6.717   5.707  19.575  0.2141 -0.0950 -0.2596
  977W        W43890  20.918   0.208  18.543  0.0549  0.0050  0.2272
  978W        W43891  18.047  12.892  20.645  0.2135  0.1450  0.0891
  979W        W43892  15.231  10.930  20.934 -0.3058  0.3634 -0.1951
  980W        W43893  30.031  11.837  24.012  0.0988  0.0698  0.0341
  981W        W43894  18.659  31.637  15.832 -0.1615 -0.0763 -0.2522
  982W        W43895  25.207  14.231  20.207  0.1403  0.0564 -0.0233
  983W        W43896  30.984  29.720  19.686 -0.1120  0.0796  0.0564
  984W        W43897  32.827   5.427   2.947  0.1050 -0.0174  0.2400
  985W        W43898  20.245   0.348   1.451  0.4157 -0.0996 -0.2621
  986W        W43899  17.965   1.347   2.695  0.2112  0.0588 -0.0123
  987W        W43900  16.178   2.945  19.729  0.0857  0.4015 -0.2076
  988W        W43901  31.888   0.341  27.685  0.2980 -0.1090 -0.2883
  989W        W43902  22.729   3.745  25.341 -0.1021  0.2555  0.0571
  990W        W43903  16.765   9.203  21.360 -0.0232  0.1757 -0.2106
  991W        W43904  29.541   3.676  24.231  0.0162  0.0048  0.0280
  992W        W43905  21.123  28.632  24.892  0.1554  0.3327  0.4415
  993W        W43906  32.190   4.230  29.359  0.1099 -0.0132 -0.1368
  994W        W43907  19.521   6.595   0.875 -0.1550  0.1629 -0.1935
  995W        W43908  24.703  31.912  17.122 -0.2946  0.0578  0.1153
  996W        W43909  18.903   8.729  20.813  0.1493 -0.1632 -0.0482
  997W        W43910  23.884  26.804  13.999 -0.0302 -0.0996  0.1396
  998W        W43911  25.236   5.360  17.516 -0.0615  0.0394 -0.1336
  999W        W43912  11.987  32.092  24.932 -0.1813 -0.0893 -0.1211
 1000W        W43913  28.636  10.570  17.922  0.2806  0.2877  0.1684
 1001W        W43914  14.429  28.771  22.740 -0.2811 -0.0582 -0.0037
 1002W        W43915  10.395   1.974  29.393  0.3258 -0.3958  0.0221
 1003W        W43916  26.685   6.025  18.523  0.0861 -0.1370  0.1660
 1004W        W43917   1.626   1.533  20.768  0.0303 -0.0485  0.0596
 1005W        W43918  18.554   5.950  24.107 -0.1624  0.2948  0.0545
 1006W        W43919  24.956  33.886  25.239  0.2194  0.0331  0.0807
 1007W        W43920  30.856  32.954  21.304  0.0807  0.3911  0.4387
 1008W        W43921  24.908  32.975  17.934  0.1881  0.0290 -0.0162
 1009W        W43922  18.859   2.017  27.808 -0.3797  0.1657 -0.0351
 1010W        W43923   3.921   8.075   2.530 -0.0309 -0.2666 -0.1755
 1011W        W43924  22.975   6.797   5.335  0.3363  0.1744 -0.0087
 1012W        W43925  19.366   5.829  23.123  0.1349 -0.2466 -0.1046
 1013W        W43926  27.129  12.006  23.907  0.4366 -0.1469 -0.1393
 1014W        W43927  24.376  15.406  19.458 -0.4978 -0.0611 -0.1803
 1015W        W43928  20.787   1.931  14.151 -0.2668  0.1205  0.0767
 1016W        W43929   4.703   6.190   2.831  0.1231  0.0524 -0.0384
 1017W        W43930  22.171   1.837  22.757  0.0174  0.3044  0.0381
 1018W        W43931  18.800   8.192   0.754 -0.1781 -0.0486  0.2445
 1019W        W43932  24.839  27.630  22.159  0.2146 -0.1956 -0.0220
 1020W        W43933  17.407  11.033  28.004 -0.0026  0.0023  0.1249
 1021W        W43934  15.696   8.069  22.624  0.1625 -0.1020  0.1360
 1022W        W43935  18.554  11.802  15.312  0.2229  0.4584  0.3151
 1023W        W43936  23.869  12.537  15.764  0.1021  0.0805 -0.1494
 1024W        W43937  29.717  33.116  16.410 -0.1693 -0.0926 -0.2011
 1025W        W43938  17.170   0.707  23.903  0.0778 -0.0001 -0.0408
 1026W        W43939  14.136  32.981  26.232  0.0353 -0.2278  0.0913
 1027W        W43940  13.204   2.215  21.637  0.2215 -0.0754 -0.2585
 1028W        W43941  17.468  33.910   2.263  0.1276  0.2399 -0.0220
 1029W        W43942  31.341  19.901  20.754  0.1607  0.2510 -0.0680
 1030W        W43943   2.994  20.659  25.511  0.2767 -0.1689 -0.0807
 1031W        W43944  27.261  29.483   2.671  0.0723  0.0096  0.0155
 1032W        W43945  17.574   1.889  21.486  0.4499  0.1131 -0.0263
 1033W        W43946   0.478  26.140  21.128  0.2360 -0.1553 -0.0048
 1034W        W43947  23.699   8.085  15.889 -0.2299 -0.0754  0.2487
 1035W        W43948  21.988   7.448  16.316  0.1526  0.1073  0.1435
 1036W        W43949  20.392   8.776  24.332 -0.0164 -0.1233 -0.1948
 1037W        W43950  33.701   6.138   0.503  0.0524  0.0496 -0.0336
 1038W        W43951  24.650  33.420  26.246  0.2399 -0.1303  0.2443
 1039W        W43952  27.869  33.449  23.188 -0.1308 -0.2809  0.2514
 1040W        W43953  19.686   2.739  24.034  0.2421 -0.0056 -0.1424
 1041W        W43954  32.145   6.174  19.121  0.3668  0.0870 -0.0195
 1042W        W43955  27.503  12.247   2.181  0.0577  0.2682  0.0285
 1043W        W43956  27.655  10.464  17.465  0.0619  0.1819 -0.1779
 1044W        W43957  29.979   7.274  18.472  0.0818  0.0662  0.1582
 1045W        W43958  29.572   1.398  28.717  0.0197  0.1859  0.1780
 1046W        W43959  30.843  16.677  25.883 -0.2614 -0.0444 -0.1020
 1047W        W43960  21.671   2.302  25.802 -0.0354  0.0084 -0.0256
 1048W        W43961  28.250   3.462  21.962 -0.3256  0.0640 -0.0075
 1049W        W43962  25.014   0.943  24.236  0.2610  0.2016 -0.2353
 1050W        W43963  17.568  10.864  24.662  0.1547 -0.2761 -0.0024
 1051W        W43964  22.957   7.074  27.317 -0.0891  0.0603  0.0311
 1052W        W43965  17.729  11.683  21.065  0.0745 -0.2214 -0.0398
 1053W        W43966  16.451   5.313   4.078 -0.1091  0.0108 -0.0610
 1054W        W43967  33.685  16.359  25.702  0.3130 -0.0209  0.3527
 1055W        W43968  30.444   3.681  21.863  0.0328  0.1596 -0.1821
 1056W        W43969  18.434  33.639  21.257 -0.1895  0.0581  0.2866
 1057W        W43970  22.057   3.033  23.258 -0.0456 -0.0615  0.1986
 1058W        W43971  25.862   4.916  26.841 -0.0069  0.0230 -0.2053
 1059W        W43972  21.356  29.308  17.664 -0.0995 -0.0782  0.0191
 1060W        W43973  15.515  11.438  25.713  0.0668  0.0800  0.1687
 1061W        W43974  19.244   0.637   9.043  0.2268 -0.3206 -0.1885
 1062W        W43975  18.938   2.065   3.409  0.1595  0.0286  0.4216
 1063W        W43976  23.435   9.033  14.486  0.0610 -0.1268 -0.0878
 1064W        W43977  18.516   0.686  24.069  0.1717 -0.0803 -0.0805
 1065W        W43978  11.370   0.285  21.492  0.3240  0.2073  0.1637
 1066W        W43979  18.422   3.399   1.619 -0.0977 -0.0403  0.0341
 1067W        W43980  14.560  10.712  23.361  0.1490  0.1634  0.1954
 1068W        W43981  26.792   9.063  14.258  0.0583  0.1693  0.1338
 1069W        W43982  19.042   5.674  14.417  0.1125  0.1856  0.1333
 1070W        W43983  16.658  32.420  17.507  0.0115 -0.0821  0.2165
 1071W        W43984  20.776  10.554  21.624 -0.1456 -0.1482 -0.1103
 1072W        W43985  25.507   4.647   3.394 -0.2442 -0.2035  0.1442
 1073W        W43986  19.511   0.092  23.172 -0.0632  0.1357 -0.1137
 1074W        W43987  23.691  33.868  17.800 -0.0647  0.0464  0.1885
 1075W        W43988  23.519  29.118  25.449  0.1544  0.2011  0.0180
 1076W        W43989  25.143   9.243  21.098 -0.0981 -0.2104  0.3390
 1077W        W43990  20.032  33.033  24.850 -0.1377 -0.1305 -0.0663
 1078W        W43991  21.981  20.098  28.353  0.0280  0.0505  0.0925
 1079W        W43992  10.420   7.460  25.732  0.0173 -0.4997  0.0355
 1080W        W43993  19.947   1.970   3.486  0.0009 -0.2982 -0.1989
 1081W        W43994  30.021   8.038  18.251 -0.0858 -0.1679  0.0817
 1082W        W43995  21.561  12.219  23.733  0.0258 -0.0875 -0.0160
 1083W        W43996  22.638   2.328  20.990 -0.2241  0.1807  0.0294
 1084W        W43997  29.544   4.735  16.365 -0.0500 -0.0044 -0.1201
 1085W        W43998  34.048   6.617  21.224 -0.0949  0.1059 -0.1283
 1086W        W43999  21.606  20.117  26.547 -0.2146  0.1831  0.0932
 1087W        W44000  18.783   0.423  16.662  0.0845  0.0005  0.1166
 1088W        W44001  12.315   8.158  26.800  0.0054 -0.0624 -0.0628
 1089W        W44002  18.469   2.531  25.949  0.2342 -0.0212 -0.0061
 1090W        W44003  28.631  18.349  22.336  0.3070  0.0762 -0.0054
 1091W        W44004   7.441   0.654   4.056 -0.2377  0.2249 -0.5172
 1092W        W44005  26.607  33.993  23.191 -0.1454  0.0017  0.4336
 1093W        W44006  30.374  13.506  22.695  0.0135 -0.2141  0.1054
 1094W        W44007  20.264   0.636  21.270 -0.0154 -0.1078  0.2146
 1095W        W44008  11.521  12.354  22.993  0.1813 -0.1454  0.1548
 1096W        W44009  19.380   5.524   0.390 -0.2290  0.0573  0.0077
 1097W        W44010  18.716   1.408  22.356 -0.4861  0.0175  0.0035
 1098W        W44011  21.957  10.016  16.816 -0.0672 -0.1810 -0.0832
 1099W        W44012  21.024   3.884  29.058 -0.2692 -0.0247  0.0971
 1100W        W44013  23.855  32.674  29.593 -0.1919 -0.0819 -0.1195
 1101W        W44014  15.514   4.344  19.627  0.0468  0.2762 -0.0753
 1102W        W44015  32.343   9.735   2.482  0.0591 -0.3546 -0.1759
 1103W        W44016  13.620   6.347  26.400  0.0025 -0.1263  0.1300
 1104W        W44017  25.022  33.826  14.569 -0.0500  0.3230  0.0997
 1105W        W44018  23.180   5.682  20.506  0.0296  0.1439  0.1870
 1106W        W44019  15.673  27.371  16.227  0.0433 -0.0207 -0.2404
 1107W        W44020  18.087  11.672  23.954  0.2669  0.0507 -0.1689
 1108W        W44021  20.620   6.061  16.860 -0.0283 -0.1542  0.1032
 1109W        W44022   7.245  16.992   2.699  0.0953  0.1093 -0.6119
 1110W        W44023  28.883   7.524  19.421  0.2935  0.1685 -0.0052
 1111W        W44024  26.922   3.658  18.385  0.2892  0.2607  0.3178
 1112W        W44025  20.000   2.950  19.590  0.1277 -0.1810 -0.0664
 1113W        W44026  23.614   2.095   1.951  0.2025  0.0266 -0.6629
 1114W        W44027  27.510  33.148   4.194  0.2032  0.0416 -0.1291
 1115W        W44028  27.867  34.051  27.886  0.0850 -0.2715 -0.0199
 1116W        W44029  31.287  14.111  21.534 -0.3391 -0.0448 -0.1782
 1117W        W44030  30.412   9.784  24.401  0.0545  0.1483  0.2678
 1118W        W44031  23.928  24.584  25.661  0.0960 -0.0391 -0.1602
 1119W        W44032  30.150   8.504  18.450  0.1341 -0.0201  0.1377
 1120W        W44033  24.032   8.804  16.631 -0.1068  0.1449 -0.2215
 1121W        W44034  32.650  28.153  29.146 -0.2688  0.3332 -0.0233
 1122W        W44035   4.672   1.073  17.536  0.0604  0.0019  0.1118
 1123W        W44036  32.353   5.157  16.698 -0.0532 -0.0929 -0.0819
 1124W        W44037  32.097  33.795  27.829 -0.3954 -0.0164 -0.2295
 1125W        W44038  33.528   5.572  23.175  0.4406  0.0792 -0.2291
 1126W        W44039  19.171  28.166  25.485 -0.0774 -0.1782 -0.3177
 1127W        W44040  21.681   3.268  29.390 -0.1212  0.0829 -0.2314
 1128W        W44041  20.339  32.704  26.767  0.1280  0.0669 -0.1608
 1129W        W44042  23.987  13.223  13.267  0.2178 -0.1168  0.1602
 1130W        W44043  17.809   4.128   9.572 -0.2238 -0.5854 -0.2042
 1131W        W44044  20.877   7.654  23.026 -0.2125  0.2102 -0.2221
 1132W        W44045  18.253   0.608   1.047  0.3627  0.0790  0.1509
 1133W        W44046   4.247  31.349  16.997  0.2766 -0.0610  0.0603
 1134W        W44047  24.539   5.869  16.916  0.0419 -0.0444 -0.0014
 1135W        W44048  12.579   4.472   1.483 -0.1933  0.0618  0.0509
 1136W        W44049  21.017  11.230  22.283 -0.1303  0.0873  0.1159
 1137W        W44050  19.437   3.005  23.627 -0.0069 -0.1742 -0.1820
 1138W        W44051  23.077  10.792  20.661  0.0362 -0.0305 -0.1383
 1139W        W44052  20.979  33.715  23.549  0.4975 -0.0986 -0.0250
 1140W        W44053  18.048  31.834   4.482 -0.0802  0.0590  0.1078
 1141W        W44054  11.065  32.329  22.169 -0.0055 -0.3173 -0.0936
 1142W        W44055  22.612  32.286  18.533  0.1497  0.5031  0.2356
 1143W        W44056   9.148   2.671  21.020 -0.1945 -0.1302  0.0861
 1144W        W44057  12.991  12.372  23.372  0.2655  0.1273  0.3728
 1145W        W44058  14.557   1.506   5.873  0.0098 -0.1810  0.0269
 1146W        W44059   9.938  32.724   4.684  0.2947  0.2913 -0.2652
 1147W        W44060  28.472  14.920  18.789  0.0978  0.1975 -0.1466
 1148W        W44061  26.496  34.340  21.345 -0.0436  0.1427 -0.1225
 1149W        W44062  31.518   0.664  26.381  0.2726 -0.0782 -0.1041
 1150W        W44063  10.740  16.791  14.682  0.3962  0.3182 -0.0624
 1151W        W44064  27.506  28.079  28.778  0.1066  0.0258 -0.1580
 1152W        W44065  22.157   6.654   5.377 -0.0384  0.4818 -0.1360
 1153W        W44066  24.812   7.907  15.777 -0.1640  0.0756 -0.0048
 1154W        W44067  21.164   3.245  16.793  0.2209  0.2147 -0.3309
 1155W        W44068   5.489  20.390  18.194 -0.2798 -0.2757 -0.0961
 1156W        W44069  27.551   9.450  16.596 -0.0052 -0.0417  0.5416
 1157W        W44070  11.196   5.727   4.838  0.2172 -0.0632  0.0462
 1158W        W44071   6.622   1.779  27.587 -0.0171  0.2552  0.1118
 1159W        W44072  27.804  32.574  26.481 -0.1723 -0.0626 -0.1709
 1160W        W44073  19.202   0.813  17.305 -0.1479 -0.0108 -0.0727
 1161W        W44074  23.179  28.592  26.689 -0.1997 -0.1679  0.0437
 1162W        W44075   9.787  15.788  28.051 -0.2107  0.0147  0.1605
 1163W        W44076  18.112   5.605   1.101  0.1279  0.0024  0.1045
 1164W        W44077  20.323  16.411  13.857  0.0670 -0.1286 -0.2002
 1165W        W44078  17.820  12.925  19.964 -0.0242  0.0147  0.1522
 1166W        W44079  14.315   4.100  15.977  0.1997  0.1094 -0.0689
 1167W        W44080  25.516   6.567  14.484  0.3062  0.1867 -0.0963
 1168W        W44081  21.038   9.412  24.785  0.2320 -0.3832 -0.5195
 1169W        W44082  19.918   8.866  28.812  0.3162  0.0308  0.2586
 1170W        W44083  29.431  33.649  15.578 -0.0633 -0.0900 -0.0235
 1171W        W44084  20.090   8.316  23.517 -0.2598  0.0203  0.0804
 1172W        W44085  21.918  11.723  26.514 -0.2211  0.0104  0.2413
 1173W        W44086  23.168  32.755  19.782  0.2045  0.4042  0.1412
 1174W        W44087  23.569  15.694  15.949  0.1098 -0.0312  0.2549
 1175W        W44088   9.430  12.817  26.974  0.0233  0.2054  0.0740
 1176W        W44089  33.316  34.399  28.578  0.0802 -0.1915 -0.3839
 1177W        W44090  24.360  11.707  24.435 -0.0628  0.1868  0.0375
 1178W        W44091  25.436  11.297  22.584  0.1626  0.0453 -0.2259
 1179W        W44092  30.430  10.767  27.746 -0.0700 -0.1577  0.1721
 1180W        W44093  25.097  12.332  21.404  0.0963  0.0593  0.3678
 1181W        W44094  20.874   5.306  23.535 -0.2755 -0.0868  0.1849
 1182W        W44095  25.508   5.717   0.268 -0.0541  0.1720  0.1334
 1183W        W44096  11.797   3.232   3.974 -0.0288 -0.1175 -0.4735
 1184W        W44097  23.478   5.022  25.586  0.1207 -0.1059 -0.0070
 1185W        W44098  22.563   1.981  26.771  0.1324  0.0680  0.3889
 1186W        W44099   8.903  11.256  26.605 -0.2883 -0.0480 -0.0807
 1187W        W44100  25.411  13.816  23.115 -0.3662  0.1706  0.1223
 1188W        W44101  32.731   4.928  17.111  0.1030 -0.1904 -0.2370
 1189W        W44102  28.749   4.545  20.770 -0.0657  0.1549 -0.0182
 1190W        W44103  10.662   6.097  18.424 -0.4524  0.0680  0.4553
 1191W        W44104  25.253   8.988  18.422  0.2232 -0.4028 -0.6240
 1192W        W44105  22.550  32.779  27.602  0.0272  0.1697  0.0501
 1193W        W44106  18.977  34.427  16.514 -0.0584  0.3149 -0.2396
 1194W        W44107  20.701   9.984  23.977 -0.2376 -0.0144 -0.1466
 1195W        W44108  26.409  31.095  26.902  0.0655 -0.0482  0.0060
 1196W        W44109  15.866  13.181  19.906  0.1401  0.0766  0.0018
 1197W        W44110  33.666   0.652  22.585  0.0302  0.1007 -0.0026
 1198W        W44111  23.501   3.543  28.227 -0.1717  0.0381 -0.1043
 1199W        W44112  25.351   9.121  22.926  0.1167 -0.0456  0.1445
 1200W        W44113  24.201  32.650  25.915  0.3673 -0.0489  0.2272
 1201W        W44114   8.331  29.093  16.234  0.2398  0.0617  0.2893
 1202W        W44115  26.607   5.952  25.164 -0.0438 -0.3490  0.3174
 1203W        W44116  24.478   0.853  28.296 -0.4567 -0.1470  0.3138
 1204W        W44117  26.059   9.031  27.639  0.1731  0.1767  0.1089
 1205W        W44118  15.490   6.609  21.521 -0.1524 -0.0169 -0.2397
 1206W        W44119  26.711   1.195  27.735 -0.0902 -0.1716 -0.0910
 1207W        W44120  27.236  32.752   3.282 -0.1967  0.1585 -0.1119
 1208W        W44121  29.292  13.586  21.345 -0.1266  0.1014 -0.3747
 1209W        W44122  26.799   8.676  22.341  0.0494 -0.1076  0.4417
 1210W        W44123  20.209  11.760  16.476  0.2537 -0.0597  0.2219
 1211W        W44124  18.965  11.650  25.205  0.2650  0.0610 -0.1880
 1212W        W44125  22.685   8.885  17.224 -0.2178  0.1020  0.0269
 1213W        W44126  19.483  19.416   1.176 -0.3027  0.0772 -0.1041
 1214W        W44127  12.841   1.451  23.738  0.0723 -0.2972 -0.2223
 1215W        W44128  15.699   1.618  16.834  0.0306 -0.1069  0.0134
 1216W        W44129  25.290   9.821  28.694 -0.0693 -0.2032  0.3277
 1217W        W44130  18.472  28.415   1.589 -0.0772  0.0859  0.0183
 1218W        W44131  27.138  30.571   6.790 -0.1870 -0.0180 -0.2279
 1219W        W44132  18.853   2.319  24.046  0.2929 -0.1438  0.0084
 1220W        W44133  15.712   1.600  15.797 -0.0768  0.3347  0.0867
 1221W        W44134  29.455  29.411   1.957  0.0486 -0.1672 -0.1953
 1222W        W44135  12.109  29.839  24.002 -0.0019  0.0858 -0.0206
 1223W        W44136  25.104   8.679   3.243  0.2394 -0.2198 -0.0234
 1224W        W44137  26.178   4.591   0.379  0.0933  0.2732 -0.2154
 1225W        W44138  12.288  33.394   0.076  0.1952  0.2180 -0.2388
 1226W        W44139  23.139   0.683  14.188 -0.1279  0.0706  0.2026
 1227W        W44140  15.845  10.667  28.718 -0.1380 -0.0189 -0.1519
 1228W        W44141  29.891   9.440  17.452  0.1536 -0.5141  0.0400
 1229W        W44142  15.635   3.558   1.598  0.0878 -0.2395 -0.2813
 1230W        W44143  29.661   0.561  16.144 -0.1147 -0.3316  0.2295
 1231W        W44144  18.448   5.594  18.688 -0.0984  0.0902 -0.0718
 1232W        W44145  13.751  23.065  21.745 -0.2037  0.2000  0.1852
 1233W        W44146  29.321   7.638  19.200  0.0618 -0.1195 -0.4566
 1234W        W44147  23.146  13.506  25.374 -0.1804  0.1934  0.0320
 1235W        W44148  17.890   3.157   1.788 -0.0061 -0.1100 -0.2669
 1236W        W44149  24.639   0.359  15.697  0.1518  0.4590 -0.1373
 1237W        W44150  32.771   0.670  20.504 -0.1797  0.2664  0.0184
 1238W        W44151   7.864   4.614  28.764  0.0778  0.0264  0.1895
 1239W        W44152  28.407  33.127  20.401  0.0394  0.1169 -0.1577
 1240W        W44153  25.865   6.629  18.329 -0.1332  0.1496 -0.0640
 1241W        W44154  28.417  27.524  16.912  0.0491  0.0291 -0.3544
 1242W        W44155  18.195  16.711  24.076  0.0640  0.2823  0.0060
 1243W        W44156  15.723   1.385  25.490 -0.1229 -0.1231  0.0430
 1244W        W44157  27.018   8.956   5.551  0.1681  0.1435  0.0972
 1245W        W44158  32.839   3.913  28.279  0.0227  0.0297 -0.1969
 1246W        W44159   3.624   7.003  24.915  0.0473  0.0976  0.1598
 1247W        W44160  29.893  31.956  27.435 -0.1699  0.1539  0.2255
 1248W        W44161  21.323   7.261  24.169  0.1792  0.1089  0.1580
 1249W        W44162  31.701   8.015   0.044  0.2501  0.1261 -0.2358
 1250W        W44163  13.257   4.092  17.599 -0.0115  0.2610 -0.0648
 1251W        W44164  18.793  24.489  23.617  0.2207 -0.2028 -0.1329
 1252W        W44165  25.741   6.795  20.451 -0.0223 -0.1720 -0.0144
 1253W        W44166  17.618  30.990  14.686 -0.1193 -0.0931 -0.0477
 1254W        W44167  21.748   2.733  14.862 -0.0023  0.1514  0.1193
 1255W        W44168  32.132   7.942  16.915  0.2384 -0.4371  0.0030
 1256W        W44169  21.452  30.171  17.370  0.2649  0.1275  0.2388
 1257W        W44170  28.329   6.481   1.758  0.0088 -0.1073  0.4281
 1258W        W44171  21.279   0.190  23.637 -0.1249 -0.0927 -0.1326
 1259W        W44172  20.574   4.895  20.833  0.4352  0.0002 -0.2719
 1260W        W44173  24.238  11.187  24.004 -0.2205  0.0304 -0.0425
 1261W        W44174  23.072   9.039  13.826 -0.5283  0.1078  0.2968
 1262W        W44175  14.092  27.242  16.513 -0.1455  0.1502  0.0805
 1263W        W44176  23.978   9.427  18.962  0.0335  0.1532  0.0773
 1264W        W44177  24.922  34.114  18.092  0.4112  0.0832  0.0138
 1265W        W44178  15.727   2.578  21.452  0.1730  0.1445  0.1379
 1266W        W44179  24.222  31.907  18.866 -0.2716  0.2484 -0.1842
 1267W        W44180  27.057  10.429  21.184  0.0550  0.2673  0.2035
 1268W        W44181   6.539  12.024   0.782 -0.0556 -0.2340  0.1401
 1269W        W44182  24.614  32.773  22.282 -0.3437  0.2476  0.0173
 1270W        W44183  29.719  32.605  24.832  0.1056 -0.0246 -0.3698
 1271W        W44184  20.462  15.106   0.809 -0.1233  0.1444 -0.1051
 1272W        W44185  22.803  23.297  19.333 -0.1289  0.2183  0.1205
 1273W        W44186  19.343   0.434  22.243  0.0055  0.1019 -0.1022
 1274W        W44187  27.535  24.925  23.842  0.1455 -0.1428  0.1927
 1275W        W44188  30.574   6.353  23.959 -0.0267  0.4184 -0.1794
 1276W        W44189  17.861  30.186  28.433  0.0070  0.2824 -0.0117
 1277W        W44190  27.306   6.839  20.777  0.3508  0.1493  0.1176
 1278W        W44191  22.105  10.344  15.928 -0.2662  0.0567  0.0845
 1279W        W44192  17.609   8.253  26.534 -0.0105  0.1468  0.3009
 1280W        W44193  23.093  14.726  27.143  0.2460 -0.2017  0.3763
 1281W        W44194  17.175   9.069  21.109  0.1609 -0.1353  0.4301
 1282W        W44195  27.889   3.942  22.960  0.0622  0.2936  0.0297
 1283W        W44196  22.534  33.855  28.689 -0.2884  0.1635 -0.0273
 1284W        W44197  21.669   1.032  23.868  0.0264 -0.0361  0.4670
 1285W        W44198  12.607  12.134   3.963 -0.3151  0.2647  0.2600
 1286W        W44199  20.820   4.575  20.474  0.0599  0.3014  0.0010
 1287W        W44200  11.920  33.801  27.223 -0.1807 -0.0609 -0.0512
 1288W        W44201   4.067   8.341  25.997 -0.0610  0.2375  0.0415
 1289W        W44202  28.849  15.471  25.036  0.0462  0.0925  0.0839
 1290W        W44203  25.231   1.584  19.055 -0.0092  0.0261 -0.3367
 1291W        W44204  15.185  33.813  28.134 -0.0262  0.1103 -0.3587
 1292W        W44205  26.077  19.649  28.183 -0.0325  0.0110  0.1083
 1293W        W44206  23.696  33.655  19.522 -0.1722  0.0827 -0.2334
 1294W        W44207  21.141  31.929  21.284 -0.1280  0.0840 -0.5433
 1295W        W44208  27.315   7.804  26.103 -0.0601 -0.0250  0.0928
 1296W        W44209  21.177  30.007  22.639  0.3463 -0.0138  0.4818
 1297W        W44210  31.116  31.975  27.066 -0.2076  0.1103 -0.3774
 1298W        W44211  27.909   2.048  24.757 -0.3654 -0.0733 -0.2838
 1299W        W44212  25.023  31.742  22.375 -0.0375  0.2785 -0.1429
 1300W        W44213  16.081  10.730  24.311  0.1365  0.1182 -0.2634
 1301W        W44214   8.088  13.851  22.506  0.0182 -0.0619  0.1137
 1302W        W44215   2.802   6.730  19.306  0.3122  0.0056  0.0593
 1303W        W44216  27.620   8.908  27.527  0.1619 -0.0735  0.1514
 1304W        W44217  26.785  23.959  26.157 -0.0051  0.0260 -0.0339
 1305W        W44218  25.839  18.798  24.814 -0.4671 -0.1022 -0.1754
 1306W        W44219  12.036   1.814  25.941  0.0538 -0.0436  0.0390
 1307W        W44220  19.282  31.483  22.790  0.0854 -0.2156  0.0973
 1308W        W44221  12.218   7.464  28.325 -0.0245 -0.3215 -0.1298
 1309W        W44222  16.876  29.745  23.116 -0.0947  0.0686  0.1204
 1310W        W44223  20.814   3.183   1.596 -0.0172 -0.3510  0.0364
 1311W        W44224  24.476   8.107   2.851  0.1019 -0.2652 -0.2568
 1312W        W44225  22.655  15.062  28.343 -0.2457 -0.0089 -0.0845
 1313W        W44226  26.409   1.220  24.059 -0.4801  0.0762 -0.0465
 1314W        W44227  29.540  34.392  18.233  0.0808  0.0642 -0.2707
 1315W        W44228  20.590   7.797   3.608  0.0360  0.0984 -0.0351
 1316W        W44229  18.281  11.847  22.726 -0.1336 -0.0002 -0.2286
 1317W        W44230  19.555   6.791   1.338  0.0432 -0.2794 -0.0024
 1318W        W44231  29.207   1.849  18.473 -0.0719 -0.1050  0.0528
 1319W        W44232  32.474   3.597   3.170  0.1988 -0.0922 -0.2089
 1320W        W44233  23.099  14.293  25.257  0.2975  0.1414 -0.1086
 1321W        W44234  17.342  30.149  23.520  0.1189 -0.0423 -0.0982
 1322W        W44235  25.505  13.926  28.858 -0.1243  0.0696  0.2058
 1323W        W44236  16.686   2.748  26.617  0.3918 -0.0273  0.1542
 1324W        W44237  12.215  29.982  29.405 -0.3065  0.1805 -0.2389
 1325W        W44238  17.176   4.888   0.588  0.0549 -0.0850 -0.4317
 1326W        W44239  19.859  32.680   0.733 -0.0730  0.3788  0.0930
 1327W        W44240  21.697   0.468  19.686  0.1457  0.3282 -0.1301
 1328W        W44241  27.491   0.957  28.959 -0.0736  0.0676 -0.0122
 1329W        W44242  24.423  13.192   5.485 -0.1362  0.1461  0.3771
 1330W        W44243  30.007   5.011   8.177 -0.0649 -0.0650 -0.0036
 1331W        W44244  21.695  16.299  28.319  0.0673 -0.3072 -0.2499
 1332W        W44245  24.618   5.981   2.043  0.1171 -0.2675 -0.0720
 1333W        W44246  15.918  14.410   0.220 -0.0526  0.0939  0.2350
 1334W        W44247  31.773   3.014   9.692 -0.0217  0.0429  0.0941
 1335W        W44248  20.022   5.289  26.546  0.0425 -0.1631 -0.2515
 1336W        W44249  15.105   9.805   8.589  0.0638  0.1328 -0.2228
 1337W        W44250  24.736   7.013  26.157 -0.1552 -0.1356  0.2040
 1338W        W44251  27.949   9.082   5.467  0.0294  0.0773  0.2505
 1339W        W44252  21.763   3.327  18.557  0.0344 -0.3877  0.0943
 1340W        W44253  25.114   4.481   1.162  0.4610 -0.0394  0.1148
 1341W        W44254  28.270   4.031   3.496  0.1016  0.2633 -0.2172
 1342W        W44255  18.713   9.293  25.886 -0.2602  0.0806 -0.1581
 1343W        W44256  23.417  11.984  29.184 -0.1292  0.1841  0.3115
 1344W        W44257  24.036   0.932   6.609 -0.1243 -0.2788 -0.0912
 1345W        W44258  30.384  32.288  28.665 -0.0832  0.2061  0.1051
 1346W        W44259  19.350   9.406  20.995 -0.0025 -0.3476  0.0038
 1347W        W44260  28.183  12.380  27.672 -0.0158 -0.3009 -0.0889
 1348W        W44261  26.325   7.328  27.356 -0.0425  0.0212  0.2194
 1349W        W44262  26.760   3.106  26.086  0.0092 -0.3619  0.0599
 1350W        W44263   6.779   8.949  19.521 -0.1193  0.3944  0.1450
 1351W        W44264  25.320   8.766  25.876  0.0472 -0.1647  0.1220
 1352W        W44265  18.537   0.608  29.771  0.1110  0.1649 -0.1669
 1353W        W44266  26.807   2.977   9.426  0.0837 -0.1524  0.0889
 1354W        W44267  23.567  28.458  23.416 -0.1525 -0.0131  0.0025
 1355W        W44268  17.801   9.220  23.912  0.1319 -0.2582  0.2554
 1356W        W44269  17.136   9.812  22.388 -0.2799 -0.0912  0.1707
 1357W        W44270  23.893   0.683  24.246 -0.0038 -0.4172 -0.2068
 1358W        W44271  23.423  18.779  27.553  0.0888 -0.0279  0.0776
 1359W        W44272  16.723  31.224  28.848  0.0562 -0.0486 -0.0303
 1360W        W44273  18.435   0.483   3.996 -0.0920 -0.1999  0.0728
 1361W        W44274  20.694  33.210  26.726 -0.0063 -0.2285 -0.1476
 1362W        W44275  19.170   6.779  25.080  0.0705  0.0386  0.0321
 1363W        W44276  25.787   2.682   3.339 -0.1127 -0.0302 -0.3710
 1364W        W44277   6.607   6.334  27.866 -0.2138 -0.1753 -0.0742
 1365W        W44278  25.105  32.892  21.925 -0.0302  0.1307 -0.0659
 1366W        W44279  20.932   4.299   1.105 -0.3276  0.1880  0.1307
 1367W        W44280  27.677   2.341   7.573 -0.0868 -0.0468  0.1414
 1368W        W44281  11.343   0.779   0.265 -0.1155 -0.1161  0.1945
 1369W        W44282  24.963  34.255   0.466  0.0891  0.1363 -0.0345
 1370W        W44283  24.597  18.151  28.784 -0.0412  0.0537 -0.1103
 1371W        W44284  21.843   8.754  25.960 -0.3226 -0.1314 -0.2282
 1372W        W44285  23.603  10.652   0.198  0.3162 -0.0135 -0.2501
 1373W        W44286  20.619  13.042  14.273 -0.1864 -0.2619  0.2070
 1374W        W44287  21.792   5.972   0.494  0.0250  0.0502 -0.0854
 1375W        W44288  20.860   1.151  28.963 -0.0435 -0.1988  0.0583
 1376W        W44289   2.286   3.124  20.181  0.1808  0.0048  0.0585
 1377W        W44290  23.462   7.022  28.747 -0.0848  0.0649  0.0101
 1378W        W44291  15.107  31.361  21.749 -0.3420  0.1671  0.0299
 1379W        W44292  22.786   5.611   0.963 -0.2695  0.1477 -0.1332
 1380W        W44293  25.454  10.016  29.107 -0.2657  0.0219  0.1014
 1381W        W44294  15.790   4.560   1.204 -0.2743  0.0383  0.0719
 1382W        W44295  27.914  15.322  26.350  0.2055  0.0626 -0.1321
 1383W        W44296  19.962   0.863  21.593 -0.3916 -0.3826  0.0576
 1384W        W44297  28.043  15.132  20.405  0.2786  0.0963  0.0925
 1385W        W44298  16.399   2.645  25.516 -0.1859 -0.1267  0.0499
 1386W        W44299  20.667  15.081  29.661 -0.0076  0.0880  0.3156
 1387W        W44300  25.140   2.655   4.155  0.2606  0.2125 -0.1885
 1388W        W44301  23.800   0.651  21.163  0.1476 -0.0748 -0.1247
 1389W        W44302  24.309   6.919   3.172  0.0505  0.1955  0.0813
 1390W        W44303  27.566   1.554  24.026 -0.2253  0.1936  0.2230
 1391W        W44304  23.913  30.928  19.160  0.4437  0.1082 -0.2702
 1392W        W44305  28.769  10.917  26.361 -0.2373  0.3425 -0.1281
 1393W        W44306  18.702   3.023  26.403 -0.1097  0.0696 -0.4661
 1394W        W44307  24.206   5.897  23.301  0.0285  0.1913  0.0341
 1395W        W44308  23.382  18.010  26.264  0.0805 -0.2055 -0.1429
 1396W        W44309   0.290  14.821  28.076  0.2259 -0.2787  0.2624
 1397W        W44310  22.139  30.613  24.787 -0.0681 -0.0896  0.0201
 1398W        W44311  19.664   8.845  27.877 -0.0756  0.1024  0.7101
 1399W        W44312  26.572  32.078  28.688 -0.2652 -0.0681 -0.0139
 1400W        W44313   3.454   9.560   2.266 -0.0822 -0.2601 -0.0019
 1401W        W44314  20.387  27.560  23.630 -0.0127  0.1789  0.2918
 1402W        W44315  24.896   6.932  29.708 -0.0532 -0.0208  0.3678
 1403W        W44316  26.097   6.325   3.832 -0.0742 -0.0051  0.0085
 1404W        W44317  25.274   9.656  23.155 -0.0379 -0.0832  0.3128
 1405W        W44318  27.569  17.676   2.437  0.3194  0.0269  0.0306
 1406W        W44319  18.372  13.534   2.390 -0.0589  0.0797 -0.0029
 1407W        W44320  20.959  29.244  27.612  0.0568 -0.1366 -0.1701
 1408W        W44321  25.272  33.881   3.117  0.1244 -0.0164 -0.1745
 1409W        W44322  19.400  28.769  26.651  0.1809 -0.1478  0.2493
 1410W        W44323  26.891  34.359   3.397 -0.0829  0.1529 -0.3198
 1411W        W44324  19.212  28.935  29.443  0.2021 -0.2577  0.0127
 1412W        W44325  24.635   1.308  29.147 -0.2992  0.2085 -0.0678
 1413W        W44326  29.045   7.315   0.063 -0.0881  0.4467  0.2025
 1414W        W44327  10.449  17.486  27.514  0.2676  0.0357 -0.2684
 1415W        W44328  18.501  32.118  16.202 -0.1936  0.0201 -0.1126
 1416W        W44329  31.666  32.948   6.802  0.0869  0.0413  0.0418
 1417W        W44330  34.300  13.354  29.629  0.2668  0.2845  0.1365
 1418W        W44331  19.723   1.223   8.448  0.1087 -0.2049 -0.0260
 1419W        W44332  28.959   3.131  16.991 -0.0015  0.1499 -0.1089
 1420W        W44333  33.057   6.822  22.718 -0.2620  0.0362 -0.1439
 1421W        W44334  20.664   3.869   4.526 -0.0561  0.1010  0.1717
 1422W        W44335  29.734   4.682  26.865 -0.1845  0.0815 -0.1247
 1423W        W44336  24.501  10.957   7.890 -0.2638  0.0870  0.0978
 1424W        W44337  27.515  29.937  20.436 -0.1571  0.1608 -0.0725
 1425W        W44338  30.528   4.022  18.288 -0.2091  0.3022 -0.0081
 1426W        W44339  21.723  28.632   2.813 -0.0789 -0.3300  0.0317
 1427W        W44340  22.079  15.287   2.362 -0.4375 -0.0422 -0.1332
 1428W        W44341  23.941   6.557  24.456 -0.0666 -0.4317  0.0253
 1429W        W44342  19.995  17.937  14.790 -0.1964 -0.1714 -0.0583
 1430W        W44343  18.192  17.134  29.749  0.2159  0.1019 -0.1582
 1431W        W44344  10.280   1.915  21.216  0.3090 -0.2498  0.3057
 1432W        W44345  20.670  34.121  23.548 -0.1949  0.0381  0.1202
 1433W        W44346  30.263  10.129   0.093 -0.0079  0.5263 -0.0388
 1434W        W44347  19.681   7.866  29.708  0.0704  0.0904 -0.0528
 1435W        W44348   4.330   8.389   6.252  0.1647  0.0155  0.2114
 1436W        W44349  18.803  32.483  29.445 -0.2183 -0.0076  0.0372
 1437W        W44350  31.019   1.967  29.238 -0.1938 -0.0074  0.0902
 1438W        W44351  33.849  12.377  22.364 -0.1697  0.0334 -0.2771
 1439W        W44352  22.694   3.585   6.510 -0.0449 -0.2287 -0.3316
 1440W        W44353  12.717   3.478  27.486 -0.0658  0.0552 -0.1254
 1441W        W44354   2.027  19.092  19.306  0.0873 -0.1802 -0.1644
 1442W        W44355  25.743  16.817  27.942  0.1926  0.1964 -0.0527
 1443W        W44356  32.771  11.712   6.354  0.0253  0.2405  0.1556
 1444W        W44357  28.417  30.378  24.044  0.4431  0.1638  0.0843
 1445W        W44358  22.445   1.014  28.336  0.1131 -0.0644  0.2726
 1446W        W44359  24.597  10.008   7.590 -0.2746  0.4547 -0.1032
 1447W        W44360  24.779   5.786  17.384  0.0201 -0.0560 -0.0807
 1448W        W44361  22.209   5.473   2.589 -0.0669 -0.1543 -0.2671
 1449W        W44362  14.949   6.638  20.246 -0.0797 -0.1079  0.2907
 1450W        W44363  21.622   3.109  19.413  0.1931  0.0642  0.0222
 1451W        W44364  29.417   8.241   3.713 -0.1620  0.2598 -0.0357
 1452W        W44365  19.674  21.710  16.207  0.0085 -0.0043  0.2030
 1453W        W44366  19.002   6.504   4.017 -0.0917  0.2160  0.2663
 1454W        W44367  25.357  14.386  24.492 -0.1394  0.4167  0.0200
 1455W        W44368  25.554  14.783   2.609 -0.1077 -0.2933  0.4160
 1456W        W44369  23.057   4.547   7.259 -0.3346  0.1902 -0.2657
 1457W        W44370  29.679  15.203   4.308 -0.1137 -0.2339  0.0469
 1458W        W44371  23.856   6.683  26.887  0.3094  0.2879  0.1626
 1459W        W44372  29.074   8.585   9.738 -0.0488  0.2342  0.1183
 1460W        W44373  22.953  32.553   3.030 -0.0139  0.2959  0.1197
 1461W        W44374  20.537   4.156   0.499 -0.1651  0.0620 -0.3125
 1462W        W44375  17.236   5.786  25.504 -0.2302  0.1577  0.1654
 1463W        W44376  29.981  32.094  20.850 -0.1738 -0.2296  0.0342
 1464W        W44377  15.611   5.480   7.025  0.2289 -0.1700 -0.0218
 1465W        W44378   8.622  28.321  19.975 -0.1768 -0.2138 -0.1779
 1466W        W44379  20.197   4.652  28.229 -0.0025  0.0568 -0.3159
 1467W        W44380  26.828  33.826   9.704  0.0208 -0.0763  0.0272
 1468W        W44381  21.982   1.822   6.871 -0.0236 -0.1697 -0.0998
 1469W        W44382  32.805  19.413   4.779 -0.0276  0.3007  0.4227
 1470W        W44383  15.899   9.080  22.148  0.2979 -0.0321 -0.0322
 1471W        W44384  20.191  29.743  24.775 -0.2802  0.0708 -0.2055
 1472W        W44385  24.510   0.590   6.210 -0.1140 -0.1918 -0.1094
 1473W        W44386  21.986  31.634  23.622 -0.0569  0.2358 -0.0597
 1474W        W44387  23.495  15.273  24.148 -0.0234  0.2735 -0.2972
 1475W        W44388  27.183   4.514   4.853  0.1641 -0.1252 -0.2591
 1476W        W44389  27.329  29.794   0.819 -0.0205 -0.1413 -0.0018
 1477W        W44390  23.123   6.158  28.363  0.3111  0.0705 -0.0809
 1478W        W44391  19.867   8.776   6.908  0.0648 -0.0760 -0.3349
 1479W        W44392  18.545   4.751  19.856 -0.1561 -0.1573  0.0033
 1480W        W44393  23.101  34.485  29.592 -0.1070  0.1083  0.1908
 1481W        W44394   9.429   1.231   3.194 -0.1818 -0.2317  0.1675
 1482W        W44395  33.023   5.242   6.002  0.3869 -0.2169  0.0015
 1483W        W44396  18.166   3.276   0.796  0.0691 -0.1369 -0.0374
 1484W        W44397  14.184  33.422  26.027 -0.0408  0.1759  0.0166
 1485W        W44398  20.801   9.034  22.936 -0.0343 -0.1358 -0.0435
 1486W        W44399  22.411  33.800   6.485  0.0435  0.2302 -0.2363
 1487W        W44400  17.461   3.667  29.439  0.2240  0.0727  0.2486
 1488W        W44401  19.258   5.233  22.349 -0.0699  0.1446 -0.1198
 1489W        W44402  20.409  12.061  26.909  0.3820  0.3266  0.0684
 1490W        W44403  23.381   8.150   3.763 -0.1762  0.0252  0.1503
 1491W        W44404  14.649   4.051   4.961 -0.3333 -0.1429  0.0394
 1492W        W44405  28.705   5.020  24.632  0.3956 -0.2080  0.0722
 1493W        W44406  13.753  33.161   3.777 -0.4394 -0.2501 -0.2755
 1494W        W44407  28.010   3.711   8.490  0.1260 -0.0663 -0.0196
 1495W        W44408  25.418  13.952  25.354 -0.1067 -0.1880  0.1041
 1496W        W44409  18.837   9.020  15.586 -0.1275  0.0082  0.1907
 1497W        W44410   5.944  12.948  10.237 -0.2182  0.2500 -0.1590
 1498W        W44411  33.733   4.527   0.918  0.1494  0.1138 -0.0650
 1499W        W44412  16.052   2.347  16.418 -0.1137  0.1170 -0.1272
 1500W        W44413  31.372   5.554   4.620  0.3295 -0.1285 -0.0640
 1501W        W44414  12.210   2.828  12.122  0.1573  0.1026 -0.0864
 1502W        W44415  16.641  28.268   2.512 -0.3125  0.2733  0.1327
 1503W        W44416  22.634   2.714  28.046 -0.3621 -0.0235 -0.3408
 1504W        W44417  31.490   7.679  16.755  0.1083  0.1756 -0.2072
 1505W        W44418  16.697  10.098  22.595  0.2826 -0.4255 -0.1238
 1506W        W44419  23.848  13.131  24.859 -0.2853  0.1450 -0.2416
 1507W        W44420  19.617  14.203   6.066 -0.0492  0.1035 -0.2500
 1508W        W44421  17.610   8.993   8.916  0.6318  0.1868 -0.2977
 1509W        W44422  30.939  16.797  24.062 -0.0450 -0.0283  0.1133
 1510W        W44423  25.705   8.213   6.348 -0.0801 -0.0137  0.1167
 1511W        W44424  25.891   4.634   2.572  0.3339 -0.0739  0.3187
 1512W        W44425  14.275   1.296  17.474 -0.0451 -0.0852  0.1009
 1513W        W44426  23.310  10.290  23.902  0.1999 -0.0546 -0.1139
 1514W        W44427  13.430   7.347   7.919  0.2915  0.0072 -0.0359
 1515W        W44428  18.778   3.626  17.945 -0.0173  0.1660 -0.1822
 1516W        W44429  19.401   0.555  28.861 -0.1405  0.0945  0.1369
 1517W        W44430  28.324  10.803  27.539  0.3709  0.1260  0.1573
 1518W        W44431  24.671  20.785  22.064  0.2656 -0.1397 -0.0595
 1519W        W44432  25.323  16.014  26.041  0.2570 -0.1666  0.2747
 1520W        W44433  15.342  28.030  29.117  0.0322  0.2567 -0.0416
 1521W        W44434  10.236   0.171   0.129  0.0977  0.2591  0.0079
 1522W        W44435  21.131   4.142  24.476 -0.2284  0.1796 -0.1121
 1523W        W44436   9.194   8.100  27.630  0.3934  0.2186  0.1754
 1524W        W44437  11.322  32.875   8.623  0.0103 -0.3104 -0.2756
 1525W        W44438  15.811   8.346  29.040 -0.0676 -0.2000 -0.3304
 1526W        W44439  27.433   5.301   2.206 -0.1420  0.0598  0.0003
 1527W        W44440  17.197   2.521   2.160 -0.1375 -0.6073  0.1907
 1528W        W44441  19.448   0.354   9.380 -0.0258  0.0289 -0.0502
 1529W        W44442  18.091  33.627   6.939 -0.1486  0.1323  0.1146
 1530W        W44443  15.215  10.672  26.292  0.0996 -0.1507  0.0026
 1531W        W44444  24.512  25.609  24.114  0.2296 -0.0908 -0.3447
 1532W        W44445  23.231   6.542  26.985 -0.1516  0.0384 -0.0140
 1533W        W44446  21.915  16.731  24.783  0.0259 -0.0631  0.2278
 1534W        W44447  28.329  32.678  24.802  0.0056 -0.0550 -0.1781
 1535W        W44448  16.260   1.230   1.783  0.0024  0.1457 -0.0078
 1536W        W44449  29.141  33.984  20.178  0.2553 -0.0702 -0.0171
 1537W        W44450  23.453   5.063  19.651 -0.3407  0.0553 -0.0076
 1538W        W44451  21.843   6.350  27.376 -0.0463 -0.0211  0.0429
 1539W        W44452  30.728   3.316   7.118 -0.0865 -0.0567  0.1096
 1540W        W44453  24.643   2.365  26.657 -0.4304  0.4736 -0.0736
 1541W        W44454  29.736  33.216  25.960 -0.0711  0.1946  0.2785
 1542W        W44455  26.490   4.944  17.706  0.3107 -0.2221  0.1969
 1543W        W44456  27.224   4.161   3.539  0.0740 -0.2377 -0.0691
 1544W        W44457  29.362  34.208  27.453  0.5228 -0.3230 -0.1491
 1545W        W44458  27.376  31.123  26.635 -0.0024 -0.1931  0.1174
 1546W        W44459  23.937   4.329   4.948  0.1195 -0.4504 -0.0821
 1547W        W44460  20.177   4.505  26.876  0.0732 -0.3248 -0.0409
 1548W        W44461  24.721   3.322  23.837  0.1181  0.0540  0.2787
 1549W        W44462  21.475  13.227  19.159  0.0764 -0.0754 -0.1011
 1550W        W44463  25.646  20.111  27.386 -0.1232 -0.3047 -0.0510
 1551W        W44464  11.898  13.307  16.715  0.1038 -0.0925  0.2024
 1552W        W44465  17.405   0.367   9.873 -0.0272 -0.2556 -0.1726
 1553W        W44466  23.350   1.354   4.027  0.0380 -0.1512 -0.0841
 1554W        W44467  20.018  14.697   0.187 -0.3056  0.0859 -0.1453
 1555W        W44468  24.683  23.837  21.926  0.1001  0.0620 -0.0086
 1556W        W44469  20.364   7.249  22.701  0.0581 -0.2384  0.0204
 1557W        W44470  18.859   5.549   2.632 -0.3565  0.0724  0.1769
 1558W        W44471  20.044  25.750   8.707 -0.1228 -0.1290  0.1470
 1559W        W44472  18.753  33.611  21.654 -0.2991 -0.0973  0.2024
 1560W        W44473  19.020  33.285  20.017 -0.0448 -0.1111 -0.4101
 1561W        W44474  31.635  13.658  25.808  0.1129 -0.0927  0.0632
 1562W        W44475  14.660   9.801  21.797  0.1417  0.0773  0.1465
 1563W        W44476  28.400  30.669   7.244 -0.0502 -0.0822 -0.3338
 1564W        W44477  17.979   3.613  27.369 -0.0910 -0.0157  0.0852
 1565W        W44478  18.882   0.761   6.883 -0.1827 -0.0280 -0.2797
 1566W        W44479  13.993  30.100  23.670 -0.0137 -0.1567  0.1486
 1567W        W44480   6.301  34.250   4.317 -0.2773  0.0619  0.1687
 1568W        W44481  17.558   0.310   0.387 -0.1902 -0.0323 -0.5926
 1569W        W44482  20.046   4.328  19.680  0.1491 -0.0687  0.0784
 1570W        W44483  22.746   4.373  29.373 -0.1089 -0.1041 -0.0698
 1571W        W44484  15.642  14.157  15.751  0.2785  0.1350  0.0184
 1572W        W44485  28.037   7.308   3.001  0.1279 -0.1235 -0.0104
 1573W        W44486  19.365   4.152   0.066 -0.0531 -0.1308  0.0558
 1574W        W44487  30.151   3.637   1.839  0.0280 -0.6406 -0.1879
 1575W        W44488  19.585  33.651   7.197 -0.0008  0.1710  0.1086
 1576W        W44489  29.115   9.482  24.299  0.0285 -0.0575  0.2386
 1577W        W44490  24.541   6.093   4.110 -0.1459 -0.2000  0.3728
 1578W        W44491  28.561  17.291  18.889  0.0221 -0.0235 -0.2460
 1579W        W44492  27.650  13.742  25.646  0.2197 -0.1198  0.0322
 1580W        W44493  24.458   1.961   6.031 -0.2473  0.0726  0.0685
 1581W        W44494  25.352  14.421  21.036 -0.1062  0.2593 -0.2887
 1582W        W44495  21.265   2.713   4.863 -0.2167 -0.0317 -0.0721
 1583W        W44496  25.154   7.108   0.311 -0.0297  0.1843  0.0767
 1584W        W44497  18.190   9.161  21.201  0.0931 -0.0430 -0.1597
 1585W        W44498  22.387  10.242  28.545  0.2334  0.0728 -0.2403
 1586W        W44499  21.959   2.682  29.122  0.0014  0.4629  0.3277
 1587W        W44500  24.215  12.506  21.788 -0.0778 -0.1617  0.0505
 1588W        W44501  19.235   5.829  29.735 -0.3312  0.0558 -0.1651
 1589W        W44502  28.708   1.211  17.730  0.2083  0.3228  0.0537
 1590W        W44503  31.703  22.093   9.498  0.1965 -0.0697  0.0546
 1591W        W44504  34.366   3.888  23.657 -0.0324 -0.0351  0.0789
 1592W        W44505  30.695  26.801  23.527  0.0895  0.1297 -0.0268
 1593W        W44506  12.641   1.095   5.496  0.1117 -0.0403 -0.1467
 1594W        W44507  23.188   9.842   2.759  0.3213  0.0222  0.1818
 1595W        W44508  13.331   5.518  15.665 -0.1283  0.3503  0.0705
 1596W        W44509  23.978  12.552   0.849 -0.2125 -0.0168  0.0402
 1597W        W44510  21.491  33.420  19.608  0.1982  0.0473 -0.1902
 1598W        W44511  14.653  32.338   0.305  0.2683 -0.0756  0.0402
 1599W        W44512  33.549   3.147   1.211  0.1552  0.0604  0.0049
 1600W        W44513  32.627   8.853   3.907  0.0336 -0.1325  0.1579
 1601W        W44514  25.816   3.234  23.001 -0.2275  0.0601  0.1296
 1602W        W44515  17.448   2.494  17.458  0.0156  0.1165  0.0433
 1603W        W44516  19.018   0.310  16.210  0.3734  0.1945 -0.0199
 1604W        W44517  25.016   2.247  24.053  0.1263 -0.0865  0.3990
 1605W        W44518  14.058  10.079  23.960 -0.0249  0.0420 -0.0935
 1606W        W44519  22.757   4.032  20.882  0.1660  0.2409  0.0277
 1607W        W44520  21.506   8.353  24.704 -0.0411  0.1169 -0.3089
 1608W        W44521  22.241  16.317  19.775  0.1346 -0.0078 -0.2241
 1609W        W44522  29.275   6.817  28.742 -0.0966  0.3128 -0.2503
 1610W        W44523  25.175   7.818  18.885 -0.0194 -0.0696  0.1391
 1611W        W44524  23.077  11.594  23.609  0.0435 -0.1317  0.0704
 1612W        W44525  11.996   4.370   3.280 -0.2916  0.3975 -0.2229
 1613W        W44526  23.856  14.115  23.461 -0.0472  0.0301 -0.1188
 1614W        W44527  26.761  10.920  20.104 -0.1141  0.0285  0.3173
 1615W        W44528  29.495   5.916  27.701  0.0915  0.0196  0.1948
 1616W        W44529  21.717  15.673  19.487 -0.3831  0.0901  0.2367
 1617W        W44530  27.544   2.611   4.783 -0.1628 -0.2417  0.0442
 1618W        W44531   2.108   6.756   4.351 -0.1054  0.2151  0.1957
 1619W        W44532  17.649   4.187  29.718 -0.1273  0.0661  0.1874
 1620W        W44533  27.497   9.290  22.365 -0.1576  0.1585  0.2959
 1621W        W44534  17.724   6.088  22.380 -0.2856  0.1845  0.0135
 1622W        W44535  25.852  29.582  26.162 -0.2220 -0.0202 -0.0636
 1623W        W44536  25.003   7.621  26.918  0.1140  0.3405  0.1450
 1624W        W44537  20.167  32.700  23.880  0.2058  0.1617 -0.0610
 1625W        W44538  19.142  11.737   0.223 -0.1328  0.0056  0.0390
 1626W        W44539  28.651  10.962   6.842  0.0766  0.0712 -0.0057
 1627W        W44540  24.957  34.319   6.693  0.2563 -0.1396 -0.1958
 1628W        W44541  21.545  32.593  27.557  0.0032  0.1538 -0.0888
 1629W        W44542  31.648   7.124  28.197 -0.2883 -0.3260 -0.1494
 1630W        W44543  32.941   0.662  26.854 -0.0676 -0.0837 -0.0449
 1631W        W44544  22.329   9.798   1.318 -0.4022 -0.1503 -0.1169
 1632W        W44545  22.032   7.672  24.857  0.0408  0.1593 -0.0002
 1633W        W44546   8.351  31.388  24.825  0.1544 -0.1410 -0.3432
 1634W        W44547  27.605  12.164  25.823 -0.0101 -0.0688 -0.0007
 1635W        W44548  26.715   3.537  23.253  0.1145 -0.0902 -0.2769
 1636W        W44549  20.729  14.999  24.288 -0.2879  0.0960  0.1717
 1637W        W44550  23.265   0.826  28.918 -0.0310  0.1106  0.5715
 1638W        W44551  19.867  32.631   5.929  0.2044  0.0392 -0.0576
 1639W        W44552  27.332   6.098   5.345  0.0409  0.0351  0.0645
 1640W        W44553  19.489  34.405   1.393  0.0660 -0.1088 -0.0869
 1641W        W44554  19.063   4.412  29.530  0.0247  0.0475 -0.3765
 1642W        W44555  25.535   1.055   7.628  0.0802  0.0986 -0.1314
 1643W        W44556  12.329   0.938  19.532  0.0467  0.1082  0.0890
 1644W        W44557  28.562   7.199  15.964 -0.0716  0.0090  0.3148
 1645W        W44558  27.082   8.538  29.042  0.0047  0.3005  0.4468
 1646W        W44559   9.817   5.770  24.843 -0.0840 -0.4050  0.0795
 1647W        W44560  26.406  30.987  22.798 -0.1187 -0.1357 -0.0030
 1648W        W44561  18.104  11.456  27.090  0.2880  0.0599 -0.1718
 1649W        W44562  20.010  11.608  25.465 -0.3052  0.0808  0.0938
 1650W        W44563  14.813   8.038   1.277 -0.0776  0.2701  0.3615
 1651W        W44564  21.127  24.635   1.102 -0.1671  0.0466 -0.1204
 1652W        W44565  25.666  16.103  22.686 -0.3112 -0.0774 -0.1324
 1653W        W44566  23.331  14.932  24.548  0.0322  0.0851 -0.1120
 1654W        W44567  25.560   9.647  18.473 -0.2511 -0.0416  0.1164
 1655W        W44568  15.971   3.554   8.038  0.0504  0.0166 -0.0302
 1656W        W44569  31.737   4.765  19.188  0.0979 -0.0755 -0.1262
 1657W        W44570  22.677   5.321   6.169 -0.2581 -0.1481 -0.2362
 1658W        W44571  32.918  32.848   3.888 -0.3785 -0.1006  0.0727
 1659W        W44572  20.896  17.216  26.144  0.0378 -0.0494 -0.0707
 1660W        W44573  24.573  15.251  13.200  0.0933 -0.1737 -0.2411
 1661W        W44574  19.198  10.368  26.613  0.2815 -0.4911  0.1127
 1662W        W44575  25.990   3.457  23.434 -0.1041  0.0931 -0.1628
 1663W        W44576  18.259   6.830   2.541  0.5920 -0.0141  0.0868
 1664W        W44577  11.271   9.696   3.323 -0.0291  0.0593 -0.4163
 1665W        W44578  16.065   0.519  28.387 -0.0998  0.2914  0.0659
 1666W        W44579  14.131  29.537   6.960 -0.1003  0.0720 -0.2493
 1667W        W44580  22.899   0.114   3.156 -0.1475 -0.1811 -0.0605
 1668W        W44581  22.702  10.065  23.260  0.3222 -0.0493 -0.0519
 1669W        W44582  22.276   7.958  28.202  0.0581 -0.0759  0.0193
 1670W        W44583  12.175  29.010  21.652  0.1111 -0.2113  0.1544
 1671W        W44584  17.896  13.035  26.931 -0.0517  0.3969  0.2605
 1672W        W44585  25.120  16.695   4.726  0.1974  0.0602  0.2438
 1673W        W44586  17.006  33.167   6.516 -0.2880  0.2232  0.0061
 1674W        W44587   1.451  12.409   0.326 -0.3507  0.0890 -0.0923
 1675W        W44588  27.424  27.047  28.455 -0.1999 -0.3693  0.1401
 1676W        W44589  18.595   2.027  26.785 -0.0264  0.0290  0.1024
 1677W        W44590  21.992   8.904   8.490  0.1330 -0.2086 -0.3783
 1678W        W44591  29.166  27.796  29.458 -0.2010 -0.1332 -0.1199
 1679W        W44592  23.025   4.698   1.913 -0.0580 -0.1897 -0.1391
 1680W        W44593  20.942   1.616   9.971  0.0810 -0.1553 -0.1731
 1681W        W44594   2.492  11.656   9.331 -0.0652  0.0762 -0.0809
 1682W        W44595   8.276   8.192  26.972 -0.1380  0.3345  0.0695
 1683W        W44596  22.274   1.181  25.277 -0.1334  0.2141  0.1077
 1684W        W44597  22.424  33.334  25.262 -0.2156 -0.2981  0.0844
 1685W        W44598  31.817  11.049  23.331 -0.3577  0.0343 -0.1792
 1686W        W44599  25.859   6.797   1.520 -0.0522  0.1886  0.2933
 1687W        W44600  24.195   4.875  26.152  0.1798 -0.1639 -0.2626
 1688W        W44601  19.648  32.245   0.717 -0.0320 -0.0832 -0.0098
 1689W        W44602  29.386   7.691  15.106  0.1917  0.0645  0.0673
 1690W        W44603  13.512   4.397   3.526 -0.0598 -0.0038 -0.0639
 1691W        W44604  31.788   6.012   2.647 -0.2357 -0.2700  0.1071
 1692W        W44605  12.240  30.341  27.249 -0.0884  0.1570 -0.0610
 1693W        W44606  26.927  10.851   5.392 -0.3512 -0.1081 -0.0301
 1694W        W44607  16.558   0.053  26.948 -0.0899 -0.2086 -0.0206
 1695W        W44608  15.679   5.852  15.447 -0.1359 -0.3473 -0.1467
 1696W        W44609   8.545  33.624   4.001 -0.1186  0.2940  0.0427
 1697W        W44610  20.580   1.034  21.022  0.1411 -0.0329  0.1578
 1698W        W44611  21.652  31.880  21.342 -0.0918  0.2235 -0.1233
 1699W        W44612  18.300  33.017   0.361 -0.1471  0.0610  0.0317
 1700W        W44613  21.512   5.222  17.598 -0.2247 -0.2496 -0.2436
 1701W        W44614  29.235   2.024  20.226 -0.0728  0.0203  0.3775
 1702W        W44615  19.468   5.554   1.808 -0.2321 -0.1833  0.2080
 1703W        W44616  20.278   9.223  13.374  0.0680  0.0015  0.0579
 1704W        W44617  27.701  15.488  25.942 -0.0215  0.2577 -0.1643
 1705W        W44618  20.350  34.212  28.488 -0.0384  0.0969 -0.0706
 1706W        W44619  16.076  12.267   8.081  0.3453 -0.0750 -0.2198
 1707W        W44620  30.248  16.943   9.034  0.1927  0.2038  0.0824
 1708W        W44621  13.793   7.728   4.090 -0.3973  0.0775  0.3136
 1709W        W44622  22.192   7.548  24.044 -0.1367 -0.1132  0.1572
 1710W        W44623  31.469   5.290  10.743 -0.1577  0.3789 -0.2033
 1711W        W44624  20.239  32.312  26.222 -0.2001 -0.1671  0.0083
 1712W        W44625  29.757   4.635   4.393 -0.1069 -0.0991 -0.3013
 1713W        W44626  19.990  26.873   2.338  0.0686  0.3175 -0.2794
 1714W        W44627  29.392  14.897  27.003 -0.1345  0.2914 -0.0848
 1715W        W44628   2.363   6.662  11.018  0.0916  0.0314  0.1504
 1716W        W44629  24.901  31.483   2.024  0.3394  0.0196 -0.2395
 1717W        W44630  24.831   3.360  29.453  0.0276 -0.0696  0.1579
 1718W        W44631  25.817  12.552   2.123  0.2917 -0.2158  0.0039
 1719W        W44632  21.812  31.674  29.488 -0.1776  0.0126 -0.0931
 1720W        W44633  18.018  13.880  25.808  0.2999  0.0956 -0.0757
 1721W        W44634  19.610   3.335  24.824 -0.1809 -0.3330 -0.1784
 1722W        W44635  20.243  12.167  28.642  0.3162  0.1282 -0.1715
 1723W        W44636  26.501   3.373  20.700  0.0311 -0.1961  0.3033
 1724W        W44637  22.240  34.096  27.407 -0.0272 -0.0367  0.0722
 1725W        W44638   8.818  10.506  23.041  0.1369 -0.1753 -0.0693
 1726W        W44639  25.025   0.030   1.031 -0.2103  0.3117 -0.1548
 1727W        W44640  34.408   6.771  27.695  0.0047 -0.0933 -0.0203
 1728W        W44641  18.286   6.736   0.719  0.1929  0.0047  0.2365
 1729W        W44642  24.516  31.878   7.919  0.2366  0.0444 -0.0225
 1730W        W44643  22.797   5.349   9.903 -0.1094  0.1119 -0.2216
 1731W        W44644  20.808   3.798   9.214 -0.4061  0.1819  0.0451
 1732W        W44645  20.054   6.234  20.236  0.0338 -0.1081  0.0142
 1733W        W44646  31.157   2.726  22.364  0.0877 -0.2785 -0.3720
 1734W        W44647  26.105  10.113   7.448 -0.0023  0.1459  0.0356
 1735W        W44648  10.765  12.508   8.262  0.4097  0.3899  0.1513
 1736W        W44649  15.438   6.812   6.493 -0.1204 -0.0176  0.1343
 1737W        W44650  19.124  12.851  27.031 -0.2686  0.1528 -0.0753
 1738W        W44651  20.594   3.367  17.766 -0.2170  0.5527  0.1133
 1739W        W44652  22.954  12.569  23.695 -0.6284  0.1163  0.1568
 1740W        W44653  16.544   7.913   8.452  0.0011 -0.3331  0.2991
 1741W        W44654  33.256   9.432   4.888  0.2897 -0.3030  0.0853
 1742W        W44655  14.593   9.629  26.312 -0.0996  0.1315 -0.2209
 1743W        W44656  15.319   8.000   1.170 -0.1212  0.2808  0.0842
 1744W        W44657  21.000  11.438  25.998  0.2316  0.1527  0.1168
 1745W        W44658  21.954  18.827  27.606  0.0022 -0.3059  0.0691
 1746W        W44659  10.343   4.736  27.905  0.0543 -0.3431  0.3969
 1747W        W44660  27.218   4.959   0.920  0.0922 -0.0642 -0.0325
 1748W        W44661  28.750   2.165   1.655 -0.0875  0.2895 -0.1279
 1749W        W44662   6.614  32.388  24.587  0.1555  0.1684 -0.2434
 1750W        W44663  11.913   5.514  21.985  0.0481 -0.2415  0.1874
 1751W        W44664  16.389   8.323   7.232 -0.1898  0.0141 -0.0109
 1752W        W44665  33.349  11.001   6.818 -0.1266 -0.1508 -0.3114
 1753W        W44666  12.033   7.358  19.905  0.3001 -0.1204  0.0283
 1754W        W44667  28.424  11.442   0.639 -0.2951 -0.0415 -0.1044
 1755W        W44668  18.820   2.710  25.364  0.0675  0.1030 -0.0621
 1756W        W44669  22.872  33.528  28.884  0.0743  0.0299  0.1501
 1757W        W44670  18.178   9.829  25.289  0.1528 -0.4481  0.0911
 1758W        W44671  22.696   9.759  29.680 -0.1721  0.0560  0.0459
 1759W        W44672  20.717  30.023  25.010  0.3989  0.1960  0.2665
 1760W        W44673  27.825  10.283   2.182  0.0847 -0.0947  0.0449
 1761W        W44674  26.063   2.014   9.180 -0.1640 -0.2668  0.1498
 1762W        W44675  21.277   4.606  16.343 -0.0212  0.1243 -0.1534
 1763W        W44676  26.086   1.038  25.877 -0.0899  0.1805 -0.0765
 1764W        W44677  18.547   6.091  23.052 -0.0938 -0.0097 -0.2901
 1765W        W44678  23.422  10.591  28.247 -0.2473  0.0307 -0.2408
 1766W        W44679  25.278  31.880  26.961 -0.3123 -0.1893 -0.0170
 1767W        W44680  18.854  12.775  29.273  0.3195  0.0644 -0.2534
 1768W        W44681  30.352  33.233   3.431  0.0748 -0.2250 -0.1331
 1769W        W44682  31.096   8.322   4.578 -0.2135 -0.1041  0.2191
 1770W        W44683  19.399   8.493   5.445 -0.4521 -0.0040  0.1915
 1771W        W44684  24.840  14.940  25.665 -0.1945 -0.2490  0.1134
 1772W        W44685  19.222  13.899   1.432  0.2334 -0.1615  0.0913
 1773W        W44686  17.864  33.689   1.932  0.2239 -0.0082 -0.0848
 1774W        W44687  27.514  16.150   2.924  0.0617 -0.0080 -0.3518
 1775W        W44688   9.143  29.253   0.240 -0.0010  0.1815  0.2097
 1776W        W44689  22.444  30.830   0.651 -0.0104  0.1333 -0.0649
 1777W        W44690  21.614   5.055  26.416  0.1353  0.1306  0.0997
 1778W        W44691  18.349   3.441  21.537 -0.0023 -0.0501 -0.1972
 1779W        W44692  33.970  30.959   6.296 -0.2298  0.1382 -0.0951
 1780W        W44693  25.994   2.610  24.750  0.0008  0.1857 -0.3199
 1781W        W44694  19.592   9.423  18.411  0.0563  0.2380  0.2015
 1782W        W44695  26.165   9.794  22.214  0.2606  0.3759  0.0904
 1783W        W44696  29.367   6.967  20.390  0.0845 -0.0277 -0.3152
 1784W        W44697  27.839   1.852  28.339  0.0598 -0.1039  0.0982
 1785W        W44698  23.701  13.839  22.757  0.2971 -0.1075  0.2453
 1786W        W44699  24.170   1.938  22.687 -0.1099  0.0487  0.1038
 1787W        W44700  20.577  14.284  21.053  0.2618  0.0064  0.2239
 1788W        W44701  19.480   4.931  19.617 -0.1662 -0.2606 -0.0747
 1789W        W44702  23.475   4.105  22.585  0.0296 -0.1867  0.3114
 1790W        W44703  22.702  12.824  20.070  0.3102 -0.0250 -0.1945
 1791W        W44704  24.453   0.970  24.038  0.0336  0.0989  0.1611
 1792W        W44705  29.396   5.298  19.325  0.4242 -0.0387  0.0984
 1793W        W44706  22.310   5.908  25.342  0.1949  0.1381 -0.1989
 1794W        W44707  11.179  10.886  17.973 -0.0346 -0.2753 -0.0477
 1795W        W44708  18.681  18.642  13.020 -0.0759 -0.2789 -0.1954
 1796W        W44709  22.600   4.905  17.535  0.0093 -0.1154  0.3612
 1797W        W44710  22.604   3.544  20.357 -0.0059  0.2636 -0.2717
 1798W        W44711  23.270  10.652  13.806  0.0206 -0.0948  0.0400
 1799W        W44712  14.790   8.881  25.851 -0.0527  0.1841  0.0650
 1800W        W44713  18.926   7.529  27.519  0.1634  0.1593  0.1297
 1801W        W44714   4.256  18.715  18.114  0.1713 -0.1399  0.0683
 1802W        W44715  24.526   3.247  16.017  0.0545  0.2769  0.1780
 1803W        W44716  23.909  13.314  17.494 -0.0646 -0.0082  0.1026
 1804W        W44717  34.050   9.541  24.711  0.1634  0.2586 -0.0471
 1805W        W44718  26.661   9.828  16.089  0.1414  0.0333 -0.1971
 1806W        W44719  26.762  21.003  15.341  0.0853  0.1195 -0.1187
 1807W        W44720  23.184   2.544  14.682  0.2270 -0.0143 -0.0144
 1808W        W44721  22.089  17.040  13.174  0.3396 -0.2483 -0.0433
 1809W        W44722  18.153   4.164  16.565  0.0207  0.0170  0.0839
 1810W        W44723  24.947  20.016  14.626  0.1954 -0.0251 -0.0214
 1811W        W44724   9.289   7.957  18.727  0.1610  0.2278 -0.0990
 1812W        W44725  25.146   7.564  21.838  0.1516  0.2246 -0.0113
 1813W        W44726  18.539   9.484  21.401  0.3946  0.0649  0.3857
 1814W        W44727  28.895  21.631  16.892 -0.1777 -0.3436  0.0211
 1815W        W44728  26.183  10.158  14.825 -0.0301 -0.0962 -0.1249
 1816W        W44729  22.202   2.392  24.970  0.2572  0.0951 -0.0029
 1817W        W44730  24.873  11.540  13.165 -0.0271  0.1561  0.1623
 1818W        W44731  18.846   9.424  20.987  0.2930  0.0744 -0.3054
 1819W        W44732  23.265   6.046  17.952 -0.3310 -0.0417  0.1168
 1820W        W44733  14.235  12.468  18.909  0.1515  0.0577 -0.1655
 1821W        W44734  22.814  16.076  14.329 -0.0737 -0.0345  0.1123
 1822W        W44735  31.368  13.249  18.977  0.0677  0.2792  0.2792
 1823W        W44736  32.989  10.421  17.489 -0.1567  0.1288 -0.0991
 1824W        W44737  20.592   4.448  28.570 -0.2217 -0.0548 -0.4269
 1825W        W44738  20.885  12.445  16.921 -0.0231  0.0384 -0.2001
 1826W        W44739  22.272   8.939  13.752 -0.1505  0.1528 -0.0582
 1827W        W44740  28.223  10.606  24.867 -0.1489  0.0195 -0.0543
 1828W        W44741  19.193   2.940  22.662  0.2494  0.1761  0.1195
 1829W        W44742  17.267  33.394  22.244 -0.4197 -0.1270  0.1596
 1830W        W44743  31.285  14.792  14.761 -0.2070 -0.2491  0.1164
 1831W        W44744  12.833  10.453  18.193  0.0872  0.1355  0.0878
 1832W        W44745  21.728  10.491  15.640 -0.1834 -0.0711 -0.0042
 1833W        W44746  25.694  17.912  13.562  0.0472  0.0158  0.1532
 1834W        W44747  28.421  20.311  18.058  0.0594 -0.0465 -0.4241
 1835W        W44748  28.404  14.693  19.255 -0.1209  0.3290 -0.0754
 1836W        W44749  29.606  10.406  14.567 -0.0412 -0.3191 -0.1694
 1837W        W44750  18.352  10.175  14.369  0.1730 -0.0433 -0.0219
 1838W        W44751  22.454  10.216  17.802  0.2297 -0.1409  0.0025
 1839W        W44752  33.331   0.689  19.108 -0.3881  0.0296  0.0473
 1840W        W44753  25.034  17.084  16.198  0.0991  0.3102  0.2144
 1841W        W44754  20.643   8.245  19.525 -0.0735 -0.0070 -0.3126
 1842W        W44755  16.852  12.850  13.899  0.1569  0.4559  0.1536
 1843W        W44756  26.100  14.437  28.584 -0.1372 -0.2189 -0.0005
 1844W        W44757  24.574  16.949  24.500 -0.1431 -0.0045 -0.1651
 1845W        W44758  21.034   7.172  19.477 -0.2648 -0.0723 -0.2472
 1846W        W44759  18.141  12.507  24.499 -0.1892 -0.1036 -0.2759
 1847W        W44760  20.418   9.583  15.537 -0.0026  0.0818 -0.1689
 1848W        W44761  18.143  11.161  13.720 -0.1540 -0.3354  0.3160
 1849W        W44762  21.675  33.870  19.805 -0.0787  0.1891  0.0462
 1850W        W44763  27.703  22.227  13.777 -0.1662  0.1352  0.2095
 1851W        W44764  28.815  11.992  22.816  0.1233 -0.3526 -0.2879
 1852W        W44765  26.138   5.521  16.980 -0.0171  0.2014 -0.2254
 1853W        W44766  19.165  10.581  23.211 -0.0072  0.0382  0.2909
 1854W        W44767  29.217  10.591  16.383  0.0972  0.1272  0.2843
 1855W        W44768  13.232   2.638  22.732 -0.0120 -0.1709 -0.0754
 1856W        W44769  16.473   1.938  15.979 -0.1572 -0.1139  0.0332
 1857W        W44770  28.600   4.362  16.812 -0.1288  0.0852  0.2700
 1858W        W44771  22.152  19.363  14.013 -0.2288 -0.0203  0.0550
 1859W        W44772  23.696   4.877  15.125  0.0048  0.0975 -0.4474
 1860W        W44773  29.728   7.470  19.905 -0.1300  0.1038 -0.4454
 1861W        W44774  30.664  14.064  23.643  0.0822  0.0023 -0.0336
 1862W        W44775  26.517   8.838  21.271 -0.1516 -0.2557  0.1640
 1863W        W44776  14.135  12.633  17.594 -0.2747 -0.0879  0.0511
 1864W        W44777  34.176   4.646  17.966  0.1587  0.2081 -0.0844
 1865W        W44778  11.825  16.229  18.615 -0.2860  0.0865 -0.3139
 1866W        W44779  23.874   3.265  15.612  0.0551  0.3734 -0.0285
 1867W        W44780   8.786  16.464  15.120  0.0639  0.0120  0.2327
 1868W        W44781  27.073   9.153  13.889 -0.0325  0.0220 -0.1893
 1869W        W44782  27.715   7.556  23.522 -0.2756 -0.1009 -0.1154
 1870W        W44783  28.847  10.284  19.547 -0.0013 -0.0339 -0.2860
 1871W        W44784  24.523   9.031  16.863  0.4349 -0.3748  0.0291
 1872W        W44785  15.760   2.203  21.132  0.0707  0.0361 -0.0441
 1873W        W44786  20.728   3.312  19.849  0.1391 -0.1281  0.1413
 1874W        W44787  28.168   7.877  18.478  0.1578 -0.1543 -0.4102
 1875W        W44788  19.206  14.500  12.594 -0.1340  0.2425  0.0878
 1876W        W44789  27.735  20.232  13.982  0.1226  0.2940  0.0697
 1877W        W44790  15.499   2.158  19.672  0.1332  0.1498  0.2525
 1878W        W44791  31.167   5.382  25.405 -0.1945  0.0210 -0.2498
 1879W        W44792  16.442   3.014  15.801  0.0140  0.3901 -0.0363
 1880W        W44793  25.869   1.421  16.837 -0.1793  0.0307 -0.0839
 1881W        W44794  23.663  15.787  18.599  0.1379 -0.1991 -0.2629
 1882W        W44795  21.994   6.507  21.980 -0.2338 -0.0346 -0.1040
 1883W        W44796  19.969   2.411  21.501 -0.3640  0.1001  0.0143
 1884W        W44797  25.622  23.595  14.561 -0.1094 -0.0976 -0.1486
 1885W        W44798  31.706   9.320  25.130 -0.2134  0.1948  0.1012
 1886W        W44799  31.837  23.246  26.601  0.0843 -0.3263  0.0648
 1887W        W44800  20.012   5.598  15.814  0.0002 -0.0468 -0.0686
 1888W        W44801  20.569  10.344  13.981  0.1439 -0.1338  0.1842
 1889W        W44802  16.256  16.661  13.299  0.0984 -0.0370 -0.3838
 1890W        W44803  20.521  13.495  18.218 -0.1293 -0.1923  0.0580
 1891W        W44804  25.893   7.506  15.967  0.2677 -0.1434 -0.1064
 1892W        W44805  29.299   4.870  16.841  0.1093 -0.0824 -0.2377
 1893W        W44806  20.335  10.365  21.275  0.4780  0.0045 -0.1762
 1894W        W44807  19.363  16.646  12.333  0.0461  0.1167 -0.2340
 1895W        W44808  29.335  10.010  22.194  0.0670  0.0438  0.3998
 1896W        W44809  25.852  17.038  18.086  0.1148  0.1502 -0.2739
 1897W        W44810  23.960   6.907  17.899  0.3162 -0.1576  0.2869
 1898W        W44811  24.646   5.302  24.471 -0.0902  0.0648  0.1389
 1899W        W44812  24.166   8.559  22.399  0.0169  0.0133 -0.0182
 1900W        W44813  23.947   6.111  17.421 -0.1219  0.0410  0.1417
 1901W        W44814  28.887   9.298  21.728  0.2822  0.0622 -0.0566
 1902W        W44815  20.927   2.046  27.396 -0.0622  0.0026 -0.1180
 1903W        W44816  27.232   7.076  14.762 -0.0646 -0.0958 -0.0111
 1904W        W44817  26.781   6.801  14.984  0.2100 -0.2162  0.2085
 1905W        W44818  16.146  12.358  20.405  0.0543  0.0866  0.1006
 1906W        W44819  19.026   4.261  19.447 -0.2779 -0.0446 -0.0273
 1907W        W44820  23.702   9.977  24.802 -0.0301  0.2117 -0.3050
 1908W        W44821  17.003   9.034  23.683  0.2357  0.1145 -0.3381
 1909W        W44822  20.225  31.061  24.327 -0.0101  0.3010  0.0714
 1910W        W44823  31.477  16.753  18.489 -0.0520  0.0702  0.1088
 1911W        W44824  30.034   2.327  16.845 -0.0021  0.0067  0.0807
 1912W        W44825  30.360   7.001  18.007  0.2740 -0.2561 -0.1281
 1913W        W44826  19.535   0.409  16.032  0.1254  0.2398 -0.3885
 1914W        W44827  16.166   4.278  21.407  0.0351  0.3829 -0.1074
 1915W        W44828   0.380   8.234  20.741 -0.2783 -0.0204  0.2431
 1916W        W44829  29.735   1.842  23.197  0.1220 -0.3525  0.0626
 1917W        W44830  21.855   4.034  20.558 -0.1761 -0.0500 -0.0127
 1918W        W44831  26.868  17.723  14.845  0.0623  0.0166  0.1888
 1919W        W44832  21.180   5.832  14.954 -0.1162 -0.1277  0.1338
 1920W        W44833  15.570  11.497  22.252  0.1611 -0.0100 -0.1869
 1921W        W44834  20.088  11.973  27.330  0.1435 -0.0955 -0.0036
 1922W        W44835  23.129   9.981  23.014 -0.1719 -0.0395 -0.0391
 1923W        W44836  24.284   5.712  24.258  0.3714 -0.1398  0.3622
 1924W        W44837  28.609  22.842  19.583 -0.1961 -0.3697  0.0267
 1925W        W44838  17.894  12.210  11.461  0.1141  0.3664 -0.0125
 1926W        W44839   3.024   4.530  16.758  0.4561 -0.1029 -0.1712
 1927W        W44840  19.848   5.652  23.056  0.0064  0.1367  0.2541
 1928W        W44841  32.264   1.355  20.815 -0.1052 -0.2065 -0.0769
 1929W        W44842  19.189  11.220  24.664  0.0296 -0.0515  0.0742
 1930W        W44843  20.002   7.306  17.167  0.1227 -0.1626 -0.1803
 1931W        W44844  29.200   6.529  16.052  0.1010 -0.2177 -0.2178
 1932W        W44845  28.349   4.827  19.118  0.1142 -0.1743  0.2868
 1933W        W44846  27.102  31.442  24.970  0.3668 -0.0586  0.0205
 1934W        W44847  30.904   3.542  21.024 -0.2439  0.0199  0.3332
 1935W        W44848  22.693  19.015  15.553 -0.0744  0.1156  0.1707
 1936W        W44849  27.971   5.542  16.011  0.0044 -0.0777  0.0158
 1937W        W44850  25.961  19.196  24.007 -0.1350 -0.2174 -0.0542
 1938W        W44851  18.286  27.678   2.801  0.0456  0.0195 -0.1150
 1939W        W44852  18.105  13.610  15.842 -0.2456 -0.1421 -0.0552
 1940W        W44853   2.171  21.725  21.510  0.1042 -0.0143  0.0027
 1941W        W44854  27.419  11.856  16.471 -0.2321 -0.1095 -0.0950
 1942W        W44855  21.322   6.072   0.542 -0.0320 -0.1339 -0.1101
 1943W        W44856  23.778   0.530  16.477 -0.4009  0.1331 -0.0652
 1944W        W44857  22.315  11.818  18.282  0.2329  0.3934  0.1402
 1945W        W44858  16.814  11.691  13.429 -0.2692 -0.1624 -0.0503
 1946W        W44859  21.924   7.044  15.107  0.1516  0.2934 -0.2163
 1947W        W44860  23.059  14.909  20.763 -0.2182 -0.0264  0.0805
 1948W        W44861  26.388   6.793  18.164  0.3947 -0.0127  0.0042
 1949W        W44862  22.401   9.076  18.621  0.1410 -0.1373 -0.2708
 1950W        W44863  21.513   7.785  17.414 -0.0151  0.0267  0.2527
 1951W        W44864  22.181  17.286   2.149 -0.1024 -0.1791 -0.0311
 1952W        W44865  23.198  16.174  19.949 -0.1427 -0.0655  0.1108
 1953W        W44866  21.281  17.786  29.111 -0.0765 -0.1942 -0.1155
 1954W        W44867  12.094  10.238  23.616 -0.0570 -0.1910  0.2234
 1955W        W44868  21.341  25.738  15.243 -0.1180  0.3061 -0.0349
 1956W        W44869  26.580  14.510  19.018 -0.2350 -0.1484  0.2295
 1957W        W44870  28.660   1.968  18.631 -0.0555  0.0440  0.2438
 1958W        W44871  25.704  14.798  17.897  0.1682 -0.2075 -0.1934
 1959W        W44872  29.087  15.538  24.010  0.3819 -0.0991 -0.0375
 1960W        W44873  23.162   7.803  17.868 -0.0167 -0.0229 -0.1934
 1961W        W44874   0.111   9.275  19.232  0.2268  0.1775 -0.0928
 1962W        W44875  23.340   7.598  15.717 -0.1933 -0.0857 -0.0347
 1963W        W44876  20.032  22.577  12.891 -0.4845  0.0029 -0.1285
 1964W        W44877  29.370  12.612  15.691  0.2330 -0.0853 -0.2194
 1965W        W44878  21.996   8.831  19.959  0.0326  0.3228 -0.1010
 1966W        W44879  25.968  17.174  17.045 -0.1869 -0.1433  0.2182
 1967W        W44880  12.950  11.444  14.675  0.2371  0.1609  0.1573
 1968W        W44881  21.814  14.496  18.496  0.1412  0.2334  0.3068
 1969W        W44882  33.727   0.360  15.175 -0.1087  0.2352 -0.2490
 1970W        W44883  23.818   9.190  19.370 -0.2306  0.4501 -0.1397
 1971W        W44884  29.611  14.071  13.529 -0.1971  0.1758 -0.1372
 1972W        W44885  26.766  12.463  14.642  0.0820  0.1093 -0.2036
 1973W        W44886  18.056  16.663  12.994 -0.1873 -0.0033 -0.0328
 1974W        W44887  31.239  21.857  14.974 -0.1089 -0.6708  0.2001
 1975W        W44888  15.989  31.251  14.859  0.1294  0.2997  0.3967
 1976W        W44889  23.514  20.585  16.339  0.2396 -0.2244  0.3096
 1977W        W44890  19.544   1.029  16.716  0.0961 -0.0019 -0.1908
 1978W        W44891  30.440  18.300  14.954 -0.2565  0.0067 -0.0095
 1979W        W44892  22.190   0.546  19.679 -0.2706 -0.2062  0.0417
 1980W        W44893  14.169  23.063  23.010 -0.1593 -0.1374 -0.0976
 1981W        W44894  34.023  18.373  23.173  0.0037  0.0117 -0.4756
 1982W        W44895  25.259   7.851  25.913  0.3543 -0.5913  0.0999
 1983W        W44896  29.743  33.726  19.499 -0.0278  0.0160 -0.1038
 1984W        W44897  20.069   2.163  17.798 -0.2935 -0.1923 -0.0713
 1985W        W44898  25.234   1.042  18.067 -0.0451 -0.0518  0.4228
 1986W        W44899  27.726   7.157  14.797 -0.3449  0.1301  0.1818
 1987W        W44900  19.496   4.550  18.478  0.0150  0.0555 -0.1235
 1988W        W44901  32.877   1.391  20.016  0.2446  0.1161 -0.1546
 1989W        W44902   0.089  12.519  15.585 -0.0359 -0.0919 -0.0073
 1990W        W44903  31.462  18.776  18.542  0.2220 -0.0399  0.1523
 1991W        W44904  17.152  29.172  23.741 -0.1999  0.1048 -0.2553
 1992W        W44905  34.107  33.777  18.044  0.3416  0.0814  0.0076
 1993W        W44906  33.143   1.976  19.803  0.0241 -0.0877 -0.0397
 1994W        W44907  21.929   5.134  19.913 -0.0543  0.0959 -0.0196
 1995W        W44908  20.326   2.498  18.793  0.0306 -0.1183  0.0938
 1996W        W44909  29.078   8.217  17.517  0.2093  0.0454  0.1375
 1997W        W44910  27.577  29.900  13.705 -0.1312  0.3835  0.0995
 1998W        W44911  21.125  25.325  28.728 -0.3279  0.1556  0.3109
 1999W        W44912  19.881   8.438  18.781 -0.2391  0.2811  0.0806
 2000W        W44913  27.640  12.834  26.910 -0.0465  0.2280 -0.1366
 2001W        W44914  22.452   0.299  16.064 -0.0924 -0.1285  0.0688
 2002W        W44915  17.072   9.787  16.575  0.0618 -0.0730  0.0032
 2003W        W44916  16.442   8.076  16.560 -0.4438 -0.0989 -0.2527
 2004W        W44917  23.261  14.689  15.289 -0.0056  0.1236  0.1087
 2005W        W44918  16.687  20.193  13.929  0.1084  0.1083 -0.0278
 2006W        W44919  22.772  14.142  16.088 -0.1120  0.0967 -0.0042
 2007W        W44920  15.451   6.403  27.907  0.0006  0.2711  0.1345
 2008W        W44921  22.644  13.893  13.154  0.0702  0.2852 -0.2266
 2009W        W44922  19.460   4.018  13.459 -0.2033 -0.0110 -0.2069
 2010W        W44923  20.645   6.681  24.059  0.0033 -0.0626  0.0898
 2011W        W44924  19.495   1.389  18.989  0.0289  0.1137 -0.0045
 2012W        W44925  26.800   2.154  15.203 -0.1085 -0.1171  0.1414
 2013W        W44926  30.786  14.448  22.651 -0.1698  0.2475  0.4045
 2014W        W44927  17.479   1.011  21.016  0.0630 -0.0349  0.1545
 2015W        W44928  24.695   6.931  19.837  0.1893 -0.2008 -0.2758
 2016W        W44929  23.590  11.873  22.739 -0.0069 -0.0780  0.0893
 2017W        W44930  31.323   3.114  25.236 -0.0048  0.0801 -0.1993
 2018W        W44931  21.131  10.143  13.276 -0.1896  0.2754  0.0617
 2019W        W44932  25.367   9.186  20.615 -0.2119  0.0580  0.0555
 2020W        W44933  29.481  13.338  20.818  0.1532 -0.0703 -0.2695
 2021W        W44934  26.834   5.921  16.106 -0.3495 -0.1660  0.0512
 2022W        W44935  24.352   6.909  18.830  0.2143 -0.1497  0.2824
 2023W        W44936  19.264  10.964  23.571 -0.1531  0.2417 -0.0886
 2024W        W44937   1.050  33.177  19.590 -0.0316  0.2193  0.0044
 2025W        W44938  21.199  10.747  21.412  0.1817 -0.2284 -0.1121
 2026W        W44939  25.853   4.935  22.669 -0.0352  0.1617 -0.0779
 2027W        W44940   6.287   9.561  25.822 -0.0747 -0.0104  0.2777
 2028W        W44941  31.188   2.943  18.661 -0.0395  0.0640 -0.1067
 2029W        W44942  12.225  17.227  13.454  0.0328  0.1219 -0.1289
 2030W        W44943  22.039  18.619  16.900 -0.1581  0.0978 -0.1779
 2031W        W44944  15.619   1.363   0.205 -0.0312  0.0517  0.3999
 2032W        W44945  31.324   4.531  18.517 -0.0943  0.0448 -0.0184
 2033W        W44946  22.851  14.547  19.041 -0.0535 -0.0235 -0.3715
 2034W        W44947  23.441   8.013  19.554 -0.2146  0.1236  0.0184
 2035W        W44948  16.534  11.700  14.940  0.0955  0.2564  0.3182
 2036W        W44949  24.506  16.628  15.697 -0.1101 -0.1986 -0.1853
 2037W        W44950  31.200   7.850  17.642 -0.1884  0.5862  0.3391
 2038W        W44951  20.663   4.589  16.761 -0.0320  0.0019  0.1299
 2039W        W44952  25.431   1.050  27.402  0.0824 -0.0699  0.0075
 2040W        W44953  27.406  10.897  16.617  0.1973 -0.1731 -0.0968
 2041W        W44954  28.407  15.107  13.162  0.1056  0.4606 -0.1322
 2042W        W44955  24.928   4.170  27.131 -0.0362 -0.0421 -0.0644
 2043W        W44956  20.436   6.496  14.029  0.2166 -0.0460 -0.1770
 2044W        W44957  18.221   9.717  20.957 -0.2296 -0.0396 -0.0009
 2045W        W44958  27.906   5.269  26.443  0.0449  0.3179 -0.1462
 2046W        W44959  22.718  15.012  14.307  0.0702 -0.1115 -0.4258
 2047W        W44960  22.435  15.564  14.352 -0.0377  0.0214  0.2159
 2048W        W44961  26.078  11.516  21.282  0.1759 -0.4079  0.2347
 2049W        W44962  15.570   5.164  19.568 -0.1039 -0.3306  0.2740
 2050W        W44963  23.126  11.188  17.754 -0.2541  0.3096 -0.0303
 2051W        W44964   9.605  22.767  16.876  0.3554  0.1726  0.1384
 2052W        W44965  20.948  31.625  13.323  0.0056 -0.2168 -0.3707
 2053W        W44966  14.773   5.062  15.856  0.0509  0.0259 -0.1471
 2054W        W44967  25.394  17.511   7.312 -0.2171  0.0515 -0.4005
 2055W        W44968  24.214  12.038  25.739 -0.2611 -0.1859 -0.2422
 2056W        W44969  24.310   5.994  14.798  0.2192 -0.0937 -0.0593
 2057W        W44970  27.863  24.710  20.359 -0.0183  0.3565 -0.0080
 2058W        W44971   2.095   3.780  18.667 -0.0179  0.4292 -0.1009
 2059W        W44972  29.292  13.649  18.849  0.0585  0.1496 -0.0534
 2060W        W44973  24.067  14.475  16.362 -0.0856 -0.4391  0.0753
 2061W        W44974  27.295  14.555  13.915  0.2698  0.2776 -0.2509
 2062W        W44975  18.686  10.858  12.535  0.0882 -0.2882  0.4035
 2063W        W44976  26.619  13.226  16.810  0.5551 -0.0752  0.0038
 2064W        W44977  25.500   5.585  17.887  0.0025 -0.2794  0.0853
 2065W        W44978  32.082  33.815  21.720  0.1972 -0.0065  0.0285
 2066W        W44979  25.627  12.055  25.370  0.2129  0.0436  0.1109
 2067W        W44980  27.330   8.694  24.042 -0.3151 -0.2680  0.1741
 2068W        W44981  32.994  12.750  15.875  0.3554 -0.0977  0.0334
 2069W        W44982  20.535  13.499  14.003  0.1558 -0.0410 -0.0001
 2070W        W44983  26.401   7.127  17.321  0.1467 -0.2400  0.0278
 2071W        W44984  27.428  16.095  21.505  0.1207  0.1410  0.1037
 2072W        W44985   9.113  22.753  16.885  0.2313  0.3683 -0.1784
 2073W        W44986  29.775  13.300  19.181  0.0766 -0.4317 -0.0641
 2074W        W44987  26.979  20.698  21.320 -0.1402 -0.1509  0.0360
 2075W        W44988   1.184   7.846  20.123 -0.1429  0.2195  0.2234
 2076W        W44989  18.476   2.946  29.585 -0.3242 -0.0972  0.2584
 2077W        W44990  32.860  25.724  19.068 -0.0046  0.3271  0.1653
 2078W        W44991  28.827  10.001  22.420 -0.0901 -0.1253  0.0908
 2079W        W44992  26.712  16.987  15.385 -0.1316  0.0622  0.0644
 2080W        W44993  23.110   6.959  19.006  0.0383 -0.1422  0.0865
 2081W        W44994  26.596  13.717  14.797  0.1758 -0.1058  0.0411
 2082W        W44995  16.765  16.717  14.575 -0.0290 -0.1134  0.4080
 2083W        W44996  31.581   0.628  18.104 -0.1423  0.0307  0.3471
 2084W        W44997  29.804   9.756  19.231  0.0835  0.1289  0.0961
 2085W        W44998  27.822   7.825  14.781  0.1204  0.1277 -0.0087
 2086W        W44999  22.983  15.591  19.385 -0.1836  0.0188 -0.0176
 2087W        W45000   4.980  13.989  18.733 -0.1041  0.0628  0.1013
 2088W        W45001  27.447  13.773  21.711  0.0710 -0.3642  0.2268
 2089W        W45002  22.245  18.189  18.317 -0.2294  0.0440  0.2300
 2090W        W45003  17.355   5.038  17.370  0.0926  0.0989  0.1231
 2091W        W45004  26.401  20.623  13.167 -0.2087  0.1393  0.1310
 2092W        W45005  33.567  12.075  16.037  0.1103  0.4867 -0.3690
 2093W        W45006  21.544  11.218  15.711 -0.1550  0.1672  0.0505
 2094W        W45007  16.442  16.455  13.741 -0.1324 -0.1220  0.1336
 2095W        W45008  33.456  16.608  13.762 -0.1473  0.1731 -0.0557
 2096W        W45009  18.083  20.278  13.428  0.1674  0.0519  0.0032
 2097W        W45010  27.824   6.124  21.302 -0.2283 -0.1359 -0.0597
 2098W        W45011  16.905   7.602  15.397  0.2393 -0.0537  0.0266
 2099W        W45012  23.994   2.984  15.207 -0.0054 -0.0723 -0.1639
 2100W        W45013  19.273  11.603  16.689  0.2338 -0.1178 -0.3143
 2101W        W45014  24.304  18.067  19.975  0.0316 -0.0012  0.0691
 2102W        W45015  19.656  11.296  18.766 -0.0600  0.2230  0.0800
 2103W        W45016  13.393   5.511  23.559 -0.1799 -0.3241  0.5199
 2104W        W45017  27.759   8.440  15.523  0.0516 -0.0428 -0.1559
 2105W        W45018  25.565   7.915  14.283 -0.1139  0.0319  0.0085
 2106W        W45019   8.304  13.813  23.345 -0.0620 -0.0209  0.1143
 2107W        W45020  28.770   0.815  16.427  0.0029 -0.0220 -0.0690
 2108W        W45021  19.086  10.443  20.450  0.1427 -0.3668  0.0890
 2109W        W45022  21.061   6.964  17.250 -0.0833 -0.1660  0.2828
 2110W        W45023   9.152  17.310  13.778  0.5096 -0.4147 -0.0009
 2111W        W45024  26.047   7.582  14.828  0.0165 -0.0439  0.0184
 2112W        W45025  28.215   6.757  16.216 -0.1466 -0.0663 -0.2027
 2113W        W45026   5.792   1.934  18.838  0.0300 -0.0890  0.0340
 2114W        W45027  28.325  33.872  19.341 -0.2567  0.0617 -0.1001
 2115W        W45028  23.110   9.623  16.404 -0.1423  0.3014 -0.0577
 2116W        W45029  19.763  13.593  18.549 -0.0786 -0.0744 -0.0046
 2117W        W45030  28.094  20.585  19.700 -0.0084 -0.3558  0.1546
 2118W        W45031  27.331  11.173  23.670 -0.0268 -0.1338  0.1522
 2119W        W45032  26.584  16.626  19.228  0.0816  0.3784  0.0826
 2120W        W45033  27.684   0.976  25.999  0.0510  0.1940  0.0477
 2121W        W45034  31.579   9.409  14.251 -0.0254  0.2696 -0.0405
 2122W        W45035  25.469  12.308  18.531  0.4308  0.1403 -0.0004
 2123W        W45036  19.715  11.238  16.145 -0.0811 -0.2451  0.0714
 2124W        W45037  24.730  10.890  15.998 -0.1487  0.0300  0.0992
 2125W        W45038  21.706   9.757  17.267  0.0015 -0.0338 -0.3008
 2126W        W45039  27.964  16.635  22.914  0.0737  0.3141  0.1197
 2127W        W45040  31.517  15.271  15.087 -0.1154 -0.0993 -0.1341
 2128W        W45041  29.882   7.239  23.425 -0.0332 -0.0228 -0.1798
 2129W        W45042  30.246  14.957  19.519 -0.0799  0.1102  0.2821
 2130W        W45043  18.368   7.694  16.078  0.3383  0.0727  0.0321
 2131W        W45044  34.495   2.608  28.451  0.0447  0.2749  0.2448
 2132W        W45045  27.177   8.915  20.580  0.1553 -0.2940 -0.1705
 2133W        W45046  25.447  20.439  12.642 -0.0866  0.1298  0.5108
 2134W        W45047  23.353  14.992  13.040 -0.1468 -0.1919 -0.2131
 2135W        W45048  23.079  13.675  13.224  0.0902  0.1014 -0.0449
 2136W        W45049  21.453   1.896  15.947 -0.1328  0.0836  0.2764
 2137W        W45050  30.615   8.258  15.301 -0.0338  0.0301 -0.0577
 2138W        W45051  30.733  14.219  19.985  0.2566 -0.2125 -0.0709
 2139W        W45052  24.367  24.985  16.893  0.0751  0.1353 -0.1506
 2140W        W45053  26.125  13.051  17.885  0.3213 -0.0251  0.1922
 2141W        W45054  21.804   7.889  23.343 -0.2498  0.2419  0.1070
 2142W        W45055  19.959  14.479  29.527 -0.3993  0.5774 -0.0839
 2143W        W45056  24.096   2.068  14.792  0.2740  0.0998  0.0422
 2144W        W45057  19.606  10.196  28.207  0.2031 -0.1385 -0.0805
 2145W        W45058  28.346  11.660  26.896  0.0183  0.1249  0.2277
 2146W        W45059  22.876  11.700  20.381  0.2981  0.0909  0.0737
 2147W        W45060  16.568  24.692  18.889 -0.1122  0.1055 -0.0643
 2148W        W45061  25.528  11.833  17.811 -0.1007 -0.1482 -0.0321
 2149W        W45062  21.761   0.122  24.750 -0.2724  0.0223 -0.1013
 2150W        W45063  20.362  23.046  19.742  0.2804  0.2405  0.3106
 2151W        W45064  26.820   0.112  17.049 -0.0188 -0.1040 -0.1891
 2152W        W45065  30.277   6.620  15.015 -0.0204  0.1499 -0.1592
 2153W        W45066  26.409  12.987  14.868  0.2597  0.1989 -0.1530
 2154W        W45067  23.378  14.589  17.263 -0.2463 -0.0238 -0.0354
 2155W        W45068  25.025  32.136  21.538  0.2342  0.3531  0.0470
 2156W        W45069  30.213  12.067  16.605  0.0053 -0.0248  0.0149
 2157W        W45070  16.808  31.591  17.633  0.0734  0.1056 -0.3262
 2158W        W45071  28.914   4.076  16.466 -0.0947  0.0139 -0.3165
 2159W        W45072   4.133  14.696  14.990 -0.1588  0.3618  0.1704
 2160W        W45073  24.646   9.227  20.665 -0.1797 -0.2744  0.1809
 2161W        W45074  31.453  11.763  19.292  0.0686 -0.2698  0.2080
 2162W        W45075  34.444  16.179  16.727 -0.2939 -0.0390 -0.1513
 2163W        W45076  13.515  15.899  22.208 -0.3998  0.0200 -0.1330
 2164W        W45077  14.858  33.096  24.298  0.0634  0.1050 -0.2218
 2165W        W45078  34.033  16.877  18.511  0.4252 -0.3794 -0.3537
 2166W        W45079  22.886   9.829  16.821 -0.1318  0.0724 -0.1783
 2167W        W45080  22.142  26.201  18.565 -0.0700 -0.2290  0.3381
 2168W        W45081  20.825  13.091  21.555 -0.1224  0.0133  0.0399
 2169W        W45082  26.606  21.602  17.030  0.0505  0.2074 -0.0797
 2170W        W45083  24.049   6.229  21.378 -0.1294 -0.1387  0.2383
 2171W        W45084  16.108  15.224  13.433  0.0660 -0.0376  0.2808
 2172W        W45085  18.463  32.461  17.676 -0.0104  0.0768 -0.0473
 2173W        W45086  16.370   9.805  16.721 -0.3294  0.1812 -0.0755
 2174W        W45087  14.522   4.464  17.238  0.2176  0.1902  0.1343
 2175W        W45088  26.089  18.329  15.068  0.2888 -0.3039  0.1278
 2176W        W45089  21.696  17.989  13.099 -0.2707  0.0226  0.0390
 2177W        W45090  15.063  10.717  14.723  0.2072  0.0626  0.0143
 2178W        W45091  13.236   8.033  20.187  0.0660  0.0403  0.3117
 2179W        W45092  29.796  19.046  19.305 -0.2939 -0.0437  0.0751
 2180W        W45093  15.303  23.632  17.096 -0.1577  0.2832  0.0088
 2181W        W45094  27.279   8.803  17.245  0.0014 -0.0517 -0.3178
 2182W        W45095  18.655   8.512  15.614  0.2611  0.0740 -0.0215
 2183W        W45096  28.988  11.356  19.120  0.1894 -0.2071  0.1039
 2184W        W45097  22.233  15.031  22.360  0.0653 -0.3730  0.1112
 2185W        W45098  31.837   6.113  25.993 -0.0316  0.0906 -0.2277
 2186W        W45099  27.748   8.413  17.068 -0.1439  0.1058  0.2614
 2187W        W45100  24.776  13.555  16.016 -0.0415 -0.0262 -0.2436
 2188W        W45101  19.813   4.652   0.524 -0.1348  0.0230  0.1183
 2189W        W45102  15.311   9.318   1.036  0.4504 -0.1161 -0.0704
 2190W        W45103  24.890  24.207  12.809 -0.2501  0.2930 -0.1393
 2191W        W45104  16.140  18.236  13.786  0.1246  0.4711 -0.1782
 2192W        W45105  15.002  11.549  26.940 -0.0733  0.0398  0.1833
 2193W        W45106  22.282   8.544  16.421 -0.2394  0.0428 -0.0630
 2194W        W45107  19.263   4.200  17.662  0.1315  0.1994 -0.2131
 2195W        W45108  14.701  10.740  17.596  0.0361 -0.1852 -0.0112
 2196W        W45109  24.468  18.306  15.879  0.3027  0.2668  0.1620
 2197W        W45110  19.080   3.960  29.194 -0.1411  0.1294 -0.0781
 2198W        W45111  11.563  13.241  23.924  0.2135  0.1150  0.4666
 2199W        W45112   0.687  14.550  20.258  0.0606 -0.0641  0.2033
 2200W        W45113  28.406  13.049  19.004 -0.1690 -0.0806 -0.0424
 2201W        W45114  21.579   7.644  20.742  0.2726 -0.2168 -0.0510
 2202W        W45115  23.132  10.490  13.300  0.2184 -0.2167 -0.2505
 2203W        W45116  28.121   8.955  18.475 -0.0752 -0.2186  0.2581
 2204W        W45117  29.072  31.512  24.696  0.3335 -0.1938  0.1474
 2205W        W45118  21.806  10.093  18.567 -0.0970 -0.2426 -0.0791
 2206W        W45119  27.803   0.461  20.800  0.1717 -0.2372  0.2040
 2207W        W45120  25.476  32.702  20.576 -0.1552 -0.2987 -0.1130
 2208W        W45121   2.281   1.326  22.625  0.1587  0.0961  0.0763
 2209W        W45122  27.801   1.098  17.957 -0.1373  0.3485  0.0616
 2210W        W45123  22.686  16.430  26.025  0.2225 -0.0278 -0.1377
 2211W        W45124  18.809  13.533  12.573 -0.0556 -0.0524  0.0485
 2212W        W45125  20.816  34.370  20.349  0.0913  0.0751 -0.0553
 2213W        W45126  15.433   2.340  16.313 -0.2204  0.1480 -0.2138
 2214W        W45127  22.129   9.634  16.406 -0.1160  0.0948 -0.0244
 2215W        W45128   0.194   4.210  24.849  0.0723  0.0063 -0.3673
 2216W        W45129  24.063  19.821  18.303 -0.3815  0.1336  0.2078
 2217W        W45130  25.294   8.244  25.551 -0.1818 -0.2742 -0.1024
 2218W        W45131  21.343  13.421  12.586 -0.0691  0.2414  0.1053
 2219W        W45132  27.008   7.448  14.363 -0.1494 -0.0077  0.0955
 2220W        W45133  25.912  14.351  19.103 -0.1601 -0.2648 -0.2178
 2221W        W45134  34.128   9.524  18.063 -0.1124  0.2443 -0.1211
 2222W        W45135   0.602  14.774  19.242  0.0053 -0.3255  0.0515
 2223W        W45136  25.006  21.780  13.813  0.2608 -0.1865 -0.0798
 2224W        W45137  18.089  13.198  14.110 -0.0725  0.1085  0.0551
 2225W        W45138  20.964   3.069  25.352 -0.0029 -0.1432 -0.2071
 2226W        W45139  20.806   7.680  17.894 -0.0576 -0.1170 -0.2418
 2227W        W45140  19.700   7.872  25.669 -0.0357 -0.1987 -0.1857
 2228W        W45141  19.785   8.871  20.415  0.0862 -0.1181 -0.1117
 2229W        W45142  20.604   0.807  20.162 -0.0327  0.0120  0.0478
 2230W        W45143  17.986  10.153  16.764  0.3017 -0.0230 -0.2542
 2231W        W45144   0.845   4.753  18.739 -0.0454 -0.0240 -0.2670
 2232W        W45145  24.419   0.920  21.951  0.1970  0.2101  0.1494
 2233W        W45146  23.029  16.573  21.492 -0.1789 -0.0413 -0.0340
 2234W        W45147  19.693   7.510  21.212  0.2052  0.0613  0.3875
 2235W        W45148  20.417   2.176  20.630 -0.0438  0.2648  0.1011
 2236W        W45149   7.418   8.857  22.413  0.0793  0.2179 -0.1795
 2237W        W45150  12.843  18.497  21.161  0.0813  0.1252 -0.3287
 2238W        W45151   6.417  15.389  24.026  0.1331 -0.0872 -0.4990
 2239W        W45152  15.685  31.932  26.306 -0.1021 -0.3128 -0.1221
 2240W        W45153  26.967  31.282  16.289 -0.1907  0.0834 -0.2544
 2241W        W45154  31.113   7.001  22.139 -0.0192  0.2931 -0.0040
 2242W        W45155  28.946   7.547  15.947 -0.2884 -0.0600 -0.2321
 2243W        W45156  30.555  19.901  29.745 -0.2894  0.1412 -0.1488
 2244W        W45157   0.485  15.487  20.232 -0.0787  0.2872 -0.0836
 2245W        W45158  16.045   8.184  20.490  0.0891  0.2352  0.2399
 2246W        W45159  19.473  25.355  14.532  0.0568 -0.0775  0.0062
 2247W        W45160  27.327   5.776  16.688  0.0411  0.2237 -0.1510
 2248W        W45161  23.276  10.276  15.246 -0.1601 -0.4977  0.0087
 2249W        W45162  21.386   4.968  13.558 -0.1961  0.0283  0.2495
 2250W        W45163  27.881  10.770  15.909 -0.4739 -0.2326 -0.1285
 2251W        W45164   0.404   6.749  16.468 -0.1726 -0.1280  0.3360
 2252W        W45165  20.446  10.629  23.293 -0.0161  0.1716 -0.1394
 2253W        W45166  32.084   5.721  26.702  0.1061  0.0953  0.2005
 2254W        W45167  23.475   6.689  16.222  0.0934  0.0125 -0.0989
 2255W        W45168  22.851   8.115  27.401  0.4158  0.0945  0.2249
 2256W        W45169  18.973   8.001  28.875 -0.0150  0.1958  0.2087
 2257W        W45170  28.452  32.886  28.065  0.1540 -0.1011 -0.2350
 2258W        W45171  29.695  13.217  24.604  0.3046  0.2541  0.0009
 2259W        W45172  34.344  12.601  16.974  0.1726  0.1440 -0.3374
 2260W        W45173  20.051  11.164  23.634 -0.1722 -0.4118 -0.4468
 2261W        W45174  27.433   9.713  18.596  0.2443 -0.1659 -0.3485
 2262W        W45175  27.068  15.396  17.084  0.0356 -0.0422 -0.3821
 2263W        W45176  31.599   4.777  15.747 -0.2243  0.0592 -0.0986
 2264W        W45177  19.693   6.901  17.352 -0.0803  0.1708 -0.1155
 2265W        W45178  18.365  10.468  15.384 -0.0479  0.1370 -0.2244
 2266W        W45179  20.079   2.876  15.505 -0.2816 -0.0639 -0.1460
 2267W        W45180  27.657  12.158  21.247  0.2033  0.0449  0.4410
 2268W        W45181  14.964  16.096  15.140  0.1396 -0.0426  0.1646
 2269W        W45182  15.749   8.297  27.891  0.4346 -0.2511  0.2588
 2270W        W45183  20.504   2.235  24.898 -0.0083  0.1503 -0.0241
 2271W        W45184  24.287  12.972  19.284 -0.0590  0.1466  0.0482
 2272W        W45185  23.377   6.511  21.996 -0.4033  0.0829  0.0875
 2273W        W45186  26.232   9.911  17.182 -0.2945 -0.3416  0.0030
 2274W        W45187  26.085  10.578   5.504 -0.1016  0.1243  0.0896
 2275W        W45188  27.303  15.210  17.673 -0.0736 -0.3795  0.0635
 2276W        W45189  19.696   3.568  27.612  0.0657 -0.0082  0.0999
 2277W        W45190  25.070  11.050  23.382 -0.1265 -0.0268 -0.1938
 2278W        W45191  21.449   6.654  17.561  0.0738 -0.2414 -0.1020
 2279W        W45192  22.242  16.172  21.271  0.2881 -0.0624 -0.0207
 2280W        W45193  21.758  34.276  24.417 -0.1309 -0.0759 -0.3947
 2281W        W45194  20.893   9.250  14.812  0.0879  0.0883 -0.0648
 2282W        W45195  23.933   7.618  22.357 -0.0253 -0.2720 -0.0385
 2283W        W45196  18.695   8.854  27.588 -0.0201  0.0343  0.1008
 2284W        W45197  21.623   9.909  13.287  0.1256 -0.1109 -0.0952
 2285W        W45198  21.564  20.944  12.753 -0.1855  0.0450  0.3712
 2286W        W45199  25.026  33.822  23.083 -0.1177 -0.1517  0.3620
 2287W        W45200  12.892  27.348  22.274  0.1129 -0.0280 -0.1270
 2288W        W45201  16.118  16.154  13.985  0.2075 -0.0929  0.1845
 2289W        W45202  10.628   6.300  23.244  0.1511 -0.1292  0.0389
 2290W        W45203   1.528  33.300  27.438 -0.2398 -0.2395 -0.0783
 2291W        W45204  29.406   5.799  24.749 -0.2672 -0.1079 -0.0551
 2292W        W45205  24.916  12.543  26.220  0.1681  0.2861 -0.3450
 2293W        W45206  27.012  16.841  25.042 -0.1903  0.2930 -0.0819
 2294W        W45207  19.967  12.555   2.415  0.1236 -0.2187  0.0246
 2295W        W45208   4.957   5.281  16.920  0.0721 -0.1607 -0.1724
 2296W        W45209  28.626  30.860   1.728 -0.1625 -0.6114  0.4331
 2297W        W45210  22.530  11.132  18.781 -0.1169  0.0445 -0.0925
 2298W        W45211  21.372  11.876  12.489  0.0602 -0.1230 -0.1328
 2299W        W45212  28.696  20.352  17.545 -0.0882 -0.0065 -0.1003
 2300W        W45213  23.405  11.916  18.661  0.0821 -0.1264 -0.1219
 2301W        W45214  21.090   6.850  16.706  0.0698  0.2463 -0.0093
 2302W        W45215  32.171  14.414  16.773  0.3152 -0.0728  0.0953
 2303W        W45216  29.035  10.002  20.588 -0.1969 -0.1400  0.0133
 2304W        W45217  22.564   5.810  14.787 -0.1988 -0.1971  0.1666
 2305W        W45218  33.120  10.337  22.412  0.1644  0.0493  0.1867
 2306W        W45219  29.701   1.312  16.720 -0.0949 -0.1700 -0.3540
 2307W        W45220  22.614   8.265  19.095 -0.2829 -0.0775 -0.0734
 2308W        W45221  20.615  11.050  12.883 -0.0734  0.1261 -0.0430
 2309W        W45222  18.471   7.067  20.127  0.3619 -0.1737  0.1156
 2310W        W45223  23.775   1.436  21.499 -0.1818 -0.0035  0.0090
 2311W        W45224  30.961  31.856  17.539 -0.0919 -0.1673  0.0928
 2312W        W45225  29.130   8.095  22.734 -0.2905 -0.0569 -0.0922
 2313W        W45226  23.026  29.540  19.868 -0.2894  0.0023  0.2725
 2314W        W45227  17.126   5.292  14.785 -0.0881 -0.5119  0.2520
 2315W        W45228  28.930  12.221  18.022 -0.3844 -0.0684  0.1147
 2316W        W45229  17.117   4.710  16.928  0.1922  0.3896 -0.3122
 2317W        W45230  24.644   0.215  14.225  0.2612 -0.0919 -0.1303
 2318W        W45231  30.960  15.141  13.865 -0.0250  0.0944  0.2629
 2319W        W45232  12.905  15.822  19.382 -0.0182  0.2573 -0.0290
 2320W        W45233  25.411  10.255  15.949 -0.0279  0.3407  0.0648
 2321W        W45234  25.184   6.224  21.535  0.1192  0.1095  0.0885
 2322W        W45235  14.479   5.245  17.037 -0.0209 -0.0354 -0.0942
 2323W        W45236  25.570  13.907  27.218  0.0589  0.1957 -0.3041
 2324W        W45237  20.926   8.504  22.520  0.2479  0.0550 -0.1173
 2325W        W45238  19.364  11.522  12.776  0.0480  0.0225 -0.0943
 2326W        W45239  29.052  31.495  26.751  0.4753 -0.0625  0.1527
 2327W        W45240  30.464  10.347  21.656  0.0110  0.0614  0.0147
 2328W        W45241  26.944  16.180  21.708  0.1087  0.0330 -0.0883
 2329W        W45242  25.074   9.162  16.410  0.3627  0.1147  0.2165
 2330W        W45243  22.892  10.599  14.481  0.1433  0.3337 -0.0163
 2331W        W45244  19.245   4.669  20.732  0.1857 -0.0368  0.2082
 2332W        W45245  21.089   0.081  24.514  0.0019  0.1931 -0.1046
 2333W        W45246  30.752   6.115  16.643 -0.1078  0.1388 -0.2810
 2334W        W45247  16.270   9.842  23.691 -0.1915 -0.0306 -0.1106
 2335W        W45248  19.517   0.519  20.843 -0.3090 -0.1480 -0.1047
 2336W        W45249  22.311   8.312  17.596  0.1076 -0.0528 -0.2393
 2337W        W45250  30.791   9.303  16.869  0.0649  0.1331  0.0046
 2338W        W45251  14.109   7.089  17.187 -0.0801  0.2358  0.0146
 2339W        W45252  25.599   3.710  25.585 -0.1828  0.0018 -0.4014
 2340W        W45253  22.085   8.906  24.241  0.2039  0.4106 -0.2146
 2341W        W45254  20.589   6.641  14.935  0.2341 -0.1306  0.1310
 2342W        W45255  26.480   1.988  26.937  0.1426 -0.0192 -0.1174
 2343W        W45256  21.749  17.848  22.647 -0.0215 -0.0520  0.2183
 2344W        W45257  25.537  10.299  18.133 -0.1504  0.0085 -0.1058
 2345W        W45258  28.485  14.384  25.263  0.0774 -0.0124  0.1226
 2346W        W45259  21.853   9.973   0.522  0.3755 -0.1694  0.1635
 2347W        W45260  25.408  13.539  19.846  0.0273 -0.1641  0.2482
 2348W        W45261  23.885  34.287  21.569 -0.1608  0.0875  0.2166
 2349W        W45262  17.915   4.705  15.101  0.2395  0.3421 -0.0645
 2350W        W45263   5.044  17.398  25.113  0.0305  0.1355  0.0583
 2351W        W45264  20.383   4.985  29.682  0.2906  0.2819 -0.1818
 2352W        W45265  24.305   7.153  14.774 -0.2600  0.2130  0.3118
 2353W        W45266  17.376  31.932  14.671  0.3654  0.0046 -0.1447
 2354W        W45267  27.386  15.019  27.349 -0.1721 -0.2202  0.0988
 2355W        W45268  33.245  21.639   6.621 -0.1529 -0.1982  0.0204
 2356W        W45269   0.820  14.220  15.432 -0.2763 -0.0436  0.0109
 2357W        W45270  21.676  33.156  18.093  0.1500 -0.0458 -0.0439
 2358W        W45271  22.789  18.611  24.493  0.0403 -0.1500  0.0602
 2359W        W45272  31.203   6.859  18.081 -0.1522 -0.1805 -0.3254
 2360W        W45273  22.527  15.233  19.429  0.1912 -0.0965  0.1270
 2361W        W45274  10.331   2.541  17.808 -0.0549 -0.1011 -0.2470
 2362W        W45275  23.694   2.576  22.319 -0.0841 -0.1280 -0.1502
 2363W        W45276  30.064  25.901  18.967 -0.2485 -0.0039  0.0034
 2364W        W45277  24.580  12.065  13.376 -0.1758 -0.2876  0.0589
 2365W        W45278  29.291   2.998  14.965 -0.1099  0.0012 -0.2768
 2366W        W45279  15.758  28.984  26.135 -0.2696  0.2556  0.1821
 2367W        W45280  21.236  19.759  18.811 -0.0822  0.0322 -0.1473
 2368W        W45281  29.922   2.980  19.694  0.0237  0.3112 -0.4156
 2369W        W45282  24.055  18.583  15.755  0.0195 -0.1745  0.0944
 2370W        W45283  22.982  12.119  14.356 -0.1431  0.0836  0.2777
 2371W        W45284  25.210  14.728  17.953  0.0972  0.0189  0.0005
 2372W        W45285   6.643  12.896   0.019 -0.1134 -0.2958 -0.0605
 2373W        W45286  19.087  10.711  27.073  0.0671  0.0038  0.0624
 2374W        W45287  18.737  10.446  20.891  0.1748 -0.1465 -0.1260
 2375W        W45288  26.500  11.957  22.813  0.1268  0.2532 -0.1455
 2376W        W45289  22.129   6.772   0.713 -0.1825  0.2298  0.0830
 2377W        W45290  19.177   4.685  25.122 -0.4910  0.0390  0.0385
 2378W        W45291  16.582  10.711  13.421 -0.1915 -0.1361  0.0550
 2379W        W45292  13.016   0.113  26.722 -0.0792 -0.1724  0.0633
 2380W        W45293  18.163  31.169  14.421 -0.1094  0.1655 -0.1548
 2381W        W45294  23.678   2.416  25.136  0.4751 -0.2522  0.0507
 2382W        W45295  26.395   9.543  19.596  0.0083  0.1420 -0.0538
 2383W        W45296  17.102  15.847  14.841 -0.0405  0.0390 -0.1175
 2384W        W45297  28.615  12.636  26.141 -0.1098  0.0974  0.1231
 2385W        W45298  28.062   4.230  29.670 -0.3179  0.0669 -0.4675
 2386W        W45299  20.932  15.726  13.565 -0.1423  0.0060  0.0622
 2387W        W45300  21.825  20.077  23.768 -0.0690  0.3658 -0.2627
 2388W        W45301  27.661  14.538  26.905  0.2493  0.1750 -0.1135
 2389W        W45302  24.964   7.793  29.015 -0.0595  0.2778  0.0776
 2390W        W45303   9.807  29.949   1.590 -0.0599  0.0892 -0.0290
 2391W        W45304  24.712  27.801  19.462  0.0408  0.1308 -0.1619
 2392W        W45305  32.634  10.229  15.997 -0.0678  0.0088  0.0659
 2393W        W45306  30.244  11.124  14.819 -0.0473  0.1595 -0.2522
 2394W        W45307  24.194   8.897  28.295 -0.1804 -0.0013  0.0773
 2395W        W45308  18.579   6.740  22.655  0.0426 -0.0893  0.0963
 2396W        W45309  21.501   3.514  18.052  0.1533  0.1625  0.3434
 2397W        W45310  24.342   9.275  17.958 -0.1978 -0.0602 -0.0548
 2398W        W45311  19.219   1.256  27.703 -0.0213  0.1029  0.1068
 2399W        W45312   0.594   4.493  23.092 -0.2628 -0.2749 -0.3182
 2400W        W45313  24.308  10.539  23.383  0.1588  0.1400  0.2111
 2401W        W45314  29.807  17.659  15.273  0.0439  0.0251 -0.1602
 2402W        W45315  19.255   9.586  14.173 -0.0070  0.0102  0.2769
 2403W        W45316  20.327   7.635  27.333 -0.0154  0.0031  0.0431
 2404W        W45317  24.885  13.887  23.251 -0.1769  0.0952  0.1438
 2405W        W45318  18.182   6.183  23.766  0.1361 -0.2440 -0.3643
 2406W        W45319  19.086  12.956  24.066  0.1821  0.1318  0.0481
 2407W        W45320  15.474   8.874  15.331 -0.2558  0.0336  0.0697
 2408W        W45321  20.345  30.600  21.703 -0.2275 -0.1104 -0.1535
 2409W        W45322  32.861   4.865  24.532  0.1995 -0.2257 -0.1628
 2410W        W45323  26.875   2.495  22.792 -0.2386 -0.0380  0.1039
 2411W        W45324  30.119   4.653  18.945  0.0235  0.1161  0.0456
 2412W        W45325  21.639  10.549  21.497  0.0748 -0.1087 -0.0751
 2413W        W45326  17.410  10.094  22.706  0.0963 -0.2401 -0.0330
 2414W        W45327  27.722   3.747  15.509  0.0668 -0.2689 -0.0307
 2415W        W45328  27.849   1.319   2.276  0.0664 -0.1300  0.0175
 2416W        W45329  15.174  25.582  23.160  0.2685  0.2059  0.0318
 2417W        W45330  33.091  10.351  15.662 -0.2962 -0.2000 -0.1496
 2418W        W45331  21.827  15.818  15.735  0.0991  0.1941 -0.0421
 2419W        W45332  21.386   6.470  14.903 -0.1367  0.0755  0.1710
 2420W        W45333  25.951  14.946  16.662 -0.4333 -0.1554  0.2225
 2421W        W45334  19.443  33.049  18.497  0.1104 -0.0218 -0.0794
 2422W        W45335  22.868  15.963  15.353 -0.1680  0.2191  0.0951
 2423W        W45336  29.326  15.012  20.629  0.2304  0.0970  0.0853
 2424W        W45337  20.697   2.887  16.860  0.4846 -0.1679 -0.3116
 2425W        W45338  29.831   3.004  20.500  0.1306 -0.3540 -0.0698
 2426W        W45339  10.934   1.480  17.208  0.0748  0.0823  0.0113
 2427W        W45340  30.296   8.641  19.269 -0.2279  0.0828  0.1629
 2428W        W45341   6.661   1.757  19.341 -0.0874 -0.0465  0.2372
 2429W        W45342  14.027   9.745  14.523 -0.1925 -0.1146  0.1353
 2430W        W45343  27.674  19.803  19.736 -0.4436  0.2781  0.1806
 2431W        W45344  24.214  20.097  16.078  0.0397 -0.2692  0.1849
 2432W        W45345  22.407  19.320  18.093  0.0407  0.1557 -0.2209
 2433W        W45346  24.501   5.747  15.184 -0.0514  0.2497  0.2487
 2434W        W45347  18.891  33.455  15.578  0.0909  0.1210  0.0108
 2435W        W45348  23.736  34.490  27.416 -0.0683  0.2197 -0.0885
 2436W        W45349  24.646   7.924  18.058 -0.0249  0.3737  0.0431
 2437W        W45350  25.114  12.866  26.993  0.3693 -0.1583 -0.2366
 2438W        W45351  10.895  14.592  19.586  0.0574  0.0532 -0.0876
 2439W        W45352  19.520   7.993  21.122 -0.2736  0.0886  0.2559
 2440W        W45353  21.549   6.442  13.158  0.1489  0.1029  0.1891
 2441W        W45354  21.753  11.264  14.593  0.2594 -0.2053 -0.0011
 2442W        W45355  26.620  19.403  14.396  0.0081  0.1429 -0.2768
 2443W        W45356  24.232   9.198  14.086  0.0802 -0.1274 -0.1041
 2444W        W45357  26.052  26.217   1.068  0.2801  0.0519 -0.0162
 2445W        W45358  23.638  13.444  15.411 -0.1881  0.1608 -0.0039
 2446W        W45359  32.608  11.251  16.568 -0.0484 -0.0511 -0.2633
 2447W        W45360  26.829  16.568  14.166 -0.0162  0.2796  0.1905
 2448W        W45361  25.298  10.759  19.699 -0.0683 -0.1574 -0.1717
 2449W        W45362  18.834  10.771  15.373  0.1390  0.1730 -0.1096
 2450W        W45363  30.119  32.372  21.697 -0.2692  0.0032  0.0174
 2451W        W45364  31.953  16.692  13.307  0.0845 -0.0208 -0.1734
 2452W        W45365  20.542  15.816  11.827 -0.1988 -0.1370 -0.2368
 2453W        W45366  25.358   4.953  24.320 -0.1042 -0.0173 -0.1410
 2454W        W45367  18.392  20.682  13.678  0.0281 -0.2049 -0.0093
 2455W        W45368  23.055   3.843  29.404 -0.1160 -0.0148  0.6707
 2456W        W45369  27.018   1.429  14.477 -0.1173  0.1695 -0.1025
 2457W        W45370  22.487  13.128  22.865  0.2548 -0.1776 -0.0661
 2458W        W45371  24.372   6.036  27.050 -0.1040 -0.2486 -0.1617
 2459W        W45372  22.849   3.364  16.349  0.0259  0.3011 -0.2836
 2460W        W45373  27.324  14.451  24.586  0.0168  0.0250  0.2333
 2461W        W45374  15.801  10.402  15.587 -0.1080  0.0868 -0.0250
 2462W        W45375  21.302  17.580  16.661 -0.1116 -0.2678 -0.1598
 2463W        W45376  23.427  10.726  19.057 -0.2377 -0.0246 -0.3518
 2464W        W45377  30.413   9.578  17.588 -0.0169 -0.0472 -0.2064
 2465W        W45378  24.417  15.518  21.454 -0.2682  0.1431  0.3867
 2466W        W45379  19.005  30.166  24.559 -0.1328  0.2822  0.0415
 2467W        W45380  28.169  11.464  15.407  0.0758 -0.1221 -0.0280
 2468W        W45381  32.069  17.110  17.841  0.4217  0.1014  0.1583
 2469W        W45382  27.069   9.462  18.420 -0.1286  0.2833  0.4906
 2470W        W45383  27.559   8.475  29.071 -0.1322  0.1024 -0.0805
 2471W        W45384  27.919  15.517  24.262 -0.0389  0.3740 -0.3141
 2472W        W45385  19.324  16.403  22.708  0.1412  0.0558 -0.0768
 2473W        W45386  20.973  15.018  25.247  0.3338 -0.3326  0.0397
 2474W        W45387  20.554   0.424  22.638  0.3162  0.3834 -0.1416
 2475W        W45388  27.146  11.213  20.529  0.0304  0.0868  0.3450
 2476W        W45389  31.873  10.096   0.154  0.1679 -0.1440 -0.0381
 2477W        W45390  32.106   7.190  16.336 -0.0166  0.2312  0.1108
 2478W        W45391  19.826  31.359  25.384  0.0786 -0.0089 -0.0138
 2479W        W45392   1.235  10.943  15.702  0.1228  0.0052 -0.0792
 2480W        W45393  26.679  21.738   4.940 -0.1286  0.3390 -0.1822
 2481W        W45394  22.124  16.090  23.674  0.1918  0.0841  0.0171
 2482W        W45395  18.472   3.441  24.612  0.1706  0.2147  0.0119
 2483W        W45396  25.720   8.079  22.223  0.2762  0.2489 -0.1689
 2484W        W45397  19.103   0.888  26.892 -0.1818  0.0057 -0.2766
 2485W        W45398  27.260   8.644  16.382 -0.1955 -0.3142  0.0475
 2486W        W45399  16.176   6.382  24.307 -0.0704  0.1544 -0.1866
 2487W        W45400  25.084   6.384   1.354  0.2006  0.1483  0.1619
 2488W        W45401  20.013  10.716  24.610 -0.2928  0.0241 -0.2510
 2489W        W45402  12.119   2.071  18.964 -0.0639  0.3331  0.1361
 2490W        W45403  17.175   3.525  14.500 -0.2333  0.0428 -0.0085
 2491W        W45404  20.593   0.503  16.208  0.0712  0.1230 -0.0539
 2492W        W45405  19.603  18.212  12.782 -0.3376  0.1788 -0.2079
 2493W        W45406  14.140   9.654  20.539  0.1850  0.0000  0.0956
 2494W        W45407  22.244  30.474  21.230  0.0956  0.2606  0.4574
 2495W        W45408  20.119  29.790  23.866 -0.0177  0.2056  0.1895
 2496W        W45409  26.319   7.246  19.370  0.0908 -0.0156 -0.2637
 2497W        W45410  23.001   7.794  19.582  0.1327 -0.3352 -0.0699
 2498W        W45411  29.212  16.046  16.353 -0.2059  0.1506 -0.2705
 2499W        W45412  22.993  30.617  20.768 -0.1019  0.1211 -0.1170
 2500W        W45413  18.449   5.504  19.196  0.0840 -0.0613 -0.1164
 2501W        W45414  16.012  12.460  15.422  0.1451 -0.0363 -0.2516
 2502W        W45415  14.047   6.127  16.673 -0.0526 -0.2008  0.1125
 2503W        W45416  15.081   7.505  24.693 -0.2618 -0.1140 -0.0813
 2504W        W45417  32.920  15.225  19.366 -0.3580 -0.2086 -0.0580
 2505W        W45418  19.346  30.917  17.680  0.2361 -0.2965  0.2840
 2506W        W45419  30.363  19.809  14.245  0.2198 -0.3340 -0.3368
 2507W        W45420  24.572  15.994  28.961  0.0774  0.2230  0.1183
 2508W        W45421  31.055  12.704  17.657 -0.0361 -0.0137 -0.1347
 2509W        W45422  26.481  27.969  27.210  0.1637 -0.0684  0.0392
 2510W        W45423  28.554   3.673   1.902 -0.4646 -0.1089  0.1966
 2511W        W45424  27.737   3.057  20.872 -0.0374  0.0439 -0.1037
 2512W        W45425  18.679   0.979  21.437 -0.0593 -0.0773 -0.0529
 2513W        W45426  21.608  11.048  13.701  0.3317  0.0836  0.0135
 2514W        W45427  25.929   4.232  17.292 -0.0645 -0.1698 -0.1241
 2515W        W45428  11.636  24.180  23.584 -0.0216 -0.1905 -0.1848
 2516W        W45429  21.820  11.581  21.616 -0.2180 -0.1738 -0.0264
 2517W        W45430  19.469   6.822  18.805 -0.1609 -0.0257 -0.2914
 2518W        W45431  22.359  10.038  14.136  0.1234  0.3355 -0.1164
 2519W        W45432  18.891  15.782  14.409  0.1765  0.3879 -0.0798
 2520W        W45433  32.261  11.796  18.132  0.0841 -0.0294 -0.0404
 2521W        W45434  15.295   1.417  25.153 -0.1095 -0.2414  0.0012
 2522W        W45435  29.300  16.781  15.354  0.0014  0.0472  0.1077
 2523W        W45436  17.946   3.036   1.229  0.1129  0.0617 -0.3805
 2524W        W45437  30.767   4.071  22.759 -0.4486 -0.0055 -0.0612
 2525W        W45438  30.050   6.177  18.468 -0.2657  0.2012 -0.1390
 2526W        W45439  28.280   0.762  27.434  0.0539 -0.0339  0.1261
 2527W        W45440  26.649   7.258   0.529  0.1978 -0.0820 -0.1124
 2528W        W45441  17.579  15.400  12.831  0.2463 -0.0282  0.1847
 2529W        W45442  31.188   3.688  16.385  0.0881  0.1808  0.1746
 2530W        W45443  22.563   3.085  15.118  0.2301 -0.0685  0.0389
 2531W        W45444  16.873  33.031  21.628  0.1394  0.1147 -0.0486
 2532W        W45445  16.280  15.009  11.835  0.3321 -0.4615  0.0582
 2533W        W45446  17.731  34.379  17.411  0.0019 -0.0055  0.0470
 2534W        W45447  17.317  12.518  21.245  0.0341  0.1654 -0.0519
 2535W        W45448  18.472   2.063  21.820  0.1327 -0.0095 -0.1241
 2536W        W45449  31.215   9.424  15.222  0.0565 -0.0066  0.0171
 2537W        W45450  18.293  33.578  18.383  0.1678  0.1163  0.0313
 2538W        W45451  26.625   3.234   0.505  0.0554 -0.1019 -0.1163
 2539W        W45452  32.388   0.776  20.808  0.1273 -0.2571  0.2378
 2540W        W45453  18.623   8.385  20.089 -0.0030  0.0092 -0.0167
 2541W        W45454  27.629   4.618  26.359  0.1845  0.1609  0.1717
 2542W        W45455  30.593   5.766  18.116  0.0014 -0.0353  0.1291
 2543W        W45456   1.020  13.910  16.351  0.0945  0.0746 -0.0828
 2544W        W45457  28.347  11.874  22.715  0.2361 -0.3140 -0.0667
 2545W        W45458  28.962   1.242  21.188 -0.0620 -0.0010  0.1680
 2546W        W45459  32.171   5.280  19.827 -0.1290  0.2369 -0.0398
 2547W        W45460  21.098  11.068  13.550  0.1333  0.0955  0.0716
 2548W        W45461  17.218   9.291  22.170 -0.1164 -0.0208  0.1100
 2549W        W45462  23.137   0.525  25.238  0.1450 -0.0551 -0.0684
 2550W        W45463  13.324   6.833  17.527  0.1020 -0.0998  0.0858
 2551W        W45464  27.420   6.696  15.798  0.0129 -0.3629 -0.0084
 2552W        W45465  30.260  15.961  14.337 -0.0898  0.1454 -0.0468
 2553W        W45466  30.199  11.193  27.975 -0.2456 -0.2153 -0.2302
 2554W        W45467   8.346  16.064  14.954 -0.0281  0.1511 -0.0632
 2555W        W45468  26.874  11.149  18.154 -0.0120 -0.0442 -0.0756
 2556W        W45469  29.116   9.055  22.188  0.0245  0.3955 -0.1474
 2557W        W45470  25.714  11.920  28.762 -0.1245  0.0593  0.0606
 2558W        W45471   9.441  16.905  16.170  0.1333  0.1290 -0.1653
 2559W        W45472  30.900   9.010  23.248  0.1126  0.0186 -0.0174
 2560W        W45473  15.298   3.674  18.940  0.1367 -0.0277  0.2257
 2561W        W45474  30.801  33.592  22.100 -0.1357  0.2267  0.0430
 2562W        W45475  11.962  30.262  24.927 -0.0595  0.1226 -0.0887
 2563W        W45476  29.506   7.230  26.505  0.1133  0.1004 -0.0431
 2564W        W45477  21.418   0.205  27.093  0.1375 -0.0491  0.0943
 2565W        W45478  33.269  14.048   0.015 -0.0915  0.0567  0.0272
 2566W        W45479  24.244   6.595  13.570  0.3539  0.0757 -0.0914
 2567W        W45480  25.959  17.096  14.238 -0.0137  0.1057  0.0983
 2568W        W45481  23.542   4.010  14.270  0.1142  0.0358  0.1343
 2569W        W45482  16.420   9.285   7.317 -0.0207 -0.0606  0.0080
 2570W        W45483  19.812  13.841  15.643  0.0524 -0.0613 -0.2172
 2571W        W45484  21.505  11.002  14.941  0.3798 -0.0810  0.1072
 2572W        W45485  24.460  22.010  21.769  0.0942 -0.1835 -0.0367
 2573W        W45486  21.219  10.464  24.707  0.0819  0.0698  0.0992
 2574W        W45487  20.469   1.068  22.090  0.2450  0.0004  0.1611
 2575W        W45488  26.195  16.830  20.023  0.0059  0.4228 -0.2068
 2576W        W45489  24.816  13.330  17.747  0.0785  0.1948  0.2562
 2577W        W45490  24.327   6.730  20.089  0.2589 -0.1873  0.2021
 2578W        W45491  23.476   3.889  17.235 -0.3265  0.0083  0.1419
 2579W        W45492  21.320  32.375  13.731 -0.0544  0.1441 -0.1706
 2580W        W45493  23.900   1.189  23.004 -0.2374  0.1787  0.0046
 2581W        W45494  32.091   6.552  25.924 -0.1009  0.1456  0.3841
 2582W        W45495  30.378  13.525  16.714 -0.0793 -0.0267 -0.2068
 2583W        W45496  23.137   2.555  25.208 -0.2370 -0.2716 -0.1847
 2584W        W45497  31.542  31.113  20.538  0.3444  0.2751 -0.0026
 2585W        W45498  27.544   4.509  21.830 -0.0370 -0.2026  0.0855
 2586W        W45499   3.944   8.469  17.675  0.2860 -0.1932  0.0523
 2587W        W45500  21.023   3.262  28.510 -0.0394  0.1657  0.2678
 2588W        W45501  28.544  20.993  28.296 -0.3088 -0.0893 -0.2780
 2589W        W45502  29.547  14.799  25.198  0.1475 -0.0393 -0.0194
 2590W        W45503   1.505   4.977  19.409 -0.1271 -0.0144  0.0983
 2591W        W45504   0.448   8.114  28.584  0.0445  0.0154 -0.0172
 2592W        W45505  23.617   5.594  14.524  0.0346 -0.1922 -0.3549
 2593W        W45506  19.862  15.824  23.337  0.1163 -0.1698 -0.0405
 2594W        W45507  13.750   2.897   0.730 -0.2415 -0.1238 -0.0284
 2595W        W45508  26.721   1.632  22.812 -0.1670  0.0217 -0.1924
 2596W        W45509  26.174   9.388  15.280 -0.1666  0.1829 -0.0836
 2597W        W45510  22.088   9.192  26.890 -0.2703  0.3597  0.2195
 2598W        W45511  28.315   4.572  28.094 -0.0759 -0.2438 -0.1233
 2599W        W45512  24.233  10.828  17.045  0.2203 -0.0964 -0.0701
 2600W        W45513  31.652  17.664  26.403 -0.1727  0.2118 -0.0264
 2601W        W45514  27.113   9.918  21.274  0.0084  0.0796  0.0522
 2602W        W45515  30.877  19.126   0.511  0.0315  0.0704 -0.1038
 2603W        W45516  22.501  14.467  20.333  0.2734  0.1016  0.2012
 2604W        W45517  23.352   7.073   3.406  0.1060  0.0419  0.1810
 2605W        W45518  27.916  12.846  18.330  0.1473  0.0335 -0.1579
 2606W        W45519  18.967   3.902  22.722  0.0192 -0.2696 -0.0143
 2607W        W45520  26.032   8.105  28.572 -0.0022 -0.1134 -0.4391
 2608W        W45521  18.365  12.980  29.386 -0.2804 -0.0561  0.0258
 2609W        W45522  30.502   5.785   0.861 -0.1385 -0.0954  0.1897
 2610W        W45523  21.192   7.009   4.079 -0.1504 -0.3530  0.0637
 2611W        W45524  22.176   6.400  23.537  0.1489 -0.1241  0.0348
 2612W        W45525  32.198  18.031  27.116  0.4783 -0.3476  0.2090
 2613W        W45526  27.203  12.762  28.059  0.2389  0.0992 -0.1019
 2614W        W45527  22.868  22.923   1.226  0.0654  0.3443  0.1649
 2615W        W45528  24.015  17.505  21.548 -0.0013 -0.2420 -0.2461
 2616W        W45529  30.160   6.510   0.687 -0.1079  0.1457  0.0934
 2617W        W45530  19.057  34.387   1.158  0.1857  0.0260  0.3272
 2618W        W45531  25.032  13.003  14.808  0.2920 -0.3427  0.0040
 2619W        W45532  26.080   8.852  25.343 -0.2396  0.0030  0.0409
 2620W        W45533  29.626  19.393  17.543  0.0681 -0.1626  0.1572
 2621W        W45534  31.538  13.535   4.170 -0.1301 -0.3018 -0.0059
 2622W        W45535  18.149   3.337  19.922  0.1543 -0.0356  0.0330
 2623W        W45536  22.740   0.039  20.323  0.1186  0.1312 -0.2499
 2624W        W45537  23.675  16.748  25.755  0.0952 -0.0234  0.0701
 2625W        W45538  28.361  18.050   1.803 -0.1571  0.1043 -0.3800
 2626W        W45539  19.848   7.409   3.055 -0.0820  0.0473  0.2933
 2627W        W45540  30.035  19.990  27.754  0.2656 -0.1748 -0.0624
 2628W        W45541  30.729   6.136  20.649 -0.0563  0.1128  0.1842
 2629W        W45542  31.922   9.941  23.893  0.0938 -0.1208 -0.0732
 2630W        W45543  11.854  33.153  19.257 -0.0730 -0.0334 -0.2490
 2631W        W45544  20.925  12.573  16.329  0.0889  0.2064  0.0087
 2632W        W45545  16.439   5.621  24.651 -0.0115  0.0751 -0.0976
 2633W        W45546  29.041  22.321  25.273 -0.3835 -0.3679  0.1264
 2634W        W45547  27.362  19.625  26.092  0.0696 -0.3973  0.0072
 2635W        W45548  27.206   8.844  14.926  0.1228 -0.1284 -0.0156
 2636W        W45549  28.399   3.360  26.512 -0.3072 -0.1735 -0.0404
 2637W        W45550  20.069  11.518  19.551 -0.1249 -0.2077 -0.1727
 2638W        W45551  32.589   9.397  23.574  0.0096  0.1194  0.3040
 2639W        W45552  17.900  12.399  28.432  0.2082 -0.2050  0.2229
 2640W        W45553  26.822   9.560  19.141  0.3320 -0.0397  0.1696
 2641W        W45554  31.161  15.191  28.876  0.4176  0.2109 -0.1461
 2642W        W45555  22.000  11.058  15.019 -0.2946  0.0196  0.3300
 2643W        W45556  25.987   1.911  16.761 -0.0989 -0.3920  0.1749
 2644W        W45557  14.785   4.975  24.198  0.1558  0.0892  0.0604
 2645W        W45558  16.223  11.220  16.683  0.0382  0.3450  0.1690
 2646W        W45559  22.694   2.056  20.288 -0.0259  0.1989 -0.1856
 2647W        W45560  20.256   8.374  24.142 -0.0122  0.2842 -0.1883
 2648W        W45561  19.177   0.365  20.325 -0.1942  0.1492 -0.0701
 2649W        W45562  28.238  19.584   0.752  0.0739  0.0968 -0.1801
 2650W        W45563  15.030   1.213  20.765  0.0807  0.3683 -0.3472
 2651W        W45564  33.798  11.011  16.962 -0.0888 -0.0625 -0.1806
 2652W        W45565  30.794   9.213  22.751  0.1525  0.1876 -0.3117
 2653W        W45566  26.761  21.561  26.243  0.1415 -0.0917  0.2459
 2654W        W45567  19.984   4.254  22.484 -0.2449  0.1220  0.1192
 2655W        W45568  25.953  11.746  15.957  0.0169 -0.1960  0.1443
 2656W        W45569  21.112   4.816  21.687 -0.2630 -0.2855  0.1532
 2657W        W45570  29.897  13.534  14.707  0.0535 -0.0902  0.1355
 2658W        W45571  28.051  13.641  24.163 -0.0476  0.0390  0.0079
 2659W        W45572  21.537   9.528  24.936 -0.0517 -0.0997  0.1026
 2660W        W45573  27.990   1.987  25.296  0.1914 -0.1943  0.3576
 2661W        W45574  25.837  10.612  26.380 -0.0343  0.0790 -0.2279
 2662W        W45575  28.189  14.390  26.233  0.2093 -0.1413  0.0254
 2663W        W45576  19.953   6.009  22.649 -0.0315 -0.0979  0.3811
 2664W        W45577  18.093   7.173  19.731  0.0986  0.1442 -0.0306
 2665W        W45578  21.600   6.892  17.138  0.2030  0.2547 -0.3015
 2666W        W45579  23.888   3.620  20.755 -0.1427 -0.1539 -0.1796
 2667W        W45580  23.932   1.414  27.120 -0.0657  0.1588 -0.2245
 2668W        W45581  29.741   1.263   6.655  0.0353 -0.1522  0.0227
 2669W        W45582  27.326  10.602   5.494 -0.0881  0.0488  0.0285
 2670W        W45583  20.438  27.447  24.519  0.2558  0.0032  0.0538
 2671W        W45584  20.208   9.339   2.962  0.2128 -0.3576 -0.2556
 2672W        W45585  33.930  11.923  17.636 -0.0019 -0.0542 -0.1460
 2673W        W45586  22.136   7.183  13.524 -0.0437 -0.2659  0.0903
 2674W        W45587  15.179   5.916  16.377  0.1761  0.2368  0.1135
 2675W        W45588  25.031  13.142  23.909  0.1812 -0.1004 -0.0182
 2676W        W45589  24.251   2.223   6.907  0.1034  0.1544  0.1496
 2677W        W45590  22.802   9.078  25.048 -0.2637 -0.1769  0.0595
 2678W        W45591  19.645   1.594   8.813 -0.2890 -0.1670 -0.2852
 2679W        W45592  23.391   5.661  22.816  0.0175  0.0181  0.0535
 2680W        W45593  19.578  11.214  21.070  0.1760 -0.5590 -0.1400
 2681W        W45594  26.146   7.404  22.126 -0.1627 -0.2704  0.2007
 2682W        W45595  21.444   6.960  18.308 -0.1466  0.2307 -0.2532
 2683W        W45596  24.445  12.923   1.105 -0.2683 -0.2187  0.1432
 2684W        W45597  29.008   7.288  17.182 -0.1529  0.2351  0.1961
 2685W        W45598  34.226  26.224   1.313 -0.2609 -0.4816  0.3139
 2686W        W45599  28.947  11.170  13.664  0.1837 -0.1043  0.2223
 2687W        W45600  25.643  12.325  22.344 -0.2543  0.1034 -0.2521
 2688W        W45601  22.831   1.752  14.899 -0.2654 -0.1954 -0.1526
 2689W        W45602  25.120  10.832  25.798 -0.2012 -0.1097  0.2824
 2690W        W45603  21.126   8.384  16.938 -0.0307 -0.0981  0.0882
 2691W        W45604  25.979   5.244  25.467 -0.0052 -0.3101 -0.0111
 2692W        W45605  25.517  21.609  28.323 -0.3409  0.2031 -0.1578
 2693W        W45606  18.876   3.811  23.589  0.0216  0.1267  0.0727
 2694W        W45607  18.523   1.896  14.997  0.1003 -0.0857  0.0972
 2695W        W45608  24.208  33.165   1.656 -0.2691 -0.1995 -0.1298
 2696W        W45609  33.937   4.294  25.561 -0.1234 -0.0094  0.0355
 2697W        W45610  31.376  32.102   2.086 -0.0562  0.0750 -0.0565
 2698W        W45611  24.914  34.088  26.871  0.0862 -0.0262 -0.0964
 2699W        W45612  18.057  12.408  15.329  0.0859 -0.0089 -0.0011
 2700W        W45613  31.432   9.835  19.180 -0.0661 -0.1103 -0.1172
 2701W        W45614  31.928   6.249  23.369  0.1885 -0.2279 -0.1116
 2702W        W45615  17.200  16.304  14.708 -0.0832 -0.0333  0.1773
 2703W        W45616  26.064  15.749  14.637 -0.2905  0.1482 -0.0373
 2704W        W45617  26.558  13.832  22.342  0.0143 -0.2049 -0.0094
 2705W        W45618   2.706   9.732   3.316 -0.0594 -0.0848  0.1582
 2706W        W45619  23.045  32.269  22.410  0.0035  0.0657 -0.0893
 2707W        W45620  19.526  10.547  25.735  0.0938 -0.1923 -0.0614
 2708W        W45621  24.875  32.125  26.576 -0.2610  0.0417  0.4573
 2709W        W45622  27.520  11.605  14.702 -0.0847  0.3173 -0.0122
 2710W        W45623  19.395   4.381  27.838  0.0501 -0.0811 -0.2329
 2711W        W45624  28.226  20.248  29.226  0.0235 -0.0035 -0.0158
 2712W        W45625  19.303  12.840  19.329  0.2577 -0.2266  0.1864
 2713W        W45626  33.166   1.584  22.771 -0.2403  0.1661  0.1012
 2714W        W45627  15.188  14.119  26.562 -0.2220  0.0954  0.0389
 2715W        W45628  26.361   5.131  15.436  0.3520 -0.1250 -0.0629
 2716W        W45629  20.379   3.044  22.532 -0.0019 -0.5059 -0.1233
 2717W        W45630  24.739   8.025  14.430  0.0616  0.0754  0.1180
 2718W        W45631  17.346  11.269  18.628 -0.0859 -0.0895 -0.0370
 2719W        W45632  26.412  13.140  17.480  0.2620  0.2582 -0.1737
 2720W        W45633  29.383   5.572  20.149  0.1955  0.3035  0.1658
 2721W        W45634  20.252   7.775  15.736 -0.0821  0.1590  0.0151
 2722W        W45635  31.627   4.302  19.423  0.0920  0.0482 -0.2597
 2723W        W45636  30.258  24.979  19.698  0.3965 -0.0708  0.0952
 2724W        W45637  29.931  30.217  24.140  0.5956  0.0549 -0.1524
 2725W        W45638  28.965  11.072  15.646 -0.4232 -0.3009 -0.1665
 2726W        W45639  19.657   0.905  28.345  0.0350 -0.0098  0.1283
 2727W        W45640  16.160  13.375  22.366 -0.3310 -0.5076  0.0362
 2728W        W45641  17.832  23.210  28.433  0.3539  0.3140 -0.0467
 2729W        W45642  28.374   9.312  20.299 -0.0202 -0.0396  0.1674
 2730W        W45643  28.247  21.169  18.351 -0.0735 -0.2776 -0.2663
 2731W        W45644  26.618   6.638  28.950 -0.0195  0.0156  0.2263
 2732W        W45645  24.404  19.763  26.723 -0.3232  0.1066  0.0423
 2733W        W45646  30.308   4.504  28.287  0.1248  0.0202 -0.2408
 2734W        W45647  27.512  33.393  19.692 -0.2813 -0.0670 -0.3391
 2735W        W45648  23.453   5.023  22.556 -0.1530  0.1511  0.1950
 2736W        W45649  28.553   9.966  27.038  0.1435  0.3051  0.2272
 2737W        W45650  20.675   2.900  28.547 -0.1558 -0.0095  0.1743
 2738W        W45651  16.888  33.367  15.111 -0.2107  0.4600 -0.1975
 2739W        W45652  26.634  18.887  18.561  0.5014  0.2225  0.0238
 2740W        W45653  25.170   5.168  22.823  0.2399 -0.4075  0.1787
 2741W        W45654   9.193  33.566   4.866  0.3910  0.0546 -0.1931
 2742W        W45655  25.677   9.694  14.098  0.3495  0.2554  0.1642
 2743W        W45656  23.529  33.989   0.211  0.0378 -0.0637  0.0683
 2744W        W45657  23.821   7.993  15.385  0.1849 -0.0288 -0.1269
 2745W        W45658  33.313   5.379   5.499  0.1731 -0.0671  0.2786
 2746W        W45659  26.228  32.680  24.716  0.0953 -0.0688  0.0575
 2747W        W45660  15.128  14.866  26.238  0.0086  0.3248 -0.2944
 2748W        W45661  26.326  22.570  29.535  0.4209 -0.0364  0.0030
 2749W        W45662  11.982  14.063  20.380  0.0615 -0.1445  0.0800
 2750W        W45663  28.807   3.592  19.269 -0.2047  0.0784 -0.2452
 2751W        W45664  27.892  13.924   5.477  0.2070  0.0824  0.0754
 2752W        W45665  24.158  21.434  23.929 -0.3346  0.3298 -0.0658
 2753W        W45666  24.559  11.177  18.304  0.1787 -0.1352 -0.1173
 2754W        W45667  24.388   3.281  19.025  0.0873 -0.0217  0.0914
 2755W        W45668  21.747   0.988  17.391 -0.2334  0.0547  0.0877
 2756W        W45669  21.915  11.321   7.669 -0.0230  0.0694 -0.2439
 2757W        W45670   0.555  22.077  23.535  0.2157  0.2136  0.2174
 2758W        W45671  24.032   5.485  26.315 -0.0446 -0.1695  0.3175
 2759W        W45672  31.225  17.002   7.756 -0.0393  0.0414 -0.0756
 2760W        W45673  27.275   2.665  23.064 -0.1815  0.0704 -0.2733
 2761W        W45674  11.077   6.282  19.372  0.0462 -0.0451 -0.0537
 2762W        W45675  13.032   1.799  20.850  0.0627  0.1805 -0.2475
 2763W        W45676  19.842  34.364  16.800  0.0538 -0.1113 -0.0621
 2764W        W45677  19.305   7.683   0.094  0.0130 -0.1405 -0.0076
 2765W        W45678  27.194  22.048  29.250 -0.2624  0.2143  0.1056
 2766W        W45679  16.969   2.987  26.311  0.0285  0.0534  0.1660
 2767W        W45680  12.715  20.423   5.284  0.2364 -0.3367 -0.1912
 2768W        W45681  18.196   0.413  27.174  0.0870 -0.3436  0.0734
 2769W        W45682  18.904  16.783  23.229 -0.0160 -0.2402 -0.0823
 2770W        W45683  18.159  13.294  19.901  0.0177 -0.0178  0.0836
 2771W        W45684   2.869   2.808  21.698  0.5291  0.0038  0.3778
 2772W        W45685  22.502   8.274  20.665  0.0390 -0.0119 -0.1639
 2773W        W45686  34.008  22.436   5.046 -0.0439 -0.1098  0.1738
 2774W        W45687  22.328  34.412  22.628 -0.2217 -0.0593 -0.4558
 2775W        W45688  29.509  12.003  15.711  0.0003  0.0170  0.0969
 2776W        W45689  27.043  13.513  16.895  0.0386 -0.2032  0.1662
 2777W        W45690  15.023   0.960  22.114  0.0713 -0.0843 -0.1289
 2778W        W45691  32.626  31.508  17.215  0.3057  0.2678  0.1835
 2779W        W45692  22.362   5.890  25.943 -0.0695  0.1545 -0.1833
 2780W        W45693  29.180   7.594  18.648  0.2982  0.4010  0.0428
 2781W        W45694  17.902   5.134  20.957 -0.1471 -0.2082 -0.1027
 2782W        W45695  26.460  16.600  16.108 -0.3016  0.0372 -0.6053
 2783W        W45696  16.797   6.080  17.950  0.0969  0.1973  0.0066
 2784W        W45697  28.991  13.308  22.482  0.1906 -0.0700  0.2390
 2785W        W45698  26.773  22.359  16.400 -0.0328  0.1712  0.1065
 2786W        W45699  25.040  13.797  20.327 -0.0128  0.1604  0.1600
 2787W        W45700  30.942  12.048  14.808  0.1621 -0.1750  0.1977
 2788W        W45701  21.291  15.650  23.084  0.1492 -0.2178  0.0693
 2789W        W45702  24.271  15.404  16.775 -0.2876  0.0793 -0.0394
 2790W        W45703  24.908   3.175  22.045 -0.1927  0.0716 -0.2396
 2791W        W45704  20.365  34.370  27.503 -0.1188 -0.0286 -0.1605
 2792W        W45705  14.058   6.127  22.936  0.2263 -0.3002  0.0039
 2793W        W45706  21.319   7.042  19.888 -0.0801  0.0414  0.0778
 2794W        W45707  25.257  21.380  24.013  0.1727  0.1334  0.1084
 2795W        W45708  19.755   8.952   8.326  0.3057 -0.1659  0.0422
 2796W        W45709  25.841  33.619  18.072  0.0235  0.0712  0.1745
 2797W        W45710  21.419  11.686  23.117 -0.0677 -0.2789 -0.0292
 2798W        W45711  10.677  19.626  13.413 -0.4035  0.2028  0.0554
 2799W        W45712  29.772  19.150   7.430 -0.0555  0.0775  0.1699
 2800W        W45713  17.198  21.701  25.496 -0.4102 -0.0149 -0.2025
 2801W        W45714  29.175   8.736  28.250 -0.2274 -0.4208 -0.1593
 2802W        W45715  16.903  13.653  15.882  0.0329 -0.1171  0.0427
 2803W        W45716  29.068  13.899  16.105  0.0399  0.0277 -0.0107
 2804W        W45717  23.420  12.150  24.059  0.2719 -0.0342 -0.3791
 2805W        W45718  24.905   9.105  29.501  0.0228 -0.1506  0.0480
 2806W        W45719  26.508  17.118  15.814  0.0173 -0.0812 -0.1755
 2807W        W45720  33.267   7.219  20.290 -0.2062 -0.0947 -0.1734
 2808W        W45721  23.203   3.447  22.106  0.0242 -0.3636 -0.1623
 2809W        W45722  21.956  28.085  24.965 -0.0494  0.1339  0.0529
 2810W        W45723  26.141   6.977  16.491 -0.1105  0.0288  0.0825
 2811W        W45724  23.586   3.010  26.263 -0.0005 -0.1624 -0.1440
 2812W        W45725  17.941   1.222  17.896  0.0404  0.0169  0.3856
 2813W        W45726  21.050   7.635  28.450 -0.3878 -0.2222  0.2410
 2814W        W45727  29.222  11.054   4.213  0.1255 -0.3593 -0.0460
 2815W        W45728  25.146  29.583  26.858 -0.0986 -0.1142  0.3325
 2816W        W45729  27.436   4.068   3.107  0.0521 -0.0091  0.0641
 2817W        W45730  15.810  12.607  20.748 -0.0512  0.1850 -0.1901
 2818W        W45731  16.316   1.557  18.774  0.2209 -0.0117 -0.0772
 2819W        W45732  20.841  15.711  29.101  0.1260 -0.0426  0.0394
 2820W        W45733  25.382   5.287  14.673  0.0299 -0.2334  0.0068
 2821W        W45734  26.180  11.283  25.440  0.0562  0.1345 -0.0579
 2822W        W45735  22.232  15.148  24.684 -0.0011  0.0618  0.1075
 2823W        W45736  30.034   0.867  23.068 -0.1808 -0.0709  0.0446
 2824W        W45737  28.169  15.068  25.783  0.0287 -0.1369 -0.1168
 2825W        W45738  16.619   1.839  27.030  0.1021  0.2088  0.2417
 2826W        W45739  25.670  12.322  28.297 -0.0132  0.0561  0.0150
 2827W        W45740  15.353  10.097  23.455 -0.1050 -0.2494  0.0502
 2828W        W45741  21.065  12.183  20.162  0.2311  0.1085 -0.1131
 2829W        W45742  11.272   7.569  25.190 -0.2085  0.1486  0.1554
 2830W        W45743  18.689   6.821  26.422  0.1655 -0.4249  0.0334
 2831W        W45744  14.589  34.250  22.959  0.3619  0.0179  0.1262
 2832W        W45745  17.567  23.007  29.748 -0.1725  0.0726 -0.1615
 2833W        W45746  13.804  13.384  26.551 -0.0310 -0.0965 -0.0989
 2834W        W45747  11.013   1.502  29.337 -0.2261 -0.1867 -0.0110
 2835W        W45748  23.302   9.567  25.244 -0.0197 -0.3343  0.0336
 2836W        W45749  13.348   4.589  17.567 -0.1826 -0.0712 -0.1559
 2837W        W45750  22.046  10.031  21.688 -0.1520 -0.1168 -0.0843
 2838W        W45751  15.902  11.165  17.989  0.0558  0.0215  0.1277
 2839W        W45752  29.254  10.236  26.927  0.2665 -0.4288  0.0905
 2840W        W45753  24.747   7.906  29.519  0.2933 -0.1317 -0.1789
 2841W        W45754  27.895   4.286  23.306  0.0869  0.0697 -0.0585
 2842W        W45755  23.497  19.217   0.348  0.1472 -0.1480  0.3355
 2843W        W45756  32.012   8.522  26.911 -0.1679  0.0075 -0.1005
 2844W        W45757  32.863  12.962  22.884  0.1255 -0.0490  0.1446
 2845W        W45758  18.040   1.967  22.922  0.1371  0.1315  0.0113
 2846W        W45759  24.228  31.403  16.377 -0.0614 -0.2163 -0.1210
 2847W        W45760  26.578  32.399  24.523  0.0931  0.0739  0.1818
 2848W        W45761  27.766   3.890  28.401  0.3910  0.1828  0.1846
 2849W        W45762  22.269   2.424  28.266 -0.1120 -0.0161 -0.1105
 2850W        W45763  22.297   7.302  24.451  0.2691 -0.1090  0.2946
 2851W        W45764  24.875  15.456  19.578  0.3323 -0.2466 -0.0659
 2852W        W45765  27.983  18.979   2.983 -0.0547 -0.0494  0.0983
 2853W        W45766  18.435   7.266  15.760  0.1534  0.3045 -0.0818
 2854W        W45767  18.643   9.018   1.253  0.2068 -0.1912 -0.2655
 2855W        W45768  22.741   6.418   1.426  0.1768  0.2416 -0.0281
 2856W        W45769  28.538  10.554  23.159  0.1222  0.3679  0.2124
 2857W        W45770  30.433  13.120  13.349 -0.1105 -0.0148 -0.2570
 2858W        W45771  26.255   0.644  19.988 -0.0763  0.1344 -0.1224
 2859W        W45772   1.669   0.084  27.027 -0.0736 -0.3709  0.2947
 2860W        W45773  21.657  12.938   0.085  0.0947  0.1459 -0.2964
 2861W        W45774  20.776  14.811  21.252  0.1996  0.0979 -0.2526
 2862W        W45775  29.532  17.433  17.158 -0.2463  0.2749  0.0508
 2863W        W45776   1.903  14.443  17.869  0.2126 -0.0850  0.1687
 2864W        W45777  17.644  13.742  15.732 -0.0380 -0.1928  0.0730
 2865W        W45778  29.447  15.488   3.629 -0.0144 -0.1976  0.3087
 2866W        W45779  34.150  15.870  20.080  0.2082  0.0236 -0.1552
 2867W        W45780  24.240  10.212   0.626  0.1448 -0.0698 -0.2118
 2868W        W45781  22.561   3.874  24.296  0.1257 -0.3214  0.0692
 2869W        W45782  26.400  14.745  17.704  0.1320  0.2788 -0.2450
 2870W        W45783  14.227   8.640  21.565  0.0204 -0.2088  0.0443
 2871W        W45784  27.422   8.025  25.114  0.2029 -0.0417 -0.0978
 2872W        W45785  19.482   8.960  18.921  0.0611  0.0743  0.0118
 2873W        W45786  21.004  16.542  29.622  0.0051  0.1972 -0.3911
 2874W        W45787  20.337   1.598   1.653  0.0450 -0.0567  0.1038
 2875W        W45788  24.789  18.095  16.167  0.2458  0.0052  0.1745
 2876W        W45789  21.869   2.682  22.891 -0.4253 -0.1327  0.0015
 2877W        W45790  17.059   7.092  23.691 -0.1673 -0.2181 -0.1451
 2878W        W45791  32.962  30.023  27.183 -0.0281  0.0574 -0.5262
 2879W        W45792  23.155   5.880   3.967  0.0925  0.2677  0.2524
 2880W        W45793   3.390  11.823  17.747  0.0885  0.0330  0.1967
 2881W        W45794  26.930  14.993  23.451 -0.0167  0.1587  0.1989
 2882W        W45795  15.649   8.479  19.583  0.2095 -0.2426 -0.1313
 2883W        W45796  23.499   8.256  28.853  0.0654 -0.1077 -0.2601
 2884W        W45797  32.515  33.556  17.616 -0.0402 -0.1381 -0.1441
 2885W        W45798  28.043  10.910  29.166  0.1645 -0.2246 -0.0626
 2886W        W45799  20.747  32.809  16.883 -0.0409  0.2340  0.1143
 2887W        W45800  26.801   8.559   4.776  0.0775  0.5085 -0.0431
 2888W        W45801  22.126  32.080  21.106  0.1610  0.1833  0.1647
 2889W        W45802  27.061  10.619  23.874 -0.1870 -0.1740 -0.0110
 2890W        W45803   1.446  14.968  19.197 -0.2627  0.2933 -0.1715
 2891W        W45804  15.977   9.596  27.694  0.0808 -0.1446 -0.2350
 2892W        W45805   9.002  30.674  22.516  0.0301  0.1195  0.1645
 2893W        W45806  25.624   7.725  28.646  0.1912  0.0705  0.4028
 2894W        W45807  24.067  13.347  28.257  0.1379  0.0433 -0.1897
 2895W        W45808  16.144  11.986  13.537  0.1262 -0.0511 -0.0046
 2896W        W45809  23.898   8.123  22.471 -0.5319  0.0998  0.0660
 2897W        W45810  19.907   2.241  26.747 -0.0061 -0.2498 -0.1536
 2898W        W45811  29.187   1.736  19.213  0.0283 -0.0723  0.1277
 2899W        W45812  21.381   6.086  19.684  0.1779  0.0027  0.2756
 2900W        W45813  23.562  27.916  15.947  0.2346  0.0147  0.1743
 2901W        W45814  11.927   8.267   1.333  0.2212 -0.1169 -0.0613
 2902W        W45815  27.605  19.101  22.361 -0.2097  0.0331 -0.3703
 2903W        W45816  20.669  14.287  21.605  0.2536 -0.1104  0.2238
 2904W        W45817  29.024   7.409  27.053 -0.0522  0.1981 -0.1137
 2905W        W45818  31.036  13.119  19.905 -0.0352  0.1653  0.0200
 2906W        W45819  11.341   2.974  27.416  0.2921  0.5304  0.1773
 2907W        W45820  24.713   9.070  28.400  0.0124  0.1921  0.4677
 2908W        W45821  19.188  22.747  23.567 -0.0219 -0.1993  0.0912
 2909W        W45822  22.872   8.060  13.057  0.0518 -0.0433  0.0921
 2910W        W45823  32.601  13.434  22.175 -0.0217 -0.1224 -0.0068
 2911W        W45824  19.302   6.547  14.685 -0.0033 -0.0251  0.2725
 2912W        W45825  31.581  12.514   8.846  0.0511  0.2802 -0.1585
 2913W        W45826  26.250  16.238  22.014  0.0078  0.2437  0.1302
 2914W        W45827  19.252   5.937  26.382  0.1646  0.0842 -0.2787
 2915W        W45828  16.812  14.246  14.962  0.3605 -0.0014 -0.2570
 2916W        W45829  17.570   7.651  18.577 -0.4773  0.0435 -0.0172
 2917W        W45830  16.360   7.461  19.016  0.1504 -0.3498 -0.0656
 2918W        W45831  29.377   3.365  15.505 -0.0794  0.0216 -0.1327
 2919W        W45832  22.429   6.005  23.255 -0.0902  0.0307 -0.0567
 2920W        W45833  28.665   5.844  22.370  0.1728  0.3392  0.1918
 2921W        W45834  17.220   8.962  23.056 -0.3667 -0.1182  0.2990
 2922W        W45835  24.665   8.124  17.267  0.2275 -0.1227 -0.2571
 2923W        W45836  11.446  12.197  14.793  0.3974 -0.2839  0.2277
 2924W        W45837  28.434  13.425  21.621 -0.0716  0.0856  0.0129
 2925W        W45838  24.821  10.179   0.471 -0.0633 -0.1123  0.1465
 2926W        W45839  28.241  26.873  26.671 -0.0507  0.2785  0.1554
 2927W        W45840  25.833   5.116  20.935  0.2798  0.1393  0.2294
 2928W        W45841  23.166   3.715  22.501 -0.0362 -0.2634  0.1384
 2929W        W45842  27.872  14.213  18.328 -0.2037  0.1462 -0.2005
 2930W        W45843  25.028  33.024  26.187  0.1625 -0.3439  0.2097
 2931W        W45844  20.760   6.560   2.329  0.1557 -0.1391 -0.0394
 2932W        W45845  25.704   3.942   7.960  0.0131 -0.2219 -0.2076
 2933W        W45846  19.297   4.975   3.073 -0.0138 -0.2512  0.3390
 2934W        W45847  21.653   2.351  17.742  0.0107  0.0518  0.1529
 2935W        W45848  29.042  20.308  27.953 -0.0329  0.0660  0.3239
 2936W        W45849  25.921  22.936  17.949 -0.2583 -0.1180 -0.2481
 2937W        W45850  10.473   9.599   2.393  0.0987 -0.0314  0.3328
 2938W        W45851  19.046  19.882  24.933 -0.1229  0.1276  0.1524
 2939W        W45852  13.071  15.973  18.649 -0.0368 -0.3613  0.0466
 2940W        W45853  16.163   8.860  28.482 -0.4008 -0.1053  0.0555
 2941W        W45854  27.121  11.421  16.475 -0.0419  0.2371 -0.4459
 2942W        W45855  14.495  24.432   3.266 -0.2946 -0.1086  0.1297
 2943W        W45856  29.760   3.674  17.245 -0.1314 -0.0033  0.0803
 2944W        W45857  26.857   8.696  27.259 -0.4799  0.1704 -0.0011
 2945W        W45858  19.998  33.444  19.522  0.0711  0.0544 -0.0326
 2946W        W45859  22.312  10.781   1.772 -0.1196 -0.1069  0.1389
 2947W        W45860  19.997  12.094  19.530  0.0085  0.0152 -0.1963
 2948W        W45861  21.999  10.453  23.153 -0.1689 -0.1981  0.0334
 2949W        W45862  15.950  13.333  21.918  0.0728  0.0766 -0.0177
 2950W        W45863  23.151  15.193  25.393  0.0977  0.1952  0.3343
 2951W        W45864  21.058   3.735  28.569 -0.0884 -0.0468  0.0038
 2952W        W45865  26.215   7.787  26.349  0.0307 -0.0318 -0.2334
 2953W        W45866  27.910  19.478   8.049  0.1935 -0.0919  0.0923
 2954W        W45867  26.403  14.941  21.290 -0.1527 -0.1067 -0.0834
 2955W        W45868  26.348  20.861  13.594  0.1017 -0.0181 -0.2880
 2956W        W45869  29.263   0.697  25.191 -0.2586  0.0296  0.0914
 2957W        W45870  23.372   3.547  18.476 -0.0092 -0.0398 -0.0782
 2958W        W45871  21.461   6.953  23.652 -0.2096 -0.0918 -0.3886
 2959W        W45872  25.925   8.012  20.515  0.3367 -0.0550  0.1946
 2960W        W45873  26.408   8.270  19.461  0.1144 -0.0693  0.0465
 2961W        W45874  25.335   4.915  28.376  0.0995 -0.0464  0.0740
 2962W        W45875  24.691   8.791   6.298 -0.2501  0.1363 -0.1275
 2963W        W45876  13.880  19.208  23.549  0.0263  0.0469 -0.2494
 2964W        W45877  31.109  13.089  29.651 -0.1315  0.3285 -0.2477
 2965W        W45878  26.739  12.553  25.320  0.0134 -0.1913  0.1616
 2966W        W45879  26.187  33.977  24.658 -0.2680  0.0155 -0.0816
 2967W        W45880  26.599  23.692  25.128 -0.2042 -0.3200  0.1258
 2968W        W45881  27.127   2.760   7.753 -0.3093 -0.1009  0.1195
 2969W        W45882  23.061   9.145  22.146  0.1937  0.3894  0.2134
 2970W        W45883  29.283   9.629  29.311  0.0837  0.1056 -0.2961
 2971W        W45884  25.756  15.757   8.094  0.1550  0.1080 -0.2869
 2972W        W45885  23.367   9.709  24.033 -0.0518  0.5333 -0.1677
 2973W        W45886   5.704  21.129   1.936  0.0205 -0.2760  0.0349
 2974W        W45887  15.156   7.052   3.697 -0.0790 -0.2296 -0.1014
 2975W        W45888  19.650   4.215   1.664 -0.0893 -0.1068  0.0694
 2976W        W45889  27.196  16.085  16.538  0.0769 -0.0341  0.0849
 2977W        W45890  11.975  10.681  26.222  0.1887  0.0324  0.1386
 2978W        W45891   9.425   8.332  25.339  0.0643 -0.0152  0.0431
 2979W        W45892  26.352   9.648  19.095  0.2254  0.2156  0.4239
 2980W        W45893  27.801  10.095  17.890 -0.0104 -0.1430  0.1407
 2981W        W45894  20.138   1.799   4.222 -0.0957  0.1161 -0.4135
 2982W        W45895  19.675  29.875   9.159  0.0312  0.0306 -0.0166
 2983W        W45896  24.269   6.675  29.036  0.1934 -0.0127 -0.0774
 2984W        W45897  12.381   3.434  28.345  0.1708  0.1884 -0.3219
 2985W        W45898  25.372  15.500  26.184 -0.1580 -0.1245  0.3926
 2986W        W45899  18.397   8.159  26.495 -0.2944  0.3242 -0.2457
 2987W        W45900  25.510  12.973  25.157  0.0561  0.1535 -0.1164
 2988W        W45901  17.841   1.878   0.022  0.1596  0.4449  0.0459
 2989W        W45902  18.065   5.900   3.029 -0.0498  0.1707 -0.0278
 2990W        W45903  23.799   1.291  10.003 -0.0780 -0.0426  0.0352
 2991W        W45904  28.954   9.230   3.334 -0.0339  0.1160 -0.1923
 2992W        W45905  31.415   8.329  27.767 -0.1026  0.0951  0.1380
 2993W        W45906  25.561   4.119   6.508  0.0337 -0.2309 -0.1235
 2994W        W45907  27.762  14.419  16.085  0.2082 -0.0275  0.0958
 2995W        W45908  17.220  34.325  20.971 -0.0574  0.1985 -0.2824
 2996W        W45909  29.675  13.038   1.037  0.0311 -0.1148 -0.0492
 2997W        W45910  20.187  12.923  29.531  0.2141  0.0933 -0.1939
 2998W        W45911  27.611  23.387  27.327 -0.5462  0.0512 -0.0144
 2999W        W45912  18.685  11.104  20.842  0.0546  0.0032  0.0916
 3000W        W45913  26.687  13.915  19.735 -0.1578  0.0242 -0.2824
 3001W        W45914  24.989  12.273  22.778  0.3841  0.1438 -0.2562
 3002W        W45915  27.303   1.276   3.434  0.1965  0.0852  0.3114
 3003W        W45916  21.199  12.335  21.127  0.1629 -0.0779  0.1323
 3004W        W45917  22.297  14.095  22.041  0.4257  0.1955  0.1101
 3005W        W45918  15.371  13.852   0.268  0.0856  0.0700 -0.1149
 3006W        W45919  29.401   6.345   4.611 -0.0698  0.0503 -0.1828
 3007W        W45920  18.836   4.992  27.966 -0.0041  0.1678  0.0489
 3008W        W45921  23.780   8.280  28.436 -0.0056 -0.0520  0.1054
 3009W        W45922  23.980  19.119  22.876 -0.1477  0.1549 -0.4003
 3010W        W45923  15.681   0.202  26.558 -0.2214  0.2029  0.0173
 3011W        W45924  15.482   5.017  25.401  0.1051  0.1986  0.0272
 3012W        W45925  25.178  11.473  17.781  0.1737  0.3065 -0.1274
 3013W        W45926  22.142  16.403  18.794  0.4644 -0.0580  0.1454
 3014W        W45927  28.153  13.126  23.766  0.2979  0.2852 -0.0940
 3015W        W45928  24.923  16.109  23.477  0.2750 -0.1355 -0.0690
 3016W        W45929  27.432  17.982  27.962 -0.1615  0.1073 -0.0773
 3017W        W45930  26.892   5.378  23.693  0.0617 -0.1528  0.0792
 3018W        W45931  15.849   9.839  29.688 -0.1296 -0.1687 -0.1860
 3019W        W45932  31.740  20.249  28.965  0.0143 -0.0804 -0.0577
 3020W        W45933   0.569   2.319  29.231 -0.1029 -0.1439  0.2146
 3021W        W45934  22.490   0.065   6.721 -0.0586 -0.1918  0.1637
 3022W        W45935  23.203   2.477  18.943  0.2748  0.0410 -0.0973
 3023W        W45936  15.239   7.114  19.698  0.2032 -0.3795  0.2515
 3024W        W45937  17.073   4.230   3.550 -0.3331  0.0353 -0.1086
 3025W        W45938  31.477  12.963  22.820  0.4192  0.0182 -0.1359
 3026W        W45939  23.621  13.061  24.320  0.0027 -0.3384 -0.0339
 3027W        W45940  26.495  11.154  25.857 -0.2741 -0.1666 -0.2283
 3028W        W45941  14.944  10.434  23.653 -0.1149 -0.1364  0.1768
 3029W        W45942  12.450   8.178  27.601 -0.1613  0.2455  0.1360
 3030W        W45943  19.617   2.145  19.596  0.1008  0.2406  0.0015
 3031W        W45944   8.069   4.125  26.851  0.0495 -0.1640  0.1492
 3032W        W45945   2.988   3.806  27.255 -0.0850  0.0816 -0.1065
 3033W        W45946  28.338  16.958   6.022 -0.3102 -0.3257  0.3144
 3034W        W45947  12.509   1.883   3.658 -0.0206  0.1870 -0.0928
 3035W        W45948  19.075  12.057  17.789 -0.3806 -0.0790  0.0116
 3036W        W45949  22.730   5.230  14.675  0.3113 -0.0644  0.3298
 3037W        W45950  15.459   6.207  29.459  0.1668  0.0564  0.1290
 3038W        W45951  24.143  17.094  12.932  0.2239  0.2239  0.2892
 3039W        W45952  15.481   5.121  23.611  0.2455  0.2564  0.0666
 3040W        W45953  18.445   3.752   4.780 -0.2333  0.1803 -0.0959
 3041W        W45954  24.805  16.642   1.828 -0.0538 -0.1207  0.1907
 3042W        W45955   2.244  16.162  26.189  0.1634  0.0865 -0.2835
 3043W        W45956  18.242   0.550  15.390 -0.0614 -0.4282  0.1508
 3044W        W45957  26.813   2.958  24.992  0.2544  0.3431 -0.3305
 3045W        W45958  25.999  12.491  29.716  0.0315  0.3941  0.0474
 3046W        W45959  22.862   6.280  21.842 -0.1746  0.1241 -0.1100
 3047W        W45960  21.425   4.338   5.388  0.1854 -0.0167 -0.2296
 3048W        W45961  22.405  14.059  22.612  0.1587 -0.2868 -0.0988
 3049W        W45962  24.910  14.728  14.406 -0.4246  0.4361 -0.3427
 3050W        W45963   0.147   0.320  22.732 -0.0255  0.0045 -0.0906
 3051W        W45964  23.441  14.564  13.353  0.1450 -0.0530 -0.0535
 3052W        W45965  25.871   6.451  26.122  0.2817 -0.2010 -0.0322
 3053W        W45966  29.288   5.302   9.525  0.1548 -0.1570 -0.0818
 3054W        W45967  21.288  16.596  24.271 -0.2580  0.3987 -0.1889
 3055W        W45968  20.589   3.180  17.253  0.1917  0.0788  0.2338
 3056W        W45969  21.958  12.739  16.584  0.3248 -0.2409  0.0662
 3057W        W45970  21.123  14.474  21.291 -0.0719 -0.0211 -0.2744
 3058W        W45971  13.790   0.041  21.034  0.1930 -0.2295  0.0620
 3059W        W45972  26.365   9.747   7.179 -0.3053  0.0462  0.3524
 3060W        W45973  20.769   3.866   0.113 -0.1669  0.2393  0.1187
 3061W        W45974  33.698  14.540  28.570 -0.1558  0.0229 -0.0136
 3062W        W45975  29.762  22.317  23.106 -0.1223 -0.4180 -0.0237
 3063W        W45976  21.131   3.809   3.495 -0.0125 -0.0707  0.0333
 3064W        W45977  24.870  21.071  28.839 -0.1713 -0.0934  0.1901
 3065W        W45978  27.543   6.247  27.522 -0.0335  0.4139  0.0356
 3066W        W45979  24.304  10.170   4.468 -0.1102 -0.2333  0.3653
 3067W        W45980  20.025  32.592  23.398  0.1287 -0.0716 -0.4012
 3068W        W45981  24.608   0.031  24.483 -0.1784 -0.0777 -0.4431
 3069W        W45982  22.093  11.669  25.000 -0.1247  0.1318 -0.0582
 3070W        W45983  14.279   8.106  25.447  0.0871 -0.2265  0.1262
 3071W        W45984  23.011  17.146  24.072  0.0887  0.0461  0.1384
 3072W        W45985  24.749  14.183   3.450  0.1411 -0.0416  0.3899
 3073W        W45986  28.525  18.293   7.954 -0.1608  0.0808 -0.0366
 3074W        W45987  21.394  21.085  29.703  0.0216 -0.0031 -0.4015
 3075W        W45988  18.760  27.968   1.422 -0.0189  0.1791  0.3531
 3076W        W45989  26.436  34.119   1.531 -0.0794  0.4550  0.0291
 3077W        W45990  25.271   5.930  26.888  0.3898 -0.1838 -0.2231
 3078W        W45991  15.940   7.572  20.744 -0.1835 -0.1686 -0.0226
 3079W        W45992  15.285   6.338  17.524  0.1821  0.0117 -0.2995
 3080W        W45993  27.954  13.298  20.220 -0.3261  0.0652  0.1691
 3081W        W45994  15.950   3.351  29.273  0.0553  0.2213  0.1720
 3082W        W45995  18.686  13.923  24.337  0.0239 -0.0539 -0.2671
 3083W        W45996  32.030  13.979  25.603  0.3022 -0.1161  0.1541
 3084W        W45997  20.820  11.296  26.763 -0.2304 -0.0279 -0.2437
 3085W        W45998  25.958  29.398   7.390  0.2818  0.5629  0.3622
 3086W        W45999  29.779  11.891  27.513  0.1013 -0.0761 -0.0491
 3087W        W46000   9.600   4.095  17.964 -0.0656 -0.0858  0.1857
 3088W        W46001  24.483  13.651  28.998  0.0547  0.1884  0.1538
 3089W        W46002  16.307   4.590  24.727  0.0510  0.0837  0.2975
 3090W        W46003  31.395   2.792   7.260 -0.1844 -0.0619 -0.3973
 3091W        W46004  30.947   3.550  21.876  0.0130 -0.0631 -0.3351
 3092W        W46005  28.841  14.521   7.738 -0.0456  0.0723  0.1724
 3093W        W46006  17.398   2.566   5.197 -0.0210 -0.0032 -0.2071
 3094W        W46007  19.665   9.127   3.565  0.0720 -0.2259 -0.4177
 3095W        W46008  30.440   7.904   6.794  0.1650 -0.3645 -0.0491
 3096W        W46009  32.904   3.676  29.441  0.0488  0.3298  0.0704
 3097W        W46010  20.077   6.498  22.818  0.0364  0.0458 -0.1303
 3098W        W46011  14.810   4.726  26.477  0.0294 -0.1475 -0.2246
 3099W        W46012  28.670  15.582   3.716 -0.3216  0.2636  0.1572
 3100W        W46013  25.752  15.615   0.078  0.2841 -0.1574  0.2989
 3101W        W46014  22.191  32.130   0.400 -0.2023 -0.0260 -0.0238
 3102W        W46015  33.994  15.675  28.276  0.0901 -0.5785 -0.0740
 3103W        W46016  19.714  29.860  25.706  0.3130 -0.1848  0.0519
 3104W        W46017  23.533   2.383  14.352  0.1820  0.1099 -0.1374
 3105W        W46018  21.349  13.570   8.072 -0.0390 -0.3459 -0.0581
 3106W        W46019  21.857  20.556  15.207  0.5624  0.3589  0.1172
 3107W        W46020  11.831   8.915  27.899 -0.1113  0.1052  0.1397
 3108W        W46021  24.074  12.811  28.306 -0.2461 -0.2474  0.0434
 3109W        W46022  31.028  16.921  21.853  0.0997  0.0977  0.1672
 3110W        W46023  29.584   3.099   0.443 -0.2233  0.3898  0.2424
 3111W        W46024  17.886  10.414  15.129 -0.1112 -0.1665  0.1619
 3112W        W46025  19.979   7.405  26.993 -0.2326 -0.1554 -0.0279
 3113W        W46026  22.412   7.657  18.847 -0.2439 -0.0267 -0.1928
 3114W        W46027  26.650  15.685   7.640  0.1074  0.0510  0.0107
 3115W        W46028  21.563   7.495  15.235  0.1579 -0.0462 -0.1348
 3116W        W46029  20.332   2.960  19.027 -0.0565  0.2690 -0.0292
 3117W        W46030  26.652   8.874  24.253 -0.0643 -0.1541 -0.2235
 3118W        W46031  29.584  12.321  13.869 -0.0146  0.0707  0.0002
 3119W        W46032  21.918   9.658   3.397 -0.2726 -0.3458  0.0869
 3120W        W46033  25.882  14.614   2.141 -0.1679  0.2008  0.3492
 3121W        W46034  19.539  33.947   0.927 -0.0045  0.1430  0.0968
 3122W        W46035  22.179   7.807  23.000  0.0685  0.1432 -0.0067
 3123W        W46036  18.539   9.321   6.414 -0.0873  0.0892 -0.0736
 3124W        W46037  23.857   6.879   3.403 -0.3038 -0.0990  0.0534
 3125W        W46038  31.804  10.083  19.730  0.0943  0.1823  0.0649
 3126W        W46039  12.937  14.960  19.078 -0.0283 -0.3680  0.1210
 3127W        W46040  23.011   3.214   2.763 -0.2129 -0.5200  0.0317
 3128W        W46041  22.083  10.886  16.478 -0.1031  0.1345 -0.0097
 3129W        W46042  23.578   7.656  26.478  0.1429  0.3323  0.1994
 3130W        W46043  17.827   7.485  27.574  0.1963 -0.0482 -0.0620
 3131W        W46044  20.344  13.848  21.107  0.0120  0.1742 -0.0775
 3132W        W46045  20.839  10.600  27.089 -0.0235  0.0802  0.1911
 3133W        W46046  29.099  11.021   0.169  0.2759  0.1398 -0.3526
 3134W        W46047  20.323  14.095  25.313  0.0724  0.2147  0.1767
 3135W        W46048  14.720  19.746  25.510  0.2201  0.1509  0.2963
 3136W        W46049  23.660  13.031   0.753 -0.2213 -0.1275  0.0953
 3137W        W46050  25.080   7.109  20.931 -0.1702 -0.0425  0.2670
 3138W        W46051  27.294  17.647   6.742  0.1128 -0.1457  0.3049
 3139W        W46052  28.103   7.211  24.093 -0.1520 -0.3261  0.1730
 3140W        W46053  22.348   6.202   2.431 -0.0944 -0.0846 -0.1349
 3141W        W46054  25.484  10.885  27.897  0.4090 -0.0272 -0.2994
 3142W        W46055  29.481   6.015   0.542  0.1056  0.1270 -0.3239
 3143W        W46056  24.701  12.205  28.850  0.0062  0.2024  0.1019
 3144W        W46057  28.310  18.082  26.234 -0.0674  0.1828 -0.0413
 3145W        W46058  23.989  20.691  19.929 -0.2115  0.5193  0.0351
 3146W        W46059  20.880   9.961  13.800 -0.0236  0.1755  0.0727
 3147W        W46060  31.130   7.286  18.427 -0.2930 -0.3055  0.3971
 3148W        W46061  30.177   4.444  23.369 -0.2145  0.0981 -0.2992
 3149W        W46062  21.420  12.797  26.128  0.2587  0.1835 -0.0287
 3150W        W46063  28.048  29.457  19.634 -0.1333  0.0607 -0.0478
 3151W        W46064  23.531  10.043   1.386  0.1597  0.1830 -0.0877
 3152W        W46065  22.513  12.422  13.786  0.1500 -0.0790  0.1716
 3153W        W46066  10.702   7.268  11.303 -0.2030 -0.2402 -0.1526
 3154W        W46067  20.386   5.125  20.451  0.1107  0.0450  0.3041
 3155W        W46068  19.440  17.592   5.856  0.0203 -0.1769  0.1305
 3156W        W46069  25.306  11.438  24.842 -0.0223 -0.0157 -0.2592
 3157W        W46070  19.291   3.149   6.208  0.0451 -0.1019 -0.2890
 3158W        W46071  17.143  33.884  25.565 -0.0413 -0.1706  0.1407
 3159W        W46072  10.495  12.676   2.310 -0.0130  0.0920 -0.1105
 3160W        W46073  22.313   0.092  23.936 -0.1985 -0.1889 -0.1254
 3161W        W46074  23.018  13.917  25.623 -0.0974 -0.2948  0.2641
 3162W        W46075  24.837  30.199  18.134  0.0103  0.2807  0.2019
 3163W        W46076  16.826   6.668   9.202  0.4743  0.1740 -0.0363
 3164W        W46077  29.372  10.315  17.301 -0.1354  0.1694  0.0248
 3165W        W46078  22.944   4.539  21.312  0.3443 -0.1033  0.0087
 3166W        W46079  14.480   9.084  25.454 -0.1233  0.0976  0.0130
 3167W        W46080  20.485   6.836   4.705  0.2982 -0.0683 -0.3423
 3168W        W46081  21.407  11.088   4.944 -0.1045 -0.1173  0.2654
 3169W        W46082  29.953   4.760  27.398 -0.1883 -0.0685  0.2867
 3170W        W46083  11.856   5.739  25.153 -0.2155  0.2919  0.2926
 3171W        W46084  15.981  11.920  27.491  0.0738 -0.0583  0.2325
 3172W        W46085  24.607   4.393   6.516  0.2931 -0.0964  0.0310
 3173W        W46086  26.692   4.156   6.981  0.1081  0.0612 -0.3059
 3174W        W46087  33.278  12.396  20.371  0.0898  0.1421 -0.2262
 3175W        W46088   0.613  33.686   0.061 -0.0618 -0.0498 -0.2198
 3176W        W46089  29.529  11.001   8.376  0.4184  0.0135 -0.1359
 3177W        W46090  23.486   5.987   9.696 -0.1104 -0.0008 -0.1365
 3178W        W46091  22.893   6.733  17.216  0.1363 -0.3577  0.0611
 3179W        W46092  11.849  34.114  18.239  0.2019 -0.0039 -0.3888
 3180W        W46093  23.466  14.830  28.615 -0.0958  0.2439 -0.2982
 3181W        W46094  24.364   4.553   1.169 -0.0450  0.2144  0.1281
 3182W        W46095  18.855  10.001   6.375 -0.2440 -0.1133 -0.1056
 3183W        W46096  23.369  13.873  25.106 -0.1126 -0.0169 -0.1228
 3184W        W46097   0.049  11.864  23.990  0.0524  0.2261 -0.1709
 3185W        W46098  22.046  11.703  22.961 -0.1247  0.1592  0.0627
 3186W        W46099  14.641  13.527  27.710 -0.0630 -0.0675 -0.1863
 3187W        W46100  20.152  16.899  22.815 -0.0611 -0.2325 -0.0831
 3188W        W46101  20.591  14.253   2.339  0.1168 -0.1422  0.1007
 3189W        W46102  19.756  30.043  24.853  0.0708  0.1047 -0.0113
 3190W        W46103  27.296  15.073  28.221  0.0176 -0.1720  0.2624
 3191W        W46104  20.405   6.160   2.125 -0.1709  0.2680 -0.1246
 3192W        W46105  25.113  34.426   4.429 -0.1998 -0.1822  0.0491
 3193W        W46106  14.538   0.835   3.068 -0.1001  0.1087  0.3698
 3194W        W46107   8.516  10.878  29.706 -0.0481  0.0047 -0.1483
 3195W        W46108  28.118  14.412  17.554  0.2063 -0.0675 -0.2429
 3196W        W46109  34.300   4.763  24.753 -0.2914  0.0722  0.0118
 3197W        W46110  19.221   6.679  23.936  0.2928  0.0974  0.1757
 3198W        W46111  22.236   3.102  26.839  0.0792 -0.0386 -0.1563
 3199W        W46112  16.408  13.143   3.443  0.0780  0.2435 -0.3290
 3200W        W46113  23.958   8.828  23.200 -0.1884 -0.3086  0.1218
 3201W        W46114  32.065   4.777  10.340  0.0585  0.1210 -0.1451
 3202W        W46115  21.273   0.550  23.171  0.0821  0.1792  0.1003
 3203W        W46116  28.247   8.270  29.343 -0.0354 -0.0533 -0.0425
 3204W        W46117  17.296   9.728  18.418 -0.1684 -0.2496 -0.0906
 3205W        W46118  18.643   6.560  19.724 -0.0862 -0.1283  0.1670
 3206W        W46119  16.984   8.842  15.968 -0.2294 -0.1652  0.0602
 3207W        W46120  10.658  13.412  15.968  0.0884  0.0978  0.1529
 3208W        W46121  24.512   2.197   1.570 -0.0845 -0.1830  0.1536
 3209W        W46122  22.037   1.459  29.253 -0.0862  0.2193 -0.0460
 3210W        W46123  30.476  10.548  20.908  0.0232  0.1850  0.2643
 3211W        W46124  23.773   7.218  15.012  0.0043  0.0061 -0.2205
 3212W        W46125  23.143  14.254  27.078 -0.0622  0.0846 -0.2525
 3213W        W46126  12.353   4.489  11.441  0.0259  0.1154 -0.1186
 3214W        W46127   2.422   7.592  24.171  0.0884 -0.0850 -0.1154
 3215W        W46128  18.400   8.962   3.810  0.0577  0.0455  0.5203
 3216W        W46129  22.997   9.810  21.502  0.1764  0.0037  0.0286
 3217W        W46130  20.346  15.656  27.198  0.1888 -0.3851  0.1414
 3218W        W46131  23.369  32.199   8.098  0.1228 -0.1567 -0.1844
 3219W        W46132  30.348   0.473  20.413  0.0725  0.4359 -0.2406
 3220W        W46133  19.157   6.922  27.647  0.0649  0.2009  0.3024
 3221W        W46134  24.532  32.741   2.942 -0.0087 -0.2131  0.0405
 3222W        W46135  16.449  33.312  25.473  0.5114  0.0469  0.0391
 3223W        W46136  28.495   9.063  21.885 -0.0258  0.0886 -0.0700
 3224W        W46137   8.071  14.528  22.891 -0.0581  0.3514  0.2327
 3225W        W46138  21.530   1.658  26.081 -0.0423 -0.0144  0.0576
 3226W        W46139  23.931  24.956  24.805  0.0607 -0.1522  0.1239
 3227W        W46140  20.535  12.584  26.832 -0.1708 -0.2200  0.1335
 3228W        W46141  26.083   6.997  22.444  0.3705 -0.3141 -0.0641
 3229W        W46142  22.267   5.313  20.836  0.1880 -0.0519 -0.0717
 3230W        W46143  26.019  20.948  24.522 -0.3213  0.0372 -0.1098
 3231W        W46144  11.968  30.839   5.212 -0.1137 -0.1638 -0.0765
 3232W        W46145  23.820  17.009  29.024  0.1067 -0.1437  0.0108
 3233W        W46146  17.443   5.961  29.485 -0.1200 -0.0225 -0.4461
 3234W        W46147  17.391  31.780   4.862  0.3920 -0.5018 -0.0012
 3235W        W46148  21.233  16.869   6.945 -0.4117  0.2012  0.1710
 3236W        W46149  31.352   6.965   1.132 -0.0778 -0.3188 -0.0678
 3237W        W46150  22.676   9.045  27.249  0.1123  0.0468 -0.5436
 3238W        W46151  32.843   9.700   0.086 -0.1673  0.0129 -0.0496
 3239W        W46152  29.673  10.075  18.503 -0.1195  0.0011 -0.2252
 3240W        W46153  11.402   5.793   3.340  0.0166  0.0779  0.1885
 3241W        W46154  33.996   1.718  28.348 -0.2142  0.2718 -0.1985
 3242W        W46155  21.695  10.744   4.674 -0.0784 -0.2057  0.1078
 3243W        W46156  15.149  12.476  24.760 -0.0470  0.1363  0.0607
 3244W        W46157  20.026   3.556  25.034  0.1162 -0.1995  0.0533
 3245W        W46158  22.556   9.764   6.361  0.1024 -0.1502 -0.2095
 3246W        W46159  24.578   9.498   7.501 -0.2675  0.2085  0.0390
 3247W        W46160  22.374   7.361   4.743  0.1135 -0.2932  0.1720
 3248W        W46161  19.641   5.869   0.212  0.0396  0.0921 -0.0823
 3249W        W46162  18.383  15.699   0.555 -0.1795 -0.2410 -0.0635
 3250W        W46163  27.413   3.740  20.557  0.1124 -0.0889 -0.2131
 3251W        W46164  20.973   8.391  22.020 -0.0785  0.0386  0.0943
 3252W        W46165  27.201   3.153   8.312  0.2500 -0.1781  0.1928
 3253W        W46166  13.893  10.716   2.836  0.1142  0.1952  0.2105
 3254W        W46167  15.422  18.993  25.718 -0.1845  0.0105  0.0758
 3255W        W46168  28.653   7.580  28.730 -0.0730  0.2623 -0.1844
 3256W        W46169  29.414   6.473   5.330 -0.0482  0.0032  0.0739
 3257W        W46170  22.061  18.366  25.423  0.1046  0.0633  0.0753
 3258W        W46171  24.458   6.273  17.250 -0.2438 -0.1295 -0.0793
 3259W        W46172  15.257  30.347  22.751 -0.0173  0.0734  0.1782
 3260W        W46173  17.991   5.259   0.717  0.1398 -0.2534 -0.3582
 3261W        W46174  21.422  10.158  17.601 -0.1039  0.1911 -0.2200
 3262W        W46175  24.671  15.505   5.080  0.1945 -0.2881 -0.0839
 3263W        W46176  29.037   0.900   6.087 -0.0460  0.2190 -0.5005
 3264W        W46177  25.044   9.957  20.135 -0.1818  0.1875  0.0550
 3265W        W46178  16.855   7.944  24.143  0.3000  0.1465  0.1278
 3266W        W46179  23.719   3.645  26.776 -0.0515  0.3959 -0.0228
 3267W        W46180  19.459  13.111  24.392 -0.3378  0.1723 -0.0016
 3268W        W46181  32.775   9.479  15.095 -0.0125 -0.0748 -0.0076
 3269W        W46182  26.469  17.032   0.355  0.1376  0.0141 -0.0472
 3270W        W46183  25.946   0.360  15.822  0.0185  0.0974 -0.1737
 3271W        W46184   0.249  12.312  24.142  0.2673 -0.1751 -0.0283
 3272W        W46185  18.561  16.121  14.239  0.1141 -0.1222  0.0114
 3273W        W46186  32.435  16.539   2.223 -0.0542  0.0527 -0.1897
 3274W        W46187  15.130   4.789  23.830  0.2701  0.0665  0.2002
 3275W        W46188  15.333  30.967   2.630  0.0253 -0.3736  0.1404
 3276W        W46189  17.044  32.500   6.304  0.1944 -0.0223 -0.0051
 3277W        W46190  22.587   5.356  21.839  0.1200 -0.2421 -0.2292
 3278W        W46191  29.225   6.558  22.858  0.0284 -0.0054  0.1238
 3279W        W46192  13.057  15.715  27.284  0.0088 -0.0524  0.1379
 3280W        W46193  15.847   4.185  25.557 -0.5866 -0.0228  0.1604
 3281W        W46194  20.285  13.804  17.482  0.3012  0.1315  0.1589
 3282W        W46195  18.681   1.422  19.587 -0.0008 -0.0506  0.0935
 3283W        W46196  28.479   2.490  24.173 -0.1125 -0.0759  0.2145
 3284W        W46197  16.576   6.659  28.029 -0.1723  0.0320 -0.0201
 3285W        W46198  27.721   6.607  28.631 -0.0924 -0.2741  0.3949
 3286W        W46199  19.777  19.439  25.376  0.2418  0.1553 -0.1298
 3287W        W46200  26.188   3.533   2.265  0.1427  0.0740  0.0281
 3288W        W46201  19.497  30.347   2.496 -0.0763 -0.1467  0.0561
 3289W        W46202  31.985   6.461   5.405  0.2262  0.0014 -0.1291
 3290W        W46203   4.824  19.517   1.946 -0.2124 -0.1944 -0.1368
 3291W        W46204  25.293   2.533   2.060  0.0480  0.0368 -0.1890
 3292W        W46205  25.348  20.295  24.312 -0.2247 -0.0537 -0.3007
 3293W        W46206  21.196   5.252  26.569  0.1869 -0.3467 -0.1669
 3294W        W46207  18.435   6.383  25.446 -0.0835 -0.2099 -0.1591
 3295W        W46208  20.814  33.711  24.956  0.1694 -0.0230  0.2058
 3296W        W46209  21.407   8.801  16.691  0.2823  0.0208 -0.2605
 3297W        W46210  11.764  30.267  24.091 -0.0205  0.1944  0.1259
 3298W        W46211  31.421   7.563  25.648 -0.1090 -0.3829  0.0283
 3299W        W46212  19.105  11.443   4.602 -0.3674  0.1507  0.0639
 3300W        W46213  21.852  19.485  18.178  0.1510  0.2421 -0.3230
 3301W        W46214  31.297  10.601  28.305  0.0455 -0.2645 -0.4865
 3302W        W46215  27.437  18.451  29.307 -0.1010 -0.2934 -0.3866
 3303W        W46216  18.848   7.643  20.526 -0.1687 -0.0166  0.1716
 3304W        W46217  27.590   6.395   0.022 -0.0411  0.3021 -0.1262
 3305W        W46218  21.391  32.513   0.090 -0.0835 -0.3922  0.1476
 3306W        W46219  19.738  17.702   1.935 -0.3721 -0.1493  0.0218
 3307W        W46220  29.542   6.061   5.053  0.1894  0.2057 -0.1542
 3308W        W46221  19.966  10.419  27.905 -0.0119  0.2631  0.0672
 3309W        W46222  16.360  16.129  24.100 -0.0452  0.0687  0.3425
 3310W        W46223  23.635  18.710  29.272  0.1196  0.0954  0.4089
 3311W        W46224  20.211   4.991   1.620 -0.3255 -0.0837  0.1253
 3312W        W46225  22.578   5.294  23.962  0.0399  0.0739 -0.1319
 3313W        W46226  22.639  10.596  19.829 -0.1991  0.0482 -0.1102
 3314W        W46227  31.357  12.018  26.478  0.2922 -0.1966 -0.0115
 3315W        W46228  25.439   6.727  24.544  0.0802  0.0089  0.2908
 3316W        W46229  21.156   2.432  29.768 -0.2926  0.1959 -0.0203
 3317W        W46230  20.579  18.971  18.502 -0.1529 -0.1406 -0.1794
 3318W        W46231  26.380  31.415   4.889 -0.0435 -0.0941 -0.0126
 3319W        W46232  25.698  21.447  16.325  0.2033  0.0205  0.0078
 3320W        W46233  15.578  13.584   3.210 -0.0113  0.0094  0.1087
 3321W        W46234  13.584  28.200  25.666 -0.2465 -0.3543  0.1058
 3322W        W46235  20.232   4.660   2.737  0.0591 -0.0348  0.1445
 3323W        W46236  32.106   6.293  19.737 -0.1285 -0.1330  0.1237
 3324W        W46237   0.379   7.110  19.438  0.1130 -0.3127 -0.0572
 3325W        W46238   3.567  11.061   1.615 -0.0406  0.0490  0.0729
 3326W        W46239  16.923   7.559   1.374 -0.3775 -0.0923 -0.1937
 3327W        W46240  17.583   7.010  24.570  0.2188  0.1024 -0.1882
 3328W        W46241  22.900  11.724  26.504  0.0936 -0.1273  0.1891
 3329W        W46242   6.389  34.331  18.249  0.4208  0.2078  0.1226
 3330W        W46243  25.233   7.519   2.555  0.0027 -0.1047  0.2032
 3331W        W46244  30.565   9.238  24.242 -0.0806  0.0151 -0.3313
 3332W        W46245  23.534   6.910   0.831  0.0621 -0.3022 -0.2097
 3333W        W46246  11.122  10.465  29.379 -0.1243  0.1536  0.3246
 3334W        W46247  21.839  16.698   0.108 -0.1016 -0.1186 -0.2479
 3335W        W46248  33.639   6.387  27.764  0.1644  0.0844 -0.0014
 3336W        W46249  21.481  14.667  22.748  0.3421  0.1928  0.3314
 3337W        W46250  21.827  17.594  19.163 -0.0035 -0.0815  0.0758
 3338W        W46251  24.611   5.930   0.738 -0.0431  0.0250  0.0576
 3339W        W46252  21.349   9.038  18.656 -0.1606  0.2386 -0.1916
 3340W        W46253  12.478  10.172  22.899  0.1286  0.0409  0.2563
 3341W        W46254  17.416   2.845   3.682 -0.0317 -0.0923 -0.1422
 3342W        W46255  10.145   3.860   4.650 -0.0423  0.3670 -0.0812
 3343W        W46256  22.556  13.830  20.142  0.1313  0.2089  0.0713
 3344W        W46257  30.118   5.894  27.723  0.0305 -0.0255 -0.3838
 3345W        W46258  26.919   8.487   4.087  0.3512 -0.3794  0.0158
 3346W        W46259  19.527  33.970   3.591 -0.2557  0.0789  0.0100
 3347W        W46260  19.236  21.791  27.146  0.1041 -0.0847  0.2913
 3348W        W46261  25.464   5.007  16.190  0.1951  0.2637 -0.0864
 3349W        W46262  27.956  10.966  21.057  0.3272  0.5061  0.1484
 3350W        W46263  17.099   7.897   1.660  0.1102  0.1853  0.1093
 3351W        W46264  31.912   1.233   0.540 -0.0787 -0.1122 -0.1084
 3352W        W46265  27.505   8.955  28.070 -0.0234 -0.1474  0.3878
 3353W        W46266  16.492  12.349  26.777 -0.0241 -0.1570  0.2047
 3354W        W46267  33.647   8.190   1.155  0.1408 -0.1627 -0.1284
 3355W        W46268  14.203  32.654   1.682  0.1363 -0.1477 -0.4452
 3356W        W46269  24.653  20.187  27.493 -0.1202 -0.0108 -0.2748
 3357W        W46270  22.686   8.772   0.024  0.1701 -0.2078  0.0382
 3358W        W46271  20.003   5.572  24.432 -0.2165  0.2953  0.2167
 3359W        W46272  26.666  13.973   6.033 -0.0020 -0.0797  0.1018
 3360W        W46273  24.307   5.647   4.900 -0.3781  0.0203  0.0932
 3361W        W46274  19.125   7.376  27.992  0.0252 -0.0523 -0.1111
 3362W        W46275  27.115  23.883  20.328 -0.2106  0.1040 -0.2830
 3363W        W46276  25.809   0.605  28.715 -0.0370 -0.5103 -0.1041
 3364W        W46277  26.520   2.775  18.214 -0.0208  0.0387 -0.2651
 3365W        W46278  21.619  32.525  29.391  0.0099 -0.2012  0.1536
 3366W        W46279  28.076   7.044   5.445  0.1929 -0.1095  0.0570
 3367W        W46280  28.399  28.761  23.171 -0.1502  0.0459  0.3147
 3368W        W46281  27.306  14.169  24.997 -0.0769 -0.0051  0.0638
 3369W        W46282  31.827  17.991   1.858  0.0668  0.2284  0.0127
 3370W        W46283  27.849  19.905  26.682  0.1488  0.3189  0.0868
 3371W        W46284  32.412  11.269  25.458  0.1763  0.0271 -0.0101
 3372W        W46285  33.148  13.016  25.944 -0.0522 -0.2033  0.0137
 3373W        W46286  29.207   3.931  24.499 -0.0985  0.1372 -0.1497
 3374W        W46287  24.578   9.757  27.838 -0.1081  0.0098 -0.1211
 3375W        W46288  19.523   7.917  22.804 -0.3366  0.3250  0.0443
 3376W        W46289  20.890  15.353  24.820 -0.2901 -0.0689  0.0397
 3377W        W46290  24.929  19.323  23.936 -0.2484  0.1179  0.0227
 3378W        W46291   9.577  16.786  26.619  0.2539 -0.2524  0.1988
 3379W        W46292  27.713   8.211  29.453  0.2593 -0.3022 -0.0527
 3380W        W46293  14.749  10.080   8.287  0.1441 -0.0608 -0.2511
 3381W        W46294  17.113   9.723   1.777  0.1782  0.0100  0.1118
 3382W        W46295  23.044   2.067   1.491  0.1127  0.0158  0.1859
 3383W        W46296  18.197   3.564  10.293  0.0138  0.2300  0.0935
 3384W        W46297  18.032   9.871   1.476 -0.0974  0.2407 -0.1306
 3385W        W46298  25.086   9.032  22.225  0.1967 -0.3221 -0.0392
 3386W        W46299  21.442  10.543  27.189 -0.2043  0.1400  0.0918
 3387W        W46300  34.406  10.431   8.883 -0.1628 -0.3535  0.0253
 3388W        W46301  22.773  33.180  25.756 -0.0443  0.0672 -0.1305
 3389W        W46302  18.466   9.665   1.605 -0.2912 -0.0438 -0.1074
 3390W        W46303  28.881   9.486   4.022 -0.3477  0.2867  0.0094
 3391W        W46304  23.063  12.310  27.745 -0.0817 -0.1166 -0.0773
 3392W        W46305  18.184  14.303   5.181  0.0375  0.0196  0.0255
 3393W        W46306  30.294  31.106  22.074  0.1695 -0.0043 -0.0259
 3394W        W46307  25.471   8.718   8.746  0.0064  0.1705 -0.1903
 3395W        W46308  26.221  14.292  25.479  0.2010  0.2398 -0.1256
 3396W        W46309  27.697  20.818  27.877 -0.2354 -0.1624  0.0305
 3397W        W46310  10.423   4.812  26.858 -0.0127 -0.1003 -0.2167
 3398W        W46311  27.334  11.276  19.108  0.0666 -0.0890  0.0043
 3399W        W46312  28.578  14.522  21.178  0.1235  0.1618 -0.0072
 3400W        W46313  20.768   2.942  23.564  0.2208 -0.2205  0.0194
 3401W        W46314  20.524  10.908  22.037 -0.0944 -0.1255 -0.2040
 3402W        W46315  24.827  11.139   0.970  0.0421 -0.1053 -0.0968
 3403W        W46316  16.342   0.891  21.493 -0.3555 -0.2342  0.0487
 3404W        W46317  24.449  20.951  25.693 -0.1096 -0.0932  0.3302
 3405W        W46318  26.041   2.959   2.123 -0.0599 -0.1006 -0.3991
 3406W        W46319  31.078  31.743  20.933 -0.2055  0.2253  0.2236
 3407W        W46320  24.748   3.162  27.357 -0.0268  0.1063  0.1072
 3408W        W46321  29.314  33.194  27.763  0.1203  0.3815 -0.1483
 3409W        W46322  13.375  31.336   1.610 -0.1235  0.1585  0.0598
 3410W        W46323   8.252  32.813  20.462 -0.2199 -0.4805  0.0825
 3411W        W46324  28.926   5.839   0.667  0.0788 -0.3227 -0.0547
 3412W        W46325  20.013  10.336  23.288  0.0970 -0.2192 -0.0097
 3413W        W46326  18.498  34.351  21.159  0.0482 -0.0084 -0.1836
 3414W        W46327  27.272   4.461  29.096  0.2503  0.0791 -0.3621
 3415W        W46328  21.745   4.221  24.140  0.2315  0.1257 -0.1127
 3416W        W46329  20.449  28.014  24.542 -0.0802 -0.1245 -0.3238
 3417W        W46330   0.795   3.189   1.459  0.0682  0.4735 -0.0926
 3418W        W46331  16.721  14.614  28.833  0.1504  0.0449  0.0847
 3419W        W46332  30.718   9.605  29.190  0.3093  0.1242 -0.1322
 3420W        W46333  24.632   8.371  25.067 -0.0018  0.0667 -0.1803
 3421W        W46334  22.333   4.078  29.464  0.4242  0.3472  0.0246
 3422W        W46335  26.776  12.366   4.208 -0.1664  0.0953 -0.3783
 3423W        W46336  25.223  11.013  27.203 -0.1232 -0.1009  0.3430
 3424W        W46337  13.468   9.585  28.578  0.0789 -0.0767 -0.1759
 3425W        W46338  26.492   3.940  28.430  0.2341 -0.0255  0.0662
 3426W        W46339  15.420  30.909   4.838 -0.1292 -0.1032  0.2492
 3427W        W46340  22.806   8.172   7.142  0.4421 -0.0189 -0.1068
 3428W        W46341  27.749   8.486   4.510 -0.0338 -0.0012  0.1259
 3429W        W46342  22.347   7.371   5.781  0.7219  0.0418  0.1808
 3430W        W46343  27.728  13.201  23.231 -0.1751  0.0107  0.1875
 3431W        W46344  25.980   8.379   5.967  0.1504 -0.2179  0.0902
 3432W        W46345  16.798  12.511  18.605  0.2550  0.1706 -0.1740
 3433W        W46346  19.831  10.025  29.204 -0.1223 -0.0569 -0.1248
 3434W        W46347  27.035  33.278  24.318  0.0862  0.3389  0.0416
 3435W        W46348  23.682   9.132  22.213 -0.2523 -0.2382  0.1083
 3436W        W46349  15.636   6.088  21.535 -0.0994 -0.0150  0.0821
 3437W        W46350  15.496  11.397   0.771 -0.0019  0.1493 -0.1228
 3438W        W46351  26.434   2.298   3.747  0.1940 -0.2050  0.0733
 3439W        W46352  23.942  15.344  23.117 -0.0438 -0.0350  0.3616
 3440W        W46353  17.652  12.779  16.545 -0.0442  0.5713  0.1666
 3441W        W46354  29.831  19.681   3.777  0.1243  0.0638 -0.1424
 3442W        W46355   6.765  33.297  16.872  0.0766  0.0228  0.0535
 3443W        W46356  29.168   6.918   1.898 -0.2901  0.2820 -0.1396
 3444W        W46357  16.408   0.559  27.110 -0.0425 -0.0684 -0.2432
 3445W        W46358  24.709  15.109  27.082 -0.3939  0.4445  0.1937
 3446W        W46359  29.569  13.219   9.146 -0.0837  0.2235 -0.0796
 3447W        W46360  29.370  12.072  18.662 -0.0255 -0.0671 -0.0350
 3448W        W46361  25.250   5.313  27.934 -0.0769  0.0413  0.0063
 3449W        W46362  20.966  10.515  14.633 -0.1287  0.4594  0.5031
 3450W        W46363  28.347  19.195  16.371  0.0131  0.1801  0.0528
 3451W        W46364  27.398  19.515  16.999 -0.2130  0.0052  0.2925
 3452W        W46365   0.258  12.257  17.761  0.0717  0.0656  0.1782
 3453W        W46366  19.790  14.623  16.013  0.1622  0.2089 -0.3171
 3454W        W46367  16.129  30.194  22.383  0.0129 -0.0336  0.4393
 3455W        W46368  19.726   7.026  19.223 -0.1865  0.0725  0.0366
 3456W        W46369  33.739   8.213  23.686  0.3133  0.0909 -0.0651
 3457W        W46370  27.768  12.217  16.200  0.2470 -0.0457 -0.0854
 3458W        W46371  25.276  18.847  19.830 -0.0794  0.1338 -0.1367
 3459W        W46372  30.168  12.297  14.527  0.0017 -0.2018  0.1223
 3460W        W46373  20.831  13.599  14.942  0.0985  0.1776 -0.0013
 3461W        W46374  16.760   5.204  21.959 -0.1155  0.2145  0.0299
 3462W        W46375  22.903  22.010  15.282  0.3465 -0.0703  0.1504
 3463W        W46376  23.310  19.099  23.334  0.2340 -0.1732 -0.1823
 3464W        W46377  10.164  12.258  15.689  0.0118  0.2771  0.3240
 3465W        W46378  25.730   8.027  27.741 -0.1929  0.0554 -0.0887
 3466W        W46379  30.583   8.116  18.575 -0.1875  0.2490 -0.0290
 3467W        W46380  11.525  22.886  16.801 -0.0459 -0.2868  0.2462
 3468W        W46381  33.016  22.855  17.652 -0.0551  0.0382  0.2467
 3469W        W46382  24.362  12.459  15.909  0.1182 -0.0936 -0.0300
 3470W        W46383  19.386   9.812  18.640  0.2676 -0.1187  0.2088
 3471W        W46384  24.829  11.890  24.523 -0.3942 -0.1468  0.0134
 3472W        W46385  17.691  30.266  15.312  0.1808  0.1368  0.0570
 3473W        W46386  24.386  17.198  13.899  0.3251 -0.1536 -0.0749
 3474W        W46387  31.367  14.972  16.547  0.0497 -0.1138 -0.0414
 3475W        W46388  16.444  21.561  19.365  0.2748  0.1375  0.0030
 3476W        W46389  28.809  16.922  19.156 -0.1435 -0.0655  0.0423
 3477W        W46390  26.632  23.550  13.531 -0.1351  0.1147 -0.1483
 3478W        W46391  21.655  15.152  20.446 -0.3135 -0.2596  0.1006
 3479W        W46392  29.403   5.296  20.653  0.0197 -0.1055 -0.0232
 3480W        W46393  28.753  16.858  26.838 -0.0743 -0.0170  0.2935
 3481W        W46394   2.476  16.122  19.643 -0.2194 -0.0303  0.1965
 3482W        W46395  32.481  14.177  22.376  0.2179  0.0548  0.1416
 3483W        W46396  22.065   8.437  24.094 -0.1057  0.2539 -0.0868
 3484W        W46397  29.354  22.070  20.244 -0.0997 -0.3945 -0.0025
 3485W        W46398  20.723  24.640  14.367  0.3511 -0.1441  0.0633
 3486W        W46399  24.260  20.754  13.395  0.0544  0.0922 -0.2181
 3487W        W46400  24.166  19.060  15.005 -0.1697 -0.0927  0.0368
 3488W        W46401  25.606  15.745  16.229  0.0626 -0.1143 -0.0711
 3489W        W46402  26.021   2.980  16.336 -0.5078  0.1609  0.0707
 3490W        W46403  28.749   8.967  16.293 -0.2061  0.0711 -0.2280
 3491W        W46404  26.972   9.389  26.541  0.2076  0.0563  0.2991
 3492W        W46405  28.362  19.241  15.251 -0.0306 -0.2291  0.3005
 3493W        W46406  16.042  15.408  16.335 -0.1309  0.2185 -0.2602
 3494W        W46407   1.338   7.351  28.038  0.0830  0.0620  0.1153
 3495W        W46408  16.737  10.991  16.650  0.1299  0.0933 -0.1288
 3496W        W46409  17.597   7.264  20.638  0.1512  0.3202  0.1490
 3497W        W46410  25.487  13.132  15.168 -0.0699  0.0067  0.1217
 3498W        W46411  22.031   6.984  18.198 -0.1857 -0.0089 -0.1849
 3499W        W46412  24.723  18.845  13.859  0.2624  0.2322  0.1805
 3500W        W46413  23.577   8.534  18.959  0.1570  0.0270  0.5122
 3501W        W46414  10.753   6.812  17.002 -0.1531 -0.0205  0.0851
 3502W        W46415  19.161  20.380  14.370 -0.0364  0.2425 -0.0228
 3503W        W46416  22.412  15.853  20.728  0.0598  0.5386 -0.1036
 3504W        W46417  21.853   8.386  16.652 -0.0705  0.0970 -0.3362
 3505W        W46418  17.833  20.549  11.749 -0.0174 -0.2753 -0.0149
 3506W        W46419  25.824   7.200  25.497 -0.0482  0.3096 -0.1322
 3507W        W46420  25.256  13.334  23.209 -0.0624 -0.0391  0.0283
 3508W        W46421  28.911  12.338  15.570  0.1686  0.2073 -0.1802
 3509W        W46422  11.085   9.725  20.437  0.0092  0.0206  0.1873
 3510W        W46423  19.705   0.162  24.914 -0.1944  0.2937 -0.3475
 3511W        W46424  17.169   4.112  23.343  0.2745 -0.0707 -0.1105
 3512W        W46425  16.482  24.117  24.349  0.0818  0.2807  0.1652
 3513W        W46426  23.442  12.425  18.993  0.0774 -0.0293 -0.0105
 3514W        W46427  22.032  24.336  12.809  0.1159 -0.2132 -0.1957
 3515W        W46428  19.370  10.985  13.145  0.0706 -0.1568  0.0930
 3516W        W46429  23.967  12.260  23.593  0.1334 -0.0453  0.2155
 3517W        W46430  28.418  14.210  20.455 -0.1892 -0.0656  0.1114
 3518W        W46431  22.058  13.097  16.210 -0.0138  0.3469  0.0153
 3519W        W46432  27.385  13.340  19.469  0.1657 -0.0267 -0.1561
 3520W        W46433  19.618  34.448  24.441  0.1515 -0.1586 -0.0516
 3521W        W46434  18.620  22.737  15.140 -0.0930 -0.1322 -0.0518
 3522W        W46435  27.028  17.736  16.152  0.1640 -0.1162  0.0183
 3523W        W46436  28.609  21.152  19.340  0.2050 -0.1980  0.0934
 3524W        W46437  21.378  13.083  17.295  0.0477  0.0121  0.0174
 3525W        W46438  28.412   8.462  15.503  0.3735 -0.1945 -0.2280
 3526W        W46439  19.993   7.910  20.938  0.1293  0.0731 -0.1627
 3527W        W46440  29.673   1.482  18.945 -0.0063 -0.2152  0.1356
 3528W        W46441  23.809  26.022  20.376 -0.2419 -0.1917 -0.3627
 3529W        W46442  18.982  16.991  13.032 -0.0473  0.2019 -0.0307
 3530W        W46443  12.011   7.364  22.424  0.0103  0.3470  0.0866
 3531W        W46444  21.446  15.307  14.206  0.0453 -0.2280 -0.0377
 3532W        W46445  24.719   8.048  20.921 -0.2205  0.0422 -0.2604
 3533W        W46446  12.117  15.548  13.792 -0.0023  0.2265  0.1316
 3534W        W46447  20.352  11.542  12.108 -0.0029  0.4297  0.1575
 3535W        W46448  30.167  15.504   1.059 -0.0349 -0.1025 -0.1401
 3536W        W46449  18.572  13.137  16.095  0.3152 -0.3377 -0.0209
 3537W        W46450  13.363  20.050  17.612 -0.1571  0.0907 -0.0825
 3538W        W46451  25.493  10.425  20.031  0.1158  0.1566 -0.1906
 3539W        W46452  29.651  13.838  22.412  0.2102 -0.3836  0.0375
 3540W        W46453  20.678  24.346  17.257  0.2474 -0.1084 -0.0019
 3541W        W46454  34.400   3.826  16.892  0.0816 -0.0279 -0.0562
 3542W        W46455  28.988  34.466  15.019 -0.0122  0.0070  0.1263
 3543W        W46456  25.049   8.456  13.431 -0.3580 -0.2581 -0.0682
 3544W        W46457  28.612  20.566  18.617 -0.3150  0.1103 -0.1051
 3545W        W46458  17.909  15.707  14.436 -0.1126  0.1662  0.0448
 3546W        W46459  19.701  10.699  12.820  0.0822  0.0281  0.2425
 3547W        W46460  21.896  15.942  19.879  0.4247  0.0349  0.2550
 3548W        W46461   8.305   2.560  19.188 -0.2211  0.1509  0.2642
 3549W        W46462  18.547  11.484  17.200 -0.0565  0.2190  0.0859
 3550W        W46463  22.021  20.738  12.002 -0.0817 -0.0437  0.1589
 3551W        W46464  28.736  27.769  20.466 -0.0394 -0.1630  0.2058
 3552W        W46465  24.858  25.208  16.317 -0.0988 -0.0059 -0.0537
 3553W        W46466   0.606  25.864  15.083 -0.1409  0.0315  0.1663
 3554W        W46467  24.345  19.994  17.429  0.0316  0.1760  0.1516
 3555W        W46468  22.750  11.319  19.780 -0.0108 -0.0943  0.0140
 3556W        W46469  28.178   8.605  24.083 -0.2213  0.0929 -0.2204
 3557W        W46470  20.773  21.104  14.685 -0.3122 -0.1571 -0.0546
 3558W        W46471  23.013   5.807  17.500  0.0226 -0.0595  0.1200
 3559W        W46472  26.966   9.702  22.961 -0.0408 -0.0643 -0.0502
 3560W        W46473  32.040  20.781  16.904 -0.3945  0.0763  0.0522
 3561W        W46474  16.686   5.279  16.261  0.0782  0.2445 -0.1258
 3562W        W46475  26.311   2.105  20.155  0.0533 -0.0048  0.0868
 3563W        W46476  24.119  12.148  17.729  0.0582  0.0256 -0.0866
 3564W        W46477  16.161   9.424  18.377 -0.3809 -0.0543  0.2804
 3565W        W46478  14.936  11.857  13.408  0.1467 -0.0898  0.2401
 3566W        W46479  32.511  12.885  23.794  0.3435  0.0952 -0.0472
 3567W        W46480  14.775  26.223  15.743 -0.2393  0.3374  0.1995
 3568W        W46481  22.239  12.106  25.785  0.0873 -0.0388  0.2370
 3569W        W46482  13.866  21.206  13.793 -0.0772  0.0586  0.0521
 3570W        W46483  28.920  11.064  17.915  0.1317  0.2196 -0.2328
 3571W        W46484  20.519   5.204  18.892  0.0059  0.3078  0.1253
 3572W        W46485  27.470  15.644  15.121 -0.0471  0.0839 -0.2657
 3573W        W46486  13.155  17.396  13.187  0.1516 -0.1394 -0.1561
 3574W        W46487  18.807  10.010  20.681 -0.2976  0.0341 -0.0919
 3575W        W46488  17.221  13.191  17.148  0.1507 -0.1463 -0.0207
 3576W        W46489  25.935   9.671  16.504  0.2935 -0.0402  0.0880
 3577W        W46490  24.161   6.576  22.493 -0.0956  0.0371  0.1627
 3578W        W46491  20.931  29.743  19.896 -0.1069 -0.1370  0.0778
 3579W        W46492  22.242  23.849  15.343 -0.3830  0.0867  0.1798
 3580W        W46493  29.922   9.002  18.448 -0.0610 -0.1063  0.0447
 3581W        W46494  25.099  17.551  19.007 -0.1488  0.1555 -0.1974
 3582W        W46495  29.626  13.779  26.009 -0.0524 -0.1110 -0.0954
 3583W        W46496  26.685  24.092  18.361  0.0135  0.1742  0.1031
 3584W        W46497  25.285  12.263  19.866 -0.0393 -0.0047  0.1365
 3585W        W46498  10.708   7.825  20.945 -0.0835  0.2975 -0.0267
 3586W        W46499  19.603  18.767  12.074  0.0552 -0.1208 -0.1082
 3587W        W46500  15.377   6.276  24.692  0.1111 -0.1118  0.2545
 3588W        W46501  25.975  13.251  25.345  0.0787 -0.1533 -0.2903
 3589W        W46502  26.810  22.106  23.008  0.0638  0.0353 -0.3352
 3590W        W46503  32.621   7.137  16.415  0.0093 -0.4342  0.1503
 3591W        W46504  18.127   3.849  16.115 -0.0669  0.1215  0.1184
 3592W        W46505  25.531  27.550  17.621 -0.2293 -0.0901 -0.0990
 3593W        W46506  21.882   9.029  20.872 -0.0713 -0.1078 -0.3137
 3594W        W46507  17.383  14.331  15.408  0.2156 -0.2268  0.0052
 3595W        W46508  27.534  11.136  21.458  0.3602  0.3747 -0.2006
 3596W        W46509  27.604  22.168  15.316  0.2006 -0.1202 -0.1360
 3597W        W46510  23.507   4.209  19.366 -0.1757 -0.1800  0.1342
 3598W        W46511  21.694   3.705  14.464 -0.1736 -0.2497  0.0189
 3599W        W46512  29.853   6.925  26.965  0.1026 -0.1325 -0.0138
 3600W        W46513  21.028   0.719  26.978 -0.0052 -0.1774 -0.0123
 3601W        W46514  20.342   6.398  14.555 -0.0058 -0.1597  0.0067
 3602W        W46515  20.083  26.670  27.633  0.2041 -0.0305 -0.1822
 3603W        W46516  27.521  10.832  24.083 -0.0977  0.1619  0.3537
 3604W        W46517  27.177  13.588  15.608 -0.0551  0.0813  0.0770
 3605W        W46518  16.475  13.767  21.228  0.0883  0.1517 -0.0851
 3606W        W46519  15.216  11.360  12.424 -0.2334 -0.0581  0.1058
 3607W        W46520  19.840  16.495  13.836  0.1607  0.0197  0.0809
 3608W        W46521  32.618  16.362  17.590  0.1462 -0.0361  0.2675
 3609W        W46522  28.955   6.116  17.419 -0.3801 -0.0274 -0.0126
 3610W        W46523  12.470   8.911  14.123  0.2146 -0.1053  0.2059
 3611W        W46524  21.858  14.173  15.935  0.1046 -0.0193 -0.1531
 3612W        W46525  28.530   4.683  22.812  0.1931  0.0485 -0.1126
 3613W        W46526  32.492   5.708  19.504  0.3223  0.0940  0.2088
 3614W        W46527  20.811   3.057  13.923  0.3059 -0.5757 -0.0399
 3615W        W46528  25.602  15.544  15.529 -0.1045 -0.0316  0.0284
 3616W        W46529  27.584  21.122  22.087 -0.1347 -0.3370  0.3145
 3617W        W46530  13.169  13.446  16.194  0.0603  0.3812  0.1800
 3618W        W46531  23.864  16.644  17.014  0.0061 -0.2433 -0.1388
 3619W        W46532  28.375  12.490  19.727 -0.0341 -0.1608  0.1103
 3620W        W46533  31.752  18.381  15.424 -0.0395  0.0566  0.2242
 3621W        W46534  23.013  18.278  16.935  0.0961  0.0555  0.5306
 3622W        W46535  25.855  19.395  19.585  0.0264  0.1700 -0.0976
 3623W        W46536  23.604  12.487  19.647 -0.2522  0.0654 -0.1470
 3624W        W46537  33.018  11.458  15.110  0.1253 -0.1134  0.4674
 3625W        W46538  22.834  14.194  15.626  0.0585  0.1361  0.0636
 3626W        W46539  24.449  19.489  15.876 -0.0281 -0.0985  0.3265
 3627W        W46540  17.022  14.111  14.402  0.1491  0.2850 -0.2844
 3628W        W46541  17.275  10.865  13.542 -0.2308  0.1443 -0.1053
 3629W        W46542  19.918  12.984  17.256  0.0844 -0.2381  0.1757
 3630W        W46543  26.607   3.095  17.791  0.1884  0.1225 -0.0462
 3631W        W46544  23.107  18.372  22.273 -0.1168 -0.0202  0.2411
 3632W        W46545  20.151  21.115  15.670  0.0965 -0.0221  0.1938
 3633W        W46546  29.710   8.304  18.520 -0.0388  0.1640  0.0600
 3634W        W46547  29.478   2.755  23.924  0.0565 -0.1573  0.0425
 3635W        W46548  22.014  15.447  12.630  0.0755 -0.3049 -0.2193
 3636W        W46549  24.980  18.980  17.779  0.0500 -0.2831 -0.0758
 3637W        W46550  28.898   8.450  17.098  0.0579  0.1002 -0.0970
 3638W        W46551  29.982  10.598  15.405 -0.1750  0.1492 -0.0200
 3639W        W46552  14.513  14.155  13.590 -0.0695 -0.2271  0.2129
 3640W        W46553  15.434   6.817  17.549  0.3366 -0.2600 -0.0127
 3641W        W46554  23.779  17.816  13.268  0.3171  0.2132  0.1065
 3642W        W46555  16.289   9.491  20.569  0.0449 -0.0491 -0.1126
 3643W        W46556  23.042   8.876  18.087  0.0817 -0.1336 -0.0462
 3644W        W46557  10.489  19.601  26.289  0.0019  0.1318 -0.2399
 3645W        W46558  21.074  13.704  16.874 -0.3097  0.1103 -0.1692
 3646W        W46559  24.641  13.758  15.571 -0.3789  0.1687  0.1076
 3647W        W46560  27.621  15.363  16.414  0.0553  0.0447  0.2770
 3648W        W46561  29.175  17.016  26.463 -0.1263  0.0876  0.0354
 3649W        W46562  22.765   8.671  14.000 -0.1911  0.1348 -0.0330
 3650W        W46563  30.084  20.203  13.388 -0.0198 -0.0607 -0.2238
 3651W        W46564  13.784  16.484  14.906 -0.2979 -0.0377  0.3040
 3652W        W46565  27.063  21.845  20.349  0.1226  0.2573  0.0550
 3653W        W46566  24.603  14.211  18.602  0.0989  0.3136  0.0447
 3654W        W46567  14.866   6.769  16.575 -0.0750 -0.0000 -0.0055
 3655W        W46568  20.967  12.831  25.581 -0.2416 -0.1318  0.1800
 3656W        W46569  22.799  18.218  13.944  0.0062 -0.0829 -0.1569
 3657W        W46570  25.722  12.406  18.122  0.1906 -0.1743 -0.1463
 3658W        W46571  21.246  10.862  18.521  0.0671  0.3503  0.3340
 3659W        W46572  27.501  23.542  13.889 -0.0404  0.2778  0.0928
 3660W        W46573  19.215  17.044  11.967 -0.1923 -0.0789 -0.0717
 3661W        W46574  22.803  14.454  12.849  0.0173 -0.1115 -0.2094
 3662W        W46575  22.785  11.619  18.367  0.1091  0.1957  0.3181
 3663W        W46576  21.523  19.890  21.461 -0.0427  0.0935 -0.0663
 3664W        W46577  23.028   9.869  14.925  0.2268  0.0183  0.3330
 3665W        W46578  19.904   5.825  26.861 -0.0860 -0.0143  0.0277
 3666W        W46579  13.892  11.928  22.894 -0.0599 -0.1637 -0.1050
 3667W        W46580  24.879  14.277  14.188 -0.3503 -0.1857 -0.0428
 3668W        W46581  25.947  21.221  13.567  0.0879  0.3531 -0.2265
 3669W        W46582  17.356  10.932  19.112  0.2398  0.1391 -0.0015
 3670W        W46583  27.084  23.922  18.960 -0.2574  0.2036  0.0448
 3671W        W46584  20.630  17.128  11.612  0.3830 -0.1076  0.0635
 3672W        W46585  18.372   7.376  22.939 -0.0097 -0.3016  0.0669
 3673W        W46586  26.409   8.736  16.477  0.0056  0.0896 -0.0206
 3674W        W46587   1.323  12.590  25.064 -0.3189 -0.2057  0.1708
 3675W        W46588  29.193  12.204  14.097  0.1017 -0.1389 -0.1034
 3676W        W46589  32.949  19.275  19.583  0.1374 -0.0147 -0.2266
 3677W        W46590  28.942   8.284  18.031  0.2021 -0.2738  0.2911
 3678W        W46591  20.462   3.835  16.417  0.1498  0.1141  0.1601
 3679W        W46592  24.256  16.074  15.641 -0.3439  0.0342  0.1033
 3680W        W46593  29.098  14.924  16.184  0.0160  0.0017  0.1098
 3681W        W46594  30.563  18.313  19.500 -0.1234 -0.1859  0.0354
 3682W        W46595  17.664   6.966  17.122  0.0923  0.1767  0.4409
 3683W        W46596  29.422  25.284  17.563 -0.0629  0.1293  0.0464
 3684W        W46597  24.197  15.682  14.727  0.3335  0.0022 -0.1596
 3685W        W46598  18.938  16.306  11.751 -0.0076 -0.2659 -0.1110
 3686W        W46599  21.663   7.999  22.795  0.0271  0.0170 -0.0888
 3687W        W46600  31.744  13.635  17.719  0.0869  0.2051  0.1181
 3688W        W46601  18.993   5.140  17.608 -0.0411 -0.2449 -0.1178
 3689W        W46602  26.620  15.285  18.389  0.1396  0.4255 -0.3773
 3690W        W46603  22.752  13.689  14.210  0.0480  0.2089  0.0714
 3691W        W46604  15.773  10.052  18.403  0.0692 -0.3630 -0.2249
 3692W        W46605  28.832  15.669  22.499  0.1313 -0.2802 -0.1282
 3693W        W46606  24.553  20.066  18.919 -0.2205  0.2205  0.3425
 3694W        W46607  15.755  12.668  18.245  0.2944 -0.1723  0.0540
 3695W        W46608  30.464  17.939  19.884  0.0781  0.2480 -0.2712
 3696W        W46609  33.108  16.500  16.913  0.1380 -0.2956  0.2606
 3697W        W46610  29.881  26.123  21.101 -0.1556 -0.3460  0.1062
 3698W        W46611  19.145  10.904  17.091 -0.1857  0.1372 -0.0278
 3699W        W46612  22.001   7.410  19.820  0.0248  0.2500 -0.1016
 3700W        W46613  26.493  19.847  17.222  0.4626  0.1500 -0.0492
 3701W        W46614  27.983  10.480  17.140  0.2294  0.2678 -0.4122
 3702W        W46615  19.727  10.250  13.032 -0.1880  0.1974 -0.2274
 3703W        W46616  12.480  18.167  13.406  0.0346  0.0275 -0.0399
 3704W        W46617  17.877  20.703  13.693  0.1339 -0.2255  0.2728
 3705W        W46618  24.548  10.081  17.949 -0.2188  0.2118  0.0407
 3706W        W46619  18.890   7.586  18.528  0.1040  0.1409 -0.1453
 3707W        W46620  11.606  18.374  20.803  0.0477 -0.1360  0.0122
 3708W        W46621  28.754  12.820  20.663  0.1303  0.2017 -0.0204
 3709W        W46622  25.406  16.246  23.204 -0.3080  0.3693 -0.0335
 3710W        W46623  27.031  20.203  20.069 -0.3237  0.1349 -0.0668
 3711W        W46624  28.607  14.164  15.952 -0.1586 -0.3602  0.0939
 3712W        W46625  23.006   8.699  13.473 -0.3427  0.0217  0.2792
 3713W        W46626  13.027  15.072  20.625 -0.3306  0.2649 -0.2829
 3714W        W46627  30.956  10.092  23.158  0.0521  0.1140 -0.1020
 3715W        W46628  11.206  21.039  15.913  0.2696  0.3431  0.0084
 3716W        W46629  22.535   3.051  20.251 -0.2271  0.1779  0.3146
 3717W        W46630  15.770  17.465  14.408 -0.2361  0.1703 -0.0441
 3718W        W46631  26.261  20.100  13.218 -0.0532  0.0072 -0.0878
 3719W        W46632  16.989  17.698  12.878  0.0811 -0.0137  0.2503
 3720W        W46633  15.814  11.735  14.370  0.1066 -0.1394 -0.2452
 3721W        W46634  23.450   8.971  17.671  0.1427  0.1118 -0.2368
 3722W        W46635  21.364  12.420  13.315  0.0718  0.2091  0.3135
 3723W        W46636  30.701  15.900  16.289  0.3122  0.1311  0.0241
 3724W        W46637  19.171   6.704  17.472 -0.1215 -0.3566 -0.2621
 3725W        W46638  24.747   9.853  18.446 -0.3411  0.4048  0.0138
 3726W        W46639  22.584  10.359  19.388  0.0457 -0.0120 -0.0010
 3727W        W46640  23.297   8.567  13.893  0.1421 -0.3136 -0.1235
 3728W        W46641  10.545  13.361  14.963 -0.0194 -0.0829 -0.1375
 3729W        W46642  15.642  15.115  13.152  0.2397 -0.2592  0.2167
 3730W        W46643  26.343  23.556  21.973 -0.1417 -0.0118  0.1212
 3731W        W46644  19.997   4.372  18.630 -0.1951  0.0257  0.2056
 3732W        W46645  27.290  19.728  28.679  0.2064  0.2054 -0.0936
 3733W        W46646  16.910  14.651  12.415  0.1467  0.1425 -0.3663
 3734W        W46647  20.666  17.272  13.166 -0.0193 -0.2550  0.0485
 3735W        W46648  30.849   9.473  21.199  0.3182 -0.1463 -0.1095
 3736W        W46649  12.328  13.687  13.977  0.2641 -0.2894  0.0291
 3737W        W46650  24.200  15.424  12.474  0.2089 -0.1105  0.2716
 3738W        W46651  13.286  12.528  23.030 -0.0768 -0.0903 -0.1200
 3739W        W46652  23.347  12.444  16.057  0.1425  0.3114 -0.0991
 3740W        W46653  32.172  14.019  22.746 -0.0336 -0.0265  0.2008
 3741W        W46654   9.598  13.707  18.423  0.1034 -0.0371  0.2307
 3742W        W46655  22.581  22.010  19.132 -0.0704 -0.1683  0.0141
 3743W        W46656   3.494  11.452  16.208 -0.1254  0.1932 -0.0463
 3744W        W46657  22.150  16.121  13.820 -0.1872 -0.0363  0.2422
 3745W        W46658  17.673   4.837  22.890 -0.0266 -0.1503 -0.0325
 3746W        W46659  16.055  13.010  14.618 -0.2757 -0.4206  0.1541
 3747W        W46660  30.174  32.082  22.112 -0.1032  0.1162  0.2983
 3748W        W46661  25.215  17.241  20.828 -0.2955  0.1164 -0.0771
 3749W        W46662  23.218  18.661  13.923 -0.0622 -0.1512 -0.4402
 3750W        W46663  24.225  10.115  15.864 -0.1368  0.1125 -0.1858
 3751W        W46664  22.373   7.059  24.035  0.0030  0.2664 -0.1357
 3752W        W46665  31.047  21.965  15.457  0.2259 -0.0695  0.4934
 3753W        W46666  16.130  19.287  12.595 -0.4404 -0.2277 -0.0550
 3754W        W46667  25.445   8.746  23.656 -0.1186  0.2393  0.0229
 3755W        W46668   6.450  23.207  21.061  0.1800 -0.0757  0.0540
 3756W        W46669  17.801   8.932  18.275 -0.0808  0.0964 -0.4043
 3757W        W46670  22.921  13.065  26.797  0.1809 -0.0155  0.0594
 3758W        W46671   2.154   8.266  25.001  0.2419 -0.0672  0.1905
 3759W        W46672  14.554   9.714  18.780 -0.2366  0.3718  0.0927
 3760W        W46673  31.810   5.554  16.009  0.2357  0.3534  0.1883
 3761W        W46674  17.084  10.151  20.476  0.0806 -0.0416 -0.1563
 3762W        W46675  29.119   6.078  22.196 -0.1402  0.1907  0.2155
 3763W        W46676  29.144  29.095   2.176  0.0554  0.2227  0.1276
 3764W        W46677  22.297  10.057  18.644 -0.0574  0.0109  0.2478
 3765W        W46678  21.955  21.545  20.922  0.0393  0.1473  0.2039
 3766W        W46679  26.598  13.161  16.056  0.1014 -0.0029 -0.1433
 3767W        W46680  22.761   5.633  13.539 -0.0879  0.0161 -0.2732
 3768W        W46681  16.877   6.273  23.488  0.0105 -0.1178  0.1136
 3769W        W46682  18.384   8.387  14.609 -0.1755 -0.1604  0.0636
 3770W        W46683  23.269  12.286  13.415 -0.2232 -0.0820 -0.2759
 3771W        W46684  17.249  20.543  13.083  0.2082 -0.3756  0.2320
 3772W        W46685  10.125   5.990  18.413 -0.0399 -0.1440  0.1052
 3773W        W46686  21.897  16.822  20.639 -0.0109 -0.1376  0.0370
 3774W        W46687  19.000  20.830  15.649 -0.1144 -0.1501 -0.1855
 3775W        W46688  26.462  10.997  14.533 -0.1505 -0.0426 -0.3207
 3776W        W46689  18.436   2.955  16.899  0.2024 -0.1344 -0.0330
 3777W        W46690  21.302   8.400  20.302 -0.0821 -0.1547  0.0945
 3778W        W46691  21.628  12.083  14.067 -0.0684  0.0034 -0.0806
 3779W        W46692  17.850   5.135  21.477 -0.0668 -0.1006  0.2631
 3780W        W46693  26.953  25.427  17.594 -0.1557 -0.2131  0.1679
 3781W        W46694  30.688   7.810  15.485 -0.0301 -0.0650 -0.2211
 3782W        W46695   0.213  19.045  24.809  0.0653 -0.2437  0.1772
 3783W        W46696  28.193  18.467  16.860  0.1138 -0.0574 -0.2985
 3784W        W46697  14.892   7.583  20.117  0.0270 -0.0369  0.3006
 3785W        W46698   9.894   9.872  19.924 -0.0312  0.3220  0.0196
 3786W        W46699  26.136   9.848  22.683  0.1291  0.2216 -0.0777
 3787W        W46700  32.205  13.376  23.283  0.3635  0.0178 -0.3582
 3788W        W46701  23.799  24.499  13.821 -0.3348  0.2053  0.1206
 3789W        W46702  22.389   5.542  27.197  0.1879  0.2440  0.2221
 3790W        W46703  22.057  14.043  20.039  0.0769 -0.0817  0.2194
 3791W        W46704  17.644   6.763  20.691  0.0158 -0.1181 -0.0132
 3792W        W46705  28.031  20.171  19.452  0.1305 -0.0474  0.2271
 3793W        W46706  18.626   7.101  17.230 -0.0742 -0.1286  0.1930
 3794W        W46707  28.764  20.844  16.479  0.1452  0.2260  0.1882
 3795W        W46708  13.375   4.349  18.636 -0.0389  0.1207  0.3266
 3796W        W46709  27.589  12.415  18.183  0.2203  0.0530 -0.2179
 3797W        W46710  34.216  23.905   1.563 -0.1403  0.1209 -0.2714
 3798W        W46711  29.878  10.186  27.469 -0.1526  0.0965 -0.0784
 3799W        W46712  21.364  11.649  15.820  0.2385 -0.0838 -0.0576
 3800W        W46713   4.340  18.551  20.763  0.3469 -0.0362 -0.1900
 3801W        W46714  22.813   7.833  14.368 -0.2670 -0.1485  0.2278
 3802W        W46715   5.012  13.489   3.759 -0.0871  0.1335 -0.3372
 3803W        W46716  24.755  18.030  21.557 -0.0889 -0.3231 -0.0946
 3804W        W46717  32.294  13.104  16.788  0.4866  0.0473 -0.1170
 3805W        W46718   3.017  28.110  17.917 -0.1097  0.0640  0.0149
 3806W        W46719  20.283  13.358  16.238 -0.2190 -0.2315  0.2994
 3807W        W46720  26.748  23.317  15.503  0.2124  0.1251 -0.0030
 3808W        W46721  18.632  26.391  19.419  0.0141  0.0795 -0.0469
 3809W        W46722  15.957  14.356  16.652 -0.0737 -0.0810 -0.2377
 3810W        W46723  29.598  15.028  16.597 -0.1590 -0.2203  0.0820
 3811W        W46724  20.065  12.393  15.484 -0.1158  0.0651  0.0202
 3812W        W46725  21.265  10.837  17.827  0.1009 -0.1746  0.1467
 3813W        W46726  25.926   3.066  15.097  0.0194  0.0195 -0.0815
 3814W        W46727  24.797   9.351  17.272 -0.0645  0.1388  0.1787
 3815W        W46728  31.421  13.190  17.765  0.2079 -0.1264 -0.0613
 3816W        W46729  23.835  12.996  17.848  0.3439  0.2114  0.0613
 3817W        W46730  21.123  13.476  21.681 -0.1187 -0.1947  0.1111
 3818W        W46731   2.378  14.494  28.162  0.0769 -0.0684 -0.1184
 3819W        W46732  17.083  13.899  11.818  0.2820  0.0369 -0.1284
 3820W        W46733  25.426  14.912  16.534 -0.0014  0.3113  0.3476
 3821W        W46734  25.902   9.719  18.883  0.1264  0.2217  0.2900
 3822W        W46735  25.662   6.231  25.522  0.0305  0.2088 -0.3196
 3823W        W46736  15.922  12.644  17.394  0.0996  0.2058 -0.1787
 3824W        W46737  26.248  10.320  21.502  0.0215  0.0279 -0.1508
 3825W        W46738  22.190   4.835   0.651  0.0408 -0.1468 -0.2212
 3826W        W46739  22.650  12.748  17.739  0.0217 -0.0678  0.0066
 3827W        W46740  26.339   9.738  21.455  0.1515 -0.0226  0.2300
 3828W        W46741  29.471   9.601  17.204  0.1167  0.0320  0.1752
 3829W        W46742  29.395  20.741  19.118  0.0255  0.1560  0.0829
 3830W        W46743  13.934   6.117  17.782  0.1553  0.1730 -0.0122
 3831W        W46744  22.271  15.925  17.567  0.1205 -0.3986 -0.0035
 3832W        W46745  29.076   8.641  18.549 -0.0146 -0.0495  0.1596
 3833W        W46746  17.517  12.331  14.152  0.0911  0.2552  0.2853
 3834W        W46747  21.825  17.656  14.448  0.2532 -0.1363 -0.0766
 3835W        W46748  29.668  19.566  20.882  0.0511  0.2393  0.1421
 3836W        W46749  27.699  13.991  13.458 -0.1042  0.1385  0.1230
 3837W        W46750  16.213  16.242  14.483  0.1464 -0.0741 -0.3192
 3838W        W46751  23.724   8.992  15.101 -0.0483  0.0492 -0.0456
 3839W        W46752  26.656  20.070  12.650  0.0516  0.1999 -0.0712
 3840W        W46753  19.115   5.200  20.350 -0.1390  0.1021  0.1447
 3841W        W46754  30.912  11.856  15.306 -0.0113  0.2414 -0.0745
 3842W        W46755  22.500  17.763  13.130  0.0768  0.0091 -0.0630
 3843W        W46756  31.092  27.265  15.979  0.0360 -0.1557 -0.0303
 3844W        W46757  22.487   8.977  14.796 -0.0968  0.1737  0.1991
 3845W        W46758  20.431  19.386  13.711  0.1880 -0.2149  0.1286
 3846W        W46759  15.613  11.437  21.698  0.2398 -0.2047  0.0911
 3847W        W46760  28.092  25.382  16.436  0.2020 -0.2531 -0.6591
 3848W        W46761  28.344   9.977  16.425 -0.1453  0.1226  0.1659
 3849W        W46762  15.544   7.777  21.026  0.2596 -0.2074  0.0865
 3850W        W46763  19.685   6.119  23.610 -0.3254  0.1337  0.3998
 3851W        W46764  22.829   5.991  18.400  0.1095 -0.1393 -0.1406
 3852W        W46765  13.039   5.161  20.438  0.0800  0.0993 -0.0204
 3853W        W46766  15.143   3.806  22.982  0.0626 -0.0388  0.0714
 3854W        W46767  20.422   6.400  15.948 -0.1434  0.0618  0.1818
 3855W        W46768  24.887   3.070  14.990 -0.1161  0.0592  0.3868
 3856W        W46769  17.288   8.302  27.940 -0.3398  0.1848 -0.3477
 3857W        W46770   0.468  18.825  26.213 -0.0067 -0.0063 -0.0561
 3858W        W46771  13.253   6.984  20.987 -0.1622  0.1138 -0.0523
 3859W        W46772  16.931   8.976  13.898  0.1265 -0.0494 -0.0995
 3860W        W46773  19.559  12.069  23.284 -0.0257 -0.0867  0.0506
 3861W        W46774  18.562  11.249  18.869 -0.1888 -0.1793  0.0080
 3862W        W46775  15.032   4.424  25.328 -0.3706 -0.2657  0.0520
 3863W        W46776  20.923  18.614  19.546  0.1141  0.0351 -0.1508
 3864W        W46777  21.826   2.045  16.159  0.3609 -0.4451 -0.2134
 3865W        W46778  17.807  11.640  16.997  0.0552  0.1126 -0.1576
 3866W        W46779   7.697  16.130  17.249 -0.1798 -0.2468 -0.0200
 3867W        W46780  20.081   3.319  17.560 -0.2341 -0.2129 -0.2389
 3868W        W46781  14.659  13.655  29.462 -0.0596 -0.1350  0.1204
 3869W        W46782  33.583   6.926  19.373  0.5537  0.3868  0.0803
 3870W        W46783  25.737   9.525  22.667  0.2969 -0.0929 -0.0002
 3871W        W46784  19.468  12.047  19.405 -0.1011  0.1979  0.1552
 3872W        W46785  14.684   8.500  21.184  0.2765 -0.0969  0.1414
 3873W        W46786  20.701  14.273  15.734 -0.2703  0.0838 -0.2433
 3874W        W46787  26.235  19.641  29.373  0.0627 -0.1067  0.0140
 3875W        W46788  25.140   6.097  25.165 -0.0576 -0.0719 -0.1339
 3876W        W46789  22.454   6.692  15.157 -0.1735  0.0900  0.0362
 3877W        W46790  17.958  12.450  29.449  0.0700  0.2246  0.1627
 3878W        W46791  22.220  14.878  18.456 -0.2487  0.1184  0.1385
 3879W        W46792  25.738  11.942  18.323  0.0326  0.2916 -0.1986
 3880W        W46793  20.713   8.283  23.994  0.0125  0.1210 -0.5854
 3881W        W46794  23.473  26.003  15.027  0.0225  0.0988 -0.0602
 3882W        W46795  29.980  12.183  24.951  0.4692 -0.5787 -0.0118
 3883W        W46796  30.494  31.085  25.404  0.1070  0.3115  0.3897
 3884W        W46797  18.472  29.359  13.971  0.2421  0.1212 -0.1906
 3885W        W46798  27.516  18.939  18.479  0.0967 -0.1171 -0.0578
 3886W        W46799  24.321  12.635  21.340  0.1826  0.3613  0.1403
 3887W        W46800  32.282  19.071  23.619 -0.1908 -0.0562 -0.1298
 3888W        W46801  24.964   5.500  14.926  0.0276 -0.1161  0.0166
 3889W        W46802  25.289   9.836  26.819 -0.0664 -0.1774  0.3207
 3890W        W46803  23.444  20.418  15.884  0.1657 -0.1470 -0.0062
 3891W        W46804  23.020  10.917  19.820  0.2434  0.0581 -0.0391
 3892W        W46805  22.444   5.501  25.635 -0.0036 -0.0797  0.1448
 3893W        W46806  15.990  11.269  14.055  0.0503  0.1061  0.0712
 3894W        W46807  30.667  20.923  17.950  0.3041  0.0256  0.3110
 3895W        W46808  31.565  19.187  17.624 -0.4703 -0.1488 -0.0052
 3896W        W46809  19.309  13.966  17.863 -0.0010 -0.0154  0.1380
 3897W        W46810  17.398   8.852  16.309 -0.0151  0.0877  0.1717
 3898W        W46811  22.911  19.710  19.408  0.0208 -0.0959  0.2097
 3899W        W46812  28.453  12.239  18.327  0.2591  0.0132  0.3447
 3900W        W46813  27.108  15.413  25.354 -0.1716 -0.0542  0.0560
 3901W        W46814  31.939  15.710  15.377  0.0675  0.2216 -0.1522
 3902W        W46815  25.037   7.008  25.179 -0.0767 -0.2818 -0.0559
 3903W        W46816  14.623  12.755  19.683  0.0459  0.1177  0.0099
 3904W        W46817  30.195  22.538  22.786  0.1756 -0.1624 -0.1084
 3905W        W46818  24.551  26.480  13.693  0.0454  0.0895 -0.0953
 3906W        W46819  13.992   3.664  19.687  0.0241  0.2002  0.0495
 3907W        W46820  34.209  18.989  25.894 -0.0382  0.0534 -0.2705
 3908W        W46821  26.051  14.665  20.099 -0.1884 -0.0579  0.2905
 3909W        W46822  22.087  11.556  17.871 -0.5569 -0.0446 -0.0581
 3910W        W46823  30.214  16.802  21.845 -0.1742 -0.1584  0.0387
 3911W        W46824  19.642   7.662  13.940 -0.0919  0.0695 -0.0410
 3912W        W46825  26.825  21.166  16.265 -0.3107 -0.0173  0.1771
 3913W        W46826  23.243   4.352  27.524  0.2149  0.1243  0.0282
 3914W        W46827  12.906   3.980  29.403 -0.1982  0.0093 -0.1255
 3915W        W46828  26.220   8.238  16.524  0.3130 -0.0852 -0.2994
 3916W        W46829  25.418  23.425  13.819 -0.1267  0.0356 -0.0216
 3917W        W46830  22.030   8.280  23.076 -0.0770  0.0886  0.0601
 3918W        W46831  23.264  23.415  25.545 -0.0848  0.0099 -0.3415
 3919W        W46832  24.731  18.098  15.049 -0.0434  0.1324  0.2237
 3920W        W46833  20.850  12.576  14.351  0.0185  0.2709  0.0822
 3921W        W46834  24.461  20.269  15.437  0.1812  0.0901 -0.1896
 3922W        W46835  31.063  15.108  17.772  0.3427  0.1077 -0.5162
 3923W        W46836  12.272  12.958  16.664 -0.0174 -0.0108  0.1278
 3924W        W46837  28.167  10.361  26.967 -0.2053 -0.0071 -0.0682
 3925W        W46838  13.381  14.798  16.822  0.0398  0.0046 -0.1762
 3926W        W46839   2.296  12.188  25.445 -0.0836  0.1377 -0.0510
 3927W        W46840  30.320   8.264  21.769 -0.0506 -0.0089 -0.2198
 3928W        W46841  19.528  15.751  12.365  0.0583  0.1108  0.0870
 3929W        W46842  15.219  21.898  17.392  0.1735 -0.0074 -0.0928
 3930W        W46843  25.647   5.274  19.905  0.1912 -0.0584 -0.2317
 3931W        W46844  23.115   8.250  14.211 -0.2154  0.0131 -0.3952
 3932W        W46845  25.139   2.933  27.962 -0.0282  0.0560 -0.1353
 3933W        W46846  21.284  13.066  13.015 -0.3664  0.2104  0.1823
 3934W        W46847  20.130  13.371  12.148 -0.1321 -0.0261  0.1368
 3935W        W46848  15.510  24.910  15.168 -0.2440 -0.2735 -0.1544
 3936W        W46849  20.503   8.463  19.010 -0.2581  0.0058  0.0995
 3937W        W46850  21.794  21.312  15.694 -0.1076  0.0648 -0.3640
 3938W        W46851  25.334  12.670  24.128  0.0648  0.2518  0.0114
 3939W        W46852  34.254   7.835  16.479  0.0938 -0.0883  0.1143
 3940W        W46853  21.348  19.354  13.643  0.0080 -0.0474 -0.1190
 3941W        W46854  24.724  12.057  19.243  0.1687 -0.0793 -0.1436
 3942W        W46855  27.138  16.568  22.484 -0.2977  0.2073 -0.1689
 3943W        W46856  27.782  13.409  21.899  0.2013 -0.0074  0.2924
 3944W        W46857  25.008  12.828  24.950  0.0865  0.0193  0.0776
 3945W        W46858  17.952  12.739  17.552 -0.0290  0.0568  0.2347
 3946W        W46859  20.782   6.783  16.304 -0.3703 -0.0850  0.0500
 3947W        W46860  29.745  18.479  19.129  0.1962 -0.2713 -0.0089
 3948W        W46861  13.430  10.299  14.588 -0.2094 -0.1229  0.0981
 3949W        W46862  18.926  16.248  12.256 -0.3259  0.1131  0.0542
 3950W        W46863  27.376  34.261  19.715 -0.1104  0.2817 -0.1482
 3951W        W46864  25.745  10.124  18.547 -0.3187  0.1685 -0.3165
 3952W        W46865  24.742  20.464  14.451  0.0881  0.2759  0.1764
 3953W        W46866  23.675   6.483  21.580  0.0779 -0.1238  0.2929
 3954W        W46867  20.179  21.555  13.684 -0.0424  0.0055 -0.0536
 3955W        W46868  24.499   8.060  22.936 -0.1467 -0.2393  0.0254
 3956W        W46869  27.547  10.682  21.222  0.1461  0.2061  0.0154
 3957W        W46870  29.413  10.998  17.746  0.0386  0.1401  0.1458
 3958W        W46871  24.861  16.844  16.771  0.1370 -0.1285  0.1078
 3959W        W46872  21.210  11.249  18.215 -0.3099  0.2805 -0.2421
 3960W        W46873  21.381  20.468  22.274 -0.0352 -0.0890  0.2225
 3961W        W46874  26.125  15.055  18.426  0.2537 -0.1004  0.1454
 3962W        W46875  22.835   0.512  28.926  0.1910 -0.1503  0.1213
 3963W        W46876  26.479  17.688  16.947 -0.2824 -0.0958  0.2443
 3964W        W46877  16.752  14.364  13.953 -0.2680 -0.1335 -0.1729
 3965W        W46878  25.386   4.989  17.094  0.1784 -0.0160  0.1733
 3966W        W46879  23.230  22.811  28.883 -0.0877 -0.4366 -0.0027
 3967W        W46880  29.007  17.526  16.036 -0.3162  0.0830  0.0389
 3968W        W46881  13.060   5.228  16.491  0.1149  0.1942  0.2286
 3969W        W46882  25.253  23.943  23.974 -0.0836  0.0224  0.0541
 3970W        W46883   5.041  12.487  21.192 -0.0007 -0.1435 -0.0388
 3971W        W46884  23.397   9.705  20.961  0.1370 -0.0832 -0.0757
 3972W        W46885  23.949   9.045  16.100 -0.1241  0.1074 -0.1637
 3973W        W46886  26.665  10.048  15.569  0.0265 -0.1629  0.2144
 3974W        W46887  27.176  18.833  26.705  0.1021  0.3396 -0.4163
 3975W        W46888  30.137  11.630   0.898  0.3944 -0.4198 -0.2392
 3976W        W46889  21.661  24.838  15.347  0.1077  0.0584  0.1668
 3977W        W46890  25.557   4.818  23.645 -0.2649  0.3598  0.0003
 3978W        W46891  19.789  12.837  20.225  0.1132  0.2260  0.4586
 3979W        W46892  25.559   3.157  22.546  0.2853 -0.1387 -0.2002
 3980W        W46893  32.486  16.399  18.605 -0.0038  0.1962  0.2344
 3981W        W46894  21.093  14.211  22.908 -0.1406 -0.2309  0.2020
 3982W        W46895   0.878  14.661  21.800 -0.2012  0.2142 -0.0178
 3983W        W46896  28.768  10.042  18.348 -0.1043  0.1097  0.3433
 3984W        W46897  20.453  11.363  21.032  0.2134  0.3757 -0.2593
 3985W        W46898   7.209  21.232  14.309  0.1293  0.0178  0.1018
 3986W        W46899  25.622  24.498  17.945  0.0604 -0.0096  0.2947
 3987W        W46900  23.492  15.604  24.552 -0.0049  0.1071  0.3036
 3988W        W46901  19.075  22.301  23.858 -0.2693 -0.3676  0.2275
 3989W        W46902  29.699  10.056   1.109 -0.0603  0.3517 -0.1400
 3990W        W46903  20.035  12.251  17.538 -0.0557  0.2173  0.2481
 3991W        W46904  18.468   5.055  14.557  0.0313  0.0147  0.2102
 3992W        W46905  31.730  25.718  24.860 -0.3725 -0.0803  0.0409
 3993W        W46906   1.630  24.661   1.076 -0.1014 -0.2257  0.2884
 3994W        W46907  23.895  24.173  14.232  0.0014 -0.1771  0.0068
 3995W        W46908  19.948  12.226  20.251 -0.0304 -0.1970  0.1568
 3996W        W46909  22.848  15.591  18.572  0.4066  0.2544 -0.2568
 3997W        W46910  31.459  15.369  16.021  0.0069  0.1706 -0.0742
 3998W        W46911  22.818  13.983  17.617  0.2537 -0.0724  0.1139
 3999W        W46912  32.169  15.217  15.384 -0.2867 -0.3474 -0.0367
 4000W        W46913  19.651  11.924  15.326 -0.1897  0.1894  0.2389
 4001W        W46914   9.920  22.497  20.257  0.2161 -0.0595  0.2966
 4002W        W46915  19.655  12.258  19.878  0.2471 -0.2526 -0.1269
 4003W        W46916  20.582  12.388  24.080 -0.1046  0.0057  0.0626
 4004W        W46917  24.587  11.790  18.832  0.1476  0.0377  0.2287
 4005W        W46918  11.612  13.649  18.873  0.0714  0.1393  0.2694
 4006W        W46919  12.436   4.521  18.650 -0.3045 -0.0059  0.1791
 4007W        W46920  14.817   9.386  25.643  0.1319 -0.1722  0.0848
 4008W        W46921  18.985  11.851  15.841  0.3235  0.0509  0.0167
 4009W        W46922  21.634   9.762  16.533  0.2396  0.1497 -0.0837
 4010W        W46923  16.306  12.569  14.771  0.4108  0.1355  0.0269
 4011W        W46924  21.939  20.219  20.524  0.0250 -0.1482  0.1444
 4012W        W46925  28.335  12.400  22.772 -0.0496  0.0794  0.1283
 4013W        W46926  22.039  31.393  15.037 -0.0139  0.0723  0.2173
 4014W        W46927  25.479  21.711  15.172  0.1321  0.1990 -0.0157
 4015W        W46928  28.231  12.753  25.700 -0.0768  0.2913  0.1112
 4016W        W46929  27.645  10.573  18.009 -0.2746 -0.0643  0.1024
 4017W        W46930  20.629  19.337  24.446 -0.3013 -0.0500 -0.3591
 4018W        W46931  20.454  12.030  19.538 -0.0053 -0.1907 -0.1719
 4019W        W46932  29.321  17.288  16.436  0.0204  0.0565 -0.1848
 4020W        W46933  18.804   7.646  15.640  0.0252 -0.1040  0.2360
 4021W        W46934  26.930   3.507  20.525  0.1453 -0.2529  0.0781
 4022W        W46935  23.491   2.595  16.414 -0.0491  0.3803  0.2739
 4023W        W46936  23.867   9.922  23.850  0.2957 -0.2073 -0.0558
 4024W        W46937  31.481  12.605  16.892 -0.0938 -0.4474  0.2436
 4025W        W46938  31.593  14.780  16.958 -0.0841  0.1468 -0.1452
 4026W        W46939  29.734  14.228  17.118  0.1715 -0.0268 -0.0482
 4027W        W46940  18.226   4.222  20.816  0.1733 -0.0702 -0.2589
 4028W        W46941  26.702  12.790   0.744  0.2163  0.0718 -0.1432
 4029W        W46942  16.852  10.493  16.661  0.2988  0.4501  0.0818
 4030W        W46943  19.066  21.456  14.938  0.0925  0.0141 -0.0682
 4031W        W46944  32.546  13.819  20.017 -0.1016 -0.0167 -0.0471
 4032W        W46945  22.021   7.093  24.811  0.0780 -0.1864  0.0536
 4033W        W46946  24.068  17.778  14.787  0.2303 -0.1375 -0.0185
 4034W        W46947  27.823   8.692  21.610  0.1167  0.1165  0.0958
 4035W        W46948  25.361  13.919  15.410 -0.1461 -0.0377 -0.2029
 4036W        W46949  28.984   6.445  25.359  0.0841  0.0262  0.2653
 4037W        W46950  30.119  13.256  24.158 -0.2881 -0.0317 -0.0159
 4038W        W46951  22.882  13.235  17.688  0.1424 -0.2549  0.1091
 4039W        W46952  16.065  20.566  15.952 -0.1530 -0.0546  0.0974
 4040W        W46953  12.605  13.755  17.099 -0.3598 -0.0051 -0.2411
 4041W        W46954  24.822  10.247  14.422 -0.1987  0.3898  0.1640
 4042W        W46955  25.526  10.874  17.258 -0.2583  0.0037  0.1394
 4043W        W46956  15.185  13.567  18.368 -0.2175 -0.1479  0.1389
 4044W        W46957   6.368  15.326  17.079 -0.0965  0.0880 -0.0839
 4045W        W46958  27.249  14.089  22.147 -0.2683  0.1516 -0.1937
 4046W        W46959  20.445   4.692  15.882  0.1644 -0.2126 -0.1806
 4047W        W46960  20.493   6.626  26.571  0.2590  0.1193 -0.0976
 4048W        W46961  26.076  10.630  21.060  0.1051  0.0534 -0.0075
 4049W        W46962  19.410  34.411  16.293 -0.1944 -0.2366  0.1739
 4050W        W46963  11.533  15.881  17.894  0.2828  0.3268  0.1621
 4051W        W46964  19.416  11.986  12.750  0.2037  0.0035 -0.2029
 4052W        W46965  28.453  17.259  20.286 -0.2840 -0.2548  0.0406
 4053W        W46966  16.092   7.711  17.349 -0.0212 -0.0594 -0.0126
 4054W        W46967  23.140   9.206  24.218 -0.2240 -0.1489 -0.1710
 4055W        W46968  20.334   9.594  26.183  0.0695  0.1402  0.2298
 4056W        W46969  13.047  11.381  25.444 -0.1339 -0.0029  0.0892
 4057W        W46970  20.096  10.614  22.832 -0.1231  0.0827  0.0761
 4058W        W46971  27.764  12.165  19.107  0.0668 -0.0366  0.1149
 4059W        W46972  26.838  19.623  13.997  0.0894  0.2292  0.3408
 4060W        W46973  26.830  28.409  20.252 -0.0114 -0.1387  0.0053
 4061W        W46974  12.063  19.668  17.835 -0.2107 -0.0366  0.2177
 4062W        W46975  30.831  13.391  22.533  0.1048 -0.2086 -0.2454
 4063W        W46976  28.603  17.515  13.914  0.3521 -0.0522 -0.0297
 4064W        W46977  28.832  10.610  18.406  0.2275 -0.1758 -0.1132
 4065W        W46978  22.727   1.694  21.727 -0.2001  0.2722 -0.0148
 4066W        W46979  30.028  20.782  26.954 -0.1000 -0.0125  0.0984
 4067W        W46980  23.570  14.984  14.503 -0.1735 -0.2747 -0.0450
 4068W        W46981  30.829  17.201  20.586 -0.0188  0.1684 -0.2097
 4069W        W46982  22.585   8.019  21.756  0.0062 -0.0815 -0.0200
 4070W        W46983  24.683  18.707  18.697  0.1270 -0.1357 -0.0256
 4071W        W46984  28.383  20.615  13.487  0.1308 -0.2568  0.0198
 4072W        W46985  24.290  12.046  19.560  0.3795  0.5728 -0.1648
 4073W        W46986  34.257  21.880  19.433  0.4650  0.1755  0.1345
 4074W        W46987  20.429   5.526  14.371 -0.4136 -0.1216 -0.0897
 4075W        W46988  25.689  14.219  17.260 -0.1977  0.4336 -0.0471
 4076W        W46989   2.616  19.991  23.791 -0.0479  0.1220 -0.1830
 4077W        W46990  28.218  14.306  19.014  0.2838 -0.1353  0.1297
 4078W        W46991  15.974  10.198  24.456 -0.0755 -0.0147  0.3375
 4079W        W46992  22.310  12.544  19.977 -0.0403  0.2643 -0.1815
 4080W        W46993  28.421  17.414  13.462 -0.0926  0.3381  0.0091
 4081W        W46994  23.309  21.046  13.900 -0.1217 -0.1520 -0.0062
 4082W        W46995  30.308  14.279  23.926 -0.2102 -0.3762  0.2204
 4083W        W46996  27.490  19.759  13.722  0.2736  0.1756 -0.1392
 4084W        W46997  24.792  12.049  26.598 -0.1342 -0.1344 -0.0849
 4085W        W46998  13.390   5.521  24.096 -0.1344  0.2094  0.1624
 4086W        W46999  30.738  32.544  19.080  0.1316  0.0788  0.0637
 4087W        W47000  28.378  15.577  20.221 -0.1065 -0.0306 -0.2276
 4088W        W47001  29.080   4.890  21.920  0.2970  0.0222  0.2809
 4089W        W47002  29.613  17.123  14.083  0.1078 -0.0893  0.0340
 4090W        W47003   5.008  12.366  27.369  0.4119 -0.2919 -0.0519
 4091W        W47004  29.359  13.023  16.658  0.1208 -0.0847 -0.0322
 4092W        W47005  29.763  25.240  26.939  0.3088 -0.2042  0.0315
 4093W        W47006  26.495  10.636  14.931 -0.1786  0.2487  0.0771
 4094W        W47007  23.111  10.069  24.290 -0.0207  0.0059 -0.3937
 4095W        W47008  19.513   5.849  17.256  0.0900 -0.0540 -0.1179
 4096W        W47009  23.946  15.994  23.053  0.5307  0.1182 -0.1940
 4097W        W47010  31.274   4.486  22.132  0.0165 -0.4986 -0.0990
 4098W        W47011  25.018   7.967  24.138 -0.0153 -0.1292 -0.1274
 4099W        W47012  29.160  18.287  20.539  0.3639  0.0052 -0.0427
 4100W        W47013  25.354   8.651  21.747  0.2336 -0.3835  0.1171
 4101W        W47014  27.430  17.367  20.384  0.0614  0.0518  0.3123
 4102W        W47015  17.697  11.887  25.282 -0.1869 -0.0471  0.1780
 4103W        W47016  18.317  11.339  20.014  0.0584 -0.4200 -0.0483
 4104W        W47017  29.415  16.365  20.994  0.0404  0.0619 -0.1931
 4105W        W47018  21.167  33.883  15.491 -0.0461 -0.1436  0.0374
 4106W        W47019  11.748   9.536  18.299 -0.0478  0.1179  0.2052
 4107W        W47020  26.603   3.756  14.903  0.0567 -0.2375 -0.0043
 4108W        W47021  28.010   6.539  22.796 -0.0462 -0.0706  0.0706
 4109W        W47022  25.711  14.268  25.558  0.2937  0.3028  0.2375
 4110W        W47023  16.800  33.873  18.366 -0.2224 -0.3318  0.0668
 4111W        W47024  29.623  22.391  15.256 -0.0898 -0.2362  0.0612
 4112W        W47025  32.600  23.443  18.423  0.0199  0.0474  0.1568
 4113W        W47026  28.349  19.039  19.664 -0.2213  0.0810 -0.1139
 4114W        W47027  12.148   2.607  17.903  0.0949 -0.3881 -0.1380
 4115W        W47028  22.873   8.277  17.892  0.0806 -0.0634  0.1471
 4116W        W47029  31.986  17.949  20.033  0.1612 -0.0605 -0.0806
 4117W        W47030   9.363   6.778  17.353  0.2008  0.0329  0.3120
 4118W        W47031  19.105  13.147  15.961 -0.1303  0.0236  0.0371
 4119W        W47032  26.503  27.424  21.199 -0.0675  0.0667 -0.2815
 4120W        W47033  17.769   7.451  26.926 -0.0029 -0.0267 -0.3091
 4121W        W47034  24.317  16.209  14.743  0.0364 -0.1786  0.2170
 4122W        W47035  21.817  14.578  26.322 -0.2224  0.0323 -0.0274
 4123W        W47036  23.017  17.629  25.024 -0.0562  0.1263  0.0965
 4124W        W47037  25.908   6.172  22.315 -0.0969  0.1283  0.3112
 4125W        W47038  21.533  12.289  15.079 -0.3548 -0.0727  0.2380
 4126W        W47039  17.328   8.431  26.070 -0.0275 -0.2438 -0.1063
 4127W        W47040  19.017  13.858  17.498 -0.0291  0.2783 -0.0153
 4128W        W47041  31.656  13.770  20.141 -0.0994 -0.0998 -0.0983
 4129W        W47042  19.253   6.950  13.982 -0.1140  0.4114 -0.0800
 4130W        W47043  25.225  13.086  18.351  0.0597  0.0619 -0.0941
 4131W        W47044  19.689   2.840  24.916  0.3363 -0.0833  0.1677
 4132W        W47045  13.334  12.718  29.237  0.3555 -0.3500 -0.1916
 4133W        W47046  21.351  22.054  12.718  0.0158 -0.1705 -0.1191
 4134W        W47047  26.345  19.990  18.055  0.2315 -0.4450 -0.3476
 4135W        W47048  22.386   9.698  16.896  0.0944 -0.0356 -0.0715
 4136W        W47049  21.490  10.395  26.302 -0.1583  0.1033  0.0821
 4137W        W47050  31.205  19.665  26.234 -0.1556 -0.1640 -0.1296
 4138W        W47051  28.528   7.841  29.239 -0.2298 -0.3258  0.1550
 4139W        W47052  24.044   8.888  13.143  0.0325  0.1229  0.0589
 4140W        W47053  20.278  10.475  21.830  0.2368  0.3082  0.0910
 4141W        W47054  16.297   8.561  24.203  0.2199  0.1266 -0.2165
 4142W        W47055  10.026  13.626  18.137  0.0713 -0.1212  0.1484
 4143W        W47056  20.419   7.369  23.661 -0.3622  0.0884 -0.1683
 4144W        W47057  13.380  13.752  14.954  0.0960 -0.0759  0.0759
 4145W        W47058  28.416  12.010  16.704 -0.2357 -0.0187  0.1832
 4146W        W47059  18.435   6.265   6.602 -0.1560  0.0333  0.0092
 4147W        W47060  25.680  17.226  20.995 -0.0880 -0.2084 -0.0166
 4148W        W47061  24.342  18.412  22.654 -0.1485  0.1695  0.2413
 4149W        W47062  10.204  16.298  16.345  0.0983  0.1402  0.0152
 4150W        W47063  19.435  13.947  22.209 -0.1586 -0.0359 -0.2274
 4151W        W47064  12.597  12.776  17.154  0.3911  0.2389 -0.0099
 4152W        W47065  14.994  16.956  14.286  0.1814  0.0598  0.4905
 4153W        W47066   0.055  18.460  20.498  0.1954 -0.0024  0.0607
 4154W        W47067  20.926   6.882  20.184 -0.1293 -0.0507 -0.2824
 4155W        W47068  15.393   0.821  16.360 -0.1087  0.0128  0.0998
 4156W        W47069  23.224   3.141  25.691  0.1497 -0.0330  0.0859
 4157W        W47070  20.530  11.797  13.364  0.0307 -0.1096  0.0215
 4158W        W47071  26.852   6.050  17.049  0.1453 -0.1278 -0.2081
 4159W        W47072  31.383  19.023  15.152 -0.2848  0.0121  0.0204
 4160W        W47073  29.290  15.694  22.640  0.0564  0.0991  0.0137
 4161W        W47074  20.250   8.663  16.030  0.1447  0.2051 -0.1058
 4162W        W47075  16.747  33.203  19.243 -0.0204 -0.0722 -0.0007
 4163W        W47076  22.191  13.744  14.797 -0.2373 -0.1311 -0.4389
 4164W        W47077  26.938  10.178  25.060 -0.3070  0.1288 -0.0421
 4165W        W47078  27.399   6.690  23.257 -0.2471 -0.0959 -0.1998
 4166W        W47079  15.205  15.589   2.561 -0.0459 -0.1034 -0.0283
 4167W        W47080  29.992   8.373  16.919  0.0740 -0.2861  0.1757
 4168W        W47081  27.743   6.160  24.696 -0.0308 -0.0985 -0.3925
 4169W        W47082  34.083  10.603  21.428 -0.0316 -0.1736  0.0062
 4170W        W47083  23.574   1.112  17.695 -0.1856 -0.3762  0.1019
 4171W        W47084  19.443  15.248  15.265 -0.1615 -0.1917 -0.1019
 4172W        W47085  23.286  13.327  24.038 -0.0781 -0.2118  0.1154
 4173W        W47086  24.534  13.760  18.137 -0.0267 -0.3004  0.0288
 4174W        W47087   9.911  17.438  23.346 -0.0582 -0.0894  0.0611
 4175W        W47088  19.639   9.704  23.865  0.1116  0.1639  0.1227
 4176W        W47089  31.599   7.884  19.985 -0.0386 -0.0268  0.1821
 4177W        W47090  22.579  22.955  19.970  0.2253  0.0559 -0.1859
 4178W        W47091  30.787  10.655  17.148 -0.1350 -0.0915  0.2038
 4179W        W47092  31.627  34.201  15.620  0.0074 -0.3420  0.0670
 4180W        W47093  17.194   8.968  17.949 -0.2177  0.2081 -0.1224
 4181W        W47094  18.724   8.839  22.190 -0.1082  0.2132 -0.1982
 4182W        W47095   3.430  10.487   2.849  0.0855  0.1589 -0.0846
 4183W        W47096  32.618  20.342  22.415  0.0808  0.1059  0.0176
 4184W        W47097  17.604   7.429  16.291 -0.0025  0.0639  0.4918
 4185W        W47098  17.439   7.455  29.396 -0.1013  0.1853  0.2750
 4186W        W47099  18.400  10.343  24.064  0.3097 -0.2402  0.1057
 4187W        W47100  26.798  14.740  16.052 -0.0492 -0.1158 -0.1042
 4188W        W47101  32.755  10.712  23.272 -0.0014 -0.0393  0.2796
 4189W        W47102  23.959   3.116  25.345 -0.1458  0.0407 -0.2412
 4190W        W47103  23.027  16.870  20.555  0.1076 -0.3729 -0.0778
 4191W        W47104  29.015  28.963  23.405  0.0538  0.0705 -0.1176
 4192W        W47105  32.783  32.254  17.894 -0.0365 -0.0873  0.1078
 4193W        W47106   9.187  20.463  23.751  0.2282 -0.1802 -0.0129
 4194W        W47107   0.333  33.820  21.889 -0.2415  0.0974 -0.0984
 4195W        W47108  27.844   8.472  16.539  0.0832  0.0929  0.1727
 4196W        W47109  13.461  18.773  15.285 -0.0280  0.1093  0.2868
 4197W        W47110  20.369  14.682  23.676  0.1510 -0.1511  0.0566
 4198W        W47111  22.264  16.986  14.570 -0.0212 -0.0868  0.2462
 4199W        W47112  33.762  14.821  19.639 -0.1798  0.0589  0.0979
 4200W        W47113  24.628  17.369  20.867 -0.0958 -0.1166  0.2948
 4201W        W47114  23.434   0.452   1.281 -0.0053  0.0160 -0.0410
 4202W        W47115  18.646  11.337  21.372  0.1422  0.0363 -0.0247
 4203W        W47116  21.793  17.441  17.928 -0.1372 -0.2003 -0.1422
 4204W        W47117  27.554  23.338  20.994  0.2360 -0.2026 -0.0384
 4205W        W47118  18.406  12.618  16.021  0.0623  0.1827 -0.1748
 4206W        W47119  17.468  10.706  14.615 -0.4774  0.0138 -0.0068
 4207W        W47120  19.963  10.769  20.314  0.0932  0.0536 -0.1164
 4208W        W47121  29.284   7.600  20.806  0.2060 -0.1577  0.2406
 4209W        W47122  26.811   7.237  19.238 -0.2468 -0.1253  0.1582
 4210W        W47123  31.765  14.157  20.537 -0.3351  0.3539  0.0381
 4211W        W47124  27.729  14.662  22.632 -0.0596 -0.0139  0.0973
 4212W        W47125   1.843  11.757  26.081 -0.3335 -0.0111  0.3003
 4213W        W47126  28.662   4.901  21.116  0.0234 -0.4851  0.0189
 4214W        W47127  25.924  13.303   6.376  0.0022  0.1998 -0.0353
 4215W        W47128  32.539  16.637  16.821  0.0531 -0.1346  0.2591
 4216W        W47129  30.665  23.331  15.196 -0.0540  0.1668 -0.1524
 4217W        W47130  29.209  16.570  17.203  0.0607  0.1553  0.0925
 4218W        W47131  25.655  14.397  24.094 -0.1190  0.3164 -0.0383
 4219W        W47132  22.450  14.291  19.790 -0.0739  0.0482 -0.0496
 4220W        W47133  28.819  16.724  18.710 -0.2182  0.0231  0.0417
 4221W        W47134  13.039  16.774  13.610 -0.2904  0.0914 -0.1255
 4222W        W47135  30.739   6.602  24.649  0.0614 -0.4168 -0.1184
 4223W        W47136  25.155  18.301  26.199  0.0255 -0.0880 -0.1374
 4224W        W47137  29.264   8.886  15.452 -0.0621 -0.1179  0.1957
 4225W        W47138  24.272  12.023   7.979 -0.3863 -0.0757  0.1478
 4226W        W47139  28.387  20.425  14.759  0.1423 -0.1995  0.0653
 4227W        W47140  25.392   9.971  17.585  0.1138  0.4192  0.0985
 4228W        W47141  20.054   9.007  14.318  0.0011  0.0160 -0.2850
 4229W        W47142  31.850  19.178  19.482  0.0527  0.0772 -0.1357
 4230W        W47143  13.370   7.906   3.780 -0.0737 -0.2512 -0.1810
 4231W        W47144  28.376  12.169  23.908 -0.0749 -0.2023  0.1088
 4232W        W47145  30.876  18.190  15.239 -0.0336  0.3177  0.0770
 4233W        W47146  23.812  18.790  24.260 -0.2705  0.1228  0.1840
 4234W        W47147  31.069  26.884  26.869  0.2396  0.1961 -0.2051
 4235W        W47148  20.623  10.227  15.550  0.4424 -0.2210 -0.0573
 4236W        W47149  25.518  14.222  15.883 -0.2891  0.0200 -0.3208
 4237W        W47150  31.216  26.392  14.591 -0.1074  0.0830  0.1775
 4238W        W47151  33.960  19.130   3.952  0.2141 -0.1826 -0.2545
 4239W        W47152  31.403  18.192  24.092  0.1417 -0.0365  0.0725
 4240W        W47153  17.803   7.938  27.381  0.0775  0.3132 -0.2538
 4241W        W47154  25.439  11.702  15.845 -0.0783 -0.0065 -0.2222
 4242W        W47155  13.383  15.375  21.971 -0.2798  0.0201 -0.2031
 4243W        W47156  25.698   9.247  25.065 -0.1602  0.2458 -0.0056
 4244W        W47157  28.822   8.373  21.124 -0.1215 -0.0151 -0.2189
 4245W        W47158  24.097  17.219  24.445 -0.1597 -0.2057  0.1272
 4246W        W47159  23.200  15.619  17.867  0.1357  0.2835  0.0494
 4247W        W47160  26.354  20.197  15.459 -0.2897  0.0074  0.0074
 4248W        W47161  22.237  15.682  20.193 -0.1162  0.0775 -0.0947
 4249W        W47162  21.348   5.813  23.750  0.1390 -0.1739 -0.2383
 4250W        W47163  17.640  12.597  22.549 -0.1539 -0.2785  0.0621
 4251W        W47164  32.100  16.181  17.686  0.0214 -0.2600  0.1725
 4252W        W47165  28.029  12.951  22.799  0.4043  0.0004  0.2346
 4253W        W47166  27.587   8.839  16.816 -0.0478 -0.2772  0.1167
 4254W        W47167  23.445  11.543  16.218 -0.0302  0.0107  0.0070
 4255W        W47168  14.732  10.254  22.017 -0.0441 -0.1909 -0.1294
 4256W        W47169  21.369  11.360   3.514 -0.0807  0.0104  0.3741
 4257W        W47170  17.444   5.280   4.347  0.1870  0.0747 -0.1278
 4258W        W47171  29.096   3.942  18.728 -0.5731 -0.0744 -0.0719
 4259W        W47172  31.685   4.414  19.903 -0.1791 -0.0322  0.2090
 4260W        W47173  21.375   8.293  22.446  0.0632  0.2847 -0.2184
 4261W        W47174  33.350  12.196  18.268  0.0369 -0.3235  0.0035
 4262W        W47175  12.170   3.005  26.752 -0.2929 -0.0511  0.0613
 4263W        W47176  20.048  19.647  12.248 -0.3587  0.1324 -0.2574
 4264W        W47177  30.898  25.995  14.013  0.3598  0.1136 -0.3598
 4265W        W47178  23.276   8.442  13.181  0.0615  0.1170  0.0294
 4266W        W47179  20.783  21.534  21.906 -0.0516 -0.0233  0.0271
 4267W        W47180  20.475  14.791  13.445 -0.2714  0.0860 -0.0592
 4268W        W47181  31.666  34.050   0.934  0.1608 -0.0116  0.1342
 4269W        W47182  22.083  14.873  20.375  0.2305  0.2640 -0.1149
 4270W        W47183  15.255  10.608  21.328 -0.1334  0.0250 -0.0677
 4271W        W47184  25.743   6.724  22.749  0.0105  0.3553  0.0119
 4272W        W47185  20.611  13.431  16.586 -0.0639  0.0628 -0.2319
 4273W        W47186  22.389  22.499  13.661 -0.1002  0.1453 -0.2451
 4274W        W47187  24.783   5.332  20.182  0.0287 -0.0369 -0.0265
 4275W        W47188   5.889  18.898  29.364  0.1272  0.3847 -0.0630
 4276W        W47189  15.133   9.616  23.832 -0.2101 -0.0168  0.3265
 4277W        W47190  25.684   9.144  17.174 -0.3941 -0.0049 -0.2118
 4278W        W47191  26.479  13.941  15.778  0.0752 -0.1607  0.2352
 4279W        W47192  21.185  11.127  23.245  0.1573 -0.0906 -0.0687
 4280W        W47193  24.013  18.981  26.825  0.2108  0.1716  0.3973
 4281W        W47194  28.871  23.789  28.752  0.0483  0.0218 -0.1234
 4282W        W47195  31.115   3.617  15.504  0.2885 -0.0286  0.2284
 4283W        W47196  29.447  15.754   1.608 -0.1224 -0.0616 -0.1597
 4284W        W47197  11.618  17.399   2.997 -0.0627  0.0120 -0.1441
 4285W        W47198  11.134  26.431  17.897  0.2657  0.4846 -0.0161
 4286W        W47199  26.701  13.088  24.586 -0.1453 -0.1314 -0.0046
 4287W        W47200  27.768  20.659   2.701 -0.0240  0.0410  0.0249
 4288W        W47201  15.827  34.432  19.388 -0.1996 -0.1432  0.3941
 4289W        W47202  33.085  13.283  28.625 -0.2938 -0.2204 -0.0046
 4290W        W47203  22.257   9.607  19.336  0.0239  0.0848 -0.2255
 4291W        W47204  26.499  19.778  16.722  0.1527 -0.3845 -0.1959
 4292W        W47205  28.198  13.421   6.969 -0.2224 -0.3505  0.2130
 4293W        W47206  23.021  14.756  28.227  0.0044 -0.1852  0.1156
 4294W        W47207  19.227   6.328  23.043  0.1050  0.1162 -0.4128
 4295W        W47208  18.668  12.124  19.712  0.3142  0.0565  0.2004
 4296W        W47209   0.485  21.006  26.067  0.1559 -0.0093  0.1839
 4297W        W47210  23.087   5.061  23.930  0.2830 -0.1008 -0.4039
 4298W        W47211  21.229   3.418  21.588 -0.3470  0.0103 -0.0435
 4299W        W47212  23.216   8.978   3.665  0.0578 -0.0337 -0.2946
 4300W        W47213  25.956  18.792  16.483  0.0345 -0.2412  0.1432
 4301W        W47214   8.571  17.002   2.869  0.1828  0.1706  0.1275
 4302W        W47215  29.683  14.585  20.109 -0.1167  0.1147 -0.0154
 4303W        W47216  21.352   3.885  19.972  0.1688  0.1345  0.3454
 4304W        W47217  24.531  17.458  24.407 -0.0475  0.0581  0.1050
 4305W        W47218  17.551  20.924  12.802  0.4914 -0.2826  0.2195
 4306W        W47219  33.334  20.336  29.547  0.2115  0.0350 -0.0065
 4307W        W47220  33.257   6.295  18.154  0.1340  0.1482  0.0248
 4308W        W47221  31.918  11.621  19.440  0.0334  0.3500  0.0697
 4309W        W47222  23.023   7.209  18.244  0.0161  0.0903 -0.1474
 4310W        W47223  26.688  11.174  13.688 -0.0955 -0.0082  0.1181
 4311W        W47224  22.001   7.237  21.654 -0.3263 -0.3221  0.1626
 4312W        W47225  22.278   6.366  22.865 -0.0470 -0.2229  0.0379
 4313W        W47226  31.634   5.848  17.176  0.2781  0.0473 -0.0449
 4314W        W47227  26.149  15.132  24.645  0.1274 -0.0361 -0.0173
 4315W        W47228  21.131  13.600  26.122 -0.0383  0.0588  0.2984
 4316W        W47229  21.973   9.201  28.010 -0.0304 -0.3438 -0.0037
 4317W        W47230  24.252   1.958  28.011  0.0361 -0.1518  0.1758
 4318W        W47231  20.968  11.730  20.458 -0.1841  0.2287  0.1509
 4319W        W47232  27.517  11.245  25.915 -0.1374 -0.2632  0.2413
 4320W        W47233  21.303  11.537  18.584  0.0242 -0.0572 -0.1320
 4321W        W47234  10.324  18.764  20.664 -0.0406 -0.1718  0.1186
 4322W        W47235  17.707   1.898  27.182 -0.3167  0.2229  0.2891
 4323W        W47236  21.148  33.183  21.992  0.0541  0.1358 -0.1359
 4324W        W47237  20.866  33.405  19.852  0.1113  0.2209  0.3473
 4325W        W47238  16.961   6.025  15.629 -0.0690  0.2095 -0.1641
 4326W        W47239  20.847  10.991   0.735  0.2679 -0.0853  0.0408
 4327W        W47240  25.529  16.958  23.779 -0.0141 -0.2307 -0.2011
 4328W        W47241  31.396   6.011  26.806 -0.0749 -0.4531  0.0467
 4329W        W47242  25.832  18.772   6.064 -0.3497  0.1838  0.1375
 4330W        W47243  22.446  14.037  29.182  0.4261 -0.3705  0.2995
 4331W        W47244  28.280  19.526  20.772 -0.2378  0.3201 -0.2670
 4332W        W47245  13.896  33.157   1.056  0.1022 -0.0242  0.2571
 4333W        W47246  26.930  24.588   0.555  0.0911  0.0174  0.0374
 4334W        W47247  22.055  10.106  23.919  0.1326 -0.0500  0.3792
 4335W        W47248  24.785   0.808   1.486 -0.0406 -0.0524  0.0233
 4336W        W47249  18.762  12.999  28.613 -0.2019 -0.2135  0.0480
 4337W        W47250  26.582  14.001  17.309  0.1600  0.0406  0.2515
 4338W        W47251   5.020   4.272  23.946  0.0335 -0.4356  0.2787
 4339W        W47252  26.517   5.580   5.843 -0.0698 -0.0026 -0.2235
 4340W        W47253  14.973   9.546  14.970 -0.2408  0.1725 -0.0643
 4341W        W47254  16.773  10.770  14.357  0.2126 -0.0020 -0.2484
 4342W        W47255  28.944   7.770   2.337  0.2009  0.2765 -0.0915
 4343W        W47256  23.961   5.476   2.357  0.0419  0.2181 -0.1822
 4344W        W47257  24.846  15.736  27.436 -0.1626 -0.0909  0.2186
 4345W        W47258  28.581   8.235  25.620  0.0341  0.2268 -0.1775
 4346W        W47259  19.191   4.839  21.280 -0.0061 -0.2181 -0.0169
 4347W        W47260  28.266  25.219  27.933  0.0882 -0.2272  0.3818
 4348W        W47261  24.188  10.401  17.276  0.0238  0.2444 -0.2516
 4349W        W47262  22.158   3.027  17.004  0.1062  0.0039 -0.1250
 4350W        W47263  27.307   2.141  28.191  0.1128 -0.1420  0.1169
 4351W        W47264  17.319  10.088  27.742 -0.1367 -0.1921 -0.1517
 4352W        W47265  24.316  17.363   5.004 -0.0523 -0.3387  0.3109
 4353W        W47266  18.443  17.388  25.051  0.0139 -0.1956  0.1011
 4354W        W47267  22.434  13.000  24.964  0.2050  0.1172 -0.4707
 4355W        W47268  19.437   6.633  17.883 -0.0308  0.3438 -0.2737
 4356W        W47269  26.073  17.697  23.283 -0.0454  0.1293  0.2610
 4357W        W47270  25.993  14.042  16.413  0.2078 -0.3200  0.2390
 4358W        W47271  22.145  10.908  27.867 -0.0458  0.1435  0.1143
 4359W        W47272   0.931  19.344  27.140 -0.2287  0.4026  0.0293
 4360W        W47273  18.998  32.115  16.439  0.1718  0.1586  0.1343
 4361W        W47274  16.193   1.936  27.352  0.0191  0.0798  0.2051
 4362W        W47275  22.060   4.865   3.688 -0.0840 -0.1905  0.3070
 4363W        W47276  12.419  12.144  24.131  0.3304  0.4606  0.1886
 4364W        W47277  19.414  13.408  26.434  0.3116  0.3880  0.2630
 4365W        W47278  33.993   7.689  23.535 -0.0434 -0.1561 -0.0186
 4366W        W47279  27.629  11.893  22.693  0.2592  0.2403  0.3115
 4367W        W47280  19.184  21.237  17.922  0.0809 -0.2000  0.1932
 4368W        W47281  19.345   6.930   0.509  0.1528  0.1553  0.0715
 4369W        W47282  22.737   0.039  26.428 -0.0302  0.1260  0.3031
 4370W        W47283  24.833   8.524  24.267 -0.2494  0.1035  0.0441
 4371W        W47284  13.406   8.251  16.904 -0.2215  0.0801  0.3419
 4372W        W47285  23.465  16.172  28.051 -0.3154 -0.0574 -0.2626
 4373W        W47286  26.463   4.838  19.825  0.1496 -0.2272  0.1627
 4374W        W47287  12.814   7.544  24.806 -0.1573  0.1290  0.0718
 4375W        W47288  22.727  19.984  22.859  0.0789  0.6179  0.2711
 4376W        W47289  29.433   6.556  19.046  0.0194  0.0836  0.2621
 4377W        W47290   5.851  18.786  27.526 -0.2807  0.1946 -0.0173
 4378W        W47291  24.780  32.219  25.171  0.3879 -0.1665  0.0199
 4379W        W47292  29.839   8.385  14.865 -0.2606 -0.1632  0.2729
 4380W        W47293  26.396   6.551  23.205 -0.0846 -0.2662  0.2051
 4381W        W47294  16.167  13.222  18.353  0.0264  0.1944 -0.1191
 4382W        W47295  26.949  14.857  24.293 -0.0319  0.0108  0.0025
 4383W        W47296  19.216  11.471  13.656 -0.0376  0.1865 -0.0912
 4384W        W47297  29.928   8.082  23.924  0.0912  0.0536 -0.5963
 4385W        W47298  21.329  12.522  22.987 -0.1791  0.1249 -0.0713
 4386W        W47299  15.634  17.144  29.303  0.0226 -0.1848  0.2345
 4387W        W47300  24.019   8.944   1.782  0.0987 -0.2281  0.0065
 4388W        W47301  21.901   6.489  15.022  0.0712 -0.1754 -0.1274
 4389W        W47302   6.555  13.526   5.755  0.2171  0.3020 -0.1321
 4390W        W47303  11.789  14.439  21.095  0.3343  0.1932 -0.0214
 4391W        W47304  11.627   7.599  27.783 -0.2374 -0.1838 -0.0563
 4392W        W47305  16.782  11.782  17.851  0.1120  0.1522 -0.0918
 4393W        W47306  25.069  16.595  23.142 -0.0657  0.3887 -0.0153
 4394W        W47307  16.260   5.357  20.350  0.1248  0.2112 -0.0888
 4395W        W47308  17.033  13.002  19.416  0.3269 -0.2408  0.2185
 4396W        W47309  33.401  22.269  14.575 -0.0396  0.0663 -0.2713
 4397W        W47310  19.565  32.933  28.344 -0.0752 -0.0259  0.1068
 4398W        W47311  23.066   2.679  14.165  0.0782  0.0257 -0.1124
 4399W        W47312  19.784   6.994  24.479  0.0076  0.1809  0.1248
 4400W        W47313  28.448   9.959  15.381 -0.0730  0.1363  0.0181
 4401W        W47314  32.494  13.235  22.713 -0.2306 -0.0124  0.0586
 4402W        W47315  28.739  14.318  14.416 -0.0990 -0.2802 -0.0774
 4403W        W47316  24.659  14.700   3.573  0.0146 -0.1417  0.0287
 4404W        W47317  21.284  10.528  20.505  0.0613 -0.0574 -0.2626
 4405W        W47318  25.743   8.733  28.231  0.2045 -0.3137  0.0957
 4406W        W47319  22.427   6.254  24.857  0.3883  0.0063  0.2737
 4407W        W47320  22.177  12.131  24.588  0.0399 -0.1296  0.3887
 4408W        W47321  25.614  14.965  26.201  0.2481 -0.2934  0.2519
 4409W        W47322   8.533   1.995   0.959  0.3961  0.1372 -0.1233
 4410W        W47323  17.684   0.624   3.170 -0.0061  0.1463 -0.2622
 4411W        W47324  27.284  14.979  24.658 -0.2216  0.3310  0.2435
 4412W        W47325   0.179  11.832  19.551 -0.0035 -0.2836 -0.2312
 4413W        W47326  24.128  16.972  25.648  0.0739  0.2318  0.1877
 4414W        W47327  19.590  33.326  23.636  0.2743 -0.1497 -0.0935
 4415W        W47328  29.265   8.528  22.318  0.1324  0.0133  0.2870
 4416W        W47329  28.170  15.040  24.548 -0.2608 -0.1244 -0.0011
 4417W        W47330  19.672  17.732  12.400  0.2361 -0.1666  0.2001
 4418W        W47331  31.626  10.591  14.378  0.1984  0.0310  0.2073
 4419W        W47332  18.419  17.886  12.558 -0.0284  0.1656 -0.1617
 4420W        W47333  10.143  11.775  22.861 -0.1344 -0.1984 -0.3947
 4421W        W47334  17.903  12.652  18.441 -0.0670  0.0563  0.1016
 4422W        W47335  22.600   0.182  25.623  0.1215  0.0721  0.3488
 4423W        W47336  24.190  26.757  26.194  0.0149 -0.0015 -0.3801
 4424W        W47337  20.214  12.129  24.844 -0.3495 -0.2529 -0.0535
 4425W        W47338  32.000  17.076  23.861 -0.2520 -0.1824 -0.3652
 4426W        W47339  22.286  15.210  25.507  0.2102  0.1155 -0.2345
 4427W        W47340  26.390  10.622  24.717 -0.3258 -0.0068 -0.0524
 4428W        W47341   3.170  15.519   9.422  0.0093 -0.1547  0.3110
 4429W        W47342  28.912   7.885  14.935  0.1008  0.1118 -0.2921
 4430W        W47343  29.016   8.456  23.588 -0.1636 -0.1439  0.4362
 4431W        W47344  24.874  16.352  24.478 -0.0476  0.1247 -0.1710
 4432W        W47345  19.341   8.901  18.389  0.0531  0.0124  0.0001
 4433W        W47346  20.566   7.739  13.154  0.3297 -0.0629 -0.0512
 4434W        W47347  16.056   1.611  29.070 -0.2335 -0.0653 -0.1312
 4435W        W47348  25.152   6.132  24.029  0.3945 -0.2077  0.1159
 4436W        W47349  18.169  20.968  23.096  0.0328  0.2114  0.2318
 4437W        W47350  17.519  15.472  24.805  0.1084 -0.0290 -0.0750
 4438W        W47351  30.523  20.413  21.274 -0.1463  0.1211  0.1918
 4439W        W47352  26.453  15.425   2.705  0.2001 -0.2639  0.0390
 4440W        W47353  20.011   1.357  21.196 -0.3006 -0.1903  0.3722
 4441W        W47354  22.534  15.829  28.406  0.1298 -0.0881  0.0973
 4442W        W47355  15.433   6.958  27.363  0.1575 -0.0094 -0.1590
 4443W        W47356  25.625  14.709   0.014  0.0226 -0.1145  0.0115
 4444W        W47357  16.519  11.467  17.576 -0.0699  0.0504  0.1965
 4445W        W47358  31.052  12.761  19.365  0.3005  0.0289  0.0586
 4446W        W47359  18.906  13.440  20.219 -0.0063  0.0946  0.3437
 4447W        W47360  22.700   9.964  14.512 -0.1580 -0.1170 -0.1012
 4448W        W47361  22.855  10.046  15.401  0.2035 -0.0276 -0.1311
 4449W        W47362  14.478  11.288  21.410 -0.0742 -0.0272 -0.3364
 4450W        W47363  33.838  11.386  22.819  0.1606  0.1617 -0.2602
 4451W        W47364  25.383  21.273   3.829 -0.1725 -0.1256 -0.3710
 4452W        W47365  20.903   4.836  18.467  0.2282  0.0726 -0.0446
 4453W        W47366  22.324  16.327  15.092 -0.0717  0.0734 -0.3046
 4454W        W47367  26.871  18.487  26.945  0.1437 -0.1176 -0.1931
 4455W        W47368  29.952  23.028  24.732 -0.3325  0.1082  0.1453
 4456W        W47369  26.534  18.567  20.391  0.1356  0.1998 -0.2553
 4457W        W47370  21.868   5.579  26.366  0.1058 -0.0333 -0.1055
 4458W        W47371  12.153   3.337   0.996  0.1157 -0.2773 -0.1614
 4459W        W47372  34.333  11.256   0.958 -0.2952  0.2792 -0.0211
 4460W        W47373  24.515   7.139  20.858  0.2553 -0.0949 -0.1372
 4461W        W47374  18.172   8.713  18.557 -0.0520 -0.0294 -0.1388
 4462W        W47375  19.499   8.654  28.866 -0.4602 -0.0350  0.0307
 4463W        W47376  30.576   5.940  17.684  0.0099 -0.0418  0.0779
 4464W        W47377  29.279  32.672  17.642 -0.0494 -0.1156 -0.1900
 4465W        W47378   3.209  12.265  27.133 -0.2688  0.1807 -0.1864
 4466W        W47379   8.039  11.426  26.957  0.1651 -0.3296 -0.0818
 4467W        W47380  16.109  15.411  26.381 -0.0866 -0.0036 -0.1748
 4468W        W47381  29.812   5.538  20.487  0.0898 -0.1522 -0.4848
 4469W        W47382  24.127  21.926  14.736 -0.2477  0.0012 -0.0318
 4470W        W47383  20.609  10.713  15.804  0.1397 -0.1315  0.1881
 4471W        W47384  24.837  17.097  27.669  0.0383  0.1838  0.1341
 4472W        W47385  30.338  21.535  26.559 -0.0728 -0.3236 -0.0166
 4473W        W47386  25.520  21.234  17.675  0.1561 -0.2138 -0.1954
 4474W        W47387   2.651   9.613  19.367  0.0015 -0.2062  0.1750
 4475W        W47388   2.445   8.040  20.498 -0.0318 -0.1867  0.2899
 4476W        W47389  25.063  15.060  26.152  0.1298  0.0034 -0.2140
 4477W        W47390  25.006  12.667  18.571  0.1405  0.0767  0.0697
 4478W        W47391  14.260  26.969   3.930 -0.0133 -0.1282 -0.2125
 4479W        W47392  31.324  15.834  23.037 -0.0640 -0.0356  0.1386
 4480W        W47393  33.336  12.673  27.453  0.2015 -0.1214 -0.0742
 4481W        W47394  21.745  10.366  24.811  0.0649  0.0403 -0.0499
 4482W        W47395  24.588   8.411  20.597  0.0829  0.2847  0.0063
 4483W        W47396  19.210  14.339  15.954  0.1961 -0.1793  0.2706
 4484W        W47397  24.869   4.444  23.378  0.0274  0.0020  0.3157
 4485W        W47398  19.200  15.866  27.426 -0.0067  0.0487 -0.2087
 4486W        W47399  31.335  19.178   4.362 -0.0874 -0.0616  0.0674
 4487W        W47400  29.507  14.026  15.275 -0.1752 -0.0783 -0.2247
 4488W        W47401  32.097  15.581   0.250 -0.1711 -0.2898 -0.0620
 4489W        W47402  14.587  10.683  21.904  0.2280 -0.3229 -0.1047
 4490W        W47403  27.333  20.510  29.351 -0.1803 -0.0425 -0.1570
 4491W        W47404  17.403   7.638   3.523  0.0006  0.1647  0.3259
 4492W        W47405  24.370  29.029  21.012 -0.0389 -0.2540 -0.1373
 4493W        W47406  22.278  11.566  18.790  0.0708 -0.0291  0.0957
 4494W        W47407   4.056  13.871  16.032 -0.0287  0.1267  0.0739
 4495W        W47408  20.657  14.642  26.516  0.0488 -0.1151 -0.1262
 4496W        W47409  24.724  10.794  23.128  0.1538 -0.0265 -0.0134
 4497W        W47410   2.500  10.304   7.733  0.2880 -0.2356 -0.0220
 4498W        W47411  23.718  11.961  16.115 -0.3314 -0.2050 -0.1041
 4499W        W47412  27.445  19.400  26.562  0.0362 -0.1958  0.2815
 4500W        W47413  28.873  21.799  17.613 -0.0684 -0.0424  0.1018
 4501W        W47414  24.351  14.823  28.017  0.5881  0.3226 -0.0652
 4502W        W47415  16.443   5.163   1.783 -0.0315 -0.0834 -0.2237
 4503W        W47416  11.828   8.457  27.614 -0.1092  0.1392  0.1926
 4504W        W47417  27.999  12.879  28.932 -0.1337  0.0309 -0.0248
 4505W        W47418  28.083  13.767  16.780 -0.0095  0.1498 -0.0808
 4506W        W47419  26.436  24.229  28.313 -0.0266  0.2607  0.0355
 4507W        W47420  20.694   0.171  21.962  0.1781  0.3291 -0.0632
 4508W        W47421  18.390  12.595  20.938 -0.2647  0.0758  0.0512
 4509W        W47422  22.108  14.961  22.841 -0.1603  0.2312  0.1732
 4510W        W47423  29.243  15.011   4.031 -0.0642  0.0158  0.2403
 4511W        W47424  11.819  10.864  20.052 -0.2045  0.1999 -0.0557
 4512W        W47425  21.714  16.643  23.972  0.2467  0.2759 -0.0019
 4513W        W47426  26.852  12.903  21.106  0.0139  0.0973 -0.0899
 4514W        W47427  17.801   6.964  22.213 -0.2712 -0.0720 -0.2222
 4515W        W47428  23.108  23.433  24.450 -0.2349 -0.1749 -0.0135
 4516W        W47429  31.950  13.136  29.106  0.0180  0.2035 -0.0495
 4517W        W47430  15.645  10.949  15.932 -0.0431 -0.1413 -0.1514
 4518W        W47431   8.111  23.158  29.491  0.0814 -0.0448 -0.2135
 4519W        W47432  22.357  33.572  24.312  0.1036  0.1842 -0.3893
 4520W        W47433  20.120  11.265  26.865 -0.1075 -0.2420 -0.0151
 4521W        W47434  19.472  12.234  22.761 -0.0096 -0.0799 -0.4785
 4522W        W47435   5.426  17.447  22.651  0.2177  0.0402 -0.3085
 4523W        W47436  33.975   5.278  28.849  0.1768 -0.0932  0.1327
 4524W        W47437  28.063  16.544  24.495 -0.2712  0.1274 -0.2177
 4525W        W47438  18.335   9.968   2.727  0.0095  0.0591  0.1743
 4526W        W47439  23.668   7.425  19.037  0.0151 -0.1198 -0.2162
 4527W        W47440  18.885   3.205   3.653 -0.2347  0.0254  0.0008
 4528W        W47441  31.720  13.332  15.348  0.2745 -0.0382  0.1951
 4529W        W47442  24.856  19.351  24.899  0.0974 -0.1199  0.2598
 4530W        W47443  24.583  13.610   5.712 -0.2667 -0.0405  0.2248
 4531W        W47444   1.898   4.238  18.191 -0.1982 -0.1242  0.0460
 4532W        W47445  24.305  17.272  29.227  0.6033 -0.2634  0.0918
 4533W        W47446  23.321  20.956  14.398 -0.1050 -0.0830  0.0345
 4534W        W47447  16.315  22.574  12.982  0.0006  0.0863 -0.0936
 4535W        W47448  20.033  12.708  18.410 -0.0707  0.2762 -0.0070
 4536W        W47449  22.829  25.154  24.023  0.0650  0.0670  0.0728
 4537W        W47450  29.540  15.291  29.507 -0.0044  0.0223  0.0529
 4538W        W47451  26.603  10.529  20.943  0.1423  0.2386  0.2253
 4539W        W47452  27.691   7.930  25.677  0.0289  0.4211 -0.3958
 4540W        W47453  31.447  20.137   1.520 -0.0847  0.1080 -0.3295
 4541W        W47454  25.923  10.493  28.342  0.0374  0.0772 -0.1285
 4542W        W47455  25.791  15.918  16.694 -0.2325  0.0348 -0.0583
 4543W        W47456  20.310  23.339  16.902 -0.1159 -0.0379  0.3269
 4544W        W47457  31.753  25.579  14.665  0.1133 -0.0076  0.2781
 4545W        W47458  32.512   9.489   2.017 -0.0880  0.0095  0.1383
 4546W        W47459  31.617   8.430  19.269  0.3104 -0.2673  0.3056
 4547W        W47460  20.112  17.106  15.297  0.0883  0.1777  0.0425
 4548W        W47461  27.826  25.750  16.351  0.1085 -0.1267  0.1677
 4549W        W47462  11.706   8.644   0.653  0.2170 -0.3094  0.3265
 4550W        W47463  29.470  25.230  28.453 -0.1253 -0.0176 -0.0174
 4551W        W47464  31.817   6.001  25.424  0.4816 -0.1127 -0.0986
 4552W        W47465  25.919  11.202   4.237 -0.2036  0.1496 -0.0347
 4553W        W47466  23.771  12.079   2.210  0.0999 -0.2524 -0.0905
 4554W        W47467  18.231  18.415  27.623 -0.1745 -0.4882  0.3719
 4555W        W47468  22.202  20.966  29.372  0.0525 -0.3310  0.0400
 4556W        W47469  20.536  13.794  26.823 -0.0542  0.3010 -0.1904
 4557W        W47470  23.371  10.899  20.252  0.1103 -0.0668 -0.0564
 4558W        W47471  30.935   7.974  23.939  0.1340  0.3387 -0.3268
 4559W        W47472  24.442   7.953  27.394 -0.1664  0.0125  0.1760
 4560W        W47473  26.183  13.553  22.107 -0.1809 -0.0804 -0.5319
 4561W        W47474  31.659  18.624  24.052  0.0402 -0.1009 -0.0503
 4562W        W47475  20.574   0.228  26.946 -0.1424  0.3006 -0.0760
 4563W        W47476  22.665  16.913  28.160 -0.1260  0.3309  0.0342
 4564W        W47477  16.961  15.341  29.773  0.1749  0.0917 -0.0384
 4565W        W47478  27.238  23.286  24.590  0.1817 -0.0831  0.0152
 4566W        W47479  11.981   7.405  19.017  0.2443 -0.1627  0.0994
 4567W        W47480  23.584  13.590  18.586  0.0202  0.0983 -0.1606
 4568W        W47481  24.403  25.231  24.998 -0.1697 -0.0164  0.0113
 4569W        W47482  22.404  23.123  22.118  0.1669 -0.0563  0.2783
 4570W        W47483  30.178  15.609  25.734  0.0046 -0.0852  0.1760
 4571W        W47484  29.394   9.638  20.885  0.2019  0.1120 -0.3970
 4572W        W47485  28.305  22.729  26.427  0.1785  0.0409 -0.1009
 4573W        W47486  18.608  16.197  26.192  0.0567 -0.1777 -0.4813
 4574W        W47487  28.663  17.315  28.499 -0.1588 -0.2233 -0.0501
 4575W        W47488  31.092  19.658  22.455  0.0508 -0.0166  0.2039
 4576W        W47489  21.186   9.745  22.290 -0.3745  0.0156  0.0885
 4577W        W47490  17.883   6.141  18.596  0.1503 -0.5034  0.2573
 4578W        W47491  26.753  17.155  24.389  0.1761 -0.0352 -0.0612
 4579W        W47492  13.676  10.871  23.043 -0.1529  0.0645 -0.0237
 4580W        W47493  18.295  16.085  18.999  0.1107 -0.0900  0.1074
 4581W        W47494  29.609   3.697  15.964  0.3257 -0.0909  0.2493
 4582W        W47495  25.248  11.218  21.296 -0.0075 -0.1190  0.2629
 4583W        W47496   0.240   7.050  28.482  0.2513 -0.0822  0.1514
 4584W        W47497  12.546  12.631  18.539 -0.0586  0.2043  0.0068
 4585W        W47498  33.919  21.413  27.920 -0.2280 -0.0669  0.0361
 4586W        W47499  12.565   8.365  22.072 -0.0274  0.1294 -0.0725
 4587W        W47500  23.002  13.377  21.553  0.0698  0.0997  0.0031
 4588W        W47501  20.526   2.629  20.416 -0.1148 -0.0583 -0.0922
 4589W        W47502  28.348   5.472  21.588  0.1138 -0.1970  0.2905
 4590W        W47503  24.233   5.519  22.409 -0.1469  0.1099  0.2887
 4591W        W47504  29.149  23.825   3.088 -0.1116  0.0991 -0.2206
 4592W        W47505  27.003  13.275  21.542  0.0505 -0.0635 -0.3479
 4593W        W47506  16.939  30.779  18.813 -0.0873  0.0940  0.3042
 4594W        W47507  26.886  14.585   7.435 -0.1474  0.3894  0.1347
 4595W        W47508  19.325   3.673  17.801 -0.2905 -0.1603 -0.1125
 4596W        W47509  20.393  13.185  23.199  0.0839 -0.0679  0.0321
 4597W        W47510  20.165   4.050  17.494  0.1930 -0.1055  0.1440
 4598W        W47511  21.729  20.569  26.997 -0.2264 -0.2089 -0.1979
 4599W        W47512  24.496  16.522  18.274 -0.4542  0.1207 -0.0566
 4600W        W47513  21.104  21.708  24.614 -0.0899  0.1888  0.0461
 4601W        W47514  30.610   2.803  19.343  0.0992  0.0211  0.1504
 4602W        W47515  27.178  17.712  24.341  0.1263 -0.0111 -0.0463
 4603W        W47516  33.515   8.662  18.043  0.2193  0.2348  0.1848
 4604W        W47517  12.250  12.572  28.073 -0.1649  0.2742 -0.4834
 4605W        W47518  28.998  24.774  15.669 -0.0334  0.2725 -0.1058
 4606W        W47519  29.239  20.416  25.836 -0.0685  0.0431 -0.1343
 4607W        W47520  23.549  34.212  21.191 -0.0975 -0.1327  0.0711
 4608W        W47521  32.846  21.050  29.239 -0.0886 -0.1249 -0.0231
 4609W        W47522  25.098  32.720  16.789  0.2847 -0.2788  0.1643
 4610W        W47523  17.495  19.382  28.319 -0.1437  0.0408 -0.0554
 4611W        W47524  15.231   2.849  20.800 -0.0151 -0.2209  0.1109
 4612W        W47525  28.373  16.263  24.139  0.0714  0.5992  0.0469
 4613W        W47526  22.612   8.765   5.322 -0.1044  0.1229 -0.2420
 4614W        W47527  19.702   7.492  19.460  0.0036 -0.1031  0.1519
 4615W        W47528  22.919   9.109  22.710 -0.2685 -0.1466 -0.3793
 4616W        W47529  29.455  12.838  28.117  0.3186  0.0939  0.0253
 4617W        W47530  17.554  13.792  26.155 -0.1443 -0.1405 -0.1293
 4618W        W47531  20.327  13.527  23.602 -0.1304 -0.0630 -0.1830
 4619W        W47532  25.145  13.067  20.811  0.0166 -0.1106  0.1048
 4620W        W47533  23.572   5.759  24.022  0.0846  0.1243  0.0997
 4621W        W47534  18.868  12.718  15.866  0.0719 -0.2206 -0.0713
 4622W        W47535  25.830  10.118   1.179 -0.0707 -0.2116 -0.2976
 4623W        W47536  23.929  16.995  20.202 -0.1567  0.2576 -0.0648
 4624W        W47537  25.525  14.806  22.578 -0.1413  0.3481  0.0758
 4625W        W47538  29.437  11.403  22.765  0.0336  0.2285 -0.1054
 4626W        W47539  26.879   3.091  23.818  0.1991  0.2600 -0.0004
 4627W        W47540  24.328  16.329   0.528  0.1026 -0.3973 -0.0937
 4628W        W47541  22.347  25.936  21.229  0.0321 -0.2162  0.0377
 4629W        W47542  31.864  14.868  27.664  0.1120  0.1261 -0.0932
 4630W        W47543  20.618   7.383  29.438  0.0692 -0.1666 -0.2095
 4631W        W47544  25.912   3.004   0.447  0.4557  0.0357  0.0845
 4632W        W47545  27.935  21.573  20.644 -0.1258  0.0665  0.1999
 4633W        W47546  22.499   6.233  22.463  0.3191  0.0614 -0.1685
 4634W        W47547  22.214  25.309  23.061 -0.1081 -0.2301 -0.3041
 4635W        W47548  12.342  14.730  28.306 -0.0526  0.2549 -0.0970
 4636W        W47549  17.613   3.782  16.131 -0.1444 -0.0665  0.1880
 4637W        W47550  29.079  21.062  25.377 -0.0691 -0.0442  0.1732
 4638W        W47551  22.709   7.590  29.127  0.0571  0.2492 -0.2079
 4639W        W47552  33.826  18.695   1.907  0.1718 -0.2373  0.1556
 4640W        W47553  27.860  15.750  24.829 -0.2130 -0.1399  0.4539
 4641W        W47554  30.223   6.921   5.201 -0.3090  0.2145 -0.2693
 4642W        W47555  25.088  13.537  18.103 -0.0573  0.1422  0.2057
 4643W        W47556  23.865  24.778   1.974  0.0798  0.0654 -0.2157
 4644W        W47557  27.621  13.129  16.273 -0.1164 -0.1735 -0.2860
 4645W        W47558  28.500  26.146  16.820 -0.0617  0.0877  0.0346
 4646W        W47559  18.729  10.518  25.359 -0.1889  0.3220 -0.2099
 4647W        W47560  23.099  20.181  15.631 -0.0379 -0.0616  0.0066
 4648W        W47561  27.855  15.632  19.375 -0.1018  0.2212  0.1329
 4649W        W47562  16.864   6.758  21.374  0.1695 -0.5828  0.2537
 4650W        W47563  24.781   8.381  25.532  0.4804  0.1996 -0.0058
 4651W        W47564  22.639   9.197  18.104 -0.0731  0.0613 -0.4300
 4652W        W47565  22.127  13.379   2.386 -0.2227 -0.4564  0.2036
 4653W        W47566  18.439  15.476   6.260  0.1671 -0.0305  0.0688
 4654W        W47567  31.996  24.642  23.416 -0.3370 -0.0933 -0.0639
 4655W        W47568   4.742  18.225  28.195  0.0539 -0.1176 -0.0757
 4656W        W47569  24.206  12.587   8.697 -0.0992 -0.0690 -0.2344
 4657W        W47570   2.416  17.592  15.314  0.1901 -0.0240  0.0928
 4658W        W47571  18.424  28.256   1.119  0.0518 -0.0365  0.0643
 4659W        W47572  32.120  32.080  17.469  0.2750  0.1355  0.3332
 4660W        W47573  25.513  24.457   1.515  0.1184 -0.0171 -0.0261
 4661W        W47574  17.095  16.855   2.323 -0.0333  0.2401 -0.0694
 4662W        W47575  13.353  11.592   2.615  0.0034 -0.0364 -0.2436
 4663W        W47576  18.147  10.424   2.623  0.3526  0.1234 -0.0897
 4664W        W47577  18.754  29.813  22.680 -0.4144  0.3277  0.2598
 4665W        W47578  27.420   6.909  15.300  0.2156  0.0529 -0.1078
 4666W        W47579  19.989   3.640  15.185  0.0245 -0.2603  0.2746
 4667W        W47580  16.447  12.149  29.274 -0.2328  0.3210 -0.0419
 4668W        W47581  14.253  10.504  25.045  0.1866 -0.0234  0.3479
 4669W        W47582  19.198   1.271   3.626 -0.0447 -0.4255 -0.1043
 4670W        W47583  20.954  13.943   5.569 -0.0594 -0.0062  0.0446
 4671W        W47584  23.925   8.602  24.398 -0.2110 -0.1503 -0.4027
 4672W        W47585  17.024   8.054  24.750  0.0550  0.1762 -0.2871
 4673W        W47586  28.964  10.809  28.470  0.0377  0.1673 -0.2893
 4674W        W47587  12.993   9.230   8.372 -0.1227 -0.3462  0.1012
 4675W        W47588  31.275  16.900  20.701  0.2875 -0.0334 -0.1234
 4676W        W47589  13.996  15.747   5.363  0.3181 -0.0254 -0.1945
 4677W        W47590  26.999  16.339  18.385  0.1599  0.0680 -0.0609
 4678W        W47591  29.324  13.319  29.291  0.1058  0.1398 -0.0134
 4679W        W47592  14.427  15.712  22.984 -0.1175 -0.0365  0.4191
 4680W        W47593  20.999  15.607  21.102  0.2797 -0.1038  0.1434
 4681W        W47594  22.684  18.180  15.663 -0.0168 -0.1530  0.3934
 4682W        W47595  30.992  22.204  22.995 -0.2264 -0.0649 -0.2976
 4683W        W47596  21.528  11.555  26.237 -0.3512 -0.1084 -0.0336
 4684W        W47597  22.363  18.543  17.425  0.2103  0.3611 -0.2063
 4685W        W47598  24.640   7.015   7.279  0.1064 -0.0240  0.0720
 4686W        W47599  23.181  10.990   4.301 -0.2584  0.2110  0.2066
 4687W        W47600   4.389   3.402   2.014  0.2051  0.1072 -0.0295
 4688W        W47601  19.936  18.341  22.683 -0.2543 -0.2563 -0.1927
 4689W        W47602  25.311   8.325   4.758 -0.2682 -0.1052 -0.3232
 4690W        W47603  25.283  19.876  17.612  0.1354 -0.0232  0.1065
 4691W        W47604  17.172  20.647  23.096 -0.1188  0.0030 -0.2356
 4692W        W47605  23.446  15.829  29.411 -0.0873  0.0628 -0.1045
 4693W        W47606  11.080   4.871  16.395  0.1445  0.0801 -0.1751
 4694W        W47607  33.269  20.261  28.071  0.0913  0.1531 -0.0910
 4695W        W47608   6.168  16.251  21.531 -0.6374 -0.0063 -0.0507
 4696W        W47609  21.047  11.550  13.669  0.0888  0.1104 -0.0570
 4697W        W47610  21.222  19.953  25.049  0.1359 -0.3114 -0.3442
 4698W        W47611  24.168  11.017   4.591 -0.1410  0.1237 -0.1038
 4699W        W47612   2.324   6.570  28.637  0.1067 -0.0111 -0.0894
 4700W        W47613  15.899  10.474  17.423 -0.1490  0.0522 -0.0909
 4701W        W47614  20.826  15.785  14.989 -0.1409  0.4716 -0.1686
 4702W        W47615  22.168  10.773   0.338  0.1935  0.0154  0.2685
 4703W        W47616  14.371  11.893  22.323 -0.3631  0.0147  0.2198
 4704W        W47617  18.949   5.400  26.639 -0.0396  0.2372 -0.2784
 4705W        W47618  30.955  20.769  25.311 -0.0507 -0.0653  0.0107
 4706W        W47619  33.530  20.203  23.921  0.0149 -0.4171  0.1507
 4707W        W47620  28.560  16.803  28.245 -0.2946 -0.1328  0.1613
 4708W        W47621  20.965   6.961   7.151 -0.1935 -0.4175  0.1073
 4709W        W47622  23.282  20.017  19.821  0.0385  0.0188 -0.0428
 4710W        W47623  29.214  23.371  25.565  0.3552 -0.0519  0.3530
 4711W        W47624  17.376   5.361  22.615 -0.1059 -0.1795  0.2162
 4712W        W47625  13.245  17.163   6.517 -0.0623  0.0615  0.0287
 4713W        W47626  25.446  13.040  26.158  0.2395 -0.2029  0.2458
 4714W        W47627  25.968  12.220   5.141  0.1145  0.3395  0.2579
 4715W        W47628  15.803   3.788   0.937 -0.0213 -0.1920 -0.1542
 4716W        W47629  22.148   7.504  14.075  0.0331  0.2318 -0.1252
 4717W        W47630   0.360   7.318  28.071  0.0109  0.0589 -0.1489
 4718W        W47631  14.058  24.536   1.243  0.2596  0.1221  0.1356
 4719W        W47632   3.062  16.462   5.645  0.2043  0.1652 -0.0617
 4720W        W47633  32.339  15.910  22.048  0.1241  0.2105  0.0653
 4721W        W47634   1.517  10.814  28.985  0.1668  0.3347  0.0432
 4722W        W47635  21.786  25.646  24.593  0.1337 -0.3049 -0.0046
 4723W        W47636  26.751  12.858   3.239  0.0719  0.0123  0.0537
 4724W        W47637  27.616  11.493   0.163 -0.2387 -0.0062 -0.0542
 4725W        W47638  26.375  16.157   2.276 -0.0455  0.0030  0.0175
 4726W        W47639  22.357   3.523  21.635  0.1044 -0.2830 -0.1621
 4727W        W47640  14.375   3.322  19.835 -0.2656  0.3615 -0.0843
 4728W        W47641  29.215  16.564  16.139  0.0917 -0.1474 -0.0868
 4729W        W47642  32.435  14.034  28.736  0.0244 -0.0860  0.0612
 4730W        W47643  20.904  15.036   0.420  0.3920 -0.2580 -0.1172
 4731W        W47644  18.544  12.137  13.221 -0.1625 -0.0613  0.0748
 4732W        W47645  10.276  18.680   6.153 -0.0085  0.1162  0.0775
 4733W        W47646  23.070  12.462  23.202 -0.2628 -0.2191 -0.1067
 4734W        W47647   4.231  22.025   1.439 -0.4996 -0.0800  0.2345
 4735W        W47648  22.289  18.686  24.987 -0.0989 -0.3290 -0.2309
 4736W        W47649  28.607  11.198   9.100  0.0265  0.2147  0.1009
 4737W        W47650  22.858  10.224   3.490  0.1368 -0.0749  0.0036
 4738W        W47651  15.059  24.544  18.674  0.1698  0.0792  0.0231
 4739W        W47652  29.525   2.766  21.228  0.1989 -0.1389 -0.0927
 4740W        W47653  28.054  20.632  26.383 -0.1310 -0.2712  0.0937
 4741W        W47654  17.637   4.480   6.706 -0.0809  0.2490  0.1111
 4742W        W47655   0.916  14.313  23.897 -0.2886  0.1860 -0.1261
 4743W        W47656   9.314  11.519  26.751  0.0010  0.0023 -0.2053
 4744W        W47657  20.115  18.152   3.664 -0.1248 -0.1186  0.2461
 4745W        W47658  22.821   8.488  22.023 -0.2816  0.1420  0.0624
 4746W        W47659  24.247  15.723  18.858 -0.3626  0.1837  0.0084
 4747W        W47660  23.109  16.457  18.996  0.1457 -0.1216 -0.2269
 4748W        W47661  15.646  18.284  26.167 -0.0617 -0.1817 -0.0817
 4749W        W47662  25.753  27.669  26.807 -0.2263 -0.0719  0.2647
 4750W        W47663  23.348  13.799  15.114  0.1388 -0.5033 -0.1516
 4751W        W47664  16.474  22.676  28.396  0.0067 -0.2011 -0.0793
 4752W        W47665  21.495   8.667   1.988 -0.1363 -0.3028 -0.0214
 4753W        W47666  16.539  16.100   0.760  0.1161  0.2803  0.3635
 4754W        W47667  10.781   8.043  21.590 -0.0549  0.0413 -0.3933
 4755W        W47668  29.476   8.339  27.348  0.0046  0.1701 -0.2072
 4756W        W47669  25.369  27.580  25.570 -0.2030  0.2278  0.0154
 4757W        W47670   1.370  18.280   7.638  0.0875 -0.0115 -0.0603
 4758W        W47671  20.802  11.857  25.778 -0.1429 -0.1520 -0.0657
 4759W        W47672  23.297  16.929  19.114 -0.0845  0.0668  0.2458
 4760W        W47673  15.361   9.568  28.776 -0.0118 -0.2099 -0.0467
 4761W        W47674  22.318  22.859  21.719  0.2002 -0.1029 -0.1729
 4762W        W47675  20.285  16.515  14.691  0.1983 -0.1761 -0.1795
 4763W        W47676  20.288   5.927  22.955 -0.0234  0.1784 -0.2255
 4764W        W47677  23.332  23.143   5.463 -0.0219 -0.0460 -0.0227
 4765W        W47678  17.012  13.063  24.782  0.6606  0.0180 -0.2801
 4766W        W47679  32.761  19.114   3.314  0.1350  0.3338  0.0735
 4767W        W47680  25.750   6.920  28.969 -0.1555  0.0150 -0.0879
 4768W        W47681  20.036  15.804  22.489  0.0739  0.4446  0.1733
 4769W        W47682   6.296   2.132  19.492 -0.2136 -0.0398  0.2839
 4770W        W47683  27.196  26.846   4.734  0.0650 -0.0497 -0.0360
 4771W        W47684  15.251  12.642  22.852  0.1180 -0.0363 -0.2754
 4772W        W47685  22.577   5.944   3.870  0.1588  0.0531  0.2659
 4773W        W47686  27.344  12.275   2.770 -0.2612  0.1818 -0.0139
 4774W        W47687  26.797  23.541   1.282  0.2752 -0.0997  0.2272
 4775W        W47688  31.387  14.722   5.927 -0.2068 -0.2511  0.1160
 4776W        W47689  18.758  13.550  24.631 -0.1339  0.1092 -0.3752
 4777W        W47690  21.135  18.118   0.971 -0.3454 -0.0857  0.1546
 4778W        W47691  18.020  12.427  11.059 -0.0155  0.4222  0.0216
 4779W        W47692  32.729  27.370   0.305 -0.1216  0.1408  0.1767
 4780W        W47693  23.973   5.170  27.329 -0.0950 -0.4157  0.0245
 4781W        W47694  15.404  12.131  17.543  0.0484 -0.0815  0.1807
 4782W        W47695  23.910  15.619  24.900 -0.2648 -0.2312 -0.0677
 4783W        W47696  21.052  16.041  25.119  0.3316 -0.0962 -0.1035
 4784W        W47697  21.982  14.235  22.370  0.1284  0.0290  0.1862
 4785W        W47698  29.848   5.449  22.024 -0.1079  0.3676  0.0299
 4786W        W47699  15.306  13.806  26.172 -0.1155 -0.2412  0.0272
 4787W        W47700  24.728  10.550  18.040  0.1466  0.0561 -0.0949
 4788W        W47701  29.534  19.299  24.128  0.2992 -0.2292  0.3478
 4789W        W47702  30.276   4.733  25.390  0.0888  0.2119  0.0420
 4790W        W47703  12.512   1.780  28.114  0.0312  0.1738  0.2961
 4791W        W47704  23.380   2.750   2.000 -0.2752 -0.0532  0.0815
 4792W        W47705  11.800  11.609  15.358  0.2844  0.0575  0.4434
 4793W        W47706  20.533  29.507   3.395  0.1582  0.0524  0.3166
 4794W        W47707  26.078  22.758  24.779  0.0458  0.0675 -0.1020
 4795W        W47708  29.713  12.817   0.229  0.0435  0.0624 -0.0834
 4796W        W47709  24.079  13.633   9.328  0.1025  0.1464  0.0396
 4797W        W47710  29.481   6.402  20.495  0.4276  0.0534  0.0680
 4798W        W47711  28.256  18.819  29.682  0.2281  0.1735 -0.0730
 4799W        W47712  27.562  11.949  26.477  0.0286 -0.0245  0.1949
 4800W        W47713  22.337  13.612  22.385 -0.4151 -0.3863  0.1772
 4801W        W47714  20.584   8.592   8.095 -0.2299 -0.3472  0.0468
 4802W        W47715  22.843   7.387  24.413 -0.0392  0.1921  0.2007
 4803W        W47716   9.214   8.983   2.577  0.0891  0.0485  0.0273
 4804W        W47717  28.083  34.052  13.751 -0.0026 -0.0060 -0.1436
 4805W        W47718  22.492  14.735   7.727 -0.1450 -0.2576  0.3102
 4806W        W47719  30.980   3.751   8.171 -0.1127  0.0859  0.2743
 4807W        W47720  30.443  11.077  25.651 -0.1800 -0.0659 -0.0121
 4808W        W47721  12.947  16.796  16.518  0.2581 -0.3442 -0.2848
 4809W        W47722  33.151  12.878  20.670 -0.0348 -0.0816 -0.2772
 4810W        W47723  20.340  13.188  20.276 -0.3416 -0.0329  0.1865
 4811W        W47724  14.861   2.075  24.607  0.2138  0.0367  0.0063
 4812W        W47725  17.273  27.106  26.051 -0.0143 -0.0736 -0.0014
 4813W        W47726  17.302  12.099  29.681 -0.1671  0.0339  0.1953
 4814W        W47727  31.446   9.312  26.521  0.2978  0.1047  0.0456
 4815W        W47728  22.399  14.556  29.141 -0.1075 -0.2381  0.3423
 4816W        W47729  20.302  14.532  21.397  0.0336  0.0359 -0.1152
 4817W        W47730  25.617   8.328  23.159  0.4009  0.0330 -0.1368
 4818W        W47731  31.930   4.507   3.039 -0.0539  0.1329 -0.2420
 4819W        W47732  17.708  32.597  28.557 -0.2016  0.2413 -0.1139
 4820W        W47733  23.225   3.909   4.242 -0.0528 -0.0219  0.3011
 4821W        W47734  25.912  13.150  13.664  0.1072  0.0370 -0.0425
 4822W        W47735  14.593  13.804  20.735 -0.0036 -0.1997 -0.1195
 4823W        W47736  21.375  20.919  27.079  0.0496  0.1710 -0.1501
 4824W        W47737  30.849  21.276  26.072  0.4401 -0.2158 -0.0210
 4825W        W47738  11.929  22.598   5.130 -0.2905 -0.1442  0.2398
 4826W        W47739  31.771  17.820   0.741  0.3671 -0.0486  0.1496
 4827W        W47740  29.958   9.933  25.216  0.0648  0.2673 -0.0475
 4828W        W47741  13.569   8.767  20.533  0.1302  0.1328  0.2334
 4829W        W47742  18.767   4.212  22.025  0.0055  0.1288 -0.1256
 4830W        W47743  21.170  10.970  26.940 -0.0095  0.0021 -0.3330
 4831W        W47744  13.049  16.852  12.644 -0.0031  0.0136 -0.3245
 4832W        W47745  31.552  16.969  27.273  0.3115 -0.4359 -0.1735
 4833W        W47746  30.035   9.852  24.689  0.6267 -0.1421 -0.0480
 4834W        W47747  15.638   4.079   1.802 -0.0071 -0.0829 -0.2059
 4835W        W47748  25.524  12.331  26.996 -0.3889  0.0467 -0.2356
 4836W        W47749  22.762   5.707  28.139 -0.0326  0.1804 -0.4264
 4837W        W47750  14.654   9.423  19.856  0.0850  0.1403  0.0220
 4838W        W47751  18.887   5.463   0.388 -0.3033 -0.1543  0.1571
 4839W        W47752  22.630   1.609  29.226 -0.2156 -0.4568  0.0429
 4840W        W47753  25.156  17.976  23.703 -0.0161  0.0650 -0.2912
 4841W        W47754  15.928  12.418   0.786 -0.0632  0.1002  0.2594
 4842W        W47755  28.673  19.918  25.911 -0.1017  0.0451  0.0626
 4843W        W47756  31.559  20.066  28.399 -0.0677 -0.0536  0.0271
 4844W        W47757  26.331   3.533   3.996  0.0421 -0.1018 -0.4008
 4845W        W47758  27.466  12.801  20.742 -0.0435  0.1051 -0.2704
 4846W        W47759  24.462   6.260  15.185  0.0415 -0.2178 -0.1688
 4847W        W47760  22.881   9.810   3.722  0.0433 -0.2893  0.3919
 4848W        W47761  24.597   0.923  24.775 -0.0154  0.0309 -0.3597
 4849W        W47762  32.025  15.076   3.332 -0.1658 -0.0006  0.0732
 4850W        W47763  21.507  13.798  20.013 -0.1408 -0.4632  0.6031
 4851W        W47764  25.442  15.654   3.349  0.3728  0.1422  0.2694
 4852W        W47765  21.833  14.241  28.388  0.1318  0.2489 -0.1367
 4853W        W47766  26.732  15.830  26.050 -0.1537  0.0370 -0.0040
 4854W        W47767  18.027  17.447  14.727 -0.1236 -0.0495  0.0551
 4855W        W47768  27.762  16.545  15.719 -0.0617 -0.1247 -0.2593
 4856W        W47769  23.722  19.440  28.016  0.4522  0.0494 -0.0822
 4857W        W47770  26.649  16.296   2.816  0.0610  0.1342 -0.0049
 4858W        W47771   0.159  17.503  25.671 -0.3081 -0.0406  0.1637
 4859W        W47772  22.731  18.979  28.017 -0.1161 -0.0463  0.3447
 4860W        W47773  26.761   3.765   3.828  0.2870  0.0340 -0.1975
 4861W        W47774  15.763  18.317   4.203  0.3969  0.1346 -0.1015
 4862W        W47775  22.952  11.121  22.281 -0.2171  0.1804 -0.0278
 4863W        W47776  21.664  18.513   7.955  0.2151 -0.2453 -0.0960
 4864W        W47777  18.052  17.303  23.834 -0.0806  0.1314 -0.2202
 4865W        W47778  18.664   5.120  18.895 -0.0605  0.2137 -0.1502
 4866W        W47779  10.132   7.473   2.495 -0.0955 -0.0029  0.0521
 4867W        W47780  31.670  16.168   3.472 -0.2620  0.3498 -0.0257
 4868W        W47781  21.126   6.636   6.788  0.1299 -0.1753  0.1543
 4869W        W47782  16.046   7.032  27.707 -0.1059 -0.0860 -0.0432
 4870W        W47783  18.554  17.876  27.115 -0.0074 -0.1898 -0.0677
 4871W        W47784  14.907  16.498   4.787  0.1698 -0.1142 -0.0147
 4872W        W47785  16.810  34.322  22.281 -0.3591  0.2085  0.1144
 4873W        W47786  22.355   5.268   1.657 -0.2108 -0.4132  0.0065
 4874W        W47787  21.047   9.656   0.081  0.0694 -0.0469 -0.1956
 4875W        W47788  20.719   2.899  22.095 -0.0090  0.2320 -0.0698
 4876W        W47789  26.403  13.313   3.414  0.0292 -0.0648  0.0936
 4877W        W47790  30.027  14.608  25.244  0.1312  0.2523 -0.2491
 4878W        W47791  12.185  18.333   2.260  0.1640  0.1673 -0.0572
 4879W        W47792  21.942  18.308   5.026 -0.0259  0.1756 -0.1522
 4880W        W47793  31.010  14.238  22.280  0.0095 -0.0946 -0.2559
 4881W        W47794  19.703  11.769  19.744  0.1232  0.0397  0.2523
 4882W        W47795   1.893  16.098   3.443  0.2717  0.4805  0.0074
 4883W        W47796   1.489  17.892  26.515 -0.1118  0.1288 -0.3901
 4884W        W47797  33.437  14.423  28.133  0.0472 -0.1533 -0.0013
 4885W        W47798  25.719  22.183  25.695 -0.3711  0.1635 -0.1007
 4886W        W47799  20.245   9.342   0.526 -0.1381  0.1337 -0.2954
 4887W        W47800  17.183   0.547   0.131  0.1439  0.5731  0.1475
 4888W        W47801  14.005   9.189  22.763 -0.1845  0.0061  0.1732
 4889W        W47802  17.245  21.357  18.320  0.0592  0.0637 -0.0142
 4890W        W47803  11.596  12.199   0.307  0.0392 -0.3827 -0.1086
 4891W        W47804  25.628   5.529  27.604 -0.3235 -0.4256 -0.1157
 4892W        W47805  31.552  22.926   3.213 -0.2794 -0.0301 -0.1219
 4893W        W47806  22.191  12.032  23.504  0.2840 -0.0384  0.0621
 4894W        W47807  28.416  18.471  18.636 -0.3357  0.0010  0.2876
 4895W        W47808  18.746   3.626  25.029  0.0349 -0.1408 -0.2318
 4896W        W47809   0.504  13.490   2.761 -0.1289 -0.0802 -0.0172
 4897W        W47810  23.828  15.137   0.036  0.1984 -0.1062 -0.1470
 4898W        W47811   2.172   7.785  19.610 -0.3065 -0.3848  0.1550
 4899W        W47812  22.305  12.800  21.321 -0.1481 -0.3879  0.1783
 4900W        W47813  19.207  20.290   3.794  0.2684 -0.0005 -0.1608
 4901W        W47814  17.749  17.848   1.580  0.0134 -0.1660  0.1313
 4902W        W47815  27.977  15.833  26.279  0.1512 -0.1710  0.2169
 4903W        W47816  22.360  15.942   3.009 -0.3586 -0.3610  0.0466
 4904W        W47817  24.157  12.568   0.394  0.4360 -0.1814 -0.0011
 4905W        W47818  18.845   5.515  23.737  0.2129 -0.0660  0.1371
 4906W        W47819  17.689  22.476  24.638 -0.0999  0.0596 -0.0636
 4907W        W47820  26.422  21.514  26.660  0.2002 -0.2918  0.1502
 4908W        W47821  28.917  22.855  23.913 -0.0980  0.1608 -0.1154
 4909W        W47822  18.183  33.528  26.879 -0.0916  0.1561 -0.2164
 4910W        W47823  32.315   8.788  16.355 -0.2717  0.1693 -0.0164
 4911W        W47824  16.382  17.201   6.949 -0.3464  0.2077 -0.2521
 4912W        W47825  26.857   4.686   2.026 -0.3536  0.0311 -0.2368
 4913W        W47826  17.217  11.346  24.019  0.1622  0.0614 -0.2422
 4914W        W47827  33.365   9.618   3.201  0.2954  0.1361  0.0014
 4915W        W47828  20.515  12.996  25.365  0.0135  0.0667 -0.1862
 4916W        W47829  25.052   6.966   6.381 -0.0179 -0.0052  0.2901
 4917W        W47830   2.712  15.813  16.243  0.0135 -0.3604  0.2347
 4918W        W47831  22.283   6.126   5.538 -0.1152 -0.1820 -0.4049
 4919W        W47832  23.975  16.565  25.300  0.4429  0.0633 -0.2781
 4920W        W47833  26.090  17.593  22.405 -0.0349 -0.1377 -0.2268
 4921W        W47834  22.975  13.619   7.482 -0.0439 -0.2790  0.1995
 4922W        W47835  18.108  12.954  23.596 -0.0324 -0.1388  0.1323
 4923W        W47836   2.920  14.670  26.840  0.1423  0.1187  0.0686
 4924W        W47837  18.670  13.321  29.127 -0.2406 -0.2131 -0.2047
 4925W        W47838  20.484   6.222  22.635  0.2114  0.1033 -0.0372
 4926W        W47839  29.617  14.559  24.279 -0.0503 -0.1540  0.2303
 4927W        W47840  20.532  17.760   1.643 -0.3318 -0.2913  0.0993
 4928W        W47841  29.883  21.385   3.415  0.1860 -0.0138  0.2422
 4929W        W47842  22.316  12.651  28.558  0.0235 -0.0534 -0.0022
 4930W        W47843  29.829   6.611  25.057  0.0566  0.0440 -0.3667
 4931W        W47844  17.425   6.522  25.959 -0.2443  0.1233  0.2331
 4932W        W47845  18.121  12.898   4.602  0.2524  0.1243  0.2370
 4933W        W47846  20.085   7.745  23.767  0.0578  0.1612  0.1631
 4934W        W47847  32.025  16.711  27.459  0.3016 -0.1236  0.1809
 4935W        W47848  26.202   7.076  28.235  0.2366 -0.2300  0.1191
 4936W        W47849  22.114  20.870  21.372 -0.1518 -0.1299  0.0872
 4937W        W47850  15.858  16.513  23.230  0.3408 -0.0152  0.2454
 4938W        W47851  34.333  17.654   1.471  0.2337  0.0437  0.1962
 4939W        W47852  26.939  14.719   6.065  0.2027 -0.0311  0.3386
 4940W        W47853  17.688   3.314  17.280  0.0641  0.0950  0.0120
 4941W        W47854  24.990   8.157  26.470  0.0384  0.1893 -0.3579
 4942W        W47855   1.475   6.249  26.585 -0.2747 -0.1236 -0.1664
 4943W        W47856  26.093  12.840  23.965  0.4181  0.1864 -0.0339
 4944W        W47857  18.374  14.592  22.687 -0.0239 -0.1405 -0.1883
 4945W        W47858  29.448   1.175  27.019  0.0429 -0.0457  0.1922
 4946W        W47859  23.978  12.451  29.697  0.3364  0.1516  0.2151
 4947W        W47860  18.260   4.208  26.968  0.1442 -0.0711  0.1336
 4948W        W47861  23.596  12.590  26.216  0.0401  0.3340 -0.1646
 4949W        W47862  15.405  12.950   6.911  0.3934  0.5134 -0.0061
 4950W        W47863  16.772   0.821  19.534 -0.1071  0.1224  0.0618
 4951W        W47864  16.468   9.585  22.804  0.0592 -0.0640  0.0689
 4952W        W47865  20.197  20.714   1.087  0.0155  0.1396 -0.3457
 4953W        W47866  23.169  18.033  26.660  0.1873  0.2655  0.1646
 4954W        W47867  19.542  14.687  20.919 -0.0007  0.1016 -0.2101
 4955W        W47868  16.904   8.688  21.437  0.1060  0.2675  0.0472
 4956W        W47869  24.871  22.539  28.359  0.0209 -0.1756  0.2652
 4957W        W47870  24.060  33.824  19.891 -0.1916 -0.0865 -0.0767
 4958W        W47871  28.471  18.681   0.430 -0.2678 -0.1282  0.0864
 4959W        W47872  26.762   6.856  20.600  0.0093 -0.1186 -0.0266
 4960W        W47873  16.252  16.470  23.593 -0.1318  0.0543  0.2197
 4961W        W47874  20.323  13.675  24.119  0.2671  0.0884  0.1239
 4962W        W47875  29.016   8.956  21.355 -0.2764 -0.1877  0.0055
 4963W        W47876   8.981  17.949  14.655 -0.0046  0.1107  0.0048
 4964W        W47877  15.238  13.707  22.300  0.1985  0.1293 -0.2104
 4965W        W47878  18.218  13.963  25.249  0.1069  0.1977  0.0776
 4966W        W47879  19.863   5.034  13.990 -0.1476  0.1622  0.1620
 4967W        W47880  29.233   7.043   2.349 -0.1996 -0.0013  0.1965
 4968W        W47881  29.321  19.948  24.094  0.2062  0.1418 -0.1080
 4969W        W47882  27.826  21.859   2.846 -0.0744  0.0001 -0.2988
 4970W        W47883  16.241   9.961  28.842  0.1110 -0.1532  0.0895
 4971W        W47884  29.964  19.041   0.149 -0.0936 -0.0022  0.0380
 4972W        W47885  13.458  17.001  29.166 -0.2613  0.0181  0.2494
 4973W        W47886  27.422  13.713  26.710 -0.1269 -0.2337 -0.0184
 4974W        W47887  27.216   3.852  27.188  0.0466 -0.0876  0.1213
 4975W        W47888  28.387  15.178  29.256 -0.1019 -0.0162  0.2812
 4976W        W47889  25.708  23.115  24.830  0.0235  0.2123 -0.1153
 4977W        W47890  30.868  16.596  22.757  0.3163 -0.3612  0.0423
 4978W        W47891  23.643   9.232   4.033  0.0952 -0.0232  0.0709
 4979W        W47892  23.412  32.290  23.149 -0.0505  0.0897  0.1756
 4980W        W47893  23.779  16.878  27.533 -0.0614  0.0077 -0.3791
 4981W        W47894   6.295   6.552  27.539 -0.2683 -0.2282  0.0519
 4982W        W47895  21.985  15.542  17.360 -0.0156 -0.2101  0.2503
 4983W        W47896  23.303   8.416  20.277 -0.0760  0.0747 -0.2556
 4984W        W47897  23.294   8.894  19.453 -0.0442  0.1562 -0.2166
 4985W        W47898  14.251  29.574   1.344 -0.0124 -0.3240 -0.1620
 4986W        W47899  19.764  15.548   7.576  0.0959  0.1785  0.4001
 4987W        W47900  13.899   4.810  28.071 -0.1209 -0.2781  0.1141
 4988W        W47901  24.669  17.431   0.576  0.1463  0.1109 -0.2447
 4989W        W47902  27.832   2.139  23.305  0.0172 -0.1449 -0.1028
 4990W        W47903  27.693  19.409  24.839 -0.3909  0.1132  0.1205
 4991W        W47904  18.311  11.456  18.466 -0.7256 -0.2716  0.0751
 4992W        W47905  20.990  33.294  29.245  0.0435  0.1744 -0.0941
 4993W        W47906  15.007   3.195  27.187  0.1108 -0.0954  0.0984
 4994W        W47907  17.256   9.130   2.870  0.3254  0.0596  0.0699
 4995W        W47908  18.949   5.730  25.762 -0.1861 -0.1427 -0.0819
 4996W        W47909  29.972  20.140  25.316 -0.2506  0.1001  0.1042
 4997W        W47910  12.855  14.700  25.996  0.0753 -0.2587 -0.3133
 4998W        W47911  24.309   8.599   2.870  0.0463  0.0773  0.4426
 4999W        W47912  23.320  19.350  21.489 -0.2568  0.0590  0.3677
 5000W        W47913  25.523  17.291  29.266 -0.0921 -0.4130  0.1031
 5001W        W47914  19.542  12.801   5.135 -0.2402  0.2066 -0.0081
 5002W        W47915   2.385  19.042   1.455 -0.1664  0.1972 -0.1007
 5003W        W47916  21.630  16.967  26.761 -0.2737  0.1417  0.0206
 5004W        W47917  29.196   6.616  15.166  0.0771 -0.0930 -0.0476
 5005W        W47918  25.693  16.393  16.724  0.0112 -0.3233  0.0784
 5006W        W47919  16.673   4.164  26.005 -0.1588 -0.1852 -0.2225
 5007W        W47920  15.187  22.858   5.310 -0.1933 -0.1185 -0.0195
 5008W        W47921  27.296  14.667   4.062  0.1952 -0.1607  0.1581
 5009W        W47922  19.171  11.213  23.092 -0.1638 -0.1133  0.3747
 5010W        W47923  11.951  14.083   6.953 -0.2084  0.0300 -0.1482
 5011W        W47924  10.100   6.573   0.763  0.0014 -0.1186 -0.2922
 5012W        W47925  32.885  16.381  26.975  0.1149  0.0888 -0.0796
 5013W        W47926  34.413  17.742   0.123 -0.0189  0.1358 -0.1699
 5014W        W47927  28.026   8.025   4.611 -0.1954  0.1622  0.1215
 5015W        W47928  11.463   1.268  25.437  0.0125 -0.1331  0.1277
 5016W        W47929  23.563  17.646  27.850 -0.3247  0.0603  0.0700
 5017W        W47930  27.236  20.751  28.547 -0.2148  0.1973 -0.0695
 5018W        W47931  26.835  16.483  22.088  0.0070 -0.4626 -0.0539
 5019W        W47932   9.161  13.944  20.874 -0.0393  0.3863  0.2533
 5020W        W47933  25.738  13.006   2.404 -0.0859 -0.0475  0.1439
 5021W        W47934   2.196  13.816  28.653  0.0352 -0.0550  0.2580
 5022W        W47935  23.018  12.164   6.482 -0.2510 -0.0583 -0.1459
 5023W        W47936  23.520   6.102  26.808  0.1334 -0.3928  0.2733
 5024W        W47937  21.951   6.202  29.772 -0.2026  0.1382 -0.0448
 5025W        W47938  22.481  12.618  16.496 -0.3353  0.0461 -0.1031
 5026W        W47939  33.110  14.213   0.500  0.0460 -0.0328 -0.2171
 5027W        W47940  20.495  11.011   6.216  0.1579 -0.1096 -0.1627
 5028W        W47941  15.188  15.962  22.625  0.2949  0.0985  0.0106
 5029W        W47942  19.233   3.715   2.431 -0.1279  0.0462 -0.0689
 5030W        W47943  22.742   0.819   0.735 -0.1713  0.1418  0.0027
 5031W        W47944  19.646  12.986  28.871  0.0898 -0.1335 -0.0150
 5032W        W47945  29.727  19.165  28.031 -0.1645 -0.1344 -0.2681
 5033W        W47946  18.695  26.692  19.782 -0.0895  0.1156  0.1016
 5034W        W47947  26.853  11.117  23.580 -0.1012 -0.0284 -0.1717
 5035W        W47948  22.229  24.998   2.537 -0.1205  0.1279  0.5011
 5036W        W47949   6.796  21.174   2.536  0.1381 -0.2339  0.2870
 5037W        W47950  18.541  10.280  23.535  0.1231  0.3136  0.0223
 5038W        W47951  24.412  10.774   1.629  0.1006 -0.0439 -0.2213
 5039W        W47952  24.268  12.467   4.813  0.0562 -0.3118 -0.1508
 5040W        W47953  11.654   5.270  28.366  0.2032  0.0298 -0.1689
 5041W        W47954  18.450  11.547   1.551 -0.0015  0.0522 -0.0608
 5042W        W47955   2.615   6.852   0.051 -0.2396  0.1059  0.1697
 5043W        W47956  17.176  11.083  20.588  0.0865 -0.2306  0.1802
 5044W        W47957  30.343   1.347   8.022 -0.1905 -0.2753 -0.0859
 5045W        W47958   3.727  18.090  19.348 -0.1440  0.1869 -0.0337
 5046W        W47959  23.390   0.816  20.507 -0.0304  0.0589 -0.1305
 5047W        W47960  14.321  18.128   4.391  0.1087  0.1549 -0.0744
 5048W        W47961  18.763  14.279  25.422 -0.3094  0.0871  0.1946
 5049W        W47962  17.881  10.224   1.133 -0.4015  0.2318 -0.0185
 5050W        W47963  28.004  17.170  26.479 -0.4247  0.0770  0.2488
 5051W        W47964  12.293  13.099  25.216 -0.0465  0.0309 -0.1891
 5052W        W47965  20.721   7.261  24.393  0.0640  0.2980 -0.0112
 5053W        W47966  32.075  10.007  25.988  0.0244  0.1469 -0.1542
 5054W        W47967  11.237   5.991  29.728 -0.1633  0.0126 -0.3090
 5055W        W47968   0.349   5.458  11.311 -0.2051  0.3199  0.3400
 5056W        W47969  14.748  11.652  19.742 -0.1236  0.4452  0.0831
 5057W        W47970  10.682  15.555  29.473  0.0111  0.1086  0.0885
 5058W        W47971   5.544  19.150  29.003 -0.1048  0.1384 -0.0069
 5059W        W47972  12.826   9.046  17.279 -0.1756  0.2097 -0.3831
 5060W        W47973  16.439   5.790   3.665 -0.1260  0.0198  0.1021
 5061W        W47974  31.835   8.476  29.671 -0.1022 -0.2080 -0.0343
 5062W        W47975  24.147  10.117  19.999  0.3058 -0.0187 -0.1672
 5063W        W47976   2.982  15.162   7.447  0.1555 -0.1826 -0.2783
 5064W        W47977  14.059  22.928  24.358 -0.1891  0.1211 -0.2677
 5065W        W47978  17.491  28.033   4.614  0.0684  0.1089 -0.0454
 5066W        W47979  18.437  24.809  23.290  0.1294  0.0150 -0.0866
 5067W        W47980  14.940   8.262  28.052 -0.0485  0.2081 -0.0360
 5068W        W47981   9.176  19.531  25.952  0.0560  0.1270  0.2744
 5069W        W47982  16.725   5.214  26.759  0.0133  0.1395  0.0494
 5070W        W47983  12.090  12.079  25.430 -0.0910  0.0608 -0.1477
 5071W        W47984  19.572  16.780  21.018  0.1079 -0.0327  0.0082
 5072W        W47985  24.326  17.303  28.214  0.1702 -0.0223  0.3008
 5073W        W47986  18.323   7.011  26.185 -0.0454 -0.0856  0.1613
 5074W        W47987  15.331   9.704   3.315 -0.0059 -0.1884 -0.1386
 5075W        W47988  16.432   4.982   9.726  0.0397  0.3518 -0.1025
 5076W        W47989  17.763  15.405   3.453  0.0360  0.0158 -0.1194
 5077W        W47990  17.103  17.408  24.875  0.0714  0.0581 -0.2218
 5078W        W47991  24.132  12.795  29.295  0.0419 -0.0938  0.1446
 5079W        W47992  20.783  19.462  22.163 -0.0010  0.1326 -0.0445
 5080W        W47993  25.824  11.047  28.243  0.0570 -0.0666 -0.2127
 5081W        W47994  19.549  13.192  22.870 -0.0141  0.2161  0.1556
 5082W        W47995  29.129  15.877  27.612 -0.0173  0.2559 -0.5593
 5083W        W47996  20.416   9.781   1.483 -0.1021  0.1386  0.3255
 5084W        W47997  31.427  22.548  27.375  0.0131 -0.1653 -0.2189
 5085W        W47998  16.182  16.009   1.487  0.0939 -0.0822  0.1678
 5086W        W47999  28.968  24.235  24.359 -0.3608 -0.3132 -0.1087
 5087W        W48000  25.959   9.514   7.399  0.1176  0.2011  0.2507
 5088W        W48001  19.475   6.152  26.940 -0.1524 -0.0128 -0.0337
 5089W        W48002  27.942   5.537   5.288  0.1564 -0.0490  0.0139
 5090W        W48003  12.405  10.555   6.719 -0.2648 -0.1202  0.1122
 5091W        W48004   8.076   2.693  27.206  0.3283 -0.0828 -0.1864
 5092W        W48005  23.231   9.034   2.103 -0.4663  0.0547 -0.3139
 5093W        W48006  32.931  25.597  29.324 -0.1813  0.2035 -0.1111
 5094W        W48007  23.432  16.149   4.932  0.1324  0.3666 -0.2634
 5095W        W48008  23.124  26.029  29.519 -0.1517 -0.1984 -0.2718
 5096W        W48009  22.590  10.726   8.324 -0.0101 -0.0445 -0.0818
 5097W        W48010  25.984  10.768  27.252  0.1287 -0.1341  0.3250
 5098W        W48011  28.620  10.352   0.620 -0.1773  0.1321 -0.1027
 5099W        W48012  26.381  23.644  27.528  0.1721  0.2664  0.2927
 5100W        W48013  26.983  17.589  28.390 -0.1829  0.0030 -0.1650
 5101W        W48014  21.265  14.796   7.043  0.0494  0.2114 -0.0218
 5102W        W48015  20.185  26.646  19.234  0.3804 -0.0089  0.0904
 5103W        W48016  28.422   9.048   5.648  0.0872  0.0204  0.0448
 5104W        W48017  18.216  17.590  26.284  0.0032 -0.2424 -0.1298
 5105W        W48018  16.322  11.881   7.211  0.1046  0.0318  0.0607
 5106W        W48019  23.682   6.990  16.629 -0.0104  0.2182  0.2887
 5107W        W48020  18.630  11.186  17.582  0.0260  0.1121 -0.0315
 5108W        W48021  23.326  31.844   5.002  0.0735 -0.1527 -0.0718
 5109W        W48022  15.208  14.716   6.229 -0.0900  0.0801  0.0578
 5110W        W48023  23.856  17.691  26.962  0.1714 -0.2634 -0.3084
 5111W        W48024  13.767  13.593  16.885 -0.1990 -0.2047 -0.1181
 5112W        W48025  23.416  11.597  23.218 -0.0517 -0.0399 -0.0932
 5113W        W48026  22.499  14.660  24.807 -0.2189  0.1119  0.0611
 5114W        W48027  26.564  17.721  22.329  0.3016 -0.1384  0.0253
 5115W        W48028  22.222  18.356   0.608 -0.1895 -0.0707  0.0538
 5116W        W48029  22.095  13.555  20.261  0.1541 -0.2134  0.0804
 5117W        W48030  14.937   9.983  19.047 -0.1357  0.0765 -0.0725
 5118W        W48031  32.878  10.828  18.228 -0.0888 -0.0301  0.0565
 5119W        W48032  29.097  18.995  13.297  0.2919  0.0958 -0.0280
 5120W        W48033  23.129  20.906  13.327 -0.0421  0.0155  0.0862
 5121W        W48034  22.637  29.727  14.171 -0.0532 -0.2623 -0.2715
 5122W        W48035  20.474   8.761  14.821 -0.0709 -0.1824  0.1793
 5123W        W48036  33.288  16.285  17.723 -0.0943  0.0391 -0.0106
 5124W        W48037  16.648   9.607  16.247  0.1460 -0.3602  0.1186
 5125W        W48038  27.528  24.245  14.088  0.0451  0.1215  0.0491
 5126W        W48039   4.226  20.182  17.881  0.2782  0.3441 -0.2988
 5127W        W48040   9.507  16.752  14.173  0.0790 -0.0072  0.5237
 5128W        W48041  16.037  11.698  15.175 -0.2157 -0.0763  0.1007
 5129W        W48042  26.102  16.328  17.472 -0.1512 -0.2033 -0.0348
 5130W        W48043  18.823   5.057  14.917  0.0334 -0.2166  0.1852
 5131W        W48044  29.236  15.862  15.321  0.1237 -0.1421 -0.3959
 5132W        W48045  28.524  17.754  17.152  0.1134 -0.2537  0.0165
 5133W        W48046  21.440  15.070  14.624  0.0965 -0.3630 -0.0167
 5134W        W48047  29.443   9.239  23.527 -0.2715 -0.1250 -0.0097
 5135W        W48048  18.641   3.036  21.644  0.0021  0.1304  0.0729
 5136W        W48049  25.599  11.037  21.708  0.0621  0.0160  0.1713
 5137W        W48050  19.214  11.856  16.263 -0.1782 -0.3291  0.4482
 5138W        W48051  20.643  25.901  16.931 -0.1014 -0.2006  0.2408
 5139W        W48052  23.284  11.520  26.727  0.2018 -0.0332  0.0728
 5140W        W48053  26.177  26.392  15.139  0.1143 -0.2645 -0.1675
 5141W        W48054  26.859  14.030  13.785  0.1791  0.0753  0.2520
 5142W        W48055  31.005  23.151  16.136  0.2233  0.2450  0.0536
 5143W        W48056  20.348  11.257  18.597  0.0629 -0.0919  0.0155
 5144W        W48057   0.340  16.289  15.899 -0.2179  0.0666 -0.1794
 5145W        W48058  24.592  12.822  18.972 -0.4180  0.1888 -0.2998
 5146W        W48059  21.527  12.918  15.045 -0.2490 -0.0776 -0.1077
 5147W        W48060  23.481   5.951  17.431  0.2184 -0.0321 -0.0244
 5148W        W48061  31.292  13.763  16.428  0.0569  0.2310  0.0771
 5149W        W48062  14.694  26.422  24.864  0.0536 -0.2574  0.3720
 5150W        W48063  21.858  21.377  19.371 -0.1120 -0.1693  0.0548
 5151W        W48064  23.648  19.649  14.851 -0.0580 -0.0727  0.2474
 5152W        W48065  26.364   7.567  15.211 -0.1263  0.0644 -0.2943
 5153W        W48066  21.285  30.298  17.864 -0.3022  0.1009  0.0782
 5154W        W48067  21.540  22.163  18.423  0.1255 -0.0724 -0.0852
 5155W        W48068  25.732  23.757  18.290 -0.1777  0.1435  0.0096
 5156W        W48069  22.993   8.904  14.647  0.3259  0.2394 -0.1527
 5157W        W48070  20.241  21.599  11.910  0.2774 -0.1248 -0.1117
 5158W        W48071  22.714  18.053  24.500  0.0498 -0.0907  0.1623
 5159W        W48072  33.866  14.979  14.873 -0.2661 -0.1636 -0.1969
 5160W        W48073  22.208  13.247  13.159  0.2407 -0.0093 -0.3389
 5161W        W48074  25.901  22.276  24.063 -0.1611  0.0249 -0.1629
 5162W        W48075  26.654  20.510  22.302 -0.4149  0.0239 -0.3804
 5163W        W48076  26.465  12.062  21.388  0.0003 -0.0777 -0.0103
 5164W        W48077  21.378  27.694  18.780 -0.2449 -0.1103 -0.1977
 5165W        W48078  20.573  33.964  27.910 -0.1926 -0.0607  0.0873
 5166W        W48079  26.289  19.615  18.961 -0.0160 -0.1144  0.1228
 5167W        W48080  13.371  22.846  17.807 -0.1707 -0.0382  0.0897
 5168W        W48081  27.256  13.213  13.224 -0.0814 -0.0344  0.0350
 5169W        W48082  26.101  12.240  15.964 -0.0717  0.0561 -0.0841
 5170W        W48083  27.168  21.017  12.969 -0.0979  0.1147 -0.0161
 5171W        W48084  31.569  15.680  21.065 -0.2665  0.0428  0.1902
 5172W        W48085  21.942  30.897  15.763  0.0003 -0.1617  0.0707
 5173W        W48086  22.918  14.296  17.170 -0.2587  0.1214  0.0825
 5174W        W48087  29.834  18.209  16.448  0.1293 -0.1503  0.0095
 5175W        W48088  29.860  14.203  17.864  0.1328  0.1748 -0.1619
 5176W        W48089  22.106   8.592  21.214 -0.1811 -0.0541 -0.0559
 5177W        W48090  24.797   6.524  18.526  0.0670 -0.0451  0.0736
 5178W        W48091  16.043   9.768  19.749 -0.0749  0.0700  0.0999
 5179W        W48092  32.575  21.674  23.783 -0.0387 -0.2822  0.4449
 5180W        W48093  19.326  12.121  15.692  0.1435  0.0483  0.2075
 5181W        W48094   1.120  24.605   6.633  0.4311  0.1108  0.0219
 5182W        W48095  23.881  15.739  22.085 -0.1029  0.0943 -0.2763
 5183W        W48096  26.032  12.102  22.114  0.2851 -0.0768 -0.0978
 5184W        W48097  26.086  16.358  15.835  0.4007  0.1539  0.0852
 5185W        W48098  25.599   8.210  15.269 -0.1679  0.6603  0.0177
 5186W        W48099  23.913  12.409  15.221  0.1194 -0.1116  0.1453
 5187W        W48100   6.787  17.916  26.378  0.2519  0.3343  0.0657
 5188W        W48101  18.052  12.005  12.808 -0.0208  0.2138 -0.1836
 5189W        W48102  31.284  23.972  19.255 -0.1384  0.2940 -0.0607
 5190W        W48103  21.590  14.334  14.218 -0.0302 -0.0151 -0.0125
 5191W        W48104  26.740  11.425  16.101 -0.0815 -0.1326 -0.1131
 5192W        W48105  24.573  25.705  12.528 -0.0448 -0.1492 -0.3238
 5193W        W48106  21.210  19.679  27.701 -0.6480  0.1041 -0.1186
 5194W        W48107  19.822  12.483  25.602  0.0271 -0.2776  0.1532
 5195W        W48108  19.312  13.585  24.524  0.0485  0.2228  0.1226
 5196W        W48109  21.659  14.851  19.990 -0.0356 -0.0748 -0.1605
 5197W        W48110  29.182  12.744  19.520 -0.2366  0.2084 -0.1699
 5198W        W48111  24.068  20.630  21.214  0.2738  0.1083 -0.2826
 5199W        W48112  23.838   9.022  15.563  0.0168  0.2127 -0.0863
 5200W        W48113   8.404  19.080  15.469 -0.2381 -0.2355  0.0124
 5201W        W48114  19.718  13.858  21.416 -0.1203  0.2237 -0.1108
 5202W        W48115  30.174   4.867  20.774 -0.0822 -0.3036 -0.0170
 5203W        W48116  21.220  14.207  16.765 -0.2825  0.1737 -0.1979
 5204W        W48117  27.521  20.986  15.759  0.2513  0.1313  0.0750
 5205W        W48118  24.069   5.445  21.925  0.2568  0.0580  0.1630
 5206W        W48119  28.983  11.650  15.027 -0.2484 -0.1626  0.0578
 5207W        W48120  30.278  26.825  23.816  0.0594 -0.0091  0.0096
 5208W        W48121  25.500  10.152  15.336  0.1310 -0.0867 -0.1706
 5209W        W48122  12.489  11.590  14.588 -0.2128 -0.1005  0.3530
 5210W        W48123  30.954  11.553  19.070 -0.0604 -0.0257  0.0613
 5211W        W48124  32.101  21.568  19.740  0.0207  0.2683 -0.2458
 5212W        W48125  18.050  18.493  13.629 -0.1637  0.0719  0.0970
 5213W        W48126  26.176  17.342  21.121  0.1065  0.2007 -0.2960
 5214W        W48127  19.752  17.692  12.911  0.3148  0.0759  0.0965
 5215W        W48128  15.558   2.597  19.450 -0.0300  0.0460 -0.3516
 5216W        W48129  24.166   7.054  26.970 -0.1015  0.3502  0.1063
 5217W        W48130  34.392  21.181  19.836 -0.0182 -0.0462  0.2278
 5218W        W48131  23.670   7.165  19.437 -0.1638  0.1259  0.1037
 5219W        W48132   9.747   9.362  15.437 -0.0464 -0.1036  0.2092
 5220W        W48133  29.579  23.350  16.219 -0.2066 -0.1168  0.0610
 5221W        W48134  23.658   8.300  25.158 -0.1532 -0.0765 -0.1636
 5222W        W48135  29.960  15.600  14.792 -0.0479  0.0508  0.2138
 5223W        W48136  24.696  23.865  20.982  0.0208  0.0130  0.2330
 5224W        W48137   7.368  20.824  16.357  0.0031  0.0943 -0.0859
 5225W        W48138  19.311  22.286  15.518 -0.1822 -0.0897  0.0647
 5226W        W48139  23.442   8.353   1.025 -0.0998  0.2581 -0.2181
 5227W        W48140  31.253   9.831  17.048 -0.3318  0.1137 -0.0474
 5228W        W48141  23.129   6.392  16.379  0.1412  0.0605 -0.1827
 5229W        W48142  22.919   9.024  17.624 -0.1191  0.0587  0.0677
 5230W        W48143  24.241  22.058  16.477  0.0616 -0.1051  0.2531
 5231W        W48144  25.956  17.385  19.104  0.0067 -0.1754 -0.0711
 5232W        W48145  25.993  19.226  15.850 -0.0569 -0.1907 -0.3090
 5233W        W48146  29.380  20.240  14.785  0.1459 -0.3710  0.1207
 5234W        W48147  20.795  16.802  15.610  0.1206 -0.0918  0.3230
 5235W        W48148  19.299  13.214  16.479  0.0461  0.1983  0.2843
 5236W        W48149  32.161  18.102  15.635  0.0426  0.2304  0.1913
 5237W        W48150  16.825   9.692  17.003  0.0575 -0.3505  0.2214
 5238W        W48151  12.931  22.637  22.667  0.1557 -0.1492 -0.3788
 5239W        W48152  27.915  22.455  14.316  0.2448  0.0749 -0.1611
 5240W        W48153  24.552  15.022  18.626  0.2675 -0.1152  0.2175
 5241W        W48154  19.506  12.766  16.152 -0.2104 -0.1051 -0.1820
 5242W        W48155   3.638   5.724  18.899  0.0666 -0.2779 -0.0779
 5243W        W48156  21.194  14.040  14.447 -0.0456  0.3409  0.1920
 5244W        W48157   2.447  14.869  29.161  0.0849 -0.1401 -0.0696
 5245W        W48158  23.763  18.289  14.713  0.0879  0.0076  0.1279
 5246W        W48159  30.130  15.548  14.055 -0.0899 -0.0508  0.0608
 5247W        W48160  24.366  22.994  14.650 -0.1176  0.4524  0.1853
 5248W        W48161  26.766  12.658  15.947 -0.0663 -0.2499  0.0462
 5249W        W48162  21.577  23.258  14.296 -0.1990 -0.0128  0.1625
 5250W        W48163  33.760  19.940  16.164 -0.2428  0.1513  0.1344
 5251W        W48164  21.885  10.330  14.604  0.0128 -0.0771 -0.2103
 5252W        W48165  29.466  25.915  22.430 -0.0047 -0.0825  0.1315
 5253W        W48166  21.829  18.457  16.524 -0.0195 -0.4937  0.4170
 5254W        W48167  16.278  23.034  20.392 -0.0428  0.0072 -0.4084
 5255W        W48168  21.007  17.195  16.450  0.0220  0.0208  0.0855
 5256W        W48169   3.320   6.006  19.414  0.2087 -0.0004 -0.0573
 5257W        W48170  23.002  20.717  17.162 -0.3000 -0.2941 -0.2538
 5258W        W48171  21.554  12.745  21.117  0.2588  0.1398  0.2794
 5259W        W48172   5.467   7.029  17.699  0.1226 -0.3127  0.3106
 5260W        W48173  16.319   7.203  20.437  0.0349  0.1635  0.2281
 5261W        W48174  25.424  13.545  14.325  0.2781 -0.4646  0.3811
 5262W        W48175  20.280   8.866  18.096 -0.1525  0.0662  0.0374
 5263W        W48176  26.004  20.073  20.906 -0.0065  0.1060  0.2688
 5264W        W48177  18.985   9.383  15.092 -0.2273  0.0069  0.1249
 5265W        W48178   0.828  21.852  14.926 -0.0722 -0.3119  0.0721
 5266W        W48179  16.136   5.774  18.616  0.0613 -0.3895  0.0230
 5267W        W48180  19.597  27.469  21.349 -0.0408  0.1072 -0.1368
 5268W        W48181  25.276  10.991  14.152 -0.0130 -0.0484 -0.0917
 5269W        W48182  20.373  24.314  16.844  0.1001 -0.2850 -0.2135
 5270W        W48183  21.255  20.780  17.250  0.0639  0.0379 -0.0082
 5271W        W48184  25.871   7.013  17.735  0.2579 -0.1195  0.1059
 5272W        W48185  26.642  16.926  20.312 -0.3242  0.1173  0.2099
 5273W        W48186  10.816  12.831  16.583 -0.0944  0.0997  0.3678
 5274W        W48187  17.107  16.368  13.321  0.0117  0.0250  0.1038
 5275W        W48188  26.376  18.114   6.304 -0.0372 -0.2801  0.2976
 5276W        W48189   7.244  10.758  16.728  0.0083  0.0623 -0.0510
 5277W        W48190  18.777  10.084   1.415  0.0857  0.0559 -0.1101
 5278W        W48191   9.927  14.847  15.845 -0.2524  0.2043  0.2112
 5279W        W48192  21.950  28.570  14.729  0.0530  0.2587 -0.0218
 5280W        W48193  27.927  10.547  23.924 -0.1284 -0.3107 -0.0939
 5281W        W48194  22.965  22.078  17.313  0.1508  0.0585  0.2302
 5282W        W48195  24.971  19.751  22.289 -0.0605  0.0607  0.4662
 5283W        W48196  18.066  13.365  15.351  0.0674  0.0219 -0.0561
 5284W        W48197  23.857  15.396  15.011  0.2342 -0.2444 -0.0704
 5285W        W48198  19.729  12.448  19.305  0.0192 -0.2017 -0.1150
 5286W        W48199  23.298  21.432  20.529  0.0153  0.4543 -0.2402
 5287W        W48200  28.232  16.421  20.499 -0.1608  0.0651 -0.2304
 5288W        W48201  33.344  31.195  21.629  0.1371  0.3788  0.2175
 5289W        W48202  25.049  14.200  15.547 -0.1239 -0.0454  0.0567
 5290W        W48203   0.278  21.966  18.121 -0.0430  0.0143  0.1352
 5291W        W48204  29.840  22.477  17.370  0.0325 -0.2721 -0.0784
 5292W        W48205  23.546  16.445  15.922  0.2183  0.1752 -0.0516
 5293W        W48206  21.451  34.169  19.517  0.1641 -0.0643 -0.0823
 5294W        W48207  19.980  16.644  14.336  0.1073  0.1794  0.1766
 5295W        W48208  25.299  22.788  22.533 -0.0120 -0.1984 -0.0987
 5296W        W48209  22.232   5.927  27.510  0.1108  0.0146 -0.0268
 5297W        W48210  11.755  17.022  15.720 -0.2446 -0.0541  0.2532
 5298W        W48211  21.763  27.958  15.511 -0.1185  0.0455 -0.0049
 5299W        W48212  17.791  13.207  15.870 -0.2304  0.1373 -0.0319
 5300W        W48213  31.915  18.681  19.460 -0.0157  0.0069  0.1993
 5301W        W48214  26.013  23.058  18.992  0.0659  0.2169 -0.2544
 5302W        W48215  18.814  15.867  11.576 -0.0551 -0.2330  0.0135
 5303W        W48216  29.207  18.419  16.267 -0.1668 -0.0522 -0.0355
 5304W        W48217  24.901  16.542  16.308  0.0553  0.0251 -0.2858
 5305W        W48218  28.540  16.293  14.939  0.2303  0.2152 -0.2203
 5306W        W48219  25.033  18.580  16.902 -0.0516 -0.0951 -0.3210
 5307W        W48220  30.666  10.996  26.106 -0.3178  0.1633 -0.0234
 5308W        W48221  11.558  13.385  14.612  0.1954 -0.0121 -0.0284
 5309W        W48222  27.010  11.013  25.847  0.0114  0.1652  0.2492
 5310W        W48223  27.891  13.002  19.120  0.0675 -0.5007  0.0860
 5311W        W48224  33.858  16.290  20.784 -0.3068  0.2512  0.2322
 5312W        W48225  26.590  17.878  14.441 -0.0557  0.0097  0.0869
 5313W        W48226   7.071  18.632  28.521  0.2733 -0.0463 -0.4404
 5314W        W48227  10.370  24.500  16.273 -0.0986  0.4576  0.1096
 5315W        W48228  17.618  16.561  13.252 -0.0453 -0.0921 -0.0579
 5316W        W48229  24.447  18.473  13.641 -0.0225  0.1296  0.0611
 5317W        W48230   5.953  13.583  22.888 -0.0642 -0.0971  0.1771
 5318W        W48231  16.950  16.833  24.551  0.0241  0.0130 -0.2489
 5319W        W48232  22.952  19.022  14.309 -0.2217 -0.1072 -0.2783
 5320W        W48233  22.646  14.349  15.217 -0.0174  0.2253 -0.1616
 5321W        W48234  30.036  24.584  13.312  0.1104  0.3364 -0.2519
 5322W        W48235  26.227  18.168  16.604  0.2388 -0.1233 -0.6708
 5323W        W48236   0.119  16.979  21.769  0.1217  0.2044 -0.0545
 5324W        W48237  24.053  18.842  20.581  0.1425  0.1849 -0.2378
 5325W        W48238  20.692  13.451  17.753  0.2697  0.0268  0.0818
 5326W        W48239  25.641  13.641  15.788 -0.2002  0.1495 -0.0654
 5327W        W48240  27.080  18.701  18.338  0.0406 -0.1838 -0.1727
 5328W        W48241  30.234  25.932  28.521 -0.0450  0.2158  0.2085
 5329W        W48242  32.327  18.174  25.390 -0.1174  0.2350  0.2515
 5330W        W48243  25.620  26.045  16.952  0.0151 -0.1975 -0.1167
 5331W        W48244  12.733  13.348  17.821 -0.3448  0.1522  0.1478
 5332W        W48245  27.177  27.283  18.158  0.2748  0.1652 -0.1958
 5333W        W48246  21.981  19.673  12.691 -0.0199  0.0051  0.0467
 5334W        W48247  13.652  20.674  15.222  0.1262 -0.0617  0.1937
 5335W        W48248   5.618  14.398  18.196  0.4755 -0.0587 -0.2194
 5336W        W48249  18.066  18.116  12.842  0.3007 -0.0614  0.1202
 5337W        W48250  22.038  11.305  12.670 -0.0206 -0.1870  0.1455
 5338W        W48251  23.530  10.696  23.573 -0.2967 -0.1455 -0.0798
 5339W        W48252  31.752  11.702  17.989  0.2483  0.2076  0.4194
 5340W        W48253  29.054  30.700  15.112 -0.2022  0.1618 -0.1373
 5341W        W48254  26.251  13.702  19.535 -0.1662  0.1326 -0.2192
 5342W        W48255  25.576  15.484  13.638  0.0631 -0.0041  0.2227
 5343W        W48256  26.936   7.783  19.103 -0.3168 -0.0268  0.2011
 5344W        W48257  28.737   9.820  16.052 -0.1422  0.0072 -0.1195
 5345W        W48258  21.165  18.661  14.727 -0.2031 -0.3685  0.2791
 5346W        W48259  24.374  14.197  13.357 -0.1017 -0.2957 -0.1433
 5347W        W48260  25.622  12.926  20.774 -0.1102 -0.2627  0.0819
 5348W        W48261  27.516  21.967  17.322 -0.1178 -0.2179  0.0977
 5349W        W48262  23.261  10.976  16.382 -0.1610  0.0872  0.4006
 5350W        W48263  25.218  18.184  15.223 -0.0122  0.1337 -0.2064
 5351W        W48264  22.181  10.189  19.093 -0.1646  0.1453  0.1145
 5352W        W48265  27.920  21.045  19.682  0.0369 -0.2007  0.1229
 5353W        W48266  28.188  13.275  16.319 -0.0492 -0.2512 -0.4747
 5354W        W48267  28.832  20.675  15.427 -0.2401 -0.0769  0.1869
 5355W        W48268  21.497  12.947  20.139 -0.1288 -0.1251  0.0669
 5356W        W48269  15.939  12.314  16.030  0.1474  0.0424 -0.0846
 5357W        W48270  27.212  21.098  16.887 -0.0334  0.1367 -0.0566
 5358W        W48271  22.640  13.387  14.984 -0.1694  0.1410 -0.0916
 5359W        W48272  20.418   9.094  18.971  0.0088  0.1414 -0.1460
 5360W        W48273  31.068  20.806  15.705 -0.1741 -0.0222 -0.0277
 5361W        W48274  20.389  11.291  15.729 -0.0078  0.0754  0.0240
 5362W        W48275  18.689  18.388  14.489 -0.1795  0.1783 -0.1079
 5363W        W48276  22.179  24.870  16.905  0.3493 -0.0821 -0.0557
 5364W        W48277  16.636  21.564  15.149  0.0278  0.0250  0.0528
 5365W        W48278  23.986  25.441  14.727  0.2616 -0.3216  0.1114
 5366W        W48279  25.495  23.053  25.324 -0.0206  0.0306  0.0338
 5367W        W48280  17.459  22.478  26.182  0.0003 -0.0600  0.1147
 5368W        W48281  19.628  10.609  22.498 -0.1840  0.0571 -0.1290
 5369W        W48282   2.210  17.182  17.942 -0.0001 -0.2604  0.2096
 5370W        W48283  26.686  23.107  17.486  0.1772 -0.1481 -0.1049
 5371W        W48284  28.681  20.720  18.090 -0.1450 -0.0814  0.3550
 5372W        W48285  11.833  14.845  15.024 -0.1086 -0.2380  0.0625
 5373W        W48286  30.993  20.066  15.289  0.3463  0.2694 -0.3036
 5374W        W48287  11.777  10.867  23.909 -0.1279  0.0086  0.2197
 5375W        W48288  28.001  22.673  25.467  0.1131 -0.1558 -0.1097
 5376W        W48289  16.610  10.440  12.947 -0.0448 -0.0455  0.0355
 5377W        W48290  13.912  12.253  13.535 -0.0110  0.0382 -0.2661
 5378W        W48291  17.269  20.839  14.371  0.1072  0.0698  0.1340
 5379W        W48292  28.014  18.552  18.974  0.0590 -0.0788 -0.0850
 5380W        W48293  27.520  27.671  18.231  0.2043 -0.0375  0.0040
 5381W        W48294  17.420  10.475  18.873 -0.0376  0.1186  0.0566
 5382W        W48295  21.951  27.267  13.566 -0.0052  0.0311 -0.1857
 5383W        W48296  31.549  16.954  18.980 -0.1890 -0.3619  0.1235
 5384W        W48297  16.430   9.735  13.330  0.1436 -0.2809  0.1418
 5385W        W48298  21.305  21.806  14.626 -0.1891 -0.2307  0.0297
 5386W        W48299  25.841  23.927  20.314  0.4053  0.2651 -0.1945
 5387W        W48300   9.067  12.663  15.806 -0.3388 -0.0357 -0.0047
 5388W        W48301  28.858  26.419  17.635  0.0345 -0.0514 -0.1155
 5389W        W48302  26.093  17.771  23.789 -0.0977  0.2868  0.1336
 5390W        W48303  18.790  10.108  24.439  0.1716 -0.0650  0.0744
 5391W        W48304  11.416  17.724  13.352  0.2361 -0.5049 -0.1743
 5392W        W48305  28.283  15.275  17.846  0.0326 -0.0014 -0.1180
 5393W        W48306  21.710  19.340  14.415 -0.1359  0.0778  0.0612
 5394W        W48307   9.911  25.886  16.848  0.0811 -0.2224  0.0953
 5395W        W48308  23.054   9.599  13.644  0.3627  0.1121 -0.3078
 5396W        W48309  22.757  11.484  22.712 -0.1883 -0.1948  0.0654
 5397W        W48310  23.955  20.427  13.594 -0.0323  0.0736  0.1539
 5398W        W48311  27.624   4.167  22.511  0.0551  0.0933  0.2648
 5399W        W48312  34.419  21.252  17.611  0.1208 -0.0269  0.3773
 5400W        W48313  21.366  19.638  20.001  0.0242 -0.1347 -0.1192
 5401W        W48314  24.820  15.086  20.318 -0.1496  0.1164  0.1776
 5402W        W48315  27.471  22.254  14.272  0.1098 -0.2052  0.0805
 5403W        W48316  25.639  10.638  19.362 -0.0852  0.0399  0.1716
 5404W        W48317  21.486  24.811  13.458  0.1780  0.0470  0.0841
 5405W        W48318  17.042  10.492  13.209  0.1523 -0.1799 -0.1220
 5406W        W48319  16.421   8.430  21.813  0.5094  0.2875  0.0263
 5407W        W48320  16.237  18.471  12.877  0.1510 -0.0006 -0.1997
 5408W        W48321  13.379  19.228  13.796 -0.1768  0.1184 -0.1608
 5409W        W48322  32.665  14.431  20.635 -0.3084  0.1697  0.1614
 5410W        W48323   2.189  16.178  17.386 -0.2183 -0.1926  0.1773
 5411W        W48324  20.904  15.585  14.086  0.1300 -0.3103 -0.2260
 5412W        W48325  13.906  11.142  14.839 -0.3421  0.2691  0.3410
 5413W        W48326  23.723  21.043  24.909 -0.2314 -0.6027  0.0802
 5414W        W48327  19.448  10.939  15.270 -0.1994 -0.2277  0.2202
 5415W        W48328  20.542  13.037  18.692  0.1967 -0.1779  0.0379
 5416W        W48329  23.742  19.218  16.331  0.0726  0.2168  0.1744
 5417W        W48330  24.658  23.942  13.935 -0.0513  0.0864 -0.3025
 5418W        W48331  23.527  14.664  19.559 -0.1188  0.1461 -0.2649
 5419W        W48332  10.051   9.562  16.413  0.0183  0.2235  0.1426
 5420W        W48333  24.394  19.826  13.120 -0.1647 -0.0045  0.0646
 5421W        W48334  21.076  23.942  13.200 -0.0077  0.1473  0.2384
 5422W        W48335  26.204  17.757  27.481  0.3132 -0.2753 -0.0755
 5423W        W48336  25.659  16.221  16.169 -0.2178  0.0038 -0.4318
 5424W        W48337  25.998  25.182  17.229  0.0216  0.2110  0.1202
 5425W        W48338  14.872   7.918  19.506  0.2954 -0.2566 -0.0512
 5426W        W48339  19.159  13.863  12.885  0.1659  0.0865 -0.0124
 5427W        W48340  24.544  11.991  16.117 -0.1460 -0.0322 -0.5096
 5428W        W48341  15.085   3.687  16.302  0.0512 -0.1589  0.2585
 5429W        W48342  23.255  12.718  16.942  0.2287 -0.1743  0.0350
 5430W        W48343  24.846  19.368  14.025  0.2157 -0.0450 -0.0397
 5431W        W48344   1.388  20.053  20.968 -0.3904 -0.0649 -0.1879
 5432W        W48345  30.824  23.199  23.843  0.0081  0.3465  0.0744
 5433W        W48346  28.165   7.443  17.420 -0.1187  0.2100 -0.3705
 5434W        W48347  21.891   7.435  17.667 -0.2674 -0.2810  0.2019
 5435W        W48348  21.061  14.508  22.536 -0.0800 -0.0683 -0.0274
 5436W        W48349  21.103  20.356  14.600 -0.2563  0.0973  0.2235
 5437W        W48350  28.141  12.052  15.677  0.1025  0.1283 -0.0493
 5438W        W48351  34.416  18.825  13.637 -0.1516 -0.0959  0.0918
 5439W        W48352  21.247  18.717  12.391  0.0531  0.3341 -0.0682
 5440W        W48353  25.789  22.566  15.486  0.2358 -0.0436  0.0077
 5441W        W48354  26.310   0.312  23.786  0.0029 -0.1115  0.3164
 5442W        W48355  21.618   8.906  18.229  0.0082 -0.0964  0.0078
 5443W        W48356  31.703   8.179  16.891  0.0286  0.0239  0.0624
 5444W        W48357  25.080  25.679  14.224  0.0574 -0.0334 -0.1076
 5445W        W48358  26.943   7.423  16.222 -0.0006 -0.0933  0.0261
 5446W        W48359  19.037  11.399  17.096 -0.3956  0.2435  0.0449
 5447W        W48360  30.065  17.360  26.686 -0.0529 -0.0750  0.0187
 5448W        W48361  21.753   9.625  19.316  0.3885  0.2299 -0.2619
 5449W        W48362  27.542  10.691  22.879  0.1523 -0.3490 -0.0703
 5450W        W48363  25.677  16.062   0.169  0.0755  0.3908 -0.0873
 5451W        W48364  28.198  28.747  15.942 -0.0029  0.0616  0.1726
 5452W        W48365  16.978  32.036  17.763 -0.1697 -0.1470  0.1361
 5453W        W48366  28.351  17.652  16.429 -0.1105 -0.0916  0.0645
 5454W        W48367  21.165  12.986  29.689 -0.1611 -0.1245  0.2759
 5455W        W48368  23.368   9.420  14.012 -0.0705  0.0488 -0.0570
 5456W        W48369  19.995  26.429  18.041 -0.0733 -0.0562 -0.1130
 5457W        W48370  15.729  16.517  14.866 -0.4171 -0.1467 -0.2125
 5458W        W48371  28.026  25.816  13.838 -0.2209  0.0934  0.1534
 5459W        W48372  25.504   9.179  20.110  0.1440  0.1545 -0.3796
 5460W        W48373  27.072  16.984  22.896  0.1064  0.1337 -0.0454
 5461W        W48374  26.358  22.212  27.070 -0.3306 -0.1953  0.3399
 5462W        W48375  27.549  13.900  14.769 -0.0845 -0.1048 -0.0288
 5463W        W48376  17.292  13.417  11.859 -0.1576  0.1408  0.0441
 5464W        W48377  17.763  11.189  15.338 -0.1278 -0.1285 -0.1652
 5465W        W48378  14.513  27.668  20.998  0.2648  0.0926  0.1763
 5466W        W48379  27.536  10.315  16.165 -0.0511  0.1202  0.0565
 5467W        W48380  22.347  29.980  16.133 -0.0794 -0.1336 -0.0002
 5468W        W48381  21.360  15.742  13.902 -0.1464 -0.3208  0.1702
 5469W        W48382  26.697  16.134  14.308 -0.0299 -0.2185  0.0173
 5470W        W48383   0.165  23.161  17.846 -0.2990 -0.1586 -0.0955
 5471W        W48384  33.345  17.628  13.163  0.1721 -0.0222  0.0756
 5472W        W48385  27.086  16.024  18.901 -0.2814 -0.0797  0.2188
 5473W        W48386   2.831  22.913  23.697  0.1771  0.1108 -0.1354
 5474W        W48387  20.312  11.058  19.489  0.1377 -0.0411  0.0400
 5475W        W48388  23.318  21.878  17.643  0.3175  0.2119  0.0732
 5476W        W48389   6.742  19.984  14.076 -0.0346 -0.1428 -0.1099
 5477W        W48390  30.662  26.965  22.144  0.0414 -0.0103  0.2252
 5478W        W48391   3.898  12.610  19.316  0.0104  0.0576 -0.0837
 5479W        W48392  25.177  12.450  18.979  0.1797  0.1213 -0.1000
 5480W        W48393  16.678   8.808  17.965 -0.1401  0.0514  0.0029
 5481W        W48394  32.899  23.036  16.100 -0.0230 -0.1948  0.3624
 5482W        W48395  28.554  25.047  15.650  0.0740 -0.2619 -0.1077
 5483W        W48396  22.601  17.433  14.547  0.1264 -0.0151  0.3864
 5484W        W48397  15.018  11.524  24.323  0.3586  0.3322 -0.0118
 5485W        W48398  18.527  11.313  16.086  0.0813 -0.0023 -0.0278
 5486W        W48399  31.104  20.819  17.315  0.1088 -0.1405 -0.0128
 5487W        W48400  20.489  23.190  17.966 -0.1552 -0.1623 -0.1336
 5488W        W48401  33.669  21.389  20.153  0.1261 -0.1534 -0.1009
 5489W        W48402  27.025  14.633  25.935 -0.2865  0.3686  0.2785
 5490W        W48403  29.593  22.150  20.791 -0.0583  0.1157  0.2568
 5491W        W48404  12.179  19.907  14.485 -0.2288  0.4045 -0.2592
 5492W        W48405  26.030  20.524  23.679  0.3936 -0.0386 -0.0881
 5493W        W48406  23.393   9.951  13.819  0.0684  0.0339 -0.2820
 5494W        W48407  24.663  24.371  15.844 -0.2516  0.1062 -0.2380
 5495W        W48408  29.439   8.737  18.161 -0.0917  0.2798 -0.3453
 5496W        W48409  24.973  17.154  14.062 -0.3049 -0.0694  0.0339
 5497W        W48410  24.810  10.118  23.788 -0.0019 -0.0814  0.1107
 5498W        W48411  29.767  15.712  15.239  0.1425  0.0951 -0.1186
 5499W        W48412  14.100   9.976  18.725 -0.1690 -0.4019 -0.1352
 5500W        W48413  25.786  15.050  18.773 -0.0497 -0.0800  0.1451
 5501W        W48414   2.635  20.994  15.686 -0.0188  0.3316  0.0403
 5502W        W48415  21.341  18.850  15.127  0.0653 -0.0970  0.1776
 5503W        W48416  21.045  14.444  15.200 -0.0717 -0.1214  0.0298
 5504W        W48417  19.709  26.006  21.435  0.3418  0.1163  0.0424
 5505W        W48418   0.172   7.039  17.998 -0.1135  0.1595  0.0584
 5506W        W48419  20.419  12.468  15.892  0.0943  0.0279  0.0938
 5507W        W48420  22.029  28.526  23.682 -0.0552 -0.1041 -0.1282
 5508W        W48421  21.732  10.367  19.822  0.2231 -0.2492  0.0426
 5509W        W48422   8.287  22.540  20.906 -0.1140 -0.1488 -0.1214
 5510W        W48423  29.683  20.079  27.417  0.0086 -0.3732  0.2242
 5511W        W48424  15.075  20.360  12.694 -0.0368  0.0065 -0.0539
 5512W        W48425  23.911  14.451  19.753  0.0210 -0.0745  0.2444
 5513W        W48426   4.603  11.603  16.658 -0.0096 -0.1484  0.2640
 5514W        W48427  29.029  21.753  16.361 -0.1145 -0.1906 -0.0510
 5515W        W48428  17.338  21.262  14.712 -0.0488  0.2358  0.2628
 5516W        W48429  28.082  22.074  15.444 -0.0457 -0.0037  0.2985
 5517W        W48430   0.135  16.601  13.234  0.0904  0.0178 -0.1164
 5518W        W48431  24.175  30.653  18.539  0.0950 -0.0942 -0.1027
 5519W        W48432  31.867  15.640  22.198 -0.0116  0.0445 -0.1982
 5520W        W48433  24.879   7.514  23.976  0.1232  0.2026  0.2829
 5521W        W48434  23.105  17.336  13.718  0.1742 -0.3006 -0.2430
 5522W        W48435  23.135   9.293  20.063  0.1105  0.2211 -0.0750
 5523W        W48436   5.034  14.649  23.591 -0.0928  0.1339  0.1025
 5524W        W48437  30.793  12.646  16.114  0.1462 -0.1171 -0.0151
 5525W        W48438  16.241  26.725  22.445  0.0273 -0.1009 -0.1924
 5526W        W48439  28.019  15.668  28.564  0.1698 -0.4208 -0.0230
 5527W        W48440  25.457  25.831  23.945 -0.2713 -0.0469 -0.2724
 5528W        W48441  26.800  14.348  29.505  0.0914 -0.0496 -0.1345
 5529W        W48442  23.134  24.968  14.529  0.2273  0.0892 -0.1131
 5530W        W48443  26.700  22.660  13.800  0.1430 -0.1195 -0.2193
 5531W        W48444  17.668  22.546  27.229 -0.0243 -0.0681 -0.2254
 5532W        W48445  24.528   7.409  22.891  0.2225 -0.0329 -0.1709
 5533W        W48446  29.203  30.391  16.631  0.2225  0.2033  0.1725
 5534W        W48447  16.733  21.291  15.618 -0.0007  0.3454 -0.0578
 5535W        W48448  22.073  14.634  18.036 -0.0414 -0.1102  0.1985
 5536W        W48449  25.062  20.308  26.119  0.1717  0.3319 -0.0882
 5537W        W48450  22.482  15.115  16.296 -0.1182 -0.2785 -0.1965
 5538W        W48451  21.856  13.654  19.168  0.0285  0.0431 -0.4135
 5539W        W48452  25.316  14.302  22.817  0.2280 -0.0511  0.0197
 5540W        W48453  13.834   3.146  17.597 -0.0023  0.0136  0.0620
 5541W        W48454  31.968  13.470  16.598  0.6383 -0.1960  0.1442
 5542W        W48455  29.071   8.113  22.222 -0.0077  0.0878 -0.1810
 5543W        W48456  29.757  13.770  17.554 -0.0982  0.1826 -0.0707
 5544W        W48457  31.998  21.875  18.848 -0.0223  0.1249  0.0273
 5545W        W48458   2.145  16.083  22.564  0.1174 -0.0757 -0.2489
 5546W        W48459  24.722  21.390  20.418  0.0711  0.3005  0.1875
 5547W        W48460  25.350  22.243  15.661 -0.0709 -0.0676  0.0118
 5548W        W48461  24.519  12.979  16.129 -0.1571  0.1843 -0.1036
 5549W        W48462  22.528  15.963  14.746 -0.2354 -0.0044  0.0707
 5550W        W48463  33.053   8.258  22.299  0.0930 -0.1057  0.2114
 5551W        W48464  16.286  10.172  13.162 -0.0498  0.0955 -0.1736
 5552W        W48465  19.394  21.965  29.506  0.0595 -0.1848 -0.0928
 5553W        W48466  32.892  23.542  25.204 -0.2277  0.0733  0.0879
 5554W        W48467  19.662  21.351  13.460 -0.0500 -0.0259 -0.0067
 5555W        W48468   7.056  15.353  17.463 -0.0046  0.0163  0.1834
 5556W        W48469  24.618  14.052  21.678 -0.1950 -0.1929 -0.1899
 5557W        W48470  23.466   4.579  16.647 -0.0837 -0.2355  0.0312
 5558W        W48471  20.867  16.569  22.859 -0.1124 -0.0464 -0.1486
 5559W        W48472  18.850  13.667  21.666 -0.0824 -0.1140  0.2380
 5560W        W48473  26.725  23.039  13.439  0.4217  0.0744  0.2984
 5561W        W48474  33.628   4.141  24.619 -0.0813  0.0303 -0.1556
 5562W        W48475  27.209  25.563  19.129 -0.0856  0.1214 -0.3780
 5563W        W48476  32.137  13.020  19.078 -0.2859 -0.0859  0.0053
 5564W        W48477  20.220  18.777  28.876 -0.3687 -0.0256 -0.1136
 5565W        W48478  24.911  11.407  18.709 -0.1484  0.3007 -0.1702
 5566W        W48479  15.719  12.705  19.350  0.1732 -0.0013 -0.0404
 5567W        W48480  18.711  12.472  28.729 -0.0015 -0.2295 -0.0311
 5568W        W48481  21.019  10.504   0.526 -0.0983  0.1331 -0.0869
 5569W        W48482  14.853  15.120  13.132 -0.1049 -0.1179 -0.0284
 5570W        W48483  27.548  17.841  14.571  0.0963 -0.4360 -0.3056
 5571W        W48484  20.685   3.123  14.886 -0.0094 -0.0015  0.1770
 5572W        W48485  17.747   8.485  16.600  0.2226  0.1625 -0.2404
 5573W        W48486  22.213  26.781  16.329 -0.1493 -0.2381 -0.1958
 5574W        W48487  24.554  11.459  14.061  0.0115  0.4915 -0.3267
 5575W        W48488  26.936  13.046  17.131 -0.1967 -0.1228  0.2271
 5576W        W48489  21.946  26.563  23.952  0.0531  0.0499  0.1311
 5577W        W48490  13.527   8.924  14.149 -0.3566  0.4667  0.0914
 5578W        W48491   8.946  22.375  20.614  0.0848 -0.1552  0.0392
 5579W        W48492  25.748  24.813  16.649  0.0086  0.2548 -0.2275
 5580W        W48493  21.239  19.047  11.657 -0.0282  0.1666 -0.0901
 5581W        W48494  22.022  12.699  15.072 -0.2273 -0.2783  0.1719
 5582W        W48495  21.770  20.755  25.598 -0.0300 -0.1664  0.2468
 5583W        W48496  30.683   5.315  20.908  0.0056  0.0666 -0.0162
 5584W        W48497  23.161  15.240  18.756  0.0548 -0.1495 -0.3627
 5585W        W48498  19.225  12.588  15.608  0.1390 -0.0144  0.2732
 5586W        W48499  22.348   6.596  24.044 -0.2294  0.0607 -0.0026
 5587W        W48500  19.249  13.661  11.770 -0.0292  0.3710  0.0572
 5588W        W48501  31.139  25.675  24.732 -0.1825  0.0820 -0.1975
 5589W        W48502  25.373  23.692  16.062  0.1919  0.1388  0.3492
 5590W        W48503  17.458  25.341  19.816  0.3034  0.1149  0.1397
 5591W        W48504  13.714  17.429  13.205  0.0545  0.0688  0.3193
 5592W        W48505  24.055  17.571  19.243 -0.2139  0.1413  0.3702
 5593W        W48506  14.405  25.161  14.468 -0.1667  0.1128 -0.0493
 5594W        W48507  29.352  12.613  26.912 -0.1080  0.0334 -0.0984
 5595W        W48508  16.117  10.033  16.376  0.0054  0.0504  0.0872
 5596W        W48509  13.994  19.420  15.299 -0.0917  0.1260 -0.0512
 5597W        W48510  19.485  26.677  26.619 -0.1521 -0.0596 -0.1102
 5598W        W48511  22.403  11.372  19.222 -0.2845 -0.0581 -0.2043
 5599W        W48512  21.829   9.148  17.785  0.3416  0.1315 -0.0361
 5600W        W48513  12.787  12.542  27.811 -0.3244 -0.0599  0.0722
 5601W        W48514  17.619   9.272  26.247  0.0659  0.0080 -0.0646
 5602W        W48515  21.930   6.047  23.032  0.1369 -0.1870 -0.0584
 5603W        W48516  19.107  27.259   1.430  0.0339 -0.1300 -0.0710
 5604W        W48517  26.632  22.207  22.580 -0.1860  0.1258 -0.1499
 5605W        W48518  27.910  26.453  18.972 -0.3794  0.0694 -0.1152
 5606W        W48519  26.738  13.318  14.557 -0.3904  0.0181 -0.1037
 5607W        W48520   0.494  22.836  14.536  0.2351 -0.0997 -0.1172
 5608W        W48521   9.218  16.047  27.711  0.0146  0.0936  0.2281
 5609W        W48522  29.956   8.526  22.880 -0.0190  0.0545  0.0480
 5610W        W48523  11.053  13.731  18.760 -0.0481 -0.0172  0.0435
 5611W        W48524  18.626   8.017  25.109 -0.0005 -0.3817 -0.3555
 5612W        W48525   0.822  27.223  21.912 -0.1024 -0.0465  0.1262
 5613W        W48526  23.194  28.791  28.894  0.0988  0.2430  0.0127
 5614W        W48527  21.701  16.330  24.415 -0.2865  0.0820 -0.1401
 5615W        W48528  23.557  20.620  14.041 -0.2950  0.0401 -0.1027
 5616W        W48529  30.996  25.799  18.297  0.2995 -0.1750 -0.1606
 5617W        W48530  18.283   1.114  20.125  0.2131  0.2008 -0.3517
 5618W        W48531  29.160  28.056  19.444  0.1947 -0.1367 -0.1748
 5619W        W48532  24.242   8.550  16.175 -0.0267 -0.0765  0.0592
 5620W        W48533  21.412  18.433  21.111 -0.1587  0.1198  0.1961
 5621W        W48534  23.357  25.450  19.776 -0.2033  0.1047  0.2606
 5622W        W48535  29.086  17.978  15.920 -0.3302  0.2024 -0.0626
 5623W        W48536  30.192  20.537  18.350 -0.1594 -0.1048  0.1341
 5624W        W48537  29.077  20.975  22.286  0.2757  0.0914  0.0344
 5625W        W48538  23.116  11.555  18.026 -0.1412  0.0859  0.1339
 5626W        W48539  34.305  19.639  22.053  0.1588 -0.1068 -0.0604
 5627W        W48540  15.291   7.047  23.227  0.3391 -0.1190 -0.0579
 5628W        W48541  27.254  16.318  17.020  0.0135 -0.2459 -0.0412
 5629W        W48542  31.495  22.758  20.949 -0.0640  0.0079  0.2706
 5630W        W48543  27.858  17.451  25.989 -0.1023  0.0936 -0.1992
 5631W        W48544  14.548  10.483  19.249 -0.2617 -0.0888 -0.0911
 5632W        W48545  25.326  13.517  18.624 -0.3604  0.2584 -0.1785
 5633W        W48546  32.341  13.705  16.867 -0.0725  0.0096 -0.0750
 5634W        W48547  20.622  16.122  23.743 -0.0712 -0.2862  0.0358
 5635W        W48548  16.439  11.740  14.427  0.0896 -0.1506  0.0531
 5636W        W48549  24.999  19.132  19.523  0.0540  0.0268 -0.2074
 5637W        W48550  29.581  11.569  15.960 -0.0731 -0.0336 -0.0432
 5638W        W48551  29.283  20.916  16.380  0.0901 -0.2535 -0.2257
 5639W        W48552  23.378  13.015  21.233 -0.0373  0.2278  0.0528
 5640W        W48553  21.172  10.983  19.423 -0.1469 -0.0725 -0.0238
 5641W        W48554  22.356  12.420  18.614  0.2324 -0.0929 -0.0141
 5642W        W48555  30.796  14.640  15.460 -0.0697  0.6619 -0.0458
 5643W        W48556  23.996   8.201   3.032 -0.0368 -0.1947  0.2328
 5644W        W48557  28.886  13.890  14.727 -0.0855 -0.2101  0.2905
 5645W        W48558   0.791  26.159  18.856  0.0224 -0.0696 -0.0716
 5646W        W48559  24.978  22.506  14.053 -0.1239  0.1348 -0.1232
 5647W        W48560  22.033  22.293  24.614  0.0116 -0.0854 -0.3224
 5648W        W48561  24.035   5.557   2.906  0.0447  0.3252  0.0548
 5649W        W48562  11.491  10.468  15.569 -0.0037 -0.1592  0.1451
 5650W        W48563  33.021  21.859  20.716 -0.1974 -0.2324  0.3582
 5651W        W48564   5.345  14.288  22.744 -0.1609  0.1095 -0.1416
 5652W        W48565  24.114   7.813  18.091 -0.0426  0.0600 -0.1407
 5653W        W48566  32.510  16.271  14.088 -0.2189  0.1511  0.1150
 5654W        W48567  33.377  10.941  28.643  0.3024  0.1161 -0.2243
 5655W        W48568  27.443  26.034  16.163  0.2144  0.1757  0.1159
 5656W        W48569  21.283  17.893  22.863  0.1483 -0.0470  0.2543
 5657W        W48570  16.843  24.662  16.827 -0.0756 -0.2248  0.2342
 5658W        W48571  27.056   8.361  17.680 -0.1918  0.0185  0.1097
 5659W        W48572  22.425  11.287  27.861 -0.0513 -0.0820 -0.1351
 5660W        W48573  32.059  11.962  15.353 -0.0693 -0.1980 -0.1733
 5661W        W48574   9.864  17.483  18.720 -0.0632  0.0390  0.2730
 5662W        W48575  29.471  19.551  21.943  0.0795  0.2401  0.2836
 5663W        W48576  23.721  22.120  29.261  0.0260 -0.1801  0.2488
 5664W        W48577  24.858  11.770  13.656 -0.3306  0.0994  0.0140
 5665W        W48578  24.283  16.594  26.565  0.1723 -0.0012 -0.0975
 5666W        W48579  25.020  14.710  17.095  0.0617 -0.1083 -0.2040
 5667W        W48580  25.061   9.426  22.631 -0.0215  0.0668 -0.1703
 5668W        W48581  24.209  15.987  20.712  0.1267 -0.0876 -0.1124
 5669W        W48582  20.091  24.857  14.574 -0.0401 -0.3567  0.0452
 5670W        W48583  22.098  25.869  13.014 -0.0363  0.0557 -0.1029
 5671W        W48584  32.170  25.197  17.100 -0.0520  0.1746  0.0370
 5672W        W48585  26.780  31.415  26.909  0.4503  0.0030  0.1601
 5673W        W48586  24.168   0.773  16.297  0.2244  0.0759  0.2026
 5674W        W48587  12.318  22.205  13.662  0.2088  0.1985  0.0327
 5675W        W48588  18.653  23.259  15.037 -0.0519 -0.3414  0.2591
 5676W        W48589  23.783   8.155  29.297  0.1863 -0.1377 -0.2393
 5677W        W48590   8.889  14.259  16.471 -0.0831 -0.0252 -0.3480
 5678W        W48591  23.497   3.488  26.350 -0.0840 -0.0056 -0.1997
 5679W        W48592  28.697  26.057  17.936  0.1621 -0.2126 -0.0950
 5680W        W48593   6.172  16.675  15.259  0.0938 -0.3254 -0.0845
 5681W        W48594  28.526  15.151  14.066 -0.0830  0.2309 -0.0017
 5682W        W48595   8.249  23.969  18.900 -0.0313 -0.1749  0.3326
 5683W        W48596  25.063  27.202  23.501  0.0321  0.0794 -0.2437
 5684W        W48597  20.843  19.717  12.331  0.4417 -0.0062 -0.2171
 5685W        W48598  13.503  14.911  14.079  0.3353 -0.1150 -0.1151
 5686W        W48599  26.792  31.706  15.221 -0.4075 -0.1071  0.0218
 5687W        W48600  18.308  22.269   0.908 -0.0513  0.0309  0.1517
 5688W        W48601  33.629   9.142  24.715 -0.3482  0.0827 -0.2007
 5689W        W48602  22.999  12.573  16.506  0.0054 -0.0177  0.0319
 5690W        W48603  23.005  13.690  24.379  0.1313  0.0028  0.1738
 5691W        W48604  26.395  15.844  13.208 -0.0631 -0.1076 -0.0056
 5692W        W48605  20.340  14.631  12.044  0.1539  0.0560 -0.1221
 5693W        W48606  26.381  21.967  19.566  0.0735  0.2141 -0.2204
 5694W        W48607  32.188  17.674  19.345  0.1384 -0.0226  0.1927
 5695W        W48608  34.125  17.640  24.515 -0.1634  0.3020 -0.1240
 5696W        W48609  26.646  14.769   2.081 -0.1894  0.3320  0.0335
 5697W        W48610  30.607  12.729  23.073 -0.3649  0.0446 -0.0932
 5698W        W48611  23.136  22.199  19.936 -0.1531  0.0757 -0.2384
 5699W        W48612  20.222  20.681  19.615  0.0374 -0.4019 -0.3506
 5700W        W48613  16.343   5.588  14.994  0.1961 -0.1409 -0.2763
 5701W        W48614   1.191  10.409   3.037  0.0647 -0.0072  0.3309
 5702W        W48615  22.820   8.359  23.373  0.5360  0.0530  0.1502
 5703W        W48616  33.272  14.139  14.883  0.3032 -0.1702 -0.1572
 5704W        W48617  16.119  11.538  21.286 -0.0302  0.2337 -0.0284
 5705W        W48618  13.691  13.631  13.870 -0.0061 -0.0342  0.0474
 5706W        W48619  18.558  10.498  18.503 -0.1605 -0.3633 -0.1379
 5707W        W48620  26.885  12.844  18.156  0.1707 -0.2201 -0.1377
 5708W        W48621  17.216  15.595  12.488 -0.2245  0.2138  0.4714
 5709W        W48622  26.085  12.882  18.854 -0.0585  0.0681 -0.0592
 5710W        W48623  24.347  15.499  14.262  0.1219 -0.1812  0.2465
 5711W        W48624  31.867  17.721  22.047  0.0671 -0.1448 -0.0111
 5712W        W48625  26.581  17.610  25.514 -0.1976 -0.3239 -0.0628
 5713W        W48626  18.267  23.647  13.802 -0.1451 -0.0288 -0.1527
 5714W        W48627  23.050  23.462  17.110 -0.1988  0.1022 -0.0050
 5715W        W48628  25.185  12.798  21.359  0.1902  0.2346 -0.2737
 5716W        W48629  34.161  21.589  23.228  0.0884  0.0245 -0.0996
 5717W        W48630  16.371  11.009  16.253 -0.1014  0.1981 -0.2090
 5718W        W48631   7.178  19.849  14.490  0.0156  0.2394  0.0030
 5719W        W48632  18.179   2.228  24.750 -0.1764 -0.3320  0.0669
 5720W        W48633  12.162  25.263  21.054 -0.2869  0.1735 -0.1094
 5721W        W48634   8.861  16.373  14.099  0.4130  0.4286  0.1604
 5722W        W48635  21.661  16.457  16.877 -0.0842 -0.0157  0.1825
 5723W        W48636  28.146  24.658  15.680  0.0009 -0.4743  0.2342
 5724W        W48637  27.901  10.065  24.007 -0.2032  0.2215 -0.1022
 5725W        W48638  31.029   9.656  26.301 -0.1534 -0.0591 -0.0906
 5726W        W48639  24.234  26.800  25.481  0.1763  0.0306  0.2097
 5727W        W48640  14.611   5.516  22.407  0.0989 -0.2113 -0.1236
 5728W        W48641  25.402   5.281  16.708  0.0546 -0.1601  0.0715
 5729W        W48642  25.883  14.492  27.489  0.1056 -0.1298 -0.1189
 5730W        W48643  25.678  15.497  17.351  0.5471 -0.1016 -0.1227
 5731W        W48644  23.314  13.307  15.035 -0.0105  0.0522 -0.0431
 5732W        W48645  26.676  15.790  13.929 -0.1643 -0.0472 -0.1176
 5733W        W48646  18.271  14.096  15.990 -0.1634 -0.1579 -0.0708
 5734W        W48647  22.046  18.452  17.860 -0.1073 -0.1354  0.0175
 5735W        W48648  24.727  25.952  19.204 -0.1907  0.2898  0.0543
 5736W        W48649   3.199  16.621  28.067  0.1675  0.1131  0.0187
 5737W        W48650  20.867  17.207  23.588  0.0384 -0.1468 -0.1460
 5738W        W48651  24.655   3.784  24.669  0.2292 -0.0947  0.3094
 5739W        W48652  15.096  20.433  15.943  0.3819  0.1225  0.0453
 5740W        W48653  24.491  25.932  18.251 -0.0080  0.1830  0.1445
 5741W        W48654  24.401  24.823  22.133 -0.2461 -0.1011 -0.0412
 5742W        W48655  21.967   3.106  15.242  0.0094 -0.0779 -0.2183
 5743W        W48656  25.391  17.523  13.930  0.1401 -0.0120  0.0415
 5744W        W48657  30.129  21.130  24.594  0.0694 -0.0961 -0.2259
 5745W        W48658   3.893  12.625  17.797  0.2600 -0.2707  0.0067
 5746W        W48659  24.119  29.037   0.845  0.2502 -0.0319  0.1238
 5747W        W48660  25.913  20.564  14.446 -0.3253 -0.1068 -0.0037
 5748W        W48661  29.007  21.292  16.172 -0.0989 -0.1129  0.3190
 5749W        W48662  25.563   1.332  19.413 -0.0099  0.1066 -0.3726
 5750W        W48663   6.049  18.870  26.704 -0.0409 -0.0127  0.1453
 5751W        W48664  15.381  18.425  13.337  0.1317  0.0114 -0.3812
 5752W        W48665  25.124  15.295  28.853 -0.1162 -0.0763  0.3483
 5753W        W48666  31.262  24.501  26.036 -0.0057  0.2260  0.3867
 5754W        W48667  20.117   7.743  13.896 -0.2243  0.2589  0.0874
 5755W        W48668  25.194  21.946  14.283  0.2073 -0.1529 -0.0049
 5756W        W48669  24.873  22.315  14.513  0.0831 -0.3739  0.0191
 5757W        W48670  26.372  16.153  13.912  0.0989 -0.1202 -0.0083
 5758W        W48671  32.736  12.572  15.492  0.0299  0.2027 -0.1066
 5759W        W48672  29.907  18.695  14.236  0.2283  0.1489 -0.0548
 5760W        W48673  21.881  15.182  13.064  0.3180 -0.0227  0.0742
 5761W        W48674  23.006  20.308  18.299 -0.2385  0.1536  0.1914
 5762W        W48675  31.239  22.123  17.618  0.0427 -0.1816  0.0685
 5763W        W48676  11.578  31.542   6.101 -0.0090  0.1326  0.0100
 5764W        W48677  22.397  17.935  24.844 -0.1156 -0.1526  0.1211
 5765W        W48678  29.489  16.384  18.574  0.0572  0.0766 -0.3667
 5766W        W48679  10.936  11.098  24.173 -0.3150 -0.0787 -0.0778
 5767W        W48680  23.185  18.016  17.381 -0.0512  0.0301  0.0142
 5768W        W48681  27.749  31.154  20.580  0.4412  0.1782 -0.1866
 5769W        W48682  26.612  24.496  17.907  0.3975 -0.2272  0.2070
 5770W        W48683  25.713  21.280  22.619  0.0011 -0.1705 -0.0678
 5771W        W48684  23.833  16.215  12.381  0.7510 -0.1041  0.2137
 5772W        W48685  12.978  13.039  12.978 -0.1087 -0.2930  0.0541
 5773W        W48686  31.908  25.826  15.723 -0.2484 -0.0600  0.2856
 5774W        W48687  22.741  26.620  23.097 -0.3162  0.4166 -0.0806
 5775W        W48688   9.394  24.570  23.216  0.1140 -0.2165 -0.0955
 5776W        W48689  29.750  23.354  13.431 -0.2453 -0.0921 -0.0470
 5777W        W48690  15.804  24.229  14.423 -0.0530 -0.0486  0.2651
 5778W        W48691  20.455  25.314  23.469  0.0279 -0.1287  0.0885
 5779W        W48692  24.803  20.241  16.940 -0.0314  0.1293  0.1136
 5780W        W48693  16.780   9.769  25.027  0.2274  0.1096  0.2363
 5781W        W48694   8.153  19.792  18.843  0.2114  0.2155 -0.0075
 5782W        W48695  33.555  18.186  23.237 -0.0588  0.0712  0.0316
 5783W        W48696  25.438  15.410  23.763  0.0851  0.0798  0.0928
 5784W        W48697  28.281  15.866  24.387  0.2424  0.1453  0.0778
 5785W        W48698  26.639  25.098  21.463  0.2602 -0.1044  0.1113
 5786W        W48699  25.974  13.962  24.071  0.0928  0.0182 -0.0899
 5787W        W48700  16.488  33.975  21.201 -0.0630  0.1978  0.0677
 5788W        W48701  27.391  18.708  17.429 -0.0034 -0.1242  0.1378
 5789W        W48702  23.712  20.615  18.834  0.3345 -0.0566  0.0437
 5790W        W48703  23.988  10.538  15.991  0.1211  0.1409  0.3202
 5791W        W48704  21.359  32.973  29.290  0.1866 -0.0004 -0.1886
 5792W        W48705  26.190  25.794  25.023 -0.0865  0.0235  0.0239
 5793W        W48706  21.697  13.564  16.917 -0.1118  0.1302  0.2417
 5794W        W48707  22.233  27.552  16.764 -0.1966 -0.1137  0.0254
 5795W        W48708   9.095  13.545  18.987  0.1190 -0.2006 -0.2490
 5796W        W48709  30.877  12.925  15.136 -0.0267  0.2879  0.0018
 5797W        W48710  21.448  16.691  15.992 -0.0381  0.0873  0.2948
 5798W        W48711  26.651  18.593  21.927 -0.1311  0.1380  0.1895
 5799W        W48712  28.435  15.089  24.937  0.0289  0.0617  0.2321
 5800W        W48713  25.381  17.792  18.325  0.2846  0.1044  0.3736
 5801W        W48714  33.418  15.487  13.202  0.3427  0.0202  0.0380
 5802W        W48715  23.913  19.457  24.886  0.3351 -0.1237  0.2028
 5803W        W48716  20.295  24.027  14.701  0.0755  0.0719  0.0347
 5804W        W48717   0.590  15.800  25.435 -0.0494  0.1715 -0.0062
 5805W        W48718  29.943   6.575  18.065 -0.1318  0.0895  0.1156
 5806W        W48719  31.596  27.448  26.251  0.2663  0.0080  0.2896
 5807W        W48720  19.616  22.379  23.502  0.2330 -0.2046  0.2865
 5808W        W48721  19.153  23.282  20.808 -0.0570  0.0209  0.4088
 5809W        W48722  21.875  18.134  21.485 -0.1555  0.0579  0.1273
 5810W        W48723  20.270  21.785  14.914  0.1992 -0.2910  0.0887
 5811W        W48724  28.949  20.199  15.435  0.1699  0.3404 -0.2898
 5812W        W48725  15.029  10.370  19.369 -0.0384  0.0707 -0.2299
 5813W        W48726  27.881  18.835  16.021 -0.0029  0.0624  0.3744
 5814W        W48727  30.971  12.330  14.394 -0.1012  0.2392 -0.0482
 5815W        W48728  25.689  23.460  18.982 -0.0273 -0.1065  0.0252
 5816W        W48729  20.909  23.822  17.762 -0.1514 -0.3747 -0.2721
 5817W        W48730   0.127  13.461  21.771  0.0001  0.2096 -0.0728
 5818W        W48731  15.027  14.059  21.103 -0.1475  0.1737  0.1793
 5819W        W48732  21.807  21.681  12.835  0.1650  0.0181 -0.0238
 5820W        W48733  31.228  23.876  14.399  0.0425  0.0192 -0.1887
 5821W        W48734  23.966  12.305  24.080 -0.0710 -0.3551  0.2139
 5822W        W48735  25.534  17.725  27.249  0.1435  0.4542 -0.0814
 5823W        W48736  30.321  17.003  29.769 -0.2575 -0.1336 -0.1124
 5824W        W48737  30.321   9.687  19.128  0.1813  0.0141  0.2561
 5825W        W48738  18.261  10.392  25.595  0.3653  0.1566  0.0695
 5826W        W48739  22.195   7.675  15.485 -0.1256  0.2918  0.0040
 5827W        W48740  20.045  13.470  19.294 -0.1064  0.0767 -0.3459
 5828W        W48741  26.662  20.609  15.656  0.0204 -0.1637 -0.1366
 5829W        W48742  19.927  11.332  12.232  0.1753  0.0462  0.1389
 5830W        W48743  18.022  22.985  25.611  0.1395  0.0644  0.1179
 5831W        W48744  21.826  10.449  16.573  0.0489 -0.0623  0.2259
 5832W        W48745  20.929   7.422  22.151  0.0532  0.3205 -0.0997
 5833W        W48746  29.771  24.464  25.051 -0.1036  0.0818 -0.1224
 5834W        W48747  23.848  10.869  14.335 -0.0126  0.1329  0.2613
 5835W        W48748  12.728  17.692  14.634  0.0284  0.3308 -0.2251
 5836W        W48749  26.743  18.889  21.335 -0.2053  0.1899  0.0974
 5837W        W48750  27.676  18.895  23.195  0.3533  0.2748  0.2757
 5838W        W48751   0.179  25.140  18.424 -0.1025 -0.3188 -0.2052
 5839W        W48752  23.563  15.191  14.046 -0.0078 -0.1876  0.2100
 5840W        W48753  28.950  13.838  20.374 -0.0841  0.3110  0.0227
 5841W        W48754  29.463  23.500  20.513  0.0619  0.1267  0.1409
 5842W        W48755  13.782  11.591  20.741 -0.2334  0.0785  0.1820
 5843W        W48756  28.409  15.868  25.630  0.2576  0.2022 -0.0840
 5844W        W48757  23.176  31.397  13.751 -0.0813  0.2703 -0.0618
 5845W        W48758  11.554  14.107  20.089 -0.1725 -0.0446 -0.3692
 5846W        W48759  30.387   7.756  25.528  0.0613  0.0128 -0.1377
 5847W        W48760   2.409  11.744  16.212  0.0711  0.2065 -0.1675
 5848W        W48761  29.479  18.459  19.566 -0.0568 -0.2169 -0.0772
 5849W        W48762  23.193  17.033  18.245 -0.0408  0.0927 -0.2489
 5850W        W48763  24.396   5.051  24.089  0.1591  0.1926  0.0598
 5851W        W48764  32.638  19.081  17.512 -0.1443 -0.1478 -0.3505
 5852W        W48765  15.536   8.317  14.066 -0.3972 -0.0583  0.1543
 5853W        W48766  25.367   4.039  13.779 -0.1979 -0.2826 -0.2061
 5854W        W48767  20.651  18.308  23.279  0.0443  0.1328  0.0322
 5855W        W48768  19.681  16.292   0.671 -0.1550 -0.0363  0.3643
 5856W        W48769  20.758  19.246  23.157 -0.0905 -0.2345  0.1430
 5857W        W48770  30.569  14.730  16.862  0.3344 -0.2465  0.0161
 5858W        W48771  21.901  14.953  20.863 -0.3093 -0.1153 -0.0564
 5859W        W48772  29.749  15.081  18.183  0.1161  0.1604 -0.0054
 5860W        W48773  14.673  16.480  13.555 -0.0323 -0.2217  0.1188
 5861W        W48774  27.255  17.197  28.509  0.0528 -0.3801 -0.1630
 5862W        W48775  24.389   9.004  16.331 -0.0906 -0.1097 -0.2967
 5863W        W48776   0.013  30.508  14.855  0.2562  0.0118 -0.1413
 5864W        W48777  28.300  12.829  16.587 -0.2756 -0.0739 -0.1113
 5865W        W48778  21.743   5.431  29.706  0.0632 -0.0194 -0.2334
 5866W        W48779  29.739  25.524   4.565  0.0470 -0.0652  0.0112
 5867W        W48780  21.719  16.820  20.139 -0.2387 -0.0697 -0.0681
 5868W        W48781  22.249  14.266  16.202  0.0229  0.1092 -0.0750
 5869W        W48782  15.732   2.715  14.676  0.0203 -0.2052  0.0968
 5870W        W48783  20.727   8.827  22.090  0.0302 -0.0011  0.1644
 5871W        W48784  12.603  20.969  13.375 -0.0952 -0.0584  0.0855
 5872W        W48785  24.295  14.474  21.719  0.2748 -0.2149  0.2938
 5873W        W48786  23.287  14.958  13.643  0.0054 -0.1584  0.1438
 5874W        W48787  19.762  14.255  14.273  0.0511  0.1230  0.2030
 5875W        W48788  20.693  19.334  16.885 -0.2893  0.2606  0.3727
 5876W        W48789  34.067  18.407  21.295  0.3740 -0.0097  0.1481
 5877W        W48790  14.708  13.700  18.382 -0.0065 -0.2892  0.0120
 5878W        W48791  12.518  20.336  14.597 -0.0342 -0.0979 -0.1826
 5879W        W48792  11.536  12.190  27.564 -0.0905 -0.1325  0.0518
 5880W        W48793  27.479  20.670  22.295 -0.0974  0.2552  0.1080
 5881W        W48794  17.542   4.627  26.668 -0.1284 -0.2157  0.0674
 5882W        W48795   0.449  14.739  17.140  0.0564  0.1162  0.0383
 5883W        W48796  22.504  15.573  17.289 -0.3624  0.2063  0.0316
 5884W        W48797  26.241  17.945  17.396 -0.2330  0.2129 -0.1110
 5885W        W48798  22.271   9.506  19.868  0.3139 -0.0439 -0.2954
 5886W        W48799  23.451  17.208  14.927 -0.0744 -0.0761 -0.0790
 5887W        W48800  22.998  22.422  24.596 -0.1443  0.1588 -0.0336
 5888W        W48801  30.827  18.250  14.185  0.0162 -0.1455  0.0033
 5889W        W48802  21.442   7.132   7.583  0.0736 -0.1366  0.0681
 5890W        W48803  20.883  14.553  20.780 -0.1028 -0.0479 -0.0140
 5891W        W48804  25.786   9.749  26.892 -0.0319 -0.0154  0.5384
 5892W        W48805   9.280  15.033  20.077 -0.0629  0.0310 -0.1785
 5893W        W48806  29.673  21.965  15.511 -0.2250 -0.0596 -0.0167
 5894W        W48807  20.584  26.028  13.331  0.0690 -0.1608  0.1457
 5895W        W48808  27.990  25.359   3.148  0.2702  0.1970 -0.2945
 5896W        W48809  14.262  20.591  12.578  0.2440  0.1432  0.2669
 5897W        W48810  29.312  14.161  18.077  0.1027 -0.1486 -0.0948
 5898W        W48811  25.305  21.036  16.282 -0.0840 -0.1794 -0.1995
 5899W        W48812  21.806  12.981  25.777 -0.1767  0.4269 -0.2910
 5900W        W48813   0.758  20.256  20.391  0.1202 -0.2318  0.0048
 5901W        W48814  18.735  14.569  12.469 -0.0259  0.1873  0.2588
 5902W        W48815  26.086  28.666  17.242  0.0629 -0.2510 -0.1870
 5903W        W48816  29.162  24.302  13.227 -0.1731  0.0117 -0.1935
 5904W        W48817  33.829  20.083  17.557  0.0474 -0.0260 -0.1307
 5905W        W48818  16.781  19.091  12.405  0.0662 -0.0136 -0.0760
 5906W        W48819  22.521   9.427  27.945  0.2420  0.1660 -0.3215
 5907W        W48820  31.790  15.517  16.390 -0.2042  0.0414  0.0675
 5908W        W48821  13.499  11.714  25.217 -0.0075 -0.0067 -0.0315
 5909W        W48822  11.509  18.367  22.658 -0.0597 -0.0135  0.1564
 5910W        W48823  27.554  17.911  18.576 -0.2105 -0.0523 -0.2306
 5911W        W48824  29.463  11.580  20.897  0.1738 -0.1738  0.2225
 5912W        W48825  20.807  20.484  17.236  0.0068 -0.0251  0.1547
 5913W        W48826  26.429  21.388  18.853  0.2191  0.3998  0.2942
 5914W        W48827  29.362  30.011  18.146  0.0212 -0.1592  0.0105
 5915W        W48828  31.225  16.260  19.577 -0.0071  0.1918 -0.1049
 5916W        W48829  31.417  24.098  28.435  0.3339 -0.0384  0.2069
 5917W        W48830  28.670  15.491   4.616  0.0732  0.0536  0.0072
 5918W        W48831  23.987  11.266  15.269  0.0011  0.0633  0.1873
 5919W        W48832  21.274  11.323  19.075  0.1135 -0.2060 -0.2270
 5920W        W48833  31.060  29.193  22.536  0.1972 -0.2377 -0.0923
 5921W        W48834  25.822  20.003  17.971 -0.0161  0.0817 -0.0753
 5922W        W48835  27.151  10.067  26.019 -0.1443  0.0718 -0.0812
 5923W        W48836  23.563  10.321  13.547  0.2132  0.3146  0.0329
 5924W        W48837  28.210  21.911  19.355 -0.1407 -0.1827 -0.2362
 5925W        W48838  23.226  18.006  19.784  0.1367  0.2786  0.3449
 5926W        W48839  22.938  21.432  19.642  0.1079  0.2814 -0.0720
 5927W        W48840  25.038  15.706   2.087 -0.0949  0.1019 -0.1652
 5928W        W48841  29.836  10.992  21.265 -0.2181 -0.0167 -0.2354
 5929W        W48842  19.174  15.494  24.487  0.0477  0.0476 -0.0781
 5930W        W48843   1.421  11.714  23.916 -0.3308  0.0016 -0.1008
 5931W        W48844  20.141   9.559  19.129 -0.5352  0.0078 -0.0483
 5932W        W48845  24.401  18.968  12.354 -0.1400 -0.3672  0.0643
 5933W        W48846  24.231  15.196  21.023 -0.1120  0.0195  0.1821
 5934W        W48847  28.239  21.528  27.315 -0.1647 -0.1242  0.1136
 5935W        W48848  16.560  11.996  13.804 -0.1448 -0.0788  0.4805
 5936W        W48849   2.793  24.026  24.590  0.3197 -0.0241  0.0474
 5937W        W48850   2.357  22.455  26.749  0.1273 -0.0019  0.0650
 5938W        W48851  31.002  16.936  16.252  0.0463 -0.2776 -0.3022
 5939W        W48852  16.834  15.149  23.838  0.2457 -0.0520  0.1776
 5940W        W48853  26.091  25.932  23.173 -0.2595  0.0380  0.0735
 5941W        W48854  29.745  27.748  27.128  0.2335  0.0248 -0.0162
 5942W        W48855  23.941  18.519  13.793 -0.0476 -0.2633 -0.0795
 5943W        W48856  28.763  17.215   1.411 -0.1464 -0.1320 -0.0043
 5944W        W48857  32.589  23.837  26.548 -0.0928  0.0199  0.1698
 5945W        W48858   3.959  12.339  23.861  0.1378  0.5030  0.0145
 5946W        W48859  12.133  26.304  29.729  0.0757  0.1741  0.1981
 5947W        W48860  27.412  16.043  19.274  0.1187  0.2201 -0.4114
 5948W        W48861  19.422  15.528   1.282  0.1149  0.0429 -0.1193
 5949W        W48862  22.613  21.422  13.891 -0.0223 -0.2514  0.1118
 5950W        W48863  31.491  18.614   2.589  0.1615 -0.0397 -0.0619
 5951W        W48864  13.280  20.388  20.638 -0.3614  0.0740 -0.0459
 5952W        W48865  29.950  14.482  17.486  0.0432  0.2317  0.1050
 5953W        W48866  21.230   4.657   7.724 -0.0663 -0.1882  0.1879
 5954W        W48867  20.088  18.063  27.094 -0.4038 -0.1739  0.0281
 5955W        W48868  22.907  11.927  24.518 -0.2116 -0.6035 -0.0656
 5956W        W48869  25.480   9.987  16.374  0.0317  0.1259  0.1718
 5957W        W48870  18.923  22.728  19.220  0.0076  0.0512 -0.2436
 5958W        W48871  29.100  19.846  14.592 -0.3201  0.3039  0.0925
 5959W        W48872  16.046   9.731  18.845  0.0009 -0.2714 -0.2472
 5960W        W48873  27.167  25.397  26.572 -0.0200 -0.0495  0.1613
 5961W        W48874  26.876  19.381  24.572 -0.6470 -0.0042 -0.2145
 5962W        W48875  22.805  13.719  22.286 -0.0354 -0.0493  0.1778
 5963W        W48876  18.064  12.950  16.197  0.0900 -0.0194  0.2141
 5964W        W48877  22.372  30.688  19.314  0.3650  0.0376 -0.3516
 5965W        W48878  22.474   9.261  22.516 -0.0560  0.2177  0.2750
 5966W        W48879  17.899   6.616  24.565  0.0174 -0.1210 -0.0223
 5967W        W48880  27.973  17.599   1.181  0.1427  0.2910 -0.2196
 5968W        W48881  25.119   9.947   0.852 -0.2708  0.2645  0.1626
 5969W        W48882  29.209  21.643  14.778 -0.1626 -0.4670  0.0344
 5970W        W48883  27.404  18.514   2.060  0.1902  0.2582 -0.3022
 5971W        W48884  20.778   2.601   5.546  0.0997 -0.2038  0.4244
 5972W        W48885  13.046  25.102  25.386  0.2139 -0.0759  0.1594
 5973W        W48886  19.810  14.415  23.085 -0.2374  0.2301 -0.2738
 5974W        W48887  23.123  26.724  24.601  0.2988  0.0617  0.0761
 5975W        W48888  27.659  14.210  20.537 -0.0336 -0.0393 -0.1345
 5976W        W48889  23.011  13.799  19.914 -0.4494 -0.0067 -0.1186
 5977W        W48890  28.624   5.376  21.138  0.2681 -0.0325  0.1878
 5978W        W48891  32.034  22.780  29.278 -0.1082  0.1262  0.0280
 5979W        W48892  31.649  14.265  16.501  0.1328 -0.3542 -0.2312
 5980W        W48893  16.978   8.299  14.679  0.0595 -0.1038  0.1508
 5981W        W48894  33.167   7.272  24.705  0.0579 -0.0831 -0.1009
 5982W        W48895  19.463  24.887   7.009 -0.2020  0.2848  0.3169
 5983W        W48896  23.427  15.100  16.115 -0.0140 -0.3941 -0.0356
 5984W        W48897  33.367   6.748   3.080  0.0091 -0.1172  0.0862
 5985W        W48898  14.071  17.385   2.082  0.1476  0.2752  0.2449
 5986W        W48899   7.783  21.100  19.267  0.2644  0.1611 -0.0417
 5987W        W48900  29.298   8.509  24.054 -0.0457 -0.1339 -0.1530
 5988W        W48901  21.862  14.942  29.206 -0.1056 -0.0907 -0.2413
 5989W        W48902  32.946  10.511  25.487 -0.0300  0.0441 -0.2768
 5990W        W48903  31.970  19.707  24.873  0.0955  0.0276  0.0096
 5991W        W48904  22.295   4.843  29.764 -0.1493  0.2711  0.1047
 5992W        W48905   4.370  17.579   3.629 -0.0636 -0.3338  0.0526
 5993W        W48906  23.353  18.266  28.560 -0.0471  0.3943  0.1424
 5994W        W48907  21.339  13.715  17.306 -0.2589 -0.0999 -0.0794
 5995W        W48908  16.434  21.562  13.258 -0.0410 -0.1392 -0.1213
 5996W        W48909  14.473   0.218  18.744 -0.0917  0.0320 -0.1077
 5997W        W48910  30.410  21.735  23.033  0.0161 -0.1029  0.0675
 5998W        W48911   2.228  11.177  16.832 -0.3399  0.0495 -0.0962
 5999W        W48912  22.274  19.793  24.015 -0.0076  0.1873 -0.2550
 6000W        W48913  26.695   8.090   0.984 -0.0993  0.0266 -0.0585
 6001W        W48914  24.346   5.943  28.990 -0.0662 -0.1003 -0.0286
 6002W        W48915  19.966  21.290  24.081  0.0600 -0.0595 -0.1061
 6003W        W48916  31.790  21.462  28.969 -0.0360  0.0368 -0.1146
 6004W        W48917  21.371  15.687  20.741  0.2168 -0.2062  0.2087
 6005W        W48918  23.551  15.364  13.288  0.2100  0.1024 -0.0290
 6006W        W48919  22.809   8.640  24.353  0.2275  0.0816  0.1669
 6007W        W48920  30.478  24.906  20.377  0.3004  0.2342  0.2854
 6008W        W48921  19.925   6.127  21.050 -0.2807 -0.2016 -0.0559
 6009W        W48922  31.196  12.358  27.938 -0.3669 -0.1268 -0.0568
 6010W        W48923  26.972  23.540  21.551 -0.0982 -0.0943 -0.0762
 6011W        W48924   2.812  21.687  22.156 -0.0115 -0.1134  0.2113
 6012W        W48925  31.974  21.057  21.164  0.0030 -0.0742  0.0187
 6013W        W48926  22.371   5.984  16.902 -0.0507 -0.0156 -0.0089
 6014W        W48927  27.673   4.805  28.166 -0.2861  0.0623  0.1439
 6015W        W48928  31.724  26.328   3.349  0.0532  0.2264 -0.0243
 6016W        W48929  19.451  25.592  13.639 -0.1386 -0.1863 -0.1136
 6017W        W48930  24.258  26.888  27.145  0.1798  0.2108 -0.1165
 6018W        W48931   0.456  10.283  28.139  0.1376 -0.4143 -0.0809
 6019W        W48932  21.206  26.137  27.252 -0.4669 -0.0824  0.2347
 6020W        W48933  25.972  14.479  15.585 -0.1556  0.0667  0.1287
 6021W        W48934  21.744  13.992  20.423 -0.3246  0.0415 -0.0064
 6022W        W48935  27.719   3.902  27.396  0.0988  0.0734  0.2061
 6023W        W48936  30.559  17.474  27.804  0.1906 -0.0631 -0.0785
 6024W        W48937  20.766  17.679  28.317  0.0407 -0.1334  0.2212
 6025W        W48938   1.266  18.539  28.039  0.1595  0.1119 -0.1827
 6026W        W48939  22.713   4.370   0.920 -0.0698  0.2188 -0.2093
 6027W        W48940  18.090  16.306   1.620  0.2125 -0.1878 -0.1331
 6028W        W48941  18.675  21.769  13.037  0.0155 -0.1671  0.0779
 6029W        W48942  24.205  23.903  17.552  0.2071 -0.0434 -0.2246
 6030W        W48943  27.742  23.517  26.318  0.1441  0.1066 -0.1348
 6031W        W48944  24.314  19.190  23.209 -0.2376  0.1447 -0.2381
 6032W        W48945  31.301  13.606  22.459  0.1429 -0.4802 -0.0055
 6033W        W48946   6.220   7.822  18.262  0.1517  0.1920 -0.1861
 6034W        W48947  19.253   8.125  23.216 -0.1275  0.2081  0.1446
 6035W        W48948  28.727  19.917  26.447 -0.2414 -0.0867 -0.1643
 6036W        W48949  29.589  16.463  17.544 -0.0916 -0.1131  0.1422
 6037W        W48950  33.199  18.893  27.348  0.0857 -0.3419 -0.2812
 6038W        W48951  25.613  11.026   4.590 -0.6296 -0.0537 -0.0628
 6039W        W48952  33.616  21.338   0.437 -0.1887  0.0520 -0.0154
 6040W        W48953  24.502   4.945   4.998  0.0193  0.1303  0.0411
 6041W        W48954  33.181  15.386  15.296 -0.0921  0.0295  0.2092
 6042W        W48955  22.710  21.254  29.515  0.0202 -0.1705  0.2045
 6043W        W48956  26.626  14.055  27.629 -0.0538 -0.0505 -0.2452
 6044W        W48957  24.590  17.180  25.495 -0.2502 -0.2133 -0.2557
 6045W        W48958  25.940  10.041  21.251 -0.1120  0.1678  0.0430
 6046W        W48959  27.171  19.212  18.218 -0.0298 -0.1443 -0.2039
 6047W        W48960  29.647  18.376   2.131 -0.2248 -0.0451  0.0228
 6048W        W48961  31.183  13.365  24.240  0.0764  0.1895  0.2085
 6049W        W48962  28.635  16.822  20.368 -0.1272  0.2052  0.5122
 6050W        W48963  24.677  26.471  23.579  0.1083  0.0644  0.1952
 6051W        W48964  22.220  17.115   4.110  0.2482  0.0707  0.0289
 6052W        W48965  28.568  17.215  24.350 -0.3863 -0.1154  0.1139
 6053W        W48966  29.712  11.124  17.321  0.0980 -0.3205 -0.1284
 6054W        W48967  30.066   0.256  16.711 -0.2801  0.1386 -0.0804
 6055W        W48968  22.197  11.432  23.424  0.1800  0.1092 -0.0908
 6056W        W48969  19.112  16.493  22.272  0.1101 -0.0214  0.1344
 6057W        W48970  31.886  12.854  14.995  0.0417 -0.2062  0.3531
 6058W        W48971  26.919  19.011  14.296  0.0139  0.1654  0.0915
 6059W        W48972  31.198  10.704   5.798  0.1142 -0.0868 -0.2171
 6060W        W48973  15.766  31.277  21.169  0.1931 -0.1202  0.1586
 6061W        W48974  27.650  11.223  28.926 -0.1079 -0.0855 -0.2072
 6062W        W48975  14.797  17.455  28.768 -0.0188 -0.2234 -0.2872
 6063W        W48976  29.752  22.997  28.551 -0.0004  0.2031  0.0331
 6064W        W48977  25.146   8.942   6.242  0.0615  0.1079 -0.2055
 6065W        W48978  17.529   5.440  15.825 -0.5444  0.0414 -0.3134
 6066W        W48979  21.228   4.423  17.011  0.2625  0.0543 -0.0648
 6067W        W48980  21.676  17.335  17.443  0.1005  0.0262  0.1576
 6068W        W48981  34.423  16.618  27.822 -0.0563 -0.1259 -0.1267
 6069W        W48982  20.613  21.304   4.531 -0.0058 -0.1126  0.0057
 6070W        W48983  31.501  11.301  27.032 -0.3030  0.0144  0.0698
 6071W        W48984  31.931  13.163   1.259 -0.0591  0.0948  0.2106
 6072W        W48985  17.004  16.217  11.972 -0.1332  0.2412 -0.1590
 6073W        W48986  24.937  19.673  27.358  0.2866 -0.0023  0.1404
 6074W        W48987  25.865  33.260  19.302  0.0256  0.1922 -0.0922
 6075W        W48988  13.220   9.165   1.269 -0.1345  0.0473  0.0845
 6076W        W48989  26.608  15.496  21.284 -0.0479  0.1790  0.0618
 6077W        W48990  21.622  18.966  23.982 -0.0669 -0.1235 -0.1477
 6078W        W48991  31.409  20.757  27.386 -0.3359 -0.0883  0.2421
 6079W        W48992  31.118  13.638   5.082  0.2997  0.0598 -0.1038
 6080W        W48993  21.412  21.128   0.737 -0.2652  0.1251 -0.0746
 6081W        W48994  15.235  13.108  24.023  0.0436  0.0187 -0.2275
 6082W        W48995  17.808   3.268  23.809  0.2764 -0.0753 -0.3039
 6083W        W48996  25.775  17.682  20.873  0.2038  0.2970 -0.1647
 6084W        W48997  22.295  18.200  20.055 -0.1225 -0.0122 -0.1869
 6085W        W48998  29.569  17.406  16.024  0.0420  0.0402  0.0079
 6086W        W48999  25.875  20.144  19.001 -0.1459 -0.1262  0.3423
 6087W        W49000   0.390  11.156  21.545  0.0561 -0.0696 -0.1771
 6088W        W49001  25.225   0.885   4.520 -0.0382  0.2431  0.2082
 6089W        W49002  18.959  10.779  24.566 -0.1306 -0.0943  0.0469
 6090W        W49003   3.946  17.033  26.672 -0.1576  0.0494 -0.2500
 6091W        W49004  31.518  15.170  27.550  0.2160  0.2368  0.1628
 6092W        W49005  23.016  26.065  24.046  0.0130  0.1447  0.0361
 6093W        W49006  20.514  17.361  27.155 -0.2435 -0.1173  0.2615
 6094W        W49007  15.946   8.922  24.062 -0.0481  0.0205 -0.2702
 6095W        W49008  29.856   6.040  20.572  0.1893  0.1807  0.1705
 6096W        W49009   0.136  24.673  19.824  0.1033 -0.1189 -0.4886
 6097W        W49010  18.221  20.088  28.000  0.1123  0.2219  0.1408
 6098W        W49011  30.241  23.678   1.757  0.0742  0.0554  0.2790
 6099W        W49012  30.563  13.778  14.440 -0.2678  0.0808 -0.4296
 6100W        W49013  17.815   6.104  16.544  0.2530 -0.1978 -0.1805
 6101W        W49014  19.686  25.112  22.239  0.0578 -0.1476 -0.3746
 6102W        W49015  27.892   8.984  18.947  0.0825  0.1394 -0.1356
 6103W        W49016  29.131  12.404  25.679  0.3351 -0.0533  0.0007
 6104W        W49017  30.848  13.967  16.219 -0.2537 -0.2390 -0.1301
 6105W        W49018  23.889  29.913   1.146  0.0840  0.2880  0.1145
 6106W        W49019  28.549  16.513  26.268  0.1405  0.3760  0.0922
 6107W        W49020  22.825  12.095   1.930 -0.4308 -0.2309 -0.3617
 6108W        W49021  28.736  15.542  28.746 -0.2154  0.1544  0.0467
 6109W        W49022  22.692  18.185  16.201 -0.1539 -0.0128  0.1477
 6110W        W49023  33.207  21.386  29.407  0.1141 -0.0811  0.0066
 6111W        W49024  27.597   7.582  16.792  0.1959  0.1474 -0.0703
 6112W        W49025  19.896  18.727  23.463 -0.1440  0.0111 -0.2829
 6113W        W49026  31.216  21.626  14.249 -0.0034 -0.1536 -0.4518
 6114W        W49027  29.115  31.478  29.719  0.0085  0.1367 -0.1252
 6115W        W49028  31.034  17.682  26.614  0.2343  0.1475 -0.2013
 6116W        W49029  22.489  23.274  18.543  0.3817  0.2455  0.0048
 6117W        W49030  18.959  18.083   7.160 -0.1898  0.1193  0.2378
 6118W        W49031  20.246  16.986  16.883 -0.0937  0.0177 -0.1358
 6119W        W49032  20.532   9.962  19.622 -0.0211 -0.1499 -0.0847
 6120W        W49033  16.334   3.150  15.202  0.0541  0.0181 -0.0804
 6121W        W49034  30.533   6.188  18.368  0.3654  0.4782 -0.0903
 6122W        W49035  24.291  34.331   2.136 -0.3627 -0.0339  0.1514
 6123W        W49036  23.230  14.086  24.585 -0.1138  0.1856 -0.0985
 6124W        W49037  23.983  13.720  24.216 -0.2694  0.2368 -0.2267
 6125W        W49038  23.263  12.724   3.864 -0.0522 -0.0151  0.2061
 6126W        W49039  32.383  17.646  28.433  0.0558  0.0430 -0.0069
 6127W        W49040  22.113  13.559  16.612 -0.3186  0.1912 -0.1111
 6128W        W49041  16.987  21.663  29.237 -0.1828 -0.2521 -0.1708
 6129W        W49042  28.009  17.316  19.258  0.0611  0.3609  0.1873
 6130W        W49043  11.674  14.051  18.367  0.1803 -0.1971 -0.1729
 6131W        W49044  27.485  12.857  25.259  0.1270  0.2434 -0.1238
 6132W        W49045  17.908   8.191  19.849  0.1371  0.0092  0.0056
 6133W        W49046  15.965  30.340  29.401 -0.1833 -0.1058 -0.0720
 6134W        W49047  17.486  10.353  21.199  0.5128 -0.2919 -0.2284
 6135W        W49048  15.995  19.633   6.225 -0.3776 -0.0339  0.1819
 6136W        W49049  20.175  12.066  12.912  0.2225 -0.1129 -0.3151
 6137W        W49050  27.390  19.754  21.170 -0.3353 -0.1111  0.1192
 6138W        W49051  28.336   9.308  27.087  0.2438  0.0064  0.0428
 6139W        W49052  27.348  16.272  26.324 -0.4285  0.0606 -0.0738
 6140W        W49053  20.474  21.312   6.230  0.1719  0.0167  0.1045
 6141W        W49054  27.212  29.096  26.416  0.4386  0.0470 -0.1685
 6142W        W49055  18.089   9.919  16.321 -0.2423  0.1468  0.0790
 6143W        W49056  33.326  18.515   3.367 -0.0459  0.2753 -0.0954
 6144W        W49057  20.441  14.129   1.014 -0.1576 -0.0078 -0.2308
 6145W        W49058  19.161  11.158  17.559  0.0704  0.0044 -0.0154
 6146W        W49059  20.984  23.816  16.275  0.2705  0.2070  0.0796
 6147W        W49060  24.815  13.295  26.844 -0.1019  0.1161 -0.1014
 6148W        W49061  11.960  32.689  20.694  0.1018 -0.2049 -0.1379
 6149W        W49062  27.470  22.057  24.799  0.0764 -0.1146 -0.1942
 6150W        W49063  25.501  23.047  16.236  0.0965  0.2665 -0.1324
 6151W        W49064  24.574  27.189  23.536  0.1335  0.2287  0.0787
 6152W        W49065  23.243  26.022  23.603  0.0520  0.2427  0.0470
 6153W        W49066  29.212  13.016  16.104  0.0432 -0.0986 -0.2001
 6154W        W49067  19.905  19.846   2.591 -0.1769 -0.1986 -0.0877
 6155W        W49068   3.392  18.596  20.952 -0.0115 -0.0152  0.1171
 6156W        W49069  24.389  19.581  24.907  0.4136 -0.2159 -0.1479
 6157W        W49070   3.567  12.341  19.699 -0.1995  0.1147 -0.1311
 6158W        W49071  33.728  22.431  15.901  0.0698 -0.1791 -0.4769
 6159W        W49072  17.055  23.145  13.870  0.0931  0.1932  0.3884
 6160W        W49073  14.335  11.014  22.254 -0.1400  0.2758 -0.2216
 6161W        W49074  22.288  17.624  26.185  0.0941 -0.2039 -0.1728
 6162W        W49075  31.456  21.441  26.842 -0.1160 -0.2206  0.1736
 6163W        W49076  28.894  17.012   0.201  0.4270  0.1881  0.1682
 6164W        W49077  25.869  11.612   3.396  0.0356  0.2351  0.0614
 6165W        W49078   2.321  16.986   5.347  0.3928  0.3064  0.1789
 6166W        W49079  21.176  17.131  15.903  0.4236 -0.1821  0.1037
 6167W        W49080  18.941   7.998  21.309 -0.0324 -0.3415  0.2918
 6168W        W49081  27.237  24.256   2.066 -0.1235 -0.1219 -0.0080
 6169W        W49082  25.868  15.012  22.973 -0.3882  0.1169 -0.2272
 6170W        W49083  10.197  13.502   3.757 -0.5105 -0.1492 -0.1363
 6171W        W49084  13.357  15.733  28.654 -0.0339  0.3735  0.2257
 6172W        W49085  30.758  15.140  17.275  0.4559 -0.0217  0.0685
 6173W        W49086  30.514  15.758   0.214 -0.0566 -0.0464  0.0754
 6174W        W49087  18.594  20.512   2.797 -0.2832  0.0354  0.1611
 6175W        W49088  18.188   7.438  17.485 -0.2417  0.3644  0.0995
 6176W        W49089  25.101   8.224  17.995  0.1461  0.1536 -0.1807
 6177W        W49090  22.449   2.537  19.525 -0.2342 -0.1219 -0.1661
 6178W        W49091  33.498   9.096  18.800  0.0342 -0.0728  0.1872
 6179W        W49092  21.140   5.067   4.447 -0.2302  0.0398 -0.1434
 6180W        W49093  18.154  13.072  18.601  0.2934  0.2194  0.0734
 6181W        W49094  24.380  15.712  28.393  0.2731  0.2232  0.1864
 6182W        W49095  22.114   3.844  16.755 -0.2993  0.2826  0.0789
 6183W        W49096  18.392   2.788  19.566  0.0611 -0.1271 -0.1333
 6184W        W49097  25.311  18.778  26.117 -0.0015  0.0656 -0.1469
 6185W        W49098  19.927  16.118   7.485 -0.2226  0.2229  0.1392
 6186W        W49099  22.780  14.235   0.729 -0.2838 -0.1307  0.1173
 6187W        W49100  12.193  26.044  16.367 -0.0280 -0.0146  0.0343
 6188W        W49101  21.799  22.646  22.674 -0.0382 -0.1316 -0.1976
 6189W        W49102  31.105  14.182   0.263  0.0328 -0.3674  0.0764
 6190W        W49103  26.993  12.700  26.011  0.1875 -0.0173 -0.0039
 6191W        W49104   0.659  18.242  26.969  0.0498  0.0004  0.0754
 6192W        W49105  29.444  22.459  29.034  0.2577  0.0111  0.0546
 6193W        W49106  19.216  14.770   1.285 -0.2918  0.0638  0.1805
 6194W        W49107  27.097  21.117  25.427 -0.2528 -0.1053  0.0372
 6195W        W49108  22.058  17.757  18.511  0.0851  0.0953  0.1363
 6196W        W49109   1.330  17.942   1.928 -0.1583  0.0266  0.0557
 6197W        W49110  19.924   5.919  15.472 -0.3126 -0.0800 -0.0555
 6198W        W49111  18.486  13.690  15.280 -0.0552  0.0362  0.4336
 6199W        W49112  28.806  15.220  17.035  0.1589 -0.2805 -0.0831
 6200W        W49113  25.608  18.928  15.599  0.0058 -0.0447 -0.3099
 6201W        W49114  28.736  13.491  20.689  0.0770 -0.0731 -0.2786
 6202W        W49115  29.610  21.157  26.949  0.2625  0.2855  0.1106
 6203W        W49116  28.362  14.862  25.368 -0.2948  0.1484  0.2478
 6204W        W49117  13.338  17.870  25.157  0.0113  0.4650 -0.3986
 6205W        W49118  24.797  16.334   0.747  0.4788  0.4436  0.0619
 6206W        W49119  30.720  25.133  27.909  0.0289  0.1987  0.1130
 6207W        W49120  27.584  17.320   8.154  0.1715  0.4044  0.2405
 6208W        W49121  25.754  22.492  21.839  0.1321  0.2956  0.1490
 6209W        W49122  26.882   9.054  20.975 -0.1158  0.0126  0.1425
 6210W        W49123  30.888  20.389  14.885 -0.0167  0.2611  0.2474
 6211W        W49124  20.234  10.713  19.855 -0.1192  0.0235 -0.0114
 6212W        W49125  30.647  19.063  23.174 -0.1796 -0.0970 -0.1100
 6213W        W49126  23.958   8.097  24.618 -0.0852 -0.0252  0.2898
 6214W        W49127  24.301  20.257  22.136 -0.2423  0.0785 -0.3546
 6215W        W49128  26.812  12.177  13.818  0.0517  0.0586  0.0394
 6216W        W49129  31.052   9.387  19.135 -0.2205  0.1160  0.1796
 6217W        W49130  19.796  20.449  26.651 -0.2115 -0.1024  0.0163
 6218W        W49131  22.720  12.262  22.824  0.0408 -0.0613  0.0300
 6219W        W49132  32.206  23.503  20.159 -0.5711 -0.0368  0.3131
 6220W        W49133  31.325  18.220  27.524  0.1527  0.1558  0.2215
 6221W        W49134  29.675  17.498   4.598 -0.2359  0.0837 -0.1441
 6222W        W49135  30.852  12.374  28.351  0.1088 -0.1562 -0.1164
 6223W        W49136  27.637  19.182   0.908  0.1727  0.1799  0.0718
 6224W        W49137  23.611  12.030   2.772 -0.1781  0.1508 -0.0656
 6225W        W49138  18.648  28.064  23.752 -0.3387  0.1943 -0.2260
 6226W        W49139  16.550  12.180  14.630 -0.1338 -0.0374 -0.3430
 6227W        W49140  20.687   3.944  16.856 -0.0248 -0.0813 -0.2206
 6228W        W49141  23.689  10.345  20.417 -0.1292 -0.2972 -0.2286
 6229W        W49142  24.568  22.532  21.856  0.1350  0.0332  0.0323
 6230W        W49143   3.932  13.237  16.868  0.0067  0.0646  0.1102
 6231W        W49144  25.890  25.973  17.746  0.0568  0.0262  0.1533
 6232W        W49145  29.888  22.738  15.634 -0.3902 -0.1769 -0.1627
 6233W        W49146  29.125  22.597  13.982  0.0005  0.0720  0.3687
 6234W        W49147  17.429  20.321  26.113 -0.1294 -0.3303  0.0168
 6235W        W49148  24.396  24.721  24.903  0.0255 -0.3394 -0.1210
 6236W        W49149  24.055  23.770  27.036 -0.1292  0.2186 -0.1019
 6237W        W49150  24.793  10.034  14.906 -0.1509 -0.0591  0.2354
 6238W        W49151  33.779   8.425  19.471 -0.4162 -0.0684  0.1486
 6239W        W49152  28.038  11.995   0.006 -0.0603 -0.1022 -0.0939
 6240W        W49153  28.011  10.891  25.913 -0.2325  0.5934 -0.1453
 6241W        W49154  30.880  27.013  21.111  0.1615 -0.0490  0.0824
 6242W        W49155  21.092  10.852   0.178 -0.1074 -0.0516 -0.0271
 6243W        W49156  19.925  11.080  15.669 -0.0865 -0.0754  0.0447
 6244W        W49157  27.551  13.696  22.269 -0.0106  0.0833  0.1053
 6245W        W49158  22.710  15.283  20.796  0.1195  0.0202 -0.2245
 6246W        W49159  31.277  16.004  29.526 -0.1830  0.0177 -0.2189
 6247W        W49160  28.111  19.026  21.046  0.0762  0.0273 -0.0752
 6248W        W49161  16.060  27.084  24.914  0.0267  0.1213  0.2422
 6249W        W49162  26.478  22.082   1.831  0.0689 -0.3147 -0.1509
 6250W        W49163  23.693  20.558  27.376 -0.0875  0.2000  0.3020
 6251W        W49164   4.401  19.491  26.668  0.0937 -0.0777  0.0787
 6252W        W49165  27.777  26.802  20.830 -0.1973 -0.0792  0.0842
 6253W        W49166   4.760  20.144  16.546 -0.2695  0.0027  0.0132
 6254W        W49167  24.506   4.289  19.007  0.1485 -0.2018 -0.3378
 6255W        W49168  27.862  23.454  23.205 -0.1566 -0.2457 -0.1181
 6256W        W49169  25.852  20.812  13.860  0.2890  0.0663  0.0184
 6257W        W49170  22.227  18.574  13.503  0.1460  0.1808 -0.1829
 6258W        W49171  16.509   8.417  21.318  0.2027  0.2575  0.0160
 6259W        W49172  18.911  13.927   7.187 -0.0663 -0.0277 -0.1537
 6260W        W49173  22.405   7.266   4.209 -0.1060  0.0377  0.1113
 6261W        W49174  22.510  21.654  24.312  0.5998  0.0757 -0.1106
 6262W        W49175  26.496  20.406  19.905  0.0656 -0.5162  0.2240
 6263W        W49176  16.595   9.663   8.443  0.0134  0.3945 -0.0199
 6264W        W49177  27.646  20.813  23.476 -0.1353 -0.0546 -0.1659
 6265W        W49178  31.129  24.212  22.394 -0.3336 -0.1397 -0.0402
 6266W        W49179  22.014  13.132  29.267 -0.1309 -0.0477 -0.0373
 6267W        W49180  18.662  10.501  22.929 -0.1927  0.1034  0.2550
 6268W        W49181  26.180  19.719  23.270  0.0602 -0.4536 -0.3528
 6269W        W49182  18.056  10.960  25.962  0.0278  0.0618 -0.3824
 6270W        W49183  23.513   7.971  26.908 -0.1195  0.2321 -0.1852
 6271W        W49184   4.674  22.611  28.413  0.1341 -0.1070  0.1822
 6272W        W49185  29.876  16.996  13.387 -0.0331  0.1668  0.3782
 6273W        W49186  21.297  22.222   2.273  0.0548  0.1552  0.0882
 6274W        W49187  22.609  15.042  22.739  0.0640 -0.2146 -0.0184
 6275W        W49188  28.750  20.974  22.706 -0.2801 -0.3212 -0.0284
 6276W        W49189  20.023  23.032  24.821  0.3443 -0.0403  0.4276
 6277W        W49190  19.610  13.619  16.498 -0.3349  0.0812 -0.0197
 6278W        W49191  19.918   7.039   1.009 -0.2685  0.0860 -0.4315
 6279W        W49192  27.454  17.773  14.033  0.0634 -0.0395  0.3114
 6280W        W49193  27.701  26.264  14.934  0.1751  0.2998 -0.0179
 6281W        W49194  28.273  28.501  19.384 -0.1652  0.0188  0.0441
 6282W        W49195  18.825  15.678   1.111  0.2884 -0.0700 -0.1047
 6283W        W49196  22.339  19.386  24.335  0.1458 -0.3112  0.0104
 6284W        W49197  24.857  16.734  17.824 -0.0119  0.0205 -0.3925
 6285W        W49198  18.371  24.416  24.852  0.1304  0.0950  0.2102
 6286W        W49199  24.149  14.670  19.363  0.0807 -0.0550  0.1071
 6287W        W49200  20.398   1.252  22.922 -0.1251 -0.1064 -0.0061
 6288W        W49201  20.862  21.582  15.460  0.3216  0.0086 -0.0008
 6289W        W49202  17.444   1.478  18.117  0.0705  0.1545 -0.2247
 6290W        W49203   2.212  28.467   1.667  0.0466  0.1706  0.1384
 6291W        W49204  29.775   1.547   5.638 -0.1650  0.0879  0.0396
 6292W        W49205  30.944  16.876  21.090  0.1001 -0.0973  0.0142
 6293W        W49206  30.277  16.320  20.012  0.0333  0.0388  0.2932
 6294W        W49207  27.999  20.048  18.161 -0.1488  0.2554  0.2467
 6295W        W49208  22.271  17.037  22.607  0.2740  0.2843  0.1193
 6296W        W49209  27.957  18.159  20.569 -0.3535  0.1187 -0.2276
 6297W        W49210  14.873  24.826  19.629  0.3336  0.1124  0.1003
 6298W        W49211  16.396  23.875  26.524  0.0480 -0.1818  0.2347
 6299W        W49212  15.268  12.048  15.323 -0.0461 -0.2671 -0.1982
 6300W        W49213  30.526  24.228  21.137 -0.0761  0.1148 -0.0248
 6301W        W49214  16.900   9.876  20.140 -0.0622 -0.1326  0.0154
 6302W        W49215  27.703  10.500  24.901  0.2313 -0.0036 -0.1015
 6303W        W49216  24.045  22.044  24.090  0.1721 -0.1542 -0.3047
 6304W        W49217  29.670  19.232  21.315 -0.0491  0.2053  0.2969
 6305W        W49218  27.959  14.785  23.704 -0.0225 -0.6039  0.1031
 6306W        W49219  24.509  18.510  27.934 -0.2137 -0.0198 -0.0436
 6307W        W49220  30.804  11.818  20.688  0.0493 -0.2280  0.1203
 6308W        W49221  31.137  16.475  24.488 -0.2036  0.0732  0.2331
 6309W        W49222  19.654  18.431  24.627  0.0205 -0.0119 -0.1322
 6310W        W49223  12.737  14.580  13.629  0.1302 -0.0340 -0.1595
 6311W        W49224  10.341  11.776  14.906 -0.0189  0.2700  0.0430
 6312W        W49225  26.451  13.458  26.991 -0.1406  0.0857  0.0879
 6313W        W49226  18.078  26.012  19.356 -0.0779  0.0203  0.3512
 6314W        W49227  16.184  12.724  28.481  0.1688  0.0353  0.1856
 6315W        W49228  22.910  14.413  24.784 -0.3100 -0.1643 -0.2453
 6316W        W49229  26.544  13.071  20.700 -0.1984 -0.0520  0.0664
 6317W        W49230  26.547  15.628  29.506  0.0554 -0.3380  0.0005
 6318W        W49231  21.429  20.360   6.805  0.4355  0.1448 -0.1403
 6319W        W49232  31.050  24.854  27.595  0.0901  0.1717 -0.3396
 6320W        W49233  28.123  30.475  15.576  0.0277 -0.0399  0.0340
 6321W        W49234  21.462  12.764  25.547 -0.2950  0.0786 -0.4005
 6322W        W49235   0.312  15.162   2.896  0.1396 -0.1368  0.2543
 6323W        W49236  18.799  23.381  16.051 -0.0442  0.1097 -0.3446
 6324W        W49237  22.124  15.486  22.571 -0.1261  0.2297  0.2401
 6325W        W49238  20.164  14.082  21.598  0.1590  0.1033  0.0820
 6326W        W49239  28.111  30.267   1.818  0.0795  0.0634  0.0416
 6327W        W49240  19.617   5.261  20.123  0.2177 -0.1348  0.3543
 6328W        W49241  18.228  13.330  14.888 -0.1007 -0.0533 -0.2019
 6329W        W49242  27.199  22.372  27.372  0.2492  0.0050 -0.2476
 6330W        W49243  23.595  23.814  27.791 -0.1109  0.2336 -0.2867
 6331W        W49244  32.907  23.386  26.462  0.3024  0.2780  0.0955
 6332W        W49245   0.297  19.564  21.955  0.1674  0.1308 -0.1402
 6333W        W49246  13.366   5.879   6.111  0.0870  0.0952  0.0401
 6334W        W49247  11.337   3.978  26.290  0.2003 -0.1607  0.1566
 6335W        W49248  22.982  22.023   3.556  0.1036 -0.1536 -0.1473
 6336W        W49249  22.902  11.750  22.142 -0.2429 -0.1452 -0.0669
 6337W        W49250  32.441  24.752   3.316  0.3949 -0.1350  0.1362
 6338W        W49251  29.941  19.464  27.208 -0.1464  0.0431 -0.2232
 6339W        W49252  20.712  11.372  15.321  0.0131  0.5837 -0.0023
 6340W        W49253  27.647  16.552   0.034 -0.0956 -0.1372 -0.1862
 6341W        W49254  15.639  21.536  28.966  0.0646 -0.0219 -0.1393
 6342W        W49255  29.736  26.533  25.811 -0.0630 -0.0273 -0.1936
 6343W        W49256  11.914  27.234   3.508 -0.1188 -0.0086 -0.3861
 6344W        W49257  18.342   6.999  29.495  0.1040  0.0182 -0.1801
 6345W        W49258  13.779  25.232   3.794  0.2641 -0.5915  0.1795
 6346W        W49259  32.516  18.873  20.245 -0.0868 -0.0731 -0.0683
 6347W        W49260  30.142  28.178  22.053  0.0812 -0.2743  0.1147
 6348W        W49261  27.401  15.027  25.153 -0.1335  0.0428 -0.3672
 6349W        W49262  21.788  26.416  25.840 -0.1754  0.1525 -0.1704
 6350W        W49263   2.353  10.380  23.288 -0.1724  0.0722  0.1385
 6351W        W49264  21.546  30.334   3.274 -0.0137  0.0449  0.1154
 6352W        W49265  18.208  14.660  23.503 -0.2046 -0.2929 -0.0014
 6353W        W49266  24.884  17.955  22.079  0.0787 -0.1170 -0.3164
 6354W        W49267  16.975  18.642   4.602 -0.2080 -0.0902  0.0935
 6355W        W49268  13.709  23.726  20.814  0.1770  0.0553 -0.0335
 6356W        W49269   2.671  31.953  19.448  0.0342 -0.0689  0.0008
 6357W        W49270  30.184   9.577  21.293  0.4057  0.1972  0.0152
 6358W        W49271  20.451   5.808  15.737 -0.1871  0.1257  0.2174
 6359W        W49272  16.692   9.839   3.965  0.1436  0.1254 -0.0095
 6360W        W49273  27.069  23.621  23.717 -0.3907  0.0309 -0.0850
 6361W        W49274  29.238  19.596   0.748 -0.1160  0.0676 -0.3333
 6362W        W49275  18.183   3.184   5.603  0.1201  0.3629 -0.1963
 6363W        W49276   4.849  14.209  24.512  0.0420  0.1778 -0.1403
 6364W        W49277  23.852  14.621  17.426  0.0628  0.2070 -0.2826
 6365W        W49278  19.502  30.814  26.066  0.2434 -0.0328 -0.0364
 6366W        W49279  21.191  21.705  23.307 -0.0490 -0.2944  0.2052
 6367W        W49280  21.967  26.077  24.098  0.1714 -0.0712  0.0441
 6368W        W49281  24.711  16.457  13.766 -0.0755 -0.2157 -0.0393
 6369W        W49282   0.142  16.614   4.508 -0.0061 -0.2213 -0.0561
 6370W        W49283  27.440  14.728   0.466 -0.0056 -0.0070  0.0530
 6371W        W49284  25.605  15.038  23.388 -0.2263  0.0456  0.1131
 6372W        W49285  13.537  16.326   1.120 -0.0340 -0.0271  0.0306
 6373W        W49286   0.475  16.985  19.359 -0.0934  0.2238  0.0995
 6374W        W49287  18.820   7.369  26.202  0.2396  0.4027  0.1095
 6375W        W49288  18.216   9.991  24.475 -0.1725 -0.1133 -0.0202
 6376W        W49289  29.331  13.705   0.485 -0.0443 -0.0694 -0.2420
 6377W        W49290  27.002   2.389  28.533  0.2724 -0.0274 -0.3643
 6378W        W49291  22.938  14.929  27.614  0.2781 -0.1534 -0.2525
 6379W        W49292  33.905  28.026  27.623  0.1521  0.3350  0.1189
 6380W        W49293  20.051   1.776   9.046  0.2663  0.0032 -0.1437
 6381W        W49294  22.072  14.163  17.704  0.0008  0.0253  0.3327
 6382W        W49295  20.673  19.806  23.428 -0.1740 -0.4412  0.0281
 6383W        W49296  28.146  14.594  18.509  0.0560  0.0816  0.1876
 6384W        W49297  21.557  10.874  19.057  0.1501  0.0735  0.1845
 6385W        W49298  28.195  19.473  18.583 -0.0876  0.6370  0.0463
 6386W        W49299  33.521  15.576   0.662 -0.4837  0.1439  0.3399
 6387W        W49300  29.034  19.333  24.074  0.0448  0.0024  0.2549
 6388W        W49301  24.043  22.206  27.599 -0.3648 -0.2654 -0.0248
 6389W        W49302  16.191  15.894   5.091 -0.0628  0.2370  0.1891
 6390W        W49303  28.332  17.295  26.127  0.4313  0.1102  0.1131
 6391W        W49304  23.015  22.562   0.471 -0.3414  0.0892  0.3820
 6392W        W49305  24.304  17.401  16.494  0.0591  0.1235  0.5776
 6393W        W49306  19.732  17.755  29.126 -0.0173  0.1004  0.2261
 6394W        W49307  32.345  21.562  26.879  0.3577 -0.3534  0.3081
 6395W        W49308  27.258  16.052  20.856  0.2594  0.1141 -0.1227
 6396W        W49309   8.366  27.349  19.213 -0.0718  0.0455  0.0567
 6397W        W49310  26.075  24.295   3.375 -0.2176 -0.1275  0.1710
 6398W        W49311  21.798  18.890   6.641  0.0875 -0.2595  0.2015
 6399W        W49312  28.324   7.785  20.305 -0.2526  0.0642 -0.2449
 6400W        W49313  19.383   5.231  28.531 -0.0327 -0.0251 -0.2731
 6401W        W49314  16.632   9.211  26.368  0.2130  0.5259 -0.1044
 6402W        W49315  14.001  11.176  17.726 -0.2992 -0.0270  0.0517
 6403W        W49316  33.453  14.094  23.009 -0.1531 -0.0552 -0.2959
 6404W        W49317  18.917  17.219  23.542  0.0779 -0.4755 -0.1173
 6405W        W49318  34.402  20.663  27.841  0.3016  0.0616  0.3203
 6406W        W49319  28.583  26.515   8.808  0.1627  0.2838 -0.0127
 6407W        W49320  17.013   6.525  27.865 -0.0389  0.2462  0.1992
 6408W        W49321  21.543  17.855  24.134  0.2235  0.0929 -0.2741
 6409W        W49322  12.952  33.375   8.166  0.2628  0.1007 -0.1107
 6410W        W49323  20.726  13.934  24.366 -0.0492  0.1503 -0.1821
 6411W        W49324  24.008  21.901  17.118 -0.0873 -0.0200 -0.0176
 6412W        W49325  34.199  23.206  27.852  0.2983  0.0938 -0.1267
 6413W        W49326  27.376  12.514  27.229 -0.0355 -0.2997  0.0675
 6414W        W49327  22.236  18.109   1.138  0.0955 -0.3494 -0.3040
 6415W        W49328  27.340  18.306   6.702  0.2240  0.0182 -0.1798
 6416W        W49329  25.386  10.225  21.001  0.0120  0.2990  0.2153
 6417W        W49330  19.726  25.550   6.559  0.1175 -0.0411 -0.0743
 6418W        W49331  25.183  22.690  29.228  0.0126 -0.0358  0.0602
 6419W        W49332  21.359  14.386  18.754  0.1208  0.0643 -0.1222
 6420W        W49333  26.938  23.906   3.019 -0.2766 -0.2030 -0.2136
 6421W        W49334   7.956  26.622  28.579 -0.1277 -0.0926  0.0708
 6422W        W49335  16.870  14.008   7.746 -0.1616 -0.0738 -0.0568
 6423W        W49336  25.529   4.293  26.451  0.2219 -0.0809  0.0623
 6424W        W49337  19.185  12.312  27.820  0.0436 -0.2517  0.1052
 6425W        W49338  26.931  18.380   2.343 -0.3808 -0.0645 -0.2950
 6426W        W49339  26.892  15.177  26.111 -0.0449 -0.0138  0.0677
 6427W        W49340  22.904  14.462  26.609  0.0296 -0.2215  0.1332
 6428W        W49341  23.436  16.766   7.251 -0.0953 -0.0639 -0.0293
 6429W        W49342  21.170  18.087  20.168  0.0323 -0.0572 -0.0582
 6430W        W49343  21.324   1.187  16.229 -0.2656  0.0026  0.0061
 6431W        W49344  26.486  12.898  27.119  0.3603  0.0863 -0.1882
 6432W        W49345  20.146  22.529  23.378 -0.2267  0.0895  0.1340
 6433W        W49346  24.586  30.344   6.572  0.0421  0.0545  0.1867
 6434W        W49347  16.452  14.475  22.940 -0.0027 -0.0673 -0.0907
 6435W        W49348  26.047  14.188   0.437 -0.1284  0.0670  0.0929
 6436W        W49349  18.135  16.797   3.221 -0.2586  0.3014  0.2036
 6437W        W49350   2.005  14.114  26.725  0.1959  0.2252 -0.0198
 6438W        W49351  28.251   4.863  25.624 -0.1625  0.1205 -0.0190
 6439W        W49352  22.197  23.649   5.986 -0.0397  0.0103 -0.0256
 6440W        W49353  17.159  16.154  13.776 -0.0152  0.0825 -0.0105
 6441W        W49354  28.503  14.329  27.597 -0.1220 -0.3229 -0.1027
 6442W        W49355  30.081  12.773  26.740 -0.0537  0.3018 -0.0879
 6443W        W49356  28.851  22.980  25.703 -0.1076  0.1404  0.0246
 6444W        W49357  20.972  19.850   0.930  0.0539 -0.3106 -0.4053
 6445W        W49358   0.001  15.561  22.894  0.1152 -0.0949  0.1327
 6446W        W49359   7.501   9.712   0.105  0.0152  0.2892  0.0129
 6447W        W49360  13.551  18.575  20.107 -0.2255 -0.1917 -0.1018
 6448W        W49361  28.049  17.445  24.668  0.2801 -0.4958  0.0864
 6449W        W49362   0.981  15.056  14.707 -0.0239 -0.0995 -0.0312
 6450W        W49363  22.836  18.881  18.688  0.0329  0.0379  0.0925
 6451W        W49364  15.841  26.422  22.265  0.1858  0.0633  0.2439
 6452W        W49365  27.159  19.236  22.187 -0.1889  0.1000 -0.0568
 6453W        W49366  30.267  14.435  25.684 -0.2411 -0.0328  0.1091
 6454W        W49367  11.625  23.480   2.522  0.1319 -0.0836 -0.1373
 6455W        W49368  19.872  17.809  27.432 -0.0929  0.1779  0.1850
 6456W        W49369  19.417  20.588  28.544 -0.0669 -0.0898 -0.0267
 6457W        W49370  19.914  17.177  25.502 -0.1560 -0.0914 -0.0232
 6458W        W49371  20.095  18.630   4.329 -0.2136  0.1444  0.0733
 6459W        W49372   2.882  21.627  17.914 -0.2830 -0.1458  0.0236
 6460W        W49373  30.568  24.071  14.962  0.1539 -0.0587 -0.3541
 6461W        W49374  26.389  10.826  27.995 -0.0614  0.0192 -0.1474
 6462W        W49375  33.319  15.034   5.012 -0.1390  0.1466  0.1794
 6463W        W49376  21.095  25.623  25.235  0.1624 -0.0987 -0.0118
 6464W        W49377  27.834  18.415  20.103 -0.0154  0.0529  0.1817
 6465W        W49378  32.362  22.885   3.282 -0.2005  0.2060 -0.0271
 6466W        W49379  18.652  13.626  26.478  0.3202 -0.4274 -0.0737
 6467W        W49380  20.474  10.539   1.946 -0.0799 -0.3046  0.1607
 6468W        W49381  15.032   9.497   7.095 -0.1676 -0.3251  0.0099
 6469W        W49382  29.184  18.464   2.056 -0.1517 -0.1026  0.0232
 6470W        W49383  14.493  10.387  18.766 -0.0741  0.1188 -0.2189
 6471W        W49384  23.733  15.790   3.030 -0.0620  0.1429  0.1906
 6472W        W49385  22.972  22.323  12.799  0.1080  0.1922  0.0631
 6473W        W49386  19.680  20.585  27.977 -0.0518 -0.1490  0.2804
 6474W        W49387  27.261  15.129  29.419  0.1510 -0.1273  0.1264
 6475W        W49388  16.388   8.536   1.641 -0.0977  0.1276 -0.1617
 6476W        W49389  28.348  12.191   1.084 -0.0816  0.4047  0.1823
 6477W        W49390   1.963  23.152   1.387  0.0905 -0.1129 -0.1851
 6478W        W49391  26.628  20.306   2.901 -0.0587 -0.0022 -0.2281
 6479W        W49392  21.223  15.554   4.679  0.1551 -0.0654 -0.0255
 6480W        W49393  28.978  13.811  24.549  0.1555 -0.0777 -0.0219
 6481W        W49394  29.566  15.290  14.155  0.1645 -0.1263 -0.1740
 6482W        W49395  22.504   8.401  29.476 -0.0205  0.0194  0.0372
 6483W        W49396  27.330  24.040  26.033  0.5424  0.0894  0.0360
 6484W        W49397  25.229  16.255  20.654 -0.0869  0.0749  0.0586
 6485W        W49398  28.331  17.310  21.806 -0.0226 -0.1736  0.2650
 6486W        W49399  32.096   5.953   8.326  0.0299  0.0236 -0.1637
 6487W        W49400  25.163  25.239  13.041  0.1613 -0.0773 -0.1181
 6488W        W49401  29.702  10.598   4.982  0.0223 -0.0117 -0.0539
 6489W        W49402  26.100  21.454  23.961  0.2551 -0.0454  0.1849
 6490W        W49403  24.111  23.065   3.691 -0.1903 -0.0951 -0.0092
 6491W        W49404  15.936  15.991   7.439 -0.0979  0.1568 -0.3907
 6492W        W49405  18.875   8.693   0.012 -0.1241  0.3768 -0.1255
 6493W        W49406   0.184  15.202   4.824  0.0034  0.1356  0.3025
 6494W        W49407  20.491  22.511   3.644 -0.1113  0.1557 -0.1548
 6495W        W49408  24.880  25.226  22.187  0.1231  0.1248  0.4870
 6496W        W49409  22.023  23.218  24.353  0.1165 -0.1817  0.0288
 6497W        W49410  19.342  20.241  21.727 -0.5272  0.2019 -0.0275
 6498W        W49411  14.119  25.122   8.090  0.0102  0.0395 -0.3964
 6499W        W49412  21.008  13.156  28.283 -0.1435 -0.1072 -0.0607
 6500W        W49413  26.874  10.202   3.580  0.4296 -0.0997  0.0128
 6501W        W49414  13.030  21.110   0.853  0.0052 -0.0540 -0.1370
 6502W        W49415  27.978  15.680  25.525 -0.0602 -0.2013  0.1115
 6503W        W49416  28.946  28.015  19.958 -0.0279  0.4019  0.0403
 6504W        W49417  33.252  16.018   6.794 -0.1975  0.0262  0.0519
 6505W        W49418  19.833  20.573   1.520 -0.1404 -0.2780  0.3966
 6506W        W49419  21.062   0.053  26.765 -0.4428 -0.1330 -0.0077
 6507W        W49420  19.788  11.058  29.164 -0.2162 -0.1205  0.3217
 6508W        W49421  12.928  13.739  22.907 -0.6512 -0.1710 -0.0640
 6509W        W49422  18.238  16.313  28.205 -0.1818  0.1848 -0.0396
 6510W        W49423  33.523   8.695   1.211  0.1764 -0.0488  0.0368
 6511W        W49424  24.071  12.052  15.799 -0.0644 -0.0463 -0.2209
 6512W        W49425  23.206  22.981  19.367  0.0078  0.2394  0.1624
 6513W        W49426  20.343  16.388  24.040  0.0837 -0.1634  0.1321
 6514W        W49427  33.787   7.200  24.624  0.1589 -0.2137 -0.3760
 6515W        W49428  25.066  26.035  23.096 -0.2712  0.2059  0.3012
 6516W        W49429  23.339  27.437   3.049 -0.2100 -0.0615  0.0607
 6517W        W49430  33.141   7.827  25.188 -0.4301 -0.0723  0.0539
 6518W        W49431  31.031   6.542  20.920 -0.0721 -0.0980 -0.0344
 6519W        W49432  22.417  19.301  23.840 -0.3292  0.0124  0.1841
 6520W        W49433  13.427   7.984   8.435 -0.0449 -0.0055 -0.0246
 6521W        W49434  31.812  14.844  27.182 -0.1463  0.0051  0.0109
 6522W        W49435  16.447  14.824  26.605 -0.0576  0.0477 -0.0361
 6523W        W49436  16.697  24.529   7.159 -0.0116  0.0253  0.2825
 6524W        W49437  17.835  19.632  24.276 -0.1548 -0.0956 -0.2337
 6525W        W49438  21.974  10.957  22.314 -0.0262  0.0053  0.1996
 6526W        W49439  34.315   0.342  16.415  0.0060  0.1869  0.0256
 6527W        W49440  29.616  21.269  28.862 -0.0936 -0.1420  0.1163
 6528W        W49441  21.848  16.278  22.831  0.2466 -0.3611 -0.1163
 6529W        W49442  19.752  23.038   1.727  0.4121 -0.0725 -0.0241
 6530W        W49443  23.582   7.321  22.637  0.1849 -0.1399  0.0170
 6531W        W49444  15.144  23.466  29.474 -0.2616  0.1313 -0.2926
 6532W        W49445  17.810  14.344  23.948  0.1030  0.1252  0.1407
 6533W        W49446  28.397  14.227   1.362 -0.2544 -0.0960  0.3528
 6534W        W49447  16.113  22.001  25.203  0.3346 -0.2321  0.3366
 6535W        W49448  11.136  34.292  27.129  0.0326 -0.1865  0.2798
 6536W        W49449  32.641  14.762  22.811 -0.1357  0.0740 -0.2145
 6537W        W49450  16.207  11.611  23.776 -0.1473 -0.1498 -0.3549
 6538W        W49451  21.996  14.167  24.929 -0.0127 -0.0438  0.2184
 6539W        W49452  26.891  17.803  21.890 -0.0095 -0.0898 -0.0903
 6540W        W49453  13.107  13.265  27.552 -0.0591  0.3821  0.0342
 6541W        W49454  26.098  26.816  26.720  0.2470  0.1556  0.3596
 6542W        W49455   2.500  20.584   1.774  0.2655 -0.1310 -0.0729
 6543W        W49456  25.832  24.506  19.377 -0.1744  0.1149 -0.2207
 6544W        W49457  22.680  13.089   9.369 -0.3080 -0.3355 -0.4110
 6545W        W49458  19.611  13.662  23.586 -0.0080  0.3325 -0.0066
 6546W        W49459  25.173  22.174  25.016 -0.0861  0.0726 -0.0194
 6547W        W49460  24.151  24.489  27.543  0.1232 -0.0715  0.4453
 6548W        W49461  20.787  16.733   2.457 -0.2105  0.2563 -0.2404
 6549W        W49462  26.261  11.804   0.813  0.1258 -0.1071  0.1828
 6550W        W49463  17.773  19.997   0.820 -0.2124  0.0065 -0.2484
 6551W        W49464   0.024  15.743   2.516  0.0093  0.2623  0.3349
 6552W        W49465  12.827  16.453   2.794 -0.1345 -0.3116 -0.0831
 6553W        W49466  23.187  14.647  25.559  0.0116  0.0599 -0.1359
 6554W        W49467  25.165  19.307  20.090  0.1216 -0.1047  0.1139
 6555W        W49468  22.093  14.629  27.195 -0.1858 -0.2727  0.2321
 6556W        W49469   6.155   9.472   5.784  0.0289 -0.0061 -0.1120
 6557W        W49470  15.562  12.283  20.414 -0.1248 -0.2286 -0.0136
 6558W        W49471   8.843  12.477  26.407  0.1543 -0.3128 -0.0448
 6559W        W49472   0.588  10.307  26.147  0.1959 -0.1930  0.1400
 6560W        W49473  18.909  18.917  21.919  0.2503 -0.0664 -0.1092
 6561W        W49474  21.915  16.078   2.568 -0.0434  0.2846 -0.1313
 6562W        W49475  29.412  13.570   1.799  0.0846  0.0084  0.1321
 6563W        W49476  25.367  19.828  27.640 -0.0605 -0.2983 -0.3894
 6564W        W49477  28.543  20.254   3.025  0.3838 -0.2379  0.2554
 6565W        W49478  25.802  20.901  21.143 -0.3058  0.1177  0.0318
 6566W        W49479  25.398  13.170   8.987  0.1802  0.0551  0.2147
 6567W        W49480  20.828  26.740   4.542 -0.0552 -0.0802 -0.0909
 6568W        W49481  26.404  14.633   9.478  0.1791  0.2437  0.4319
 6569W        W49482  14.205  19.666  20.601 -0.0380 -0.2144 -0.3961
 6570W        W49483  12.567  11.223  28.412 -0.0804  0.1112 -0.1962
 6571W        W49484  23.466  10.517  20.905 -0.1491 -0.0654  0.3513
 6572W        W49485  26.764  25.376  18.308 -0.2527 -0.0822 -0.3585
 6573W        W49486  29.993  10.034  21.611 -0.1312  0.1033 -0.1362
 6574W        W49487  20.290  26.215   8.838 -0.0491  0.1399  0.0003
 6575W        W49488  24.564   6.306  29.278 -0.0572  0.1185  0.1743
 6576W        W49489  18.011  23.896   0.754  0.0834 -0.0982  0.1375
 6577W        W49490  19.051  17.787  28.559  0.1192  0.1485  0.1845
 6578W        W49491  23.274  17.487   3.156 -0.1713  0.2929  0.3619
 6579W        W49492  20.320  13.379   2.858 -0.2823 -0.0496  0.1760
 6580W        W49493  22.900  20.514  27.811 -0.0376  0.1885 -0.0214
 6581W        W49494  30.493  20.591   4.568 -0.0976  0.0823 -0.2072
 6582W        W49495  18.773   0.561  17.635 -0.2353  0.4755  0.1490
 6583W        W49496  11.457   8.909   3.060 -0.1729 -0.0742  0.1743
 6584W        W49497  19.211  21.244   4.047  0.0113  0.0721 -0.0373
 6585W        W49498  20.512  16.571  26.461 -0.0494 -0.3625 -0.0575
 6586W        W49499  21.017  27.750  17.396 -0.0511  0.2878 -0.1217
 6587W        W49500  24.170  22.474  26.335  0.0335  0.0948 -0.0436
 6588W        W49501  10.920  12.563   9.104 -0.0422 -0.0795  0.1006
 6589W        W49502  30.593   7.635  23.331 -0.2396  0.0275  0.0983
 6590W        W49503  18.611  11.872  26.334 -0.0608  0.2324 -0.1197
 6591W        W49504  14.457  18.641  20.320 -0.0685 -0.1181  0.3642
 6592W        W49505  22.332  11.242  24.748  0.2878 -0.1241 -0.3214
 6593W        W49506  19.704   8.017  23.791 -0.1958 -0.1452  0.2947
 6594W        W49507  27.874  17.114  23.076  0.0423 -0.1750  0.3784
 6595W        W49508  22.492  20.011   8.640  0.1172  0.0959 -0.0388
 6596W        W49509  20.590  14.935  24.856 -0.1317 -0.0328 -0.1675
 6597W        W49510  18.988  22.180  14.615  0.1408  0.2923  0.2003
 6598W        W49511  24.324  12.336   6.737  0.2884 -0.2698  0.2536
 6599W        W49512  15.978  10.407  19.953 -0.1558  0.4860 -0.2411
 6600W        W49513  18.685   4.579   3.608  0.0943  0.1454  0.0949
 6601W        W49514  21.660  17.807  23.192 -0.1284 -0.1358 -0.3988
 6602W        W49515  15.910  29.350   8.651 -0.0582 -0.2376  0.0683
 6603W        W49516   0.255   5.453   3.545 -0.0553 -0.3095 -0.2500
 6604W        W49517  27.232  13.240   0.391  0.2397  0.0555 -0.1673
 6605W        W49518  23.581  18.708  19.990  0.0023 -0.3548  0.2016
 6606W        W49519  20.781  26.062   6.517 -0.0044  0.2706 -0.0768
 6607W        W49520  10.935  20.835  20.700  0.0464 -0.0980  0.4508
 6608W        W49521  21.587  11.724  25.278 -0.1561 -0.4527  0.1033
 6609W        W49522  22.009  18.228  22.856  0.1804  0.0965  0.3708
 6610W        W49523  24.789  24.746  20.520 -0.0455 -0.2031 -0.0214
 6611W        W49524  19.147  23.114   2.672  0.0979 -0.0304 -0.2168
 6612W        W49525  30.130  12.367  24.190  0.2240  0.3992  0.1713
 6613W        W49526  22.956  23.576  20.083 -0.0062  0.1025 -0.0759
 6614W        W49527  18.609  19.488   2.614  0.1526  0.1234 -0.3190
 6615W        W49528  21.154  13.261  18.572 -0.1096 -0.2755  0.0976
 6616W        W49529  11.939  11.355  27.717  0.1204 -0.0987 -0.0230
 6617W        W49530  25.109  22.766  27.791  0.0380  0.3692 -0.1430
 6618W        W49531  33.910  16.184  28.250 -0.1378 -0.0357  0.0797
 6619W        W49532  28.755  15.635  13.929 -0.1963 -0.0747 -0.0935
 6620W        W49533  18.786  15.755  27.588  0.3698 -0.1754 -0.2258
 6621W        W49534  11.567  18.741  15.593 -0.0690  0.0276 -0.2991
 6622W        W49535  32.478  12.132  20.247  0.1140  0.3451  0.0543
 6623W        W49536  21.718  20.093  27.175 -0.0333  0.0772 -0.0591
 6624W        W49537  24.140  21.774   3.131  0.0824  0.0771  0.2575
 6625W        W49538  22.515  18.751   1.441 -0.0329 -0.0378 -0.1148
 6626W        W49539  25.382  11.561   6.432  0.2603 -0.2178 -0.0022
 6627W        W49540  17.789   9.880  23.190  0.1109 -0.3366  0.3688
 6628W        W49541  17.450  12.762  25.148  0.0390  0.0035 -0.2218
 6629W        W49542  21.245   7.251  29.036  0.2324 -0.1762 -0.0846
 6630W        W49543  18.711   8.844  23.299  0.0084 -0.0230  0.3016
 6631W        W49544  29.376  20.833  29.034  0.0470 -0.0225  0.1050
 6632W        W49545  23.043  16.585  15.532 -0.0677  0.2205  0.0852
 6633W        W49546  26.639  17.334  22.617 -0.2296 -0.0160  0.2421
 6634W        W49547  33.346  13.208  28.172 -0.2159 -0.0142  0.0764
 6635W        W49548  32.113  16.069   9.385  0.1367 -0.2121  0.1074
 6636W        W49549  16.403  25.585  26.595  0.1100 -0.2280 -0.0746
 6637W        W49550  19.761  19.370   8.182  0.1078  0.2435 -0.1260
 6638W        W49551  13.952  16.102   4.409 -0.1879 -0.3620  0.1761
 6639W        W49552  25.757  22.309  15.898  0.2206 -0.1349  0.0009
 6640W        W49553  31.139  16.134  13.774 -0.0455 -0.3537 -0.2624
 6641W        W49554   9.841   6.943  28.602 -0.0922 -0.0007  0.4085
 6642W        W49555  15.868  12.162   1.712 -0.1164 -0.1526  0.1773
 6643W        W49556  25.393   9.214  23.450 -0.1035  0.0603  0.0678
 6644W        W49557  17.880   5.982  24.764  0.1795  0.0283 -0.0292
 6645W        W49558  25.170   2.759   2.585 -0.1443 -0.1274  0.0912
 6646W        W49559  23.772  28.122  21.980  0.2115  0.3399 -0.0420
 6647W        W49560  22.296  14.709  25.759 -0.0775  0.2036 -0.2381
 6648W        W49561  22.236  22.253  28.506 -0.2414 -0.0325  0.0082
 6649W        W49562  27.037  11.578  19.895  0.1593  0.1194  0.0292
 6650W        W49563  22.534  31.833   0.875 -0.1167  0.0067  0.1784
 6651W        W49564  33.166  17.397  24.999  0.1066 -0.2228 -0.3096
 6652W        W49565  30.353  21.317  21.665 -0.1429  0.2521 -0.0408
 6653W        W49566  22.003  10.203  24.402 -0.0295 -0.0379 -0.0440
 6654W        W49567  28.950   8.296   2.509  0.1360 -0.3227  0.0045
 6655W        W49568  22.615  21.032  26.453  0.2083  0.0369 -0.5210
 6656W        W49569  28.022  17.792  27.359 -0.0366  0.2034 -0.2535
 6657W        W49570  18.107  20.814  20.701 -0.1231  0.4536  0.3717
 6658W        W49571  21.983  17.805  20.162 -0.0962 -0.1939  0.0679
 6659W        W49572  26.140  13.917  26.814  0.2057 -0.3938 -0.0291
 6660W        W49573  18.127  18.685   1.650 -0.1294  0.0081 -0.0534
 6661W        W49574  32.176   0.382  27.222 -0.1781  0.3134 -0.1938
 6662W        W49575  33.063  23.355   4.998 -0.2259 -0.1172  0.5347
 6663W        W49576  27.579  19.360   7.686 -0.1882  0.0376  0.3522
 6664W        W49577   5.565  11.341   0.860 -0.2756 -0.0294 -0.0214
 6665W        W49578  32.962  31.516  23.701  0.1225  0.2865  0.0021
 6666W        W49579  19.244  20.451   0.088  0.2761  0.1492 -0.0382
 6667W        W49580  25.988  20.944  22.933  0.0136  0.1958  0.3447
 6668W        W49581  22.547  26.546   0.072 -0.2886  0.1580  0.3424
 6669W        W49582  13.973   2.213  26.845 -0.1603  0.0683  0.1502
 6670W        W49583  21.133  24.089  22.292 -0.0500  0.2271  0.0802
 6671W        W49584  29.440  28.691   2.386 -0.0203 -0.0394 -0.0968
 6672W        W49585  22.417  20.547  22.986 -0.0791  0.0315 -0.1771
 6673W        W49586  20.983   3.416  27.019 -0.2867 -0.0871 -0.0983
 6674W        W49587  18.628   9.500  16.460  0.0494 -0.1904 -0.3158
 6675W        W49588  26.391  30.710   3.786 -0.2137 -0.1966 -0.4287
 6676W        W49589  26.304  17.979   1.814 -0.0379  0.4564 -0.2029
 6677W        W49590  26.194  14.391  14.820 -0.0555 -0.1600  0.0974
 6678W        W49591  29.927  10.288  17.961  0.1721  0.4798  0.0360
 6679W        W49592  24.362  16.171   8.887  0.3701 -0.4098  0.2474
 6680W        W49593  31.971  13.029  27.604 -0.1560  0.1046 -0.0204
 6681W        W49594  12.028  14.704  20.738  0.2506  0.3377  0.1914
 6682W        W49595  21.603   8.499   6.047 -0.5107  0.0897  0.2628
 6683W        W49596  22.645  18.265   1.378 -0.0493  0.3317 -0.0503
 6684W        W49597  14.654  11.863   7.680 -0.1507  0.2572  0.0446
 6685W        W49598  24.802  17.407   0.029 -0.1024  0.3068  0.0181
 6686W        W49599  16.220  21.096  14.210  0.2832 -0.4963  0.3205
 6687W        W49600  18.620  18.847  26.560 -0.0666  0.0743  0.0551
 6688W        W49601  30.711  18.123   8.728  0.0849  0.0036 -0.0503
 6689W        W49602  23.615  10.286  29.208  0.1366 -0.3226  0.0030
 6690W        W49603  13.107  34.226   1.022 -0.1192 -0.0594 -0.0517
 6691W        W49604  23.066  13.618   2.012  0.0465 -0.2930  0.2456
 6692W        W49605  21.156  15.043  27.883 -0.0042 -0.0969 -0.4100
 6693W        W49606   1.909  10.544  27.083  0.1297  0.0238  0.1550
 6694W        W49607  16.753  15.049  22.269 -0.4190  0.1510  0.2519
 6695W        W49608  17.972  10.531   6.832 -0.0974 -0.0099  0.0058
 6696W        W49609  28.478  14.575   9.102  0.1094  0.0923  0.4356
 6697W        W49610  25.354  10.652  26.421 -0.2277 -0.1640  0.0826
 6698W        W49611  13.119  14.141  17.866  0.1861  0.4130 -0.0490
 6699W        W49612  23.979  15.810  19.458 -0.1164  0.0868  0.0198
 6700W        W49613  22.633  16.044   0.346  0.0861 -0.1875  0.0658
 6701W        W49614  21.782  18.605  20.806  0.3073 -0.0879  0.0585
 6702W        W49615  18.199  11.433  21.869  0.2969  0.2425 -0.4271
 6703W        W49616  19.887  13.290   3.756  0.2146 -0.2169 -0.2423
 6704W        W49617   4.120  14.090  28.681  0.2527  0.2526  0.1756
 6705W        W49618  30.645  27.477  19.860 -0.0376  0.2454  0.4028
 6706W        W49619  14.214  15.058  26.092 -0.0451 -0.0110 -0.1262
 6707W        W49620  23.298  21.082   5.599 -0.1961 -0.0797  0.0392
 6708W        W49621  30.396  18.149  28.579 -0.0682 -0.1157 -0.1146
 6709W        W49622   8.466  23.897  21.107  0.3003 -0.1565 -0.1946
 6710W        W49623  32.254  14.737  25.972 -0.2567  0.1158 -0.0416
 6711W        W49624  30.720  18.936  25.074 -0.1922  0.1310 -0.4788
 6712W        W49625  18.060  23.244  23.639 -0.0805  0.0379  0.3233
 6713W        W49626  27.572  16.563   2.455 -0.1574 -0.0316  0.1405
 6714W        W49627  19.670  20.200  28.775  0.1448 -0.0162 -0.0446
 6715W        W49628  15.080  23.306  28.603 -0.0816 -0.0404  0.2117
 6716W        W49629  17.537   9.099   1.042 -0.0206 -0.0207  0.1542
 6717W        W49630  20.443  15.675   6.932 -0.0452 -0.1656 -0.0850
 6718W        W49631   9.415  23.011   4.180 -0.2514 -0.0412  0.4195
 6719W        W49632  29.852  26.248  27.095 -0.1963 -0.3215  0.0484
 6720W        W49633  29.845  16.105   2.474  0.3610  0.1627 -0.0737
 6721W        W49634  23.495  18.654  23.920 -0.0024 -0.2274 -0.0749
 6722W        W49635  24.773  14.592  29.497 -0.1980 -0.3543 -0.2508
 6723W        W49636  29.081  32.343   1.885  0.0662  0.0397 -0.0253
 6724W        W49637  17.748  23.575   3.034 -0.1332  0.0543 -0.0989
 6725W        W49638  25.208  22.270  21.188  0.1543 -0.0534 -0.1073
 6726W        W49639  21.070  16.526  27.807 -0.1556 -0.1347  0.1460
 6727W        W49640  18.000   6.518  27.311  0.0748 -0.2124 -0.2079
 6728W        W49641  16.972  20.640  26.118  0.1981 -0.0814  0.0989
 6729W        W49642  13.880  24.360   2.106  0.3193  0.0979 -0.0657
 6730W        W49643  22.407  22.205   4.256 -0.2883 -0.0565 -0.0078
 6731W        W49644  19.122   8.973  21.225  0.0148 -0.1422  0.2506
 6732W        W49645  17.911   2.590  25.439  0.1989  0.0807 -0.1237
 6733W        W49646  18.242   6.184  28.786 -0.1341  0.1015 -0.2276
 6734W        W49647  17.328  18.636  26.218  0.1106  0.1597  0.2154
 6735W        W49648  11.668  14.905   6.775 -0.1912  0.3693 -0.1505
 6736W        W49649  18.225  14.593  22.178 -0.2373 -0.2097 -0.2523
 6737W        W49650  20.585  11.763  21.340  0.1957  0.2064 -0.1666
 6738W        W49651  15.294  12.232  19.329  0.1025 -0.2480 -0.0572
 6739W        W49652  21.314  16.506   4.020 -0.0521  0.0897  0.0967
 6740W        W49653  13.578  12.740   5.398 -0.1923 -0.0205 -0.0248
 6741W        W49654  23.126  12.761   2.243 -0.1365 -0.3577  0.0695
 6742W        W49655  15.571  11.307  24.956  0.2222 -0.0472  0.1464
 6743W        W49656  31.105  16.129   2.291  0.0046  0.0061 -0.0163
 6744W        W49657  18.637  16.846   2.383  0.0089  0.3197 -0.1280
 6745W        W49658  24.468   7.996  25.448 -0.1910  0.4851 -0.1083
 6746W        W49659  27.989  22.943  13.167 -0.0721 -0.0851 -0.2242
 6747W        W49660  23.452  16.859  28.615 -0.0934  0.2022  0.0161
 6748W        W49661  14.635  13.689  23.635  0.0115  0.4478 -0.0563
 6749W        W49662  29.304  20.932  27.989 -0.1247  0.3133  0.1325
 6750W        W49663  16.353  20.376  25.421  0.1199  0.0264  0.0050
 6751W        W49664  20.949  15.276  23.103 -0.2737 -0.1903 -0.0452
 6752W        W49665  29.233  18.888  26.810 -0.0603  0.3568 -0.1120
 6753W        W49666  24.352   9.823  28.479 -0.1291  0.0518 -0.0900
 6754W        W49667  25.823  17.410   6.098 -0.1697  0.1160 -0.0712
 6755W        W49668  22.208   9.841   5.255  0.2969 -0.0205 -0.0832
 6756W        W49669  20.609   9.248  26.556  0.0874  0.0837 -0.1661
 6757W        W49670  21.246  23.103  24.724  0.1906 -0.0138 -0.1083
 6758W        W49671  11.782  14.220  24.751 -0.2721 -0.1450 -0.0199
 6759W        W49672  22.410  13.416  26.861 -0.1987  0.2916  0.2534
 6760W        W49673  21.138  19.128  24.496  0.0835 -0.2156  0.0484
 6761W        W49674  17.066  21.659   1.917 -0.0097  0.0718 -0.0233
 6762W        W49675  27.125  16.987   2.967 -0.1092 -0.1392 -0.0251
 6763W        W49676  26.121  23.988  13.738 -0.0013  0.1312  0.3475
 6764W        W49677  24.193   4.635  26.656  0.0814  0.0760  0.0693
 6765W        W49678  31.692   7.465  29.565 -0.0769 -0.1231 -0.1005
 6766W        W49679  30.308  13.828   2.615  0.2147 -0.1242  0.0234
 6767W        W49680  29.458   4.774  21.513  0.0710 -0.1456 -0.1138
 6768W        W49681  31.619  19.117   2.432 -0.0874 -0.0043  0.0880
 6769W        W49682  23.733  29.415  22.253 -0.1674 -0.0621 -0.0388
 6770W        W49683  21.571   4.469   4.926  0.0915 -0.0778 -0.0918
 6771W        W49684  26.985  28.842  21.667  0.0956 -0.1706  0.0241
 6772W        W49685  23.725   6.034  28.998  0.2069  0.0801 -0.1055
 6773W        W49686  22.331  11.372  26.414  0.3431  0.2174  0.2699
 6774W        W49687  16.281  34.042   0.442 -0.1862 -0.3395 -0.0745
 6775W        W49688  25.948   3.762   1.402 -0.2546  0.0674  0.1289
 6776W        W49689  29.091   9.151   1.438 -0.0179 -0.1288  0.1223
 6777W        W49690  23.007  20.480  28.767 -0.0801  0.0966 -0.2595
 6778W        W49691   1.271  15.995   1.153  0.2045 -0.1571  0.3642
 6779W        W49692  22.846  14.774  21.738  0.0035 -0.1102 -0.0241
 6780W        W49693  24.264  13.494   8.889  0.1399  0.1252  0.2822
 6781W        W49694  30.818  14.179  20.582  0.3524 -0.0112  0.0720
 6782W        W49695  21.241  17.451  14.590  0.0608 -0.1492  0.1031
 6783W        W49696  30.779  26.326  20.840 -0.0493  0.0355  0.2101
 6784W        W49697  19.222  10.640  11.623 -0.1237 -0.1494  0.1213
 6785W        W49698  27.455  13.012  17.107  0.0840 -0.0137 -0.2469
 6786W        W49699  30.185  21.544  23.533 -0.4560  0.2508  0.3701
 6787W        W49700   0.185  12.994  14.378 -0.2248  0.1446  0.1165
 6788W        W49701   4.996  11.422  21.182 -0.1463 -0.2093 -0.0539
 6789W        W49702  19.980  29.402  24.255  0.1014  0.1426 -0.2775
 6790W        W49703  23.621  21.854  20.411 -0.2048  0.0147 -0.3059
 6791W        W49704  19.667  25.265  17.652 -0.0200 -0.0308 -0.2606
 6792W        W49705  24.347  20.476  17.190 -0.0193  0.0729  0.1479
 6793W        W49706  19.611  15.681  11.781  0.1610 -0.1627  0.3787
 6794W        W49707  22.566  22.950  25.091  0.2433 -0.2876 -0.4136
 6795W        W49708   2.106  26.187  17.192 -0.2042 -0.2250  0.0466
 6796W        W49709  25.961  21.416  21.403 -0.1868  0.1335 -0.0978
 6797W        W49710  16.275  26.882  29.071 -0.1555 -0.1474  0.1254
 6798W        W49711  20.090   9.263  12.926 -0.2669  0.2500  0.0105
 6799W        W49712  30.397  24.827  22.513 -0.0111 -0.0133 -0.3159
 6800W        W49713  28.849  17.263  21.485  0.3099  0.2399 -0.0856
 6801W        W49714  20.900  11.154  25.168  0.3023  0.3327 -0.1201
 6802W        W49715  24.798  20.527  24.443 -0.1277  0.0044 -0.1161
 6803W        W49716  31.373  20.502  14.036  0.2103 -0.0619  0.2262
 6804W        W49717  28.908  22.211  16.567  0.0746  0.3501 -0.0275
 6805W        W49718  22.613  18.585  16.978 -0.0580  0.1884  0.2889
 6806W        W49719  31.744  28.444  15.674  0.2164  0.0729 -0.0366
 6807W        W49720  18.897  33.859  23.019 -0.1631  0.2787 -0.2896
 6808W        W49721  27.146  15.275  20.270 -0.0940 -0.3217  0.1668
 6809W        W49722  18.463  13.376  18.980 -0.3128 -0.3347 -0.0326
 6810W        W49723  20.704  24.930  19.236  0.0585  0.1208 -0.0358
 6811W        W49724  27.679  32.265  14.391 -0.0771 -0.0402 -0.0382
 6812W        W49725  24.727  17.977  19.070  0.1108 -0.2622  0.1884
 6813W        W49726  20.582  23.544  15.397 -0.2706  0.1054  0.3090
 6814W        W49727  21.847  20.737  17.768 -0.1250  0.0138 -0.1169
 6815W        W49728  18.530  21.562  13.557 -0.2258 -0.3102  0.2345
 6816W        W49729  24.165  10.800  24.829  0.0371 -0.1121 -0.3263
 6817W        W49730  26.356  27.153  16.658  0.1298  0.1081 -0.0921
 6818W        W49731  23.538  17.704  15.798  0.0755  0.1934 -0.0013
 6819W        W49732  19.629  21.913  17.079 -0.1045  0.1180 -0.2862
 6820W        W49733  23.857  21.128  18.091 -0.3034  0.0486 -0.0259
 6821W        W49734  15.028  22.570  16.563  0.1068  0.0489  0.0035
 6822W        W49735  31.469  29.112  17.537 -0.3098  0.0898  0.0166
 6823W        W49736  19.347  22.816  15.965 -0.1447  0.0398 -0.2511
 6824W        W49737  22.475  27.531  22.736 -0.0837  0.3885  0.2351
 6825W        W49738  26.571  23.294  18.833  0.1762  0.1801  0.0219
 6826W        W49739  18.318  30.682  29.497 -0.0373  0.1581 -0.4403
 6827W        W49740  15.607  22.332  14.813 -0.0248  0.1826  0.2529
 6828W        W49741  23.491  28.866  20.369 -0.2201  0.1647 -0.0980
 6829W        W49742  21.023  15.074  16.329  0.1636 -0.2429 -0.1398
 6830W        W49743  16.194  10.643  15.292 -0.0922 -0.1603 -0.0025
 6831W        W49744  12.971  13.731  23.715  0.4284 -0.0625  0.2165
 6832W        W49745  29.095  18.248  21.484  0.2209 -0.3689 -0.1324
 6833W        W49746  19.215  20.556  17.944 -0.1342 -0.0309 -0.1458
 6834W        W49747  14.870  26.596  21.608 -0.0283 -0.1141  0.0593
 6835W        W49748  23.266  27.841  21.138  0.1042 -0.0944  0.1473
 6836W        W49749  17.809  27.621  18.955  0.2022  0.1491 -0.2131
 6837W        W49750   8.417  23.922  15.927 -0.2740 -0.1005  0.2606
 6838W        W49751   7.729  17.596  13.960  0.0395  0.3216  0.3201
 6839W        W49752  21.668  24.389  13.144 -0.0187  0.0438 -0.0680
 6840W        W49753  28.723  18.773  19.789 -0.1198 -0.2664  0.0304
 6841W        W49754  25.885  21.984  18.873 -0.1406 -0.2957 -0.1655
 6842W        W49755  24.379  18.940  18.361  0.3394  0.4103 -0.0463
 6843W        W49756  11.938  10.822  15.122  0.1249  0.0634 -0.1571
 6844W        W49757  22.656  13.458  13.486  0.0028  0.0720 -0.0955
 6845W        W49758  19.099  17.069  12.467  0.1024 -0.4937  0.2796
 6846W        W49759  28.376  22.367  15.680  0.0640  0.3469  0.0943
 6847W        W49760  22.166  22.110  12.858 -0.2702  0.2732  0.0852
 6848W        W49761  25.262   5.541  27.180  0.3387  0.1645 -0.0257
 6849W        W49762  11.320  16.794  17.611  0.0556  0.0419 -0.0656
 6850W        W49763  29.975  29.291  18.475  0.0443 -0.2783  0.1539
 6851W        W49764   3.801  20.414  15.952  0.1734 -0.1137  0.2404
 6852W        W49765  26.345  14.465  17.296  0.1289 -0.1925  0.0525
 6853W        W49766  23.553  18.639  12.786  0.5828 -0.1738  0.0190
 6854W        W49767  25.972  17.705  20.372  0.1452 -0.0120 -0.4230
 6855W        W49768  26.617  13.725  14.222 -0.0129  0.0012 -0.0903
 6856W        W49769  26.489  14.259  16.809 -0.0876 -0.0249 -0.1166
 6857W        W49770  26.944  24.894  13.875  0.1051 -0.1045 -0.3323
 6858W        W49771  24.677  15.476  19.020  0.0881  0.3240 -0.3222
 6859W        W49772  26.794  21.784  27.137 -0.1815  0.2516 -0.1333
 6860W        W49773  27.546  14.574  24.994  0.0826  0.1659  0.1257
 6861W        W49774  10.830  20.543  16.830  0.4182  0.2448 -0.0341
 6862W        W49775  15.126  19.693  12.992 -0.0855  0.3260  0.1439
 6863W        W49776  30.887  17.859  23.526 -0.1934 -0.1320 -0.0843
 6864W        W49777  19.586  21.874  14.944  0.1122 -0.0124 -0.0299
 6865W        W49778   0.540  21.372  16.107  0.2536  0.0031  0.0247
 6866W        W49779  27.765  19.127  14.377 -0.1253 -0.0426 -0.1134
 6867W        W49780  26.965  22.584  18.028 -0.2533  0.1195  0.5615
 6868W        W49781  18.503  22.000  14.395  0.1528 -0.0369  0.0139
 6869W        W49782  24.617  12.954  15.205  0.3355 -0.0804 -0.2286
 6870W        W49783  32.589  26.164  15.831  0.2076  0.1461 -0.0172
 6871W        W49784  20.489  32.545  15.404  0.3096  0.1132  0.3606
 6872W        W49785  21.622   5.176  15.514  0.0086 -0.2687 -0.1394
 6873W        W49786  20.461  14.493  14.868  0.1909  0.0699 -0.0009
 6874W        W49787  19.197   8.469  13.865 -0.1184  0.0012  0.0599
 6875W        W49788  24.567  20.471  19.392 -0.1393  0.1681 -0.0968
 6876W        W49789   1.153  13.026  25.316  0.0948  0.2987 -0.0407
 6877W        W49790   1.114  15.998  15.871 -0.0957 -0.0998  0.0149
 6878W        W49791  22.121  15.354  11.802 -0.2797  0.1035 -0.0234
 6879W        W49792  23.148  21.877  12.815 -0.1846  0.0577 -0.0111
 6880W        W49793  22.311  21.804  14.053  0.0215  0.0392  0.2300
 6881W        W49794  25.260  29.626  18.874 -0.0251 -0.1278  0.0609
 6882W        W49795  19.370  21.716  19.410  0.1121 -0.1122  0.2373
 6883W        W49796  22.246  13.930  19.302  0.6946 -0.2530  0.4023
 6884W        W49797  34.204  16.919  19.118 -0.1027  0.2794  0.2888
 6885W        W49798  25.304  22.617  18.431 -0.2857  0.2770 -0.0302
 6886W        W49799  21.261   9.259  18.125 -0.0344 -0.1503 -0.2530
 6887W        W49800  18.466  26.251  22.135  0.0899 -0.0197  0.1140
 6888W        W49801  15.560   8.412  18.337  0.0389  0.1793  0.3395
 6889W        W49802  15.360  13.060  16.212  0.4675  0.5732 -0.0665
 6890W        W49803  24.395  15.602  13.581 -0.0946 -0.0474  0.0432
 6891W        W49804  22.527  25.935  14.839 -0.1477 -0.1198 -0.1277
 6892W        W49805  32.530  16.183  15.877 -0.0418 -0.2527  0.0057
 6893W        W49806  25.929  22.265  26.206 -0.0664  0.1979  0.2930
 6894W        W49807  31.820  22.331  17.391  0.1296 -0.1153  0.1734
 6895W        W49808  24.757  24.780  17.670 -0.0733 -0.2896 -0.2496
 6896W        W49809  19.855  19.676  11.747  0.0755 -0.1495  0.1573
 6897W        W49810   7.736  13.247  17.270  0.2374 -0.2493  0.1624
 6898W        W49811  29.322  18.682  20.889  0.2406 -0.0676  0.0944
 6899W        W49812  17.058  25.121  17.940 -0.1979  0.3186 -0.1477
 6900W        W49813  27.561  24.970  14.658  0.3569 -0.2967 -0.0278
 6901W        W49814  18.018  32.937  29.744 -0.3243 -0.1651  0.0431
 6902W        W49815  22.063  17.318  23.188  0.1250 -0.1348  0.0149
 6903W        W49816  16.701  16.392  12.417  0.0552 -0.2741 -0.1678
 6904W        W49817  20.442  30.681  15.461  0.3847  0.0555 -0.2068
 6905W        W49818  34.420  15.364  16.049 -0.2034  0.2603  0.1170
 6906W        W49819  23.567  18.641  22.214  0.0232  0.2528 -0.1278
 6907W        W49820  12.730  14.494  17.687  0.4872 -0.0369 -0.1054
 6908W        W49821  29.044  20.389  13.874 -0.1444 -0.1456 -0.2272
 6909W        W49822  27.642  21.607   0.748 -0.1302  0.1392 -0.0251
 6910W        W49823  28.545  25.495  16.552 -0.0797  0.0772 -0.0260
 6911W        W49824  24.942  10.410  24.766  0.1757  0.2068 -0.1899
 6912W        W49825  22.767  11.270  13.335 -0.0421 -0.1360  0.1579
 6913W        W49826  27.605   1.233  21.592 -0.3800  0.3140 -0.0647
 6914W        W49827  27.510  15.696  19.893  0.1371  0.2697  0.3393
 6915W        W49828  20.390  32.906  19.088  0.0086  0.1006  0.2445
 6916W        W49829  20.137  30.594  18.245 -0.0380 -0.0236  0.1731
 6917W        W49830  32.488  22.812  21.134 -0.0780 -0.2234  0.0666
 6918W        W49831  17.344   5.304  20.858  0.1021  0.5952  0.2729
 6919W        W49832  19.972  16.314  11.235 -0.1245  0.1687 -0.0973
 6920W        W49833  26.010  26.260  18.706  0.1071  0.0662 -0.2397
 6921W        W49834  27.145  22.505  16.076 -0.1209 -0.0146  0.0623
 6922W        W49835  20.280  14.617  24.504 -0.0218 -0.2036  0.1109
 6923W        W49836  25.506  24.325  14.757 -0.1250  0.2027 -0.1575
 6924W        W49837  26.193  15.853  21.275  0.1244  0.5951 -0.0060
 6925W        W49838  24.677  19.369  22.367 -0.0112 -0.0731  0.0774
 6926W        W49839  29.596  17.219  23.568  0.1505  0.2469 -0.3981
 6927W        W49840  22.074  21.137  23.962  0.0520 -0.0910  0.2984
 6928W        W49841   6.255  24.468  20.500  0.0626  0.0943 -0.0872
 6929W        W49842  22.952  27.251  15.572  0.1962 -0.3999 -0.0956
 6930W        W49843  20.648  10.490  24.152 -0.1179 -0.1288 -0.0845
 6931W        W49844  28.325  24.214  22.856 -0.0293  0.0411 -0.1235
 6932W        W49845  27.170  19.072  17.154  0.0738  0.1856 -0.1235
 6933W        W49846  22.080   9.400  21.169  0.0828 -0.2043  0.0060
 6934W        W49847  10.070  14.497  16.440 -0.0338  0.0147  0.0356
 6935W        W49848  20.163  25.635  15.687  0.1337  0.0225  0.1401
 6936W        W49849   1.667  18.503  18.463 -0.1912 -0.1913 -0.0876
 6937W        W49850  28.925  26.310   2.016 -0.3672  0.0491 -0.0567
 6938W        W49851  27.759  29.602  22.415  0.1076 -0.4794  0.1173
 6939W        W49852   1.649  16.009  16.991 -0.1097  0.3918  0.0303
 6940W        W49853  18.298  34.059  16.891  0.1384 -0.0691  0.3204
 6941W        W49854  21.681  24.345  15.524 -0.2474  0.1153  0.3267
 6942W        W49855  24.014  23.477  13.559 -0.0862 -0.3351  0.1862
 6943W        W49856  16.331  31.778  15.514  0.3054  0.2915 -0.0329
 6944W        W49857  31.147  18.583  20.518  0.2295 -0.0731  0.3521
 6945W        W49858  20.513  21.189  28.191  0.3139  0.2998  0.3325
 6946W        W49859  21.832  16.677  14.689 -0.0514  0.0945 -0.2246
 6947W        W49860  18.980   9.061  18.717 -0.1837 -0.0469 -0.1116
 6948W        W49861  11.311  19.502  19.814 -0.0898 -0.1623  0.2680
 6949W        W49862  19.641  29.310  18.337  0.0338 -0.3240  0.1455
 6950W        W49863  23.264  16.259  13.816 -0.0562  0.1421  0.1002
 6951W        W49864  23.984  12.556  23.122  0.1921 -0.3272 -0.1374
 6952W        W49865  27.023  17.234  20.587  0.1212  0.0419  0.0407
 6953W        W49866  17.207  20.382  14.029 -0.2987  0.1585  0.1466
 6954W        W49867  12.797  13.012  15.817 -0.5849  0.4445 -0.0712
 6955W        W49868  25.008  20.749  22.637 -0.1250  0.1926 -0.0795
 6956W        W49869  23.670  19.654  22.326  0.2387  0.0620 -0.0656
 6957W        W49870  15.146  21.584  18.377 -0.1955  0.2142 -0.1431
 6958W        W49871  22.220  25.642  15.214  0.3004  0.0036  0.5416
 6959W        W49872  28.419  23.792  14.845  0.2156  0.0100  0.3459
 6960W        W49873  32.140  27.784  19.439 -0.0673 -0.1086  0.2333
 6961W        W49874  20.945  10.935  25.931  0.3303  0.0931  0.2049
 6962W        W49875  25.436   1.206  14.886 -0.2459 -0.1028 -0.3191
 6963W        W49876   1.018  20.165  18.710  0.0581  0.2291  0.0579
 6964W        W49877  26.208  15.358  16.486  0.1561  0.1376 -0.0002
 6965W        W49878  26.612  16.319  16.716 -0.2683 -0.3171  0.3901
 6966W        W49879  23.309  14.131  22.103  0.1792 -0.0904 -0.0626
 6967W        W49880  18.323  22.120  13.286  0.0021 -0.2156 -0.0539
 6968W        W49881  17.216  21.663  17.490 -0.0650  0.0704  0.0155
 6969W        W49882  33.322  14.577  18.334 -0.2286 -0.0815 -0.0841
 6970W        W49883  27.414  20.161  16.868  0.1075  0.0645  0.1753
 6971W        W49884  25.255  25.044  15.706  0.2991  0.1161 -0.1097
 6972W        W49885  15.638  13.033  18.732 -0.0144 -0.0354 -0.1331
 6973W        W49886  21.509  22.563  12.536 -0.1738 -0.2536  0.4759
 6974W        W49887  22.039  18.749  14.347  0.0250 -0.1949 -0.1504
 6975W        W49888  21.604  24.869  24.143 -0.0247 -0.0559  0.1178
 6976W        W49889  12.435  15.470  13.277 -0.2603  0.1646 -0.1265
 6977W        W49890  30.378  20.119  15.733  0.0599  0.0392 -0.3326
 6978W        W49891  24.670  24.114  19.450 -0.0247  0.0649 -0.0789
 6979W        W49892  23.382  24.527  14.809  0.0752 -0.0846  0.2372
 6980W        W49893  25.545  22.390  17.348 -0.4220 -0.0448 -0.1165
 6981W        W49894  15.642  23.944  17.601  0.0436  0.0043  0.1188
 6982W        W49895  14.450  32.725  18.309 -0.1873 -0.1777  0.0983
 6983W        W49896  28.662  22.792  15.608  0.0674 -0.1893 -0.0472
 6984W        W49897  21.749  28.655  18.253  0.0949  0.1783  0.2413
 6985W        W49898  27.758  27.556  16.274  0.1278  0.0063  0.1281
 6986W        W49899  21.638  20.467  15.977 -0.0672 -0.1308  0.0600
 6987W        W49900  22.882   6.786  21.753  0.4190 -0.1460 -0.0633
 6988W        W49901  23.382  18.836  22.967 -0.0732  0.2116 -0.1863
 6989W        W49902  24.703  25.174  17.417 -0.0617  0.2866  0.0213
 6990W        W49903  14.517   8.850  23.761  0.1103 -0.1862  0.2366
 6991W        W49904  28.993  24.122  23.116  0.0093 -0.1051  0.3630
 6992W        W49905  19.412  12.896  16.998 -0.2642  0.0069 -0.1112
 6993W        W49906  17.624  18.493  27.812  0.2277  0.0306  0.0079
 6994W        W49907  13.200   1.853  24.406  0.0799 -0.0011 -0.3811
 6995W        W49908  30.753  27.923  14.880  0.2910  0.0776  0.0165
 6996W        W49909  25.463  16.090  20.239 -0.3232  0.0310 -0.1013
 6997W        W49910  20.445  19.398  12.352  0.0540  0.1203 -0.0256
 6998W        W49911  19.002  22.654  21.636  0.2385  0.0441 -0.0349
 6999W        W49912  19.697  16.285  14.699  0.1731 -0.0639  0.0137
 7000W        W49913  31.671  27.157  17.284 -0.0491 -0.0146 -0.1004
 7001W        W49914  16.543  13.052  14.800 -0.2673  0.0315  0.0149
 7002W        W49915  22.521  11.148  13.828  0.0926  0.0901  0.0297
 7003W        W49916  23.879  21.462  14.772 -0.1130 -0.4952 -0.0501
 7004W        W49917  24.128  21.257  13.356 -0.2325  0.2464 -0.0173
 7005W        W49918  21.685  12.689  19.176  0.1342  0.1038 -0.1181
 7006W        W49919  13.833   8.816  19.582  0.1962  0.1756 -0.2620
 7007W        W49920  29.722  25.015  17.225  0.1855 -0.0262 -0.0050
 7008W        W49921  29.428  16.893  13.220 -0.0445 -0.0163 -0.0143
 7009W        W49922  24.458  20.839  20.525 -0.0628 -0.2571 -0.4523
 7010W        W49923  26.500   7.595  14.319 -0.2151  0.1816 -0.1900
 7011W        W49924  25.289  22.614  17.899 -0.0947  0.0103 -0.1245
 7012W        W49925  19.144   8.225  20.486  0.0035  0.2352  0.0161
 7013W        W49926  33.969  19.779  17.961  0.0718  0.1045  0.2030
 7014W        W49927  25.517  23.667  22.566  0.0918 -0.0925 -0.0546
 7015W        W49928   0.653  13.308  15.656 -0.0597 -0.0880 -0.1454
 7016W        W49929  24.731  20.254  12.799  0.3234  0.1594 -0.5145
 7017W        W49930  27.486  21.879  13.005 -0.0901 -0.0607 -0.1887
 7018W        W49931  20.804  22.146  12.795  0.2519  0.4617 -0.3450
 7019W        W49932  31.776  16.010  19.805 -0.1750  0.0229 -0.3383
 7020W        W49933  22.040  19.864  13.979  0.2308  0.0219  0.0555
 7021W        W49934  11.520  20.334  18.060  0.0063 -0.0739  0.1118
 7022W        W49935  22.522  22.350  12.613 -0.0657  0.0405  0.2165
 7023W        W49936  27.542  17.044  16.463 -0.0233 -0.0197  0.1431
 7024W        W49937  25.245  18.859  15.898  0.0176 -0.0832  0.3526
 7025W        W49938  15.557  21.680  12.292 -0.1684  0.2962 -0.0166
 7026W        W49939  21.445  21.395  12.057 -0.0436 -0.0828 -0.3246
 7027W        W49940  14.969  14.834  14.155 -0.0828  0.0553  0.1602
 7028W        W49941   0.637  23.776  17.278 -0.1061  0.2950  0.0899
 7029W        W49942  29.024  15.297  17.460 -0.0124  0.1808 -0.0441
 7030W        W49943  26.005  20.827  14.831 -0.0749  0.1351 -0.3734
 7031W        W49944  28.112  22.598  17.327  0.2344  0.1290  0.1265
 7032W        W49945  18.548  11.513  18.045 -0.0329  0.0531 -0.0944
 7033W        W49946  22.989  24.941  13.058 -0.0028 -0.0663 -0.0233
 7034W        W49947  22.359  25.441  17.765 -0.0194 -0.0774  0.2855
 7035W        W49948   6.926  18.530  17.933 -0.0176  0.0988  0.1070
 7036W        W49949  31.951  24.644  25.451  0.2897  0.1235  0.1690
 7037W        W49950  30.635  20.917  21.376 -0.1420 -0.1171 -0.0716
 7038W        W49951  22.542  28.480  19.179 -0.2621 -0.1838  0.1861
 7039W        W49952  26.976  19.526  16.011  0.1840 -0.0990 -0.0109
 7040W        W49953  17.218  28.549  14.873 -0.1512 -0.0177  0.0841
 7041W        W49954  23.335  20.282  19.420 -0.0144  0.0276 -0.2277
 7042W        W49955  17.846   8.612  17.749 -0.2891  0.2361 -0.1879
 7043W        W49956  30.557  10.966  18.658 -0.2227  0.0838 -0.1084
 7044W        W49957  31.195  15.365  20.243  0.0491 -0.5055  0.2271
 7045W        W49958  22.469  23.407  14.303  0.2409  0.1516 -0.0946
 7046W        W49959   6.982  22.197  16.040  0.1877 -0.1079  0.2051
 7047W        W49960  18.120  25.331  27.147  0.0595  0.1081 -0.2044
 7048W        W49961  21.197  24.121  19.309 -0.2520  0.0062  0.3042
 7049W        W49962  18.579  10.731  16.270  0.0601 -0.2217  0.2527
 7050W        W49963  24.818  16.786  15.011  0.0550 -0.0715 -0.1205
 7051W        W49964  27.222  22.017  25.299 -0.4178  0.1774 -0.5079
 7052W        W49965  12.883  27.467  26.443 -0.0794  0.1388 -0.2793
 7053W        W49966  23.685  26.304  14.467 -0.0822  0.0822  0.1337
 7054W        W49967  27.772  24.196  17.455 -0.1945 -0.0527  0.0099
 7055W        W49968  27.543  18.451  18.578 -0.2234  0.1480  0.0640
 7056W        W49969  22.440  24.109  12.139 -0.0197 -0.1681  0.0877
 7057W        W49970  30.392  26.040  22.588  0.1021  0.1606  0.3228
 7058W        W49971  21.843  25.327  22.659 -0.1037 -0.0558 -0.1081
 7059W        W49972  12.301  14.717  14.781  0.1085  0.2517 -0.1340
 7060W        W49973  20.835  22.448  15.197  0.2528 -0.1422  0.2995
 7061W        W49974  32.945  18.110  15.381 -0.1940  0.0401  0.2385
 7062W        W49975   4.322  28.262  16.072  0.1438 -0.1673  0.0840
 7063W        W49976  12.016  23.002  16.017 -0.0109  0.1677  0.1233
 7064W        W49977  27.860  19.378  13.591  0.1743 -0.0433  0.0629
 7065W        W49978  26.838  16.934  22.372  0.2521  0.0055 -0.3496
 7066W        W49979  27.757  16.050  23.873  0.1086 -0.3393  0.4190
 7067W        W49980  26.468  25.999  15.176 -0.0748 -0.0889 -0.2087
 7068W        W49981  19.642  14.368  12.333  0.1261 -0.1664 -0.0465
 7069W        W49982  18.387  11.228  24.095 -0.0271  0.1070  0.0225
 7070W        W49983  25.338  26.203  16.140 -0.0948 -0.2332 -0.4617
 7071W        W49984  10.660  28.858  17.401 -0.0460  0.1620 -0.1027
 7072W        W49985  20.342  15.757  13.504  0.3425  0.0172 -0.0615
 7073W        W49986   0.137  22.165  17.189 -0.0206  0.2633  0.0927
 7074W        W49987  23.189  12.356  17.381 -0.0751  0.2178 -0.4124
 7075W        W49988  22.046  29.493  22.067  0.3706  0.1166  0.1545
 7076W        W49989  24.407  29.590  20.996  0.2981  0.1580 -0.1640
 7077W        W49990  16.556  13.937  14.598  0.0650  0.2221  0.4155
 7078W        W49991  28.085  24.397  16.248 -0.0708  0.1770  0.0583
 7079W        W49992  22.674  20.479  13.983  0.0251  0.2756  0.0460
 7080W        W49993  20.909  17.933  22.506 -0.0669 -0.2359  0.0475
 7081W        W49994  25.152  15.141  18.824  0.2182  0.1836 -0.0691
 7082W        W49995  30.296  27.325  17.901 -0.1342 -0.1251  0.0170
 7083W        W49996  29.036  15.252  14.024  0.0557 -0.0783 -0.2863
 7084W        W49997  26.054  16.073  19.938 -0.0317 -0.0330  0.2239
 7085W        W49998  28.156  26.821  20.441  0.0358 -0.1226  0.1087
 7086W        W49999  26.224  25.056  16.326  0.0980  0.0350 -0.3690
 7087W        W50000  16.964  24.698  27.881 -0.1436  0.0162  0.1509
 7088W        W50001  14.015  12.505  18.429 -0.1889  0.0321  0.1594
 7089W        W50002  23.431  24.035  13.183 -0.0497 -0.1919  0.0391
 7090W        W50003  26.757  19.935  15.341 -0.0633 -0.0051 -0.0151
 7091W        W50004   7.981  14.646  18.112 -0.0913 -0.1514  0.1443
 7092W        W50005  15.674  20.550  12.292  0.2812 -0.0204  0.1231
 7093W        W50006  25.592  11.260  25.641 -0.0994  0.0199  0.1624
 7094W        W50007  15.867  17.525  13.922 -0.0495 -0.1305  0.0226
 7095W        W50008  29.633  24.049  20.538  0.6588  0.0608 -0.3349
 7096W        W50009  24.655   1.852  21.517 -0.1764 -0.3032 -0.1015
 7097W        W50010  30.453  15.526  14.609  0.2900  0.1111  0.0655
 7098W        W50011  23.881   4.798  21.281 -0.0262  0.0149 -0.1323
 7099W        W50012  31.885  18.918  18.989 -0.1598 -0.1037 -0.0384
 7100W        W50013  28.691  14.502  16.376  0.1329  0.3013 -0.0153
 7101W        W50014  23.434  17.038  22.324  0.0503  0.2426 -0.0823
 7102W        W50015  24.508  23.433  14.355  0.2268 -0.3540 -0.0679
 7103W        W50016  22.922  15.131  16.493 -0.0368 -0.0445 -0.1658
 7104W        W50017  22.995  18.114  24.896  0.1797  0.0046 -0.1198
 7105W        W50018  18.316  10.644  14.534 -0.0991 -0.2777  0.0355
 7106W        W50019  24.797  13.329  22.854  0.1475 -0.2287 -0.2630
 7107W        W50020   9.403  20.549  22.322  0.0037 -0.0985 -0.2400
 7108W        W50021  17.984  25.328  14.672  0.0998 -0.0340 -0.3245
 7109W        W50022  24.561  19.688  23.257 -0.1489 -0.1276 -0.0573
 7110W        W50023  25.458  14.476  14.360  0.2402  0.0082 -0.0728
 7111W        W50024  26.622  16.461  13.660 -0.0235 -0.2435 -0.1145
 7112W        W50025  19.024  12.803  14.528  0.1925  0.0321  0.3083
 7113W        W50026  16.495   9.679  17.937 -0.1142  0.0641  0.1329
 7114W        W50027  31.577  21.133  18.338  0.1998 -0.0295 -0.1011
 7115W        W50028  22.483  25.952  15.533  0.0060 -0.0258  0.0682
 7116W        W50029  19.897  20.341  17.490 -0.4138 -0.2223  0.1485
 7117W        W50030  20.692  25.912  19.329 -0.0901  0.2638 -0.1291
 7118W        W50031  22.940  30.150  14.959 -0.2509 -0.4095  0.0129
 7119W        W50032  19.553  13.836  13.913  0.0733 -0.2865 -0.2312
 7120W        W50033  23.645  30.750  20.348  0.2483  0.0032 -0.1396
 7121W        W50034  23.071  13.069  21.988 -0.3885  0.2164  0.0190
 7122W        W50035  31.750  17.508  17.738 -0.1077 -0.1085  0.1662
 7123W        W50036  12.230  16.791  21.289  0.1811  0.2260  0.0151
 7124W        W50037  25.186  27.911  20.669  0.0522  0.2207 -0.0602
 7125W        W50038  23.645  11.992  13.679 -0.2211  0.0667  0.1020
 7126W        W50039  16.392  14.970  12.967 -0.0968  0.0406 -0.1070
 7127W        W50040  22.005  29.247  16.327 -0.3111  0.0416 -0.0436
 7128W        W50041  15.356  22.262  16.415 -0.1507 -0.1024  0.2220
 7129W        W50042  23.359  27.455  19.468 -0.0670 -0.4215 -0.0275
 7130W        W50043  29.967  13.887  15.140  0.0603 -0.0120  0.0363
 7131W        W50044  22.479  14.991  15.262 -0.4426  0.1060 -0.0655
 7132W        W50045  25.468  23.650  13.301  0.1972  0.2689  0.0172
 7133W        W50046  16.136  15.618  15.070  0.0567  0.0690  0.2026
 7134W        W50047  28.653  31.684  14.342 -0.1489 -0.1265  0.0996
 7135W        W50048  20.826  10.900  17.335  0.0217  0.1573  0.1925
 7136W        W50049  21.176   7.513  19.864  0.2330  0.1007  0.2854
 7137W        W50050  27.641  21.720  13.958  0.3100  0.0681 -0.0223
 7138W        W50051  30.369  27.674  18.783  0.2899 -0.0323  0.0437
 7139W        W50052  26.376  12.970  14.143  0.0381 -0.0003 -0.0440
 7140W        W50053  26.492  28.219  14.841 -0.0044 -0.2683  0.0182
 7141W        W50054  32.566  28.751  22.260  0.1704 -0.1680 -0.0344
 7142W        W50055  24.878  13.327  21.728  0.1278  0.1095  0.0229
 7143W        W50056  25.692  18.446  17.368 -0.4922  0.0046  0.2300
 7144W        W50057  26.079  19.207  13.100 -0.1529 -0.0503  0.0813
 7145W        W50058  30.214  23.354  21.990  0.1964 -0.2340  0.1727
 7146W        W50059  31.360  25.302  18.161 -0.2367  0.0453  0.3148
 7147W        W50060  24.271  28.690  13.039 -0.0059  0.0684  0.0890
 7148W        W50061  22.162  25.022  16.095 -0.1396  0.3240  0.0222
 7149W        W50062  26.458  33.615  18.011 -0.2234 -0.1201  0.1699
 7150W        W50063  20.663  33.331  14.294 -0.1865 -0.3227  0.2476
 7151W        W50064  24.898  27.262  18.275  0.1199  0.0818  0.0628
 7152W        W50065  24.476  16.863  22.548 -0.1974  0.0294  0.0197
 7153W        W50066  28.095  21.904  14.011  0.0186 -0.0937  0.1096
 7154W        W50067  32.678  21.785  16.037  0.1866  0.2051 -0.1501
 7155W        W50068  26.571  17.973  13.527  0.1941 -0.2414 -0.1684
 7156W        W50069  17.567   9.600  18.930 -0.0388  0.2140  0.1008
 7157W        W50070  23.367  24.250  18.856  0.2142 -0.0054  0.1967
 7158W        W50071  30.600  27.578  14.516  0.4679  0.0621 -0.1621
 7159W        W50072  29.581  16.943  17.336  0.3264  0.3365 -0.0455
 7160W        W50073  20.686  24.575  16.504  0.0945  0.1393 -0.0427
 7161W        W50074  21.417  22.755  19.648  0.2402 -0.1214  0.0229
 7162W        W50075  23.314  21.002  16.064  0.1055  0.2472  0.1137
 7163W        W50076  15.607  25.573  17.307 -0.3369 -0.0322  0.2599
 7164W        W50077  27.802  15.347  14.883 -0.4293  0.1897  0.0549
 7165W        W50078  16.128   9.268  14.006 -0.1251  0.2064  0.0218
 7166W        W50079   2.633  27.739  17.633  0.2850 -0.0470  0.2914
 7167W        W50080  31.908  29.222   2.192  0.1076 -0.1981  0.0878
 7168W        W50081  23.006   1.288  22.002  0.1359 -0.0014  0.2623
 7169W        W50082  28.411  15.766  22.752  0.1645  0.1980 -0.0866
 7170W        W50083  24.444  21.275  15.992 -0.1621  0.1871 -0.2548
 7171W        W50084  31.379  27.028  16.397 -0.0411  0.1168 -0.2428
 7172W        W50085  27.130  21.590  14.923  0.2677 -0.0601 -0.0034
 7173W        W50086  16.367  10.853  22.542  0.1426  0.1747 -0.0287
 7174W        W50087  28.569  23.857  23.936 -0.0303  0.2696  0.1288
 7175W        W50088  24.878  22.160  14.966  0.0107  0.0750 -0.2668
 7176W        W50089  25.979  30.021  16.954 -0.0648  0.5454 -0.0131
 7177W        W50090   0.366  24.319  15.089 -0.2189 -0.0522 -0.1631
 7178W        W50091  23.678   7.936  22.014  0.0278  0.0126  0.0813
 7179W        W50092  14.522  30.340  18.165 -0.2560  0.0141  0.1247
 7180W        W50093  33.829  29.568  14.139  0.1290 -0.3599 -0.2225
 7181W        W50094  20.439  21.598  18.880 -0.0594 -0.2691 -0.0786
 7182W        W50095  18.188  17.012  14.312  0.3550 -0.1214 -0.1196
 7183W        W50096  26.485  23.115  14.328  0.2355  0.0785  0.0887
 7184W        W50097   0.778  11.031  15.984  0.0717 -0.0416 -0.3311
 7185W        W50098   0.067  22.559  14.551 -0.1117 -0.2075 -0.2720
 7186W        W50099  26.352  29.677  19.029  0.3055  0.0197 -0.2390
 7187W        W50100   2.885  31.827  26.949  0.0578  0.0585 -0.2428
 7188W        W50101  32.810  20.495  23.311 -0.1053 -0.1830  0.1313
 7189W        W50102  23.289  28.818  19.670 -0.1393 -0.0086 -0.3162
 7190W        W50103  29.240  25.037  14.598  0.0186 -0.0344  0.0927
 7191W        W50104  25.468  16.609  22.825  0.0663  0.3613 -0.0897
 7192W        W50105  18.857  31.822  19.775 -0.0281  0.0810  0.0159
 7193W        W50106  16.018  10.026  14.087 -0.0179 -0.1895  0.0271
 7194W        W50107  33.155  11.068  14.226  0.2303  0.1674 -0.2650
 7195W        W50108  29.768  21.323  18.492  0.0038 -0.2862  0.1074
 7196W        W50109   1.382  17.678  27.972  0.2803 -0.2044 -0.0723
 7197W        W50110  21.678  22.933  25.857  0.1499  0.0621  0.1625
 7198W        W50111  19.503  10.188  27.718  0.1006 -0.5785  0.5378
 7199W        W50112  34.061  27.417  19.786  0.1102  0.2279 -0.2347
 7200W        W50113   1.461  24.356  15.642 -0.1810  0.0443  0.0934
 7201W        W50114  22.163  18.528  19.658 -0.0915  0.1710 -0.1224
 7202W        W50115  26.503  16.119  15.220 -0.1636  0.0014  0.1966
 7203W        W50116  25.162  15.132  19.978  0.1657  0.1539  0.1978
 7204W        W50117  27.037  25.580  15.853 -0.1650  0.0775  0.0046
 7205W        W50118  13.354   8.072  24.006  0.0262  0.3934 -0.1302
 7206W        W50119  17.800  23.134  12.350 -0.0023 -0.0390  0.0689
 7207W        W50120  27.203  30.175  21.980  0.0908 -0.0677  0.1843
 7208W        W50121  30.572  19.259  16.580 -0.0889 -0.0848  0.1472
 7209W        W50122  14.130  27.271  20.952 -0.1459  0.0167  0.1815
 7210W        W50123   5.791  14.544  28.163  0.0236 -0.0744  0.0727
 7211W        W50124  22.183  21.623  14.851  0.1474  0.1371 -0.0428
 7212W        W50125  21.170  33.224  16.916  0.0795  0.2908  0.0520
 7213W        W50126  26.592  21.601  20.886 -0.1024  0.1269  0.0323
 7214W        W50127  27.125  18.305  18.793  0.0360  0.3678 -0.0350
 7215W        W50128  23.280  10.315  17.956  0.0041  0.0425 -0.1088
 7216W        W50129  26.746  17.920  16.547  0.0938 -0.0446  0.0894
 7217W        W50130  21.322  24.682  12.527 -0.0772 -0.1167 -0.3637
 7218W        W50131  22.879  12.972  18.146  0.1389  0.2321  0.0016
 7219W        W50132  29.722  29.868  29.566 -0.0240  0.1230  0.0074
 7220W        W50133  25.975  24.693  18.653  0.3568  0.1802  0.1749
 7221W        W50134  21.680  20.481  17.245  0.0808 -0.2262 -0.0989
 7222W        W50135  23.818   7.547  26.910  0.1870  0.0418  0.2038
 7223W        W50136   2.116  34.072  20.370 -0.3088  0.0389  0.0684
 7224W        W50137  16.728  21.299  11.951  0.0229 -0.0952 -0.3419
 7225W        W50138  23.529  23.302  13.922  0.1486 -0.2198 -0.2109
 7226W        W50139   3.673  24.737  19.536 -0.2737 -0.0921  0.1973
 7227W        W50140   0.139  21.697  15.601 -0.1151 -0.0183 -0.0935
 7228W        W50141  27.347  14.726  14.442 -0.2596 -0.0632  0.1344
 7229W        W50142  16.333  16.186  18.099  0.2756  0.0038 -0.1385
 7230W        W50143  32.592   9.050  16.067  0.0551  0.1383 -0.3516
 7231W        W50144  24.333   6.424  22.010 -0.1027 -0.2052  0.1038
 7232W        W50145  25.302  25.083  14.719 -0.0626  0.0433  0.2368
 7233W        W50146   0.839  13.545   0.065 -0.0673 -0.0285  0.2313
 7234W        W50147  20.615  14.333  19.647  0.3372  0.1231 -0.2312
 7235W        W50148   0.990  32.177  21.423 -0.1835 -0.1735 -0.1284
 7236W        W50149  28.245  12.798  20.949 -0.1257 -0.0036 -0.0980
 7237W        W50150  26.385  22.904   4.589  0.2124 -0.0875 -0.2912
 7238W        W50151  23.393  22.416  14.549 -0.0007  0.0674 -0.1433
 7239W        W50152  32.927  24.731  22.193 -0.1728 -0.4611 -0.0539
 7240W        W50153  20.780  18.937  14.594 -0.2571  0.5028  0.0748
 7241W        W50154  33.339  17.193  19.802  0.0008  0.0014 -0.0672
 7242W        W50155  17.650  25.190  17.051 -0.1219  0.0348  0.1970
 7243W        W50156  28.969  15.571  23.500  0.0354  0.0466  0.1002
 7244W        W50157  23.031  10.199  14.214 -0.2505  0.4317  0.0789
 7245W        W50158  19.587  20.812  14.266 -0.3152  0.0428  0.1459
 7246W        W50159  22.751  24.772  17.998  0.1066  0.0340  0.0502
 7247W        W50160  15.141  15.889  12.606  0.0172 -0.1889  0.2069
 7248W        W50161  21.446  20.839  15.516 -0.1362 -0.0301 -0.0622
 7249W        W50162  24.391  19.410  13.730  0.0690 -0.0910 -0.4293
 7250W        W50163  33.593  31.089  17.891  0.0397  0.1599  0.0894
 7251W        W50164  21.433  16.106  11.939 -0.0600 -0.2409  0.1256
 7252W        W50165  30.143  23.612  13.277 -0.3117 -0.0499  0.5542
 7253W        W50166  19.302  29.560  20.156 -0.1302 -0.0746 -0.0110
 7254W        W50167  19.712  20.560  11.697  0.0421  0.1202  0.2077
 7255W        W50168   6.232  21.188  24.363 -0.2137 -0.0640 -0.3127
 7256W        W50169  24.060  22.363  18.418 -0.0450  0.2638 -0.1171
 7257W        W50170  20.883  13.853  14.025 -0.1658 -0.1706 -0.0762
 7258W        W50171  28.885  23.261  18.703 -0.1641  0.4138  0.0066
 7259W        W50172   1.939  11.938  16.206  0.1187 -0.4444 -0.0856
 7260W        W50173  25.838  23.220  14.078 -0.3191 -0.0438 -0.3187
 7261W        W50174  25.191  18.295  14.665  0.2952  0.2075  0.1047
 7262W        W50175  19.219  24.535  16.542 -0.2229  0.4095  0.0243
 7263W        W50176  23.295  18.635  14.810 -0.2632 -0.1918  0.0254
 7264W        W50177  20.792  25.871  19.958  0.0339 -0.2024 -0.1300
 7265W        W50178  32.241  24.013   1.067  0.1538  0.0126 -0.1638
 7266W        W50179   1.331  21.713  20.092 -0.0439 -0.3776 -0.2408
 7267W        W50180  17.654  22.488  13.876  0.3277 -0.2378  0.2392
 7268W        W50181  24.815  15.706  23.237  0.3068 -0.1376  0.0215
 7269W        W50182  17.551  11.102  15.807 -0.0131  0.2537  0.1876
 7270W        W50183  23.411  26.873  12.464 -0.3734  0.1679 -0.1245
 7271W        W50184  27.907  23.711  13.390  0.0072 -0.1532 -0.0570
 7272W        W50185  21.964  23.696  27.684  0.1076 -0.0984  0.1492
 7273W        W50186  27.728  18.006  23.039 -0.1248  0.1913 -0.1300
 7274W        W50187  25.696  16.438  13.473  0.0290  0.1216 -0.1351
 7275W        W50188  32.706  21.489  29.046 -0.0487  0.0448 -0.1919
 7276W        W50189  19.092  22.335  29.252  0.4033 -0.0000  0.1073
 7277W        W50190   2.954  31.890  16.705  0.0231 -0.0472 -0.3866
 7278W        W50191  13.748  14.002  18.581 -0.2017 -0.1403 -0.2389
 7279W        W50192  18.317   4.771  13.735  0.0476  0.2474 -0.0346
 7280W        W50193  18.874  11.274  15.660 -0.2022  0.1060  0.0663
 7281W        W50194   0.732  17.292  15.821 -0.0341 -0.0626  0.1097
 7282W        W50195  19.692  19.657  14.379 -0.0935 -0.1275 -0.0519
 7283W        W50196  29.709  18.637  21.680  0.1850 -0.0742  0.3828
 7284W        W50197  25.238  14.228  17.472 -0.0028  0.0288  0.0302
 7285W        W50198  26.256  14.245  17.765 -0.0807 -0.0407 -0.2246
 7286W        W50199  33.117  22.784  27.123 -0.1939  0.1146  0.1109
 7287W        W50200  20.444  11.212  17.403 -0.0294 -0.1317 -0.1658
 7288W        W50201  12.994  21.259  14.184  0.0877 -0.0430  0.2340
 7289W        W50202   2.910  22.166  22.929  0.2221 -0.0667 -0.1741
 7290W        W50203   2.400  23.419  25.797 -0.4499 -0.1102 -0.2305
 7291W        W50204  26.399  22.494  16.720 -0.0554 -0.0202 -0.0481
 7292W        W50205  13.396  14.826  12.484 -0.1529  0.1334 -0.0970
 7293W        W50206  20.428  20.416  16.385 -0.0434 -0.0991  0.1433
 7294W        W50207  15.940  24.527  14.021  0.0201  0.0295  0.1377
 7295W        W50208  22.338  15.476  13.056 -0.3108  0.1567  0.1563
 7296W        W50209  24.664  15.051  16.764  0.1726  0.1800  0.3335
 7297W        W50210  23.635  25.116  25.454  0.1638 -0.0080  0.0114
 7298W        W50211  24.745  15.949  14.980  0.1167 -0.1019 -0.1279
 7299W        W50212  26.000  23.421  18.036  0.1218  0.3706 -0.0124
 7300W        W50213  25.574  20.515  14.811 -0.3902 -0.0352 -0.2957
 7301W        W50214  33.965  15.620  16.661  0.1427 -0.1492 -0.0257
 7302W        W50215  23.544  19.864  13.271  0.0177 -0.0899  0.0784
 7303W        W50216  14.921  26.153  20.958 -0.2471 -0.4659  0.0380
 7304W        W50217  28.038  21.898  20.264  0.2347  0.0045  0.1819
 7305W        W50218  15.667  23.156  25.509 -0.0423  0.0505  0.0481
 7306W        W50219  20.841   8.962  24.649  0.0559  0.0139  0.0997
 7307W        W50220  29.311  18.660  24.810 -0.1291  0.3140  0.2270
 7308W        W50221  17.767  24.121  19.904 -0.1386 -0.0733  0.1731
 7309W        W50222  29.679  17.683  19.826  0.0848 -0.0187  0.1025
 7310W        W50223  20.262  16.832  15.837 -0.2620 -0.1151 -0.1985
 7311W        W50224  33.047  16.592  16.412  0.1121 -0.0691 -0.0160
 7312W        W50225  27.288  18.227  17.614 -0.1550 -0.1269  0.1943
 7313W        W50226  30.800  21.131  16.022 -0.0255  0.0752  0.0743
 7314W        W50227  32.551  22.277   0.794 -0.1208  0.2263 -0.1414
 7315W        W50228  21.586  22.196  15.872  0.1712 -0.0315 -0.1429
 7316W        W50229  19.019  28.132  18.611 -0.1178 -0.0331  0.1859
 7317W        W50230  23.104  25.165  13.488 -0.1491  0.0023  0.5646
 7318W        W50231  23.660   5.629  16.018  0.2283  0.0102  0.0487
 7319W        W50232  28.566  28.075  16.851 -0.0705  0.0206  0.1016
 7320W        W50233  23.126  26.574  14.341  0.1611 -0.2033 -0.2833
 7321W        W50234  20.503  19.362  19.423  0.0567  0.1730 -0.1759
 7322W        W50235  26.755  19.963  16.271 -0.0189  0.1960  0.0150
 7323W        W50236  21.302  10.613  15.856  0.0140 -0.0681  0.2285
 7324W        W50237  20.183   3.812  20.460 -0.1047 -0.0958  0.4712
 7325W        W50238  32.574  18.244  23.093  0.0615 -0.2588  0.0960
 7326W        W50239   2.282  26.778  16.113 -0.1123  0.0276  0.1216
 7327W        W50240  18.056  19.672  22.323  0.0264 -0.1187  0.0072
 7328W        W50241  32.827  28.804  26.508 -0.0491  0.0517 -0.1126
 7329W        W50242   0.485  14.077  17.658 -0.4026  0.0822  0.0091
 7330W        W50243  20.039  12.097  15.071  0.0523 -0.1407  0.1097
 7331W        W50244  28.519  26.880  16.464 -0.2113  0.1103  0.0352
 7332W        W50245  24.971  20.210  18.061  0.2150  0.0517  0.0591
 7333W        W50246  16.502  22.346  20.050  0.1459  0.1803  0.1690
 7334W        W50247  19.968  17.252  12.609 -0.1689  0.0245  0.1268
 7335W        W50248   0.055  21.088  14.392 -0.5765  0.1158 -0.1210
 7336W        W50249  23.455  19.991  18.350  0.3676 -0.2297  0.2301
 7337W        W50250   0.402  25.340  27.650 -0.0704  0.4385 -0.0132
 7338W        W50251  23.685  20.004  22.676 -0.3000 -0.2383  0.3688
 7339W        W50252  27.628  19.856  12.795 -0.0116  0.2429  0.2869
 7340W        W50253  25.205   2.698  26.107  0.2447 -0.0867  0.0506
 7341W        W50254  29.231  26.233  13.743  0.1349  0.2502  0.0184
 7342W        W50255  29.472  28.375  19.140 -0.0523 -0.1010 -0.1313
 7343W        W50256  16.481  11.864  17.284 -0.0403  0.3601  0.3729
 7344W        W50257  19.269  25.745  13.168 -0.0458 -0.2565  0.0892
 7345W        W50258  13.857  18.250  24.190 -0.3929 -0.0224  0.2486
 7346W        W50259  28.547  17.259  16.189 -0.3217  0.0530 -0.2887
 7347W        W50260  24.642  22.566  19.065 -0.0349  0.1889 -0.0486
 7348W        W50261  24.267  19.449   3.781 -0.3516  0.1266 -0.2435
 7349W        W50262   9.182  13.707  26.670 -0.1463 -0.0471 -0.2619
 7350W        W50263  23.725  14.718  15.963 -0.1679  0.1896 -0.1792
 7351W        W50264   2.099  16.685  24.824  0.2657 -0.1749  0.0659
 7352W        W50265  30.000  25.913  26.465 -0.2268  0.1270  0.1802
 7353W        W50266  23.477  15.385  18.292  0.0264  0.2523 -0.1494
 7354W        W50267  21.904  14.042  24.310  0.0516 -0.1774 -0.1709
 7355W        W50268  23.515  19.417  15.384 -0.1193 -0.1463 -0.4584
 7356W        W50269   0.697  34.181  24.858 -0.0779 -0.1007  0.0506
 7357W        W50270  23.892  31.574  24.604 -0.1499 -0.0722  0.1660
 7358W        W50271  28.805  15.870  14.524 -0.1719  0.2009  0.2619
 7359W        W50272  32.724  23.739  15.683 -0.4424  0.0671 -0.0391
 7360W        W50273  33.921  19.788  21.791 -0.0626 -0.2068  0.0341
 7361W        W50274   0.037  17.155  19.411  0.1275  0.0383 -0.0086
 7362W        W50275  29.682  22.837  18.260 -0.0281  0.1148  0.1402
 7363W        W50276  22.730  25.633  13.634 -0.0801 -0.2243  0.2712
 7364W        W50277   3.313  25.479  21.465 -0.1220  0.2691 -0.4385
 7365W        W50278  27.455  29.186  15.192  0.1051 -0.0585  0.0904
 7366W        W50279  30.670  25.797  20.592  0.2850  0.0546  0.0818
 7367W        W50280   2.896  18.548  23.141 -0.0788  0.1272 -0.1501
 7368W        W50281  20.117  28.134  20.050 -0.0201  0.0101  0.0829
 7369W        W50282  26.960  21.475  29.454 -0.2339 -0.1596  0.4414
 7370W        W50283  25.517  21.290  15.881 -0.0650 -0.3046 -0.1366
 7371W        W50284  15.902  34.415  14.856 -0.2771  0.2616 -0.1286
 7372W        W50285  31.984  16.265  23.221 -0.4380 -0.1299  0.4149
 7373W        W50286  21.098  26.145  13.526  0.0907  0.3794 -0.0888
 7374W        W50287  25.370  27.554  14.752 -0.2447 -0.1338 -0.0988
 7375W        W50288  27.501  25.305  19.435 -0.1686  0.2099 -0.0397
 7376W        W50289  21.174  14.837  12.526  0.2459 -0.0059 -0.3614
 7377W        W50290  26.758  20.122  13.104 -0.0794 -0.2713 -0.1204
 7378W        W50291  20.601  12.529  28.681  0.1536  0.2746 -0.0910
 7379W        W50292  19.477  14.750  21.861  0.0375  0.0014 -0.3165
 7380W        W50293  25.282  14.564  26.840 -0.0266  0.0179  0.0349
 7381W        W50294  20.443  12.598  16.697 -0.3741  0.3057  0.5263
 7382W        W50295  25.152  23.504  26.917 -0.3227  0.0590 -0.0068
 7383W        W50296   1.971  17.723  14.299 -0.0608  0.1132  0.1105
 7384W        W50297  33.222  25.602  14.445 -0.0970  0.2022  0.0927
 7385W        W50298  21.298   6.077  14.549  0.0307 -0.0278 -0.2944
 7386W        W50299  11.414  22.060  18.948 -0.2478  0.0084  0.1461
 7387W        W50300  11.673  25.954  19.081  0.0056  0.2228 -0.1597
 7388W        W50301  25.862  22.407  14.998  0.1728 -0.0394  0.0166
 7389W        W50302  20.532  19.302  27.208 -0.0632  0.1813  0.0775
 7390W        W50303  29.251  14.715  23.379 -0.2927  0.2688 -0.1908
 7391W        W50304  17.885  24.012  17.917 -0.0342 -0.0464  0.0073
 7392W        W50305  17.126  26.099  20.079 -0.0529  0.0221  0.1463
 7393W        W50306  26.702  23.671  20.166 -0.2554  0.0635 -0.0700
 7394W        W50307  20.657  31.134  23.484  0.0863  0.0985  0.1621
 7395W        W50308  31.253  20.054  17.805  0.1096 -0.3890  0.0213
 7396W        W50309  19.756  12.833  12.794 -0.3640 -0.2396  0.1618
 7397W        W50310  16.648  14.481  14.518  0.4611  0.1317 -0.1562
 7398W        W50311  27.040  11.282  17.686 -0.1047  0.0386  0.0033
 7399W        W50312  29.163  14.336  14.934 -0.1639  0.2487  0.1786
 7400W        W50313  23.832  16.160  21.032 -0.0431 -0.0025 -0.1891
 7401W        W50314  21.316   8.929  24.912 -0.0713  0.2051  0.3649
 7402W        W50315  17.843   1.404  20.824 -0.3883 -0.2394  0.1726
 7403W        W50316  21.198  14.405  13.459 -0.1467  0.0327 -0.1175
 7404W        W50317  17.513  21.828  14.074 -0.0666  0.2574  0.1937
 7405W        W50318  24.609  20.782  29.357  0.0626  0.1228  0.0163
 7406W        W50319  29.307  16.581  16.659 -0.1468 -0.2133 -0.1258
 7407W        W50320  23.271  16.876  14.463 -0.1927  0.0203 -0.2282
 7408W        W50321  15.911  25.151  15.489  0.1757 -0.0217 -0.1211
 7409W        W50322  20.871  22.865  28.315  0.2335 -0.1635  0.1844
 7410W        W50323  20.603  19.465  12.785  0.2873 -0.1261  0.0801
 7411W        W50324  21.232  24.560  22.074 -0.3849 -0.2102 -0.1111
 7412W        W50325  26.156  26.555  16.037  0.0344  0.1283 -0.0482
 7413W        W50326  21.030   3.865  19.017 -0.0266  0.1265 -0.2099
 7414W        W50327  31.013  18.407  16.350  0.1487 -0.0565 -0.0015
 7415W        W50328  22.234  15.635  13.910  0.1881 -0.1610 -0.1611
 7416W        W50329  18.290  22.932  14.759  0.0847 -0.1308  0.2313
 7417W        W50330   9.097  12.700  17.356  0.1091 -0.1279  0.0535
 7418W        W50331  26.448  22.060  18.749 -0.0339  0.0944 -0.0354
 7419W        W50332  21.819  21.204  20.520 -0.0544  0.2120  0.0380
 7420W        W50333   2.455  20.119  28.110  0.1697  0.0189 -0.2626
 7421W        W50334  20.631  17.823  12.386 -0.1563  0.0017  0.3202
 7422W        W50335  12.241  23.771  18.608 -0.3387  0.1570 -0.0294
 7423W        W50336  28.043  28.835  16.435  0.0954 -0.4257 -0.1613
 7424W        W50337  27.513  28.155  13.258 -0.1075 -0.0705  0.2479
 7425W        W50338  26.451  17.351  26.137 -0.0409 -0.0866  0.2144
 7426W        W50339  14.067  26.177  19.072  0.1653 -0.1350 -0.0801
 7427W        W50340  16.839  27.820  19.765  0.1733  0.1166 -0.0577
 7428W        W50341  18.658  25.352  14.886  0.1088 -0.0362  0.2777
 7429W        W50342  25.496  11.598  21.151  0.0637  0.0522 -0.4076
 7430W        W50343  20.231  23.826  19.416  0.1269 -0.1229 -0.1750
 7431W        W50344  31.326  26.156  22.839  0.3156  0.1479 -0.0561
 7432W        W50345  22.825   2.642  29.726 -0.4597  0.3581  0.1349
 7433W        W50346  26.944  26.301  19.666 -0.2346  0.1716 -0.5581
 7434W        W50347   4.645  18.619  27.137  0.0076 -0.0524  0.2798
 7435W        W50348  24.654  14.457  22.517 -0.0694 -0.0967  0.1258
 7436W        W50349  19.728  24.259  21.224 -0.0831 -0.0222 -0.0630
 7437W        W50350  30.662   8.661  15.669 -0.0825 -0.5016  0.2244
 7438W        W50351  27.316  23.340  17.673  0.0877  0.1430 -0.0425
 7439W        W50352  11.193   9.190  22.014 -0.2928 -0.5765  0.3101
 7440W        W50353  24.397  18.528  19.430  0.0998 -0.1746  0.2970
 7441W        W50354  26.528  14.520  13.554  0.2509 -0.1664  0.0377
 7442W        W50355  21.574  14.590  16.996 -0.1249 -0.0462 -0.0576
 7443W        W50356  32.090  20.822  18.481 -0.0244  0.1813  0.1750
 7444W        W50357  11.507  19.459  19.334 -0.1960  0.1079 -0.1594
 7445W        W50358  24.986  17.206  18.003 -0.4087  0.2527 -0.0328
 7446W        W50359  23.777  18.457  17.008  0.2192 -0.0282 -0.0878
 7447W        W50360  12.949  19.987  22.553 -0.2868  0.3929 -0.0878
 7448W        W50361  26.177  12.813  25.083  0.0277  0.1886  0.3222
 7449W        W50362  24.939  12.752  14.028  0.1587 -0.2648  0.0317
 7450W        W50363   0.244  16.532  25.916  0.1056 -0.1089 -0.1275
 7451W        W50364  24.220   9.708  26.175  0.0489  0.3713  0.0599
 7452W        W50365  14.728  25.639  17.922  0.0437 -0.3734  0.1114
 7453W        W50366  18.960  11.741  13.965 -0.4672  0.3361 -0.1972
 7454W        W50367  20.984   2.626  16.516 -0.1652  0.2502 -0.1661
 7455W        W50368  22.601   7.697  16.382  0.4295  0.2033 -0.0600
 7456W        W50369  28.286  22.830  20.899  0.1076  0.0165  0.0156
 7457W        W50370  22.532  10.977  19.467  0.0572  0.2787 -0.1556
 7458W        W50371  23.909  19.460  16.714  0.2144  0.2276 -0.2490
 7459W        W50372  24.313  25.749  15.437  0.0627 -0.1585  0.1946
 7460W        W50373  26.206  10.376  14.280  0.0724 -0.2175  0.0970
 7461W        W50374   8.735  23.677  25.344 -0.1656  0.1884 -0.0275
 7462W        W50375  33.187  14.520  24.752  0.1153 -0.3441 -0.0537
 7463W        W50376  28.678  17.903  25.003  0.3798 -0.1127 -0.0007
 7464W        W50377  26.104  12.427  16.856  0.2522  0.0197  0.1574
 7465W        W50378  19.247  12.890  26.495 -0.1083 -0.2619 -0.0259
 7466W        W50379  28.931  22.496  19.351 -0.2080  0.1317  0.0199
 7467W        W50380  24.398  23.521  17.277  0.0115 -0.1881  0.2454
 7468W        W50381  32.443  16.317  20.162  0.0019 -0.2176 -0.1060
 7469W        W50382  23.451   8.777  12.633  0.3924 -0.0340  0.1666
 7470W        W50383  27.362  12.295  22.673 -0.0815  0.0100 -0.1491
 7471W        W50384   0.315  23.727  29.716  0.0868 -0.0098 -0.2003
 7472W        W50385  29.016  23.254  20.268 -0.2951  0.1234  0.0694
 7473W        W50386  32.097  24.816  14.455 -0.1317  0.0044 -0.1378
 7474W        W50387  21.254  19.926  15.167  0.1506  0.0626  0.0958
 7475W        W50388  34.447  15.838  21.868 -0.0749 -0.0467  0.0701
 7476W        W50389  19.764  16.154  26.179 -0.3117  0.0060  0.2567
 7477W        W50390  28.489  20.224  21.606 -0.0851 -0.1702  0.1313
 7478W        W50391  24.620  27.091  25.690  0.5593  0.1205 -0.2788
 7479W        W50392  24.449  13.310  25.453 -0.0659  0.3219  0.0139
 7480W        W50393  23.132  20.503  13.661 -0.1723 -0.1358  0.0064
 7481W        W50394  15.306   9.029  28.060  0.0120  0.2122  0.0240
 7482W        W50395  30.341  23.835  21.479 -0.1511 -0.0281 -0.0394
 7483W        W50396  22.330  12.664  22.779  0.2081  0.0023 -0.0725
 7484W        W50397   3.372  15.682  20.427 -0.1625 -0.1367 -0.3260
 7485W        W50398  34.177  11.738  21.948  0.1910  0.1377 -0.1927
 7486W        W50399  20.771  20.707  17.722 -0.3832  0.2180  0.5184
 7487W        W50400  24.796   8.530  21.024 -0.1066  0.0690 -0.0846
 7488W        W50401  26.767  16.709  13.203 -0.3724 -0.4018  0.0295
 7489W        W50402  24.365  25.564  23.359 -0.0996  0.2299  0.0680
 7490W        W50403  30.724  13.190  23.067 -0.1600  0.0941  0.2218
 7491W        W50404  25.877  19.438  18.150 -0.3873 -0.0876  0.2297
 7492W        W50405  34.068  24.767  17.915  0.2277  0.0769 -0.1457
 7493W        W50406  24.498  13.094  23.714  0.1405  0.0068 -0.0437
 7494W        W50407  23.356  20.086  12.788 -0.1091  0.1050 -0.2223
 7495W        W50408  22.453   9.031  19.923  0.0752  0.2199  0.1861
 7496W        W50409  21.678  23.283  26.223  0.0467  0.1381 -0.2033
 7497W        W50410  29.757  25.754  26.868 -0.2128  0.2449 -0.3694
 7498W        W50411  23.576  18.855  13.592  0.1532 -0.2262  0.1349
 7499W        W50412  23.681  29.972  14.386 -0.0753  0.1210 -0.4061
 7500W        W50413  21.754  27.764  23.305 -0.2807 -0.3873 -0.0563
 7501W        W50414  22.700  31.896  23.475  0.2701  0.0101  0.0585
 7502W        W50415  19.489  16.216  12.545 -0.2458 -0.2470  0.1400
 7503W        W50416  24.927  26.125  16.481  0.2247 -0.1754  0.2999
 7504W        W50417  20.866  12.999  17.627 -0.2775  0.2343 -0.3057
 7505W        W50418  24.768  28.790  17.613 -0.0167 -0.0529 -0.2212
 7506W        W50419  15.515   7.019  17.141  0.3549  0.0513 -0.1015
 7507W        W50420  27.053  26.056  16.903  0.1062  0.0293 -0.0550
 7508W        W50421  30.762  30.302  15.603  0.0054 -0.1556 -0.0407
 7509W        W50422  24.228  27.336  23.221  0.0695 -0.0045  0.0372
 7510W        W50423  26.234  22.769  14.598 -0.0818  0.1483 -0.0923
 7511W        W50424   1.773  19.419  20.126  0.0280  0.1524  0.2870
 7512W        W50425  12.548   9.532  15.795  0.0980 -0.0404  0.1202
 7513W        W50426  27.510  16.999   2.145  0.1839  0.0110 -0.1460
 7514W        W50427  14.431  24.092  16.111  0.2561  0.0946  0.3751
 7515W        W50428  26.138  32.657   0.805 -0.1580 -0.0137  0.2568
 7516W        W50429  28.863  16.662  14.061 -0.2450 -0.1854 -0.2433
 7517W        W50430  31.202  13.326  23.277  0.0561 -0.1234  0.0357
 7518W        W50431  25.245  24.866  16.489  0.0588  0.3755 -0.1710
 7519W        W50432  25.768  23.274  13.187  0.2173 -0.0568  0.0729
 7520W        W50433  22.424  16.454  12.141 -0.1202  0.0402  0.1532
 7521W        W50434  29.145  24.291  21.100 -0.3030  0.1412  0.4504
 7522W        W50435  17.324  15.372  13.233  0.3460 -0.0128 -0.0627
 7523W        W50436  24.770  26.722  17.818  0.0988  0.2382  0.3539
 7524W        W50437  24.989  22.955  23.104  0.1140 -0.2991 -0.4185
 7525W        W50438  18.768  13.114  22.332 -0.0101 -0.1423 -0.4129
 7526W        W50439   3.387  19.050  21.328  0.0796 -0.0171  0.1265
 7527W        W50440  16.794  29.340  19.819 -0.1806 -0.1627 -0.1236
 7528W        W50441  14.482  16.382  12.424  0.1811 -0.2335 -0.5138
 7529W        W50442  17.778   9.157  14.235  0.1565  0.0036  0.3821
 7530W        W50443  30.007  15.025  17.761 -0.0264 -0.3538 -0.0836
 7531W        W50444  22.523  19.109  16.978 -0.0761  0.1473 -0.0214
 7532W        W50445  24.002  19.242  18.049  0.0719  0.0445 -0.1834
 7533W        W50446  19.141  10.087  14.299  0.1154  0.2528  0.1724
 7534W        W50447  19.196  26.814  26.232  0.3908 -0.0580 -0.0679
 7535W        W50448  10.616  24.116   0.903 -0.0669  0.0691 -0.0081
 7536W        W50449  29.683  12.965  17.844 -0.0671  0.2873  0.1694
 7537W        W50450  18.475  28.485   0.593 -0.1465  0.0909  0.1171
 7538W        W50451  27.210  28.160  22.539  0.1583  0.2270  0.0355
 7539W        W50452  28.499  14.668  25.860  0.2382  0.1166  0.2843
 7540W        W50453  20.029  20.687  29.425 -0.0615 -0.2431  0.1787
 7541W        W50454  21.702  19.519  15.388  0.3549  0.1351  0.1307
 7542W        W50455  28.111  22.022  23.089  0.1422  0.1129 -0.1334
 7543W        W50456  26.808  18.835  26.061 -0.0709  0.1347  0.2728
 7544W        W50457   7.900  19.916  14.792 -0.1342  0.0761  0.1663
 7545W        W50458   0.179  27.340  18.752 -0.3895 -0.1767  0.1882
 7546W        W50459  26.253  13.630   5.953 -0.0212 -0.0414 -0.0667
 7547W        W50460  21.919  16.358  20.269  0.1852 -0.1286  0.0060
 7548W        W50461  25.156  15.743  22.858 -0.2630 -0.1319 -0.4555
 7549W        W50462  23.902  15.737  21.588 -0.0939 -0.2146 -0.2645
 7550W        W50463  28.052  31.981  24.342 -0.1218 -0.0929  0.0950
 7551W        W50464   2.297  13.735  16.589  0.1408 -0.4635  0.4291
 7552W        W50465  22.717  16.786  15.898  0.0121  0.3115 -0.2225
 7553W        W50466  30.151  24.226  15.277  0.1259 -0.0262  0.0866
 7554W        W50467  20.523  20.906  21.164 -0.2967 -0.0465  0.0194
 7555W        W50468  25.792   6.641  20.916 -0.2289  0.1614 -0.0208
 7556W        W50469  33.518  29.736  24.185 -0.2062  0.0569  0.0272
 7557W        W50470  34.095   1.464  24.540 -0.2632 -0.0167  0.1565
 7558W        W50471  26.167  17.717  16.468  0.1167  0.1390  0.3240
 7559W        W50472  30.841  16.433  14.988 -0.0575  0.0122  0.0564
 7560W        W50473  17.144   5.412  25.832 -0.2002  0.2376 -0.2934
 7561W        W50474  24.021  21.601  26.921 -0.0414 -0.3142  0.1341
 7562W        W50475  28.937  25.467  17.823  0.3403  0.0943  0.0512
 7563W        W50476  24.196  14.980  17.894  0.4045 -0.1849  0.0493
 7564W        W50477  24.708  22.895  11.963  0.0861  0.0748 -0.0667
 7565W        W50478  22.733  15.014  13.597  0.1210  0.0519  0.0880
 7566W        W50479  27.678  24.543  17.813  0.1653 -0.1584  0.1380
 7567W        W50480   2.038  22.164  18.300 -0.0818 -0.0565  0.1732
 7568W        W50481  23.668  13.211  13.719 -0.0103 -0.3527 -0.1595
 7569W        W50482  16.232  20.449  14.703 -0.3176  0.3623  0.1815
 7570W        W50483  25.318  23.248  21.470  0.2627  0.2533  0.0804
 7571W        W50484   0.673  22.222   1.000  0.0480  0.3215  0.1367
 7572W        W50485  16.494  17.832  12.187 -0.0043  0.3852 -0.1068
 7573W        W50486  17.202  24.944  13.989 -0.1465 -0.1380  0.0653
 7574W        W50487  29.732  19.028  16.255 -0.0531  0.0285 -0.0337
 7575W        W50488  26.425  21.198  14.558  0.0172  0.0281  0.0003
 7576W        W50489  17.642  11.705  21.875 -0.0616 -0.1247  0.1562
 7577W        W50490  20.969  11.942  22.012 -0.0863 -0.0248 -0.2432
 7578W        W50491  28.191  25.018  24.807  0.0858  0.0743  0.0101
 7579W        W50492  31.487  19.795  21.538 -0.0089 -0.1552 -0.2562
 7580W        W50493  19.059  12.448  23.997 -0.0025 -0.1948  0.1979
 7581W        W50494  15.583  12.281  27.224  0.1898  0.1988 -0.2065
 7582W        W50495  17.650   1.985  20.687 -0.0286  0.1299  0.0112
 7583W        W50496  27.585  10.141  17.031 -0.2920  0.2082  0.1476
 7584W        W50497  30.317  33.083  15.383 -0.1107  0.0646  0.3430
 7585W        W50498  29.395  19.636  23.683  0.0084 -0.2909  0.0209
 7586W        W50499  26.337  22.261  14.730 -0.0276  0.0542 -0.3625
 7587W        W50500  20.442  12.311  22.189  0.1377 -0.3306  0.1538
 7588W        W50501  17.995  28.786  20.142 -0.0780  0.1027  0.4038
 7589W        W50502   9.389  19.941  28.400 -0.0220 -0.3528 -0.0780
 7590W        W50503  22.139  14.722  16.193  0.0137  0.3666 -0.0305
 7591W        W50504   7.157  16.439  28.596 -0.0172  0.1475  0.3234
 7592W        W50505  22.972  29.554  26.793  0.1268  0.1134  0.0136
 7593W        W50506  21.973  17.608  27.953 -0.2119  0.0440  0.2651
 7594W        W50507  32.861  15.169  22.602 -0.1889  0.1918  0.2619
 7595W        W50508  20.067  28.557   4.366 -0.3093  0.0715  0.1682
 7596W        W50509  28.455  23.519  20.521  0.0482 -0.0684  0.0367
 7597W        W50510  18.289  23.383  19.562  0.4388 -0.0509  0.2210
 7598W        W50511  20.905  19.081  13.783  0.0456  0.1537  0.3070
 7599W        W50512  15.617  30.039  16.842  0.0686  0.1043  0.2336
 7600W        W50513  24.629  17.637  28.992 -0.0100 -0.2339 -0.2968
 7601W        W50514  26.013  24.052  26.037  0.0961 -0.3317  0.3500
 7602W        W50515  15.477   9.092  17.780 -0.1103  0.0846  0.2334
 7603W        W50516  26.192   5.983  14.138  0.2466  0.1407 -0.2765
 7604W        W50517  20.229  24.576  14.170 -0.2488  0.0439 -0.1156
 7605W        W50518  30.220  25.160   3.180 -0.0722  0.0610  0.0127
 7606W        W50519  24.324  25.423  22.029  0.0860  0.2972  0.0015
 7607W        W50520  20.879  25.623  16.014  0.3446 -0.0800  0.1156
 7608W        W50521  27.977  21.374  20.171 -0.1661 -0.0244  0.0402
 7609W        W50522  24.721  13.214  15.679 -0.1529 -0.1240  0.2548
 7610W        W50523  20.116  10.238  18.036 -0.2657  0.1020  0.0478
 7611W        W50524   0.979  16.070  26.484 -0.0917  0.1551  0.0253
 7612W        W50525  16.562  22.586  11.960  0.2045  0.3113  0.2002
 7613W        W50526  25.952  10.215  27.670 -0.1844  0.2385  0.1207
 7614W        W50527  24.053  28.245  27.078 -0.0062 -0.0383 -0.1545
 7615W        W50528   1.876  15.044   2.300 -0.2148  0.1533 -0.0518
 7616W        W50529  26.408  26.073  20.519 -0.2277  0.1859 -0.0574
 7617W        W50530  29.666  22.140  29.500  0.4046 -0.3552  0.4280
 7618W        W50531  20.452  27.094  23.369 -0.1829  0.0858  0.0383
 7619W        W50532  33.965  21.029   0.801  0.0552 -0.0099  0.0378
 7620W        W50533  18.791  23.344  24.925  0.2060  0.2932  0.1316
 7621W        W50534  11.018  20.026   3.667 -0.0147  0.2326 -0.2428
 7622W        W50535  16.726  21.696  25.454 -0.0715  0.3158  0.1570
 7623W        W50536  28.894  31.567   3.191 -0.0108  0.4717  0.0701
 7624W        W50537  33.355  17.490  21.381 -0.0762  0.0680  0.0285
 7625W        W50538  22.978  17.980  18.772  0.3255  0.4702  0.1456
 7626W        W50539   0.388  28.833  28.460 -0.0226  0.4752 -0.2626
 7627W        W50540  26.809  29.646  15.789 -0.3135 -0.0638 -0.0979
 7628W        W50541  20.334   2.574  23.641  0.1591  0.1298 -0.3823
 7629W        W50542  23.166  11.298  28.493 -0.0959 -0.3897 -0.3327
 7630W        W50543  23.187  27.845  28.318  0.2362 -0.3651 -0.0464
 7631W        W50544  33.196  20.302  25.229  0.3041  0.1477  0.0688
 7632W        W50545  24.468  19.514  18.304  0.3698 -0.3104 -0.0302
 7633W        W50546  20.482  24.830  18.785  0.2037  0.3203 -0.0471
 7634W        W50547  25.964   8.341  24.874 -0.0730 -0.0551  0.2929
 7635W        W50548  15.620  22.348  18.598  0.0645 -0.1861 -0.1413
 7636W        W50549  30.181  18.983  23.409  0.0245  0.1503  0.0139
 7637W        W50550  23.137  24.954  20.396  0.1113  0.0215  0.1329
 7638W        W50551   2.139  18.577  24.135 -0.1326 -0.3103 -0.1292
 7639W        W50552  29.488  11.148  25.442  0.1413  0.1450 -0.0014
 7640W        W50553  23.278  12.035  20.273 -0.0152 -0.2227 -0.1592
 7641W        W50554  21.240  10.949  25.505 -0.4411 -0.0249  0.0527
 7642W        W50555  21.137  25.861  18.379  0.2615  0.2022  0.0940
 7643W        W50556  19.153  26.811  19.004 -0.2483  0.3081  0.0317
 7644W        W50557  32.685  14.365  28.419  0.0574 -0.0767 -0.1298
 7645W        W50558  34.321  26.411  29.410  0.0700 -0.2747 -0.0923
 7646W        W50559  24.568  25.074   1.307 -0.1927  0.1661 -0.1004
 7647W        W50560  23.803  21.775  24.764  0.1555  0.1569  0.0248
 7648W        W50561   2.089  19.465  14.429  0.2377 -0.0371  0.0522
 7649W        W50562  18.864  17.026  13.646  0.1375  0.3375 -0.1739
 7650W        W50563  24.386   9.753  22.395  0.3762  0.1354 -0.0960
 7651W        W50564  23.115  23.811  13.474  0.3117 -0.0443  0.0692
 7652W        W50565   1.077  19.734  14.431 -0.0960 -0.3357  0.3069
 7653W        W50566  21.128  25.241  15.822 -0.1669  0.1864 -0.0098
 7654W        W50567  27.157  19.757  22.481  0.0652  0.3603 -0.1905
 7655W        W50568  30.474  15.443  16.364  0.0193 -0.0447  0.2476
 7656W        W50569  29.375  24.516  22.542  0.1306  0.0061  0.4363
 7657W        W50570  30.350  12.577  20.180 -0.0342 -0.1788 -0.1637
 7658W        W50571  16.252  28.846  15.674  0.0660  0.0495 -0.2102
 7659W        W50572  27.839  31.095   1.719  0.0041 -0.2000 -0.0165
 7660W        W50573  20.476  13.753   0.255 -0.0840  0.1857  0.1458
 7661W        W50574   1.146  17.416   2.443  0.0243 -0.4310 -0.1056
 7662W        W50575  22.502  22.382  21.740  0.3705  0.0327  0.4528
 7663W        W50576  29.854  24.964  25.615 -0.1507  0.1701 -0.0747
 7664W        W50577   9.193  24.047  29.179  0.1841 -0.1680  0.0240
 7665W        W50578  29.460  17.936  22.912  0.2724 -0.2449 -0.0128
 7666W        W50579   5.837  18.140  28.349  0.1778 -0.0555 -0.2817
 7667W        W50580  19.240  15.429  27.159  0.0388  0.0083 -0.1831
 7668W        W50581  28.256  22.920  27.100 -0.1864 -0.0616 -0.1082
 7669W        W50582  30.040  21.786  14.102  0.1134 -0.1369 -0.2055
 7670W        W50583  25.636  22.541  20.056 -0.1265  0.0682  0.1052
 7671W        W50584  30.864  23.503  17.383  0.1974  0.1262 -0.0993
 7672W        W50585  25.986  22.403  26.658  0.0121 -0.3156 -0.2444
 7673W        W50586  32.338  15.101  22.551 -0.0449  0.1465  0.0757
 7674W        W50587  25.219  20.045   1.158 -0.0041 -0.0894 -0.1033
 7675W        W50588  31.954  21.432  28.123 -0.0341 -0.2165  0.1578
 7676W        W50589  22.128  23.038  15.287  0.0597  0.1058  0.5480
 7677W        W50590   1.448  14.982  24.341 -0.0707 -0.2203  0.3786
 7678W        W50591  29.757  31.699  22.603 -0.0673  0.2547  0.0255
 7679W        W50592  25.986  18.297  20.206 -0.1416 -0.0186  0.0832
 7680W        W50593  22.657  22.848  26.655 -0.0513 -0.3129  0.1645
 7681W        W50594  20.592  31.123  28.357  0.1197  0.0949 -0.2322
 7682W        W50595  30.121  16.389   8.818 -0.0102  0.0732 -0.0035
 7683W        W50596  25.881  26.444  27.683  0.0784  0.3096 -0.0843
 7684W        W50597  25.567  31.105  21.720  0.1831  0.1955  0.1848
 7685W        W50598  31.069  23.195  21.891  0.0124  0.6495 -0.0699
 7686W        W50599  27.258  17.760   5.402 -0.1388 -0.1247 -0.0565
 7687W        W50600  19.797  20.888  20.381 -0.0558 -0.1232 -0.1816
 7688W        W50601  21.814  20.358   0.910  0.4513  0.0511 -0.3337
 7689W        W50602  24.174  19.819  12.200  0.1127  0.1282  0.1901
 7690W        W50603  25.534  24.088  25.231  0.0417 -0.0597 -0.2515
 7691W        W50604  29.439  13.449  23.200  0.1419 -0.0638 -0.2252
 7692W        W50605  32.939  28.824  13.767  0.3227  0.0480 -0.2841
 7693W        W50606  23.757  32.972  22.492  0.1854 -0.1153  0.4690
 7694W        W50607   6.242  15.155  29.526 -0.2825 -0.2626  0.1394
 7695W        W50608  27.639  16.042   5.468  0.0968 -0.2460 -0.0817
 7696W        W50609  16.377  12.043  17.709 -0.0638 -0.1692  0.2879
 7697W        W50610  17.679  21.547  21.405  0.2837  0.1402 -0.0317
 7698W        W50611  25.656  25.133  28.403  0.2556  0.1629  0.0302
 7699W        W50612  23.284  16.266  22.440 -0.0096  0.0028  0.0049
 7700W        W50613  14.402  22.615  20.462 -0.2504  0.1645  0.1348
 7701W        W50614  16.300  25.367  20.435  0.0981  0.1686  0.0394
 7702W        W50615  25.903  15.879  15.856  0.0868 -0.2515  0.3484
 7703W        W50616  15.519  25.299   0.905  0.1521  0.0473  0.1054
 7704W        W50617  25.116  16.172  29.727 -0.0913 -0.1558  0.3157
 7705W        W50618  22.746  27.889  22.982 -0.0089 -0.1151  0.1548
 7706W        W50619  24.695  16.494  19.032 -0.1604  0.2202 -0.3363
 7707W        W50620  18.937  19.478  23.863  0.4218  0.0902 -0.1263
 7708W        W50621  31.244   7.979  27.166 -0.1922 -0.4834 -0.1399
 7709W        W50622  21.439  23.702  24.974 -0.0388  0.4924  0.2420
 7710W        W50623  28.500  10.738  24.475  0.0405  0.3392 -0.1226
 7711W        W50624   5.497  21.884  20.571 -0.2137 -0.0307 -0.3222
 7712W        W50625  30.067  23.198  19.018 -0.1772 -0.0677 -0.4055
 7713W        W50626  26.779  13.064  22.179 -0.3799 -0.0193 -0.1769
 7714W        W50627  27.242   5.714  17.252 -0.0609 -0.2807 -0.0017
 7715W        W50628  22.647   5.912  29.195  0.0092  0.1175  0.1931
 7716W        W50629  32.118  19.472  13.355  0.2183  0.1006 -0.3388
 7717W        W50630   2.813  29.955   4.494  0.3458  0.4403  0.0151
 7718W        W50631  22.360  28.656  15.175  0.2955  0.3127 -0.1211
 7719W        W50632  28.594  20.118   8.130  0.1514  0.0377 -0.0547
 7720W        W50633  27.149  33.767  15.845  0.2534  0.3290 -0.1419
 7721W        W50634  19.389  12.451  22.298  0.2396  0.0858  0.1987
 7722W        W50635  22.612  18.537  21.445  0.4203  0.2432  0.0401
 7723W        W50636  21.705  24.222  17.286 -0.0026  0.4414  0.2052
 7724W        W50637  25.633  24.329  26.479  0.0345  0.2339 -0.0650
 7725W        W50638  27.668  17.772  20.600  0.0682 -0.1913 -0.0382
 7726W        W50639  20.501  18.234  27.282 -0.1299 -0.1174 -0.0048
 7727W        W50640  21.490  19.981  24.572  0.0576  0.1807  0.2887
 7728W        W50641  13.692  28.711  28.224  0.2288 -0.1498  0.1499
 7729W        W50642   1.749  19.941  26.067 -0.2307  0.3291 -0.1459
 7730W        W50643  22.334  29.162  16.922 -0.0786 -0.5332  0.0297
 7731W        W50644  24.015  30.976   0.099 -0.0328 -0.0340  0.2000
 7732W        W50645  17.877  11.226  23.761  0.0969 -0.0254 -0.2196
 7733W        W50646  24.617  19.705   0.645 -0.0647 -0.0354  0.0027
 7734W        W50647  14.144  23.723  15.121  0.1943 -0.2584 -0.1661
 7735W        W50648  20.898  14.869  23.790  0.3373  0.0845  0.0560
 7736W        W50649  23.101  17.034  22.863  0.1247  0.4366 -0.0647
 7737W        W50650  19.142  22.726  29.555 -0.0082  0.4853 -0.0767
 7738W        W50651  20.476  13.316  12.619  0.1295  0.1849  0.1122
 7739W        W50652  32.516  21.401  25.367 -0.1769 -0.2427 -0.0691
 7740W        W50653  26.422  15.891  24.263  0.4458  0.0456  0.2100
 7741W        W50654  30.095  21.182  29.212  0.2123 -0.3527 -0.1234
 7742W        W50655  30.495  22.847   1.895 -0.1944  0.1424  0.1485
 7743W        W50656  21.466  14.132  13.081  0.0116  0.0000 -0.3142
 7744W        W50657  25.075   8.966  23.940  0.3272  0.0932 -0.2647
 7745W        W50658  15.219  16.984  15.484  0.0735  0.1279  0.1339
 7746W        W50659  21.173  21.135   7.860 -0.1262  0.2314 -0.0225
 7747W        W50660  25.389   8.601  29.190 -0.0119  0.1973 -0.4251
 7748W        W50661  28.959  25.719  20.720 -0.2576  0.0776  0.1709
 7749W        W50662  17.717  15.476   7.219 -0.0139  0.0483  0.1684
 7750W        W50663  31.832  23.818   0.897  0.1670 -0.1829  0.3148
 7751W        W50664  30.333  22.513  14.617  0.0805  0.0108 -0.0577
 7752W        W50665  16.098  23.718  27.533 -0.1761  0.0984 -0.0592
 7753W        W50666  25.498  12.302  20.980 -0.1770 -0.2150  0.1635
 7754W        W50667  22.591  22.512  17.785 -0.0782  0.0902 -0.0187
 7755W        W50668  21.434  23.836  23.138 -0.1774  0.0141  0.1181
 7756W        W50669   4.108  15.359  21.864  0.1428 -0.0428 -0.0029
 7757W        W50670  30.526  24.005  23.915 -0.2916 -0.1566  0.0495
 7758W        W50671  22.600  15.980  19.752  0.0249  0.0210  0.1295
 7759W        W50672  29.840  21.128  26.479 -0.1028 -0.1981 -0.0668
 7760W        W50673  32.593  20.603  18.783  0.0941 -0.0511 -0.3364
 7761W        W50674  23.354  16.260  15.297  0.3199 -0.0735  0.0633
 7762W        W50675  20.723  20.181  12.307  0.0519 -0.2714 -0.2552
 7763W        W50676  20.506  19.878  24.394  0.2214  0.2255 -0.0668
 7764W        W50677  29.018   1.335  22.561 -0.0036 -0.1293 -0.0445
 7765W        W50678  16.641  10.325  18.659  0.1660  0.0838  0.0913
 7766W        W50679  23.749  21.051  28.980  0.0260 -0.1107 -0.2733
 7767W        W50680  17.216  16.523  24.157 -0.0658  0.3338  0.0382
 7768W        W50681  10.478  28.040  28.792  0.2603  0.1190  0.1553
 7769W        W50682  15.497  20.724  23.193 -0.3725 -0.0958 -0.3797
 7770W        W50683  25.277  14.189  28.098 -0.1094  0.1117  0.1218
 7771W        W50684   5.610  18.620  28.326  0.0384  0.2877  0.2387
 7772W        W50685  12.854  22.900   1.953  0.0152  0.0737  0.2892
 7773W        W50686  30.682  27.595  20.476  0.3625 -0.1451 -0.1878
 7774W        W50687  19.643  24.044   2.570 -0.1783  0.0518  0.5382
 7775W        W50688  20.448   2.142   3.321  0.1118  0.0051 -0.2076
 7776W        W50689  28.902  16.044  20.180  0.0699  0.1768 -0.0034
 7777W        W50690  28.934   1.440  18.711  0.3167 -0.1010 -0.0973
 7778W        W50691  22.879  20.837  19.964  0.1054 -0.1992 -0.2370
 7779W        W50692  30.324  26.132   1.577 -0.0420  0.1632 -0.1435
 7780W        W50693   9.091   8.951  19.060 -0.0720  0.1138 -0.0320
 7781W        W50694  14.165  24.024  20.477 -0.1927 -0.0232  0.1057
 7782W        W50695  21.349  21.617  18.492  0.0559 -0.0022 -0.0018
 7783W        W50696  20.959  20.103  24.360  0.3820 -0.0759  0.1248
 7784W        W50697  21.590  13.851  22.962  0.2460  0.0156 -0.1426
 7785W        W50698  23.724  26.373  13.254 -0.5077 -0.1266  0.0783
 7786W        W50699  16.630  23.741  15.080  0.1571  0.3061  0.0820
 7787W        W50700  32.983  18.499  23.307  0.0707  0.0879 -0.3259
 7788W        W50701  23.945  22.547  12.815 -0.2068  0.2113 -0.0196
 7789W        W50702  31.975  26.783  22.932  0.1620  0.0299  0.1843
 7790W        W50703  20.249  24.513  22.085 -0.1140 -0.1427 -0.3750
 7791W        W50704  22.896  18.063  21.181  0.3065  0.1120 -0.0263
 7792W        W50705  10.660   8.639  26.735  0.1717 -0.0829  0.0317
 7793W        W50706  22.547  23.479  15.275 -0.1718  0.0594 -0.0938
 7794W        W50707  19.118  28.344  16.278  0.1182  0.3289  0.1853
 7795W        W50708  25.673  30.220  27.014  0.2413  0.3084 -0.0105
 7796W        W50709  19.573  17.126  21.977 -0.0766  0.0142 -0.2301
 7797W        W50710  25.804  15.176  20.778  0.4846  0.0633 -0.2301
 7798W        W50711  21.621  14.252  21.391 -0.0523  0.0745  0.0813
 7799W        W50712  27.064  31.358  18.907  0.0918 -0.0410 -0.0068
 7800W        W50713  22.285  14.294  24.574 -0.0811  0.4457 -0.0585
 7801W        W50714  18.730  28.708  29.556  0.4873  0.1399 -0.3509
 7802W        W50715  20.416  10.966  25.933  0.0714 -0.1677 -0.2204
 7803W        W50716  15.443  22.367  21.266 -0.2490 -0.2070 -0.0919
 7804W        W50717  18.007   9.894  20.480  0.1736  0.1457  0.2134
 7805W        W50718  18.327   9.740   3.155 -0.0341 -0.2196  0.2196
 7806W        W50719  14.971  22.113  22.630 -0.2215  0.3607  0.4346
 7807W        W50720  25.997  19.725   0.427 -0.0114 -0.1079  0.0811
 7808W        W50721  24.091  24.807  26.343  0.1540 -0.0007  0.5945
 7809W        W50722  20.068  18.216  15.334  0.0683  0.2768  0.1033
 7810W        W50723  25.220  10.246   5.813 -0.1410 -0.6043 -0.0045
 7811W        W50724  28.757  22.753   3.354 -0.0887 -0.1940  0.1532
 7812W        W50725   1.264  13.990  18.099 -0.2394 -0.0180 -0.4201
 7813W        W50726  26.020  26.495  20.931 -0.1686 -0.0802  0.2642
 7814W        W50727  17.825  29.732  21.185 -0.0597 -0.1806 -0.0409
 7815W        W50728  33.410  30.580  25.586  0.1773  0.1663 -0.0482
 7816W        W50729  30.133  16.987  17.245  0.2456  0.1770  0.0258
 7817W        W50730  21.704  13.854  21.924 -0.3044  0.1559 -0.1154
 7818W        W50731  26.057  27.286   4.609  0.2316  0.2987  0.0545
 7819W        W50732  25.458  26.065  15.602  0.0216  0.2101 -0.0109
 7820W        W50733  23.710  26.662  29.174  0.4821 -0.1605  0.4391
 7821W        W50734  19.359  19.486  23.407  0.0656  0.0217 -0.0121
 7822W        W50735  26.966  16.904  19.328 -0.3291 -0.1394  0.0932
 7823W        W50736  24.076  29.005  26.656  0.2348  0.0860 -0.2018
 7824W        W50737   1.303  13.060  24.246  0.0488  0.2926  0.0791
 7825W        W50738  28.928  20.172  26.878  0.0507 -0.1748 -0.0313
 7826W        W50739  15.633   1.147  16.079 -0.0549  0.1240 -0.1780
 7827W        W50740  26.698  15.729  18.960  0.0975 -0.1070 -0.1361
 7828W        W50741  14.624  11.453  22.388 -0.1364  0.1455 -0.3529
 7829W        W50742  26.678  28.397   1.380  0.2022  0.1713 -0.0512
 7830W        W50743  21.081  23.266  23.820  0.3169  0.1234 -0.4269
 7831W        W50744  27.352  15.769   4.733 -0.1529 -0.3464 -0.1704
 7832W        W50745  19.739  25.723   3.374  0.0868 -0.0554  0.0431
 7833W        W50746  26.202  14.749  18.868 -0.1745 -0.0695 -0.1749
 7834W        W50747  22.915  32.183  23.099 -0.0195  0.0340  0.1700
 7835W        W50748  25.178  11.521  25.433 -0.0755  0.4190  0.3647
 7836W        W50749  30.256  30.116  19.189 -0.0017  0.1062  0.1511
 7837W        W50750  29.364  15.774  26.350 -0.0109  0.0993  0.1135
 7838W        W50751  18.918  26.386  22.414  0.1058  0.0339  0.1791
 7839W        W50752   1.414  31.927  25.838  0.2176 -0.0653 -0.0057
 7840W        W50753  23.129  12.437  26.016  0.3024 -0.1667  0.0960
 7841W        W50754  19.845  12.875  21.158 -0.0161 -0.3152  0.0536
 7842W        W50755  28.214   7.570  21.331  0.2260 -0.0131 -0.3586
 7843W        W50756  33.481  18.775   4.644  0.1528 -0.0513 -0.0419
 7844W        W50757  18.946  16.159   7.684 -0.1990  0.0740  0.1974
 7845W        W50758   2.777  21.751  20.924 -0.3292  0.2176  0.0302
 7846W        W50759  19.916  20.930  26.025 -0.3967 -0.0682  0.1732
 7847W        W50760  34.344  17.258   5.914 -0.1744  0.5033  0.0897
 7848W        W50761  17.400  22.685  24.202 -0.3312  0.4117  0.3946
 7849W        W50762  17.532  28.560  16.223  0.1595 -0.0986  0.0732
 7850W        W50763  20.716  19.381  22.707 -0.0829 -0.2569 -0.2941
 7851W        W50764  24.719  27.479  13.105  0.1228  0.0315  0.0155
 7852W        W50765  11.486  24.592  27.763 -0.2562  0.3710 -0.0795
 7853W        W50766  11.837   5.560  22.503  0.1035  0.0933 -0.1496
 7854W        W50767  31.625  22.903  14.980  0.1729  0.0356 -0.0442
 7855W        W50768  25.794  20.903  16.987  0.0594 -0.1102  0.1249
 7856W        W50769  24.208  20.810   2.525  0.0972  0.3158  0.2162
 7857W        W50770  28.930  25.002   8.520  0.2036  0.0928 -0.0956
 7858W        W50771  16.835  18.334  27.969 -0.0346 -0.0370  0.1399
 7859W        W50772  28.249  17.640  15.395  0.0982  0.1578 -0.1674
 7860W        W50773  32.822  11.702  26.665  0.0869  0.0716  0.1286
 7861W        W50774  34.310  17.248  18.163 -0.3079 -0.2787 -0.0037
 7862W        W50775  19.284  18.738  29.172  0.2685 -0.0010  0.1032
 7863W        W50776  25.239  12.349  25.776  0.1377 -0.3066 -0.1410
 7864W        W50777  31.052  16.110  22.692 -0.0477  0.3072  0.2683
 7865W        W50778  29.839  12.673  25.972  0.3118 -0.0137  0.0129
 7866W        W50779  26.809  17.645   7.431 -0.0467  0.0360  0.0595
 7867W        W50780  29.053  24.092  19.983  0.1828 -0.0205 -0.1154
 7868W        W50781  24.420  12.762  26.338 -0.1054  0.0407  0.1771
 7869W        W50782  22.770  21.659  24.856  0.4376  0.0886 -0.0736
 7870W        W50783  18.128  31.574  26.362 -0.4298  0.2875 -0.0453
 7871W        W50784  21.568  25.475  25.665  0.1778  0.0986 -0.0360
 7872W        W50785  23.878  14.600  20.487 -0.2491 -0.0268  0.0057
 7873W        W50786  30.405  23.827  22.970 -0.3646 -0.1804 -0.1992
 7874W        W50787  29.089  11.171  23.541  0.0146 -0.1955 -0.1090
 7875W        W50788  23.141  21.455  29.768 -0.0775  0.0282  0.1177
 7876W        W50789   9.258  19.694  15.982  0.0473 -0.2749 -0.0888
 7877W        W50790  19.742  28.604  23.949  0.1227  0.1947 -0.0043
 7878W        W50791  28.601  27.540   2.211  0.0176 -0.0690  0.1118
 7879W        W50792  12.357  20.177  16.877 -0.1853  0.0240  0.0474
 7880W        W50793  22.520  26.790  26.243 -0.2352  0.1656 -0.4323
 7881W        W50794  26.288  25.717  22.403  0.0164 -0.1838 -0.2285
 7882W        W50795  31.895  29.909  25.738 -0.1626  0.1288  0.0298
 7883W        W50796  27.581  14.581  19.848  0.1232  0.0866 -0.1132
 7884W        W50797  22.756  20.230  19.267  0.0065  0.5536 -0.1108
 7885W        W50798  26.620  19.197  22.247  0.0579 -0.0262 -0.3270
 7886W        W50799  21.008  26.488  15.444 -0.2642  0.0910 -0.0233
 7887W        W50800  28.654  19.392   7.682  0.3374 -0.1503 -0.5638
 7888W        W50801  34.240  21.737  22.671  0.0263  0.0210 -0.0073
 7889W        W50802  28.313   9.163  29.291  0.1362  0.2249 -0.3699
 7890W        W50803  19.999  14.570  16.445  0.1804 -0.1049  0.0265
 7891W        W50804   1.188  12.271  21.101 -0.0252 -0.1153  0.2365
 7892W        W50805  21.518  19.402  17.467  0.2972 -0.0982  0.1871
 7893W        W50806  12.213  21.174  16.773 -0.3261 -0.2271  0.1426
 7894W        W50807  23.162  23.973  27.934 -0.1061 -0.1848 -0.0102
 7895W        W50808  29.740  23.400  21.184 -0.0041  0.2153 -0.2790
 7896W        W50809  28.546  13.848  29.572 -0.2906 -0.1744  0.0968
 7897W        W50810  22.886  24.197  15.489 -0.1956 -0.1039 -0.5448
 7898W        W50811  21.421   9.977  13.855 -0.1218  0.1317  0.0494
 7899W        W50812  21.697  16.698  13.265 -0.4413  0.1028  0.2378
 7900W        W50813  11.793  12.972  24.367 -0.0236 -0.0053  0.0266
 7901W        W50814  11.362  18.593  19.908  0.1253 -0.2309 -0.1933
 7902W        W50815  15.217  23.743  23.067 -0.1937 -0.1513  0.0606
 7903W        W50816  31.576  22.418  16.763  0.1171 -0.2543 -0.0733
 7904W        W50817  17.236  14.120   0.988 -0.0456  0.1464 -0.1334
 7905W        W50818  22.629  18.103  27.601  0.1946  0.2307  0.1151
 7906W        W50819  23.947  19.486  27.516  0.2054  0.0735  0.1385
 7907W        W50820  26.327   6.718  19.181  0.0456  0.0536 -0.2196
 7908W        W50821  27.099  15.294  15.224  0.0266 -0.0957  0.0070
 7909W        W50822  14.984  19.547  16.068  0.0996 -0.2032  0.2654
 7910W        W50823  26.190  16.128  20.823 -0.0736 -0.1137 -0.1647
 7911W        W50824  27.711  17.279  14.054 -0.0959 -0.1333  0.0258
 7912W        W50825  16.503  12.337  11.770  0.0317  0.0446 -0.1715
 7913W        W50826  33.123  27.153  25.454  0.1280 -0.0483  0.1684
 7914W        W50827  30.644  31.481  23.586  0.3026  0.1854  0.1083
 7915W        W50828  33.135  26.501  26.008  0.2048  0.0914 -0.1009
 7916W        W50829  24.543  22.802  28.586 -0.3190  0.2008 -0.1831
 7917W        W50830  14.215  18.570  14.806  0.2950  0.2511 -0.1349
 7918W        W50831  20.020  21.133  19.808 -0.0207  0.2203  0.0438
 7919W        W50832  33.493  20.320  18.453  0.0016  0.1134  0.3867
 7920W        W50833  30.396  22.713  27.428 -0.0404  0.0894  0.0989
 7921W        W50834  20.227  14.655  19.649  0.2314  0.1824  0.3350
 7922W        W50835  24.053  21.781  29.409  0.1528 -0.1008  0.1627
 7923W        W50836  25.036  14.425  28.560  0.2044  0.1198 -0.3190
 7924W        W50837  25.494  25.263  27.388 -0.1776  0.0903 -0.0331
 7925W        W50838  22.788  18.546  22.738 -0.0722 -0.2632  0.3847
 7926W        W50839  21.360  12.989  15.647  0.2259  0.1539  0.0328
 7927W        W50840  34.106  24.322  21.518 -0.1323  0.2694  0.2010
 7928W        W50841  31.080  14.469  26.105  0.1346 -0.1161 -0.1296
 7929W        W50842  20.111  23.487   1.060 -0.2382 -0.2642  0.0216
 7930W        W50843  19.910  20.578   2.027  0.0722 -0.0511  0.1034
 7931W        W50844  21.144  20.011  18.308 -0.0106  0.2071 -0.0859
 7932W        W50845  24.203  18.076  13.443  0.0028 -0.0726 -0.1036
 7933W        W50846  20.674  18.292  26.229 -0.2055 -0.2389 -0.1361
 7934W        W50847  15.446  29.517  17.210 -0.1060  0.1061 -0.2543
 7935W        W50848  29.551  15.481  19.874  0.0283  0.2275  0.2941
 7936W        W50849  25.338  17.010  23.254 -0.3172  0.0101 -0.2654
 7937W        W50850  19.206  14.546  23.416  0.1461 -0.0165  0.2057
 7938W        W50851   2.514  34.348  23.111 -0.0154 -0.1443  0.2677
 7939W        W50852  23.758  12.929  16.652 -0.1437 -0.3464 -0.2000
 7940W        W50853  29.003  34.455  20.006 -0.2266  0.0711  0.2732
 7941W        W50854  28.104  19.683  27.097 -0.3827 -0.3211  0.2214
 7942W        W50855  21.642  21.271  24.023 -0.1302 -0.1809  0.2227
 7943W        W50856  24.204  20.784  26.792 -0.2157 -0.0136  0.0500
 7944W        W50857  23.871   0.710  17.349  0.1180  0.0844 -0.2200
 7945W        W50858  23.119  16.524  28.289  0.1285  0.3886  0.1088
 7946W        W50859  19.433  18.985  23.379 -0.1772  0.1353 -0.0004
 7947W        W50860  30.643   9.720  29.713  0.2028 -0.1876 -0.2286
 7948W        W50861  23.823  13.042   7.115  0.1750  0.1894 -0.1909
 7949W        W50862  20.149  22.801  18.965  0.0330 -0.0739 -0.1529
 7950W        W50863  21.062  22.631   1.156  0.4482 -0.0301  0.0902
 7951W        W50864  30.294  19.170  18.089  0.1323  0.2315  0.0767
 7952W        W50865  19.855  18.189  28.202 -0.1006 -0.1787 -0.1820
 7953W        W50866  29.373  20.639  23.505 -0.2315 -0.0489  0.0668
 7954W        W50867  23.832  20.256   8.492  0.1985  0.0780  0.1254
 7955W        W50868  31.625  21.472  21.110  0.1269  0.0005  0.0606
 7956W        W50869  22.615  12.223  23.328  0.2018 -0.3123  0.0832
 7957W        W50870  20.475  27.459   1.956 -0.3348  0.0816 -0.1182
 7958W        W50871  31.098  29.885  24.572 -0.2846  0.2135  0.0811
 7959W        W50872  27.260  18.943  21.439 -0.0834  0.0674  0.2270
 7960W        W50873  21.909   9.123  18.636  0.0133  0.0393  0.0983
 7961W        W50874  19.641  26.303  15.502  0.1752 -0.1851  0.1124
 7962W        W50875  11.961  19.104  26.446 -0.0279  0.0128 -0.1918
 7963W        W50876  20.960  20.391  14.108  0.3469  0.1851 -0.2787
 7964W        W50877  19.470  33.246  27.925  0.0404 -0.0808  0.0194
 7965W        W50878  20.461  22.892  28.683  0.0960  0.2630  0.0564
 7966W        W50879  28.209  26.013  26.311 -0.0955  0.3225 -0.0578
 7967W        W50880  24.977  23.831  23.031 -0.3044  0.1826 -0.4394
 7968W        W50881  26.950  13.900  21.661 -0.3485 -0.1119  0.2482
 7969W        W50882  20.778  16.210  24.330 -0.2286  0.2435 -0.0428
 7970W        W50883   0.398  25.037  23.176 -0.0456 -0.0501 -0.3198
 7971W        W50884  33.629  24.715  22.440 -0.1807 -0.0007  0.3564
 7972W        W50885  27.971  17.530  29.261  0.0473  0.2715  0.2809
 7973W        W50886  26.254  20.570  24.744  0.0913 -0.1612  0.2644
 7974W        W50887  32.420  21.116  28.359 -0.1118  0.0124 -0.0520
 7975W        W50888  23.748  24.987  18.998 -0.0240 -0.2557 -0.1641
 7976W        W50889  32.244  28.747  23.666 -0.3813  0.1818  0.2652
 7977W        W50890  30.951  34.038  14.818  0.0759 -0.0945  0.2491
 7978W        W50891  26.536   9.478  17.096 -0.1840  0.2606 -0.0412
 7979W        W50892  23.603  15.883  15.048  0.4449 -0.0109  0.0602
 7980W        W50893  26.499  30.710  27.320  0.1046 -0.0256 -0.0183
 7981W        W50894  10.505  13.434   1.082  0.0393 -0.5703 -0.3320
 7982W        W50895  21.649  18.844  21.336  0.0047 -0.2133 -0.0460
 7983W        W50896  24.555  27.442  17.637  0.2868 -0.1088 -0.0519
 7984W        W50897  20.943  21.099  15.350  0.1432 -0.0110  0.0070
 7985W        W50898  24.122  13.953  29.252  0.0146 -0.1175  0.0721
 7986W        W50899  26.590  31.813   1.155  0.0546  0.1403 -0.1735
 7987W        W50900  23.686  13.035  29.594  0.3068 -0.1232 -0.0218
 7988W        W50901  25.276  22.253   6.213  0.2073 -0.1210 -0.1244
 7989W        W50902  31.663  22.379  25.946  0.4245  0.2991 -0.3301
 7990W        W50903  29.908  21.723  27.173 -0.2138 -0.2025  0.1195
 7991W        W50904  29.140  17.433  24.351  0.1642  0.0804  0.1853
 7992W        W50905  20.244  18.541  22.324 -0.0498 -0.0965  0.1391
 7993W        W50906  27.135  28.263  26.994  0.0652 -0.0071  0.1109
 7994W        W50907  18.689  13.151   5.083  0.0902 -0.1360 -0.0636
 7995W        W50908   0.063  16.778   2.842 -0.4143  0.1889 -0.0862
 7996W        W50909  18.341  14.231  25.713  0.2616  0.2439 -0.0490
 7997W        W50910  19.932  16.586  23.204 -0.1995 -0.2730  0.1659
 7998W        W50911  26.992  17.474  26.407 -0.0822 -0.0459 -0.1622
 7999W        W50912  23.575  17.058  27.112  0.1880  0.1131 -0.1916
 8000W        W50913  25.360  29.219  28.408 -0.1651  0.0924  0.0077
 8001W        W50914  22.698  21.120  28.175 -0.2481  0.1053 -0.0030
 8002W        W50915  31.291  31.166  26.650 -0.0481 -0.2744 -0.2939
 8003W        W50916  18.267  25.888   2.994 -0.1744 -0.0035  0.1942
 8004W        W50917  24.889  27.832  27.912  0.2948 -0.0924  0.0715
 8005W        W50918  29.039  18.190  23.975  0.1591 -0.1457 -0.0472
 8006W        W50919  27.276  17.097   1.680 -0.2899 -0.1072 -0.1259
 8007W        W50920  21.729  20.976   0.328  0.1962  0.0234  0.0791
 8008W        W50921  12.803  21.470  20.331  0.4024  0.1621 -0.1414
 8009W        W50922  24.320  20.763  22.924 -0.1635 -0.0013  0.1635
 8010W        W50923   1.571  23.233  23.618 -0.2739 -0.5354  0.1920
 8011W        W50924  23.274  28.900  22.368 -0.1016  0.1168  0.3115
 8012W        W50925  27.031  16.818  21.496 -0.0117  0.3126 -0.1087
 8013W        W50926  23.961  26.331  28.013  0.0841 -0.2302 -0.0164
 8014W        W50927  17.101  26.631  18.342 -0.1642  0.1013  0.2660
 8015W        W50928  33.278  16.991  28.660 -0.2505  0.1182  0.1032
 8016W        W50929  23.761  26.674  27.298 -0.0038  0.0543  0.3082
 8017W        W50930  14.500  31.394  23.358  0.1436 -0.2677 -0.2175
 8018W        W50931  23.306  24.805  21.251  0.1000  0.0515 -0.1163
 8019W        W50932  23.841  28.003  17.244 -0.0506 -0.0746 -0.0267
 8020W        W50933   0.055  17.950  29.476  0.2309 -0.1866  0.0622
 8021W        W50934  25.637  23.336  23.197  0.0716  0.0243 -0.0756
 8022W        W50935   5.063  25.422  24.398  0.4954  0.4448  0.0748
 8023W        W50936  20.758  11.275   6.650  0.1109 -0.0558 -0.0095
 8024W        W50937  17.047  11.995   4.794  0.1699 -0.0110  0.3140
 8025W        W50938  20.868   8.525  19.846 -0.2712 -0.0043  0.0931
 8026W        W50939  21.241  24.813  27.293  0.0612 -0.2963  0.3068
 8027W        W50940  24.525  23.487  17.748  0.1932 -0.0642  0.0108
 8028W        W50941  30.978  19.724  24.526  0.0148  0.3892 -0.3029
 8029W        W50942   3.273  18.133  29.055  0.2213 -0.0328 -0.3163
 8030W        W50943  25.630  12.042   2.141 -0.0916  0.0726  0.1796
 8031W        W50944  27.669  24.561  27.416  0.0681  0.2725 -0.0250
 8032W        W50945  13.323  23.156   0.432  0.2332 -0.0126 -0.1799
 8033W        W50946  29.671  34.355  20.551  0.0314  0.1642 -0.2632
 8034W        W50947  19.877  23.190  28.028 -0.1372  0.0036 -0.0604
 8035W        W50948  23.379  28.298   1.355  0.1029 -0.2309  0.5119
 8036W        W50949  29.044  28.209  24.635  0.0854  0.0547 -0.1469
 8037W        W50950  29.550  27.594   5.634  0.1792 -0.0432 -0.0060
 8038W        W50951  20.725  21.394  26.865 -0.0486 -0.0746 -0.2599
 8039W        W50952  15.774  10.753   2.437  0.1367 -0.0502  0.1307
 8040W        W50953  18.862  31.821  24.478  0.0713  0.0072  0.0330
 8041W        W50954   1.762   9.102  20.864 -0.1315 -0.0375  0.0574
 8042W        W50955  23.927  15.029  23.560  0.1469  0.2954 -0.0808
 8043W        W50956  22.797  24.179  24.623 -0.1708  0.3123  0.0174
 8044W        W50957  16.380  22.085  28.313  0.0321  0.2055 -0.1243
 8045W        W50958  26.964  25.120  19.956  0.0760 -0.1336 -0.0479
 8046W        W50959  14.564  27.589   5.297  0.0298 -0.0076 -0.4243
 8047W        W50960  27.294  21.143   7.067 -0.0375 -0.2502 -0.0846
 8048W        W50961  27.715  22.848   6.063 -0.0890 -0.0082  0.0221
 8049W        W50962  12.774  19.683   0.101 -0.0494  0.3380  0.0500
 8050W        W50963  19.653  27.429  27.968 -0.0528  0.0402  0.1232
 8051W        W50964  25.223  28.200  27.018  0.2948  0.0043 -0.1400
 8052W        W50965  31.618  27.880   3.049 -0.3552  0.2246 -0.2673
 8053W        W50966  21.049  11.386   4.464  0.1064 -0.3678 -0.2256
 8054W        W50967  28.041  24.012   3.033  0.3898 -0.0171 -0.0533
 8055W        W50968  27.446  21.187  20.751 -0.0342 -0.2505 -0.0329
 8056W        W50969  21.034  16.682  23.418  0.0949 -0.2401 -0.0076
 8057W        W50970  11.649  26.383  21.901 -0.0394 -0.2234  0.0061
 8058W        W50971  24.512  16.806  19.516 -0.3627  0.0204  0.0536
 8059W        W50972  21.140   6.326  26.009  0.0387 -0.1177  0.0726
 8060W        W50973  20.709  33.937  23.046 -0.2160  0.0838 -0.2832
 8061W        W50974  16.575  32.838   8.880  0.2962 -0.1701  0.2614
 8062W        W50975  18.868  17.925  28.160  0.1819  0.1693 -0.0528
 8063W        W50976  21.910  31.679   6.673 -0.1773 -0.0400  0.1978
 8064W        W50977  20.293  29.007   1.810  0.0372  0.3068  0.0001
 8065W        W50978   1.089  27.055  27.353  0.0955 -0.2414  0.2543
 8066W        W50979   9.191  18.494  24.748 -0.0231 -0.1352  0.1778
 8067W        W50980  23.541  12.792   5.774  0.2293  0.2558 -0.2089
 8068W        W50981   4.982  15.948   3.377  0.0405  0.0928 -0.2362
 8069W        W50982  15.871  25.760   6.438  0.2247 -0.1866 -0.0594
 8070W        W50983  20.859  26.729   1.729  0.0328 -0.0226  0.0481
 8071W        W50984  32.767  12.880  19.175 -0.1847 -0.1423  0.5627
 8072W        W50985  26.363  18.600  26.002 -0.2481  0.1297 -0.1342
 8073W        W50986  24.150  24.758  24.403 -0.1666  0.0051  0.0364
 8074W        W50987  16.338  22.877  22.305 -0.1994 -0.0979 -0.0473
 8075W        W50988  22.593  13.240  21.938 -0.2155 -0.0761  0.0267
 8076W        W50989  14.315  18.153  23.289 -0.2932 -0.0865  0.0445
 8077W        W50990  28.589  20.568  26.904  0.1719  0.4337  0.0670
 8078W        W50991  26.462  18.129  23.189 -0.1717 -0.0798  0.1107
 8079W        W50992  32.239  21.020  24.515 -0.0415 -0.0238 -0.2830
 8080W        W50993  24.067  19.449  19.141 -0.1568  0.2891 -0.0041
 8081W        W50994  27.531  24.546  26.879  0.3373 -0.2722  0.1688
 8082W        W50995  31.998  12.868  22.468  0.0133  0.2428  0.1188
 8083W        W50996  27.620  21.901   1.211  0.0789  0.1635 -0.0335
 8084W        W50997  14.515  23.609   1.066  0.0039  0.2900  0.0082
 8085W        W50998  24.793  23.460  29.378  0.1077 -0.0922  0.1219
 8086W        W50999  21.708  12.647  23.325 -0.1025  0.3591  0.1178
 8087W        W51000  26.115  27.511  27.537  0.3445  0.1000  0.1418
 8088W        W51001   0.603  15.167   4.511 -0.0336 -0.0908  0.3118
 8089W        W51002  13.418  23.196  13.983  0.0357  0.1955  0.0559
 8090W        W51003   4.566  29.153  28.919  0.1997 -0.1473  0.0082
 8091W        W51004  26.653  15.263  13.992 -0.4957 -0.2529 -0.2917
 8092W        W51005  16.936  11.946  23.255  0.1919  0.1876 -0.2351
 8093W        W51006  12.983  18.428  16.148  0.2913 -0.0103 -0.2989
 8094W        W51007  14.326  22.239  15.294  0.0530  0.0574 -0.0918
 8095W        W51008  30.748  21.363  27.428 -0.2931  0.0631  0.0008
 8096W        W51009  23.708  26.941  23.314  0.1375  0.0016 -0.1687
 8097W        W51010  17.944  11.382   2.266  0.1977  0.1717 -0.0719
 8098W        W51011  25.811  22.186   0.556  0.0525 -0.1178 -0.2622
 8099W        W51012  28.198  27.140  21.100 -0.3045  0.0284  0.3009
 8100W        W51013  12.368  10.102   6.942 -0.0430 -0.0381 -0.0959
 8101W        W51014  33.257  29.588  27.044 -0.2482  0.0410  0.3411
 8102W        W51015  31.309  13.631  25.028 -0.1784 -0.0090  0.0147
 8103W        W51016  17.557  24.614  18.515  0.1046  0.0930  0.0250
 8104W        W51017  19.313  21.696   4.658  0.0094  0.2852  0.0372
 8105W        W51018   5.872  25.047   3.589 -0.0052 -0.1152 -0.0041
 8106W        W51019  21.737  19.505   5.606  0.1169 -0.0746  0.2495
 8107W        W51020  29.415  14.983  22.400  0.0027 -0.1008  0.0404
 8108W        W51021  30.302  27.339  25.866 -0.0484 -0.1356 -0.1347
 8109W        W51022  18.959  10.764   2.394  0.1802  0.0346 -0.1956
 8110W        W51023  27.361  25.911  24.325 -0.1953  0.0559 -0.1924
 8111W        W51024  22.421  25.840  25.192  0.0181  0.0983 -0.2756
 8112W        W51025  11.573   9.026  21.563  0.3934  0.1319  0.2466
 8113W        W51026  21.139  14.070   7.942 -0.0801  0.0699 -0.1873
 8114W        W51027  19.783  13.765  21.900  0.0288 -0.0908  0.2016
 8115W        W51028  26.068  21.405  25.713 -0.1500  0.0242 -0.2723
 8116W        W51029   2.139  17.418  18.580 -0.0178  0.0998 -0.1515
 8117W        W51030  21.813  15.313  13.897 -0.2066  0.1504  0.1346
 8118W        W51031  20.291  16.917  24.163  0.1241 -0.1440  0.1993
 8119W        W51032  18.362  25.779  26.087 -0.0681  0.1833 -0.0869
 8120W        W51033  27.939  25.112  18.773  0.1212 -0.0459  0.1190
 8121W        W51034  23.060  24.059  22.456 -0.3440  0.1270 -0.3406
 8122W        W51035  21.451  25.178  21.613  0.1948  0.0854  0.1932
 8123W        W51036  30.682  21.730   4.229 -0.2239  0.0399  0.3540
 8124W        W51037  20.573  26.829  27.731  0.5429  0.4232  0.1250
 8125W        W51038  32.984  33.701  19.510 -0.0038 -0.3968  0.2385
 8126W        W51039  13.813  27.442   1.578  0.0153 -0.0751 -0.1757
 8127W        W51040   8.938   6.456  28.553  0.0534 -0.1499  0.0735
 8128W        W51041  15.184  24.828  24.149 -0.5580  0.1157  0.0785
 8129W        W51042  27.912  11.786  26.052 -0.3397 -0.0408 -0.2245
 8130W        W51043  15.954  25.050  22.511 -0.0190 -0.2764  0.2062
 8131W        W51044   6.305  17.154   4.251  0.0726  0.0567 -0.3327
 8132W        W51045  32.169  22.351  27.987 -0.0813 -0.0844 -0.0425
 8133W        W51046  24.924  22.577   3.838 -0.0963 -0.0542  0.3590
 8134W        W51047  19.791  23.395  21.713 -0.0798 -0.0706  0.0416
 8135W        W51048  20.131  26.871   6.157  0.0790 -0.1966 -0.2427
 8136W        W51049  27.465  24.062  26.946  0.1309 -0.0077 -0.0231
 8137W        W51050  20.022  10.610   4.431  0.1327 -0.2524 -0.2777
 8138W        W51051  32.379  24.898  21.932  0.1509 -0.4676  0.1267
 8139W        W51052  32.865  32.747  26.342 -0.0927  0.0873  0.0480
 8140W        W51053  14.845  24.231   6.036 -0.0676  0.2011  0.0442
 8141W        W51054  23.906  17.586   0.162  0.0450 -0.0281  0.0750
 8142W        W51055   0.177  28.356   0.699 -0.0437 -0.1587  0.0947
 8143W        W51056  18.044  12.794  25.486  0.0723  0.0369 -0.1962
 8144W        W51057  19.283   8.274  29.656 -0.0004 -0.5071  0.0778
 8145W        W51058  29.566  26.407  22.047  0.3275 -0.0707 -0.0280
 8146W        W51059  24.009   9.518   4.993  0.1030 -0.0851  0.1647
 8147W        W51060  21.062   0.351  28.423  0.1539  0.0232  0.3323
 8148W        W51061  30.162  24.260  23.736  0.0669 -0.2609  0.0914
 8149W        W51062  27.444  19.344   5.010 -0.0403  0.0796 -0.1018
 8150W        W51063  17.198   1.284  27.766  0.1647  0.0798 -0.1054
 8151W        W51064  17.442  20.248  22.051  0.4510  0.2072  0.0156
 8152W        W51065  22.128  17.504  29.092  0.2854  0.3555 -0.0501
 8153W        W51066  26.181  27.393  24.268 -0.0571  0.2749 -0.2141
 8154W        W51067  27.371  25.535  20.362  0.0112  0.0042 -0.1738
 8155W        W51068  31.475  27.552  29.040  0.3145 -0.1545 -0.1418
 8156W        W51069  24.329  26.245  19.215 -0.4240 -0.2631  0.1074
 8157W        W51070  20.292  14.352  23.280  0.3449  0.1188 -0.2364
 8158W        W51071  13.441  16.241   3.632  0.1891 -0.1247  0.0610
 8159W        W51072  14.980  21.917  24.016 -0.0202  0.1855 -0.0624
 8160W        W51073   0.626  12.288  25.921 -0.1660  0.0816  0.0692
 8161W        W51074  32.400  25.160   0.909 -0.2563 -0.3023 -0.0172
 8162W        W51075  19.118  27.694   3.808  0.0926 -0.0915  0.2493
 8163W        W51076  26.334  17.938  18.880  0.0290  0.0705 -0.1698
 8164W        W51077  22.143  27.134  20.458 -0.0702  0.4641 -0.0209
 8165W        W51078  21.772  34.060  23.149 -0.2006  0.3448  0.1361
 8166W        W51079  32.233  26.825   2.259 -0.4512 -0.0385  0.1984
 8167W        W51080  21.861  16.099   0.826 -0.0496 -0.0464 -0.0281
 8168W        W51081  31.761  24.221  16.743 -0.1393 -0.0806 -0.1870
 8169W        W51082  23.010  19.447  25.341 -0.2158 -0.1422  0.0734
 8170W        W51083  31.594  33.273   1.776 -0.0035 -0.1305 -0.1820
 8171W        W51084  19.254  27.766  28.040  0.1181 -0.0494 -0.1477
 8172W        W51085  16.087  23.288  28.554  0.3383  0.0302 -0.0558
 8173W        W51086  17.681  25.221   1.073  0.0089 -0.1229 -0.1342
 8174W        W51087  13.975  27.813  29.555  0.1880 -0.2862  0.1390
 8175W        W51088  25.059  21.108  22.151 -0.0840  0.0085  0.0172
 8176W        W51089  19.901  13.466  24.018  0.0955 -0.2933 -0.0355
 8177W        W51090  25.202  11.818  26.881  0.4052  0.1116  0.1238
 8178W        W51091  13.407  17.121  17.745  0.2692 -0.1538  0.4997
 8179W        W51092  17.044   9.701   2.984  0.1344  0.0343  0.0995
 8180W        W51093  26.892  23.106  15.055 -0.0746 -0.1417 -0.0591
 8181W        W51094  10.414  15.053   0.737 -0.2397  0.0793 -0.0934
 8182W        W51095  22.104  15.202  23.825  0.0443  0.0144 -0.0102
 8183W        W51096  29.705  27.302  15.410 -0.4747 -0.3415 -0.1023
 8184W        W51097  22.915  15.748  21.718 -0.1367 -0.1811  0.0270
 8185W        W51098  20.813  27.298  24.213  0.3630 -0.1260 -0.1253
 8186W        W51099  26.537  23.936  26.608  0.0484 -0.1972  0.0934
 8187W        W51100  23.166  22.745   8.161  0.0147  0.3572 -0.5395
 8188W        W51101  28.117  10.872  19.332 -0.1148 -0.1511  0.4116
 8189W        W51102  18.146  27.003   8.225  0.1051  0.1302 -0.0896
 8190W        W51103  20.531  18.506  28.180 -0.0612  0.1657 -0.3112
 8191W        W51104  27.050  25.366   4.392 -0.0818  0.1585 -0.1970
 8192W        W51105  11.042   9.043  22.484 -0.4332 -0.0894  0.1311
 8193W        W51106   2.443  18.128  27.780  0.0910  0.0678 -0.0098
 8194W        W51107  24.916  31.136  23.803 -0.3468 -0.1870  0.0674
 8195W        W51108  17.933  10.515  18.970  0.4193 -0.4451 -0.1189
 8196W        W51109   3.764  13.584   7.503  0.0839 -0.0548 -0.2095
 8197W        W51110  26.074  20.813  12.814 -0.2645 -0.1722 -0.0216
 8198W        W51111  22.939   5.342   6.724  0.2474  0.0680 -0.2189
 8199W        W51112  25.319  15.895  26.615 -0.1805  0.0968  0.2755
 8200W        W51113  20.427  32.900   4.217  0.1795  0.0323 -0.0727
 8201W        W51114  18.126  15.850  26.096  0.0432 -0.0356  0.2313
 8202W        W51115  27.264  17.961   3.599  0.0100  0.2640  0.0467
 8203W        W51116  22.210  16.031  15.984 -0.0509 -0.0904 -0.0746
 8204W        W51117  17.664  21.645  24.249  0.1183  0.2749  0.1062
 8205W        W51118  13.615  19.883  26.947 -0.3831  0.0106  0.1962
 8206W        W51119  16.153  20.384  29.016 -0.3405 -0.0638  0.0908
 8207W        W51120  27.558  16.412   5.828 -0.0996  0.3442  0.0231
 8208W        W51121  11.110  14.779   0.755  0.2416  0.0042 -0.1658
 8209W        W51122  31.482   2.163  29.221  0.3261  0.0344 -0.3177
 8210W        W51123  19.809  21.028   1.305 -0.2838 -0.0925  0.1634
 8211W        W51124  30.096  13.506  26.256 -0.1466  0.1129 -0.0468
 8212W        W51125  24.484  16.898  20.887  0.1964  0.0214  0.1025
 8213W        W51126  17.330  22.939  26.006  0.1635  0.0143  0.0305
 8214W        W51127  31.584  15.027   5.564  0.0539  0.1000  0.0175
 8215W        W51128  24.455   9.309  24.038 -0.1194 -0.3838  0.0307
 8216W        W51129  18.592  12.823  23.823  0.0164  0.0269  0.0548
 8217W        W51130  16.830  30.592  19.280  0.0006  0.1157  0.3454
 8218W        W51131  23.835  18.150  28.497  0.1879 -0.4134  0.1370
 8219W        W51132  22.646  23.285  16.121 -0.1146  0.1077  0.1594
 8220W        W51133  25.394  16.725   1.093 -0.0760 -0.0802  0.2806
 8221W        W51134  19.500  11.558  22.938  0.0814 -0.0373 -0.2251
 8222W        W51135  24.847  31.611  26.753 -0.0878 -0.3503  0.1322
 8223W        W51136  15.499  21.010  24.181  0.2443  0.1991 -0.1103
 8224W        W51137  25.074  17.621  29.323 -0.0277 -0.0556 -0.1546
 8225W        W51138  17.999  24.071  23.059  0.0285 -0.0138  0.0425
 8226W        W51139  24.124  18.645  17.349 -0.1892  0.4224 -0.4571
 8227W        W51140  22.404  23.611   1.752  0.1354 -0.1502 -0.0292
 8228W        W51141  14.121  17.933  26.872  0.0880 -0.1652  0.3429
 8229W        W51142  21.743   1.860   3.970 -0.1241 -0.1637 -0.2599
 8230W        W51143  27.115   8.318  20.429  0.0962  0.1377 -0.0134
 8231W        W51144  27.328   4.919   4.609 -0.0591  0.1189  0.1754
 8232W        W51145  20.702   0.633  25.750  0.3651  0.1857 -0.1130
 8233W        W51146  20.378   3.220  23.589 -0.0843 -0.0281  0.0788
 8234W        W51147  22.693  28.973  13.149  0.1254  0.1120  0.3363
 8235W        W51148   1.064  24.146  29.684 -0.1825 -0.5452  0.0879
 8236W        W51149  13.011  16.161  28.840  0.0936  0.0875  0.1562
 8237W        W51150  15.773  14.858   1.421 -0.2170  0.3503 -0.1447
 8238W        W51151  23.663  30.466   8.236 -0.4900 -0.0913 -0.1388
 8239W        W51152  25.141   8.168  15.404 -0.1256  0.2781  0.3388
 8240W        W51153  30.223  19.474   7.545 -0.2019 -0.0955 -0.2367
 8241W        W51154  23.042  15.615   7.869  0.1709  0.3047 -0.0999
 8242W        W51155  22.783  26.193   1.187  0.2584  0.0249 -0.1829
 8243W        W51156  26.023  11.244   7.608 -0.1524  0.0953  0.2048
 8244W        W51157  24.554  27.977  22.355  0.0337 -0.1019 -0.0583
 8245W        W51158  23.522  14.006   6.574  0.1201 -0.0201  0.0266
 8246W        W51159  23.847  16.900   2.171  0.2887 -0.0891  0.2622
 8247W        W51160  22.760  11.241   0.126 -0.1084 -0.3639 -0.0603
 8248W        W51161  25.081  29.260  19.447 -0.0265 -0.0159  0.2121
 8249W        W51162  23.572  26.486  28.380  0.1437 -0.1779  0.1359
 8250W        W51163  21.882  26.066  17.348  0.0047  0.0404 -0.0575
 8251W        W51164  13.766  25.756   4.582  0.0621 -0.1796  0.0052
 8252W        W51165  31.215  27.932   0.256  0.2049 -0.0646 -0.1917
 8253W        W51166  34.033   0.475  20.615 -0.0516 -0.0305 -0.1353
 8254W        W51167  20.140  23.296  27.013  0.0638  0.0018 -0.1428
 8255W        W51168  13.781  20.080   4.833 -0.4183 -0.0783 -0.0005
 8256W        W51169  18.568   0.290  15.928 -0.1277 -0.0058 -0.0852
 8257W        W51170  16.630   2.307  24.916 -0.1009 -0.0820 -0.2249
 8258W        W51171  29.778  25.508  25.821 -0.0994  0.0608  0.1057
 8259W        W51172  23.058  20.564  26.266  0.3252 -0.1869 -0.0801
 8260W        W51173  22.682  26.383  25.945 -0.0305  0.2599 -0.1748
 8261W        W51174  20.729  25.435  20.168  0.1629 -0.2388  0.0228
 8262W        W51175  22.582  16.610  21.162  0.1093 -0.1123 -0.0239
 8263W        W51176  26.668   8.844  28.369 -0.1445  0.2021  0.0374
 8264W        W51177  20.455  18.170  25.435  0.1343  0.1783 -0.1211
 8265W        W51178  20.663  14.913  23.306  0.3643  0.4425  0.2249
 8266W        W51179  28.694  21.249  27.497 -0.0723 -0.1273 -0.2257
 8267W        W51180  13.804  21.606  25.315 -0.1107 -0.2818 -0.0716
 8268W        W51181  29.215   8.107   0.609 -0.1834  0.3263  0.1880
 8269W        W51182  18.019  24.312  16.895 -0.2001 -0.0420  0.1850
 8270W        W51183  20.039  27.803   6.295 -0.0967  0.1886 -0.0856
 8271W        W51184  16.468  16.879  24.318 -0.1298  0.0665  0.0648
 8272W        W51185  22.729  25.805   2.182  0.1204 -0.2233 -0.0758
 8273W        W51186  30.449  21.216   0.094  0.4159  0.0405  0.2039
 8274W        W51187  23.850  20.686  28.640  0.2009 -0.3696  0.0651
 8275W        W51188  31.125  25.147  26.771  0.1434 -0.1368  0.0879
 8276W        W51189  31.813  23.841  29.657 -0.1542 -0.0263 -0.1394
 8277W        W51190  20.176  24.559  21.570  0.0214  0.2457 -0.0821
 8278W        W51191  20.905  28.975   0.903  0.1249  0.2434 -0.1602
 8279W        W51192  16.653  32.191   9.564 -0.0253  0.0889  0.1661
 8280W        W51193  25.916  26.278  20.049 -0.0293 -0.0009 -0.0476
 8281W        W51194  24.270  12.484  25.016 -0.4598  0.0148  0.1353
 8282W        W51195  23.380  20.020  23.994  0.1047  0.2424  0.1999
 8283W        W51196  17.446  16.672  28.074 -0.0832 -0.1752  0.2678
 8284W        W51197  30.100  20.641   1.476  0.0362  0.2069  0.1882
 8285W        W51198  28.367  21.818  29.454 -0.0831 -0.2288 -0.0047
 8286W        W51199  28.405  21.126   1.112 -0.0630 -0.0926  0.1280
 8287W        W51200  33.109  27.641  26.121  0.1860 -0.2341  0.0210
 8288W        W51201  15.583  11.656   7.415  0.1400  0.1668  0.2484
 8289W        W51202  21.446  28.168   2.828 -0.2142  0.1611  0.2148
 8290W        W51203  28.166  22.367  21.070  0.1931  0.0433 -0.2838
 8291W        W51204  27.381  14.213  23.782  0.0945 -0.3549  0.1541
 8292W        W51205  29.210  16.670   5.590  0.0794 -0.1901  0.2203
 8293W        W51206  24.434  15.266   4.156 -0.0338 -0.1398  0.0519
 8294W        W51207  13.684  23.599  18.740 -0.1822  0.0507  0.6210
 8295W        W51208  32.556  22.725  29.225 -0.1436  0.2817 -0.2785
 8296W        W51209  21.786  24.260  21.436 -0.2240  0.3865  0.1435
 8297W        W51210  21.698  14.578  20.437 -0.1291  0.3274 -0.3806
 8298W        W51211   8.582  22.083  20.684  0.4144  0.1606  0.0539
 8299W        W51212  16.111  25.065  25.708 -0.1279  0.1781 -0.0277
 8300W        W51213  26.799  16.018   0.024  0.4043  0.2529  0.0730
 8301W        W51214  31.984  11.268  22.413  0.3484 -0.0261 -0.3662
 8302W        W51215  27.468  16.622  18.420 -0.1208 -0.0372 -0.0142
 8303W        W51216  23.859  24.132  26.727  0.1519 -0.2181 -0.0771
 8304W        W51217  29.901  27.717  22.314  0.3005  0.0544  0.1434
 8305W        W51218  29.989  11.788  25.952 -0.1595 -0.0672 -0.1533
 8306W        W51219  25.729  21.175  25.418 -0.1628 -0.2112  0.1117
 8307W        W51220  27.401  18.545  27.252 -0.0192 -0.2287  0.1095
 8308W        W51221  29.512  19.636  28.076 -0.1305 -0.0944  0.1752
 8309W        W51222  15.200  20.857  15.410  0.1022  0.0950 -0.0293
 8310W        W51223  16.126   6.138  29.040  0.0749  0.0096  0.0816
 8311W        W51224  24.811  19.143  28.657 -0.0810 -0.0400 -0.1632
 8312W        W51225  25.926  30.958  18.597 -0.0246 -0.0657  0.2366
 8313W        W51226  32.286  31.015   2.169 -0.7047 -0.0985  0.0745
 8314W        W51227  19.856  32.602  22.928 -0.1668 -0.0432 -0.2731
 8315W        W51228  25.111  25.095   6.720  0.5540  0.0607  0.3300
 8316W        W51229  28.901  24.387  21.661  0.3151 -0.0677 -0.1941
 8317W        W51230  25.001  15.442  26.605  0.0400 -0.0009  0.2062
 8318W        W51231  23.513  13.045  19.943 -0.1745  0.2274 -0.3035
 8319W        W51232  26.822  15.109   4.093  0.3302  0.2621 -0.0431
 8320W        W51233  28.259  29.445  22.495 -0.0996  0.0590  0.0364
 8321W        W51234  30.661  25.637  25.411  0.2470 -0.1476  0.1427
 8322W        W51235  18.950  19.022  24.270 -0.2715 -0.0709  0.1999
 8323W        W51236  21.729  17.489  23.574  0.1514 -0.2311 -0.0391
 8324W        W51237  28.113  21.015   2.731  0.0681 -0.0910  0.1875
 8325W        W51238  31.319  17.101  26.767  0.1195  0.1162  0.0604
 8326W        W51239  27.150  14.441   1.297 -0.2163  0.1573 -0.1962
 8327W        W51240  21.074  24.523   4.559 -0.0335 -0.2611  0.0360
 8328W        W51241  17.426   8.030  23.169  0.1650  0.1727  0.0187
 8329W        W51242  25.802  26.391   0.410  0.0848 -0.2169  0.1017
 8330W        W51243  20.002  16.049   4.531  0.1367 -0.0638  0.2324
 8331W        W51244  19.481  13.876  17.028  0.0357 -0.0847  0.0254
 8332W        W51245  25.104  20.374  19.580 -0.1909  0.0381 -0.1254
 8333W        W51246  23.927  18.746  23.277  0.4959 -0.2570  0.0516
 8334W        W51247  25.261  27.612  27.664  0.1172  0.0757  0.2214
 8335W        W51248  20.327  22.552  22.672  0.0107 -0.3038 -0.0402
 8336W        W51249  18.590  21.406  24.193  0.0712  0.1311  0.1446
 8337W        W51250   0.569  29.197  28.836  0.2794  0.3226 -0.0960
 8338W        W51251  20.463  24.519  22.547  0.1864 -0.0788  0.2453
 8339W        W51252  27.967  24.295  27.020  0.1428  0.0338  0.0845
 8340W        W51253  18.892  21.093  24.911 -0.2267 -0.2437 -0.0088
 8341W        W51254  13.882  29.373  22.240 -0.0585  0.2652 -0.1310
 8342W        W51255  17.384  24.838   0.793 -0.1607 -0.0814  0.3302
 8343W        W51256  22.301  22.499  23.267 -0.2292  0.3064 -0.0592
 8344W        W51257  23.034  24.406  25.453 -0.1654  0.0335  0.1544
 8345W        W51258  17.707  20.927  24.913  0.2122 -0.2610  0.3322
 8346W        W51259  20.754  22.976  20.980  0.3502  0.0041  0.0048
 8347W        W51260  26.298  25.122  18.568 -0.1775  0.0492  0.1865
 8348W        W51261  31.517  25.983  20.805 -0.0206 -0.0154  0.3369
 8349W        W51262  29.607  18.139  29.741  0.3438  0.3231  0.0361
 8350W        W51263   8.333  12.775   1.484 -0.0048 -0.0238 -0.2485
 8351W        W51264  25.678  31.929  21.107 -0.0546 -0.0275  0.2194
 8352W        W51265  21.611  18.380   0.597 -0.0310 -0.0504 -0.0481
 8353W        W51266  12.371  26.724  23.447 -0.0409  0.0828  0.0369
 8354W        W51267  20.855  27.871  29.153 -0.1183 -0.0462 -0.1098
 8355W        W51268  19.860   9.233  21.635 -0.3633 -0.0194 -0.2932
 8356W        W51269  25.469   3.031   1.923  0.2640  0.3684 -0.1023
 8357W        W51270  18.232  21.742   0.959 -0.1740 -0.5115 -0.0410
 8358W        W51271  21.267  21.921  29.547 -0.2120 -0.0477  0.3838
 8359W        W51272  27.743  16.289  16.141 -0.0029  0.0753  0.1621
 8360W        W51273  19.083  27.690   1.215  0.1638 -0.2149  0.5316
 8361W        W51274  23.298  20.739   7.207  0.1600  0.2786  0.1366
 8362W        W51275  18.652  28.386  24.202 -0.3040  0.1639 -0.1201
 8363W        W51276  21.860  18.537   4.256 -0.0551 -0.2334  0.3848
 8364W        W51277  15.084  25.998   5.377 -0.2142 -0.0035  0.1168
 8365W        W51278  18.903   8.746   0.873  0.0627  0.1835  0.1001
 8366W        W51279  21.908  13.282  22.661 -0.2446  0.2386  0.2388
 8367W        W51280  16.234  18.265   1.053  0.1874 -0.1997  0.1284
 8368W        W51281  20.502  14.043   3.391 -0.1370  0.0854 -0.0866
 8369W        W51282  25.283  28.671   7.550  0.0627 -0.0435 -0.1199
 8370W        W51283  25.155  19.055   1.551 -0.0181  0.0828  0.1378
 8371W        W51284  18.424  23.678  26.515 -0.2153 -0.0244 -0.0317
 8372W        W51285  23.705  21.279  15.725 -0.2730 -0.2621  0.1298
 8373W        W51286  23.793  19.034  21.278 -0.0244 -0.0775  0.1460
 8374W        W51287  19.388  15.494   3.860  0.0472  0.0715  0.3265
 8375W        W51288  17.721  27.691   1.306 -0.1170 -0.0275  0.1789
 8376W        W51289  21.575  19.119   5.157  0.0260 -0.0891 -0.0941
 8377W        W51290  20.002  19.104   0.247 -0.1402  0.2155 -0.3034
 8378W        W51291  21.239  14.255  25.581  0.1840 -0.2922 -0.0633
 8379W        W51292  16.575  28.540  23.735  0.0291  0.1790 -0.1364
 8380W        W51293  18.773  13.799   3.677 -0.1132  0.0555 -0.0565
 8381W        W51294  29.351  25.289   6.659 -0.0117 -0.0114 -0.0157
 8382W        W51295   0.960  21.552   1.717  0.1428  0.0652  0.2378
 8383W        W51296  19.285  19.993  29.075 -0.2876  0.0566 -0.1334
 8384W        W51297  27.531  21.272  25.706 -0.2351 -0.0447 -0.2889
 8385W        W51298   8.571  24.422   5.600 -0.2225 -0.0449  0.1199
 8386W        W51299  26.042  20.080  28.504  0.3426  0.2449 -0.0035
 8387W        W51300  24.098  20.074  20.679  0.0621 -0.0060  0.0757
 8388W        W51301  29.202  16.622   3.480 -0.2302  0.2260 -0.1198
 8389W        W51302  28.562  19.971  24.737 -0.3574  0.2401 -0.3727
 8390W        W51303  28.522  21.552   8.565  0.3353 -0.0249 -0.2049
 8391W        W51304   0.985  15.872  28.223 -0.0582 -0.0786  0.2086
 8392W        W51305  26.639  24.069   1.185  0.0786  0.2966  0.2061
 8393W        W51306  28.670  26.933  13.975  0.0817 -0.1672 -0.0922
 8394W        W51307  31.761  20.428   3.047 -0.0332  0.2593  0.1671
 8395W        W51308  21.354  20.374  25.426  0.1087  0.2155 -0.3599
 8396W        W51309   7.002  23.210  24.931  0.2951  0.0506  0.0805
 8397W        W51310  13.348  17.980  25.825  0.1165 -0.3199 -0.0604
 8398W        W51311  33.376  26.845  29.441  0.2600  0.0367  0.0157
 8399W        W51312  28.522  28.779   2.812  0.0953  0.0198 -0.2069
 8400W        W51313  25.456  19.775   0.794 -0.0943  0.0142  0.1390
 8401W        W51314  31.314  16.226  27.461 -0.1772 -0.3317 -0.1362
 8402W        W51315  14.180  20.849  29.075  0.0073 -0.2060  0.1407
 8403W        W51316  32.722  13.414   1.063  0.1426  0.1934  0.1263
 8404W        W51317  16.181  22.870  27.953  0.1983  0.0067 -0.0409
 8405W        W51318  20.370   7.199  26.746  0.0192 -0.2310 -0.2830
 8406W        W51319  27.097  18.338   3.967  0.2326  0.2411  0.5355
 8407W        W51320  25.666  26.213  26.205  0.1564 -0.0964  0.0602
 8408W        W51321  31.793  18.189  26.658 -0.2360  0.1519 -0.1257
 8409W        W51322  19.371  24.980  25.404 -0.1267 -0.1211 -0.1128
 8410W        W51323  15.052  31.422   0.593 -0.1486 -0.0741 -0.1356
 8411W        W51324  14.759  24.320  28.141 -0.6077  0.1515  0.2922
 8412W        W51325  20.046  20.552  20.658 -0.0608 -0.1025 -0.1548
 8413W        W51326  20.148  16.752  21.494  0.2235 -0.1219 -0.0457
 8414W        W51327  23.046  21.153   7.033  0.0279  0.2488 -0.1186
 8415W        W51328  13.379  14.429  29.292 -0.2200  0.0432  0.0432
 8416W        W51329  28.610  16.625  24.905  0.0698 -0.1322 -0.1502
 8417W        W51330  25.983  15.615   2.010  0.0895  0.1592  0.0044
 8418W        W51331  11.955  25.318   3.484  0.4913 -0.1628  0.1609
 8419W        W51332  20.256  10.792  23.872 -0.4924  0.0188 -0.0458
 8420W        W51333  33.877  20.915   3.228  0.1414  0.2036  0.0416
 8421W        W51334   2.614  13.974  27.063 -0.0888 -0.0157 -0.2078
 8422W        W51335  16.998  26.414   0.645  0.6197  0.2694 -0.2632
 8423W        W51336  13.727  22.083   1.292 -0.1279 -0.0363 -0.1704
 8424W        W51337  17.916  22.101   8.245  0.0762  0.1021  0.1098
 8425W        W51338  23.805  15.175  22.645 -0.1589  0.1909  0.2545
 8426W        W51339  27.126  25.900   3.677  0.0076  0.0435  0.0539
 8427W        W51340  19.504  16.148  23.105  0.0646 -0.1418 -0.1704
 8428W        W51341  11.148  29.266  27.205 -0.1224  0.0734 -0.1035
 8429W        W51342  12.724  25.651  24.844 -0.1867 -0.2959  0.0799
 8430W        W51343   3.237  11.062   6.014  0.3020  0.1246 -0.0392
 8431W        W51344  30.030  17.697   4.268  0.3493 -0.0537  0.0410
 8432W        W51345  31.797  16.765   5.422 -0.1210  0.1660  0.3659
 8433W        W51346  20.768  27.740  23.324  0.0331 -0.1816  0.0291
 8434W        W51347  29.343  15.315  27.778 -0.0494  0.0077 -0.1328
 8435W        W51348  20.165   0.720   2.572 -0.2385 -0.0039  0.0205
 8436W        W51349  26.893  16.493   8.059 -0.3441 -0.0915  0.0524
 8437W        W51350  21.803   8.899   1.216  0.2081 -0.2017 -0.2945
 8438W        W51351  19.086  23.978  29.125  0.0366 -0.1491  0.0073
 8439W        W51352  26.298   5.623  29.296 -0.3723  0.5091 -0.1010
 8440W        W51353  27.265   4.191   9.211 -0.1514  0.1955  0.0565
 8441W        W51354  33.884  12.207  17.187 -0.0829 -0.3586  0.1122
 8442W        W51355  25.993  27.349   6.665  0.0576  0.4664 -0.0794
 8443W        W51356  25.608  25.954  22.226  0.0901 -0.0827 -0.0358
 8444W        W51357  33.357  21.359  24.116 -0.1169 -0.0929 -0.1659
 8445W        W51358  30.757  13.398   4.857  0.1312 -0.1682 -0.0453
 8446W        W51359  23.241  30.552  27.364  0.1858 -0.5148 -0.0311
 8447W        W51360  29.036  22.347   1.361 -0.1034 -0.2206 -0.0743
 8448W        W51361  25.756  30.383  13.822  0.0754 -0.0354 -0.4919
 8449W        W51362  26.247  22.728  15.105 -0.2796 -0.2957  0.0506
 8450W        W51363  27.359  29.894  19.366 -0.0699  0.3449  0.0263
 8451W        W51364  29.444  21.199  18.058 -0.1088  0.1800  0.0539
 8452W        W51365  23.450  22.318  16.080 -0.2014  0.0362 -0.3525
 8453W        W51366  19.054  32.719  19.843  0.0422  0.2565 -0.0489
 8454W        W51367  25.591  25.808  21.773  0.1257  0.0460 -0.3125
 8455W        W51368  19.169  21.530  13.779 -0.1672  0.1362 -0.0332
 8456W        W51369  21.821   0.255  18.803 -0.1002 -0.2924 -0.5082
 8457W        W51370  26.981  30.088  16.581 -0.2394 -0.1361 -0.0476
 8458W        W51371  24.253  27.742  20.650  0.4605 -0.6942 -0.0804
 8459W        W51372  22.866   2.397  22.788 -0.0687 -0.1187 -0.1821
 8460W        W51373  28.669   3.915  14.895 -0.0059  0.0295 -0.0824
 8461W        W51374  21.430  13.391  12.111  0.1816 -0.2431  0.0522
 8462W        W51375  23.530  32.646  23.458 -0.0220  0.1246  0.1475
 8463W        W51376  25.759  18.328   1.865  0.0033 -0.0929 -0.0604
 8464W        W51377  27.478  16.157  23.056 -0.2247 -0.2118  0.1662
 8465W        W51378  18.871  27.776  14.942  0.1053  0.0731  0.2439
 8466W        W51379  25.424  25.499  13.862  0.1901  0.5322 -0.2568
 8467W        W51380  22.965  20.903  12.777 -0.2733 -0.1958 -0.1081
 8468W        W51381   0.707  25.325  15.151 -0.1873 -0.4416 -0.2112
 8469W        W51382  22.208  16.623  12.959  0.0876  0.1395 -0.2172
 8470W        W51383  28.273  18.524  19.933  0.3261  0.1437  0.1191
 8471W        W51384  22.597  27.942  13.001  0.0394 -0.2269 -0.0822
 8472W        W51385  11.777  30.599  16.422  0.2380 -0.1010  0.1344
 8473W        W51386  21.278  20.229  27.995  0.1631  0.1531  0.2638
 8474W        W51387  22.311   9.272  25.229 -0.0418 -0.2547 -0.0079
 8475W        W51388  18.648  34.095  25.777  0.2490 -0.0771  0.0074
 8476W        W51389  29.065  28.629  16.144 -0.0240  0.2402 -0.2019
 8477W        W51390  30.869  27.622  19.001  0.0724  0.0029  0.1350
 8478W        W51391  20.454  24.112  20.151  0.0949 -0.1678  0.3513
 8479W        W51392  22.693  33.816  21.229  0.2836  0.3940 -0.0746
 8480W        W51393  19.694  27.343  20.648  0.0380  0.0871 -0.0246
 8481W        W51394  25.907  18.908  16.974 -0.0559  0.2780  0.2440
 8482W        W51395  20.385  26.913  18.289 -0.1214 -0.1149  0.0924
 8483W        W51396  16.805  21.221  14.759 -0.1295  0.1967  0.0526
 8484W        W51397  23.044  27.813  16.785  0.2369 -0.1062  0.1082
 8485W        W51398  21.821  22.649  16.139  0.3333  0.0736  0.1918
 8486W        W51399  24.771  29.322  19.051  0.1504  0.3254 -0.1978
 8487W        W51400  13.631   4.670  18.387 -0.1741 -0.2928 -0.2023
 8488W        W51401  30.833  22.810  18.160 -0.2104  0.2109  0.1581
 8489W        W51402  17.661   1.054  18.444 -0.2495  0.2227  0.4564
 8490W        W51403  20.827  20.837  20.113  0.2699 -0.0351 -0.1100
 8491W        W51404  25.239  21.180  15.356 -0.3472 -0.1144  0.2877
 8492W        W51405  22.025   3.803  26.039 -0.0489 -0.1665 -0.0968
 8493W        W51406   4.538  22.052  17.544  0.0994  0.2389 -0.0407
 8494W        W51407  24.894   6.273  20.005  0.1167  0.2818 -0.1795
 8495W        W51408  29.615  25.993  18.382 -0.0622 -0.2242 -0.1049
 8496W        W51409  24.613  23.284  12.717 -0.3350 -0.0887 -0.1622
 8497W        W51410  30.723   7.167  20.252  0.0739 -0.0232 -0.0940
 8498W        W51411  19.012  26.676  22.883  0.1028 -0.0806 -0.1083
 8499W        W51412  26.897  19.091  21.774 -0.0748  0.2135  0.0132
 8500W        W51413  23.372  21.588  14.857 -0.1081  0.1187 -0.0799
 8501W        W51414  23.801   1.561  19.133 -0.0344  0.0312 -0.0870
 8502W        W51415  20.545  26.393  19.516  0.0458  0.2029  0.1313
 8503W        W51416  27.773  18.194  16.766 -0.1052 -0.2436  0.1669
 8504W        W51417  18.102  28.203  21.402 -0.0255  0.2749  0.0274
 8505W        W51418  24.181  10.072  17.653 -0.2141 -0.4081  0.1580
 8506W        W51419  25.178  26.312  15.294  0.0313 -0.0813  0.1652
 8507W        W51420  20.397  29.553  20.964 -0.3665 -0.0530 -0.0062
 8508W        W51421  24.327  27.476  13.396 -0.1854 -0.0371 -0.0508
 8509W        W51422  29.746  19.004  26.545  0.0867  0.1904  0.1190
 8510W        W51423  28.633  16.352  17.942 -0.0001 -0.0591 -0.1076
 8511W        W51424  15.571  22.808  20.209 -0.1378  0.0799  0.0801
 8512W        W51425  23.167  22.421  13.319  0.0826 -0.0712  0.0535
 8513W        W51426  30.666  24.333  17.773 -0.2183 -0.0256  0.2957
 8514W        W51427  22.785  23.221  12.757  0.1425  0.2345 -0.1497
 8515W        W51428  29.668  22.078  17.623 -0.1851  0.2687  0.2818
 8516W        W51429  26.514  30.494  19.448 -0.2343 -0.2777 -0.1539
 8517W        W51430  31.926  22.310  13.770 -0.2493  0.2579  0.1339
 8518W        W51431  24.336  24.300  17.339  0.1579  0.1073 -0.2600
 8519W        W51432  27.566  23.235  22.011 -0.1416 -0.1988  0.1715
 8520W        W51433  31.419  14.078  18.772  0.1296  0.1835 -0.1424
 8521W        W51434  31.130  27.804  21.764  0.0565 -0.0568  0.1908
 8522W        W51435  21.154  30.651  13.938 -0.3389 -0.1695 -0.1507
 8523W        W51436  23.038  30.025  19.926  0.2873  0.2257  0.0480
 8524W        W51437  16.779  21.355  12.453 -0.0830  0.0907  0.0059
 8525W        W51438  27.975  24.404  18.162  0.0834  0.0404  0.3179
 8526W        W51439  31.127  20.710  20.127 -0.2409 -0.2130  0.1185
 8527W        W51440  26.982  32.369  22.434 -0.0602 -0.3316 -0.0095
 8528W        W51441  25.746   5.263  17.527 -0.2427 -0.0866 -0.0790
 8529W        W51442  16.463  24.621  28.241 -0.1706  0.1165 -0.0514
 8530W        W51443  30.761  25.371  20.222 -0.3067  0.0756 -0.3186
 8531W        W51444  26.163  15.775  19.084 -0.0062  0.2432 -0.1781
 8532W        W51445  22.555   0.166  17.076  0.0322  0.1390  0.3087
 8533W        W51446  19.749  18.613  12.544  0.0948  0.0594 -0.0455
 8534W        W51447  24.358  24.020  16.195 -0.0724  0.1103  0.1329
 8535W        W51448  32.368  22.588  18.281  0.2213  0.0966  0.3717
 8536W        W51449  19.681  24.567  18.539 -0.0476  0.3217  0.0574
 8537W        W51450  23.424  21.913  13.684  0.2094 -0.3270 -0.2142
 8538W        W51451  24.529   9.896  15.464 -0.1621 -0.0791  0.1769
 8539W        W51452   2.309  24.750  14.822  0.2464 -0.1771 -0.1506
 8540W        W51453  29.276  26.217  15.256  0.0070  0.0290  0.3558
 8541W        W51454  20.597  16.453  14.261 -0.2461 -0.2217 -0.1470
 8542W        W51455  27.324  23.758  13.395  0.2999 -0.0466 -0.3150
 8543W        W51456  20.450  24.556  18.355 -0.1438  0.0141  0.1730
 8544W        W51457  20.578  15.308  14.892 -0.0187  0.2363  0.0793
 8545W        W51458  25.175  24.980  18.750  0.0353  0.0176 -0.0203
 8546W        W51459  19.600  11.427  15.342 -0.0123  0.5082  0.0230
 8547W        W51460  28.863  22.170  15.926 -0.0520  0.0514  0.3771
 8548W        W51461  27.149  34.082  14.553  0.3916  0.3322 -0.0648
 8549W        W51462  22.636  21.851  12.918 -0.0945 -0.0163  0.2056
 8550W        W51463  28.184   0.413  20.527 -0.2842  0.0647  0.2412
 8551W        W51464  29.136  14.208  20.619  0.0444  0.2045  0.0796
 8552W        W51465   4.626  29.722  24.071 -0.0924 -0.4932  0.1034
 8553W        W51466  20.307  14.750  12.878 -0.0398  0.3138  0.0430
 8554W        W51467  21.907   2.123  21.755  0.0138 -0.0055 -0.2838
 8555W        W51468  27.917  31.909  17.979 -0.0964 -0.1067  0.1268
 8556W        W51469  33.796  16.099  14.616 -0.2249  0.0383 -0.1810
 8557W        W51470  26.870  13.712  16.029  0.0290 -0.1284 -0.2862
 8558W        W51471  24.794  27.498  14.687  0.1025 -0.1843 -0.0099
 8559W        W51472  29.376  27.363  27.082  0.2056 -0.1980 -0.0208
 8560W        W51473  22.687  18.056  14.643  0.0261 -0.0606 -0.1094
 8561W        W51474  20.482  22.373  26.009  0.0420 -0.1563 -0.1753
 8562W        W51475  22.452  15.156  24.188  0.0308  0.1186 -0.2249
 8563W        W51476  30.981  28.718  14.353 -0.1661  0.1360  0.0295
 8564W        W51477  16.481  27.521  14.781 -0.0643  0.3119 -0.0268
 8565W        W51478  32.347  22.222  17.573  0.2021  0.1940 -0.1268
 8566W        W51479  30.316  24.658  15.661 -0.0882 -0.0716 -0.2860
 8567W        W51480  16.919  19.331  13.665 -0.0125  0.0777 -0.1177
 8568W        W51481  28.125  25.784  16.814  0.0422  0.2286  0.0320
 8569W        W51482  33.954  24.350  16.461 -0.0901 -0.1681 -0.0071
 8570W        W51483  11.291  22.840  19.374  0.1184 -0.1073  0.1733
 8571W        W51484  22.071  20.745  12.494 -0.1687  0.1553 -0.0887
 8572W        W51485  23.154  23.574  12.622 -0.1746 -0.0244 -0.3511
 8573W        W51486  22.463  16.147  27.698  0.2741 -0.0413  0.1623
 8574W        W51487  34.170  25.509  15.109  0.2199  0.1267  0.2007
 8575W        W51488  23.006  21.239  14.726  0.0620 -0.0930  0.1553
 8576W        W51489  33.681  25.308  26.762 -0.0450 -0.0980 -0.1812
 8577W        W51490  23.153  31.305  16.769 -0.1399 -0.0890 -0.0360
 8578W        W51491  28.913  22.992  18.170  0.1942 -0.2903 -0.1452
 8579W        W51492  16.826  25.818  14.163  0.0916 -0.1095  0.2607
 8580W        W51493  15.319  11.804  12.411  0.1564  0.1315  0.0045
 8581W        W51494  28.907  29.961  17.788  0.3078  0.2851  0.2868
 8582W        W51495  29.664  24.428  20.809  0.2078 -0.0951  0.0743
 8583W        W51496  22.856  17.489  12.226  0.2137  0.0986 -0.2913
 8584W        W51497  33.512  30.955  16.549  0.1165  0.1347 -0.2638
 8585W        W51498  30.527  33.997  15.078 -0.1214  0.1609  0.2172
 8586W        W51499  27.654  16.927  20.155 -0.2846  0.1161  0.2266
 8587W        W51500  27.096  18.502  15.528 -0.2289 -0.0643  0.1004
 8588W        W51501  23.224  13.186  18.582  0.0538  0.1602 -0.1484
 8589W        W51502  23.872  22.233  15.063 -0.2503 -0.3172  0.0457
 8590W        W51503  23.627  28.473  17.990 -0.3235  0.3028  0.0567
 8591W        W51504  29.694   0.942  19.590  0.0388 -0.0467  0.0162
 8592W        W51505  16.199  27.642  15.712  0.3204  0.0053 -0.0162
 8593W        W51506  22.980  28.556  21.358 -0.0722  0.2782 -0.3710
 8594W        W51507  27.994  20.401  17.554 -0.1659  0.2986  0.2591
 8595W        W51508  29.263  16.714  18.980  0.1811 -0.0129  0.0825
 8596W        W51509  20.987  27.865  18.240 -0.1652  0.2939 -0.0792
 8597W        W51510  17.650  19.538  12.458 -0.1727 -0.1417  0.0372
 8598W        W51511  13.336   0.392  17.115 -0.0716 -0.1633 -0.0760
 8599W        W51512  21.769  17.467  13.155  0.2236  0.0635  0.1591
 8600W        W51513  21.197  14.178  18.297 -0.0814  0.0508  0.2150
 8601W        W51514  10.131  14.964  15.226  0.3726  0.2457 -0.0089
 8602W        W51515   1.532  26.093  17.135 -0.3377 -0.2833  0.0051
 8603W        W51516  20.561  17.355  12.578 -0.2558  0.0140 -0.1831
 8604W        W51517  33.254  20.973  22.174  0.1032  0.1566 -0.1587
 8605W        W51518  22.811  13.044  15.259  0.0529 -0.1908 -0.2172
 8606W        W51519  24.741  21.210  21.421  0.0721 -0.1700  0.0969
 8607W        W51520  21.686  19.438  12.155 -0.0391 -0.1376  0.1929
 8608W        W51521  27.595  31.899  17.519 -0.0557 -0.0200  0.1397
 8609W        W51522  23.479   7.377  24.774  0.2050  0.3015 -0.0331
 8610W        W51523  26.294  15.423  14.897 -0.1253  0.0560 -0.3812
 8611W        W51524  32.763  29.570  20.034  0.2333  0.1413 -0.0732
 8612W        W51525  29.584  29.327  19.290  0.1551 -0.1562  0.1144
 8613W        W51526  17.101  21.692  14.923  0.0910  0.2447 -0.0711
 8614W        W51527   5.587  23.923  24.926  0.4104  0.1801  0.1682
 8615W        W51528  32.108  28.691  21.037 -0.1580 -0.0844  0.2512
 8616W        W51529  21.022  18.853  13.355 -0.1825  0.1193  0.0723
 8617W        W51530  17.288  23.846  14.396 -0.1284 -0.1184 -0.0086
 8618W        W51531  25.953  20.579  18.625  0.4279 -0.1596 -0.2417
 8619W        W51532  32.568  25.399  16.865  0.0475  0.1943  0.4444
 8620W        W51533  16.110   7.080  23.678  0.0292  0.3319 -0.2194
 8621W        W51534  13.055   6.759  24.646 -0.1143 -0.0007 -0.1763
 8622W        W51535   7.304  25.286  15.841  0.4102  0.3147  0.1391
 8623W        W51536  25.187  25.972  21.498  0.0696 -0.1102 -0.0017
 8624W        W51537  27.588  28.054  16.996 -0.3405  0.1062 -0.3954
 8625W        W51538  30.496  29.286  21.553  0.0625  0.1671  0.2828
 8626W        W51539  14.902   6.458  23.448 -0.2152  0.4881 -0.1073
 8627W        W51540  25.208  29.175  20.280  0.1259 -0.0383 -0.1530
 8628W        W51541  15.730  24.199  16.497  0.1838 -0.0707 -0.4857
 8629W        W51542  26.751  20.070  13.893 -0.1598 -0.1762  0.1603
 8630W        W51543  31.673  14.618  22.247  0.0377  0.0732  0.1518
 8631W        W51544  22.691  20.017  15.385 -0.1409 -0.2543 -0.1201
 8632W        W51545  27.400  29.041  20.719  0.0557 -0.2512 -0.1022
 8633W        W51546  24.877  16.288  18.509 -0.0538  0.1437  0.0418
 8634W        W51547  28.625  23.012  26.180 -0.0636 -0.0263  0.0731
 8635W        W51548  19.206  23.449  15.195  0.2141  0.1313 -0.1613
 8636W        W51549  20.352  17.836  11.960 -0.1002  0.1632 -0.2151
 8637W        W51550  24.744  22.218  13.637  0.0005 -0.2630  0.2270
 8638W        W51551  15.027  14.578  12.456  0.0826 -0.0891 -0.0847
 8639W        W51552  22.430  27.299  16.403  0.3024 -0.2993  0.0591
 8640W        W51553  21.479  29.237  18.519 -0.2113 -0.1761 -0.0535
 8641W        W51554  27.452  31.892  14.544  0.4559 -0.0595  0.0487
 8642W        W51555  24.174  23.731  14.026  0.0805 -0.2267 -0.2961
 8643W        W51556  26.281  24.095  14.941  0.1103  0.1253  0.1448
 8644W        W51557  22.584  31.412  24.778  0.0212  0.0695  0.1242
 8645W        W51558  30.391  21.584  15.304  0.1389  0.2121  0.1431
 8646W        W51559  21.857  21.690  20.417 -0.0057 -0.1835  0.1097
 8647W        W51560   1.455  18.245  20.593 -0.1075 -0.3434  0.2386
 8648W        W51561  29.339  17.921  17.192 -0.0034 -0.1262 -0.1505
 8649W        W51562  21.220  19.809  20.448 -0.5677 -0.0649  0.1462
 8650W        W51563  10.614  29.627  21.313 -0.1299 -0.0362  0.0612
 8651W        W51564  27.925  27.736  13.983 -0.2473 -0.2157  0.4013
 8652W        W51565  23.543  31.013  13.944 -0.1408 -0.0169 -0.4713
 8653W        W51566  24.762  24.068  18.665 -0.1704 -0.0195 -0.2974
 8654W        W51567  28.874  17.969  18.410  0.2639  0.0390 -0.1388
 8655W        W51568  32.919  29.015  18.194  0.0676 -0.3019 -0.1519
 8656W        W51569  26.663  11.672  13.770  0.1299  0.0931  0.0820
 8657W        W51570  21.430  29.412  19.024 -0.0800 -0.2298 -0.2014
 8658W        W51571  30.812  24.358  19.180 -0.0942  0.3640 -0.1080
 8659W        W51572  22.862  31.115  14.069  0.1136  0.0650 -0.0180
 8660W        W51573  28.567  26.755  17.828 -0.2382 -0.0589  0.0421
 8661W        W51574   2.086  14.582  20.915  0.0088  0.2616  0.1677
 8662W        W51575  27.454  30.033  23.581  0.1566  0.0665  0.2075
 8663W        W51576  29.200  22.032  15.650  0.1490  0.2008 -0.1754
 8664W        W51577  11.707  22.596  25.605 -0.4925  0.0436 -0.3834
 8665W        W51578  30.742   0.284  19.148 -0.1600  0.2926 -0.0285
 8666W        W51579  30.847  26.060  17.922  0.2701  0.0329  0.3077
 8667W        W51580  21.698  26.775  12.601 -0.3186  0.1661 -0.1158
 8668W        W51581  30.580  31.922  15.303 -0.0521  0.3004  0.2935
 8669W        W51582  29.841  21.539  19.806  0.0419 -0.0842  0.2857
 8670W        W51583  27.246  26.545  24.624  0.2584  0.1806  0.1515
 8671W        W51584  29.472  17.582  17.637 -0.1095  0.0314  0.0825
 8672W        W51585  24.030  21.969  20.703  0.3352 -0.1922  0.1066
 8673W        W51586  32.621  18.729  22.304  0.1202  0.1753 -0.0130
 8674W        W51587  19.384  24.418  23.139 -0.0927 -0.2556  0.2388
 8675W        W51588  23.429  30.286  28.064  0.0346 -0.1413 -0.2996
 8676W        W51589  27.775  31.369  16.844  0.2098  0.1314 -0.0089
 8677W        W51590  24.242  21.480  24.427  0.0726  0.2606 -0.0964
 8678W        W51591  17.981  28.745  15.386  0.1592 -0.0493  0.0510
 8679W        W51592  29.432  33.147  17.871 -0.0646 -0.1128 -0.1288
 8680W        W51593  23.816  14.948  13.575 -0.0064  0.2665  0.1263
 8681W        W51594   1.216  25.252  16.808 -0.2250  0.1380  0.1425
 8682W        W51595  27.307  32.325  21.583 -0.0846 -0.0534 -0.2168
 8683W        W51596  21.942  18.567  14.838 -0.0242  0.1492  0.2014
 8684W        W51597   1.341  22.219  23.361  0.0037  0.0940  0.2066
 8685W        W51598  29.145  28.228  18.057  0.0235 -0.4013  0.2596
 8686W        W51599  29.687  29.877  15.321  0.0767  0.4268  0.0502
 8687W        W51600  22.138  26.251  15.682  0.1024 -0.0099  0.2461
 8688W        W51601  29.690  27.180  18.960  0.4838  0.0096 -0.2825
 8689W        W51602  28.026  21.156  13.247  0.2569 -0.0268 -0.2522
 8690W        W51603  24.073  22.480  21.851  0.3243  0.2265  0.0035
 8691W        W51604  27.782  26.150  21.656 -0.0238  0.0219  0.4734
 8692W        W51605   0.523   0.599  17.133  0.2758  0.1894 -0.4283
 8693W        W51606  24.347  22.892  19.505 -0.0031 -0.1981  0.1716
 8694W        W51607  32.492  19.434  16.910 -0.3984 -0.2253 -0.0286
 8695W        W51608  17.827  28.565  21.669  0.4372 -0.2160 -0.1651
 8696W        W51609  29.567  19.155  15.674 -0.0069  0.4674 -0.0181
 8697W        W51610  22.537  21.596  18.784  0.2882 -0.1056  0.4418
 8698W        W51611  21.809  15.289  12.177  0.0546  0.0409 -0.0082
 8699W        W51612  32.826  32.732  17.678  0.1093 -0.2732 -0.1113
 8700W        W51613  33.285  17.356  15.983 -0.1007 -0.0735  0.0717
 8701W        W51614  17.675  25.784  16.819 -0.1340  0.0039  0.0101
 8702W        W51615  26.988  29.777  18.997  0.2402 -0.1574 -0.0699
 8703W        W51616  29.847   4.206  26.141  0.2296  0.1523  0.1235
 8704W        W51617  20.226  19.553  15.446 -0.0756 -0.1622  0.0244
 8705W        W51618  20.811  24.505  15.170  0.2723  0.0418 -0.1867
 8706W        W51619  21.749  20.464  12.884 -0.2104  0.2557 -0.1788
 8707W        W51620  25.627  25.339  15.768  0.2171 -0.0491 -0.3416
 8708W        W51621  23.016  27.581  14.591 -0.1588 -0.1204  0.2303
 8709W        W51622  12.002  13.980  17.912 -0.0194 -0.0501  0.1016
 8710W        W51623  13.681  15.009  14.918 -0.1610  0.3198 -0.1706
 8711W        W51624  20.097  30.462  13.435 -0.1171 -0.0920  0.0589
 8712W        W51625  24.718  25.203  13.279 -0.2286 -0.0547 -0.1675
 8713W        W51626  14.618  17.341  15.791  0.0246 -0.1874 -0.0845
 8714W        W51627  33.103  24.213  20.004 -0.1156  0.0949  0.1400
 8715W        W51628  18.424  27.936  15.651 -0.2655  0.4406  0.1028
 8716W        W51629  32.274  14.321  14.137 -0.0986 -0.1038 -0.1665
 8717W        W51630  18.784  21.797  11.820 -0.2197  0.2059 -0.0737
 8718W        W51631   6.247  19.148  13.635 -0.2123 -0.2717 -0.1090
 8719W        W51632  22.880  23.442  17.577 -0.2344  0.0434 -0.1632
 8720W        W51633  24.601   2.719  14.793  0.3675 -0.2972  0.0610
 8721W        W51634  25.101  16.178  22.073  0.1075 -0.1387 -0.1507
 8722W        W51635  22.600  29.789  23.329 -0.0743  0.0490 -0.1561
 8723W        W51636  24.129   0.247  23.173  0.0142 -0.0204  0.1773
 8724W        W51637  22.420  20.565  22.177 -0.2008 -0.1322  0.1619
 8725W        W51638  21.831  27.943  26.598  0.0618  0.0783  0.1531
 8726W        W51639  18.991  22.395  17.759 -0.1015 -0.0284  0.0993
 8727W        W51640  28.207  21.061  16.225  0.1288 -0.2527 -0.0995
 8728W        W51641  25.251  24.614  14.417 -0.1861 -0.0391 -0.2493
 8729W        W51642  21.260  33.586  20.112 -0.2207 -0.2852 -0.3074
 8730W        W51643   3.247  11.124  19.054 -0.3186  0.2212 -0.0014
 8731W        W51644  27.367  18.835  14.465  0.0459 -0.0156 -0.2704
 8732W        W51645  21.292  18.801  14.232 -0.1645 -0.0346  0.0923
 8733W        W51646  25.792  20.494  24.569 -0.0455 -0.3772  0.2943
 8734W        W51647  23.130  15.397  12.733  0.0614  0.2154 -0.1239
 8735W        W51648  13.041  27.775  21.485  0.1755 -0.0436  0.0889
 8736W        W51649  27.176  15.175  19.093 -0.1406  0.2862 -0.0645
 8737W        W51650  26.614  29.442  17.693  0.0426  0.0266 -0.3495
 8738W        W51651  17.564  23.234  16.752 -0.0948 -0.4802 -0.2481
 8739W        W51652   1.787  24.478  18.282  0.0779  0.1709  0.0797
 8740W        W51653   2.845  19.937  16.713  0.0429 -0.2706 -0.0283
 8741W        W51654  22.135  28.588  15.612 -0.1502  0.0301  0.1860
 8742W        W51655  32.251   2.040  21.521  0.1419 -0.1824  0.0220
 8743W        W51656  30.784  26.527  15.318 -0.1070  0.0817  0.1470
 8744W        W51657  21.882  20.831  14.270 -0.0348 -0.1953 -0.1298
 8745W        W51658  25.130   5.664  14.258  0.0062 -0.2111 -0.0986
 8746W        W51659  24.537  17.493  21.425 -0.0134 -0.4700  0.4582
 8747W        W51660  18.604  27.926  23.179  0.0218 -0.3184  0.0322
 8748W        W51661  25.964  28.079  19.887 -0.0384 -0.0309  0.2324
 8749W        W51662  24.096   9.798  24.327  0.0548 -0.2758 -0.0340
 8750W        W51663  18.556  25.801  14.152 -0.1099  0.2260  0.2819
 8751W        W51664   5.525  18.847  20.342 -0.0454  0.1153  0.0209
 8752W        W51665  24.221   2.434  17.147 -0.0832 -0.2620 -0.1453
 8753W        W51666  31.779  20.266  16.042 -0.0626 -0.0847  0.0244
 8754W        W51667  14.342  12.955  17.984  0.1658  0.3144  0.1045
 8755W        W51668  29.625  19.271  14.550  0.0019  0.1805  0.1399
 8756W        W51669  22.311  19.253  21.403 -0.1333  0.1586  0.0438
 8757W        W51670  21.943  22.535  20.559  0.1353 -0.4556 -0.3297
 8758W        W51671  24.337  19.310  15.401  0.1548  0.2809 -0.1359
 8759W        W51672  26.851  10.300  21.631  0.1669  0.1451 -0.4678
 8760W        W51673  23.385  22.302  16.596 -0.0300  0.0181  0.0255
 8761W        W51674  18.366  22.369  16.590  0.1401 -0.0129 -0.0111
 8762W        W51675  33.634  15.137  13.505 -0.2467 -0.1080 -0.0160
 8763W        W51676  30.839  32.349  15.413  0.1100 -0.0920 -0.1225
 8764W        W51677  26.748  26.466  17.403 -0.0957  0.5992  0.1798
 8765W        W51678  30.203  24.838  14.389  0.0158 -0.0310  0.2348
 8766W        W51679  22.372  23.129  15.729 -0.0680 -0.1651  0.1996
 8767W        W51680   6.959  21.171  15.161  0.0597  0.0857  0.0903
 8768W        W51681  30.415  20.351  17.192  0.1627 -0.3260  0.0377
 8769W        W51682  34.301  21.235  18.673 -0.2307 -0.0710  0.0445
 8770W        W51683  24.713  17.096  17.491 -0.1629  0.0557 -0.2359
 8771W        W51684  18.957  22.772  16.950  0.1975 -0.3675 -0.0671
 8772W        W51685  22.143  24.992  18.431  0.1548 -0.0250  0.2151
 8773W        W51686  24.517   7.584  20.586 -0.1741  0.0488  0.0547
 8774W        W51687  31.531  18.649  14.458  0.2725  0.2699  0.3565
 8775W        W51688  26.421  11.196  18.368 -0.3798 -0.0426 -0.2578
 8776W        W51689  22.989  31.222  19.588  0.2863  0.2281 -0.4023
 8777W        W51690  22.200  22.615  12.871 -0.0372 -0.3068  0.3798
 8778W        W51691  26.390  13.160  21.294  0.4559 -0.1849  0.2129
 8779W        W51692  23.248   0.905  15.165  0.2267  0.1895  0.0902
 8780W        W51693  23.583  15.442  17.017 -0.1590 -0.1966  0.0047
 8781W        W51694  28.192  14.403  14.170 -0.2549  0.1549  0.2455
 8782W        W51695  15.128  21.264  17.988  0.0856  0.1512 -0.2315
 8783W        W51696  20.487  27.704  16.623 -0.1122  0.0452 -0.3058
 8784W        W51697  27.801  20.364  19.049 -0.2222  0.2307 -0.0232
 8785W        W51698  29.252  23.408  21.029 -0.0598  0.0967 -0.2584
 8786W        W51699  24.348  29.298  20.027  0.0219 -0.1268 -0.0157
 8787W        W51700  33.328  26.919  17.530  0.0737 -0.2769 -0.1231
 8788W        W51701  28.012  19.026  18.774  0.3346 -0.1061 -0.1273
 8789W        W51702  21.539  23.064  16.220  0.1379  0.1815 -0.0764
 8790W        W51703  12.334  12.298  16.616  0.1565 -0.3696  0.1798
 8791W        W51704  30.968  18.921  15.432  0.1254  0.3864  0.0665
 8792W        W51705  22.555  25.143  19.429  0.0619  0.2592 -0.2150
 8793W        W51706  18.472  20.743  14.815  0.1520 -0.2901  0.1205
 8794W        W51707  22.420  26.301  28.908  0.4811 -0.0820  0.3147
 8795W        W51708  21.392   1.242  17.677  0.1287  0.2551  0.1450
 8796W        W51709  23.460  32.838  19.316  0.1987 -0.0975 -0.0698
 8797W        W51710  32.529  16.037  27.842  0.3612  0.0734 -0.2193
 8798W        W51711  24.576  24.331  16.874 -0.3728 -0.0272 -0.6253
 8799W        W51712   8.155  19.637  17.051  0.4022  0.2866 -0.0174
 8800W        W51713  29.371  21.611  15.872  0.1131 -0.2380  0.0385
 8801W        W51714  23.928  18.411  21.775 -0.0627 -0.0931 -0.1973
 8802W        W51715  20.417  20.236  13.496 -0.0451  0.2374  0.1244
 8803W        W51716  20.694  12.469  13.685  0.1099 -0.0276  0.0788
 8804W        W51717  19.226  24.736  15.636  0.0769  0.2283  0.2167
 8805W        W51718  32.101  23.756  23.433 -0.1625  0.5308 -0.0797
 8806W        W51719  30.964  24.348  14.928 -0.2432 -0.1028 -0.0793
 8807W        W51720  31.047  23.378  14.109  0.1918  0.1708  0.2323
 8808W        W51721  19.789  32.201  18.888 -0.1773 -0.2774  0.0972
 8809W        W51722  26.576  20.916  19.610  0.1261 -0.1716 -0.0363
 8810W        W51723  17.572  22.410  15.770  0.1413 -0.2561  0.0259
 8811W        W51724  24.026  29.293  17.814 -0.3973 -0.0793 -0.0876
 8812W        W51725  27.157  20.755  14.230 -0.2282  0.2469  0.1721
 8813W        W51726  25.983  31.484  14.787  0.0529 -0.3146  0.1503
 8814W        W51727  23.801   0.517  18.353  0.0251 -0.0960  0.4348
 8815W        W51728  29.126  32.217  17.631 -0.0540  0.3845  0.2237
 8816W        W51729  19.185  23.042  13.637 -0.0307 -0.0142 -0.0955
 8817W        W51730  14.924  18.565  15.136 -0.0833 -0.2315 -0.3563
 8818W        W51731  34.010  22.999  16.029  0.1947  0.0849 -0.0719
 8819W        W51732  26.207  33.530  23.874 -0.1725  0.1712 -0.0462
 8820W        W51733  31.377  22.053  23.839  0.2441  0.0024 -0.4180
 8821W        W51734   6.899  24.775  14.468  0.3204  0.3350 -0.1646
 8822W        W51735  24.425  30.718  21.540  0.3486  0.0851 -0.1148
 8823W        W51736  20.825  17.983  15.355  0.3081  0.0985  0.0670
 8824W        W51737  18.834  28.991  21.496  0.1155 -0.2177 -0.1011
 8825W        W51738  23.702  14.187  17.207  0.1833  0.1694  0.1053
 8826W        W51739  32.415  24.964  20.537  0.1479 -0.4845  0.0528
 8827W        W51740  28.810  19.596  14.235 -0.1169 -0.0429  0.1628
 8828W        W51741  24.757  26.108  23.887  0.0690 -0.2343 -0.0995
 8829W        W51742  19.844   7.985  14.453 -0.2175 -0.3520  0.1701
 8830W        W51743  24.499  28.412  20.238 -0.0879  0.3750  0.2690
 8831W        W51744  33.779  22.865  14.435 -0.3038  0.2120  0.2409
 8832W        W51745  21.506  20.765  23.085  0.2945 -0.0012  0.2203
 8833W        W51746  29.580   9.228  19.742 -0.1857  0.0419 -0.1468
 8834W        W51747  18.513  15.173  12.311 -0.1921  0.2354  0.2955
 8835W        W51748  30.970  25.091  14.429  0.1618 -0.1275  0.1373
 8836W        W51749  27.922  18.201  23.827  0.1745  0.3867 -0.0902
 8837W        W51750  25.271  16.091  16.572 -0.0394  0.0388  0.0015
 8838W        W51751  22.627  27.594  24.666 -0.1703  0.0769 -0.0289
 8839W        W51752  23.895  25.032  29.480 -0.0886  0.2352  0.1629
 8840W        W51753  21.414  22.078  14.245 -0.0379  0.3218  0.0179
 8841W        W51754  25.702  12.977  18.145 -0.2135  0.0836  0.0659
 8842W        W51755  21.408  25.267  15.353  0.1297 -0.0208 -0.2690
 8843W        W51756  23.657  28.752  17.365 -0.2793 -0.1590  0.0368
 8844W        W51757  24.994  10.892  16.436 -0.0656  0.0159 -0.1221
 8845W        W51758  25.272  14.428  18.391  0.3929  0.0639 -0.3654
 8846W        W51759  24.384  22.899  12.932 -0.3392  0.0217  0.0103
 8847W        W51760  32.033  22.680  19.081  0.0401 -0.2323 -0.2951
 8848W        W51761  32.219  25.975  16.109  0.0703  0.3309  0.0066
 8849W        W51762  25.288  24.255  19.473  0.0251 -0.0189 -0.1834
 8850W        W51763  27.678  20.733  20.677  0.0526 -0.1618 -0.1047
 8851W        W51764  30.894  21.685  26.365 -0.1775  0.0586  0.2277
 8852W        W51765  20.669  30.804  13.326 -0.2495 -0.1684 -0.2332
 8853W        W51766  27.243   9.796  17.504  0.1280  0.2203  0.2105
 8854W        W51767  28.666  23.177  14.780 -0.1792  0.0163  0.3445
 8855W        W51768  12.969  15.732  22.871  0.1716 -0.2139  0.1769
 8856W        W51769  30.328  21.009  15.289  0.1774 -0.0580  0.1104
 8857W        W51770  31.677  34.461  15.154  0.1952 -0.2169 -0.2845
 8858W        W51771   1.834  11.780   3.647 -0.0221 -0.2729  0.3778
 8859W        W51772  28.382  22.520  15.164 -0.1871 -0.0569 -0.0833
 8860W        W51773   7.362  32.227  19.847 -0.2131 -0.2343  0.1561
 8861W        W51774  27.524  15.027  16.759  0.4935  0.3093 -0.4459
 8862W        W51775  32.498  29.220  19.705  0.0682 -0.2224  0.2404
 8863W        W51776  12.511  19.798  15.411 -0.2315  0.1367  0.0639
 8864W        W51777  34.477  21.476  20.499  0.2956 -0.5120  0.0194
 8865W        W51778   0.225  28.830  21.312  0.3551  0.0030 -0.1597
 8866W        W51779  26.287  26.748  18.532  0.0168  0.3402  0.2240
 8867W        W51780  16.868  29.854  28.441  0.0731  0.3736  0.1038
 8868W        W51781   0.443  32.850  15.042 -0.0021 -0.1210  0.2083
 8869W        W51782  15.874  26.329  17.723 -0.0236 -0.1267 -0.1165
 8870W        W51783  19.739  24.468  20.277  0.4846 -0.0416 -0.1457
 8871W        W51784  23.711  21.497  20.807 -0.2354 -0.2136  0.0571
 8872W        W51785   1.487  28.075  16.770  0.1347 -0.4870  0.0240
 8873W        W51786  29.100  17.090  13.899 -0.0692  0.0904 -0.3448
 8874W        W51787  33.220  28.438  13.595 -0.0825  0.3222  0.0526
 8875W        W51788  18.003  30.396  14.858  0.1598 -0.0399 -0.3120
 8876W        W51789  22.408  24.462  22.135 -0.1540 -0.0151 -0.0981
 8877W        W51790  32.702  26.589  14.940  0.1237  0.3596 -0.1414
 8878W        W51791  22.065  23.121  14.224  0.1284 -0.3825  0.1062
 8879W        W51792  13.936  18.949  20.243 -0.0064 -0.0232 -0.0960
 8880W        W51793  32.784  33.110  16.848 -0.0561 -0.0117 -0.1109
 8881W        W51794  26.432  21.715  14.675  0.0474  0.1642 -0.0502
 8882W        W51795  26.770  29.973  13.501  0.0964 -0.0409 -0.0494
 8883W        W51796  25.794   0.005  18.825 -0.1001 -0.2764  0.2709
 8884W        W51797  31.307  26.782  15.936  0.2144 -0.1821  0.0175
 8885W        W51798  27.371  23.836  16.187  0.4194  0.0337 -0.1462
 8886W        W51799  21.517   9.516  18.747 -0.2887 -0.1813  0.1945
 8887W        W51800  30.962   0.668  24.236  0.1276  0.0769  0.0732
 8888W        W51801  28.141  21.104  15.299  0.1533  0.1038 -0.1374
 8889W        W51802  12.895  17.779  23.559 -0.0637 -0.2001  0.1642
 8890W        W51803  17.955   7.700  19.729  0.0885  0.2826 -0.0571
 8891W        W51804  21.479  13.219  18.231 -0.3844  0.0683  0.1794
 8892W        W51805  14.044   9.412  16.525 -0.0047  0.0906  0.2300
 8893W        W51806  26.703  20.453  15.230  0.2158 -0.0360  0.2173
 8894W        W51807  23.079  26.916  17.368  0.2796 -0.3741 -0.0059
 8895W        W51808  27.956  27.246  20.600  0.3708  0.1422 -0.2344
 8896W        W51809  24.636  29.955  14.730  0.1895 -0.1072 -0.0367
 8897W        W51810  28.997  32.615  15.300  0.4839 -0.2126  0.0185
 8898W        W51811  24.925  17.290  26.851 -0.2685  0.1943  0.3290
 8899W        W51812  19.919  25.588  22.271 -0.2189  0.1386 -0.3329
 8900W        W51813  25.430  19.274  24.839 -0.0612 -0.1962  0.0670
 8901W        W51814  23.644  22.807  16.702  0.0122 -0.1420 -0.0601
 8902W        W51815  24.387  24.011  12.896 -0.0929 -0.0414 -0.3508
 8903W        W51816  18.304  18.077  13.779 -0.0642  0.0947 -0.1488
 8904W        W51817  20.120  24.991  17.503  0.2207  0.1028  0.0245
 8905W        W51818   8.450  15.139  16.759 -0.2131 -0.1812 -0.0599
 8906W        W51819  29.133  26.193  20.687 -0.1175 -0.0753 -0.1046
 8907W        W51820  18.775  31.745   5.826 -0.0730  0.3705  0.0353
 8908W        W51821  25.486  25.798  16.498 -0.0295 -0.1809 -0.2787
 8909W        W51822  27.580  22.802  12.560  0.3252  0.0564  0.4259
 8910W        W51823  22.546  24.871  17.409  0.0431  0.1059 -0.0796
 8911W        W51824  29.387  15.038  21.079 -0.0440  0.1925  0.1657
 8912W        W51825  28.034   7.031  27.936 -0.0905 -0.0196 -0.1104
 8913W        W51826  19.388   0.434  21.708 -0.2034  0.1223 -0.1691
 8914W        W51827  25.117  16.757   6.045 -0.1122  0.0114 -0.3659
 8915W        W51828  24.799  34.431  14.586  0.1801  0.0677 -0.1051
 8916W        W51829  22.621  15.541  15.062 -0.1610  0.0585 -0.0255
 8917W        W51830  28.241  26.450  14.338  0.1040  0.2327 -0.0601
 8918W        W51831  25.165  28.515  14.326 -0.0139 -0.0122 -0.1596
 8919W        W51832  12.348  20.071  15.013  0.4181 -0.0081  0.5428
 8920W        W51833  15.342  33.203  19.418  0.0072 -0.2535 -0.4007
 8921W        W51834  16.268  13.965  15.007  0.1199  0.1299 -0.1233
 8922W        W51835   3.822  14.265  18.433 -0.2557 -0.2429 -0.2344
 8923W        W51836  17.105  21.794  12.576 -0.0282  0.0313 -0.3058
 8924W        W51837   3.716  17.948  23.875 -0.3313 -0.1207  0.2977
 8925W        W51838  24.267  19.386  29.463  0.0601  0.0065 -0.1866
 8926W        W51839  20.744  25.176  22.696 -0.2790 -0.1039  0.0426
 8927W        W51840  32.651  19.318  21.265 -0.0838  0.0118  0.0097
 8928W        W51841  19.542   9.984  13.921  0.0457  0.1847  0.1420
 8929W        W51842  23.368  11.180  15.283 -0.1259  0.0181 -0.0071
 8930W        W51843  20.946  20.766  18.727 -0.0502 -0.4416 -0.1512
 8931W        W51844  25.546  30.603  13.380  0.1507  0.1199 -0.2534
 8932W        W51845   7.635  21.976  19.816  0.0527  0.2675 -0.0030
 8933W        W51846  10.826  13.756  13.492  0.2106 -0.2092 -0.0135
 8934W        W51847  19.430  22.398  16.402  0.0998 -0.1764  0.2883
 8935W        W51848  26.158  25.548  15.109  0.4644 -0.3920  0.0293
 8936W        W51849  23.525  29.311  19.575  0.0743 -0.0059 -0.0780
 8937W        W51850  17.819  24.739  19.582  0.1907 -0.1366 -0.4335
 8938W        W51851  22.019  17.368  14.947 -0.1218 -0.0345  0.2652
 8939W        W51852  14.985  19.278  14.716 -0.2311  0.2355  0.0157
 8940W        W51853  18.909  16.605  14.291 -0.2665 -0.2367  0.2775
 8941W        W51854  24.815  20.189  13.259 -0.2058 -0.3199 -0.1820
 8942W        W51855  17.753  15.949  26.408 -0.1003  0.1577  0.0713
 8943W        W51856  22.889  22.792  13.595  0.1479 -0.0148 -0.2308
 8944W        W51857  14.379  29.293  23.079  0.2404  0.0672 -0.2685
 8945W        W51858  20.587  21.074  22.066  0.0140 -0.2734 -0.0709
 8946W        W51859  24.526  19.937  13.776 -0.1672 -0.0256 -0.0146
 8947W        W51860  19.514  23.512  14.283 -0.3229 -0.4648  0.0402
 8948W        W51861  24.800  24.419  13.681 -0.2096 -0.3106  0.2213
 8949W        W51862   6.254  20.879  26.222 -0.3057 -0.0875  0.0423
 8950W        W51863  24.590   1.281  14.494  0.0351 -0.0440 -0.0306
 8951W        W51864  26.874  11.241  16.919 -0.2313 -0.2470 -0.1448
 8952W        W51865  18.159  22.352  26.354  0.0489  0.1527 -0.1202
 8953W        W51866  19.074  23.932  24.466  0.0583  0.2516 -0.2541
 8954W        W51867  19.729  24.514  15.640 -0.0481 -0.1750 -0.0435
 8955W        W51868  29.929  25.055  23.747  0.1098  0.2003 -0.1680
 8956W        W51869  21.743   1.552  16.164 -0.1524 -0.0869 -0.0759
 8957W        W51870  19.458  30.033  17.116  0.1772 -0.0155  0.2060
 8958W        W51871  28.331  28.160  14.565  0.0047  0.4143  0.1335
 8959W        W51872  27.472  23.645  22.786  0.0179 -0.2187 -0.1196
 8960W        W51873  28.986  23.590  16.862 -0.0635 -0.3722  0.2248
 8961W        W51874  18.293  13.629  24.409  0.0625  0.2938 -0.3267
 8962W        W51875  29.230  28.153  22.888 -0.1011  0.0399  0.0942
 8963W        W51876  27.451  30.630  24.418  0.1992  0.1900 -0.4033
 8964W        W51877  27.038  20.892  15.839 -0.2019 -0.1005 -0.1665
 8965W        W51878  23.483  23.167  14.390  0.1120 -0.0438 -0.0400
 8966W        W51879  17.565  19.021  14.204 -0.0631  0.0104  0.1186
 8967W        W51880  20.374  10.816  17.831  0.1283  0.1296 -0.3091
 8968W        W51881  27.496  19.431  20.076  0.0051 -0.3346 -0.1704
 8969W        W51882  25.305  25.327  16.676 -0.1690 -0.1446  0.0058
 8970W        W51883  13.308  30.742  20.789  0.1863 -0.1738  0.0699
 8971W        W51884  22.386  26.138  12.743  0.2030 -0.2000  0.1586
 8972W        W51885  21.196  21.033  17.646 -0.0354  0.0699  0.1141
 8973W        W51886  28.127  26.893  17.516 -0.0005 -0.0512 -0.3957
 8974W        W51887  10.448  20.684  20.766  0.2018 -0.2768  0.4289
 8975W        W51888  29.740  27.201  24.992  0.0492 -0.1149  0.1836
 8976W        W51889  27.245  15.948  23.649 -0.0856 -0.0221 -0.0077
 8977W        W51890  24.390  33.192  17.039  0.0248  0.3130 -0.3441
 8978W        W51891  24.519  19.854  16.395 -0.0023  0.1861 -0.2339
 8979W        W51892  12.768  23.609  18.545 -0.3558  0.1006 -0.1695
 8980W        W51893  21.515  28.267  26.404  0.3280 -0.3246 -0.1485
 8981W        W51894  29.630  25.994  13.961 -0.1027  0.1580 -0.2690
 8982W        W51895  30.258  21.975  23.887 -0.1251  0.2522 -0.0200
 8983W        W51896  29.320  33.376  22.949  0.1633  0.2152 -0.1668
 8984W        W51897  19.466  18.023  22.915 -0.0637  0.1360 -0.1474
 8985W        W51898  26.314  25.387  18.019  0.0522 -0.2549  0.0264
 8986W        W51899   0.303  24.083  24.282 -0.0049  0.1037 -0.1063
 8987W        W51900  24.477  15.685  19.858  0.1461  0.0286 -0.1662
 8988W        W51901  14.662  21.563  18.115 -0.0737  0.1499  0.2015
 8989W        W51902  22.897  25.218  17.837  0.0469  0.2686 -0.1457
 8990W        W51903  27.237  19.108  28.581 -0.1606 -0.2429  0.0361
 8991W        W51904  27.404  16.355  27.078  0.0743 -0.4412  0.0140
 8992W        W51905  17.035  27.481  19.305  0.1537 -0.0726  0.2241
 8993W        W51906  23.587  25.910  19.049 -0.1239  0.1140 -0.2310
 8994W        W51907  24.883   6.487  14.856 -0.1592  0.0891 -0.0041
 8995W        W51908  30.604  27.212  21.469 -0.0325 -0.0922 -0.1938
 8996W        W51909  26.415  18.055  19.493 -0.0434  0.1069  0.1319
 8997W        W51910  24.484  21.659  13.777  0.3352 -0.3169  0.1415
 8998W        W51911   3.617  23.808  15.900 -0.1539  0.0420 -0.2253
 8999W        W51912  27.099  22.342   3.397 -0.1911 -0.0093 -0.1385
 9000W        W51913  17.351  12.377  12.138  0.0719 -0.0099 -0.3469
 9001W        W51914  23.670   1.136  14.863 -0.1004  0.1927  0.1509
 9002W        W51915  17.247   2.503  15.962  0.0689 -0.0677 -0.2548
 9003W        W51916  28.864  21.663  15.610 -0.0897  0.0791  0.0405
 9004W        W51917  21.057  18.135  22.037 -0.0038  0.0765  0.0233
 9005W        W51918  25.177  14.361  25.888  0.0181 -0.3142 -0.0027
 9006W        W51919   6.528  28.898  20.516 -0.0527 -0.2150 -0.1314
 9007W        W51920  20.364  13.775  14.871 -0.0339 -0.0151  0.0604
 9008W        W51921  33.034   6.328  24.754  0.0866 -0.2278 -0.1087
 9009W        W51922  11.126  23.003  21.954  0.0182 -0.1570  0.2383
 9010W        W51923  26.897  20.729  27.325  0.2106  0.1831  0.0202
 9011W        W51924  22.665  20.003  27.721 -0.2579  0.0837  0.0365
 9012W        W51925  26.799  21.810  19.879 -0.2037 -0.0011  0.1432
 9013W        W51926  24.260  18.177  16.839 -0.0287 -0.2199 -0.0403
 9014W        W51927  12.538  13.037  19.460 -0.0719  0.3913 -0.2491
 9015W        W51928  31.199  18.703  18.032 -0.2887 -0.1828 -0.1340
 9016W        W51929  19.819  23.282  13.110  0.1074 -0.0661  0.1536
 9017W        W51930  30.038  21.653  24.724  0.0503 -0.0352 -0.0150
 9018W        W51931   1.061  29.071  16.215  0.0844 -0.1206  0.1499
 9019W        W51932  29.445  26.994  17.565  0.2288  0.0365 -0.0167
 9020W        W51933  17.252  27.247  18.633 -0.1447 -0.2703  0.2756
 9021W        W51934  24.560  29.137  23.786  0.0758 -0.1635  0.0989
 9022W        W51935  26.506  28.762  20.383  0.1791  0.1744 -0.1613
 9023W        W51936  13.413  20.113  15.422 -0.2238  0.0482 -0.2636
 9024W        W51937  27.850  16.442  23.431  0.0958  0.0982 -0.2686
 9025W        W51938  25.613  28.555  16.834 -0.1599  0.1261  0.0183
 9026W        W51939  26.171  21.245  20.963  0.1207 -0.1139  0.3704
 9027W        W51940  25.370  16.459  14.846  0.0980 -0.1708  0.0135
 9028W        W51941  19.885  20.924  16.738  0.3123 -0.0282  0.3403
 9029W        W51942  23.471  27.449  13.724  0.3458 -0.0994  0.0328
 9030W        W51943  21.394  32.407  18.973 -0.1806 -0.1082  0.2826
 9031W        W51944  18.029  27.234  14.469 -0.1646  0.0569 -0.4574
 9032W        W51945  27.148  30.188  17.596 -0.0624  0.0932 -0.0956
 9033W        W51946  28.036  30.276  21.622  0.2234 -0.0122 -0.0502
 9034W        W51947  29.875  20.961  22.652  0.1957  0.2416  0.0173
 9035W        W51948  18.842  28.621  18.682 -0.4010 -0.1323  0.1178
 9036W        W51949  26.283  20.849  15.326  0.2991 -0.0198 -0.0461
 9037W        W51950  27.335  24.519  24.724  0.2920  0.0807  0.1533
 9038W        W51951  32.201  20.135  16.970  0.2091 -0.1818 -0.0275
 9039W        W51952  30.704  27.678  18.214  0.5046  0.0153 -0.1220
 9040W        W51953  20.720  22.684  12.136 -0.2068 -0.1665 -0.2703
 9041W        W51954  30.734  25.704  24.308  0.1064 -0.0601 -0.1039
 9042W        W51955  25.399  24.517  13.635 -0.0555 -0.0505 -0.2290
 9043W        W51956  24.987  31.202  22.261 -0.0010  0.2052  0.1321
 9044W        W51957  24.786  20.758  17.806 -0.0654 -0.1796 -0.2155
 9045W        W51958  25.776  12.720  17.076  0.0622 -0.1513 -0.2918
 9046W        W51959  18.271  15.774  11.670  0.0308  0.2792  0.3205
 9047W        W51960  17.943  21.852  22.854 -0.0355 -0.0219  0.0177
 9048W        W51961  25.031  21.295  15.879  0.0894  0.2485 -0.0473
 9049W        W51962  24.155  16.459  13.997  0.2564  0.0099  0.0140
 9050W        W51963  25.368  20.615  21.259  0.2706 -0.1743  0.0251
 9051W        W51964  25.745  14.014  22.746  0.3274 -0.3658  0.1745
 9052W        W51965  31.733  19.275  24.692  0.0308 -0.0758 -0.0709
 9053W        W51966  22.835  16.055  12.569  0.0536  0.0447  0.3929
 9054W        W51967  29.305  27.675  25.926 -0.2416 -0.1804  0.0112
 9055W        W51968  21.634  20.916  28.160 -0.0127 -0.1135 -0.1936
 9056W        W51969  22.503  17.913  13.684  0.1335 -0.0806  0.0635
 9057W        W51970  32.200  16.441  14.520  0.1361 -0.2669  0.1814
 9058W        W51971  11.593  25.994  21.134  0.0664  0.1894 -0.2746
 9059W        W51972  23.403  10.257  20.046  0.1871  0.0287  0.0343
 9060W        W51973  17.640  21.984  28.894  0.2714 -0.0150  0.1171
 9061W        W51974  31.235  20.593  14.527  0.0050  0.0608  0.2550
 9062W        W51975  25.963  22.092  16.742  0.1059  0.4044  0.2575
 9063W        W51976  20.949  24.362  24.687 -0.0722 -0.3743  0.1433
 9064W        W51977  18.734  25.863  26.764 -0.0026 -0.0147 -0.0723
 9065W        W51978  27.378  27.502  27.555  0.1658 -0.0098  0.0849
 9066W        W51979  21.515  29.907  13.908 -0.2138 -0.1220 -0.1755
 9067W        W51980  26.231  20.883  18.174 -0.0787 -0.1682 -0.0683
 9068W        W51981  23.466  22.393  17.724  0.0436 -0.0535 -0.1414
 9069W        W51982   7.977  21.676   2.802  0.1506  0.1305 -0.1464
 9070W        W51983   6.765  28.014  27.080  0.1769  0.1423 -0.1108
 9071W        W51984  34.488  18.552  23.009 -0.1333  0.1341  0.0236
 9072W        W51985  27.836  25.028  18.152  0.2634  0.1674  0.0501
 9073W        W51986  27.623  24.942  20.757 -0.3113  0.1345 -0.2725
 9074W        W51987  18.482  11.780  15.838 -0.2771  0.1711  0.0036
 9075W        W51988  17.596  26.369  18.280  0.3734 -0.0121 -0.3553
 9076W        W51989  21.238  28.804  18.416  0.0400  0.4980  0.0376
 9077W        W51990  19.623  26.535  23.529 -0.0344 -0.0299 -0.0636
 9078W        W51991  17.699  25.709   1.929  0.3899 -0.0320 -0.0820
 9079W        W51992  29.064  27.253  20.733 -0.1828  0.1037  0.1809
 9080W        W51993  26.572  27.086  21.555 -0.1249  0.1765 -0.0750
 9081W        W51994  25.601  28.010  28.848  0.0180  0.2549 -0.1803
 9082W        W51995   0.288  13.560  17.882 -0.1309  0.0723 -0.0997
 9083W        W51996  13.202  24.306  15.275 -0.0680 -0.0662 -0.1529
 9084W        W51997  15.182  22.509  18.548 -0.1301 -0.1848  0.2502
 9085W        W51998  24.732  27.942  12.660  0.2083 -0.2669 -0.2646
 9086W        W51999  26.771  18.411  13.548  0.0609  0.0862 -0.4209
 9087W        W52000  32.538  22.684  27.042 -0.0873  0.2087 -0.0498
 9088W        W52001  24.947  24.736  16.050  0.0390  0.0727  0.0965
 9089W        W52002  27.472  25.077  19.032  0.2512  0.3669 -0.0091
 9090W        W52003  23.781  15.280  21.303  0.1133  0.2634  0.0086
 9091W        W52004  18.052   4.263  21.463  0.1050  0.0977 -0.2360
 9092W        W52005  28.271  17.328  18.047 -0.0900 -0.0973  0.0906
 9093W        W52006  29.108  21.553  23.028  0.0954  0.1777 -0.0797
 9094W        W52007  28.519  27.341  19.256 -0.1223 -0.3601  0.2753
 9095W        W52008  24.456  25.507  19.157 -0.0460 -0.3972 -0.0588
 9096W        W52009  23.946  25.256  16.263  0.0938 -0.1104 -0.0564
 9097W        W52010  20.159  17.649  12.377 -0.1651  0.2741 -0.2073
 9098W        W52011  25.009  11.842  24.985  0.2301 -0.3607 -0.2747
 9099W        W52012  16.225  26.887  16.402  0.3725  0.1424  0.3132
 9100W        W52013  30.548  18.393  18.762  0.0514 -0.0893  0.0747
 9101W        W52014  10.597   5.963  21.070  0.0443  0.3512  0.2277
 9102W        W52015  24.140  29.094  22.995  0.0457  0.0108 -0.3052
 9103W        W52016  20.764  27.902  13.754  0.0105 -0.1695 -0.0541
 9104W        W52017  30.705  23.337  26.618 -0.1676  0.1986 -0.1055
 9105W        W52018  31.785  27.238  13.751 -0.3087  0.0513 -0.1284
 9106W        W52019  27.844  17.049  18.105  0.3797 -0.4229 -0.2279
 9107W        W52020  18.777  22.238  12.637 -0.0533  0.1093  0.2509
 9108W        W52021  20.804  26.301  13.901  0.1214  0.0792 -0.0146
 9109W        W52022  28.455  19.033  20.144 -0.4455 -0.0717  0.1125
 9110W        W52023  23.970  26.168  19.636 -0.1262  0.1623  0.1552
 9111W        W52024  28.936  26.424  17.101  0.1888 -0.4616 -0.0835
 9112W        W52025  27.953  25.912  17.565  0.1573 -0.0903 -0.2316
 9113W        W52026  20.429  20.657  22.223  0.0556  0.3411 -0.0529
 9114W        W52027  26.534  24.249  12.415 -0.1699  0.0419 -0.0676
 9115W        W52028  23.868  32.725  15.290 -0.2601 -0.0811  0.3285
 9116W        W52029  25.644  19.089  20.567 -0.1149 -0.1309 -0.2162
 9117W        W52030  25.308  29.089  16.341  0.2871  0.0600 -0.4468
 9118W        W52031  29.225  27.506  14.699  0.3820 -0.4263 -0.2380
 9119W        W52032   0.253  24.329  14.385  0.0266  0.0208 -0.1289
 9120W        W52033  28.688  24.727  20.717  0.2705 -0.0327 -0.1264
 9121W        W52034  22.184  23.517  18.220 -0.1213 -0.1546  0.0432
 9122W        W52035  10.312  25.532  29.204 -0.2573  0.1081  0.2986
 9123W        W52036  22.557  11.598  14.947 -0.0888 -0.3472 -0.1419
 9124W        W52037  30.078  20.344  29.699  0.0782  0.1268 -0.2142
 9125W        W52038  29.429  30.546  14.809  0.2541 -0.0539  0.1161
 9126W        W52039  33.163  23.566  23.102  0.0530 -0.1197 -0.3540
 9127W        W52040  29.092  30.152  18.579 -0.0208 -0.2447 -0.0686
 9128W        W52041  26.826  26.328  25.514  0.4375  0.1845  0.3210
 9129W        W52042  27.044  34.420  17.437 -0.1288 -0.1305 -0.2410
 9130W        W52043  21.712  13.899  15.180  0.2240  0.0310 -0.5029
 9131W        W52044  24.996  25.433  28.208  0.0888 -0.1442 -0.4767
 9132W        W52045  23.654  17.287  19.195 -0.2036 -0.2092  0.0574
 9133W        W52046  25.253  22.830  28.384  0.2408  0.3285 -0.0169
 9134W        W52047  22.632  11.513  29.520  0.2428  0.1234  0.2250
 9135W        W52048  27.985  18.258  24.341  0.0387  0.0214  0.0478
 9136W        W52049  20.576  26.124  24.115 -0.3985  0.2575  0.0382
 9137W        W52050  29.491   9.909  20.324  0.0032 -0.2760 -0.3592
 9138W        W52051  17.145  21.748  18.549  0.0758  0.0920  0.0986
 9139W        W52052  22.820  22.054  11.849  0.1370 -0.0657  0.1237
 9140W        W52053  31.548  25.448  24.526 -0.2108  0.1995  0.2318
 9141W        W52054  18.492  12.571  15.535 -0.1608  0.3564 -0.0967
 9142W        W52055  27.310  22.215  13.308  0.0477 -0.2169  0.1027
 9143W        W52056  24.819  15.427  18.454 -0.2423  0.0679  0.0990
 9144W        W52057  18.379  23.172  17.079 -0.1257  0.1708 -0.2129
 9145W        W52058  27.939  31.018  24.026  0.1273 -0.3471  0.1041
 9146W        W52059  30.449  25.863  19.286  0.1526  0.1891  0.2131
 9147W        W52060  20.476  21.764  12.409 -0.1035  0.0234  0.0751
 9148W        W52061  26.528  26.112   0.219  0.0491 -0.0169  0.3517
 9149W        W52062  20.493  18.891   0.732  0.1781 -0.0609  0.4705
 9150W        W52063  31.414  13.476  16.814  0.0337  0.1149 -0.1053
 9151W        W52064  20.645  20.524  14.557 -0.1821  0.0418 -0.3398
 9152W        W52065  12.215  16.323  15.330  0.0946 -0.2323  0.2992
 9153W        W52066   3.414  26.947  14.311 -0.0989 -0.0871 -0.1228
 9154W        W52067  23.315  28.823  18.231  0.0023  0.0383  0.3671
 9155W        W52068  22.892  27.715  18.887  0.1400  0.0785 -0.0212
 9156W        W52069  27.526  24.151  18.817 -0.1616 -0.2671  0.1023
 9157W        W52070  19.214  12.184  15.197 -0.1625  0.0484 -0.2684
 9158W        W52071  11.827  12.625  18.848  0.2673 -0.0581 -0.1423
 9159W        W52072  16.605  21.878  15.698 -0.0845 -0.0757  0.0365
 9160W        W52073  24.424  14.385  21.273 -0.1353 -0.0710 -0.1972
 9161W        W52074   1.784  25.442  20.276  0.1485 -0.0502  0.1194
 9162W        W52075  21.826   8.831  23.761 -0.1942 -0.2325 -0.2006
 9163W        W52076  21.238  24.019  17.040 -0.2262 -0.1434  0.2658
 9164W        W52077  29.129  25.528  23.821  0.1366 -0.2164  0.0606
 9165W        W52078  26.096   2.992  19.908  0.3115  0.0491 -0.1357
 9166W        W52079   7.217  18.433  25.672  0.0860 -0.0930 -0.1174
 9167W        W52080  19.624  26.013  13.385 -0.2379  0.0161 -0.1732
 9168W        W52081  25.429   2.444  20.963 -0.2775 -0.0129  0.0567
 9169W        W52082  24.663  27.475  28.308 -0.1123 -0.1002  0.2335
 9170W        W52083   2.621  27.256  15.387 -0.3412  0.0065 -0.2592
 9171W        W52084  28.067  23.113  12.686  0.0653 -0.1387 -0.1656
 9172W        W52085  26.506  25.742  29.323 -0.0978 -0.0174 -0.2053
 9173W        W52086  19.595  18.944  13.491  0.0998 -0.0436 -0.0498
 9174W        W52087  29.181  27.589  21.371  0.1903  0.1718  0.0447
 9175W        W52088   3.430  25.113  20.345 -0.1219 -0.3746 -0.1032
 9176W        W52089   9.695  29.283  23.665 -0.1065 -0.0836 -0.4900
 9177W        W52090  27.045  31.652  14.585 -0.0140  0.1641 -0.0866
 9178W        W52091   4.223  27.701  16.677 -0.1698 -0.1162  0.1878
 9179W        W52092  19.529  31.853  25.220 -0.2410  0.2908 -0.1909
 9180W        W52093  25.373  27.210  13.758 -0.1594 -0.0449  0.3622
 9181W        W52094  18.759  22.959  21.956  0.0648 -0.2555  0.0348
 9182W        W52095  21.106  17.776  15.732 -0.0661 -0.0609  0.0462
 9183W        W52096  14.316  17.627  14.287 -0.3271 -0.1736  0.0202
 9184W        W52097  23.158  14.610  22.102 -0.0693 -0.1352  0.1124
 9185W        W52098  26.502  20.002  14.335 -0.0027  0.0645  0.0840
 9186W        W52099  29.961  27.059  17.626 -0.1258  0.1885  0.0765
 9187W        W52100  24.303  16.404  23.755  0.1057  0.2515  0.1651
 9188W        W52101  30.257  19.584  23.943  0.3728  0.1530 -0.2761
 9189W        W52102  26.353   2.633  17.078  0.2184 -0.1553  0.0359
 9190W        W52103  22.627  28.161  12.366 -0.4064 -0.0725  0.2010
 9191W        W52104   1.712  30.428  18.056 -0.0465 -0.0510 -0.0167
 9192W        W52105  25.760  26.724  19.477  0.0118  0.0268  0.0571
 9193W        W52106  18.452  26.745  14.479 -0.0288 -0.1087  0.1855
 9194W        W52107  32.156  17.833  23.078  0.1514 -0.0758 -0.0913
 9195W        W52108  11.671  17.018  16.818  0.1860  0.0099 -0.0129
 9196W        W52109  26.561  18.366  18.649  0.0842 -0.0554  0.1315
 9197W        W52110  34.239  20.724  13.711 -0.3086 -0.1825  0.0205
 9198W        W52111  17.394  16.683  14.460  0.0943  0.3632  0.0442
 9199W        W52112  21.683  19.966  20.162 -0.0475  0.2302 -0.0395
 9200W        W52113  26.761  22.823  14.685 -0.0175  0.0969  0.1367
 9201W        W52114   0.841  17.632  16.224 -0.0487 -0.1090  0.4241
 9202W        W52115  22.174  32.753  19.754  0.2560 -0.2922 -0.1392
 9203W        W52116  10.687  22.655  17.182  0.2215  0.0498 -0.0899
 9204W        W52117  21.232  21.934  15.265  0.2337  0.0703 -0.1813
 9205W        W52118  18.216  27.848  16.573  0.1975 -0.4229 -0.1968
 9206W        W52119  32.939  12.531  25.823  0.0263  0.2946  0.3200
 9207W        W52120  16.355  23.137  19.134 -0.1731 -0.0453  0.1437
 9208W        W52121  23.098  23.909  17.358 -0.1321  0.3541 -0.0953
 9209W        W52122  25.014  23.425  14.606  0.2763 -0.0827  0.1122
 9210W        W52123  13.157  25.343  15.526  0.3712 -0.0920 -0.2007
 9211W        W52124  29.906  19.143  20.917  0.2577 -0.2553  0.0273
 9212W        W52125  21.762  20.975  17.156 -0.2266  0.1207 -0.2628
 9213W        W52126   8.779  28.592  19.450 -0.3194  0.1421 -0.0934
 9214W        W52127   0.955  28.942  16.678  0.0291  0.0360 -0.1003
 9215W        W52128  27.947  25.909  15.117 -0.0864 -0.1350  0.2201
 9216W        W52129  12.466  28.776  20.467 -0.0635  0.1332  0.4335
 9217W        W52130  25.513  22.902  28.847 -0.0332 -0.2044 -0.0763
 9218W        W52131  13.931  23.578  20.103 -0.3141  0.0527  0.0372
 9219W        W52132  23.950  30.722  15.766  0.0518 -0.1564  0.0715
 9220W        W52133  21.184  26.948  23.732 -0.0295  0.0933  0.0400
 9221W        W52134  28.197  20.515  16.927  0.0410  0.1015 -0.0465
 9222W        W52135  14.180  10.920  23.598 -0.2671  0.0143 -0.1361
 9223W        W52136  21.681  22.296  14.668 -0.0634  0.2952 -0.3063
 9224W        W52137  21.773   4.636  16.341  0.0994 -0.1169 -0.2650
 9225W        W52138  23.732  23.990  21.189 -0.3343  0.0794 -0.1997
 9226W        W52139  26.294  11.491  20.431 -0.1674 -0.1241  0.0841
 9227W        W52140  21.244  25.590  24.532 -0.0700  0.2436 -0.0437
 9228W        W52141  31.876  22.918  13.155 -0.0905 -0.3172 -0.1944
 9229W        W52142  22.559  24.576  13.110  0.2588 -0.1515  0.1071
 9230W        W52143  13.890  25.849  14.800  0.0277 -0.1120  0.3756
 9231W        W52144   9.920  29.605  20.286 -0.2971  0.3435  0.1956
 9232W        W52145  18.114  32.456  24.333  0.2366  0.1936  0.3989
 9233W        W52146  25.376  30.745   2.456  0.2578  0.1860 -0.2550
 9234W        W52147  25.698  28.529  14.566  0.1133 -0.0701  0.0505
 9235W        W52148  28.731  20.791  17.112 -0.2816 -0.0861  0.0243
 9236W        W52149  34.036  26.879  15.801  0.0441 -0.0409 -0.0064
 9237W        W52150  25.051  15.054   0.675 -0.1041 -0.0227  0.0272
 9238W        W52151  18.215  24.204  22.565  0.0458 -0.3159 -0.0860
 9239W        W52152  24.078  30.279  14.352  0.0428  0.0624 -0.0350
 9240W        W52153  24.309  18.395  18.947 -0.0000 -0.1078 -0.2231
 9241W        W52154  21.303  23.806  27.525 -0.1279  0.0672 -0.1283
 9242W        W52155  20.944  11.740  13.199  0.0419 -0.0175  0.0308
 9243W        W52156  32.613  29.519  22.515 -0.2003 -0.0507 -0.1020
 9244W        W52157  21.085  14.193  17.300  0.1476 -0.0346  0.0422
 9245W        W52158  24.469  26.219  14.528 -0.4134  0.1076 -0.2037
 9246W        W52159  32.815  23.442  23.560 -0.2375  0.2839 -0.0784
 9247W        W52160  26.907  23.817  28.736 -0.0221  0.2610  0.1372
 9248W        W52161  19.518  26.675  18.250 -0.0767  0.3522  0.0975
 9249W        W52162  22.466  23.594  21.368 -0.0878  0.0668 -0.3916
 9250W        W52163  32.417  15.041   3.030 -0.1782 -0.1113 -0.3704
 9251W        W52164  26.501   9.407   0.074  0.0118  0.0443  0.2017
 9252W        W52165  19.263  24.989  17.636  0.2059  0.0514  0.1692
 9253W        W52166  19.088  23.376  18.244 -0.0095 -0.2023 -0.0131
 9254W        W52167  17.275  23.988   8.032 -0.4721  0.1095 -0.1656
 9255W        W52168  29.861  23.525  28.794  0.0551  0.3980  0.1424
 9256W        W52169  12.775  13.838  15.249 -0.2500 -0.2171  0.2393
 9257W        W52170  19.355  20.212  20.862  0.1991  0.3363  0.0806
 9258W        W52171  21.747  26.613  21.142  0.0377 -0.1226  0.1152
 9259W        W52172   0.374  34.029   3.199  0.1737 -0.0908 -0.1745
 9260W        W52173  24.900  31.027  19.635 -0.0517  0.3043 -0.0877
 9261W        W52174  20.511  15.115  16.216  0.1618  0.1865 -0.0226
 9262W        W52175  20.614  24.650  21.769  0.1946 -0.0304 -0.0353
 9263W        W52176  19.016  24.306  24.073 -0.2927 -0.2960  0.1131
 9264W        W52177  32.888  30.869  19.916  0.2157 -0.0538  0.1969
 9265W        W52178  26.113  32.279  15.906  0.1348  0.0152 -0.0458
 9266W        W52179  19.184  28.737   2.528 -0.1086  0.0929  0.0222
 9267W        W52180  23.622   9.753  17.527 -0.2094 -0.0922 -0.1323
 9268W        W52181  27.837  20.302  26.022  0.2461 -0.0359  0.0968
 9269W        W52182  19.258  10.193  26.076  0.2652  0.1282  0.2471
 9270W        W52183  33.526  23.042  22.461 -0.2649  0.1407 -0.0678
 9271W        W52184  24.065  24.219  14.804  0.0150 -0.0279 -0.0601
 9272W        W52185  18.359  22.097  19.588  0.4337 -0.0179  0.0465
 9273W        W52186   0.033   8.589  20.642  0.0024  0.2669 -0.1352
 9274W        W52187  28.449  25.583  24.866 -0.3526 -0.0180 -0.1756
 9275W        W52188  30.777  26.636  24.991  0.0453  0.1250 -0.1410
 9276W        W52189  27.287  13.873   1.105 -0.0132 -0.0377 -0.1049
 9277W        W52190  11.281  24.320  17.192 -0.1221  0.3628  0.0422
 9278W        W52191  26.981   0.430  15.899  0.1900  0.2333 -0.1616
 9279W        W52192  22.225  32.751   1.152 -0.1140 -0.1159  0.0409
 9280W        W52193  17.269  22.941  15.072 -0.0151 -0.2732 -0.3052
 9281W        W52194   1.014  28.791   5.944 -0.1190 -0.0220  0.1696
 9282W        W52195  24.099  23.299  24.507 -0.0893  0.0338 -0.0419
 9283W        W52196  21.042  31.563  28.222  0.4800 -0.0940 -0.0306
 9284W        W52197   0.525  14.455  24.883 -0.0873 -0.0112  0.2918
 9285W        W52198  28.949  25.218  15.986 -0.1540  0.0636 -0.1503
 9286W        W52199  27.371  28.636  18.677 -0.0536 -0.1376  0.1996
 9287W        W52200  21.278  28.523  14.198 -0.0159 -0.3689 -0.4293
 9288W        W52201  22.888  20.229   0.491  0.1842 -0.2415  0.3357
 9289W        W52202  19.876  22.601  20.868  0.2609 -0.1650 -0.3352
 9290W        W52203  17.630  29.368   4.813 -0.2291  0.0340 -0.1077
 9291W        W52204  18.947  10.356  21.349  0.2436  0.0250  0.0133
 9292W        W52205  30.431  26.068  17.640  0.0070 -0.2263 -0.0619
 9293W        W52206  17.373  22.263   0.686 -0.2153  0.2327  0.1849
 9294W        W52207  23.105  20.415  26.792 -0.2535 -0.1053 -0.1784
 9295W        W52208  22.796  15.139   4.092  0.1473  0.1734 -0.1063
 9296W        W52209  23.115  15.397  17.346 -0.0078  0.0676  0.0141
 9297W        W52210  24.630  18.834  21.107  0.2074 -0.0260  0.0846
 9298W        W52211  27.179  25.405  24.338 -0.1034  0.3250  0.2124
 9299W        W52212  19.709  25.952   2.395 -0.2142 -0.0355  0.0088
 9300W        W52213  18.921  18.390  24.681  0.0848  0.0440  0.0480
 9301W        W52214  19.888  17.052  23.927  0.1147  0.0752  0.1944
 9302W        W52215  26.164  27.680  22.104 -0.0946  0.2444 -0.1763
 9303W        W52216  15.848  20.712  25.186  0.0173 -0.0892  0.0457
 9304W        W52217  23.735  20.190  16.201 -0.2311  0.1332 -0.0675
 9305W        W52218  26.080  13.049  20.899 -0.0341 -0.0869 -0.0689
 9306W        W52219  26.095  23.988  22.253  0.0896 -0.1115 -0.0603
 9307W        W52220  26.049  18.193   3.958  0.0111  0.1046  0.0774
 9308W        W52221  19.138  13.382  11.318  0.2559  0.1238  0.0351
 9309W        W52222  20.471  24.638  24.514  0.0627  0.0023  0.0982
 9310W        W52223  28.284  28.323  23.312 -0.2164 -0.3417  0.1704
 9311W        W52224  12.645  24.264  27.150 -0.1476 -0.0363 -0.2389
 9312W        W52225  28.571  17.516  18.460 -0.0324 -0.2278 -0.3415
 9313W        W52226  34.095  28.543  28.967  0.2725 -0.2180  0.0496
 9314W        W52227  20.696  24.374  20.439 -0.2131  0.0600 -0.1294
 9315W        W52228  27.154  26.087  24.771 -0.2289 -0.0045  0.0042
 9316W        W52229  15.147  11.292  16.575 -0.0434  0.3182  0.2815
 9317W        W52230  24.783  13.104  19.440 -0.0098  0.2317  0.2194
 9318W        W52231  25.759  19.631  20.731  0.1515  0.0072 -0.1807
 9319W        W52232  24.283  20.000  23.637 -0.1706 -0.1104  0.0760
 9320W        W52233   7.170  25.785  19.487  0.0253 -0.0414 -0.1726
 9321W        W52234  24.249  28.552  26.358 -0.0249  0.0814  0.1187
 9322W        W52235  20.514  30.988  16.508 -0.1048  0.1862 -0.0531
 9323W        W52236  22.612   1.147  17.657 -0.0746  0.0938 -0.1593
 9324W        W52237  28.428  23.148  22.216 -0.3772  0.0090 -0.1149
 9325W        W52238  21.558  25.322  22.100  0.3911  0.3226 -0.2498
 9326W        W52239  15.109  31.446  27.670  0.3762  0.3385 -0.0562
 9327W        W52240  27.939  30.379  19.164 -0.1937 -0.3422  0.0468
 9328W        W52241  20.465  13.086  18.028 -0.1841 -0.0273 -0.0537
 9329W        W52242  32.440  20.537   0.957 -0.0121  0.1137  0.1469
 9330W        W52243  23.751  23.718  20.238  0.1350  0.0729  0.1679
 9331W        W52244  10.123  20.203  19.856  0.2076 -0.1454  0.0420
 9332W        W52245  14.121  27.656  24.447  0.2450  0.4686 -0.0855
 9333W        W52246  22.894  24.307  13.873 -0.0658  0.0309 -0.0151
 9334W        W52247  17.618   7.989   3.210  0.0506 -0.0335 -0.3123
 9335W        W52248  32.109  24.749   0.909  0.1856 -0.3401  0.2407
 9336W        W52249  28.605  28.531  15.740  0.0488  0.4261 -0.2197
 9337W        W52250  22.691  28.008  14.397 -0.2341 -0.1731  0.2440
 9338W        W52251  30.611  17.746  24.514 -0.0221  0.1683  0.1925
 9339W        W52252  15.752  21.828  13.193 -0.0977 -0.2403  0.0647
 9340W        W52253  26.153  29.044  15.193 -0.2846 -0.1057  0.0120
 9341W        W52254  19.557  27.040  25.410 -0.0839  0.1914 -0.2009
 9342W        W52255  19.918   9.304   1.631  0.0701 -0.3374 -0.2742
 9343W        W52256   9.821  24.486  16.165 -0.3690 -0.1140  0.2797
 9344W        W52257  32.403  12.686  17.139 -0.1849 -0.1709 -0.0675
 9345W        W52258  22.156  27.083  21.874  0.0528  0.0774  0.2504
 9346W        W52259   0.769  23.008   4.859 -0.1672  0.2435 -0.0557
 9347W        W52260  28.178  18.366  29.268  0.1893  0.1586 -0.0307
 9348W        W52261  18.811  26.294  16.118 -0.1536  0.4043 -0.1259
 9349W        W52262  27.478  23.407  25.096 -0.1450 -0.0038 -0.1495
 9350W        W52263   8.898  16.729  16.098 -0.0127  0.1215  0.0966
 9351W        W52264  24.922  25.101  15.324  0.3157  0.3558  0.3160
 9352W        W52265  25.570  24.869  20.429 -0.1877  0.2691  0.2853
 9353W        W52266   1.259  29.329  14.475 -0.1593 -0.0042  0.2802
 9354W        W52267  25.094  30.483  23.602 -0.0414 -0.0918  0.1339
 9355W        W52268  18.948  27.943   2.204  0.0414 -0.0515 -0.1824
 9356W        W52269  21.778  28.988  21.358  0.2157  0.5166 -0.3234
 9357W        W52270  22.477  28.867   6.400  0.3543 -0.1083  0.0345
 9358W        W52271  27.380  20.771  25.679  0.2524 -0.2860 -0.4566
 9359W        W52272  24.094  15.832  18.283  0.2811 -0.3177  0.2159
 9360W        W52273  19.661  20.825  15.761  0.0117  0.1966  0.2276
 9361W        W52274  23.983  28.264  13.087  0.3242 -0.2760  0.1879
 9362W        W52275  28.362  31.754  18.157  0.0750 -0.1901 -0.1478
 9363W        W52276  27.387  12.140  21.663  0.1987 -0.2010 -0.2023
 9364W        W52277  10.004  24.750  28.344 -0.0022  0.5396  0.0984
 9365W        W52278  29.457  23.422   1.969 -0.2400 -0.1523 -0.0307
 9366W        W52279  26.408  25.667  15.643  0.0868 -0.0931  0.3286
 9367W        W52280  10.162  33.768   0.913  0.1621 -0.2386 -0.1655
 9368W        W52281  25.475   2.628  16.352  0.0906 -0.3015 -0.0388
 9369W        W52282  28.004  29.464  19.130  0.3835 -0.0173  0.0989
 9370W        W52283  28.085  23.984  22.183  0.0625  0.3160 -0.1562
 9371W        W52284  21.019  18.014  24.163  0.0460 -0.2580 -0.0131
 9372W        W52285   6.722  32.107  16.088  0.0538 -0.0397 -0.0606
 9373W        W52286  22.693  21.364  26.835 -0.2705  0.1145 -0.2442
 9374W        W52287  28.775  24.713  21.269 -0.1469 -0.2249  0.0577
 9375W        W52288  31.427  21.940  27.762  0.3185 -0.2038 -0.0620
 9376W        W52289  23.769  25.444  24.852  0.1539 -0.0523  0.0532
 9377W        W52290  24.465  12.670  18.429 -0.2296  0.1988  0.0046
 9378W        W52291  19.557  31.582  24.435 -0.2945  0.3886 -0.1211
 9379W        W52292  27.042   3.941   0.833  0.4258  0.1796 -0.1742
 9380W        W52293  16.614  22.430  24.562  0.2275 -0.0555  0.2150
 9381W        W52294  21.875  30.089  15.889  0.1616  0.0695 -0.2338
 9382W        W52295  21.433  18.500   2.153 -0.0182 -0.1260  0.2847
 9383W        W52296  18.374  18.424  11.651  0.2880 -0.0301 -0.0459
 9384W        W52297   0.608  18.305  21.331  0.1923 -0.0066  0.0807
 9385W        W52298   1.922  26.807  18.826  0.1544  0.2844 -0.4860
 9386W        W52299  34.076   0.744   1.596 -0.0929  0.0584 -0.0532
 9387W        W52300  23.267  32.546  25.351 -0.2871 -0.2523 -0.0078
 9388W        W52301  20.325  25.177  20.018  0.3267  0.0408  0.2566
 9389W        W52302   7.663  16.792  22.084  0.0440  0.2290  0.1330
 9390W        W52303  33.159  17.991   5.888  0.0083 -0.0172 -0.3518
 9391W        W52304  28.497   3.307  15.185  0.1799 -0.1771 -0.1029
 9392W        W52305  23.224  27.119  22.684  0.0852 -0.1064 -0.0312
 9393W        W52306  20.618  13.212  20.800 -0.0619  0.0248 -0.3500
 9394W        W52307  19.378   7.195  18.415 -0.2085  0.1356  0.0232
 9395W        W52308  30.856  19.991  28.193  0.2112  0.0765  0.1362
 9396W        W52309  21.987   1.599  20.969  0.2836 -0.2538 -0.0972
 9397W        W52310  29.919  27.048   0.419  0.0172 -0.0226  0.2276
 9398W        W52311  24.021  26.763  28.303  0.5660 -0.1680 -0.1780
 9399W        W52312  34.062  20.145  22.130  0.1538 -0.1598  0.0754
 9400W        W52313  21.398  15.772  25.800 -0.0170 -0.2714  0.2399
 9401W        W52314  21.264   4.679  20.228 -0.0576  0.0084  0.1637
 9402W        W52315  22.676  26.742  21.118  0.0043  0.2682 -0.1235
 9403W        W52316  17.505  27.552  23.078 -0.0411  0.3631  0.2011
 9404W        W52317  32.796  24.067  28.862  0.2312 -0.0842  0.5507
 9405W        W52318  30.963  20.025  16.935  0.0062 -0.0639  0.2591
 9406W        W52319  23.621  24.464  17.062 -0.0753  0.1919 -0.0808
 9407W        W52320   9.824  28.024  24.050  0.2679  0.0176 -0.1190
 9408W        W52321  13.179  17.778  21.310 -0.1851 -0.0948 -0.2603
 9409W        W52322  23.422  26.822  18.912  0.0873 -0.1583 -0.1631
 9410W        W52323  26.117  19.462  17.240 -0.1658  0.3939 -0.0516
 9411W        W52324  12.043   2.597  28.169 -0.2702  0.3960 -0.1635
 9412W        W52325  29.980  19.057  17.311 -0.0558 -0.0809  0.1740
 9413W        W52326  33.956  29.758  18.989 -0.2352 -0.0216 -0.0418
 9414W        W52327  17.285   2.912   8.110 -0.0244 -0.3806 -0.1317
 9415W        W52328  20.071  20.206  18.194 -0.2498 -0.3532  0.0402
 9416W        W52329  12.615  27.728  24.492  0.0828  0.1461 -0.2286
 9417W        W52330  21.121  19.522  25.900  0.0294 -0.0246 -0.0285
 9418W        W52331   5.876  29.715  25.106  0.0674  0.1377 -0.1128
 9419W        W52332  21.071  21.086  21.069 -0.2264 -0.2198  0.5771
 9420W        W52333  26.741  17.212  18.430  0.0667  0.0571 -0.0833
 9421W        W52334  31.641  29.404  28.763 -0.1667 -0.2522  0.1046
 9422W        W52335  21.280  16.168  24.651 -0.1820  0.2856 -0.0201
 9423W        W52336  18.262  11.460  17.653 -0.4774 -0.1683  0.2650
 9424W        W52337  20.535  27.321  25.905  0.1971 -0.1232  0.2103
 9425W        W52338  15.629  22.857  22.421  0.2194  0.2937 -0.3229
 9426W        W52339  20.809  22.959  18.353  0.2096  0.2050  0.1126
 9427W        W52340  31.439  17.148  25.475 -0.0111  0.0886  0.0572
 9428W        W52341  28.383  17.433  22.390  0.0666  0.3030 -0.2372
 9429W        W52342   0.320  18.987  13.298 -0.3644 -0.1298 -0.3923
 9430W        W52343  17.235  30.058  25.001 -0.1022  0.3317  0.1802
 9431W        W52344  12.618  21.004  20.219 -0.0330 -0.3638  0.2150
 9432W        W52345  30.951  19.026  24.130  0.0861 -0.2122 -0.0763
 9433W        W52346  23.348  14.738  19.121 -0.0722 -0.1211  0.2055
 9434W        W52347  31.230  24.368  19.493 -0.2388 -0.0923 -0.3882
 9435W        W52348  33.369  21.262  16.365  0.0581 -0.1790  0.0082
 9436W        W52349  24.238  22.829  19.044 -0.0191  0.0700 -0.1992
 9437W        W52350  12.122   2.001  19.648  0.4024  0.1698  0.2076
 9438W        W52351  15.475  28.649  19.472  0.2653  0.1115 -0.0396
 9439W        W52352  15.859  21.991  15.768  0.1739 -0.0701  0.3255
 9440W        W52353  19.216  20.957  28.779 -0.0608  0.1497  0.3256
 9441W        W52354  19.645  20.147  24.897 -0.1305 -0.1067 -0.0870
 9442W        W52355   2.249  27.368   4.135 -0.1386  0.3149  0.1678
 9443W        W52356  18.618  22.465  26.051  0.2172  0.0767 -0.0889
 9444W        W52357  29.744  33.316  14.496 -0.2497 -0.0505  0.4219
 9445W        W52358  24.982  15.861  17.046  0.2642  0.2626 -0.3779
 9446W        W52359  19.921  16.436  15.882  0.0647  0.0785  0.1294
 9447W        W52360   8.112  18.578  19.095  0.0632  0.2225  0.1927
 9448W        W52361  29.094  22.959  19.222  0.0290 -0.0525 -0.1370
 9449W        W52362  31.583  23.341  18.534 -0.0247 -0.1416 -0.1709
 9450W        W52363  19.642  29.606  19.320 -0.0683 -0.0792 -0.0974
 9451W        W52364  31.621  11.790  19.832 -0.0211 -0.2433  0.0096
 9452W        W52365  27.338  30.118  15.680  0.0262 -0.0942  0.2013
 9453W        W52366  29.201  10.049  16.332  0.0822  0.0806  0.1591
 9454W        W52367  28.479  20.315  19.587  0.0229  0.0906 -0.2385
 9455W        W52368   0.820  28.427  18.217  0.1596  0.0758 -0.0543
 9456W        W52369  31.077  17.010  18.701  0.0203 -0.0769  0.1934
 9457W        W52370   8.397  25.870  24.518 -0.2526  0.1636 -0.0284
 9458W        W52371  19.269  19.034  28.745 -0.0921 -0.2960  0.0201
 9459W        W52372  23.477   1.926  15.179 -0.0671  0.2140 -0.1620
 9460W        W52373  25.582  25.050  25.778  0.0960 -0.0673  0.0916
 9461W        W52374  29.908  19.945  19.024  0.0351 -0.0351 -0.2339
 9462W        W52375  23.468  12.891  13.374  0.0344 -0.1614  0.1214
 9463W        W52376  22.173  24.705  25.195 -0.2997  0.1945 -0.0619
 9464W        W52377  25.689  18.012  28.191 -0.1210 -0.2594 -0.0436
 9465W        W52378  21.884  31.892  17.301 -0.0127 -0.0734  0.3560
 9466W        W52379  27.273  12.299  13.976  0.0190 -0.0489  0.1736
 9467W        W52380  16.392  23.517   2.019 -0.2391 -0.3155 -0.0306
 9468W        W52381  25.783  11.949  24.122 -0.1093 -0.0267  0.0316
 9469W        W52382  26.151  13.911  28.324 -0.0654 -0.0560  0.1097
 9470W        W52383  21.606  23.969  22.299 -0.2085  0.0271  0.0907
 9471W        W52384  25.205  27.903  21.596  0.1819 -0.2302 -0.0280
 9472W        W52385  19.637  25.809  29.489  0.0743 -0.2091 -0.1916
 9473W        W52386  13.547  20.223  26.068  0.0309 -0.1494 -0.1572
 9474W        W52387  19.145  20.895  18.288 -0.0304 -0.0658 -0.1163
 9475W        W52388  25.833  27.304  19.064  0.0982  0.1463  0.0181
 9476W        W52389  23.298  27.699  24.315 -0.0943  0.1010 -0.6311
 9477W        W52390  24.600  24.722  23.521 -0.3762  0.1461  0.2330
 9478W        W52391  20.383  26.413   4.628 -0.0580 -0.1071 -0.1324
 9479W        W52392   0.937  19.362  15.244  0.1235 -0.1929  0.0894
 9480W        W52393  31.698   1.615  26.764 -0.0108 -0.2088 -0.1576
 9481W        W52394  28.379  23.257  26.568 -0.1694 -0.1697  0.0794
 9482W        W52395  22.254   4.328  25.785  0.2741 -0.0393  0.0216
 9483W        W52396  27.082   9.661  22.417  0.1414 -0.2199  0.4215
 9484W        W52397  21.367  32.237  14.416  0.3004  0.0399  0.1566
 9485W        W52398  18.661  31.023  28.153 -0.0118 -0.0087  0.3336
 9486W        W52399  30.200  10.650  26.776  0.1512 -0.1420  0.1146
 9487W        W52400   2.010  17.933   0.729 -0.0011 -0.0720 -0.0173
 9488W        W52401  20.915  23.840  20.310  0.2002 -0.0949 -0.3194
 9489W        W52402  22.435  28.767  14.708 -0.1260 -0.4199  0.0028
 9490W        W52403   2.280  26.586  22.225 -0.0012 -0.1933  0.3587
 9491W        W52404  29.026  20.224  21.911  0.2349 -0.0226 -0.2955
 9492W        W52405  19.376  17.683   2.420  0.0003  0.1072 -0.1364
 9493W        W52406  25.950  20.157  14.738  0.1571 -0.2805 -0.0441
 9494W        W52407   1.692  29.571  20.459 -0.2517 -0.1415  0.0790
 9495W        W52408  23.729  29.469  24.495 -0.1246  0.3215  0.3296
 9496W        W52409   6.410  17.220  23.993  0.3170  0.1032  0.0485
 9497W        W52410  20.970  31.151  27.446 -0.0529  0.2136  0.0409
 9498W        W52411  22.961  29.003  25.364  0.1011  0.0794  0.0910
 9499W        W52412   9.784  23.091  21.525 -0.0287  0.1275 -0.0330
 9500W        W52413  30.087  26.712  29.334  0.1179 -0.1319  0.1332
 9501W        W52414  22.083  30.627  14.428  0.3125  0.0868  0.1271
 9502W        W52415  22.670  31.829  12.918 -0.1707 -0.0191 -0.2322
 9503W        W52416  25.808  23.961  15.974  0.0057  0.2233 -0.3110
 9504W        W52417  24.166  22.736  16.752 -0.0704  0.0257  0.5208
 9505W        W52418  22.406  24.901  28.405  0.1901  0.4335  0.1198
 9506W        W52419  28.022  21.897  17.560 -0.1109  0.0825  0.1118
 9507W        W52420  31.235  30.726  14.909 -0.1517  0.0402  0.0550
 9508W        W52421  23.666  27.662  24.678  0.0569 -0.0929 -0.1075
 9509W        W52422  18.836  26.563   0.320 -0.1677 -0.0643  0.3642
 9510W        W52423  24.927  25.534  18.916 -0.0278  0.1004  0.2363
 9511W        W52424  21.528  26.018   4.188 -0.1002 -0.0060 -0.3536
 9512W        W52425  18.956  27.756  26.447 -0.1721  0.1842 -0.0191
 9513W        W52426  14.343  26.614  26.017 -0.1294  0.1381  0.0118
 9514W        W52427  23.728  19.400  17.482 -0.0321 -0.1211 -0.0869
 9515W        W52428  21.148  21.960  24.228  0.1524 -0.0028 -0.1415
 9516W        W52429  20.877  23.493  23.381  0.2213 -0.3062  0.1039
 9517W        W52430  29.808  21.837  23.818  0.1927  0.2173  0.1936
 9518W        W52431  15.711  12.182  15.148  0.2613 -0.1269  0.1391
 9519W        W52432  24.002  19.953  24.941 -0.1632  0.1270  0.3213
 9520W        W52433  28.851  21.787  19.926  0.0280  0.0913  0.0411
 9521W        W52434  20.913  24.960  13.541  0.2183  0.0812 -0.3996
 9522W        W52435   1.708  23.062  14.193  0.0662 -0.2501 -0.0523
 9523W        W52436  18.657  16.174  13.433  0.0651 -0.0548  0.1435
 9524W        W52437  21.240  20.325  23.178 -0.0315 -0.1155 -0.1840
 9525W        W52438  31.798  20.307  17.185 -0.1987 -0.1558 -0.2603
 9526W        W52439   0.659  25.525  20.760  0.0600  0.0650  0.0593
 9527W        W52440  21.725  21.272  17.626  0.0996  0.0213  0.1430
 9528W        W52441  29.787  25.136   3.510  0.0218  0.0801  0.0964
 9529W        W52442  20.542  27.161  17.361  0.1086 -0.1962  0.1829
 9530W        W52443  19.238  19.446  12.914  0.2069  0.1561  0.2239
 9531W        W52444  32.933  24.282  28.471  0.0798 -0.5331 -0.0214
 9532W        W52445  27.022  30.672  20.841 -0.2740  0.1459 -0.0366
 9533W        W52446  27.298  19.570  18.967  0.1458  0.0903  0.0184
 9534W        W52447  19.326  28.625  22.705 -0.0842 -0.2250  0.0953
 9535W        W52448  22.432  17.466  17.675 -0.0471  0.1415  0.0159
 9536W        W52449  20.820  18.602  29.634  0.2714  0.3155  0.2046
 9537W        W52450  22.156  21.825  28.878  0.2931  0.3698 -0.4849
 9538W        W52451  23.453  32.320  18.119 -0.1242 -0.2272 -0.1009
 9539W        W52452   4.528  21.451  14.139  0.1773  0.2946  0.0403
 9540W        W52453  29.478  18.050  26.574 -0.0512 -0.0919 -0.0567
 9541W        W52454  13.893  24.484  27.482  0.3990  0.0122 -0.3796
 9542W        W52455  10.362  24.861   1.044 -0.0005  0.3647  0.1922
 9543W        W52456  11.454  25.405  16.417 -0.0181 -0.1770 -0.1496
 9544W        W52457  24.159  28.119   8.059 -0.0943  0.0335 -0.0678
 9545W        W52458  30.960  19.712  21.572 -0.0626 -0.0300  0.1334
 9546W        W52459  23.487  26.674  22.786 -0.0755 -0.2076 -0.0776
 9547W        W52460  27.385  26.273  19.450 -0.2366  0.1783  0.1095
 9548W        W52461  12.413  32.915  20.737  0.1122 -0.0859 -0.5201
 9549W        W52462  28.528  25.396  15.126  0.3866 -0.0230 -0.2246
 9550W        W52463  20.912  14.940   0.991 -0.0031  0.2191  0.0679
 9551W        W52464  26.147  22.116  28.395  0.0007  0.0674  0.2150
 9552W        W52465  19.680  23.447  24.393 -0.1378  0.2104 -0.1337
 9553W        W52466  24.429  21.236  22.887 -0.2678 -0.0189  0.0439
 9554W        W52467  15.583  25.221  26.961  0.0874 -0.0762 -0.1061
 9555W        W52468  24.950  20.089  25.381 -0.4617  0.0740  0.0130
 9556W        W52469  25.048  19.908  21.806 -0.1082 -0.0484 -0.0208
 9557W        W52470  30.021  28.931  15.203 -0.1830  0.1451  0.2787
 9558W        W52471  27.360  27.787  29.564  0.1218  0.1881 -0.0444
 9559W        W52472  20.930  26.920  26.800  0.0835  0.2210  0.2006
 9560W        W52473  16.644  25.124  23.156 -0.0505  0.1138 -0.1296
 9561W        W52474   6.867  21.716  14.246  0.3129  0.1026 -0.3122
 9562W        W52475  25.299  33.288  15.959 -0.1173  0.0957 -0.1402
 9563W        W52476  20.982  18.980  20.152 -0.2650  0.0953 -0.1143
 9564W        W52477  18.314  22.202  17.303  0.2518  0.1689 -0.0328
 9565W        W52478  25.013  21.486  17.074  0.0433 -0.5485 -0.0874
 9566W        W52479  12.708  19.168  14.810 -0.0062  0.0509  0.0240
 9567W        W52480  19.001  27.489  22.527 -0.1135 -0.0469  0.2886
 9568W        W52481  27.423  24.863  25.270  0.3853  0.0836 -0.0456
 9569W        W52482  24.357  29.406  26.493  0.1538 -0.0451  0.1607
 9570W        W52483  21.510  26.177  20.344  0.0518  0.2830  0.0713
 9571W        W52484  20.195  29.099  19.889  0.0994  0.0916 -0.2814
 9572W        W52485  24.930  13.980  23.792 -0.2644  0.1378  0.0376
 9573W        W52486   0.843  20.519  23.085  0.1032 -0.1028 -0.0916
 9574W        W52487  23.398  24.298  23.871  0.0749 -0.2977 -0.0043
 9575W        W52488  19.186  16.830  23.644  0.1031 -0.1339  0.1492
 9576W        W52489  26.990  18.503  21.467 -0.0727  0.3570  0.2542
 9577W        W52490  24.952  22.069  28.795  0.0986  0.1506 -0.1852
 9578W        W52491  25.152   9.588  27.608 -0.0688 -0.2036  0.1534
 9579W        W52492  23.080  16.448  24.106 -0.0609 -0.0471  0.0100
 9580W        W52493  28.175  23.336  14.674 -0.1286  0.0929 -0.0182
 9581W        W52494  22.559   6.374  13.382 -0.1938 -0.1810  0.0644
 9582W        W52495  22.757   3.057   4.669 -0.1467  0.0432 -0.0123
 9583W        W52496  23.043  29.901  14.447 -0.2809  0.2271 -0.2533
 9584W        W52497   1.367  18.502  20.214 -0.0751 -0.0500 -0.0813
 9585W        W52498  14.805  19.536  22.468  0.0791 -0.1261  0.0469
 9586W        W52499  27.130  22.186  15.026  0.0098  0.1380 -0.2239
 9587W        W52500  14.226  30.481  27.585 -0.0258 -0.2056 -0.4557
 9588W        W52501  19.213  25.874  23.233 -0.0578 -0.3185  0.0981
 9589W        W52502  32.181  15.249  23.873  0.0594 -0.1495 -0.1698
 9590W        W52503  22.261  27.611  21.088  0.1508 -0.0442 -0.0764
 9591W        W52504  27.186  18.127  13.508 -0.0299  0.0367  0.1153
 9592W        W52505  18.237  29.439  16.549  0.1865 -0.2744  0.0411
 9593W        W52506  20.513  20.120  16.925  0.0413  0.1428  0.0586
 9594W        W52507  24.193  29.039  21.825 -0.0108 -0.0855 -0.1757
 9595W        W52508  29.284  15.432  16.718  0.0620  0.1292  0.0669
 9596W        W52509  23.451  18.059   2.847 -0.0504  0.1609 -0.1461
 9597W        W52510  22.300  16.001  18.133 -0.3376  0.1099 -0.0032
 9598W        W52511  32.662  24.080   3.979  0.1257 -0.1236  0.0074
 9599W        W52512   0.073  20.688  28.384  0.3334  0.0141 -0.1461
 9600W        W52513  18.675  23.974   2.232 -0.0024  0.0822 -0.1353
 9601W        W52514  33.974  19.199  21.884  0.1597  0.0731  0.1266
 9602W        W52515  21.827  22.162  18.039 -0.2529  0.1712  0.1131
 9603W        W52516  19.708  20.329  26.139  0.3849 -0.3083 -0.4142
 9604W        W52517  23.773  24.071   2.477 -0.1459 -0.3000  0.3097
 9605W        W52518  20.085  33.928  27.618  0.0214  0.3027 -0.4536
 9606W        W52519  27.042  28.614  18.289 -0.2079 -0.1458 -0.3253
 9607W        W52520  24.803  24.230  23.316 -0.0739  0.2788 -0.0341
 9608W        W52521  18.191  28.199  17.541 -0.1530  0.0191 -0.1933
 9609W        W52522  26.847  28.700  19.268 -0.0756  0.2361  0.2118
 9610W        W52523  29.645  32.578  25.342  0.1379  0.0331  0.2064
 9611W        W52524  32.183  25.269   4.030 -0.0488 -0.0955  0.0461
 9612W        W52525  27.739  25.915  27.052  0.1359 -0.3350  0.1190
 9613W        W52526  29.213  27.149  26.641  0.0772  0.0172  0.0071
 9614W        W52527  29.607  20.937  16.763  0.0910  0.1422  0.1472
 9615W        W52528  24.597  12.466  17.579 -0.0072 -0.2663  0.0263
 9616W        W52529  26.793  31.527   4.197 -0.1050  0.1609 -0.1782
 9617W        W52530  14.697  25.731   4.060 -0.0751  0.1737 -0.0252
 9618W        W52531  22.321  22.009  23.987 -0.0848  0.0674 -0.0289
 9619W        W52532   9.931   3.790  23.352 -0.3219 -0.2080  0.1202
 9620W        W52533  21.096  31.065  22.213  0.4040  0.1313 -0.3892
 9621W        W52534  21.442  21.697  23.861  0.0650 -0.1156 -0.0662
 9622W        W52535  17.546  32.816   4.010  0.0968  0.1869  0.2903
 9623W        W52536  16.665  24.040  14.679 -0.0729 -0.3341  0.1756
 9624W        W52537  11.228  25.642  17.734 -0.1139 -0.0277 -0.1670
 9625W        W52538   2.396  23.597  25.254 -0.3501  0.4415 -0.2530
 9626W        W52539  28.357  33.246  22.218 -0.2870  0.0470 -0.0847
 9627W        W52540  17.147  23.375  16.350 -0.0462  0.5110  0.3030
 9628W        W52541  22.525  19.611  24.841 -0.2472 -0.1300 -0.3006
 9629W        W52542  25.804  28.422  21.782  0.0560 -0.2509 -0.0454
 9630W        W52543  10.631  27.395  15.661  0.0604 -0.1880  0.1148
 9631W        W52544  27.189  28.459  28.809 -0.2861  0.1562  0.0658
 9632W        W52545  15.060  16.870  26.616 -0.4156 -0.0223  0.1125
 9633W        W52546   6.501  21.417  15.076 -0.1088  0.0135  0.1690
 9634W        W52547  17.763   1.850  24.525  0.0672 -0.1272 -0.1089
 9635W        W52548  23.740  26.514  20.998  0.1480 -0.2248  0.1150
 9636W        W52549  29.798  24.228  22.550  0.2979  0.2820  0.2140
 9637W        W52550  19.478   0.457  28.293  0.1392  0.3817  0.0957
 9638W        W52551  17.692  22.922  23.764 -0.1050 -0.1385 -0.1058
 9639W        W52552  18.420  26.559  29.746 -0.2838 -0.2143  0.2045
 9640W        W52553  19.269  18.618  15.083  0.2870 -0.1396 -0.0996
 9641W        W52554  32.991  30.044  24.023  0.1397 -0.3041  0.1747
 9642W        W52555  20.646  33.122  25.648 -0.2406  0.0273  0.0602
 9643W        W52556  25.898  12.158   4.627  0.1816  0.0641 -0.0832
 9644W        W52557  28.447   8.813  19.757  0.0166  0.2192  0.3460
 9645W        W52558  25.513  21.761  16.805 -0.0883  0.0023  0.0603
 9646W        W52559  23.601  23.184  17.129 -0.0869  0.0939 -0.3757
 9647W        W52560  23.680  23.859  19.548 -0.0516  0.0989  0.0076
 9648W        W52561  26.935  14.525  24.912  0.2142 -0.0100  0.0977
 9649W        W52562  26.195  28.338  26.039 -0.2688  0.0481 -0.3208
 9650W        W52563  16.732  24.057  20.520  0.2049  0.0541  0.2779
 9651W        W52564  21.312  19.802   0.050 -0.0211 -0.4300 -0.3216
 9652W        W52565  28.303  22.092   1.101 -0.0490  0.1767 -0.0972
 9653W        W52566  16.842  30.416  29.349 -0.1422  0.2470 -0.4022
 9654W        W52567  21.725  14.793  27.670  0.1571  0.3878 -0.1276
 9655W        W52568  22.762  21.114  18.718  0.0956 -0.0910  0.1076
 9656W        W52569  25.879   3.011   7.917 -0.0648 -0.0780  0.2373
 9657W        W52570  22.481  25.510  22.403 -0.0181  0.0880  0.2686
 9658W        W52571  20.946  22.762  21.436 -0.1699 -0.0394 -0.0630
 9659W        W52572   0.339  28.376   3.638 -0.0245  0.0579 -0.1613
 9660W        W52573  25.171  31.866  21.900 -0.1705 -0.1522  0.0929
 9661W        W52574  21.818  29.512  17.685 -0.1235  0.2497  0.0073
 9662W        W52575  21.829  27.301   0.259  0.0631 -0.1122 -0.2098
 9663W        W52576  21.471  16.498  20.427  0.0315  0.0955  0.0276
 9664W        W52577  21.334  18.339  24.940 -0.0377 -0.0279 -0.1846
 9665W        W52578  18.873  21.454  19.668 -0.1475  0.0103  0.2448
 9666W        W52579  20.140  24.964   2.771  0.0290 -0.3108  0.1371
 9667W        W52580   7.984  15.286  26.418 -0.0497 -0.1149 -0.1193
 9668W        W52581  27.928  23.376  28.885  0.1714 -0.0386 -0.0763
 9669W        W52582  14.448  32.339   7.829  0.0227  0.2850  0.1959
 9670W        W52583  20.485  27.352  27.944 -0.1068 -0.0592  0.1485
 9671W        W52584  23.951  32.369   3.180 -0.2237 -0.0138  0.0838
 9672W        W52585  29.962  22.181   8.482  0.1919 -0.2296  0.0728
 9673W        W52586  19.569  21.827  18.427  0.0439 -0.2136  0.3082
 9674W        W52587  28.441  15.373  28.385  0.0729  0.3438 -0.1963
 9675W        W52588  29.257  22.022   7.950  0.0449 -0.0314 -0.1671
 9676W        W52589  24.053  12.819   4.423 -0.0603  0.0444 -0.1104
 9677W        W52590  22.709  22.260  13.379  0.2027  0.4048 -0.2144
 9678W        W52591  17.359  20.985   3.115 -0.1713 -0.2167  0.2767
 9679W        W52592  11.574  30.675   2.373 -0.0262 -0.1487 -0.1870
 9680W        W52593  15.475  30.167   1.416 -0.0288  0.0164 -0.5141
 9681W        W52594  17.225  21.544  15.531  0.0463 -0.0918 -0.1307
 9682W        W52595  22.509  29.864   1.006  0.0756  0.1865 -0.5582
 9683W        W52596  20.941  28.810  24.449  0.1383 -0.3550  0.1135
 9684W        W52597  27.277  25.040  17.302  0.1085  0.0873 -0.0603
 9685W        W52598  26.108  33.531  16.641 -0.2101  0.2021  0.4649
 9686W        W52599  30.378   0.180   2.262  0.1658 -0.1188  0.1233
 9687W        W52600  29.319  22.750  28.611  0.1141 -0.0163  0.1243
 9688W        W52601  30.468   1.753  18.206  0.4338  0.1011  0.0119
 9689W        W52602  26.027  25.064  17.735  0.2815  0.0791 -0.1931
 9690W        W52603  20.467  20.393  17.976  0.1680 -0.0585  0.0352
 9691W        W52604  23.023  19.468   1.338 -0.2623 -0.1903 -0.5029
 9692W        W52605  18.469  23.044   0.354 -0.2254  0.2516 -0.3029
 9693W        W52606  21.949  18.186  17.452 -0.0563  0.1430  0.2248
 9694W        W52607  22.233  31.106  19.016  0.0571  0.0972 -0.2682
 9695W        W52608  20.661  28.704  25.662 -0.0738 -0.0487 -0.1255
 9696W        W52609  21.388  15.634   0.125  0.1120  0.2891  0.3917
 9697W        W52610  19.694  26.010  25.115 -0.2600 -0.0294 -0.4747
 9698W        W52611  24.795  24.516  28.499  0.1272 -0.1856  0.2094
 9699W        W52612  21.906   3.502  19.605  0.1493 -0.2875 -0.1355
 9700W        W52613   0.479  18.994  21.219 -0.0934  0.1688 -0.0544
 9701W        W52614   1.756  28.336   9.594  0.1001  0.4375  0.0440
 9702W        W52615  11.024  26.176  24.842  0.0069 -0.1552  0.2245
 9703W        W52616  20.344  25.740  28.420  0.1333 -0.1106  0.2955
 9704W        W52617  27.112  23.947   1.253 -0.4420  0.2577  0.2138
 9705W        W52618  16.720  22.819  15.685 -0.0139  0.4321 -0.0118
 9706W        W52619  27.903  27.984  24.374  0.4037 -0.0244 -0.0806
 9707W        W52620   3.968  15.633  29.206  0.3761 -0.0411  0.0416
 9708W        W52621  22.575  20.500  27.461 -0.2103 -0.0022  0.2958
 9709W        W52622  22.026  17.077  19.906  0.0463  0.2321 -0.0564
 9710W        W52623  16.517  25.743  21.132  0.2070  0.1856  0.0828
 9711W        W52624  25.219  23.390  25.243 -0.2957  0.2584  0.2875
 9712W        W52625  19.877  22.309  28.609 -0.0560 -0.1777  0.1115
 9713W        W52626  30.163   1.468   4.796 -0.3306  0.0255 -0.2748
 9714W        W52627  19.292  26.698  27.149 -0.2179  0.1727  0.1364
 9715W        W52628  20.255  21.368  28.663 -0.2077  0.0737 -0.2200
 9716W        W52629   1.128  20.218   5.394  0.0272 -0.3306 -0.0277
 9717W        W52630  23.864  20.156  18.620 -0.2586  0.2006  0.1194
 9718W        W52631  20.196  17.836  21.292 -0.2139  0.0328  0.2394
 9719W        W52632  15.131  22.137  19.543  0.3206  0.0441  0.0423
 9720W        W52633  24.319  13.078  22.822 -0.1569 -0.0429 -0.0936
 9721W        W52634  23.004  28.365  24.278  0.0700 -0.2387  0.2525
 9722W        W52635  10.867  18.224  25.833  0.1029  0.0363  0.0583
 9723W        W52636  23.219  22.367  29.182  0.2209  0.6280  0.1049
 9724W        W52637   7.650  24.785  26.237 -0.0096 -0.0204  0.0565
 9725W        W52638  24.232   2.689   2.695  0.1634  0.0649  0.0034
 9726W        W52639  31.728  25.866  28.213  0.2256  0.1543 -0.1038
 9727W        W52640  31.700  17.920  24.477 -0.0515  0.0149  0.3404
 9728W        W52641  20.856   0.919  26.210 -0.1271  0.0085  0.2978
 9729W        W52642  30.404   0.238   4.758  0.1796 -0.0979  0.0002
 9730W        W52643  19.603  19.857   5.887 -0.0634 -0.2380 -0.1204
 9731W        W52644  15.245  23.982   1.623 -0.4516  0.1740  0.0063
 9732W        W52645  19.511  32.347  25.579  0.2130  0.5566  0.0940
 9733W        W52646  34.490  15.745  14.190  0.0538  0.1045 -0.3606
 9734W        W52647  14.710  22.347  25.347 -0.2579 -0.1648 -0.1530
 9735W        W52648  33.218  21.837  29.742 -0.0723  0.0041 -0.1160
 9736W        W52649  15.088  22.364  23.760 -0.0857  0.2819 -0.2500
 9737W        W52650   3.290  28.582  26.989  0.3816  0.0225 -0.0575
 9738W        W52651  19.026  19.837  15.575  0.0888 -0.4422 -0.0751
 9739W        W52652  24.039  30.377   2.648  0.1518 -0.1288  0.0584
 9740W        W52653  18.065  21.306  24.070  0.3190  0.2249  0.0933
 9741W        W52654  25.272  23.239  22.349 -0.2775 -0.0455 -0.1160
 9742W        W52655  22.670  16.623  27.759  0.0271  0.0132  0.0632
 9743W        W52656  19.704  16.972  14.079  0.2443 -0.2228  0.0138
 9744W        W52657  22.649  18.730  23.547  0.3378  0.3837  0.0277
 9745W        W52658   8.815  27.834   8.506 -0.0237  0.0797 -0.2030
 9746W        W52659  29.556  24.590  25.782 -0.0132  0.0780 -0.1134
 9747W        W52660  22.914  23.423  21.166  0.2183 -0.1820 -0.1952
 9748W        W52661  24.014  27.776  12.999 -0.4071 -0.1047 -0.1207
 9749W        W52662  23.079  19.005   1.537  0.2132  0.0388  0.0363
 9750W        W52663  11.579   9.986  26.484 -0.0400  0.0621 -0.2873
 9751W        W52664   3.370  23.365   4.821  0.2701  0.2316 -0.0624
 9752W        W52665  23.531   8.641  25.528  0.0068 -0.0560 -0.0077
 9753W        W52666  22.827  20.824   1.337  0.2176 -0.0676  0.0881
 9754W        W52667   6.163  15.207  28.587  0.0566  0.0247 -0.3006
 9755W        W52668  24.098   1.285  21.113 -0.0631  0.0596 -0.0207
 9756W        W52669  30.326  16.143  27.532 -0.1188  0.0437  0.0725
 9757W        W52670  25.363  19.930   4.477  0.1575 -0.1658 -0.0526
 9758W        W52671  21.247  24.443  24.148 -0.2801 -0.0993  0.0172
 9759W        W52672  30.524  19.500   0.322 -0.1176 -0.2479 -0.1613
 9760W        W52673  22.165  19.174   0.045 -0.0890 -0.5422  0.1439
 9761W        W52674  19.531  33.099   4.465 -0.0189 -0.2303  0.1143
 9762W        W52675  10.895  26.372   0.809  0.1241  0.0602  0.1754
 9763W        W52676  18.923  25.001  27.006 -0.1187  0.1580 -0.0808
 9764W        W52677  21.595  20.213  20.953 -0.2751 -0.0465 -0.2788
 9765W        W52678  29.462  16.144   1.949 -0.1600 -0.1518  0.1175
 9766W        W52679   7.227   5.367   3.410  0.0454  0.0451 -0.0115
 9767W        W52680  23.656  24.110  24.892 -0.2038  0.0870 -0.2887
 9768W        W52681  24.153  31.114  22.777 -0.1478 -0.1323 -0.0879
 9769W        W52682  30.903  20.523  28.163 -0.2660 -0.1012 -0.2498
 9770W        W52683  25.906  23.959   4.440  0.1459 -0.2863  0.4035
 9771W        W52684  21.087  22.033  22.374 -0.0076 -0.1885  0.2431
 9772W        W52685   1.581  14.816   1.257 -0.0182 -0.3143  0.2696
 9773W        W52686  27.256  19.951  27.404 -0.1323  0.1729 -0.1652
 9774W        W52687  11.298  27.298   7.391  0.1218  0.1332  0.2380
 9775W        W52688  10.912  20.663  23.178 -0.0054 -0.0045 -0.2299
 9776W        W52689  18.876  25.666  24.910 -0.0470 -0.1304 -0.0265
 9777W        W52690  17.601  27.362   1.783 -0.1077 -0.2412 -0.3484
 9778W        W52691  16.820  26.317  22.201  0.1941 -0.1612  0.0862
 9779W        W52692  31.469  32.160  26.426  0.1696  0.0825 -0.0515
 9780W        W52693  20.373  14.593   8.384 -0.1299  0.1210 -0.2337
 9781W        W52694  30.400  31.040  24.855 -0.1015 -0.2149 -0.0348
 9782W        W52695  24.079  29.609   0.060  0.0477  0.0199 -0.2182
 9783W        W52696  28.788  21.401  13.638 -0.3728  0.0038 -0.2595
 9784W        W52697  20.810  24.433  17.912 -0.1868 -0.3118 -0.0494
 9785W        W52698  15.344  19.010  28.184  0.0705  0.1788  0.0996
 9786W        W52699   2.710  31.290  16.280 -0.1848 -0.1046  0.0211
 9787W        W52700  33.702  14.673  21.682 -0.1929 -0.1151 -0.0997
 9788W        W52701  19.187  24.519  25.397 -0.0736  0.1414  0.1521
 9789W        W52702  32.995  20.953  26.349 -0.2309  0.1517 -0.1392
 9790W        W52703  20.315  26.527   1.680 -0.1434 -0.2321  0.3231
 9791W        W52704  23.502   0.973   8.593 -0.1835 -0.2216  0.0022
 9792W        W52705  26.859  13.548  25.501  0.1895  0.3489  0.1532
 9793W        W52706  20.596  25.174  21.737 -0.2575 -0.0895  0.3989
 9794W        W52707  20.270  16.037  24.750  0.3390  0.0562 -0.2656
 9795W        W52708  12.652  22.118   1.135 -0.0064 -0.1587 -0.0152
 9796W        W52709  32.132  24.283   8.643  0.1847 -0.1808 -0.0585
 9797W        W52710  26.470  23.401  28.853  0.1843  0.0683  0.0359
 9798W        W52711  14.614  25.518   9.289  0.1384  0.1483 -0.1369
 9799W        W52712  28.165  23.834  24.900  0.1189  0.1110  0.3809
 9800W        W52713  26.566   4.373   1.579  0.0447 -0.0054  0.2420
 9801W        W52714  18.481  23.974  29.011 -0.0257  0.0443  0.3615
 9802W        W52715  11.215  30.499  23.200 -0.3776  0.1563  0.0819
 9803W        W52716   3.198  17.566   2.112 -0.1169  0.0864  0.0628
 9804W        W52717  14.552  22.593  26.882 -0.3692 -0.2894  0.0223
 9805W        W52718  17.184  19.072  25.909  0.0844 -0.3558  0.1604
 9806W        W52719  19.938  21.413   1.646  0.0068  0.1430  0.1576
 9807W        W52720  20.191  21.648  22.454 -0.1804  0.1715 -0.1676
 9808W        W52721  25.686  23.259  29.710 -0.0818  0.1199 -0.2246
 9809W        W52722  28.564  14.534  24.007  0.1474 -0.1159  0.2331
 9810W        W52723  24.968  27.776  23.574  0.3840  0.1808  0.1200
 9811W        W52724  26.219  23.354  27.152  0.0786  0.2974  0.4668
 9812W        W52725  14.707  31.371  21.474  0.1405  0.0372  0.3572
 9813W        W52726  31.419  28.799   4.087  0.2831 -0.1929  0.2077
 9814W        W52727  20.997  17.067  20.895  0.1396 -0.0675  0.1136
 9815W        W52728  27.162  16.242  24.634 -0.1824 -0.0110  0.0480
 9816W        W52729  10.018  25.711  19.538 -0.0231 -0.4195  0.0690
 9817W        W52730  15.487  19.022   4.646  0.1365  0.2195 -0.0934
 9818W        W52731  15.166  28.716  26.939 -0.0112 -0.0111 -0.0593
 9819W        W52732  26.249  20.559  26.383  0.0474 -0.1176  0.0421
 9820W        W52733  28.998  19.025   0.928  0.0593 -0.1648  0.1904
 9821W        W52734  14.054  26.796   0.922  0.2920  0.3897 -0.4719
 9822W        W52735  23.283  20.017  26.395  0.1061  0.4596 -0.0211
 9823W        W52736   0.820  15.532  15.936  0.2229  0.1318 -0.2479
 9824W        W52737  22.889  25.483   7.711  0.0284 -0.1070  0.3540
 9825W        W52738  17.752  21.451  29.217 -0.0059  0.4877 -0.0936
 9826W        W52739  26.394  25.943  24.566 -0.1792 -0.1146  0.5263
 9827W        W52740  25.449  24.987  26.871 -0.1746  0.0522 -0.0077
 9828W        W52741  15.504  18.981   8.755  0.0611 -0.0149 -0.3141
 9829W        W52742  12.609  19.422   2.092  0.1285 -0.1997  0.3934
 9830W        W52743   8.701  25.480  20.708 -0.0086 -0.0490  0.0920
 9831W        W52744  18.236  21.086  14.519 -0.2547 -0.1294 -0.1022
 9832W        W52745  29.163  31.412  18.075  0.1038 -0.0302  0.3807
 9833W        W52746   8.738  22.414  18.364 -0.2861 -0.2093  0.0069
 9834W        W52747  14.941  23.738  25.266 -0.1003  0.0646 -0.5500
 9835W        W52748  29.115  25.879  18.761 -0.1410  0.4350 -0.1448
 9836W        W52749  24.824  25.326  23.259 -0.2297  0.0807  0.0600
 9837W        W52750  19.043   0.472   2.734 -0.3625  0.2344 -0.1388
 9838W        W52751  20.382  13.197  17.418  0.2278 -0.0071  0.0445
 9839W        W52752  16.616  22.995  25.335  0.0476 -0.0449  0.1138
 9840W        W52753  18.827  19.275  28.626 -0.4242 -0.2441  0.1834
 9841W        W52754  22.007  29.550   2.781 -0.1792  0.0718 -0.2163
 9842W        W52755  16.556  23.523  16.911  0.1561 -0.1346  0.2929
 9843W        W52756  30.714  21.000   0.742  0.0188  0.1096 -0.0983
 9844W        W52757  31.076  30.479   0.900 -0.1425 -0.0904  0.1648
 9845W        W52758  26.972  25.175  29.747 -0.1643  0.2480 -0.0048
 9846W        W52759  27.077  26.444  15.254 -0.2152 -0.0201 -0.3708
 9847W        W52760  17.823  13.926   4.255 -0.2012 -0.1756 -0.2001
 9848W        W52761  29.904  31.560   3.068 -0.0208  0.1456 -0.2203
 9849W        W52762  28.020  19.512  21.793  0.1613  0.2506 -0.0868
 9850W        W52763  29.560   3.769   2.454 -0.1488 -0.3008 -0.1018
 9851W        W52764  33.318  30.308   8.507 -0.3795  0.0128 -0.1553
 9852W        W52765  28.153  25.473  24.003  0.0546  0.1139  0.1537
 9853W        W52766  25.482  17.390  13.255  0.1562 -0.4046  0.3802
 9854W        W52767  22.259  18.239  20.537  0.1918 -0.1541  0.1187
 9855W        W52768  21.764  19.253  28.577  0.1913  0.0849 -0.1201
 9856W        W52769  22.633  13.958  24.575  0.0308 -0.1128  0.1024
 9857W        W52770  21.299  29.179   7.731  0.0762  0.2313  0.0907
 9858W        W52771  26.938  26.118  28.520  0.1871 -0.1650 -0.1234
 9859W        W52772  15.390  22.203  19.094 -0.1417 -0.0679  0.1632
 9860W        W52773  25.796  34.074  10.638 -0.1714  0.1727 -0.0337
 9861W        W52774  17.676  25.545  18.954 -0.2008  0.0963 -0.3536
 9862W        W52775  21.256  13.695  26.837 -0.1254 -0.0271 -0.3937
 9863W        W52776  30.644  23.939  22.303  0.3417 -0.2051 -0.0308
 9864W        W52777   0.599  17.478  28.780  0.1063  0.1001 -0.0595
 9865W        W52778  22.073  22.255  17.637  0.2741 -0.1945  0.2346
 9866W        W52779  16.784   0.970   4.978  0.0013  0.2956 -0.0712
 9867W        W52780  19.162  23.555  21.292  0.1140  0.0194  0.2727
 9868W        W52781  29.064  26.702   0.014  0.1567 -0.0125  0.0504
 9869W        W52782  20.150  20.108  26.546  0.3088  0.1930  0.2214
 9870W        W52783  21.815  14.379  25.810 -0.2538  0.2444 -0.2611
 9871W        W52784  27.544  23.462  24.134  0.1239  0.2444  0.0464
 9872W        W52785  20.277  21.307  26.230  0.1683  0.1428  0.0745
 9873W        W52786  16.921  23.431  18.689 -0.1038 -0.1095 -0.0673
 9874W        W52787  24.337  29.868   2.507  0.0205  0.2938  0.0436
 9875W        W52788  22.073  22.897  27.806 -0.0583 -0.2411 -0.3762
 9876W        W52789  22.640  21.510  26.038  0.2263  0.1900  0.0952
 9877W        W52790  17.717   4.900   7.152 -0.0323  0.0864 -0.2685
 9878W        W52791  16.789  23.266  29.088 -0.2991 -0.2245 -0.2561
 9879W        W52792  22.525  13.868   4.051  0.1612 -0.3060  0.0717
 9880W        W52793  25.294  26.358   0.452 -0.3145  0.1534 -0.1560
 9881W        W52794  28.721   2.616   4.876  0.1212  0.0632  0.0958
 9882W        W52795  29.426   0.055  22.765 -0.0994 -0.1863 -0.1368
 9883W        W52796  24.094  24.975   0.546  0.1825  0.4271  0.0430
 9884W        W52797  23.353  25.757  21.024  0.4096 -0.1812 -0.1532
 9885W        W52798  16.010  17.716  28.833 -0.0104  0.1221  0.2882
 9886W        W52799  21.143  17.555  23.941 -0.0691  0.2734  0.1877
 9887W        W52800  22.561  28.324   1.426  0.2765  0.1898  0.2803
 9888W        W52801  21.914   1.937  17.365 -0.0294 -0.3007  0.2610
 9889W        W52802  21.385  25.479   7.555 -0.0979  0.2791 -0.2379
 9890W        W52803  21.380  19.260   5.968  0.2464 -0.2533 -0.1597
 9891W        W52804  18.893  28.387  19.533  0.0338  0.0175  0.3027
 9892W        W52805   2.896  34.349   2.083  0.0609 -0.1716  0.3809
 9893W        W52806  13.457   3.748   3.567 -0.0826 -0.1664  0.0764
 9894W        W52807  25.074   4.441  26.267 -0.1098  0.0976  0.1114
 9895W        W52808  32.498  23.997  24.711  0.0725 -0.1450 -0.1387
 9896W        W52809  19.235  16.214  24.774  0.3353  0.1883  0.0951
 9897W        W52810  15.489  30.866  26.480 -0.1018  0.0982 -0.0402
 9898W        W52811  10.216  24.233  19.922  0.1835 -0.0065  0.0169
 9899W        W52812  22.603  29.701   5.932  0.1793  0.2154 -0.1691
 9900W        W52813  10.867  25.033  16.700 -0.1688 -0.1808  0.2930
 9901W        W52814  30.264  24.767   5.107  0.0022  0.0318 -0.1822
 9902W        W52815  12.493  22.850   0.794  0.0251 -0.2087  0.1850
 9903W        W52816  20.909  23.711  26.024 -0.1561  0.3137 -0.0012
 9904W        W52817  33.391  10.636  22.739 -0.0740 -0.1414  0.1748
 9905W        W52818  22.188  20.047   2.593 -0.0370  0.1237 -0.1308
 9906W        W52819  21.885  19.701  29.527  0.1893  0.1768 -0.0968
 9907W        W52820  21.132  12.061  26.166  0.1032 -0.2856 -0.1306
 9908W        W52821  18.639  19.664   6.770 -0.1125 -0.4446 -0.1146
 9909W        W52822  19.618  30.611  22.066 -0.2443 -0.0198  0.0346
 9910W        W52823  23.657   9.549   3.506 -0.0970  0.1287 -0.2074
 9911W        W52824  10.159  23.401  24.447 -0.4489  0.2521 -0.0519
 9912W        W52825  22.670  24.692   6.003 -0.0821 -0.2908 -0.3194
 9913W        W52826  19.177  17.789  24.964  0.0535  0.7137 -0.0472
 9914W        W52827  17.653  25.860  26.440  0.1209 -0.0374  0.1977
 9915W        W52828  30.425  14.567  27.297 -0.1257 -0.1590 -0.1599
 9916W        W52829  23.089  28.181  26.400 -0.0985  0.2518 -0.1512
 9917W        W52830  20.838  28.803  21.056  0.0510 -0.0470 -0.2272
 9918W        W52831  22.037  24.321  19.642 -0.0137  0.4624 -0.2197
 9919W        W52832  15.145  26.853   5.664 -0.2008 -0.5008 -0.1219
 9920W        W52833  15.586  32.375  26.062  0.2887  0.1276 -0.2143
 9921W        W52834  19.887  25.509  19.136 -0.0392 -0.1140 -0.4690
 9922W        W52835  20.575  21.771  16.930  0.0394  0.0770  0.3084
 9923W        W52836  28.960  29.738  27.632  0.0205  0.0950  0.1321
 9924W        W52837  21.933   0.648  21.249 -0.1981  0.1592  0.2524
 9925W        W52838  14.799  30.752  20.480  0.1121 -0.1289  0.0534
 9926W        W52839   0.505  32.828  23.644 -0.2134 -0.0942 -0.0412
 9927W        W52840  26.939  16.493   5.935  0.0098 -0.1561 -0.1656
 9928W        W52841  16.235  30.826   4.184 -0.1194  0.0013  0.0743
 9929W        W52842  20.329  28.478  21.679  0.0383 -0.1827 -0.0702
 9930W        W52843  25.823  22.367  27.217  0.0694  0.0644  0.1791
 9931W        W52844  26.777  25.313  23.566 -0.0177 -0.0390 -0.2262
 9932W        W52845  30.150  32.314  27.093  0.1611  0.1919 -0.1696
 9933W        W52846  15.238  25.441   8.060  0.0449 -0.1575 -0.1137
 9934W        W52847  31.556  34.325  25.930  0.1259  0.1421 -0.0261
 9935W        W52848  21.022  27.049   4.909  0.0122  0.1616  0.1926
 9936W        W52849  24.669  24.903   0.419  0.0997  0.3066  0.0323
 9937W        W52850  14.833  21.263  18.633  0.3108 -0.2630 -0.2073
 9938W        W52851  32.301  21.037   0.864  0.2435 -0.0413  0.1787
 9939W        W52852  23.499   0.330  17.217  0.3167  0.2012 -0.1657
 9940W        W52853  18.696  27.530  23.879 -0.2414  0.0946  0.0095
 9941W        W52854  31.844  20.596   0.928 -0.0261  0.2484 -0.2084
 9942W        W52855  27.033  20.229  27.007 -0.3301  0.2597 -0.0491
 9943W        W52856  29.379  29.653   9.326  0.4882  0.0324  0.1595
 9944W        W52857  20.418  22.496  23.889 -0.0523  0.2694  0.0086
 9945W        W52858  17.442  30.295   1.363 -0.0257 -0.3623 -0.2900
 9946W        W52859  15.204  23.041  24.205  0.2015  0.2147  0.0501
 9947W        W52860  22.206  27.019   0.049 -0.1305  0.2916 -0.0018
 9948W        W52861  19.614  22.848  26.429 -0.3025 -0.1334 -0.0949
 9949W        W52862  31.342  23.373   5.127  0.1232 -0.2660  0.0846
 9950W        W52863  29.995  23.885  26.898 -0.0761  0.1551  0.2326
 9951W        W52864  24.319  22.780  29.596 -0.0714 -0.3929 -0.2745
 9952W        W52865  26.190  33.385   0.856 -0.1956 -0.0847  0.1859
 9953W        W52866  23.839  24.600  21.323 -0.0908 -0.1707  0.2803
 9954W        W52867  26.766  17.974  22.676 -0.1177  0.0819 -0.2273
 9955W        W52868  29.308   9.815  24.973 -0.0163 -0.1606 -0.1067
 9956W        W52869  24.840  23.364  12.289  0.2732 -0.0587  0.0552
 9957W        W52870  27.737  14.697  24.551 -0.2186 -0.0141 -0.0854
 9958W        W52871  21.745  21.520  23.487  0.1089 -0.1189 -0.0647
 9959W        W52872  29.366  26.264   1.853  0.0529  0.1399  0.0083
 9960W        W52873  19.810  20.942  13.129 -0.0725  0.0790  0.2201
 9961W        W52874  13.422  17.590  15.454  0.3370  0.0446 -0.3636
 9962W        W52875  25.927  30.688   7.783  0.2777 -0.1994 -0.2458
 9963W        W52876  23.815  11.780  21.986 -0.0769  0.1376 -0.0996
 9964W        W52877  22.277  21.422   1.020  0.0483 -0.3789 -0.0419
 9965W        W52878  17.259  32.608  26.059 -0.2966 -0.0252 -0.0635
 9966W        W52879  24.991  29.319  25.052  0.3223 -0.0448 -0.2085
 9967W        W52880   1.079  26.873   0.967  0.0094 -0.1119 -0.0936
 9968W        W52881  15.027  24.897  28.029  0.0325  0.1169  0.2643
 9969W        W52882  16.948  30.537   9.330  0.0921 -0.0959 -0.1061
 9970W        W52883  16.164  28.755   3.243 -0.0291  0.2493 -0.0800
 9971W        W52884  31.198  32.576  26.480 -0.1892  0.2863  0.0096
 9972W        W52885  17.630  13.913  29.498 -0.3545 -0.0290  0.1346
 9973W        W52886  28.598  17.182   4.416 -0.0112 -0.1804  0.1791
 9974W        W52887  15.981  24.770  19.387  0.1099 -0.2315  0.3012
 9975W        W52888  27.977  21.160  18.869 -0.0112 -0.1645 -0.0528
 9976W        W52889  21.620  17.181   6.883  0.1009 -0.1892  0.0588
 9977W        W52890  25.811   8.042  19.723 -0.1315 -0.3139  0.0219
 9978W        W52891  24.377  20.399   3.364 -0.0680 -0.1106  0.1917
 9979W        W52892  28.121  24.217  21.182  0.1911 -0.2494 -0.0619
 9980W        W52893  26.646  24.241   0.080  0.1166  0.0169  0.1362
 9981W        W52894  19.494  14.913  27.558  0.1549  0.1604 -0.0015
 9982W        W52895  17.525  21.894  18.844  0.0416 -0.2058  0.0720
 9983W        W52896  20.804  18.692   3.990  0.0941 -0.0534 -0.3857
 9984W        W52897  29.086  24.402  29.489 -0.2215 -0.3151  0.1085
 9985W        W52898  23.269  30.328  17.089  0.0589  0.1890 -0.2595
 9986W        W52899  33.619  24.353  27.835 -0.2305 -0.1171 -0.0476
 9987W        W52900  26.596   0.351   7.285 -0.0633 -0.0157 -0.0740
 9988W        W52901  19.267  22.617  22.581  0.1908  0.1475  0.3208
 9989W        W52902  34.444  19.872  25.179 -0.1283 -0.1745 -0.0642
 9990W        W52903  18.047  18.868   3.669  0.0424 -0.0259 -0.0861
 9991W        W52904   5.192  20.531   5.134 -0.1761 -0.0533  0.2787
 9992W        W52905  20.474  25.381  15.347  0.3704 -0.0270 -0.1708
 9993W        W52906  14.027  28.144  24.132 -0.1504 -0.0508  0.1976
 9994W        W52907  29.411  26.226  20.302 -0.1202 -0.2496  0.2876
 9995W        W52908  21.760  15.901  16.797  0.0142  0.2573 -0.1760
 9996W        W52909  13.018   6.043   1.046 -0.0718 -0.0194  0.1457
 9997W        W52910  31.587  23.568  29.197 -0.0957  0.0799  0.1297
 9998W        W52911   5.594  18.979  22.783 -0.0132 -0.2086  0.0327
 9999W        W52912  24.447  29.858  28.004 -0.2878  0.1519  0.0414
10000W        W52913  17.628  18.143  24.698  0.0089 -0.2394 -0.0186
10001W        W52914  23.471  20.727  26.885  0.1680  0.1416  0.1127
10002W        W52915  26.724  21.635   5.487  0.1354 -0.0661  0.2107
10003W        W52916  30.074  29.275  18.008 -0.0435  0.0864 -0.0509
10004W        W52917  21.874  18.146  21.958  0.2169  0.1593 -0.0698
10005W        W52918  27.960  25.757  24.528  0.1962  0.1742 -0.0534
10006W        W52919  22.985  27.425  23.850  0.0605  0.2807  0.1887
10007W        W52920  26.924  23.983   1.701  0.0791  0.0994  0.0300
10008W        W52921  23.603  25.583   2.192 -0.2390  0.0452  0.3351
10009W        W52922  16.812  26.623  21.057 -0.0468 -0.2755 -0.0594
10010W        W52923  21.527  17.775   1.093  0.0729 -0.2375 -0.0285
10011W        W52924  25.080  21.868  20.439 -0.1275  0.1464 -0.0799
10012W        W52925  17.836  23.576  23.048 -0.1472 -0.0213  0.0913
10013W        W52926  27.753  23.970  24.300 -0.3037 -0.1183  0.1898
10014W        W52927  14.468  31.552  20.103 -0.1195 -0.0530  0.1437
10015W        W52928  24.621  19.072  29.575 -0.1420  0.0015 -0.2118
10016W        W52929  17.517  23.663  24.451  0.1257  0.1990 -0.1906
10017W        W52930  34.460  18.096   2.352 -0.3286  0.2727 -0.1919
10018W        W52931  16.448  23.240  28.107 -0.3193  0.2703  0.2378
10019W        W52932  18.586  21.927   0.576  0.2813 -0.1611  0.1633
10020W        W52933  27.769  23.191  25.527 -0.0933 -0.0707 -0.1133
10021W        W52934   0.948  27.331  28.190 -0.4000 -0.3020 -0.1008
10022W        W52935  27.082  27.628  23.493  0.0399  0.0705 -0.3308
10023W        W52936  12.972  27.736   3.138  0.2249 -0.2658 -0.0491
10024W        W52937  24.075  23.711   0.106 -0.1312  0.1736  0.0798
10025W        W52938  16.401  25.549  24.468  0.0772  0.1532 -0.3822
10026W        W52939  28.730  28.878  29.069  0.2080  0.3817  0.3111
10027W        W52940  19.473  27.672  21.829 -0.0995 -0.3979  0.3999
10028W        W52941  25.039   7.727   1.452  0.0348 -0.0843 -0.0732
10029W        W52942  13.462  20.032   1.006  0.0890  0.0666  0.0450
10030W        W52943  18.493  20.524  23.736  0.0058 -0.2846  0.0185
10031W        W52944   1.895  19.698   3.483  0.3037  0.0884  0.1399
10032W        W52945  25.799  21.411  26.657  0.0936 -0.4033 -0.0742
10033W        W52946  29.137  31.273   9.343 -0.1174 -0.0819  0.1479
10034W        W52947  26.012  22.378  23.601 -0.2781 -0.2952 -0.2035
10035W        W52948  23.899  22.262  24.925  0.1426  0.2860 -0.2593
10036W        W52949  17.975  28.465  28.860  0.1827 -0.0161  0.0469
10037W        W52950   2.986  25.230   6.142  0.1283 -0.2519 -0.0744
10038W        W52951  32.988  21.821   1.601  0.1390  0.0072  0.1765
10039W        W52952  15.366  19.292  22.828  0.0171  0.0479  0.1868
10040W        W52953  26.096   0.639   4.463 -0.1239  0.3188  0.2355
10041W        W52954  31.139  31.002   3.195 -0.2422  0.0956 -0.0302
10042W        W52955  25.163  20.757  28.608 -0.2619 -0.0900  0.0177
10043W        W52956   9.460  24.671  16.884 -0.2539  0.0186 -0.0870
10044W        W52957  15.959  22.698  17.918  0.1014  0.3369  0.1473
10045W        W52958  23.749  18.981  29.712  0.0143  0.0452 -0.1493
10046W        W52959  20.921   3.583  29.494 -0.2032  0.3755  0.1327
10047W        W52960  32.888  21.839  26.045 -0.3124 -0.2727 -0.1372
10048W        W52961   0.884  16.784  24.121  0.0063  0.3676  0.0698
10049W        W52962  24.088  16.356  24.217 -0.0834  0.0154  0.1484
10050W        W52963  20.776  13.288  27.481  0.0552 -0.1125 -0.0496
10051W        W52964  25.443   0.447  26.822 -0.0541 -0.0905  0.0962
10052W        W52965  28.861  24.031   2.375  0.0793  0.0346 -0.1579
10053W        W52966  33.637  30.756  18.645  0.0666  0.0827 -0.3405
10054W        W52967  20.714  20.949  22.541  0.1595 -0.0555 -0.1340
10055W        W52968  24.498  26.742   6.077  0.1809  0.1944  0.2135
10056W        W52969  19.003  22.690  28.898 -0.3956 -0.2497  0.2791
10057W        W52970  31.957   2.400   8.990 -0.2459  0.0375  0.1944
10058W        W52971  23.939  25.185   2.341 -0.0160  0.1806  0.5250
10059W        W52972  16.558  28.971   7.295  0.0266 -0.1572  0.2953
10060W        W52973  25.521  15.115   5.184 -0.0786  0.1884 -0.3119
10061W        W52974  27.974  13.040   1.108 -0.1841  0.1086  0.2230
10062W        W52975  21.266  13.188  26.908 -0.1744 -0.0963  0.3640
10063W        W52976  28.154  31.705   6.058 -0.3503 -0.4828 -0.2045
10064W        W52977   0.216  18.241   3.331  0.0480  0.0817  0.1958
10065W        W52978  26.396  20.811   2.613  0.0486  0.3133 -0.1304
10066W        W52979  13.988  21.909  20.940  0.0911  0.1038  0.1962
10067W        W52980   0.730  24.556   2.485 -0.1519  0.1227 -0.0270
10068W        W52981  14.575  21.507   0.317  0.2683  0.0624  0.3882
10069W        W52982  13.654  10.145   2.323 -0.1400  0.1384  0.0876
10070W        W52983  22.703  19.021  21.269  0.1836  0.2942 -0.1560
10071W        W52984  28.335  21.102   4.111  0.3139  0.2129 -0.2794
10072W        W52985  32.423  30.938  24.203 -0.0646 -0.1006 -0.0877
10073W        W52986  26.086  18.875  20.225 -0.4107  0.0390 -0.1654
10074W        W52987  25.102  25.856  26.718 -0.2873 -0.3476 -0.1808
10075W        W52988  23.511  25.856  23.115 -0.1787  0.0979  0.0004
10076W        W52989  16.971  25.112   1.516 -0.0736 -0.0725  0.3049
10077W        W52990  32.604  17.637  26.602  0.2078  0.2075 -0.2860
10078W        W52991  26.502  29.059  29.038  0.1310  0.1215  0.2605
10079W        W52992  14.283  23.435  27.300  0.0214  0.0847 -0.2463
10080W        W52993  32.351  28.237  29.534  0.0328 -0.0613  0.0558
10081W        W52994  31.542  14.883  17.865 -0.0637  0.0453 -0.1530
10082W        W52995  26.987  21.837  29.741  0.0417  0.0127 -0.1577
10083W        W52996  22.007  16.831   2.357  0.0979  0.3481 -0.0422
10084W        W52997  18.458  27.684   9.796 -0.2162  0.1611 -0.0160
10085W        W52998  23.480  25.042  16.404  0.3871  0.1117 -0.1235
10086W        W52999  15.805  21.836   6.286  0.4521  0.1601  0.1714
10087W        W53000   7.274  27.922  28.384 -0.1935  0.0875 -0.0938
10088W        W53001  31.416  30.078  24.968 -0.0943  0.3136 -0.0997
10089W        W53002  26.991   9.143   0.854 -0.2247  0.2487 -0.0302
10090W        W53003  33.835  32.417   3.825 -0.2647 -0.4354 -0.0966
10091W        W53004  23.976  23.546  29.157  0.0560  0.0139 -0.5199
10092W        W53005  21.258  17.121  28.733 -0.2073 -0.1834 -0.2307
10093W        W53006  16.746  22.669  22.644 -0.1379 -0.2895  0.2312
10094W        W53007  12.420  20.938   7.214 -0.0817 -0.1499  0.0869
10095W        W53008  20.652  29.548  24.793  0.0631  0.1282 -0.3375
10096W        W53009  13.621  24.802   4.845  0.0691  0.1918  0.1635
10097W        W53010   6.205  29.889   9.750 -0.1991  0.0964 -0.2217
10098W        W53011  31.647  29.374  29.322  0.1534  0.1219  0.1169
10099W        W53012  26.544  15.898   0.515 -0.1019  0.1091  0.2553
10100W        W53013  25.021  19.003  28.179  0.3301  0.0731  0.0489
10101W        W53014  26.561  22.809   2.473  0.0887 -0.0513 -0.1344
10102W        W53015  19.813  19.812   7.982  0.0340 -0.2477 -0.0997
10103W        W53016  19.431  20.823  20.095 -0.0166 -0.1685  0.0432
10104W        W53017  28.735  19.749   4.381  0.0024 -0.1298 -0.1835
10105W        W53018  21.933  18.083  23.828  0.0082 -0.1884  0.2617
10106W        W53019  24.014  21.196   1.966  0.0819 -0.4813 -0.0587
10107W        W53020  21.300  32.052  29.052 -0.0954 -0.0610  0.0084
10108W        W53021   7.945  31.111   1.537 -0.2141  0.0425 -0.0895
10109W        W53022  17.466  22.281   1.166 -0.1563 -0.2895  0.2601
10110W        W53023  27.984  23.570   8.006 -0.0413  0.1730 -0.0671
10111W        W53024  20.700  25.672  28.035  0.3076  0.3681 -0.2156
10112W        W53025  18.177  28.644   4.423 -0.0485 -0.1355 -0.0061
10113W        W53026   0.132   1.473  28.372 -0.2384 -0.0404 -0.0990
10114W        W53027  31.427   0.467   9.003 -0.0130 -0.1710 -0.5115
10115W        W53028  15.423  33.716   2.595 -0.0953 -0.2005 -0.3010
10116W        W53029  20.153  20.830  17.285 -0.0471  0.0765  0.2048
10117W        W53030  34.026  26.673  15.288  0.0541 -0.2537  0.1776
10118W        W53031  18.167  27.561  23.034  0.0268 -0.3470  0.1305
10119W        W53032   7.380  19.599  19.036  0.0169 -0.0628  0.1123
10120W        W53033   0.791  23.588  19.648 -0.0983 -0.0083 -0.2233
10121W        W53034  19.025  32.988  15.355  0.0138  0.1851 -0.0793
10122W        W53035  26.429   2.763  23.553 -0.1528 -0.1117 -0.0944
10123W        W53036  23.297  28.658  16.777  0.1727 -0.1420 -0.0074
10124W        W53037  30.377  33.719  21.882 -0.0735  0.0579  0.0105
10125W        W53038  26.736  25.258  24.076  0.1491 -0.0425 -0.2488
10126W        W53039  24.248  26.690  18.518 -0.1175  0.0497 -0.1895
10127W        W53040  16.327  31.433  17.744  0.1051 -0.2238 -0.1225
10128W        W53041  26.755  33.249  17.527  0.0751  0.0722 -0.0434
10129W        W53042  27.013  25.692  16.396  0.0666  0.0089  0.0749
10130W        W53043  20.753   1.880  19.166 -0.0563 -0.0859  0.1353
10131W        W53044  15.642  31.937  21.941 -0.0970  0.1632  0.0409
10132W        W53045  33.673  21.563  26.412  0.3065  0.2109 -0.2435
10133W        W53046  22.565  28.262  19.766 -0.1239  0.1423 -0.1707
10134W        W53047  17.343  20.783  12.398  0.0204 -0.0608 -0.1332
10135W        W53048   5.174  22.597  14.166 -0.0534 -0.2448  0.3898
10136W        W53049  27.743  25.882  14.286 -0.1025 -0.1972 -0.3283
10137W        W53050  12.162  27.414  16.076 -0.3465 -0.1021  0.1431
10138W        W53051  22.189  30.342  22.548 -0.3392  0.1978  0.0162
10139W        W53052  29.546  11.816  13.722  0.3058 -0.1116 -0.0464
10140W        W53053  12.048  20.654  16.309 -0.2158  0.2526 -0.1913
10141W        W53054  24.699  20.801  13.025  0.0747  0.1289  0.1272
10142W        W53055  26.525  27.348  14.743  0.0250 -0.0908  0.2537
10143W        W53056  22.730  24.522  21.140  0.1046 -0.2151  0.1269
10144W        W53057  16.940   8.272  23.061  0.1002 -0.0841  0.0340
10145W        W53058  23.027  24.009  16.634 -0.4495  0.2611 -0.0260
10146W        W53059  23.708  19.789  20.899 -0.1870 -0.1966 -0.3211
10147W        W53060  26.172  33.704  15.553  0.3160  0.0152 -0.1914
10148W        W53061  21.460   0.506  17.722  0.0138 -0.0531 -0.1439
10149W        W53062  33.721  22.674  14.919  0.1500  0.1867 -0.0710
10150W        W53063   2.974  22.171  15.699  0.2500 -0.0213 -0.1313
10151W        W53064  19.361  27.688  20.924  0.4621 -0.0938  0.1993
10152W        W53065  31.812  25.110  21.155  0.1326  0.0876  0.0411
10153W        W53066  22.351  23.067  19.537  0.0898 -0.0316 -0.0599
10154W        W53067  18.979   2.118  14.850 -0.0021 -0.1959 -0.1325
10155W        W53068  23.539  16.362  16.710 -0.0323  0.2313 -0.0449
10156W        W53069  20.749  27.717  18.671 -0.1215  0.1051  0.0343
10157W        W53070  32.215   1.182  15.824 -0.2039 -0.0793 -0.1426
10158W        W53071  18.410  29.704  23.158  0.1352  0.0564 -0.0810
10159W        W53072  19.192  25.310  15.847  0.1949  0.0829 -0.2634
10160W        W53073  14.725  31.693  18.424  0.0876  0.0076 -0.0063
10161W        W53074   2.487   0.430  20.882 -0.0805  0.0022  0.0122
10162W        W53075  25.658  25.776  15.994  0.1186  0.2263  0.2451
10163W        W53076  29.412  29.628  17.856 -0.2232  0.0729  0.0940
10164W        W53077  25.171   0.232  19.797  0.4355 -0.1155  0.1046
10165W        W53078  19.335  23.706  18.663  0.1594  0.0866 -0.2719
10166W        W53079  27.810  28.078  15.648 -0.0483  0.0053 -0.0907
10167W        W53080  15.431  22.035  16.906 -0.1012  0.1922 -0.0311
10168W        W53081  24.696   8.791  23.392 -0.1068 -0.1092 -0.4154
10169W        W53082  19.246  32.212  14.519 -0.4369  0.0737  0.0986
10170W        W53083  10.238  24.029  16.065 -0.1815 -0.3204 -0.0991
10171W        W53084  14.947  21.087  13.000 -0.0186  0.1294 -0.3329
10172W        W53085  24.984  28.704  13.358 -0.3892 -0.1378  0.0258
10173W        W53086  30.756  33.546   0.805  0.1528 -0.0250  0.0836
10174W        W53087  20.935  32.096  18.235 -0.1223  0.2399  0.3355
10175W        W53088   1.243  30.614  20.241 -0.3421  0.2106 -0.1321
10176W        W53089  25.975  18.209  20.758  0.1452  0.0816  0.1224
10177W        W53090  22.045  27.205  14.738 -0.2005 -0.0656 -0.0398
10178W        W53091  32.136  25.706  23.754 -0.0759  0.4317  0.3785
10179W        W53092  30.899  11.709  13.843 -0.1975  0.2057 -0.0566
10180W        W53093  32.604  24.076  19.153  0.2156  0.1066  0.0547
10181W        W53094  23.998  17.818  15.274 -0.1789  0.1554 -0.0814
10182W        W53095  21.980  28.792  12.626  0.0840 -0.1943  0.3481
10183W        W53096  27.326   1.514  21.865  0.1525 -0.2127  0.3179
10184W        W53097  30.524   1.198  16.298 -0.1154  0.3202  0.1684
10185W        W53098  23.644  27.221  15.210  0.2354  0.0315 -0.0800
10186W        W53099  20.179  26.957  25.892 -0.0422  0.3706 -0.0674
10187W        W53100  32.228  23.808  16.015  0.2330 -0.0488  0.1932
10188W        W53101  21.859   1.172  27.024 -0.3374 -0.0277  0.1090
10189W        W53102  15.966  29.481  18.187  0.0406  0.3862 -0.1349
10190W        W53103   1.314  32.647  18.491 -0.2364 -0.2871 -0.0361
10191W        W53104  22.866  26.218  12.975 -0.0806 -0.1481  0.1896
10192W        W53105  30.557  29.582  23.570  0.1677  0.1464 -0.1530
10193W        W53106  28.467  26.749  27.142  0.1540  0.1643 -0.2944
10194W        W53107  34.143  31.859  24.650  0.1390  0.1764  0.3018
10195W        W53108  25.458  29.061  13.531 -0.2357 -0.1252  0.0473
10196W        W53109  23.490  24.956  17.996 -0.1736  0.0807 -0.2301
10197W        W53110  22.758  32.227  14.328  0.0988  0.0642  0.2139
10198W        W53111  24.225  30.197  19.801  0.1156 -0.4293  0.1134
10199W        W53112  22.075  31.619  21.489  0.1950  0.1005  0.3052
10200W        W53113  27.999  22.569  17.892 -0.2919 -0.3215  0.0390
10201W        W53114  14.527  26.976  26.668  0.0007  0.0152 -0.0113
10202W        W53115  34.360  25.386  17.185 -0.6425 -0.2420  0.1136
10203W        W53116  15.977  30.748  26.547  0.3754  0.0962 -0.0057
10204W        W53117  22.681  33.318  13.685  0.1520 -0.1766 -0.1093
10205W        W53118  28.278  23.118  21.303 -0.1603  0.2341 -0.2011
10206W        W53119  24.387  28.553  14.033 -0.2833 -0.3930  0.2125
10207W        W53120  25.417  25.710  17.453  0.0542 -0.1673  0.4392
10208W        W53121  20.238  33.166  14.115 -0.0659  0.0381 -0.0801
10209W        W53122  24.545  33.273  22.411  0.1386  0.0048  0.0535
10210W        W53123  23.552  26.780  17.416  0.2829 -0.2769 -0.0657
10211W        W53124  26.285   0.875  23.610  0.3601 -0.0477 -0.1241
10212W        W53125  22.118  24.963  13.975 -0.1780  0.0876 -0.3163
10213W        W53126  31.815  21.899  18.036 -0.1995 -0.1930 -0.0807
10214W        W53127  23.996  31.874  14.220  0.0378  0.0773 -0.1946
10215W        W53128   9.940  31.797  22.963  0.0807  0.1031  0.1053
10216W        W53129  23.389  31.314  14.766 -0.3338  0.0864 -0.1776
10217W        W53130  28.809  22.858  15.137  0.1500 -0.0154 -0.0028
10218W        W53131   8.915   2.674  23.480 -0.0913  0.4632 -0.0906
10219W        W53132  23.771  33.914  15.232 -0.1023  0.3364  0.0612
10220W        W53133  12.522  16.632  22.124  0.0310  0.2236 -0.1514
10221W        W53134  26.673  28.385  24.285 -0.1065  0.3187  0.1363
10222W        W53135  27.748  21.005  17.477 -0.1884 -0.1229 -0.0011
10223W        W53136  31.274  31.698  22.898  0.1075  0.2081  0.2613
10224W        W53137  24.636  21.144  22.428 -0.2080 -0.1257 -0.0074
10225W        W53138  28.074  27.436  17.389  0.0087 -0.2144 -0.3063
10226W        W53139  26.395  30.888  17.045  0.2464  0.2365  0.0075
10227W        W53140  25.187  31.647  14.336  0.0944  0.0298  0.3087
10228W        W53141   3.763  26.812  20.359 -0.0288  0.0304 -0.1149
10229W        W53142  30.865  17.406  21.024  0.2943 -0.2683 -0.1521
10230W        W53143  16.549  33.971  16.742 -0.0866 -0.0723  0.1280
10231W        W53144  26.887   0.027  17.931 -0.0030 -0.0577  0.3984
10232W        W53145  22.062  33.616  18.010 -0.1000  0.4073 -0.0091
10233W        W53146  23.000  30.609  24.672 -0.3279 -0.1898  0.1513
10234W        W53147  18.850  28.771  16.461  0.0950  0.1054  0.1385
10235W        W53148  29.357  30.018  13.962 -0.0457 -0.0444 -0.2722
10236W        W53149  16.796  23.752  16.486  0.1234  0.0602  0.1974
10237W        W53150  23.702  27.699  21.205 -0.1393  0.1530 -0.0717
10238W        W53151  20.399  22.747  13.825  0.0464  0.3621  0.0810
10239W        W53152  17.391  10.781  18.431  0.0635  0.0286 -0.0650
10240W        W53153  24.177  30.646  25.189  0.1853 -0.0671  0.0082
10241W        W53154  23.332  13.924  20.863 -0.1832  0.1653 -0.2714
10242W        W53155  28.325  22.190  18.059 -0.1296 -0.0133 -0.3192
10243W        W53156  23.796  20.659   1.153  0.2478 -0.1859 -0.1167
10244W        W53157  25.553  28.405  14.039 -0.1243  0.1832 -0.2598
10245W        W53158  17.881  22.750  14.363  0.1111 -0.4572 -0.2368
10246W        W53159  23.873  24.002  13.696  0.3309  0.0055 -0.2059
10247W        W53160  24.339   0.392  13.420 -0.1823 -0.1566 -0.3748
10248W        W53161  24.525  25.957  28.747  0.1673 -0.0003  0.2815
10249W        W53162  32.115  27.910  22.020 -0.0532  0.0855  0.0480
10250W        W53163  23.139  27.579  17.816  0.1796 -0.1583 -0.2643
10251W        W53164  20.159  34.168  18.841 -0.0263  0.2971  0.1156
10252W        W53165   7.285  30.345  23.226 -0.0703 -0.1028 -0.3434
10253W        W53166  29.515  25.321  21.331  0.2463 -0.0948 -0.2765
10254W        W53167  26.751  27.363  16.990 -0.2230  0.6076  0.0016
10255W        W53168   3.360  18.831  15.561  0.1169  0.0003  0.1727
10256W        W53169  20.729  23.998  22.563 -0.0091  0.3229  0.2489
10257W        W53170  31.750  30.625  23.451  0.3926 -0.1773 -0.2832
10258W        W53171  21.386  20.265  16.409  0.1155 -0.2222  0.0899
10259W        W53172  17.075  24.861  13.429  0.0164 -0.0584 -0.2600
10260W        W53173  25.649  30.098  18.757  0.1306 -0.1533 -0.0514
10261W        W53174  28.226  23.633  12.572  0.1266 -0.1668  0.1681
10262W        W53175  32.574  21.202  18.495  0.1786  0.0377 -0.0936
10263W        W53176  14.693  30.686  15.310  0.3195 -0.0257  0.0352
10264W        W53177  14.785  22.196  20.396 -0.1308  0.2536  0.2789
10265W        W53178  33.793  13.787  17.739 -0.0065  0.0085 -0.2619
10266W        W53179  13.726   1.733  27.578 -0.0014 -0.1729 -0.0939
10267W        W53180  24.480  33.357  13.635 -0.1714  0.1247 -0.0569
10268W        W53181  25.998  30.168  20.575  0.1915  0.1966  0.0988
10269W        W53182   1.476  31.092  26.105  0.1650 -0.0542  0.1899
10270W        W53183  20.023  26.838  20.368  0.0049  0.2607  0.0838
10271W        W53184  26.714  33.786  22.647  0.0453 -0.1325  0.1106
10272W        W53185  26.522  31.972  16.983 -0.0053  0.2964 -0.0158
10273W        W53186  14.763  32.558  16.679 -0.2328  0.0359  0.0660
10274W        W53187  28.835   0.444  21.966  0.1233 -0.0362 -0.5040
10275W        W53188  22.430  28.948  16.481  0.1411 -0.0485 -0.1226
10276W        W53189  24.523  33.808  16.527 -0.2400  0.4154 -0.0447
10277W        W53190  19.525  24.238  26.930  0.2350 -0.3251  0.0698
10278W        W53191  24.901  23.642  12.874 -0.1194 -0.0412  0.0022
10279W        W53192  27.444  29.020  17.445  0.2135  0.2315 -0.4986
10280W        W53193  21.864   4.585  23.029 -0.1941  0.2875 -0.0080
10281W        W53194  28.233  26.619  20.948  0.1794 -0.2024 -0.2985
10282W        W53195  25.849  28.323  19.351 -0.1787  0.1232 -0.3101
10283W        W53196  26.864  30.926  14.131  0.1749 -0.1648  0.1883
10284W        W53197  20.805  12.901  16.676  0.1158  0.1126 -0.0760
10285W        W53198  16.789  25.491  24.061 -0.1466  0.5662  0.2492
10286W        W53199  26.948  28.061  16.535 -0.0627  0.0495 -0.1889
10287W        W53200   0.163  18.436  16.265  0.2774  0.1989 -0.1401
10288W        W53201  29.968  24.151  19.946  0.2200  0.1627 -0.1831
10289W        W53202  25.173  28.942  22.720  0.2846  0.1800  0.0073
10290W        W53203  27.218  28.541  17.413  0.1666  0.0864 -0.2497
10291W        W53204  16.727  24.944  15.967  0.1570  0.3389  0.0576
10292W        W53205  29.939  27.314  21.048  0.1026 -0.1669 -0.3236
10293W        W53206  29.122  24.514  19.012 -0.0408  0.1908 -0.1825
10294W        W53207  14.450  27.612  22.364 -0.0752  0.2287  0.0662
10295W        W53208  22.142  32.707  13.992  0.0506  0.0074  0.1225
10296W        W53209  20.430   2.038  20.049  0.0448 -0.0128  0.3605
10297W        W53210  25.355  25.714  17.954 -0.0332 -0.3136  0.0547
10298W        W53211  11.538  25.516  21.843 -0.3081 -0.0162  0.0694
10299W        W53212  22.248  33.982  15.074 -0.1045  0.3243 -0.1172
10300W        W53213  18.318  27.685  19.855  0.2568  0.1258  0.0123
10301W        W53214  20.137  23.667  26.703  0.0532  0.1087 -0.1792
10302W        W53215  28.467  23.823  13.954  0.0900 -0.0897  0.1798
10303W        W53216  20.044   0.878  15.798 -0.0857 -0.0300 -0.2380
10304W        W53217  25.743  25.551  16.923  0.2947 -0.0494 -0.0884
10305W        W53218  21.441  28.218  21.579  0.0468 -0.1228 -0.0612
10306W        W53219  19.719  14.066  13.534  0.1024 -0.0095 -0.1259
10307W        W53220  27.986  33.454  19.460 -0.3044  0.2071 -0.0131
10308W        W53221  27.892  25.430  19.662 -0.2907 -0.0389  0.0103
10309W        W53222  27.394   1.338  19.087 -0.1038 -0.4603 -0.3364
10310W        W53223  21.947  25.721  12.514 -0.0018  0.2020  0.2212
10311W        W53224  19.359  29.048  22.949  0.0469  0.0143 -0.0354
10312W        W53225  23.980   2.607  16.491  0.1936 -0.2680  0.1993
10313W        W53226  14.292  28.532  16.493  0.0750 -0.0914 -0.4161
10314W        W53227  23.780  13.750  14.111 -0.0697 -0.0622  0.0778
10315W        W53228  19.961  21.646  26.064 -0.0668  0.2669  0.0264
10316W        W53229  16.603  22.621  23.143  0.0465  0.1555 -0.2187
10317W        W53230  23.148  33.163  14.909  0.0962  0.0074  0.0548
10318W        W53231  29.135  28.748  18.091 -0.0231  0.0096 -0.2630
10319W        W53232  25.633  28.802  24.175  0.2763  0.1594  0.2525
10320W        W53233  28.221  17.893  20.948 -0.1987 -0.0351  0.1329
10321W        W53234   3.061  25.687  17.415  0.0154  0.0795  0.2291
10322W        W53235  19.960  28.313  15.193 -0.1493 -0.1897 -0.3069
10323W        W53236  29.822  26.504  18.293 -0.2418 -0.1205  0.0270
10324W        W53237  11.378   0.377  18.660 -0.0852 -0.0271  0.0402
10325W        W53238  30.108  26.753  18.970  0.3487  0.1473  0.0451
10326W        W53239  17.861   1.804   2.478 -0.0309 -0.1835 -0.1374
10327W        W53240  27.233  20.154  12.967  0.0537 -0.1531 -0.0984
10328W        W53241  27.030  29.409  15.175  0.1895 -0.2144 -0.2701
10329W        W53242  33.334  33.497  26.527 -0.3562 -0.3967  0.1272
10330W        W53243  30.311  27.267  20.684  0.1139 -0.0056  0.0967
10331W        W53244  20.321  33.064  16.645 -0.4254 -0.3735  0.3890
10332W        W53245  26.678  26.388  16.810 -0.2335 -0.2425  0.0750
10333W        W53246  23.575  18.158  15.197  0.1123 -0.2211 -0.0725
10334W        W53247  10.019  25.339  16.562 -0.1555  0.0474  0.0009
10335W        W53248  20.900  28.884  28.854 -0.0309 -0.2486 -0.0397
10336W        W53249  29.389  31.569  16.477 -0.0868  0.0481  0.3474
10337W        W53250  17.205  26.264  18.682  0.0551 -0.2718  0.0370
10338W        W53251  17.979  33.819  15.200  0.0899 -0.1621 -0.0641
10339W        W53252  29.291  24.433  14.295  0.0309  0.3940  0.0603
10340W        W53253  27.395   0.308  15.337 -0.3211  0.2972 -0.0133
10341W        W53254  27.454  24.058  20.815  0.1527  0.0632  0.4028
10342W        W53255  13.846  28.865  21.346  0.0857 -0.0876 -0.0803
10343W        W53256  19.675  19.576  12.725 -0.2040  0.1944  0.0817
10344W        W53257  16.432  27.490  15.304 -0.1823 -0.2476  0.0472
10345W        W53258  26.702  29.761  16.302  0.0003 -0.2395  0.0148
10346W        W53259  13.485  26.507  13.845  0.0567 -0.0445 -0.0557
10347W        W53260  26.875  14.132  19.102 -0.0476  0.4268 -0.3967
10348W        W53261  26.201  21.821  15.150 -0.2166  0.3022 -0.0627
10349W        W53262  30.357  31.307  22.693  0.3489  0.0846  0.0283
10350W        W53263  23.087  28.032  13.124  0.2472 -0.3130  0.1682
10351W        W53264  25.492  29.928  14.753  0.0047  0.2599 -0.0851
10352W        W53265  24.159  26.635  18.001  0.2577  0.1777  0.0095
10353W        W53266  20.426  15.581  14.517  0.3083 -0.4165  0.1494
10354W        W53267  29.292  23.344  23.397 -0.0920 -0.0725  0.2809
10355W        W53268  26.223  24.115  19.582 -0.1675 -0.1064  0.0867
10356W        W53269  29.692  25.289  18.365  0.0355 -0.2538 -0.0859
10357W        W53270  25.073  27.644  17.944  0.3965  0.0011 -0.5363
10358W        W53271  15.024  26.079  18.073 -0.1070  0.0878  0.0040
10359W        W53272  24.185   1.515  14.643 -0.0041 -0.0436  0.2192
10360W        W53273  26.784  31.081  18.070  0.1862  0.1539  0.0336
10361W        W53274  26.607  26.338  13.453  0.2198  0.1110  0.2035
10362W        W53275  10.034  25.302  18.099 -0.3362 -0.2288  0.0602
10363W        W53276  25.069  33.331  18.882 -0.0919  0.0241 -0.0620
10364W        W53277  25.498  17.109  17.268 -0.0461  0.0935 -0.0673
10365W        W53278  22.899  27.084  22.236 -0.0229  0.0745  0.0932
10366W        W53279  27.544  33.662  28.718 -0.3503  0.1767  0.2556
10367W        W53280  23.452  24.841  12.074  0.0043  0.0779  0.2520
10368W        W53281  15.605  22.647  18.982 -0.1162  0.0434  0.3826
10369W        W53282  22.230  16.991  15.753  0.0578 -0.2063  0.3477
10370W        W53283  15.394  23.249  22.715  0.1638 -0.0826  0.3059
10371W        W53284  23.616  25.698  12.875 -0.2149 -0.2592 -0.2429
10372W        W53285  33.247  22.771  21.836  0.2167 -0.2473 -0.2285
10373W        W53286  26.869   8.527  25.531 -0.0841 -0.0223 -0.0718
10374W        W53287  27.710  20.481  17.986 -0.1927  0.0015  0.2187
10375W        W53288  20.299   7.694  17.243  0.1295  0.2614  0.0712
10376W        W53289  27.158  25.875  14.387  0.0682  0.1688 -0.1607
10377W        W53290  16.573  21.815  19.807 -0.0478  0.0729 -0.2463
10378W        W53291  21.557  24.413  20.621 -0.1894  0.2002 -0.3391
10379W        W53292   9.546  29.169  16.933 -0.1576  0.1045  0.0038
10380W        W53293  23.986  23.328  14.585  0.1282 -0.0593 -0.0726
10381W        W53294  21.246  22.218  21.427 -0.3639  0.4563  0.2926
10382W        W53295  26.802   0.366  27.975 -0.0059 -0.1086  0.1432
10383W        W53296  24.277  15.637  13.010  0.4170 -0.3464 -0.0236
10384W        W53297  27.743  31.494  17.793 -0.1818  0.0515  0.1188
10385W        W53298  14.314  24.033  18.471 -0.1456  0.0730 -0.1226
10386W        W53299  29.613  29.734  28.208  0.0465  0.1982 -0.1135
10387W        W53300  33.423  29.920  19.998 -0.1408  0.1408 -0.2481
10388W        W53301  29.378  30.877  23.344  0.1869 -0.1576  0.0383
10389W        W53302  24.801   7.118  20.497 -0.3367  0.0563  0.1996
10390W        W53303  33.066  28.553  14.844 -0.0967  0.1617 -0.2240
10391W        W53304  22.920  31.435  22.001  0.2806 -0.3221  0.1169
10392W        W53305  17.279  33.320  16.717  0.2524  0.2130  0.1552
10393W        W53306  25.587  24.041  24.452  0.1025  0.3087  0.2039
10394W        W53307  29.518   1.675  25.304  0.2155 -0.0393 -0.1675
10395W        W53308  15.066  26.506  15.405 -0.1434  0.3289 -0.1286
10396W        W53309  31.370  33.070  21.776 -0.2800  0.1506 -0.2180
10397W        W53310  30.674  22.083  27.661  0.2119 -0.1763  0.1583
10398W        W53311  33.084  34.040   0.659  0.1018 -0.0075  0.1089
10399W        W53312  25.510  33.608  17.521 -0.1353  0.0804  0.1788
10400W        W53313  13.972   2.089  20.586  0.0451 -0.0855 -0.2360
10401W        W53314  24.138  24.943  18.605  0.1030  0.3054 -0.0779
10402W        W53315  31.566  24.697  20.322 -0.1180  0.2378  0.1478
10403W        W53316   1.448  28.224  17.681 -0.1714 -0.2302  0.0565
10404W        W53317  26.147  31.450  18.651  0.3322 -0.2298  0.0750
10405W        W53318   8.630  22.165   1.511  0.0954  0.2016 -0.0020
10406W        W53319   1.091  30.650  18.276 -0.1307 -0.0520  0.1088
10407W        W53320  20.324  27.920  20.735 -0.1668 -0.1615 -0.0983
10408W        W53321  22.539  21.285  11.766 -0.2072  0.0572 -0.0079
10409W        W53322  22.270  23.756  14.894  0.2498  0.1685  0.0949
10410W        W53323  14.968  32.989  17.931  0.3787 -0.0131  0.0598
10411W        W53324  20.213   8.698  27.783 -0.0723  0.2180  0.1183
10412W        W53325  27.200  20.669  15.398  0.2512  0.0631 -0.2887
10413W        W53326  29.540  30.623  20.646  0.1331  0.0364  0.1051
10414W        W53327  12.456  20.918  17.141 -0.1098  0.0733  0.0048
10415W        W53328  20.326  24.093  17.981 -0.0103 -0.1852  0.0972
10416W        W53329  27.191  30.862  25.788 -0.0210 -0.0936 -0.0680
10417W        W53330  18.081   0.158  22.938  0.0561  0.2740  0.2199
10418W        W53331  23.385  24.730  23.622 -0.1497  0.3545 -0.0104
10419W        W53332  19.181   3.327  21.216  0.2015  0.0069 -0.5676
10420W        W53333  24.431  34.481  22.804  0.0205 -0.0762 -0.1337
10421W        W53334  23.877  18.691  16.324 -0.2055 -0.0274  0.3195
10422W        W53335  22.006  28.936  21.916  0.1239  0.1165  0.2821
10423W        W53336  17.973   0.012  18.887  0.2234  0.0208 -0.2270
10424W        W53337  33.330  33.842  24.639  0.0062 -0.2816 -0.1046
10425W        W53338  23.527  29.653  15.434  0.0098  0.1293 -0.0250
10426W        W53339  28.085  23.441  17.809 -0.3260 -0.0194  0.1306
10427W        W53340  27.213  29.537  17.451  0.0181  0.1403 -0.0064
10428W        W53341  29.684  34.323  19.430 -0.0536  0.2467 -0.0059
10429W        W53342   0.040  25.096  14.523  0.1326 -0.0744 -0.1868
10430W        W53343  27.553  25.128  13.111  0.1601 -0.0065  0.2957
10431W        W53344  25.275  28.614  16.003 -0.1324 -0.0430 -0.1093
10432W        W53345  21.172  19.393  12.210  0.1625  0.3331 -0.0680
10433W        W53346  27.315   6.501  23.715  0.1698  0.1245  0.2154
10434W        W53347  20.465  24.309  16.200  0.1651 -0.2325  0.3577
10435W        W53348  30.050   4.958  18.470  0.2947 -0.2049  0.0400
10436W        W53349  26.104  11.602  14.202 -0.0687 -0.1603 -0.1112
10437W        W53350  26.129   4.273  21.086  0.0739 -0.2786  0.0736
10438W        W53351  16.805  24.989  18.533 -0.1164 -0.0644 -0.1752
10439W        W53352  22.246  33.977  17.754  0.1174 -0.0967 -0.2758
10440W        W53353  28.077  25.586  20.127  0.0780  0.1756 -0.1042
10441W        W53354  25.840  30.192  19.623  0.0728  0.3241 -0.4440
10442W        W53355  20.508  18.733  22.876  0.1088 -0.1009  0.1367
10443W        W53356  22.834   0.593  18.977  0.1396  0.1459 -0.0158
10444W        W53357  18.453  24.256  13.790 -0.1179  0.0290  0.0893
10445W        W53358   1.319  19.210  26.568 -0.1569  0.0003 -0.0522
10446W        W53359   0.070  26.799  17.684 -0.1003  0.0945 -0.0482
10447W        W53360  21.251  26.883  15.299 -0.3467  0.0480 -0.0560
10448W        W53361   9.449  24.161  18.193 -0.1392 -0.3835  0.1995
10449W        W53362  15.669  25.096  20.251 -0.0205  0.0215  0.1856
10450W        W53363  29.570  31.791  21.422  0.3029 -0.1526  0.1834
10451W        W53364  16.363  27.595  16.231  0.3242 -0.2807  0.0156
10452W        W53365  25.073   4.589  17.285  0.0641  0.3555  0.2095
10453W        W53366  28.092   4.659  18.234 -0.2321  0.2229 -0.0522
10454W        W53367  32.469  28.659  20.593  0.0260  0.1058  0.3370
10455W        W53368  21.871  28.177  18.267  0.1336 -0.1275  0.0957
10456W        W53369  29.554   2.064  19.404  0.1028  0.3602  0.0225
10457W        W53370  11.091  13.525  15.311  0.0204  0.1468 -0.3136
10458W        W53371  19.245  25.557  17.372  0.0354  0.0262 -0.1304
10459W        W53372  20.338  26.519  21.315  0.0271  0.1800  0.0808
10460W        W53373  21.387  30.255  24.434  0.0795 -0.1138  0.0696
10461W        W53374  26.231  16.932  15.379 -0.0845  0.1581 -0.3088
10462W        W53375  31.538  34.337  23.165  0.0487 -0.3033 -0.5058
10463W        W53376  20.811  25.594  14.969  0.0052 -0.2550  0.1145
10464W        W53377  23.242  20.815  12.288 -0.1253  0.1677 -0.2595
10465W        W53378  29.846  27.328  18.165 -0.1115 -0.0255 -0.1640
10466W        W53379  20.175   0.249  13.453  0.2295 -0.2247  0.0056
10467W        W53380  26.142  32.639  14.508 -0.4746 -0.1877  0.0107
10468W        W53381  30.199  22.265  22.380 -0.0229  0.0266 -0.2145
10469W        W53382  24.331  34.203  15.179  0.1388 -0.0664 -0.0955
10470W        W53383  28.178  26.485  19.991 -0.1031  0.1375 -0.0342
10471W        W53384  31.737  22.339  18.457 -0.0525  0.2105  0.4459
10472W        W53385  26.383  26.357  25.273 -0.0400  0.3512  0.0251
10473W        W53386  29.926  31.091  24.603  0.1349  0.1495 -0.1173
10474W        W53387  23.322   1.617  22.836  0.3057  0.1472  0.0651
10475W        W53388  14.190  28.865  26.035 -0.0864  0.1061  0.1505
10476W        W53389  19.186  30.723  17.161  0.2297  0.4043 -0.2617
10477W        W53390  27.479  32.881  19.781 -0.1786  0.2099  0.1414
10478W        W53391  27.955  23.851  20.441  0.1635 -0.4050  0.2222
10479W        W53392  30.264  23.661  17.262  0.0637  0.0219  0.0528
10480W        W53393  25.606   2.250  25.863  0.3187 -0.0221  0.1083
10481W        W53394  27.936  31.173  19.168 -0.2470  0.1318  0.1827
10482W        W53395  26.533  10.080  20.326 -0.2987  0.1075  0.0962
10483W        W53396  32.091  31.086  20.141  0.1951 -0.3488  0.1093
10484W        W53397  25.139  22.685  19.039 -0.4608 -0.2065  0.0635
10485W        W53398  20.230  26.981  13.744  0.1036 -0.2251  0.1000
10486W        W53399  21.547  27.265  14.356 -0.0245  0.3664  0.2571
10487W        W53400  29.480  27.917  19.961 -0.0682  0.3074  0.2395
10488W        W53401  29.836  21.752  23.200 -0.2051 -0.1943 -0.3562
10489W        W53402  13.801  25.061  17.473 -0.2349  0.0038  0.0472
10490W        W53403  26.111  29.907  17.674 -0.0631  0.0370  0.2714
10491W        W53404  15.838   0.730  15.164 -0.0492  0.0712  0.1826
10492W        W53405   5.280   2.649  20.118  0.0147 -0.1999  0.1455
10493W        W53406  26.852  33.594  18.457  0.0389  0.1676  0.1949
10494W        W53407   2.758  30.578  15.586  0.0866  0.2485 -0.4931
10495W        W53408  34.252  30.282  19.864  0.0102  0.2402  0.4139
10496W        W53409  23.623  30.195  15.512  0.1959  0.1186 -0.3274
10497W        W53410  26.545  26.064  17.132 -0.0324  0.2915  0.0916
10498W        W53411   7.322  24.136  14.421 -0.2267  0.3638  0.0422
10499W        W53412  21.471  24.300  16.024 -0.0872  0.0987  0.2979
10500W        W53413  22.703  28.522  17.731 -0.0494  0.1005 -0.4602
10501W        W53414  20.947   3.608  16.505  0.1927 -0.1799  0.0504
10502W        W53415  12.074  27.083  21.912  0.0795 -0.0916 -0.1979
10503W        W53416  22.555  31.548  25.253  0.3836 -0.1227  0.3916
10504W        W53417  17.316  25.899  17.933 -0.4231  0.2004 -0.2575
10505W        W53418  17.723  30.815  20.560  0.1202  0.0766 -0.0537
10506W        W53419  21.453  31.964  14.003 -0.0113  0.0870  0.0748
10507W        W53420  21.535  22.416  13.887  0.1023  0.1605  0.1025
10508W        W53421  14.439  24.570  18.507  0.1049  0.1150 -0.0678
10509W        W53422  26.232  31.863  19.033  0.1943 -0.2372  0.1022
10510W        W53423  20.532  22.405  17.540 -0.2170  0.1349 -0.0585
10511W        W53424  23.837   2.105  17.239 -0.0665  0.2078  0.0989
10512W        W53425  25.442  14.670  17.419 -0.0007  0.1159 -0.2312
10513W        W53426  18.150  16.518  15.164 -0.1065 -0.0554  0.0183
10514W        W53427  27.893  25.543  14.726  0.0883  0.1869 -0.0413
10515W        W53428  31.755  33.453  26.475 -0.1838 -0.2358  0.0257
10516W        W53429  14.125  22.647  17.722  0.2748 -0.0439 -0.1463
10517W        W53430  32.712  25.137  19.672  0.2459  0.0680 -0.0679
10518W        W53431   1.016  27.995  27.396 -0.1513  0.2457 -0.1203
10519W        W53432  28.402  22.198  22.216 -0.0090  0.1204  0.4155
10520W        W53433  32.224  31.947  21.132 -0.1067 -0.0734 -0.1647
10521W        W53434  21.571  26.773  19.045  0.0885 -0.0467  0.2526
10522W        W53435  17.822  28.224  15.415  0.2414  0.2133 -0.1668
10523W        W53436  20.622   5.280  16.424 -0.0425 -0.1606  0.2852
10524W        W53437  24.358  33.038  14.539  0.1713  0.1057 -0.1142
10525W        W53438  31.210  21.883   4.989  0.0876  0.1151 -0.3472
10526W        W53439  12.323   3.056  29.498 -0.4140  0.0663  0.2887
10527W        W53440  13.002  12.194  12.623  0.1708 -0.2261 -0.3639
10528W        W53441  27.702  26.150  18.573 -0.2761 -0.2298 -0.0645
10529W        W53442  13.378  29.175  18.817  0.3138  0.2489  0.3644
10530W        W53443  20.278  29.699  14.813  0.1124 -0.0496  0.1652
10531W        W53444  26.487   6.619  26.020  0.1297  0.2872  0.0292
10532W        W53445   0.246  29.639  15.675  0.0571  0.0578  0.1179
10533W        W53446  24.154   5.029  22.226 -0.0463 -0.0168  0.0851
10534W        W53447  26.198  26.770  13.645 -0.2751  0.1053  0.2342
10535W        W53448  31.204  30.536  18.214  0.0100 -0.1339  0.0996
10536W        W53449  18.036  27.507  14.891 -0.4986  0.0707  0.2402
10537W        W53450  19.755  26.827  19.922 -0.2407 -0.1593  0.2154
10538W        W53451  29.196  27.767  13.052 -0.2227 -0.4100  0.1192
10539W        W53452  20.026  25.173  16.080  0.3285 -0.2440  0.1478
10540W        W53453  27.031  31.850  17.043 -0.0067  0.2062 -0.1130
10541W        W53454  25.245  22.954  13.850 -0.1808  0.1770  0.1456
10542W        W53455  30.080  29.553  26.763  0.1678 -0.2109 -0.0368
10543W        W53456  28.096   2.875  16.541 -0.2632  0.0007  0.0570
10544W        W53457  20.429  32.380  28.259  0.0060  0.1220  0.1491
10545W        W53458  29.719  31.357  18.507 -0.2263 -0.1559  0.4120
10546W        W53459  14.269  27.917  17.066  0.1753  0.0935  0.0709
10547W        W53460  15.065  26.162  14.291  0.0226 -0.0066 -0.2931
10548W        W53461  33.022   3.186  17.975 -0.0518 -0.3106 -0.0704
10549W        W53462  19.812  29.638  21.950  0.0019  0.2109  0.0442
10550W        W53463  17.926  26.224   0.378 -0.0956 -0.4108  0.1997
10551W        W53464  21.612  21.862  14.998 -0.2543 -0.2992 -0.0288
10552W        W53465  28.307  25.884  15.428 -0.1054 -0.4028 -0.0069
10553W        W53466  24.614   3.622  17.810 -0.0916  0.1771  0.3277
10554W        W53467  19.641  26.592  16.548 -0.3364  0.1416 -0.1804
10555W        W53468  24.414  20.433  17.669 -0.0717 -0.2337 -0.0387
10556W        W53469  26.074  24.462  12.440 -0.0408  0.2773 -0.1741
10557W        W53470  31.003  21.279  17.768 -0.0785  0.2429 -0.0708
10558W        W53471  24.544  32.997  18.297  0.1962  0.0091  0.1037
10559W        W53472  22.637  22.519  25.308  0.2211 -0.1087 -0.1450
10560W        W53473  24.629  21.402  16.828  0.1830 -0.0264 -0.1064
10561W        W53474  11.407   1.396  18.317  0.1054  0.2247 -0.2828
10562W        W53475  28.855  24.797  14.388  0.0699  0.0830  0.3423
10563W        W53476  26.552  29.263  16.448  0.1052 -0.1540  0.3574
10564W        W53477  14.265  25.048  23.021 -0.1527  0.2535 -0.0723
10565W        W53478  16.895  26.704  15.174 -0.0057  0.0051  0.1001
10566W        W53479  12.853  25.213   4.675 -0.0656  0.0066 -0.0638
10567W        W53480  18.530  31.514  17.535  0.0601  0.3231 -0.2055
10568W        W53481  22.664  25.809  25.639 -0.1598  0.1049  0.1001
10569W        W53482  27.966  20.150   4.802  0.4991 -0.2117  0.0398
10570W        W53483  30.268  27.800  14.886 -0.0925 -0.0779  0.1691
10571W        W53484   5.453  26.464  18.219  0.1551  0.3423  0.1248
10572W        W53485  23.054  33.054  21.512  0.1207  0.2031 -0.0953
10573W        W53486  26.347  32.535  16.331  0.0207  0.0698 -0.1649
10574W        W53487  32.701   3.843  23.612 -0.0987  0.1335  0.0186
10575W        W53488  24.198  28.518  24.824 -0.1480 -0.1402 -0.0726
10576W        W53489  24.892   0.001  16.051 -0.0417  0.3058  0.1653
10577W        W53490  23.105  27.473  18.357 -0.1108 -0.1837  0.1078
10578W        W53491  28.705  27.112   3.737 -0.0573 -0.0503 -0.0812
10579W        W53492  19.372  23.522  13.342  0.3189 -0.1880 -0.2648
10580W        W53493  23.668  26.258  23.754  0.0940 -0.2938 -0.0338
10581W        W53494  25.073  27.461  13.441 -0.3305 -0.0465  0.1785
10582W        W53495  24.229  31.940  16.008 -0.0086 -0.0359 -0.2418
10583W        W53496  32.560  27.013  18.946 -0.5094  0.1506  0.0605
10584W        W53497  25.586  29.747  20.291 -0.0621 -0.0716 -0.1784
10585W        W53498  18.591  30.490  28.187 -0.4437  0.0497 -0.0312
10586W        W53499  34.391  24.898  24.530 -0.2949 -0.0072  0.2375
10587W        W53500  32.179   1.718  23.387 -0.0649  0.2009  0.3658
10588W        W53501  25.981  30.280  22.722 -0.0913  0.3843  0.1174
10589W        W53502  18.246  15.953  12.603  0.0635  0.1587 -0.0395
10590W        W53503  17.275  25.355  19.323  0.0835  0.0126 -0.4092
10591W        W53504  25.005  21.208  20.014  0.4017  0.2757 -0.0554
10592W        W53505  22.892  28.803  19.214  0.4585 -0.3089  0.1345
10593W        W53506  21.598  30.879  28.495 -0.0644  0.1013 -0.2510
10594W        W53507   0.772   0.972  24.312 -0.0043  0.0015  0.0492
10595W        W53508  23.965  27.069  18.207  0.0804  0.0384 -0.0004
10596W        W53509  11.941  19.737  19.217  0.1380  0.0834  0.2914
10597W        W53510  17.365  25.345  24.907  0.0241 -0.0436  0.2427
10598W        W53511  25.451   3.238  22.067 -0.0521  0.4151 -0.2035
10599W        W53512  22.998  30.613  13.335 -0.0163  0.0134 -0.2422
10600W        W53513  24.866  24.597  19.176 -0.0005 -0.1787  0.1954
10601W        W53514  33.575  25.983  17.241  0.0290 -0.1867 -0.0052
10602W        W53515  25.370  26.833  22.647  0.1887 -0.1951  0.3731
10603W        W53516  10.862  24.331  18.909  0.0990 -0.0170  0.1793
10604W        W53517  27.095  31.866  25.239  0.0854 -0.3612  0.0530
10605W        W53518  31.109  25.911   0.068 -0.1928  0.0039  0.0804
10606W        W53519  33.336  28.039  18.998  0.1889 -0.0301 -0.1963
10607W        W53520  18.788  28.330  22.201 -0.2352  0.1495 -0.3971
10608W        W53521  29.052  24.743  25.637 -0.0230  0.0708  0.1304
10609W        W53522  28.386  22.166  21.643  0.0826 -0.0794  0.0759
10610W        W53523  22.121  22.246  16.000 -0.2826  0.2512  0.0327
10611W        W53524  23.431  33.208  24.739 -0.1152 -0.1878  0.1173
10612W        W53525  26.371  26.151  21.023 -0.0822 -0.1306  0.1362
10613W        W53526   7.208  25.584  15.310  0.1538 -0.0345  0.0034
10614W        W53527  22.892  27.184  13.875  0.2700  0.4758 -0.2035
10615W        W53528  24.465  16.873  18.667 -0.1592  0.1366 -0.1138
10616W        W53529  25.266  15.332  14.639  0.0834  0.2688 -0.1737
10617W        W53530  29.740  29.226  14.513  0.4310  0.0156  0.2967
10618W        W53531  29.498  32.131   0.188  0.0802  0.2183  0.1783
10619W        W53532   9.185  23.067   3.170  0.0328 -0.0628 -0.0211
10620W        W53533  28.096   4.765  28.509  0.2669  0.1136 -0.1196
10621W        W53534  22.588  33.239  24.023  0.2671 -0.0259  0.2290
10622W        W53535  11.550  20.820  18.874  0.0461 -0.1566 -0.1316
10623W        W53536  29.433  27.052  16.385  0.1017 -0.1381  0.2529
10624W        W53537  17.894  16.337  12.635  0.1613  0.2208  0.1648
10625W        W53538  25.670  28.963  25.421  0.0472  0.0967 -0.5460
10626W        W53539  26.327  30.448  20.959 -0.5032 -0.1846  0.2226
10627W        W53540  28.450  28.509  29.213  0.2806 -0.1136  0.0529
10628W        W53541  23.495  28.976  26.639 -0.1151 -0.2954 -0.3105
10629W        W53542   1.197  28.233  24.750  0.2421  0.2091 -0.3107
10630W        W53543  17.389  32.830  15.713 -0.0477  0.1116 -0.0801
10631W        W53544  25.513  20.717  19.466  0.4603 -0.0044  0.0680
10632W        W53545  20.057  18.815  11.829  0.0179 -0.2442 -0.1340
10633W        W53546  24.675  29.396  24.229 -0.0833 -0.2959 -0.0057
10634W        W53547  22.341   2.132  14.355  0.0276  0.1591 -0.1118
10635W        W53548  25.970  23.379  27.667 -0.1906  0.1404 -0.2266
10636W        W53549  16.051  30.377  19.356 -0.2416  0.1788  0.0023
10637W        W53550  25.831  27.741  19.381  0.1382  0.1691  0.0424
10638W        W53551  21.734  28.933  19.885 -0.0147  0.1374  0.0621
10639W        W53552  22.102  27.280  18.126  0.0939  0.2347  0.1161
10640W        W53553  22.040  31.172  18.398  0.2238  0.0680  0.2229
10641W        W53554  23.064  22.970  17.283 -0.0665  0.0807  0.1517
10642W        W53555  17.688  23.019  27.030 -0.0443  0.1011 -0.0433
10643W        W53556  25.926  22.039  19.368  0.1080 -0.3284 -0.0819
10644W        W53557  21.908  28.853  24.146 -0.0114  0.2720 -0.1800
10645W        W53558   6.565   0.426  19.791  0.2561 -0.1331  0.0389
10646W        W53559  27.919   0.729  16.926 -0.1243  0.1507  0.1282
10647W        W53560  25.981  34.181  17.192  0.2601  0.2394  0.3391
10648W        W53561  33.247  27.327  16.586 -0.1780  0.0935 -0.0494
10649W        W53562  26.745  32.248  23.103 -0.2153 -0.0281  0.3492
10650W        W53563  24.815  33.723  21.113  0.0013 -0.3168  0.4101
10651W        W53564  29.704  22.396  14.773  0.2017  0.0200  0.1245
10652W        W53565  29.676  13.331  16.890 -0.1736 -0.0127 -0.1155
10653W        W53566  24.302  34.053  28.032 -0.2049  0.0813  0.3043
10654W        W53567  28.520  31.141  21.556 -0.1740 -0.4224 -0.2610
10655W        W53568  21.338  24.451  16.606 -0.0880 -0.1671  0.1923
10656W        W53569  27.216   1.212  14.860 -0.0599  0.3032  0.1299
10657W        W53570  26.295  28.262  20.593 -0.0503  0.0649 -0.2878
10658W        W53571  10.608  18.393  16.461 -0.2034  0.0181 -0.2595
10659W        W53572  31.969  15.106  17.396 -0.0239  0.1441  0.0047
10660W        W53573  32.709  20.167  24.653  0.1224  0.1124  0.2237
10661W        W53574  20.654  22.755  19.235 -0.0871 -0.0832 -0.0526
10662W        W53575  29.688  32.188  15.021 -0.0378 -0.1822  0.2785
10663W        W53576  31.594  27.513  24.020  0.1325 -0.1220  0.0077
10664W        W53577  24.093  19.973  14.315 -0.1173 -0.1888  0.1421
10665W        W53578   9.751  25.136  19.992 -0.0392 -0.0960  0.3770
10666W        W53579  26.514  22.607  13.301 -0.1308  0.3205 -0.4047
10667W        W53580  29.493  24.053  15.484 -0.1977  0.0781  0.0239
10668W        W53581  24.996  32.808  19.603  0.0686  0.0364  0.2234
10669W        W53582  18.275  22.140  18.344 -0.0506 -0.0679  0.2980
10670W        W53583  22.233  25.185  14.530 -0.1356 -0.2014 -0.0346
10671W        W53584  23.170  26.456  12.571 -0.1850 -0.0868  0.0354
10672W        W53585  19.131  28.969  15.102  0.1786  0.2137 -0.1957
10673W        W53586  19.576  28.269  23.138  0.3388  0.2593 -0.0360
10674W        W53587  19.957  26.431  21.668 -0.2982 -0.0773 -0.2299
10675W        W53588  27.579  28.584  21.059  0.0865  0.2674  0.1333
10676W        W53589  22.638  21.010  27.389  0.0228  0.5380 -0.0447
10677W        W53590  17.363  24.815  15.987 -0.2064 -0.1803  0.1587
10678W        W53591   7.711  28.366  17.610  0.0015 -0.2622  0.3411
10679W        W53592  32.936  21.781  16.861 -0.1280 -0.0432 -0.1095
10680W        W53593  19.816  29.210  29.434 -0.0277  0.0218 -0.0284
10681W        W53594  26.730  31.018  21.736 -0.0877  0.2552  0.2823
10682W        W53595  21.641  22.966  23.088  0.0339 -0.4107  0.0943
10683W        W53596  16.120  29.541  27.546  0.0207  0.1932 -0.1274
10684W        W53597  34.490  12.898  20.657 -0.0514  0.0422 -0.1219
10685W        W53598  24.869  26.721  15.079 -0.0851 -0.0994  0.2974
10686W        W53599  25.982  30.732  14.156 -0.4125 -0.1545 -0.3800
10687W        W53600  19.169  28.065  19.935  0.1429  0.0521  0.4635
10688W        W53601  14.473  32.165  19.944 -0.1896 -0.1366  0.0456
10689W        W53602  21.979  25.609  14.348  0.0622  0.1864  0.0615
10690W        W53603  24.612  34.128  20.863  0.1291 -0.2299  0.1152
10691W        W53604  17.405  20.640  13.537  0.0058  0.2501 -0.1734
10692W        W53605  29.866  25.777  20.118  0.0685 -0.1054  0.1317
10693W        W53606  21.373  23.485  17.638  0.1261  0.0551  0.0715
10694W        W53607  28.957  28.876  21.424 -0.3668  0.0558 -0.1811
10695W        W53608  24.764  26.618  14.531  0.1554 -0.1214 -0.2852
10696W        W53609  22.734  25.616  16.745 -0.0415  0.1461 -0.1782
10697W        W53610   2.267  22.091  17.819 -0.1609  0.2194  0.0922
10698W        W53611  28.438  25.966  21.323 -0.3947 -0.0819  0.1107
10699W        W53612  21.402  29.659   1.721  0.0656 -0.0115  0.1921
10700W        W53613  24.743  23.284  19.807 -0.4199  0.2873 -0.1931
10701W        W53614  18.003  26.307  18.639 -0.0763  0.0515  0.2937
10702W        W53615  18.633  31.205  16.412 -0.1863  0.2788  0.0347
10703W        W53616  26.101  29.560  15.281 -0.1295  0.0231 -0.2299
10704W        W53617  26.794  24.035  17.794  0.1387 -0.2937  0.1583
10705W        W53618  27.774  28.805  15.461  0.0547  0.2272 -0.1973
10706W        W53619  29.354  29.137  21.237  0.1490  0.1145  0.2253
10707W        W53620   7.287  32.665  24.180  0.0974  0.0134 -0.1798
10708W        W53621  34.411  28.831  18.160 -0.1964 -0.3016 -0.2141
10709W        W53622  30.810  29.189   0.415 -0.2749 -0.0404 -0.1593
10710W        W53623  15.793  32.129  16.187  0.1722 -0.2145 -0.3500
10711W        W53624  21.129  20.717  24.780  0.3548  0.1133  0.0146
10712W        W53625  18.586  22.905  21.414 -0.1612 -0.2210 -0.2716
10713W        W53626  31.236   1.929  20.433  0.1384  0.2829 -0.1133
10714W        W53627  16.061  29.188  23.710 -0.0161  0.0130 -0.0693
10715W        W53628  16.343  29.697  19.856 -0.0265 -0.1862  0.0371
10716W        W53629  22.195  28.093  23.497 -0.0696 -0.3289  0.1785
10717W        W53630  27.327   2.063  14.863 -0.2620  0.1804  0.2965
10718W        W53631  22.911  25.855  22.420  0.0458  0.0466  0.0685
10719W        W53632  22.496  30.682  17.674 -0.1031  0.0853  0.5084
10720W        W53633  22.855  24.724  13.526 -0.1382 -0.1986  0.0648
10721W        W53634  10.365  26.428  18.962 -0.0666 -0.1890 -0.1077
10722W        W53635  30.001  29.313  22.773 -0.3088  0.3923  0.2543
10723W        W53636  10.218  19.652  15.152  0.0713  0.3962 -0.0870
10724W        W53637  23.479  25.529  16.192 -0.0341 -0.3791 -0.0256
10725W        W53638  28.337  32.530  26.585  0.1346 -0.1098 -0.0881
10726W        W53639  25.019  19.249  14.540 -0.0731  0.2103  0.2982
10727W        W53640  11.723  21.892   5.724  0.0126  0.0871  0.0016
10728W        W53641  22.248  29.783  17.660  0.3040  0.0380  0.1903
10729W        W53642  22.215  33.672  14.649  0.2263 -0.2736 -0.2690
10730W        W53643  23.190  15.098  14.852  0.1585  0.0411  0.0554
10731W        W53644  23.913  28.393  15.111 -0.2526  0.1202 -0.1258
10732W        W53645  29.549   3.284  19.445 -0.1404 -0.0059 -0.0320
10733W        W53646  18.338  32.515  14.719 -0.0518  0.0570  0.1350
10734W        W53647  26.725  27.264  18.419 -0.0269 -0.0532 -0.0285
10735W        W53648  28.537  33.066  22.654  0.0443  0.2642  0.2283
10736W        W53649  26.517  33.208  16.342 -0.1481 -0.3358 -0.5403
10737W        W53650  28.134  20.121  26.375 -0.0724 -0.2584 -0.2159
10738W        W53651  30.080   4.454  17.595  0.0666 -0.1093  0.1850
10739W        W53652  23.634  14.395  12.371 -0.2889  0.1384 -0.2520
10740W        W53653  25.234  24.433  26.799  0.2000  0.0476  0.1918
10741W        W53654  15.620  25.953  19.097 -0.0882 -0.3014 -0.0372
10742W        W53655  21.939   3.133  15.756 -0.2905  0.0733 -0.1932
10743W        W53656  33.313  32.799  23.676  0.0041 -0.0185 -0.0471
10744W        W53657  23.573  32.989  14.046 -0.4084 -0.0795  0.0864
10745W        W53658  20.884  21.492  18.691  0.0242  0.1243  0.1050
10746W        W53659  11.989  30.028   0.206 -0.2681 -0.0170 -0.1754
10747W        W53660  21.587  22.830  12.125  0.0245  0.3595  0.3384
10748W        W53661   1.544  26.037  24.120  0.1726 -0.0591  0.0587
10749W        W53662  30.678  27.448  25.222  0.2170 -0.0694 -0.2066
10750W        W53663  26.516  17.990  15.344  0.2629  0.1079  0.1126
10751W        W53664   2.956  15.836   0.236  0.0217  0.0161  0.3574
10752W        W53665  25.258   0.566  21.357 -0.2496  0.2925 -0.0282
10753W        W53666   9.385  22.320  16.963 -0.2744 -0.0285 -0.2112
10754W        W53667  12.071  26.605  17.204 -0.2436  0.0296  0.2048
10755W        W53668   1.001  18.538  21.446 -0.1398 -0.2148  0.1007
10756W        W53669  31.261  25.862  18.818  0.3400 -0.1791  0.0204
10757W        W53670  32.364  16.096  21.049 -0.0118  0.1321  0.3688
10758W        W53671  18.189  22.069  20.044  0.0719 -0.1548 -0.0328
10759W        W53672  28.568  26.495  19.536 -0.0352  0.2184 -0.1327
10760W        W53673  15.150  22.173  23.290  0.1802 -0.1839 -0.1900
10761W        W53674  26.765  22.766  15.380  0.0121  0.0962  0.0191
10762W        W53675  30.311  28.810  17.407 -0.0206  0.0298  0.0366
10763W        W53676  29.236  24.446  20.557  0.1724 -0.0715  0.1272
10764W        W53677  28.398  32.034  16.497 -0.0622  0.0772 -0.0255
10765W        W53678  32.564  33.178  26.342 -0.0297 -0.1232 -0.2105
10766W        W53679  21.768  31.505  15.511  0.0268  0.1893  0.1741
10767W        W53680  23.217  24.248  28.348  0.1248 -0.1019  0.2460
10768W        W53681  34.099  29.504   0.061 -0.0845  0.1095 -0.0991
10769W        W53682  19.903  26.356  23.193  0.0561  0.2980  0.1507
10770W        W53683  25.321  33.139  17.535 -0.2377 -0.0831  0.2533
10771W        W53684  20.066  30.547  16.592  0.1747 -0.1684 -0.0675
10772W        W53685  32.706  18.604  26.471 -0.1893  0.2538  0.0707
10773W        W53686  25.825  23.491  15.856  0.1686 -0.4073  0.2289
10774W        W53687   5.744  22.341  16.332 -0.2052 -0.3407 -0.0843
10775W        W53688  14.340  24.139   1.120  0.2309 -0.0166 -0.0169
10776W        W53689  25.411  27.931  20.211  0.2913 -0.1594  0.0326
10777W        W53690  14.342  22.877  19.296  0.0004 -0.2470 -0.0528
10778W        W53691  25.652  32.288  19.045 -0.5677 -0.0442  0.0814
10779W        W53692  24.829  22.315  24.142  0.1813  0.1945  0.4461
10780W        W53693  26.362  18.059  20.443  0.1967  0.0971 -0.1722
10781W        W53694  28.790  26.830  15.804 -0.1826 -0.1532 -0.0470
10782W        W53695  28.210  25.873  19.208  0.3516 -0.2741 -0.2689
10783W        W53696  20.637  25.420  13.544  0.1076 -0.2221 -0.1184
10784W        W53697  23.329  32.548  18.950  0.1539 -0.1022  0.4000
10785W        W53698  10.488  30.184  23.785  0.0074 -0.3016  0.1141
10786W        W53699  22.333  23.379  12.462 -0.1264 -0.5957  0.0491
10787W        W53700  13.925  28.962  18.125  0.0332  0.2428  0.1902
10788W        W53701  26.896  15.511  21.711  0.0900 -0.0287 -0.0372
10789W        W53702  25.579  32.980  25.552  0.1457  0.1503  0.1481
10790W        W53703  32.639  14.211  15.582  0.2673 -0.0553  0.0403
10791W        W53704   7.081  27.121  20.574  0.1398 -0.0177  0.0160
10792W        W53705  22.102   0.038  20.448 -0.0594 -0.0847 -0.1798
10793W        W53706  21.260  22.205  16.671 -0.1697  0.3165  0.3152
10794W        W53707   0.049  29.702  25.327 -0.0794 -0.3642  0.0247
10795W        W53708  32.962   4.678  16.195  0.0048  0.0940 -0.0429
10796W        W53709  27.643  29.909  13.203 -0.1533 -0.1490  0.0605
10797W        W53710  28.595  23.085  16.071 -0.0927  0.0054  0.7114
10798W        W53711  21.552  26.027  14.458 -0.1106  0.0760  0.1536
10799W        W53712  22.256  23.962  18.048  0.1509  0.0028  0.0071
10800W        W53713  29.924  20.447  28.018  0.2625 -0.0628 -0.0129
10801W        W53714  23.148  33.332  20.195 -0.0259  0.0975 -0.1459
10802W        W53715  23.413  22.901  24.146  0.1574 -0.4450  0.3973
10803W        W53716  25.830  25.797  13.797 -0.2710  0.2187  0.0052
10804W        W53717  24.521  25.614  17.088  0.0643 -0.1990 -0.0849
10805W        W53718  22.056  31.485  24.173 -0.4068 -0.1617 -0.0771
10806W        W53719  18.610  32.930  16.378  0.0909  0.1049  0.4959
10807W        W53720  22.467  27.325  29.284  0.3376 -0.1612  0.1143
10808W        W53721  28.621  32.745  25.849 -0.1297 -0.0241 -0.1475
10809W        W53722  20.995  32.584  19.711 -0.1811 -0.0893 -0.0964
10810W        W53723  18.990  21.805  15.718 -0.2137 -0.5350  0.2014
10811W        W53724  24.909  26.506  16.886 -0.2276  0.0867  0.0736
10812W        W53725  27.396  22.408  20.532  0.3177  0.3991 -0.4402
10813W        W53726  13.200  27.539  16.035 -0.0964 -0.0982 -0.3050
10814W        W53727  30.363  28.584  23.283 -0.1996 -0.0411  0.2234
10815W        W53728  19.739  26.554  24.524 -0.2330 -0.1411  0.2175
10816W        W53729  26.993  20.082  17.094 -0.0426 -0.1225  0.2792
10817W        W53730  18.318  23.630  23.927  0.0441  0.0468 -0.0976
10818W        W53731  33.839  26.668  14.310  0.1315  0.2425  0.0836
10819W        W53732  26.636   5.402  20.382 -0.1010 -0.0455  0.0677
10820W        W53733  23.254  23.189  14.863  0.0891  0.2555  0.1455
10821W        W53734  33.366  33.581  22.583  0.2338 -0.2750 -0.1699
10822W        W53735  21.714  26.321  18.823  0.0672 -0.1154  0.1653
10823W        W53736  23.725  31.967  15.582  0.0343 -0.1086  0.0515
10824W        W53737  19.360  27.936  14.509 -0.0382  0.1756 -0.3620
10825W        W53738  17.367  11.922  16.875 -0.0041 -0.0534 -0.1973
10826W        W53739  29.074  19.258  16.937 -0.1164 -0.0895  0.0250
10827W        W53740  13.029  28.736  25.124  0.0915 -0.0310 -0.0760
10828W        W53741   0.393  25.209  14.157  0.0042  0.1719  0.1422
10829W        W53742  30.377  24.579  19.982 -0.0920  0.3250  0.1673
10830W        W53743  30.804  10.280  25.578 -0.2657  0.2606 -0.1375
10831W        W53744  33.446  18.072  17.905 -0.3542  0.0965  0.0930
10832W        W53745  20.129  24.117  22.728 -0.1456 -0.0547 -0.0523
10833W        W53746  19.106  27.845  17.234  0.1288 -0.0146 -0.1867
10834W        W53747  24.876  32.081  20.097  0.2245 -0.1951 -0.0397
10835W        W53748  14.723  21.039  13.973 -0.0495  0.2269  0.2222
10836W        W53749  27.056  28.670  14.567  0.0848  0.2321  0.0394
10837W        W53750  33.770  27.393  19.312 -0.0244  0.0631 -0.3031
10838W        W53751  12.311  27.169  25.297  0.1313 -0.0075 -0.0335
10839W        W53752  28.825  27.174  25.063 -0.2241 -0.1468  0.2205
10840W        W53753  19.859  24.221  14.005  0.1272  0.1112  0.1123
10841W        W53754  23.199  26.414  15.172  0.0195  0.2383 -0.1031
10842W        W53755  25.420  28.472  19.986  0.0387  0.4580 -0.2654
10843W        W53756  23.853   2.239  13.959 -0.0860  0.0567  0.2010
10844W        W53757  20.915  28.756  23.248  0.1306  0.0551 -0.0878
10845W        W53758  19.208  29.799  22.594  0.1252  0.0155 -0.4436
10846W        W53759  20.563  28.169  18.476 -0.0482  0.0513  0.0693
10847W        W53760  17.500  29.184  27.752  0.1077 -0.4204 -0.3934
10848W        W53761  19.247  17.395   3.918  0.4223 -0.1122 -0.2319
10849W        W53762  22.550  19.882  25.288 -0.0174  0.0137  0.2114
10850W        W53763  19.224  21.365  15.486 -0.2237  0.1567 -0.3143
10851W        W53764  11.351  30.263  23.790 -0.3448  0.2230  0.3111
10852W        W53765  30.525  32.219  18.463 -0.0454  0.0512 -0.0602
10853W        W53766  21.317   0.821  18.215  0.3797 -0.0188 -0.4101
10854W        W53767  32.302  25.949  19.650 -0.0155 -0.1683 -0.3376
10855W        W53768  25.095  16.172  19.077  0.1080  0.0079 -0.0700
10856W        W53769  23.438  33.926  20.094 -0.0328  0.1439  0.2578
10857W        W53770  30.800  13.372  16.976 -0.0767  0.1091  0.0832
10858W        W53771  21.893  29.281  13.742  0.2108  0.0276  0.1415
10859W        W53772  19.642  22.207  14.080  0.1937  0.0778  0.0783
10860W        W53773  23.052  21.375  13.594  0.3279  0.0822  0.0315
10861W        W53774  21.245  20.262  23.978  0.3610 -0.1148 -0.0340
10862W        W53775  33.207  32.820  16.765  0.3438 -0.2344  0.2656
10863W        W53776  13.659  29.782  19.970  0.0713  0.1689  0.3003
10864W        W53777  25.273  26.625  17.729 -0.0947  0.0040  0.1773
10865W        W53778  15.375  21.016  20.487  0.0024 -0.2291 -0.0104
10866W        W53779  20.818  31.779  20.367  0.2364  0.4033 -0.5288
10867W        W53780  23.987  16.655  13.171 -0.1272  0.1365  0.1095
10868W        W53781  22.729  33.116  20.579  0.1521  0.0039 -0.0830
10869W        W53782  26.380  23.131  18.110 -0.0001  0.1677 -0.0103
10870W        W53783  21.400   3.192  13.973 -0.2990 -0.1644  0.2420
10871W        W53784  31.072  31.596  15.965  0.0955 -0.0543 -0.0664
10872W        W53785  28.299   4.610  15.043  0.1585  0.1620  0.1202
10873W        W53786  23.246  21.186  19.985  0.1306  0.2663  0.1181
10874W        W53787  25.219  28.573  20.883  0.0574 -0.2915  0.1264
10875W        W53788  23.581  19.363  21.932 -0.1501 -0.1968 -0.1844
10876W        W53789  29.428  21.937  23.041 -0.1077  0.0464 -0.4509
10877W        W53790  23.387  13.295  19.569  0.0224 -0.1916 -0.1391
10878W        W53791  34.100   5.874  19.857  0.3645  0.1028  0.1510
10879W        W53792  29.621  34.285  19.982 -0.2416  0.1239 -0.1672
10880W        W53793  23.226  33.871   2.514  0.0098 -0.0727  0.3581
10881W        W53794  22.858  28.503  23.802  0.1650  0.1500  0.1733
10882W        W53795  13.647  30.174  17.822 -0.1201  0.0082  0.0497
10883W        W53796   0.333   2.261  27.438  0.1817  0.0315 -0.0324
10884W        W53797  22.670  19.090  26.111 -0.0614  0.1575  0.0201
10885W        W53798  33.994  30.954  18.295  0.2484 -0.0215  0.0051
10886W        W53799  21.295  31.656  29.755 -0.0682  0.0323  0.1327
10887W        W53800   0.053  31.935  17.033  0.0960 -0.0196 -0.0163
10888W        W53801  16.520  21.806  18.684 -0.2700  0.1000  0.2295
10889W        W53802  16.334  21.621  14.353  0.1530 -0.1557 -0.0286
10890W        W53803  28.684  23.765  18.653 -0.2158  0.1197 -0.0788
10891W        W53804  24.389  25.368  14.379  0.1806 -0.0328  0.6529
10892W        W53805  27.027  25.782  19.529  0.0255 -0.2344  0.2470
10893W        W53806  21.709  25.710  20.273  0.0726 -0.4228  0.1013
10894W        W53807  22.029  22.154  23.642  0.2082 -0.0893 -0.0483
10895W        W53808  25.004   2.811  17.404  0.1999  0.2861  0.1776
10896W        W53809  11.606  30.750  21.989  0.2000 -0.1722  0.3038
10897W        W53810  24.122  16.740  16.189 -0.1170 -0.1086 -0.0379
10898W        W53811  28.887  30.622  14.505 -0.2420 -0.2334 -0.1779
10899W        W53812  23.972   2.589  19.319 -0.0513 -0.0303 -0.1830
10900W        W53813  20.159   6.506  21.368 -0.2666 -0.0067 -0.2776
10901W        W53814  16.077  25.884  17.346  0.0743  0.1561  0.0271
10902W        W53815  27.451  28.631  23.580 -0.0864  0.3829  0.3390
10903W        W53816   0.261  29.228  25.205 -0.2671  0.1089  0.3580
10904W        W53817  17.353  34.221  22.196  0.0476  0.2484  0.1936
10905W        W53818  20.175  21.276  25.444 -0.1493 -0.0132 -0.2366
10906W        W53819  30.352  30.288  15.863 -0.1647  0.0004  0.0992
10907W        W53820  27.499  18.680  17.963  0.0282 -0.0522 -0.3395
10908W        W53821  23.638  24.157  16.646 -0.0793 -0.0502  0.0403
10909W        W53822  17.499  18.518  11.712  0.0880 -0.0524  0.0895
10910W        W53823  24.965  23.381  14.077 -0.0024  0.1206 -0.3981
10911W        W53824  26.522  27.307  20.755 -0.2490  0.2723 -0.0781
10912W        W53825  23.036  31.971  17.392 -0.2148 -0.0430 -0.0713
10913W        W53826  18.068   2.398  16.285  0.0472 -0.2000  0.0325
10914W        W53827  22.001   1.715  15.820 -0.1212 -0.2861 -0.0063
10915W        W53828  28.371   0.150   1.971  0.4127 -0.2996  0.0284
10916W        W53829  32.819  25.076  18.714  0.1046  0.0704 -0.0695
10917W        W53830  25.996  23.631  17.299 -0.1032 -0.1075  0.0231
10918W        W53831  24.597  34.227  27.631 -0.0490 -0.2419  0.1304
10919W        W53832  26.617  21.453  24.800  0.0145 -0.4658  0.0096
10920W        W53833  16.166  30.102  15.449 -0.3975  0.3330 -0.2020
10921W        W53834  16.784   3.493   1.906  0.0200 -0.2131  0.0213
10922W        W53835  18.878  33.450  22.094 -0.0174 -0.1033 -0.0239
10923W        W53836  18.436  33.573   4.204 -0.3673  0.2918  0.1267
10924W        W53837  28.703   4.721  19.622  0.2308 -0.0530 -0.0312
10925W        W53838  30.554  25.742  25.876  0.1302 -0.1659  0.0562
10926W        W53839  25.302  17.316  19.725  0.3479  0.0316 -0.0222
10927W        W53840  27.024  20.100  23.043 -0.0992 -0.2607 -0.1406
10928W        W53841  24.772  19.761  24.528  0.0129  0.0977  0.0943
10929W        W53842  19.891  27.736  13.839 -0.0458  0.3261 -0.1944
10930W        W53843  22.005  22.176   0.671  0.1996 -0.2947  0.1192
10931W        W53844  24.982  26.831   3.933 -0.0530 -0.1245 -0.0960
10932W        W53845  21.875  29.978  18.976 -0.0098  0.1854  0.0053
10933W        W53846  31.724  16.374  23.580 -0.1013  0.2786  0.0505
10934W        W53847  20.556  26.817   5.893  0.1403 -0.0423 -0.4133
10935W        W53848  24.991  22.794  26.512  0.0544  0.0334  0.0165
10936W        W53849  20.696  19.570  26.810 -0.0419 -0.1856  0.0235
10937W        W53850  22.452  33.303  27.535  0.0061 -0.0962 -0.0206
10938W        W53851  13.381   0.201  23.615  0.2364 -0.0406 -0.1995
10939W        W53852  17.943   2.247  29.030 -0.0246  0.3942 -0.0277
10940W        W53853  32.401  21.515   0.929  0.0193 -0.1776  0.1827
10941W        W53854  33.379  21.141  19.686  0.1894 -0.0817 -0.2778
10942W        W53855  21.035  31.399  17.051  0.0176 -0.0731 -0.1301
10943W        W53856  19.678   0.852   3.966 -0.1150  0.2338  0.1874
10944W        W53857  12.404  23.187  18.674 -0.2081 -0.0193  0.2334
10945W        W53858  21.087  32.832  26.071  0.1068 -0.0823 -0.0452
10946W        W53859  27.752  28.427  24.410  0.1034 -0.1350 -0.2066
10947W        W53860  29.974  29.804  23.061  0.0520 -0.0321  0.1054
10948W        W53861  22.922  25.504  18.453  0.1434 -0.3749  0.1232
10949W        W53862  26.562  27.273   0.980  0.1385  0.1279  0.2226
10950W        W53863  31.105  32.447  27.256  0.0313  0.0222  0.1329
10951W        W53864  22.335  31.302  23.740  0.1613  0.4395 -0.2842
10952W        W53865  25.353  32.961   0.687  0.1680 -0.2937 -0.1613
10953W        W53866  22.583  17.262  23.043  0.2548 -0.0189 -0.0197
10954W        W53867  20.694  24.058  26.363  0.3071  0.2911 -0.2916
10955W        W53868  31.975  25.995  26.251  0.1529  0.0980 -0.4065
10956W        W53869  24.559  27.933  14.807  0.1108 -0.0041  0.2603
10957W        W53870  22.125  30.198  28.585 -0.1012 -0.0107 -0.0358
10958W        W53871  31.397  19.195  21.453 -0.1644  0.1516  0.2965
10959W        W53872  14.460  27.547   3.163 -0.0280 -0.1660 -0.0726
10960W        W53873  21.235   9.987  29.543  0.2043 -0.0192  0.0819
10961W        W53874  24.621  22.479  26.254  0.1274 -0.4433 -0.2055
10962W        W53875  19.911  22.511  16.721 -0.1230  0.2655  0.1581
10963W        W53876  33.246  19.643  19.766  0.0162 -0.0413 -0.1127
10964W        W53877  28.914  17.977   8.182 -0.1858  0.2335 -0.1549
10965W        W53878  19.964  28.397  23.471 -0.0849  0.0966 -0.0633
10966W        W53879  21.177  25.162  25.096 -0.0858  0.1925  0.1010
10967W        W53880  20.473  29.134   3.081 -0.0902 -0.1525 -0.2072
10968W        W53881  28.016  30.533  27.828  0.2038  0.1117 -0.1261
10969W        W53882  19.999   5.170  23.046 -0.1312 -0.0891 -0.0059
10970W        W53883  29.403   0.106  16.172  0.1916 -0.0908 -0.0121
10971W        W53884  29.301  19.482  14.248 -0.1235 -0.0468  0.3152
10972W        W53885  28.944  21.711  18.217  0.2993  0.0055 -0.0288
10973W        W53886  31.280  19.131  18.236  0.2779 -0.2052  0.0558
10974W        W53887  19.496  21.241  20.617 -0.2476  0.2310  0.1583
10975W        W53888  22.684  25.525  22.883  0.1630  0.1825 -0.1916
10976W        W53889   3.693  28.560  16.766  0.2997 -0.3404 -0.0021
10977W        W53890  27.247  24.575  28.106  0.3843  0.0841  0.1364
10978W        W53891  29.256  30.219  20.686 -0.2577 -0.1522 -0.0170
10979W        W53892  24.367   4.486  14.330 -0.1110  0.0606  0.0976
10980W        W53893  21.820  31.760   0.675  0.0435  0.1597 -0.0159
10981W        W53894  31.691  28.577  25.628 -0.0314 -0.3072  0.1142
10982W        W53895  27.268  17.147  18.176 -0.0574  0.0837  0.2184
10983W        W53896  25.085  24.716  23.232 -0.0989 -0.2711 -0.2524
10984W        W53897  21.090  30.868  26.976  0.0756  0.0787 -0.1627
10985W        W53898  24.686  32.590  17.061 -0.1154  0.0568 -0.1508
10986W        W53899  15.598  28.137  16.644 -0.1991 -0.0876 -0.2915
10987W        W53900  33.470  18.263  22.196  0.0632 -0.0207 -0.2133
10988W        W53901  22.026  23.031  18.254  0.0916 -0.0292 -0.0717
10989W        W53902  22.845  32.859   0.446  0.0362 -0.2619  0.0819
10990W        W53903  27.417  30.889  14.044  0.1866 -0.1980  0.1051
10991W        W53904  13.471  21.258  19.168  0.1673  0.0894 -0.0143
10992W        W53905  33.506  26.234  21.121  0.2719  0.0321 -0.2855
10993W        W53906  16.955   9.803  27.461  0.1837  0.0879  0.0511
10994W        W53907  13.158  25.084  23.037  0.0357 -0.1167  0.3257
10995W        W53908  23.196  25.807  19.399 -0.0063 -0.2253  0.0206
10996W        W53909  25.389  32.010  28.151  0.2794  0.2212 -0.3866
10997W        W53910  16.423  15.425  15.385 -0.1053  0.0393 -0.0687
10998W        W53911   0.764  20.259  24.997 -0.0699  0.2909 -0.0504
10999W        W53912  29.743  31.298  23.773 -0.0201 -0.0390  0.3016
11000W        W53913  30.187  26.479  22.841  0.4207  0.0321 -0.0613
11001W        W53914  19.062  22.186  19.173  0.1237  0.3528  0.1295
11002W        W53915  29.277  29.427  24.094 -0.3656 -0.2055  0.1175
11003W        W53916  26.854  24.132  19.519  0.0459  0.0050  0.1146
11004W        W53917  31.031  25.910  21.863  0.2364 -0.3434  0.3751
11005W        W53918  21.118  27.998  21.967 -0.5947  0.1081  0.0793
11006W        W53919  29.469  29.963  16.377  0.3440 -0.1877 -0.1773
11007W        W53920  24.808   8.503   2.579  0.1272 -0.3505  0.1210
11008W        W53921  22.941  29.357  14.151  0.0666 -0.2216  0.0861
11009W        W53922  23.326  31.714  25.835  0.1484 -0.1093  0.0609
11010W        W53923  18.672  19.494  24.710  0.0454 -0.2227  0.2325
11011W        W53924  32.243  28.160  20.779 -0.2017  0.2495 -0.0225
11012W        W53925  25.185  30.392   0.018 -0.3101  0.0008  0.2027
11013W        W53926  19.042   0.077  17.645 -0.0112 -0.1746 -0.3490
11014W        W53927  13.123  22.311  20.644 -0.2981 -0.0928  0.0474
11015W        W53928  27.660  33.623  16.985  0.0645 -0.2780  0.5041
11016W        W53929  23.185  15.772  26.702  0.0157 -0.2511 -0.0469
11017W        W53930  32.255   8.614   1.816  0.1979 -0.0444 -0.0091
11018W        W53931  28.328  31.159   0.539  0.3301  0.2761  0.0354
11019W        W53932  17.975  28.726  28.414 -0.1144 -0.0142 -0.0439
11020W        W53933  30.090  13.897   2.209 -0.2520 -0.0333 -0.2379
11021W        W53934  29.317  25.849  19.831  0.3583 -0.0296 -0.1094
11022W        W53935  21.321  14.699  16.545  0.1309  0.0405  0.0488
11023W        W53936  27.375  27.372   7.351  0.1501  0.2381  0.4049
11024W        W53937  19.015  29.578  15.307 -0.0145  0.1476  0.1019
11025W        W53938  26.131  31.518  21.373  0.3883  0.1020  0.2793
11026W        W53939  16.317  29.638   0.028  0.2812  0.0039  0.0204
11027W        W53940  19.680  30.021  15.330 -0.0098  0.1126  0.1839
11028W        W53941  22.502  25.537  16.233  0.2054 -0.0236 -0.1285
11029W        W53942  19.862  17.479  11.988  0.0953  0.2375  0.0507
11030W        W53943  13.280  25.936  24.258  0.1882 -0.1685 -0.1618
11031W        W53944  32.625  18.703  28.379  0.4048  0.0859 -0.3338
11032W        W53945  27.267  33.918  15.066  0.1906 -0.1850 -0.2515
11033W        W53946  29.878  32.368  17.494 -0.0968  0.4717 -0.1062
11034W        W53947  17.921  28.070  21.850  0.1190 -0.1110 -0.2087
11035W        W53948  27.658  27.009  27.685  0.2176  0.1307  0.0543
11036W        W53949  34.344  29.691  14.425 -0.2708 -0.0680 -0.2040
11037W        W53950  17.250  23.969  25.621 -0.0947  0.2329 -0.2135
11038W        W53951  14.805  23.573   3.005  0.0418  0.0337 -0.1908
11039W        W53952  24.660  16.029  13.520 -0.0954  0.0788  0.0555
11040W        W53953  11.846  29.940  24.501 -0.2186 -0.2224 -0.2216
11041W        W53954  27.502  17.145  26.238 -0.4512 -0.2837 -0.1884
11042W        W53955  31.220  26.743  17.222  0.1112  0.1590  0.1068
11043W        W53956   1.299  21.784   4.371 -0.0319  0.0624 -0.0587
11044W        W53957  23.978  30.277  20.254  0.1874 -0.2458  0.3287
11045W        W53958  23.226  11.496  18.521 -0.4134 -0.0800  0.3033
11046W        W53959  17.143  25.742  26.395 -0.1527 -0.3731  0.1812
11047W        W53960  24.142  28.225  22.383  0.4814  0.0370  0.3349
11048W        W53961  34.413  25.864  25.019  0.3117 -0.0063  0.0202
11049W        W53962  23.704  21.478  17.277  0.1080 -0.2116  0.1487
11050W        W53963  14.617  30.050  29.563 -0.1389  0.2193  0.3188
11051W        W53964  29.672   0.403   1.594 -0.0411 -0.0505 -0.2325
11052W        W53965  25.204  23.174  29.121 -0.3649  0.2101  0.0748
11053W        W53966  18.788  20.564  24.124  0.1353 -0.0169 -0.1346
11054W        W53967  15.300  22.200  15.184  0.2347  0.1978  0.2867
11055W        W53968  32.859  14.303  14.589 -0.3280 -0.2553  0.0625
11056W        W53969  20.400  18.237  13.484 -0.1365 -0.1268  0.2972
11057W        W53970  26.358  30.872  14.886 -0.4489 -0.2842  0.0099
11058W        W53971  32.409  27.977  20.287 -0.0815  0.1329 -0.1041
11059W        W53972   8.138   2.195  27.109 -0.0926 -0.0561  0.1014
11060W        W53973  33.101   0.351  28.627  0.0129 -0.0241  0.1503
11061W        W53974  17.525  28.178  18.214 -0.1981 -0.0726  0.0969
11062W        W53975  25.993  29.591  23.705  0.1123 -0.0907  0.0970
11063W        W53976  14.584  23.370  18.837 -0.3705 -0.3188  0.0577
11064W        W53977  22.659  26.589  17.670  0.1882  0.0454  0.0899
11065W        W53978  19.164  26.592  17.348 -0.0734  0.0171  0.1054
11066W        W53979  23.188  23.390  23.433 -0.1327  0.2524 -0.1691
11067W        W53980  22.267  23.651  13.861 -0.2454  0.0053  0.1001
11068W        W53981   7.186  31.725  19.396  0.1214 -0.2491 -0.0864
11069W        W53982  23.030  31.493  18.845  0.1000  0.1328 -0.0592
11070W        W53983  27.607  23.630  28.425 -0.2260 -0.0392 -0.0616
11071W        W53984  17.473  24.389  21.998 -0.1034  0.3084  0.0653
11072W        W53985  31.848  24.910  22.827 -0.0487  0.2343  0.2639
11073W        W53986  23.431  32.712   0.267  0.0867  0.2886  0.0589
11074W        W53987  30.114  25.868  25.996 -0.1019  0.0770 -0.0447
11075W        W53988  15.603  26.284  15.482 -0.0070 -0.1943  0.0739
11076W        W53989  32.293  30.424  29.082  0.0966  0.0370  0.0868
11077W        W53990  31.151  27.059  22.141  0.0866  0.1428  0.1227
11078W        W53991  19.446  29.145  27.453  0.0469  0.3478 -0.0883
11079W        W53992  20.689  31.383  14.227 -0.1564 -0.0206 -0.0294
11080W        W53993  14.295  20.861  17.596 -0.0881 -0.0396 -0.0543
11081W        W53994  29.667  30.604  26.846  0.0797  0.0560 -0.1987
11082W        W53995  21.159  26.035  22.868 -0.3973  0.0864 -0.0380
11083W        W53996  27.724  24.005  23.203 -0.3945  0.0386  0.3704
11084W        W53997  27.325  26.585  13.483 -0.0479  0.0861 -0.0611
11085W        W53998  19.298  28.281  27.840  0.2672 -0.0752  0.1285
11086W        W53999  26.232  27.994   5.829 -0.0029  0.0982  0.0190
11087W        W54000   3.914   8.461  21.144 -0.1187 -0.1867 -0.1913
11088W        W54001   0.746  26.585  18.619 -0.3027 -0.0292  0.0457
11089W        W54002  15.683  34.486  16.587 -0.2984 -0.1541  0.0626
11090W        W54003  23.115   0.138  26.716 -0.1386 -0.0370 -0.3528
11091W        W54004  33.885  24.396  21.988  0.1100  0.0483  0.0830
11092W        W54005  30.916  26.032  13.388  0.3032  0.0596  0.1050
11093W        W54006  18.583  32.512  15.553  0.0546 -0.0614 -0.0402
11094W        W54007  14.347  29.761  27.816  0.0214  0.1085  0.3117
11095W        W54008  25.240  17.861  21.652  0.1350 -0.0586 -0.1076
11096W        W54009  28.046  20.976  20.556 -0.1537 -0.0416 -0.2419
11097W        W54010  25.821  27.634  15.445 -0.0825  0.2203  0.0088
11098W        W54011  18.696  31.067  19.397  0.2273  0.1353  0.0816
11099W        W54012  20.026  27.907  26.305 -0.1363  0.0848  0.1289
11100W        W54013  24.121  21.622  28.395  0.0253  0.0095 -0.0265
11101W        W54014  29.725   0.933   1.644  0.0169  0.5247 -0.1236
11102W        W54015  22.774  16.477  23.698  0.2310 -0.3625  0.3667
11103W        W54016  18.657  29.332  20.051 -0.4227 -0.1866 -0.0861
11104W        W54017  25.287  23.535  19.950  0.3153  0.0831  0.1695
11105W        W54018  32.768  27.474   2.788 -0.1170 -0.3151 -0.0578
11106W        W54019  25.686  25.856   4.464  0.2280  0.1446 -0.0017
11107W        W54020  26.181  24.794  26.517  0.5250  0.0246 -0.0445
11108W        W54021  24.600  28.054  22.865 -0.0934  0.0775 -0.0691
11109W        W54022   0.127   2.323  18.509 -0.0686 -0.2184 -0.3663
11110W        W54023  32.267  24.363   3.959 -0.0799 -0.1230 -0.1010
11111W        W54024  20.566  31.180  18.558 -0.0628 -0.1836 -0.1239
11112W        W54025  31.995  26.284  26.660  0.0449 -0.2210 -0.0690
11113W        W54026  26.893  17.419  18.016  0.1506 -0.0022 -0.0420
11114W        W54027  21.157  26.369   0.608 -0.3523  0.0845 -0.3491
11115W        W54028  22.738  30.527  22.916 -0.2455  0.0962 -0.0025
11116W        W54029  24.627  21.844  18.764  0.1882 -0.1335  0.0114
11117W        W54030  10.419  32.039  21.614  0.0097  0.0209 -0.0570
11118W        W54031  26.067  29.995  24.738 -0.0683 -0.4661 -0.4351
11119W        W54032  28.944  27.143  23.141  0.2136  0.0768 -0.2271
11120W        W54033   2.354   2.821  16.945  0.3419  0.0305  0.0569
11121W        W54034  17.883   9.552  26.645  0.0530  0.1205  0.0202
11122W        W54035  16.845   0.398  14.992  0.0908  0.0704 -0.2244
11123W        W54036  20.671  32.836   3.459 -0.0297 -0.2858  0.2244
11124W        W54037  20.660  26.253  25.142 -0.0771 -0.0850  0.4415
11125W        W54038  25.024  29.827  20.224 -0.2147  0.0357 -0.0599
11126W        W54039  15.631  27.937   2.964 -0.2027  0.2841  0.0791
11127W        W54040  13.118  27.987   2.754  0.0249  0.0039  0.1340
11128W        W54041  16.888  30.003   0.856 -0.1560  0.5032  0.0276
11129W        W54042  19.357  17.446  12.172  0.0994 -0.0406  0.3959
11130W        W54043  26.038   3.457  16.525 -0.2637 -0.1780  0.0506
11131W        W54044  10.489  27.903  19.924 -0.1269 -0.2878  0.1035
11132W        W54045  23.598  17.706  19.521 -0.0006  0.2381 -0.1660
11133W        W54046  29.884  25.668  16.454 -0.0166 -0.1034 -0.1777
11134W        W54047  13.539  27.235  27.131 -0.0516  0.3135  0.0450
11135W        W54048  34.032  17.315  19.335 -0.3002 -0.0499  0.0584
11136W        W54049  25.979   2.469   0.725 -0.2342 -0.3283 -0.1503
11137W        W54050   9.160  28.651  22.089  0.1406  0.0186  0.0720
11138W        W54051  18.894  24.010  12.335  0.0764 -0.2854 -0.2081
11139W        W54052  28.650  19.154  21.583  0.1454 -0.0846  0.1871
11140W        W54053  13.202  22.382  16.295  0.2474 -0.0650  0.0799
11141W        W54054  12.138  28.139  16.682 -0.0170  0.0024 -0.4341
11142W        W54055  15.847  23.679  18.490 -0.0943  0.1773  0.1123
11143W        W54056  26.708  30.448  17.486 -0.2549 -0.0466  0.0321
11144W        W54057  10.795  29.703  22.625  0.0226 -0.2778 -0.0424
11145W        W54058  24.363  30.450  26.249  0.0408 -0.1216  0.0138
11146W        W54059  21.793  28.428  17.766  0.0625 -0.0117 -0.1611
11147W        W54060  25.057  31.971  27.672 -0.1858 -0.2920  0.2850
11148W        W54061   4.216  25.061   2.604  0.2544  0.0549  0.1571
11149W        W54062  25.226  31.729  21.320 -0.1592  0.1231  0.1385
11150W        W54063  21.166  18.639  24.465 -0.2347  0.2492 -0.2337
11151W        W54064   1.847  28.216  25.209  0.2251  0.1973  0.0933
11152W        W54065  26.685  28.376  26.173 -0.1761  0.3787  0.0105
11153W        W54066  24.231  27.417  29.160  0.0143  0.1736  0.2046
11154W        W54067  19.466  27.899  18.775  0.0826 -0.0962  0.1543
11155W        W54068  26.803   0.994  23.680 -0.2353  0.2615  0.2462
11156W        W54069  31.598  21.652  21.739 -0.1856  0.0115 -0.0540
11157W        W54070  16.993  31.371  24.280  0.2421  0.2484 -0.1820
11158W        W54071  22.782  21.340  20.794 -0.1523 -0.1834  0.2396
11159W        W54072  25.517  30.478   3.862 -0.1184 -0.2489  0.1407
11160W        W54073  25.218  27.855  12.455  0.1581 -0.1614 -0.0190
11161W        W54074  24.484  14.608  18.970  0.0230 -0.0253 -0.2031
11162W        W54075  26.744  23.444  18.373  0.0601  0.0814  0.0078
11163W        W54076  12.037  29.274  27.444  0.1232  0.3404 -0.0261
11164W        W54077  17.574  24.138  21.011  0.1848 -0.2021  0.0641
11165W        W54078  23.778  33.828  20.878  0.3508 -0.1257  0.2239
11166W        W54079  28.638  26.607  23.402 -0.0176 -0.2770 -0.1179
11167W        W54080  24.744  31.825  15.120  0.0890  0.0685 -0.0552
11168W        W54081  18.388  27.288  17.501  0.1826  0.4413 -0.1918
11169W        W54082  15.133  26.949  23.971 -0.0692  0.1383 -0.1393
11170W        W54083  12.567  29.811  26.159  0.0828  0.0421 -0.0459
11171W        W54084  27.139  22.857  17.595  0.1773  0.2676 -0.2170
11172W        W54085  22.864  24.216   6.380 -0.1980 -0.2447  0.1642
11173W        W54086  26.456  30.752   1.404 -0.2234 -0.1475 -0.0978
11174W        W54087  20.049  19.671  27.309  0.0741 -0.0056  0.0656
11175W        W54088  13.748  27.843  15.425 -0.2380 -0.2519  0.0598
11176W        W54089  33.540  25.652  23.005  0.0187  0.0254  0.3010
11177W        W54090  25.997  30.015  16.439 -0.1938  0.2711  0.0422
11178W        W54091  20.089  25.037  24.514 -0.3735  0.3950 -0.1819
11179W        W54092  22.930  27.402  12.261  0.1056 -0.1423  0.1104
11180W        W54093  18.854  31.980  26.990  0.3057 -0.2100  0.0093
11181W        W54094  27.802  20.477  22.700 -0.0960 -0.1581 -0.1970
11182W        W54095  15.152  25.573  18.224 -0.2008  0.0836  0.0728
11183W        W54096  26.492  22.828  23.423  0.3384  0.1275 -0.1233
11184W        W54097  20.616  18.349  26.802 -0.3446 -0.0827  0.0828
11185W        W54098  25.683  23.019  19.349 -0.0429 -0.0643  0.2213
11186W        W54099  10.938  26.166  22.255 -0.1422  0.0282  0.3402
11187W        W54100   3.468  34.424  19.484  0.1542 -0.1871 -0.3132
11188W        W54101  33.900  24.322  23.982  0.1211  0.0702  0.0155
11189W        W54102  25.955   5.292  23.180 -0.1527  0.0959  0.0862
11190W        W54103  26.268  28.811  17.791  0.3721 -0.1404  0.0663
11191W        W54104  32.864  23.328  16.590 -0.0397  0.0340 -0.0197
11192W        W54105  21.325  26.768  24.251  0.0234  0.3957 -0.1956
11193W        W54106  27.524  27.415   0.726 -0.2311  0.0325  0.1078
11194W        W54107  20.273  22.081   5.267  0.1937  0.0118 -0.0939
11195W        W54108  20.060  23.139  15.437 -0.1433  0.0565 -0.1394
11196W        W54109  27.487   2.632  28.606 -0.0867  0.0301  0.2045
11197W        W54110   0.163  23.261  22.983  0.0282 -0.0695  0.2513
11198W        W54111  30.156  31.545  22.253  0.1818 -0.0638 -0.0613
11199W        W54112  29.468  26.290  18.025  0.0517  0.0595  0.3731
11200W        W54113  27.305  27.742  14.822 -0.0675 -0.1819  0.0504
11201W        W54114  17.430  28.595  19.021 -0.3568 -0.2786  0.1742
11202W        W54115  27.263  22.748   0.371 -0.2267 -0.0926 -0.0345
11203W        W54116  21.627  22.263  19.283 -0.1269 -0.0324  0.1694
11204W        W54117  30.825  24.518  16.468 -0.0037 -0.2032 -0.0086
11205W        W54118   0.369  24.723  21.292 -0.1933  0.1720 -0.0864
11206W        W54119  31.045  31.983  16.317  0.0265  0.2503  0.2148
11207W        W54120  25.253  18.601  15.445  0.3611 -0.0058 -0.1457
11208W        W54121  21.005  21.541  28.767  0.0722  0.2244 -0.1747
11209W        W54122  22.941  27.182  26.925 -0.0290  0.1434 -0.6498
11210W        W54123  25.618  19.886  15.830 -0.1501  0.1607 -0.2577
11211W        W54124  28.717  21.358  18.543 -0.2039  0.1403 -0.1264
11212W        W54125  20.270  21.433  27.796  0.1197 -0.0034  0.1019
11213W        W54126  21.525  22.404   0.700 -0.2657 -0.1005  0.1445
11214W        W54127  26.218  31.713  20.665  0.3161  0.1197 -0.2516
11215W        W54128  29.577  29.653  22.787 -0.0681 -0.2148  0.2539
11216W        W54129  27.582  25.374  22.513 -0.0828 -0.1696  0.1407
11217W        W54130  26.587  26.416   2.574 -0.0661 -0.0760 -0.1045
11218W        W54131  15.377  15.761   7.301  0.0772 -0.3033  0.0230
11219W        W54132  13.460  29.459  22.023 -0.1783  0.2084 -0.1340
11220W        W54133  30.413  25.054  16.013 -0.0874  0.0251 -0.2020
11221W        W54134  24.093  22.173   5.492 -0.2742 -0.1151 -0.3455
11222W        W54135  27.744  31.605   5.300  0.0773  0.1576  0.1374
11223W        W54136  24.130  26.218  15.347  0.2439 -0.1482 -0.0774
11224W        W54137  23.780  25.093  25.976 -0.1684  0.7009  0.1737
11225W        W54138   0.046  25.146  16.253  0.3134  0.1101  0.1876
11226W        W54139   9.350  18.618  16.796  0.1311  0.1201 -0.3615
11227W        W54140  23.788  28.759  13.110  0.2464  0.1319  0.0361
11228W        W54141  31.239   1.037  18.294  0.2471 -0.0341 -0.3431
11229W        W54142  30.234   8.875  23.169  0.0337 -0.0721  0.0060
11230W        W54143  20.755   0.042  17.336  0.2692  0.0981  0.0108
11231W        W54144  13.504  24.489  22.476 -0.0137  0.2561  0.2373
11232W        W54145  18.473  24.214  16.666  0.0177  0.1635  0.0836
11233W        W54146  28.207  22.427  19.607  0.2098 -0.0982  0.0103
11234W        W54147  27.434  34.142  26.378  0.1225 -0.1367 -0.0997
11235W        W54148  25.124   4.949  20.109  0.0715  0.0343  0.1104
11236W        W54149  25.246  21.576  26.479 -0.0649  0.0485 -0.0238
11237W        W54150  30.796  28.676  24.553  0.2966  0.0656  0.2181
11238W        W54151  23.449  28.875  27.389  0.1322  0.1232 -0.1169
11239W        W54152  20.090  27.527  28.841  0.4005  0.0157 -0.2697
11240W        W54153  18.052  23.099  20.534 -0.0839 -0.0097 -0.1123
11241W        W54154  21.651  20.516  21.437 -0.0255 -0.1414  0.1195
11242W        W54155  17.122  25.870  27.887  0.4028 -0.0151 -0.1663
11243W        W54156  30.575  29.527  17.846  0.1959  0.0519  0.1234
11244W        W54157  33.657  15.341  16.302 -0.1219 -0.2283  0.3809
11245W        W54158  27.642   3.346  17.851 -0.1340 -0.0925  0.1621
11246W        W54159  18.523  21.636  26.147  0.0704 -0.0607 -0.0835
11247W        W54160   0.758  32.567  26.353  0.0736  0.0547  0.0839
11248W        W54161  33.961  28.237   3.282 -0.1507  0.1920 -0.0208
11249W        W54162  19.744  29.820   2.834 -0.0163  0.1014  0.0809
11250W        W54163  22.879  32.730  27.192  0.0456  0.0687  0.3700
11251W        W54164  31.174  24.824  19.631 -0.3837  0.0737 -0.1368
11252W        W54165  21.955  17.784  13.928  0.1510  0.0904 -0.1785
11253W        W54166  22.129  24.749  15.496  0.0946 -0.1731 -0.1061
11254W        W54167  29.108  26.646  14.017  0.0152 -0.1929 -0.0029
11255W        W54168  27.530  21.817  24.366  0.1108 -0.0752  0.1923
11256W        W54169  15.057  32.586   2.111  0.2392 -0.3661 -0.3266
11257W        W54170  29.497  16.233  22.827  0.2579 -0.1383  0.0119
11258W        W54171  14.861  26.392  26.188  0.1693  0.4232 -0.1809
11259W        W54172  27.220  24.013  23.347  0.0938  0.1394  0.0431
11260W        W54173  30.641  22.961  15.905 -0.1086 -0.4427 -0.0248
11261W        W54174   4.023  13.712  21.702  0.0451  0.1114 -0.2418
11262W        W54175  27.994  30.563  15.065 -0.3213  0.0952  0.2026
11263W        W54176  19.713  32.294  26.265  0.0017  0.0092 -0.1114
11264W        W54177  21.950  24.016   3.955 -0.1669  0.1466 -0.2984
11265W        W54178  29.491  32.088  27.100 -0.0369 -0.1200  0.1504
11266W        W54179  21.532   1.247  15.077  0.0683  0.0614 -0.2860
11267W        W54180  14.365  26.756  28.342  0.5041 -0.4293  0.3470
11268W        W54181  26.821  30.015  18.228  0.0482 -0.1854 -0.0345
11269W        W54182  19.632  34.397   2.952 -0.3119 -0.1323 -0.0768
11270W        W54183  14.437  21.945  21.817 -0.3639  0.3059 -0.2278
11271W        W54184  23.883   2.896  21.420 -0.0366 -0.1763 -0.2176
11272W        W54185  25.095  27.121  16.869  0.0263  0.1096 -0.1469
11273W        W54186  19.495  20.609  21.217  0.2864  0.0131 -0.2404
11274W        W54187  22.700  27.809  15.782  0.1892  0.0410 -0.1604
11275W        W54188  20.923  28.006  15.272  0.2123  0.1533 -0.1994
11276W        W54189  12.381  28.755  15.945 -0.1034  0.1527  0.0306
11277W        W54190  21.558  15.241  27.597 -0.0288 -0.1238 -0.0572
11278W        W54191  27.881  24.875  19.540  0.1689 -0.2261 -0.0314
11279W        W54192  21.729  27.205   0.780  0.0898 -0.4308  0.6037
11280W        W54193  16.937  24.995   0.679 -0.1354 -0.0432 -0.0920
11281W        W54194  28.597  17.203  17.185  0.0751  0.1955  0.3448
11282W        W54195  19.840  32.475   1.224 -0.0044  0.0487  0.0943
11283W        W54196  18.059  21.625  20.091 -0.1489  0.1131  0.0139
11284W        W54197  18.553  29.254  21.863  0.2509  0.0836 -0.2326
11285W        W54198  26.893  31.598   3.703 -0.1893 -0.0360  0.1085
11286W        W54199  25.641  31.194  16.522 -0.0862 -0.0981 -0.0741
11287W        W54200   2.972  31.026  19.768  0.2362  0.1366  0.1472
11288W        W54201  27.928  14.659  20.409 -0.1400  0.2921  0.0557
11289W        W54202  20.459  25.174   2.210  0.1377  0.0781 -0.1275
11290W        W54203  32.842  26.556  29.394 -0.0202 -0.0698  0.0505
11291W        W54204  21.970  29.556  22.593  0.2187  0.0783 -0.0518
11292W        W54205  23.241  26.970   1.755 -0.1407  0.1790  0.1522
11293W        W54206  22.058  22.987  19.086 -0.3387 -0.0663  0.0270
11294W        W54207  29.349  29.967  21.957  0.3514 -0.0650  0.2068
11295W        W54208  26.347   0.282  25.796  0.1416 -0.2310  0.2325
11296W        W54209  31.292  31.133  15.998 -0.1640 -0.2086 -0.0327
11297W        W54210  34.059  29.620  25.393  0.1310  0.2324 -0.2583
11298W        W54211  16.715  23.594   0.414  0.4208  0.5020 -0.0596
11299W        W54212  24.407  22.585  16.327  0.1288  0.0974  0.1392
11300W        W54213  24.326  29.703  15.746 -0.5386  0.3079  0.0616
11301W        W54214  21.843  21.907  19.672 -0.0896 -0.1851 -0.3756
11302W        W54215  22.335  27.054  13.935  0.2107  0.1251  0.1806
11303W        W54216  18.937  22.102   0.050  0.0910  0.1188 -0.0400
11304W        W54217  33.500  31.477  25.364 -0.1260  0.0121 -0.0453
11305W        W54218  29.384   3.944  28.788  0.1451  0.0018  0.0592
11306W        W54219  29.047  25.329  21.017 -0.1454 -0.0116 -0.2548
11307W        W54220  16.023  22.053  18.850  0.2548 -0.3304  0.2515
11308W        W54221  17.763  14.665  28.325  0.0753 -0.0930 -0.1501
11309W        W54222  22.282  23.353  27.968 -0.1244  0.1794  0.0473
11310W        W54223  30.064  25.828  13.193 -0.0326 -0.0818  0.0256
11311W        W54224  15.092  24.535  19.956 -0.1699 -0.1644 -0.0055
11312W        W54225  24.242  28.242  14.495 -0.0023 -0.2728  0.1218
11313W        W54226   8.120  19.816  20.894  0.1399 -0.1205 -0.1878
11314W        W54227  20.666  26.125  28.260 -0.2067 -0.3506  0.1380
11315W        W54228  21.421  21.433  21.145 -0.1145  0.0576  0.0092
11316W        W54229  27.659  29.575  25.678 -0.0828  0.0398  0.0300
11317W        W54230  14.011  23.009  27.481  0.0225 -0.1180 -0.0490
11318W        W54231  25.065  29.539  22.666 -0.1320  0.1220 -0.0843
11319W        W54232  12.098  20.897  20.794  0.2269 -0.1104 -0.0747
11320W        W54233   1.515  19.144  19.828  0.1268  0.0676 -0.2579
11321W        W54234  25.270  19.822  24.543  0.0841 -0.3762  0.0652
11322W        W54235  22.883  24.521  12.696  0.0160  0.0306 -0.0398
11323W        W54236  13.484  23.629  27.620 -0.2644 -0.1495  0.1543
11324W        W54237  15.691  21.353  19.040  0.0912 -0.0890 -0.2259
11325W        W54238  22.348  21.484  27.346  0.1156 -0.0047  0.1147
11326W        W54239  24.182  29.528   2.162 -0.1194 -0.0571  0.0820
11327W        W54240  26.709  15.065  14.466 -0.1753  0.1017  0.0020
11328W        W54241  15.551  26.506   3.240  0.0559 -0.0595  0.0840
11329W        W54242  25.298  33.713   7.651  0.3177 -0.3595  0.0234
11330W        W54243  14.741  29.829  18.831  0.2151  0.2858  0.0006
11331W        W54244  24.527  25.000   4.965  0.1365  0.0142 -0.0200
11332W        W54245  32.896   6.180   3.690  0.1339 -0.0378 -0.1453
11333W        W54246   3.289  27.859   2.061 -0.1213  0.1083  0.1816
11334W        W54247  17.818  23.002   0.962  0.2584  0.1064 -0.1279
11335W        W54248  16.231  25.673  26.084  0.0632  0.1586  0.0357
11336W        W54249  28.775   0.214  21.461 -0.0328  0.2767 -0.1632
11337W        W54250  16.188  31.623  26.577 -0.2274  0.0322 -0.4752
11338W        W54251  15.987  18.061  28.431 -0.1296 -0.0965  0.1665
11339W        W54252  29.313  22.133  28.419  0.3429  0.1545 -0.0867
11340W        W54253  29.349  28.092   6.551 -0.0941  0.2690 -0.1023
11341W        W54254  15.056  29.406  28.835 -0.2024  0.2198 -0.1496
11342W        W54255  21.806  10.529  25.334 -0.0709 -0.0490  0.1380
11343W        W54256  12.716  31.242  26.582  0.0147  0.0301 -0.1195
11344W        W54257  27.009  28.698   7.125 -0.0012 -0.1152  0.2522
11345W        W54258  25.237  30.600   1.464 -0.2467  0.0156  0.0363
11346W        W54259  24.735  32.595   1.666  0.0554 -0.1110 -0.1447
11347W        W54260  12.874   1.534   8.904  0.1347 -0.2254  0.0260
11348W        W54261  32.329   4.604   2.124  0.0202 -0.0126  0.2507
11349W        W54262  29.353  30.188  27.032  0.3203 -0.0688 -0.2924
11350W        W54263  17.484  21.172  28.770  0.1103  0.3322  0.4322
11351W        W54264   8.471  31.634   4.462  0.0351 -0.1632  0.1720
11352W        W54265   3.086  32.621  27.457  0.3324 -0.2382 -0.1541
11353W        W54266  27.040  30.384  29.300  0.0601  0.1899 -0.2880
11354W        W54267  27.669  31.860   5.919 -0.0292  0.0738  0.3676
11355W        W54268  20.229  21.016  20.693  0.1566  0.0130 -0.2672
11356W        W54269  19.834  21.691  25.490  0.3688 -0.2033  0.0033
11357W        W54270  21.153  34.331   2.512  0.1659  0.3548  0.1121
11358W        W54271  20.717  23.517  25.618  0.2091  0.0212 -0.0289
11359W        W54272  21.532  19.893   7.433  0.1222  0.1482 -0.0257
11360W        W54273  26.743  22.110   5.589 -0.3177  0.2740  0.2144
11361W        W54274  30.572  28.181  28.007  0.2272  0.0595  0.1781
11362W        W54275  29.942  27.012  20.237 -0.1692 -0.0107 -0.0096
11363W        W54276  25.442  19.683   5.898  0.2051 -0.0712 -0.3012
11364W        W54277  23.356  22.733  21.182  0.2904  0.1973 -0.0411
11365W        W54278  33.838  27.614  24.541 -0.3455 -0.1114 -0.2906
11366W        W54279  23.902  28.926  25.162  0.1211  0.1614  0.1148
11367W        W54280  22.331  25.523  24.698  0.1452  0.4231 -0.1327
11368W        W54281  20.736  23.367  24.286 -0.0710 -0.0726  0.0259
11369W        W54282  30.024  22.703  16.435 -0.0529 -0.3557  0.2267
11370W        W54283  23.153  29.172  24.758 -0.1167 -0.0004 -0.2334
11371W        W54284  20.124  24.733  27.826 -0.3546  0.0258 -0.0760
11372W        W54285   6.594  28.695  28.327  0.0523 -0.1905  0.1596
11373W        W54286  14.792  28.045   2.493  0.1117  0.2663 -0.0618
11374W        W54287  19.643  29.836  24.019  0.0382  0.0178 -0.2798
11375W        W54288  20.526  28.861  24.188  0.1722 -0.0281 -0.0698
11376W        W54289  14.243  23.036  26.342  0.1825 -0.0600 -0.2656
11377W        W54290   3.823  16.811  25.795  0.1856  0.0151 -0.0045
11378W        W54291  22.275  33.584  26.401  0.0401 -0.0280  0.0169
11379W        W54292  25.296  19.753  23.730  0.0532 -0.1011 -0.1504
11380W        W54293  17.256  34.454   2.524  0.2189  0.0983 -0.0844
11381W        W54294   6.755  24.551   5.195 -0.3093  0.0708 -0.0220
11382W        W54295  18.347  19.215  27.715  0.1483 -0.0663 -0.1393
11383W        W54296  16.004  27.118  25.948 -0.1167  0.2867 -0.0966
11384W        W54297  16.207  18.074  26.375 -0.2547  0.0369  0.1078
11385W        W54298  20.198   0.911   4.349 -0.1105 -0.0749 -0.0080
11386W        W54299  20.143  25.274  28.825 -0.0614  0.0064  0.0498
11387W        W54300   3.448  16.176  27.964 -0.0564  0.0498 -0.0091
11388W        W54301  30.166  23.971   4.630  0.0880 -0.1985  0.0434
11389W        W54302  24.203  23.346  26.914 -0.0271 -0.0137 -0.4794
11390W        W54303  17.968   6.802  28.828  0.0845  0.2221  0.2563
11391W        W54304  25.886   0.042  28.541  0.3884 -0.3064  0.0165
11392W        W54305  23.789  22.527   4.288 -0.1453 -0.0109 -0.0236
11393W        W54306  13.427   3.986  27.959  0.0300 -0.0748 -0.1487
11394W        W54307  13.852  34.386  21.591  0.1194  0.1282  0.0069
11395W        W54308  28.528  24.356  29.351 -0.2631  0.3820  0.0214
11396W        W54309  21.735  21.887  29.270  0.1545  0.1260 -0.2279
11397W        W54310  15.226  32.127  26.407  0.2401 -0.2794 -0.2469
11398W        W54311  20.132  26.469  16.293  0.2544  0.1552 -0.0769
11399W        W54312  21.602  30.539   1.551 -0.1597  0.0027  0.1251
11400W        W54313  22.087  20.609  29.703  0.0789 -0.2274  0.1102
11401W        W54314  27.623  28.420  27.174 -0.1067 -0.2201 -0.2787
11402W        W54315  29.013  17.175   2.223 -0.0728 -0.0955  0.1178
11403W        W54316  12.330   0.692  26.764 -0.0054 -0.1851 -0.3177
11404W        W54317  13.797  28.026  18.984  0.1255  0.0241  0.1202
11405W        W54318  23.510  31.154   4.452 -0.0119 -0.2082 -0.0285
11406W        W54319  16.234  11.128  25.180  0.0666  0.0673 -0.0097
11407W        W54320  23.957  20.907  13.019 -0.4603  0.4304  0.1272
11408W        W54321  14.568  24.373   2.319 -0.1569 -0.1267 -0.0679
11409W        W54322   7.721  18.877  29.157  0.0671 -0.1028 -0.1578
11410W        W54323  30.800  26.914  27.893  0.0491  0.1100 -0.2331
11411W        W54324  22.196  24.803  23.198  0.2512  0.1426  0.0489
11412W        W54325  16.891  32.668   5.843 -0.0853 -0.5580 -0.2685
11413W        W54326  20.461  31.945  29.109  0.0112  0.0234 -0.0845
11414W        W54327  26.814  24.162  25.321  0.0540 -0.0921  0.1379
11415W        W54328  24.488  25.786  26.228 -0.3153  0.1778 -0.2974
11416W        W54329  33.969  13.935   0.200 -0.0247  0.2365 -0.0664
11417W        W54330  15.086  25.197  26.916 -0.4147 -0.2239  0.2086
11418W        W54331  31.045  23.561   2.001 -0.0916 -0.0226  0.2524
11419W        W54332  22.694  32.447  17.503  0.1450 -0.0577 -0.1670
11420W        W54333  23.157  26.877  27.710  0.0133 -0.2077 -0.0347
11421W        W54334  24.061  26.472  25.101  0.1390  0.2391  0.0090
11422W        W54335  29.126  26.776  19.770 -0.0976  0.0543  0.0742
11423W        W54336  14.561  33.533  25.118 -0.1215  0.1398  0.0060
11424W        W54337  25.828  26.523  16.977 -0.2177 -0.0261 -0.3686
11425W        W54338   3.359  30.869  23.872  0.0417  0.2135 -0.1112
11426W        W54339  29.289  29.789   4.180  0.1273 -0.2173 -0.2543
11427W        W54340  22.217  28.982   4.438  0.0221  0.2530 -0.6498
11428W        W54341  26.663   4.013  18.785  0.0180 -0.1599 -0.0837
11429W        W54342  25.738  12.167   3.502  0.1362  0.1698  0.0247
11430W        W54343  17.264  34.482  27.122 -0.3330  0.2838  0.3663
11431W        W54344  16.471  31.455  20.455  0.4369  0.1602 -0.4924
11432W        W54345  14.409   1.089  26.889  0.2257 -0.2343 -0.0842
11433W        W54346   9.858  25.107  24.169 -0.2662  0.1541 -0.2481
11434W        W54347  21.467  25.617  26.639 -0.0666 -0.0865 -0.0300
11435W        W54348  19.688  29.835   5.050 -0.0152  0.0366  0.1320
11436W        W54349  22.884  27.125  29.348 -0.1784 -0.0977 -0.2125
11437W        W54350  17.965  24.581  20.064  0.1410 -0.2661 -0.2158
11438W        W54351  17.852  23.322   1.939 -0.1121 -0.1034 -0.0598
11439W        W54352  19.117  31.869  24.938  0.1763  0.1083  0.0348
11440W        W54353  21.474  28.397  29.126 -0.1656  0.3632  0.2281
11441W        W54354  31.466  15.574   0.071  0.0678 -0.0241 -0.0248
11442W        W54355  23.344   0.408  29.205 -0.2582 -0.1662 -0.0732
11443W        W54356  16.843   4.769   0.988  0.2242  0.2120  0.0717
11444W        W54357  33.905  21.193   5.345 -0.0586  0.0095 -0.1646
11445W        W54358  16.884  19.102  29.662 -0.0483 -0.0391  0.3969
11446W        W54359  25.304   5.967   1.542 -0.2319  0.0504 -0.0898
11447W        W54360   6.850  25.607   3.724 -0.0903 -0.1100 -0.1840
11448W        W54361  30.553  30.452  23.026  0.0617  0.0937  0.0765
11449W        W54362  17.377  23.572   4.804 -0.1537 -0.1853 -0.0982
11450W        W54363  28.748  23.518  26.416 -0.0496  0.0426  0.1013
11451W        W54364  17.943   1.342  25.226  0.0917  0.1507 -0.2215
11452W        W54365  25.042  27.243  28.557  0.1713  0.6579 -0.0304
11453W        W54366  19.709   0.431   8.883 -0.0722 -0.0994  0.1066
11454W        W54367  21.111  31.564  29.099  0.1811  0.4537  0.3112
11455W        W54368  20.398  24.698  20.837  0.0235  0.1575  0.1807
11456W        W54369  27.453  25.924  16.636 -0.0508 -0.1676  0.1436
11457W        W54370  25.006  21.616  19.136  0.3298 -0.1835 -0.2951
11458W        W54371  30.220  25.316  22.170  0.0012 -0.0767 -0.3075
11459W        W54372  18.531  22.852   7.758 -0.2244  0.0005  0.0945
11460W        W54373  21.688  11.346  19.378  0.2848 -0.0809  0.3726
11461W        W54374   3.737  25.309  15.755 -0.2887 -0.0471  0.0442
11462W        W54375  24.097  17.379   6.645 -0.2520 -0.0915  0.2766
11463W        W54376  28.101  27.806  16.031 -0.1326 -0.1237  0.0257
11464W        W54377  26.217   0.337   6.601 -0.3975  0.2027 -0.1273
11465W        W54378  23.607   5.227  29.441 -0.1029 -0.1274  0.0383
11466W        W54379  21.757  28.634  29.493  0.0682  0.3651  0.1222
11467W        W54380  31.289  15.458  16.559  0.2211 -0.2424 -0.3206
11468W        W54381  26.534  30.228   3.647 -0.0755 -0.1864  0.1251
11469W        W54382  19.782  19.321  24.462  0.0208  0.1505 -0.1552
11470W        W54383  29.450  31.042  26.705  0.0853  0.1691 -0.4121
11471W        W54384  24.994  22.119   5.344 -0.0289  0.2413 -0.1955
11472W        W54385  24.735  33.280  17.491 -0.1557  0.1030  0.2084
11473W        W54386  25.978  32.286  28.022  0.1780 -0.4429  0.0217
11474W        W54387  31.093  33.066   6.030  0.2305 -0.3049  0.1209
11475W        W54388   0.277  32.922   5.753 -0.1136 -0.2217  0.1428
11476W        W54389  11.948  25.880  25.832  0.0835 -0.3519  0.1239
11477W        W54390  31.354  23.694   7.649  0.0779 -0.2280  0.0171
11478W        W54391  17.133  29.193   7.967 -0.0436  0.0629  0.0226
11479W        W54392  17.392  33.450  24.267  0.2198  0.2453 -0.0121
11480W        W54393  16.001   4.495   6.499 -0.0766 -0.1618  0.0735
11481W        W54394  28.608  31.790  29.644  0.2545  0.1078  0.0129
11482W        W54395  12.566  31.361   1.974  0.1567  0.0545  0.0203
11483W        W54396  20.960  16.015   1.869  0.0333  0.0714  0.0943
11484W        W54397  10.125  15.110  28.720  0.0660  0.0615 -0.0856
11485W        W54398  26.157  23.103   2.624  0.0095 -0.2262  0.0666
11486W        W54399  23.933  22.096  26.718  0.3443  0.0308  0.3064
11487W        W54400  26.375   4.327  20.617  0.1267 -0.2082 -0.1223
11488W        W54401  23.558   1.973  26.021 -0.1669 -0.0121 -0.0326
11489W        W54402  22.928  15.939  27.582  0.0202 -0.0184 -0.0011
11490W        W54403  19.907  21.234  28.297  0.3525  0.3266  0.1168
11491W        W54404  21.787   8.719  27.509  0.0133 -0.4058  0.0068
11492W        W54405  17.310  31.401   9.247 -0.1367 -0.1170 -0.0655
11493W        W54406  17.342  27.911   2.534 -0.2972  0.1305  0.1656
11494W        W54407  12.044  32.021   2.812 -0.0914  0.2293  0.3906
11495W        W54408  24.331  15.932  16.463  0.0155 -0.1239  0.0417
11496W        W54409  12.551  21.929  20.048 -0.1604  0.2645 -0.2080
11497W        W54410  23.728  17.555  22.439  0.1779  0.2125 -0.1738
11498W        W54411  21.233  27.306  29.276 -0.0105 -0.0526 -0.0733
11499W        W54412  22.357  34.090  26.853  0.0777  0.0887  0.2143
11500W        W54413   5.221  28.090  26.146  0.1822 -0.0977 -0.1794
11501W        W54414  27.529  23.299   3.823  0.0740  0.1119 -0.0846
11502W        W54415   8.089  27.563  28.387  0.1552 -0.3177 -0.1864
11503W        W54416  23.727  24.361   0.927 -0.0387  0.2848  0.1889
11504W        W54417  27.772  18.385  28.883  0.0543  0.0140  0.1068
11505W        W54418  28.261  27.447   3.581  0.3318  0.0138  0.0848
11506W        W54419  21.173  24.979  17.827  0.0708  0.0669 -0.2726
11507W        W54420  24.858  28.163   1.941 -0.1513  0.0946 -0.1275
11508W        W54421  21.828  30.335   2.425 -0.1183 -0.1838 -0.1153
11509W        W54422  32.418  28.396  21.830  0.0349  0.2104  0.1643
11510W        W54423  30.304  30.027   0.539  0.1402 -0.0102  0.4042
11511W        W54424  27.741  21.597  21.142 -0.2597 -0.3137 -0.0263
11512W        W54425  20.729  30.993  29.564 -0.2941 -0.0432 -0.2464
11513W        W54426  13.477  31.750   1.124 -0.0497  0.0109 -0.0578
11514W        W54427  25.795  33.116   3.377  0.1627 -0.1086 -0.0056
11515W        W54428  16.399   7.405  20.981  0.3979 -0.1818  0.1469
11516W        W54429  20.557  31.511   6.772 -0.2306  0.2890 -0.3057
11517W        W54430  23.988  27.493   4.387  0.1899  0.1867 -0.0490
11518W        W54431  20.459  17.342   4.049 -0.0735 -0.0131 -0.1432
11519W        W54432  30.303  22.042  20.654 -0.1021 -0.5584 -0.2503
11520W        W54433  19.434  26.515  25.844  0.0416 -0.2862 -0.1521
11521W        W54434  28.101  34.368   1.183  0.1284 -0.4175 -0.0609
11522W        W54435  24.341  23.912  15.161  0.0291  0.2107 -0.0260
11523W        W54436  31.906  30.165  20.684 -0.0517  0.1336  0.0159
11524W        W54437  19.188  31.003  26.617  0.0157 -0.0915 -0.0461
11525W        W54438  17.004  29.986  29.763 -0.0582  0.1450  0.2338
11526W        W54439  24.322  24.256  29.772  0.3121 -0.0958  0.1687
11527W        W54440  25.461   5.996   9.536  0.1100 -0.0969  0.1671
11528W        W54441  16.895  28.039  20.311 -0.0566 -0.2084  0.0856
11529W        W54442  21.542  16.659  22.083 -0.1547 -0.1217 -0.0567
11530W        W54443   4.932  24.273  15.558  0.2570 -0.3029 -0.0593
11531W        W54444  21.224  25.367  18.573 -0.3034 -0.0838 -0.0258
11532W        W54445  17.472  18.350  28.858  0.0332 -0.5255  0.0191
11533W        W54446  14.238   6.300   2.748 -0.3124 -0.0291  0.1503
11534W        W54447  20.298  26.874   3.120 -0.2738 -0.1912 -0.0080
11535W        W54448  21.143  21.736  21.476  0.1815  0.0079  0.2576
11536W        W54449  16.678  30.949  19.693  0.2580 -0.1865 -0.2143
11537W        W54450  30.167   6.741  19.319 -0.1277 -0.2068  0.0823
11538W        W54451  22.750  19.247  16.533 -0.0298  0.1422 -0.3768
11539W        W54452  26.326  15.292   5.700  0.0057  0.3004 -0.2031
11540W        W54453  22.901  16.156   3.695 -0.0279 -0.3204  0.0514
11541W        W54454  26.890  27.727   6.706  0.3888  0.0787  0.0060
11542W        W54455  33.234  24.767   6.491  0.1159  0.1985  0.1004
11543W        W54456  13.222  19.851  20.515  0.0549 -0.2549  0.2639
11544W        W54457   9.493  19.734  19.937  0.0340 -0.0970 -0.2792
11545W        W54458  16.440  23.014  23.379 -0.0750  0.3108 -0.3133
11546W        W54459  16.158  22.125  27.852  0.0077  0.0764 -0.1918
11547W        W54460  15.312  24.875   4.182  0.1617  0.1685  0.0155
11548W        W54461  30.112   1.288   5.277 -0.0157  0.1376 -0.0008
11549W        W54462  26.630  26.486  28.750 -0.2288  0.2823  0.2594
11550W        W54463  13.549  26.985  14.097  0.1309  0.0284 -0.0442
11551W        W54464  17.165  27.468   3.227 -0.1984 -0.1157 -0.1573
11552W        W54465   1.768  27.171   4.092  0.0759  0.1454 -0.0618
11553W        W54466  16.968  19.955  24.404 -0.1150  0.0971  0.0516
11554W        W54467  19.529  27.228   2.539 -0.0050  0.2947 -0.0915
11555W        W54468  19.698  30.960   0.169 -0.0097 -0.1114 -0.0740
11556W        W54469  25.385  31.120   5.634 -0.1473 -0.1738 -0.0452
11557W        W54470  28.734  29.716  28.696 -0.0542  0.0617  0.1010
11558W        W54471  17.610  21.733  16.623 -0.1304 -0.4517 -0.1442
11559W        W54472  23.194  24.676   5.787  0.0219 -0.0223 -0.1247
11560W        W54473  32.704  22.437  23.454  0.1699 -0.0397 -0.1509
11561W        W54474  16.540  29.275  27.649  0.0217 -0.1148 -0.1360
11562W        W54475  28.219  27.982  23.690 -0.1773 -0.0790  0.1285
11563W        W54476  21.370  24.744  24.553 -0.2352 -0.0862  0.1284
11564W        W54477  27.677  32.209  18.866 -0.0760  0.4273  0.0146
11565W        W54478  26.476  28.825  26.040 -0.4065 -0.0524 -0.3412
11566W        W54479  15.311  22.322  28.312  0.0298 -0.1583  0.2121
11567W        W54480  18.512  29.950  20.052 -0.1036  0.1566  0.0074
11568W        W54481  26.011  32.999   4.167 -0.2725 -0.1241 -0.0851
11569W        W54482  29.275  20.283  27.286 -0.1625 -0.1394 -0.0486
11570W        W54483  14.099  25.059  25.207 -0.3462  0.1765  0.0342
11571W        W54484  15.452  25.542  26.603  0.0573  0.2514  0.1832
11572W        W54485  18.844  28.339   0.101 -0.2153 -0.0241  0.0811
11573W        W54486  21.177  26.384  25.079 -0.1846  0.2903  0.2050
11574W        W54487  30.748  29.504   4.550 -0.1811 -0.0653  0.2012
11575W        W54488  19.990  32.236  25.778  0.2109 -0.0781 -0.0243
11576W        W54489  19.706  25.805  14.286 -0.0228  0.2548 -0.0215
11577W        W54490  17.242  29.671   6.431 -0.0555 -0.1337  0.0782
11578W        W54491  20.305  22.564   5.100 -0.2822 -0.0725  0.0301
11579W        W54492  16.562  30.440  18.466 -0.1422  0.0843 -0.3472
11580W        W54493  29.510  29.862  29.124  0.2841 -0.2878  0.1570
11581W        W54494  22.714  27.347   8.924 -0.0746 -0.1619  0.1646
11582W        W54495  27.082  23.381  16.349 -0.1654 -0.1059 -0.1140
11583W        W54496  21.849  19.736   0.873  0.1655  0.1230 -0.1087
11584W        W54497  27.076  20.306  12.501 -0.0650 -0.0102  0.2768
11585W        W54498  30.694  32.494  21.449 -0.2143 -0.1099  0.3840
11586W        W54499  16.936  21.070  22.409  0.0281  0.0790  0.1130
11587W        W54500  25.842  26.364  22.415 -0.2409  0.4263  0.0566
11588W        W54501  22.007  26.300  22.028  0.0393  0.0102 -0.2724
11589W        W54502  22.185  24.682  25.948 -0.1188  0.0488  0.1751
11590W        W54503  16.656  23.635   5.803 -0.1008  0.0129 -0.2512
11591W        W54504  17.902   0.350   7.370  0.0157 -0.0161 -0.2454
11592W        W54505  16.272   0.917  19.399 -0.3629  0.1294 -0.0077
11593W        W54506  23.039  28.284  25.920  0.1665 -0.0177 -0.0266
11594W        W54507  10.935  18.384  26.899 -0.0947  0.0726  0.1565
11595W        W54508  14.617  24.782  23.914 -0.1003 -0.0410 -0.1479
11596W        W54509  25.913  24.571  28.180 -0.0618  0.2686 -0.0793
11597W        W54510  14.698  20.778   4.447 -0.2672 -0.2812 -0.2681
11598W        W54511  22.443  21.615   2.817  0.1967 -0.2128 -0.0850
11599W        W54512  12.440  30.531   5.262  0.4152 -0.3841  0.2892
11600W        W54513  21.141  30.840  21.022 -0.0087  0.1099  0.2373
11601W        W54514  21.624  20.317   1.444  0.0891  0.0167 -0.1444
11602W        W54515  32.728  27.071  22.764  0.0092  0.0879  0.1209
11603W        W54516  17.195  27.665   4.650  0.1756 -0.2088  0.1949
11604W        W54517  19.764  16.368   6.845  0.1665  0.2650 -0.1539
11605W        W54518  20.093  34.052  28.913 -0.0172 -0.1811 -0.2018
11606W        W54519  28.543   1.700   0.579 -0.4127 -0.0162 -0.1998
11607W        W54520  17.964  25.172  16.551  0.1800 -0.0154 -0.2901
11608W        W54521  18.476  24.993  29.206 -0.0047 -0.1419  0.1237
11609W        W54522  19.776  22.115  17.783 -0.0702  0.0589 -0.0243
11610W        W54523  23.292  22.549  22.427 -0.0138 -0.0502 -0.2509
11611W        W54524  15.216  26.314   5.748 -0.1915  0.0717 -0.0022
11612W        W54525   3.576  32.028  29.729 -0.0796 -0.0313 -0.0535
11613W        W54526  32.458   1.662   1.470  0.1777 -0.2024 -0.1742
11614W        W54527  20.754  22.790  27.794 -0.3237  0.1095 -0.0167
11615W        W54528  20.250  31.151  23.081  0.0753  0.1573 -0.0302
11616W        W54529   3.118  19.286  26.570  0.1070 -0.0669 -0.0003
11617W        W54530  18.977  20.702  23.065 -0.3192 -0.0700  0.0564
11618W        W54531  26.485  23.319   4.989  0.2723  0.1363 -0.0049
11619W        W54532  22.615  30.686   3.865  0.0454 -0.2625 -0.0358
11620W        W54533   9.179  32.099  23.794 -0.1875  0.1677  0.2549
11621W        W54534  23.503  33.405  27.521 -0.0978 -0.1089 -0.1208
11622W        W54535  15.350   0.535  20.600  0.0203  0.2797  0.1504
11623W        W54536  25.545  26.300  21.499 -0.1972  0.1090 -0.0283
11624W        W54537  24.004   3.545   1.293 -0.2439 -0.0404 -0.1762
11625W        W54538  21.671  21.712  22.277 -0.3163 -0.1414  0.1959
11626W        W54539  30.395   0.650   4.022 -0.1004  0.1341 -0.4092
11627W        W54540  14.027  21.470  19.851  0.1964  0.1099  0.0116
11628W        W54541  18.221  29.600   2.737  0.0933 -0.1770 -0.1645
11629W        W54542  34.003  24.671  27.214  0.1267  0.0304 -0.2868
11630W        W54543  22.876  29.050  23.734 -0.3218 -0.1512 -0.1928
11631W        W54544  28.726  21.782   5.472  0.0932  0.0240 -0.1007
11632W        W54545  21.663  22.584  26.823  0.0127 -0.3234 -0.0091
11633W        W54546  19.254  24.959  23.115  0.0918 -0.2611 -0.0054
11634W        W54547  31.667  30.499  18.004 -0.2891 -0.3253  0.1127
11635W        W54548  14.178  30.438  28.354  0.0785 -0.3241  0.2964
11636W        W54549   2.275  23.775  21.702  0.2015 -0.1351 -0.1373
11637W        W54550  23.231  19.631  28.719 -0.0086  0.0486  0.0696
11638W        W54551  20.082  18.329  23.742 -0.1008 -0.4158  0.0683
11639W        W54552  28.313  29.435  21.466  0.1256 -0.1837  0.1056
11640W        W54553  21.882  24.602   3.312  0.1267 -0.0130  0.2216
11641W        W54554  18.810  26.694   0.847  0.1626 -0.0595  0.0563
11642W        W54555  27.598  20.219   2.354 -0.0941 -0.5278 -0.0624
11643W        W54556  18.180  33.643  23.581  0.0365 -0.1305 -0.1359
11644W        W54557  31.337  22.539  29.451 -0.0677  0.0304  0.2125
11645W        W54558  16.180  26.510  28.586 -0.2126  0.1738 -0.2243
11646W        W54559  24.452  26.178  25.374  0.0170 -0.3054  0.1336
11647W        W54560  22.745  24.328   3.508  0.1082 -0.2089 -0.0300
11648W        W54561  11.787  21.712  29.458 -0.3908  0.0888 -0.3196
11649W        W54562  25.281  29.133  28.925  0.0436 -0.0528 -0.0318
11650W        W54563  13.469  24.998  27.247  0.3679 -0.0968 -0.2459
11651W        W54564  32.481  27.263   8.711 -0.1286  0.2903  0.0627
11652W        W54565  29.415  32.908  14.530  0.1656  0.0282  0.0337
11653W        W54566  16.845  26.459  16.861 -0.0044 -0.3858  0.1136
11654W        W54567   3.480   1.223  28.445 -0.1197  0.4656  0.0259
11655W        W54568  28.763  20.015   0.994  0.1187  0.1793  0.2497
11656W        W54569  25.784   0.284  23.726 -0.0644 -0.0328  0.1185
11657W        W54570  23.502  26.893   0.006 -0.4526  0.0295 -0.0947
11658W        W54571  19.833  22.669  16.247 -0.0438  0.0909  0.0636
11659W        W54572  21.054  29.005  27.136  0.2184 -0.0570  0.1906
11660W        W54573  31.433  23.779  24.041 -0.1331 -0.2545  0.1056
11661W        W54574  22.833  25.564  12.184  0.0917  0.2565 -0.1884
11662W        W54575  17.764  23.243  15.841 -0.1051  0.0093  0.1732
11663W        W54576  23.498  18.481  18.141 -0.0171  0.1210  0.4055
11664W        W54577  18.299  19.519  28.140 -0.0091 -0.1880 -0.1517
11665W        W54578  18.600   0.005   4.127 -0.1049  0.0608  0.0572
11666W        W54579  13.598   0.359  28.080  0.1002  0.3024 -0.3568
11667W        W54580  10.331  30.497  23.242  0.0205  0.2315 -0.3047
11668W        W54581  19.127  26.022   1.665 -0.2382  0.0849  0.0558
11669W        W54582  20.884   5.017   7.987 -0.0249  0.1078 -0.1796
11670W        W54583  27.474  13.930  20.156  0.0902  0.1950 -0.1052
11671W        W54584  23.166  26.414   8.599  0.0926  0.0079  0.0861
11672W        W54585  29.386  20.596   7.939 -0.0022  0.1850  0.1929
11673W        W54586  30.092  32.009  18.337 -0.1204  0.2956 -0.0586
11674W        W54587  17.253  31.115  20.842 -0.1603  0.0498 -0.3287
11675W        W54588  30.832  15.812  25.281  0.0115 -0.1747 -0.0546
11676W        W54589  17.802  33.313   6.746 -0.4569 -0.0792  0.0079
11677W        W54590  16.192  27.804  20.385  0.3141  0.2452 -0.1003
11678W        W54591  19.021  20.682  18.741 -0.0286 -0.1244  0.0492
11679W        W54592  29.564  26.559  20.662  0.1317  0.3235 -0.0716
11680W        W54593  30.728  19.831  25.055  0.2263  0.1920  0.1385
11681W        W54594  31.761   2.561   4.434 -0.1731 -0.0652 -0.0262
11682W        W54595  23.631  24.019   1.611  0.0662 -0.0184 -0.0296
11683W        W54596  18.904  31.985   7.630  0.0369 -0.0415  0.3215
11684W        W54597  19.647  23.067  19.918  0.1096  0.2552 -0.0829
11685W        W54598  19.603   8.938   4.498 -0.1882 -0.2126  0.0012
11686W        W54599  24.186  31.350  26.359 -0.2244  0.0783 -0.0458
11687W        W54600  23.345  19.305   0.987  0.0250 -0.0121 -0.3180
11688W        W54601  27.795  26.453   0.674 -0.3608 -0.1703  0.1452
11689W        W54602  19.434  13.586  21.156 -0.2206 -0.0581 -0.2086
11690W        W54603  22.482  18.119   3.862 -0.0512 -0.0061 -0.0685
11691W        W54604  18.701  29.086   3.385  0.0101 -0.0547 -0.0452
11692W        W54605  17.670   9.275   6.798  0.3169 -0.1787  0.1699
11693W        W54606  23.343  23.491   3.089  0.2559  0.0753 -0.0073
11694W        W54607  13.505  18.144   5.906 -0.2735 -0.3737  0.0979
11695W        W54608  22.785   2.225   2.423  0.0451 -0.2772  0.0102
11696W        W54609  20.524  27.760  28.670 -0.1825 -0.1334  0.4307
11697W        W54610  16.332  30.968   1.677  0.0115 -0.3472 -0.3018
11698W        W54611  23.019  24.302  19.319  0.1333  0.2592 -0.2037
11699W        W54612  17.888  27.212  29.450 -0.0878 -0.2877  0.1006
11700W        W54613  24.131  27.468   6.584 -0.1707  0.2780 -0.0810
11701W        W54614  20.149  21.958  24.183  0.3015 -0.0155  0.0484
11702W        W54615  26.981  27.096  28.685 -0.0508  0.2038 -0.1660
11703W        W54616  20.883  32.099  21.822 -0.2727  0.0080 -0.3296
11704W        W54617  22.031  23.920   2.929 -0.0706  0.1290 -0.1337
11705W        W54618  23.792  30.145  28.371 -0.0746 -0.1188  0.3104
11706W        W54619  32.365  27.503  28.356  0.0697  0.3213 -0.4096
11707W        W54620  22.203  10.962  26.768  0.1588 -0.1438 -0.0733
11708W        W54621  13.586  25.082  25.286  0.1812 -0.0570  0.0167
11709W        W54622  19.673  30.035  28.446 -0.0773 -0.1442 -0.0791
11710W        W54623   0.724  23.509   0.102  0.4101 -0.2600  0.0444
11711W        W54624  13.120  26.667  22.169 -0.2624  0.3085  0.2678
11712W        W54625  16.841  22.171  18.710  0.1222 -0.1178  0.1205
11713W        W54626  20.672  31.720  23.551  0.0708 -0.0536  0.1366
11714W        W54627   6.645  14.400   2.704 -0.0917  0.0717 -0.3653
11715W        W54628  15.645  32.700  28.164 -0.0373  0.1211  0.2362
11716W        W54629  27.680  28.544   3.679  0.2844  0.2874 -0.1931
11717W        W54630  28.047  17.885  10.232 -0.2815  0.1191 -0.0350
11718W        W54631  22.880  26.601   0.969  0.1283 -0.0477  0.1888
11719W        W54632   2.910   6.910   3.808  0.3274  0.1311  0.1615
11720W        W54633  19.925  25.987   3.737 -0.0427 -0.0913 -0.0169
11721W        W54634  20.031  29.246   0.179  0.0920  0.1378 -0.2206
11722W        W54635  17.693  26.144  27.005 -0.5479  0.0717 -0.0962
11723W        W54636   6.831  28.572   4.393 -0.6319  0.1351  0.1304
11724W        W54637  14.927  28.960   2.896  0.2349 -0.0982 -0.4075
11725W        W54638   3.427  17.550   7.233  0.0133  0.0961 -0.0719
11726W        W54639  16.671  19.473   6.397 -0.3152 -0.0031  0.0873
11727W        W54640  26.811  20.509   2.403  0.0349  0.0221  0.1583
11728W        W54641  28.208  21.363   7.081  0.2415  0.2742 -0.4194
11729W        W54642  22.532  18.588   2.491 -0.1107  0.0624  0.3973
11730W        W54643  27.888  33.617   5.169 -0.0038 -0.2429  0.1638
11731W        W54644  12.609  23.122   7.974  0.0270  0.1616  0.1873
11732W        W54645   2.660  30.378   1.213 -0.0462 -0.4208  0.0665
11733W        W54646   9.397   2.071  28.244 -0.2319  0.0420  0.2273
11734W        W54647  23.613  30.373  26.001  0.2036 -0.0911  0.2343
11735W        W54648  22.075  33.756   1.499  0.3532 -0.0508 -0.0516
11736W        W54649  25.245  19.302  18.142 -0.0042 -0.1823  0.0985
11737W        W54650  17.605  22.382  18.711 -0.0659 -0.0211  0.0522
11738W        W54651  23.278  29.304  26.290 -0.4104  0.0404 -0.0685
11739W        W54652  20.121  24.008   1.197  0.0596  0.4714 -0.2084
11740W        W54653  21.389  19.473  20.904  0.0278  0.1835 -0.2907
11741W        W54654  17.858  20.870  27.859  0.1538  0.2530  0.1606
11742W        W54655  15.339  34.421  22.902 -0.0344  0.1241 -0.2776
11743W        W54656  24.398  22.988   2.023 -0.1797  0.0378 -0.0117
11744W        W54657  22.115  32.732   3.997  0.0048  0.0913  0.0528
11745W        W54658  18.671   1.507   4.861 -0.0320 -0.0891  0.1429
11746W        W54659  20.893  32.859  24.387  0.1941  0.1117 -0.0901
11747W        W54660  23.468   7.684   8.697 -0.1373  0.4850 -0.2357
11748W        W54661  32.623  31.383   9.675 -0.2771 -0.2148 -0.1972
11749W        W54662  13.559   0.173  11.194 -0.1104 -0.0520 -0.1233
11750W        W54663  16.796  25.540   5.148 -0.2109 -0.2516 -0.3132
11751W        W54664  16.794  25.301  26.714  0.3549  0.2605 -0.3578
11752W        W54665  25.964  28.102   7.042  0.2371 -0.1543  0.0725
11753W        W54666  23.377  25.224  29.625  0.2065 -0.2528 -0.1556
11754W        W54667  22.148  31.925  25.559 -0.1151  0.0124  0.2130
11755W        W54668  17.216   3.294   0.622  0.3011  0.1570 -0.0978
11756W        W54669  24.669  21.837   4.362  0.1579 -0.3574 -0.0601
11757W        W54670  29.836  22.211   5.071  0.4515  0.0928  0.0721
11758W        W54671  16.431  32.771   7.827  0.0932 -0.1231 -0.1817
11759W        W54672  16.426   1.331   3.343 -0.1289 -0.1281  0.2198
11760W        W54673  24.791  26.960  28.240  0.1468  0.0795 -0.3167
11761W        W54674  29.571   0.928   4.093 -0.2358 -0.1789 -0.2449
11762W        W54675  10.734  27.520   6.875  0.0335  0.0401 -0.0143
11763W        W54676  17.755  14.555   4.925  0.2114  0.2139  0.1155
11764W        W54677  20.147  33.681  28.019 -0.0826  0.0208  0.1020
11765W        W54678  22.899  15.413  27.594  0.0381 -0.0356  0.2603
11766W        W54679  30.789  28.255  26.040 -0.0880 -0.0831 -0.1778
11767W        W54680  10.915  27.297  18.921  0.3364 -0.1701  0.2897
11768W        W54681  18.841  21.889  27.827 -0.0871 -0.3994 -0.1473
11769W        W54682  17.171  17.306   2.511  0.1233  0.1714 -0.1926
11770W        W54683  31.551  25.464   0.022 -0.1105  0.0191  0.0432
11771W        W54684   0.308  16.180  29.637  0.0883 -0.0310 -0.1206
11772W        W54685  33.148  32.279  26.280  0.3412  0.1861 -0.2953
11773W        W54686  17.003   2.402  26.248  0.3261  0.2991  0.2604
11774W        W54687  22.177  24.771   5.778 -0.0300  0.2327  0.1275
11775W        W54688  23.287  22.920  20.302 -0.1075 -0.0697  0.1731
11776W        W54689  22.593   0.882   0.018  0.1578 -0.0333  0.4500
11777W        W54690  18.958  22.494   4.328  0.0631  0.1105 -0.1644
11778W        W54691  17.997  21.937  24.708 -0.1653  0.4397 -0.1172
11779W        W54692  16.751  19.619  24.797 -0.0550  0.1484  0.0091
11780W        W54693  19.525  25.979   6.843 -0.1978  0.3675 -0.1006
11781W        W54694  21.618  27.191   2.780 -0.1759 -0.2069 -0.0991
11782W        W54695   6.987  24.892  22.969  0.1110 -0.3055  0.0294
11783W        W54696  21.908  31.234  13.443 -0.1046  0.1936 -0.0685
11784W        W54697  30.902  31.523  15.008 -0.0342  0.2456 -0.1357
11785W        W54698  25.392  32.635  14.439 -0.2667 -0.3913  0.1776
11786W        W54699  24.963  28.428  15.702  0.3069  0.2827  0.3121
11787W        W54700  23.444   1.509  19.469  0.4800 -0.3555  0.0410
11788W        W54701  28.191  27.217  18.526  0.3409  0.0624 -0.2548
11789W        W54702  23.582  27.716  22.069 -0.4062 -0.0995  0.0290
11790W        W54703  31.881   1.615  16.599 -0.1466 -0.1472  0.0009
11791W        W54704  25.533  29.100  15.938 -0.0409  0.3105  0.0702
11792W        W54705  22.138  24.901  28.833  0.0644  0.0780  0.0732
11793W        W54706  19.001  33.810  14.244 -0.0097 -0.0443  0.1730
11794W        W54707  14.592  32.322  20.382  0.1356  0.1204  0.2632
11795W        W54708  29.411   5.244  18.355 -0.1684  0.0302 -0.3954
11796W        W54709  29.502   2.484  18.697 -0.1155  0.0238 -0.1313
11797W        W54710  28.545  27.594  17.428  0.1395 -0.1880  0.2044
11798W        W54711  29.104  23.971  20.482  0.0352 -0.0387 -0.2952
11799W        W54712  25.304   5.754  16.567  0.1205 -0.0765  0.2052
11800W        W54713  31.032  29.044  17.316  0.0126  0.1676 -0.0496
11801W        W54714  27.530   3.612  26.667  0.0583 -0.2399  0.2690
11802W        W54715  26.731   0.080  22.063 -0.1670 -0.0669 -0.1480
11803W        W54716  17.869   0.881  22.598 -0.0484 -0.0468 -0.1696
11804W        W54717  12.622  33.237  18.814 -0.1712  0.2520 -0.0038
11805W        W54718  14.190  31.689  17.135 -0.1723  0.3411 -0.0261
11806W        W54719  28.682  22.699  16.831 -0.1141  0.3356 -0.4239
11807W        W54720  24.398  34.243  18.280  0.1290  0.0540 -0.2345
11808W        W54721  24.215   1.334  16.627  0.1109  0.2523 -0.2040
11809W        W54722  17.685  26.385  25.616  0.1792  0.1401  0.1620
11810W        W54723  26.225  28.721  21.070  0.2010 -0.1017  0.1143
11811W        W54724   1.348  26.299  18.006 -0.2103  0.0276  0.0229
11812W        W54725  15.263  31.939  16.934  0.0156  0.0421 -0.1211
11813W        W54726  20.747  32.692  14.964  0.1396  0.0211  0.2080
11814W        W54727   1.016  31.145  17.414 -0.1447 -0.1962 -0.0491
11815W        W54728  32.847  32.281  18.867 -0.0561 -0.2899 -0.0121
11816W        W54729  25.360  11.595  17.328  0.2536  0.0367 -0.0018
11817W        W54730   8.116  33.389  25.189 -0.0924 -0.0166 -0.0091
11818W        W54731  21.223   1.840  19.446 -0.1526  0.1543 -0.0773
11819W        W54732  15.089  23.719  14.779  0.0763 -0.0296  0.1897
11820W        W54733  15.434  29.990  19.926  0.0007 -0.2757  0.1455
11821W        W54734  25.703  29.567  15.728 -0.0366 -0.1907  0.2186
11822W        W54735  26.138   4.747  20.809 -0.4393  0.0817 -0.2435
11823W        W54736  24.627  31.263  14.958 -0.3372 -0.0653 -0.2225
11824W        W54737  22.584  29.033  18.386  0.3277 -0.1012  0.1311
11825W        W54738  33.663   7.641  17.388 -0.0557 -0.1429  0.0193
11826W        W54739  22.915  29.440  21.747  0.2561  0.3207  0.2421
11827W        W54740  29.062  29.629  18.284 -0.0793 -0.0373  0.1806
11828W        W54741  22.314  24.746  22.648 -0.1753  0.1199  0.0699
11829W        W54742  32.610  29.284  13.631  0.1209 -0.1877 -0.2716
11830W        W54743  24.017   1.823  21.148 -0.1306 -0.0858  0.3486
11831W        W54744  28.581  25.170  17.338 -0.4341 -0.1157 -0.0089
11832W        W54745  32.470  33.113  15.088  0.0984 -0.1987 -0.1146
11833W        W54746  19.853   5.326  19.618  0.2680  0.3592  0.0364
11834W        W54747   5.592  17.392  20.478 -0.0285  0.3790  0.0298
11835W        W54748  19.154  30.795  22.775 -0.0579  0.2069  0.1227
11836W        W54749  30.819  28.018  24.264  0.0474  0.0892  0.0207
11837W        W54750  25.313  27.058  21.981 -0.3921 -0.0476 -0.1675
11838W        W54751  17.782  31.448  21.479  0.1083 -0.0575  0.1538
11839W        W54752  21.458  32.139  17.209 -0.0986 -0.2090 -0.0339
11840W        W54753  24.277  30.700  20.295 -0.2186 -0.0397 -0.1021
11841W        W54754  28.105   0.534  15.876 -0.2433  0.1801  0.1131
11842W        W54755  27.932  23.927  19.109  0.0481  0.1890 -0.1871
11843W        W54756  30.210  26.055  14.799 -0.2035  0.2545  0.1415
11844W        W54757   8.851  27.040  19.805  0.1641 -0.0408 -0.0079
11845W        W54758  27.111  30.689  13.765 -0.0111  0.0925  0.3250
11846W        W54759  22.325  30.534  24.262 -0.1635  0.1940  0.2070
11847W        W54760  10.945   0.488  22.658 -0.0479  0.3047 -0.2444
11848W        W54761  19.311  34.179  16.914  0.1979  0.1156  0.0474
11849W        W54762  26.304   1.457  16.328 -0.0072 -0.0050  0.1502
11850W        W54763  21.907  33.004  19.320 -0.1613  0.1320 -0.1419
11851W        W54764   8.749  23.770  18.114 -0.0997  0.0842  0.1432
11852W        W54765  22.478  27.107  26.777  0.4086  0.0798 -0.1278
11853W        W54766  30.283   6.460  24.449  0.0732 -0.2180 -0.0123
11854W        W54767  29.648  32.349  18.406  0.0381  0.0264  0.0665
11855W        W54768  27.312  34.282  17.922  0.0412 -0.0540  0.1197
11856W        W54769  24.050  34.365  16.859  0.0235 -0.0208 -0.0330
11857W        W54770  30.932   7.769  19.506  0.0069  0.0272 -0.2938
11858W        W54771  22.934   3.403  14.855 -0.0585  0.0951 -0.0222
11859W        W54772  18.129  25.210  18.791 -0.0005 -0.1365  0.0099
11860W        W54773  28.477  29.927  14.712  0.0948 -0.0519  0.1321
11861W        W54774  32.757  26.418  19.750  0.1783  0.3231  0.0885
11862W        W54775  14.669  19.949  23.715  0.1162  0.0611  0.0096
11863W        W54776  29.976  28.284  25.975 -0.2144  0.1996 -0.1640
11864W        W54777  22.145   3.892  24.054 -0.1505 -0.1634 -0.1620
11865W        W54778  23.502  15.629  22.366 -0.1727 -0.1025 -0.2212
11866W        W54779  18.993  24.494  19.024  0.3871 -0.2606 -0.1176
11867W        W54780  26.401   0.665  15.722 -0.0184  0.1872 -0.0816
11868W        W54781  14.981  31.572  16.306 -0.1949  0.0042  0.0972
11869W        W54782  20.645  24.145  14.421  0.1454  0.0074  0.1665
11870W        W54783  20.200  31.806  23.201 -0.1630 -0.1179 -0.0750
11871W        W54784   1.426  31.467  23.094  0.2465  0.1505  0.3121
11872W        W54785   9.025  33.628  21.385 -0.0147  0.1008  0.1350
11873W        W54786  24.725  11.419  16.377  0.0349  0.2241 -0.0375
11874W        W54787  31.599  25.308  16.571  0.0228 -0.1274 -0.0164
11875W        W54788  16.313  32.055  20.957 -0.0280  0.2361 -0.1263
11876W        W54789  25.391  19.652  15.364 -0.1298  0.1290  0.2378
11877W        W54790  16.845  30.652  22.153  0.0749  0.0849  0.0546
11878W        W54791  21.276  20.821  14.433  0.0210  0.1306  0.4067
11879W        W54792  18.866  25.751  20.073 -0.0932  0.2171 -0.0448
11880W        W54793  27.875  25.220  15.909 -0.0637  0.3576 -0.0110
11881W        W54794  20.160  30.986  19.828 -0.1398  0.1051 -0.2484
11882W        W54795  16.407  34.480   0.616  0.2207 -0.0562  0.1081
11883W        W54796  21.206   2.723  18.544  0.0220  0.2025  0.1910
11884W        W54797  21.291   3.376  19.092  0.1542 -0.0349  0.4006
11885W        W54798  22.786   1.989  18.378 -0.0121 -0.0200 -0.3528
11886W        W54799  26.641   8.407  18.439  0.2140  0.1801  0.1475
11887W        W54800  14.854  29.343  19.968 -0.1309  0.0165  0.1674
11888W        W54801  21.957  33.653  21.636  0.2177 -0.2148  0.1145
11889W        W54802  25.156  33.800  19.138 -0.1230  0.0201 -0.0478
11890W        W54803  13.808   2.779  17.999  0.2872 -0.2185 -0.1194
11891W        W54804  27.970  21.398  16.526  0.1244  0.0435 -0.1181
11892W        W54805  22.263  27.865  14.152 -0.0517 -0.1622  0.0158
11893W        W54806  25.942  25.996  21.326  0.0982  0.3734 -0.1873
11894W        W54807  29.061  11.420  20.117 -0.5059  0.0897  0.0771
11895W        W54808  20.387  32.091  24.020 -0.0419  0.1124  0.1299
11896W        W54809  26.489  28.706  14.938  0.0721  0.0345  0.0620
11897W        W54810  24.437  22.365  20.892  0.0241 -0.1101 -0.0158
11898W        W54811  18.554  32.041  18.127 -0.3762 -0.1817  0.1974
11899W        W54812  22.088  27.654  24.722  0.0675 -0.0172  0.0382
11900W        W54813  29.186  31.392  16.043 -0.0779 -0.0210  0.1598
11901W        W54814  24.759  31.724  16.543 -0.0587  0.1063  0.0964
11902W        W54815  28.297   5.705  22.074  0.0177  0.0452 -0.1629
11903W        W54816  25.990  23.622  14.966  0.1430 -0.2786 -0.0744
11904W        W54817  33.490  32.026  22.493 -0.1528 -0.0895 -0.3188
11905W        W54818  22.273  25.034  19.032 -0.0211 -0.2069 -0.1397
11906W        W54819  24.426   4.958  17.568  0.3355 -0.0442  0.1128
11907W        W54820  28.274  29.107  27.368  0.1535 -0.2613 -0.0402
11908W        W54821  28.660  27.824  15.152 -0.0475 -0.1035 -0.0368
11909W        W54822  24.327  23.999  14.430 -0.0965 -0.1397  0.2888
11910W        W54823  19.295  34.159  22.884  0.0881 -0.0451 -0.1018
11911W        W54824  18.446  30.484  15.135  0.1001  0.1218  0.0143
11912W        W54825  20.766  26.564  14.698 -0.1023 -0.2579  0.2186
11913W        W54826   4.043  31.248  17.486 -0.0985 -0.0041 -0.0686
11914W        W54827  22.033  30.870  17.583  0.1214 -0.1714  0.1113
11915W        W54828  15.535  22.753  23.040 -0.0415  0.0225  0.1886
11916W        W54829  26.595  22.776  20.071 -0.1464 -0.3722 -0.1233
11917W        W54830  24.638  34.198  20.152  0.0187  0.0963 -0.0794
11918W        W54831  31.807  25.447  20.745  0.4152  0.1663 -0.1025
11919W        W54832  21.606  27.071  19.446 -0.1081 -0.1633 -0.2108
11920W        W54833  19.835  31.887  21.608 -0.0416 -0.0074 -0.2296
11921W        W54834  22.693   7.713  19.987  0.1132 -0.0765 -0.0846
11922W        W54835  28.467  31.240  15.318 -0.2052 -0.1158  0.1563
11923W        W54836   3.947  26.698  16.700 -0.1811  0.0283  0.3825
11924W        W54837   1.029  34.091  26.323 -0.0262  0.3384 -0.0339
11925W        W54838  25.692  34.021  21.777 -0.1876 -0.0896 -0.0035
11926W        W54839  23.865   1.148  16.331 -0.0085  0.0876 -0.1800
11927W        W54840  26.782  29.067  18.453 -0.2051 -0.2389 -0.4810
11928W        W54841  27.894   2.770  19.127 -0.1500  0.0549  0.0658
11929W        W54842   3.171   3.075  16.619  0.2061  0.0560  0.2101
11930W        W54843   1.677   2.285  18.953  0.4308  0.0198  0.0262
11931W        W54844  27.349  20.591  19.918  0.2008 -0.0318  0.2312
11932W        W54845  23.599   2.791  14.889 -0.0915  0.1183 -0.1943
11933W        W54846  21.799  32.725  13.092  0.2146  0.0129  0.1049
11934W        W54847  23.120  30.453  18.600  0.0121  0.1723  0.1033
11935W        W54848  32.579  33.269  18.910  0.1612 -0.0213 -0.0052
11936W        W54849  23.766  32.338  28.624  0.0765  0.2713 -0.1069
11937W        W54850  26.502   0.121  16.658  0.1476 -0.1616 -0.0180
11938W        W54851  33.519  24.891  16.860  0.0952  0.0993 -0.2857
11939W        W54852  17.538   1.238  15.188  0.0772  0.1907  0.2026
11940W        W54853  29.578   2.652  15.964 -0.2908 -0.0885  0.4876
11941W        W54854  29.597   2.490  17.451 -0.0726 -0.2217 -0.3757
11942W        W54855   9.872   0.275  21.850 -0.0593 -0.1324  0.4479
11943W        W54856  31.562  26.404  21.059 -0.0542  0.0312  0.0910
11944W        W54857  25.981  28.606  15.668 -0.0678 -0.1416 -0.2316
11945W        W54858  21.763   3.660  14.005  0.4052  0.0823 -0.3447
11946W        W54859  11.858  27.558  17.993 -0.1829  0.2912 -0.3640
11947W        W54860  26.232  22.939  20.424  0.3654 -0.0343 -0.0211
11948W        W54861  16.852  25.882  16.099  0.2784  0.0694  0.1693
11949W        W54862  29.098  25.406  19.099  0.0930 -0.1259  0.0724
11950W        W54863  13.782  25.678  17.556 -0.2388 -0.3306  0.1863
11951W        W54864  27.421  34.019  21.663 -0.1771  0.1155  0.0874
11952W        W54865  23.316  19.911  20.383 -0.1144  0.1772 -0.1465
11953W        W54866  23.018   2.189  20.694  0.2132  0.2139 -0.1952
11954W        W54867  20.392   2.381  17.506 -0.2435  0.0762 -0.0759
11955W        W54868  13.053  26.704  26.595 -0.0640  0.3478 -0.1034
11956W        W54869  27.393   1.674  21.412  0.2348 -0.0751 -0.0011
11957W        W54870  32.489  33.529  23.017 -0.1083 -0.0138  0.1474
11958W        W54871  23.652  32.678  14.506  0.1209  0.0255  0.2848
11959W        W54872  28.153  19.550  28.557  0.2380 -0.1843 -0.2658
11960W        W54873  26.385  31.109  19.518  0.0578 -0.0767  0.2683
11961W        W54874  27.760   3.484  14.407  0.2788 -0.0992  0.2434
11962W        W54875  26.601   0.055  20.053  0.1031 -0.0639  0.1733
11963W        W54876  28.480  26.519  16.066 -0.1012 -0.0922 -0.2314
11964W        W54877  24.916  29.025  27.406 -0.0991 -0.2372 -0.1334
11965W        W54878  13.958  30.723  18.378  0.1226  0.1727 -0.3707
11966W        W54879  21.918  26.643  20.234  0.1114  0.0874 -0.2830
11967W        W54880  34.345  21.521   7.827 -0.1361 -0.2767 -0.0453
11968W        W54881  30.810  24.499  19.665 -0.1702  0.0511  0.0207
11969W        W54882  18.547   1.800  24.743 -0.0488 -0.0332 -0.1640
11970W        W54883  23.136   4.199  15.198 -0.1502 -0.0931 -0.0858
11971W        W54884  32.275   2.744  22.385  0.1227  0.1353  0.4203
11972W        W54885  28.253  31.268  20.527 -0.0442  0.0099  0.0585
11973W        W54886  28.510  26.487  18.316 -0.0382 -0.3122 -0.2783
11974W        W54887  27.341   2.752  19.271 -0.0771 -0.0182 -0.1504
11975W        W54888  26.938   3.319  16.695  0.0119  0.1753  0.3547
11976W        W54889  21.128  33.845  27.193 -0.2370 -0.0162 -0.2241
11977W        W54890  28.378  24.969  24.003  0.0654  0.2607  0.1813
11978W        W54891  27.639  31.126  15.084 -0.4408 -0.0999  0.0880
11979W        W54892  29.200  27.264  20.092  0.0332  0.2502  0.4439
11980W        W54893  22.398  28.154  18.353  0.1092 -0.2308  0.4413
11981W        W54894  19.912  29.111  22.593  0.1517 -0.0943  0.2853
11982W        W54895  14.321  31.383  24.033  0.0871 -0.1107  0.5528
11983W        W54896  20.659  21.732  20.100 -0.1325  0.3181  0.1417
11984W        W54897  15.172  32.356  16.163  0.3313  0.3817 -0.0686
11985W        W54898   5.147  18.731  22.851  0.1833 -0.0609  0.1009
11986W        W54899  18.660  28.666  21.821  0.1800  0.4059 -0.0159
11987W        W54900  28.737  31.205  24.941 -0.3126  0.2319 -0.1002
11988W        W54901  23.744  28.255  14.525  0.1425 -0.3996 -0.1548
11989W        W54902  17.564  29.864  20.110  0.0863 -0.0836  0.1355
11990W        W54903  33.024  22.183  17.370 -0.1613 -0.1618 -0.0557
11991W        W54904   1.400  30.818  21.880  0.0305  0.0435  0.0752
11992W        W54905  30.633   0.653  16.317  0.0421 -0.0864  0.0216
11993W        W54906  26.271  24.853  25.967  0.2934  0.1300  0.2652
11994W        W54907  25.141  31.367  28.298 -0.0135  0.2239  0.1408
11995W        W54908  26.505  25.000  17.757 -0.1136 -0.1066  0.0234
11996W        W54909  26.239  27.658  13.496  0.0542 -0.2367  0.1801
11997W        W54910  26.527  27.933  24.398 -0.1902 -0.0332 -0.3206
11998W        W54911  28.900  28.910  17.589  0.0025 -0.4015 -0.0826
11999W        W54912  20.118   6.830  14.932  0.1197 -0.1797  0.2723
12000W        W54913  30.533  27.381  16.971 -0.0727  0.0124 -0.0062
12001W        W54914  27.913  24.485  26.058 -0.2627  0.0913 -0.1400
12002W        W54915  16.208  33.259  27.049 -0.0607  0.0096  0.0323
12003W        W54916  19.122  30.850  19.060  0.1793 -0.3048 -0.3498
12004W        W54917  22.156  31.359  15.916  0.1009  0.1357 -0.0859
12005W        W54918  19.892  22.371  19.334  0.0841 -0.1663 -0.2487
12006W        W54919   2.865  33.647  17.258  0.1738  0.2742  0.0273
12007W        W54920  10.913   3.444  28.101  0.0192 -0.1104  0.2495
12008W        W54921  25.074  27.653  14.221 -0.5661 -0.2001  0.4347
12009W        W54922  31.714  26.303  20.089  0.0958 -0.2032 -0.2280
12010W        W54923  28.705  34.407  18.471 -0.1276  0.1536  0.1821
12011W        W54924  20.969  21.036  23.173 -0.1976 -0.2005 -0.0445
12012W        W54925  19.602  26.352  14.242 -0.1688 -0.0090 -0.0308
12013W        W54926  20.059   8.465  15.531 -0.0596  0.3879  0.1049
12014W        W54927  29.042  23.045  16.712  0.2735  0.1756  0.3026
12015W        W54928  19.802  22.847  21.404  0.3695  0.0653 -0.1382
12016W        W54929  29.029  32.140  17.149  0.2509 -0.2135 -0.1063
12017W        W54930  31.389  28.124  15.667  0.1150 -0.2577 -0.1648
12018W        W54931   0.875  26.014  17.811  0.0382  0.0187  0.1046
12019W        W54932  20.169  30.923  22.615 -0.0544 -0.0039 -0.1977
12020W        W54933  27.505  27.829  22.282 -0.0304 -0.0749 -0.0547
12021W        W54934  20.548  23.873  17.101 -0.0451 -0.1667  0.3804
12022W        W54935  24.894  29.204  14.221 -0.4854  0.0717  0.2235
12023W        W54936  22.310   4.720  16.262 -0.1866  0.0938  0.0647
12024W        W54937  25.054   0.281  15.451  0.0857 -0.1380 -0.0592
12025W        W54938  22.654  28.680  15.988  0.1145  0.2699 -0.3243
12026W        W54939  18.244   1.248  23.747 -0.2439 -0.0475  0.0639
12027W        W54940  32.218  26.979  15.884  0.2587 -0.1292 -0.1021
12028W        W54941  11.378  17.829  16.615  0.0228  0.0431 -0.1563
12029W        W54942  12.322  24.065  15.991 -0.1461 -0.1147 -0.1145
12030W        W54943  24.882  29.516  20.539  0.0443 -0.0900 -0.0088
12031W        W54944  20.428   2.618  16.481  0.1460 -0.0245  0.0832
12032W        W54945  22.505   0.751  20.236 -0.0400  0.2500 -0.0204
12033W        W54946  26.903   8.117  15.374  0.0486  0.0576 -0.1060
12034W        W54947  28.958  31.743  14.791 -0.1202  0.2403  0.0976
12035W        W54948  19.645  29.101  24.614  0.0132 -0.0849  0.0368
12036W        W54949  24.214   0.391  22.533 -0.1480  0.3122 -0.1186
12037W        W54950  28.306  33.214  15.456  0.2613  0.2956  0.0882
12038W        W54951  25.443  34.031  16.628 -0.0790 -0.0307 -0.1270
12039W        W54952  28.410   2.502  14.883  0.2426  0.1997  0.1571
12040W        W54953  22.970  27.217  18.953 -0.0205 -0.3921  0.0497
12041W        W54954  28.591  25.722  26.135  0.0969 -0.0742  0.0910
12042W        W54955  30.172   0.887  29.455 -0.1393  0.0658  0.2468
12043W        W54956  20.163  26.920  22.385 -0.1341 -0.0996  0.0263
12044W        W54957  34.247  32.978  16.382  0.0108 -0.1867 -0.1310
12045W        W54958  29.622  31.568  18.961  0.0965  0.1098  0.2143
12046W        W54959  24.187   1.838  22.189 -0.0400 -0.0548 -0.2057
12047W        W54960  28.473  30.618  15.289  0.0838 -0.0381 -0.0202
12048W        W54961  29.423   0.068  15.609 -0.0884 -0.0200 -0.1206
12049W        W54962  31.062  34.098  19.662 -0.2028 -0.2950 -0.4782
12050W        W54963  19.580   0.595  17.011 -0.0161  0.1568  0.1354
12051W        W54964  29.993  30.382  18.869 -0.0779  0.0087 -0.1525
12052W        W54965  29.240  29.706  19.274 -0.0044  0.3849 -0.1652
12053W        W54966  26.384   0.542  22.652  0.4100 -0.1300  0.1941
12054W        W54967  22.715  29.169  18.850 -0.1285  0.0119 -0.1668
12055W        W54968  24.346  33.378  20.135  0.0698  0.0757 -0.0771
12056W        W54969  23.207  32.921  15.437 -0.0164 -0.1327 -0.1236
12057W        W54970  21.174  31.414  17.533  0.1340 -0.1023  0.0053
12058W        W54971  12.679  28.366  16.313  0.1257  0.2986  0.3662
12059W        W54972  20.105   1.396  25.638 -0.0962 -0.0015  0.2983
12060W        W54973  29.177  33.670  16.955 -0.0123 -0.0108 -0.1810
12061W        W54974  23.656  31.403  22.099  0.1233  0.2403  0.1034
12062W        W54975  19.594  27.503  17.291  0.1053  0.0759 -0.1544
12063W        W54976  28.781  27.953  15.736 -0.1432  0.1796 -0.0017
12064W        W54977  28.964  21.383  19.682  0.0598 -0.1747 -0.0155
12065W        W54978  31.797  27.889  17.356 -0.3845  0.0425 -0.0660
12066W        W54979  23.791  32.080  19.853  0.2276  0.0913 -0.0007
12067W        W54980  31.898  27.579  19.035  0.0208 -0.2760  0.1737
12068W        W54981  31.373  26.166  18.342  0.0153  0.2854 -0.2093
12069W        W54982  19.669   4.239  19.035  0.1370  0.1320 -0.0216
12070W        W54983  18.387   6.110  14.815 -0.1052  0.3186 -0.1512
12071W        W54984  21.216  26.374  14.937 -0.0418 -0.0655  0.1385
12072W        W54985  22.419  31.463  13.417 -0.0439 -0.0545 -0.1130
12073W        W54986  25.710  27.007  15.485 -0.3594 -0.2093 -0.0893
12074W        W54987  15.510  25.889  18.130  0.1208 -0.1642 -0.1700
12075W        W54988  25.114  28.011  18.753  0.1488 -0.0186  0.1460
12076W        W54989  28.571  30.739  14.081 -0.3126 -0.6042 -0.1125
12077W        W54990  19.684   4.023  15.953  0.3007 -0.2078 -0.0525
12078W        W54991  33.540  22.789  17.706 -0.1161 -0.0255  0.1874
12079W        W54992  27.667  25.612  15.484 -0.2465  0.3103  0.0258
12080W        W54993  18.662  30.143  21.411 -0.3851  0.1815  0.0497
12081W        W54994  21.434  21.909  20.191 -0.0107 -0.1096  0.2260
12082W        W54995  28.815  34.029  16.745 -0.0262  0.2508  0.3160
12083W        W54996  25.247   3.139  20.149 -0.1314  0.3065  0.3013
12084W        W54997  28.991  32.371  19.071  0.3405 -0.3271  0.0047
12085W        W54998  25.858  33.211  16.247 -0.0391 -0.0070  0.4946
12086W        W54999  19.551  23.291  19.462  0.0448  0.1567 -0.0959
12087W        W55000  27.038  31.313  17.004  0.2070 -0.1822  0.1569
12088W        W55001  23.522   3.037  18.722 -0.0261  0.0997 -0.1511
12089W        W55002  20.037  29.955  22.479 -0.0716  0.1639 -0.0396
12090W        W55003  26.717  27.940  15.272 -0.0179  0.2745 -0.0698
12091W        W55004  19.750  33.334  21.788 -0.2631  0.0717  0.1118
12092W        W55005  21.684   7.726  24.109  0.0283  0.0479 -0.1396
12093W        W55006  23.631   6.434  22.853 -0.1598  0.0748 -0.1724
12094W        W55007  21.656  29.304  15.819 -0.0811  0.2604  0.1334
12095W        W55008  24.804  23.188  13.191 -0.1800  0.0215 -0.1110
12096W        W55009  12.310  29.277  16.573  0.0970 -0.1453  0.0363
12097W        W55010  16.632  25.461  22.762  0.4129  0.1626 -0.1472
12098W        W55011  31.963  25.016  14.017 -0.2351 -0.0001  0.2469
12099W        W55012  28.647  29.587  13.225  0.1425 -0.0986  0.0768
12100W        W55013   1.801  25.613  16.154  0.3701 -0.0466  0.0403
12101W        W55014  29.686  32.168  17.898  0.0029  0.3014 -0.1902
12102W        W55015  27.756  32.440  22.564 -0.0345  0.2885  0.3129
12103W        W55016  27.863  28.985  14.996 -0.0321  0.2953 -0.0092
12104W        W55017  22.754  10.292  18.265 -0.0351  0.0682  0.0603
12105W        W55018  14.227  29.843  18.674 -0.2497  0.3561 -0.0644
12106W        W55019  17.251  24.301  14.639 -0.2048 -0.1111  0.0281
12107W        W55020  29.848  28.044  18.371  0.0234 -0.0685 -0.0304
12108W        W55021  17.586  26.868  20.850  0.2444 -0.1586 -0.1098
12109W        W55022  29.804  31.566  16.872  0.1956 -0.1395 -0.1426
12110W        W55023  31.588   2.005  15.907  0.2123  0.2278 -0.3223
12111W        W55024  28.607  30.947  16.931  0.0298 -0.2219 -0.1691
12112W        W55025   5.459   3.163  20.600 -0.1781 -0.1770 -0.0279
12113W        W55026  25.666   3.487  15.010 -0.3845 -0.1988  0.1051
12114W        W55027  13.781   2.994  20.527  0.1396 -0.1748  0.1355
12115W        W55028  21.059   4.066  15.595 -0.3115  0.1220 -0.3110
12116W        W55029  20.237  27.575  15.729 -0.2419  0.1389 -0.2165
12117W        W55030  10.454   4.293  19.253 -0.0120 -0.0367 -0.0410
12118W        W55031  19.155  23.217  14.686  0.1230 -0.2222 -0.0346
12119W        W55032  12.149  28.425  18.172  0.1178  0.2190 -0.0911
12120W        W55033  22.155   1.332  15.603 -0.2038  0.2585 -0.0195
12121W        W55034  31.068  25.359  19.556  0.0800 -0.0256 -0.1804
12122W        W55035  29.593  32.415  16.430  0.3934 -0.0693 -0.1489
12123W        W55036  28.666   2.118  19.107 -0.0258 -0.0715 -0.2058
12124W        W55037   9.250   5.708  26.062  0.1750  0.0298 -0.0921
12125W        W55038  32.654   2.782  22.829  0.0009 -0.3493  0.2049
12126W        W55039  26.475   3.291  16.445 -0.0237  0.2373 -0.0900
12127W        W55040  28.637   0.658  15.945  0.1552 -0.0031 -0.0098
12128W        W55041  24.276   1.453  14.016  0.4717 -0.1066  0.1334
12129W        W55042   0.447  28.136  15.544  0.0548 -0.0063 -0.0030
12130W        W55043  19.816  31.862  17.396  0.1761  0.2499 -0.2466
12131W        W55044  32.187  26.874  27.608  0.2847 -0.1141  0.0679
12132W        W55045  24.089  21.154  20.502 -0.0175 -0.2174 -0.0373
12133W        W55046  15.996  34.354  19.844  0.1106  0.3122  0.0363
12134W        W55047  17.775  27.316  15.291 -0.0112  0.0674  0.1318
12135W        W55048  21.030   1.443  13.515  0.0425  0.2232 -0.1064
12136W        W55049  24.592   2.219  15.051  0.1290  0.0216  0.0414
12137W        W55050  23.283  30.751  17.909 -0.0229  0.1043 -0.1421
12138W        W55051  27.884   3.678  21.658  0.3581  0.3232 -0.0890
12139W        W55052  23.729   1.152  18.161 -0.1044 -0.0434 -0.3122
12140W        W55053  23.662  31.162  18.833  0.0340 -0.0362  0.0017
12141W        W55054  16.806  33.648  15.762  0.0085 -0.0978  0.0702
12142W        W55055  29.709  29.301  15.021  0.0892  0.0519 -0.1346
12143W        W55056  22.015  29.036  14.876 -0.1450  0.1788  0.1159
12144W        W55057  27.114  31.865  22.290 -0.1232  0.0036  0.0401
12145W        W55058  27.537   0.752  14.063 -0.2060 -0.2256  0.0369
12146W        W55059  28.192  31.616  19.184 -0.1177 -0.1815 -0.2015
12147W        W55060  15.910  24.281  24.287  0.3398 -0.1635  0.3709
12148W        W55061  28.316   7.667  16.568 -0.1462 -0.1124  0.2114
12149W        W55062  14.743  22.980  17.338  0.2151  0.0078 -0.2597
12150W        W55063  18.317  30.731  18.111 -0.0281 -0.3278  0.0356
12151W        W55064  26.558  32.659  14.780 -0.2095 -0.2793 -0.0674
12152W        W55065  24.060  26.239  14.771 -0.0731 -0.1763 -0.2525
12153W        W55066  24.202  11.595  19.925  0.0044  0.1291 -0.2468
12154W        W55067  29.613  32.813  16.764 -0.0750 -0.2415  0.0440
12155W        W55068  29.618  12.565  25.207 -0.1488 -0.2707 -0.3099
12156W        W55069  33.681  31.348  25.847  0.1767  0.3658  0.0669
12157W        W55070  30.910  27.962  17.338  0.2347  0.4330  0.1082
12158W        W55071  23.859  33.973  17.224  0.1161  0.0665  0.0658
12159W        W55072  33.613  27.267  21.894  0.2452  0.2373 -0.3786
12160W        W55073  23.697  33.161  14.978 -0.1232 -0.1423 -0.0395
12161W        W55074  24.276  27.752   1.670  0.0134 -0.1901 -0.1456
12162W        W55075  27.033  25.534  24.907  0.1166 -0.0702 -0.2753
12163W        W55076  17.978  31.848  18.802 -0.1209  0.2021 -0.0892
12164W        W55077  27.835   1.878  14.762 -0.0928  0.3681 -0.0609
12165W        W55078  22.391  25.434  15.714  0.2293 -0.0794  0.1661
12166W        W55079   8.361  26.412  26.730  0.0752 -0.0374 -0.0452
12167W        W55080  22.197  34.457  22.106  0.1562 -0.0721  0.0968
12168W        W55081  24.355  30.705  23.938 -0.0968 -0.1638  0.1130
12169W        W55082  23.016  33.684  25.431 -0.0316 -0.0745  0.0396
12170W        W55083  27.686   1.452  16.195  0.0887  0.4713  0.0256
12171W        W55084   0.906  34.061  20.713 -0.0920  0.5003  0.2250
12172W        W55085  30.005  25.926  19.693  0.2519 -0.1494 -0.0518
12173W        W55086   0.993  30.452  14.578 -0.0959 -0.3394  0.0574
12174W        W55087  19.843  24.071  15.410 -0.2549 -0.2000 -0.1939
12175W        W55088  21.953  31.095  14.016  0.1968  0.2099  0.2611
12176W        W55089  21.111  18.807  21.378 -0.0029  0.2576 -0.1080
12177W        W55090  22.356  25.959  17.574  0.0146 -0.1204  0.0892
12178W        W55091  21.755  21.066  15.194 -0.3463  0.1729 -0.0853
12179W        W55092  30.561  31.626  15.853 -0.2539  0.0390  0.1026
12180W        W55093  22.156  26.753  13.370 -0.1048  0.2358  0.0480
12181W        W55094  25.961  11.030  18.415 -0.1896 -0.2638 -0.1103
12182W        W55095  25.266  30.593  14.006  0.1021 -0.3121  0.0117
12183W        W55096  27.687   4.890  16.232 -0.0850 -0.0648  0.0146
12184W        W55097   3.003  23.110  19.530  0.0334  0.0305 -0.0381
12185W        W55098  17.245  33.325  26.822 -0.1261  0.3785 -0.2348
12186W        W55099  27.875   0.408  18.022 -0.2103 -0.0281 -0.0253
12187W        W55100  23.592   3.348  20.122 -0.1006 -0.0554  0.2321
12188W        W55101   9.508   1.941  21.878 -0.0810  0.2199 -0.0540
12189W        W55102  20.220  32.527   1.540  0.1358  0.0177 -0.2668
12190W        W55103  32.564  31.040  18.807 -0.0410  0.0469  0.0959
12191W        W55104  32.577  30.966  19.376  0.1072  0.1631  0.1533
12192W        W55105  12.075  32.245  17.000  0.3144  0.0455 -0.0019
12193W        W55106  25.315  30.017  29.469  0.0715 -0.3703  0.0877
12194W        W55107  21.992  32.836  16.815  0.2430  0.0809 -0.2181
12195W        W55108  27.008  33.396  23.680 -0.3193 -0.1377 -0.2668
12196W        W55109  29.613  31.692  29.724 -0.1788  0.3462  0.0757
12197W        W55110  22.164  32.774  15.381  0.0787 -0.1520  0.1454
12198W        W55111  24.678  29.787  16.661  0.2825 -0.2743 -0.4701
12199W        W55112  25.601  31.515  16.148  0.2579  0.2632  0.3148
12200W        W55113  33.978  22.549  18.159  0.0618 -0.1156 -0.1580
12201W        W55114  30.204  12.966  22.140  0.0279 -0.0993 -0.2199
12202W        W55115  21.654  32.758  18.409  0.2219 -0.0550  0.0933
12203W        W55116  18.403  27.515   0.440 -0.0894 -0.1754  0.1019
12204W        W55117  26.883  26.779  27.030  0.2088  0.1223 -0.3070
12205W        W55118   8.813  18.031  17.410 -0.0429 -0.3125 -0.0839
12206W        W55119  19.060  25.007  16.682 -0.0105 -0.1834 -0.0071
12207W        W55120  22.688  23.091  16.984 -0.3775 -0.1995 -0.0531
12208W        W55121  13.407  24.312   1.259  0.1955  0.1093 -0.2320
12209W        W55122  16.810   0.796  21.613 -0.2964 -0.2993 -0.0565
12210W        W55123  27.904   3.532  20.702  0.1331 -0.1823  0.0886
12211W        W55124  26.251  31.804  22.753  0.2032 -0.5653  0.3178
12212W        W55125  12.790  30.053  20.312  0.0294 -0.0320 -0.1018
12213W        W55126  27.320   2.241  18.299  0.1814  0.1143  0.0425
12214W        W55127  17.908   5.579  16.532 -0.4473  0.2849  0.4021
12215W        W55128  30.151  30.825  21.093 -0.0122  0.0147 -0.2242
12216W        W55129  27.768   2.504  17.395 -0.0456 -0.3352  0.0704
12217W        W55130  12.704   0.104  17.934 -0.2566  0.0246  0.0259
12218W        W55131  21.602   1.597  15.465 -0.1774 -0.0461  0.1139
12219W        W55132  22.828  29.179  20.884 -0.1409  0.0037 -0.2913
12220W        W55133  12.311  31.415   3.127 -0.1639 -0.2558 -0.1033
12221W        W55134  20.776  31.315  17.875  0.3134 -0.0680  0.1920
12222W        W55135  28.556  34.270  21.422 -0.1067  0.2542  0.3407
12223W        W55136  24.106  20.491  15.066  0.0507  0.0503  0.1501
12224W        W55137  21.997   3.644  17.703  0.2715 -0.0541 -0.4174
12225W        W55138  25.287   0.689   3.452  0.0544  0.2880  0.2751
12226W        W55139  13.101  26.004  25.923  0.2074 -0.3318 -0.0643
12227W        W55140  21.167  29.749   0.322  0.0736  0.2074  0.3878
12228W        W55141  28.482  30.554  20.320 -0.0691 -0.0491  0.0936
12229W        W55142  29.684  28.202  16.951 -0.0125 -0.4398 -0.1105
12230W        W55143  28.617  27.642  16.082  0.0759  0.0358  0.3137
12231W        W55144  21.191  26.593  17.417  0.1955 -0.0355  0.0965
12232W        W55145  29.494   9.979  18.029  0.2568 -0.3386  0.0444
12233W        W55146  21.746   3.525  22.332 -0.1146 -0.0992  0.0974
12234W        W55147  18.221  30.393  24.265  0.0969 -0.3136 -0.1918
12235W        W55148  28.616  27.394  15.531  0.2302 -0.0289  0.1821
12236W        W55149  28.119  20.585  16.433  0.0555 -0.0595 -0.0782
12237W        W55150  16.465  31.207  23.273  0.0581 -0.2346  0.0607
12238W        W55151  28.305  33.232  14.534 -0.1752  0.0718 -0.0088
12239W        W55152  23.447  15.568  21.666 -0.2699  0.0227  0.3202
12240W        W55153  33.839  30.578  17.958 -0.1645  0.0344  0.4055
12241W        W55154  22.959  29.047  26.643  0.1806 -0.5024  0.2088
12242W        W55155  21.432  32.906  24.477  0.0042  0.3496  0.0645
12243W        W55156  19.192  27.572  25.363  0.2684 -0.4334  0.3048
12244W        W55157   1.837  33.749  26.533  0.1196 -0.0020  0.0166
12245W        W55158  22.639  30.673  26.306  0.1064  0.1462  0.1877
12246W        W55159  14.365  30.265  24.042  0.0274  0.0094  0.0047
12247W        W55160  13.287  34.390  20.186  0.0460  0.0401  0.0685
12248W        W55161  23.579  27.926  25.073  0.3837 -0.0926  0.2390
12249W        W55162  22.325  20.323  15.384  0.1182 -0.2318 -0.0954
12250W        W55163  21.883   3.872  21.147  0.2879  0.0358 -0.2259
12251W        W55164  28.022  17.285  15.788 -0.0960  0.0319  0.3604
12252W        W55165  27.081  33.411  15.031 -0.4033  0.0357 -0.1203
12253W        W55166  23.961  27.809  14.430  0.2250 -0.1388 -0.0085
12254W        W55167  28.091  21.480  23.943 -0.0931 -0.2853 -0.4508
12255W        W55168   6.691  31.754  21.902 -0.2365 -0.1641  0.1894
12256W        W55169  23.089  21.018   4.337 -0.0198 -0.0964 -0.1863
12257W        W55170  26.163  27.575  23.458 -0.0106 -0.0307 -0.0517
12258W        W55171  28.692  30.124  22.001 -0.1903  0.3477  0.2121
12259W        W55172  15.212  25.359  19.416  0.0190  0.0650 -0.0417
12260W        W55173  24.094  27.588  17.787  0.0036 -0.0903 -0.3663
12261W        W55174  13.327  25.891  17.305  0.1988 -0.0245 -0.0222
12262W        W55175  15.866  17.604  14.916 -0.1155 -0.0394 -0.2275
12263W        W55176  24.133  32.161  27.204 -0.0114  0.0783  0.2188
12264W        W55177  26.497   2.575  20.094  0.0282 -0.1786  0.2453
12265W        W55178  24.298  19.773  21.525  0.1026 -0.2507 -0.1506
12266W        W55179  32.100  32.334  15.848  0.1330 -0.0161 -0.2627
12267W        W55180  27.818   5.211  23.424 -0.0336  0.0784 -0.2865
12268W        W55181  28.203  31.270  23.759 -0.0711  0.0377  0.1820
12269W        W55182  24.003   4.453  22.853 -0.1158 -0.0421 -0.1065
12270W        W55183  24.661  27.867   0.318 -0.0309 -0.0828  0.0174
12271W        W55184  28.930  30.350  21.577 -0.1734 -0.1473 -0.1189
12272W        W55185  23.906   0.182  14.626  0.1347  0.0855 -0.1317
12273W        W55186  28.010   0.071  14.781  0.0791 -0.0933  0.2713
12274W        W55187  23.519  27.908  12.803 -0.1997 -0.2864 -0.3274
12275W        W55188  32.822  22.195  16.436  0.0132  0.0643 -0.1189
12276W        W55189  24.359  32.169  22.858 -0.4554 -0.1058  0.0795
12277W        W55190  24.830  17.482  16.715  0.0759  0.0327 -0.1342
12278W        W55191  24.674  31.958  18.607 -0.1492 -0.0449  0.1297
12279W        W55192  14.310  27.013  17.423 -0.1620  0.0363 -0.1317
12280W        W55193  25.509   1.040  18.936 -0.2811  0.2378  0.0652
12281W        W55194  28.239  29.027  29.425  0.2262  0.1131  0.0231
12282W        W55195  21.510   0.625  18.782  0.3370 -0.1524 -0.2109
12283W        W55196  31.230  22.717  26.156 -0.0706 -0.0215 -0.1815
12284W        W55197  30.519   9.643  20.080  0.2261 -0.1591  0.0292
12285W        W55198  19.182  27.098  27.832  0.0459  0.1254 -0.0390
12286W        W55199   1.527  19.600  25.649  0.0078 -0.0780 -0.1897
12287W        W55200  17.791  31.362  15.447 -0.3009 -0.1585  0.0615
12288W        W55201  23.397  27.698  17.048  0.1081 -0.0883 -0.2820
12289W        W55202  22.014  31.891  20.228 -0.2505 -0.1463  0.1587
12290W        W55203  13.668   5.126   1.660 -0.0569 -0.1521 -0.1338
12291W        W55204   1.092  21.331  26.308  0.2521 -0.1843 -0.1493
12292W        W55205  26.276  33.405  26.115  0.1206  0.2761  0.2883
12293W        W55206  27.572  27.932  15.191 -0.1366 -0.0875  0.2765
12294W        W55207  18.595   2.299  19.325 -0.2943  0.2880  0.0406
12295W        W55208  19.934  33.633  14.477  0.2373 -0.0914  0.1526
12296W        W55209  23.337  33.940  14.652 -0.0783 -0.2099  0.1294
12297W        W55210  33.327  31.350  16.159 -0.0586 -0.3424 -0.1675
12298W        W55211  13.696  18.762  14.844  0.1284 -0.2400 -0.3527
12299W        W55212  22.558   6.288  16.343 -0.3052  0.0848  0.4119
12300W        W55213  32.787  24.714  17.769 -0.0382 -0.0267  0.1829
12301W        W55214  30.011  27.944  17.699  0.0039 -0.0284 -0.0331
12302W        W55215  32.234  29.986  15.730 -0.1187 -0.1649 -0.1742
12303W        W55216  31.271  22.428  18.753  0.1941 -0.1122  0.0574
12304W        W55217  14.937  34.407  18.596  0.0736 -0.0258 -0.0988
12305W        W55218  26.090   4.330   1.887  0.1519 -0.1429 -0.5052
12306W        W55219  18.719  27.490  23.014  0.2097 -0.0119  0.2495
12307W        W55220  29.969  22.228   6.208 -0.0392  0.1366 -0.1628
12308W        W55221  22.546  25.091  13.737  0.0086  0.0871  0.0847
12309W        W55222  30.723  23.865  19.209  0.2477  0.2417 -0.0225
12310W        W55223  29.942  18.949  21.984  0.0423  0.0536  0.2668
12311W        W55224  13.320  33.508  18.739 -0.0468 -0.1378  0.1009
12312W        W55225  14.050   3.832  16.838  0.3341 -0.3127 -0.1167
12313W        W55226  17.919  23.980  18.798  0.0479  0.1808  0.0131
12314W        W55227  26.979  29.579   0.037 -0.0710  0.2600  0.4193
12315W        W55228  22.521   0.188  18.096 -0.0280  0.0489  0.2265
12316W        W55229  33.076  31.607  21.643  0.2221 -0.1870  0.2723
12317W        W55230  25.104   7.514  14.815  0.0766  0.1294 -0.0167
12318W        W55231  33.020   9.010  19.864 -0.0738 -0.1564  0.1410
12319W        W55232  22.151  22.046  14.476  0.1267 -0.0520  0.1611
12320W        W55233  15.659  32.858  18.526 -0.1349 -0.1027  0.3468
12321W        W55234  18.745   0.765  16.255  0.2266  0.3004 -0.2365
12322W        W55235  26.878   0.204  24.283  0.1435 -0.2390  0.0929
12323W        W55236  28.780  26.034  22.677 -0.0918 -0.1859 -0.3831
12324W        W55237  29.330  21.439  20.661 -0.2180  0.0007 -0.3016
12325W        W55238  29.478   8.652  16.352 -0.0441 -0.0086 -0.2433
12326W        W55239  22.624  24.563  19.633 -0.0787  0.1193 -0.3837
12327W        W55240  20.897  30.088  23.745 -0.2172  0.1736 -0.1785
12328W        W55241  24.276  22.497  22.337  0.0668 -0.1789 -0.2971
12329W        W55242  21.188  31.882  24.412 -0.1351  0.2077 -0.0857
12330W        W55243  13.691   2.245  17.922 -0.2020 -0.2506 -0.1780
12331W        W55244  31.107   8.641  19.688 -0.2891 -0.0063  0.2536
12332W        W55245  18.738  34.012  25.298  0.3329  0.1345  0.2229
12333W        W55246  27.213  21.813  19.459  0.0996  0.2574 -0.2117
12334W        W55247  20.217  16.729  13.481  0.3703  0.0419 -0.2913
12335W        W55248  28.145  33.589  25.201 -0.0017 -0.3305  0.2380
12336W        W55249  27.302   6.985  19.294 -0.0862 -0.0506 -0.1130
12337W        W55250  24.860  25.210  24.107 -0.0397 -0.1414 -0.2165
12338W        W55251  21.176  34.331  18.741  0.0620  0.3125 -0.2333
12339W        W55252  24.953  22.563  25.762 -0.2721  0.0332  0.1187
12340W        W55253  29.368  21.491  13.450 -0.4059 -0.0833  0.2928
12341W        W55254  25.182  33.946  17.695 -0.0295 -0.2887 -0.0075
12342W        W55255  32.874   4.868  26.646  0.0008  0.0218 -0.0320
12343W        W55256  21.048   6.805  14.780  0.5732 -0.0310 -0.1055
12344W        W55257  25.516   2.021  22.454 -0.0121  0.0884  0.1511
12345W        W55258  25.852  31.386  27.686  0.0228  0.1610 -0.0104
12346W        W55259  24.384  23.428  18.650  0.1254 -0.0044 -0.0991
12347W        W55260  28.085  34.463  24.743 -0.0433 -0.1702  0.4693
12348W        W55261  14.151  30.104  20.009 -0.2754 -0.1762  0.0380
12349W        W55262  27.180  30.570  16.742 -0.0185  0.1808  0.0949
12350W        W55263  24.289  33.648  20.929 -0.2358  0.0367  0.2836
12351W        W55264  24.973  18.626  19.490 -0.1548  0.0161 -0.0189
12352W        W55265  24.401   3.215  15.142 -0.2550 -0.0586  0.2395
12353W        W55266  19.674   6.849  26.077 -0.1014 -0.1977  0.3172
12354W        W55267  27.786  34.390  25.124  0.0700  0.1814 -0.0538
12355W        W55268  19.080  22.432  16.018  0.0569  0.1732  0.1128
12356W        W55269  25.666   0.775  19.921  0.2423  0.1979  0.1613
12357W        W55270  30.064  33.016  16.026  0.1507  0.1245 -0.0241
12358W        W55271  23.169  30.619  28.359 -0.0564 -0.1348  0.1976
12359W        W55272  29.557   1.205  20.402 -0.0070  0.0322  0.1810
12360W        W55273  28.809  29.214  17.174 -0.1477 -0.0456  0.2282
12361W        W55274  16.651   8.766  19.176 -0.0783 -0.1638  0.0115
12362W        W55275  11.139  32.695  29.277  0.1717  0.0835  0.1349
12363W        W55276  15.916   4.544  20.465  0.2923  0.2267 -0.1107
12364W        W55277   8.420   5.386  17.230 -0.2790  0.0285 -0.4532
12365W        W55278  22.596  23.528  19.727 -0.3927 -0.1225  0.0525
12366W        W55279  33.018  25.891  15.778 -0.1325 -0.1304  0.4500
12367W        W55280  28.254  22.979  15.021  0.2851 -0.1657  0.2722
12368W        W55281  15.173  24.983  21.792 -0.0447  0.0876  0.1804
12369W        W55282  19.522  13.365  22.112 -0.0528 -0.0988  0.1525
12370W        W55283  26.159  29.189  21.385 -0.1085 -0.0584 -0.1420
12371W        W55284  14.272  29.401  28.353 -0.0388  0.1452 -0.1642
12372W        W55285  18.368  30.518  18.595 -0.0479  0.2046  0.2367
12373W        W55286   1.294  22.972  15.273 -0.0178  0.1316  0.5110
12374W        W55287  29.433  31.512  13.887  0.2565  0.1706 -0.2242
12375W        W55288  14.958   0.262  18.182 -0.3320  0.1153 -0.1706
12376W        W55289  31.130  27.446  20.925 -0.1267 -0.1543 -0.2113
12377W        W55290  26.021  23.223  16.288 -0.0040 -0.0714  0.0086
12378W        W55291  21.480   1.906  25.137 -0.0848 -0.0065  0.1404
12379W        W55292  20.029  29.138  17.883  0.2932  0.0475 -0.0416
12380W        W55293  32.636  30.990  18.305 -0.0811  0.0123  0.0272
12381W        W55294  20.321  27.098  17.789  0.0173 -0.3303  0.3358
12382W        W55295  25.528   0.831  16.275 -0.0994  0.1877 -0.2507
12383W        W55296  13.722  14.472  17.244  0.0405 -0.0883  0.0523
12384W        W55297  14.203  20.324  17.612 -0.0741  0.2070 -0.3417
12385W        W55298  27.113  31.621  18.435  0.1947  0.1172  0.0035
12386W        W55299  30.487  27.717  15.696  0.3719 -0.0491 -0.2695
12387W        W55300  16.012  22.656  20.270 -0.0821 -0.1691 -0.0434
12388W        W55301  18.636   3.050  15.702  0.0325 -0.1347  0.0536
12389W        W55302  20.916  31.439  18.895 -0.0978  0.3845  0.0708
12390W        W55303  22.557  30.673  23.379 -0.0825 -0.4021 -0.0845
12391W        W55304  16.308   1.018   0.895  0.2063  0.1092 -0.1219
12392W        W55305  23.165  32.921  15.958 -0.2264  0.2897  0.2834
12393W        W55306  30.070   3.184  21.877 -0.0543 -0.1013 -0.3880
12394W        W55307  10.652  23.758  28.404  0.0055  0.3685 -0.1773
12395W        W55308  18.462  29.939  24.227 -0.2481  0.4037 -0.0324
12396W        W55309  18.642  26.268  21.440  0.0248  0.3573  0.1430
12397W        W55310  29.642  32.359  20.543 -0.1141  0.0437 -0.0831
12398W        W55311  20.466   8.246  15.777 -0.1403  0.1803  0.1305
12399W        W55312  22.200   2.327  14.785 -0.0567 -0.1039 -0.1418
12400W        W55313  29.300  17.022  15.829 -0.1088 -0.1769 -0.0732
12401W        W55314  33.508  28.939  22.095  0.1729 -0.3436 -0.0588
12402W        W55315  24.994   0.114  18.331  0.1534  0.0590  0.2400
12403W        W55316  30.096  22.309  17.738 -0.1705  0.0260  0.4105
12404W        W55317  29.828  30.092  22.020 -0.0792  0.2280  0.0666
12405W        W55318  30.795   0.961  22.669  0.0483 -0.1499  0.2498
12406W        W55319  15.409  29.126  17.494 -0.1045  0.0878 -0.1030
12407W        W55320  22.511   9.858  27.667 -0.2244 -0.1037  0.0573
12408W        W55321   1.906   2.449  20.707  0.4459 -0.1123 -0.0613
12409W        W55322  29.834  27.237  22.364 -0.1099  0.3130 -0.0211
12410W        W55323  23.199  14.234  19.258  0.0874 -0.0412 -0.1554
12411W        W55324  28.657  24.640  18.953  0.3390  0.1491  0.0887
12412W        W55325  24.226   7.090  25.363  0.0228 -0.0188  0.2959
12413W        W55326  24.496  31.906   2.389  0.6900 -0.0354  0.2823
12414W        W55327  27.073   2.759  18.091 -0.1389 -0.1588  0.4127
12415W        W55328  26.154  11.094  15.005 -0.0408  0.2584  0.1371
12416W        W55329  17.622  32.429  24.991  0.0972  0.1481  0.1824
12417W        W55330  25.634   8.061  18.623 -0.2665 -0.0096  0.1792
12418W        W55331  24.912  33.516  24.339 -0.3145  0.2788  0.0134
12419W        W55332  28.987  26.816  24.691  0.2213  0.2192 -0.0181
12420W        W55333  22.729   4.517  15.320  0.0621  0.1442  0.0598
12421W        W55334  22.217  31.428  23.234  0.0259 -0.0629  0.1031
12422W        W55335  24.914   4.149  27.689 -0.2743 -0.0428 -0.3542
12423W        W55336  26.195  32.376  15.040 -0.0721  0.1009  0.2236
12424W        W55337  24.822   1.004  21.363 -0.2629  0.2639  0.4866
12425W        W55338  25.131  24.965  25.483  0.1550  0.2651 -0.2912
12426W        W55339  28.321  28.822  14.403 -0.0779 -0.0500  0.0280
12427W        W55340  18.411  33.708  15.396  0.0200 -0.3148  0.0999
12428W        W55341  28.777   8.222  26.755  0.0157  0.0985  0.1612
12429W        W55342  25.625  31.089  13.407  0.0637 -0.0223 -0.2109
12430W        W55343  17.119  30.276  20.014 -0.0010 -0.1129 -0.2234
12431W        W55344  28.195  25.551  14.256 -0.0828 -0.0409  0.4095
12432W        W55345  25.531  25.419  24.915  0.0628 -0.3837  0.0591
12433W        W55346  26.368  24.219  23.720  0.1575 -0.0713  0.0131
12434W        W55347  19.064  27.133  24.633  0.1592  0.0509 -0.2679
12435W        W55348  14.144  24.907  24.045 -0.0759 -0.3435  0.1783
12436W        W55349  19.565  19.849  12.159 -0.0646 -0.0437 -0.0155
12437W        W55350  14.316  24.257  27.895 -0.0297 -0.0910  0.0271
12438W        W55351  27.963  31.613  22.997  0.0750 -0.1899  0.0902
12439W        W55352  29.368  29.335  25.990 -0.0280 -0.5448 -0.0950
12440W        W55353  32.957   4.326  25.105 -0.2611  0.2721 -0.3444
12441W        W55354  31.706  32.102  19.411  0.2488  0.2159 -0.1756
12442W        W55355  21.496   6.570  19.927 -0.0735 -0.0411  0.0908
12443W        W55356  25.198  29.525  15.931 -0.1142 -0.2631 -0.0718
12444W        W55357  20.166  30.268  15.315 -0.0700 -0.2308  0.1169
12445W        W55358   1.877  32.837  21.754 -0.5693  0.1665 -0.0272
12446W        W55359  15.222  32.200  27.260 -0.0645 -0.0188 -0.1449
12447W        W55360  19.824  28.773  23.022 -0.3479  0.1972  0.0748
12448W        W55361  31.310  28.371  27.436  0.1250 -0.1103  0.0855
12449W        W55362   0.825  26.507  21.316 -0.0063 -0.0996 -0.0585
12450W        W55363  21.077  31.474   1.671 -0.2557  0.1598  0.2366
12451W        W55364  32.824   1.003  22.374 -0.2412  0.1107 -0.0153
12452W        W55365  29.517  24.538  14.722 -0.2452 -0.1101  0.1907
12453W        W55366  24.931   4.987  27.504  0.1098  0.1350 -0.1190
12454W        W55367  27.548  32.089  29.165 -0.0387  0.0148  0.0559
12455W        W55368  30.365   0.562  15.312  0.2524  0.3820 -0.1615
12456W        W55369  25.432  33.707  27.345  0.2543 -0.2614 -0.4159
12457W        W55370   8.773  29.694  20.735 -0.1547  0.0557 -0.0663
12458W        W55371  32.011  23.198  15.213 -0.0862 -0.1793  0.0299
12459W        W55372  20.692  33.425  27.281  0.0892 -0.1072  0.1375
12460W        W55373  20.038  28.842  19.529  0.0140  0.1797 -0.2601
12461W        W55374  31.279  26.792  21.299  0.0340  0.1815  0.2995
12462W        W55375  23.472  23.291  22.183 -0.0953 -0.0807 -0.1740
12463W        W55376  28.609  23.729  17.875 -0.2144 -0.1073 -0.0406
12464W        W55377  22.477  18.971  17.746 -0.0390  0.1057 -0.1770
12465W        W55378  29.872   0.827  26.110 -0.2010 -0.1315  0.0036
12466W        W55379  22.270  29.146  13.416  0.1222  0.2145  0.0710
12467W        W55380  20.472   4.763  17.548 -0.0486  0.0148  0.3005
12468W        W55381  26.114  32.030  14.654 -0.0410 -0.0430  0.0195
12469W        W55382  27.408  33.625  23.951  0.0667  0.2571  0.0993
12470W        W55383  25.396   2.732  21.824  0.1603 -0.0251 -0.0478
12471W        W55384  25.920  33.675  20.163  0.1251 -0.0996  0.0624
12472W        W55385  28.778  18.880  22.167  0.0629  0.1994 -0.1551
12473W        W55386  21.124  33.915  19.218 -0.0775  0.1096  0.1750
12474W        W55387   0.127  23.588  16.251 -0.1293  0.2006 -0.4079
12475W        W55388  17.673   3.428   2.359 -0.3559  0.1679 -0.3060
12476W        W55389  18.904  25.616  16.824 -0.0603  0.2442  0.0820
12477W        W55390  12.827  22.627  21.347 -0.0670  0.1235 -0.0167
12478W        W55391  24.675  30.170  15.229  0.1747  0.3547 -0.0995
12479W        W55392  16.193  29.300  19.570 -0.1000 -0.0050  0.1513
12480W        W55393  14.194  31.325  26.505 -0.1497 -0.2158  0.2358
12481W        W55394  32.688  27.262  25.934 -0.1905  0.3533 -0.3921
12482W        W55395  20.591  33.869  15.449 -0.2977  0.0709  0.3249
12483W        W55396  26.246  32.931  24.245  0.0321 -0.1890  0.0558
12484W        W55397  11.220  23.536  21.699  0.0500  0.2300 -0.1159
12485W        W55398  22.662  29.565  13.424  0.0724  0.0650  0.1378
12486W        W55399  29.091   0.784  22.611 -0.2417  0.2541 -0.0758
12487W        W55400  28.087  32.673  18.287  0.0968  0.1753 -0.1357
12488W        W55401  10.205  29.409  27.815  0.2313  0.4486  0.1719
12489W        W55402  21.146  29.303  15.642 -0.0550  0.3434 -0.2126
12490W        W55403  31.322  11.467  20.465  0.5212  0.1332 -0.2082
12491W        W55404  23.745  23.536  21.418 -0.0231  0.1409 -0.1135
12492W        W55405  28.104   3.049  17.505  0.1837  0.1362  0.2044
12493W        W55406  24.891  24.343  17.413  0.2359 -0.0550 -0.1281
12494W        W55407  15.389   2.049  27.369 -0.1978 -0.0595 -0.2596
12495W        W55408  27.231  15.080  15.691  0.1386 -0.1227  0.3313
12496W        W55409  26.521  26.098  19.460  0.1065  0.0193  0.0276
12497W        W55410  20.322  32.055  16.624  0.4382 -0.1185  0.0383
12498W        W55411  27.536  29.834  19.884  0.1264  0.1729  0.2711
12499W        W55412  20.775  28.597  14.110 -0.0661  0.1568 -0.1032
12500W        W55413  28.268   5.225  18.824  0.0958  0.0878  0.2608
12501W        W55414  31.398   7.683  18.103  0.2025  0.2052 -0.3272
12502W        W55415  19.996   8.163  25.970  0.0878 -0.0258 -0.1203
12503W        W55416  21.923  29.637   0.289 -0.2262  0.0083 -0.2848
12504W        W55417   8.938  21.747  20.744  0.1069  0.1120  0.3001
12505W        W55418   2.799  20.527  19.735 -0.3235  0.0449  0.0681
12506W        W55419  26.058  12.718  18.282  0.0146  0.3409 -0.1751
12507W        W55420  29.515  33.466  15.073  0.0603 -0.0532 -0.0643
12508W        W55421  33.126   0.542  18.259  0.1317 -0.0194 -0.0468
12509W        W55422  25.641  27.020  25.193  0.0601 -0.0463  0.3521
12510W        W55423  23.885  29.592  18.190  0.1021  0.1958 -0.0961
12511W        W55424  23.278  29.154  22.956 -0.1382 -0.2956  0.0563
12512W        W55425  29.814  27.245  17.167  0.0223  0.0207  0.0582
12513W        W55426  20.175  23.353  18.313 -0.3812 -0.1946  0.0776
12514W        W55427  23.848  27.161  25.438  0.1722  0.1048  0.0521
12515W        W55428  20.165   1.362  13.551 -0.1207  0.0870 -0.3536
12516W        W55429  20.807  31.700  15.404 -0.3639  0.0307 -0.1053
12517W        W55430  17.479  24.730  19.092 -0.0110  0.0395  0.0853
12518W        W55431  24.103  32.255  25.565 -0.0863 -0.1017 -0.2970
12519W        W55432  28.181  32.911  19.679  0.1122  0.1427 -0.0593
12520W        W55433  18.463  33.354  25.734 -0.1544  0.1974  0.0391
12521W        W55434  18.830  27.259  16.838  0.2193 -0.0461 -0.1440
12522W        W55435  22.802   2.643  21.346  0.1522  0.1942  0.0731
12523W        W55436   5.378  28.931  15.122 -0.3365 -0.1370 -0.1646
12524W        W55437  28.282  26.272  15.073  0.0125 -0.0398  0.2112
12525W        W55438  33.548  18.506  21.102 -0.1782 -0.0891 -0.2598
12526W        W55439  22.270   0.589  21.625 -0.0557 -0.2472 -0.0862
12527W        W55440  29.126   6.812  24.054  0.1983 -0.2584  0.2613
12528W        W55441  24.479  24.964  22.609  0.2659 -0.0774 -0.0143
12529W        W55442  19.613  33.898  17.315 -0.2394 -0.2818  0.0162
12530W        W55443  26.018  30.141  21.795  0.2035  0.1667  0.2177
12531W        W55444  24.134  28.702  16.444 -0.0789 -0.2448 -0.0892
12532W        W55445   7.168  21.655  16.917 -0.0805  0.0042  0.2631
12533W        W55446  21.151  31.476  15.069 -0.2531  0.2693 -0.0015
12534W        W55447  26.921  28.501  18.782 -0.4305  0.1857  0.0556
12535W        W55448   9.098  23.945  15.139 -0.3155 -0.0613  0.2597
12536W        W55449  14.884  27.465  18.541  0.1614  0.1979 -0.0200
12537W        W55450  10.097  28.443  22.470 -0.3999  0.2334 -0.0447
12538W        W55451  26.748   2.501  20.568  0.1526  0.0006  0.2386
12539W        W55452  31.521  20.390  20.072  0.2523  0.0547  0.3097
12540W        W55453  21.597  14.869  21.274  0.2474 -0.5197 -0.0168
12541W        W55454  22.067  21.880  18.324 -0.0964  0.1719 -0.2394
12542W        W55455  23.629  20.203  16.658  0.1158 -0.1134  0.0445
12543W        W55456  28.912   1.349  26.560 -0.1150 -0.0424 -0.4135
12544W        W55457  20.706  26.631  26.497  0.0875  0.2872  0.2356
12545W        W55458   9.120   3.479  21.372  0.2905 -0.1876 -0.1060
12546W        W55459   1.331  33.258  16.840 -0.0650 -0.0455 -0.1912
12547W        W55460  29.989   0.160  23.638 -0.1964  0.1537  0.1697
12548W        W55461  17.967  25.491  22.851 -0.0469  0.1509 -0.2038
12549W        W55462  17.964  14.041  12.628  0.0846  0.0512  0.2152
12550W        W55463  25.893   8.038  13.820  0.0888 -0.1281 -0.3276
12551W        W55464  22.086  28.186  17.425  0.0778  0.0215  0.1829
12552W        W55465  12.705  15.307  19.343 -0.1049 -0.1241  0.1865
12553W        W55466  28.459  29.393  13.893  0.5898 -0.0750  0.0636
12554W        W55467  13.521  32.295  17.212 -0.0658  0.2465  0.3342
12555W        W55468  12.629  34.122  28.997 -0.1500  0.1498  0.0076
12556W        W55469  16.758   0.024  24.775 -0.0285  0.1434 -0.0598
12557W        W55470  12.123  31.638  29.172  0.0130  0.0838 -0.4496
12558W        W55471  25.511  31.527  28.946 -0.0077  0.0216  0.0345
12559W        W55472  21.428  26.850  25.743 -0.0662 -0.4452 -0.3349
12560W        W55473  15.660  24.960  19.050  0.2290  0.2441  0.2853
12561W        W55474  29.050  24.395  22.205 -0.0205 -0.1412  0.4308
12562W        W55475  32.079  33.726  24.634  0.0628  0.2339  0.0113
12563W        W55476  24.483  28.735  13.500 -0.2522 -0.3640  0.2778
12564W        W55477  17.003  24.519  13.809 -0.0601 -0.1928 -0.0028
12565W        W55478  25.293  29.882  17.970 -0.1666 -0.1862 -0.0824
12566W        W55479  16.855  30.318   4.464 -0.2339 -0.1634 -0.3499
12567W        W55480   2.008   0.892  17.372 -0.1114  0.0268 -0.0981
12568W        W55481  26.927  27.758  18.220  0.0018 -0.2325 -0.1047
12569W        W55482  26.649   6.031  24.665 -0.0401  0.0039  0.0670
12570W        W55483  17.430  30.499  22.194  0.1909 -0.1423  0.0654
12571W        W55484  23.266  32.720   4.445  0.0130  0.1917  0.0089
12572W        W55485  10.503   2.937  20.367  0.3462 -0.1474 -0.0411
12573W        W55486  30.852   3.636  19.109  0.2002  0.0214  0.2122
12574W        W55487  25.085  29.567  16.494 -0.0577  0.0931  0.0156
12575W        W55488   5.010  32.543  29.231  0.2863  0.4007 -0.1949
12576W        W55489  32.771  27.849  17.663  0.0394  0.0564 -0.0426
12577W        W55490  24.525   4.818  17.069  0.1673 -0.2430  0.2984
12578W        W55491  23.739  32.608  28.237 -0.1030 -0.2842 -0.3507
12579W        W55492  26.200  28.376  27.105 -0.1311  0.0930  0.3716
12580W        W55493  13.940   0.790  17.005 -0.2641  0.0405  0.0229
12581W        W55494  23.579  28.303  29.494 -0.3656  0.1934  0.1445
12582W        W55495  28.647  32.924  19.842 -0.2243 -0.0675 -0.1082
12583W        W55496  33.715  27.522  15.433  0.3060  0.1904  0.3386
12584W        W55497  32.411  28.499  14.666 -0.1966  0.0470 -0.0914
12585W        W55498  32.983   9.028  24.492 -0.0207  0.2307 -0.1471
12586W        W55499  28.778   0.116  18.882  0.1414  0.1843  0.0357
12587W        W55500  20.431   6.257  17.344  0.0456 -0.0671  0.0046
12588W        W55501  23.752  33.828  26.515  0.0159 -0.0796  0.1921
12589W        W55502  29.808   2.050  25.502  0.0151  0.2722 -0.1470
12590W        W55503  26.329  32.099  26.525 -0.1912  0.0066  0.1019
12591W        W55504  28.621  20.476  24.635  0.1713  0.0297  0.0857
12592W        W55505  25.637  31.057  20.298  0.2895  0.0100 -0.2281
12593W        W55506  21.910  33.425  25.423  0.0506 -0.0208 -0.0157
12594W        W55507  26.505  26.940  28.961  0.1394 -0.0641 -0.1909
12595W        W55508  20.475  28.630  23.617  0.1609 -0.0523  0.1826
12596W        W55509  14.987   6.593  28.127  0.2829  0.2151 -0.0748
12597W        W55510  23.373  23.889  20.526 -0.2407  0.0320  0.1960
12598W        W55511  22.009  33.145  26.272 -0.0919 -0.0272  0.0769
12599W        W55512  25.854  18.225  26.697  0.2397  0.1753  0.1170
12600W        W55513  22.373  25.303  25.200  0.0286  0.3011  0.3100
12601W        W55514  21.484  20.393  18.344 -0.0107 -0.1624  0.0830
12602W        W55515  24.981  32.449   0.616 -0.0468 -0.0980  0.1660
12603W        W55516  28.768   6.717  24.424 -0.2247 -0.3047 -0.3706
12604W        W55517  20.222  24.528  20.200 -0.0143 -0.3268  0.2424
12605W        W55518  22.190  24.850  12.808  0.0937 -0.3362  0.4367
12606W        W55519  23.125  20.066  17.862  0.0504 -0.3614  0.0901
12607W        W55520  28.837  26.499   3.677 -0.1702  0.2951  0.0521
12608W        W55521  22.236  33.889  19.071  0.0510  0.0388  0.2225
12609W        W55522  14.630  30.043  23.423 -0.0896 -0.1559 -0.0119
12610W        W55523  20.918  32.417  14.042 -0.1744 -0.1862  0.0750
12611W        W55524  15.865  30.057   1.143  0.1119 -0.1935 -0.2413
12612W        W55525  16.907  28.619  24.704  0.0603  0.0136 -0.3451
12613W        W55526  26.856  26.263  24.331  0.0624  0.0046 -0.2029
12614W        W55527  15.768  27.350  18.082 -0.1871  0.2886  0.0227
12615W        W55528  20.067  26.290  16.910 -0.0271 -0.1054  0.0106
12616W        W55529  26.838  34.068  18.707  0.1169  0.1999  0.2205
12617W        W55530  30.303  31.214   2.663  0.1303  0.0035 -0.0057
12618W        W55531  13.420  18.661  21.822  0.0349  0.1848  0.0946
12619W        W55532  31.682  28.526  27.103  0.2122 -0.1546  0.0075
12620W        W55533  28.557  26.550  23.917  0.1088  0.1106  0.0416
12621W        W55534  28.653  26.518  24.444  0.0460 -0.0501 -0.2555
12622W        W55535  30.305  27.915  22.460  0.1328 -0.1009  0.1334
12623W        W55536  31.865  32.262  22.584 -0.1767  0.1101 -0.0811
12624W        W55537  19.854   2.691  27.034  0.0018 -0.0231  0.2731
12625W        W55538  22.324  29.399  18.723 -0.0969 -0.0639  0.3009
12626W        W55539  24.973   6.369  15.374 -0.1161 -0.1271  0.1288
12627W        W55540  24.649   0.975  19.109  0.2436 -0.2371 -0.1612
12628W        W55541  26.246  29.713  22.043 -0.0168 -0.3188  0.0061
12629W        W55542   8.782  19.821  24.717 -0.2104 -0.0049 -0.2244
12630W        W55543  24.573  31.094  20.457  0.3202 -0.1523 -0.1041
12631W        W55544  21.857  33.746   0.475  0.1929  0.0397  0.1394
12632W        W55545  21.243  26.856  14.202 -0.1518  0.1795  0.3256
12633W        W55546  24.541  29.953   2.016 -0.2057  0.0002 -0.0936
12634W        W55547  25.917  33.108  18.191  0.2959  0.1309  0.1111
12635W        W55548  28.252  33.276   0.889  0.1303 -0.1166  0.2037
12636W        W55549  22.729   2.218  24.169 -0.1279  0.1562 -0.1757
12637W        W55550  29.386  32.622  18.854  0.1699  0.3384  0.1842
12638W        W55551  21.932  31.098   2.297  0.1173 -0.3592  0.0316
12639W        W55552  17.527  25.012  16.461 -0.1820 -0.0556  0.1701
12640W        W55553  24.611   0.491  21.619  0.1748  0.0739  0.2494
12641W        W55554  22.965  14.502  17.655  0.1036  0.2365  0.1623
12642W        W55555  30.940  23.997  16.593 -0.1178  0.0529 -0.2283
12643W        W55556  26.912  24.897  17.010  0.2969 -0.1955  0.0834
12644W        W55557  18.662  14.772  29.037 -0.0459  0.0718  0.1192
12645W        W55558  25.139  29.245  24.582  0.1483  0.1185  0.0254
12646W        W55559  16.591   3.579  15.964  0.1743  0.4062  0.2761
12647W        W55560  22.272  20.306  24.136  0.0966  0.0666  0.0713
12648W        W55561  24.772  28.162  15.223  0.2189 -0.2148  0.0440
12649W        W55562  21.250  31.061  18.891  0.0536  0.1435 -0.1914
12650W        W55563   6.599   1.121  25.180 -0.0107 -0.1191 -0.0543
12651W        W55564  24.584   0.884  14.799  0.1783  0.0984  0.0018
12652W        W55565  27.090   5.673  20.535 -0.0702 -0.0549 -0.2345
12653W        W55566  27.998  30.976  15.438  0.0804  0.0814  0.0372
12654W        W55567  26.123  25.977  27.546 -0.1513 -0.4397  0.1688
12655W        W55568  29.536  28.226  24.350 -0.1522  0.3770  0.4672
12656W        W55569  29.859  20.566  13.788 -0.4382  0.2180 -0.0459
12657W        W55570  25.738   0.541  18.832  0.3047  0.0992 -0.2148
12658W        W55571  26.992   5.116  13.723  0.2285 -0.1321 -0.3141
12659W        W55572  13.744  27.110  23.567 -0.0928  0.1405  0.1624
12660W        W55573  18.430  21.640  25.585 -0.3437  0.2328 -0.2683
12661W        W55574  23.751   0.642  29.017 -0.2159 -0.1168  0.2832
12662W        W55575  26.618  25.680  19.232  0.2524 -0.2539  0.1140
12663W        W55576  17.994  32.429  21.855  0.0927  0.3468 -0.2831
12664W        W55577  23.251  33.837  28.113  0.1946  0.0512 -0.2926
12665W        W55578  16.569  22.538   2.524  0.1383 -0.0128 -0.2731
12666W        W55579  29.470  30.510   0.222 -0.2564  0.0528  0.0169
12667W        W55580  28.925  25.984  20.295 -0.1610  0.2616 -0.1017
12668W        W55581  18.143  31.640  20.625 -0.1294  0.1219 -0.1703
12669W        W55582  29.233  27.090  22.337 -0.2082 -0.5554 -0.0234
12670W        W55583  22.976  29.333  14.751  0.0119 -0.2668 -0.2706
12671W        W55584  31.718  29.267  27.889 -0.3907 -0.0226 -0.2263
12672W        W55585  33.274  21.679  22.645  0.1181 -0.0999 -0.0445
12673W        W55586  10.672  26.997  18.564 -0.0387  0.0970 -0.0967
12674W        W55587  14.123   0.921  27.744 -0.2920 -0.0975 -0.3523
12675W        W55588  22.599  34.362  17.510 -0.1153  0.3440 -0.2400
12676W        W55589  18.724  28.099  10.062  0.1043  0.1419  0.1924
12677W        W55590  20.486  32.136   0.271  0.1233 -0.1306 -0.3640
12678W        W55591  21.337  27.914  29.058 -0.1218 -0.2287 -0.0006
12679W        W55592  31.657  28.161  24.859  0.0156  0.0307 -0.1533
12680W        W55593  23.226  29.078  13.035  0.0135  0.1378 -0.1351
12681W        W55594  25.066   2.781  27.452  0.1559  0.3066 -0.1008
12682W        W55595  19.328  26.493  14.817  0.3410  0.2972 -0.0494
12683W        W55596  31.794  34.257   3.123 -0.0414  0.2507 -0.0340
12684W        W55597  22.318   0.011  25.163 -0.1955 -0.0804  0.3618
12685W        W55598  23.410  22.258  24.847 -0.0190  0.0494 -0.0152
12686W        W55599  22.997  17.216  14.187 -0.1242 -0.1086 -0.1488
12687W        W55600  24.983  23.957  29.347  0.2161  0.2385 -0.0064
12688W        W55601  19.113  30.140  21.620  0.0928 -0.0531  0.0474
12689W        W55602  27.598  28.350  27.754 -0.0368 -0.1024 -0.0864
12690W        W55603  17.689  30.269  16.835  0.0185  0.0227  0.0812
12691W        W55604  16.355  25.133  29.652  0.0475  0.0374 -0.5762
12692W        W55605  29.768   4.654  23.264  0.3085 -0.0040  0.0776
12693W        W55606  20.771   3.949  24.168  0.0546 -0.1347  0.1655
12694W        W55607  26.877  29.780  28.908  0.1939  0.3224  0.0178
12695W        W55608  34.302  30.432   1.489  0.0305 -0.0642 -0.0955
12696W        W55609  27.565  24.239  14.564 -0.1907 -0.1084  0.1147
12697W        W55610  26.725   3.946  22.914 -0.3822 -0.3557  0.0996
12698W        W55611  18.636  21.246  16.539  0.0983 -0.2957  0.1529
12699W        W55612  14.146  25.984  16.307  0.1061 -0.0110  0.4443
12700W        W55613  21.959  24.332  21.877  0.0074 -0.1600 -0.1048
12701W        W55614  13.144   7.262  19.398  0.0569  0.0232 -0.0664
12702W        W55615  22.751  33.700  28.224 -0.3497 -0.0126 -0.1985
12703W        W55616  17.292  30.068  27.828  0.2048  0.4133 -0.1459
12704W        W55617  18.490  30.168  19.583  0.0147 -0.1496  0.1421
12705W        W55618  19.085   0.558  14.639  0.0928  0.0647 -0.2187
12706W        W55619  20.584  21.995  16.401 -0.2642 -0.0145 -0.0719
12707W        W55620  25.495  31.704   0.196 -0.0699  0.3191 -0.3911
12708W        W55621  23.963  27.557  14.001 -0.0120  0.3636 -0.2722
12709W        W55622  31.852  27.779  28.144  0.2552  0.2114  0.3949
12710W        W55623  33.828   2.990  18.869  0.2470  0.0139  0.1143
12711W        W55624  19.796  32.599  21.126  0.0742 -0.1145  0.2870
12712W        W55625  21.794  31.354  12.938  0.1743 -0.3268 -0.0682
12713W        W55626  29.782   1.585  17.261  0.1227  0.2110  0.2802
12714W        W55627  24.803  22.422  20.257 -0.0501 -0.0908  0.1359
12715W        W55628  23.703  26.374  26.082  0.0222 -0.0853 -0.0055
12716W        W55629  25.271   3.422  24.941  0.0583  0.1051 -0.0681
12717W        W55630  11.483  23.388  29.606 -0.1061  0.0928  0.2187
12718W        W55631  32.779  27.753  25.712 -0.2311 -0.3674  0.0614
12719W        W55632  21.947   2.773   4.487 -0.0693  0.0656 -0.0944
12720W        W55633   4.977   1.060  23.433 -0.1057 -0.2062 -0.1155
12721W        W55634  26.272  25.891  13.337  0.1789 -0.0597  0.2589
12722W        W55635  19.354  27.745  20.407  0.0251  0.2140  0.0917
12723W        W55636  14.465   1.861  25.726  0.0095  0.1626 -0.0722
12724W        W55637  27.704   0.082  22.469  0.3141 -0.1263 -0.0797
12725W        W55638   1.619  32.764  26.794  0.1584 -0.1137  0.0699
12726W        W55639  24.183  24.272  24.638  0.2713 -0.1046  0.1394
12727W        W55640  28.487  30.835  23.994 -0.0878  0.1332  0.1262
12728W        W55641  30.930   2.698  26.313  0.0937 -0.0249  0.3163
12729W        W55642  32.995  21.532  25.077  0.1321 -0.3008 -0.0558
12730W        W55643  30.187  32.890  24.653 -0.0020 -0.0520 -0.1597
12731W        W55644  11.570  33.069   5.629  0.0927  0.1510 -0.1439
12732W        W55645  23.987  27.648  18.778 -0.1850 -0.4006 -0.1979
12733W        W55646  19.253   5.422  23.997 -0.1684  0.2114 -0.1228
12734W        W55647   8.468  29.004  17.751  0.2054 -0.0132  0.0683
12735W        W55648  23.419  23.526   8.645 -0.2654 -0.1042 -0.3287
12736W        W55649  18.939  32.972  26.247  0.0908  0.3069  0.0800
12737W        W55650  29.123  30.821  16.837  0.0464  0.1898  0.0196
12738W        W55651  25.445  28.908   2.295  0.0863 -0.0215 -0.1568
12739W        W55652  20.607  33.027  20.601 -0.2240  0.0214 -0.2436
12740W        W55653  19.522  33.932  22.527 -0.1834 -0.0886  0.0554
12741W        W55654  14.659   7.228  16.440  0.2796  0.2632 -0.1735
12742W        W55655  20.893  33.045   9.075  0.1770 -0.0158 -0.3411
12743W        W55656  15.057  28.038  25.785  0.0795 -0.0578  0.0820
12744W        W55657  15.500  23.348  14.346 -0.1676 -0.0536  0.2344
12745W        W55658  28.485   0.301  24.726 -0.1004  0.0327  0.0046
12746W        W55659  18.502  20.644  23.243 -0.3108  0.1867 -0.1786
12747W        W55660  23.970  32.385   3.676  0.0356 -0.2001 -0.3911
12748W        W55661  16.433  25.445  21.590 -0.0391 -0.2719  0.1683
12749W        W55662  27.432   5.197  16.572  0.0449 -0.2349  0.2357
12750W        W55663  24.619  18.065  27.255  0.0852  0.0270 -0.4089
12751W        W55664  14.312  27.586  27.238  0.0643  0.0187 -0.0043
12752W        W55665  18.764  23.016  20.870 -0.1131  0.0915 -0.1227
12753W        W55666  31.145   5.119   1.962  0.0159  0.1050  0.0340
12754W        W55667  11.104  23.510  28.245  0.0970  0.0924  0.0054
12755W        W55668   0.093  23.420  19.248  0.0885  0.1143 -0.1730
12756W        W55669  17.227   6.366   1.702  0.0338 -0.2907  0.0939
12757W        W55670   1.213  25.179  27.958  0.0137  0.0852  0.4501
12758W        W55671  33.184   1.208  20.408 -0.3245  0.0929 -0.0005
12759W        W55672  22.259  30.724  27.172 -0.1674  0.1016 -0.0326
12760W        W55673   9.441  16.506  20.677 -0.0600  0.1025  0.1302
12761W        W55674  25.450  12.390  27.767  0.0728  0.2598 -0.0573
12762W        W55675  20.472  31.842   2.687  0.2438 -0.1601 -0.4546
12763W        W55676  24.712  22.989   1.621 -0.0326 -0.2346  0.1241
12764W        W55677  15.570   4.109   1.278  0.1804 -0.2585  0.0388
12765W        W55678  27.287   4.543  15.033  0.1132  0.1476  0.2682
12766W        W55679  27.295   2.973  21.980 -0.0360 -0.2044  0.1030
12767W        W55680  18.750  21.266  17.544  0.0384  0.0649 -0.2031
12768W        W55681  18.834  28.266   3.110  0.1793 -0.1386 -0.0408
12769W        W55682  17.165   0.674  19.793  0.1484 -0.3487  0.0562
12770W        W55683  24.729   1.024  27.266  0.2896  0.0961 -0.1818
12771W        W55684   1.381  18.068  21.657 -0.2858  0.2780  0.1627
12772W        W55685  20.929  26.791   0.734 -0.2100 -0.1955 -0.4393
12773W        W55686  31.917  24.457   9.817 -0.1100  0.0460  0.0111
12774W        W55687  18.190   5.720  23.212 -0.1648 -0.0420 -0.0296
12775W        W55688   1.727   0.657  18.220  0.3838 -0.4121 -0.0011
12776W        W55689  25.597  26.073  23.080  0.6058 -0.0805 -0.0786
12777W        W55690  26.816  19.976   0.167 -0.3778 -0.0682  0.0327
12778W        W55691  21.789   1.046  16.359  0.4185  0.1835  0.0466
12779W        W55692  16.940  33.861  21.062 -0.1534  0.1612 -0.1507
12780W        W55693  22.102  24.791  22.049  0.1061 -0.4096 -0.0405
12781W        W55694  24.610  33.828  28.365  0.1939  0.2884  0.1554
12782W        W55695  25.534   1.709  24.567 -0.5557 -0.3055 -0.0259
12783W        W55696  14.434  27.137  25.788  0.0950 -0.3319 -0.2584
12784W        W55697  28.578   2.827  16.658  0.3182 -0.3381 -0.2373
12785W        W55698  27.611  34.492   6.425  0.2137  0.0543 -0.1527
12786W        W55699  27.972  28.333  16.149 -0.0139 -0.0643 -0.0140
12787W        W55700  28.567  26.996  18.290  0.0281 -0.3170  0.0080
12788W        W55701  28.403  34.279   3.085 -0.2000  0.1630  0.1738
12789W        W55702  33.097   1.358   2.906  0.1366  0.0181  0.0739
12790W        W55703  25.400  27.285  14.295 -0.1232  0.1569 -0.1003
12791W        W55704   9.842  23.196  19.106 -0.1342 -0.0111 -0.1259
12792W        W55705  34.138  29.165  14.429 -0.0684  0.0088  0.2119
12793W        W55706  22.203  30.099  19.411  0.2044  0.0855  0.0444
12794W        W55707  28.825  11.917  25.456  0.0003 -0.2727 -0.0419
12795W        W55708  17.284  31.997   0.055  0.2063  0.1652 -0.2644
12796W        W55709  19.079   6.697  26.067  0.2027 -0.1586  0.0896
12797W        W55710  28.223  27.779  15.468  0.1395 -0.0559 -0.0770
12798W        W55711  15.173  27.272  21.750 -0.1877 -0.0606 -0.0296
12799W        W55712  25.639  30.089  26.153  0.0978 -0.1131  0.0152
12800W        W55713  25.472   3.396  20.737 -0.1156 -0.1944  0.1719
12801W        W55714  24.595  28.979  26.479 -0.0032 -0.2353  0.2968
12802W        W55715  13.618  27.062  25.534 -0.1021  0.3109 -0.4419
12803W        W55716  26.021   2.518  19.781 -0.2311  0.0038 -0.3300
12804W        W55717  13.142   1.790  27.184  0.1375 -0.0105 -0.0056
12805W        W55718  17.175  18.854   2.090 -0.2860  0.4127 -0.0467
12806W        W55719  25.242  26.328  18.484  0.1297 -0.3023 -0.2687
12807W        W55720  25.424  30.050  21.993 -0.1553 -0.0388  0.0569
12808W        W55721  18.317  32.083  26.205  0.0664  0.3013 -0.1247
12809W        W55722  30.409  28.165  25.721 -0.0936 -0.0507 -0.0546
12810W        W55723  29.543  25.763  21.844  0.0877 -0.1574  0.0324
12811W        W55724  22.648   3.968  20.071 -0.0708 -0.0392  0.1726
12812W        W55725  26.275  27.778  14.639  0.0181 -0.1233 -0.0320
12813W        W55726  18.409  29.732  29.142  0.0784 -0.2024 -0.0764
12814W        W55727  21.512  32.097  18.091 -0.0361 -0.0930  0.0373
12815W        W55728  17.350   1.081  20.520 -0.1455  0.3748 -0.4784
12816W        W55729  21.189  28.975  25.960  0.1270  0.0844 -0.1193
12817W        W55730  23.035  30.298  21.433 -0.0978 -0.0034 -0.1074
12818W        W55731  27.204  23.761  25.503 -0.1165  0.1304  0.1423
12819W        W55732  21.816  22.833  23.592  0.0710  0.1502 -0.0934
12820W        W55733  24.846  25.128  19.214  0.0299 -0.3286 -0.1819
12821W        W55734  25.292  30.085  27.866  0.1465  0.1047 -0.1296
12822W        W55735  25.236  18.193  29.505  0.0062 -0.1755 -0.3480
12823W        W55736  29.929  19.378  21.746  0.2070  0.1409  0.0129
12824W        W55737  26.109  25.257   7.345  0.2726 -0.2013  0.1802
12825W        W55738  22.909  32.138   0.896  0.1545 -0.0612 -0.5210
12826W        W55739  20.592   3.503  24.118  0.1265 -0.0553 -0.2154
12827W        W55740  30.610  30.885   0.047 -0.1371 -0.0100 -0.0921
12828W        W55741  24.880  28.303  20.638  0.2328  0.2123  0.1563
12829W        W55742  21.150  32.090  27.144  0.2591 -0.1888  0.3695
12830W        W55743  31.639  30.086   4.912  0.3544 -0.0948 -0.1502
12831W        W55744  11.214   0.249  27.516  0.1611  0.1140  0.3860
12832W        W55745  24.021  34.187  14.794  0.1210  0.3061 -0.0254
12833W        W55746  23.184  25.613  22.797 -0.0997 -0.3385 -0.0471
12834W        W55747  12.046  22.410   7.768  0.1415 -0.3359  0.3171
12835W        W55748  27.297   1.652  22.857  0.1529  0.0079  0.1293
12836W        W55749  29.975   1.785  15.098 -0.2641  0.0525 -0.1760
12837W        W55750  24.816  27.641  22.690  0.1913 -0.0157  0.2358
12838W        W55751  21.818  20.038  21.892  0.0485 -0.0712 -0.0630
12839W        W55752  24.726  30.349  22.481  0.0278 -0.0260  0.1911
12840W        W55753  28.350  11.277  27.753  0.1919  0.4345  0.1747
12841W        W55754  22.018  28.117  24.053  0.0692 -0.1748 -0.0586
12842W        W55755  16.571  29.017  18.671  0.2371  0.1477  0.1676
12843W        W55756  12.958   6.134  27.645  0.3298 -0.2513 -0.1894
12844W        W55757  20.021  26.122  28.617  0.0443 -0.2285  0.1450
12845W        W55758   6.893  31.415   5.781 -0.1410 -0.1749  0.0175
12846W        W55759  20.021  26.902  24.337 -0.0214  0.0936 -0.0238
12847W        W55760  17.802  22.464   2.913 -0.1464 -0.0499 -0.0850
12848W        W55761   0.365  33.035   0.883  0.0737 -0.1034 -0.2400
12849W        W55762   0.624  33.177   2.925 -0.1543  0.0731  0.1145
12850W        W55763  23.894  33.681   1.326 -0.0460  0.0427 -0.3110
12851W        W55764  19.354  22.771  19.536  0.2990 -0.2603  0.3399
12852W        W55765  17.544  29.342  27.219 -0.0912 -0.0843  0.0860
12853W        W55766  23.136  23.030  20.826  0.2026  0.2191 -0.2138
12854W        W55767  17.862  28.230  23.784  0.0364  0.1592  0.0157
12855W        W55768  33.788  27.611  21.500 -0.0193  0.2244  0.0258
12856W        W55769  20.006  28.830  24.305  0.0822  0.1267  0.0239
12857W        W55770  24.860  32.421   1.230 -0.1427  0.1163  0.0418
12858W        W55771  33.385  23.161   2.023  0.1004 -0.2065 -0.2152
12859W        W55772  29.687  31.916  18.611 -0.0256  0.2196 -0.1548
12860W        W55773  15.124   5.648  22.294  0.3235  0.0525  0.1955
12861W        W55774  29.517  26.854  15.405  0.2597  0.1415 -0.0300
12862W        W55775  20.733   4.726  26.768 -0.2329 -0.0528 -0.1581
12863W        W55776  16.132   0.989  22.397  0.2102 -0.1107  0.2111
12864W        W55777  26.003  29.542  22.498  0.0872  0.3501  0.0383
12865W        W55778  27.974  18.318  16.268 -0.0436 -0.2751  0.0727
12866W        W55779  22.520  32.771  25.580 -0.0657  0.0072  0.1004
12867W        W55780  19.066   0.382  23.206  0.0648 -0.1090  0.1803
12868W        W55781  16.722   9.415  23.753  0.1607  0.2651  0.2559
12869W        W55782  24.543  26.989  14.802 -0.0042 -0.0792 -0.2702
12870W        W55783  19.161  14.959  13.923 -0.2964 -0.1789 -0.2284
12871W        W55784  27.996   4.145  19.072 -0.0529  0.3834  0.0087
12872W        W55785  25.870  28.931   8.767  0.3338  0.1069  0.1061
12873W        W55786  28.329   3.060  27.468  0.1359 -0.4650 -0.0160
12874W        W55787  23.654  21.164  19.121  0.0653  0.1288 -0.1762
12875W        W55788  24.498  18.396  20.836 -0.0176 -0.0779  0.2457
12876W        W55789  27.370  21.156  24.213  0.2151 -0.1215 -0.0136
12877W        W55790  18.621  31.186  24.523  0.1795 -0.2667  0.1117
12878W        W55791  28.473  24.993   0.698  0.1505  0.1659 -0.0395
12879W        W55792  23.115  32.893  27.619  0.4351 -0.0433  0.0889
12880W        W55793  11.265  31.473  23.714 -0.3216 -0.0455 -0.2885
12881W        W55794  24.258   3.318  14.198  0.2978  0.1027  0.3862
12882W        W55795   9.063   1.681  20.003 -0.2340 -0.0357  0.0794
12883W        W55796  21.045   1.418  20.114 -0.1757 -0.0031 -0.1350
12884W        W55797  22.216  28.184  22.344  0.0989  0.0643 -0.0039
12885W        W55798  12.992  32.751  24.214  0.0443 -0.1963 -0.1819
12886W        W55799  25.399  32.919  19.084 -0.4005 -0.2933  0.2814
12887W        W55800  21.435   5.456  15.883  0.1187 -0.0828 -0.1040
12888W        W55801  21.494   4.932   4.059 -0.1544 -0.2032 -0.0679
12889W        W55802  30.278   8.991   8.521 -0.1075  0.0541  0.1115
12890W        W55803  25.055  28.822  25.059  0.0641  0.0816 -0.0479
12891W        W55804   0.559  29.083  23.978 -0.0885 -0.2308  0.2476
12892W        W55805  30.321  29.834  19.671  0.2254 -0.0168  0.0634
12893W        W55806  22.100   1.763  16.545 -0.0006 -0.1763 -0.1455
12894W        W55807  22.204  21.720  26.941 -0.0914 -0.2098  0.0076
12895W        W55808  26.557  32.922  14.331 -0.1820  0.1049  0.1716
12896W        W55809  25.238  22.118  29.192 -0.1521  0.2244 -0.2959
12897W        W55810  16.657  31.054   2.204  0.1348  0.0451  0.1468
12898W        W55811  30.432   1.115   2.928  0.1160  0.0361  0.1527
12899W        W55812  19.973  26.327  17.438  0.0116  0.2105  0.0908
12900W        W55813  24.847   9.660   4.540  0.1454 -0.0613 -0.0704
12901W        W55814  30.900  32.770  22.309  0.1970 -0.2468 -0.3075
12902W        W55815  29.141  21.473  23.969 -0.0629  0.0679  0.0650
12903W        W55816  20.962  25.603  25.858  0.2645 -0.1182 -0.2411
12904W        W55817  20.849   0.237  28.981  0.0578 -0.1208 -0.2989
12905W        W55818  21.143   5.154  22.040 -0.0976 -0.2315  0.0261
12906W        W55819  33.450  32.225  26.732  0.1650 -0.1180  0.1163
12907W        W55820  25.435  20.718  12.196  0.0902 -0.3386 -0.1151
12908W        W55821  22.846  26.014   7.845  0.0628 -0.0729 -0.1569
12909W        W55822  25.642   5.796  23.212  0.0956 -0.1194  0.1227
12910W        W55823   0.195   1.116  16.463 -0.2824 -0.2422  0.1693
12911W        W55824  24.185  21.861  18.571 -0.3939  0.0717 -0.0055
12912W        W55825  18.009  22.194  20.887  0.2112 -0.3697 -0.3525
12913W        W55826  19.417  33.382  19.806  0.3603  0.3653  0.1069
12914W        W55827  28.019  31.075   4.067 -0.3707  0.3415 -0.0617
12915W        W55828  33.501  25.884  20.661  0.1935  0.5577  0.0175
12916W        W55829  18.583   6.453   0.454 -0.2433  0.2078 -0.4690
12917W        W55830  28.608  25.960  19.532  0.0430  0.0023 -0.0018
12918W        W55831  15.196  23.285  23.239  0.1859  0.0196  0.0838
12919W        W55832  22.551   3.675   3.173  0.0871  0.0579  0.2394
12920W        W55833  15.375  30.774  25.121  0.0482  0.0661 -0.2622
12921W        W55834  18.622   8.494  13.752 -0.1474  0.0664  0.0990
12922W        W55835  16.999  21.857  27.515  0.2128 -0.0943  0.2079
12923W        W55836  22.467  33.605  29.221 -0.0413  0.3454  0.0290
12924W        W55837  16.838   3.066  28.435  0.0632 -0.0644  0.0916
12925W        W55838  10.851   2.999  26.538  0.3043  0.1181  0.1493
12926W        W55839  27.072  32.305  25.848  0.0846 -0.2347  0.0214
12927W        W55840  10.576   7.535  28.840 -0.0720  0.2216 -0.2721
12928W        W55841  20.103   0.220  24.140 -0.0384  0.3961 -0.0683
12929W        W55842  15.193   1.148  19.461  0.2055 -0.0368 -0.0649
12930W        W55843  24.149  34.210   0.094  0.2433 -0.1233 -0.0865
12931W        W55844  11.184  26.317  28.781  0.0471 -0.0287 -0.0364
12932W        W55845  27.860  34.335   6.968 -0.3571 -0.0003  0.2171
12933W        W55846  29.972  32.336   5.657 -0.0559  0.1403  0.0091
12934W        W55847  18.047  31.071  26.752 -0.0905  0.1448 -0.0769
12935W        W55848   2.162   2.422  27.320  0.1812 -0.1897  0.1605
12936W        W55849  24.327  33.818   3.480  0.1724  0.0509 -0.0445
12937W        W55850  28.739  28.507  26.986 -0.0356 -0.1776 -0.0056
12938W        W55851  25.464  14.465  15.385 -0.3880  0.0388 -0.0728
12939W        W55852  26.229  34.357  23.392 -0.2372  0.0399 -0.2617
12940W        W55853  27.629  27.149   4.731  0.2426 -0.1668  0.2771
12941W        W55854  19.774  29.177  26.553  0.0958  0.2140 -0.5349
12942W        W55855  23.969  28.293  23.847  0.1685  0.1167  0.0468
12943W        W55856  32.931  25.002  15.312  0.0257  0.2947 -0.1243
12944W        W55857  20.245  10.542  25.632  0.0668 -0.5010  0.0059
12945W        W55858  27.167  24.649  21.889  0.3983 -0.2195  0.3358
12946W        W55859  16.372  24.703  14.828  0.0377 -0.0600  0.1844
12947W        W55860  18.044  27.632  17.614 -0.2260 -0.1918  0.0560
12948W        W55861  23.524  25.961  22.349  0.1052 -0.3244  0.1182
12949W        W55862  14.224  21.765  18.170  0.3178  0.0755  0.0201
12950W        W55863   4.279  34.309   8.094  0.1231 -0.1688 -0.0137
12951W        W55864  32.644   4.278  26.494 -0.3056  0.0485  0.1318
12952W        W55865  22.086  10.147   5.666  0.1859 -0.3413 -0.0138
12953W        W55866  32.493  29.905   3.895 -0.0244  0.1817  0.2611
12954W        W55867  33.328  32.814  17.750 -0.0753 -0.2182  0.2080
12955W        W55868  28.379  31.674  23.519 -0.0049  0.1110  0.0349
12956W        W55869  29.503   5.431  27.466 -0.1290 -0.1126 -0.0756
12957W        W55870   0.651  20.214  27.200 -0.1734  0.0853 -0.1937
12958W        W55871  24.379  25.267  26.226  0.1200  0.0187  0.1159
12959W        W55872  32.985  26.245  16.723 -0.2965  0.0898  0.1998
12960W        W55873  18.758  24.613  21.386  0.0153  0.0367  0.1906
12961W        W55874  21.085  18.932  18.530  0.0269  0.0009 -0.0677
12962W        W55875  26.033  27.673  16.190  0.0283  0.0353  0.1843
12963W        W55876  25.115  31.609  24.014  0.1286  0.1304  0.1397
12964W        W55877  19.578   5.540  15.111  0.1584  0.0461  0.0708
12965W        W55878   1.014  29.872   0.315  0.2248 -0.4809  0.3427
12966W        W55879  16.669  33.431  21.340  0.2152  0.0525 -0.1806
12967W        W55880  13.929  29.755  25.662 -0.4245  0.4008 -0.4497
12968W        W55881  28.470   1.724   6.037 -0.2818 -0.0913  0.3764
12969W        W55882  28.129   0.060  16.934  0.1075 -0.0072 -0.1186
12970W        W55883  23.816  25.611  27.700  0.0586 -0.3815  0.0373
12971W        W55884  32.758   0.192  21.549  0.0785  0.0339 -0.3614
12972W        W55885  28.633   1.364  21.528 -0.0778 -0.0749  0.0921
12973W        W55886  23.552   0.916  29.405 -0.1675 -0.1694 -0.0769
12974W        W55887  30.663  28.192  24.686  0.0195 -0.1524  0.1832
12975W        W55888  20.675   2.603  29.395  0.2655 -0.2624  0.1298
12976W        W55889  27.260  30.232  19.770 -0.1696 -0.1937  0.2067
12977W        W55890   6.432   1.229  29.726  0.0084 -0.2711  0.1479
12978W        W55891  22.696  22.743  21.299 -0.1499  0.1737 -0.1696
12979W        W55892  19.337  29.154  22.458  0.4466  0.0866  0.1049
12980W        W55893  16.296  34.016  15.757 -0.2571  0.0748 -0.1382
12981W        W55894  20.147  25.187  17.985  0.0956  0.1364  0.1380
12982W        W55895  28.802  34.314  27.181  0.0989 -0.0800 -0.1717
12983W        W55896   9.360  27.866   1.551 -0.2098  0.2014  0.0881
12984W        W55897  17.631  21.575  25.835 -0.3814 -0.1968 -0.1507
12985W        W55898   6.561   0.130   4.050  0.2587  0.0938 -0.0877
12986W        W55899   4.320  29.428   0.058 -0.2186 -0.0063 -0.2688
12987W        W55900  22.447  30.984   1.802 -0.1823  0.3054  0.1772
12988W        W55901  19.415  29.802   0.051 -0.0835 -0.7684  0.2466
12989W        W55902  34.394   2.002   1.809 -0.0179 -0.0313 -0.0118
12990W        W55903  26.912  33.383   4.101 -0.2139  0.2323  0.3574
12991W        W55904  18.225  24.948   6.116 -0.0585 -0.1131  0.0809
12992W        W55905   1.144   6.065  27.461  0.0139 -0.1801 -0.0367
12993W        W55906  30.282  30.189   2.688  0.0057  0.1874 -0.0722
12994W        W55907  24.906   1.724  24.868 -0.1936 -0.2139  0.3611
12995W        W55908  20.429  25.335   8.544  0.1540  0.0739 -0.1124
12996W        W55909  25.369   9.457  25.910  0.1971  0.1367 -0.1042
12997W        W55910  18.113  30.096   0.579  0.1068 -0.0500 -0.1634
12998W        W55911  25.798   7.901   5.673 -0.1587  0.4586 -0.0897
12999W        W55912  20.035  27.512  19.329 -0.2002 -0.1723 -0.1249
13000W        W55913   9.088  31.841  19.673 -0.0809 -0.4647 -0.0251
13001W        W55914  21.657   4.158  22.972 -0.2186  0.1072  0.2219
13002W        W55915  20.570  31.159   3.627 -0.2747 -0.1706  0.0928
13003W        W55916  18.809  24.919  17.830 -0.0929 -0.1407  0.0286
13004W        W55917  18.626   7.467  27.031 -0.1988  0.0777 -0.0114
13005W        W55918  28.291  30.548  29.145 -0.1973 -0.0086 -0.2057
13006W        W55919  17.518   0.960   6.012 -0.2135 -0.0621 -0.0324
13007W        W55920  30.087  21.308  27.987  0.1045 -0.1727 -0.0686
13008W        W55921  22.637  17.456   3.987  0.1414  0.0169 -0.0323
13009W        W55922   2.586  23.264  29.368  0.0982 -0.3983 -0.0235
13010W        W55923  20.122  28.663  17.931 -0.3137 -0.1040 -0.1404
13011W        W55924  20.027  20.038  25.351 -0.1405  0.0242 -0.0047
13012W        W55925  22.137  27.586  28.887  0.4238 -0.0271  0.2706
13013W        W55926  26.779  28.812  26.516 -0.0397 -0.0617 -0.1826
13014W        W55927  13.591  34.396  26.160 -0.0722  0.1825 -0.1768
13015W        W55928  31.415   4.089  28.475 -0.2326  0.1510 -0.1049
13016W        W55929  31.101   9.632  28.096  0.0792  0.0398  0.0459
13017W        W55930  24.280  29.848   5.330 -0.0258 -0.3208  0.0787
13018W        W55931  20.186  31.574   1.425  0.0383  0.1211  0.3398
13019W        W55932  17.718  30.225   8.354  0.1068 -0.0911  0.1112
13020W        W55933  27.089  23.831   3.936 -0.2450  0.1498  0.0061
13021W        W55934  27.806  29.239  27.682 -0.0505 -0.0533 -0.0837
13022W        W55935  26.451   8.208  26.312 -0.0833 -0.1172  0.1378
13023W        W55936  27.671  30.409  13.871 -0.1846 -0.3416  0.2094
13024W        W55937  20.273  32.887  23.056 -0.1514  0.2406 -0.0213
13025W        W55938  26.199  29.349   2.841 -0.2181  0.2678  0.2078
13026W        W55939  23.928   3.343  27.176 -0.1677 -0.2158  0.0222
13027W        W55940  15.178  26.028  10.025  0.1282 -0.4016  0.0514
13028W        W55941  25.164   6.762  27.674 -0.2202  0.0868  0.3993
13029W        W55942  17.879  25.878  21.440 -0.0829  0.0636  0.0390
13030W        W55943  25.210   1.855   2.971  0.1674  0.0737 -0.0639
13031W        W55944  21.588  31.772  23.269  0.1754 -0.1697  0.2852
13032W        W55945  27.456  11.319  19.611 -0.1373  0.0866 -0.0276
13033W        W55946  23.118  24.874  24.694  0.1131  0.2129 -0.1137
13034W        W55947  26.713   1.733  27.789 -0.0324 -0.0892 -0.0243
13035W        W55948  30.088   4.115  22.007  0.0275 -0.2208  0.0873
13036W        W55949  23.838   1.108  25.374  0.4281 -0.0533  0.0862
13037W        W55950  23.499  32.377   6.358  0.1946 -0.0593 -0.3501
13038W        W55951  16.252  29.847   0.848 -0.0692 -0.0879 -0.0309
13039W        W55952  13.997  22.339  18.919 -0.2448 -0.1865 -0.2552
13040W        W55953  23.603   1.023  24.524  0.1758  0.6062 -0.3078
13041W        W55954  15.672   1.773   1.148 -0.0179 -0.3361 -0.0377
13042W        W55955  10.210  30.551  22.630 -0.2668  0.1073  0.3031
13043W        W55956  18.320  20.529  24.336  0.1188  0.2613  0.1553
13044W        W55957  22.251  30.900   2.633 -0.1013  0.0402  0.4823
13045W        W55958  15.933   5.217  17.402  0.1749 -0.1282  0.2175
13046W        W55959  27.391  32.787  22.577  0.1903 -0.1518 -0.2833
13047W        W55960  19.422  30.631  23.672 -0.0592 -0.1694  0.0000
13048W        W55961  17.022  23.102  22.658  0.2465 -0.0948 -0.0115
13049W        W55962  19.866   7.437  25.422 -0.1267  0.0020 -0.1158
13050W        W55963  13.260  29.641  25.418  0.2447  0.0553  0.2324
13051W        W55964  16.136   3.150   2.636  0.1620 -0.1381 -0.2005
13052W        W55965  20.296  25.797   5.519 -0.0578  0.0154  0.1629
13053W        W55966  20.884  26.847   3.136  0.1764  0.2558 -0.2717
13054W        W55967  16.638  27.077  24.984 -0.3352 -0.0854 -0.1654
13055W        W55968   6.143  25.661  27.570 -0.1527 -0.0845 -0.3507
13056W        W55969  15.297   0.273  23.458  0.2904 -0.1923 -0.1159
13057W        W55970  25.639   3.781  26.545  0.3059 -0.2153 -0.2137
13058W        W55971  26.154  27.430  26.479  0.4490  0.2124 -0.3022
13059W        W55972  19.235  26.293  28.807 -0.0726 -0.3003  0.1524
13060W        W55973  22.895  26.699  26.639 -0.1181  0.3381  0.2181
13061W        W55974  18.560  31.430  25.541  0.0766  0.0363  0.3580
13062W        W55975  29.820   5.687   5.219 -0.1187  0.0208 -0.1843
13063W        W55976  14.474   7.448   6.503  0.2671 -0.1883 -0.1755
13064W        W55977  22.872  28.400  28.832 -0.2604 -0.3727  0.1752
13065W        W55978  23.889  19.428  15.750 -0.0604  0.2549 -0.1569
13066W        W55979  25.901  29.198  24.041 -0.0156 -0.2216  0.2036
13067W        W55980  22.486   2.278   2.800  0.1898  0.1295 -0.1781
13068W        W55981  29.044  29.981   3.300 -0.0254  0.0430  0.0059
13069W        W55982  22.766  23.996  28.241  0.1824  0.0335 -0.0187
13070W        W55983  16.140  31.313  11.751 -0.2754 -0.0217 -0.0709
13071W        W55984  25.238  27.749   2.848 -0.3700 -0.0871 -0.3926
13072W        W55985  25.700  16.637  21.273  0.2706  0.1315 -0.0495
13073W        W55986  24.466   2.345  16.681 -0.1453  0.4249 -0.0182
13074W        W55987  15.924  29.840  25.894  0.3495  0.2000 -0.1545
13075W        W55988  20.951  33.076  28.310 -0.0558  0.1530  0.2642
13076W        W55989  28.921   3.393   0.344  0.1794  0.2705  0.2898
13077W        W55990  16.346  21.073  15.903 -0.1314  0.1299  0.2712
13078W        W55991  13.446  10.731  27.133  0.1494  0.0354 -0.0702
13079W        W55992  26.537  30.652  24.380 -0.0314  0.0609  0.0078
13080W        W55993  20.989  19.548   4.129 -0.1917 -0.1561 -0.3602
13081W        W55994   8.204  30.945  20.723 -0.0166  0.2711 -0.1709
13082W        W55995  28.080  28.000  22.281  0.0886 -0.0144 -0.1854
13083W        W55996  17.968  26.888  18.179  0.1023 -0.2057 -0.2934
13084W        W55997   1.385  25.818   6.018 -0.0842 -0.0422  0.1683
13085W        W55998  22.241   2.849  23.698  0.0002  0.1742  0.2179
13086W        W55999  31.418   9.232   6.294  0.3387  0.0280  0.1808
13087W        W56000  17.361  27.389   6.051  0.1262  0.2332  0.0173
13088W        W56001  20.689   5.408   4.383 -0.1113  0.0087 -0.1403
13089W        W56002  32.640   6.056  24.610 -0.0351  0.2318 -0.0448
13090W        W56003  30.835  28.074   2.261  0.1578  0.0020 -0.1740
13091W        W56004  26.245  25.517  26.556 -0.0605  0.0007 -0.1363
13092W        W56005  18.694   7.555   2.424 -0.5127  0.0786  0.1210
13093W        W56006  29.892   1.561   3.861 -0.0374 -0.4560 -0.0178
13094W        W56007  19.618   1.641   3.292 -0.1424 -0.1687  0.2530
13095W        W56008  17.233  25.516  26.838 -0.4212  0.0923  0.0122
13096W        W56009  32.328  30.205  26.492 -0.0620 -0.1707 -0.1223
13097W        W56010  22.116  30.924   3.106 -0.0822  0.0675 -0.0201
13098W        W56011  28.287  29.872  22.171  0.2818 -0.3038  0.0402
13099W        W56012  25.569   0.098  24.882 -0.1225  0.0047 -0.0688
13100W        W56013  24.304  21.290   3.030  0.1257 -0.1968 -0.2044
13101W        W56014  12.673  23.044  20.591 -0.1709  0.0246 -0.0611
13102W        W56015  26.568  33.035  27.983  0.5721  0.0296  0.3340
13103W        W56016  22.103   5.591  26.805  0.1690 -0.0670 -0.1207
13104W        W56017  19.048   2.105   8.195  0.1170  0.0738  0.2036
13105W        W56018  23.987  23.388   1.053  0.1798 -0.4408  0.0825
13106W        W56019  28.577  25.081  23.564  0.0934  0.0913 -0.2851
13107W        W56020  11.841  34.178   4.806 -0.0209 -0.1693  0.0076
13108W        W56021  27.519  24.360  25.181  0.1764  0.4588  0.1791
13109W        W56022  17.934  25.921   3.413  0.2127  0.0860  0.0327
13110W        W56023   0.736  23.793  24.373 -0.0347  0.2552 -0.0552
13111W        W56024  27.817  29.455  20.265  0.0952  0.4170 -0.2193
13112W        W56025  16.335   7.638  25.357  0.4725 -0.0182 -0.2700
13113W        W56026  27.484  26.405  25.068 -0.0468 -0.2725  0.0027
13114W        W56027  23.334  33.596   6.201  0.2215 -0.0165  0.1335
13115W        W56028  17.839   3.168  24.358  0.0958 -0.1090  0.0151
13116W        W56029  12.578   1.638  20.675 -0.2572 -0.1275  0.2414
13117W        W56030  24.467  19.655  29.123 -0.1017  0.2091 -0.2017
13118W        W56031  15.852  12.999   0.111 -0.1007 -0.0945 -0.1575
13119W        W56032  27.765   1.675  27.748  0.2094  0.0337  0.0811
13120W        W56033  31.476  25.746   0.599  0.1999  0.1905 -0.0746
13121W        W56034  23.572  31.105   5.238 -0.0156  0.1547  0.5064
13122W        W56035  26.340  19.755  27.393 -0.0080  0.1091 -0.1049
13123W        W56036  13.012  25.957  20.864  0.3043  0.2704  0.1158
13124W        W56037  24.103  33.221   4.112  0.1057 -0.0541  0.0186
13125W        W56038  22.076  29.160   1.069  0.0066 -0.2691 -0.1379
13126W        W56039  25.560  32.123  27.716 -0.1742  0.4350 -0.1155
13127W        W56040  31.011  25.939  25.207 -0.1718  0.0946 -0.1718
13128W        W56041  22.401  27.758  26.089 -0.1433 -0.1012 -0.1120
13129W        W56042  31.230   4.546   5.764 -0.0712  0.0239  0.2079
13130W        W56043  27.435  27.179   6.331 -0.1825  0.0038  0.0652
13131W        W56044  23.526  28.904  28.552  0.3513  0.0571 -0.2127
13132W        W56045  14.608   7.450  22.821  0.0668 -0.0387 -0.0656
13133W        W56046  11.653  26.523   0.413  0.1039 -0.3167 -0.0993
13134W        W56047  20.152  29.053  24.744  0.1634 -0.3033  0.0244
13135W        W56048  26.048  32.393   9.175 -0.0023  0.2787  0.1585
13136W        W56049  23.855   6.191   4.837  0.3008  0.1129  0.2126
13137W        W56050  23.139   2.797   3.149 -0.2318 -0.1757 -0.2308
13138W        W56051  25.894  30.450   6.194  0.1995  0.0547  0.2066
13139W        W56052  17.738   9.628   0.989 -0.0488 -0.0320  0.0933
13140W        W56053  27.013  27.643  20.666  0.2292 -0.2972  0.1119
13141W        W56054  20.711  29.850  20.342  0.1023 -0.2290  0.0840
13142W        W56055  17.744  12.753  14.094 -0.0469 -0.0071 -0.0020
13143W        W56056  27.312  12.051  28.687 -0.0244  0.0535  0.2924
13144W        W56057  15.108  29.972  18.113  0.1910 -0.0325 -0.0094
13145W        W56058  18.251  12.564  23.979  0.3848 -0.0253 -0.0345
13146W        W56059  13.829   2.115  19.247 -0.3274  0.4987 -0.0761
13147W        W56060  33.736   3.048  23.877  0.2534  0.2787 -0.2598
13148W        W56061   7.863  32.398  21.287  0.1220  0.3957 -0.1232
13149W        W56062  26.144   6.102  23.840  0.0046  0.2060 -0.2657
13150W        W56063  26.964  26.437  27.492 -0.2663 -0.0351  0.1036
13151W        W56064  19.382  21.396  28.418 -0.1226  0.0802  0.2629
13152W        W56065  31.548  25.655  27.463 -0.1305  0.1473  0.3035
13153W        W56066  18.578  25.046   5.625 -0.1629 -0.0865  0.0468
13154W        W56067  25.196  31.909  22.818 -0.2076  0.0342 -0.0159
13155W        W56068  16.734  23.930  22.049 -0.0681 -0.0278 -0.0582
13156W        W56069  23.012  30.493  28.824  0.0854  0.1660 -0.2081
13157W        W56070  18.945   1.999   0.330  0.0177 -0.2021 -0.0742
13158W        W56071  21.662  29.054  26.941 -0.0941  0.1527  0.1751
13159W        W56072  19.382  10.584   4.353  0.1334 -0.2162 -0.0538
13160W        W56073  26.743  31.753  18.740 -0.0945  0.1382 -0.2023
13161W        W56074  22.266  34.374  25.811 -0.1353  0.0442  0.2175
13162W        W56075  17.343  30.570   9.049  0.0272  0.0248  0.1624
13163W        W56076  15.431  16.593  12.514  0.2110  0.0951 -0.0056
13164W        W56077  31.315  30.848  23.087  0.1690 -0.5718  0.1208
13165W        W56078  16.477  28.972  24.802 -0.1254 -0.1357  0.1033
13166W        W56079  16.060  27.881   1.154  0.1637 -0.1710  0.3489
13167W        W56080  11.247  27.236  25.766  0.1030 -0.1991 -0.0428
13168W        W56081  29.514  28.321   5.479  0.0280 -0.0095  0.0507
13169W        W56082  30.385  24.691   9.114 -0.0266  0.2429  0.0056
13170W        W56083  22.035   1.011  27.902 -0.1210  0.2525 -0.2218
13171W        W56084  28.747   2.175  10.632 -0.0158  0.1406  0.1150
13172W        W56085  21.507  27.682  28.588 -0.0694  0.0213 -0.2524
13173W        W56086  33.729  31.682  24.252  0.6297 -0.0472  0.2108
13174W        W56087  22.645   5.061  20.661 -0.0213 -0.1800 -0.3381
13175W        W56088  32.246  27.515   5.539 -0.0853 -0.0303 -0.1794
13176W        W56089  14.704  26.076  15.178  0.1410  0.1249  0.3835
13177W        W56090  26.054  33.037   1.656 -0.1054 -0.2423 -0.3357
13178W        W56091  18.942  21.460  28.037 -0.0415 -0.0472 -0.2343
13179W        W56092  19.441  26.353  24.069 -0.5431 -0.1278 -0.1910
13180W        W56093  17.989  24.632   2.112 -0.1767 -0.0691 -0.2582
13181W        W56094  19.905  22.224  25.699  0.1596  0.0889 -0.4209
13182W        W56095  28.211  28.664  27.116 -0.0767 -0.2402  0.1009
13183W        W56096  19.748  26.149  14.942  0.0911  0.1859  0.1792
13184W        W56097  28.601  16.317  28.186 -0.0624  0.1313  0.1329
13185W        W56098  22.938  21.262   4.795  0.1527  0.0836  0.1206
13186W        W56099  13.512  32.332  23.462  0.0983  0.1120  0.3464
13187W        W56100  28.439   5.183   0.471  0.5105 -0.0024 -0.2461
13188W        W56101  34.094  22.544  15.594  0.3369  0.1813  0.3822
13189W        W56102  26.564  27.470  15.255  0.0446  0.1002 -0.0943
13190W        W56103   1.609  30.063  24.823 -0.1107 -0.2305  0.0565
13191W        W56104  11.113  27.670  26.049 -0.0296  0.2442 -0.1443
13192W        W56105  26.744   5.388  23.177  0.0437  0.1251  0.0139
13193W        W56106  10.611  26.901   1.705 -0.1608 -0.2424 -0.0327
13194W        W56107  16.399   1.846  23.841  0.1006 -0.0539 -0.3354
13195W        W56108  18.491  19.661  23.159  0.2399  0.1014  0.1592
13196W        W56109  19.751   1.188  14.502  0.1789 -0.0092  0.0969
13197W        W56110  16.637  33.519   6.681 -0.0912  0.0734  0.0710
13198W        W56111   0.889  33.910   5.115 -0.1875 -0.2061 -0.0065
13199W        W56112  24.790  34.198  28.063 -0.1204 -0.0864  0.0338
13200W        W56113   0.155  29.806  23.027 -0.0828  0.4662 -0.1597
13201W        W56114  24.815  25.360  22.643 -0.0250  0.1140  0.1467
13202W        W56115  22.157   7.064  26.920 -0.0830  0.2692 -0.4561
13203W        W56116  19.298  29.659  27.204 -0.2025  0.1019  0.2516
13204W        W56117  23.630  22.119  24.439  0.2338  0.0874  0.3356
13205W        W56118  17.440   0.476  26.064  0.1873  0.1549  0.0173
13206W        W56119  28.990  30.865  27.549  0.0773  0.2197 -0.3037
13207W        W56120  21.967  29.158   4.934  0.3994 -0.1921 -0.0900
13208W        W56121  21.171  31.400  24.255  0.0417 -0.0404 -0.1066
13209W        W56122  30.223  28.629  25.694 -0.4020 -0.0120  0.0205
13210W        W56123  11.799   7.721  25.749 -0.1010  0.3947  0.1056
13211W        W56124  20.449   7.876   3.136  0.4046 -0.2585  0.1465
13212W        W56125  24.502  30.933  28.701 -0.1792  0.2631  0.0907
13213W        W56126   3.677  29.103   1.889 -0.5021  0.5208 -0.0325
13214W        W56127  17.725   4.244  27.870 -0.1987  0.0928  0.0338
13215W        W56128  22.742  24.965   2.234 -0.0879 -0.2144  0.0198
13216W        W56129  27.102  30.206  27.662  0.2931  0.0958 -0.0533
13217W        W56130  15.510  34.188  28.356  0.1861  0.1938 -0.0487
13218W        W56131  23.247  29.786  29.458 -0.1370  0.0065  0.0839
13219W        W56132  29.999  27.753   1.098  0.2011  0.1899  0.0838
13220W        W56133  15.638  29.452  16.692 -0.0241 -0.0996 -0.1080
13221W        W56134  22.783  23.979  21.199  0.3586  0.2476  0.1791
13222W        W56135  27.256  30.514  26.687 -0.3964  0.0704  0.0123
13223W        W56136  12.157  32.232  12.020 -0.0234  0.0454 -0.2275
13224W        W56137  18.307  23.063  20.949 -0.0161  0.0290 -0.3563
13225W        W56138  27.266  27.784   2.647  0.3902  0.4380  0.0570
13226W        W56139  28.589   2.476  21.429 -0.1180  0.3436  0.2056
13227W        W56140  34.264  29.207   4.197 -0.0675 -0.0247 -0.1866
13228W        W56141  24.205  21.399  25.549 -0.0329  0.0539  0.1813
13229W        W56142  30.003  33.387  23.220  0.0516 -0.4215  0.0011
13230W        W56143   1.501  31.949   8.884  0.0621  0.0209  0.1588
13231W        W56144  25.875  31.812  25.366  0.0685 -0.1814  0.1217
13232W        W56145  16.949  23.651  25.874 -0.0592  0.2577 -0.2428
13233W        W56146  20.015  28.061  24.291 -0.1158  0.0329  0.1719
13234W        W56147  21.679  34.461   2.665  0.1932  0.2355 -0.0531
13235W        W56148  19.114  28.995   1.108  0.2713  0.1060 -0.1138
13236W        W56149  22.065  30.190   3.396  0.2007 -0.0044  0.2219
13237W        W56150  16.641  30.588  27.564 -0.2482 -0.2280  0.1171
13238W        W56151  22.656  27.313  28.845  0.1140  0.1183  0.1560
13239W        W56152  13.128  33.911   0.486  0.0899  0.0805  0.1552
13240W        W56153  15.758  25.874  25.923  0.2875  0.1889  0.1545
13241W        W56154  19.771  33.107  26.235 -0.3117  0.2409  0.1095
13242W        W56155  18.420   3.277  22.612 -0.2667 -0.1567  0.2555
13243W        W56156  22.841   6.350  24.586 -0.0605  0.0574 -0.0387
13244W        W56157  19.531  17.183  22.539 -0.4340 -0.0481 -0.0631
13245W        W56158  22.622  26.533  15.002  0.1063  0.3596 -0.1955
13246W        W56159  27.893  24.129   1.660 -0.1483 -0.3589  0.3502
13247W        W56160  22.780  19.826  17.438  0.0216 -0.1330 -0.1513
13248W        W56161  23.357   3.095   0.782  0.0984 -0.2265 -0.1726
13249W        W56162  23.244  33.089  29.535 -0.4054  0.3278 -0.1943
13250W        W56163  30.690  33.456   3.840 -0.2065 -0.3307 -0.0846
13251W        W56164  25.937  29.644  21.594  0.3698 -0.0840  0.2697
13252W        W56165  12.555  28.130  26.551 -0.1212 -0.2699 -0.0201
13253W        W56166  27.807   6.974  20.771 -0.0483  0.0704 -0.0252
13254W        W56167  18.706   0.634  27.607  0.0933  0.2035  0.1679
13255W        W56168  24.596  16.210  24.916  0.1455 -0.1908  0.0098
13256W        W56169  13.302  25.275  27.615  0.0850  0.1368  0.2074
13257W        W56170  24.137  27.592  28.236 -0.2293  0.1109 -0.1706
13258W        W56171  18.296  27.354  18.578 -0.2452  0.0603 -0.0116
13259W        W56172  19.173   0.982  22.466  0.0634 -0.0301  0.3766
13260W        W56173   3.890   4.412   2.671  0.3808 -0.1181 -0.1779
13261W        W56174   0.024   6.488   6.903  0.0614 -0.1295  0.0186
13262W        W56175  27.542  25.531   9.565 -0.1379  0.0696  0.1451
13263W        W56176  10.369  26.618  28.761 -0.1970 -0.0108  0.0900
13264W        W56177  20.645  19.990  18.273 -0.2196  0.2471  0.0788
13265W        W56178  20.067   5.156   2.880 -0.0436 -0.3389  0.2305
13266W        W56179  18.934  26.412  21.090  0.1237  0.2133 -0.2708
13267W        W56180  32.025  22.616  22.756 -0.0104 -0.1274  0.1582
13268W        W56181  23.535  26.494  25.452 -0.0827  0.2118 -0.0587
13269W        W56182  25.627  30.728   0.881 -0.1646  0.1563 -0.2728
13270W        W56183  24.406   4.889  26.988  0.1602  0.0145 -0.2270
13271W        W56184  28.799   1.617   7.964 -0.1033  0.0908 -0.0454
13272W        W56185  32.128  28.167   7.496  0.0793  0.1808  0.2005
13273W        W56186  25.794  25.754  20.137 -0.1942 -0.1222 -0.1980
13274W        W56187  21.114  25.975  27.825  0.1357  0.4296 -0.1826
13275W        W56188  22.440  26.401  26.794 -0.0415  0.2811  0.4655
13276W        W56189  31.154  27.692   3.718  0.0626  0.2750 -0.0904
13277W        W56190  27.390  30.813   7.336 -0.1053 -0.1455  0.3500
13278W        W56191  20.197  30.454   3.841 -0.3303  0.2234 -0.0779
13279W        W56192  22.102   8.010   9.349 -0.1154 -0.2451  0.1893
13280W        W56193  23.783  20.936  21.597 -0.2335  0.1725 -0.0481
13281W        W56194  18.231   2.177   0.285 -0.1535  0.0856  0.1953
13282W        W56195  21.465  27.996   7.855 -0.1904 -0.0185  0.1217
13283W        W56196  32.463  26.960  22.226 -0.1830  0.0738 -0.0514
13284W        W56197  22.945   5.819   8.492  0.1891  0.3791  0.0509
13285W        W56198  27.046  32.294   3.072  0.0178 -0.0195  0.0174
13286W        W56199  26.759  32.877  29.353 -0.2885 -0.0049  0.3176
13287W        W56200   8.449  33.388   8.108  0.3289  0.2040  0.0790
13288W        W56201  23.249  28.243   6.878 -0.0032 -0.2062  0.3289
13289W        W56202  22.862  19.277  18.252  0.0854  0.2426 -0.0194
13290W        W56203  24.359   7.241   5.465 -0.5195 -0.2807  0.0246
13291W        W56204  24.639  25.973  23.378 -0.1161 -0.1916 -0.3040
13292W        W56205  19.707  25.220  21.252  0.1746 -0.1042 -0.0461
13293W        W56206  12.160  18.144   2.791 -0.1104 -0.0031  0.0533
13294W        W56207  26.359   3.944  24.375 -0.1780 -0.0574 -0.0948
13295W        W56208  34.242  28.178  23.003  0.2683 -0.2818  0.1512
13296W        W56209  24.160  24.316  27.049  0.1305 -0.1977  0.0244
13297W        W56210  16.170   0.457   0.797  0.0871 -0.0019  0.2118
13298W        W56211  17.403  30.094   8.691  0.0641  0.0607 -0.1175
13299W        W56212  14.666   5.782  24.121  0.0875  0.0099  0.1141
13300W        W56213  24.941  25.589  26.211 -0.0912 -0.1502 -0.1864
13301W        W56214  25.829  21.844   1.313 -0.1744  0.0001 -0.2086
13302W        W56215  19.369  28.488   3.854 -0.2174 -0.0656  0.2376
13303W        W56216  33.638   3.510   7.701 -0.2802  0.3713 -0.1921
13304W        W56217  20.958  34.339  28.660  0.2330  0.0295 -0.1425
13305W        W56218  15.699  22.494   0.559  0.0021  0.2683  0.2209
13306W        W56219  31.884  34.379   6.411 -0.1601  0.0271 -0.1778
13307W        W56220  24.078   6.994   6.417  0.0638  0.1890  0.1150
13308W        W56221   3.089  30.657   5.034  0.0195  0.2159  0.1282
13309W        W56222  13.342  22.432  23.517 -0.1385  0.1616  0.1779
13310W        W56223   0.685  33.090  25.602 -0.1918 -0.0918  0.3606
13311W        W56224  18.756  30.210  16.143  0.0237  0.0229 -0.1066
13312W        W56225  26.404   4.557   8.745  0.0837 -0.0474  0.0662
13313W        W56226  17.512   6.340  24.894  0.1121 -0.1035  0.1241
13314W        W56227  31.915  25.010  27.345 -0.1517  0.1390  0.1014
13315W        W56228  28.776   2.514   9.621  0.0559  0.0381 -0.4734
13316W        W56229   2.678  32.050  10.180 -0.0583 -0.0299 -0.0745
13317W        W56230  19.533  27.863  24.654 -0.1421  0.0290 -0.1795
13318W        W56231   6.373   3.187   8.909  0.0517  0.0020  0.1614
13319W        W56232  23.351   2.331  26.289  0.4790  0.0299 -0.3295
13320W        W56233  20.368   4.798   7.368  0.3420  0.0608 -0.2140
13321W        W56234  22.327   0.948   4.190  0.0773  0.0053 -0.1516
13322W        W56235  20.987   8.399   2.227  0.3402  0.0266  0.0851
13323W        W56236  26.101  29.697  20.061  0.0847  0.1970  0.1635
13324W        W56237   0.016  25.070   0.286 -0.0914 -0.0798 -0.0609
13325W        W56238  31.958  13.533  27.476 -0.0749 -0.0416  0.3140
13326W        W56239  19.174   1.008  15.514 -0.2297 -0.1444  0.0635
13327W        W56240  20.790  33.715   5.147 -0.1518  0.0647  0.2713
13328W        W56241  22.322  24.525  26.428 -0.0328  0.2763 -0.2556
13329W        W56242  21.529  34.074  24.846 -0.1727 -0.1751 -0.1027
13330W        W56243  24.064  20.137  21.238  0.0371  0.1665  0.0799
13331W        W56244  26.281  29.385  27.451  0.0643 -0.0003  0.1122
13332W        W56245  19.653  31.162  23.003 -0.0019 -0.2968 -0.1059
13333W        W56246  34.241  24.266  24.760 -0.0611 -0.0209  0.5055
13334W        W56247  16.863   1.335  24.494  0.2574  0.0486  0.0617
13335W        W56248  26.838  32.205   4.875  0.1902 -0.0727 -0.1228
13336W        W56249  20.450  33.924   3.655  0.0614 -0.0157 -0.2359
13337W        W56250  20.009  22.074  26.878  0.0527  0.1612  0.0810
13338W        W56251  23.944   0.484  15.609 -0.1559 -0.0468 -0.0640
13339W        W56252   1.944  29.739   7.717 -0.0115  0.1791 -0.3108
13340W        W56253  31.418  27.475   4.700 -0.0064  0.0191 -0.0220
13341W        W56254   3.428  29.038   2.928 -0.3179 -0.2471 -0.0413
13342W        W56255  14.486  30.238  22.487 -0.1104  0.1012  0.1202
13343W        W56256  33.414  24.534   2.205 -0.0522 -0.1999 -0.0558
13344W        W56257  16.757  24.011  25.461 -0.0457  0.0021 -0.0272
13345W        W56258  12.179  24.933  22.172  0.1516  0.1488 -0.0219
13346W        W56259  23.395  33.129  23.475 -0.3256  0.1468  0.0588
13347W        W56260  22.902   4.748   0.569  0.1043  0.1106 -0.1618
13348W        W56261  25.708   1.926   5.153 -0.2468  0.1534  0.0313
13349W        W56262   9.514   8.862  29.362 -0.3394  0.0237  0.1527
13350W        W56263  18.845  30.205   4.908  0.0676  0.1003  0.0549
13351W        W56264  19.976  27.552   2.088 -0.0022  0.0312 -0.2193
13352W        W56265  31.194   1.512  26.833 -0.3485 -0.0053 -0.0362
13353W        W56266  18.456  21.991  20.932 -0.0155  0.0042  0.2866
13354W        W56267   0.124  16.090  25.591 -0.1778 -0.2366  0.0488
13355W        W56268  24.683  25.556  24.588 -0.3847  0.2192  0.0077
13356W        W56269  30.607  27.760   6.448 -0.1688 -0.0919 -0.1342
13357W        W56270  30.273  31.828  28.346 -0.3503  0.1587 -0.0879
13358W        W56271  18.179   0.955   3.035 -0.3662 -0.4103  0.2875
13359W        W56272  17.066  27.436  27.979  0.4890  0.0394 -0.0838
13360W        W56273  29.365   1.360  23.455  0.1083  0.1545 -0.1345
13361W        W56274  28.361  19.891  29.537 -0.0054  0.0499  0.0003
13362W        W56275  16.607  28.452  29.184  0.0254  0.1477  0.1291
13363W        W56276  18.365  33.635  20.363 -0.0500  0.3299 -0.0713
13364W        W56277  24.344  32.869   3.797  0.1097  0.0766  0.3523
13365W        W56278  21.446  25.609  22.541  0.1793  0.1484  0.4331
13366W        W56279  24.310  19.374  20.565  0.0853  0.0499  0.1546
13367W        W56280  25.386  29.135   4.773  0.1052 -0.1545  0.0280
13368W        W56281  25.334  26.559  19.369 -0.0798 -0.0470 -0.2119
13369W        W56282  25.463   4.481  25.954  0.0026  0.0745 -0.3053
13370W        W56283  18.547  30.859  10.063 -0.1196  0.1815 -0.0089
13371W        W56284  19.197   2.180  25.486 -0.1958  0.1738 -0.0593
13372W        W56285  26.384   5.422   4.234 -0.3451  0.2003  0.1089
13373W        W56286  26.320   3.969   5.323 -0.1290 -0.1506  0.0666
13374W        W56287  25.981  29.436   1.100  0.1276  0.0182  0.2152
13375W        W56288  26.131  28.696  29.277 -0.0495  0.2004 -0.0923
13376W        W56289  15.181  28.338  10.617  0.1612  0.0596 -0.0985
13377W        W56290  33.198  30.882  27.580  0.0472 -0.0065 -0.0990
13378W        W56291  13.791   0.300  17.012  0.0340 -0.0979 -0.3356
13379W        W56292  21.855  33.966   3.943 -0.0920 -0.1435 -0.2427
13380W        W56293   4.694   0.300  22.608  0.1077  0.1314  0.1935
13381W        W56294  18.385  27.181  29.295 -0.0450  0.1231 -0.0422
13382W        W56295  21.160  25.995   0.911  0.1384 -0.2127 -0.0110
13383W        W56296  33.531   4.777   1.525 -0.3074  0.1243 -0.1378
13384W        W56297  25.434  21.129  26.801  0.1690  0.0260  0.3543
13385W        W56298  23.924  33.685   8.803 -0.2247  0.0311  0.2127
13386W        W56299  13.524  30.662   5.679  0.1332 -0.3665  0.1787
13387W        W56300  22.245  25.747   1.994 -0.0455  0.1612 -0.2261
13388W        W56301  10.292  30.110  27.181 -0.0359 -0.1148  0.3897
13389W        W56302  29.020  18.497   4.150 -0.1548  0.0748 -0.1300
13390W        W56303  12.924  34.388   0.582  0.0366 -0.2841 -0.0460
13391W        W56304  25.087  30.834  29.509 -0.1417 -0.0744  0.2363
13392W        W56305   4.384  19.665   1.831 -0.0123  0.0080 -0.1868
13393W        W56306  26.738  30.690  15.664 -0.2648  0.0543 -0.2053
13394W        W56307  12.131  11.636   2.010  0.2345 -0.0006 -0.1697
13395W        W56308  21.952  24.833   1.580 -0.1013 -0.1344  0.1614
13396W        W56309  18.427  22.718   5.137 -0.2092 -0.2818 -0.3412
13397W        W56310  30.729  30.510   5.816 -0.1846  0.4173 -0.2089
13398W        W56311  13.796  32.964  29.659  0.0504 -0.0695 -0.3942
13399W        W56312  15.516  33.093   3.133  0.0226  0.0026  0.0240
13400W        W56313  15.147   4.314   9.485  0.0175  0.4595  0.0235
13401W        W56314  14.827  31.904  27.429 -0.1964 -0.2776 -0.0871
13402W        W56315  28.643  17.790  22.188  0.1079 -0.1350 -0.1611
13403W        W56316  24.140   3.571   9.736 -0.1093 -0.2429 -0.2700
13404W        W56317  33.259  32.767   7.474 -0.0157 -0.1849 -0.2156
13405W        W56318  24.909   3.813  10.028 -0.1631  0.0847  0.1321
13406W        W56319  19.311  26.132  21.113 -0.0592 -0.0823  0.1397
13407W        W56320  25.619  30.283   9.465  0.0839  0.2100  0.0110
13408W        W56321  34.281  27.799  28.594  0.1206 -0.1040  0.0516
13409W        W56322  20.803  21.904  26.673 -0.2674  0.1115  0.0140
13410W        W56323  15.435  11.999  22.792  0.2124 -0.1790  0.0293
13411W        W56324  11.689  34.026  11.432 -0.2559 -0.1716 -0.2032
13412W        W56325  21.352  29.803   5.317 -0.0912 -0.1578  0.1278
13413W        W56326  17.404  25.198  27.239 -0.1192  0.1380 -0.0870
13414W        W56327  24.471  25.301   1.724 -0.2376  0.0052 -0.3203
13415W        W56328  31.928   0.152   8.283  0.3791  0.2178 -0.0115
13416W        W56329  26.430  23.281  23.600 -0.1970 -0.1043  0.0883
13417W        W56330  33.384  12.223   6.591  0.0968 -0.0185 -0.1104
13418W        W56331  16.666  25.982   1.426 -0.1888 -0.2940 -0.1614
13419W        W56332  24.876  25.328  25.166  0.1352  0.0471 -0.1816
13420W        W56333  19.933  21.249   6.023  0.3087 -0.0088  0.0164
13421W        W56334  32.963  28.713  28.882 -0.0351  0.1755 -0.1958
13422W        W56335   9.751   1.263   8.348 -0.1506 -0.0059  0.0213
13423W        W56336  17.731  30.397   7.307 -0.2098  0.1303  0.1935
13424W        W56337  21.931  23.055   2.266  0.2721  0.1632 -0.1809
13425W        W56338  30.901  32.806   2.067  0.0276  0.3097  0.0824
13426W        W56339  22.245   5.730  28.900 -0.2180  0.1553  0.3910
13427W        W56340  17.518   0.580   8.277 -0.3250  0.1205 -0.2856
13428W        W56341  29.856  25.878  25.164 -0.3404  0.1835 -0.3370
13429W        W56342  25.584   4.239   2.687  0.4113 -0.0769 -0.3605
13430W        W56343  22.819  23.920  27.556  0.1845 -0.4080 -0.1365
13431W        W56344  16.761  24.591  20.370 -0.1365 -0.1070  0.2844
13432W        W56345  30.970  32.025  29.611  0.2338 -0.1189  0.1698
13433W        W56346  26.064  25.876   6.452 -0.0863  0.0182 -0.1031
13434W        W56347  27.790  30.708   1.099  0.0582  0.2577  0.1770
13435W        W56348  22.159  33.424  26.873  0.3159  0.1778 -0.0936
13436W        W56349  20.360  23.867  27.221 -0.0912 -0.0224 -0.2578
13437W        W56350  22.899  10.976   8.767 -0.0086 -0.0892 -0.2284
13438W        W56351  29.255  29.704  27.203  0.3239  0.2010  0.0136
13439W        W56352  31.007  19.579   4.343 -0.0191  0.1600 -0.0578
13440W        W56353  19.803   1.055  28.832  0.2030  0.0585  0.0898
13441W        W56354  17.778  24.488  18.025  0.0915 -0.0206 -0.2142
13442W        W56355  19.115  33.986   0.706 -0.1036  0.0973  0.0596
13443W        W56356  10.413  19.779  20.824  0.2675  0.0820  0.1008
13444W        W56357  20.101  31.795  19.007 -0.2921  0.1368 -0.0747
13445W        W56358  18.622  20.992  23.962  0.3210 -0.2585 -0.0967
13446W        W56359  30.851  29.235  28.118  0.1399  0.0466  0.0935
13447W        W56360  19.811  32.597  20.134  0.0620 -0.0618  0.1354
13448W        W56361  26.676  28.595  28.864 -0.0251 -0.1120  0.2029
13449W        W56362  24.851   0.595  18.360  0.3502 -0.1057  0.2012
13450W        W56363  24.518  25.572  25.439 -0.4146  0.1460 -0.2696
13451W        W56364  31.427   3.398  16.894 -0.2695  0.1220 -0.0282
13452W        W56365  20.819   2.173  17.377 -0.3321 -0.1778 -0.0156
13453W        W56366  22.338   2.290  27.590  0.1456 -0.0272 -0.4802
13454W        W56367  27.734  32.361  23.043  0.0699 -0.3001 -0.1627
13455W        W56368  18.510  30.175  17.091 -0.1793  0.1137  0.2811
13456W        W56369  23.958  34.253  15.887 -0.1341 -0.1570  0.1041
13457W        W56370  29.639  30.199  16.806 -0.0440 -0.0828  0.1969
13458W        W56371  24.744  12.474  25.181  0.1618  0.1858  0.2784
13459W        W56372  30.184  25.577  16.793 -0.2700  0.0635 -0.1224
13460W        W56373  31.743   6.074  20.494  0.1050 -0.1926  0.1984
13461W        W56374  21.999  26.809  18.784 -0.0941  0.1657  0.0069
13462W        W56375  23.612  34.344  25.546  0.0041 -0.0770 -0.2614
13463W        W56376   7.049  19.630  15.795  0.1087  0.4365 -0.0219
13464W        W56377  18.031  17.842  13.437  0.2599 -0.2448  0.2560
13465W        W56378  29.676   4.828  17.141  0.1496  0.5859  0.1347
13466W        W56379  28.431  26.005  13.079 -0.2566  0.0759  0.2859
13467W        W56380   1.429   3.009  16.631  0.2140  0.0697  0.1557
13468W        W56381  34.407  28.589  24.555  0.2258  0.1442  0.4201
13469W        W56382  20.264  30.058  29.275  0.1937 -0.0211 -0.1030
13470W        W56383  22.942  25.963  23.048  0.1255  0.0332  0.3679
13471W        W56384  26.051  29.118  25.144 -0.1154 -0.0668 -0.0916
13472W        W56385  29.039  32.804  28.048  0.2025 -0.1437 -0.0824
13473W        W56386  22.679  25.280  26.771  0.4101  0.1963  0.1758
13474W        W56387  21.008   7.352  28.022 -0.1194 -0.0592 -0.3036
13475W        W56388  17.212   6.293  19.990  0.0390 -0.0687 -0.1086
13476W        W56389  28.321   4.208  24.957 -0.2240  0.1790  0.2757
13477W        W56390  31.690  20.694  15.474 -0.2884  0.0209 -0.2096
13478W        W56391  25.816  29.227  14.049 -0.0142  0.0329  0.1305
13479W        W56392  32.330  31.093  17.308  0.1916 -0.1722  0.0889
13480W        W56393  26.205   3.862  16.224 -0.0495 -0.2678 -0.1552
13481W        W56394  19.963  27.901  23.286 -0.0859  0.1399 -0.4805
13482W        W56395   1.284  30.719  23.657  0.2504 -0.0363 -0.0012
13483W        W56396  13.943   1.643  19.149 -0.3888 -0.0399 -0.1436
13484W        W56397  25.356  24.324  17.485 -0.5786 -0.3595  0.1060
13485W        W56398  26.874  27.376  27.740  0.0300  0.1329  0.0836
13486W        W56399  33.794  31.850  20.647  0.0591  0.2082  0.2687
13487W        W56400  23.849  30.775  12.950 -0.3376  0.0611 -0.1295
13488W        W56401  21.434  26.655  15.807  0.1708 -0.0277  0.1522
13489W        W56402  20.681  33.831  21.227  0.2294  0.0507  0.0081
13490W        W56403  22.344  27.712  16.114  0.3181  0.2881 -0.3341
13491W        W56404  28.918  32.594  17.319 -0.2327  0.0074  0.0868
13492W        W56405   9.871  14.574  19.480 -0.1740 -0.1063  0.1154
13493W        W56406  26.770  31.029  14.652  0.0215  0.2290  0.0015
13494W        W56407  27.778  33.444  17.819  0.0481  0.2165  0.0718
13495W        W56408  21.115   7.012  13.623  0.1812  0.1523  0.0754
13496W        W56409  20.423  24.517  19.183 -0.0581 -0.0253  0.1083
13497W        W56410  28.269  33.076  16.318 -0.0415 -0.1467  0.3353
13498W        W56411  25.996   9.261  24.602 -0.2347 -0.0237 -0.0814
13499W        W56412   1.139  26.912  23.479  0.1189  0.1494  0.1879
13500W        W56413  17.917  33.303  18.609  0.2215 -0.0502 -0.1728
13501W        W56414  11.594  34.483  17.970 -0.1685  0.3662 -0.2010
13502W        W56415  31.681  26.334  13.989  0.1257  0.0143  0.0649
13503W        W56416  31.622   4.272  22.380  0.0983 -0.0531  0.2434
13504W        W56417  19.654  24.936  26.132 -0.1031  0.0007 -0.2848
13505W        W56418  26.633  21.801  16.085  0.0028 -0.3592  0.1597
13506W        W56419  29.593   1.046  23.133  0.3021 -0.2485 -0.0701
13507W        W56420   3.304  30.763  21.137 -0.2727 -0.0905 -0.0657
13508W        W56421  33.619  31.975  15.794  0.0283  0.1436 -0.0349
13509W        W56422  23.202   5.216  25.140 -0.0709 -0.0929  0.1447
13510W        W56423   4.031  29.849  17.954  0.0160 -0.0604  0.0123
13511W        W56424  20.324  34.200  19.794 -0.1337  0.1571 -0.0348
13512W        W56425  22.792   4.371  22.138 -0.0214 -0.2601  0.1770
13513W        W56426  23.721  27.799  19.232 -0.4726 -0.1207  0.0930
13514W        W56427  14.201  24.860  22.576 -0.0025  0.2064 -0.0128
13515W        W56428  22.087   6.168  13.834 -0.2359  0.3345  0.1418
13516W        W56429  22.416  31.209  17.818  0.3578  0.1736  0.0839
13517W        W56430  29.462  26.981  23.876  0.2146  0.0435  0.0522
13518W        W56431  20.191  32.823  13.769  0.0046  0.0757  0.1001
13519W        W56432  27.062   3.259  17.249 -0.3092 -0.1585  0.1987
13520W        W56433  27.468   6.181  23.115  0.0270 -0.2250 -0.0210
13521W        W56434  15.011   1.386  19.081  0.0138 -0.2706  0.0722
13522W        W56435   0.017   3.571  17.978  0.1378  0.0457  0.0916
13523W        W56436  26.516   0.738  27.772 -0.1468  0.0487 -0.1290
13524W        W56437  21.071  30.291  18.331 -0.2649  0.2642  0.3687
13525W        W56438   9.430  30.415  17.754 -0.0961  0.1672  0.0952
13526W        W56439  17.339  30.850  16.652 -0.2194  0.0163  0.1230
13527W        W56440  23.600   0.118  16.792 -0.1953 -0.0954 -0.0581
13528W        W56441   0.602  31.889  27.036 -0.0971  0.1813 -0.0622
13529W        W56442  25.070  33.326  22.853 -0.0387 -0.1862  0.2894
13530W        W56443  20.982   8.877  15.177  0.3056  0.2860  0.4492
13531W        W56444  33.811   3.954  20.514 -0.0358 -0.1314  0.0333
13532W        W56445  23.285   9.752  19.954 -0.1199 -0.1611  0.0263
13533W        W56446   0.170  25.692  16.368  0.1216  0.3307 -0.2237
13534W        W56447  17.646   2.680  19.523 -0.0081 -0.0409 -0.2678
13535W        W56448  16.003   0.267  16.857  0.0200  0.1652  0.1219
13536W        W56449  25.352  29.336  18.072 -0.2018  0.0664 -0.3195
13537W        W56450  14.703  25.645   3.470  0.1593  0.1707 -0.1932
13538W        W56451  22.940  32.332  16.492  0.0003  0.0215 -0.2317
13539W        W56452  21.524   3.679  17.560 -0.1198 -0.1610  0.0755
13540W        W56453  30.305  11.157  13.577  0.1353  0.2369  0.0903
13541W        W56454  33.879   0.680  28.942  0.0391  0.1789  0.2140
13542W        W56455  26.158  29.465  16.858  0.0539 -0.0376 -0.4681
13543W        W56456  28.786  32.287  23.174 -0.1994  0.0577 -0.0170
13544W        W56457   4.821   1.716  18.381 -0.0216  0.0456 -0.1001
13545W        W56458  23.511   3.928  16.401 -0.1632  0.0461 -0.0371
13546W        W56459  22.562   7.161  13.795 -0.6076  0.0702 -0.0339
13547W        W56460  24.164   1.943  21.700 -0.1666 -0.0992 -0.2871
13548W        W56461  30.720  28.448  19.301  0.3210  0.1253 -0.1288
13549W        W56462  14.822  11.851  14.099 -0.0629  0.1058  0.1182
13550W        W56463  27.514   7.698  19.738  0.1588 -0.0764  0.0514
13551W        W56464  30.350  15.477  23.538  0.4575 -0.0324 -0.3538
13552W        W56465  17.568  34.334  14.583  0.1028 -0.3761  0.1801
13553W        W56466  19.652  32.440  14.615  0.3193 -0.1733  0.0498
13554W        W56467  24.000  32.006  20.298 -0.4969  0.0969  0.2384
13555W        W56468  23.832  33.465  13.939  0.2932 -0.0042 -0.2466
13556W        W56469  26.447  32.554  25.237  0.6409  0.2033 -0.0596
13557W        W56470  27.639  29.586  14.311  0.0252 -0.2427  0.4902
13558W        W56471  20.404   3.652  17.290 -0.1088 -0.1276  0.3377
13559W        W56472   9.630   2.113  22.315  0.1478  0.0257 -0.2963
13560W        W56473  31.965  34.186  14.811  0.0936  0.2708 -0.1028
13561W        W56474  25.000   1.496  21.779 -0.0063 -0.0071 -0.0476
13562W        W56475  18.614   0.832  27.081  0.1061  0.1685 -0.1035
13563W        W56476  14.402  33.589  16.394 -0.1118  0.1353  0.1922
13564W        W56477  26.491  32.276  22.655  0.0649 -0.0664 -0.3106
13565W        W56478  29.914   8.589  21.927 -0.0271 -0.2418  0.2755
13566W        W56479  17.812  33.812  18.275 -0.1319  0.1171 -0.0592
13567W        W56480  15.988  26.773  20.411 -0.0162 -0.0360  0.0908
13568W        W56481  25.579   1.153  15.860 -0.0347 -0.1275  0.0621
13569W        W56482  29.233  24.417  15.174 -0.1895 -0.1381  0.0348
13570W        W56483  29.854   1.328  15.313  0.0413  0.0993 -0.3201
13571W        W56484   0.388   1.595  18.785  0.0703  0.3772  0.0867
13572W        W56485  20.396   3.808  19.933 -0.1912 -0.0685 -0.0481
13573W        W56486  16.940   4.064   1.770 -0.0298 -0.3550  0.1056
13574W        W56487  24.067  25.816  25.004  0.0103  0.0066 -0.2691
13575W        W56488  27.546   2.897  17.666 -0.0492  0.1882  0.1268
13576W        W56489  23.977   3.886  21.945 -0.0965 -0.0036  0.0300
13577W        W56490  26.291   2.857  14.772 -0.1712 -0.1042  0.1158
13578W        W56491  26.561  32.146  16.507  0.1268 -0.2212  0.0814
13579W        W56492  21.090  34.116   3.101 -0.1668  0.0248  0.2086
13580W        W56493  26.605  31.478  14.804 -0.1270 -0.0928 -0.0307
13581W        W56494  23.498  29.500  16.402  0.1688 -0.0462  0.0379
13582W        W56495  18.066  27.390  24.835  0.0198 -0.0916 -0.3883
13583W        W56496   0.376  31.647  14.556  0.0904  0.2205  0.0574
13584W        W56497  27.529   5.826  25.504  0.0755  0.1986 -0.1515
13585W        W56498  24.967   2.092  29.585 -0.3284 -0.1568 -0.0854
13586W        W56499  23.552  26.668  16.952 -0.1676  0.0145  0.2724
13587W        W56500  13.319  27.844  17.185 -0.0305  0.0799  0.2127
13588W        W56501  19.358   3.926  17.250 -0.2447 -0.1327 -0.2430
13589W        W56502  31.890  24.944  20.673 -0.4979  0.1012 -0.3742
13590W        W56503  15.305  28.313  17.153  0.0022 -0.1611  0.1288
13591W        W56504  29.368   5.382  16.977  0.1103 -0.3018 -0.1753
13592W        W56505  32.823  29.618  23.000  0.3512  0.0524  0.1702
13593W        W56506  26.246  27.759  22.704 -0.1237 -0.1602 -0.2690
13594W        W56507  34.448  32.199  20.930 -0.1361 -0.2863 -0.0250
13595W        W56508  18.432   0.687  18.514 -0.1111 -0.1134  0.0696
13596W        W56509  25.119   0.127  14.887  0.1842 -0.1534  0.2144
13597W        W56510  18.087   2.995  15.698  0.0192  0.2365 -0.0082
13598W        W56511  28.417   4.045  15.795 -0.1599  0.1000  0.1925
13599W        W56512  25.767  11.381  13.211  0.1338  0.2153  0.0600
13600W        W56513  25.182   4.029  20.239 -0.1467 -0.0678  0.2976
13601W        W56514  15.230   7.868  17.508  0.2397 -0.2571 -0.0635
13602W        W56515  24.735   1.323  15.973  0.0665 -0.2488 -0.0514
13603W        W56516  22.385  31.618  15.538  0.0163  0.1037 -0.0314
13604W        W56517  27.906  29.373  28.382  0.2819  0.0606 -0.2581
13605W        W56518  19.312  31.274  19.080  0.0641 -0.0507 -0.0556
13606W        W56519  15.867   7.738  18.004 -0.0473  0.2190 -0.0427
13607W        W56520  25.555  27.807  15.820  0.1356  0.1071  0.0064
13608W        W56521  20.792  33.191  19.045 -0.1170  0.0021  0.0969
13609W        W56522  11.797  27.943  18.410 -0.0959 -0.0517 -0.1361
13610W        W56523  25.905  33.858  14.706 -0.1320  0.0899  0.1387
13611W        W56524  20.650   6.617  21.299  0.1511  0.0185 -0.1364
13612W        W56525  28.284  29.340  16.853 -0.1949  0.0502 -0.2332
13613W        W56526  17.051  25.066  20.831 -0.1088 -0.3994 -0.0640
13614W        W56527  25.632   9.694  23.528  0.2649 -0.0016  0.1414
13615W        W56528  20.027   2.318  26.074  0.2554  0.2349  0.0551
13616W        W56529  19.681  28.918  14.852 -0.0193 -0.1847 -0.0290
13617W        W56530   5.420   0.336  27.342  0.1388  0.1123  0.0936
13618W        W56531  31.325  28.754  18.527  0.1084 -0.3864  0.0971
13619W        W56532  16.280   0.152  23.290 -0.0575  0.1916 -0.2630
13620W        W56533  26.382   1.292  21.730 -0.0062  0.1099  0.0866
13621W        W56534  24.045   1.881  14.302 -0.0150 -0.0592  0.1830
13622W        W56535  30.689   3.781  21.422 -0.1277 -0.1562  0.0627
13623W        W56536  23.115  20.967  20.466  0.1254  0.0941  0.0836
13624W        W56537  25.735  30.957  21.260  0.2090 -0.0551 -0.0967
13625W        W56538  28.082  10.376  16.175 -0.0056  0.1461  0.0999
13626W        W56539  24.572  28.142  15.838 -0.3154  0.2968  0.1172
13627W        W56540  21.412  33.387  25.379  0.2275  0.0376 -0.0713
13628W        W56541  19.583  20.034  22.997  0.0325  0.1007  0.0068
13629W        W56542  15.487  12.901  14.636 -0.2445  0.1260 -0.0858
13630W        W56543  22.627  31.046  23.065  0.1532 -0.1207 -0.2845
13631W        W56544  34.280  27.612  13.971  0.0340  0.2965  0.2279
13632W        W56545  25.084  30.718  25.425  0.1542  0.1599  0.1415
13633W        W56546  33.339   4.164  18.204 -0.2824 -0.2467 -0.0689
13634W        W56547  32.172  21.968  18.403 -0.2122  0.2195  0.2716
13635W        W56548   0.550  29.355  15.986  0.3117 -0.0674  0.1910
13636W        W56549  24.695  14.114  24.947  0.0577 -0.0449 -0.0775
13637W        W56550  26.275   5.712  23.175  0.0182 -0.0496 -0.1281
13638W        W56551  22.362  10.430  14.447  0.1942  0.0114 -0.1710
13639W        W56552  13.087   3.156  19.748 -0.1499  0.1873  0.0162
13640W        W56553  24.848   5.590  16.655 -0.1071  0.0684  0.2250
13641W        W56554  27.984  23.890  15.439 -0.0013 -0.2487 -0.0764
13642W        W56555  20.545   4.717  25.549 -0.1554  0.1568  0.1379
13643W        W56556  22.483  31.243  28.563  0.2111  0.2102 -0.0743
13644W        W56557  29.200  22.762  15.745  0.0518 -0.0627 -0.1207
13645W        W56558  11.121   6.907   8.347 -0.3503 -0.1590  0.2023
13646W        W56559  22.206  33.316  13.762  0.1740  0.0764 -0.3563
13647W        W56560  25.676   1.982  23.010  0.2192 -0.1275  0.2964
13648W        W56561  19.604  10.922  17.450  0.0928 -0.0636  0.0863
13649W        W56562  27.132  26.843  18.580  0.1085  0.0797 -0.1008
13650W        W56563  26.923  29.752  14.746  0.0467  0.2103  0.0474
13651W        W56564  22.256  29.219  24.192  0.1211  0.1925 -0.0577
13652W        W56565  19.158  26.047  25.860 -0.1889  0.0464 -0.0624
13653W        W56566  28.040  28.440  19.869  0.0751 -0.0048 -0.1590
13654W        W56567  28.155  32.599  16.107 -0.2750 -0.0145  0.0046
13655W        W56568  23.544  12.089  16.610  0.0710  0.1283 -0.0160
13656W        W56569   9.031   4.470  18.393 -0.2450 -0.0460  0.0102
13657W        W56570   2.023  32.748  19.184 -0.3949  0.0386  0.0257
13658W        W56571  22.063   5.122  15.371  0.0488  0.0983 -0.2123
13659W        W56572  22.900  20.427  20.539  0.2871  0.1696 -0.0083
13660W        W56573  28.135  28.398  15.616 -0.0993  0.0552  0.0402
13661W        W56574  20.401  31.327  19.035 -0.2224 -0.1070  0.1886
13662W        W56575  24.016  32.775  14.158 -0.1945 -0.4508  0.0637
13663W        W56576  28.193  29.367  18.683  0.1074  0.0707  0.2919
13664W        W56577  24.131   2.436  21.676 -0.2738  0.2635  0.0098
13665W        W56578  29.484  26.160  19.113  0.2170  0.0466 -0.0693
13666W        W56579  26.880  15.522   0.216 -0.2065  0.0259 -0.0034
13667W        W56580  28.368  33.992  17.550 -0.0552  0.0589 -0.0267
13668W        W56581  32.510   0.707  17.013 -0.0028  0.3676  0.3196
13669W        W56582  30.922  31.603  29.309 -0.3443  0.0754  0.1767
13670W        W56583  22.705  34.003  29.556 -0.0544  0.1864 -0.1986
13671W        W56584  29.236   2.775  16.756  0.2473 -0.1920  0.0428
13672W        W56585  12.083  28.992  22.203  0.0785 -0.1542 -0.0578
13673W        W56586  18.996  29.159  16.145  0.0788  0.0463 -0.1252
13674W        W56587  18.308  29.460  22.243  0.1351 -0.2628 -0.1201
13675W        W56588   3.318   5.549  27.373 -0.2152  0.1447 -0.0413
13676W        W56589  13.845  30.329  24.994  0.0632 -0.0525 -0.0632
13677W        W56590  28.394   4.366  18.894  0.1849  0.2543  0.3714
13678W        W56591  20.409   4.631  19.595 -0.0750 -0.1857 -0.0605
13679W        W56592  27.976  31.695  17.248  0.2941  0.1420  0.3563
13680W        W56593  27.363   0.688  26.255  0.0607 -0.1437 -0.0928
13681W        W56594  22.806   4.885   1.128  0.0464  0.1479  0.1109
13682W        W56595  22.797  33.073  13.238 -0.1898 -0.0709 -0.1467
13683W        W56596  19.164  28.834  28.246 -0.0559  0.2473  0.2214
13684W        W56597  18.319   5.990  15.838 -0.1590 -0.1939  0.2749
13685W        W56598  26.748  26.245  23.842  0.2392 -0.2842  0.2339
13686W        W56599  22.709   5.062  24.940 -0.0071 -0.2258  0.0178
13687W        W56600  11.493  33.873  23.569  0.0243  0.0349  0.0016
13688W        W56601  24.226  24.560  12.923 -0.0601 -0.2292 -0.0666
13689W        W56602  32.562  30.812  17.869  0.1412  0.1023 -0.2749
13690W        W56603  24.829  32.856  19.179  0.0168  0.2044  0.0689
13691W        W56604  27.058   1.930  22.457  0.0716 -0.2153  0.1311
13692W        W56605  23.557  34.268  20.644 -0.1821  0.1330 -0.1098
13693W        W56606  27.499  25.227  29.428 -0.0041  0.0618 -0.0815
13694W        W56607  30.189  33.495  23.633  0.1534 -0.0333 -0.1300
13695W        W56608  28.043   7.474  22.340  0.1215 -0.0932  0.0393
13696W        W56609  31.631   6.430  23.759  0.2500 -0.0849  0.0733
13697W        W56610  11.894  34.421  16.818 -0.0044  0.3972  0.2470
13698W        W56611  14.454  29.951  16.847  0.0029 -0.0741  0.0162
13699W        W56612  12.959  33.085  22.725  0.1381 -0.0999 -0.3088
13700W        W56613  23.978   5.356  14.281  0.1535  0.1291 -0.3282
13701W        W56614  26.864  27.130  23.236  0.2499  0.0101  0.0771
13702W        W56615  26.912   0.788   9.364  0.0299  0.3743 -0.0712
13703W        W56616  22.630  27.565  25.629  0.0496 -0.1367  0.2241
13704W        W56617  23.371  30.875  13.497  0.2504 -0.0838 -0.1291
13705W        W56618  24.881   1.831  15.233  0.0141  0.0923  0.1223
13706W        W56619  33.338  29.363  24.754  0.0056  0.1465 -0.2493
13707W        W56620  11.316  28.954  20.886 -0.1024 -0.0219 -0.0790
13708W        W56621  13.967   1.874  18.170 -0.0914 -0.0663 -0.2489
13709W        W56622  19.964   2.573  18.173 -0.2896  0.1330 -0.0848
13710W        W56623   0.929   2.519  21.600  0.0145  0.0192 -0.1839
13711W        W56624   9.224  30.124  21.127  0.0273  0.0895  0.0459
13712W        W56625  16.020  32.187  29.294  0.0034 -0.3918 -0.1300
13713W        W56626  28.021   0.558  23.679  0.2676 -0.0427 -0.0108
13714W        W56627  27.387  29.812  27.523  0.2166 -0.1078 -0.3848
13715W        W56628  30.303   8.342  17.738  0.4070  0.1007 -0.1334
13716W        W56629  23.828  26.911  16.064  0.1481  0.0135  0.1439
13717W        W56630  19.820  23.598  15.357 -0.1093 -0.0602 -0.0215
13718W        W56631   2.280   8.979  19.783 -0.1236 -0.1666 -0.4160
13719W        W56632  30.489  31.944  25.444 -0.0219 -0.1047  0.0636
13720W        W56633  32.621  26.071  27.304  0.1248 -0.0146 -0.1754
13721W        W56634  20.481  32.854  28.063  0.0492  0.0798  0.1021
13722W        W56635  28.971   5.225  15.131 -0.3052 -0.3479 -0.0972
13723W        W56636  14.757  32.880  16.167  0.0043 -0.0074 -0.0738
13724W        W56637  25.725   1.000  24.716 -0.2082 -0.0340  0.2393
13725W        W56638  24.221   7.104  15.299 -0.0710 -0.1267 -0.1940
13726W        W56639  32.215  34.403  24.209 -0.0203 -0.3628 -0.2812
13727W        W56640  18.706  33.446  23.432  0.4721 -0.3488  0.0303
13728W        W56641  31.568  33.226  14.871  0.1588  0.2552 -0.2113
13729W        W56642  27.025  26.400  13.129 -0.1296 -0.0165  0.0108
13730W        W56643  17.902   4.787   1.679  0.3243 -0.2754 -0.1337
13731W        W56644  18.184  26.267  14.774  0.0585 -0.3019 -0.0700
13732W        W56645  23.664   7.835  17.123  0.1118  0.3238  0.3371
13733W        W56646  24.044  27.791   0.332  0.2305  0.2301  0.3161
13734W        W56647  25.812  33.829  19.327 -0.0266 -0.0755 -0.3033
13735W        W56648  24.091  33.266  18.933 -0.0392 -0.1680  0.2264
13736W        W56649  23.854  14.036  13.613 -0.2579 -0.0311  0.1141
13737W        W56650  16.103   8.552  25.092  0.2324  0.0450  0.1171
13738W        W56651  30.239  32.349  25.748  0.1850  0.1416  0.2298
13739W        W56652  31.021   3.535  24.101  0.0928  0.2081 -0.2279
13740W        W56653  18.788   1.369  17.887 -0.2787 -0.0436  0.2312
13741W        W56654  26.509   0.044  15.854  0.1682 -0.1674 -0.2376
13742W        W56655  25.942  21.899  12.972  0.0282  0.0822 -0.2061
13743W        W56656  20.436  29.492  23.159 -0.1463 -0.0235  0.1333
13744W        W56657  24.022  29.444  26.833 -0.0769 -0.1199  0.0803
13745W        W56658  14.294   1.925   0.121 -0.2087 -0.0969  0.0758
13746W        W56659  13.298   2.791  25.903  0.0121 -0.0240  0.0269
13747W        W56660  24.456  24.266  20.716  0.3463  0.0879 -0.1235
13748W        W56661  21.195   2.200  17.724 -0.0956  0.1925 -0.1964
13749W        W56662  20.645  23.225  27.531  0.2775 -0.0926 -0.4606
13750W        W56663  15.798   2.831  16.274  0.1723  0.2028 -0.3853
13751W        W56664  23.771  32.146  13.207 -0.2192 -0.0952  0.0469
13752W        W56665  23.970  14.501  25.621  0.2645 -0.2188  0.0420
13753W        W56666  26.865   2.267  16.492  0.1542 -0.1553 -0.1207
13754W        W56667  19.764  31.001  18.103 -0.0006 -0.1450  0.1082
13755W        W56668  22.520  33.748  18.174 -0.2218  0.1071 -0.1341
13756W        W56669  32.143  24.127  20.867  0.2004  0.0605  0.1893
13757W        W56670  28.344  28.489  26.660  0.0728  0.0187  0.1247
13758W        W56671  21.099  27.799   5.015  0.2333 -0.2076 -0.2183
13759W        W56672  25.835  23.836  24.028  0.0316 -0.1961  0.1778
13760W        W56673  20.989   7.186  16.047 -0.0375 -0.3652  0.2639
13761W        W56674  19.374  21.185  21.204  0.3329 -0.3529 -0.2801
13762W        W56675  26.461  25.200  26.240 -0.1991 -0.1651 -0.1912
13763W        W56676  19.285  32.821  25.430 -0.2900 -0.1239  0.3921
13764W        W56677  24.377  25.569  13.117  0.1787 -0.1024  0.0597
13765W        W56678  21.899   2.225  12.926  0.1279  0.2776 -0.1317
13766W        W56679  29.213  26.065  27.771  0.1195 -0.0464 -0.1384
13767W        W56680  23.699   6.014  19.752  0.0127  0.1558  0.1978
13768W        W56681  19.241  24.540  21.143  0.0644  0.4013  0.0659
13769W        W56682   2.181   2.212  17.830 -0.1472 -0.0810  0.1156
13770W        W56683  17.392  32.642  24.068 -0.0241  0.0645  0.2363
13771W        W56684  20.882  27.152  13.829 -0.1602  0.2888 -0.0116
13772W        W56685  29.588   0.602  14.624  0.1861  0.1565  0.1669
13773W        W56686  20.987  33.937  17.903  0.1139 -0.2907 -0.1718
13774W        W56687  25.480  30.095  16.413 -0.3550 -0.1005  0.3811
13775W        W56688  22.337   0.740  15.635 -0.3148 -0.0978  0.1582
13776W        W56689  33.447   2.113  23.985  0.2467 -0.0667  0.0565
13777W        W56690   0.052  20.544  15.862 -0.1427  0.0914  0.0855
13778W        W56691  20.857   3.190   0.713 -0.0457 -0.0979 -0.0130
13779W        W56692  12.189   0.082   1.079 -0.1682 -0.3667  0.1772
13780W        W56693  30.955  10.659  18.756 -0.2044  0.0151  0.0330
13781W        W56694   4.468   2.151  18.375 -0.2701  0.1132  0.0680
13782W        W56695  21.081   5.765  24.369  0.0847  0.2546 -0.1979
13783W        W56696  25.018  34.261  28.545  0.2926 -0.1190  0.0256
13784W        W56697  13.985   6.963  19.037  0.0152 -0.2523 -0.0667
13785W        W56698   9.304  10.381  22.872 -0.1229  0.0654  0.1926
13786W        W56699  24.902   3.561  17.435  0.0370  0.0564  0.0383
13787W        W56700  17.822  30.803  16.680  0.2521  0.0458  0.0107
13788W        W56701  22.951   1.874  13.887 -0.0714  0.0559 -0.0647
13789W        W56702  26.422   2.944  24.638 -0.2759  0.1701 -0.0422
13790W        W56703  19.897  29.672  29.223 -0.0022  0.0548  0.1949
13791W        W56704   7.769  24.290  24.233  0.0522 -0.0778  0.0092
13792W        W56705  25.331  24.883  17.896 -0.3477  0.1891  0.3922
13793W        W56706  32.002   0.012  20.524  0.3795  0.0329 -0.3508
13794W        W56707  17.158  31.267  16.024 -0.0866 -0.2460 -0.0432
13795W        W56708  27.323  29.985  14.482 -0.1039 -0.0142 -0.1382
13796W        W56709  25.016  33.107  23.371  0.3316  0.2797  0.2446
13797W        W56710  19.302  28.445  26.294 -0.0013 -0.1713 -0.2657
13798W        W56711  23.954   1.696  18.215 -0.0772 -0.1601  0.1914
13799W        W56712   4.485  31.734  17.838 -0.0338  0.0245  0.1744
13800W        W56713  15.815   0.045  28.161 -0.0273 -0.2424 -0.1919
13801W        W56714  15.078  32.907  18.961  0.2077  0.0100 -0.1928
13802W        W56715  21.163   0.180  15.309 -0.2242 -0.1870 -0.0612
13803W        W56716  27.014  10.116  28.804  0.0943 -0.2052  0.1392
13804W        W56717  22.300   2.998  19.642 -0.1130  0.2002 -0.2424
13805W        W56718  32.820   6.806  17.472  0.0003  0.2608 -0.1363
13806W        W56719  33.967  25.597  17.450 -0.0171 -0.1313 -0.0850
13807W        W56720  25.714   1.819  14.254  0.3187 -0.1267 -0.1734
13808W        W56721  22.781  29.812  15.843 -0.0258  0.3020  0.0357
13809W        W56722  22.420   7.661  14.625 -0.0631  0.1787 -0.1719
13810W        W56723  30.386  14.472  17.782  0.0202  0.4377 -0.0212
13811W        W56724  32.943  27.376  17.360 -0.1488 -0.0783 -0.1156
13812W        W56725  21.745   8.416  15.395 -0.0909  0.0078  0.0005
13813W        W56726  21.863  27.280  17.022 -0.2351  0.1764  0.0100
13814W        W56727  21.592  23.642  19.547  0.1088  0.2310  0.0463
13815W        W56728  29.962  27.021  22.952 -0.0729 -0.2340  0.0980
13816W        W56729  24.034   2.954  28.897 -0.0874 -0.1503  0.0929
13817W        W56730  24.971   6.526  24.354  0.1305  0.0099 -0.0830
13818W        W56731  16.745   0.521  18.005  0.2813 -0.3602  0.2756
13819W        W56732  31.579  28.063  26.238 -0.2961  0.1275  0.0882
13820W        W56733  19.750  23.157  16.168  0.1032  0.1241  0.0371
13821W        W56734  27.382  32.447  16.291 -0.2664 -0.0749  0.1043
13822W        W56735  11.118  27.816  19.206 -0.0850  0.0869 -0.1074
13823W        W56736  31.756  28.271  22.253  0.1865 -0.1253 -0.0172
13824W        W56737  18.796   1.124  20.012  0.0790  0.1320  0.5212
13825W        W56738  22.064  33.776  16.930  0.0830 -0.0511 -0.0406
13826W        W56739  17.688  27.598  26.744 -0.2514 -0.0169  0.0148
13827W        W56740  13.667  31.878  22.740  0.1066 -0.0446 -0.1709
13828W        W56741  32.495  32.299  16.560 -0.2913 -0.3147 -0.2712
13829W        W56742   2.608   2.512  22.358 -0.0217 -0.3951  0.1947
13830W        W56743  18.896   1.994  24.443  0.1972 -0.3711  0.1178
13831W        W56744  20.937  34.140  25.638 -0.3615 -0.0725 -0.1344
13832W        W56745  20.622   5.557  29.022 -0.0479 -0.1107 -0.0475
13833W        W56746  21.831  30.114  14.258  0.0027 -0.0556 -0.0305
13834W        W56747  20.505  31.654  18.658  0.0864  0.0209  0.0176
13835W        W56748  24.668  11.093  25.965  0.2323 -0.0027  0.1873
13836W        W56749  25.247   3.495  14.822  0.1896 -0.0880 -0.1055
13837W        W56750  27.463  31.491  24.556  0.1260  0.0495 -0.2049
13838W        W56751  20.166  32.383  15.893  0.2603  0.7183 -0.0557
13839W        W56752   2.835   0.410  26.979 -0.0439 -0.3418 -0.0089
13840W        W56753  10.870  31.308  28.349  0.1189  0.2051 -0.0579
13841W        W56754  23.222  14.231  15.943  0.0656  0.1895 -0.0983
13842W        W56755  18.665  31.790  21.820 -0.0784  0.2264  0.0761
13843W        W56756  14.281  32.543  22.796 -0.0261 -0.3055  0.2690
13844W        W56757  24.462  27.352  20.842 -0.1646 -0.0133 -0.1482
13845W        W56758  10.678   0.389  28.553  0.2865  0.0058 -0.3166
13846W        W56759  27.298   3.264  19.238 -0.0064 -0.2422 -0.2826
13847W        W56760  17.496  25.623  20.863  0.0104  0.0920  0.1098
13848W        W56761  19.033   6.128  27.479 -0.2995  0.0979 -0.0115
13849W        W56762  34.252  30.944  27.782  0.1048 -0.0463 -0.1834
13850W        W56763  24.692   3.590  16.952  0.0697  0.1747  0.1255
13851W        W56764  22.707  26.523  19.444 -0.1164  0.2894  0.0545
13852W        W56765  20.008  28.302  18.299  0.0537 -0.2290  0.1644
13853W        W56766  15.524  30.605   5.253  0.0370  0.0524  0.0976
13854W        W56767  11.937  23.388  16.334  0.0203  0.1101 -0.1544
13855W        W56768  23.213  26.806  25.167  0.0179  0.3587 -0.3971
13856W        W56769  21.954   5.340   0.757 -0.0711  0.1439 -0.0277
13857W        W56770  19.287   9.293  25.244  0.1620  0.0401  0.1955
13858W        W56771  30.827   8.220  20.057  0.2319 -0.1318 -0.1352
13859W        W56772  14.173   0.736  22.126  0.0301 -0.0477  0.2669
13860W        W56773  28.196  32.304  14.694  0.1632  0.2341  0.1728
13861W        W56774  25.170  31.591  15.830 -0.1512 -0.1029 -0.0740
13862W        W56775  31.654   2.807  18.441 -0.0970 -0.1751 -0.0135
13863W        W56776  27.275  30.892  19.114 -0.1708 -0.3127  0.1730
13864W        W56777  17.921   0.589  19.371  0.2259 -0.0244  0.0905
13865W        W56778  21.939   0.047  14.588 -0.0052 -0.1959  0.1183
13866W        W56779  18.568  31.592  26.081 -0.3502 -0.0683  0.0014
13867W        W56780  33.430  33.792  28.094 -0.5101  0.3260 -0.1075
13868W        W56781  12.808  33.657  23.367  0.0200 -0.1338 -0.3023
13869W        W56782  31.875   3.264  26.276  0.0819  0.4339  0.2403
13870W        W56783  25.748  33.233  16.722 -0.0285 -0.2935 -0.3453
13871W        W56784  30.915   7.729  22.236  0.1353  0.0752 -0.0943
13872W        W56785  17.831   8.433  14.957 -0.1082  0.0442 -0.4112
13873W        W56786  18.136  29.535  21.765  0.0776 -0.2615  0.0121
13874W        W56787  25.569   5.281  21.896 -0.1973 -0.0955 -0.0725
13875W        W56788  18.297  29.884  23.734 -0.1907 -0.0148 -0.0246
13876W        W56789  21.459  31.352  27.799 -0.3033  0.4174 -0.0068
13877W        W56790  20.272  31.854  21.244 -0.0967 -0.1412 -0.2543
13878W        W56791  22.914   5.788  22.664  0.2502  0.0972 -0.1288
13879W        W56792  30.718  33.081  23.992  0.1753 -0.0109  0.2196
13880W        W56793  28.242   8.091  27.551 -0.1704 -0.2082  0.0527
13881W        W56794  27.916   7.483  16.358  0.1522 -0.0803 -0.2743
13882W        W56795  16.448  30.424  19.053 -0.2835 -0.0848  0.4535
13883W        W56796  31.595   2.191  26.866 -0.1248  0.1177  0.1162
13884W        W56797  27.273  27.346  16.327  0.2456 -0.0725 -0.2217
13885W        W56798  15.058  31.356   0.057 -0.0805 -0.1165 -0.0128
13886W        W56799  27.339  23.125  16.726 -0.0494  0.1238  0.0380
13887W        W56800  22.142  34.126  18.283 -0.0883  0.1302  0.0544
13888W        W56801  29.246  34.239  25.805 -0.0761  0.1332  0.1670
13889W        W56802  32.746  10.799  28.691 -0.0570  0.0881  0.1375
13890W        W56803  20.741  25.463  20.723 -0.1237 -0.0213  0.3262
13891W        W56804  21.943  32.593  20.892  0.1143  0.0380 -0.0521
13892W        W56805  31.419  34.051  18.809 -0.0963  0.0291 -0.2375
13893W        W56806  30.221  31.556  15.450 -0.1195 -0.2465  0.0709
13894W        W56807  24.738  10.868   0.166  0.1032  0.1061 -0.0149
13895W        W56808  28.268  29.688   0.298  0.1421  0.0712 -0.0103
13896W        W56809  27.257  31.946  14.090  0.2748 -0.2344  0.0842
13897W        W56810  25.258  30.372  27.395 -0.1561 -0.0972  0.0269
13898W        W56811  20.100  26.795  29.377  0.2907  0.2337  0.0115
13899W        W56812  25.923  31.217  19.792 -0.0602 -0.1653 -0.1092
13900W        W56813  26.896   4.874  14.219  0.1702  0.0164  0.3535
13901W        W56814   4.242  23.326  15.011  0.2539  0.1724  0.0006
13902W        W56815  24.957  12.161   9.190  0.0930 -0.0027 -0.0522
13903W        W56816  30.321  32.089   2.346 -0.2815 -0.2533 -0.2639
13904W        W56817  27.225  30.007  18.551  0.0302 -0.3070 -0.0489
13905W        W56818  16.136  30.031  16.912 -0.0499 -0.3363  0.2313
13906W        W56819  29.210  33.079  19.504 -0.4038 -0.2606 -0.0987
13907W        W56820  26.091  13.121  26.843 -0.2467  0.2787  0.1785
13908W        W56821  17.942   5.194  16.931 -0.2959  0.1316  0.0533
13909W        W56822  22.522   5.714  17.253 -0.0437 -0.1354  0.0533
13910W        W56823  16.562  32.203  21.751 -0.1209  0.1787 -0.0370
13911W        W56824  13.741  22.364  20.638 -0.2819  0.0504  0.2666
13912W        W56825   5.441  31.948   0.237  0.0902  0.1297 -0.4049
13913W        W56826  20.029   5.876  29.655 -0.1492  0.1660 -0.1341
13914W        W56827  20.857  30.398  20.913 -0.0401 -0.4425  0.0297
13915W        W56828  20.184   4.119  28.384  0.0117 -0.3205  0.0515
13916W        W56829  20.539  31.788  22.094 -0.1793 -0.1043  0.3096
13917W        W56830  11.169  22.730  25.626 -0.3436  0.0080  0.2971
13918W        W56831  23.464  28.218  27.999  0.0216  0.1094 -0.0818
13919W        W56832  30.936  25.028  15.964 -0.0080  0.1393  0.0523
13920W        W56833  21.327  10.774  17.322  0.1278 -0.0282 -0.2299
13921W        W56834  18.930  26.719  15.991  0.1993  0.1382  0.0720
13922W        W56835  28.208   4.515  26.078  0.0135 -0.0918  0.1124
13923W        W56836  29.023  27.678  26.738  0.3892  0.0536  0.2157
13924W        W56837  33.709  28.536  28.124  0.0271  0.1027 -0.1140
13925W        W56838  31.342  28.220  20.122 -0.0409 -0.1540 -0.2638
13926W        W56839   7.697  31.498   2.686  0.0831  0.0649  0.3831
13927W        W56840  30.629   6.293   0.842 -0.2209 -0.2428 -0.1829
13928W        W56841  23.639  22.569  29.021  0.1095 -0.0262  0.2907
13929W        W56842  22.700  31.620   0.005  0.2190  0.1697  0.1658
13930W        W56843  19.798  31.731  20.997 -0.1429 -0.0996  0.1227
13931W        W56844  25.027   6.150  15.885 -0.0361  0.0698 -0.0653
13932W        W56845  24.266   0.213  27.570 -0.2436  0.3176 -0.0014
13933W        W56846  30.707   5.263   1.674  0.2992  0.4028 -0.2079
13934W        W56847  29.219  30.678  18.670  0.0858 -0.2117  0.0422
13935W        W56848  28.034   5.114   2.937  0.1849  0.1949 -0.0871
13936W        W56849  19.578   3.056  28.234  0.1097  0.1599 -0.1140
13937W        W56850  15.623  28.869  23.970 -0.1057 -0.4282 -0.1444
13938W        W56851  31.704  33.065  20.966 -0.0582 -0.2883  0.1531
13939W        W56852   4.490  26.473  26.046 -0.0227  0.3104 -0.3821
13940W        W56853  27.124  28.436  16.177  0.1996 -0.1003 -0.0765
13941W        W56854  29.347  23.579  15.416  0.2013 -0.1090  0.2688
13942W        W56855  30.095   4.914  21.673  0.0802  0.0234  0.0473
13943W        W56856  15.675   6.063  14.541  0.2011  0.1900  0.0699
13944W        W56857  33.943   5.821  21.685 -0.0332 -0.3051 -0.4326
13945W        W56858  32.625  11.450  23.500  0.1132 -0.0336  0.0160
13946W        W56859  22.520  30.166  27.369  0.3651  0.2507 -0.1612
13947W        W56860  29.441  33.387  24.126 -0.0183 -0.2774 -0.0385
13948W        W56861  27.822  28.260  23.812  0.1095  0.1616  0.1373
13949W        W56862  29.001   0.209   3.462  0.0480 -0.0006 -0.0667
13950W        W56863  20.922  31.801  17.813 -0.4203 -0.4837 -0.3057
13951W        W56864  27.034   1.167   8.411  0.0722  0.0757 -0.0393
13952W        W56865  28.629   6.426  21.094 -0.0880 -0.2912  0.1516
13953W        W56866  34.123  20.954  24.824  0.0738  0.0905 -0.1574
13954W        W56867  14.959  23.968  19.931 -0.2556  0.0013  0.5220
13955W        W56868  23.682  11.988  20.581  0.2427  0.2695 -0.0090
13956W        W56869  20.501  30.316  23.909 -0.1432 -0.1144 -0.0033
13957W        W56870   1.640   0.304   1.133 -0.1159  0.1695  0.2820
13958W        W56871  15.450  13.520  21.843  0.0477  0.0085  0.1648
13959W        W56872  19.097   5.497   6.858  0.0527  0.2388  0.0439
13960W        W56873  14.425   6.776   4.352 -0.0652  0.0385 -0.0287
13961W        W56874  29.666  21.987  16.024 -0.1623 -0.1645  0.2046
13962W        W56875  25.825   1.596  18.390 -0.2089 -0.1984 -0.0205
13963W        W56876  27.025   0.652  15.419 -0.2513  0.2097  0.1919
13964W        W56877  24.994  29.530  28.263  0.2569 -0.1414 -0.0879
13965W        W56878  15.030  26.881   4.065 -0.1267  0.1680 -0.1099
13966W        W56879  31.132  33.148   0.504  0.0498 -0.1222  0.0132
13967W        W56880  28.884  33.505   1.509 -0.0503 -0.1180  0.1230
13968W        W56881  27.672  33.085  18.482  0.4202 -0.1161  0.0183
13969W        W56882  12.353  31.261   0.371 -0.0923  0.2498  0.1825
13970W        W56883  31.441  26.976  26.118 -0.3212  0.1688  0.1506
13971W        W56884  20.703  29.196  17.054  0.0353 -0.0293  0.1857
13972W        W56885  27.500   2.266  17.058  0.0242  0.0351  0.1263
13973W        W56886  24.363   2.166  15.515 -0.0062 -0.0628  0.0084
13974W        W56887  22.323  28.923  21.410  0.0777 -0.1052 -0.2091
13975W        W56888  21.930   2.244  22.692 -0.3218 -0.3306  0.0557
13976W        W56889  28.469   5.301   2.588 -0.0534 -0.1062 -0.4322
13977W        W56890  19.346  26.595  20.218 -0.0235 -0.0856 -0.2302
13978W        W56891   1.805  29.605  18.897  0.0494 -0.0432  0.0999
13979W        W56892  29.889  24.202  17.349  0.1318  0.0983 -0.0084
13980W        W56893  26.242  33.062  15.978 -0.1103 -0.0845 -0.2173
13981W        W56894  21.459   1.236  29.046 -0.1549  0.4416 -0.1600
13982W        W56895  27.414  28.728  28.370 -0.1757 -0.0264 -0.3205
13983W        W56896  14.694  26.031  22.270 -0.1328  0.0198  0.2685
13984W        W56897  22.332   2.650  17.287 -0.3396  0.0247 -0.0067
13985W        W56898  21.799   3.260  26.652  0.2239  0.2704 -0.2943
13986W        W56899  28.061  34.003  16.126  0.3486 -0.1834  0.1411
13987W        W56900  30.645   5.252   2.606  0.2125  0.1541  0.1651
13988W        W56901  27.994   1.720  27.081 -0.1136 -0.1428  0.0832
13989W        W56902  29.015  22.100  27.491 -0.0083  0.1557  0.0909
13990W        W56903  17.215  30.336  21.812  0.1173  0.2396 -0.1249
13991W        W56904  31.443   1.091  26.686  0.0012 -0.0623 -0.2011
13992W        W56905  25.506  33.540  29.083  0.1083  0.2671  0.0858
13993W        W56906  28.750  25.930  27.882  0.1495  0.1546 -0.0497
13994W        W56907  23.631   2.713  28.922  0.0736 -0.0798 -0.0366
13995W        W56908  19.953   1.505  17.497  0.1400  0.3169 -0.1885
13996W        W56909  21.224   0.019  16.771 -0.1294  0.0961  0.1246
13997W        W56910  23.318  29.198  20.035  0.1601  0.0123 -0.0229
13998W        W56911  24.102   4.767  23.775  0.3959 -0.1066 -0.0859
13999W        W56912  27.656  33.653   2.918 -0.1710 -0.2651  0.1070
14000W        W56913  22.785   9.739  15.908 -0.1256  0.0991 -0.2213
14001W        W56914  20.586  30.354  20.305 -0.0852  0.1164  0.0546
14002W        W56915  26.559  33.362  21.002  0.2335  0.1693  0.0967
14003W        W56916  26.810  30.653   0.922  0.4741 -0.0356  0.2191
14004W        W56917  31.270  31.450  24.610 -0.1581  0.4379  0.0455
14005W        W56918  21.838   2.064  18.623 -0.1126 -0.2891 -0.1717
14006W        W56919  25.803   6.883  29.516 -0.0391 -0.0186 -0.0613
14007W        W56920  19.497   1.119  21.058 -0.0217  0.0256  0.0673
14008W        W56921  27.756  30.062  27.211  0.1062  0.0938  0.0716
14009W        W56922  26.672  33.619  16.597  0.0430 -0.2788 -0.1660
14010W        W56923   2.236  29.844   3.179 -0.1004  0.2386  0.1473
14011W        W56924  16.803  25.535   1.801  0.0763 -0.0724 -0.0661
14012W        W56925  24.419  28.292  27.430 -0.3137 -0.1404 -0.1456
14013W        W56926  21.089  30.420  19.159  0.0403 -0.0947  0.0683
14014W        W56927  11.186   2.146  19.483 -0.0692 -0.4446 -0.0071
14015W        W56928  10.337  31.806  26.348 -0.1028 -0.2215  0.0143
14016W        W56929  30.586   3.063  26.536  0.3249  0.3123  0.2407
14017W        W56930   2.811  25.867  25.632 -0.3121  0.4010 -0.1390
14018W        W56931   4.868  32.766   3.019 -0.2915 -0.2821 -0.1557
14019W        W56932  26.215  27.318  22.983 -0.0078 -0.2626  0.0310
14020W        W56933  20.383  32.269  23.467  0.1204  0.0500  0.4697
14021W        W56934  22.134  32.700  23.357 -0.1108  0.1457 -0.1047
14022W        W56935  28.726   4.117  28.093 -0.0582 -0.0470 -0.0101
14023W        W56936  19.619  29.218   3.771  0.0807 -0.0809 -0.1225
14024W        W56937  21.480   2.923  27.326 -0.1813  0.0202 -0.0852
14025W        W56938  26.473   8.541  26.741 -0.0256  0.0064  0.2280
14026W        W56939  22.415   1.246  14.134 -0.1691 -0.0974  0.0691
14027W        W56940  20.688  18.482  20.510 -0.0864  0.2820 -0.2141
14028W        W56941  23.867  24.080  27.438 -0.4643  0.1142 -0.0529
14029W        W56942  18.060  25.020  22.494  0.1023 -0.0479 -0.2679
14030W        W56943  19.609   0.832  17.526 -0.1519 -0.3709 -0.1197
14031W        W56944  25.322   6.656  17.583 -0.3210 -0.0750  0.3416
14032W        W56945  29.646  33.288  18.282  0.1814  0.0526  0.3254
14033W        W56946  27.937  26.552  23.985  0.0104  0.2355  0.0453
14034W        W56947  32.387  32.920  23.026  0.0838 -0.0278 -0.3170
14035W        W56948  29.414  31.629  27.437  0.2164 -0.2081  0.2427
14036W        W56949  16.253  33.240  23.266 -0.4401 -0.2777  0.0539
14037W        W56950  10.539  25.388   2.357 -0.1137  0.0674  0.2798
14038W        W56951  19.970   0.558  28.161 -0.0631 -0.4462 -0.1709
14039W        W56952  19.714   3.875  29.222 -0.2027  0.1498 -0.1519
14040W        W56953  26.484  30.818  25.095 -0.0760 -0.0845  0.1937
14041W        W56954  18.217  24.495   0.089  0.1722 -0.3139  0.3350
14042W        W56955  12.034  13.837  19.549 -0.2278 -0.0394  0.2561
14043W        W56956  11.024   3.078  21.556 -0.1516 -0.1287  0.0768
14044W        W56957   1.992  22.427  28.685 -0.0910  0.1120 -0.0979
14045W        W56958  25.042   6.955  15.773  0.0220 -0.1845 -0.2279
14046W        W56959  30.057  32.760  22.028  0.2508  0.1623 -0.2991
14047W        W56960  24.922  26.923  19.115 -0.2838  0.0795  0.2996
14048W        W56961   9.136   0.365   1.486  0.0008 -0.0443  0.1158
14049W        W56962  21.140  33.604  28.186 -0.0277  0.2330  0.0418
14050W        W56963   9.851  32.772  17.128  0.2484 -0.0969  0.1291
14051W        W56964  27.762  25.281   6.557  0.1345  0.0516  0.0691
14052W        W56965  22.089   6.498  26.936 -0.0769 -0.2826  0.0312
14053W        W56966  18.543  32.588  21.902 -0.0567  0.1609  0.1993
14054W        W56967  24.494   5.869  21.280 -0.1426 -0.0543 -0.2875
14055W        W56968  26.012   2.481  16.315 -0.1309 -0.1928 -0.0129
14056W        W56969  23.743   3.102  17.708 -0.1845  0.2624 -0.2059
14057W        W56970  21.593  29.813  24.547 -0.0011  0.1852 -0.1542
14058W        W56971  26.740   8.781  15.219 -0.1017  0.2521 -0.1740
14059W        W56972  32.763   3.429  28.105 -0.1690 -0.0667  0.0243
14060W        W56973  11.198  27.948   2.139  0.2247 -0.0691 -0.0278
14061W        W56974  23.405  20.971  23.732 -0.1939  0.0099  0.2350
14062W        W56975  24.798   0.626   7.824  0.0368  0.2724  0.3756
14063W        W56976  29.161  12.270  22.143  0.2174 -0.3094 -0.1092
14064W        W56977   0.440   0.427  15.687  0.0621 -0.0350 -0.1828
14065W        W56978  24.637   0.809  25.308 -0.0966  0.0756  0.2672
14066W        W56979  31.115  27.344  24.955  0.1988 -0.1265 -0.1540
14067W        W56980  19.220  19.326  22.627 -0.3276 -0.1546  0.0184
14068W        W56981  28.646  24.378   0.034  0.0939 -0.0986 -0.0158
14069W        W56982  30.365  33.544  20.193 -0.2370 -0.3388  0.3494
14070W        W56983  16.204  31.190   1.249  0.0638  0.0662  0.0064
14071W        W56984  24.994   6.691  22.315 -0.2865 -0.1975  0.2403
14072W        W56985  18.855  31.930  23.982  0.0793  0.0297  0.0755
14073W        W56986  23.578  30.581  28.594  0.0417  0.3838  0.2343
14074W        W56987  19.491  27.312  25.911 -0.0966 -0.1763 -0.0673
14075W        W56988  19.656  30.871  26.766  0.1256  0.1218  0.0722
14076W        W56989  31.360  30.629  26.738  0.1175 -0.1825  0.0138
14077W        W56990  20.020  26.330   3.272  0.0565 -0.3042  0.0949
14078W        W56991  23.092  28.500  20.389 -0.0475  0.0354  0.2602
14079W        W56992   0.677  12.005  22.670  0.1268  0.0364 -0.0529
14080W        W56993  25.660  27.444  18.591 -0.0075  0.1481  0.0524
14081W        W56994  26.938  28.910  16.303  0.2703 -0.0995 -0.0837
14082W        W56995  18.582  25.340  20.157  0.0466  0.1265 -0.0792
14083W        W56996  31.686  13.428   3.512  0.0413 -0.0492  0.0282
14084W        W56997  26.636  33.291  23.988  0.0291 -0.0127 -0.1017
14085W        W56998  24.727  31.877  22.808 -0.0970 -0.1938 -0.0921
14086W        W56999  27.386   6.201  14.532  0.2264  0.1064 -0.0402
14087W        W57000  25.036   0.291   0.079 -0.2440 -0.0059 -0.0033
14088W        W57001  12.501  24.212  25.449 -0.0691 -0.0505  0.0630
14089W        W57002  18.602  33.235   2.123  0.0821 -0.0402 -0.0899
14090W        W57003  15.438  33.314  18.588  0.0749  0.0777  0.0732
14091W        W57004  28.883  33.680  19.073 -0.2131  0.1088  0.0199
14092W        W57005  24.562   3.098  19.548  0.1586  0.0567  0.4335
14093W        W57006  26.519  33.538  23.471  0.1069  0.2844 -0.0845
14094W        W57007  32.350  24.628  17.327 -0.2708 -0.2826 -0.0519
14095W        W57008  28.544  28.625  26.007 -0.0659 -0.1085  0.0837
14096W        W57009  22.190   4.641  15.256 -0.1407  0.2983 -0.0169
14097W        W57010  18.223  29.962  27.606  0.2327  0.4065  0.3082
14098W        W57011  22.549   0.657  18.389 -0.1317 -0.0646 -0.1362
14099W        W57012  26.309  31.716  16.599  0.2261  0.0091 -0.4452
14100W        W57013  10.184  24.000  28.308  0.3146  0.2318  0.1028
14101W        W57014  23.042   8.865  25.865  0.1516  0.0606  0.0755
14102W        W57015  15.952   2.070  20.173 -0.0553  0.2989 -0.0561
14103W        W57016  21.911   0.458   1.381  0.1686  0.0602 -0.3979
14104W        W57017  26.558   1.981   0.274 -0.0790  0.0246 -0.1897
14105W        W57018  22.187  18.086  25.955  0.0119 -0.2477 -0.2727
14106W        W57019  26.719  30.738  26.036  0.0363  0.0061 -0.0029
14107W        W57020  17.082  30.805   2.678  0.0721 -0.1553 -0.0462
14108W        W57021  24.203  29.512  17.079  0.1633  0.0804  0.1385
14109W        W57022   2.025   9.751   3.872  0.2620 -0.0554 -0.0866
14110W        W57023  14.790   1.918  28.686  0.0210  0.2657 -0.1004
14111W        W57024  17.280  12.800  21.682  0.2530  0.2341  0.2406
14112W        W57025  17.955   3.829  18.196 -0.0818 -0.2689  0.1183
14113W        W57026  23.265  33.153  28.728 -0.3410 -0.3689 -0.1893
14114W        W57027  33.028  18.439  21.237  0.1085  0.0069 -0.0368
14115W        W57028  13.339  25.163  14.009  0.1048 -0.0623 -0.1153
14116W        W57029   0.838  34.144  17.593 -0.0598  0.3294  0.0655
14117W        W57030  12.759  14.751  20.372  0.0133  0.1815  0.2379
14118W        W57031  25.829  34.276  29.716 -0.1155 -0.0535 -0.3291
14119W        W57032  23.229  29.928   0.530  0.1499  0.0041 -0.0859
14120W        W57033  31.526  19.994   5.161  0.0093 -0.0360  0.1813
14121W        W57034  21.057   1.228   2.294 -0.1755  0.1470 -0.2174
14122W        W57035  26.721  33.254  10.286 -0.2185  0.0691 -0.1243
14123W        W57036  17.801   2.802  26.950 -0.3231 -0.0688 -0.1843
14124W        W57037  20.646  27.968  21.111  0.0986 -0.0297 -0.0647
14125W        W57038  21.686  27.550   1.996  0.2254 -0.3188 -0.1391
14126W        W57039  30.774  33.289  25.375  0.1944 -0.2936  0.1108
14127W        W57040  14.609  32.431  25.749  0.2776  0.0763 -0.1827
14128W        W57041  20.812   1.626   2.223 -0.0464 -0.2031  0.1428
14129W        W57042  29.920   8.291   0.111  0.0788 -0.1988  0.0311
14130W        W57043  25.128  24.307   4.608 -0.0638 -0.0709 -0.1163
14131W        W57044  30.063  15.174   1.485  0.3289  0.1928  0.0287
14132W        W57045  22.021  20.522   0.422 -0.1750  0.3828 -0.1279
14133W        W57046  27.975   1.626  23.578 -0.2771  0.0935  0.0655
14134W        W57047  33.788   4.543   6.550  0.3001  0.0572 -0.0186
14135W        W57048  32.512  27.010  24.669  0.0926 -0.2055 -0.2215
14136W        W57049  17.302  13.561  24.551  0.0271  0.0987  0.3631
14137W        W57050  21.358   1.344  25.719  0.2519  0.2196  0.0181
14138W        W57051  25.625   0.545  20.900  0.1492  0.0346  0.3130
14139W        W57052  25.772  33.388   7.576 -0.0031  0.3100  0.1392
14140W        W57053  33.359  33.904  28.585 -0.2917 -0.0115  0.2828
14141W        W57054  18.846  31.500  28.952  0.0675  0.5357  0.0970
14142W        W57055  21.144  30.521  21.676  0.3124  0.0253  0.0496
14143W        W57056   1.495  28.491  29.229 -0.1432 -0.0882 -0.0071
14144W        W57057  21.004   0.150  22.338  0.3582  0.1308 -0.3755
14145W        W57058  10.340  31.043  23.029  0.1566  0.0703  0.1216
14146W        W57059  26.113   9.466  26.631  0.2740  0.0419 -0.1330
14147W        W57060  27.137   7.941  23.461  0.1668  0.2755  0.1342
14148W        W57061  30.096   9.285  27.862  0.1283  0.1833 -0.0186
14149W        W57062  22.031   5.946  28.512 -0.2347 -0.3564 -0.2256
14150W        W57063  23.748  33.120   0.096  0.2517 -0.1414  0.1678
14151W        W57064  26.857  14.059   2.685 -0.1410 -0.0523  0.1026
14152W        W57065  31.582  26.868   1.133  0.0247  0.2553  0.1138
14153W        W57066  23.259   2.522  27.406 -0.2822  0.1695 -0.1580
14154W        W57067  26.271   5.553   9.007 -0.2092  0.1667 -0.0120
14155W        W57068  18.845   5.747  20.036 -0.1231  0.6051 -0.0272
14156W        W57069  21.801  32.290   6.273 -0.3103 -0.1387  0.4076
14157W        W57070  30.607  14.629   1.468 -0.0540 -0.1724  0.1975
14158W        W57071  17.786   1.605   9.662  0.0614 -0.0623 -0.2258
14159W        W57072  24.174  17.174  27.383  0.1253 -0.1122 -0.0495
14160W        W57073  18.081  31.856  19.268 -0.1193 -0.1363  0.0998
14161W        W57074  24.161   5.169   0.285  0.0302 -0.0918  0.0641
14162W        W57075  25.654   6.074   5.179  0.1777 -0.0051  0.2850
14163W        W57076  14.512  12.417  28.120 -0.2704  0.0616 -0.1105
14164W        W57077  20.508  22.539  20.956  0.0751  0.3284  0.1122
14165W        W57078  25.710  30.821   5.892  0.1217  0.2947 -0.0508
14166W        W57079  32.592   5.443   0.786  0.2361  0.0294  0.2275
14167W        W57080  23.303  33.169   0.258  0.0378 -0.1785  0.0225
14168W        W57081  21.918  29.121   0.472  0.1495 -0.0169  0.2295
14169W        W57082  24.989  26.351  22.680  0.2620 -0.0075 -0.0509
14170W        W57083  17.939   4.801  25.589  0.1962 -0.0209 -0.3040
14171W        W57084  18.918  25.071  28.461 -0.0078 -0.1461  0.0104
14172W        W57085  23.734  13.272  29.118  0.2074 -0.2901  0.1305
14173W        W57086  12.911   4.372   0.574  0.2867 -0.1374  0.1686
14174W        W57087   6.162   5.212   2.211  0.1781 -0.0680  0.2409
14175W        W57088  24.552   2.572  28.851  0.2144  0.1808 -0.0622
14176W        W57089  20.288   7.090  24.585 -0.1235  0.0966 -0.1989
14177W        W57090  26.469  22.826   6.644 -0.0606 -0.1601 -0.1793
14178W        W57091  23.994   6.147   2.742 -0.3284  0.0070  0.1708
14179W        W57092  22.829  32.687  26.621  0.3737 -0.0677  0.0456
14180W        W57093  26.539  31.328  19.066  0.0880 -0.0619 -0.1657
14181W        W57094  20.464  23.787  24.040 -0.1108 -0.2005 -0.1101
14182W        W57095  21.651   7.668   1.089  0.1789 -0.2158 -0.1031
14183W        W57096  25.458  32.785  17.942 -0.0924  0.0746 -0.2045
14184W        W57097  19.628  27.110   0.721  0.0023  0.1621  0.1695
14185W        W57098   3.376  31.470   3.411  0.0102  0.2641  0.0734
14186W        W57099  18.533  27.814  26.697 -0.0036  0.2811  0.1430
14187W        W57100  32.694   1.779  11.207 -0.0444  0.0326  0.1814
14188W        W57101  14.938  32.089   1.870  0.2535 -0.2129 -0.0236
14189W        W57102  17.096   4.872  26.994 -0.0794 -0.3234 -0.0543
14190W        W57103  18.308   6.678  27.713  0.0393  0.0581  0.1809
14191W        W57104  32.011   4.956  21.095 -0.1106  0.0069 -0.0783
14192W        W57105  29.427  20.133  23.570 -0.0889 -0.0616  0.0114
14193W        W57106  30.341   1.480   0.397 -0.0699  0.1357 -0.0938
14194W        W57107  20.095  33.967  25.353  0.3791 -0.2365 -0.1102
14195W        W57108  16.074   7.242   1.191 -0.1885 -0.2581  0.0738
14196W        W57109  27.371  33.098   5.468 -0.0016  0.0214  0.1994
14197W        W57110  17.829  34.077  24.683  0.0490 -0.0380 -0.1237
14198W        W57111  16.576  29.251  29.460 -0.1081 -0.0994 -0.3882
14199W        W57112  31.300  27.407  23.384 -0.1503  0.1014 -0.0359
14200W        W57113  18.448   0.322  22.100 -0.3802 -0.2413 -0.0427
14201W        W57114  24.828   5.553   9.207 -0.1029  0.1263  0.4792
14202W        W57115  31.606  34.027  29.392 -0.0517 -0.1876 -0.0710
14203W        W57116  28.043   9.450   2.239  0.0567  0.0516 -0.0168
14204W        W57117  27.608  32.126   5.336  0.0880  0.0814 -0.0701
14205W        W57118  24.887  31.919   8.313 -0.1044 -0.0483 -0.0702
14206W        W57119  27.001   0.696  27.640  0.2102  0.2217  0.0457
14207W        W57120  20.530   3.259  25.090 -0.0615  0.4134  0.2199
14208W        W57121  31.503  29.555  24.851  0.2605  0.0577 -0.0117
14209W        W57122  19.184  31.989  25.567  0.0358  0.0009  0.1057
14210W        W57123  16.158  31.894  28.320  0.0502  0.1289  0.2163
14211W        W57124  22.922  31.159   5.837  0.2442 -0.1430 -0.2041
14212W        W57125  21.192   8.780   0.460  0.0037 -0.0240 -0.1451
14213W        W57126   8.374  30.902  23.186 -0.2137 -0.2555 -0.0473
14214W        W57127  22.851  29.325   3.866 -0.3797  0.2277 -0.0594
14215W        W57128  14.472  25.957  24.888 -0.1236 -0.5999  0.2311
14216W        W57129  26.443  34.051   4.699  0.1982  0.0983 -0.1786
14217W        W57130  19.074  32.823   3.470 -0.2690 -0.4206 -0.3856
14218W        W57131   3.357  27.689  27.243 -0.0860  0.2860 -0.0105
14219W        W57132  26.845  28.084   2.506  0.1361  0.0742  0.0920
14220W        W57133  23.889  29.928  27.536 -0.0227 -0.1890 -0.0520
14221W        W57134  23.164  29.671  20.322 -0.0293 -0.1548 -0.4169
14222W        W57135  23.182  28.118   1.808  0.0344  0.3543 -0.2032
14223W        W57136   3.501   9.658   6.720 -0.0766 -0.2695 -0.3242
14224W        W57137  17.929  30.749   1.090 -0.4962 -0.0499 -0.2380
14225W        W57138  15.482  10.871  29.725  0.0441  0.2348 -0.0683
14226W        W57139  31.011   4.489  23.697  0.0083  0.0366  0.0136
14227W        W57140  32.895  29.364  26.723  0.1242 -0.0415  0.0015
14228W        W57141  21.652  33.427  17.634 -0.5374 -0.0341  0.0763
14229W        W57142  22.301   6.026  27.004  0.2112  0.0925 -0.1051
14230W        W57143  31.226  32.566  29.333  0.2049 -0.0372 -0.3039
14231W        W57144  30.808  29.833  21.245  0.2574  0.0535  0.0432
14232W        W57145  25.849  32.394  21.851  0.0040  0.3092 -0.0113
14233W        W57146  22.723  34.321  23.788  0.1114 -0.1517 -0.0741
14234W        W57147  15.733  33.221  24.630 -0.0157  0.3712  0.0765
14235W        W57148  17.195  28.392  25.350  0.0999 -0.0078  0.1548
14236W        W57149  19.220  22.530  24.302  0.1408  0.0468  0.2024
14237W        W57150  21.574   4.016  26.035 -0.1739  0.1394  0.1347
14238W        W57151  17.877   4.918   7.892  0.1180 -0.2280 -0.0096
14239W        W57152  28.984   1.118   2.541 -0.0560 -0.1292  0.2294
14240W        W57153  26.543   3.448  22.019  0.1350  0.0428 -0.1486
14241W        W57154  22.724   4.713   4.555  0.3152  0.0275 -0.0649
14242W        W57155  33.963  27.911  15.644  0.0097  0.1985 -0.1549
14243W        W57156  29.478   1.065   0.814  0.1934  0.0523  0.1120
14244W        W57157  13.198  29.310  20.540  0.0598  0.2746  0.0571
14245W        W57158  28.915   0.240  26.351  0.2660  0.0609 -0.3799
14246W        W57159  25.294   0.694   0.307  0.0244  0.0289  0.1645
14247W        W57160  29.219   9.663   2.237 -0.0509  0.3248 -0.0924
14248W        W57161  23.422   5.857  29.317 -0.0368 -0.1430  0.1558
14249W        W57162  24.853   1.540  25.890 -0.2159  0.0902 -0.1118
14250W        W57163  17.925   3.667  24.492 -0.3798 -0.1618  0.0138
14251W        W57164  25.909   3.275  28.419  0.1065 -0.0446 -0.0541
14252W        W57165  25.858   3.466  29.259 -0.0661 -0.1958 -0.0254
14253W        W57166  24.829  30.551  28.277 -0.0136 -0.1553 -0.2526
14254W        W57167  33.516   5.538  10.963  0.0243  0.0483 -0.3399
14255W        W57168  25.810  33.114   0.615 -0.0203  0.1132  0.0112
14256W        W57169  30.507   6.949   5.996  0.2327  0.0186  0.1438
14257W        W57170  20.655   3.402  16.060 -0.1478  0.0130 -0.3387
14258W        W57171  30.084  28.624   4.061  0.0619 -0.1057  0.1706
14259W        W57172  26.181   1.576   0.444 -0.1839  0.0005 -0.2024
14260W        W57173  22.576   3.545  27.801  0.0055  0.0233  0.1269
14261W        W57174  19.341   3.837  21.201  0.0495 -0.3195 -0.0240
14262W        W57175  26.452   3.123  27.652 -0.1259  0.1236 -0.3416
14263W        W57176  25.661   1.322  25.998 -0.0745  0.0667  0.0043
14264W        W57177  25.565  33.355   5.254 -0.2273  0.4212 -0.1854
14265W        W57178  27.666   0.346   6.845  0.1469  0.0734  0.4334
14266W        W57179  25.952   3.432  19.139 -0.0501  0.0624 -0.1613
14267W        W57180  19.536  28.929   2.767 -0.1653 -0.1777  0.1651
14268W        W57181  23.800  32.146   7.344  0.0112 -0.0333 -0.0035
14269W        W57182  19.694  28.322  28.543  0.2043 -0.1088  0.2244
14270W        W57183  20.475   2.586  15.594  0.2245  0.0127  0.0170
14271W        W57184  31.678  28.115  17.810 -0.0216  0.0259 -0.0913
14272W        W57185  16.796  33.289   0.760  0.2300 -0.3092  0.1552
14273W        W57186  21.212   7.466  14.800 -0.1641  0.1949 -0.4165
14274W        W57187  23.458  30.153  21.791  0.0169 -0.0265  0.0750
14275W        W57188  23.762   0.247   7.136  0.0653  0.0009 -0.0879
14276W        W57189  28.331   0.142  21.164 -0.3147  0.1909  0.0140
14277W        W57190  22.500   4.687  26.983 -0.3321 -0.2362  0.1856
14278W        W57191  27.800   2.760  20.033 -0.0749  0.0088  0.0676
14279W        W57192  19.443   0.855  23.307 -0.0027 -0.2363  0.0596
14280W        W57193  23.218  30.918  20.471 -0.4264 -0.0600 -0.3259
14281W        W57194  11.010   2.953  17.379 -0.1825  0.1678 -0.3794
14282W        W57195  32.209   6.088  24.198  0.2683  0.3332 -0.0244
14283W        W57196   7.445   3.924  23.657  0.0732 -0.0084 -0.2401
14284W        W57197  21.643   3.902  28.686 -0.0177 -0.1673 -0.1170
14285W        W57198   0.202   2.556  20.578 -0.2992  0.5322 -0.0061
14286W        W57199  13.645  26.211  27.505  0.2439 -0.2438  0.2691
14287W        W57200  18.305   5.627   2.332 -0.2752 -0.4073 -0.2363
14288W        W57201  17.948  20.855   0.740  0.0903 -0.1025  0.2498
14289W        W57202  21.460  27.631  17.307  0.0909 -0.2910 -0.1153
14290W        W57203  14.868  33.794  20.782  0.0679 -0.2484 -0.1768
14291W        W57204  28.701   1.992  17.117 -0.0115  0.1914  0.1119
14292W        W57205  12.882  23.006   0.173  0.0530  0.0776  0.0291
14293W        W57206  21.551  33.434   5.803  0.1851 -0.1469  0.2721
14294W        W57207  30.452  33.954  18.282 -0.2248  0.2306  0.2051
14295W        W57208  10.369  24.176  26.060 -0.0695  0.2948 -0.1677
14296W        W57209  20.208   2.228  28.503  0.0031 -0.0585 -0.2323
14297W        W57210  12.159  33.127   4.675  0.0545 -0.1567  0.1360
14298W        W57211   0.181  32.327   8.722  0.1409  0.2879  0.0215
14299W        W57212  23.914  24.682  22.379  0.1358 -0.4294 -0.0602
14300W        W57213   1.297  33.845   4.798  0.0811  0.3076 -0.1506
14301W        W57214  28.937  33.609  25.416 -0.0965 -0.1726 -0.0711
14302W        W57215  19.171   0.346   1.051  0.2715 -0.0569 -0.0869
14303W        W57216  26.117  32.509   4.156 -0.0123  0.2394  0.0120
14304W        W57217  18.002   4.064  21.915 -0.1522  0.1353 -0.1197
14305W        W57218   6.092  28.701  26.832  0.0763 -0.2536  0.2511
14306W        W57219  22.175  32.337  22.922  0.0313  0.1568 -0.0421
14307W        W57220  17.469  10.902  22.969 -0.0744 -0.0290  0.0679
14308W        W57221  27.961   9.878   2.554  0.2469 -0.1726 -0.2800
14309W        W57222  27.664   4.518   1.661  0.2201  0.1173 -0.2130
14310W        W57223  20.660   5.471   0.673 -0.3021  0.1678 -0.1071
14311W        W57224  30.513  26.441   0.415  0.0512  0.1237 -0.0995
14312W        W57225  17.994  34.073  23.360  0.0553 -0.0795  0.1877
14313W        W57226  18.302  10.082  26.113 -0.0048 -0.4451 -0.0826
14314W        W57227  25.613  34.367   1.780 -0.0316 -0.1318 -0.1530
14315W        W57228  29.640   5.058  28.046 -0.0619 -0.1026 -0.0697
14316W        W57229  27.008  21.020  23.022 -0.1462  0.2083 -0.0696
14317W        W57230  16.932   0.382  29.472  0.0355  0.1725 -0.0793
14318W        W57231  25.990  20.564   0.937  0.2078  0.1066  0.0045
14319W        W57232  22.556   2.958   1.583 -0.0554 -0.0091 -0.3096
14320W        W57233  32.738   4.551  23.447 -0.3833  0.1510 -0.0580
14321W        W57234  10.228  33.518   5.346 -0.2019 -0.1177 -0.0387
14322W        W57235  23.385  32.788  26.628 -0.0351 -0.0197 -0.0106
14323W        W57236  28.641  31.073   5.422  0.2947 -0.0989 -0.1238
14324W        W57237   8.812  24.384   3.830 -0.1828  0.2642 -0.1562
14325W        W57238  17.838  31.080   4.878  0.2286  0.2263  0.1001
14326W        W57239  25.759   6.658  27.434  0.1798  0.0537  0.1177
14327W        W57240  26.494  34.039  24.284  0.0603 -0.1494 -0.0227
14328W        W57241  27.696  32.216  20.485  0.1148  0.3316 -0.0061
14329W        W57242  16.826  18.426   2.154  0.2525  0.0203 -0.0555
14330W        W57243  15.257   6.850  29.431 -0.3174 -0.2721 -0.0061
14331W        W57244  22.486  23.643   0.840  0.1405  0.2441 -0.1875
14332W        W57245  19.210   5.042   0.278 -0.0562  0.1453  0.3192
14333W        W57246  15.401   2.344  29.183 -0.0551 -0.0703  0.1100
14334W        W57247  30.583   8.395  27.133  0.0386 -0.1295  0.2718
14335W        W57248   0.988   1.523  17.997 -0.1064  0.0909 -0.2561
14336W        W57249  19.404   4.165   6.947 -0.1570 -0.1500 -0.0330
14337W        W57250  26.403   7.715   2.038  0.1293 -0.1523  0.0295
14338W        W57251  16.381   1.349  29.457 -0.1697 -0.0841 -0.2376
14339W        W57252  26.588  34.135  24.898 -0.2386  0.3362  0.2162
14340W        W57253   4.542  30.756   1.569  0.0960  0.3146  0.1369
14341W        W57254  23.536  28.760   2.196  0.1055  0.1749 -0.2719
14342W        W57255  29.778   1.873   8.316  0.1748  0.0534 -0.0359
14343W        W57256  22.979  30.157  27.616  0.0475  0.0509 -0.0112
14344W        W57257  29.323  33.597  27.302 -0.0583  0.1330  0.2611
14345W        W57258  21.396   2.635  25.617  0.0629 -0.1216 -0.0735
14346W        W57259  17.437  34.277   3.895 -0.0883 -0.2623  0.0201
14347W        W57260  23.771   0.448   3.165 -0.1673  0.2991  0.0206
14348W        W57261  30.769   7.006  11.378 -0.1111 -0.0665 -0.0678
14349W        W57262  33.391  24.762  29.118 -0.0059 -0.1397 -0.3510
14350W        W57263   8.798   8.403   0.497  0.0763  0.0742  0.0355
14351W        W57264  19.516   6.554  24.431 -0.2033  0.0261  0.0285
14352W        W57265  31.181   1.206  22.710  0.0790  0.0084  0.0273
14353W        W57266  29.209   2.013  14.958  0.1915 -0.0475 -0.1875
14354W        W57267   2.426   2.615  21.882  0.0053 -0.0246  0.1460
14355W        W57268  31.818   3.463  21.374 -0.1031  0.0200 -0.0283
14356W        W57269  34.040  12.683  19.686 -0.1735 -0.0295  0.4145
14357W        W57270  22.451  31.206  14.315  0.4730  0.1343 -0.1138
14358W        W57271   0.106  13.081  17.078  0.1358  0.0184 -0.1462
14359W        W57272   2.613  29.784  18.130 -0.0427  0.1750 -0.1137
14360W        W57273   0.449   6.050  15.975 -0.3430 -0.1788 -0.3215
14361W        W57274  17.715  30.860  19.686  0.0585 -0.2334  0.1604
14362W        W57275   0.465   6.185  19.625 -0.0462 -0.2112  0.2003
14363W        W57276  31.643   3.283  19.821 -0.0903  0.2125  0.0238
14364W        W57277  31.836  33.389  15.896 -0.1407 -0.1558 -0.2561
14365W        W57278  20.976  32.832  14.467  0.1333  0.0902  0.0086
14366W        W57279  30.884   1.367  17.073 -0.1495  0.0969 -0.4045
14367W        W57280  20.209  33.533  27.210 -0.0624  0.2884  0.0018
14368W        W57281  26.837  11.743  17.126  0.2437 -0.2432  0.0555
14369W        W57282   1.815  26.526  14.079  0.0986 -0.1220  0.0504
14370W        W57283  21.528   2.215  19.644 -0.0658  0.0402  0.1193
14371W        W57284  24.606  27.780  24.231 -0.0893 -0.0692 -0.0758
14372W        W57285  30.233   9.402  18.598  0.3534  0.0922 -0.1933
14373W        W57286  25.269   7.858  16.744  0.2717 -0.0571 -0.1287
14374W        W57287  32.819   5.298  16.637 -0.1038 -0.1233 -0.2122
14375W        W57288  26.270  29.684  23.312  0.2179  0.1435  0.1853
14376W        W57289  24.949   1.784  16.028  0.0141 -0.0246 -0.0606
14377W        W57290  30.211  14.286  23.461 -0.1598 -0.2628 -0.0111
14378W        W57291  20.589  28.974  27.826 -0.0039 -0.0490  0.0746
14379W        W57292  30.162   1.072  22.096  0.1045 -0.0422  0.0588
14380W        W57293  25.181  32.542  22.661 -0.1127 -0.0346  0.3472
14381W        W57294  22.410   5.073  18.168 -0.0203 -0.0049 -0.2816
14382W        W57295  22.307   2.951  17.836  0.3460  0.1850  0.0512
14383W        W57296  30.176   3.429   3.897  0.2259  0.0552  0.1682
14384W        W57297  25.253   2.097  23.628 -0.0470  0.0386 -0.3404
14385W        W57298  31.438   1.113  15.904  0.2035  0.1380  0.2649
14386W        W57299  26.028  32.179  22.305  0.2063  0.0368  0.0634
14387W        W57300  24.384   2.434   0.633 -0.2662 -0.1330  0.1006
14388W        W57301  20.718   7.526  14.880  0.0132  0.1251  0.0575
14389W        W57302  19.692   7.985  27.446 -0.0766  0.0731  0.2512
14390W        W57303  26.950   1.892  18.270  0.1607 -0.0391  0.0908
14391W        W57304  31.390   3.545  24.967 -0.0549  0.0388 -0.2595
14392W        W57305  15.542   1.535  19.865 -0.1740 -0.2765  0.0136
14393W        W57306  23.649   2.523  18.649 -0.2310  0.0227  0.0016
14394W        W57307  28.170   0.940  26.774 -0.0639 -0.1411  0.2159
14395W        W57308  26.927   5.167  20.741 -0.3925 -0.1760 -0.0290
14396W        W57309  29.492  32.080  16.756 -0.0943  0.0865  0.1259
14397W        W57310  28.247  32.253  22.254 -0.0701  0.2281 -0.1901
14398W        W57311  31.064   7.496  26.405 -0.1229  0.0035  0.3867
14399W        W57312  28.203  32.784  22.183 -0.1064  0.1896 -0.0270
14400W        W57313  30.572  31.578  20.953  0.1723 -0.4140  0.2438
14401W        W57314  24.773   4.373  13.743 -0.0550 -0.1745  0.0104
14402W        W57315  24.929   7.189  27.628  0.2168  0.1161 -0.0188
14403W        W57316  30.886  29.696  17.415 -0.3073  0.2075 -0.2029
14404W        W57317  29.744   2.547  18.012  0.0619  0.0915 -0.1935
14405W        W57318  31.357   4.936  24.463 -0.2393  0.6855  0.4250
14406W        W57319  27.380   0.660  16.626 -0.3668  0.1378 -0.2073
14407W        W57320  25.091   5.492  17.054  0.0190 -0.0789  0.2361
14408W        W57321  27.592   4.557  18.389 -0.2801 -0.3182 -0.1354
14409W        W57322  18.521   6.562  15.125  0.0243  0.1980  0.2140
14410W        W57323  28.020   0.070  23.545  0.2862  0.0736 -0.1476
14411W        W57324  25.295  34.451  13.411  0.1370 -0.1141 -0.1924
14412W        W57325  22.900   9.597  24.112 -0.3157 -0.3704  0.0115
14413W        W57326  14.383  19.515  15.612 -0.0275  0.4200  0.0462
14414W        W57327  13.635  10.067  13.670  0.2534 -0.0171 -0.0421
14415W        W57328  30.558   4.885  18.160 -0.0406  0.0942  0.1410
14416W        W57329  29.450  30.833  23.899  0.0185 -0.1031  0.1593
14417W        W57330  25.212   4.129  23.838 -0.2205  0.0643 -0.0236
14418W        W57331  28.144  29.783  14.314  0.2360  0.2235  0.2003
14419W        W57332  22.644   3.659  15.225  0.0810  0.1598  0.2151
14420W        W57333  28.645   1.114  22.930  0.1962 -0.3413  0.0780
14421W        W57334  28.119   4.447  14.363  0.0249  0.0791 -0.1876
14422W        W57335  26.603   4.416  23.732  0.3319  0.1567  0.2715
14423W        W57336   3.286   5.553  20.064  0.0315 -0.1005 -0.0940
14424W        W57337  27.793   0.015  18.801 -0.2030  0.0369  0.0118
14425W        W57338  19.837   7.011  18.439  0.2836 -0.0765  0.0449
14426W        W57339  31.547   5.065  23.075 -0.1869 -0.1500  0.0603
14427W        W57340  29.180   6.355  18.377 -0.1425 -0.0491 -0.2240
14428W        W57341  30.071  24.477  14.809  0.0372  0.1043 -0.3115
14429W        W57342  23.128  17.972  21.946 -0.0716 -0.2349 -0.0619
14430W        W57343  31.047  12.451  15.045 -0.0415 -0.1527  0.0810
14431W        W57344  31.599  22.743  13.608 -0.0586  0.0631  0.1825
14432W        W57345  21.038  28.250  17.158 -0.1024 -0.0272 -0.1269
14433W        W57346  27.818   8.349  22.791 -0.0965 -0.1275  0.3033
14434W        W57347  31.739  25.414  22.983  0.0708  0.0449  0.0444
14435W        W57348  21.260   3.482  22.426  0.0043  0.0883  0.2207
14436W        W57349  21.190  10.919  20.894  0.1684  0.1464  0.2543
14437W        W57350  26.750   3.948  19.874 -0.1937  0.1678 -0.3657
14438W        W57351  31.630  34.313  16.880 -0.0393  0.0951 -0.1530
14439W        W57352  30.405  32.370  16.683  0.2612  0.0042  0.2407
14440W        W57353  29.146   5.836  18.626 -0.1166  0.2171 -0.0023
14441W        W57354  28.262  21.808  16.763 -0.1931 -0.1662 -0.0283
14442W        W57355  20.644   6.568   2.979 -0.4187  0.0548 -0.0211
14443W        W57356  29.417   8.619  28.709  0.2006  0.1347  0.1147
14444W        W57357  26.921  30.796  16.164 -0.1581  0.0218  0.1520
14445W        W57358  32.764   6.112  15.795  0.0207 -0.0356 -0.1336
14446W        W57359  27.912  31.780  15.944  0.0710 -0.0100 -0.1705
14447W        W57360  28.241   8.326  17.074 -0.1114  0.2346  0.0125
14448W        W57361  27.145  31.985  14.943 -0.2030  0.2057 -0.2610
14449W        W57362  29.943  33.565  27.021 -0.3122  0.1401 -0.3776
14450W        W57363  26.062  33.489  19.745 -0.1718  0.2570  0.0259
14451W        W57364  34.453   0.532  24.275 -0.1435  0.4822  0.0439
14452W        W57365  25.625  34.480  19.848 -0.1935 -0.1126 -0.0093
14453W        W57366  22.991   2.684  24.381  0.1664 -0.0791  0.1172
14454W        W57367  26.743  26.326  22.103 -0.1515  0.1505  0.3324
14455W        W57368  32.327  30.012  28.772  0.2772  0.3096 -0.0457
14456W        W57369  26.820   5.428  19.341 -0.1219 -0.2158  0.2182
14457W        W57370  30.208   1.375  15.994 -0.0611  0.1888 -0.0842
14458W        W57371  23.915  17.434  13.944  0.1432 -0.3492  0.2142
14459W        W57372  24.241  30.454  13.312 -0.1675 -0.1994 -0.2630
14460W        W57373  24.782   1.066  17.392 -0.0133 -0.0174 -0.1259
14461W        W57374  27.858   1.050  16.006  0.1175  0.1622  0.5456
14462W        W57375  25.448   3.045  14.847 -0.3653  0.0838  0.1930
14463W        W57376  25.051   7.440  15.523 -0.2596 -0.3896  0.0187
14464W        W57377  30.883  20.027  23.238  0.1733  0.0972 -0.1123
14465W        W57378  24.000  26.893  20.828  0.0800 -0.1312 -0.0992
14466W        W57379  20.864   7.614  14.423 -0.2715 -0.0331 -0.1948
14467W        W57380  26.224  34.048  20.161 -0.0930 -0.0038  0.0285
14468W        W57381  28.527  29.314  19.942  0.0028  0.1806  0.3769
14469W        W57382  26.184   4.744  21.298  0.4122  0.1304  0.0216
14470W        W57383  25.706   7.319  15.109 -0.0843 -0.2271 -0.1289
14471W        W57384  22.959  10.199  13.657 -0.0178  0.0681 -0.5168
14472W        W57385   4.013   0.305  17.642 -0.1801 -0.0151 -0.0286
14473W        W57386  19.463   5.224  14.376  0.0084 -0.0684  0.0987
14474W        W57387  33.780  30.500  27.039 -0.0177  0.2287 -0.0680
14475W        W57388  17.767  34.326  16.487 -0.5456  0.1526 -0.0098
14476W        W57389   0.063  32.759  19.849  0.1243  0.0150  0.1869
14477W        W57390  31.709  29.618  18.974  0.0619  0.1233 -0.0431
14478W        W57391  23.845   4.318  14.567 -0.0922 -0.0493  0.0942
14479W        W57392  23.761  34.201  24.118  0.0591 -0.1796  0.1300
14480W        W57393  24.330   0.911  21.412 -0.1948  0.5720  0.1565
14481W        W57394  28.232  31.262  24.794 -0.1693 -0.3216  0.2298
14482W        W57395  31.819   1.081  16.818  0.1786 -0.2214  0.2693
14483W        W57396  33.072  29.011  20.635  0.0559 -0.3526 -0.1134
14484W        W57397  25.527   1.594  19.948 -0.1132  0.2218 -0.2358
14485W        W57398  27.168   6.579  17.797  0.0405 -0.1083  0.0321
14486W        W57399  23.870  31.297  27.050 -0.1114 -0.0719 -0.6154
14487W        W57400  25.876   1.409  14.699 -0.2682 -0.1079 -0.2276
14488W        W57401  22.092   1.133  21.090 -0.1402 -0.0581 -0.0698
14489W        W57402  25.942  34.051  28.476 -0.3197 -0.0331 -0.3091
14490W        W57403  27.057  17.502  12.706  0.1609  0.2386 -0.0460
14491W        W57404  23.864  32.891  24.783 -0.0783 -0.4978  0.2504
14492W        W57405  23.395  20.867  21.932  0.0879  0.2162  0.0390
14493W        W57406  27.407   3.726  22.334 -0.0369 -0.1953  0.0207
14494W        W57407  30.429   0.995  28.673  0.6306 -0.3157 -0.1429
14495W        W57408  27.697   4.294  15.170 -0.3509  0.1307 -0.0801
14496W        W57409  30.751   5.321  22.089  0.2137 -0.1929  0.2191
14497W        W57410  28.862   2.038  15.797 -0.1352 -0.0853 -0.1581
14498W        W57411  27.309   0.169  16.377 -0.1542  0.3124  0.0688
14499W        W57412  26.544   4.440  16.813 -0.2272 -0.1266  0.0883
14500W        W57413  18.331   9.832   1.089 -0.1457  0.0415 -0.0564
14501W        W57414  29.107   6.695  25.784 -0.4528 -0.0601 -0.0515
14502W        W57415  17.513  32.778  21.841  0.1365  0.2914 -0.0575
14503W        W57416  22.994  26.743  15.669  0.2226  0.0827  0.0933
14504W        W57417  21.831   0.706  18.391 -0.5584  0.0703  0.3280
14505W        W57418  24.403  10.919  15.220 -0.1899  0.0429 -0.1966
14506W        W57419  25.247  24.071  17.027 -0.3864 -0.1249 -0.0054
14507W        W57420  24.722  27.789  20.762 -0.1614  0.1801  0.0742
14508W        W57421   0.222   3.600  29.309  0.0820  0.0470  0.2341
14509W        W57422  15.960   8.461  22.345 -0.0021 -0.3172  0.1523
14510W        W57423  32.551   1.344  24.393 -0.0202  0.0320  0.0099
14511W        W57424  20.931   7.703  15.749  0.0185  0.3027  0.1807
14512W        W57425  25.401  31.510  24.487  0.1406  0.0304 -0.1660
14513W        W57426  21.505  34.195   6.338 -0.0505 -0.0286 -0.0029
14514W        W57427  27.984   5.199  16.489 -0.1495  0.1415  0.0013
14515W        W57428  18.487   5.156  24.079 -0.0610  0.1057  0.1528
14516W        W57429  19.409  24.228  14.393 -0.0294  0.0126 -0.0074
14517W        W57430  24.720   3.660  22.373  0.1147 -0.0215 -0.0615
14518W        W57431  33.979  15.912  15.018  0.1698 -0.3439 -0.0587
14519W        W57432  23.241  32.281  14.512  0.2683 -0.2195  0.2502
14520W        W57433  28.421  32.967  17.881  0.0839 -0.0964 -0.0153
14521W        W57434  28.328   7.211  26.169 -0.2764  0.1601 -0.0289
14522W        W57435  32.345  27.847   0.107  0.2061  0.0229 -0.2286
14523W        W57436  31.232  33.899  22.028  0.0450  0.0197 -0.0472
14524W        W57437  27.711  28.430  15.124 -0.0271 -0.0007  0.0778
14525W        W57438  20.344   1.746  14.913  0.0471  0.1426 -0.5995
14526W        W57439  23.355  10.719  14.382 -0.0235  0.1937  0.0743
14527W        W57440   2.438  24.654  16.527 -0.0458 -0.1121  0.0034
14528W        W57441  27.300  28.827  15.514 -0.0362 -0.3675 -0.5122
14529W        W57442  19.318   0.682  19.242  0.1148 -0.1509  0.1257
14530W        W57443  28.688   0.531  19.097 -0.2592 -0.0443  0.1648
14531W        W57444  27.348   0.494  14.443  0.3437  0.2141 -0.1500
14532W        W57445  33.374   3.006  24.761  0.0006 -0.1862  0.0824
14533W        W57446   0.515   4.759  17.970  0.1050  0.0452 -0.3379
14534W        W57447  26.055  26.818  24.979  0.2885  0.0205 -0.3179
14535W        W57448   0.886  34.360  24.450 -0.1352 -0.2197  0.1321
14536W        W57449  17.302  27.212  15.655 -0.1679 -0.3684  0.0991
14537W        W57450  25.300   1.890  16.990 -0.1257  0.1611 -0.0943
14538W        W57451  24.545   2.525  23.887  0.0742 -0.1430 -0.0049
14539W        W57452  29.792  30.334  19.309 -0.1750 -0.0082 -0.0078
14540W        W57453  31.177  26.954  18.190 -0.1630  0.0938 -0.1912
14541W        W57454  28.124  12.459  17.065  0.2563  0.2234  0.0063
14542W        W57455  20.176   4.638  17.939  0.0389  0.0021 -0.0737
14543W        W57456  26.602  31.604  23.928  0.2966  0.2092  0.1372
14544W        W57457  28.754  29.318  16.616 -0.1523 -0.1131 -0.0774
14545W        W57458   0.237   7.901  23.079  0.1872  0.0418  0.1995
14546W        W57459  29.571   4.245  20.877  0.1452 -0.2639 -0.0392
14547W        W57460  27.471   6.467  16.259 -0.2486  0.1565 -0.1049
14548W        W57461  31.085  21.875  25.433 -0.1574  0.1383 -0.2513
14549W        W57462  27.479   1.973  17.598  0.2399 -0.0856 -0.2424
14550W        W57463   2.413  11.155  19.634 -0.2810  0.0835 -0.1870
14551W        W57464   0.044  25.603  18.191 -0.0052  0.2203  0.1330
14552W        W57465  28.174  32.607  17.654 -0.0936  0.0701  0.2198
14553W        W57466  23.493  29.956  18.150  0.0519  0.0737 -0.0355
14554W        W57467  29.729  29.558  26.268  0.1440 -0.0077 -0.0419
14555W        W57468  33.639  28.199  20.720 -0.2132 -0.0771  0.2765
14556W        W57469  22.516  28.108  25.605 -0.0385  0.0815 -0.0064
14557W        W57470  25.359   0.571  27.710 -0.1360  0.1316  0.1047
14558W        W57471  30.714  13.960  17.939  0.1243  0.3789  0.0510
14559W        W57472  28.784   7.241  19.824  0.0853 -0.4312  0.0388
14560W        W57473  28.637   1.901  21.481  0.0064  0.3436  0.0842
14561W        W57474  31.086  31.647  23.701 -0.1464  0.1306  0.0860
14562W        W57475  19.505  25.366   1.782  0.5545 -0.5735 -0.0477
14563W        W57476  24.816   2.677  22.751 -0.0487  0.4217 -0.3637
14564W        W57477  24.596   5.591  22.003  0.0744  0.3155  0.2414
14565W        W57478  24.444  28.842  24.471  0.0914  0.0283  0.0586
14566W        W57479   1.082  30.669  22.685  0.0525 -0.0088  0.0348
14567W        W57480   1.544  27.895  15.989  0.4943  0.2478 -0.0316
14568W        W57481  31.705   3.554  17.676 -0.0636 -0.1488  0.3814
14569W        W57482  30.505   1.181  14.719 -0.0353  0.4216 -0.3967
14570W        W57483  25.160   4.483  21.797 -0.0128  0.2463 -0.2130
14571W        W57484  21.606  24.130  19.565 -0.3621  0.0874 -0.2192
14572W        W57485  24.588   4.533  16.679  0.2126 -0.2034 -0.3241
14573W        W57486  33.539   8.124  24.119  0.0073  0.0581  0.0150
14574W        W57487   3.144  30.027  14.194  0.0883  0.0475 -0.0555
14575W        W57488  18.876   6.002   0.841 -0.0483 -0.0502  0.2406
14576W        W57489  22.796   7.073   1.961 -0.1384  0.2480 -0.1804
14577W        W57490  25.582  26.136  19.701 -0.0169 -0.2325  0.0463
14578W        W57491  29.058   3.619  17.885 -0.2000  0.1435 -0.1810
14579W        W57492  31.140   9.964  15.967 -0.1153  0.1746  0.0034
14580W        W57493   0.717  28.419  16.886 -0.3701 -0.2630 -0.3260
14581W        W57494  25.992   4.782  19.276  0.2170 -0.0073  0.0596
14582W        W57495  30.087   0.690  17.622  0.0079  0.1015 -0.3043
14583W        W57496   2.229  24.650  18.158  0.1899  0.1229 -0.0765
14584W        W57497  32.557   6.542  26.101  0.0826  0.0881  0.2945
14585W        W57498  25.117   5.074  18.951 -0.1109  0.3354  0.0424
14586W        W57499  30.280  30.726  21.538  0.0531  0.2613  0.0382
14587W        W57500  33.334  19.553  20.283  0.2568  0.0238 -0.0218
14588W        W57501  26.983   3.445  20.055 -0.1228  0.1417 -0.0234
14589W        W57502  26.723   1.540  15.193  0.0635  0.2753  0.0145
14590W        W57503  33.567  28.137  15.869 -0.1016  0.1864 -0.4269
14591W        W57504  28.413  28.153  28.444 -0.0122  0.2178 -0.0142
14592W        W57505  24.648   0.201  19.951 -0.2363 -0.0153 -0.1853
14593W        W57506  32.619  32.975  20.577 -0.1200 -0.1986 -0.0385
14594W        W57507  31.994  33.224  24.742 -0.3973  0.0035 -0.1419
14595W        W57508  17.224   6.964  20.718  0.3749 -0.3491  0.0262
14596W        W57509  31.770  28.285  17.061  0.1871  0.0896  0.0076
14597W        W57510  28.536   3.961  18.707 -0.1601  0.1392  0.0018
14598W        W57511  28.330   4.779  16.867 -0.2167 -0.0383  0.2609
14599W        W57512  26.454  10.028  21.875  0.0330 -0.0650 -0.1076
14600W        W57513  20.033   1.504  14.063 -0.0944 -0.3342 -0.2203
14601W        W57514  25.150   3.440  16.700 -0.0966 -0.1788  0.0483
14602W        W57515  25.484   2.573  15.043  0.3496 -0.1743  0.3972
14603W        W57516  28.898   6.821  22.576 -0.0846 -0.2299 -0.2284
14604W        W57517  24.760  13.569  19.490  0.1441  0.4890 -0.5354
14605W        W57518  25.960   1.722  15.088  0.2656  0.2460  0.1183
14606W        W57519  24.648  28.820  15.707 -0.0250 -0.0204 -0.0032
14607W        W57520   5.613  32.556  22.926 -0.1650 -0.1761 -0.2519
14608W        W57521  31.789   2.781  22.245 -0.1094  0.0061 -0.0780
14609W        W57522  31.754  33.028  27.275  0.0321 -0.0205  0.1089
14610W        W57523  29.626   9.128  17.925 -0.1854  0.0597  0.0874
14611W        W57524  21.512  20.395  23.573  0.2904  0.4364 -0.3707
14612W        W57525  22.051   3.175  17.486  0.0410  0.4125 -0.4022
14613W        W57526  28.704  32.183  16.098 -0.0357 -0.0689 -0.2152
14614W        W57527  27.440   7.068  23.774  0.1316 -0.3314  0.0884
14615W        W57528  20.755   1.439  19.676 -0.1028 -0.3451 -0.2860
14616W        W57529  27.661  33.307  26.027  0.1593 -0.1971 -0.1458
14617W        W57530  22.265  29.273   1.838 -0.1312 -0.0822  0.0716
14618W        W57531  29.236  29.415  21.679  0.0797  0.0344 -0.0305
14619W        W57532  22.720  24.601  20.440 -0.0378  0.1480 -0.0974
14620W        W57533  26.722   4.868  16.961  0.1727  0.1084  0.0504
14621W        W57534  26.340   7.653  15.764  0.0381  0.0467  0.0612
14622W        W57535  21.621  33.025  17.165 -0.1712 -0.0601 -0.0755
14623W        W57536  15.134  11.081  18.877 -0.3347 -0.3224 -0.2159
14624W        W57537  22.639   1.678  14.421 -0.1932 -0.1206 -0.0362
14625W        W57538  29.118  34.391  17.841  0.3103  0.0409 -0.1551
14626W        W57539  27.458  11.057  14.629  0.0433 -0.1739  0.1797
14627W        W57540  24.696   4.625  19.288 -0.0388  0.0061  0.0213
14628W        W57541  25.021   7.419  25.942 -0.1689 -0.0401  0.1746
14629W        W57542   0.942   4.294  17.247 -0.2581  0.0341  0.0270
14630W        W57543  26.382   5.867  16.804  0.0805 -0.1648  0.1786
14631W        W57544  14.105  13.963  13.838 -0.3096  0.1333 -0.0027
14632W        W57545  28.148  30.595  28.290  0.0589 -0.1408  0.2347
14633W        W57546  30.233   1.363  23.109  0.0988  0.1908  0.3097
14634W        W57547   4.710  14.888  22.488 -0.0424  0.1878 -0.2498
14635W        W57548   0.336  29.711  16.339  0.0198 -0.4230  0.2867
14636W        W57549  29.590   8.381   3.286 -0.3002 -0.2087 -0.1163
14637W        W57550  28.373   0.906  23.994 -0.2675 -0.0666  0.1729
14638W        W57551  28.244  27.772  17.794 -0.1043  0.1674  0.1888
14639W        W57552  29.612  11.111  18.415  0.4289 -0.1897 -0.2308
14640W        W57553  32.376  28.688  17.611  0.0086  0.6194 -0.0773
14641W        W57554   2.791   3.314  28.764 -0.1135 -0.1523  0.0942
14642W        W57555  27.445  32.062   0.182  0.2621 -0.4177  0.0889
14643W        W57556  33.291  28.655  19.394  0.1493 -0.3098  0.0799
14644W        W57557  25.307  26.830  13.446  0.0387 -0.0720 -0.0861
14645W        W57558  25.474  30.999  27.853 -0.0184  0.1554  0.0583
14646W        W57559  23.031  30.627  15.295 -0.0182  0.2156  0.0141
14647W        W57560   0.648  22.027  22.302 -0.0961  0.1950 -0.3207
14648W        W57561  26.280  15.864  25.814  0.1136  0.0475 -0.1077
14649W        W57562  25.967  12.310  21.285 -0.3778  0.1927 -0.2861
14650W        W57563  31.332   4.483  26.982 -0.1605  0.1358 -0.3103
14651W        W57564  28.779   2.258  28.696 -0.1072  0.4092  0.1928
14652W        W57565  28.018   5.926  15.740  0.0482 -0.1692  0.2086
14653W        W57566  32.143   2.904  18.931 -0.2324  0.3408  0.1182
14654W        W57567  19.848  34.489  28.871  0.2870  0.1654 -0.0632
14655W        W57568  21.823   8.956  26.460  0.3928  0.0702  0.0324
14656W        W57569  27.910  33.978  23.423  0.3159 -0.1641  0.2680
14657W        W57570  26.773  32.350  24.062 -0.0296  0.0502 -0.0361
14658W        W57571  24.890   7.243  14.069 -0.2422  0.2738  0.2209
14659W        W57572   0.710   4.594  17.578  0.0230  0.1710 -0.3537
14660W        W57573  22.727   2.339  16.462  0.0243  0.2145  0.1856
14661W        W57574  24.467  34.019  23.110  0.0853  0.3157  0.2646
14662W        W57575   0.356   1.384  26.501  0.1115 -0.0152  0.0252
14663W        W57576  24.080  28.580  17.152 -0.0811 -0.0268 -0.2649
14664W        W57577  12.961   1.343  16.419 -0.1355 -0.1378  0.0202
14665W        W57578  18.579  33.782   0.220  0.0227  0.1664 -0.0683
14666W        W57579   0.755  32.932  27.752 -0.3059 -0.2025  0.0613
14667W        W57580  19.653   5.096  15.326 -0.0465  0.0621  0.3620
14668W        W57581  29.224  27.647  15.714 -0.0622 -0.1151 -0.0912
14669W        W57582  23.409  32.453  29.600  0.0553 -0.0706  0.2291
14670W        W57583  32.151   0.720  25.089  0.2951  0.1271 -0.0556
14671W        W57584  24.967   7.178   1.610  0.1121 -0.1896 -0.3261
14672W        W57585  27.852   4.988  19.057  0.1534 -0.1772 -0.0335
14673W        W57586  33.291  29.666  28.067  0.1816  0.0145 -0.0447
14674W        W57587  20.908  34.457  25.298 -0.0190 -0.1447  0.1426
14675W        W57588  29.330   1.185  15.326 -0.1970 -0.1367 -0.0307
14676W        W57589  23.492   9.350  16.704 -0.1617  0.1250 -0.1194
14677W        W57590  25.112   3.797  17.840  0.2885  0.0832 -0.0354
14678W        W57591  17.901   4.593  23.372 -0.0128  0.0256 -0.1864
14679W        W57592   3.710   5.769  21.633 -0.2246 -0.2400 -0.0704
14680W        W57593  26.305   2.943  25.892  0.1200  0.3930  0.2759
14681W        W57594  27.097   4.976  19.691 -0.2008  0.2413 -0.1703
14682W        W57595  17.585  32.566  17.089 -0.1295  0.0512  0.0185
14683W        W57596  23.920  31.822  25.545  0.0989  0.0255 -0.0939
14684W        W57597  30.420   4.199  21.128 -0.2999 -0.3244 -0.1849
14685W        W57598  34.436  26.657  28.020  0.0037  0.0069  0.0885
14686W        W57599  24.654   2.314  17.408 -0.0350  0.0526  0.0273
14687W        W57600  28.553  11.767  23.641 -0.1141 -0.2020 -0.0294
14688W        W57601  15.167  31.755  17.362 -0.0871  0.0215  0.1810
14689W        W57602  22.335   0.220  20.041 -0.0519  0.1857 -0.0921
14690W        W57603  26.714   3.670  26.430  0.2237  0.2050 -0.0252
14691W        W57604  28.309   9.183  15.559 -0.0520 -0.0640 -0.1472
14692W        W57605   1.145   6.862  27.765 -0.1490  0.0967 -0.2452
14693W        W57606   4.207  32.252  19.446 -0.1210 -0.0569  0.1604
14694W        W57607  23.362  26.524  21.862 -0.1657 -0.1914  0.1357
14695W        W57608  24.318  31.642  15.003 -0.2602 -0.1124 -0.2557
14696W        W57609   0.238   0.464  18.089 -0.0791 -0.2449  0.2189
14697W        W57610   0.507  32.518  19.752  0.0325 -0.2643 -0.1779
14698W        W57611  22.931   4.483  16.733  0.2014  0.0451  0.2992
14699W        W57612  26.349  32.012  24.092  0.0462 -0.0958  0.1266
14700W        W57613  25.780   5.181  28.788 -0.3442  0.2229  0.1258
14701W        W57614  30.056   4.399  20.705  0.0629  0.0587  0.1616
14702W        W57615  27.641  30.362  28.549 -0.0965 -0.0430  0.0470
14703W        W57616  33.940  32.091  15.376 -0.2836 -0.0903 -0.0963
14704W        W57617  29.941   2.271  26.490 -0.0147 -0.1229  0.1677
14705W        W57618  31.447  33.153  19.622 -0.0626 -0.0173 -0.0145
14706W        W57619  22.983   5.459  24.253 -0.0376  0.4913  0.3482
14707W        W57620  27.882   9.509  19.035  0.0391 -0.1090  0.2675
14708W        W57621  27.253  23.353  18.437 -0.1256  0.2675 -0.3511
14709W        W57622  28.404  31.117  16.432 -0.1798  0.0687 -0.0070
14710W        W57623  24.777  32.442  23.826 -0.0372  0.1852 -0.1657
14711W        W57624  34.188  25.623  16.095 -0.1478 -0.0277  0.0317
14712W        W57625  25.732  31.423  21.045 -0.1315  0.1930 -0.1538
14713W        W57626   1.312  32.515  16.525 -0.1208  0.2146  0.0932
14714W        W57627  26.147   1.670  23.072  0.1858 -0.1434 -0.3177
14715W        W57628  27.436   5.586  27.600  0.2097 -0.0106  0.1875
14716W        W57629  28.494  13.180  22.500 -0.2781 -0.2991 -0.1862
14717W        W57630  27.249   5.137  15.696  0.3790 -0.2286 -0.2118
14718W        W57631  21.080   1.434  24.831 -0.1424 -0.1107  0.0710
14719W        W57632  24.397   3.153   1.332  0.3007  0.0330 -0.4126
14720W        W57633  24.874  33.041  21.506  0.0278  0.0391  0.0272
14721W        W57634  23.972  22.062  20.093 -0.3512  0.0419  0.2259
14722W        W57635  29.573  29.643  14.360 -0.0130 -0.0905 -0.0390
14723W        W57636  26.681   1.353  20.619 -0.2359  0.1234 -0.0421
14724W        W57637   5.604  13.515  21.587  0.1912 -0.2798  0.3309
14725W        W57638   3.458  33.788  24.309  0.0039 -0.1963  0.4322
14726W        W57639  19.501   4.353  24.081  0.4396  0.3477  0.0395
14727W        W57640  20.935   5.241  25.757 -0.1214 -0.2482  0.1067
14728W        W57641  30.373   2.041  16.565  0.1726  0.0024 -0.0785
14729W        W57642  21.776  28.366  16.627  0.1703 -0.0947 -0.0646
14730W        W57643  25.684   0.942  16.747  0.1661 -0.2398  0.1235
14731W        W57644  14.841   5.478  19.989  0.2592  0.3653  0.0744
14732W        W57645  19.629  33.993  14.645  0.1463 -0.0826 -0.0788
14733W        W57646  27.370   3.571  16.523 -0.1116  0.1911  0.0489
14734W        W57647  23.191  11.152  13.555  0.5759  0.0330 -0.0778
14735W        W57648  29.823   4.004  15.608 -0.1097  0.0223  0.1085
14736W        W57649  34.410  29.828  16.061 -0.1789 -0.0849  0.0003
14737W        W57650  29.176   4.392  16.834 -0.0387  0.3842 -0.0622
14738W        W57651  28.545   2.189  17.603  0.0431 -0.1564  0.0575
14739W        W57652   4.833  34.495  21.238 -0.0201  0.1419 -0.2016
14740W        W57653  23.992  12.272  14.039  0.0125  0.0551  0.1371
14741W        W57654  17.140  26.510  16.047 -0.0846  0.0512 -0.0828
14742W        W57655  19.044  32.823  20.351 -0.2278 -0.1669  0.0923
14743W        W57656  12.169  33.371  28.970 -0.0569  0.1138 -0.1394
14744W        W57657  27.582  33.559  26.944  0.3325 -0.2294  0.2970
14745W        W57658   0.775   0.983  16.880 -0.1259 -0.1773 -0.0134
14746W        W57659  26.728  28.170  17.889 -0.2681  0.1446  0.0421
14747W        W57660  28.727  32.413  16.783  0.1210  0.0428  0.1247
14748W        W57661  31.597   1.682  23.172  0.2185  0.0481 -0.1626
14749W        W57662  23.507   9.293  16.208  0.0775 -0.2388 -0.0138
14750W        W57663  29.492  24.376  19.623 -0.0725 -0.2064 -0.1821
14751W        W57664  29.963  30.884  25.333  0.1017 -0.0474 -0.1322
14752W        W57665  21.785   4.996  25.266  0.1033  0.2692  0.1213
14753W        W57666  24.700  34.378  21.822 -0.1932 -0.3488  0.0470
14754W        W57667  32.080  25.011  22.332 -0.0013 -0.0909  0.0277
14755W        W57668  25.540   2.220  14.551  0.2204 -0.3456  0.2120
14756W        W57669  30.639   5.459  23.202  0.1917  0.1103 -0.0121
14757W        W57670  31.523  26.268   1.994  0.0647 -0.0950 -0.0849
14758W        W57671  29.006  25.637  28.989 -0.2994  0.2406 -0.1359
14759W        W57672  29.123   9.535  25.375 -0.2282  0.2126  0.2073
14760W        W57673  24.796   2.531  20.918  0.1006  0.0516 -0.0368
14761W        W57674  31.839  32.891  23.379  0.3036  0.2432  0.6277
14762W        W57675  25.536  33.622  19.857  0.3059  0.3456  0.2192
14763W        W57676   0.480   0.964  23.015  0.1972  0.1809  0.0397
14764W        W57677  28.758   0.534  20.860  0.2059  0.0770  0.1496
14765W        W57678  20.285   0.327  28.945  0.1283  0.0219  0.0783
14766W        W57679  32.582  30.314  26.968 -0.0856 -0.0329  0.1674
14767W        W57680  17.008  32.618  25.084  0.2301 -0.0385  0.1545
14768W        W57681  28.147  26.136  20.919  0.0434  0.0959  0.0454
14769W        W57682  24.667  25.239  26.990 -0.3732 -0.0661  0.4214
14770W        W57683  31.789   8.197  14.630 -0.0386  0.2620  0.0150
14771W        W57684  27.456   9.686  19.586  0.0104  0.1075  0.0378
14772W        W57685  15.313  34.029  20.725  0.1506  0.3430 -0.0504
14773W        W57686  33.393  33.402  16.173  0.0145 -0.1438 -0.0927
14774W        W57687  16.099  31.832  16.032  0.0974  0.0694  0.0306
14775W        W57688  15.961  30.603  15.978  0.0316 -0.3305  0.0051
14776W        W57689  32.185   3.690  17.049 -0.0333 -0.1155  0.0583
14777W        W57690  15.928  33.321  16.509 -0.2574 -0.2107  0.1280
14778W        W57691  24.072   2.899  16.065 -0.1681 -0.0361  0.0764
14779W        W57692  22.691   5.415  20.299 -0.1891  0.2985  0.1163
14780W        W57693   4.194  18.663  23.079  0.1076 -0.0269  0.3286
14781W        W57694  31.604  33.759  21.662  0.2184 -0.0347 -0.2224
14782W        W57695  30.431  33.156  21.102 -0.0550  0.0063 -0.1775
14783W        W57696  22.679  16.299  21.607 -0.0387  0.3098 -0.1036
14784W        W57697  23.082   0.754  25.686  0.0359  0.1601 -0.1658
14785W        W57698  13.936   4.657  25.649  0.3874 -0.2431 -0.2201
14786W        W57699   4.032   3.043  19.495  0.2177  0.1723  0.2028
14787W        W57700  24.346  31.268  21.437 -0.0334 -0.2699  0.2280
14788W        W57701  30.781  32.262  25.704 -0.3232 -0.3558  0.0533
14789W        W57702  28.012  22.352  26.363  0.0349 -0.1687  0.2143
14790W        W57703  20.855  27.734   2.248 -0.0067  0.0228  0.0348
14791W        W57704  28.365   3.818  16.892  0.1475  0.1588 -0.2022
14792W        W57705  30.827  29.342  21.160 -0.0527  0.0079  0.2609
14793W        W57706  28.478  34.478  26.235 -0.0273  0.0959 -0.0945
14794W        W57707  20.292  13.017  19.223 -0.0239  0.1430 -0.3997
14795W        W57708  31.861  14.274  14.426  0.1098 -0.0833  0.2114
14796W        W57709  25.950   3.891  25.178  0.0590 -0.1657 -0.0928
14797W        W57710  24.059  32.715   1.306  0.3648 -0.1723  0.1353
14798W        W57711  25.986   6.585  18.877  0.0221 -0.0733  0.0136
14799W        W57712  33.886   5.643  16.054 -0.0576  0.1254  0.0720
14800W        W57713  28.657   0.725  17.515 -0.0622  0.1299 -0.2693
14801W        W57714  33.328   3.945   2.136  0.0823 -0.2717  0.0533
14802W        W57715  24.672   2.748  15.298  0.2107  0.0141  0.6832
14803W        W57716  22.782  28.987  24.539  0.0062 -0.0138 -0.0622
14804W        W57717  25.478   2.078  24.197  0.1472 -0.1281 -0.0004
14805W        W57718   0.440   7.253  16.954  0.2313  0.3186  0.0878
14806W        W57719  29.073  17.863  26.933 -0.2022 -0.0552  0.0811
14807W        W57720  19.805   1.834  20.175 -0.1589 -0.5042 -0.2098
14808W        W57721  25.721   5.242  28.113  0.3413  0.1689 -0.2118
14809W        W57722  29.098  10.168  21.086  0.2013  0.0476  0.4381
14810W        W57723  27.945   0.099  19.915 -0.0609 -0.0499  0.4839
14811W        W57724  25.948   5.584  25.097 -0.1413 -0.0751  0.1707
14812W        W57725   0.071  31.313  16.979  0.3582 -0.0424  0.1926
14813W        W57726  25.492   9.450  13.602  0.2055  0.1455  0.1329
14814W        W57727  32.337   6.134   2.763  0.0512 -0.0622  0.0086
14815W        W57728  24.407  33.403  15.446  0.0753  0.3282 -0.3130
14816W        W57729  33.020   8.096  23.218 -0.0028 -0.0953  0.1047
14817W        W57730  21.693   2.637  23.343  0.0954 -0.3052 -0.0031
14818W        W57731  19.690   1.794  22.286  0.4485  0.1630 -0.2285
14819W        W57732  31.449  27.700  25.747 -0.0668  0.1944  0.1096
14820W        W57733  27.332   4.692  19.366  0.1095 -0.1686 -0.0172
14821W        W57734  32.495   1.027  18.949  0.0408  0.1058 -0.1283
14822W        W57735  31.083   5.614  19.835  0.1103  0.1402  0.1103
14823W        W57736  20.709  16.348  21.604 -0.0097  0.2312  0.0675
14824W        W57737  22.756   1.116  26.392 -0.1463  0.0253  0.2640
14825W        W57738  16.844   1.598  19.718  0.1095  0.0478  0.1332
14826W        W57739   1.678  17.955  14.567 -0.0757 -0.1072 -0.0403
14827W        W57740  25.303  32.609   1.001  0.1883 -0.1593 -0.2986
14828W        W57741  28.887   2.687  15.475 -0.0582  0.0433  0.1372
14829W        W57742  23.973  24.636  23.299 -0.2171  0.0640 -0.0623
14830W        W57743  33.749   4.390  17.778  0.2743 -0.0046 -0.1023
14831W        W57744  19.432  32.835  23.052  0.2531 -0.6616  0.3144
14832W        W57745  18.823  10.752  13.077  0.0429 -0.1514 -0.0937
14833W        W57746  17.228  32.280  21.119 -0.0083 -0.0322 -0.2552
14834W        W57747   0.284  29.568  24.816  0.0846 -0.0785 -0.1963
14835W        W57748   1.990   7.500  23.940  0.1986 -0.2144 -0.0411
14836W        W57749  26.881  26.983  17.925 -0.2281 -0.2823  0.0915
14837W        W57750  16.879  34.298  27.342  0.0789  0.0667 -0.0571
14838W        W57751  15.351  30.999  26.942  0.0465 -0.1910  0.0376
14839W        W57752   2.460  10.194  16.391 -0.0401 -0.1705  0.1690
14840W        W57753  27.328  14.939  17.237  0.2285 -0.1285  0.1148
14841W        W57754  25.571  28.684  25.069  0.3237 -0.5528 -0.1998
14842W        W57755  20.937   3.431  18.098 -0.0981 -0.2573 -0.0059
14843W        W57756  25.512   1.101  25.124  0.3928 -0.0560 -0.0688
14844W        W57757  26.778  31.535  21.948  0.1958  0.3050 -0.0185
14845W        W57758  24.646   0.106   0.682  0.2382  0.1050  0.0148
14846W        W57759  24.236  29.348   3.009  0.3526  0.0005  0.1380
14847W        W57760  25.394   7.016  16.136 -0.4593  0.1437 -0.1408
14848W        W57761  33.385  27.826  18.173  0.1056 -0.0679  0.4065
14849W        W57762  27.976  28.178  19.065  0.0425 -0.0447 -0.1326
14850W        W57763  25.641  30.439  27.936  0.0754  0.1850 -0.2032
14851W        W57764  22.895   8.005  20.793 -0.2279 -0.1935 -0.2050
14852W        W57765  27.051   9.039  19.161 -0.0118  0.0629 -0.0062
14853W        W57766  22.113  29.396  18.252 -0.0560 -0.0062  0.2878
14854W        W57767  23.361  31.933  15.898  0.1206  0.2180 -0.0204
14855W        W57768  30.538  10.533  22.250  0.0970  0.0587  0.1193
14856W        W57769  19.746   9.336  28.059  0.1961 -0.3012  0.0240
14857W        W57770  26.418  33.021   0.510  0.3949  0.1008 -0.3240
14858W        W57771  22.909  31.584  27.070 -0.1246  0.0757  0.0052
14859W        W57772  19.328  31.641  19.414 -0.1577 -0.2395  0.0810
14860W        W57773   0.339   4.597   0.728  0.2840  0.4264 -0.1674
14861W        W57774  30.652  10.807  21.777 -0.1123 -0.1302  0.0701
14862W        W57775  24.555  11.747  15.709 -0.3827  0.0908 -0.2116
14863W        W57776  20.325  32.660  25.685  0.1673  0.1018 -0.0669
14864W        W57777   0.760  30.326  19.994 -0.1761  0.1670  0.0649
14865W        W57778  24.453   5.125  26.546  0.1872 -0.1301  0.2320
14866W        W57779  26.702   2.168  28.109  0.1912  0.1682 -0.1338
14867W        W57780  32.416   5.973  17.735  0.0330 -0.0222 -0.0056
14868W        W57781  26.282   5.924   1.602 -0.3612 -0.3866  0.1765
14869W        W57782  24.180   2.689  22.154 -0.0336 -0.1666  0.3828
14870W        W57783  29.780  13.039  14.207 -0.0002 -0.0181  0.0360
14871W        W57784  29.836   7.027  22.796  0.1526 -0.0756 -0.1249
14872W        W57785  27.507  33.615  25.658  0.0418 -0.1677 -0.1039
14873W        W57786  16.734   0.723   1.795  0.1687 -0.3341 -0.1225
14874W        W57787  24.867   2.187  25.265  0.3841  0.0632 -0.1631
14875W        W57788  24.939  32.395  19.052 -0.1108  0.2927 -0.2915
14876W        W57789   6.459   3.219  20.820 -0.0010 -0.0564 -0.0647
14877W        W57790  28.186   7.876  17.166 -0.0751 -0.1180 -0.2301
14878W        W57791  30.479   0.557  16.788  0.0783  0.1490  0.3142
14879W        W57792  26.744  18.867  23.795 -0.4425 -0.4830  0.1073
14880W        W57793  30.524   8.566  18.822  0.2165  0.2698 -0.3701
14881W        W57794   1.347   0.184  24.359  0.1085 -0.0659  0.0077
14882W        W57795  34.027   3.535  22.024  0.1589  0.1909 -0.2103
14883W        W57796  23.000   2.067  27.048 -0.0820  0.0768 -0.0133
14884W        W57797   0.037  19.843  22.800  0.1222 -0.0455 -0.1402
14885W        W57798  21.692   0.953  17.890 -0.1067 -0.2640 -0.2317
14886W        W57799  19.366   3.553  24.419 -0.0351 -0.1772  0.0221
14887W        W57800  24.761  30.572  14.890  0.2742  0.0270 -0.1592
14888W        W57801  18.724  13.601  27.054 -0.0957 -0.3375 -0.1996
14889W        W57802  33.545   1.381   0.252  0.0177 -0.1645  0.2374
14890W        W57803  26.116   1.105  25.180  0.2157 -0.0169  0.0772
14891W        W57804  14.118  30.245  29.331  0.0317  0.1202  0.0928
14892W        W57805  26.651   9.866  16.814 -0.0844 -0.0967  0.1446
14893W        W57806  10.096  32.021  22.123  0.2203 -0.0918 -0.0646
14894W        W57807  20.574   1.163  24.936 -0.0217  0.0321 -0.3799
14895W        W57808   1.365  27.226  17.246  0.1087 -0.1499  0.1966
14896W        W57809  32.446  29.060   1.709  0.0513 -0.1908 -0.1093
14897W        W57810  24.592   2.353  24.348  0.0803  0.0714  0.1067
14898W        W57811   0.534   1.728  21.809  0.2997  0.3496  0.0919
14899W        W57812  24.827   3.278  15.477 -0.2645 -0.1904  0.3804
14900W        W57813  19.277  33.545  17.182 -0.0914 -0.1084 -0.1846
14901W        W57814  29.002  13.324  18.050 -0.1536  0.1658 -0.1675
14902W        W57815  25.858   4.333  20.675 -0.0639  0.0243  0.1309
14903W        W57816  22.522   4.106  28.937 -0.1255 -0.0006 -0.2700
14904W        W57817  22.074   2.433   3.124  0.2097 -0.1396 -0.2557
14905W        W57818  29.677  14.523  22.440 -0.1584  0.0342  0.0176
14906W        W57819  28.423  34.326  24.415 -0.2572  0.0109  0.1465
14907W        W57820  21.844  26.255  28.833  0.1900  0.1197 -0.1345
14908W        W57821  27.256   2.824  20.846 -0.0486 -0.2433  0.0013
14909W        W57822  33.217   9.478  28.827  0.1155  0.2217  0.1090
14910W        W57823  34.148   5.109  21.266  0.0281  0.1976  0.1859
14911W        W57824  24.993   9.333  24.820 -0.1655 -0.0871 -0.0452
14912W        W57825  18.150  27.530  24.369 -0.1769 -0.0118 -0.1640
14913W        W57826  22.649   5.586  26.759  0.1492  0.0038  0.1829
14914W        W57827  28.755  28.032  13.779  0.3670 -0.2172  0.1056
14915W        W57828  30.050   1.197  17.637 -0.1992  0.0716 -0.1084
14916W        W57829  26.874   6.729  21.086 -0.0706 -0.1324 -0.0103
14917W        W57830  34.370   5.500  17.688 -0.2323  0.0763  0.1020
14918W        W57831  18.688   2.801  16.523 -0.0126  0.0424  0.0284
14919W        W57832  11.367   6.154  19.766  0.2071  0.2609 -0.2226
14920W        W57833   3.836  32.351  22.415  0.4473  0.0997  0.1665
14921W        W57834  33.816  34.275  16.272 -0.2465 -0.0007  0.0968
14922W        W57835  16.258   6.136  25.863 -0.4245 -0.1843 -0.4042
14923W        W57836  25.001   0.726  25.873  0.0440  0.1303  0.0130
14924W        W57837  21.817   6.769  26.665  0.2965 -0.1844  0.2013
14925W        W57838  28.900   7.543  16.814  0.0624  0.0288 -0.3623
14926W        W57839  32.070  31.181  19.436  0.0689 -0.3348  0.0297
14927W        W57840  28.436   5.898  20.171 -0.0275  0.2123 -0.0344
14928W        W57841  16.956   1.069  15.777  0.0842 -0.2201 -0.0577
14929W        W57842  27.318  33.042  17.307  0.3340  0.1667 -0.1798
14930W        W57843  10.384   1.265  18.428 -0.0889  0.0356 -0.1876
14931W        W57844   5.667   0.828  23.623 -0.0319  0.0119 -0.2491
14932W        W57845  18.015  29.009  16.164 -0.0538  0.2747  0.2261
14933W        W57846  24.496   6.858  22.885  0.0694  0.0802 -0.0095
14934W        W57847  12.405   7.136  27.693  0.2087  0.1078 -0.0694
14935W        W57848  28.949  32.634   5.483 -0.2190  0.1348  0.1326
14936W        W57849  21.822   4.074  22.288  0.1393  0.0454  0.2463
14937W        W57850  23.523   2.694  19.189 -0.2394 -0.0219  0.0620
14938W        W57851  32.507   7.000  17.867  0.1063  0.0795  0.0597
14939W        W57852  23.673  32.639  25.649 -0.0897  0.3663 -0.0256
14940W        W57853  14.351  31.915  22.166 -0.4818 -0.3296 -0.1499
14941W        W57854  20.373   9.990  23.110 -0.1704  0.1907 -0.2058
14942W        W57855  21.504  14.320  22.147 -0.1839  0.1047 -0.0287
14943W        W57856  32.654   5.521  27.193 -0.1908  0.0064 -0.1265
14944W        W57857  29.398   7.474  16.210 -0.1402 -0.2222 -0.4277
14945W        W57858  28.090   0.446  24.401  0.0436 -0.2770 -0.1256
14946W        W57859  21.032   6.935  27.132 -0.3046 -0.0874 -0.0259
14947W        W57860  18.263  28.839  22.922 -0.2087  0.2071  0.1842
14948W        W57861  31.984  11.939  17.458  0.2291  0.0751  0.1346
14949W        W57862  21.477   4.904  15.958 -0.2474 -0.2029 -0.2478
14950W        W57863  21.165   3.437  15.627  0.1014 -0.1437  0.1472
14951W        W57864  31.899   0.008  29.386  0.0164  0.0885 -0.1632
14952W        W57865   0.664  32.562  15.731  0.2120  0.0696  0.0994
14953W        W57866  29.520  34.480  27.025 -0.0873  0.0965 -0.2430
14954W        W57867  19.446  33.118   0.796  0.1022  0.0578 -0.3598
14955W        W57868  24.704   7.396  19.038 -0.3786 -0.0060 -0.0018
14956W        W57869  26.823  30.066  22.365  0.0992 -0.3038  0.0207
14957W        W57870  16.864  32.449   0.490 -0.1871  0.1306  0.3409
14958W        W57871  23.354   2.828  24.845 -0.0820  0.2105  0.1333
14959W        W57872   2.180   6.782  18.803 -0.2444 -0.2896 -0.2560
14960W        W57873  30.855  21.339  20.101  0.1056 -0.2078 -0.1334
14961W        W57874  30.315   2.899  20.616 -0.0124  0.1248 -0.0151
14962W        W57875  23.633   4.418  18.894 -0.3360  0.2013  0.1306
14963W        W57876  28.151  15.721   2.118  0.0382 -0.1495  0.2253
14964W        W57877  25.810   6.331  26.992 -0.1229 -0.0345 -0.2786
14965W        W57878  28.888   6.286  19.414  0.0717  0.3269 -0.0349
14966W        W57879  19.437  29.641  29.376 -0.0708  0.0084 -0.2599
14967W        W57880   0.565  27.524  16.719 -0.0305 -0.2151  0.2524
14968W        W57881  28.681   0.801  17.988  0.0404 -0.0504  0.0491
14969W        W57882  20.298   6.666  16.405 -0.1138  0.3611  0.2890
14970W        W57883  31.837   2.723  20.421  0.1148  0.0365 -0.0636
14971W        W57884   3.378   6.783  24.422 -0.0095 -0.2927  0.0898
14972W        W57885  32.695  13.330   3.800  0.1906 -0.0880 -0.0742
14973W        W57886  34.483  29.622  18.037 -0.0232  0.0365  0.0349
14974W        W57887  25.288  32.279  14.819  0.1973  0.0434 -0.2862
14975W        W57888  25.952  32.886  21.167 -0.2180 -0.1635 -0.1818
14976W        W57889  21.833  31.057  16.194 -0.0124 -0.1232  0.0718
14977W        W57890  14.165  31.968  22.667  0.0078 -0.1057  0.2265
14978W        W57891   0.167   7.030  17.380 -0.3396 -0.0208 -0.2130
14979W        W57892  25.120   4.031  25.962  0.0695 -0.0079  0.0629
14980W        W57893  18.746  33.962  24.787  0.0122  0.2066 -0.2139
14981W        W57894  22.725   3.933   1.562  0.0344  0.1367 -0.1352
14982W        W57895  29.459   6.457  15.571  0.0689 -0.2057 -0.1914
14983W        W57896  26.600  24.135  16.228  0.0790 -0.0206  0.2131
14984W        W57897  22.176   4.148  23.123 -0.0324 -0.3241 -0.1930
14985W        W57898  22.233  27.664  20.396 -0.1781  0.1533  0.2501
14986W        W57899  32.002   8.469  23.655 -0.0394  0.0116  0.1179
14987W        W57900  31.741   3.880  16.722 -0.0357  0.1377  0.1093
14988W        W57901  29.053   1.196  16.058  0.2678  0.2049  0.2139
14989W        W57902  25.786  30.824  24.019 -0.1223  0.1774 -0.0419
14990W        W57903  27.757  30.242  22.456  0.0552  0.3873  0.3901
14991W        W57904  28.317  15.917  27.891  0.3060 -0.1250 -0.2166
14992W        W57905  23.546  33.817  25.592 -0.1331  0.4226  0.1993
14993W        W57906  33.059   1.088   0.586  0.0264  0.3738 -0.1167
14994W        W57907  23.120   4.787  15.205  0.0663  0.0719 -0.1662
14995W        W57908  30.966   2.090  16.473 -0.2791 -0.1450 -0.0230
14996W        W57909  17.041   1.488  20.244  0.1943 -0.0788 -0.1377
14997W        W57910  24.563   6.551  16.314  0.2223  0.1268 -0.0447
14998W        W57911  27.415   6.190  17.048  0.1629 -0.2390 -0.1143
14999W        W57912  29.222  30.534  20.235 -0.1543 -0.2024  0.1618
15000W        W57913  21.886  29.059  17.116  0.1212  0.0838  0.0382
15001W        W57914  23.814   5.155  28.623  0.0277 -0.2469  0.0432
15002W        W57915   6.613  34.052  27.293  0.2345  0.3667  0.2469
15003W        W57916  15.543  24.757  17.907 -0.0270 -0.0619  0.1374
15004W        W57917  27.047   4.493  17.088  0.0868 -0.0265  0.2078
15005W        W57918  13.274  26.802  20.711  0.1493  0.1159 -0.0397
15006W        W57919  29.964  12.479  22.423  0.2081 -0.1151 -0.3018
15007W        W57920  26.456  26.326  27.647 -0.0209  0.0227 -0.0478
15008W        W57921   2.785   0.333  27.522 -0.0343  0.2495 -0.1247
15009W        W57922  30.141   4.901  17.884  0.0166 -0.2340  0.1476
15010W        W57923  31.486  31.835  22.484  0.1367  0.1719 -0.0546
15011W        W57924  24.139   5.680  19.742 -0.1223  0.0959  0.0220
15012W        W57925  24.773   4.540  28.355 -0.0308  0.2886 -0.3103
15013W        W57926  25.969  32.112  17.626 -0.0158 -0.1553  0.1071
15014W        W57927  25.803   7.956  18.071 -0.1773 -0.0078 -0.0054
15015W        W57928  26.127   0.417  17.620  0.0521 -0.1132  0.0988
15016W        W57929  26.852   5.093  26.083  0.0251  0.3766  0.0661
15017W        W57930  20.401  20.402  23.692 -0.1854  0.1700  0.3275
15018W        W57931  14.142  10.668  17.591 -0.1903 -0.3010 -0.1464
15019W        W57932  20.934  32.223  22.288  0.0459  0.3195  0.1850
15020W        W57933  24.137  12.739  16.299  0.0067  0.0832  0.0381
15021W        W57934  26.324  31.309  21.773 -0.0412 -0.1322  0.0540
15022W        W57935  23.527   6.988  18.256 -0.0647  0.0920  0.4099
15023W        W57936  25.631  32.754  27.023  0.1456 -0.4401 -0.0679
15024W        W57937  24.294   7.448  23.691 -0.0585 -0.1185 -0.2494
15025W        W57938   7.485  33.706  26.551  0.4133  0.0604 -0.3227
15026W        W57939  28.071   8.806   1.077 -0.1526 -0.2676  0.1564
15027W        W57940  29.766  34.310  25.935  0.0682  0.0246 -0.0159
15028W        W57941  34.373  28.408  16.587  0.2293 -0.0746 -0.4672
15029W        W57942  16.763   6.059  22.549 -0.0388  0.0680 -0.3115
15030W        W57943  25.309  32.323  26.740 -0.0727  0.0113 -0.1221
15031W        W57944  13.977  33.699  17.845  0.0491  0.3636  0.2276
15032W        W57945   2.176   5.590  17.498 -0.1949  0.0670 -0.2696
15033W        W57946  10.803   0.977  29.471 -0.0759 -0.0526  0.1019
15034W        W57947  18.279   3.277  15.311  0.2324  0.0687  0.1233
15035W        W57948  27.528   1.073  15.264 -0.0528 -0.0058 -0.2694
15036W        W57949  21.497   5.865  19.264 -0.1061  0.0486 -0.1300
15037W        W57950  23.172   0.928  26.157  0.1939  0.1925 -0.1465
15038W        W57951   4.058   2.747  18.560  0.0421 -0.0713 -0.1271
15039W        W57952  25.343   8.416  18.381  0.0655  0.2539 -0.0242
15040W        W57953  23.323  26.178  22.751  0.0945  0.0669  0.2827
15041W        W57954  34.085   0.200   5.487  0.6328 -0.2286  0.2508
15042W        W57955  16.733  32.311  21.266  0.0285 -0.2654 -0.1948
15043W        W57956  23.805  19.963  12.562  0.2660  0.1044  0.0933
15044W        W57957  27.464   1.231   0.470  0.2167 -0.1811 -0.0341
15045W        W57958  10.471  11.151  28.880  0.0591 -0.1927  0.1560
15046W        W57959  23.183   1.525  17.615 -0.0071  0.0288  0.2866
15047W        W57960  30.427   5.787  23.767 -0.0786  0.2644  0.3829
15048W        W57961  28.270  21.854  23.634  0.2759  0.2080  0.2854
15049W        W57962  27.531   1.515  15.654  0.1662  0.1448 -0.0134
15050W        W57963  31.136   0.353  29.189  0.1766 -0.0889 -0.0759
15051W        W57964  23.473  11.929  12.737  0.2556  0.1471  0.4898
15052W        W57965  21.054  29.188  16.667 -0.0038  0.2228 -0.1675
15053W        W57966  24.835   5.856  21.652 -0.0819  0.1353 -0.0674
15054W        W57967  23.716   1.900  19.552 -0.4134  0.1206 -0.2263
15055W        W57968  28.211   6.705  19.607 -0.0714 -0.0728 -0.3214
15056W        W57969  29.279  30.193  15.150  0.3367  0.0777  0.0382
15057W        W57970  22.860  32.500  14.728  0.0380  0.1351  0.1383
15058W        W57971  26.971   5.685  26.897 -0.2071  0.1066 -0.1124
15059W        W57972  32.318  21.082  20.747  0.0030 -0.0577 -0.0793
15060W        W57973  25.977   7.560  18.433  0.2204  0.1344 -0.1417
15061W        W57974  34.058  30.474  27.854  0.3686  0.2141 -0.0995
15062W        W57975  33.940  14.088  22.265 -0.6469 -0.1851 -0.2855
15063W        W57976  21.508  24.063  17.703  0.1147  0.0144 -0.1236
15064W        W57977  33.328   5.232  27.280 -0.0011  0.1304  0.1720
15065W        W57978  22.744  34.125  20.789  0.1151 -0.1854 -0.0957
15066W        W57979  21.392  29.232  16.282  0.3330  0.0391 -0.0951
15067W        W57980  22.459   0.907  21.260  0.0053 -0.0911 -0.1321
15068W        W57981  17.314   4.333   0.405 -0.3470 -0.1713 -0.3831
15069W        W57982  25.528   1.636  28.115 -0.1371  0.3386  0.0274
15070W        W57983  18.227   0.729  20.503  0.0938 -0.1698 -0.0349
15071W        W57984  23.052  28.732  18.686  0.1250 -0.2464 -0.0758
15072W        W57985   3.275  31.470   3.950  0.0983 -0.2779 -0.0135
15073W        W57986  25.236   7.571  24.406 -0.2336 -0.0742 -0.0224
15074W        W57987  30.706  28.361  25.240  0.0736 -0.1897  0.0823
15075W        W57988  27.902   2.649   7.160  0.1772  0.0452 -0.0931
15076W        W57989  25.619   3.999  19.032 -0.0379 -0.0268  0.0228
15077W        W57990  22.311   3.259  20.654 -0.1170 -0.2358  0.1716
15078W        W57991  22.673  28.506   0.572 -0.1972  0.0059  0.0911
15079W        W57992  20.526   4.327  25.927  0.2782  0.1390  0.0968
15080W        W57993   1.014   6.579  25.814 -0.1832  0.1494  0.5151
15081W        W57994  25.389   4.762  25.141 -0.2088 -0.2340 -0.0108
15082W        W57995  19.218   2.996  26.539  0.2376  0.0542  0.2396
15083W        W57996  25.066   4.931  19.473  0.0854 -0.0903  0.1309
15084W        W57997  26.072  11.023  24.518  0.1149  0.3330  0.2790
15085W        W57998  25.113  10.973   4.298  0.1443  0.1325 -0.1912
15086W        W57999  30.594   0.949  25.570 -0.2096 -0.0007 -0.0036
15087W        W58000  20.842  33.976  22.520 -0.0634  0.1319 -0.0341
15088W        W58001   1.570   5.176  21.991  0.0435  0.1933  0.2529
15089W        W58002  14.646   5.951  16.002  0.0254  0.0617  0.1211
15090W        W58003  23.383   9.915  23.536  0.2683  0.1029 -0.2636
15091W        W58004  25.236   6.407  18.336  0.0070 -0.1409 -0.3481
15092W        W58005  31.841   9.720  15.876 -0.2704 -0.0366 -0.1569
15093W        W58006  23.479  33.313  25.588  0.0567  0.1266 -0.2139
15094W        W58007  32.597  33.243  24.029 -0.3998 -0.0249  0.0521
15095W        W58008  21.985  31.135  25.334  0.3280 -0.0434  0.1267
15096W        W58009  27.588  33.790  15.663  0.1750 -0.0288 -0.1287
15097W        W58010  24.886   6.648  19.498  0.0786 -0.1386 -0.3085
15098W        W58011  20.623  32.525  24.801 -0.3445  0.2655 -0.0470
15099W        W58012  22.447   3.333  25.263  0.1546  0.1411 -0.0172
15100W        W58013   8.781   2.785  20.116 -0.1636 -0.0348  0.0563
15101W        W58014  28.955  31.821  13.920  0.1913  0.4453  0.0666
15102W        W58015   1.116  33.168  15.465 -0.1989  0.0001  0.2591
15103W        W58016  33.444  30.669  18.233 -0.0931  0.1689  0.2634
15104W        W58017  30.406   4.442  18.003  0.0440  0.2541  0.3198
15105W        W58018  24.840  24.682  22.314  0.1720  0.2781  0.4361
15106W        W58019  15.774  21.118  15.782 -0.1581  0.1483  0.2070
15107W        W58020  18.616   4.241  19.960 -0.4071 -0.3701 -0.0784
15108W        W58021  24.194   1.800   1.624 -0.1617 -0.0251  0.2096
15109W        W58022  21.091   3.611  27.975  0.2207 -0.3914  0.0452
15110W        W58023  32.576  27.490  23.334  0.1255  0.2518  0.2314
15111W        W58024  27.846  33.834  16.585  0.1534 -0.1411 -0.0321
15112W        W58025  27.693   5.536  21.224 -0.4006 -0.1653 -0.0113
15113W        W58026   2.979  29.964  29.389 -0.2078  0.0738 -0.1132
15114W        W58027  21.753  10.139  25.994 -0.1232  0.3273  0.1445
15115W        W58028  20.387   6.921  28.326 -0.0401  0.1915 -0.0451
15116W        W58029  26.791   7.948  17.078 -0.3368  0.0295 -0.2641
15117W        W58030  26.489   9.092  22.210 -0.2367  0.0483  0.2752
15118W        W58031   5.422  13.217  25.280 -0.0911 -0.1649  0.1174
15119W        W58032  13.808   2.601  26.037 -0.0998 -0.0546  0.1365
15120W        W58033  19.990  27.815  14.991  0.0221 -0.0649  0.0070
15121W        W58034  24.056   6.658  16.456  0.2193 -0.1171 -0.2240
15122W        W58035  27.344   5.849  27.163 -0.0212 -0.1756 -0.0179
15123W        W58036  27.561  32.249  21.054 -0.2848  0.2824  0.0218
15124W        W58037  31.331   6.308  26.268 -0.1718  0.1353  0.1469
15125W        W58038  30.377  10.773  15.716 -0.1461 -0.0587 -0.1152
15126W        W58039  27.333  29.839  15.016 -0.2041  0.2943  0.1273
15127W        W58040  28.434   5.252  18.336 -0.2839  0.1597  0.1599
15128W        W58041  26.528   2.125  22.925 -0.1138 -0.3483 -0.0273
15129W        W58042  29.292  11.316  26.170  0.3467 -0.0783  0.1228
15130W        W58043   0.557  30.660  22.447 -0.0705  0.1877 -0.0662
15131W        W58044  32.188   4.780  23.902  0.3870 -0.1616  0.1535
15132W        W58045  15.290   6.515  16.616  0.0628 -0.0722 -0.1491
15133W        W58046  27.345  31.850  17.992 -0.1603  0.0221 -0.1414
15134W        W58047  26.111   1.616  21.988 -0.1947 -0.0099  0.0656
15135W        W58048  28.606  10.303  20.385  0.1349  0.1274 -0.0468
15136W        W58049  27.815   3.944  22.087  0.4053  0.0995  0.1590
15137W        W58050  28.815   1.365  19.247  0.1890  0.2617  0.0364
15138W        W58051  29.399   2.142  22.916 -0.2392 -0.1436  0.0048
15139W        W58052  25.904   8.314  17.372 -0.1096  0.2463 -0.3128
15140W        W58053  19.735  32.725  27.922 -0.1639 -0.0481  0.2477
15141W        W58054  25.982   6.463  20.102  0.1353 -0.0993 -0.0729
15142W        W58055  27.981   6.078  17.888 -0.1498  0.2657  0.1073
15143W        W58056  25.304   3.198  23.010 -0.2685  0.0917 -0.1873
15144W        W58057  23.576   6.410  16.611 -0.2573 -0.2575 -0.2017
15145W        W58058  23.141  33.167  25.246  0.1917  0.0778 -0.0253
15146W        W58059  24.947  26.922  29.630  0.4964  0.2075 -0.2169
15147W        W58060  22.087  29.617  15.374  0.3214 -0.1375 -0.1119
15148W        W58061  30.157   0.950  15.096  0.0936 -0.4312  0.0625
15149W        W58062  22.335   2.146  16.767  0.0989  0.4319 -0.1091
15150W        W58063  27.514   5.319  16.122 -0.2982  0.2967 -0.1959
15151W        W58064  22.307  30.261  17.659  0.0873 -0.1177  0.0538
15152W        W58065  29.242   2.253  14.535 -0.4102  0.1613  0.2698
15153W        W58066  28.996  32.371  21.073  0.0182  0.0846 -0.2733
15154W        W58067  30.423  11.101  26.581  0.0317 -0.0400  0.1014
15155W        W58068  28.423  20.862  22.083 -0.0634  0.1730 -0.1286
15156W        W58069  21.306  13.158  28.708  0.1159  0.1008  0.0796
15157W        W58070  23.610   0.580  14.803 -0.1138  0.0753  0.2120
15158W        W58071  24.884  10.051  21.485 -0.2135  0.2197  0.0782
15159W        W58072  17.288   5.989   0.724 -0.0499  0.1450  0.1576
15160W        W58073  29.272  10.168  19.194  0.0015  0.0462 -0.2945
15161W        W58074  28.276   9.892  25.027  0.2523  0.1062  0.0617
15162W        W58075   1.956   4.853  18.976 -0.1721 -0.1360  0.2192
15163W        W58076  25.634   2.305  26.451 -0.0609 -0.0420 -0.0651
15164W        W58077  24.751  32.603  23.358 -0.2214 -0.3209 -0.0783
15165W        W58078  26.551   1.067  15.370  0.2328  0.0548  0.0281
15166W        W58079  33.181   9.099   2.630  0.3753  0.3531 -0.2575
15167W        W58080   6.254  30.397  16.928  0.0767  0.1822 -0.0244
15168W        W58081  28.293   2.021  23.644  0.0885  0.1784 -0.0179
15169W        W58082  28.803   3.906  17.605  0.0334 -0.0847 -0.1636
15170W        W58083  27.210  12.481  25.502 -0.0823  0.2617 -0.0177
15171W        W58084  19.215   3.729  24.906  0.0620 -0.1617  0.0512
15172W        W58085  16.052   0.897  25.349  0.0902  0.1968  0.2436
15173W        W58086  20.708  24.210  25.437 -0.2126  0.1308 -0.2463
15174W        W58087  29.473  28.562  29.576  0.2295 -0.0536 -0.0062
15175W        W58088  21.032  32.723  24.892 -0.0855 -0.0349  0.0402
15176W        W58089  21.655   1.108  26.049 -0.0162  0.7599  0.0985
15177W        W58090  26.419   4.739  27.767 -0.3059  0.2666 -0.0201
15178W        W58091  21.841   4.908  29.545 -0.0714 -0.1021 -0.2728
15179W        W58092  26.621   9.051  22.828  0.2869  0.2444  0.1302
15180W        W58093  16.415  18.852  15.385 -0.1699 -0.0933  0.0354
15181W        W58094  23.269  31.465   0.307 -0.1955 -0.0396 -0.1127
15182W        W58095  23.202   9.415   1.788  0.3641  0.1320  0.1031
15183W        W58096  30.732  33.514  18.892 -0.1582  0.2485 -0.1468
15184W        W58097  24.905   2.640  16.297 -0.0335 -0.2127  0.2395
15185W        W58098  30.864   2.705  29.668  0.1960 -0.1363  0.1769
15186W        W58099  34.407  29.448   2.910  0.2372  0.3653 -0.0478
15187W        W58100  24.777  30.502   0.513  0.3152  0.0368 -0.2184
15188W        W58101  25.039   7.524  20.739 -0.1155  0.2061  0.1902
15189W        W58102  20.177  23.630  28.172 -0.0798 -0.2067 -0.0262
15190W        W58103  26.236  31.538  27.208 -0.2665  0.0627  0.2051
15191W        W58104  22.540   0.921  22.799  0.1574 -0.1589  0.0249
15192W        W58105  15.647   5.837   6.616  0.2411  0.0915 -0.2773
15193W        W58106  28.608  26.830  16.994  0.1350 -0.0557  0.2813
15194W        W58107  23.686  28.534  24.179  0.1572 -0.1019  0.1370
15195W        W58108   1.412  19.479  19.502  0.3538  0.1938 -0.2566
15196W        W58109  32.871   4.542   8.008 -0.2319  0.2212 -0.0587
15197W        W58110  23.163   9.056  23.161 -0.4711 -0.1916 -0.0672
15198W        W58111  23.411  32.408  27.477 -0.0509 -0.1000 -0.3269
15199W        W58112   0.556  34.451   8.939 -0.4224  0.1536 -0.1550
15200W        W58113  31.720  30.543  28.098 -0.0402 -0.1564 -0.1023
15201W        W58114  30.070   4.314   1.112  0.1990  0.3060 -0.1506
15202W        W58115  27.078  33.196  21.342 -0.0933 -0.0162 -0.0594
15203W        W58116  17.914  33.644  27.351  0.5956 -0.2172  0.2367
15204W        W58117  28.785   1.900  23.389  0.0302  0.0334  0.0867
15205W        W58118  18.863   4.782   0.048  0.2403 -0.1201  0.0836
15206W        W58119   3.479  32.675  22.280  0.0524 -0.0155 -0.1137
15207W        W58120  29.640   2.186  20.534 -0.0373  0.0267 -0.0046
15208W        W58121  22.973  10.850  24.340 -0.1478 -0.0010  0.0500
15209W        W58122   1.626   1.076  27.027 -0.1840 -0.0361  0.1071
15210W        W58123  28.626  31.649  26.344  0.0352 -0.0412  0.0014
15211W        W58124   9.043  10.751   0.986 -0.1339  0.0598 -0.3192
15212W        W58125  17.665  33.833  16.068 -0.0742  0.0177  0.1501
15213W        W58126  27.271   9.010  26.837  0.2431  0.1144 -0.1648
15214W        W58127  28.706  25.079   5.540 -0.0571  0.0411  0.0820
15215W        W58128  19.412  23.640  15.719 -0.0641  0.2297  0.0520
15216W        W58129   1.507  11.773   1.593  0.1313  0.0779 -0.0948
15217W        W58130  28.199   0.142  22.365 -0.1171  0.2700  0.0492
15218W        W58131  17.563  31.161   2.340  0.1703 -0.3199  0.0326
15219W        W58132  24.275  31.837  25.912  0.3536  0.1089 -0.0210
15220W        W58133  19.287  31.489  27.930  0.5731 -0.2226 -0.3986
15221W        W58134  29.152   3.898  20.505  0.3500 -0.0452  0.0269
15222W        W58135  21.865  27.770   0.582 -0.0327  0.0465  0.0619
15223W        W58136  26.252  16.553  26.864 -0.2965  0.0371  0.0110
15224W        W58137  23.292   3.140  13.919 -0.0278 -0.2040  0.1801
15225W        W58138  30.686   3.280  21.497 -0.5104 -0.3352 -0.1258
15226W        W58139  14.628   3.449  17.710  0.0942  0.0845  0.2569
15227W        W58140  24.814   4.922  14.895 -0.2019 -0.0537 -0.0371
15228W        W58141  25.722  31.111   1.973  0.0046 -0.0896 -0.0222
15229W        W58142  31.489   1.516  25.112  0.0980 -0.0585  0.2405
15230W        W58143  21.495   9.594  23.639 -0.4596 -0.0909  0.3457
15231W        W58144  21.185  17.961  13.036  0.0535 -0.0225 -0.1945
15232W        W58145  27.226  29.945  29.276  0.0134 -0.0791  0.0595
15233W        W58146  30.537   3.623  28.082 -0.1024  0.3513  0.0802
15234W        W58147  30.781   1.800   1.880  0.2418  0.4305  0.0735
15235W        W58148  26.843  30.000  22.882 -0.0537  0.2579  0.1416
15236W        W58149  27.859   8.139  27.053 -0.2082 -0.3369 -0.1325
15237W        W58150  20.445   8.324  26.857  0.0485  0.0128  0.0128
15238W        W58151  33.750   1.071  28.556  0.1337  0.2071  0.1389
15239W        W58152  21.896   1.415  22.643  0.1028  0.0223 -0.0782
15240W        W58153  16.765   9.769  24.241 -0.0207 -0.0102 -0.0877
15241W        W58154  28.028   8.112  19.252 -0.3316  0.1537  0.0338
15242W        W58155  30.236   2.308  20.043 -0.0099 -0.2573 -0.2900
15243W        W58156  20.779  33.636  22.175 -0.0169  0.1910 -0.0319
15244W        W58157  29.124  11.989  20.835 -0.1771 -0.1432 -0.1373
15245W        W58158  30.487   4.026  26.694  0.3330 -0.1362  0.0073
15246W        W58159  20.980   3.933  20.807  0.2465  0.0404 -0.1541
15247W        W58160  20.678  32.080  21.126  0.0243  0.3915 -0.3849
15248W        W58161  20.412  33.992  24.811  0.1116 -0.5561 -0.1511
15249W        W58162  23.075  25.068  19.892  0.2710  0.1021 -0.0863
15250W        W58163  26.988  32.424  25.341 -0.3704 -0.2703 -0.3597
15251W        W58164  26.646   1.048  14.355 -0.1285 -0.0449  0.0262
15252W        W58165   7.250   8.913  29.710 -0.2779 -0.0674  0.0598
15253W        W58166  31.566  13.284  26.181 -0.0455  0.0033 -0.2790
15254W        W58167  15.991   8.505  21.395 -0.2117  0.3043 -0.1465
15255W        W58168  21.011  23.421   0.886 -0.0866 -0.0195 -0.0429
15256W        W58169  25.063  28.591   2.366  0.0408  0.0581 -0.2769
15257W        W58170  16.715   6.438  22.159 -0.2323 -0.0791  0.0002
15258W        W58171  24.537  30.893  27.101  0.0151  0.0927  0.0445
15259W        W58172  20.176   2.551  21.897 -0.1765 -0.0281 -0.0989
15260W        W58173  25.048  28.161  25.478  0.0991  0.0586  0.2962
15261W        W58174  26.428   9.369  15.697  0.2711 -0.2204  0.1674
15262W        W58175  18.315  33.691  27.691  0.0638 -0.1567  0.0417
15263W        W58176  22.402   5.174   6.603  0.1078 -0.2659 -0.0496
15264W        W58177  26.567   1.497  25.058 -0.0653  0.2775 -0.1824
15265W        W58178  30.166  31.484   7.893  0.0029  0.1051  0.2379
15266W        W58179   3.472   8.358   4.311 -0.1316 -0.2278  0.0397
15267W        W58180  28.608   4.910  28.557  0.0221 -0.0450 -0.1672
15268W        W58181  28.515  31.641  27.358  0.3618 -0.0309  0.0432
15269W        W58182  30.019   4.892  19.857  0.0369 -0.0537  0.1477
15270W        W58183  20.631  13.980  23.345  0.0173  0.1342  0.1032
15271W        W58184  28.051   1.507   6.361 -0.2293 -0.1434 -0.0419
15272W        W58185  28.195  33.811  29.371 -0.3047 -0.2223 -0.2383
15273W        W58186  19.765  12.086  29.595 -0.1355  0.1940  0.2615
15274W        W58187   2.967   6.923  23.654  0.0223 -0.0852 -0.3341
15275W        W58188  22.612   3.423  26.164 -0.1941 -0.1274 -0.0931
15276W        W58189  17.076   0.828  29.307  0.1386 -0.2125 -0.0853
15277W        W58190   3.442  25.914  15.791 -0.0421 -0.1048 -0.2071
15278W        W58191  32.097  21.920  23.375  0.1357  0.2607  0.2100
15279W        W58192  27.916   9.668  25.278  0.1051 -0.0780  0.0412
15280W        W58193  22.773   0.732  21.803 -0.0197  0.1739 -0.0918
15281W        W58194  22.240  34.090  27.930 -0.0534 -0.2447  0.1163
15282W        W58195   2.520   7.872   4.011  0.1340  0.2178 -0.2385
15283W        W58196  28.719  34.465   4.155 -0.0482 -0.0654 -0.2694
15284W        W58197  23.248   2.031   0.662  0.2495 -0.1463 -0.2706
15285W        W58198  20.704   1.490  17.031  0.2425  0.3096  0.2851
15286W        W58199  27.853  32.320  21.492  0.1730 -0.0022  0.0051
15287W        W58200  23.651  34.315  22.043 -0.1353  0.1359 -0.0416
15288W        W58201  23.498   0.452  26.712 -0.1277  0.1979  0.0229
15289W        W58202  29.763  15.685  24.709  0.0500  0.1625 -0.2409
15290W        W58203  30.529  13.069  27.050 -0.1027 -0.0937  0.0106
15291W        W58204   1.148  28.829  25.907  0.1852  0.1980 -0.2039
15292W        W58205   0.393  29.406  22.794  0.0567 -0.0047  0.1109
15293W        W58206  30.595  27.404   0.457 -0.1872 -0.1737  0.0471
15294W        W58207  22.110   2.957  18.603  0.2451 -0.1039  0.2433
15295W        W58208   1.873  18.073  21.854 -0.1136 -0.1161  0.1276
15296W        W58209  23.340  22.224  26.464 -0.2182 -0.2298  0.1474
15297W        W58210  27.756   7.236  29.590 -0.0349 -0.2134 -0.2111
15298W        W58211   0.322   4.425   1.206 -0.0322 -0.1458  0.2734
15299W        W58212  24.127   6.283  25.809  0.1440  0.1758 -0.0732
15300W        W58213  33.710  24.124  29.607  0.1568  0.0947 -0.0682
15301W        W58214  26.613  28.233  19.135 -0.1404 -0.1141 -0.0864
15302W        W58215   0.336  29.038  20.710  0.0155  0.5465  0.0053
15303W        W58216  34.393   5.538  28.683 -0.1096  0.0030  0.1512
15304W        W58217  17.698   7.358  28.238 -0.0471 -0.0648 -0.1051
15305W        W58218  22.210  24.167  27.541  0.2338 -0.1915  0.1030
15306W        W58219  33.416   3.625  15.919  0.0981 -0.0749  0.0709
15307W        W58220  32.769   8.023  20.680 -0.0965  0.0803  0.0083
15308W        W58221  33.491   5.251  18.254 -0.1057  0.1473 -0.0819
15309W        W58222  17.509  31.574  17.021 -0.0071  0.1572  0.0925
15310W        W58223  24.256   2.835  22.956  0.0822  0.0072  0.0844
15311W        W58224  24.214  31.747  19.426 -0.4060  0.0574  0.0446
15312W        W58225  20.489   1.344  20.206 -0.0631 -0.2385 -0.1423
15313W        W58226  29.319   2.520  28.523  0.3278 -0.1052  0.1185
15314W        W58227  34.372   5.438  19.070 -0.0124  0.1538 -0.0871
15315W        W58228  19.309   7.352  26.244  0.1211  0.1546 -0.1700
15316W        W58229  28.858   0.022  24.423 -0.0099  0.0691 -0.2293
15317W        W58230  18.257  30.053  27.087  0.0233 -0.2731 -0.3704
15318W        W58231  11.966  31.832  24.475  0.3681  0.0207 -0.2754
15319W        W58232  14.906   6.901  23.661 -0.2658  0.2524 -0.2142
15320W        W58233  34.173   3.913  25.818 -0.1037  0.0656  0.1480
15321W        W58234  11.180  24.182  22.895 -0.2951 -0.0722  0.1231
15322W        W58235  22.891  32.418  23.565  0.1599  0.2843  0.1512
15323W        W58236  25.094  32.816   0.265 -0.2829 -0.2612  0.1245
15324W        W58237  29.814  33.746  25.961 -0.3210 -0.1316  0.0817
15325W        W58238  26.456  31.384  21.034  0.1578 -0.1685 -0.0313
15326W        W58239  23.383  29.612  21.817 -0.0756  0.1400 -0.1377
15327W        W58240  29.992  25.815  17.952 -0.0293  0.1873  0.1194
15328W        W58241  23.062   5.390  27.854 -0.0503  0.0074  0.0784
15329W        W58242  28.547   8.627  23.428 -0.0160  0.0482  0.0252
15330W        W58243  22.954   4.525   8.214 -0.1571  0.3256  0.0466
15331W        W58244  23.948   5.897  23.741  0.1158  0.1238 -0.0600
15332W        W58245  28.336  10.452  16.661  0.0300 -0.1096 -0.1154
15333W        W58246  21.433   4.470  21.551  0.1013  0.1141  0.1798
15334W        W58247  25.332   6.582  23.019 -0.2799 -0.0594  0.2156
15335W        W58248  18.235   3.691  18.863 -0.0529 -0.0860 -0.3863
15336W        W58249  25.080   4.659   7.125  0.1311 -0.0346  0.0133
15337W        W58250  28.386   9.006   5.087  0.3719  0.0644  0.1201
15338W        W58251  32.505   1.415  21.523  0.1669 -0.2929  0.0033
15339W        W58252  24.215   4.114   1.042  0.0240 -0.0343 -0.0262
15340W        W58253  20.725   2.015   0.001  0.0107  0.1083 -0.0948
15341W        W58254  31.253  32.631  17.149  0.1777  0.0966  0.1546
15342W        W58255  16.918  31.173  22.081  0.2165  0.1454  0.0493
15343W        W58256  32.361   3.426   0.785  0.3474  0.1058 -0.0401
15344W        W58257  27.725   1.518  21.033 -0.2841 -0.1196 -0.2184
15345W        W58258  30.121   0.504  22.033 -0.2048 -0.3441  0.4770
15346W        W58259  29.171   4.503  16.085  0.0193  0.3079 -0.0099
15347W        W58260  26.756   2.990  22.704  0.4058 -0.2416 -0.0426
15348W        W58261  20.062  13.228   6.909  0.0247 -0.4042  0.1359
15349W        W58262  29.617   5.936  29.777 -0.0203  0.0366  0.1462
15350W        W58263  25.306  25.283  19.103  0.2439 -0.1363  0.0918
15351W        W58264  28.326  29.714  24.083 -0.2910 -0.2378 -0.0301
15352W        W58265  31.983  29.404  25.628 -0.1841  0.0520 -0.1411
15353W        W58266  27.071   2.713  26.354  0.1501  0.2733 -0.0674
15354W        W58267  26.625   1.214  17.719 -0.1502  0.0601 -0.1344
15355W        W58268  21.770  34.302  19.077  0.0422  0.2446  0.1127
15356W        W58269  32.960  33.542   7.639  0.0683  0.0336  0.1872
15357W        W58270  27.941  25.548  27.339  0.2275  0.1961 -0.1186
15358W        W58271  20.138   5.134  27.753  0.1436  0.3013  0.2425
15359W        W58272  17.916  34.285  22.224 -0.3944 -0.3050 -0.0425
15360W        W58273  25.645  26.536  22.974 -0.2774 -0.1817 -0.3671
15361W        W58274  33.436   3.634  20.365 -0.0907  0.3846  0.0049
15362W        W58275  28.521  11.661  27.450  0.0380  0.1484 -0.0076
15363W        W58276  26.433   7.683   2.971  0.3966  0.4461  0.2082
15364W        W58277  24.893  31.401  26.011 -0.0509  0.0005  0.1094
15365W        W58278  24.964  33.690  19.615 -0.1070  0.0919  0.0685
15366W        W58279  29.567  33.883  25.340  0.2193 -0.0569 -0.1975
15367W        W58280  27.330  31.080  28.062 -0.1248  0.3437 -0.1914
15368W        W58281  33.946  23.296  24.254 -0.1983 -0.0640 -0.2088
15369W        W58282  31.975  33.302  21.667  0.0330 -0.0291 -0.1240
15370W        W58283  18.393  32.151  21.564 -0.2196 -0.0572 -0.1948
15371W        W58284  29.647  12.187  20.746 -0.2158  0.2048  0.0318
15372W        W58285  22.204   5.914  15.885  0.0941  0.1858 -0.1556
15373W        W58286  22.674  28.244  29.306  0.0117 -0.0524  0.0869
15374W        W58287  13.311   0.602   2.189  0.0878  0.3759 -0.1754
15375W        W58288   2.360  26.742   1.950 -0.1597  0.1616 -0.1221
15376W        W58289  22.113  24.972   3.637 -0.0633  0.0040  0.2363
15377W        W58290   2.814   3.219  25.299 -0.2490  0.0096 -0.3249
15378W        W58291  33.741   5.795  18.967 -0.0569  0.1745 -0.0080
15379W        W58292  27.008   7.665  21.535  0.1010  0.0283 -0.4189
15380W        W58293  21.839   9.976  23.112  0.1330  0.1083  0.2332
15381W        W58294  28.856  33.369  27.504  0.0631  0.3101  0.0063
15382W        W58295   1.748  12.707  14.799 -0.2244  0.0123  0.0538
15383W        W58296  18.449   2.864  27.369  0.0351  0.0065  0.2727
15384W        W58297  23.503   8.591   0.008  0.2406  0.2625 -0.0334
15385W        W58298  30.902  26.086  20.050  0.2596 -0.0344  0.2792
15386W        W58299  25.590   2.085  15.125  0.2221  0.0503 -0.0147
15387W        W58300  11.037  31.040  18.596  0.1616 -0.3537 -0.0532
15388W        W58301  27.772   5.746  26.884  0.4547 -0.1826 -0.0280
15389W        W58302  23.582  25.821  20.016 -0.0911 -0.1913 -0.3000
15390W        W58303  32.029  25.547  29.713 -0.0001  0.3421 -0.1179
15391W        W58304  26.780   3.139  26.610 -0.1849  0.1566  0.2289
15392W        W58305  24.935  10.596  29.267  0.2771 -0.0883  0.1394
15393W        W58306  25.540   4.582  17.944 -0.1572  0.2888  0.2188
15394W        W58307  11.611  28.080  23.030 -0.2254  0.2922 -0.1991
15395W        W58308  31.469   5.066   3.756 -0.1237  0.1394  0.1172
15396W        W58309  27.110   7.413  22.187 -0.1283 -0.0208 -0.1563
15397W        W58310  26.608  33.055   0.941 -0.0603 -0.1934 -0.1587
15398W        W58311  32.670  31.130  24.596 -0.2486  0.0382  0.1121
15399W        W58312  31.940  34.015  19.045  0.2437 -0.1850 -0.0437
15400W        W58313  24.220   7.345  17.690 -0.1368 -0.1114  0.0177
15401W        W58314  22.664   1.705   0.389 -0.6671  0.0603 -0.1393
15402W        W58315  20.373  28.476  26.816  0.1328  0.5608 -0.0206
15403W        W58316  29.958  31.934  19.056  0.0862  0.0087 -0.0074
15404W        W58317  24.930  18.499  25.845 -0.1803 -0.0121 -0.0602
15405W        W58318   7.107  33.699  22.669  0.2444  0.0296 -0.0246
15406W        W58319  25.326  14.697  29.334 -0.2413 -0.0319 -0.2334
15407W        W58320  23.405  28.214  17.042  0.1326 -0.2972 -0.0616
15408W        W58321  30.369   7.742  16.891 -0.0361  0.0718 -0.0205
15409W        W58322  26.220  33.744   3.146  0.1066  0.1555  0.1588
15410W        W58323  27.315  29.395  24.271 -0.1507 -0.0937 -0.0549
15411W        W58324  10.212   3.453  24.478 -0.1499  0.0989 -0.0533
15412W        W58325  28.814  21.474   0.372  0.0895  0.0844  0.0838
15413W        W58326  26.414   7.970  28.329 -0.2250 -0.0940  0.0481
15414W        W58327  18.078  29.625  25.486  0.3328  0.1993  0.1318
15415W        W58328  27.981   8.182  24.211  0.0190  0.0883 -0.2413
15416W        W58329  12.427  10.496  26.001 -0.1263 -0.1505 -0.0244
15417W        W58330  25.775  16.172  14.891  0.2012  0.4791 -0.3423
15418W        W58331  28.191  15.775  23.939  0.0647  0.2342 -0.1024
15419W        W58332  29.555   5.746  19.490  0.0559  0.0028 -0.0193
15420W        W58333  16.559  31.620  16.783  0.2510 -0.2051 -0.0362
15421W        W58334  27.731  26.279  19.861 -0.0391  0.3484 -0.0393
15422W        W58335   1.930  31.970  23.719  0.0888  0.4603  0.1057
15423W        W58336  21.472   5.830   2.839 -0.1035  0.1777  0.0015
15424W        W58337  21.017  31.647  22.149  0.1816 -0.2015  0.0173
15425W        W58338   1.459   0.890  25.499 -0.3718 -0.0611  0.1730
15426W        W58339   0.312  32.225   1.299  0.0777  0.0626  0.1773
15427W        W58340  20.640  29.998   5.636 -0.3726  0.2285 -0.1137
15428W        W58341  16.316  30.631   3.667  0.4048  0.0220 -0.1315
15429W        W58342  22.627  33.377  21.806  0.0480  0.1191  0.1192
15430W        W58343  26.754  25.876  23.514 -0.2222  0.1347  0.0994
15431W        W58344  25.607   3.370  24.398 -0.2099  0.1227 -0.3387
15432W        W58345  32.291  31.468  29.675 -0.1812  0.0828 -0.1157
15433W        W58346  30.474   6.389  21.173  0.3002 -0.2210  0.0565
15434W        W58347   3.022   3.800  28.468  0.1483  0.2759  0.0928
15435W        W58348   4.334  33.826  26.273  0.2249 -0.0651 -0.1910
15436W        W58349  18.983   1.991  21.643  0.3418  0.0908 -0.0005
15437W        W58350  19.921   5.201  24.049 -0.2328  0.1618 -0.1227
15438W        W58351  26.075  16.805  20.915 -0.2292  0.0702 -0.0683
15439W        W58352  26.799  33.494  27.291  0.3893 -0.1049  0.2371
15440W        W58353  27.125   2.507  21.862  0.1354  0.3544  0.0801
15441W        W58354  17.845   0.267  15.249 -0.0538 -0.1804  0.0225
15442W        W58355  25.979   4.483  14.468  0.0120  0.1418 -0.5585
15443W        W58356  20.266   4.080  23.406 -0.1665 -0.1032 -0.1295
15444W        W58357  24.114  33.599  28.058  0.2884  0.0263  0.3552
15445W        W58358   4.025  30.341  24.321 -0.1351  0.2492 -0.1594
15446W        W58359  22.137   8.856  22.404  0.2176  0.0562 -0.6502
15447W        W58360   0.851   7.289   3.518 -0.0983  0.1979  0.1881
15448W        W58361  23.998  29.759   4.242 -0.4595  0.4226  0.0226
15449W        W58362  25.777   4.107  28.566  0.0304 -0.1178 -0.3890
15450W        W58363  23.881   5.419   6.759 -0.2088  0.0732  0.1115
15451W        W58364  31.077   2.895  17.391  0.2181 -0.0912 -0.1682
15452W        W58365  25.378   2.702   1.617 -0.1906  0.1864 -0.4671
15453W        W58366  30.188  31.540  23.712 -0.5227 -0.3548  0.2889
15454W        W58367  26.955   4.637  26.054 -0.0785  0.0079 -0.1939
15455W        W58368   1.060   0.527  28.389  0.4181  0.2399  0.0909
15456W        W58369  30.008  10.055  29.456 -0.1362  0.1101  0.0937
15457W        W58370  26.632   5.829  20.656 -0.2494  0.1405  0.0291
15458W        W58371  24.195  26.859  16.463  0.0831  0.1053 -0.0700
15459W        W58372  15.116   0.046  23.870  0.2454 -0.1034 -0.0634
15460W        W58373  23.163  11.934  28.176  0.2529 -0.2360  0.2769
15461W        W58374  31.611   3.615  20.642  0.1773 -0.2284  0.0502
15462W        W58375  19.187   0.104  24.223  0.2286 -0.1287 -0.2171
15463W        W58376  30.454   9.395   0.786 -0.2298 -0.2377  0.0059
15464W        W58377   1.220   3.832  26.799  0.2274 -0.0223  0.0331
15465W        W58378  19.108  26.546  24.476 -0.3592 -0.2831  0.1470
15466W        W58379  27.185  33.133  19.373 -0.1500  0.0970 -0.4379
15467W        W58380  24.075  10.742  25.357  0.1047 -0.0314 -0.1214
15468W        W58381  27.691   5.861  29.439  0.1372 -0.1721 -0.2709
15469W        W58382  28.244  32.557  26.098 -0.1566 -0.0289  0.2255
15470W        W58383  26.718  33.952  27.493  0.0162  0.4716  0.5607
15471W        W58384  24.091   7.911  26.749  0.0131  0.0466  0.0475
15472W        W58385   4.471   1.980  20.010 -0.0339 -0.0846 -0.0282
15473W        W58386  22.336   7.786  27.430 -0.0360 -0.0844 -0.0193
15474W        W58387  20.948  31.086  14.796 -0.1934  0.1702  0.2711
15475W        W58388  34.042   5.842  27.399  0.0073 -0.2485  0.1530
15476W        W58389  25.915  18.715  19.822  0.1045  0.3810 -0.1299
15477W        W58390  26.286   2.050  27.747 -0.2512  0.0680 -0.1525
15478W        W58391  19.984  24.108  25.400  0.0185  0.0984 -0.0037
15479W        W58392  18.429   2.325  18.336 -0.0235 -0.0701  0.0339
15480W        W58393  23.606   7.820   3.360  0.0254 -0.0699  0.1537
15481W        W58394  25.276  21.428  14.116 -0.3599  0.1454  0.2321
15482W        W58395  15.074   5.285  25.717 -0.2867 -0.2263  0.0681
15483W        W58396  25.049  29.820   3.119  0.0896  0.2170 -0.2833
15484W        W58397  33.992   8.015   2.195  0.1458  0.5493  0.0833
15485W        W58398  22.175   3.979  27.217 -0.5364 -0.2810  0.2779
15486W        W58399  28.495  27.387  24.167  0.1600 -0.1982 -0.1170
15487W        W58400  23.054  11.774  16.756 -0.0858  0.1284  0.1558
15488W        W58401  30.554  33.139  29.707  0.0584  0.0865 -0.2427
15489W        W58402  24.092  10.445  27.918 -0.0826 -0.1417  0.1368
15490W        W58403   0.032  29.652   0.203 -0.0050  0.0967 -0.1505
15491W        W58404  31.910  15.468  14.582  0.2385 -0.0441  0.0267
15492W        W58405  24.808   4.485  20.246 -0.0580 -0.0746 -0.0006
15493W        W58406  31.903   0.799  28.968 -0.0900 -0.1552 -0.0803
15494W        W58407  34.442  31.425   8.444 -0.0750 -0.2368  0.1312
15495W        W58408  28.031  34.003  26.913  0.0371  0.1297  0.2928
15496W        W58409  28.713  11.644  21.429  0.2332 -0.3342 -0.1327
15497W        W58410  20.967  34.458  23.325 -0.0921  0.0535  0.0651
15498W        W58411  27.225   3.003  16.400  0.1185 -0.3184 -0.0289
15499W        W58412  25.495   8.731  15.592  0.3341 -0.0479  0.3730
15500W        W58413  22.701   8.204  15.331 -0.0632  0.1326  0.1115
15501W        W58414  12.541  32.549  19.859  0.0513 -0.2443 -0.4744
15502W        W58415  20.940   0.029  21.378 -0.2287  0.1882  0.0308
15503W        W58416  23.955   3.686  28.239  0.1806  0.3051 -0.1185
15504W        W58417  21.452  11.458  28.125 -0.1299 -0.0115 -0.0180
15505W        W58418  14.476   6.485   2.263  0.1832  0.0443  0.0808
15506W        W58419  21.076   7.014  27.645 -0.3786 -0.2490 -0.0543
15507W        W58420  27.290   6.567  14.870 -0.0216 -0.1170  0.0538
15508W        W58421  18.306   0.680  17.582  0.1490  0.0294  0.1991
15509W        W58422  28.672  30.439  15.951  0.3795  0.2853  0.3322
15510W        W58423  27.673   6.214  22.559 -0.0279 -0.0753 -0.0650
15511W        W58424  29.199  30.052   1.498  0.0533  0.2104 -0.0325
15512W        W58425  25.324  33.390   2.868  0.0090 -0.0961  0.2177
15513W        W58426  26.973  23.885  16.451  0.2513 -0.1680  0.0599
15514W        W58427  24.465  30.781  15.985  0.1119 -0.1251  0.3886
15515W        W58428  27.091  32.381  24.483  0.2903  0.1170 -0.0421
15516W        W58429  31.316   4.132   0.635 -0.2343 -0.0873  0.1694
15517W        W58430  22.160   0.960  19.364  0.1681  0.4489 -0.0347
15518W        W58431  28.884  31.809   2.595 -0.1211  0.0021  0.0676
15519W        W58432  31.310   6.027  25.892  0.0573 -0.0307  0.3109
15520W        W58433  25.043  34.080  21.603 -0.0885 -0.0037  0.0505
15521W        W58434  26.167   2.739   2.904 -0.1131 -0.1858  0.1018
15522W        W58435  21.751   7.130  26.104 -0.3188 -0.0826  0.0316
15523W        W58436   1.806  28.932   6.004  0.0540  0.0274  0.2370
15524W        W58437  30.467  32.022  20.725 -0.4067  0.1705 -0.2725
15525W        W58438  32.044   6.643  19.313 -0.0957  0.1852  0.0081
15526W        W58439  17.463   3.996  22.599  0.3189 -0.0943 -0.0410
15527W        W58440  22.940  27.290  28.113 -0.1381  0.0196 -0.1314
15528W        W58441  28.231  10.307  28.239 -0.0342  0.1981  0.4548
15529W        W58442  26.836   2.687  19.308 -0.2538 -0.1625  0.1864
15530W        W58443  28.579  24.666  17.603  0.0349  0.0603  0.0176
15531W        W58444  26.526   0.482  18.342  0.1315  0.0071  0.0735
15532W        W58445  15.264  23.445  15.613  0.1633 -0.4212 -0.0238
15533W        W58446  25.736  29.205  27.142 -0.0388 -0.2728  0.1242
15534W        W58447  19.680   1.567   5.779  0.5239  0.2203 -0.2637
15535W        W58448  23.643   8.687  15.889 -0.3270 -0.0780  0.1290
15536W        W58449  23.876  33.190  28.338 -0.1392  0.2372  0.1755
15537W        W58450  30.988  10.820  17.754 -0.0478  0.2713  0.2797
15538W        W58451  22.061  33.950  16.433 -0.1135  0.0238  0.2245
15539W        W58452  29.554   7.857  17.491 -0.0896  0.4587  0.0235
15540W        W58453   0.406   4.721  25.770 -0.1476  0.0494 -0.1897
15541W        W58454  16.980  32.297  28.470  0.0091  0.0354  0.0598
15542W        W58455  29.783   2.614   2.841  0.1450  0.0159  0.3089
15543W        W58456   5.145  34.330  29.443 -0.0785 -0.0223  0.0633
15544W        W58457  28.782  29.687  16.886  0.0946 -0.0521 -0.1014
15545W        W58458  22.547   2.343  27.074  0.1237  0.0919  0.0852
15546W        W58459  29.708   2.211   0.887 -0.3312  0.0712  0.0496
15547W        W58460  23.244   1.611  28.587  0.0017  0.0757  0.0218
15548W        W58461  17.470  34.145  29.001  0.1296  0.1306 -0.0225
15549W        W58462  11.873  34.212  26.561  0.1289  0.0352  0.1836
15550W        W58463  30.083   8.918   6.267  0.0367 -0.3483  0.2361
15551W        W58464  30.946  14.839  24.710  0.0174  0.0058  0.1281
15552W        W58465  18.212   6.444  21.586 -0.2794  0.0910  0.1168
15553W        W58466  29.838  32.159  19.607  0.0004  0.2597  0.0816
15554W        W58467  24.176   6.464   0.187  0.2596 -0.0572 -0.1420
15555W        W58468  26.633  11.976  26.054 -0.0382  0.0765  0.3379
15556W        W58469  12.463   7.629  19.022 -0.3272  0.0541  0.1404
15557W        W58470  26.467  27.837  20.828 -0.2058  0.0234  0.2672
15558W        W58471  28.924   5.660   2.049  0.0505 -0.2021 -0.1897
15559W        W58472  31.090   9.421  19.680  0.1230 -0.0606 -0.0905
15560W        W58473  29.465   2.431  25.682 -0.0976 -0.0470 -0.0180
15561W        W58474  22.462  33.865   5.924 -0.3560 -0.0949 -0.4025
15562W        W58475  26.235  33.438   7.362  0.3599 -0.2075 -0.1903
15563W        W58476  22.341  26.095   4.088 -0.1048 -0.2807 -0.1689
15564W        W58477  17.934   3.767  20.825  0.0839 -0.1391 -0.4208
15565W        W58478  31.033  15.024  21.776 -0.3399  0.1926 -0.1473
15566W        W58479   5.721   0.737  10.468  0.2073  0.2071 -0.0259
15567W        W58480  22.564   8.194  26.068  0.2218 -0.1916  0.2987
15568W        W58481  12.951  15.165  17.136 -0.3581  0.0320  0.0928
15569W        W58482  12.522   8.821  16.329 -0.2808 -0.2243  0.0147
15570W        W58483  25.557  33.676   1.566  0.2139 -0.0195  0.0750
15571W        W58484  23.726   2.701   5.671 -0.0038  0.1292  0.2306
15572W        W58485  27.211   4.985  23.694  0.0527 -0.1219  0.3393
15573W        W58486  29.336  31.942   0.639  0.1855 -0.0685  0.1420
15574W        W58487  26.596   1.439   5.181  0.4243  0.2494 -0.0002
15575W        W58488   5.736  32.446   3.784  0.1040 -0.0823 -0.1316
15576W        W58489  26.254  30.530  18.965  0.2076 -0.0085 -0.3795
15577W        W58490  33.257   5.148  26.401  0.0380  0.0576  0.1527
15578W        W58491  23.529  17.957  23.553 -0.2629 -0.4725 -0.0908
15579W        W58492  28.422   7.735   0.411 -0.0098 -0.1009  0.2846
15580W        W58493  16.456   5.694   1.743  0.1968  0.1931 -0.1705
15581W        W58494  30.399  28.415  26.274 -0.0645 -0.1136  0.2976
15582W        W58495   9.738  31.701  25.590  0.4005  0.0767 -0.1037
15583W        W58496  18.572  33.288  26.539 -0.0074  0.0611  0.1142
15584W        W58497  17.443  13.519  23.166  0.0589  0.3778  0.0207
15585W        W58498   1.495   2.071   8.568 -0.3839  0.3076  0.2140
15586W        W58499  25.308   6.858  29.264 -0.1140 -0.1673 -0.1748
15587W        W58500  16.822  22.490  27.039  0.0025 -0.0479 -0.0262
15588W        W58501  34.240  34.320  21.068 -0.2663  0.1763 -0.0653
15589W        W58502  23.335   4.149   0.568 -0.2231 -0.0231 -0.3465
15590W        W58503  15.183   2.665   1.105  0.1622 -0.2363 -0.0070
15591W        W58504  23.273  33.255  16.308 -0.0223  0.2006 -0.1417
15592W        W58505  12.711   0.575  17.710 -0.1151 -0.0403  0.0053
15593W        W58506  20.500  30.547   0.830  0.0066  0.1510  0.2407
15594W        W58507   3.326   6.243  27.645  0.2684 -0.2805  0.1108
15595W        W58508  24.587   0.044   0.206  0.2309  0.2734  0.2339
15596W        W58509   1.420   5.921  27.105  0.2649  0.0146 -0.2164
15597W        W58510  30.065  22.034  18.805 -0.0042  0.1264 -0.1895
15598W        W58511   2.013   6.016  24.313  0.0341 -0.4148 -0.1922
15599W        W58512  17.821  30.756  29.720 -0.1481 -0.0035  0.1992
15600W        W58513  24.971   8.349  25.985 -0.0558 -0.0671 -0.3797
15601W        W58514  32.476  13.855  28.138  0.4017  0.1121 -0.0643
15602W        W58515   9.635  10.843  20.083  0.2056 -0.0070 -0.3622
15603W        W58516  31.305  25.804  17.902 -0.0355 -0.2490 -0.1375
15604W        W58517   7.932   1.174  25.228  0.0527  0.1155 -0.1672
15605W        W58518   6.439  15.266  22.694 -0.0305  0.4208  0.1320
15606W        W58519  19.202  30.533   5.049  0.0547 -0.0381 -0.0830
15607W        W58520  24.058   4.209  21.111 -0.0225 -0.1229  0.4974
15608W        W58521  15.256   2.030  28.749 -0.1443  0.1757  0.3926
15609W        W58522   9.389   8.517  24.046 -0.0329 -0.0951  0.1044
15610W        W58523  31.670  12.293  28.289  0.2078  0.1832 -0.3648
15611W        W58524  30.423  26.043   2.623 -0.0356 -0.1689 -0.0357
15612W        W58525  25.959  27.588   1.653 -0.0149 -0.1184  0.1391
15613W        W58526  21.652   1.862   2.460  0.1600  0.0666 -0.1105
15614W        W58527  33.739   0.535   3.796  0.0160  0.3032  0.1047
15615W        W58528  26.518  32.688  28.939 -0.0010 -0.0770  0.3622
15616W        W58529  33.723   4.972  11.368  0.1886 -0.2384 -0.3374
15617W        W58530  28.999  31.195  28.697  0.0829  0.1260  0.1950
15618W        W58531  31.882   7.840  28.938  0.0068  0.0568  0.2338
15619W        W58532  21.359   2.759  23.003 -0.1581 -0.0307  0.0867
15620W        W58533  26.473  28.265  22.914  0.2763  0.0381  0.0002
15621W        W58534  22.768   7.732   3.608  0.0708 -0.2742  0.4355
15622W        W58535  21.641  12.546  22.061  0.2410 -0.0584 -0.0618
15623W        W58536  33.656   2.968  21.483  0.0774  0.1753  0.0160
15624W        W58537  23.012  30.851  19.954 -0.1095  0.1353  0.0617
15625W        W58538  26.169  32.751   4.645 -0.5283  0.0310 -0.1440
15626W        W58539   1.391  28.737  27.368 -0.0898 -0.4277  0.1759
15627W        W58540  33.470   6.557  21.183 -0.2083  0.0057 -0.0846
15628W        W58541  20.255   2.147  23.975 -0.3357 -0.0681 -0.1207
15629W        W58542  31.255   7.796   5.522  0.0439 -0.0585  0.1490
15630W        W58543  15.688  33.146  21.926  0.0232  0.0298 -0.1619
15631W        W58544  27.724   5.143  28.549  0.0573  0.3133  0.0795
15632W        W58545   0.159   0.269   8.800 -0.0866 -0.1087 -0.2687
15633W        W58546  12.101   4.002   0.228 -0.0824 -0.2795 -0.0541
15634W        W58547  27.640   3.418   2.248 -0.4247 -0.0612  0.1599
15635W        W58548  33.288   7.897  22.013 -0.3933  0.2840  0.1084
15636W        W58549   0.233   1.611  27.840 -0.1560 -0.0580 -0.2030
15637W        W58550  22.826   9.599  28.471 -0.3971 -0.0499  0.1106
15638W        W58551  20.016  23.906   1.895  0.0282 -0.2622 -0.2320
15639W        W58552  19.658   1.985  22.784 -0.1328 -0.0263 -0.4030
15640W        W58553  23.546  10.085  22.338 -0.0379  0.0494 -0.0245
15641W        W58554  29.459  24.503  21.887  0.1532 -0.0383  0.0024
15642W        W58555  22.613  28.192   0.946 -0.3894 -0.0661 -0.1018
15643W        W58556  17.657  25.842  27.842 -0.2459 -0.0990 -0.1410
15644W        W58557  19.570   7.199   9.226  0.2373  0.1135 -0.1305
15645W        W58558  31.248   3.473   0.786 -0.1131  0.2511 -0.3317
15646W        W58559  29.775  27.595   3.401  0.0603  0.1895  0.0515
15647W        W58560  30.985  33.385   6.858 -0.2117 -0.1324  0.1334
15648W        W58561  17.671   1.341  26.192 -0.0754 -0.2184  0.0326
15649W        W58562  27.995  20.126  16.636 -0.0304 -0.0601  0.3023
15650W        W58563  16.574  32.252  26.004 -0.1084  0.1781  0.2115
15651W        W58564  33.704  31.378  27.046  0.0919 -0.2689 -0.0441
15652W        W58565  26.638  32.476   8.182  0.2729 -0.1901 -0.0887
15653W        W58566  23.700  31.590  26.617  0.0071 -0.2183  0.0618
15654W        W58567  17.733  32.616   4.421  0.1857 -0.1433  0.2293
15655W        W58568  31.279  33.227   4.849 -0.3135  0.0273 -0.2843
15656W        W58569  28.021  10.348  25.762  0.0004  0.2321 -0.1252
15657W        W58570  27.414  11.357  28.013 -0.3287 -0.0583  0.1072
15658W        W58571  23.222   5.524   5.834  0.1373 -0.2064 -0.0688
15659W        W58572  24.635  11.392   8.647 -0.3652 -0.0729  0.0596
15660W        W58573  30.613  17.244  27.297 -0.0229  0.2030  0.3318
15661W        W58574  32.484  31.662  23.316  0.0427  0.0890 -0.1436
15662W        W58575  26.099  34.239   2.059 -0.2436  0.0251 -0.0381
15663W        W58576  30.032   5.512   6.816 -0.2789 -0.0753  0.1055
15664W        W58577  33.662   4.297  20.870 -0.1637  0.3166 -0.2406
15665W        W58578  21.391   0.225   0.177 -0.0977  0.3209  0.0610
15666W        W58579  27.269  30.144   7.906 -0.2873  0.0036 -0.0486
15667W        W58580  20.547  25.889  20.991 -0.1407  0.0131  0.4020
15668W        W58581  24.533  12.646   0.692  0.0829  0.0135 -0.1071
15669W        W58582  28.693   0.868  29.720  0.1244  0.2126 -0.0074
15670W        W58583  32.642   0.839  27.260  0.1920  0.0636  0.0669
15671W        W58584  21.028   4.652   3.087 -0.0486 -0.1390  0.2195
15672W        W58585  27.179   4.471  26.488  0.3572  0.2125  0.1965
15673W        W58586  20.413  33.320   7.706  0.2087 -0.0509 -0.2028
15674W        W58587   7.972  28.134   0.013  0.0003  0.2156  0.1157
15675W        W58588  26.421   2.395  14.998 -0.3584  0.1823 -0.2580
15676W        W58589  22.079  34.044  24.768  0.1267 -0.3413  0.1122
15677W        W58590  22.174  26.696  14.254 -0.0352 -0.1425 -0.3102
15678W        W58591  15.939   1.467  26.448  0.2658  0.3237 -0.2555
15679W        W58592  26.838  32.814  22.684 -0.0594  0.2043 -0.0469
15680W        W58593  22.798   0.373   3.636  0.0566 -0.2869 -0.1705
15681W        W58594   6.163  28.799   4.153  0.1534 -0.1370  0.3970
15682W        W58595  23.956   1.494   0.432  0.1915  0.2825  0.1188
15683W        W58596  19.128   1.350  26.073  0.0189 -0.2215 -0.0868
15684W        W58597  27.715  10.536   7.937  0.1073  0.0043  0.0430
15685W        W58598   0.401   2.784   3.500 -0.1962  0.1042  0.3896
15686W        W58599  19.294   4.069  24.477  0.1193  0.1153  0.1056
15687W        W58600  24.155  16.170  28.376 -0.2372  0.0490  0.2944
15688W        W58601  22.512  31.266   6.492 -0.0943 -0.0332  0.0304
15689W        W58602  22.690  11.172   1.586 -0.1089  0.1839  0.3684
15690W        W58603  29.777   2.778  23.457  0.0492  0.2096 -0.4330
15691W        W58604  23.658  23.988  14.656 -0.0891 -0.0471 -0.1833
15692W        W58605  20.805   8.875  18.671 -0.1617 -0.2314  0.0485
15693W        W58606  32.628   5.318  24.108 -0.2537  0.1711 -0.2459
15694W        W58607  21.334   7.685  25.071 -0.3701  0.2233 -0.0552
15695W        W58608  16.894   3.075  29.411  0.1838 -0.3478  0.1556
15696W        W58609   4.229   4.704  25.054  0.0927 -0.1613 -0.0915
15697W        W58610  15.763  29.228  27.990  0.0677 -0.0338 -0.2812
15698W        W58611  25.993   0.144  23.002 -0.0853 -0.0545  0.0679
15699W        W58612   8.122   3.418   2.419  0.1421  0.1328 -0.0026
15700W        W58613  25.701   1.574  28.802  0.0698  0.1119 -0.0262
15701W        W58614  25.870  11.101  23.557 -0.3215 -0.3926  0.0807
15702W        W58615  28.522   3.642  20.703 -0.2019  0.0093 -0.3293
15703W        W58616   1.238  31.410   7.240 -0.0972  0.5105 -0.1757
15704W        W58617  24.965   5.684  17.862 -0.0995  0.1169  0.3552
15705W        W58618  31.756  33.892  16.549 -0.3294  0.0005 -0.0787
15706W        W58619  22.842   0.920  25.283  0.0296 -0.2311 -0.2428
15707W        W58620  34.173   1.038  11.115  0.0847 -0.2843 -0.0458
15708W        W58621   0.090   3.693   0.345  0.1887 -0.0021  0.0375
15709W        W58622  30.250   2.175  24.744 -0.0229  0.0987 -0.0813
15710W        W58623  27.896   0.894  21.957  0.2061  0.1128 -0.0207
15711W        W58624  29.184   9.154  25.720 -0.5761  0.0160 -0.1895
15712W        W58625  23.676   8.750  28.318 -0.1248  0.1229 -0.1452
15713W        W58626  25.327   3.796  26.933 -0.0059  0.0973 -0.3341
15714W        W58627  23.382   1.851  17.333  0.1307 -0.0902  0.0312
15715W        W58628  26.775  13.256  25.868 -0.2213  0.0997  0.1058
15716W        W58629   2.699  30.541   3.269 -0.0454  0.0988  0.0921
15717W        W58630  28.145   5.456   7.884  0.1154  0.3067 -0.0201
15718W        W58631   5.595  33.573  28.991  0.0974 -0.0998  0.0128
15719W        W58632  15.946   2.506  19.730 -0.0894  0.4113  0.0631
15720W        W58633  32.240  14.469  28.244  0.4130 -0.2385  0.2781
15721W        W58634  33.951   4.167  28.927  0.0105  0.1360 -0.1505
15722W        W58635  11.600  29.486   7.217  0.0227  0.0427  0.1351
15723W        W58636  26.858  31.684  19.265 -0.0143 -0.2208 -0.2451
15724W        W58637  31.905   1.813  24.314 -0.2892 -0.0649  0.0791
15725W        W58638  23.389   0.265  22.005 -0.0579 -0.3167  0.3424
15726W        W58639  31.290  27.532  27.935  0.0890  0.0421  0.0474
15727W        W58640  24.857   7.990  21.593  0.3580  0.1738 -0.1290
15728W        W58641  26.234  33.766   1.181 -0.0019  0.1425  0.1596
15729W        W58642  16.376   0.496  25.474  0.1313  0.4897  0.3609
15730W        W58643  32.814  29.105  21.610  0.0143  0.0540  0.0887
15731W        W58644  10.737   9.881  20.008 -0.3020  0.1258 -0.0757
15732W        W58645  23.880   2.192  28.778 -0.0739 -0.0042  0.0138
15733W        W58646  16.244   0.089   2.088  0.2407  0.1949 -0.0149
15734W        W58647  24.351  29.342  18.221 -0.0002  0.2666 -0.0182
15735W        W58648  20.300   2.008  27.988 -0.0686  0.2805  0.4565
15736W        W58649   7.332   0.347  23.485  0.5271  0.2230 -0.0135
15737W        W58650  23.328   2.271  28.880  0.2024 -0.2499  0.3888
15738W        W58651  27.634  29.308   5.137  0.0356  0.1895  0.2142
15739W        W58652  18.086  13.414   7.687  0.2865  0.2447  0.1424
15740W        W58653   2.999  33.044  28.190  0.0933 -0.0512  0.0905
15741W        W58654  29.505   9.482  24.006 -0.0799 -0.0904  0.0157
15742W        W58655  20.996  11.229  28.740  0.1169  0.0142  0.0236
15743W        W58656  18.977   4.369   0.341  0.0865 -0.2740 -0.1760
15744W        W58657  31.451   0.884   4.890 -0.1841  0.0880  0.1163
15745W        W58658  27.986  22.145  24.664 -0.2829 -0.1216  0.0754
15746W        W58659  31.821   3.757  10.256  0.0836  0.0450 -0.1303
15747W        W58660  26.068   7.594  25.376  0.0935  0.0552 -0.1135
15748W        W58661  14.317  34.290  27.996 -0.2898  0.1757  0.2704
15749W        W58662  20.126   7.593  25.822 -0.1716  0.0661 -0.1165
15750W        W58663  30.739  29.414  25.849  0.2643 -0.1417  0.2351
15751W        W58664  25.828  31.517   0.499  0.1820 -0.0341 -0.1211
15752W        W58665  11.359  30.197  16.528 -0.0033  0.0286 -0.0231
15753W        W58666  19.073  33.587  27.976  0.0043 -0.1070 -0.1367
15754W        W58667   4.351   2.902  25.945  0.0577  0.1499  0.1092
15755W        W58668  28.124   2.888   6.708 -0.2120  0.1050 -0.2148
15756W        W58669   0.962   0.982   0.016  0.0049  0.1359  0.1580
15757W        W58670  32.072  18.646   2.883 -0.3221 -0.0117 -0.1123
15758W        W58671  31.397   6.963  16.251 -0.1857  0.1207 -0.1489
15759W        W58672  27.424   7.510   1.382  0.2176 -0.2247  0.2204
15760W        W58673  23.403  10.278  29.687 -0.0340  0.0280 -0.0271
15761W        W58674   4.566   6.387   4.638  0.3058  0.0529 -0.3173
15762W        W58675  16.102  31.755  29.675 -0.1224  0.0568  0.0304
15763W        W58676  26.350  31.605  28.784 -0.1124  0.0443 -0.1366
15764W        W58677  24.919   7.248   8.234  0.4359 -0.2746  0.0446
15765W        W58678  19.741   3.801   6.961 -0.5585 -0.0886  0.0314
15766W        W58679   1.328   7.810  25.064  0.1326 -0.4458 -0.1141
15767W        W58680  29.964  26.133   2.769  0.3990  0.1027 -0.1106
15768W        W58681  32.976   4.143   9.745  0.0197  0.1167  0.0024
15769W        W58682  18.687   3.040  24.931 -0.0223  0.1998 -0.1106
15770W        W58683  11.415   2.384   7.223  0.0969 -0.2941  0.1796
15771W        W58684  28.958   2.371  29.666  0.0627  0.0928 -0.0917
15772W        W58685  23.301   1.487  24.676  0.0431  0.2514  0.2246
15773W        W58686  24.014  13.359  26.426 -0.4763  0.0773  0.1419
15774W        W58687  25.203   8.783  23.235  0.3554 -0.0358 -0.2498
15775W        W58688  24.974  28.513   6.096  0.0197 -0.1315 -0.1270
15776W        W58689  21.132   7.781   5.416 -0.0266 -0.0518  0.2502
15777W        W58690  27.533   3.472   6.987  0.2510 -0.2891 -0.0028
15778W        W58691  29.058  33.785  22.797 -0.1870 -0.1301 -0.2483
15779W        W58692  26.440  32.610   7.675 -0.2344 -0.4786  0.1524
15780W        W58693  28.932   4.278   4.283 -0.2108  0.0777 -0.0879
15781W        W58694  28.887   0.776   3.490 -0.5803  0.0011  0.0025
15782W        W58695  19.556  32.899  17.753  0.1027 -0.0904  0.2263
15783W        W58696  29.282  31.401  21.199 -0.3724 -0.1036  0.2584
15784W        W58697   1.750   1.803  29.031  0.2983  0.1599  0.1819
15785W        W58698   0.898   7.567  25.978  0.0942 -0.3818  0.1635
15786W        W58699  24.551   2.552   8.002 -0.1626  0.0741  0.1568
15787W        W58700  28.514   7.770   3.557  0.0347 -0.1694  0.1102
15788W        W58701  15.987  15.709  26.011 -0.2172 -0.0945  0.0714
15789W        W58702  17.032   7.539  24.464 -0.1254  0.3713 -0.1570
15790W        W58703  27.698   0.573  21.629  0.5253  0.0771 -0.0028
15791W        W58704  21.342   8.052   1.104  0.0140 -0.2589 -0.1760
15792W        W58705   2.633   3.663  24.128 -0.1281 -0.0805  0.0364
15793W        W58706   0.376  15.397  26.860  0.0271  0.1816 -0.0257
15794W        W58707  16.830   4.567  14.407  0.2783  0.1137  0.0859
15795W        W58708  15.921   9.763  13.300  0.0610  0.0553  0.0050
15796W        W58709  21.112   6.188  21.904 -0.2883  0.1967  0.0959
15797W        W58710  32.166   0.416   2.228  0.1424 -0.1723  0.1729
15798W        W58711  33.589  12.797   2.787  0.1684  0.2242  0.0218
15799W        W58712  23.836   6.969  26.146 -0.0279 -0.0964  0.0670
15800W        W58713  21.625  29.746  15.493 -0.0930 -0.2849  0.1695
15801W        W58714  26.986  30.256  28.150 -0.1223  0.4544  0.2368
15802W        W58715  22.856   3.625   5.362  0.2125  0.0628  0.0593
15803W        W58716  29.574   7.564  26.845 -0.0205 -0.0945  0.1090
15804W        W58717  26.558   2.264   2.379 -0.2463  0.1954 -0.0287
15805W        W58718  17.557  10.731  26.091 -0.2334  0.1844 -0.1202
15806W        W58719  28.584   3.741   2.392 -0.0254  0.0005  0.2277
15807W        W58720  22.029  28.239  26.207 -0.1580 -0.1496 -0.1996
15808W        W58721   0.237  23.407  25.978 -0.0198  0.0161 -0.1220
15809W        W58722  31.933  12.217  20.344  0.1998  0.0147 -0.2040
15810W        W58723  28.702   6.823  27.521 -0.1287 -0.1454  0.0242
15811W        W58724  23.863  10.857  27.267  0.1651 -0.1757 -0.0072
15812W        W58725  23.910   7.566  26.142 -0.1613  0.0410 -0.1924
15813W        W58726   5.851  33.745  23.790 -0.2037  0.2052 -0.0026
15814W        W58727  26.543   6.906  26.472 -0.0904 -0.1763 -0.0614
15815W        W58728  20.011  33.268  29.404 -0.0374  0.1543  0.0524
15816W        W58729  27.526   0.679  29.750 -0.1683 -0.3980  0.0461
15817W        W58730   3.102  33.903   1.852  0.0207  0.0590  0.4167
15818W        W58731  29.362   3.315   3.350  0.2979  0.0182 -0.2871
15819W        W58732  20.611   5.209   7.126 -0.0798  0.0234 -0.0438
15820W        W58733   0.948   2.658  25.347  0.2373  0.1967  0.3561
15821W        W58734  22.447  12.476  24.336 -0.1507  0.3447  0.1379
15822W        W58735  25.171  25.850   2.753 -0.3551 -0.1260 -0.1153
15823W        W58736   4.209   5.683  21.788  0.2410  0.4330  0.3731
15824W        W58737  32.633  30.480  16.826  0.0662  0.3482 -0.0521
15825W        W58738   0.836   7.830  17.429 -0.0651  0.0748 -0.1447
15826W        W58739  23.951   1.886   0.738  0.1008 -0.0085  0.2011
15827W        W58740  31.730   2.363  24.963 -0.2371  0.0781  0.1747
15828W        W58741  28.500   7.772  28.095  0.2127 -0.1153 -0.2133
15829W        W58742  29.525   3.204  29.347  0.2368 -0.0997 -0.0535
15830W        W58743  27.342  33.962  24.412  0.1261 -0.1377  0.2975
15831W        W58744  26.911  22.815  28.578 -0.0022 -0.5208  0.1410
15832W        W58745  29.427   6.340  17.035  0.0159 -0.0348  0.2598
15833W        W58746  26.399   1.252   2.011  0.2497 -0.2996 -0.0171
15834W        W58747  29.952  33.362   1.357 -0.1534  0.2259 -0.0601
15835W        W58748  21.496  26.445   2.569  0.2371  0.2572 -0.3505
15836W        W58749  25.059   7.776   3.461  0.1204  0.2814 -0.1660
15837W        W58750  23.881  25.488  23.141  0.0572  0.3694  0.3854
15838W        W58751  22.544  27.305  23.570  0.1517 -0.0173 -0.2051
15839W        W58752  16.570   0.266  16.970 -0.0323 -0.1038  0.0842
15840W        W58753   1.668  31.783  25.307 -0.0811  0.2081 -0.0124
15841W        W58754  25.126   5.729   0.600 -0.0530 -0.0650 -0.1863
15842W        W58755  23.511  11.059  22.189  0.1622 -0.3308 -0.0402
15843W        W58756  20.418  23.097   3.340 -0.0771  0.3977 -0.0736
15844W        W58757  24.153   3.948  27.039  0.1652 -0.1938 -0.0216
15845W        W58758   1.769   6.534   0.318 -0.3547 -0.1310 -0.0094
15846W        W58759  31.584   6.202   0.597 -0.0226  0.0427 -0.4084
15847W        W58760  29.136  11.723   6.223 -0.0324 -0.5009 -0.2081
15848W        W58761  26.661  15.715   3.115  0.0159 -0.4226 -0.0552
15849W        W58762  31.796  33.493   0.799 -0.0480  0.2803 -0.1443
15850W        W58763  15.083   5.222  28.336 -0.0685  0.3663 -0.0225
15851W        W58764  29.768   4.283  18.843 -0.1093 -0.2262 -0.0927
15852W        W58765  28.592  12.832   1.569 -0.1167  0.2623 -0.0877
15853W        W58766   8.869  34.234  20.095  0.0360 -0.0580  0.2998
15854W        W58767   2.653   6.931  28.674  0.0293  0.1589 -0.2272
15855W        W58768  16.317  27.721  27.009 -0.0305  0.5353 -0.0352
15856W        W58769  17.766  21.615  22.404 -0.0097 -0.1025 -0.0266
15857W        W58770  24.481  20.086  18.006 -0.2148 -0.0952  0.0281
15858W        W58771  14.834  32.475  26.514  0.0153  0.2269 -0.1988
15859W        W58772  20.549   0.993   2.380  0.0971 -0.3303 -0.0355
15860W        W58773  19.131  25.708   2.513  0.3160  0.0074  0.1397
15861W        W58774  19.590  12.166   2.541  0.2650 -0.1509  0.3242
15862W        W58775  20.006   4.611  24.898  0.3444  0.1050 -0.0832
15863W        W58776  20.975   7.198   2.692  0.0640  0.0575  0.0316
15864W        W58777  16.836  34.463   6.185  0.0981  0.1205 -0.0697
15865W        W58778  33.923  16.076  16.503  0.0887 -0.0118  0.1386
15866W        W58779   1.126   4.196   0.004 -0.0700 -0.2595 -0.1430
15867W        W58780  24.986   2.417   1.446  0.1477 -0.2507 -0.0815
15868W        W58781  23.513   1.631   0.822 -0.1382 -0.1007  0.2003
15869W        W58782  30.934   0.316   3.013 -0.3975  0.3693  0.2208
15870W        W58783  27.487   9.153  24.530 -0.0987 -0.0310 -0.0029
15871W        W58784  21.692  27.508  24.342  0.1360  0.1499  0.0594
15872W        W58785   1.089  10.811  21.021 -0.1111  0.0711  0.0043
15873W        W58786  28.788   5.983  28.206  0.0752  0.1746  0.3002
15874W        W58787  30.657  30.292  21.447  0.1866  0.0652  0.0146
15875W        W58788  22.483   4.973   4.964 -0.0336  0.0940  0.1925
15876W        W58789  30.889   7.901  25.760 -0.2327  0.2987  0.0762
15877W        W58790  32.716   6.514   2.061 -0.3228  0.2401 -0.0502
15878W        W58791  30.140   4.309   0.591 -0.1773 -0.4189  0.1000
15879W        W58792  28.761  29.446  19.231  0.3661 -0.0963 -0.1753
15880W        W58793  32.633   6.292   3.148  0.0581  0.2338  0.0149
15881W        W58794   1.867  28.487  28.808  0.4643 -0.1566 -0.2549
15882W        W58795  20.976  12.901  18.127  0.0403  0.1459  0.1029
15883W        W58796  19.482   6.406  26.206  0.0148 -0.1502  0.3598
15884W        W58797  20.432   2.443   4.682  0.2216  0.1524  0.0557
15885W        W58798  32.003  28.189   1.508  0.0559  0.0304 -0.0488
15886W        W58799  28.349  14.969   4.653  0.0416  0.0856 -0.0264
15887W        W58800   3.714   2.697   2.799  0.1796 -0.1364 -0.0375
15888W        W58801  22.598  25.970  26.169 -0.2140  0.1267  0.2693
15889W        W58802  19.986   4.777   7.026 -0.0867  0.1875  0.5942
15890W        W58803  33.053  17.616   3.388  0.0053 -0.3003  0.0858
15891W        W58804  24.916   3.880   0.950  0.3879  0.2352  0.0304
15892W        W58805  34.367   4.911  19.000  0.0163  0.2981  0.0592
15893W        W58806  32.267   6.351  24.651  0.3811  0.0135 -0.1242
15894W        W58807  27.695  28.837   0.494  0.1278 -0.2934 -0.2102
15895W        W58808   0.701   4.886  24.329  0.0935 -0.2373 -0.2586
15896W        W58809  24.084   9.024   1.333  0.2591  0.0115 -0.0039
15897W        W58810  26.398  24.184  22.642  0.2632  0.3783 -0.1180
15898W        W58811  14.758   4.139  21.379 -0.0558  0.2844 -0.1988
15899W        W58812  17.209   1.598   2.950  0.1649 -0.2085  0.3546
15900W        W58813  16.464  28.260   7.239 -0.2021  0.2303 -0.0052
15901W        W58814  21.353   9.918   1.327  0.2184 -0.2318  0.0724
15902W        W58815  23.283  12.129   3.146  0.1641  0.0093  0.1185
15903W        W58816  16.565  10.972  12.955  0.0683 -0.1066 -0.3266
15904W        W58817  28.552   1.557   6.607  0.0639 -0.0734  0.0058
15905W        W58818  27.543   3.437  16.028 -0.2614  0.3042  0.1864
15906W        W58819  28.692  29.340   1.846  0.0729  0.1521 -0.0744
15907W        W58820  29.660   4.355   6.558 -0.3797 -0.0362 -0.0251
15908W        W58821  25.613   9.523  29.365  0.1296  0.0816 -0.1131
15909W        W58822  25.204  15.294  24.900 -0.3682  0.5227  0.0950
15910W        W58823  26.161   5.367  22.708  0.0280  0.0109  0.0248
15911W        W58824  21.307  33.982  25.970  0.0361 -0.0423 -0.1366
15912W        W58825  31.304   8.051  22.310 -0.1069  0.0144  0.2401
15913W        W58826  29.282  33.866   4.884  0.1328 -0.2245 -0.1167
15914W        W58827  33.830  31.709  10.822  0.1820 -0.1147 -0.0299
15915W        W58828  29.263  29.248   5.769 -0.2007 -0.0018 -0.2616
15916W        W58829  25.596   2.791  26.594 -0.2353  0.2367 -0.0516
15917W        W58830  23.516  19.559  23.518 -0.1956 -0.1272  0.0728
15918W        W58831  22.972   1.610  20.315  0.0264  0.0181 -0.3878
15919W        W58832  23.046   5.615  29.108  0.3060 -0.0650  0.2582
15920W        W58833  16.788   2.302   0.119 -0.0263 -0.0765  0.1868
15921W        W58834  20.434   1.730  28.506  0.0150 -0.1108 -0.1849
15922W        W58835   1.527  33.107   2.424  0.4902 -0.1431 -0.1871
15923W        W58836  29.337  32.345  22.417  0.2040 -0.4061 -0.0870
15924W        W58837  29.262  33.634   2.609 -0.0166 -0.2833  0.0429
15925W        W58838  31.049  30.530   1.882 -0.1534 -0.2085 -0.2666
15926W        W58839  25.514  27.896   5.746  0.0451  0.2529  0.1854
15927W        W58840  30.574   4.109  27.995 -0.0217 -0.2841 -0.2006
15928W        W58841  19.900  33.964  24.788 -0.0699 -0.1330 -0.2622
15929W        W58842  30.409   8.280   7.141  0.0854 -0.0530  0.1475
15930W        W58843  27.583   7.400  15.253 -0.0276 -0.0111 -0.0661
15931W        W58844  31.097   7.033  28.838 -0.0011 -0.2908  0.2398
15932W        W58845  25.523   8.582   6.059 -0.2587 -0.2033  0.1148
15933W        W58846  32.007  28.875  27.929  0.1443 -0.3146  0.0208
15934W        W58847  26.114   5.578   2.493 -0.0506 -0.1401  0.2201
15935W        W58848  28.166  11.384  19.467  0.1791  0.0512  0.2102
15936W        W58849  27.723  28.706  24.011  0.1396 -0.1995 -0.0163
15937W        W58850  30.465  30.629  24.608  0.1975  0.3245 -0.0101
15938W        W58851  28.319  11.122  19.853  0.0688 -0.0810 -0.2024
15939W        W58852  24.149   6.573  26.212  0.0945  0.2215  0.0295
15940W        W58853   2.243   4.131  22.602 -0.0677 -0.2557  0.1652
15941W        W58854  18.842   8.928   6.517  0.2689 -0.0643 -0.3208
15942W        W58855  28.221  30.124   5.179  0.1551 -0.0187 -0.1251
15943W        W58856  16.687  30.627   1.867 -0.0314  0.0417  0.0393
15944W        W58857  24.625  30.196   2.860 -0.2502  0.1305  0.4722
15945W        W58858  26.118   1.945  27.317  0.1845  0.1324  0.0480
15946W        W58859  18.551   2.812  20.870 -0.0193 -0.1368  0.0160
15947W        W58860  26.507   3.577  22.550 -0.3183  0.0889  0.0073
15948W        W58861  18.928  31.359  26.472  0.2386 -0.2046  0.0923
15949W        W58862  18.026   9.338  27.412  0.1321  0.0310 -0.0823
15950W        W58863  21.892  14.929  25.568 -0.1304  0.3417 -0.0861
15951W        W58864  29.016   6.429  20.783 -0.0165 -0.1143  0.1668
15952W        W58865   3.640   0.522  26.769  0.0071 -0.2368  0.0321
15953W        W58866  31.492  19.885  19.758 -0.1841 -0.0567 -0.4106
15954W        W58867  19.091   6.888   3.080  0.0165 -0.1551  0.1638
15955W        W58868   3.779   4.206   6.769  0.3043  0.0549  0.0529
15956W        W58869  13.051  28.767  27.627 -0.1543 -0.2759 -0.2135
15957W        W58870  21.260   3.321   5.406 -0.0293  0.0050 -0.0354
15958W        W58871  21.606  30.623   0.253  0.1291  0.3343  0.0224
15959W        W58872  24.564  24.371  27.766  0.1164 -0.3452 -0.1683
15960W        W58873   6.326   2.824  28.983  0.2779  0.0634  0.1042
15961W        W58874  27.237  14.014   5.436  0.2463  0.1707 -0.0320
15962W        W58875   3.764  32.006  29.227 -0.1300  0.2449  0.2357
15963W        W58876  25.296   8.185   8.931 -0.1872 -0.0721 -0.5613
15964W        W58877  24.203  32.355   7.852 -0.0747 -0.0696  0.0700
15965W        W58878   5.137  31.257  28.440  0.4899  0.1873 -0.0973
15966W        W58879  21.116   6.811  26.183 -0.1380  0.2523 -0.2226
15967W        W58880  16.638   0.405  25.891 -0.1669 -0.1241 -0.2358
15968W        W58881  28.730   3.810  28.549  0.1025 -0.2342 -0.3672
15969W        W58882  33.393   2.514  23.080  0.1046  0.0785 -0.0107
15970W        W58883  28.385  25.883  29.222 -0.0411 -0.2785  0.0327
15971W        W58884  12.801  10.065  24.663 -0.3114  0.0375  0.0272
15972W        W58885  24.005  28.754  29.212 -0.1799  0.1581  0.0951
15973W        W58886  33.134   1.907  26.774  0.1473 -0.1728 -0.0389
15974W        W58887  27.330   7.033   6.314 -0.2522  0.0335  0.0458
15975W        W58888  22.358  28.930   0.752 -0.3642  0.1348  0.0220
15976W        W58889  30.240  30.419   5.796 -0.0602  0.0665 -0.2063
15977W        W58890  31.638  31.056   2.036 -0.1272 -0.2402 -0.2417
15978W        W58891  28.928   7.559  29.269 -0.2259  0.0692 -0.0675
15979W        W58892  23.179   9.007  27.341  0.1432  0.0927 -0.0492
15980W        W58893  31.550   1.180   6.330  0.0788 -0.3738  0.0895
15981W        W58894  19.034  34.110   2.486 -0.0817 -0.3491  0.1217
15982W        W58895  29.839   1.857  22.553 -0.0010  0.2197 -0.0045
15983W        W58896  19.822  12.173  26.546  0.0109 -0.0088 -0.0749
15984W        W58897  24.904   0.481   5.482  0.2955  0.1053 -0.0049
15985W        W58898  20.392  25.670  26.613  0.4885  0.0079  0.0516
15986W        W58899  23.602   2.664   0.964  0.1923 -0.2529 -0.0164
15987W        W58900  30.276  30.872   2.286 -0.0869  0.2195 -0.2963
15988W        W58901  28.225   2.047  28.000  0.1011  0.1863 -0.0822
15989W        W58902  29.042  10.129  29.662  0.0225 -0.1490  0.1120
15990W        W58903   0.766   4.814  29.640  0.2450 -0.0948  0.0309
15991W        W58904   7.275  28.733  29.295 -0.3362 -0.0721 -0.2466
15992W        W58905  24.064  31.627  19.873 -0.1636 -0.1391  0.1162
15993W        W58906  27.837  32.820  20.436 -0.0075  0.1967  0.1374
15994W        W58907  23.293   3.943   1.029  0.0883 -0.3795 -0.0496
15995W        W58908  24.766   2.623  19.460 -0.4452  0.0756  0.0127
15996W        W58909   2.341  12.184   8.317  0.1659 -0.2992 -0.3935
15997W        W58910  22.248   4.127   4.209 -0.1624 -0.1817 -0.0863
15998W        W58911  23.112  34.280   9.798 -0.0116  0.2790  0.1514
15999W        W58912  26.109   1.608   6.051  0.2909 -0.0835  0.2360
16000W        W58913  21.087   1.939  24.816 -0.0917 -0.1869 -0.1772
16001W        W58914  22.136   4.364  28.576  0.2390 -0.0589 -0.4597
16002W        W58915  23.199   7.272   6.972 -0.0383  0.1273  0.0207
16003W        W58916   6.965  21.137   0.522  0.0698  0.4515 -0.0172
16004W        W58917  29.766   9.769   0.279  0.1067 -0.0197 -0.0218
16005W        W58918  24.539   9.557  27.278 -0.0748  0.3355  0.3881
16006W        W58919  28.460  31.242   8.877  0.1774 -0.2974 -0.1393
16007W        W58920  33.466   8.685  18.577  0.2678  0.2445 -0.0418
16008W        W58921   0.051   2.702  17.641  0.1124  0.1502  0.0190
16009W        W58922  19.691   9.274   0.249 -0.0661 -0.3801  0.0855
16010W        W58923  29.670  12.673  28.577  0.0703  0.1111  0.0932
16011W        W58924  25.412  26.758  27.197  0.1419 -0.4716 -0.2032
16012W        W58925  25.620  11.534  25.222  0.0706 -0.1654 -0.3621
16013W        W58926  28.932  12.014  29.203  0.2221 -0.0474 -0.0388
16014W        W58927  20.638   4.041   1.923 -0.2996 -0.3237  0.1688
16015W        W58928  26.371   8.940   6.245  0.0272 -0.2605 -0.0187
16016W        W58929  30.392   0.005   2.852 -0.1808  0.1679 -0.1149
16017W        W58930   0.318   3.005  28.155 -0.0066 -0.0433  0.1635
16018W        W58931   5.223   7.007   2.904 -0.1314  0.2117 -0.3697
16019W        W58932  25.451  21.055  14.856 -0.1151 -0.2255  0.0018
16020W        W58933  21.905   6.480  17.442  0.0641  0.0829  0.1202
16021W        W58934  19.317   5.008  29.449 -0.1577  0.2144  0.2746
16022W        W58935  24.631   6.769  25.209 -0.0230  0.1889  0.2157
16023W        W58936  32.229  13.876  15.858 -0.0423 -0.0054  0.2689
16024W        W58937  26.963  31.642   1.403 -0.0078  0.0152 -0.1522
16025W        W58938  28.855   4.062  21.532  0.0054 -0.2128  0.1132
16026W        W58939  26.842  25.947  20.257 -0.1147  0.1399  0.3449
16027W        W58940  28.612   0.634  26.960 -0.0188  0.1882  0.0720
16028W        W58941  22.248  33.349  25.799  0.1290 -0.0186 -0.1562
16029W        W58942  19.796  12.256  14.111 -0.0539  0.0328  0.0280
16030W        W58943  29.440   9.568  16.611 -0.0431  0.0102 -0.1526
16031W        W58944  26.783   2.358  16.988  0.0303  0.1885  0.0924
16032W        W58945  27.571   6.760  19.893  0.0734  0.0104 -0.1540
16033W        W58946  27.830   2.297  15.010  0.2485 -0.1032  0.2866
16034W        W58947  19.710   3.181  25.257 -0.1678 -0.2536  0.2830
16035W        W58948  26.109  10.729  22.766  0.0597 -0.0550 -0.2761
16036W        W58949  26.031  33.416  18.837 -0.5359 -0.3129 -0.0444
16037W        W58950  24.474  30.897  19.091 -0.0989  0.0227 -0.1027
16038W        W58951  32.783   3.114  16.637 -0.0073 -0.1537 -0.0253
16039W        W58952  25.187   8.735  19.312  0.0632 -0.3844 -0.5861
16040W        W58953  25.909  28.993  14.708 -0.1580  0.3881  0.1856
16041W        W58954  26.685  12.910  20.267 -0.2973  0.0260 -0.0817
16042W        W58955  26.904  25.756  24.027  0.0347 -0.0451  0.4400
16043W        W58956  28.803  33.083  15.462 -0.1715  0.0432 -0.0148
16044W        W58957  31.479  33.846  20.535 -0.2204  0.0513  0.2316
16045W        W58958  19.178   7.632  15.924  0.0776  0.0493 -0.2059
16046W        W58959  29.840   7.524  19.098  0.0755  0.1992 -0.2076
16047W        W58960  23.382  12.505  15.485  0.0488  0.1180 -0.1397
16048W        W58961  33.821  34.360  17.108  0.3312  0.0653 -0.2497
16049W        W58962  25.228  12.223  14.060  0.1531 -0.2785 -0.1508
16050W        W58963  33.489  11.810  20.109  0.0736 -0.3220  0.1299
16051W        W58964  24.620   6.252  25.638 -0.1108 -0.0319  0.3571
16052W        W58965  25.850   8.168  14.613  0.0555  0.1434 -0.1872
16053W        W58966  28.586  12.074  15.815  0.2142  0.0358 -0.0303
16054W        W58967  34.387   8.555  21.734  0.0583  0.1542 -0.2103
16055W        W58968  28.452   4.287  22.446  0.0061 -0.0666 -0.2780
16056W        W58969  27.110   4.199  21.683 -0.0855 -0.2900 -0.4249
16057W        W58970  22.798  28.832  23.168 -0.4597  0.0642 -0.0548
16058W        W58971  27.491  30.999  21.975  0.0310 -0.4185  0.0692
16059W        W58972  25.021  30.347  20.282  0.0280 -0.1780 -0.5081
16060W        W58973  27.778   4.435  20.791  0.2705 -0.0258  0.3566
16061W        W58974  23.105   8.640   0.340  0.0479 -0.0753 -0.3005
16062W        W58975  27.133   2.483   1.497  0.4660  0.1061 -0.1919
16063W        W58976   0.644   9.045  22.357  0.2190  0.3480 -0.1729
16064W        W58977  32.975   2.466  22.718 -0.1084 -0.1079  0.1646
16065W        W58978  24.412   7.897  19.510  0.0665 -0.0028  0.3395
16066W        W58979   2.144  13.007  16.664  0.0312  0.3229 -0.0539
16067W        W58980  20.140   4.977  15.508  0.1825 -0.1593  0.3843
16068W        W58981  29.317   9.184  16.949 -0.1175  0.1550 -0.0805
16069W        W58982  30.727  13.728  27.675 -0.1641 -0.1737  0.4038
16070W        W58983  30.191   1.560  16.449  0.1215  0.0089 -0.0120
16071W        W58984  17.913   3.920  15.660 -0.0865  0.0897 -0.1846
16072W        W58985  28.004   2.980  23.600  0.1640  0.2216  0.1383
16073W        W58986  20.262  30.341  19.199 -0.0364 -0.0675 -0.0693
16074W        W58987  33.407   1.189  18.712  0.0150 -0.0357  0.1032
16075W        W58988  31.393   4.177  16.475 -0.1244  0.3450  0.0027
16076W        W58989  32.492  23.056  17.363 -0.0015  0.1415 -0.0993
16077W        W58990  20.023  12.047  15.959  0.1617  0.0821  0.2330
16078W        W58991  20.622  12.140  18.193  0.0697 -0.2775  0.3680
16079W        W58992  22.579   6.043   0.956  0.2946 -0.0962 -0.0024
16080W        W58993  25.372  12.665  27.368  0.0558 -0.3147  0.2637
16081W        W58994  25.363   9.578  17.174 -0.2199  0.1581 -0.1983
16082W        W58995  22.762   6.790  26.203 -0.3549  0.0062 -0.2613
16083W        W58996  24.284   1.158  25.686  0.2240  0.0806  0.1462
16084W        W58997  21.947  17.841  20.661 -0.0028 -0.3322 -0.0529
16085W        W58998  28.488   3.861  17.999  0.2249  0.0190  0.0099
16086W        W58999  28.627  14.633  18.270  0.2032  0.1289 -0.2067
16087W        W59000  19.495  14.515  16.450  0.1788 -0.3062 -0.0263
16088W        W59001   3.457  32.398  29.364 -0.0460  0.3496  0.0062
16089W        W59002  33.030   1.469  23.248  0.2437  0.1525 -0.0161
16090W        W59003  32.210  30.768  19.138  0.0629  0.1429 -0.1820
16091W        W59004  30.191   7.772  21.269  0.0298 -0.1250  0.0996
16092W        W59005  19.405   4.977  15.737  0.1543  0.3322  0.2141
16093W        W59006  24.716  18.918  24.547  0.1226  0.0092  0.1678
16094W        W59007  20.362  12.300  22.796  0.0309  0.3091 -0.0637
16095W        W59008  27.261   4.988  25.846  0.1060 -0.2707  0.0862
16096W        W59009  29.569  12.024  23.448 -0.1248  0.3169  0.2752
16097W        W59010  32.801   6.232  21.821 -0.0347  0.0097 -0.0946
16098W        W59011  26.832   2.999  20.015  0.1395 -0.1808 -0.1529
16099W        W59012  31.293  23.005  13.323 -0.3934 -0.0261 -0.1104
16100W        W59013  27.725   2.748  16.972 -0.0596  0.0958  0.2085
16101W        W59014  25.829   3.897  13.736 -0.0317 -0.0850  0.1355
16102W        W59015  22.812  30.430  16.607  0.1628  0.1897  0.0832
16103W        W59016  18.629  20.309  13.395 -0.1026 -0.2509  0.1560
16104W        W59017  33.557   4.969  17.791 -0.0926 -0.0490  0.0357
16105W        W59018  26.816   8.406  28.648 -0.0751 -0.0447  0.1640
16106W        W59019   0.016   4.610  27.267 -0.2700  0.0090 -0.0721
16107W        W59020  28.259  14.504  16.053  0.1662  0.1043  0.1960
16108W        W59021   3.125   9.158  27.531 -0.4975  0.0091  0.0636
16109W        W59022  29.094  16.318  14.424 -0.1921  0.3250  0.0088
16110W        W59023  26.906   1.118  23.006  0.2703  0.2542  0.0258
16111W        W59024  33.541   3.895  17.407  0.1600  0.1317 -0.1168
16112W        W59025  28.775  15.241  24.571  0.0520 -0.0209 -0.1078
16113W        W59026  30.347   2.036  19.207 -0.0095 -0.1816 -0.3315
16114W        W59027  28.583   8.782  14.545  0.3770  0.3921  0.0605
16115W        W59028   0.042  33.901  21.021  0.0178  0.1935  0.0711
16116W        W59029  30.961   4.600  17.385  0.0190  0.3509 -0.1223
16117W        W59030  33.426   8.155  19.627 -0.0362  0.0975 -0.1881
16118W        W59031  13.130  30.180  23.675  0.0408  0.0507  0.0294
16119W        W59032  20.810   5.943  25.959  0.1722  0.0049 -0.4182
16120W        W59033  30.735   3.964  24.976  0.0255  0.2117  0.3877
16121W        W59034  25.156   9.116  16.909  0.0033 -0.0809  0.1252
16122W        W59035  28.422   1.583  16.936  0.0792  0.1719  0.5785
16123W        W59036  25.641  33.042  29.369 -0.3256 -0.1504 -0.0271
16124W        W59037  17.341  32.109   1.817  0.1420 -0.4561 -0.0279
16125W        W59038  18.033   1.269  22.889  0.2771 -0.0984 -0.0859
16126W        W59039  29.368   7.374  15.722 -0.1811 -0.3966  0.1047
16127W        W59040  18.633   6.794   4.158 -0.1376  0.2730 -0.2254
16128W        W59041  33.478  22.243  23.003  0.0391 -0.0102 -0.2193
16129W        W59042  30.493  19.922  15.222 -0.1310  0.0804  0.1644
16130W        W59043  30.086  17.565  24.776  0.1564 -0.1604 -0.2523
16131W        W59044  33.971   7.593  21.321 -0.0614 -0.0279  0.2457
16132W        W59045  27.027   1.160  15.366 -0.1814  0.0296 -0.1278
16133W        W59046  26.956  33.480  29.208 -0.1315 -0.0815  0.0288
16134W        W59047  25.983  32.256  19.885  0.1699 -0.1693 -0.2460
16135W        W59048  28.596  12.867  24.422 -0.0919 -0.0364  0.1518
16136W        W59049  21.517   5.915  24.827  0.1132 -0.0840  0.0121
16137W        W59050  23.486   3.464  18.974  0.1021  0.0566 -0.2550
16138W        W59051  27.892  16.799  19.248 -0.1485  0.2742  0.1525
16139W        W59052  30.985  13.759  20.236 -0.0643 -0.0494 -0.1917
16140W        W59053  32.417   7.874  19.413 -0.0200 -0.3204  0.0328
16141W        W59054  22.293   2.264  13.242  0.2801 -0.0851  0.2049
16142W        W59055  33.174   7.058  17.203  0.2726  0.2636  0.0884
16143W        W59056  21.828  13.355  17.415  0.1017 -0.3459  0.0945
16144W        W59057  27.621   4.251  18.788 -0.2471  0.0868  0.0636
16145W        W59058  18.311   0.758  25.168 -0.0666 -0.1377 -0.0408
16146W        W59059  33.056  15.220  22.078  0.2101 -0.0972 -0.2854
16147W        W59060  24.915   7.519  18.530 -0.2092  0.3219 -0.2443
16148W        W59061  30.207  13.767  16.262 -0.0750 -0.0557 -0.2850
16149W        W59062  28.279   5.170  22.936  0.1500 -0.0396  0.2208
16150W        W59063  28.718   2.166  16.244 -0.2747  0.3458  0.2589
16151W        W59064  31.088  12.523  20.148 -0.1793 -0.0188  0.1992
16152W        W59065  22.706   7.402  20.833 -0.4540  0.0113  0.1458
16153W        W59066  19.797   7.478  22.890  0.0874  0.0929  0.3129
16154W        W59067  28.236  16.720  15.000 -0.2481 -0.2758 -0.0338
16155W        W59068  21.716  18.970  20.387 -0.0795 -0.1798 -0.1045
16156W        W59069  23.167  10.873  24.800 -0.0860 -0.4398  0.3848
16157W        W59070  29.321  14.245  14.476 -0.2137 -0.0315 -0.0396
16158W        W59071  23.551  11.059  20.815  0.0797 -0.2789 -0.3303
16159W        W59072  14.932   4.871   0.819 -0.0200 -0.1086  0.3932
16160W        W59073   6.656   1.306  22.729 -0.2471  0.0012 -0.3326
16161W        W59074  29.397  12.262  26.127 -0.1321 -0.3323  0.3135
16162W        W59075  28.399  28.840  16.730 -0.2150  0.0297  0.1070
16163W        W59076  33.714   4.539  18.328  0.0116  0.1733 -0.0670
16164W        W59077  28.601   7.110  24.083 -0.0387 -0.0623 -0.3597
16165W        W59078   1.385  18.478  19.425  0.0138  0.3031 -0.0830
16166W        W59079   0.824  14.377  17.952 -0.0780 -0.1261 -0.0567
16167W        W59080  32.238   4.417  19.754  0.1247  0.1712 -0.0921
16168W        W59081  10.953   2.476   2.692  0.1948  0.1819 -0.0835
16169W        W59082  26.450   0.601  16.799  0.0112  0.0148  0.2480
16170W        W59083  32.811   7.443  20.219  0.0578  0.1247  0.1253
16171W        W59084  27.933  14.828  25.091 -0.1249 -0.2928  0.1215
16172W        W59085   0.720  33.769  18.097 -0.2034  0.0453 -0.2140
16173W        W59086  24.836   4.904  26.041 -0.1477 -0.0898  0.1383
16174W        W59087  27.996  33.022  24.546 -0.1159 -0.0383  0.0315
16175W        W59088  22.164   4.583  23.480 -0.0754  0.0815  0.1285
16176W        W59089  29.186  14.933  24.436 -0.3011  0.4132  0.0989
16177W        W59090  18.009  28.503  20.960  0.1582 -0.3459 -0.0529
16178W        W59091  27.558   4.947  17.930 -0.0287  0.1114  0.3058
16179W        W59092  31.092  22.361  18.179  0.2703 -0.1626 -0.1463
16180W        W59093  24.664  11.065  14.804 -0.0443 -0.2640  0.4893
16181W        W59094  26.884   5.668  21.583  0.1448 -0.0303  0.1230
16182W        W59095  30.514  27.257  13.943 -0.2960  0.2679  0.1483
16183W        W59096  26.710   4.878  23.534 -0.2010 -0.1525 -0.1313
16184W        W59097  26.823  10.075  20.752 -0.1604  0.1307  0.0961
16185W        W59098  22.908   3.924  14.817  0.0727  0.4381 -0.0220
16186W        W59099   0.506   9.925  21.042 -0.0893  0.1329  0.2654
16187W        W59100  27.574   2.112  15.395  0.2443  0.0871  0.0963
16188W        W59101  29.062  10.563  14.363  0.3130 -0.3585 -0.1338
16189W        W59102  30.680   6.295  14.907  0.3063  0.2175 -0.4686
16190W        W59103  33.822   0.631  19.638  0.2694 -0.3739 -0.1044
16191W        W59104  25.133  15.624  19.076 -0.0096  0.1134 -0.1446
16192W        W59105  21.442  15.161  23.028  0.0427  0.0138 -0.0992
16193W        W59106  30.348   1.069  19.803  0.1392  0.0796  0.0288
16194W        W59107  29.077  10.920  20.489 -0.2609  0.0960 -0.0458
16195W        W59108  26.874   6.751  19.123  0.1536  0.0238 -0.1558
16196W        W59109   2.274  12.998  20.159 -0.2773  0.0280  0.0597
16197W        W59110  28.999  10.821  24.018 -0.2266 -0.2211  0.0310
16198W        W59111  24.268  17.845  24.330 -0.0728 -0.1735 -0.0106
16199W        W59112  26.760  13.301  15.129 -0.1699  0.1108 -0.0944
16200W        W59113  31.265   9.047  15.988 -0.0347  0.1341 -0.1486
16201W        W59114  29.538  33.494  17.412 -0.0438  0.2552 -0.0740
16202W        W59115  17.382  32.133  18.741 -0.0515  0.0684  0.5557
16203W        W59116  28.298   2.291  20.052 -0.1358 -0.0619 -0.1295
16204W        W59117  26.913  15.006  25.137 -0.1889  0.2800 -0.2381
16205W        W59118   3.349  31.754  23.917  0.0686 -0.2217 -0.0451
16206W        W59119  27.956   0.782  15.145  0.2684 -0.0668 -0.2566
16207W        W59120  32.184   2.783  24.051  0.0791  0.4025  0.0164
16208W        W59121  29.488  19.079  21.755  0.0289 -0.2187 -0.1355
16209W        W59122  29.286   8.752  17.208  0.1742 -0.1835  0.0421
16210W        W59123  21.374   3.605  17.098  0.1166 -0.4020 -0.1174
16211W        W59124  27.545   8.535  20.638  0.1899 -0.2650  0.0183
16212W        W59125  31.345  15.326  14.105 -0.3456  0.0407 -0.4774
16213W        W59126  14.773   8.314  20.470 -0.0041  0.0169  0.2116
16214W        W59127  22.564   1.816  20.777  0.0648 -0.0397  0.2783
16215W        W59128  26.917   4.792  17.496  0.0346 -0.1615 -0.1966
16216W        W59129  33.076   6.294  17.614 -0.0566  0.2064  0.0721
16217W        W59130  29.369  32.309  21.535  0.1325  0.1916 -0.0985
16218W        W59131  29.269  10.413  15.340  0.3159  0.1575  0.2653
16219W        W59132  29.217   3.464  18.428 -0.0266 -0.0723 -0.2479
16220W        W59133  22.574  14.457  18.558 -0.1454  0.2307  0.2812
16221W        W59134  26.928   0.377  16.629 -0.2245 -0.0188 -0.2186
16222W        W59135   9.355  32.744  17.262 -0.1580  0.2650 -0.0219
16223W        W59136  31.335  15.429  17.974 -0.2034 -0.1017  0.0249
16224W        W59137  33.022  30.638  25.957  0.0626 -0.1307  0.0358
16225W        W59138  31.661   6.869  18.536  0.0081 -0.1461  0.0286
16226W        W59139   5.900  11.597  16.961 -0.1416 -0.1136 -0.0401
16227W        W59140  22.251   6.295  18.568 -0.3537  0.2391  0.1250
16228W        W59141   0.497   3.235  18.448  0.3052 -0.1660 -0.0557
16229W        W59142  28.513   1.811  20.954  0.1367  0.1295  0.1855
16230W        W59143  26.308   5.907  21.025  0.2500  0.1563  0.0312
16231W        W59144  28.516  12.082  21.607 -0.0556  0.1137  0.0196
16232W        W59145  25.466   3.979  20.654 -0.2586  0.1383  0.3682
16233W        W59146  23.048   2.988  18.922  0.0395 -0.0129  0.0523
16234W        W59147  31.279   7.714  18.626  0.0273  0.1424  0.0635
16235W        W59148  19.343  11.381  19.721 -0.0940  0.1273  0.1985
16236W        W59149   1.456   8.511  19.278 -0.0452  0.2123 -0.0605
16237W        W59150  24.722  33.117  15.782  0.0228  0.2750 -0.2946
16238W        W59151  30.968   3.211  22.357 -0.1757  0.0385 -0.0981
16239W        W59152  30.424  10.818  15.143  0.1413 -0.1307  0.1933
16240W        W59153  34.131   8.825  16.840  0.0011  0.1523  0.0728
16241W        W59154  31.016   0.674  22.353  0.0434  0.0847 -0.0652
16242W        W59155  24.575   5.814  20.089 -0.1101  0.3243 -0.0506
16243W        W59156  26.549  10.968  15.958  0.1106  0.0557 -0.0564
16244W        W59157   1.116   8.603  25.426  0.0979 -0.3852 -0.2486
16245W        W59158  32.988  12.913  14.714 -0.1838  0.3403 -0.0665
16246W        W59159  22.217  31.459  25.670 -0.3660  0.0388 -0.0815
16247W        W59160  16.670   7.422  19.596  0.2203 -0.1604  0.1413
16248W        W59161  23.496  10.664  26.984 -0.0357  0.0664  0.2338
16249W        W59162  30.938   7.248  19.647 -0.0715 -0.1736  0.0311
16250W        W59163   0.295  32.460  22.035 -0.0762 -0.0870  0.1645
16251W        W59164  27.330  16.503  21.745 -0.0710 -0.0880 -0.0666
16252W        W59165  26.669   9.017  20.389  0.0236  0.0719 -0.1043
16253W        W59166  28.409   7.670  19.249  0.1625 -0.1948  0.2825
16254W        W59167  23.121   9.076  16.428 -0.0795 -0.2276  0.1359
16255W        W59168  24.096  27.931  25.123 -0.2044 -0.1896 -0.0330
16256W        W59169  33.802   4.563  16.125 -0.0557  0.0474 -0.0515
16257W        W59170   0.331   2.658  16.450 -0.1288  0.4331  0.3173
16258W        W59171  24.718   4.247  20.651 -0.0216 -0.0840  0.1381
16259W        W59172  25.078  26.490  23.267 -0.0923 -0.2221 -0.2385
16260W        W59173  27.978   1.478  16.718 -0.1571  0.1277  0.0163
16261W        W59174  28.562   0.821  17.034 -0.1191 -0.3116  0.0458
16262W        W59175  20.762  15.385  15.909 -0.0673 -0.2621 -0.2813
16263W        W59176  29.378   1.097  19.944  0.0912  0.0010 -0.1102
16264W        W59177  19.488   2.660  21.389 -0.0149  0.0016  0.0365
16265W        W59178  30.894   0.290  28.703  0.1438  0.0132  0.1024
16266W        W59179  28.086  12.553  15.641  0.1265 -0.1882  0.0693
16267W        W59180  21.432   4.579  14.714 -0.0211  0.2093 -0.0091
16268W        W59181  21.693   1.343  20.206 -0.0059  0.0501 -0.1143
16269W        W59182  23.871   3.589  14.337 -0.3005 -0.0270 -0.0559
16270W        W59183  28.096  17.843  17.838 -0.0611 -0.0622 -0.0079
16271W        W59184  10.272   5.230  20.276 -0.3074 -0.1449  0.0106
16272W        W59185  20.955  11.959  19.581 -0.1946 -0.1691  0.1828
16273W        W59186  28.314  28.370  16.579  0.2047 -0.3128 -0.2004
16274W        W59187  18.262  11.514  14.080  0.0908 -0.0344  0.2500
16275W        W59188  25.147   5.941  18.250  0.0055  0.1232  0.1751
16276W        W59189  32.805   2.782  17.240  0.1102 -0.1738 -0.1421
16277W        W59190  26.080   3.773  15.146  0.1814 -0.0799  0.1012
16278W        W59191  27.343   6.580  22.782  0.0153  0.2779  0.6296
16279W        W59192  30.848   3.380  24.991  0.1804 -0.2967 -0.0500
16280W        W59193  30.235   4.096  18.908  0.2963 -0.1923  0.0469
16281W        W59194   2.281  14.411  16.224 -0.0840  0.1199 -0.0532
16282W        W59195  17.281   6.076  27.073  0.0001  0.1722  0.1276
16283W        W59196  21.643  32.965  20.790 -0.2340 -0.5333 -0.2202
16284W        W59197  22.591  31.647  21.650 -0.0817  0.0395  0.1815
16285W        W59198  27.199   2.297  20.637  0.1513  0.0284 -0.2859
16286W        W59199  26.999  16.798  14.975 -0.0802 -0.1625 -0.2223
16287W        W59200  31.788   9.244  14.937  0.4607  0.1755  0.1112
16288W        W59201  26.559   3.500  19.787 -0.0290  0.1913 -0.1128
16289W        W59202  17.576  29.149  28.377 -0.2904 -0.0818 -0.0048
16290W        W59203  14.479   3.071  18.382  0.1020 -0.2628 -0.1195
16291W        W59204  32.183   1.046  17.438  0.1076 -0.1052  0.5219
16292W        W59205  30.362  11.383  17.958 -0.1802  0.1148 -0.1964
16293W        W59206  25.694  19.286  13.427  0.1225 -0.2314  0.3546
16294W        W59207  21.035   0.444  17.150  0.1069 -0.2123 -0.0888
16295W        W59208  28.786  14.518  20.674 -0.1351  0.1054  0.2718
16296W        W59209  25.611   2.244  15.974  0.0065  0.1772  0.0142
16297W        W59210  22.699   4.455  13.995 -0.0050 -0.0357  0.2584
16298W        W59211  25.023   1.457  14.766  0.3107 -0.0171 -0.1639
16299W        W59212  19.792   0.458  24.566 -0.0308 -0.3114  0.2236
16300W        W59213  24.050   9.316  15.188 -0.0216 -0.0934  0.4673
16301W        W59214  15.728  34.051  15.863 -0.2825  0.0800  0.1653
16302W        W59215  28.299   5.862  24.777  0.0958 -0.0518  0.6536
16303W        W59216  28.601   4.593  14.613 -0.0285  0.1886  0.2067
16304W        W59217  24.161   0.324  20.117 -0.2497 -0.1095  0.0447
16305W        W59218  32.082  16.057  15.716 -0.1368  0.0497 -0.1754
16306W        W59219  23.115  12.064  16.320 -0.2409  0.1629  0.1217
16307W        W59220  29.316   8.367  26.813 -0.1752  0.0097  0.1414
16308W        W59221  22.643   4.760  17.032 -0.0274 -0.2068 -0.0414
16309W        W59222  17.251  29.621  27.524 -0.2757  0.0803  0.0233
16310W        W59223  20.785   7.989  17.012 -0.2214  0.1054 -0.0223
16311W        W59224  24.425   4.902  21.075  0.0054 -0.2968 -0.2146
16312W        W59225  29.826   3.159  15.281  0.1332 -0.0958  0.2627
16313W        W59226  21.698   7.471  14.752  0.0207  0.3175  0.1300
16314W        W59227  28.287  32.242  17.970  0.0807  0.0631  0.1776
16315W        W59228  25.352   6.471  14.999  0.0952 -0.1687  0.0611
16316W        W59229  33.666  33.911  25.839  0.2397  0.1304  0.0250
16317W        W59230  25.338  21.091  17.212 -0.0045 -0.0136 -0.0672
16318W        W59231  21.993   2.200  18.133  0.0021  0.1536 -0.2294
16319W        W59232  24.682   8.495  22.888 -0.0358 -0.0858 -0.1659
16320W        W59233  18.679  32.787  19.111  0.5686 -0.1556 -0.1401
16321W        W59234  15.127   7.649  22.882  0.0020  0.3308 -0.1569
16322W        W59235  31.241  11.318   0.160  0.2451  0.0622 -0.0037
16323W        W59236  21.761   1.025  15.881 -0.1418 -0.0047 -0.0572
16324W        W59237  27.020   0.542  17.932 -0.1253 -0.4274  0.0779
16325W        W59238  10.929   0.744  27.827 -0.2131  0.0748 -0.2199
16326W        W59239  26.788   8.320  21.130 -0.1874 -0.2199 -0.1350
16327W        W59240  25.959  13.078  22.513 -0.0693 -0.0337  0.1066
16328W        W59241  25.741   5.729  20.178  0.0033  0.1051 -0.2233
16329W        W59242  26.936  28.450  22.833 -0.1706 -0.0495 -0.1894
16330W        W59243  32.652   4.780  22.132  0.1666 -0.1485  0.3538
16331W        W59244  28.095  33.760  19.854  0.0415  0.0009  0.0113
16332W        W59245  24.820  33.381  16.707 -0.0112 -0.3436 -0.1064
16333W        W59246  25.081  26.376  21.778 -0.0503  0.2939  0.0548
16334W        W59247  28.840   4.613  16.511 -0.3556  0.1889 -0.2204
16335W        W59248  28.178  20.102  19.976  0.1880  0.1333 -0.3858
16336W        W59249  26.817  14.681  21.507  0.1384 -0.1059  0.0456
16337W        W59250  30.001   2.087  17.283 -0.3028 -0.0415 -0.2978
16338W        W59251  32.575  10.649  18.567  0.0834  0.1371 -0.1238
16339W        W59252  24.027   7.424  20.659  0.1539  0.0507  0.0139
16340W        W59253  25.491  20.512  18.980  0.0653 -0.0393 -0.1227
16341W        W59254  28.279   6.845  23.725 -0.2120  0.0223  0.1485
16342W        W59255  27.283  13.802  23.491  0.0240  0.1157  0.2709
16343W        W59256  28.815  12.624  18.262  0.3676  0.3240  0.2477
16344W        W59257  26.811   6.305  27.111  0.0116  0.0074 -0.3570
16345W        W59258  26.371   8.900  15.554 -0.1433  0.1840  0.1449
16346W        W59259  32.165  33.394  18.500  0.3130  0.5312 -0.2599
16347W        W59260  21.912  34.184  25.212  0.1899 -0.1707 -0.2594
16348W        W59261  30.283  31.275   3.172  0.1252 -0.1505 -0.0054
16349W        W59262  24.493  10.685  18.928  0.3049 -0.3416 -0.2070
16350W        W59263  25.426   9.442  19.040  0.0325 -0.1888  0.0036
16351W        W59264  13.731   3.852  21.044 -0.0559 -0.0704  0.0234
16352W        W59265  31.205  33.143  23.975  0.0259  0.1273  0.1947
16353W        W59266  29.456   3.319  25.198 -0.0835 -0.0339 -0.2768
16354W        W59267  31.351  15.261  25.906 -0.1590  0.0953  0.0023
16355W        W59268  27.969  33.518  16.078 -0.2923  0.0479  0.1646
16356W        W59269  22.402  28.468  23.199 -0.1252 -0.1595  0.2551
16357W        W59270  31.827   6.834   3.434  0.0176 -0.0304  0.3125
16358W        W59271  27.210   8.347  15.824 -0.0614 -0.0306  0.4538
16359W        W59272  28.732   6.937  16.587 -0.2220 -0.1512 -0.2177
16360W        W59273   0.721   3.229  22.099 -0.2029  0.0492 -0.3377
16361W        W59274  25.670  10.052  22.186  0.2598  0.0853 -0.0298
16362W        W59275  14.762   7.433  22.209  0.0342 -0.0820 -0.2569
16363W        W59276  25.452   1.519  17.276  0.2162  0.3225 -0.1273
16364W        W59277  27.499  31.977  16.349 -0.0870 -0.1138  0.2124
16365W        W59278  27.058  17.365  21.668  0.0976 -0.0102 -0.1483
16366W        W59279  31.268  18.760  17.131 -0.1883 -0.2397  0.0843
16367W        W59280  28.734  11.124  24.961 -0.1519  0.0638 -0.0029
16368W        W59281  14.888  11.909  22.503 -0.2314  0.1256 -0.2438
16369W        W59282  27.678  31.947  19.939  0.0262 -0.0307 -0.0388
16370W        W59283  29.572   4.741  18.450 -0.2258 -0.1881  0.2581
16371W        W59284  23.189  33.418  28.333  0.2742 -0.0431 -0.1474
16372W        W59285  19.729   5.054  17.355 -0.0564 -0.0229  0.0490
16373W        W59286  27.859  16.177  28.527 -0.3761 -0.2412  0.0277
16374W        W59287  27.625   5.722  20.296 -0.2671  0.1117 -0.1114
16375W        W59288  32.573  16.725  15.763 -0.1588  0.2746 -0.1797
16376W        W59289  25.534  30.508  14.760 -0.0531  0.0736 -0.0684
16377W        W59290  13.216   2.169  23.732  0.3884 -0.1945 -0.0675
16378W        W59291  21.661  10.897  20.502 -0.1187 -0.0860 -0.3669
16379W        W59292   4.755   7.732  23.282 -0.2051 -0.2202 -0.1552
16380W        W59293  24.550   9.963  20.338  0.1896 -0.0183  0.0455
16381W        W59294  25.706   3.546  18.687 -0.1210 -0.0238 -0.1688
16382W        W59295  16.656  24.200  18.258  0.1779 -0.0358  0.0190
16383W        W59296  16.179  13.912  16.874 -0.1000 -0.0738 -0.0711
16384W        W59297  29.297   9.903  15.852  0.0190 -0.1958 -0.0942
16385W        W59298  17.809   2.128  15.601 -0.2000 -0.2608  0.3584
16386W        W59299  16.330   5.267  21.146  0.1670  0.0210  0.1534
16387W        W59300  26.173  33.178  27.582 -0.0618 -0.0992 -0.3548
16388W        W59301  30.764  18.865  22.127  0.1237  0.2360  0.1239
16389W        W59302  30.968   7.754  16.892 -0.0618 -0.1664  0.0454
16390W        W59303   1.529   7.432  23.196  0.2046  0.1031  0.0205
16391W        W59304  27.540   8.445  20.152 -0.1161 -0.0980 -0.3002
16392W        W59305  33.702  11.023  21.973  0.2073 -0.3365 -0.0882
16393W        W59306  30.258  10.619  19.060  0.2903  0.0772  0.1284
16394W        W59307  24.733  17.620  18.704  0.0476 -0.2275  0.1766
16395W        W59308  27.566  11.928  20.798  0.0838  0.0392  0.0638
16396W        W59309  20.335  30.358  21.152  0.1080  0.0984  0.1029
16397W        W59310  30.264   2.271  24.236 -0.3088  0.1346 -0.0118
16398W        W59311  21.375   9.376  19.656 -0.1421  0.0442 -0.0614
16399W        W59312  28.588  30.711  19.841 -0.4615  0.2184 -0.1663
16400W        W59313  28.263  17.214  16.776  0.1748  0.0119  0.1718
16401W        W59314  25.002  14.257  19.765 -0.2478  0.3716 -0.2431
16402W        W59315  24.018   1.369  18.569  0.0619 -0.0108  0.0540
16403W        W59316   1.434  31.959  17.052  0.1437 -0.1996 -0.3478
16404W        W59317  28.623  11.417   1.145 -0.0334  0.3197 -0.0689
16405W        W59318  32.440  13.721  18.056 -0.3527  0.0669  0.2798
16406W        W59319  33.579   6.313  17.401  0.0882 -0.1260 -0.0525
16407W        W59320  25.124   5.702  15.457 -0.1092 -0.4914  0.0132
16408W        W59321   1.326  13.965  14.672 -0.2351 -0.3865  0.1160
16409W        W59322   2.169  24.991   1.559 -0.2626 -0.1072  0.1560
16410W        W59323  26.397  10.964  23.685 -0.3078  0.1494 -0.1808
16411W        W59324  21.789  10.867  15.989 -0.0737 -0.0217 -0.2255
16412W        W59325  29.105  14.365  16.135  0.2605 -0.1446  0.0214
16413W        W59326  28.125   7.840  19.724  0.1771 -0.1169  0.2737
16414W        W59327  29.344   0.181  24.332 -0.0504  0.1173  0.0926
16415W        W59328  19.518  31.337  14.104 -0.1146 -0.0422 -0.5292
16416W        W59329  21.887   6.684  25.907  0.0558 -0.1749  0.3013
16417W        W59330  21.842   6.156  20.107  0.0113 -0.2209 -0.1202
16418W        W59331  22.515   1.363  20.238 -0.2713  0.0942  0.0953
16419W        W59332  24.541  34.291  28.452 -0.0596  0.0981  0.3376
16420W        W59333  29.410   8.545  15.143 -0.2199  0.2379 -0.0103
16421W        W59334  33.023  10.349  26.622 -0.0878  0.3129 -0.1254
16422W        W59335  29.478  23.182  13.771  0.0671 -0.2183 -0.0179
16423W        W59336  31.659   0.679  16.500 -0.0378  0.0055  0.2785
16424W        W59337  20.313   4.912  26.495  0.0138 -0.3068  0.0901
16425W        W59338  17.932   9.519  17.489  0.0488 -0.0441 -0.0250
16426W        W59339  21.324  13.917  29.538  0.5291  0.0030 -0.3177
16427W        W59340  20.830  10.091  22.486 -0.0541 -0.2577  0.0698
16428W        W59341  33.299  26.094  15.389 -0.0455 -0.0522  0.1569
16429W        W59342   1.425   3.012  26.144 -0.2614  0.2766 -0.2128
16430W        W59343  25.716   5.687  19.077  0.2167 -0.2371  0.0064
16431W        W59344  23.802   5.601  27.612  0.3087 -0.3166  0.0710
16432W        W59345  14.406   4.501  22.208  0.0542 -0.0555  0.0925
16433W        W59346  23.710   2.996  14.385  0.0661 -0.2716 -0.0512
16434W        W59347  26.268   5.480  17.588 -0.2246 -0.2581  0.1863
16435W        W59348  28.562   0.559  26.124  0.3005 -0.3053  0.2336
16436W        W59349  21.577   9.624  29.242  0.1519  0.1337 -0.2788
16437W        W59350  27.490   2.461   2.054  0.1310 -0.0476  0.0669
16438W        W59351  32.316   7.374  23.221  0.2816 -0.0682 -0.0286
16439W        W59352  21.318  13.090  24.168 -0.0714 -0.2832  0.0197
16440W        W59353  25.748   9.494  20.415  0.0709  0.0585  0.2187
16441W        W59354  14.044  32.645  19.583 -0.1604  0.0286  0.1333
16442W        W59355  33.330   2.140  19.269 -0.3764  0.2789 -0.0133
16443W        W59356   4.472  12.485  19.661 -0.0589 -0.0841  0.2211
16444W        W59357  20.971   0.407  20.285  0.1545  0.1038  0.1004
16445W        W59358  26.300  18.465   1.662 -0.1960 -0.0951  0.0135
16446W        W59359  25.840  11.948  18.905 -0.1261  0.2506  0.1450
16447W        W59360  32.808  34.169  21.448  0.3849  0.3204 -0.2677
16448W        W59361  20.900   8.133  14.466  0.0417 -0.0393  0.3557
16449W        W59362  21.544   9.268  22.904  0.0231  0.2965 -0.0088
16450W        W59363  33.515   5.748  16.822  0.0304 -0.0147  0.0862
16451W        W59364  29.276   5.662  21.954  0.1136 -0.2121  0.0731
16452W        W59365  18.900  14.558  24.711  0.2225 -0.0747 -0.1699
16453W        W59366  32.436   2.506  19.039 -0.0345 -0.0598  0.0259
16454W        W59367  20.261   1.150   0.448 -0.1239  0.2656  0.2286
16455W        W59368  20.245  30.522  27.819 -0.1054  0.3046 -0.3593
16456W        W59369  12.309   5.318  21.668 -0.3352 -0.2668  0.2171
16457W        W59370  29.176  32.176  15.111 -0.0172 -0.1301  0.2186
16458W        W59371  20.939   3.822  14.535  0.0790  0.0548 -0.1437
16459W        W59372  27.893   7.456  20.062 -0.1401  0.1174  0.2148
16460W        W59373  31.116   8.927  24.524  0.3302  0.0541 -0.1369
16461W        W59374  20.611   8.476  25.285 -0.1248  0.1002  0.0701
16462W        W59375  22.973   6.042  26.870 -0.0813  0.0022 -0.0184
16463W        W59376  28.472  27.898  25.605  0.0301 -0.1533 -0.0204
16464W        W59377  20.816   0.599  18.240  0.2285  0.1756 -0.2891
16465W        W59378  31.241   8.840  18.488 -0.0432 -0.4864  0.2589
16466W        W59379  22.416  11.416  22.187  0.0517 -0.1990  0.1695
16467W        W59380  30.923   1.925   3.571  0.1536  0.0237 -0.0702
16468W        W59381  29.250  12.711  14.252 -0.2010  0.2306 -0.1973
16469W        W59382  26.370   7.269  18.353 -0.3291 -0.0171  0.0695
16470W        W59383  15.304  27.633  29.644  0.1811 -0.1606  0.1544
16471W        W59384  27.882   6.712  25.363 -0.3629 -0.4362  0.1857
16472W        W59385  29.639   9.779   5.506  0.2609  0.1947  0.0094
16473W        W59386   9.681  18.361  14.094 -0.1308 -0.0344  0.2822
16474W        W59387  33.295  14.664  20.892  0.3267 -0.1262  0.1350
16475W        W59388  27.147  27.023  24.186  0.0648  0.2213 -0.0516
16476W        W59389  32.127   0.554  18.338  0.1973 -0.2880  0.0705
16477W        W59390   2.938   9.894   3.905  0.1222 -0.2965 -0.0040
16478W        W59391  22.060   5.630  23.254 -0.1407  0.1011 -0.0185
16479W        W59392  19.883  10.381  18.497  0.1388 -0.2859  0.0641
16480W        W59393  31.460   9.037  18.067 -0.0285  0.1290 -0.2456
16481W        W59394  33.035  28.984  23.922  0.2446  0.1346  0.1638
16482W        W59395  16.402   1.048  23.303 -0.1190 -0.3328 -0.1032
16483W        W59396  32.301  11.275  29.696 -0.2102 -0.1370 -0.2607
16484W        W59397  19.488   8.400  16.666 -0.1507  0.0178  0.3038
16485W        W59398  28.274   7.749  21.795  0.0152  0.0560  0.0210
16486W        W59399  33.092  33.173  21.144  0.2304  0.0040  0.1981
16487W        W59400   1.045   6.307   2.300  0.0363 -0.4274 -0.0124
16488W        W59401  28.470   2.239  19.551  0.0843  0.2250  0.1071
16489W        W59402  32.246   8.079  17.376  0.0436  0.0179 -0.4667
16490W        W59403   3.194   6.660  21.699  0.3740 -0.0617 -0.4157
16491W        W59404  26.713  34.496  23.456 -0.1379 -0.0712  0.0388
16492W        W59405  27.728  10.055  22.527 -0.0996 -0.2395 -0.2825
16493W        W59406  30.518   1.476   2.105 -0.2703 -0.1445 -0.0229
16494W        W59407  26.657   2.951  28.992  0.0303 -0.1737 -0.2835
16495W        W59408  22.221   5.401  24.262 -0.3480 -0.0135  0.0178
16496W        W59409  30.125  14.262  20.291 -0.4074 -0.1416  0.0577
16497W        W59410  18.825  12.189  24.418  0.0632 -0.0097 -0.1838
16498W        W59411  27.791  12.162  14.809  0.2293 -0.0848 -0.1427
16499W        W59412  18.193   4.290  14.998  0.0887 -0.1123 -0.1160
16500W        W59413  34.049   3.974  21.536 -0.2028  0.1850  0.0503
16501W        W59414  21.607  10.234  22.801  0.0228  0.2483 -0.1164
16502W        W59415  32.707  15.020  13.975  0.1342  0.1122 -0.0693
16503W        W59416  32.267  31.981  23.777 -0.0215  0.0650  0.0309
16504W        W59417  17.958   8.733  25.068  0.1196 -0.0114 -0.0784
16505W        W59418  24.742   4.641  19.768 -0.0299 -0.0336  0.1127
16506W        W59419   8.073  10.723  22.392 -0.1020 -0.1388 -0.1122
16507W        W59420  22.759  28.450  22.793 -0.2422  0.0890 -0.0840
16508W        W59421   2.749  14.775  15.127 -0.0033  0.2421  0.1432
16509W        W59422  21.563  10.139  18.094  0.0260 -0.3185  0.1119
16510W        W59423  25.002   0.353  19.328  0.0361  0.1493  0.1718
16511W        W59424   3.049  34.270  25.019  0.2014 -0.1224  0.2329
16512W        W59425  27.982  11.026   0.049  0.1478  0.0819  0.3273
16513W        W59426   6.398  29.420  20.598  0.2483 -0.2239 -0.2125
16514W        W59427  14.831   2.706  16.143  0.0661  0.1813 -0.0601
16515W        W59428  17.717   8.578  13.461 -0.3038  0.1201 -0.0027
16516W        W59429   2.068   2.304  24.156  0.2187 -0.0638 -0.1671
16517W        W59430  29.986  11.593  18.169 -0.2273 -0.0120  0.0198
16518W        W59431  26.585   4.497  14.683  0.4114  0.2763  0.1145
16519W        W59432  34.033   6.962  16.632 -0.0590 -0.2917  0.1134
16520W        W59433  17.986   4.592  27.453 -0.2395 -0.0322  0.2987
16521W        W59434   1.734   3.805  20.650  0.3649  0.0244 -0.2794
16522W        W59435  22.184   2.651  13.964  0.2959  0.0544  0.1421
16523W        W59436  15.474  23.956   2.151  0.6063  0.2523  0.0345
16524W        W59437  30.782  23.014  16.969 -0.2474 -0.4340  0.0700
16525W        W59438  26.403  11.774  17.370 -0.3713 -0.3929  0.0906
16526W        W59439  32.561   5.424   5.020 -0.2089  0.0341  0.0955
16527W        W59440  33.828  33.403  19.484  0.0274 -0.0030  0.0013
16528W        W59441  34.425  33.736  16.762  0.1023  0.0949 -0.0462
16529W        W59442  30.865  11.591  27.676 -0.0792 -0.1344  0.0234
16530W        W59443  24.863  30.219  28.742 -0.2235  0.1853 -0.1777
16531W        W59444  25.698   7.838  29.599  0.0571  0.1238  0.1656
16532W        W59445  31.688  14.091  23.602  0.0055 -0.0102 -0.1989
16533W        W59446  20.286  12.802  27.813  0.0915  0.0033 -0.1764
16534W        W59447  30.607  31.648  19.555 -0.2416  0.1499  0.1832
16535W        W59448  21.690  25.224  23.147  0.1737 -0.3733  0.0064
16536W        W59449  24.819   6.825  15.300 -0.0606  0.1586  0.2187
16537W        W59450  25.802   0.342  14.839  0.0831  0.0311 -0.1356
16538W        W59451  28.615  16.706  14.565 -0.0306 -0.1738 -0.0349
16539W        W59452  23.616  19.970  15.269  0.0969  0.1140 -0.1946
16540W        W59453  30.379  11.044  23.927  0.1301  0.1745 -0.0831
16541W        W59454  31.329   4.949  18.962  0.1893  0.0399 -0.0714
16542W        W59455  17.062   0.264  25.732  0.0274 -0.2628 -0.0391
16543W        W59456  30.208   9.267  20.360 -0.1691  0.2862 -0.0166
16544W        W59457  20.501   3.116  15.635  0.1457 -0.2637 -0.3337
16545W        W59458  20.281   9.339  19.877 -0.1988 -0.1444 -0.2353
16546W        W59459  30.473   5.531   1.276 -0.0555 -0.2944  0.1064
16547W        W59460  30.125   0.059  20.625  0.0209 -0.1809  0.1264
16548W        W59461  26.101   7.708  16.428  0.2347  0.0133 -0.0624
16549W        W59462   1.247  33.476   1.029 -0.1176 -0.2575 -0.5388
16550W        W59463  12.176   9.519  20.447  0.3931 -0.0344  0.2455
16551W        W59464   1.765   1.729  19.500  0.0610  0.0187 -0.0957
16552W        W59465  34.116   7.824  17.777 -0.1757 -0.0437  0.0372
16553W        W59466  18.006   7.081  20.190  0.0519 -0.1353 -0.0537
16554W        W59467  31.140  30.160  20.829 -0.1941  0.1850  0.2213
16555W        W59468   1.901  11.323  19.562  0.1906 -0.1097 -0.2983
16556W        W59469  19.108   5.317  15.904 -0.0553  0.0165 -0.1034
16557W        W59470  32.526   9.156   2.669 -0.2780  0.2246  0.2506
16558W        W59471  20.365   9.959  24.430 -0.1329  0.0530 -0.1947
16559W        W59472  28.661  11.773  18.904  0.0525  0.2346  0.0678
16560W        W59473  23.622   6.727  24.136 -0.3473  0.1229  0.2603
16561W        W59474  25.567  16.497  25.879  0.2885 -0.0431  0.0938
16562W        W59475  21.333  31.275  22.993  0.3023  0.2100 -0.0737
16563W        W59476  17.315   6.177  22.080 -0.1092 -0.3593 -0.0303
16564W        W59477  15.181   1.440  27.991  0.0740 -0.0807  0.1734
16565W        W59478  25.824   4.599  24.419 -0.2113 -0.0564 -0.1698
16566W        W59479  22.607  18.055  26.750  0.0966  0.1219 -0.0835
16567W        W59480  33.195   9.903  26.460 -0.0330 -0.4836  0.1243
16568W        W59481  23.349   4.549  14.465  0.4701 -0.2115  0.0344
16569W        W59482  25.245   6.389  20.969 -0.1530  0.1370 -0.2769
16570W        W59483  23.234   9.181  23.639  0.0152  0.0968  0.0834
16571W        W59484  30.396  10.009  24.946  0.1839 -0.0846 -0.0527
16572W        W59485  31.159  29.710  22.755 -0.3540 -0.1974 -0.1152
16573W        W59486  25.151   5.666  22.692 -0.0617 -0.1159  0.0502
16574W        W59487  17.469   2.320  18.480 -0.0025 -0.3020  0.0472
16575W        W59488  24.297   1.796  17.846  0.3086 -0.0576 -0.2002
16576W        W59489  21.436  12.304  16.274  0.0932 -0.2862 -0.1587
16577W        W59490  33.917  18.783  19.595  0.0676  0.3120  0.0112
16578W        W59491  27.094  23.960   5.955  0.0108 -0.0483  0.0212
16579W        W59492  27.091   4.115  26.089  0.0799  0.1645  0.0476
16580W        W59493  29.150  14.966  15.595 -0.1285 -0.1803 -0.0052
16581W        W59494  19.543   1.379  22.017 -0.2311 -0.3747  0.2498
16582W        W59495  24.633   0.148  15.100 -0.1010 -0.0757  0.2445
16583W        W59496  33.166   1.501  25.784 -0.0272  0.1806 -0.2218
16584W        W59497  18.653   9.314  29.203  0.0620 -0.1082 -0.0288
16585W        W59498  28.693   9.741  22.943 -0.0160 -0.3001 -0.1274
16586W        W59499  24.839   0.630  23.851  0.2327  0.1127  0.1900
16587W        W59500  20.460   2.865  18.366 -0.2181  0.0634  0.1988
16588W        W59501  28.666  12.694  21.311 -0.1279 -0.2183 -0.3725
16589W        W59502  31.610  34.428  22.636  0.1156  0.0618 -0.1407
16590W        W59503  18.237  30.050  28.138  0.1546 -0.0883  0.1802
16591W        W59504  20.553  10.285  20.799  0.2654  0.1857  0.1440
16592W        W59505  33.562  14.911  29.599  0.6071 -0.3017  0.1012
16593W        W59506  16.252  22.979  15.672  0.1555 -0.0123  0.2364
16594W        W59507  29.289  11.442  17.050 -0.0752  0.1599  0.0161
16595W        W59508  29.507   6.700  18.176 -0.0979  0.2365 -0.1936
16596W        W59509  29.143   3.169  21.228 -0.0854 -0.2143 -0.2915
16597W        W59510  29.435  15.559  14.939  0.1473  0.0288  0.1865
16598W        W59511  24.713  31.516  14.463 -0.1780 -0.1901 -0.0483
16599W        W59512  30.876   2.682  17.884  0.1381 -0.2402 -0.2356
16600W        W59513  18.198   3.341  21.002  0.0143 -0.2358  0.1491
16601W        W59514  25.649  12.784   1.616  0.0943  0.3130 -0.5274
16602W        W59515  33.112   3.713  25.459 -0.0893 -0.1267  0.3866
16603W        W59516  10.113   9.019  19.181 -0.0996  0.0528  0.2408
16604W        W59517  27.601   6.302  20.053  0.2320  0.2947 -0.1683
16605W        W59518  28.714   4.836  16.045 -0.1321  0.1965 -0.1846
16606W        W59519  31.199  31.536  17.224  0.2362  0.1372  0.0143
16607W        W59520  22.480  32.341  26.714  0.1137  0.0589  0.0290
16608W        W59521  28.381  31.285   0.057 -0.1713 -0.2587  0.0499
16609W        W59522  11.707   6.488  19.636 -0.0727 -0.2712 -0.0724
16610W        W59523  16.968  10.526  18.309  0.1155  0.2434 -0.1316
16611W        W59524  33.224  28.594  17.369 -0.1259  0.1126  0.1129
16612W        W59525  23.368  11.272  14.483  0.0013  0.3184 -0.0668
16613W        W59526  17.488   1.411  27.359  0.2543  0.1176 -0.0295
16614W        W59527  28.203   8.815  26.888 -0.2111  0.1351 -0.1406
16615W        W59528  32.353   9.840  21.916  0.1717 -0.0119  0.1502
16616W        W59529  29.464   1.987  17.436  0.1814  0.0337 -0.1722
16617W        W59530  25.872   6.655  23.363 -0.0796  0.2082  0.0930
16618W        W59531  28.088   8.714  14.766 -0.1422 -0.0024 -0.3272
16619W        W59532  28.292   7.287  19.592 -0.0965  0.0516 -0.2090
16620W        W59533  31.622   4.182  20.434 -0.3226 -0.1010  0.0084
16621W        W59534  18.976  28.614  14.724 -0.1768  0.0378  0.0005
16622W        W59535  23.298   3.223  16.957  0.0002 -0.0159 -0.1596
16623W        W59536  28.338   9.870  19.015 -0.1943  0.2844 -0.1388
16624W        W59537   7.346   5.807  17.691 -0.0556  0.2578  0.0209
16625W        W59538  21.043   4.276  28.695 -0.3404  0.1092 -0.3429
16626W        W59539  15.658   5.383  23.001 -0.2458  0.3872 -0.0200
16627W        W59540  29.581   5.764  15.594  0.2125 -0.2977  0.1975
16628W        W59541  18.964   1.532  14.707  0.0370  0.0864 -0.1887
16629W        W59542  21.511   5.955  14.144  0.1245  0.3790 -0.0792
16630W        W59543  22.783   9.491  27.400 -0.3000  0.0472  0.0975
16631W        W59544   2.523  34.036  26.203  0.1186  0.1968  0.1231
16632W        W59545  17.781  25.600  16.358 -0.0185 -0.3555  0.2067
16633W        W59546  27.486  20.076  14.851 -0.0611  0.3202 -0.1097
16634W        W59547  21.858   7.069   7.268 -0.3245 -0.3178 -0.2158
16635W        W59548  31.299  33.672  19.237 -0.2350 -0.0794  0.1819
16636W        W59549  34.101   8.130  25.482  0.0146 -0.3998 -0.0425
16637W        W59550  28.829  11.710  17.323  0.1159  0.0867  0.1456
16638W        W59551  23.732   4.990   1.707 -0.1896 -0.0601 -0.1350
16639W        W59552  22.447  11.311   0.625 -0.2881 -0.0986 -0.1423
16640W        W59553  30.648  32.590  19.601 -0.0441 -0.1733 -0.2329
16641W        W59554  32.858   4.376   0.901  0.1624  0.3046 -0.1152
16642W        W59555  22.877   2.295  22.238  0.0469 -0.3071  0.2441
16643W        W59556  31.460   5.951  18.600  0.1467  0.1232 -0.1719
16644W        W59557  31.355   2.002  18.209 -0.1123 -0.3690 -0.0221
16645W        W59558  19.039   8.486  28.783  0.3373 -0.0811  0.1349
16646W        W59559  22.720  17.012  21.545 -0.0510  0.0048  0.4324
16647W        W59560   9.176   6.460  23.097  0.0612  0.0982  0.2008
16648W        W59561  24.616  32.533  27.071  0.3752  0.1136  0.0960
16649W        W59562  32.131  12.091  19.846 -0.3572  0.0707  0.1679
16650W        W59563  17.927  31.295  14.965 -0.1672  0.1148  0.1923
16651W        W59564  21.066   5.118   0.610 -0.2253  0.2645 -0.3301
16652W        W59565  23.840  12.648  19.159 -0.0356 -0.1334  0.1951
16653W        W59566  26.907   0.965  21.929  0.2656  0.0909  0.1422
16654W        W59567  31.321  11.846  27.652  0.0520  0.0015  0.2856
16655W        W59568  27.420   7.301  16.338 -0.0580  0.0015 -0.1494
16656W        W59569  20.624  17.079  22.543  0.1303 -0.0706  0.2560
16657W        W59570  31.686   2.581  23.182 -0.2051  0.2407  0.1420
16658W        W59571  26.228   1.785  14.003 -0.1004  0.0821 -0.3063
16659W        W59572   0.113   5.036  29.544  0.2140  0.4485  0.1580
16660W        W59573  24.541  34.143  13.477  0.1302 -0.1216 -0.0433
16661W        W59574  30.879  32.101  15.845  0.0205 -0.1655 -0.0136
16662W        W59575  23.727  19.791  17.923 -0.3446 -0.1755 -0.1654
16663W        W59576  29.301   6.545  17.584  0.0963  0.2066 -0.4064
16664W        W59577  25.176   4.396  15.103  0.1553  0.3753 -0.0950
16665W        W59578  26.389  19.947  19.751  0.0538 -0.0008 -0.0694
16666W        W59579  24.893   7.027  23.042 -0.0772 -0.4217 -0.0251
16667W        W59580  27.407   6.354  18.539 -0.1802  0.1857 -0.1538
16668W        W59581  32.183   8.873  28.188  0.2917 -0.0343 -0.0098
16669W        W59582  28.759   4.440  23.794  0.1611  0.4999 -0.1553
16670W        W59583  29.322   9.634  28.743  0.2331  0.3202 -0.2918
16671W        W59584  26.688  32.237  21.425  0.1655  0.1558  0.0840
16672W        W59585  22.285   1.370  14.747  0.0512 -0.1516 -0.0208
16673W        W59586  25.627  12.596  20.002 -0.1807 -0.1258  0.0715
16674W        W59587  29.489  13.674  27.940 -0.1649 -0.1777  0.1836
16675W        W59588  25.322   3.226  28.399  0.2028 -0.6312 -0.1458
16676W        W59589  28.635   1.408  16.426  0.0642 -0.1978  0.1314
16677W        W59590  23.055  13.149  13.074 -0.1962 -0.1994  0.0322
16678W        W59591  31.302  14.614  23.513  0.1565 -0.1065 -0.0145
16679W        W59592  30.550  30.458  22.303  0.1564  0.1223  0.0723
16680W        W59593  23.086   9.594  18.971 -0.1195  0.1451  0.0729
16681W        W59594  20.934  33.600  25.542  0.0848 -0.2509  0.0024
16682W        W59595  17.388  31.814  21.892  0.0298 -0.1294  0.0653
16683W        W59596  32.454   6.560   5.673  0.2355  0.2230 -0.2530
16684W        W59597   0.644   3.992   9.088 -0.0511 -0.0114  0.2018
16685W        W59598  28.579  12.442  16.287  0.0367  0.0395 -0.1665
16686W        W59599  28.848  34.172  19.173 -0.0969  0.1001 -0.0731
16687W        W59600  22.356   8.516  22.700 -0.4272  0.2456 -0.1034
16688W        W59601  31.439  14.995  17.363  0.0201 -0.1384 -0.0344
16689W        W59602  12.630  12.195  20.518  0.3511 -0.0198  0.1263
16690W        W59603  31.657  13.824  21.388 -0.0887  0.2576  0.3438
16691W        W59604  24.942  13.830  18.528 -0.0794 -0.1498 -0.0198
16692W        W59605  31.844   9.167  18.443 -0.2757  0.0304 -0.1523
16693W        W59606   7.862  31.438  28.416 -0.0704 -0.1054  0.1144
16694W        W59607  26.298   8.974  24.886  0.1842  0.1194 -0.0148
16695W        W59608  25.174  32.162  23.542 -0.2919 -0.0479 -0.1156
16696W        W59609  32.893  14.487  19.792  0.0259  0.1030  0.3503
16697W        W59610   1.903   7.107  23.048  0.0102  0.1102  0.1296
16698W        W59611  29.588   5.207  25.659  0.1798 -0.0968 -0.0442
16699W        W59612  27.334   9.856  23.828 -0.2280  0.1929  0.0886
16700W        W59613  33.623   3.931  24.145 -0.1544  0.1941  0.0985
16701W        W59614  24.040   4.313  18.681 -0.0132  0.1070  0.1497
16702W        W59615   1.487  31.027  27.678  0.1142 -0.1333  0.0438
16703W        W59616  34.110   3.724  18.463  0.1501  0.2900 -0.3522
16704W        W59617  27.604   6.407  15.348  0.0865 -0.0294  0.2520
16705W        W59618  26.056  27.641  18.320  0.0740  0.0064  0.0828
16706W        W59619  21.718   5.136  18.209  0.0751 -0.0421  0.0127
16707W        W59620  32.393  19.268  28.320  0.0457 -0.3901 -0.0688
16708W        W59621  26.573   2.513  24.943  0.2832 -0.0290  0.1994
16709W        W59622  20.886   5.233  14.194  0.0074  0.0614  0.2490
16710W        W59623  26.638  18.611  15.289 -0.0309  0.3986  0.0500
16711W        W59624  30.450   6.773   4.422  0.1251 -0.3320  0.0757
16712W        W59625  15.096  10.061  21.146 -0.3398 -0.0969 -0.0058
16713W        W59626  29.069  13.410  14.785 -0.1519 -0.1737 -0.1398
16714W        W59627  31.653  32.512  14.131  0.2996 -0.0353  0.1867
16715W        W59628   3.548  16.021  26.307  0.0758  0.2014  0.1170
16716W        W59629  21.391   8.252  19.679  0.1305 -0.2975  0.1694
16717W        W59630  33.132  32.848  17.295  0.1321 -0.2712  0.1465
16718W        W59631  31.569   5.361  21.744 -0.1281 -0.1336 -0.0118
16719W        W59632  24.990   3.131  22.563 -0.1073  0.0972 -0.0357
16720W        W59633  27.979   5.831  19.912  0.0015 -0.0643 -0.1392
16721W        W59634  21.072  33.818  24.021  0.0028 -0.1047 -0.0738
16722W        W59635  24.965   9.142  26.051  0.0827 -0.2571  0.5333
16723W        W59636  31.701   1.944  18.877  0.0820 -0.1307 -0.0922
16724W        W59637  17.135   7.820  16.696  0.1506  0.1710 -0.0319
16725W        W59638  30.914  10.780  25.576  0.1693 -0.3036  0.0383
16726W        W59639  30.811   4.570  21.248  0.0811  0.0553 -0.0987
16727W        W59640  18.543   5.411  29.296 -0.2518  0.1351  0.2547
16728W        W59641  34.287  26.473  16.276  0.0558  0.1013 -0.2473
16729W        W59642  31.692  11.751  20.313 -0.0201  0.0428 -0.3487
16730W        W59643  17.193   3.347   2.287  0.2069  0.0986  0.1590
16731W        W59644  30.299   9.492  16.669  0.0596 -0.3299 -0.2454
16732W        W59645  20.463   8.656  23.222 -0.0732  0.0411  0.1486
16733W        W59646  31.919   2.024  16.934 -0.0507  0.1714  0.1543
16734W        W59647  30.759  10.311  19.055 -0.2301 -0.1472  0.1070
16735W        W59648  32.521   9.658  19.401 -0.2233  0.0678 -0.0528
16736W        W59649  25.311  25.651  23.466 -0.1070  0.1764 -0.0874
16737W        W59650   5.238  15.763  22.699 -0.1015  0.0405 -0.1954
16738W        W59651  24.971  15.599  16.151 -0.0568  0.1955 -0.0779
16739W        W59652   5.024  10.707  22.138 -0.0655 -0.0866 -0.2194
16740W        W59653  25.024   3.336  28.881  0.3970  0.0792  0.1074
16741W        W59654  25.654   3.682  14.556  0.0146  0.3776 -0.1786
16742W        W59655  23.824   1.674  16.513  0.1012 -0.2283  0.2140
16743W        W59656  28.034   3.284  24.250  0.1007  0.2196 -0.1838
16744W        W59657  32.303  29.460  20.447 -0.2355 -0.0618  0.1272
16745W        W59658   0.068  31.284   5.682 -0.0387 -0.2818 -0.0970
16746W        W59659  21.450   1.330  22.863  0.1493 -0.3006 -0.2190
16747W        W59660  27.950  19.022  19.266  0.0133 -0.1210  0.0371
16748W        W59661  22.242   1.050  16.047 -0.1354  0.0527  0.2462
16749W        W59662  27.914   7.878  18.055  0.2057  0.3421 -0.1548
16750W        W59663  19.613  30.547  28.559 -0.1402  0.3669 -0.3715
16751W        W59664  23.572  32.407  19.530 -0.1725  0.1790  0.0261
16752W        W59665  31.157  18.163  17.246  0.0216  0.4863 -0.0090
16753W        W59666  32.120   9.752  16.597 -0.0885  0.2001 -0.3429
16754W        W59667  24.212   3.651  22.431 -0.0046 -0.1825 -0.0983
16755W        W59668  28.782  30.489  13.310 -0.0827 -0.1362  0.4864
16756W        W59669  19.559  13.270   3.368  0.0299  0.0879 -0.0580
16757W        W59670  30.349   3.058  28.526  0.1146 -0.2052 -0.3323
16758W        W59671  30.504  21.836  17.485  0.1683  0.0294  0.0713
16759W        W59672  33.537   3.009  23.283 -0.1501  0.0662  0.1886
16760W        W59673  18.478  29.378  27.351 -0.1354 -0.1338 -0.0049
16761W        W59674  12.607  26.004  25.385  0.0187  0.2306 -0.2272
16762W        W59675  24.811  28.195  16.632  0.2775 -0.1917  0.1644
16763W        W59676  30.051   2.890  16.091  0.4987  0.1053  0.4540
16764W        W59677  33.176  11.515   2.166  0.0246 -0.0709 -0.0614
16765W        W59678  26.863   1.754  20.965  0.2809 -0.0547 -0.0453
16766W        W59679  25.509  12.730  18.727  0.1699  0.0298 -0.0283
16767W        W59680  12.545  32.833  23.049  0.0679 -0.1730  0.0460
16768W        W59681  16.689  10.738  20.911 -0.1628  0.3051  0.3313
16769W        W59682  25.590  29.219  16.752  0.2543 -0.1621  0.0959
16770W        W59683  21.453  34.327  14.651 -0.0676  0.0412 -0.1136
16771W        W59684  16.195  12.502  25.016  0.0807  0.1048 -0.1680
16772W        W59685  21.716   4.986  24.695  0.0022  0.0240  0.2208
16773W        W59686  26.101  33.256  15.406  0.0035  0.0549  0.1869
16774W        W59687  14.913  34.159  22.607 -0.1534 -0.0712 -0.3580
16775W        W59688  34.424   5.807  17.068  0.3647  0.2903 -0.0790
16776W        W59689  27.891   8.731  20.286 -0.1690 -0.3393 -0.3229
16777W        W59690  29.582  15.548  18.191  0.0138 -0.1626  0.0519
16778W        W59691  28.031  10.349  26.497 -0.0896  0.1417 -0.1437
16779W        W59692  30.373   6.339  23.514  0.1318 -0.1076 -0.1312
16780W        W59693  19.458  11.673  14.126  0.0492  0.1142  0.0944
16781W        W59694  34.225  31.461  20.605  0.2394 -0.1485 -0.0198
16782W        W59695  10.836  32.663  28.071  0.2906 -0.0729  0.0596
16783W        W59696  20.608   3.763  18.115  0.0168  0.0555 -0.3360
16784W        W59697  16.113   8.210  19.603  0.1284 -0.1145  0.3598
16785W        W59698  26.594   6.240  17.645 -0.1116  0.1077  0.2751
16786W        W59699  30.108   8.067  16.482  0.2820 -0.1251  0.4012
16787W        W59700  20.876   4.491  26.304  0.0938 -0.0671 -0.1737
16788W        W59701  23.371   1.821  18.803 -0.0839 -0.0326  0.0437
16789W        W59702  18.855   8.385  24.777 -0.3946  0.2844  0.1266
16790W        W59703  25.291   9.977  14.319 -0.2045 -0.0853 -0.0997
16791W        W59704   0.533   1.168  22.566  0.1902  0.1204  0.1426
16792W        W59705  28.904   7.044  28.570 -0.0311  0.0805  0.1465
16793W        W59706  15.548  24.631  17.311 -0.0039  0.0034 -0.1227
16794W        W59707  23.636   3.323  28.955  0.1876 -0.0528 -0.2173
16795W        W59708  34.092   1.254  20.453 -0.0474 -0.1820 -0.1388
16796W        W59709  21.366   2.098  28.820  0.0466  0.0561 -0.0863
16797W        W59710  27.265   2.925   1.897  0.2018  0.1286 -0.4684
16798W        W59711  26.337  14.518  16.391 -0.1005  0.4517 -0.2439
16799W        W59712  26.847   4.993  27.552  0.1887  0.2061  0.3862
16800W        W59713  26.477  27.616  16.566  0.3411  0.0268 -0.1399
16801W        W59714  19.353  15.166  22.850 -0.0956 -0.1018 -0.0295
16802W        W59715  21.026   7.909  28.904  0.0576  0.2474  0.1978
16803W        W59716  30.266  32.304  17.866  0.0448  0.0388 -0.1075
16804W        W59717  19.696   9.329  24.230  0.0381 -0.4232 -0.0338
16805W        W59718  31.249  33.810   1.738  0.1100  0.0835 -0.1701
16806W        W59719  22.283   7.569  26.960 -0.0767  0.0850 -0.0491
16807W        W59720  17.823  15.074  26.064  0.2253  0.2852 -0.1037
16808W        W59721  33.557  12.283  18.962 -0.2629  0.1002  0.1080
16809W        W59722   2.775   7.330  27.867 -0.1494  0.2418  0.1276
16810W        W59723  30.529   6.645  20.146  0.0576 -0.2986  0.0147
16811W        W59724  16.338  32.794  26.815 -0.0514 -0.1330  0.1472
16812W        W59725  28.163  22.784  18.772  0.1066  0.5014 -0.1588
16813W        W59726  33.096   1.270  16.653  0.1938 -0.0370  0.1366
16814W        W59727  28.838  18.349  19.506 -0.0275  0.0288 -0.0638
16815W        W59728  30.043   9.366  16.287 -0.0014  0.2395  0.0372
16816W        W59729  12.243   8.959  20.384 -0.0912 -0.0217  0.1770
16817W        W59730  28.154   4.527  19.779 -0.3882 -0.2551  0.2127
16818W        W59731   1.722   3.311  22.940  0.1848 -0.0917  0.2459
16819W        W59732  33.113  34.240  24.784 -0.0464  0.1381  0.0796
16820W        W59733  33.067   8.564  16.889 -0.2538  0.0615 -0.2930
16821W        W59734  21.859   8.355  13.061  0.1389  0.0798 -0.1735
16822W        W59735  31.753  29.644  22.175 -0.0148 -0.0373 -0.3550
16823W        W59736  27.000  26.666  23.888 -0.1076 -0.0287  0.1418
16824W        W59737  17.603   6.739  13.283 -0.1189 -0.2271 -0.1085
16825W        W59738   2.679   2.222  25.600 -0.1784 -0.3458  0.2946
16826W        W59739  27.699  16.261  26.691 -0.1461  0.1433  0.1080
16827W        W59740  28.659  12.470  19.086  0.1701 -0.0011  0.2167
16828W        W59741  19.974  12.212  21.890 -0.2087 -0.2416  0.0777
16829W        W59742  22.129  10.621   8.029  0.1912  0.2552  0.2806
16830W        W59743  29.212  34.100  16.388  0.1209 -0.1646 -0.1726
16831W        W59744  10.175  31.342  17.901 -0.1380  0.0209 -0.1829
16832W        W59745  31.791   6.299  26.539  0.1581  0.3020  0.0108
16833W        W59746  12.801   5.037  19.949 -0.0539  0.0347 -0.2232
16834W        W59747  29.005  14.065  29.477 -0.0645  0.0761 -0.0997
16835W        W59748  22.185   4.794   1.523  0.0823 -0.1572  0.0730
16836W        W59749  21.673  32.271   0.598 -0.0152 -0.0071 -0.3294
16837W        W59750  31.669  22.710  21.665 -0.2757  0.0323 -0.0124
16838W        W59751  20.994   8.245  26.140 -0.2655  0.0386  0.2696
16839W        W59752  29.982  24.496  21.963 -0.0582 -0.2585  0.1969
16840W        W59753  31.927   6.994  21.161  0.0490 -0.1709  0.0842
16841W        W59754  19.663  33.622  26.115  0.0846  0.0813 -0.4213
16842W        W59755  26.629  12.412  25.829 -0.1662 -0.0132  0.0155
16843W        W59756  23.725   3.379  24.141 -0.1423  0.2895 -0.0569
16844W        W59757  20.550  11.887  20.797  0.2531 -0.0831  0.4142
16845W        W59758  30.465  15.821  24.367 -0.1204  0.2208 -0.0659
16846W        W59759  31.733   8.504   7.096 -0.1730  0.0126  0.1380
16847W        W59760  18.336  15.471  22.193  0.2679 -0.0748  0.3247
16848W        W59761  26.833   6.987  17.076  0.0309 -0.0298  0.1618
16849W        W59762  33.267   7.673  16.313 -0.1203  0.0093  0.0777
16850W        W59763  25.978   2.286  14.323  0.1320  0.0214 -0.2009
16851W        W59764  22.958   4.485  14.806 -0.0212 -0.1250  0.1885
16852W        W59765  20.011   3.317  22.835 -0.0914  0.3393  0.0826
16853W        W59766   1.478  13.157  22.377 -0.0709 -0.0342  0.0408
16854W        W59767  23.603   7.484  20.366  0.3236  0.0211 -0.1828
16855W        W59768  30.644   4.113   5.744 -0.2914 -0.2904  0.2192
16856W        W59769  17.745  28.908   1.014 -0.1540 -0.2011 -0.1325
16857W        W59770  22.702   5.052  29.188 -0.0076  0.3700  0.2238
16858W        W59771  20.909  29.176  19.172 -0.2462  0.0535 -0.0594
16859W        W59772  24.044  13.082  25.535  0.2523 -0.2359 -0.1399
16860W        W59773  34.177   2.555  28.847 -0.0119 -0.1594  0.2118
16861W        W59774   0.439  32.582   2.861 -0.0821 -0.1788  0.0876
16862W        W59775  23.710  32.123  19.088 -0.0369 -0.1666 -0.1124
16863W        W59776  31.107   0.837   1.958  0.0641 -0.2575 -0.1027
16864W        W59777  16.934   5.415   8.578  0.0108  0.0598 -0.1108
16865W        W59778  21.603   2.912  16.744  0.0743  0.0916 -0.2743
16866W        W59779  34.286  33.267  18.055  0.2817 -0.1503 -0.1724
16867W        W59780  26.629  33.804  20.086 -0.0503 -0.1165  0.0819
16868W        W59781  33.097  30.897  24.629 -0.2566 -0.0619 -0.0621
16869W        W59782  22.731  32.625   4.234 -0.3340 -0.0107 -0.1743
16870W        W59783  32.322  13.098  26.328 -0.0625 -0.0659  0.2516
16871W        W59784  30.547   6.542   1.494  0.0731  0.0056 -0.0095
16872W        W59785   4.611   5.665  23.040 -0.1115  0.1351 -0.2915
16873W        W59786  28.632   2.944   0.581 -0.1060  0.0431 -0.0794
16874W        W59787  22.966  14.394  23.363 -0.0929 -0.1599 -0.0148
16875W        W59788  15.773   7.081  24.040 -0.1765 -0.0939 -0.0692
16876W        W59789  21.085   6.917   5.793  0.1069  0.0367  0.1668
16877W        W59790  31.409   8.388  18.414 -0.0755  0.1001 -0.1513
16878W        W59791  19.645   0.284  22.745  0.5354  0.4086  0.1526
16879W        W59792  13.433  14.681  14.591  0.2631  0.0826 -0.0557
16880W        W59793  24.035   2.813   0.771  0.1883 -0.2775 -0.1855
16881W        W59794  11.647   0.117   2.650  0.0370  0.0876  0.0833
16882W        W59795  25.860  13.050   5.186  0.1644  0.1655  0.0564
16883W        W59796  20.371   8.911   2.764 -0.0854 -0.0723 -0.0661
16884W        W59797  12.749   7.996  20.865 -0.0265 -0.0671 -0.1344
16885W        W59798  28.748   5.053  23.121  0.0396  0.2566 -0.0448
16886W        W59799  28.010   4.736  17.254 -0.5281 -0.3881  0.1287
16887W        W59800   0.075   2.555  23.335  0.3898  0.3565 -0.1707
16888W        W59801   1.156   6.988  29.586 -0.1981 -0.1484 -0.0353
16889W        W59802  30.712  12.989  14.404  0.3276  0.0110 -0.1197
16890W        W59803  22.711   3.652   3.678  0.1220  0.3637  0.0258
16891W        W59804  11.459  33.004  17.955  0.3200 -0.1658  0.1945
16892W        W59805  22.825  12.461  21.495  0.0476  0.0948  0.3691
16893W        W59806  18.742   9.014  25.418 -0.3461  0.0900  0.0932
16894W        W59807  28.754   2.012  15.240 -0.0529 -0.0194  0.0237
16895W        W59808  20.860   2.436  23.637 -0.1666  0.0884 -0.0592
16896W        W59809  26.371   1.169  27.416 -0.0385 -0.2113  0.2048
16897W        W59810  22.145  13.274  23.892 -0.3180 -0.0386  0.2536
16898W        W59811  17.653   2.298  24.776 -0.0469  0.0868 -0.4437
16899W        W59812  16.206  12.816  21.640  0.0490  0.0261  0.1007
16900W        W59813   4.309   4.698   1.723  0.4904 -0.1891 -0.0109
16901W        W59814  32.947   5.129  25.716  0.1829  0.0165 -0.0099
16902W        W59815  23.227  13.818  22.572 -0.3128 -0.0023 -0.0319
16903W        W59816  30.696  29.737  18.276  0.2796 -0.1105  0.0360
16904W        W59817  25.796  32.415  17.993 -0.0073 -0.4683  0.1360
16905W        W59818  26.881   4.072  23.327 -0.2181  0.1383  0.2382
16906W        W59819  27.098   3.182  21.302 -0.1709  0.0881  0.2007
16907W        W59820  30.897  11.269  18.467  0.3229  0.1063 -0.0667
16908W        W59821  21.792  30.085  28.960  0.0566 -0.0810  0.1176
16909W        W59822  31.573  34.294  24.238 -0.0020  0.3501 -0.3084
16910W        W59823  16.267  33.772  23.145  0.0509 -0.3201 -0.1662
16911W        W59824  20.098   3.646  28.500  0.1292  0.4870 -0.1630
16912W        W59825  19.196  12.758   1.346  0.0388  0.0782 -0.2191
16913W        W59826  19.935   6.343   3.745  0.0281  0.1166 -0.1855
16914W        W59827  21.505   7.242  21.568 -0.2736 -0.0675  0.0033
16915W        W59828  29.286   0.292  14.869  0.3475  0.2076  0.0808
16916W        W59829   9.973   3.380  29.610 -0.1802  0.3621 -0.0500
16917W        W59830  23.608  14.392  25.323  0.1841  0.0579  0.1565
16918W        W59831  17.408   5.314  25.310  0.0564 -0.0656 -0.1303
16919W        W59832  16.570   0.853  26.139 -0.2426  0.3923 -0.2492
16920W        W59833  18.889  10.887   1.881  0.1497 -0.1101  0.1039
16921W        W59834  33.092  10.047  16.069 -0.1459 -0.0058 -0.1109
16922W        W59835  23.148  18.380  12.557 -0.0264  0.0812 -0.4390
16923W        W59836  12.776   6.066   1.937 -0.0424 -0.0723  0.0218
16924W        W59837  20.780  14.694  18.230 -0.1280  0.0187  0.1315
16925W        W59838  21.567  14.141  17.485 -0.3104 -0.1608 -0.0626
16926W        W59839  24.468  31.907   0.179 -0.1894 -0.3539 -0.2358
16927W        W59840  21.012  12.366  28.975 -0.1203 -0.1950  0.0976
16928W        W59841  30.399   6.084   2.686 -0.0613  0.4224  0.0403
16929W        W59842  34.012   4.759   0.615  0.2678  0.3245  0.5131
16930W        W59843  31.868   1.462  25.485  0.2414  0.2163 -0.2136
16931W        W59844   4.637  34.427  22.922 -0.1182 -0.2143 -0.1918
16932W        W59845  17.284  33.210  21.711  0.0624 -0.0330  0.1866
16933W        W59846  18.276  25.519   1.695 -0.0701  0.2824 -0.1205
16934W        W59847  14.434   0.570  26.726  0.1351  0.0352 -0.0449
16935W        W59848  26.527  18.425  28.266 -0.0066  0.1571 -0.1674
16936W        W59849  24.084   7.620   1.640 -0.0353 -0.2930 -0.2283
16937W        W59850  14.097  33.227  28.813  0.1013  0.0546 -0.2112
16938W        W59851  24.570   6.317  21.577  0.0717  0.1794  0.1409
16939W        W59852  26.198   2.300  20.673  0.0324  0.4451 -0.1982
16940W        W59853  28.864  10.237  22.843 -0.1472 -0.1806 -0.0551
16941W        W59854  23.554  33.555  25.080  0.1278  0.1359 -0.0438
16942W        W59855  13.513   7.515  15.897 -0.1864  0.1598 -0.1275
16943W        W59856  27.217  32.127  27.904  0.1514  0.0763 -0.0707
16944W        W59857  14.437   3.749   0.639  0.1684  0.2945  0.0656
16945W        W59858  16.280   6.541   2.734 -0.2249 -0.2045 -0.0548
16946W        W59859  30.885  22.539  27.339 -0.1197  0.1831  0.0891
16947W        W59860  20.653   2.649  14.747  0.2199 -0.0271  0.0691
16948W        W59861  24.125   9.326  24.514 -0.1353 -0.0208 -0.1869
16949W        W59862  21.576   8.798  24.207  0.1577  0.0841 -0.2837
16950W        W59863  16.126   6.228  17.184 -0.0014  0.1029 -0.0870
16951W        W59864  17.642   5.753  29.030  0.0043 -0.3628 -0.0027
16952W        W59865   0.609   5.013  17.194 -0.0346 -0.0901  0.0971
16953W        W59866  22.238  13.612  22.906 -0.0654  0.0946  0.0510
16954W        W59867  31.645   1.290  27.761  0.0243 -0.0677 -0.0710
16955W        W59868  23.676   6.371  22.364 -0.0161 -0.1627  0.0012
16956W        W59869  30.617  17.213  29.055  0.1307  0.1080 -0.0804
16957W        W59870  30.601  13.630   0.663 -0.1319 -0.2143  0.1307
16958W        W59871  33.033   4.688   6.163 -0.0274 -0.3151  0.3206
16959W        W59872  27.915   4.817  23.696 -0.1292  0.0355  0.1678
16960W        W59873  24.484  16.513  27.048  0.2325 -0.2760 -0.1709
16961W        W59874  29.534  28.862  23.337 -0.0925  0.1361 -0.1975
16962W        W59875  30.206   5.645  17.697  0.0593 -0.0261 -0.0469
16963W        W59876  21.488   3.397  27.578  0.0656  0.0636 -0.0583
16964W        W59877  21.863   2.754   2.302 -0.0963  0.0057  0.2651
16965W        W59878  26.647   9.559  22.096  0.0071  0.0851 -0.1445
16966W        W59879  27.300  18.543  23.018 -0.1251  0.1942 -0.0649
16967W        W59880  28.887   5.945  27.681  0.0640  0.1712  0.1933
16968W        W59881  26.874   4.632  16.021  0.1737 -0.1698  0.2016
16969W        W59882  25.843  14.354  20.940 -0.1588 -0.0667 -0.1862
16970W        W59883  12.697   6.024  29.356  0.0740  0.0385  0.2247
16971W        W59884  31.289  12.623  25.438  0.0200 -0.0836  0.2345
16972W        W59885  21.811  10.332   0.100 -0.0519  0.0719 -0.0351
16973W        W59886  29.909   6.917  17.099 -0.3748 -0.1715 -0.0290
16974W        W59887  27.198  10.610  24.344 -0.1417  0.2316  0.1637
16975W        W59888  24.084  33.251   2.154 -0.0047  0.2597 -0.0572
16976W        W59889  30.054  28.998  26.884  0.1208  0.1187  0.0346
16977W        W59890  26.370   5.621  18.353  0.1561  0.0433 -0.2563
16978W        W59891   2.587   4.147  24.039 -0.0174 -0.0548  0.0666
16979W        W59892  29.152   7.804  26.007 -0.1795  0.0192  0.3146
16980W        W59893  17.458   4.136  23.762  0.0129  0.4306  0.0441
16981W        W59894  23.608   3.885  19.863  0.1565 -0.0363 -0.2319
16982W        W59895   0.202   0.369  18.636 -0.0059  0.0367 -0.0077
16983W        W59896  27.192   4.673  28.214  0.2575 -0.2307  0.5360
16984W        W59897  21.804   7.038  21.202 -0.1452 -0.0017  0.5197
16985W        W59898  24.515  32.500  15.808  0.3597  0.0985 -0.2658
16986W        W59899  15.862   2.163  18.145 -0.2290 -0.1072 -0.0426
16987W        W59900   0.810   3.556  25.111  0.2115  0.1422  0.3181
16988W        W59901  32.492  13.238  19.482  0.0410 -0.1564 -0.0556
16989W        W59902  30.040  13.168   0.070 -0.0623  0.1772  0.0250
16990W        W59903  28.997  33.497  20.065  0.0262  0.2348  0.1418
16991W        W59904  19.715  10.494  29.148 -0.4060 -0.0284 -0.1580
16992W        W59905  20.992  28.069  26.373 -0.1392  0.1091  0.1006
16993W        W59906  23.453  15.340  23.344 -0.0822  0.3753 -0.1393
16994W        W59907  27.208  16.638   2.085 -0.0455  0.0537  0.0170
16995W        W59908  22.547  31.702   1.700 -0.3285 -0.2235 -0.0031
16996W        W59909  23.517  12.433  20.159 -0.0534  0.0786 -0.1378
16997W        W59910  28.649   3.176  21.043 -0.0991 -0.3953 -0.0811
16998W        W59911  29.430   2.856  15.471  0.1604 -0.0355  0.1151
16999W        W59912  18.386   6.746  14.542 -0.1193 -0.0301  0.0093
17000W        W59913  24.371   4.923  28.509 -0.1392 -0.0455 -0.0600
17001W        W59914   0.958  32.781  23.876 -0.0822 -0.2020 -0.1718
17002W        W59915  20.214   2.383   3.752 -0.4890 -0.0635  0.1913
17003W        W59916  26.823   4.179  20.413  0.1325  0.0103  0.1681
17004W        W59917  26.304  16.757  17.241 -0.2602  0.1099 -0.3553
17005W        W59918  17.813   2.330  17.008 -0.0945 -0.0323  0.1653
17006W        W59919  31.026   0.252  17.068 -0.0324  0.0466  0.1887
17007W        W59920  21.764   7.161  28.265  0.3323  0.1129 -0.0304
17008W        W59921  30.275  31.478  19.157  0.0120 -0.2729 -0.3304
17009W        W59922  27.836   1.545   0.243  0.0528  0.2348 -0.0872
17010W        W59923  26.909  17.094   7.343  0.0941 -0.0575 -0.1242
17011W        W59924  31.402   0.813  19.415  0.1024  0.0335 -0.2079
17012W        W59925  33.766  31.438  17.571 -0.1055  0.0187  0.1871
17013W        W59926  33.962  26.353   0.063 -0.1807 -0.1627  0.2101
17014W        W59927  32.461   9.306  15.619  0.0633  0.0515  0.0415
17015W        W59928  26.373   2.961   3.969  0.0926  0.0241  0.1271
17016W        W59929  27.630  30.137  25.006 -0.2073  0.2212 -0.2638
17017W        W59930  34.189  12.260  21.838  0.1602 -0.0040 -0.3729
17018W        W59931  20.177   5.800  18.815 -0.4052  0.2575  0.0945
17019W        W59932  20.022  29.977  21.021 -0.1154 -0.0625 -0.1180
17020W        W59933  33.265   8.705  15.438 -0.2509  0.3127 -0.0602
17021W        W59934  15.138  32.678  25.052 -0.1724  0.2187  0.0615
17022W        W59935  19.907   9.613  20.065 -0.4762 -0.2904 -0.0306
17023W        W59936   5.865  31.952  19.010  0.2266  0.0389 -0.0719
17024W        W59937  32.022   8.840  27.361 -0.2130  0.0336 -0.1296
17025W        W59938  28.571   4.401  28.509  0.1464 -0.0414  0.0716
17026W        W59939  22.546  32.365  15.129  0.1682  0.1861  0.0611
17027W        W59940   1.360  31.470  27.527 -0.2396 -0.0582  0.3005
17028W        W59941  27.563  11.553  24.695 -0.1371 -0.1173  0.1918
17029W        W59942  31.836   3.903   4.791 -0.2660  0.0173 -0.1357
17030W        W59943  24.561  31.575  28.930  0.0535  0.0517 -0.0565
17031W        W59944  29.277   0.742  20.369 -0.1753 -0.1322  0.2345
17032W        W59945  33.956  12.633  28.762  0.3297  0.2183  0.2447
17033W        W59946  28.499   4.838   1.683  0.0422 -0.1230  0.2321
17034W        W59947  20.405  33.526  24.583  0.2987 -0.0204  0.0393
17035W        W59948  28.273   3.587  15.717 -0.2613 -0.5173  0.0034
17036W        W59949  21.513   9.191  19.199 -0.2598 -0.0674  0.0831
17037W        W59950  23.347   5.118  28.480 -0.0286  0.3992 -0.2372
17038W        W59951  19.551   9.224  23.636  0.2068  0.0811  0.2848
17039W        W59952  16.430   0.320  21.577 -0.0437 -0.0341 -0.0358
17040W        W59953  23.742  16.022  24.669 -0.0123 -0.0593  0.1722
17041W        W59954  18.618  14.323  21.993 -0.0742 -0.0021 -0.1557
17042W        W59955   5.558   8.341   0.316  0.1029 -0.2247  0.0773
17043W        W59956  31.720  11.415  25.347  0.0529 -0.2369  0.1200
17044W        W59957  28.456   4.292  25.469  0.0714  0.1082 -0.0728
17045W        W59958  28.290   2.172   1.636  0.1681 -0.0669  0.1665
17046W        W59959  20.844  14.468  23.329  0.1527  0.0192 -0.1192
17047W        W59960  18.027   9.285  22.718  0.2073 -0.1460  0.5349
17048W        W59961  21.920   6.337  22.488  0.2447 -0.0034  0.1424
17049W        W59962  32.623   3.326  22.584  0.1378 -0.0918  0.1409
17050W        W59963  21.903   2.766  24.493 -0.1823 -0.1593 -0.3102
17051W        W59964  26.559  10.162  27.241 -0.2249  0.3642 -0.0079
17052W        W59965  31.901   3.337   6.074 -0.1154 -0.0154 -0.0489
17053W        W59966  27.831   1.617  18.831 -0.0967 -0.3764 -0.3173
17054W        W59967  34.324   3.830  27.103 -0.0512  0.0733 -0.0010
17055W        W59968   5.881   3.895  22.918  0.2340  0.3711  0.1000
17056W        W59969  33.796   3.742  29.146 -0.1418  0.4704  0.0384
17057W        W59970  18.288  11.521  25.682  0.2465  0.2813 -0.1190
17058W        W59971  19.443   9.883  25.726 -0.1037 -0.1456 -0.2202
17059W        W59972  28.283   7.848  22.763  0.0617 -0.0729 -0.1529
17060W        W59973  29.439   8.038  18.913 -0.0742  0.0287  0.0924
17061W        W59974  26.379  13.447  25.567  0.0671 -0.0319  0.1488
17062W        W59975  19.298  15.976  26.882  0.2653 -0.1455 -0.1383
17063W        W59976  20.409   6.015  14.243  0.1399 -0.0206  0.1332
17064W        W59977  33.699  12.559  15.820 -0.1123  0.1665  0.1870
17065W        W59978  25.541  14.869  18.394  0.3546 -0.1165 -0.3787
17066W        W59979  15.960  11.860  18.784 -0.1031 -0.0698 -0.1657
17067W        W59980  29.970   1.529  24.000 -0.0635 -0.2809 -0.0357
17068W        W59981  33.421  31.676  27.302  0.3025  0.1925  0.2106
17069W        W59982  15.996  12.620  27.038 -0.0442  0.0233 -0.2254
17070W        W59983  23.441  33.274  17.859 -0.2729  0.0348  0.0163
17071W        W59984  28.647   8.911  19.273 -0.1249 -0.0287  0.1368
17072W        W59985  22.466  10.500  25.876  0.1235 -0.1050  0.1094
17073W        W59986  27.213   4.719   0.310  0.1838 -0.0086 -0.0009
17074W        W59987  32.451   7.545  21.700  0.1360  0.4257  0.0133
17075W        W59988  26.046   3.446   0.565 -0.2491 -0.1685 -0.0452
17076W        W59989  28.135  32.706  15.581  0.0005 -0.0894  0.3199
17077W        W59990  22.239   6.068  22.093 -0.1275  0.3258  0.2255
17078W        W59991  22.879  17.596  24.270 -0.5063 -0.2650 -0.0676
17079W        W59992  18.525   3.362  26.731  0.1762  0.1319  0.2090
17080W        W59993  26.720   3.780  25.914  0.1380  0.0923 -0.0291
17081W        W59994   2.307  14.806  16.555  0.3805  0.3026 -0.4864
17082W        W59995  20.239  33.126  17.705  0.0450 -0.1922 -0.1948
17083W        W59996  17.516  12.799  17.317  0.1678 -0.1897  0.1706
17084W        W59997  26.111   0.200  18.547 -0.1185 -0.0866  0.1590
17085W        W59998   3.360   0.342  27.240  0.0925  0.1814  0.0541
17086W        W59999  20.807   5.995  22.959  0.0540 -0.0099  0.1035
17087W        W60000  26.236   6.937  20.086  0.0405  0.2848  0.0770
17088W        W60001  19.403  12.977  25.735  0.0225  0.0739  0.1826
17089W        W60002  21.727   3.678  25.026  0.2249  0.0645  0.0849
17090W        W60003  28.993   2.761  28.030 -0.1999  0.0873  0.1717
17091W        W60004  27.424   9.488  27.367 -0.1619 -0.1026  0.0938
17092W        W60005  31.942  13.084  28.182  0.1284  0.0777 -0.0383
17093W        W60006  21.357   6.727  20.457 -0.0000  0.0634 -0.0209
17094W        W60007  32.076   9.513  15.417  0.3134  0.1925  0.0584
17095W        W60008  31.356  17.920  20.104 -0.2385  0.0253  0.0613
17096W        W60009  17.759   1.937   1.012  0.1279 -0.0486 -0.0397
17097W        W60010  26.873   4.972  20.159 -0.0422  0.3563  0.1459
17098W        W60011  10.753  33.317  28.746  0.0571 -0.3558 -0.0625
17099W        W60012  27.749   5.818  22.262 -0.0346 -0.1018  0.1420
17100W        W60013  20.829   6.674  25.741 -0.3581  0.0259 -0.1305
17101W        W60014  27.398   2.025  19.655 -0.0460 -0.2719 -0.2331
17102W        W60015  16.621   8.998  28.671 -0.0374  0.0552 -0.1501
17103W        W60016  34.011  14.203  15.229  0.0282  0.0305  0.1108
17104W        W60017  27.537  32.899  24.001  0.0746  0.1738 -0.1366
17105W        W60018  20.437  34.229  24.077  0.2468  0.1643 -0.0972
17106W        W60019  25.812   7.302  23.609 -0.0611  0.1278  0.1130
17107W        W60020  27.052  33.356  20.773 -0.1444  0.0659  0.0051
17108W        W60021  24.249  17.215  20.537  0.0400 -0.2705 -0.1615
17109W        W60022  30.874  15.683  28.669 -0.2724 -0.1252 -0.3089
17110W        W60023  30.674   5.175  29.126 -0.2088  0.0828  0.3527
17111W        W60024   4.645   4.892  19.862 -0.0030 -0.2399  0.0253
17112W        W60025  22.819   3.149  28.877  0.0199 -0.0886  0.2140
17113W        W60026  32.867  23.633  29.354  0.5174  0.0827  0.3924
17114W        W60027  29.060   3.487  22.156 -0.3701  0.3047  0.0340
17115W        W60028  26.803   3.553  24.163 -0.2308 -0.1001 -0.2024
17116W        W60029  26.611   6.875  28.377 -0.0104  0.4020 -0.0653
17117W        W60030  17.408  11.549   3.010  0.1344  0.0629 -0.1846
17118W        W60031  28.524  29.613   3.097 -0.3263  0.1060 -0.2635
17119W        W60032  32.076   0.526  15.822  0.1427 -0.3069  0.0025
17120W        W60033  21.576  11.100  16.499  0.0345  0.2955  0.0908
17121W        W60034  23.260   9.335   4.409 -0.0578  0.0464  0.1130
17122W        W60035  24.564   1.396  17.727 -0.1228  0.3243 -0.0807
17123W        W60036  22.377   7.303  26.505  0.2577 -0.0367 -0.2563
17124W        W60037  19.244   2.968  25.534  0.2051 -0.1810 -0.1698
17125W        W60038  24.935   4.457  22.361  0.4522  0.0170  0.0104
17126W        W60039  21.788   0.234  23.940  0.2462  0.3042  0.2576
17127W        W60040  21.467  12.230  25.372 -0.3137  0.0711  0.1690
17128W        W60041  33.376  12.449   0.847  0.0731  0.2873  0.1412
17129W        W60042  17.924  34.319  15.081  0.2682 -0.1379 -0.3700
17130W        W60043   9.916   1.135  27.347 -0.0470 -0.1393  0.3025
17131W        W60044  18.923   4.178  27.602 -0.1431  0.1454 -0.2954
17132W        W60045  13.228   5.445  25.945 -0.1990 -0.0898 -0.1349
17133W        W60046  23.825  20.168  26.116  0.1679  0.4950  0.0175
17134W        W60047  20.961   7.376  26.862 -0.1181 -0.1779 -0.0162
17135W        W60048  21.605  32.641   2.921  0.2095 -0.0781 -0.1228
17136W        W60049  33.745  15.568  20.795  0.0961 -0.0361 -0.2053
17137W        W60050  12.809  23.875  26.922 -0.1379 -0.0039  0.1980
17138W        W60051  32.160   7.854   0.696 -0.2428 -0.1442 -0.1872
17139W        W60052   2.148   0.975  17.977  0.1848 -0.1631  0.0313
17140W        W60053  21.561   6.999   1.506 -0.0318  0.0583  0.1414
17141W        W60054   0.152  30.437  28.935  0.1412 -0.4016 -0.0681
17142W        W60055  29.738  13.860  23.345  0.0355  0.2986  0.0025
17143W        W60056  30.218   4.930  17.049  0.1485  0.0912 -0.0779
17144W        W60057  32.098   3.573  24.922 -0.0339 -0.0950  0.0508
17145W        W60058  23.952   2.170   2.672 -0.0468  0.0919 -0.3213
17146W        W60059  29.881   8.652  25.825  0.0141  0.1010 -0.1229
17147W        W60060  30.821  16.431  23.320 -0.2716  0.2369  0.2127
17148W        W60061  29.763  31.813  22.107  0.0092 -0.3660  0.1761
17149W        W60062  26.775   3.572  21.598  0.0194 -0.0747  0.2189
17150W        W60063   2.795   2.858  24.949  0.0906 -0.0879 -0.1872
17151W        W60064  27.227   5.973   0.770  0.1800  0.1777 -0.1882
17152W        W60065  23.967  34.410  27.861  0.0316  0.1454  0.4036
17153W        W60066  32.603  24.670  16.333 -0.1240 -0.1951 -0.0359
17154W        W60067  26.660   1.368   2.958 -0.1618  0.3317  0.0792
17155W        W60068  26.636  32.863   3.555 -0.2889  0.3074 -0.1508
17156W        W60069  29.448  12.751  27.437  0.0721 -0.1016  0.3028
17157W        W60070  26.025   2.564  26.434 -0.1433 -0.1801 -0.0348
17158W        W60071  25.988   7.330   5.336  0.2699 -0.0924  0.3353
17159W        W60072  27.638  13.716  15.689 -0.1103 -0.3742  0.0309
17160W        W60073   0.645  11.072   1.435  0.0122 -0.2776 -0.2237
17161W        W60074  26.128   0.556   1.137 -0.2258  0.4406  0.0291
17162W        W60075  32.214   9.690  18.521 -0.0501  0.2483  0.1969
17163W        W60076  24.871   5.904  29.661  0.4913  0.1510  0.1700
17164W        W60077  18.099   6.840   5.950  0.1315 -0.0741  0.2622
17165W        W60078  24.972  16.771  21.680  0.2310 -0.1785 -0.0992
17166W        W60079  25.262  33.532  14.224 -0.0500 -0.0812  0.2222
17167W        W60080   1.578   4.698   5.221 -0.1510  0.0443  0.2187
17168W        W60081  24.430   5.029  14.501 -0.0480  0.0887 -0.2464
17169W        W60082  16.785   3.307  23.302 -0.1413 -0.1776 -0.1988
17170W        W60083  24.852   3.425  19.149  0.2440 -0.1358  0.0742
17171W        W60084  24.153   8.336  14.392 -0.0268 -0.1428  0.0791
17172W        W60085  25.854   5.141  26.411  0.2540  0.1144  0.2817
17173W        W60086   4.358   8.409   0.894  0.0765 -0.2083  0.1697
17174W        W60087  30.324  10.898  19.509 -0.3846 -0.0828  0.1438
17175W        W60088  22.487   5.671   1.977  0.2955 -0.0805  0.1882
17176W        W60089  32.580  31.380   1.479  0.2598 -0.4041  0.1865
17177W        W60090  28.458   6.711  25.236 -0.0535  0.0906 -0.0996
17178W        W60091  17.926   6.196  26.808  0.2254 -0.1577  0.3355
17179W        W60092  25.435  24.524   2.655  0.1265  0.1507  0.1526
17180W        W60093  24.458   3.554  27.249  0.2189  0.2226  0.0658
17181W        W60094  25.191  33.359   3.352 -0.0409  0.0022  0.1181
17182W        W60095  26.963   1.417  22.476  0.0446 -0.0538  0.0445
17183W        W60096  33.825   4.916  21.967 -0.1101 -0.1463 -0.0120
17184W        W60097  17.651   0.891  18.989  0.2521 -0.0696 -0.2378
17185W        W60098  23.743   0.332  21.610  0.0567 -0.0802 -0.1217
17186W        W60099  26.620   8.465  15.650 -0.1833  0.4773 -0.2405
17187W        W60100   4.908  32.325  20.325 -0.0992  0.0043 -0.0338
17188W        W60101  22.851  31.669  15.711 -0.2430  0.0899 -0.1559
17189W        W60102  23.945   4.743  18.476  0.1395  0.1478  0.0533
17190W        W60103  33.700  25.215  28.718  0.0117 -0.0582 -0.0962
17191W        W60104  30.521   9.559  24.825 -0.0458  0.3107  0.1181
17192W        W60105  29.641  33.389  16.875 -0.2553  0.1140  0.0729
17193W        W60106   1.911  12.357  20.099  0.0609 -0.1255 -0.0266
17194W        W60107  29.029   4.426  24.717  0.2278  0.3240 -0.1000
17195W        W60108  33.465   0.198  22.632 -0.0418  0.2935 -0.0012
17196W        W60109  23.251  13.001  15.434 -0.0992  0.4065  0.1350
17197W        W60110   7.363  28.696   4.761 -0.1269  0.0744 -0.2345
17198W        W60111   0.671   3.434  28.187  0.0891  0.0734  0.1361
17199W        W60112  22.416  28.279  25.042  0.0362  0.0934  0.0037
17200W        W60113  34.430   2.668  21.034 -0.0565 -0.2901  0.1851
17201W        W60114   1.579  11.575  15.266 -0.4340 -0.0268  0.1297
17202W        W60115  29.616   6.298  21.459 -0.2114 -0.0532 -0.2627
17203W        W60116  27.972  31.816  29.137  0.0241  0.0002 -0.2209
17204W        W60117  22.004   2.215  28.954 -0.0929 -0.2673  0.3479
17205W        W60118  26.034   0.436  26.685 -0.2114  0.1006  0.0130
17206W        W60119   4.470  13.221   0.055  0.0307  0.0113 -0.1445
17207W        W60120  25.777   5.099   1.662  0.1521  0.1410  0.2321
17208W        W60121  17.471   9.951  21.468 -0.1299  0.2479  0.0482
17209W        W60122  30.604  19.475   3.019  0.3739  0.3454 -0.1083
17210W        W60123  17.955   6.975   4.059 -0.0578 -0.0929 -0.2286
17211W        W60124  29.419   8.482  14.612 -0.3225 -0.1378  0.0397
17212W        W60125  26.884  11.923  20.976  0.0787  0.1897 -0.2553
17213W        W60126  30.156   7.679  23.668  0.2366 -0.0920  0.3414
17214W        W60127  22.428   5.270   0.578  0.0503  0.0217  0.1436
17215W        W60128   2.903   5.901   2.945  0.0932  0.2065  0.0781
17216W        W60129  24.034   4.174  17.350  0.0116 -0.0666  0.1534
17217W        W60130  33.707   6.063  26.247 -0.3258 -0.0158  0.1539
17218W        W60131  17.007   6.427  24.097 -0.1066  0.3192  0.0539
17219W        W60132  29.190  20.015  29.565 -0.0873 -0.0453 -0.0925
17220W        W60133  26.607  34.319  19.443 -0.1094  0.0908  0.1292
17221W        W60134  21.394   2.802  26.766  0.2154 -0.0802  0.3376
17222W        W60135  26.829  31.869  25.749  0.1050  0.0115 -0.1052
17223W        W60136   5.450   0.247  24.481 -0.0284  0.0687  0.0373
17224W        W60137  15.823   0.987   6.005  0.1071  0.0398 -0.1967
17225W        W60138  31.237  30.951   6.748 -0.0333  0.0733 -0.3034
17226W        W60139  21.746   2.302   5.810  0.0466  0.0270 -0.1259
17227W        W60140  30.334  33.343  18.645 -0.0742  0.1990  0.0640
17228W        W60141  29.987   7.144  29.668  0.0444 -0.1674 -0.3905
17229W        W60142   2.402   4.520  29.338 -0.2879 -0.0840  0.0319
17230W        W60143   6.553   2.775  25.611  0.0099 -0.1527  0.1558
17231W        W60144  22.412   1.557  21.259  0.2809  0.0543  0.1346
17232W        W60145  32.673  32.552   2.755  0.2046  0.1214 -0.2200
17233W        W60146  27.604  31.538   9.787 -0.1501  0.4645 -0.2364
17234W        W60147  19.386  33.158  18.996  0.2159  0.0192 -0.2339
17235W        W60148  28.645  27.916   4.341  0.3412  0.1447  0.1212
17236W        W60149  21.142   5.634  22.808  0.0414  0.1889 -0.0848
17237W        W60150   1.245   1.429   0.760 -0.4546 -0.2439  0.1807
17238W        W60151  22.231  11.212   1.449  0.1250 -0.2419 -0.1684
17239W        W60152   5.079  33.139   6.869  0.0520  0.1044 -0.2479
17240W        W60153  32.916   8.001  29.028  0.1938  0.4036  0.1111
17241W        W60154  30.989   6.196  24.918  0.2596  0.2915 -0.0641
17242W        W60155   0.943   7.006  26.701  0.0583 -0.0285  0.0267
17243W        W60156  18.560  31.585  24.202  0.1015 -0.3982 -0.0285
17244W        W60157  23.773   7.622  17.744  0.1163  0.0090 -0.2622
17245W        W60158  26.699  11.453   7.654  0.0004 -0.0131  0.1507
17246W        W60159  29.093  21.637  26.024  0.0411 -0.0688  0.2623
17247W        W60160  31.978   7.107   7.347 -0.4263 -0.1391  0.1055
17248W        W60161  15.366   0.379  18.422  0.1464 -0.1108  0.0260
17249W        W60162  22.338   1.831  25.135 -0.2643 -0.1681 -0.0688
17250W        W60163  22.486  33.595  22.430  0.1533  0.0132  0.0251
17251W        W60164  33.119   3.074  20.417 -0.0211  0.1588  0.0840
17252W        W60165  19.631  10.341  26.918  0.5942  0.1715 -0.1040
17253W        W60166  21.186   1.656   2.560 -0.1256 -0.3020  0.1988
17254W        W60167   0.108   3.323   2.195  0.0617 -0.0879  0.1006
17255W        W60168  29.295   8.141  20.882 -0.1183 -0.0605 -0.2837
17256W        W60169  27.256   3.928  18.732  0.0325  0.0918 -0.2442
17257W        W60170  30.996   5.043   6.113  0.0110 -0.0279 -0.0260
17258W        W60171  21.952   5.623  25.790 -0.0582 -0.0217  0.0950
17259W        W60172  16.213  11.607  23.185  0.0047 -0.0854  0.0168
17260W        W60173  29.837   9.363  24.367 -0.0686 -0.0365 -0.2660
17261W        W60174  23.275   6.428   3.615  0.1054 -0.0428 -0.0138
17262W        W60175  30.743   8.803   9.994 -0.1033 -0.2255  0.0162
17263W        W60176  23.715   8.956  26.016  0.0175  0.2164  0.1564
17264W        W60177  29.816  31.738  27.838 -0.1221  0.0532  0.0989
17265W        W60178  22.171   2.536  23.339 -0.4161  0.0617 -0.1209
17266W        W60179  21.309  33.135   0.137 -0.1957 -0.2153  0.4045
17267W        W60180  31.097   7.472   9.240 -0.1455 -0.3659  0.0164
17268W        W60181  17.461   5.760  26.614  0.0739  0.3993  0.0519
17269W        W60182  31.689  33.575  29.684  0.1909  0.3273  0.0838
17270W        W60183  26.065   3.485  29.734  0.1851  0.1372  0.1537
17271W        W60184  25.617   7.672   3.461 -0.2284  0.3369  0.2102
17272W        W60185  31.262   8.471   1.676 -0.3654 -0.0677 -0.4024
17273W        W60186  30.677  13.848  26.848  0.1286 -0.1120 -0.1709
17274W        W60187  32.739  34.039  23.429 -0.2848  0.1177  0.3193
17275W        W60188  20.154   2.056  22.270  0.0715  0.3244  0.1225
17276W        W60189  29.944  17.805  26.887  0.2262 -0.2940  0.0943
17277W        W60190   6.907   3.388  21.030 -0.0054 -0.1089 -0.1313
17278W        W60191  30.735  16.488  21.803  0.0473  0.1126  0.2420
17279W        W60192  26.041   0.588  29.676  0.1051  0.2509 -0.2433
17280W        W60193  28.562  13.801   0.356 -0.0462 -0.0944 -0.2078
17281W        W60194  14.112   9.094  18.265  0.0797 -0.2152 -0.1953
17282W        W60195  24.801  31.186   0.771 -0.0449 -0.1641 -0.0621
17283W        W60196  26.791  28.602   0.016  0.0121  0.1865 -0.0258
17284W        W60197  24.813   3.201   2.754  0.0238 -0.0915 -0.1399
17285W        W60198  28.678   9.707  21.459 -0.0503  0.1593 -0.1499
17286W        W60199  25.956  10.729  22.278  0.0056 -0.0464 -0.0076
17287W        W60200   6.173   7.571  24.381 -0.3677  0.0600 -0.0909
17288W        W60201  30.829   6.396  23.227 -0.0988  0.0979  0.1630
17289W        W60202  20.014  30.231  26.291  0.4419  0.1002  0.1838
17290W        W60203  11.968   2.890   1.267  0.1121  0.0601 -0.3196
17291W        W60204  14.390  20.980   0.641  0.1552  0.0600 -0.0939
17292W        W60205  26.458   2.612  23.050  0.0202  0.0670 -0.1164
17293W        W60206  20.474   7.929  26.122  0.0983  0.3721 -0.0737
17294W        W60207  18.538  11.558  28.705  0.0384 -0.0011 -0.0727
17295W        W60208  25.317  10.266  17.208  0.0860  0.4068  0.1557
17296W        W60209  26.455   3.638   6.933  0.1592 -0.2648  0.1870
17297W        W60210  30.508  10.258   9.112  0.1123 -0.0027  0.0105
17298W        W60211  27.040   6.326  18.959  0.0441  0.0862 -0.1761
17299W        W60212  22.038  11.508   4.398 -0.1159 -0.1335 -0.0716
17300W        W60213  14.858   1.313   8.011 -0.3097  0.2877  0.1092
17301W        W60214  21.778   9.968   8.959  0.1708 -0.1551  0.0204
17302W        W60215  24.899  15.060   5.650  0.0894 -0.1072 -0.3485
17303W        W60216  25.052  14.864   3.181  0.3682 -0.2890 -0.0312
17304W        W60217  30.822   5.856  26.023  0.0684 -0.2710 -0.0071
17305W        W60218  22.629   6.167  27.811 -0.0526  0.2562 -0.0406
17306W        W60219  22.562   2.498   1.878 -0.4252  0.1407  0.0148
17307W        W60220  24.987  25.141  27.376 -0.0405 -0.4547 -0.3103
17308W        W60221  25.701  14.071  27.768  0.3953 -0.0024 -0.3617
17309W        W60222  27.056   6.113   1.882  0.1352 -0.0714 -0.2653
17310W        W60223  18.895  33.119  17.244  0.1970 -0.0670  0.4341
17311W        W60224  20.053  11.489  28.958  0.1053 -0.0706 -0.0417
17312W        W60225  14.355   4.049   6.644  0.1537  0.0225  0.0989
17313W        W60226  27.353   1.137   1.149 -0.2499  0.2499 -0.3198
17314W        W60227  33.765  11.551  24.114  0.0642  0.1458 -0.3409
17315W        W60228  27.759  11.738  29.060  0.1509 -0.1801 -0.1743
17316W        W60229  25.296   1.121  24.583 -0.0382  0.0829 -0.0824
17317W        W60230   2.376   7.513  25.768  0.3587  0.0364 -0.1822
17318W        W60231  33.554   7.387  16.554 -0.3112 -0.3136 -0.0826
17319W        W60232  25.265  34.303  26.643  0.0562 -0.0077 -0.3013
17320W        W60233  30.814   5.823   6.337 -0.1335 -0.2843 -0.0245
17321W        W60234  34.478   2.912  24.668 -0.0522 -0.0311  0.2830
17322W        W60235  26.611  10.719  26.075 -0.0279 -0.1923  0.1856
17323W        W60236  13.534  29.658  26.720  0.1469 -0.1457 -0.1272
17324W        W60237   5.331  18.914  23.728  0.0490  0.1392  0.2813
17325W        W60238  26.899   0.618  19.378 -0.0039  0.0469  0.2877
17326W        W60239  29.242  15.451  22.110 -0.0112  0.3547 -0.0400
17327W        W60240  19.804   6.134  29.136 -0.0995  0.7290  0.0711
17328W        W60241   1.858  17.185  28.441  0.0123  0.1613 -0.1630
17329W        W60242  28.447   4.304   4.084 -0.0580 -0.1953  0.2667
17330W        W60243  20.151   4.120  24.822 -0.2961  0.1812 -0.1929
17331W        W60244   4.053   5.771   5.304  0.4460  0.1557  0.0970
17332W        W60245  33.678   7.623  11.660  0.1582  0.0015 -0.0449
17333W        W60246  22.049   8.316  27.020  0.0353 -0.1528 -0.3718
17334W        W60247   2.451  29.251  25.803 -0.2479  0.0935 -0.2271
17335W        W60248  29.358   5.391  22.986  0.0102  0.4504 -0.0573
17336W        W60249  21.291   0.721  23.672 -0.2298 -0.0634  0.1728
17337W        W60250  21.162  27.548  26.498  0.1671 -0.1312 -0.0555
17338W        W60251  30.365  18.356  16.869  0.0552  0.1391 -0.0285
17339W        W60252  21.046  33.923  20.477  0.0226 -0.0033 -0.1401
17340W        W60253  26.947   3.814   6.079  0.1960  0.0279  0.1317
17341W        W60254   8.059   4.376  22.190  0.0580  0.1056  0.0935
17342W        W60255  28.727   2.665  27.612  0.1250  0.0707 -0.1683
17343W        W60256  25.564   9.349  27.640 -0.0523  0.1407  0.0376
17344W        W60257  19.061   5.253  27.137  0.0593 -0.0754 -0.1716
17345W        W60258  33.897   4.169  28.433 -0.0595  0.4356 -0.0176
17346W        W60259  33.127   3.516  28.414  0.0112 -0.1119 -0.2253
17347W        W60260  18.808  20.594   0.517  0.0674 -0.0197 -0.1683
17348W        W60261  22.385   1.183   1.326 -0.2289  0.1074 -0.2136
17349W        W60262  25.330   3.751   0.704  0.0050 -0.1378  0.1720
17350W        W60263  21.077   6.840   3.099 -0.3349  0.0842 -0.2882
17351W        W60264  23.074   5.903   1.295  0.3245  0.0553  0.4852
17352W        W60265  30.792  10.877  28.349  0.3334 -0.1076  0.3043
17353W        W60266  25.152   7.705  14.360 -0.1316 -0.2452 -0.2377
17354W        W60267  27.693  16.614   1.407 -0.1103  0.0611 -0.0599
17355W        W60268  18.736   4.826  21.555 -0.1574 -0.4070 -0.1152
17356W        W60269  30.918   5.345   7.014  0.3865 -0.0446 -0.2296
17357W        W60270  29.556   4.228  23.500 -0.2216  0.5194 -0.1812
17358W        W60271  30.634  13.465   4.294 -0.1628 -0.1281  0.0192
17359W        W60272  34.293  11.736  20.933  0.1012  0.1121  0.3782
17360W        W60273  17.284   9.843  21.871 -0.2943  0.0872 -0.2055
17361W        W60274  14.508   5.664  23.642 -0.0468 -0.1026  0.2144
17362W        W60275  25.388   8.720  22.653  0.1072 -0.1823 -0.0471
17363W        W60276  24.026   7.663   0.740 -0.0433 -0.3237  0.1655
17364W        W60277   2.210   0.508  27.473  0.0258 -0.2657  0.3924
17365W        W60278  28.810  20.656   1.215 -0.0085 -0.0852 -0.1457
17366W        W60279  30.276   3.560  18.885 -0.4641  0.3890  0.1946
17367W        W60280  28.703  11.631   3.173  0.2675  0.1552 -0.0591
17368W        W60281  20.793  23.155  26.183 -0.3613 -0.2382 -0.1204
17369W        W60282  23.494   7.102  23.761 -0.0628 -0.0013  0.1709
17370W        W60283  33.912   8.938  28.500 -0.3628  0.0442  0.0702
17371W        W60284  29.615  10.529  29.146 -0.0414  0.1845 -0.1923
17372W        W60285  18.654   9.938   3.588  0.0031 -0.0887 -0.1567
17373W        W60286   0.170  21.858  20.832 -0.0604  0.3437  0.1438
17374W        W60287   2.616  32.993   3.578  0.4899 -0.0929  0.1113
17375W        W60288  23.671  32.562   2.115  0.1899  0.1753 -0.0694
17376W        W60289  21.542   5.391  24.971  0.4950 -0.1989  0.2549
17377W        W60290  26.260   9.725   4.736 -0.1626 -0.2667 -0.1611
17378W        W60291  28.777  31.184  22.053 -0.0135  0.0582 -0.1096
17379W        W60292  14.673   6.259  25.401  0.2509 -0.0365 -0.2362
17380W        W60293  30.808  26.881  15.713  0.2656  0.2869 -0.2456
17381W        W60294  30.235  10.587  18.222  0.3742  0.0737  0.1188
17382W        W60295  21.976  10.774  28.665 -0.2288 -0.0992  0.0918
17383W        W60296  16.149   5.062  17.955  0.0480 -0.2204 -0.0194
17384W        W60297  32.984   3.122  10.617 -0.0159 -0.1517  0.0157
17385W        W60298  21.621  23.068  27.659  0.0496  0.0510  0.2419
17386W        W60299  28.676  33.762  17.127 -0.1892 -0.2416  0.3579
17387W        W60300  25.756   2.530  14.024 -0.0862  0.1094 -0.0416
17388W        W60301  24.238  15.216  25.072  0.1429  0.0635  0.0903
17389W        W60302  26.162   9.675  14.781  0.0118 -0.0614 -0.0432
17390W        W60303  17.757   5.311  19.380  0.1499  0.1094  0.0569
17391W        W60304  23.118  32.314  26.507 -0.3852  0.4833 -0.0338
17392W        W60305  24.689   3.458  25.472  0.0549 -0.3913  0.2455
17393W        W60306  29.053   3.741  28.061  0.0345  0.1051 -0.2334
17394W        W60307  32.728   5.207  26.319 -0.2566  0.0442 -0.0793
17395W        W60308  28.723  23.784   0.883  0.0560  0.1616  0.0741
17396W        W60309  15.779   2.035  27.053  0.1215  0.2343  0.1492
17397W        W60310  32.047  13.971  17.871 -0.1150  0.0827 -0.0368
17398W        W60311  26.572  26.343   1.043 -0.0506 -0.2526 -0.0021
17399W        W60312   4.327  28.828   3.685  0.2677  0.0148  0.5454
17400W        W60313  32.012  32.154   2.575  0.0989  0.0930 -0.1805
17401W        W60314  33.031  10.472  21.375 -0.1934  0.4411  0.0253
17402W        W60315  24.745  13.247  24.878  0.0477 -0.2556  0.3729
17403W        W60316  30.022   8.460  25.389 -0.2786 -0.3352 -0.3647
17404W        W60317  34.443  27.198  26.749  0.1551  0.0662  0.3332
17405W        W60318  16.027  10.321   4.293 -0.0093 -0.0909 -0.1847
17406W        W60319  28.052   7.650  25.871  0.0384 -0.0777 -0.0617
17407W        W60320  29.646  11.081  15.598  0.2851  0.0240  0.0663
17408W        W60321   9.813   8.851  24.170  0.1292  0.0977  0.1418
17409W        W60322  32.811   9.877  28.425  0.0326  0.2195 -0.0691
17410W        W60323  21.064  34.048  21.606  0.0093 -0.0078  0.3563
17411W        W60324  23.690   1.951  21.517 -0.0906 -0.3948 -0.3038
17412W        W60325  29.544   5.618  18.956 -0.2145 -0.1301 -0.0797
17413W        W60326  26.487  34.307  29.721  0.1008 -0.5816 -0.4919
17414W        W60327  18.070  24.208  25.498 -0.0075 -0.1113 -0.6199
17415W        W60328  14.116  14.162   1.358 -0.3366 -0.2300  0.3102
17416W        W60329  17.849  14.440  26.577  0.0935  0.5070  0.0291
17417W        W60330  15.146  33.066   0.758  0.1917  0.3126  0.4322
17418W        W60331  26.314   8.156   3.125  0.0001  0.0397  0.1242
17419W        W60332  23.162   7.793  24.552 -0.0387  0.2901 -0.1330
17420W        W60333  27.067   1.401   3.877  0.2885 -0.1070 -0.0662
17421W        W60334  31.786   8.357  25.531  0.2233  0.2230 -0.0677
17422W        W60335  30.330   2.320   3.192 -0.1773  0.0504 -0.0443
17423W        W60336  32.580   7.311  22.234 -0.3053  0.3802 -0.0307
17424W        W60337  32.446   7.870   1.101  0.1152 -0.3623 -0.0898
17425W        W60338   0.402  14.492  29.113 -0.0867  0.0574  0.1270
17426W        W60339   5.513   6.718  21.906  0.3673 -0.1105  0.2334
17427W        W60340   8.332   4.058   8.363  0.4026  0.1305  0.2500
17428W        W60341   1.017  13.029  28.292  0.0314 -0.0485  0.1967
17429W        W60342  17.867   1.080  20.386 -0.1762  0.0370 -0.0238
17430W        W60343  19.264   4.171  28.266  0.2538 -0.1290  0.1731
17431W        W60344  28.792  20.656  25.838 -0.2365  0.3224 -0.1696
17432W        W60345  21.101   7.607   0.896 -0.3831  0.1113  0.2792
17433W        W60346  20.628   4.287  19.884  0.0326  0.1495 -0.1587
17434W        W60347  24.369  27.125  28.204  0.1936  0.2694  0.0350
17435W        W60348  17.358  10.191  25.592  0.0960 -0.1342 -0.2398
17436W        W60349  20.864   2.724   3.263 -0.0348 -0.0903  0.1215
17437W        W60350  18.534   0.260   4.658  0.0150  0.0789  0.0058
17438W        W60351  12.018   3.276   7.752 -0.1730 -0.0790 -0.1937
17439W        W60352   5.564   2.207   0.323 -0.2352 -0.3673  0.1034
17440W        W60353  22.963   6.284   5.287  0.0211  0.3822  0.2432
17441W        W60354  15.179   6.212  25.791 -0.0282  0.1473  0.0152
17442W        W60355  15.550  30.332  23.225 -0.2406  0.2309  0.0505
17443W        W60356  23.129  10.739  22.565 -0.1538 -0.0981 -0.0834
17444W        W60357  27.539   7.735   5.501 -0.2202 -0.1398 -0.0425
17445W        W60358  27.735   9.327  27.854 -0.0836 -0.0185  0.0935
17446W        W60359  22.179  12.192   6.547 -0.1170 -0.1457 -0.0372
17447W        W60360  34.034   0.798   5.349  0.0746  0.2419 -0.1377
17448W        W60361  27.418   8.184  26.820  0.1171 -0.1990 -0.2012
17449W        W60362  22.432  13.222   7.773 -0.4807 -0.0172 -0.1239
17450W        W60363   7.294  17.717  28.216  0.2125 -0.1895 -0.2353
17451W        W60364  24.840  12.594  26.680 -0.0120  0.0062 -0.0954
17452W        W60365  31.646  13.286   6.628 -0.2673  0.0890  0.1052
17453W        W60366  23.303   2.046  22.633 -0.2342 -0.4105  0.3043
17454W        W60367  23.629  34.161  22.647 -0.2937 -0.0585 -0.0012
17455W        W60368  32.620  11.440  16.112  0.1384 -0.0949 -0.0711
17456W        W60369  27.754   6.472   7.672  0.2767  0.0404  0.1489
17457W        W60370  27.102  13.675  14.031 -0.1658  0.0579  0.1064
17458W        W60371  18.749   6.248  23.735 -0.0598  0.0834  0.0486
17459W        W60372  32.844   0.741  16.152 -0.3614 -0.0244  0.3654
17460W        W60373  25.128   6.900   8.617  0.2149 -0.1206 -0.0580
17461W        W60374  27.756   2.672   7.929 -0.1449 -0.2077 -0.2420
17462W        W60375  19.198   3.256   5.665 -0.0460  0.1383 -0.1424
17463W        W60376  31.479  14.589  27.793  0.0697 -0.1054  0.2801
17464W        W60377  29.078  33.932   7.810  0.2909 -0.0663  0.5255
17465W        W60378  27.239   6.617  24.652  0.0871  0.1915  0.0833
17466W        W60379  31.160  29.215  20.709  0.0957  0.4977 -0.0806
17467W        W60380  26.609  13.477  26.446  0.2094  0.4201  0.0307
17468W        W60381  24.514  12.079  27.902 -0.1169 -0.3896 -0.0565
17469W        W60382  19.225   3.341  18.884  0.0974 -0.0281  0.1127
17470W        W60383  30.393   9.552  28.681 -0.1441 -0.2324  0.1936
17471W        W60384  20.574  17.069  23.060  0.2421  0.3048  0.2726
17472W        W60385  21.596   9.439   4.116 -0.3498 -0.3084  0.2640
17473W        W60386  26.017   2.107  26.847  0.1127  0.3328  0.1042
17474W        W60387  30.882  15.000   1.290 -0.1417 -0.0995  0.2018
17475W        W60388  29.978  14.453  27.504  0.1389 -0.0887 -0.0856
17476W        W60389  21.932   2.482  19.512  0.1933 -0.1343  0.1320
17477W        W60390  21.768   0.135   1.730 -0.3203  0.1278 -0.3806
17478W        W60391  28.442   5.542  25.114 -0.3624 -0.0353  0.0729
17479W        W60392  19.660  13.368  25.805 -0.1385 -0.0368  0.2728
17480W        W60393  24.007  11.459   0.895 -0.1145 -0.1502 -0.1560
17481W        W60394  32.106   7.107  18.298  0.2813 -0.1774  0.4095
17482W        W60395  26.240   5.234   1.373  0.2046  0.1456 -0.0953
17483W        W60396  25.636   5.021   4.570  0.2949  0.1350 -0.1132
17484W        W60397  23.096  24.999  22.098  0.0974 -0.0208  0.1239
17485W        W60398   2.721   9.934  22.113 -0.0376  0.0662  0.0626
17486W        W60399  14.049  25.306  27.658  0.2401 -0.2036  0.2357
17487W        W60400  31.883  15.464  27.925  0.1266 -0.1410 -0.0990
17488W        W60401  24.099   0.459   8.191 -0.3467  0.2517 -0.0885
17489W        W60402  21.998  10.073  25.091  0.1996 -0.1103 -0.0288
17490W        W60403  21.622   4.574  23.669  0.1559 -0.2140  0.2010
17491W        W60404  29.234   6.063   2.081 -0.5064 -0.1603 -0.0755
17492W        W60405  18.933   2.820  21.284  0.1396  0.0376  0.0071
17493W        W60406   5.138  17.842  16.184 -0.0832 -0.2074 -0.2252
17494W        W60407  25.379   7.739  15.225 -0.0143 -0.2631  0.2585
17495W        W60408  28.268  29.113   6.862 -0.4670 -0.0588  0.1123
17496W        W60409  14.605   4.218  18.293 -0.0212  0.1460 -0.0516
17497W        W60410  29.293  32.095   2.980 -0.2547  0.0605 -0.5618
17498W        W60411  22.694   5.790  24.066  0.1788 -0.2212  0.2812
17499W        W60412  30.045   7.646  24.967  0.1479 -0.2025  0.0275
17500W        W60413  28.051  12.521  26.746 -0.1081  0.0413  0.1392
17501W        W60414  31.115  18.951   3.516  0.1258  0.2310 -0.0057
17502W        W60415  21.921   0.722   3.298 -0.0544 -0.0635 -0.0242
17503W        W60416  26.827  14.559  27.035  0.1894 -0.0683 -0.0070
17504W        W60417  28.244   3.991   1.512  0.1045  0.0508  0.3029
17505W        W60418   7.578  10.361  19.965 -0.0657  0.1009  0.0203
17506W        W60419  24.147   1.453   4.558 -0.2706  0.2133  0.2219
17507W        W60420  27.625  13.798  24.028 -0.3505  0.1373 -0.2009
17508W        W60421  21.083   3.663   5.848  0.0550  0.3497  0.1775
17509W        W60422  27.293   0.668   2.639  0.2398  0.3452 -0.0049
17510W        W60423  15.422   0.916  27.651  0.2011  0.2955  0.0621
17511W        W60424  30.816  33.321  28.935  0.2344  0.0878  0.0644
17512W        W60425  27.290  14.507   7.788 -0.1566  0.0991  0.0626
17513W        W60426  23.987   3.336  16.300 -0.0090  0.1436  0.3106
17514W        W60427  33.114  19.964  25.617  0.2309  0.1610 -0.1773
17515W        W60428  29.785  26.647  28.946 -0.0446  0.0756 -0.0334
17516W        W60429  23.245  28.385   2.285 -0.0188 -0.1463  0.1392
17517W        W60430   5.542   6.885  14.003 -0.0448 -0.0887  0.0887
17518W        W60431  22.739   8.786  26.324  0.0354 -0.3034 -0.3176
17519W        W60432  18.919   7.208  23.911 -0.1557 -0.2918  0.1739
17520W        W60433   0.569   3.997   4.021 -0.3718  0.1315 -0.0608
17521W        W60434   7.276  32.934  26.051 -0.0837  0.2488  0.0249
17522W        W60435  22.572  32.553  23.162 -0.0036  0.0882  0.0611
17523W        W60436  18.542  12.586   0.924  0.2095  0.1126  0.1593
17524W        W60437  24.282   7.584  29.582 -0.0500 -0.0043  0.2932
17525W        W60438  23.624  10.899   6.524 -0.0195 -0.2359 -0.0128
17526W        W60439   0.751  14.447  20.796 -0.1287  0.0496  0.1410
17527W        W60440  14.891  26.453   5.394 -0.0429 -0.0340 -0.0535
17528W        W60441  22.011   4.862  21.302  0.2548 -0.0657 -0.3804
17529W        W60442   7.282  33.169   3.586  0.2744  0.0192 -0.1077
17530W        W60443   1.661  16.576  25.150 -0.0237 -0.1549 -0.0525
17531W        W60444  22.761   2.320  28.400 -0.1427 -0.3801 -0.0745
17532W        W60445  18.286  11.377   8.190  0.1042  0.2038  0.2975
17533W        W60446  28.787  16.867   1.887 -0.1804  0.0971  0.1607
17534W        W60447  32.467  15.362   0.556  0.1377  0.1284 -0.0122
17535W        W60448   3.273   9.064   1.408 -0.2422  0.1958 -0.2653
17536W        W60449  26.777  15.694  23.620  0.2796  0.4289 -0.1825
17537W        W60450  30.745  19.214  29.008 -0.3195  0.0231  0.4433
17538W        W60451  13.860   9.730  15.196 -0.0613 -0.0238 -0.0411
17539W        W60452  32.323   4.689  22.577 -0.2039  0.0931 -0.4328
17540W        W60453  25.996   4.035  29.584 -0.1616  0.3799  0.0501
17541W        W60454  21.281  12.569  17.789 -0.0858 -0.0699 -0.0660
17542W        W60455  29.558  17.007  29.381  0.1274  0.3179  0.1012
17543W        W60456   2.035   4.423  28.458 -0.0482  0.0628  0.1294
17544W        W60457  25.161  33.848  29.546 -0.0006  0.0515  0.4490
17545W        W60458  31.036   0.467  19.472  0.0244  0.1287  0.2418
17546W        W60459  25.229   4.252  29.176  0.0083 -0.0040  0.3942
17547W        W60460  18.105  27.656   2.110  0.1928  0.2403 -0.2241
17548W        W60461  27.747  11.178  25.524  0.0624 -0.2005 -0.1070
17549W        W60462  22.338   0.360  21.097 -0.0705  0.0184 -0.0208
17550W        W60463   4.276   0.259  11.707  0.1431 -0.0425  0.1356
17551W        W60464  24.389   2.562  25.775 -0.2837 -0.1523  0.1084
17552W        W60465  25.642   9.040  29.036  0.1932  0.2411 -0.2267
17553W        W60466  16.911   7.578  23.692 -0.0008  0.0412 -0.0807
17554W        W60467  29.665   9.846   4.193  0.0532  0.1074  0.0337
17555W        W60468   4.393   7.460  17.699 -0.0025 -0.3132 -0.3306
17556W        W60469  22.219  13.711  18.815  0.0946 -0.1448  0.2990
17557W        W60470  33.336  10.487  24.788  0.2509  0.1718 -0.1693
17558W        W60471  23.571   3.871  27.222  0.1830 -0.0720 -0.0956
17559W        W60472  28.134  10.658  17.928 -0.0554 -0.3885 -0.0525
17560W        W60473  33.463  32.934   6.891 -0.0099  0.3044  0.3335
17561W        W60474  18.112  26.480  19.069 -0.0066 -0.1628 -0.0328
17562W        W60475   0.366  11.341  27.541 -0.2599  0.1105  0.4709
17563W        W60476  13.120   7.872  10.603 -0.2686 -0.0667  0.0118
17564W        W60477  26.719   8.449  16.183 -0.1812 -0.0663 -0.0205
17565W        W60478  29.891  28.643   5.271 -0.2017 -0.2041  0.0775
17566W        W60479  31.614  10.326   1.236 -0.1147  0.2209  0.2298
17567W        W60480  32.580   5.540   7.325  0.0176  0.0427 -0.0449
17568W        W60481  34.146  33.471  25.774 -0.0045 -0.5712  0.0272
17569W        W60482  33.234  15.732  26.959 -0.1045  0.1267  0.1528
17570W        W60483  29.151   5.657   5.766  0.1880 -0.2879 -0.1536
17571W        W60484  24.152   9.210  27.028  0.2214 -0.2620 -0.2568
17572W        W60485  20.126   3.409  24.080 -0.2191 -0.0012 -0.2935
17573W        W60486  20.994  27.389   3.328  0.0239 -0.0295  0.0120
17574W        W60487  23.717   6.225  18.725 -0.2773  0.0333 -0.0283
17575W        W60488  19.399  12.871  20.597 -0.2461  0.2207  0.1344
17576W        W60489  27.647   2.780  29.616  0.2187  0.0362 -0.1280
17577W        W60490  25.719  12.965  23.199  0.3021 -0.1366 -0.1304
17578W        W60491  22.705   6.972  25.342 -0.1856 -0.3240  0.0775
17579W        W60492  27.900   0.798   6.494 -0.2311  0.1478 -0.1833
17580W        W60493  22.971  15.457  21.298  0.0371  0.1382  0.0931
17581W        W60494  27.644   4.146   7.220 -0.1612  0.0817 -0.0765
17582W        W60495  23.893  14.106   3.201 -0.5280 -0.1685 -0.0253
17583W        W60496  33.386  17.832   3.025  0.1538 -0.0388 -0.1904
17584W        W60497   4.769   3.542   0.489  0.2146  0.2538  0.1294
17585W        W60498  29.644  11.757  29.655  0.0581  0.0207 -0.0653
17586W        W60499  30.072  32.833  27.214  0.1373 -0.2211 -0.0790
17587W        W60500  14.555   8.041  26.435  0.3821 -0.2818 -0.0534
17588W        W60501  23.047   3.804  15.589  0.1242 -0.2066  0.0320
17589W        W60502  19.281  18.175  28.186 -0.0733 -0.1768 -0.0819
17590W        W60503  30.372   4.916  23.888 -0.2637  0.2574  0.2789
17591W        W60504  29.618   2.401  10.081  0.4351  0.0038  0.2650
17592W        W60505  24.086   7.122  21.821 -0.2453  0.1495 -0.0315
17593W        W60506  25.232  32.093  24.589 -0.0489  0.1795 -0.3946
17594W        W60507  19.754   5.695   8.186  0.0170  0.1885 -0.0662
17595W        W60508  30.873  14.583  18.056 -0.1740 -0.1495  0.0899
17596W        W60509  30.742  27.382  29.660  0.1562  0.0082 -0.2918
17597W        W60510  23.084  19.627  23.217  0.3719  0.0058 -0.1218
17598W        W60511  27.822   6.944   5.887  0.1061  0.1757  0.0550
17599W        W60512  22.177   1.897  28.009  0.1268 -0.2845  0.2528
17600W        W60513  27.612   7.352  28.096  0.1557  0.1072  0.1374
17601W        W60514  31.220   2.496  24.773 -0.0728 -0.1907 -0.0037
17602W        W60515  23.639  33.349  23.870  0.0710 -0.0678  0.0115
17603W        W60516  32.626   3.810  22.570 -0.0740  0.1831 -0.0479
17604W        W60517  23.840  11.484  22.965  0.1932 -0.0305 -0.1497
17605W        W60518  21.344  34.283  29.005  0.3057 -0.0618  0.1837
17606W        W60519  17.446   5.861   5.477 -0.0294 -0.3572  0.0102
17607W        W60520   1.698  12.897   4.187 -0.0796 -0.2318 -0.1301
17608W        W60521  18.279   3.319  27.645 -0.3255  0.2404 -0.0259
17609W        W60522  22.342  29.480  23.711  0.0665  0.2123  0.2260
17610W        W60523  33.827   0.862  16.102 -0.0778  0.3115 -0.1457
17611W        W60524  25.020   5.364  21.737 -0.0443 -0.0134 -0.0173
17612W        W60525  33.102  29.476  21.519 -0.1729  0.0519 -0.0300
17613W        W60526   1.822  12.220  26.574 -0.1646  0.0721  0.1203
17614W        W60527  21.287   3.108  20.471  0.1462  0.4275 -0.1414
17615W        W60528  20.603   0.514  28.205 -0.0038 -0.0546 -0.0942
17616W        W60529  26.498  11.009   1.821 -0.2542  0.1722 -0.1523
17617W        W60530  16.506   3.830  17.623  0.1155  0.1315  0.2340
17618W        W60531  28.518   4.933   2.213 -0.0673  0.1575 -0.2882
17619W        W60532  30.587   1.965  28.351 -0.1565  0.0552 -0.2283
17620W        W60533  23.226   9.278   5.657  0.3097  0.1166  0.0874
17621W        W60534   0.674  11.602   4.468  0.1439 -0.0195 -0.2215
17622W        W60535   3.100  14.813  24.589 -0.4289 -0.1166  0.2162
17623W        W60536  27.958   4.055   3.966  0.1032 -0.0225 -0.2333
17624W        W60537  26.036  12.017   2.552  0.1935  0.0375 -0.0721
17625W        W60538  24.318  13.107   0.651 -0.0496 -0.0923  0.0571
17626W        W60539  29.640  33.963   5.897 -0.2688  0.0575 -0.3465
17627W        W60540  31.001   7.421  16.504  0.0762 -0.2029  0.1331
17628W        W60541  20.479   7.028   2.607 -0.0878  0.0611  0.0843
17629W        W60542  33.724  17.426  26.232  0.0844  0.2739 -0.0557
17630W        W60543  31.918   7.914   7.659 -0.0419  0.1266 -0.1304
17631W        W60544  27.752   8.494   6.828  0.1731  0.2320  0.1659
17632W        W60545  32.872  15.569  27.535 -0.1106 -0.1615 -0.1104
17633W        W60546  25.117   2.245  25.946  0.1715  0.0945  0.1455
17634W        W60547  23.087  33.914  28.580 -0.0353 -0.0227  0.2766
17635W        W60548  22.560   4.601  28.870 -0.3082 -0.1830  0.1808
17636W        W60549  16.504  22.396  23.700  0.1571 -0.1168  0.0633
17637W        W60550  19.322   2.075  27.655 -0.0722  0.1910 -0.0972
17638W        W60551  32.143   1.508   9.379  0.1285  0.0704 -0.0870
17639W        W60552  28.693  14.281  26.638  0.0765  0.3876  0.0583
17640W        W60553  27.563   8.669   7.926  0.0131  0.0699 -0.0437
17641W        W60554  34.137  31.807   6.894 -0.0336 -0.3615 -0.1933
17642W        W60555  30.885   2.415   4.548 -0.2205  0.1117 -0.1442
17643W        W60556   4.737  32.650   3.590  0.1450 -0.2639  0.2202
17644W        W60557  21.774  13.860   2.744  0.2157  0.1333  0.2992
17645W        W60558  29.862  18.458   5.380  0.0980  0.2987 -0.2599
17646W        W60559  24.701   0.106   7.724 -0.0187  0.0175 -0.2375
17647W        W60560   0.301  17.515  15.727  0.2508  0.2090 -0.0349
17648W        W60561  20.015   6.523  25.356 -0.2905  0.1059 -0.2415
17649W        W60562  16.622   7.310   2.610  0.0155  0.0831  0.1971
17650W        W60563  27.322  12.612   7.366  0.2690 -0.4799  0.0616
17651W        W60564  28.353   6.185   4.926  0.3263 -0.1502 -0.0815
17652W        W60565  23.479  14.022  28.138 -0.1182  0.1848  0.1538
17653W        W60566  14.492   6.555   0.059 -0.1258  0.3526  0.0719
17654W        W60567  27.182  27.494   5.171 -0.0740 -0.0337 -0.1723
17655W        W60568  26.844  34.470  11.044  0.0403 -0.1348  0.0870
17656W        W60569  25.659   5.595  26.842  0.0032  0.0769 -0.0063
17657W        W60570  26.024   8.937   8.270 -0.0772 -0.0490 -0.1413
17658W        W60571  27.481   9.924   2.414 -0.1003  0.1211  0.1394
17659W        W60572   0.649  13.766   4.469 -0.3080  0.1440  0.1044
17660W        W60573  30.239  12.473   6.146  0.2894 -0.0084  0.2397
17661W        W60574   4.886  27.498  23.334  0.1296 -0.1348  0.1364
17662W        W60575  14.656   0.079  22.602 -0.1312 -0.0523 -0.4465
17663W        W60576  27.757  12.005   5.818 -0.1308  0.2295  0.2363
17664W        W60577  31.680  10.240  28.219  0.0892  0.0469 -0.1339
17665W        W60578  28.644   8.718  27.174  0.2089  0.0922 -0.0815
17666W        W60579  27.455  10.065   5.286  0.0850  0.0242  0.1610
17667W        W60580  24.536  15.562  22.513  0.0300 -0.0881 -0.1500
17668W        W60581  22.073   9.171  19.135  0.2208  0.1321  0.0869
17669W        W60582  26.970  31.809  23.268 -0.2046 -0.0922 -0.1885
17670W        W60583   0.042  10.131  16.119 -0.0947  0.3527 -0.1410
17671W        W60584  22.153  34.444  17.822 -0.1121 -0.0194  0.0444
17672W        W60585  19.477  11.332   1.283 -0.1239  0.0524  0.1800
17673W        W60586  21.678   6.115   7.112  0.2100 -0.0741  0.4701
17674W        W60587  28.023  30.238   1.099  0.1844 -0.1591  0.0070
17675W        W60588   3.472   4.137   9.179 -0.1272  0.4309  0.1000
17676W        W60589  31.519   2.299  20.149 -0.0288 -0.1334  0.2211
17677W        W60590  12.522   3.065   2.249  0.2771  0.0683 -0.3473
17678W        W60591  14.526   1.748  24.198  0.0529 -0.1690  0.0677
17679W        W60592  20.003  10.119  21.586 -0.1480 -0.0024 -0.2732
17680W        W60593  27.264   8.258  29.723 -0.0544 -0.1348  0.0668
17681W        W60594  24.046   8.730   3.724 -0.0028 -0.0224  0.0163
17682W        W60595   1.997  10.138  23.010 -0.0239 -0.1229 -0.0599
17683W        W60596  19.093  27.319  26.269  0.1196  0.2500  0.2489
17684W        W60597  24.914   1.670  25.353  0.1361 -0.1721  0.1843
17685W        W60598  20.973  10.030  23.015 -0.0774  0.0195  0.4579
17686W        W60599  29.443  12.304  17.297  0.0455  0.0843  0.0988
17687W        W60600  27.962   6.679  15.788 -0.0785  0.3317  0.1393
17688W        W60601  18.953   8.584  23.725  0.4583  0.0269  0.0215
17689W        W60602  18.009   9.559  16.690 -0.0866 -0.1299  0.1995
17690W        W60603   8.959   6.094  16.850  0.0642 -0.0132 -0.0226
17691W        W60604   2.410   6.872  19.648  0.1328  0.3546 -0.0501
17692W        W60605   1.981  18.722  15.791 -0.1993  0.0691 -0.2700
17693W        W60606  29.203  20.767  14.707 -0.0753 -0.4725  0.1435
17694W        W60607  29.239   6.562  16.593 -0.1282  0.0485  0.0257
17695W        W60608  32.608   8.025  21.581 -0.3315  0.1671 -0.4273
17696W        W60609  26.681  16.168  26.519  0.1888  0.1666 -0.0319
17697W        W60610  32.405  31.656  22.761  0.1612 -0.1907 -0.2647
17698W        W60611  18.995   6.885  14.436  0.1569  0.2357 -0.1423
17699W        W60612  25.686  11.402  20.760 -0.1008  0.3621  0.0137
17700W        W60613  22.739   7.382  19.256 -0.1558 -0.1009 -0.2119
17701W        W60614  28.193   2.950  24.596 -0.0900  0.0354 -0.0104
17702W        W60615  24.203  11.837  19.130 -0.3954  0.0373  0.1498
17703W        W60616  27.369  18.968  13.391 -0.2174 -0.3792  0.2506
17704W        W60617  25.422  20.369  23.254 -0.0642  0.1277 -0.0084
17705W        W60618  22.727  22.813  19.420 -0.4957  0.1245  0.1052
17706W        W60619  24.687  15.386  26.131  0.0780  0.1094 -0.1073
17707W        W60620  22.452  11.867  21.106 -0.1389  0.0749 -0.3185
17708W        W60621  24.387   6.003  17.774 -0.2287 -0.2238  0.1507
17709W        W60622  18.256   4.268  18.311 -0.2143  0.3128  0.2733
17710W        W60623  30.513   7.362  22.173 -0.0681 -0.1792 -0.1234
17711W        W60624  26.750   6.788  17.633 -0.3147 -0.1098 -0.1906
17712W        W60625  21.532  31.379  14.268  0.0917  0.3198  0.1386
17713W        W60626  29.227  10.095  23.249  0.1843  0.0459  0.2099
17714W        W60627  34.140  21.617  18.990  0.2336  0.5590  0.1485
17715W        W60628  19.509   8.590  24.607  0.0984 -0.2099  0.0603
17716W        W60629  28.081  17.160  19.770 -0.0743  0.0414 -0.2731
17717W        W60630  21.450   7.947  14.757  0.0352 -0.1043 -0.2442
17718W        W60631  17.915  12.839  17.049  0.2359  0.0129 -0.2687
17719W        W60632  23.921  18.558  19.638  0.3479 -0.2798 -0.3112
17720W        W60633  29.439  17.555  26.807 -0.0501  0.1603 -0.0714
17721W        W60634  26.046  12.236  17.312  0.1691 -0.0015  0.2754
17722W        W60635   0.974   8.730  20.145  0.2140 -0.0257 -0.0404
17723W        W60636  12.056  10.376  14.900  0.2872 -0.0033  0.0686
17724W        W60637  26.391  10.845  17.332 -0.0950 -0.0573 -0.1266
17725W        W60638  17.802   8.804  21.153 -0.0327  0.0010  0.3256
17726W        W60639  20.121   3.089  28.338  0.0788 -0.1366 -0.2020
17727W        W60640  32.804  12.373  17.284  0.1238 -0.0402 -0.4044
17728W        W60641  22.126  13.646  17.801  0.0765  0.1919 -0.0021
17729W        W60642  33.929  18.588  15.616 -0.0222 -0.2377 -0.1107
17730W        W60643  24.746  17.504   5.244 -0.2288  0.5059 -0.3519
17731W        W60644  23.649  11.456  18.167 -0.1967 -0.0731 -0.1079
17732W        W60645  25.638  18.478  18.464  0.1487 -0.1079  0.0658
17733W        W60646  34.099   5.187  18.667  0.1130 -0.1250  0.0015
17734W        W60647  18.692  13.743  13.108  0.2168 -0.1863 -0.0132
17735W        W60648  30.247  14.041  18.781 -0.0093  0.0797  0.0575
17736W        W60649  13.527   8.393  20.899 -0.2304  0.1509  0.1613
17737W        W60650  33.670  15.511  15.173 -0.0729  0.2584 -0.1159
17738W        W60651  25.923   7.086  19.578  0.0507  0.0806 -0.0854
17739W        W60652  28.707   9.722  18.701 -0.0301 -0.0729 -0.0713
17740W        W60653  27.026  11.069  24.053 -0.0611 -0.0573 -0.1534
17741W        W60654  33.498   7.647  27.948  0.3471  0.0959 -0.2274
17742W        W60655  25.177   5.699  23.238 -0.1680 -0.0312 -0.1032
17743W        W60656  23.291  20.718  25.846  0.0699 -0.1871  0.0998
17744W        W60657  25.186   8.200  20.093 -0.2328  0.5679  0.2699
17745W        W60658  18.867  29.799  14.694 -0.0818  0.0884  0.1996
17746W        W60659   1.017  11.700  20.615  0.0523 -0.1771 -0.4425
17747W        W60660  27.044  14.966  18.516  0.1321 -0.1287 -0.0321
17748W        W60661  27.560  15.398  13.934  0.1489 -0.0055 -0.4344
17749W        W60662  25.141  10.367  13.537  0.0497  0.1511  0.1690
17750W        W60663   8.952   6.012  20.058 -0.0812  0.0882 -0.0249
17751W        W60664  19.859  31.400  23.360 -0.0057 -0.1829  0.1183
17752W        W60665  25.299  28.772  29.249  0.3490 -0.1846  0.0130
17753W        W60666  28.510  11.280  16.189 -0.2080  0.0707 -0.2570
17754W        W60667  27.896  23.762  20.993  0.0022  0.1345 -0.1594
17755W        W60668  23.549   7.950  16.515  0.2070  0.1578  0.0820
17756W        W60669  26.181   4.331  15.853  0.1495 -0.0506  0.0622
17757W        W60670  29.817   1.054  17.127  0.2401 -0.0495 -0.2039
17758W        W60671   0.740   1.854  20.596  0.3125  0.0204  0.0255
17759W        W60672  29.563  12.952  29.524 -0.0970 -0.2109  0.0547
17760W        W60673  25.522  17.779  14.627  0.1169  0.0402 -0.0420
17761W        W60674  29.030   7.520  15.381 -0.0915  0.0644  0.0900
17762W        W60675  27.520  13.391  14.695 -0.0259  0.1989 -0.1789
17763W        W60676  29.471   7.732  29.147 -0.0117  0.1810  0.1291
17764W        W60677   1.087   2.354  23.613  0.3044  0.3783 -0.1448
17765W        W60678  31.758   9.916  17.576 -0.0474  0.2166  0.0949
17766W        W60679  26.245   9.592  14.023  0.4168  0.3929 -0.1291
17767W        W60680  22.135  16.373  20.722 -0.0344  0.0336  0.3293
17768W        W60681  23.438   6.855  14.272  0.2056  0.2048  0.0259
17769W        W60682  23.985  17.295  16.965  0.3558  0.1181  0.0732
17770W        W60683  28.095  12.570  21.885  0.0654  0.2571  0.3006
17771W        W60684  24.003  10.384  14.214  0.1484  0.0589 -0.1761
17772W        W60685  30.058  14.086  14.737  0.0245  0.1313  0.4158
17773W        W60686  21.307   1.613  27.675 -0.0075  0.1713  0.0551
17774W        W60687  21.807  12.690   4.309 -0.1980 -0.2048 -0.0844
17775W        W60688  15.673  12.518  16.542  0.0444 -0.1863  0.0818
17776W        W60689  21.162  32.453  24.424 -0.1877 -0.0004  0.2579
17777W        W60690  30.419  15.009  25.079  0.1351 -0.1762 -0.0676
17778W        W60691  28.004  10.411  21.279  0.3740  0.1786  0.1746
17779W        W60692  18.156  11.203   0.231 -0.0116  0.3982 -0.0380
17780W        W60693  29.076   8.028  19.871  0.2404 -0.2213 -0.0181
17781W        W60694  30.359  13.443  19.544  0.0888  0.0415  0.1511
17782W        W60695  24.128  12.734  18.788  0.0865 -0.1263 -0.2025
17783W        W60696  33.519   9.407  17.940  0.2717  0.1409  0.4461
17784W        W60697  24.566  14.379  16.458  0.2978 -0.2977  0.2844
17785W        W60698  24.381  14.362  19.688  0.2577 -0.0928  0.0111
17786W        W60699  27.667   4.995  14.871 -0.0985  0.3093  0.0372
17787W        W60700  29.268  12.798  23.873  0.0931  0.1391  0.1313
17788W        W60701   1.469   1.388  19.842  0.0886  0.0850 -0.0358
17789W        W60702  30.490  11.566  15.278  0.1339  0.1608  0.0320
17790W        W60703  28.751   0.136  15.959 -0.2425 -0.0871  0.1435
17791W        W60704  29.788  14.075  19.286 -0.0495  0.0196 -0.5153
17792W        W60705  32.078   7.149  15.073  0.1317  0.0106 -0.0391
17793W        W60706  22.270   4.266  18.469  0.1452 -0.0087  0.2434
17794W        W60707  27.306   9.137  14.462 -0.1965 -0.1416  0.2015
17795W        W60708  32.044   1.660  27.926  0.3755  0.0417 -0.1766
17796W        W60709  30.454  19.535  15.554  0.1146 -0.0208  0.0288
17797W        W60710  16.476   5.474   0.571  0.1846 -0.5404 -0.2633
17798W        W60711   9.631  12.843  18.473  0.2162  0.1460  0.4915
17799W        W60712  25.817   6.607  15.664 -0.0477  0.1579  0.2916
17800W        W60713  27.246  17.805  18.944 -0.1608  0.1972 -0.0121
17801W        W60714  26.435   8.406  21.505  0.0191 -0.0808  0.3716
17802W        W60715  15.053  32.675  27.470 -0.0761  0.0999  0.2268
17803W        W60716  23.828  13.518  15.858 -0.0499  0.0878 -0.2953
17804W        W60717  18.155   9.169  14.587  0.1571  0.0241 -0.2530
17805W        W60718  17.581   3.470  15.511  0.1043  0.0495  0.1378
17806W        W60719  27.089  21.773  17.717 -0.1258  0.2114 -0.0091
17807W        W60720  23.926   7.523  19.952 -0.1508 -0.1430 -0.1426
17808W        W60721  20.093  10.739  14.083 -0.1539  0.0672 -0.0740
17809W        W60722  23.347  19.651  12.560  0.1218 -0.0681  0.0899
17810W        W60723  28.617   6.259  20.470 -0.1811 -0.1192  0.2572
17811W        W60724  33.479  18.761  15.294 -0.2368 -0.0792 -0.2297
17812W        W60725  21.600  14.285  16.399  0.1165 -0.3265 -0.2503
17813W        W60726   0.032   1.391  17.350 -0.1312 -0.1634 -0.0661
17814W        W60727  18.259  12.144  11.850  0.0994  0.0750 -0.0977
17815W        W60728  23.486   8.972  13.101 -0.0905 -0.5074 -0.0286
17816W        W60729  25.119  29.232  18.596  0.0126 -0.2055  0.0931
17817W        W60730  22.050  10.771  14.601  0.1548  0.1300 -0.0656
17818W        W60731  25.819   4.806   2.075 -0.2068  0.0892 -0.2051
17819W        W60732  31.357  18.493  15.867  0.0268 -0.0406 -0.0434
17820W        W60733  24.794   3.807  18.238 -0.0500 -0.2177 -0.2492
17821W        W60734  23.202  16.225  18.064 -0.0236 -0.4179 -0.3003
17822W        W60735  33.574  12.881  21.167 -0.0928  0.2261  0.1248
17823W        W60736   2.182   3.995  23.816  0.1843 -0.4545  0.2856
17824W        W60737  24.203   2.660  28.531 -0.1420  0.0809  0.0318
17825W        W60738  25.065   4.661  23.831  0.1184 -0.2649 -0.2957
17826W        W60739  27.896  11.613  24.064 -0.0408 -0.0070 -0.0787
17827W        W60740  28.429   9.308  19.669 -0.0566 -0.2452 -0.4317
17828W        W60741  31.881  34.114   0.013  0.1884  0.1667  0.2250
17829W        W60742  27.534   6.692  16.793 -0.0156  0.3238 -0.1231
17830W        W60743  26.957  19.195  19.753 -0.3428 -0.3620  0.2149
17831W        W60744  18.269  12.123  24.265  0.3929 -0.2134 -0.0783
17832W        W60745  19.839   2.134  15.676  0.1454 -0.0696  0.0151
17833W        W60746  29.835  10.493  21.419  0.0086 -0.2894 -0.2773
17834W        W60747  32.198   8.956  16.778 -0.2368 -0.1487 -0.1584
17835W        W60748  27.684   8.996  20.673  0.2600  0.1501  0.1160
17836W        W60749  18.950   2.980  15.285  0.2409 -0.3954  0.0465
17837W        W60750   1.629  13.451  21.165  0.1844  0.2231  0.1015
17838W        W60751  20.061   3.935  18.812  0.4758 -0.1339  0.0390
17839W        W60752  26.656  11.941  14.818 -0.1449 -0.2022  0.1871
17840W        W60753  29.101  18.280  15.481 -0.4683 -0.2272  0.2257
17841W        W60754  27.742  11.564   1.626  0.0027 -0.1068 -0.1771
17842W        W60755  21.169  32.819  13.907  0.0250 -0.1131  0.0292
17843W        W60756  26.638  12.542  14.161 -0.0674  0.0262  0.1559
17844W        W60757  28.076   7.246  15.980 -0.0521  0.2031 -0.2434
17845W        W60758  32.271  18.918  17.202  0.1895 -0.5327 -0.2204
17846W        W60759  27.907   5.754  14.226  0.2032 -0.0300 -0.5227
17847W        W60760  25.736  14.949  15.582  0.0997  0.1359  0.1711
17848W        W60761  25.465   1.427   1.711 -0.1262  0.2906 -0.2857
17849W        W60762   1.463  25.724  16.661 -0.1848 -0.3110  0.1652
17850W        W60763  27.205  13.289  25.189  0.0573 -0.0361  0.1399
17851W        W60764  23.454  25.216  17.596 -0.1064 -0.0954  0.1188
17852W        W60765  30.895   8.757  16.622  0.1151 -0.3044 -0.2056
17853W        W60766   3.946  11.299  17.188 -0.1295  0.1507  0.0023
17854W        W60767  30.218  15.743  18.835  0.0307  0.0252 -0.3541
17855W        W60768  28.438   6.230  22.953 -0.0576 -0.0644 -0.0476
17856W        W60769  28.865   6.886  21.129 -0.1925  0.0914 -0.0680
17857W        W60770  29.981   4.256  25.203 -0.2104 -0.0965  0.2620
17858W        W60771  23.157  11.952  17.693  0.1367  0.0515  0.0008
17859W        W60772  31.912  14.991  16.526  0.3861 -0.1164  0.1487
17860W        W60773   2.814   7.083  16.716 -0.1032  0.1749  0.3206
17861W        W60774  31.057  15.553  17.533  0.1782  0.2620 -0.1198
17862W        W60775  27.150  16.828  20.267 -0.1371 -0.2070  0.1160
17863W        W60776  32.314  11.737  15.762  0.0371 -0.0623 -0.5479
17864W        W60777   1.457  10.195  16.500  0.2369  0.2945  0.2372
17865W        W60778  24.767  17.494  16.171 -0.0648  0.1654  0.2212
17866W        W60779   0.442  14.526  22.803  0.2566 -0.1013 -0.1396
17867W        W60780  24.467   9.163  19.093 -0.0509 -0.2663 -0.1420
17868W        W60781  28.481  13.860  17.632 -0.2265 -0.1295  0.0526
17869W        W60782  24.734  15.577  13.969  0.1381  0.0179 -0.1099
17870W        W60783  24.255   3.698  18.146 -0.0178  0.2038  0.0908
17871W        W60784   2.390   8.005  23.871  0.1168 -0.2116  0.0587
17872W        W60785  25.556  10.868  16.559 -0.0826  0.0654  0.0787
17873W        W60786  16.496  31.335  17.230  0.3124 -0.1802  0.0841
17874W        W60787  25.947   6.255  15.943  0.1149 -0.0911  0.0933
17875W        W60788  25.378  11.264  16.859 -0.0175 -0.0977  0.0673
17876W        W60789  27.043   5.587  15.853  0.2392 -0.1740  0.1306
17877W        W60790  26.438  10.690  25.563 -0.0664  0.0755  0.1634
17878W        W60791  25.548   9.208  14.388  0.2414 -0.0823 -0.1829
17879W        W60792  32.949  13.631  14.100  0.0555 -0.0915 -0.0142
17880W        W60793  26.321  15.335  18.812  0.2001 -0.0355 -0.2442
17881W        W60794  29.692  16.779  19.449 -0.1906  0.4994  0.2016
17882W        W60795  25.065  10.562  13.998  0.0447  0.1776 -0.1942
17883W        W60796  32.172  25.297  14.390  0.0650  0.0303 -0.0326
17884W        W60797  31.028   9.436  24.351 -0.0134 -0.2410 -0.2647
17885W        W60798  24.178   2.779  23.547  0.1169  0.0931 -0.0185
17886W        W60799  29.134   9.595  16.162 -0.1109 -0.1814 -0.1222
17887W        W60800  30.376   4.542  21.934 -0.1771  0.1400  0.1926
17888W        W60801  27.946   4.148  21.630 -0.0912  0.2432  0.3306
17889W        W60802  26.629  20.437  13.564 -0.0400  0.0042  0.0136
17890W        W60803  30.877  12.638  21.256 -0.0280  0.0904 -0.2063
17891W        W60804   3.502   7.748  20.694 -0.1419 -0.0881  0.1188
17892W        W60805  26.003  10.982  19.363  0.1721  0.6077 -0.0866
17893W        W60806  13.831  31.519  21.388 -0.3144  0.1002  0.1054
17894W        W60807  28.907  14.010  14.047 -0.0450  0.1761  0.0485
17895W        W60808  19.198  10.869  20.774 -0.0385 -0.0756  0.1622
17896W        W60809  18.171   9.433  16.235 -0.1633 -0.0171 -0.2510
17897W        W60810  29.885  24.935  14.798 -0.1034 -0.2583  0.0225
17898W        W60811  20.626   8.411  13.693 -0.0045 -0.1415  0.1452
17899W        W60812  22.500  31.545  19.137  0.0102 -0.1875  0.1536
17900W        W60813  25.149   2.379  26.562  0.2017  0.1028 -0.3221
17901W        W60814  15.848  34.403   2.281  0.0749 -0.2477 -0.0329
17902W        W60815  25.506  11.691  28.328 -0.0536  0.1318  0.1382
17903W        W60816  27.904  17.995  15.315  0.2850  0.0737 -0.2538
17904W        W60817  29.481  12.884  17.120  0.5506  0.1791 -0.2787
17905W        W60818  22.210  12.811  13.861  0.1313 -0.0625  0.2025
17906W        W60819  24.693   8.443  15.104 -0.4077 -0.0287  0.1834
17907W        W60820  29.495  11.838  19.530  0.2739 -0.1125 -0.0842
17908W        W60821  30.469   8.499  16.693  0.1609  0.0938  0.1252
17909W        W60822  25.541   5.506  17.127  0.0351  0.1721 -0.2458
17910W        W60823  24.266  11.462  16.057  0.0038  0.0333  0.1638
17911W        W60824   0.755  29.925  15.157 -0.3195 -0.2449 -0.1308
17912W        W60825  30.539  16.297  25.108  0.2726 -0.1673  0.0378
17913W        W60826  28.364  13.538  13.179  0.0518  0.0233 -0.0644
17914W        W60827  28.142   0.794  28.707 -0.0570 -0.2721  0.0025
17915W        W60828  24.532  17.586   1.388  0.1485  0.0802 -0.2217
17916W        W60829  27.861  11.278  14.439 -0.0911  0.1634 -0.1541
17917W        W60830   0.567  11.657  14.366 -0.3474 -0.0401  0.0058
17918W        W60831  29.266   6.084  17.881 -0.1681  0.0220 -0.1218
17919W        W60832  34.005  13.704  20.759  0.2387 -0.0707 -0.3440
17920W        W60833  30.102  11.147  15.914  0.0152 -0.0742 -0.3268
17921W        W60834  18.647   3.280  17.579  0.0937  0.3299  0.1154
17922W        W60835  24.142  12.782  27.790 -0.1341  0.2074  0.0384
17923W        W60836  22.326  16.846  23.327  0.0151 -0.0686 -0.1224
17924W        W60837  25.401   3.876  29.526  0.1743  0.3031 -0.0858
17925W        W60838  23.605  18.928  15.862 -0.0014  0.2052  0.1747
17926W        W60839  33.736   7.917  16.508 -0.2834  0.2169  0.3794
17927W        W60840  30.880   5.664  25.145 -0.1344  0.0598  0.1926
17928W        W60841  18.271   3.960  16.985 -0.0752 -0.1493  0.2939
17929W        W60842  28.273  15.536  25.994 -0.1033 -0.1541  0.2330
17930W        W60843  25.280   2.791  19.010 -0.1354 -0.0540 -0.1258
17931W        W60844  32.487  19.388  19.525 -0.3329 -0.0260 -0.0627
17932W        W60845  13.284  17.603  17.584  0.0467 -0.2910 -0.0948
17933W        W60846  27.074  15.454  13.673  0.1024 -0.2424  0.3471
17934W        W60847  23.129   4.923  15.694 -0.2327  0.0109  0.0798
17935W        W60848  20.689  13.326  19.805  0.3786  0.2129 -0.0167
17936W        W60849  29.943   7.213  16.231  0.0612 -0.0135  0.0267
17937W        W60850  20.239   5.801  16.627 -0.3684  0.1152  0.2658
17938W        W60851  29.356  12.530  16.815  0.0074  0.0163 -0.4250
17939W        W60852  29.090  20.947  13.754  0.0048 -0.0231 -0.1743
17940W        W60853  23.069  13.005  12.554  0.1658  0.0376 -0.1258
17941W        W60854  23.772  10.721  13.780  0.2240  0.0971  0.1954
17942W        W60855  25.199  12.589  20.781  0.3140 -0.2280  0.0093
17943W        W60856  28.867  19.148  19.298  0.0340 -0.0471  0.0558
17944W        W60857  25.394   7.329  16.999 -0.2866 -0.3839 -0.1224
17945W        W60858  27.294   6.069  15.545  0.1139  0.1687 -0.1551
17946W        W60859  18.052  11.407  12.991  0.1347  0.1229 -0.0065
17947W        W60860  21.004   7.746  18.882  0.1619 -0.3055  0.1755
17948W        W60861  31.799  14.420  15.425 -0.2316 -0.1363 -0.4054
17949W        W60862  15.815  33.317  19.344 -0.1367 -0.2688  0.2842
17950W        W60863  23.639   9.224  21.702 -0.0595 -0.0927  0.1932
17951W        W60864  32.288  21.010  14.354  0.0176 -0.1953  0.2067
17952W        W60865  30.025  31.718  15.999  0.3933  0.1777  0.0033
17953W        W60866  27.375  12.853  13.552 -0.1133  0.2096  0.0731
17954W        W60867  25.848   8.884  19.076 -0.1472  0.4063 -0.0636
17955W        W60868  29.045  16.774  19.570 -0.1511 -0.1990 -0.1742
17956W        W60869  25.426   0.887  23.959  0.3590  0.0516  0.0556
17957W        W60870  11.817  11.945  21.593  0.1504  0.1689  0.0205
17958W        W60871  18.422  14.241  12.260  0.0309  0.1250 -0.1490
17959W        W60872  23.727  13.959  19.857  0.0252 -0.1067  0.1075
17960W        W60873  31.303  13.201  15.069 -0.1439 -0.2903  0.0877
17961W        W60874  27.277   8.352  18.559  0.0810 -0.4122 -0.0839
17962W        W60875  22.958  14.211  14.013  0.2140 -0.0210  0.1196
17963W        W60876  25.118   7.626  17.895  0.0096  0.2100  0.2159
17964W        W60877  19.582  34.400  21.134 -0.2053 -0.3554 -0.0031
17965W        W60878  26.296  12.117  20.935 -0.0113 -0.0971 -0.1365
17966W        W60879  33.487  23.492  18.301 -0.2185 -0.3219  0.1404
17967W        W60880  27.354   5.416  14.867 -0.2038  0.2149 -0.1962
17968W        W60881  30.075  34.160  21.247  0.3215 -0.1979 -0.0976
17969W        W60882  20.313   8.296  21.129 -0.0710  0.0944 -0.0436
17970W        W60883  27.274  13.266  13.818 -0.3103 -0.1719  0.2446
17971W        W60884  28.082  11.781  23.571  0.5532  0.0121 -0.1471
17972W        W60885  25.066   7.607  19.358 -0.1162  0.2630  0.1429
17973W        W60886  27.790  16.634  21.458 -0.2047 -0.2293  0.0302
17974W        W60887  30.117   2.788  17.139  0.0784  0.4578  0.0232
17975W        W60888  25.411  17.750  15.362  0.1086 -0.0478  0.2731
17976W        W60889  26.857  14.063  24.652 -0.1812  0.0296  0.0497
17977W        W60890   2.032  10.665  21.105  0.3423  0.3124 -0.0544
17978W        W60891  18.916   9.628  17.217 -0.0020 -0.2015  0.0526
17979W        W60892  33.362   8.399   1.920  0.1788  0.1145  0.2129
17980W        W60893  23.662  15.122  18.809  0.1018  0.0924  0.4991
17981W        W60894  26.634  16.121  23.852  0.3326  0.0451  0.1274
17982W        W60895  28.164  19.675  16.424 -0.1592  0.2132 -0.0112
17983W        W60896  25.939  16.209  23.163  0.1025 -0.1044 -0.3293
17984W        W60897   1.581   4.340  17.855 -0.1509  0.1693  0.2167
17985W        W60898  21.801   7.672  21.766 -0.1156 -0.0206 -0.2098
17986W        W60899  25.389  16.184  21.606 -0.0779 -0.0657  0.0648
17987W        W60900  24.707  25.739  14.556  0.0288 -0.0492  0.0706
17988W        W60901  31.101   6.733  24.971  0.5074  0.2454  0.3031
17989W        W60902  27.341  13.568  18.509  0.1124  0.0805 -0.3392
17990W        W60903  26.088  12.836  19.950  0.1823 -0.1328  0.1192
17991W        W60904  20.211  13.034  12.895 -0.2042  0.0224  0.4088
17992W        W60905  28.333   7.252  21.794  0.1375  0.1674 -0.0349
17993W        W60906  29.082  16.499  18.286  0.0210 -0.1126  0.1344
17994W        W60907  30.155  19.558  18.413  0.0651  0.3042 -0.1259
17995W        W60908  31.571  11.445  16.764  0.2563  0.1032  0.0265
17996W        W60909  30.535  13.228  17.739 -0.2321 -0.1928 -0.3250
17997W        W60910  28.333   5.148  20.749  0.1722 -0.0633  0.2175
17998W        W60911  25.360  10.814  24.820  0.2863 -0.0635  0.0302
17999W        W60912  34.125   6.522  19.778  0.2856 -0.0100  0.0536
18000W        W60913  23.285   1.311  14.610  0.0039 -0.0320 -0.0095
18001W        W60914  30.710  18.772  18.033 -0.1220 -0.0564  0.1060
18002W        W60915  28.057   4.888  15.406 -0.0666 -0.0213 -0.0469
18003W        W60916  32.765  11.899  14.885  0.0139  0.2555 -0.1669
18004W        W60917  27.857  19.948  13.347 -0.0735 -0.6170 -0.0010
18005W        W60918   2.719  15.645  16.721  0.0022 -0.1867 -0.0823
18006W        W60919  33.682   5.170  16.870  0.2207  0.1134 -0.4738
18007W        W60920  29.097  11.909  15.428  0.4492 -0.0915  0.2222
18008W        W60921  23.153   5.493   2.092  0.3615 -0.2615 -0.2763
18009W        W60922  27.631  19.636  24.274 -0.0577 -0.3246 -0.1183
18010W        W60923  30.897  16.446  14.227  0.2048 -0.0010 -0.4710
18011W        W60924  27.339   3.669  16.981 -0.0330 -0.0621 -0.0026
18012W        W60925  21.654  33.923  24.066 -0.5007 -0.1195 -0.0629
18013W        W60926  25.143  19.426  28.377 -0.0299 -0.2013  0.3434
18014W        W60927  22.826  20.018  14.302 -0.1871 -0.1301  0.0540
18015W        W60928  32.895  13.817  16.771  0.1701 -0.1511 -0.2874
18016W        W60929  15.379   7.467  20.046  0.0068  0.0184  0.0503
18017W        W60930  22.699  18.661  13.680 -0.1459 -0.0489  0.0762
18018W        W60931  17.761  22.119  18.183  0.1288 -0.0873 -0.0749
18019W        W60932   0.527  19.390  26.019  0.1330 -0.2466 -0.0193
18020W        W60933  21.011  12.598  25.062  0.0644 -0.2448 -0.2169
18021W        W60934  26.339  22.357  13.787 -0.0383 -0.1109  0.1493
18022W        W60935  24.827   9.470  15.471  0.1774 -0.2247 -0.0866
18023W        W60936  24.853   6.600  13.995 -0.0286 -0.0260 -0.0423
18024W        W60937  30.074   5.187  17.445  0.1201 -0.2809  0.1657
18025W        W60938  32.869  21.774  15.072 -0.0785 -0.0123 -0.1274
18026W        W60939  18.926  10.963  20.351 -0.0574 -0.0004 -0.2078
18027W        W60940  32.476  18.910  16.707 -0.1806 -0.0197 -0.3845
18028W        W60941  23.686   7.493  16.584  0.2713  0.0988  0.3475
18029W        W60942   6.490  29.679  18.553  0.1724  0.1224  0.1848
18030W        W60943  14.752   4.527  17.666 -0.0353  0.0404  0.0182
18031W        W60944  23.920  13.014  21.348 -0.1598  0.0667  0.2041
18032W        W60945  30.828   7.870  20.963  0.0188  0.1343 -0.0569
18033W        W60946  13.801   8.006  15.469 -0.0860  0.1118 -0.3104
18034W        W60947  31.622  10.561  21.658  0.1991  0.0087  0.1043
18035W        W60948  18.486  11.689  14.721  0.1798  0.1862  0.0468
18036W        W60949  32.693   9.416  24.188  0.0418  0.0432 -0.2265
18037W        W60950  23.056   3.443  28.501  0.3159 -0.0651 -0.0133
18038W        W60951  13.645  22.861  15.294 -0.1979  0.1228  0.0052
18039W        W60952  19.445  17.340  12.684  0.0629  0.2615  0.2085
18040W        W60953  29.288   8.001  16.207  0.0478  0.2047 -0.1611
18041W        W60954  33.485   9.514  21.952 -0.0389  0.0622 -0.3037
18042W        W60955  22.436  10.558  24.315  0.1020 -0.1101 -0.3278
18043W        W60956  24.434  15.163  23.766  0.2653  0.1174  0.0331
18044W        W60957  24.313   6.556  14.117  0.1134 -0.0651 -0.1883
18045W        W60958  31.548   9.076  18.912 -0.2557 -0.1250  0.2089
18046W        W60959  28.808   2.324  25.535 -0.3145 -0.1515  0.2190
18047W        W60960  29.004   6.639  18.010  0.1129 -0.0060  0.4635
18048W        W60961  33.075  16.065  16.438 -0.2422  0.1950 -0.1014
18049W        W60962  28.965  14.608  19.318 -0.1451  0.1524 -0.1574
18050W        W60963  29.123  19.692  19.574  0.0715  0.1701  0.2633
18051W        W60964  27.545  17.499  19.855 -0.0409 -0.2231  0.0250
18052W        W60965  24.301  13.252  24.565  0.2704  0.1758 -0.2922
18053W        W60966  32.451   8.777  17.279 -0.3242 -0.2379 -0.1014
18054W        W60967  27.334   9.207  15.783  0.1643  0.1206 -0.0346
18055W        W60968  29.695  17.696  23.574 -0.1688 -0.0316 -0.0960
18056W        W60969  24.902   8.880  15.492  0.1880 -0.0558  0.1351
18057W        W60970  26.525  17.284  23.070 -0.0022 -0.0749  0.2581
18058W        W60971  28.372  10.330  19.368  0.2000  0.2769 -0.1598
18059W        W60972   0.960  11.249  21.773  0.0318 -0.1996 -0.0238
18060W        W60973  30.727   9.979  28.849 -0.2009  0.0469  0.2474
18061W        W60974  16.444   1.422  24.218 -0.1677 -0.0325 -0.1131
18062W        W60975  32.149  14.838  15.684  0.2332 -0.2072 -0.1501
18063W        W60976  27.629   7.810  20.924 -0.0167  0.0215  0.1432
18064W        W60977   5.630  19.321  20.556  0.0290  0.0711 -0.2482
18065W        W60978  31.071   8.742  20.861  0.1104  0.4360 -0.3546
18066W        W60979  21.076   8.660  13.366  0.1546 -0.0006  0.0061
18067W        W60980  16.729  14.804  11.504 -0.0996  0.1101  0.1043
18068W        W60981  23.601   9.391  24.924  0.2409  0.0807 -0.0932
18069W        W60982  30.325  18.658  21.945  0.1566 -0.0802  0.0245
18070W        W60983  19.096   1.501  23.792  0.2108  0.3261  0.2582
18071W        W60984  29.844  29.932  17.158  0.0659 -0.1066 -0.0412
18072W        W60985  30.389  19.623  16.038  0.3739 -0.0073 -0.1574
18073W        W60986  26.892  12.845  14.956  0.2039  0.0538 -0.0303
18074W        W60987  27.815  19.800  27.642  0.3224  0.1516 -0.2329
18075W        W60988  26.424   3.317  15.042  0.2651  0.3097  0.0588
18076W        W60989  24.057  27.280  21.847  0.4479  0.1047 -0.0431
18077W        W60990  32.313   8.350  16.000 -0.2149 -0.0967 -0.1704
18078W        W60991  30.976   6.863  19.274  0.1889 -0.0240 -0.1656
18079W        W60992  20.572   9.978  17.818  0.0959 -0.3925 -0.1944
18080W        W60993  24.655  24.845  15.637  0.0009 -0.3069 -0.2947
18081W        W60994  26.870  21.379  28.909  0.2187  0.2127  0.3519
18082W        W60995  18.886  24.519  23.139 -0.1355 -0.0668  0.0199
18083W        W60996  21.728  13.233  15.464  0.1166  0.0078  0.1857
18084W        W60997  28.557  22.125  26.569  0.1267  0.1485 -0.1414
18085W        W60998  28.075   4.616  25.198  0.2510 -0.0188 -0.1234
18086W        W60999   3.377  10.456  26.022 -0.0812 -0.2683 -0.0888
18087W        W61000  22.291   9.589  18.473 -0.1485 -0.2215 -0.1912
18088W        W61001  25.526   7.483  27.021  0.0194 -0.0535  0.2953
18089W        W61002  29.879  31.187  22.840  0.1960 -0.2273 -0.2349
18090W        W61003  16.018  25.466  20.809  0.0420  0.0004 -0.0243
18091W        W61004  24.192   9.987  27.656  0.0099  0.1374  0.0635
18092W        W61005  26.373  12.057  26.562 -0.0479 -0.0437  0.0707
18093W        W61006  28.034  13.046  17.761 -0.1109  0.1920  0.0620
18094W        W61007  27.952   3.041  18.038  0.2596  0.1060 -0.3674
18095W        W61008  24.405   0.773  17.198 -0.0440 -0.3257 -0.2150
18096W        W61009  13.658  19.220  14.964  0.2350 -0.2151 -0.1177
18097W        W61010  21.838  10.554  18.777  0.2128  0.0174  0.1685
18098W        W61011  27.375  32.904  15.041 -0.1088 -0.1135  0.4683
18099W        W61012  10.011  10.477  15.087  0.2340  0.0110  0.1405
18100W        W61013  20.334   6.884  15.915  0.0783 -0.3294  0.3129
18101W        W61014  25.671  11.325   0.333 -0.1758 -0.4380  0.0951
18102W        W61015  29.979  33.235  15.008 -0.0288  0.3573  0.2044
18103W        W61016  18.935   9.566  24.369  0.2408 -0.0819  0.1356
18104W        W61017  31.389   0.290  24.930 -0.2971  0.0082 -0.1746
18105W        W61018  30.677   6.657  20.623 -0.0223 -0.2184 -0.0832
18106W        W61019  27.762  14.986  29.125  0.1402 -0.0700  0.0141
18107W        W61020  27.791  28.650  19.018  0.0911  0.1727 -0.1484
18108W        W61021   1.718  11.667  17.608 -0.0835 -0.0368 -0.3119
18109W        W61022  23.029   3.068   1.880 -0.2241 -0.3062 -0.1678
18110W        W61023  28.893  12.111  23.798  0.1355 -0.0417 -0.0444
18111W        W61024  32.770  15.777  26.743  0.1419  0.1303 -0.0825
18112W        W61025  26.816   8.102  25.894  0.1146  0.0309  0.2006
18113W        W61026  28.880  19.271  27.492  0.2943 -0.1407  0.2292
18114W        W61027  28.195  33.862  22.971  0.1269  0.0252 -0.2559
18115W        W61028  29.975   4.880  16.012  0.3345  0.1248  0.0167
18116W        W61029  14.988   7.824  16.130 -0.1243  0.1958 -0.0613
18117W        W61030  26.039  12.119  22.611  0.1429  0.0972 -0.0320
18118W        W61031  24.140  24.250  21.070 -0.1257 -0.3356  0.0110
18119W        W61032  23.482   8.687  18.452 -0.1192 -0.3519 -0.0528
18120W        W61033  29.285  11.334  23.949  0.3221 -0.0596  0.0083
18121W        W61034  26.993  23.592  13.036 -0.0769  0.1064  0.0938
18122W        W61035   4.306  15.313  23.871 -0.2442 -0.0948  0.0418
18123W        W61036  30.110   0.434   6.098  0.0677  0.0779  0.2243
18124W        W61037  27.669   8.382  14.995  0.3148  0.0393  0.3118
18125W        W61038  27.423  16.968  20.713 -0.1155 -0.0192 -0.0958
18126W        W61039  25.840   6.990  19.088 -0.0016  0.1231 -0.0290
18127W        W61040  26.618  21.405  15.019  0.0107  0.1229  0.0666
18128W        W61041  30.774  19.108  13.523 -0.1017 -0.1200  0.2035
18129W        W61042  20.044   0.162   3.184 -0.1488 -0.0611  0.1666
18130W        W61043  26.514  24.773   6.341  0.0646  0.0136 -0.0841
18131W        W61044  26.489  13.970  16.367  0.0218  0.1399  0.1848
18132W        W61045  26.380   6.337  22.022  0.0726  0.0182 -0.0313
18133W        W61046  27.805  16.458  20.177 -0.1156  0.3429  0.1788
18134W        W61047  30.123  11.470  17.135 -0.0631 -0.0610 -0.0135
18135W        W61048  27.582  20.119  15.710 -0.0159  0.4175 -0.1407
18136W        W61049  31.055  11.593  25.903  0.2883 -0.0117  0.2196
18137W        W61050  21.197   7.116  14.415  0.5045 -0.1527  0.0341
18138W        W61051  29.818   9.853  16.437 -0.0739 -0.2000  0.0089
18139W        W61052  24.904  12.756  12.671 -0.0474 -0.1420 -0.3729
18140W        W61053  30.359   5.300  18.312 -0.1851 -0.0260 -0.1193
18141W        W61054   0.493  18.732   1.263  0.1569  0.0638 -0.1308
18142W        W61055  24.772  17.609  17.585 -0.3947  0.0122  0.3654
18143W        W61056  32.666  14.683  18.577 -0.0084  0.2015  0.0648
18144W        W61057  18.714  27.230  25.468  0.0986 -0.1465  0.2914
18145W        W61058  28.959  20.753  24.359 -0.0797  0.1303  0.1305
18146W        W61059  23.473  32.878  20.256 -0.0472 -0.1348 -0.1713
18147W        W61060  29.328  22.592  22.293  0.0171 -0.3003  0.0715
18148W        W61061  19.390  12.728  14.855  0.2694 -0.0872  0.1045
18149W        W61062  24.460  21.420  14.604 -0.2282 -0.0677  0.2649
18150W        W61063   0.344   3.998  18.415 -0.1892  0.2346 -0.1120
18151W        W61064  20.203   7.344  20.660 -0.1324  0.3923 -0.1610
18152W        W61065  24.069   5.825  16.872  0.1121  0.1505  0.4878
18153W        W61066  22.522  14.208  14.322 -0.1785 -0.1012 -0.2467
18154W        W61067  20.278  26.658  25.173  0.0376  0.3904 -0.0495
18155W        W61068  26.637  17.943  21.388  0.1671  0.0084  0.1815
18156W        W61069  24.548   5.093  19.079  0.1513 -0.0566  0.2313
18157W        W61070  19.680   6.896  21.927 -0.1010 -0.3000 -0.0740
18158W        W61071  28.743  10.928  20.842  0.0736 -0.2517 -0.1815
18159W        W61072  30.003   6.129  15.802  0.0402 -0.0512  0.1399
18160W        W61073  27.972   7.703  23.998  0.1345  0.0034 -0.3864
18161W        W61074  27.201   8.534   4.503 -0.0917  0.1642 -0.1370
18162W        W61075  23.370  17.152  16.507  0.1911  0.1273  0.0448
18163W        W61076  30.101   8.464  24.669 -0.2080 -0.3290 -0.0361
18164W        W61077  20.790  32.382  26.965 -0.1288 -0.0999  0.0479
18165W        W61078  22.171   5.737  15.111  0.0757 -0.0189 -0.2181
18166W        W61079  20.126   7.337  15.990  0.1497  0.1476  0.2021
18167W        W61080  19.206   8.709  22.465  0.1134  0.1501  0.2389
18168W        W61081   6.018   5.290  19.754  0.2520 -0.1109 -0.1100
18169W        W61082  20.054  15.702  26.121 -0.0501 -0.0025  0.1787
18170W        W61083  25.958   7.064  15.764 -0.2159  0.0874  0.2259
18171W        W61084  27.901   9.837  16.830  0.0027 -0.0456  0.2557
18172W        W61085  24.622   7.419  19.589  0.3029  0.3605  0.0518
18173W        W61086  19.252   1.665  27.930  0.1908 -0.2093  0.1605
18174W        W61087   2.203   5.798  18.181 -0.2623  0.2422  0.0576
18175W        W61088  29.083   9.687  14.309 -0.2379  0.1049  0.0682
18176W        W61089  23.861  23.515  18.407 -0.0251  0.1934  0.0048
18177W        W61090  27.743   0.762  19.840 -0.3387 -0.1481  0.1714
18178W        W61091  27.069  22.157  28.634 -0.3010 -0.1730 -0.0868
18179W        W61092  23.867   3.254  22.077 -0.0289 -0.1447 -0.0527
18180W        W61093  30.903   9.907  15.563  0.1674 -0.0502 -0.0691
18181W        W61094  32.498  34.405  17.177  0.0414 -0.0002  0.0865
18182W        W61095  32.455   9.667  29.408 -0.2641 -0.1339 -0.1517
18183W        W61096  25.826  33.821  28.018  0.0190 -0.0395  0.1560
18184W        W61097  16.010   4.099  14.742 -0.2177  0.2280  0.0159
18185W        W61098  28.876  12.271  19.508  0.3055  0.4002 -0.0160
18186W        W61099  31.884   6.235  15.959 -0.0367 -0.1473 -0.1371
18187W        W61100  20.913   7.933  13.971  0.1391  0.1791  0.3711
18188W        W61101   2.173  15.014  20.544 -0.0468  0.0213  0.2300
18189W        W61102  13.958  10.040  20.229 -0.0623 -0.2032  0.1900
18190W        W61103  13.037   4.402  26.819  0.0641 -0.1801 -0.0113
18191W        W61104  25.000  25.746  28.972  0.0461  0.1696  0.1497
18192W        W61105  22.530  12.741  23.259 -0.1464 -0.1658  0.2364
18193W        W61106  21.703   3.799  26.576 -0.1768  0.0085 -0.1102
18194W        W61107  22.328  12.940  25.459 -0.1622  0.3262  0.1186
18195W        W61108  23.531  12.842  17.434 -0.0366  0.2026  0.1735
18196W        W61109  20.867   9.352  15.495 -0.1356  0.1097  0.2214
18197W        W61110  33.849  11.860  18.947  0.1086  0.4287 -0.3534
18198W        W61111  34.230   1.744   1.373 -0.1563  0.1047 -0.1346
18199W        W61112  30.217  15.980  29.522 -0.2928 -0.0560  0.1219
18200W        W61113   2.649   6.281  22.993 -0.0457 -0.0706 -0.0629
18201W        W61114  20.630  11.307  14.867  0.3707 -0.1585  0.2009
18202W        W61115  30.334   7.133  25.697 -0.1987 -0.0641  0.3003
18203W        W61116  28.352   9.812  19.564  0.1484 -0.3123  0.1545
18204W        W61117  26.802  15.104  17.603  0.1115  0.2097  0.0225
18205W        W61118  23.666  32.837  19.824 -0.0803  0.0623 -0.0466
18206W        W61119   1.757  18.149  19.184 -0.0867 -0.1920  0.0960
18207W        W61120  14.898   0.929   0.372 -0.0312 -0.1080  0.0402
18208W        W61121  24.541  10.805  26.791  0.0513  0.0011  0.0900
18209W        W61122  26.392   7.216  13.635 -0.1814 -0.0754 -0.1414
18210W        W61123  16.263  13.478  22.851  0.0947 -0.2140 -0.3854
18211W        W61124  28.065  11.457  25.148 -0.0320  0.1052  0.3792
18212W        W61125  29.944  20.031  18.525 -0.0265 -0.1677  0.1282
18213W        W61126  28.957   9.189  15.013 -0.0332 -0.1076  0.2618
18214W        W61127  29.191   8.917  23.097  0.0193  0.1341 -0.0347
18215W        W61128  19.274  30.918  15.629  0.3429  0.2740  0.0681
18216W        W61129  21.695   8.304  17.612 -0.0755  0.0912 -0.1800
18217W        W61130  27.176  13.975  23.013 -0.3184 -0.0766  0.3619
18218W        W61131  33.901   0.862  24.385 -0.0461 -0.0214  0.3223
18219W        W61132   4.257  16.942  16.300 -0.0233  0.2325  0.2420
18220W        W61133  27.489   9.198  23.198  0.0405 -0.0196  0.0241
18221W        W61134  28.482  13.613  16.574 -0.2543  0.3620  0.0553
18222W        W61135   0.897  15.694  18.449  0.1652  0.0943 -0.2769
18223W        W61136  29.255  15.560  19.247  0.1790 -0.1459  0.2227
18224W        W61137  19.712   2.957  22.651  0.2073 -0.1271 -0.0294
18225W        W61138  22.834   2.092  18.868  0.1101 -0.0525  0.2226
18226W        W61139  28.319  14.340  18.054  0.1815  0.1118  0.2394
18227W        W61140  28.693  19.355  18.297 -0.0758  0.2013 -0.1250
18228W        W61141  30.065   5.919  17.283 -0.0625  0.3249  0.0539
18229W        W61142  27.724   8.661  24.298 -0.0015  0.2545  0.0777
18230W        W61143  11.819   4.520  17.521 -0.1350  0.3954 -0.2673
18231W        W61144  17.497   9.314  12.911 -0.0383  0.4778 -0.0120
18232W        W61145  15.076   1.524  24.414 -0.0975  0.0091  0.0938
18233W        W61146  18.573  20.823  22.320  0.1319 -0.4653  0.0906
18234W        W61147  13.815  31.040  21.242 -0.1019  0.0659 -0.0263
18235W        W61148  25.433  13.730  19.064 -0.0866 -0.2091  0.0289
18236W        W61149  26.329  18.200  15.740 -0.0675  0.3452  0.0835
18237W        W61150  25.936  11.722   5.717 -0.2688 -0.3513  0.1903
18238W        W61151  20.089  11.795  14.220 -0.3112  0.3587  0.0957
18239W        W61152  23.749   4.273  21.541  0.4647  0.1929  0.2508
18240W        W61153  28.103   1.851  20.273 -0.3013 -0.4251 -0.2610
18241W        W61154  29.025   7.155  20.737  0.0661 -0.0913  0.2811
18242W        W61155  18.531  11.627  20.848  0.1856  0.0329 -0.0226
18243W        W61156  30.630   1.158  19.337  0.0244 -0.3306  0.0428
18244W        W61157  27.989  10.456  15.095  0.0491 -0.0735 -0.1730
18245W        W61158  29.791  16.104  17.796  0.4785  0.0695  0.1503
18246W        W61159  26.751   7.989   6.112  0.2341 -0.0412  0.2206
18247W        W61160  28.295  32.264  24.055 -0.3271  0.1997 -0.1651
18248W        W61161  25.703   3.244  19.738 -0.2606  0.3093  0.1421
18249W        W61162  25.918   2.460  17.321 -0.0868  0.0256 -0.0107
18250W        W61163  21.741   1.605   3.505 -0.2606 -0.1178 -0.0694
18251W        W61164  23.088   8.354  19.810  0.1024 -0.0708 -0.1320
18252W        W61165  24.944   5.367  19.311 -0.3189  0.1968 -0.2931
18253W        W61166  24.365   5.476  23.088  0.1235  0.0242  0.0253
18254W        W61167  23.938  12.592  17.581  0.4427 -0.2421  0.1615
18255W        W61168   2.320  14.158  26.354 -0.1760 -0.2793  0.1449
18256W        W61169  29.209   9.592  26.793 -0.1713 -0.1641  0.0072
18257W        W61170  32.275   8.938  25.847 -0.0548  0.3037  0.2087
18258W        W61171  25.303  29.757  23.076 -0.0464  0.0146  0.1053
18259W        W61172   6.088   8.709  29.599  0.2441 -0.1861  0.2136
18260W        W61173  24.782  11.782  21.340 -0.2579 -0.0634  0.0374
18261W        W61174  28.316   1.867  17.901 -0.1558  0.2113  0.3398
18262W        W61175  22.456  11.319  25.517  0.0376  0.0047  0.2469
18263W        W61176  28.301   8.706  17.419 -0.1474  0.1002 -0.1059
18264W        W61177  33.183   7.774  17.841  0.3848 -0.0102  0.0439
18265W        W61178  30.419  13.863  20.311 -0.0648 -0.0122  0.2371
18266W        W61179  32.704  24.128   0.643 -0.2174  0.1829  0.0592
18267W        W61180   0.082   5.305  24.814  0.2145 -0.1027 -0.1499
18268W        W61181  25.424  34.116  23.879  0.3560  0.4155  0.0694
18269W        W61182  31.221  16.028  14.215  0.1108 -0.0874 -0.2514
18270W        W61183  17.554   8.200  18.489 -0.1503 -0.0585  0.0592
18271W        W61184  24.158  13.924  15.747 -0.2146 -0.1044 -0.3346
18272W        W61185  24.135   4.610  19.075 -0.0011 -0.2745  0.0608
18273W        W61186  17.793   5.352  23.809  0.2317 -0.0855 -0.5285
18274W        W61187  20.754   5.907  17.582 -0.4313 -0.1224  0.0661
18275W        W61188  20.616  10.375  22.879 -0.2086  0.3415  0.2763
18276W        W61189  14.679   1.837  16.885  0.0539 -0.0101 -0.0574
18277W        W61190  28.810   9.069  18.716  0.1862  0.1008  0.2943
18278W        W61191  19.167  14.188  25.841  0.0360 -0.1102 -0.0855
18279W        W61192  29.536  20.742  22.405  0.2835 -0.1638 -0.0900
18280W        W61193  23.405   6.563  15.758  0.3263 -0.0969 -0.0775
18281W        W61194  26.639   9.621  18.139  0.1873  0.4568 -0.3121
18282W        W61195  20.331   7.298  15.286  0.0783 -0.1543  0.0646
18283W        W61196  29.162  20.733  17.825 -0.3351 -0.4818 -0.0174
18284W        W61197  21.910  15.312  22.099 -0.0255  0.1772 -0.0710
18285W        W61198  27.119  24.410  20.253 -0.2825  0.5933 -0.0379
18286W        W61199  31.150  10.475  23.867  0.1061  0.3763 -0.0645
18287W        W61200  23.274  12.434  28.195 -0.0829  0.0134  0.0471
18288W        W61201  27.381  13.888  19.288 -0.0625 -0.1394  0.2213
18289W        W61202  22.027   7.899  17.485  0.3579 -0.4896  0.0951
18290W        W61203  25.353  13.437  16.122  0.1808  0.1868 -0.0191
18291W        W61204  16.640   1.823  21.383  0.2466  0.0059 -0.0468
18292W        W61205   2.306   3.586  25.255 -0.1263  0.0369  0.3370
18293W        W61206  21.704   5.013  22.840  0.0803 -0.0724  0.0138
18294W        W61207  30.429  12.095  26.272 -0.0058 -0.2702 -0.1367
18295W        W61208  27.988   0.204  21.868  0.3266  0.0218 -0.1515
18296W        W61209  26.263   5.641  19.171  0.2151 -0.0385  0.0024
18297W        W61210  29.202  23.921  14.325 -0.0160 -0.1999 -0.0670
18298W        W61211  22.231  31.563  16.407 -0.1095 -0.0337 -0.2893
18299W        W61212  26.566  14.224  25.059  0.1683  0.2774  0.0478
18300W        W61213  31.658  10.910  21.262 -0.2142 -0.0019 -0.0296
18301W        W61214  16.551   9.855  23.296  0.0599  0.0291 -0.3148
18302W        W61215  19.966   3.722  27.084 -0.1923 -0.1419  0.1773
18303W        W61216  33.125  13.390  16.658 -0.1894 -0.1456  0.0811
18304W        W61217  26.692  14.853  27.464 -0.0022 -0.0530  0.0950
18305W        W61218  24.466   2.910  16.426 -0.1350 -0.0163  0.0573
18306W        W61219  25.320   3.086  21.526 -0.0224  0.0928 -0.2006
18307W        W61220  23.522   7.051  20.610 -0.3183 -0.2439  0.2325
18308W        W61221  30.162  15.866  28.852  0.1224 -0.0461 -0.2472
18309W        W61222  26.816   9.719  21.615  0.2995 -0.0409  0.0517
18310W        W61223  16.322  12.943  14.173 -0.0127 -0.2451  0.1941
18311W        W61224  28.770  33.975   2.898  0.0115  0.2266  0.1319
18312W        W61225  31.745   9.826  28.581  0.0921  0.0496 -0.1361
18313W        W61226  26.002  17.737  16.971 -0.2132  0.4032  0.1102
18314W        W61227  28.430   7.368  20.599  0.0176  0.0093 -0.0538
18315W        W61228  24.617   2.233  16.180 -0.3267 -0.0295 -0.1984
18316W        W61229  21.726   3.811  23.339  0.0674 -0.0472  0.1485
18317W        W61230  30.351  12.218  21.501  0.0593  0.0603 -0.0785
18318W        W61231  26.887  12.360   1.093  0.0200  0.0240 -0.2671
18319W        W61232  21.725  31.971  24.733  0.0201 -0.1026  0.1045
18320W        W61233  26.474  12.886  19.687 -0.3802 -0.0797 -0.1167
18321W        W61234  28.474  15.605  14.830  0.1415  0.0380  0.1123
18322W        W61235   4.142  29.763  21.485  0.1289 -0.2400  0.0929
18323W        W61236  21.666   5.526  17.929  0.2213 -0.4009  0.0231
18324W        W61237  17.378  11.416  17.204  0.0592 -0.0082  0.2259
18325W        W61238  19.740   8.682  17.082  0.0575 -0.3244 -0.1281
18326W        W61239  27.765   5.380  27.263 -0.0665 -0.1530  0.1546
18327W        W61240  25.269  33.842  15.378  0.1037  0.0747 -0.1036
18328W        W61241  22.149   7.527   0.802 -0.0762  0.1189  0.1643
18329W        W61242  20.452  15.364  23.205 -0.3190 -0.2613  0.0136
18330W        W61243  23.812  14.875  13.002 -0.1835  0.1126  0.0169
18331W        W61244   3.155  15.976  22.504  0.2085  0.3279 -0.0488
18332W        W61245  23.987  16.278   1.385  0.1233 -0.2992 -0.0757
18333W        W61246  19.864  10.221  24.637 -0.0180  0.0491  0.2635
18334W        W61247  18.036   5.704  26.535 -0.3116  0.4220 -0.0030
18335W        W61248  31.587  16.345   2.442 -0.2348  0.2407  0.0756
18336W        W61249  30.487   6.465  15.482  0.0041  0.1304 -0.1070
18337W        W61250  24.287   7.529  24.687 -0.1090 -0.3839 -0.2054
18338W        W61251  19.753   6.177  23.101 -0.1001  0.1587  0.2567
18339W        W61252   5.199   7.740  23.759 -0.2154  0.1766 -0.1352
18340W        W61253   1.979  31.317  20.596  0.2356  0.0413  0.2453
18341W        W61254  15.993  12.952  17.891  0.3973 -0.3607 -0.2835
18342W        W61255  27.061  11.031   0.409  0.0631 -0.1133  0.1926
18343W        W61256  23.845  10.714  23.049 -0.0080  0.0201 -0.0524
18344W        W61257  21.532  32.033  20.223 -0.0104 -0.0942  0.1315
18345W        W61258  26.984   5.046  22.362  0.0797 -0.0783  0.1156
18346W        W61259  26.413   5.091  18.475 -0.2060 -0.3601 -0.0909
18347W        W61260  13.274  14.708  17.345 -0.0026 -0.2260 -0.0392
18348W        W61261  22.065  20.003  19.205  0.1241  0.0103 -0.0180
18349W        W61262  25.271  11.559  23.374 -0.1207  0.0899  0.3309
18350W        W61263  24.535  33.972  25.534 -0.0326  0.2698  0.1722
18351W        W61264  27.258   7.548  25.383 -0.1446 -0.3154 -0.1042
18352W        W61265  23.859   9.614  20.764 -0.2905  0.0850  0.0452
18353W        W61266  28.632  10.461  27.136  0.1095  0.0835 -0.1159
18354W        W61267   0.482  15.265  17.319 -0.1354  0.0862 -0.2048
18355W        W61268  27.260   7.808  15.441  0.3149 -0.1704 -0.0133
18356W        W61269  31.188   9.062  20.162 -0.1734  0.1428 -0.0131
18357W        W61270  24.308  32.684  23.055  0.0378  0.2706  0.0281
18358W        W61271  22.078   4.572  25.349 -0.4100 -0.0264 -0.2639
18359W        W61272  26.271  19.126  26.705  0.1392 -0.0813  0.1026
18360W        W61273  26.288  15.459  21.698  0.0376 -0.3144 -0.1233
18361W        W61274  26.357  10.271  13.680  0.0373 -0.3189 -0.2631
18362W        W61275  23.462   7.806  15.086  0.2662  0.2253 -0.2362
18363W        W61276  22.531  11.288  16.151 -0.4586  0.0100 -0.1360
18364W        W61277  25.680  18.089  14.069 -0.1017 -0.0669 -0.0057
18365W        W61278  24.033  11.227  20.849 -0.1031  0.0716  0.0110
18366W        W61279  23.586   5.373  25.953 -0.2610 -0.0841  0.0772
18367W        W61280  31.326   7.817  26.103  0.0325 -0.3365  0.1821
18368W        W61281   9.771  13.492  28.229  0.0864 -0.0410 -0.1530
18369W        W61282  22.420   6.965  21.706  0.0219  0.2100  0.3205
18370W        W61283  15.747  13.208  14.199 -0.1201 -0.0257  0.3091
18371W        W61284  27.053   5.579  22.321 -0.1801 -0.2168  0.1173
18372W        W61285  20.939   3.009  15.898 -0.0971 -0.1288 -0.1261
18373W        W61286  25.967  20.022  14.219  0.1035 -0.1263  0.0676
18374W        W61287  29.045   3.419  24.485 -0.2347  0.2885 -0.1454
18375W        W61288  32.109  10.298  17.312 -0.2069  0.0517 -0.1902
18376W        W61289  29.607  14.786  23.044 -0.2254 -0.1255  0.3427
18377W        W61290   2.793  11.532  26.693 -0.0466 -0.0167 -0.3129
18378W        W61291  20.451   3.194   2.496 -0.0493 -0.0141 -0.3193
18379W        W61292  18.662  26.805  24.496  0.1767 -0.0547 -0.1117
18380W        W61293  31.380  30.445  28.498  0.1937  0.0643 -0.2701
18381W        W61294  24.117  16.983  15.593 -0.2175 -0.3434 -0.2486
18382W        W61295  19.677   5.803  27.317  0.0638  0.0403 -0.2220
18383W        W61296  33.245   2.906  22.709 -0.1220  0.0357 -0.0704
18384W        W61297  21.285   9.586   1.643 -0.0006 -0.1432 -0.1188
18385W        W61298  28.062  13.641  14.190 -0.2105  0.0004  0.0021
18386W        W61299  30.956   4.326  20.456 -0.0397 -0.0028  0.0948
18387W        W61300  17.911   3.434  19.077  0.4367 -0.0151 -0.0330
18388W        W61301  31.200   4.397  26.098 -0.1393  0.1186  0.2294
18389W        W61302  21.387  10.214  22.308  0.0197 -0.0609 -0.5461
18390W        W61303  24.986  34.425  24.140 -0.1355 -0.0743 -0.0862
18391W        W61304  32.917  32.710  20.952  0.1775  0.2670 -0.3025
18392W        W61305  18.170   8.572  15.825  0.3484  0.0709 -0.0868
18393W        W61306  34.344   9.654  15.444 -0.0190  0.2066 -0.1294
18394W        W61307  26.262   5.556  24.542  0.1838  0.0771  0.0617
18395W        W61308  25.859  20.845  17.823 -0.2140  0.0697 -0.0753
18396W        W61309  22.196   8.756  16.965  0.0267  0.0722  0.0562
18397W        W61310  29.983   3.114  23.152 -0.1630  0.2316  0.0697
18398W        W61311  33.117  12.933  15.388 -0.0392  0.0635 -0.2585
18399W        W61312  22.824  20.130  21.948  0.2445 -0.2762 -0.3157
18400W        W61313  26.999   8.899  21.401  0.0348 -0.0542 -0.0961
18401W        W61314  28.574   9.154  18.267  0.0371  0.0752 -0.0863
18402W        W61315  26.286   6.818  21.792  0.2010  0.1954 -0.1194
18403W        W61316  21.297  16.584  13.714 -0.3542  0.0229  0.4539
18404W        W61317   4.555   1.185  25.010 -0.0035 -0.2186 -0.2207
18405W        W61318  10.283  14.511  15.087  0.1917 -0.2191  0.1379
18406W        W61319  19.690   6.596  21.058  0.0549 -0.1211 -0.0314
18407W        W61320   2.367  11.499  17.886 -0.1647 -0.1961  0.0719
18408W        W61321  18.519  10.139  19.801  0.2799  0.1063 -0.2549
18409W        W61322  20.137   0.759   1.141 -0.1859  0.1302 -0.1429
18410W        W61323  24.042  13.506  14.452  0.1436 -0.1869  0.0859
18411W        W61324  26.129   3.163  21.325 -0.2526  0.2492  0.0313
18412W        W61325  28.919   7.155  18.433 -0.0654 -0.0938 -0.1518
18413W        W61326  27.037  32.503  15.815  0.1163  0.1207 -0.0942
18414W        W61327  26.366  18.890  28.807 -0.1360 -0.1794 -0.1121
18415W        W61328  30.739  11.638  21.298 -0.1784  0.2634  0.1322
18416W        W61329  29.269  10.879  28.093 -0.2230 -0.1266 -0.0229
18417W        W61330  33.126  13.711  19.812  0.3288 -0.1119  0.1478
18418W        W61331  18.407   6.308  21.110  0.0039 -0.0830 -0.1389
18419W        W61332  20.356   9.134  23.450  0.0483  0.1865  0.0177
18420W        W61333  23.731  10.546  17.114 -0.2860 -0.3027 -0.0856
18421W        W61334  32.903  10.503  20.432 -0.1434  0.2233  0.1452
18422W        W61335  32.023  20.270  20.344 -0.1940 -0.1094  0.0648
18423W        W61336  27.674   9.608  17.734 -0.4714  0.1375  0.0723
18424W        W61337  26.479  20.545   1.068  0.0403  0.1366 -0.1135
18425W        W61338  28.081  34.390  17.428 -0.0281 -0.1767  0.0978
18426W        W61339  17.217   7.883  21.758  0.0655  0.0178 -0.2327
18427W        W61340  22.684  29.854  19.483 -0.1874  0.1181  0.0951
18428W        W61341  20.740  16.224  20.601  0.0408 -0.0626  0.1085
18429W        W61342  29.104   5.596  17.542  0.3328  0.4378  0.0459
18430W        W61343  14.858   1.296  16.693  0.0334 -0.1594  0.4232
18431W        W61344  21.531   3.954  18.266  0.0381 -0.1498 -0.0009
18432W        W61345  33.802  12.729  23.342 -0.1060  0.0186  0.0257
18433W        W61346  33.838   2.353  19.066 -0.0145  0.0438  0.2495
18434W        W61347   2.749  11.707  19.419  0.1985  0.0913  0.1783
18435W        W61348  28.285  10.270  23.632 -0.0486 -0.4027 -0.1788
18436W        W61349  21.155   8.939  17.124  0.0515  0.1700 -0.1379
18437W        W61350  21.606  12.098  19.053 -0.1377  0.0675  0.3452
18438W        W61351  25.415  25.034  15.241  0.1892  0.0212 -0.2049
18439W        W61352  27.078   5.609  25.341 -0.2085  0.1764  0.2206
18440W        W61353  25.722   5.542  14.877 -0.4282  0.4380  0.0745
18441W        W61354  27.971   6.135  23.031  0.0364  0.1330 -0.2282
18442W        W61355  24.597   1.114  27.876  0.0776 -0.3245  0.1135
18443W        W61356  23.046  16.242  20.521 -0.1060  0.0591  0.1218
18444W        W61357  24.991   2.173  14.734  0.1126 -0.3656 -0.0022
18445W        W61358  27.299  17.140  13.509  0.1219 -0.0530  0.0030
18446W        W61359  30.589   7.850  24.686 -0.2002  0.0105  0.4116
18447W        W61360  11.312  32.084  15.966 -0.1638  0.0770 -0.0907
18448W        W61361  24.370  33.761  27.610 -0.0536  0.1904  0.3250
18449W        W61362  30.950   3.978  19.702 -0.1985  0.1698 -0.2999
18450W        W61363  28.856  23.431  13.449  0.2159 -0.0055  0.2321
18451W        W61364  28.697  17.706  24.166  0.0013  0.0776 -0.0431
18452W        W61365  32.055  22.229  16.945 -0.3286 -0.1413 -0.0086
18453W        W61366  24.237  10.974  16.074 -0.2875 -0.0172  0.0133
18454W        W61367  21.124   4.204  27.814 -0.0735 -0.1019  0.0079
18455W        W61368  13.889   6.509  21.642 -0.0336  0.0153  0.0537
18456W        W61369  18.730  11.504   3.241  0.3063  0.1219 -0.0253
18457W        W61370  31.480  10.253   1.745 -0.0090  0.3512  0.0690
18458W        W61371   0.838  10.849  21.452 -0.2168  0.0966 -0.1084
18459W        W61372  34.377   3.453  25.583  0.0403  0.0274 -0.1644
18460W        W61373  24.729   3.433  24.316  0.0802  0.1756 -0.1513
18461W        W61374  21.803  13.915  19.638 -0.0602 -0.0205  0.0699
18462W        W61375   0.839  15.525  17.498 -0.1499  0.1476 -0.1199
18463W        W61376  21.286  13.110  21.370  0.2407  0.1408  0.2040
18464W        W61377  23.803  10.698  12.804 -0.1758 -0.1226 -0.1022
18465W        W61378  27.177   7.242  24.246 -0.0993 -0.1266 -0.3644
18466W        W61379  19.240   1.446   4.515 -0.3401 -0.2030 -0.0473
18467W        W61380  29.007   0.975  18.976  0.0025 -0.1070 -0.0713
18468W        W61381  30.946  23.304  27.086  0.0183 -0.2650 -0.1937
18469W        W61382  18.614  12.874  14.768  0.1339  0.2061  0.0981
18470W        W61383  20.853  17.351  15.568 -0.2679  0.0070  0.1242
18471W        W61384  28.381  27.219  12.848  0.2047 -0.2387  0.2018
18472W        W61385  22.626   4.684  19.097 -0.1843 -0.0013 -0.1346
18473W        W61386  22.279  13.069  28.809 -0.1128  0.2573  0.1021
18474W        W61387  33.087  13.069  22.152  0.2562 -0.0432 -0.1649
18475W        W61388  27.655   4.407  23.734 -0.0771  0.0612 -0.2494
18476W        W61389  32.236   7.645  22.572  0.1071  0.0325 -0.0090
18477W        W61390  20.993   7.688  29.336  0.1026  0.1226 -0.0865
18478W        W61391  25.394   6.214  15.553  0.1110 -0.2463 -0.2150
18479W        W61392  26.563  14.589  28.630 -0.4936 -0.0780  0.0447
18480W        W61393  33.912   7.319  17.831 -0.1035  0.2866  0.3854
18481W        W61394  23.439   0.485  26.044  0.0880  0.2272 -0.5009
18482W        W61395  21.944  12.433  12.012 -0.2986  0.0566 -0.1895
18483W        W61396  33.329  13.174  14.942  0.2384 -0.0855 -0.1419
18484W        W61397   0.996  13.658  15.573  0.1641  0.0384  0.1465
18485W        W61398  31.344  14.843  27.081 -0.0565 -0.0219  0.0819
18486W        W61399  19.675  18.777  27.229  0.0918 -0.0170 -0.1282
18487W        W61400  20.520   7.520  21.626 -0.2121 -0.0263  0.0053
18488W        W61401  27.227  10.774  20.794 -0.2979 -0.0435  0.2717
18489W        W61402  15.636   5.688  25.936  0.1773  0.0535  0.0823
18490W        W61403  18.827   6.579  26.902 -0.0672 -0.2153 -0.1630
18491W        W61404  18.225  20.967   7.188  0.0774  0.0765 -0.0235
18492W        W61405  25.624  34.177  22.272  0.0471  0.1457  0.1443
18493W        W61406  32.948  22.092  23.768  0.0629  0.0711  0.1656
18494W        W61407  17.819   7.904  17.402 -0.1431 -0.5124 -0.0353
18495W        W61408  28.153  11.932  22.047 -0.0271  0.0703  0.3829
18496W        W61409  21.514  18.327  22.823  0.0063  0.0899 -0.2583
18497W        W61410  29.337   2.936  20.447  0.2626 -0.1798 -0.0256
18498W        W61411  25.634  34.071  20.944  0.0234 -0.2860 -0.0466
18499W        W61412  27.219  10.288   1.021 -0.1690 -0.0341  0.0022
18500W        W61413  25.726  34.212  23.460  0.1174 -0.1509 -0.0620
18501W        W61414  24.335   4.069  29.290  0.1545 -0.1175  0.1884
18502W        W61415  30.827  20.838   2.494 -0.0750 -0.0326  0.1015
18503W        W61416  25.203   3.639  19.475 -0.2518 -0.1655 -0.4985
18504W        W61417  20.791  31.088  24.447 -0.2454 -0.2755 -0.2043
18505W        W61418  23.250  18.355  24.447  0.1881  0.1089  0.2446
18506W        W61419  16.774   2.897  15.092 -0.0340  0.0467 -0.1652
18507W        W61420  33.930   8.505   6.687 -0.3300 -0.0249  0.0401
18508W        W61421  27.201   7.636  28.336  0.0570 -0.1189 -0.1988
18509W        W61422  22.366  10.888  22.008  0.2483 -0.1951  0.3114
18510W        W61423  24.435   4.722  16.238  0.0830 -0.0280  0.0180
18511W        W61424  30.254  11.237  22.963 -0.0748 -0.3085 -0.0365
18512W        W61425  30.101  18.904  28.305  0.2192 -0.0083  0.0870
18513W        W61426  33.191   8.091  23.712  0.1892  0.3289  0.0322
18514W        W61427  17.710  10.963  28.890 -0.6464 -0.0571  0.0629
18515W        W61428  28.003   4.318  27.733 -0.1099  0.1413 -0.2869
18516W        W61429  29.829   9.858  24.205 -0.1970 -0.1231 -0.1882
18517W        W61430  19.828  23.393  20.773  0.3216  0.0640  0.0952
18518W        W61431   3.067  28.637  23.049 -0.3645 -0.0771 -0.0465
18519W        W61432  24.814  17.986  20.946  0.0881 -0.2100 -0.0346
18520W        W61433  24.886  14.171  24.498  0.1927 -0.1602  0.0874
18521W        W61434  26.236   5.686  25.548  0.0427 -0.1205  0.0946
18522W        W61435  14.404   7.146  19.701  0.2079 -0.4591  0.0921
18523W        W61436  12.123  10.153  22.478 -0.0961 -0.0407 -0.0636
18524W        W61437  21.132  13.063  14.391 -0.0387 -0.0121  0.1198
18525W        W61438  21.027  15.733  21.876 -0.0276  0.2302 -0.3263
18526W        W61439  25.915  10.653  18.038 -0.0067  0.2620  0.3268
18527W        W61440  31.802  24.964   1.579  0.1959 -0.3716  0.3056
18528W        W61441  22.733   7.936  29.469  0.2371 -0.3116 -0.0330
18529W        W61442  19.199   9.269  19.760 -0.0168 -0.1674  0.2218
18530W        W61443  29.647  29.786  25.331  0.1720 -0.0611 -0.0766
18531W        W61444  29.011   5.862  25.956 -0.1395 -0.1515  0.3172
18532W        W61445  30.141  11.569  28.338  0.3089 -0.0424  0.1704
18533W        W61446  26.034   3.810  15.768  0.1386  0.4408  0.3000
18534W        W61447  21.837   7.840  14.401  0.4629  0.2558  0.1901
18535W        W61448  29.354   1.545  26.748 -0.3158 -0.1881 -0.2693
18536W        W61449  28.509  16.546  27.144  0.0031  0.2639  0.1244
18537W        W61450  14.978  11.458  15.979  0.2442 -0.0326 -0.0440
18538W        W61451  26.870   5.523  27.356 -0.1146 -0.0850 -0.2312
18539W        W61452  25.615  22.745  24.560  0.1072  0.1058 -0.2349
18540W        W61453   7.727   8.730  24.767  0.1066  0.1531  0.2201
18541W        W61454  12.114   4.244  17.266  0.2222  0.0011  0.3346
18542W        W61455  19.536  13.107  17.542 -0.0758  0.2155  0.1731
18543W        W61456  28.444  17.586  19.281 -0.1618  0.1599  0.2077
18544W        W61457  21.203  14.433  14.738  0.1168 -0.1555 -0.0329
18545W        W61458  31.325   7.934  23.228 -0.0955  0.0329 -0.0254
18546W        W61459   5.460  16.010  16.310  0.2245  0.1499  0.2673
18547W        W61460  25.886   7.417  28.951 -0.0769 -0.1497  0.2051
18548W        W61461  32.683  12.441  28.383  0.0412  0.0598 -0.1442
18549W        W61462  24.490  15.021  24.278  0.0440 -0.0897 -0.1991
18550W        W61463  28.148  12.322  24.276  0.0769 -0.0123 -0.0819
18551W        W61464  23.407  13.513  28.824 -0.1947  0.2991 -0.1058
18552W        W61465  26.246   0.323  24.837  0.0303 -0.1572 -0.0985
18553W        W61466   2.321   8.506  21.347  0.3077 -0.0196  0.1426
18554W        W61467  25.024  13.895  28.447  0.2394 -0.1434 -0.0931
18555W        W61468  27.917   4.125  19.563 -0.0889 -0.1012  0.2518
18556W        W61469   0.309  32.830  25.687  0.2515 -0.3013  0.1389
18557W        W61470  23.419   2.254  26.853  0.0214  0.3035 -0.2560
18558W        W61471  24.529  18.855  15.761  0.1158 -0.0842  0.0370
18559W        W61472  21.742  17.822  29.293  0.1453  0.1291  0.1743
18560W        W61473   9.675  10.368  20.774  0.1669 -0.0875 -0.0725
18561W        W61474  34.463  14.898  16.638  0.0876 -0.0966  0.0544
18562W        W61475  15.998   7.671  22.389 -0.0019 -0.0339  0.0675
18563W        W61476  26.336  30.278  29.577  0.2917  0.0883  0.1172
18564W        W61477  30.079  11.772  26.440 -0.4205  0.0937 -0.1224
18565W        W61478  23.010   8.331  29.741 -0.2481  0.0068 -0.1631
18566W        W61479  17.997  10.245  23.475  0.0461  0.3778  0.3329
18567W        W61480  26.758  20.729  19.141  0.2009 -0.1129 -0.2224
18568W        W61481  22.099  12.472  23.958  0.2321 -0.2043 -0.1800
18569W        W61482  14.599  14.486  27.667 -0.0431 -0.1107 -0.1934
18570W        W61483  22.376   4.216  20.405  0.2678 -0.0511 -0.2322
18571W        W61484  21.367   6.545  14.295  0.2996  0.1084  0.0569
18572W        W61485  17.549   6.445   8.826  0.0321 -0.0058 -0.2235
18573W        W61486  33.680   2.224   0.218 -0.0299 -0.0911  0.1132
18574W        W61487  27.309  22.089  21.195  0.0118  0.1275  0.1887
18575W        W61488  29.066  29.515  21.100 -0.1181 -0.0820  0.0573
18576W        W61489  16.753  13.458  24.602  0.1600 -0.2279 -0.1182
18577W        W61490  28.636  16.278  25.236 -0.0555 -0.2036  0.0765
18578W        W61491  20.452  12.807  19.866  0.4555  0.0951  0.2161
18579W        W61492  32.728  31.091   0.132  0.1787 -0.2436 -0.1195
18580W        W61493  26.718  15.226   7.468 -0.1923 -0.0191  0.2746
18581W        W61494  23.813   0.177   0.931  0.0604  0.2042  0.1451
18582W        W61495  20.548   1.625  28.982 -0.0405  0.1432 -0.1344
18583W        W61496  21.132   2.916   1.941 -0.0794  0.1094  0.0244
18584W        W61497  24.896   9.528  16.786  0.2244  0.2475 -0.1588
18585W        W61498  25.847   8.759  18.428 -0.2988 -0.1610  0.0189
18586W        W61499  21.755  31.399  22.821 -0.0495 -0.3305 -0.1486
18587W        W61500  25.843  21.874  14.798  0.2668  0.0635 -0.2233
18588W        W61501  19.613  11.985  25.594  0.0329 -0.2399  0.2867
18589W        W61502  30.563   7.455  15.890 -0.0719 -0.1288 -0.1586
18590W        W61503   9.367  14.065   4.942  0.2054 -0.1194 -0.1317
18591W        W61504   3.539  15.331  15.804  0.2168  0.1461 -0.0771
18592W        W61505  30.598   8.736  24.487 -0.1451 -0.0959 -0.0904
18593W        W61506  31.376   0.951  20.659  0.0190  0.1005  0.1145
18594W        W61507  26.660   4.286  21.915  0.0593 -0.1234 -0.0539
18595W        W61508  31.986   5.380  16.442  0.0838 -0.0421 -0.0845
18596W        W61509  29.615   8.445   1.383 -0.4704  0.5277  0.0556
18597W        W61510  32.839  19.362  18.532  0.0423 -0.2697 -0.2033
18598W        W61511  28.800   0.545  29.240 -0.0020 -0.0373 -0.0237
18599W        W61512  23.147  21.466  23.661  0.1285  0.1249  0.0080
18600W        W61513  29.466  17.014   3.293  0.0064 -0.0100  0.0276
18601W        W61514  11.411  17.211  18.336 -0.0498 -0.1021 -0.1373
18602W        W61515  32.003   5.718  19.202 -0.3002 -0.2736 -0.3290
18603W        W61516  27.603  18.784   3.363  0.0576 -0.2972  0.3936
18604W        W61517  29.430  12.923  23.439 -0.0643  0.2851  0.0275
18605W        W61518  19.994  31.131  24.895  0.1465 -0.1340 -0.2497
18606W        W61519  28.227  10.869  23.463 -0.1444  0.1400 -0.2413
18607W        W61520   2.180   5.294   3.085 -0.4725 -0.1261 -0.0189
18608W        W61521   1.197   0.925  18.837 -0.0399 -0.0485  0.1675
18609W        W61522  18.138  34.249   1.665 -0.0972 -0.1444 -0.0453
18610W        W61523  15.790   7.141  14.684  0.0795 -0.2406 -0.0731
18611W        W61524  23.492  33.881  23.780  0.1175  0.3917 -0.1205
18612W        W61525  28.499   3.080  17.209  0.0911 -0.0159 -0.0091
18613W        W61526   1.038  11.227  25.284 -0.0446  0.4807 -0.1436
18614W        W61527  18.975   9.298  24.807 -0.1457 -0.2039 -0.1126
18615W        W61528  27.642  33.000   0.347  0.0473  0.2772  0.0083
18616W        W61529   3.204  12.484  24.462 -0.1589 -0.2100  0.0680
18617W        W61530  34.377  21.795  27.974 -0.1074  0.0680  0.1664
18618W        W61531  25.449   1.743   2.454 -0.0434 -0.2392 -0.0950
18619W        W61532  13.047   0.825  17.373 -0.2380 -0.1614  0.1416
18620W        W61533  17.331   4.961  20.191 -0.0163  0.0116  0.2538
18621W        W61534  30.464   6.867   1.054 -0.0285  0.0377 -0.1960
18622W        W61535  21.322  14.758  20.863  0.0286  0.0335  0.3003
18623W        W61536  31.927   1.278  19.898 -0.2173  0.3379  0.0762
18624W        W61537  33.259   4.590  17.925 -0.1558  0.0495 -0.0009
18625W        W61538  25.038   5.156  25.182  0.1376 -0.3394  0.0565
18626W        W61539  23.287   0.178  25.643 -0.2324 -0.2090 -0.2074
18627W        W61540  28.902   3.119  18.030 -0.1887  0.1345  0.1542
18628W        W61541  28.320   6.667  27.799  0.1141 -0.1312 -0.2536
18629W        W61542  31.295  11.107  14.749 -0.1168 -0.0815 -0.1490
18630W        W61543  33.553   0.080  21.293 -0.1654 -0.0946  0.0470
18631W        W61544  29.971  34.245  26.337 -0.0987 -0.4742 -0.3369
18632W        W61545   8.395   9.273  22.812 -0.0260 -0.0615  0.1794
18633W        W61546  21.752   8.551  21.632 -0.1097  0.0968  0.1070
18634W        W61547  27.127   2.281  24.825  0.0644  0.2348  0.1746
18635W        W61548  20.751  15.241  20.896 -0.1519 -0.0209  0.2066
18636W        W61549  26.729  13.320   0.734 -0.0903 -0.2016 -0.2672
18637W        W61550  32.620  15.705  16.083  0.0042  0.0951 -0.1123
18638W        W61551  15.363   9.117  26.412  0.3334  0.1486  0.3257
18639W        W61552  24.069   9.007   8.721 -0.0114  0.1760  0.3469
18640W        W61553  22.852   3.401   1.363 -0.1765 -0.2051 -0.0863
18641W        W61554  27.662   3.343  28.046 -0.1772 -0.2323  0.0184
18642W        W61555  21.031   9.166   0.112  0.0549 -0.3042 -0.3339
18643W        W61556  22.193  14.253  18.359 -0.1186  0.2891 -0.0081
18644W        W61557  22.885   6.332  24.093  0.0777 -0.1828 -0.1784
18645W        W61558  21.515   6.265  25.597 -0.2650  0.0566  0.0483
18646W        W61559  21.916   2.820  22.427 -0.1354  0.3015  0.2820
18647W        W61560  24.744  19.778  23.737  0.0166 -0.1908 -0.2160
18648W        W61561  25.783  10.652  23.204 -0.0420  0.0536 -0.0369
18649W        W61562   4.250   2.451  24.220  0.1730  0.1146  0.0478
18650W        W61563  19.175  16.317  23.935 -0.1103 -0.1068  0.2394
18651W        W61564  32.514  16.474   3.859  0.1557  0.3246 -0.3248
18652W        W61565  19.592   6.658  14.246  0.0453  0.0778  0.0666
18653W        W61566  16.442   9.214  26.993  0.3459 -0.0605 -0.0591
18654W        W61567  21.670   7.029  22.388 -0.1451 -0.3188 -0.0831
18655W        W61568  24.869   6.522  23.857 -0.3185 -0.1787  0.1274
18656W        W61569  31.491  33.857  19.912  0.0913  0.0627 -0.1867
18657W        W61570   2.546   4.617  21.354  0.1077  0.2542  0.0649
18658W        W61571  31.590  11.096  21.805 -0.1419  0.2446 -0.0120
18659W        W61572  20.494  34.484  22.430  0.2649  0.0957 -0.1180
18660W        W61573  25.293  12.274  21.888  0.0314 -0.0372 -0.0810
18661W        W61574  25.685  19.479  24.502  0.4444 -0.2442  0.0906
18662W        W61575  20.972   8.438  16.449  0.0257 -0.2047  0.1382
18663W        W61576  21.052   2.260  20.802  0.0631 -0.2358  0.0609
18664W        W61577  25.301   5.011  18.065  0.2189  0.0717 -0.1180
18665W        W61578  26.551   4.401  22.794 -0.1493  0.2671  0.4268
18666W        W61579  20.550  12.750  22.825 -0.2491  0.0353  0.1349
18667W        W61580   3.978  17.745  27.741 -0.2203 -0.1407  0.0890
18668W        W61581  22.872  15.876  13.886  0.0439  0.1873 -0.1808
18669W        W61582  23.927   4.192  23.384 -0.3215  0.0312 -0.0727
18670W        W61583  24.889  18.748  23.456 -0.0374 -0.0099  0.1371
18671W        W61584   0.751   3.842  27.810 -0.0579  0.1646  0.0185
18672W        W61585   3.398  10.832  21.502 -0.2572 -0.1699 -0.0102
18673W        W61586  26.895  12.376  15.242  0.0227 -0.1967 -0.3276
18674W        W61587  30.460   3.891  16.386  0.1838 -0.2549 -0.2013
18675W        W61588  23.698  10.275  16.700 -0.1167 -0.1230  0.1910
18676W        W61589  21.557   8.158  20.727 -0.0798  0.0260 -0.2052
18677W        W61590  26.747  15.677  22.577  0.1601 -0.0638  0.1280
18678W        W61591  29.246  14.537  24.869  0.1855  0.5087  0.1827
18679W        W61592  31.389   6.020  29.428 -0.0993  0.0291 -0.2813
18680W        W61593  26.795  15.210  29.604  0.0153  0.1762 -0.1738
18681W        W61594  21.586   8.166  13.867  0.0051  0.1723 -0.1636
18682W        W61595  31.455  18.025  15.208 -0.1300 -0.0528 -0.0655
18683W        W61596  27.362  10.745  18.346 -0.0703 -0.0094 -0.1321
18684W        W61597  28.245  10.054  23.203  0.2285  0.0037 -0.0382
18685W        W61598  18.015   8.714   0.462  0.3892 -0.0302  0.1807
18686W        W61599  32.088  13.574  27.955  0.0205  0.2143 -0.1968
18687W        W61600  19.307  11.813  22.513  0.1245  0.0854  0.0964
18688W        W61601  29.105  12.442  25.194 -0.2500 -0.1239 -0.0810
18689W        W61602  26.534  24.554  20.714  0.1888 -0.0191 -0.2832
18690W        W61603  22.633  10.587  15.630 -0.1297  0.1635  0.2637
18691W        W61604  32.388  11.564  14.155  0.0869  0.0724 -0.1144
18692W        W61605  23.932   3.884   2.339 -0.2270  0.3497  0.1494
18693W        W61606  28.593   9.432  19.219  0.0599 -0.0547 -0.0283
18694W        W61607   0.609   2.805  29.554  0.1248 -0.2591 -0.1501
18695W        W61608  16.562  13.981  22.716 -0.1969 -0.0316  0.1238
18696W        W61609  24.268  21.797  27.320  0.0718  0.0204 -0.0429
18697W        W61610  23.638   3.778   0.305 -0.0636  0.1347  0.3271
18698W        W61611  30.194   8.476  15.225 -0.1230 -0.0501 -0.4487
18699W        W61612  24.182   2.770  28.044 -0.3151 -0.0697 -0.0452
18700W        W61613  32.460  30.228  21.037 -0.1377  0.1152 -0.1697
18701W        W61614  26.985   7.188   9.146 -0.0397 -0.1392 -0.0408
18702W        W61615  19.946   4.622  17.526 -0.3883 -0.0540  0.2192
18703W        W61616   0.714   8.201  19.848  0.3740  0.1769  0.4356
18704W        W61617  25.662  16.391  24.062 -0.0299 -0.3256 -0.2247
18705W        W61618  22.305  17.541  19.077  0.0754  0.3103 -0.2838
18706W        W61619  24.692  13.115   2.514 -0.2175 -0.1086 -0.0869
18707W        W61620  20.961   8.764  14.633  0.3157  0.0136 -0.1080
18708W        W61621  19.644  16.874  29.713  0.1221  0.3346  0.1339
18709W        W61622   1.146   2.540   9.034 -0.1203  0.2079  0.2567
18710W        W61623   4.202  16.954  26.119  0.3100 -0.5104 -0.1015
18711W        W61624   2.890   9.149  23.071 -0.0957  0.1749  0.1388
18712W        W61625  26.643  10.205  26.116 -0.0303  0.4198  0.1608
18713W        W61626  26.784   9.132   4.127  0.0044  0.1406 -0.1561
18714W        W61627  18.276   9.372  27.859 -0.0463  0.2195  0.0399
18715W        W61628  11.526   9.451  10.378  0.1911 -0.1923 -0.3253
18716W        W61629  28.897   8.639  27.613  0.1260 -0.2786 -0.2114
18717W        W61630  23.448   5.502  16.480  0.0510 -0.1422 -0.0815
18718W        W61631   1.361   4.905  25.570  0.2720 -0.1688 -0.1956
18719W        W61632  23.266   2.085  17.805 -0.3226  0.1755 -0.1792
18720W        W61633  23.847  12.204  26.460 -0.1172  0.1757 -0.0668
18721W        W61634  17.996  33.702  22.606 -0.0168 -0.1336  0.1019
18722W        W61635  28.156   1.062  14.755  0.1382  0.0180  0.0625
18723W        W61636  17.499  25.765  20.025  0.2733  0.0127 -0.0514
18724W        W61637  31.266   5.771  24.264  0.1280  0.2123 -0.1102
18725W        W61638  33.317   8.198  20.862 -0.1814 -0.2129  0.1727
18726W        W61639  24.958  20.358  29.384  0.0371 -0.1835 -0.1198
18727W        W61640  25.963   8.479  27.479 -0.0421  0.0811 -0.2128
18728W        W61641  29.699  11.950  20.061  0.0303  0.3314  0.0079
18729W        W61642  32.403  33.441   0.505  0.0633 -0.0192 -0.2981
18730W        W61643  28.402  11.014  15.715  0.1207 -0.2211 -0.1649
18731W        W61644   3.456  12.586  21.082 -0.2372  0.1350 -0.0201
18732W        W61645  30.718  27.274   2.086 -0.0126 -0.1201 -0.3097
18733W        W61646   1.992   1.807   8.469 -0.0840 -0.2009 -0.2698
18734W        W61647  25.163  10.328  25.175  0.0631  0.0042 -0.3513
18735W        W61648  29.175  11.695  26.663 -0.2379 -0.0191 -0.0417
18736W        W61649  28.220   7.925  22.262  0.1358 -0.0372  0.0942
18737W        W61650  26.726   9.003  26.847  0.0365 -0.0286  0.3507
18738W        W61651  26.833  17.023   0.045  0.1352 -0.2035  0.0124
18739W        W61652  22.002  33.642  20.175 -0.0700  0.0758 -0.1069
18740W        W61653  30.377  12.893  27.842  0.2002 -0.0190  0.1939
18741W        W61654   2.473   5.576  21.290 -0.0574  0.1355  0.1298
18742W        W61655  25.666  18.046  15.065 -0.4120 -0.0217  0.2089
18743W        W61656  18.764   1.965  18.510  0.0012 -0.2195  0.0080
18744W        W61657  25.362  24.070  23.523 -0.1434 -0.1056 -0.1049
18745W        W61658  30.106  21.276  26.944 -0.0651  0.2286 -0.1152
18746W        W61659   7.444   2.784  19.411  0.2495 -0.0009  0.0645
18747W        W61660  25.383   4.427  24.218 -0.0807  0.0517 -0.1632
18748W        W61661  23.304   8.346  16.087  0.3968 -0.1866 -0.0449
18749W        W61662  26.393  16.007  26.974 -0.0892  0.0037  0.1733
18750W        W61663  25.928  17.558  28.953  0.0134  0.2175  0.2355
18751W        W61664  32.059  10.170  25.419 -0.1698 -0.3130 -0.2980
18752W        W61665  29.131  10.680  28.994 -0.0222 -0.3354  0.0877
18753W        W61666   9.913  13.145   2.747  0.0172 -0.1286  0.5038
18754W        W61667  27.177  10.721  27.658  0.2488  0.1708  0.0049
18755W        W61668  24.415   9.049  17.449 -0.4763 -0.2933  0.1157
18756W        W61669  33.329  19.838  21.557  0.0328 -0.0171 -0.0526
18757W        W61670  22.708  10.846  20.316 -0.0073  0.1278  0.0673
18758W        W61671  31.621  17.285  21.238  0.0770 -0.2653  0.0659
18759W        W61672  32.752   3.735  23.116 -0.0793  0.1682 -0.3191
18760W        W61673  21.996  20.153  21.348 -0.0988 -0.3505 -0.2036
18761W        W61674  31.338   7.167  19.157 -0.2459  0.0390 -0.0760
18762W        W61675  16.029  13.825  16.285 -0.1440 -0.0428 -0.0585
18763W        W61676  11.351  11.358  15.390 -0.0588  0.1027  0.1235
18764W        W61677  25.478  30.222  23.086  0.2621 -0.2042  0.1446
18765W        W61678  22.771   4.746  29.676 -0.1729 -0.0504 -0.1850
18766W        W61679   2.607  10.175  27.411  0.0216  0.0745  0.1911
18767W        W61680  24.867  16.266  21.609 -0.0218  0.0833  0.2643
18768W        W61681  25.454   7.520  17.477 -0.0338  0.3088  0.0697
18769W        W61682   5.642   9.265  16.746 -0.1445 -0.0095 -0.0305
18770W        W61683  24.360  18.926  20.247  0.1158 -0.2220 -0.1112
18771W        W61684  30.880   4.116   3.892  0.2506 -0.0679 -0.3324
18772W        W61685  24.571  13.555  20.830  0.1568 -0.0725  0.1551
18773W        W61686  19.717  13.800  20.825 -0.0125  0.1496  0.2029
18774W        W61687   1.366   2.373  23.203  0.1628  0.1686 -0.0278
18775W        W61688  14.765  10.883   2.131  0.1426  0.0370 -0.0381
18776W        W61689  23.663  19.513  18.319  0.2939  0.1498  0.0044
18777W        W61690  27.488  18.058  25.226  0.2137  0.1705 -0.1883
18778W        W61691  22.970  13.560  21.057  0.1210 -0.2360 -0.0403
18779W        W61692  26.802  30.257  23.312  0.1924 -0.0929 -0.2855
18780W        W61693  24.876   9.098  25.240 -0.1329  0.2522 -0.1459
18781W        W61694  23.466   8.239   5.008 -0.1347 -0.0427  0.1223
18782W        W61695  21.519  20.439  26.110 -0.1268  0.0233 -0.3991
18783W        W61696  25.683   5.639  28.603 -0.0872 -0.2304  0.1388
18784W        W61697  32.280   1.993  16.544 -0.2564  0.1115  0.2337
18785W        W61698  17.414  32.941  25.134 -0.0421  0.1670  0.1729
18786W        W61699   0.155   9.044  17.097  0.1712 -0.3245 -0.2183
18787W        W61700  21.355  25.606  16.324  0.1072  0.0678 -0.1940
18788W        W61701  27.689   5.112  26.869  0.3654 -0.0243 -0.0078
18789W        W61702  23.598   6.354  17.772 -0.2798  0.0985 -0.2943
18790W        W61703  28.085  11.037  28.659 -0.2574  0.1460  0.3716
18791W        W61704  14.111   7.566  26.300  0.2648 -0.1977  0.2283
18792W        W61705   6.713   7.451  24.774  0.1343  0.0293  0.1019
18793W        W61706  28.495   4.823  17.353  0.0335  0.3366 -0.1597
18794W        W61707  26.319   8.345  14.645 -0.0657 -0.0054 -0.3189
18795W        W61708  19.976   8.898  19.022  0.2730  0.3342 -0.2524
18796W        W61709  24.702   8.179  29.132 -0.0075  0.1429  0.2662
18797W        W61710  32.010   7.576  27.578 -0.1972 -0.1388  0.4070
18798W        W61711  21.526   7.392   0.147 -0.2071  0.2384  0.0838
18799W        W61712  24.066   8.432  18.888 -0.3737 -0.0234  0.0441
18800W        W61713  23.228  32.099  19.239 -0.2479  0.3005  0.2505
18801W        W61714  31.829  13.524  26.993  0.1067 -0.1361  0.2289
18802W        W61715  24.927   1.574  29.491  0.0796  0.1037  0.1732
18803W        W61716  21.878  16.563  25.479 -0.2616  0.0424  0.3439
18804W        W61717  31.909   4.471  22.927 -0.0123 -0.1456  0.2106
18805W        W61718  25.769   6.277  22.909 -0.1087 -0.1319  0.2836
18806W        W61719  23.026   4.993  18.999 -0.3477 -0.2975 -0.0288
18807W        W61720  30.034  18.130  19.709  0.0712  0.0475 -0.0236
18808W        W61721  17.893  14.145   2.659 -0.1559  0.1595 -0.0108
18809W        W61722  31.016   8.746  25.073  0.1839  0.1057  0.1778
18810W        W61723  27.753   7.946  20.168 -0.0599  0.3346 -0.2143
18811W        W61724  18.144  31.443  20.173  0.0186 -0.1091 -0.0415
18812W        W61725  25.968  12.713  28.375  0.0313 -0.3773  0.1650
18813W        W61726  23.094   7.606  27.651  0.1368  0.2038  0.0356
18814W        W61727   4.839   9.228  19.899 -0.3162  0.0310  0.0609
18815W        W61728  26.219  14.639  26.396  0.2460 -0.0453  0.1604
18816W        W61729  29.959  15.273  15.713 -0.1576  0.0867  0.1853
18817W        W61730  32.219   9.459  25.750  0.0456 -0.0966  0.0360
18818W        W61731  23.091  14.271  18.497 -0.0082  0.2820  0.2016
18819W        W61732  30.201  10.682   4.281 -0.2480 -0.0056 -0.2786
18820W        W61733  29.947   8.957  25.432 -0.1858  0.2562 -0.3371
18821W        W61734  30.466   5.923  16.251 -0.0050 -0.1122  0.1255
18822W        W61735   1.220  11.212  16.624 -0.1326 -0.2735 -0.0069
18823W        W61736  27.297   5.808  28.011 -0.0216 -0.1262  0.0087
18824W        W61737  28.457  24.540  23.705  0.0843 -0.0788  0.2485
18825W        W61738  28.744  13.808  15.598 -0.0435 -0.0134 -0.3853
18826W        W61739  24.375   3.475  18.532 -0.3014 -0.1742  0.1579
18827W        W61740  29.670   7.898  20.599 -0.0881 -0.2034  0.0924
18828W        W61741   9.142   9.223  25.539 -0.3495 -0.1930 -0.4115
18829W        W61742  20.195   0.418  25.739  0.1643  0.0919  0.1019
18830W        W61743   1.948  17.606  21.770  0.3290 -0.2443  0.0445
18831W        W61744  13.940  19.439  13.580 -0.0502 -0.3967  0.2164
18832W        W61745  25.929  18.764  20.765 -0.2137 -0.0068  0.0590
18833W        W61746  19.599   6.247  29.641 -0.3871  0.0077 -0.1019
18834W        W61747  28.869   8.455  23.048  0.0966  0.0746  0.2844
18835W        W61748  27.474   9.730  25.447  0.2371 -0.1517  0.1078
18836W        W61749  25.116   3.440  26.672  0.1632 -0.0352  0.0306
18837W        W61750  24.982   9.818  18.029 -0.1559 -0.0738  0.2341
18838W        W61751  20.729   6.466  24.504 -0.1859 -0.1082  0.0824
18839W        W61752  28.367   9.438  28.354  0.0091  0.1104 -0.0520
18840W        W61753  20.867  18.613  24.941 -0.2602  0.1353 -0.1274
18841W        W61754  26.797  15.816  25.085 -0.3704 -0.3554  0.3929
18842W        W61755  30.637  33.678  19.773  0.0551  0.1907 -0.2246
18843W        W61756  26.226   4.703  18.037 -0.0070  0.4205  0.0474
18844W        W61757  27.432  11.715  18.356  0.0892  0.1103 -0.0801
18845W        W61758  25.515   8.882  14.766  0.3611 -0.1025 -0.0473
18846W        W61759  27.591  12.744  21.996 -0.0146 -0.0707 -0.0775
18847W        W61760  21.887   7.319  26.531 -0.1106  0.0850  0.3726
18848W        W61761  26.286  14.694  20.883 -0.1530  0.0427  0.1639
18849W        W61762  30.292  16.221  18.973  0.0523 -0.0061  0.1250
18850W        W61763   8.682  21.015  28.992  0.2884  0.2267  0.1076
18851W        W61764  30.312  18.679   0.008 -0.0799 -0.1015  0.0400
18852W        W61765  28.216  12.191  14.390  0.0845  0.2007 -0.0232
18853W        W61766  22.947  15.027  19.139 -0.2008 -0.2026  0.0378
18854W        W61767  15.405  29.667   4.882  0.0416  0.0012 -0.1140
18855W        W61768  24.992  11.302  19.961  0.0480 -0.0258 -0.0304
18856W        W61769  26.549  13.841  23.304 -0.0928 -0.4523  0.1269
18857W        W61770  31.018   5.324  16.755  0.0306 -0.2085  0.2464
18858W        W61771  19.737   1.213  27.390  0.0588  0.1744 -0.2294
18859W        W61772   5.961   4.527  20.918  0.1789  0.2360  0.1671
18860W        W61773  33.873   8.460   0.121 -0.2079  0.1978  0.3903
18861W        W61774  15.229   4.132  23.501 -0.2200  0.2796  0.1795
18862W        W61775  20.451   2.245  21.554 -0.0753 -0.0572  0.0033
18863W        W61776  28.030   7.435  26.526  0.1838  0.2855 -0.0540
18864W        W61777  27.642  11.478  20.540  0.0739  0.0361 -0.4125
18865W        W61778  31.468  20.817  24.821 -0.1406 -0.1393  0.0157
18866W        W61779  25.970   9.444  15.728  0.0018 -0.2178  0.0676
18867W        W61780  23.776   0.034  19.237  0.0059  0.0417  0.0083
18868W        W61781  18.702  10.542  26.757 -0.6012  0.2533 -0.0213
18869W        W61782  27.047  13.646  24.872 -0.2262 -0.0420 -0.0762
18870W        W61783  22.648  10.824  27.747  0.0571  0.1111  0.0641
18871W        W61784  27.490  20.662  18.593 -0.1209  0.0094  0.0873
18872W        W61785  20.439   5.045  18.447  0.1983 -0.0905  0.0179
18873W        W61786  17.453  11.130  21.827 -0.1006  0.1951  0.2093
18874W        W61787   8.554   8.192  19.963 -0.2056  0.1199  0.1966
18875W        W61788  24.499  19.151  17.869 -0.1792  0.1874  0.1508
18876W        W61789  27.450   2.529  15.713  0.3537 -0.1632 -0.0716
18877W        W61790  29.351  33.604  18.686 -0.1625 -0.0625 -0.1334
18878W        W61791  34.283   6.242  21.531 -0.0801  0.3083 -0.2015
18879W        W61792  30.121   9.543  27.025 -0.0477  0.1300  0.2612
18880W        W61793  22.192  18.872  19.315 -0.1220 -0.1966  0.4494
18881W        W61794  28.251   0.502  21.547  0.1002  0.1822 -0.0170
18882W        W61795  17.880   8.591  17.198  0.0310 -0.1651 -0.0417
18883W        W61796  31.014   4.075  18.208 -0.0545  0.0150 -0.2351
18884W        W61797   0.493  19.340  23.961 -0.1644 -0.0309 -0.0080
18885W        W61798  19.931  21.452  21.206  0.1366  0.2516  0.4826
18886W        W61799  20.630   2.016  18.472 -0.0763 -0.2138  0.0194
18887W        W61800  23.727   7.475  15.421  0.0076 -0.0581 -0.0703
18888W        W61801  20.990   2.861   8.815  0.2759  0.0306 -0.2645
18889W        W61802  24.562   1.613  27.754 -0.0539 -0.0700  0.0458
18890W        W61803  28.784  19.100  16.107  0.1122  0.0582 -0.0072
18891W        W61804  30.772   4.277   2.948  0.1226 -0.0286 -0.3470
18892W        W61805  29.941   1.536  22.201  0.1854  0.2496 -0.1369
18893W        W61806   1.277  15.609   1.909  0.4329 -0.2413 -0.0523
18894W        W61807  28.426   7.276  25.553  0.1487 -0.0329  0.1306
18895W        W61808  34.006  28.684   3.400  0.2264 -0.4173  0.0531
18896W        W61809  25.191   4.649   3.862  0.2352 -0.0773  0.0381
18897W        W61810   0.307  10.597  17.703  0.1302  0.0262 -0.0268
18898W        W61811  27.438   5.483  26.566  0.1621 -0.2983  0.2706
18899W        W61812  27.117   4.843   2.423  0.1710 -0.0063  0.0527
18900W        W61813   0.407  19.115   0.558  0.1097 -0.2116  0.1871
18901W        W61814  22.368  10.672   9.381  0.0397 -0.2496 -0.1011
18902W        W61815  32.406   9.905  28.021  0.1289 -0.0535  0.0712
18903W        W61816  27.343   7.636   2.229  0.2486  0.0835 -0.0168
18904W        W61817  29.533  10.150  29.518  0.0094 -0.0544 -0.1421
18905W        W61818  26.163   6.400   1.967  0.0512  0.0737  0.3138
18906W        W61819  22.997  14.323  16.534  0.0368 -0.1104  0.1605
18907W        W61820  30.792  18.839   0.094 -0.0045 -0.0391 -0.3326
18908W        W61821  31.705   9.492  17.242  0.4882 -0.2764 -0.0652
18909W        W61822  23.087  11.766   3.367 -0.1193  0.3069 -0.1294
18910W        W61823  22.439  15.065   7.364  0.0245 -0.1409  0.2325
18911W        W61824  29.762   1.512   7.636  0.0330  0.0964  0.0164
18912W        W61825  20.914  32.755  26.579  0.2265  0.0276  0.3667
18913W        W61826  27.548  16.819   0.928 -0.0970  0.0039 -0.0718
18914W        W61827  14.038   2.325  22.906 -0.1123  0.0431 -0.1223
18915W        W61828   1.529  11.236  19.970  0.3282 -0.3207 -0.0518
18916W        W61829  19.734   6.388   2.767  0.1746  0.0073  0.3415
18917W        W61830   1.247  20.075  25.806 -0.1108 -0.3742  0.1800
18918W        W61831   9.650   6.707  26.605 -0.0206 -0.0662 -0.3762
18919W        W61832  30.122  20.129   0.668 -0.0057  0.3965  0.1723
18920W        W61833  25.526  10.168  21.495  0.2761 -0.0024 -0.1704
18921W        W61834  28.316  22.792  14.500  0.4054 -0.2461 -0.0688
18922W        W61835  17.902  10.625   3.875 -0.1458 -0.1975 -0.0209
18923W        W61836  23.591  18.758  28.499 -0.1012  0.1127 -0.0026
18924W        W61837  18.143   6.453   7.583 -0.0994 -0.3184 -0.2639
18925W        W61838  34.031  11.342  14.186 -0.1049 -0.0137 -0.0248
18926W        W61839   0.901  17.365   1.164 -0.1086  0.4077 -0.1436
18927W        W61840  23.322  15.323   6.423  0.1607  0.1455  0.1118
18928W        W61841  14.038   4.798  21.983  0.0482  0.2221  0.1297
18929W        W61842  23.381   8.501  26.664  0.1007 -0.0097  0.4654
18930W        W61843   1.368  12.102  25.247 -0.2420  0.2055  0.1607
18931W        W61844  27.934  12.257  20.825 -0.1395  0.0512 -0.0503
18932W        W61845  26.213   0.878  21.478  0.0176 -0.1506  0.1654
18933W        W61846  31.082   7.918  24.566  0.1625  0.1572 -0.1689
18934W        W61847  30.729   7.529  24.340 -0.1988  0.1053  0.1178
18935W        W61848  33.836  32.990  29.314 -0.2577  0.0442  0.0064
18936W        W61849  29.521  12.700   0.729  0.1312 -0.1870 -0.1299
18937W        W61850  26.911  11.680  15.154 -0.2816  0.2012 -0.0952
18938W        W61851  31.122   9.416   4.353  0.0306  0.0562  0.0761
18939W        W61852  12.820   2.218   1.797  0.2505 -0.1856  0.0308
18940W        W61853  22.743   2.130   3.884 -0.1739 -0.1848  0.1231
18941W        W61854  24.473   4.045  23.234  0.1185  0.0306 -0.0795
18942W        W61855  19.988   8.859   0.046 -0.0171 -0.1292 -0.3022
18943W        W61856  25.644  22.819   2.274  0.1098  0.1036 -0.3186
18944W        W61857   2.681  12.190  16.182  0.4457  0.1000  0.1506
18945W        W61858   0.247   5.606  29.133  0.2187  0.0180 -0.1068
18946W        W61859  20.403   6.929  18.506  0.2299  0.2077  0.1478
18947W        W61860  25.079   4.670   7.694  0.2427  0.0801 -0.3576
18948W        W61861  23.663   4.679   2.368  0.0907 -0.0537 -0.1019
18949W        W61862  21.983   0.936  24.934 -0.4911  0.0275  0.0850
18950W        W61863  29.851   6.066  27.367 -0.2604  0.2919 -0.0279
18951W        W61864  23.148   7.347   1.101 -0.0724 -0.3285  0.0853
18952W        W61865  17.994   5.046  24.701  0.0643  0.1979  0.1321
18953W        W61866  34.202  32.739   1.604 -0.0895 -0.3527 -0.2966
18954W        W61867  29.843  13.426  23.450 -0.0323 -0.0516 -0.0240
18955W        W61868  22.614   9.282   4.437  0.0514 -0.0090  0.0234
18956W        W61869   5.521  14.308  26.070  0.1344 -0.2516 -0.0249
18957W        W61870  26.350  10.534  21.967  0.3499 -0.1291 -0.0790
18958W        W61871  13.916  10.315  29.381  0.1452  0.0346  0.0981
18959W        W61872  31.374   8.361   8.221 -0.1282 -0.1636 -0.0339
18960W        W61873  33.337  32.256   3.333 -0.3090  0.0499  0.0159
18961W        W61874  13.220   8.627  20.235 -0.1866  0.0190 -0.0839
18962W        W61875  30.547  16.940  28.130 -0.1721  0.4763  0.0540
18963W        W61876  13.843   7.199  23.872 -0.0507  0.0505 -0.1559
18964W        W61877  27.189  13.720  29.573  0.1857  0.2294 -0.1912
18965W        W61878  15.808  10.152  19.542  0.0741 -0.1389 -0.4142
18966W        W61879  16.700   7.109  16.197  0.0581  0.0086 -0.1541
18967W        W61880  18.474   5.742  20.439 -0.1921  0.3000 -0.2037
18968W        W61881  30.168  34.035  28.196  0.1721  0.0343 -0.0243
18969W        W61882  31.241   7.034  23.484 -0.0743  0.1316  0.4179
18970W        W61883  25.737   4.533   3.803 -0.0090  0.2784 -0.0084
18971W        W61884  30.605   1.674  29.278 -0.0643  0.1384  0.1450
18972W        W61885  24.939  11.719  23.716  0.0391  0.0762 -0.0592
18973W        W61886  29.999  20.372   1.930 -0.1769  0.2473  0.2943
18974W        W61887  29.422   8.270  28.289  0.0321  0.0732  0.2897
18975W        W61888  29.658   6.660  28.356  0.0392  0.2345 -0.2071
18976W        W61889  17.248   4.969  24.364  0.2455 -0.1430 -0.1942
18977W        W61890   2.446  14.902   5.062 -0.1286  0.3724 -0.1935
18978W        W61891  20.888   1.119  14.087  0.1945  0.3574  0.4145
18979W        W61892  22.578   4.368   1.927  0.0884  0.0175  0.3238
18980W        W61893  27.103   2.964   7.228 -0.2279 -0.0804  0.0395
18981W        W61894   0.716   5.428  16.797 -0.3201  0.0483 -0.1109
18982W        W61895   2.488   7.447  28.361 -0.0638 -0.1396  0.1746
18983W        W61896  30.819  16.928  24.674 -0.0471  0.1576 -0.0915
18984W        W61897  23.439  12.996  26.516  0.0031  0.0425 -0.1942
18985W        W61898  33.833   6.725  28.520  0.3211  0.0226 -0.0957
18986W        W61899  34.014  21.482  29.569 -0.1198 -0.0519  0.1045
18987W        W61900  31.935  18.976  27.783 -0.3348  0.1070 -0.1605
18988W        W61901  31.073  26.773  26.364  0.2045  0.1645  0.0117
18989W        W61902  31.958  10.810  24.660  0.1346 -0.1105  0.1648
18990W        W61903  29.535  16.360   0.546  0.0868 -0.0343 -0.1251
18991W        W61904  21.307  32.372  27.919  0.0681 -0.4030  0.1460
18992W        W61905  24.190  14.705  22.540  0.2474 -0.0402  0.1157
18993W        W61906  21.994   4.553  20.447  0.0565 -0.0072  0.1179
18994W        W61907  23.403   3.998  14.760  0.5124  0.4275  0.0025
18995W        W61908  31.345  16.455   3.767  0.2567  0.0815  0.1011
18996W        W61909   2.043  13.780   0.741 -0.2107  0.0636  0.0970
18997W        W61910  26.823   5.102   0.565 -0.2333  0.0524  0.0829
18998W        W61911  17.513  14.899   1.366  0.3070 -0.0898 -0.3332
18999W        W61912  33.264  17.041   0.036 -0.0329 -0.0351  0.0087
19000W        W61913   3.460   5.573  29.713  0.0242 -0.0509 -0.0025
19001W        W61914  20.831  11.396  18.817  0.1666  0.1002 -0.0428
19002W        W61915  24.147   1.044  29.234  0.0334  0.1020  0.0487
19003W        W61916   1.664   9.740   1.143  0.1310  0.0401 -0.0157
19004W        W61917  19.030  15.502  26.224  0.1420 -0.0196 -0.2350
19005W        W61918  26.294  11.029   0.420  0.5122  0.2486 -0.2441
19006W        W61919   0.550  13.656   0.528  0.1298  0.0332  0.1178
19007W        W61920  31.443   5.513   5.064 -0.2300 -0.1215 -0.1688
19008W        W61921  23.462  18.486  25.709  0.1097  0.1169  0.0027
19009W        W61922  15.002  33.613  24.072 -0.0862 -0.1044 -0.0826
19010W        W61923  11.127   0.248   4.406 -0.1725  0.1523 -0.1236
19011W        W61924  11.321   8.847  28.604  0.2362  0.3877  0.1451
19012W        W61925  33.156  18.082  24.103  0.2459 -0.1860  0.1624
19013W        W61926  29.227   5.989  19.158 -0.3629  0.2591 -0.1340
19014W        W61927  17.947  12.186  22.614 -0.0806  0.1969 -0.0844
19015W        W61928  19.479   6.397  24.992 -0.1089  0.2792  0.4238
19016W        W61929  28.495   6.407  16.456 -0.0663 -0.2965 -0.2604
19017W        W61930  29.827  24.089  26.014 -0.2434 -0.1577 -0.0031
19018W        W61931  23.345  12.210  24.634  0.4494 -0.0090 -0.0961
19019W        W61932  24.140  18.789  21.520 -0.0676  0.1723  0.1173
19020W        W61933  21.986   1.614  16.969  0.0357  0.0135 -0.0440
19021W        W61934  25.809  15.778  28.976 -0.3471  0.1530 -0.0089
19022W        W61935  30.663   8.520  23.921  0.2448 -0.5978  0.2770
19023W        W61936  29.153  13.142  18.515  0.0123 -0.1730  0.2969
19024W        W61937  27.134  16.233   4.855  0.0906  0.1452 -0.1160
19025W        W61938  26.020   1.223   3.812  0.1249 -0.1449 -0.3260
19026W        W61939  25.489  10.784   1.749  0.2250 -0.0977  0.1190
19027W        W61940  25.594  13.216  26.587  0.3734  0.0013 -0.3040
19028W        W61941  24.537  14.694  15.616 -0.0162  0.0651  0.0014
19029W        W61942  32.321  19.843   7.370  0.0959 -0.1899  0.0849
19030W        W61943  20.204  18.174   7.801  0.0991 -0.0032  0.1613
19031W        W61944  28.231   3.060  28.796  0.3442 -0.1615  0.0628
19032W        W61945  14.487  16.025  25.921 -0.0078  0.0848 -0.1023
19033W        W61946  28.087   6.001   1.894  0.0362  0.0657 -0.0014
19034W        W61947  16.533   5.339   6.460 -0.1677  0.1521  0.0144
19035W        W61948  32.257  15.770  28.482 -0.0186  0.2063 -0.0866
19036W        W61949  30.088   9.090  28.367 -0.0523  0.0190  0.1158
19037W        W61950  27.801  14.195  24.653  0.1732  0.4240 -0.0651
19038W        W61951  21.966  18.444  29.007 -0.0927  0.0449  0.2722
19039W        W61952  29.619  12.217   0.776 -0.0917  0.5211  0.1493
19040W        W61953   0.093   3.042  29.415 -0.1940 -0.0041 -0.0081
19041W        W61954  29.440   9.849   6.924 -0.0863  0.3755 -0.0336
19042W        W61955  27.525   4.062  26.838  0.0563 -0.0838 -0.3386
19043W        W61956  31.360   4.557  20.250  0.1908 -0.1384 -0.2460
19044W        W61957  18.414   8.949  22.560  0.0381 -0.4915 -0.2459
19045W        W61958  28.483   2.706  29.534 -0.3589  0.0638  0.2162
19046W        W61959  18.208   5.986   3.547 -0.1710  0.1215 -0.1743
19047W        W61960  26.882   6.146  26.678 -0.1822 -0.1898 -0.1660
19048W        W61961  23.483   1.250   0.506 -0.1275  0.2370 -0.1419
19049W        W61962  25.390  14.784   2.075 -0.1595  0.0759  0.1073
19050W        W61963  24.594  20.885  27.124  0.1421 -0.1068  0.0882
19051W        W61964  33.307   2.716  25.639 -0.2729  0.2675  0.1863
19052W        W61965  20.418   5.852  26.347 -0.1201  0.2189 -0.0260
19053W        W61966  27.011  17.660  26.902  0.3610  0.1417  0.1413
19054W        W61967   1.222  20.564   3.342  0.0219  0.3559  0.1538
19055W        W61968  19.656  34.101   8.693 -0.3425 -0.0911  0.0768
19056W        W61969  22.672  12.018  18.640  0.0906 -0.1890 -0.0425
19057W        W61970  21.122  10.568  28.301 -0.0270 -0.0642  0.2978
19058W        W61971  26.981  30.481  28.670  0.1598 -0.1779 -0.2587
19059W        W61972  31.226   6.532   4.009 -0.2495  0.3720 -0.0485
19060W        W61973  14.878   0.758  16.116  0.0640 -0.5890  0.0536
19061W        W61974  30.184  14.420  19.145 -0.4040 -0.0009  0.2271
19062W        W61975  26.245  13.374   2.523 -0.0665 -0.1169  0.0007
19063W        W61976  29.442  16.553  28.587 -0.3487 -0.4803 -0.0727
19064W        W61977  24.047  12.142  27.013  0.0757 -0.1428  0.0745
19065W        W61978  14.820  33.136  27.519  0.1135 -0.0336  0.1203
19066W        W61979  23.916  10.098  26.243  0.0774 -0.0197  0.1215
19067W        W61980  21.657   0.096  15.466  0.1180  0.0432  0.2482
19068W        W61981  29.010   3.716   2.749  0.1958 -0.1481 -0.2394
19069W        W61982  27.608   4.564   6.336  0.2669 -0.1900 -0.0389
19070W        W61983  29.724  13.885  21.391 -0.0749 -0.0734  0.0290
19071W        W61984  31.544  17.031  26.310 -0.2805 -0.1061  0.2655
19072W        W61985  19.274  11.903   0.727  0.0113 -0.2216  0.0009
19073W        W61986   8.853  10.439  21.386 -0.0962  0.0699  0.1119
19074W        W61987  27.892   3.117   2.529  0.1105  0.0142 -0.0539
19075W        W61988  22.647  34.257  28.419  0.1109 -0.1834  0.1606
19076W        W61989  21.287   3.267  29.726  0.0893 -0.0690  0.2090
19077W        W61990  18.352   1.647   4.284 -0.1276 -0.2412  0.0132
19078W        W61991  26.275   8.793  18.658 -0.0701  0.1870 -0.0759
19079W        W61992  22.319  12.094   0.267  0.0421 -0.1678  0.1450
19080W        W61993  24.353   7.425  22.136  0.3912  0.0344  0.1340
19081W        W61994  30.759   3.446   6.613  0.0907  0.1892  0.2136
19082W        W61995  22.887   1.800  24.590 -0.3367  0.1828 -0.0553
19083W        W61996  23.965  10.571   2.646  0.1138  0.3125 -0.1153
19084W        W61997  27.272  14.563  28.231 -0.0980 -0.0668  0.0425
19085W        W61998  25.309   3.200  18.640  0.2380  0.5556  0.3256
19086W        W61999  29.642   9.315   2.874 -0.3715  0.3683 -0.1002
19087W        W62000  25.775  13.029  28.770 -0.1022  0.3434  0.2253
19088W        W62001  21.313   2.077  26.068 -0.1169  0.0952  0.0468
19089W        W62002  18.230   4.736  18.202 -0.2037 -0.3772 -0.0195
19090W        W62003  22.191   7.344  19.367  0.1404  0.0041  0.1102
19091W        W62004  30.051   5.596  25.557 -0.0212  0.3887 -0.0082
19092W        W62005  16.770  14.723   8.314 -0.3273 -0.2595  0.0784
19093W        W62006  21.147   4.812   5.297  0.0028 -0.1084 -0.2274
19094W        W62007  22.679  18.227   0.808  0.0839 -0.0910 -0.2697
19095W        W62008  31.412  12.175   1.690  0.0240 -0.0219 -0.1771
19096W        W62009  21.459  19.998  25.802 -0.2644  0.2789  0.0000
19097W        W62010  24.695   9.751   1.349 -0.2589 -0.2609  0.0306
19098W        W62011  29.857  14.926   1.891 -0.0495 -0.1789  0.1683
19099W        W62012  26.815  18.841  25.066  0.3288 -0.0443 -0.1253
19100W        W62013  27.047   6.601  22.312 -0.0159  0.1317  0.0161
19101W        W62014  24.173  10.385  26.638  0.0082  0.1206  0.1895
19102W        W62015  30.519   9.175  15.862 -0.2993 -0.0269 -0.1646
19103W        W62016  20.947   7.637  23.556  0.1774 -0.1401  0.0036
19104W        W62017  28.776   8.985  29.398 -0.1510 -0.0847 -0.4055
19105W        W62018  22.083  14.785   2.320 -0.0522  0.3147 -0.1192
19106W        W62019  26.032  34.223  21.351 -0.0732 -0.6115 -0.1376
19107W        W62020  23.322   5.348  17.577 -0.3087 -0.3393 -0.2874
19108W        W62021  20.818  14.942  20.479  0.0179 -0.0649  0.1589
19109W        W62022   1.051   9.727   1.931  0.0400  0.1980  0.2136
19110W        W62023  24.448  12.403  23.466  0.0819  0.3344 -0.1349
19111W        W62024  19.153   7.439  14.074 -0.2187 -0.0307 -0.1502
19112W        W62025  24.635  11.640   0.211  0.2695 -0.0142  0.0867
19113W        W62026  25.768   7.986   9.081  0.0172 -0.4323  0.3822
19114W        W62027  24.855  16.706  28.633  0.2227  0.0032 -0.2231
19115W        W62028  24.063   5.793  27.992 -0.0413 -0.1285  0.2255
19116W        W62029  29.722   3.209  21.454  0.2030 -0.1617  0.0518
19117W        W62030  29.976   4.433  16.167 -0.0242  0.0623  0.2891
19118W        W62031  29.932  11.449   6.601  0.0424  0.0292  0.0453
19119W        W62032   3.791  13.714  24.017  0.1579 -0.0378 -0.1868
19120W        W62033  29.480  11.173  18.950  0.1989 -0.0597  0.0029
19121W        W62034  21.997  27.646  28.290  0.0291  0.1785 -0.0697
19122W        W62035  19.911   8.422  28.615  0.0178 -0.3015  0.0556
19123W        W62036  30.962  11.183  24.646 -0.1957 -0.0570  0.2783
19124W        W62037  21.337   5.297   2.829 -0.2458 -0.1005 -0.1417
19125W        W62038   1.390   7.549  24.183  0.0477 -0.2292  0.1607
19126W        W62039  24.148  19.506   3.079 -0.2258 -0.2256  0.2955
19127W        W62040  23.736  13.987   3.656 -0.1529 -0.1199  0.0164
19128W        W62041  21.869   5.765  27.208  0.1880 -0.2080 -0.1705
19129W        W62042  22.872   7.465   0.659  0.0427  0.2104  0.0108
19130W        W62043  27.553  28.678  16.329  0.0458 -0.0048 -0.1862
19131W        W62044  28.380   5.549   1.190  0.1376 -0.2505 -0.2311
19132W        W62045  20.247  14.509  27.162 -0.1176  0.0642 -0.2233
19133W        W62046  30.930  15.213  26.244 -0.3878 -0.0404 -0.1030
19134W        W62047  24.287  16.600   1.030 -0.1264 -0.2179  0.0747
19135W        W62048  34.348   7.506   4.613 -0.3608 -0.1363 -0.1635
19136W        W62049  22.364  12.956   2.412 -0.1121  0.4885 -0.1033
19137W        W62050  27.199   5.022  26.749  0.4263 -0.0394 -0.2258
19138W        W62051  29.214  11.912  24.529  0.1723  0.0295 -0.0237
19139W        W62052  31.767  19.332   5.521 -0.0253  0.0011 -0.0810
19140W        W62053  27.308  16.448  20.591 -0.1288  0.0710  0.1522
19141W        W62054  21.479   2.125  22.224  0.1131  0.3698 -0.1972
19142W        W62055   0.818   9.438  24.566  0.2145  0.2272  0.3678
19143W        W62056  21.686  13.784  28.212 -0.4288 -0.1411 -0.3025
19144W        W62057  26.800  11.418   0.543  0.2027 -0.3538 -0.2922
19145W        W62058  28.927  12.619  27.341  0.0341 -0.0390 -0.2521
19146W        W62059  20.368   7.196  28.737 -0.3229 -0.1632  0.4605
19147W        W62060  29.804  11.654  24.757 -0.1003 -0.2814  0.1798
19148W        W62061  29.586   3.876  20.253 -0.2205  0.4091 -0.1606
19149W        W62062  18.864  12.908  25.262 -0.0946 -0.0513  0.1524
19150W        W62063  18.857  10.037  20.177 -0.0753 -0.1360 -0.0716
19151W        W62064   0.318  15.461  21.575  0.1505 -0.1639  0.1185
19152W        W62065  25.621  10.631  25.209  0.3557  0.1043 -0.1558
19153W        W62066  17.522  10.846   4.926  0.0954  0.1159  0.0495
19154W        W62067  19.749   7.467   2.560  0.1720  0.2463  0.2702
19155W        W62068  28.783   9.195  23.017  0.1426  0.0363  0.1115
19156W        W62069  27.233   4.460   2.800 -0.0528  0.0305  0.0073
19157W        W62070  24.616  13.507  28.131 -0.2299 -0.2528 -0.0860
19158W        W62071  22.929   1.713   5.539 -0.0066  0.2502 -0.1465
19159W        W62072  28.318  20.333  19.083 -0.5290 -0.0745  0.1524
19160W        W62073  20.184  12.279  27.725 -0.1395  0.0934  0.3201
19161W        W62074  31.796  33.962  22.126 -0.1264 -0.0584  0.0402
19162W        W62075  27.959  12.277   4.496  0.0426 -0.0068 -0.0836
19163W        W62076  25.964  13.743   6.899  0.2470  0.0812 -0.1634
19164W        W62077  10.588  11.806  21.277 -0.1306 -0.0970 -0.1915
19165W        W62078  16.617   6.462  15.976  0.2352  0.0088 -0.0455
19166W        W62079  27.741  25.375  25.597  0.0321 -0.1414 -0.6258
19167W        W62080  25.949   5.854  15.590  0.0459 -0.1421  0.2820
19168W        W62081  24.651   3.600   3.331 -0.0994  0.1592  0.0426
19169W        W62082  24.374  11.137   0.549 -0.0114  0.3430 -0.0804
19170W        W62083   7.014   1.130   6.858  0.3007  0.2517 -0.0168
19171W        W62084  28.731  12.819  25.532 -0.1074  0.3471 -0.0687
19172W        W62085  22.055   6.414  26.410 -0.1970 -0.0568  0.1624
19173W        W62086  31.336  11.858  21.675 -0.3894 -0.0190 -0.0566
19174W        W62087  32.126  11.320  18.112 -0.2752 -0.1269  0.0703
19175W        W62088  25.414   9.863  22.707  0.0660 -0.1337  0.0093
19176W        W62089   0.229  25.851  29.298 -0.1829 -0.1371 -0.1267
19177W        W62090  32.660  34.148  24.954 -0.5915 -0.1249  0.0425
19178W        W62091  25.787   5.710  16.659 -0.1403  0.2533  0.2960
19179W        W62092  28.208   5.273  26.058  0.2275 -0.2749 -0.0763
19180W        W62093  29.354   4.126  26.009  0.1311 -0.1039  0.2307
19181W        W62094  30.549   8.327   1.227 -0.0775  0.2151 -0.1231
19182W        W62095   3.671  14.481  15.891 -0.3393 -0.2650 -0.3190
19183W        W62096  28.816  20.744  23.567  0.0626  0.1283  0.4633
19184W        W62097  25.276  18.494  24.494 -0.0150 -0.1363  0.0875
19185W        W62098   8.511  33.847  26.050 -0.4945 -0.1888 -0.0377
19186W        W62099  21.247   6.589  28.381  0.2011 -0.1452  0.2446
19187W        W62100  18.414  32.765  27.638 -0.1674  0.3298 -0.2364
19188W        W62101   1.383   3.680   3.610 -0.2011  0.1798 -0.0306
19189W        W62102  23.742  31.878   0.804  0.1179 -0.3936 -0.0562
19190W        W62103  24.796   8.834  25.703  0.1556  0.0326 -0.0129
19191W        W62104  19.124  12.074  22.134  0.4798 -0.0907 -0.3140
19192W        W62105  22.356  12.301  29.194 -0.1813 -0.3763 -0.1559
19193W        W62106  28.923   2.598  26.074  0.0026 -0.0783  0.1546
19194W        W62107  31.150   3.789   5.755  0.0364 -0.0129  0.0086
19195W        W62108  30.180   9.023  18.929  0.0248 -0.3248 -0.2037
19196W        W62109   1.076   3.129  25.464 -0.0701 -0.0515 -0.1527
19197W        W62110  22.945  10.429  22.928 -0.0901 -0.1878 -0.0047
19198W        W62111  26.224  12.372  26.197  0.0938  0.0670  0.0176
19199W        W62112  22.811   7.410  26.869 -0.2745  0.1270  0.0251
19200W        W62113  22.877   4.012   0.593  0.0673  0.1727  0.0529
19201W        W62114  25.751  32.618  28.442  0.1213  0.1931 -0.0932
19202W        W62115  12.452   6.004  26.303 -0.2228  0.2563  0.4046
19203W        W62116  31.596  13.227  14.110 -0.2877 -0.0958  0.0630
19204W        W62117  26.320  12.498   4.409  0.3835  0.1857  0.0145
19205W        W62118  18.899  14.490  28.672 -0.1405 -0.0512 -0.0278
19206W        W62119  23.139   8.940   5.222  0.1820 -0.0542 -0.1426
19207W        W62120  31.065   2.350   0.339  0.0834  0.1067 -0.0042
19208W        W62121   0.352  16.786   0.731  0.3466 -0.0905 -0.3956
19209W        W62122  26.093  17.199  16.419 -0.0090 -0.0459  0.1213
19210W        W62123  21.974   0.185   7.694  0.0494  0.0985 -0.0118
19211W        W62124  25.297   1.275  25.546  0.1293 -0.3962  0.0946
19212W        W62125  20.898  31.198   2.427  0.2732  0.5914 -0.1834
19213W        W62126  21.744   6.510  18.094 -0.3205  0.1580 -0.3221
19214W        W62127  19.015  11.860  20.219 -0.1370 -0.1766  0.2035
19215W        W62128  23.945  11.096  29.518  0.1715  0.0600 -0.2306
19216W        W62129  28.932   5.090   2.699 -0.0387 -0.1308 -0.1354
19217W        W62130  26.754   2.752   3.715  0.0464 -0.1022 -0.1412
19218W        W62131   3.333  19.385  25.166  0.2107  0.0287  0.1831
19219W        W62132  31.053  10.903  22.605 -0.0209 -0.1116 -0.2382
19220W        W62133  17.999  25.061   1.789 -0.1259 -0.4966 -0.0777
19221W        W62134  28.751  14.883  19.849 -0.2187 -0.1713 -0.1611
19222W        W62135   7.617   2.504  18.348  0.3281 -0.1097  0.1804
19223W        W62136  22.865   6.162  22.957 -0.0051  0.2748  0.1181
19224W        W62137  29.009  12.827  22.731  0.2426 -0.1778 -0.2063
19225W        W62138  31.884  12.840  26.468  0.2316 -0.2142 -0.0206
19226W        W62139  29.230   7.209   4.107 -0.0192  0.0213 -0.3782
19227W        W62140   0.737  11.213   0.105 -0.0373  0.2925  0.0815
19228W        W62141  10.951   7.842  28.133 -0.5005  0.0326 -0.1772
19229W        W62142  22.922  33.892   5.661  0.0910  0.1599 -0.0818
19230W        W62143  21.174   8.315  21.360 -0.1860 -0.1177 -0.1497
19231W        W62144  25.813  13.213  21.970 -0.0111 -0.1145 -0.0684
19232W        W62145  18.197  31.086  24.920  0.2099 -0.0886 -0.1270
19233W        W62146  17.402   1.225   2.059  0.1367 -0.1086  0.0138
19234W        W62147  20.173  19.000   3.944 -0.2324  0.0930 -0.0228
19235W        W62148  23.095  23.720  28.494  0.0676 -0.3527 -0.1918
19236W        W62149  25.501  10.389  27.865 -0.1967 -0.1363  0.0343
19237W        W62150  24.372   1.399  17.268 -0.2543  0.0232 -0.3326
19238W        W62151   9.555   9.517  25.601 -0.1667 -0.2229  0.3381
19239W        W62152  27.738   9.144  26.981 -0.2016  0.0750 -0.0420
19240W        W62153  16.227  28.706   2.480  0.3256  0.0201 -0.1633
19241W        W62154  26.040   8.088  23.393 -0.0473  0.0547  0.0527
19242W        W62155  31.603   8.732  28.152  0.0363 -0.3002  0.1853
19243W        W62156   7.816  13.107  22.107 -0.3510 -0.0285  0.0717
19244W        W62157   6.381  34.155  21.673  0.0863 -0.1033  0.2518
19245W        W62158  21.402   2.516   3.456  0.1625  0.3864 -0.1861
19246W        W62159  32.315   2.841   3.630 -0.0368  0.0224 -0.3537
19247W        W62160  13.608   7.965  28.259 -0.0085 -0.1744 -0.0619
19248W        W62161  10.424  10.639  19.563 -0.0172 -0.1982  0.0034
19249W        W62162  26.168  16.693  25.390 -0.0726 -0.0248  0.0780
19250W        W62163  25.999  16.912  25.996 -0.0595  0.3194 -0.0783
19251W        W62164  27.580   8.742  19.684 -0.2105 -0.0492 -0.0528
19252W        W62165  24.256  10.443  27.442 -0.0379  0.1493 -0.0176
19253W        W62166  31.135  17.094  19.218 -0.2473  0.1193 -0.4111
19254W        W62167  27.323   3.619  17.514  0.0244  0.1740 -0.0206
19255W        W62168   3.388   5.507  18.459 -0.1338  0.5022  0.2535
19256W        W62169  14.115  12.331  28.798  0.0402 -0.0908 -0.0756
19257W        W62170   3.812   8.784  19.152  0.1571  0.0895 -0.0935
19258W        W62171  30.167  14.299  22.621  0.0265 -0.1810  0.0351
19259W        W62172  19.822   8.039  23.212 -0.3651  0.0596  0.5750
19260W        W62173   0.202  11.329   1.786  0.3266  0.1391 -0.1952
19261W        W62174  34.073   3.194  23.288 -0.1849  0.2292 -0.0515
19262W        W62175  24.743  22.639   2.000 -0.0553 -0.6376  0.1490
19263W        W62176  17.341  10.214  18.434  0.3963  0.1599  0.3027
19264W        W62177  27.568  18.881  24.699 -0.0774 -0.0676 -0.1439
19265W        W62178  29.706  12.384  27.938 -0.1949  0.2002 -0.1026
19266W        W62179  25.804  11.471   6.600  0.1594  0.4309 -0.0555
19267W        W62180  22.627  15.005  21.285 -0.1538  0.2653  0.1008
19268W        W62181  32.731   4.140  10.255 -0.1298  0.1582  0.0762
19269W        W62182  30.659  14.473  29.246 -0.0499 -0.0171  0.2957
19270W        W62183  22.680   9.218  26.104  0.0414  0.0972 -0.2808
19271W        W62184  27.515   9.751  28.791 -0.1336 -0.0694 -0.1952
19272W        W62185  33.287   1.733  16.583 -0.2446  0.0883  0.1148
19273W        W62186  21.273  15.673   7.573  0.0415  0.2312  0.2872
19274W        W62187  20.323  17.515  23.209  0.1085 -0.0371 -0.1019
19275W        W62188  28.197   5.855  19.149 -0.0183  0.0470  0.2388
19276W        W62189  20.502   2.791   4.131 -0.3795  0.2258 -0.0474
19277W        W62190  21.150  32.920   1.418  0.1539 -0.1172  0.1343
19278W        W62191  26.768  14.095   1.828 -0.0825  0.1516 -0.0315
19279W        W62192  13.399   3.099  24.096 -0.1715 -0.0004 -0.2406
19280W        W62193  27.782   9.320  18.583 -0.3929 -0.2213  0.1801
19281W        W62194  23.534  16.042  27.589  0.1319 -0.0266  0.1934
19282W        W62195  20.156   3.054  25.433 -0.1688  0.1471 -0.0687
19283W        W62196  27.898  23.022  26.464 -0.1286 -0.0951 -0.2826
19284W        W62197  28.079  32.596  29.175  0.0155 -0.4204  0.2201
19285W        W62198  29.438  13.788  27.051 -0.0015 -0.0266  0.1389
19286W        W62199  24.998  31.413  29.224 -0.1680  0.0377 -0.1707
19287W        W62200  22.827   7.066   1.358  0.0580  0.1815  0.1117
19288W        W62201   1.148   0.667  25.847  0.0070 -0.0221  0.0477
19289W        W62202  19.052  21.211  24.357  0.0705 -0.4096 -0.2978
19290W        W62203  30.517  15.075   1.647  0.0892 -0.0758  0.2894
19291W        W62204  30.050  11.399   5.585  0.1645  0.1406  0.1267
19292W        W62205  27.117  33.891  28.991  0.2305  0.0942 -0.0959
19293W        W62206  29.765  12.705  20.512 -0.0343  0.0400 -0.0077
19294W        W62207  28.974  10.829   2.851 -0.0769  0.0275  0.0224
19295W        W62208  16.834  11.800  24.644  0.2418 -0.0190  0.0438
19296W        W62209  24.457  17.706  19.675 -0.0135 -0.0142 -0.3055
19297W        W62210  28.878   7.331   8.622 -0.1190 -0.0722  0.0018
19298W        W62211  21.728   2.358   9.590 -0.0143  0.2151 -0.1462
19299W        W62212  17.864   5.803   5.741 -0.0965  0.0811 -0.2206
19300W        W62213  11.631   6.219  18.884  0.4000  0.1321  0.3528
19301W        W62214  32.725  17.049   9.202 -0.2150  0.0936  0.1260
19302W        W62215  29.075  11.697  23.523  0.2103 -0.0650  0.2644
19303W        W62216  23.864   4.221  26.702  0.2878  0.1342 -0.0873
19304W        W62217  26.271   9.055   6.707  0.2341 -0.1645 -0.1854
19305W        W62218  21.107   5.506   8.116 -0.1076  0.1368 -0.1612
19306W        W62219  27.617  14.291  15.572 -0.2820  0.2298 -0.1301
19307W        W62220  16.238  20.641  27.296  0.0812  0.1768  0.0297
19308W        W62221  24.977  10.528   3.299  0.0825 -0.1783 -0.0095
19309W        W62222   3.223  24.094   2.184  0.0651 -0.3430 -0.0497
19310W        W62223  33.908  10.792  27.018  0.2133  0.2888 -0.2379
19311W        W62224  27.049  12.684  23.491  0.2582  0.1185  0.2238
19312W        W62225  16.026  16.694  28.196  0.1936  0.0506 -0.3277
19313W        W62226  21.562  19.833  22.907 -0.2380 -0.1951  0.1457
19314W        W62227  30.916  15.250  29.420  0.2021  0.3129  0.1146
19315W        W62228  19.391   5.519   3.680  0.1930  0.2150 -0.2835
19316W        W62229  27.888   8.382  17.945 -0.3168  0.1351 -0.0735
19317W        W62230  23.443  17.847  28.304 -0.0354 -0.0913 -0.0351
19318W        W62231  30.119   5.285  28.338  0.0056 -0.0001 -0.4922
19319W        W62232  28.219   5.999   7.920 -0.3430  0.3573  0.0326
19320W        W62233  23.921  13.560  25.948 -0.0127 -0.1093  0.1886
19321W        W62234  19.492   4.472  19.436  0.1358 -0.0059  0.0257
19322W        W62235   0.491  22.528   5.430 -0.1520 -0.0661 -0.1443
19323W        W62236  27.329   9.784  23.323 -0.0670 -0.5192  0.0227
19324W        W62237  29.026  34.410   5.046 -0.0828  0.0414  0.1533
19325W        W62238  25.287  11.714   0.220 -0.1721 -0.0758  0.2704
19326W        W62239  21.320  14.969   6.573 -0.2314 -0.0747 -0.1413
19327W        W62240  16.970  11.344  27.330 -0.1660  0.1405  0.1972
19328W        W62241  34.016  18.821   3.392 -0.3199 -0.1310 -0.3221
19329W        W62242  20.521  10.147   2.293  0.4099 -0.1043 -0.1368
19330W        W62243  23.846   8.761  27.846  0.2759 -0.1524  0.1679
19331W        W62244  15.500   6.462   1.344 -0.3292  0.0119 -0.1710
19332W        W62245   0.119   7.010  21.042 -0.0794  0.1018  0.0201
19333W        W62246  18.936   0.328   4.212  0.0539  0.0213 -0.0110
19334W        W62247  20.290   8.074   7.534 -0.2279 -0.1300  0.0755
19335W        W62248  32.637  17.913   4.245 -0.0780 -0.3240 -0.1823
19336W        W62249   0.299   2.154   3.743  0.0461  0.1509  0.0319
19337W        W62250   6.791  16.204  27.226  0.2054  0.1008 -0.1678
19338W        W62251  26.205  21.945  26.582  0.0993  0.1555 -0.1189
19339W        W62252  11.856   0.369  23.517 -0.2487  0.2457  0.0488
19340W        W62253  21.372   8.077  28.391 -0.1684  0.3222  0.0597
19341W        W62254  19.372  13.293  23.328  0.0830  0.5398  0.0393
19342W        W62255  19.756  15.068  26.556  0.1210  0.3230 -0.4410
19343W        W62256  24.821  12.568   3.248 -0.2296  0.1438 -0.1042
19344W        W62257  29.492   3.018   7.263 -0.0836  0.2235  0.2363
19345W        W62258  19.512   3.405  20.856  0.0836  0.0047 -0.0267
19346W        W62259  17.494  33.341  24.830  0.1517  0.0118  0.0482
19347W        W62260  18.972   3.303  24.682  0.1278 -0.1598  0.2784
19348W        W62261  21.945   6.514   9.523 -0.0570 -0.1782  0.1558
19349W        W62262  15.552   7.687  23.192 -0.1934  0.0155  0.1307
19350W        W62263  30.115  23.146  28.968  0.2617  0.1015 -0.1941
19351W        W62264  24.174   8.003  27.820 -0.1876 -0.0306  0.2028
19352W        W62265  18.717  24.735  16.440  0.1985 -0.5620 -0.1058
19353W        W62266  16.182  33.211  17.817  0.0084  0.1538  0.2575
19354W        W62267  16.329   8.802  22.149 -0.1139  0.0956 -0.2271
19355W        W62268  24.334  11.719  21.124  0.0544  0.1563  0.0306
19356W        W62269  25.274  17.120  16.593 -0.0860 -0.3962  0.1839
19357W        W62270  22.510  18.071  22.850  0.2219  0.0095 -0.0452
19358W        W62271  27.112  13.733  14.559  0.1047  0.0333  0.2795
19359W        W62272  18.443  26.080  18.962 -0.2138  0.3393  0.0218
19360W        W62273   0.065  17.947  16.455 -0.1045  0.1631  0.0259
19361W        W62274  23.149  20.253  15.048  0.0030  0.2411  0.2715
19362W        W62275   0.797  12.936  21.195 -0.0601  0.4467  0.1655
19363W        W62276  17.015  25.539  14.531  0.0858 -0.0443 -0.0381
19364W        W62277  31.622  15.511  13.699  0.2707 -0.1357  0.2234
19365W        W62278  27.275  21.540  15.931 -0.0966  0.0644  0.1311
19366W        W62279  24.980   6.621  21.837 -0.0699  0.0928  0.0288
19367W        W62280  32.942  16.025  23.232 -0.3260  0.0313  0.0897
19368W        W62281  25.874  16.185  14.400 -0.1348  0.0275  0.1160
19369W        W62282   3.051  20.139  21.943 -0.1083  0.0513 -0.0886
19370W        W62283  33.586  11.402  17.779 -0.4510 -0.0629 -0.2662
19371W        W62284  19.150  14.375  14.719  0.2080  0.1285  0.0254
19372W        W62285  17.949  10.643  13.608  0.0624 -0.0013  0.0582
19373W        W62286  19.757  11.952  17.199  0.1512  0.0010  0.0524
19374W        W62287  23.335  17.689  17.743  0.2352 -0.3332  0.2186
19375W        W62288  21.307   6.331  18.383  0.1112  0.0137 -0.0875
19376W        W62289  28.469  14.111  19.921  0.1792  0.0285  0.0473
19377W        W62290   5.272  11.825  16.327 -0.1581 -0.0559 -0.0791
19378W        W62291  26.446  17.688  27.036 -0.4050 -0.0855  0.0144
19379W        W62292  28.629  24.168  21.267  0.3414  0.3326 -0.1988
19380W        W62293  22.753  21.949  12.411 -0.3344 -0.1889 -0.1524
19381W        W62294  28.410  23.561  28.888 -0.0559 -0.3200 -0.0293
19382W        W62295  25.295  19.238  19.125  0.0153 -0.3019  0.0082
19383W        W62296  24.204  19.515  14.149  0.1057  0.0329 -0.2775
19384W        W62297  23.449   4.854  18.170 -0.4773 -0.0055 -0.0479
19385W        W62298  34.036   9.911  16.949  0.0149  0.1981  0.0986
19386W        W62299  25.075  11.979  15.984  0.0818  0.3889  0.1663
19387W        W62300  17.161   4.342  16.570 -0.2923  0.0120  0.0088
19388W        W62301  18.492  12.969  16.605 -0.2172  0.2972 -0.0339
19389W        W62302  24.605  15.009  22.453  0.0273 -0.4293  0.3891
19390W        W62303   2.081  14.636  15.758  0.1052 -0.0691 -0.1006
19391W        W62304  29.066  14.623  22.367  0.1414  0.0658 -0.2400
19392W        W62305  20.877   9.995  17.483 -0.1162 -0.1893  0.2061
19393W        W62306  27.823  16.635  20.667  0.2169  0.0759 -0.0684
19394W        W62307  26.052   6.039  26.392  0.0362 -0.0543 -0.2579
19395W        W62308  19.836  20.228  23.517 -0.2887  0.0472  0.0706
19396W        W62309  22.771  20.127  12.914  0.0492  0.0117 -0.3291
19397W        W62310  32.922   4.416  21.994 -0.0630  0.0959 -0.1462
19398W        W62311  29.266  20.026  14.157  0.0234  0.0242  0.0733
19399W        W62312  30.717   9.158  19.974  0.3496  0.1049  0.4298
19400W        W62313  25.953   2.179  14.836  0.5694 -0.0436 -0.0773
19401W        W62314  26.825  13.453  23.391  0.4042 -0.3188 -0.0498
19402W        W62315  27.413   0.174  28.529 -0.2086 -0.4678  0.1540
19403W        W62316  20.287  22.297  18.992 -0.4837  0.0760  0.0705
19404W        W62317  18.701   6.637  20.881  0.0534 -0.1884 -0.2016
19405W        W62318   2.113  13.309  17.347 -0.0783 -0.1122  0.1066
19406W        W62319  25.079  14.130  18.908 -0.1845 -0.4391  0.1533
19407W        W62320  25.421  19.400  14.797  0.0431 -0.1788  0.2365
19408W        W62321  25.675   9.820  14.661 -0.2565  0.2905  0.0840
19409W        W62322  18.677  10.314  13.270  0.0673  0.0409 -0.0412
19410W        W62323  18.376  14.496  14.697  0.0244 -0.2123 -0.3565
19411W        W62324  23.874  17.894  18.247 -0.2677  0.1739  0.3133
19412W        W62325  16.166  12.942  20.698  0.2115 -0.1658 -0.0445
19413W        W62326  23.234  11.823  20.714  0.2450  0.0518  0.0538
19414W        W62327  27.143  27.126  13.858  0.0879  0.0531  0.2351
19415W        W62328  24.833  15.556  17.866  0.0479  0.2761 -0.2721
19416W        W62329   4.325  16.550  17.127 -0.0504 -0.0876 -0.0587
19417W        W62330  27.520  10.649  17.005 -0.1573  0.2977 -0.1958
19418W        W62331  29.387  14.939  13.796  0.0694  0.1051 -0.0213
19419W        W62332  19.526  25.012  12.899  0.1778  0.2395 -0.0606
19420W        W62333  23.059   5.926  18.902 -0.1359  0.2572 -0.2687
19421W        W62334  27.957  14.060  14.451  0.0788  0.0954 -0.0125
19422W        W62335  29.212  22.115  18.287 -0.1597  0.0167 -0.1303
19423W        W62336  31.377  19.146  25.926  0.3878  0.1456 -0.0347
19424W        W62337  23.424   3.409  27.223  0.2819  0.0756  0.1961
19425W        W62338  18.260  21.603  18.383 -0.2664  0.4990  0.0669
19426W        W62339  20.558  18.628  13.212 -0.1773 -0.1144 -0.0204
19427W        W62340  33.213  11.384  18.962  0.2583  0.0527 -0.0893
19428W        W62341  27.137  17.397  13.986 -0.0418 -0.0537  0.0995
19429W        W62342  20.960   0.365  17.649 -0.1080 -0.0588  0.0641
19430W        W62343  27.738   5.805  15.298  0.0944 -0.4676 -0.0255
19431W        W62344  26.759  16.384  14.727 -0.0634  0.0868  0.1430
19432W        W62345  16.853  18.122  12.503 -0.1089  0.2548  0.0921
19433W        W62346  22.823  12.303  17.647 -0.0617 -0.0421 -0.0381
19434W        W62347  30.703   9.788  16.803 -0.2592  0.2019 -0.1653
19435W        W62348  24.003  14.202  18.679 -0.1257 -0.0513 -0.2641
19436W        W62349  24.992  20.305  19.080 -0.1420  0.0037 -0.1733
19437W        W62350  25.322  12.490  23.131 -0.0452  0.1831 -0.1242
19438W        W62351  27.670  23.755  20.047  0.0401  0.2211 -0.0699
19439W        W62352  22.692  21.865  14.356  0.0845  0.1879 -0.1148
19440W        W62353  28.899  15.177  29.459 -0.2346 -0.1961 -0.4489
19441W        W62354  26.914  12.121  20.549 -0.0795 -0.0403  0.2049
19442W        W62355  19.327  21.298  21.702 -0.1451  0.4262  0.1718
19443W        W62356  20.838  17.683  12.846 -0.2805 -0.1762  0.0459
19444W        W62357  27.263  15.107  20.848 -0.4293 -0.0892  0.2359
19445W        W62358  20.565  16.126  11.386  0.0475  0.1067  0.1918
19446W        W62359  31.293  10.790  24.609  0.0957  0.1255  0.1193
19447W        W62360  31.781  20.204  14.019  0.1429 -0.0066 -0.1800
19448W        W62361  27.264  13.305  18.049  0.0240  0.1150 -0.0632
19449W        W62362  24.010  15.710  16.112 -0.0807  0.0383  0.0464
19450W        W62363  27.860   7.569  15.639 -0.0913 -0.0858 -0.2226
19451W        W62364  31.111  18.568  24.279 -0.2078 -0.0500 -0.0440
19452W        W62365  28.402  10.926  15.078 -0.0879  0.2184 -0.1612
19453W        W62366  22.098  12.755  12.393 -0.1895 -0.0725 -0.2877
19454W        W62367   1.050   8.728  19.642  0.2160  0.0877  0.1381
19455W        W62368  31.561  20.190  14.495 -0.2006  0.0821  0.0237
19456W        W62369  34.474  12.083  25.113  0.2960 -0.3587 -0.5908
19457W        W62370  22.376  23.871  22.967  0.0790 -0.0615  0.0520
19458W        W62371  27.874  14.092  15.206  0.1661  0.0152 -0.1030
19459W        W62372  21.749  15.499  15.041  0.0244  0.0675  0.0265
19460W        W62373  31.970  17.056  14.700 -0.0319 -0.3971  0.0301
19461W        W62374  30.187  14.480  17.077  0.1466 -0.0165  0.1449
19462W        W62375  30.954  21.430  14.991  0.0250  0.2198 -0.1929
19463W        W62376  28.467  17.538  22.885  0.0255 -0.3420 -0.2367
19464W        W62377  29.671  23.643  19.119  0.0026 -0.4436  0.0459
19465W        W62378  25.973  30.221  20.118  0.0263  0.4402 -0.0525
19466W        W62379  29.541  16.338  15.195  0.2079 -0.0900  0.0438
19467W        W62380  14.943  19.367  15.598  0.0984 -0.1997 -0.2660
19468W        W62381  21.498   3.151  17.706 -0.0159 -0.0728 -0.3283
19469W        W62382  21.821  17.653  12.346 -0.0184  0.0141 -0.2971
19470W        W62383  18.208   8.587  16.356 -0.0190  0.0267 -0.0882
19471W        W62384  27.863  13.141  22.336 -0.3159 -0.0776 -0.1948
19472W        W62385  26.886  17.484  15.251  0.1882  0.1531  0.1130
19473W        W62386  26.631  16.969  17.572 -0.0544 -0.2012 -0.1952
19474W        W62387  13.858   8.955  14.534 -0.0645  0.0556  0.1173
19475W        W62388  27.830   5.953  17.419 -0.0513 -0.3166 -0.2979
19476W        W62389  16.358  12.049  27.788 -0.1464 -0.2488 -0.0045
19477W        W62390  21.147  13.526  21.096  0.2578  0.1072  0.0598
19478W        W62391  18.726  18.781  11.834  0.1042 -0.0586 -0.0160
19479W        W62392  20.838  11.244  17.748  0.4049  0.1688 -0.0477
19480W        W62393  16.737   6.912  17.144 -0.1432  0.0213 -0.0716
19481W        W62394  18.282  29.195  25.302 -0.1557 -0.0210  0.1619
19482W        W62395  26.188  10.332  16.850  0.1184  0.3391  0.1120
19483W        W62396  29.215   8.973  16.026 -0.0829 -0.0799 -0.0150
19484W        W62397  28.603  26.447  15.486 -0.1279 -0.3913  0.0341
19485W        W62398  27.364  19.194  14.034 -0.0069  0.0649 -0.0975
19486W        W62399  19.730   3.433  18.092  0.1030 -0.1058  0.0181
19487W        W62400  25.028  14.517  24.908 -0.1067  0.3325  0.1423
19488W        W62401  32.647   9.659  15.933 -0.2962  0.0438  0.4165
19489W        W62402  26.277  11.984  13.907  0.2332 -0.1647  0.1469
19490W        W62403  24.873  22.731  12.694  0.0761  0.0882 -0.2693
19491W        W62404  28.216   7.796  15.185  0.0770 -0.0255 -0.1639
19492W        W62405  32.702  19.883  23.372 -0.4986  0.2048 -0.2258
19493W        W62406  26.664  13.518  28.470  0.0750  0.0926  0.0062
19494W        W62407  16.675   8.689  14.626  0.0164  0.3129  0.0797
19495W        W62408  32.279  27.658  15.581 -0.0063 -0.2442  0.2090
19496W        W62409  20.807  14.240  18.716  0.1541  0.0455 -0.2290
19497W        W62410  33.240  17.897  15.784  0.0659  0.1282 -0.1574
19498W        W62411  23.006   5.722  21.817 -0.0411  0.0982  0.0984
19499W        W62412  28.577  19.962  14.574  0.1224  0.0155 -0.3984
19500W        W62413  31.249  13.025  13.602  0.1014  0.1292 -0.0763
19501W        W62414  29.999  17.069  24.837 -0.1164  0.1205 -0.3602
19502W        W62415  26.121  17.669  13.783 -0.0850 -0.1103 -0.1145
19503W        W62416  27.942   3.838  24.927 -0.0669  0.0787 -0.0571
19504W        W62417  21.864  11.698  15.786 -0.1256  0.0390  0.0697
19505W        W62418  32.753  26.244  17.540  0.0155 -0.0016  0.1167
19506W        W62419  28.219   7.487  18.813 -0.1841  0.2381 -0.3045
19507W        W62420  24.114   6.636  17.488  0.2491 -0.2252 -0.1050
19508W        W62421  28.664   9.470  16.412 -0.0339 -0.0681  0.0154
19509W        W62422  29.916  16.419  14.416  0.0117 -0.0957  0.2914
19510W        W62423  22.497  17.169  12.946 -0.0992  0.0812 -0.0489
19511W        W62424  29.873  10.703  15.910  0.1921  0.1930 -0.1145
19512W        W62425  32.604  20.471  17.876 -0.0625  0.3057  0.1604
19513W        W62426  26.702  11.187  15.048  0.2252  0.0536 -0.0688
19514W        W62427  29.545  10.061  21.302 -0.2822  0.3402 -0.0647
19515W        W62428  34.217  25.207  20.445  0.0092 -0.1970  0.1675
19516W        W62429  29.463  25.347  16.229 -0.0920 -0.1909 -0.0440
19517W        W62430  32.123  15.574  17.470 -0.0370  0.0202 -0.1167
19518W        W62431  19.982   9.296  15.262 -0.1653  0.0298 -0.1368
19519W        W62432  26.262   5.715  13.685  0.2155 -0.0479 -0.0287
19520W        W62433  28.046  11.714  14.620  0.6939 -0.1589 -0.1624
19521W        W62434  28.782   5.079  18.912  0.3249  0.0038 -0.0499
19522W        W62435  23.047  19.719  24.819  0.1628 -0.1530  0.1140
19523W        W62436  18.859   6.348  17.493  0.0811  0.0381 -0.6228
19524W        W62437  25.584   2.756  17.678  0.1170 -0.3422  0.2977
19525W        W62438  26.154  16.906  23.345 -0.0244  0.0068 -0.4620
19526W        W62439  26.983  21.903  17.229 -0.1482  0.1634 -0.0226
19527W        W62440  30.959   7.463  19.113  0.0311 -0.2903  0.0864
19528W        W62441  34.176  18.866  14.072 -0.2258 -0.0464  0.2757
19529W        W62442  28.090   3.014  22.067  0.1322 -0.2502  0.1172
19530W        W62443  27.941   8.470  16.033 -0.1278 -0.1565  0.0638
19531W        W62444  32.830  18.765  17.809  0.0222  0.2063 -0.1828
19532W        W62445  28.186  19.253  15.803 -0.0322 -0.2078 -0.1956
19533W        W62446   0.979   9.623  15.861  0.0161  0.0314 -0.1416
19534W        W62447  28.155  20.680  18.267  0.2769 -0.3970 -0.0397
19535W        W62448  10.161  13.426  19.723  0.0019  0.1458 -0.1485
19536W        W62449  20.190  18.485  12.182 -0.2403 -0.1636 -0.1378
19537W        W62450  21.314   6.749  19.451 -0.0189 -0.2025 -0.2337
19538W        W62451   6.135  16.936  14.849  0.0375 -0.0740 -0.2214
19539W        W62452  22.733  11.149  15.095 -0.1690 -0.2751 -0.2278
19540W        W62453  33.539  14.442  16.132  0.0289 -0.3976 -0.0894
19541W        W62454  30.213  16.379  15.244 -0.3454  0.2396  0.0163
19542W        W62455  29.663   8.644  15.590 -0.5022 -0.1904  0.0449
19543W        W62456  24.245  13.924  20.560 -0.1174  0.0088  0.3964
19544W        W62457   3.326  19.072  23.848 -0.0331  0.0099 -0.2614
19545W        W62458  27.462   7.815  18.259  0.0393  0.0594 -0.0219
19546W        W62459  31.241  16.569  15.338 -0.0218  0.0067  0.0509
19547W        W62460  19.810  22.547  12.441 -0.2099  0.1565 -0.2398
19548W        W62461  28.332  10.614  20.839  0.0256  0.1494  0.4101
19549W        W62462  18.797  13.830  14.019  0.1051  0.1893  0.1055
19550W        W62463  24.789  16.940  13.624 -0.0880 -0.0153  0.1636
19551W        W62464  31.363  13.489  20.461  0.1787  0.1835  0.3048
19552W        W62465  23.352   7.996  20.543 -0.1511 -0.1367 -0.0561
19553W        W62466  13.750  10.792  14.400 -0.0373  0.0926 -0.0465
19554W        W62467  29.117  23.109  14.578 -0.1044  0.0294  0.0341
19555W        W62468  20.651  23.460  18.447  0.2203  0.4446  0.1206
19556W        W62469  27.149  21.232  14.557 -0.2717 -0.3811 -0.1331
19557W        W62470  27.915  16.803  16.082  0.1441  0.3142 -0.0077
19558W        W62471   6.927   8.516  22.122  0.1604 -0.1407  0.0301
19559W        W62472  15.197  14.826  16.220 -0.1781 -0.1930  0.0320
19560W        W62473  18.487  20.800  17.689  0.0006  0.1369 -0.1034
19561W        W62474  23.812   4.461  24.182 -0.0336  0.1339  0.2260
19562W        W62475  25.017  12.266  27.056  0.3340  0.2032 -0.0577
19563W        W62476  25.090  13.855  19.445 -0.2556 -0.3559 -0.0339
19564W        W62477  28.182  18.558  15.180 -0.0588 -0.2516 -0.2273
19565W        W62478  22.366  10.325  13.530 -0.0346 -0.2825 -0.0516
19566W        W62479  27.436   8.283  18.084  0.2469 -0.0166  0.1226
19567W        W62480  25.652  13.040  23.860 -0.0151 -0.1281 -0.2183
19568W        W62481  25.566   9.001  16.598  0.1704  0.0700 -0.0246
19569W        W62482  30.835  11.170  19.477  0.0482  0.1328  0.3711
19570W        W62483  25.388   5.859  24.371  0.1229  0.2597  0.0932
19571W        W62484  28.920  10.561  20.022  0.1433 -0.1269  0.5149
19572W        W62485  25.415  11.834  14.979  0.1182 -0.0721  0.0090
19573W        W62486  21.882   7.148  15.699 -0.1401  0.3203 -0.3425
19574W        W62487  30.035  25.544  17.548  0.2213 -0.0573  0.0951
19575W        W62488  18.438  11.046  14.150  0.1557 -0.2844  0.1786
19576W        W62489  28.174  17.650  20.504  0.0965 -0.1359 -0.2726
19577W        W62490  16.955  11.824  20.528 -0.0828 -0.2102 -0.2043
19578W        W62491  30.767  17.735  24.016 -0.1417 -0.0630 -0.0684
19579W        W62492  27.837   8.995  22.119 -0.0980 -0.1296 -0.4322
19580W        W62493  31.100  11.404  16.911  0.1874 -0.1029  0.3252
19581W        W62494  27.076  19.943  19.247 -0.0250 -0.2407  0.4214
19582W        W62495  30.714  14.893  14.786 -0.0412  0.0724  0.3094
19583W        W62496  21.734  13.861  13.377 -0.2474 -0.0266  0.1042
19584W        W62497  21.435  20.163  12.673 -0.0301 -0.3558 -0.0270
19585W        W62498   8.128  14.671  27.570 -0.2645  0.0485 -0.0073
19586W        W62499  17.578  11.610  17.636  0.0926  0.1123 -0.0228
19587W        W62500  33.374  14.019  16.389  0.1653 -0.0745 -0.2746
19588W        W62501  30.423  10.257  17.130 -0.0864 -0.2009 -0.1318
19589W        W62502   3.630  17.403  17.793 -0.2672  0.1429  0.0030
19590W        W62503  27.773  19.609  17.749  0.0600  0.1179 -0.0691
19591W        W62504  26.203   6.124  18.323  0.1648 -0.0173 -0.2149
19592W        W62505  26.979   9.619  15.640 -0.0368 -0.2252 -0.1803
19593W        W62506   2.182  17.635  27.721  0.1379  0.0623 -0.0227
19594W        W62507  28.169  16.155  26.600 -0.3078  0.1935 -0.1293
19595W        W62508  28.129  18.227  23.278  0.0922 -0.0744  0.1081
19596W        W62509  26.901   3.115  19.017 -0.0336 -0.2660 -0.0751
19597W        W62510  26.967  13.930  20.217 -0.1532 -0.1438 -0.0239
19598W        W62511  26.040   6.953  13.420 -0.1142 -0.0267 -0.1525
19599W        W62512  23.462  19.336  19.190  0.3552 -0.1341  0.0704
19600W        W62513  22.896  16.051  13.342 -0.0813 -0.0652 -0.1468
19601W        W62514  13.425  16.221  18.833 -0.1576  0.1341 -0.0326
19602W        W62515  28.577  15.009  15.196  0.2473  0.1069  0.0708
19603W        W62516  12.296  17.629  14.913 -0.1856  0.0386 -0.0604
19604W        W62517  28.429  25.039  21.049  0.2879  0.3074 -0.2273
19605W        W62518  30.377  22.254  17.337 -0.4024 -0.0507  0.1866
19606W        W62519  23.875  14.694  18.748  0.1286  0.0696  0.1387
19607W        W62520   0.443  15.445  16.216 -0.0552  0.0987 -0.0410
19608W        W62521  17.843  14.267  13.356 -0.0852  0.0928  0.1016
19609W        W62522  25.618  20.869  18.347 -0.3047  0.5977 -0.2096
19610W        W62523  31.262  25.998  19.324  0.0087  0.0629  0.0429
19611W        W62524  28.447  25.095  18.819  0.0469  0.0672  0.2852
19612W        W62525  29.553  15.565  16.305  0.1432 -0.0393  0.0781
19613W        W62526  26.613  15.886  14.722 -0.0431 -0.1471  0.2680
19614W        W62527  28.150  16.795  13.436 -0.2938 -0.4171  0.0230
19615W        W62528  20.532   8.005  21.446 -0.0980 -0.1175  0.0569
19616W        W62529  29.121  27.414  17.354 -0.0608 -0.1354 -0.0341
19617W        W62530  32.082   7.428  16.795  0.1315  0.0305 -0.2467
19618W        W62531  25.830  16.236  13.060  0.1468  0.0519  0.0843
19619W        W62532  34.123  18.369  14.357  0.3333 -0.0850  0.1168
19620W        W62533  21.037  24.004  13.729  0.1149 -0.2204  0.2598
19621W        W62534  22.717  23.171  23.413  0.0551  0.0207  0.1445
19622W        W62535  25.853  14.117  14.129  0.4707 -0.1243  0.3372
19623W        W62536  24.999  10.485  20.183 -0.3212 -0.0199  0.0609
19624W        W62537  24.281  22.361  19.333 -0.4008 -0.0497  0.2359
19625W        W62538  31.567   5.265  19.945 -0.1905 -0.2322 -0.1449
19626W        W62539  29.826   4.717  20.333 -0.1319  0.2302  0.2376
19627W        W62540  27.573  20.992  14.736  0.2576 -0.2101 -0.0234
19628W        W62541  22.743   0.687  15.971  0.0552 -0.0853  0.3966
19629W        W62542  17.288  19.062  13.315 -0.1581  0.1061 -0.0832
19630W        W62543  23.878  20.401  15.586 -0.0931  0.3273  0.0060
19631W        W62544  28.393  13.691  18.415 -0.3800 -0.2385  0.0628
19632W        W62545  22.981  22.517  15.448  0.0945  0.1357  0.2409
19633W        W62546  29.189  12.914  21.915 -0.1986  0.5103  0.0605
19634W        W62547  21.696  25.991  16.279  0.1835 -0.3729  0.0501
19635W        W62548  22.170   2.474  17.703  0.0274  0.0639 -0.2149
19636W        W62549  26.572  12.760  16.889 -0.2294  0.0973  0.3056
19637W        W62550  33.521  18.626  16.562  0.1079  0.1723 -0.1441
19638W        W62551   0.449  11.705  15.743  0.0238 -0.0002 -0.1942
19639W        W62552  19.634   8.135  20.650 -0.3007  0.0617  0.0453
19640W        W62553   9.160  10.837  19.182 -0.4430  0.0795 -0.0123
19641W        W62554  34.158   8.893  20.661 -0.1471  0.0262  0.0280
19642W        W62555  17.773   9.172  17.146  0.1833  0.2651 -0.0025
19643W        W62556  31.117  12.774  14.615 -0.0787  0.3300 -0.2384
19644W        W62557  20.716  16.620  12.338 -0.2072 -0.0270 -0.1914
19645W        W62558  28.414   9.180  17.140 -0.1950  0.1866 -0.2306
19646W        W62559  26.667  14.404  18.035 -0.0567 -0.2175  0.2305
19647W        W62560  27.612  16.918  23.946 -0.2657 -0.3003 -0.0950
19648W        W62561  14.011  12.713  15.460  0.2631 -0.1028 -0.2211
19649W        W62562  27.745  18.205  19.577  0.0381  0.0479  0.1036
19650W        W62563  17.903   8.710  21.600 -0.2256 -0.1762  0.0312
19651W        W62564  30.096  17.327  18.994 -0.1911 -0.2978  0.2109
19652W        W62565  26.114  15.579  26.710 -0.1191  0.0086  0.0257
19653W        W62566  27.853   4.118  15.840 -0.2180 -0.1210  0.0687
19654W        W62567  17.465  20.163  13.527  0.0559 -0.1964 -0.0997
19655W        W62568  29.201  21.525  28.763 -0.0678 -0.0612  0.0877
19656W        W62569  28.665  17.020  13.672 -0.1926  0.0049  0.0180
19657W        W62570  21.550   9.656  17.929 -0.2421  0.3589 -0.3826
19658W        W62571  24.010  19.149  14.465 -0.4042 -0.0707  0.4123
19659W        W62572  26.090   9.574  17.785 -0.1652  0.4955 -0.1033
19660W        W62573  31.631  16.464  18.957 -0.0700 -0.0003 -0.0197
19661W        W62574  26.568  22.524  14.272 -0.0838  0.6301  0.0661
19662W        W62575  17.855   9.107  16.483  0.0666 -0.0898  0.0490
19663W        W62576  20.160  29.295  21.791 -0.1312 -0.2794 -0.1905
19664W        W62577  28.696   7.350  17.823 -0.0450  0.2332  0.1332
19665W        W62578  33.942   5.538  17.195 -0.0882  0.2575 -0.1688
19666W        W62579  20.029  20.160  11.651  0.0114  0.0415  0.0549
19667W        W62580  27.593  10.154  19.739  0.1004 -0.1022  0.1549
19668W        W62581  31.206  16.477  20.903 -0.0014 -0.5476 -0.3435
19669W        W62582   1.018  14.316  14.965 -0.2184 -0.1907 -0.0957
19670W        W62583  34.472  20.009  19.697 -0.1937 -0.1437 -0.2176
19671W        W62584  31.357  16.075  22.300  0.1319  0.4146  0.1338
19672W        W62585  28.181  23.741  14.366  0.1550  0.0119  0.0632
19673W        W62586  27.965  13.362  15.844  0.1024  0.1200  0.0027
19674W        W62587  29.911  19.238  12.954  0.1023 -0.0999 -0.2115
19675W        W62588  27.029  20.113  22.072  0.1086 -0.0938 -0.1740
19676W        W62589  25.082   2.856  26.697 -0.0393 -0.2144  0.1972
19677W        W62590   1.040  21.027  16.988  0.0492 -0.0080  0.0581
19678W        W62591  19.986  17.713  13.398  0.1879  0.2549 -0.1096
19679W        W62592  19.481   9.706  24.478 -0.2673 -0.4172  0.1600
19680W        W62593  15.452  13.300  13.024 -0.1085 -0.1862  0.0157
19681W        W62594  28.288  11.943  19.808 -0.1792 -0.2637 -0.0901
19682W        W62595  20.439  23.408  13.877  0.0442  0.1463 -0.3018
19683W        W62596   1.363  17.770  14.901 -0.1877 -0.0844  0.0820
19684W        W62597  33.153   6.042  17.160  0.2697 -0.5027  0.3452
19685W        W62598  23.029   8.514  15.598  0.2387  0.2899  0.1022
19686W        W62599  30.351  22.695  13.851  0.0468  0.1546  0.2680
19687W        W62600  25.344  16.140  14.383 -0.4131 -0.3367  0.0896
19688W        W62601  31.523  18.850  16.255 -0.1852 -0.4856 -0.3602
19689W        W62602  30.653  13.434  14.152 -0.2982 -0.0173  0.0060
19690W        W62603  26.788  21.377  15.782  0.1978  0.1533  0.0689
19691W        W62604  18.322   8.572  21.271  0.1694  0.1240  0.4337
19692W        W62605  28.547   7.543  23.218 -0.0449  0.1284 -0.1460
19693W        W62606   9.260  21.935  16.402 -0.0774 -0.0612  0.0241
19694W        W62607  21.476  25.747  17.246  0.3195 -0.2437 -0.1304
19695W        W62608  26.882  18.711  18.961  0.0536 -0.1204 -0.1338
19696W        W62609  18.771  11.424  20.404  0.3345  0.1519 -0.2467
19697W        W62610  20.198  27.303  20.601  0.0547 -0.0591  0.2814
19698W        W62611  26.499  24.971  14.213  0.1553  0.0166 -0.1699
19699W        W62612  16.239   9.145  17.876 -0.1058 -0.1332 -0.0165
19700W        W62613  12.847  12.981  14.325  0.0071  0.1039 -0.0051
19701W        W62614  28.384  16.279  23.082  0.0980  0.1682  0.0795
19702W        W62615  22.723  22.249  13.960  0.0946 -0.3813  0.6052
19703W        W62616  33.999  13.155  19.990  0.0528 -0.2355  0.2694
19704W        W62617  29.749  13.677  16.046 -0.1320 -0.0677 -0.1634
19705W        W62618  29.848  16.309  19.591  0.0854  0.2526  0.3569
19706W        W62619  26.393  20.875  17.665  0.1327 -0.0724  0.1963
19707W        W62620  19.053  13.028  15.461 -0.0387  0.0849  0.1544
19708W        W62621  27.714  19.664  18.233 -0.1683 -0.1866  0.2028
19709W        W62622  31.626  13.800  17.143  0.0110 -0.0182 -0.0688
19710W        W62623  20.061   1.646  22.568  0.1574 -0.1341  0.2780
19711W        W62624  30.596  15.784  22.677 -0.0704 -0.1063 -0.3446
19712W        W62625  21.819   9.347  21.954 -0.4232 -0.0253 -0.0664
19713W        W62626  20.924  12.397  22.484 -0.0791  0.1079  0.1108
19714W        W62627  27.526  14.767   5.019 -0.0326 -0.0938 -0.0325
19715W        W62628  16.605  12.620  17.770  0.1059  0.2671  0.2647
19716W        W62629  21.108   9.722  24.047 -0.1036  0.0777  0.1408
19717W        W62630  25.299  20.907  12.839 -0.1207 -0.0439  0.2041
19718W        W62631  29.634  18.699  17.424  0.1724  0.5455  0.0826
19719W        W62632  14.954  10.376  17.763 -0.1133 -0.1196  0.1643
19720W        W62633  26.160  15.220  14.390 -0.0970 -0.0714  0.1434
19721W        W62634  30.367  11.488  18.530 -0.3111  0.0640  0.1975
19722W        W62635  32.569  12.032  16.108  0.0472  0.0125  0.0867
19723W        W62636  32.492  15.182  15.822  0.1013 -0.1169 -0.1234
19724W        W62637  25.878  17.990  19.297  0.3003  0.0161  0.0714
19725W        W62638  31.480  12.443  14.796 -0.0469 -0.0864  0.0596
19726W        W62639  23.026  12.374  18.654 -0.0448 -0.1726 -0.0882
19727W        W62640  21.596  15.569  14.588  0.1433 -0.2017  0.0087
19728W        W62641  25.542  12.513  19.527  0.3392  0.2520 -0.1118
19729W        W62642  22.034  13.652  21.384 -0.1726 -0.1150 -0.1576
19730W        W62643  32.203  27.418  17.315 -0.0476  0.2131 -0.2048
19731W        W62644  29.301  26.234  23.185  0.2077  0.3067 -0.3141
19732W        W62645  25.252  12.596  15.758  0.2801 -0.3202 -0.0806
19733W        W62646  22.157   3.481  15.037  0.1468  0.0621 -0.2174
19734W        W62647  27.777  20.370  28.948 -0.0050 -0.2009  0.2178
19735W        W62648   3.051  11.632  19.067 -0.3661 -0.2418  0.0405
19736W        W62649  10.097  10.810  16.031 -0.0782 -0.1614  0.0424
19737W        W62650  23.524  11.642  17.490 -0.3223  0.1100  0.2012
19738W        W62651   6.172  11.027  18.894  0.1173  0.2773 -0.0129
19739W        W62652  22.246  25.420  13.946  0.0525 -0.2523  0.1691
19740W        W62653  31.166  15.767  24.891  0.3291 -0.0214  0.0548
19741W        W62654  30.340  22.787  22.014 -0.3477  0.1103  0.0449
19742W        W62655  23.645   9.372  20.335  0.0033 -0.0194  0.0742
19743W        W62656  23.092  20.817  21.455 -0.0723 -0.2626  0.1438
19744W        W62657  26.441   9.161  14.924  0.2677  0.1440  0.1813
19745W        W62658  20.079   9.000  20.835  0.6801 -0.2114  0.0381
19746W        W62659  22.174  14.986  12.350 -0.1549 -0.2372 -0.0401
19747W        W62660   3.412  18.588  24.635 -0.0109 -0.3859  0.0011
19748W        W62661  29.637  14.292  25.146  0.1708 -0.1873  0.2764
19749W        W62662  21.683  16.297  21.252  0.0029 -0.2273 -0.1466
19750W        W62663  26.106  12.544  17.817  0.1557  0.0753  0.1080
19751W        W62664  17.154   8.768  14.735  0.2314  0.0997 -0.1489
19752W        W62665   2.784  12.237  24.128 -0.0406  0.0113  0.1334
19753W        W62666  22.623  19.018  23.041  0.0673  0.1675  0.2222
19754W        W62667  26.681  13.234  18.940 -0.2366 -0.3550  0.3479
19755W        W62668  31.735  23.156   0.943 -0.1322 -0.1337 -0.1069
19756W        W62669  32.918   7.088  15.461  0.0655 -0.0656  0.0036
19757W        W62670  25.365  17.943  19.778 -0.0775  0.1129 -0.2324
19758W        W62671  12.580   9.721  24.971 -0.2410 -0.1020 -0.0538
19759W        W62672  23.103  27.456  21.401 -0.3925  0.0231 -0.1276
19760W        W62673  22.048  22.162  20.187  0.0594 -0.0535 -0.1121
19761W        W62674   0.106  15.002  17.506  0.0326  0.1827 -0.1876
19762W        W62675  26.601   7.195  20.228 -0.1302  0.2820  0.0284
19763W        W62676  28.760  10.810  16.591  0.1063 -0.3944 -0.0508
19764W        W62677  21.336   6.407  19.079 -0.1634 -0.0945 -0.4154
19765W        W62678  18.372   6.599  18.264 -0.0100 -0.2823  0.1077
19766W        W62679  22.801  11.236  25.046  0.1884  0.2846  0.0257
19767W        W62680   4.610  12.263  24.749  0.1509  0.0740 -0.0089
19768W        W62681  18.260  12.301  26.457 -0.0265  0.2156 -0.0224
19769W        W62682  31.001   2.749  25.145  0.1322 -0.0315 -0.0115
19770W        W62683  26.803   2.230  27.633  0.0039 -0.5114 -0.1298
19771W        W62684  31.642  16.317  17.590  0.2111 -0.1457 -0.1725
19772W        W62685   5.296  15.703  18.495  0.4103  0.2815 -0.0370
19773W        W62686  28.667  15.505  13.323  0.1825  0.3370 -0.0788
19774W        W62687  31.532  19.359  22.493 -0.2416  0.1253  0.2512
19775W        W62688  25.517  13.473  25.174  0.1278  0.0616  0.0864
19776W        W62689  30.655  14.657  27.869 -0.0729  0.1378  0.1497
19777W        W62690  27.227  10.414  19.495  0.0020 -0.3296 -0.0621
19778W        W62691  24.218  18.186  14.997  0.0670 -0.2843 -0.1786
19779W        W62692  23.086  13.093   0.456 -0.1750 -0.3141 -0.0353
19780W        W62693  17.608  10.484  13.273  0.0593 -0.0129 -0.1124
19781W        W62694  33.616  17.027  22.347  0.1822  0.2318 -0.0443
19782W        W62695  21.527   1.770  28.078  0.0132 -0.0503 -0.3863
19783W        W62696  33.578   3.243  22.564 -0.3672 -0.1934  0.2553
19784W        W62697  25.042  27.841   5.322 -0.1072  0.1860 -0.1383
19785W        W62698  30.007  13.082  19.636 -0.1341  0.0936 -0.0274
19786W        W62699   3.588  15.915  19.213  0.1525 -0.0173  0.0486
19787W        W62700  20.530   9.231  15.187 -0.0359 -0.1263 -0.3735
19788W        W62701  20.045  11.539  15.480  0.0031  0.4133  0.2883
19789W        W62702  31.751  17.286  15.748  0.0733  0.0013  0.2893
19790W        W62703  22.692  13.435  16.716 -0.0670 -0.1785 -0.0270
19791W        W62704  30.814  15.118  15.677  0.3269  0.2432  0.2689
19792W        W62705  17.964  13.707  13.485 -0.2513 -0.2361 -0.0289
19793W        W62706   3.265  10.502  18.596  0.3297 -0.0277 -0.4465
19794W        W62707  31.647  17.593  18.331 -0.0455  0.2017  0.2952
19795W        W62708  23.209  19.152  28.487 -0.0902 -0.1389  0.1968
19796W        W62709  31.216   3.146  23.801  0.1906  0.2002  0.0006
19797W        W62710  29.744  20.267  22.229 -0.0050  0.0122  0.1673
19798W        W62711  27.313  11.696  21.382  0.2121 -0.3223  0.0372
19799W        W62712  33.382   7.618  18.969  0.0317  0.0287  0.0216
19800W        W62713  15.665   5.651  15.907  0.1387  0.0410 -0.1771
19801W        W62714  26.550   6.818  14.560  0.0302 -0.5786  0.3562
19802W        W62715  28.888  11.670  24.208 -0.4198 -0.1373 -0.1107
19803W        W62716  19.474   4.777  20.136 -0.0019  0.2443 -0.0557
19804W        W62717  19.428  21.331  12.932 -0.1625 -0.0600 -0.0551
19805W        W62718  21.290  28.830  18.911  0.2168 -0.1704  0.0821
19806W        W62719  23.697   5.129  26.409 -0.3761  0.0163  0.3018
19807W        W62720  17.070   8.234  21.363  0.2751 -0.0172 -0.0559
19808W        W62721  30.558   9.798  21.542 -0.0607 -0.1809 -0.1765
19809W        W62722  31.193  14.255  19.156 -0.0008 -0.0991 -0.0779
19810W        W62723  22.794  14.993  22.185  0.1701  0.1011  0.2083
19811W        W62724  32.597  21.479  15.671  0.1872 -0.1729 -0.0006
19812W        W62725  27.105  10.418  15.285  0.0515  0.1218  0.1695
19813W        W62726   0.783  22.923  24.363  0.0085 -0.0091  0.0187
19814W        W62727  25.197  33.087  24.131 -0.0996  0.1753 -0.3034
19815W        W62728  32.486   7.784  27.265 -0.0716  0.2072 -0.5315
19816W        W62729  22.879  18.885  20.734  0.0562 -0.0718  0.1828
19817W        W62730  24.255  14.892  16.160 -0.1537  0.2123  0.1470
19818W        W62731  31.026  10.228  18.540 -0.1437  0.0934 -0.0271
19819W        W62732  29.328   3.304  27.196  0.0179 -0.0617 -0.1664
19820W        W62733  23.052  11.724  29.500  0.0982  0.0910  0.0682
19821W        W62734  14.491  13.481  20.373  0.0186 -0.0762 -0.1419
19822W        W62735  29.586  10.859  21.785 -0.2650  0.0248  0.1429
19823W        W62736  21.293  13.443  14.747  0.0819 -0.2183 -0.0014
19824W        W62737  32.416   9.395  25.107  0.2373  0.3829  0.1658
19825W        W62738  23.246  15.843  14.205 -0.3242 -0.0376 -0.3102
19826W        W62739  30.725  12.565  18.509 -0.1804  0.1873  0.1677
19827W        W62740   0.545  23.585  15.466  0.1357 -0.0458 -0.0952
19828W        W62741  18.398  19.766  14.343 -0.0917  0.1632 -0.3074
19829W        W62742  23.984  17.206  13.420  0.1550  0.0431 -0.1280
19830W        W62743  22.761  11.343  21.848 -0.0127 -0.0858  0.0304
19831W        W62744  29.863  21.566  15.251 -0.0249 -0.0155 -0.2480
19832W        W62745  25.715  13.385  22.994  0.0839 -0.2148  0.2388
19833W        W62746  33.373  14.066  26.876 -0.0542 -0.0514  0.0201
19834W        W62747  34.347  13.940  22.544 -0.0501  0.1848 -0.0005
19835W        W62748  25.562  16.060  28.588  0.0889 -0.0547  0.1378
19836W        W62749  30.525   4.069  16.860  0.1885  0.0247  0.3153
19837W        W62750  31.381   1.825  23.623 -0.2979 -0.3990  0.0338
19838W        W62751  23.290  16.761  25.241 -0.1381  0.0319 -0.0545
19839W        W62752  32.029   2.187  19.187 -0.1019 -0.0272 -0.0552
19840W        W62753  26.453  20.985  15.861  0.0787 -0.1267  0.4136
19841W        W62754  13.929  28.541  24.825 -0.1477  0.1973 -0.0384
19842W        W62755  22.294   8.260  15.748 -0.2588  0.1460  0.2477
19843W        W62756  23.660  20.134  17.537 -0.0162  0.0004  0.0337
19844W        W62757  25.638  19.319  23.393 -0.0296  0.1487 -0.2223
19845W        W62758  30.360  16.661  22.633  0.0674  0.1499 -0.1571
19846W        W62759  32.637   5.862  20.351 -0.1084  0.1367  0.0248
19847W        W62760  27.155  10.918  19.667 -0.1440 -0.0155 -0.2145
19848W        W62761  33.947   1.062  24.972 -0.6466  0.2405 -0.0374
19849W        W62762  19.291   5.326  24.886  0.1408  0.5527  0.0251
19850W        W62763  27.703  21.959  19.337  0.0471 -0.1150 -0.0949
19851W        W62764  11.808  20.838  19.784 -0.0025  0.1355  0.0933
19852W        W62765  13.394   9.661  15.928 -0.3721  0.0511 -0.3418
19853W        W62766  27.105  26.529  20.585 -0.0034  0.0379  0.2178
19854W        W62767  32.210  28.378   4.588 -0.3346  0.0468  0.0642
19855W        W62768  27.772   2.114  26.624 -0.0081 -0.0981 -0.0192
19856W        W62769  27.142  13.101  20.608 -0.0722  0.1394 -0.0704
19857W        W62770  23.792  33.319  20.723  0.0552  0.0509  0.2633
19858W        W62771  25.668  12.894  13.328 -0.1466  0.2148  0.1768
19859W        W62772  32.008   7.095  27.806 -0.1335 -0.0115  0.0455
19860W        W62773  29.281  16.039  17.357  0.1727 -0.1282 -0.4374
19861W        W62774  21.103  13.906  20.291  0.2582  0.0328 -0.0957
19862W        W62775   1.901  22.398  25.030 -0.1821  0.2940 -0.0406
19863W        W62776  22.624  18.991  27.435  0.1270 -0.1961 -0.1723
19864W        W62777  24.778   7.281  18.026 -0.1837 -0.1514  0.1508
19865W        W62778  28.526   9.392  24.282  0.0401 -0.2290 -0.2251
19866W        W62779   1.081   7.023  20.735  0.1080 -0.0107 -0.0520
19867W        W62780  25.360  18.378  26.663 -0.0016  0.1719  0.1991
19868W        W62781  24.766  19.460  13.123  0.1557 -0.0142  0.1083
19869W        W62782  32.276  10.799  21.103  0.2064  0.3043 -0.0707
19870W        W62783  24.012   6.988  13.917 -0.0200 -0.0947 -0.0341
19871W        W62784  27.906  16.917  21.034 -0.0079 -0.0836 -0.5534
19872W        W62785   3.811  17.948  16.063 -0.1055 -0.1245 -0.2176
19873W        W62786  20.348  12.322  19.922 -0.1278  0.0829 -0.0951
19874W        W62787  33.289  17.883  25.845  0.0011  0.1295  0.3945
19875W        W62788  31.470  12.930  18.424 -0.3352  0.0497 -0.0819
19876W        W62789  33.664  19.145  14.073  0.0635 -0.1597  0.1569
19877W        W62790  27.650  10.987  19.313 -0.0272 -0.0272 -0.2003
19878W        W62791  30.763   8.615  18.376 -0.1792  0.0956 -0.1094
19879W        W62792  14.298   8.700  19.361 -0.1254  0.1436  0.3250
19880W        W62793  17.803   9.819  17.139 -0.1734  0.0726 -0.0990
19881W        W62794  28.279  10.786  26.375  0.0960  0.0429 -0.0823
19882W        W62795   0.289   9.841  27.918 -0.1682  0.0177 -0.5366
19883W        W62796   0.375   2.477  17.304  0.0630  0.3682 -0.2286
19884W        W62797  27.042   6.731  25.319  0.2216 -0.0418  0.1738
19885W        W62798  28.166  17.173   0.397 -0.1752  0.0342 -0.2968
19886W        W62799  26.096  22.796  14.146  0.2966 -0.0723  0.0544
19887W        W62800  31.988  14.316  20.018 -0.2011 -0.0540  0.0412
19888W        W62801   1.148  14.683  20.461 -0.0393 -0.0384 -0.0498
19889W        W62802  12.690   8.977  14.610  0.2592  0.0606 -0.0899
19890W        W62803  26.915  17.304  25.308  0.2963  0.1188  0.0889
19891W        W62804  23.006  22.598  11.866 -0.0400 -0.0807  0.1037
19892W        W62805  24.902  32.820  20.889 -0.0701 -0.0441  0.3618
19893W        W62806  25.928  10.448  17.289 -0.1856  0.3463  0.0273
19894W        W62807  22.186  12.242  16.389 -0.1378 -0.0775  0.1714
19895W        W62808  24.254  10.061  19.464 -0.0924 -0.0870 -0.0699
19896W        W62809  31.949  25.929  15.044  0.0810 -0.0920  0.0691
19897W        W62810  27.318  14.941  13.069 -0.1539  0.0068 -0.0167
19898W        W62811  20.239  11.443  19.032 -0.2421  0.0710 -0.0679
19899W        W62812   0.251  13.010  19.309  0.2649 -0.1716  0.0958
19900W        W62813  26.026   1.609  19.466  0.0818  0.2247  0.2280
19901W        W62814   7.282   5.343  17.549 -0.1144 -0.1283  0.1524
19902W        W62815  16.186  11.174  13.337 -0.0188 -0.1694  0.0430
19903W        W62816  30.396  11.440  25.315  0.1938  0.0379  0.0051
19904W        W62817  25.411  22.508  16.189 -0.1588  0.0274 -0.1194
19905W        W62818   1.772  23.409  16.469 -0.2261  0.0134 -0.0073
19906W        W62819  28.578   7.214  21.380  0.3500 -0.2875 -0.1562
19907W        W62820  30.819   8.458  19.270  0.1783  0.0349  0.0151
19908W        W62821  18.885   9.263  13.377  0.3483  0.0072  0.0858
19909W        W62822  33.032   8.991  19.401  0.3624  0.0502  0.4003
19910W        W62823  19.340  10.940  13.676 -0.0311 -0.0279 -0.1436
19911W        W62824  19.715   4.390  22.087 -0.1177 -0.0730  0.2959
19912W        W62825  20.426  19.318  17.876 -0.0768  0.0221  0.1553
19913W        W62826  15.497  11.923  14.005 -0.0024 -0.0915  0.2924
19914W        W62827  24.166  15.908  23.955 -0.2549 -0.2404  0.0322
19915W        W62828  29.299  15.477  24.586  0.2549 -0.1384 -0.1181
19916W        W62829  32.711  14.100  15.040  0.0399  0.1037  0.0360
19917W        W62830   0.859   6.792  23.283  0.1164  0.1809 -0.1121
19918W        W62831   0.629  11.744  19.761  0.2188 -0.1769  0.0526
19919W        W62832  26.012   8.175  23.944  0.0222  0.0740  0.1738
19920W        W62833  26.642   6.990  19.750  0.1074  0.2504  0.0397
19921W        W62834  15.186   8.697  27.227 -0.0787 -0.1491  0.1735
19922W        W62835  30.520  14.954  16.321  0.2437  0.3735  0.0009
19923W        W62836  21.916   6.253   1.702  0.0810 -0.2091  0.1691
19924W        W62837   0.221  32.745  17.603 -0.1051  0.1991 -0.0105
19925W        W62838  30.268  14.077  29.239  0.2283  0.0260 -0.0296
19926W        W62839  24.585   8.362  18.337 -0.0310 -0.2149 -0.0877
19927W        W62840  25.480  10.094  20.398 -0.2533 -0.1520  0.2462
19928W        W62841  25.166   6.220  14.533  0.4115  0.1819  0.3591
19929W        W62842  16.717  18.523  12.906  0.0180 -0.1429  0.0204
19930W        W62843  26.620   9.546  17.593 -0.1380 -0.0856 -0.2598
19931W        W62844  21.796  16.268  12.870  0.0452 -0.2601  0.0651
19932W        W62845  28.108  15.615  16.332  0.0798  0.0678 -0.2368
19933W        W62846  24.846  12.407  16.080  0.1263  0.0167 -0.1633
19934W        W62847  24.681  21.824  14.664  0.2963 -0.3843 -0.2727
19935W        W62848  23.626   1.075  13.851 -0.2077  0.3992  0.4143
19936W        W62849  21.206   7.917  16.737  0.0531  0.1703  0.2614
19937W        W62850   0.638  11.733  16.384 -0.0686  0.0306 -0.1927
19938W        W62851  30.986   6.716  16.162  0.0645 -0.2895 -0.3338
19939W        W62852   8.779  20.776  14.760 -0.1610  0.0989  0.0678
19940W        W62853  27.461  16.108  20.219 -0.1799 -0.3228 -0.3521
19941W        W62854  22.915  14.124  22.875 -0.2725  0.1799 -0.1654
19942W        W62855  18.664  12.452  17.821 -0.1153 -0.0631  0.0559
19943W        W62856  33.994  13.827  15.630  0.0532  0.2237  0.0323
19944W        W62857  23.040   8.351  26.313  0.1661 -0.1527  0.4212
19945W        W62858  20.619   6.540  18.191 -0.0643 -0.1657 -0.0550
19946W        W62859  34.256  22.915  14.697  0.3295 -0.1579 -0.0765
19947W        W62860  27.379  21.902  20.717  0.2946 -0.2057 -0.0819
19948W        W62861  28.047  16.531  23.898  0.0346  0.2754  0.3315
19949W        W62862  26.145   4.813  27.334  0.2542 -0.0279  0.0736
19950W        W62863  28.650  22.831  21.467  0.2624  0.3731  0.0779
19951W        W62864  26.618   6.796  25.574 -0.2120  0.1012 -0.4271
19952W        W62865   3.077  12.417  19.549  0.1856  0.3652 -0.0499
19953W        W62866  24.536  12.096  16.933 -0.1280 -0.1533  0.4754
19954W        W62867  21.168  10.498  26.652 -0.1949  0.0020  0.1069
19955W        W62868  32.994  12.602  21.442 -0.2099  0.0899 -0.1141
19956W        W62869  29.882  11.062  24.663  0.0832  0.0227 -0.0640
19957W        W62870  20.884  13.520  14.450 -0.0586  0.2567  0.2382
19958W        W62871  24.558   5.161  16.659 -0.2088 -0.0578  0.0479
19959W        W62872   5.908  14.044  17.999  0.1171  0.3152 -0.0927
19960W        W62873   6.209  14.564   3.617 -0.4801  0.1223 -0.0269
19961W        W62874  24.990   0.817  21.864 -0.0118 -0.1613  0.2283
19962W        W62875  10.501  12.788  22.347  0.0808  0.0109 -0.0478
19963W        W62876  28.285  18.623   3.168  0.1295 -0.0241 -0.0334
19964W        W62877  21.817  10.582  27.562  0.0108 -0.0310 -0.0366
19965W        W62878  31.501   8.373  15.382 -0.1310  0.2874  0.1831
19966W        W62879  32.247  23.061  22.715  0.0286 -0.5690 -0.2553
19967W        W62880  18.915   6.537  22.354 -0.1277 -0.3744 -0.0177
19968W        W62881  14.997   7.336  24.183  0.0575 -0.5300 -0.2834
19969W        W62882  22.250  20.014  22.134 -0.0731 -0.0990  0.0174
19970W        W62883  26.672  16.842  16.518 -0.0036  0.0243  0.0603
19971W        W62884  28.204  26.746  18.635 -0.1028  0.0432 -0.3397
19972W        W62885  23.797  12.044  17.376 -0.2486  0.0486 -0.2074
19973W        W62886  34.386  15.985  17.855 -0.0457 -0.0514 -0.1580
19974W        W62887   1.320  15.841  17.526 -0.3588 -0.0182  0.0620
19975W        W62888  27.661  27.353  18.699  0.0397  0.0465 -0.3395
19976W        W62889  25.384  10.534  20.521  0.1316 -0.0899  0.0171
19977W        W62890  31.472  12.424  14.271  0.1088  0.2974 -0.0765
19978W        W62891  16.978   5.801  17.502 -0.0086 -0.0726 -0.1960
19979W        W62892  32.129  20.049  24.451 -0.1069 -0.2947 -0.1980
19980W        W62893  34.264  13.698  20.352  0.0060  0.1864  0.0804
19981W        W62894  19.199   6.208  23.536  0.2552 -0.2260  0.2404
19982W        W62895  22.364  31.857  24.490 -0.0782  0.3449  0.0633
19983W        W62896   0.438  13.334  20.785  0.2167 -0.1648  0.1198
19984W        W62897  30.483  20.040  20.568  0.1554  0.3253  0.1364
19985W        W62898  29.220   8.112  19.390 -0.1360 -0.1076 -0.0427
19986W        W62899   0.540  25.782  16.704 -0.1445  0.1450 -0.1976
19987W        W62900  24.099  13.816  17.149 -0.1882 -0.0718 -0.3542
19988W        W62901  28.762  18.747  25.794  0.2421  0.1875 -0.4536
19989W        W62902  16.003   4.183  16.413  0.0542  0.2120 -0.2015
19990W        W62903  23.352  10.241  17.379 -0.1507 -0.0400 -0.1273
19991W        W62904  26.158  15.686  27.287 -0.1138  0.1129  0.1397
19992W        W62905  25.999  17.306  23.687 -0.1950  0.0051 -0.0551
19993W        W62906   2.415   8.657  19.058  0.2741 -0.0226 -0.2826
19994W        W62907  25.293  18.963  13.523 -0.1324 -0.1868 -0.0595
19995W        W62908  31.035  15.026  15.135  0.2567  0.0817  0.1059
19996W        W62909  34.366  14.905  15.765 -0.1895 -0.0387  0.0813
19997W        W62910  29.595  16.100  23.921 -0.0956  0.2252  0.3405
19998W        W62911  30.352  10.055  15.789  0.0811  0.2179  0.0527
19999W        W62912  19.822  20.825  24.731 -0.0469 -0.2345 -0.0269
20000W        W62913  25.059  18.509  13.725  0.0597  0.4844  0.3376
20001W        W62914  34.371  13.045  14.771  0.2195  0.1649 -0.2032
20002W        W62915  27.380  12.369  19.557  0.0263  0.1443  0.1125
20003W        W62916  23.509  25.391  13.451  0.0104  0.2934  0.1644
20004W        W62917  29.563   8.718  17.673 -0.1148  0.0052 -0.1488
20005W        W62918  21.495  10.995  22.270  0.0697  0.0396  0.1370
20006W        W62919  25.406  20.245  14.453 -0.5123  0.1725 -0.1887
20007W        W62920  23.693   9.334  23.529 -0.2706  0.1799 -0.0284
20008W        W62921  26.152  12.961  22.946 -0.1251 -0.4206  0.0233
20009W        W62922  29.363   8.569  20.536 -0.0549  0.2202  0.2239
20010W        W62923  16.121  16.199  13.020 -0.2055  0.1888  0.1397
20011W        W62924   1.280   8.815  28.883 -0.0180 -0.0742  0.1447
20012W        W62925  30.495  31.010  17.612 -0.1247 -0.2307 -0.0060
20013W        W62926  22.911  12.000  17.187 -0.2143  0.1380 -0.1368
20014W        W62927   1.575  24.899  18.025  0.2915  0.4327  0.0318
20015W        W62928  32.706  17.513  15.960 -0.1469  0.0278  0.1251
20016W        W62929  14.427  13.838  24.146  0.1491  0.1712  0.2495
20017W        W62930  24.226  20.354  25.352 -0.0209 -0.0328  0.0822
20018W        W62931  29.788  21.889  22.636 -0.0298  0.0794  0.2239
20019W        W62932  26.330   1.918  15.905 -0.0050  0.1057 -0.1557
20020W        W62933  21.594   5.085  14.019  0.2865  0.2281 -0.4451
20021W        W62934  31.424  17.820  23.722 -0.1147 -0.3911  0.3382
20022W        W62935  28.295  28.121  14.045  0.1746 -0.3003  0.3499
20023W        W62936  23.047  17.145  22.050  0.1483  0.2755 -0.1624
20024W        W62937  23.166   7.511  14.210 -0.0013  0.0135 -0.0356
20025W        W62938  25.613  23.146  16.713 -0.1713  0.0370 -0.1489
20026W        W62939  24.190  19.659  17.863  0.0665 -0.0210  0.1119
20027W        W62940  25.983  19.279  24.956  0.1894 -0.0564 -0.0300
20028W        W62941   5.350  21.035  14.061 -0.1057 -0.3398  0.0948
20029W        W62942  18.691   3.886  19.497 -0.1678  0.1898 -0.0323
20030W        W62943  23.493   3.207  15.123 -0.0678 -0.0557 -0.1007
20031W        W62944   1.401  22.272  15.671  0.1327  0.1518  0.2063
20032W        W62945  10.926   1.325  18.356  0.1666 -0.0139 -0.1199
20033W        W62946  22.202  10.564  13.929  0.0067 -0.1724  0.1415
20034W        W62947  25.509   8.265  26.506 -0.3485 -0.1499 -0.2172
20035W        W62948  25.740  15.957  14.002  0.1322  0.1261  0.1037
20036W        W62949  25.740   6.757  14.886 -0.2279 -0.1361 -0.0317
20037W        W62950  31.273  14.359  17.281 -0.2092  0.0299 -0.1144
20038W        W62951  28.796  20.719  19.167 -0.0899  0.2083  0.0123
20039W        W62952  17.394  15.790  12.087 -0.0876  0.1119 -0.1649
20040W        W62953  15.444  10.121  19.193  0.1197 -0.3369  0.1810
20041W        W62954  30.583  15.001  21.551 -0.0064  0.1170 -0.0954
20042W        W62955  27.424  17.203   6.485  0.0160  0.2327 -0.0448
20043W        W62956  33.792  14.985  22.092 -0.2020  0.1452  0.2446
20044W        W62957  27.965  15.923  20.164 -0.1406 -0.2215  0.0079
20045W        W62958  24.186  11.057  14.689  0.2093  0.1017 -0.0093
20046W        W62959  34.365  16.450  15.805 -0.0535  0.1519  0.0163
20047W        W62960  22.447  17.441  18.535 -0.0345 -0.0841 -0.1748
20048W        W62961  26.648   6.406   0.123 -0.2147 -0.2012 -0.0142
20049W        W62962  31.440  24.243  14.647  0.2500 -0.1550  0.0975
20050W        W62963  29.936  10.340  17.342  0.5028  0.0644 -0.0617
20051W        W62964  26.631  16.117  21.018 -0.0058  0.0818  0.2468
20052W        W62965  24.745  19.371  20.357  0.2208 -0.0112 -0.1809
20053W        W62966  29.321   1.709  27.399 -0.0874 -0.0146  0.0046
20054W        W62967  27.221  12.969  16.666  0.1017 -0.2399 -0.1281
20055W        W62968  25.597  17.369  20.548  0.3093  0.0087 -0.0036
20056W        W62969  12.444  11.828  16.790 -0.1400 -0.1143 -0.3511
20057W        W62970  31.004  18.365  23.892 -0.4434 -0.0454  0.2694
20058W        W62971  28.056  11.320  17.665 -0.1936  0.0207 -0.0150
20059W        W62972   0.686   7.875   0.005  0.1420  0.3406  0.2580
20060W        W62973  20.116  11.830  22.312 -0.2854  0.0484 -0.1282
20061W        W62974  29.518  20.261  15.375  0.0366  0.0828 -0.1749
20062W        W62975  25.171  18.160  21.236 -0.0840 -0.1140  0.1332
20063W        W62976  27.585  23.973  28.017 -0.1310 -0.4046  0.0940
20064W        W62977  23.571  15.071  15.613  0.0358  0.0580 -0.0744
20065W        W62978   4.770  14.190  15.408  0.0896  0.1411  0.1245
20066W        W62979  22.254  15.706  26.808  0.0697 -0.2419  0.2315
20067W        W62980  33.952  16.708  21.370 -0.2762 -0.2082  0.0183
20068W        W62981  28.343  11.328  22.275  0.1221 -0.2055  0.1142
20069W        W62982  12.847   5.008  16.062  0.2180  0.1234 -0.3075
20070W        W62983  27.049  24.715  16.020 -0.0705 -0.1462 -0.0834
20071W        W62984  13.554  11.464  13.758  0.5632  0.2915  0.1590
20072W        W62985  29.973  12.548  14.004  0.0930 -0.0370  0.2760
20073W        W62986  21.967  14.412  22.944  0.0960 -0.0964 -0.4199
20074W        W62987  26.742  16.696  17.043 -0.0603 -0.0163 -0.3447
20075W        W62988  32.008   3.396  18.068 -0.2072 -0.0850 -0.2919
20076W        W62989  28.096  20.863  14.531  0.1732 -0.1570 -0.0885
20077W        W62990  15.213   8.204  25.408 -0.2503  0.1783 -0.1517
20078W        W62991  28.102  25.652  15.930  0.0313  0.1742  0.0383
20079W        W62992  18.657   3.317  18.567  0.0018  0.0529  0.1885
20080W        W62993  31.106   1.807  21.384 -0.0730 -0.2422  0.1362
20081W        W62994  16.331   4.333  23.744  0.1517 -0.3587 -0.1798
20082W        W62995  21.850  15.653  20.678 -0.2371 -0.1015  0.0109
20083W        W62996  27.708  16.124  19.755  0.1806  0.0841 -0.0842
20084W        W62997  28.052  27.340  27.879  0.3959 -0.1032 -0.3003
20085W        W62998  22.463  26.808  18.890  0.1282  0.2131  0.0414
20086W        W62999  25.510  19.537  16.698  0.0342 -0.0796 -0.2881
20087W        W63000  19.144   8.608  19.505 -0.0319 -0.1350  0.1235
20088W        W63001  24.875  18.613  16.057 -0.1031  0.1522 -0.2576
20089W        W63002  24.992  13.477  17.017  0.0372  0.0676 -0.1648
20090W        W63003  15.008  11.402  19.297 -0.2208  0.1360  0.2406
20091W        W63004  32.263  20.257  17.545 -0.1933  0.4457  0.1906
20092W        W63005  33.607  22.789  27.498  0.0255  0.3197 -0.3540
20093W        W63006  31.998  18.027  18.349 -0.2859 -0.4289 -0.3882
20094W        W63007   1.120  14.506  21.155  0.0980  0.2097  0.1544
20095W        W63008  22.884   3.545  24.838 -0.1975  0.3288 -0.0118
20096W        W63009  29.599   8.382  26.132  0.0463  0.1449  0.1659
20097W        W63010   3.823  17.521  16.295 -0.1326  0.3389 -0.3363
20098W        W63011  30.601   5.918  15.765 -0.1001  0.1297  0.0348
20099W        W63012  24.913  19.443  18.799  0.1748  0.0334 -0.3680
20100W        W63013  25.260  14.612  26.321  0.0682  0.1729  0.1147
20101W        W63014  32.927  19.279  17.904  0.1459 -0.1189  0.0447
20102W        W63015  31.157  11.358  25.063  0.2462  0.0433  0.2101
20103W        W63016  24.182   6.375  15.777 -0.0408  0.1734  0.0205
20104W        W63017  18.279  13.416  13.136  0.1098 -0.0800  0.1679
20105W        W63018  28.898  12.922  15.607 -0.1320 -0.2164 -0.1089
20106W        W63019  25.299   6.557  20.169 -0.3461  0.1529  0.1522
20107W        W63020  26.108  12.848  21.660  0.1126 -0.1811  0.1570
20108W        W63021  23.017  17.104  24.923  0.2959 -0.2879  0.2771
20109W        W63022   0.250  17.824  16.887  0.1151  0.0335  0.1396
20110W        W63023  16.539   3.284  19.707 -0.2104 -0.0449 -0.0638
20111W        W63024  19.261  19.866   2.065  0.1023  0.1504  0.0314
20112W        W63025   8.611  15.890  17.456  0.1172  0.0356 -0.2150
20113W        W63026  31.360  10.359   0.221  0.0399  0.1825  0.3852
20114W        W63027   0.373  18.345  28.308  0.3337 -0.1266  0.0863
20115W        W63028  16.657  21.537  13.979 -0.2902 -0.1398  0.0692
20116W        W63029  21.936  15.319  24.260 -0.2414  0.1168  0.1443
20117W        W63030  26.529  17.147  16.950 -0.0042  0.3134 -0.3005
20118W        W63031  34.080  15.321  23.104 -0.1077 -0.2304 -0.1663
20119W        W63032  31.697  16.887  13.956 -0.0330  0.1642  0.0266
20120W        W63033  30.928   5.020  17.618 -0.1079 -0.3252 -0.1231
20121W        W63034  27.759  16.549  17.205 -0.0910  0.1325  0.1811
20122W        W63035  16.342  11.512  16.011  0.0941 -0.1921 -0.0718
20123W        W63036  33.221  16.683  13.360  0.0973  0.1354 -0.0462
20124W        W63037  32.206  11.565  21.975 -0.0890 -0.3065 -0.3121
20125W        W63038  26.965  10.924  16.469 -0.1481 -0.0336  0.0035
20126W        W63039  34.474   0.522  20.989  0.0174  0.0282 -0.0255
20127W        W63040  33.218   6.559  17.138 -0.1434 -0.0492 -0.0973
20128W        W63041  28.062  22.204  16.548  0.2074 -0.0057 -0.2778
20129W        W63042  25.639  13.676  16.436 -0.0186  0.0025  0.0044
20130W        W63043   0.808  15.600  26.694  0.1161  0.0757 -0.3804
20131W        W63044  26.854  14.611  14.180  0.0783  0.0476 -0.2072
20132W        W63045  31.738  27.558  15.433 -0.3039  0.0902  0.1332
20133W        W63046  32.723  19.817  19.689  0.0984 -0.2261  0.1922
20134W        W63047  23.057  14.040  14.533  0.1036  0.2026 -0.0644
20135W        W63048  25.252  17.693  16.827  0.0107 -0.0185 -0.1972
20136W        W63049  33.132   6.887  21.082  0.0705  0.1427  0.2187
20137W        W63050  19.764   7.812  22.160  0.1552  0.1033 -0.1111
20138W        W63051  18.684  11.151  21.893 -0.0201 -0.0959  0.0637
20139W        W63052   1.295  19.599  26.226  0.3601  0.0546  0.2137
20140W        W63053  19.665  16.948  15.727  0.1545 -0.1209 -0.1985
20141W        W63054  33.245   8.847  24.860 -0.0228 -0.0069 -0.0813
20142W        W63055  27.180  11.268  15.033 -0.1077  0.1101 -0.1603
20143W        W63056  31.169  10.817  19.644  0.2819  0.0405  0.0107
20144W        W63057  27.236  15.216  23.035 -0.3158  0.0662 -0.3715
20145W        W63058  29.839   8.256  17.441 -0.1169  0.0020 -0.1149
20146W        W63059   4.326   8.579  23.154  0.1296 -0.0585  0.1117
20147W        W63060  20.298   7.672  14.404  0.2024 -0.7443  0.0182
20148W        W63061  17.798   4.121  23.429  0.1889  0.0094 -0.2792
20149W        W63062  26.841  14.961  13.598  0.0281 -0.1055 -0.1299
20150W        W63063   2.282  19.498  28.917  0.0693  0.0935  0.0946
20151W        W63064   7.739  15.872  18.037  0.0061 -0.1737  0.0285
20152W        W63065  26.585  11.785  14.299  0.0438  0.0463 -0.2309
20153W        W63066  27.112  21.924  16.247  0.3148  0.0417  0.0353
20154W        W63067  25.099  18.987  14.965  0.0690 -0.1064 -0.3371
20155W        W63068  19.350   5.663  20.125  0.0977 -0.2132  0.0398
20156W        W63069  19.330  18.077   3.967 -0.0548 -0.1206 -0.1487
20157W        W63070  29.223   6.733   0.827 -0.1486 -0.0952 -0.2593
20158W        W63071  24.378  12.014   3.883  0.1115  0.1814 -0.1304
20159W        W63072  30.731   3.083  26.018  0.0185  0.1367 -0.0550
20160W        W63073  24.626  14.129  25.496 -0.1138 -0.0855 -0.2259
20161W        W63074  30.389  12.462  24.637 -0.0988  0.2725  0.1585
20162W        W63075  20.942  23.557  22.387 -0.0001 -0.0182  0.1021
20163W        W63076  32.930  11.117  15.420 -0.0255  0.2512 -0.1581
20164W        W63077  28.266   9.353  23.827 -0.0592  0.0733  0.1913
20165W        W63078  24.187  34.424  24.861  0.1406 -0.1585 -0.1482
20166W        W63079  28.404  14.636  20.263  0.0228 -0.5474  0.0812
20167W        W63080  19.765  33.185  27.185  0.2365 -0.2483 -0.1238
20168W        W63081  20.839   5.666   1.088  0.5478 -0.1690  0.1986
20169W        W63082  16.520  10.745  17.049  0.3623 -0.0233 -0.1536
20170W        W63083  27.487  15.159   2.534 -0.2730  0.0740 -0.2439
20171W        W63084  24.331  20.368  13.099  0.2672 -0.1739 -0.1681
20172W        W63085  24.031  10.675   4.223 -0.1350  0.2478 -0.1786
20173W        W63086   1.249   5.112  24.970 -0.0806 -0.4297  0.1364
20174W        W63087  20.754   7.647  27.724 -0.0222  0.3047 -0.1209
20175W        W63088  19.608   0.682  21.318 -0.2055 -0.1047 -0.1709
20176W        W63089  26.655  16.560  28.570 -0.1394  0.3102 -0.0493
20177W        W63090  33.971  11.120  18.965  0.1166 -0.3635  0.2973
20178W        W63091  27.275   4.359   2.305  0.1351  0.0714 -0.1083
20179W        W63092  21.563  12.979  22.896 -0.2487 -0.0735  0.0282
20180W        W63093  22.216  10.420  18.366  0.0107 -0.0078 -0.2528
20181W        W63094  26.456  20.187  29.380  0.1121 -0.0740 -0.1082
20182W        W63095   0.152  11.957  26.672 -0.2592 -0.1132 -0.3290
20183W        W63096  24.632  11.559  24.085  0.0752  0.2446  0.0887
20184W        W63097   2.040  15.929  25.800  0.1723 -0.0032 -0.3963
20185W        W63098  32.520  18.212  29.350  0.1613 -0.1132  0.1959
20186W        W63099  28.256  15.663   0.903 -0.2247 -0.0695  0.1478
20187W        W63100  28.231  25.041   1.739 -0.0326  0.4241 -0.2134
20188W        W63101   0.985  10.163  18.455  0.1385 -0.1256  0.0836
20189W        W63102  29.987  19.197  16.759 -0.1224 -0.0527  0.0128
20190W        W63103  18.618  19.571  21.741  0.5040  0.1565  0.1043
20191W        W63104  32.575   1.592  19.158 -0.2620 -0.2836  0.0027
20192W        W63105  28.685  11.725   0.380 -0.1830  0.0135  0.1820
20193W        W63106  26.701  16.889  23.344 -0.4208  0.1301  0.1158
20194W        W63107  31.373   7.354  15.678  0.0282  0.0895 -0.1863
20195W        W63108  26.796  17.694   4.397 -0.3594 -0.0739 -0.1030
20196W        W63109  24.467  11.213  13.146 -0.2372  0.0093  0.1015
20197W        W63110  31.881   8.247  15.721  0.0240  0.1533 -0.0180
20198W        W63111   4.108  17.845   5.402  0.2830 -0.1894 -0.1862
20199W        W63112  23.689  13.838  25.513  0.0254  0.4105  0.1281
20200W        W63113  25.363  34.069  22.672 -0.1387  0.1702  0.2041
20201W        W63114  19.011  25.237  15.239  0.0399  0.0344  0.0617
20202W        W63115  27.862  13.008  24.986 -0.1351  0.0326  0.2400
20203W        W63116  18.525  15.314  26.606 -0.3140 -0.0461 -0.0225
20204W        W63117  33.281  10.993  18.638 -0.2895  0.3777 -0.1378
20205W        W63118  20.049  16.338   1.952  0.2229 -0.0269  0.3049
20206W        W63119  28.939  24.603  16.466  0.1300  0.0360  0.3166
20207W        W63120  25.484   8.202  28.476 -0.2900  0.1699  0.0386
20208W        W63121   0.600  11.461  18.312  0.2946 -0.3657  0.2673
20209W        W63122   0.015  15.108  28.472 -0.2719 -0.0003 -0.2597
20210W        W63123  17.060  12.152  14.977 -0.2089  0.0632  0.0688
20211W        W63124  26.092  14.898  15.037  0.0891  0.1257 -0.1075
20212W        W63125   2.809  30.118  27.033  0.0499 -0.2056  0.2774
20213W        W63126   3.049  17.013   0.037 -0.0769 -0.0203  0.1507
20214W        W63127  27.913  17.898   2.143  0.0314  0.0329 -0.0131
20215W        W63128  28.888  33.213  25.714  0.1507 -0.2568 -0.1364
20216W        W63129  25.631   9.851  19.306 -0.3862  0.3499 -0.0961
20217W        W63130  23.250   6.018  24.838  0.0066  0.0797 -0.3793
20218W        W63131  20.452  31.760  13.176 -0.0391 -0.2841 -0.1390
20219W        W63132  25.516  18.391  19.890  0.0272  0.3040 -0.1387
20220W        W63133  25.869   9.781  24.530 -0.0069 -0.1435 -0.0694
20221W        W63134  24.506  17.673  21.935 -0.3163  0.2326 -0.0512
20222W        W63135  19.412   7.667  23.209 -0.1730  0.1353  0.3345
20223W        W63136  30.985  12.371  22.162 -0.0634 -0.2264  0.1640
20224W        W63137  26.621  11.096  21.652 -0.1539  0.0737 -0.0641
20225W        W63138  17.170  22.219  16.040 -0.0688  0.0721  0.2288
20226W        W63139  20.809   8.803  16.764  0.0413 -0.2460 -0.1284
20227W        W63140  29.123   5.548  15.808  0.1121  0.1655  0.0755
20228W        W63141  33.488  14.941  16.960 -0.0523  0.0569  0.1084
20229W        W63142  15.010  14.299  16.197 -0.2266 -0.1271 -0.0643
20230W        W63143  27.710   6.963  22.957  0.1743 -0.2254 -0.1677
20231W        W63144  25.148  15.149  28.388 -0.0825 -0.4338  0.1582
20232W        W63145  25.321  19.662  21.161  0.3547  0.2037 -0.2320
20233W        W63146  29.397  20.160  17.192 -0.3448 -0.0622 -0.0854
20234W        W63147  17.678  13.345  17.121 -0.1756  0.0604  0.1913
20235W        W63148  21.725  17.764  24.725 -0.0485 -0.0175 -0.1720
20236W        W63149  20.595  14.893  29.013  0.0072 -0.0494 -0.0455
20237W        W63150  24.051   1.941  16.013  0.2063  0.1504  0.2269
20238W        W63151  18.735  28.766   6.304 -0.3282 -0.0375  0.0324
20239W        W63152  22.954  12.341  24.173  0.1852  0.2322  0.0156
20240W        W63153  28.169  11.672  28.493  0.0564  0.0364  0.3089
20241W        W63154  30.215  15.300  26.983  0.0772  0.0645  0.1401
20242W        W63155  26.495  11.117  24.923  0.0054 -0.3229  0.0583
20243W        W63156  25.132  18.288  25.343 -0.1232  0.1641 -0.0039
20244W        W63157  19.702  22.311  22.602 -0.1640  0.1001 -0.0082
20245W        W63158  31.390  10.963  25.390  0.0874  0.0149  0.2594
20246W        W63159  23.095   8.779  24.745 -0.1060  0.0127 -0.0370
20247W        W63160  32.541  21.280  26.277 -0.1499  0.1727  0.0436
20248W        W63161  25.961  16.893   0.197 -0.1122  0.1694  0.0495
20249W        W63162  19.928  12.113  25.246 -0.0218  0.3147  0.0290
20250W        W63163  25.012  12.998  24.434  0.3267  0.4264 -0.0009
20251W        W63164  15.994   5.982  17.732 -0.2885 -0.3150  0.1537
20252W        W63165  27.447   7.705  14.175 -0.1488  0.2170 -0.0946
20253W        W63166  30.421  13.560   1.440  0.1686  0.0478 -0.4180
20254W        W63167  30.685   3.166  24.335  0.0506 -0.2860  0.3373
20255W        W63168  31.834  14.800   0.088 -0.4620  0.2726 -0.2192
20256W        W63169  27.998  21.274  14.783 -0.1141 -0.0346  0.1308
20257W        W63170  18.545  34.382  17.894  0.0561  0.0487  0.0783
20258W        W63171  25.921  17.826  24.824  0.1571  0.1322  0.1593
20259W        W63172   2.130   7.810  20.141 -0.2079 -0.0902 -0.2429
20260W        W63173  24.689  18.919  20.617 -0.1065 -0.1604  0.0436
20261W        W63174  31.498  14.340  26.384 -0.0984 -0.0399  0.1336
20262W        W63175  30.570  18.467  25.742  0.3192  0.1324 -0.1910
20263W        W63176  32.509  20.146   1.304 -0.1110 -0.2360 -0.2023
20264W        W63177  27.653  27.909  18.693  0.0713 -0.0337  0.0825
20265W        W63178  25.986   9.424   1.894 -0.3134 -0.1658  0.4248
20266W        W63179  28.701   5.964  19.076  0.0239 -0.0578 -0.0120
20267W        W63180   2.079   0.325  25.264  0.3100  0.0081  0.1668
20268W        W63181  20.681  11.212  20.658 -0.2773  0.1489  0.1515
20269W        W63182  15.814  11.428  20.454 -0.2022  0.2467 -0.3719
20270W        W63183  29.330  17.561  22.533 -0.3748 -0.2663 -0.0880
20271W        W63184  22.920  16.488  14.647  0.1758 -0.0187  0.1110
20272W        W63185  20.867  24.039  18.892 -0.0770  0.0842 -0.2796
20273W        W63186  10.606   6.024  17.462  0.0643 -0.0089  0.0808
20274W        W63187  24.251  14.457  26.255 -0.1449 -0.2126 -0.2454
20275W        W63188  25.791  19.995  24.526 -0.0047 -0.0798 -0.1279
20276W        W63189  24.570   9.183  26.506 -0.2946 -0.0984 -0.0461
20277W        W63190  27.489  21.904  21.612 -0.0412 -0.0096  0.1936
20278W        W63191  23.190  21.470  18.543  0.0528  0.1879 -0.2334
20279W        W63192  21.685  13.694  22.444  0.0112  0.2140 -0.2136
20280W        W63193  27.823  12.404  25.292 -0.0640 -0.1916  0.1078
20281W        W63194  17.234  21.334  12.701  0.2818  0.0417 -0.0700
20282W        W63195  19.036  11.860  24.778  0.2684 -0.1293 -0.2986
20283W        W63196  25.885   2.013  23.483 -0.0666  0.1978  0.2836
20284W        W63197  34.379  10.884  19.717 -0.1556  0.0458 -0.1778
20285W        W63198   2.281   2.767  21.384 -0.3351  0.1055 -0.3126
20286W        W63199  30.589  18.870  21.417 -0.1375  0.0930 -0.1229
20287W        W63200  23.571  16.925  13.391  0.0714 -0.1650  0.2224
20288W        W63201  25.107  15.197  16.952  0.1197  0.3973 -0.1015
20289W        W63202  30.894  17.254   2.768 -0.2232 -0.0630  0.2586
20290W        W63203  32.221  17.473  26.114 -0.0128  0.1070  0.1977
20291W        W63204  30.218  17.942   6.959 -0.0961  0.0009 -0.0164
20292W        W63205  18.308   7.883   0.307 -0.0845  0.0760 -0.0917
20293W        W63206  27.401   5.966  16.207 -0.0302  0.0219  0.0102
20294W        W63207  25.890   2.369  27.377  0.0349  0.3026  0.1263
20295W        W63208  22.517  13.890  16.458 -0.2078  0.0696  0.2915
20296W        W63209  24.868  10.472  25.555  0.1779  0.3307  0.0884
20297W        W63210  25.203   5.635  25.377 -0.0730 -0.1732  0.0749
20298W        W63211  19.507   9.401  19.009  0.0732  0.0951 -0.1304
20299W        W63212   0.448   3.462   1.304 -0.2163  0.1416 -0.1359
20300W        W63213  25.819  12.753   0.735 -0.2893  0.0745 -0.2638
20301W        W63214  24.850  23.930  16.695  0.1177  0.5306 -0.1028
20302W        W63215  24.288   4.869  15.186 -0.0950 -0.0892  0.0302
20303W        W63216   0.799   4.446  19.138  0.1179 -0.3772  0.0545
20304W        W63217  25.271   8.734  19.831 -0.3343 -0.0917  0.0841
20305W        W63218  16.046  14.618  24.135 -0.0738  0.3599 -0.1780
20306W        W63219  32.388  15.049   1.483  0.3112  0.2585  0.0021
20307W        W63220   0.571   6.984  17.706  0.0248  0.0665  0.1628
20308W        W63221  26.118   8.210   2.109 -0.0204 -0.1179  0.1536
20309W        W63222  24.832  19.247  13.571 -0.1769  0.3607  0.1600
20310W        W63223  25.678  10.649  16.032  0.3345 -0.0792 -0.0830
20311W        W63224  25.621  15.632  20.378 -0.2122 -0.0474 -0.1019
20312W        W63225  25.365   2.674   3.627  0.0342 -0.1954  0.1299
20313W        W63226   4.052  16.844  22.091  0.3436 -0.0509  0.3216
20314W        W63227  28.124   8.802  15.321  0.1030 -0.2033  0.0129
20315W        W63228  34.269  16.471  21.018  0.1117 -0.1026  0.3110
20316W        W63229  25.139  26.990  16.144 -0.2031  0.2886  0.0971
20317W        W63230  28.618  29.279  26.491 -0.0433  0.1918  0.0932
20318W        W63231  19.513  10.835  22.976 -0.0988 -0.2180 -0.0107
20319W        W63232  28.897   3.972   0.328  0.0397 -0.1439  0.0130
20320W        W63233  14.440  21.549  23.196  0.3240  0.1065  0.0002
20321W        W63234   8.667  15.583  15.829 -0.2090 -0.2080  0.0727
20322W        W63235  18.033  16.796  29.206 -0.1554 -0.0049  0.1784
20323W        W63236  30.765  29.261  27.631  0.0318  0.1576 -0.0505
20324W        W63237  20.734  17.750  23.500  0.0108  0.1631  0.2258
20325W        W63238  15.904  21.472  21.701 -0.0189  0.0803 -0.0049
20326W        W63239  26.889   7.861  23.003  0.1703  0.1435  0.1683
20327W        W63240  34.270   7.034  20.046  0.0437 -0.1330  0.2478
20328W        W63241  33.692  19.881   2.897  0.0367 -0.3751 -0.0801
20329W        W63242  26.862  14.974   6.940  0.0595 -0.0070  0.0797
20330W        W63243  28.356   4.876  23.371  0.0922  0.2463  0.1921
20331W        W63244  23.261  17.505  22.799  0.0279 -0.1026  0.2012
20332W        W63245  30.007  16.327  27.845 -0.2517 -0.3118  0.1364
20333W        W63246  23.962   6.514  27.624  0.1866  0.2887  0.1728
20334W        W63247  29.586   6.576  24.159 -0.2000 -0.0983 -0.0047
20335W        W63248   7.131  12.368  23.226  0.2389  0.0117 -0.1746
20336W        W63249  28.433  17.854  14.270 -0.0433 -0.3219 -0.0484
20337W        W63250   1.349  15.492  26.339  0.2342 -0.3064 -0.2779
20338W        W63251  25.930  10.077  26.060  0.0180  0.0042 -0.4286
20339W        W63252   1.180  16.837  13.941  0.0080  0.0659  0.1779
20340W        W63253  23.172   6.487  14.620  0.3423 -0.1712 -0.1484
20341W        W63254  26.845  18.920  17.472 -0.0876  0.4412 -0.1283
20342W        W63255  26.376  15.559  23.881  0.2572 -0.2192 -0.1294
20343W        W63256  32.432  10.750  15.283  0.0255  0.1300 -0.4063
20344W        W63257  33.338  18.440  25.705 -0.0573 -0.2963  0.1236
20345W        W63258  22.201  10.271  27.713  0.0610 -0.3188  0.0022
20346W        W63259   6.383  11.746  17.080 -0.1867 -0.1181 -0.0759
20347W        W63260  29.676  15.574   1.009  0.0081  0.2844 -0.1992
20348W        W63261  26.125  16.734  21.940  0.0177  0.2685 -0.0196
20349W        W63262  31.487  16.548  22.038 -0.2948  0.0251 -0.1269
20350W        W63263   0.444  10.951  23.039 -0.3169  0.0890 -0.1197
20351W        W63264  26.181   9.956   6.655  0.1360  0.0358  0.0623
20352W        W63265  28.030  18.352   1.418  0.0584 -0.1199 -0.1321
20353W        W63266  25.546  13.120  27.464 -0.0735 -0.2622 -0.2932
20354W        W63267  21.543  12.051   0.599 -0.1033  0.0721  0.0449
20355W        W63268  24.287  20.033  25.696  0.1518 -0.0574 -0.1071
20356W        W63269  21.940  12.132  14.450  0.0960  0.0887  0.0031
20357W        W63270  14.994   3.205  24.935 -0.0698 -0.1730  0.0318
20358W        W63271   0.482  14.319  15.064 -0.0096  0.1082  0.1908
20359W        W63272  31.814  18.710  14.998 -0.0692 -0.0754  0.2608
20360W        W63273  24.942  11.592   3.363  0.1262  0.0582  0.1812
20361W        W63274  20.195  20.709  18.308 -0.2334  0.0535  0.0002
20362W        W63275  22.803  14.589  22.517 -0.3150  0.0333 -0.1549
20363W        W63276  19.620  11.752  21.140 -0.1420 -0.1743 -0.4974
20364W        W63277  32.056  27.279  19.530 -0.2108 -0.1003  0.0359
20365W        W63278  22.759  25.192  24.501 -0.0827 -0.0387 -0.1187
20366W        W63279   0.648  16.062  18.728 -0.0683 -0.0454 -0.2758
20367W        W63280   2.517   9.506  24.389 -0.0276  0.2269  0.1444
20368W        W63281  19.085   4.311  26.239  0.1252  0.0379 -0.1937
20369W        W63282   1.769  15.480  19.101  0.0749 -0.1168 -0.2178
20370W        W63283  26.883  21.133  23.869  0.0277 -0.2534 -0.0970
20371W        W63284  22.886   9.076  15.551 -0.1630  0.1509 -0.0359
20372W        W63285  24.653  21.360  21.930 -0.3234 -0.1056  0.1834
20373W        W63286   0.966  17.455   1.980 -0.1144  0.0842 -0.0988
20374W        W63287  30.747  13.888  25.939  0.1772  0.0853 -0.2963
20375W        W63288  25.585  15.218  29.608  0.4821 -0.1515 -0.1342
20376W        W63289  24.182   5.361   5.570 -0.1061  0.1215  0.0028
20377W        W63290  27.298  22.756  18.569  0.1730 -0.2548  0.2992
20378W        W63291  33.937  21.016  28.796  0.2673 -0.1019  0.0029
20379W        W63292  10.462  32.256  16.179  0.0919 -0.1296 -0.3958
20380W        W63293   0.577  14.060   6.396 -0.0572 -0.1267  0.2418
20381W        W63294  26.424   1.609  26.509  0.0662  0.0697  0.2040
20382W        W63295  23.619   4.399  27.068  0.0206 -0.1807 -0.1673
20383W        W63296  25.904  31.220  26.931  0.0935 -0.1319  0.4227
20384W        W63297  27.447  10.754  15.587 -0.0163 -0.0250 -0.1243
20385W        W63298  13.633  15.488  24.165 -0.0144 -0.1243 -0.0910
20386W        W63299   6.730  15.033  21.754  0.1120 -0.1356 -0.0937
20387W        W63300  32.048  15.294  13.542 -0.1425  0.1074 -0.1439
20388W        W63301  32.208  15.604  15.031  0.1418 -0.1504  0.0278
20389W        W63302   0.331   8.037  10.216 -0.1049 -0.2702  0.1529
20390W        W63303  19.323   2.652  27.909 -0.0020  0.1213  0.0845
20391W        W63304  26.345   8.502  16.968  0.2530  0.1571 -0.4315
20392W        W63305  30.019  16.618  18.711  0.1375  0.0868  0.0449
20393W        W63306  23.994  11.235  25.070  0.4188 -0.0186  0.1756
20394W        W63307  23.677   8.366  22.948 -0.2454  0.3827 -0.0398
20395W        W63308  25.039  14.903  18.390 -0.1817 -0.0643 -0.2380
20396W        W63309  24.414  19.816  20.209 -0.0625 -0.2108 -0.0212
20397W        W63310  27.524  21.637   1.642 -0.0758 -0.4217  0.1069
20398W        W63311  25.814   9.537  21.953 -0.0744  0.2975 -0.2198
20399W        W63312  26.208  11.808  28.739  0.0007  0.1969 -0.1079
20400W        W63313  33.505   7.344   0.988  0.0128 -0.0762  0.1288
20401W        W63314  30.241  14.883  27.756 -0.0871  0.4007  0.1742
20402W        W63315   1.510  19.654   0.104 -0.1793  0.2405  0.0521
20403W        W63316  16.993  11.108  18.308  0.0365  0.2833 -0.1741
20404W        W63317  24.387  11.900  28.539  0.2042 -0.2971  0.3208
20405W        W63318  27.186   8.466  19.829 -0.1766  0.0188  0.1300
20406W        W63319  23.229  10.178   2.327  0.3397 -0.2232  0.3184
20407W        W63320  17.947  11.889  15.419 -0.0837  0.0752 -0.0659
20408W        W63321  29.153  34.224  23.066  0.0186 -0.0041 -0.0359
20409W        W63322  23.966   9.993  22.571 -0.1560 -0.1049  0.3025
20410W        W63323  23.523   9.979  25.750  0.0984  0.0764 -0.2696
20411W        W63324  22.484   9.780   8.658 -0.2604 -0.0808 -0.0317
20412W        W63325  25.869  10.215  19.036  0.1727  0.1710 -0.0524
20413W        W63326  27.301   0.939  29.385  0.0696 -0.1497  0.1435
20414W        W63327  27.685  20.326  27.828  0.0777  0.2424  0.0817
20415W        W63328  33.412  21.414  16.812  0.0641 -0.2057  0.0898
20416W        W63329  25.094  16.624   8.864  0.0675  0.0524 -0.2960
20417W        W63330  34.453  24.359  28.069 -0.0449  0.3582  0.1270
20418W        W63331  12.491   3.587  21.486  0.1065 -0.2666  0.3370
20419W        W63332  30.276  13.690  21.219  0.0992 -0.0601 -0.1371
20420W        W63333  18.065  18.123  27.242  0.0024 -0.1637 -0.2257
20421W        W63334  24.087  19.867  22.432  0.1746  0.3068  0.1432
20422W        W63335  23.759   0.341  22.315 -0.3017 -0.0137  0.1682
20423W        W63336  22.879  17.498  18.939  0.2386 -0.1746 -0.0665
20424W        W63337  25.712  15.239  24.837 -0.0614  0.0576  0.0013
20425W        W63338   1.861  12.975  15.267 -0.2751  0.0640 -0.0302
20426W        W63339  21.236  14.530  23.688 -0.1187  0.1129  0.0194
20427W        W63340  24.650   2.012  25.752 -0.1647  0.4529  0.3098
20428W        W63341  31.705  12.334  26.140 -0.2834  0.0046 -0.0619
20429W        W63342  27.281   6.217  29.450 -0.0548  0.0614  0.0560
20430W        W63343  26.612  17.155  21.306 -0.2290  0.0035 -0.1822
20431W        W63344  24.836  13.944  22.764  0.0788  0.0356 -0.1363
20432W        W63345  17.943   9.351  13.719  0.0198 -0.1536 -0.1600
20433W        W63346  32.483  17.342   2.916 -0.2324 -0.2965  0.3085
20434W        W63347  30.309   7.728  18.539 -0.2257 -0.0110  0.2623
20435W        W63348  20.386  10.766  25.049  0.1268  0.2212  0.2468
20436W        W63349  31.823   8.670  26.342  0.0149 -0.1667  0.5170
20437W        W63350  27.346   7.829   0.812 -0.1887  0.2409 -0.0184
20438W        W63351  24.467  11.401  19.135 -0.2975 -0.0754 -0.4782
20439W        W63352  23.052  13.581   0.454 -0.4519 -0.1012  0.2470
20440W        W63353  32.520  12.012  28.881 -0.1759  0.0598  0.2461
20441W        W63354   3.058   0.273  26.441 -0.2296  0.1405 -0.0129
20442W        W63355  26.694  24.755  28.149 -0.2534  0.0609  0.1049
20443W        W63356  32.042   8.238  19.246  0.3019  0.1436  0.0731
20444W        W63357  30.062  17.604  21.197  0.3535  0.0127  0.1520
20445W        W63358  24.323   9.956  27.111 -0.2574 -0.0246  0.0822
20446W        W63359  19.144  14.743  25.150 -0.2207  0.2722 -0.2284
20447W        W63360  33.792  16.794  23.631 -0.0151 -0.1451  0.0995
20448W        W63361  29.229  16.303   1.521  0.2817  0.1335 -0.0389
20449W        W63362   4.520  19.584  18.862 -0.1947  0.1424  0.2523
20450W        W63363  32.153  13.707  28.536 -0.0478  0.0890  0.2179
20451W        W63364  30.822   5.994  19.519 -0.0288  0.0964  0.1852
20452W        W63365  20.020  13.269  22.736  0.3428  0.0961  0.1930
20453W        W63366   1.867  12.681   0.037 -0.1376 -0.0805 -0.0410
20454W        W63367  22.132  32.926  25.333  0.0160 -0.0216  0.2725
20455W        W63368   2.301   2.220  22.798  0.1096  0.5073 -0.0788
20456W        W63369  30.755   3.441  19.887 -0.1329  0.1413 -0.1441
20457W        W63370  31.010  22.969  22.359  0.1253  0.1069 -0.3746
20458W        W63371  22.366  14.263   3.259 -0.0016 -0.1035 -0.2810
20459W        W63372  19.403  10.009   1.534  0.3837  0.0400 -0.2375
20460W        W63373  27.036  12.788  21.818 -0.2451  0.2085 -0.0383
20461W        W63374  32.371  11.866  23.437  0.1882 -0.0540 -0.0958
20462W        W63375  26.334  11.839  16.291  0.0638 -0.2712  0.1519
20463W        W63376  21.449   7.530  28.080 -0.0757  0.0314 -0.0557
20464W        W63377  31.338   1.917  26.497  0.3387  0.1248 -0.0920
20465W        W63378  23.076  17.187  27.233  0.2979 -0.1676 -0.0684
20466W        W63379  24.350  17.266  14.823  0.1823  0.1086 -0.2903
20467W        W63380  27.167  34.455  15.889 -0.4511 -0.2318  0.5179
20468W        W63381  31.072  17.167   3.527  0.0632 -0.1724  0.0939
20469W        W63382  16.580  18.498  26.921 -0.1168  0.1422 -0.0915
20470W        W63383  18.236  14.785  12.976  0.2085  0.1981  0.1424
20471W        W63384  33.963  22.222   1.490 -0.3421 -0.2771 -0.3172
20472W        W63385  31.631   7.830   1.216  0.0147  0.1448  0.1079
20473W        W63386  28.646  20.886  12.559 -0.1465 -0.1927  0.2255
20474W        W63387   0.566  33.450  27.767  0.0375  0.2522 -0.0522
20475W        W63388   1.839  14.919   6.801  0.0600 -0.3989 -0.0950
20476W        W63389  14.577  18.327  15.595  0.1345  0.0070 -0.1933
20477W        W63390  21.464  31.526  24.696 -0.0051  0.0278 -0.0992
20478W        W63391  23.037  11.230  16.886  0.1491  0.0021 -0.0657
20479W        W63392  16.875  13.879  24.901 -0.2002 -0.0738  0.2197
20480W        W63393  30.275  20.313  23.064  0.0374 -0.1335 -0.2485
20481W        W63394  31.805  18.794  21.317 -0.1432  0.1600 -0.2751
20482W        W63395  26.402   4.947  19.046  0.2783  0.0926  0.1146
20483W        W63396  20.931   6.185  18.057 -0.1339 -0.0892  0.1514
20484W        W63397  28.599  17.963  23.142 -0.2449  0.1208  0.4122
20485W        W63398  10.163  25.779  24.582  0.0162  0.2502  0.1920
20486W        W63399  32.936  17.553  19.977 -0.0868  0.0324  0.0497
20487W        W63400  22.646   9.896  13.395  0.1067  0.1868 -0.0713
20488W        W63401  27.778  16.030  25.840  0.1375  0.0216  0.2351
20489W        W63402   0.468  20.080  26.115  0.0945 -0.2169  0.3982
20490W        W63403  22.387   4.488  21.224 -0.1672 -0.1798 -0.2744
20491W        W63404  21.277  20.344  21.818  0.1280 -0.0406 -0.1391
20492W        W63405  24.321  13.118  20.131 -0.1865  0.1570 -0.0520
20493W        W63406  23.829  21.131  26.620  0.2996  0.0180  0.2892
20494W        W63407  24.323   8.964  22.858  0.2395 -0.0901  0.1645
20495W        W63408  23.139  19.576  14.120  0.3239  0.0240 -0.0161
20496W        W63409  18.033   3.777  23.863 -0.1208  0.0924 -0.0016
20497W        W63410  28.374  16.658   4.158 -0.1737 -0.2563  0.1589
20498W        W63411  18.686  19.503   3.405 -0.1247 -0.1396  0.2330
20499W        W63412  29.840   9.899  20.864 -0.1359 -0.1925  0.2451
20500W        W63413  29.263  25.711   0.904  0.2500  0.3438 -0.2293
20501W        W63414  17.663  10.828   7.811 -0.0924  0.1152  0.1224
20502W        W63415  27.118  15.388   1.146 -0.0699  0.1153  0.2093
20503W        W63416  23.202  12.947  22.494 -0.0262  0.1011  0.0350
20504W        W63417  25.563  14.489  13.835 -0.2647 -0.2198  0.1819
20505W        W63418   2.649  33.303  25.176 -0.0179 -0.0862 -0.2432
20506W        W63419   1.067  15.534  15.510 -0.2690 -0.0206 -0.1026
20507W        W63420  29.020  24.718   5.538 -0.0974 -0.0904 -0.1943
20508W        W63421  24.506  17.014  26.545  0.0750 -0.2098 -0.1599
20509W        W63422  23.818   8.759  22.696  0.0369 -0.0328  0.2202
20510W        W63423  27.799   6.255  22.072 -0.0249 -0.0971  0.0354
20511W        W63424  34.156  10.993  28.952 -0.0180  0.4318  0.0995
20512W        W63425  21.390   8.833   4.325  0.0110 -0.0390  0.0571
20513W        W63426  29.284   7.377  28.832  0.2270 -0.2873  0.2784
20514W        W63427  33.651  14.630  25.051 -0.0031 -0.0758  0.0595
20515W        W63428  29.569  11.571  22.311  0.2017  0.1877  0.2269
20516W        W63429  23.870   8.031   2.528  0.2104  0.0659  0.1730
20517W        W63430  14.274  14.791  22.663  0.0887  0.2596 -0.1498
20518W        W63431  21.189  19.256  15.765  0.0297  0.2514 -0.4608
20519W        W63432  30.942  24.032  24.913  0.1005  0.0865 -0.2456
20520W        W63433  29.192  16.249  25.226  0.2213  0.0102 -0.0909
20521W        W63434  11.478   4.057  25.780  0.2674 -0.1357  0.1599
20522W        W63435  24.065  10.028  20.518 -0.0429 -0.1402  0.1835
20523W        W63436   6.531  14.146  17.845  0.2508  0.2125  0.3082
20524W        W63437  30.432  17.845  25.845 -0.1666  0.4431  0.0192
20525W        W63438  34.305   1.299  23.267  0.1648 -0.3228  0.3287
20526W        W63439  21.207  11.335  15.256 -0.0881 -0.0542  0.0673
20527W        W63440  21.998  12.031  25.372  0.2435 -0.1531  0.2418
20528W        W63441  29.171  18.024  27.430 -0.0986 -0.0629  0.1911
20529W        W63442  30.551  16.089  28.583 -0.3580  0.0580  0.0141
20530W        W63443  10.036   0.887   0.563 -0.0198  0.0065  0.0946
20531W        W63444  24.189   8.459  22.935  0.0194  0.2349 -0.1688
20532W        W63445  27.860  13.658  19.440  0.2872 -0.2470  0.0401
20533W        W63446  23.244   4.742  27.111  0.2975  0.1939 -0.1569
20534W        W63447   0.120  17.451  28.086 -0.0194 -0.2827 -0.1388
20535W        W63448  21.889  22.140  27.711  0.4288 -0.1286 -0.1113
20536W        W63449  24.619  12.236  21.237  0.2098  0.1138 -0.0091
20537W        W63450  30.137   9.233   2.251 -0.0613 -0.0126  0.0626
20538W        W63451  27.525  22.560  17.490 -0.1282 -0.1831  0.1339
20539W        W63452  31.319  11.755  21.168  0.0271  0.1766 -0.1111
20540W        W63453   7.046  22.186  23.015  0.1996  0.4643 -0.2650
20541W        W63454  30.103  20.576  22.298 -0.0571 -0.2459  0.0205
20542W        W63455  33.026  18.624  26.869  0.3876  0.1938 -0.1597
20543W        W63456  30.833  18.570  21.775  0.1600  0.1431  0.0482
20544W        W63457   0.175  12.875   0.039  0.1265  0.2491  0.0591
20545W        W63458   6.368  12.565  24.510 -0.4065  0.0075 -0.0383
20546W        W63459  28.930  17.387  19.303  0.0991 -0.3310  0.1391
20547W        W63460  21.875   8.478   1.738 -0.0977  0.4545 -0.2322
20548W        W63461  18.232  33.552  24.824 -0.0149  0.1748 -0.0597
20549W        W63462  20.265   1.288  20.671 -0.0905 -0.4573 -0.1587
20550W        W63463  18.589  10.390  16.597 -0.2486  0.1866 -0.2715
20551W        W63464  16.621  17.231  26.365 -0.2164  0.2785 -0.2840
20552W        W63465  26.960   9.734   3.728  0.1520 -0.0623  0.3040
20553W        W63466   5.375   6.898  20.828 -0.0462 -0.0305  0.0207
20554W        W63467  32.954  18.188  26.653 -0.1364 -0.1173  0.3982
20555W        W63468  32.091   4.098  28.855 -0.1800  0.0834 -0.0376
20556W        W63469  27.318  16.433  14.212  0.0875 -0.0758 -0.3811
20557W        W63470   5.906   7.321   4.858  0.2210 -0.0293  0.0177
20558W        W63471  27.898  11.301  19.028 -0.0612 -0.2073  0.1338
20559W        W63472   4.823   2.965   5.797 -0.0561  0.0524 -0.1652
20560W        W63473   2.642  11.315   2.461 -0.1149 -0.1721 -0.1221
20561W        W63474  26.640  13.775  16.796  0.1373  0.1097 -0.1036
20562W        W63475   2.984  19.652  24.234  0.2073  0.2294  0.0660
20563W        W63476  19.436  19.335  22.099  0.2028 -0.3150 -0.2216
20564W        W63477  30.050  31.123  24.111  0.4288  0.1901  0.1206
20565W        W63478  23.760   7.075   2.131 -0.0170 -0.1465 -0.1166
20566W        W63479  34.110  15.097   8.245  0.0115 -0.0867 -0.1491
20567W        W63480  29.825   4.405  28.240  0.0896 -0.1609 -0.1229
20568W        W63481  26.018  18.853  27.769 -0.2111 -0.0349 -0.0348
20569W        W63482  20.004   8.909   1.283 -0.0080 -0.1545 -0.3090
20570W        W63483  24.146  21.545  22.005 -0.2225  0.1020  0.0252
20571W        W63484  19.308   6.780   8.962  0.3190 -0.1267 -0.0248
20572W        W63485  31.297   2.175  23.152  0.2922  0.0789  0.0262
20573W        W63486  33.383  19.227  22.901  0.1328 -0.1309 -0.0983
20574W        W63487  29.382  13.464   2.793  0.0348  0.1726 -0.0378
20575W        W63488  20.209  11.092  25.433  0.2197  0.0435 -0.1092
20576W        W63489  28.455   4.438  26.942  0.1110 -0.0600 -0.0891
20577W        W63490  31.935  18.077  25.710  0.3379  0.3139  0.1514
20578W        W63491  32.170  25.540  26.186 -0.0482 -0.0469 -0.2031
20579W        W63492  16.819  23.264  17.264 -0.0080  0.2038 -0.0774
20580W        W63493   0.719  17.015   4.990 -0.0645  0.3517  0.1610
20581W        W63494  27.534  13.805   3.053 -0.1208 -0.1045  0.1145
20582W        W63495  22.926  20.381  29.711  0.0931 -0.0488 -0.3196
20583W        W63496  18.493  15.194   4.012 -0.0991 -0.3366 -0.2382
20584W        W63497  23.239   9.891   0.110  0.4858 -0.1553  0.2716
20585W        W63498  31.388  13.175  19.555 -0.0777 -0.0325 -0.1714
20586W        W63499   0.034  11.265   7.881 -0.0105 -0.1229  0.0995
20587W        W63500  20.881  22.472   2.438  0.0602 -0.0574  0.1806
20588W        W63501  28.477  18.829  29.171  0.0135  0.0951  0.3124
20589W        W63502  21.667  15.068  16.735  0.2444  0.1881 -0.1863
20590W        W63503  28.503  21.427   6.050 -0.2047 -0.2341 -0.0571
20591W        W63504  20.321   7.452  16.752  0.3296 -0.0515 -0.0611
20592W        W63505  19.552  32.373  23.319 -0.0769  0.1437 -0.2006
20593W        W63506  18.638   9.929  23.835  0.1069 -0.1955 -0.1662
20594W        W63507  31.348  10.548  29.192  0.0967  0.1252 -0.0431
20595W        W63508  22.820  10.967  28.198 -0.0908 -0.0409 -0.0261
20596W        W63509  18.112   0.867   0.506 -0.1653 -0.0239 -0.1196
20597W        W63510   0.031  15.476  25.636  0.1222 -0.1836  0.0707
20598W        W63511  21.782   9.930  26.482 -0.2100  0.0589  0.3887
20599W        W63512  32.745  25.098  25.278 -0.3170 -0.1893 -0.2301
20600W        W63513  20.502  10.340  28.308  0.0385  0.0451  0.2196
20601W        W63514  22.020   6.782   6.384 -0.0519 -0.1834  0.1798
20602W        W63515  29.360  13.031   3.833 -0.0544 -0.0662 -0.0227
20603W        W63516  27.269  18.112   2.779 -0.0006 -0.0686 -0.1545
20604W        W63517   5.681  33.729  24.383 -0.0335 -0.2229 -0.0731
20605W        W63518  27.178  21.552  28.032 -0.0616 -0.1324  0.1759
20606W        W63519  32.922  25.960  19.865  0.0057 -0.3383 -0.2332
20607W        W63520  31.531  20.078  21.989  0.0263 -0.1126 -0.3774
20608W        W63521  18.220   9.340   1.302  0.2858  0.3198  0.0568
20609W        W63522  29.808   3.986  17.607 -0.4366  0.1318 -0.1602
20610W        W63523  17.055  23.674  17.688  0.2594  0.2588  0.0316
20611W        W63524  29.944  18.627  19.562 -0.0000  0.0600  0.1297
20612W        W63525  18.555  23.207  23.957  0.4511 -0.0567 -0.0483
20613W        W63526  20.974  19.121  26.979 -0.2771 -0.2219 -0.0318
20614W        W63527  23.181   8.339  29.286  0.0758 -0.0068 -0.1489
20615W        W63528  10.688  15.342  27.025  0.1955 -0.0132  0.3356
20616W        W63529  22.563  13.956  25.567  0.1076 -0.2483 -0.2166
20617W        W63530  30.794  15.129   9.282 -0.4133 -0.0195  0.2545
20618W        W63531  18.135   5.139   2.143 -0.2167 -0.2246  0.1851
20619W        W63532  30.885  14.424  23.953  0.1182  0.0129 -0.2494
20620W        W63533  21.294   8.693  26.879 -0.0996 -0.0225 -0.1475
20621W        W63534  24.291  27.369  27.149  0.0225  0.0806 -0.0218
20622W        W63535   7.610   8.028  23.176 -0.1105  0.0368  0.0510
20623W        W63536  24.197   7.578  28.630 -0.3024 -0.1290  0.1580
20624W        W63537  19.600   7.738  26.199  0.1702 -0.0585  0.0927
20625W        W63538  28.952   9.310  20.914  0.1460  0.0923 -0.1082
20626W        W63539  29.745  23.310  25.120  0.0249  0.1944 -0.1828
20627W        W63540  28.530  22.339   7.893  0.0239  0.0100 -0.0516
20628W        W63541  23.561   7.926  21.511  0.1582 -0.3471 -0.1937
20629W        W63542  29.485  10.784   2.850 -0.3495 -0.1550  0.0204
20630W        W63543  29.607   8.515   0.866  0.3529 -0.2416  0.4361
20631W        W63544  22.500  14.435  29.655  0.1070 -0.1038 -0.2174
20632W        W63545  25.264   9.398  29.051  0.3608 -0.0226 -0.1521
20633W        W63546  20.854   7.546  20.326 -0.4730 -0.1726 -0.1414
20634W        W63547  10.330   8.588  11.653 -0.0320  0.1673  0.2144
20635W        W63548  22.228   2.742  27.322  0.1818  0.1344  0.1646
20636W        W63549  20.812  14.881  27.580 -0.1740  0.2043  0.0790
20637W        W63550   1.819  14.628  24.892  0.1745 -0.1547 -0.1148
20638W        W63551  29.836  17.839   2.508  0.2654  0.1094 -0.1267
20639W        W63552  32.804  12.146  21.624  0.1353  0.1566 -0.0484
20640W        W63553  26.691  17.751   6.562 -0.1029  0.0390  0.0380
20641W        W63554   5.173  21.207  24.143 -0.1585  0.1105  0.2768
20642W        W63555  26.812  10.747   2.177 -0.0354  0.2801 -0.0808
20643W        W63556  23.479  26.991  28.283  0.3303 -0.2409  0.2153
20644W        W63557  16.215   3.726   0.316  0.1072 -0.0724  0.1987
20645W        W63558  27.149   9.026   7.230 -0.0643  0.0114 -0.0927
20646W        W63559  31.764   9.549  18.809  0.2769  0.1305  0.2789
20647W        W63560  25.363   2.480  25.491 -0.1875  0.0328  0.0232
20648W        W63561  15.161  14.631  23.352 -0.0526  0.0638  0.2265
20649W        W63562  26.270  12.002  25.249 -0.0704  0.0801  0.2584
20650W        W63563  33.243  18.390  29.615  0.0556  0.1168 -0.0321
20651W        W63564  30.935  12.274   5.376 -0.2092  0.1925 -0.0160
20652W        W63565  26.772  13.458   2.551  0.1781 -0.1745  0.0410
20653W        W63566  32.448  14.633  25.350 -0.0496  0.3048 -0.0202
20654W        W63567  31.940  21.998  26.167  0.0405  0.0853 -0.1948
20655W        W63568  29.238  23.842  27.579 -0.2467  0.5586 -0.0376
20656W        W63569  27.063   6.896   7.100 -0.1184  0.3384 -0.1111
20657W        W63570  23.253  21.573   4.524  0.0205 -0.3819  0.3097
20658W        W63571  21.728  12.355   2.127  0.2809  0.3986 -0.3163
20659W        W63572  20.462  11.743  24.764  0.1992  0.0629  0.2267
20660W        W63573  26.288   9.682   5.250  0.0678 -0.2951 -0.0643
20661W        W63574  16.581  10.896  24.284  0.0274  0.5643  0.1863
20662W        W63575  27.448   4.824  29.406 -0.2430 -0.2033  0.2297
20663W        W63576  17.692   8.783  26.626 -0.0981  0.1787  0.1010
20664W        W63577  28.445  18.135  25.488 -0.1633 -0.0872 -0.0798
20665W        W63578   0.731  28.374   2.965 -0.0555 -0.2440 -0.1398
20666W        W63579  22.057  25.619  23.793 -0.0460 -0.0213  0.4176
20667W        W63580  27.271   2.176  23.307 -0.1669 -0.1991 -0.1196
20668W        W63581  17.767  12.856  22.019 -0.1865 -0.0072 -0.1536
20669W        W63582  28.317  30.669  22.663  0.1275  0.1267 -0.1692
20670W        W63583  26.281   3.193  29.346  0.0152  0.2867  0.3516
20671W        W63584  22.157  13.842  25.308  0.1434  0.0961  0.0002
20672W        W63585  25.286  16.694  24.121 -0.0858 -0.1083 -0.1415
20673W        W63586  19.301   4.618   2.712 -0.2611 -0.2364 -0.1299
20674W        W63587  16.395  15.101   0.622 -0.1483  0.2633  0.2495
20675W        W63588   2.431  12.589  24.049 -0.5019 -0.3104  0.0936
20676W        W63589  21.910   9.247   8.107 -0.0847  0.0097 -0.0631
20677W        W63590  26.333  11.058  21.238  0.0609  0.4404  0.1301
20678W        W63591  19.505  15.767  24.763 -0.1613 -0.2875 -0.0108
20679W        W63592  29.448   9.370  14.589  0.0239 -0.1801 -0.2522
20680W        W63593   6.450  16.610  28.743  0.2373 -0.0205  0.0188
20681W        W63594  30.047  16.455  29.447  0.2502 -0.1712 -0.1198
20682W        W63595   0.112   7.438  21.282 -0.0671  0.2932 -0.0938
20683W        W63596  21.213  15.919  22.347 -0.1118 -0.0651  0.1777
20684W        W63597  22.846   7.062   4.452 -0.2565 -0.3222 -0.1932
20685W        W63598  30.993  19.351  28.426  0.2463  0.0809  0.0155
20686W        W63599  25.085  10.294  17.923  0.3497 -0.1237  0.0103
20687W        W63600  25.950   7.386   9.788  0.0372 -0.1289 -0.0544
20688W        W63601  18.395  18.563   2.851 -0.2904  0.2192  0.1211
20689W        W63602  28.049  19.557   7.600  0.2186  0.2150  0.1102
20690W        W63603  20.334  15.193  23.638  0.1673  0.0467  0.3291
20691W        W63604  23.089  20.085   2.099 -0.1748  0.1863  0.2515
20692W        W63605  25.670   9.783   4.356 -0.1093 -0.0226  0.1306
20693W        W63606  28.990  13.196  25.724 -0.0304 -0.0768 -0.0530
20694W        W63607  31.376  16.044  26.979 -0.0483 -0.1808 -0.0216
20695W        W63608   3.773  13.982  22.046  0.2185 -0.0003  0.1625
20696W        W63609   9.774  12.943  24.669 -0.2785  0.1912  0.2662
20697W        W63610  27.978   3.289  27.140 -0.0064 -0.3417 -0.1900
20698W        W63611   0.325   5.437  17.152 -0.3570  0.3295  0.0384
20699W        W63612  27.911  13.579   5.148 -0.0813  0.0440 -0.0151
20700W        W63613   2.638  15.887  26.756  0.1058  0.1684 -0.1346
20701W        W63614   2.788  21.924  16.095  0.0159  0.0048  0.0938
20702W        W63615  24.920   8.353  19.639 -0.0371 -0.2430 -0.0131
20703W        W63616   3.097  14.625  20.670 -0.1997 -0.2042  0.1489
20704W        W63617   5.837   6.252  22.324  0.0417 -0.1363  0.1302
20705W        W63618  18.611  12.330  26.868 -0.4736  0.0992  0.0476
20706W        W63619  16.132  18.478   2.183 -0.0038 -0.3538  0.1173
20707W        W63620   1.369  33.503  24.953  0.1731  0.0236  0.1485
20708W        W63621  19.059   6.493   0.702  0.0798 -0.2197 -0.1362
20709W        W63622  27.097  16.551  26.642  0.2765  0.1020  0.0918
20710W        W63623  32.182   6.036   1.828  0.0583  0.1323  0.0920
20711W        W63624  30.042  31.221  20.056 -0.3132  0.0632  0.2160
20712W        W63625  24.677  18.661   0.350 -0.1792 -0.1855  0.0705
20713W        W63626  23.274  29.153  19.025  0.0955  0.0514 -0.0287
20714W        W63627  32.094  16.479  29.133  0.1892  0.2307 -0.1077
20715W        W63628  22.810  22.330  22.506  0.1312  0.1386 -0.0910
20716W        W63629  33.754  18.387   3.126 -0.0604  0.1204 -0.0090
20717W        W63630   1.070  17.206  25.468 -0.2813  0.0480  0.2470
20718W        W63631  20.333  10.514  18.817 -0.1379 -0.1773  0.0020
20719W        W63632  25.401   6.812  19.713  0.0068 -0.1038 -0.0109
20720W        W63633  22.317  22.038  18.696 -0.0351 -0.0707  0.0583
20721W        W63634  30.363  16.981   2.667  0.1106 -0.0329  0.0697
20722W        W63635  23.595  11.526  29.555  0.2633  0.1248 -0.1281
20723W        W63636  30.944   4.142   4.898  0.3195  0.1268 -0.1596
20724W        W63637  26.015  11.906  21.650 -0.0034  0.2291 -0.2253
20725W        W63638  29.771   2.294   6.109  0.2285  0.1263 -0.2357
20726W        W63639  30.347  16.435   0.070 -0.0407 -0.1452  0.0916
20727W        W63640  20.658  14.239  16.994 -0.0888 -0.1564 -0.3498
20728W        W63641  16.373  12.003  16.091 -0.0915 -0.1739 -0.0355
20729W        W63642  29.091   3.903  16.072 -0.1165 -0.2378 -0.0027
20730W        W63643  26.247  23.815  22.933 -0.1494 -0.0680 -0.0536
20731W        W63644  19.452  17.121   0.736 -0.0866  0.0830 -0.1283
20732W        W63645  23.124   3.959  22.071  0.0448 -0.2329  0.0992
20733W        W63646  28.974   9.255  19.569 -0.2515 -0.0066 -0.1173
20734W        W63647  22.354   8.701   1.812  0.3947  0.0270 -0.1133
20735W        W63648  16.080  10.068  26.415  0.2642  0.0960  0.2464
20736W        W63649  33.318  12.881  25.486 -0.1021 -0.0468 -0.1092
20737W        W63650   0.415  23.156  18.924 -0.1587 -0.0348 -0.1674
20738W        W63651  23.862  12.983  19.524  0.0400 -0.3044 -0.0832
20739W        W63652  25.700  14.591  26.522 -0.0200  0.0366 -0.1228
20740W        W63653  23.776   2.657  26.554  0.1787  0.0868  0.3671
20741W        W63654   0.883  26.393  22.122 -0.0001  0.1006  0.4321
20742W        W63655  31.740   0.911  18.541 -0.1383 -0.0513 -0.1467
20743W        W63656  17.324   6.718  21.247 -0.0230  0.3923 -0.0949
20744W        W63657  24.935  12.027  23.295  0.1008 -0.4765  0.0303
20745W        W63658  15.295  21.053  19.261  0.2019 -0.1631 -0.0618
20746W        W63659  28.612  25.212   4.854  0.0452  0.1984 -0.1287
20747W        W63660  19.312  19.361   4.276 -0.1554 -0.4242 -0.1548
20748W        W63661  30.760  17.262   7.524 -0.1598 -0.2638 -0.1507
20749W        W63662  30.448  10.805  29.388 -0.0690 -0.0414  0.1089
20750W        W63663  16.928  14.003  15.497 -0.0705 -0.0547  0.3533
20751W        W63664  20.499  18.326  22.665 -0.2208  0.1233 -0.2554
20752W        W63665  22.204  16.032  23.063 -0.2041 -0.1439  0.0891
20753W        W63666  26.766  20.487  20.430  0.1242  0.0627 -0.0981
20754W        W63667  22.572   2.459   7.927  0.1816 -0.0558 -0.1616
20755W        W63668  29.186   9.611  22.411  0.1222 -0.0547 -0.2143
20756W        W63669  26.647  13.061   1.214  0.0812  0.0391 -0.2737
20757W        W63670  30.576  11.855  29.412 -0.0545 -0.0579 -0.1949
20758W        W63671  33.088  11.005   2.292 -0.0865  0.1567  0.0025
20759W        W63672  25.381  19.520  26.649  0.1150  0.0001 -0.1765
20760W        W63673  24.666  15.035  29.695 -0.0457 -0.0102 -0.0239
20761W        W63674  26.285  17.763  21.882 -0.1212 -0.1405  0.5445
20762W        W63675  29.478  15.900  22.252 -0.2141 -0.2047  0.0230
20763W        W63676  29.105  14.726  27.417  0.1514 -0.2206  0.1540
20764W        W63677  22.763  17.212   2.222 -0.1376  0.3321  0.0463
20765W        W63678  28.194  20.099  28.421 -0.4041 -0.0451 -0.0589
20766W        W63679  11.933   0.214   2.184  0.2328 -0.0601 -0.0806
20767W        W63680  30.071   3.821  26.446 -0.5037  0.0853 -0.1451
20768W        W63681  34.233  10.326  28.690  0.0304  0.1646  0.2390
20769W        W63682  33.872  13.037  18.144  0.0459 -0.0044 -0.2559
20770W        W63683   3.439  12.780   2.406 -0.0115 -0.0514  0.0657
20771W        W63684  28.677  15.309  26.790 -0.1362 -0.2067 -0.2134
20772W        W63685  26.347  24.659  28.492  0.0932  0.1809  0.2508
20773W        W63686  30.501  13.023  25.379  0.2967  0.0973  0.4777
20774W        W63687  24.326  19.815  26.158  0.1054  0.3183  0.0920
20775W        W63688  25.611  26.199  25.732 -0.3595  0.0276 -0.1140
20776W        W63689  28.809   9.561  27.849  0.2281  0.0977 -0.1533
20777W        W63690  31.648   7.402  27.196  0.0750 -0.3923  0.2161
20778W        W63691  32.043   7.950  24.911 -0.0455  0.2058  0.1480
20779W        W63692  31.975  15.436  27.351  0.1660 -0.3874 -0.0014
20780W        W63693  28.399  17.363   1.036 -0.1701 -0.1423 -0.0300
20781W        W63694   0.369   3.282   5.199 -0.2005  0.0000 -0.0661
20782W        W63695  25.076  22.299   2.272  0.0311 -0.1853 -0.0743
20783W        W63696  14.720   7.537  27.713  0.0298  0.0024 -0.0400
20784W        W63697  29.177  13.740  20.898 -0.2115  0.0640 -0.0388
20785W        W63698  22.559  17.482  21.232 -0.0308 -0.0245 -0.1198
20786W        W63699  19.988   6.329  27.077 -0.2444 -0.0859 -0.0035
20787W        W63700  24.787   9.772  23.304 -0.1678 -0.1562  0.0276
20788W        W63701  19.903  14.486  24.127  0.0392  0.1051  0.3471
20789W        W63702  33.522  14.599  25.561  0.0397 -0.0208  0.0710
20790W        W63703  25.875  10.593  18.502  0.0490  0.4435  0.0550
20791W        W63704  23.018  18.476   3.156 -0.1253 -0.2666  0.0845
20792W        W63705  33.577  16.447  24.339  0.1200 -0.0879  0.2201
20793W        W63706  32.444  16.500   2.732 -0.2719 -0.0790 -0.0278
20794W        W63707  28.686   8.052  28.449  0.2437  0.0639  0.1016
20795W        W63708  14.270  14.868  29.548  0.2514  0.0136  0.0018
20796W        W63709  24.479  15.898   3.566  0.2129 -0.3253  0.0526
20797W        W63710  16.335   9.922  26.802 -0.1924  0.4033 -0.1681
20798W        W63711  23.661   6.528  24.978 -0.0244  0.1606 -0.1966
20799W        W63712   0.639  33.064  22.131  0.0571 -0.1244 -0.0541
20800W        W63713  29.545  12.214  19.177  0.0483 -0.0740  0.4763
20801W        W63714  15.904   6.295  20.104 -0.0070 -0.3212  0.2381
20802W        W63715  19.333   9.057  24.498  0.0504  0.1868  0.2080
20803W        W63716   0.435  24.494  20.441 -0.0039 -0.2031 -0.1184
20804W        W63717  23.302   6.030  22.196 -0.3710  0.1461 -0.0552
20805W        W63718  33.634   6.699   1.840  0.1086  0.2396  0.2279
20806W        W63719  15.548   2.468  26.677  0.1280 -0.1053 -0.1103
20807W        W63720  22.677  12.220  21.900  0.2937 -0.0839 -0.0295
20808W        W63721  28.837   2.177  24.008 -0.1169  0.0372  0.0652
20809W        W63722  25.040  19.256   3.202 -0.1002 -0.1099  0.0444
20810W        W63723   0.825   6.259   9.915 -0.3735 -0.1652  0.0537
20811W        W63724  24.219  11.627   5.128  0.1769 -0.1625 -0.1868
20812W        W63725  21.782  14.488   3.486 -0.1300 -0.2830 -0.1204
20813W        W63726  22.190   4.744  29.269 -0.0341  0.3024  0.0304
20814W        W63727   5.705   7.804   4.226  0.0338 -0.0193  0.1588
20815W        W63728  30.247  23.345   0.091  0.2401  0.3337 -0.1628
20816W        W63729  31.521  13.562  27.383 -0.2346 -0.1711 -0.2964
20817W        W63730  28.941  14.272  18.429 -0.1313  0.0362 -0.0770
20818W        W63731  26.683  14.510   1.493 -0.0470  0.1250 -0.2353
20819W        W63732  27.600  30.639   0.258 -0.4116  0.4231  0.0756
20820W        W63733   1.987  10.887   3.678 -0.0023  0.3409 -0.0300
20821W        W63734  20.700  19.922   2.382  0.5668  0.0708 -0.0702
20822W        W63735  30.450  19.057  23.929  0.1412  0.2279 -0.3029
20823W        W63736  25.912  14.747  20.606 -0.0867  0.3583 -0.2079
20824W        W63737  21.972  17.181  13.766 -0.1313  0.0125 -0.1743
20825W        W63738  29.206  10.723  25.144  0.1199  0.3203  0.1329
20826W        W63739  32.186  16.878   3.105 -0.0319 -0.0451  0.0259
20827W        W63740  30.602  24.018  25.352 -0.1260 -0.0920  0.3685
20828W        W63741  29.859  19.256   3.231 -0.1008 -0.1432 -0.0790
20829W        W63742  31.536  14.101   5.597  0.1671 -0.2261 -0.2585
20830W        W63743  25.669   8.222  16.627 -0.0713 -0.4022 -0.1356
20831W        W63744   0.980  26.143   2.591 -0.2250 -0.0386  0.0349
20832W        W63745  17.058  25.049  26.338 -0.0109 -0.0946 -0.0339
20833W        W63746  22.861  12.972  27.429  0.3902  0.2218 -0.1191
20834W        W63747  16.688  13.085  12.915  0.2431 -0.3440  0.0849
20835W        W63748  22.336   1.751  29.709 -0.3453  0.1733 -0.3641
20836W        W63749  28.499  18.956  23.563 -0.1027  0.1442 -0.0507
20837W        W63750  20.394  14.719  20.845  0.1809  0.1256  0.0930
20838W        W63751  27.277   5.624   0.118  0.1388  0.1438 -0.2473
20839W        W63752   7.663   3.669  24.161 -0.2883 -0.1358  0.0424
20840W        W63753  22.951  16.002  28.104 -0.0087  0.0163 -0.5614
20841W        W63754  31.735  26.727  18.692 -0.0174 -0.0133 -0.0300
20842W        W63755  26.605   7.389  28.473 -0.0525 -0.0946  0.1867
20843W        W63756  23.268  10.111  16.894  0.3145 -0.2721 -0.1039
20844W        W63757  20.185  10.642   9.049  0.0279  0.4058 -0.1430
20845W        W63758  27.822  13.522   1.629  0.2086  0.0085 -0.1474
20846W        W63759   0.495  23.535   4.386 -0.1092  0.0192  0.0258
20847W        W63760  25.583  21.133  21.524 -0.2679  0.5318  0.1224
20848W        W63761  24.153  26.340  21.302 -0.2863 -0.0852  0.3243
20849W        W63762  26.063  28.384  23.962 -0.0294  0.0650  0.0915
20850W        W63763  18.831  14.916  15.740 -0.2372  0.0796  0.1535
20851W        W63764  29.944  14.635  23.896 -0.2909 -0.0742 -0.3058
20852W        W63765  25.494  16.374   4.845 -0.0138 -0.2129  0.0894
20853W        W63766   2.741   3.380  26.474  0.0997 -0.1159  0.0461
20854W        W63767  30.560  17.039  22.874 -0.2288  0.1384  0.1317
20855W        W63768  26.039   6.896  13.908 -0.3092  0.1591 -0.1305
20856W        W63769  21.304  15.804  27.416 -0.0718 -0.1580  0.1204
20857W        W63770  17.298   9.590  27.880  0.2351 -0.0933 -0.0742
20858W        W63771  24.063  11.537   1.481  0.2140 -0.2621  0.2186
20859W        W63772  23.842   7.691  24.851 -0.0689 -0.2225  0.1998
20860W        W63773  28.683  17.208  19.715 -0.1909  0.2049  0.3278
20861W        W63774  15.800  13.761  22.178  0.0236  0.2105  0.1480
20862W        W63775  27.801   5.353  28.023 -0.1612  0.1841  0.1198
20863W        W63776  23.216   5.104  27.462 -0.2807 -0.0363  0.0173
20864W        W63777  24.368  23.637   0.800 -0.1775 -0.2318 -0.3239
20865W        W63778  27.140  16.827  25.568 -0.2448  0.0603 -0.1339
20866W        W63779   1.889  11.960  23.833  0.0203 -0.0811 -0.0200
20867W        W63780  29.665   9.278  15.626 -0.0566  0.2919 -0.1329
20868W        W63781   1.843  13.651  25.268  0.0739 -0.2481 -0.0852
20869W        W63782  16.732  16.996  25.045  0.1520 -0.1845  0.0297
20870W        W63783  31.165  11.196  17.964 -0.1432  0.1364  0.0724
20871W        W63784  34.085  15.994  21.093 -0.0901  0.0192 -0.0634
20872W        W63785  28.151  16.399  29.625  0.0882  0.2057 -0.0583
20873W        W63786  20.159  12.164  21.154 -0.0395  0.1881 -0.0602
20874W        W63787  32.188  21.888  24.624 -0.1386  0.0885 -0.0219
20875W        W63788  30.821  13.018  19.023  0.0021 -0.2279 -0.2414
20876W        W63789  23.014  32.287  29.344  0.2111  0.2847 -0.0970
20877W        W63790  23.555  17.378  29.644 -0.1625 -0.0405 -0.0686
20878W        W63791   0.212  18.774  23.805 -0.2556  0.0222  0.1716
20879W        W63792   8.133  24.035   9.640 -0.0133 -0.1543 -0.0985
20880W        W63793  23.586  23.573  23.101 -0.2978  0.3359  0.1449
20881W        W63794  34.350   3.878  22.901  0.2101  0.0918  0.0666
20882W        W63795  30.739  24.072  23.360 -0.0360  0.0830  0.1384
20883W        W63796  29.755  12.053   1.614 -0.3329  0.1508 -0.0702
20884W        W63797  27.299  19.665   6.564  0.0883  0.3783  0.0151
20885W        W63798  29.405  23.438  29.262  0.0016 -0.2244 -0.0464
20886W        W63799  23.738  25.830   4.360 -0.1319  0.2821  0.2476
20887W        W63800  28.351  12.160  26.199  0.2417  0.1130 -0.1370
20888W        W63801   5.240  14.407  15.519  0.1484  0.3640 -0.1652
20889W        W63802  18.395   6.511  23.496  0.1278  0.0169 -0.1916
20890W        W63803   1.361  11.272  24.857  0.2409 -0.0555 -0.3030
20891W        W63804  30.926  14.792   4.872 -0.1790 -0.0833  0.0584
20892W        W63805   1.420  21.418   1.579 -0.3042 -0.2456 -0.3739
20893W        W63806   2.989   2.212  26.176 -0.1805  0.1256  0.0313
20894W        W63807  15.102   5.343  27.756  0.2382 -0.0354  0.0285
20895W        W63808  20.209   5.402  28.637 -0.2318 -0.0464 -0.3753
20896W        W63809  26.141  20.502   1.464  0.0884 -0.2890 -0.0155
20897W        W63810  26.712  25.509   1.599 -0.3219 -0.1660 -0.1551
20898W        W63811  15.354  12.379  25.812  0.0360  0.1921 -0.0274
20899W        W63812  28.855   9.387  27.259  0.0802  0.0830 -0.3895
20900W        W63813  24.394  19.533   4.376 -0.0530 -0.3545  0.0760
20901W        W63814  32.722  19.264   1.329  0.0563  0.2503  0.3584
20902W        W63815  22.923  11.446  28.082  0.4604 -0.2066  0.2882
20903W        W63816  25.540  17.232  27.274  0.0046 -0.0022  0.1982
20904W        W63817  14.575  14.689  28.243 -0.1968 -0.3505 -0.1721
20905W        W63818  25.568   5.399  23.967  0.1536 -0.2329 -0.1343
20906W        W63819  22.045  14.182  15.431 -0.2119 -0.1638  0.2337
20907W        W63820  25.720  15.483  27.562  0.0219 -0.0169 -0.2893
20908W        W63821  19.462  12.127  26.911 -0.3354 -0.0936 -0.0483
20909W        W63822   3.152   0.582  21.731 -0.1907 -0.0707 -0.2601
20910W        W63823   1.264  20.382   1.756  0.0238 -0.0420  0.2735
20911W        W63824  17.349  11.411  26.516 -0.2223  0.2044 -0.4553
20912W        W63825  23.874  18.137  27.227 -0.2029  0.1280  0.0678
20913W        W63826  30.712   8.602  17.547  0.1934  0.2708  0.3429
20914W        W63827  20.952  10.063  28.091  0.0814  0.1034 -0.1827
20915W        W63828   2.946  17.223  28.723 -0.1574  0.0691  0.1458
20916W        W63829  31.102  22.183   3.318 -0.0553 -0.0030  0.0506
20917W        W63830  27.933  12.834  19.976  0.0275 -0.2039 -0.1607
20918W        W63831  20.446  12.295  21.583 -0.0589  0.2985 -0.1062
20919W        W63832  20.749  21.945   1.389 -0.1019  0.0502 -0.1862
20920W        W63833  26.033  14.353  29.102  0.1058 -0.3133 -0.0039
20921W        W63834  21.908  17.892  28.761 -0.2030 -0.2308 -0.2520
20922W        W63835  34.238   5.283  20.785 -0.1235 -0.0972 -0.0034
20923W        W63836  17.646  12.439   1.965  0.2338  0.2205  0.1109
20924W        W63837  21.671  10.696  22.652 -0.0531  0.2397 -0.0794
20925W        W63838  33.780  15.989   6.866 -0.2318 -0.0581 -0.5654
20926W        W63839   9.966  10.024  17.883  0.0032  0.1048 -0.1826
20927W        W63840  25.139  16.070   7.745 -0.1049  0.0320  0.0102
20928W        W63841  23.280  17.137  23.660 -0.5466  0.0004  0.1382
20929W        W63842  22.165  14.289   4.309 -0.3438 -0.1724  0.4010
20930W        W63843  31.428  27.167  20.317  0.2828 -0.2440 -0.1864
20931W        W63844  25.825  33.503  25.678  0.1300  0.0140 -0.3342
20932W        W63845   4.445  19.405   7.560 -0.0087 -0.0812 -0.0621
20933W        W63846  25.583  15.610   5.547  0.1106  0.0121  0.2701
20934W        W63847  32.132  16.791   1.624  0.1498 -0.2114 -0.2719
20935W        W63848  30.795  17.057  27.721 -0.1106  0.0075  0.0060
20936W        W63849  24.671  19.345  28.230  0.1259  0.0798 -0.2633
20937W        W63850   3.316  26.751   3.829 -0.1123 -0.2557 -0.0294
20938W        W63851  29.040  16.511   6.409  0.1502 -0.0662  0.1923
20939W        W63852  30.230  12.073  22.686 -0.3212 -0.1096  0.1081
20940W        W63853  21.634  17.873   0.390  0.1598 -0.0721 -0.3616
20941W        W63854  25.326  32.702   9.415 -0.0249  0.3086  0.1978
20942W        W63855   0.222   8.987  18.613 -0.0874 -0.0844 -0.2880
20943W        W63856   4.739  11.504  22.098  0.1096  0.2745  0.0074
20944W        W63857  26.168  17.377   3.704  0.1645 -0.0946  0.4397
20945W        W63858  12.124  13.456  19.022 -0.3802  0.0011 -0.0530
20946W        W63859  26.393  15.185  26.542  0.0585 -0.2496  0.1093
20947W        W63860   8.181   7.081  25.362  0.0419  0.2726 -0.1616
20948W        W63861  23.109   4.348  20.875 -0.0944  0.1311  0.0555
20949W        W63862  27.353  10.843  25.381 -0.3704  0.0294 -0.2362
20950W        W63863  18.918   9.620   9.377 -0.0144 -0.1595  0.0655
20951W        W63864  18.154  13.968  29.532  0.2687  0.0434 -0.0274
20952W        W63865  25.439   4.191   3.662 -0.0476  0.1975  0.2032
20953W        W63866  29.622  16.050  25.093 -0.0736 -0.1975  0.0226
20954W        W63867  26.580  14.578   4.448  0.2624  0.1019  0.1510
20955W        W63868  30.593  17.401   8.166  0.2364  0.1283 -0.7311
20956W        W63869  27.776  22.400   1.109  0.0120  0.3903 -0.2357
20957W        W63870   2.269  12.099   9.551  0.0801 -0.0689  0.0132
20958W        W63871  27.038  18.558  29.637 -0.3731 -0.0892 -0.0411
20959W        W63872  32.419  21.781  20.700  0.0351 -0.0913  0.2642
20960W        W63873  25.727  18.270  25.354 -0.0437 -0.0269  0.0168
20961W        W63874  28.337   7.290   6.433 -0.1317 -0.2176  0.3673
20962W        W63875  25.260   8.675   9.232  0.3780 -0.0185 -0.2318
20963W        W63876  26.328   7.789  24.127 -0.1138  0.1488  0.0146
20964W        W63877  16.704  14.173  25.960  0.2353 -0.3827  0.1865
20965W        W63878  25.106  11.182  27.703 -0.0487  0.1514 -0.3386
20966W        W63879   2.322  10.663   0.404  0.0134  0.2879 -0.0745
20967W        W63880  31.527  16.674  27.661 -0.0134 -0.4437  0.1058
20968W        W63881  28.676  19.168  29.701  0.3106  0.0459  0.0148
20969W        W63882   3.053  10.874  23.308 -0.0303 -0.3463  0.0578
20970W        W63883  17.639  10.603  28.067  0.1048  0.0612 -0.1352
20971W        W63884  21.070  21.531  29.750 -0.0670  0.0975 -0.0820
20972W        W63885  28.472  21.891   0.659  0.2863  0.0274  0.0355
20973W        W63886  13.031   5.414   4.588 -0.4812  0.2200  0.0583
20974W        W63887  16.073  23.597  19.072 -0.1648 -0.3811 -0.0121
20975W        W63888  17.542  12.373  21.757  0.2931  0.1043  0.0544
20976W        W63889  31.469  11.879  14.644  0.3053  0.1755  0.0152
20977W        W63890  13.757   8.999  20.087 -0.4357  0.2235 -0.1423
20978W        W63891  26.525  23.099  20.853 -0.1805 -0.0318 -0.0775
20979W        W63892  17.961  14.880  27.440  0.3727 -0.0287 -0.1885
20980W        W63893  25.987  15.375   1.596 -0.0552 -0.1563  0.1730
20981W        W63894  20.717   5.969   0.578 -0.1122  0.2675  0.1184
20982W        W63895  21.746  18.732  25.073 -0.2146  0.0483 -0.2886
20983W        W63896  28.722   6.884  11.106 -0.1933  0.2020  0.1972
20984W        W63897  33.759  11.635   8.156 -0.1082 -0.2612 -0.1203
20985W        W63898  33.229  17.273  24.127  0.1963  0.1042  0.3651
20986W        W63899  28.819  14.314  17.876 -0.0365  0.2490 -0.0712
20987W        W63900  18.431  34.319  24.953 -0.1484  0.0766 -0.1680
20988W        W63901  25.831   5.564  29.171 -0.0442  0.0793 -0.2344
20989W        W63902  26.218  16.610  28.779  0.0645  0.1153  0.2465
20990W        W63903  21.676   9.551   6.331  0.3295 -0.0621  0.0295
20991W        W63904  24.895   6.307  27.760 -0.1298 -0.1350 -0.0457
20992W        W63905  31.812  13.829   6.957 -0.4707  0.1080 -0.2027
20993W        W63906  14.430   3.874  26.652 -0.1893 -0.1367  0.3850
20994W        W63907  16.898   4.476   0.194 -0.3981 -0.5010 -0.2512
20995W        W63908  20.872  17.565   7.527  0.1285  0.0784  0.1618
20996W        W63909  29.410   3.075  28.480 -0.2158 -0.0777 -0.3313
20997W        W63910  23.083   3.605   7.155 -0.3691  0.0066 -0.1219
20998W        W63911  26.785  17.611  24.650  0.1986 -0.0688  0.0684
20999W        W63912  20.314  17.905  25.928  0.1653  0.0539  0.1103
21000W        W63913   4.163   6.825   2.186  0.1505 -0.0779 -0.0921
21001W        W63914  10.790  10.808  20.416 -0.1092 -0.5868 -0.2163
21002W        W63915  27.245  10.541  28.437  0.1458 -0.0622 -0.0062
21003W        W63916  31.326  19.521   0.548  0.2669  0.0821 -0.1032
21004W        W63917  28.357  16.365   2.939 -0.0129  0.0489 -0.3519
21005W        W63918  30.806  16.808   1.393  0.0771  0.2792  0.0504
21006W        W63919  33.952  13.738   8.838 -0.0619  0.1204 -0.0904
21007W        W63920  22.850   9.301   8.146  0.0157  0.0858 -0.1274
21008W        W63921  19.616   9.809   4.100 -0.0335 -0.1747 -0.2131
21009W        W63922   9.379  11.078  10.471  0.3122 -0.1109  0.3755
21010W        W63923  29.051  17.011  18.305  0.0190  0.0690  0.1617
21011W        W63924  27.677  15.012  26.775  0.2468  0.0145  0.3705
21012W        W63925  22.082  12.234  21.974  0.2576 -0.0216 -0.3940
21013W        W63926  19.852   8.931   6.413 -0.0574  0.1342 -0.0289
21014W        W63927  21.950  22.316  26.099 -0.0783 -0.0647  0.0238
21015W        W63928  26.570   2.911   8.994  0.0800  0.5627 -0.1330
21016W        W63929  23.434  26.050   0.544 -0.0400  0.1060 -0.1086
21017W        W63930  21.171  12.652  26.909 -0.0252  0.1907 -0.0697
21018W        W63931  34.457  18.036  19.828  0.0395 -0.4739  0.3264
21019W        W63932  22.923  16.388  23.233 -0.0185 -0.3067  0.1482
21020W        W63933  25.203  18.006  13.822  0.0022  0.0586  0.0210
21021W        W63934  27.411   9.932  16.573 -0.0088 -0.0518  0.3804
21022W        W63935  16.880   8.478  18.805  0.3271 -0.0648  0.3873
21023W        W63936  16.404  19.927  13.033 -0.1129 -0.1202  0.2474
21024W        W63937  30.554  19.892  14.731 -0.1470  0.2433 -0.1467
21025W        W63938  24.450  14.272  17.855 -0.0287  0.0653  0.4465
21026W        W63939  28.714  19.241  22.490 -0.0510  0.0481  0.0850
21027W        W63940  19.040  25.644  14.529 -0.3301  0.0560 -0.4927
21028W        W63941  24.029  12.834  13.666  0.1503 -0.2516 -0.1866
21029W        W63942  17.256  10.863  12.138  0.0063  0.1899 -0.0918
21030W        W63943  15.628   0.832  22.177  0.0352 -0.1645 -0.0462
21031W        W63944  26.530  15.319  25.005  0.4142 -0.2705  0.1878
21032W        W63945  22.716  21.668  23.789  0.0375 -0.0634 -0.0935
21033W        W63946  23.164  11.252  24.050  0.3522  0.0280  0.0485
21034W        W63947  19.935  21.236  11.993  0.1424  0.0573  0.0201
21035W        W63948  27.408  16.950  17.041  0.1473  0.2342  0.1202
21036W        W63949  28.338  16.453  19.409 -0.2761 -0.1785 -0.5412
21037W        W63950  30.501  14.210  18.382  0.1539 -0.0368 -0.0243
21038W        W63951  22.545   8.438  14.945 -0.0627  0.0055 -0.4038
21039W        W63952  21.699  23.302  19.123 -0.0069 -0.2895 -0.1935
21040W        W63953  27.040  15.735  20.108  0.0705  0.0516  0.2058
21041W        W63954  22.828   8.649  19.451 -0.0331 -0.2051  0.3278
21042W        W63955  31.922  18.202  22.028 -0.0900 -0.2999  0.0506
21043W        W63956  21.971  12.395  21.098  0.0290 -0.1387 -0.0231
21044W        W63957  22.358  11.650  24.434  0.1979  0.0182 -0.0265
21045W        W63958  29.362  22.923  17.073  0.2427  0.0308 -0.1990
21046W        W63959  32.455  27.522  18.228 -0.0711 -0.1523  0.2256
21047W        W63960  28.840   4.130  19.110  0.1064  0.0894  0.1429
21048W        W63961   2.218  22.392  21.841  0.1124  0.1974  0.1698
21049W        W63962  28.801  13.117  16.739  0.3704 -0.0396  0.3184
21050W        W63963  33.591  10.827  21.376 -0.1396  0.1693  0.0297
21051W        W63964  27.977  22.782  26.017 -0.0709  0.0042  0.1813
21052W        W63965  33.368  15.231  14.793 -0.0989  0.0752  0.0509
21053W        W63966  29.498  24.799  18.253 -0.1259  0.0278 -0.1073
21054W        W63967  30.380  11.970  18.277  0.3238 -0.0792  0.1582
21055W        W63968  24.300  19.713  19.701  0.2484 -0.0168 -0.1778
21056W        W63969  32.648  14.962  19.649 -0.0332  0.0463 -0.2076
21057W        W63970  27.339  18.732  20.500  0.2199  0.0841 -0.0347
21058W        W63971  25.264  14.837  16.076  0.3816 -0.0808 -0.0472
21059W        W63972  31.517  17.195  18.133  0.1068  0.2732 -0.0328
21060W        W63973  32.080  22.062  19.778  0.1298 -0.2128 -0.0227
21061W        W63974   0.411  14.044  23.895  0.0253  0.1551  0.1857
21062W        W63975   1.211   5.943  20.826 -0.1368 -0.0987  0.1996
21063W        W63976  29.772  21.742  27.977 -0.1067  0.1708  0.1586
21064W        W63977   8.647  13.740  18.716  0.0173 -0.2483  0.1177
21065W        W63978  30.833  16.083  20.946 -0.0088 -0.0668 -0.2770
21066W        W63979  27.721  20.247  19.945 -0.2142  0.2106  0.1601
21067W        W63980  30.760   3.590  16.096 -0.3815 -0.1870 -0.1705
21068W        W63981  31.374  20.040  17.315  0.2222 -0.1908 -0.1388
21069W        W63982   1.937  22.368  14.390 -0.2679  0.1800 -0.1106
21070W        W63983  25.066  25.306  17.780 -0.1469  0.1094  0.0512
21071W        W63984  25.586   5.281  25.159  0.1743 -0.2752  0.1997
21072W        W63985  13.019   7.621  15.907 -0.1554 -0.2057 -0.2939
21073W        W63986  21.067  17.589  12.405 -0.1074 -0.1011 -0.0054
21074W        W63987  31.771  18.120  14.779  0.0540  0.1818 -0.1008
21075W        W63988   5.243  24.925  22.316  0.1081  0.0641 -0.1094
21076W        W63989  23.756   8.934  19.746  0.1154  0.2367 -0.1931
21077W        W63990  29.138  18.020  13.486 -0.0331  0.2331 -0.3320
21078W        W63991  27.369   7.566  15.907 -0.0642  0.2412 -0.0892
21079W        W63992  32.957  15.675  13.278 -0.1547  0.0348  0.2049
21080W        W63993  20.374  28.382  13.852  0.1386  0.0832 -0.1301
21081W        W63994  28.208   7.078  25.092  0.0186  0.0023  0.1851
21082W        W63995  26.209  13.404  15.010  0.0958 -0.0023  0.0716
21083W        W63996  27.277   4.243  25.102  0.0884  0.2577 -0.0822
21084W        W63997  26.689  15.038  18.941  0.0198 -0.2267  0.2392
21085W        W63998  23.924   7.727  23.478 -0.2240 -0.3673  0.1375
21086W        W63999   2.139  17.490  17.547  0.5165 -0.0557 -0.2416
21087W        W64000  33.433  15.956  20.677  0.1858  0.2709  0.1505
21088W        W64001  30.948  21.193  18.953 -0.1338  0.0247  0.1543
21089W        W64002  32.183  25.688  17.997  0.2772 -0.3353  0.1739
21090W        W64003   1.391  13.893  23.204  0.5458 -0.1834 -0.0324
21091W        W64004  27.777   6.808  19.351 -0.1906  0.0208 -0.1517
21092W        W64005   0.107  18.676  18.911 -0.1128  0.2668  0.2736
21093W        W64006   1.724  22.049  16.096  0.0911 -0.2919 -0.0272
21094W        W64007  33.969  17.376  16.730  0.2581 -0.0902 -0.0467
21095W        W64008   0.348  18.001  14.951 -0.1409  0.1383  0.3325
21096W        W64009  24.529  22.162  18.350 -0.1441  0.1831 -0.0024
21097W        W64010  20.855   5.692  21.089  0.2374  0.1004  0.0858
21098W        W64011  29.203  18.895  27.365  0.0702  0.0101  0.2165
21099W        W64012  27.013  24.797  17.882 -0.1805 -0.0767 -0.1135
21100W        W64013  20.022   5.949  16.159  0.1643  0.0294 -0.1697
21101W        W64014  23.390  12.847  19.349 -0.1185  0.1068 -0.1062
21102W        W64015  15.220   9.146  13.610 -0.0710  0.3678 -0.0153
21103W        W64016  21.571  24.849  20.307  0.0238  0.2924  0.0310
21104W        W64017  31.808  19.809  17.209  0.1213  0.0927 -0.2124
21105W        W64018   8.237   9.198  26.101 -0.1860 -0.3390 -0.2936
21106W        W64019  26.909  13.800  18.217  0.1278 -0.0245 -0.1420
21107W        W64020  26.287  16.567  20.524 -0.0146 -0.0487  0.0326
21108W        W64021  29.867   9.617  23.697 -0.2421  0.2932 -0.0106
21109W        W64022  28.324  13.313  19.881 -0.1716  0.0642 -0.0716
21110W        W64023  18.910  13.036  12.464 -0.0734  0.0753 -0.2904
21111W        W64024  27.361  23.664  16.679 -0.0256 -0.2479  0.1766
21112W        W64025  15.812   6.497  22.492  0.1457  0.0133 -0.2365
21113W        W64026  14.710  16.668  14.600  0.0195 -0.1065 -0.1988
21114W        W64027  27.461   8.739  15.917 -0.0325 -0.1122  0.0752
21115W        W64028  31.116  17.684  16.961  0.0386  0.1240 -0.1819
21116W        W64029  19.349   4.579  16.700 -0.1225 -0.2724  0.1351
21117W        W64030  25.108  13.313  20.314 -0.3600  0.2009 -0.0146
21118W        W64031  26.479  14.436  15.696 -0.1160  0.3064 -0.0385
21119W        W64032  24.057  29.399  18.660 -0.0589  0.1843 -0.0728
21120W        W64033  30.786   1.719  16.196  0.2698  0.3886 -0.3432
21121W        W64034  14.989  14.482  12.989 -0.3010  0.0358  0.2775
21122W        W64035  27.656  19.527  28.956  0.0082  0.0563  0.1259
21123W        W64036  27.844  17.257  20.587 -0.2606 -0.0340 -0.0079
21124W        W64037  24.857  28.611  13.870 -0.3244  0.1795 -0.2050
21125W        W64038  33.541  14.044  19.917 -0.1193  0.0425  0.2209
21126W        W64039  29.014   3.496  21.628  0.1298 -0.2675  0.2255
21127W        W64040  20.146   6.633  20.887 -0.0741 -0.0297  0.0160
21128W        W64041  28.483  18.643  23.177 -0.0578 -0.1622  0.2089
21129W        W64042  30.675  20.778  14.603  0.2695 -0.1838 -0.2328
21130W        W64043  22.484  11.812  28.093 -0.2120  0.1139  0.4091
21131W        W64044  26.458  12.828  19.191  0.1224  0.0722  0.2639
21132W        W64045  29.781   4.810  15.427 -0.3639 -0.0444  0.2932
21133W        W64046  31.019  23.623  15.404  0.1157  0.2308  0.1096
21134W        W64047  23.060  22.531  19.086  0.1420  0.1266  0.0424
21135W        W64048   4.168  17.670  15.811 -0.1773 -0.0219 -0.0202
21136W        W64049  23.801  15.165  24.769  0.0355 -0.1304 -0.2906
21137W        W64050  20.461  20.406  25.291 -0.0764 -0.1238 -0.1652
21138W        W64051  28.561  10.455  15.053 -0.2849 -0.1008 -0.0858
21139W        W64052  22.994  21.757  13.861  0.0649  0.0854  0.1067
21140W        W64053  29.791  18.937  13.444 -0.0170 -0.0054  0.2347
21141W        W64054  18.750  16.810  11.708 -0.1481  0.2013  0.0728
21142W        W64055  23.874  19.026  15.403 -0.1729 -0.1512 -0.0244
21143W        W64056  30.365  12.719  21.605  0.1119 -0.1247 -0.0965
21144W        W64057  20.938  22.874  27.210  0.0847 -0.0512  0.1707
21145W        W64058  29.019  11.421  16.146  0.1260 -0.0515 -0.0084
21146W        W64059  27.651  13.580  15.222  0.1514  0.1790 -0.0284
21147W        W64060  25.223   3.895  27.426 -0.1200  0.3583  0.0363
21148W        W64061  27.855  23.802  16.038  0.1744  0.2434  0.0041
21149W        W64062  27.686  11.235  13.706 -0.3436 -0.1189 -0.2640
21150W        W64063  30.463  21.064  14.181 -0.1622 -0.0988 -0.2751
21151W        W64064  18.858   8.550  21.292  0.1242 -0.2734 -0.0493
21152W        W64065  16.907  22.759  26.228 -0.5818 -0.0181  0.2353
21153W        W64066  24.186  12.637  14.844 -0.4527  0.0152 -0.0878
21154W        W64067  27.073  16.040  14.984  0.2449  0.1871 -0.4179
21155W        W64068  25.079  19.039  17.159 -0.0612 -0.1250 -0.3357
21156W        W64069  25.003  23.678  17.644  0.2970 -0.1626  0.0483
21157W        W64070   1.305   6.011  19.859  0.1051  0.0459  0.3342
21158W        W64071  17.422   4.321  25.240  0.0695 -0.0093  0.0352
21159W        W64072  24.450   3.482  16.496 -0.1574 -0.3341 -0.0841
21160W        W64073  31.471  22.427  16.197  0.0083 -0.0524  0.1282
21161W        W64074  10.997  16.227  22.237 -0.3812  0.0184  0.1786
21162W        W64075  30.826  14.097  21.828  0.0334 -0.0378  0.1541
21163W        W64076  25.297  17.644  20.260 -0.0962 -0.0779 -0.0787
21164W        W64077  29.296  28.630  17.426  0.0654  0.0397 -0.0162
21165W        W64078  22.373   7.116  16.439 -0.2827  0.0436 -0.1934
21166W        W64079  32.471  15.504  19.299  0.0635  0.0349  0.1340
21167W        W64080  22.089  23.996  18.571  0.1519 -0.0281  0.0040
21168W        W64081  26.308  22.785  21.887  0.1780  0.1930 -0.1506
21169W        W64082  21.801  18.531  22.465  0.1731  0.0409 -0.0524
21170W        W64083  28.948  23.680  13.883 -0.0407 -0.1759  0.2203
21171W        W64084  19.065  15.854  11.986 -0.0590 -0.0982  0.2144
21172W        W64085   0.638  13.531  15.012  0.1144  0.1517 -0.0066
21173W        W64086  27.791  25.678   0.827 -0.0046  0.0174 -0.0827
21174W        W64087  24.998  24.500  16.713  0.0235  0.0727  0.3290
21175W        W64088   1.990  16.577  13.461  0.0377 -0.1080  0.0047
21176W        W64089  28.206  17.952  24.675 -0.2262 -0.2948 -0.0544
21177W        W64090  31.056  17.800  14.326  0.2535 -0.2202 -0.0470
21178W        W64091  22.827  21.404  12.581 -0.1851 -0.2274 -0.2308
21179W        W64092  28.655  10.911  22.823 -0.1295 -0.1931  0.0184
21180W        W64093  23.911  27.482  16.584 -0.1012 -0.0979  0.0714
21181W        W64094   1.092  24.735  16.691 -0.0317  0.1243 -0.2945
21182W        W64095  25.876  11.840  20.451  0.2174  0.3442  0.0872
21183W        W64096  24.880  16.877  18.342  0.1245  0.2300 -0.4067
21184W        W64097  30.177  15.345  19.111  0.3355 -0.0608  0.0456
21185W        W64098   1.916  22.531  17.903 -0.0187  0.0905  0.3856
21186W        W64099  29.883  11.664  16.718 -0.0993 -0.1432 -0.1022
21187W        W64100  24.347   7.566  16.077  0.0165 -0.1626  0.0353
21188W        W64101  27.311  14.656  26.457  0.0974 -0.0857  0.1494
21189W        W64102   6.457  16.125  15.370  0.0457  0.2422  0.0978
21190W        W64103  21.581  11.674  12.905  0.2006 -0.2079 -0.4588
21191W        W64104  26.596   5.546  21.175 -0.3169 -0.0604 -0.2438
21192W        W64105  28.720  18.293  14.199 -0.3335 -0.1000  0.0326
21193W        W64106  25.241  18.824  23.069  0.0466  0.1201  0.0800
21194W        W64107  32.094  15.489  22.616 -0.1202 -0.0352  0.1260
21195W        W64108  24.298  18.607  14.199 -0.1354  0.0264  0.2359
21196W        W64109   2.910  14.658  19.330 -0.0899  0.0171 -0.1076
21197W        W64110  27.141  15.996  14.500 -0.0254 -0.1373  0.1529
21198W        W64111  33.399  17.694  20.060 -0.0068  0.3410  0.2895
21199W        W64112  22.525  15.730  23.444 -0.1770  0.0832  0.5174
21200W        W64113  18.424  11.486  22.318 -0.0383 -0.0667  0.0588
21201W        W64114  22.192  16.681  26.011  0.0568  0.1324  0.1201
21202W        W64115  29.206  15.290  21.495  0.0816  0.0740 -0.3599
21203W        W64116  28.273  23.947  17.565  0.2478 -0.2169 -0.0456
21204W        W64117  31.292  22.215  20.517  0.1002  0.1653  0.0787
21205W        W64118  30.455  29.306  17.308  0.0493 -0.2454  0.1456
21206W        W64119   3.298  19.746  20.028 -0.0087 -0.0276 -0.0797
21207W        W64120  17.347   9.353  14.821  0.1275  0.1171 -0.1173
21208W        W64121  29.570  23.213  24.453  0.1248  0.0107 -0.1648
21209W        W64122  29.357  19.375  16.150  0.0002  0.1521 -0.3218
21210W        W64123  24.614  25.774  14.040  0.3078  0.0202 -0.0518
21211W        W64124  23.493  28.387  13.749 -0.1193  0.0767  0.2527
21212W        W64125  29.323  15.238  29.043  0.1822 -0.2672  0.1544
21213W        W64126  32.433  19.517  17.667 -0.1072 -0.0739  0.3674
21214W        W64127  26.968   7.689  16.661  0.2253 -0.3828  0.1618
21215W        W64128  24.814  14.210  22.132 -0.0178  0.0586 -0.0242
21216W        W64129  20.594   8.401  24.493 -0.2938  0.0033 -0.1311
21217W        W64130  21.132  16.933  13.260 -0.3008 -0.1132  0.2661
21218W        W64131  21.448  25.860  20.798 -0.0709  0.1883 -0.1619
21219W        W64132   0.734  16.111  15.519 -0.2080  0.0252 -0.0094
21220W        W64133  28.379  11.390  18.940 -0.1779  0.2410  0.1423
21221W        W64134  31.840  25.172  24.768 -0.0349 -0.1563  0.0149
21222W        W64135  28.420  21.805  17.790 -0.3534  0.0396 -0.1077
21223W        W64136  23.937  15.227  15.926 -0.0865 -0.0404 -0.0270
21224W        W64137  30.603  12.399  17.896 -0.2202 -0.1342 -0.0807
21225W        W64138  24.869  17.562  25.410 -0.2477  0.2064  0.0112
21226W        W64139  28.213  18.376  13.469  0.1945  0.3254  0.0684
21227W        W64140  29.447  11.245  20.442  0.0881  0.2584  0.0778
21228W        W64141  20.557   3.361  25.954  0.0391 -0.0310  0.0186
21229W        W64142  33.982  16.108  18.838 -0.1346  0.0853  0.0953
21230W        W64143  30.284  23.895  15.717 -0.1445 -0.0940  0.0442
21231W        W64144  26.050  13.350  23.452 -0.2201 -0.0997 -0.0177
21232W        W64145  14.886  16.163  14.468  0.1148 -0.1984 -0.0814
21233W        W64146   2.819  18.350  21.269 -0.1048 -0.3732  0.0200
21234W        W64147  26.511  16.312  20.171  0.0784 -0.1739 -0.0884
21235W        W64148   2.587  23.775  26.852 -0.1810  0.1391 -0.0065
21236W        W64149  33.170  28.756  28.453  0.0246  0.3941  0.0482
21237W        W64150  28.694  27.343  14.405 -0.1359  0.2572  0.0569
21238W        W64151  21.663  11.135  18.559  0.1768 -0.1208  0.1316
21239W        W64152  17.549  10.309  14.265 -0.1860 -0.0506  0.3711
21240W        W64153  22.119   6.699  15.525  0.1475  0.2706 -0.0741
21241W        W64154  13.118  22.075  21.529 -0.1449  0.0500 -0.3621
21242W        W64155  28.097  18.870  15.526 -0.1165 -0.3267 -0.0076
21243W        W64156  31.156  12.822  14.104  0.0803  0.0357 -0.3524
21244W        W64157   1.515  15.509  17.218 -0.1241  0.1242 -0.3640
21245W        W64158  14.556  13.346  16.253  0.0512  0.1458  0.3757
21246W        W64159  29.229   1.788  17.031 -0.1590  0.1077 -0.0709
21247W        W64160   5.166  25.352  20.599  0.1952 -0.1495  0.3478
21248W        W64161  22.052  21.163  14.824  0.0296  0.1319 -0.0250
21249W        W64162  22.488  18.887  18.318 -0.3523 -0.0340  0.3208
21250W        W64163  32.458  23.913  14.484 -0.0027  0.1768  0.0414
21251W        W64164  22.500  25.635  14.415 -0.2765 -0.0340 -0.1622
21252W        W64165   7.884  10.849  28.555  0.1928 -0.2866 -0.0247
21253W        W64166  21.323  16.872  15.531 -0.3732 -0.0591  0.2802
21254W        W64167  28.600  11.332  17.686 -0.1012 -0.0501  0.2140
21255W        W64168  19.516  28.100  20.701 -0.1458 -0.0592 -0.0647
21256W        W64169   0.573  16.645  21.625 -0.0281 -0.0234 -0.4422
21257W        W64170  26.657  10.425  16.628 -0.3563  0.3078 -0.1773
21258W        W64171  26.925  12.136  23.026  0.0050  0.1407  0.0323
21259W        W64172  24.910  22.527  22.333  0.1256 -0.0201  0.3889
21260W        W64173  21.838   7.733  19.457  0.2103  0.1707  0.0384
21261W        W64174  31.707  14.141  17.537  0.1823  0.0335 -0.1654
21262W        W64175  26.070  11.675  19.993 -0.2656 -0.0378 -0.6151
21263W        W64176  27.835  27.547  16.828  0.0313 -0.1676  0.1960
21264W        W64177  27.684   8.652  18.357 -0.0210 -0.2197 -0.2833
21265W        W64178  30.331  23.242  13.547  0.1194 -0.0296 -0.2388
21266W        W64179  25.465  18.494  20.369 -0.2475  0.0362  0.0053
21267W        W64180  29.403  16.636  23.828  0.0732 -0.0538  0.1753
21268W        W64181  31.347  17.129  22.838  0.0699  0.1646  0.1062
21269W        W64182  18.346   8.734  19.862 -0.1455 -0.2356  0.2112
21270W        W64183  25.324  22.276  16.703 -0.1871 -0.1922  0.2553
21271W        W64184  28.863  18.833  26.304 -0.0406 -0.0069 -0.4464
21272W        W64185  23.167  21.663  20.941  0.1764 -0.2228 -0.0238
21273W        W64186  26.258  24.510  21.526  0.1889  0.3789 -0.1326
21274W        W64187  15.967  24.255  14.983  0.1078  0.1273  0.3611
21275W        W64188  20.411  18.267  15.632 -0.1202 -0.0917 -0.0839
21276W        W64189  21.839  17.298  22.643  0.0478 -0.3110  0.1776
21277W        W64190  33.667  19.874  20.014 -0.1505 -0.0641  0.2030
21278W        W64191  21.139  20.323  21.348  0.0936 -0.1712  0.4275
21279W        W64192  27.057  25.400  26.005  0.0744  0.1281 -0.2076
21280W        W64193  21.304  21.054  13.457  0.0295 -0.1071 -0.0381
21281W        W64194  24.921  16.800  15.530  0.1374 -0.3582  0.1729
21282W        W64195   0.911  19.138  14.526 -0.1753 -0.0854  0.0081
21283W        W64196  26.097  22.222  18.315 -0.0055  0.0200 -0.1982
21284W        W64197  26.021  19.009  22.038  0.0426  0.2395 -0.0270
21285W        W64198  31.561  19.528  16.831 -0.0642 -0.1929 -0.3501
21286W        W64199  32.535  27.635  14.272  0.1250  0.2130  0.2788
21287W        W64200  26.453  14.592  15.175  0.1061 -0.1039 -0.0041
21288W        W64201  23.972  10.748  16.559 -0.0027 -0.1598 -0.0479
21289W        W64202  22.924  23.876  12.944 -0.2038 -0.0306  0.3544
21290W        W64203  24.542   6.874  21.724 -0.0690  0.0879 -0.3201
21291W        W64204  26.260  14.875  15.990  0.2800 -0.0083 -0.1047
21292W        W64205  24.856  23.905  14.413  0.1512  0.3169  0.4982
21293W        W64206   0.100  28.408  15.240 -0.0278  0.0314 -0.3467
21294W        W64207  25.920  15.595  19.980 -0.0161 -0.1905  0.0283
21295W        W64208  29.119  16.366  17.725  0.0557 -0.1736  0.3918
21296W        W64209  29.298  23.678  15.875  0.1073  0.3395 -0.3591
21297W        W64210  33.050  17.392  14.093 -0.1078 -0.1403  0.2537
21298W        W64211  22.767  13.971  18.261 -0.1658  0.3578 -0.0443
21299W        W64212  20.722  22.341  13.524  0.5220  0.0655 -0.0691
21300W        W64213  28.633  16.818  13.203 -0.1124  0.0827 -0.1628
21301W        W64214  34.048  19.972  23.028 -0.0791 -0.1093 -0.1358
21302W        W64215  21.256   9.868  17.109 -0.1958  0.2575  0.1558
21303W        W64216  15.994  14.895  11.370 -0.1337 -0.0638  0.0001
21304W        W64217  27.353  17.611  15.686  0.2860  0.0909  0.0564
21305W        W64218  30.276   9.243  15.293  0.2774  0.0099 -0.0916
21306W        W64219  28.341  11.083  18.036 -0.0544 -0.2838  0.0430
21307W        W64220   0.501  15.323  18.322  0.1364  0.0628 -0.1181
21308W        W64221  30.857  16.427  19.936  0.0393  0.0606  0.1558
21309W        W64222  24.371  10.819  21.199  0.0750 -0.0719  0.0333
21310W        W64223  26.518  15.437  19.346  0.2719  0.1547 -0.1982
21311W        W64224  33.219  16.777  24.519  0.0828  0.0732 -0.0882
21312W        W64225  20.299  11.972  17.182 -0.1239  0.0922 -0.0087
21313W        W64226  28.678  22.050  18.376  0.1068 -0.0277 -0.1631
21314W        W64227  14.816  26.653  14.991 -0.0968 -0.1714  0.1483
21315W        W64228   0.257  19.232  15.291 -0.0457  0.1873  0.1108
21316W        W64229  18.130  11.892  19.714 -0.1000  0.3093 -0.1115
21317W        W64230  31.119  25.175  17.754 -0.0331 -0.0008  0.0449
21318W        W64231   0.507  25.294  17.497 -0.5074  0.1663  0.1315
21319W        W64232  17.008   6.474  21.784  0.2097 -0.0158 -0.1793
21320W        W64233  33.458  13.128  18.329 -0.3089  0.0618 -0.0917
21321W        W64234  14.181  15.915  15.769 -0.1858  0.0894  0.0763
21322W        W64235  29.117  29.146  19.165  0.0356  0.3989  0.2497
21323W        W64236  29.068  12.781  24.409  0.3458 -0.0619  0.0905
21324W        W64237  31.250  18.028  16.132  0.1288 -0.5216 -0.1092
21325W        W64238  22.914  24.817  21.645 -0.0709 -0.0717 -0.0241
21326W        W64239  25.773   8.990  20.452  0.0731  0.0299  0.3160
21327W        W64240  19.136   3.242  15.686 -0.0455  0.4602 -0.0521
21328W        W64241  31.585  26.804  14.918 -0.0770  0.0342 -0.2852
21329W        W64242  32.072  20.528  16.346  0.2228  0.3120  0.0608
21330W        W64243  24.816  13.412  14.664  0.0967  0.4026  0.0839
21331W        W64244  21.680   6.416  23.248  0.2190  0.2747 -0.3763
21332W        W64245  27.117  29.576  19.733 -0.2668 -0.0092  0.0353
21333W        W64246  22.167  17.710  22.847  0.3661 -0.2900  0.0614
21334W        W64247  30.911  20.549  24.788 -0.0639  0.1319 -0.2057
21335W        W64248  30.293  16.351  22.153 -0.0698  0.0794 -0.0768
21336W        W64249  24.716   4.601  27.305 -0.0297  0.0698  0.3510
21337W        W64250  29.177  20.337  18.316 -0.3495 -0.2219  0.0267
21338W        W64251  27.895  10.965  17.233 -0.0781  0.1060  0.3412
21339W        W64252  21.525  14.225  15.546  0.1445  0.1639  0.0606
21340W        W64253  29.599  30.685  16.897  0.0391 -0.0746 -0.1124
21341W        W64254  29.452   6.493  20.000  0.2655  0.1613 -0.0291
21342W        W64255  26.284  13.448  14.028 -0.3017 -0.0749 -0.1465
21343W        W64256  27.756  18.302  14.573 -0.0231  0.0083  0.1791
21344W        W64257  27.457   7.755  23.030 -0.1027 -0.1020 -0.2556
21345W        W64258  29.701  14.787  14.219 -0.1171 -0.1242 -0.0511
21346W        W64259  18.843  23.403  19.510 -0.1805 -0.1472  0.0618
21347W        W64260  24.288  20.237  14.654 -0.1246  0.1435 -0.2446
21348W        W64261   0.018  22.405  18.369 -0.3281 -0.1666  0.0260
21349W        W64262  32.076  10.457  24.026 -0.1550  0.1144 -0.2748
21350W        W64263  32.585  18.659   0.183  0.0036  0.2133  0.2811
21351W        W64264  27.241  15.900  13.628  0.3043 -0.2654 -0.0755
21352W        W64265  24.927  16.353  15.162  0.1693 -0.0696 -0.2974
21353W        W64266  32.597  26.247  20.185 -0.2984  0.2632  0.0805
21354W        W64267  23.550  10.975  15.749  0.0266 -0.1535 -0.2002
21355W        W64268  33.457  10.697  15.621 -0.1957 -0.0858  0.1067
21356W        W64269  17.024   7.457  18.627  0.2266  0.0914  0.1517
21357W        W64270  29.182  13.638  22.206 -0.0456 -0.4721 -0.0759
21358W        W64271  33.401  16.727  19.607  0.3684  0.0057 -0.1468
21359W        W64272  33.850  22.648  17.087 -0.1042  0.0352 -0.2374
21360W        W64273  28.478  17.715  15.962 -0.0382  0.2611  0.1696
21361W        W64274  24.570   9.679  21.313 -0.0492 -0.2542 -0.2546
21362W        W64275  28.999  14.570  15.347 -0.0366 -0.0892 -0.1564
21363W        W64276  29.027  12.517  16.031 -0.1130  0.2123 -0.1583
21364W        W64277  25.962  18.261  17.703  0.1150 -0.1986  0.4846
21365W        W64278  23.227  25.009  18.346 -0.3878  0.0267  0.0061
21366W        W64279  20.317   8.170  18.644 -0.3204 -0.0457 -0.1118
21367W        W64280  33.498  11.235  23.830 -0.1300  0.2615 -0.1174
21368W        W64281  28.858  14.095  15.206  0.1968 -0.1270 -0.3539
21369W        W64282  30.754  25.333  22.018 -0.2226  0.4325  0.2255
21370W        W64283  19.275  24.437  17.591 -0.2161  0.1379  0.2602
21371W        W64284  14.368  12.831  18.538  0.1022  0.2018 -0.1106
21372W        W64285  26.255  22.893  12.949 -0.0306  0.1318 -0.0072
21373W        W64286  20.821  14.314  14.277  0.2227 -0.0697  0.0615
21374W        W64287  24.663   7.453  14.544 -0.1257 -0.0348 -0.1542
21375W        W64288  11.346  24.750  18.420 -0.1418 -0.0868  0.0953
21376W        W64289  28.337  22.060  14.991 -0.0957 -0.0328  0.1160
21377W        W64290  18.378  30.708  15.712 -0.1144  0.0726  0.2222
21378W        W64291   2.653  14.669  24.319 -0.2111 -0.3366 -0.0936
21379W        W64292  25.835  27.100  16.852 -0.0716 -0.0172  0.2537
21380W        W64293  25.340  17.092  18.889 -0.1074 -0.0994  0.0156
21381W        W64294   1.692  27.426  15.881 -0.0785 -0.0030 -0.1072
21382W        W64295  29.756  12.047  18.288  0.0687 -0.2989  0.1453
21383W        W64296  32.071  23.964  14.126 -0.0610  0.0414 -0.3574
21384W        W64297  29.208  17.635  23.907 -0.1064  0.2470 -0.1161
21385W        W64298  32.571   9.808  18.127 -0.1560 -0.3010 -0.0897
21386W        W64299  25.277  15.410  23.277 -0.2306 -0.1446 -0.1800
21387W        W64300  22.031  11.674  13.918 -0.1382  0.3821  0.0496
21388W        W64301  34.458  15.351  24.833  0.0765 -0.3141  0.2751
21389W        W64302  28.465  18.998  17.023  0.3933 -0.0155  0.1065
21390W        W64303  19.121  20.271  21.292  0.3154  0.1210 -0.1997
21391W        W64304  29.432  25.784  14.855 -0.0944 -0.0652 -0.3706
21392W        W64305  33.578  20.827  18.129 -0.1690  0.1532  0.1836
21393W        W64306  33.204  13.797  13.602 -0.0981 -0.0018  0.0395
21394W        W64307  17.767  11.194  16.664  0.1880 -0.0950 -0.0036
21395W        W64308  27.578  14.291  14.309  0.3688  0.2589 -0.0669
21396W        W64309  28.228  17.078  17.604 -0.3094 -0.1001 -0.3248
21397W        W64310  22.395  13.028  18.121 -0.1003 -0.0173 -0.1239
21398W        W64311  18.613  24.163  18.514  0.2700  0.1771 -0.2464
21399W        W64312  22.454  22.410  15.191  0.1447 -0.3080  0.1765
21400W        W64313  28.255  26.277  17.861  0.1661 -0.4015  0.3044
21401W        W64314  24.845  12.576  23.200  0.1026  0.0847  0.1597
21402W        W64315  31.206  12.775  20.885 -0.0120 -0.3600 -0.1390
21403W        W64316  24.215  18.959  13.932 -0.1035 -0.1189 -0.2579
21404W        W64317  19.021   8.789  13.535  0.0975  0.0333  0.1329
21405W        W64318  22.616  12.876  18.663 -0.0137 -0.1472 -0.0657
21406W        W64319  22.809   5.445  16.880  0.0494 -0.0361 -0.0839
21407W        W64320  29.283   9.947  24.137 -0.0513  0.0212  0.2130
21408W        W64321  22.324  22.489  23.800  0.1158 -0.0310  0.0056
21409W        W64322  25.148   2.808  15.344 -0.0682  0.0194  0.3539
21410W        W64323  18.248   8.853  25.933  0.1868 -0.0338 -0.1815
21411W        W64324   6.998  10.333  21.721 -0.1704 -0.2807 -0.2744
21412W        W64325  27.515  14.257  25.456  0.0752 -0.1822 -0.1615
21413W        W64326  23.876  13.908  19.372 -0.0774  0.0700 -0.0943
21414W        W64327  31.291  18.549  15.344 -0.1889 -0.0819 -0.3557
21415W        W64328  23.162  17.183  13.140 -0.1221 -0.0560  0.1683
21416W        W64329  18.431  13.055  15.654  0.3809 -0.1781  0.0838
21417W        W64330  28.635  16.845  21.721 -0.0146 -0.2860 -0.2820
21418W        W64331  24.013  23.919  13.215 -0.1550  0.0480 -0.1693
21419W        W64332  19.780  16.173  12.953 -0.2430 -0.0340 -0.0780
21420W        W64333   0.515  12.489  21.120  0.1075  0.1379 -0.1469
21421W        W64334  15.325  16.387  15.198 -0.4032  0.0370 -0.0698
21422W        W64335   7.793  19.910  27.262 -0.1755 -0.0744 -0.0671
21423W        W64336   2.846  21.664  16.644  0.1678 -0.1256 -0.3394
21424W        W64337  30.402  17.903  14.172 -0.0388 -0.1249 -0.0639
21425W        W64338  26.897  15.863  16.903  0.0373 -0.0209 -0.0705
21426W        W64339  22.387  20.334  18.914 -0.0669 -0.0936 -0.0279
21427W        W64340   7.168  22.705  16.666 -0.0822 -0.0104 -0.2413
21428W        W64341  15.688  23.477  23.123  0.0467  0.1961 -0.2165
21429W        W64342  20.238  22.775  13.364  0.0875  0.1343  0.0008
21430W        W64343  21.645  17.174  15.931 -0.0957  0.1273  0.0147
21431W        W64344  25.623  18.474  19.377  0.0717 -0.1797 -0.0329
21432W        W64345  25.530   5.553  15.731 -0.2845  0.1237  0.1628
21433W        W64346  21.199  22.435  12.920  0.5474  0.2735 -0.0349
21434W        W64347  15.610   8.337  18.929  0.0455  0.2741 -0.0317
21435W        W64348  15.377  27.241  20.589  0.1477 -0.0105 -0.0155
21436W        W64349  30.284   9.141  21.106  0.1652 -0.1604 -0.1260
21437W        W64350  30.554  19.518  29.394  0.4298 -0.1118  0.1237
21438W        W64351  31.549   6.672  20.896 -0.1785 -0.0234  0.0949
21439W        W64352   2.293  13.432  17.814 -0.1250  0.1835  0.0451
21440W        W64353  20.732  10.198  23.425  0.0972 -0.4663  0.0057
21441W        W64354  24.247  23.595  20.046  0.3209  0.2483 -0.0620
21442W        W64355  25.138   5.799   2.085 -0.1164  0.0051  0.3867
21443W        W64356   4.346  20.967   0.945  0.0791 -0.0391 -0.2246
21444W        W64357   5.518  23.163  19.641 -0.1216  0.0531  0.0275
21445W        W64358  26.591  11.440  17.840 -0.0987  0.1898  0.3496
21446W        W64359  32.372  27.240  16.719  0.1362 -0.1069  0.0436
21447W        W64360   1.144  20.684  22.719 -0.1234 -0.0265 -0.0645
21448W        W64361  28.840  14.010  26.190 -0.0715 -0.1761  0.0036
21449W        W64362  31.095  13.771  17.185  0.2167 -0.0971 -0.0000
21450W        W64363  21.140  22.212  14.846 -0.1420 -0.2081 -0.3178
21451W        W64364  30.846   8.184  17.804 -0.1018 -0.0013  0.2432
21452W        W64365   0.815  13.950  22.467  0.1387 -0.1247  0.0759
21453W        W64366   2.246  14.335  18.366 -0.1798 -0.1892 -0.0473
21454W        W64367  27.421  25.708   0.473  0.1400 -0.4097  0.0429
21455W        W64368  27.431  31.914  28.320  0.0036 -0.1361  0.2215
21456W        W64369   3.210  24.169   1.453 -0.2531  0.2962  0.0413
21457W        W64370  26.291  21.336  17.883  0.0838 -0.1009 -0.4793
21458W        W64371  24.935  22.883  19.465 -0.1222 -0.3081 -0.1251
21459W        W64372  24.424  12.027  13.830 -0.2253  0.1779 -0.1820
21460W        W64373  32.945  14.939  17.456  0.2288 -0.3157  0.1668
21461W        W64374  31.396  24.039  22.821 -0.0864 -0.0287 -0.2078
21462W        W64375  19.606  23.190  15.718 -0.0373 -0.0212 -0.1387
21463W        W64376  30.902  27.570  27.357 -0.1310 -0.0704  0.1540
21464W        W64377  22.887  21.442  27.449 -0.2683  0.4360 -0.2301
21465W        W64378  21.060  12.835  22.744 -0.1595 -0.1219  0.4456
21466W        W64379  32.664  17.114  14.336 -0.1579 -0.3273  0.1163
21467W        W64380  25.937  22.365  14.439 -0.1422 -0.1197  0.1026
21468W        W64381  23.804  17.397  14.597  0.0485  0.2953  0.2417
21469W        W64382  20.175  20.827  28.045 -0.1847 -0.1710 -0.1593
21470W        W64383  25.829  27.558  14.540 -0.1269 -0.0328 -0.1585
21471W        W64384   1.505  20.991  22.576 -0.0105  0.0426 -0.1348
21472W        W64385  29.675  21.957  14.975  0.0548  0.2853 -0.1325
21473W        W64386  31.236  17.460  16.267  0.0056 -0.1648 -0.0190
21474W        W64387  22.459  22.037   0.103  0.0094 -0.0265  0.0576
21475W        W64388  17.608  18.410  12.785 -0.0539 -0.0244 -0.3317
21476W        W64389  20.821  23.479  19.966 -0.1676  0.3690 -0.0601
21477W        W64390  25.271  21.199  22.727 -0.0334  0.2641  0.0518
21478W        W64391  23.559  12.991  22.123  0.0974  0.1933  0.1453
21479W        W64392  28.899  16.086  14.021 -0.0615 -0.1693  0.0339
21480W        W64393   2.807  13.107  17.809  0.0038 -0.1125  0.3555
21481W        W64394  30.121  23.050  22.416 -0.1012 -0.1175  0.2011
21482W        W64395  10.688  15.075  14.202 -0.0890 -0.0284 -0.0142
21483W        W64396  14.693  24.290  15.759  0.0925 -0.4724  0.2854
21484W        W64397  26.112  26.386  22.901 -0.0079  0.2309  0.1660
21485W        W64398  25.432  10.733  23.566 -0.0133 -0.2158  0.0662
21486W        W64399  27.588  22.756   1.559 -0.0664  0.0779 -0.1361
21487W        W64400  20.802  18.484  13.654 -0.0611  0.0291  0.2264
21488W        W64401   0.557  15.211  23.550  0.1886  0.0654  0.2460
21489W        W64402  25.604  22.181  18.531 -0.0641 -0.2280  0.0100
21490W        W64403  31.444  12.068  15.172 -0.3417 -0.0267 -0.1691
21491W        W64404  23.377  16.031  20.840  0.0423 -0.2419  0.3493
21492W        W64405  15.983  24.000  20.055  0.2768  0.1555  0.0345
21493W        W64406  32.430  17.440  22.035  0.1718  0.2426  0.1165
21494W        W64407  24.217  28.774  23.940  0.2819  0.3372  0.1532
21495W        W64408  27.533   9.663  22.825  0.0451 -0.0972  0.1785
21496W        W64409  24.751  17.908  24.375  0.4896  0.2523 -0.2962
21497W        W64410  27.232  10.174  22.358  0.0333 -0.2565 -0.1222
21498W        W64411  28.586  21.877  13.718 -0.2319 -0.1630  0.2014
21499W        W64412  23.456   0.887  17.168 -0.0254 -0.0721 -0.0520
21500W        W64413  23.455  13.544  16.579  0.1632  0.0216  0.0285
21501W        W64414  19.425  21.429  23.556  0.2107  0.0998  0.1953
21502W        W64415  24.869  20.327  28.466  0.0337 -0.3739  0.0823
21503W        W64416  31.727  13.949  24.928  0.2923 -0.1016  0.1468
21504W        W64417  23.272  22.098  25.959 -0.0255  0.2748  0.3469
21505W        W64418   0.912  16.483  26.984 -0.1259  0.0586 -0.1347
21506W        W64419  31.975  13.145  14.570  0.1491  0.1370 -0.1270
21507W        W64420  26.494  22.261  23.458  0.2320 -0.0816  0.2125
21508W        W64421  24.792  22.962  23.560  0.2156  0.1811  0.1745
21509W        W64422   1.266  18.331  24.227  0.1640 -0.0688 -0.0777
21510W        W64423  18.984  20.645  13.644  0.0444 -0.2867  0.0417
21511W        W64424  25.916   7.121  18.177 -0.0594 -0.1267 -0.3108
21512W        W64425  10.712   7.294  21.072 -0.3006 -0.0807 -0.1538
21513W        W64426  21.909  33.306  16.744  0.1570  0.2042  0.2651
21514W        W64427  27.601  13.524  19.897 -0.1655 -0.2847 -0.1191
21515W        W64428   2.837  18.250  16.756  0.1526  0.0792  0.1769
21516W        W64429  23.881   9.875  14.308 -0.0399  0.0008 -0.0618
21517W        W64430   4.903  20.639  14.970  0.0003  0.0449  0.1619
21518W        W64431  25.596  25.014  24.657 -0.0376 -0.0105 -0.0484
21519W        W64432  25.835  17.211  19.596 -0.1918 -0.0697 -0.1475
21520W        W64433  23.926  20.476  14.363  0.0380 -0.2740 -0.0844
21521W        W64434  28.534  11.401  20.730  0.2312  0.3248  0.1365
21522W        W64435   2.758  19.087  14.149  0.0006 -0.1946 -0.0617
21523W        W64436  22.088   3.116  24.111 -0.1079 -0.0100 -0.4278
21524W        W64437  32.237  28.319  16.001 -0.1113  0.1159 -0.2508
21525W        W64438  24.157  14.709  14.990 -0.0794  0.1953 -0.1384
21526W        W64439  30.698  16.218  17.548  0.2950  0.0032  0.0866
21527W        W64440  24.286  19.427  24.410 -0.2310  0.1782  0.0437
21528W        W64441  28.041  17.796  18.333  0.1130 -0.1988 -0.1225
21529W        W64442  33.450  17.228  23.685  0.0098  0.1872  0.0832
21530W        W64443  20.215  14.127  24.390  0.0790 -0.0230 -0.2037
21531W        W64444   0.479  10.327  23.997  0.0942 -0.0744 -0.2934
21532W        W64445  28.805  26.399  16.506  0.2370  0.0470 -0.0343
21533W        W64446   3.277  16.844  19.403 -0.1627  0.2094  0.1664
21534W        W64447  23.083  13.067  23.651 -0.3019 -0.2648  0.0306
21535W        W64448  27.411   8.005  17.674  0.1332  0.0485 -0.0697
21536W        W64449  17.458  16.353  14.116  0.0833  0.1929  0.2608
21537W        W64450  30.653  15.951  19.787  0.0482  0.0713 -0.1526
21538W        W64451   5.484  20.347  16.938  0.0416 -0.3531 -0.0005
21539W        W64452  29.051  17.490  14.224  0.1892  0.0406  0.1413
21540W        W64453  12.357  21.777  27.961  0.0026 -0.0063  0.2366
21541W        W64454  29.944  15.630   6.144 -0.2564  0.0319 -0.0535
21542W        W64455  33.012  11.201  20.666  0.2609 -0.0029  0.0453
21543W        W64456  20.900  23.119  14.042 -0.1027 -0.0415 -0.2324
21544W        W64457  26.274  33.407  17.396  0.0354  0.4699 -0.0482
21545W        W64458   0.358  12.462  14.863 -0.0858 -0.1284 -0.1289
21546W        W64459  19.328   2.559  17.167  0.0824 -0.4224 -0.0285
21547W        W64460  26.934  10.738  18.721  0.1644 -0.0743 -0.0968
21548W        W64461  29.437  15.211  15.986  0.0166 -0.1184  0.0232
21549W        W64462  26.242  15.878  18.578  0.3491 -0.3342  0.4580
21550W        W64463  24.546  22.020  23.884  0.3497  0.0425 -0.0606
21551W        W64464  32.240  23.265  23.729  0.4049 -0.1567 -0.0947
21552W        W64465  24.979  20.205  24.766 -0.0459 -0.0387  0.1169
21553W        W64466  23.968  16.019  17.668 -0.1547  0.1509 -0.0677
21554W        W64467  24.885  10.358  21.071 -0.0501  0.0180 -0.1196
21555W        W64468  17.883  14.441  15.525 -0.1578 -0.1991  0.0687
21556W        W64469  28.453   9.227   0.052 -0.0369  0.2010 -0.1122
21557W        W64470  29.971  15.516  18.471  0.0999  0.3138  0.2130
21558W        W64471  26.109  21.165  19.773 -0.0502 -0.0046  0.0693
21559W        W64472  18.195  22.545  22.200  0.3390  0.0379  0.1293
21560W        W64473  24.513  23.331  23.742  0.1086  0.0334  0.0202
21561W        W64474  23.822  27.595  15.675  0.0259  0.1831  0.1481
21562W        W64475  21.158  20.144  22.667  0.5469 -0.0250 -0.0876
21563W        W64476  27.380  16.236  22.176  0.0502 -0.0769  0.1787
21564W        W64477  25.617  11.121  19.680  0.1843  0.2727 -0.1477
21565W        W64478  28.961  17.024  24.569  0.2302  0.0292 -0.2283
21566W        W64479  32.838  25.333  13.829 -0.0858 -0.0850 -0.3739
21567W        W64480  24.354  23.828  24.228 -0.1611  0.2894  0.2414
21568W        W64481  29.035  10.703  17.648 -0.0573  0.1124  0.0057
21569W        W64482  33.173  11.555  18.452  0.0046  0.1205 -0.0911
21570W        W64483  23.405  20.496  14.733 -0.0392  0.3773 -0.1751
21571W        W64484  28.621   8.696  17.812 -0.0134  0.0716 -0.2095
21572W        W64485  12.827  23.767  16.835 -0.2995 -0.3315 -0.1211
21573W        W64486  25.973  23.198  14.579 -0.0306 -0.2297  0.1293
21574W        W64487  24.964   7.977  28.388 -0.0051 -0.0311  0.2117
21575W        W64488   1.387  16.277   6.795 -0.0159  0.2092  0.2122
21576W        W64489  21.297  10.631  21.871  0.1162 -0.0029 -0.0243
21577W        W64490  27.378  20.982  27.428 -0.0131  0.0607 -0.3228
21578W        W64491  29.077  13.628  24.086  0.1175 -0.2077 -0.3797
21579W        W64492  21.680   7.933  22.299  0.2801 -0.2818 -0.1767
21580W        W64493   3.040  17.186  18.384  0.2785 -0.0174 -0.0949
21581W        W64494  22.101  11.631  14.417  0.0405 -0.0037 -0.1573
21582W        W64495   0.535  10.427  15.331  0.1064 -0.0226 -0.0357
21583W        W64496  28.257  16.673  23.421 -0.0478 -0.2097 -0.2426
21584W        W64497  28.020  16.307  13.611  0.1622  0.1913  0.0855
21585W        W64498   0.941  15.982  14.240 -0.1085 -0.1257  0.0035
21586W        W64499  31.023   9.018  15.528 -0.0336  0.1313  0.4278
21587W        W64500  28.487  21.271  14.520  0.1542 -0.2213 -0.0463
21588W        W64501  20.971  10.614  20.063 -0.1108 -0.3152 -0.2129
21589W        W64502  24.521  24.349  14.802 -0.2872  0.2507  0.1816
21590W        W64503  17.205  18.910  14.482 -0.0599 -0.3280  0.2285
21591W        W64504  28.866  15.403  14.974 -0.1650  0.0202 -0.1105
21592W        W64505  32.718  20.073  14.130  0.0174 -0.0182 -0.0075
21593W        W64506  25.603  23.612  16.910  0.3004  0.0206 -0.0814
21594W        W64507  26.626  17.268  27.949  0.1285  0.1921  0.1296
21595W        W64508   1.291  18.326  26.664 -0.3227 -0.1483  0.0611
21596W        W64509  26.892  20.358  14.305  0.1690 -0.2348  0.4541
21597W        W64510   3.098  23.839   4.637  0.0757 -0.1242 -0.0172
21598W        W64511  27.794  15.670  14.285 -0.0019 -0.1433 -0.3994
21599W        W64512  29.829   3.479  21.066 -0.0322 -0.2894  0.2017
21600W        W64513   7.777   9.540  19.090  0.0892 -0.0512  0.0190
21601W        W64514  21.573  12.804  16.078  0.0735 -0.0198 -0.3594
21602W        W64515  23.402  15.875  16.758  0.0611  0.0669  0.0399
21603W        W64516  17.523  13.457  29.513  0.0293 -0.1660 -0.0579
21604W        W64517  25.026  16.166  20.085  0.0820  0.0118  0.0074
21605W        W64518  20.454  24.574  15.497  0.1177 -0.4161 -0.1863
21606W        W64519  21.492   7.615  13.190 -0.0459 -0.1956 -0.2138
21607W        W64520  29.931  16.677  14.850  0.0655  0.3796 -0.2285
21608W        W64521  29.775   6.820  18.590 -0.3406  0.2319  0.0625
21609W        W64522  33.813  33.658  29.135  0.0045  0.0366 -0.0535
21610W        W64523  27.061   7.421   3.271 -0.4531 -0.0379 -0.0641
21611W        W64524  21.708  22.942  18.647 -0.0251 -0.0121 -0.2352
21612W        W64525  31.866  13.309  18.728 -0.2801  0.0224 -0.5010
21613W        W64526  30.116  17.128  19.509 -0.0142  0.3212 -0.0217
21614W        W64527  30.563  19.911  17.270  0.1204  0.2024  0.0023
21615W        W64528  29.198  15.241  14.483 -0.0806 -0.1059 -0.0146
21616W        W64529  29.133  19.796  16.850 -0.0971 -0.1261  0.0232
21617W        W64530  27.459  17.960  16.035 -0.0098  0.0958 -0.5325
21618W        W64531  30.625  18.043  15.581 -0.2540 -0.1689 -0.2267
21619W        W64532  22.573  33.465  20.226  0.1426 -0.1996  0.2108
21620W        W64533  26.743  22.726  15.856 -0.0551  0.1278 -0.3063
21621W        W64534  26.785   7.090  22.525 -0.0397  0.3475 -0.0463
21622W        W64535  14.967  10.024  14.708  0.2170 -0.3840  0.5797
21623W        W64536  15.694   8.829  18.699  0.1595 -0.1611  0.0848
21624W        W64537  13.714   9.166  14.948  0.0351  0.1227  0.0972
21625W        W64538  33.277  13.294  21.033 -0.1067  0.1946  0.1643
21626W        W64539  33.288  20.742  14.495  0.0368  0.0293 -0.1927
21627W        W64540  16.204   7.372  17.793 -0.2535 -0.1766  0.0136
21628W        W64541  23.404   8.617  27.652 -0.0675  0.0197  0.0203
21629W        W64542  24.091   6.127  16.440  0.1042  0.0360 -0.0531
21630W        W64543  32.375  22.838  15.821  0.0897  0.0261  0.3217
21631W        W64544  27.399  22.580  19.104 -0.2401  0.3607  0.2950
21632W        W64545   4.365  14.226  23.285 -0.0886 -0.2982 -0.2365
21633W        W64546  26.444  12.097  22.270  0.0255  0.1683  0.3115
21634W        W64547  27.165  19.011  25.526 -0.0250 -0.0095 -0.0973
21635W        W64548  19.414  24.674  22.338 -0.0185  0.0057 -0.0390
21636W        W64549  22.063   9.283  13.527 -0.0322 -0.2067 -0.0805
21637W        W64550  29.879  17.757  17.350 -0.0495  0.1911 -0.0415
21638W        W64551  30.879  15.992  15.164 -0.2387 -0.1395 -0.0020
21639W        W64552  21.291  19.217  18.834 -0.1093  0.0321  0.1008
21640W        W64553  25.674   9.492  28.807  0.0349  0.1383 -0.2104
21641W        W64554  24.113  18.301  18.525 -0.4817  0.3081 -0.0869
21642W        W64555  27.542  22.981  19.938 -0.1951 -0.2567  0.1297
21643W        W64556  27.221  25.302  18.068  0.1552  0.4236  0.1691
21644W        W64557  31.371  11.254  22.420  0.0405 -0.2085 -0.1957
21645W        W64558   3.072  17.860  17.621 -0.0656  0.0759 -0.0709
21646W        W64559  30.014  12.178  20.446 -0.1758 -0.3773 -0.0828
21647W        W64560  25.154   7.521  22.408 -0.3248 -0.1010 -0.1642
21648W        W64561  27.007  12.667   1.457  0.2420  0.0513 -0.0616
21649W        W64562  25.460  12.287  20.401  0.0894  0.0170  0.0018
21650W        W64563  15.673   5.909  23.240 -0.0954  0.1097  0.1529
21651W        W64564  33.992  19.314  21.045 -0.1680 -0.2136 -0.1099
21652W        W64565  28.348  10.851  17.564  0.1312  0.0502  0.1728
21653W        W64566  31.447  12.336  17.411 -0.1927 -0.0674 -0.0737
21654W        W64567  23.913  22.503  24.458 -0.2221  0.1537 -0.1120
21655W        W64568  20.979  21.662  25.792  0.2822 -0.1683 -0.2574
21656W        W64569   5.889   9.710  23.621 -0.2059  0.2448  0.0619
21657W        W64570  25.684  13.569  16.900 -0.1735 -0.1667  0.1521
21658W        W64571  31.460  21.184  17.592  0.2562 -0.1595 -0.0081
21659W        W64572  26.572  16.638  18.534  0.0400  0.0167  0.0636
21660W        W64573  27.673   7.088  18.311 -0.3646 -0.1930  0.2709
21661W        W64574  23.107  18.472  18.528 -0.5428  0.0396  0.5696
21662W        W64575  27.874  12.146  23.922  0.0142  0.2036  0.0216
21663W        W64576  19.841   3.818  21.019 -0.0266  0.0798  0.1899
21664W        W64577  29.373   9.221  19.135  0.3019 -0.1918  0.0499
21665W        W64578  26.901  19.232  23.187  0.2598  0.1073  0.0529
21666W        W64579  27.481  16.223  18.115  0.2734  0.2417 -0.3774
21667W        W64580  30.775  17.882  20.871 -0.0207 -0.2214 -0.0939
21668W        W64581  19.550   6.745  19.604  0.1736 -0.2074  0.1070
21669W        W64582  20.876   6.234  25.529  0.1286 -0.0478  0.1180
21670W        W64583  23.589  14.455  20.132  0.0116 -0.1121  0.2547
21671W        W64584  27.556   9.110  21.467  0.0949  0.0883 -0.2337
21672W        W64585  23.341   8.624   3.365 -0.2579  0.1548  0.1477
21673W        W64586  24.440  16.755  14.662  0.1895  0.0310 -0.1706
21674W        W64587  32.436  21.181  19.514 -0.0197  0.2931  0.0547
21675W        W64588  23.093   4.694  24.895 -0.3448  0.1163  0.0199
21676W        W64589  28.430  18.656  20.986 -0.5658  0.0672  0.5657
21677W        W64590   6.565   8.311  17.125  0.0341  0.1288 -0.2213
21678W        W64591  31.864  26.240  19.600 -0.0529  0.1985 -0.1307
21679W        W64592  22.635   9.033  23.526  0.0885 -0.2004 -0.0560
21680W        W64593  22.712   4.688  17.993 -0.3273 -0.3576 -0.1984
21681W        W64594  22.534  14.615  22.078  0.0324 -0.0812 -0.2812
21682W        W64595  25.512  11.559  19.770  0.1476  0.0606 -0.4370
21683W        W64596  23.361  18.604  16.184  0.1132 -0.0270  0.0287
21684W        W64597  12.082  23.614  19.067  0.0177  0.1418 -0.1725
21685W        W64598  23.969   8.539  14.855  0.0462 -0.3915  0.0582
21686W        W64599  31.345  18.363  14.863  0.0768 -0.2601 -0.2062
21687W        W64600  19.650  21.258  24.603 -0.1553 -0.2215  0.0231
21688W        W64601  28.541  15.443  17.398 -0.0458  0.0990  0.0682
21689W        W64602   1.904  28.193   5.088 -0.1237  0.0360 -0.2067
21690W        W64603  16.130  16.778  15.701 -0.0604 -0.2405 -0.0461
21691W        W64604  26.623  20.983  22.171 -0.1340 -0.1805 -0.2732
21692W        W64605  28.272  20.246  13.792 -0.1021 -0.0021 -0.1326
21693W        W64606  22.635  24.724  19.143  0.0550 -0.2388  0.0370
21694W        W64607  23.988  11.330  19.186  0.0465  0.3228 -0.3101
21695W        W64608  28.426  13.162  17.469 -0.0035 -0.1313 -0.0614
21696W        W64609  18.829  13.199  27.190 -0.5510 -0.1063  0.3698
21697W        W64610  19.976  22.229  14.454  0.1604 -0.2968 -0.0851
21698W        W64611  32.217  13.893  15.302 -0.1843 -0.0560 -0.1899
21699W        W64612  26.265  21.139  13.964  0.1015  0.2825 -0.0803
21700W        W64613  24.361  13.784  14.754  0.1211 -0.0421 -0.0460
21701W        W64614  34.174  20.662  22.339 -0.1326 -0.1391  0.3176
21702W        W64615  21.950  22.093  13.835  0.0528 -0.0401 -0.3560
21703W        W64616  25.459   5.874  18.705 -0.0699 -0.3253 -0.0328
21704W        W64617  28.313  15.027  23.504 -0.2338 -0.0584  0.3180
21705W        W64618  33.896  26.936  18.594  0.1253  0.0415  0.1964
21706W        W64619  25.874  23.915  19.230 -0.0361 -0.1128 -0.1136
21707W        W64620  30.926  32.798  26.870 -0.0094 -0.0650  0.3304
21708W        W64621  24.228   9.029  23.661  0.2505 -0.1966  0.0914
21709W        W64622  31.443  19.534  14.967 -0.0529 -0.1904  0.6586
21710W        W64623  33.091   8.338  17.768  0.0077 -0.1914 -0.2329
21711W        W64624  20.151  11.206  20.641  0.1276 -0.1538 -0.2500
21712W        W64625  21.386  10.118  15.734  0.2532  0.1004 -0.1526
21713W        W64626  24.555   8.285  18.939 -0.1879 -0.2421  0.1107
21714W        W64627  33.555  18.921  19.089 -0.1137  0.1540 -0.1785
21715W        W64628   4.397  15.809  22.298 -0.1563 -0.0391  0.0674
21716W        W64629  27.615  28.416  13.714 -0.1833 -0.3887  0.1502
21717W        W64630  29.074  21.183  15.568  0.1601 -0.2074  0.3428
21718W        W64631  22.718  16.652  21.921 -0.1479 -0.5541 -0.2714
21719W        W64632   3.166  10.991  24.728  0.0463 -0.1006  0.1345
21720W        W64633   0.591   1.704  19.381  0.0430 -0.1735  0.1588
21721W        W64634  28.024  11.878  17.012 -0.1403 -0.0692 -0.1120
21722W        W64635  18.493  12.353  12.594  0.2705  0.0326 -0.2116
21723W        W64636  20.853  13.408  25.447 -0.2464  0.0151 -0.1780
21724W        W64637  12.824   9.917  22.484  0.0571 -0.1296 -0.0886
21725W        W64638  33.016  16.746  29.530 -0.1356 -0.3472 -0.0745
21726W        W64639  33.112  10.872  29.076 -0.1312 -0.1926 -0.1744
21727W        W64640   0.181  16.743  19.821 -0.2699  0.0282  0.1812
21728W        W64641  25.568  15.760  24.087 -0.0029 -0.1924  0.1948
21729W        W64642  25.790   1.060  25.518 -0.1755  0.0648 -0.1049
21730W        W64643   5.439  12.329  21.009  0.0235  0.0349 -0.0974
21731W        W64644  26.282  16.691  14.058 -0.1696 -0.0033 -0.2016
21732W        W64645  29.689  15.432  22.333  0.2319 -0.0309 -0.0640
21733W        W64646  26.590  17.350  29.433  0.0034  0.2691  0.1994
21734W        W64647  26.442  13.945  21.872 -0.0407 -0.0088 -0.0812
21735W        W64648  26.961  21.610  22.982 -0.2311  0.1782  0.1268
21736W        W64649  26.569  16.272  18.150 -0.0534 -0.0142  0.0064
21737W        W64650  26.826  17.820  19.285 -0.3261  0.0622  0.0107
21738W        W64651  27.110  20.193  24.032  0.1606  0.1135  0.1380
21739W        W64652  25.141  26.221  14.394 -0.0804  0.0210 -0.5495
21740W        W64653  28.787  26.024  13.707  0.1646 -0.1002 -0.1703
21741W        W64654   2.461  16.469  24.219  0.1069  0.0399  0.1658
21742W        W64655  28.448  12.914  26.646  0.3616  0.2504  0.1351
21743W        W64656  30.231   4.396  26.390  0.0050 -0.2690  0.2351
21744W        W64657  32.633  17.508  14.830  0.0597  0.0356 -0.2040
21745W        W64658  20.803  13.316  24.403  0.1501 -0.1961  0.0595
21746W        W64659  30.380  10.515  23.095  0.0364  0.0157  0.3214
21747W        W64660  21.066  10.555  14.152 -0.5696  0.0367 -0.0483
21748W        W64661  28.469  18.125  15.203 -0.0760  0.4643 -0.0853
21749W        W64662  30.966  20.420  23.005 -0.2545 -0.1103  0.3416
21750W        W64663  28.326  14.083  14.827 -0.0983 -0.0395 -0.3015
21751W        W64664  34.086  23.990  15.069  0.3273 -0.3918  0.1709
21752W        W64665  11.797  20.271  19.115 -0.1008  0.2347  0.0517
21753W        W64666  25.271  13.501  22.629  0.1687 -0.2027 -0.1814
21754W        W64667  24.037  26.297  18.341  0.2362  0.3466 -0.1453
21755W        W64668  24.529  16.349  22.554 -0.0257  0.1259 -0.0655
21756W        W64669   4.324  16.448  28.182 -0.1647 -0.1046 -0.3877
21757W        W64670  31.923  11.942  21.821 -0.2496 -0.0355  0.0752
21758W        W64671  26.301  21.366  20.513 -0.2763  0.1038  0.2423
21759W        W64672   1.206  16.192  17.821  0.2695  0.0521  0.1164
21760W        W64673   3.212   7.955  16.984  0.0354  0.2153  0.0401
21761W        W64674  22.955  11.064  21.283 -0.0750  0.0936  0.1907
21762W        W64675  14.876  15.880  13.048 -0.0183 -0.2783  0.0672
21763W        W64676  33.655  15.484  24.384  0.3385  0.1883  0.2662
21764W        W64677  24.204  20.304  22.652 -0.1511 -0.0271  0.0548
21765W        W64678  33.220  10.572  18.997 -0.2025  0.0088  0.0002
21766W        W64679  21.107  14.972  11.742 -0.0590 -0.0939 -0.1255
21767W        W64680  17.048  23.975  18.124  0.0972 -0.0616  0.0220
21768W        W64681  26.752  28.206  18.397  0.2226  0.1266  0.3618
21769W        W64682  25.351  21.203  19.082 -0.0667  0.0677 -0.0982
21770W        W64683  27.358  20.962  20.328 -0.0833  0.0298  0.2701
21771W        W64684  20.410   2.860  17.655  0.0635 -0.0453  0.1678
21772W        W64685  34.194  19.744  14.940 -0.0782  0.3564 -0.0318
21773W        W64686  22.316   5.525  14.429  0.0042 -0.0025 -0.2691
21774W        W64687  11.148   6.727   2.152  0.0553 -0.0383 -0.3660
21775W        W64688  21.402  18.557  20.131 -0.1990 -0.1409 -0.0417
21776W        W64689  20.405  19.850  11.984  0.0617 -0.1540 -0.0544
21777W        W64690  27.075   7.117  15.777  0.1391  0.3264 -0.0640
21778W        W64691  25.320  20.793  25.194  0.1079 -0.1786 -0.2278
21779W        W64692  25.964  15.487  29.437 -0.3064  0.1385  0.0305
21780W        W64693  17.474  24.196  15.398  0.0964 -0.0443  0.3947
21781W        W64694  27.954  17.697  23.709 -0.0892  0.0029  0.3536
21782W        W64695  29.157  22.554  18.014 -0.0819  0.2104 -0.0141
21783W        W64696  22.489  24.256  14.653 -0.0838  0.1368 -0.2031
21784W        W64697  23.773  21.168  19.696  0.2380 -0.3423  0.2867
21785W        W64698  25.444   8.025  15.727  0.0460  0.1313 -0.1694
21786W        W64699  32.073  23.366  17.168  0.1773  0.3690  0.1039
21787W        W64700  12.702  15.268  26.359  0.1085  0.0207 -0.0679
21788W        W64701  17.425   9.636  15.575  0.1207 -0.0135  0.0374
21789W        W64702  22.333  19.932  14.435  0.0805 -0.2715  0.0634
21790W        W64703  24.971   8.061  18.468 -0.2681 -0.1551 -0.2022
21791W        W64704  28.779  14.154  25.680 -0.1012 -0.4831 -0.1192
21792W        W64705   0.264  20.605  24.540 -0.1720  0.1133 -0.2281
21793W        W64706  31.253  18.354  18.746 -0.0929  0.0477 -0.2820
21794W        W64707  18.884   2.450  26.783  0.0405  0.1259  0.0528
21795W        W64708  25.727  24.684  22.439  0.0015 -0.0699 -0.0893
21796W        W64709  27.800   6.624  23.848  0.3087 -0.0081  0.1208
21797W        W64710  28.817   3.478  15.748  0.0108 -0.1607  0.2952
21798W        W64711  23.120  10.058  22.534 -0.0188 -0.0275 -0.0182
21799W        W64712  24.154  10.391  20.970 -0.2770 -0.2382 -0.0309
21800W        W64713  19.162   5.976  19.764  0.1110 -0.0791  0.4104
21801W        W64714   4.465  16.799  18.623  0.0023 -0.2093  0.2096
21802W        W64715   0.833  12.830  21.721  0.1412 -0.3636  0.0627
21803W        W64716  25.156  17.066  22.046 -0.1425  0.1077 -0.1100
21804W        W64717  24.506  19.776  22.035 -0.0336 -0.2073 -0.1197
21805W        W64718  24.900   8.702  16.902  0.3120 -0.3204  0.0878
21806W        W64719  24.651  15.475  14.688  0.1204 -0.0492 -0.2384
21807W        W64720  25.640  29.536  16.221  0.0287 -0.1740  0.0126
21808W        W64721  23.437  14.589  17.824 -0.0163  0.3513 -0.3957
21809W        W64722  30.613  23.576  28.239  0.0428 -0.0653  0.0307
21810W        W64723  28.808  20.374  20.015  0.0997  0.0027 -0.2201
21811W        W64724  34.201  17.710  18.406 -0.0187  0.1490 -0.2097
21812W        W64725  23.680  17.299  17.410 -0.0851 -0.2246 -0.3649
21813W        W64726  19.062  23.911  16.031 -0.1325  0.1235 -0.0248
21814W        W64727  31.676  29.344  20.556 -0.2590 -0.0186  0.0201
21815W        W64728  24.345  11.554  23.118 -0.4180 -0.1869  0.4783
21816W        W64729   2.686  14.996  20.443  0.1397 -0.0446 -0.2162
21817W        W64730  17.825  10.672  17.812 -0.1377  0.2385  0.0319
21818W        W64731  18.842  17.482  15.117 -0.3123 -0.0272 -0.0654
21819W        W64732  33.706  20.287  28.398 -0.3860  0.1746 -0.0359
21820W        W64733  28.484  13.628  15.002  0.0529 -0.1031  0.1071
21821W        W64734  31.907  16.771  19.336  0.0111  0.0368  0.0067
21822W        W64735  26.542  10.625  22.428 -0.1052  0.0005 -0.0886
21823W        W64736  23.606  28.379  26.592  0.0568 -0.2021  0.2143
21824W        W64737  30.368  13.413   2.831  0.2873  0.3807  0.2316
21825W        W64738   7.510   9.359  25.475  0.0855 -0.1405  0.3730
21826W        W64739  25.937  20.190  24.917  0.1333  0.1469 -0.0781
21827W        W64740  28.259  13.209   5.929  0.0386 -0.1665 -0.2050
21828W        W64741  23.528  13.346  21.764  0.1622 -0.1680 -0.5834
21829W        W64742  20.359  13.420  18.918  0.0358 -0.0355 -0.0749
21830W        W64743  29.914  11.446  18.887 -0.3244  0.3127 -0.1771
21831W        W64744  33.349  16.666  29.178 -0.1449  0.2081 -0.0077
21832W        W64745  24.649   9.352  15.978  0.3004 -0.3161 -0.1972
21833W        W64746  24.801  11.025  17.875  0.1420  0.3248 -0.0252
21834W        W64747  18.845  15.581  22.458  0.1300 -0.0162 -0.0253
21835W        W64748  30.575  13.775  15.848 -0.2319 -0.3845 -0.0529
21836W        W64749  15.968   8.197  13.714 -0.3061 -0.0822  0.1280
21837W        W64750  31.596  23.106  20.571 -0.4258  0.0283  0.0865
21838W        W64751  24.885  16.070  27.861 -0.2706  0.1549 -0.1089
21839W        W64752  26.615  15.651  17.239  0.0453  0.1815  0.2137
21840W        W64753  19.365  22.498  21.121 -0.0425 -0.2418 -0.3153
21841W        W64754  27.608  14.334  21.045 -0.1888 -0.1530  0.1467
21842W        W64755  24.241  16.217  17.247 -0.3614  0.1291 -0.0694
21843W        W64756   7.246  12.059  21.322  0.2120  0.0192  0.0184
21844W        W64757   2.242  25.225  22.118  0.5562  0.1277 -0.1454
21845W        W64758  33.494  13.155  17.438  0.0523 -0.0169  0.1727
21846W        W64759  21.249   9.217  24.129 -0.2397  0.1212 -0.3360
21847W        W64760  27.473  22.761   2.542  0.2280 -0.1028  0.0535
21848W        W64761   0.664  12.747   0.343  0.1564  0.1249 -0.0913
21849W        W64762  16.899  23.466  22.095 -0.2141 -0.2682 -0.0849
21850W        W64763  11.221  17.851  17.579 -0.2635 -0.3431 -0.0403
21851W        W64764  22.611  21.294  16.644 -0.1707  0.0344 -0.0214
21852W        W64765  20.597  26.128  26.613 -0.2001  0.0378  0.0520
21853W        W64766  22.087  10.000  18.126 -0.0364  0.1594 -0.0192
21854W        W64767  19.990   5.590  28.227  0.1367  0.2643  0.2534
21855W        W64768  30.294  20.580  16.123 -0.0743 -0.3628  0.1367
21856W        W64769  23.005  12.308  19.893 -0.1670  0.2882  0.1461
21857W        W64770  34.062  17.705  29.432 -0.0949 -0.0087 -0.0904
21858W        W64771  23.819  14.173  22.405 -0.1249  0.1237  0.0172
21859W        W64772  13.247  21.371  20.544 -0.1817  0.0930 -0.0521
21860W        W64773  18.811  24.739  20.850  0.1164  0.0671  0.2544
21861W        W64774  23.257   9.478  29.586  0.0844 -0.2825  0.2791
21862W        W64775  32.205  20.350  28.675  0.2880 -0.1939 -0.0616
21863W        W64776  16.524  12.465  21.353 -0.0931 -0.0439  0.3412
21864W        W64777   5.799   1.848  24.041 -0.2051  0.0697 -0.0082
21865W        W64778  29.670  10.191  15.551  0.0172  0.1072  0.2230
21866W        W64779  34.088  20.732  14.197  0.1567 -0.2938  0.0006
21867W        W64780  22.102  27.409  23.793 -0.2114 -0.1913 -0.0470
21868W        W64781  30.214   9.761  19.656  0.4081  0.3060  0.0525
21869W        W64782  16.593   9.033  19.645 -0.2593  0.1737  0.1248
21870W        W64783   1.908  15.131  27.769  0.0964 -0.0893  0.0100
21871W        W64784  32.610  19.169  24.122  0.1211  0.0119 -0.1470
21872W        W64785  23.397  22.259  28.166 -0.0778 -0.1509  0.1100
21873W        W64786  26.037  10.165  18.060 -0.0573  0.3075 -0.3151
21874W        W64787   1.765  13.190  14.393 -0.1351  0.1115 -0.1798
21875W        W64788  29.408  23.883  27.023  0.0975  0.1502  0.2475
21876W        W64789  28.620  16.992  27.370  0.0749 -0.2407  0.0808
21877W        W64790   2.975  17.983   0.136 -0.0863  0.0445  0.0453
21878W        W64791  10.746   8.337  20.391  0.2634  0.3360 -0.2930
21879W        W64792  24.825  23.317  17.374 -0.0621  0.0156  0.5570
21880W        W64793  25.153  22.178  18.738  0.0757 -0.1479 -0.1196
21881W        W64794  25.544   7.556  25.120 -0.3178  0.1267 -0.2012
21882W        W64795  12.955   4.296   8.869 -0.3737  0.1519 -0.0198
21883W        W64796  21.218  14.647  14.242  0.2135  0.0316 -0.0698
21884W        W64797  30.463  13.787   3.923 -0.3623 -0.0410 -0.0905
21885W        W64798   1.257  19.183  23.139 -0.0659 -0.1426 -0.0258
21886W        W64799   1.441  18.644  21.196 -0.1621  0.2397  0.1930
21887W        W64800   1.398  19.296  14.583 -0.1800 -0.2123 -0.3037
21888W        W64801  33.736  21.830  21.279 -0.0487 -0.1005  0.2924
21889W        W64802  31.199  11.322  23.002 -0.2668 -0.0736 -0.2198
21890W        W64803  32.979  18.593  13.498 -0.2778 -0.3536 -0.1616
21891W        W64804  27.870  17.788  13.167 -0.1462 -0.0133 -0.2657
21892W        W64805   5.266  15.554  23.495 -0.1214 -0.2066 -0.1638
21893W        W64806  24.404  15.255  20.135 -0.1256 -0.0863 -0.0865
21894W        W64807  31.528  13.799  26.325 -0.2202 -0.2737  0.3120
21895W        W64808  21.027   6.695  23.678 -0.0806  0.0181 -0.0378
21896W        W64809  25.726  12.421  19.081  0.1488  0.0026 -0.1443
21897W        W64810   1.423  11.191  23.920  0.0860  0.1048  0.1118
21898W        W64811  33.430  18.709   7.348  0.0459 -0.0769 -0.1350
21899W        W64812  30.860  14.946   0.741  0.0623 -0.2277  0.3468
21900W        W64813  22.430  19.395  15.822  0.2868 -0.0888 -0.1204
21901W        W64814  28.424  12.496  20.500 -0.2379  0.2934 -0.0391
21902W        W64815  21.643  16.123  23.859 -0.0090 -0.0944 -0.2355
21903W        W64816  18.107   7.631  24.221  0.1487  0.1342  0.1573
21904W        W64817  25.857   4.151  22.016  0.1374  0.2296  0.0161
21905W        W64818  23.236  16.605  29.445  0.0070  0.1069  0.0806
21906W        W64819  29.791  15.010  21.506  0.0719 -0.2150 -0.2363
21907W        W64820  16.431   8.139  13.906 -0.0512  0.0870  0.4406
21908W        W64821   5.449  15.910  24.214 -0.2526  0.0183 -0.1317
21909W        W64822  20.408  10.343  24.733  0.0515  0.0591  0.0698
21910W        W64823  29.852   8.967  15.227  0.0936  0.1196  0.1283
21911W        W64824   1.058  12.945  22.252 -0.0830  0.0645 -0.1435
21912W        W64825   4.467  14.936  14.714  0.4197  0.2229  0.0824
21913W        W64826  32.244  15.424   5.192  0.1123 -0.2126  0.2430
21914W        W64827   2.793  15.247   9.890 -0.0872  0.1606  0.0670
21915W        W64828  28.006  17.154  22.177  0.3461  0.0352 -0.2235
21916W        W64829  28.431  26.973   2.525 -0.0249 -0.1807  0.0480
21917W        W64830  20.495  10.850  13.811  0.2795 -0.1247 -0.0166
21918W        W64831  24.802  15.841  18.764  0.0201 -0.2408  0.0008
21919W        W64832  16.663   8.000   3.564  0.2530  0.1916  0.0540
21920W        W64833  27.900  20.002   0.480 -0.0243 -0.1004  0.2367
21921W        W64834  27.323  12.372  16.413 -0.0830 -0.0661  0.0116
21922W        W64835  28.152  14.939  14.355 -0.4173  0.0611 -0.0686
21923W        W64836  29.636  19.736  29.521  0.0101  0.3485 -0.0005
21924W        W64837  24.669  23.199  25.082  0.2621  0.1964  0.3260
21925W        W64838  13.004  21.825   7.288  0.1548  0.1736  0.1969
21926W        W64839  28.387  15.105  18.329 -0.1628  0.3373 -0.2128
21927W        W64840  30.344  14.479  20.697  0.1723 -0.1253 -0.1431
21928W        W64841  23.787  19.883  19.560 -0.0570 -0.0150  0.0918
21929W        W64842  23.211  23.629  29.528  0.2991  0.1010 -0.1490
21930W        W64843  25.650  18.352  24.104  0.0906 -0.2471  0.0388
21931W        W64844  23.118  24.980  25.381 -0.0859  0.0856  0.1493
21932W        W64845  19.017  11.960  26.715 -0.4384 -0.1146  0.0259
21933W        W64846  26.646  26.826  27.612  0.2566 -0.0010  0.2133
21934W        W64847  24.540  13.595  20.277 -0.0152 -0.0054  0.1819
21935W        W64848  23.144  10.271   3.085  0.1985 -0.0964 -0.3757
21936W        W64849  29.359  16.298   2.440  0.0470  0.1880 -0.4503
21937W        W64850  30.966  20.717  26.682 -0.3586  0.1808  0.3372
21938W        W64851   0.517   6.839  20.222 -0.0087 -0.3593  0.2186
21939W        W64852  25.118  14.428  23.960 -0.2507  0.0628  0.5068
21940W        W64853   1.227  15.491  14.835  0.1785  0.2604 -0.1260
21941W        W64854  20.346  15.034  21.273 -0.1102 -0.1015 -0.0589
21942W        W64855  32.449  10.351  24.669 -0.1302  0.2720 -0.1978
21943W        W64856  24.593   5.971  27.563 -0.1328  0.0386 -0.1172
21944W        W64857  31.925  16.071  20.745  0.2073  0.0269  0.1070
21945W        W64858  25.837  13.170  14.177 -0.0433  0.2106 -0.0721
21946W        W64859  25.764  22.082  15.441 -0.2142  0.0772 -0.1315
21947W        W64860   2.407   8.878  26.832  0.2318 -0.1492 -0.1551
21948W        W64861   4.329  14.860   1.968 -0.0284  0.0174 -0.0917
21949W        W64862  27.908  13.182  19.664  0.1412 -0.0011 -0.3885
21950W        W64863  33.882  15.889  21.602 -0.0932  0.0266 -0.1162
21951W        W64864  33.779  20.978   5.751  0.2361  0.1604 -0.0299
21952W        W64865  24.937  19.114   2.733 -0.1318  0.4048  0.2028
21953W        W64866  26.056  23.958  21.326 -0.0812  0.2323 -0.3624
21954W        W64867   0.915  23.675  15.956  0.0838 -0.0216  0.0276
21955W        W64868  27.183  10.822  23.290  0.3236 -0.0847  0.0628
21956W        W64869  21.584  28.108  16.996 -0.2091  0.0731 -0.2314
21957W        W64870   3.860  17.400  25.412 -0.0639 -0.3478 -0.0571
21958W        W64871  20.867   1.701   6.770 -0.0384 -0.1210  0.0253
21959W        W64872  16.565   7.050   0.354  0.1410  0.2877  0.1753
21960W        W64873  30.516  26.142  23.218  0.0849  0.2130  0.4415
21961W        W64874  26.281  30.369  25.059 -0.1382  0.1731  0.5007
21962W        W64875  32.619  14.927  23.820  0.0598  0.0364 -0.0571
21963W        W64876   0.750  17.225  16.556 -0.1853 -0.1079  0.2202
21964W        W64877  19.765   8.664  21.720  0.1192  0.3702  0.0573
21965W        W64878  20.959  16.028  27.698 -0.1749  0.1141  0.2641
21966W        W64879  25.051  11.568  29.561  0.0241 -0.1753 -0.1355
21967W        W64880  27.271  23.049  21.215 -0.2181 -0.0717 -0.0217
21968W        W64881  30.595  15.336   3.358 -0.4004 -0.1152  0.0842
21969W        W64882   8.042   6.832  18.764 -0.3213  0.0651  0.1689
21970W        W64883  32.425  13.490  20.428  0.0384 -0.1710  0.0542
21971W        W64884  33.234  19.880   4.965  0.0274  0.1261 -0.0248
21972W        W64885   4.080  14.165  19.870 -0.3249  0.1037  0.1836
21973W        W64886   6.099  16.412  14.447  0.0482 -0.0629  0.0065
21974W        W64887  22.030  24.137  20.854 -0.0537 -0.1568  0.1554
21975W        W64888  31.150  33.598  24.791  0.1950  0.1722  0.1924
21976W        W64889  26.583  21.170  25.277  0.0585  0.3732 -0.0906
21977W        W64890  25.368  17.034   1.755  0.0839 -0.1107 -0.2869
21978W        W64891  14.215  11.484   8.939 -0.2124  0.1010  0.1061
21979W        W64892  27.367   5.970  21.338  0.3189  0.1046  0.1882
21980W        W64893   4.984  22.207  28.668 -0.3560  0.0121  0.1987
21981W        W64894  24.329   1.791   2.117 -0.0742  0.0809  0.0607
21982W        W64895  25.703  24.715  29.657  0.0591 -0.0905  0.4329
21983W        W64896  32.973  32.575  16.331 -0.1844  0.0620 -0.0850
21984W        W64897  31.931  27.312  20.343 -0.1955  0.0285  0.1359
21985W        W64898  23.081  25.668  18.910  0.0930 -0.1927 -0.0297
21986W        W64899  18.915  11.175  19.911 -0.2969 -0.1536 -0.0596
21987W        W64900   2.019  16.611  24.307 -0.1272 -0.4558 -0.1501
21988W        W64901  27.534  17.592  28.481  0.0080  0.0810 -0.3724
21989W        W64902  28.085  19.760  21.278  0.1511 -0.1046 -0.1199
21990W        W64903  22.780  17.217  27.719 -0.1111 -0.0153  0.0397
21991W        W64904  31.870  25.005  18.097 -0.1098 -0.1957  0.3947
21992W        W64905  18.437  17.671   6.244 -0.3724 -0.0526  0.0901
21993W        W64906  22.685   4.960  16.533  0.0362  0.0620 -0.4753
21994W        W64907  22.238  12.086  15.745 -0.0135  0.3646 -0.1856
21995W        W64908  24.913  20.760  26.021 -0.0553  0.1399  0.2078
21996W        W64909   5.244  22.007   3.730  0.0660  0.0135 -0.1292
21997W        W64910  23.664  13.229  14.219 -0.2340 -0.2094 -0.0731
21998W        W64911  27.464   5.981  23.632  0.0379 -0.0235 -0.3786
21999W        W64912  24.515  16.830  14.172  0.1272  0.1246  0.0162
22000W        W64913   7.531  18.514  24.325 -0.1491 -0.0452 -0.3453
22001W        W64914  25.882  18.176  22.983 -0.4491  0.1022 -0.0793
22002W        W64915  33.084  14.125  17.394  0.0134 -0.0101 -0.0086
22003W        W64916  30.325  14.835  17.392 -0.2509 -0.1454  0.2147
22004W        W64917  17.278   9.629  28.412  0.5236  0.1095  0.0102
22005W        W64918  21.201   8.866  29.104 -0.0203  0.0021 -0.1702
22006W        W64919  30.033  15.852  27.752 -0.0246 -0.0040  0.2677
22007W        W64920  21.175  23.396  26.342  0.0790  0.0434  0.0635
22008W        W64921  29.222  10.946  27.598 -0.2408 -0.2441  0.1015
22009W        W64922  29.240  12.427  24.677 -0.1796  0.0244  0.0343
22010W        W64923  18.453  15.845  15.345  0.0768  0.3202 -0.1062
22011W        W64924  20.531   3.551   0.598  0.0442  0.2997 -0.1908
22012W        W64925  20.087   5.498   1.557  0.0446  0.0191 -0.2535
22013W        W64926  32.322  20.179  26.745 -0.2602  0.2381 -0.2596
22014W        W64927  32.466  25.235   6.402  0.3157 -0.0648  0.2099
22015W        W64928  31.816   6.677  22.549  0.1618  0.0007  0.2805
22016W        W64929  22.241  23.175  17.847 -0.3702  0.0975 -0.0152
22017W        W64930  19.067  19.748   5.141 -0.2074  0.0429 -0.1875
22018W        W64931  22.938  21.758   0.349  0.0094  0.2508  0.0047
22019W        W64932  23.760  14.393  19.212  0.0346 -0.1498  0.1748
22020W        W64933  13.568  15.652  12.872  0.1856 -0.0882  0.2229
22021W        W64934  28.726   8.056  20.270  0.3420  0.2759 -0.2256
22022W        W64935  28.022  15.332  18.682  0.5611  0.0402 -0.0459
22023W        W64936  21.178   5.903  17.190  0.2207  0.0194  0.1403
22024W        W64937   7.033  22.725  22.497  0.0235  0.1361 -0.0543
22025W        W64938  26.870  17.942  17.896  0.3028 -0.1533  0.2896
22026W        W64939  29.695  13.557  15.429 -0.1146 -0.1249  0.0827
22027W        W64940  29.191  13.688  18.355  0.2829  0.0456  0.1129
22028W        W64941  26.344  17.761   3.961 -0.2516  0.0495 -0.0290
22029W        W64942   4.635  26.025   4.242  0.0282 -0.3267  0.1001
22030W        W64943   1.068   5.919   2.741 -0.2415  0.3991 -0.1473
22031W        W64944  24.813  23.910  24.506  0.1539 -0.0566 -0.0835
22032W        W64945  21.064  16.656  20.614  0.1024  0.0955  0.1131
22033W        W64946  20.331  19.649  21.843  0.0181  0.3451 -0.1832
22034W        W64947  20.430  14.077  23.817 -0.1478  0.0870  0.0532
22035W        W64948  25.359  21.317  29.428  0.3352  0.1972 -0.0980
22036W        W64949  34.414  24.433  16.182  0.3058 -0.2421 -0.1192
22037W        W64950   0.917  16.857   1.320  0.1048  0.0121 -0.0065
22038W        W64951  25.741  25.298  23.635  0.4309  0.0623  0.1687
22039W        W64952  28.038  19.954  22.485 -0.3098  0.2279 -0.2200
22040W        W64953  28.137  17.848  25.735 -0.0675 -0.2548 -0.1427
22041W        W64954  28.529  20.391  16.554  0.1521 -0.0216 -0.0521
22042W        W64955  26.419  19.524  20.668 -0.4903 -0.1301 -0.1606
22043W        W64956  12.459  12.523  22.631 -0.1718 -0.0722 -0.0607
22044W        W64957  25.326  10.694  23.100 -0.3836  0.2568 -0.0381
22045W        W64958  17.316   9.546  21.073 -0.1064 -0.2650  0.2259
22046W        W64959  19.879   9.646  15.607  0.2852  0.2203 -0.0992
22047W        W64960  33.922  13.521  22.380  0.0571  0.2021 -0.0293
22048W        W64961  20.100  14.738  15.515 -0.0167  0.0008  0.1261
22049W        W64962  17.940  30.271  19.697 -0.3338 -0.1840 -0.2003
22050W        W64963   1.296  12.340  29.470  0.1597 -0.1248  0.1312
22051W        W64964  34.380  29.268  25.586  0.0246  0.0537 -0.0089
22052W        W64965   1.566  27.125   2.286  0.1326 -0.1247  0.0575
22053W        W64966  16.768  11.404   1.019 -0.0289  0.1359 -0.1088
22054W        W64967  23.212  16.895  16.019 -0.1354 -0.1175  0.3107
22055W        W64968   2.907   4.371  24.470  0.1634 -0.0727 -0.0347
22056W        W64969  27.169  19.686  15.557 -0.2621  0.0682 -0.3582
22057W        W64970  26.432  18.792  13.353 -0.1655  0.0547  0.6034
22058W        W64971  24.905  11.240  28.618  0.3985 -0.1197  0.4121
22059W        W64972  21.179   4.914  26.105  0.0837  0.0859  0.3117
22060W        W64973   5.549  19.705  25.124 -0.0984 -0.3049 -0.0736
22061W        W64974   2.619   1.885  22.288  0.2912 -0.0429 -0.1987
22062W        W64975  23.482  15.682  21.198  0.0060 -0.1703  0.1897
22063W        W64976  29.692  24.707  27.666 -0.0959  0.2144 -0.3026
22064W        W64977  18.913  10.405  15.073  0.0520 -0.0706 -0.0908
22065W        W64978  16.947  10.199  17.849 -0.2419  0.0016 -0.2006
22066W        W64979  19.258  17.137   7.533  0.1504 -0.0756  0.0031
22067W        W64980  30.153   7.983  24.538  0.0686 -0.0237 -0.1841
22068W        W64981  26.833  15.757  24.579  0.1061  0.0003 -0.0758
22069W        W64982  20.104  10.181  19.488  0.2620 -0.0288 -0.2852
22070W        W64983  31.064  33.727  27.129 -0.2696 -0.2651  0.0552
22071W        W64984  26.083  13.224  19.676  0.0083 -0.0281 -0.1024
22072W        W64985  20.706   6.421  27.035 -0.1525 -0.2398  0.1679
22073W        W64986   1.044  17.243  20.869 -0.0021  0.1138  0.0749
22074W        W64987  29.677  16.166  29.282  0.3025 -0.0665  0.2288
22075W        W64988  25.007  20.676  20.024 -0.2101 -0.1795 -0.0014
22076W        W64989  24.319  11.618  24.916 -0.1571 -0.3017  0.1883
22077W        W64990  24.317  19.704  18.740 -0.2087  0.1743 -0.0357
22078W        W64991  31.939  11.461  15.319 -0.2024  0.2664  0.2586
22079W        W64992  33.941   6.553   3.512 -0.0932 -0.0629  0.2764
22080W        W64993  28.170  16.298  15.864  0.1388  0.2121 -0.2358
22081W        W64994  28.992  14.233  19.640  0.0990 -0.0188 -0.0825
22082W        W64995  28.925  21.577   0.895 -0.1382  0.2218  0.1405
22083W        W64996  23.267  15.186  28.012 -0.1201 -0.1411  0.0654
22084W        W64997  25.541   1.857  19.434  0.2061  0.1247 -0.4396
22085W        W64998  26.001  26.429   5.065  0.0999  0.3721  0.0198
22086W        W64999  19.161  13.113  29.090 -0.0365 -0.0887 -0.2244
22087W        W65000   4.656  10.571  22.478 -0.0074 -0.0500  0.0796
22088W        W65001  18.381  17.501  13.676  0.3699  0.0278  0.1029
22089W        W65002  24.968  25.743  15.120 -0.2930 -0.0566 -0.2031
22090W        W65003  16.602  27.588   0.455 -0.1943  0.0283  0.0157
22091W        W65004  28.532  12.373  26.649 -0.1049  0.0940 -0.0719
22092W        W65005  28.880  13.780  19.277 -0.2147 -0.0259  0.1073
22093W        W65006  29.885  19.910  15.866 -0.1121  0.1239  0.0342
22094W        W65007  34.358   8.001  10.607  0.1123  0.1750  0.0267
22095W        W65008  18.405  30.561  22.021  0.1570  0.2380  0.2064
22096W        W65009  15.792  16.147   4.606  0.0583 -0.1691  0.2980
22097W        W65010  25.729  21.410  24.268 -0.2537  0.2353  0.0917
22098W        W65011  27.073  16.590  16.609 -0.3474 -0.0371 -0.1150
22099W        W65012  19.344  16.118  15.202  0.2564 -0.0978  0.1014
22100W        W65013   3.533   7.124  17.858 -0.3628 -0.0170  0.0710
22101W        W65014  23.271  26.519  17.711  0.1559  0.2985  0.0811
22102W        W65015   4.136  15.856  28.272 -0.3568 -0.1482  0.2681
22103W        W65016  20.506   9.849  14.173  0.1145  0.0282  0.1268
22104W        W65017  33.831  13.956  22.733 -0.2679 -0.0862  0.0453
22105W        W65018  27.572  29.553  28.953 -0.0531  0.0791  0.1195
22106W        W65019  16.834  11.588  14.012 -0.1768  0.1862  0.3764
22107W        W65020  31.891  24.174  25.217 -0.0266 -0.3292  0.3094
22108W        W65021  25.795  14.763   1.705  0.1106  0.1778 -0.0165
22109W        W65022  14.936  17.566  13.026 -0.0087  0.0898  0.0192
22110W        W65023  18.371  10.969  19.240  0.1227 -0.1792  0.2201
22111W        W65024  26.253  17.849  19.990 -0.1849  0.0120  0.0106
22112W        W65025  21.589  16.243  12.397 -0.0900  0.2191 -0.0386
22113W        W65026  28.044  21.248  25.586  0.0250  0.0056 -0.2079
22114W        W65027  23.787   7.841  20.754 -0.2115 -0.0089  0.1484
22115W        W65028  33.769  19.248   6.451 -0.3636  0.1662 -0.1452
22116W        W65029  26.282  23.505  20.465  0.1563  0.1728  0.4595
22117W        W65030  34.215  24.310  28.962 -0.2065 -0.0821 -0.0128
22118W        W65031  16.922  14.412  22.539  0.2459  0.0684 -0.0526
22119W        W65032  25.982  12.389  20.311  0.0938 -0.2480  0.1098
22120W        W65033  29.393  17.586  19.039  0.3193  0.0942 -0.1229
22121W        W65034  26.679  19.928   3.247 -0.1844 -0.1395 -0.2042
22122W        W65035  33.621  13.396  24.564 -0.2027 -0.0727  0.1419
22123W        W65036  25.631  15.752  23.129 -0.0514  0.1268 -0.3391
22124W        W65037  22.796  15.974  20.173  0.0065 -0.2206 -0.0307
22125W        W65038  32.101  24.561  24.251  0.3591  0.1153 -0.1123
22126W        W65039  32.979  18.761  14.959  0.1593 -0.2112 -0.3074
22127W        W65040  27.217  17.233  24.772 -0.0246  0.0022  0.2065
22128W        W65041  16.524  11.843  20.881  0.0161 -0.1420  0.4119
22129W        W65042  24.565  17.155  21.910  0.0322  0.0648 -0.2609
22130W        W65043  32.824  18.465   3.923  0.1593  0.2726  0.2033
22131W        W65044  21.534  18.619   5.266  0.2099  0.2356 -0.1235
22132W        W65045  24.419  13.918  23.412  0.1352  0.0748 -0.1690
22133W        W65046  23.562  13.893  20.348  0.2054 -0.0523 -0.1424
22134W        W65047   1.567  27.171  25.165 -0.1637 -0.0910 -0.1053
22135W        W65048  26.104  21.669  29.582 -0.1773  0.1630  0.0468
22136W        W65049  30.352  30.824  19.909  0.2613 -0.1389 -0.1047
22137W        W65050  33.429  27.732   0.376  0.3619 -0.2153 -0.2915
22138W        W65051  17.032  12.728  16.222 -0.0921  0.0298 -0.0497
22139W        W65052  23.293  28.703  28.086 -0.1214 -0.1084  0.1488
22140W        W65053  32.413   8.519  18.157  0.0021 -0.0436  0.2631
22141W        W65054  31.663  15.057  19.323  0.4109  0.0514 -0.2404
22142W        W65055  21.577  21.779  25.527  0.1537  0.0733 -0.2756
22143W        W65056  30.015  24.095   0.160  0.0751 -0.1181 -0.0279
22144W        W65057  22.253  13.890  20.599  0.2083 -0.0532 -0.1137
22145W        W65058  33.017   2.334  25.566  0.1841 -0.0269 -0.1306
22146W        W65059  27.120  27.847  26.718  0.1907 -0.1231 -0.0158
22147W        W65060  17.722  25.285  21.949  0.2180 -0.1155  0.0591
22148W        W65061  25.160  18.344  23.192 -0.1580  0.0522  0.1016
22149W        W65062  31.675  23.591  23.514 -0.0421  0.1567  0.1075
22150W        W65063  32.826  14.290  25.114 -0.0422 -0.2445 -0.2828
22151W        W65064   5.536  25.102  17.887  0.0005  0.0975 -0.0428
22152W        W65065  29.761   8.729  24.390  0.0250  0.1227 -0.0506
22153W        W65066  22.389  20.410   0.733 -0.1069 -0.3049 -0.2068
22154W        W65067  24.652   4.159  26.098 -0.2286  0.1292  0.2569
22155W        W65068  34.138  23.479  23.791  0.1916 -0.1492 -0.0709
22156W        W65069  32.315  12.106  16.569  0.0175 -0.0113  0.1616
22157W        W65070  26.602  18.563  18.198  0.1771 -0.3191  0.3163
22158W        W65071   4.966  21.892  14.697 -0.0275 -0.1746 -0.2434
22159W        W65072  30.884  12.374  16.926  0.1699 -0.1471 -0.4207
22160W        W65073  30.082  22.387  21.777  0.2268 -0.0545  0.0790
22161W        W65074  22.158  17.175  19.374  0.0464 -0.0700 -0.1238
22162W        W65075   4.150  16.961  23.872 -0.1009 -0.2637  0.2633
22163W        W65076  19.350   1.172  22.872 -0.1583  0.0712  0.1742
22164W        W65077  21.763  19.121  15.096 -0.0067 -0.0695 -0.1062
22165W        W65078   6.578  23.787  25.884 -0.2455 -0.3613 -0.3522
22166W        W65079  20.584  10.464  17.085  0.4233 -0.0871 -0.3694
22167W        W65080   2.085  24.402  25.847  0.1552  0.0673  0.0952
22168W        W65081  27.957  15.087  22.335  0.1454  0.3292  0.1246
22169W        W65082  31.042   9.977  21.499  0.3526  0.1305  0.1425
22170W        W65083  17.097  22.958  25.239 -0.2385 -0.3965 -0.3910
22171W        W65084  20.261  22.858  27.837 -0.2730 -0.2477 -0.1700
22172W        W65085   7.724  22.898  22.070  0.0938 -0.1418  0.2949
22173W        W65086  28.437  12.840  15.282 -0.1484  0.0226 -0.0343
22174W        W65087  22.740  10.425  20.623 -0.0068 -0.0369 -0.2187
22175W        W65088  20.807  20.250  27.062 -0.1882 -0.1959  0.0898
22176W        W65089   0.244   7.468  18.413  0.2709  0.0073 -0.0864
22177W        W65090  29.330  13.190  17.597  0.1221  0.0922 -0.1905
22178W        W65091  31.818  15.794  27.026  0.1628  0.2813  0.0724
22179W        W65092  34.020  12.124  28.911 -0.0325 -0.2975 -0.2007
22180W        W65093  20.464  10.698   4.316 -0.1363 -0.1363 -0.1728
22181W        W65094  27.074  21.131  21.124 -0.2789 -0.0294  0.0139
22182W        W65095  23.115  19.594  23.807 -0.4261  0.3518 -0.0782
22183W        W65096  23.629   8.874  16.911 -0.0210  0.1673  0.2543
22184W        W65097  23.827  25.491  14.146 -0.1419  0.0968  0.1502
22185W        W65098  21.457   7.938  25.483 -0.0866  0.1734  0.0478
22186W        W65099  26.773  12.238   0.601 -0.1549 -0.1430 -0.1062
22187W        W65100  24.406  16.632   5.582  0.2515 -0.0545  0.0566
22188W        W65101  23.696   9.151  28.654  0.1159  0.2689  0.0708
22189W        W65102   4.528  11.099  16.508  0.1831  0.1005 -0.0975
22190W        W65103  30.932  22.609  15.624  0.1086  0.1737 -0.0143
22191W        W65104   2.628  14.509  24.818 -0.2365  0.2153 -0.0350
22192W        W65105  24.812  10.340  15.769  0.1197  0.2620  0.2598
22193W        W65106  18.636  10.128  17.818 -0.0882 -0.1951  0.2440
22194W        W65107  27.865  29.267  29.292 -0.0852  0.0315 -0.0653
22195W        W65108  25.012  24.287   5.103  0.0670 -0.0527 -0.1998
22196W        W65109   2.582   9.527  18.064 -0.0166  0.2229 -0.3753
22197W        W65110  21.823  11.092  16.963  0.0851  0.1075 -0.0586
22198W        W65111  32.766  13.573  18.561 -0.0915 -0.0447 -0.4999
22199W        W65112  24.007  18.016  15.827 -0.1871 -0.3021 -0.2013
22200W        W65113  26.726  17.521   0.111  0.2123 -0.0320  0.0943
22201W        W65114  27.225   2.961  25.968  0.2593  0.1769 -0.0121
22202W        W65115  34.017  15.240  24.691 -0.0830  0.1737  0.1065
22203W        W65116  28.052  25.029  26.615 -0.3575 -0.2909 -0.0712
22204W        W65117  22.909  12.691  15.592 -0.1522  0.1877 -0.3601
22205W        W65118  26.658   1.102  25.363 -0.1463 -0.1091  0.0203
22206W        W65119  30.363  15.166  16.921 -0.1042  0.1428 -0.0228
22207W        W65120  23.720  14.341  28.569 -0.0332  0.1082  0.4098
22208W        W65121   7.848  18.653  14.932  0.0006 -0.1815  0.0499
22209W        W65122  27.111  18.829  22.492  0.0325 -0.1926  0.2562
22210W        W65123  25.326  20.862   1.677  0.1375  0.0576  0.0703
22211W        W65124  27.630   5.804   0.584  0.0183  0.0674  0.1290
22212W        W65125  14.599  16.396  24.128  0.1554 -0.1887 -0.0431
22213W        W65126  28.557  11.668  21.986 -0.1845  0.1668 -0.1101
22214W        W65127  26.848  22.194  19.564  0.2192 -0.0439 -0.0215
22215W        W65128  29.439  17.070  14.945 -0.0757  0.1611  0.0305
22216W        W65129  30.965  21.766  18.934 -0.1195 -0.0075 -0.1997
22217W        W65130  18.225  26.823  26.725 -0.1553 -0.2253  0.1378
22218W        W65131   4.970  12.072  22.620 -0.4199 -0.0606  0.0202
22219W        W65132  26.596  14.748  18.500  0.0364 -0.2269 -0.1751
22220W        W65133  20.909  18.483  20.977  0.1983 -0.0741  0.1504
22221W        W65134   4.471   9.397  21.763  0.0497  0.1232  0.0950
22222W        W65135  26.676  31.372   0.269 -0.1358  0.1715 -0.2539
22223W        W65136  19.764   4.931  22.555  0.0658 -0.3376 -0.0436
22224W        W65137  26.416  10.301  29.173 -0.0401  0.3363  0.2830
22225W        W65138  34.367  17.627   3.828 -0.1244  0.1679  0.0690
22226W        W65139  29.396  11.518  16.525  0.0712 -0.1145 -0.0414
22227W        W65140   0.890  14.600   1.544 -0.0949 -0.0506 -0.1019
22228W        W65141  27.984  12.798   5.726 -0.1449 -0.2265 -0.0090
22229W        W65142  28.226  19.311  25.270  0.1159  0.0105 -0.2051
22230W        W65143  27.157  21.581   4.797 -0.1292 -0.2357 -0.1967
22231W        W65144  23.824  21.732   8.220  0.0272 -0.3279  0.1668
22232W        W65145  19.246  14.723   1.866 -0.0816 -0.0585  0.1626
22233W        W65146   0.288  11.800  21.331 -0.1858  0.1795  0.0159
22234W        W65147  29.546  14.443   5.171 -0.0543  0.0850  0.0831
22235W        W65148  31.483  17.260  28.359  0.4574 -0.3890 -0.1559
22236W        W65149  32.082  12.041  24.235  0.0389 -0.1808  0.2729
22237W        W65150  19.449  17.638   5.320 -0.0114  0.3516 -0.1074
22238W        W65151  23.416  24.162  26.565 -0.1009  0.1379  0.0543
22239W        W65152  33.105  15.997  27.902 -0.4534  0.0774  0.4405
22240W        W65153  26.334  17.627  20.749  0.1901  0.0777  0.0795
22241W        W65154   0.285  23.321  18.448 -0.0326  0.2734  0.0077
22242W        W65155  26.312   9.798  26.292 -0.1232  0.2230 -0.1076
22243W        W65156  18.199   6.600  29.254 -0.1319  0.0587 -0.0908
22244W        W65157  25.387  16.656   0.152 -0.0815  0.0988 -0.3086
22245W        W65158  28.297  16.375  25.670  0.1100 -0.0624 -0.1255
22246W        W65159  26.402  23.639  21.504 -0.1297  0.1064 -0.0954
22247W        W65160  17.958  23.122  19.208  0.2459  0.0107  0.0333
22248W        W65161  27.490  15.647   2.774 -0.0892  0.0471  0.4569
22249W        W65162  28.561  21.582  26.080 -0.2486  0.2106  0.1993
22250W        W65163  25.315   9.800  21.793 -0.5500  0.2579 -0.2926
22251W        W65164  28.901   9.532   1.829  0.1079  0.0668  0.0421
22252W        W65165  26.535  29.696   0.562  0.2413 -0.0085  0.0143
22253W        W65166  22.173  21.166   2.822 -0.0149 -0.3489  0.1080
22254W        W65167  17.876  21.524  16.211  0.2169 -0.0276 -0.2885
22255W        W65168  19.743   9.844  26.899  0.1461  0.4362  0.1610
22256W        W65169  22.390  12.064   3.799  0.1617  0.1549 -0.0728
22257W        W65170  27.738  18.978  25.532 -0.0056 -0.1823 -0.6068
22258W        W65171  29.430   2.935   0.868  0.1685 -0.2059 -0.1131
22259W        W65172  32.961  15.179  23.523 -0.1353 -0.0777  0.1925
22260W        W65173  31.958  25.769   1.259 -0.0996 -0.2363 -0.1024
22261W        W65174  29.750  16.010  26.645  0.1534  0.0947 -0.2869
22262W        W65175  18.708  22.077   2.689  0.1499 -0.1856 -0.2285
22263W        W65176  24.870  15.256  27.574  0.0015 -0.0113 -0.1326
22264W        W65177  19.111  22.573  28.400  0.3472  0.1608 -0.2479
22265W        W65178   2.703   6.574   5.358  0.1853 -0.2097  0.3644
22266W        W65179   5.886  11.846  24.231  0.6377 -0.3960  0.0301
22267W        W65180  27.539   6.958   1.438  0.0407  0.5134  0.1714
22268W        W65181   2.254  19.588  24.378  0.0017  0.4671  0.0335
22269W        W65182  20.942  18.991   2.680  0.0938 -0.0274  0.1491
22270W        W65183  29.847  32.729  22.590 -0.3674 -0.3282 -0.2924
22271W        W65184  28.753  13.253  22.912 -0.1617  0.3231  0.0172
22272W        W65185  16.847  22.867  27.796  0.1431 -0.0881  0.0887
22273W        W65186  30.953  16.282  25.463 -0.0504 -0.1854  0.0870
22274W        W65187  26.520   6.827   3.227  0.1987  0.0852  0.0208
22275W        W65188  32.062  21.453  16.947  0.0956  0.4920  0.1955
22276W        W65189  18.716  18.313  23.443  0.0084  0.0914  0.1589
22277W        W65190  27.655  25.489  13.893 -0.0845 -0.2357  0.1170
22278W        W65191  33.341  19.003  27.814 -0.1334  0.2491  0.0691
22279W        W65192  23.465  21.188  26.297  0.0438 -0.3668 -0.0146
22280W        W65193  29.572   8.880  22.527  0.3539  0.1782 -0.4297
22281W        W65194  24.006  13.500   6.901 -0.0686  0.1031  0.2909
22282W        W65195  21.253  16.091  20.391  0.2141 -0.3087 -0.0115
22283W        W65196  30.887   9.956  26.709 -0.0619  0.3099 -0.1274
22284W        W65197  26.281   1.746  24.768  0.0246 -0.0833  0.0515
22285W        W65198  22.523  12.442   5.464  0.0076  0.1827  0.0871
22286W        W65199  32.039   8.191  29.309 -0.0475  0.1336  0.0138
22287W        W65200  26.418  15.243   5.079 -0.0978 -0.1770  0.0594
22288W        W65201   3.193  22.615  10.138  0.0482  0.0307 -0.1906
22289W        W65202   5.329  12.262  16.011 -0.0816 -0.2320  0.0354
22290W        W65203  28.584  32.234  23.640 -0.2142 -0.1538 -0.1700
22291W        W65204  27.241  26.934  26.257  0.0143 -0.1131  0.0830
22292W        W65205  14.476  26.034   6.516 -0.1844  0.1975 -0.2609
22293W        W65206  25.448  22.204  26.488  0.1561  0.4334 -0.2828
22294W        W65207  28.354  12.966  10.028 -0.0493  0.0314 -0.2650
22295W        W65208  21.304  20.266  26.959 -0.0148  0.0453  0.1867
22296W        W65209  30.133  14.756   7.100  0.1354  0.2323  0.0435
22297W        W65210  23.041  20.911   0.014  0.0789 -0.2588  0.1488
22298W        W65211  28.853  25.086   4.399  0.4331  0.2758  0.0934
22299W        W65212  20.543  31.455   1.858  0.1112  0.1450 -0.0500
22300W        W65213  25.693   7.056  26.718 -0.2074 -0.0014  0.0916
22301W        W65214  30.609  20.622  22.218  0.1457  0.2474 -0.0267
22302W        W65215  16.016  23.322  22.425  0.0385  0.2291 -0.1860
22303W        W65216  23.982  29.697  26.063 -0.2685 -0.2706 -0.0707
22304W        W65217   2.223  17.998  23.382  0.2554  0.3541  0.2014
22305W        W65218  20.486   6.970  20.869  0.2656 -0.3622  0.0403
22306W        W65219  30.435  19.012  20.965 -0.3266  0.1350  0.2184
22307W        W65220  30.938  14.753  29.657  0.0616 -0.0152  0.3169
22308W        W65221  18.250  12.997  26.431  0.2472 -0.2014 -0.1896
22309W        W65222  31.792  15.971   6.646  0.0737  0.0704 -0.1964
22310W        W65223  28.051  16.236   1.011 -0.3130 -0.4575 -0.0260
22311W        W65224  28.642  12.886  21.787 -0.4098 -0.3495 -0.1142
22312W        W65225  32.726  29.754  26.302 -0.1119 -0.1010 -0.1439
22313W        W65226  27.613  19.715   2.127  0.1301  0.0462 -0.2925
22314W        W65227  29.597  22.004  26.814 -0.1673 -0.0637  0.2839
22315W        W65228  29.595  21.572   7.989 -0.0170  0.0426  0.0332
22316W        W65229   0.444  17.932  27.953 -0.1148  0.0516  0.2302
22317W        W65230  25.374  11.834  25.733  0.2988  0.2252 -0.2168
22318W        W65231  30.308  18.144   0.151 -0.1310 -0.1729  0.0821
22319W        W65232  14.943  28.186   0.247  0.2045  0.0965  0.0674
22320W        W65233  30.527   3.598   8.724 -0.4236 -0.1637 -0.0483
22321W        W65234  27.615   3.555  22.842 -0.0192 -0.2866 -0.2551
22322W        W65235  34.260  18.261  25.990  0.1458 -0.0031  0.0241
22323W        W65236  25.641  23.588   2.820 -0.0830  0.1030  0.2810
22324W        W65237  22.740  21.246   0.253  0.0182  0.0133  0.0301
22325W        W65238  31.326  24.564  27.899 -0.0105 -0.0921  0.1943
22326W        W65239  24.286  13.044  16.690  0.0710 -0.2669 -0.0943
22327W        W65240  29.486  20.242  26.768  0.1288  0.4604  0.0862
22328W        W65241  25.566  11.855   7.035 -0.1894 -0.2384 -0.1202
22329W        W65242  22.128  17.156   2.729 -0.1154  0.3482 -0.2232
22330W        W65243  25.815  10.889   2.787  0.0996  0.1334  0.0998
22331W        W65244  32.689  20.928   4.670  0.3087  0.4985  0.1472
22332W        W65245   4.209  24.022   3.930  0.2774 -0.1809  0.0253
22333W        W65246  33.689   7.823  27.374  0.3381 -0.1797 -0.2769
22334W        W65247  34.130  13.032   1.910  0.1252 -0.0882  0.1829
22335W        W65248  21.889  12.634  20.385  0.1000  0.2169 -0.1537
22336W        W65249   0.956  17.907   2.244  0.0242 -0.1413  0.1978
22337W        W65250  22.946  27.382  19.896 -0.3383 -0.1493  0.1869
22338W        W65251   0.634  29.599   4.024 -0.1122 -0.0794 -0.2375
22339W        W65252  33.271   2.711  21.238 -0.1172 -0.7527  0.0118
22340W        W65253  25.044   6.183  23.462 -0.1104 -0.0211 -0.2832
22341W        W65254  20.534  23.843   0.346 -0.1281  0.0083  0.2166
22342W        W65255  31.047  19.775   0.215  0.1294  0.1416 -0.0117
22343W        W65256  19.455  21.326  24.105 -0.0551 -0.1118  0.0068
22344W        W65257  23.386  25.808  27.393 -0.0723  0.2944 -0.2707
22345W        W65258   1.480   8.593  21.625 -0.2665  0.0502  0.0937
22346W        W65259  32.534  31.426   6.139  0.0117  0.1585 -0.0877
22347W        W65260  19.618  11.274  23.336  0.0838  0.3287 -0.1377
22348W        W65261  20.211   7.169  27.449 -0.1541  0.1202 -0.1161
22349W        W65262  27.681  26.790  25.288  0.0442  0.3293  0.0694
22350W        W65263  26.998   9.964  18.343 -0.2077 -0.0937 -0.0432
22351W        W65264  22.794  14.988   7.018 -0.1118  0.1492 -0.3010
22352W        W65265  16.514  10.030  24.630  0.5595  0.2073 -0.2381
22353W        W65266  32.346  17.549  27.129  0.1604  0.2602 -0.2531
22354W        W65267   1.026  23.385  24.388  0.0975  0.3525  0.3613
22355W        W65268  22.012  14.976  26.112  0.0653  0.0204  0.3067
22356W        W65269  25.384  18.011   2.053  0.0629  0.0545 -0.1062
22357W        W65270   2.739  17.810  10.167  0.0659  0.1344  0.2079
22358W        W65271  19.614  12.010   4.169  0.1356 -0.1346  0.3656
22359W        W65272  20.036   9.271  18.653  0.1796  0.3604 -0.0155
22360W        W65273  22.854  14.578   5.978  0.3373  0.2503  0.2438
22361W        W65274  24.593  15.772  23.698  0.0447  0.0601 -0.0147
22362W        W65275  20.787   3.846  26.649 -0.2208  0.1191  0.0851
22363W        W65276  21.893  22.586   5.133  0.1121  0.2683 -0.0882
22364W        W65277  27.286   6.265  26.284 -0.0700  0.0153  0.2747
22365W        W65278  30.938  12.296  25.059 -0.2119 -0.0521 -0.3275
22366W        W65279  22.652  23.309  27.485 -0.0371 -0.0666  0.1503
22367W        W65280   0.184   0.945  21.642 -0.0572  0.0403 -0.2155
22368W        W65281  30.639   3.595   4.050  0.2264  0.1614  0.1578
22369W        W65282  17.357   8.970  24.859  0.1054 -0.1915 -0.2831
22370W        W65283  22.446   6.949   6.671 -0.0898  0.0052  0.2551
22371W        W65284  31.107   8.539  22.126 -0.1621 -0.0899  0.1803
22372W        W65285  24.312  20.467  24.840  0.1800  0.1040 -0.1287
22373W        W65286   0.149  18.145  22.680  0.3334 -0.3542  0.3062
22374W        W65287  24.574  10.714   3.598 -0.0874  0.1572  0.0354
22375W        W65288  28.262  13.476   7.804  0.2628 -0.2958 -0.0919
22376W        W65289  25.282   7.689   5.273 -0.2412 -0.2902 -0.0429
22377W        W65290  25.702  23.419  28.889 -0.3620  0.1848  0.0698
22378W        W65291  26.127  20.517  21.138 -0.3167 -0.2475 -0.0089
22379W        W65292  19.009  16.601  26.646 -0.1851  0.2347 -0.1732
22380W        W65293  22.814  20.636   0.843  0.5799  0.0755 -0.0666
22381W        W65294  18.033  15.082   5.673 -0.0811 -0.0008  0.3520
22382W        W65295  30.203  28.776  20.760  0.1260 -0.2476 -0.2196
22383W        W65296  19.198  20.527  17.178  0.2943 -0.1269  0.0437
22384W        W65297  29.589  19.636   3.340 -0.1583 -0.0201 -0.0030
22385W        W65298  28.339  27.719  21.885  0.1500  0.2675 -0.1764
22386W        W65299  23.087  17.648   2.100  0.0877  0.0436  0.1053
22387W        W65300  26.065  15.856   4.917  0.4392 -0.1440  0.0487
22388W        W65301  10.744  14.298   2.909  0.2420  0.2732  0.0387
22389W        W65302  28.900  20.046  27.457 -0.1742  0.2122 -0.0069
22390W        W65303  23.742   9.929  25.318 -0.3094  0.1995 -0.5267
22391W        W65304  30.991  14.699  22.255  0.3200  0.0675 -0.2900
22392W        W65305  22.027  15.613  25.097  0.0746  0.1398 -0.0006
22393W        W65306  24.070  17.924  22.680  0.2065 -0.0803  0.2557
22394W        W65307  32.808  24.549  25.261 -0.1578 -0.1226 -0.0019
22395W        W65308  23.982  25.886  21.680  0.0882 -0.1024 -0.0748
22396W        W65309  31.681  25.993   8.722  0.0642  0.0986 -0.2306
22397W        W65310  26.515   9.862  18.650 -0.1574  0.1139 -0.0266
22398W        W65311   1.060   6.524  26.563  0.2974  0.0518 -0.1149
22399W        W65312  23.795  14.593  23.325 -0.0500  0.0190  0.1162
22400W        W65313  18.905  15.003  26.365  0.2209  0.0298 -0.2710
22401W        W65314  20.645  16.750  25.260 -0.0316  0.2373 -0.0708
22402W        W65315  32.300  23.783   1.504  0.0352  0.2811 -0.1093
22403W        W65316  18.744  11.686  29.129 -0.0684 -0.2963 -0.0177
22404W        W65317  22.124  12.134  20.145 -0.3315 -0.2002 -0.0901
22405W        W65318  27.472  18.052   1.831 -0.0271 -0.2183  0.3597
22406W        W65319  23.094   4.483  26.216 -0.3159  0.1145  0.4789
22407W        W65320   1.929  21.536   0.544 -0.1829 -0.3046  0.1721
22408W        W65321  27.064  19.287   8.158  0.0270 -0.1101  0.1990
22409W        W65322  33.521   9.621  24.787 -0.0396  0.4972 -0.2495
22410W        W65323  21.172  13.268  16.680  0.1386 -0.1656 -0.1279
22411W        W65324  26.823  19.316  25.262  0.0315  0.1178  0.0305
22412W        W65325  28.462  17.326  26.775 -0.2278 -0.4144  0.0526
22413W        W65326  29.979  15.281   6.853  0.0621 -0.1920  0.1744
22414W        W65327  31.332  20.038   3.458  0.1698  0.0571  0.1589
22415W        W65328  27.293  16.033  29.726  0.1340  0.2204  0.0069
22416W        W65329  23.701  12.329  22.769 -0.4121  0.0585  0.2223
22417W        W65330  30.743  19.365  24.801  0.1629 -0.3038  0.0829
22418W        W65331  11.551  23.318  18.330  0.0303  0.1343 -0.0328
22419W        W65332  22.740  12.835   8.502 -0.5114  0.0568 -0.1220
22420W        W65333  17.918   9.201  24.879 -0.2498 -0.0734  0.1353
22421W        W65334  24.870  11.430   2.071  0.2561 -0.2152  0.3962
22422W        W65335  26.448  14.216  23.692  0.2669 -0.0237  0.1814
22423W        W65336  18.869  20.448  21.890 -0.0109  0.1091  0.0593
22424W        W65337  25.811  20.092  21.889  0.4920  0.0444  0.2009
22425W        W65338  34.283  16.103  27.950 -0.5483  0.0381 -0.1242
22426W        W65339  28.743  27.053  23.678 -0.1326  0.0908  0.0994
22427W        W65340  30.960  21.022  29.039  0.3849  0.1546  0.0880
22428W        W65341   0.021  18.201   6.253 -0.0761 -0.0768 -0.1301
22429W        W65342  19.331  12.361  26.406 -0.0067  0.3006 -0.1154
22430W        W65343  32.873  21.026   0.935 -0.2001 -0.0184 -0.3166
22431W        W65344  23.677  22.906   8.169 -0.2467 -0.1562 -0.0342
22432W        W65345  25.862  17.587  29.489  0.0197  0.1569  0.1735
22433W        W65346  24.321  20.002  24.565  0.0280 -0.1762  0.1543
22434W        W65347  31.818  15.272  29.610  0.1265 -0.2594 -0.0099
22435W        W65348  29.329  22.698   3.855  0.1806 -0.2770 -0.0092
22436W        W65349  17.863  15.268   1.409 -0.1103  0.3687  0.0496
22437W        W65350  18.851  28.588  28.511 -0.3547 -0.0703 -0.1497
22438W        W65351  25.993   5.450   3.263  0.1568  0.2268  0.1182
22439W        W65352  27.869  19.850  29.278  0.0047  0.1908 -0.5790
22440W        W65353   5.984  19.749  26.881  0.2520 -0.3180  0.2649
22441W        W65354  21.191  17.883  24.624 -0.1297  0.0966 -0.0166
22442W        W65355  24.141  24.926  28.437  0.0403 -0.2314 -0.2121
22443W        W65356  32.128  17.669  21.277 -0.2499  0.0627 -0.1178
22444W        W65357  15.745  19.190   6.334 -0.2568 -0.0728 -0.0414
22445W        W65358  24.681  18.595  27.467 -0.0174  0.0253 -0.0118
22446W        W65359  25.576  10.815  10.375 -0.2224  0.0783 -0.1992
22447W        W65360  19.048  14.612  25.636 -0.1850  0.0286 -0.0445
22448W        W65361  29.569  17.927  26.141  0.1999 -0.0259 -0.2410
22449W        W65362  21.242  20.242   8.117 -0.1282 -0.2977 -0.1315
22450W        W65363  31.456  16.320   0.141  0.1608 -0.1333 -0.1388
22451W        W65364  27.672  26.896  24.738  0.1490 -0.2951 -0.2194
22452W        W65365  27.763  17.123   5.309 -0.0413 -0.0979  0.1662
22453W        W65366  31.618  16.489  20.665  0.0844 -0.0755  0.2219
22454W        W65367  25.936  17.604  15.159 -0.2247 -0.2126 -0.1074
22455W        W65368  25.636  16.073   0.809  0.0907  0.0877  0.1985
22456W        W65369  27.950  28.073  21.797  0.0267 -0.0311 -0.3198
22457W        W65370  29.490  25.662  18.003 -0.1244 -0.1404  0.3509
22458W        W65371  28.583  18.660   3.600  0.2620 -0.0540  0.3299
22459W        W65372  33.934   2.774  15.817 -0.3999 -0.1253 -0.4110
22460W        W65373   1.517   5.575  24.205  0.3756 -0.1047  0.3300
22461W        W65374  25.731  18.147  28.641 -0.0563 -0.0813 -0.2938
22462W        W65375  22.096  21.568  19.001  0.0058 -0.1634 -0.4326
22463W        W65376  30.923  22.033   0.300  0.2046 -0.1422 -0.1977
22464W        W65377  12.277  11.778  16.312 -0.2386 -0.2980 -0.1619
22465W        W65378  23.354  10.159  26.316 -0.1351  0.2782 -0.0835
22466W        W65379  11.180  20.890  25.372 -0.2283  0.2196  0.0461
22467W        W65380  26.122  15.263   8.769  0.0713  0.0836  0.1963
22468W        W65381  13.708   9.585   5.013 -0.0667  0.1555 -0.1395
22469W        W65382  25.218   3.140   0.042 -0.0985  0.1753  0.0720
22470W        W65383  33.718  19.394  27.066  0.2839 -0.0594  0.1718
22471W        W65384  23.879   9.824   1.699 -0.1477 -0.3653 -0.2042
22472W        W65385  22.050  17.614  21.201 -0.1238 -0.0326 -0.1429
22473W        W65386  33.649  22.955   1.074 -0.0093 -0.2819  0.0987
22474W        W65387  18.625   3.381   2.628 -0.1404 -0.0978 -0.1255
22475W        W65388  32.190  13.644   8.624  0.1156 -0.3698  0.2534
22476W        W65389   4.944  12.750  25.873 -0.0821  0.0105 -0.2557
22477W        W65390  31.003  13.443  18.679 -0.1850 -0.0536  0.1838
22478W        W65391  25.457  15.912  23.528  0.2316  0.3062 -0.5024
22479W        W65392  30.394  16.160   6.799 -0.0160  0.0893  0.0315
22480W        W65393  20.780  13.300   4.965 -0.2088 -0.0767 -0.1476
22481W        W65394  27.181  31.127  24.411 -0.2660  0.1532  0.1531
22482W        W65395  25.354  18.785   2.685  0.2454 -0.0102  0.2156
22483W        W65396  29.595  22.524  20.030 -0.0503 -0.0863  0.0696
22484W        W65397  26.004  11.560   7.103 -0.0946 -0.1405  0.1198
22485W        W65398  18.390  22.739  20.462  0.0216  0.1718 -0.3095
22486W        W65399  27.459   7.373  20.697  0.0555 -0.0077 -0.2288
22487W        W65400  22.734  18.224  23.525  0.0304  0.0869  0.0283
22488W        W65401   0.353  17.772  17.708  0.0134  0.0315  0.0280
22489W        W65402  22.894  22.749  29.247 -0.0112 -0.0573 -0.0393
22490W        W65403  25.922   7.679  22.477  0.0615 -0.2645  0.0121
22491W        W65404  28.861  18.895   3.961  0.1909  0.0810  0.0438
22492W        W65405  28.517  23.654   2.299  0.0753  0.0947 -0.0626
22493W        W65406  27.476  15.581  24.041 -0.0193 -0.1346  0.2163
22494W        W65407  13.071  18.765   9.431  0.0354  0.1601  0.1457
22495W        W65408   7.970   7.765  25.997 -0.0210 -0.0140 -0.0442
22496W        W65409  29.026   8.191   5.229 -0.0464  0.0237  0.3350
22497W        W65410  26.305  10.320  28.028  0.3564  0.4934 -0.0864
22498W        W65411  19.556  17.877  14.506  0.1871  0.0457  0.0692
22499W        W65412  30.054  20.224  26.054 -0.0211 -0.1393 -0.2670
22500W        W65413  29.089  10.380  27.991 -0.1825  0.3079 -0.0860
22501W        W65414  22.320  33.483  27.975 -0.3274 -0.1217  0.0223
22502W        W65415  30.939  23.964   1.623 -0.1660 -0.3750  0.2546
22503W        W65416  33.942   9.377  21.795  0.3385 -0.3223  0.2631
22504W        W65417  23.034  16.604   5.327  0.0001 -0.0044 -0.2503
22505W        W65418   0.920  14.929  17.196 -0.0421  0.2015  0.0404
22506W        W65419  20.458   8.533  26.290 -0.0005  0.1474 -0.0959
22507W        W65420   1.769  14.515  16.078  0.3510  0.0672 -0.0914
22508W        W65421  25.017  19.547  23.423 -0.2202 -0.0354  0.2030
22509W        W65422  21.563   8.925  27.899 -0.1512 -0.4027 -0.2852
22510W        W65423   4.033  22.074   0.244 -0.0664  0.0212 -0.1698
22511W        W65424  21.362   9.559  26.406 -0.1470  0.0969  0.0172
22512W        W65425  24.600   9.308   1.504  0.0769 -0.0881  0.0950
22513W        W65426  28.900  32.561   4.927 -0.3166 -0.0459  0.1793
22514W        W65427  26.315  18.828  25.113 -0.0163 -0.2471 -0.2198
22515W        W65428   5.977  15.080  25.323  0.0178  0.2039 -0.0759
22516W        W65429   0.993  19.602  26.698 -0.2554  0.1763 -0.1558
22517W        W65430  33.005  20.361  18.558  0.1826  0.0166 -0.3885
22518W        W65431  25.683  24.053  15.170  0.2760 -0.3548  0.0402
22519W        W65432  30.185  13.284  23.079 -0.2302 -0.1962  0.1210
22520W        W65433  24.032  14.481  27.034 -0.1182  0.1014  0.2278
22521W        W65434  20.747   5.839  27.281  0.4478  0.2822 -0.3135
22522W        W65435  23.328  20.784   1.418 -0.0585 -0.0328  0.2978
22523W        W65436  23.619  16.666  18.827 -0.0331 -0.0854  0.1204
22524W        W65437  20.282  15.526  25.580  0.3265 -0.1908 -0.0875
22525W        W65438  21.217  16.304  27.329  0.1410  0.0951 -0.1828
22526W        W65439  30.044  20.319   9.155  0.0760  0.0889  0.1304
22527W        W65440  25.512  18.249   0.222 -0.1386  0.1138  0.1733
22528W        W65441  21.321  12.281  19.396  0.0117  0.1369  0.0706
22529W        W65442  29.598   5.505   0.417  0.1001  0.3414  0.0726
22530W        W65443   1.375  24.321  22.334  0.0844  0.1701  0.0813
22531W        W65444  14.671  24.954  28.526 -0.1439 -0.1522 -0.0038
22532W        W65445  29.265  17.344   0.155 -0.0136  0.1110  0.0174
22533W        W65446  20.599  16.073  26.109  0.0920  0.0268  0.0650
22534W        W65447  15.029  17.991  22.786 -0.0418 -0.1511  0.2012
22535W        W65448  25.212  32.900  25.174 -0.1528  0.2475  0.1327
22536W        W65449  23.168  14.502  27.667 -0.2155 -0.2281  0.1637
22537W        W65450  28.862  27.053  14.775 -0.0467  0.1136  0.2142
22538W        W65451  21.702  27.072  24.027  0.5698  0.2729  0.2953
22539W        W65452  27.591  21.997  26.143 -0.0779  0.1252  0.2917
22540W        W65453  30.396  31.798   6.445  0.0050  0.1074 -0.1067
22541W        W65454  25.949   7.830  24.980  0.0571 -0.2771 -0.0663
22542W        W65455  21.766  30.517  25.959 -0.2777 -0.0736 -0.3640
22543W        W65456  15.454  22.182  21.872 -0.1953 -0.0060  0.1683
22544W        W65457  19.331  18.388  22.580 -0.1075  0.0039 -0.2111
22545W        W65458  26.520  20.548   0.019  0.0234 -0.1071 -0.2041
22546W        W65459  20.560  22.965  24.063 -0.1266  0.0848 -0.1593
22547W        W65460  26.376  13.189  28.241 -0.2330  0.2929  0.1342
22548W        W65461  26.822   6.025  21.186  0.0150  0.0022 -0.0959
22549W        W65462  22.597   9.857  16.391  0.2954  0.0315 -0.3358
22550W        W65463  27.960  14.882  16.084  0.2071 -0.3627  0.3523
22551W        W65464  30.581  19.268  26.676  0.3668 -0.1357 -0.1049
22552W        W65465   0.296   9.249  19.800  0.1841 -0.2464 -0.1148
22553W        W65466  29.889  17.430   2.137 -0.0571  0.0145 -0.0875
22554W        W65467  30.738  17.601   3.677  0.1372  0.1756  0.0712
22555W        W65468  23.958  25.162  20.701 -0.0481  0.1387 -0.2999
22556W        W65469  23.570  15.601  22.930  0.1554 -0.0577  0.1329
22557W        W65470  13.093  10.088   1.533 -0.1457 -0.1666 -0.0629
22558W        W65471  27.615   1.692   8.987 -0.1034  0.0765 -0.0338
22559W        W65472  21.681  11.459  16.160  0.0342  0.0886 -0.0625
22560W        W65473  33.043  27.182   1.198  0.2381  0.0622 -0.2034
22561W        W65474  31.009  21.656  27.817  0.1453  0.1726  0.1797
22562W        W65475  22.994  16.068  25.775  0.0664  0.1319 -0.1171
22563W        W65476  16.058  18.649  24.463  0.2090 -0.0471  0.1180
22564W        W65477  22.818  16.181  22.619  0.0755 -0.1620 -0.3322
22565W        W65478  31.920  22.675  28.298  0.1890 -0.2771 -0.1517
22566W        W65479  25.140  13.447  15.026  0.1491  0.0299  0.0635
22567W        W65480  21.225  13.782   2.517 -0.0037 -0.1079 -0.0023
22568W        W65481  21.307  14.149  29.038 -0.3829  0.2204 -0.0979
22569W        W65482   3.527  14.221   3.466 -0.0998  0.0745  0.3439
22570W        W65483  13.921  26.705   0.372  0.0672 -0.3027  0.3154
22571W        W65484  19.618  13.248   0.464  0.0409 -0.1070  0.2184
22572W        W65485  19.684  19.175  29.082 -0.1679  0.0231 -0.1956
22573W        W65486  16.777  13.901  29.777  0.0886 -0.1078  0.0970
22574W        W65487  25.851  21.188   6.561 -0.0299  0.2916  0.3124
22575W        W65488   1.061  10.923  23.246 -0.1837  0.2976 -0.1738
22576W        W65489   5.205   5.399   0.211 -0.2109 -0.3436  0.3263
22577W        W65490  19.661  18.538   1.557 -0.1079 -0.0315  0.0473
22578W        W65491  27.634  13.739  20.780 -0.0332 -0.3573 -0.3000
22579W        W65492  28.932  19.647  22.186 -0.2260  0.0108 -0.2039
22580W        W65493  26.106  20.052   2.931 -0.1880 -0.1555  0.0969
22581W        W65494   9.129  25.062  26.735 -0.1353  0.0109 -0.0964
22582W        W65495  12.225  34.488  18.323 -0.1618 -0.2409  0.2026
22583W        W65496  18.628   6.024  14.315  0.0015 -0.0168 -0.0838
22584W        W65497  30.964  26.105  25.897 -0.5147 -0.2517  0.1615
22585W        W65498  18.959   9.602   1.716 -0.0961  0.0868  0.1503
22586W        W65499  32.733  26.562  24.755  0.2285 -0.1666  0.1513
22587W        W65500   3.680  18.177  17.541 -0.1952 -0.0030 -0.2658
22588W        W65501  20.550  19.758   4.103  0.0333 -0.1527  0.0882
22589W        W65502  24.074  16.753   2.614 -0.0583 -0.4317  0.1281
22590W        W65503   2.603  16.985   0.991  0.1415 -0.0480  0.1837
22591W        W65504  13.353  23.563   7.605  0.2732  0.0113 -0.1613
22592W        W65505  33.826  23.030   7.192  0.0910 -0.0059 -0.1130
22593W        W65506   3.991  13.885   5.254  0.0402 -0.1497  0.2715
22594W        W65507  21.881  11.194   8.646 -0.0564 -0.0030  0.1832
22595W        W65508   2.989  23.031   9.972  0.0513 -0.1460  0.2219
22596W        W65509  19.588  15.624  26.176  0.0157  0.1198 -0.1287
22597W        W65510  27.684   9.667   4.818 -0.2033 -0.2536  0.0034
22598W        W65511  34.288  15.906   2.006  0.1057  0.0864  0.0794
22599W        W65512  23.804  26.645  26.701 -0.3891 -0.1222 -0.0499
22600W        W65513  25.284  18.454  23.728  0.1245  0.0997  0.2471
22601W        W65514  23.449  10.636  19.672  0.1677 -0.0720 -0.0160
22602W        W65515   7.579  21.640  29.010  0.0815  0.0476  0.1760
22603W        W65516  29.909   0.466  18.156  0.1574 -0.1616 -0.0991
22604W        W65517  24.589  16.729   5.139  0.2296  0.0374 -0.2703
22605W        W65518  31.739  19.635  23.831 -0.1670  0.1053  0.0047
22606W        W65519  27.246  30.798   0.713 -0.0245 -0.1250 -0.0034
22607W        W65520  30.739  16.527  28.420  0.0311  0.0463 -0.2191
22608W        W65521   3.407  26.997  25.210 -0.0716 -0.1433  0.0066
22609W        W65522  30.086  14.500   0.160 -0.0903 -0.0121  0.1259
22610W        W65523   4.556  20.658  25.141  0.3307  0.0065  0.3246
22611W        W65524  16.441  11.696  18.894 -0.0814 -0.0118 -0.1085
22612W        W65525   6.548  19.607  19.954 -0.0171 -0.1015 -0.3780
22613W        W65526  30.855   9.782  15.112  0.0005 -0.3489 -0.0432
22614W        W65527   5.965  15.760   1.479  0.4726 -0.2316  0.1960
22615W        W65528  28.663   9.596  14.987  0.3236  0.1614  0.1583
22616W        W65529  24.570  12.028  17.471 -0.0308 -0.1079  0.1300
22617W        W65530  26.110  24.245   4.772  0.2539 -0.3753  0.1028
22618W        W65531  27.616  15.399  28.885 -0.0566  0.2194 -0.1657
22619W        W65532  25.162  14.754   5.366  0.0068 -0.0186 -0.1935
22620W        W65533  25.383  10.059  28.261  0.4315 -0.1926  0.2753
22621W        W65534  20.969   5.488   1.998  0.1186  0.2156 -0.0930
22622W        W65535  23.664   4.753  27.392 -0.1986  0.0817  0.0611
22623W        W65536  31.344  12.384  19.177 -0.5407  0.0224  0.3054
22624W        W65537  24.227  18.877   0.109 -0.0628 -0.1381  0.1513
22625W        W65538   2.646  11.439   9.785  0.1245 -0.2655 -0.0070
22626W        W65539  21.882  19.690  24.939  0.1398  0.0511  0.0096
22627W        W65540  20.872  17.755   3.442  0.1020  0.0916  0.3291
22628W        W65541   1.627  10.919   1.948  0.0276 -0.1062  0.2181
22629W        W65542  24.556  21.234   4.339  0.1550 -0.5066  0.0113
22630W        W65543  29.383  13.273   3.262  0.1445  0.2373 -0.2512
22631W        W65544  18.565  11.014  29.711 -0.0770  0.0828 -0.1413
22632W        W65545  14.335  10.817  25.989  0.0068  0.2391  0.2487
22633W        W65546  18.033  18.128  28.796 -0.0770 -0.2319 -0.1580
22634W        W65547  22.382  15.863  21.675  0.2556 -0.1774 -0.0994
22635W        W65548  15.932  14.493   7.008  0.0457 -0.0571  0.0162
22636W        W65549  30.425  22.324   1.821  0.3766  0.0929 -0.2428
22637W        W65550  21.304   7.183  19.057 -0.3829 -0.1347 -0.0679
22638W        W65551  18.097  17.157  24.690  0.2491  0.2922 -0.2073
22639W        W65552  25.438  20.676   2.986 -0.0586  0.0236  0.0717
22640W        W65553  13.730  15.936  24.974 -0.2875  0.1374 -0.2234
22641W        W65554   1.154  12.936  23.151  0.2711 -0.3093  0.0882
22642W        W65555  28.300  26.422  29.271  0.2085  0.2932 -0.0225
22643W        W65556   0.742  25.944   3.376 -0.0218 -0.0572 -0.0900
22644W        W65557   5.040  18.612   4.117  0.2602  0.1553  0.2090
22645W        W65558  17.765  16.502  25.071 -0.2348  0.3391 -0.0223
22646W        W65559  25.640  15.293   3.931 -0.5410 -0.0714  0.0162
22647W        W65560  18.478  19.866   4.926  0.1296  0.2212  0.2147
22648W        W65561  28.126   8.883  23.114  0.0727 -0.2993 -0.0336
22649W        W65562  25.798  27.503   2.999 -0.0322 -0.1511  0.0895
22650W        W65563  25.471  16.331   8.874  0.1061  0.0613 -0.2640
22651W        W65564  32.367   7.078   9.873  0.0334  0.1592  0.0397
22652W        W65565  12.094   5.534   6.959 -0.2377 -0.1797 -0.0597
22653W        W65566   0.914  24.811  29.050  0.0523 -0.0866 -0.1694
22654W        W65567  32.135  20.055   2.366  0.1339 -0.0449 -0.0546
22655W        W65568  20.200  23.696   2.390 -0.0300 -0.1917 -0.2095
22656W        W65569  24.396  17.569  29.625 -0.1167 -0.2523 -0.0621
22657W        W65570  26.344  10.595  26.953 -0.2576 -0.0539 -0.1534
22658W        W65571  31.184  24.538   1.926  0.1216  0.0747 -0.1072
22659W        W65572  31.453  10.183   8.519 -0.1938  0.2029  0.3038
22660W        W65573  30.130  11.686   9.046  0.1798  0.0375 -0.1149
22661W        W65574  25.631  15.428  25.310  0.0777 -0.1457 -0.3450
22662W        W65575  33.387  21.948   3.678  0.0108 -0.0357 -0.1594
22663W        W65576  11.977   3.092   5.538 -0.0089 -0.1020 -0.0176
22664W        W65577  28.907  25.376   6.836 -0.0304 -0.0475  0.1772
22665W        W65578  24.225  25.357   5.490 -0.0539 -0.2294  0.1701
22666W        W65579  28.061  23.200  24.151 -0.0459  0.0573 -0.0729
22667W        W65580   5.948  16.402   2.040  0.2085  0.1695  0.1147
22668W        W65581  23.363  15.217  21.060  0.1844 -0.0786  0.3495
22669W        W65582  29.547  12.389   1.233  0.2059 -0.0589  0.3739
22670W        W65583  14.672  18.620  27.417  0.1308 -0.2130  0.3647
22671W        W65584  28.852  16.302   2.660  0.3457  0.0180 -0.0404
22672W        W65585  21.128  15.309   2.341  0.0267  0.0535 -0.0905
22673W        W65586  22.676  22.614   5.486 -0.0906  0.0812  0.0236
22674W        W65587  18.424  21.402   3.124 -0.3435 -0.0328 -0.1541
22675W        W65588  29.592  17.421   2.975  0.0328 -0.1602  0.2438
22676W        W65589  24.951  19.328   5.279  0.1816  0.2780 -0.1764
22677W        W65590  16.563  22.780  27.349 -0.1201 -0.2723 -0.0296
22678W        W65591  21.436   9.539   7.995  0.3606  0.2900 -0.1153
22679W        W65592  25.000  19.020   0.530 -0.2581 -0.1082 -0.1709
22680W        W65593  19.094  16.588   8.631  0.2037 -0.0255 -0.2120
22681W        W65594  28.225  23.025  17.581  0.0928  0.1581 -0.0420
22682W        W65595  32.244  24.681   2.358  0.0376 -0.2110 -0.0845
22683W        W65596  30.136  17.159  28.764 -0.1082  0.1210  0.1115
22684W        W65597  27.735  14.225   2.646  0.1012  0.0821  0.1192
22685W        W65598  29.550  15.761   2.292  0.1107  0.1200 -0.0899
22686W        W65599  31.627   5.101  20.630 -0.1025  0.1373 -0.0588
22687W        W65600  30.881  21.305  13.913 -0.1737 -0.0801 -0.1820
22688W        W65601  26.281  18.403  13.105 -0.0405 -0.0639 -0.0810
22689W        W65602  33.122   9.885  16.511 -0.1475 -0.1387 -0.1620
22690W        W65603  26.969  22.287  14.617  0.0512  0.1245 -0.0224
22691W        W65604  21.595  17.735  17.126  0.3092 -0.0867 -0.0027
22692W        W65605  33.509  29.985  19.156 -0.0084 -0.1096  0.2747
22693W        W65606   9.816  16.110  16.068 -0.0937 -0.0057  0.1649
22694W        W65607  28.967  22.168  12.746  0.0680  0.1218 -0.1158
22695W        W65608  25.928  27.344  17.863 -0.1197  0.0081  0.1921
22696W        W65609  31.593  27.594  17.749 -0.0259 -0.0133 -0.1740
22697W        W65610  25.873  20.446  18.144  0.0517  0.2781 -0.2370
22698W        W65611  26.450  19.767  13.568 -0.0952 -0.0509 -0.1695
22699W        W65612  24.524   5.149  19.711 -0.0800 -0.1291  0.2309
22700W        W65613  28.735  24.997  18.254 -0.0009  0.1127  0.0215
22701W        W65614  20.645   6.179  21.520  0.0304 -0.0156  0.0807
22702W        W65615   2.253  14.791  14.819  0.1720  0.2999  0.0242
22703W        W65616  27.882  13.678  18.520  0.0776  0.0922  0.1436
22704W        W65617  32.659  21.181  19.042  0.0578 -0.0556 -0.1622
22705W        W65618   3.153  12.702  26.052  0.2897  0.0441  0.0056
22706W        W65619  28.346  11.394  14.940 -0.0329 -0.1110  0.1358
22707W        W65620  32.098  27.014  17.560 -0.0666  0.1404 -0.3988
22708W        W65621  19.600  28.472  16.564  0.3219 -0.3414  0.0531
22709W        W65622   0.055  29.286  13.720  0.2760 -0.0828 -0.0484
22710W        W65623  24.704  20.656  12.127 -0.0510 -0.2695 -0.1376
22711W        W65624  27.480  22.907  20.646  0.3510 -0.0380 -0.1976
22712W        W65625   9.483   3.366  26.837 -0.2310 -0.0228  0.0209
22713W        W65626  27.705  23.261  14.269  0.0110 -0.0644 -0.0205
22714W        W65627   1.002  32.233  18.385 -0.3224  0.1803 -0.2023
22715W        W65628  26.432  24.472  17.097  0.0105  0.0566 -0.0720
22716W        W65629  23.373  24.220  13.740 -0.0783  0.0435  0.1185
22717W        W65630  27.151  12.793  22.487  0.2348  0.0762  0.2024
22718W        W65631  24.728  18.992  15.249  0.1083 -0.2186 -0.0470
22719W        W65632  30.759  12.625  19.797  0.1435 -0.1206 -0.0474
22720W        W65633  26.456  25.107  13.686  0.0645 -0.0551 -0.0378
22721W        W65634   2.336  21.585  22.273 -0.4835  0.4837  0.0658
22722W        W65635  28.268  22.985  19.276  0.0232  0.1693 -0.1878
22723W        W65636  23.929  10.029  13.760  0.1636 -0.0002 -0.1164
22724W        W65637   2.248  31.157  14.210 -0.0798  0.1493  0.3399
22725W        W65638   7.495  23.138  14.350 -0.1375  0.0173  0.1166
22726W        W65639  23.243  22.754  14.214 -0.0003 -0.0445 -0.0001
22727W        W65640  17.365  16.522  11.776  0.2843  0.0546  0.2793
22728W        W65641  29.919  22.221  20.311 -0.0508  0.2808  0.0567
22729W        W65642  22.727  31.330  16.065 -0.1636  0.0380 -0.2799
22730W        W65643  29.408  18.447  15.129  0.0774  0.2090  0.1676
22731W        W65644  26.588  26.893  14.482 -0.3322 -0.2448  0.0460
22732W        W65645  23.056  34.151  18.701 -0.1350  0.2299  0.2237
22733W        W65646  24.665  16.902  13.016 -0.2794  0.2258  0.2489
22734W        W65647  29.155  33.614  16.371  0.0078 -0.3342 -0.1746
22735W        W65648  23.952  21.538  15.279  0.0658  0.1348  0.2063
22736W        W65649  27.232  18.510  13.175  0.1541 -0.4202 -0.1306
22737W        W65650  28.240  22.958  18.036  0.1283 -0.1397  0.0109
22738W        W65651  25.159  25.337  17.200  0.1216 -0.1026  0.1816
22739W        W65652  33.515  23.197  16.019 -0.4233  0.4410  0.0047
22740W        W65653   6.171  19.462  16.779  0.2143 -0.1863  0.3672
22741W        W65654  33.038  20.122  18.049  0.2240 -0.2133 -0.1482
22742W        W65655  26.032   0.512  23.358  0.0900 -0.2059 -0.2095
22743W        W65656  29.439  20.922  18.482  0.1574  0.0815  0.0062
22744W        W65657  27.004  29.236  18.028  0.2766  0.0549  0.0107
22745W        W65658  32.849  23.607  14.239  0.2072  0.3230  0.0583
22746W        W65659  31.309  20.567  15.181 -0.5822  0.0182 -0.1506
22747W        W65660  13.053  15.716  12.964 -0.1360  0.1084  0.2172
22748W        W65661   1.214  17.749  20.131  0.1226  0.0829 -0.0555
22749W        W65662  22.798  18.608  23.983 -0.0684 -0.0516  0.0648
22750W        W65663  25.926  27.089  18.347 -0.2020 -0.1250 -0.3608
22751W        W65664  26.479  20.276  15.934 -0.2053  0.0761  0.1435
22752W        W65665  17.913  19.209  12.791  0.1133 -0.1883 -0.3141
22753W        W65666  33.142  24.501   1.780  0.4263  0.1816 -0.0500
22754W        W65667   2.415  19.031  16.382  0.1414  0.1114  0.2467
22755W        W65668  24.154  22.660  15.041  0.0667  0.1459  0.0378
22756W        W65669  23.866  15.121  16.456 -0.1866  0.0564 -0.0474
22757W        W65670  31.233  18.663  21.388 -0.0576  0.1771  0.0191
22758W        W65671  29.922  18.082  14.993 -0.2001 -0.1179  0.2896
22759W        W65672  16.622   7.178  18.525  0.0409  0.0068  0.3341
22760W        W65673  19.989  22.744  23.997 -0.0764  0.2933  0.3422
22761W        W65674  25.371  19.350  19.664 -0.0665 -0.0089  0.2477
22762W        W65675  29.914  14.836  15.078  0.1295  0.1905 -0.3228
22763W        W65676  23.395  13.442  20.657  0.2303  0.2305  0.1760
22764W        W65677  23.264  16.237  24.704 -0.2706 -0.1785 -0.1387
22765W        W65678  26.577  27.921  21.513  0.0137  0.1114  0.2105
22766W        W65679  27.020  20.696  14.727 -0.0759  0.0304 -0.0563
22767W        W65680  33.299  16.007  15.400  0.1014 -0.1703 -0.1459
22768W        W65681  21.012  15.105  14.055  0.1199  0.1443 -0.2462
22769W        W65682  27.168  13.848  16.475  0.0928  0.1788  0.2855
22770W        W65683  25.310  17.403  22.995 -0.0516  0.0137 -0.2538
22771W        W65684  32.998  16.686  20.022  0.2356 -0.1840 -0.2232
22772W        W65685  26.222  16.635  16.793 -0.2882 -0.0123 -0.1058
22773W        W65686  26.508  25.286  22.691 -0.2250 -0.2069  0.0236
22774W        W65687  19.483  15.601  13.284 -0.0237  0.1669 -0.0219
22775W        W65688  24.188  17.931  13.993  0.1063 -0.1240 -0.2734
22776W        W65689  34.319  25.285  16.685  0.1649 -0.2023 -0.5059
22777W        W65690   0.449  15.801  18.241 -0.1327 -0.1626  0.1679
22778W        W65691  31.748  14.858  21.313 -0.2185 -0.2869  0.0439
22779W        W65692  12.617  25.168  20.730 -0.2501 -0.0614 -0.0776
22780W        W65693  25.810  20.103  22.431  0.1828  0.0256 -0.1145
22781W        W65694  17.730   8.081  20.863 -0.0771  0.2530  0.0436
22782W        W65695  30.542  19.003  15.790  0.1328  0.0222 -0.3149
22783W        W65696  23.707  11.072  14.801 -0.1069  0.1734 -0.0151
22784W        W65697  30.961  23.795  14.844  0.1299 -0.1615  0.1123
22785W        W65698  19.745  25.779  15.360  0.0989 -0.0165 -0.0550
22786W        W65699  30.524  13.991  15.176 -0.2479 -0.1496 -0.0652
22787W        W65700  29.390  22.692  13.511 -0.2253  0.0083 -0.0592
22788W        W65701  25.914  27.821  24.655 -0.2667  0.3489  0.1566
22789W        W65702   1.492  16.410  14.666  0.1195 -0.2568  0.0778
22790W        W65703  25.537  16.782  13.878  0.1136 -0.3274 -0.1757
22791W        W65704  24.367  20.375  16.692  0.2129 -0.0178  0.2374
22792W        W65705  19.341  27.233  15.519  0.0578 -0.1235  0.0998
22793W        W65706  14.404  22.179  15.770 -0.3622  0.1157 -0.0974
22794W        W65707  22.042  19.733  20.538 -0.0167  0.1281 -0.0256
22795W        W65708  24.411  17.758  15.904  0.1620  0.0436  0.0169
22796W        W65709  19.110  22.289  14.065  0.0755  0.0380 -0.0568
22797W        W65710  22.168  19.485  14.494 -0.4159 -0.0338  0.4604
22798W        W65711  31.279  21.451  22.319 -0.0021  0.2068  0.0567
22799W        W65712  24.390  22.288  14.555  0.1442  0.0387 -0.0027
22800W        W65713  27.128  20.647  25.274 -0.2381 -0.0591 -0.0618
22801W        W65714  23.327  19.778  17.488 -0.1227  0.0873 -0.0274
22802W        W65715  25.644  22.400  13.478 -0.0676  0.1705  0.0674
22803W        W65716   6.400  21.240  26.596  0.1895  0.0199  0.1212
22804W        W65717   6.356  14.385  25.658 -0.1244  0.0354  0.2226
22805W        W65718  32.512  23.737  20.950 -0.0150 -0.0430 -0.2344
22806W        W65719  21.103  24.650  16.983 -0.2185  0.0459  0.1488
22807W        W65720   5.703  14.807  19.541  0.1555  0.1646 -0.2431
22808W        W65721  13.844   7.004  19.787 -0.0859  0.0324  0.2214
22809W        W65722  27.220  27.229  15.555 -0.0200 -0.0658 -0.0619
22810W        W65723  24.591  22.991  14.152  0.3101 -0.4089 -0.3661
22811W        W65724  29.904  26.717  13.774  0.0168  0.3172 -0.2793
22812W        W65725  22.822  20.105  18.746 -0.0747 -0.0978  0.2999
22813W        W65726  24.551  20.686  15.172 -0.1201 -0.1344  0.2939
22814W        W65727   1.692  16.504  15.954  0.0137  0.2734 -0.2644
22815W        W65728  27.670  24.694  14.286 -0.1873 -0.1075  0.2811
22816W        W65729  21.276  15.285  13.660 -0.2783 -0.3796 -0.1690
22817W        W65730  29.592  16.278  13.521  0.0593 -0.1576 -0.0450
22818W        W65731  27.105  27.571  19.395 -0.1647  0.2260  0.2198
22819W        W65732  25.344  25.503  18.646  0.1532  0.1405 -0.0851
22820W        W65733  27.700  12.719  14.656  0.2579 -0.1069  0.0168
22821W        W65734  25.109  23.957  13.697 -0.1731  0.1704  0.1061
22822W        W65735  23.661  27.028  16.603 -0.2940  0.0218 -0.2797
22823W        W65736   3.854  13.453  14.341  0.1295 -0.0143 -0.0348
22824W        W65737  32.241  19.988  17.939  0.0888  0.0277  0.1711
22825W        W65738  24.526  22.944  17.721  0.0554 -0.1885  0.1741
22826W        W65739  28.631  17.818  17.926  0.0854 -0.2903 -0.3672
22827W        W65740  17.649  10.845  16.278  0.0399 -0.3618  0.0207
22828W        W65741  27.731  21.377  15.600  0.0325  0.1698  0.0131
22829W        W65742  15.996  31.353  17.272 -0.0181 -0.1605 -0.2021
22830W        W65743  30.123   7.927  15.610  0.0707 -0.0841  0.0575
22831W        W65744  33.869  27.312  17.998  0.0436 -0.3872  0.1274
22832W        W65745  31.644  16.483  16.712  0.1520  0.1060 -0.1692
22833W        W65746   1.156   3.758  21.698  0.2569 -0.0842 -0.0966
22834W        W65747  22.864  21.522  19.189 -0.0906 -0.0805 -0.1634
22835W        W65748  17.365  23.004  17.118  0.0905 -0.0757  0.2100
22836W        W65749  25.166  34.177  15.701 -0.0280  0.0971 -0.2992
22837W        W65750  23.130   8.849  15.979  0.0566 -0.2695 -0.1619
22838W        W65751  23.796  20.802  15.900  0.1882  0.2117  0.1927
22839W        W65752  26.113  18.559  15.527  0.3673 -0.2390 -0.2411
22840W        W65753  23.941  13.891  13.079 -0.1470 -0.3261 -0.1259
22841W        W65754  25.462  19.919  14.902 -0.3875  0.0191  0.3487
22842W        W65755  27.481  17.296  22.889  0.2081  0.2758  0.0828
22843W        W65756  18.406   8.595  20.741  0.0688 -0.1181  0.0219
22844W        W65757  24.935  23.910  12.390 -0.3237  0.1362  0.3805
22845W        W65758  19.093   3.134  18.387  0.1365  0.2950  0.3128
22846W        W65759  28.823  27.018  25.868  0.4138  0.0226  0.0933
22847W        W65760  29.203  27.357  24.036 -0.0419 -0.2260  0.2804
22848W        W65761  17.631  28.389  16.748 -0.0514 -0.0081  0.1166
22849W        W65762  13.760  15.836  12.487  0.0304 -0.0276  0.2339
22850W        W65763  29.652  27.540  17.545  0.2800  0.1814  0.1057
22851W        W65764  26.137  24.536  13.011  0.2959  0.0523 -0.3355
22852W        W65765  33.140  19.770  17.732 -0.2689 -0.2792 -0.1152
22853W        W65766  27.027  19.956  13.479 -0.0895  0.1498  0.2057
22854W        W65767  29.940  17.202  15.068  0.0175  0.2514  0.1115
22855W        W65768  32.403  18.971  21.025 -0.3266  0.2100 -0.1627
22856W        W65769  27.064  13.254  22.550 -0.0801 -0.2612  0.3293
22857W        W65770  20.541  26.426  18.124  0.0590  0.0798 -0.1887
22858W        W65771  22.384  23.311  16.629 -0.1305  0.1584  0.0003
22859W        W65772  32.115  18.675  15.418  0.1373 -0.0112 -0.0330
22860W        W65773  22.212  24.562  16.472 -0.0683 -0.3091 -0.0804
22861W        W65774  25.011  17.530  21.957 -0.1688  0.0486  0.2844
22862W        W65775  23.927  17.073  18.770  0.0524 -0.1139  0.1064
22863W        W65776   0.848  17.365  19.175  0.1621 -0.2233  0.0019
22864W        W65777  24.722  19.346  17.063 -0.1929 -0.0514 -0.0032
22865W        W65778  25.026  16.606  14.171  0.2689  0.0987  0.0999
22866W        W65779  28.953  20.892  18.666 -0.0768 -0.0588 -0.2696
22867W        W65780  28.671  21.725  14.293  0.1417  0.0609  0.0333
22868W        W65781  30.306  21.056  17.098 -0.0166  0.1140  0.2007
22869W        W65782  25.372  12.871  16.303  0.0652 -0.0558 -0.3582
22870W        W65783  25.047  23.936  19.126 -0.1847 -0.2071  0.2164
22871W        W65784   0.842  13.621  20.636 -0.1529  0.0130 -0.2539
22872W        W65785  24.736  18.598  18.148 -0.0047  0.2385  0.1719
22873W        W65786  30.611  11.881  17.777 -0.0253  0.2555 -0.4427
22874W        W65787  24.345  20.276  18.548  0.0788 -0.1710  0.0905
22875W        W65788  27.858   9.391  15.995 -0.1012  0.1356 -0.0471
22876W        W65789  26.569  32.362  18.386 -0.1567  0.3377  0.5308
22877W        W65790   3.473  30.710  18.719  0.1853 -0.0538  0.1872
22878W        W65791  24.898  16.336  14.611  0.0076  0.0034  0.0119
22879W        W65792  29.040  27.725  14.095 -0.1618 -0.0680  0.1652
22880W        W65793  25.006  24.736  13.371  0.4500  0.2275 -0.0787
22881W        W65794  25.478  20.699  20.309 -0.0691 -0.1415 -0.1396
22882W        W65795  32.229  31.056  16.405 -0.0059  0.2384  0.1120
22883W        W65796  25.368  10.156  14.847 -0.3361 -0.0109  0.3009
22884W        W65797  27.428   4.606  17.479 -0.1337 -0.0235 -0.0145
22885W        W65798  30.034  21.594  17.093  0.0036 -0.1522 -0.0835
22886W        W65799  20.192  14.258  12.791 -0.3399 -0.3034  0.0061
22887W        W65800  17.459  27.186  19.223 -0.0225 -0.2324 -0.1396
22888W        W65801  20.117  21.898  13.990 -0.1014 -0.0188  0.0361
22889W        W65802  31.848  11.448  22.939 -0.0918 -0.0174  0.0773
22890W        W65803  28.556  21.845  12.701  0.0980  0.0340 -0.1712
22891W        W65804  26.340  23.129  15.347 -0.0790  0.0502  0.0141
22892W        W65805  27.736  12.831   3.193 -0.3954 -0.0648 -0.2358
22893W        W65806  24.320  15.056  17.151 -0.0661 -0.0609 -0.0038
22894W        W65807  17.207  26.112  22.767 -0.1319 -0.2709 -0.0541
22895W        W65808  24.921   8.467  14.618 -0.0444  0.1358 -0.1611
22896W        W65809  27.565  12.036  17.322 -0.2664 -0.1020 -0.0811
22897W        W65810  19.647  23.095  12.266 -0.0582  0.1858 -0.0711
22898W        W65811  25.189  24.893  19.678 -0.0366  0.1075 -0.0243
22899W        W65812  29.689  28.131  22.233 -0.3733 -0.6562  0.0893
22900W        W65813  22.670  22.687  13.017  0.0562  0.3212  0.3437
22901W        W65814  33.170  15.871  16.904  0.0794  0.2211  0.0261
22902W        W65815   3.825  34.115  16.469 -0.2013  0.1200  0.1493
22903W        W65816  27.111  21.124  18.197  0.1331 -0.0972 -0.0846
22904W        W65817   2.750  23.918  15.265  0.2719 -0.2260  0.0354
22905W        W65818  20.608  20.414  24.133  0.0498  0.1684  0.1991
22906W        W65819  22.465  22.419  14.629  0.0713  0.0872 -0.0227
22907W        W65820  30.068  13.927  15.635  0.0973  0.0030 -0.2750
22908W        W65821  25.152  22.110  13.402 -0.0276  0.0750 -0.2278
22909W        W65822  23.679  13.896  16.155 -0.1795  0.3380 -0.0191
22910W        W65823  32.264  32.859  15.747  0.1325 -0.1295 -0.0974
22911W        W65824  31.571  31.564  18.203  0.0512  0.2045  0.1624
22912W        W65825  29.077  16.315  15.453  0.0281  0.0852  0.0964
22913W        W65826  10.380  14.786  19.507 -0.2239  0.2615 -0.2886
22914W        W65827  22.273   9.812   0.256  0.1778  0.1332  0.2153
22915W        W65828  14.927  16.762  12.633 -0.0246 -0.4003  0.1570
22916W        W65829  22.103  27.420  14.289  0.2026  0.2683  0.1331
22917W        W65830  30.373  16.411  25.779  0.0896  0.2274 -0.1200
22918W        W65831  33.406  22.824  19.099 -0.0877  0.3125 -0.2139
22919W        W65832  23.780  22.939  22.032 -0.0201 -0.2213 -0.0320
22920W        W65833  33.325  13.539  16.214  0.1891  0.0800  0.2269
22921W        W65834   6.699  23.319  23.134 -0.3531 -0.0898  0.1843
22922W        W65835  30.774  19.224  18.304 -0.0893  0.1410 -0.0086
22923W        W65836  30.568  15.497  22.151  0.0834  0.3759  0.0357
22924W        W65837  28.510  13.591  25.509  0.0134 -0.0505 -0.0743
22925W        W65838  28.372  20.099  15.186 -0.0956  0.0993 -0.0080
22926W        W65839  10.588  22.553  20.209 -0.0022  0.0595 -0.0465
22927W        W65840  23.952  18.600  13.120 -0.2816  0.0920 -0.0091
22928W        W65841  32.680  26.466  18.991  0.2650 -0.0249  0.0370
22929W        W65842  18.132  16.936  14.839  0.0055 -0.0076  0.0373
22930W        W65843  23.127  19.577  22.019  0.0278 -0.0369 -0.0554
22931W        W65844  26.423  26.329  16.367  0.0180 -0.0631  0.1855
22932W        W65845  29.423  23.928  15.001 -0.0860 -0.0930 -0.1087
22933W        W65846  28.310  20.814  27.193  0.0445  0.0387 -0.1411
22934W        W65847   6.698  11.156  18.238  0.3211 -0.0662  0.1281
22935W        W65848  22.755  20.725  19.388  0.1078  0.1482 -0.1424
22936W        W65849  23.016  29.639  23.866  0.4549 -0.1085  0.0318
22937W        W65850  34.315  20.833  15.577  0.3351  0.0042  0.2497
22938W        W65851  29.627  18.298  14.387 -0.4019 -0.2044  0.0881
22939W        W65852  31.871  19.701  13.729 -0.1474  0.1257  0.0403
22940W        W65853  32.118  19.068  18.488 -0.4461  0.0000  0.0533
22941W        W65854  25.819  24.770  15.500  0.1951  0.2012  0.0365
22942W        W65855  28.502  27.720  14.196  0.0239  0.0966  0.4141
22943W        W65856   1.401  21.678  14.157 -0.0618  0.2419  0.0190
22944W        W65857  33.554  15.145  17.360 -0.1109  0.1239  0.1691
22945W        W65858  31.390  23.785  13.876  0.0901 -0.0957  0.0847
22946W        W65859  17.215  11.733  16.287  0.4427 -0.1850  0.2730
22947W        W65860  30.817  24.052  20.665  0.0478  0.1308  0.3367
22948W        W65861  31.699  26.399  25.385  0.1422  0.4579 -0.0392
22949W        W65862   1.149  18.013  15.857  0.1434  0.0239 -0.0654
22950W        W65863   3.052  17.849  19.729 -0.0529 -0.3152 -0.1193
22951W        W65864  33.956  18.873  15.179 -0.1950  0.1452  0.1868
22952W        W65865  26.036  26.429  18.233 -0.2985 -0.2993  0.1763
22953W        W65866  28.843  18.651  18.326 -0.0551  0.1264 -0.0806
22954W        W65867  12.134  19.195  17.463 -0.0644  0.0006 -0.0479
22955W        W65868  33.062  19.716  19.260  0.2030  0.1392  0.1448
22956W        W65869  28.340  16.534  21.407  0.0554  0.0879 -0.0148
22957W        W65870  20.733  29.888  18.327  0.0304  0.1236  0.0586
22958W        W65871  16.001  23.871  21.509  0.3090  0.0761  0.1585
22959W        W65872  18.920  21.352  11.993  0.0565  0.4787 -0.1889
22960W        W65873  29.119  31.138  14.631 -0.0514  0.2013  0.1729
22961W        W65874  27.265  12.424  22.167 -0.0541 -0.0495  0.2221
22962W        W65875  30.205  10.627  14.733 -0.2852 -0.0507  0.5084
22963W        W65876  28.080   4.120  17.961  0.1042  0.0867 -0.0890
22964W        W65877  28.224  17.169  13.892 -0.1075 -0.0998 -0.0775
22965W        W65878  30.107  25.744  18.488 -0.0461 -0.1774  0.1400
22966W        W65879   0.519  16.726  18.059 -0.2524 -0.1108 -0.0334
22967W        W65880   2.737  27.214  18.867 -0.3962  0.1354  0.1629
22968W        W65881  19.225  19.674  14.747 -0.2528 -0.2912 -0.0985
22969W        W65882  25.131  14.116  12.709 -0.1479 -0.2003 -0.0561
22970W        W65883  28.336  20.940  26.669 -0.0519  0.3156  0.1241
22971W        W65884  24.053  27.195  14.368 -0.0622 -0.0198  0.0488
22972W        W65885  24.098  11.349  22.000  0.1206  0.1899 -0.0539
22973W        W65886  27.350  25.075  14.162 -0.0147  0.5864  0.0412
22974W        W65887  31.239  22.450  13.324 -0.2712 -0.1860  0.0229
22975W        W65888  19.387  16.682  13.719 -0.0079 -0.4128 -0.0531
22976W        W65889  21.008  12.280  20.652  0.2673  0.0277  0.1050
22977W        W65890  28.454   1.482  14.369  0.0756 -0.0751 -0.3475
22978W        W65891   2.300  17.521  24.137  0.2844  0.3287  0.0899
22979W        W65892  28.981  18.190  22.031 -0.0971 -0.1337 -0.2951
22980W        W65893   2.882  19.732  26.175 -0.0294  0.1559 -0.1241
22981W        W65894  24.505  17.026  15.304 -0.2734  0.3337 -0.0800
22982W        W65895  30.737  20.289  19.619 -0.1446  0.0275 -0.0412
22983W        W65896   3.671  23.427  22.462 -0.2684  0.0661  0.1516
22984W        W65897  31.461  19.800  14.000  0.0329  0.2732 -0.2063
22985W        W65898  20.502  23.078  15.209  0.0206  0.1304 -0.3745
22986W        W65899  24.561  19.779  27.960  0.2838  0.0655 -0.2089
22987W        W65900  30.941  11.953  19.376 -0.0364 -0.0567  0.0757
22988W        W65901  28.309  27.174  14.919  0.3001  0.0402  0.0614
22989W        W65902  25.603  24.012  13.593  0.1874  0.0324 -0.0403
22990W        W65903  26.144  22.007  15.762  0.0085  0.1158  0.2263
22991W        W65904  29.393  24.123  18.304  0.0261  0.0024  0.1332
22992W        W65905  27.995  23.518  21.507 -0.1305  0.1113 -0.1208
22993W        W65906  26.107  14.502  14.320  0.1608  0.0629  0.3795
22994W        W65907   3.374  33.669  16.834 -0.4050 -0.0243 -0.1887
22995W        W65908  28.908  19.343  25.998 -0.3067  0.1464 -0.1318
22996W        W65909  30.258  20.735  20.182  0.2021 -0.0734 -0.1025
22997W        W65910  32.260  28.539  17.101  0.0073 -0.0963  0.1615
22998W        W65911  24.448  10.008  20.874 -0.1862  0.1781 -0.1185
22999W        W65912  24.151  15.574  15.538  0.0043 -0.1259  0.0267
23000W        W65913  26.685  17.028  13.658  0.0830  0.2266 -0.3088
23001W        W65914  24.516  16.989  21.436  0.1138  0.2189 -0.0101
23002W        W65915  24.636  12.035  17.998  0.2020  0.0969 -0.2548
23003W        W65916  33.999  25.090  17.003  0.0257 -0.1423  0.0474
23004W        W65917  31.598  28.128  16.156  0.4826 -0.1157  0.3353
23005W        W65918   1.881  25.122  15.975 -0.1360 -0.4635  0.1885
23006W        W65919  30.418  23.366  16.828 -0.0956 -0.4411  0.1957
23007W        W65920   0.446  22.496  24.771 -0.4529  0.0961 -0.3750
23008W        W65921  33.781  17.079  21.741  0.2135  0.1584  0.1760
23009W        W65922  28.916   8.509  15.376 -0.4060  0.0781  0.4430
23010W        W65923  34.205  20.185  15.474 -0.2848 -0.2151 -0.3058
23011W        W65924   9.300  15.973  23.801  0.2395  0.1217  0.1141
23012W        W65925  28.072  27.940  16.977 -0.1044  0.0816  0.1245
23013W        W65926  29.611  20.614  16.169  0.5109  0.2283  0.0210
23014W        W65927  25.524  24.158  19.087  0.1375  0.1867 -0.0529
23015W        W65928  14.459   9.173  18.647  0.0169  0.0210  0.0121
23016W        W65929  25.230  16.235  22.632 -0.1087  0.1559 -0.1741
23017W        W65930  21.137  26.872  14.754  0.1307 -0.0641 -0.1961
23018W        W65931  34.228  11.162  15.882  0.0399  0.1541 -0.0039
23019W        W65932   1.692  14.580  20.648  0.2822  0.1273 -0.3232
23020W        W65933   1.909  13.948  18.931 -0.3106 -0.1161  0.2488
23021W        W65934  25.019  21.359  14.717  0.1130  0.0319 -0.1044
23022W        W65935  28.491  19.262  22.059  0.0813 -0.0503  0.2426
23023W        W65936  26.871  18.459  17.769  0.3480 -0.2213  0.0957
23024W        W65937  24.254  26.750  14.506  0.1058  0.0881  0.2801
23025W        W65938  24.722  12.327  14.192 -0.1575 -0.0999  0.1264
23026W        W65939  28.860  12.570  24.002  0.0428  0.1658  0.0778
23027W        W65940  33.777  23.808  15.802 -0.0757 -0.0473 -0.0604
23028W        W65941  20.732  23.686  28.268  0.1083 -0.1612  0.1022
23029W        W65942  32.587  26.170  14.202  0.0994  0.0757 -0.2152
23030W        W65943  17.334  25.218  20.389 -0.2618 -0.0354  0.1914
23031W        W65944  26.313  24.928  21.143 -0.4042 -0.1626 -0.1387
23032W        W65945  15.952  12.078  16.582  0.4311  0.1583 -0.1928
23033W        W65946  23.417  26.000  17.475 -0.0213 -0.1974 -0.1006
23034W        W65947  25.021  20.811  21.665 -0.5221 -0.0437 -0.1174
23035W        W65948  32.836  22.782  22.468 -0.1901 -0.0854  0.2778
23036W        W65949  31.476  15.706  15.663  0.1030 -0.3659  0.0276
23037W        W65950  25.508  19.649  20.278 -0.0656  0.0542  0.0653
23038W        W65951  16.534  26.536  19.205 -0.0715  0.1217 -0.2728
23039W        W65952  31.588  19.481  18.077 -0.2979 -0.1913 -0.1267
23040W        W65953  27.723  26.802  19.696 -0.0837  0.1441 -0.1661
23041W        W65954  28.522  16.758  19.864 -0.0278  0.0364  0.1787
23042W        W65955  27.193  20.161  15.300 -0.2123 -0.3986 -0.0058
23043W        W65956  23.667  27.124  22.854  0.0164  0.0681  0.2155
23044W        W65957  31.252  13.898  24.488  0.0770 -0.2269 -0.1315
23045W        W65958  26.518  23.687  17.240 -0.1124 -0.0252 -0.2105
23046W        W65959  33.782  21.238  25.505  0.4799  0.1719 -0.2707
23047W        W65960  24.535  21.316   1.687  0.2261 -0.0678  0.1686
23048W        W65961  18.910  19.316  15.783  0.0467 -0.0634 -0.1616
23049W        W65962  26.374  14.810  14.052  0.2840  0.0103 -0.1540
23050W        W65963   0.209  16.637   1.181 -0.0900 -0.2758 -0.0088
23051W        W65964  18.921  23.983  19.967 -0.0403  0.3556 -0.1300
23052W        W65965  26.881  26.652  16.421  0.1469 -0.0462 -0.0957
23053W        W65966   1.137  22.048  19.781 -0.1736  0.1623  0.0802
23054W        W65967  25.622  23.834  23.200  0.0719  0.0827 -0.2851
23055W        W65968   3.727  21.641  20.918 -0.0822 -0.1256 -0.1261
23056W        W65969  28.553  14.828  22.475 -0.3789  0.1336  0.2448
23057W        W65970  30.254  20.106  21.932 -0.1786 -0.0527  0.0076
23058W        W65971  30.775  18.989  17.076 -0.1283 -0.1934  0.1127
23059W        W65972  27.594  22.244  26.664 -0.0906 -0.3085  0.2799
23060W        W65973  24.486  24.755  13.317 -0.2360 -0.1632 -0.0384
23061W        W65974  16.697   8.520  17.244  0.0338 -0.3207  0.2148
23062W        W65975  27.726  14.334  18.767 -0.1187  0.1070 -0.0322
23063W        W65976  30.094  21.914  13.585  0.3571 -0.4440 -0.2030
23064W        W65977  21.326   7.879  20.347  0.1405 -0.0422  0.0441
23065W        W65978  33.683  18.391  24.730  0.0462 -0.1419 -0.0514
23066W        W65979  18.448  22.580  13.415  0.0479  0.0596  0.0811
23067W        W65980  26.500  14.339  14.044  0.1640 -0.1566 -0.0845
23068W        W65981  29.213  27.934  14.930 -0.0352  0.0507  0.0304
23069W        W65982  27.232  24.732  13.358 -0.1713 -0.0007  0.0357
23070W        W65983  27.210  24.458  12.960  0.3526 -0.0493  0.3241
23071W        W65984  24.455  26.857  15.908  0.0487  0.0877  0.1825
23072W        W65985   7.381  23.227  16.621  0.0155  0.3342 -0.0344
23073W        W65986   6.062  12.963  20.291  0.1468 -0.3937  0.0994
23074W        W65987  32.695  17.549  16.460  0.0757 -0.1417 -0.0745
23075W        W65988  27.731  20.941  19.219 -0.0265  0.0408 -0.1107
23076W        W65989  26.688   9.731  14.806 -0.2565 -0.1135  0.5000
23077W        W65990   1.737  20.005  16.280 -0.0740 -0.2788  0.0124
23078W        W65991  22.454  24.569  15.951  0.3238  0.0877 -0.0088
23079W        W65992  19.433  24.695  19.979 -0.0001 -0.1253 -0.0722
23080W        W65993  30.212  25.406  14.365  0.1774  0.0658 -0.0382
23081W        W65994  31.330  18.083  20.693  0.2058  0.2439  0.1440
23082W        W65995  31.481  16.890  21.631  0.0452  0.0396  0.3300
23083W        W65996  26.539  27.836  17.469  0.0475 -0.0286  0.0387
23084W        W65997  32.230  29.302  15.793  0.2729 -0.4004 -0.0132
23085W        W65998   0.613  18.512  22.245 -0.1246 -0.0205  0.3415
23086W        W65999  19.989  21.579   0.724 -0.1168 -0.0781 -0.1291
23087W        W66000  33.183  20.234  17.568  0.1102 -0.3525 -0.0068
23088W        W66001  25.487  19.739  13.480  0.0802 -0.0715 -0.4126
23089W        W66002  31.854  10.817  18.300 -0.3201  0.0313 -0.1544
23090W        W66003  11.422  16.346  20.745 -0.0668  0.0367  0.0617
23091W        W66004   4.618  18.307  24.988 -0.3033 -0.1364  0.1006
23092W        W66005  28.473  23.889  17.007 -0.0020  0.1940  0.0122
23093W        W66006  28.512  23.211  20.131 -0.0713 -0.0506 -0.2902
23094W        W66007  22.249  20.187  22.593 -0.0331  0.1010 -0.1723
23095W        W66008  32.714  13.026  17.380 -0.2367  0.3377  0.2315
23096W        W66009  30.893  25.449  18.617  0.0175  0.1037 -0.3759
23097W        W66010  32.214  11.057  18.565  0.4260 -0.3366 -0.3505
23098W        W66011  25.346  12.707  26.601 -0.1272 -0.0283  0.0173
23099W        W66012   2.084  28.779  22.101  0.1335  0.1168  0.2054
23100W        W66013  24.199  18.937  19.205  0.0423  0.2125 -0.0633
23101W        W66014  25.919  15.404   5.247 -0.0101  0.0070  0.0085
23102W        W66015  32.163  23.491  14.336 -0.0415  0.0333 -0.3080
23103W        W66016  21.072  14.745  25.691 -0.1746 -0.0358 -0.1052
23104W        W66017  27.449  30.935  16.253  0.1626  0.3516  0.2257
23105W        W66018  29.884  28.647  16.742  0.1231 -0.3669  0.2757
23106W        W66019   2.440  21.534  25.311  0.0516 -0.1289 -0.2701
23107W        W66020  29.265  27.016   1.553 -0.2401  0.4449 -0.2706
23108W        W66021  19.356  21.743  20.873 -0.2045  0.2127 -0.3265
23109W        W66022  30.434   0.700  19.032 -0.0461  0.0137  0.3980
23110W        W66023   8.872   9.413  16.891 -0.3387  0.1483  0.0262
23111W        W66024  28.563  25.597  20.921 -0.4355  0.0784 -0.3174
23112W        W66025   2.214  24.725   0.251  0.5163  0.0540 -0.0452
23113W        W66026  21.968  23.247  16.380 -0.1518  0.1026  0.1196
23114W        W66027  26.253  22.934  18.544  0.1842  0.0489  0.1289
23115W        W66028  33.250  18.400  14.110 -0.1392  0.2167  0.1154
23116W        W66029  24.096  23.226  16.923  0.1016  0.2275 -0.0035
23117W        W66030  22.082  19.843  13.462 -0.3231  0.3154 -0.1995
23118W        W66031  27.817  30.067  15.473  0.4771  0.4753  0.0448
23119W        W66032  31.799   1.459  15.963  0.5059  0.0963 -0.2100
23120W        W66033  32.749  13.650  21.243  0.0409  0.2310 -0.1151
23121W        W66034  26.259  23.455  18.491  0.0107  0.2426 -0.1785
23122W        W66035  20.703  17.608  13.803  0.0892 -0.1734 -0.0009
23123W        W66036  22.509  24.240  18.541 -0.3296  0.0323 -0.2649
23124W        W66037  10.460  26.359  20.368 -0.2143  0.0442 -0.0219
23125W        W66038  29.080  12.531  20.979 -0.0060  0.2928 -0.1609
23126W        W66039  32.339  16.383  25.432  0.0893 -0.0846 -0.2267
23127W        W66040  23.789  26.267  17.745 -0.1484 -0.2985 -0.1980
23128W        W66041  31.992  21.167  16.339 -0.0675  0.0410  0.3181
23129W        W66042  18.899  26.131  18.158  0.0035  0.0439 -0.1348
23130W        W66043  24.517  33.724  18.310 -0.0784  0.1225  0.0542
23131W        W66044  20.719  25.864   7.643 -0.2752  0.0442  0.1190
23132W        W66045  28.561  14.423  15.472  0.0857  0.1525  0.0535
23133W        W66046  28.608  22.854  17.333  0.0726  0.1466  0.0774
23134W        W66047  27.261  28.117  20.338  0.2981 -0.1297  0.0452
23135W        W66048   0.934  17.838  23.772 -0.2471 -0.1764  0.0272
23136W        W66049   3.951  30.283  17.331 -0.2034 -0.1181 -0.0886
23137W        W66050  28.786  26.163  23.552  0.0739  0.0803 -0.0612
23138W        W66051   1.694  15.703   2.115  0.0650  0.0765  0.1777
23139W        W66052  29.474  32.212  15.837 -0.1092  0.0671  0.1860
23140W        W66053   2.776  14.236  18.742  0.0149  0.1426 -0.2916
23141W        W66054   1.371  22.756  21.167  0.0838 -0.2702  0.4711
23142W        W66055  31.792  19.864  22.398 -0.4016 -0.2214 -0.0575
23143W        W66056   7.253  11.355  26.312  0.2305  0.2987  0.1868
23144W        W66057  28.802  17.732  19.680 -0.1112  0.1007 -0.2238
23145W        W66058  32.828  23.583   4.599  0.3799  0.2234  0.0267
23146W        W66059  27.564  15.126  15.308  0.0398 -0.0847  0.0469
23147W        W66060  26.201  17.851  21.215 -0.3046 -0.2261 -0.0135
23148W        W66061  32.533   0.133  20.493 -0.0076  0.0285 -0.1236
23149W        W66062  23.299  13.816  14.099  0.1172 -0.1853 -0.1014
23150W        W66063  23.000  12.648  14.388 -0.1801  0.0077 -0.0068
23151W        W66064  31.744  15.847  23.381 -0.2283  0.0030  0.0371
23152W        W66065  26.244  25.574  14.067 -0.0267  0.0279  0.1252
23153W        W66066  25.809  14.220  14.620 -0.0557  0.0649 -0.0589
23154W        W66067  21.913  11.997  18.012 -0.0247  0.0488  0.1181
23155W        W66068  31.973  13.211  22.827 -0.2487 -0.0903 -0.0972
23156W        W66069   5.876  10.625  17.703  0.0595  0.2760  0.0291
23157W        W66070  23.125  14.532  24.312 -0.0337  0.1793 -0.0182
23158W        W66071  25.309  26.730  14.313 -0.3044 -0.1310 -0.0563
23159W        W66072  32.924  14.105  20.298 -0.0709  0.0602 -0.0045
23160W        W66073   0.393  17.979  20.950  0.1056  0.1580  0.0198
23161W        W66074  34.032  21.168  14.896  0.0571 -0.0290 -0.0827
23162W        W66075  33.879   8.250  18.072 -0.3659 -0.2172  0.0809
23163W        W66076  31.695  21.898  17.576  0.4675 -0.0546 -0.0551
23164W        W66077  30.148  19.477  17.484  0.1878  0.0301  0.0835
23165W        W66078  27.452  18.441  21.485  0.2787 -0.1188 -0.2129
23166W        W66079  25.130  13.900  21.648  0.1558  0.1919 -0.1044
23167W        W66080  21.545  24.051  21.030  0.2273 -0.1728  0.0977
23168W        W66081  32.437  17.148  16.595  0.0661  0.0554 -0.2490
23169W        W66082  29.903  13.247  21.895  0.1391 -0.1294  0.0964
23170W        W66083  24.850  17.311  15.660  0.0739  0.2072  0.0476
23171W        W66084  33.536  33.503  15.655 -0.0043  0.1155 -0.0283
23172W        W66085  26.871  10.752  29.580 -0.1384  0.0348  0.0865
23173W        W66086  27.255  12.671  22.976  0.3285 -0.2492 -0.2518
23174W        W66087  33.255  17.231  16.959 -0.2364 -0.3456  0.2296
23175W        W66088  20.924  12.236  21.526 -0.2001 -0.1326 -0.2779
23176W        W66089  19.141  10.570  13.381 -0.2027 -0.0565 -0.0774
23177W        W66090  19.238   9.917  21.259  0.0579 -0.2980 -0.2197
23178W        W66091  31.383  18.203  14.404  0.3694  0.0612  0.0620
23179W        W66092  14.332  23.929  17.685 -0.0538  0.2128  0.3982
23180W        W66093  29.811  15.234  28.527  0.1450 -0.0003 -0.2302
23181W        W66094  32.407  23.383  14.757 -0.0545 -0.1740 -0.4605
23182W        W66095  32.182  25.446  20.392 -0.2793  0.1659 -0.0900
23183W        W66096  27.773  17.803  16.438 -0.1796 -0.0972  0.1599
23184W        W66097  23.977  18.932  28.924  0.3870 -0.1918 -0.1339
23185W        W66098  23.921  28.713  15.485  0.0894  0.2465  0.0496
23186W        W66099  23.605  26.400  13.926 -0.0841  0.2185 -0.0134
23187W        W66100  27.784   7.511  25.415  0.0457 -0.0610 -0.4908
23188W        W66101  28.726  19.330  26.528 -0.3379 -0.0016  0.0776
23189W        W66102   4.945  21.399  20.206  0.0421 -0.3427  0.1812
23190W        W66103  33.915  31.366  15.229 -0.0309 -0.0560  0.0781
23191W        W66104  18.096  14.973  13.565 -0.2748  0.1295  0.1157
23192W        W66105   0.269  15.374  14.197 -0.0675 -0.2910 -0.0845
23193W        W66106  29.844   1.008  16.188 -0.0248 -0.3481 -0.1066
23194W        W66107  24.011  30.632  18.063  0.0923  0.2590  0.2789
23195W        W66108  23.479  16.607  20.675  0.0269  0.1112 -0.1163
23196W        W66109  33.174  33.327  25.438 -0.2264  0.2129  0.4557
23197W        W66110  28.074  31.500  15.078 -0.1521  0.2960  0.2961
23198W        W66111  33.494   3.237  18.472 -0.1606  0.4202 -0.1467
23199W        W66112  30.951  20.029  14.371 -0.1780  0.1012 -0.4290
23200W        W66113  31.764  12.378   3.156  0.0475  0.1114 -0.0069
23201W        W66114   6.459  16.921  29.227 -0.1556 -0.1618  0.0546
23202W        W66115   4.712  15.857  16.951  0.2986 -0.2752  0.1844
23203W        W66116  21.232  29.187  14.998  0.0525 -0.3217 -0.2221
23204W        W66117  23.329  18.292  18.974 -0.1665 -0.1860 -0.0016
23205W        W66118  25.147  26.003  21.009  0.2119  0.2045 -0.1132
23206W        W66119  31.228  19.448  13.729  0.0198 -0.1603  0.0222
23207W        W66120  28.084  20.576  21.735  0.1186 -0.1880 -0.2059
23208W        W66121  25.782  32.385  24.601  0.1230 -0.2566  0.3342
23209W        W66122  18.431  16.574  14.143 -0.1922 -0.1310  0.3764
23210W        W66123  20.903  15.256  12.659 -0.0057 -0.0167  0.0344
23211W        W66124  15.491  24.093  19.927  0.0224 -0.0569 -0.1726
23212W        W66125  30.993  15.625  23.985  0.2615  0.3845 -0.0024
23213W        W66126  24.532  21.731  28.741  0.2794  0.1063  0.2294
23214W        W66127  25.153  18.203  15.859 -0.3478 -0.0650  0.1466
23215W        W66128  24.201  24.303  22.920  0.3657 -0.0039  0.3307
23216W        W66129  24.406  25.312  16.532 -0.2234 -0.2863  0.3107
23217W        W66130  27.855   7.953  21.569  0.0466  0.3719  0.3331
23218W        W66131  32.274  20.148  15.966 -0.1024  0.1505  0.0006
23219W        W66132  25.519  27.325  15.157  0.2427 -0.0193 -0.1786
23220W        W66133   1.913  10.206  18.496  0.1279 -0.0940 -0.3595
23221W        W66134  27.638  14.145   3.535  0.0704 -0.1797 -0.1683
23222W        W66135  27.674  25.900  26.496  0.0936 -0.0713  0.1138
23223W        W66136  25.238  22.529  20.463 -0.2705  0.0423  0.2115
23224W        W66137  15.089   5.069  24.679  0.2791 -0.0049 -0.1234
23225W        W66138  30.659  18.683  16.500 -0.0967 -0.3782 -0.2094
23226W        W66139  28.338   0.412  27.879 -0.1063 -0.1286  0.0616
23227W        W66140  28.442  21.947  15.868  0.0224 -0.0508  0.1237
23228W        W66141  29.404  26.381  27.082 -0.0972 -0.2863 -0.0674
23229W        W66142  32.088  22.588  23.885 -0.1445  0.0099  0.1489
23230W        W66143  33.529  16.362  16.315  0.0928  0.1422 -0.1222
23231W        W66144  27.623  23.734  22.324 -0.1503  0.1951  0.1713
23232W        W66145  16.751   6.181  19.411  0.0119  0.0429  0.0059
23233W        W66146  25.587  19.818  18.828 -0.4620 -0.0010  0.0109
23234W        W66147  27.586  25.516  24.624 -0.3211 -0.0600 -0.0059
23235W        W66148  29.100  17.958  20.115 -0.0236 -0.1993 -0.0542
23236W        W66149   9.307  17.696  25.943 -0.2120  0.2498 -0.2245
23237W        W66150  25.839  23.506  20.705  0.1288  0.4178  0.1719
23238W        W66151  21.126  24.099   2.214 -0.0824 -0.0711 -0.0334
23239W        W66152   6.297  16.290  19.111 -0.1647  0.1824  0.1032
23240W        W66153   3.883  19.103  18.293 -0.0513 -0.4957  0.0233
23241W        W66154  30.286  28.266  24.994  0.3378  0.4415 -0.0713
23242W        W66155  27.684  13.642  13.795  0.4952  0.2684 -0.1766
23243W        W66156  28.547  24.227  19.935  0.1819 -0.0370  0.3515
23244W        W66157  31.644   3.837  22.716  0.2607  0.0892  0.2745
23245W        W66158  22.617  26.619  13.247 -0.1164 -0.1252 -0.1942
23246W        W66159  31.367  33.098  18.021  0.1697 -0.2423  0.0561
23247W        W66160  20.403  23.385  23.181  0.0223 -0.0890 -0.1318
23248W        W66161  11.508  16.842  13.558  0.1449  0.0959 -0.0891
23249W        W66162  26.794  27.900  25.331  0.0607 -0.0662  0.0228
23250W        W66163  17.404  29.806  16.898 -0.1418  0.1265 -0.0756
23251W        W66164  20.316  11.796  22.937  0.1223 -0.0780 -0.0574
23252W        W66165  31.236  21.530  23.790  0.1427  0.0346  0.2301
23253W        W66166  23.606  27.736  19.832  0.2112 -0.0181 -0.2071
23254W        W66167  27.698  26.077  15.749 -0.3050  0.0098  0.0271
23255W        W66168  25.482   9.096  28.441 -0.1195 -0.1596  0.0198
23256W        W66169  29.974  16.804  22.285  0.0007 -0.3167  0.0040
23257W        W66170   7.156  23.892  16.133 -0.0435  0.0499  0.2327
23258W        W66171  20.174  22.103  22.726 -0.2682  0.3497 -0.2242
23259W        W66172   0.721  20.828  27.808 -0.0934 -0.3429  0.1474
23260W        W66173   5.181  18.063  15.653  0.0494  0.1138 -0.0263
23261W        W66174  28.576  16.310  16.814  0.0989 -0.1137 -0.0981
23262W        W66175  30.037  21.410  22.431 -0.3506 -0.0755 -0.1809
23263W        W66176   1.389  15.658  16.637 -0.0976  0.1348 -0.0573
23264W        W66177  23.807  18.809  14.182 -0.1810 -0.0924 -0.0578
23265W        W66178  28.825  28.414  20.702  0.1633  0.1553 -0.0479
23266W        W66179  27.058  22.333  18.641 -0.0872 -0.2994  0.1568
23267W        W66180  27.924  29.052  17.617 -0.2726 -0.0237  0.1233
23268W        W66181   3.064  22.069  24.134  0.1369  0.2362 -0.0984
23269W        W66182   0.887  17.126  17.054  0.0976 -0.2334 -0.2287
23270W        W66183  24.800  20.884  16.090  0.1599 -0.1346  0.1214
23271W        W66184  33.110  31.399  25.795 -0.0269 -0.2528 -0.0159
23272W        W66185  20.361  13.980  13.914  0.0974  0.0606  0.2631
23273W        W66186  26.512  25.331  17.341 -0.0148  0.3185 -0.1677
23274W        W66187  26.026  13.993  15.708 -0.2289 -0.0385 -0.1064
23275W        W66188  30.707  17.663  21.467 -0.0597  0.2283 -0.0147
23276W        W66189  17.546  14.966  15.071  0.0018  0.0071  0.0323
23277W        W66190  31.127  27.439   0.293  0.2750  0.1807 -0.2723
23278W        W66191   0.564  18.164  24.514  0.1008 -0.0952 -0.1335
23279W        W66192  24.074  26.690  13.609 -0.2772  0.0665  0.0769
23280W        W66193   2.077  30.529  17.726  0.2164 -0.0077  0.0410
23281W        W66194  31.376  15.456  14.601 -0.0004  0.1255 -0.1033
23282W        W66195  30.846  13.832  16.711  0.3461  0.0879  0.0468
23283W        W66196  20.318  25.989  14.087 -0.4346 -0.0714  0.0197
23284W        W66197  33.711  18.189  16.123 -0.0837 -0.4851 -0.1644
23285W        W66198  12.631  22.002  17.073 -0.2129 -0.1037  0.0854
23286W        W66199   0.809  32.513  14.892  0.3631  0.1906 -0.0278
23287W        W66200  10.394  12.575  17.492 -0.0070  0.0248  0.4455
23288W        W66201  12.444  18.455  25.854 -0.0726 -0.2130  0.1663
23289W        W66202  21.376  18.976  21.735  0.3159 -0.3877 -0.0929
23290W        W66203  24.435  21.616  22.392  0.2165 -0.0730  0.0540
23291W        W66204  22.200  19.451  26.499 -0.0504 -0.1069  0.1876
23292W        W66205  27.775  25.002  15.490  0.2545 -0.1143 -0.0167
23293W        W66206  32.490  19.200  18.184 -0.0267  0.2920  0.2318
23294W        W66207  27.082  32.945  20.365  0.0369  0.1548  0.1437
23295W        W66208  24.106  14.043  21.641  0.0582 -0.3001  0.1109
23296W        W66209  33.306  23.233  15.337  0.2180 -0.3090  0.0325
23297W        W66210  30.121  27.410  14.510  0.0001 -0.2197  0.0387
23298W        W66211  12.642  24.381  14.021  0.3003 -0.0031 -0.0840
23299W        W66212  25.854  25.263  20.357  0.3927 -0.1435 -0.2903
23300W        W66213  26.663  23.474  16.530  0.1930  0.1787  0.0633
23301W        W66214  32.658  20.000  17.688 -0.0724 -0.3311  0.1786
23302W        W66215  28.912  24.975  17.794  0.2294  0.0052 -0.0685
23303W        W66216  25.842  11.891  20.977 -0.2393  0.0431  0.1759
23304W        W66217  28.170  24.708  16.808 -0.0841 -0.1355  0.1666
23305W        W66218  32.775   7.192  25.742 -0.2834 -0.2321 -0.0182
23306W        W66219  26.935  18.672  23.332 -0.2945 -0.1206 -0.2543
23307W        W66220  28.714   7.648  22.012  0.3017  0.1928  0.2576
23308W        W66221  26.695  22.298  17.124 -0.0078  0.4670  0.0652
23309W        W66222  31.820  13.876  15.512  0.0695  0.2251 -0.1509
23310W        W66223  15.954  14.326  12.021  0.0985  0.0232 -0.2929
23311W        W66224  26.032  18.613  29.153  0.1999 -0.0227 -0.0431
23312W        W66225   6.239  14.167  24.321 -0.1279  0.0911  0.1103
23313W        W66226  19.726  11.524  22.403  0.2037  0.0352  0.0938
23314W        W66227  19.696  27.277  19.603 -0.3539  0.3677 -0.1366
23315W        W66228  22.032  12.215  15.001  0.3416  0.0430 -0.2358
23316W        W66229  20.026  15.635  15.556  0.0099 -0.0581  0.2780
23317W        W66230   3.157  33.736  15.935 -0.0351  0.1590 -0.0451
23318W        W66231  27.006  11.612  18.206  0.3323  0.0437 -0.0563
23319W        W66232  26.402  15.857  16.853 -0.1023 -0.1711  0.2955
23320W        W66233  33.071  17.752  15.031  0.3469  0.3987  0.0778
23321W        W66234  25.635  13.156  16.590 -0.2257 -0.2251  0.0967
23322W        W66235  33.267  15.491  20.491  0.1780 -0.0477  0.1596
23323W        W66236   5.606  16.682   2.273  0.0673 -0.2022 -0.3691
23324W        W66237  10.197  23.323  14.384 -0.0652 -0.0684  0.1677
23325W        W66238  30.351  23.382  23.835  0.0565 -0.1245  0.1292
23326W        W66239  29.305  23.936  21.469 -0.3000 -0.4791 -0.0813
23327W        W66240  33.312  32.005  25.341  0.2027 -0.0610 -0.0140
23328W        W66241  23.350  20.989  18.666  0.0398  0.2448  0.0197
23329W        W66242   3.000  21.041  28.162  0.0817  0.1240  0.1212
23330W        W66243  22.339  12.864  17.083  0.0964 -0.0587  0.0331
23331W        W66244  20.704  12.555  23.652  0.0265  0.0742 -0.0529
23332W        W66245  30.698  16.458  23.813  0.0690 -0.1298  0.0860
23333W        W66246  32.227  12.704  20.950  0.0842  0.2086 -0.2079
23334W        W66247  29.262  17.614  15.624  0.2406  0.1510  0.0671
23335W        W66248   4.925  30.301  27.089 -0.2972  0.0490  0.0251
23336W        W66249  24.350  16.003  20.217 -0.2367  0.2472  0.1685
23337W        W66250  32.680  21.109  23.006  0.3526 -0.0408 -0.2103
23338W        W66251  25.749  19.632  27.159  0.4585  0.2275 -0.1369
23339W        W66252  25.809  24.066  17.089 -0.1194  0.1406  0.4902
23340W        W66253  29.474  26.504  27.967  0.6649 -0.0905 -0.0490
23341W        W66254  26.244  14.311  20.515  0.4505  0.0476  0.0249
23342W        W66255  34.370  22.574  22.272 -0.0081 -0.0190  0.0672
23343W        W66256  33.719  34.113  21.563  0.1165  0.1229 -0.1722
23344W        W66257  31.667  17.769  16.346 -0.1503 -0.0871  0.2115
23345W        W66258  25.872  24.592  26.061 -0.3148 -0.2094 -0.1219
23346W        W66259  33.082   1.883   2.882 -0.0181 -0.0390 -0.0669
23347W        W66260  31.408  21.976  16.440  0.2171 -0.1999  0.0101
23348W        W66261   1.861  15.573  16.825  0.1198 -0.3257  0.0758
23349W        W66262  32.749  16.182  16.961 -0.3205 -0.0340  0.0421
23350W        W66263  20.376  22.527  19.540 -0.2674  0.3247  0.0556
23351W        W66264  25.020  24.141  27.702 -0.0139 -0.1917 -0.1824
23352W        W66265   1.791  19.779  24.293 -0.4791  0.1574 -0.0632
23353W        W66266  17.069  21.295  16.432 -0.2619  0.1226 -0.0666
23354W        W66267  18.535   8.048   7.339  0.1081 -0.0144 -0.2165
23355W        W66268  32.538  28.043  18.569 -0.1044 -0.0679  0.0412
23356W        W66269  31.194  21.191  22.749 -0.2037 -0.1906 -0.0468
23357W        W66270  14.542  21.435  17.160 -0.1700  0.0234  0.2962
23358W        W66271   0.020  32.612  20.598 -0.0522 -0.1571  0.0606
23359W        W66272  28.871  24.307  12.790 -0.0552  0.4039 -0.1259
23360W        W66273  26.589  21.364  25.782 -0.2749  0.1634  0.1677
23361W        W66274   0.709  17.591  16.913  0.1257  0.1572  0.0860
23362W        W66275  24.088  27.918  13.516  0.0802 -0.2758 -0.1857
23363W        W66276  22.453  20.010  12.526 -0.1175  0.1317  0.1812
23364W        W66277  21.923  13.470  18.421 -0.0175  0.0506  0.0208
23365W        W66278  24.669  19.963  12.295 -0.1563 -0.3336  0.0667
23366W        W66279  28.620  26.130  20.708  0.3671  0.1362  0.0496
23367W        W66280  29.739  24.178  24.170 -0.1000 -0.1971  0.2265
23368W        W66281  26.594  17.265  19.261  0.0514 -0.0708 -0.0426
23369W        W66282   0.026  13.663  18.447  0.1164 -0.1600 -0.0259
23370W        W66283  25.666  11.371  17.654  0.2528 -0.0509  0.2222
23371W        W66284  27.350  28.420  14.178  0.1796 -0.2572  0.0754
23372W        W66285   1.919  19.644  18.030  0.1447  0.0859  0.1002
23373W        W66286  29.188  23.494  19.130 -0.0024 -0.1099 -0.2860
23374W        W66287  15.447  11.951  21.757  0.2301 -0.2344 -0.2651
23375W        W66288   0.972  28.506   2.498  0.0424  0.0308 -0.1504
23376W        W66289  24.605  10.858  20.175  0.0368  0.1351 -0.3330
23377W        W66290  29.024  11.374  14.462  0.0765 -0.4344  0.0277
23378W        W66291  25.533  12.122  22.816  0.0033  0.2069  0.1643
23379W        W66292  26.228  12.271  18.238 -0.0676  0.2076  0.4898
23380W        W66293  28.854  19.776  23.807  0.3035 -0.2716 -0.1532
23381W        W66294  26.272  19.424  15.246 -0.4248  0.2385 -0.0951
23382W        W66295  28.414  14.723  17.811  0.1040 -0.1347  0.0104
23383W        W66296  30.385  17.165  13.478  0.1881 -0.2087  0.1233
23384W        W66297  27.675  22.973  15.611 -0.2653 -0.0313  0.0874
23385W        W66298  34.113  20.647  21.830 -0.0629  0.0318  0.2785
23386W        W66299  21.213  23.052  13.335  0.1637 -0.0964 -0.1150
23387W        W66300   2.476  16.517  17.595  0.2282  0.0259 -0.0563
23388W        W66301  26.218  11.397  21.752  0.1250  0.0462 -0.3651
23389W        W66302   1.801  13.976  19.487  0.2797  0.1356 -0.2638
23390W        W66303  24.329  20.349  29.127 -0.0200 -0.0811  0.0578
23391W        W66304  33.160  16.726  17.939 -0.1514 -0.0980 -0.1426
23392W        W66305  32.986  20.927  18.731 -0.1663  0.4223 -0.1795
23393W        W66306  26.112  33.223  20.846 -0.0015 -0.2050 -0.1807
23394W        W66307  31.610  10.503  15.535  0.1751 -0.1655 -0.1673
23395W        W66308  32.686  15.467  17.683  0.1832  0.1685 -0.2166
23396W        W66309  31.503  16.966  16.712  0.0569  0.1276 -0.1912
23397W        W66310  30.002  16.125  20.390 -0.0356 -0.0244  0.2646
23398W        W66311  25.279  22.434  21.995 -0.2022 -0.0721 -0.0803
23399W        W66312  13.557  25.746  18.573 -0.2077 -0.0093  0.3659
23400W        W66313  21.473   9.954  18.989 -0.2048  0.3363 -0.0127
23401W        W66314  31.261  17.302  20.209 -0.0226  0.2652  0.0106
23402W        W66315  29.545  14.607  16.303 -0.0593  0.0861  0.1998
23403W        W66316  25.622   3.279  18.060 -0.1116 -0.0981  0.3206
23404W        W66317  28.377  15.570  21.506 -0.0607  0.0439 -0.1510
23405W        W66318  24.910  23.667  21.458  0.1347  0.0879  0.1109
23406W        W66319  19.028  24.620  22.668 -0.2039 -0.5899 -0.2322
23407W        W66320  30.129  13.589  14.277 -0.1309  0.0339 -0.0718
23408W        W66321   1.457  18.339  16.933 -0.4318 -0.1151  0.2435
23409W        W66322   1.094  16.529  13.498  0.0356 -0.0479 -0.3272
23410W        W66323  28.843  22.555  18.378 -0.1351 -0.1755 -0.2032
23411W        W66324  26.794  24.879  15.085 -0.0805 -0.1871  0.0835
23412W        W66325  32.263   7.596  17.336  0.0616 -0.0744 -0.2817
23413W        W66326  21.653  13.015  12.547  0.3615  0.1495 -0.1035
23414W        W66327  23.375  18.993  18.406 -0.2999  0.0328 -0.0355
23415W        W66328  22.783  15.987  23.042 -0.2281 -0.1848 -0.3164
23416W        W66329  34.348  12.475  23.344 -0.0996 -0.1381 -0.3794
23417W        W66330  25.357  31.061  16.062 -0.0697  0.1702 -0.3111
23418W        W66331  22.696  25.018  22.863 -0.1197  0.2590 -0.0364
23419W        W66332  25.269  15.876  17.461  0.0969 -0.4754  0.0921
23420W        W66333  24.841  21.819  25.497  0.4882  0.0196 -0.1518
23421W        W66334  26.322  16.348  27.363 -0.2021 -0.2121  0.1631
23422W        W66335  28.054  11.782  18.889 -0.1511 -0.0186 -0.2656
23423W        W66336   1.390  26.310  16.717  0.2990  0.0068 -0.0116
23424W        W66337  34.282  20.818   0.341  0.0541  0.3446  0.0445
23425W        W66338  25.483  20.219  23.696 -0.1072  0.4414 -0.1829
23426W        W66339  19.559  19.957  15.680  0.1434 -0.1705  0.0203
23427W        W66340  33.582  19.127  22.361  0.4273  0.0156  0.0075
23428W        W66341  25.230  15.113  19.361  0.0035 -0.1206  0.0060
23429W        W66342  23.579  17.086  21.828 -0.3699 -0.0856 -0.0220
23430W        W66343  33.389  16.964  21.459 -0.2754  0.1035 -0.0040
23431W        W66344  16.269  21.529  17.639 -0.1867  0.1633 -0.0749
23432W        W66345  24.966  26.059  12.662 -0.1587  0.0285  0.0647
23433W        W66346  25.230   7.365  16.512  0.1905 -0.4230 -0.0863
23434W        W66347  24.031  25.366  18.840  0.2638 -0.1114 -0.1414
23435W        W66348  28.082  31.460  21.499  0.1439 -0.1613 -0.4064
23436W        W66349  31.417  13.837  20.945  0.1162 -0.1055  0.2093
23437W        W66350  30.921   7.742  22.954 -0.0551 -0.3149  0.0007
23438W        W66351  30.086  14.963  13.428 -0.0264  0.0163  0.4352
23439W        W66352  23.048  22.500  16.957 -0.0066  0.0934  0.0186
23440W        W66353  19.907  27.084  18.588  0.0702 -0.0478  0.0296
23441W        W66354  31.627  12.199  17.887  0.1002  0.3609  0.1105
23442W        W66355  28.955  10.962  27.049  0.0664  0.1135  0.0047
23443W        W66356  17.451  13.816  15.294 -0.1255 -0.0409 -0.3174
23444W        W66357  24.180  26.433  17.523 -0.2802  0.0131  0.3303
23445W        W66358  25.216  17.425  17.574 -0.1748 -0.0210 -0.1965
23446W        W66359  22.497  24.011  17.422 -0.0832  0.0729 -0.1553
23447W        W66360   2.642  14.420  17.140 -0.0709  0.0041 -0.1234
23448W        W66361  15.819  17.911  13.526  0.0361 -0.2579  0.1103
23449W        W66362  19.531   5.107  16.838  0.0318  0.0532 -0.1339
23450W        W66363  24.932  16.727  22.662 -0.1273  0.2241 -0.2756
23451W        W66364  31.218  12.786  24.347 -0.0804  0.2020  0.1174
23452W        W66365  25.658  13.535  18.183 -0.0308 -0.1197 -0.1414
23453W        W66366  31.720  24.804  16.326  0.0268 -0.0084  0.1433
23454W        W66367  27.480  16.259  17.621  0.3578  0.1549 -0.0716
23455W        W66368  26.869  21.698   1.287  0.0238 -0.0743 -0.1183
23456W        W66369  32.846  21.055  24.460  0.1882  0.1439 -0.0423
23457W        W66370  33.969  22.553  16.605 -0.0090  0.0507  0.0703
23458W        W66371  26.687  20.870  18.099 -0.1283  0.0329  0.0747
23459W        W66372  18.893  27.868  17.883  0.0945 -0.0022  0.0888
23460W        W66373   7.110  24.391  14.767 -0.2131 -0.0999  0.1440
23461W        W66374  24.211  14.691  20.132 -0.1316  0.2666 -0.1163
23462W        W66375  26.656  20.466  23.223  0.3242  0.0997 -0.3574
23463W        W66376   3.239  19.560  16.074 -0.0891  0.2495  0.3533
23464W        W66377  25.300  14.010  16.375 -0.0893  0.1643 -0.0653
23465W        W66378  27.335  30.871  18.158 -0.0192 -0.1090 -0.0431
23466W        W66379   1.944  19.607  24.758  0.1711  0.1463  0.0947
23467W        W66380  30.703   3.092  18.452  0.0193  0.1960 -0.0261
23468W        W66381  30.723  16.602  17.957 -0.2780  0.3922  0.0529
23469W        W66382  25.456  19.982  19.329 -0.2889  0.1888  0.1791
23470W        W66383  33.926  21.589  21.906  0.0206 -0.2822  0.1205
23471W        W66384   3.106  17.637  15.589 -0.0615  0.0928 -0.1937
23472W        W66385  25.668  17.448  16.654 -0.1912  0.1045  0.0390
23473W        W66386   1.003  14.657  15.795  0.1857  0.0586  0.1343
23474W        W66387  19.330  19.585  15.933 -0.0711  0.1199 -0.0860
23475W        W66388  30.311  26.751  14.071 -0.0316 -0.0247 -0.3104
23476W        W66389  32.206  13.411  15.561  0.0731  0.0936  0.1404
23477W        W66390  33.350  20.725  17.176 -0.0127 -0.0638 -0.1112
23478W        W66391  22.899  13.719  26.625  0.1211  0.1271  0.1481
23479W        W66392  30.417  28.721  19.560  0.3146 -0.1953 -0.2851
23480W        W66393  22.421  19.010  24.633 -0.0087 -0.0653 -0.0381
23481W        W66394  16.173  26.430  16.017 -0.2226 -0.0927 -0.2219
23482W        W66395  17.536  21.392  25.345  0.1046  0.0555 -0.1362
23483W        W66396  21.774  16.742  12.689  0.0029 -0.0076  0.0458
23484W        W66397  29.684  28.077  19.450 -0.1267  0.0390 -0.0205
23485W        W66398   0.801  24.661  18.538  0.1287 -0.0797  0.2254
23486W        W66399  23.397  12.475  25.106  0.0955  0.0276 -0.4607
23487W        W66400  29.536  13.357  14.995 -0.1513  0.1690 -0.0910
23488W        W66401  18.431  10.478  24.542 -0.1019  0.0605 -0.2853
23489W        W66402   0.139  20.192  28.215 -0.0661  0.0495  0.1517
23490W        W66403  19.089  29.014  24.055 -0.0508 -0.1659 -0.1068
23491W        W66404  26.746  15.396  28.277  0.2886 -0.1304 -0.0873
23492W        W66405  22.019  20.988  19.642 -0.1402 -0.0109 -0.0826
23493W        W66406  30.489  26.777  27.504  0.1842  0.1323 -0.1896
23494W        W66407  11.066  15.825  13.630 -0.3060  0.2076  0.1367
23495W        W66408  28.878  25.875  24.107  0.2302 -0.0093 -0.0483
23496W        W66409  29.334  29.513  20.022  0.2312  0.1257 -0.1366
23497W        W66410  23.112  24.020  18.369  0.1063 -0.4209 -0.1597
23498W        W66411  26.441  21.529  29.233  0.0340  0.1989 -0.1553
23499W        W66412  18.880   7.690  17.880 -0.3221 -0.1094  0.1012
23500W        W66413   0.379  21.456   0.547 -0.0478  0.0472 -0.4131
23501W        W66414  26.812  16.751  18.011 -0.0574  0.1517  0.0203
23502W        W66415  21.699  18.281   7.550 -0.0814 -0.2878 -0.2790
23503W        W66416  24.404  10.625  15.718  0.1070 -0.0939 -0.1411
23504W        W66417  29.654  30.710  26.315 -0.0111  0.1845  0.0151
23505W        W66418   7.343  13.781  26.043 -0.2127 -0.0365 -0.1380
23506W        W66419  29.091  19.773  21.714 -0.3946 -0.0991  0.1175
23507W        W66420  25.004  27.039  13.019 -0.2171 -0.0414  0.0708
23508W        W66421  21.816  16.667  29.379 -0.2796  0.1807  0.2097
23509W        W66422  27.969  16.896  25.997 -0.2030 -0.2381  0.3078
23510W        W66423   1.378  27.722  26.590  0.1278  0.1609 -0.0226
23511W        W66424  18.229  22.111   3.042 -0.1978  0.2054  0.2462
23512W        W66425   5.120  14.246   1.933 -0.0356 -0.0557 -0.2915
23513W        W66426  17.912  20.112  22.080 -0.0060 -0.0005 -0.1748
23514W        W66427  25.978  20.620  19.174 -0.2078  0.1560  0.0229
23515W        W66428  30.221  13.342   3.780  0.1596 -0.0477  0.1323
23516W        W66429  30.719  16.496  15.465 -0.1949  0.1945 -0.0666
23517W        W66430  26.665  25.330  25.718 -0.0324  0.3354 -0.1944
23518W        W66431  29.085  29.729  14.299  0.1887  0.1476 -0.2143
23519W        W66432  18.757  15.276  15.069 -0.4962 -0.3679 -0.2518
23520W        W66433  33.374  23.443  28.508 -0.3350 -0.0288  0.3589
23521W        W66434  27.533  20.471  23.851  0.1526  0.1726  0.0927
23522W        W66435  24.811  25.662  17.925  0.1150 -0.2561 -0.0246
23523W        W66436  23.399  18.420  22.657  0.0445 -0.5043 -0.1281
23524W        W66437  26.054  13.577  22.706  0.1570 -0.0954 -0.0313
23525W        W66438  22.838  24.191  13.310  0.3438  0.0599  0.3823
23526W        W66439  22.378  14.779  18.981 -0.2831  0.2668  0.2698
23527W        W66440  26.488  19.710  13.048  0.2221 -0.1454  0.2327
23528W        W66441  33.295  24.478   7.268 -0.4741 -0.1874  0.0276
23529W        W66442  29.868  20.995  16.193  0.1440 -0.0910  0.0083
23530W        W66443  23.855  32.257   1.135  0.0985  0.0953 -0.0224
23531W        W66444   0.360  26.800  21.320 -0.3123 -0.0823 -0.1016
23532W        W66445  29.991  26.718  19.780 -0.0440  0.5213 -0.3154
23533W        W66446   3.186   9.412  15.777  0.1812  0.0431 -0.1440
23534W        W66447  19.783  32.366   2.467  0.0517  0.0028 -0.2950
23535W        W66448  22.889  11.555  19.370 -0.1443 -0.1628  0.0029
23536W        W66449  27.747  19.744  22.156  0.1842  0.0750  0.4039
23537W        W66450  24.606   2.300  14.531 -0.1233 -0.1145  0.3847
23538W        W66451  20.693  34.492  26.412 -0.0886  0.2419  0.2749
23539W        W66452  33.719  15.066  25.323  0.2451  0.0569  0.1721
23540W        W66453  25.317  27.535  22.022  0.1805 -0.2303  0.1824
23541W        W66454  25.535  14.792   6.321 -0.0243  0.3254  0.0029
23542W        W66455   4.697  18.579  26.317  0.0528 -0.3575 -0.0557
23543W        W66456  33.511  22.528  20.972 -0.0908  0.1437 -0.1458
23544W        W66457  23.950  25.106  12.025 -0.0586 -0.1546 -0.0190
23545W        W66458   8.080  13.281  23.911  0.1688 -0.0435 -0.1035
23546W        W66459  30.902   0.467  23.739  0.0096  0.0204  0.3274
23547W        W66460  27.722  16.470  18.907  0.0768  0.1725 -0.0605
23548W        W66461   3.077  17.661  23.173 -0.2212  0.1058  0.0017
23549W        W66462   2.443  16.738  27.009  0.3816 -0.2080  0.1892
23550W        W66463   3.080  19.679  21.782  0.1494  0.1764  0.0623
23551W        W66464  27.556  20.571   6.710  0.2327  0.2749 -0.0461
23552W        W66465  24.718  23.958  17.196 -0.0721  0.0395 -0.2948
23553W        W66466   2.507  26.215   1.677  0.3217  0.0664 -0.0243
23554W        W66467  31.725  30.147  19.333  0.1254  0.1131  0.1647
23555W        W66468  24.439  22.975  17.233 -0.0490  0.1358  0.1693
23556W        W66469   2.815  19.147  25.816 -0.0983 -0.0331  0.0112
23557W        W66470  34.060  15.852  22.965  0.0247 -0.2031  0.1728
23558W        W66471  28.437  24.848   2.685  0.3052  0.3024 -0.2102
23559W        W66472  20.083  25.526  23.206  0.1817  0.1605 -0.0201
23560W        W66473  26.180  14.616  18.151  0.0572  0.1775 -0.0848
23561W        W66474   0.668  28.760  14.305 -0.1547 -0.0519 -0.0410
23562W        W66475  26.978  21.082  27.731 -0.2652 -0.0392  0.1193
23563W        W66476  10.420  16.549  16.993 -0.0307  0.2643  0.2065
23564W        W66477  30.011  15.841  27.071 -0.1419 -0.3685 -0.0375
23565W        W66478  25.126  22.618  13.531 -0.0320  0.0096 -0.1620
23566W        W66479  33.436   9.178  20.510 -0.1436  0.2033  0.1752
23567W        W66480  25.242  19.219  26.312 -0.0930  0.0796  0.0095
23568W        W66481   0.653   8.471  22.502  0.0437 -0.0273  0.0178
23569W        W66482  24.513  24.895  27.389 -0.0095  0.1098  0.1502
23570W        W66483  22.279  33.300  22.771  0.0006 -0.1840  0.0010
23571W        W66484  30.880  15.593  28.136 -0.1151 -0.0116  0.0619
23572W        W66485  30.479  14.351  22.276  0.1230 -0.0435  0.0930
23573W        W66486  28.065  27.663  18.260  0.0829  0.0345  0.0649
23574W        W66487  25.151  16.787  19.287  0.2096  0.1840 -0.5679
23575W        W66488  28.496  25.400  22.085  0.1571  0.0466 -0.1094
23576W        W66489   2.746  23.258  22.823  0.0689 -0.0739  0.1613
23577W        W66490  21.234  29.599  19.450  0.3592  0.2834  0.3130
23578W        W66491  32.008  22.638  16.532  0.0853 -0.0376  0.0368
23579W        W66492  25.049  20.843  19.220 -0.1293 -0.1484 -0.0930
23580W        W66493  20.591   7.124  20.405  0.0654  0.0365  0.2930
23581W        W66494  26.751  32.301  15.188 -0.1461 -0.0704 -0.0330
23582W        W66495  15.823  19.150   3.746 -0.3216 -0.3891  0.1319
23583W        W66496  30.081  25.062  24.296 -0.0186 -0.0507  0.0803
23584W        W66497   7.048  19.048  22.604  0.0901 -0.1161  0.2927
23585W        W66498  31.985  18.103   4.373 -0.1329 -0.2371 -0.0872
23586W        W66499  24.164  17.703  26.554 -0.0480 -0.1273 -0.0550
23587W        W66500   0.557  21.320  14.536 -0.0382 -0.0690 -0.0633
23588W        W66501  17.520  23.367  13.326 -0.1705 -0.2705 -0.1388
23589W        W66502  22.095  23.242  27.467  0.0923  0.1090 -0.1532
23590W        W66503   4.349   6.121  22.923 -0.2067  0.0140 -0.2499
23591W        W66504  28.391  13.909  21.974 -0.2020  0.0866  0.3626
23592W        W66505  31.298  23.456  14.691 -0.1867  0.0892  0.2758
23593W        W66506  24.752  22.438  17.874 -0.2715 -0.1932 -0.2822
23594W        W66507  33.233  23.787   7.717  0.0059 -0.2303  0.3295
23595W        W66508  23.180  17.963  18.265 -0.1227  0.2163 -0.0770
23596W        W66509  29.756  15.167  24.779  0.2254 -0.3078  0.0959
23597W        W66510  23.564   5.978  16.896 -0.2272 -0.4513 -0.1545
23598W        W66511  30.253  16.313  16.487  0.1562  0.4167 -0.0867
23599W        W66512  26.036  21.362  22.177  0.1080  0.2158  0.0910
23600W        W66513   3.478  28.329  16.117 -0.0249 -0.2482 -0.0644
23601W        W66514  28.839  15.983  18.294  0.0714 -0.2920 -0.0219
23602W        W66515  30.239  27.974  26.729  0.0297  0.3351 -0.0139
23603W        W66516   2.629  17.388  20.817 -0.0741  0.2659 -0.0169
23604W        W66517  25.390  11.760  24.467 -0.0226 -0.1030  0.0620
23605W        W66518  25.918  13.789  18.602  0.1095  0.0774 -0.0713
23606W        W66519  31.648  23.338  23.975 -0.0754 -0.4530 -0.1200
23607W        W66520  28.851  25.975  27.385 -0.1735  0.0457  0.2756
23608W        W66521  25.715  24.097  22.752  0.3168 -0.0003  0.1838
23609W        W66522   1.012  19.073  29.145  0.6506  0.0651  0.2228
23610W        W66523  33.093  14.954  15.600 -0.1089  0.2532  0.1061
23611W        W66524  16.669  15.387  14.942  0.0894 -0.2579 -0.0295
23612W        W66525  20.735  13.468  23.910 -0.1269 -0.0890  0.0925
23613W        W66526  16.709  18.412  23.233 -0.1127  0.1006 -0.2116
23614W        W66527   3.744  17.317   1.841  0.0295  0.0776  0.0491
23615W        W66528  19.465  29.543  17.295 -0.1168  0.0571  0.2338
23616W        W66529  30.494  20.628  19.424 -0.2568 -0.0004 -0.2353
23617W        W66530  26.984  12.122  17.358 -0.0488  0.1971 -0.0846
23618W        W66531  21.103  20.081  22.168 -0.0890 -0.1503 -0.1127
23619W        W66532  28.700  25.378  27.749 -0.1255  0.6780 -0.1753
23620W        W66533  20.131  20.130  13.022  0.3531 -0.4926  0.1004
23621W        W66534   2.968  27.843  28.366  0.3949  0.2326 -0.2673
23622W        W66535  23.800  31.819  16.383 -0.3713 -0.2751  0.1621
23623W        W66536  30.146   9.885  18.323  0.0281 -0.1368  0.2288
23624W        W66537  21.508  15.620  24.311 -0.1050  0.1569  0.3173
23625W        W66538  33.213  25.986  17.645  0.1508  0.2253  0.2006
23626W        W66539  33.215  10.575   0.386  0.1954  0.2395 -0.0108
23627W        W66540  28.585  28.062  20.893 -0.0120  0.0607 -0.0626
23628W        W66541  27.381  21.728   3.006  0.4509 -0.0789  0.0570
23629W        W66542  30.746  19.969  16.195 -0.1965 -0.0841 -0.2830
23630W        W66543  29.061   8.232  16.696 -0.0861 -0.0130  0.0567
23631W        W66544  29.072  16.269  18.733 -0.2336 -0.3386 -0.1535
23632W        W66545  23.426  26.002   1.999 -0.3161 -0.4281 -0.1352
23633W        W66546   0.002  10.955  26.705 -0.2289 -0.0890 -0.1409
23634W        W66547  30.885  22.422  26.411 -0.0648  0.1549  0.0013
23635W        W66548  19.313  26.326  16.824 -0.0172  0.1493  0.0444
23636W        W66549  24.262  19.914   0.917  0.2398  0.1855 -0.0322
23637W        W66550  27.146  14.671   5.374 -0.0538  0.3217  0.1853
23638W        W66551   2.548  27.534  18.452 -0.2104 -0.1392  0.0877
23639W        W66552  27.023  22.947  18.949  0.1721 -0.1206  0.2724
23640W        W66553   1.626  24.948   5.314  0.2618 -0.2612  0.0424
23641W        W66554  29.223  11.887  14.647 -0.1229  0.2281  0.1654
23642W        W66555  28.623  23.484  14.285 -0.1942 -0.1376  0.0299
23643W        W66556  19.703  20.838  23.110 -0.0607 -0.1903  0.0461
23644W        W66557  11.582  19.949  18.340 -0.0712  0.0489 -0.2562
23645W        W66558   1.274  24.768  17.632  0.0414 -0.0678  0.1641
23646W        W66559  23.590  23.904  29.234  0.3302 -0.1181 -0.1500
23647W        W66560  33.238  19.189  26.939 -0.0743  0.3746 -0.0801
23648W        W66561  17.603  21.113  24.245 -0.2127  0.0644 -0.2583
23649W        W66562   2.865  26.034   7.408  0.1104 -0.1088  0.0070
23650W        W66563  23.920  28.562  23.002 -0.0932 -0.0271 -0.1559
23651W        W66564  33.703  15.684  17.659 -0.0257  0.1660 -0.0948
23652W        W66565  31.027  19.890  19.582  0.0798  0.0452  0.0591
23653W        W66566  30.220  19.326  24.791 -0.0796  0.0139  0.0053
23654W        W66567  27.406  22.332  27.821 -0.0697  0.2235 -0.3577
23655W        W66568  32.692  20.208  16.292  0.0596  0.0418  0.3425
23656W        W66569  28.813  31.480  21.134  0.0749  0.3042 -0.1004
23657W        W66570  23.170  17.052  29.761 -0.0914 -0.1746  0.0627
23658W        W66571  26.386  17.753  28.870  0.1808  0.0792  0.1909
23659W        W66572  17.325  24.501  24.713  0.1760 -0.2502  0.2027
23660W        W66573   0.089  27.596  25.150 -0.1957  0.1341 -0.0438
23661W        W66574  24.529  27.336  20.346  0.0037  0.0989 -0.1965
23662W        W66575  21.352  22.895  12.875  0.0654  0.1038  0.2617
23663W        W66576  23.996  27.581  18.284  0.0455  0.0142 -0.0160
23664W        W66577  19.648   9.541  22.855  0.2621  0.2479 -0.1260
23665W        W66578  25.725  10.182   2.319  0.0555  0.0191 -0.0463
23666W        W66579   1.093  27.203  23.867  0.2416 -0.1393  0.2078
23667W        W66580  32.156  28.053  24.372 -0.1753  0.3196 -0.1938
23668W        W66581  28.939  14.858  14.763  0.0372 -0.1101  0.1645
23669W        W66582  22.316  17.984  23.481  0.2824 -0.0581 -0.0282
23670W        W66583   3.133   6.203  19.855 -0.2770  0.3149  0.0415
23671W        W66584  21.958  16.832  14.220 -0.1430  0.3401  0.0112
23672W        W66585  33.066  26.071  29.386 -0.2657  0.2398 -0.0318
23673W        W66586  24.349  26.636  19.507 -0.1288 -0.4250 -0.0508
23674W        W66587  22.176  23.401   1.304  0.2697  0.0677 -0.1953
23675W        W66588  30.518  24.365  21.705  0.0522 -0.1958 -0.2295
23676W        W66589   0.982  24.611  29.558 -0.2244  0.0270  0.1990
23677W        W66590  33.261  25.954  24.576  0.0330  0.1295 -0.2821
23678W        W66591  19.718  14.789  27.018  0.0923  0.0718  0.0804
23679W        W66592   3.344   5.188  22.177  0.0047 -0.2114  0.2653
23680W        W66593  25.395  30.355  26.563  0.3372 -0.4255  0.2455
23681W        W66594  21.856  20.335  22.299 -0.2060  0.0857  0.1557
23682W        W66595  26.921  12.124  19.641  0.1275 -0.1584 -0.2181
23683W        W66596  21.412  30.586  20.701  0.0181  0.0954  0.3897
23684W        W66597  26.931  19.757  14.564 -0.0174  0.1921 -0.1343
23685W        W66598   0.885  19.577  19.480  0.2664 -0.0748 -0.3098
23686W        W66599  15.058  25.143  15.201 -0.0114  0.3900 -0.1632
23687W        W66600  28.647  25.483  19.410  0.1372 -0.0262 -0.1717
23688W        W66601  22.858  32.872  17.756 -0.0445 -0.0098 -0.0330
23689W        W66602   2.634  16.929  26.577 -0.0691  0.1213  0.1957
23690W        W66603  16.540  23.787  17.469 -0.0410  0.2829  0.2273
23691W        W66604  28.719  22.112  23.748  0.1555  0.0635 -0.0204
23692W        W66605  23.518   9.206  26.533  0.1290 -0.0985  0.3282
23693W        W66606   0.444  27.598  20.555  0.2746  0.1259  0.0165
23694W        W66607  20.357   6.613   0.206 -0.0103  0.0277 -0.0916
23695W        W66608  22.267  20.614  25.615  0.1025  0.1358 -0.2110
23696W        W66609  32.122  19.064  17.696 -0.1616  0.2771 -0.1043
23697W        W66610  28.105  32.086  23.608  0.0373 -0.3075 -0.0509
23698W        W66611  31.636  22.568  28.949 -0.0111 -0.0636 -0.0919
23699W        W66612  22.119   8.437  19.002  0.1300 -0.1845 -0.0550
23700W        W66613  30.374   6.889  22.058  0.2687 -0.0032  0.0968
23701W        W66614  32.909  18.119   8.072  0.0043  0.1958  0.0365
23702W        W66615  22.950  30.054   4.595 -0.2513 -0.0014  0.0379
23703W        W66616  22.900  26.104  21.756 -0.2071 -0.1901 -0.0800
23704W        W66617  25.491  25.993  24.996  0.0635 -0.2611  0.2500
23705W        W66618  23.453  22.100   2.214  0.3098 -0.3338 -0.0713
23706W        W66619  25.316  33.123   4.791  0.0242  0.0757  0.1109
23707W        W66620  34.051  20.533  17.733 -0.0581 -0.1061 -0.1973
23708W        W66621   1.195  17.290  14.983 -0.1873 -0.1480 -0.1327
23709W        W66622  32.709  32.092  20.972 -0.0546 -0.2937  0.0608
23710W        W66623  22.374  21.674   4.233 -0.1091  0.0093  0.0042
23711W        W66624  31.470  20.260  18.915  0.1281 -0.3793  0.1517
23712W        W66625   0.086  13.876  18.933 -0.2237 -0.2226 -0.1535
23713W        W66626  27.596  12.554  24.862 -0.1198  0.4896  0.0169
23714W        W66627  13.208  25.621   5.182 -0.1412  0.2301  0.2413
23715W        W66628  21.658  17.226  19.457 -0.1618 -0.1529  0.5671
23716W        W66629  33.010  20.869   1.968 -0.1119 -0.1297  0.0518
23717W        W66630  31.287  16.020   0.946  0.2170 -0.0289 -0.2073
23718W        W66631  30.128  16.577  25.361  0.1644 -0.1437 -0.1382
23719W        W66632  25.900  16.604   5.152 -0.2995 -0.3511  0.1959
23720W        W66633  27.016  23.045   5.882 -0.0290  0.0467 -0.1213
23721W        W66634  17.864  24.830  28.440  0.1993 -0.2804 -0.1961
23722W        W66635  32.149  25.862  21.876  0.1782 -0.4337  0.0877
23723W        W66636   4.812  25.132  26.203 -0.0624 -0.0363  0.2540
23724W        W66637  30.999  19.356  19.194 -0.4513 -0.0584  0.0346
23725W        W66638  34.224  22.426   3.225 -0.2759 -0.1467  0.0158
23726W        W66639   9.098  23.918  20.654 -0.0512  0.0895 -0.1904
23727W        W66640  26.220  28.498   5.647  0.1724 -0.5793  0.0121
23728W        W66641   2.382  19.420   4.455 -0.1905  0.2627 -0.1944
23729W        W66642  22.995  26.148  14.825 -0.0472  0.0091  0.0948
23730W        W66643  30.191  18.698  24.272  0.0202  0.2605  0.0406
23731W        W66644   5.215  21.394   4.184  0.0742  0.3723 -0.0552
23732W        W66645  28.929  14.190  21.168 -0.1554  0.3383  0.1864
23733W        W66646  21.676  19.341  16.601  0.2037  0.3751  0.0482
23734W        W66647  23.366  24.499  22.352  0.1255 -0.1667  0.0403
23735W        W66648   2.490  16.279  28.524 -0.4457  0.2420  0.1235
23736W        W66649  27.627  20.351  21.707  0.1118 -0.1865 -0.4498
23737W        W66650  24.304  25.888  27.468 -0.0946 -0.0654 -0.2092
23738W        W66651   1.066  16.225  18.410 -0.2317  0.3572  0.0188
23739W        W66652   0.111  19.674  28.448 -0.1428  0.1777 -0.0152
23740W        W66653  32.311   0.251  16.847  0.2957 -0.1122  0.0580
23741W        W66654   5.115  24.889  25.066  0.0616  0.2318  0.2762
23742W        W66655   6.036   7.013  25.209  0.2216 -0.0791  0.2986
23743W        W66656  21.108  20.517  12.645 -0.1378 -0.1771 -0.0911
23744W        W66657  28.767  25.712  16.100  0.0093  0.2713 -0.0196
23745W        W66658   1.717  13.984   0.472 -0.2472 -0.3630 -0.0272
23746W        W66659  27.909  14.987   3.459  0.1139  0.0133  0.1483
23747W        W66660  27.776  10.548  18.708  0.2298  0.2491  0.2249
23748W        W66661  31.029  20.079  22.145 -0.3787  0.0640 -0.2166
23749W        W66662   0.992  23.602  16.476  0.1996  0.1802 -0.0538
23750W        W66663  34.310  27.813  25.477 -0.0884 -0.4258  0.1243
23751W        W66664   1.336  11.568  21.565  0.0237  0.0535 -0.0565
23752W        W66665  19.650  24.404  24.719  0.0953  0.1970 -0.0079
23753W        W66666  26.443  22.590  21.119  0.1035  0.2140 -0.1092
23754W        W66667  25.213  21.112  19.583 -0.0659  0.0816  0.1703
23755W        W66668   5.911  19.038  19.326  0.3155 -0.0724  0.2186
23756W        W66669  17.782  13.135  11.792 -0.0321 -0.0645 -0.2519
23757W        W66670  19.840  20.291  12.100 -0.3204  0.2398  0.1287
23758W        W66671  27.381  14.965  16.200 -0.0783 -0.3474  0.1855
23759W        W66672  28.585  24.489  15.505  0.1105 -0.2607 -0.0178
23760W        W66673  23.786  16.110  13.959 -0.4299 -0.1541  0.2293
23761W        W66674  22.152  24.323  22.804  0.1808 -0.1248 -0.1558
23762W        W66675  31.921  21.913  19.357  0.0374  0.1494 -0.0344
23763W        W66676  29.362  26.471  16.183  0.1380 -0.3041  0.3052
23764W        W66677  16.199  26.716  21.837  0.1002 -0.2131 -0.0027
23765W        W66678  33.630  28.491  20.219 -0.0112 -0.0422  0.1611
23766W        W66679  24.517  26.247  17.888  0.1790  0.2703  0.1608
23767W        W66680  28.425  27.911  19.130  0.0233  0.0165  0.2412
23768W        W66681  32.125  21.104  19.940  0.0621  0.0080  0.0535
23769W        W66682  27.040  16.162  27.922  0.1471 -0.1542 -0.0679
23770W        W66683  33.342  18.931  16.900  0.1475 -0.0818  0.3287
23771W        W66684  24.175  18.600  22.148 -0.0822  0.0785 -0.0019
23772W        W66685  23.105  24.656  17.098  0.1860  0.1863 -0.0997
23773W        W66686  30.956   5.570  19.212 -0.0206  0.0156  0.0237
23774W        W66687  28.168  13.914  22.883 -0.3224  0.0585  0.3262
23775W        W66688  11.157  25.055   9.424  0.0599 -0.0699  0.1276
23776W        W66689   4.829  30.644  18.038 -0.1415  0.2559 -0.0042
23777W        W66690  28.762  23.623  19.967  0.0555 -0.3481  0.0230
23778W        W66691  21.812  30.618  24.000 -0.1037  0.3641 -0.2931
23779W        W66692  20.892  24.678  22.796  0.1258 -0.2467  0.3559
23780W        W66693  31.009  14.553  25.123 -0.1634 -0.1926  0.0651
23781W        W66694  18.798   7.611  17.349  0.0164 -0.1509 -0.0929
23782W        W66695  27.704  22.979   0.400  0.0757 -0.3566 -0.2017
23783W        W66696  26.379   8.503  25.773  0.4184 -0.2107 -0.0978
23784W        W66697  25.835  24.954  19.601  0.4427 -0.3528 -0.0691
23785W        W66698  21.514  23.735  26.138  0.3624  0.1981  0.0723
23786W        W66699  24.312  22.872  23.724  0.7898 -0.2383  0.1851
23787W        W66700  27.185   9.079  27.319  0.3790  0.1025 -0.3718
23788W        W66701  27.779  19.338   1.852  0.0171  0.0522  0.0206
23789W        W66702  28.147  16.922   1.215 -0.0935 -0.1930  0.0034
23790W        W66703  31.295  19.968  24.151  0.2064 -0.0791  0.0394
23791W        W66704  26.770  10.602  23.459 -0.1871  0.0328  0.0914
23792W        W66705  25.206  22.973   1.618  0.0060  0.2907 -0.1089
23793W        W66706  20.772  19.954  26.000 -0.0586 -0.0876  0.1814
23794W        W66707   5.908  21.502  15.283 -0.0658  0.1086  0.1742
23795W        W66708  27.121  22.104   1.185  0.0427 -0.0003  0.0238
23796W        W66709   0.621  12.606  15.283 -0.0534 -0.1101  0.0909
23797W        W66710  31.762  28.414  22.802  0.1076  0.1924  0.1419
23798W        W66711  33.761  18.731  12.949  0.1023 -0.0258 -0.0122
23799W        W66712  29.189   9.629  22.914  0.1155 -0.1431 -0.2216
23800W        W66713  16.682  11.310  14.635  0.2662 -0.0973 -0.0531
23801W        W66714  22.330  17.853  19.569 -0.0865  0.1352 -0.0365
23802W        W66715  29.384  22.226   7.483  0.0343  0.1224 -0.1087
23803W        W66716  22.582  23.619  15.715 -0.2075  0.0023 -0.0453
23804W        W66717  28.289   6.273  28.621 -0.1909 -0.1416  0.0922
23805W        W66718  16.529  12.010  20.413 -0.2070  0.1512  0.0064
23806W        W66719   1.105  24.016  15.496 -0.0293  0.1567  0.1493
23807W        W66720  31.688  17.665   2.423  0.1056 -0.1316  0.0016
23808W        W66721  33.747  19.450  19.758  0.3280 -0.1232 -0.0675
23809W        W66722  23.731  18.081  26.649 -0.1331 -0.0597 -0.0706
23810W        W66723  30.041   2.175   4.126 -0.0118 -0.0648  0.1295
23811W        W66724   4.187  18.433  16.864 -0.1842  0.2886 -0.0106
23812W        W66725  24.704  10.371  18.510 -0.1137  0.1374 -0.1769
23813W        W66726  23.327  11.670  24.178 -0.0010  0.0223 -0.1997
23814W        W66727  25.709  20.027  13.173 -0.1931  0.2164  0.2427
23815W        W66728  29.562  13.881   1.336  0.0926  0.1824 -0.1766
23816W        W66729  27.127  25.930  27.854 -0.0981  0.2841 -0.0646
23817W        W66730  24.897  16.600  20.263 -0.0041  0.3950  0.1019
23818W        W66731  24.445  16.979   4.694  0.0770  0.0042 -0.0037
23819W        W66732  24.245  26.566  20.016  0.1535 -0.1253 -0.1593
23820W        W66733  32.437  19.949  13.522 -0.0176  0.1408  0.1187
23821W        W66734  29.413  12.696  22.984  0.1368 -0.3236  0.1526
23822W        W66735  25.819  20.513  22.208 -0.2162  0.0075  0.2589
23823W        W66736  30.106  17.608  26.113  0.1340  0.2340  0.1339
23824W        W66737  12.818  17.190  20.504  0.1441 -0.0089 -0.2653
23825W        W66738  30.271  18.106  15.900  0.2477  0.1659  0.0210
23826W        W66739  22.413  17.631  27.679 -0.0310  0.1661 -0.1689
23827W        W66740   4.006   9.959  22.799  0.0414  0.0838 -0.0379
23828W        W66741  34.076  26.711  21.525 -0.1457 -0.0958  0.0497
23829W        W66742   3.613  21.640  27.610  0.0287  0.3306 -0.1506
23830W        W66743  20.834  20.141  13.676  0.0499  0.5374 -0.1376
23831W        W66744  27.216  14.026  25.769 -0.0125 -0.0334 -0.1576
23832W        W66745  21.411  30.271  15.204 -0.2442 -0.0722 -0.0947
23833W        W66746  34.096  26.196  25.254 -0.0730 -0.0591  0.0812
23834W        W66747  25.293  18.851  18.199  0.1514 -0.1226 -0.0955
23835W        W66748  19.902  12.503   5.446 -0.3412  0.0198 -0.3800
23836W        W66749  16.750  25.352  28.121 -0.0226  0.3665 -0.0231
23837W        W66750  24.280  16.912  24.071 -0.4254 -0.0834 -0.1954
23838W        W66751  26.711  27.515  21.920 -0.0181  0.0791 -0.0146
23839W        W66752  25.449  14.521  27.765 -0.1385  0.2213 -0.2009
23840W        W66753  24.678  24.872  20.032  0.1200 -0.0568  0.2098
23841W        W66754  28.345  23.182  25.611 -0.3162 -0.1583 -0.2128
23842W        W66755  16.193  13.967  27.872 -0.1989  0.1113  0.2280
23843W        W66756  24.822   7.239  22.018 -0.2256 -0.0168  0.2602
23844W        W66757  21.500  22.468  20.929  0.0754  0.0884  0.0266
23845W        W66758  28.050  26.614  24.597  0.2366  0.0333  0.2129
23846W        W66759  23.729  30.346  24.076 -0.5510 -0.1325 -0.0405
23847W        W66760  32.876  23.692  27.926 -0.0138 -0.1519  0.0446
23848W        W66761  31.840  14.612  21.793 -0.0071  0.2281  0.0887
23849W        W66762  25.913  16.410  13.924 -0.1800  0.0389 -0.1024
23850W        W66763  34.382  28.331   2.453 -0.1657  0.2707 -0.5127
23851W        W66764  16.591  25.845  28.464 -0.0154  0.1977  0.0881
23852W        W66765  23.778   1.109  28.807  0.0092  0.2119  0.1511
23853W        W66766  21.666  18.184   4.652  0.1743  0.1862 -0.2127
23854W        W66767   1.623  24.849  25.803  0.0352 -0.0780 -0.1003
23855W        W66768  25.914   6.321   6.189  0.1932  0.0714 -0.2371
23856W        W66769   2.573  22.738  19.515 -0.2819 -0.0076  0.1335
23857W        W66770  24.088  16.431  29.764 -0.1025  0.2102 -0.1988
23858W        W66771  25.397  18.786  14.528  0.2186 -0.0264  0.2201
23859W        W66772  24.376  23.916  20.415  0.3186 -0.1675 -0.0605
23860W        W66773  33.980  27.348  20.979  0.0349 -0.2818 -0.1495
23861W        W66774  30.016  18.218  21.886 -0.2294  0.2707 -0.0352
23862W        W66775  29.408  27.274  29.490 -0.0101 -0.1928  0.2419
23863W        W66776  28.760  12.785  14.562  0.2327  0.0290  0.1533
23864W        W66777  32.305  21.164  22.103  0.1925  0.0593  0.5510
23865W        W66778  32.199  22.967   1.254 -0.0085  0.3006 -0.0234
23866W        W66779   4.263  20.353  24.063 -0.0703 -0.0952  0.3351
23867W        W66780  33.308  11.865   8.407  0.3279 -0.1031 -0.0234
23868W        W66781   1.727  17.116  17.769 -0.2237  0.1945 -0.3144
23869W        W66782   3.266  24.759  19.079  0.0278 -0.2401  0.1181
23870W        W66783  30.761  32.515  29.563  0.1481 -0.0601 -0.0323
23871W        W66784  33.142  26.181   0.394 -0.0900  0.1072  0.2233
23872W        W66785  20.936  14.370  22.031  0.0516  0.1124  0.2584
23873W        W66786  23.326  11.054  26.435 -0.1560  0.0937 -0.0364
23874W        W66787  29.513  18.168  21.749 -0.1855 -0.0952 -0.1157
23875W        W66788  21.130  21.166  29.052 -0.1597  0.1791 -0.0578
23876W        W66789  23.935  18.770   6.396  0.3126  0.0071  0.1803
23877W        W66790   0.991  28.439  21.397  0.3106 -0.2524 -0.1380
23878W        W66791  24.984  21.054  14.236 -0.0541  0.1804 -0.2676
23879W        W66792  33.225  18.541  17.163  0.2175 -0.0400 -0.3470
23880W        W66793  34.311  20.258  16.784 -0.0173  0.1338 -0.2327
23881W        W66794  21.152  24.447  13.602 -0.0315  0.0735 -0.1675
23882W        W66795   1.566  13.088  23.416  0.3376  0.3104 -0.1831
23883W        W66796  19.373  10.905   9.176 -0.0894  0.2737  0.3093
23884W        W66797  24.933  27.023  23.017 -0.0087 -0.0330 -0.4716
23885W        W66798  23.003  24.749  23.240  0.2690 -0.0643 -0.3317
23886W        W66799  18.010  11.492  14.527  0.1580 -0.2290 -0.1468
23887W        W66800  22.709  22.306  28.028 -0.0376  0.0452 -0.1281
23888W        W66801   0.959  16.471  18.917 -0.2371  0.0281  0.1335
23889W        W66802  30.206  15.951  23.481  0.1296  0.2625  0.0993
23890W        W66803  18.760  24.086  26.716 -0.2214  0.0448  0.0260
23891W        W66804   0.622  18.364  20.599  0.0912  0.1317  0.0848
23892W        W66805  18.082  13.680  22.714 -0.2728 -0.0375 -0.1362
23893W        W66806  32.939  27.323  19.175 -0.0094  0.1518  0.3209
23894W        W66807  31.898   5.520   2.921  0.1934 -0.0416  0.1952
23895W        W66808  27.811  16.700  29.288 -0.1648 -0.3475 -0.0566
23896W        W66809  34.426  27.490   0.766 -0.0052 -0.0164 -0.0003
23897W        W66810  22.790  22.332  29.438 -0.1029 -0.4043  0.5139
23898W        W66811  26.777  26.443  20.148  0.1278 -0.1506  0.1457
23899W        W66812  24.737  19.061   3.779  0.4140  0.0719 -0.0920
23900W        W66813  27.659  26.274  25.526 -0.0321  0.0044 -0.1551
23901W        W66814  18.961  14.427  16.508  0.3158 -0.2852  0.3507
23902W        W66815  27.563  18.439  23.566  0.1006  0.1780  0.1027
23903W        W66816  30.532  29.506  27.292  0.0965  0.2219  0.1488
23904W        W66817  18.590   9.834  28.899 -0.3678  0.0652  0.0231
23905W        W66818  29.912  26.417  28.337  0.1236 -0.0121 -0.0337
23906W        W66819  28.588  15.863   6.605  0.1307  0.0899  0.1312
23907W        W66820  22.934  21.341  25.647 -0.0036  0.0530 -0.0769
23908W        W66821  25.845  22.692  25.926 -0.1015  0.0909 -0.2758
23909W        W66822  26.147  21.236   0.232 -0.1802  0.0561 -0.2038
23910W        W66823  31.736  22.681   7.017  0.1373 -0.0555  0.0367
23911W        W66824  25.936  25.325  29.181 -0.0630  0.2096  0.1022
23912W        W66825  18.344  17.619  29.271 -0.2493 -0.2920 -0.1880
23913W        W66826  23.612  28.384  25.286  0.2718 -0.0017 -0.0141
23914W        W66827  31.903  28.297   2.002  0.3532  0.0112  0.0255
23915W        W66828  30.810  21.635   6.351 -0.2172  0.0705 -0.0239
23916W        W66829  25.406  20.362  26.961  0.0670 -0.1319 -0.1200
23917W        W66830  31.783  22.314  24.803 -0.2231 -0.2322  0.0618
23918W        W66831   7.838  14.426  21.683 -0.2525  0.0551 -0.0199
23919W        W66832  21.624  18.387  26.807  0.1212 -0.0034  0.0564
23920W        W66833  31.717  22.924  27.267 -0.1328 -0.2863 -0.1548
23921W        W66834  28.122  24.002  27.724 -0.0472  0.2071  0.0866
23922W        W66835  24.933  14.257  21.306 -0.2064  0.3608 -0.2126
23923W        W66836  23.141  16.571  18.426 -0.2477 -0.2625 -0.2893
23924W        W66837  31.943  28.801   1.842 -0.1183 -0.0538 -0.0133
23925W        W66838  18.792  18.273  28.560 -0.5876  0.2466 -0.4486
23926W        W66839  21.925  21.130   0.788 -0.2685 -0.1183  0.0837
23927W        W66840  22.432  20.517  25.164 -0.2058 -0.0373 -0.0216
23928W        W66841  31.732  29.810  16.981 -0.2516 -0.0454  0.0092
23929W        W66842  33.084  22.933   2.944 -0.1125  0.1372 -0.1031
23930W        W66843  23.415  30.958  24.541 -0.0945  0.4195  0.1920
23931W        W66844  32.434  23.450   5.597 -0.1095  0.1593  0.0136
23932W        W66845  21.704   6.744  28.685 -0.1362  0.3911 -0.0777
23933W        W66846  28.150  24.285   0.692  0.1423 -0.3737  0.1440
23934W        W66847  23.044  23.611  15.121 -0.0983  0.0020  0.1421
23935W        W66848   2.725  33.141   6.413 -0.0855  0.1580  0.0282
23936W        W66849  23.265  19.405  18.634  0.2977 -0.1241 -0.0871
23937W        W66850  19.807  12.915  24.105 -0.0561  0.2995 -0.2373
23938W        W66851  25.308  26.645   1.709 -0.3418 -0.3764  0.0336
23939W        W66852   2.381  12.040  23.874 -0.2125 -0.0880  0.3983
23940W        W66853   0.044  11.183   3.691 -0.2848 -0.3548  0.1953
23941W        W66854   1.052  16.231   3.336 -0.1193  0.3530  0.1307
23942W        W66855  30.153  22.263   3.983 -0.0470  0.0961  0.0572
23943W        W66856   1.269  25.784  26.649  0.2533 -0.2987  0.0279
23944W        W66857  21.356  21.023  24.402 -0.3924 -0.0036 -0.4105
23945W        W66858   6.056  18.591  25.137 -0.1858 -0.0410 -0.2348
23946W        W66859  26.878  19.380  17.798 -0.1524 -0.3264  0.0478
23947W        W66860  31.154  15.400  22.778  0.3260  0.1521  0.3637
23948W        W66861  33.528  22.426  27.091 -0.0783  0.3350  0.0366
23949W        W66862  27.181  17.724  20.899 -0.0025 -0.0923 -0.2554
23950W        W66863  24.522  22.163   3.101 -0.1133  0.4104  0.0092
23951W        W66864  31.322  23.132  26.505  0.2025  0.2502  0.3972
23952W        W66865   2.371  21.482   5.259  0.2248 -0.3247 -0.0025
23953W        W66866  31.289  14.425  21.935 -0.2805  0.0518  0.1614
23954W        W66867  25.245  19.378  22.456  0.3391  0.1809 -0.0097
23955W        W66868  23.808  12.663  25.779  0.0879  0.2291  0.2558
23956W        W66869  34.134  16.935  24.288 -0.0546 -0.0722 -0.1616
23957W        W66870  27.887  22.313   7.918 -0.3044  0.3399 -0.1923
23958W        W66871  19.212  16.285  27.670 -0.3053  0.0364 -0.3323
23959W        W66872  30.842  29.688  26.902 -0.1911  0.3190  0.1513
23960W        W66873  22.573  15.257  25.140 -0.1855  0.2164  0.1368
23961W        W66874  30.399  20.448   2.295 -0.1129 -0.0644 -0.0483
23962W        W66875   2.563  27.829  27.743 -0.0317 -0.1472 -0.2179
23963W        W66876  24.197  27.248   0.899  0.0636 -0.2277  0.2409
23964W        W66877  21.655  19.517  18.718  0.0330 -0.1066  0.0498
23965W        W66878  25.294  17.911   9.101 -0.1419 -0.3510  0.3034
23966W        W66879  33.016  18.319  27.221  0.0825 -0.2308 -0.1151
23967W        W66880  22.504  14.649  26.230  0.0464 -0.1307 -0.0764
23968W        W66881  27.454  19.921  20.249 -0.0752 -0.0572 -0.0115
23969W        W66882  25.595  17.796   6.395  0.1282  0.0550 -0.1583
23970W        W66883  28.164  19.384  24.292 -0.0304 -0.3239  0.3663
23971W        W66884  20.175   9.825   2.436 -0.3793  0.0284  0.1375
23972W        W66885  30.702  21.161  27.904  0.2348 -0.1508 -0.0275
23973W        W66886  29.770  16.613  25.743  0.1801 -0.2273 -0.2029
23974W        W66887  19.974  19.723  15.034  0.0281 -0.0533 -0.2446
23975W        W66888   1.049  17.354  22.114 -0.0431 -0.0879 -0.4511
23976W        W66889  22.376  21.674  21.059 -0.2324  0.0681  0.1397
23977W        W66890  30.022  24.467  28.556 -0.0182  0.0218  0.3388
23978W        W66891  21.715  20.665  29.381  0.1199 -0.2344  0.1220
23979W        W66892  18.490  17.976  26.474  0.2539 -0.3250  0.2085
23980W        W66893  20.122  10.639  22.306 -0.1900  0.0464 -0.1816
23981W        W66894  15.656  25.695  27.889  0.1701 -0.1001  0.0087
23982W        W66895   4.381  19.887  19.888  0.0811  0.2409 -0.0519
23983W        W66896   8.502  16.770  22.475  0.0586 -0.0391  0.1044
23984W        W66897  31.714  25.903  25.319  0.0448  0.2314  0.4514
23985W        W66898  27.569  15.624  23.088  0.1962 -0.0394 -0.3931
23986W        W66899  26.655  22.633   4.219 -0.0903  0.1964  0.1379
23987W        W66900  23.748  23.000   0.849  0.1161  0.1581 -0.2305
23988W        W66901   0.356  22.021  23.015  0.0941 -0.0276  0.0675
23989W        W66902  19.871  14.834  28.405 -0.0107  0.0181 -0.0401
23990W        W66903  23.942  22.318   0.851  0.1642  0.1444  0.1923
23991W        W66904  30.275  18.848  24.828  0.3111 -0.0475  0.0348
23992W        W66905  32.251  11.808   1.104  0.1816  0.2358 -0.0758
23993W        W66906  24.936   8.981  22.762  0.0819  0.0867  0.1661
23994W        W66907  33.647  32.200   2.781 -0.0559  0.0797  0.0387
23995W        W66908  27.623  16.713  27.414 -0.0457  0.0222 -0.2259
23996W        W66909  21.384  30.198  26.188  0.0308 -0.0569 -0.0872
23997W        W66910  11.083  15.272  28.757 -0.0802 -0.3380  0.0474
23998W        W66911  30.038  23.041  26.148 -0.0391 -0.2446  0.4356
23999W        W66912  26.796  16.697   1.622  0.3104 -0.0893  0.0952
24000W        W66913  27.318  19.276  24.496  0.0058  0.2065  0.2340
24001W        W66914  24.856  16.775  29.514 -0.0981 -0.0565  0.2214
24002W        W66915   3.005  22.548  18.514 -0.1324  0.2406  0.1456
24003W        W66916  34.404  28.747  27.764  0.1477  0.2010 -0.1018
24004W        W66917  30.551  28.638  28.926 -0.0961 -0.2253  0.0021
24005W        W66918  19.974  23.091   2.554  0.1926 -0.1095  0.1162
24006W        W66919  28.293  11.700  17.440 -0.0908 -0.1496 -0.2314
24007W        W66920  24.093  18.206   2.278  0.0718 -0.0304 -0.0536
24008W        W66921  30.712   8.198  23.002  0.0933  0.0689  0.0795
24009W        W66922  28.567  31.959   3.064 -0.1415 -0.1288  0.0524
24010W        W66923  29.138  30.018  26.572  0.0839  0.1083 -0.0796
24011W        W66924  26.249  24.001  24.213  0.0630 -0.0264 -0.0106
24012W        W66925  30.833  23.789  28.781 -0.0527  0.0090  0.0636
24013W        W66926  30.175  22.189   2.416 -0.1810  0.0091  0.2314
24014W        W66927  26.724   4.497  28.404 -0.2518  0.2591  0.0140
24015W        W66928  17.197  28.517  21.058 -0.0451 -0.1439  0.0894
24016W        W66929  20.271   7.431  20.172  0.2017  0.1927 -0.1837
24017W        W66930  22.024  26.252   0.494  0.3397  0.0682 -0.3461
24018W        W66931  27.002  23.139  15.902  0.0466 -0.3898  0.1807
24019W        W66932  20.277  13.720  20.122  0.2863  0.4144 -0.1620
24020W        W66933  30.196  14.559  18.662  0.1301 -0.1016 -0.2015
24021W        W66934  16.572  21.150  17.525  0.1461  0.4407  0.1186
24022W        W66935  31.128  19.253  27.558  0.1878  0.4504  0.1813
24023W        W66936  19.879  18.279  28.859  0.1214  0.1886 -0.0737
24024W        W66937  21.063  10.729  28.839  0.0143 -0.0871 -0.0439
24025W        W66938  26.470  16.878   5.148 -0.1061  0.1388  0.2155
24026W        W66939  21.132  30.684  19.627  0.0500 -0.2149 -0.1231
24027W        W66940  34.414  17.863   1.946 -0.1155 -0.0513 -0.2906
24028W        W66941  33.657  29.412  15.771 -0.4027 -0.0698  0.1450
24029W        W66942   1.906  16.390  29.092 -0.2746 -0.0640 -0.0394
24030W        W66943  19.899  27.706  29.298  0.1874  0.2648 -0.1751
24031W        W66944  27.193  23.240  25.702  0.1166  0.0095 -0.0581
24032W        W66945  19.105  22.723   3.704 -0.3007 -0.2084 -0.1646
24033W        W66946  29.272  17.450   9.207 -0.0434 -0.1111 -0.2451
24034W        W66947   9.231  30.802  19.021 -0.1215  0.0064 -0.1917
24035W        W66948  20.980  29.773  22.213 -0.0576 -0.2526 -0.0898
24036W        W66949  29.551  20.279  28.441  0.0600  0.0123 -0.2285
24037W        W66950  26.640  21.091  29.269 -0.0029 -0.1213 -0.0125
24038W        W66951  32.942   7.940  19.651 -0.2252 -0.0485 -0.0323
24039W        W66952   3.732  17.584  29.266  0.0217  0.0643  0.0615
24040W        W66953  28.105  22.252  25.178  0.1622 -0.2903 -0.4962
24041W        W66954  27.322  16.982   0.227 -0.0794 -0.2884 -0.0811
24042W        W66955  30.696  13.094   8.518  0.0238  0.1409 -0.0092
24043W        W66956   6.741  26.792   1.912  0.0458 -0.0603  0.1194
24044W        W66957  32.472  22.814   2.340  0.0712 -0.0437 -0.3267
24045W        W66958  29.704  21.372  28.316  0.2106 -0.1627 -0.1066
24046W        W66959  33.293  13.789  20.257  0.0678 -0.0908  0.1835
24047W        W66960  24.990  21.242   5.927 -0.0513  0.2149 -0.1624
24048W        W66961  30.311  16.427  23.421  0.3167  0.1203  0.1846
24049W        W66962  19.222  31.011   0.812  0.0373 -0.0794 -0.1912
24050W        W66963   6.576  21.481   6.090  0.0488 -0.3305  0.1788
24051W        W66964  25.743  25.444   8.123  0.2686  0.0094 -0.3936
24052W        W66965  21.556  30.775  22.125  0.1134  0.2423  0.0562
24053W        W66966  22.295  25.504  21.588 -0.0356 -0.0973 -0.1091
24054W        W66967  24.317  20.802   8.712 -0.0336 -0.0809 -0.1499
24055W        W66968  25.576  19.837  28.922  0.1300  0.0572  0.1351
24056W        W66969   1.045  21.300   2.178 -0.0120  0.0287  0.1253
24057W        W66970  30.167   8.994  26.025 -0.2663 -0.2057 -0.2433
24058W        W66971  18.641  25.264  19.326  0.3361 -0.2210 -0.1153
24059W        W66972  17.769  29.183  25.332 -0.0234  0.1265 -0.2674
24060W        W66973  26.174  15.301   3.891  0.2816 -0.2765 -0.0832
24061W        W66974  10.269  16.016  15.525 -0.0239  0.0469  0.1225
24062W        W66975  31.501  19.511   1.958 -0.3122 -0.3818 -0.0280
24063W        W66976  18.771  27.286   6.181 -0.1308  0.3109  0.1901
24064W        W66977  11.195  14.225   2.807 -0.1598  0.2329 -0.2917
24065W        W66978   2.967  19.210  27.048  0.0357 -0.2302  0.2326
24066W        W66979  22.524  28.647  18.658 -0.1488  0.0052  0.1426
24067W        W66980  33.705  29.479  27.916  0.1004  0.0018  0.0921
24068W        W66981  25.713  20.084  25.395  0.2985 -0.0266 -0.1915
24069W        W66982   4.139  29.140  16.273  0.0729  0.1761  0.3537
24070W        W66983  23.860  18.566  15.142 -0.2358 -0.0009 -0.2329
24071W        W66984  14.674  16.417   6.556  0.3365  0.3979  0.0993
24072W        W66985  30.279  22.495  25.903 -0.1123 -0.0468 -0.0609
24073W        W66986  29.507  15.327   1.416 -0.0587  0.1317 -0.2713
24074W        W66987   2.911   8.006   2.495  0.3017 -0.3306  0.0127
24075W        W66988  23.360  23.583  16.668  0.0041  0.0167 -0.0361
24076W        W66989  22.955  32.664  29.772  0.1970 -0.0162 -0.0762
24077W        W66990  25.267  22.490  19.500  0.1165  0.2217  0.2701
24078W        W66991  27.110  13.032   1.065  0.1585  0.2711 -0.0055
24079W        W66992  29.712  33.120  26.974  0.1765 -0.0827 -0.0640
24080W        W66993  30.395  23.110  27.903 -0.0170  0.0165  0.4922
24081W        W66994  21.709  22.016  28.719 -0.3010  0.0156  0.2877
24082W        W66995  30.004  22.965  21.130  0.1966 -0.0681 -0.2103
24083W        W66996  19.668   7.328  25.862  0.2835 -0.0155  0.1240
24084W        W66997  24.792  17.152   6.199  0.0254 -0.0024  0.1202
24085W        W66998  31.016  16.044  23.627  0.0113 -0.3913 -0.0582
24086W        W66999  22.733  20.171  23.333 -0.0842 -0.0224  0.1077
24087W        W67000  31.963  17.003  25.611 -0.2407  0.4399  0.2720
24088W        W67001  34.052  16.415  24.493  0.1290 -0.1231  0.0994
24089W        W67002  21.072  16.713  21.916 -0.0141  0.1232 -0.2159
24090W        W67003  30.264  29.144  28.891  0.3198  0.2127 -0.2459
24091W        W67004  20.486  16.150   4.305 -0.0584  0.1073 -0.3251
24092W        W67005  16.666  12.397   1.480  0.1768  0.0098 -0.1773
24093W        W67006  19.064  22.707  18.183  0.2305 -0.2936 -0.0390
24094W        W67007  32.326  28.163   2.338 -0.1645  0.2958  0.0024
24095W        W67008  28.874  13.083  29.497 -0.0283  0.1224  0.2670
24096W        W67009  19.348  18.293   1.129 -0.4151 -0.2001  0.0000
24097W        W67010  20.890  17.363  26.655 -0.3018 -0.1151 -0.0012
24098W        W67011  28.143  23.843   4.342  0.2613 -0.0984  0.3909
24099W        W67012  27.402  16.892  28.995 -0.2062  0.3746 -0.3251
24100W        W67013  30.631  11.760   3.289 -0.2052  0.2842 -0.2796
24101W        W67014  21.982  28.361   1.523  0.0898  0.1304  0.0145
24102W        W67015  21.351  18.001  25.709  0.1490 -0.3942 -0.2158
24103W        W67016  30.156  17.385  25.677 -0.1761  0.2512 -0.1974
24104W        W67017  23.074  13.694  18.737 -0.0276 -0.3916 -0.2722
24105W        W67018  23.203  14.764  18.653 -0.1021 -0.1662 -0.1833
24106W        W67019  18.403  26.137  27.392  0.1268 -0.1384  0.1339
24107W        W67020  23.392  18.241  27.023 -0.1728  0.2788  0.0224
24108W        W67021  26.652  21.564  23.933  0.1750 -0.1238 -0.2906
24109W        W67022  31.591  30.729   2.458 -0.1579 -0.3341  0.1157
24110W        W67023  29.036  27.086   0.505 -0.1679 -0.0962 -0.0852
24111W        W67024  28.272  20.949   8.541  0.0026 -0.0501  0.0697
24112W        W67025  29.055  23.369   0.935 -0.0107 -0.2059 -0.2435
24113W        W67026  21.471  27.442  22.411 -0.1235 -0.0075  0.3647
24114W        W67027  17.141  21.857   0.470  0.0035 -0.0148  0.1814
24115W        W67028  21.589  21.754  27.721 -0.1373 -0.0874 -0.1553
24116W        W67029  26.595  32.404   3.933  0.3354 -0.1718 -0.2774
24117W        W67030  21.708  18.572   7.109  0.2239  0.0999  0.1086
24118W        W67031  24.253  25.869   0.924 -0.0065 -0.0348  0.0074
24119W        W67032  17.007  11.938  26.013  0.0180  0.1454 -0.1358
24120W        W67033  27.555  24.433  24.166  0.0167 -0.2424  0.2359
24121W        W67034   1.592  17.530  19.862  0.0352  0.2968  0.0897
24122W        W67035  20.321  22.282  20.508 -0.0189 -0.0167  0.0741
24123W        W67036  25.361  27.891  28.109  0.4341  0.1379  0.2397
24124W        W67037  13.238   6.065  25.117 -0.1348  0.0145 -0.1037
24125W        W67038  26.768  23.268  21.223 -0.0131 -0.2553  0.0478
24126W        W67039   7.083  16.435  25.013 -0.1750  0.1270 -0.2579
24127W        W67040  24.833  15.272  22.800  0.1732  0.2085  0.4490
24128W        W67041  24.560  28.833  23.246  0.0239  0.1150  0.2114
24129W        W67042  27.166  15.417   1.685  0.1176  0.1489  0.1595
24130W        W67043  18.854  27.987  27.751 -0.0718  0.1547  0.0426
24131W        W67044  19.523  25.179  27.300 -0.0472 -0.0219  0.0218
24132W        W67045  31.716  22.096   0.361  0.0222 -0.0034 -0.0853
24133W        W67046  15.199  10.034   2.404  0.0839  0.0078  0.2026
24134W        W67047  20.591  25.150  24.413  0.3241  0.1509 -0.2157
24135W        W67048  20.719  27.813   3.078 -0.4148 -0.1834  0.0259
24136W        W67049  32.015  23.187   3.454 -0.2886  0.0149  0.0704
24137W        W67050  22.369  24.205  15.644  0.0413 -0.0498 -0.1433
24138W        W67051  32.878  19.703   3.409 -0.1407 -0.1788  0.0800
24139W        W67052  33.847  23.722   2.875 -0.1586  0.0893 -0.0754
24140W        W67053   1.180  12.480   6.485 -0.2173  0.3195  0.1523
24141W        W67054  30.240  31.895  25.900  0.3339 -0.0429 -0.0616
24142W        W67055  32.888  13.857  20.840 -0.2663  0.2210 -0.0693
24143W        W67056  24.940  24.659   1.163 -0.2326 -0.1144 -0.3796
24144W        W67057  21.345  12.986  21.925 -0.0586  0.3148  0.2331
24145W        W67058  34.259  26.439   3.911 -0.0659 -0.3141 -0.1876
24146W        W67059  26.817  15.758  26.987 -0.1140  0.1731  0.1027
24147W        W67060  29.606  25.313  19.152 -0.1616  0.0213  0.1050
24148W        W67061  30.395  24.383  23.135 -0.0373 -0.0875 -0.0061
24149W        W67062  17.738  17.149   2.994  0.2063 -0.2226  0.0628
24150W        W67063  30.111  15.789  20.764  0.2192  0.0883 -0.1480
24151W        W67064  28.091  21.151  29.577  0.0232 -0.0747  0.0762
24152W        W67065   6.222  27.768   1.058 -0.2605 -0.1973  0.2106
24153W        W67066   5.038  20.142  24.525  0.0324 -0.0406  0.0168
24154W        W67067  32.428  19.284   2.423  0.2986 -0.0211  0.3178
24155W        W67068  28.190  22.834  20.328 -0.0830  0.2189 -0.1265
24156W        W67069  14.687  21.167  25.837  0.1351  0.0091 -0.0122
24157W        W67070  25.738  23.539  25.230  0.2999 -0.3493  0.0943
24158W        W67071  16.462  20.319  15.722 -0.1586  0.0067  0.1983
24159W        W67072   6.449  10.769  29.748 -0.1547  0.0641 -0.0347
24160W        W67073  27.242  21.075  21.617 -0.1732  0.2385  0.1048
24161W        W67074  29.528  16.958  20.620 -0.2951 -0.3088 -0.1499
24162W        W67075  22.671  12.227  26.355  0.3906 -0.1910  0.2406
24163W        W67076   8.105  27.241  23.983  0.1925  0.1112  0.3901
24164W        W67077  20.388  18.436  29.310  0.4419 -0.1251  0.0646
24165W        W67078  28.537  25.691  20.404 -0.1610 -0.0838 -0.0510
24166W        W67079  16.122  13.965   1.526 -0.0405 -0.1494  0.0068
24167W        W67080  16.758   0.572   3.917  0.3613 -0.1379 -0.1114
24168W        W67081  24.251  17.341  22.739  0.1754  0.1676  0.1599
24169W        W67082  17.922  30.674  26.441 -0.0878  0.0555 -0.0382
24170W        W67083  31.326  21.895  18.258 -0.0031 -0.3671 -0.2102
24171W        W67084  21.060   0.453   4.463 -0.0811 -0.4107  0.1558
24172W        W67085  20.584  30.887  26.099 -0.3845 -0.0398  0.4058
24173W        W67086  31.333  12.639  22.423  0.0356 -0.2060 -0.1492
24174W        W67087  20.113  19.499  19.738 -0.2750  0.1187 -0.0096
24175W        W67088  22.891  28.708   7.600  0.0399  0.0557 -0.2489
24176W        W67089  24.696  25.768   8.202  0.1884  0.0179  0.0667
24177W        W67090  26.590  29.803  18.644  0.1623  0.0955 -0.1028
24178W        W67091  26.432  23.134  28.408  0.1667  0.0847  0.0099
24179W        W67092  11.970  12.317  17.512  0.1160  0.0409  0.0067
24180W        W67093  25.319  25.158   0.737 -0.2874 -0.2865 -0.3076
24181W        W67094  32.159   9.177  28.670 -0.0465  0.0098  0.3915
24182W        W67095  28.861  22.426   6.408  0.0543  0.3516  0.0521
24183W        W67096  27.918  32.797   4.547 -0.0157 -0.4656 -0.1715
24184W        W67097  23.404  20.832   8.999 -0.3151 -0.1740  0.1185
24185W        W67098  17.908  20.983   5.286  0.1073 -0.1342  0.0646
24186W        W67099   3.459  15.746  25.733  0.2555  0.0222 -0.2696
24187W        W67100   1.863  27.595  27.638 -0.3050  0.0527  0.1471
24188W        W67101  21.199  22.153  25.184 -0.2410  0.0436 -0.2375
24189W        W67102  24.774   9.708  26.749 -0.1921  0.0103  0.0499
24190W        W67103  27.743  17.394  15.302 -0.2939  0.0453  0.3153
24191W        W67104  27.859  17.392  17.718 -0.0414  0.1006 -0.0914
24192W        W67105  20.847  23.151  19.568 -0.1629 -0.1211 -0.1524
24193W        W67106  21.564  28.655   1.900  0.0292  0.0246  0.1066
24194W        W67107  17.665  28.579   5.391 -0.0132  0.1240 -0.3245
24195W        W67108  18.953   9.135  27.142  0.2063 -0.0411  0.3195
24196W        W67109  19.117  31.452   3.279 -0.2308 -0.1737 -0.1956
24197W        W67110  20.456  19.074  26.740 -0.4477 -0.2921 -0.1510
24198W        W67111  23.000  15.181  20.164 -0.0153 -0.2544  0.3628
24199W        W67112  32.081  22.948   0.685  0.0194  0.1454 -0.1045
24200W        W67113  33.771  24.068   6.026  0.0054  0.2466 -0.2492
24201W        W67114  33.757  18.599   4.039 -0.0542  0.0826 -0.0869
24202W        W67115  17.813  10.275  22.470  0.0107  0.2917 -0.1398
24203W        W67116  24.675  11.406   7.700 -0.0647  0.2071 -0.1608
24204W        W67117   3.826  16.663  27.194 -0.1370  0.1538 -0.3134
24205W        W67118  25.480  22.672  27.436  0.0932 -0.2926 -0.0627
24206W        W67119  24.938  26.086   1.759 -0.2400 -0.1117  0.1043
24207W        W67120  24.756  12.870  25.458 -0.0916 -0.1579  0.1763
24208W        W67121  22.345  19.964  29.440  0.0617  0.0429 -0.0804
24209W        W67122  28.285  24.201  15.801 -0.0632 -0.3142 -0.3521
24210W        W67123   3.556  20.702   1.181 -0.3248 -0.1301  0.0718
24211W        W67124  32.730  27.015  27.535  0.0550  0.0434 -0.0653
24212W        W67125  24.124  21.689  13.154  0.0917 -0.3078 -0.1646
24213W        W67126  22.489  18.918  22.526  0.0910 -0.0475  0.0682
24214W        W67127  22.031  23.321  23.731  0.2796 -0.2153  0.2437
24215W        W67128  18.077  11.257  22.618 -0.0470 -0.0284 -0.1525
24216W        W67129  29.859  29.729   2.007  0.1208 -0.1084 -0.0658
24217W        W67130  34.465  16.698  16.677 -0.1290 -0.2542  0.0098
24218W        W67131   1.981  22.247   4.672 -0.2477 -0.0161 -0.0440
24219W        W67132  24.302  25.293  24.519 -0.1602 -0.0278 -0.0909
24220W        W67133  30.749  22.627  24.920 -0.0559 -0.4476 -0.0291
24221W        W67134  26.498  19.296  24.866 -0.0039 -0.0021  0.0334
24222W        W67135  21.895  16.862  27.192  0.0649  0.1673  0.1715
24223W        W67136  25.181  23.598   0.908  0.1827 -0.2055 -0.2078
24224W        W67137  26.496  19.674  25.535  0.0661  0.1457 -0.0090
24225W        W67138  15.158  13.991  15.843  0.2921 -0.1189 -0.0010
24226W        W67139  32.555  21.562   9.630 -0.0467  0.1607  0.2155
24227W        W67140  18.367  25.803  17.976  0.1517 -0.1646  0.3111
24228W        W67141  11.695  20.767  23.452 -0.1617 -0.0270  0.2004
24229W        W67142  26.190  19.290  27.243 -0.1009 -0.0617  0.0252
24230W        W67143  13.266  23.765  29.723  0.0180  0.2647  0.1215
24231W        W67144  16.378  24.296  23.647  0.0996  0.0195 -0.0936
24232W        W67145  23.496  19.205  26.530 -0.2719  0.1514  0.0323
24233W        W67146  27.162  15.684  22.143 -0.1949 -0.1290 -0.4500
24234W        W67147  27.697  26.303  24.411 -0.0732 -0.1851 -0.1526
24235W        W67148  27.370  23.514  27.957 -0.3420 -0.2531  0.2341
24236W        W67149  21.797  28.422  20.045 -0.5126  0.0447 -0.0794
24237W        W67150  23.889   4.154  27.486 -0.2843  0.0697  0.1983
24238W        W67151  34.447  23.229   6.157  0.0317  0.0895  0.0939
24239W        W67152  20.813  33.096   3.901 -0.3748  0.3235 -0.0485
24240W        W67153  22.828  24.741  16.331 -0.0027  0.2139  0.2668
24241W        W67154  21.521  17.062   0.407 -0.0939 -0.0613  0.2017
24242W        W67155  33.722  27.478  28.959  0.0344  0.1062  0.2598
24243W        W67156  26.968  17.074  17.239 -0.1723  0.1475  0.1269
24244W        W67157  22.324  29.273   3.598 -0.2810 -0.3083 -0.2194
24245W        W67158  24.623  16.930   3.238 -0.1136  0.0678  0.0977
24246W        W67159  21.203  21.669   2.483 -0.3341 -0.1093  0.0501
24247W        W67160  27.873  17.358  24.104 -0.0331 -0.6402 -0.2360
24248W        W67161   0.763  17.301  25.031  0.1022 -0.0670 -0.2611
24249W        W67162  19.982  20.479  13.930 -0.0043  0.2877  0.0221
24250W        W67163  19.049  11.450   2.621  0.0552  0.1805  0.3059
24251W        W67164  30.692  11.179  27.391 -0.1141  0.0564 -0.0047
24252W        W67165   2.985  17.841   1.361  0.1600 -0.2369 -0.1283
24253W        W67166  14.287  22.397  22.229  0.1742  0.0166 -0.0123
24254W        W67167  23.304  24.393  29.303  0.0961 -0.1701  0.2522
24255W        W67168  21.998  21.452  21.467 -0.0376 -0.2239  0.4735
24256W        W67169  17.116  14.333   3.979  0.4178 -0.1586 -0.0383
24257W        W67170  13.849  13.459  22.638  0.2462  0.4406  0.0011
24258W        W67171  19.885  19.972   0.118  0.0894  0.0825 -0.0608
24259W        W67172  33.447  23.884  25.794  0.0514 -0.0655  0.2972
24260W        W67173   2.687  20.212   2.131  0.2376 -0.5158 -0.0533
24261W        W67174  22.447  23.579  21.972  0.0228 -0.2149 -0.0151
24262W        W67175   1.522  14.501   5.170  0.0380  0.4994  0.1401
24263W        W67176  30.534  32.978   9.174 -0.0303  0.0521  0.0547
24264W        W67177  17.805  25.305  27.588 -0.1400 -0.1082 -0.3136
24265W        W67178   0.616  17.087   0.402  0.2453  0.0906 -0.2389
24266W        W67179  32.990  29.219  28.491  0.3193 -0.1557  0.5060
24267W        W67180  19.024  17.255   5.897 -0.1512  0.1221 -0.1893
24268W        W67181  25.669  22.298  12.980 -0.2384 -0.1773  0.0158
24269W        W67182   4.970  13.974   6.091  0.1764 -0.0072 -0.2983
24270W        W67183  29.728  23.337  22.394  0.0523  0.2452 -0.0738
24271W        W67184   4.257  18.371  27.915 -0.0301  0.2521  0.2498
24272W        W67185  19.212  13.209  25.280 -0.1511 -0.2047 -0.0945
24273W        W67186   3.059  19.878   3.910  0.1239 -0.1141 -0.1086
24274W        W67187   1.304  18.406   5.221 -0.1998  0.1500 -0.0552
24275W        W67188   4.688  19.145   4.355 -0.3486 -0.1394 -0.0216
24276W        W67189   2.294  22.716  23.052  0.0329  0.0625 -0.0060
24277W        W67190   0.296  23.053  24.578  0.0154  0.1245  0.0415
24278W        W67191  28.524  18.105   3.918 -0.1789 -0.3235 -0.0181
24279W        W67192  32.293  34.259  10.301  0.0240 -0.1451  0.1605
24280W        W67193  32.238  18.584  21.580  0.0200 -0.0825 -0.1175
24281W        W67194  20.276  19.500  22.469 -0.0529  0.0568  0.1247
24282W        W67195  26.898  18.656   0.813 -0.1310  0.0054 -0.1119
24283W        W67196  26.341  17.206  22.219 -0.3959 -0.2526  0.0602
24284W        W67197  25.648  15.704  21.370  0.1064 -0.3127  0.0904
24285W        W67198  21.740   4.612  26.149  0.1791  0.1576  0.1765
24286W        W67199  28.648  16.887   0.975  0.0967  0.1513 -0.1968
24287W        W67200  27.303  19.327   1.244 -0.0683 -0.1760  0.2976
24288W        W67201  30.949  22.845  26.644  0.1494  0.1222 -0.1492
24289W        W67202  17.763   6.026   0.177 -0.1040  0.0327  0.1649
24290W        W67203  23.682  23.372  29.513  0.0855  0.0067 -0.0200
24291W        W67204  31.471  15.637  28.852  0.1070 -0.0034 -0.0319
24292W        W67205  19.805  17.231   6.016 -0.0829 -0.2064 -0.0319
24293W        W67206  24.916  15.863   0.303  0.2518  0.0703 -0.0208
24294W        W67207  28.594  19.062   5.582 -0.1247  0.1397  0.1289
24295W        W67208  31.339  13.877   4.459 -0.0281 -0.0723  0.1222
24296W        W67209  22.850  14.157  27.485 -0.1527 -0.3708 -0.3531
24297W        W67210  28.349  13.716  28.914  0.0947 -0.0929  0.1741
24298W        W67211  32.777  14.737   9.459  0.0915 -0.0668 -0.0933
24299W        W67212  30.607  24.393  25.051 -0.1250 -0.1158  0.1316
24300W        W67213  22.848  10.947  26.595  0.1870 -0.2323 -0.0861
24301W        W67214  23.950  26.725   0.104  0.1058  0.1602 -0.0081
24302W        W67215  29.198  15.086   0.104 -0.4563  0.2203  0.3537
24303W        W67216  30.753  13.984   5.134 -0.1512  0.2295  0.0319
24304W        W67217  29.569  11.632  24.296 -0.2640  0.1435  0.1453
24305W        W67218  28.995  27.280   3.025 -0.0104  0.1349 -0.0389
24306W        W67219  26.448  19.291  22.907  0.2798  0.1304  0.3495
24307W        W67220  18.063  20.497   1.618 -0.4875 -0.0479  0.3180
24308W        W67221  30.102  10.542  26.299 -0.3192 -0.2812  0.0157
24309W        W67222  14.237  13.697  26.602 -0.1692  0.0170 -0.1157
24310W        W67223  24.197   5.379   3.348 -0.0511  0.0275  0.2061
24311W        W67224  22.013  21.908  29.692 -0.0327 -0.0501  0.0599
24312W        W67225  24.828  26.670  25.366 -0.1349 -0.1959  0.0731
24313W        W67226   2.710  11.608   1.683 -0.0153  0.1049  0.0062
24314W        W67227  15.660  23.685  22.658 -0.1551 -0.3460  0.0996
24315W        W67228  32.321  21.670   2.953  0.2140  0.0352 -0.3765
24316W        W67229  32.455   1.994   0.548 -0.0573 -0.0022 -0.0119
24317W        W67230  20.512  24.273   3.252 -0.2208 -0.0809 -0.0669
24318W        W67231  32.510  13.427  27.769  0.1854  0.2856 -0.2555
24319W        W67232   2.605  21.593   0.130  0.1656 -0.0828 -0.2863
24320W        W67233  26.216  24.421  25.743  0.0075 -0.0240  0.0232
24321W        W67234  14.766   7.871  25.993  0.3258  0.1640 -0.0933
24322W        W67235  27.753  19.954  14.445  0.0453 -0.0008  0.0262
24323W        W67236  22.410  22.214  21.099 -0.3650 -0.0721  0.1783
24324W        W67237  22.174  25.045   3.120  0.3970 -0.3867 -0.2488
24325W        W67238  30.042  25.111  26.039 -0.0571  0.3576 -0.0388
24326W        W67239  31.997  21.478   0.704 -0.0849  0.1090  0.3146
24327W        W67240  22.570  24.725  25.517  0.4270 -0.3132 -0.2769
24328W        W67241  11.432   7.251  27.326  0.2928 -0.0842 -0.0412
24329W        W67242  21.512  19.979   1.902 -0.1353 -0.0275 -0.1546
24330W        W67243  28.038  20.559   2.288  0.1623 -0.0765  0.0386
24331W        W67244  10.480  11.347  23.428 -0.1505 -0.1441 -0.1303
24332W        W67245   1.826   8.459   3.304  0.3023  0.1151  0.0101
24333W        W67246  18.393  11.569   4.496 -0.1390  0.0052  0.1199
24334W        W67247  22.242  17.539   3.042 -0.0847 -0.0816 -0.1036
24335W        W67248  29.778  26.137   0.349  0.0910 -0.0518 -0.2918
24336W        W67249  27.203  26.393  22.959 -0.1795  0.0290  0.0575
24337W        W67250  32.524  17.730   1.979  0.2223  0.0130  0.2251
24338W        W67251  26.551  24.310  19.922 -0.0576 -0.2543 -0.0101
24339W        W67252  13.640   8.556  29.495  0.0633  0.1981 -0.3297
24340W        W67253  24.029  19.989   4.223  0.0761  0.0477  0.3330
24341W        W67254  23.510  21.914   0.092 -0.0559 -0.5223  0.1767
24342W        W67255  28.434  26.064  22.302 -0.2594 -0.3737  0.1607
24343W        W67256  23.493  22.691   0.260 -0.4032 -0.2965 -0.2816
24344W        W67257  14.866  26.255   7.654 -0.0579  0.1379  0.2881
24345W        W67258  20.861  15.715  27.108 -0.1168  0.1863 -0.1984
24346W        W67259  26.709  14.785   7.877  0.3794 -0.1772 -0.3434
24347W        W67260  30.552  25.636   3.431 -0.3038 -0.0926 -0.0522
24348W        W67261  20.374  27.043  14.250 -0.2892  0.0874 -0.0481
24349W        W67262  21.778  29.549  23.633  0.0410  0.2527  0.1826
24350W        W67263  25.478  23.863   1.507  0.1644  0.0018  0.0377
24351W        W67264  20.414  11.604  27.165  0.1166  0.0616  0.0177
24352W        W67265  19.932  22.331  29.194 -0.1489  0.0033 -0.0365
24353W        W67266  32.328  26.895  19.349 -0.1279  0.0238 -0.0098
24354W        W67267  30.528  21.933  13.384  0.0478 -0.2822  0.1053
24355W        W67268  30.521  19.907  13.047 -0.0541  0.1004  0.3130
24356W        W67269  18.888  21.355  13.147 -0.0954  0.2163  0.1976
24357W        W67270  20.216  23.749  15.729 -0.1127 -0.4074 -0.0071
24358W        W67271  31.725  22.748  14.074  0.0712 -0.0168  0.0718
24359W        W67272  19.069   8.893  14.866  0.3225  0.0326  0.2263
24360W        W67273  21.367  16.427  15.342  0.0173  0.1207 -0.1082
24361W        W67274  27.042  30.181  14.940  0.0762 -0.1156 -0.3093
24362W        W67275  23.471  17.096  20.934  0.2792  0.0636  0.1061
24363W        W67276  26.488  23.697  13.076  0.0958 -0.1934 -0.1948
24364W        W67277  18.805  28.868  22.643  0.1806 -0.4837 -0.0656
24365W        W67278  24.033  19.042  24.679  0.1805 -0.1259 -0.0214
24366W        W67279  24.128  23.771  21.773 -0.2008  0.0238 -0.0803
24367W        W67280  26.409  19.158  16.796  0.2711 -0.4372 -0.0883
24368W        W67281  30.220  28.197  18.094 -0.1824  0.1393 -0.0119
24369W        W67282   2.853  14.276  23.149  0.1551 -0.0295  0.3647
24370W        W67283  31.185  24.129  16.102  0.1370 -0.1031  0.0714
24371W        W67284  17.428  29.253  17.002  0.2824  0.2702  0.0141
24372W        W67285  27.501  25.208  18.486  0.2709  0.1881  0.1733
24373W        W67286  23.904  21.035  18.601 -0.2815 -0.3361 -0.1978
24374W        W67287  28.908  21.106  24.907 -0.3158  0.2251  0.1214
24375W        W67288  30.930  26.810  23.971 -0.0002  0.2244  0.0382
24376W        W67289  27.853  23.995  17.906  0.4049  0.1126  0.0161
24377W        W67290   0.157  10.443  21.859  0.2365  0.0196  0.1210
24378W        W67291  25.209  24.990  21.915 -0.2595 -0.0311 -0.2029
24379W        W67292  30.691  25.045  16.442  0.2003 -0.0695 -0.2394
24380W        W67293  31.664  30.996  19.231 -0.1213  0.0531 -0.1037
24381W        W67294  23.979  25.753  16.219  0.3570  0.1122  0.1046
24382W        W67295  33.135  17.809  21.987  0.2621 -0.2238  0.0936
24383W        W67296  29.347  21.573  23.513 -0.0196 -0.3206 -0.3758
24384W        W67297  32.776  23.206  17.934 -0.0730 -0.1438  0.2355
24385W        W67298  32.832  20.727  14.255 -0.2457  0.4046  0.1994
24386W        W67299  30.436  20.068  18.614 -0.3212 -0.0492 -0.0442
24387W        W67300  23.909  33.816  16.227 -0.0978 -0.0378  0.3151
24388W        W67301  21.436  26.258  17.116  0.0260 -0.4100 -0.1930
24389W        W67302  23.958  26.527  15.763 -0.0840  0.1395 -0.3552
24390W        W67303  20.553   3.523  20.352 -0.3075 -0.3050  0.2011
24391W        W67304  20.008  27.878  17.686  0.0635  0.1875  0.2872
24392W        W67305  26.810  19.392  16.998 -0.2514  0.2605  0.1703
24393W        W67306  28.861  23.804  19.422 -0.1087  0.1822 -0.2826
24394W        W67307   4.185  26.611  15.812 -0.2652  0.2516  0.0800
24395W        W67308  23.715  23.409  12.943  0.2750 -0.2080 -0.0324
24396W        W67309  28.686  31.432  19.086 -0.1139 -0.0372  0.1224
24397W        W67310  12.668  26.139  16.497 -0.2143 -0.0061  0.0332
24398W        W67311  31.644  17.236   5.296 -0.0530 -0.0035 -0.2201
24399W        W67312  32.929  32.167  19.687  0.3586 -0.0148 -0.4776
24400W        W67313  28.032  20.683  13.891 -0.1943 -0.1416  0.0880
24401W        W67314  28.248  24.090  19.522  0.0182 -0.1894 -0.0724
24402W        W67315  34.462  27.204  15.881  0.1578 -0.0434  0.0644
24403W        W67316  30.835  21.779  16.822 -0.2459 -0.2365  0.2877
24404W        W67317  31.755  25.223  20.201  0.1971  0.0288  0.1645
24405W        W67318  23.669  16.020  16.350 -0.1203  0.0833 -0.0538
24406W        W67319  19.393  18.453  13.577 -0.0265  0.0177  0.0588
24407W        W67320  28.076  23.541  13.917 -0.3389  0.2130 -0.2172
24408W        W67321  24.598  28.132  14.091  0.1106 -0.0312  0.1784
24409W        W67322  25.545  31.986  17.313  0.2059 -0.2542  0.0438
24410W        W67323  17.020  20.885  12.749 -0.0685 -0.4096 -0.0669
24411W        W67324  29.572  27.339  15.918  0.2612  0.2056 -0.0143
24412W        W67325   1.592  19.899  20.081  0.0908 -0.0049 -0.2667
24413W        W67326  20.994  23.690  19.511  0.1252 -0.4445 -0.0618
24414W        W67327  32.915  20.351  14.698 -0.0719  0.0152  0.1108
24415W        W67328  30.493   9.054  16.581  0.0039  0.4535 -0.1276
24416W        W67329  29.106  26.863  18.449 -0.0308  0.1096 -0.1431
24417W        W67330  33.093  25.667  23.316  0.0717 -0.2521 -0.1073
24418W        W67331  33.549  24.838  17.837 -0.1047  0.0954 -0.3722
24419W        W67332  21.382  17.348  15.397  0.0302  0.3228  0.0351
24420W        W67333  32.701  21.319  14.409 -0.0340  0.0718  0.3219
24421W        W67334  29.564  19.751  20.316  0.0501 -0.1238  0.0228
24422W        W67335  29.803  25.979  16.830 -0.1236  0.0983  0.0322
24423W        W67336  32.946  30.227  15.510  0.1992  0.1255 -0.1946
24424W        W67337  31.087  27.455  20.049  0.0488 -0.1578  0.3217
24425W        W67338  22.590  21.821  18.346  0.0588 -0.2386 -0.0138
24426W        W67339  27.216  24.923  23.410  0.0913 -0.1290  0.2472
24427W        W67340  33.420  26.249  18.076  0.0730  0.2896  0.0009
24428W        W67341  30.346  28.765  17.945  0.1061 -0.1123  0.1425
24429W        W67342  33.391   2.301  18.201 -0.1958  0.0103 -0.1945
24430W        W67343  32.531  28.063  23.945  0.2213  0.2541 -0.2020
24431W        W67344  31.645  20.172  19.404  0.1252  0.0536  0.0562
24432W        W67345  31.423  29.766  17.598 -0.1197 -0.0852 -0.1509
24433W        W67346  17.980  27.889  24.676  0.0664 -0.1833  0.2392
24434W        W67347  26.333  28.414  19.982 -0.0831  0.0860 -0.0067
24435W        W67348  29.416  34.148  16.849  0.2062 -0.0547  0.0760
24436W        W67349  22.489  11.060  16.708  0.0123  0.0836 -0.0491
24437W        W67350  33.565  20.092  13.996  0.1076  0.0669  0.0870
24438W        W67351  24.218  19.846  15.585 -0.1637 -0.2667 -0.1061
24439W        W67352  31.512  17.637  14.006 -0.0869 -0.0784 -0.2321
24440W        W67353  21.068  28.350  21.247 -0.0496  0.0944 -0.2865
24441W        W67354  29.356  21.631  15.322  0.3179  0.0518  0.1875
24442W        W67355  32.237  31.532  19.053 -0.1146 -0.0609 -0.2166
24443W        W67356  26.717  21.854  13.702  0.2558 -0.2209  0.0371
24444W        W67357  29.936  27.942  13.631  0.0236 -0.1517  0.0427
24445W        W67358  22.650  33.774  16.723  0.1067 -0.0753 -0.4275
24446W        W67359  29.928  32.647  15.188  0.1593 -0.0214 -0.0154
24447W        W67360  20.591  17.623  23.972  0.0256  0.0953 -0.0656
24448W        W67361  22.114  13.563  21.939  0.0068 -0.1788 -0.1192
24449W        W67362  31.757  25.218  15.912 -0.0219  0.1337 -0.0239
24450W        W67363  23.696  16.707  29.754  0.3537 -0.2962  0.0517
24451W        W67364  20.695  12.303  21.033 -0.0041 -0.2197 -0.1126
24452W        W67365  14.890  25.338  16.881 -0.0811 -0.3605  0.0016
24453W        W67366  23.798  25.946  14.040  0.0187  0.1067 -0.0211
24454W        W67367  22.684  19.723  23.585 -0.2134 -0.2001 -0.0749
24455W        W67368  32.590  24.820  15.717  0.0020 -0.2022 -0.1249
24456W        W67369  33.904   7.021  25.653  0.1075  0.0777 -0.2268
24457W        W67370  30.455  26.269  25.051  0.1529 -0.0432  0.0499
24458W        W67371  23.845  18.609  22.802  0.0505  0.0698  0.0551
24459W        W67372  30.066  23.215  17.097 -0.1411  0.3157  0.1314
24460W        W67373  21.022  27.144  28.038 -0.2222 -0.3898 -0.0228
24461W        W67374  31.756  23.481  16.084  0.0407  0.0199  0.1122
24462W        W67375  27.273  26.206  23.944  0.2295 -0.1318 -0.0511
24463W        W67376  30.071  17.099  13.913  0.1659 -0.4327 -0.0391
24464W        W67377  29.228  28.470  13.169 -0.0659  0.1171 -0.1408
24465W        W67378  23.964  28.337  17.576 -0.1292  0.1239 -0.2824
24466W        W67379  29.072  14.644  16.606  0.2857  0.2702 -0.2091
24467W        W67380  28.099  20.072  21.881 -0.2656  0.1048 -0.0380
24468W        W67381  13.483  24.828  20.285  0.0841  0.2199  0.0452
24469W        W67382  20.907  26.687  12.899 -0.0249 -0.1396 -0.4136
24470W        W67383  26.318  23.876  17.655  0.2960 -0.0928 -0.0750
24471W        W67384  22.862  28.090  24.776  0.1708 -0.1646  0.0189
24472W        W67385  28.062  20.720  12.997 -0.1026  0.0296 -0.1283
24473W        W67386  29.954  20.409  17.709 -0.0105 -0.2620  0.0542
24474W        W67387  31.374   9.373  18.480  0.1419  0.1513 -0.2035
24475W        W67388  14.174  17.961  15.125  0.0669  0.1281 -0.0743
24476W        W67389  20.008  15.704  12.606  0.0815  0.2808  0.0668
24477W        W67390  25.256  19.351  13.785 -0.0694 -0.0794 -0.0127
24478W        W67391  24.763  28.530  16.138  0.3408 -0.0894  0.1041
24479W        W67392  23.093  11.303  20.677 -0.0624 -0.0053  0.2628
24480W        W67393  21.990  23.762  21.322  0.4675 -0.2254  0.1031
24481W        W67394   0.845  24.629  23.492  0.0790  0.0429  0.1101
24482W        W67395  29.303  33.086  15.546  0.0471 -0.1702 -0.1950
24483W        W67396  27.004  22.510  25.856 -0.0401  0.1020  0.1966
24484W        W67397  32.609  14.264  16.109  0.2878 -0.2548  0.0049
24485W        W67398  13.274  29.510  18.431 -0.0877 -0.2478  0.3269
24486W        W67399  23.053  22.500  17.480  0.0007  0.0310  0.0241
24487W        W67400  32.080  17.717   0.030 -0.3129  0.2553 -0.1946
24488W        W67401   1.957  28.113  15.158 -0.0265  0.0693  0.2910
24489W        W67402  28.532  17.195  25.048  0.0984 -0.2791 -0.2321
24490W        W67403  25.450  30.956  23.058  0.0250  0.0603  0.2216
24491W        W67404  19.126  31.361  15.854 -0.2043  0.1628 -0.0134
24492W        W67405   0.573  22.088  15.269  0.0070 -0.0841 -0.0668
24493W        W67406  24.498  22.200  15.899  0.0993  0.0607 -0.4410
24494W        W67407  25.591  26.200  21.028 -0.2316  0.0020  0.0543
24495W        W67408  19.230   4.028   0.711  0.1642  0.0390  0.2315
24496W        W67409  15.028  33.392  24.989  0.3042  0.0246 -0.1471
24497W        W67410  26.164  17.380  20.026 -0.0326  0.3572 -0.1373
24498W        W67411  34.456  29.190  21.057  0.0823 -0.1390  0.1035
24499W        W67412   2.218  20.443  20.794 -0.0726 -0.0142 -0.1648
24500W        W67413  15.467  25.785  18.612  0.3078 -0.0262 -0.2622
24501W        W67414  23.647  23.565  14.883  0.0483  0.0781  0.0144
24502W        W67415  27.549  20.734  13.815  0.0622 -0.1426 -0.2965
24503W        W67416  29.591  17.030  16.786  0.0701 -0.1967  0.1515
24504W        W67417  25.437  24.741  19.122 -0.0930  0.0337  0.0696
24505W        W67418  28.293  16.309  17.591  0.3255  0.1465 -0.1673
24506W        W67419  31.276  16.060  16.614  0.1317  0.1189 -0.1142
24507W        W67420  24.755  26.302  14.141  0.2204  0.0229  0.2439
24508W        W67421  18.937   5.322  29.622 -0.1285 -0.0765  0.1648
24509W        W67422  21.051  26.140  12.956 -0.0729 -0.0764  0.0494
24510W        W67423  25.594  30.602  23.492 -0.1293  0.2929  0.1267
24511W        W67424  26.098  24.078  16.453  0.0121  0.4863 -0.1557
24512W        W67425  27.007  27.424  14.515  0.4446 -0.0665  0.1398
24513W        W67426  20.089  28.988  14.281 -0.0709  0.1186  0.2937
24514W        W67427  26.360  33.931  19.616  0.0141 -0.2564  0.0731
24515W        W67428  30.671   1.031  16.747 -0.0749  0.0913 -0.1077
24516W        W67429   4.516  20.266  20.153 -0.0109  0.0995 -0.1591
24517W        W67430  29.436  17.873  18.326  0.2326  0.1285 -0.1967
24518W        W67431  27.747  26.630  16.444 -0.1374 -0.0164  0.0323
24519W        W67432  20.889  23.509  17.187 -0.1346 -0.3216 -0.1648
24520W        W67433  30.912  26.401  15.957 -0.0671  0.1152  0.1143
24521W        W67434  30.397  24.431  17.360 -0.2398  0.2273  0.0231
24522W        W67435  28.710  28.314  14.320 -0.3974  0.0636  0.2460
24523W        W67436  25.941  25.865  26.714  0.1605  0.0966 -0.1374
24524W        W67437  20.366  20.658  13.093 -0.2081 -0.0637 -0.1942
24525W        W67438  19.477  32.301  22.253  0.0109 -0.1323  0.1256
24526W        W67439  24.839  23.978  13.251  0.3232  0.0475  0.1852
24527W        W67440  25.190  25.743  16.939  0.3028  0.0303 -0.0907
24528W        W67441  24.545  23.087  16.192  0.1288  0.0161  0.1914
24529W        W67442  23.544  24.783  18.590 -0.2928 -0.1257  0.2256
24530W        W67443  15.068  14.439  18.827 -0.0973 -0.3286 -0.1017
24531W        W67444  28.580  30.400  18.600 -0.0026 -0.1328 -0.0229
24532W        W67445   0.458  28.086  20.481 -0.0568 -0.2032  0.0156
24533W        W67446  30.575  27.840  13.240 -0.1347 -0.0165 -0.2008
24534W        W67447  24.921  33.386  22.074  0.2203 -0.0340  0.0556
24535W        W67448  18.573  22.812  17.437 -0.0476  0.3031 -0.2463
24536W        W67449  27.412  23.384  19.734  0.1610 -0.1028 -0.1870
24537W        W67450  30.083  25.586  27.829 -0.1333  0.0245  0.1636
24538W        W67451  23.094  30.741  17.435 -0.1236  0.1788 -0.2085
24539W        W67452  24.219  13.609  15.342 -0.0004 -0.0514  0.0835
24540W        W67453  33.899  19.179  15.689  0.2581  0.1507  0.1062
24541W        W67454  18.379  25.843  21.282 -0.1395  0.0295 -0.0867
24542W        W67455   0.962  27.606  19.174  0.3548 -0.0969 -0.0006
24543W        W67456  29.894  26.460   3.289 -0.0172  0.0824  0.3712
24544W        W67457  27.556  27.081  21.948 -0.2103 -0.2597 -0.1386
24545W        W67458  21.697  18.212  15.631  0.0055  0.0306  0.0886
24546W        W67459  32.222  16.077  14.820 -0.0012  0.0146 -0.1291
24547W        W67460  33.542  29.543  21.237 -0.0258 -0.3561 -0.0942
24548W        W67461  32.172  23.586  18.149 -0.0038 -0.1841 -0.2054
24549W        W67462  21.452  29.869  14.474 -0.0368 -0.1834 -0.0620
24550W        W67463  24.128  28.434  18.719  0.0739  0.2553  0.1120
24551W        W67464  26.714  16.067  19.784  0.1392 -0.0063  0.0198
24552W        W67465  25.399  26.734  17.094 -0.1431  0.0572 -0.0317
24553W        W67466  22.592  24.585  15.341 -0.2742  0.4567  0.1306
24554W        W67467  25.523   6.118  16.924  0.3266  0.0488  0.0906
24555W        W67468  32.287  16.195  18.151 -0.1626 -0.0603  0.1708
24556W        W67469  26.286  17.208  13.876  0.0498 -0.0259 -0.0825
24557W        W67470  31.233  24.323  15.551 -0.0602  0.0946 -0.2007
24558W        W67471  25.166  22.950  16.629 -0.0131 -0.1300  0.0939
24559W        W67472  21.820  30.314  16.910  0.0075 -0.1188 -0.1069
24560W        W67473  24.911  29.063  16.036 -0.0581 -0.2501 -0.0747
24561W        W67474  28.888  33.098  17.634  0.0458  0.0206  0.1413
24562W        W67475  22.768  15.771  12.965  0.1352  0.0910 -0.0074
24563W        W67476  27.246  25.525  19.861 -0.1101 -0.0680 -0.1953
24564W        W67477  30.714  26.913  16.841 -0.2511  0.0387 -0.0314
24565W        W67478  31.795  21.307  22.168 -0.1441  0.0984  0.1701
24566W        W67479  24.222  22.894  20.651  0.1445 -0.0493 -0.0331
24567W        W67480  24.330  28.230  16.356 -0.0063 -0.2145 -0.3689
24568W        W67481  20.575   9.775  20.659 -0.0355 -0.1296  0.2175
24569W        W67482  21.940  28.371  15.177  0.0792  0.1797 -0.0155
24570W        W67483  28.759   0.284  22.526 -0.1159  0.0643  0.0482
24571W        W67484  22.222  27.700  19.058 -0.1156 -0.1240 -0.3380
24572W        W67485  25.994  20.504  13.459  0.0210  0.0011 -0.1096
24573W        W67486  21.103  18.164  14.946 -0.2558 -0.0457  0.1522
24574W        W67487   7.247  17.642  14.153 -0.1165  0.2197 -0.1887
24575W        W67488  23.837  20.992  13.689  0.0916 -0.3222  0.0621
24576W        W67489   7.899  19.417  25.940 -0.1154  0.1046 -0.0158
24577W        W67490  15.133  17.823  12.657  0.0019  0.0754 -0.0976
24578W        W67491   0.847  17.243  14.428  0.0958  0.3562 -0.2311
24579W        W67492  29.511  30.760  17.801  0.3246  0.1182 -0.0154
24580W        W67493   1.967  16.324  19.204 -0.2573  0.1266 -0.3157
24581W        W67494  22.550  26.416  20.728  0.2224  0.0322  0.0455
24582W        W67495  31.359  26.287  16.290 -0.1443  0.2554 -0.0766
24583W        W67496  26.590  29.125  19.297  0.1362  0.0927 -0.1993
24584W        W67497   0.890  32.124  15.760 -0.1439 -0.3599  0.1487
24585W        W67498  33.808  23.314  15.538 -0.0492 -0.1590 -0.0104
24586W        W67499   3.013  24.781  15.043 -0.0504  0.0981  0.0977
24587W        W67500  29.089  14.218  16.834 -0.1989 -0.2198 -0.4119
24588W        W67501  33.815  20.374  20.092 -0.0940 -0.0843 -0.0240
24589W        W67502   2.449  18.822  25.633 -0.2328 -0.1044  0.1626
24590W        W67503  28.916  25.318  14.738 -0.0761  0.0825 -0.1843
24591W        W67504  16.292  16.959  11.985  0.0004 -0.1261  0.2096
24592W        W67505  25.110  21.614  13.344  0.0516 -0.0145  0.0314
24593W        W67506  29.216  30.417  13.661  0.0291 -0.0321 -0.1860
24594W        W67507  26.793   0.320  21.386 -0.0505 -0.2824 -0.0892
24595W        W67508  23.350  17.580  12.342  0.1203  0.2439 -0.3218
24596W        W67509  25.338  19.809  18.346 -0.2333 -0.0198  0.1587
24597W        W67510  28.733  25.550  14.345  0.0603  0.0419  0.1155
24598W        W67511  27.912  21.959  18.117  0.1190 -0.1520  0.2088
24599W        W67512  28.114  17.016  18.811 -0.0165 -0.4232  0.1804
24600W        W67513  31.118  21.436  18.211  0.1958 -0.1395  0.1061
24601W        W67514  26.323  23.164  22.224 -0.1127  0.0859  0.2975
24602W        W67515  33.278  29.099  14.660 -0.1989  0.2721 -0.3126
24603W        W67516  30.660  31.283  18.053 -0.5128  0.2019  0.0644
24604W        W67517  27.889  25.554  18.386 -0.2253 -0.2150  0.0606
24605W        W67518  23.044  13.585  14.728 -0.1545 -0.0661 -0.0086
24606W        W67519  25.615  26.285  17.382  0.0991  0.2012  0.0331
24607W        W67520  26.043  27.828  17.685 -0.0696 -0.0681  0.0664
24608W        W67521  26.951  24.294  17.192 -0.2737  0.3568  0.1971
24609W        W67522  33.154  24.821  14.560  0.0290  0.0224  0.0563
24610W        W67523  33.882  14.902  13.909 -0.3513 -0.0260  0.1721
24611W        W67524  25.797  17.557  14.219  0.0339 -0.0699  0.2426
24612W        W67525  20.246  25.925  19.487 -0.2657 -0.3664  0.1280
24613W        W67526  24.278  27.314  12.287 -0.2709 -0.1652 -0.0361
24614W        W67527  28.664   3.780  19.725  0.0046  0.0205 -0.3231
24615W        W67528  26.281  26.509  17.224 -0.0981 -0.0909 -0.1492
24616W        W67529   0.310  21.090  21.729 -0.1696  0.1226  0.1345
24617W        W67530  21.240  15.265  12.310  0.2235 -0.0108 -0.1447
24618W        W67531  24.855  23.882  16.074 -0.0928  0.0919 -0.0398
24619W        W67532  25.926  15.520  23.607 -0.0061 -0.2367 -0.2696
24620W        W67533  27.077  21.333  13.325 -0.2414 -0.1714  0.0745
24621W        W67534  19.689  30.014  15.902  0.2046 -0.1415 -0.2609
24622W        W67535  31.990  25.548  16.256  0.1628  0.2511 -0.1538
24623W        W67536  13.857  16.672  15.467  0.1587 -0.2941  0.0295
24624W        W67537  29.588  17.049  22.624  0.1306  0.4132  0.0820
24625W        W67538  31.395  33.849  16.966 -0.2393 -0.1332  0.0705
24626W        W67539  22.776  23.801  19.320  0.0606  0.2119  0.1354
24627W        W67540  33.077  28.780  22.248 -0.0196  0.4452 -0.2025
24628W        W67541   1.866  21.361  21.358 -0.2952  0.0893 -0.2159
24629W        W67542  25.401  18.862  21.683  0.1429 -0.2252  0.1806
24630W        W67543  26.489  27.716  18.004  0.2917 -0.0464  0.2020
24631W        W67544  28.900  26.628  14.454 -0.1057 -0.4046  0.2438
24632W        W67545  29.810   2.671  15.102  0.1556  0.0734  0.0066
24633W        W67546  29.166  27.117  14.339  0.0528  0.2403  0.1368
24634W        W67547  32.254  29.013   0.391 -0.1866  0.0111  0.0561
24635W        W67548  30.876  21.848  23.896 -0.2092  0.2401  0.3636
24636W        W67549  10.243  20.066  19.417  0.1960  0.2792 -0.0989
24637W        W67550  30.430  14.994  20.685 -0.3041  0.1910 -0.1499
24638W        W67551  24.870  23.253  21.097  0.5455 -0.0054  0.0099
24639W        W67552  22.737  30.214  24.261  0.3493 -0.0773  0.0489
24640W        W67553  24.225  24.772  13.775  0.1443  0.1236  0.0690
24641W        W67554  31.773  14.370  22.743  0.1192 -0.0075 -0.1905
24642W        W67555  31.068  30.830  16.817 -0.0956  0.1389 -0.1132
24643W        W67556  21.837  16.561  19.641  0.0196 -0.0359  0.0351
24644W        W67557  21.736  22.995  17.830  0.0123 -0.5069 -0.1413
24645W        W67558  32.648  26.304  25.760 -0.0633  0.1731 -0.1670
24646W        W67559  19.882  20.448  21.530 -0.1339  0.0252  0.1790
24647W        W67560  22.475  14.611  16.531  0.0654 -0.1229  0.3885
24648W        W67561  22.056  28.844  20.819  0.3333 -0.2705 -0.2502
24649W        W67562   1.795  21.520  20.016  0.3154 -0.3443  0.0203
24650W        W67563  29.077  24.875  20.315  0.0060 -0.0605 -0.0550
24651W        W67564  26.622  24.663  22.854 -0.3619 -0.5241 -0.0212
24652W        W67565  28.362  33.746  23.439  0.2385  0.0732  0.2019
24653W        W67566  14.131  15.056  16.244 -0.0172  0.3832 -0.5425
24654W        W67567  25.315  24.004  17.888  0.1509 -0.0179  0.1829
24655W        W67568  28.447  21.582  20.178 -0.2650 -0.4249  0.0862
24656W        W67569  31.317  21.111  19.282  0.0297  0.2396 -0.2794
24657W        W67570  28.962  30.146  14.804  0.0310 -0.2272  0.1894
24658W        W67571  22.784  23.710  23.362  0.1523 -0.0107  0.1989
24659W        W67572  33.396  20.564  22.948  0.0273  0.1886  0.1271
24660W        W67573   1.292  21.135  22.139 -0.2559  0.0343  0.1147
24661W        W67574  22.267  22.782   1.959  0.1778 -0.0044 -0.0355
24662W        W67575   4.065  23.141  15.681  0.0585  0.3971  0.1272
24663W        W67576  27.938  33.215  20.829 -0.3151  0.0355 -0.0550
24664W        W67577  30.423  22.989  20.779 -0.0530 -0.0275  0.2774
24665W        W67578  20.678  20.947  16.334  0.0512  0.2864 -0.1262
24666W        W67579  23.014  20.104  13.380 -0.0266  0.0479 -0.1853
24667W        W67580  30.464  13.023  16.002 -0.1543 -0.2576  0.0447
24668W        W67581   0.717  20.086  14.666  0.1127  0.1227 -0.3228
24669W        W67582  31.963  15.595  14.068 -0.3868 -0.0502 -0.1693
24670W        W67583  28.031  21.455  17.927  0.0332 -0.0371 -0.2453
24671W        W67584  28.523   5.337  24.174 -0.2013 -0.0161  0.0359
24672W        W67585  33.818  13.516  20.289  0.2313  0.1413  0.0852
24673W        W67586  25.054  23.224  17.790 -0.1149 -0.0095  0.0484
24674W        W67587  27.216  16.610  17.459  0.0669  0.2523  0.0943
24675W        W67588  33.145  26.472  17.711  0.1666 -0.0896  0.1230
24676W        W67589  22.013  24.042  17.670 -0.0761  0.0658 -0.0637
24677W        W67590  31.561  26.260  16.822  0.0668  0.3042  0.3167
24678W        W67591  32.297  19.472  16.405  0.0394  0.2691  0.2833
24679W        W67592  32.875  22.547  15.958  0.3777 -0.1268  0.3083
24680W        W67593  32.132  18.421  17.168  0.2000  0.0127  0.1897
24681W        W67594  30.236  15.252  21.771 -0.0266  0.2277  0.1100
24682W        W67595  31.519  20.161  25.619  0.1523 -0.0511 -0.0454
24683W        W67596  23.092  22.713  18.482  0.0153 -0.0550 -0.2409
24684W        W67597  28.543  22.960  18.489 -0.1347 -0.0165 -0.2541
24685W        W67598  27.384  31.755  15.828 -0.1707 -0.2411  0.0266
24686W        W67599  33.554  27.224  16.204  0.3717  0.1413 -0.1790
24687W        W67600  26.027  14.294  25.028 -0.3075 -0.1334 -0.1836
24688W        W67601  30.677  18.828  19.040  0.1204  0.0028 -0.1065
24689W        W67602  15.762  13.279  16.431  0.1683  0.1431  0.3379
24690W        W67603  30.208  21.034  18.323  0.1350 -0.1870 -0.3047
24691W        W67604  31.790  19.105  15.396 -0.1181 -0.2266  0.3015
24692W        W67605  26.449   0.278  23.118 -0.2169  0.0527  0.0928
24693W        W67606  28.342  12.674  17.514  0.0143  0.6394 -0.2364
24694W        W67607  33.995  28.778  13.643 -0.0216 -0.3075  0.0167
24695W        W67608  16.417  29.821  16.378  0.2511 -0.3297 -0.0524
24696W        W67609  31.342  25.004  15.681 -0.1356 -0.3293  0.1593
24697W        W67610  29.666  21.966  21.546 -0.0323 -0.0062  0.3536
24698W        W67611  27.098  27.764  17.134  0.1930  0.1789 -0.0730
24699W        W67612  26.075  19.223  17.735 -0.1919  0.0687  0.2131
24700W        W67613  24.646  30.357  24.202  0.1726 -0.3417  0.5065
24701W        W67614  10.845  18.685  19.884  0.0894  0.3935 -0.1358
24702W        W67615  28.855  13.358  16.193  0.0959  0.2013  0.0818
24703W        W67616  21.628  13.379  19.759 -0.3162  0.1750 -0.3464
24704W        W67617  31.069   7.707  15.793  0.2569  0.1521  0.0225
24705W        W67618  33.405  28.566  14.534  0.4267 -0.1266  0.1331
24706W        W67619  26.502  27.076  12.858  0.1210  0.1154 -0.0012
24707W        W67620  30.688  32.314  20.226 -0.2760  0.0329  0.1028
24708W        W67621  31.622  20.271  20.641 -0.0084 -0.2557 -0.2797
24709W        W67622  17.935  27.875  15.911  0.2043 -0.0245 -0.0754
24710W        W67623  32.740  25.783  13.560 -0.4587  0.0884 -0.1801
24711W        W67624  30.166  24.370  14.279 -0.4349 -0.0042  0.0281
24712W        W67625  29.426  31.251   5.223 -0.1033 -0.1545 -0.1428
24713W        W67626  23.175  18.427  20.703  0.1497  0.0771  0.2714
24714W        W67627  28.964  16.708  21.332 -0.1491  0.1284 -0.2054
24715W        W67628   1.157  26.476  28.152  0.0009 -0.4355  0.0177
24716W        W67629  26.260  22.619  15.680 -0.0994  0.1650 -0.0654
24717W        W67630  22.521  28.480  16.562 -0.5790 -0.0112  0.2049
24718W        W67631  28.458  23.670  15.299  0.2980  0.1625  0.0246
24719W        W67632  20.950  33.608  14.605 -0.3260 -0.0257 -0.2527
24720W        W67633   0.023  21.988  23.438 -0.2288  0.1287 -0.0313
24721W        W67634  31.974  29.981  18.859 -0.3332 -0.1113  0.0896
24722W        W67635  20.450  28.404  20.306 -0.2676 -0.1018 -0.0727
24723W        W67636  20.196  24.604   0.932  0.2987  0.0394  0.1482
24724W        W67637  25.127  30.446  15.527  0.1521  0.2415 -0.2360
24725W        W67638  20.911  21.672  16.176 -0.1522 -0.2216  0.0575
24726W        W67639  33.160  32.882  24.180 -0.1720  0.0293 -0.2523
24727W        W67640  28.961  18.065  16.981 -0.0428  0.0050  0.1097
24728W        W67641  32.186  30.651  22.922  0.0951 -0.0358 -0.1787
24729W        W67642  12.839  26.179  19.604 -0.0604 -0.1028  0.0757
24730W        W67643   9.520  23.696  17.242 -0.1437 -0.0282 -0.0969
24731W        W67644  24.394  25.926  16.483  0.2346 -0.2991 -0.4297
24732W        W67645  27.389  19.516  14.457 -0.3542 -0.1261  0.1204
24733W        W67646  29.244  16.168  20.531 -0.3482 -0.3620  0.1519
24734W        W67647  27.947  26.187  16.154 -0.0895  0.1825  0.0037
24735W        W67648  29.996  25.099  21.277 -0.1897 -0.3071  0.2966
24736W        W67649  21.816  32.935  17.596  0.2472  0.1098  0.0488
24737W        W67650  27.903  15.605  15.491 -0.2885 -0.1818 -0.0444
24738W        W67651  19.540  27.404  18.612 -0.1011  0.1235  0.2810
24739W        W67652  30.934  22.293  14.592 -0.1631  0.0516  0.4304
24740W        W67653  25.254   4.645  24.672  0.0529  0.1521 -0.0224
24741W        W67654  22.702  14.123  26.300 -0.3197 -0.1660  0.1144
24742W        W67655  21.758  27.529  15.280 -0.2387  0.0624 -0.0838
24743W        W67656  23.674  22.912  19.304  0.1570 -0.0725 -0.1841
24744W        W67657   0.725  30.505  15.981  0.2272 -0.1222  0.0384
24745W        W67658  27.361  27.222   3.872  0.0582  0.2363 -0.2590
24746W        W67659  32.206  33.828  15.067 -0.0258  0.2634 -0.3249
24747W        W67660  33.444  23.090  16.949 -0.0221  0.0905  0.1753
24748W        W67661  21.302  12.410  13.785  0.1652 -0.0334  0.1798
24749W        W67662  13.913  25.567  16.561  0.0105  0.2918 -0.3327
24750W        W67663  32.078  29.663  15.428  0.2193  0.0451  0.4645
24751W        W67664   0.025  25.501  17.672 -0.1815  0.2843  0.0403
24752W        W67665  33.214  31.435  17.593  0.0460  0.1485  0.0532
24753W        W67666  21.291  30.587  28.200 -0.3410 -0.0330 -0.0307
24754W        W67667  26.509  22.112  20.994 -0.1216 -0.0493 -0.0419
24755W        W67668   5.918  20.050  22.148 -0.0351  0.0797  0.0582
24756W        W67669  25.428  27.198  17.236  0.2548  0.1157 -0.1679
24757W        W67670  31.958  16.163  26.276  0.0507  0.1756  0.2212
24758W        W67671  28.845  29.986  13.699 -0.2652  0.0237 -0.0244
24759W        W67672   3.914  19.893  14.231 -0.1620 -0.2380  0.0006
24760W        W67673  25.204  23.839  21.940 -0.2919 -0.1287 -0.0243
24761W        W67674   2.978  27.631  15.763  0.0946 -0.3396  0.2819
24762W        W67675  33.773  22.629  18.654 -0.0547  0.0277 -0.1791
24763W        W67676  23.498  28.335  28.972  0.3279  0.0482  0.0359
24764W        W67677  28.397  29.190  28.370  0.3189 -0.1293  0.2617
24765W        W67678  27.382  29.530  20.707 -0.4132  0.0231 -0.2090
24766W        W67679  28.897  25.999  21.111  0.0824 -0.0698  0.0644
24767W        W67680  26.417  20.533  14.522 -0.0080 -0.3945 -0.3305
24768W        W67681  31.383  27.163  14.546 -0.0941  0.2221 -0.1391
24769W        W67682  18.484  19.354  14.110  0.1498 -0.2824  0.1500
24770W        W67683  26.388  26.386  19.053  0.3798 -0.0201 -0.0957
24771W        W67684  23.505  10.436  15.692 -0.2174  0.2831 -0.3858
24772W        W67685  31.626  16.764  25.258 -0.0648  0.1775 -0.1834
24773W        W67686   1.875  18.331   0.375  0.0105 -0.0940  0.4371
24774W        W67687  12.256  12.979  18.955  0.0212 -0.0765  0.1521
24775W        W67688  23.687  29.987  24.499  0.3098  0.0343 -0.0667
24776W        W67689  24.385   2.093  18.336 -0.0787 -0.2867 -0.0412
24777W        W67690  23.775  13.918  15.335  0.3183  0.2833 -0.1391
24778W        W67691  26.292  24.690  18.254  0.1174 -0.1251 -0.0910
24779W        W67692  25.176  14.358  23.389  0.0112  0.2064  0.1520
24780W        W67693  28.435  21.634  18.216 -0.1070  0.0751 -0.1622
24781W        W67694  19.022  22.588  18.689  0.0748  0.0618 -0.0583
24782W        W67695  31.604  18.876  22.277 -0.0613  0.2427 -0.3076
24783W        W67696  25.745  26.924  14.519 -0.0917  0.1152 -0.1237
24784W        W67697  26.795  24.500  13.468 -0.3495 -0.4318 -0.3107
24785W        W67698  24.766  18.734  22.274  0.1438 -0.3139  0.1021
24786W        W67699  30.622   0.923  28.076  0.1584 -0.0130  0.2661
24787W        W67700  26.538  25.089  19.171 -0.3852 -0.0248 -0.1920
24788W        W67701  30.838  30.048  17.016 -0.0380  0.2136 -0.0470
24789W        W67702  20.983  28.744  15.112 -0.2050 -0.1762  0.2900
24790W        W67703  11.393  34.325  22.442 -0.1794  0.0324  0.0189
24791W        W67704  30.912  20.019  22.770 -0.1388 -0.0686  0.2793
24792W        W67705  26.072  11.240   2.545 -0.3396 -0.2055  0.0855
24793W        W67706  25.836  20.016  13.700  0.0027  0.0046  0.1355
24794W        W67707  27.868  21.529  18.404  0.1536 -0.2700 -0.2533
24795W        W67708  15.081  10.237  22.369  0.0577  0.0044 -0.0903
24796W        W67709  26.861  28.978  14.166 -0.1390 -0.0024  0.1419
24797W        W67710  31.165  19.568  27.101 -0.5194  0.0719  0.0843
24798W        W67711  25.873  13.877  20.946 -0.0503 -0.0839  0.2403
24799W        W67712  32.155  33.714  19.383 -0.1704  0.1047  0.1265
24800W        W67713  25.239  23.591  21.013 -0.1476  0.1613  0.2379
24801W        W67714  27.678  14.372  14.810  0.1701  0.1881 -0.2218
24802W        W67715  28.235  19.434  22.618 -0.2962  0.1834 -0.3141
24803W        W67716  27.025  18.940  15.965  0.3794  0.2093 -0.0298
24804W        W67717  16.165   5.043  16.396 -0.0157  0.0551 -0.3277
24805W        W67718  32.016  26.306  21.049 -0.0779 -0.0281 -0.2501
24806W        W67719  26.519  31.062  16.115  0.2425 -0.0086 -0.1119
24807W        W67720  32.989  20.719  22.783  0.1355  0.3269  0.0674
24808W        W67721  10.991  23.555  14.209 -0.0251 -0.1214 -0.1044
24809W        W67722  18.385  30.377  23.809 -0.1883 -0.0899  0.2205
24810W        W67723  32.274  26.673  15.454  0.1376  0.2908 -0.1283
24811W        W67724  28.102  18.133  14.895 -0.1851 -0.1441 -0.3239
24812W        W67725  25.290  27.523  18.994  0.3841  0.2296  0.1713
24813W        W67726  27.387  29.350  29.642 -0.2592  0.2527 -0.0673
24814W        W67727  23.270  30.594  19.076  0.1891 -0.1814 -0.1315
24815W        W67728  21.041  25.397  18.135  0.1441 -0.1428 -0.1246
24816W        W67729  32.141  26.092  27.091  0.0220  0.2131  0.0996
24817W        W67730  26.355  17.727  22.836  0.0294 -0.0428 -0.0980
24818W        W67731   3.398  10.164  16.836  0.2320 -0.1113 -0.1369
24819W        W67732  33.170  20.004  14.970 -0.0729 -0.1037  0.1577
24820W        W67733  32.533  21.746  13.918 -0.1603 -0.2714 -0.0284
24821W        W67734  22.697  16.998  20.092  0.0486 -0.0393 -0.0363
24822W        W67735   2.032  27.347  21.755  0.1130 -0.3758  0.0726
24823W        W67736  23.619  27.906  13.298  0.0364 -0.0004  0.0002
24824W        W67737  31.049  19.109  20.007 -0.1043 -0.2085  0.0494
24825W        W67738  27.575  25.729  22.149  0.1004  0.3301 -0.0812
24826W        W67739  25.740  31.608  15.168 -0.2331  0.0839  0.1289
24827W        W67740   1.118  18.749  23.271 -0.0289  0.0874 -0.0675
24828W        W67741  33.001  25.815  17.025  0.0542  0.2075  0.2872
24829W        W67742  23.720  29.290  23.954  0.1049  0.2450 -0.0179
24830W        W67743  23.035  24.208  23.488  0.0002  0.2738  0.0041
24831W        W67744  27.879  24.307  16.921 -0.3895  0.0703  0.1304
24832W        W67745  26.813  19.124  26.460 -0.0774  0.0595  0.1262
24833W        W67746  22.415   1.546  24.458 -0.0244 -0.1080 -0.3864
24834W        W67747  20.982  19.656  13.706 -0.4460  0.3070  0.0769
24835W        W67748  33.496  33.081  21.445 -0.2385  0.0677 -0.3733
24836W        W67749  23.066  13.748  20.417  0.2616 -0.0919  0.4367
24837W        W67750  33.182  21.631  21.183 -0.3490 -0.3276 -0.1901
24838W        W67751   1.373  23.441  20.182 -0.2606  0.3078 -0.2326
24839W        W67752  20.810  11.200  16.713  0.2050  0.1782 -0.2136
24840W        W67753  18.603  21.752  16.734  0.1552  0.1947  0.0313
24841W        W67754  27.981   8.471  19.775 -0.0842 -0.1438  0.0721
24842W        W67755  30.254  25.102  15.203 -0.0941 -0.0291 -0.0871
24843W        W67756  20.557  23.164  18.932  0.1379  0.0957  0.0119
24844W        W67757  26.085  24.459  19.892  0.0658 -0.2039 -0.1647
24845W        W67758  30.494  12.613  20.733 -0.0333  0.0614 -0.1231
24846W        W67759  22.086  12.693  19.499 -0.0645 -0.0224 -0.1062
24847W        W67760  23.923  26.126  12.771 -0.2327 -0.0853  0.3974
24848W        W67761  19.896  22.721  15.158 -0.1424  0.1842  0.0126
24849W        W67762  23.528  16.594  21.140 -0.1789  0.0567 -0.2708
24850W        W67763  32.595  18.178  22.580  0.0122  0.1287 -0.2229
24851W        W67764  32.130  20.136  15.122  0.0864 -0.1421  0.0774
24852W        W67765  23.389  19.399  15.919  0.1112 -0.2063 -0.1835
24853W        W67766  23.954  24.645  18.089 -0.0263  0.0830 -0.0652
24854W        W67767  26.434  18.359  24.165  0.0818  0.0483 -0.1271
24855W        W67768  19.610  26.588  17.667  0.2765 -0.2405 -0.1614
24856W        W67769  30.583  20.728   3.397  0.3289 -0.1173 -0.1158
24857W        W67770  21.293  19.313  22.837  0.0106 -0.3011 -0.1559
24858W        W67771  28.629  24.645  16.005  0.1569  0.1550 -0.1218
24859W        W67772  25.712  27.819  21.938  0.1819  0.0585  0.0158
24860W        W67773  26.407  19.362  12.680  0.1265 -0.1434  0.3242
24861W        W67774  25.825  28.577   1.205 -0.2977  0.0173  0.0631
24862W        W67775  30.840  27.120  22.640  0.1345  0.1789 -0.1016
24863W        W67776  24.111  17.707  20.568 -0.0383 -0.0056 -0.0356
24864W        W67777  32.228  32.671  25.493  0.4275  0.1454  0.1730
24865W        W67778  20.266  22.649  20.091  0.3763 -0.3538  0.2443
24866W        W67779   1.526  32.294  19.183  0.1047  0.1820 -0.2407
24867W        W67780  21.238  24.525  25.052 -0.1467  0.2474 -0.4953
24868W        W67781  24.323  23.798  25.962 -0.1565  0.0793  0.0463
24869W        W67782  31.470  14.967  21.939  0.1600  0.0548 -0.0670
24870W        W67783  27.776  22.831  18.371  0.1516 -0.1666  0.0019
24871W        W67784  22.516  21.076  12.884 -0.3468  0.1678  0.1208
24872W        W67785  30.926  19.552  14.538  0.1781  0.1198 -0.0662
24873W        W67786  23.052  21.852  13.358 -0.0091 -0.1675  0.0488
24874W        W67787   0.255  14.732  21.943 -0.2124  0.1687  0.2415
24875W        W67788  12.302  16.965  20.781 -0.0095  0.1207  0.0455
24876W        W67789  31.543   1.227  16.406 -0.0607  0.2398  0.0419
24877W        W67790  31.256  27.951  15.191 -0.0804 -0.1287 -0.0898
24878W        W67791  29.056  19.113  14.502 -0.1668  0.2588 -0.1665
24879W        W67792   1.695  26.493  25.912 -0.1557  0.2389  0.2710
24880W        W67793   9.418  26.970  15.737 -0.0495  0.2650 -0.1355
24881W        W67794   8.796  15.642  22.502 -0.4200  0.1280 -0.1739
24882W        W67795  18.217  32.689  15.238  0.1298  0.4358 -0.0553
24883W        W67796  23.065   1.966  19.697  0.2401 -0.2046  0.0773
24884W        W67797   2.766  23.343  18.864  0.0333  0.0248  0.0080
24885W        W67798  27.378  23.549  17.123  0.1037  0.1203 -0.2851
24886W        W67799  29.329  24.059  13.772  0.0773 -0.0888  0.3322
24887W        W67800  27.918  28.036  13.562 -0.0619  0.1389 -0.2093
24888W        W67801  14.132  29.035  24.466  0.0913 -0.1379  0.1197
24889W        W67802   4.033  19.929  18.800 -0.1371  0.1614 -0.1354
24890W        W67803  26.144  25.959  26.220  0.1697 -0.2888  0.0894
24891W        W67804  31.634  25.003  15.247  0.0342 -0.3486 -0.0954
24892W        W67805   0.326   1.559  22.267  0.0697  0.0602 -0.1381
24893W        W67806  27.459  17.661  13.504 -0.1380  0.0312  0.1379
24894W        W67807  32.681  29.261  16.975  0.0222  0.1764  0.2160
24895W        W67808  23.680  20.872  28.221  0.1807 -0.2695 -0.1299
24896W        W67809  29.361  26.310  22.724  0.5929  0.0736  0.0193
24897W        W67810  31.941  30.305  13.895 -0.2135  0.1243 -0.0129
24898W        W67811   0.721  25.665  15.583  0.3249  0.2450  0.0816
24899W        W67812  29.505  31.277  19.818 -0.1984  0.2726 -0.3055
24900W        W67813  32.389  32.902  24.940 -0.1150 -0.1047  0.0368
24901W        W67814  27.503  23.605  20.509  0.5836  0.0542  0.3487
24902W        W67815  22.289  22.058  29.319  0.0775  0.2154 -0.1261
24903W        W67816  21.547  22.798  19.191 -0.0454 -0.0973 -0.1784
24904W        W67817  30.529  25.081  14.159  0.1946  0.0975  0.1029
24905W        W67818  30.294  26.457  17.274 -0.0412 -0.0699  0.0337
24906W        W67819  29.654  27.823  16.011 -0.0521 -0.1097  0.1135
24907W        W67820  29.833  22.633  22.441  0.1466 -0.1811  0.0315
24908W        W67821  28.775  20.936  17.577  0.0020  0.2370  0.0328
24909W        W67822  23.157  30.319   2.267 -0.0073  0.3402  0.2112
24910W        W67823  23.053  17.574  21.083 -0.2941 -0.2617 -0.0667
24911W        W67824  29.431  30.973  16.368  0.0327  0.0400  0.0978
24912W        W67825  25.002  31.382  19.929  0.1793  0.2947  0.0385
24913W        W67826  30.852  29.322  15.200 -0.1652 -0.0834  0.2216
24914W        W67827   2.381  20.965  24.199  0.1969 -0.0890  0.2092
24915W        W67828  33.617  25.324  17.786  0.2445 -0.0613 -0.1366
24916W        W67829  26.534  17.762  24.253  0.3233  0.1051 -0.2370
24917W        W67830  19.534  25.487  23.849  0.0660 -0.0318 -0.1060
24918W        W67831  27.708  16.054  15.644  0.1489 -0.0683 -0.2679
24919W        W67832  27.025  22.810  14.236 -0.1391  0.0019 -0.0598
24920W        W67833  31.155  20.105  24.946 -0.0761  0.4106 -0.3755
24921W        W67834  20.052   0.686   4.902  0.1424  0.2705  0.2834
24922W        W67835  26.187  22.343  12.986  0.0871  0.0323 -0.0942
24923W        W67836  11.463  23.036  17.347 -0.0726  0.1253 -0.4242
24924W        W67837  24.078  12.463  26.117  0.0280 -0.0225  0.0196
24925W        W67838   3.313  19.339  19.099 -0.4623 -0.0975 -0.2197
24926W        W67839   1.701  18.936  17.008 -0.0303 -0.1436 -0.0169
24927W        W67840   0.606   7.965  19.320  0.1574  0.1642  0.0346
24928W        W67841  25.378  11.765  14.214  0.3198 -0.1862  0.2073
24929W        W67842  22.825  24.537   2.640 -0.1011 -0.0255 -0.1681
24930W        W67843  18.375  30.982  18.779 -0.0585  0.0077  0.1237
24931W        W67844  29.490  21.529  16.382 -0.1272 -0.3673 -0.0743
24932W        W67845  28.763   3.761  24.207 -0.1459  0.3280  0.1091
24933W        W67846  22.896  29.381  17.518  0.0398 -0.0663 -0.5167
24934W        W67847  26.454  28.805  15.507 -0.1872 -0.1079 -0.2607
24935W        W67848  31.839  23.668  22.058  0.0946  0.0235  0.1979
24936W        W67849  24.524  27.646  24.944 -0.0209 -0.0430  0.3203
24937W        W67850  27.171  24.694  14.807  0.1809  0.3779  0.1353
24938W        W67851   5.030  32.882  17.356 -0.3338  0.0684 -0.3305
24939W        W67852  27.914  27.246  23.274  0.2971  0.1016  0.0046
24940W        W67853   0.052  12.438  26.648  0.0888 -0.1438  0.2585
24941W        W67854   0.550  24.839  15.045  0.0516 -0.2580 -0.2551
24942W        W67855   4.908  19.206  18.853 -0.1304  0.3865 -0.1203
24943W        W67856  30.823  12.789   3.246 -0.1126 -0.1681  0.1175
24944W        W67857  17.080  22.449  28.042 -0.0197 -0.2262 -0.4153
24945W        W67858  21.277  29.470  23.209 -0.1248  0.0739 -0.2051
24946W        W67859  24.251  14.233  27.479  0.1280  0.0599 -0.1622
24947W        W67860  30.281  23.069  26.596  0.0392 -0.0175 -0.0541
24948W        W67861   1.184  15.040  19.982  0.0625 -0.0142 -0.0258
24949W        W67862  28.313  33.869  21.469  0.1912 -0.0238 -0.2649
24950W        W67863   6.764  15.827  18.325 -0.1923  0.1629  0.2375
24951W        W67864  19.025  13.945  15.016 -0.0477 -0.0290  0.2753
24952W        W67865  32.444  15.576  14.560 -0.1392  0.2454  0.1517
24953W        W67866  26.308  17.376  12.834 -0.1952 -0.0263  0.1761
24954W        W67867  25.674  30.062  24.218 -0.0798 -0.2314 -0.1188
24955W        W67868  23.131  24.482  18.059  0.2796 -0.2753  0.0585
24956W        W67869   2.411   0.073  28.396 -0.1333 -0.1046  0.3680
24957W        W67870   0.083  24.769  18.089  0.1077  0.0057  0.0885
24958W        W67871  33.278  32.537  21.272  0.0043  0.1496 -0.1177
24959W        W67872   2.547  24.579  15.200 -0.0382  0.1704  0.0243
24960W        W67873   1.319  14.895  20.873 -0.2699 -0.2442 -0.0489
24961W        W67874  13.685   7.530  23.450 -0.2453  0.3487 -0.1644
24962W        W67875  30.774  32.541  27.724  0.0595  0.1736 -0.3143
24963W        W67876  31.328  27.854  19.759 -0.0389  0.3359 -0.0253
24964W        W67877  17.384  31.805  16.439  0.1600 -0.0573  0.0827
24965W        W67878  28.368  31.943  17.078 -0.0771 -0.4786  0.3870
24966W        W67879  23.112  18.701  15.692  0.0496  0.1322  0.1290
24967W        W67880  26.296  24.675  13.455 -0.5096 -0.2390 -0.3333
24968W        W67881  28.155  27.239  15.417  0.1516  0.0470 -0.2139
24969W        W67882   0.467  21.732  17.097 -0.0026 -0.0480 -0.0570
24970W        W67883  28.453  20.883  20.870  0.2014 -0.0550 -0.3071
24971W        W67884  31.409  14.144  24.056  0.2282  0.1107  0.1913
24972W        W67885  33.876  20.408  20.969  0.1593  0.1792  0.3243
24973W        W67886  30.777  10.692  27.385  0.2590  0.1294  0.0793
24974W        W67887  29.647  14.612  18.365  0.2976  0.1075  0.1304
24975W        W67888  13.241   6.467  17.199  0.2044  0.3144  0.1520
24976W        W67889  26.645  33.004  20.600  0.1572  0.1691 -0.0132
24977W        W67890  33.515  22.023  20.736  0.0629  0.0135 -0.1047
24978W        W67891   3.636  32.787  16.393  0.0669 -0.1190 -0.2046
24979W        W67892  32.940  23.417  21.733  0.0226  0.0022  0.0086
24980W        W67893   7.099   2.188  19.557 -0.1866  0.0799  0.1769
24981W        W67894  18.657  23.697   0.617  0.2668  0.1219 -0.1317
24982W        W67895  19.081  23.082   3.322 -0.0800  0.1556 -0.0674
24983W        W67896  24.366  19.240  25.262  0.2195  0.0814 -0.1095
24984W        W67897  25.309  21.240  12.344  0.0671 -0.1312  0.1350
24985W        W67898  28.104  19.927  14.767 -0.0868 -0.2923 -0.0330
24986W        W67899  33.203  18.645  18.945  0.5223 -0.0807  0.0418
24987W        W67900  31.565  23.005  29.366 -0.1475 -0.0099  0.2209
24988W        W67901  30.695  24.114  14.435 -0.0245 -0.3553  0.2185
24989W        W67902  18.860  24.428  15.481  0.1809 -0.1224  0.1798
24990W        W67903   4.251  28.246  27.972 -0.0633 -0.1964 -0.3875
24991W        W67904  28.944  17.436  14.708  0.0359 -0.0146 -0.3072
24992W        W67905  19.487  18.213  25.143 -0.0893 -0.1269 -0.3993
24993W        W67906  20.802   2.061  19.737  0.1469 -0.1849  0.3582
24994W        W67907  22.194  21.998  27.328 -0.1875 -0.3849 -0.0807
24995W        W67908  28.839  17.302  23.767  0.1002  0.0998 -0.1455
24996W        W67909  32.638  29.444  15.503  0.1469  0.0397 -0.0385
24997W        W67910  18.276  23.658  15.106  0.1999  0.1259  0.1668
24998W        W67911  28.557  21.432  15.987 -0.0062  0.5900 -0.0378
24999W        W67912  22.137  31.870  19.097  0.0026 -0.1783  0.0209
25000W        W67913  24.486  19.248  19.528 -0.0885  0.1702 -0.1228
25001W        W67914   1.421  16.367  28.964 -0.1462 -0.1536 -0.3320
25002W        W67915  23.161  22.858  23.434  0.0397 -0.2773  0.1589
25003W        W67916  26.961  25.216  28.848 -0.1420  0.1682  0.1355
25004W        W67917  22.613   4.335  21.674  0.1173  0.0332 -0.0141
25005W        W67918  23.385  27.889  14.451  0.2061  0.0468 -0.0130
25006W        W67919  21.645  25.544  12.864 -0.0173  0.3245  0.0571
25007W        W67920  18.064  25.068  21.542 -0.0535  0.0573 -0.2594
25008W        W67921   7.367  24.098  24.562 -0.3289 -0.0574 -0.1217
25009W        W67922  28.458  27.165  13.498  0.0977 -0.0573 -0.2687
25010W        W67923  29.666  19.499  19.915  0.0715  0.0801  0.2510
25011W        W67924  27.526  27.401  15.095 -0.2493  0.1761  0.2612
25012W        W67925  28.418  22.398  28.634 -0.1420  0.2162 -0.0473
25013W        W67926  27.730  29.671  27.994  0.1884  0.0620 -0.0027
25014W        W67927  28.011  28.310  28.001  0.2191 -0.0990  0.0766
25015W        W67928  19.698   5.698  18.578 -0.1655 -0.1925 -0.1702
25016W        W67929  21.050  26.649  20.573 -0.0832 -0.1642  0.0124
25017W        W67930  20.693  20.140  21.174 -0.1258 -0.0796 -0.0270
25018W        W67931  29.157  22.080   1.761 -0.1670  0.1049  0.2626
25019W        W67932  15.846  18.846  14.609 -0.2726  0.1047 -0.1773
25020W        W67933  30.650  30.764  21.242  0.0620  0.0601 -0.1627
25021W        W67934  31.774  26.455  21.492  0.0729 -0.0200  0.2136
25022W        W67935  32.414  27.220  15.398  0.2277 -0.0479 -0.1137
25023W        W67936  21.328  28.429  14.760  0.2166 -0.0877  0.0378
25024W        W67937   9.147  26.636  17.231 -0.0998  0.1342 -0.0361
25025W        W67938  30.466  21.361  22.689 -0.1081  0.0230  0.1842
25026W        W67939  29.979  20.403  15.800  0.1616 -0.2076  0.1543
25027W        W67940  23.874  21.403  21.611  0.2305  0.2489 -0.0473
25028W        W67941  25.420  33.246  22.054  0.1221  0.4083  0.0409
25029W        W67942  27.031  32.206  14.481  0.1730  0.2177  0.2745
25030W        W67943   4.057  21.607  20.354  0.4258 -0.1655 -0.1670
25031W        W67944   0.890  22.439   3.273  0.0029 -0.0806 -0.0972
25032W        W67945  24.440  31.491  17.160 -0.0962 -0.1540 -0.0510
25033W        W67946  24.205  20.768  15.642 -0.0288  0.2971 -0.1585
25034W        W67947  25.505  21.434  21.098 -0.0848  0.0816 -0.1620
25035W        W67948  18.941  17.555  12.436  0.0795  0.0059  0.2403
25036W        W67949  29.016  19.675  18.988 -0.2029  0.2085  0.1823
25037W        W67950  31.466  26.458  19.457 -0.1724  0.2280  0.1459
25038W        W67951  33.362  19.199  19.928  0.1379 -0.1036  0.1027
25039W        W67952   0.789  18.448  19.379 -0.1287 -0.1716 -0.0325
25040W        W67953  26.687  18.721  13.941  0.3247  0.0320  0.1519
25041W        W67954  17.498  26.179  23.808 -0.1463 -0.1131  0.2350
25042W        W67955  25.008  21.471  28.539 -0.1157 -0.1343  0.0609
25043W        W67956  30.525  23.281  24.345 -0.2163  0.1691  0.0356
25044W        W67957  25.483  34.239  16.100  0.1688  0.0222 -0.2436
25045W        W67958  27.100  23.800  19.870 -0.3193 -0.0172  0.5832
25046W        W67959  33.291  18.510  16.093  0.0460 -0.1767 -0.0867
25047W        W67960  24.448  16.918  17.952  0.0215 -0.2721 -0.0215
25048W        W67961  25.706  26.714  21.223  0.1267 -0.1032 -0.0584
25049W        W67962  32.290  26.000  17.593  0.1771 -0.0106  0.0901
25050W        W67963  26.770  25.924  18.790  0.1701  0.2553  0.0792
25051W        W67964  22.364   2.078  18.592  0.1520  0.2524 -0.0882
25052W        W67965  27.143  30.983  15.337  0.3628 -0.1899 -0.2911
25053W        W67966  30.989  25.961  14.536  0.0300  0.0346 -0.0145
25054W        W67967  28.133  26.147  24.736 -0.1441 -0.2221  0.0260
25055W        W67968  27.570  30.864  21.520  0.0879 -0.1127  0.2324
25056W        W67969  24.000  27.843  16.177  0.0024  0.1587 -0.1264
25057W        W67970  33.027  30.803  15.439 -0.1455 -0.5231  0.2140
25058W        W67971  33.895  18.311  13.235  0.1241  0.1936 -0.1688
25059W        W67972  26.457  30.650  14.364  0.2713 -0.0154  0.1789
25060W        W67973  28.101  22.666  21.519 -0.0137  0.0960  0.1675
25061W        W67974  30.894  11.309  25.555  0.0874  0.5400  0.2224
25062W        W67975   0.286  23.964  16.959 -0.0559  0.1711  0.0347
25063W        W67976   3.061  21.897  19.305  0.2732 -0.2073 -0.1608
25064W        W67977  33.620  24.738  18.383  0.0427 -0.0647 -0.2634
25065W        W67978  25.549  21.860  21.297  0.0124  0.1375  0.0735
25066W        W67979   4.954  23.898  16.154 -0.4176  0.0163  0.2027
25067W        W67980   3.158  25.832  17.848 -0.1286  0.1032 -0.3264
25068W        W67981   2.324  25.675  17.491 -0.1377  0.0028 -0.0261
25069W        W67982  24.274  16.083  21.277  0.2138  0.0925  0.2338
25070W        W67983  32.129   8.061  21.640  0.0092 -0.2199 -0.3650
25071W        W67984   4.030  10.324  19.185 -0.2980  0.2901  0.4858
25072W        W67985  31.990  23.064  22.039 -0.0970 -0.2858 -0.1707
25073W        W67986  26.130  17.199  20.523 -0.1896 -0.1597 -0.3336
25074W        W67987  24.004  26.177  13.595 -0.0374 -0.0671  0.2970
25075W        W67988  30.289  13.315  23.664  0.1396 -0.1276 -0.1250
25076W        W67989  28.208  23.562  16.691 -0.3590 -0.1048 -0.2760
25077W        W67990   0.327  28.429  14.578  0.1243  0.1205  0.0497
25078W        W67991  26.603  16.706   0.888 -0.1228 -0.0392 -0.0245
25079W        W67992  26.398  16.643  14.998  0.0896 -0.1622  0.0304
25080W        W67993  27.983  24.236  18.674 -0.1036  0.1795  0.0847
25081W        W67994  25.052   9.670  16.316  0.3229  0.1714 -0.1492
25082W        W67995  22.856  12.471  16.025  0.0331 -0.0236  0.1698
25083W        W67996  32.212  26.803  16.381  0.1062 -0.1252  0.0863
25084W        W67997  21.664  29.967  22.617 -0.0727 -0.1669  0.1754
25085W        W67998  28.659  25.050  22.948  0.1712  0.1363  0.0311
25086W        W67999  28.747   2.114  14.660 -0.4269 -0.0410  0.1303
25087W        W68000  18.051   6.602  17.856 -0.0237  0.0887  0.0113
25088W        W68001  33.177  30.447  19.882 -0.0825 -0.2434 -0.0050
25089W        W68002  27.965  29.174  14.450 -0.0550  0.2110 -0.0454
25090W        W68003  27.105  29.433  29.152  0.1284  0.2442 -0.0357
25091W        W68004  16.020  24.702  24.460  0.0886  0.0314  0.1120
25092W        W68005  27.585  27.582  17.324  0.2138 -0.1669 -0.1046
25093W        W68006  11.903  23.294  26.666  0.2182 -0.1827 -0.0939
25094W        W68007   3.595  31.437  19.377  0.1283  0.2547 -0.0099
25095W        W68008  24.842  18.642  13.296  0.0498  0.1562 -0.2265
25096W        W68009  26.494  17.478  13.451 -0.2709 -0.4709  0.3141
25097W        W68010  33.983  14.669  16.107 -0.1260 -0.0331 -0.0047
25098W        W68011  20.442  10.966  16.974 -0.1181  0.0132 -0.1399
25099W        W68012  23.968  24.954  14.222  0.0699  0.0906  0.0427
25100W        W68013  24.694  29.845  22.558  0.0365 -0.1749 -0.1890
25101W        W68014  33.081  27.513  17.828  0.1990  0.0667  0.1748
25102W        W68015   0.331  14.860  14.334  0.1012  0.0653 -0.0972
25103W        W68016  27.784  22.945  23.342 -0.1409 -0.0244  0.1030
25104W        W68017  29.438  22.500  25.598  0.0648 -0.1035 -0.0633
25105W        W68018  25.516  18.127  20.728 -0.0258 -0.0331  0.1525
25106W        W68019  30.267  10.120  18.890 -0.3671  0.1483  0.2742
25107W        W68020  11.125  16.109  12.442  0.1966  0.0087  0.0855
25108W        W68021  30.529  27.767  17.753  0.2191 -0.1253 -0.1445
25109W        W68022  25.764  29.915  23.375  0.1341  0.0335 -0.1855
25110W        W68023  25.848  29.316  20.307 -0.0450  0.0422 -0.0829
25111W        W68024  31.601  23.574  20.778  0.0950  0.0318 -0.2080
25112W        W68025  28.902  18.743  18.952  0.2558  0.1159 -0.1083
25113W        W68026  30.530  23.869  13.493  0.1520  0.2081 -0.1173
25114W        W68027  23.180  22.114  20.505 -0.1471  0.2604 -0.0148
25115W        W68028  27.726  20.898  25.327  0.0122  0.2782  0.2794
25116W        W68029  23.916  24.186  22.525  0.1543 -0.0673  0.0083
25117W        W68030  32.347  18.020  24.748  0.2863 -0.1650  0.3244
25118W        W68031  33.898  19.027  20.101 -0.3331 -0.0262 -0.0256
25119W        W68032  27.565  13.402  16.691 -0.5593  0.3292  0.0472
25120W        W68033   1.506  24.372  15.082  0.3199 -0.0804  0.1338
25121W        W68034  26.035  28.034  25.079  0.1184 -0.3025  0.0158
25122W        W68035  18.410  21.421  24.679 -0.1283 -0.0068  0.2678
25123W        W68036  31.146  15.305  17.070 -0.0686 -0.0977  0.1179
25124W        W68037  30.559  26.079  16.995  0.2094 -0.1194  0.0257
25125W        W68038   0.859  23.115  26.775 -0.2905  0.0689 -0.0831
25126W        W68039  25.331  19.766  16.254  0.2434  0.0711  0.1210
25127W        W68040  31.214  15.867  16.152 -0.1994 -0.1483 -0.0069
25128W        W68041  14.191  21.346  16.236 -0.3015  0.1650  0.2761
25129W        W68042  26.596  33.310  15.757  0.0608 -0.0714  0.0194
25130W        W68043  24.957   0.598  24.808  0.2212 -0.0595 -0.0892
25131W        W68044  30.377  30.257  14.663  0.1791  0.0831 -0.2146
25132W        W68045  26.872  15.224  16.334  0.0745 -0.1116  0.2221
25133W        W68046  26.723  33.880  19.210  0.4025  0.0302  0.3309
25134W        W68047  18.086  23.265  22.712 -0.3273 -0.0856 -0.0901
25135W        W68048  24.309  22.246  18.815  0.0100 -0.1204  0.1654
25136W        W68049  29.597  32.121  20.035 -0.0702 -0.2355 -0.0732
25137W        W68050  17.556  25.567  15.758 -0.0179  0.3684 -0.5367
25138W        W68051  24.221  32.966  17.933 -0.0490  0.2565 -0.0453
25139W        W68052  25.375  20.185  22.183  0.0966 -0.3418 -0.3756
25140W        W68053  26.086   0.180  20.154  0.0096  0.0166  0.1962
25141W        W68054  25.608  22.788  14.697  0.0290  0.1436  0.2045
25142W        W68055   2.384  22.682  17.725 -0.1061 -0.1172 -0.0756
25143W        W68056  29.934  19.913  22.938 -0.2755 -0.0923  0.1388
25144W        W68057  27.603  22.636  27.320 -0.1738 -0.0299 -0.5447
25145W        W68058  32.287  18.314  16.085 -0.0082  0.1408 -0.0452
25146W        W68059  32.285  19.684  14.999  0.2757 -0.2795 -0.0419
25147W        W68060  30.096  18.616  18.561  0.5478  0.2642 -0.1645
25148W        W68061  25.846  26.280  16.449 -0.3327  0.0752 -0.1097
25149W        W68062  25.018  29.556  21.057 -0.0752  0.0266  0.1131
25150W        W68063   4.261   8.544  18.938 -0.0241 -0.2403 -0.3278
25151W        W68064  27.614  30.260  15.017 -0.0369  0.0447 -0.0643
25152W        W68065  31.914  20.500  14.812 -0.2388 -0.3139 -0.1349
25153W        W68066  24.468  23.284  20.804 -0.1046  0.1018 -0.1746
25154W        W68067  21.934  25.727  26.005 -0.0557  0.0497 -0.0111
25155W        W68068  24.801  24.283  22.746  0.0587  0.1196  0.4259
25156W        W68069  22.424  24.240  20.612 -0.0166  0.2521  0.4764
25157W        W68070  30.744  19.263  23.625  0.1491 -0.2090  0.2782
25158W        W68071  33.122  25.556  20.740  0.0400 -0.0084 -0.0220
25159W        W68072   0.166  17.792  22.322  0.0567  0.0579  0.0741
25160W        W68073  21.762  30.923  24.916  0.0345  0.1355  0.1481
25161W        W68074  31.451  28.578  27.982  0.3813 -0.1027 -0.2348
25162W        W68075   0.096  15.846  23.742  0.0090  0.0300  0.0073
25163W        W68076  31.362  20.654   0.620  0.0653  0.1738 -0.2064
25164W        W68077  16.732   5.399   1.399 -0.4215 -0.0644  0.0233
25165W        W68078  28.366  20.800  25.632 -0.0442 -0.4507  0.1005
25166W        W68079  22.282  19.262  29.270  0.1005  0.0161  0.1394
25167W        W68080   2.625  18.087  17.428 -0.2177  0.1847  0.1165
25168W        W68081  23.922   0.632  13.964 -0.1608  0.2731 -0.0621
25169W        W68082  16.013  21.533  26.305 -0.2151 -0.1694  0.2113
25170W        W68083  29.326  17.147  19.266  0.0303  0.1584 -0.7809
25171W        W68084  30.559  27.952  28.975  0.1632  0.1234  0.0647
25172W        W68085   8.507  18.474  24.102  0.2843  0.0619  0.0082
25173W        W68086  30.962  24.995  23.281  0.0603  0.2765  0.1788
25174W        W68087  29.508  32.814  29.322  0.0042 -0.0233 -0.2040
25175W        W68088  28.446  22.857  12.909  0.1338  0.0494 -0.4592
25176W        W68089  17.947  26.393  29.713  0.0058 -0.3719 -0.0644
25177W        W68090  20.878  19.155  18.119  0.0723  0.0009 -0.0951
25178W        W68091  26.642  27.775  23.289  0.0575 -0.1046 -0.1082
25179W        W68092   2.092  22.442   1.846 -0.1110  0.2038 -0.0892
25180W        W68093  22.984  23.230  15.555 -0.0992 -0.0552 -0.0777
25181W        W68094  21.948  28.828  22.441 -0.2623  0.1496  0.2862
25182W        W68095  24.806  22.312  25.368  0.0908 -0.2178 -0.0425
25183W        W68096   2.950  20.641   4.294 -0.0802 -0.0222 -0.2444
25184W        W68097  31.348  21.426  18.730  0.2376 -0.0991 -0.1638
25185W        W68098  18.193  27.838  23.816  0.0226 -0.0359  0.1333
25186W        W68099  20.450  27.918  21.939  0.2181 -0.0717  0.2718
25187W        W68100  34.344  19.793  28.045  0.4386 -0.0615  0.0717
25188W        W68101  25.125  17.658  12.952 -0.1182  0.3252  0.0819
25189W        W68102  27.429  24.755  19.405  0.1421  0.0977 -0.1592
25190W        W68103  15.579   6.424  26.236  0.0951 -0.1304 -0.1426
25191W        W68104  28.545  20.262  21.067 -0.1616  0.1460  0.0500
25192W        W68105  27.579  32.146  23.482  0.0892 -0.0726 -0.1615
25193W        W68106  28.062  25.317  23.326  0.1790 -0.3248  0.1196
25194W        W68107   0.861  23.142  15.575 -0.0465  0.0765  0.0087
25195W        W68108  31.158  29.625  27.911  0.1507 -0.0143 -0.1295
25196W        W68109  20.812  21.907   0.821 -0.3201 -0.2966  0.3808
25197W        W68110  29.765  28.633  25.554 -0.0964  0.1408 -0.2226
25198W        W68111  16.686  23.358  21.240 -0.1489  0.0723  0.2846
25199W        W68112  20.833  23.696  27.411  0.3702  0.0372  0.1337
25200W        W68113  22.989  13.025  23.136  0.2754  0.0006  0.0668
25201W        W68114  28.381  11.309  21.188 -0.0327 -0.0354  0.2956
25202W        W68115  22.064  24.669  20.021  0.2957  0.0733 -0.4533
25203W        W68116  32.784  23.184  29.092  0.2418  0.0032  0.1522
25204W        W68117  16.491  20.991  22.309  0.0977  0.1772  0.1167
25205W        W68118  23.571  26.116   0.024  0.0845  0.0498  0.0779
25206W        W68119  15.776  25.137   2.664 -0.1505 -0.3420 -0.1148
25207W        W68120  20.776   8.247  23.380  0.1515 -0.0136  0.3692
25208W        W68121  26.760   0.809   8.638  0.1407 -0.0624 -0.0054
25209W        W68122  29.524  21.377  26.128 -0.2638  0.0206  0.0496
25210W        W68123  21.013  20.720  13.686  0.0070 -0.0128  0.0973
25211W        W68124  23.165   5.559  22.256  0.3093  0.0424 -0.0785
25212W        W68125   8.830  22.605  26.202  0.1620  0.0277  0.1386
25213W        W68126   0.173  27.143  22.128 -0.2136 -0.0945  0.5354
25214W        W68127  25.227  23.804   2.457  0.0980  0.1196 -0.3637
25215W        W68128  21.292  23.893  24.585 -0.4303  0.1840  0.0301
25216W        W68129  20.373  18.611  25.134 -0.1660 -0.3417  0.0676
25217W        W68130  29.110  22.167  26.540  0.1757  0.0641  0.1721
25218W        W68131  25.679  23.094  12.665  0.2646  0.2646 -0.1295
25219W        W68132  31.034   3.057  19.668  0.2462  0.1558 -0.0513
25220W        W68133   1.078  16.191  26.016 -0.2607  0.1268  0.0368
25221W        W68134  25.490  17.637  28.571 -0.1061 -0.1892 -0.0965
25222W        W68135   3.731  25.116  16.762 -0.3928 -0.3048 -0.1416
25223W        W68136  23.610  22.237  19.784 -0.1417  0.3066  0.1119
25224W        W68137  16.362  12.207  23.947 -0.1990  0.1049  0.1452
25225W        W68138  26.014  21.463  20.146 -0.1859  0.1175 -0.0252
25226W        W68139   2.615  14.000  24.563  0.0693  0.0259  0.0971
25227W        W68140  22.551  19.214  25.578  0.2055  0.0235  0.0732
25228W        W68141  33.315  31.393  24.111  0.3357  0.2586  0.0547
25229W        W68142  27.222  22.261  23.428  0.1772  0.0647  0.0038
25230W        W68143  28.550  26.177   5.359 -0.1010  0.0165  0.1416
25231W        W68144  33.446  26.248  18.642  0.1406 -0.0837 -0.0418
25232W        W68145  30.063  22.071  26.297 -0.1462  0.1262 -0.0888
25233W        W68146  19.667  26.723  18.934 -0.0719 -0.0032 -0.2491
25234W        W68147  27.292  24.372   0.348  0.0332 -0.0083  0.1900
25235W        W68148  22.564  34.001  24.626  0.1467  0.1764  0.0757
25236W        W68149  18.866  26.522  25.486 -0.0790  0.0222  0.1236
25237W        W68150  27.563  22.382  21.578  0.2988  0.2549 -0.2171
25238W        W68151  32.534  30.772  23.771  0.0099 -0.0184 -0.2032
25239W        W68152  29.877  22.427  24.566 -0.1662 -0.0129 -0.2258
25240W        W68153   5.178  24.695  16.806 -0.0588  0.0094  0.1411
25241W        W68154  23.111  28.734  15.807  0.1612  0.1969  0.0054
25242W        W68155   1.318  32.769  26.416  0.1649  0.2246  0.0623
25243W        W68156  32.934  27.105  23.939 -0.0837 -0.4920 -0.0478
25244W        W68157  25.984  15.345  15.917  0.0535  0.1605 -0.4914
25245W        W68158   4.199  28.928  19.620  0.1253 -0.1408 -0.0469
25246W        W68159  25.887  23.856  21.824  0.0228 -0.1158 -0.1782
25247W        W68160  29.708  18.470  26.736 -0.0961  0.1516  0.1040
25248W        W68161  33.259  26.165  21.886  0.2082  0.2214  0.2132
25249W        W68162  20.765  20.944   3.484 -0.3265  0.2253 -0.2885
25250W        W68163  22.511  19.963  11.978  0.0889 -0.2368 -0.5108
25251W        W68164  24.543  26.341   1.518 -0.1025 -0.1494  0.2177
25252W        W68165  22.467  19.191   3.007 -0.2138  0.1611 -0.1199
25253W        W68166  16.595  21.990  20.379 -0.3531 -0.1538  0.2009
25254W        W68167   1.301  17.462  26.721 -0.0783 -0.0579  0.4481
25255W        W68168  31.886  28.339  25.267  0.1289 -0.0951  0.2706
25256W        W68169   3.707  27.769   8.717 -0.0819  0.2764  0.0536
25257W        W68170   1.456  32.803  23.962 -0.0219  0.1999 -0.0201
25258W        W68171  28.023  17.598  23.132  0.0549 -0.2383 -0.0016
25259W        W68172  28.663  12.218  20.066  0.1161 -0.0447 -0.2327
25260W        W68173  23.165   7.452  21.063 -0.0413  0.0419  0.0039
25261W        W68174  23.134  23.706  26.661  0.2046  0.1376  0.3624
25262W        W68175  24.388  19.033  22.063 -0.1054  0.0053  0.1539
25263W        W68176  27.545  22.162  28.899 -0.3810  0.3240 -0.2970
25264W        W68177  20.494  22.872   0.431  0.0197  0.3141  0.2530
25265W        W68178   1.313  13.686   3.803  0.0843 -0.0555  0.0797
25266W        W68179  29.620  11.555  25.764  0.1411 -0.0375 -0.2697
25267W        W68180  24.315  28.051  26.230 -0.0113  0.1735  0.1546
25268W        W68181  21.234  12.587  23.522 -0.1671 -0.1865 -0.0907
25269W        W68182  23.319  18.283  20.223 -0.1095  0.0922  0.4503
25270W        W68183  19.900  27.037  14.551  0.1623 -0.1560 -0.3919
25271W        W68184  18.069  33.218   2.060 -0.0412 -0.0581  0.3557
25272W        W68185  29.316   0.011  17.375 -0.0541 -0.0035  0.0463
25273W        W68186   3.465  27.795   2.991 -0.2775 -0.0252  0.1425
25274W        W68187  16.945  15.476  11.992 -0.4378  0.0863 -0.0449
25275W        W68188  21.118  21.129  21.839 -0.1062 -0.0361 -0.0135
25276W        W68189  25.559  24.727  22.883 -0.2228 -0.0523  0.1532
25277W        W68190   7.965  19.131  28.353 -0.1590 -0.0601 -0.2359
25278W        W68191  15.448  33.780  29.747 -0.2600 -0.1158  0.4111
25279W        W68192  21.391  34.325  25.412 -0.0616  0.2498 -0.1875
25280W        W68193  22.892  22.404  12.287  0.1902  0.1600  0.1362
25281W        W68194   2.216   9.392  20.146 -0.1855 -0.2527  0.3414
25282W        W68195  31.713  22.290  20.733  0.1402  0.0150  0.0428
25283W        W68196  19.530  23.148  23.908 -0.2063 -0.1647  0.2242
25284W        W68197  23.702  20.487  21.529  0.1159  0.1789 -0.0143
25285W        W68198  26.491   0.969   7.942  0.0760  0.1275 -0.0931
25286W        W68199  22.420  34.424  14.848 -0.0768 -0.0691 -0.2018
25287W        W68200  15.708  26.425  20.831 -0.1806  0.1516  0.1004
25288W        W68201  26.669  28.571  13.782 -0.1564  0.1977 -0.1510
25289W        W68202  28.981  25.774  23.373  0.1120 -0.1247  0.0866
25290W        W68203  22.425  27.146  24.870 -0.0162 -0.1325  0.1817
25291W        W68204  33.412  21.608  20.528 -0.1856  0.0559  0.1563
25292W        W68205  33.675  26.751  18.084 -0.0234 -0.0802 -0.1643
25293W        W68206  24.899  26.714  23.979 -0.1624 -0.2289  0.1437
25294W        W68207  29.651  33.284  29.043 -0.2264  0.1103  0.0957
25295W        W68208  20.792  23.779  14.078 -0.1626 -0.0200 -0.1320
25296W        W68209  26.311  32.564  21.364 -0.2693  0.0397  0.1199
25297W        W68210  22.509  26.777  29.417  0.0026  0.0889  0.4355
25298W        W68211  23.859  31.016  28.459  0.2108  0.1195 -0.1876
25299W        W68212  26.235  27.154  15.375  0.0348  0.2883 -0.2269
25300W        W68213  24.199  21.791  23.541  0.0674 -0.1892  0.2746
25301W        W68214  24.189  30.937  26.730  0.1526 -0.1023  0.0466
25302W        W68215  26.973  31.453   7.128  0.2272 -0.0214 -0.0316
25303W        W68216  20.675   4.787  27.287 -0.1710  0.1262 -0.1217
25304W        W68217  30.115  21.656  28.358  0.0623 -0.2703  0.0564
25305W        W68218  22.697  19.691  26.206 -0.0721  0.0106 -0.2844
25306W        W68219  22.312  10.676  18.883 -0.1014  0.3860  0.1050
25307W        W68220  32.711  27.104  26.977 -0.2769  0.2373 -0.0919
25308W        W68221  23.637  24.282  27.970 -0.1757 -0.1366  0.3312
25309W        W68222  23.216  11.064  21.809 -0.2899 -0.0799 -0.0025
25310W        W68223   3.831  26.637  15.455  0.1601  0.0899 -0.3964
25311W        W68224  19.273  25.539  21.425 -0.0070  0.1736 -0.1934
25312W        W68225   1.969  25.999  21.629  0.0453 -0.3243 -0.1726
25313W        W68226  17.568  17.347   0.346  0.2585  0.0611 -0.2676
25314W        W68227  18.875  23.826  21.633  0.2736  0.1086 -0.0824
25315W        W68228  27.121  28.261  16.982  0.3206  0.2794 -0.1430
25316W        W68229  19.534  20.169  17.898  0.2270 -0.0448 -0.0700
25317W        W68230  26.355  32.052  28.131  0.1635 -0.2580 -0.2247
25318W        W68231  32.317  25.795  22.772 -0.0371  0.0865 -0.2646
25319W        W68232  30.441  27.948  20.227  0.1887 -0.1086 -0.0379
25320W        W68233  25.550  16.174   1.393 -0.2525 -0.0726 -0.0274
25321W        W68234  20.121  29.187  17.041 -0.1610 -0.1563  0.2527
25322W        W68235  28.934  29.745   9.558 -0.0865  0.1247 -0.0498
25323W        W68236  14.592   1.137  22.247 -0.1271 -0.0734  0.6332
25324W        W68237  16.617  20.321  26.353 -0.0132 -0.1606  0.0057
25325W        W68238   1.226  16.871  23.758 -0.1677  0.0365 -0.3472
25326W        W68239  10.882  16.026  20.089  0.0178 -0.0947 -0.1610
25327W        W68240  22.259  22.094  11.607  0.1837  0.1531  0.0102
25328W        W68241  27.244  13.777  25.301  0.2922  0.0115 -0.0594
25329W        W68242  27.871  29.508  25.189  0.0808  0.0048  0.0136
25330W        W68243  21.274  20.600  19.833 -0.0250  0.1257  0.3113
25331W        W68244  24.891  25.668  16.540 -0.2859 -0.1908  0.1346
25332W        W68245   8.422  23.084  16.427 -0.2243 -0.2158 -0.0643
25333W        W68246  27.484  21.108  28.226 -0.1712  0.1034  0.1021
25334W        W68247  31.867  20.410  23.400  0.1712 -0.0940  0.2364
25335W        W68248  20.245  19.798  29.412  0.0290 -0.0375  0.1730
25336W        W68249  14.727   8.341  21.789 -0.2118 -0.0979  0.4489
25337W        W68250   2.539  19.315  26.790 -0.1383  0.1875  0.0059
25338W        W68251  23.199  20.498  12.993 -0.0731  0.0403  0.2222
25339W        W68252  21.542  14.644  13.191  0.2355 -0.3959 -0.3244
25340W        W68253  23.886  26.699  23.695  0.1160  0.0545 -0.0082
25341W        W68254  31.642  13.846  29.398  0.2769  0.0674  0.2527
25342W        W68255  33.120  16.220   8.664 -0.0351 -0.1453 -0.0612
25343W        W68256  29.444  28.435  19.705 -0.2042  0.0327  0.3936
25344W        W68257  20.647  20.390  27.751 -0.0370  0.1841 -0.1839
25345W        W68258  26.893  22.836   2.852  0.0956 -0.0036  0.0402
25346W        W68259  26.354  25.137   1.261  0.1778 -0.0719  0.3573
25347W        W68260  31.321  22.047   7.617 -0.3848  0.3659  0.0219
25348W        W68261  26.557  16.701  24.201 -0.0010 -0.3768  0.2599
25349W        W68262  20.642  28.895  26.901  0.0582  0.2646 -0.1398
25350W        W68263  15.658  25.177  28.858 -0.0740 -0.1573 -0.4122
25351W        W68264  30.496  29.308  25.310 -0.0135  0.2855 -0.1512
25352W        W68265  28.272  20.254  22.912  0.0307  0.2786  0.1348
25353W        W68266  34.415  23.950  17.818 -0.0808 -0.2408  0.0828
25354W        W68267  21.644  21.319  22.598 -0.2110 -0.3642 -0.0155
25355W        W68268  26.979  22.833  25.454  0.0563  0.2273 -0.2034
25356W        W68269  32.491  29.645  17.430 -0.2030  0.1826  0.0324
25357W        W68270   5.192  19.590  19.410  0.2157 -0.1471 -0.0701
25358W        W68271   3.971  23.257  26.423  0.1358 -0.1899  0.2322
25359W        W68272  29.007   1.013   1.015 -0.1698 -0.1806  0.0788
25360W        W68273  21.708  32.262  15.845 -0.0296  0.0034  0.0268
25361W        W68274   2.984  17.822  18.119  0.0624  0.1875  0.0120
25362W        W68275  12.064  22.387  24.516  0.0481 -0.0019 -0.1141
25363W        W68276  29.317  26.899  15.892 -0.2062  0.3511 -0.2369
25364W        W68277  16.649  21.121  28.078 -0.0739 -0.0884  0.2146
25365W        W68278  20.437   1.216  16.727  0.1326 -0.1756 -0.2214
25366W        W68279  28.914  24.735  25.125  0.0924 -0.1058  0.2378
25367W        W68280  27.852   8.039  28.964  0.2851  0.1287 -0.1040
25368W        W68281  11.982  16.872  13.737  0.1017 -0.1628  0.2339
25369W        W68282  31.085  27.301  26.323 -0.1036 -0.1800  0.0154
25370W        W68283  33.056  21.450  23.029  0.2491  0.1322  0.0250
25371W        W68284  22.521  30.800  22.510 -0.0109 -0.0518 -0.0893
25372W        W68285   0.978  19.433   0.163  0.1523  0.0745 -0.0251
25373W        W68286   3.437  28.534  18.044  0.0914 -0.3444  0.1821
25374W        W68287   0.122  25.298  28.399 -0.2438 -0.3884  0.0803
25375W        W68288  34.027  29.439  20.276 -0.2647 -0.0063  0.1667
25376W        W68289  30.088  33.506   3.772  0.1495  0.2899 -0.1953
25377W        W68290  29.253  31.916  25.863  0.0909  0.4283  0.1882
25378W        W68291  15.324  32.699  21.196 -0.0019  0.3187  0.1510
25379W        W68292  26.795  21.314  22.538 -0.1033 -0.1905  0.0706
25380W        W68293   0.310  27.815  27.715 -0.3185  0.2376 -0.2928
25381W        W68294  25.864   9.116  23.673  0.1164 -0.2122 -0.2321
25382W        W68295  22.268  30.756  23.790 -0.1463  0.0540 -0.1583
25383W        W68296  23.467  22.545   8.932  0.2236 -0.0977 -0.1452
25384W        W68297  28.515  24.849   0.192 -0.0653  0.1019  0.1703
25385W        W68298  28.012  27.604  19.211  0.0733  0.0855  0.0013
25386W        W68299  29.180  34.265  24.086 -0.1784  0.0933 -0.0929
25387W        W68300  18.948  14.311  15.434  0.2014  0.1446  0.0418
25388W        W68301  22.231  26.732  28.104  0.0723  0.0902 -0.1709
25389W        W68302  21.828  23.723   5.706  0.2044 -0.0770 -0.0019
25390W        W68303   5.283  33.838  22.269 -0.1328  0.0520 -0.1624
25391W        W68304  24.006  32.322   5.122 -0.0589  0.0797 -0.2607
25392W        W68305  26.991  29.411   7.456  0.0281  0.3998  0.0733
25393W        W68306  26.500  14.048   0.580 -0.1376  0.0706  0.0677
25394W        W68307   1.070  20.639  24.874  0.1759 -0.1000  0.0700
25395W        W68308  30.695  21.649  21.684  0.0665  0.4278 -0.1157
25396W        W68309  32.571  27.279  20.989 -0.1972  0.0524 -0.1438
25397W        W68310  23.681  21.743  18.466  0.0775 -0.0738 -0.0608
25398W        W68311  28.310  20.309  23.394 -0.0402  0.0113  0.1447
25399W        W68312  27.425  22.721   0.863 -0.0529 -0.0824 -0.1495
25400W        W68313  24.739  28.907  25.961  0.0284 -0.2396  0.1167
25401W        W68314  16.741  22.967  21.538  0.0876  0.2920 -0.3159
25402W        W68315  26.744  29.389  17.149 -0.1416 -0.1988 -0.2212
25403W        W68316  23.852  28.019   1.264  0.0758 -0.2183  0.1650
25404W        W68317  32.825  19.569  26.354 -0.2441 -0.0306 -0.0640
25405W        W68318  26.545  19.311  13.344  0.1033 -0.0056  0.2303
25406W        W68319  27.142  16.993  18.674  0.4188  0.0917  0.2522
25407W        W68320  24.906  27.939  27.353 -0.3332  0.1137  0.0378
25408W        W68321  17.748  23.614  16.247 -0.1686  0.0515  0.1545
25409W        W68322  31.060  16.850   0.909 -0.0088 -0.1359 -0.3048
25410W        W68323  28.964  26.889   9.124 -0.1195 -0.1588 -0.1035
25411W        W68324  29.168  23.804  24.118  0.1415 -0.2317 -0.2999
25412W        W68325  26.544  28.049  26.492  0.1084 -0.0257 -0.0642
25413W        W68326  31.662  20.671  21.398 -0.0981  0.2824  0.0218
25414W        W68327  24.318  17.093   4.222  0.0569  0.2506  0.1190
25415W        W68328  11.845  19.595  24.494 -0.0396 -0.0147 -0.0491
25416W        W68329   8.778  21.605  15.004 -0.2834 -0.1645 -0.0564
25417W        W68330  18.276  23.760  23.277 -0.2827  0.0894  0.0299
25418W        W68331  26.529  19.928  19.260 -0.1751  0.0574 -0.3854
25419W        W68332  22.911  19.306  24.606 -0.0531 -0.1566 -0.0526
25420W        W68333   2.315  28.362  22.567  0.0273  0.0194  0.2545
25421W        W68334  18.411  18.432  12.645 -0.1115  0.0390 -0.1911
25422W        W68335  21.397  27.313  26.148 -0.0226  0.0722 -0.3467
25423W        W68336  33.043  18.924  29.025 -0.2781  0.1352 -0.0463
25424W        W68337  24.892  17.190  19.406  0.1594  0.0458 -0.1061
25425W        W68338  18.746  20.017  28.861  0.0429  0.0373  0.1876
25426W        W68339  26.281  24.016  15.877  0.0673 -0.1180 -0.2195
25427W        W68340  30.762  17.964  28.178  0.0533 -0.0328  0.3022
25428W        W68341  30.939   0.821  19.097  0.0444 -0.0256 -0.0253
25429W        W68342  19.705  15.774  15.108  0.2621  0.0552  0.0482
25430W        W68343  20.178   0.903  28.500 -0.1161 -0.0969 -0.0824
25431W        W68344  20.852  27.323  27.572  0.0361 -0.1379  0.4550
25432W        W68345   1.989  14.979  15.333 -0.2115 -0.0114 -0.0963
25433W        W68346  26.691  20.247  25.460 -0.0326 -0.4097  0.4703
25434W        W68347  33.397  24.895  19.038 -0.1689 -0.0855 -0.1005
25435W        W68348  19.364  30.506   4.478 -0.1428  0.0575  0.1271
25436W        W68349  33.610  13.856  15.260  0.0567 -0.1476 -0.2843
25437W        W68350  22.280  27.001   2.098  0.0941  0.0200  0.3903
25438W        W68351  33.886  24.700  28.824  0.2870 -0.1873  0.0489
25439W        W68352  25.886  11.805  17.409  0.3800 -0.1112  0.2367
25440W        W68353  30.037  16.066  25.925  0.2189  0.2632 -0.0819
25441W        W68354  16.481  29.561   2.816  0.1051  0.2126 -0.5165
25442W        W68355  16.940  29.737  22.487 -0.1008 -0.0898  0.0755
25443W        W68356  30.225  33.237  21.987 -0.0787  0.0728 -0.0561
25444W        W68357  22.170  26.595  12.886 -0.0741 -0.2347  0.4546
25445W        W68358  26.633  17.296   2.439 -0.2225 -0.0286 -0.1470
25446W        W68359  26.093  28.662  19.089 -0.2096  0.0441 -0.2665
25447W        W68360  21.687   9.196  23.345 -0.2108  0.0186 -0.0306
25448W        W68361  29.669  25.320  20.146 -0.2065  0.0799 -0.0365
25449W        W68362  24.689  32.356  17.563 -0.0343 -0.1420  0.0075
25450W        W68363   6.094  27.774  15.282 -0.0304 -0.3130 -0.1329
25451W        W68364  31.656  23.786  26.629  0.0340  0.1661  0.0868
25452W        W68365  20.433  23.185  26.517  0.0071 -0.0983  0.1260
25453W        W68366  21.830  30.395  20.898  0.2697 -0.2735  0.0680
25454W        W68367  29.997  13.961  25.389  0.2958 -0.1296  0.4481
25455W        W68368  27.397  27.081  25.661 -0.3789  0.0730 -0.2365
25456W        W68369   8.819  19.572   4.239  0.1453  0.1138 -0.3680
25457W        W68370  31.761   2.793  26.050  0.2610  0.3297  0.2437
25458W        W68371  28.151  17.162   2.623  0.3060 -0.0666  0.3093
25459W        W68372  15.194  30.279  26.207  0.4545 -0.1696  0.0331
25460W        W68373   3.539  16.851  22.039  0.1070  0.2725  0.1639
25461W        W68374   2.446  25.488  29.346  0.1568  0.1431  0.0599
25462W        W68375  22.624  27.260   1.769 -0.1740 -0.0576 -0.3340
25463W        W68376  27.177  16.019  26.717  0.1701 -0.0334 -0.0073
25464W        W68377   2.048  25.153  23.076  0.0872  0.0407  0.1402
25465W        W68378   1.014  17.897  26.752  0.3585  0.0370 -0.1581
25466W        W68379   4.650  22.694  18.113 -0.0793 -0.0474  0.0018
25467W        W68380  19.355   2.039   0.067  0.1381  0.4415 -0.1699
25468W        W68381   2.877  19.193  17.167 -0.2193  0.2854 -0.0955
25469W        W68382  33.933  26.247  23.474 -0.2390 -0.2451 -0.2596
25470W        W68383  27.835  26.531  17.416 -0.0649  0.0286 -0.1609
25471W        W68384  31.120  23.398  29.616 -0.1483  0.1122 -0.0909
25472W        W68385  31.389  24.232  27.583 -0.1217 -0.1353  0.4953
25473W        W68386  22.717  14.973  25.592  0.2688 -0.0123 -0.0017
25474W        W68387  25.333  29.068  19.019  0.0999  0.2139  0.0653
25475W        W68388  33.433  23.492  20.753  0.1654 -0.0633 -0.1641
25476W        W68389  22.377  17.401  12.457  0.0040  0.1454  0.0077
25477W        W68390  28.191  25.444  21.230  0.0639  0.4328  0.2350
25478W        W68391  17.655  25.681  19.408  0.3634  0.0509  0.1990
25479W        W68392   0.395  24.887  24.260  0.0432  0.2002  0.1220
25480W        W68393  27.228  31.024  23.547  0.1377  0.2966  0.3104
25481W        W68394  33.536   1.331  16.437  0.1235 -0.0157  0.0056
25482W        W68395  27.134  19.964   2.133 -0.1911 -0.0321 -0.5320
25483W        W68396  21.757  26.025  21.162 -0.2812 -0.0950  0.1667
25484W        W68397   2.284  17.776  17.143 -0.3150 -0.1846  0.2353
25485W        W68398  28.560  20.814   2.797 -0.1828  0.3646 -0.3410
25486W        W68399  13.505  19.373   6.197  0.0480  0.0770  0.0186
25487W        W68400  23.270  20.435  21.222 -0.0406 -0.0772 -0.1025
25488W        W68401  17.331  19.647  13.421 -0.1426 -0.0950  0.3419
25489W        W68402  22.861  23.688  27.107  0.0575  0.1155  0.0479
25490W        W68403  25.377  16.287  27.797  0.2009 -0.3935  0.0178
25491W        W68404  28.575  23.876  29.191 -0.0893 -0.1311  0.0171
25492W        W68405   1.810  10.052  25.288  0.1396  0.2916 -0.1956
25493W        W68406   9.013  18.224  20.241 -0.2095  0.0201  0.2710
25494W        W68407  32.229  33.495   1.112 -0.1813  0.0531 -0.1672
25495W        W68408  13.930  19.806  24.544  0.3199  0.0958 -0.1043
25496W        W68409  15.842  23.633  20.379 -0.1661 -0.4509  0.2149
25497W        W68410  23.136  25.903  25.199 -0.0393 -0.1129  0.0311
25498W        W68411  19.790  21.105  27.031 -0.2967 -0.0198 -0.0043
25499W        W68412  25.408  17.684  29.702 -0.2210  0.0761 -0.0309
25500W        W68413  19.144  24.070  21.244  0.0025  0.0313 -0.0475
25501W        W68414  20.552  27.721  27.631  0.1620  0.0238 -0.0031
25502W        W68415  13.516  24.054  17.384 -0.2912  0.1374  0.0112
25503W        W68416  23.876  21.962  18.971  0.3243  0.3214  0.0094
25504W        W68417  16.951  25.143  27.153  0.0566 -0.1747  0.1347
25505W        W68418   1.539  27.113   3.118  0.2050 -0.0765  0.2628
25506W        W68419  18.464  25.520   2.237 -0.0882 -0.0929  0.0597
25507W        W68420  26.868  31.137  20.787  0.1011 -0.1238  0.0129
25508W        W68421  34.375  14.314  29.413  0.3606  0.0253 -0.2361
25509W        W68422  31.995  23.289  24.827  0.1731 -0.0640  0.0176
25510W        W68423  25.892  31.610  15.714 -0.0282  0.3379  0.0017
25511W        W68424  32.285  27.605  25.785  0.1420  0.0105 -0.3045
25512W        W68425  29.586  22.159  23.499 -0.2622  0.1687 -0.4005
25513W        W68426  22.744  21.882  19.847  0.1239  0.1933  0.1451
25514W        W68427  23.692  27.140   4.468  0.0556 -0.1684 -0.2433
25515W        W68428  15.459  23.807  16.203  0.0866 -0.0734  0.0463
25516W        W68429  22.258  27.442  26.480 -0.0530  0.3203 -0.0598
25517W        W68430  19.370  21.502  16.960  0.0557 -0.1408  0.2339
25518W        W68431  22.761  22.755   3.316 -0.2674  0.0771 -0.0458
25519W        W68432   0.189  23.620  23.391  0.1785  0.1024  0.2004
25520W        W68433  30.385  28.261  27.135  0.3071  0.0957 -0.0777
25521W        W68434  17.153  17.681  26.239  0.1810 -0.2755 -0.2614
25522W        W68435  26.421  23.131  27.722  0.1490 -0.2707  0.0611
25523W        W68436  24.166  26.677  24.563 -0.2167  0.0840 -0.0240
25524W        W68437  24.569  25.184  17.886  0.1130 -0.1674 -0.1289
25525W        W68438   0.520  29.065  19.547 -0.1916 -0.1337 -0.3141
25526W        W68439   4.513  18.806  22.679  0.2111 -0.1329 -0.2361
25527W        W68440  21.255  21.139  18.892  0.0622 -0.0802  0.1226
25528W        W68441  29.797  27.890  21.819 -0.1322  0.2444 -0.1513
25529W        W68442  22.751  16.443  27.297 -0.1049  0.0249 -0.1676
25530W        W68443  28.897  21.963   6.675  0.0542  0.0263 -0.0316
25531W        W68444  24.214  33.943  15.576 -0.1811  0.0179 -0.2511
25532W        W68445  26.894   8.886  23.794 -0.1660  0.0027 -0.1432
25533W        W68446  19.951  27.360  25.775 -0.1910 -0.0362 -0.3136
25534W        W68447  30.055  23.808  23.971 -0.5795 -0.0002 -0.0450
25535W        W68448  29.290  16.305  21.498  0.0623  0.1323  0.1210
25536W        W68449  29.825   0.520  29.201 -0.0002 -0.4028  0.0155
25537W        W68450  28.239  29.160  20.438  0.1779  0.0846 -0.1445
25538W        W68451  26.210  28.468  15.229 -0.0403  0.0441  0.0323
25539W        W68452  29.009  32.822  15.840  0.0503  0.3330 -0.0323
25540W        W68453  30.032  20.922  15.743  0.1971  0.1682 -0.0727
25541W        W68454  30.286   1.574  19.052 -0.0628  0.4189 -0.1919
25542W        W68455  28.819  32.166  27.893  0.0340  0.2688 -0.0148
25543W        W68456  18.788  23.517   2.584 -0.1797  0.1278 -0.1149
25544W        W68457  27.737  29.879  28.635  0.0115  0.3164  0.0006
25545W        W68458  27.722  23.836  14.328  0.1439  0.2233 -0.0242
25546W        W68459  17.944   5.036  21.980 -0.0629  0.0662  0.1158
25547W        W68460  15.185  21.529  18.917 -0.1082  0.0645 -0.0296
25548W        W68461  33.930  19.570  29.700  0.2735 -0.2203  0.0064
25549W        W68462  33.541  13.587  14.291 -0.0123  0.0450  0.1210
25550W        W68463  25.524  23.468  21.986  0.1608  0.1733 -0.0513
25551W        W68464   4.498  20.071   2.735 -0.2261  0.0979 -0.0183
25552W        W68465  24.382  21.586  21.549 -0.0417  0.1720 -0.2399
25553W        W68466  16.156  21.584  18.956  0.2562 -0.1850  0.2315
25554W        W68467  21.266  23.238  19.756 -0.0052  0.1632 -0.1030
25555W        W68468  32.234  20.113  24.961 -0.1690 -0.1648  0.2392
25556W        W68469  23.780  23.300  22.691  0.0818  0.1023  0.1655
25557W        W68470  17.312  12.671  23.061  0.0728 -0.3421 -0.0402
25558W        W68471   0.275  22.718   3.907  0.0681 -0.0909  0.4602
25559W        W68472  25.746  25.483   4.783  0.0489  0.2963 -0.2303
25560W        W68473  23.536  25.665  25.262  0.0217  0.3440 -0.1146
25561W        W68474   1.357  23.258  26.791 -0.0008  0.1406  0.1145
25562W        W68475  19.895  32.221  25.308  0.0655 -0.0695 -0.0887
25563W        W68476  16.137  14.672   1.797  0.1647 -0.2262 -0.0471
25564W        W68477  25.745  11.782   3.935  0.0649  0.3534 -0.1963
25565W        W68478  30.872  17.883  17.611 -0.0548  0.0273  0.1153
25566W        W68479  29.825  19.489  16.090  0.0913  0.0954  0.0009
25567W        W68480  33.719  17.887  22.377 -0.2104 -0.3253 -0.0847
25568W        W68481  28.328  28.505  21.565  0.0219  0.3609  0.2042
25569W        W68482  18.551  20.335   0.918 -0.1882 -0.0764  0.2178
25570W        W68483  25.956  18.418  28.193  0.3091  0.0291 -0.0070
25571W        W68484  21.285  25.371  21.146  0.2364 -0.2008  0.2500
25572W        W68485  24.116  22.067  22.122  0.2806  0.0313  0.1070
25573W        W68486  14.944  23.676  28.270 -0.1719  0.0472  0.0992
25574W        W68487  25.678  25.064  18.752 -0.3313  0.0754  0.0107
25575W        W68488  27.714  23.047  17.656  0.3853  0.0509  0.3690
25576W        W68489  27.089  28.237   1.046 -0.0734  0.1112 -0.1064
25577W        W68490  20.531  26.326  25.683  0.1204 -0.1566  0.2315
25578W        W68491  31.286  15.888   3.854 -0.1602 -0.0122 -0.1552
25579W        W68492  30.041   8.475   1.107  0.5473  0.1622  0.4565
25580W        W68493   1.714  33.243  19.694  0.0040 -0.2833 -0.3686
25581W        W68494  14.992   9.288  26.106  0.0336  0.4705 -0.0829
25582W        W68495  20.640  29.380  21.907 -0.0023  0.1390 -0.0984
25583W        W68496   4.572  17.788  26.131  0.0589 -0.2232  0.0308
25584W        W68497  32.154  24.120  29.371 -0.3974 -0.1385  0.0079
25585W        W68498  28.353  19.483  17.180 -0.2406 -0.0392 -0.2991
25586W        W68499  32.137  28.641  28.523  0.2914  0.1059  0.0662
25587W        W68500  29.001  26.858  17.327 -0.0031  0.1929 -0.0891
25588W        W68501  18.174  24.165  27.730 -0.0954  0.0717  0.0860
25589W        W68502   1.115  24.818   1.585 -0.1556 -0.0220 -0.1954
25590W        W68503  20.655  34.332   1.196  0.0966  0.0937 -0.2742
25591W        W68504  19.274  22.860   1.939 -0.0353 -0.0717  0.4800
25592W        W68505  19.757  19.729   1.556  0.2203  0.3328  0.0045
25593W        W68506   2.007  32.035  25.753 -0.0650  0.1610 -0.3667
25594W        W68507   6.726  26.489   3.354 -0.0602  0.1835 -0.2649
25595W        W68508  28.770  15.528  21.161 -0.0524  0.0628  0.0775
25596W        W68509  25.727  23.096  26.200  0.1085 -0.1680 -0.0200
25597W        W68510  28.231  30.378  27.416  0.1959 -0.2329 -0.0851
25598W        W68511  30.473  26.071   0.943 -0.1119  0.0133  0.0216
25599W        W68512  32.081  25.608  28.426  0.1152  0.1487  0.2299
25600W        W68513  30.349  27.316   4.367  0.2547 -0.1467  0.2129
25601W        W68514  25.899  10.501  15.117  0.2865 -0.2570 -0.3025
25602W        W68515  22.106  20.935  26.334  0.4251 -0.2685  0.1023
25603W        W68516  28.354  17.383  23.911 -0.1437 -0.2136 -0.0101
25604W        W68517  29.122  24.757  26.133  0.0545  0.1729  0.1309
25605W        W68518  20.860  20.025  15.537 -0.0349  0.0463 -0.2533
25606W        W68519  27.862  26.666  21.799 -0.0839 -0.1387  0.0666
25607W        W68520  32.378  25.693  27.988 -0.0138  0.1488  0.2100
25608W        W68521  18.248  23.235  23.203  0.4775  0.1678  0.4633
25609W        W68522  17.608  22.397  23.638  0.1079 -0.0644 -0.3285
25610W        W68523   9.965  16.270   1.431  0.2858  0.1560  0.2553
25611W        W68524  24.035  16.385  22.705 -0.2895 -0.2997  0.2023
25612W        W68525  27.956  26.980   2.221  0.1529  0.0837 -0.0599
25613W        W68526  30.749  31.063  17.183  0.0223  0.1902 -0.2929
25614W        W68527  21.810  19.258   1.997  0.1896  0.3458 -0.1437
25615W        W68528   1.225  24.216  19.374  0.1717  0.1379  0.3129
25616W        W68529  22.332  18.610  16.465  0.0903 -0.0225 -0.4369
25617W        W68530   4.085  29.474   2.088 -0.0079 -0.0758 -0.0772
25618W        W68531  32.696  18.086  26.259 -0.0280 -0.0285  0.0197
25619W        W68532  24.155  29.057   5.050 -0.1059 -0.0690 -0.0516
25620W        W68533   2.037  31.308   0.268  0.1819 -0.2953  0.0015
25621W        W68534  31.023  28.279  16.031  0.1043  0.0027 -0.1204
25622W        W68535  10.055  28.288   1.287 -0.1430 -0.1522  0.2445
25623W        W68536  20.790  22.527  20.355  0.1282  0.3241 -0.2120
25624W        W68537  20.847  12.487  19.700  0.1456 -0.0332 -0.2635
25625W        W68538  29.359  32.232   9.018 -0.1797  0.1764 -0.0351
25626W        W68539  17.747  17.780  25.528  0.1400 -0.1078 -0.1411
25627W        W68540  15.665   8.944  24.783  0.0327 -0.1699  0.1049
25628W        W68541   4.991  21.824   4.258 -0.0095  0.0330  0.2053
25629W        W68542  19.295  29.909  16.140 -0.0826  0.1491 -0.1234
25630W        W68543  18.062  24.463   0.657  0.0433  0.1816  0.4270
25631W        W68544  25.851  20.468  22.895 -0.0659 -0.1076 -0.4416
25632W        W68545  31.027  29.517  29.373 -0.0240  0.0151  0.0340
25633W        W68546  20.340  22.982  23.525  0.3685  0.2017 -0.0370
25634W        W68547  24.072  28.118  25.760  0.0253  0.2403 -0.1606
25635W        W68548  19.917  22.760  15.769 -0.0466 -0.3695  0.1617
25636W        W68549  30.000  22.536   1.185  0.0543 -0.0164  0.0667
25637W        W68550  26.513  32.048   2.706  0.0542  0.0620  0.1358
25638W        W68551  22.033  19.734  22.779 -0.0739  0.4000  0.1019
25639W        W68552  20.365  19.367   0.520  0.1258  0.1081 -0.0811
25640W        W68553  29.613  29.805  27.725  0.2579 -0.1720 -0.1518
25641W        W68554  29.866  27.590  14.045 -0.1489 -0.1076 -0.0142
25642W        W68555  21.804  27.947  20.700  0.0175 -0.2864 -0.0468
25643W        W68556  32.185  18.301   0.288 -0.2168 -0.1851 -0.1410
25644W        W68557  12.684  26.943  22.152  0.0320  0.2657  0.1840
25645W        W68558  16.695  27.728   4.787  0.1889  0.2755  0.3228
25646W        W68559  16.812  21.231  20.971  0.0732  0.1706  0.0559
25647W        W68560  21.178  18.266  27.675  0.1293 -0.0813 -0.2744
25648W        W68561  28.904  27.741  28.830  0.1296  0.1596  0.3008
25649W        W68562  26.319  24.783   7.218 -0.1181  0.1631  0.0774
25650W        W68563  18.048  27.177   0.635 -0.0338 -0.2937  0.0683
25651W        W68564   4.902  17.439  22.994  0.2425 -0.3379  0.0034
25652W        W68565  28.977  31.917  27.324 -0.1136  0.0858 -0.1378
25653W        W68566  25.440  23.865  15.538 -0.0473 -0.1139 -0.1996
25654W        W68567  21.619   1.105   3.518  0.0693 -0.0943 -0.0212
25655W        W68568  33.829  25.220  25.800 -0.0354  0.1084 -0.0882
25656W        W68569  34.096  27.817   0.107 -0.1715 -0.0062  0.0231
25657W        W68570  27.148  32.728   8.939  0.2068 -0.3355  0.2413
25658W        W68571  20.076  18.189   4.597  0.1767 -0.1534  0.2314
25659W        W68572  26.028  26.450  21.485 -0.1495  0.2752  0.0801
25660W        W68573  33.852  27.281  23.438  0.2674  0.1701 -0.0337
25661W        W68574  19.445  31.105  25.528 -0.3296  0.2012 -0.1532
25662W        W68575  21.845  25.392  18.986  0.0463  0.1612 -0.0446
25663W        W68576   2.379  32.230  19.757 -0.0810  0.2251  0.1149
25664W        W68577  17.779  14.129  27.648  0.1651  0.0381  0.3643
25665W        W68578  23.411  21.634  26.162 -0.0129 -0.2106  0.2476
25666W        W68579  17.587  31.035   1.335 -0.0678  0.2410 -0.0646
25667W        W68580  15.270  29.368  27.910  0.0147  0.0419  0.0507
25668W        W68581  31.296  17.032  24.930 -0.2114  0.0522 -0.1947
25669W        W68582   0.108  30.147  26.657  0.3543  0.1308 -0.2100
25670W        W68583  17.882  27.261  23.460  0.0273 -0.2853 -0.1313
25671W        W68584  16.309  27.313  23.361  0.0188  0.0293 -0.1331
25672W        W68585  15.767  30.955  26.009 -0.0273 -0.1774 -0.2179
25673W        W68586   9.615  26.829  29.457  0.0318 -0.0862  0.2105
25674W        W68587  31.194  18.164  28.160 -0.4497  0.2369  0.2978
25675W        W68588  32.931  17.131   4.402 -0.0865  0.0690 -0.1890
25676W        W68589  24.148  28.339   2.828  0.0273  0.1659  0.2919
25677W        W68590  27.420  31.077  29.233  0.1675 -0.0424 -0.1124
25678W        W68591  26.032  29.141  28.598 -0.0168 -0.1494  0.0474
25679W        W68592  34.325  22.896  23.138 -0.1677  0.4207  0.0076
25680W        W68593  23.655  16.609   1.165 -0.1371  0.0276  0.0685
25681W        W68594   2.108  24.212   2.627  0.0598 -0.0209  0.1664
25682W        W68595  27.496  22.514   3.778  0.1025 -0.2646  0.2607
25683W        W68596  19.698  28.206  26.521  0.0142 -0.2546 -0.0666
25684W        W68597  21.128  29.054  26.672 -0.0403  0.0752  0.3642
25685W        W68598  23.213  17.563  22.316  0.0613  0.0551 -0.2350
25686W        W68599  17.076  32.738   7.233 -0.1078  0.4763 -0.3633
25687W        W68600  19.405  23.760  20.064 -0.2843 -0.0479  0.1794
25688W        W68601  20.774  17.270   4.494 -0.3391  0.1141 -0.3020
25689W        W68602  32.634  27.551  27.048 -0.0800 -0.0912 -0.3087
25690W        W68603   2.754  33.304  27.351 -0.1805 -0.0438  0.0530
25691W        W68604  22.221  29.908   6.140  0.1420  0.0465  0.2185
25692W        W68605  30.136  25.851  24.138 -0.2789 -0.1037  0.1162
25693W        W68606  19.654  19.868  29.481  0.0376  0.2710  0.2018
25694W        W68607  15.139  23.648  22.524 -0.0802  0.1462  0.1585
25695W        W68608  25.682  26.688  24.692 -0.0191 -0.0472 -0.1224
25696W        W68609  22.163  20.650  13.001  0.3000  0.1251  0.2658
25697W        W68610   1.772  31.570  23.411  0.0040 -0.1432  0.0119
25698W        W68611   1.359  23.059   9.491  0.0261  0.0905  0.0740
25699W        W68612  30.318   0.715   2.103 -0.0988 -0.2492 -0.1814
25700W        W68613  29.526  17.336   5.092 -0.2545  0.2057 -0.1166
25701W        W68614  28.940   1.594  25.227 -0.0613  0.2116 -0.0988
25702W        W68615  27.796  21.725  28.759  0.0294  0.1932 -0.3228
25703W        W68616  30.454  18.512  20.964  0.2365 -0.0867 -0.1823
25704W        W68617  23.511  25.131  24.451 -0.1036  0.0318  0.1900
25705W        W68618  30.849  33.518   0.258  0.0135  0.2418  0.1595
25706W        W68619  17.720  32.085   1.073  0.0125  0.1678 -0.3450
25707W        W68620  18.875  26.555   4.686  0.2602 -0.3553 -0.3616
25708W        W68621  19.039  29.855   7.010  0.1357 -0.1208 -0.1192
25709W        W68622   2.527  17.388  21.592 -0.0518  0.1902 -0.0039
25710W        W68623  22.309  10.177  20.716  0.1249  0.1568 -0.0636
25711W        W68624  21.434  33.172  28.389  0.3253 -0.0528  0.0779
25712W        W68625  24.785  18.396  24.982 -0.5511 -0.1623  0.0691
25713W        W68626  10.275  25.110  28.606  0.3364 -0.2355 -0.0924
25714W        W68627  28.567  31.254  27.050 -0.0023  0.0380 -0.0779
25715W        W68628   8.851  19.760   8.639 -0.1029  0.1544  0.0960
25716W        W68629  22.467  17.065  22.133  0.0855  0.0333 -0.0458
25717W        W68630  14.251  18.259  16.054  0.4061  0.1278 -0.0185
25718W        W68631  20.313  28.741   0.177  0.0107 -0.1471 -0.2841
25719W        W68632  18.292  24.636  21.656 -0.1465  0.0041  0.2958
25720W        W68633  25.315  23.893  14.927 -0.2120  0.4050 -0.4054
25721W        W68634  33.584  19.525   0.389  0.1765 -0.0886 -0.1153
25722W        W68635  31.632  28.728  21.820 -0.0872  0.0373 -0.0914
25723W        W68636  26.970  31.764   0.458 -0.0469  0.3144  0.0876
25724W        W68637  23.741  19.318  24.308 -0.0888 -0.1135  0.1021
25725W        W68638   0.349  19.932  29.663 -0.1695 -0.1333  0.1677
25726W        W68639  33.055  32.682   3.385 -0.1611  0.1525  0.0917
25727W        W68640  32.591  25.393  23.189  0.0155 -0.2187  0.0225
25728W        W68641  29.663  18.113  23.328  0.3188 -0.1819 -0.0194
25729W        W68642  23.003   2.349   3.343 -0.1942  0.2961  0.3719
25730W        W68643  30.158  17.344  29.221  0.0724  0.5612  0.1895
25731W        W68644  31.503  28.080  27.883  0.1959  0.1369 -0.2097
25732W        W68645  32.631  30.989   9.080 -0.4652 -0.1674  0.5688
25733W        W68646  23.006  13.408  16.242  0.0169  0.0191  0.2414
25734W        W68647  29.232  23.239  28.775  0.0354 -0.0868 -0.1740
25735W        W68648   1.505  23.777   1.152  0.0481 -0.2882  0.0309
25736W        W68649  31.739  24.763  28.069  0.1669  0.0022  0.2098
25737W        W68650  25.091  18.718   3.688 -0.0232  0.0032  0.0378
25738W        W68651  28.725  32.923  28.490  0.4598 -0.1568 -0.5260
25739W        W68652  24.528  23.411   2.778 -0.0081  0.1032 -0.0511
25740W        W68653   0.542  17.702   2.070 -0.4114 -0.1899 -0.1229
25741W        W68654  28.116  22.001   3.272  0.0361 -0.0571 -0.3931
25742W        W68655  11.810  18.009  18.887  0.1640  0.0311 -0.1751
25743W        W68656  24.798   4.037  14.911  0.2509  0.0710 -0.1584
25744W        W68657  22.978  22.984  24.812  0.3545  0.4242  0.0119
25745W        W68658   8.930  21.435   3.646  0.2030 -0.3689  0.2836
25746W        W68659  30.227  22.310  14.079 -0.2616  0.2262 -0.2993
25747W        W68660  27.066  24.593   2.428 -0.1983  0.1229  0.1826
25748W        W68661  20.208  20.177  19.562  0.1396 -0.0971 -0.1335
25749W        W68662  21.012  29.862  24.571 -0.1308  0.0990  0.3926
25750W        W68663  13.542  30.881   7.912  0.2929 -0.1457  0.3541
25751W        W68664  19.427  33.598   0.607 -0.0811  0.1172 -0.0085
25752W        W68665  26.366  28.668  22.575  0.2534 -0.2679  0.1304
25753W        W68666   3.430  18.509  26.438  0.3054 -0.2995 -0.0421
25754W        W68667   4.705  19.140   0.150 -0.0725 -0.0858  0.1351
25755W        W68668  20.425  25.092  26.249  0.2058  0.1991  0.0532
25756W        W68669  26.751  20.941   2.081  0.1603 -0.1451  0.0790
25757W        W68670  27.994  25.010  23.674 -0.0197 -0.3005 -0.0906
25758W        W68671  28.065  23.432   4.133  0.1984  0.0532  0.0816
25759W        W68672  14.522   5.139  19.383 -0.0208 -0.2109  0.3680
25760W        W68673  24.930  32.138   4.915 -0.0471 -0.2028 -0.0127
25761W        W68674  28.155  30.516  29.670  0.1553  0.0757  0.1722
25762W        W68675  20.507  16.273   5.498 -0.0853  0.1493  0.1888
25763W        W68676  19.730  25.284  24.759  0.1435  0.1649 -0.3139
25764W        W68677  22.513  26.338  25.404 -0.3016 -0.0148  0.1941
25765W        W68678  28.530  32.271   5.023  0.0737  0.1296  0.0313
25766W        W68679  28.553  24.805   5.176 -0.1006  0.1917 -0.1188
25767W        W68680  26.305  22.271  15.336  0.0209 -0.0952 -0.0801
25768W        W68681  18.980  16.088   4.666  0.3781  0.1135  0.2161
25769W        W68682  32.017  29.134  28.412 -0.1671 -0.0855 -0.0446
25770W        W68683  33.113  23.954  21.730  0.0519  0.1829  0.0058
25771W        W68684  21.051  25.046  16.714  0.1700 -0.1494 -0.2936
25772W        W68685  24.046  23.605  25.643  0.0410 -0.0138 -0.0026
25773W        W68686  24.414   1.216  28.675  0.0606  0.1280 -0.2463
25774W        W68687   4.572  29.568   5.905 -0.2050  0.0633  0.1055
25775W        W68688  20.902  15.103  15.225 -0.0620 -0.0609  0.2711
25776W        W68689  26.746  33.804   1.258  0.3350  0.1350  0.0452
25777W        W68690  19.536  23.521  23.553 -0.1272  0.0736  0.2527
25778W        W68691  23.098  32.623   2.045  0.1115 -0.0801 -0.0789
25779W        W68692  26.258  23.180  19.424  0.1667  0.0473  0.4486
25780W        W68693  26.904  20.303  23.619 -0.0409 -0.0843 -0.2099
25781W        W68694  11.753  28.270   5.668 -0.0648  0.1237  0.0522
25782W        W68695  21.544   9.916   7.145  0.0102 -0.0277 -0.0995
25783W        W68696  29.355  19.450   1.700 -0.0505 -0.0412 -0.0388
25784W        W68697  18.051  23.628  19.215 -0.1687  0.0140 -0.1394
25785W        W68698   3.571  19.340  18.614 -0.4060  0.2840 -0.1154
25786W        W68699  31.666  26.029   0.964  0.2688  0.4558  0.0311
25787W        W68700  16.721  28.108  26.911  0.1140 -0.1806 -0.2333
25788W        W68701  29.234  28.396  26.556 -0.3172  0.1125  0.1266
25789W        W68702  21.447   0.674   4.778 -0.2315  0.3485 -0.3137
25790W        W68703  20.606  27.632  26.316 -0.0368 -0.3744  0.3980
25791W        W68704  13.695  32.493  25.252 -0.3722 -0.0465  0.0334
25792W        W68705  18.877  21.850  23.614 -0.2405 -0.1702 -0.1806
25793W        W68706  14.703   3.995   3.493  0.0362 -0.1218 -0.0954
25794W        W68707  23.476  33.830   4.649  0.2892  0.1328  0.4431
25795W        W68708  29.993  13.104  25.643  0.0496  0.0793  0.1395
25796W        W68709  23.860  26.680  19.583 -0.2072  0.2360  0.0407
25797W        W68710  31.485   3.851   5.315 -0.0843 -0.1400  0.1715
25798W        W68711  24.497  17.106  25.985 -0.0596 -0.1384  0.1172
25799W        W68712  23.294  24.042  25.249  0.0052 -0.5998  0.2083
25800W        W68713  30.997  16.851  20.233  0.1564  0.1294 -0.2026
25801W        W68714  27.538  28.255  28.212  0.1548 -0.1196 -0.0623
25802W        W68715  26.298   7.087  24.689  0.2014 -0.2109 -0.1943
25803W        W68716   8.214  18.957  20.705 -0.1692 -0.2098 -0.1376
25804W        W68717  20.345  30.500  17.771  0.0338  0.1299 -0.0096
25805W        W68718  21.047  26.649  27.458 -0.0358 -0.0035 -0.3097
25806W        W68719  23.617  20.840   1.920  0.0144  0.0915 -0.1385
25807W        W68720  25.965  34.027   8.402 -0.1278  0.1553 -0.2085
25808W        W68721   1.093  29.023  14.146  0.0290  0.2017 -0.0553
25809W        W68722  31.790  17.849   9.074  0.3246 -0.0350 -0.1073
25810W        W68723  21.974   0.774  27.399  0.1192  0.1448  0.3399
25811W        W68724  26.540  18.199  27.278  0.0154  0.2097 -0.0233
25812W        W68725  31.835  18.919   1.998 -0.3093 -0.2165  0.2069
25813W        W68726  24.189  29.823  28.425  0.1478 -0.1275 -0.1591
25814W        W68727  29.548  31.805   3.498 -0.0390 -0.0587 -0.1515
25815W        W68728  29.717   2.947  18.347 -0.0043  0.0442  0.0314
25816W        W68729  25.243   1.112   9.029 -0.2243  0.0502 -0.0265
25817W        W68730  26.332  26.849  25.432  0.1636  0.0133  0.2143
25818W        W68731  20.094  20.727   6.806  0.2269  0.2910  0.0189
25819W        W68732  18.391  21.042  20.303 -0.1071  0.0522  0.1681
25820W        W68733  15.277  21.901   3.364  0.2482  0.2276  0.1867
25821W        W68734  27.991  18.074   3.934  0.1741 -0.0046 -0.1930
25822W        W68735  27.623  27.746  23.632  0.0177  0.0176  0.0380
25823W        W68736  22.362  24.168   3.196 -0.1627 -0.3103  0.0049
25824W        W68737  17.631  22.692  19.371 -0.1994  0.1032 -0.2240
25825W        W68738   1.648   0.058  25.405 -0.0890  0.2145  0.0827
25826W        W68739  29.796  23.485  29.663 -0.0232  0.0785  0.2642
25827W        W68740  21.848   1.384   0.889 -0.0325 -0.1165  0.1215
25828W        W68741  31.056  26.032   4.956  0.0100  0.0194 -0.5971
25829W        W68742  30.452  28.388   4.408  0.0123 -0.0934 -0.1439
25830W        W68743  30.480  24.721   3.276 -0.0294  0.1602  0.0918
25831W        W68744  23.456   0.546   8.815  0.2377  0.0340 -0.0339
25832W        W68745   4.824  33.128   5.265  0.0598 -0.0428  0.3151
25833W        W68746  32.248  14.718  20.995 -0.0182  0.0781 -0.3125
25834W        W68747  23.161  33.487   5.593  0.1055 -0.0142  0.0235
25835W        W68748  33.496  13.365  22.198 -0.1091 -0.4502 -0.0596
25836W        W68749  23.367  22.595  20.687 -0.0581 -0.1108 -0.1384
25837W        W68750  28.517  19.526  16.037 -0.1760  0.1092 -0.0103
25838W        W68751  10.151  25.860  25.689 -0.0220  0.0824 -0.0557
25839W        W68752  22.116  23.065  23.067 -0.0166 -0.0568  0.5089
25840W        W68753  27.519  18.598  19.261  0.1433 -0.1443 -0.1252
25841W        W68754   0.494  25.202   0.234  0.2707  0.1609 -0.1273
25842W        W68755  31.114  21.565   9.790  0.0010  0.2363 -0.1556
25843W        W68756  27.354  28.808  22.061 -0.3707 -0.0818  0.1406
25844W        W68757  27.086  24.325   7.790 -0.0538 -0.2052 -0.0195
25845W        W68758  17.533   2.245  15.111  0.1329  0.2556  0.1075
25846W        W68759   0.889  16.324  25.320 -0.0884  0.2975 -0.2649
25847W        W68760  32.968  12.719  26.353 -0.0774 -0.2182 -0.0454
25848W        W68761  31.049  31.997   0.432 -0.0746 -0.0372  0.0821
25849W        W68762  26.389   2.131  26.426  0.1485 -0.3372 -0.0685
25850W        W68763  17.570  21.856   0.235 -0.3565 -0.4749 -0.2682
25851W        W68764  13.520  27.370   9.223  0.2038 -0.3421  0.1136
25852W        W68765  31.054  31.557  22.477  0.2146  0.2922 -0.0458
25853W        W68766  31.600  21.073   1.001 -0.1949 -0.0324  0.0663
25854W        W68767   3.722  24.625   3.234 -0.1839 -0.2722  0.1232
25855W        W68768  23.391  26.315   2.433 -0.0880 -0.2211  0.0402
25856W        W68769  33.351  31.017   0.518  0.0368  0.1733 -0.2122
25857W        W68770  18.322  17.951   2.013  0.2884  0.0458 -0.0715
25858W        W68771  24.342  17.341  26.888  0.1884 -0.2708  0.2646
25859W        W68772  31.519  30.339  27.621  0.0593 -0.3538  0.2865
25860W        W68773  16.362  21.750  22.958  0.0419 -0.2504 -0.1492
25861W        W68774   4.226  24.899  25.446  0.0278  0.2068 -0.2451
25862W        W68775  18.215   4.648  26.004 -0.1367  0.0715  0.0506
25863W        W68776  31.802  25.130  23.694 -0.1073 -0.1892  0.2455
25864W        W68777  28.991  25.359   1.057  0.0419  0.1393  0.4282
25865W        W68778  27.365  32.591   0.264  0.1487 -0.1785 -0.2288
25866W        W68779  24.820  17.771  27.575  0.0636  0.1836  0.1580
25867W        W68780  32.534  17.989  19.208 -0.3304  0.0254 -0.0804
25868W        W68781  20.865  29.292  26.281  0.0803 -0.4555 -0.0603
25869W        W68782  28.268   4.850   7.094 -0.3234 -0.2451  0.1991
25870W        W68783  25.818  17.491  27.619  0.0611  0.1325  0.1330
25871W        W68784  29.774  30.259  25.143  0.0883 -0.3820 -0.0440
25872W        W68785  24.422  15.221  26.542  0.0488 -0.0414  0.0773
25873W        W68786  28.002  24.413  23.885  0.1774 -0.0211  0.1294
25874W        W68787  24.071  30.941  21.842 -0.0730  0.0138 -0.2086
25875W        W68788  31.914  15.340  24.316  0.0767 -0.1393  0.3156
25876W        W68789  25.237  17.001  24.552 -0.0798 -0.0992  0.1150
25877W        W68790  22.829  16.708   4.505  0.0040 -0.2479 -0.2272
25878W        W68791   2.951  19.077   3.677  0.1705  0.0975 -0.3674
25879W        W68792  22.834  22.940  27.117 -0.1312  0.2539  0.0734
25880W        W68793  22.746  23.432  24.766  0.0180  0.2003 -0.0703
25881W        W68794  26.841  26.852   0.747  0.1028  0.0754 -0.2206
25882W        W68795   1.140  32.694  19.702  0.0445 -0.0715  0.0250
25883W        W68796  24.853  12.534  24.149  0.2121  0.3270  0.0125
25884W        W68797   2.336  17.768  26.191  0.0040  0.0890 -0.0693
25885W        W68798  26.704  26.461  22.759 -0.1928 -0.1875 -0.2301
25886W        W68799  20.512  11.290  23.767 -0.1677  0.0475 -0.2880
25887W        W68800  20.510   1.672   1.120 -0.0558  0.2344 -0.0651
25888W        W68801  24.637  17.937  20.466 -0.0532 -0.0136 -0.1969
25889W        W68802   2.806  15.215  23.719  0.1037 -0.0740 -0.1119
25890W        W68803  26.889  15.057  19.478 -0.0207 -0.0468 -0.0845
25891W        W68804  21.831  26.779   2.701  0.1543  0.2225  0.0130
25892W        W68805  23.184  18.102   4.020  0.1012  0.1984  0.3214
25893W        W68806  28.807  32.142  22.249  0.2968  0.1100  0.1838
25894W        W68807  26.167   2.816   7.522 -0.2117 -0.3967 -0.0331
25895W        W68808  27.736  17.054  24.550 -0.0238 -0.1889  0.1290
25896W        W68809  26.107  19.975   1.417 -0.2255 -0.1306 -0.0940
25897W        W68810  18.931  21.026  20.052 -0.1446 -0.0828  0.0780
25898W        W68811  23.262   4.991   0.304 -0.2306 -0.1014 -0.0253
25899W        W68812  27.414  13.187  21.072 -0.1393 -0.1964 -0.0496
25900W        W68813  31.459  17.465   1.970  0.4032 -0.0761 -0.0576
25901W        W68814  20.760  20.316  19.313 -0.0564  0.1477  0.1059
25902W        W68815  22.276  17.925  25.485 -0.0076  0.4362 -0.0370
25903W        W68816  28.883  19.629  25.416 -0.0096 -0.1995 -0.1513
25904W        W68817  26.494  25.863  17.627 -0.1561  0.2830  0.2212
25905W        W68818  22.209   0.969  25.787  0.2333  0.4517 -0.0981
25906W        W68819  22.295  32.106  21.584 -0.1242  0.0542  0.4261
25907W        W68820  13.583  17.746  26.902  0.2087  0.3876  0.0183
25908W        W68821  21.537  21.737  24.925  0.4244 -0.1675 -0.0302
25909W        W68822  29.922  28.585  25.046  0.0859 -0.0597  0.2906
25910W        W68823   0.010  28.127  14.777 -0.0106 -0.0987  0.0134
25911W        W68824  32.744  25.643   6.378  0.2761 -0.1919  0.1096
25912W        W68825  28.795  29.310   2.790 -0.1496 -0.2053  0.0428
25913W        W68826  33.721  17.633   1.321 -0.2300  0.0346  0.1494
25914W        W68827   2.740  24.979   3.274  0.1883 -0.1708  0.1047
25915W        W68828  12.666  23.552  28.099 -0.2826  0.0580  0.2000
25916W        W68829  17.768  19.423  23.721 -0.0856 -0.0555 -0.2481
25917W        W68830   7.294  20.543   4.749 -0.1033 -0.0665  0.1158
25918W        W68831  28.181  20.842  23.123  0.3079 -0.0240  0.0306
25919W        W68832  31.681  29.604  25.263 -0.0804  0.1651 -0.1187
25920W        W68833  28.609  33.195   3.118  0.2825 -0.0994  0.0465
25921W        W68834  30.092  21.599   1.507  0.2177  0.1990 -0.1910
25922W        W68835  22.643  25.564   8.099 -0.0027  0.0388 -0.2032
25923W        W68836   1.065  24.556  19.906  0.2701 -0.1521  0.0592
25924W        W68837  25.599  17.396   5.086  0.1873 -0.2055  0.1259
25925W        W68838  33.066  28.477   5.255 -0.1681 -0.0127 -0.1662
25926W        W68839  25.706  24.053  19.731  0.2728 -0.3688 -0.0976
25927W        W68840  28.856  30.832  15.501  0.1722 -0.0061  0.0947
25928W        W68841  33.995  31.442   3.372 -0.2699  0.3757 -0.2367
25929W        W68842  33.191  26.481   6.265 -0.0508 -0.3984 -0.5077
25930W        W68843  27.974  32.733  21.314  0.2690 -0.0431 -0.3562
25931W        W68844  28.747  20.788   1.723 -0.0178  0.0583  0.2444
25932W        W68845   2.984  20.149  24.095 -0.1616  0.0361 -0.2000
25933W        W68846   3.215  30.999  20.699 -0.0578  0.0002 -0.1565
25934W        W68847  24.342  19.756   1.371 -0.0374  0.0411  0.0723
25935W        W68848  21.486  17.702  27.275  0.0046  0.0852  0.0895
25936W        W68849   3.679  25.918  17.335  0.1476  0.0760  0.0695
25937W        W68850  28.538  27.175  28.044  0.1922  0.0253 -0.1075
25938W        W68851  17.461  18.458  22.808  0.1117  0.0298  0.0986
25939W        W68852   1.859  29.566  18.425  0.0164 -0.2706 -0.0903
25940W        W68853  28.320  23.927  20.800 -0.4557  0.2551  0.0492
25941W        W68854  23.855  18.502  25.296  0.3463  0.0524 -0.1630
25942W        W68855   1.921  28.678   2.077  0.0825 -0.1158  0.2236
25943W        W68856  26.182  28.289  24.488  0.0292 -0.2081 -0.1518
25944W        W68857  31.080  30.341   8.488  0.2994 -0.0254  0.1146
25945W        W68858  31.707  18.394   6.724 -0.0408  0.1174  0.0459
25946W        W68859  27.683  32.167  19.384  0.0193 -0.2071 -0.1267
25947W        W68860  25.247   2.100   9.179  0.0200  0.1749  0.3023
25948W        W68861  12.486  15.802  23.006 -0.1055  0.1462  0.0846
25949W        W68862  23.643  29.271  13.202 -0.3666  0.1671  0.0488
25950W        W68863  20.451  28.267  25.490 -0.1607  0.0384  0.2952
25951W        W68864   1.038  27.406   0.872  0.0780 -0.0548 -0.2400
25952W        W68865  16.980  32.363   1.530  0.3595  0.0742 -0.2444
25953W        W68866  27.260  22.225  22.614  0.1158 -0.1038  0.0433
25954W        W68867  20.726  19.846   5.987 -0.6292  0.1248  0.3192
25955W        W68868  24.418  24.875   6.393 -0.0925  0.0547  0.0805
25956W        W68869  30.522  26.174   8.212 -0.5075  0.2344  0.1246
25957W        W68870  22.454  24.603  27.463 -0.1644  0.3041 -0.1506
25958W        W68871  26.962  30.087  26.802  0.0628  0.5468  0.1040
25959W        W68872  16.456  23.225  27.597  0.0501  0.2178  0.0737
25960W        W68873   5.057  22.467   3.692  0.2793  0.1834 -0.2423
25961W        W68874  24.379  15.058   1.193 -0.0156  0.0831 -0.0929
25962W        W68875  20.467  28.210  27.649  0.2802 -0.0479 -0.0411
25963W        W68876   1.240  33.650  17.157  0.2665 -0.5501 -0.1938
25964W        W68877  30.516  16.721  20.288  0.2937  0.1789  0.0560
25965W        W68878  19.508  19.244   0.701 -0.0401  0.2874  0.0440
25966W        W68879  19.513  22.862  25.879 -0.1373  0.1995  0.0007
25967W        W68880  20.516  22.652  26.464 -0.0185 -0.2456 -0.0932
25968W        W68881  33.972  28.062   2.684 -0.2417 -0.2022 -0.3114
25969W        W68882  23.478  30.421  23.346 -0.0388 -0.1124 -0.0791
25970W        W68883  25.662  17.366   7.712  0.0020  0.1288  0.2423
25971W        W68884  26.038  30.702  23.043  0.0669 -0.3427 -0.0429
25972W        W68885   3.666  26.090  27.060 -0.3166 -0.0738 -0.0123
25973W        W68886  21.536  20.313  27.566  0.1419  0.1080 -0.1521
25974W        W68887  22.591  22.396   1.252 -0.2642  0.0650 -0.0231
25975W        W68888  26.367  29.515  28.754 -0.1356  0.0386 -0.0667
25976W        W68889  22.379  27.285   1.306  0.1767 -0.0967  0.1667
25977W        W68890  32.434  34.316   5.435  0.2915  0.1223 -0.3857
25978W        W68891  27.771  32.742   3.178  0.1339  0.2831 -0.0488
25979W        W68892  28.825  18.458   5.082  0.1472 -0.0727 -0.3521
25980W        W68893  22.043  21.755  21.896 -0.1702 -0.3306 -0.0907
25981W        W68894  32.088  13.962  29.072 -0.0782  0.0628 -0.2121
25982W        W68895  27.575  25.704   7.383  0.1072 -0.2830 -0.0328
25983W        W68896  16.453  25.926  22.821 -0.2842  0.3026 -0.0221
25984W        W68897  29.750  25.169   8.102 -0.1091  0.2619 -0.0830
25985W        W68898  23.455   8.063   0.016 -0.0757  0.1405 -0.0050
25986W        W68899  28.559  22.550  28.060 -0.0111  0.1410 -0.0461
25987W        W68900  20.791  14.770   1.972 -0.2477  0.1603  0.1032
25988W        W68901  26.601  26.444   5.692  0.0394  0.0719 -0.1292
25989W        W68902  31.170  24.364  20.556 -0.0144 -0.3119  0.0672
25990W        W68903  27.753  22.392  23.299  0.4547 -0.0216 -0.0299
25991W        W68904  21.676  18.184  27.753  0.1438 -0.0448  0.0143
25992W        W68905  16.428  28.434  26.662  0.2419  0.2903  0.1410
25993W        W68906  29.608  25.865  26.181  0.1864 -0.1539 -0.3030
25994W        W68907  18.245  21.689   0.347  0.0981 -0.0320 -0.0899
25995W        W68908  24.774  27.035  27.224  0.2270  0.2780 -0.2565
25996W        W68909  15.309  23.808   0.133  0.0381  0.0414  0.3830
25997W        W68910  26.940  18.005  23.964 -0.0307  0.2188  0.0442
25998W        W68911  32.784  15.580  28.490 -0.0185 -0.0334  0.0325
25999W        W68912  23.758  20.579   4.232 -0.0454 -0.2770 -0.0141
26000W        W68913   9.268  11.967  25.852 -0.0636 -0.0566 -0.1745
26001W        W68914  25.015  33.199   4.347  0.2385 -0.1422  0.1070
26002W        W68915  34.336  25.454   8.451  0.2346 -0.2427  0.1540
26003W        W68916  16.800  31.187  24.804  0.5133  0.0665 -0.1202
26004W        W68917  27.484  15.519  27.452  0.4343 -0.0122 -0.3702
26005W        W68918  30.911  14.059  25.234  0.2240  0.0167  0.1904
26006W        W68919  23.474  24.166  29.700 -0.0937  0.0169 -0.1325
26007W        W68920  16.895   0.925   6.608 -0.1146  0.3725 -0.1893
26008W        W68921  12.596  23.813   0.566  0.1059 -0.0123  0.3732
26009W        W68922  21.049  17.071  23.108  0.0670 -0.0003  0.0125
26010W        W68923  15.011  28.072  18.343  0.1579  0.1410 -0.0234
26011W        W68924  27.720   9.031   2.181 -0.0103  0.1324 -0.0652
26012W        W68925  25.148  29.197  27.939  0.2606 -0.0494  0.0141
26013W        W68926  17.228  14.013  15.847  0.0877  0.2922  0.0680
26014W        W68927  29.309   2.002   3.288  0.0015 -0.3906 -0.1981
26015W        W68928  18.261  31.035   2.977  0.1312 -0.1880 -0.3812
26016W        W68929  33.471  21.264  22.481 -0.0130 -0.0863 -0.0731
26017W        W68930  32.480   4.283   5.147 -0.3252 -0.0433 -0.0729
26018W        W68931  16.578  32.087  18.254 -0.3375  0.1103  0.0041
26019W        W68932   5.095  33.282   0.866 -0.0873 -0.0259  0.2635
26020W        W68933  23.654  28.984  24.521  0.4053  0.0709 -0.0768
26021W        W68934  32.957  29.796  16.318 -0.2437  0.2456  0.0293
26022W        W68935  23.910  27.079  17.633 -0.2888  0.0351  0.1050
26023W        W68936  23.109   2.864  15.025 -0.3097 -0.0763 -0.0864
26024W        W68937  31.538  24.098  20.738  0.0441 -0.1346 -0.1883
26025W        W68938  32.386  28.920  21.829 -0.0803 -0.1840  0.0146
26026W        W68939   2.871  14.230  14.476  0.1066  0.2138  0.0589
26027W        W68940  23.201   3.423  20.435  0.1637 -0.1644  0.1491
26028W        W68941  29.577  18.398  25.936 -0.0667  0.1544  0.0990
26029W        W68942  22.516  28.913  17.884 -0.2521 -0.0864  0.0449
26030W        W68943  33.653  33.574  21.535  0.0031 -0.2252 -0.0210
26031W        W68944  32.585  23.830  21.725 -0.0353 -0.1607 -0.3043
26032W        W68945  24.764  27.346  19.913 -0.0331  0.0312 -0.2710
26033W        W68946  17.902  25.135  18.094  0.3460  0.2370  0.1364
26034W        W68947  24.609  21.834  13.296  0.1508 -0.0769 -0.2777
26035W        W68948  27.871  24.798  24.194  0.1843  0.1959 -0.1526
26036W        W68949  28.640  26.667  13.571 -0.1782  0.2526  0.2743
26037W        W68950  30.351  16.347  20.818 -0.3015  0.0904 -0.2628
26038W        W68951  29.708   2.535  16.499 -0.1398 -0.0038  0.3270
26039W        W68952  14.269  27.458  17.712  0.0664 -0.0099 -0.0984
26040W        W68953  25.975  18.129  12.746  0.2111 -0.0948 -0.3859
26041W        W68954  33.623  25.327  19.152  0.0338  0.0471 -0.1853
26042W        W68955  23.614  18.342  15.691 -0.1669 -0.1076 -0.3426
26043W        W68956  28.138   9.056  24.290  0.1567  0.1576 -0.0974
26044W        W68957  21.608  29.298  21.829 -0.0788  0.0333  0.0389
26045W        W68958  30.670  23.809  17.051 -0.1570 -0.4270 -0.0486
26046W        W68959  31.809  27.327  14.732 -0.4330  0.1368 -0.1868
26047W        W68960  33.392  31.131  22.906  0.2665  0.1244 -0.0516
26048W        W68961  24.406  26.780  20.471 -0.1333 -0.1077  0.1039
26049W        W68962  20.394  34.127  13.970 -0.1532 -0.0922  0.1112
26050W        W68963  16.458  26.501  15.513  0.1134  0.1017 -0.0076
26051W        W68964  20.305  31.447  16.564 -0.3199  0.0290  0.1928
26052W        W68965  23.717  24.508  22.888 -0.1438 -0.2777  0.3710
26053W        W68966   1.586  31.112  23.433 -0.1821 -0.1405 -0.4083
26054W        W68967  29.027  24.454  13.722 -0.2424 -0.0853  0.0120
26055W        W68968  21.894  26.918  25.523  0.1229  0.1808  0.0980
26056W        W68969  26.941  25.029  14.463 -0.0641 -0.0318 -0.3911
26057W        W68970  25.092  28.691  16.483 -0.1936  0.2026  0.2056
26058W        W68971  21.332  28.986  23.052  0.0006  0.0884  0.0878
26059W        W68972   1.915  29.985  14.352 -0.0231 -0.0375  0.3495
26060W        W68973  21.288  24.016  25.745 -0.3778  0.0122 -0.0676
26061W        W68974  34.091  23.802  14.600 -0.0749 -0.3201  0.1009
26062W        W68975  30.365  23.189  18.076  0.0495  0.1096  0.1111
26063W        W68976  32.505  11.223  22.365 -0.3371 -0.3982  0.0299
26064W        W68977  24.495   4.887  13.642  0.1169 -0.3790 -0.0071
26065W        W68978  31.165  25.639  20.505 -0.5030  0.2800  0.1277
26066W        W68979  27.841  22.833  14.679 -0.0318 -0.0511  0.1835
26067W        W68980  19.457  22.778  16.705  0.2321  0.3630  0.1166
26068W        W68981  30.222  26.933  21.175  0.1813  0.3822  0.0218
26069W        W68982  31.888  21.583  23.127  0.0628  0.1452  0.2675
26070W        W68983  21.531  27.671  13.664  0.0989 -0.1368  0.2319
26071W        W68984  22.419  20.820  18.949  0.4922  0.1923 -0.2895
26072W        W68985  29.717  13.460  13.987  0.3401 -0.2168 -0.2464
26073W        W68986  24.637  28.458  18.212 -0.3201 -0.1429 -0.0221
26074W        W68987  29.322  26.441  17.505  0.3152  0.2031  0.3060
26075W        W68988  27.317  25.192  13.664  0.1142  0.0051  0.0431
26076W        W68989  31.354  28.640  15.977 -0.0854 -0.4329  0.3451
26077W        W68990  29.708  25.958  25.621 -0.2580  0.0433  0.1981
26078W        W68991  24.452   2.815  19.111 -0.0068  0.2178  0.4234
26079W        W68992  27.173  25.671  13.958 -0.1531  0.0078 -0.1423
26080W        W68993  27.835  27.485  12.814  0.1881  0.1805 -0.0196
26081W        W68994  22.233   5.488  16.228  0.3011  0.0411 -0.1019
26082W        W68995  30.351   5.896  21.003 -0.0265  0.0497 -0.3905
26083W        W68996   0.228   3.860  20.870  0.0178 -0.1664  0.0415
26084W        W68997  30.729  30.653  13.993  0.0048  0.0301  0.1164
26085W        W68998  18.123  20.434  12.163 -0.0463 -0.2723  0.0701
26086W        W68999  23.733  33.795  15.712  0.0792  0.2506  0.2347
26087W        W69000  29.303  18.881  19.312  0.0106 -0.0463  0.0473
26088W        W69001  24.811  26.426  18.910  0.3288 -0.2973  0.0424
26089W        W69002  27.078  21.536  14.041 -0.1086 -0.2426  0.0869
26090W        W69003  19.970   1.884  14.510  0.0769  0.0400 -0.0501
26091W        W69004  26.863  21.627  16.605 -0.3540  0.1570 -0.1441
26092W        W69005  31.485  14.031  14.708 -0.1054  0.2009 -0.1311
26093W        W69006  21.842  11.274  17.458  0.0518  0.0752  0.0262
26094W        W69007  30.952  22.124  18.538  0.2086 -0.0705  0.2829
26095W        W69008  32.903  16.975  16.732 -0.3540  0.0717  0.4475
26096W        W69009  31.906  28.806  14.062 -0.1893  0.1205  0.5672
26097W        W69010  29.644  20.102  13.688 -0.2423  0.0945 -0.1277
26098W        W69011  24.059  29.571  23.222  0.1625  0.1509 -0.2946
26099W        W69012  29.271  31.660  15.396 -0.0786  0.1807  0.2997
26100W        W69013  23.631  29.791  17.017  0.2686  0.0822 -0.0123
26101W        W69014  28.067  30.765  19.461 -0.0974 -0.1620 -0.2389
26102W        W69015  26.652  22.281  28.394  0.2591 -0.1041  0.3129
26103W        W69016  19.052  28.133  23.278  0.0733  0.1026 -0.1892
26104W        W69017  29.973  25.057  13.032  0.1161  0.0904 -0.0495
26105W        W69018  31.469  24.580  20.891  0.1814  0.4512 -0.0098
26106W        W69019  20.842  25.450  24.781 -0.1519  0.2097 -0.0168
26107W        W69020  28.635  28.158  22.884 -0.0745  0.1138  0.0572
26108W        W69021  25.000  26.868  17.346  0.1067 -0.4023  0.0230
26109W        W69022  27.442  24.750  18.172  0.0438 -0.5269 -0.3507
26110W        W69023  26.711  26.421  14.872 -0.0605 -0.1472 -0.1334
26111W        W69024  23.587  20.497  17.960 -0.1150  0.2617  0.2165
26112W        W69025  14.521  22.304  14.664 -0.0707 -0.3227  0.3479
26113W        W69026  28.509  26.965  21.432 -0.0256  0.0834 -0.1123
26114W        W69027  30.153  23.262  18.521 -0.1926  0.1994 -0.0631
26115W        W69028  11.508  25.391  19.479  0.0795  0.4732 -0.0654
26116W        W69029  24.798  21.631  14.250 -0.1065  0.0527  0.1140
26117W        W69030  17.516  30.926  23.545  0.0982  0.2374 -0.1999
26118W        W69031  34.364  34.168  22.584  0.0499 -0.2546  0.0006
26119W        W69032  32.724  32.736  18.590 -0.0393 -0.2095 -0.0601
26120W        W69033  27.917   0.468  18.554  0.0002 -0.2077  0.1268
26121W        W69034  28.337   0.338  18.176 -0.1527  0.0272  0.1713
26122W        W69035  25.137  28.352  16.925 -0.1784 -0.3982  0.1411
26123W        W69036  31.744  14.184  15.937 -0.0187  0.2380 -0.1464
26124W        W69037  26.209  33.178  20.369 -0.0787  0.0448 -0.2985
26125W        W69038  19.660  20.872  19.646 -0.3197  0.0782  0.0115
26126W        W69039   2.351  31.265  22.615 -0.2010  0.0509 -0.1434
26127W        W69040   0.436  21.555  15.033  0.1161 -0.4019  0.2440
26128W        W69041  31.373   1.686  16.310 -0.1943 -0.1468 -0.1877
26129W        W69042  30.211  23.720  20.179  0.0078  0.0985  0.4239
26130W        W69043   8.879  17.728  25.610 -0.1575 -0.0508 -0.0775
26131W        W69044  22.932  26.727  13.596  0.0049  0.5860  0.4265
26132W        W69045  16.978  23.682  13.961 -0.0899  0.3267 -0.0355
26133W        W69046  15.915   0.340  19.696  0.3250 -0.0069 -0.3643
26134W        W69047  30.345  31.167  21.340  0.0312 -0.1442  0.0840
26135W        W69048  31.949  23.007  16.094 -0.1748 -0.0888  0.5961
26136W        W69049  25.374  23.184  14.866  0.1519 -0.0780 -0.0671
26137W        W69050   3.441  20.616  19.400  0.0445  0.1979 -0.0060
26138W        W69051  22.466  26.997  14.493 -0.2895 -0.3198  0.4657
26139W        W69052   0.788  17.943  17.857  0.3756  0.1710 -0.3551
26140W        W69053  26.826  19.715  21.010  0.3152 -0.2776  0.0831
26141W        W69054   4.623  19.793  14.900 -0.1266  0.2846 -0.2053
26142W        W69055  24.308  32.383  23.545 -0.4725  0.1089  0.1136
26143W        W69056  30.580  24.686  21.281 -0.2567  0.3062 -0.0154
26144W        W69057  20.233  27.126  15.527 -0.0008 -0.2814 -0.1710
26145W        W69058  22.765  29.280  24.134 -0.2005 -0.3334  0.2235
26146W        W69059  24.809  30.715  22.115  0.0049 -0.1015  0.0836
26147W        W69060  27.269  24.978  15.271 -0.1442 -0.1330  0.2018
26148W        W69061  31.049  28.201  14.471  0.0699 -0.1041 -0.0605
26149W        W69062  32.788  22.591  13.117 -0.0104 -0.1298 -0.1096
26150W        W69063  14.188  26.671  15.071 -0.1536 -0.0199 -0.0521
26151W        W69064  20.146  32.265  19.837 -0.0756 -0.3841 -0.1282
26152W        W69065  23.006  33.525  14.566  0.0333 -0.2114 -0.0492
26153W        W69066  27.500  30.535  17.636 -0.0166 -0.2960 -0.0155
26154W        W69067  28.856   0.462  16.841  0.4573  0.1069 -0.0586
26155W        W69068  33.207  32.743  22.141  0.1209 -0.0391  0.0296
26156W        W69069  25.636  20.666  16.584  0.1871  0.3723  0.1805
26157W        W69070  27.604  28.174  19.909  0.3492 -0.0129  0.4804
26158W        W69071  26.424  28.012  13.842  0.2006  0.0343  0.2390
26159W        W69072  33.295  32.131  21.534  0.1972 -0.2906 -0.0389
26160W        W69073  30.060  25.085  13.920  0.2486  0.2318  0.1817
26161W        W69074  29.209  24.029  16.267  0.1930  0.0406 -0.0630
26162W        W69075  28.461  31.516  16.802  0.2038 -0.1157  0.0365
26163W        W69076  23.686  30.609  16.969  0.1130 -0.1059  0.1075
26164W        W69077  32.148  30.141  16.180 -0.0433  0.1698  0.0086
26165W        W69078  24.851  29.118  16.639  0.7656  0.3056 -0.2026
26166W        W69079  30.750  16.122  14.597  0.3848  0.1046 -0.1161
26167W        W69080  31.925  19.116  20.898  0.2294 -0.3031 -0.2198
26168W        W69081  26.877  29.113  20.606 -0.0082  0.0084  0.2397
26169W        W69082   1.595  22.615  15.338 -0.0817  0.0549  0.3778
26170W        W69083  25.419  22.581  14.208 -0.3529  0.0539 -0.6288
26171W        W69084  24.915  25.909  18.543  0.0561 -0.0359  0.1008
26172W        W69085  23.448  17.623  14.042 -0.0695 -0.1091  0.1745
26173W        W69086  17.323  27.294  20.926  0.2553  0.0057 -0.4153
26174W        W69087  26.298  20.345  19.415  0.1548 -0.0154 -0.3467
26175W        W69088  20.544  25.938  12.845 -0.0348 -0.0319 -0.2700
26176W        W69089  29.074  23.015  17.464 -0.0864 -0.1702  0.1800
26177W        W69090  27.634  25.350  17.337  0.0672  0.0597  0.1999
26178W        W69091  31.760  30.480  18.931 -0.2707  0.0151 -0.0154
26179W        W69092  22.937  26.281  16.360 -0.1676 -0.0507  0.2182
26180W        W69093   3.865  33.973   0.970  0.2302  0.0753  0.0430
26181W        W69094   0.671  23.396  21.849  0.2024  0.0101  0.1124
26182W        W69095  19.856  33.320  15.433  0.1382 -0.1878  0.2497
26183W        W69096  26.038  31.452  20.219 -0.0761 -0.0851  0.1949
26184W        W69097  27.833   2.121  19.910 -0.0024 -0.1515  0.2737
26185W        W69098  33.086  26.581  23.460 -0.2133 -0.1456  0.1625
26186W        W69099  29.569  31.365  14.483 -0.3823 -0.0398  0.1868
26187W        W69100  25.620  24.378  20.324 -0.0916  0.0039  0.1132
26188W        W69101  32.790  28.701  14.275  0.1380 -0.0891 -0.0431
26189W        W69102  22.732  32.546  21.240 -0.1880 -0.1171 -0.0886
26190W        W69103  26.039  33.821  17.634  0.1372  0.0185  0.1225
26191W        W69104  27.238  20.579  16.978 -0.1450 -0.2379 -0.0834
26192W        W69105  29.380  18.987  22.264  0.1618 -0.2190  0.3061
26193W        W69106  31.790  32.662  17.217  0.0119  0.2238 -0.0842
26194W        W69107  26.109  19.699  24.749 -0.2120 -0.2099 -0.0923
26195W        W69108  33.889  23.855  18.159 -0.1530  0.0058  0.0056
26196W        W69109  24.108  16.794  15.035  0.0408 -0.2589  0.1020
26197W        W69110  16.365  27.043  16.974 -0.0795 -0.2510  0.3841
26198W        W69111  21.175   0.969  19.028 -0.0361  0.0822  0.2251
26199W        W69112  19.735   4.035  20.521  0.0533  0.0871 -0.2686
26200W        W69113  13.321  22.763  14.196 -0.0048  0.3751 -0.0007
26201W        W69114  27.672  17.941  21.152 -0.1378 -0.2786 -0.1846
26202W        W69115  29.677   0.866  15.093  0.0691  0.1721  0.0896
26203W        W69116  32.406   2.243  17.087  0.0627  0.0855  0.0769
26204W        W69117  33.428   0.318  15.591  0.0635  0.3175  0.4474
26205W        W69118  31.948  29.106  15.278  0.2770 -0.2184 -0.4294
26206W        W69119  30.087  24.904  20.692 -0.0544 -0.1221  0.0233
26207W        W69120  24.878   0.449  24.335 -0.0858  0.0658 -0.4059
26208W        W69121  17.204  24.187  20.657  0.1965  0.4289  0.2511
26209W        W69122  20.774  30.952  19.085  0.0491 -0.2902 -0.0043
26210W        W69123  24.641  26.060  26.626  0.0590  0.3054  0.0293
26211W        W69124  33.833  22.865  21.102 -0.1750  0.1565  0.0935
26212W        W69125  19.709  32.940  24.009  0.0276 -0.0046  0.0737
26213W        W69126  26.814  33.364  20.299  0.1556  0.1135 -0.0086
26214W        W69127   2.843  27.993   2.216 -0.2812  0.0094  0.0218
26215W        W69128  26.880  32.261  17.935  0.3089  0.0339 -0.2417
26216W        W69129  31.701  18.259  13.987  0.0571  0.2152 -0.1001
26217W        W69130  23.370  14.607  14.756 -0.1637  0.0945  0.3166
26218W        W69131  16.115   4.490  22.299 -0.1945 -0.1016  0.4658
26219W        W69132  26.150  32.982  16.598  0.3807 -0.3302 -0.5755
26220W        W69133  20.068  33.458  20.565  0.2287 -0.1242  0.2307
26221W        W69134  33.499  19.542  16.881  0.2222 -0.2085 -0.4294
26222W        W69135  22.962   0.195  17.758  0.0573  0.1941  0.4659
26223W        W69136  25.164  30.195  16.017  0.1637  0.0012  0.1180
26224W        W69137  22.972   6.769  18.558 -0.2002  0.2305  0.1134
26225W        W69138  31.205  20.501  19.684  0.1647  0.0010 -0.2502
26226W        W69139  28.667  23.476  12.979 -0.2979  0.0391 -0.0378
26227W        W69140  26.947  20.700  16.570  0.1301 -0.2358  0.0470
26228W        W69141  23.117  27.902  19.824 -0.1488 -0.3394 -0.1131
26229W        W69142  26.646  23.157  24.940  0.0409 -0.1103 -0.3266
26230W        W69143  33.112  27.698  27.195 -0.1819  0.0146 -0.0075
26231W        W69144  25.372  32.514  16.416 -0.0926 -0.0400 -0.2448
26232W        W69145  26.230  23.528  21.041  0.0270  0.0503 -0.1879
26233W        W69146   2.194  34.170  19.861 -0.2816  0.1688  0.2932
26234W        W69147  27.269  29.758  16.980 -0.0085  0.4096 -0.3169
26235W        W69148  26.864  25.057  13.327 -0.3424 -0.0095 -0.4170
26236W        W69149  27.864   0.510  16.363 -0.1417 -0.2445  0.0507
26237W        W69150  24.252  31.316  24.380  0.0752  0.1529 -0.0563
26238W        W69151  27.612   0.868  21.216 -0.1367  0.0471  0.1717
26239W        W69152  30.336  31.476  16.807 -0.1020  0.0381  0.2177
26240W        W69153  26.115  34.059  13.834 -0.1404  0.2952 -0.0362
26241W        W69154  20.485  32.017  15.666 -0.0849  0.0264 -0.0266
26242W        W69155  28.121  33.191  17.567 -0.0912 -0.2011  0.0301
26243W        W69156  21.713  17.354  21.512 -0.1306  0.0321  0.0948
26244W        W69157  24.877  31.785  24.835 -0.1888  0.1336  0.2659
26245W        W69158  31.130  24.483  24.427  0.2454  0.2399 -0.1846
26246W        W69159  27.570  12.875  17.994  0.3198 -0.0599 -0.3416
26247W        W69160  25.691  22.213  17.884  0.2762  0.2027 -0.0013
26248W        W69161  28.719  27.523  25.754  0.0847  0.2783  0.1951
26249W        W69162  26.434  18.905  14.320 -0.0671 -0.2037  0.0978
26250W        W69163  20.431   1.258  15.666  0.0937  0.2794  0.0061
26251W        W69164  30.328  27.679  14.088  0.0296  0.1738  0.4396
26252W        W69165  26.884  22.564  23.694  0.0117 -0.3425 -0.1881
26253W        W69166  28.159  29.340  23.831  0.5059  0.0905 -0.1481
26254W        W69167  31.780  13.585  14.771  0.0976 -0.2169  0.0974
26255W        W69168  32.671  25.275  14.408 -0.0022  0.3710 -0.0803
26256W        W69169  29.171   9.340  15.651  0.1174 -0.2979  0.1218
26257W        W69170  27.751  20.254  18.552  0.0432  0.0049  0.1948
26258W        W69171  28.331  33.669  16.422  0.0189 -0.1049  0.1053
26259W        W69172  25.929  24.505  13.784 -0.2044 -0.1520  0.1858
26260W        W69173   1.323  29.474  16.534 -0.3227  0.2809 -0.1992
26261W        W69174  30.049  29.447  17.054 -0.0734  0.3600  0.0004
26262W        W69175  28.536  30.505  14.830 -0.2989 -0.1096 -0.0850
26263W        W69176  21.176  25.242  14.870  0.0687  0.2369 -0.2003
26264W        W69177  21.145  24.590  13.115  0.2061  0.0816  0.3778
26265W        W69178  32.002  30.935  17.705  0.2526  0.3472 -0.0713
26266W        W69179  27.261  28.800  17.869 -0.0897 -0.0001  0.2210
26267W        W69180  24.819   1.663  17.430 -0.0010  0.0819  0.2117
26268W        W69181  22.170   0.855  17.610  0.4287 -0.1177 -0.5073
26269W        W69182  23.976  28.997  12.345  0.2162  0.1436 -0.1701
26270W        W69183  33.768  25.306  14.937 -0.0251  0.2101 -0.0894
26271W        W69184  16.599   0.725  17.187 -0.0658  0.0371 -0.1522
26272W        W69185  27.002  28.164  13.886  0.1539 -0.0115 -0.1728
26273W        W69186  29.838  30.948  15.659 -0.1239  0.1273  0.0113
26274W        W69187  19.137  24.710  13.215  0.1612 -0.0403  0.0928
26275W        W69188  13.704  22.437  16.496 -0.4329 -0.2395 -0.1448
26276W        W69189  32.621  25.705  16.034  0.0135  0.2157  0.3027
26277W        W69190  27.175  15.873  18.327  0.0551 -0.1095  0.1144
26278W        W69191  33.596  23.983  16.707 -0.3537  0.1228  0.0032
26279W        W69192  34.278  25.881  15.551  0.2227 -0.5849  0.2203
26280W        W69193  29.256  30.473  21.958 -0.0416 -0.0167  0.0211
26281W        W69194  30.492  26.853  15.134  0.1068  0.0389  0.1233
26282W        W69195  27.327  32.987  18.883 -0.1308 -0.0251 -0.0008
26283W        W69196  21.487  15.926  12.744 -0.3701 -0.0351 -0.0484
26284W        W69197  29.734  24.611  14.289 -0.3107  0.1478  0.0030
26285W        W69198  30.562  20.348  22.660 -0.0410  0.0335  0.0877
26286W        W69199  19.784  27.332  16.084  0.0624 -0.0323 -0.0260
26287W        W69200  27.077  20.229  16.478  0.2063  0.3060 -0.1490
26288W        W69201  32.588  28.234  16.873 -0.3413 -0.0410 -0.0546
26289W        W69202  26.627  25.912  16.625 -0.0309  0.1135  0.0240
26290W        W69203  26.255   6.492  16.394 -0.4404  0.2197  0.0070
26291W        W69204  25.775  17.317  13.699 -0.0897  0.1212  0.0458
26292W        W69205  24.393  26.896  17.524 -0.1234 -0.2797  0.0693
26293W        W69206  27.189  23.776  14.496  0.2007 -0.0547  0.3273
26294W        W69207  32.050  24.229  15.113 -0.0911 -0.2236  0.0241
26295W        W69208   0.568  28.897  15.808 -0.0523 -0.0051  0.1550
26296W        W69209  31.503  23.847  18.786 -0.1229 -0.3533  0.0379
26297W        W69210  21.485  30.704  19.222  0.1592  0.0793 -0.1174
26298W        W69211  25.026  34.359  19.210 -0.0469 -0.0246 -0.1182
26299W        W69212   3.558  30.215  18.611 -0.2028  0.2726 -0.2245
26300W        W69213  30.093  28.990  16.987 -0.0073  0.0848  0.2272
26301W        W69214   2.806  12.700  20.340 -0.2030  0.1998 -0.0463
26302W        W69215  24.261  17.923  21.598 -0.1751  0.0399 -0.2791
26303W        W69216  32.573  33.966  21.844 -0.0848 -0.1467  0.0456
26304W        W69217  30.228  25.951  27.511 -0.2509  0.0594  0.0613
26305W        W69218  20.289  27.252  29.233  0.0259 -0.0638 -0.2615
26306W        W69219  30.274  23.414  20.940 -0.0879 -0.3128  0.1938
26307W        W69220  21.086  27.059  16.477 -0.0094  0.1996 -0.0897
26308W        W69221  30.568  33.538  16.802 -0.0977 -0.2212 -0.0706
26309W        W69222  24.598  20.155  21.698 -0.0218  0.1815  0.0010
26310W        W69223  23.883   0.458  23.713  0.1658 -0.0987 -0.0466
26311W        W69224  24.870  29.756  19.251  0.1588 -0.0139  0.1591
26312W        W69225  13.764  20.291  17.872  0.0770 -0.1250 -0.0083
26313W        W69226  25.282  23.478  18.257  0.1759 -0.0544  0.1901
26314W        W69227   3.206  14.071  15.740 -0.0883  0.2458 -0.0005
26315W        W69228  21.136  32.396  15.095  0.2857 -0.2335 -0.1489
26316W        W69229  31.451  27.978  18.220  0.0273  0.1188 -0.1375
26317W        W69230  21.207  26.784  19.360  0.0122  0.2332  0.0018
26318W        W69231  23.154  28.748  14.837  0.0216  0.0581  0.0558
26319W        W69232   5.198  26.440  16.266 -0.2367  0.0615 -0.0908
26320W        W69233  27.488  28.392  14.706 -0.0846  0.0970  0.1720
26321W        W69234   1.347   4.368  21.034  0.3894 -0.2173  0.0605
26322W        W69235  29.682  33.241  19.584  0.0956  0.0971 -0.0664
26323W        W69236  32.903  23.073  13.964 -0.1230 -0.0222  0.1048
26324W        W69237  25.322  27.753  22.509  0.2796 -0.0523  0.2948
26325W        W69238  30.983  23.993  17.391 -0.2094 -0.0756  0.0642
26326W        W69239  27.758  26.338  14.455 -0.3413 -0.1868  0.1265
26327W        W69240  22.754  14.508  21.292 -0.1386 -0.0024  0.2888
26328W        W69241  22.527  33.052  14.100  0.0793 -0.2291 -0.0684
26329W        W69242  25.264   1.811  18.610  0.0953  0.1437 -0.0474
26330W        W69243  31.551  29.809  26.184 -0.2845  0.0226 -0.1376
26331W        W69244  25.258  16.609  25.502  0.1875 -0.1784  0.0653
26332W        W69245  33.751  30.982  20.747  0.1156 -0.2149  0.0355
26333W        W69246  22.765  19.508  15.407  0.0885  0.2783  0.0829
26334W        W69247  29.619  22.787  16.077  0.1477 -0.1344 -0.2483
26335W        W69248  26.735   2.782  14.486  0.0901 -0.1919 -0.1733
26336W        W69249   1.117  28.584  16.185  0.1006  0.0589  0.2703
26337W        W69250  31.059  22.896  14.294 -0.0685  0.0089  0.2275
26338W        W69251  24.428  24.302  21.951  0.1678 -0.0708  0.4569
26339W        W69252  33.149  23.953  16.495  0.0331  0.1341 -0.1011
26340W        W69253  22.015   2.495  18.751 -0.1825 -0.1284  0.1322
26341W        W69254  27.536  27.081  13.554 -0.0525 -0.2459 -0.0702
26342W        W69255   2.303  28.965  15.437  0.0915 -0.0530 -0.2132
26343W        W69256  22.202  31.844  25.000  0.0098 -0.1193 -0.0163
26344W        W69257  20.809  20.387  15.940 -0.1516  0.2316  0.1375
26345W        W69258  19.259  18.613  12.674  0.1880  0.0058 -0.0150
26346W        W69259  24.877  33.106  24.819 -0.2145 -0.3065  0.2365
26347W        W69260  20.610   0.763  15.767 -0.0291  0.2003  0.2116
26348W        W69261  22.820  14.693  15.481  0.0810  0.0669  0.0872
26349W        W69262  31.311  15.485  20.713 -0.0764 -0.0653 -0.1546
26350W        W69263   0.798  25.771  25.228 -0.0244 -0.0219 -0.1682
26351W        W69264  23.626   0.956  14.385 -0.0236  0.0275  0.0705
26352W        W69265   6.816  26.518  20.014 -0.0075  0.0782  0.0247
26353W        W69266  22.625  30.176  14.584  0.3078 -0.2106 -0.1269
26354W        W69267  24.620  20.815  19.015  0.2855 -0.1114  0.1496
26355W        W69268  28.829  29.661  16.116  0.0484  0.1632 -0.0705
26356W        W69269  28.230   2.196  18.319  0.0609 -0.2407 -0.2754
26357W        W69270  23.638   0.244  15.319 -0.1044  0.2938 -0.1526
26358W        W69271  24.901  18.078  16.936  0.1047  0.1292  0.0248
26359W        W69272  27.528  20.495  16.531 -0.2352 -0.1308 -0.1653
26360W        W69273  27.415  25.448  14.513  0.0625 -0.0722  0.0747
26361W        W69274  22.136  29.993  13.344  0.1808 -0.0323 -0.1052
26362W        W69275  29.512  10.670  14.133 -0.1357 -0.0828  0.1023
26363W        W69276  32.012  30.226  18.363  0.1249  0.4790  0.0332
26364W        W69277   4.861  26.825  16.379 -0.1975  0.0822  0.0591
26365W        W69278  27.509  30.484  18.554  0.0754 -0.1603 -0.3358
26366W        W69279   1.210  25.278  15.404 -0.2470  0.0433  0.0614
26367W        W69280  22.467  21.525  22.211 -0.1731  0.1143 -0.0203
26368W        W69281  23.664   2.192  19.078 -0.0166  0.1015 -0.1154
26369W        W69282  25.681  23.104  22.685  0.1140 -0.2013 -0.0705
26370W        W69283  17.158  32.579  22.661 -0.0587  0.0160 -0.2058
26371W        W69284  17.261  25.387  15.202  0.0528  0.0679 -0.2144
26372W        W69285  20.400  23.256  20.269 -0.1101  0.4133 -0.0128
26373W        W69286  26.248   0.923  14.640  0.0894 -0.1525 -0.0838
26374W        W69287   0.002  30.874  16.264 -0.2340 -0.1549 -0.1637
26375W        W69288  32.723  17.402  17.539 -0.2041  0.0566  0.0655
26376W        W69289  28.008  26.333  20.456 -0.0017  0.2975  0.0138
26377W        W69290  24.447  32.466  18.930 -0.2013  0.3738 -0.2113
26378W        W69291  32.360  22.931  14.632 -0.2388 -0.0998  0.1493
26379W        W69292  34.419  33.818  22.957 -0.0121 -0.1145  0.4226
26380W        W69293  20.236  23.307  15.857  0.0243 -0.0612 -0.1240
26381W        W69294   2.646  25.507  17.140  0.1820  0.1136  0.2106
26382W        W69295  23.025  24.546  18.538  0.2128 -0.1048 -0.1971
26383W        W69296  21.457  19.662  12.569 -0.0763 -0.1792  0.0470
26384W        W69297  25.869  30.915  14.674 -0.0764  0.1324  0.0284
26385W        W69298  26.406  30.988  13.952  0.0131 -0.3649  0.0754
26386W        W69299  25.306  28.246  16.431 -0.2330  0.3036  0.0548
26387W        W69300  25.772  28.606  15.084 -0.0789  0.2089 -0.3054
26388W        W69301   1.789  26.000  17.962 -0.0672 -0.0379 -0.0216
26389W        W69302  29.400  17.354  21.574  0.1215  0.2441 -0.1215
26390W        W69303  29.010  25.846  14.614  0.3015 -0.1317  0.2230
26391W        W69304  33.645  32.680  21.766  0.2304  0.1025 -0.1900
26392W        W69305  23.412  30.361  13.635  0.0970 -0.0372 -0.1677
26393W        W69306  18.910  23.917  15.508  0.1558  0.0851 -0.0431
26394W        W69307  28.199  21.697  14.552 -0.1261  0.0152  0.1196
26395W        W69308  32.574  34.196  15.135 -0.0068 -0.0232  0.0189
26396W        W69309  31.331  17.200  13.880 -0.1422  0.0934 -0.2788
26397W        W69310  31.052  18.898  17.553 -0.2727 -0.3171 -0.1144
26398W        W69311  22.214  24.963  12.314 -0.1587  0.0095  0.0811
26399W        W69312  29.864  21.749  20.394  0.1112 -0.1145  0.3363
26400W        W69313  22.830  27.633  13.438  0.0711 -0.0715  0.1994
26401W        W69314  29.510  26.992  13.925  0.3835 -0.0997  0.0080
26402W        W69315  26.182  28.509  14.570  0.1553 -0.1878  0.0171
26403W        W69316   2.332  29.369  18.269  0.1122  0.1084 -0.4533
26404W        W69317  24.979  28.205  20.141 -0.1633  0.0429  0.4521
26405W        W69318  25.563  26.761  19.942 -0.0108 -0.2272  0.0509
26406W        W69319  33.740  14.364  14.871 -0.3911  0.4658  0.3643
26407W        W69320  31.365  32.857  15.545  0.0485 -0.0813 -0.1317
26408W        W69321  26.158   4.107  20.180 -0.0160  0.0447  0.0330
26409W        W69322  31.922  22.752  17.651 -0.1538  0.0370  0.3500
26410W        W69323  26.942   2.685  21.227  0.2033  0.0580 -0.1225
26411W        W69324  28.880  25.246  20.579 -0.0812  0.0587  0.1843
26412W        W69325  22.500  21.033  23.079  0.1664  0.2651  0.0546
26413W        W69326  21.510   1.723  14.246  0.0452 -0.0288 -0.0700
26414W        W69327  29.881  24.454  18.277  0.0819  0.1885  0.3051
26415W        W69328  28.870  20.049  18.498 -0.0263 -0.2252  0.1191
26416W        W69329  19.301  23.968  23.888 -0.2844 -0.2134 -0.0214
26417W        W69330   2.794  20.648  17.409  0.0914  0.0893  0.0308
26418W        W69331  25.531  30.507  19.408  0.1132  0.2056  0.2068
26419W        W69332  23.276   3.634  19.549  0.1463 -0.1496 -0.2798
26420W        W69333  26.290  17.346  24.050  0.2881 -0.0578 -0.1066
26421W        W69334  27.916  26.122  29.296  0.2746  0.0395 -0.2514
26422W        W69335   1.832  30.309  16.700  0.0524  0.3972 -0.0768
26423W        W69336  20.328  21.701   1.002 -0.1977  0.0072 -0.0860
26424W        W69337  19.441  10.395  16.204 -0.1616 -0.0704  0.0207
26425W        W69338   6.239  26.439  16.504 -0.0131  0.1078 -0.1726
26426W        W69339  19.334  24.376  28.843 -0.3089  0.1936 -0.1722
26427W        W69340  29.743  24.982  13.503  0.1663 -0.3793  0.1122
26428W        W69341  20.969  33.497  29.707 -0.0404  0.1230  0.1862
26429W        W69342  30.394   6.877  22.830  0.0121 -0.2959 -0.1010
26430W        W69343  21.138  24.162  14.217 -0.0540 -0.2900 -0.0090
26431W        W69344  28.014  31.524  20.901 -0.0110 -0.2045 -0.1803
26432W        W69345  33.036  20.130  22.639 -0.0552  0.2945  0.0354
26433W        W69346  19.925  28.169  24.793  0.1075  0.1947  0.2339
26434W        W69347  32.484  33.487  28.543 -0.1268  0.0593  0.2819
26435W        W69348  28.212   1.403  16.166  0.3798  0.4169 -0.0737
26436W        W69349  24.492  21.556  27.716 -0.0602  0.0303 -0.3567
26437W        W69350  24.366  29.819  18.896  0.0261  0.2147 -0.0519
26438W        W69351   1.637  24.976  19.888  0.3458 -0.1697 -0.0839
26439W        W69352  28.447  14.969  28.030  0.3615 -0.2036  0.3105
26440W        W69353  31.675   3.851  17.256 -0.1093  0.2263 -0.2228
26441W        W69354  34.117  27.604  15.167  0.2338  0.0157  0.3689
26442W        W69355  20.815  21.253  12.517  0.2249 -0.2135  0.5211
26443W        W69356  28.422  18.056  23.617 -0.1539  0.1973  0.1700
26444W        W69357  15.623  28.624  16.420  0.0641 -0.1751 -0.1290
26445W        W69358  34.238  24.073  19.879  0.1167  0.1743 -0.1382
26446W        W69359  25.888  28.064  25.655 -0.0856 -0.2402  0.0189
26447W        W69360  31.131  28.697  17.656  0.1155 -0.2366  0.2324
26448W        W69361  15.993  17.448  13.313  0.3446 -0.0170 -0.0614
26449W        W69362  25.136   4.353  15.623  0.0910 -0.0896 -0.1327
26450W        W69363  32.741  34.034  15.818 -0.0054 -0.0248 -0.0177
26451W        W69364  23.016  29.064  25.881 -0.1660 -0.1009 -0.0886
26452W        W69365  27.331  28.276  15.495 -0.2169 -0.0523 -0.0776
26453W        W69366  31.109  23.582  16.979  0.3124  0.0449 -0.0532
26454W        W69367  28.790  33.642   0.168 -0.0937  0.1771  0.0191
26455W        W69368  15.715  25.302  19.503  0.0531  0.3468  0.2795
26456W        W69369  30.084  25.827  29.006 -0.1069 -0.1612  0.1408
26457W        W69370  25.762   4.438  21.537 -0.0266  0.2233  0.2818
26458W        W69371  31.019  22.111  16.047  0.1242  0.0899 -0.0219
26459W        W69372  23.861   2.776   6.289 -0.0586 -0.0429  0.0095
26460W        W69373  23.409  20.568  16.842 -0.5182 -0.0075  0.0992
26461W        W69374  26.046   2.373  15.770 -0.1402 -0.1305 -0.2828
26462W        W69375  28.332  16.592  14.033  0.1436 -0.1660 -0.1331
26463W        W69376  27.654   0.898  24.536 -0.0173  0.1864 -0.0328
26464W        W69377  30.910  27.684  24.601 -0.0875  0.0167 -0.1098
26465W        W69378  33.152  24.633  18.165  0.1551 -0.2651 -0.1564
26466W        W69379  27.690  25.538  16.819 -0.4427  0.0932 -0.0044
26467W        W69380  18.529  27.849   1.856 -0.0013  0.2934  0.1176
26468W        W69381  33.210  26.723  19.017 -0.3061  0.3719  0.1473
26469W        W69382  32.220  24.369   0.650  0.1808  0.3922  0.0097
26470W        W69383  23.661   2.282  14.794  0.0236 -0.2676  0.1638
26471W        W69384   2.365  22.970  24.452  0.0705 -0.1117  0.3304
26472W        W69385  26.224  24.823  14.685  0.3758  0.1285 -0.1836
26473W        W69386  33.071  30.179  27.909  0.0667 -0.0553 -0.1527
26474W        W69387  30.729  30.671  15.266  0.0861  0.2813 -0.2789
26475W        W69388  19.162  30.776  28.405  0.3410 -0.0363  0.1836
26476W        W69389  23.468  23.910  12.294  0.1722 -0.0542 -0.1077
26477W        W69390  29.615   6.197  18.205  0.0992 -0.3690 -0.0918
26478W        W69391  17.482  30.443  19.539  0.0516 -0.1464 -0.1005
26479W        W69392  28.455  22.321  16.301 -0.0649 -0.1801  0.2222
26480W        W69393   6.474  24.082  17.569 -0.1285  0.0808 -0.1249
26481W        W69394  30.772  30.255  17.588 -0.2652  0.1829  0.1877
26482W        W69395   9.183  28.230  22.342 -0.0025 -0.1323 -0.1590
26483W        W69396  27.711  19.569  14.101 -0.0776 -0.0922 -0.1092
26484W        W69397  16.800  22.885  17.919  0.0185 -0.1023  0.0459
26485W        W69398  29.161  25.837  22.912 -0.3340  0.0514  0.1031
26486W        W69399   0.795  21.938  16.810  0.0478  0.0385 -0.2096
26487W        W69400  31.591  16.804  17.226 -0.0722 -0.0255  0.2723
26488W        W69401  17.577  30.174  21.374  0.2296  0.0429 -0.1355
26489W        W69402  23.562  30.843  26.967 -0.1446  0.0110 -0.0702
26490W        W69403   2.983  18.409  24.866 -0.2509  0.1348  0.0900
26491W        W69404  15.641  16.945  14.539  0.1484  0.1472  0.1119
26492W        W69405   2.524  20.116  25.741  0.1290 -0.1342  0.1131
26493W        W69406  22.849   1.055  16.309 -0.1424 -0.1272  0.2455
26494W        W69407  27.342  29.749  24.675 -0.2252 -0.0128  0.2310
26495W        W69408  26.488  31.138  22.218  0.0827  0.2828  0.0340
26496W        W69409  22.003  26.382  12.371  0.1021 -0.0512 -0.3762
26497W        W69410  29.940  28.760  18.195 -0.1050  0.0393  0.1638
26498W        W69411  34.121  28.119  21.600 -0.0520 -0.1500  0.0397
26499W        W69412  25.561  30.774  26.930 -0.1679  0.0425 -0.1056
26500W        W69413  27.672  30.747  26.711 -0.0651 -0.0189  0.1295
26501W        W69414  27.863  30.309  26.787 -0.1411  0.0056  0.2183
26502W        W69415  30.009  27.961  19.865 -0.1397  0.0642 -0.0316
26503W        W69416  28.914   1.078  15.583  0.2123 -0.0678 -0.1516
26504W        W69417  22.461  28.072  24.460 -0.1402  0.0472  0.0341
26505W        W69418  23.202  20.903  15.033  0.0675  0.1506 -0.4165
26506W        W69419  30.821  21.323  23.528  0.0106 -0.2698 -0.1529
26507W        W69420  33.952  25.420  19.576 -0.1867 -0.0780 -0.1484
26508W        W69421   7.620   4.057  17.956 -0.2783  0.1145  0.1191
26509W        W69422  27.966   4.601  18.800 -0.2240 -0.1043 -0.1832
26510W        W69423  16.783   4.791  26.493  0.4125  0.1376 -0.1002
26511W        W69424  34.065  16.942  20.933  0.0315 -0.2498  0.2480
26512W        W69425  27.065  31.669  21.174 -0.0530  0.0087  0.1132
26513W        W69426  28.529  23.945   0.417 -0.0712 -0.1635 -0.2372
26514W        W69427  20.041   1.570   0.959  0.0144  0.1460  0.0629
26515W        W69428  33.251  27.522  18.529 -0.0959  0.0584 -0.1509
26516W        W69429  30.992   0.140  23.171  0.2620  0.0400  0.0702
26517W        W69430  29.164  26.204  14.217  0.1676  0.0065 -0.0753
26518W        W69431   8.474  21.879  13.893 -0.0089  0.1343 -0.2993
26519W        W69432  25.372  25.020  13.606  0.0258 -0.1220 -0.2406
26520W        W69433  31.811  33.848  24.198  0.1691 -0.2544  0.0742
26521W        W69434  23.100  31.118  24.134  0.1444  0.0046 -0.1826
26522W        W69435  32.076  26.549  17.834  0.2212 -0.0843 -0.1963
26523W        W69436  26.748  25.254  24.619 -0.0205 -0.1969  0.2046
26524W        W69437  27.078  34.038  28.545  0.1620 -0.1422  0.0421
26525W        W69438  30.704  19.761  23.647 -0.1982  0.0435  0.1107
26526W        W69439  27.703  23.202  13.461  0.0659 -0.0655 -0.1295
26527W        W69440  22.914  24.121  20.708 -0.2341 -0.2623  0.1282
26528W        W69441  28.899  18.725  23.888 -0.4055  0.0226  0.0233
26529W        W69442  21.584  20.529  28.501 -0.1254 -0.1596  0.0368
26530W        W69443  26.397  27.830  19.967 -0.4080 -0.1539  0.3427
26531W        W69444  25.281  31.548  25.078 -0.1361 -0.0542  0.1546
26532W        W69445  24.434  27.384  18.322 -0.1676  0.3158  0.2051
26533W        W69446   0.535  24.043  14.094  0.0424 -0.0248  0.3146
26534W        W69447  12.569  27.065  29.599 -0.2658 -0.0759 -0.0658
26535W        W69448  21.660  31.330  21.364 -0.1204  0.3133  0.1427
26536W        W69449  32.542  24.650  19.112  0.1643 -0.3411  0.2154
26537W        W69450  18.426  31.321  14.926  0.0906  0.0944  0.1505
26538W        W69451  23.814  19.079  12.971 -0.0672  0.2444  0.0405
26539W        W69452  23.769  28.771  16.057 -0.1075 -0.1327  0.2732
26540W        W69453  27.320  29.751  21.652 -0.1932  0.0108 -0.0687
26541W        W69454  28.751  21.306   1.794 -0.2756 -0.0290  0.3164
26542W        W69455  21.967  20.542  21.008  0.0363  0.0516 -0.3124
26543W        W69456  24.895  21.983  22.908 -0.2019  0.1845  0.1259
26544W        W69457  21.257  33.073  28.844 -0.0861 -0.1115  0.0875
26545W        W69458  23.389  33.833  18.767  0.0103 -0.2418  0.3695
26546W        W69459  16.366   4.408  25.605  0.2452 -0.0381 -0.2447
26547W        W69460  29.182  28.519  24.177  0.2975 -0.3669  0.0368
26548W        W69461  10.314  32.400   2.268  0.0941  0.0208  0.0716
26549W        W69462  23.274  27.086  17.752 -0.2001 -0.3242 -0.1746
26550W        W69463  26.856  24.589  12.585 -0.0008 -0.1521 -0.1250
26551W        W69464   5.034  16.067  18.786  0.1027 -0.0976  0.0376
26552W        W69465  27.287  31.768  19.573 -0.1539 -0.0341 -0.3264
26553W        W69466  19.627  27.071   0.231 -0.1853 -0.1897 -0.1957
26554W        W69467  25.730  27.202  19.678  0.0049  0.1217 -0.3597
26555W        W69468  29.436  28.922  16.455  0.1543  0.0930 -0.1060
26556W        W69469  17.837  29.343  18.386  0.2368  0.0985 -0.0080
26557W        W69470  25.752  31.798  19.037 -0.2590  0.1349  0.0911
26558W        W69471  21.053  21.734  16.632  0.0276  0.0223  0.0153
26559W        W69472  20.727  24.619  15.891 -0.5419  0.1265  0.1790
26560W        W69473  34.041  17.399  17.721  0.0011 -0.0089 -0.1753
26561W        W69474  27.172   6.093  22.100 -0.2590  0.0055 -0.1547
26562W        W69475  23.228  21.624  17.192 -0.4322  0.0051  0.2120
26563W        W69476  28.711  30.814  26.748 -0.0709  0.2657  0.0504
26564W        W69477  28.579  29.930  15.748  0.0684  0.0769 -0.1706
26565W        W69478  18.516  30.881  23.650  0.0184 -0.0278  0.2263
26566W        W69479   4.200  15.745   6.401  0.1420  0.1542  0.2156
26567W        W69480   0.140  28.300  17.053  0.2019  0.4897 -0.1833
26568W        W69481  24.218  30.281  22.425 -0.1327  0.4475 -0.3899
26569W        W69482  26.283  30.954  18.191  0.0275 -0.0756 -0.0566
26570W        W69483  26.207  34.313  27.548 -0.1871  0.0642  0.1580
26571W        W69484  30.152  21.618  18.501 -0.0470 -0.3196  0.0376
26572W        W69485  27.029  23.430  18.922 -0.0956  0.2786 -0.1133
26573W        W69486  33.182  13.054  17.066  0.1456  0.0217 -0.1573
26574W        W69487  32.982  26.150  14.899 -0.0562  0.1175 -0.0039
26575W        W69488  26.970  33.395  22.236 -0.0640 -0.0713  0.0309
26576W        W69489  24.464  29.690  27.046 -0.2117 -0.3035  0.0611
26577W        W69490  29.231  26.106  23.763  0.0641  0.1675  0.3257
26578W        W69491  22.107  33.479  15.158 -0.3170  0.0524  0.2481
26579W        W69492  29.764  21.368  13.088  0.0481 -0.2974 -0.1655
26580W        W69493  30.128  15.779  18.008  0.0015  0.0590  0.1711
26581W        W69494  24.174  23.160  18.188  0.0466 -0.1225 -0.1746
26582W        W69495  30.847  26.532  21.335  0.0779 -0.2259 -0.1393
26583W        W69496  20.656   2.129  16.469 -0.3971 -0.2421 -0.1687
26584W        W69497  24.494   0.868  15.850  0.1052 -0.1105 -0.0063
26585W        W69498  30.966  33.934  17.168  0.0346 -0.1423 -0.0477
26586W        W69499  20.492   3.154  23.098 -0.1835 -0.0005  0.1255
26587W        W69500  21.090  28.250  25.283  0.1863 -0.1794 -0.0094
26588W        W69501  32.999  28.012  15.465  0.4053 -0.1043 -0.1197
26589W        W69502  33.002  22.873   3.610  0.0537 -0.0429 -0.0931
26590W        W69503  26.306  27.313  19.245 -0.1410  0.1515  0.2851
26591W        W69504  22.730  30.537  17.202  0.0561  0.1226 -0.3130
26592W        W69505  27.147  26.238  15.777 -0.2246  0.0978 -0.2469
26593W        W69506  24.256  28.174  16.914 -0.0976 -0.1171  0.2055
26594W        W69507  17.685  32.351  23.503  0.1490 -0.1904 -0.0390
26595W        W69508  31.406  27.614  15.877  0.4979 -0.1643  0.1403
26596W        W69509  18.046  28.378  22.808  0.0588  0.1525  0.0015
26597W        W69510  32.870  34.363  22.051  0.1828 -0.0760  0.1135
26598W        W69511  23.077  24.596  20.792 -0.1782  0.0878  0.2803
26599W        W69512  14.133  33.412  23.084 -0.3158  0.1039  0.0753
26600W        W69513  27.891  28.227  26.237 -0.0668  0.4361  0.0265
26601W        W69514  34.053  30.840  15.150 -0.1153 -0.0445 -0.1036
26602W        W69515  31.968  34.479   7.780  0.0719 -0.3765  0.2028
26603W        W69516  23.114  18.166  15.921 -0.1968 -0.1801  0.1938
26604W        W69517  22.987  33.810  18.338  0.0032 -0.2501 -0.0179
26605W        W69518  28.701  11.398  18.255 -0.1343 -0.1879  0.0339
26606W        W69519  22.532  25.784  29.590 -0.2740  0.0707 -0.1318
26607W        W69520   1.975  23.133  20.717  0.0714 -0.1554  0.0650
26608W        W69521  30.578  24.228  15.485 -0.0724  0.0505 -0.0233
26609W        W69522   1.733  16.753  19.532 -0.2427  0.0660 -0.0449
26610W        W69523  23.760  27.178  29.012  0.2463 -0.2186 -0.1601
26611W        W69524  22.105  34.006  23.985 -0.0013  0.2130  0.0350
26612W        W69525  23.747  30.115  19.754  0.0159 -0.0684  0.1810
26613W        W69526  32.006  28.480   0.467 -0.1178 -0.2139  0.0822
26614W        W69527  21.756  31.131  18.933 -0.0055  0.1709  0.2505
26615W        W69528  18.823  28.310  27.360 -0.0490  0.0818 -0.2655
26616W        W69529  29.548  22.394  15.733 -0.2553 -0.1201  0.1863
26617W        W69530   2.624  23.934  14.166 -0.3220 -0.0257 -0.1920
26618W        W69531  23.423  13.720  17.069  0.0631  0.2283  0.2011
26619W        W69532  29.186  22.224  13.228 -0.0113 -0.1664  0.2935
26620W        W69533  29.742  30.086  18.450 -0.0071 -0.2806 -0.3304
26621W        W69534  31.828  32.182  25.421  0.2009 -0.1495  0.0318
26622W        W69535  28.441   6.862  20.016 -0.1825  0.1159 -0.3422
26623W        W69536  31.876  31.102  27.422  0.0765 -0.0164  0.0119
26624W        W69537  21.709  23.892  18.860  0.3084  0.1011  0.0927
26625W        W69538  25.380  16.160  24.487  0.0865 -0.2119 -0.1138
26626W        W69539   1.033  26.980  18.825  0.1565 -0.3967  0.3509
26627W        W69540  31.806  12.627  20.764  0.0881 -0.2750 -0.2395
26628W        W69541  25.241  24.473  20.603 -0.0476  0.2291 -0.0763
26629W        W69542  23.149  23.424  13.117  0.5400  0.2166 -0.2363
26630W        W69543   0.184  20.649  22.488  0.0275  0.0287  0.1192
26631W        W69544  24.596   2.388  19.862 -0.0854  0.1602 -0.1494
26632W        W69545  28.371   2.649  17.546 -0.0510 -0.0516  0.0519
26633W        W69546  27.942  34.470  16.437 -0.0566  0.2096 -0.1149
26634W        W69547  28.896  27.683  16.957  0.1624 -0.3137  0.2304
26635W        W69548   0.075  24.824  20.283  0.2106 -0.1564  0.2768
26636W        W69549  28.336  27.020  23.357  0.2956  0.2015 -0.1467
26637W        W69550  20.559  21.352  16.021  0.0457 -0.2286  0.1650
26638W        W69551   2.955  20.397  14.639  0.0775  0.0576  0.1718
26639W        W69552  26.421  30.482  23.494  0.1729 -0.0254 -0.0294
26640W        W69553  32.768  29.512  19.114  0.2208 -0.0898  0.2239
26641W        W69554   0.502  23.550  16.724  0.0266  0.3913 -0.4286
26642W        W69555  27.206  21.563  18.440 -0.1100 -0.2739 -0.2059
26643W        W69556  31.437  23.119  13.971  0.0118 -0.1340  0.0894
26644W        W69557  26.560  30.965  27.721 -0.5463 -0.0501 -0.1119
26645W        W69558  26.423  29.183   4.270  0.1605  0.0338 -0.1053
26646W        W69559  30.444  25.094  14.752 -0.0954  0.0845 -0.0863
26647W        W69560  14.167  25.923  24.441  0.0096  0.1626 -0.1688
26648W        W69561  30.041   0.057  27.897 -0.0288 -0.0776  0.0641
26649W        W69562  18.117  33.860  20.846 -0.0747  0.0887  0.1744
26650W        W69563  24.407  17.240  15.960  0.2722 -0.2679 -0.1166
26651W        W69564  23.041  33.652  24.009  0.1742  0.1788 -0.0242
26652W        W69565  25.055  33.487  17.834  0.0499 -0.0817 -0.1396
26653W        W69566  27.524  23.094  15.035  0.2202 -0.0110 -0.1324
26654W        W69567  10.839  33.680  27.665  0.3841 -0.0998 -0.0017
26655W        W69568  25.518   6.496  18.746  0.1717 -0.0743 -0.1256
26656W        W69569  32.332  30.648  19.855 -0.4566  0.0109  0.0207
26657W        W69570  20.282  19.992  16.222 -0.0203 -0.0698  0.4041
26658W        W69571  28.873  30.966  20.330  0.4572 -0.0252  0.0542
26659W        W69572   3.643  21.493  15.170 -0.1147 -0.1117 -0.0041
26660W        W69573  29.141  26.638  20.311  0.2941  0.2468 -0.0489
26661W        W69574  31.963   0.358  16.233  0.2578 -0.1422  0.1075
26662W        W69575  23.304  28.662  25.586  0.0304  0.1265  0.1406
26663W        W69576  25.622  27.746  14.074 -0.2234 -0.2274 -0.0213
26664W        W69577  25.124  15.741  18.273  0.1585  0.2801  0.1434
26665W        W69578  27.143  29.965  13.936  0.0127 -0.3652 -0.2279
26666W        W69579  27.369   4.264  23.255  0.1163  0.0947  0.1364
26667W        W69580   1.278  26.519  17.181  0.1438 -0.2359 -0.0666
26668W        W69581   0.134   4.894  17.306 -0.0853 -0.2522  0.0467
26669W        W69582  21.152  24.786  15.519  0.1251 -0.2601  0.2096
26670W        W69583  26.835  17.663  29.144 -0.1502 -0.0175 -0.1432
26671W        W69584  30.378  27.132  15.508 -0.1136 -0.0365 -0.1598
26672W        W69585  20.895  18.502  15.318 -0.1282  0.2374 -0.3252
26673W        W69586  31.576  24.683  27.491 -0.0651  0.0900 -0.4023
26674W        W69587  17.736   3.472  25.712  0.0810 -0.1458  0.0198
26675W        W69588  28.021  21.080  17.077  0.3773  0.0807  0.0064
26676W        W69589  19.600  30.280  16.469  0.0322 -0.1316  0.0834
26677W        W69590  30.042  33.968  19.914 -0.1882 -0.0910 -0.1823
26678W        W69591  31.743  27.659  14.151 -0.4219  0.0818 -0.0849
26679W        W69592  11.224  20.756  22.254  0.2269 -0.2519  0.1066
26680W        W69593  20.914  26.367   0.168  0.2299  0.2563  0.0617
26681W        W69594  30.744  28.842  21.289  0.0205  0.0209 -0.1925
26682W        W69595  25.516  28.452  23.208 -0.1908 -0.0980 -0.0116
26683W        W69596  32.118  26.276  14.352  0.3258 -0.0402 -0.1273
26684W        W69597  32.765  29.323  23.651  0.3035 -0.3135 -0.5171
26685W        W69598  19.848  20.162  20.929  0.1540  0.1305 -0.0192
26686W        W69599   0.660  22.649  14.111 -0.3749 -0.1963 -0.4207
26687W        W69600  28.508  15.027  21.209  0.0906 -0.3064  0.1567
26688W        W69601  27.511  31.069  22.527 -0.0688 -0.0914  0.1821
26689W        W69602  20.891  19.676  18.000  0.0637  0.0171  0.1955
26690W        W69603  27.346   2.260  26.474 -0.0145  0.3346 -0.4152
26691W        W69604  27.703  31.841  29.599  0.2188 -0.1878 -0.0578
26692W        W69605  28.019  31.329  13.710 -0.0213  0.2843  0.0900
26693W        W69606  34.367  17.725  17.924 -0.0730 -0.0004  0.2580
26694W        W69607   0.942  23.197  19.954 -0.2058  0.0002  0.1300
26695W        W69608   3.268   5.555  21.758 -0.0299 -0.1769  0.0942
26696W        W69609  24.985  28.122  22.535 -0.3929 -0.0442  0.1888
26697W        W69610  28.235  33.489  22.666  0.0966  0.1138  0.0148
26698W        W69611  23.627  23.265  20.033  0.0205  0.2024  0.1541
26699W        W69612  33.933  25.871  21.246 -0.0662  0.1005 -0.0351
26700W        W69613  22.787  31.077  13.458 -0.0205  0.1362  0.1129
26701W        W69614  25.047  32.413  17.944  0.2878 -0.2531 -0.1688
26702W        W69615   1.198  34.030  19.305 -0.0502 -0.0737  0.0601
26703W        W69616   3.130  17.137  15.632  0.0306 -0.2901  0.0135
26704W        W69617  25.396  28.807  24.622 -0.4019  0.0533 -0.0149
26705W        W69618  20.440  17.736  26.819  0.0915 -0.1046 -0.0188
26706W        W69619  26.463  23.395  23.109 -0.1136  0.0879 -0.1309
26707W        W69620  27.097  23.949  22.397 -0.1342  0.2292  0.1203
26708W        W69621  33.065  27.343  24.503  0.3560  0.4244  0.0141
26709W        W69622   7.403  19.695  23.836  0.3890 -0.2746  0.1889
26710W        W69623  29.626  26.654  20.185  0.1397  0.2579  0.0091
26711W        W69624  29.578   1.895  23.747  0.1758 -0.1149  0.3152
26712W        W69625  24.356  25.278  13.915 -0.0724  0.1524  0.0270
26713W        W69626  27.089  25.935  22.079 -0.2094  0.1791 -0.0512
26714W        W69627  32.167  24.963  16.168  0.0824  0.1558 -0.1580
26715W        W69628  20.661  14.169  25.730  0.1372  0.0265 -0.0149
26716W        W69629  24.435  27.342  13.895  0.4225  0.0106  0.2587
26717W        W69630  30.999   1.559  22.410 -0.1888 -0.2442 -0.1558
26718W        W69631  23.978   2.573  25.486 -0.0201  0.1096 -0.1099
26719W        W69632  32.787   1.632  23.991 -0.1307 -0.0555 -0.0516
26720W        W69633  27.970  31.578  24.033 -0.0333  0.1398 -0.2791
26721W        W69634  26.079  28.061  15.786 -0.0373 -0.0954  0.0385
26722W        W69635  23.383  28.699  15.313 -0.0256 -0.2734 -0.0890
26723W        W69636  30.206  24.112  16.172  0.0525  0.0178  0.0450
26724W        W69637  30.147  14.677  14.052 -0.0841 -0.0931  0.2083
26725W        W69638  26.713   2.156  25.730  0.0504 -0.3091 -0.0844
26726W        W69639  33.731  27.446  18.492 -0.1967 -0.1165  0.2109
26727W        W69640  28.666  23.951  14.452 -0.0492 -0.3567  0.1292
26728W        W69641  16.983  26.474  14.685  0.2994 -0.0846 -0.3026
26729W        W69642  24.609  27.242  17.174 -0.0170 -0.0882 -0.1726
26730W        W69643  27.278  14.342  15.188 -0.3685  0.0630 -0.1730
26731W        W69644  32.377  11.971  17.141 -0.1106 -0.0022  0.4106
26732W        W69645  33.230  21.251  28.311  0.1442 -0.0430  0.2054
26733W        W69646  23.918   2.595  17.850 -0.0905  0.0061  0.3963
26734W        W69647  23.797   2.916  19.674  0.0622  0.2784  0.0097
26735W        W69648  17.159  32.633  29.431 -0.3340 -0.2267 -0.1416
26736W        W69649  26.308  15.785  19.687 -0.0499  0.0219  0.4569
26737W        W69650  22.719  25.436  27.877 -0.4433  0.2405  0.1620
26738W        W69651  32.771  34.280  19.477  0.1483 -0.3088  0.0294
26739W        W69652  13.015  30.187  22.449 -0.0048  0.0719  0.1954
26740W        W69653  32.986  19.561  21.927 -0.2838  0.0114  0.1754
26741W        W69654  22.757   1.028  26.840 -0.1867  0.0414 -0.2645
26742W        W69655  25.097   3.099  24.595 -0.0295  0.0334 -0.1615
26743W        W69656  12.360  11.569  17.816 -0.0064  0.0262  0.2465
26744W        W69657  22.849  30.412  17.925 -0.1282  0.1395 -0.2973
26745W        W69658  30.776  21.195  12.723 -0.1904  0.1394  0.1039
26746W        W69659  28.451  33.940  27.336 -0.1483 -0.0523 -0.0762
26747W        W69660  23.157   1.025  15.810 -0.0131  0.0420 -0.1273
26748W        W69661  25.721   4.164  15.899  0.0781  0.0735  0.2997
26749W        W69662  33.291  29.494  22.940  0.0428  0.1498  0.0512
26750W        W69663  16.073  24.353  16.123  0.0472 -0.2653 -0.1407
26751W        W69664  31.078  32.084  27.616  0.1571 -0.0871 -0.1968
26752W        W69665  18.048  26.134  24.454 -0.0820 -0.0724 -0.1938
26753W        W69666  27.241  15.136  14.775  0.0315  0.2118  0.1533
26754W        W69667  27.590  31.275  22.994 -0.1264  0.3377 -0.0992
26755W        W69668  25.396  33.874  18.156 -0.0071 -0.3114  0.1450
26756W        W69669  30.535   2.142  17.787  0.0803  0.0928 -0.0723
26757W        W69670  27.807  24.301  15.834 -0.0199 -0.1259  0.0929
26758W        W69671   5.137  33.789  26.762  0.1720 -0.2280  0.2605
26759W        W69672  27.690  26.000  19.068  0.1496 -0.0991 -0.2180
26760W        W69673  33.766  10.635  14.951  0.1735  0.5049  0.0746
26761W        W69674  30.452  25.017  26.965  0.1054  0.1631 -0.2044
26762W        W69675  30.210  26.369  26.708 -0.0277 -0.0562  0.0798
26763W        W69676  19.441  31.991  17.092 -0.0072  0.0859 -0.1026
26764W        W69677  33.434  33.436  16.760  0.0304  0.3106 -0.1288
26765W        W69678  23.861   3.182  23.186  0.0093 -0.1606  0.2696
26766W        W69679  31.785  28.061  15.342  0.1087  0.0319  0.2386
26767W        W69680   0.743  30.285  18.227 -0.2519  0.1150 -0.0300
26768W        W69681  21.739  22.938  13.262  0.1407 -0.0002 -0.0795
26769W        W69682  26.517   1.599  18.287  0.2747  0.2211 -0.0206
26770W        W69683  22.639  27.617  26.728 -0.2029 -0.0810  0.2705
26771W        W69684  18.188  23.761  22.101 -0.0650  0.0317 -0.0979
26772W        W69685  21.074  30.720  18.053  0.1866  0.1539  0.0229
26773W        W69686  25.489  33.908  28.625  0.0266  0.0803  0.0228
26774W        W69687  30.176  19.306  25.715 -0.1275 -0.1218  0.0553
26775W        W69688  30.337  20.827  22.732  0.2519 -0.0867 -0.0460
26776W        W69689   3.441  30.169  16.076  0.1220  0.2313  0.2650
26777W        W69690  31.506  33.940  26.327  0.4064 -0.4301 -0.2059
26778W        W69691  27.847  28.205  14.280 -0.1140 -0.0218  0.3083
26779W        W69692   1.249  26.693  16.409 -0.1347 -0.1672  0.0454
26780W        W69693   1.219   0.206  20.626 -0.1196 -0.2343 -0.3175
26781W        W69694  21.620  25.949   8.552 -0.1210  0.0938 -0.0804
26782W        W69695   2.453  20.300  19.448  0.1520 -0.3995 -0.0748
26783W        W69696  22.176  25.716  20.386  0.0086 -0.2288  0.1512
26784W        W69697   0.244   2.033  20.510  0.1153 -0.2436  0.2817
26785W        W69698   1.252  25.460  21.994  0.2440 -0.1314  0.2428
26786W        W69699  26.997  29.729  17.872 -0.0013  0.0577  0.1417
26787W        W69700  30.268   0.110  19.340  0.0548  0.2346  0.0109
26788W        W69701  33.170  31.606   5.557 -0.4881 -0.0395 -0.1906
26789W        W69702  26.423  32.769  20.939  0.0239  0.0179 -0.1381
26790W        W69703  31.212  20.433  25.954  0.2310 -0.2695 -0.0218
26791W        W69704  23.546  29.672  19.949 -0.1202 -0.2420 -0.1450
26792W        W69705  29.889  33.099  21.245  0.1632 -0.0032 -0.2942
26793W        W69706  29.975   0.340  26.241 -0.1081  0.0460  0.0031
26794W        W69707  29.239  31.845  22.419 -0.2391  0.0976 -0.3222
26795W        W69708  22.692  32.009  19.061 -0.2073 -0.2363 -0.0052
26796W        W69709  27.691  30.900  20.092 -0.1591  0.0012  0.1930
26797W        W69710  19.289  30.349  15.858  0.0014 -0.1798  0.1129
26798W        W69711  24.267   5.908  21.816 -0.0057 -0.3452 -0.0725
26799W        W69712  32.858  25.187  16.552  0.2673  0.2065  0.2263
26800W        W69713   2.929  25.900  14.249  0.2792 -0.2430 -0.1429
26801W        W69714  22.168  30.496  14.989 -0.1487  0.0045  0.2852
26802W        W69715  16.043  15.213  14.761  0.3192 -0.1202 -0.1795
26803W        W69716  28.024  20.138   1.611  0.0279  0.2262  0.1966
26804W        W69717  28.223  22.287  25.661 -0.0809  0.0874 -0.2174
26805W        W69718  20.657  33.611   0.295  0.3246  0.0284  0.3169
26806W        W69719  27.358   2.508   5.994 -0.1798 -0.1961  0.0866
26807W        W69720  28.413  34.222  14.672 -0.2514  0.1582 -0.0791
26808W        W69721  21.150   2.616  13.999  0.0929 -0.0510  0.0968
26809W        W69722  32.894   0.164   2.832  0.0573 -0.3394 -0.1805
26810W        W69723  28.436  20.981  18.776 -0.2093 -0.2241 -0.4817
26811W        W69724  30.634  34.105  23.180 -0.4140  0.3327 -0.1167
26812W        W69725   1.936  19.727   1.889  0.1076 -0.1888  0.2957
26813W        W69726  23.988   0.098  21.031 -0.1561  0.2008 -0.2776
26814W        W69727  24.215  26.496  13.133 -0.1230  0.0339  0.0387
26815W        W69728   2.209  16.014  23.072  0.0504  0.2105 -0.2131
26816W        W69729  24.493   1.605  25.605  0.1624 -0.0175 -0.1379
26817W        W69730  29.893  21.063  19.932  0.0719  0.0975 -0.2425
26818W        W69731  26.988  24.917  18.503 -0.1284 -0.0527  0.0534
26819W        W69732  29.890  27.943  16.488  0.1195 -0.3304 -0.0514
26820W        W69733  26.899  28.163  17.422  0.0395 -0.0908 -0.0108
26821W        W69734  30.577  17.426   0.220 -0.2151  0.1710 -0.1077
26822W        W69735   0.678  23.974  17.860  0.1091  0.1222  0.0261
26823W        W69736  26.140  25.565   2.513 -0.2143 -0.0125  0.2308
26824W        W69737  10.595  27.476  21.745 -0.3178 -0.3576  0.1264
26825W        W69738  12.717  27.566  27.886  0.2818 -0.1363  0.0995
26826W        W69739  23.389  15.552  23.756 -0.0404 -0.2034  0.1097
26827W        W69740  23.187   0.100  15.401  0.0993  0.1609  0.0779
26828W        W69741  21.443  20.594  16.806 -0.0547 -0.0910  0.3589
26829W        W69742  23.195  15.798  18.339  0.1121  0.2823 -0.0128
26830W        W69743  31.331   2.399   1.576 -0.1047 -0.1431  0.0480
26831W        W69744  19.875  31.391  28.973 -0.1355  0.1012  0.1523
26832W        W69745  31.131   5.607  21.913  0.0936  0.4532  0.1574
26833W        W69746  13.927  25.871  28.638  0.1653 -0.3606  0.2121
26834W        W69747  24.834  23.935  14.996  0.0087 -0.0405 -0.1292
26835W        W69748  27.284  30.406  16.277 -0.1135  0.2107 -0.0143
26836W        W69749  31.806  20.836   1.761  0.1243 -0.0631 -0.0087
26837W        W69750  32.546  26.892   1.144 -0.1833 -0.1349 -0.2896
26838W        W69751   5.243  21.824  28.044  0.2587  0.0072  0.0222
26839W        W69752  23.608  22.949  21.547  0.0119 -0.1394 -0.0425
26840W        W69753  33.695  31.670  23.457  0.1461  0.1256 -0.6749
26841W        W69754  24.795  26.880  28.875 -0.2525  0.0294  0.1628
26842W        W69755  17.998  19.873  23.860  0.0036 -0.4299 -0.1341
26843W        W69756  21.982  31.350   5.424  0.2417  0.0843  0.0172
26844W        W69757  16.140  20.371  26.435 -0.0262 -0.1459  0.1162
26845W        W69758  18.097  21.129  26.932  0.1637 -0.1247  0.0281
26846W        W69759  21.162  24.207  23.730 -0.0136 -0.1178  0.0287
26847W        W69760  18.443  31.614  16.265 -0.2283 -0.1444 -0.2444
26848W        W69761  24.406  33.612  24.403  0.0841 -0.0367  0.2050
26849W        W69762  22.179   3.978  26.727  0.4383  0.3028 -0.0470
26850W        W69763  13.444   1.224   1.219  0.0831 -0.1056 -0.2338
26851W        W69764  30.739  27.847  22.213 -0.4167  0.0132  0.0404
26852W        W69765  29.784  33.348   7.703  0.1563  0.0902 -0.0533
26853W        W69766  19.421  25.016  23.565  0.0546  0.2179  0.1907
26854W        W69767  33.084  33.103   0.822 -0.0389 -0.3536 -0.3421
26855W        W69768  22.346  22.767   1.442 -0.0864 -0.1487  0.1470
26856W        W69769  26.499  23.003  24.115 -0.4146  0.2872 -0.0943
26857W        W69770  30.542  20.523  20.600  0.1072 -0.2203 -0.0767
26858W        W69771  23.400  27.009  27.194  0.0467 -0.3690 -0.1063
26859W        W69772  24.208   4.491  27.659  0.0616 -0.0079 -0.1384
26860W        W69773  14.181  29.521  21.800 -0.0474 -0.2719  0.0938
26861W        W69774  22.640  24.924   1.517 -0.1449  0.1348 -0.2392
26862W        W69775  24.105  32.228   2.198 -0.1193 -0.1876 -0.2920
26863W        W69776  15.051  21.172  17.145  0.1903  0.2009 -0.1635
26864W        W69777  23.457  18.152  25.294  0.1290  0.3068 -0.0566
26865W        W69778  26.216  25.899  16.037  0.2019 -0.2516  0.0032
26866W        W69779  16.439   5.375  22.767  0.0170  0.1514 -0.1192
26867W        W69780  22.760  16.247  16.104 -0.0748  0.0120  0.1230
26868W        W69781  27.476  29.394  22.896 -0.0640 -0.0992 -0.1375
26869W        W69782  16.072  28.474  16.610 -0.2376  0.0450  0.0514
26870W        W69783  26.753  26.517  15.946  0.0854 -0.1319  0.0598
26871W        W69784  29.758  22.923  19.816  0.0561 -0.3335 -0.0573
26872W        W69785  25.788  25.488  14.749 -0.2146 -0.1877 -0.2024
26873W        W69786  30.222  26.229  13.877  0.2339 -0.1949  0.0796
26874W        W69787  19.683   3.752   2.610  0.2596 -0.1929 -0.1084
26875W        W69788  26.312   4.968   0.748 -0.1212  0.0805  0.1749
26876W        W69789  29.231   0.101   1.602 -0.1744 -0.1876  0.0442
26877W        W69790  22.900  14.839  17.280 -0.2371  0.0659 -0.0248
26878W        W69791  19.960  28.321  16.258 -0.0580  0.1636  0.0558
26879W        W69792  33.248  28.822   1.489  0.2475  0.0841  0.0354
26880W        W69793  31.003   1.641  25.303 -0.0754  0.1422  0.0276
26881W        W69794  13.693  17.165  15.530 -0.1013  0.0862 -0.2130
26882W        W69795  18.670  28.042  19.819 -0.0646  0.0985  0.1690
26883W        W69796  25.086  24.800  26.424  0.2520 -0.0824 -0.0030
26884W        W69797  30.729  12.845  20.326  0.0314 -0.0605 -0.0764
26885W        W69798  24.685  28.292  19.174  0.0615  0.0479 -0.0106
26886W        W69799  16.183  28.917   6.482  0.0393 -0.0509 -0.3109
26887W        W69800  16.782  20.208  16.126  0.1086  0.0145 -0.0872
26888W        W69801  25.668  18.250  14.554 -0.0586 -0.0428  0.2328
26889W        W69802  21.099  28.925  27.978  0.0741  0.0253 -0.0034
26890W        W69803  34.321  32.482  16.197  0.2533  0.0390  0.1562
26891W        W69804  24.399  18.502  23.485  0.0460  0.0732 -0.2308
26892W        W69805   1.965  28.405  24.243 -0.0280  0.1426  0.1018
26893W        W69806  23.560  17.401  21.354  0.0214  0.0558 -0.2945
26894W        W69807  33.660  24.245  26.192  0.1755  0.1524 -0.2292
26895W        W69808  18.243  26.127   1.379  0.1219 -0.2179 -0.0753
26896W        W69809  31.310  32.881  25.406 -0.0051  0.1053  0.0093
26897W        W69810  19.093  32.894  23.975  0.3721 -0.0917  0.0137
26898W        W69811  14.803  23.890  16.345  0.1422 -0.0637 -0.1494
26899W        W69812  29.938  18.213  27.621 -0.0561 -0.0696  0.0202
26900W        W69813  26.868  26.842  19.742  0.0786 -0.0090 -0.0132
26901W        W69814   8.353  24.805  24.699 -0.3725  0.0101 -0.0228
26902W        W69815  25.525  28.754  27.799  0.1670 -0.1089 -0.1418
26903W        W69816  23.555  18.872   4.411 -0.2216  0.2063 -0.2354
26904W        W69817  32.203  25.480  24.619  0.0366 -0.1690 -0.0078
26905W        W69818  27.718  24.874  23.263 -0.1115 -0.0055 -0.0720
26906W        W69819  14.878  24.070   1.000  0.0881 -0.0645 -0.0123
26907W        W69820   2.591  17.487  19.598  0.2302 -0.0437 -0.1145
26908W        W69821  18.905  20.124   0.598  0.3500 -0.0626 -0.0102
26909W        W69822  16.963  29.730  18.882  0.0026 -0.0033 -0.1040
26910W        W69823  32.423  26.659  26.559 -0.1270  0.3715 -0.1367
26911W        W69824  31.183   5.603  17.164  0.5659 -0.1120 -0.2941
26912W        W69825  24.466  17.186  13.352  0.0805  0.2219 -0.0164
26913W        W69826   3.224  21.075  27.643 -0.2278 -0.1809  0.0237
26914W        W69827  17.882  33.530  25.948 -0.0456  0.2814 -0.1338
26915W        W69828  22.495  27.495  28.146 -0.0005 -0.0640 -0.1311
26916W        W69829  22.154  32.108  22.469  0.1051 -0.3270  0.1150
26917W        W69830  19.309  23.270  26.472 -0.1051 -0.1147  0.0255
26918W        W69831  22.761  21.307  20.302  0.0855 -0.5054  0.0354
26919W        W69832  28.692  20.047  23.115 -0.1057  0.0448  0.3265
26920W        W69833  31.005  23.035  25.187  0.0254  0.0647  0.0405
26921W        W69834  30.055  29.180  19.057  0.1313  0.0408 -0.0799
26922W        W69835  26.063  27.903  24.067 -0.2135  0.3405  0.4300
26923W        W69836  17.280   6.484  20.465  0.4465 -0.2055 -0.0476
26924W        W69837  16.440  34.330   2.632 -0.0724 -0.2704  0.1296
26925W        W69838  33.335  23.679   2.612  0.1008 -0.0417  0.1274
26926W        W69839  25.767  20.268  16.308  0.2135  0.2677 -0.1484
26927W        W69840  23.787   0.152  19.859  0.4108  0.1126  0.0322
26928W        W69841  26.488  28.514   0.377  0.0501 -0.0249  0.1983
26929W        W69842  24.368  22.745  23.227 -0.1270 -0.2989  0.0295
26930W        W69843  30.633   0.370  22.081  0.1413 -0.2154  0.2592
26931W        W69844  34.284  27.729   2.477  0.0275  0.1792  0.0664
26932W        W69845  22.201  31.998   6.997 -0.2496 -0.1027  0.2114
26933W        W69846   3.132  27.753  23.299 -0.0285  0.1788 -0.2241
26934W        W69847  26.592  29.237  24.860  0.2911  0.1807  0.0908
26935W        W69848  29.284  20.942  23.866 -0.0075  0.3005  0.3504
26936W        W69849  13.662  20.312  29.279 -0.3660 -0.2106 -0.0621
26937W        W69850  19.218  28.136  15.005  0.0393 -0.3410  0.1475
26938W        W69851   8.521  23.283  15.438 -0.0643 -0.1323 -0.0221
26939W        W69852  25.815   0.491  24.567  0.0674  0.1839 -0.0338
26940W        W69853  24.156   0.352  19.575 -0.0241  0.0817 -0.0306
26941W        W69854  28.424  22.733  25.837 -0.2109  0.1772 -0.2080
26942W        W69855  20.775  29.812  26.829 -0.0294  0.0901 -0.0405
26943W        W69856  12.626  28.584  18.337  0.1135  0.2175  0.1355
26944W        W69857  32.210  26.379  21.864  0.0065 -0.1497 -0.1469
26945W        W69858  28.911  33.341  15.941  0.1718  0.0112  0.0055
26946W        W69859  33.477  30.469  21.337  0.0982 -0.2400 -0.2296
26947W        W69860  23.273  20.265  22.798  0.1530  0.1740 -0.0376
26948W        W69861  21.521  33.028   3.351 -0.0522  0.0190  0.2895
26949W        W69862  32.198   6.143  18.121  0.0566  0.1844 -0.0576
26950W        W69863  22.588  21.888  28.654  0.0103  0.0316  0.0299
26951W        W69864  32.868  24.814  17.253 -0.0326  0.0609  0.0912
26952W        W69865  22.654   4.253  28.441  0.0395  0.2780  0.2483
26953W        W69866  14.035  28.190  19.446 -0.2156 -0.3732  0.2038
26954W        W69867  23.284  17.860  24.474 -0.1534 -0.0630 -0.0233
26955W        W69868  29.976  23.644  13.769 -0.3743  0.1775 -0.2177
26956W        W69869  30.573  33.759  28.788 -0.5160 -0.0877 -0.1173
26957W        W69870  23.309  21.372  17.647 -0.0734  0.2207 -0.0137
26958W        W69871  25.932  28.961  25.854  0.0048 -0.2612  0.1620
26959W        W69872  20.484   5.878  27.739 -0.1115  0.1066 -0.0118
26960W        W69873  13.925  23.220  28.824 -0.1507 -0.0396  0.2233
26961W        W69874  20.936   1.435   4.453  0.0304 -0.0499  0.1605
26962W        W69875  17.979  25.329  19.615 -0.1762  0.3743 -0.2234
26963W        W69876   2.661   4.521  22.882  0.1379  0.1313  0.1105
26964W        W69877  18.203  28.978  17.650 -0.0826 -0.4072 -0.2712
26965W        W69878  30.707  24.883  13.681  0.0609 -0.1524  0.0037
26966W        W69879  30.900  25.148  27.212  0.2017 -0.0268  0.0145
26967W        W69880   1.709  27.190   6.862 -0.0258 -0.0101 -0.1020
26968W        W69881  27.891  24.005  26.627 -0.0879 -0.1189 -0.1535
26969W        W69882  14.343  20.391  14.723  0.4093  0.1123  0.2186
26970W        W69883  22.394  17.672  24.419 -0.2124 -0.1225 -0.0423
26971W        W69884  17.571  16.915  12.123 -0.1516  0.2701  0.0459
26972W        W69885   4.605  17.367   0.584 -0.1657  0.1590  0.0623
26973W        W69886  22.181  31.123  22.716  0.4039  0.2592  0.3716
26974W        W69887   2.391  27.585  19.024 -0.3581  0.0546 -0.0294
26975W        W69888  26.490   1.617  27.386  0.0838 -0.0742 -0.1370
26976W        W69889  25.653  17.364  22.546  0.0131 -0.0489  0.1286
26977W        W69890  29.689   1.113   2.237  0.1090  0.0709  0.4038
26978W        W69891  20.811   8.627  20.402 -0.2669  0.1244  0.2448
26979W        W69892   1.547   2.072  19.866 -0.0780  0.0387 -0.0873
26980W        W69893  29.271  33.180  22.163 -0.1868  0.0725 -0.0313
26981W        W69894  22.824   1.465  25.333 -0.3284 -0.0184  0.0229
26982W        W69895  30.393  32.771  18.670 -0.3680 -0.1043  0.0628
26983W        W69896   5.789  19.001  23.483  0.1599 -0.1638  0.1387
26984W        W69897  13.178  32.433  19.378  0.0970  0.1212 -0.2759
26985W        W69898   1.622  19.545  23.082  0.1017 -0.0709  0.3083
26986W        W69899  20.424  30.861  24.786 -0.3010 -0.5146  0.0172
26987W        W69900  29.105   0.675   1.485 -0.0140  0.2706 -0.1147
26988W        W69901  32.701   3.125  28.586  0.0352  0.2395  0.1982
26989W        W69902  20.241  31.459   3.955 -0.2894  0.5310  0.0489
26990W        W69903  31.959  16.636  18.263 -0.5759 -0.1684 -0.1887
26991W        W69904   0.907  24.982   4.131 -0.1448 -0.0604 -0.0165
26992W        W69905   1.054  21.004  25.247 -0.4608  0.2267  0.1157
26993W        W69906  22.647   1.283  24.877  0.2012 -0.2558 -0.1840
26994W        W69907   1.113  25.548  23.357  0.0442 -0.2050 -0.2880
26995W        W69908  20.388  31.385  20.155  0.0946 -0.0125  0.1911
26996W        W69909  31.659  13.381  27.857 -0.0369  0.0247  0.2927
26997W        W69910  33.122  25.349  22.203  0.0679  0.2693 -0.0863
26998W        W69911  24.681  30.256  17.598  0.0812 -0.0981 -0.0160
26999W        W69912  25.503  12.331  26.168  0.1863 -0.2506 -0.2292
27000W        W69913  11.914  25.737  19.587  0.2334  0.1935 -0.0952
27001W        W69914  29.462   5.768  23.307  0.0981  0.1090  0.0322
27002W        W69915  28.126  28.051  22.902  0.1039 -0.1970  0.0333
27003W        W69916   4.667   4.461  25.834 -0.0027  0.0865  0.0281
27004W        W69917  28.492  33.656   0.578 -0.3387 -0.0163  0.1179
27005W        W69918  20.738  21.429   1.128 -0.1767 -0.1359  0.0546
27006W        W69919  17.847   5.423   2.510 -0.2720  0.1319  0.1393
27007W        W69920  24.975  21.907   0.620 -0.0704 -0.1614  0.0274
27008W        W69921  25.470   3.180  16.219 -0.0907 -0.4059 -0.0953
27009W        W69922  17.459  25.080  17.562 -0.1659 -0.0036  0.0431
27010W        W69923  27.608  30.500  21.903 -0.1634 -0.0031  0.0638
27011W        W69924  28.585  22.684  20.084  0.0531 -0.1107  0.0293
27012W        W69925  32.183   1.886   5.437 -0.0311 -0.0895  0.0126
27013W        W69926  24.849  34.450  20.631 -0.0388  0.1335 -0.3654
27014W        W69927  28.407  29.551  26.120 -0.1315 -0.0217  0.3629
27015W        W69928  32.324  31.304   4.613 -0.2025  0.0475  0.0675
27016W        W69929  24.665   1.993  22.956  0.1268 -0.2297  0.1518
27017W        W69930   2.438  28.309   0.380 -0.2490  0.1284  0.2607
27018W        W69931  31.884  27.014  18.225 -0.0313  0.0346  0.0065
27019W        W69932  23.806  32.363  16.483 -0.1716 -0.1209 -0.0259
27020W        W69933   7.695  23.165  18.575  0.1035 -0.1021  0.1076
27021W        W69934  21.949  23.430  16.889  0.1032 -0.3266  0.1583
27022W        W69935  28.493  24.333  24.139 -0.0894  0.1889 -0.0064
27023W        W69936  26.956  34.042  29.549 -0.2425  0.1992  0.0515
27024W        W69937  24.808  10.796  14.424  0.1382 -0.1483 -0.0803
27025W        W69938  28.985  15.894  21.439 -0.0548  0.0740 -0.0797
27026W        W69939   1.108  22.640  17.370 -0.0040  0.2464 -0.2481
27027W        W69940  29.206  26.467   4.827 -0.1369 -0.1085 -0.3771
27028W        W69941  23.107  31.269  27.956 -0.2131 -0.0089  0.1394
27029W        W69942  29.532  21.371  17.502  0.3732  0.0683  0.0431
27030W        W69943  21.211  29.243   0.128 -0.2522 -0.2922  0.2658
27031W        W69944  23.563  28.959   1.323 -0.0156 -0.1905  0.0516
27032W        W69945  31.483   9.387  27.537 -0.0876 -0.0874 -0.1311
27033W        W69946  23.572   9.482  28.296  0.1035  0.0626 -0.0297
27034W        W69947  30.065  19.437  14.108  0.0005 -0.0303  0.0217
27035W        W69948  24.111  33.850  21.736  0.2803 -0.0272  0.2740
27036W        W69949  26.903  32.887  25.531 -0.0982  0.2070  0.4664
27037W        W69950  30.619  25.033  15.550  0.0662 -0.1251  0.0626
27038W        W69951  33.370  29.722  18.104 -0.1876  0.4053 -0.0288
27039W        W69952  29.571  26.331  19.762  0.3883 -0.1201 -0.0678
27040W        W69953  30.304   6.802  29.209 -0.2800 -0.1456  0.0677
27041W        W69954  33.169  25.246   3.772  0.0435 -0.0033 -0.1753
27042W        W69955  18.974  19.739  22.464 -0.0355 -0.0668  0.1131
27043W        W69956  24.210  29.231  24.197 -0.0345  0.2286 -0.0271
27044W        W69957  29.317  23.649  13.464 -0.0897 -0.0153  0.3241
27045W        W69958  16.436  27.415  21.363  0.1105 -0.1636  0.3467
27046W        W69959  21.797  23.968  15.124  0.1224  0.1852 -0.0947
27047W        W69960   6.527  29.473  24.491 -0.0523  0.1175  0.1725
27048W        W69961  21.957  25.047   0.680  0.4068  0.0897  0.3135
27049W        W69962  30.895  12.784  15.624 -0.0615  0.0365 -0.0122
27050W        W69963  23.515  33.313  26.472  0.1024 -0.0483 -0.2115
27051W        W69964  19.163  22.624  20.722  0.0972  0.0879  0.4063
27052W        W69965  32.374  22.235  14.135 -0.0793 -0.0523  0.2818
27053W        W69966   5.937  22.746  23.365  0.2399 -0.2636 -0.1560
27054W        W69967  25.876  25.477  27.083  0.0316  0.1711  0.1554
27055W        W69968  21.801  26.493   1.016 -0.4288 -0.1896  0.0712
27056W        W69969  10.066  32.960  27.331  0.0319 -0.0130  0.0332
27057W        W69970  31.798  26.998  27.042 -0.3923  0.0239 -0.1709
27058W        W69971  28.600  33.204   7.777  0.0279 -0.0946  0.0543
27059W        W69972   4.533  14.315   3.681  0.2727 -0.0737  0.1036
27060W        W69973  16.162  25.305  24.863  0.1108  0.0632  0.2872
27061W        W69974  15.544  29.221  15.165 -0.0604 -0.0375 -0.1320
27062W        W69975   2.841  24.886  19.550  0.0579  0.3866  0.0578
27063W        W69976  25.779  33.662   4.897 -0.0687  0.1165  0.2735
27064W        W69977  30.088  22.829  21.574  0.1964  0.1359  0.2308
27065W        W69978  21.471  15.447  12.732 -0.2127 -0.1501  0.0864
27066W        W69979  34.083  26.987  13.639  0.1373  0.1832 -0.0383
27067W        W69980  28.856  27.594  22.191 -0.0236  0.0481 -0.0499
27068W        W69981   0.515  26.729   0.941  0.0010 -0.0248 -0.1100
27069W        W69982  13.156  20.467  18.999  0.0871 -0.1819  0.3087
27070W        W69983  23.711  27.990  22.503  0.1224  0.1666  0.2909
27071W        W69984  23.352   1.205  27.093  0.4007  0.0953  0.1317
27072W        W69985  20.733  25.108  23.939  0.0139 -0.0605  0.0216
27073W        W69986   1.177  25.649  29.538  0.2039 -0.0355  0.1455
27074W        W69987  29.604   6.220   1.599 -0.1035 -0.1804 -0.0079
27075W        W69988  33.449   4.453  18.769  0.0489  0.0092  0.0445
27076W        W69989   5.023  33.358  20.818 -0.2133  0.2178 -0.0916
27077W        W69990  33.665  24.569  15.460 -0.3883 -0.0682 -0.1936
27078W        W69991  29.041  27.112  16.890  0.4008  0.0371 -0.0783
27079W        W69992  30.739  24.395   1.841  0.2856  0.1872 -0.1447
27080W        W69993  23.901   1.350  27.997  0.2224 -0.1810  0.1211
27081W        W69994  18.643  20.973  27.526 -0.0601 -0.0804  0.3328
27082W        W69995  17.116  28.230  24.371  0.0849  0.2712 -0.1922
27083W        W69996  23.535  26.098  20.775  0.0290  0.0168 -0.0815
27084W        W69997  19.776  23.219  25.495 -0.0460  0.0867  0.1448
27085W        W69998  21.454  22.511  28.908  0.1141  0.1869 -0.1732
27086W        W69999  27.458   3.955   1.548  0.2355  0.0827  0.0514
27087W        W70000   8.058  23.050  20.691 -0.3048  0.2437  0.0615
27088W        W70001  19.524  20.694  26.948  0.0795 -0.1247  0.0714
27089W        W70002  26.913  27.404  24.960  0.0827 -0.1542  0.0701
27090W        W70003  24.384  23.574  28.708 -0.2186  0.1530 -0.1529
27091W        W70004  18.199  29.107   3.568  0.1650 -0.2372 -0.1431
27092W        W70005  25.526  28.013  23.968  0.0519 -0.0138  0.1194
27093W        W70006  14.753  27.229  25.372 -0.0120  0.0943  0.0745
27094W        W70007  21.253  26.783  24.769 -0.1718 -0.1066 -0.1826
27095W        W70008  26.172   2.523  27.817  0.0645  0.0737  0.1244
27096W        W70009  30.815  28.832  25.267 -0.1053 -0.1842 -0.0441
27097W        W70010  25.574   0.283  25.373  0.0623  0.2345 -0.0067
27098W        W70011  30.948  21.057  27.140 -0.2835  0.0261  0.2446
27099W        W70012  32.735  30.381  15.024  0.4234  0.2992  0.2725
27100W        W70013  30.054  26.575   1.466 -0.2730  0.1900 -0.3379
27101W        W70014  22.848   1.018  29.316 -0.1496 -0.2597  0.3882
27102W        W70015  15.654  22.455   6.877  0.3049  0.0329  0.1951
27103W        W70016  19.687  26.142  20.810 -0.0279  0.1610 -0.1522
27104W        W70017  22.345  25.937  19.848 -0.1443  0.2488 -0.0181
27105W        W70018  28.461  14.911  16.174  0.2161 -0.1720 -0.0258
27106W        W70019  19.510  23.056   2.307 -0.0070 -0.1058 -0.0736
27107W        W70020  21.111  27.327  15.378  0.2829  0.2298  0.0738
27108W        W70021  32.665  17.401  19.375 -0.1123 -0.3316  0.0249
27109W        W70022  21.418  19.395  23.860  0.2727 -0.0750 -0.0113
27110W        W70023   0.828  24.188  27.457 -0.0880  0.0312  0.4123
27111W        W70024   1.223  27.025  22.323 -0.0298 -0.0854 -0.0011
27112W        W70025  28.195  24.872  16.206  0.2739 -0.0941  0.0016
27113W        W70026  22.698  31.810  22.281  0.1061 -0.1279 -0.3805
27114W        W70027  32.152  13.570  22.464 -0.0406  0.1543  0.3224
27115W        W70028  32.134  29.902  25.239 -0.0860  0.0438  0.2078
27116W        W70029  26.460  30.111  25.458 -0.0948  0.3184  0.0932
27117W        W70030  26.704  26.206  27.136  0.0004 -0.1523  0.1793
27118W        W70031  30.806   2.272   0.793 -0.0984 -0.1802  0.1434
27119W        W70032  30.730  32.825   0.421 -0.1544 -0.0890  0.0070
27120W        W70033  21.746  30.616  13.959 -0.0539 -0.1368 -0.2427
27121W        W70034   1.968  30.158  17.175  0.1932 -0.1535 -0.0728
27122W        W70035  16.725  20.785   2.832  0.0750 -0.0005 -0.1923
27123W        W70036  21.533  21.288  16.159  0.0510  0.0570  0.0063
27124W        W70037  24.715  29.779  21.393 -0.1245  0.4696 -0.2734
27125W        W70038  23.499  13.681  13.674  0.0482  0.0392  0.1048
27126W        W70039  20.928  12.459   1.097 -0.0932  0.2703  0.3195
27127W        W70040  23.617  30.701  22.972  0.0038  0.2905 -0.2126
27128W        W70041  25.854   8.978  15.928  0.3555  0.1501 -0.1988
27129W        W70042  25.655  25.560   2.351 -0.4492 -0.1782  0.3431
27130W        W70043   8.038  21.298  24.548 -0.0666  0.0602 -0.2445
27131W        W70044  30.452   2.791   9.159 -0.0863  0.0843 -0.0315
27132W        W70045  16.443  24.537  17.060 -0.0298  0.0399 -0.2563
27133W        W70046  33.211  28.545  27.577 -0.0323 -0.0740  0.1625
27134W        W70047  28.116  14.621  27.686  0.2576 -0.0967  0.4176
27135W        W70048  27.099  22.367  22.145 -0.0017 -0.0418  0.1492
27136W        W70049  25.705  31.931  24.851 -0.1980  0.0001  0.0258
27137W        W70050   7.980  24.664  26.593  0.2118  0.0060  0.1632
27138W        W70051  31.625  27.676  23.007 -0.2781 -0.0345  0.1760
27139W        W70052  20.872  30.186  26.473 -0.1517  0.1206  0.0896
27140W        W70053  20.136   2.591   1.370 -0.3972 -0.0111  0.3015
27141W        W70054  30.571  28.619  15.289 -0.2357  0.1807  0.0960
27142W        W70055   7.647  10.610  28.030 -0.0419  0.0610  0.2895
27143W        W70056  26.259  21.610  28.292 -0.1301  0.1274 -0.1501
27144W        W70057  25.049  22.771  21.073 -0.1578  0.0958  0.0655
27145W        W70058  27.306  26.814  18.078 -0.1544  0.1514  0.1287
27146W        W70059  30.822  30.459  14.785 -0.2310  0.0304  0.0892
27147W        W70060  32.266   0.067   8.589  0.2020  0.0674  0.1005
27148W        W70061  26.617   5.767  14.398  0.2245 -0.0597 -0.0701
27149W        W70062  21.324  27.174  19.040  0.2235  0.0391  0.1945
27150W        W70063  34.266  17.404  15.985 -0.0673  0.3133 -0.0596
27151W        W70064  34.207  19.937  28.591 -0.1186 -0.1238  0.0704
27152W        W70065   3.755  10.688  20.320 -0.0903  0.1214  0.0079
27153W        W70066  24.650  23.500  15.408  0.0035 -0.3284  0.5125
27154W        W70067  21.342  19.541  24.796 -0.3201  0.1301 -0.2348
27155W        W70068  15.386  24.015  25.084 -0.1109  0.0474  0.2471
27156W        W70069  19.670  16.959  22.988 -0.0567  0.1471 -0.0939
27157W        W70070  27.487  25.383  27.938 -0.1291  0.1035  0.1019
27158W        W70071  23.013  31.616  19.310 -0.1379 -0.1448  0.0515
27159W        W70072  26.961  23.642  22.998  0.1222  0.2841 -0.0837
27160W        W70073   4.871  24.937   0.985 -0.1891  0.0339 -0.2542
27161W        W70074  31.917  29.700  15.979  0.0324 -0.2791  0.0283
27162W        W70075  26.791  21.750  28.486  0.0776 -0.0424  0.3640
27163W        W70076  29.658  27.379  21.910  0.1776  0.0880 -0.1834
27164W        W70077  22.586  30.596  13.027  0.1146  0.1157 -0.1532
27165W        W70078  25.296  32.554  19.378  0.1926  0.2232 -0.1671
27166W        W70079  32.856  18.224  27.695 -0.2106  0.0024 -0.0825
27167W        W70080  16.608  28.781  17.207  0.1003 -0.2947  0.1071
27168W        W70081  27.493  30.377  20.753  0.1178 -0.2726 -0.1582
27169W        W70082  24.517  34.128   2.528 -0.5538  0.1366 -0.0965
27170W        W70083  13.616  25.769  23.166  0.2945  0.3805  0.1141
27171W        W70084  16.302  25.654  17.953  0.1633  0.1844 -0.0827
27172W        W70085  15.794  13.869  13.084 -0.0630  0.2853 -0.0229
27173W        W70086   4.894  29.241  17.668 -0.0767 -0.0238  0.1224
27174W        W70087  23.707   1.569  14.149  0.0009  0.0025 -0.0683
27175W        W70088  28.907  23.614  14.729  0.1574  0.2025 -0.1137
27176W        W70089  18.684  27.760  16.810 -0.2308  0.0818  0.1181
27177W        W70090  17.836  23.365  17.280  0.2985  0.0024  0.3069
27178W        W70091  26.142   0.419  28.386 -0.2937  0.3428 -0.0518
27179W        W70092  24.482  32.641  25.459  0.2552  0.3786 -0.1961
27180W        W70093  23.162   7.571  16.548  0.4481 -0.1639 -0.0968
27181W        W70094  17.847  13.070   1.217 -0.0516  0.1267 -0.1704
27182W        W70095  15.858  11.981   0.971  0.2590  0.0854 -0.1538
27183W        W70096  29.443   0.930  15.815  0.2877  0.1488  0.2737
27184W        W70097  31.134  29.958   0.251 -0.3086  0.1268 -0.1446
27185W        W70098  32.571  16.317  29.155  0.3252  0.0923 -0.1552
27186W        W70099  26.056  18.323  17.071  0.2017  0.0213  0.0982
27187W        W70100  20.536  29.210   0.617  0.1204 -0.2001  0.1187
27188W        W70101  25.157   7.574  28.551  0.0690  0.1965  0.0826
27189W        W70102  29.514  24.867  19.890 -0.1198 -0.0317  0.0244
27190W        W70103   1.740  29.782  16.798 -0.1411 -0.0252  0.1278
27191W        W70104  28.185  26.599  23.081 -0.1097 -0.0142 -0.2656
27192W        W70105   2.581  21.656  19.365 -0.4452  0.5535 -0.1507
27193W        W70106   5.286   0.865  27.358  0.2598  0.0301 -0.1976
27194W        W70107  25.877  28.853  18.578  0.0968  0.2273 -0.2061
27195W        W70108  32.122  27.153  22.590  0.2789 -0.1362 -0.1213
27196W        W70109  23.046  29.880  18.710 -0.0340 -0.0308  0.1514
27197W        W70110   3.705  21.653  24.074 -0.1900 -0.0318  0.1046
27198W        W70111  12.920  23.454  26.586 -0.0067 -0.3170  0.0721
27199W        W70112  13.395   2.462   2.016  0.1935 -0.0719  0.0976
27200W        W70113  34.119  17.586  20.815 -0.1530  0.1877  0.1710
27201W        W70114  17.351  29.973   5.920 -0.1828  0.2640  0.1652
27202W        W70115  31.732  20.123  25.140  0.1696  0.3218  0.1336
27203W        W70116  20.732  19.272  28.867 -0.0337 -0.3418  0.1505
27204W        W70117  20.879  24.862   2.320  0.1467  0.1184 -0.1079
27205W        W70118  29.572  32.823  28.230 -0.0736 -0.0119  0.0643
27206W        W70119  16.136  29.220  22.112  0.0549 -0.0866 -0.0299
27207W        W70120  26.036  19.223  14.170 -0.1868 -0.1629 -0.0356
27208W        W70121  23.650  33.000  25.228  0.1648  0.1030 -0.3527
27209W        W70122  20.931  30.459  27.847 -0.1353  0.1201  0.3031
27210W        W70123  21.182  30.632   1.877  0.0512 -0.0655  0.1707
27211W        W70124  28.542   1.300   1.856  0.1035  0.2260 -0.0038
27212W        W70125  26.463  15.016   0.974  0.1757  0.0302 -0.3403
27213W        W70126  29.059   2.600  23.309  0.6443 -0.2341 -0.2357
27214W        W70127  23.302  23.847  19.166 -0.0145 -0.1833  0.0355
27215W        W70128  12.039  22.379  22.242  0.0163  0.0843 -0.0462
27216W        W70129  18.294  29.812  26.055  0.0549  0.0642 -0.1697
27217W        W70130  27.574  26.663  25.954 -0.1408  0.0138 -0.0220
27218W        W70131  34.380   2.516   0.850  0.3539  0.2027  0.1148
27219W        W70132  26.621  21.971  25.910 -0.4239  0.0757 -0.0890
27220W        W70133  26.960  26.010   1.832 -0.2038  0.0305  0.1248
27221W        W70134  30.717  19.292  27.197  0.2933  0.0273 -0.0308
27222W        W70135  18.163  32.180  15.077 -0.0472 -0.1127 -0.1053
27223W        W70136  34.214  20.978  23.813 -0.0873 -0.1509  0.0572
27224W        W70137  23.301  26.885  25.674 -0.1244  0.2083  0.1420
27225W        W70138  29.215  31.308  24.110 -0.2340 -0.2178 -0.0302
27226W        W70139  24.969  27.715   2.425 -0.1436 -0.3176  0.2472
27227W        W70140  23.253  18.864  28.924 -0.3368 -0.0634 -0.2211
27228W        W70141  31.577  31.403   1.563 -0.1383  0.0992 -0.1948
27229W        W70142  31.638  27.524  20.819  0.2315 -0.2113 -0.1387
27230W        W70143  22.084  30.543   0.017  0.0099  0.0390 -0.1702
27231W        W70144  31.964   2.999  11.397 -0.1889  0.0651 -0.1471
27232W        W70145  24.976  32.545  20.389  0.3203  0.0964  0.0442
27233W        W70146  11.957  23.926   1.318  0.0419  0.2227 -0.1197
27234W        W70147  23.156   1.634   1.262 -0.3304 -0.1144 -0.0700
27235W        W70148  25.070   0.124  16.911 -0.0993  0.4048 -0.0115
27236W        W70149  18.533   1.034  22.641 -0.3027  0.3661 -0.0095
27237W        W70150  19.817  21.223  17.118 -0.1307  0.0909  0.0376
27238W        W70151  29.852   3.436   3.480  0.0487 -0.2546 -0.0242
27239W        W70152  27.729   4.062   2.488  0.1791  0.0170 -0.0025
27240W        W70153  27.082  29.710   1.799  0.2334  0.1343  0.0585
27241W        W70154  28.398  33.767   3.159 -0.2669 -0.1950 -0.0105
27242W        W70155  28.398  33.321  17.087  0.3650 -0.1332 -0.3243
27243W        W70156  14.445  23.423  27.802  0.2292 -0.0854 -0.2280
27244W        W70157  21.023  15.287  29.361  0.0581  0.2532 -0.1644
27245W        W70158  24.095  28.496   8.374  0.2934 -0.2175  0.1178
27246W        W70159  19.806  33.900  27.198  0.0807  0.1342 -0.0171
27247W        W70160  22.486  32.285   1.140  0.0479 -0.0472  0.1234
27248W        W70161  31.082  29.675  22.181 -0.0447 -0.0941  0.1037
27249W        W70162  29.709  32.314   4.124 -0.2022 -0.1237 -0.1326
27250W        W70163  16.302  23.552  20.530 -0.2846  0.0491  0.0023
27251W        W70164  20.491   2.681  24.608  0.1110 -0.1953 -0.1549
27252W        W70165  34.286   1.950   5.633  0.0169  0.0327 -0.0038
27253W        W70166  31.123  23.840  17.824  0.2870  0.0253  0.3593
27254W        W70167   6.347  24.634   2.168 -0.1729 -0.1605 -0.0176
27255W        W70168  22.778  26.216  21.192  0.3671  0.1531  0.2420
27256W        W70169  20.505  21.437  24.070  0.0572 -0.2981 -0.0817
27257W        W70170  30.845  27.746  27.878 -0.0223  0.2233 -0.0535
27258W        W70171  23.378  33.190   3.480 -0.1199 -0.1628 -0.0643
27259W        W70172  20.113  17.314  15.777  0.2582 -0.4459  0.0438
27260W        W70173  27.553  27.175   1.548  0.1151  0.4030  0.2482
27261W        W70174  27.532   4.153  25.514  0.0779 -0.1445 -0.2207
27262W        W70175  27.094  23.009  24.988  0.0485  0.0922 -0.0805
27263W        W70176  28.279  19.984  17.660 -0.1719 -0.0094 -0.4569
27264W        W70177  27.069  30.455  18.221 -0.0120 -0.0959 -0.2677
27265W        W70178  24.550  25.838   5.598  0.2718 -0.3368 -0.0011
27266W        W70179   5.020   0.434  25.252 -0.2136  0.2132 -0.0617
27267W        W70180   2.898  24.863   4.840  0.4252  0.0437  0.3113
27268W        W70181  21.900  25.976   0.019  0.1365  0.0167  0.1546
27269W        W70182  27.651  28.980  23.159 -0.2321  0.2093 -0.0082
27270W        W70183  23.439  28.391  21.538 -0.0492 -0.0316  0.2364
27271W        W70184  19.105  29.317   0.455  0.0057  0.1278 -0.3219
27272W        W70185  26.301  28.567  22.069  0.0532  0.4490  0.0080
27273W        W70186  30.934   5.808  29.308  0.0807 -0.3966 -0.0993
27274W        W70187  14.531  26.329  27.138  0.2100  0.1023  0.1892
27275W        W70188  22.245  26.231  20.266 -0.4579  0.0141 -0.1040
27276W        W70189  32.719  26.230  22.669 -0.1052 -0.0895 -0.1474
27277W        W70190  11.343  25.103  28.136  0.1380 -0.1238 -0.1007
27278W        W70191  28.806  33.133   4.944  0.2355  0.1702 -0.0158
27279W        W70192  22.321  23.328  29.654 -0.2216 -0.2401 -0.0372
27280W        W70193  31.146   1.726  16.831 -0.1714  0.2103 -0.5007
27281W        W70194  25.616  26.479   2.826 -0.3834 -0.0201  0.1538
27282W        W70195   6.821  15.560   9.497 -0.1007 -0.0812  0.0977
27283W        W70196  28.948  17.314   7.011  0.0460 -0.1215 -0.2375
27284W        W70197  25.835   4.302  15.405  0.2236  0.1940 -0.0514
27285W        W70198  22.930  28.704   3.972  0.3766 -0.2977 -0.0512
27286W        W70199  19.142  29.895   8.301 -0.0231 -0.1405  0.1206
27287W        W70200  33.100  26.261   2.363 -0.1646 -0.1131  0.0355
27288W        W70201  15.717   2.206  25.024  0.0849 -0.4320  0.1790
27289W        W70202  20.949  20.074  25.457 -0.0276  0.1635  0.2324
27290W        W70203  34.201  13.590  22.904 -0.1234  0.0122  0.1509
27291W        W70204  19.202  33.917  20.624 -0.1397  0.2273  0.1676
27292W        W70205  16.697  25.783   2.939  0.0137  0.2787 -0.0686
27293W        W70206  30.551  24.475   4.225 -0.0547 -0.1032  0.1015
27294W        W70207  21.845  32.378  25.650  0.4508 -0.1748  0.0210
27295W        W70208  31.638  20.669   0.177  0.1349  0.1741  0.1778
27296W        W70209   0.552   5.225   1.542 -0.3067  0.0280  0.0596
27297W        W70210  33.058  11.696   1.664 -0.0712  0.0999  0.2280
27298W        W70211  30.128  23.664   6.653  0.1018  0.3360  0.1509
27299W        W70212   2.875  31.368  26.627 -0.1069 -0.1099 -0.1870
27300W        W70213  25.883  25.954  15.190  0.0201 -0.0897 -0.0895
27301W        W70214   6.816   6.346   8.109  0.2889 -0.2767 -0.2447
27302W        W70215  23.376  31.181  19.222 -0.2931 -0.1983  0.2922
27303W        W70216  28.347  28.099  18.607 -0.2386 -0.0792 -0.2652
27304W        W70217  33.709  26.425  20.716 -0.3826  0.1960  0.0172
27305W        W70218  20.911  30.242  24.221  0.0299  0.0155  0.1330
27306W        W70219  19.490  29.193   5.981 -0.2988 -0.1533 -0.1705
27307W        W70220  29.025  24.261  19.483 -0.1299 -0.2412 -0.2822
27308W        W70221  25.868  29.896  26.588 -0.0942 -0.3913  0.3728
27309W        W70222  23.135  30.216  16.248  0.1047  0.0647  0.3374
27310W        W70223  27.484   1.816  24.759 -0.2439 -0.0665 -0.1258
27311W        W70224  22.012  28.187   0.278  0.1153 -0.0098  0.1702
27312W        W70225  13.893  30.705   6.023  0.1964 -0.0082  0.1705
27313W        W70226  25.439  23.920  20.616  0.3982 -0.3844  0.2404
27314W        W70227  22.566  16.747   4.069 -0.0095  0.0666  0.2495
27315W        W70228  22.172  21.753  27.824  0.2260  0.0160 -0.0871
27316W        W70229  28.643  22.724  24.445  0.0347 -0.1072  0.1018
27317W        W70230  18.484  17.053  23.319  0.1995  0.1741 -0.0739
27318W        W70231  33.142  28.331   5.773 -0.0775  0.1697  0.0486
27319W        W70232  19.755  19.659  23.734  0.2125 -0.2411 -0.2600
27320W        W70233  19.544  29.436   6.409 -0.0918  0.1523 -0.1950
27321W        W70234  30.346  34.197  22.161 -0.1696 -0.1566 -0.2817
27322W        W70235  26.240  12.109  19.957  0.1821 -0.0086 -0.1191
27323W        W70236  26.199   5.502  26.419  0.0427  0.1544  0.0559
27324W        W70237  19.981   4.902   1.000  0.2542  0.1434  0.3017
27325W        W70238  14.312  24.269   1.811 -0.0821 -0.0800  0.0413
27326W        W70239  30.089  31.678  20.545  0.0799 -0.0234 -0.3216
27327W        W70240  27.064  34.127   7.959 -0.1801  0.2329 -0.4730
27328W        W70241  28.054   2.775   2.916 -0.1361  0.3867  0.1595
27329W        W70242  23.630  30.248  19.241 -0.3135  0.2797 -0.1292
27330W        W70243  17.712  30.059  25.183 -0.1316  0.0862 -0.4345
27331W        W70244  18.755  22.694  28.077 -0.3328 -0.1245 -0.2493
27332W        W70245  25.239  25.421  28.628 -0.3389  0.2759  0.1637
27333W        W70246  17.809  22.581   1.447  0.1576  0.0558  0.3402
27334W        W70247   5.643   2.965   2.310 -0.1682 -0.0186 -0.1604
27335W        W70248  19.225  23.025  24.205  0.0969 -0.0020 -0.0608
27336W        W70249  28.679   3.683  21.987 -0.2404 -0.0283  0.0900
27337W        W70250  21.890  24.156  16.370  0.1598 -0.1056  0.1401
27338W        W70251  25.999  30.548  29.243 -0.0528  0.0906  0.0500
27339W        W70252  19.379  28.529   4.397 -0.3320 -0.2489 -0.0926
27340W        W70253   6.018  15.057  28.125 -0.0272  0.0194 -0.0224
27341W        W70254  19.547  29.565  15.364 -0.1442  0.0534 -0.2262
27342W        W70255  30.730  27.861  28.450  0.1292 -0.1508  0.0887
27343W        W70256  30.080  24.484   5.627 -0.1054  0.0644 -0.0829
27344W        W70257  29.942  23.441  26.557 -0.1770  0.2104 -0.4538
27345W        W70258  21.026  28.056  27.391  0.0357  0.2388 -0.0041
27346W        W70259  32.630  24.953  28.449  0.1251 -0.0542  0.6801
27347W        W70260  19.661  27.278  29.158  0.0706 -0.1761 -0.2932
27348W        W70261  26.676  33.548  19.589 -0.0378 -0.0067 -0.0135
27349W        W70262  22.314  31.080  16.380  0.1530  0.0060  0.0214
27350W        W70263  14.532  33.054  25.196 -0.1485 -0.0214 -0.0926
27351W        W70264  11.370  26.413   0.801  0.0533 -0.0393  0.2029
27352W        W70265  27.957  24.142  19.951 -0.1017 -0.2741  0.0371
27353W        W70266  24.651  28.615  29.444 -0.1925 -0.0372 -0.3297
27354W        W70267  20.595  30.199  25.467  0.0311 -0.0105 -0.2682
27355W        W70268  23.546  29.362   1.726 -0.1780  0.1713 -0.0162
27356W        W70269  27.029  27.398   1.122  0.0122  0.1550 -0.3223
27357W        W70270  29.578  29.355   4.691  0.1355 -0.1145  0.4467
27358W        W70271  27.374  15.777  17.922  0.2354 -0.1033  0.1818
27359W        W70272  19.135  17.436   2.928 -0.1019  0.0754 -0.1898
27360W        W70273  23.893   0.053  28.889  0.0811  0.2414 -0.3375
27361W        W70274  14.025  30.133  27.875  0.1977  0.5017 -0.3165
27362W        W70275  31.944  27.298  23.140 -0.1659  0.1436  0.0587
27363W        W70276  25.912  34.021  24.191  0.1501 -0.0505 -0.1366
27364W        W70277  26.236  27.089   1.309  0.0799  0.1915  0.0996
27365W        W70278   7.835  19.978   5.395 -0.0402 -0.2513 -0.0147
27366W        W70279  16.790  25.119  21.765  0.2101  0.2319 -0.2858
27367W        W70280  28.643   0.425   0.316  0.0586 -0.1527 -0.1514
27368W        W70281  28.240  24.576  19.770  0.1760  0.0075  0.0287
27369W        W70282  30.071   8.411   8.015 -0.1678  0.0390 -0.1954
27370W        W70283  30.020  14.439  26.518  0.0524  0.1309 -0.0587
27371W        W70284  28.487  25.595   7.960  0.0326 -0.1565 -0.3152
27372W        W70285  30.732   4.274   9.234 -0.0243 -0.2534  0.0274
27373W        W70286  21.217   8.584   2.896  0.3281  0.1116 -0.2341
27374W        W70287  27.881  21.964  27.494 -0.0020  0.3006 -0.0865
27375W        W70288  24.288  28.369   6.576 -0.0538 -0.1196  0.1547
27376W        W70289  24.678  20.468  25.633  0.1016  0.3724  0.2659
27377W        W70290  31.647  24.225  28.032 -0.0772 -0.3378 -0.1970
27378W        W70291  30.509  33.890   3.964 -0.0928 -0.2999 -0.0546
27379W        W70292  20.561  27.945  27.192 -0.2360 -0.5199  0.2306
27380W        W70293  24.708  31.524  20.643  0.0112  0.0586  0.1173
27381W        W70294  21.319  29.860   2.398 -0.1621 -0.0093 -0.0878
27382W        W70295  26.869  34.418   0.265 -0.2409  0.5258 -0.0509
27383W        W70296  19.840   9.312  29.104 -0.3954 -0.0712  0.1474
27384W        W70297  23.628  29.718   0.749  0.1487 -0.2639 -0.3376
27385W        W70298   1.267  33.737  20.817  0.0628 -0.1819 -0.1015
27386W        W70299  27.066   5.435   0.918  0.0413  0.1999 -0.1524
27387W        W70300  27.266  26.107  21.078  0.2267 -0.3265 -0.0544
27388W        W70301  22.734  16.007  26.937 -0.2393  0.3563 -0.2544
27389W        W70302  16.506   2.349  26.268  0.1476 -0.0973  0.4329
27390W        W70303  13.043  21.323  21.048 -0.0687  0.0041  0.1206
27391W        W70304  24.656  22.987  26.011  0.3404  0.1240 -0.4400
27392W        W70305  28.361  16.138   8.097  0.1210 -0.1244 -0.0490
27393W        W70306  25.365  21.966  26.051  0.0857 -0.0865  0.2056
27394W        W70307  21.980  31.709   7.773 -0.3664 -0.1216  0.0285
27395W        W70308  23.274  30.748  25.871 -0.3752  0.1979 -0.1009
27396W        W70309  23.835  32.378   2.599  0.2667 -0.2478 -0.3278
27397W        W70310  33.854  14.703   5.834  0.0827 -0.1497  0.1326
27398W        W70311  28.394  28.465   4.797 -0.0271  0.1323 -0.1512
27399W        W70312  29.897  28.967   6.184 -0.0371 -0.2300 -0.1099
27400W        W70313  24.899  34.371  22.904 -0.1552 -0.0883  0.1854
27401W        W70314  29.742  20.054   1.024 -0.0390  0.1412 -0.0256
27402W        W70315  22.529  19.309  27.054  0.1502  0.0546 -0.2319
27403W        W70316  13.676  23.112  18.922  0.1198 -0.2277 -0.1217
27404W        W70317  13.367  21.476  23.664  0.2252  0.0318  0.1129
27405W        W70318  23.209  16.740   2.632 -0.1137 -0.1458  0.5702
27406W        W70319  19.028  19.214   0.776 -0.4080 -0.1006  0.1625
27407W        W70320  33.494  22.340   8.621 -0.2765  0.3283  0.1934
27408W        W70321  19.808  21.872  28.370 -0.1096 -0.2035 -0.1107
27409W        W70322  18.061  30.922   1.880 -0.3841 -0.0351 -0.1408
27410W        W70323  33.157  25.979   9.960 -0.0357 -0.1482  0.0563
27411W        W70324  26.891  21.269  19.176  0.1447  0.1778 -0.0663
27412W        W70325  31.466  30.353   0.128 -0.0949  0.0366  0.1067
27413W        W70326  29.971  28.475  17.768 -0.1469  0.0857  0.0211
27414W        W70327  26.660  22.131   4.033  0.1018  0.3573 -0.0918
27415W        W70328  25.994  30.889  24.914  0.0137 -0.0055 -0.3169
27416W        W70329  19.889   0.817  19.631  0.0077  0.3126  0.1270
27417W        W70330  21.262  25.646   4.211 -0.2362  0.0902  0.2559
27418W        W70331  32.772   5.272   4.577 -0.1533 -0.0148 -0.1193
27419W        W70332  32.353  29.987  29.362  0.0216  0.0138 -0.0165
27420W        W70333  19.216  28.857   1.861 -0.2782  0.0616 -0.1472
27421W        W70334  31.067  26.797   0.935 -0.2179  0.2172  0.0234
27422W        W70335  31.481   6.201   8.851 -0.0198 -0.2721  0.1384
27423W        W70336  21.514  31.820  26.862  0.0888 -0.4441 -0.1211
27424W        W70337  29.588   1.717  24.295  0.0858  0.2870  0.0887
27425W        W70338  34.268  34.221  18.020 -0.2977 -0.0152  0.0834
27426W        W70339  17.547  29.140  25.896 -0.0963  0.1606  0.0461
27427W        W70340  25.309  25.793  13.501  0.0080  0.0639 -0.2202
27428W        W70341   3.424  24.733   3.695 -0.2831 -0.1857  0.0137
27429W        W70342  20.419  32.624  29.780 -0.0384  0.1730  0.1788
27430W        W70343  22.579  27.218  21.262  0.2685 -0.0250 -0.1847
27431W        W70344  18.852  21.609   3.780 -0.1144  0.0682 -0.0516
27432W        W70345  31.673   3.179   1.203 -0.0637  0.1859  0.1434
27433W        W70346  22.879  18.600  29.258 -0.2606  0.0615 -0.1671
27434W        W70347  20.401  28.664  23.057  0.0462 -0.0226 -0.2304
27435W        W70348  28.330  23.591  27.479 -0.0008  0.2649  0.0013
27436W        W70349   1.002  28.271  25.893 -0.2559 -0.1665  0.1312
27437W        W70350  33.030   7.217  28.359 -0.1503  0.0354 -0.0990
27438W        W70351  26.346  23.513   0.985 -0.1621  0.0610  0.2225
27439W        W70352  31.861  30.383  26.698 -0.0639 -0.2164  0.0987
27440W        W70353   2.415   0.005   3.015  0.2288 -0.1436  0.0309
27441W        W70354  17.969  24.314  27.235  0.1422 -0.1366 -0.3571
27442W        W70355  24.566  26.934  24.313 -0.0451 -0.2314 -0.2718
27443W        W70356  24.588  22.885   5.288 -0.1887  0.0245  0.0482
27444W        W70357  21.351  27.953   4.530 -0.1181  0.1592 -0.0440
27445W        W70358  19.444  29.544  26.663  0.3507 -0.1301  0.0082
27446W        W70359  26.755  23.195  19.779  0.0588  0.0267 -0.0344
27447W        W70360  28.813   0.002   0.634  0.0823  0.0120 -0.3390
27448W        W70361  24.712  28.858  19.886 -0.0343  0.2666  0.4212
27449W        W70362  25.741  18.607  28.749 -0.4115  0.1295 -0.2547
27450W        W70363  24.755  32.511  29.386 -0.2482  0.0515 -0.0119
27451W        W70364  31.419  27.924   5.018 -0.1459  0.1902 -0.0406
27452W        W70365  30.682  24.314  16.944  0.0643  0.1232  0.2029
27453W        W70366  33.973   1.630   7.636 -0.0106 -0.0297 -0.0832
27454W        W70367  24.795   0.815   4.277  0.0475  0.0398  0.0832
27455W        W70368   1.398  28.963  27.847  0.2373 -0.0561  0.0194
27456W        W70369  16.405  26.894   1.522 -0.2105  0.1816  0.2006
27457W        W70370  29.965  31.856  17.650  0.3976  0.3163 -0.0446
27458W        W70371  17.652  25.359  26.374  0.0841  0.0820  0.2713
27459W        W70372  31.848  30.611   2.927  0.1930  0.1250 -0.2647
27460W        W70373  29.228  18.430   8.864 -0.3788  0.2504 -0.1464
27461W        W70374  23.646  29.297  24.940  0.1482  0.1121 -0.0843
27462W        W70375  31.538  27.021  20.875  0.2712 -0.0041  0.2667
27463W        W70376  10.052  25.567  22.489  0.3625  0.0144 -0.1628
27464W        W70377   2.171   0.427   3.376 -0.1384  0.5476  0.0098
27465W        W70378  31.671  20.418  22.322  0.0533  0.1089  0.3356
27466W        W70379  25.998  29.919   0.169 -0.0629  0.1884 -0.1859
27467W        W70380  18.044   4.441  26.435 -0.0982 -0.1688 -0.1975
27468W        W70381  23.204  34.197  24.080 -0.4137  0.0882  0.1731
27469W        W70382  23.501  21.170  25.738  0.2091 -0.1438  0.3489
27470W        W70383  16.916  27.155  16.088  0.1452  0.1217 -0.2013
27471W        W70384  19.745  31.052  28.272  0.1502 -0.1343  0.0005
27472W        W70385  28.689  31.616  22.535  0.1341 -0.0945  0.0611
27473W        W70386  11.048  22.529   0.014  0.1861  0.4697 -0.0790
27474W        W70387  14.813  28.575   6.646 -0.2962 -0.0733  0.1020
27475W        W70388  30.449   1.134  27.296  0.1655 -0.2010 -0.0869
27476W        W70389  13.898  28.243   3.270 -0.1915  0.1338  0.0066
27477W        W70390  23.760  31.629  15.962 -0.0688 -0.0250  0.3161
27478W        W70391  30.290  28.258  28.668 -0.1219  0.1247  0.1731
27479W        W70392  29.335  25.627  25.616  0.0576 -0.0191  0.0371
27480W        W70393  34.348  31.800   1.853 -0.2494  0.1338 -0.3709
27481W        W70394   1.736  32.951   0.539  0.3563 -0.2602  0.2560
27482W        W70395  25.074  21.704  25.085 -0.1314  0.0887 -0.0449
27483W        W70396  33.694  30.737   2.882  0.0592 -0.0621  0.1904
27484W        W70397  17.789  25.912   2.393 -0.2699 -0.2334 -0.2678
27485W        W70398  28.371  29.471  26.894  0.2774  0.2039  0.1112
27486W        W70399  32.643  14.729  15.709  0.2228 -0.0670 -0.1067
27487W        W70400  15.081  24.874   3.435  0.0197  0.2275  0.2304
27488W        W70401  32.110  25.219  24.127  0.0846  0.0787  0.0785
27489W        W70402  32.732  32.615  16.948 -0.1132  0.0462  0.0460
27490W        W70403  21.051   5.700  23.290 -0.0205 -0.1247 -0.2610
27491W        W70404   1.290  32.874   4.852  0.1896 -0.0263 -0.1591
27492W        W70405  34.133   2.253  28.344  0.2602  0.1257 -0.0395
27493W        W70406  21.633  30.493  15.699 -0.1321  0.1764 -0.0895
27494W        W70407   5.062   1.857  12.286  0.2440 -0.1258  0.1329
27495W        W70408  18.188  20.413   0.523 -0.1617  0.1214  0.0356
27496W        W70409  33.051  19.581  22.952 -0.0854 -0.1232 -0.3440
27497W        W70410  28.671  21.080  23.199 -0.0327 -0.1759  0.2386
27498W        W70411  28.958  32.887  22.362 -0.3846 -0.1586 -0.1571
27499W        W70412  23.030   2.836  22.972  0.1850  0.0324 -0.1696
27500W        W70413  25.652   8.200  20.161  0.0854 -0.1768  0.1102
27501W        W70414  29.998   6.256  10.174  0.0887  0.0893  0.1564
27502W        W70415  23.651  30.501  24.549  0.2110  0.1497  0.0352
27503W        W70416  24.990   3.573  28.125 -0.0437  0.0096  0.2958
27504W        W70417  32.609  25.254  24.815  0.0604  0.0062 -0.0383
27505W        W70418   5.650  27.035   6.710  0.0887  0.3411  0.1292
27506W        W70419  30.226  16.720   4.698  0.1357  0.2166 -0.0797
27507W        W70420   1.698  24.513   2.500  0.0112  0.2067 -0.2394
27508W        W70421  34.347  16.969   1.848 -0.1126 -0.0537 -0.3508
27509W        W70422  30.124  19.831   5.193  0.1564 -0.0719  0.1623
27510W        W70423   2.762   5.639  26.287  0.4073 -0.1893 -0.0881
27511W        W70424  29.508   1.949   0.087  0.2026  0.2727 -0.0788
27512W        W70425  20.878  27.992  27.850 -0.2680  0.0519 -0.3027
27513W        W70426  20.557  17.875  22.962 -0.3107  0.2474  0.1044
27514W        W70427  22.421  28.655  21.923  0.0881 -0.2932 -0.0980
27515W        W70428   1.272  26.361   1.353  0.2195  0.0578 -0.1451
27516W        W70429  28.194  25.905  28.187 -0.5044 -0.0219 -0.0749
27517W        W70430  19.688  21.759   2.792  0.0086 -0.0401  0.2549
27518W        W70431  23.587  19.905   1.940  0.2188  0.2445  0.5619
27519W        W70432  21.979  26.163  26.866  0.2512  0.0861 -0.2795
27520W        W70433  23.511  26.907   3.033  0.1407 -0.2917  0.0703
27521W        W70434  31.336   4.521   2.140  0.1125  0.0504 -0.0350
27522W        W70435  30.153   9.925  28.966  0.2229 -0.4280 -0.1233
27523W        W70436  21.608  22.766   0.328 -0.3168  0.0132  0.0303
27524W        W70437  21.976  26.595  21.607 -0.2270 -0.1218 -0.0115
27525W        W70438  24.749  30.596   3.092 -0.3596 -0.1303 -0.4045
27526W        W70439  12.882  30.258   3.495  0.1906  0.3421  0.2961
27527W        W70440  24.057  25.675   2.528 -0.1643  0.0102  0.1739
27528W        W70441  27.771  32.654  27.174  0.0573  0.1661 -0.1119
27529W        W70442  31.122   0.323  16.115  0.0046  0.2404  0.0570
27530W        W70443  23.746  23.276   3.872 -0.0512 -0.2529 -0.1347
27531W        W70444  25.031   3.490   8.086 -0.1992  0.0931  0.0783
27532W        W70445  21.494  25.290  19.896 -0.1119  0.2415 -0.3190
27533W        W70446  24.519  18.780   1.239 -0.2751 -0.0128 -0.0299
27534W        W70447  26.619  27.007   3.424 -0.1533 -0.0772 -0.1743
27535W        W70448  16.053  21.045  21.932  0.0043 -0.0061  0.1404
27536W        W70449  31.321  22.279   6.689 -0.1508 -0.2768 -0.0793
27537W        W70450  19.640  26.705  19.444  0.1071 -0.1229  0.0837
27538W        W70451  20.651  20.198  22.049 -0.0346 -0.2816  0.0369
27539W        W70452  27.809  27.520  24.706 -0.1715  0.4104  0.1245
27540W        W70453  21.530  34.367   3.104 -0.2622 -0.0096  0.1549
27541W        W70454  32.244  28.590  25.578  0.1186  0.1512 -0.2231
27542W        W70455  23.654  31.812  28.780 -0.0442  0.1669 -0.1956
27543W        W70456  31.145  26.026  28.796  0.3599 -0.2305  0.1760
27544W        W70457  19.287  20.814   1.200  0.3349  0.2755  0.0211
27545W        W70458  29.754  17.863  20.859  0.6190  0.0244  0.0002
27546W        W70459  15.375  22.200   5.960  0.0026 -0.0241  0.1612
27547W        W70460  23.301  20.094   5.024 -0.0582  0.3593 -0.0676
27548W        W70461  23.715  29.177  21.792 -0.0601 -0.0452 -0.0414
27549W        W70462  23.183  22.686  26.403  0.1474  0.0927  0.3128
27550W        W70463  28.533  27.495   4.665  0.0420  0.3934  0.0991
27551W        W70464  31.137   2.313  21.176  0.0750  0.0765 -0.0873
27552W        W70465  23.503  33.529   1.003  0.3479  0.1203  0.0602
27553W        W70466  24.337  18.216  28.325 -0.0244  0.0382 -0.1230
27554W        W70467  22.430  24.441   1.496 -0.2296  0.1451 -0.3420
27555W        W70468  29.481  23.831   5.871 -0.2549 -0.0731 -0.2200
27556W        W70469  27.392  33.415  23.045 -0.1055  0.0143 -0.0579
27557W        W70470  22.898  29.984  17.021  0.1186 -0.1673 -0.0751
27558W        W70471  31.676  31.657   5.999 -0.2053 -0.3301  0.0324
27559W        W70472   0.445  30.277  23.173 -0.3954 -0.0044  0.0620
27560W        W70473  24.686  30.190   0.096 -0.2050  0.4265  0.1808
27561W        W70474  31.646  21.452  25.037 -0.0633 -0.0366 -0.0628
27562W        W70475  24.299  24.311  23.459  0.3431  0.2350  0.2738
27563W        W70476  26.194  33.128   3.712  0.1607 -0.0003 -0.0081
27564W        W70477  12.318  24.334   0.553 -0.2529  0.2066 -0.2788
27565W        W70478  21.022  29.493  28.116  0.0140  0.0398  0.3614
27566W        W70479  24.879  23.699  28.906 -0.3858 -0.1174 -0.2995
27567W        W70480  19.714  27.387  24.467  0.1868  0.0326 -0.0855
27568W        W70481  13.398  25.343  23.407 -0.3618 -0.2133  0.2138
27569W        W70482   5.370  23.934  27.700 -0.0249 -0.0296  0.1191
27570W        W70483  17.276  23.979   6.662 -0.1012  0.0139  0.0171
27571W        W70484  26.414  27.253  27.982  0.0556 -0.0211 -0.3514
27572W        W70485  25.559  23.911   0.717 -0.0617 -0.0103 -0.1984
27573W        W70486  31.899  26.088  16.534  0.1678  0.1118  0.1413
27574W        W70487  29.320  24.084  17.549  0.2126 -0.0171  0.1733
27575W        W70488  31.418  24.809   0.644 -0.2388  0.0692 -0.2121
27576W        W70489  22.505  23.901  26.311 -0.3303 -0.1030  0.3293
27577W        W70490   0.394  24.870  28.894 -0.0232 -0.0915  0.0433
27578W        W70491  32.141  20.501  17.989  0.0235 -0.2358 -0.1464
27579W        W70492   1.711   4.632   6.438 -0.0689 -0.1976  0.0866
27580W        W70493  31.061   0.411  27.321  0.0732  0.0077 -0.0676
27581W        W70494  33.904  23.942   7.006 -0.0487  0.1803 -0.3084
27582W        W70495  26.044  12.398  27.846  0.2689 -0.3626  0.0228
27583W        W70496  21.581  17.209  28.130 -0.1848  0.1089  0.3605
27584W        W70497  16.380  26.161  28.945 -0.4237  0.0084 -0.0754
27585W        W70498  33.261  25.846  19.444 -0.1330 -0.3113  0.2443
27586W        W70499  21.715  18.604  21.771  0.2059  0.0023  0.1671
27587W        W70500  23.366  31.338   1.503 -0.1746  0.1554 -0.4177
27588W        W70501  10.727  30.046   8.965 -0.2398  0.0046  0.4988
27589W        W70502  28.661  22.922  26.796 -0.2871  0.1228 -0.1053
27590W        W70503  31.307  21.299  24.678  0.0437  0.1487 -0.3859
27591W        W70504  27.265  26.210   1.415  0.1972  0.0272 -0.2757
27592W        W70505  24.657  28.249  25.038 -0.0521  0.0030 -0.1947
27593W        W70506   1.180  33.986  25.211  0.4615  0.0496 -0.2644
27594W        W70507  11.934  25.754   1.286  0.0471  0.0060  0.2147
27595W        W70508  28.776  31.111   6.327 -0.2852 -0.4461 -0.0516
27596W        W70509  33.372  19.068  15.719 -0.0335 -0.1879 -0.0587
27597W        W70510   5.003   1.685  17.427 -0.1606 -0.2141  0.2763
27598W        W70511  22.593  12.058  20.156  0.0277  0.0191  0.0467
27599W        W70512  34.382  17.840  15.877 -0.1546  0.0596 -0.2061
27600W        W70513  18.641  29.898  20.861  0.0951  0.0001 -0.0714
27601W        W70514  26.652  24.369  27.250 -0.0131 -0.2137 -0.2992
27602W        W70515  21.306  30.824  15.497 -0.0415 -0.3416 -0.0317
27603W        W70516  28.118   3.038   0.690 -0.0653 -0.0688  0.0729
27604W        W70517   3.186  24.243   6.157  0.0641 -0.0945 -0.2426
27605W        W70518   6.053   0.807   1.372  0.1895 -0.2456 -0.2168
27606W        W70519  28.233  30.374  24.578 -0.1239 -0.1102  0.0633
27607W        W70520  33.786  27.326   0.027  0.1855  0.0166 -0.0589
27608W        W70521  29.236  29.689  25.642 -0.0850 -0.2259  0.2723
27609W        W70522  11.479  21.868   3.826  0.2735  0.3237 -0.0073
27610W        W70523  23.019   6.849   0.889  0.2172  0.2452  0.0065
27611W        W70524  31.935  21.784   5.991 -0.0332 -0.0494 -0.0863
27612W        W70525  25.539   0.657  22.739  0.0905 -0.0201 -0.0803
27613W        W70526  22.749  20.279  24.307  0.0865  0.1365  0.0408
27614W        W70527  30.561   5.995  15.257  0.0664  0.0813 -0.1007
27615W        W70528  22.371  26.736   1.752  0.3523  0.0934  0.1145
27616W        W70529  25.750  20.035   7.350 -0.2092 -0.3278 -0.0316
27617W        W70530  18.120   1.971  19.447 -0.0472  0.2848  0.1916
27618W        W70531  27.684  27.721  23.008  0.1284 -0.1819  0.3919
27619W        W70532  25.777  28.003   2.597 -0.0846 -0.1236  0.0784
27620W        W70533   2.903  31.627   5.480 -0.0318 -0.2024  0.0784
27621W        W70534  19.217  10.312  20.936  0.0169 -0.0534  0.1004
27622W        W70535  16.020  19.566  29.397  0.2841  0.1882  0.2075
27623W        W70536  27.480  25.259  21.914 -0.0514 -0.0723 -0.0841
27624W        W70537  24.956  24.270  28.936 -0.1424  0.3052  0.2661
27625W        W70538  14.824   3.947   5.783 -0.1064 -0.3400 -0.3212
27626W        W70539  32.168  22.103  26.616  0.1383 -0.1229  0.0056
27627W        W70540  34.177  34.338  25.795 -0.0667 -0.2485  0.0334
27628W        W70541  31.383  23.077   6.965  0.3211 -0.0419  0.5819
27629W        W70542   4.828  19.054   3.866  0.1850  0.2433  0.1806
27630W        W70543  25.297  33.888  27.833  0.1610 -0.2402  0.1502
27631W        W70544  14.757  29.000   0.690 -0.2313 -0.0683 -0.0298
27632W        W70545  19.423  32.463   1.626  0.1457 -0.1784 -0.0916
27633W        W70546  20.899  12.420   8.656 -0.3265 -0.0483  0.1329
27634W        W70547  11.941  28.047  17.219 -0.2856 -0.0839  0.0277
27635W        W70548  31.005  31.336   4.353  0.1814  0.1724  0.2128
27636W        W70549  22.194  18.350  21.030 -0.2593  0.4947 -0.2048
27637W        W70550  32.936  33.127   0.356 -0.1641  0.2130  0.0006
27638W        W70551  32.914  16.397   4.186  0.1049  0.0458 -0.0299
27639W        W70552  24.312  20.462  24.357 -0.1450  0.2075 -0.1965
27640W        W70553  26.186  26.003   3.404 -0.2182 -0.1164  0.0312
27641W        W70554  22.963  27.411  20.379 -0.1120 -0.0721 -0.2880
27642W        W70555  24.751  34.039   3.376 -0.0565 -0.0210 -0.5984
27643W        W70556  22.885  29.839   3.579  0.1866 -0.1523 -0.1474
27644W        W70557  18.534  24.259   5.812 -0.0892  0.1947 -0.2254
27645W        W70558  32.687  29.463   2.556  0.2139  0.2200  0.1676
27646W        W70559  18.387  21.100   1.697 -0.0761 -0.2009  0.0809
27647W        W70560  23.246  30.281  24.992  0.1544  0.4231 -0.1038
27648W        W70561  28.029  22.085   0.674 -0.0288 -0.1211 -0.0898
27649W        W70562  23.795  26.136  29.397 -0.0406  0.1477  0.0465
27650W        W70563  23.406  32.416  27.001 -0.1374  0.3855  0.0525
27651W        W70564  25.742  28.632   7.798 -0.1125 -0.2489 -0.0444
27652W        W70565  14.617  25.870   1.209  0.0728  0.3813 -0.0670
27653W        W70566  16.027  23.025  27.426  0.0275  0.0994  0.2921
27654W        W70567  30.586  22.186  20.058 -0.0350 -0.3407 -0.1979
27655W        W70568  10.887  31.578  11.094 -0.0390 -0.0555 -0.2815
27656W        W70569  26.783  34.224  10.141  0.0667  0.1048  0.1887
27657W        W70570  25.284  33.134  14.563  0.1717  0.0247 -0.0288
27658W        W70571  33.654  33.613   3.191  0.1055  0.3185  0.1632
27659W        W70572  20.206  34.465   6.687  0.1724 -0.5322 -0.0439
27660W        W70573  24.859  31.909  26.057  0.2403  0.1662  0.0307
27661W        W70574  17.006  22.621   2.318  0.1776 -0.0696  0.2646
27662W        W70575  30.012  23.290   3.911 -0.1158  0.2115  0.0044
27663W        W70576  29.141   9.170  27.605  0.0072 -0.0625 -0.0423
27664W        W70577  22.388  12.167   2.111 -0.0741  0.0219  0.1442
27665W        W70578  25.775   2.895  10.263  0.0197  0.0438  0.7374
27666W        W70579  14.913  21.809  23.011 -0.1852 -0.1671  0.0690
27667W        W70580  19.800  24.009  20.620 -0.1055 -0.0419  0.1288
27668W        W70581  22.392   3.621   1.263  0.0150 -0.0981  0.2902
27669W        W70582  20.531  24.439  24.995 -0.1544  0.0633  0.1784
27670W        W70583  30.802  34.010  18.706  0.0591  0.0189  0.1912
27671W        W70584  33.152  14.086  29.295  0.0055 -0.0362 -0.3188
27672W        W70585   6.188  14.788   5.657 -0.1283 -0.0021  0.2181
27673W        W70586  33.900  23.752  23.075 -0.0494 -0.3071 -0.0285
27674W        W70587  28.922   1.356  27.898 -0.0828  0.2965 -0.0282
27675W        W70588  25.056  27.419   0.546 -0.2222 -0.0863 -0.0533
27676W        W70589  31.706  18.198  27.862 -0.0304 -0.0875  0.3402
27677W        W70590  23.197  25.965  28.346 -0.2014  0.1620 -0.1864
27678W        W70591  23.717   3.043   5.111 -0.3888 -0.2354  0.2689
27679W        W70592  13.137  26.033   2.860 -0.1454  0.1189 -0.1278
27680W        W70593  22.889  33.615  17.138  0.1192  0.3652 -0.0051
27681W        W70594  17.605   1.903  28.627 -0.0523  0.1772 -0.0089
27682W        W70595  19.755  33.552   4.557 -0.1862 -0.2426 -0.0292
27683W        W70596  18.640  22.508  29.711  0.1169 -0.1230  0.0139
27684W        W70597  28.071  24.920   2.314 -0.2315 -0.4458 -0.1973
27685W        W70598  24.954  34.062  24.475  0.1438  0.2411  0.0484
27686W        W70599  25.102  18.425  21.703  0.0424 -0.1823 -0.0098
27687W        W70600  26.755  32.818  18.129  0.0975 -0.1420 -0.0633
27688W        W70601  21.845  27.812  19.285 -0.1702  0.3509  0.1177
27689W        W70602  28.902  16.908  22.386 -0.1741 -0.0801  0.2071
27690W        W70603  29.659  28.096  13.207 -0.2620 -0.0689 -0.0326
27691W        W70604  28.137  30.089  13.923  0.0402 -0.0995  0.3711
27692W        W70605  34.118   5.024  22.346  0.0664 -0.2092 -0.0858
27693W        W70606  11.731  20.334  15.936  0.0108 -0.3130  0.3875
27694W        W70607  24.553  27.565  15.187  0.2287 -0.1293  0.0432
27695W        W70608  24.562  30.010  14.234  0.0741  0.4100  0.4289
27696W        W70609  31.537  33.708  15.606 -0.1836 -0.2713 -0.2417
27697W        W70610  23.174  29.214  20.523 -0.2217  0.0549  0.3710
27698W        W70611  26.791  31.716  16.596 -0.0559  0.0822 -0.0607
27699W        W70612  24.025   6.998  20.922 -0.0402 -0.3378 -0.1371
27700W        W70613  23.123  24.746  17.615  0.3031 -0.2297  0.0928
27701W        W70614  28.978  31.959  22.806 -0.0744 -0.0355  0.0768
27702W        W70615  24.561  29.785  17.876 -0.0061  0.1383  0.1461
27703W        W70616  24.849  26.829  14.056 -0.1460  0.0411 -0.0097
27704W        W70617  20.371  34.383  16.990 -0.2321 -0.5098 -0.1136
27705W        W70618  24.350   1.766  15.225 -0.0090  0.1383 -0.0346
27706W        W70619   7.047  27.606  20.217  0.1067  0.1295 -0.1398
27707W        W70620  28.947   1.836  17.576 -0.1014  0.0101  0.1173
27708W        W70621  28.949   2.384  16.701 -0.1695  0.0092  0.1230
27709W        W70622  29.732   6.308  17.683 -0.0735  0.2097  0.0791
27710W        W70623  23.229  27.269  16.736 -0.1591 -0.3820 -0.0293
27711W        W70624   2.797  24.838  17.696  0.2737 -0.2832  0.0935
27712W        W70625  30.667  23.724  21.031  0.2898  0.0172  0.2960
27713W        W70626   4.051   1.466  24.955 -0.1232  0.1056  0.0744
27714W        W70627  24.379  32.761  29.625 -0.1654 -0.1496 -0.0181
27715W        W70628  15.391   1.756  15.407 -0.2123 -0.4280 -0.2929
27716W        W70629  23.337  26.681  12.988  0.2313  0.1560 -0.1235
27717W        W70630  33.499   5.459  19.668 -0.0563  0.2293 -0.0074
27718W        W70631  20.924   3.915  15.108 -0.0278  0.1666  0.0149
27719W        W70632  27.257   0.718  14.948 -0.2383  0.3367  0.3792
27720W        W70633  29.423  25.668  16.693 -0.1375 -0.1842 -0.0825
27721W        W70634  18.621  25.217   1.307  0.3225  0.0115  0.0818
27722W        W70635  20.853  27.735  26.850 -0.1571 -0.2548  0.1044
27723W        W70636  23.655   8.956  23.969  0.0744 -0.2872 -0.2936
27724W        W70637  29.059  29.329  28.958 -0.0600  0.1603  0.0564
27725W        W70638  33.245  24.436  17.722  0.0910  0.0538  0.0941
27726W        W70639  27.460  24.285  13.546  0.1824  0.0510 -0.1591
27727W        W70640  24.763  26.980  22.020  0.1028 -0.2734  0.0139
27728W        W70641  23.997  34.001  23.457  0.0629  0.0789 -0.4078
27729W        W70642  23.149   2.814  17.796  0.0129  0.0069 -0.3457
27730W        W70643  27.215   2.044  14.341  0.1974  0.1195 -0.0816
27731W        W70644  23.068   4.139  14.308 -0.2687 -0.3192  0.1906
27732W        W70645   1.307  28.438  19.519  0.0267  0.0661 -0.0999
27733W        W70646  25.014  32.335  18.442  0.1273  0.0758 -0.1635
27734W        W70647  31.532  31.242  18.635  0.2528 -0.4050 -0.2247
27735W        W70648  30.432  26.320   2.171  0.0133 -0.1433 -0.2966
27736W        W70649  29.377  25.158  15.670 -0.3920  0.0929 -0.3165
27737W        W70650  29.941  22.792  17.732 -0.0396  0.2936  0.0166
27738W        W70651  22.536   4.026  14.314  0.1779 -0.1900 -0.0815
27739W        W70652  20.200   2.813  17.181 -0.1919  0.3116  0.1906
27740W        W70653   3.795  26.163  16.891  0.1003 -0.2867 -0.1171
27741W        W70654  23.804   3.486  18.101  0.0168 -0.5206 -0.1949
27742W        W70655   3.431  22.278  17.522  0.1654 -0.2171 -0.1660
27743W        W70656  15.302  27.724  21.530 -0.0389  0.0738  0.1392
27744W        W70657  28.790   0.046  20.973 -0.1589 -0.2036 -0.2729
27745W        W70658  30.960   3.475  18.119 -0.1436  0.0409 -0.0003
27746W        W70659   4.176  19.935  16.022  0.1019  0.2208  0.0124
27747W        W70660  31.451   2.363  15.482  0.2629 -0.0733 -0.0379
27748W        W70661  23.011   9.615  25.730  0.1491 -0.3169  0.0638
27749W        W70662  20.829  26.281  26.111 -0.2382  0.1797  0.1979
27750W        W70663  31.021  33.289  14.736 -0.0520 -0.0251  0.1459
27751W        W70664  15.719  25.668  24.257  0.1830  0.1679  0.0056
27752W        W70665   1.814  27.607  18.542 -0.2222  0.1858 -0.0952
27753W        W70666  24.359  27.516  15.670  0.0490 -0.0951  0.0729
27754W        W70667  24.493  26.192  19.789 -0.0178  0.0843  0.2538
27755W        W70668  25.510   2.443  23.338  0.1110 -0.1913  0.0639
27756W        W70669  32.814   9.342  18.115  0.0870 -0.2377  0.0999
27757W        W70670  26.819  27.587  15.701 -0.1372 -0.0129 -0.1511
27758W        W70671   1.406  31.033  13.859 -0.0344  0.0786 -0.1129
27759W        W70672   0.872  24.578  19.480 -0.2251  0.0597 -0.1043
27760W        W70673  19.235  28.547  20.725  0.1791 -0.0537 -0.0996
27761W        W70674  23.905  31.344  19.486  0.0538 -0.1863  0.1480
27762W        W70675  18.587  33.627  22.531  0.0464 -0.0522  0.0421
27763W        W70676  32.635  15.403  18.254 -0.2314 -0.2411  0.0850
27764W        W70677  28.428  31.395  22.911 -0.1097  0.2865 -0.0309
27765W        W70678   9.878  28.571  18.770  0.1027 -0.2526  0.1913
27766W        W70679  25.078   4.892  22.028  0.1783  0.0311  0.1456
27767W        W70680  29.229  30.473  15.622 -0.1284  0.0962  0.3313
27768W        W70681   1.294  20.738  17.335  0.2192  0.0525 -0.1447
27769W        W70682  30.216  29.491  24.893  0.0397  0.0406  0.2098
27770W        W70683  27.234  10.708  14.372 -0.3125  0.0983  0.3172
27771W        W70684  23.505  29.721  26.206  0.2328  0.0915  0.2260
27772W        W70685  26.449  33.722  17.034  0.3913  0.0085  0.5397
27773W        W70686   0.839   3.678   3.752  0.1569  0.0188  0.3044
27774W        W70687  23.709  23.766  16.209  0.2945 -0.2089  0.2418
27775W        W70688  29.607  27.310  25.623 -0.1526 -0.0601 -0.0515
27776W        W70689  28.775   5.776  16.543  0.0608 -0.0985 -0.3449
27777W        W70690  19.997  32.356  13.866  0.0747  0.0346 -0.0231
27778W        W70691  32.359  31.134  22.033  0.1201  0.0975  0.1117
27779W        W70692  28.467   2.264   3.061 -0.2190  0.3360  0.2017
27780W        W70693  33.640  32.693  14.428  0.0506 -0.1624 -0.0905
27781W        W70694   2.485  14.205  22.157 -0.1322  0.2385  0.2324
27782W        W70695   2.785  33.967  18.393  0.4076 -0.0110 -0.2218
27783W        W70696  26.662  18.563  20.945  0.3047  0.3849  0.0514
27784W        W70697  27.883   2.695  14.734 -0.1283  0.4538  0.0377
27785W        W70698  30.466   0.774  23.981  0.0841  0.1463 -0.3563
27786W        W70699  30.199  27.928  23.109 -0.0263 -0.1311 -0.0902
27787W        W70700   2.921  31.303  19.231 -0.1929 -0.2040 -0.0135
27788W        W70701  25.542  29.532  14.305  0.2440  0.2098 -0.0080
27789W        W70702  20.744  33.457  15.660  0.0927  0.1803 -0.0994
27790W        W70703  18.633  10.019  22.665 -0.1032 -0.0026 -0.0760
27791W        W70704  24.745  25.879  15.676  0.0901  0.1644  0.0929
27792W        W70705  31.446  28.714  14.552  0.0302 -0.0721 -0.0195
27793W        W70706  23.444   1.752  19.970  0.3355 -0.0477  0.3309
27794W        W70707  26.609  28.547  17.497  0.0685 -0.0112  0.0282
27795W        W70708  26.440   2.933  25.396  0.1665  0.1060 -0.3892
27796W        W70709  28.181  28.315  12.808  0.0791 -0.2761 -0.2045
27797W        W70710  30.139  32.686  16.456  0.0287 -0.0004  0.1625
27798W        W70711  28.017  28.845  28.478  0.2224 -0.0960  0.0461
27799W        W70712  32.866  28.708  18.605 -0.1328 -0.0740  0.0521
27800W        W70713  24.916  26.784  15.529  0.0333  0.2941 -0.2648
27801W        W70714  26.020   5.020  19.732 -0.0929  0.1279 -0.0084
27802W        W70715  33.352  28.987  21.069  0.0999 -0.0034  0.0958
27803W        W70716  28.223  33.740  16.941 -0.0187 -0.0884 -0.1985
27804W        W70717  19.916  28.921  15.976 -0.0264 -0.2633  0.1355
27805W        W70718  22.640   1.698  23.153  0.2895 -0.1942  0.1852
27806W        W70719  19.908  27.471  22.260  0.1494  0.1305 -0.1706
27807W        W70720  24.093   4.095  14.183 -0.1818  0.0638 -0.0335
27808W        W70721  28.484  30.966  13.619 -0.4599  0.3140  0.1419
27809W        W70722  20.394  29.524  19.104  0.0083  0.1047  0.1054
27810W        W70723  29.074  29.538  17.542  0.1596 -0.3160  0.1075
27811W        W70724  24.580   1.611  20.459 -0.0663  0.0664  0.1273
27812W        W70725  21.597  24.482  23.786  0.2595 -0.1824 -0.5363
27813W        W70726  22.289   9.270  17.097  0.0185  0.0278  0.2375
27814W        W70727  24.777   3.127  17.723  0.4155 -0.0636 -0.3355
27815W        W70728  26.237  31.472  23.534 -0.2283 -0.1096  0.0898
27816W        W70729  27.181   1.605  13.977  0.0682  0.1114 -0.1253
27817W        W70730  28.360  33.453  24.423  0.0487  0.3668  0.0821
27818W        W70731  17.257  26.080  25.516 -0.2761  0.1067 -0.1474
27819W        W70732  26.943  29.506  16.664  0.1437  0.1351  0.0834
27820W        W70733  28.433  33.618  15.947 -0.1901  0.0484  0.2216
27821W        W70734  28.715  27.648  12.891 -0.1248 -0.0142  0.4128
27822W        W70735  22.183  14.186  28.770  0.0249 -0.2479 -0.1022
27823W        W70736  27.404  33.462  24.725  0.3074 -0.3512  0.0744
27824W        W70737  11.608  24.662  15.897 -0.3802  0.0913  0.2725
27825W        W70738  25.759  27.632  13.605  0.1216  0.0893  0.0203
27826W        W70739  20.374   0.239  14.645 -0.0421 -0.0626 -0.2770
27827W        W70740  27.821  25.214  25.049  0.0814  0.2083  0.1024
27828W        W70741  32.263   1.481  23.963  0.0410 -0.0160  0.2455
27829W        W70742  21.198  15.887  13.149  0.1725  0.1314 -0.0034
27830W        W70743  18.304  28.028  22.236  0.1020  0.2619 -0.2262
27831W        W70744  29.393  29.993  17.505 -0.0375  0.0109 -0.1502
27832W        W70745  31.246   8.394  16.647 -0.0200 -0.3199  0.1727
27833W        W70746  26.277  24.847  15.779 -0.3628 -0.1823 -0.0281
27834W        W70747  31.771  26.898  16.098  0.2248 -0.1684 -0.2380
27835W        W70748  22.412  28.098  18.831  0.1013 -0.5476  0.2703
27836W        W70749  21.632  29.193  25.786 -0.0724 -0.0694  0.1838
27837W        W70750  28.754  26.531  18.728 -0.0179  0.1386 -0.4242
27838W        W70751  27.761   2.548  22.887 -0.1114 -0.0351  0.2583
27839W        W70752  32.649  30.045  25.364 -0.0773 -0.1719 -0.1563
27840W        W70753  22.629  32.559  13.982  0.2226 -0.0199  0.1217
27841W        W70754   0.467   4.875  18.487  0.1304 -0.0915 -0.4087
27842W        W70755  25.297  27.259  20.044 -0.0895 -0.2093  0.1946
27843W        W70756  27.745  31.835  14.116  0.1651  0.0886  0.2168
27844W        W70757  18.902  30.530  14.879  0.2060 -0.1414  0.3662
27845W        W70758  34.073  30.002  18.567  0.0914  0.0419 -0.1143
27846W        W70759  29.892  30.852  14.998  0.2444 -0.3138 -0.1038
27847W        W70760  27.148  32.478  22.916 -0.0053 -0.0271 -0.1335
27848W        W70761  32.428  26.727  20.888  0.2574 -0.4185 -0.1079
27849W        W70762  25.479   3.664  18.232  0.0662 -0.0431 -0.1128
27850W        W70763   1.772  16.349  26.044  0.2482  0.0586 -0.2949
27851W        W70764  25.184  29.722  17.017  0.0003  0.2236 -0.2637
27852W        W70765   1.262  30.702  19.307  0.1828  0.1687  0.1344
27853W        W70766  27.640   5.366   6.715  0.2623  0.0298 -0.0057
27854W        W70767  24.371   0.972  20.829 -0.3398  0.2958  0.0797
27855W        W70768  31.727  29.072  14.431 -0.0764 -0.0255  0.0032
27856W        W70769  33.630   3.935  25.781  0.2539  0.1587 -0.3524
27857W        W70770  20.962  34.138  15.889  0.1236 -0.1812 -0.0321
27858W        W70771  25.553  30.224  14.314 -0.1211  0.0786 -0.1643
27859W        W70772  26.528  29.476  21.575 -0.2246 -0.0456 -0.2383
27860W        W70773  29.347   3.676  19.125 -0.1587 -0.2018  0.2582
27861W        W70774  16.283   5.210  27.570  0.1773  0.0594  0.3361
27862W        W70775  23.923   9.672  21.919  0.2898 -0.0898 -0.2383
27863W        W70776  25.954  31.107  17.203  0.0461  0.0657  0.1530
27864W        W70777  23.492  28.331  13.245 -0.2604 -0.1677  0.1213
27865W        W70778  18.795   2.739   4.443 -0.1768  0.1394 -0.3970
27866W        W70779  31.260   2.074  17.208 -0.0892 -0.3748  0.0410
27867W        W70780  19.905   3.416  14.146  0.1787  0.1524  0.1720
27868W        W70781  32.010  28.946  20.485  0.0618 -0.0209 -0.3160
27869W        W70782  27.877  28.471  16.797  0.0199 -0.1237  0.0050
27870W        W70783  20.350   5.610  26.830  0.2316 -0.0420 -0.1109
27871W        W70784  28.052   1.708  15.333  0.2406  0.3550 -0.2502
27872W        W70785  30.237  24.477  18.641  0.0355 -0.0695  0.0198
27873W        W70786  21.019  33.064  19.500 -0.1975  0.3783 -0.1105
27874W        W70787  23.346  28.960  12.202  0.0380  0.1120 -0.2660
27875W        W70788   0.466  25.327  16.190  0.1661  0.1356  0.2637
27876W        W70789  29.078   4.107  21.035 -0.1304  0.0558  0.0218
27877W        W70790  28.648   8.002  15.314  0.0065 -0.0689 -0.0928
27878W        W70791  31.892  22.373  21.371 -0.1263  0.3686 -0.1112
27879W        W70792   7.373   3.188  20.495  0.2014 -0.0266 -0.0870
27880W        W70793  25.934  28.772  14.200  0.0090  0.1205 -0.1256
27881W        W70794  33.299  27.070  19.393  0.0153 -0.3263  0.1095
27882W        W70795  27.898   2.838  13.617 -0.0651 -0.2111  0.1041
27883W        W70796   1.797   2.742  18.806 -0.0421 -0.1080  0.0776
27884W        W70797  23.308  24.146  15.775  0.2237  0.2671 -0.2785
27885W        W70798  18.798  32.466  14.585 -0.1858 -0.2506 -0.0848
27886W        W70799  25.815  32.570  16.674  0.1724 -0.2140  0.0154
27887W        W70800  22.884  14.756  18.279 -0.1260  0.2298  0.0871
27888W        W70801  30.256   3.145  15.696  0.4196 -0.1728 -0.1866
27889W        W70802   9.861  32.629  25.115 -0.0945  0.0961 -0.2196
27890W        W70803   0.184  19.013  23.228 -0.2157 -0.0092  0.2990
27891W        W70804  22.064  10.880  21.311 -0.0591 -0.1744  0.2818
27892W        W70805  17.742  26.923  16.431 -0.0673 -0.0881 -0.1248
27893W        W70806  31.571  23.630  25.004 -0.1238  0.1066  0.0965
27894W        W70807  25.960  22.437  23.088  0.1905  0.0605  0.0276
27895W        W70808  11.821  24.718  24.138 -0.1463 -0.0646  0.4564
27896W        W70809  26.015  27.282  15.806  0.2048 -0.2651 -0.4160
27897W        W70810  24.609  31.495  18.015  0.2591  0.0849 -0.1033
27898W        W70811  29.805  25.379  15.265  0.1363 -0.1364 -0.4212
27899W        W70812  26.282  33.733  14.430 -0.1503 -0.2701 -0.1679
27900W        W70813  26.091   0.025  15.118 -0.3532  0.3420 -0.0073
27901W        W70814   7.797  33.197  19.085 -0.0690 -0.0834  0.1071
27902W        W70815  29.630  25.490  23.773 -0.1086  0.1945 -0.1893
27903W        W70816  32.695   6.933  19.244  0.3696 -0.1982 -0.1887
27904W        W70817  31.784  23.822  23.004  0.1083  0.3508 -0.1839
27905W        W70818  23.754   1.706  24.359  0.0163 -0.1392  0.2991
27906W        W70819  30.373  30.502  17.744  0.1564  0.1300  0.3830
27907W        W70820  26.637  29.428  27.878  0.3778 -0.1727 -0.0275
27908W        W70821  20.236  25.946  22.891 -0.1720 -0.1651 -0.0228
27909W        W70822  27.450   8.689  18.889 -0.2544 -0.0757 -0.1296
27910W        W70823  30.102  31.750  21.238  0.2948  0.1824  0.2703
27911W        W70824  25.537  31.818  23.638 -0.0503 -0.0506 -0.1661
27912W        W70825  17.229  24.289  23.337 -0.1323 -0.0516  0.0236
27913W        W70826  33.915  32.270  21.874 -0.1203  0.2190  0.2391
27914W        W70827  32.069  33.505  18.007  0.2322 -0.1594 -0.2026
27915W        W70828  22.811   1.185  27.339 -0.1577  0.3664 -0.1451
27916W        W70829  24.092  21.333  16.772 -0.2927  0.2206  0.0206
27917W        W70830  27.027  28.108  14.530  0.0953 -0.1522 -0.0292
27918W        W70831   0.358   3.495  17.545 -0.2038 -0.1503 -0.1340
27919W        W70832   2.928   0.666  24.795 -0.0638  0.1449 -0.1575
27920W        W70833  26.620  28.618  13.223  0.0815 -0.0169 -0.2570
27921W        W70834  31.586   3.151  20.390 -0.0762 -0.0582  0.0641
27922W        W70835  25.938  10.097  23.527  0.3839  0.0350 -0.0662
27923W        W70836  31.585   6.652  16.584 -0.1790  0.1805  0.0963
27924W        W70837  21.079  21.712  14.082  0.0893  0.0917 -0.1865
27925W        W70838  31.509  30.812  22.538  0.0081  0.1722 -0.0426
27926W        W70839  20.727  29.332  18.662  0.0707 -0.0355 -0.2922
27927W        W70840  17.852  32.055  21.543  0.1036  0.1576  0.1370
27928W        W70841  20.220   6.952  24.057  0.1817 -0.2981  0.1456
27929W        W70842  19.970  19.740  23.208  0.0508  0.0831 -0.1758
27930W        W70843  29.048  33.518  15.255  0.0128  0.0671 -0.1014
27931W        W70844  27.573  30.871  19.523 -0.1728  0.3649 -0.0507
27932W        W70845  27.835  19.219  15.290  0.1185 -0.0231  0.0592
27933W        W70846  28.973   0.113  16.435  0.2374 -0.1248 -0.2424
27934W        W70847  32.785  30.812  17.368  0.0764 -0.2156  0.2078
27935W        W70848  21.420  27.974  14.331  0.1829  0.1974  0.0289
27936W        W70849  25.548   3.561  23.301  0.3446  0.5200 -0.0160
27937W        W70850  33.832  17.238  17.313  0.1451  0.0786  0.0201
27938W        W70851  30.916  27.931  20.033 -0.1099  0.0019  0.0023
27939W        W70852  19.897  26.099  13.855 -0.2842 -0.1514 -0.0493
27940W        W70853  30.834  32.219  17.138  0.0180  0.0171 -0.4396
27941W        W70854  23.071  32.423  15.280 -0.0906 -0.1118  0.1909
27942W        W70855  26.188   5.460  14.095  0.2041 -0.0594 -0.1761
27943W        W70856  31.199  25.401  21.687 -0.0897  0.2126  0.3421
27944W        W70857  25.446   0.481  15.165  0.0498  0.1806 -0.0813
27945W        W70858  29.205   5.662  16.332  0.0174  0.4120 -0.4028
27946W        W70859  23.239  31.994  27.748  0.0526  0.1845  0.1922
27947W        W70860  20.339  27.493  23.157 -0.0215 -0.0642 -0.1955
27948W        W70861  24.789   3.618  23.265  0.0051 -0.0562  0.2969
27949W        W70862   0.971  30.446  24.095 -0.0708  0.1393 -0.0657
27950W        W70863  29.729  23.258  15.280 -0.0829 -0.0708  0.2649
27951W        W70864  22.267  29.160  19.839  0.1507  0.1729 -0.2078
27952W        W70865  31.601  27.159  21.451  0.0809 -0.1132  0.0876
27953W        W70866  29.788  21.607  26.578  0.4218  0.2469  0.3077
27954W        W70867  30.156  28.460  19.902 -0.0078 -0.1741  0.2929
27955W        W70868  23.461  30.698  21.620 -0.4156 -0.1867  0.0599
27956W        W70869  32.932   2.444  26.506  0.2477  0.0073  0.1576
27957W        W70870  26.651   1.136  16.709 -0.0446 -0.2105 -0.1645
27958W        W70871  27.220  24.707  16.503  0.2557 -0.1734  0.3511
27959W        W70872  25.058   4.264  18.296 -0.0296  0.1104 -0.1798
27960W        W70873   2.008  27.640  16.572 -0.0375 -0.0635 -0.0366
27961W        W70874  20.983  31.940  14.203  0.0713 -0.3216 -0.0777
27962W        W70875  26.169  27.798  21.263 -0.0895 -0.1940  0.2106
27963W        W70876  25.603   7.076  24.094 -0.1974  0.0655  0.1148
27964W        W70877   1.244   0.551  21.871 -0.0406 -0.0271  0.1840
27965W        W70878  22.855  28.366  12.783  0.2335  0.0268  0.0550
27966W        W70879  19.241  27.627   2.419  0.3133 -0.0524 -0.3249
27967W        W70880  20.588   3.693  18.969  0.0707 -0.1591 -0.1119
27968W        W70881  22.585  32.867  15.106  0.0382  0.0190 -0.0002
27969W        W70882  25.674  29.675  17.818  0.0216 -0.2848  0.1497
27970W        W70883  26.053  25.591  13.015 -0.2546  0.0281 -0.2084
27971W        W70884  24.912   2.356  18.193 -0.2312  0.1059 -0.1300
27972W        W70885   2.624  30.827  25.243  0.0918  0.3003 -0.3668
27973W        W70886   0.122   1.559  16.813  0.0581 -0.3413  0.2982
27974W        W70887  29.813  23.105  20.636  0.0088 -0.2566 -0.0489
27975W        W70888  24.437   0.211  22.111  0.0358 -0.2207 -0.2090
27976W        W70889  29.400   5.268  17.872 -0.3534 -0.0871  0.0247
27977W        W70890  17.802  26.796  27.479 -0.2430 -0.1084 -0.0792
27978W        W70891  26.468   5.111  14.548 -0.2749 -0.4301 -0.0758
27979W        W70892  30.858  27.995  20.804 -0.0592 -0.2068 -0.0439
27980W        W70893  27.864   2.079  17.910 -0.0203 -0.0271  0.0509
27981W        W70894  30.714  25.930  15.980  0.0308  0.1516 -0.2865
27982W        W70895  30.926   8.303  14.821  0.0196  0.0282 -0.0317
27983W        W70896  25.254  32.468  15.361  0.3900 -0.0241  0.3426
27984W        W70897  28.288  25.175  18.364  0.1031 -0.0822 -0.0943
27985W        W70898  21.860   3.924  15.989  0.1311  0.3979  0.0712
27986W        W70899  28.727   3.522  18.319  0.2667  0.1603  0.0454
27987W        W70900  27.436  27.912  26.168  0.0845 -0.1511 -0.0325
27988W        W70901  25.439  26.323  13.459  0.1949  0.0542  0.1421
27989W        W70902  27.218  24.238  21.219  0.2947 -0.0136 -0.1612
27990W        W70903  23.716  28.228   0.236  0.1391 -0.0808 -0.0514
27991W        W70904  30.920  30.333  14.280 -0.0305  0.1718 -0.1531
27992W        W70905  25.808  28.721  13.732 -0.0454  0.1654  0.0196
27993W        W70906  34.103  31.480  19.828  0.0626  0.1755  0.1815
27994W        W70907  33.781  23.135  16.520  0.0662  0.1315 -0.2418
27995W        W70908  27.720  33.024  19.420  0.2209 -0.5102  0.1468
27996W        W70909  21.013  24.073  21.234  0.2272 -0.0096  0.3321
27997W        W70910  27.780  29.835  14.755  0.2042 -0.0205 -0.1332
27998W        W70911   2.896   3.502   3.051 -0.0556  0.2445  0.0718
27999W        W70912  30.555  30.171  20.977 -0.2840 -0.2011  0.1475
28000W        W70913  22.993  23.447  18.432 -0.0854  0.1110 -0.2505
28001W        W70914  29.507  28.659  15.883  0.2225  0.1669  0.0022
28002W        W70915  24.280  22.250  12.533 -0.0296  0.2335 -0.3170
28003W        W70916  31.020  31.031   3.653  0.1466 -0.3317 -0.1654
28004W        W70917  23.711   2.071  24.002 -0.0194 -0.0234  0.0469
28005W        W70918  26.361   0.913  22.032 -0.2834 -0.1295 -0.1623
28006W        W70919  21.248  29.453  24.438  0.0146 -0.0157  0.0538
28007W        W70920  32.266  30.882  21.454  0.0880 -0.0519 -0.2056
28008W        W70921   4.480  30.324  15.756 -0.3099 -0.2508 -0.0167
28009W        W70922  30.353  30.092  23.929 -0.1948 -0.0598 -0.1345
28010W        W70923  23.292   5.273  15.979  0.0508 -0.0838 -0.0414
28011W        W70924  26.332  33.161  25.220 -0.1802 -0.3443 -0.3422
28012W        W70925  19.811  21.068  23.573  0.2496 -0.0851  0.1168
28013W        W70926  28.705   3.556  14.534 -0.0809 -0.1284  0.0509
28014W        W70927  25.095   1.425  15.672 -0.1240 -0.1005 -0.0215
28015W        W70928  26.075   7.585  27.006  0.2837  0.2332 -0.1487
28016W        W70929  31.615  26.901  22.565 -0.1338  0.1702  0.1324
28017W        W70930  27.562   3.850  19.813  0.1703  0.1265 -0.1404
28018W        W70931  32.935  32.757  18.186  0.0075  0.2148  0.0541
28019W        W70932  34.186  29.098  16.403  0.2287 -0.0054  0.0730
28020W        W70933  22.060  27.565  22.012  0.0522 -0.4455  0.0018
28021W        W70934  32.674  31.549  14.589 -0.1672 -0.1420 -0.2528
28022W        W70935  22.833  31.533  17.592  0.1223  0.1378 -0.0291
28023W        W70936  21.349   3.171  19.955  0.0100 -0.4130 -0.1966
28024W        W70937   1.202   2.847  26.501 -0.2292  0.0751 -0.0992
28025W        W70938  18.866  31.228  27.772 -0.1218 -0.2137 -0.1680
28026W        W70939  23.013  22.531  28.333  0.3060 -0.2438 -0.2070
28027W        W70940  24.757  25.730  21.904 -0.2148 -0.0479 -0.0161
28028W        W70941  28.748  30.430  18.122 -0.3439 -0.0063 -0.1011
28029W        W70942  25.473  32.079  20.248  0.1233  0.0579 -0.0092
28030W        W70943  27.813   1.576  18.258  0.0224  0.1292  0.1706
28031W        W70944  30.999   0.028  25.284  0.2220  0.1145  0.2955
28032W        W70945  25.068  26.913   0.457 -0.4938 -0.0279 -0.2989
28033W        W70946  28.552  19.891  15.688 -0.0479  0.3725 -0.0817
28034W        W70947  18.356   1.462  16.710 -0.0781  0.2321 -0.0218
28035W        W70948  29.339  27.412  13.830 -0.0726  0.0297 -0.1268
28036W        W70949  28.587  25.158  22.455 -0.3084  0.1196  0.1598
28037W        W70950  29.112  26.508  15.636  0.0840  0.2499  0.0437
28038W        W70951  14.014  21.229   1.138 -0.1232  0.1768  0.0692
28039W        W70952  21.848  30.991  14.747  0.4595  0.2441 -0.0796
28040W        W70953  30.014  27.909  14.414  0.3008  0.2766 -0.1087
28041W        W70954  22.888  24.459  14.897 -0.2788  0.1897  0.2212
28042W        W70955  25.207  30.857  27.379  0.1383  0.2142 -0.0582
28043W        W70956  28.914  21.080  20.659  0.2166 -0.0698  0.2686
28044W        W70957  19.420  33.059  17.224  0.0292  0.0028  0.2073
28045W        W70958  27.848  31.150  24.505 -0.0667  0.0348  0.1465
28046W        W70959  31.803  22.975  23.602 -0.0575  0.0966  0.2332
28047W        W70960   0.497  24.646  15.540  0.0180 -0.3409 -0.2671
28048W        W70961  32.254  32.720  17.607  0.2333  0.2116  0.3633
28049W        W70962  29.842  24.104  18.761 -0.2071  0.3576  0.0357
28050W        W70963  18.399  28.586  17.874  0.0780 -0.1608 -0.1534
28051W        W70964  29.258  29.185  13.988 -0.4241  0.1212  0.3021
28052W        W70965  20.483  31.968  13.988  0.0587  0.0140 -0.1511
28053W        W70966   4.536  33.249  24.490  0.0072  0.0342 -0.2227
28054W        W70967   2.826   0.309  23.439  0.0462 -0.2281 -0.2523
28055W        W70968  24.667  26.449   2.557  0.3586  0.2669 -0.1952
28056W        W70969  30.327  26.683  20.327 -0.3180  0.1660  0.5048
28057W        W70970  30.353  31.727  20.082  0.1444 -0.1669 -0.0152
28058W        W70971  29.650  33.595  23.653 -0.0697  0.2295  0.0345
28059W        W70972  25.062  27.110   0.980 -0.0649 -0.1283  0.0643
28060W        W70973  21.469  23.302  11.938  0.1565  0.0304 -0.0669
28061W        W70974  17.769  31.458  18.306 -0.0758 -0.0758 -0.0200
28062W        W70975  29.445  30.632  19.169 -0.2290  0.0634 -0.2352
28063W        W70976  13.373  26.201  15.021  0.0530 -0.0527 -0.0685
28064W        W70977   1.327  28.540  14.508 -0.1465  0.1065 -0.0982
28065W        W70978  22.733  27.451  12.876  0.1189 -0.0576 -0.0789
28066W        W70979  24.357  31.578  14.088 -0.1462 -0.1525 -0.2325
28067W        W70980  23.286  19.653  24.278  0.0352  0.1678 -0.0969
28068W        W70981  22.982  32.301  19.617  0.2986  0.3662 -0.1209
28069W        W70982  34.214  26.597  20.687 -0.1144 -0.1624 -0.0238
28070W        W70983  26.879   5.393  16.298 -0.1813  0.0447 -0.0223
28071W        W70984  26.439   1.958  16.504  0.0122  0.0031  0.0559
28072W        W70985  31.055  31.328  20.648  0.1704 -0.1068  0.0947
28073W        W70986  29.403  27.893  16.673 -0.0815  0.1050  0.1084
28074W        W70987   2.561  30.009  16.015  0.1898  0.0231 -0.0905
28075W        W70988  33.834  26.745  23.677 -0.2069 -0.0580  0.1338
28076W        W70989  29.286   1.148  24.924 -0.3324  0.1134  0.2430
28077W        W70990  31.867  28.319  28.215  0.0349  0.0645 -0.2705
28078W        W70991  30.599  22.345  18.214 -0.3785 -0.0067  0.1657
28079W        W70992  27.831  27.277  19.542 -0.5006 -0.0327  0.0866
28080W        W70993   3.810  33.749  17.560 -0.0576  0.4173 -0.1134
28081W        W70994  19.506  22.224  29.010  0.0243  0.1545  0.0043
28082W        W70995  30.240  31.457  18.323 -0.4723 -0.1656  0.1674
28083W        W70996  24.493   0.208  18.427 -0.1020 -0.0847  0.0473
28084W        W70997  28.470  26.653  25.844  0.0767 -0.2751 -0.0424
28085W        W70998  26.554   1.273  23.328  0.1675 -0.0489  0.1505
28086W        W70999  21.852   3.131  14.185 -0.0934 -0.3982  0.2546
28087W        W71000  20.380  28.074  14.887 -0.1402 -0.2665  0.0669
28088W        W71001  30.723  26.390  13.746  0.1631  0.1712 -0.2093
28089W        W71002  33.336   8.982  17.194 -0.1736 -0.0397  0.5337
28090W        W71003  24.434  26.978  21.636  0.1101  0.1370  0.2119
28091W        W71004  28.587  27.687  18.246  0.0081  0.3335  0.1172
28092W        W71005  28.865  28.071  17.383  0.2600  0.0077  0.4262
28093W        W71006  32.707  30.170  22.115 -0.0416 -0.0495 -0.0994
28094W        W71007  30.546  27.138  20.299  0.2207  0.2727  0.3370
28095W        W71008   0.058  25.013  22.083 -0.0865  0.0695 -0.0919
28096W        W71009  28.234   0.267  18.866 -0.4125 -0.0254 -0.0262
28097W        W71010  22.463  29.466  16.146 -0.1605 -0.1735  0.3554
28098W        W71011  27.414  24.261  21.685 -0.0907 -0.0089  0.1764
28099W        W71012  32.558  20.541  20.975  0.0663  0.0098 -0.1599
28100W        W71013  24.755  30.650  20.565  0.2115 -0.1708 -0.4402
28101W        W71014  25.212  20.764  17.631  0.0108 -0.0508  0.0434
28102W        W71015  29.960   9.649  17.931 -0.3569  0.2363 -0.0412
28103W        W71016  27.182  23.173  13.184  0.1439  0.0218 -0.0565
28104W        W71017  30.490  28.028  18.499  0.0375 -0.2341  0.1198
28105W        W71018  23.880   5.163  23.176  0.1350  0.0042  0.2293
28106W        W71019  26.255   5.171  20.131 -0.0189  0.0412  0.1127
28107W        W71020  30.901  21.850  18.005 -0.0370  0.0721 -0.0380
28108W        W71021  27.398  29.000  15.966 -0.0208  0.1458  0.1294
28109W        W71022  16.291  22.724  16.193  0.0166 -0.0762  0.0491
28110W        W71023   3.681  33.955  29.062 -0.2850 -0.1392 -0.3917
28111W        W71024  25.543  32.999  26.086  0.3592 -0.0124  0.0951
28112W        W71025   0.231  27.932  17.360  0.2710  0.4667 -0.1017
28113W        W71026  24.050  25.859  18.601  0.1390 -0.1002 -0.1959
28114W        W71027  20.957  33.276  22.465  0.0187 -0.2878 -0.3065
28115W        W71028  25.514  32.133  26.267  0.0307 -0.0262 -0.1698
28116W        W71029  22.428  33.105  19.483  0.0816  0.3752  0.0216
28117W        W71030  24.410  28.393  14.975 -0.0678 -0.3466  0.1439
28118W        W71031   2.862  22.404  13.759 -0.1715  0.0861 -0.0325
28119W        W71032  13.961  22.276  16.021 -0.0976 -0.2325 -0.5568
28120W        W71033  23.615  33.885  21.712 -0.0201 -0.3205  0.0839
28121W        W71034   3.664   3.494  24.493  0.1278 -0.2079 -0.1947
28122W        W71035  22.379  11.279  23.024  0.0195  0.1209 -0.1851
28123W        W71036   5.581  32.054  21.361  0.3801  0.1060 -0.0133
28124W        W71037  23.730  21.400  20.142  0.0450  0.1358  0.0987
28125W        W71038  20.065  24.932  15.616 -0.0622 -0.2114 -0.0202
28126W        W71039  24.298   1.535  24.189  0.4655 -0.3202  0.2870
28127W        W71040  25.325  31.318  23.599  0.2377  0.0443 -0.5606
28128W        W71041  19.837   3.901  22.181 -0.0577 -0.0493 -0.0021
28129W        W71042  15.235  32.754  16.963 -0.3856 -0.0024 -0.1475
28130W        W71043  27.092  29.504  25.555 -0.3206 -0.2052 -0.1322
28131W        W71044  14.445   1.858   0.972  0.0174 -0.0903  0.1068
28132W        W71045  26.464  11.643  25.703 -0.0367  0.1783  0.0991
28133W        W71046  21.129  30.725  13.441  0.1102 -0.0847 -0.2595
28134W        W71047  30.284  32.746  17.702 -0.2379 -0.1149 -0.0623
28135W        W71048  25.556  24.333  23.982 -0.0204 -0.3360 -0.2440
28136W        W71049  23.868  25.559  24.316 -0.1980 -0.1564 -0.1506
28137W        W71050  27.815   0.868  22.936  0.1885 -0.0624 -0.1160
28138W        W71051  23.813  30.684  13.445 -0.1574  0.1195 -0.1719
28139W        W71052  24.745   4.090  19.870 -0.1554 -0.2851  0.1936
28140W        W71053  20.583  30.852  18.105 -0.3212 -0.0664 -0.1737
28141W        W71054  20.353   5.822  15.226  0.3405 -0.1420  0.0182
28142W        W71055  23.624   6.170  28.431 -0.3142  0.2183 -0.2590
28143W        W71056  25.175   3.533  25.437 -0.0289  0.0047 -0.1506
28144W        W71057  32.585  23.935  18.623 -0.3073  0.1139  0.1242
28145W        W71058  25.246  29.123  25.471 -0.0144  0.2120 -0.3212
28146W        W71059  23.861  25.432  29.062 -0.1224  0.0411  0.0902
28147W        W71060  27.106  33.173  26.320 -0.1296  0.0950 -0.1052
28148W        W71061  29.675  20.385  19.009 -0.4056  0.0982  0.0766
28149W        W71062  24.141  18.244  16.316 -0.2648  0.0392  0.2075
28150W        W71063  30.127  33.577  18.211  0.0551  0.0140  0.3162
28151W        W71064  31.386  17.151  17.617 -0.1747 -0.2994  0.3570
28152W        W71065   3.258  30.965  14.853  0.2209 -0.2925  0.2978
28153W        W71066  16.763   3.095  20.136 -0.3072  0.3829  0.0596
28154W        W71067   2.990  31.192  14.354 -0.0088  0.0914  0.3331
28155W        W71068  32.514  32.389  15.560 -0.2381  0.3489 -0.0208
28156W        W71069  19.182  29.074  19.912  0.2676 -0.0853  0.3171
28157W        W71070   3.208  26.040  25.892 -0.1391  0.3445  0.1823
28158W        W71071  17.675   8.377  28.867 -0.1370  0.0862  0.0635
28159W        W71072  29.712  23.135  25.728 -0.2151  0.0142 -0.0836
28160W        W71073  32.343  29.708  18.897 -0.2936  0.3251  0.2187
28161W        W71074  26.059  32.092  20.373  0.0975  0.1209 -0.1411
28162W        W71075  28.278  12.079  14.934  0.1439 -0.0516 -0.5229
28163W        W71076  24.668  27.713  16.133  0.1441 -0.3384  0.1640
28164W        W71077   1.859  30.354  19.844 -0.0092 -0.0525 -0.1180
28165W        W71078   2.041   5.522  20.483  0.2794  0.1887  0.0177
28166W        W71079  31.053  23.849  13.316  0.1433  0.3680 -0.2789
28167W        W71080  30.683  20.379  20.112 -0.0089 -0.1384 -0.0166
28168W        W71081   1.567  18.256  16.458  0.2626  0.4169  0.1561
28169W        W71082  28.020  30.877  13.306  0.0553 -0.0005 -0.0328
28170W        W71083  27.569  34.170  19.185 -0.1060 -0.1708  0.1936
28171W        W71084  20.535   0.169  13.127  0.2961 -0.1139 -0.0891
28172W        W71085  20.541  28.036  26.542  0.1770  0.0645 -0.1070
28173W        W71086  22.601  29.991  27.866  0.1156 -0.1473  0.0202
28174W        W71087  27.768  31.840  21.306  0.0673 -0.4470 -0.0996
28175W        W71088  31.802  21.541  25.915  0.2451 -0.0297  0.0689
28176W        W71089  21.043  24.311  15.614  0.0077  0.1070  0.3938
28177W        W71090  26.301  26.721  22.480 -0.0277  0.1482  0.1247
28178W        W71091  16.477  32.012  27.670  0.3780  0.3480  0.2116
28179W        W71092  16.801  26.412  22.787  0.0736 -0.1908 -0.2229
28180W        W71093  30.198  31.422  26.113  0.1958  0.1003 -0.0010
28181W        W71094  18.955  33.487  24.318 -0.1531 -0.1884  0.1179
28182W        W71095  23.751  32.428  17.329  0.0591 -0.0203  0.1140
28183W        W71096  25.126  28.369  24.364 -0.1817 -0.2495 -0.1166
28184W        W71097  29.961  20.660  15.371  0.1074 -0.0935  0.0257
28185W        W71098  26.410  32.559  19.755 -0.1311 -0.0369 -0.1406
28186W        W71099  21.457  17.614  21.824 -0.2131 -0.6018  0.2340
28187W        W71100  27.731   6.259  26.039 -0.0165  0.0990 -0.4403
28188W        W71101  30.758  25.869  23.804  0.1225 -0.0510  0.2881
28189W        W71102  31.268  32.513  15.098  0.1085  0.1960  0.0754
28190W        W71103   0.494   6.234  17.590 -0.2027  0.3610  0.3054
28191W        W71104  14.532  26.857   1.169  0.4088  0.1737  0.1388
28192W        W71105  31.034   6.145  23.943  0.0212 -0.0927  0.2289
28193W        W71106  24.286  22.492  24.123  0.1895  0.1391 -0.0770
28194W        W71107  31.792   7.655  22.457 -0.0848 -0.1843 -0.0333
28195W        W71108  22.959   9.369   0.917  0.1439 -0.0377  0.1414
28196W        W71109  30.463  29.455  14.930  0.1861  0.1839 -0.0548
28197W        W71110  31.632  25.860  26.925  0.0134  0.0547 -0.0173
28198W        W71111  24.603  30.096  24.656 -0.1119  0.1627  0.0568
28199W        W71112  24.135  23.114  20.007  0.3074 -0.2279  0.0636
28200W        W71113  12.503  29.568  19.554  0.3414 -0.0539  0.0687
28201W        W71114  16.257  29.944  18.162  0.0596  0.1661  0.1331
28202W        W71115  26.394  30.914  20.727 -0.0343 -0.1506  0.0296
28203W        W71116  15.423  30.136   3.536  0.0534 -0.0230  0.1782
28204W        W71117  19.118  27.619  19.559  0.1333 -0.2658 -0.1980
28205W        W71118  26.330  25.767  18.650  0.2119  0.4877  0.1207
28206W        W71119  23.217  30.285  19.508  0.0602 -0.1051  0.0211
28207W        W71120  30.656   3.186  18.914  0.0582  0.0585 -0.1042
28208W        W71121  28.766  33.836  19.555 -0.1263  0.0666 -0.0030
28209W        W71122  29.870  33.876  15.739 -0.1049  0.1348 -0.1516
28210W        W71123   0.152  30.012  24.456 -0.0695  0.1408  0.0187
28211W        W71124  24.453  28.890  18.037  0.0929  0.1525 -0.0220
28212W        W71125  20.106   7.110   0.211  0.0354 -0.0875 -0.0285
28213W        W71126  17.066   7.785  20.235 -0.0663 -0.0189 -0.0155
28214W        W71127  13.003  23.565  24.370  0.1104  0.1082  0.1045
28215W        W71128  17.796   2.390  22.746 -0.0234  0.1986 -0.2254
28216W        W71129  31.565   8.449  22.407 -0.0051  0.1283 -0.0889
28217W        W71130  22.948  15.122  15.961  0.2369 -0.1441  0.0165
28218W        W71131   0.225  28.777   1.213  0.0770  0.2163 -0.0278
28219W        W71132  25.736   7.216  16.463  0.2870 -0.1229 -0.1122
28220W        W71133  17.509  33.955   3.516 -0.1540 -0.1492 -0.0924
28221W        W71134  30.059   0.073   0.050  0.2721 -0.1884  0.0862
28222W        W71135  30.210   3.238  18.400  0.1790  0.1742  0.0556
28223W        W71136  29.363  32.404  26.595  0.0863 -0.0629 -0.1313
28224W        W71137   0.808  33.765  20.341 -0.0360 -0.3755 -0.0378
28225W        W71138   5.341  27.538   2.377 -0.0168  0.1239 -0.0920
28226W        W71139  24.777  31.961  18.093  0.0199 -0.2301 -0.0717
28227W        W71140  27.266  22.083  23.899  0.0571 -0.0917  0.1619
28228W        W71141  26.919  20.241  29.491  0.0755 -0.0613  0.0430
28229W        W71142  26.011  19.856  19.387  0.1132  0.5672 -0.0633
28230W        W71143  28.178   0.795  18.926  0.0593  0.1807 -0.3414
28231W        W71144  27.680  23.045  26.901  0.0028 -0.0274  0.3123
28232W        W71145  33.124  31.304  16.644 -0.1068 -0.2253  0.1871
28233W        W71146   3.349   1.218  16.207  0.0964  0.2231 -0.0550
28234W        W71147  27.884   6.640  20.262 -0.0939 -0.2525 -0.1376
28235W        W71148  24.632   0.320  17.965  0.2070 -0.1958  0.0206
28236W        W71149   0.979   0.881  22.412 -0.1512 -0.2248  0.0393
28237W        W71150  25.203  30.483  20.778  0.1753 -0.0768  0.0891
28238W        W71151  20.892  31.330  23.840 -0.0357 -0.0312  0.0288
28239W        W71152  29.492  28.096  18.739  0.0609  0.2234  0.0493
28240W        W71153  16.497   8.297  23.320  0.0047 -0.0261 -0.0118
28241W        W71154  25.457   1.555  27.593 -0.2283 -0.2581 -0.2451
28242W        W71155  27.854   7.772  27.397 -0.0815  0.0801 -0.0735
28243W        W71156  20.433  22.463  12.583  0.0223 -0.1184  0.0113
28244W        W71157  27.621   0.393  24.459 -0.3498  0.0328 -0.0027
28245W        W71158  26.828   2.881  22.184 -0.0063 -0.1785 -0.0910
28246W        W71159  28.481  30.112  24.901  0.1093  0.0107  0.1210
28247W        W71160  27.236  31.903  18.980  0.3308  0.2255 -0.1387
28248W        W71161  31.770  32.390  22.098 -0.1279 -0.1376 -0.0259
28249W        W71162  23.140  31.242  17.233 -0.1128 -0.1052 -0.4019
28250W        W71163  13.538   3.033  18.360 -0.0617  0.0222  0.0859
28251W        W71164   5.560  30.627  20.603  0.3053  0.0203 -0.1807
28252W        W71165  33.610  25.553  26.338  0.1282 -0.2990  0.1290
28253W        W71166  26.587  30.014  17.723 -0.0653 -0.0759  0.2928
28254W        W71167  29.467   4.412  24.408  0.1490 -0.1292  0.1214
28255W        W71168  33.411  27.147  18.864  0.4122 -0.2029 -0.1142
28256W        W71169  18.921  27.149  23.310 -0.2992 -0.0020 -0.2596
28257W        W71170   3.452  29.292  17.394  0.0534  0.0297 -0.3477
28258W        W71171  25.104   2.737  20.492  0.0717 -0.0314  0.0778
28259W        W71172  29.052  21.181  23.485  0.2794 -0.1195  0.2828
28260W        W71173  23.264   2.520  22.506  0.0845  0.1153 -0.0292
28261W        W71174  27.221  29.007  19.661 -0.0576  0.3165 -0.0386
28262W        W71175  33.114  30.808  23.332  0.3883  0.1780  0.2668
28263W        W71176  25.426  23.870  21.467 -0.1091 -0.0162  0.0760
28264W        W71177  29.010  31.309  17.046 -0.1548 -0.2014  0.3958
28265W        W71178  22.523  20.546  26.587 -0.1246  0.0094 -0.0872
28266W        W71179  29.993  23.031  27.512 -0.0015 -0.2436 -0.1102
28267W        W71180  26.287  19.147  18.231 -0.1699 -0.0768  0.0326
28268W        W71181  23.854  32.604  26.909 -0.1193 -0.0019  0.0654
28269W        W71182   8.315  24.446   3.766 -0.2599  0.1795 -0.0847
28270W        W71183  24.350  10.754  18.337 -0.0298 -0.0471 -0.0019
28271W        W71184  25.526  34.429  15.244  0.1830 -0.0660 -0.1174
28272W        W71185  24.376  26.829  13.962  0.0661  0.1484  0.1340
28273W        W71186  26.796  30.875  19.046 -0.1767 -0.2247  0.1564
28274W        W71187  33.062  28.198  17.044 -0.0619 -0.2994  0.1237
28275W        W71188  22.975  33.404  27.425  0.3871 -0.1969  0.0420
28276W        W71189  19.524  18.963  22.860  0.2056  0.5623  0.0519
28277W        W71190  12.824  27.465  23.165 -0.0909 -0.1038 -0.2600
28278W        W71191  26.810   1.681  16.681 -0.1390 -0.3907 -0.3601
28279W        W71192  27.850  22.616  20.677  0.3643 -0.0024 -0.1391
28280W        W71193  33.280  31.843  15.457 -0.0944  0.1071  0.3401
28281W        W71194   2.513   1.869  16.853  0.1439 -0.1167 -0.1044
28282W        W71195  20.389  33.192  17.182 -0.0078 -0.1634 -0.0561
28283W        W71196  30.266   0.038  17.067 -0.0087 -0.1090 -0.2644
28284W        W71197  15.245  29.566  18.322 -0.0728  0.0133  0.1086
28285W        W71198  27.213  29.234  27.608 -0.1820 -0.2469 -0.4267
28286W        W71199  19.789  30.164  17.966 -0.0477  0.0720 -0.0509
28287W        W71200  22.091  27.773  13.713 -0.2517  0.1479 -0.3322
28288W        W71201  33.076  28.061  26.881  0.0110  0.2350 -0.2162
28289W        W71202  29.203  33.776  21.441  0.1869  0.2397  0.3747
28290W        W71203  24.985  32.882  13.671 -0.1737 -0.1023  0.0009
28291W        W71204   2.081  33.377  20.842  0.0327  0.0745  0.1592
28292W        W71205   8.760  31.691  26.416  0.1111  0.1482  0.0139
28293W        W71206  28.679  23.994  25.729 -0.0335 -0.1982 -0.0667
28294W        W71207  23.682   2.128  16.351  0.1723 -0.1855 -0.0959
28295W        W71208  22.280  27.131  27.380  0.2582  0.2941 -0.0670
28296W        W71209  17.946   2.448  27.243 -0.1596 -0.0862 -0.0017
28297W        W71210  20.520   4.099  14.422  0.2662 -0.1772  0.0661
28298W        W71211  15.434  33.410  27.517 -0.1675  0.1575  0.3837
28299W        W71212  13.912  25.090  21.222  0.0822  0.1897  0.7513
28300W        W71213  26.734   1.226  29.447  0.2426  0.0791 -0.3526
28301W        W71214  14.315  32.475  26.210  0.4240 -0.1234 -0.3788
28302W        W71215  24.204  24.506  14.310 -0.0327  0.0667 -0.3643
28303W        W71216  21.693  31.161  24.402 -0.1682 -0.3265  0.1849
28304W        W71217  30.293  31.154  19.517 -0.2295  0.0079 -0.2894
28305W        W71218  25.316  23.882  16.573 -0.1050  0.0085  0.1153
28306W        W71219  26.824  32.735  24.780 -0.0290 -0.1227 -0.2205
28307W        W71220  23.817  21.841  17.598 -0.0847 -0.1295 -0.0616
28308W        W71221  21.917   3.588  17.171  0.0404  0.1005  0.2366
28309W        W71222  27.588  28.535  18.210 -0.1603  0.1396 -0.0911
28310W        W71223  32.978  24.848  16.116  0.0003 -0.2657 -0.0950
28311W        W71224  30.869  25.217  17.276  0.1746  0.0249  0.0191
28312W        W71225  28.111  26.324  15.602 -0.0220  0.0656  0.0872
28313W        W71226  29.276  33.263  23.609  0.1717 -0.1695  0.0174
28314W        W71227  24.922  28.219  23.759 -0.1566  0.0247 -0.1654
28315W        W71228   0.042  28.427  20.352 -0.0686  0.0510 -0.1463
28316W        W71229  25.633   9.874  19.945  0.2068 -0.1592  0.0009
28317W        W71230  22.206   1.286  16.578  0.2629 -0.3011 -0.1638
28318W        W71231   0.654  33.771  26.682 -0.2854  0.2561  0.1147
28319W        W71232  26.611  30.273   0.580  0.0032  0.0161  0.2404
28320W        W71233  26.231   4.313   2.745  0.2760  0.3762  0.0222
28321W        W71234  24.139   0.159  18.065 -0.1980  0.0834 -0.2379
28322W        W71235   1.902   2.413  23.505  0.1876 -0.0002  0.3923
28323W        W71236  24.488  32.289  14.798 -0.0776 -0.1041 -0.1345
28324W        W71237  30.704   1.283  21.565  0.4649  0.2370  0.0304
28325W        W71238  23.863   5.997  14.585 -0.2381 -0.2081 -0.0197
28326W        W71239  12.017   8.976  19.334  0.1353  0.1552  0.2892
28327W        W71240  28.079   9.048  28.758 -0.1339  0.1478  0.0640
28328W        W71241  29.268  17.649  16.820 -0.0730  0.3401 -0.0010
28329W        W71242  25.912   2.892  19.333 -0.1467  0.2437 -0.0966
28330W        W71243  17.468  30.438  28.272 -0.0619  0.2523 -0.1186
28331W        W71244  33.827  28.177   1.742 -0.0559  0.1774  0.3335
28332W        W71245  25.767   6.596  19.417 -0.1851  0.1605 -0.1702
28333W        W71246  28.625  22.108  19.605 -0.0473 -0.0200 -0.1177
28334W        W71247  29.756  32.683  21.497 -0.1740 -0.0030  0.0564
28335W        W71248   2.725  29.766  21.326  0.0651  0.2288 -0.1091
28336W        W71249  27.557  31.910  16.987  0.3761 -0.0573  0.2915
28337W        W71250   3.554  31.258  20.393 -0.2201 -0.0125  0.1406
28338W        W71251  13.746   5.806  15.699 -0.0536  0.1166 -0.0332
28339W        W71252  25.870  26.003  25.360 -0.1142 -0.2935 -0.0017
28340W        W71253   6.449  22.621  24.945  0.1034  0.2150  0.1370
28341W        W71254  22.581   6.176  18.991 -0.0533  0.0674  0.0065
28342W        W71255  23.796  23.256  25.274 -0.0647 -0.1043 -0.0195
28343W        W71256  23.987  22.031  19.559  0.0622 -0.1391 -0.2271
28344W        W71257  12.562  28.652   1.330  0.0277  0.2192  0.3743
28345W        W71258  23.677   6.588  19.703  0.0906  0.0098  0.2114
28346W        W71259   4.835  26.475  16.765  0.0359 -0.2562 -0.3000
28347W        W71260  28.404  29.225  16.272 -0.3680  0.1769 -0.1288
28348W        W71261  30.644  27.369  23.364  0.2840  0.2242 -0.1730
28349W        W71262  31.834   1.883  24.865 -0.0421 -0.2247 -0.0911
28350W        W71263  31.798  15.391  20.704  0.2393  0.1724  0.2038
28351W        W71264  27.171   6.720  17.282 -0.2694  0.1603 -0.2039
28352W        W71265  26.922  25.090  25.250  0.3692 -0.3337 -0.2525
28353W        W71266  19.764  33.331   0.359  0.0507 -0.1059  0.0212
28354W        W71267   3.634   0.490  20.984 -0.0946  0.0588  0.0363
28355W        W71268  24.870  25.639  12.996 -0.1672 -0.1682 -0.2063
28356W        W71269   8.003  24.797  25.152  0.1325  0.0098 -0.1202
28357W        W71270  19.389   4.945  28.062  0.0820 -0.1634  0.2028
28358W        W71271  27.414   5.253  21.993  0.2736  0.1246 -0.0405
28359W        W71272  31.177  33.087  15.176  0.2225  0.1691  0.2684
28360W        W71273  17.954   1.713  15.429  0.3201 -0.0901  0.1623
28361W        W71274  34.482   2.207  17.593  0.1551 -0.0119 -0.0676
28362W        W71275  20.896  33.249  16.141 -0.2479  0.0975 -0.0752
28363W        W71276  27.311  26.880  16.545 -0.1176  0.0122 -0.1500
28364W        W71277  32.032  19.085  16.833 -0.1648  0.1812 -0.1607
28365W        W71278  27.675   6.265  15.830 -0.0943  0.2764  0.0424
28366W        W71279  19.450   4.233  16.326 -0.0358 -0.2670 -0.0164
28367W        W71280  32.668  30.040  19.171  0.0306  0.2465  0.3434
28368W        W71281  27.139   0.755   0.904  0.0701 -0.2870  0.0845
28369W        W71282  19.012  12.259  16.691 -0.1343  0.2485  0.1635
28370W        W71283  31.353  25.640  22.688 -0.2270 -0.0412  0.0316
28371W        W71284  20.473  28.224  17.118  0.1004 -0.0551  0.1543
28372W        W71285  22.063   1.133  23.576 -0.1365  0.0501  0.0258
28373W        W71286  32.262  31.871  18.160  0.0344 -0.4437 -0.1701
28374W        W71287  22.853  29.115  22.692 -0.2151 -0.1830 -0.4091
28375W        W71288  21.020  17.420  20.366 -0.0666  0.1931 -0.1426
28376W        W71289   4.392  29.970  20.536  0.0201  0.2404 -0.0108
28377W        W71290  26.356  20.513  18.900 -0.2766  0.0238  0.0093
28378W        W71291  22.010  24.667  14.512 -0.4919 -0.1446 -0.0253
28379W        W71292  19.653   0.783  27.838 -0.2761 -0.0613 -0.2276
28380W        W71293  19.575  30.924  19.833  0.2362  0.0315 -0.0413
28381W        W71294  26.566  24.686  16.147  0.0078  0.0608  0.0236
28382W        W71295  29.312  25.871  16.257  0.1212  0.0689 -0.2626
28383W        W71296   1.209  19.486   1.728  0.1271 -0.0227 -0.0301
28384W        W71297  25.683  33.944  15.593 -0.0674 -0.1555  0.1363
28385W        W71298  27.738  28.389  19.475  0.1127 -0.0665  0.0431
28386W        W71299  26.664  23.587  23.977 -0.1059 -0.3582  0.0116
28387W        W71300  29.600  25.101  14.268  0.1789 -0.1922  0.2056
28388W        W71301   6.463  26.253  17.825  0.0709  0.0989  0.2047
28389W        W71302  15.273  29.774  15.191 -0.1504  0.0333  0.0597
28390W        W71303  29.006   4.922  18.493 -0.2994  0.1468 -0.2138
28391W        W71304  22.543   0.590  14.176  0.0291 -0.0804 -0.3327
28392W        W71305  33.096  26.847  24.599  0.1656  0.0712  0.2798
28393W        W71306  33.163  22.403  20.663 -0.0765  0.0016  0.1729
28394W        W71307  19.886  28.001  15.735 -0.3935 -0.1487  0.0968
28395W        W71308  28.426  18.604  21.484 -0.1534  0.1180 -0.1755
28396W        W71309  34.416  33.771  15.871 -0.3661  0.1596  0.0706
28397W        W71310  20.798  25.952  18.785 -0.0350 -0.3814  0.0736
28398W        W71311   2.911   6.428  27.962  0.2760  0.2678  0.1240
28399W        W71312   3.914   2.515  28.175 -0.0969  0.3497 -0.0434
28400W        W71313  30.927   4.527  18.904 -0.2066  0.1585  0.0028
28401W        W71314  30.928  23.465  19.472 -0.1582 -0.1852  0.0132
28402W        W71315  33.542  33.888  27.174  0.1071 -0.0260  0.0642
28403W        W71316  26.288  33.308  21.905  0.0980  0.4100 -0.1980
28404W        W71317  20.999  21.034  27.659 -0.1706  0.1039 -0.1019
28405W        W71318  33.421   8.195  19.077 -0.0699  0.3081  0.0406
28406W        W71319   2.988  28.507  20.217  0.1538 -0.0011  0.0764
28407W        W71320  32.709  32.984  26.796 -0.0688 -0.1900  0.2182
28408W        W71321  30.137   2.473   4.682  0.1669 -0.1295 -0.2122
28409W        W71322  28.968  30.655  19.529 -0.1300 -0.0999 -0.5065
28410W        W71323  26.112  28.003  16.860 -0.0159  0.0973  0.0674
28411W        W71324  25.346  32.557  18.730 -0.0605  0.0609  0.1607
28412W        W71325  25.207  24.118  20.103 -0.3591  0.1057  0.2005
28413W        W71326  21.177  26.607  13.720 -0.1685 -0.0660 -0.4452
28414W        W71327  23.035  28.478  17.314  0.0271  0.0844 -0.0264
28415W        W71328   0.819  29.504  22.111  0.0036 -0.1434  0.1218
28416W        W71329   2.204  29.449  28.695  0.1530 -0.3425  0.0027
28417W        W71330  33.822  30.949  16.201 -0.0148  0.0188 -0.1403
28418W        W71331  23.320  34.466  20.022 -0.2216  0.0784 -0.1669
28419W        W71332  29.611   0.912  27.495  0.0454 -0.2384 -0.1244
28420W        W71333  31.080  21.657  27.150 -0.0581 -0.1178  0.1351
28421W        W71334  17.218  33.489  21.261  0.2754 -0.0631 -0.2718
28422W        W71335  29.355   3.252  22.601 -0.1931  0.0283 -0.0795
28423W        W71336  15.593   1.852  23.241 -0.1306 -0.0246  0.3167
28424W        W71337  32.085  20.436  22.604 -0.3608 -0.2859  0.1435
28425W        W71338  26.930  33.122  19.857  0.0063  0.0835  0.2111
28426W        W71339  30.868  25.767  26.286  0.1089  0.3134 -0.0890
28427W        W71340  25.212  30.587  15.087  0.0407 -0.0530 -0.1648
28428W        W71341  23.033  29.627  23.126  0.0141  0.0497 -0.0142
28429W        W71342  23.244  26.281  13.364 -0.1392  0.0362 -0.0143
28430W        W71343  24.889  21.744  29.497  0.0625 -0.2901 -0.0276
28431W        W71344  29.026  23.244  15.647  0.0432 -0.1629 -0.0959
28432W        W71345  21.158  23.986   2.702 -0.0196 -0.4472  0.1501
28433W        W71346  29.393  18.559  23.958  0.2347 -0.0277  0.1056
28434W        W71347  25.449  27.318  26.561  0.2003 -0.2361 -0.0982
28435W        W71348  23.586  28.328  25.970  0.1950  0.0902  0.0720
28436W        W71349  30.193  19.608  20.090 -0.2055  0.3273 -0.1586
28437W        W71350  10.863  24.075  16.844 -0.0271 -0.1707 -0.2588
28438W        W71351  30.934  33.080  29.380 -0.0136  0.3208  0.1616
28439W        W71352  33.834  25.608  18.691  0.3238 -0.2798 -0.0523
28440W        W71353  32.191  19.321  26.544 -0.0218 -0.0511  0.2137
28441W        W71354  25.196  30.453  26.087 -0.2426  0.3100  0.0688
28442W        W71355  25.999  21.236  16.010  0.1305 -0.4539  0.1772
28443W        W71356   3.038  21.392  16.149 -0.1181 -0.0174  0.2427
28444W        W71357  32.682   1.247  16.104 -0.0738 -0.4677 -0.2596
28445W        W71358  29.455  27.285  21.019  0.0852  0.0854  0.0536
28446W        W71359  28.897  23.973  18.243  0.0932 -0.1511 -0.1951
28447W        W71360  22.611  29.552  22.130  0.1638  0.1078  0.1430
28448W        W71361  23.605  30.701  19.457  0.1043 -0.0785  0.3967
28449W        W71362  17.925   4.121  18.657  0.0934 -0.1270 -0.0217
28450W        W71363  25.903  26.721  17.485 -0.3912 -0.0498 -0.1166
28451W        W71364  32.914  26.635  20.159 -0.0596  0.0425 -0.1039
28452W        W71365  30.078  10.204  28.100 -0.1821 -0.0525 -0.1042
28453W        W71366  25.611   2.874  20.514 -0.2332  0.0968  0.0624
28454W        W71367  10.664  26.530  24.053  0.1430  0.1229  0.1880
28455W        W71368  24.224  33.290  20.568 -0.2218  0.1967 -0.1406
28456W        W71369  25.831  16.525  18.001 -0.1476 -0.1368  0.0116
28457W        W71370  28.965  22.448  19.895 -0.0577 -0.3247  0.1383
28458W        W71371   7.037  30.887  19.854  0.2039 -0.2409 -0.0502
28459W        W71372  33.380  23.748  19.377  0.1026  0.1629  0.3275
28460W        W71373  25.901  33.832  28.901 -0.0523 -0.3632  0.0738
28461W        W71374  19.960  25.600  29.218 -0.3205 -0.3382  0.2255
28462W        W71375  23.162  21.086  20.987 -0.0105 -0.0093  0.2521
28463W        W71376  29.484  33.434  19.168  0.0553  0.0284 -0.0195
28464W        W71377  33.305  25.807  16.246  0.2142 -0.3204  0.0149
28465W        W71378  23.475   7.387  23.302 -0.2025 -0.0870  0.0649
28466W        W71379  31.363   7.564  19.643  0.1296 -0.0782  0.1520
28467W        W71380   0.391  28.923  23.270  0.2925 -0.2603  0.1111
28468W        W71381  29.078   4.665  24.148 -0.0138 -0.2874  0.0530
28469W        W71382  25.904  30.893  15.672  0.0309 -0.1597  0.1832
28470W        W71383  10.794  33.936  20.607 -0.0210  0.0779 -0.0674
28471W        W71384  28.781  25.063  19.245 -0.5381 -0.3266 -0.0902
28472W        W71385   5.548  33.244  24.606  0.0508  0.3011  0.1079
28473W        W71386  30.338  22.291   5.270 -0.1366  0.1273 -0.0530
28474W        W71387  23.473  26.008  16.255  0.0871  0.0242 -0.0516
28475W        W71388  27.725  33.884  15.168 -0.2487 -0.0537 -0.1585
28476W        W71389  32.365   0.788  22.306  0.2854  0.1659  0.1943
28477W        W71390  34.082  18.035   0.523  0.2129 -0.0476  0.1209
28478W        W71391  27.068  26.952  14.330  0.1211 -0.1766 -0.3024
28479W        W71392  24.530  18.797   6.365 -0.0481  0.2446  0.2815
28480W        W71393  30.498  27.027  14.464 -0.1349  0.1392  0.2296
28481W        W71394  28.452  28.747  24.370  0.1818 -0.3325  0.1472
28482W        W71395  21.215  26.057  14.017  0.3755  0.1906  0.0854
28483W        W71396  29.454  22.402  18.629  0.0299  0.0227 -0.3742
28484W        W71397  26.658  34.455  18.420 -0.0348  0.1937 -0.0603
28485W        W71398  21.965   1.599  28.299 -0.0317  0.1968  0.2216
28486W        W71399  15.324  26.207  27.881  0.2046  0.0122  0.0390
28487W        W71400  15.350   9.278  26.926 -0.1314 -0.2302  0.0858
28488W        W71401  19.721  34.083  15.483 -0.0793 -0.3383  0.3009
28489W        W71402  22.590  24.020   1.643 -0.1908 -0.1188  0.0677
28490W        W71403   6.923   5.429  25.471 -0.0539 -0.0546  0.0467
28491W        W71404  14.392  31.730  21.229 -0.0509 -0.1164  0.1337
28492W        W71405  24.637  28.628  23.714 -0.0149 -0.0858 -0.2707
28493W        W71406  20.298  30.527  24.282 -0.2858 -0.3083  0.0199
28494W        W71407   1.815  24.843  18.902 -0.2341  0.0318  0.0917
28495W        W71408  25.625   4.054   1.670 -0.0092  0.1403  0.0927
28496W        W71409  22.046  26.514  20.735  0.0458 -0.4272  0.1052
28497W        W71410  28.090   7.247   2.400 -0.0156  0.1462 -0.4293
28498W        W71411  28.722  33.103   0.040  0.1893  0.4133  0.0665
28499W        W71412  15.488  28.131  27.290  0.2458  0.0663  0.1531
28500W        W71413   1.635  28.167  18.475 -0.1333  0.0336 -0.0226
28501W        W71414  28.402  31.137  22.463  0.0686 -0.1513 -0.1775
28502W        W71415  27.439  29.924  26.737 -0.1884 -0.1939  0.3938
28503W        W71416   6.827  26.834  22.285 -0.3854  0.0311  0.3177
28504W        W71417  24.393  30.102  25.128  0.0417  0.2637 -0.0343
28505W        W71418  23.013   5.127  18.337 -0.0562  0.2786  0.0518
28506W        W71419  33.745  27.038  25.503 -0.1178  0.0572  0.2927
28507W        W71420  18.668  20.309  24.989 -0.1132  0.0783 -0.0303
28508W        W71421  27.945  33.452   2.291 -0.1280 -0.0649  0.1181
28509W        W71422  31.880   5.218  29.462 -0.3906 -0.0665 -0.2318
28510W        W71423  28.299   3.939  28.278 -0.1552  0.0312 -0.0557
28511W        W71424  27.671  14.327  22.109 -0.3045 -0.1223 -0.2399
28512W        W71425   0.404  25.249  18.010  0.3598 -0.1529 -0.0873
28513W        W71426  24.044  13.952  28.262 -0.2686  0.0754  0.2854
28514W        W71427   3.959  32.288  22.882  0.3560 -0.0006  0.1644
28515W        W71428  24.475  29.665  23.659  0.0428 -0.3680 -0.0644
28516W        W71429  25.317   4.827  14.869 -0.0639 -0.1233 -0.1120
28517W        W71430  19.226  23.040  27.350 -0.0438  0.2777 -0.0086
28518W        W71431  25.576  16.614   2.182  0.0592  0.0931 -0.1785
28519W        W71432  33.513  20.937  21.013 -0.1188 -0.1990 -0.2973
28520W        W71433  27.382  33.993  17.375 -0.2293  0.0355 -0.1186
28521W        W71434  23.534  32.028  22.197 -0.2463  0.2391  0.0546
28522W        W71435  28.882  28.303  28.917  0.4517  0.1122  0.0592
28523W        W71436  22.442  30.271  24.664  0.0054  0.1419 -0.2688
28524W        W71437  23.766  10.253  28.337  0.0690 -0.2694 -0.0082
28525W        W71438  21.184  23.560   2.442  0.1084 -0.1224  0.2379
28526W        W71439  28.759  21.680  27.357 -0.0510  0.0993 -0.1387
28527W        W71440   7.361  18.149  15.636  0.0119 -0.1635  0.0160
28528W        W71441  15.952  28.297  21.709 -0.2103  0.0661  0.1477
28529W        W71442  32.229  25.989  13.722 -0.0311  0.0632 -0.4025
28530W        W71443  30.267  28.391  22.799 -0.1881  0.2462 -0.0030
28531W        W71444  28.120  12.552  29.408 -0.2945 -0.0398 -0.0002
28532W        W71445  30.378  33.059  28.897  0.2843  0.0053 -0.0635
28533W        W71446  32.465  28.344  23.384 -0.1293 -0.1302  0.1823
28534W        W71447  30.702  23.106  20.311  0.1815 -0.3181  0.0033
28535W        W71448  17.429  27.375  28.386 -0.0935  0.0462 -0.1321
28536W        W71449  31.238  30.091  16.424  0.0464  0.0038 -0.2592
28537W        W71450   4.077  21.373  19.864  0.1627  0.0301  0.1975
28538W        W71451  23.265  31.285  13.230  0.3546  0.1001 -0.2252
28539W        W71452   0.157  29.047  21.810 -0.0706  0.3112 -0.1687
28540W        W71453  15.419   8.391   1.762 -0.2645  0.0087  0.0406
28541W        W71454  23.939  22.780   2.276 -0.0723 -0.0380 -0.2503
28542W        W71455  24.332  30.262  18.054  0.2234 -0.1523  0.1703
28543W        W71456  32.488  28.206  19.327 -0.0059  0.1435  0.0613
28544W        W71457  32.610  34.004  26.945  0.1131  0.0305 -0.3248
28545W        W71458  32.078  33.870  29.422 -0.2731 -0.1571  0.0538
28546W        W71459   2.720   0.480  16.929 -0.1020 -0.0145 -0.0357
28547W        W71460  20.461  33.833  18.482 -0.1082 -0.1240  0.5021
28548W        W71461  28.214   6.988  20.414  0.2516 -0.0956 -0.0505
28549W        W71462  17.515  22.912  25.528 -0.0879  0.0962 -0.0667
28550W        W71463  33.598  34.337  26.670  0.0995  0.0341 -0.3387
28551W        W71464  21.575  30.258  22.116 -0.5964 -0.2178  0.1516
28552W        W71465  33.978  29.659  27.020 -0.1108 -0.0894  0.2778
28553W        W71466  23.162  29.381  27.221 -0.3249 -0.1985 -0.0322
28554W        W71467  23.297  24.355   1.235 -0.0670  0.1200 -0.1542
28555W        W71468  18.736   3.089   0.302 -0.1106  0.4768  0.0625
28556W        W71469  29.892   2.046  16.374  0.0948 -0.1656 -0.0765
28557W        W71470  22.950  30.798  18.256  0.1336 -0.2267 -0.1666
28558W        W71471  25.996  29.670  24.339  0.0101  0.2731  0.0006
28559W        W71472  14.212  29.773   4.699 -0.2286 -0.0233  0.2173
28560W        W71473  21.393   6.177  26.525 -0.1926 -0.2517  0.0356
28561W        W71474  33.299  25.653   9.601 -0.5542 -0.0859 -0.1412
28562W        W71475  17.076  29.474  21.899 -0.1777  0.0893  0.1281
28563W        W71476  22.304  24.222  21.272  0.2082 -0.1460 -0.0071
28564W        W71477  20.424  26.691  24.611  0.1800  0.0543  0.1779
28565W        W71478  29.532  21.903  29.124 -0.1166 -0.0133  0.0425
28566W        W71479  34.168  31.626   5.888  0.1987  0.1569  0.0234
28567W        W71480  34.314   4.329  19.105 -0.0784  0.3330  0.1310
28568W        W71481  26.887  22.310  15.542 -0.0357 -0.1712  0.2899
28569W        W71482  21.277   1.210  24.405  0.3883  0.2205  0.2928
28570W        W71483  22.033  15.594  21.143  0.1098  0.0649  0.0886
28571W        W71484  23.879   2.987   3.513 -0.2502 -0.1315  0.2129
28572W        W71485   1.466   0.888  19.275  0.0639 -0.0588  0.0359
28573W        W71486  20.407  27.229  28.658  0.0501  0.1761 -0.4679
28574W        W71487  23.573  24.999  19.647  0.3364 -0.2823  0.1671
28575W        W71488  26.681  24.500  22.195 -0.1158  0.0830  0.0320
28576W        W71489  20.195   1.960  28.983  0.1980 -0.0700  0.2844
28577W        W71490   8.206  22.286  21.308  0.3558 -0.1272  0.0875
28578W        W71491  28.604   3.468  28.913  0.1706 -0.0085  0.3190
28579W        W71492   8.946  31.190  22.573 -0.2690 -0.0788 -0.0971
28580W        W71493  19.816  26.800  27.058  0.0621  0.0576  0.1312
28581W        W71494  25.758  25.805  29.354  0.0942 -0.1503  0.4091
28582W        W71495  21.291  18.762  23.574 -0.0011 -0.0394 -0.1533
28583W        W71496  33.785  25.598   0.950  0.0471  0.1550 -0.2943
28584W        W71497  30.625  29.882  28.975  0.1599 -0.0760 -0.0207
28585W        W71498  15.489  23.864  19.432  0.2699 -0.4379  0.0708
28586W        W71499  18.670  28.195  29.393  0.0332 -0.0206  0.2139
28587W        W71500  33.828  25.937  13.845 -0.1441 -0.1213  0.2192
28588W        W71501  21.949  28.712  28.269  0.4226 -0.1601  0.0469
28589W        W71502  31.189   3.864  16.834 -0.0736 -0.0981 -0.0821
28590W        W71503  29.075   7.604  22.435  0.0178 -0.0579  0.1624
28591W        W71504  26.130   4.248  26.309  0.1464  0.0893  0.2050
28592W        W71505  20.664  27.784   1.657 -0.1197 -0.0937 -0.0995
28593W        W71506  24.468  28.808  19.131 -0.2350 -0.1838 -0.2309
28594W        W71507   0.449  32.059  28.293 -0.1380  0.1312 -0.3338
28595W        W71508  26.689  31.735  29.104 -0.1852  0.0754 -0.0330
28596W        W71509  32.848  30.581  28.166  0.0323  0.1732 -0.1622
28597W        W71510  29.567  31.525   9.616 -0.0335  0.0839 -0.4230
28598W        W71511  20.579   3.008   1.156 -0.1536 -0.0738 -0.2377
28599W        W71512  24.289   0.871   4.359  0.0637  0.2442  0.0475
28600W        W71513  31.067  25.084  19.043 -0.1444 -0.1064  0.2094
28601W        W71514  17.015  22.188  20.004  0.3065 -0.1750 -0.0502
28602W        W71515  29.169  32.855  29.772  0.3757 -0.2480  0.0180
28603W        W71516  29.935  25.112  23.097  0.3042  0.3303  0.1264
28604W        W71517   0.705  32.248  28.716 -0.0725 -0.0746 -0.0074
28605W        W71518  27.205  19.166  24.962  0.1643 -0.1510 -0.1721
28606W        W71519  24.869  31.011  17.970  0.1148  0.0325 -0.0783
28607W        W71520  21.588  23.596  26.616  0.0091 -0.0873 -0.2476
28608W        W71521  26.388  31.666  19.533 -0.1684  0.1328  0.0115
28609W        W71522  24.565   9.061   9.395  0.1375  0.0727 -0.1868
28610W        W71523  22.752  33.150  22.590 -0.1994 -0.1417 -0.2355
28611W        W71524  24.177  25.636   2.036 -0.0340 -0.2214 -0.0280
28612W        W71525  22.116   5.168  22.253  0.2159  0.1978 -0.0358
28613W        W71526  21.844   1.857  13.387  0.2190 -0.2219 -0.0174
28614W        W71527  22.255  29.995  25.625  0.0397  0.2558  0.2181
28615W        W71528  17.916   2.133  25.210 -0.1555  0.2000  0.1552
28616W        W71529  17.857  27.259  26.283 -0.3987 -0.0820 -0.0063
28617W        W71530  33.948  29.354  15.215 -0.3491 -0.0039 -0.3892
28618W        W71531  21.042  17.776  21.655  0.3592 -0.5453 -0.1583
28619W        W71532  21.902   7.968  17.958 -0.0983  0.2559 -0.1457
28620W        W71533  25.331   0.763  18.469 -0.2174  0.1333 -0.2817
28621W        W71534  28.728   0.556  25.138 -0.3095  0.0265  0.0724
28622W        W71535  14.809  30.834  14.697  0.2937  0.2415  0.1283
28623W        W71536  26.581  30.304  23.979 -0.0386  0.0767  0.0935
28624W        W71537  22.398   3.268  18.259 -0.3008  0.1139  0.4064
28625W        W71538  30.032  23.389  24.281  0.0019 -0.0412  0.1975
28626W        W71539  22.159   2.600  18.299 -0.0853  0.0666 -0.0791
28627W        W71540  19.944   0.334  21.016 -0.1369  0.0977  0.0367
28628W        W71541   0.873  30.406  19.537 -0.1134 -0.2674 -0.0567
28629W        W71542  18.467   5.592  29.765  0.1036  0.2244 -0.1739
28630W        W71543  10.858  18.918  20.732 -0.2658  0.0960  0.1533
28631W        W71544  27.561   2.064  27.236  0.0358  0.1911 -0.2195
28632W        W71545  24.110  31.853  26.387 -0.1285 -0.0824  0.0505
28633W        W71546   1.739   0.040  23.529 -0.1490  0.0396  0.2072
28634W        W71547  20.172  29.010  25.583 -0.1548  0.3674  0.0971
28635W        W71548  23.178  22.413   6.775  0.0874 -0.0376  0.3709
28636W        W71549  29.223  34.095   5.478 -0.0663 -0.1457 -0.0288
28637W        W71550  26.046  30.466  16.114 -0.0370  0.1348  0.0468
28638W        W71551  20.900  23.798   4.880 -0.1194  0.1858  0.1347
28639W        W71552  16.539  33.194   3.155  0.1337  0.0191 -0.1504
28640W        W71553  33.536  21.731  29.369 -0.0375 -0.1605  0.1380
28641W        W71554  19.992  27.728  21.037 -0.0177  0.1772  0.1373
28642W        W71555  26.884  25.168  15.552  0.1371 -0.1553  0.0061
28643W        W71556   0.680  22.891   5.756 -0.1059 -0.2862 -0.2613
28644W        W71557  22.313  24.957   0.242 -0.0572  0.2322 -0.0545
28645W        W71558   8.773  25.146  27.102  0.1469  0.2404 -0.0073
28646W        W71559  26.218  31.292  15.217  0.2051  0.2636  0.1428
28647W        W71560  26.977  27.391   8.518  0.1456  0.2827  0.2840
28648W        W71561  21.879   2.780  26.467  0.1444 -0.3028  0.2038
28649W        W71562  27.018  27.351  15.050 -0.1349  0.0445  0.1402
28650W        W71563   0.393  32.926  26.801  0.1465 -0.1113 -0.1660
28651W        W71564  20.765  31.673  21.501 -0.1734  0.1802  0.0892
28652W        W71565  29.714  26.045   4.628  0.1575 -0.2481 -0.0360
28653W        W71566  32.447  26.689  22.710  0.0228 -0.0829 -0.1954
28654W        W71567  20.220   5.726   1.982  0.0464 -0.1325 -0.2096
28655W        W71568  33.973  27.316  22.928  0.1176 -0.0204  0.2252
28656W        W71569  31.572  32.788  17.678 -0.1597 -0.0720 -0.3307
28657W        W71570  17.878   1.541  21.910 -0.0367 -0.0570 -0.2629
28658W        W71571  26.213  32.157   3.175 -0.1117  0.2801  0.0960
28659W        W71572  21.419  28.558  24.432  0.1012  0.2395  0.0295
28660W        W71573  26.536   0.800  26.671  0.2034  0.1500  0.0970
28661W        W71574  22.604  27.735  19.985  0.2573 -0.0794  0.3203
28662W        W71575  15.926   7.448   4.386 -0.0927 -0.2074  0.2142
28663W        W71576  31.463   0.931  23.606 -0.0245  0.2237  0.0646
28664W        W71577  19.408  30.604   1.540 -0.0843  0.2458 -0.0154
28665W        W71578  31.474  24.357   3.362  0.0804  0.2087  0.1136
28666W        W71579  24.727   2.157   2.883  0.2709 -0.1082 -0.0763
28667W        W71580  23.402  32.095  17.067 -0.1331  0.2407 -0.2217
28668W        W71581  31.548  24.394  18.634  0.2402 -0.4407  0.0363
28669W        W71582  16.813   1.543   6.360  0.4415  0.1999 -0.1696
28670W        W71583  31.135   0.603  20.028 -0.0743  0.2207  0.0654
28671W        W71584  17.917  23.812  27.350 -0.3623  0.1014  0.1189
28672W        W71585  19.154  28.567  21.877  0.1518  0.0186  0.1045
28673W        W71586  23.057  26.462   0.123  0.0622  0.0404  0.0971
28674W        W71587  29.608  26.952  26.968 -0.3421 -0.3312  0.1736
28675W        W71588  27.739  27.513  21.003  0.2060  0.3420 -0.1029
28676W        W71589  17.317  23.911  16.229 -0.2496  0.0329 -0.1210
28677W        W71590  28.351  21.703  22.094  0.0166  0.1940 -0.0984
28678W        W71591  18.824  29.735  17.456 -0.1496 -0.1836 -0.3147
28679W        W71592  22.324   1.274   1.920  0.2834 -0.1904 -0.2193
28680W        W71593  17.026   0.773  25.876  0.0392  0.2983  0.1658
28681W        W71594  17.033   4.804  28.032  0.2378 -0.0828 -0.0806
28682W        W71595  29.343  29.088  19.669  0.6182  0.1358 -0.2862
28683W        W71596  22.256  31.524  12.860 -0.1718  0.4539 -0.1378
28684W        W71597  31.080  31.349  18.532  0.5147  0.0978  0.0750
28685W        W71598  20.075  32.328  24.847 -0.1156  0.0283  0.0278
28686W        W71599  20.196   4.364  19.165 -0.3821 -0.0726 -0.1230
28687W        W71600  32.880  32.782  19.057  0.1331  0.0783 -0.1305
28688W        W71601  33.124  22.567  23.852 -0.0647  0.4064  0.0115
28689W        W71602  20.338  22.422  29.437 -0.1413  0.0779 -0.4131
28690W        W71603  24.059  30.702   8.492 -0.0191 -0.1475 -0.0058
28691W        W71604  26.222  27.843  28.639  0.0737  0.0022 -0.1360
28692W        W71605  32.673  28.755   0.324 -0.2286  0.1046 -0.1540
28693W        W71606   3.433   7.153   6.219 -0.0861  0.0641  0.2917
28694W        W71607  25.598  21.620  21.718 -0.1016 -0.3228  0.0857
28695W        W71608   3.345  30.613  24.859 -0.4766 -0.2298 -0.0587
28696W        W71609  27.435   0.318   4.556 -0.1653  0.0384  0.1680
28697W        W71610  30.676   2.005  20.452  0.0603 -0.2132 -0.1153
28698W        W71611  13.808  24.977  18.793  0.1024  0.2010 -0.0605
28699W        W71612   2.200   4.606   2.465  0.1959  0.0287  0.1891
28700W        W71613  31.249  18.701  28.514  0.1398  0.0767 -0.0031
28701W        W71614  25.785  28.218   3.979  0.1368 -0.2605 -0.2030
28702W        W71615  24.262  26.498  21.819 -0.1023  0.3540 -0.1752
28703W        W71616  32.406  26.188   6.242  0.1672  0.1885 -0.3347
28704W        W71617   0.536  29.749  25.211 -0.2638 -0.1898  0.2599
28705W        W71618  27.665  34.478   3.263  0.2013  0.2643 -0.0603
28706W        W71619  31.235  29.533  16.469 -0.2585  0.2088  0.2194
28707W        W71620  25.873  33.677  26.827  0.0037  0.3681 -0.3206
28708W        W71621  24.604   0.054  19.465 -0.2111 -0.3046  0.1424
28709W        W71622  30.450  26.374  18.914  0.2390 -0.1902 -0.2853
28710W        W71623  26.673   4.201   0.573 -0.1610  0.0212 -0.2854
28711W        W71624  17.844   0.289   8.834  0.3849 -0.2455  0.0871
28712W        W71625   2.044  27.281  19.244  0.0622  0.1941  0.0646
28713W        W71626  24.586  30.426  14.470  0.0303 -0.1610  0.2417
28714W        W71627  29.525  32.281  28.864  0.0879  0.1198  0.0932
28715W        W71628  29.457  30.493  18.310  0.1865  0.2225  0.1762
28716W        W71629  23.136  33.345  21.909  0.0307  0.5028 -0.1910
28717W        W71630  29.557   5.153  29.419  0.0885 -0.0892 -0.3510
28718W        W71631  25.012   4.061   1.437  0.1747 -0.0842 -0.2091
28719W        W71632  24.600  31.471  24.007  0.0491  0.0640 -0.1020
28720W        W71633  18.704  27.971  25.621 -0.1429  0.1201  0.4457
28721W        W71634  17.829  33.643  24.497  0.2507 -0.0140 -0.0043
28722W        W71635  27.618  34.368  23.387  0.0509  0.0571 -0.0395
28723W        W71636  23.481  31.600  15.324 -0.0913  0.0888  0.1527
28724W        W71637  23.407  33.028   5.687 -0.0909 -0.1014 -0.2779
28725W        W71638  33.596  28.124  22.878  0.3282 -0.0322 -0.1234
28726W        W71639  18.343  10.253   1.949  0.0377  0.1417  0.0443
28727W        W71640  25.631  29.289  18.704 -0.1459 -0.2163  0.1537
28728W        W71641  25.890  31.811  26.194 -0.3583 -0.1125 -0.0202
28729W        W71642  19.135  25.341  18.538 -0.0157  0.2326 -0.0221
28730W        W71643  17.426  28.647  24.645  0.0115  0.0086  0.0207
28731W        W71644  29.887  30.860   2.884  0.1082 -0.2049 -0.1470
28732W        W71645  30.300  24.480  16.617 -0.2264  0.3469 -0.2875
28733W        W71646  26.874   1.833  19.692 -0.2573 -0.2343 -0.1390
28734W        W71647  20.826   5.275  22.488 -0.1022  0.1096 -0.3176
28735W        W71648  30.227  21.988  25.833  0.1691  0.1006 -0.3273
28736W        W71649  23.132  30.176  23.827 -0.0720 -0.1717  0.0003
28737W        W71650  14.778  23.745  28.753 -0.0165  0.1521 -0.1419
28738W        W71651  17.577   1.807  16.867  0.1933 -0.1464  0.2647
28739W        W71652  22.086  28.270   0.777  0.0085 -0.0297  0.0991
28740W        W71653  23.101  31.749  28.415  0.3099 -0.1308  0.1435
28741W        W71654  28.082  31.896  27.208 -0.1900  0.0461  0.1047
28742W        W71655  22.041   1.988   2.979 -0.0572  0.0164 -0.0200
28743W        W71656  14.673  27.723  18.143  0.2729 -0.0506 -0.1367
28744W        W71657  20.226  29.626  18.101  0.0990  0.2330  0.0561
28745W        W71658  17.164   0.072  20.447 -0.0679  0.0873 -0.0227
28746W        W71659  19.661  31.094  15.966 -0.1402  0.5684 -0.2979
28747W        W71660  26.357  32.312  21.842  0.2368  0.2481 -0.1960
28748W        W71661  29.497  23.061  17.846 -0.2600 -0.0262 -0.0253
28749W        W71662  19.688  21.896   1.483  0.1068 -0.0651 -0.1537
28750W        W71663  26.223  31.615  17.987  0.2238  0.2590  0.1581
28751W        W71664  26.073  32.086   9.550 -0.0446 -0.2250  0.0744
28752W        W71665   7.672  32.184  17.046  0.2511  0.4130 -0.1403
28753W        W71666  31.322  26.723  27.276 -0.5300 -0.0481 -0.0596
28754W        W71667  30.910  30.417  26.315  0.1136  0.1442 -0.1632
28755W        W71668  11.852  24.809  28.775  0.2062 -0.0849  0.0330
28756W        W71669  26.978  33.873  20.637  0.0454 -0.0265 -0.0098
28757W        W71670  16.101   1.378  25.168  0.2904  0.0842 -0.4425
28758W        W71671   6.239  30.468   2.541 -0.2505  0.0781  0.0261
28759W        W71672  27.767   0.351   0.271 -0.0168  0.1556 -0.2853
28760W        W71673  15.915  31.643  23.485  0.1056  0.1507  0.0820
28761W        W71674   0.155  33.440  26.936 -0.0325 -0.1712 -0.2644
28762W        W71675  13.361   4.544  22.874 -0.0148 -0.0611  0.2684
28763W        W71676  21.053   8.155  27.031  0.4018 -0.2030  0.0651
28764W        W71677  22.217  31.276  20.469  0.0377  0.2435 -0.0786
28765W        W71678  25.776  22.485  16.498 -0.0755  0.1153 -0.0595
28766W        W71679  18.090  23.857  28.563 -0.1926  0.1574 -0.2490
28767W        W71680  28.854  30.288  26.896 -0.0259  0.3676  0.1590
28768W        W71681  32.711  31.921  28.095 -0.1583 -0.1315 -0.0152
28769W        W71682  26.629  32.121  26.136 -0.2384  0.3106 -0.1491
28770W        W71683  25.329   4.946  20.924 -0.1520 -0.0617 -0.1158
28771W        W71684  25.622  28.802   0.796 -0.0042 -0.0859 -0.0794
28772W        W71685  27.179   9.914   3.224 -0.1746 -0.0933 -0.0224
28773W        W71686  19.328  21.796  17.871 -0.0070  0.0331 -0.1592
28774W        W71687  26.366  29.676   2.461  0.0536 -0.1539 -0.0771
28775W        W71688  25.767  31.743  26.981  0.2877  0.0841 -0.2787
28776W        W71689  33.886  23.210  27.400  0.0617  0.1300 -0.1825
28777W        W71690  18.577   4.143  23.884 -0.1865  0.2553 -0.1143
28778W        W71691  22.197  28.466  27.098  0.0089 -0.1953 -0.1315
28779W        W71692  27.053   3.633   5.529 -0.0383  0.3575  0.1440
28780W        W71693  25.620   0.908  28.233 -0.1494 -0.0408 -0.4611
28781W        W71694  28.826  12.905  22.281  0.1381  0.2491  0.0119
28782W        W71695  31.504  31.348  17.760  0.1226  0.1653  0.0744
28783W        W71696  19.229  25.189  24.605 -0.0321 -0.2395 -0.4196
28784W        W71697  24.306  30.835  19.603 -0.1787  0.4847  0.0176
28785W        W71698  25.944   3.979  21.454 -0.1594 -0.0084  0.1342
28786W        W71699  25.993  28.602  27.739  0.0203 -0.0127  0.1612
28787W        W71700  17.166   4.832  27.501 -0.2504 -0.1541  0.1449
28788W        W71701  26.291  28.260  21.120  0.1398 -0.1723 -0.1909
28789W        W71702  15.339  25.887   2.078 -0.1167 -0.0426  0.0717
28790W        W71703  28.037  20.399  23.880  0.2372 -0.0275  0.2266
28791W        W71704  22.944   4.558  26.777  0.1161 -0.0027 -0.0757
28792W        W71705  25.283  32.434  28.417  0.0153 -0.3668 -0.0683
28793W        W71706  14.613   1.300  26.018 -0.0333 -0.2182  0.1067
28794W        W71707  23.690  23.025  20.793  0.2249 -0.1798  0.0195
28795W        W71708  20.681  27.709  24.888 -0.2320 -0.1416 -0.1750
28796W        W71709  26.575  27.621  25.826  0.2603 -0.2754  0.0696
28797W        W71710  16.419  25.097  19.197 -0.0265 -0.2773 -0.0444
28798W        W71711  26.564  26.328   2.108  0.0612 -0.0278 -0.0012
28799W        W71712   1.823  16.131  14.283  0.1636 -0.2712  0.1179
28800W        W71713  32.179  28.939  24.550 -0.2280  0.1394 -0.0846
28801W        W71714  34.037  30.852  24.249  0.1590 -0.0661 -0.0353
28802W        W71715  18.896  26.519  26.500 -0.2785  0.0381  0.1452
28803W        W71716  13.988  29.186   1.792 -0.0891 -0.0316 -0.0421
28804W        W71717  17.905  25.353   3.566  0.1381 -0.0783 -0.0281
28805W        W71718  25.357  34.154   3.635  0.0739  0.3818  0.1073
28806W        W71719  34.018  27.750  25.920  0.1073 -0.0572 -0.1355
28807W        W71720  33.010   2.688   2.738 -0.1054 -0.0830  0.1673
28808W        W71721  28.144  28.134  18.137 -0.0373  0.2224 -0.0212
28809W        W71722  23.608   7.761  24.413  0.1792  0.0804 -0.0756
28810W        W71723  21.374  22.244  19.719  0.3845  0.0747  0.0088
28811W        W71724  29.002  33.182  20.714 -0.1479 -0.0904 -0.3352
28812W        W71725  29.856   4.998   2.982  0.2815 -0.0832 -0.0486
28813W        W71726  25.793  27.704   4.170 -0.1966  0.1607 -0.1627
28814W        W71727  22.173  32.574  18.522 -0.0791  0.2568  0.1404
28815W        W71728   3.133   1.538  24.291  0.0836  0.0135 -0.0246
28816W        W71729  30.883   4.963   0.717 -0.3145 -0.0014  0.1703
28817W        W71730  20.445  30.534  27.056 -0.0767 -0.0706  0.0532
28818W        W71731  27.027  19.784  16.708  0.2324  0.3366  0.2382
28819W        W71732  25.414  21.813  28.857  0.3122 -0.1909 -0.0803
28820W        W71733  19.159   6.052  28.344 -0.0113 -0.1246  0.0161
28821W        W71734  33.656   4.308  19.707  0.3381 -0.3654  0.0283
28822W        W71735  21.827  22.897  21.517  0.1490 -0.1738 -0.1896
28823W        W71736  31.215  32.413   8.580  0.0100 -0.0231  0.0789
28824W        W71737  24.962   7.095   1.108 -0.2806 -0.0437 -0.4030
28825W        W71738  20.156  33.120   3.781  0.0355 -0.0592  0.3726
28826W        W71739  29.599   0.225   0.481  0.1054  0.0146  0.1596
28827W        W71740  25.611  29.098   1.880  0.0121 -0.2579  0.1141
28828W        W71741  28.086  18.909  24.465  0.0270 -0.1202 -0.0613
28829W        W71742  31.311  21.730  28.870  0.0301  0.2791 -0.2276
28830W        W71743  33.378  27.815  16.788  0.0759  0.1671  0.1574
28831W        W71744  32.362   3.575  23.936 -0.0154  0.0327 -0.1450
28832W        W71745  24.126  32.971  27.274 -0.2936  0.0118  0.2867
28833W        W71746  26.519  29.687  24.531  0.4379 -0.0162 -0.1403
28834W        W71747  26.934  21.359  17.293  0.2246  0.1727 -0.1444
28835W        W71748  18.326  30.705  25.239 -0.1288 -0.0185  0.1709
28836W        W71749  27.150  24.122   3.425  0.2386 -0.0750  0.1456
28837W        W71750  27.098  30.353   5.552 -0.0857 -0.1370  0.0564
28838W        W71751  29.684  32.546  21.003  0.0452 -0.0263 -0.0369
28839W        W71752  13.413  27.632  26.336 -0.0689 -0.1271 -0.1804
28840W        W71753  16.353  32.255  16.926  0.0983  0.0623 -0.3787
28841W        W71754  28.876  22.304  22.338  0.0876  0.2883  0.1796
28842W        W71755  27.582  32.928  27.574 -0.1253 -0.0126 -0.0362
28843W        W71756  29.291  32.928  26.777  0.0718 -0.0492 -0.0340
28844W        W71757  30.205  28.273  19.474 -0.4123 -0.3234 -0.0065
28845W        W71758  21.119  19.954  19.287  0.0554 -0.0224 -0.0544
28846W        W71759  22.710  32.197  20.870 -0.0176  0.3301 -0.3844
28847W        W71760  22.591   1.099  23.468  0.0113 -0.1159  0.2259
28848W        W71761  31.817  26.665  24.412  0.0861 -0.1074 -0.1183
28849W        W71762  22.726  20.779  24.319  0.1789  0.1099  0.3049
28850W        W71763  18.240  23.579  21.063 -0.0863  0.0349  0.2314
28851W        W71764  22.132  29.119  25.163 -0.1511 -0.0584  0.2990
28852W        W71765  31.586   1.484  25.857  0.1228  0.0339  0.1135
28853W        W71766  28.463   2.413   2.075 -0.2245  0.1472  0.4448
28854W        W71767  20.954  31.908   1.956  0.0441  0.0593 -0.0800
28855W        W71768  21.392  29.591  24.941 -0.1661  0.1491  0.0610
28856W        W71769  17.488   0.145  23.555  0.3554 -0.0137  0.1738
28857W        W71770  32.137  24.392  22.286 -0.0617 -0.0871 -0.1122
28858W        W71771  24.282  27.936  21.941  0.3070  0.1214  0.3248
28859W        W71772  26.232  30.789  25.925 -0.1088 -0.2555  0.5182
28860W        W71773  26.405   1.093  15.941 -0.0460 -0.1768 -0.1981
28861W        W71774  26.999   0.758  17.455 -0.1543 -0.1517  0.1073
28862W        W71775  17.500  33.433  25.411 -0.2179  0.0440 -0.3923
28863W        W71776  25.671  29.029   5.230 -0.0004 -0.2816  0.1304
28864W        W71777   5.606   7.909   0.833  0.1411 -0.0801 -0.1138
28865W        W71778  29.105   5.564  21.023  0.0725  0.1574  0.0412
28866W        W71779  25.358  14.838  20.739 -0.1836  0.0449 -0.4404
28867W        W71780   3.936   1.453  22.167  0.0365 -0.1970  0.2166
28868W        W71781  24.333  24.356  28.210  0.0428 -0.0270 -0.1782
28869W        W71782  29.360  22.622  14.389  0.1579  0.3471  0.0099
28870W        W71783  13.249   7.647  25.022 -0.2968 -0.1190  0.0041
28871W        W71784   1.379  30.852  14.358  0.2461  0.0835  0.1763
28872W        W71785  30.109  23.777   2.226  0.0775 -0.0458  0.4418
28873W        W71786  32.189   3.350  21.078 -0.0622  0.3497  0.0040
28874W        W71787  24.447   1.584  26.187 -0.2072  0.0633 -0.1354
28875W        W71788  27.446   0.415   1.812 -0.3513  0.3144 -0.3537
28876W        W71789  32.171  34.342   2.116  0.1986 -0.2529  0.2515
28877W        W71790  22.748  30.957  28.225  0.0202  0.1180 -0.1195
28878W        W71791  16.831   2.153  23.294  0.2363 -0.1200  0.1317
28879W        W71792  25.474  31.741  27.394 -0.2785  0.1223 -0.1059
28880W        W71793  19.089  25.081  13.731 -0.2388 -0.2005  0.1735
28881W        W71794   3.488   4.086  20.870 -0.3009 -0.2510 -0.0422
28882W        W71795  15.233  19.962  16.256 -0.1257  0.3178  0.1716
28883W        W71796  32.750  20.322  19.212  0.1182  0.3193 -0.2558
28884W        W71797  27.732  30.339  19.697  0.0721  0.2749  0.1648
28885W        W71798  28.407  27.279  25.396  0.2362 -0.2976 -0.1833
28886W        W71799   0.651   3.756   2.561  0.3452 -0.2228  0.0814
28887W        W71800  25.165  23.396  22.881 -0.2660 -0.0064  0.1910
28888W        W71801  28.231   1.978   3.566  0.1808  0.0173 -0.2961
28889W        W71802  28.777   6.220  19.934 -0.2644  0.1281  0.1319
28890W        W71803  25.537  32.568  29.163  0.0718  0.1077  0.0240
28891W        W71804  28.458  19.102  22.982  0.3216  0.1527  0.1107
28892W        W71805  17.656  19.438  29.250 -0.1078  0.4240 -0.0938
28893W        W71806  32.014  23.355  23.203  0.1133  0.2585  0.2951
28894W        W71807  16.894  24.443  23.720 -0.0894  0.4035  0.1066
28895W        W71808  26.693   8.773   0.492 -0.1759  0.0234  0.2658
28896W        W71809  20.697  28.260  24.154 -0.1649  0.3157  0.0874
28897W        W71810   1.229  25.742   6.837  0.0589  0.2196 -0.0400
28898W        W71811   0.415  34.198  26.989 -0.0450 -0.0830 -0.1256
28899W        W71812  33.273   0.483  27.199  0.3676  0.1846 -0.0864
28900W        W71813  26.409  29.325  19.714  0.2095 -0.0852 -0.0822
28901W        W71814  22.610   2.266   4.336 -0.3909  0.1973 -0.2650
28902W        W71815  21.157   2.473  29.211 -0.1096  0.1649 -0.0411
28903W        W71816  25.755  27.160  29.175  0.1799  0.0237 -0.0464
28904W        W71817  28.219   4.027   2.615  0.4961  0.3239 -0.0510
28905W        W71818  16.936   7.684   3.847  0.1342  0.2425  0.0587
28906W        W71819  25.479  22.061  20.842  0.0557  0.1735  0.0162
28907W        W71820  15.205  30.695  25.837  0.1854  0.2270  0.2338
28908W        W71821  18.011  25.985  23.521  0.0987 -0.0774  0.2031
28909W        W71822  16.923   8.938   3.244 -0.0239  0.0289  0.0312
28910W        W71823  26.895  30.912  26.653 -0.0341 -0.1420 -0.0442
28911W        W71824  23.351  22.881  29.387  0.1203  0.2146  0.3567
28912W        W71825  28.733   0.543   6.148  0.0101 -0.1604  0.0338
28913W        W71826  28.760  33.482  16.647 -0.0470  0.0491 -0.0100
28914W        W71827  20.918   3.672   1.804  0.4186  0.1140  0.4809
28915W        W71828  31.429  32.324   4.945 -0.0146  0.0819  0.0353
28916W        W71829  30.079   2.003   1.318  0.0352  0.0511  0.1704
28917W        W71830  30.244  33.026   4.459  0.1942 -0.1714 -0.0632
28918W        W71831  20.550  31.157  26.517 -0.1465 -0.0076 -0.0881
28919W        W71832   0.743   9.445   2.213  0.1757 -0.0780 -0.2195
28920W        W71833  26.139   5.693  25.991 -0.1923  0.2090 -0.0569
28921W        W71834  31.310   2.332  27.959  0.5095  0.0872  0.0606
28922W        W71835  32.944   2.078  27.690 -0.0304  0.0304  0.2261
28923W        W71836  25.618  30.088  21.491  0.1339  0.0689  0.2056
28924W        W71837  28.976   3.231  26.188 -0.3471 -0.1929 -0.0172
28925W        W71838  25.571  31.510  23.050  0.0457 -0.1998 -0.0293
28926W        W71839  33.408  30.720   8.731  0.0545 -0.3069  0.1284
28927W        W71840  26.981  25.998  17.477  0.0952  0.1955  0.1812
28928W        W71841  31.354  27.750  24.829 -0.1304 -0.3579 -0.4532
28929W        W71842  31.145  33.150  24.528  0.0664 -0.0948  0.1739
28930W        W71843  27.301   6.448   1.586 -0.0655 -0.0451  0.5473
28931W        W71844  26.864   6.390  24.403 -0.0026 -0.1183 -0.0211
28932W        W71845   4.748  32.872   2.524 -0.4118 -0.2053 -0.1523
28933W        W71846  34.137   3.629   9.896 -0.1428 -0.0468  0.0972
28934W        W71847  14.191  20.543  16.696 -0.1020 -0.2554 -0.1464
28935W        W71848  32.156  30.029  17.366  0.1204  0.0821 -0.1183
28936W        W71849  23.373  30.651  26.388 -0.0221 -0.1604  0.0670
28937W        W71850  24.539   4.599  22.930  0.1467 -0.0263 -0.3687
28938W        W71851  19.569   9.384  13.030 -0.2597  0.1770  0.0064
28939W        W71852  20.479   0.165  29.344 -0.3850 -0.2738 -0.0333
28940W        W71853  14.258  31.934  23.188  0.2807  0.0341 -0.2714
28941W        W71854  24.673  26.847  18.667 -0.1508  0.1838  0.0376
28942W        W71855  19.882  28.367   1.387 -0.1950  0.1493  0.1575
28943W        W71856  26.331   4.488  24.165  0.1031  0.0244  0.0205
28944W        W71857  26.170  27.995  23.200 -0.1370 -0.1801 -0.1477
28945W        W71858   0.661   5.093  27.983  0.0789 -0.0474  0.1472
28946W        W71859  29.115   1.002  23.092 -0.0599 -0.0480  0.1169
28947W        W71860  22.321  21.908   5.228 -0.0201  0.1164  0.0405
28948W        W71861  21.251  29.786   6.567 -0.0828  0.0472 -0.0252
28949W        W71862  26.901  19.878   0.675  0.1152 -0.2622  0.0481
28950W        W71863  32.762  28.313  22.212  0.0840 -0.0265  0.2042
28951W        W71864   7.155  11.685  27.751  0.3321 -0.0967  0.0002
28952W        W71865  29.819  31.692   1.850 -0.2637 -0.1148  0.0954
28953W        W71866  25.307   0.815   3.916 -0.2083 -0.2623  0.0082
28954W        W71867  26.223  27.068  20.040 -0.0064  0.0158  0.1442
28955W        W71868   1.851  27.367  26.310  0.0217 -0.0538 -0.0703
28956W        W71869  33.040  33.774  27.249 -0.0345  0.1589  0.0601
28957W        W71870  32.433  32.923   1.394 -0.1796  0.1271  0.4483
28958W        W71871  15.248  34.027   0.378  0.1978 -0.0353  0.0010
28959W        W71872  29.481  33.132  18.762 -0.0617 -0.0247  0.2356
28960W        W71873  31.467  29.280   2.553 -0.0846 -0.2790  0.0692
28961W        W71874  17.023   3.203  16.673  0.0250  0.1918  0.0678
28962W        W71875  30.611   3.806   1.692 -0.3307 -0.0482  0.3739
28963W        W71876  31.576  30.595   0.874 -0.0576 -0.2222 -0.1185
28964W        W71877  34.391  17.880   4.331 -0.0158  0.1602  0.2486
28965W        W71878  18.915  21.447  25.930  0.3422  0.1523  0.0798
28966W        W71879  20.758  33.887   5.814 -0.0478  0.0731  0.0229
28967W        W71880  24.383   0.499   0.341 -0.1567 -0.0456 -0.2870
28968W        W71881  27.132  29.745  27.942  0.0061  0.2982 -0.2963
28969W        W71882   6.462   0.410   6.319 -0.0854 -0.2926  0.2590
28970W        W71883  21.487   9.428   3.545  0.2310 -0.0951  0.0114
28971W        W71884  20.212  18.381  28.553  0.1285  0.0149 -0.1067
28972W        W71885  28.333  28.468  17.135  0.0563 -0.2197 -0.1321
28973W        W71886  18.506  31.007   9.463 -0.0308  0.0194  0.0241
28974W        W71887  31.044  33.821  20.139 -0.0987  0.0321  0.0803
28975W        W71888  28.627   1.808   3.830  0.2398 -0.1701 -0.3506
28976W        W71889  28.099  26.524  22.275  0.0136 -0.0108 -0.2195
28977W        W71890  29.802  29.329  27.841 -0.4726 -0.2314  0.0874
28978W        W71891  28.611  33.918   3.598 -0.2003  0.0069 -0.0761
28979W        W71892  32.721   0.007  10.040 -0.3541  0.0301  0.2760
28980W        W71893  28.611  26.503  22.173 -0.2615 -0.0534  0.2362
28981W        W71894  23.867  27.711   7.970  0.1594 -0.3180  0.2686
28982W        W71895  23.082  30.365  26.936 -0.0044  0.0862 -0.3523
28983W        W71896  28.050   2.184  19.314 -0.1209  0.1500  0.0002
28984W        W71897  24.924  19.782  29.326 -0.2341 -0.2314  0.1733
28985W        W71898  23.886  31.413  21.213 -0.0225  0.1180 -0.1955
28986W        W71899  30.269   8.704  21.487  0.0936  0.2460 -0.1715
28987W        W71900  10.110  29.834   4.418 -0.0532  0.0307  0.2395
28988W        W71901   7.006  22.291  29.497  0.0951 -0.0895 -0.2698
28989W        W71902  21.550  33.061  25.994 -0.0355  0.0405 -0.0638
28990W        W71903  28.731  23.769   1.832  0.0997  0.1024 -0.2500
28991W        W71904  27.384   0.067   6.013  0.4056 -0.3669  0.3979
28992W        W71905  26.802  21.427   3.390 -0.1645 -0.0295 -0.0197
28993W        W71906  28.705  33.224   4.183 -0.1107  0.2763 -0.2479
28994W        W71907  14.483   2.276  29.547  0.1012 -0.0195  0.1457
28995W        W71908  19.989   8.590  26.732  0.0894 -0.1364  0.0702
28996W        W71909   3.928  19.002  29.519  0.1104  0.0563 -0.1319
28997W        W71910  27.183  27.955  27.963 -0.3183 -0.0281 -0.0829
28998W        W71911  24.337  24.793   1.683  0.1091 -0.0329  0.2656
28999W        W71912  24.669  31.441   8.259  0.0846  0.2027 -0.0420
29000W        W71913   4.466  31.097   4.563 -0.1480 -0.0075 -0.2305
29001W        W71914   5.785   5.351  11.897  0.0634  0.2396  0.0606
29002W        W71915  19.508  21.462   1.922 -0.2285  0.2454 -0.2624
29003W        W71916  26.512  21.829  24.514  0.0068  0.1006  0.0022
29004W        W71917  27.488  29.775   6.937 -0.0101 -0.1709  0.1870
29005W        W71918  31.502   0.932  24.237  0.0485 -0.0723 -0.2300
29006W        W71919  20.906  32.906   5.075 -0.1040 -0.0481 -0.1043
29007W        W71920   3.531   4.672   0.796  0.2356 -0.4106  0.0647
29008W        W71921  33.069   6.822  25.364 -0.0395  0.1664 -0.0608
29009W        W71922   0.240  30.543   5.161  0.0685 -0.0650 -0.2707
29010W        W71923  28.138  23.748   5.819  0.0440  0.0323  0.1516
29011W        W71924  34.252  27.349  16.479 -0.0937  0.1360 -0.1372
29012W        W71925   1.438  33.071   2.899  0.3511 -0.4577  0.2194
29013W        W71926  29.262  26.619   8.224  0.2443 -0.2580 -0.2538
29014W        W71927  17.015   0.062   0.057 -0.0781 -0.0013 -0.1285
29015W        W71928  25.197  17.095  20.233  0.1518  0.0341 -0.0865
29016W        W71929  20.771   4.907  28.269  0.3959 -0.4643  0.0987
29017W        W71930  26.105  29.478  27.895 -0.2069 -0.1756  0.0856
29018W        W71931  24.721  25.506  28.609 -0.2481  0.2519 -0.2528
29019W        W71932  16.101  22.678  25.889 -0.1771  0.2071  0.3866
29020W        W71933  20.245  28.847  21.273  0.0436 -0.1807  0.1495
29021W        W71934  12.911  28.882  29.644 -0.1833  0.0779 -0.3494
29022W        W71935  28.375  29.886  21.698 -0.1894  0.1677 -0.0985
29023W        W71936  30.027  30.726  24.878 -0.0919  0.2444  0.0987
29024W        W71937  26.410  34.492   6.994 -0.0489  0.0335  0.0662
29025W        W71938   0.745  27.739   4.145 -0.1934  0.1265  0.0842
29026W        W71939  32.131   4.644  27.015 -0.1093 -0.1477  0.0539
29027W        W71940  19.406  12.339  21.813 -0.0670  0.0734  0.1289
29028W        W71941   3.619  29.386  28.895  0.0032 -0.0896  0.3752
29029W        W71942   9.297  34.033  23.748  0.0899 -0.1409  0.2188
29030W        W71943  25.307   4.348  28.631 -0.4918 -0.2037 -0.2208
29031W        W71944   3.563  26.567   0.048  0.1114 -0.0167 -0.0999
29032W        W71945  34.325  33.976  23.517  0.0847 -0.2267  0.1092
29033W        W71946  33.168  32.788   8.561 -0.2694  0.2364 -0.2051
29034W        W71947  27.538  33.332  26.505 -0.0162  0.0800  0.0847
29035W        W71948  24.532  31.900  28.550  0.1396 -0.1160  0.3858
29036W        W71949  25.317  23.334  25.764  0.1009 -0.1738 -0.1218
29037W        W71950  19.834  31.629  24.869 -0.0322  0.0331  0.2130
29038W        W71951  29.605  32.576   0.002  0.0940 -0.0172 -0.1261
29039W        W71952  13.474  26.240  24.977  0.1533  0.1537  0.1419
29040W        W71953  33.185   4.514  29.451 -0.1684  0.1422  0.4000
29041W        W71954   1.634   3.949   2.762  0.0373 -0.1942 -0.0316
29042W        W71955  28.841   4.183  21.977 -0.1966  0.4009 -0.0931
29043W        W71956  25.859   3.768  20.309  0.1309 -0.0529 -0.0563
29044W        W71957  20.841  32.831  29.543 -0.0569 -0.2382  0.1325
29045W        W71958  24.843  30.872  29.106 -0.2411  0.1583 -0.2382
29046W        W71959  32.380  22.953  20.674 -0.1160  0.1271 -0.0697
29047W        W71960  21.374  32.043  21.893  0.1685  0.1656 -0.2086
29048W        W71961  34.491   0.743   6.265  0.1661 -0.2283  0.3958
29049W        W71962  28.175  32.944   3.498 -0.0697 -0.2682 -0.2377
29050W        W71963  22.068  32.751  25.890  0.4307 -0.0872  0.0023
29051W        W71964  22.860   0.566   1.315 -0.3152  0.1988 -0.2775
29052W        W71965  21.979  25.722  28.792  0.1710 -0.0377 -0.2176
29053W        W71966  21.329  34.362  24.041 -0.2865 -0.0957  0.1414
29054W        W71967  20.982  20.596  16.400  0.1492  0.3406 -0.3272
29055W        W71968   0.106   4.646   6.392 -0.0506 -0.3832 -0.2986
29056W        W71969  21.067  22.526   4.389  0.2675 -0.0119  0.0230
29057W        W71970  28.945  33.419  24.757  0.1436 -0.0485  0.1195
29058W        W71971  26.383  14.584  21.740  0.1583 -0.2788 -0.0654
29059W        W71972   4.735  33.206   2.111  0.0606 -0.0646  0.0038
29060W        W71973  16.129  27.811  17.259  0.1287  0.0258 -0.2115
29061W        W71974  32.800  15.047  25.242  0.1641  0.0631 -0.1145
29062W        W71975  19.485  33.977  19.151 -0.1798  0.2656  0.1986
29063W        W71976   0.942  26.600   0.609  0.1304 -0.3149 -0.0587
29064W        W71977  16.007  26.606   0.612  0.1121 -0.3884 -0.2549
29065W        W71978  20.515  21.831  23.584 -0.2974 -0.2995 -0.1194
29066W        W71979  31.256  29.814   2.556  0.3619  0.0616  0.2404
29067W        W71980   0.180  25.786   8.226 -0.0478 -0.0318  0.1239
29068W        W71981  33.234  17.398  23.218  0.0077 -0.0120  0.1649
29069W        W71982  28.874  23.124   2.537  0.1051  0.0482  0.0504
29070W        W71983  17.294  27.452  29.334 -0.0243  0.0026  0.0019
29071W        W71984  28.451  27.661  26.190  0.1581 -0.1288 -0.0786
29072W        W71985  26.475  29.469  23.713 -0.3428 -0.0581 -0.0197
29073W        W71986  21.617  22.396  20.220  0.0094 -0.1457 -0.0360
29074W        W71987  26.809  26.100  26.285  0.2217  0.0049 -0.0756
29075W        W71988  25.668  28.583   0.353 -0.2743  0.2374  0.0117
29076W        W71989  23.009   2.351  15.076  0.1892 -0.1289 -0.1605
29077W        W71990  26.634   0.613   4.577 -0.1531 -0.1571 -0.1446
29078W        W71991   0.148  34.197  29.275 -0.0897  0.1922  0.2574
29079W        W71992   5.831   4.504  27.752 -0.2288 -0.3036 -0.0524
29080W        W71993  34.122  28.577  26.330 -0.0380 -0.0933  0.0608
29081W        W71994  27.819   3.674  24.470 -0.2045 -0.2686 -0.1827
29082W        W71995   0.850  32.304  24.589 -0.1686 -0.0391 -0.1839
29083W        W71996  18.302   4.918  29.140  0.0677  0.0111  0.0147
29084W        W71997  30.219  30.229  24.535  0.0337  0.0177 -0.1582
29085W        W71998  26.956   5.406  27.882  0.0340  0.0920 -0.1404
29086W        W71999   0.122  23.141  25.566 -0.2021 -0.0200 -0.1845
29087W        W72000  25.597   4.417   1.123  0.2214  0.0485 -0.0537
29088W        W72001   4.173  30.609   2.462 -0.1593 -0.1523 -0.2918
29089W        W72002   9.823  27.687  24.381  0.2400  0.1751  0.0940
29090W        W72003  31.992  23.303  29.363  0.0479 -0.0480  0.3558
29091W        W72004  24.145  31.462   2.455  0.4418  0.1680 -0.2336
29092W        W72005   6.935  33.819  17.675 -0.1099 -0.3198 -0.2520
29093W        W72006  26.135  28.577   6.945 -0.1239 -0.1864 -0.0944
29094W        W72007  32.643  29.240   3.451 -0.2188 -0.0279 -0.1645
29095W        W72008  30.543  31.662  21.445 -0.0068 -0.2262  0.1066
29096W        W72009  25.437  21.677  22.753  0.2821 -0.2660  0.0631
29097W        W72010  27.076  27.978  21.706  0.3747  0.0964  0.2812
29098W        W72011  22.007   1.390  29.756  0.3534  0.2005  0.1762
29099W        W72012  27.489  21.463  25.216  0.0797 -0.4391 -0.1941
29100W        W72013  22.423  24.934  23.636  0.0360  0.1075  0.2688
29101W        W72014  20.869  23.904  26.934 -0.1869 -0.0927 -0.0391
29102W        W72015  24.432  15.893  22.871  0.0172  0.0903  0.3851
29103W        W72016  22.166  24.046   5.588  0.0369 -0.2048 -0.1902
29104W        W72017  32.475  33.492  17.126 -0.1506  0.1051 -0.2428
29105W        W72018  32.629   7.723   3.939 -0.0406  0.0439 -0.1906
29106W        W72019  32.739  32.531   2.232  0.1032 -0.1554  0.3159
29107W        W72020  23.145   5.557  28.485 -0.3403 -0.0939  0.0710
29108W        W72021  28.520  33.108   0.486  0.0688 -0.0003 -0.2389
29109W        W72022  27.774  29.630   4.003  0.0957  0.1993 -0.0705
29110W        W72023  17.915  30.449   5.126 -0.0181  0.0431 -0.1141
29111W        W72024   1.469  21.087  21.439 -0.0667  0.1235  0.2765
29112W        W72025  31.154  31.508  25.113  0.0860 -0.1521 -0.0253
29113W        W72026  31.602   4.788   4.189 -0.1032  0.0014  0.0999
29114W        W72027  29.145   2.431   3.185 -0.0153  0.4337 -0.0970
29115W        W72028  17.268  17.821  24.506  0.1408 -0.4319  0.0217
29116W        W72029  31.108  20.585  18.760  0.1237  0.0395 -0.1202
29117W        W72030  31.778   2.193   6.478  0.0688 -0.1194 -0.2160
29118W        W72031  31.938   6.439   5.886  0.1888 -0.1256  0.0034
29119W        W72032  29.921  23.178  16.512  0.1876  0.0172  0.3910
29120W        W72033  22.810  22.062  21.460 -0.1976 -0.2487 -0.1194
29121W        W72034  22.177   8.404  23.574 -0.0447 -0.3198 -0.1973
29122W        W72035  24.454  28.110  23.728 -0.1343 -0.0132  0.0989
29123W        W72036  18.346  33.329  29.170  0.1678 -0.1994 -0.0731
29124W        W72037  28.974  33.912  22.257  0.0658  0.2649  0.1967
29125W        W72038  23.992   0.752   9.385 -0.1332  0.4166  0.2738
29126W        W72039  26.507  25.689  26.006 -0.1031 -0.0391  0.2013
29127W        W72040  23.406   1.226  23.192  0.1992 -0.0158 -0.0363
29128W        W72041  22.605  28.937  25.038 -0.0543  0.0160  0.0814
29129W        W72042  20.447  29.089  16.543  0.2108 -0.0544 -0.3600
29130W        W72043  20.129  30.810   1.030  0.0850 -0.2032 -0.1342
29131W        W72044   5.119  15.635   1.234  0.0044 -0.1504  0.0593
29132W        W72045  31.788  11.735   1.755 -0.0393 -0.0319  0.3283
29133W        W72046  33.052  22.472   7.037  0.1594  0.0992  0.2169
29134W        W72047  31.872  25.432   1.741 -0.3348 -0.2359 -0.3832
29135W        W72048  21.471   3.338   7.661 -0.0941  0.0032  0.1556
29136W        W72049  12.731  24.762   3.630  0.0273  0.3354 -0.0975
29137W        W72050  28.983   2.660   4.152 -0.1099 -0.0129  0.2623
29138W        W72051  28.952  28.661  25.637  0.0333 -0.0574  0.1478
29139W        W72052  16.425  27.288   2.999 -0.0768 -0.2102 -0.0327
29140W        W72053  29.759   0.456  23.951 -0.1530  0.0808  0.0616
29141W        W72054  22.832  30.752   7.054 -0.2250  0.0328 -0.1288
29142W        W72055  22.621  28.558  24.611  0.0819  0.2112 -0.3658
29143W        W72056  30.660   7.057  28.056  0.1367  0.1544 -0.2822
29144W        W72057  31.835   7.406   7.699  0.1526  0.2332 -0.0239
29145W        W72058  27.484   5.283   4.144  0.2654  0.0259 -0.0525
29146W        W72059  31.081  34.339   3.089 -0.2878 -0.0026  0.0016
29147W        W72060  32.810  25.380   5.185 -0.1589  0.2794 -0.0880
29148W        W72061  33.081   2.936  26.429 -0.1253 -0.1164  0.0505
29149W        W72062  25.356  28.128  23.519 -0.1002  0.3053 -0.1922
29150W        W72063  13.203   3.244   1.358  0.2752  0.0264 -0.0630
29151W        W72064  22.946  20.284  28.320  0.0741 -0.1289  0.1535
29152W        W72065   1.421  23.490   2.432 -0.0126  0.0180  0.0390
29153W        W72066  28.055  28.587   8.536 -0.0615  0.1493  0.0372
29154W        W72067  24.732  32.227   8.642  0.1431  0.0715  0.0051
29155W        W72068  31.905  31.189  26.257 -0.4007 -0.1018  0.2022
29156W        W72069  15.638  22.284  20.242 -0.0341 -0.1153  0.0937
29157W        W72070  34.164   8.767   1.584  0.0141 -0.0733  0.2198
29158W        W72071   1.810   1.472   7.805 -0.0546 -0.1367 -0.0715
29159W        W72072  24.211   4.500   0.671  0.0541 -0.1400  0.1370
29160W        W72073  25.578   7.454   4.922 -0.0522 -0.2986 -0.1111
29161W        W72074  21.015  27.910  28.616 -0.0691 -0.1278 -0.2462
29162W        W72075   1.453  28.649  21.030 -0.0580  0.2598  0.2565
29163W        W72076  24.515  20.052  29.503 -0.1091 -0.0498  0.0329
29164W        W72077  17.533   0.316   1.576  0.1756 -0.0314 -0.1640
29165W        W72078  12.916  22.218  21.103 -0.2707  0.1301 -0.1484
29166W        W72079   1.720  33.806  28.347 -0.0010  0.1188  0.0403
29167W        W72080  31.081  33.890   0.553  0.0330  0.3822 -0.1648
29168W        W72081  28.545  28.246  27.951 -0.1051  0.1099 -0.1214
29169W        W72082  30.418   4.201   5.204  0.0054  0.0823  0.0470
29170W        W72083  24.227  28.116  28.602 -0.0212 -0.1834  0.2144
29171W        W72084  25.736   2.044  18.119  0.0660 -0.3633  0.0634
29172W        W72085   0.039  33.870   2.407 -0.0683 -0.0281 -0.1472
29173W        W72086  28.280  26.314  24.262  0.1286 -0.0373 -0.3684
29174W        W72087  30.763  24.137  25.891 -0.0807 -0.2245  0.3952
29175W        W72088  18.521   4.344   0.743 -0.0346  0.2707 -0.3429
29176W        W72089  13.422  28.155  23.289 -0.2204 -0.2928  0.1620
29177W        W72090  24.467  33.615   0.350 -0.0970 -0.2193  0.0823
29178W        W72091  30.189   0.017  25.358 -0.1713  0.0463 -0.0428
29179W        W72092  24.866  32.665  26.637  0.3326  0.0180  0.1380
29180W        W72093  29.597  24.823  20.510  0.0525 -0.1812  0.1910
29181W        W72094  21.393  17.935  26.832  0.2104  0.0738 -0.1297
29182W        W72095  22.700  24.639  24.518  0.0215 -0.0130  0.2353
29183W        W72096  22.935  31.819  25.042  0.1746  0.1600  0.0879
29184W        W72097  20.515  22.183  24.611  0.1287 -0.2442 -0.1369
29185W        W72098  27.798  31.544   1.902  0.0535  0.1244  0.0123
29186W        W72099  20.362   9.055   1.850 -0.0852 -0.0153  0.3350
29187W        W72100  26.423   2.313  24.479 -0.0090 -0.0562  0.1942
29188W        W72101  32.209   1.392   7.434  0.0675  0.0960  0.0193
29189W        W72102  18.753  18.877   5.170 -0.3978  0.4766 -0.1250
29190W        W72103  27.479  32.657  29.080 -0.0528  0.0383 -0.0127
29191W        W72104  18.427  26.453  26.284 -0.1313 -0.1670 -0.0121
29192W        W72105  16.353  22.193  21.861 -0.1351 -0.0401  0.1713
29193W        W72106  12.351  26.784  27.066 -0.2739  0.1981  0.3032
29194W        W72107  32.161   1.281  16.368  0.0174 -0.0162  0.2697
29195W        W72108  33.249  21.808  23.989 -0.0927  0.2235 -0.0158
29196W        W72109  29.215   8.309   1.087  0.2495 -0.1482 -0.2356
29197W        W72110  23.808  28.976  13.757  0.1125 -0.3902 -0.0730
29198W        W72111   2.805   1.419  28.789  0.4284 -0.0611  0.1433
29199W        W72112  23.576  24.110  28.752  0.2584  0.2490 -0.0731
29200W        W72113  30.926  27.716  16.001 -0.0952  0.0434  0.0254
29201W        W72114  20.167  30.127  25.737 -0.1385 -0.2097  0.1190
29202W        W72115  23.231  23.793  24.819 -0.1714  0.4173  0.0254
29203W        W72116  32.712  32.622   0.113  0.1275 -0.0458  0.6205
29204W        W72117  30.561  21.817  23.508  0.3645  0.2452  0.0345
29205W        W72118  24.109  28.632  23.506 -0.0799  0.1894 -0.2851
29206W        W72119  23.219   0.982   4.369  0.1962 -0.0393 -0.3214
29207W        W72120  32.305  31.873  14.929  0.2804 -0.1801  0.1217
29208W        W72121  27.190   2.730  23.592 -0.2614  0.0776 -0.4738
29209W        W72122  25.653   3.757  24.730 -0.0959  0.2379  0.0548
29210W        W72123  30.495  23.027  25.768  0.1709 -0.1775  0.1846
29211W        W72124  27.067  32.561   3.725  0.0456  0.0614 -0.1642
29212W        W72125  23.612   1.130   7.842  0.1752  0.0315 -0.1711
29213W        W72126  22.749  26.130  25.007 -0.0951 -0.1582  0.1645
29214W        W72127   8.262  23.965  27.632 -0.0585 -0.4113  0.0694
29215W        W72128  33.608  31.025   9.024  0.0247 -0.1024  0.2568
29216W        W72129   7.539   5.653   2.250  0.2396  0.1136  0.0787
29217W        W72130  26.346   6.939   1.523  0.1038 -0.0660  0.0228
29218W        W72131  23.847  34.316  26.560 -0.0672  0.1958  0.2683
29219W        W72132   1.118  22.676  27.657 -0.0946  0.0532  0.5518
29220W        W72133  18.057  33.421  23.988 -0.3729 -0.0057  0.0501
29221W        W72134  32.028  33.929  23.747  0.1477  0.0171  0.0336
29222W        W72135  22.733  29.985  25.883 -0.0796  0.3686 -0.0566
29223W        W72136  23.053  29.749  28.650  0.2303  0.1698 -0.0820
29224W        W72137  22.619   3.885  27.450  0.1870  0.2713  0.1346
29225W        W72138   7.669  26.718  19.181 -0.1338  0.0788  0.2595
29226W        W72139  34.234  30.017  22.832  0.0723 -0.1543  0.0522
29227W        W72140  21.527  27.884   5.216 -0.2206 -0.0020  0.2651
29228W        W72141  26.375   3.186  14.330  0.2249  0.1856  0.1476
29229W        W72142  28.613   3.554   4.633 -0.1691 -0.0834 -0.1042
29230W        W72143  13.642  34.478  28.368  0.0651 -0.0881 -0.2457
29231W        W72144  21.247  21.707   1.409  0.1569 -0.2864 -0.2945
29232W        W72145   5.228   1.639   0.783 -0.1629 -0.0697  0.1621
29233W        W72146  27.592  26.171   8.804 -0.1849 -0.0477 -0.1559
29234W        W72147  32.284   0.409   1.058 -0.1315 -0.3225  0.1004
29235W        W72148  33.604  32.163  24.084  0.1057  0.0697  0.0298
29236W        W72149  16.671   6.874   0.883  0.0567 -0.1667  0.2086
29237W        W72150  19.717   2.125   3.925 -0.1215 -0.0611 -0.0787
29238W        W72151  26.213  27.800  26.051 -0.1719  0.1590 -0.0705
29239W        W72152  15.119  19.179   6.167  0.2243 -0.2656 -0.0572
29240W        W72153  25.938  24.387  25.196 -0.4544 -0.2444  0.3459
29241W        W72154  33.144  32.970   6.145 -0.6799  0.2144 -0.2621
29242W        W72155  19.144  22.996  21.224  0.0020  0.2139  0.4220
29243W        W72156  26.302  34.195  18.631  0.0346  0.1361  0.0044
29244W        W72157  29.062   2.086   5.438 -0.1779 -0.1758 -0.3365
29245W        W72158  30.853  24.768  24.798 -0.0650  0.0416  0.0759
29246W        W72159  32.468   2.292  29.614 -0.2727  0.0485  0.2349
29247W        W72160  17.739  30.722   2.301 -0.0217 -0.1309 -0.2508
29248W        W72161  21.589  34.346   4.742 -0.0929  0.1620  0.0645
29249W        W72162  31.186  29.063   9.981  0.0237 -0.3694 -0.4784
29250W        W72163  19.930  23.268  26.500  0.3160 -0.1646 -0.0222
29251W        W72164  23.114   5.315   4.029  0.0816  0.0308 -0.0386
29252W        W72165  15.768   8.102  25.845 -0.0109  0.1646  0.0871
29253W        W72166  26.926  20.838  26.862 -0.1864 -0.1428  0.1322
29254W        W72167   0.654   6.644  19.765  0.1912 -0.2809  0.1020
29255W        W72168   3.223   7.867  26.172 -0.2492  0.0299 -0.1691
29256W        W72169  18.656  28.076  16.374 -0.2804  0.2143  0.0174
29257W        W72170  30.342   1.882  17.025  0.1047  0.0276 -0.1272
29258W        W72171  30.534  33.436  22.940  0.1114  0.1708 -0.0559
29259W        W72172  28.485   4.347   2.940 -0.0346 -0.2422  0.1300
29260W        W72173  32.241   1.136  27.403  0.0907  0.0507 -0.3027
29261W        W72174  26.341  29.108  22.239  0.0266  0.1381 -0.1426
29262W        W72175  25.600  21.637   1.702 -0.0156  0.2297 -0.0277
29263W        W72176  32.872  30.297  28.674  0.2020 -0.1038 -0.1800
29264W        W72177  32.287  30.529   1.669 -0.0020 -0.1458  0.1486
29265W        W72178  30.350   9.808   3.100  0.1351  0.0884  0.0706
29266W        W72179  20.446  27.165  25.016 -0.1777  0.2519 -0.2836
29267W        W72180  27.138  33.305   4.601 -0.0126 -0.0915 -0.1965
29268W        W72181  13.942  32.911   6.245 -0.3573 -0.1247  0.1700
29269W        W72182  23.742  24.268  24.202 -0.0263 -0.0608 -0.0526
29270W        W72183  11.438  24.643   1.694  0.2425 -0.0096 -0.1480
29271W        W72184  28.634   0.033  25.278  0.0326 -0.1214  0.1624
29272W        W72185  28.083  30.269   7.349 -0.0924  0.1247  0.0021
29273W        W72186  16.904   3.788   3.778 -0.3168  0.0724 -0.1158
29274W        W72187  29.836  27.764   1.814 -0.3005 -0.1331 -0.0101
29275W        W72188  27.616   6.612   4.067 -0.3581 -0.0471 -0.1932
29276W        W72189  27.616  33.599  10.026 -0.2521  0.0685 -0.1684
29277W        W72190  16.415   0.316  29.532 -0.0717 -0.2149  0.1302
29278W        W72191  30.934  34.398  27.214  0.0278 -0.2172  0.1141
29279W        W72192   1.247  27.079  29.583  0.2410 -0.0464  0.0787
29280W        W72193  25.055  33.993  25.745 -0.0691 -0.0557  0.0245
29281W        W72194  24.718  25.997  25.846  0.0394 -0.1154  0.1455
29282W        W72195  20.193  25.315  24.030  0.0431  0.0729 -0.0635
29283W        W72196   0.514  29.995  23.580  0.1231  0.2632 -0.1196
29284W        W72197   3.607  22.492  22.145 -0.2496  0.1184  0.2301
29285W        W72198  30.612  21.783  28.417 -0.0559 -0.1407 -0.0596
29286W        W72199  24.057   5.159   1.215 -0.1155 -0.0021  0.0581
29287W        W72200  25.068  27.242  22.455  0.3481  0.1538  0.0017
29288W        W72201  26.005  28.463   0.650  0.2901  0.4585  0.0699
29289W        W72202  14.659  25.639  15.403 -0.0140  0.0934  0.4015
29290W        W72203  30.375  25.551  27.335 -0.2697 -0.0486  0.0946
29291W        W72204  19.965  10.734   5.299 -0.0285 -0.2631 -0.0495
29292W        W72205   2.676  24.619  27.777 -0.0425 -0.0697 -0.2092
29293W        W72206  20.063   7.981   0.900  0.1793 -0.0260 -0.3027
29294W        W72207  25.369   2.756  24.245 -0.2478 -0.0180  0.0892
29295W        W72208  21.054  29.602  27.277 -0.0823 -0.0962 -0.0600
29296W        W72209  28.974   6.103   2.725  0.2686 -0.1484  0.0792
29297W        W72210   9.700  29.216  27.178 -0.2095  0.2773  0.0712
29298W        W72211  22.632  29.252   6.101 -0.2631 -0.2297  0.0058
29299W        W72212  31.801   6.024  28.606 -0.3209 -0.1479  0.1562
29300W        W72213  21.985  23.903  22.657  0.0621  0.0260  0.1528
29301W        W72214   1.556  21.742  17.126  0.1040 -0.0657  0.2902
29302W        W72215  25.004  17.467  24.503  0.0633  0.0325 -0.2913
29303W        W72216   6.924  28.063  28.658  0.3084 -0.4194  0.0650
29304W        W72217  24.621  30.649  26.681  0.1828  0.1668  0.1033
29305W        W72218  19.436  21.790  27.598 -0.1657  0.0178 -0.2118
29306W        W72219  31.864  32.327   0.228 -0.2308 -0.0501 -0.1637
29307W        W72220  30.449  30.548  29.476 -0.0648  0.3079  0.0961
29308W        W72221  28.112  27.990   4.342 -0.1735  0.1327  0.0206
29309W        W72222  29.442  29.353   3.916 -0.0210 -0.3461  0.2947
29310W        W72223  27.936  32.031   3.970  0.2479  0.2072  0.1253
29311W        W72224  23.493   7.461   0.758  0.2018  0.2291 -0.1365
29312W        W72225   3.815   2.090  29.482  0.3282 -0.2100 -0.1465
29313W        W72226   6.681  32.485  29.418 -0.0143 -0.3140  0.1056
29314W        W72227  28.118   4.649  29.062  0.2908 -0.3871  0.1832
29315W        W72228  33.202  27.326  29.749 -0.0844  0.0947 -0.0725
29316W        W72229  31.148  27.934  27.528  0.2501 -0.0051  0.3509
29317W        W72230  25.037  33.616  17.314 -0.0034 -0.4286  0.0498
29318W        W72231  20.381  33.911  26.356 -0.1143 -0.1933  0.0154
29319W        W72232  31.321  32.948   3.380  0.0062  0.1488  0.2783
29320W        W72233  23.193  25.671   1.079 -0.1417  0.0475  0.3304
29321W        W72234  26.368   2.520   6.820 -0.1656 -0.1818 -0.0543
29322W        W72235  23.661  32.139  28.019  0.2917  0.0653 -0.1832
29323W        W72236  31.544  30.721  23.948  0.0014  0.0170  0.2331
29324W        W72237   1.108  29.451   5.304  0.1965  0.2297  0.2171
29325W        W72238  21.894  30.494   1.139 -0.1520 -0.0754  0.0711
29326W        W72239  26.113  29.638   6.004 -0.1596  0.0460  0.3139
29327W        W72240   0.993  19.308   2.124 -0.4766 -0.1410 -0.2876
29328W        W72241  20.455  19.202  21.573  0.1510 -0.1218  0.4950
29329W        W72242  27.466  21.132   6.131  0.0169 -0.2782  0.0889
29330W        W72243  19.240  33.334  29.066  0.0792 -0.1344 -0.0376
29331W        W72244  29.628   3.540   8.851  0.0442 -0.1602 -0.0636
29332W        W72245   8.714  17.639   1.433 -0.1328  0.0709 -0.1520
29333W        W72246  24.005  20.144  27.321 -0.1430  0.3178  0.2573
29334W        W72247   1.461   2.999   4.826 -0.0236 -0.0548 -0.0934
29335W        W72248  33.067  34.324   4.215 -0.0124 -0.2772 -0.0027
29336W        W72249  32.448  30.793   2.978 -0.1195 -0.0479 -0.1866
29337W        W72250   4.118   1.825  26.651  0.0024  0.3656 -0.0735
29338W        W72251  28.106   6.700  26.118  0.1648  0.0100 -0.2689
29339W        W72252  29.985   3.514  24.380  0.0479 -0.0304 -0.0140
29340W        W72253  17.186  29.053  21.070  0.1169  0.1489 -0.5291
29341W        W72254  28.378   6.761   3.062  0.1614  0.3667 -0.1842
29342W        W72255  22.659  25.742  27.056  0.1840  0.0624 -0.1427
29343W        W72256  25.582  16.818  21.819  0.3250 -0.5004  0.0848
29344W        W72257  30.743   2.442  23.440 -0.3192 -0.0607 -0.2370
29345W        W72258  18.107  33.665   5.881 -0.0636  0.0115 -0.0178
29346W        W72259  34.360  25.303   1.591 -0.1615 -0.0321 -0.1099
29347W        W72260  26.750   6.365  28.526  0.0471  0.1477  0.0740
29348W        W72261  25.398  25.935  28.862 -0.0510 -0.1683  0.0254
29349W        W72262  22.771   7.736  26.052  0.2949 -0.1627 -0.0895
29350W        W72263  28.657  23.946   4.285  0.0519  0.1712  0.1217
29351W        W72264  28.618  32.579  16.339 -0.0583  0.0988  0.2339
29352W        W72265  25.112  10.021   7.461 -0.2571 -0.2232 -0.1159
29353W        W72266   6.793  29.292   0.183  0.0018 -0.5076  0.1787
29354W        W72267  19.996  27.629  27.155  0.1487  0.2376  0.2342
29355W        W72268  28.455  34.129  15.730  0.0564  0.0542  0.3126
29356W        W72269  29.879   1.157  18.456 -0.2534 -0.2559 -0.0302
29357W        W72270  22.449  29.014  27.737 -0.1043 -0.2227  0.0277
29358W        W72271  33.869  24.638  22.890 -0.1309 -0.3390 -0.3613
29359W        W72272  21.525   3.303  15.004  0.3679  0.2799 -0.1806
29360W        W72273   1.856   2.926  26.495  0.4212  0.0088 -0.1886
29361W        W72274  18.844  33.316  21.227  0.1627  0.0189  0.2016
29362W        W72275  22.580   2.088  15.202  0.0244  0.2873 -0.1798
29363W        W72276   2.442   5.414  23.755  0.0215 -0.1566 -0.1126
29364W        W72277  22.605  27.103  13.407 -0.1696  0.0905 -0.0221
29365W        W72278   0.578  14.327  14.173 -0.0521 -0.1345 -0.0609
29366W        W72279  30.400  32.630  15.476 -0.2127  0.4491  0.0618
29367W        W72280  23.701  25.751  14.539 -0.0858 -0.0786  0.0572
29368W        W72281   3.516  26.818  19.426  0.1890  0.1644 -0.2291
29369W        W72282   2.648   0.992  17.846  0.0930  0.1203  0.0623
29370W        W72283  28.321   0.311  23.185  0.0181 -0.1288 -0.3181
29371W        W72284  28.303   2.822  21.192 -0.2458  0.0469 -0.0700
29372W        W72285  28.638   0.146  26.849  0.0233 -0.1729 -0.0236
29373W        W72286  23.245   1.165  14.126 -0.1170 -0.4346  0.0685
29374W        W72287  30.502  33.624  24.009 -0.0288  0.1833  0.4718
29375W        W72288  27.056  27.259  13.394 -0.1314 -0.0084  0.1725
29376W        W72289  20.255  32.419  18.191  0.0720 -0.2558 -0.1063
29377W        W72290  26.648   9.484  25.544  0.1444 -0.1552  0.1058
29378W        W72291  26.363  29.105  18.174  0.0064 -0.0002  0.0208
29379W        W72292  25.602   5.062  15.722  0.0554 -0.2885  0.0353
29380W        W72293  30.449   1.105  15.573 -0.0200  0.0742  0.1127
29381W        W72294  25.167  29.501  15.390  0.2599  0.0043  0.2954
29382W        W72295  22.367  27.528  17.765 -0.0783  0.0741  0.4078
29383W        W72296  25.152   0.501  17.947  0.0793  0.0889  0.0237
29384W        W72297  31.147   6.851  18.691  0.1381  0.1135  0.0047
29385W        W72298   3.462   7.260  19.134  0.1480  0.2014 -0.1106
29386W        W72299  26.785   2.829  16.851  0.1836 -0.0271 -0.0198
29387W        W72300  28.167  29.028  13.937 -0.2709 -0.2041 -0.0069
29388W        W72301  33.475  33.192  25.804 -0.1465 -0.3352  0.0425
29389W        W72302   6.815  34.386  20.646  0.2170  0.1742 -0.0085
29390W        W72303  32.045  32.582  19.289 -0.1883  0.0244  0.2739
29391W        W72304  23.068  27.018  21.204  0.1491  0.1730  0.3308
29392W        W72305  15.152  30.655  28.259 -0.0925 -0.0619 -0.1354
29393W        W72306  26.463  30.002  21.605 -0.0340  0.0289  0.0682
29394W        W72307  23.967  27.644  25.488  0.0721 -0.3709 -0.1789
29395W        W72308  24.806  30.505  18.962 -0.2657 -0.0500  0.1631
29396W        W72309   4.197  25.750  19.178  0.0012 -0.3813  0.0379
29397W        W72310  30.295  23.105  25.122 -0.2962 -0.1437 -0.1714
29398W        W72311  32.725  31.482  26.280  0.1327 -0.0392 -0.1123
29399W        W72312   2.413  30.847  16.351 -0.1498 -0.2011 -0.0140
29400W        W72313  19.914   2.449  15.219 -0.1849 -0.0317  0.0887
29401W        W72314  24.450   6.658  14.882  0.0667 -0.2896 -0.0612
29402W        W72315  25.019  25.842  16.105  0.1626 -0.1154  0.0352
29403W        W72316  28.256   6.480  17.988 -0.4212  0.3298  0.1249
29404W        W72317   3.639  33.547  15.847 -0.0923  0.2893  0.1448
29405W        W72318  25.888   1.130  21.996  0.1477  0.0405  0.0482
29406W        W72319   0.886  25.008  21.330 -0.0857 -0.1380  0.0032
29407W        W72320  30.873  33.444  21.129  0.0247 -0.0713  0.1366
29408W        W72321  34.284  31.222  14.962 -0.2282 -0.1022 -0.0073
29409W        W72322  20.633  20.366  21.573  0.0268 -0.0089 -0.2613
29410W        W72323  18.738  33.605  17.151 -0.2363 -0.0987 -0.3160
29411W        W72324  25.711  26.374  14.420 -0.2052  0.0931  0.0916
29412W        W72325   1.320  28.151  20.928 -0.0453  0.0916 -0.2172
29413W        W72326  24.905   5.978  26.010 -0.3130 -0.2454 -0.0989
29414W        W72327  27.461   8.105  16.732 -0.1821 -0.2404 -0.1457
29415W        W72328  23.441  34.135  19.186 -0.1284  0.0790  0.3744
29416W        W72329  25.706   0.283   1.432  0.0497 -0.2500 -0.2882
29417W        W72330  16.870  29.971  24.089  0.1621 -0.1762 -0.0227
29418W        W72331  28.027  23.508  22.091  0.1140 -0.4637 -0.0937
29419W        W72332  23.775  14.437  16.784  0.3523  0.1653 -0.0397
29420W        W72333  26.961  31.920  21.638  0.1340  0.4764  0.1605
29421W        W72334  26.501   2.420  22.009 -0.0076  0.3518 -0.0159
29422W        W72335  30.266  34.431  23.263  0.1518 -0.3058  0.1047
29423W        W72336  27.347   3.896  15.084  0.2055 -0.1263  0.2144
29424W        W72337  26.209  29.496  15.894  0.2534 -0.0881 -0.0602
29425W        W72338  29.687  20.170  24.427 -0.1617 -0.1322 -0.0635
29426W        W72339  26.055   8.760  22.346  0.0187  0.1499 -0.0497
29427W        W72340  26.548   3.381  18.762 -0.0856  0.0810 -0.2139
29428W        W72341  23.412  31.235  25.981 -0.0196 -0.0131  0.2007
29429W        W72342   0.598  19.700  17.934  0.1967  0.0798  0.0332
29430W        W72343  24.813   5.691  16.008  0.0650 -0.0067 -0.5476
29431W        W72344   2.256  17.937  14.657  0.1924 -0.0400  0.0991
29432W        W72345  21.643  28.839  17.515  0.0346 -0.0366 -0.3150
29433W        W72346  32.473  32.231  25.724 -0.0794  0.2095 -0.0920
29434W        W72347  27.578   4.173  16.680  0.0795  0.0810 -0.1298
29435W        W72348  27.769   2.708  24.998 -0.1541  0.1219  0.0865
29436W        W72349  33.229  29.404  15.376 -0.5027 -0.0613 -0.0302
29437W        W72350  29.498  34.442  15.152  0.1407 -0.0574 -0.2072
29438W        W72351  32.215  26.450  19.940  0.1291  0.1080  0.0760
29439W        W72352  31.771  26.757  15.611  0.0372  0.0788 -0.1509
29440W        W72353  26.607   5.870  18.033  0.0908 -0.1121  0.2988
29441W        W72354  27.501   5.288  22.496 -0.2313  0.1908 -0.0447
29442W        W72355   4.909   2.538  18.418 -0.2232 -0.2771  0.1264
29443W        W72356   0.561  21.826  14.476  0.0885 -0.0935  0.0730
29444W        W72357  27.912  31.017  16.476 -0.4899  0.0378 -0.0050
29445W        W72358  25.540  33.078   1.572  0.0987 -0.0670 -0.1922
29446W        W72359  29.105  27.097  18.881 -0.0389  0.1383 -0.1768
29447W        W72360  26.768  11.388  15.514 -0.2057  0.0083 -0.1774
29448W        W72361  34.490  22.586  25.610  0.2770  0.0624 -0.0652
29449W        W72362  31.995  30.621  21.072 -0.0119 -0.0889 -0.1421
29450W        W72363  28.457   1.005  19.812  0.3123 -0.0600  0.0475
29451W        W72364  24.821  31.858  21.030  0.0243  0.2796  0.2566
29452W        W72365  28.231  24.779  14.055 -0.2150 -0.0123  0.2102
29453W        W72366  23.562  33.013  26.037  0.0452  0.0377 -0.0650
29454W        W72367  26.806  31.410  23.492  0.1037 -0.3554  0.1073
29455W        W72368  28.147  19.342  14.018 -0.0966  0.3347 -0.2174
29456W        W72369   2.903   8.237  28.680  0.0948  0.0990 -0.0281
29457W        W72370  30.106   0.857  14.566 -0.0027 -0.0043 -0.2054
29458W        W72371  18.095   1.576  18.990  0.0497  0.1147 -0.1888
29459W        W72372  22.143  30.495  13.264  0.1277  0.0758  0.1905
29460W        W72373  30.094  32.442  14.739 -0.0544 -0.1446 -0.0139
29461W        W72374  25.051   2.340  15.267  0.1692 -0.1054 -0.0936
29462W        W72375  27.375   2.945  18.796 -0.0953 -0.0083  0.0607
29463W        W72376  20.048  34.436  15.738 -0.0183  0.1238 -0.0319
29464W        W72377  14.305  34.364  21.828 -0.2418  0.3134  0.2465
29465W        W72378  21.516   0.878   2.941  0.0205 -0.0049  0.1738
29466W        W72379  27.264  34.083  27.754  0.0006 -0.1100 -0.2590
29467W        W72380   0.120   8.867  21.054 -0.3376 -0.1267 -0.1257
29468W        W72381  34.296   1.191  16.808  0.1631 -0.1291 -0.1108
29469W        W72382  24.923  33.040  16.378  0.0568  0.0907  0.1548
29470W        W72383  31.841   0.922  16.116 -0.1486 -0.0191  0.0321
29471W        W72384  30.471  22.589  16.234  0.0596  0.2313 -0.2896
29472W        W72385  18.020   8.477  26.309 -0.0678 -0.0820  0.0028
29473W        W72386  24.736  11.440  23.377  0.0028 -0.2279 -0.1376
29474W        W72387  26.549  26.959  15.715 -0.0887 -0.2730 -0.1035
29475W        W72388  34.246  29.629  15.529 -0.0997 -0.1006 -0.2344
29476W        W72389  29.316   1.528  22.968 -0.1822  0.1881  0.1475
29477W        W72390  20.107  28.666  16.657 -0.0151  0.3755  0.0652
29478W        W72391   3.858  33.717  18.789 -0.0858 -0.1573  0.0768
29479W        W72392  24.428  30.951  26.203 -0.0501  0.3123 -0.0847
29480W        W72393  23.502   5.320  14.964 -0.1709 -0.0832  0.0555
29481W        W72394  27.164  27.622  14.097 -0.1881  0.0672  0.2240
29482W        W72395  29.483  29.217  16.031  0.2165 -0.3124  0.0161
29483W        W72396  33.455   0.241  17.975 -0.0330 -0.2724  0.1959
29484W        W72397  27.405   1.626  18.543 -0.0791 -0.0289 -0.3598
29485W        W72398  22.488   3.400  23.420 -0.1962 -0.0360  0.2546
29486W        W72399   3.724  29.200  14.593 -0.0902  0.2246  0.1003
29487W        W72400  24.878   6.102  16.438 -0.0024  0.1818  0.0078
29488W        W72401  26.669   6.177  22.381 -0.1300  0.0808  0.1059
29489W        W72402  26.929   3.356  16.160 -0.0582 -0.2918  0.0147
29490W        W72403  24.632  32.067  21.931 -0.4553  0.4113 -0.0607
29491W        W72404  23.215  31.946  23.524 -0.1569  0.0708  0.2816
29492W        W72405  29.692  27.574  19.611  0.2800  0.2180  0.0192
29493W        W72406  30.024   8.055   6.279  0.0152 -0.0562  0.0384
29494W        W72407  28.670   3.814  15.412 -0.1936  0.1560  0.0448
29495W        W72408  22.466  29.009  25.600 -0.2999 -0.0468  0.2502
29496W        W72409  28.323   1.413  19.540  0.1037 -0.0988  0.0262
29497W        W72410  28.163  30.054  15.097 -0.0461 -0.0001  0.0806
29498W        W72411  32.620  19.257  15.001  0.5300  0.0196 -0.1196
29499W        W72412  30.485   0.274  23.566 -0.1351  0.1122 -0.0158
29500W        W72413  27.849  32.371  22.012  0.4509 -0.0650 -0.1936
29501W        W72414  34.022  30.871  26.092 -0.1391  0.2230 -0.2867
29502W        W72415  22.539  28.252  24.054 -0.2709 -0.2206  0.1643
29503W        W72416  19.790  20.210  22.188 -0.1068  0.1657  0.1502
29504W        W72417  33.285   1.672  24.167 -0.1647  0.3765 -0.0962
29505W        W72418  30.826  33.069  18.621 -0.3172  0.0934 -0.0967
29506W        W72419  27.877  33.576  23.775 -0.0219  0.0836  0.0674
29507W        W72420  20.275  30.259  23.498 -0.0960 -0.0261  0.0987
29508W        W72421  25.664   4.521  18.431 -0.1624  0.0447 -0.0899
29509W        W72422  30.210   3.424  20.577  0.0691 -0.5600  0.0337
29510W        W72423  28.459  32.777  23.517  0.1473 -0.1098  0.1965
29511W        W72424   3.720  29.733  19.700  0.0952  0.2857 -0.2356
29512W        W72425  26.807  21.862  19.163 -0.1660 -0.0194  0.0604
29513W        W72426  24.764   0.954  20.377 -0.0560  0.0013  0.0996
29514W        W72427  29.696   0.892  17.940  0.0193  0.0951 -0.1351
29515W        W72428  29.682   2.778  16.942  0.0462  0.0884 -0.0386
29516W        W72429   0.378  30.728  25.866  0.1715  0.0323 -0.0083
29517W        W72430  24.443  26.850  21.111  0.0914 -0.1025  0.0773
29518W        W72431  28.000  31.769  28.153 -0.1709  0.0264 -0.0292
29519W        W72432  28.211   2.608  17.008  0.1427 -0.2602  0.2079
29520W        W72433  17.583   2.897  18.307 -0.0796 -0.1006 -0.0232
29521W        W72434  24.181   0.965  22.628 -0.2952 -0.2659 -0.0046
29522W        W72435  32.994   2.277  21.907 -0.1755 -0.1465  0.2182
29523W        W72436  25.615   4.255  20.114 -0.2505 -0.2151  0.2040
29524W        W72437  32.308   3.133  16.799  0.2454 -0.2971 -0.2000
29525W        W72438  32.323  33.688  24.033 -0.1779  0.0014 -0.0177
29526W        W72439  21.880  33.577  23.103 -0.5388 -0.4162  0.0201
29527W        W72440  25.104  29.725  22.175 -0.0228  0.0475 -0.0567
29528W        W72441  22.452  21.983  22.064  0.0021  0.5080  0.2838
29529W        W72442  33.329  31.810  23.801  0.1469 -0.0236  0.3589
29530W        W72443   0.323   0.282  19.406  0.2860 -0.0128  0.1692
29531W        W72444  26.239  31.993  25.833 -0.2287 -0.0749  0.0417
29532W        W72445  32.748  29.872  15.808  0.2554 -0.2539  0.0373
29533W        W72446  21.211   1.365  17.080 -0.1316 -0.2546 -0.0491
29534W        W72447  24.495  29.734  19.802  0.1693 -0.3811  0.2849
29535W        W72448  24.810  25.260  16.873 -0.1027  0.0382 -0.1415
29536W        W72449  31.639  22.063  13.471  0.3170  0.0418  0.0477
29537W        W72450  19.725   4.811  14.401 -0.1170 -0.2114 -0.0759
29538W        W72451  26.395  28.345  18.724 -0.1035 -0.1219  0.5145
29539W        W72452  23.149   2.736  15.988 -0.0631 -0.2495  0.0144
29540W        W72453  23.886   5.642   0.402 -0.0498  0.2519  0.0148
29541W        W72454  20.399   2.852  16.000  0.2224 -0.2709  0.0942
29542W        W72455  25.388   1.989  20.209  0.5895 -0.0402  0.1098
29543W        W72456  22.409  32.138  14.694  0.0975 -0.0084 -0.1366
29544W        W72457  23.905  24.679  28.070  0.1922 -0.1142 -0.0688
29545W        W72458  23.214   3.449  17.985  0.1934 -0.0849  0.3306
29546W        W72459  29.971   1.775  21.384 -0.0852 -0.2570  0.0347
29547W        W72460  16.538   1.163  17.434  0.1643  0.2259  0.0756
29548W        W72461  25.389  33.986  14.918  0.0079 -0.0274 -0.3371
29549W        W72462  29.038   0.616  26.670  0.0319 -0.1681 -0.1285
29550W        W72463  27.417  31.302  19.870 -0.2050 -0.1833 -0.0037
29551W        W72464  24.220   0.557  14.426  0.0014  0.0637  0.0347
29552W        W72465  30.162  28.984  23.033 -0.2638 -0.0212 -0.0009
29553W        W72466   1.380  24.160  22.817 -0.2981 -0.0744  0.2633
29554W        W72467  24.596  34.098   1.806 -0.0597  0.3702 -0.2088
29555W        W72468  30.077  28.409  18.542  0.0864 -0.0674 -0.0854
29556W        W72469  28.011   3.234  15.910 -0.0914 -0.0009  0.0564
29557W        W72470  31.045   1.230  15.470 -0.3203  0.2288 -0.2122
29558W        W72471  24.435  23.072  15.181 -0.1312 -0.2629 -0.2440
29559W        W72472  25.949   3.520  14.185  0.2849  0.1629 -0.3486
29560W        W72473   0.467  33.842  18.990  0.0489 -0.3007  0.3655
29561W        W72474  20.473   2.968  14.348  0.1991  0.0747  0.3044
29562W        W72475  28.536  25.681  17.666  0.1738  0.0716 -0.2248
29563W        W72476  33.061   4.181   0.062  0.1380  0.3711 -0.0903
29564W        W72477   0.602   1.868  16.759  0.0739 -0.0292 -0.0154
29565W        W72478  13.478   5.224  18.180 -0.0550  0.0213  0.0699
29566W        W72479  28.640   7.687  18.509  0.0562 -0.3159 -0.0502
29567W        W72480   4.098   0.540  24.983  0.0166  0.0573 -0.0171
29568W        W72481  34.372  23.118  28.350  0.1420  0.0326  0.0093
29569W        W72482  29.997   0.159  20.170 -0.0122  0.1370 -0.3341
29570W        W72483  31.227   3.470  22.710  0.0848 -0.2737  0.0356
29571W        W72484  23.760   2.341   0.422  0.0113 -0.1066  0.2059
29572W        W72485  29.770  29.212  28.892 -0.0428 -0.0774 -0.1152
29573W        W72486  32.680   4.619  20.415  0.2158 -0.2589 -0.0031
29574W        W72487  19.008  29.078  27.866 -0.1759 -0.1198  0.0325
29575W        W72488  17.992  24.284  20.762 -0.3203 -0.0479  0.1000
29576W        W72489  12.794   5.520  20.172 -0.1918 -0.2473 -0.0550
29577W        W72490  19.286  29.796  24.768  0.3423 -0.0138  0.0586
29578W        W72491  28.551  34.028  18.837 -0.0002  0.1162  0.3389
29579W        W72492  29.801  28.740  17.339  0.1300 -0.1729  0.1695
29580W        W72493  29.166   1.827  20.653 -0.0743 -0.2046  0.2022
29581W        W72494  31.465  33.628  16.192  0.0305 -0.0829  0.2304
29582W        W72495   3.005   8.724  25.092  0.3045 -0.0907 -0.1035
29583W        W72496  12.404  32.936  20.149  0.1153  0.1052 -0.0503
29584W        W72497  27.948  30.562  24.214  0.0223  0.0542  0.2211
29585W        W72498  22.927  23.251  22.073  0.1101 -0.0944 -0.2124
29586W        W72499  10.483   6.360  21.341 -0.1055 -0.1568  0.2282
29587W        W72500  18.222  27.352  25.814 -0.2142  0.1403 -0.2103
29588W        W72501  27.264   1.666  16.379  0.0707  0.0690 -0.2194
29589W        W72502  27.689   0.418  25.991  0.1164  0.0178  0.0069
29590W        W72503  25.603   1.868  27.230  0.0590  0.2648  0.1375
29591W        W72504  17.155   3.012  14.749  0.1255  0.0911 -0.1844
29592W        W72505  20.131  22.327  15.895 -0.1454 -0.3140 -0.0652
29593W        W72506  23.514  25.871  13.496 -0.0780  0.0408  0.1152
29594W        W72507  22.250  27.015  28.978 -0.0696  0.3616  0.0830
29595W        W72508  24.914   3.258  13.456 -0.0455 -0.1237  0.1089
29596W        W72509  30.348  28.966  29.718 -0.0141  0.1260  0.1284
29597W        W72510   1.193   2.564  20.498  0.3321 -0.0775  0.1901
29598W        W72511  26.073   2.989  23.871 -0.0744 -0.5551  0.2742
29599W        W72512  27.283  34.409  25.104 -0.0457 -0.1019 -0.2580
29600W        W72513  14.457  14.480  16.796  0.0455  0.1770  0.3498
29601W        W72514  27.126   1.546   0.882  0.0263  0.1739 -0.0576
29602W        W72515  21.780   6.004  23.613 -0.3545  0.2412 -0.0595
29603W        W72516  22.406  32.710  20.273 -0.1910  0.2179 -0.0635
29604W        W72517  18.404  19.282  22.477 -0.0137  0.0326  0.2044
29605W        W72518  26.398  10.191  18.994 -0.1064  0.2754 -0.1981
29606W        W72519  24.003   4.114  13.677 -0.4167  0.2726  0.1350
29607W        W72520  23.864  23.519  26.181 -0.1919 -0.1062  0.0728
29608W        W72521  29.414  27.596  26.422  0.0748 -0.1395 -0.2170
29609W        W72522  27.075   1.204   0.036  0.1321  0.2037 -0.2546
29610W        W72523  29.075   1.692  16.150  0.1591 -0.2492  0.0284
29611W        W72524  25.411   1.625  21.584 -0.0414  0.1690 -0.0789
29612W        W72525  20.092  29.441  19.486 -0.2098 -0.1166  0.1761
29613W        W72526  26.701   0.289  17.547 -0.2170  0.1317 -0.2372
29614W        W72527  19.748  20.801  17.991  0.0653  0.0171  0.0756
29615W        W72528   0.132   0.256  16.051  0.1003  0.1570  0.2041
29616W        W72529  26.154   1.783  14.534 -0.0842  0.2474 -0.1886
29617W        W72530  33.381  33.583  22.046  0.1453 -0.0402  0.1485
29618W        W72531  30.103  32.403   9.623  0.1410 -0.0019  0.2389
29619W        W72532  30.473  29.359  16.742  0.0401 -0.1738  0.2832
29620W        W72533  25.273  20.213  16.619  0.0698  0.1190  0.4576
29621W        W72534  25.615   2.382  15.506  0.0808 -0.1203 -0.1920
29622W        W72535  12.697  32.741  25.180 -0.3748  0.1587  0.1597
29623W        W72536  29.292  34.308   0.762 -0.0671  0.2580 -0.3738
29624W        W72537   0.578  30.026  14.381 -0.2686  0.1216 -0.3199
29625W        W72538  19.045   1.817  26.368  0.0599 -0.2571 -0.1273
29626W        W72539  17.187  22.734  21.428 -0.1862 -0.1427  0.0007
29627W        W72540   1.047  31.802  16.180 -0.3016 -0.0314 -0.1413
29628W        W72541  24.388  23.659  15.864  0.1024  0.1602 -0.6323
29629W        W72542  24.552  29.367  27.656  0.0378  0.3277 -0.1240
29630W        W72543  28.658   1.266  14.805 -0.0237 -0.2055  0.3839
29631W        W72544  17.680  27.810  23.476 -0.0389  0.1468 -0.0150
29632W        W72545  23.681   3.802  21.270 -0.2336 -0.0313 -0.2335
29633W        W72546   0.305   3.460  18.967  0.0439 -0.0827  0.4022
29634W        W72547  28.832   0.260  19.456  0.0568  0.1025  0.0723
29635W        W72548   4.521   6.281  22.290  0.0879 -0.2303 -0.0219
29636W        W72549  29.284  31.692  17.059 -0.1449  0.0877 -0.0809
29637W        W72550  21.079  24.339  26.731  0.1197  0.1343  0.1533
29638W        W72551  18.332  32.744  29.377 -0.0345 -0.1041 -0.2265
29639W        W72552  22.143  33.156  21.597 -0.2481  0.1112  0.0760
29640W        W72553  30.273  23.923  28.086 -0.0655 -0.1045 -0.3756
29641W        W72554  26.866  30.134  14.362 -0.1414 -0.2450  0.0417
29642W        W72555  23.824  32.570  22.208 -0.1030 -0.0496 -0.0603
29643W        W72556  33.993  28.635  14.524  0.4791 -0.1490  0.1668
29644W        W72557  28.116  22.664  24.454  0.2169  0.2676  0.1738
29645W        W72558  26.114   6.934  18.606 -0.2776 -0.3156  0.1340
29646W        W72559  24.679  25.731  27.926  0.0247 -0.0610 -0.0906
29647W        W72560   0.760  28.845  23.619 -0.2652 -0.1900  0.2282
29648W        W72561   1.719   5.025  24.067 -0.1061  0.0471  0.0011
29649W        W72562  32.623  23.435  16.188 -0.1366 -0.0627  0.2661
29650W        W72563  29.402  32.418  17.218 -0.0089  0.0573  0.3811
29651W        W72564  30.639  29.064  17.681 -0.0525  0.0373 -0.3930
29652W        W72565  10.587  26.625  26.435  0.0080 -0.0893  0.1625
29653W        W72566  29.312  32.136   2.466 -0.0195 -0.1508  0.1671
29654W        W72567  19.756   2.118  14.906  0.0987 -0.0339 -0.2762
29655W        W72568   2.946  27.263  20.747  0.0589  0.1041 -0.2974
29656W        W72569  20.708   5.251  26.501 -0.3058  0.0132  0.1610
29657W        W72570  29.982  33.974  17.897  0.0768  0.0406 -0.0816
29658W        W72571  27.219  25.301  16.805 -0.0513  0.1407 -0.5425
29659W        W72572  33.569  30.793  19.926  0.1532 -0.2482  0.1501
29660W        W72573  33.073   6.264  24.270  0.0301  0.2611  0.0725
29661W        W72574  20.614  29.244  28.255  0.1471 -0.1040  0.0678
29662W        W72575   2.739  28.581  21.738  0.0600 -0.2324 -0.2050
29663W        W72576  26.154   8.775  24.457 -0.1789  0.1197  0.1114
29664W        W72577  29.872  27.446  23.287  0.2906  0.1920 -0.0671
29665W        W72578  32.548  33.543  23.597 -0.0714 -0.0678  0.0703
29666W        W72579   3.050   3.025  26.721  0.1913  0.0763  0.0437
29667W        W72580  19.210   9.208  25.744 -0.0218  0.0998 -0.3092
29668W        W72581  18.419   0.983  19.591 -0.0998 -0.2847 -0.1777
29669W        W72582  25.273  28.959  25.947  0.1552  0.1143  0.0822
29670W        W72583  22.125   0.704  17.074 -0.0458  0.2881  0.1078
29671W        W72584  26.180   2.477   0.281  0.5857  0.1800  0.2018
29672W        W72585  30.263  27.864  20.737  0.1335 -0.2471  0.1441
29673W        W72586   1.719   1.150  20.497  0.2694  0.0846 -0.1803
29674W        W72587  21.056  33.669  22.838  0.1242 -0.0388 -0.2740
29675W        W72588  20.538  33.559  17.544 -0.3660  0.0938 -0.1872
29676W        W72589  28.553  31.296  20.101 -0.2498 -0.0560  0.2421
29677W        W72590   3.335  22.335  20.264  0.1260 -0.1404 -0.1857
29678W        W72591  29.381   7.734  22.949  0.3367  0.0695  0.0881
29679W        W72592  29.655   5.561  16.575  0.1566 -0.2209  0.1344
29680W        W72593  31.895   0.444  15.141 -0.1063 -0.2424 -0.0926
29681W        W72594  32.306  28.862  18.664  0.1540  0.1956  0.0139
29682W        W72595  33.149  24.046  22.930 -0.2386 -0.0021  0.1442
29683W        W72596  25.395  34.480  18.073 -0.1673 -0.0161 -0.0296
29684W        W72597  26.349   4.807   2.853  0.2858 -0.0543 -0.1163
29685W        W72598  33.783   0.348  16.250 -0.0714 -0.1304  0.2353
29686W        W72599  32.008  29.722  19.353  0.0765  0.2253 -0.0042
29687W        W72600  22.209  32.260  17.472  0.0065 -0.0637 -0.1148
29688W        W72601  31.231  31.315  19.099  0.2569 -0.0934  0.0987
29689W        W72602  21.086  31.211  19.365  0.0467  0.0035  0.2042
29690W        W72603  29.786  31.929  14.477  0.2727  0.2907 -0.0545
29691W        W72604  26.334   1.156  28.065 -0.2989  0.0683 -0.0605
29692W        W72605  25.977  10.705  19.807  0.1533 -0.0377  0.0076
29693W        W72606  26.459   2.630  18.670  0.0902  0.3549 -0.3210
29694W        W72607  24.198   9.083   2.760  0.0343  0.2136 -0.2762
29695W        W72608  29.114   4.516  26.226  0.2954 -0.1315 -0.0456
29696W        W72609  21.530  25.546  28.596  0.1308 -0.0847  0.2540
29697W        W72610  29.415   9.327  15.131 -0.1386  0.1516  0.2039
29698W        W72611  25.882   2.843  22.235  0.0477  0.1923 -0.1599
29699W        W72612  27.003  24.256  14.017 -0.3224  0.1041  0.1775
29700W        W72613  33.762  30.504   4.141 -0.0450  0.0866 -0.0096
29701W        W72614  29.350  27.376  17.902 -0.0480 -0.4598 -0.2574
29702W        W72615  20.648   0.445  14.301  0.3744 -0.1348 -0.2834
29703W        W72616  30.944  29.476  21.602 -0.1438 -0.0892  0.2991
29704W        W72617  22.858  31.175  25.183 -0.0042  0.1160  0.0793
29705W        W72618  31.473   6.565   3.105  0.4447  0.2629 -0.1059
29706W        W72619  25.897   8.507  25.701  0.2494 -0.0900 -0.0828
29707W        W72620  15.434  22.905  26.558  0.0958  0.1163 -0.0203
29708W        W72621   5.088   1.905   1.517 -0.0169 -0.0125 -0.0451
29709W        W72622  21.362   7.147  25.369  0.0454  0.0487 -0.2763
29710W        W72623  23.473   4.350  28.858 -0.1229 -0.2413  0.2551
29711W        W72624  30.567  33.974  16.024  0.1291 -0.0509  0.1056
29712W        W72625  21.748  25.214  19.490  0.0900  0.1988 -0.1841
29713W        W72626  20.523   1.120  15.070 -0.4471  0.3148 -0.2108
29714W        W72627   2.387   0.068  27.847  0.1445 -0.0929  0.2423
29715W        W72628  23.941  33.226  26.874 -0.1019  0.1152 -0.0280
29716W        W72629  25.466  33.152  21.551  0.1660 -0.3450  0.0383
29717W        W72630  29.810   0.155  26.711  0.0224 -0.2092 -0.0573
29718W        W72631  17.219  30.704  29.583 -0.1259 -0.2902 -0.1261
29719W        W72632  24.870  32.869  14.250 -0.0035 -0.1000  0.2373
29720W        W72633  32.525   5.914  26.795  0.0221  0.1860  0.3021
29721W        W72634  26.999  13.279  16.366 -0.2434 -0.0385 -0.0834
29722W        W72635   2.332   0.290  18.160 -0.3573  0.1691  0.0787
29723W        W72636  26.812   0.315  25.494 -0.0902 -0.2015 -0.0728
29724W        W72637  28.760  12.513  14.072 -0.0059 -0.2887 -0.2219
29725W        W72638   4.364  27.728  18.360  0.0836 -0.6035 -0.0937
29726W        W72639  28.643   9.069  27.591 -0.1896 -0.1238  0.1353
29727W        W72640  29.776  31.072  25.881  0.4813  0.0866  0.3935
29728W        W72641  33.054   4.095  22.483  0.1375  0.5044 -0.0721
29729W        W72642  30.372   0.649  25.012  0.1466 -0.2367 -0.1910
29730W        W72643  31.009  20.976  20.531 -0.3210 -0.1713 -0.0710
29731W        W72644  28.904   0.954  20.089  0.2440  0.0167 -0.1155
29732W        W72645  30.135  22.080  22.868  0.3480 -0.1430  0.0362
29733W        W72646  31.794   3.270  23.774 -0.1395 -0.1171  0.4812
29734W        W72647  26.871   2.680  14.964 -0.1784 -0.1259 -0.2318
29735W        W72648  28.871  23.713  20.817 -0.0553  0.0214 -0.0538
29736W        W72649  27.360  30.725  14.954 -0.0870 -0.1864  0.0817
29737W        W72650  28.182   0.817  18.305 -0.0523  0.0345 -0.2399
29738W        W72651  29.169  27.130  19.429 -0.1472 -0.2024  0.0246
29739W        W72652   1.999  30.658  15.102 -0.0441 -0.1850  0.1575
29740W        W72653  27.758   5.687  23.277 -0.1543  0.0200  0.0571
29741W        W72654  30.886   6.067  21.158  0.1008  0.1984 -0.0439
29742W        W72655   4.094   1.135  20.266 -0.0968 -0.1590 -0.5518
29743W        W72656  18.763   1.279  22.998  0.0930 -0.1499  0.0195
29744W        W72657  27.156  30.723  19.882  0.0949  0.0225  0.1414
29745W        W72658  26.489   2.857  19.626  0.1619  0.1124 -0.1967
29746W        W72659  33.911   9.441   4.167  0.1917 -0.0588 -0.1026
29747W        W72660  19.230   3.964  19.885 -0.1351 -0.2397  0.0378
29748W        W72661  20.870   5.405  18.437  0.0734 -0.1456 -0.3670
29749W        W72662  21.919  24.475  22.434  0.2364  0.0888 -0.2501
29750W        W72663  32.366  34.172  16.099 -0.3613  0.0080  0.2598
29751W        W72664  33.221   1.468  19.681  0.0769 -0.0504 -0.1799
29752W        W72665  25.886   2.725  20.894  0.1315  0.3522 -0.0769
29753W        W72666  30.776   0.256   5.663 -0.0467 -0.1157 -0.2830
29754W        W72667  20.957   9.545  14.066 -0.0613 -0.0462 -0.2979
29755W        W72668  25.663   3.615  21.699  0.2668 -0.0228  0.0221
29756W        W72669  33.661  29.700  27.360  0.1714  0.1326  0.0060
29757W        W72670  25.713  32.233  14.510 -0.0881  0.0956  0.0878
29758W        W72671  30.907  24.924  21.750 -0.2321  0.0879 -0.0048
29759W        W72672  29.982  28.108  28.022  0.1261  0.2609  0.0527
29760W        W72673  28.414  28.337  13.507 -0.1303 -0.2441  0.1404
29761W        W72674   2.044  31.992   4.014 -0.0882  0.3207 -0.2141
29762W        W72675  34.144  15.137  13.480  0.1586 -0.0249  0.0603
29763W        W72676  27.326   6.461  21.834 -0.1361 -0.0185 -0.3567
29764W        W72677  17.692  33.878  17.467  0.2622  0.1636 -0.0661
29765W        W72678  21.343  32.256  19.619  0.0871 -0.1086 -0.0922
29766W        W72679  25.097  34.139  22.193  0.0934 -0.2569 -0.0168
29767W        W72680  27.515   2.168  21.693  0.0592 -0.0095  0.1240
29768W        W72681   0.779   5.600  28.850  0.0634  0.0315  0.1453
29769W        W72682  28.559  33.043  15.899  0.1780 -0.1695 -0.0211
29770W        W72683  30.246  25.954  25.528  0.4751 -0.0700 -0.2479
29771W        W72684  30.265  26.406  21.328 -0.1102 -0.0350  0.0607
29772W        W72685  23.540  29.541  23.115 -0.1464  0.0007  0.1282
29773W        W72686  31.203   7.413  28.550  0.0102  0.0501  0.0094
29774W        W72687  20.464   4.338  16.342 -0.1328 -0.1846 -0.0666
29775W        W72688  25.229  25.511  22.940  0.0889 -0.1462 -0.0022
29776W        W72689  21.908  32.068  16.373 -0.0422 -0.0515 -0.2508
29777W        W72690  28.694  14.411  18.860 -0.1404  0.1027 -0.0609
29778W        W72691  26.711   1.731  18.744  0.1405  0.2989  0.2408
29779W        W72692   1.661  32.174  15.039  0.2122  0.2553 -0.2218
29780W        W72693  20.789  33.898  20.000 -0.0365 -0.1381  0.0924
29781W        W72694  26.320  26.661  27.976  0.0503  0.1524  0.0891
29782W        W72695  27.475   4.191  21.343  0.0582 -0.0185 -0.0460
29783W        W72696  30.685   4.235  23.404 -0.0213 -0.0034  0.4104
29784W        W72697  24.190   1.034  14.275  0.1644  0.0319 -0.0489
29785W        W72698  28.134  32.068  18.993 -0.0145 -0.1278 -0.2311
29786W        W72699  18.468   3.748  16.523  0.1752 -0.1892 -0.1561
29787W        W72700  30.597  20.525  26.884 -0.1455 -0.0127  0.3191
29788W        W72701  24.269   5.023  22.730  0.2852  0.1583  0.0511
29789W        W72702  17.304   2.357  23.439  0.3374 -0.0889 -0.0336
29790W        W72703  29.171  29.504  22.622  0.1048  0.1713 -0.1482
29791W        W72704  22.125  33.078  27.257  0.1428 -0.3124 -0.0092
29792W        W72705   1.303  26.599   1.880 -0.0208 -0.1979  0.2292
29793W        W72706  19.177   3.273  25.118 -0.0126  0.0001  0.3091
29794W        W72707  19.370  29.386  14.870  0.1241  0.1643 -0.0499
29795W        W72708  31.461  29.102  25.463 -0.1409 -0.2085 -0.1718
29796W        W72709  28.143   1.159  24.636  0.0380 -0.0819  0.0611
29797W        W72710  29.274   8.142   1.568 -0.0691 -0.1597  0.1033
29798W        W72711  19.608  19.833  24.369  0.1428  0.0733  0.1713
29799W        W72712  30.038  25.367  18.752 -0.1518  0.1156  0.1270
29800W        W72713  28.658   4.316  15.218 -0.1041  0.0692  0.1115
29801W        W72714  19.119  30.266  28.094  0.2521  0.0583 -0.0908
29802W        W72715  29.925  20.671   4.570 -0.1547  0.4385  0.0581
29803W        W72716  28.250   1.523  28.403  0.0911  0.1110  0.0920
29804W        W72717  19.983   3.762  26.061  0.3005  0.0056 -0.0143
29805W        W72718  21.402  24.223  18.567 -0.2060  0.2575  0.0161
29806W        W72719  20.799  28.919   0.289  0.3487 -0.1004 -0.2353
29807W        W72720   0.204   5.082  26.415  0.1176 -0.0208  0.0249
29808W        W72721  27.983  31.998  20.866  0.0649 -0.0084  0.0898
29809W        W72722  31.457   7.615   2.540  0.2575 -0.2169  0.0054
29810W        W72723  26.537   5.454   0.752  0.1687 -0.2172 -0.1074
29811W        W72724  20.064   0.462  26.796 -0.0595  0.1428  0.0328
29812W        W72725  22.494  32.715  28.437  0.0527  0.1892 -0.4156
29813W        W72726  31.962   0.318  22.485  0.1637  0.3294  0.2527
29814W        W72727  29.453   1.119  25.948  0.0298 -0.1218 -0.2872
29815W        W72728  13.245   4.666  19.096 -0.0614 -0.4654 -0.1905
29816W        W72729  26.252   1.147   1.093 -0.1268 -0.0656 -0.2455
29817W        W72730  29.727   1.820   6.027  0.0996 -0.5543 -0.4112
29818W        W72731  33.454  32.861  25.458  0.2472 -0.0459 -0.2338
29819W        W72732   1.836  25.136   4.158 -0.2576 -0.2453 -0.1366
29820W        W72733  31.925   2.954   1.615  0.0600 -0.0554 -0.0307
29821W        W72734   7.179   2.725  22.217  0.1444  0.1033 -0.0425
29822W        W72735  26.593   4.292  24.888 -0.0456 -0.2203 -0.1473
29823W        W72736  24.113  27.680  24.655  0.3466  0.0629 -0.0589
29824W        W72737  12.456  24.234   1.121  0.0206 -0.1970  0.5007
29825W        W72738  18.992   3.110  28.218 -0.0143 -0.0839  0.1715
29826W        W72739  18.520  25.041   0.860 -0.0260  0.0221  0.1006
29827W        W72740  31.394   2.689  21.781 -0.1121  0.2990  0.0107
29828W        W72741   2.972   0.802  17.493 -0.2014  0.1755  0.1667
29829W        W72742  30.598  33.051  19.084 -0.2252  0.2239 -0.1124
29830W        W72743  16.766   2.233   1.218 -0.1954  0.1426  0.1506
29831W        W72744  13.821   4.437  29.112 -0.3860  0.1455 -0.0138
29832W        W72745   0.864  21.574   0.327  0.0623 -0.2903 -0.0060
29833W        W72746  32.099  11.236  19.124 -0.1447 -0.0588 -0.1566
29834W        W72747  22.947  19.250  17.770  0.0131 -0.2256  0.0381
29835W        W72748  21.803  21.017  26.729 -0.1332  0.2163 -0.1961
29836W        W72749   2.244   4.196   2.877  0.0417 -0.2290 -0.0033
29837W        W72750  31.906   2.239  19.695  0.2335  0.1451 -0.1021
29838W        W72751  26.208   4.073  14.048 -0.2019 -0.2134 -0.2133
29839W        W72752  24.472  29.779   0.993  0.0629 -0.0919  0.0732
29840W        W72753  21.451  28.969  18.009  0.2589  0.2609  0.0816
29841W        W72754  25.327   1.541  25.021  0.2216  0.2194 -0.1730
29842W        W72755  29.587  25.390   2.315  0.1268  0.0452  0.1323
29843W        W72756  30.479   4.900  18.681  0.4132  0.1376 -0.2427
29844W        W72757  20.628   0.620  28.742 -0.0469 -0.1720  0.0263
29845W        W72758  31.859   7.038  18.945  0.0534  0.3643  0.0493
29846W        W72759  28.232  32.441   1.412  0.1426  0.1080 -0.1841
29847W        W72760  33.812  32.989  14.965 -0.1013 -0.1394 -0.0323
29848W        W72761  11.748  22.346  28.658  0.2961 -0.2173  0.2294
29849W        W72762   0.063   3.519  24.639  0.1821  0.2191 -0.0064
29850W        W72763  32.559  30.735   0.524  0.0134  0.0061 -0.0877
29851W        W72764  28.566   3.759  16.302 -0.1562  0.1848  0.0510
29852W        W72765   5.187  22.825  24.462 -0.2807  0.2895  0.0707
29853W        W72766  22.719   2.047  23.556  0.1878 -0.4489  0.2274
29854W        W72767   9.612   2.555  18.585 -0.3810  0.2407 -0.3059
29855W        W72768  31.330  29.716  18.135 -0.0055  0.0952  0.1821
29856W        W72769  32.722   2.729  16.225 -0.2847  0.5686  0.0451
29857W        W72770  24.472  28.533  26.827  0.0885  0.3520 -0.1985
29858W        W72771  34.293   1.721  17.901 -0.0757 -0.1971 -0.2792
29859W        W72772  30.174   5.573   9.478  0.1279  0.2784  0.2005
29860W        W72773  30.203  31.414  28.005  0.1433  0.0457  0.0206
29861W        W72774  27.827  31.378  20.085  0.1871  0.0624  0.3447
29862W        W72775  30.173  34.050   3.100 -0.0164  0.2690  0.1596
29863W        W72776  23.711   3.685  22.323  0.0269  0.3703 -0.1383
29864W        W72777  23.923  31.999  18.121  0.5948  0.2437 -0.2656
29865W        W72778  19.095   0.749  15.144  0.0205  0.2327 -0.1259
29866W        W72779  25.363  33.929   0.673  0.0295  0.0167 -0.4602
29867W        W72780  27.911   1.612  24.990 -0.1915 -0.3700  0.2162
29868W        W72781  30.648   5.627  22.711  0.0621 -0.2825 -0.1585
29869W        W72782  32.106   2.603  16.899 -0.0251 -0.1917  0.0159
29870W        W72783  28.272   1.809  21.893  0.0833  0.1092 -0.0588
29871W        W72784  29.915   4.048  28.603 -0.0757 -0.2141  0.2060
29872W        W72785  19.384  28.012   0.513  0.1160 -0.2214 -0.2725
29873W        W72786  22.443  11.480  27.396  0.2066 -0.0787  0.0880
29874W        W72787  32.472   6.593   7.861  0.0855  0.2924 -0.3217
29875W        W72788  31.902  27.522  16.898  0.0557 -0.1330 -0.3740
29876W        W72789  23.829   1.899  26.837  0.0053  0.0117 -0.1506
29877W        W72790  24.810  27.457  27.521  0.1125 -0.0449 -0.2320
29878W        W72791  27.225  28.414  21.497 -0.1801  0.1561 -0.0734
29879W        W72792  23.204  28.127  26.883 -0.1904 -0.0745  0.0669
29880W        W72793  33.371  10.161  19.329 -0.1970 -0.0595 -0.0988
29881W        W72794  27.402  34.167  20.685 -0.1972 -0.0208  0.1279
29882W        W72795  24.415  27.624  12.759  0.4363  0.0822  0.0982
29883W        W72796  22.829  32.545  19.075 -0.0237  0.0929  0.6163
29884W        W72797  24.932   0.822  27.619 -0.1228  0.1308 -0.1854
29885W        W72798  32.178   1.278  28.364 -0.2226  0.2029  0.0322
29886W        W72799  31.336   6.187  27.262  0.2333 -0.0232 -0.0914
29887W        W72800  21.129  29.651  14.087  0.3465  0.2819 -0.1060
29888W        W72801  28.293  33.916  28.181 -0.0959 -0.3195 -0.1838
29889W        W72802  30.033   0.333  10.143  0.0465  0.2395  0.1221
29890W        W72803  32.716  15.090  27.438  0.2881  0.2236 -0.1950
29891W        W72804   2.825  24.599  21.443  0.0734  0.1768  0.0285
29892W        W72805  30.004  10.817  28.975  0.1763  0.1666 -0.0351
29893W        W72806   3.056   2.765  21.218  0.0658  0.1157  0.0040
29894W        W72807  34.024   3.772  24.524 -0.4113  0.4426 -0.0956
29895W        W72808   0.017  25.637  19.190 -0.1146 -0.4930  0.1559
29896W        W72809  23.235   2.043  25.292  0.0208 -0.0900 -0.0638
29897W        W72810  28.279   5.878  15.259 -0.1444 -0.2437 -0.2628
29898W        W72811  28.599  33.588   1.106  0.0869  0.1155 -0.0603
29899W        W72812  20.059  18.180  25.128 -0.1692 -0.1348 -0.0018
29900W        W72813  21.575   8.265  24.149 -0.1396  0.0517 -0.2403
29901W        W72814   5.025  27.350  21.587  0.3458 -0.1530  0.1840
29902W        W72815  26.610   0.314  26.221  0.2369  0.0238 -0.1403
29903W        W72816  22.214   3.291   1.954  0.0484  0.0018 -0.1168
29904W        W72817  31.560   5.758  23.049 -0.3161  0.0314  0.2076
29905W        W72818  19.944   3.586  26.616  0.0639 -0.2511  0.0721
29906W        W72819  14.546   3.160  23.981  0.2689  0.0338 -0.1732
29907W        W72820   0.355  13.971   0.206 -0.1723 -0.0514 -0.1206
29908W        W72821  21.688  28.666   0.299  0.1237  0.1435 -0.0569
29909W        W72822  32.174  34.326  17.604 -0.0197 -0.0550  0.1262
29910W        W72823  32.803  31.668  16.716 -0.1478 -0.0622  0.0836
29911W        W72824  24.968  29.687  27.701  0.3645 -0.1684 -0.3575
29912W        W72825  27.637  26.322  22.120 -0.1757  0.1436 -0.0474
29913W        W72826  31.551  29.416   3.040  0.2840 -0.2312  0.0269
29914W        W72827  31.306  32.126  15.538 -0.0244  0.0849  0.0865
29915W        W72828  31.371   3.154  27.482 -0.0259 -0.0062  0.3390
29916W        W72829  34.318  32.413  21.331 -0.0864  0.1138 -0.1266
29917W        W72830  19.711   7.151   3.590  0.2730 -0.0548 -0.0001
29918W        W72831  33.395   1.881  15.641 -0.1949  0.0873 -0.1780
29919W        W72832  33.444   7.181  18.625  0.0260  0.0807  0.1034
29920W        W72833  28.777  31.073  17.402  0.0152  0.1149  0.2180
29921W        W72834   1.053  28.037  26.881  0.0691  0.0078 -0.0076
29922W        W72835  27.863   7.331  26.997 -0.1874  0.2728  0.0206
29923W        W72836  28.556  30.982  19.243  0.2561  0.1163  0.0070
29924W        W72837  32.851  33.795  22.648 -0.1036  0.1176 -0.2803
29925W        W72838  17.842  30.358   3.354 -0.1642  0.1730  0.1544
29926W        W72839  26.860  32.873  19.032  0.1935  0.0918 -0.2465
29927W        W72840   5.586   1.946  23.194 -0.1247  0.0963 -0.3192
29928W        W72841   3.115  34.006  19.704 -0.2184 -0.4369 -0.1630
29929W        W72842   0.610   6.579   1.226  0.0616  0.3102 -0.0826
29930W        W72843  34.075  22.209  23.022 -0.0975 -0.1320  0.0370
29931W        W72844   7.621  27.843   8.119  0.4698 -0.5110  0.0930
29932W        W72845  22.738   6.220  19.877 -0.3239 -0.1211  0.0133
29933W        W72846  20.780  31.123  25.001 -0.0031  0.1179  0.0622
29934W        W72847  24.802  25.562  23.721  0.0452  0.2610 -0.1649
29935W        W72848  14.403  32.360  26.877  0.2307  0.0285 -0.0854
29936W        W72849  32.632   0.570  18.610  0.0355  0.3899  0.2535
29937W        W72850  28.869  32.825  24.902 -0.1414  0.2247  0.2089
29938W        W72851  20.627  30.291  22.088  0.2762 -0.2631 -0.1339
29939W        W72852  22.620  30.311  15.477 -0.1378 -0.2192 -0.0869
29940W        W72853  21.823  28.166  29.589  0.0043 -0.1111 -0.1148
29941W        W72854  19.394  26.077  13.878 -0.1097 -0.1328 -0.0199
29942W        W72855  24.922  24.852  22.768  0.0440 -0.3590  0.1002
29943W        W72856  27.048   0.705   1.911  0.0479  0.1717 -0.0654
29944W        W72857  32.758  32.383  26.695  0.1775  0.0262 -0.0111
29945W        W72858  28.764  34.000  23.555  0.1467  0.0785 -0.2333
29946W        W72859  31.676  31.728  24.684 -0.1119  0.0145 -0.1437
29947W        W72860  31.207   0.429  18.964  0.1202 -0.2524 -0.2730
29948W        W72861  22.376   2.617  22.787  0.1735 -0.2493 -0.3238
29949W        W72862  29.308  33.909  19.234  0.1600  0.0124 -0.0246
29950W        W72863  13.269   7.950  21.070 -0.0348 -0.1091  0.1068
29951W        W72864   2.374  31.247  26.566  0.0326  0.1487  0.0825
29952W        W72865  32.060   4.287  21.610  0.0377  0.1359  0.2800
29953W        W72866  27.107  11.510  25.567  0.3804  0.2941 -0.1726
29954W        W72867  22.314   1.882  27.172  0.0846  0.3428 -0.1640
29955W        W72868  27.215  10.406  26.660  0.0866  0.0932  0.3011
29956W        W72869  32.886   6.508  20.856 -0.0713 -0.3468 -0.1474
29957W        W72870  21.489  23.491  27.885  0.1675  0.1395  0.0109
29958W        W72871  28.023   3.663  29.761 -0.0291  0.2544  0.2038
29959W        W72872  16.308  27.920  25.993 -0.1586  0.0326  0.1713
29960W        W72873  18.597   2.987   2.219 -0.5849 -0.4146  0.1068
29961W        W72874  26.437  32.386   0.324 -0.1980  0.1005  0.2058
29962W        W72875  30.167   7.903   1.244  0.0532 -0.0104  0.2202
29963W        W72876   0.566  22.888  22.697  0.1043 -0.3548 -0.1572
29964W        W72877  23.466  31.657  25.282  0.0631  0.0001 -0.0239
29965W        W72878  21.892  18.592  15.348  0.2397 -0.1048 -0.0009
29966W        W72879  23.240  31.626  22.299  0.0256  0.4362 -0.0795
29967W        W72880  28.183  24.195   0.193 -0.1430 -0.0663 -0.0401
29968W        W72881  22.422  24.502  12.478  0.2295 -0.0524  0.3710
29969W        W72882  29.929  28.281  20.721 -0.1423  0.1687 -0.0869
29970W        W72883  33.045  28.206  19.427  0.1881  0.0897  0.0954
29971W        W72884  21.686  25.986  22.938  0.1570  0.2093 -0.6009
29972W        W72885  32.351  34.251  29.598  0.2461 -0.0188 -0.2670
29973W        W72886  28.862   4.618   0.372  0.2475  0.1776 -0.0018
29974W        W72887  31.202   1.193  28.587 -0.0676 -0.0567 -0.1611
29975W        W72888  24.884   7.435  23.449 -0.0896  0.0776 -0.4010
29976W        W72889  20.541  29.099  27.364 -0.1896 -0.1471  0.3963
29977W        W72890  25.934  31.528  24.403 -0.1870 -0.1087 -0.3216
29978W        W72891   0.820   0.302  24.112 -0.0718  0.3016 -0.0664
29979W        W72892  19.958   6.970  23.589  0.0400  0.0272 -0.1912
29980W        W72893  24.798   2.134  15.672 -0.0473  0.1234 -0.1797
29981W        W72894  27.390  32.266  28.680 -0.1003 -0.0468 -0.1270
29982W        W72895  27.597   1.972  26.144  0.1835  0.2259  0.1781
29983W        W72896  25.613   0.247  27.984 -0.0805 -0.0163  0.1745
29984W        W72897  24.607  20.584  21.442 -0.2156  0.0512 -0.1505
29985W        W72898   2.450  28.628   0.987  0.0860  0.1705  0.0077
29986W        W72899  28.914  18.373  24.878 -0.1023 -0.0479  0.1857
29987W        W72900  23.836  28.285  16.281  0.1042  0.0747  0.1416
29988W        W72901  30.842  33.591   3.359 -0.0807 -0.1771  0.2385
29989W        W72902  23.793  22.333   2.465  0.1813 -0.0498 -0.1311
29990W        W72903  23.153  31.990  18.793  0.0388 -0.1317  0.1624
29991W        W72904  25.984  24.141   1.512  0.1947  0.0905 -0.0590
29992W        W72905  31.219   6.793   3.566 -0.1347 -0.0879  0.0125
29993W        W72906  22.001  23.601  26.875  0.2082  0.3051 -0.3496
29994W        W72907  14.974  24.685  23.576 -0.3351  0.0685 -0.0496
29995W        W72908  30.776  23.844  26.328 -0.0364  0.3442 -0.0754
29996W        W72909  28.021   5.606  24.269 -0.0025 -0.2542 -0.0009
29997W        W72910  15.057  31.219  29.072  0.2195 -0.3116 -0.1650
29998W        W72911  31.354   1.023  15.158  0.3053  0.2132  0.1729
29999W        W72912  29.606  32.140  26.268  0.0886 -0.0019  0.0355
30000W        W72913  17.667  25.365  22.466  0.0577  0.2222  0.1388
30001W        W72914  34.020   5.779   0.605 -0.3217 -0.1107 -0.2494
30002W        W72915  14.348  29.641  22.225  0.0897 -0.0642 -0.1968
30003W        W72916  28.741   2.863  24.358  0.1194  0.0252  0.0588
30004W        W72917   7.238  29.853  16.432 -0.0080 -0.1331  0.4774
30005W        W72918  12.570   6.564  10.467 -0.1140 -0.1306  0.2012
30006W        W72919  16.108  31.081  21.441 -0.1592  0.1737 -0.0638
30007W        W72920  26.878   7.656  18.601  0.1849  0.0775 -0.2093
30008W        W72921  18.815   0.616   4.948 -0.0359 -0.3119  0.0570
30009W        W72922  27.821  23.675   1.413 -0.0326  0.1844 -0.1622
30010W        W72923  32.210   1.165  28.861 -0.0672 -0.2563  0.1814
30011W        W72924  17.570  27.483   2.824  0.0398  0.2613 -0.2017
30012W        W72925  28.452   6.893  18.780  0.0510  0.0005  0.2757
30013W        W72926  31.486   7.691  28.247  0.1655  0.1834 -0.1314
30014W        W72927  18.068   6.173  27.682 -0.2716  0.1225 -0.0902
30015W        W72928  27.552  30.884   2.762  0.0948 -0.0124  0.0640
30016W        W72929  24.907  34.397  29.004 -0.2284 -0.1672 -0.0666
30017W        W72930  26.152  23.435  25.010 -0.1092  0.1956 -0.1988
30018W        W72931  22.004   4.151   4.628  0.4486 -0.2788 -0.1991
30019W        W72932  20.645  22.859   1.352 -0.0875 -0.2433 -0.0481
30020W        W72933  29.321   1.248  18.040  0.0877  0.3444  0.0927
30021W        W72934  16.580  33.977  25.613  0.0120 -0.1510  0.1555
30022W        W72935  27.545  14.240  23.215 -0.0453 -0.0585 -0.0748
30023W        W72936  31.255  34.436  28.536  0.0579  0.3676 -0.0744
30024W        W72937  29.128   8.277   3.314  0.3101 -0.1335  0.1109
30025W        W72938  25.554   8.657   2.391  0.4465 -0.0757 -0.1876
30026W        W72939  32.739  11.904  19.306  0.2965 -0.0403  0.0302
30027W        W72940  31.348  23.210  26.012 -0.0053  0.0442 -0.1606
30028W        W72941  11.156  30.892  11.517 -0.0141  0.0104 -0.1013
30029W        W72942  25.219  29.870  25.864 -0.4077  0.2716 -0.0558
30030W        W72943  28.221   6.136  26.129  0.1203 -0.1404  0.3082
30031W        W72944  23.184   2.805  27.816  0.3213 -0.3957 -0.2630
30032W        W72945  30.427   4.241  20.369 -0.2357 -0.2058 -0.0866
30033W        W72946   3.751   4.869  22.056 -0.0489 -0.2396  0.0897
30034W        W72947   0.538   1.806  26.374  0.3395 -0.1509  0.1032
30035W        W72948  27.841   5.093  29.186 -0.0513  0.0133  0.0772
30036W        W72949  21.748  26.086   2.360 -0.2165 -0.0216  0.1859
30037W        W72950  22.512   6.135  28.317 -0.0435  0.0161  0.1330
30038W        W72951  29.415   6.305   9.091 -0.0615 -0.0657 -0.0833
30039W        W72952   1.019  25.244   8.829 -0.0897  0.1137 -0.3302
30040W        W72953  32.008  22.854   3.861 -0.1060  0.3409  0.2818
30041W        W72954  21.465   0.023   2.159  0.1545  0.1805 -0.2925
30042W        W72955   0.919  31.442   2.711  0.1705 -0.1681 -0.1214
30043W        W72956  28.786  12.205   6.196  0.1083 -0.0724  0.1082
30044W        W72957  22.239  28.836  29.619  0.0195 -0.2430  0.0520
30045W        W72958  32.550  32.934  25.915 -0.0570  0.1275  0.0545
30046W        W72959  25.328  33.384  16.945 -0.2841 -0.3883 -0.1817
30047W        W72960  25.963   2.010   0.139 -0.0834  0.2505  0.0357
30048W        W72961  31.932  31.981   0.558 -0.0842 -0.2611 -0.3318
30049W        W72962  27.379  29.658   2.258 -0.3076 -0.4341 -0.0730
30050W        W72963  26.261   0.736   4.968  0.1113  0.4363  0.2040
30051W        W72964  17.228  33.045   6.104  0.1613 -0.3473  0.0127
30052W        W72965  22.370   3.012   0.624 -0.0447 -0.5235  0.1028
30053W        W72966  22.296   4.670   6.784  0.1473 -0.0248  0.4419
30054W        W72967  20.454   4.957   5.794 -0.1779 -0.3473 -0.0882
30055W        W72968   1.568   5.592  23.647 -0.2456  0.0432  0.0245
30056W        W72969  24.220   0.264  19.071 -0.0038  0.1798  0.0588
30057W        W72970  27.526   8.456  28.062  0.2572  0.2257 -0.0379
30058W        W72971  20.828  30.524  25.705  0.2942  0.0569  0.2237
30059W        W72972  23.960   2.854  18.268  0.0398  0.4311  0.1997
30060W        W72973  23.115   1.980  23.820 -0.1236 -0.0446  0.3510
30061W        W72974  32.778  29.515  28.068 -0.2328  0.0703  0.0976
30062W        W72975   4.635   1.860   1.711 -0.1531  0.0254 -0.0074
30063W        W72976   3.461   0.306   3.956  0.0474  0.3266  0.0162
30064W        W72977   0.347  22.431   6.992  0.0987 -0.1952  0.3722
30065W        W72978  20.152  21.821  23.214 -0.0109  0.0891  0.2756
30066W        W72979  33.910  29.967   0.309  0.0616  0.0163  0.2505
30067W        W72980  31.901   3.636   0.012  0.3896 -0.2227 -0.1982
30068W        W72981  29.778  14.265  28.377  0.2562  0.0834  0.2315
30069W        W72982  14.032  33.636  27.320  0.0893 -0.0754 -0.1923
30070W        W72983  17.142  32.633  16.158 -0.1935  0.3695 -0.3673
30071W        W72984  27.045   5.201   1.913  0.1311 -0.0602 -0.2352
30072W        W72985   4.009  28.599  23.195  0.0135 -0.2828  0.3005
30073W        W72986  29.461  11.120  24.902  0.0108  0.1601  0.2309
30074W        W72987  29.130   1.602  28.805 -0.5511 -0.1772  0.0142
30075W        W72988  15.822   7.012   2.047 -0.1198 -0.2330  0.3782
30076W        W72989  17.428   7.513  19.542 -0.2074  0.0482  0.1617
30077W        W72990  22.649  23.638   1.298  0.3519  0.1826 -0.0667
30078W        W72991  27.580   8.777   1.270 -0.0454 -0.3663 -0.1784
30079W        W72992  30.755   4.800  22.173 -0.0121 -0.2266 -0.2291
30080W        W72993   2.134   7.010  25.495 -0.1516  0.4805  0.0568
30081W        W72994  30.532   5.037   5.703 -0.0120  0.1626  0.0386
30082W        W72995  21.645   4.624  25.611  0.1159 -0.1193  0.0165
30083W        W72996  31.020   9.272  27.750  0.2881  0.0509 -0.0287
30084W        W72997  25.461   6.253   9.031  0.2890 -0.1360  0.0293
30085W        W72998  31.355   3.418  19.057  0.0896 -0.1443 -0.1454
30086W        W72999  23.035   3.110  29.665  0.0657 -0.0300 -0.2552
30087W        W73000  25.097  33.633   1.805 -0.1272  0.2054 -0.0486
30088W        W73001  18.002   3.139   6.930 -0.0614  0.0576  0.0003
30089W        W73002  23.509   2.170   0.030  0.2802  0.3062 -0.1609
30090W        W73003  30.932  10.040   2.300  0.5138 -0.0649 -0.1932
30091W        W73004  26.654  26.224   7.892  0.0174  0.0468  0.0161
30092W        W73005  18.521  28.347  20.991 -0.1352  0.0317  0.3083
30093W        W73006  25.042  32.693  17.501 -0.3934  0.1369  0.4571
30094W        W73007  18.776  27.017  25.980 -0.0745 -0.1954  0.1170
30095W        W73008  26.464   1.469   0.059 -0.3446 -0.2266 -0.0299
30096W        W73009  23.277  27.292  23.516  0.3869  0.0826 -0.1343
30097W        W73010  28.940   4.469  10.037  0.4776  0.0141 -0.0010
30098W        W73011   0.639  25.514   2.089  0.0251  0.0024 -0.0646
30099W        W73012  16.356  30.454  17.817 -0.2722 -0.3195 -0.0930
30100W        W73013  34.069  28.659  23.635  0.1108 -0.0661  0.1672
30101W        W73014  33.533  26.506  26.981 -0.2161 -0.0112  0.1938
30102W        W73015   5.193   7.203  29.521 -0.1402  0.0536 -0.0626
30103W        W73016  26.408  31.614  24.472  0.0280 -0.1715  0.1607
30104W        W73017  20.119  31.717   6.027 -0.1915 -0.2651  0.2533
30105W        W73018  25.049  30.106  26.822  0.2410  0.0433 -0.1452
30106W        W73019  30.199  12.041   1.878 -0.5003 -0.0401  0.0667
30107W        W73020  25.036   3.045   2.181  0.4135 -0.3461 -0.0903
30108W        W73021  28.004   3.549   3.830  0.0167  0.2633 -0.1205
30109W        W73022  28.331  21.427  28.269 -0.0948 -0.3964 -0.1175
30110W        W73023  29.841   2.310  22.883  0.1376 -0.2805 -0.0765
30111W        W73024  31.104  34.165  26.294  0.2021  0.0329  0.2015
30112W        W73025  21.935   2.070   3.460  0.1210 -0.0973 -0.2522
30113W        W73026   4.013   2.044  26.247 -0.1227 -0.3919  0.0311
30114W        W73027  19.012  32.334  28.507 -0.3155 -0.0630 -0.0540
30115W        W73028  31.553  23.549   6.104 -0.2566  0.3642 -0.2112
30116W        W73029  17.786  30.224   4.213  0.3502 -0.1456 -0.2107
30117W        W73030  31.436  33.596  23.812 -0.1921 -0.2933 -0.2107
30118W        W73031  33.206  33.561   0.585 -0.2564  0.1801  0.0625
30119W        W73032  28.981  13.219  21.509  0.1122  0.3153  0.0635
30120W        W73033  18.219  22.923   2.673  0.3143 -0.0709 -0.1074
30121W        W73034  20.190   5.452   0.140  0.2559  0.1022 -0.1347
30122W        W73035  32.022   7.694   7.185  0.4515 -0.0339  0.1781
30123W        W73036  33.155  26.986   6.377  0.1051  0.0044  0.2684
30124W        W73037  32.824  10.628  29.439  0.0059 -0.0469  0.1111
30125W        W73038  26.359  27.356  17.554  0.1038  0.0160  0.0149
30126W        W73039  25.955   4.974  21.664 -0.0598 -0.0058  0.4317
30127W        W73040  19.348  30.444  17.928 -0.2158  0.2271 -0.1387
30128W        W73041  27.242  14.927   7.279 -0.0811  0.1308  0.2643
30129W        W73042  26.781   4.747  26.671  0.2347  0.0455  0.1133
30130W        W73043  25.933  31.366  28.701  0.1123 -0.3802  0.0598
30131W        W73044  24.626  28.257   0.611  0.2139 -0.1658 -0.0428
30132W        W73045   5.969  11.098  17.610  0.0280  0.3053 -0.0595
30133W        W73046  30.384  31.112  29.471  0.1472  0.1339 -0.0487
30134W        W73047  24.762  32.537  25.928  0.1491 -0.1235 -0.3169
30135W        W73048  31.727  29.716   4.470 -0.0394 -0.1671 -0.0071
30136W        W73049   1.371   5.592   3.988 -0.1786 -0.1070  0.0543
30137W        W73050   4.860  33.016  25.217  0.1643  0.0100  0.0876
30138W        W73051  30.388  27.249  22.771  0.3051  0.1146  0.1850
30139W        W73052  24.171  13.744  25.492 -0.1716  0.3203 -0.0256
30140W        W73053  26.237  32.601  19.203  0.4376  0.0287 -0.3590
30141W        W73054  27.485   5.566  19.333  0.1047 -0.0361  0.0482
30142W        W73055  24.672  29.293   0.758  0.0149 -0.3493 -0.0860
30143W        W73056  32.406  28.994   3.789  0.0072  0.1715  0.0351
30144W        W73057   3.042  11.264  25.294 -0.0731  0.2609  0.0541
30145W        W73058  20.481  20.797  21.648 -0.0501 -0.2468  0.2064
30146W        W73059  30.277   3.900   2.740  0.1376 -0.0068  0.1197
30147W        W73060  16.336  30.589  29.499 -0.0433  0.1395  0.0828
30148W        W73061   2.218   0.052  24.791 -0.2999 -0.1746 -0.0033
30149W        W73062  21.790  34.191  28.189 -0.1128 -0.3381  0.1597
30150W        W73063  20.139  25.997  20.413 -0.2028  0.1674  0.2655
30151W        W73064  14.296  28.112  19.885  0.0603  0.3382 -0.1335
30152W        W73065  24.652   6.199   3.370 -0.0008 -0.2015  0.2123
30153W        W73066  22.788   0.282  23.450 -0.2082 -0.0683  0.2224
30154W        W73067  32.154  26.903  26.090 -0.0353  0.2478 -0.1075
30155W        W73068  30.104   2.806  26.520  0.0718  0.2208 -0.1474
30156W        W73069   7.712  29.872  24.461  0.1756 -0.1579 -0.0835
30157W        W73070  28.982   8.665  10.221  0.0520  0.2035  0.0995
30158W        W73071  31.063  33.698  16.558 -0.2521  0.2303  0.2820
30159W        W73072  26.172  25.743   4.504  0.4146  0.0696 -0.0456
30160W        W73073  30.734  28.669  27.958 -0.0625  0.1852  0.1591
30161W        W73074   3.351  19.439  26.986 -0.1693 -0.3388  0.2790
30162W        W73075  19.547  34.194   0.326  0.0606  0.0730  0.1443
30163W        W73076  33.128  25.848   1.893 -0.1946 -0.1661  0.1106
30164W        W73077  22.091  32.144  26.335  0.2959 -0.3836  0.0487
30165W        W73078  27.160  33.575  21.822 -0.3292  0.1170 -0.2492
30166W        W73079  32.619   4.258  17.644  0.1328  0.0143  0.1798
30167W        W73080  29.292   1.011  26.487 -0.1453  0.3023 -0.2041
30168W        W73081  28.020  33.943   1.691  0.0549  0.3627  0.0199
30169W        W73082   1.497  23.264  22.085  0.1158 -0.1364 -0.0644
30170W        W73083  29.506  26.826   3.199  0.3437  0.1705  0.0767
30171W        W73084  28.643   0.515  14.187  0.0376  0.2298 -0.1266
30172W        W73085  32.256  31.422   4.097  0.0842 -0.2084  0.2586
30173W        W73086   0.727  34.287   5.934  0.0605 -0.0692  0.3995
30174W        W73087  20.028   3.731  22.603 -0.0027 -0.0735 -0.0828
30175W        W73088  17.395   5.745  23.680  0.2616  0.4184 -0.0067
30176W        W73089  33.272   4.213  25.475  0.0999  0.0128 -0.0863
30177W        W73090   4.727  13.597   4.171  0.4642 -0.0658  0.2833
30178W        W73091  25.772  25.955   6.899  0.0345  0.0025  0.0487
30179W        W73092  27.604  27.923  27.147 -0.1440  0.0169  0.0544
30180W        W73093  30.118  32.758   1.649  0.1232  0.0269  0.2914
30181W        W73094  26.261   6.604   2.846 -0.1036 -0.5344 -0.2168
30182W        W73095   0.554  31.995   9.046 -0.2611 -0.2881  0.1937
30183W        W73096  33.300  32.815   0.338 -0.0554 -0.0390 -0.0783
30184W        W73097  28.016   8.237  14.619 -0.0744  0.0608 -0.0475
30185W        W73098  26.623   6.560  20.095  0.1487  0.0533 -0.0359
30186W        W73099  28.110  23.100  21.807 -0.2343 -0.1790  0.0544
30187W        W73100  28.596  27.628  25.071  0.0766 -0.2295 -0.0175
30188W        W73101  24.436   7.377   2.950 -0.1271  0.0058 -0.0607
30189W        W73102  29.564  10.403  21.943 -0.1600  0.4074 -0.0480
30190W        W73103  27.359  17.384   1.063 -0.0167  0.1829  0.2308
30191W        W73104  32.472   4.591  21.744 -0.1439  0.0112  0.4049
30192W        W73105  22.566   5.787   2.645 -0.2225  0.0112  0.1446
30193W        W73106  31.564  29.780  27.702 -0.0201  0.0801 -0.1000
30194W        W73107   4.748   1.954   0.571  0.0005  0.0769  0.1235
30195W        W73108  32.003  30.941   3.252 -0.3472 -0.1477 -0.2629
30196W        W73109  29.230   2.283  16.271  0.1255  0.0618 -0.3857
30197W        W73110  25.132  29.604  28.771  0.0614  0.1705  0.1432
30198W        W73111  32.078   2.092   3.216 -0.1329 -0.1335  0.2184
30199W        W73112  29.801  25.520  24.263 -0.0345  0.0211 -0.1163
30200W        W73113  11.195   3.841   0.311 -0.1708  0.2579 -0.0955
30201W        W73114  26.955   4.568  24.147  0.0903  0.2159 -0.0777
30202W        W73115   1.348  34.454  10.517  0.0663  0.1835  0.1018
30203W        W73116  28.317  28.895   4.499  0.2268  0.0893 -0.2869
30204W        W73117  21.549   8.555  22.833 -0.0022 -0.0982  0.0548
30205W        W73118  23.024  32.029  20.546 -0.0584  0.0755 -0.3550
30206W        W73119  27.025   4.438   6.688  0.1030  0.1115  0.1927
30207W        W73120   1.559   1.043   2.429  0.2954  0.0543  0.0155
30208W        W73121  20.905  26.474  27.936  0.0197 -0.1809  0.1309
30209W        W73122  21.259  31.521  20.154 -0.1116 -0.3971  0.1049
30210W        W73123  23.780  32.443   4.282  0.0944  0.0849  0.0162
30211W        W73124  13.644  30.127  19.159 -0.2663  0.2297  0.2839
30212W        W73125  30.789   8.874  26.840  0.0931  0.1856 -0.0577
30213W        W73126  26.591  32.032  22.220 -0.1000 -0.1474 -0.0024
30214W        W73127  28.138  29.681  16.020  0.1440  0.1290  0.2770
30215W        W73128  17.972   7.622  18.826 -0.0551  0.0042 -0.0786
30216W        W73129   2.485  11.623   3.723  0.0816 -0.2337  0.2332
30217W        W73130  31.359   5.599   3.371 -0.0187 -0.0175  0.1144
30218W        W73131  24.216   6.264   1.955 -0.1132 -0.2926  0.1686
30219W        W73132  29.672   1.691  20.478  0.0137 -0.1224  0.0695
30220W        W73133  28.026   7.130  24.597  0.2317  0.2327  0.1671
30221W        W73134   8.900  32.642  19.751  0.0616 -0.0089 -0.2407
30222W        W73135  22.992  33.665   1.038 -0.1340  0.0213 -0.0692
30223W        W73136  32.704  13.001   4.779  0.1790  0.1105 -0.3824
30224W        W73137  26.785  24.192   3.839 -0.0928  0.0157  0.1294
30225W        W73138  21.474   4.078  24.862  0.1356  0.0971 -0.0985
30226W        W73139  22.863   0.369   7.338  0.0124  0.0035 -0.0147
30227W        W73140  31.236  13.990  25.961  0.1219  0.4062  0.1273
30228W        W73141   9.270   2.240  25.313 -0.2728  0.0384  0.3792
30229W        W73142   4.686  27.276  10.060  0.2317  0.2849  0.1047
30230W        W73143  33.754   7.768   8.364  0.1343 -0.0735 -0.0723
30231W        W73144  30.445  27.412  28.183  0.1556 -0.1888 -0.1641
30232W        W73145  27.254   4.271   6.290  0.2647 -0.2455 -0.0513
30233W        W73146  17.948  31.989   3.493  0.0535 -0.3047 -0.2635
30234W        W73147  31.996  24.342   6.073 -0.1565  0.0006  0.1359
30235W        W73148  27.564   2.203   3.556  0.0762 -0.3628  0.1883
30236W        W73149  22.154  33.747  18.572 -0.2038  0.1291  0.0923
30237W        W73150  26.743  31.082  24.783  0.0680 -0.2285 -0.0224
30238W        W73151  20.009  32.853  27.490  0.2304 -0.0715  0.1314
30239W        W73152  31.287   9.460   9.964  0.0667  0.0038  0.0580
30240W        W73153  30.968  17.815  29.562 -0.2044 -0.1253  0.2715
30241W        W73154  17.910   3.767   4.875 -0.1603  0.2415 -0.0314
30242W        W73155  30.510   9.974   3.553  0.2110 -0.0248 -0.2155
30243W        W73156  24.317  25.947  29.386  0.2388  0.0255 -0.0141
30244W        W73157  21.184  24.189  26.242 -0.2065 -0.4268 -0.0317
30245W        W73158  26.497   0.096   0.670  0.0059 -0.2291  0.0236
30246W        W73159   1.555   5.119   3.994 -0.3313  0.0556 -0.2238
30247W        W73160  28.672   5.120  21.576 -0.0005  0.1267 -0.3007
30248W        W73161   0.697  28.922   0.229 -0.2991 -0.4346  0.0029
30249W        W73162  29.711   5.530  25.050 -0.0456 -0.2010  0.1765
30250W        W73163  27.507   1.127   5.024  0.1551 -0.0955  0.0017
30251W        W73164  28.405   4.607  10.846  0.2589  0.3103 -0.1497
30252W        W73165  26.410  12.040  27.392  0.0010 -0.0962 -0.0252
30253W        W73166  26.648   0.520  28.412  0.0269  0.2041 -0.1507
30254W        W73167  27.241  30.240   1.572 -0.0152  0.2923  0.3351
30255W        W73168  19.314   2.485   9.640 -0.1241 -0.0251 -0.0588
30256W        W73169   2.025   0.107  19.054 -0.0642 -0.3094  0.0495
30257W        W73170  19.594  33.881  19.592 -0.0757  0.0463 -0.2781
30258W        W73171   3.163  28.591  13.964  0.1145 -0.1266 -0.1498
30259W        W73172  31.233   0.688  24.705 -0.0238  0.1100 -0.1430
30260W        W73173  32.538  29.772  23.823 -0.0140 -0.0223 -0.1889
30261W        W73174  31.744   0.990  25.977 -0.0263 -0.0334 -0.3563
30262W        W73175  28.927  26.018  15.631  0.1481  0.0559  0.0449
30263W        W73176  25.524  28.094  18.967 -0.0472  0.1461 -0.1787
30264W        W73177  19.376  14.683  22.809  0.2456  0.1710  0.1614
30265W        W73178  25.650   2.243  16.550 -0.2068 -0.0721 -0.3043
30266W        W73179  23.807  31.557  14.631 -0.0912  0.0387 -0.0270
30267W        W73180  27.939   8.018  16.746 -0.0659  0.2684 -0.3556
30268W        W73181  23.309  29.326  29.674 -0.0311  0.0049  0.0999
30269W        W73182  24.245   2.302  27.406 -0.2430  0.1815 -0.2273
30270W        W73183  28.931  30.354  14.089 -0.1882  0.0183  0.1099
30271W        W73184  29.124  33.511  17.667 -0.2315 -0.1261  0.0172
30272W        W73185  33.143  10.030  18.782  0.0363 -0.2864 -0.0076
30273W        W73186  21.186  30.623  18.630  0.1530  0.2287  0.2808
30274W        W73187  32.724   2.738  20.450 -0.0399  0.0398  0.2592
30275W        W73188  31.917  21.807  21.415  0.1294 -0.1055  0.0021
30276W        W73189  30.786  34.262  15.457 -0.1001 -0.0065 -0.0128
30277W        W73190   1.587   5.926  21.186 -0.0523  0.0479  0.1336
30278W        W73191  25.516  32.013   1.738  0.3034 -0.1087 -0.2114
30279W        W73192  26.785  29.172  20.098 -0.0411 -0.1923  0.0520
30280W        W73193  20.250  16.320  21.251  0.1302  0.1095 -0.1845
30281W        W73194  22.097   1.392  13.591  0.1922  0.0857  0.3647
30282W        W73195  26.559   2.337  16.082 -0.2318  0.0245  0.0181
30283W        W73196   1.340  30.810  23.155 -0.2061 -0.0322  0.3035
30284W        W73197  30.420   3.664  17.143 -0.1358 -0.1662 -0.3908
30285W        W73198   4.565   1.318  20.957 -0.0181  0.0721  0.1079
30286W        W73199  23.481  20.881  12.829 -0.4014 -0.2159  0.1464
30287W        W73200  26.280  31.137  14.455  0.0675 -0.2113  0.0812
30288W        W73201  26.959  11.829  15.634  0.0704  0.1144  0.1376
30289W        W73202  32.374  32.389   0.393  0.0899  0.1428  0.0258
30290W        W73203  31.832  33.709  25.996 -0.3660 -0.0823  0.1016
30291W        W73204  17.935  31.711   0.617  0.4694  0.0947  0.2821
30292W        W73205  26.572   8.449  20.198  0.2047 -0.0864  0.1350
30293W        W73206  30.732   0.463  18.648  0.1551 -0.1118  0.0661
30294W        W73207  27.601  20.937  15.265 -0.1140 -0.0299  0.0423
30295W        W73208   0.392   8.566  16.253 -0.3368 -0.0963 -0.1412
30296W        W73209  29.555  30.674  24.902  0.0153 -0.1659  0.1130
30297W        W73210  34.260  32.694  15.662 -0.0266  0.1884  0.0982
30298W        W73211  25.476  32.489  25.464 -0.1718  0.1805  0.0218
30299W        W73212  21.978  18.209  24.910  0.1785  0.2155 -0.0707
30300W        W73213   1.153   1.943  23.913 -0.1752  0.1879 -0.1928
30301W        W73214  34.425  30.603  15.429 -0.1211 -0.3238 -0.0140
30302W        W73215  29.336   9.108  20.736 -0.2492  0.0475 -0.2135
30303W        W73216  27.732  31.019  17.941  0.0914 -0.0175 -0.1679
30304W        W73217  23.828  11.036  22.665  0.2869 -0.2457 -0.1940
30305W        W73218  29.168   2.264  18.036  0.0047 -0.0550 -0.1364
30306W        W73219  31.093  33.322  16.097  0.1458 -0.1120 -0.0072
30307W        W73220  23.583  28.121  22.978  0.0151 -0.0708  0.1656
30308W        W73221  33.605   4.913  18.685 -0.2612 -0.1769  0.1149
30309W        W73222  32.450  33.294  19.705 -0.0425 -0.0548 -0.0591
30310W        W73223  28.790  29.253  24.834  0.0729 -0.4602 -0.4579
30311W        W73224  33.560  19.067  21.693 -0.1801  0.1806 -0.1227
30312W        W73225  28.489  13.270   2.001  0.1298  0.0812 -0.0371
30313W        W73226  22.945   4.245  25.635 -0.3068  0.1024 -0.1189
30314W        W73227  30.319  13.247  17.331  0.1897 -0.2427  0.3117
30315W        W73228  24.200  33.028  25.207 -0.1178 -0.1011 -0.0024
30316W        W73229  24.348   4.659  18.022  0.0523 -0.0767  0.3078
30317W        W73230  31.697   2.843  15.423 -0.0003  0.1394  0.0904
30318W        W73231  34.185  33.015  16.875 -0.0729 -0.0261  0.0072
30319W        W73232  21.356   1.508  27.120 -0.0643 -0.0385 -0.3691
30320W        W73233  30.614  31.565  16.380  0.0850 -0.1869 -0.0699
30321W        W73234  33.057  10.032  25.608  0.0617 -0.1680  0.0519
30322W        W73235  29.570  33.703  27.678  0.2448  0.0780  0.1352
30323W        W73236  24.396   2.793  14.250 -0.0743 -0.0397  0.0273
30324W        W73237  30.219   1.793  24.317 -0.0684  0.2605 -0.3024
30325W        W73238  24.017   7.348  18.133 -0.0267  0.0910  0.2273
30326W        W73239  20.874  32.967  17.327 -0.3630 -0.2774  0.1704
30327W        W73240  28.386  30.845  22.057 -0.2076 -0.0696 -0.0700
30328W        W73241  24.343   4.586  22.429  0.1521 -0.1803  0.0515
30329W        W73242  26.567   0.958  19.163  0.0049  0.1229 -0.3591
30330W        W73243  26.147   2.686  21.371  0.2719  0.1527 -0.0569
30331W        W73244   5.058  34.145   0.535  0.1978 -0.1959 -0.0659
30332W        W73245  34.370   3.850  24.897 -0.1137  0.1788 -0.1544
30333W        W73246  25.617   5.399  21.359 -0.1926  0.2035  0.0326
30334W        W73247   0.999  10.133  29.728 -0.1216  0.1176 -0.2589
30335W        W73248   2.126  10.811  20.364  0.1714  0.1994  0.1050
30336W        W73249  32.420   9.571  26.941  0.0714  0.4446 -0.0370
30337W        W73250  26.828   2.146  14.052 -0.0347 -0.1498 -0.1705
30338W        W73251  29.804  26.172  28.780 -0.1099 -0.0117 -0.1098
30339W        W73252  28.752  15.640  25.903  0.0051 -0.1847  0.0395
30340W        W73253  25.654   1.220  17.816  0.1165 -0.0166 -0.1890
30341W        W73254   0.594   3.935  20.396 -0.0621  0.2565 -0.0705
30342W        W73255  31.840  22.759  15.495  0.0730 -0.3248 -0.1211
30343W        W73256  32.214  24.949  13.552 -0.3924 -0.1125 -0.2197
30344W        W73257  28.870  33.910  28.229  0.1426 -0.2145  0.0492
30345W        W73258  31.870   7.848  20.753  0.2096  0.2334  0.0015
30346W        W73259  29.456  10.999  16.080 -0.1491  0.0372 -0.1362
30347W        W73260   0.110   5.237  18.476 -0.0771 -0.0465 -0.1472
30348W        W73261   9.644   3.745  27.244 -0.0686 -0.5187 -0.2261
30349W        W73262   2.587  31.560  15.880  0.0232 -0.0570  0.0342
30350W        W73263  22.950  12.332  22.357 -0.3491 -0.1338 -0.2807
30351W        W73264  30.871   3.837   0.694  0.0208 -0.0164 -0.0283
30352W        W73265   3.473  25.604  20.623 -0.2148  0.1002  0.1709
30353W        W73266   5.145   7.233  18.863  0.1341 -0.1811  0.1420
30354W        W73267   3.079  21.844  26.143  0.0919 -0.3449 -0.1064
30355W        W73268   9.595   2.948  16.856 -0.0551  0.0878 -0.0959
30356W        W73269   3.186  30.644  15.970  0.2883  0.1711  0.1505
30357W        W73270  20.505  13.511  25.111 -0.0370  0.3415  0.0035
30358W        W73271  32.382   9.466  27.694 -0.2665 -0.2656  0.0157
30359W        W73272  23.384   4.496  15.455 -0.1091 -0.2881  0.0855
30360W        W73273   2.462   3.085  16.163 -0.3000 -0.2535  0.0957
30361W        W73274  30.465  13.549  20.750 -0.2488 -0.1120  0.1672
30362W        W73275  21.546  34.159  26.875 -0.3048 -0.1511  0.0208
30363W        W73276  28.482  21.709  17.250 -0.0622  0.0318 -0.1337
30364W        W73277  28.998  30.729  23.067  0.1140 -0.4144 -0.3396
30365W        W73278  29.509  18.039  15.461  0.2976 -0.1274 -0.1655
30366W        W73279   3.522   1.804  22.264  0.0938 -0.1238 -0.1514
30367W        W73280  30.284   5.853  16.737  0.0914  0.0359  0.1341
30368W        W73281   5.362   8.258  25.971  0.1107  0.3188  0.0882
30369W        W73282  30.065  22.467  19.833 -0.1613 -0.1012  0.0131
30370W        W73283  22.248  28.993  29.159  0.0179  0.0509 -0.2753
30371W        W73284  27.391   7.553  19.262  0.0259  0.4090 -0.1443
30372W        W73285  23.624   2.472  15.272 -0.0962 -0.0390  0.2053
30373W        W73286  27.261  34.240  14.027  0.2595  0.0957  0.0047
30374W        W73287  27.513  14.734  18.995  0.0359 -0.2642  0.1166
30375W        W73288  23.038   7.454  18.835 -0.3008  0.1291 -0.0840
30376W        W73289  28.200   2.961  25.079  0.0680  0.1113  0.1659
30377W        W73290  25.599   0.744  19.316 -0.0659  0.0919 -0.2620
30378W        W73291  15.164   5.447   3.311  0.2294  0.1425  0.1494
30379W        W73292  25.315  28.303  27.629  0.2878  0.2899 -0.1354
30380W        W73293  22.267   4.326  19.155  0.0556 -0.0881  0.3608
30381W        W73294  23.124   2.038  16.426 -0.2545 -0.0855  0.1799
30382W        W73295  29.023  27.091  13.647  0.3072 -0.2126  0.0264
30383W        W73296   6.172   0.698  23.689 -0.2083  0.1506 -0.1977
30384W        W73297   0.387  26.350  29.225  0.0513  0.0686  0.0944
30385W        W73298  31.828  33.515  20.911  0.1634  0.0586  0.4247
30386W        W73299  28.610   7.100  19.250 -0.2363 -0.1216  0.0269
30387W        W73300  31.094  27.831  22.653 -0.1106  0.5382 -0.1790
30388W        W73301  16.627  12.223  18.131 -0.0856 -0.1671  0.3023
30389W        W73302  29.885   0.050  16.330  0.1366  0.1535  0.0225
30390W        W73303  28.339  32.672  24.281 -0.0241 -0.0414 -0.2794
30391W        W73304  27.528  26.943  16.074  0.0999 -0.1492  0.3229
30392W        W73305   2.889   5.814  25.396  0.0794 -0.2115 -0.3568
30393W        W73306  27.901   9.848  15.239  0.3500  0.0800  0.1391
30394W        W73307  29.148  32.178  20.531 -0.1387  0.0776  0.2335
30395W        W73308  30.299   3.596  21.125 -0.2416  0.2529  0.0413
30396W        W73309  33.967   2.775  28.156 -0.1453  0.2913  0.0666
30397W        W73310   3.479   8.642  23.693 -0.2137  0.2120  0.1286
30398W        W73311   0.612   5.195  21.150 -0.1182 -0.2209 -0.1026
30399W        W73312  20.059  11.808  20.428  0.0667  0.1978  0.0308
30400W        W73313  31.400  31.017  24.888 -0.1236 -0.0473  0.0800
30401W        W73314   0.158   0.950  25.457 -0.1721  0.5059 -0.1098
30402W        W73315  26.252  27.210  13.863  0.1076 -0.0216 -0.2701
30403W        W73316   0.269  10.946   3.042 -0.2683  0.0181 -0.0636
30404W        W73317   0.769   7.588  18.934  0.3208  0.2522 -0.1501
30405W        W73318  19.890  34.183   1.174  0.0156 -0.3871  0.0388
30406W        W73319   0.275   2.739  23.930 -0.1036  0.4400 -0.1252
30407W        W73320   1.984  32.247  22.840  0.2124 -0.2382 -0.3338
30408W        W73321  22.988   3.222  22.515  0.0678 -0.0329 -0.2197
30409W        W73322  34.175  33.654  26.746 -0.0811  0.5602  0.0868
30410W        W73323  28.903   2.602  14.606 -0.3522  0.4220 -0.1602
30411W        W73324  25.437   4.417  22.878 -0.0296  0.0430 -0.1529
30412W        W73325   0.160   5.501  16.633  0.3784  0.0215 -0.1770
30413W        W73326  21.365  28.252  18.046 -0.0433 -0.0333 -0.1473
30414W        W73327  34.067   0.623  17.617 -0.0594  0.0843  0.0738
30415W        W73328  29.468   8.205  17.085 -0.0632 -0.0138  0.2857
30416W        W73329  23.880   3.842  18.471  0.1053  0.0047  0.3963
30417W        W73330  19.119  33.743  21.145  0.0418 -0.0930  0.2478
30418W        W73331  31.437  17.584  15.067 -0.0005  0.3046  0.0520
30419W        W73332   2.412   4.605  22.348  0.2210 -0.0422  0.3173
30420W        W73333   1.657   2.870  18.195  0.0517  0.0648 -0.2519
30421W        W73334  27.986  33.302  16.750  0.3011  0.0084 -0.0399
30422W        W73335  18.567  29.596  29.574  0.0155 -0.2141  0.0669
30423W        W73336  29.844   7.645  16.477  0.0053  0.1077 -0.1153
30424W        W73337  32.780   8.902  22.631  0.0817  0.2396  0.0398
30425W        W73338   2.735  34.300  17.632 -0.3391  0.1819 -0.0772
30426W        W73339   0.476   3.155  29.082 -0.0550 -0.0315  0.2936
30427W        W73340  28.295   4.687  20.614  0.2017  0.3602 -0.0768
30428W        W73341  32.153   7.388  17.807  0.3699  0.1925 -0.0599
30429W        W73342  27.591   3.653  25.279 -0.0875 -0.1828 -0.1267
30430W        W73343  26.495  11.516  23.441 -0.2351  0.1233  0.2170
30431W        W73344   1.727   8.274   1.760 -0.3829 -0.3078 -0.3425
30432W        W73345   5.450  34.195  19.155  0.3745  0.1012  0.2229
30433W        W73346  32.972   7.380  18.736  0.1118  0.1227 -0.2883
30434W        W73347  28.841   7.863  18.931 -0.0274 -0.0700  0.1898
30435W        W73348   3.274   6.576   3.796  0.0448 -0.3335  0.0197
30436W        W73349  30.837   2.738  15.568 -0.1042 -0.0490 -0.3791
30437W        W73350  28.095   5.599  22.877  0.2064  0.0537  0.1153
30438W        W73351  28.152  32.800  25.580  0.0775  0.0628 -0.0678
30439W        W73352  20.368  28.923  28.670  0.0406  0.1193 -0.2487
30440W        W73353  33.250   3.696  21.354  0.2142 -0.0763 -0.3208
30441W        W73354   1.340  34.378  18.193  0.0438 -0.1372 -0.0525
30442W        W73355  27.577  32.727  14.656 -0.0205  0.0423 -0.0327
30443W        W73356  33.465  14.500  24.339  0.0451  0.0651 -0.0424
30444W        W73357  33.011  26.707  18.134 -0.1084 -0.4047  0.2447
30445W        W73358   0.198  30.962  15.205  0.1631 -0.2560 -0.1009
30446W        W73359   0.243   1.976  17.143  0.3286  0.0780 -0.2082
30447W        W73360   1.905  32.861  24.333  0.0918 -0.1548 -0.0501
30448W        W73361  26.812  30.240  15.517 -0.0215 -0.0841 -0.0987
30449W        W73362  29.544   4.504  23.907 -0.1641 -0.3769 -0.0280
30450W        W73363  30.124  18.656  16.508 -0.0058  0.3197  0.1731
30451W        W73364   1.532   1.648  17.937  0.2843 -0.1046 -0.1316
30452W        W73365  20.774   2.547  16.002  0.2367  0.1021  0.0647
30453W        W73366  22.295   2.932  16.057 -0.0683 -0.1224 -0.0610
30454W        W73367  15.145  29.272  20.490  0.0754  0.0864 -0.0941
30455W        W73368   1.705   2.635  25.990  0.4398  0.3361  0.3311
30456W        W73369  26.472   4.512  23.290  0.1343 -0.2692 -0.0218
30457W        W73370  19.570   3.780  14.960  0.0369 -0.0412 -0.0571
30458W        W73371  20.157   3.621  23.269  0.1259 -0.3497  0.0951
30459W        W73372  28.815  31.838  20.235 -0.0707  0.1126  0.1655
30460W        W73373  27.721  33.112  25.544 -0.2354  0.1073  0.0500
30461W        W73374  20.589   2.978  25.659 -0.0060  0.0592  0.0379
30462W        W73375  30.064  31.164  18.778 -0.1923 -0.0467  0.0821
30463W        W73376  23.762   8.745  21.680 -0.0293 -0.3840  0.0400
30464W        W73377   6.526  32.650   5.776  0.1572 -0.0492 -0.1539
30465W        W73378  33.101   3.610  26.920  0.0798 -0.0044 -0.1110
30466W        W73379  28.478   8.895  26.460  0.0764 -0.1454  0.0355
30467W        W73380  22.076  32.312  13.220 -0.4981  0.2386 -0.0520
30468W        W73381  25.819  16.242  23.624  0.2371  0.4648 -0.2392
30469W        W73382  28.415  25.821  24.262  0.0748 -0.2066  0.1911
30470W        W73383  32.172  10.673  16.833  0.3292 -0.4789 -0.0003
30471W        W73384  30.008   2.544  18.422 -0.1979 -0.1684 -0.1348
30472W        W73385  26.765  18.885  22.875 -0.1420  0.0716  0.2112
30473W        W73386  23.241   3.050  14.591  0.1563 -0.0121 -0.0368
30474W        W73387  28.710  31.332  17.822  0.1538 -0.0532  0.1041
30475W        W73388   5.577  14.033  20.100 -0.1091 -0.1775 -0.1949
30476W        W73389   1.475   8.081  19.521  0.1864  0.0102  0.1301
30477W        W73390  31.271   2.946  16.881 -0.0762 -0.0187 -0.1471
30478W        W73391  26.020   5.756  17.911 -0.2372  0.2597 -0.0658
30479W        W73392  32.517   8.702  20.617  0.0999 -0.2680 -0.0985
30480W        W73393  21.912   3.357  16.683  0.0047 -0.0255  0.1961
30481W        W73394   3.589   3.370  22.148 -0.1295  0.1578  0.2991
30482W        W73395   2.954   4.455  18.033  0.0441  0.0025  0.0692
30483W        W73396   7.342  31.761  21.268  0.0909  0.3669  0.1384
30484W        W73397  27.431   4.071  18.291  0.3086 -0.0276 -0.3072
30485W        W73398  23.505  21.703  23.305 -0.0194 -0.0528  0.0886
30486W        W73399  29.292  10.621  27.251 -0.3559 -0.1129  0.0947
30487W        W73400  29.862  31.381  16.372 -0.1026  0.0625 -0.1976
30488W        W73401  30.022  30.666  24.333  0.1009 -0.1848  0.2448
30489W        W73402   1.270  32.986  17.787 -0.0599  0.0929 -0.2335
30490W        W73403   0.961  31.398  24.160  0.0493  0.0555  0.1252
30491W        W73404  28.495   8.759   0.239  0.2195  0.0464  0.4249
30492W        W73405  27.877  31.291  22.295 -0.3539  0.1012  0.1697
30493W        W73406   3.483   1.912  17.104  0.0008  0.2278  0.1638
30494W        W73407  23.322  31.634  16.306  0.3558  0.1753 -0.3511
30495W        W73408  30.027  33.736  14.789  0.0451 -0.0288 -0.0527
30496W        W73409   0.002   4.696  21.430 -0.3532 -0.1038  0.1834
30497W        W73410  29.253   0.856  23.598  0.0935  0.4280 -0.2955
30498W        W73411   7.729  33.947  20.698 -0.3206 -0.2684  0.0262
30499W        W73412  29.558   1.938  18.864 -0.1607 -0.0216 -0.3981
30500W        W73413  19.628   3.658  25.279  0.2555  0.0731  0.2639
30501W        W73414  26.096   8.214  18.386 -0.0012 -0.1941  0.2385
30502W        W73415  30.520  25.705  18.764  0.3013 -0.1112 -0.1696
30503W        W73416  29.435   0.332   2.032  0.0738  0.0437 -0.0463
30504W        W73417  33.963  29.541  14.701  0.0571 -0.1815 -0.0796
30505W        W73418   1.843  31.736  20.317  0.1004  0.4127 -0.0769
30506W        W73419  28.286  27.273  14.047 -0.0341 -0.2387 -0.0387
30507W        W73420  20.786  33.538  19.384  0.0465  0.1776 -0.2219
30508W        W73421  28.916  32.569  24.487  0.0987 -0.0647 -0.0771
30509W        W73422  29.308   5.243  21.695  0.0403  0.2972 -0.0573
30510W        W73423  25.437  25.248  18.230 -0.0662  0.0448  0.1374
30511W        W73424  28.125   5.344  14.962 -0.1063 -0.0293  0.1406
30512W        W73425  22.460  24.690  29.607 -0.2123  0.1074 -0.0097
30513W        W73426  25.975   0.416  19.624  0.0871 -0.0511  0.1405
30514W        W73427  26.021   1.544  15.874  0.1222 -0.2581 -0.0625
30515W        W73428  28.207  23.027   5.394 -0.1044  0.0798  0.0632
30516W        W73429  28.364  33.398  27.182 -0.1387 -0.2504 -0.2238
30517W        W73430  20.356   4.904  28.629 -0.1165  0.0648 -0.0247
30518W        W73431   3.580   1.612  17.496  0.1294  0.0147 -0.1645
30519W        W73432  20.459  33.999  18.023  0.0006  0.0552 -0.3141
30520W        W73433  32.467   1.289  23.484  0.2305  0.0383 -0.3588
30521W        W73434  22.049  33.043  20.421  0.4821  0.0703  0.1330
30522W        W73435  24.854  34.193  18.609 -0.0018  0.0011  0.1038
30523W        W73436  24.518   6.594  24.581  0.0999  0.2139  0.0637
30524W        W73437  23.395  29.339  13.710  0.2500 -0.1303  0.0276
30525W        W73438  28.445   3.019  17.893  0.1633  0.2197 -0.0979
30526W        W73439  27.941   9.500  19.696 -0.1226 -0.0560  0.0604
30527W        W73440  17.228   4.334  24.235  0.2743 -0.0883 -0.2289
30528W        W73441  33.261   0.408  15.121 -0.0688 -0.3979  0.3587
30529W        W73442  21.502  16.328  29.117  0.3130 -0.1571 -0.1456
30530W        W73443  27.717   3.107  28.609 -0.1608  0.0935 -0.2250
30531W        W73444   1.083  25.086  16.264 -0.1772  0.0123  0.0588
30532W        W73445   3.336  26.562  20.207 -0.0695  0.4351  0.0776
30533W        W73446  26.428  33.218  19.927  0.1687 -0.0544  0.2541
30534W        W73447  28.102  30.487  25.610  0.0340 -0.1146  0.0050
30535W        W73448  23.649   6.105  24.589 -0.1491 -0.1806 -0.0751
30536W        W73449  28.061  16.104  19.123 -0.1849 -0.0843  0.4458
30537W        W73450  32.872  27.803  18.208 -0.2146 -0.1743  0.1103
30538W        W73451   1.835  27.703  28.321  0.3350 -0.1251 -0.2598
30539W        W73452  29.701  31.384  20.414  0.0064 -0.2639 -0.3536
30540W        W73453  31.695   1.980   1.670 -0.0392  0.0703  0.2583
30541W        W73454  23.698  11.578   5.263  0.0227  0.1893 -0.1381
30542W        W73455  22.687   1.340   7.144 -0.0053  0.2428 -0.0778
30543W        W73456  32.021  34.402  18.121  0.2543  0.2140  0.5284
30544W        W73457  30.770   7.784  16.204 -0.3709 -0.0335 -0.1045
30545W        W73458  28.687  10.366  16.284 -0.2031  0.2434 -0.1548
30546W        W73459  34.424  32.476  19.479 -0.1142 -0.0484 -0.2873
30547W        W73460  22.467  34.011  13.916 -0.0206 -0.0150 -0.2987
30548W        W73461  34.102  30.014  14.730 -0.1686 -0.3348  0.0684
30549W        W73462  33.240   1.323  20.903 -0.3696  0.0386 -0.0876
30550W        W73463  26.231   4.068   3.774 -0.1146  0.0344 -0.0224
30551W        W73464  32.805   2.903  21.365 -0.0969 -0.1594 -0.2932
30552W        W73465  26.544  10.101  18.111 -0.2498  0.1625  0.0694
30553W        W73466  32.548   3.508  22.060  0.1378 -0.0088 -0.0382
30554W        W73467  28.102   5.463  15.513 -0.0375  0.1808 -0.0170
30555W        W73468  29.801   3.313  18.987  0.2293 -0.1311 -0.0048
30556W        W73469  34.384  31.734  14.643 -0.4234  0.0257  0.0778
30557W        W73470  24.809   1.244  20.903  0.1703  0.1541 -0.0467
30558W        W73471   2.742  30.597  18.369 -0.1743 -0.0619 -0.1795
30559W        W73472  26.259   4.741  23.702  0.1228  0.2422 -0.1930
30560W        W73473  30.018  11.008  18.673  0.1592 -0.1886 -0.0100
30561W        W73474  22.903   5.478  27.172  0.2260  0.3365 -0.0706
30562W        W73475  33.679  27.860  21.115  0.0655 -0.3783  0.1480
30563W        W73476  18.519  31.822  20.170  0.0362 -0.3388 -0.1375
30564W        W73477  27.253  30.410  14.176 -0.0530  0.3931  0.2725
30565W        W73478  26.945  29.978  23.776 -0.2116  0.1247 -0.0102
30566W        W73479  32.608  14.722  17.865 -0.1833  0.0622  0.1507
30567W        W73480   1.950  33.790  19.568  0.1134  0.2113  0.2854
30568W        W73481  29.130   4.514  25.723  0.1327  0.1565  0.2096
30569W        W73482  26.907   1.970  16.124 -0.0592  0.1615 -0.0191
30570W        W73483  27.999  33.633  17.392 -0.2330  0.2202 -0.0767
30571W        W73484  30.893  33.199  16.560  0.0367  0.2783 -0.3182
30572W        W73485   6.056  29.074  23.633 -0.1853 -0.1788 -0.0621
30573W        W73486  27.290  32.055  26.988 -0.1670 -0.2221  0.0499
30574W        W73487  32.033  28.396  16.669 -0.1584  0.0597  0.0205
30575W        W73488   1.274   1.095  16.986 -0.0787 -0.0695 -0.1941
30576W        W73489  28.342  15.028  19.616  0.1686 -0.0606 -0.2125
30577W        W73490  30.414   5.136   0.779 -0.3880 -0.1595 -0.1165
30578W        W73491  30.548   4.766  19.184 -0.1316  0.1428  0.1248
30579W        W73492   0.571  30.739  15.056  0.3122  0.0142 -0.1695
30580W        W73493  28.334  28.748  17.613 -0.0480 -0.1056  0.0067
30581W        W73494   2.694  29.190  24.765  0.1064 -0.0360 -0.1624
30582W        W73495  31.250  27.276  17.579  0.2122  0.0653  0.2102
30583W        W73496  31.364  12.149   0.021  0.3222  0.0065  0.0713
30584W        W73497  34.471   6.023  17.747  0.1311 -0.1321  0.1209
30585W        W73498   2.676   9.999  23.469  0.1426  0.2057  0.1171
30586W        W73499   4.624  28.491  27.621 -0.1935 -0.3518 -0.0246
30587W        W73500  32.245  10.145  28.902 -0.0334  0.0826  0.3419
30588W        W73501  23.052  30.746  25.418 -0.3347  0.0451  0.2487
30589W        W73502  21.704  30.636  24.527 -0.1002 -0.0361 -0.4135
30590W        W73503  30.446  34.080  24.133 -0.1563 -0.0905  0.0307
30591W        W73504  25.941   2.660  16.792 -0.0395 -0.0089 -0.2111
30592W        W73505  27.375  11.748  24.257 -0.0765 -0.2064 -0.0562
30593W        W73506  30.101   7.801  19.928  0.0817  0.0722 -0.0408
30594W        W73507  34.087  30.037  23.274  0.1300 -0.4346 -0.0370
30595W        W73508  31.324  33.826  17.556 -0.3064  0.3260  0.0805
30596W        W73509  31.441  32.467  18.050 -0.1756  0.2201 -0.2255
30597W        W73510   3.992  25.126  18.635  0.1543  0.1263 -0.0229
30598W        W73511   3.261  27.877  21.383  0.3304 -0.0004 -0.1465
30599W        W73512  29.616  26.191  14.593  0.2706  0.0246  0.1132
30600W        W73513   5.055   4.217  18.548  0.1729  0.2951 -0.0324
30601W        W73514  20.325   5.153  14.009 -0.0903 -0.1365  0.1577
30602W        W73515  23.349  31.977  19.805 -0.3907 -0.0422 -0.0315
30603W        W73516  32.187  33.776  16.313  0.0294 -0.2881 -0.2655
30604W        W73517  23.879   3.867  14.850 -0.2563  0.3409  0.2114
30605W        W73518  30.061   1.228  19.405  0.0406  0.0367  0.0630
30606W        W73519  32.160  32.219  25.064 -0.2326  0.1169  0.0633
30607W        W73520  20.940   6.804  19.135 -0.0219 -0.0692  0.2961
30608W        W73521  22.170   4.362  22.669  0.2866  0.1035  0.1938
30609W        W73522  32.144   3.584  16.007  0.0043  0.1419  0.0181
30610W        W73523  30.922  19.175  14.884 -0.1041 -0.0173 -0.0863
30611W        W73524  25.940  34.099  27.119 -0.0103  0.1156  0.0058
30612W        W73525   2.179   6.080  17.353  0.3077  0.1422 -0.0677
30613W        W73526  30.684   0.369  21.302 -0.2771  0.3897  0.4280
30614W        W73527  30.914   4.088  15.497 -0.2828  0.0053 -0.0023
30615W        W73528  26.711   6.497  19.598 -0.3003 -0.1458  0.3591
30616W        W73529  27.279  34.394  18.873  0.0572  0.1405 -0.2222
30617W        W73530   8.155  26.465  18.391 -0.0540  0.3128  0.0459
30618W        W73531  29.209  11.147  26.657  0.0256 -0.2913  0.0324
30619W        W73532  27.102   2.015  16.881 -0.1705 -0.0216  0.1691
30620W        W73533  31.895   4.291  18.862  0.2016 -0.2802  0.0340
30621W        W73534  22.762  30.714  27.200  0.2205  0.3265  0.0058
30622W        W73535  34.288   8.931  22.153 -0.1196 -0.0918  0.3964
30623W        W73536  30.762  33.876  19.284  0.0960 -0.0349 -0.0252
30624W        W73537  28.547  10.780  19.125  0.1931  0.0360  0.1316
30625W        W73538  26.815   0.751  16.270  0.4796  0.2566 -0.3253
30626W        W73539   1.311  27.310  13.942  0.0965  0.0575 -0.1948
30627W        W73540  28.236   2.106  22.959  0.0569 -0.0679 -0.2103
30628W        W73541  25.673  25.693  14.300  0.3553  0.4525  0.0362
30629W        W73542  26.864  29.299  24.439  0.1870 -0.2541 -0.0478
30630W        W73543   4.455   2.845  22.595 -0.2415  0.0760  0.1222
30631W        W73544  28.864  31.713  18.354 -0.0506  0.0741 -0.0167
30632W        W73545  11.668   0.684  25.583 -0.0262 -0.0352 -0.1954
30633W        W73546  33.487  10.299  28.063  0.2580  0.0439 -0.2265
30634W        W73547  25.966   5.868  22.783 -0.3283  0.1599  0.1180
30635W        W73548  21.258  34.152  17.205 -0.2571  0.1264 -0.1465
30636W        W73549  26.420  28.985  25.512 -0.0129 -0.1473 -0.1457
30637W        W73550  30.368   0.990  20.416 -0.2593 -0.1737  0.1754
30638W        W73551  28.315  20.730  17.371 -0.0853 -0.0563 -0.1225
30639W        W73552   6.933  34.040  29.288 -0.4963 -0.2610 -0.1301
30640W        W73553  21.764   7.538  19.016 -0.2500  0.0219 -0.1764
30641W        W73554  29.868   3.670  22.046 -0.1916  0.0557  0.3087
30642W        W73555  20.875   0.968  21.464  0.0376  0.1865 -0.0737
30643W        W73556  29.685  27.493  16.456 -0.4639 -0.3597 -0.2245
30644W        W73557  13.726  10.789  18.707  0.0840 -0.1518  0.1866
30645W        W73558   4.348   9.564  23.914 -0.3038 -0.1828 -0.3346
30646W        W73559  17.035   9.090  12.963 -0.0863  0.0780 -0.0111
30647W        W73560  31.029   1.303  16.507  0.0545  0.0175  0.1484
30648W        W73561  29.580  26.478  14.104 -0.0757 -0.1460 -0.2043
30649W        W73562   1.238  29.715  20.222  0.1362 -0.1502  0.1978
30650W        W73563  22.250   7.608  16.782  0.2488 -0.1619  0.0423
30651W        W73564  23.578  27.886  27.084  0.0141 -0.2189  0.0897
30652W        W73565  21.550  29.621  17.208 -0.1063  0.2000  0.1435
30653W        W73566  12.134   4.751  27.483 -0.3182  0.1543 -0.1450
30654W        W73567  31.844   5.591  18.640  0.0461  0.2476  0.1046
30655W        W73568  20.563   1.144  26.969  0.3050  0.2223  0.2815
30656W        W73569  31.039  30.910  26.316 -0.1020 -0.0266  0.0015
30657W        W73570  23.971  10.845  22.163 -0.3213 -0.0121  0.1666
30658W        W73571  28.853  29.182  14.320  0.1243 -0.0601 -0.2186
30659W        W73572  27.073  10.850  19.233  0.0569 -0.0000  0.0215
30660W        W73573  26.837   3.110  21.730 -0.0435  0.0980 -0.3562
30661W        W73574  27.350   3.132  25.182 -0.0459  0.3459 -0.4291
30662W        W73575  31.693  32.444  21.167 -0.3274  0.3157 -0.1309
30663W        W73576  31.303   1.413  22.052 -0.2042  0.3356 -0.1515
30664W        W73577  34.063  26.455  22.152 -0.0244  0.0247  0.0830
30665W        W73578  31.366   5.789  20.246  0.1446 -0.0014 -0.0677
30666W        W73579  24.012  10.661  15.045 -0.0038 -0.2049 -0.3157
30667W        W73580  32.158  19.565  18.116 -0.0130 -0.0381 -0.0222
30668W        W73581   3.489  15.797  15.595  0.0443 -0.1263 -0.2426
30669W        W73582   0.445  26.466  24.830  0.1626  0.1215 -0.0334
30670W        W73583  32.016  30.971   1.506 -0.4615  0.0631 -0.1390
30671W        W73584  28.818  33.403  22.413 -0.1508  0.0840 -0.3327
30672W        W73585  28.116   5.608  18.500  0.1474 -0.2816  0.0713
30673W        W73586  33.193  29.920  14.201  0.3831 -0.0082  0.1369
30674W        W73587  19.384  32.544  24.151 -0.1228 -0.1327 -0.1724
30675W        W73588   3.218  20.895   0.680  0.3083 -0.0653 -0.2323
30676W        W73589  32.615   0.227  23.702  0.0571 -0.3630 -0.1381
30677W        W73590  30.133   2.804  20.183 -0.2854 -0.0756  0.1440
30678W        W73591  28.498   6.160  17.271 -0.1775  0.2381  0.2277
30679W        W73592   1.624  33.027  22.567  0.0885 -0.1517  0.2133
30680W        W73593  13.982  27.433  18.529  0.4639  0.0491 -0.1392
30681W        W73594   4.467   3.628  25.045 -0.1608 -0.2996 -0.1537
30682W        W73595   3.618  31.963  25.405 -0.0648 -0.0696 -0.1951
30683W        W73596  31.777   3.580  20.178  0.0234 -0.2996 -0.0132
30684W        W73597   0.571  31.478  23.728  0.0772 -0.1636 -0.2850
30685W        W73598  16.846  14.060   6.621  0.0246  0.5287  0.0910
30686W        W73599  27.186  18.745  21.986 -0.3507 -0.3264  0.2451
30687W        W73600  24.052   1.449  22.646  0.1680  0.2672  0.0365
30688W        W73601  27.537   8.880  23.610  0.2434 -0.1523  0.0057
30689W        W73602   3.613   4.896  24.661 -0.2259  0.0555  0.1379
30690W        W73603  24.085  13.588  23.578 -0.0004 -0.3987 -0.0006
30691W        W73604  16.604  21.441   3.426 -0.0341  0.1076 -0.0051
30692W        W73605  24.533  33.375  17.925  0.3828  0.3706  0.0019
30693W        W73606  30.252  32.538  28.070 -0.0334 -0.1166  0.1849
30694W        W73607  30.152  33.103  28.105  0.0520 -0.1968 -0.0775
30695W        W73608  20.285   9.488  27.923 -0.1034 -0.0262  0.1805
30696W        W73609   0.846   2.819  17.187  0.3198 -0.0536 -0.2770
30697W        W73610   3.853   2.387  26.590 -0.3816  0.1608 -0.0629
30698W        W73611  29.370  31.825  26.697 -0.0396  0.2581 -0.3960
30699W        W73612  30.524   8.606   9.263 -0.1662 -0.3086  0.0205
30700W        W73613  20.555  31.524   3.198 -0.1997 -0.0556  0.0973
30701W        W73614  25.754   4.442  23.852  0.0146 -0.2082 -0.0653
30702W        W73615  25.062   1.761  20.757  0.0053 -0.5262 -0.1152
30703W        W73616  26.479   7.602  19.033  0.1801 -0.0033  0.1715
30704W        W73617   0.761   1.609  15.324  0.1621 -0.0852  0.1102
30705W        W73618  25.399   9.435  24.120  0.2602 -0.2570  0.3125
30706W        W73619  20.642  25.367  22.182 -0.4452  0.2228 -0.0259
30707W        W73620  26.402  33.620  29.001  0.0635 -0.1378 -0.0962
30708W        W73621  30.000   7.712   4.958 -0.2076 -0.1457  0.2786
30709W        W73622  24.604  13.123  20.537  0.0296  0.1800 -0.2845
30710W        W73623  22.854  34.162  26.807 -0.0261 -0.1283 -0.1944
30711W        W73624  22.880  20.795  11.892 -0.1138 -0.1457  0.3932
30712W        W73625  29.216   5.260  22.213  0.4027  0.0553 -0.0340
30713W        W73626  24.780  10.510  16.619 -0.0645 -0.0010  0.0687
30714W        W73627  29.993  31.057  16.791 -0.1519  0.1995 -0.0590
30715W        W73628   2.082  27.652  20.570  0.0787  0.0849 -0.1720
30716W        W73629   0.487   8.621  18.361 -0.0076  0.1506 -0.0208
30717W        W73630  32.332  32.295  18.937 -0.1302  0.1530  0.0249
30718W        W73631  18.296   6.476   1.309 -0.1177 -0.0192 -0.0285
30719W        W73632  32.046  28.311  17.454 -0.2680  0.2271  0.2394
30720W        W73633  32.159  21.653  22.005 -0.2528  0.3636 -0.1702
30721W        W73634  23.293  32.266   4.661 -0.1009 -0.1672 -0.2625
30722W        W73635  11.052   2.466  22.815  0.4056 -0.2230 -0.0856
30723W        W73636  28.736   2.256   4.511  0.0667 -0.0390  0.1434
30724W        W73637  29.039   6.351  14.734  0.0204  0.2230 -0.1469
30725W        W73638  33.903   7.958  19.648 -0.1916 -0.1314 -0.0680
30726W        W73639   1.749  30.134  27.609  0.0804  0.1916  0.0113
30727W        W73640   9.154   5.799  26.830  0.0523 -0.1482 -0.1158
30728W        W73641  29.976  33.459  19.920 -0.2570 -0.1907 -0.0042
30729W        W73642  27.023  33.755  25.712  0.2791 -0.1015  0.5423
30730W        W73643  30.860  29.564  16.134  0.2554 -0.1554 -0.0740
30731W        W73644  31.679   9.541  23.171 -0.1558 -0.1087 -0.0605
30732W        W73645   1.027  31.909  23.805 -0.1047 -0.1621 -0.1064
30733W        W73646  26.823   8.190  25.101 -0.1271  0.1299 -0.0588
30734W        W73647  11.800   2.085  18.188  0.0296 -0.1445  0.2493
30735W        W73648  32.149  10.321  28.095 -0.3823  0.1518  0.0416
30736W        W73649  26.713  25.479  15.145  0.0318 -0.0127  0.1147
30737W        W73650   6.762   1.983  28.007  0.1418  0.1327 -0.1381
30738W        W73651  30.318   0.102   5.770  0.0985 -0.2903  0.0670
30739W        W73652  27.261  33.218  17.751 -0.0387 -0.0448  0.0200
30740W        W73653  31.255  27.731  27.027  0.4148 -0.1538  0.1517
30741W        W73654   0.286  28.493  24.824  0.1416 -0.1925 -0.1082
30742W        W73655   2.823  26.190   3.239  0.0080 -0.1270 -0.1662
30743W        W73656  22.764  34.031   6.789  0.1478  0.2912 -0.0268
30744W        W73657  18.856   6.121  25.268  0.3064 -0.2194 -0.1904
30745W        W73658  26.531  26.233  12.980  0.0193  0.1958 -0.1476
30746W        W73659   2.866   3.599  17.430 -0.1739  0.0210 -0.0202
30747W        W73660  17.459  29.970   0.504 -0.2694  0.2326  0.1233
30748W        W73661   2.579   1.693  28.423 -0.0850  0.0550  0.1189
30749W        W73662  28.810   6.560  28.803  0.0362  0.2543  0.0413
30750W        W73663  29.750   4.498  19.774 -0.4801  0.0131  0.0409
30751W        W73664   4.945  33.854  25.395 -0.2224  0.0526  0.0207
30752W        W73665  30.738   1.413  18.905 -0.1525  0.2016  0.2049
30753W        W73666   8.474   9.883  18.382 -0.0288 -0.2844  0.1221
30754W        W73667  26.411  29.837  15.570  0.1472 -0.0995  0.2799
30755W        W73668  24.838  27.990  17.502 -0.1082  0.0246  0.0641
30756W        W73669  21.832  32.146  21.908  0.0258 -0.0956 -0.1123
30757W        W73670  26.198  28.940  19.981 -0.1852 -0.1250 -0.0824
30758W        W73671  26.790  10.345  22.133 -0.2658  0.3348 -0.0683
30759W        W73672  28.760   6.704  19.645  0.3473  0.2839 -0.1986
30760W        W73673  23.087   4.123  19.682  0.0924  0.2031  0.0756
30761W        W73674  23.256   0.474  18.613  0.0233  0.1868 -0.0452
30762W        W73675  21.707   7.733  16.671  0.3887 -0.0212 -0.3432
30763W        W73676  32.243   2.337  22.017 -0.1762 -0.1029  0.2320
30764W        W73677  29.904   1.803  16.843  0.0458  0.0062 -0.1415
30765W        W73678  31.644  32.143  16.007  0.0066  0.2339 -0.2019
30766W        W73679  25.314  32.799  16.004 -0.1631  0.2803  0.0668
30767W        W73680  22.260   3.088  26.272 -0.1806 -0.0075 -0.3066
30768W        W73681   8.658   1.149  18.994  0.2880 -0.1574  0.1931
30769W        W73682  30.425   5.131  21.292  0.0745  0.1785 -0.2274
30770W        W73683  26.800   4.204  15.064  0.0075  0.2759 -0.1098
30771W        W73684  29.989   0.725   1.240  0.0004 -0.1585 -0.0719
30772W        W73685   3.947  23.106  19.980  0.0634 -0.1830 -0.5064
30773W        W73686  26.010  15.341  21.250  0.0915 -0.0014  0.0583
30774W        W73687  26.622  10.672  21.415 -0.1821 -0.0481 -0.0026
30775W        W73688   0.077  10.483  16.631 -0.0390  0.0513 -0.1131
30776W        W73689  29.034  20.751  14.216 -0.0328 -0.0203 -0.1392
30777W        W73690   1.341   1.456  28.213 -0.2127  0.1421 -0.0946
30778W        W73691  27.188  32.494  28.237 -0.0001  0.0899 -0.0562
30779W        W73692   8.641  30.809  17.887  0.2032  0.3320  0.0620
30780W        W73693  31.499  32.546  21.696  0.0089 -0.0446 -0.0349
30781W        W73694   1.007   6.313  19.600  0.1207 -0.1203 -0.0336
30782W        W73695  28.733  22.440  21.871 -0.0552  0.4459  0.2150
30783W        W73696  31.582   5.668  20.774  0.1574 -0.0584  0.0916
30784W        W73697  23.924   7.617  18.528  0.0103 -0.2833 -0.0836
30785W        W73698  29.008   0.656  21.254 -0.2425 -0.2098 -0.0726
30786W        W73699  26.667   0.186  15.058 -0.0248 -0.1419 -0.1482
30787W        W73700  31.405  32.780  27.563  0.0964  0.2927 -0.2053
30788W        W73701  23.793  26.715  18.540  0.1049  0.1233 -0.3904
30789W        W73702  29.237  14.147  19.058 -0.0460  0.1217 -0.1528
30790W        W73703  33.924   6.997  22.661  0.1760 -0.1634  0.1086
30791W        W73704  29.843   0.172  21.468 -0.0030 -0.2249  0.0549
30792W        W73705   2.001   3.320  21.312 -0.0397 -0.1709 -0.0309
30793W        W73706  28.526  27.676  22.744 -0.2010 -0.1591  0.2228
30794W        W73707  25.169  15.631  25.254 -0.4692 -0.2871  0.1696
30795W        W73708  11.354   3.471  20.439  0.0470  0.1077 -0.1040
30796W        W73709  22.600   8.000  26.999  0.2773 -0.1343 -0.1483
30797W        W73710  31.857  29.577  17.490 -0.0113  0.1844  0.0871
30798W        W73711   1.945   3.822   0.160 -0.1372  0.0560 -0.0726
30799W        W73712   3.985   1.372  23.099 -0.1300 -0.2238  0.0484
30800W        W73713  29.314   9.115  29.373  0.1876  0.0483  0.1406
30801W        W73714  26.349  10.022  19.827  0.2372  0.1194  0.0271
30802W        W73715   1.549  29.958  18.252  0.2683 -0.0791  0.1033
30803W        W73716  15.901   1.627  17.873  0.2814 -0.0214 -0.0436
30804W        W73717  31.432   9.125  27.983  0.0904 -0.2272 -0.0334
30805W        W73718  32.030   0.907  18.924  0.1300 -0.0432 -0.1216
30806W        W73719   9.056  12.453  24.848 -0.2695  0.3312 -0.1630
30807W        W73720  26.525  28.457   2.653 -0.4488 -0.0118 -0.2800
30808W        W73721  27.485   9.467  24.884 -0.0978  0.0556  0.3291
30809W        W73722  20.555   4.542  23.016  0.1010 -0.2494 -0.0111
30810W        W73723   4.581  12.070  25.270 -0.0889  0.0894 -0.1264
30811W        W73724  28.995  11.476  23.077  0.2249  0.0225  0.0481
30812W        W73725  25.250   4.575  27.406  0.1934  0.0863  0.1300
30813W        W73726  25.970   4.491  19.788 -0.0228 -0.3252 -0.1456
30814W        W73727   0.891  32.536  21.085  0.2461 -0.1683  0.2316
30815W        W73728  29.893  26.241  21.641 -0.0871  0.0501  0.0361
30816W        W73729  32.306  32.934  27.234 -0.1154  0.3468 -0.1088
30817W        W73730  23.277  26.121  21.347  0.0501  0.2811 -0.0648
30818W        W73731   5.551  10.012  21.079  0.1187 -0.2395  0.0909
30819W        W73732  29.016  29.148  25.611 -0.1326  0.5072  0.2402
30820W        W73733  33.169  31.403  27.685 -0.3598  0.0438  0.1931
30821W        W73734  27.215   2.437  15.314 -0.2394 -0.2581 -0.0839
30822W        W73735  19.441  13.296  23.875  0.1106  0.0000 -0.1532
30823W        W73736  32.571   8.400  17.666 -0.0298  0.0267  0.0523
30824W        W73737  29.556   7.418  22.418 -0.2015  0.1677  0.1348
30825W        W73738  29.580  30.769  22.887 -0.3444  0.1072  0.1872
30826W        W73739   0.366   5.483  18.886  0.2194  0.1129  0.0069
30827W        W73740   0.076  28.621  19.400  0.1658  0.3249 -0.0707
30828W        W73741  27.595  33.351  15.061 -0.1483  0.0759 -0.0629
30829W        W73742  28.540  16.698  17.397  0.1708  0.4294  0.2453
30830W        W73743  24.119  32.741  16.661 -0.0966  0.1209 -0.0859
30831W        W73744  21.521  31.340  28.305  0.0194 -0.0230 -0.0606
30832W        W73745  27.472  14.560  29.394  0.2917  0.3136  0.2146
30833W        W73746   7.084   5.981  22.809 -0.1791  0.3370 -0.0735
30834W        W73747  21.149  23.549  12.284 -0.1258  0.4732  0.2503
30835W        W73748  25.205  27.334  12.170 -0.2446 -0.3345 -0.0892
30836W        W73749   1.505   1.761  21.405  0.1133  0.0826  0.2406
30837W        W73750   4.637  30.562   2.965 -0.2267  0.3455  0.3243
30838W        W73751  21.648   9.460  15.267 -0.1139 -0.1016 -0.0178
30839W        W73752  31.703  14.492  14.825  0.4202  0.1589  0.1329
30840W        W73753  28.744  29.302  20.541  0.1696 -0.0407 -0.2992
30841W        W73754  26.994   1.155  19.369 -0.1563  0.1131  0.0479
30842W        W73755   6.206  14.945  18.171 -0.1245  0.0926 -0.0718
30843W        W73756  25.636  33.408  27.693  0.1168  0.0509  0.0435
30844W        W73757   2.429   0.747  18.303 -0.2791 -0.3067  0.1643
30845W        W73758   1.326   8.033  16.225 -0.2310 -0.2261 -0.1194
30846W        W73759  28.480  33.422  19.888 -0.0037 -0.3458 -0.1780
30847W        W73760   4.021  32.634  16.133 -0.0821 -0.1215 -0.0717
30848W        W73761  28.822  13.633  21.235 -0.0377 -0.2066  0.1342
30849W        W73762  33.379   3.123  26.960 -0.1578  0.0988  0.0929
30850W        W73763  29.391  13.889  13.979 -0.0792  0.1211  0.1154
30851W        W73764  27.728   5.064   7.657  0.1147 -0.3408 -0.0563
30852W        W73765  18.383   3.760  25.416  0.2113 -0.1050 -0.1749
30853W        W73766  28.219   7.595  23.555 -0.0867 -0.0507  0.0552
30854W        W73767   5.022   9.943  22.300  0.0232  0.1289  0.2510
30855W        W73768  29.384   2.355   2.736  0.0176  0.1367  0.2368
30856W        W73769  33.225   1.864  25.316  0.0222 -0.1548  0.3341
30857W        W73770  27.621   0.277   2.839 -0.1607 -0.1502  0.1139
30858W        W73771  28.324   8.407  26.472  0.0550 -0.0521 -0.0612
30859W        W73772  24.621  32.105  25.656 -0.2712 -0.2939 -0.0489
30860W        W73773  28.973   7.472  21.601 -0.1371 -0.0732 -0.0025
30861W        W73774  24.134  28.986  19.584 -0.0630 -0.0645  0.1387
30862W        W73775  23.810  32.975  18.256  0.1729  0.0464  0.1404
30863W        W73776  22.137   0.819  24.015 -0.1896  0.0247  0.0247
30864W        W73777  29.650   0.790  28.804 -0.0666  0.0782 -0.1875
30865W        W73778  26.465   4.535  14.169  0.3749 -0.2167 -0.0846
30866W        W73779   5.616   5.098  18.634 -0.0310  0.3896  0.1324
30867W        W73780  33.284  14.626  17.376 -0.2076  0.0797 -0.1998
30868W        W73781  27.376  16.690  17.922 -0.0647 -0.4324 -0.0736
30869W        W73782   1.711   3.009  17.549 -0.1958 -0.1213 -0.2922
30870W        W73783  27.939  31.009  21.037 -0.0641 -0.1183 -0.0790
30871W        W73784  26.431  14.047  18.259  0.1753  0.0117  0.2803
30872W        W73785  30.860   4.613  17.871 -0.2828 -0.3736 -0.1527
30873W        W73786   2.238  34.287  24.290 -0.2858 -0.0072 -0.0465
30874W        W73787  24.492  32.707  28.867 -0.0719 -0.0088 -0.3418
30875W        W73788   0.917   4.443  22.214  0.0717 -0.3780 -0.1223
30876W        W73789  25.756   7.733  20.151  0.1998  0.2907 -0.0505
30877W        W73790  24.460   9.578  15.032  0.0524  0.0756 -0.2917
30878W        W73791  29.138  34.213  19.553  0.1731 -0.0773  0.0393
30879W        W73792  32.634   9.433  28.641 -0.0879 -0.2823 -0.1995
30880W        W73793   0.620   1.177  23.598 -0.0187 -0.0159  0.1364
30881W        W73794  28.626  33.051  18.400 -0.0384 -0.0509 -0.2056
30882W        W73795  19.502   0.242   4.446  0.4039  0.3422 -0.3201
30883W        W73796  21.199   6.053   3.255 -0.3209  0.2536  0.0521
30884W        W73797  25.572  31.592  17.634 -0.1249  0.0733 -0.0003
30885W        W73798   8.600   6.536  21.178 -0.2960  0.0707 -0.2741
30886W        W73799  24.467   1.398  23.771 -0.1256  0.2965 -0.1108
30887W        W73800  29.857   1.403  23.460 -0.2694  0.1256  0.0227
30888W        W73801  28.128  31.323  14.570 -0.0863 -0.0212 -0.0295
30889W        W73802  29.105   2.666  22.633 -0.0808 -0.2095 -0.0529
30890W        W73803  28.740  30.209  16.862 -0.1607  0.3482 -0.2261
30891W        W73804  14.105   3.525  27.620  0.0421  0.0398 -0.1528
30892W        W73805  19.644   6.941  13.670  0.2459  0.0131  0.0311
30893W        W73806  21.573   0.026   1.223 -0.0309 -0.0848  0.0197
30894W        W73807  19.235  33.531  21.602 -0.6257 -0.2272  0.0538
30895W        W73808  27.873  10.222  27.332 -0.2766  0.1978 -0.1293
30896W        W73809  25.946  32.952  22.958  0.1062 -0.0759  0.1759
30897W        W73810  25.297   7.049  14.979  0.1745 -0.1045  0.1252
30898W        W73811   0.440   5.838  23.248 -0.0247 -0.1165  0.1659
30899W        W73812  28.420   3.911  26.710  0.0780  0.0571  0.0792
30900W        W73813  22.772   7.676  22.121 -0.0089  0.2431  0.4051
30901W        W73814  31.787   8.638  21.955  0.0259 -0.0819 -0.0903
30902W        W73815   2.636  25.542  16.445  0.0425  0.1290 -0.1189
30903W        W73816   1.591  33.059  19.201  0.2457  0.1056  0.1944
30904W        W73817  25.728   0.068  21.100 -0.0886 -0.1161 -0.1514
30905W        W73818  29.694  24.847  21.592 -0.2853  0.0169 -0.0531
30906W        W73819   6.088   3.296  11.679  0.3100  0.0168 -0.3509
30907W        W73820  27.935   8.455  18.844  0.0621  0.2033 -0.0626
30908W        W73821  29.165   2.306   4.999 -0.1706  0.0752  0.0296
30909W        W73822  32.483  18.658  14.873 -0.2130  0.0569  0.0940
30910W        W73823  24.908  32.808  27.556 -0.0428  0.1856 -0.0224
30911W        W73824  32.992   7.934  24.725  0.2345  0.0803  0.1937
30912W        W73825  26.395  22.415  23.904 -0.0066 -0.2905  0.1957
30913W        W73826  21.023  30.499   0.868  0.0706 -0.0399 -0.1628
30914W        W73827  25.867   8.591  16.942 -0.0709  0.0391  0.3169
30915W        W73828  28.848   1.143  16.802 -0.0318  0.0482  0.1134
30916W        W73829  31.394   1.178  25.521 -0.0805 -0.2174 -0.2017
30917W        W73830  25.972  26.298  28.164  0.1975  0.2588  0.2618
30918W        W73831  29.472   9.942  23.657  0.1014 -0.0137  0.0805
30919W        W73832  32.936   4.205  23.834 -0.4684  0.2778  0.0213
30920W        W73833  23.080   8.114  23.982 -0.2108 -0.3319  0.0311
30921W        W73834  21.115   5.624  28.802 -0.1760 -0.2649 -0.0575
30922W        W73835   2.683   4.113   4.231  0.0042  0.0986  0.2728
30923W        W73836  22.681  10.475  13.989 -0.1712 -0.1320  0.0339
30924W        W73837  28.042   3.383  15.353 -0.1490 -0.1541  0.1927
30925W        W73838  19.010   3.451  26.313  0.0854 -0.0674 -0.2197
30926W        W73839  32.558   3.482  16.304 -0.2468  0.0440  0.0701
30927W        W73840  20.008  22.229  14.959 -0.0170 -0.2832  0.0096
30928W        W73841  23.562  34.449  23.779  0.2301  0.1983  0.1101
30929W        W73842  23.824  29.660  14.946 -0.2675 -0.2316 -0.0928
30930W        W73843  30.309  15.459  28.491  0.0563 -0.2852  0.0312
30931W        W73844  30.501  30.200  15.157 -0.0155  0.2172 -0.0895
30932W        W73845   5.037  11.485   1.043  0.2431 -0.1711 -0.1535
30933W        W73846  23.859   4.425  25.271  0.0651  0.1586 -0.4928
30934W        W73847  30.522  18.920  25.524  0.3653 -0.1380 -0.2096
30935W        W73848  21.481  33.951  20.221 -0.0141 -0.1011 -0.1316
30936W        W73849  32.547   6.425  26.742  0.0049  0.1794 -0.2874
30937W        W73850  28.185   8.787  17.971  0.1535 -0.1320 -0.0950
30938W        W73851  34.242  28.594  21.502 -0.0429 -0.0093 -0.1275
30939W        W73852  27.011  27.805  19.904 -0.1435  0.1530  0.2550
30940W        W73853  28.637  29.988  23.767  0.0076  0.2649  0.1485
30941W        W73854  25.122  30.646  27.882 -0.0026  0.0453  0.1953
30942W        W73855  27.386   8.548  27.153 -0.0699 -0.0927  0.0564
30943W        W73856  33.496   1.351  17.447  0.1242  0.1159  0.0288
30944W        W73857  18.276  33.760  17.273  0.0130 -0.1935 -0.2551
30945W        W73858  34.092   6.237  24.273  0.0036 -0.0004 -0.0908
30946W        W73859  29.828   8.532   2.746  0.1475  0.2989  0.2342
30947W        W73860  15.221  28.184  20.804  0.0812 -0.0972 -0.3448
30948W        W73861  21.058   6.703  18.000 -0.0240  0.2142  0.2243
30949W        W73862  26.109  29.385  17.758 -0.0723  0.0498  0.3014
30950W        W73863   2.908  30.890   0.576 -0.0093  0.0016 -0.1980
30951W        W73864  26.897   6.775  21.862  0.2095  0.1076  0.3243
30952W        W73865  24.105  30.195  24.358 -0.0320 -0.0242  0.0987
30953W        W73866  30.380  32.564  22.413 -0.0937  0.1488  0.4182
30954W        W73867  21.672  19.180  27.385  0.4160  0.0394 -0.1325
30955W        W73868  29.625   2.883  22.520  0.2750 -0.0803  0.3514
30956W        W73869   0.753   5.255   7.213  0.0994 -0.2380 -0.0651
30957W        W73870  29.163   2.831  29.376  0.0093 -0.2367  0.1284
30958W        W73871  31.178   9.137  25.540 -0.1258 -0.0781 -0.0659
30959W        W73872  23.840   5.986  26.113 -0.0621 -0.1990  0.0341
30960W        W73873  24.578   5.363  17.101 -0.2349 -0.0199  0.0220
30961W        W73874   2.487   5.187  26.269 -0.0091 -0.1373  0.2274
30962W        W73875  30.284  34.432  25.963 -0.0684  0.3176  0.0739
30963W        W73876  30.558   5.125  26.520  0.1210 -0.0054  0.1106
30964W        W73877   1.851  30.688  14.578 -0.1334 -0.0706  0.1512
30965W        W73878  11.032   3.279  23.021 -0.0443  0.1296  0.0101
30966W        W73879   5.543   4.270  17.793 -0.0585 -0.1488 -0.2122
30967W        W73880   6.958  32.459  22.789  0.1157 -0.1177  0.3123
30968W        W73881  31.066  14.756  29.174 -0.1497  0.1687 -0.2989
30969W        W73882  29.213   0.517  28.705 -0.1971  0.2917  0.2255
30970W        W73883  22.284  29.749  28.270 -0.2027  0.0751  0.0908
30971W        W73884  30.428  10.602  17.600  0.0586  0.0941  0.0466
30972W        W73885   2.477   3.344   2.847  0.3270  0.1218 -0.1949
30973W        W73886  33.981   5.503  22.120 -0.0280 -0.0927 -0.1588
30974W        W73887  27.822   9.225  22.806  0.1440 -0.5438 -0.2250
30975W        W73888  31.121  10.953  21.125  0.0258  0.2169 -0.1833
30976W        W73889  32.578   2.633  16.717  0.1445  0.0459 -0.1457
30977W        W73890  33.278   0.111  22.162 -0.1315 -0.1342 -0.1901
30978W        W73891  30.559   7.541  22.617  0.1265  0.4954  0.1405
30979W        W73892  29.307  28.917  15.478 -0.0966  0.1834 -0.1568
30980W        W73893  33.736   4.740   7.565 -0.3502  0.0773  0.2852
30981W        W73894  32.048   3.234  24.205  0.1302 -0.0339  0.1740
30982W        W73895  25.012  28.146  21.133  0.1375  0.0695  0.2422
30983W        W73896  16.539   2.110  29.250  0.0529 -0.0923  0.0072
30984W        W73897  33.090  11.453  25.798  0.0338 -0.1703  0.0867
30985W        W73898  15.757   0.416  29.153  0.0906  0.1482 -0.2110
30986W        W73899  29.351  31.065  22.537  0.0468  0.1995  0.0620
30987W        W73900  23.248   4.828  13.656  0.0877  0.0239 -0.0895
30988W        W73901   3.380  24.264  20.414 -0.1389 -0.1797 -0.0135
30989W        W73902  28.642   3.154  22.005  0.1704 -0.1558 -0.0407
30990W        W73903  17.634  33.009  28.289 -0.0569  0.1641  0.0078
30991W        W73904  26.993   1.334  21.497  0.1372  0.2100 -0.1902
30992W        W73905  23.840  30.623  28.139 -0.0089 -0.0903  0.3231
30993W        W73906  25.019   4.721  22.872 -0.0591  0.2162 -0.1879
30994W        W73907  23.111   4.978  16.778 -0.0508  0.1525 -0.1459
30995W        W73908  23.684  33.548  14.643 -0.1734 -0.1029 -0.1797
30996W        W73909  33.720  26.932  19.197  0.2514 -0.0097 -0.0204
30997W        W73910  25.662   0.026  26.794 -0.1034 -0.0839  0.3051
30998W        W73911  26.944   7.640  25.785  0.2692 -0.1562  0.2607
30999W        W73912  23.481  30.893  16.549  0.1441  0.1273  0.0467
31000W        W73913  24.329   1.939  17.272 -0.1838  0.1970  0.1633
31001W        W73914   1.172   9.847  28.453 -0.0718  0.0543  0.0002
31002W        W73915  26.367   2.875   0.704  0.0693 -0.2709 -0.1074
31003W        W73916  31.947   0.711  21.516  0.0447 -0.2220 -0.1770
31004W        W73917  21.141  29.662  29.615  0.0196  0.2033  0.0223
31005W        W73918  17.985   5.018   6.169 -0.2434  0.1823 -0.3427
31006W        W73919  10.335  28.278  25.750 -0.1793  0.2341  0.0573
31007W        W73920  20.910  29.551  23.563  0.0066  0.4269  0.0980
31008W        W73921  22.701   6.244  17.226 -0.4525 -0.2405 -0.1990
31009W        W73922  23.969   1.713  26.367  0.0483 -0.0938 -0.1868
31010W        W73923  25.234  33.291  19.349  0.0267  0.1042  0.0197
31011W        W73924  22.512   4.730  20.308 -0.3691 -0.0769 -0.0894
31012W        W73925   0.103  11.656  15.353 -0.1985  0.0865 -0.1616
31013W        W73926  18.950   4.575  22.366 -0.3774 -0.1052 -0.2496
31014W        W73927  26.214  26.945  20.523  0.1325 -0.3241 -0.1535
31015W        W73928  29.528   4.174  16.118 -0.2372 -0.2716  0.1293
31016W        W73929  33.411  32.343  15.527  0.1049  0.1010 -0.2225
31017W        W73930  27.768  33.986  24.873  0.2679  0.1335  0.1314
31018W        W73931  30.090   2.353  27.411 -0.2074 -0.1722 -0.0859
31019W        W73932  23.127  27.971  28.835 -0.5042 -0.2151 -0.1560
31020W        W73933  24.618   7.750  16.900  0.1292 -0.1491 -0.0521
31021W        W73934  28.572  12.578  15.797 -0.2787  0.0701 -0.1086
31022W        W73935   1.407  30.661   3.629 -0.1819  0.1048  0.0921
31023W        W73936  32.160   9.151  29.383  0.1539 -0.0754 -0.1137
31024W        W73937  16.405   3.642  27.035 -0.0102  0.0043 -0.0803
31025W        W73938  25.690  31.379  18.791  0.5143 -0.3438  0.0287
31026W        W73939  31.494  33.475  22.913 -0.1378 -0.0884 -0.0058
31027W        W73940  25.905   9.543  24.082  0.0550 -0.0173 -0.3562
31028W        W73941  24.303   1.286  19.089  0.1685 -0.4160 -0.0253
31029W        W73942  15.528  11.253  20.060  0.0667 -0.1821  0.5274
31030W        W73943  23.329  33.941  22.248 -0.3398 -0.1932 -0.3152
31031W        W73944   3.017   0.527  19.819  0.0185 -0.1602 -0.0636
31032W        W73945  29.676   7.891   3.989  0.0746  0.1900  0.0875
31033W        W73946  29.869  25.822  15.550 -0.0800 -0.0559 -0.1629
31034W        W73947  24.583  21.966  21.224  0.0555 -0.3399  0.4646
31035W        W73948  31.202   4.465  15.684  0.0389  0.0544  0.3083
31036W        W73949  30.568   3.819   3.554 -0.2287 -0.3248  0.0201
31037W        W73950  24.180  29.556   0.683  0.4228 -0.0183 -0.0411
31038W        W73951   0.453   4.997  19.031 -0.0436  0.3627  0.2063
31039W        W73952  21.115   3.044  19.547  0.2756 -0.2251  0.0137
31040W        W73953  28.273   4.541  21.077 -0.0379 -0.0149  0.4145
31041W        W73954  33.353   1.565   5.312  0.1184  0.1757 -0.3247
31042W        W73955   0.928  33.792  24.450 -0.0479  0.2092 -0.1550
31043W        W73956   2.430   1.631  19.096 -0.0664 -0.2486 -0.0521
31044W        W73957  23.221  27.828  20.261  0.1037 -0.2495  0.1280
31045W        W73958  28.540   5.447  20.248  0.0063  0.3019 -0.2498
31046W        W73959  26.385  13.422  23.026 -0.3565  0.1385  0.2330
31047W        W73960  28.416   5.036  25.176  0.3859  0.0408  0.1622
31048W        W73961  21.175  21.500  22.257  0.0688  0.1432  0.0721
31049W        W73962  31.323   5.270  19.355  0.3672  0.0052  0.3170
31050W        W73963  31.489   6.172  17.500  0.1330 -0.2198  0.2605
31051W        W73964  24.870  34.186  15.006 -0.1442  0.1740 -0.3569
31052W        W73965  21.793   6.673  23.896 -0.2065  0.0834  0.0275
31053W        W73966  28.443  28.143  16.101  0.0078 -0.0855 -0.2825
31054W        W73967  25.602   5.781  14.258  0.3787 -0.1984 -0.4569
31055W        W73968  32.810  27.671  21.322  0.4019  0.2195 -0.0379
31056W        W73969   5.622  32.104  26.610 -0.1403 -0.0788  0.0628
31057W        W73970   2.230  30.470  26.127 -0.1992  0.2807  0.0299
31058W        W73971  31.894   7.213  17.220 -0.0435  0.1163  0.0584
31059W        W73972  26.781  11.468  22.023 -0.1291 -0.1129 -0.0535
31060W        W73973   0.407   6.810   5.728 -0.1118 -0.3125  0.0994
31061W        W73974   3.309   2.140  23.289 -0.2886 -0.1169 -0.0855
31062W        W73975   5.366  33.099   1.366 -0.2691  0.1103 -0.1636
31063W        W73976  26.661   6.868  24.981  0.1392  0.2041  0.0950
31064W        W73977  29.596   9.074   4.027  0.0720  0.0994  0.1269
31065W        W73978  34.432   7.392  16.967 -0.1241  0.0700  0.0372
31066W        W73979  26.265   3.634  21.650  0.4550  0.0429  0.1202
31067W        W73980   5.966   1.079   1.765  0.1334  0.2595 -0.0883
31068W        W73981  30.355   8.626  28.932 -0.3938 -0.1982 -0.2499
31069W        W73982  22.382  22.031  26.142  0.0791 -0.0527  0.1681
31070W        W73983  29.246  33.550  21.012  0.0609  0.0321  0.0416
31071W        W73984  28.673   4.855  27.118  0.0501  0.5135 -0.2702
31072W        W73985  17.721  23.627  28.262  0.1544 -0.2163  0.1531
31073W        W73986  33.418   8.549  23.466  0.0173 -0.3383  0.1871
31074W        W73987   4.319  32.113  28.431  0.2300 -0.3671  0.1422
31075W        W73988   1.036  11.445  28.120  0.1583  0.0085  0.2163
31076W        W73989   1.143   6.357  27.880  0.0782  0.1728  0.0962
31077W        W73990   3.580   7.501  18.131  0.0241  0.0381 -0.0626
31078W        W73991  29.263  32.415   0.949 -0.1794 -0.2119  0.1956
31079W        W73992  27.123  25.719   1.323  0.0347 -0.3157 -0.1684
31080W        W73993  24.819   5.819  27.081  0.0100 -0.0239 -0.3201
31081W        W73994   0.588   9.163  17.081  0.1972  0.1843 -0.2359
31082W        W73995  26.705   0.849  18.626 -0.0442 -0.1551 -0.0542
31083W        W73996  33.545  22.988  28.563  0.0680 -0.2102  0.0509
31084W        W73997  27.093   1.839  20.469 -0.2740  0.0284 -0.1746
31085W        W73998   5.021   4.346   0.640 -0.1483 -0.3922 -0.5292
31086W        W73999  16.387  24.615  24.112 -0.2056 -0.0918 -0.0437
31087W        W74000  28.126  33.018  25.146  0.2299 -0.2382 -0.1095
31088W        W74001   1.279  29.622  14.040  0.1876  0.1869 -0.0147
31089W        W74002  28.596  31.961  19.160 -0.2279 -0.0127  0.0091
31090W        W74003  32.165  32.125  20.148  0.1389  0.1483 -0.0466
31091W        W74004  30.264   7.337  23.026  0.0030 -0.0253  0.1462
31092W        W74005   1.160   2.236  16.680 -0.0183  0.2260  0.0175
31093W        W74006  32.495   6.382  17.356 -0.0918  0.1802  0.0049
31094W        W74007  24.538  10.427  15.304  0.1018 -0.1722  0.1978
31095W        W74008   3.033   1.643  26.214 -0.0862  0.1240  0.4736
31096W        W74009   2.737  15.081  27.114 -0.0609  0.0166  0.0907
31097W        W74010  31.728  13.456  23.184 -0.0263  0.3001 -0.0873
31098W        W74011  23.503   2.439  18.116  0.2245  0.1566 -0.0947
31099W        W74012  13.346  15.019  22.870  0.2650  0.2404  0.3566
31100W        W74013  24.813  31.528  27.848 -0.2733 -0.0645 -0.2950
31101W        W74014  22.667  10.899  25.381  0.0449 -0.3369 -0.3109
31102W        W74015  31.571   9.185   5.234  0.0930 -0.2130  0.0115
31103W        W74016   2.490   0.622  23.308 -0.0613  0.0370 -0.0458
31104W        W74017   1.721   7.909  10.065 -0.3276  0.0390 -0.1068
31105W        W74018  29.414   8.169  23.702  0.2419  0.0549 -0.3070
31106W        W74019   5.225   7.832  21.237  0.2786  0.0247  0.3966
31107W        W74020  31.198   2.575  27.482 -0.1166  0.1185  0.2075
31108W        W74021  26.483  26.612  24.137  0.2826 -0.0119  0.2344
31109W        W74022  26.763  12.801  27.844  0.0293  0.1541 -0.0327
31110W        W74023   3.511  19.750  29.227  0.2333 -0.3145 -0.0045
31111W        W74024   3.779  33.893  17.028  0.1083 -0.0040 -0.2118
31112W        W74025  27.261   3.704  23.305 -0.3809  0.4482  0.0563
31113W        W74026   4.170   2.355   5.892 -0.0102  0.1911  0.3182
31114W        W74027  21.887   5.267   5.282  0.0850  0.2325  0.2396
31115W        W74028  25.190  11.239  19.502  0.0007  0.2048  0.2342
31116W        W74029   2.385   6.154  22.226 -0.2676 -0.3619  0.0321
31117W        W74030  25.496   8.265  24.554  0.3215 -0.0436  0.0065
31118W        W74031   1.540  29.797  27.976  0.0540 -0.6009 -0.2599
31119W        W74032  26.375   5.377  21.991 -0.0695 -0.1282  0.1698
31120W        W74033   3.843  11.442  26.406  0.0212  0.0069  0.1192
31121W        W74034   7.034   8.802  27.165  0.1062  0.0313  0.1878
31122W        W74035  32.714   0.199  24.228  0.1275  0.3279 -0.0036
31123W        W74036  33.108   1.223  24.262  0.1568 -0.2944 -0.0981
31124W        W74037  21.979  20.610  23.231 -0.5323 -0.0504 -0.1793
31125W        W74038  28.176  13.073  13.305  0.2148 -0.0872  0.2865
31126W        W74039   2.986   0.959   1.537 -0.0579 -0.1504  0.0299
31127W        W74040  34.473  15.810  27.604 -0.1929  0.0906 -0.2817
31128W        W74041  34.163  33.919  18.519 -0.0801  0.3118  0.3717
31129W        W74042   1.770   1.655  15.803  0.1258 -0.0865  0.2221
31130W        W74043  22.012  31.453  24.665 -0.2888  0.2830  0.0257
31131W        W74044   2.697   5.913  18.146 -0.0936  0.2865  0.1464
31132W        W74045   4.335  29.251  27.872  0.1853  0.1473  0.1249
31133W        W74046  26.617   0.002  14.576 -0.2674 -0.0011  0.2951
31134W        W74047  26.862   4.502  27.802 -0.1359  0.2121 -0.0073
31135W        W74048  20.454  11.548  23.363  0.0476 -0.0477  0.4186
31136W        W74049  28.791   0.414  14.998 -0.0727 -0.2074  0.1277
31137W        W74050  31.936  12.506  22.898  0.0152  0.3517  0.1222
31138W        W74051  25.288   8.062  26.906  0.2224  0.0600 -0.1151
31139W        W74052  29.753   8.822   4.996  0.2262 -0.2135 -0.3050
31140W        W74053   0.704  28.897  22.021 -0.2737 -0.2503 -0.1569
31141W        W74054   0.833  13.612  24.640  0.0839 -0.0497  0.2768
31142W        W74055  27.719  34.364  25.953  0.3866 -0.4832 -0.2297
31143W        W74056   3.028  32.860   6.840  0.2649 -0.0190 -0.2524
31144W        W74057  29.100  10.968  22.662 -0.3663 -0.1550  0.0775
31145W        W74058   1.898   4.319  20.176  0.1849 -0.1559  0.0516
31146W        W74059  27.067  30.334  24.262 -0.2351  0.0657  0.3128
31147W        W74060   3.166   3.666  19.998  0.0863  0.1929  0.1402
31148W        W74061  24.156   9.633  19.690  0.1741 -0.0491 -0.3770
31149W        W74062  27.077   3.802  24.513 -0.1973 -0.2185 -0.1630
31150W        W74063  29.170  30.545  26.627 -0.1751 -0.1631 -0.1549
31151W        W74064   2.983   3.204  23.417 -0.1169  0.3726 -0.0065
31152W        W74065  31.743   2.367   0.631 -0.1422  0.0146  0.0491
31153W        W74066  30.492   5.626  27.408 -0.2331 -0.0833  0.3790
31154W        W74067  27.382  10.213  18.586 -0.0177  0.0942 -0.0585
31155W        W74068  18.900  32.228   1.146  0.1699  0.3571 -0.1504
31156W        W74069  20.995  32.388  20.890 -0.0485 -0.2451 -0.1034
31157W        W74070  26.735  34.360  27.189  0.0557 -0.2878 -0.1295
31158W        W74071  33.675  34.270  17.905 -0.1578  0.2591 -0.2167
31159W        W74072   0.293  10.336  28.632 -0.0616  0.0370 -0.2696
31160W        W74073   2.302   2.288  24.585 -0.2613 -0.0620  0.1636
31161W        W74074  26.482  11.005  27.140 -0.0440 -0.0953 -0.1948
31162W        W74075  27.138   7.393  28.940 -0.1359 -0.0898 -0.1287
31163W        W74076  30.196   3.527  15.972 -0.2224  0.0846 -0.0393
31164W        W74077  32.105   6.066  21.837  0.0202  0.1244 -0.0363
31165W        W74078  29.000  12.768  17.058 -0.0353  0.3352 -0.2500
31166W        W74079  31.183  33.370  15.581 -0.0954 -0.1755 -0.0427
31167W        W74080  27.797  15.772  27.881  0.1387 -0.3301 -0.2022
31168W        W74081  23.696   4.000   5.279 -0.0451 -0.0562  0.0426
31169W        W74082  28.720   7.087  23.194  0.1478 -0.0020  0.0019
31170W        W74083  14.000  33.443   4.642 -0.0833  0.2723  0.0256
31171W        W74084   0.116  30.735   1.920 -0.2058  0.0955  0.0751
31172W        W74085  33.012   4.492   2.862 -0.2117 -0.3536 -0.1164
31173W        W74086  15.966   2.354  17.040 -0.0919 -0.1979  0.1350
31174W        W74087   5.125  13.824  24.394  0.2290  0.2489 -0.0337
31175W        W74088  24.668  33.676  26.638  0.3159 -0.1171  0.0107
31176W        W74089  28.963   6.054  23.019 -0.0454  0.1410 -0.2449
31177W        W74090  16.878  10.323  27.809 -0.0209 -0.0619 -0.0327
31178W        W74091  27.686   2.244  29.553 -0.2844  0.0776  0.1668
31179W        W74092  27.426   3.272   2.787  0.1641 -0.2620  0.1037
31180W        W74093  22.576   2.534  14.325  0.1299  0.0783 -0.1305
31181W        W74094  33.747  31.594  24.713 -0.0849 -0.0613 -0.2172
31182W        W74095  28.756  26.926  26.691 -0.0026  0.1183 -0.2017
31183W        W74096  28.868  32.702   1.002  0.1700 -0.0523  0.3132
31184W        W74097  12.592   2.511  27.018  0.1143  0.1642 -0.0581
31185W        W74098  26.846   2.182  26.541  0.3139  0.0653 -0.7885
31186W        W74099  34.326   0.662  16.847 -0.1856 -0.0195 -0.2105
31187W        W74100  23.566  33.024  16.613  0.1165  0.1536  0.0391
31188W        W74101  23.521   1.420  26.223  0.0127 -0.0710  0.1405
31189W        W74102  29.197   2.769  17.228  0.2571 -0.2496 -0.1172
31190W        W74103  25.600  10.081  25.326 -0.2731 -0.0470  0.0719
31191W        W74104  21.111   4.979  24.580 -0.3937  0.0487  0.1988
31192W        W74105   8.428   0.264  22.528  0.2933 -0.1334 -0.0045
31193W        W74106  23.175   5.122   3.114  0.0622  0.2217 -0.1718
31194W        W74107   9.012   7.719  25.240 -0.0560  0.0051  0.3832
31195W        W74108   2.099   3.691  17.879 -0.2184  0.0373  0.2018
31196W        W74109   5.641   1.144  18.049  0.0399  0.0923  0.0645
31197W        W74110  32.474   1.866  24.354 -0.2244 -0.0637 -0.0847
31198W        W74111  30.132  13.107   1.773 -0.0512  0.2331  0.2380
31199W        W74112  29.178   8.771   2.129 -0.1427 -0.0034 -0.1822
31200W        W74113  27.728   4.079   5.466  0.1770 -0.2752  0.0034
31201W        W74114  27.128   5.571  18.892 -0.0863 -0.2068 -0.2914
31202W        W74115  27.520   1.840  22.415  0.2640 -0.0226 -0.4111
31203W        W74116  34.423   4.816  18.505  0.0513  0.2364 -0.0598
31204W        W74117  32.949  33.568  23.328 -0.2539  0.1115 -0.0436
31205W        W74118  27.890  32.274  25.830 -0.0493 -0.0633  0.0334
31206W        W74119  24.222  31.847  24.360  0.1384 -0.2617 -0.3349
31207W        W74120  18.328   3.933   3.434  0.1814  0.2398  0.0921
31208W        W74121  31.342   4.793   1.628  0.0694  0.1934  0.0834
31209W        W74122  28.644   3.005  29.128  0.2436 -0.2294 -0.0084
31210W        W74123  29.947   9.471  25.600  0.1922 -0.2105 -0.1546
31211W        W74124  33.595  29.297  29.708  0.1246 -0.0211 -0.0584
31212W        W74125  25.051  30.387  29.186 -0.4137  0.0139 -0.0080
31213W        W74126  32.259   0.190  18.790  0.0903 -0.1927  0.1966
31214W        W74127   3.793   6.138  28.886 -0.0040  0.0597  0.2482
31215W        W74128   7.532  22.146  24.094  0.0111  0.0981 -0.1679
31216W        W74129  26.978  22.806  27.662 -0.1355 -0.5423  0.1190
31217W        W74130  24.725  21.268  27.372 -0.2047  0.0415 -0.2560
31218W        W74131   2.304   2.916  18.327 -0.0813  0.0198 -0.3484
31219W        W74132   7.682  18.722  23.875  0.1163 -0.1596 -0.0665
31220W        W74133  22.120   0.863  28.918 -0.0414 -0.4337 -0.2768
31221W        W74134   2.157   4.029  17.040 -0.1383  0.0384 -0.2342
31222W        W74135  22.322  30.698  21.755  0.0542  0.0718 -0.0448
31223W        W74136  30.619   0.237  25.574  0.0236  0.0290 -0.2155
31224W        W74137  30.399  10.596  25.637 -0.0552  0.1937  0.0580
31225W        W74138  27.425   2.166  22.841  0.0034  0.1268 -0.2513
31226W        W74139   8.200   4.646  21.665  0.2631 -0.4447  0.0939
31227W        W74140  22.137  18.762  23.302 -0.1945  0.2057 -0.1226
31228W        W74141   9.477  28.447  17.065 -0.1087  0.2631  0.1148
31229W        W74142   0.678  29.623   3.188  0.0832  0.1881  0.0048
31230W        W74143  34.191  30.108   4.120 -0.1545  0.0633 -0.1509
31231W        W74144  29.009  34.030   2.335  0.0026 -0.0822  0.0002
31232W        W74145  24.979  26.082  18.133  0.0028 -0.2001  0.2592
31233W        W74146  31.227   2.459  16.924 -0.1407  0.0586 -0.1928
31234W        W74147  33.337   7.561   2.724  0.1212  0.1084 -0.0145
31235W        W74148  29.541   4.270  24.886  0.0255  0.0100  0.0524
31236W        W74149  24.878   0.224  26.849 -0.1970  0.0962  0.1020
31237W        W74150   7.348  13.768  22.007 -0.1790  0.0342  0.1083
31238W        W74151   0.058   2.073  25.547  0.2389  0.1291 -0.1521
31239W        W74152  29.639   0.594  23.380  0.1738  0.1318  0.1968
31240W        W74153   0.914  29.277  18.276  0.1030  0.0118 -0.3993
31241W        W74154  28.245   4.590  27.399 -0.1552  0.1952 -0.0406
31242W        W74155  31.631   0.735   0.747 -0.1608 -0.2233  0.2340
31243W        W74156  26.431   1.158  29.031  0.0861  0.0400 -0.2259
31244W        W74157  10.321   6.554  27.382  0.1685  0.0202  0.4371
31245W        W74158  17.587  32.970   1.919 -0.0071 -0.0172  0.0252
31246W        W74159   0.844  29.225  25.307 -0.1203  0.0010  0.0403
31247W        W74160   0.877   4.806  20.020 -0.1014 -0.1874  0.0046
31248W        W74161   7.081  10.659  28.087 -0.0240 -0.2496 -0.3888
31249W        W74162  26.737   7.693  25.341 -0.1038  0.1254 -0.1506
31250W        W74163   4.601   4.908  24.063 -0.2800 -0.0374  0.3576
31251W        W74164  16.253  21.482  22.094  0.0286  0.1494 -0.2437
31252W        W74165  23.417   4.907  18.683 -0.1589  0.1279 -0.1133
31253W        W74166  33.918  17.921   3.118  0.1847 -0.1321 -0.3964
31254W        W74167  28.856   2.004  26.946  0.2186 -0.1657  0.0312
31255W        W74168  26.021  32.180   1.710  0.1503 -0.0577  0.0402
31256W        W74169   1.016   5.513  22.142  0.1773 -0.2521  0.0483
31257W        W74170  32.783  31.406   1.905 -0.0691 -0.2132 -0.3265
31258W        W74171   9.654   6.508  23.330 -0.1951 -0.0378 -0.2288
31259W        W74172  28.660   3.861  23.652  0.0395 -0.0004 -0.1037
31260W        W74173  32.263   5.990  21.365 -0.2535  0.0066 -0.0572
31261W        W74174  23.793   3.216  28.441  0.4259 -0.1263 -0.0131
31262W        W74175   1.355  10.520  27.111 -0.0910  0.3475 -0.0822
31263W        W74176   2.656   0.329   0.428 -0.1616  0.0815  0.0011
31264W        W74177  25.839   4.102  24.207  0.1689 -0.0120  0.0779
31265W        W74178  25.286  11.424  20.388  0.2453 -0.1631  0.2178
31266W        W74179  31.692   4.349  23.824 -0.3494 -0.2179 -0.2714
31267W        W74180  25.423  13.445   3.365 -0.0719 -0.1301 -0.1578
31268W        W74181  24.812  18.526  28.427 -0.1479  0.3220 -0.1267
31269W        W74182  28.569  26.515   8.226  0.5489 -0.1661  0.1910
31270W        W74183  25.668   3.708  19.440 -0.3679  0.0729  0.1573
31271W        W74184  34.270   5.107  16.702  0.0093 -0.5680 -0.3023
31272W        W74185  22.666   8.585  26.980  0.0506  0.2276 -0.1220
31273W        W74186  28.352   9.440   0.540 -0.0536 -0.2871 -0.0127
31274W        W74187   8.933   4.317  25.645  0.6326  0.2766 -0.2682
31275W        W74188  33.686   3.522  18.858  0.3672  0.0186 -0.2155
31276W        W74189  33.583  11.309  16.591  0.0430 -0.2330  0.0055
31277W        W74190  25.466  14.052  23.679  0.3733  0.2416 -0.0560
31278W        W74191  22.302   9.170  21.999  0.2760 -0.0443 -0.1759
31279W        W74192   1.201  33.503  26.684  0.0999  0.0142  0.1122
31280W        W74193  24.970   4.918   0.025 -0.2741 -0.0298  0.1393
31281W        W74194   3.663   8.386  22.248  0.0954 -0.1689 -0.1523
31282W        W74195  29.974   6.465  20.246  0.1277  0.3371 -0.3675
31283W        W74196  31.132  32.716  19.408  0.1403 -0.1352 -0.3453
31284W        W74197  30.423  33.282   5.433  0.0949 -0.0048  0.2729
31285W        W74198  20.559  24.348  26.863 -0.0187  0.0058 -0.0257
31286W        W74199  11.215   3.417  28.481 -0.0939  0.1420 -0.2009
31287W        W74200  30.034  33.714   2.705  0.1675  0.3420  0.1636
31288W        W74201  32.776  30.526  26.593 -0.0171  0.1219 -0.0338
31289W        W74202  27.093  32.758  27.798  0.0033 -0.0491  0.1025
31290W        W74203  32.614  30.625  23.263 -0.0816 -0.0415 -0.0155
31291W        W74204  32.324   0.905  24.183 -0.1871  0.3363  0.1282
31292W        W74205  29.044   2.122  25.990  0.1596  0.2372  0.3073
31293W        W74206  27.840  11.932  24.435 -0.0060  0.1354  0.0100
31294W        W74207  32.422  32.951   1.854  0.0666 -0.1400 -0.1403
31295W        W74208  29.684   7.060  28.719 -0.4308  0.2765  0.1250
31296W        W74209  28.980  32.013  24.606  0.0323 -0.0883 -0.0128
31297W        W74210  27.029  11.930   0.325 -0.3439 -0.0007 -0.2398
31298W        W74211  24.201   4.671   0.200 -0.2999 -0.4793 -0.3247
31299W        W74212  26.887   4.068  18.061  0.0084 -0.0518  0.2035
31300W        W74213  11.737  29.046  20.286 -0.2735  0.0500 -0.1059
31301W        W74214  28.620   2.381  23.543 -0.2149  0.0038  0.0123
31302W        W74215  23.369   0.191  16.346  0.1080 -0.0293 -0.0084
31303W        W74216  32.577   5.536   2.062  0.0889  0.0118  0.1611
31304W        W74217  25.085   1.366   2.712  0.2178 -0.3837 -0.0273
31305W        W74218  28.242  28.157   8.340  0.0487  0.0091 -0.1632
31306W        W74219  24.878  11.630  27.659  0.0774 -0.3182 -0.1188
31307W        W74220  20.428   1.525  26.019 -0.0952 -0.0132 -0.2957
31308W        W74221  26.278  34.450  21.837 -0.1963 -0.2219 -0.0300
31309W        W74222  33.980   0.093   1.943 -0.0934 -0.0285 -0.1661
31310W        W74223  33.748   1.464  21.384  0.1164  0.0181 -0.3731
31311W        W74224  26.200   3.487   6.552 -0.2538 -0.0907  0.2368
31312W        W74225  23.292   0.163  20.469 -0.0920 -0.0641  0.0426
31313W        W74226  28.237  32.069  19.502 -0.0933 -0.0334  0.2218
31314W        W74227  24.408  34.426  23.376 -0.0425 -0.1829 -0.3953
31315W        W74228  31.033   3.480  25.844 -0.0815  0.2848  0.2083
31316W        W74229  25.514  29.517  25.307  0.2360 -0.1408 -0.5259
31317W        W74230  25.493   6.610  21.751 -0.4314 -0.2008 -0.0914
31318W        W74231  17.589  11.790  26.280 -0.3498 -0.0057 -0.1924
31319W        W74232  28.857  29.298  28.310  0.0367 -0.0029  0.1374
31320W        W74233   0.787  33.681   4.061 -0.1901 -0.1688  0.0771
31321W        W74234  24.383   0.519  24.965  0.1440  0.0828  0.3372
31322W        W74235  32.482  30.902   3.957  0.2151 -0.1749  0.1186
31323W        W74236  28.673   5.904  29.651 -0.2646 -0.0237 -0.0521
31324W        W74237  34.426  30.185   1.043  0.2468 -0.4042 -0.0359
31325W        W74238  26.272  33.549  19.280 -0.3149 -0.1105  0.2152
31326W        W74239  31.106   6.222   0.886  0.0906 -0.0904 -0.0342
31327W        W74240  29.339   2.979  23.516 -0.3006 -0.0379  0.0167
31328W        W74241  28.842   3.130  26.724 -0.2855  0.3389  0.1397
31329W        W74242   5.461  33.138  17.867  0.0956  0.2043  0.0432
31330W        W74243  25.949  23.830  18.741  0.0144 -0.2762 -0.1209
31331W        W74244  18.406  12.536  25.187  0.1046  0.1932 -0.0474
31332W        W74245  23.511   8.805  23.433 -0.1908 -0.1366 -0.1660
31333W        W74246  28.200   8.255  28.061 -0.2227  0.0614 -0.2004
31334W        W74247  31.247  12.034  25.998  0.0952  0.3034  0.0392
31335W        W74248   3.332   6.731  27.962  0.4344 -0.0278  0.0780
31336W        W74249  27.301   8.576  19.316  0.3134 -0.0026  0.1035
31337W        W74250   4.300  27.764  27.839 -0.1575 -0.3845  0.0322
31338W        W74251  31.852  31.071  27.996  0.1864  0.0217 -0.0477
31339W        W74252   9.479   7.734  20.179 -0.1893 -0.1910 -0.0655
31340W        W74253  32.502  17.331   4.385  0.0339  0.0033  0.1063
31341W        W74254  21.458  26.769   3.758  0.1846 -0.0521  0.0203
31342W        W74255   4.948  29.856  25.094  0.2401 -0.1461 -0.0251
31343W        W74256  31.293   0.270  20.464  0.1199 -0.3195  0.1807
31344W        W74257  34.023   3.018  26.745 -0.0596 -0.1641  0.0945
31345W        W74258  32.984  30.501  22.492 -0.1908  0.0299  0.0176
31346W        W74259  20.858  13.961  21.293  0.0888 -0.2429 -0.0038
31347W        W74260  34.100  18.614  19.089  0.2317  0.1743  0.1370
31348W        W74261  32.262  33.951  23.314 -0.0479 -0.0572 -0.0938
31349W        W74262  33.953   6.671  23.727  0.0937 -0.0637 -0.2144
31350W        W74263  31.929  29.917   3.737 -0.0629 -0.1351 -0.1658
31351W        W74264  21.538   2.189   3.106  0.0253  0.1220  0.1156
31352W        W74265   2.349   0.004  27.372 -0.0280  0.1343  0.1261
31353W        W74266  26.708   5.660   6.301 -0.0852 -0.2083  0.2221
31354W        W74267  32.700   7.100  18.345  0.3719  0.0310  0.1211
31355W        W74268   0.849  11.835  26.151  0.1433  0.0459 -0.0917
31356W        W74269  27.609   8.695  29.572  0.0662 -0.3354 -0.1200
31357W        W74270   6.266  29.671  27.509  0.0116  0.0692 -0.1974
31358W        W74271  33.958  11.085  17.774  0.3846  0.1530 -0.2831
31359W        W74272  27.479  23.081  23.756 -0.0205  0.2824 -0.0636
31360W        W74273  32.468   3.687   1.616 -0.2838  0.1564 -0.0446
31361W        W74274  33.017  34.487  21.047 -0.3620 -0.0476 -0.0252
31362W        W74275   2.594  20.769  26.865  0.2801 -0.1820  0.2227
31363W        W74276  26.250   4.775  28.913  0.0999 -0.1208 -0.1220
31364W        W74277  26.266   5.732  20.059  0.0847 -0.3197 -0.1631
31365W        W74278   6.165  34.487  23.994 -0.2785  0.1324 -0.1371
31366W        W74279   9.708   0.585  22.934 -0.0656 -0.0548  0.0092
31367W        W74280  31.698  14.049  24.451 -0.2423  0.1004 -0.2343
31368W        W74281  33.539   3.116  20.077 -0.0110  0.2496  0.1238
31369W        W74282  34.317  12.459  16.018  0.2835 -0.1862 -0.4466
31370W        W74283   3.660  27.047  28.046  0.0798 -0.4394 -0.0775
31371W        W74284  30.581  28.506  20.909  0.0815 -0.2695  0.5515
31372W        W74285  29.730  33.723   1.033  0.4721  0.0497 -0.1746
31373W        W74286  21.953  29.993  17.282  0.2575  0.0408  0.0864
31374W        W74287  29.335   9.130  26.912 -0.0297  0.1006 -0.3882
31375W        W74288  23.220  24.970   5.382 -0.2302 -0.0717 -0.2444
31376W        W74289  31.074   9.998  29.713  0.0446 -0.0976 -0.3337
31377W        W74290  20.751   4.796  16.303 -0.2458 -0.1528  0.1138
31378W        W74291   4.261  12.502  20.715 -0.3999 -0.1589 -0.0892
31379W        W74292  29.825   6.248  28.047 -0.1919 -0.1291 -0.1437
31380W        W74293  33.911   6.119  24.928 -0.0883 -0.0488 -0.0919
31381W        W74294  29.204   5.668  18.161  0.0915 -0.1061 -0.1579
31382W        W74295  19.538   2.045  26.349 -0.2970  0.3822  0.4029
31383W        W74296  27.718  33.482   5.724 -0.1440  0.0069 -0.2333
31384W        W74297  29.390   3.558   6.419  0.1699 -0.2307 -0.0224
31385W        W74298   1.420  31.238   2.340 -0.1591  0.0130 -0.0190
31386W        W74299  31.357  22.834  25.648  0.0137 -0.3306 -0.0569
31387W        W74300  30.196  33.354  27.402  0.0254  0.0357 -0.1372
31388W        W74301  31.588  30.094   1.194  0.3563 -0.6284  0.3506
31389W        W74302  28.488  33.513  26.607 -0.2333  0.3185 -0.0612
31390W        W74303  32.183  16.459   0.793  0.0955 -0.2564 -0.0448
31391W        W74304  19.546   2.578  25.505  0.0439 -0.2286 -0.1293
31392W        W74305  27.803  10.691  28.376  0.0874  0.2980 -0.5260
31393W        W74306  33.169  34.168  23.759  0.0637 -0.1057  0.0276
31394W        W74307  22.522   7.414  24.877  0.1057 -0.2252 -0.0306
31395W        W74308  31.107  31.903  16.872 -0.1946  0.1254  0.3573
31396W        W74309  19.751   5.106   1.510  0.1206 -0.1493  0.2658
31397W        W74310  32.254   9.541  23.944 -0.0603  0.0695  0.0383
31398W        W74311  18.971   1.008  25.730  0.1960 -0.0168  0.0850
31399W        W74312  33.885  10.434  26.623  0.0777  0.1747  0.0171
31400W        W74313  29.174   0.986  29.599 -0.1964  0.2108 -0.2082
31401W        W74314  32.945   3.136   4.474 -0.3360  0.2118  0.1168
31402W        W74315  25.577  26.951   0.282 -0.0026  0.2063  0.0030
31403W        W74316  29.241  33.182  16.694 -0.1221 -0.0109 -0.1946
31404W        W74317   1.761   5.437  19.112 -0.3073 -0.1049  0.1922
31405W        W74318   6.700  33.655  24.026 -0.0772 -0.2579  0.1334
31406W        W74319  29.029  34.125  17.226 -0.0722  0.1469  0.3738
31407W        W74320  24.505  29.759  29.647 -0.3608 -0.0250  0.5773
31408W        W74321  19.760   4.515  15.505 -0.4772 -0.3192  0.1985
31409W        W74322  26.847  10.831  22.033 -0.0824 -0.0355  0.2525
31410W        W74323  25.779  11.953   6.134  0.4560 -0.0124 -0.0563
31411W        W74324  28.724   8.195   1.428 -0.3603  0.1627  0.3846
31412W        W74325  33.540   0.857  26.953 -0.0011  0.2334 -0.0861
31413W        W74326   5.687   1.532  29.006  0.3354  0.0824  0.1779
31414W        W74327  25.298   2.799  22.289  0.0801  0.1982 -0.1831
31415W        W74328   0.670   4.108   1.484 -0.1254 -0.1841  0.0294
31416W        W74329  29.344   4.950  19.804  0.0117  0.0262  0.0327
31417W        W74330  34.281   5.710   8.707  0.0786  0.3356 -0.1808
31418W        W74331   6.645   4.668  29.322 -0.0732  0.1534  0.4518
31419W        W74332  25.228  27.107  18.691 -0.0115  0.1337 -0.0169
31420W        W74333  27.810   7.229   1.713 -0.1385  0.0527  0.2028
31421W        W74334  34.409   4.680  22.486  0.0905  0.0504 -0.1303
31422W        W74335   1.252   4.500  19.442 -0.3517 -0.0348  0.1346
31423W        W74336   3.187  31.898   4.679 -0.1855 -0.0724  0.1541
31424W        W74337  22.829   2.803   8.865 -0.1663  0.0487 -0.1831
31425W        W74338  29.390   9.707  21.806  0.0061  0.0125  0.1472
31426W        W74339  29.478  25.180  27.409  0.1452 -0.0563  0.1775
31427W        W74340  30.441   3.467  24.728 -0.1112 -0.2216 -0.0474
31428W        W74341   4.300   7.426  25.633 -0.0613  0.1680 -0.5824
31429W        W74342  33.981   4.134  25.065 -0.1745 -0.1011  0.0893
31430W        W74343  13.012   8.374  21.063 -0.1283 -0.3856  0.4800
31431W        W74344   0.069   5.075   0.727  0.0564  0.1008 -0.0919
31432W        W74345  13.638  12.255  16.239  0.1080 -0.2653  0.1950
31433W        W74346   3.724   1.898  24.816 -0.0254 -0.1700 -0.1969
31434W        W74347  33.558   3.320  21.821  0.0715 -0.0035  0.0170
31435W        W74348  25.211   1.735   6.310  0.0384 -0.1148 -0.0999
31436W        W74349  19.911   5.917  25.620 -0.0521  0.1457  0.1499
31437W        W74350   4.148   1.759  18.432  0.0666  0.2610  0.1550
31438W        W74351  19.494  34.044  26.788  0.2983 -0.1812  0.1086
31439W        W74352  15.240   2.983  28.211  0.2102  0.0027  0.0009
31440W        W74353  23.871  31.819  25.034 -0.1226 -0.2924  0.1204
31441W        W74354  27.017  13.158   1.549 -0.2071  0.0874  0.0651
31442W        W74355  33.452  29.051  28.732 -0.1180  0.1861  0.1020
31443W        W74356  29.688  18.984  27.035 -0.1722  0.4009 -0.0087
31444W        W74357  33.176   7.190  19.155 -0.0509  0.0921  0.1028
31445W        W74358  13.906  13.312   1.909 -0.0826  0.0260 -0.3011
31446W        W74359   0.146   7.636   0.522 -0.0989 -0.1515 -0.1286
31447W        W74360   4.044  31.548  15.841 -0.2347 -0.1983  0.1181
31448W        W74361  26.630  30.399  18.595 -0.0828  0.0291  0.1317
31449W        W74362  21.593   1.688  26.693 -0.0347  0.1188  0.1745
31450W        W74363  21.044  34.122  24.801  0.0537 -0.2967  0.2321
31451W        W74364  24.352  28.345  23.147  0.1158  0.0985 -0.0596
31452W        W74365  20.460   2.166  27.000 -0.0037  0.0236 -0.2175
31453W        W74366  29.957   7.995  26.030  0.4190 -0.2721  0.2142
31454W        W74367   0.009  14.281   2.994  0.0751 -0.2052  0.1672
31455W        W74368  28.722  32.223  14.943 -0.0553 -0.3472 -0.1732
31456W        W74369  14.194   0.750   2.319  0.0501  0.2386  0.0061
31457W        W74370  18.408   6.772   6.802  0.1026 -0.0356  0.1207
31458W        W74371   5.558   9.627  24.038  0.4612 -0.1521  0.0185
31459W        W74372   0.094   9.732   0.661  0.1783 -0.0129 -0.2644
31460W        W74373  28.370   9.855  23.924 -0.0694  0.0225 -0.1177
31461W        W74374   2.893   3.298  29.272 -0.1851  0.1380 -0.1621
31462W        W74375  34.072  26.399   1.945 -0.2634 -0.0847 -0.3047
31463W        W74376  30.358  27.421   0.955 -0.1976 -0.0106 -0.1871
31464W        W74377   4.900   4.559   2.448  0.0043  0.0962  0.2901
31465W        W74378   6.403   3.351  21.432  0.0560 -0.0888 -0.0576
31466W        W74379  26.612  34.292   4.283  0.1676 -0.1947 -0.2884
31467W        W74380  15.379   0.951  25.411 -0.0283 -0.3089  0.0339
31468W        W74381  26.931  10.187  23.739 -0.1486  0.2154  0.3265
31469W        W74382  32.529  20.956   2.074  0.1627  0.0143  0.2758
31470W        W74383   2.607   6.981  25.767  0.1130  0.1438  0.3230
31471W        W74384  23.451  32.552  16.188  0.2006  0.0457  0.1249
31472W        W74385  33.791   3.527  10.851  0.2808  0.3739  0.2720
31473W        W74386  23.227   0.157  14.640  0.3250  0.1570  0.3617
31474W        W74387  31.090   8.079  15.348  0.3116  0.1843  0.1270
31475W        W74388  21.029   3.280  24.145 -0.1559 -0.1665 -0.0663
31476W        W74389  32.965   6.572  26.362 -0.1516  0.0794  0.1062
31477W        W74390  22.590   6.818   2.989  0.0421 -0.0649 -0.0231
31478W        W74391   1.536  33.721   0.205  0.0114 -0.0232  0.1727
31479W        W74392  28.163  30.936   5.631 -0.1633  0.1360  0.1799
31480W        W74393  28.072  27.724   8.491 -0.0565  0.2579 -0.0530
31481W        W74394   5.216  13.961  16.837  0.1106  0.1653  0.1801
31482W        W74395  31.401   1.985  26.031 -0.1013 -0.0547 -0.0185
31483W        W74396  28.397  13.782  19.502  0.2388  0.2602 -0.0021
31484W        W74397  23.074   4.105  27.068 -0.1356  0.3465 -0.3241
31485W        W74398   0.956   2.506   5.127  0.0275  0.0614 -0.1417
31486W        W74399  29.019   7.892   6.622  0.1216  0.1631  0.0952
31487W        W74400  26.699   4.649  29.398  0.1823 -0.1446 -0.1226
31488W        W74401  28.561   5.619  18.760  0.2032 -0.3197 -0.1163
31489W        W74402  20.724  22.357  22.309 -0.1871  0.2906 -0.0841
31490W        W74403   3.439  29.771   1.091 -0.3248 -0.3059  0.0355
31491W        W74404  34.391   8.475   7.521  0.1267 -0.1445  0.0874
31492W        W74405   6.741   8.023  29.390  0.1832 -0.1014  0.1389
31493W        W74406  26.102  15.064  27.399  0.0009  0.2361  0.3032
31494W        W74407  32.468   3.400   5.844  0.2121 -0.0931  0.1056
31495W        W74408  29.868   3.142  28.241 -0.1007 -0.4693  0.0164
31496W        W74409  31.350   7.510   3.317 -0.1706  0.1726  0.0245
31497W        W74410  32.266   5.749  19.971 -0.2815 -0.0723  0.0299
31498W        W74411  23.571  12.084  25.947  0.1483  0.3150 -0.0828
31499W        W74412   9.043   5.867  21.171  0.3765 -0.0784 -0.2819
31500W        W74413   4.814   1.454  18.837  0.0050  0.0070  0.1445
31501W        W74414  29.175   0.565  11.186  0.0441 -0.1271 -0.1311
31502W        W74415  28.623   6.206  29.154 -0.2167 -0.0470 -0.1744
31503W        W74416   3.142  33.052  28.630  0.1427 -0.1339  0.4084
31504W        W74417  24.843   2.100   5.722 -0.0815 -0.0438  0.2432
31505W        W74418   1.780  20.172   1.763 -0.0470 -0.1878 -0.1483
31506W        W74419  34.094  27.580   4.232  0.0752 -0.2177 -0.1031
31507W        W74420  33.490   0.693   2.501  0.0584  0.0944  0.4482
31508W        W74421  30.492  33.954  10.226  0.0554 -0.0004 -0.2636
31509W        W74422  29.369  17.853  29.060 -0.0837  0.3259 -0.1156
31510W        W74423  23.258   8.768  19.951  0.3369  0.1329 -0.0853
31511W        W74424  30.342   9.710  26.600  0.0577  0.0734 -0.3676
31512W        W74425  19.312  19.492   1.662 -0.0997  0.1377  0.1620
31513W        W74426  32.598   6.193  27.186 -0.0747 -0.0920 -0.1033
31514W        W74427  22.931  33.272   2.625 -0.1843 -0.4490 -0.3533
31515W        W74428  28.126  27.511   2.346 -0.3186 -0.1432 -0.0199
31516W        W74429  31.683  10.238   0.611  0.1544  0.2516 -0.0439
31517W        W74430  27.482   8.730   5.400  0.0013  0.0569  0.1627
31518W        W74431  32.442   6.779   9.490 -0.1705 -0.1093  0.1427
31519W        W74432  31.763   0.142   7.370  0.0103  0.3906  0.1797
31520W        W74433  23.604  34.428  24.498 -0.0906  0.2353  0.3007
31521W        W74434  10.656   7.605   8.659  0.0760  0.2006 -0.3842
31522W        W74435   3.901   6.953   1.255  0.1907 -0.0961  0.0468
31523W        W74436  14.970   0.689   4.869  0.0986 -0.2018 -0.1037
31524W        W74437  27.774  29.957   5.411  0.0449  0.1933 -0.0826
31525W        W74438  29.988   2.376   0.001 -0.1536 -0.0835  0.0016
31526W        W74439  27.602   6.757  25.871  0.0393  0.0224 -0.3113
31527W        W74440  24.271  13.379  27.743  0.1740 -0.0016 -0.0225
31528W        W74441  24.894  28.488  27.299 -0.2223 -0.3587 -0.1223
31529W        W74442  32.649   7.325  17.464 -0.1356  0.0277  0.3217
31530W        W74443  23.287   2.757  26.576  0.0694 -0.3625 -0.0894
31531W        W74444   6.859  13.146  17.997 -0.0745  0.0156 -0.1668
31532W        W74445  16.135  31.649   2.377 -0.1379 -0.4608 -0.1993
31533W        W74446  16.839   2.399  24.331  0.0200 -0.2070 -0.0718
31534W        W74447   2.323   0.913   4.833  0.0214  0.0764  0.1708
31535W        W74448   5.218  16.999  24.291 -0.0603  0.0849  0.0573
31536W        W74449  19.018   9.902  27.537 -0.1099  0.1435  0.1372
31537W        W74450  23.145  28.237   0.405  0.0954 -0.0269  0.1295
31538W        W74451  33.324  28.459  26.721  0.3608 -0.0298 -0.3224
31539W        W74452   2.236   5.523  11.854 -0.0504  0.0547  0.1035
31540W        W74453  28.975  26.119  22.162 -0.0117 -0.3874  0.4156
31541W        W74454  29.400  30.696   1.597  0.4475 -0.2480 -0.2871
31542W        W74455  16.653  29.060  23.577  0.0359  0.1177  0.1135
31543W        W74456  30.778  11.405  20.342  0.2008  0.2090  0.1406
31544W        W74457  26.543   1.887  21.895  0.1309  0.0082  0.0214
31545W        W74458  32.063   7.252  21.732 -0.4608  0.0807  0.0336
31546W        W74459  33.363   5.763  18.311 -0.2849  0.0780  0.0168
31547W        W74460   0.590   8.264  17.525 -0.0338  0.1205  0.2196
31548W        W74461  27.697  31.690  26.915  0.2496 -0.0871  0.0834
31549W        W74462   5.194  23.994  28.150 -0.1369  0.0404  0.0300
31550W        W74463  32.520   2.905   5.047  0.1114  0.2313  0.2081
31551W        W74464  27.374  26.714  27.229  0.1416  0.2455 -0.1142
31552W        W74465  24.171  13.606   0.054  0.0939  0.0242 -0.0533
31553W        W74466  26.667   9.242  28.692 -0.0397 -0.2447 -0.0766
31554W        W74467  33.363   3.139  26.037  0.0646 -0.1070  0.1846
31555W        W74468  19.151   1.384  19.776  0.0975  0.1918 -0.2012
31556W        W74469  28.951  33.136  27.098  0.2567 -0.0881 -0.1462
31557W        W74470  29.568   9.278   0.081  0.0431  0.3019  0.2973
31558W        W74471  30.997  10.471  22.371  0.0009  0.0155 -0.1968
31559W        W74472  25.291  30.376   0.946 -0.2275  0.0899 -0.1982
31560W        W74473  28.527  32.934  17.363 -0.0255 -0.1163 -0.5123
31561W        W74474  32.229  25.327  27.614 -0.1083 -0.4496 -0.1764
31562W        W74475  29.014  23.303   8.173  0.3278 -0.2644  0.0239
31563W        W74476  32.109   5.620   0.852  0.0205 -0.1446  0.0949
31564W        W74477  33.091  15.476  26.492 -0.1183  0.6367 -0.1893
31565W        W74478  18.106   6.412   3.859  0.0744 -0.0713 -0.0643
31566W        W74479   7.120   3.651   2.484  0.0743 -0.1543 -0.2768
31567W        W74480  31.840  29.689   1.016  0.0625 -0.1558  0.0167
31568W        W74481  15.811   1.792  22.782 -0.1304 -0.0942  0.0805
31569W        W74482  29.617  32.464   6.052 -0.1007  0.3661 -0.1632
31570W        W74483  14.197  33.246  24.848 -0.0878  0.1128 -0.0384
31571W        W74484  33.002  27.761   7.419 -0.0674  0.4047  0.0455
31572W        W74485  24.846   1.451   3.144 -0.1474  0.1926 -0.1235
31573W        W74486  24.153   1.972   4.578  0.2375  0.0577  0.1646
31574W        W74487  21.594   6.411  24.580  0.0643  0.2166 -0.0071
31575W        W74488  32.477  10.679   1.317 -0.2418 -0.1709  0.0806
31576W        W74489  28.745   5.175  28.973 -0.0655 -0.0256  0.2307
31577W        W74490   9.566  27.824  25.364  0.0433 -0.0038  0.0466
31578W        W74491  24.942  13.725  27.211 -0.0920 -0.1728 -0.2822
31579W        W74492   3.552   9.663  17.095 -0.0199 -0.2691  0.0430
31580W        W74493  29.150   1.314  17.595 -0.0887 -0.1661  0.1976
31581W        W74494  27.495   1.729  25.373  0.2269 -0.3102  0.0230
31582W        W74495  34.494  32.137  26.318 -0.1794 -0.3773  0.0793
31583W        W74496   0.187   5.637  23.621 -0.3815  0.0003 -0.3210
31584W        W74497   2.885  30.201  26.060 -0.0606  0.1928 -0.0823
31585W        W74498  21.309  34.082  28.362  0.0170 -0.1178  0.0773
31586W        W74499  33.211  29.937  28.919 -0.0456 -0.0015  0.0367
31587W        W74500  23.618  31.614  29.278  0.2354 -0.3064  0.1896
31588W        W74501  33.134  29.164   1.121  0.4681  0.0089 -0.1066
31589W        W74502  27.031  25.126  21.735  0.2252 -0.0821 -0.1308
31590W        W74503  28.378   2.726  21.767  0.0573  0.1416  0.0104
31591W        W74504   1.457   1.396  19.265  0.2229  0.0269 -0.0378
31592W        W74505   1.536   8.371  11.127 -0.1038  0.0168 -0.3202
31593W        W74506  30.136  25.850   6.230  0.1924 -0.1085 -0.1869
31594W        W74507  27.102   8.619  25.077  0.2820 -0.2836  0.4278
31595W        W74508  20.879   7.109  22.855 -0.0904  0.1905  0.0800
31596W        W74509   2.049   7.766  29.084 -0.5230 -0.1603  0.1842
31597W        W74510  30.177  33.879  27.368  0.1939  0.1559  0.3213
31598W        W74511  24.600  34.492  27.227 -0.2623 -0.1819 -0.3878
31599W        W74512   2.137  32.719  25.187  0.2381  0.1077  0.1314
31600W        W74513   6.214  28.920   0.789 -0.1745  0.0010  0.0800
31601W        W74514  30.985  30.817   6.272  0.1464 -0.0846 -0.0468
31602W        W74515   4.799   4.101  12.097  0.2921  0.1391  0.0819
31603W        W74516  29.155   6.616  27.307 -0.1018 -0.0771  0.0973
31604W        W74517  33.468   6.827  24.565 -0.4760  0.1209 -0.0525
31605W        W74518   2.238  31.361  28.682  0.1341 -0.2540 -0.1771
31606W        W74519  27.777   2.919  25.406  0.1472 -0.0950 -0.2580
31607W        W74520  16.662   3.168  26.969 -0.0861  0.1308 -0.1700
31608W        W74521  22.834   2.437  26.481 -0.0946  0.1746 -0.1893
31609W        W74522  33.078  16.114  24.590  0.0645  0.0737 -0.1232
31610W        W74523  23.738  32.999   2.514 -0.2374 -0.1318 -0.3287
31611W        W74524  28.413   3.381  25.592 -0.0607 -0.0241  0.0069
31612W        W74525  27.226   4.180  22.207  0.0958  0.2084 -0.1504
31613W        W74526   5.520  27.059  23.508  0.1278 -0.3863  0.1653
31614W        W74527  20.721   8.467  17.260  0.0539  0.0578 -0.2655
31615W        W74528  32.696  11.205  27.760 -0.2757  0.2495 -0.0495
31616W        W74529  28.590  11.202  28.778  0.1759  0.2031  0.1771
31617W        W74530  31.506   2.647  23.982 -0.0394 -0.3171  0.1137
31618W        W74531  17.298  31.978   6.266  0.4874 -0.1536 -0.1778
31619W        W74532  32.269   7.184   2.949 -0.0382 -0.0745  0.0637
31620W        W74533  25.090   6.748  27.180 -0.3994  0.0775 -0.0379
31621W        W74534  23.741   8.169  27.972  0.1545 -0.0390  0.2661
31622W        W74535  28.816   2.111   3.426  0.0331 -0.2534  0.0540
31623W        W74536  21.911  25.241  20.275 -0.0266  0.2759  0.1692
31624W        W74537  24.210  12.136   5.341 -0.0733  0.0430  0.2747
31625W        W74538  30.099   7.844  27.895  0.3941 -0.1447 -0.0849
31626W        W74539   0.213   5.710   4.570 -0.0990  0.2737  0.2089
31627W        W74540  28.836  17.570  29.154  0.1453 -0.3648  0.1795
31628W        W74541  19.643   2.956   9.836  0.1635 -0.1047 -0.0796
31629W        W74542  14.621   4.300   6.114 -0.2604 -0.0846  0.0085
31630W        W74543  34.124   2.584  23.997  0.3618  0.0126  0.1329
31631W        W74544   1.320   8.508  16.847 -0.2827  0.3146  0.2975
31632W        W74545   1.030  33.280   1.499 -0.2109  0.1610  0.1903
31633W        W74546  32.293   0.936  26.891  0.0122 -0.0946 -0.1197
31634W        W74547  31.721  16.055  28.704  0.1829  0.1731 -0.0074
31635W        W74548  24.430  31.796  28.055  0.1895  0.3440 -0.1922
31636W        W74549   0.110   7.576   4.184  0.1514 -0.2839  0.1783
31637W        W74550   0.961  13.443  19.148 -0.0168  0.0519 -0.2296
31638W        W74551   0.118   5.896  25.381 -0.0891  0.0724  0.1307
31639W        W74552  31.420   3.922  25.292 -0.1425 -0.2790 -0.1446
31640W        W74553  25.775  33.328  27.216  0.2388  0.1163 -0.0270
31641W        W74554  33.617  11.176   7.245  0.1895  0.2190 -0.4320
31642W        W74555  33.780  31.700   7.731 -0.2211  0.0297  0.2195
31643W        W74556  12.920  27.101   1.622 -0.2871 -0.1947 -0.0848
31644W        W74557  30.419   4.917   2.167 -0.3547 -0.0259  0.0627
31645W        W74558  25.261  12.238   1.925 -0.1333  0.0082  0.0578
31646W        W74559   2.483  28.714  25.951 -0.0875 -0.1052 -0.2114
31647W        W74560  28.663   8.735  16.731 -0.0851 -0.1082 -0.0888
31648W        W74561  24.242   3.223  27.613  0.0320 -0.1180  0.3040
31649W        W74562  11.333  26.486  22.305 -0.3215 -0.0340 -0.2572
31650W        W74563  24.875  20.012  15.423  0.0085 -0.3894  0.0834
31651W        W74564  12.260  28.955   1.025 -0.2648 -0.1532 -0.4238
31652W        W74565  31.422  31.800  24.210 -0.0793  0.1748  0.0267
31653W        W74566  25.025   7.118  19.364 -0.1134 -0.1341  0.0953
31654W        W74567  24.476   3.048  28.690  0.2542  0.1455  0.0262
31655W        W74568  28.125   1.829  26.272  0.0585 -0.0576 -0.0258
31656W        W74569  28.302   8.339  22.937  0.0373 -0.1860  0.0094
31657W        W74570  26.689   8.800  29.041 -0.0586  0.1965 -0.1602
31658W        W74571  32.447  10.870  24.817  0.2103 -0.0042 -0.1582
31659W        W74572   2.520   6.048   2.384  0.0045 -0.1362  0.1736
31660W        W74573  29.260   0.444  28.123  0.0002  0.0975 -0.0993
31661W        W74574  30.010   7.262  26.606  0.3085 -0.0437  0.1485
31662W        W74575   3.293  31.857  29.333  0.2600  0.0078  0.3148
31663W        W74576  28.541   8.785  28.970 -0.2097 -0.2292  0.2420
31664W        W74577  24.596   8.350  27.789 -0.1217 -0.0742  0.0268
31665W        W74578  31.200  24.888  29.551  0.1571 -0.2372  0.0499
31666W        W74579  23.641  10.088  20.851  0.2122  0.0194  0.0440
31667W        W74580  25.067   0.856   7.422 -0.1640 -0.0190  0.1488
31668W        W74581  31.410  28.907  24.036  0.1869  0.0867 -0.0368
31669W        W74582  27.264   8.222  20.967  0.3851 -0.1383  0.4564
31670W        W74583   5.259   0.483  22.743 -0.0949 -0.2882  0.0555
31671W        W74584  26.587   6.621   5.743  0.2056 -0.2133  0.0751
31672W        W74585  30.791   6.218  29.145  0.1601  0.1890  0.2214
31673W        W74586  26.430  11.630  26.788  0.2722 -0.1535  0.0831
31674W        W74587  25.592   1.714  23.713 -0.1196 -0.1931  0.0546
31675W        W74588  34.298   0.290   1.544  0.2112 -0.0371 -0.2556
31676W        W74589   5.841   0.540  25.516 -0.0822  0.2445 -0.1180
31677W        W74590   0.611  32.624   5.352  0.1026 -0.1239  0.0630
31678W        W74591  30.884   4.119  21.049  0.3115 -0.0903  0.1297
31679W        W74592  17.849   0.829   2.685 -0.1884  0.0260  0.3067
31680W        W74593  31.037  11.931   0.371  0.0183 -0.5542 -0.0899
31681W        W74594   3.869   3.110  24.280 -0.3375  0.0239  0.0454
31682W        W74595  31.662   3.382  16.331  0.2108 -0.0862  0.0749
31683W        W74596   0.024   0.172   6.990 -0.1999  0.0144  0.4529
31684W        W74597  30.880  31.672   1.271  0.0921 -0.1856  0.1556
31685W        W74598  19.634   9.291   5.500 -0.4742  0.2155 -0.1358
31686W        W74599   0.362   3.056   5.810  0.0999 -0.3044  0.1898
31687W        W74600  25.525   3.108   3.414  0.0357  0.1800  0.4112
31688W        W74601  32.678  25.610  21.034  0.3581  0.1486 -0.1691
31689W        W74602   1.888   4.696  21.290  0.2213 -0.0587  0.3281
31690W        W74603  30.187  12.015  14.089  0.2214  0.2156 -0.1137
31691W        W74604  20.723   3.948  27.747 -0.3979 -0.1099 -0.3040
31692W        W74605  22.073   3.137   0.195  0.0080 -0.0761  0.0723
31693W        W74606  32.450   6.241  16.700  0.1603  0.2519 -0.0011
31694W        W74607  29.011   6.325   3.631 -0.1472  0.0275 -0.1918
31695W        W74608  25.091  32.577  28.904 -0.0684 -0.0000  0.0099
31696W        W74609  30.358   1.891  29.694 -0.0921  0.0933  0.0925
31697W        W74610   7.323  13.917  23.090  0.1029  0.0757 -0.1853
31698W        W74611  27.318  30.794  27.093 -0.2344  0.0828 -0.3309
31699W        W74612  29.658   3.975   6.274  0.1435  0.2376 -0.1940
31700W        W74613   0.340  34.151   0.417  0.3985 -0.1803 -0.2908
31701W        W74614  19.737   1.646  25.418  0.2471  0.2479  0.0991
31702W        W74615   0.941   7.340  27.564 -0.3598  0.2918 -0.2514
31703W        W74616  25.016   0.816  28.207  0.0261  0.1164 -0.0163
31704W        W74617  26.319  33.668   9.523  0.2048  0.0823  0.0538
31705W        W74618   2.507   2.326   3.684  0.4648 -0.4012 -0.0658
31706W        W74619   0.951  32.524   4.143  0.2654  0.2502  0.0712
31707W        W74620   2.205   2.024  25.022  0.1332  0.2037  0.0045
31708W        W74621   0.558  14.947   3.487  0.1157  0.1213 -0.0922
31709W        W74622   5.473   2.172  28.267  0.0719  0.0749 -0.1643
31710W        W74623  32.952   1.746  24.479 -0.2378 -0.1651 -0.0140
31711W        W74624  25.902   2.690   5.085  0.1669 -0.1726  0.0902
31712W        W74625  32.019  34.468   5.125 -0.1017  0.0094  0.0037
31713W        W74626   5.854   9.670   3.776  0.2498  0.2781  0.0447
31714W        W74627  25.446  24.948   1.647 -0.0012 -0.0304 -0.1205
31715W        W74628  23.211  14.254   5.254 -0.0396  0.0107  0.0081
31716W        W74629  28.474  21.258  23.642  0.2262  0.0993 -0.3244
31717W        W74630  26.557   7.881  23.429  0.0836  0.0145  0.1605
31718W        W74631  33.921   6.023  17.055  0.1585  0.1034  0.1649
31719W        W74632  30.144  17.726  29.591 -0.3610  0.0776 -0.1248
31720W        W74633  28.219  13.149   3.040 -0.1634 -0.1104 -0.0214
31721W        W74634  31.298   0.691  28.803  0.0396  0.1626 -0.1666
31722W        W74635  29.932   2.654   9.006  0.0185  0.0158 -0.0443
31723W        W74636   2.658  27.339   3.364 -0.1446 -0.0106 -0.1369
31724W        W74637  10.642   3.546   7.684  0.1794  0.0899  0.3354
31725W        W74638   2.033   4.971   5.638  0.2394 -0.2194  0.3372
31726W        W74639  26.389  20.040  26.394 -0.1109  0.0250 -0.1572
31727W        W74640  25.246  30.402   6.096  0.1296  0.1722  0.2417
31728W        W74641  28.979   8.534   4.480 -0.2131 -0.0558 -0.3091
31729W        W74642  26.690   5.759  22.831  0.1120 -0.1651 -0.2505
31730W        W74643  21.354  18.842  19.180  0.3167 -0.3458  0.2529
31731W        W74644  23.612  27.332  27.504 -0.0039 -0.0241  0.2009
31732W        W74645  24.940  33.925  23.875  0.2762  0.3398  0.0372
31733W        W74646  24.839   9.808   2.333 -0.4324 -0.1056  0.0828
31734W        W74647  31.591  10.810   9.785  0.3021 -0.4612 -0.0378
31735W        W74648  23.057   3.166  26.202  0.0637 -0.2292  0.1649
31736W        W74649   1.954   8.673  27.150  0.0828  0.1947  0.1347
31737W        W74650  30.418   6.054  20.238  0.0529 -0.3392  0.1310
31738W        W74651  26.918   1.639  29.752 -0.1907  0.0649 -0.2064
31739W        W74652   1.705  25.400   4.993 -0.0245 -0.3336 -0.1642
31740W        W74653  34.119   3.358  23.772  0.4601 -0.2652 -0.0542
31741W        W74654  25.534  34.305  28.312  0.1136  0.0603  0.0807
31742W        W74655   5.902  31.205  25.329  0.0271  0.0811  0.1573
31743W        W74656  19.663   3.837  24.196 -0.0947  0.0770  0.2791
31744W        W74657  28.958   7.145  24.875 -0.2039 -0.1507 -0.0572
31745W        W74658  15.236   7.894  24.349  0.0969 -0.1382  0.2199
31746W        W74659  18.334   9.140   0.421  0.0010  0.0056  0.1661
31747W        W74660  26.684   7.575  20.010 -0.2807  0.2531 -0.2279
31748W        W74661  21.094   6.010  22.492 -0.1058 -0.1681  0.1045
31749W        W74662   1.344  27.337   3.719  0.1099  0.2313 -0.0297
31750W        W74663  23.596  32.510  26.301 -0.3978  0.0839 -0.0521
31751W        W74664  29.517   2.344  22.462 -0.1575  0.0402  0.3332
31752W        W74665  29.739   9.720  26.169 -0.0834  0.1226 -0.3254
31753W        W74666  22.503   9.912  21.802  0.0270 -0.3515 -0.2298
31754W        W74667  23.431  33.544  29.708  0.0047  0.0841 -0.3887
31755W        W74668   4.946   3.407   7.384  0.0218 -0.1338 -0.3468
31756W        W74669  21.480  32.924  22.884 -0.4108 -0.2367 -0.2112
31757W        W74670  31.958   1.022  26.511 -0.1286 -0.0590 -0.1874
31758W        W74671  31.694   0.202  18.400  0.0763  0.0497  0.2493
31759W        W74672  21.709  16.827  28.446 -0.0766  0.1158  0.0316
31760W        W74673  23.832  33.508  24.657  0.1097  0.0739  0.2678
31761W        W74674   0.032  13.543  22.367 -0.2911  0.0135 -0.0485
31762W        W74675  33.985  25.185  24.379  0.3422  0.1166 -0.2167
31763W        W74676  29.350   8.302  29.104 -0.0484  0.0777 -0.0508
31764W        W74677  30.406  14.282  27.716 -0.0291  0.0341 -0.2580
31765W        W74678   1.078   4.177   3.695 -0.1180  0.1749  0.0908
31766W        W74679  24.256  31.546   5.248 -0.2760 -0.0084  0.0454
31767W        W74680  25.491   3.801  24.114 -0.2062 -0.0723 -0.1275
31768W        W74681  26.188  33.199   2.215  0.1517  0.1552 -0.0742
31769W        W74682  31.418   9.862  27.745 -0.0423 -0.3407  0.1099
31770W        W74683  30.697  24.851   0.483  0.0521  0.1344 -0.0552
31771W        W74684  10.976   9.260  25.673 -0.3895 -0.0825  0.4939
31772W        W74685  26.075   4.450   0.902  0.2199  0.3344 -0.3722
31773W        W74686  31.124   9.801  20.811 -0.0434  0.1316  0.0556
31774W        W74687   0.199   3.975  23.249  0.1137 -0.0370  0.1087
31775W        W74688  32.309  34.476   6.673  0.0474  0.0067 -0.4990
31776W        W74689  25.043   3.349  18.131 -0.2776 -0.1226  0.0909
31777W        W74690  11.303   5.152  23.359  0.0606 -0.0936  0.2695
31778W        W74691  23.110  14.021  29.013 -0.0889 -0.4434  0.2204
31779W        W74692  24.826   0.752  28.685  0.1867 -0.0893  0.0644
31780W        W74693   1.770  10.994  15.942  0.1353 -0.1041  0.0870
31781W        W74694  29.430   6.423   0.164 -0.2130  0.3285  0.1175
31782W        W74695  31.069  33.660  26.134 -0.0524 -0.2516  0.1777
31783W        W74696   5.610   3.292   2.822  0.1267  0.1405  0.2612
31784W        W74697  25.382  31.988  18.753 -0.0465 -0.2977  0.0078
31785W        W74698   2.847   2.661   0.337  0.0819  0.4139 -0.2722
31786W        W74699  15.760  12.268  26.101 -0.4003 -0.0099  0.0061
31787W        W74700   3.517   3.754  28.741 -0.1572  0.2063  0.0945
31788W        W74701  30.215   1.193  10.093  0.0352  0.1281  0.4419
31789W        W74702   6.816  20.996   8.756  0.0845  0.0583  0.0351
31790W        W74703  21.643  10.259   2.284  0.1243  0.0563 -0.1098
31791W        W74704  29.993   5.907  29.188 -0.2163  0.1541  0.0209
31792W        W74705   9.072   1.606  22.489 -0.0101  0.1406  0.3204
31793W        W74706  15.818   6.822  15.718 -0.1906  0.0678 -0.5434
31794W        W74707  23.291  10.353  24.865  0.2999 -0.1239  0.1297
31795W        W74708  29.974  16.738  19.953 -0.1752 -0.1009 -0.1406
31796W        W74709  27.440  16.269  25.587  0.2840  0.3432  0.0965
31797W        W74710   5.051   8.355  27.278  0.3372  0.2548  0.0633
31798W        W74711  25.432  34.428  28.841  0.0958  0.1725  0.1415
31799W        W74712   8.528   1.587   2.700 -0.0494 -0.2011  0.0441
31800W        W74713  24.941   0.710  29.660 -0.0905  0.1015 -0.1152
31801W        W74714  29.612  33.935  24.173 -0.4449 -0.2838 -0.1331
31802W        W74715  28.954  31.604  25.653 -0.3303  0.4242  0.0521
31803W        W74716   4.002   4.671   2.241 -0.0333  0.0468  0.2789
31804W        W74717   3.287   3.068  21.818  0.0497 -0.1928 -0.3899
31805W        W74718  28.359  11.994   4.464  0.0260  0.0323  0.1018
31806W        W74719  26.623   2.818  29.499  0.1678 -0.2202  0.2265
31807W        W74720  25.355  29.467  17.496 -0.0495  0.0026  0.1993
31808W        W74721  26.541  28.561   7.203 -0.0913  0.1737  0.0733
31809W        W74722   3.204  12.772  16.574 -0.0432  0.2143 -0.2208
31810W        W74723  29.193   6.581   6.608 -0.0905 -0.1366 -0.1544
31811W        W74724  25.250  12.997  28.830 -0.0117  0.2871 -0.0996
31812W        W74725  21.742   2.972  23.777  0.0833 -0.3083 -0.2057
31813W        W74726   2.442   8.007  28.476  0.0404 -0.1638  0.2205
31814W        W74727  27.748  32.502   9.667 -0.1345 -0.1326  0.0878
31815W        W74728  31.925   1.003  23.845  0.0622  0.0531  0.3858
31816W        W74729  26.454  31.254  19.964 -0.0965  0.2182 -0.1863
31817W        W74730  33.384  10.222   4.182  0.1724 -0.0868 -0.0595
31818W        W74731  25.110  34.143   1.776 -0.1721 -0.0750  0.3474
31819W        W74732  33.960   1.068   2.044 -0.3104  0.0336  0.0785
31820W        W74733  27.155  16.811  27.121 -0.3610 -0.0202  0.2269
31821W        W74734  33.514  11.165   3.705 -0.0640 -0.2170 -0.0457
31822W        W74735  24.766  11.445  24.668  0.1463 -0.2139 -0.1957
31823W        W74736  33.181  11.775  26.157  0.0254 -0.0144  0.0300
31824W        W74737  21.890   1.412  25.728 -0.1501 -0.1419  0.1511
31825W        W74738  33.840   5.623   9.835  0.1099 -0.0122 -0.1917
31826W        W74739  29.144   8.536  21.594 -0.1849 -0.0123  0.3430
31827W        W74740  29.567   6.690  26.065  0.2076 -0.2154 -0.1638
31828W        W74741  30.314  32.173  21.247 -0.0580 -0.0522  0.0434
31829W        W74742   3.717   7.917  22.110  0.1925 -0.2925 -0.4104
31830W        W74743  31.352   1.812  24.153 -0.0415 -0.1340  0.2785
31831W        W74744   4.032  32.212  27.396 -0.0897 -0.3858 -0.0733
31832W        W74745  32.091  29.000  25.987 -0.0610 -0.0230  0.1581
31833W        W74746  31.938  14.928  28.348 -0.2972  0.0486 -0.2049
31834W        W74747  28.236   2.935  23.093 -0.0108 -0.1556  0.0241
31835W        W74748  25.306   6.982   1.977 -0.0753 -0.0500 -0.0427
31836W        W74749  24.765  32.953   3.412 -0.2805 -0.2612  0.0263
31837W        W74750   1.749   6.260   3.496  0.0288  0.2217 -0.0640
31838W        W74751  34.117  33.254   1.940 -0.1519  0.1292 -0.1152
31839W        W74752  29.793  27.394   5.195 -0.2162 -0.2180 -0.0827
31840W        W74753  23.912  18.502  29.659 -0.4073 -0.0441 -0.0996
31841W        W74754  27.625  13.357  24.675  0.0763 -0.1373 -0.2324
31842W        W74755  22.806  30.901  28.769  0.2127 -0.1738 -0.1516
31843W        W74756  32.297   0.516   4.867  0.0935  0.0229  0.0535
31844W        W74757   5.763  33.406  11.071  0.0563  0.2914  0.0649
31845W        W74758  26.345  16.861  27.206  0.0667  0.1299  0.2615
31846W        W74759  21.541  11.178   2.850 -0.0111 -0.3054 -0.2884
31847W        W74760   7.629   1.892  23.006 -0.4819 -0.0365 -0.0037
31848W        W74761  32.409   4.223  26.937  0.0614  0.0841  0.2600
31849W        W74762  18.328  12.258  21.325  0.1161  0.3579  0.1226
31850W        W74763   2.799   9.909  26.214  0.0666 -0.0766  0.0375
31851W        W74764  28.753  32.656  29.550 -0.2828 -0.1936  0.3657
31852W        W74765  33.520  14.084   1.027  0.0589 -0.3401  0.0356
31853W        W74766  25.402   2.793   0.383  0.0199  0.1255  0.1270
31854W        W74767  23.956   5.948   2.300  0.3316  0.0723 -0.0669
31855W        W74768  30.916   1.420   0.495  0.2846 -0.1658  0.1473
31856W        W74769  30.496   0.453  28.444  0.1107 -0.3017  0.1082
31857W        W74770  32.274  27.321   7.775 -0.3402  0.0410 -0.1330
31858W        W74771  34.442   9.029   6.744  0.0537  0.0369 -0.2781
31859W        W74772  22.531  13.191  21.071  0.0738 -0.0383 -0.3411
31860W        W74773   2.961   5.199   7.384  0.1131  0.0974  0.0747
31861W        W74774  29.007  27.756   1.406 -0.3519  0.0483  0.1294
31862W        W74775  26.666   3.236   5.615  0.0572 -0.2491 -0.0097
31863W        W74776   0.009  32.891  28.845 -0.1649 -0.2635  0.0294
31864W        W74777  29.460   8.383  25.702  0.1796 -0.2203  0.1916
31865W        W74778  30.351  32.547   7.649  0.2070  0.2857 -0.0604
31866W        W74779   3.356   2.956   6.561 -0.0905 -0.1289  0.1165
31867W        W74780  29.254   0.612   6.488  0.1571 -0.0212 -0.0214
31868W        W74781   9.576   8.117  29.235  0.1312  0.1376 -0.0775
31869W        W74782   0.943   0.658  29.247 -0.2332 -0.1253 -0.2470
31870W        W74783   7.607  17.695   5.746  0.0466  0.1696  0.2260
31871W        W74784  26.365  12.236   1.049 -0.1274  0.0325 -0.1071
31872W        W74785  24.298   8.363  27.089  0.2792 -0.2806 -0.1023
31873W        W74786   6.950  33.788   1.021  0.2287  0.1986 -0.1494
31874W        W74787  31.801  33.655   2.582 -0.1003 -0.2488  0.0215
31875W        W74788  22.400  28.203  28.806 -0.0881  0.0226 -0.0712
31876W        W74789  27.670   4.729  28.839  0.1834  0.2466  0.2008
31877W        W74790  31.920   3.247  17.056  0.1227  0.2804  0.1219
31878W        W74791   0.354  30.221   5.785 -0.1778 -0.1593 -0.0842
31879W        W74792   5.695  31.571   1.904  0.0535 -0.0282  0.1948
31880W        W74793  10.847   9.766  25.556  0.0308 -0.1211  0.0145
31881W        W74794  32.613   0.208   0.111 -0.0704 -0.1331 -0.2961
31882W        W74795   4.147   3.091  10.012 -0.1036 -0.1292  0.1752
31883W        W74796  25.325  13.566   4.021  0.0974 -0.1696  0.1763
31884W        W74797  30.348  12.119  29.053 -0.0962  0.0949 -0.1841
31885W        W74798  16.600   2.347  27.231 -0.1820  0.1848  0.0467
31886W        W74799  10.044   1.212   4.954 -0.0136 -0.2634  0.1027
31887W        W74800  28.694   8.475  26.177 -0.1129 -0.1308 -0.1983
31888W        W74801  34.310   1.554  27.389  0.0666  0.0954 -0.0343
31889W        W74802  30.136  26.960  28.113  0.0865 -0.1668  0.3210
31890W        W74803  26.321   1.516   9.328  0.1267 -0.1502  0.2513
31891W        W74804  33.294  12.731   3.407  0.3775 -0.2022 -0.2042
31892W        W74805  29.328  10.971   0.816  0.1377  0.1677  0.1718
31893W        W74806   1.614   6.164  27.574  0.1542 -0.1814 -0.1709
31894W        W74807  33.479  10.907  23.496  0.0632  0.0708 -0.1039
31895W        W74808  29.534  23.048   6.915  0.0457  0.1765 -0.2678
31896W        W74809   0.628  32.395  17.667  0.3721  0.2099 -0.4421
31897W        W74810  29.331   6.839  29.764  0.0815 -0.0278  0.4811
31898W        W74811  32.434   8.347  23.204 -0.0228 -0.1584  0.0972
31899W        W74812  29.681  11.322   2.038  0.1027 -0.1295  0.1934
31900W        W74813  31.224  30.742  28.094  0.0718 -0.1095  0.3522
31901W        W74814  28.234   0.893   3.364  0.0416  0.0116 -0.2955
31902W        W74815   0.256  32.733  29.565  0.1997  0.0780 -0.1961
31903W        W74816   0.863  28.804  19.806  0.0985 -0.1139 -0.2264
31904W        W74817  27.795  31.626   7.069  0.1268 -0.0164 -0.2223
31905W        W74818  33.253   5.835  27.908 -0.0617 -0.1922 -0.0914
31906W        W74819   2.700  33.257   8.256  0.2860  0.2622  0.0594
31907W        W74820  30.759   2.539   2.538  0.0726  0.1777  0.0792
31908W        W74821  34.329   6.899   1.377  0.1721 -0.2565  0.3731
31909W        W74822  30.980   1.895   4.724 -0.1129 -0.4048  0.1601
31910W        W74823  34.400  15.804   4.174  0.0892  0.1671  0.2522
31911W        W74824  30.857   3.352  28.309  0.1187 -0.2981  0.0256
31912W        W74825  25.562   7.214  28.500 -0.0182  0.0521 -0.1692
31913W        W74826   5.625   8.855   3.090 -0.2479  0.1027  0.0615
31914W        W74827  22.452  22.733  28.240 -0.3252  0.1669  0.0037
31915W        W74828   2.566   7.480   7.019  0.1645 -0.0101 -0.2917
31916W        W74829   2.289  15.438   8.808  0.0686  0.4837 -0.0953
31917W        W74830  26.709   4.225  26.404 -0.0613 -0.1067  0.1217
31918W        W74831  29.296   9.239   1.912 -0.2204  0.4873  0.1055
31919W        W74832  26.781  11.229   4.395  0.0403 -0.0637 -0.1624
31920W        W74833  18.300   0.951  27.543 -0.0481  0.0758 -0.0680
31921W        W74834   5.461   7.531  27.605  0.1247  0.0113  0.1170
31922W        W74835   1.051   0.242   0.271  0.2541  0.3270  0.1166
31923W        W74836   0.397   7.464  22.372  0.0509 -0.1461  0.1573
31924W        W74837  34.043  30.152  26.765 -0.1285 -0.3267  0.0807
31925W        W74838  24.673  10.056  25.183 -0.1631 -0.0681 -0.0967
31926W        W74839   3.419   4.154  20.008  0.4498  0.0445  0.0405
31927W        W74840  23.755   3.136  26.721  0.3161  0.0659  0.0771
31928W        W74841   4.577   0.883  17.051 -0.0071 -0.3773  0.0818
31929W        W74842   0.556   9.948  16.148 -0.0456 -0.0458 -0.0300
31930W        W74843  28.459  17.593  23.447 -0.2673  0.2209  0.1383
31931W        W74844  24.342  10.081  14.542  0.4326 -0.1714  0.0269
31932W        W74845  30.348   5.179  16.107  0.3071  0.3486  0.0910
31933W        W74846  27.753   4.842  22.596  0.0457 -0.0842  0.1094
31934W        W74847  29.992   7.448  27.133 -0.3450  0.0941 -0.2154
31935W        W74848  24.911   5.757  13.741 -0.1465 -0.0449  0.0517
31936W        W74849  26.946   8.841  15.976  0.0515 -0.0888 -0.2752
31937W        W74850  25.246   5.790  19.236 -0.1080  0.0157 -0.3239
31938W        W74851  29.936  30.963  20.606  0.1258 -0.1777 -0.1098
31939W        W74852  29.140   4.412  17.409 -0.0007 -0.1933 -0.1213
31940W        W74853   0.027   0.786  17.669 -0.1182 -0.0478  0.1733
31941W        W74854  23.943  31.355  25.617  0.0082  0.1795  0.0635
31942W        W74855  19.413  29.135  26.159 -0.0853 -0.0429  0.2042
31943W        W74856  24.245   4.065  25.772 -0.2846  0.0230 -0.2279
31944W        W74857  28.841  14.378  20.110 -0.0383 -0.0946 -0.0170
31945W        W74858  28.612   7.699   1.453 -0.2438 -0.3976  0.1403
31946W        W74859  24.749  26.627   0.179  0.2059 -0.0172  0.1753
31947W        W74860  29.973   6.597  21.929  0.2232 -0.1383  0.1217
31948W        W74861  27.884   9.702  14.126 -0.0648  0.3771 -0.3645
31949W        W74862   4.598  13.670  25.585 -0.2005 -0.0954  0.0656
31950W        W74863  22.058  11.543  25.578  0.3023  0.3355 -0.3134
31951W        W74864  28.434  13.626  15.964 -0.1854 -0.2519  0.1695
31952W        W74865   0.250   7.894  17.701 -0.0655  0.1544 -0.0957
31953W        W74866   1.749   6.097  19.964 -0.1003 -0.0061  0.3054
31954W        W74867  31.796   1.730  18.090 -0.1720  0.2545  0.1796
31955W        W74868  22.191   7.268  23.196 -0.0485  0.1715  0.0283
31956W        W74869   3.043   9.704  16.169 -0.1815 -0.2082  0.1359
31957W        W74870  33.718  29.304  21.640 -0.0904 -0.2347  0.1332
31958W        W74871  19.977   1.960  16.707 -0.0691  0.1203 -0.0433
31959W        W74872  27.031   6.060  19.361  0.3639 -0.1873 -0.1668
31960W        W74873  28.312  10.706  22.552 -0.2596  0.5179 -0.0407
31961W        W74874  28.907   4.704  28.217  0.2596  0.1387 -0.2048
31962W        W74875   1.951  11.913   1.062 -0.1229  0.1682  0.4092
31963W        W74876  33.521   3.144  20.968  0.4072  0.1723  0.2657
31964W        W74877  29.681  11.661  17.188 -0.2267  0.0444 -0.1559
31965W        W74878  26.113   8.492  22.975  0.0347  0.0573  0.1222
31966W        W74879  22.600  13.057  23.626  0.0534  0.1675  0.0540
31967W        W74880  27.487   2.503  19.740 -0.2378 -0.4225 -0.0272
31968W        W74881  33.591  29.177  20.515  0.3778  0.1425 -0.0438
31969W        W74882  29.042  13.532  13.854 -0.1178  0.0722 -0.0446
31970W        W74883  25.271   3.320  17.709 -0.2451 -0.1329 -0.0419
31971W        W74884  32.968  11.816  20.277 -0.1682  0.1847  0.1530
31972W        W74885  32.006   4.862  29.088 -0.2870  0.0218  0.0602
31973W        W74886   5.133  32.783  26.608 -0.0429  0.1152 -0.1938
31974W        W74887  28.877   3.423  18.809 -0.0084  0.0319  0.0055
31975W        W74888  15.492  31.598  17.971 -0.3803 -0.0180  0.0493
31976W        W74889  32.978   4.913  19.384  0.3021  0.2416 -0.0543
31977W        W74890  28.150   3.513  22.885 -0.2784  0.1262  0.1342
31978W        W74891  25.457   4.325  17.493  0.3033 -0.0975  0.4210
31979W        W74892  27.693  22.657  19.570  0.1314 -0.1609 -0.1231
31980W        W74893   9.072   8.188  16.990 -0.0454 -0.0845  0.0885
31981W        W74894  27.654   3.770  13.934 -0.0253 -0.0944 -0.1229
31982W        W74895  33.121   7.193  16.334  0.0518 -0.5178 -0.0521
31983W        W74896  33.647   2.301  25.614 -0.2187  0.2935 -0.2184
31984W        W74897  26.456   5.760  19.600  0.1173 -0.2850  0.0958
31985W        W74898   4.879  11.226  19.624 -0.0700 -0.2588  0.0934
31986W        W74899  33.758   9.080  18.211  0.1617 -0.0649  0.0127
31987W        W74900  28.863   8.572  25.374 -0.1583  0.1139  0.0829
31988W        W74901  10.911  14.878  17.513 -0.2304  0.3175  0.4149
31989W        W74902  20.189  15.683  14.978 -0.2874  0.4373 -0.0083
31990W        W74903  33.369   5.320  19.180  0.1122 -0.2307 -0.3736
31991W        W74904   1.691   8.177  21.115 -0.0632 -0.0905  0.0058
31992W        W74905  33.304   3.814  23.593 -0.0692  0.0804 -0.1410
31993W        W74906  27.109   3.660  19.640 -0.2435  0.2124  0.0882
31994W        W74907  28.215   4.954  21.381 -0.2347 -0.3408 -0.0783
31995W        W74908   1.144   3.491  21.244 -0.1338  0.2385 -0.1434
31996W        W74909  29.249   5.099  17.371  0.1497 -0.4002  0.0217
31997W        W74910  32.077   8.397  18.708 -0.0924  0.1169  0.0449
31998W        W74911  28.697  13.368  17.095  0.0551 -0.0465 -0.0320
31999W        W74912  22.249   8.125  14.732  0.0570  0.0090 -0.1428
32000W        W74913  33.368  13.433  24.154 -0.0509 -0.4339 -0.1357
32001W        W74914  23.819   2.170  26.423 -0.1572 -0.2155  0.0960
32002W        W74915  27.718  13.038  15.051 -0.1171 -0.0198  0.0664
32003W        W74916  28.050  18.797  27.499 -0.2299 -0.0821 -0.0428
32004W        W74917   2.292  21.949  16.213  0.2194 -0.0182 -0.0071
32005W        W74918  29.167   7.149  16.724  0.2286 -0.0092  0.0590
32006W        W74919  25.851   5.852  24.578  0.0863  0.0267 -0.1493
32007W        W74920  29.824  11.552  20.387  0.1661 -0.1129 -0.1451
32008W        W74921  29.801  11.561  15.521  0.4195 -0.1198  0.0624
32009W        W74922  25.036   9.437  21.575 -0.2115  0.4880 -0.1195
32010W        W74923  12.998   4.352  27.356 -0.2831  0.2461 -0.2744
32011W        W74924  28.425  18.233  17.607 -0.2186  0.3369 -0.3442
32012W        W74925   0.540  33.267  24.672  0.2303  0.0481  0.1960
32013W        W74926  26.388   1.809  19.737 -0.0525 -0.2566  0.0563
32014W        W74927  28.332   8.006  24.807 -0.0297  0.3017  0.2270
32015W        W74928  21.982  28.885  27.751 -0.1524 -0.0754 -0.0486
32016W        W74929  32.283  13.721  16.313  0.3580 -0.0971  0.1387
32017W        W74930   8.262   0.860  19.282 -0.2389 -0.2453 -0.1003
32018W        W74931  33.879  28.088  23.933  0.1363  0.2646  0.0019
32019W        W74932   2.031   5.265  28.902 -0.4907 -0.2238  0.1206
32020W        W74933  29.378   6.829  17.107 -0.1057  0.1717  0.2322
32021W        W74934  22.199   9.219  16.571 -0.1739 -0.0798 -0.2991
32022W        W74935  18.668   3.694  21.214  0.0659  0.1814  0.0313
32023W        W74936  30.846  32.136   5.691 -0.0440 -0.2587  0.0352
32024W        W74937  29.918   7.094   1.975 -0.0341  0.2290 -0.3643
32025W        W74938  32.555   6.440  21.239 -0.1658  0.0861 -0.1123
32026W        W74939   3.495   8.471  23.200 -0.0044 -0.2758  0.1516
32027W        W74940  27.549  17.881  17.409 -0.4015 -0.1841  0.0876
32028W        W74941  32.582  30.856  16.141 -0.0091 -0.1390 -0.0046
32029W        W74942  28.865   0.445  19.951 -0.0773  0.0977  0.0010
32030W        W74943  31.221   8.291  20.732  0.1553  0.1908  0.1906
32031W        W74944   4.105   5.106  28.540 -0.0155  0.4506 -0.0628
32032W        W74945  21.849   8.731  23.258  0.1982  0.0084  0.0153
32033W        W74946   1.055  22.285  22.122  0.3392 -0.0449 -0.0106
32034W        W74947  27.697   9.611  14.861  0.2245  0.4225  0.0567
32035W        W74948  25.887  30.716  20.671 -0.2869 -0.0550 -0.1331
32036W        W74949   6.929   4.321  21.314 -0.0692  0.3063 -0.1521
32037W        W74950  26.499  32.063  13.858 -0.3594 -0.2295  0.2084
32038W        W74951  25.862  30.927  16.165 -0.1622 -0.1223  0.3377
32039W        W74952  33.888   2.117  23.855 -0.2159 -0.1375 -0.1275
32040W        W74953   7.867  14.889  19.721 -0.0590  0.1725  0.1576
32041W        W74954  30.727   4.242  21.646  0.2480  0.0984 -0.3055
32042W        W74955  32.401   2.140  27.892  0.1174 -0.1480 -0.1622
32043W        W74956  18.741   9.321  14.673 -0.2409  0.1781 -0.0850
32044W        W74957  34.140  28.783  21.095 -0.1935  0.0088 -0.4100
32045W        W74958  25.638   7.059  13.702 -0.1349 -0.0958 -0.0645
32046W        W74959  29.620  13.249  15.806 -0.1090 -0.0208 -0.1694
32047W        W74960  21.320   9.145  15.961 -0.2076 -0.0252  0.3401
32048W        W74961  21.487   7.240  17.447  0.1163  0.1365  0.1741
32049W        W74962   4.936  29.077  20.096 -0.0952 -0.0218  0.0968
32050W        W74963  22.421   1.396  26.077 -0.3143  0.0003  0.1323
32051W        W74964   1.833   7.697  19.193  0.2023 -0.2268  0.0205
32052W        W74965  18.956   3.674  17.440  0.1154 -0.0621 -0.0250
32053W        W74966  29.192  31.552  20.713  0.1665 -0.2182 -0.2969
32054W        W74967  24.113  33.218  16.562 -0.2356 -0.0683 -0.0308
32055W        W74968  24.605  17.693  22.473  0.2494 -0.3197 -0.0524
32056W        W74969  25.709   3.687  16.168 -0.2727 -0.0520 -0.0411
32057W        W74970  31.269   1.339  23.470  0.2221 -0.0983 -0.3335
32058W        W74971  28.282  29.301  24.353 -0.1880 -0.1951  0.0241
32059W        W74972  24.876   3.096  14.232  0.1561  0.1361  0.0196
32060W        W74973   0.837  18.112  14.880  0.0070 -0.1140 -0.0396
32061W        W74974  25.847  11.263  17.183 -0.1376 -0.5669 -0.0321
32062W        W74975  22.385   2.733  13.427  0.2842  0.3632 -0.1083
32063W        W74976  33.437   4.302  20.167 -0.0550 -0.1775  0.1128
32064W        W74977  19.515  32.066  16.440  0.0960  0.1470 -0.2983
32065W        W74978  33.874   8.978  20.254 -0.0384 -0.2033  0.2749
32066W        W74979  33.756  17.188  16.030 -0.1355  0.1531  0.0018
32067W        W74980  31.301   2.536  25.975  0.2445 -0.3108  0.0390
32068W        W74981  33.157   3.336  23.377 -0.1353 -0.0780 -0.0053
32069W        W74982  28.532  13.441  14.550 -0.1442 -0.0545  0.1129
32070W        W74983  24.883   6.209  24.733 -0.0335 -0.0842 -0.0354
32071W        W74984  23.546  27.091  12.901 -0.1029 -0.0137 -0.0866
32072W        W74985  29.080  20.909  19.518 -0.4862 -0.3337  0.0481
32073W        W74986  25.891   1.436  13.981 -0.3129  0.0928 -0.1494
32074W        W74987   6.614  27.167  26.027  0.0638 -0.0394  0.0147
32075W        W74988  31.766  11.150   5.410 -0.1577 -0.1766 -0.1932
32076W        W74989  28.178  10.402  21.760  0.3510  0.0419 -0.1890
32077W        W74990  28.258   6.119  16.770 -0.0423 -0.4251 -0.3401
32078W        W74991  30.929   0.629  20.493 -0.4598  0.2236  0.1043
32079W        W74992  31.316  10.851  15.853 -0.1222  0.1314  0.3352
32080W        W74993  18.192   5.920  20.827 -0.1317  0.1857  0.2482
32081W        W74994  32.629  14.365  18.946  0.0391  0.0211 -0.3957
32082W        W74995  27.054  34.202  19.327  0.1428 -0.1706 -0.1604
32083W        W74996  32.389  15.402  14.056  0.1267 -0.0013  0.3920
32084W        W74997  20.190  13.864  25.940  0.0824 -0.0363  0.0344
32085W        W74998  28.541   1.167  15.899  0.1342 -0.0386 -0.2093
32086W        W74999  26.890   9.250  14.803  0.0168  0.0324  0.1625
32087W        W75000  23.743   8.877  20.312  0.3518 -0.3829  0.0491
32088W        W75001  33.890  12.662  16.355  0.2387 -0.0540  0.1465
32089W        W75002  25.182  30.036  15.186 -0.2476  0.1884  0.2326
32090W        W75003  27.292   3.894  14.271  0.1411 -0.0115  0.2627
32091W        W75004   0.392   7.912  21.138 -0.2786  0.1491  0.3409
32092W        W75005  33.302  23.311  19.064  0.2841  0.4225  0.0407
32093W        W75006  31.712  25.374  26.082  0.1547  0.0010  0.0609
32094W        W75007  25.769   5.319  20.457 -0.0006 -0.2572  0.0637
32095W        W75008  18.338   0.822  24.540  0.2676  0.3097  0.0622
32096W        W75009   2.842   1.480  25.309 -0.0845  0.1837 -0.0812
32097W        W75010  33.261   8.715  23.009 -0.4063 -0.2498 -0.2190
32098W        W75011  31.975  20.869  13.389  0.2185 -0.2347 -0.0653
32099W        W75012   3.728   0.534  23.485 -0.2888  0.0345  0.1784
32100W        W75013  32.111  34.197  16.935  0.1680  0.0984 -0.0276
32101W        W75014  20.874   2.249  13.789  0.2411  0.1029 -0.0912
32102W        W75015  27.044   1.628  24.868 -0.1508  0.1111 -0.2810
32103W        W75016  18.108   7.276  21.328 -0.3775 -0.1876 -0.2519
32104W        W75017  31.542  32.098  22.972  0.0969 -0.0553  0.1865
32105W        W75018  26.420  11.982  20.464  0.3324  0.1101  0.0578
32106W        W75019  31.986   5.985  16.799  0.2277 -0.2952 -0.0309
32107W        W75020  22.340   2.870  24.728 -0.0650 -0.0926  0.0852
32108W        W75021  29.058   6.440  26.221 -0.0916 -0.1584 -0.3010
32109W        W75022  25.658   4.791  20.566 -0.1709  0.2387  0.0911
32110W        W75023  29.699   6.516  16.058  0.0653  0.0450 -0.2886
32111W        W75024  25.978   2.131  18.744  0.2119 -0.0682  0.1238
32112W        W75025  32.028  11.332  15.906 -0.1950 -0.2891  0.1654
32113W        W75026  22.650  15.608   1.143 -0.0074 -0.2997  0.0664
32114W        W75027  31.304  29.247  14.240  0.1184 -0.0980 -0.1386
32115W        W75028  34.324  10.743  18.624  0.1831 -0.1365 -0.0286
32116W        W75029  34.461  34.104  20.343 -0.2631  0.0082  0.2916
32117W        W75030  32.234   8.588  21.576  0.0034  0.1687 -0.2736
32118W        W75031   6.176  33.745  19.943  0.2962 -0.0063  0.0927
32119W        W75032  26.401   4.007  15.464 -0.0578 -0.0165 -0.2834
32120W        W75033  29.370  28.382  16.505 -0.1460 -0.0575 -0.1249
32121W        W75034  23.656   7.345  17.082 -0.1999  0.2504  0.0116
32122W        W75035  26.283   2.718  14.206  0.6232 -0.0395 -0.3938
32123W        W75036  24.003   6.286  29.313 -0.1008  0.0405  0.0419
32124W        W75037  30.052   0.973  16.618  0.1089  0.5744 -0.1244
32125W        W75038   1.360   5.270  21.589  0.0596 -0.2683  0.0554
32126W        W75039  26.073  27.850  12.731  0.0419  0.1736  0.2432
32127W        W75040  30.584  31.959  24.481  0.0259  0.0750 -0.2024
32128W        W75041   3.339   7.001  21.350 -0.5613 -0.1402  0.1465
32129W        W75042  29.121  34.251  21.372 -0.0580 -0.1633 -0.0954
32130W        W75043   1.695   0.344  17.589 -0.0032 -0.1463 -0.1958
32131W        W75044  32.971   9.442  29.262  0.3623  0.0676 -0.0565
32132W        W75045  29.763   8.161  16.139 -0.1394 -0.3180  0.0845
32133W        W75046  26.688   8.811  23.247  0.0954 -0.2475 -0.0777
32134W        W75047  24.636   2.068  19.489 -0.1779 -0.1139  0.1208
32135W        W75048  27.673  31.399  16.233 -0.0969  0.0188  0.1635
32136W        W75049  29.184   6.982  19.933  0.2786  0.0344  0.1348
32137W        W75050  18.682   2.999  29.000 -0.0267 -0.2961 -0.1005
32138W        W75051  29.916   9.047  23.623 -0.0379 -0.0740  0.3356
32139W        W75052  21.468   6.292  21.554 -0.1222 -0.4738  0.4095
32140W        W75053   1.123   8.846  26.215 -0.0134  0.2795 -0.1334
32141W        W75054  33.456   9.210  23.109 -0.4526  0.2434  0.0855
32142W        W75055  12.810   6.725  20.787  0.2428  0.0375  0.1790
32143W        W75056  32.567   4.099  20.368  0.3823  0.0050  0.0366
32144W        W75057  20.443   9.877  24.967 -0.0876 -0.0179  0.2369
32145W        W75058  30.269  30.200  25.116  0.0254 -0.1137 -0.1671
32146W        W75059  29.149  12.582  19.033  0.1257 -0.1078 -0.0633
32147W        W75060  28.016   2.702  20.766 -0.0912 -0.1688 -0.1007
32148W        W75061  27.837   8.854  24.759  0.0524 -0.0771 -0.1119
32149W        W75062  34.141   1.438  19.858  0.0036 -0.0459 -0.2022
32150W        W75063  30.682   0.782  18.182  0.0720 -0.2223 -0.0333
32151W        W75064   0.406   0.481  21.506  0.1256  0.2309 -0.0786
32152W        W75065  19.110   3.722   4.334 -0.0439 -0.2749 -0.1682
32153W        W75066  25.726   6.196  19.064  0.1304 -0.2706  0.0204
32154W        W75067  28.551  18.173  24.255  0.2962 -0.2297  0.1536
32155W        W75068   2.530   9.539  21.713 -0.3235  0.3355  0.0779
32156W        W75069  30.336   5.691  19.175  0.2937  0.3227  0.0115
32157W        W75070  24.882   4.218  16.203 -0.0927 -0.0456 -0.1665
32158W        W75071   2.748  25.113  24.141  0.3536 -0.0901 -0.0725
32159W        W75072   5.325  27.503  25.332  0.0958  0.1439 -0.1394
32160W        W75073  25.943  33.913  18.823 -0.1226  0.5310  0.3645
32161W        W75074  31.135   6.204  16.260  0.2594 -0.1334 -0.2525
32162W        W75075  31.829   5.212  19.480  0.0569 -0.2068 -0.0049
32163W        W75076   6.363   1.576  21.176 -0.1380 -0.2564  0.3364
32164W        W75077  32.762  15.446  14.942 -0.2516 -0.2519 -0.0568
32165W        W75078  28.905   9.937  15.572 -0.0644 -0.1268  0.2414
32166W        W75079  31.640   8.400  23.264 -0.0859  0.2344  0.0502
32167W        W75080   2.150  10.918  19.302  0.4520 -0.0380  0.0992
32168W        W75081  30.235   3.785  20.257 -0.1267  0.1610  0.1670
32169W        W75082  25.588   2.785  23.009 -0.0099  0.2589  0.2846
32170W        W75083  15.793  32.225  19.597  0.2449  0.3786  0.1729
32171W        W75084  31.156   8.488  23.155  0.6986 -0.2082 -0.2801
32172W        W75085  29.525   4.366  15.369 -0.1185  0.3161  0.0351
32173W        W75086  31.218   6.852  15.666 -0.0226 -0.2538  0.3101
32174W        W75087  24.122   2.445  22.565  0.0944  0.2147 -0.0936
32175W        W75088   0.774  29.999  16.778  0.3303  0.0675  0.2211
32176W        W75089  34.488  14.409  15.299  0.0806 -0.0190  0.1386
32177W        W75090  25.516   1.469  21.048 -0.0902  0.3394  0.1720
32178W        W75091   4.387  11.868  15.917 -0.4475  0.1142  0.0687
32179W        W75092  25.104  27.515  16.040 -0.2210 -0.3252  0.0971
32180W        W75093  31.159   7.914  20.281 -0.0719  0.0008 -0.1607
32181W        W75094  25.281   3.518  25.988  0.1206  0.1211  0.0186
32182W        W75095  23.235   2.525  19.804  0.2086 -0.1548  0.1087
32183W        W75096  31.075  34.260  16.791 -0.2366 -0.1180 -0.3296
32184W        W75097  16.428  16.401  28.322 -0.0839  0.1307  0.0871
32185W        W75098   5.540   0.915  18.618  0.0105  0.4004 -0.0089
32186W        W75099  18.510  10.732  14.981  0.1591 -0.4848  0.2811
32187W        W75100  28.932   6.467  15.641  0.1494 -0.2414 -0.5235
32188W        W75101  28.899  30.476  27.970 -0.2394  0.1292 -0.0882
32189W        W75102  28.242   0.572  20.996  0.0101 -0.1166  0.2934
32190W        W75103  22.018  29.612  19.333  0.0042  0.0733  0.0767
32191W        W75104  22.991   7.364  22.469  0.2622 -0.4505  0.0204
32192W        W75105  19.620   5.144  19.133  0.3860  0.1366 -0.0813
32193W        W75106  31.103   7.239  20.989  0.1517  0.1741  0.0172
32194W        W75107  31.529  28.568  19.145  0.1231 -0.0279  0.1247
32195W        W75108  23.634  33.974  24.754  0.1569  0.0594  0.0713
32196W        W75109  33.673   0.912  20.766  0.1818  0.4256  0.1278
32197W        W75110  30.372  10.912  23.452 -0.1562  0.1825  0.2151
32198W        W75111  22.613   9.004  13.320  0.3433 -0.3853 -0.1121
32199W        W75112   6.851  11.846  26.869 -0.0441 -0.0780 -0.4271
32200W        W75113  18.302   8.725  18.054  0.1173 -0.2878  0.1528
32201W        W75114  11.628  15.061  20.356 -0.1779  0.0862 -0.2348
32202W        W75115  33.218  22.123  16.050  0.0469 -0.1253  0.3554
32203W        W75116  21.727  25.903  16.740 -0.0099  0.0972 -0.0234
32204W        W75117  29.324   7.775  16.703  0.2171 -0.1120  0.2495
32205W        W75118  26.261   8.012  20.002  0.0965  0.0608  0.0902
32206W        W75119  30.947   4.680  25.698 -0.3439  0.1035 -0.1336
32207W        W75120  30.508   1.659  24.792 -0.1216  0.0179  0.0168
32208W        W75121  28.148   1.809  19.757 -0.1861  0.1868 -0.2311
32209W        W75122   3.821   8.228  20.080 -0.0711 -0.2230  0.0396
32210W        W75123  29.124  30.586  22.587 -0.0586  0.0463  0.0317
32211W        W75124  24.718  26.052  24.433 -0.1886 -0.0125 -0.4129
32212W        W75125   4.302   4.933  19.445 -0.1918  0.0240 -0.2182
32213W        W75126  23.419  16.820  24.033 -0.3971 -0.0780  0.3032
32214W        W75127  30.575   2.526  20.386  0.3217  0.2526  0.1963
32215W        W75128  27.786  30.516  16.323 -0.0620  0.2083  0.0121
32216W        W75129  22.936   0.622  29.519  0.0557  0.2021 -0.1206
32217W        W75130   8.948  32.798   1.703 -0.1710  0.1162  0.0211
32218W        W75131  34.228  32.174  26.997 -0.1610  0.2462 -0.1027
32219W        W75132  33.164   8.376  15.812  0.1239  0.2082 -0.0816
32220W        W75133  27.694   2.896  16.093 -0.1318  0.1649 -0.1326
32221W        W75134  29.745   5.748  16.130  0.2953 -0.2038 -0.2328
32222W        W75135  25.574  10.503  17.654  0.0630  0.0761  0.1289
32223W        W75136  33.068  25.483  20.192 -0.2511  0.4270 -0.0650
32224W        W75137   9.236   8.983  24.660 -0.3126  0.1190 -0.1130
32225W        W75138  26.226  27.327  18.749  0.2130 -0.0376  0.1872
32226W        W75139  10.228   1.873  18.702  0.3102 -0.3291 -0.2993
32227W        W75140  31.927   4.885  17.700  0.2452 -0.0400  0.1780
32228W        W75141  28.210   1.991  18.866 -0.2498 -0.0297  0.1358
32229W        W75142  23.335   2.027  22.120 -0.2526  0.1609  0.0215
32230W        W75143  28.461   1.687  17.438  0.3549 -0.0935 -0.0202
32231W        W75144  28.467  33.732  14.503 -0.1302  0.0200  0.0634
32232W        W75145  28.785   9.268  15.917 -0.2239  0.3257 -0.0384
32233W        W75146  24.067  29.054  16.861 -0.2579 -0.4601 -0.0840
32234W        W75147  25.301   5.724  22.189 -0.1623  0.2321 -0.3206
32235W        W75148  33.999   6.413  21.978  0.1487 -0.2341 -0.0548
32236W        W75149   0.072  31.234   1.113 -0.3670 -0.0072 -0.1832
32237W        W75150  21.999  11.815  19.275  0.1779 -0.1582  0.1114
32238W        W75151   0.826   5.025  23.007  0.1634  0.2094 -0.0347
32239W        W75152  30.201   0.553  20.911  0.1421 -0.3141 -0.0958
32240W        W75153  24.840   7.923  20.336 -0.0755 -0.0588 -0.1667
32241W        W75154  34.400  19.012  20.212 -0.0571 -0.2172  0.1445
32242W        W75155  33.456  31.860  18.123 -0.1088  0.0686  0.1568
32243W        W75156  30.862   5.103  19.021  0.2908  0.0157 -0.1121
32244W        W75157  27.110   8.709  24.480 -0.1067 -0.1475  0.0572
32245W        W75158   9.791   6.936  19.795 -0.0479 -0.0707 -0.1196
32246W        W75159  33.221   4.562  24.153  0.0920  0.0070  0.0573
32247W        W75160   3.510   0.922   7.402 -0.2273  0.0577 -0.1651
32248W        W75161   5.241   1.387  22.082  0.1478  0.1187 -0.1388
32249W        W75162  30.547   9.266  27.640 -0.0461  0.0197  0.0549
32250W        W75163   4.020  30.200  18.965 -0.0530 -0.0930  0.1035
32251W        W75164  25.770  30.012  15.985  0.0566  0.1886  0.0631
32252W        W75165  24.285   0.668  26.356 -0.2190 -0.0353 -0.3432
32253W        W75166  16.387   9.575  27.995 -0.0970 -0.0861  0.1476
32254W        W75167  28.538  10.569  15.838 -0.3006  0.0486 -0.1981
32255W        W75168  22.716  10.278  25.535  0.3119  0.1409  0.1289
32256W        W75169   0.054   1.349  26.917 -0.0908 -0.0146 -0.0424
32257W        W75170  18.511  12.829  17.473 -0.0848  0.1428 -0.1754
32258W        W75171  19.804  24.409  28.759 -0.0607 -0.0663 -0.0210
32259W        W75172  20.725  12.140  24.925  0.1939 -0.1168  0.0070
32260W        W75173  34.052  34.117  15.837 -0.2377 -0.2865 -0.2399
32261W        W75174  29.043   5.198  20.200 -0.0727  0.1023  0.0479
32262W        W75175  26.664  12.118  19.185  0.3412  0.2128 -0.0927
32263W        W75176  28.525  14.702  23.042 -0.1296  0.2086 -0.2247
32264W        W75177   6.060  16.286  15.636  0.0537 -0.0368  0.1474
32265W        W75178   4.172   2.006  24.902  0.1637 -0.0019  0.3088
32266W        W75179  24.605   5.368  29.686  0.0925 -0.1697  0.2608
32267W        W75180  24.677   7.057  24.335 -0.1067  0.1219 -0.0008
32268W        W75181  32.406   0.429  26.057 -0.1581 -0.0413 -0.0276
32269W        W75182  31.556  31.535  16.048  0.1524 -0.2155 -0.0443
32270W        W75183  33.206   4.490  26.631 -0.0544  0.0176  0.0464
32271W        W75184  27.394   0.991  21.962 -0.0294 -0.2711 -0.1286
32272W        W75185  32.394   0.471  21.352 -0.1017 -0.0968  0.0947
32273W        W75186  24.926  29.892  15.626  0.3074 -0.1760  0.0387
32274W        W75187  30.645  16.426  21.220  0.0635  0.3337 -0.0652
32275W        W75188  31.054  32.022  15.087 -0.0277  0.0314 -0.3307
32276W        W75189  29.930   5.969  23.625 -0.0959 -0.2263 -0.0564
32277W        W75190   0.007  30.811  24.342 -0.0475 -0.0721 -0.1131
32278W        W75191  18.418  33.017  14.893  0.0771 -0.2235 -0.0565
32279W        W75192  31.399   9.962  22.370 -0.1689 -0.2409 -0.1108
32280W        W75193   1.113  11.680  17.790 -0.2183 -0.2467 -0.0592
32281W        W75194  28.697  27.561  19.999 -0.1101 -0.0568  0.3224
32282W        W75195  25.201   6.866  18.553 -0.4867  0.1794 -0.0253
32283W        W75196  23.546   4.868  23.967 -0.1088  0.1293 -0.2174
32284W        W75197  33.410  34.327  24.309  0.3985 -0.1507  0.0278
32285W        W75198  30.670   0.653  19.991  0.1168 -0.2852  0.0848
32286W        W75199  27.383   1.167  20.164 -0.1838 -0.1432  0.3703
32287W        W75200  23.837   4.362  15.614  0.2542  0.0391 -0.0202
32288W        W75201   2.971  34.368  19.349  0.0623  0.3723 -0.1030
32289W        W75202   0.909   2.317  22.117  0.0024 -0.0387  0.3631
32290W        W75203  16.668  29.574  20.292 -0.0869  0.0830  0.1504
32291W        W75204   5.765  12.429  20.567 -0.1015 -0.0769 -0.2785
32292W        W75205   0.828  12.743  18.087 -0.1467  0.0772  0.1211
32293W        W75206  31.568  22.857  19.953 -0.1311 -0.1700 -0.0263
32294W        W75207  29.238  13.493  16.465 -0.3737 -0.0203  0.0159
32295W        W75208  33.260  30.816  19.485  0.1720  0.0849 -0.0057
32296W        W75209  25.947   8.023  22.917 -0.0794  0.3346  0.0215
32297W        W75210  27.028   3.484  15.132 -0.0111 -0.0760  0.1787
32298W        W75211  21.553  34.317  21.677 -0.1949  0.0271 -0.1768
32299W        W75212  26.076   2.436  18.344 -0.2421  0.2083  0.2977
32300W        W75213  21.089  10.388  17.098  0.0281 -0.2855  0.2944
32301W        W75214  33.226   4.855  17.226  0.0751  0.0003 -0.2062
32302W        W75215  18.348   9.459  26.521  0.1121 -0.0987  0.0617
32303W        W75216  23.632   5.866  20.533  0.0719  0.0940  0.2189
32304W        W75217  32.154  15.901   1.141  0.0681  0.0756  0.1472
32305W        W75218  29.006   5.615  20.458 -0.3136  0.2297 -0.2655
32306W        W75219  27.239   2.720  22.535 -0.1242 -0.0550  0.1472
32307W        W75220  29.286   5.203  18.860  0.4793 -0.2630 -0.1757
32308W        W75221   7.078  31.168  24.715  0.1499 -0.1339 -0.0435
32309W        W75222   0.168  10.742  20.099 -0.0721  0.3672  0.2602
32310W        W75223  22.445   1.620  27.554 -0.0454  0.0142  0.0086
32311W        W75224  24.873   6.566  25.932  0.1959 -0.1607  0.1930
32312W        W75225  25.647   7.607  18.804 -0.0835  0.0949 -0.0086
32313W        W75226   5.845  28.068   0.397  0.2257  0.3501  0.1417
32314W        W75227  23.581   2.585  15.880 -0.1265  0.0466  0.1066
32315W        W75228  22.995   5.859  26.449  0.1032 -0.0622 -0.0252
32316W        W75229  26.254  12.478  25.446 -0.1151  0.0899 -0.0680
32317W        W75230   3.491  33.192  21.470 -0.0148 -0.1238  0.3581
32318W        W75231   1.617   7.286  18.339 -0.1733  0.1049 -0.1900
32319W        W75232  23.975   5.023  20.449  0.5530 -0.0596  0.1088
32320W        W75233  28.050  30.338  14.667  0.2824  0.0287 -0.1273
32321W        W75234  32.103  11.541  25.687  0.0487  0.1719 -0.4043
32322W        W75235  26.804   8.465  17.284  0.1264 -0.2256 -0.4625
32323W        W75236  32.739   1.897  17.171 -0.4027 -0.1753 -0.0453
32324W        W75237  26.781  16.277  24.306 -0.2928 -0.1789  0.0188
32325W        W75238  24.800  33.922  22.593  0.1487 -0.1943 -0.0108
32326W        W75239  17.372  33.731  20.189  0.0360  0.0683  0.1247
32327W        W75240  31.381  33.696  25.727  0.0332 -0.1626  0.0974
32328W        W75241  26.843   0.810  29.104  0.0486 -0.0750 -0.1388
32329W        W75242  22.928   7.057  29.480 -0.0122 -0.0752 -0.0020
32330W        W75243  15.188   7.560  27.163 -0.1411 -0.1496 -0.1702
32331W        W75244   3.546  11.512  22.867 -0.1002  0.0842  0.1829
32332W        W75245  30.847   4.510  18.368 -0.1992  0.1188 -0.1085
32333W        W75246  26.794  34.460  25.899  0.0277 -0.0820  0.0923
32334W        W75247  19.355   9.120  15.256 -0.0602  0.0691 -0.0338
32335W        W75248   0.899  24.477  17.810 -0.0152  0.0162  0.0576
32336W        W75249  23.907   1.293   0.860  0.3065 -0.2421 -0.1763
32337W        W75250  32.297  31.593  21.722 -0.0070 -0.3052 -0.4801
32338W        W75251  22.342   7.239  15.930 -0.2698 -0.0985  0.3294
32339W        W75252  26.595  13.013   5.555  0.0594  0.0113 -0.0998
32340W        W75253  32.847   8.617  21.021  0.1243  0.1380 -0.1624
32341W        W75254  26.075  18.012  24.251 -0.2689  0.0211  0.0376
32342W        W75255  31.142   8.442  26.366  0.2496 -0.3176 -0.3698
32343W        W75256  32.543   0.047   1.259 -0.0434 -0.1435 -0.0402
32344W        W75257  24.765  10.875  19.693 -0.1973 -0.0715 -0.2502
32345W        W75258  27.332   2.204  20.112  0.0021 -0.2952 -0.0783
32346W        W75259  27.166  15.074  14.082 -0.2298 -0.0411 -0.2025
32347W        W75260  28.581   3.350  19.892  0.0706 -0.1498  0.0478
32348W        W75261  31.262   5.690  26.254 -0.2019  0.1190  0.1381
32349W        W75262  29.760   6.545  16.744 -0.2365 -0.2628  0.1616
32350W        W75263   5.476   9.403  18.448  0.0950 -0.0654  0.2099
32351W        W75264  25.490  15.180  21.594  0.2330 -0.1439  0.0018
32352W        W75265  29.306  11.428  15.530 -0.0719 -0.1956 -0.1777
32353W        W75266  26.203   8.618  16.043 -0.1096  0.1073  0.0473
32354W        W75267   3.659   9.246  18.049  0.1137  0.2555 -0.1611
32355W        W75268  28.498   2.271  16.742  0.2522  0.2094  0.0564
32356W        W75269  21.570   2.028  20.843 -0.0644 -0.3928  0.2023
32357W        W75270   5.959  33.794  16.745 -0.3093 -0.2253 -0.0937
32358W        W75271  31.976  15.259   7.402  0.0935  0.2940 -0.1832
32359W        W75272  25.570   2.316  26.969 -0.0110 -0.1212 -0.0112
32360W        W75273  23.914  33.596  27.269  0.2959 -0.1026 -0.0964
32361W        W75274  22.919   5.206  23.488 -0.1216  0.1013 -0.1312
32362W        W75275  28.481  27.314  20.523 -0.3150  0.3356  0.0146
32363W        W75276  29.761  31.715  18.108  0.0393  0.1076 -0.2162
32364W        W75277  30.529   6.055  17.195  0.1553 -0.0658  0.1433
32365W        W75278  27.139  25.971  25.339 -0.0828 -0.0651 -0.0838
32366W        W75279   1.082   2.306  20.006  0.0978  0.1394 -0.3047
32367W        W75280  25.640   2.660  21.342 -0.0452 -0.1311  0.2003
32368W        W75281  30.391   7.795   8.581 -0.0345  0.2905 -0.2034
32369W        W75282  17.204   6.096  16.637 -0.1368 -0.1086  0.0275
32370W        W75283  34.436   5.589  20.419 -0.2248 -0.3485  0.1756
32371W        W75284  31.889  12.913  17.107 -0.0930  0.0153 -0.1189
32372W        W75285   2.156   1.021  24.335 -0.1493 -0.0501  0.0384
32373W        W75286  31.086   0.640  21.041 -0.2886 -0.2128 -0.2297
32374W        W75287  15.624  10.138  22.340 -0.3846  0.0694 -0.0667
32375W        W75288   4.032  28.029  17.382 -0.0877  0.1458  0.2384
32376W        W75289  30.719   2.471  25.952 -0.0126  0.2139 -0.0259
32377W        W75290  24.193   1.924  20.681 -0.1333 -0.1640 -0.1013
32378W        W75291  26.727  11.014  27.634 -0.1992  0.0969  0.2757
32379W        W75292   0.584  33.064  15.557 -0.1789  0.0177  0.0358
32380W        W75293  32.548  17.479   0.667  0.0372 -0.2021 -0.2926
32381W        W75294   6.477   7.259  21.779 -0.1562 -0.2778  0.2195
32382W        W75295   2.934  31.253  18.658  0.1861  0.2152 -0.1814
32383W        W75296   4.547   7.099   4.043 -0.1138  0.0620 -0.1402
32384W        W75297  28.173   5.594  21.051  0.0675  0.1605 -0.1243
32385W        W75298   3.738  32.186  19.858  0.0601 -0.0844 -0.2123
32386W        W75299  32.092   9.269  15.971 -0.0939  0.1576 -0.1502
32387W        W75300  22.435   0.413  20.552 -0.1045  0.0892  0.2400
32388W        W75301   1.804   2.223  23.005 -0.2144  0.3557 -0.0856
32389W        W75302  24.847  13.005  13.144 -0.0025 -0.2121 -0.3853
32390W        W75303   1.622   8.703  17.216  0.2144  0.1816 -0.0961
32391W        W75304  25.784  12.491  23.315 -0.2835  0.2611  0.1187
32392W        W75305   0.138   4.894  16.396  0.0865  0.1187 -0.1493
32393W        W75306  21.454  16.923  29.662  0.1688  0.0976 -0.0470
32394W        W75307  31.337  13.287   0.816 -0.4839 -0.0376  0.2756
32395W        W75308  26.663  15.290  20.451  0.0159  0.0792 -0.1442
32396W        W75309  28.240  10.333  17.562  0.2162 -0.1667  0.0882
32397W        W75310  17.998   7.593  13.510  0.0541  0.2565 -0.1157
32398W        W75311  25.416  31.021  29.078 -0.2478  0.0112 -0.1251
32399W        W75312  31.424   1.101  29.067  0.0118  0.0423 -0.1468
32400W        W75313  30.800   6.518  22.748  0.0458  0.1504  0.0412
32401W        W75314  29.979   4.167   4.421  0.1458  0.3707 -0.2792
32402W        W75315   2.705   8.971  21.751 -0.2132 -0.0117 -0.1704
32403W        W75316   1.572   5.757  22.154  0.0507  0.4379  0.0931
32404W        W75317  30.662   0.872  23.543 -0.2722 -0.0226  0.0401
32405W        W75318  33.149  34.339  20.213 -0.2292  0.0264 -0.0002
32406W        W75319   1.184  33.052  18.717  0.2309  0.0094 -0.0690
32407W        W75320  21.530   1.870  16.941 -0.0701 -0.2755 -0.0313
32408W        W75321  21.707   8.041  25.045 -0.1547 -0.1068  0.0734
32409W        W75322  30.874   0.756  17.113 -0.1779 -0.0321 -0.0021
32410W        W75323  32.558  30.777  27.260 -0.0365  0.1157 -0.1791
32411W        W75324  26.004  11.977  23.167  0.0202 -0.0262 -0.1646
32412W        W75325  29.252   4.643  25.167 -0.0497  0.1945  0.0702
32413W        W75326  28.759   5.957  23.874 -0.1025  0.1179 -0.3015
32414W        W75327  32.298  33.444  25.031 -0.0558 -0.1730  0.3112
32415W        W75328  26.339   9.725  27.072 -0.0455  0.0352  0.1986
32416W        W75329   3.487  16.552  17.423 -0.3156  0.0018  0.4171
32417W        W75330  30.910   1.837  20.882 -0.1809  0.1154 -0.0735
32418W        W75331   1.451   2.931  26.946 -0.0360 -0.0762 -0.0110
32419W        W75332  21.226  34.138  23.596  0.4379  0.2375 -0.2464
32420W        W75333  30.254   1.087  26.314  0.0219 -0.2264  0.1182
32421W        W75334  24.948   6.674  21.331  0.3985 -0.3314  0.3268
32422W        W75335   4.098  12.720  16.461  0.1317 -0.0236 -0.0970
32423W        W75336  24.830   2.581  14.203  0.0722 -0.1152 -0.0679
32424W        W75337  24.612   1.861  24.406 -0.3392  0.4150  0.0760
32425W        W75338  29.160   8.499  20.018  0.2585 -0.0197  0.1928
32426W        W75339  34.268   4.927  27.562  0.0992 -0.0499 -0.3037
32427W        W75340  28.893  14.915  25.411  0.1447 -0.2229  0.0069
32428W        W75341  33.657  33.752  17.686 -0.1340 -0.1744  0.0845
32429W        W75342  33.080   4.349  21.006  0.2121 -0.2799 -0.0213
32430W        W75343  22.429   2.532   0.857 -0.1526  0.2279 -0.0131
32431W        W75344  20.128   1.348   0.048 -0.0274 -0.0578 -0.2172
32432W        W75345  32.711   7.779   5.108  0.1801  0.1448  0.3452
32433W        W75346   1.460  33.062  24.497 -0.1810  0.0144  0.2656
32434W        W75347   2.083  27.589  25.916 -0.1738 -0.2035  0.3244
32435W        W75348  23.147  11.561   1.483  0.1383  0.1578  0.1703
32436W        W75349  31.258   2.509  26.660  0.0070 -0.1579  0.4395
32437W        W75350  31.729   4.481  28.707 -0.0931  0.1819  0.3113
32438W        W75351  25.546  12.238  24.445 -0.0230 -0.0039  0.0318
32439W        W75352  22.810   1.015   3.031  0.1090 -0.1437  0.0822
32440W        W75353  26.657  11.625  16.656 -0.0884 -0.0825 -0.1214
32441W        W75354  19.492   6.966  20.613 -0.0025  0.0481  0.2453
32442W        W75355  25.698   7.026  14.317 -0.3356 -0.4002  0.1690
32443W        W75356  19.845   6.883  21.449 -0.4411  0.2195  0.1378
32444W        W75357   2.004  13.827  15.343  0.1987  0.0311 -0.0026
32445W        W75358  31.716  12.765  20.294  0.1075 -0.4055  0.1312
32446W        W75359  24.378  29.385  28.212 -0.1174 -0.1949 -0.0928
32447W        W75360  23.883  13.689  27.865  0.1148  0.0761 -0.0858
32448W        W75361  22.255  10.121  26.139  0.0561  0.0898  0.0547
32449W        W75362  30.103  11.750  17.656  0.1072  0.2469  0.2029
32450W        W75363  10.077   3.738  24.090 -0.0117  0.0535 -0.1211
32451W        W75364  30.945  14.494  21.390 -0.2261 -0.0843  0.0285
32452W        W75365  21.135  34.226   4.002  0.4625 -0.1040  0.1399
32453W        W75366  21.900   2.008  23.651 -0.2840 -0.2645  0.1858
32454W        W75367  29.592   5.138  20.238  0.0018 -0.1680 -0.0944
32455W        W75368  33.371  10.057  22.022  0.3182 -0.2774  0.0403
32456W        W75369  19.645   3.277  21.320  0.2789 -0.1627  0.2266
32457W        W75370  26.414   8.212  21.975  0.1444  0.2365  0.1260
32458W        W75371  31.491   6.690  19.367 -0.2054  0.0931 -0.3391
32459W        W75372   2.979   6.694  18.606 -0.2425 -0.1809  0.3460
32460W        W75373  29.040   2.223  24.970 -0.1778 -0.1419 -0.3498
32461W        W75374  26.552  33.430   3.639 -0.0795 -0.0101 -0.2223
32462W        W75375  11.045  16.512  20.349  0.1017 -0.1308  0.2434
32463W        W75376  28.845   7.647  24.358 -0.0225  0.0711  0.2309
32464W        W75377  26.256   3.742  19.378  0.0749  0.3328 -0.1201
32465W        W75378  27.582   9.629  20.069 -0.1830 -0.2011  0.0086
32466W        W75379  17.310  15.553  14.473 -0.0099  0.0371 -0.1189
32467W        W75380   3.391   5.252  19.061 -0.0483 -0.0234 -0.0997
32468W        W75381  24.631   0.386  28.978 -0.1291  0.0812 -0.0224
32469W        W75382  31.421  10.824  23.633 -0.0491  0.2294 -0.0776
32470W        W75383  26.399   3.300  17.337 -0.0075 -0.2259 -0.2466
32471W        W75384  22.638   2.596   0.405 -0.1421  0.0695 -0.0169
32472W        W75385  21.146  31.981  23.404 -0.0163 -0.0937 -0.1483
32473W        W75386   0.406   9.906  17.328 -0.1734  0.3761 -0.0758
32474W        W75387   8.634  31.898  21.761  0.1687 -0.0049 -0.0813
32475W        W75388  32.331   6.875  21.435  0.3392  0.0065  0.1897
32476W        W75389  22.659  32.636  19.753 -0.1489 -0.2022  0.1018
32477W        W75390  27.754   1.499  24.504 -0.1469 -0.1025 -0.1068
32478W        W75391  27.116  34.484  15.034  0.0557  0.3147 -0.2226
32479W        W75392  25.504  33.981  20.492 -0.1437 -0.1220 -0.0735
32480W        W75393   5.973   6.386  21.815  0.4355  0.0894  0.0875
32481W        W75394  22.151   9.518  14.114 -0.1562 -0.1157 -0.0221
32482W        W75395  28.019   9.700  20.403  0.2207 -0.0690  0.1981
32483W        W75396  16.730   2.795   3.560 -0.1755 -0.1516 -0.3405
32484W        W75397  32.037  11.137  19.646 -0.0042 -0.1151 -0.2292
32485W        W75398  19.791   9.134  19.949  0.0820  0.1804  0.0185
32486W        W75399   0.227   3.882  22.512  0.2950 -0.3664 -0.2533
32487W        W75400  25.397   2.796  14.308 -0.1397 -0.0193  0.1182
32488W        W75401  22.513   8.138  16.186 -0.3942 -0.2492 -0.0555
32489W        W75402  30.115   6.229  21.625  0.0171  0.1708  0.1628
32490W        W75403  28.306  28.578  15.049 -0.2273 -0.0754  0.0143
32491W        W75404  25.176   3.893  15.444 -0.1873 -0.2182  0.0977
32492W        W75405  33.831   8.870  23.014  0.3041 -0.0224 -0.4755
32493W        W75406  27.478   4.316  27.357  0.1361  0.0233  0.1259
32494W        W75407  27.823  15.315  27.153 -0.0794  0.5287  0.1763
32495W        W75408  28.955   0.411  23.455 -0.1694  0.2830 -0.2157
32496W        W75409   4.652  11.063   7.691  0.4542 -0.0967  0.3100
32497W        W75410  30.503   1.922  19.972  0.2206  0.1605 -0.0974
32498W        W75411   0.144   5.920  22.507 -0.2131 -0.4875 -0.1786
32499W        W75412  16.197   4.811  21.336 -0.0107  0.0512 -0.0111
32500W        W75413   5.400   0.790  25.249  0.2189 -0.2382  0.2319
32501W        W75414  23.598  16.334  19.609 -0.0117 -0.1799 -0.2807
32502W        W75415  29.509   2.290  17.026 -0.0438 -0.3269  0.1567
32503W        W75416   5.650   6.649  18.073 -0.1037 -0.0392 -0.0808
32504W        W75417  24.988  33.989  20.506 -0.0963  0.1907 -0.0745
32505W        W75418   5.285  25.980  22.589  0.2109 -0.0981  0.0095
32506W        W75419  29.439   3.246  17.163 -0.1202 -0.0579  0.1010
32507W        W75420  29.283  10.353  20.314 -0.0076 -0.0617  0.1669
32508W        W75421  30.518  18.210  23.752 -0.2971 -0.0216  0.0346
32509W        W75422  33.066  14.095  19.511 -0.0773  0.2000  0.2554
32510W        W75423  23.206  33.501  23.120 -0.2840 -0.1096 -0.1005
32511W        W75424  33.599   0.645  17.559 -0.1928 -0.1838 -0.0743
32512W        W75425  18.886  32.540  28.020 -0.0164 -0.1028 -0.0939
32513W        W75426  28.240  11.050  20.603  0.1432 -0.0048  0.3283
32514W        W75427   4.489   8.139  25.003 -0.0148  0.0474 -0.1797
32515W        W75428   3.040   5.859  20.418  0.1203 -0.1787  0.0303
32516W        W75429  28.894   4.142   2.454  0.0215 -0.0629  0.1406
32517W        W75430   9.434   4.917  25.741  0.1587  0.1990  0.0468
32518W        W75431  20.847  10.140   3.084  0.1323 -0.1066 -0.0684
32519W        W75432  33.229   6.364  16.308 -0.1390 -0.1197 -0.2716
32520W        W75433  30.370  19.919  28.417  0.0267 -0.0463  0.2233
32521W        W75434  20.590  12.038  27.419  0.0547 -0.1954 -0.1366
32522W        W75435   2.088   1.861  19.995 -0.2591 -0.0458 -0.1122
32523W        W75436  28.092   2.001  16.929 -0.1980  0.0329  0.1319
32524W        W75437  31.545  33.941  21.130  0.0246 -0.3307  0.0626
32525W        W75438  28.492  29.157  13.100  0.2784 -0.0705  0.1889
32526W        W75439  30.001   0.612  19.352 -0.0526 -0.1660 -0.0401
32527W        W75440  27.398   0.987  15.794 -0.0416  0.0350  0.0745
32528W        W75441  31.182   3.944  18.739  0.0517  0.1144 -0.0695
32529W        W75442  23.968   6.795  25.718 -0.0920 -0.2807  0.0531
32530W        W75443  21.496   7.869  29.028 -0.0114  0.3119 -0.0267
32531W        W75444  18.102  31.891  27.915 -0.1975  0.0621 -0.0634
32532W        W75445   7.471   9.244  21.009 -0.1101 -0.1486 -0.0527
32533W        W75446  17.210   1.470  16.841 -0.0845  0.1699 -0.2326
32534W        W75447  24.280  29.215  15.878  0.1766  0.3696  0.0136
32535W        W75448   1.038  18.910  21.957  0.1476 -0.0671 -0.0016
32536W        W75449  30.272   6.695  18.478  0.1312 -0.0927 -0.1645
32537W        W75450   0.829   2.792  19.344  0.3198  0.1171  0.1533
32538W        W75451  30.569  33.298  21.524 -0.2655  0.1258  0.2220
32539W        W75452  27.113  34.334  18.366 -0.0359 -0.2044  0.0919
32540W        W75453  12.724   3.478  17.054 -0.1170  0.3024 -0.0973
32541W        W75454   0.295   7.564  19.305 -0.0373 -0.1684 -0.4471
32542W        W75455  26.797  13.604  27.334  0.0044 -0.1448 -0.2270
32543W        W75456   0.377   6.510  24.523  0.0113  0.0288  0.1675
32544W        W75457  32.967  14.358  22.000  0.2926  0.1486  0.2185
32545W        W75458  32.104  24.977  15.619  0.1432 -0.0647  0.0669
32546W        W75459  28.526   4.461  20.183  0.2833 -0.1248  0.0003
32547W        W75460  28.869  12.083  23.310 -0.3476  0.2030  0.2192
32548W        W75461   6.207   9.520  19.711 -0.1892 -0.0412  0.3085
32549W        W75462   9.951  11.974  14.036  0.0939  0.0035 -0.2775
32550W        W75463  33.754  25.998  28.769  0.1004  0.1132 -0.1071
32551W        W75464   2.605  15.160  22.893  0.0150  0.0637  0.0809
32552W        W75465  22.893  11.783  27.694  0.0312 -0.0706 -0.0460
32553W        W75466  27.910  27.314   1.867  0.1567 -0.0220  0.1962
32554W        W75467  29.100   7.187  24.352  0.1540 -0.0366 -0.1102
32555W        W75468  30.232   3.181  21.385  0.1601  0.0228 -0.0320
32556W        W75469  21.840   2.187  15.667 -0.1702  0.0634 -0.2245
32557W        W75470   9.265  12.637  28.425  0.0909  0.1514  0.1265
32558W        W75471  30.907  10.189  24.787 -0.2270 -0.1464 -0.1180
32559W        W75472   8.911  30.095  28.042 -0.2070  0.0036 -0.0667
32560W        W75473  27.434  13.106  26.191  0.0592 -0.0454  0.1887
32561W        W75474  30.872  16.980  17.573  0.1164  0.0052 -0.1753
32562W        W75475  34.191   3.116  20.152  0.1398  0.0064 -0.1174
32563W        W75476  21.550   9.974  20.522 -0.0800  0.0029  0.2531
32564W        W75477   1.357  11.306  19.550 -0.1797  0.1111  0.3716
32565W        W75478  31.648   8.124  18.819 -0.0703 -0.3234 -0.2990
32566W        W75479   6.420   7.936   5.632  0.3868  0.2275 -0.2519
32567W        W75480  33.630  10.719  20.019 -0.2799  0.1679 -0.1810
32568W        W75481  26.832   7.373  17.572  0.2300  0.1073 -0.1205
32569W        W75482  21.210  34.339   0.700 -0.1178 -0.0846 -0.1935
32570W        W75483  26.157   1.023  16.868  0.0141 -0.1182 -0.4808
32571W        W75484  18.752  11.117  22.503  0.2440  0.2479  0.0952
32572W        W75485  34.173   3.096  17.399  0.0864 -0.4155  0.0071
32573W        W75486  22.437   2.363  23.790  0.0940 -0.1784 -0.1285
32574W        W75487  28.000   7.023  22.071 -0.0880 -0.1847 -0.1799
32575W        W75488   4.284   7.868  18.342  0.1920 -0.0046 -0.0108
32576W        W75489  28.356   8.095  18.929 -0.0963 -0.2410 -0.0118
32577W        W75490  27.931   3.821  27.930  0.2565 -0.0011 -0.0248
32578W        W75491  26.580   4.877  22.091 -0.3115  0.2481 -0.1424
32579W        W75492  17.939   2.922  21.220  0.1588  0.3288  0.1201
32580W        W75493  32.555  10.429  26.567 -0.0923 -0.0164 -0.3967
32581W        W75494  26.575  34.210  22.334 -0.1496  0.0404  0.0157
32582W        W75495  20.207   5.925  22.256  0.1257 -0.1331 -0.0392
32583W        W75496  28.401  12.023  20.608 -0.1473  0.2294 -0.0700
32584W        W75497  32.624  27.907  23.068  0.3822 -0.0782  0.2183
32585W        W75498  30.801  34.364  21.208  0.1046  0.0502 -0.3011
32586W        W75499  23.202  10.248  20.574  0.1021  0.1310 -0.1443
32587W        W75500  22.315   5.774  20.497 -0.4449  0.0467  0.1785
32588W        W75501  31.550  33.472  24.488 -0.0101 -0.0144 -0.0196
32589W        W75502   6.847   4.733  23.098 -0.1290  0.1315 -0.1757
32590W        W75503  23.453  34.308  17.545 -0.2759  0.0097  0.0576
32591W        W75504  24.962   6.795  24.761  0.2635  0.2131 -0.1668
32592W        W75505  18.740   4.589  19.019  0.2347  0.1000 -0.1821
32593W        W75506  24.499   5.762  25.817 -0.0843 -0.0985  0.0108
32594W        W75507  13.854  29.443  24.318  0.1316  0.0996 -0.2692
32595W        W75508  30.933   5.071  23.087  0.3224  0.0042 -0.1724
32596W        W75509   0.241   1.853  26.788 -0.0069 -0.4038 -0.0986
32597W        W75510  30.061   2.833  16.610 -0.2445  0.0207  0.0687
32598W        W75511  29.626  18.088  13.768  0.1188 -0.2962  0.3348
32599W        W75512  33.995  14.045  24.395 -0.1854 -0.1332  0.2351
32600W        W75513  30.310  10.049  17.702 -0.0333 -0.2132 -0.1667
32601W        W75514  25.360  10.431  16.462 -0.3882  0.1637 -0.0473
32602W        W75515  19.540   5.236  21.040 -0.3386  0.1500 -0.1046
32603W        W75516  29.443   4.378  20.351  0.2313  0.3476 -0.2947
32604W        W75517  33.079   4.256  26.078 -0.0662  0.2583  0.2006
32605W        W75518  16.493   6.152  22.992 -0.1397 -0.1042 -0.1100
32606W        W75519  17.564  34.332  16.036 -0.2760 -0.0012 -0.0078
32607W        W75520  27.622   5.917  24.270  0.1208  0.0298  0.0938
32608W        W75521  32.766   7.486  19.229  0.1338  0.1344  0.3166
32609W        W75522   0.611   2.234  16.464 -0.0862  0.0042  0.3796
32610W        W75523   2.017   8.199  19.322  0.2164  0.0009 -0.1324
32611W        W75524  27.184  16.062  19.750 -0.3123 -0.0616  0.1260
32612W        W75525  23.009  30.395  26.084  0.1521 -0.3067  0.0673
32613W        W75526  21.505   3.459  28.893 -0.0265 -0.1732  0.2052
32614W        W75527  27.223  13.310  14.297  0.2258  0.3528 -0.1064
32615W        W75528  31.914   2.742  21.036 -0.3158 -0.2679 -0.0276
32616W        W75529  23.741   5.501  20.024 -0.2387  0.1371  0.1214
32617W        W75530   7.151  31.528  21.811  0.1800 -0.0843  0.0407
32618W        W75531  22.783   1.892  17.827 -0.2199  0.3900 -0.2694
32619W        W75532  26.429  33.988  26.998 -0.0118 -0.0628 -0.0026
32620W        W75533  22.818  12.791  22.761 -0.0021  0.2380 -0.1049
32621W        W75534  32.687   0.419  20.962  0.2584 -0.2145  0.0187
32622W        W75535  32.287  12.802  14.704 -0.0434  0.0098 -0.1954
32623W        W75536  27.590   6.725  22.310 -0.0148 -0.0086 -0.0286
32624W        W75537   3.188   9.228   0.491  0.1702 -0.1231  0.0211
32625W        W75538  26.536   4.470  20.149 -0.3925 -0.1758  0.1868
32626W        W75539  24.376   5.997  19.433 -0.0962  0.1700  0.0235
32627W        W75540  21.090  31.367  25.536 -0.0893 -0.2645  0.0186
32628W        W75541  33.461  29.937  23.706  0.1875 -0.2259  0.2086
32629W        W75542   1.714  15.868  24.924 -0.2627  0.1322 -0.1672
32630W        W75543  33.562  14.425  16.803 -0.1137  0.1692  0.0794
32631W        W75544   2.400  33.704  21.755 -0.1024 -0.5573  0.2905
32632W        W75545  29.736  18.309  28.062 -0.3874  0.2353 -0.2317
32633W        W75546  30.136   6.468  26.624 -0.0493 -0.3746  0.0864
32634W        W75547  27.106   8.913  25.625 -0.3429  0.3538  0.0384
32635W        W75548  32.284  10.293  15.071  0.2118 -0.0433  0.1631
32636W        W75549   3.984   2.297  18.244  0.2673 -0.0146 -0.0209
32637W        W75550  27.310   2.067  15.867  0.0762  0.3759  0.4870
32638W        W75551  31.545  32.520  20.656 -0.2928  0.1420  0.2484
32639W        W75552  25.491  10.982  18.525  0.0151  0.1822  0.0080
32640W        W75553  26.188   5.344  14.890  0.2000  0.2907 -0.1667
32641W        W75554   3.516  30.672  26.558 -0.2092  0.0113 -0.2981
32642W        W75555  22.531  27.638  18.600 -0.1981 -0.0851  0.2959
32643W        W75556  34.136  21.535   2.604  0.3090  0.1053  0.1464
32644W        W75557   1.283  31.016  28.804  0.4573 -0.1667 -0.1241
32645W        W75558  29.468  10.189  20.759  0.3565 -0.0056  0.1967
32646W        W75559  26.970  11.114  14.563  0.1115 -0.0146 -0.1314
32647W        W75560  21.897  11.544  27.424  0.1960 -0.0103 -0.1278
32648W        W75561  25.661   4.924  24.741  0.1544 -0.0597 -0.0563
32649W        W75562  33.401   3.930  18.774 -0.2213  0.0394  0.1095
32650W        W75563  27.541   6.861  28.169 -0.1380 -0.0312  0.0717
32651W        W75564  26.613   5.729  27.776  0.1552 -0.1747 -0.1431
32652W        W75565   2.299  11.442  20.505  0.0240 -0.1068  0.0940
32653W        W75566  25.264  26.504  14.784  0.0491 -0.1346  0.0772
32654W        W75567   8.411   3.385  26.579 -0.0502 -0.1286 -0.0475
32655W        W75568  25.553  30.153  25.356 -0.0868 -0.1193 -0.4472
32656W        W75569  32.984   8.433  18.747  0.2395  0.3761 -0.0057
32657W        W75570  24.412   4.851  20.122  0.0583  0.1460  0.0842
32658W        W75571  23.438   3.511  14.728  0.2819 -0.0399  0.1165
32659W        W75572  13.192   2.147  29.233  0.1319  0.0169  0.0417
32660W        W75573  24.839  19.625  16.174 -0.1699 -0.0391  0.0344
32661W        W75574  32.570   4.087  17.125 -0.0933 -0.1894 -0.2140
32662W        W75575   3.717   2.886  21.967 -0.2289  0.4205 -0.1602
32663W        W75576  22.325  20.336  13.501 -0.0942  0.1711 -0.2781
32664W        W75577   0.174   9.069  16.334  0.0193 -0.1656 -0.0245
32665W        W75578  29.872  33.568  18.646  0.4326  0.0888  0.0265
32666W        W75579  12.948  34.463  28.645  0.0311  0.2917 -0.1276
32667W        W75580  24.054  31.792  22.187 -0.1018 -0.0033 -0.0373
32668W        W75581  20.956  13.802  25.730 -0.0607  0.1695 -0.2123
32669W        W75582  26.390  18.993  15.507  0.0004 -0.1640 -0.1550
32670W        W75583  21.070   0.487  25.202  0.0220 -0.1080 -0.0938
32671W        W75584  34.466   3.547  23.235 -0.0311  0.0412  0.1059
32672W        W75585   1.789   6.823  21.060  0.2283  0.0340  0.3939
32673W        W75586  26.720  12.604  17.429  0.2807  0.0134  0.1027
32674W        W75587   8.439   0.799  18.125  0.1072 -0.2726  0.3371
32675W        W75588  29.452   1.617  22.021 -0.0851 -0.0506  0.1516
32676W        W75589  17.105  11.193  22.959 -0.1602  0.0168  0.2022
32677W        W75590  23.105   1.458  24.234 -0.1818  0.0488 -0.0731
32678W        W75591  21.312  15.872  14.799 -0.0254  0.0191 -0.1402
32679W        W75592  19.885   9.533  13.471 -0.0281  0.0661 -0.2183
32680W        W75593  15.197   5.843  17.269  0.1101 -0.0208 -0.0857
32681W        W75594  23.444   4.910  28.951 -0.3875  0.0097 -0.0125
32682W        W75595  19.832   4.387   4.336  0.2810 -0.1277  0.3681
32683W        W75596   5.967   9.797  25.452 -0.2069  0.1724 -0.3612
32684W        W75597  31.601   8.239  26.422 -0.1508 -0.0464  0.0203
32685W        W75598   1.491  23.107  21.507  0.0773  0.0674  0.3156
32686W        W75599  30.876   5.564  17.646  0.0759  0.1361 -0.1254
32687W        W75600  30.883  18.160  24.339  0.1357  0.0834  0.0675
32688W        W75601   1.846  18.156  15.011  0.1618  0.0248  0.0377
32689W        W75602   1.187  14.919  21.480  0.1462 -0.2396 -0.2691
32690W        W75603  30.147  33.218  26.636 -0.0616  0.1519 -0.1522
32691W        W75604   0.102   4.994  24.060 -0.0128 -0.2464  0.1985
32692W        W75605  29.476   9.250  26.347  0.2932 -0.2281  0.3692
32693W        W75606   3.805  14.801  15.426 -0.2449  0.0143  0.1437
32694W        W75607  32.608  29.715  14.375  0.1489 -0.0694 -0.0655
32695W        W75608   8.441   3.802  25.327  0.0037  0.1243  0.0570
32696W        W75609  28.350   3.971  20.231 -0.1262 -0.1952 -0.3158
32697W        W75610  34.164   8.967  22.683 -0.2489 -0.0978 -0.2931
32698W        W75611  23.520   3.049  16.070 -0.0874  0.0405  0.0649
32699W        W75612  19.853   0.585  21.999 -0.1297  0.0819  0.1996
32700W        W75613  32.778  14.591  21.568  0.0245  0.0200 -0.3560
32701W        W75614  26.279   7.655  13.885  0.1331  0.2149 -0.4373
32702W        W75615  25.773  31.226  23.451 -0.0047 -0.2175  0.0348
32703W        W75616  31.532   2.851  23.539 -0.2321  0.0923 -0.0901
32704W        W75617  28.751   2.643  18.137 -0.2765  0.1106 -0.0601
32705W        W75618  32.717  13.579  13.641 -0.2072 -0.2243  0.1434
32706W        W75619  23.991   7.992  28.804 -0.1336  0.0903 -0.0415
32707W        W75620  31.038   6.743  20.119  0.1338 -0.2898  0.1529
32708W        W75621   2.681  12.895  22.917 -0.2131 -0.1086  0.1431
32709W        W75622  21.218  27.357  28.790 -0.3912 -0.0107 -0.2722
32710W        W75623   0.475  23.340  19.896 -0.0514 -0.0491  0.0804
32711W        W75624  17.009   2.473  27.563  0.1112 -0.1445  0.5561
32712W        W75625  26.674   5.297  19.834  0.2600 -0.2952  0.0306
32713W        W75626  30.341  11.377  27.104 -0.0580  0.1911 -0.0094
32714W        W75627  29.810   3.770  25.289 -0.0475 -0.1385  0.1555
32715W        W75628  25.955   4.470  27.602 -0.0133  0.1128  0.0996
32716W        W75629  17.914   6.554   2.317 -0.0181  0.0514 -0.2004
32717W        W75630  29.827   3.201  23.694 -0.0653  0.1210  0.1208
32718W        W75631  29.465   1.879  21.545  0.1391  0.0115  0.2272
32719W        W75632   6.176  29.983  28.909  0.1162  0.0910 -0.1016
32720W        W75633   5.291   2.868  22.270  0.0241 -0.1333  0.0833
32721W        W75634  30.956   2.777  21.399 -0.0229 -0.0071  0.0678
32722W        W75635  31.095  14.845  17.016 -0.3014 -0.0493  0.1012
32723W        W75636  28.128  25.539  26.443 -0.2248  0.2477  0.2044
32724W        W75637  26.741   4.908  19.442  0.0800 -0.0222  0.0898
32725W        W75638  26.026   8.679  29.679 -0.0083 -0.1158  0.1572
32726W        W75639   1.103  14.610   2.526 -0.1566  0.1070 -0.2221
32727W        W75640   0.803   4.123  21.797  0.2143  0.0753 -0.3524
32728W        W75641  32.207   1.760   1.925  0.1132 -0.4411 -0.1577
32729W        W75642  18.993  27.622   0.693 -0.4652  0.0612  0.2380
32730W        W75643   2.559   5.864  23.609 -0.0610  0.0929 -0.4038
32731W        W75644  27.664  10.936  20.570 -0.3675  0.0299  0.2958
32732W        W75645  28.095   2.312  21.615  0.2114  0.1776  0.2062
32733W        W75646  27.787   8.406  26.076  0.0751  0.0676  0.3677
32734W        W75647  33.676  13.165  25.941 -0.1387 -0.5579 -0.2260
32735W        W75648  20.133  28.685  22.596 -0.1287  0.3550 -0.2252
32736W        W75649   2.114  33.294  19.190  0.0223 -0.1396  0.1572
32737W        W75650  14.693  10.405  14.855 -0.2657 -0.0468  0.0090
32738W        W75651  19.175   4.714  14.658 -0.1645 -0.0260 -0.0132
32739W        W75652  25.409   5.940  29.015  0.0916 -0.0229  0.1603
32740W        W75653   3.532  14.318  27.354 -0.0343 -0.1891  0.2154
32741W        W75654   2.915   5.380  22.093 -0.1187 -0.0217  0.1280
32742W        W75655  23.875  29.233   6.796  0.0467 -0.2199  0.3317
32743W        W75656   3.072  14.625  27.449 -0.0949 -0.0117  0.1483
32744W        W75657   7.877  12.348  24.331 -0.1542  0.2476  0.0701
32745W        W75658  30.501   3.881  19.853 -0.0843  0.1211  0.0766
32746W        W75659  30.035   1.351  20.487 -0.0552  0.0618 -0.1704
32747W        W75660  30.183  19.905  26.453  0.2255  0.0159 -0.2576
32748W        W75661  27.520   2.258   1.277  0.0615  0.1647 -0.0448
32749W        W75662  23.940   3.611  25.407 -0.1912 -0.2472 -0.0395
32750W        W75663   4.613  14.943  20.419  0.2869  0.0003  0.1810
32751W        W75664  32.601  33.785  27.793  0.0687  0.1170  0.3971
32752W        W75665  25.733   9.002   9.147  0.0645  0.2685  0.0028
32753W        W75666  31.065   7.404  28.066  0.0522  0.1397 -0.2028
32754W        W75667  26.232   6.812  20.588  0.1185 -0.0695 -0.1031
32755W        W75668  22.882   8.129  20.235 -0.3000  0.0301 -0.1877
32756W        W75669  24.655   1.920   3.736  0.0815 -0.0942 -0.0614
32757W        W75670  28.182   9.565  18.563  0.0599  0.0743  0.2971
32758W        W75671  33.043  14.328  16.675  0.1389 -0.2391  0.1586
32759W        W75672  30.398  12.001  14.957  0.2513 -0.4684 -0.1104
32760W        W75673  29.826   4.542  21.777 -0.0617 -0.1173 -0.2984
32761W        W75674  34.267  10.575  26.389  0.1582 -0.3724  0.2312
32762W        W75675  13.813   7.571  27.144  0.1005  0.1148  0.0968
32763W        W75676  27.771   9.732  28.203  0.1619 -0.0188  0.1226
32764W        W75677  30.171   7.620  20.802  0.2601 -0.0048  0.2152
32765W        W75678  27.757   2.434  18.266 -0.1754 -0.1696 -0.1579
32766W        W75679  23.321   1.058  25.285 -0.1818 -0.0143 -0.0001
32767W        W75680  25.005   2.432  18.840  0.1454 -0.4914  0.3138
32768W        W75681  31.763   4.561   5.727 -0.1987  0.2035  0.0736
32769W        W75682  28.642  16.861  15.905 -0.3359  0.2855 -0.1839
32770W        W75683  20.471   5.489  24.801  0.1121 -0.0817  0.1716
32771W        W75684  31.577   7.320  18.667 -0.2333 -0.3342 -0.1580
32772W        W75685   1.405   9.371   7.593 -0.0243 -0.0644  0.0596
32773W        W75686  26.059  33.334  29.503  0.1528 -0.1423 -0.1448
32774W        W75687  24.658   5.083   0.412  0.1346  0.2569  0.0084
32775W        W75688   0.015  34.351  27.311  0.2570  0.0719 -0.1353
32776W        W75689  21.123   9.051  13.808 -0.1769 -0.1508  0.2083
32777W        W75690  21.358   2.812  25.193  0.1881  0.3204  0.2096
32778W        W75691  33.190   1.653   2.327  0.1647 -0.6304 -0.0036
32779W        W75692  31.920   6.058  29.080  0.0804 -0.4032  0.0828
32780W        W75693  21.346   3.823  20.476  0.3377 -0.2213  0.0397
32781W        W75694  25.047   8.256  21.912  0.3216 -0.2639 -0.2401
32782W        W75695  25.336  32.613  27.487  0.0100  0.1285 -0.0003
32783W        W75696   1.262  15.511  18.116  0.0296  0.1248 -0.1247
32784W        W75697  23.241   3.952   6.345 -0.0576 -0.1073 -0.6541
32785W        W75698   1.365   3.766  29.197  0.0804 -0.0169 -0.0438
32786W        W75699  32.983   0.297  15.888  0.3166  0.1348  0.0900
32787W        W75700  22.907   7.454   4.889  0.0834 -0.0368  0.0979
32788W        W75701  32.774  16.937   2.965 -0.3882 -0.1550 -0.2650
32789W        W75702  26.830   1.280  17.215 -0.0185  0.4839 -0.0221
32790W        W75703   2.238   9.588  19.064  0.2199 -0.2815  0.0432
32791W        W75704  24.397  10.506   0.195 -0.2809  0.0157 -0.0153
32792W        W75705  22.957   0.849   7.036 -0.2791  0.2823  0.0188
32793W        W75706  25.640  11.561  21.693 -0.3519 -0.2542  0.2588
32794W        W75707  31.405  24.427  23.271 -0.2767 -0.0596 -0.0816
32795W        W75708  32.441   6.316   3.622 -0.0648 -0.2730  0.0930
32796W        W75709  22.676  10.334  18.794 -0.1808  0.0927 -0.0416
32797W        W75710  23.771   8.237  17.544 -0.0330  0.0772 -0.0220
32798W        W75711   0.632   8.313  16.622  0.2282  0.1602  0.0095
32799W        W75712  32.862   6.363  22.382  0.0768  0.1090 -0.1412
32800W        W75713  17.262  11.866  27.145 -0.0131 -0.2593  0.0489
32801W        W75714   3.337   0.193  21.386 -0.0377  0.0293 -0.0354
32802W        W75715  19.706   3.115  25.790  0.2538 -0.1232 -0.0353
32803W        W75716   4.196  16.201  20.341 -0.1500 -0.1516 -0.0382
32804W        W75717  19.297   8.412  21.009  0.2040 -0.1576  0.0309
32805W        W75718  24.319  21.904  25.593  0.0148  0.0112 -0.0774
32806W        W75719  16.586   0.222  20.569 -0.1753  0.2925  0.1785
32807W        W75720  20.392  32.528  21.389 -0.2100  0.0384 -0.1236
32808W        W75721   5.186  11.352  15.220 -0.3119  0.1827 -0.1411
32809W        W75722  27.365   8.877  21.898 -0.1802 -0.0171 -0.1300
32810W        W75723  25.467  29.978  19.256 -0.0034  0.0454 -0.2119
32811W        W75724  33.920  13.241  16.345  0.0156 -0.3655 -0.1189
32812W        W75725   3.496   9.443   1.043  0.0749 -0.1513  0.5468
32813W        W75726  25.109  12.055  24.162  0.1854 -0.1834  0.0798
32814W        W75727  21.190   5.136  18.097  0.1004  0.2514 -0.0656
32815W        W75728  22.196  16.296  21.844 -0.1195  0.0089  0.2478
32816W        W75729  29.759   2.715  29.387  0.0988 -0.2585 -0.1314
32817W        W75730  31.842  29.467  26.745 -0.0349 -0.4637  0.0568
32818W        W75731  32.634   4.783  12.184 -0.0815 -0.0221  0.1399
32819W        W75732  31.226   8.665  21.684 -0.1245  0.1050 -0.0842
32820W        W75733   3.493   8.633   3.825 -0.3641 -0.1654 -0.0379
32821W        W75734   4.400   4.395  26.263 -0.0856  0.1240 -0.0998
32822W        W75735  21.844   6.276  19.487  0.0295 -0.0323 -0.1181
32823W        W75736  27.747  34.411  20.961  0.0624  0.0369 -0.2158
32824W        W75737   2.975   6.229   2.003 -0.2412  0.1032 -0.1186
32825W        W75738  22.668  31.516  25.838  0.1639  0.0462 -0.0829
32826W        W75739  12.965  14.721  22.728 -0.0661  0.0497  0.1350
32827W        W75740  24.585  16.977  27.078  0.0859  0.0491 -0.3772
32828W        W75741  29.292   4.782  18.048 -0.0519 -0.3059  0.0433
32829W        W75742  22.019   9.805  25.753  0.2036 -0.3875 -0.0134
32830W        W75743  30.987  10.657  18.224 -0.0483  0.0294  0.2324
32831W        W75744   6.407  13.018  29.240  0.2098  0.0317 -0.3253
32832W        W75745  23.993   4.922  25.350 -0.6535  0.1137  0.0434
32833W        W75746  28.029  17.720  19.655  0.1547  0.0854  0.0658
32834W        W75747  30.097   8.304  19.658 -0.1106  0.0388  0.1916
32835W        W75748  22.865   9.114  27.776 -0.1066  0.1746  0.1301
32836W        W75749  20.824  13.034  20.372  0.4015 -0.4292  0.2224
32837W        W75750  33.494   0.828  23.481 -0.3319 -0.0348 -0.1598
32838W        W75751  24.436   9.506   4.092  0.0643 -0.1127  0.0602
32839W        W75752   2.530  16.053  23.483  0.0825 -0.1480  0.1705
32840W        W75753  25.011  10.147  20.581  0.0001  0.0715 -0.1593
32841W        W75754  30.247   8.395  27.998  0.0620  0.1434 -0.0081
32842W        W75755  19.952   2.375  28.957 -0.0668 -0.1818 -0.0272
32843W        W75756  21.553   5.869  28.851  0.1088 -0.2959 -0.2155
32844W        W75757  24.172   7.708  16.540 -0.0440  0.2436 -0.0196
32845W        W75758  15.788   1.258  20.858 -0.1214  0.0388 -0.1608
32846W        W75759  23.383  16.375  14.281  0.1335  0.5002 -0.1074
32847W        W75760  25.273  33.747  21.310 -0.1081 -0.1917 -0.2498
32848W        W75761   4.446  14.288  24.218 -0.0384 -0.1351 -0.2445
32849W        W75762  33.460  16.225  22.028  0.2375  0.2077 -0.2369
32850W        W75763  31.962  12.703  28.855  0.2219 -0.3318  0.3879
32851W        W75764  25.205  14.151   7.246  0.3592  0.0167 -0.2029
32852W        W75765  30.425   5.542  17.271  0.0451 -0.2678 -0.0300
32853W        W75766   4.793   3.737  19.722 -0.2934  0.0977  0.0959
32854W        W75767  33.472   0.169  20.795  0.0306 -0.3183 -0.2650
32855W        W75768  27.989   1.955   0.005 -0.3396 -0.1180  0.1481
32856W        W75769  23.942  14.220  14.072 -0.0428  0.1686  0.1292
32857W        W75770  34.169   5.631   4.985 -0.3194  0.0712 -0.1194
32858W        W75771  24.708  17.788  23.868 -0.2611 -0.0489 -0.1624
32859W        W75772   3.662   4.033  26.697 -0.0053  0.0449 -0.2968
32860W        W75773  25.932  30.396  26.607 -0.3136  0.1245 -0.0261
32861W        W75774  29.966  12.101   0.085  0.1248  0.1350  0.5006
32862W        W75775  27.872  33.605  28.165 -0.0914 -0.2722  0.2461
32863W        W75776  32.504   5.287  18.626 -0.1624 -0.1092 -0.1078
32864W        W75777  33.295   5.996  20.381 -0.0218 -0.0244  0.1130
32865W        W75778  23.198  12.561  26.524 -0.0388 -0.1764  0.2442
32866W        W75779  30.420   6.874  16.824  0.0964  0.1679  0.1538
32867W        W75780   0.691  23.464   8.099  0.2352  0.0727 -0.2043
32868W        W75781  16.754   4.442  23.481 -0.1509  0.2351  0.2138
32869W        W75782  28.505  19.292   2.184  0.1660 -0.0002  0.0409
32870W        W75783   1.612   3.872  29.620  0.6218  0.0172  0.1970
32871W        W75784  32.250   5.022  21.545  0.1707 -0.0254 -0.0487
32872W        W75785  29.088   5.337  25.580  0.4158  0.0980 -0.0240
32873W        W75786  34.125   1.793  19.053  0.3905 -0.1289  0.2229
32874W        W75787   3.066  12.090  22.601 -0.0089  0.0172  0.0241
32875W        W75788  34.433   4.676  28.270 -0.1836 -0.1438  0.0788
32876W        W75789  31.361   3.545  22.242  0.0374  0.1000 -0.0108
32877W        W75790   7.425   6.764  18.747 -0.0210 -0.0179  0.2593
32878W        W75791  27.657  12.686  23.449 -0.2065 -0.0967  0.2771
32879W        W75792  20.403  23.883  25.169  0.2058 -0.3044 -0.0900
32880W        W75793   1.415  11.239  26.559 -0.0996 -0.2062 -0.3791
32881W        W75794  33.440   5.455  18.704  0.0448 -0.2362  0.0371
32882W        W75795  29.511   1.015  17.517 -0.1592  0.2522  0.0394
32883W        W75796  31.745  18.950  22.784 -0.4072  0.1425 -0.0924
32884W        W75797   2.524   1.728  22.762 -0.0959  0.2904 -0.2851
32885W        W75798  30.332  11.634  21.786 -0.1202  0.0077  0.2644
32886W        W75799  32.751  18.662  29.427 -0.0734 -0.0047 -0.1621
32887W        W75800   3.021   3.570  18.568 -0.1154  0.0477 -0.2153
32888W        W75801   3.906  27.562  17.464 -0.1779 -0.0118 -0.0229
32889W        W75802   0.604   4.766   7.103 -0.1366  0.2433  0.3384
32890W        W75803   2.878   1.310  20.391 -0.0559  0.1102 -0.0922
32891W        W75804  34.111   4.443   7.806  0.1893  0.0203 -0.0625
32892W        W75805   7.461   5.433  23.594  0.2827  0.2509 -0.3881
32893W        W75806  27.578   6.938  21.764 -0.2191 -0.1108  0.0209
32894W        W75807  23.734   0.010   1.968 -0.0106 -0.0617  0.1437
32895W        W75808  23.969  33.972   0.513 -0.0560  0.0184  0.2096
32896W        W75809  20.133  16.266  22.301  0.0944 -0.0833 -0.2085
32897W        W75810  25.708   2.451  29.199 -0.2953  0.1633  0.1416
32898W        W75811  20.638   1.920  26.611  0.0386 -0.1181  0.3478
32899W        W75812  30.701   5.238  19.477 -0.0531 -0.0614 -0.0705
32900W        W75813  24.734   7.132  21.308 -0.0047 -0.1145 -0.2677
32901W        W75814  34.037  15.311  26.226  0.1201  0.0651  0.1105
32902W        W75815  29.041   6.903  15.582  0.1969 -0.0573  0.0237
32903W        W75816  28.887   5.984  20.910 -0.0548 -0.1767  0.0834
32904W        W75817  31.734   8.879  21.489 -0.1692  0.1481  0.2324
32905W        W75818  28.137   6.924  26.565 -0.2205  0.1814  0.1152
32906W        W75819  10.749   7.486  16.579  0.1481  0.0908 -0.0320
32907W        W75820  29.243   8.000  24.492  0.0990  0.1611  0.0364
32908W        W75821  32.468  10.680  24.272 -0.0809 -0.0762  0.1989
32909W        W75822  31.706  11.811  25.902  0.0359 -0.1837 -0.4152
32910W        W75823  26.716   4.630  21.521  0.5262 -0.1299  0.0391
32911W        W75824  29.675  26.607  23.128  0.3545  0.1619 -0.2792
32912W        W75825  20.429  34.460  27.987 -0.3044 -0.0196  0.0383
32913W        W75826  29.536  28.908   3.940 -0.5405 -0.0220 -0.2588
32914W        W75827  26.213   9.863  15.672 -0.0254 -0.0960  0.1868
32915W        W75828  23.519  13.849   0.523 -0.0121  0.1267 -0.0003
32916W        W75829  27.746  10.674  21.713  0.3340  0.1426  0.0627
32917W        W75830  13.882   1.158  21.540 -0.2136 -0.0265 -0.1357
32918W        W75831  34.407   3.231  20.941 -0.3376 -0.1044  0.0893
32919W        W75832  26.791   8.860  24.773 -0.0105  0.0884  0.2242
32920W        W75833  30.021   6.357  24.063 -0.1188 -0.1982 -0.2330
32921W        W75834  29.675  19.078  14.028  0.0292  0.1743  0.0418
32922W        W75835  24.481  34.007  14.750 -0.0701 -0.2129 -0.0118
32923W        W75836  22.866   0.558  27.632 -0.0928 -0.0905  0.0770
32924W        W75837   0.352   2.981  20.994 -0.0083 -0.3427 -0.0487
32925W        W75838   4.848  12.764  26.336 -0.0108  0.1576  0.2525
32926W        W75839  23.531  11.645  14.108 -0.0925  0.1032 -0.4386
32927W        W75840  33.826   7.198  24.088  0.0054  0.0970  0.1503
32928W        W75841  27.492  16.437  23.813  0.3848 -0.2630  0.1032
32929W        W75842  32.580   7.416  28.146 -0.1973  0.0717 -0.1230
32930W        W75843   1.408   2.134  20.412 -0.0888  0.4640 -0.1147
32931W        W75844   4.841   7.984  22.263 -0.1824  0.0545  0.0506
32932W        W75845  29.794   9.154   1.874 -0.1637  0.2228 -0.2173
32933W        W75846  31.672   8.936  29.449 -0.1025 -0.1726 -0.0230
32934W        W75847   0.599  20.390  29.133 -0.2208 -0.1103  0.0504
32935W        W75848  30.327   9.014  19.620  0.0006 -0.0929  0.0527
32936W        W75849  33.289  16.728  23.828 -0.0267 -0.0901 -0.2856
32937W        W75850   0.949   6.165  17.404  0.0614 -0.0070  0.1464
32938W        W75851  20.492   9.711  17.348  0.2198 -0.1713 -0.1936
32939W        W75852  27.127   6.120  25.365 -0.0176 -0.1457 -0.1955
32940W        W75853   5.197   6.304   2.778  0.3348 -0.1894  0.1196
32941W        W75854  23.850  19.819  24.481 -0.4223  0.0772  0.0192
32942W        W75855   8.492   1.007   1.323 -0.0366 -0.0426  0.4632
32943W        W75856  26.540  30.666  13.480  0.1233 -0.0271 -0.1170
32944W        W75857  28.970  25.559  17.330 -0.1339 -0.4364 -0.3542
32945W        W75858   9.299   2.433   0.749 -0.0688  0.0545 -0.0126
32946W        W75859  20.655  29.062  24.752  0.1516  0.1229  0.1162
32947W        W75860  33.519   4.547  22.274  0.2500 -0.2443 -0.0509
32948W        W75861  23.557   1.808   1.578 -0.1103 -0.0263  0.0189
32949W        W75862  31.128   3.064  21.047 -0.0924 -0.1725  0.1136
32950W        W75863  29.347   7.082  28.289  0.0425 -0.2574  0.0898
32951W        W75864   3.486  11.531  26.774  0.2384  0.4674 -0.0819
32952W        W75865  27.422   3.801  25.898 -0.0407 -0.0808  0.1622
32953W        W75866  33.650   1.583  19.783  0.3355  0.0074  0.0447
32954W        W75867  33.157   2.811  21.716  0.1498  0.2748 -0.0571
32955W        W75868   0.066   7.185  27.335  0.0383  0.0842  0.0829
32956W        W75869  27.631  15.423   2.016  0.1612 -0.1092  0.1385
32957W        W75870  23.738  33.539  25.930 -0.2056 -0.2157 -0.0559
32958W        W75871  27.589   4.434  22.898  0.2331 -0.0750 -0.0429
32959W        W75872  30.750  25.270  24.562 -0.2890  0.5278  0.1543
32960W        W75873  26.118  13.653  24.398  0.0479  0.1329  0.3365
32961W        W75874   1.567   2.179  21.679  0.0589 -0.3678 -0.3345
32962W        W75875   0.951   0.611  17.509 -0.1827  0.1299 -0.2324
32963W        W75876  26.057  11.427  16.633 -0.0347 -0.3209  0.0882
32964W        W75877  29.488  31.796  19.500  0.2191  0.1794  0.2548
32965W        W75878  33.507   6.281  16.747 -0.0752  0.3123 -0.1382
32966W        W75879  17.550   7.635  24.460 -0.0577  0.1272 -0.2755
32967W        W75880  28.097   2.958  29.308  0.3077 -0.0269  0.1338
32968W        W75881  33.212   4.673  18.397 -0.0795 -0.0992 -0.4408
32969W        W75882   5.866   8.283  27.962  0.0275 -0.3493  0.0619
32970W        W75883  19.909  11.621  14.955  0.0732  0.3095  0.0111
32971W        W75884   4.006   6.558  18.887  0.3627  0.3269 -0.0411
32972W        W75885  24.738   7.444  29.765 -0.0929 -0.0685 -0.3824
32973W        W75886  33.570   8.893   9.500 -0.0806 -0.0696  0.0380
32974W        W75887  26.411  10.928  15.367 -0.1968  0.0333  0.0955
32975W        W75888   1.079  33.855  21.220 -0.3579 -0.0137  0.0095
32976W        W75889  30.986   3.387  26.397  0.1248  0.2641  0.0737
32977W        W75890  33.059   8.882  17.908  0.2453  0.0758 -0.1137
32978W        W75891  28.076  16.381  15.374  0.0589  0.1654 -0.0776
32979W        W75892  33.591   5.460  24.119  0.1387 -0.1578 -0.2285
32980W        W75893  24.558   1.460  24.697 -0.0577  0.0902  0.2325
32981W        W75894  28.419  10.849  26.878 -0.0525  0.1205 -0.1817
32982W        W75895  26.489   0.339  19.496  0.0598  0.1532 -0.2472
32983W        W75896  26.850   8.513  19.189 -0.0009  0.0899 -0.0190
32984W        W75897  24.079   0.372   4.185  0.1306  0.0692  0.2589
32985W        W75898   0.149  11.884  10.428 -0.0518 -0.0011 -0.0101
32986W        W75899  16.237  15.410  29.118 -0.2568 -0.6482 -0.2378
32987W        W75900  31.058   2.675  23.722  0.1924 -0.1882  0.2252
32988W        W75901   1.482  13.010  17.966  0.0242 -0.1670  0.1812
32989W        W75902   5.160   6.401  19.988  0.0201 -0.3229 -0.3894
32990W        W75903  23.599   4.862  26.021 -0.1532 -0.0089  0.0763
32991W        W75904  33.548   3.078  28.126 -0.1207 -0.0061  0.1891
32992W        W75905  27.708   4.346  29.258  0.2499 -0.1726  0.0814
32993W        W75906  33.086  34.065  29.047  0.0487  0.0073 -0.0556
32994W        W75907   2.635   0.085  29.351  0.0584 -0.0944 -0.3647
32995W        W75908  25.191  13.586  26.516 -0.0671 -0.1786  0.1107
32996W        W75909   3.199  10.934  19.586  0.0329 -0.2685 -0.1335
32997W        W75910  32.931   6.672  17.971  0.0447 -0.0477  0.1753
32998W        W75911  29.698   4.713  25.433  0.2829  0.0129  0.2199
32999W        W75912  28.821  12.467  17.536 -0.0490  0.2322  0.2143
33000W        W75913  29.807  14.320  25.909 -0.0168 -0.2613 -0.1210
33001W        W75914  26.659   6.955  23.833  0.1359 -0.2237  0.1237
33002W        W75915   0.023   1.875  18.670  0.1425  0.2089  0.0451
33003W        W75916  31.240   2.240   4.921  0.0974  0.0730  0.1241
33004W        W75917  31.288   5.064   4.638 -0.2653  0.2521 -0.0239
33005W        W75918  27.532   8.567  17.609  0.0920  0.3379 -0.0257
33006W        W75919  31.655   2.544  16.629  0.3806 -0.0664 -0.0258
33007W        W75920  30.077   1.977  23.863  0.3214 -0.0867 -0.0821
33008W        W75921  32.358  31.845  24.784 -0.1342 -0.0179  0.5557
33009W        W75922  22.958   5.492  17.940 -0.2287 -0.2658  0.0522
33010W        W75923  27.572   3.201  15.607  0.0305  0.0777 -0.0408
33011W        W75924  34.405  10.621  17.411 -0.1809  0.2513  0.0642
33012W        W75925   0.321   7.614  28.596 -0.0926 -0.1319  0.1623
33013W        W75926  30.214  11.067   0.034  0.1396  0.0944  0.0446
33014W        W75927  14.397  32.188  16.670 -0.4077 -0.0328 -0.2147
33015W        W75928  34.207  27.410  22.392  0.1844  0.3159  0.0899
33016W        W75929  33.106   4.937   3.166  0.1393  0.1558 -0.1052
33017W        W75930  17.955   3.525  22.788  0.1998 -0.1368  0.1475
33018W        W75931  24.404  14.693  17.524  0.1557  0.2057 -0.1568
33019W        W75932  25.103  13.549  22.160 -0.1282 -0.3129  0.3091
33020W        W75933  22.445   6.694  28.623 -0.1021  0.1883  0.1023
33021W        W75934  32.106   7.185  29.357 -0.0069 -0.0972  0.0424
33022W        W75935   1.056  31.544  25.596 -0.1418  0.0283 -0.0665
33023W        W75936  26.472   3.832  18.385  0.1724 -0.0322  0.1367
33024W        W75937  10.555  27.238  25.070  0.1942  0.1230  0.1555
33025W        W75938  30.807  12.637  27.174  0.1739 -0.1978  0.0417
33026W        W75939  25.294  33.994   6.447  0.0082 -0.4094 -0.0201
33027W        W75940  22.933  11.599  29.060 -0.0202 -0.2810 -0.2427
33028W        W75941  22.690  21.327  28.931  0.0485  0.3285  0.2648
33029W        W75942  23.276  33.772  21.369 -0.5345 -0.0415  0.2001
33030W        W75943  30.312   8.802  22.673 -0.2415  0.1936  0.2041
33031W        W75944  15.812   0.015  17.565  0.0312 -0.0066 -0.0190
33032W        W75945  33.107  32.914  29.679 -0.0462  0.1432  0.0061
33033W        W75946  23.283  15.035  21.648 -0.3406  0.3005 -0.0950
33034W        W75947  28.308   6.388  20.041 -0.0031 -0.0415 -0.0517
33035W        W75948  27.984   8.570  20.791  0.0123  0.0047  0.0408
33036W        W75949   3.046   5.594  22.922  0.0912 -0.0726  0.1762
33037W        W75950  31.064  15.082  26.710 -0.0136 -0.1299  0.0851
33038W        W75951  30.144  32.642  28.868  0.0616 -0.3203 -0.1109
33039W        W75952  30.624   0.177  20.837  0.2246 -0.0123  0.0600
33040W        W75953  34.412   0.100  20.694  0.3367  0.1142  0.1467
33041W        W75954  26.589   8.423  28.087  0.1572  0.2811 -0.1910
33042W        W75955   2.869   3.111  25.854 -0.0417  0.1306 -0.1786
33043W        W75956  28.281  10.425   1.948  0.3055 -0.1927 -0.3085
33044W        W75957  33.836   0.163  24.531  0.1024 -0.2057 -0.4367
33045W        W75958   2.360  11.109  29.094 -0.1415  0.3107  0.1195
33046W        W75959  29.536   4.947  28.910 -0.0756  0.2468 -0.2055
33047W        W75960   9.550   3.337  29.395  0.4435  0.0466  0.1398
33048W        W75961  28.699   6.759  20.619 -0.0859 -0.1483 -0.1903
33049W        W75962  20.855  29.234  23.003 -0.2956  0.1733 -0.5050
33050W        W75963  28.375   6.944  20.957  0.1237 -0.2561 -0.2245
33051W        W75964  26.800  15.812  28.685  0.1349 -0.1491 -0.1105
33052W        W75965  33.152   2.334   0.202 -0.0326  0.0516 -0.0635
33053W        W75966   1.114   9.858  27.205  0.3744  0.0158  0.0839
33054W        W75967  30.294   3.864  17.557  0.1626 -0.1244 -0.1807
33055W        W75968   3.530  23.139   0.655  0.0166  0.0700  0.0219
33056W        W75969  28.752   1.788  26.421  0.1314  0.1979  0.2181
33057W        W75970  26.001  21.739   0.844  0.0693  0.1778  0.0034
33058W        W75971  23.460  11.530   3.664 -0.0279  0.0393 -0.1954
33059W        W75972  17.245  13.616   0.856  0.0247 -0.0414  0.1887
33060W        W75973  25.270  11.478  22.032  0.3201 -0.0039  0.1990
33061W        W75974  29.650   3.723  24.759  0.0145  0.0536 -0.3119
33062W        W75975  28.822   8.502  24.177  0.1312 -0.0894 -0.2263
33063W        W75976   0.184   0.044  20.097 -0.1128 -0.0980 -0.3050
33064W        W75977  26.055   1.253  26.591 -0.1224  0.0312 -0.0464
33065W        W75978   5.768   1.663  17.930 -0.1546 -0.2766  0.0873
33066W        W75979   9.786  33.015   1.857 -0.2493 -0.0390  0.0870
33067W        W75980  21.199  10.102  26.011  0.0352 -0.2669  0.2116
33068W        W75981   2.899   1.707   0.959 -0.0981 -0.2252  0.0005
33069W        W75982  27.069   1.228  28.948  0.2621 -0.0693 -0.3253
33070W        W75983  26.792   2.996  23.234 -0.1945  0.1241  0.0185
33071W        W75984  15.636   8.460  17.314  0.3824 -0.1236 -0.0299
33072W        W75985  31.515  13.285  16.301 -0.1183 -0.2405  0.0875
33073W        W75986  29.265   4.398  23.099 -0.0271 -0.0975  0.0907
33074W        W75987  26.458   4.159  29.381 -0.1958  0.0543 -0.4577
33075W        W75988  16.669  11.702  22.097 -0.0453 -0.0234  0.0753
33076W        W75989  34.240  33.776  27.712 -0.0217  0.0194  0.1850
33077W        W75990  27.255  31.990  20.723  0.2214  0.2758 -0.0649
33078W        W75991  29.512   0.328   4.677 -0.2116  0.0168  0.2801
33079W        W75992  34.399  12.280  22.286 -0.0268 -0.1025  0.0064
33080W        W75993  29.563  11.424  26.592 -0.1924  0.3074  0.0992
33081W        W75994  26.912  10.775   4.738 -0.2198 -0.0822 -0.1984
33082W        W75995   4.175  13.182   6.728  0.1039 -0.1792  0.0674
33083W        W75996  25.525   8.230  23.644  0.1091  0.3855  0.2458
33084W        W75997  27.087   8.148  19.447 -0.0264 -0.0210 -0.0474
33085W        W75998  18.687  12.547  20.455  0.0414  0.1120 -0.1147
33086W        W75999  30.635   1.631  16.706 -0.1809 -0.3618  0.1795
33087W        W76000  26.860   1.326  28.192  0.2196 -0.3139  0.2223
33088W        W76001  34.151   7.205  26.306 -0.0436  0.0162 -0.1610
33089W        W76002  33.140   6.519  23.136 -0.1511 -0.4510 -0.1276
33090W        W76003  34.093  25.927   6.086  0.2013  0.0306  0.2484
33091W        W76004  23.969   9.260   0.487 -0.2029  0.0709 -0.0200
33092W        W76005  26.218  12.348  19.176 -0.1080 -0.0791 -0.1300
33093W        W76006  26.346  34.363   3.856  0.3714  0.2752  0.0144
33094W        W76007   3.720   9.426  19.522  0.0178  0.3704 -0.2923
33095W        W76008   2.063   3.884  26.144 -0.0420  0.0592 -0.1926
33096W        W76009  10.601  34.449  20.153 -0.1472 -0.0310 -0.3019
33097W        W76010  27.400   7.352  26.636 -0.2142 -0.3307  0.1821
33098W        W76011  24.969   9.852  17.357  0.0942  0.1195 -0.3797
33099W        W76012  28.933  18.726  13.986 -0.2426  0.1767  0.3011
33100W        W76013  33.648  11.854  22.694  0.1279 -0.0077  0.0634
33101W        W76014  29.513  31.193  26.253  0.1147  0.1135  0.1451
33102W        W76015  33.501   0.718   4.844  0.0278 -0.1047 -0.1288
33103W        W76016   4.623  16.687  24.219 -0.0783  0.1025 -0.1512
33104W        W76017  24.167  33.548  28.546  0.0016  0.1295  0.2567
33105W        W76018   3.009  13.831   8.203  0.0320  0.0917  0.0910
33106W        W76019  32.193  15.494  16.832 -0.1986  0.0024  0.0768
33107W        W76020  28.396  33.061  26.321  0.0534  0.3378  0.2255
33108W        W76021  30.836   5.551  16.023 -0.0604  0.1850 -0.0071
33109W        W76022  23.046   9.388  26.950  0.0559  0.0563  0.2128
33110W        W76023  27.496   4.353  27.982  0.1577  0.3729  0.0954
33111W        W76024  32.805   4.929  25.278  0.1543 -0.0860  0.0929
33112W        W76025  33.637  13.140  16.761 -0.1980  0.0920  0.1920
33113W        W76026  28.820   5.130  15.642  0.1452 -0.2370 -0.0314
33114W        W76027  24.257  32.396  28.522  0.3245 -0.0219 -0.3097
33115W        W76028  33.729   3.603  20.820  0.4722 -0.0462  0.1665
33116W        W76029  25.703   9.051  24.186 -0.1237  0.1588 -0.1738
33117W        W76030  27.822   8.745   3.344  0.1745 -0.6836 -0.0654
33118W        W76031  24.384   9.979   5.818  0.0654  0.2088 -0.0611
33119W        W76032  17.780  11.301  26.726 -0.0916  0.3807  0.2468
33120W        W76033  20.854  28.000  20.308 -0.3156 -0.0753 -0.1150
33121W        W76034  31.317   9.212  24.061 -0.0247 -0.1392  0.1245
33122W        W76035  31.731  13.554  15.856  0.0894 -0.0541 -0.0268
33123W        W76036   1.355   7.961   1.621 -0.0104 -0.0008 -0.2006
33124W        W76037   3.546  31.411  25.561 -0.0650  0.2515  0.0327
33125W        W76038   6.879  34.325  28.152 -0.0453  0.3068  0.0143
33126W        W76039   8.940  15.160  18.937  0.1265 -0.1067 -0.1732
33127W        W76040  23.983  31.865   0.359  0.3671 -0.1043 -0.0439
33128W        W76041   8.152   7.855  17.660  0.4737  0.2613  0.4168
33129W        W76042  20.417   6.530  19.317  0.0621  0.0562 -0.1918
33130W        W76043  32.235  12.218  23.763 -0.1034 -0.1660 -0.0160
33131W        W76044  25.652   7.792  25.600  0.0156  0.0184  0.1911
33132W        W76045  20.646  32.267  26.484 -0.2046 -0.1952  0.0224
33133W        W76046  10.275  11.580  19.315 -0.0514 -0.0212  0.0285
33134W        W76047  28.348  15.660  29.033 -0.2923 -0.0601 -0.0237
33135W        W76048   5.411   4.597   2.134 -0.1717  0.1039  0.0367
33136W        W76049  31.010  29.279   1.579 -0.1916 -0.0423 -0.1754
33137W        W76050  24.412   7.708  23.291 -0.1020 -0.4481  0.0456
33138W        W76051   8.446  15.388  24.629  0.1215 -0.3478 -0.0148
33139W        W76052  33.468   1.824   3.180 -0.5021  0.1618  0.2412
33140W        W76053  26.713   3.859  26.919 -0.3645  0.2460 -0.1900
33141W        W76054  26.636  31.445  22.967 -0.1984 -0.4243  0.0047
33142W        W76055  30.549   6.150   1.761  0.0374  0.1182  0.2253
33143W        W76056  26.768   4.288  25.354 -0.0187  0.0916  0.3224
33144W        W76057  31.847   2.224  23.913 -0.1132 -0.2480 -0.0680
33145W        W76058   4.274  15.227  25.912 -0.0379  0.0316 -0.1835
33146W        W76059  22.492  10.774  28.560  0.0728  0.1731 -0.0839
33147W        W76060  26.519   6.768  22.308  0.1430  0.1181 -0.1279
33148W        W76061  32.798  14.675  21.087 -0.1248  0.2255  0.1039
33149W        W76062   9.837   4.971  27.626  0.0440  0.1023  0.0396
33150W        W76063  22.719  33.339   1.511 -0.4251  0.0673  0.0021
33151W        W76064  31.704   8.683  18.689  0.0223  0.1203  0.3814
33152W        W76065  31.496  33.321  26.048  0.2007 -0.1621  0.1336
33153W        W76066  32.438  11.967   9.331  0.3509  0.2290 -0.1558
33154W        W76067  32.773  15.450   1.393 -0.0596  0.2399 -0.0289
33155W        W76068  33.868  23.284  22.747 -0.0967 -0.0167 -0.1530
33156W        W76069   5.508   5.846  16.948 -0.2371  0.0421 -0.0380
33157W        W76070  32.967  30.245   6.902 -0.1966  0.3659  0.1818
33158W        W76071  31.725  31.105  25.757 -0.1528  0.0051 -0.0942
33159W        W76072  23.601  12.509  26.775  0.1585 -0.1287 -0.1209
33160W        W76073  20.139   8.912  22.201 -0.1521 -0.0438  0.2661
33161W        W76074  24.424   3.261  22.120 -0.0680  0.1124  0.2752
33162W        W76075   5.013   7.306  27.537  0.2716  0.1321  0.2461
33163W        W76076  27.709   6.076  28.799 -0.0249 -0.3526  0.1269
33164W        W76077   7.176  33.581  20.284  0.0578  0.1760  0.1406
33165W        W76078  34.355  10.076  18.182  0.2880 -0.1394  0.1256
33166W        W76079  28.219   8.329  21.551 -0.0103  0.0923  0.3560
33167W        W76080  32.081   3.827  27.661 -0.0274  0.2734  0.2876
33168W        W76081  29.249   2.413  27.772  0.1757 -0.1562  0.1235
33169W        W76082  27.297  21.243   2.593  0.0882  0.2186  0.0338
33170W        W76083   1.156   7.730   4.292  0.2321  0.1785 -0.1227
33171W        W76084  34.144  33.536  25.274  0.1716 -0.0554  0.1337
33172W        W76085  23.774   7.750  28.408 -0.1282  0.0994 -0.1941
33173W        W76086  28.545  33.942  18.271 -0.1722  0.1018 -0.1173
33174W        W76087   1.067   5.492  29.229  0.0465  0.0352  0.0822
33175W        W76088  22.214   4.052  21.689 -0.1101  0.0371  0.0924
33176W        W76089   1.286  32.468   1.826 -0.0774 -0.0794 -0.0304
33177W        W76090   3.423   3.725  18.920  0.0880  0.1399 -0.1408
33178W        W76091   2.602   4.493  25.682  0.1087 -0.2979  0.2815
33179W        W76092  30.916  11.325  26.438 -0.1247  0.1822  0.0579
33180W        W76093   4.021  29.578  23.219 -0.0830  0.2051  0.2171
33181W        W76094  25.722  10.232  22.734 -0.0440 -0.0095  0.1681
33182W        W76095  28.427  13.926  14.364 -0.4015  0.0740  0.1434
33183W        W76096  25.416  16.967  25.052 -0.1306 -0.2357 -0.0945
33184W        W76097  29.584   5.601   4.789 -0.0303  0.3496  0.1467
33185W        W76098   2.189   3.088   0.959  0.2279 -0.1858  0.1638
33186W        W76099  24.913   7.114  28.408  0.0274  0.0429 -0.2847
33187W        W76100  32.076  28.265  19.628  0.1656 -0.0108  0.1812
33188W        W76101   4.626   6.101  29.247 -0.2727 -0.0287 -0.2307
33189W        W76102   9.871   6.419  20.076 -0.4166  0.2299 -0.0299
33190W        W76103  24.699   5.832  25.345  0.0258 -0.2593 -0.2894
33191W        W76104  25.272   6.239  22.076 -0.2778 -0.1010 -0.1357
33192W        W76105   3.765   9.978  26.044  0.0055 -0.3555 -0.5566
33193W        W76106  24.468   9.129  26.002 -0.0549  0.3337 -0.1442
33194W        W76107  12.000   1.484  20.139 -0.0565 -0.0876 -0.3499
33195W        W76108  25.327  34.134   7.309  0.1932 -0.2201 -0.0083
33196W        W76109  33.725   8.432  22.980  0.1053 -0.0013  0.3325
33197W        W76110  24.324  31.259   0.925  0.0940 -0.0247  0.0095
33198W        W76111   4.854  34.033   9.745  0.3289 -0.1075  0.0404
33199W        W76112   0.110  33.754   0.236  0.4534  0.1118 -0.0826
33200W        W76113  16.196   7.743  20.277 -0.0769  0.1358 -0.1857
33201W        W76114  33.604   7.910  25.546  0.2462  0.0515  0.0408
33202W        W76115  30.311   2.432   5.729 -0.0459 -0.0790  0.0710
33203W        W76116   5.908   6.445  18.456 -0.2858 -0.0766 -0.2225
33204W        W76117  26.550  30.101   6.918  0.1122  0.0573  0.0585
33205W        W76118  32.141  15.090  20.549 -0.1381  0.0674  0.2568
33206W        W76119  20.210  34.145   1.992  0.0666 -0.0877 -0.0335
33207W        W76120  26.718  14.603   3.184 -0.0543  0.2265  0.0081
33208W        W76121  33.685   0.100  21.765  0.2389 -0.1505  0.0766
33209W        W76122   1.229  11.076  21.426 -0.1969  0.1683  0.3115
33210W        W76123   6.427   2.710   9.383  0.1002 -0.0241  0.0275
33211W        W76124  29.650  15.747  25.898 -0.2074 -0.1822  0.0159
33212W        W76125   1.434   2.415  24.434  0.2480 -0.2107 -0.2477
33213W        W76126  28.442  31.214  27.506 -0.2737 -0.1007 -0.1999
33214W        W76127   0.220  11.537  24.376 -0.1175 -0.0417 -0.1508
33215W        W76128  25.447   8.785   0.910 -0.1763  0.1636 -0.1202
33216W        W76129  22.361   6.443  29.588 -0.0415 -0.3731 -0.1781
33217W        W76130  26.153  16.170  24.972  0.1679  0.2539 -0.0258
33218W        W76131  17.622   9.412  21.921 -0.2077 -0.1399 -0.4926
33219W        W76132  24.388   3.592  29.527 -0.0668 -0.1335  0.0765
33220W        W76133  26.924   5.712  19.750  0.2061 -0.0535  0.0427
33221W        W76134  24.542  10.223  22.607 -0.2208 -0.0958  0.1477
33222W        W76135  34.289   5.067  28.577  0.0726  0.1144  0.1045
33223W        W76136  25.999  11.868  26.216 -0.0397 -0.0570 -0.2629
33224W        W76137  26.087  28.028  21.733 -0.0390 -0.0336 -0.0054
33225W        W76138  29.541   1.288  22.492  0.2064 -0.0011 -0.2053
33226W        W76139  24.474   2.360  27.884 -0.0092 -0.1015 -0.1957
33227W        W76140   5.320   8.668   8.321 -0.0052 -0.2324 -0.0541
33228W        W76141  30.396  19.408  25.313 -0.2917  0.3105  0.3732
33229W        W76142   8.587  34.419  29.672 -0.0005 -0.1310  0.0400
33230W        W76143  22.748  11.931  21.505 -0.0554 -0.0176 -0.4088
33231W        W76144   0.367  16.405   2.639 -0.0573  0.4084 -0.2010
33232W        W76145   3.938   5.557  28.835  0.4655  0.1302 -0.2022
33233W        W76146   6.202   9.263  22.750 -0.2557  0.0004  0.5952
33234W        W76147  28.953   6.958  28.031  0.0241 -0.0482 -0.1035
33235W        W76148  32.977  10.407  28.995 -0.1888 -0.1464  0.1019
33236W        W76149  24.648  14.542   5.252  0.1758 -0.2537  0.0514
33237W        W76150  30.613   5.256  23.610 -0.2554 -0.0397  0.1319
33238W        W76151  31.738  12.976  24.567 -0.2973  0.1052  0.1148
33239W        W76152  19.088   0.819  28.367 -0.3050 -0.0405 -0.0694
33240W        W76153  18.791   9.634  17.856 -0.0438  0.0392  0.1387
33241W        W76154  31.569  13.960   6.465  0.1580  0.0191  0.0779
33242W        W76155  20.539   4.365   4.022  0.2603  0.0720  0.1937
33243W        W76156  31.424  11.103  28.404  0.0070 -0.1022  0.0355
33244W        W76157  23.802  31.776   3.114 -0.3525  0.2231 -0.1767
33245W        W76158   7.912   1.675  23.856 -0.0996 -0.2115  0.0491
33246W        W76159   1.346   7.805  21.282  0.1681  0.3960  0.0427
33247W        W76160  25.873   7.533  24.045  0.2291 -0.0017 -0.2976
33248W        W76161  28.102   2.570   4.316  0.2705  0.1154 -0.0671
33249W        W76162  29.356   7.643   1.568  0.0195 -0.4186  0.2222
33250W        W76163  30.833   7.227  23.047  0.3615 -0.1768 -0.3322
33251W        W76164  21.446   5.068   4.975  0.0960 -0.1779  0.0556
33252W        W76165  27.179   7.184  27.562  0.0949 -0.2451 -0.2462
33253W        W76166  24.178   8.834  25.755  0.0941 -0.0034 -0.2817
33254W        W76167  27.449   6.376  19.547 -0.4508 -0.0228 -0.0966
33255W        W76168  25.325  11.520  27.227 -0.0258  0.2038  0.3869
33256W        W76169  21.293   1.532   3.611 -0.0865  0.0181  0.2283
33257W        W76170  27.867   1.841   4.965  0.1632  0.1115  0.0591
33258W        W76171  26.770   4.363   2.522 -0.1732  0.0072 -0.1663
33259W        W76172   1.735  14.626  17.385 -0.0459  0.1594  0.0457
33260W        W76173  25.901   1.318  21.525  0.1427  0.1100  0.2904
33261W        W76174  27.006   6.655  28.170  0.0372  0.0921  0.1266
33262W        W76175  22.685   2.476  24.689 -0.0848  0.2500  0.0276
33263W        W76176  24.257   4.818   1.580  0.0246 -0.0598 -0.1017
33264W        W76177  28.859   8.612  19.578 -0.4801 -0.0837 -0.3000
33265W        W76178  26.294  10.965   4.406 -0.3544  0.0473  0.4650
33266W        W76179  31.000   9.771   5.635  0.3801  0.1655  0.0430
33267W        W76180   3.058   2.480  27.979  0.1458 -0.0853  0.2063
33268W        W76181  24.286  20.840   1.650 -0.1866  0.0433  0.2818
33269W        W76182   4.241  11.130  25.086  0.0663 -0.0831 -0.0571
33270W        W76183   5.574  13.039  24.757 -0.0480  0.0154  0.2172
33271W        W76184   3.895   9.518  21.162  0.0661  0.0507  0.1577
33272W        W76185  27.595   2.165  27.731  0.0310 -0.1139 -0.0607
33273W        W76186  26.991   0.466  20.874  0.2484  0.1153  0.4123
33274W        W76187  33.303  30.115  28.363 -0.1047 -0.0354  0.2578
33275W        W76188  29.631  11.091   2.446 -0.3462 -0.1275 -0.2750
33276W        W76189  17.092  31.563  26.979 -0.1213 -0.1351  0.1661
33277W        W76190  32.188   3.921   4.324 -0.0367  0.0042 -0.2225
33278W        W76191  32.276   6.784  26.476  0.3797 -0.0507  0.2076
33279W        W76192  27.687  34.144   4.123 -0.0511  0.0591 -0.1180
33280W        W76193  31.846   1.574   5.505 -0.3360 -0.0668  0.2362
33281W        W76194  26.058  17.733  17.824  0.2547 -0.1948 -0.0987
33282W        W76195  32.385  15.980  20.499 -0.0400  0.3208 -0.0250
33283W        W76196  27.196   4.779   1.712 -0.1699  0.1567 -0.3495
33284W        W76197  18.755   6.962   0.449 -0.0695  0.0392  0.1349
33285W        W76198  23.503   4.465   0.182 -0.1773  0.1482 -0.1146
33286W        W76199  34.051   5.453  29.694  0.1426  0.1123  0.0150
33287W        W76200  18.279   8.766  27.313 -0.0076  0.0683 -0.1239
33288W        W76201  32.044  15.228  29.199 -0.1977 -0.1080  0.1110
33289W        W76202  18.925  23.015   5.163  0.0743  0.1776 -0.1937
33290W        W76203  25.966  33.711  27.515 -0.0627  0.0474 -0.1584
33291W        W76204  28.464  32.989  26.831 -0.1439 -0.0005 -0.2701
33292W        W76205   2.802   4.630  20.165  0.0996  0.3772 -0.2466
33293W        W76206  33.374   0.068   0.060  0.0344  0.2609 -0.1529
33294W        W76207  27.986   1.890  20.806  0.0623 -0.1321  0.3887
33295W        W76208  22.935  14.994  24.133  0.0592  0.1085  0.0676
33296W        W76209  31.076   7.126   8.889  0.0316  0.1340  0.3911
33297W        W76210  31.837   1.474   3.079  0.1185  0.0164  0.3841
33298W        W76211  32.854   8.808  22.124 -0.2011 -0.2305  0.1647
33299W        W76212  32.554  11.363  24.382 -0.2343  0.1055  0.2350
33300W        W76213  33.261  12.118  24.941  0.0725 -0.0819 -0.2696
33301W        W76214  23.993  18.459  24.734 -0.3590  0.0154  0.2031
33302W        W76215   1.841   0.936   2.085 -0.5136  0.1842  0.1359
33303W        W76216  33.533   3.287  17.970 -0.3009 -0.2436  0.1198
33304W        W76217  33.357   4.494   2.421 -0.1401  0.2130  0.2530
33305W        W76218   2.932  11.847   5.051 -0.0735  0.0870 -0.0147
33306W        W76219  25.841   1.690  26.545  0.1341 -0.0791 -0.0199
33307W        W76220  27.410   4.300  20.462  0.1092 -0.1372 -0.1152
33308W        W76221  21.364   7.102  28.519 -0.1036  0.2511 -0.0730
33309W        W76222  33.092   1.695  28.430  0.1381  0.0973 -0.1685
33310W        W76223   2.652   8.186  18.754  0.0629  0.1423  0.2814
33311W        W76224  26.042   3.849  28.106 -0.1818  0.0851  0.0384
33312W        W76225  28.957   5.087  25.093  0.1163 -0.0635  0.2780
33313W        W76226  15.715   2.971  20.338  0.1466  0.1453  0.1825
33314W        W76227  32.082  30.715  16.914 -0.3020  0.0607  0.0254
33315W        W76228  31.848   3.265  27.700 -0.0899 -0.2460 -0.0730
33316W        W76229  34.111  11.680   0.914 -0.1559 -0.1862  0.3919
33317W        W76230  32.401  14.077  26.408 -0.0467  0.1049  0.1428
33318W        W76231  30.847  13.520  28.838 -0.2335 -0.0415  0.0195
33319W        W76232  24.787  31.499  23.406 -0.5103 -0.0409  0.1642
33320W        W76233  28.171   8.383  22.415  0.2675  0.1015 -0.1704
33321W        W76234   3.887   9.644  23.793 -0.0862  0.0654 -0.3695
33322W        W76235  33.605  18.287   0.859 -0.0509  0.1624  0.0943
33323W        W76236   4.167   3.425  24.466  0.2411  0.1761 -0.2020
33324W        W76237   6.432  32.066  23.943  0.0356 -0.2500  0.0995
33325W        W76238  29.295   3.467  16.288  0.1883  0.1870  0.1296
33326W        W76239   6.384   8.401  25.130  0.0737  0.1484 -0.0146
33327W        W76240  23.392   6.127  26.304 -0.0737 -0.1014  0.1784
33328W        W76241   5.526  13.006  15.609 -0.1536  0.0824  0.2533
33329W        W76242  29.142   4.915  29.269 -0.2648  0.0775  0.1855
33330W        W76243  19.085   7.105  29.027  0.2527 -0.2487 -0.1018
33331W        W76244   8.492   3.552   8.304 -0.1350  0.0183  0.0016
33332W        W76245  28.111  13.489  25.834  0.2675 -0.1375  0.0406
33333W        W76246  30.339  11.701  20.371  0.1338  0.1325  0.1793
33334W        W76247  32.547  14.701   9.886  0.1841 -0.2526 -0.2298
33335W        W76248  18.873   1.819   4.532 -0.2247 -0.4066 -0.0009
33336W        W76249  32.720  12.672  29.272 -0.1259  0.3642 -0.0176
33337W        W76250  24.362  11.005   2.809 -0.0869 -0.1288 -0.0027
33338W        W76251  28.173   7.637  28.877 -0.0939 -0.0171  0.1652
33339W        W76252  33.512   0.065   1.095  0.1460 -0.3013  0.0939
33340W        W76253  27.107   6.244   6.953 -0.1782  0.0181 -0.0263
33341W        W76254   4.005   5.407  17.576 -0.1169  0.1823  0.0829
33342W        W76255   3.307  30.156   3.211 -0.0807  0.1517  0.0716
33343W        W76256  34.163   4.939  29.669 -0.0012 -0.0645 -0.3139
33344W        W76257  21.527   4.939   0.129 -0.1781 -0.3632 -0.1208
33345W        W76258   5.950  15.082  27.299  0.0601  0.1429 -0.0524
33346W        W76259  26.462   0.730   2.037  0.1319 -0.0543 -0.0590
33347W        W76260   2.825   5.897  28.573 -0.0024 -0.1079  0.1898
33348W        W76261  31.310  32.701  23.706 -0.1517  0.1014 -0.1343
33349W        W76262  30.661  33.711  23.425 -0.2819 -0.1524  0.3755
33350W        W76263  22.361  32.319   4.186  0.2209  0.0130 -0.0116
33351W        W76264  23.818  18.122   0.211 -0.0632 -0.1043  0.3046
33352W        W76265  26.568   7.112  26.926  0.0745  0.1472 -0.0976
33353W        W76266  33.597  32.616   8.633  0.2180 -0.3598  0.1125
33354W        W76267  33.449  32.420  16.065  0.0466  0.0036  0.0376
33355W        W76268  18.754   5.836   2.244 -0.0584  0.0033 -0.2994
33356W        W76269   6.906  12.296  22.648  0.0782  0.1119  0.0243
33357W        W76270  29.363   1.372  20.807 -0.0077 -0.3087  0.4022
33358W        W76271  13.171  26.907   2.568  0.1715  0.3990 -0.2793
33359W        W76272   2.578   3.361   2.106 -0.0180 -0.2881 -0.0809
33360W        W76273   6.710  29.911  21.494  0.2263 -0.2271 -0.0662
33361W        W76274  30.836  11.648  28.401  0.3860  0.2246 -0.0824
33362W        W76275   0.703   0.813  27.745  0.1911 -0.1670  0.0445
33363W        W76276  25.392   7.452  27.746 -0.1506 -0.0878 -0.3525
33364W        W76277  30.982   5.210  29.772 -0.1107  0.1801  0.0986
33365W        W76278   2.822  33.990  21.790 -0.1021  0.0543 -0.1038
33366W        W76279   1.959   6.989   6.464 -0.1423 -0.0302  0.3880
33367W        W76280   0.611  23.716  23.256 -0.2981  0.0047  0.2077
33368W        W76281  16.645  15.363  17.096  0.1396  0.1976 -0.1306
33369W        W76282  24.251   9.573  28.967  0.2759  0.1327  0.2988
33370W        W76283  27.474  19.986   8.986  0.3362  0.0841 -0.0724
33371W        W76284  28.770  27.173  19.701 -0.1713 -0.0181 -0.1187
33372W        W76285  26.290   2.288  10.524 -0.0608  0.1748 -0.0122
33373W        W76286  24.738  15.559  28.707  0.2754 -0.2489  0.1032
33374W        W76287  30.601   6.009   1.274 -0.2274  0.0223 -0.1084
33375W        W76288  30.443  28.678  14.374  0.1321  0.2709  0.1397
33376W        W76289  27.893  11.620  22.395  0.0983  0.1634  0.2828
33377W        W76290  31.970  11.193  27.555  0.3053  0.0242 -0.0697
33378W        W76291  23.159   6.464  20.132 -0.0994  0.2793  0.0018
33379W        W76292  32.365   7.403  15.958  0.2432  0.0180  0.0686
33380W        W76293  32.103   9.195   6.797  0.2250 -0.0872  0.0400
33381W        W76294  23.668  12.588  27.955  0.0877  0.0176  0.1411
33382W        W76295  30.198  30.290   1.409 -0.1683  0.0204  0.1090
33383W        W76296   1.711   3.870   9.133 -0.2244 -0.1795 -0.1234
33384W        W76297   0.499   3.438  20.670  0.0824 -0.2040  0.1814
33385W        W76298  23.514  11.162   2.617  0.0632  0.1283  0.0062
33386W        W76299  30.968  33.566  24.280 -0.0424 -0.2393  0.0130
33387W        W76300  24.855  20.949  25.441 -0.0568  0.4486  0.4567
33388W        W76301  32.141  33.282  25.818 -0.0074 -0.3346  0.0810
33389W        W76302  34.018   2.879   0.392  0.2397  0.2374 -0.0168
33390W        W76303  23.969  29.389   1.186 -0.2069 -0.3843  0.1301
33391W        W76304  25.726  19.170  20.044 -0.2671 -0.1234 -0.1968
33392W        W76305   8.193   8.846  29.021 -0.2313  0.2119 -0.2329
33393W        W76306  34.023  10.798  28.499  0.0908  0.1840 -0.3683
33394W        W76307  31.665  12.994  26.901  0.3342 -0.1676  0.1786
33395W        W76308   2.848  28.623   2.286  0.0946 -0.0089  0.1251
33396W        W76309  28.656   6.447  28.378  0.2698  0.2386  0.0228
33397W        W76310   9.476   3.087   1.948 -0.1386  0.0220  0.0222
33398W        W76311  32.578  14.145  27.273  0.1026 -0.2239 -0.0713
33399W        W76312  33.144  11.230  26.752 -0.1004  0.2981 -0.0589
33400W        W76313   1.189  18.165   1.285  0.0589 -0.2649  0.1861
33401W        W76314  29.220   5.498   0.077 -0.1236  0.0736 -0.0935
33402W        W76315  25.603  15.679  25.786  0.0560 -0.2302  0.4036
33403W        W76316  26.534  30.949   0.036 -0.1065 -0.1781  0.0916
33404W        W76317   3.092   6.992   4.472 -0.1615  0.0657 -0.4106
33405W        W76318  33.982   3.084  22.210 -0.1299 -0.1130  0.0364
33406W        W76319  32.665   4.167   0.384 -0.0406  0.0327  0.0478
33407W        W76320  32.144   3.073  25.011  0.0018  0.1164 -0.0438
33408W        W76321  33.014  16.167  20.422  0.3903 -0.1097  0.2445
33409W        W76322  32.094  31.078   6.314  0.2420 -0.0814  0.0106
33410W        W76323  29.064  11.531  22.045  0.1962  0.0200 -0.2738
33411W        W76324  29.665  23.991  28.540  0.1044  0.2294 -0.1004
33412W        W76325  16.755   6.131   3.350  0.3658  0.1219 -0.2092
33413W        W76326   1.849   8.051  26.766 -0.1845  0.3199 -0.2293
33414W        W76327   0.545   4.594  24.759  0.0849 -0.1610  0.1270
33415W        W76328   1.080  11.813   1.938  0.1532  0.2087 -0.2197
33416W        W76329   5.012  13.953  26.943 -0.2622 -0.1719  0.0841
33417W        W76330  24.876   3.024   8.880 -0.0150  0.0115  0.2491
33418W        W76331  32.238   6.192  20.208  0.1972 -0.0622 -0.0849
33419W        W76332  18.954   8.205   3.032  0.0367 -0.1026  0.0689
33420W        W76333   5.800  12.292  28.631 -0.2193 -0.0628 -0.0351
33421W        W76334  33.852   0.722   6.902  0.1201  0.0260 -0.1455
33422W        W76335   6.938   9.603  27.908 -0.1711 -0.1874 -0.1256
33423W        W76336  26.701   6.680   5.212 -0.1315  0.3580 -0.1606
33424W        W76337  28.451   0.573   4.921 -0.3331 -0.0140 -0.3829
33425W        W76338  23.103   8.396  25.777  0.1317  0.0134 -0.1267
33426W        W76339   6.392  30.493   5.996 -0.2862 -0.2709  0.1387
33427W        W76340  27.226  10.325  17.327  0.1042  0.1824 -0.0971
33428W        W76341  34.009   6.940  18.136 -0.0674  0.1592 -0.3171
33429W        W76342  30.302   9.216   1.639 -0.3928  0.0374  0.2707
33430W        W76343  30.772   1.539   7.733  0.2413  0.2093  0.0682
33431W        W76344  16.305  10.645  21.408  0.1298  0.2007 -0.1444
33432W        W76345  28.926  19.004  20.141  0.2215 -0.1136  0.0466
33433W        W76346  22.839  12.446   1.241 -0.0927 -0.1787  0.1514
33434W        W76347   1.273   9.488  20.654 -0.0705  0.4702 -0.0427
33435W        W76348  26.212  27.457  19.693 -0.0818  0.1835  0.0892
33436W        W76349  33.517  31.645   1.480  0.1639 -0.2379 -0.1974
33437W        W76350  14.958  13.140   4.533 -0.0746  0.3386  0.2069
33438W        W76351  12.748  17.152  13.788  0.2403  0.0643 -0.0204
33439W        W76352  31.271   0.198  18.047 -0.3637 -0.0299 -0.1140
33440W        W76353  21.282   9.830  21.095  0.1420 -0.1418  0.4542
33441W        W76354  26.277   7.921  21.106  0.3132 -0.2753 -0.1365
33442W        W76355  24.489   5.791   1.223  0.1552 -0.1189  0.1978
33443W        W76356  32.483   0.017  27.579 -0.0989  0.0573  0.1091
33444W        W76357  27.250  28.069  23.014 -0.0734 -0.2117 -0.2228
33445W        W76358  26.991   7.911  29.485 -0.0218 -0.1303 -0.0580
33446W        W76359   4.686   1.605   7.626  0.0279 -0.0060  0.0859
33447W        W76360  22.813   4.338  24.217  0.0489  0.1482 -0.3678
33448W        W76361   0.032  33.265   1.679 -0.1740 -0.0014 -0.0003
33449W        W76362  28.449   3.542  22.463 -0.1737 -0.0686 -0.4993
33450W        W76363  33.836   3.689   5.280  0.1599  0.1892  0.1976
33451W        W76364  24.000   9.866  25.742 -0.1961 -0.2697  0.0904
33452W        W76365  28.136  14.227   3.877  0.0444  0.0240  0.0883
33453W        W76366   1.865   6.805   8.265  0.1659  0.3244  0.1086
33454W        W76367  24.935  10.421  28.383  0.1331  0.2283  0.1261
33455W        W76368  32.813   1.559  25.403 -0.2250  0.2013 -0.0177
33456W        W76369  26.252  11.584   7.926  0.0241 -0.2610 -0.4328
33457W        W76370  30.149  11.942  23.259 -0.0917 -0.2474  0.1761
33458W        W76371  30.154  10.069  26.972 -0.4243 -0.0733 -0.3164
33459W        W76372  32.226  11.695   3.770  0.0069 -0.0458 -0.0936
33460W        W76373  33.848   7.680   5.850 -0.0181 -0.0798 -0.2351
33461W        W76374  30.231  11.382  23.593 -0.0930 -0.0888 -0.1496
33462W        W76375  34.158   0.537  24.682 -0.0611  0.0911 -0.1166
33463W        W76376  24.073  25.554   0.485 -0.2733 -0.1860 -0.2689
33464W        W76377   7.794   3.080  20.170  0.2025  0.1370 -0.0865
33465W        W76378  33.970   4.204  23.077  0.2127 -0.0541  0.1661
33466W        W76379   0.993  31.183  23.530  0.0070  0.0766  0.0281
33467W        W76380  29.174  33.837   3.644  0.1217 -0.0751 -0.1234
33468W        W76381  27.871   5.308   0.330 -0.0855 -0.0495  0.4550
33469W        W76382  22.021   5.867  24.442  0.0339 -0.1448  0.1465
33470W        W76383  33.528  15.825   2.743  0.1331  0.3037  0.2879
33471W        W76384  24.961  17.362  25.898 -0.1900 -0.3123  0.2006
33472W        W76385  26.091   0.304   4.060  0.3542  0.2848  0.0538
33473W        W76386  31.966   1.620  21.489  0.2731 -0.1336  0.4275
33474W        W76387  24.214   9.841  16.679  0.3032 -0.0050  0.0416
33475W        W76388  31.805   3.798  29.294 -0.4872 -0.2877  0.1352
33476W        W76389  30.451  14.830  22.557  0.1746 -0.2862  0.1837
33477W        W76390  15.734   6.287  26.716 -0.1584  0.2332 -0.2684
33478W        W76391  18.260  11.683  21.348 -0.0042  0.2191 -0.2230
33479W        W76392  18.274   2.441   2.352  0.4961 -0.0349  0.1740
33480W        W76393   1.334  18.973  26.110 -0.0034  0.2384  0.0450
33481W        W76394  33.449   6.017   1.910  0.3066 -0.2236  0.4201
33482W        W76395   5.461   8.158  19.217  0.1282 -0.0790 -0.2154
33483W        W76396   9.193  34.430  27.152 -0.2819 -0.0354  0.1334
33484W        W76397  25.985   8.762   1.241  0.3740 -0.3726  0.3050
33485W        W76398  22.643  11.540   1.097  0.0327 -0.2046 -0.0855
33486W        W76399  31.625   3.140   5.306  0.2601 -0.3527  0.0686
33487W        W76400  28.703   1.294  24.667 -0.1743 -0.2776  0.2711
33488W        W76401   6.005  13.137  28.980 -0.2583 -0.1336 -0.1010
33489W        W76402  31.901  11.507  29.220  0.1346 -0.1958 -0.4593
33490W        W76403   0.430  32.891  18.918 -0.1071 -0.3134 -0.0194
33491W        W76404  28.003   3.151   7.196  0.0141 -0.1931  0.0561
33492W        W76405  20.961  28.330  29.343  0.1200 -0.0218  0.0344
33493W        W76406   0.548  30.560  23.615 -0.1036 -0.0623  0.2310
33494W        W76407  19.783  31.630   1.789  0.1155 -0.3127  0.0322
33495W        W76408  30.843   1.582  24.385  0.0990 -0.1776  0.5590
33496W        W76409  33.061  29.838   2.678  0.0337 -0.1538  0.1201
33497W        W76410   6.499   1.908  25.792  0.1889 -0.2773 -0.1599
33498W        W76411  23.029  10.768   5.646 -0.0708  0.0278  0.2738
33499W        W76412   1.811   7.398  29.378 -0.0995 -0.1043 -0.2214
33500W        W76413  19.901  31.399  22.603  0.1903 -0.0387  0.0777
33501W        W76414  30.864   6.631   9.834  0.0031 -0.2714 -0.0911
33502W        W76415  28.569  11.400  25.433  0.0341 -0.0445  0.2569
33503W        W76416  24.863  12.236  20.376  0.0812 -0.0794  0.0316
33504W        W76417  33.080   8.170  26.648  0.2272 -0.0305 -0.2316
33505W        W76418  24.920   1.182   1.108  0.1877  0.2151 -0.1910
33506W        W76419  26.859   9.270  28.247 -0.1933 -0.1503  0.1873
33507W        W76420  21.762   7.891   2.836  0.4013  0.1866  0.1885
33508W        W76421  31.453   2.332  23.562 -0.0285 -0.1241 -0.1722
33509W        W76422  24.425   7.491  18.374  0.3173  0.1850 -0.0167
33510W        W76423  31.594   4.592   0.094  0.0487  0.0403 -0.3632
33511W        W76424  32.168   3.090  18.436  0.1890  0.2125 -0.0739
33512W        W76425  23.465   3.794  29.128  0.0023  0.0445  0.1144
33513W        W76426  33.996  33.725   5.197  0.1803  0.2467  0.1872
33514W        W76427  27.373  31.198   2.013 -0.1431 -0.0462  0.2552
33515W        W76428  32.223   5.821   7.364 -0.0715 -0.5044  0.0137
33516W        W76429   0.680   3.277   0.867 -0.1568  0.0743  0.0141
33517W        W76430  30.021  10.094   2.164  0.0026 -0.1940  0.2502
33518W        W76431  25.795   4.281  28.067 -0.4065 -0.2961  0.3134
33519W        W76432  32.088   9.522  24.720  0.1381  0.0987  0.0457
33520W        W76433  29.240  14.169   0.157  0.1148  0.0368 -0.1552
33521W        W76434  20.604  15.417  24.012  0.0427  0.1637  0.1457
33522W        W76435  11.494  10.930  21.775 -0.1962 -0.1143 -0.0428
33523W        W76436  19.615  30.560   0.617  0.1698 -0.0339 -0.0535
33524W        W76437   4.730   7.710  25.337 -0.1275 -0.5268  0.0816
33525W        W76438  20.581   6.941  29.148  0.3008  0.0188  0.2598
33526W        W76439  20.008  24.266   2.296 -0.0270  0.2238 -0.1375
33527W        W76440  17.808  10.680  20.921  0.3263  0.0080  0.1116
33528W        W76441  26.156  30.445   0.360  0.4091  0.0609  0.0175
33529W        W76442  24.051  11.820  23.891  0.0792  0.1184  0.0189
33530W        W76443  28.999  31.875   1.618 -0.5141  0.0060 -0.1559
33531W        W76444  18.175   4.415   9.786  0.0798 -0.3065  0.0040
33532W        W76445  34.381   6.801   3.325 -0.2498  0.0921  0.1306
33533W        W76446  21.381  11.361  21.835 -0.1476  0.1821 -0.0477
33534W        W76447  28.381   5.399   4.386  0.2796  0.2981  0.1917
33535W        W76448  27.251   7.278  26.161  0.1579 -0.0353 -0.0161
33536W        W76449   0.389   9.658  26.891  0.1237 -0.4269 -0.1710
33537W        W76450   0.392   1.555  24.535 -0.0318 -0.2591  0.2874
33538W        W76451  30.117  25.457  19.253 -0.1422 -0.1110 -0.1866
33539W        W76452  29.574   9.238  25.361  0.1220 -0.0390  0.1745
33540W        W76453  29.407   6.098  23.786 -0.1862 -0.1783  0.1901
33541W        W76454  11.067  17.561  15.230  0.1501  0.1369  0.0326
33542W        W76455  22.419  18.780  29.022 -0.0612 -0.0695 -0.0839
33543W        W76456  32.066  34.211  22.569 -0.0418 -0.3961  0.3242
33544W        W76457  30.636   5.537   0.433 -0.0606  0.1168 -0.2028
33545W        W76458  28.933   8.810  20.856  0.1252  0.3300 -0.1456
33546W        W76459   0.164   3.250  23.863 -0.0151 -0.1295 -0.3622
33547W        W76460  22.554   7.183   6.198 -0.2700 -0.3096 -0.1454
33548W        W76461  26.675  12.415  18.301 -0.2975  0.0118  0.0928
33549W        W76462  33.985  31.441  28.952 -0.0104  0.1106  0.4295
33550W        W76463  33.575  15.643   1.956  0.1949 -0.0868 -0.0931
33551W        W76464  27.050  25.665  28.288 -0.0374  0.1030  0.2095
33552W        W76465  28.078   7.880   3.804 -0.0744 -0.2467  0.0525
33553W        W76466  23.955  10.025  28.768 -0.0088 -0.1058  0.1933
33554W        W76467  24.499   6.806   0.854  0.3558  0.0502  0.0810
33555W        W76468  31.702   0.027  22.110  0.1843 -0.1781 -0.0793
33556W        W76469  25.669   0.179  29.406  0.0098  0.1864 -0.2549
33557W        W76470  31.967  16.443  25.864 -0.0635 -0.0278  0.0778
33558W        W76471  23.566  30.614   3.989 -0.1282 -0.0225 -0.1228
33559W        W76472  23.346  17.696  27.050  0.3983  0.1217 -0.1231
33560W        W76473  26.618   6.057  26.185  0.0544 -0.1127  0.0210
33561W        W76474  29.374   7.079  26.951  0.1942  0.2015 -0.2038
33562W        W76475   3.595  10.286  16.058  0.2506 -0.0676  0.3029
33563W        W76476  20.763  13.122  14.797  0.1753  0.3858  0.2137
33564W        W76477  33.835   1.611   8.348 -0.1527  0.1754  0.1307
33565W        W76478  29.655   5.727  18.452  0.2107  0.0284 -0.1490
33566W        W76479  26.758  32.404   6.757  0.0840 -0.0747  0.1387
33567W        W76480  23.064  31.091   6.399 -0.0411  0.0211  0.2385
33568W        W76481   5.433  30.801  27.630  0.0693 -0.0064 -0.0875
33569W        W76482  25.280   8.068   2.737 -0.0122  0.2226 -0.1125
33570W        W76483  32.548  33.066   0.868  0.0966 -0.1263  0.2321
33571W        W76484  31.016   5.448   5.371  0.0740  0.1195 -0.0713
33572W        W76485  20.925   8.547  29.765  0.1439 -0.4029  0.3706
33573W        W76486   4.152   9.981  27.439  0.2232 -0.0401 -0.1305
33574W        W76487  28.542   0.021  16.686  0.0653 -0.1249 -0.0224
33575W        W76488  32.222  10.388   5.582  0.0815  0.3064  0.0075
33576W        W76489   3.577  13.793  19.813  0.0037  0.0536 -0.1271
33577W        W76490  13.165  31.191  29.176  0.0656 -0.1086  0.1839
33578W        W76491  27.982   1.955  17.436  0.1219 -0.2044 -0.0845
33579W        W76492  15.473   1.881  27.885  0.0046  0.1882  0.1856
33580W        W76493   4.801  18.944  25.303  0.1753  0.2531  0.0771
33581W        W76494  29.600  10.972   0.148 -0.1339  0.0254 -0.3110
33582W        W76495  29.763   8.252   7.448 -0.1184 -0.3020  0.2005
33583W        W76496   3.954   9.721  19.936 -0.1570 -0.3678 -0.1949
33584W        W76497  32.929   8.320  28.313  0.2362 -0.0650 -0.2277
33585W        W76498  18.023   4.421   7.799 -0.1200 -0.3900 -0.1473
33586W        W76499   1.052  33.814   9.332 -0.1405 -0.0711  0.0589
33587W        W76500   2.481   5.046  29.739  0.1010  0.2029 -0.0537
33588W        W76501  31.479   8.859   9.196 -0.1799  0.2416 -0.2671
33589W        W76502  24.396   4.973  28.988 -0.3817  0.2079  0.2595
33590W        W76503  29.578  17.510  14.802 -0.0605 -0.2521 -0.0123
33591W        W76504  33.447  20.255  17.119 -0.0120  0.0233 -0.0454
33592W        W76505  25.796   9.330  23.206  0.1589 -0.2748 -0.1193
33593W        W76506  34.389   7.711  21.967  0.2482  0.5821 -0.3271
33594W        W76507  30.228  13.442  25.294  0.0740 -0.1611 -0.1382
33595W        W76508   1.922  13.219  18.140 -0.0098  0.2907 -0.1860
33596W        W76509  28.826  11.697  17.856 -0.2111  0.1075  0.0395
33597W        W76510  23.212  33.355  26.065 -0.0963 -0.0625 -0.1516
33598W        W76511  29.665  11.435  19.356  0.0968 -0.0243  0.2177
33599W        W76512  26.850   7.865  23.903  0.1131  0.0871  0.1246
33600W        W76513  25.327  19.312  22.988 -0.0035  0.1227 -0.0686
33601W        W76514  29.979   9.338  14.892 -0.1445 -0.0935  0.1681
33602W        W76515  21.071   0.836  17.771  0.1412 -0.1129  0.0824
33603W        W76516  31.563  11.944  18.464 -0.2253 -0.1103 -0.0656
33604W        W76517   3.335   7.921  18.123 -0.1939  0.2172  0.4180
33605W        W76518  21.254  19.840  26.259 -0.4282  0.0686  0.3455
33606W        W76519  23.197   2.390  21.238  0.0076  0.2915 -0.0266
33607W        W76520  27.764  20.796  16.144 -0.1908  0.3372 -0.0109
33608W        W76521  27.170  16.908  21.967  0.0320  0.0995 -0.1641
33609W        W76522  26.719   5.792  25.589  0.1419  0.2937  0.1839
33610W        W76523  30.650   4.148  16.048  0.1620 -0.1333  0.0546
33611W        W76524   0.163  23.073  20.239 -0.0976  0.0881  0.0670
33612W        W76525  28.286   0.894  16.235  0.4709  0.0044 -0.0242
33613W        W76526   2.032   1.800  16.834  0.1472  0.3052  0.1957
33614W        W76527  30.271  13.622  17.621 -0.1019  0.0133  0.0446
33615W        W76528  30.734   9.255  17.381 -0.1657 -0.2426  0.2747
33616W        W76529  26.798   3.670  17.300 -0.0650 -0.0551 -0.0921
33617W        W76530   2.843  14.002  17.880 -0.0688  0.2954  0.0152
33618W        W76531  32.892  11.435  23.915 -0.1932  0.1012 -0.2280
33619W        W76532  30.124   7.906  19.314  0.2916  0.0195  0.0347
33620W        W76533  34.439  14.375  13.526  0.0136  0.2131  0.2662
33621W        W76534  21.276  20.661  13.098 -0.1857  0.3119 -0.3107
33622W        W76535  32.865  17.976  18.696  0.0204  0.0211 -0.0712
33623W        W76536   6.524  14.668  29.306 -0.2238 -0.2074  0.0039
33624W        W76537   2.325   9.090  17.652  0.0132 -0.1246 -0.2396
33625W        W76538  20.924   5.057  20.343  0.0743 -0.2555  0.0186
33626W        W76539  21.135  13.017  11.938  0.2279  0.2633  0.4754
33627W        W76540  32.508  11.086  17.052  0.0288 -0.3614  0.0081
33628W        W76541  31.767  26.339  16.025 -0.0794  0.0652  0.2615
33629W        W76542  30.802  10.174  17.485  0.1327  0.2629  0.1251
33630W        W76543  29.919   2.707   0.886  0.1872 -0.2080  0.0954
33631W        W76544  26.804  18.953  18.023  0.1411  0.2876  0.1582
33632W        W76545   0.715   8.757  22.889 -0.0089 -0.0232  0.1868
33633W        W76546   3.776  15.302  21.446  0.0332 -0.0073  0.2291
33634W        W76547   1.061  10.758  15.205 -0.1286  0.0672  0.1252
33635W        W76548  21.386  11.914  16.968 -0.1048  0.0509  0.1750
33636W        W76549  22.208   4.754  19.985  0.2003  0.0653  0.2834
33637W        W76550   3.028   8.580  23.409 -0.1208  0.0640  0.0722
33638W        W76551  27.745  10.082  23.045  0.1018 -0.0896  0.2365
33639W        W76552  31.832   7.413   0.706 -0.1805 -0.2092 -0.0965
33640W        W76553  29.030  11.969  15.958  0.1512 -0.0669  0.1010
33641W        W76554  32.026  17.574  14.758 -0.1088 -0.2825 -0.0094
33642W        W76555   0.091   5.687  27.297 -0.0168 -0.2524 -0.1209
33643W        W76556  33.491  10.434  17.507  0.1661 -0.1095 -0.0244
33644W        W76557  30.194  20.270  14.933 -0.1344  0.2162  0.0374
33645W        W76558  32.019   3.870  18.563 -0.2008  0.1368  0.0911
33646W        W76559  29.874  11.395  26.205  0.2499 -0.0429 -0.3108
33647W        W76560  21.556   1.281  28.090 -0.1249  0.1812  0.0410
33648W        W76561  20.646  13.425  19.315 -0.0461  0.1710  0.1631
33649W        W76562   5.851  19.247  24.453  0.1364  0.1279 -0.0246
33650W        W76563   2.912  18.279  18.990  0.0845  0.2039  0.0840
33651W        W76564   3.990   6.322  23.312  0.2752  0.0474 -0.1047
33652W        W76565  28.967  12.253  17.045  0.0327 -0.0647 -0.3401
33653W        W76566  25.329   6.288  14.079  0.0450 -0.2817 -0.0549
33654W        W76567  27.847  20.180  17.146 -0.1051  0.0857 -0.3803
33655W        W76568  29.890  19.475  17.975  0.1273 -0.0514  0.0685
33656W        W76569  33.702  18.125  14.040  0.1356  0.2537 -0.1559
33657W        W76570  25.391   4.226  22.126 -0.3373  0.3661 -0.0223
33658W        W76571  27.534  17.761  19.382  0.1935  0.0042 -0.0584
33659W        W76572  32.348   8.593  21.098  0.1627 -0.0275  0.2408
33660W        W76573  10.965   5.410  27.222 -0.1265 -0.0173  0.1120
33661W        W76574  30.269  18.433  21.408  0.3349  0.1624 -0.1100
33662W        W76575  24.393   6.124  24.528  0.2702 -0.0383  0.2258
33663W        W76576  30.865   6.166  24.382 -0.1747  0.2350 -0.0308
33664W        W76577  29.563  31.120  27.413 -0.0877  0.0192 -0.6118
33665W        W76578   0.833   6.822  16.328 -0.2834 -0.1651  0.0218
33666W        W76579  34.179  10.689  20.255  0.2063 -0.1745 -0.0608
33667W        W76580   1.420   9.902  19.258  0.2772  0.0314 -0.0399
33668W        W76581  26.872   0.080  15.511  0.4089  0.0444  0.0272
33669W        W76582  34.236  10.525  23.214  0.1667 -0.0131  0.0941
33670W        W76583   3.507  12.729  21.933  0.0548 -0.1155  0.0205
33671W        W76584  24.104  19.574  17.170 -0.1345  0.1982  0.2119
33672W        W76585   2.508  13.937  18.269  0.1623  0.2429 -0.1884
33673W        W76586   2.087   9.097  25.920  0.1328 -0.0427 -0.1885
33674W        W76587  28.651  11.229  20.263 -0.2912  0.1058 -0.1035
33675W        W76588  18.778  32.487  22.369 -0.1331 -0.1719 -0.2605
33676W        W76589  25.944  10.819  16.902  0.3376  0.2315  0.1899
33677W        W76590  23.879   6.266  19.376  0.0554 -0.2483  0.2537
33678W        W76591  29.109   7.078  19.464 -0.1072  0.0618 -0.1769
33679W        W76592  22.658  13.200  17.225 -0.0430 -0.0901 -0.2551
33680W        W76593  31.553  10.776  26.923  0.1521  0.3182  0.0488
33681W        W76594  34.247  33.622  17.222 -0.2536 -0.2085  0.1760
33682W        W76595  28.801  12.571  28.240 -0.0147  0.1361  0.3696
33683W        W76596  10.458  13.639  21.102 -0.0863  0.1466  0.0280
33684W        W76597  30.924  16.455  17.130 -0.0305 -0.3574  0.1905
33685W        W76598  21.437   1.829  16.446 -0.0379 -0.0452  0.3739
33686W        W76599  29.722  12.287  22.880  0.0289  0.0963 -0.1450
33687W        W76600  24.457   7.762  29.095 -0.1359 -0.0502 -0.1095
33688W        W76601  32.045  15.448  19.053  0.0722  0.0840  0.2795
33689W        W76602  26.252  12.694  17.328  0.0803  0.1471  0.2066
33690W        W76603  18.657  12.583  19.972 -0.1985 -0.0036  0.0798
33691W        W76604  31.137   9.721  16.459 -0.0806  0.6762  0.2828
33692W        W76605   3.739   8.741  21.505  0.0098  0.1574 -0.2386
33693W        W76606  30.625   4.497  15.611 -0.3027  0.0526  0.0971
33694W        W76607  31.785  12.528   2.140 -0.2987 -0.3248 -0.0651
33695W        W76608  20.205  33.477  15.751  0.0482  0.0731 -0.1707
33696W        W76609  27.272  13.229  15.182  0.2167  0.2127  0.2872
33697W        W76610   0.931  16.709  21.008 -0.2289 -0.0169  0.1874
33698W        W76611  21.292  33.603  24.805  0.1713  0.2542  0.1404
33699W        W76612  30.934  15.761  20.414  0.0282 -0.0127  0.2033
33700W        W76613  28.690  17.457  15.139  0.2074 -0.1437 -0.1548
33701W        W76614   1.697   9.709  16.404  0.1218 -0.0863  0.0441
33702W        W76615   1.324   7.962  17.196  0.0679  0.1302  0.1527
33703W        W76616  30.442  13.509  18.173  0.3653 -0.3368 -0.1203
33704W        W76617   4.038   9.987  22.285  0.2329  0.1740 -0.2866
33705W        W76618  28.201  25.579  13.018 -0.1670  0.0058  0.1941
33706W        W76619  27.993   9.280  18.103  0.1351  0.0491  0.1485
33707W        W76620   4.701  11.960  21.893 -0.2793  0.1306 -0.2249
33708W        W76621  20.168  10.460  13.177 -0.1347 -0.0357 -0.1003
33709W        W76622  25.603   7.272  22.547 -0.4137  0.2682 -0.4573
33710W        W76623  29.824  12.475  20.033 -0.1361  0.2644  0.0413
33711W        W76624  29.486  33.169  25.466 -0.0199 -0.0626  0.2543
33712W        W76625   2.340  22.129  14.235  0.3028 -0.1027  0.2323
33713W        W76626  31.598   6.836  22.960  0.2487 -0.0901 -0.1024
33714W        W76627  24.628  17.691  14.730  0.1148  0.0440  0.1429
33715W        W76628  33.770  15.507  27.226 -0.0324 -0.2067  0.0650
33716W        W76629  26.846  13.788  23.761 -0.0041  0.0106 -0.1616
33717W        W76630  30.789  24.027  18.201 -0.0953  0.1476  0.2196
33718W        W76631   5.906   7.778  19.072 -0.5461 -0.2870 -0.1859
33719W        W76632  27.892  11.892  16.529  0.2145  0.1873 -0.0084
33720W        W76633  34.410  14.243  24.122  0.2818 -0.1130 -0.2559
33721W        W76634  25.616   8.431  15.965  0.0441 -0.0852 -0.2058
33722W        W76635   1.336   9.420  22.930 -0.1240  0.0154  0.0319
33723W        W76636  30.010   7.659  24.202  0.0275  0.1603  0.0389
33724W        W76637  26.758  21.507  27.551 -0.0901 -0.0465 -0.0813
33725W        W76638  27.484   9.132  13.656 -0.0963  0.0006  0.3491
33726W        W76639  24.504  12.021  20.749 -0.2769  0.0733 -0.1923
33727W        W76640  31.657   9.573  23.705 -0.1687  0.0885  0.0877
33728W        W76641  21.290  15.016  12.933 -0.1086  0.1920 -0.0393
33729W        W76642  26.512  12.351  26.999 -0.3277  0.1667 -0.0239
33730W        W76643   3.144  12.656  22.648 -0.1604  0.2043  0.1881
33731W        W76644  25.523   7.388  25.958 -0.1764 -0.1398  0.0321
33732W        W76645   0.449   8.923  15.865  0.0239 -0.0799 -0.2319
33733W        W76646  29.086  19.006  28.309  0.0655 -0.2803 -0.5252
33734W        W76647   1.028   5.154  16.205 -0.0878 -0.1023 -0.1276
33735W        W76648  30.130  10.037  23.711  0.0550  0.0075 -0.1962
33736W        W76649  31.172   9.261  20.646  0.0051  0.3629  0.2641
33737W        W76650  32.523  15.067  21.183 -0.1650 -0.0746 -0.2884
33738W        W76651  28.947  11.272  21.167 -0.2100  0.3561  0.0543
33739W        W76652  31.932   5.562  23.506  0.1721  0.0133 -0.2322
33740W        W76653  31.383  17.171  23.385  0.2259 -0.1059  0.3179
33741W        W76654  19.478   4.217  20.928 -0.2930  0.1225  0.4031
33742W        W76655  16.570   4.898   3.794  0.1798 -0.3961  0.1402
33743W        W76656  28.013  26.452  19.473 -0.4491 -0.1489  0.4404
33744W        W76657  30.098  12.299  19.130  0.3197 -0.1884  0.0300
33745W        W76658  27.152  16.592  23.393  0.0410  0.1527 -0.3795
33746W        W76659  24.629  13.951  17.098 -0.0776 -0.1295  0.2576
33747W        W76660  31.436   9.915  18.400 -0.3717  0.3732 -0.3802
33748W        W76661  28.661  18.502  25.283  0.0824  0.1109 -0.1915
33749W        W76662  29.220  10.333  18.454  0.1251 -0.0535 -0.0983
33750W        W76663  31.583  11.243  19.847 -0.1786  0.1237  0.0690
33751W        W76664  26.695  22.748  21.489 -0.0900  0.0544  0.3870
33752W        W76665  28.206  12.693  14.482  0.0166  0.1626  0.0092
33753W        W76666   8.319  21.246   4.247  0.0723  0.3093 -0.2386
33754W        W76667  33.193   5.254  22.752 -0.0063  0.1009 -0.3256
33755W        W76668  30.245  21.295  27.448 -0.2867 -0.0115 -0.0028
33756W        W76669  24.873  32.625  24.808  0.1572  0.1726 -0.1486
33757W        W76670  30.952  13.154  17.449 -0.0773 -0.1099  0.1513
33758W        W76671  33.413  15.826  18.059  0.1287 -0.1690 -0.3014
33759W        W76672  30.656  20.748  26.271 -0.1170 -0.0264 -0.1936
33760W        W76673  31.724   7.696  17.197  0.0563  0.0405  0.0663
33761W        W76674  27.162  11.711  24.911 -0.0386  0.1278 -0.1243
33762W        W76675  16.949   8.389  18.184 -0.0311  0.0890  0.0343
33763W        W76676  31.956  18.374  14.405  0.0311 -0.0823  0.2273
33764W        W76677  27.841  11.578  21.254 -0.0263 -0.0731 -0.0563
33765W        W76678  32.752   6.219  18.116 -0.1773  0.0633  0.0586
33766W        W76679   4.084  18.622  19.933  0.0227  0.0850  0.1568
33767W        W76680  29.426  15.776  23.528 -0.0233  0.0411  0.1244
33768W        W76681  29.006  12.731  16.548 -0.2040  0.1371  0.1770
33769W        W76682  28.068   5.371  20.090 -0.1423  0.1437  0.1118
33770W        W76683  23.220  11.866  15.280 -0.1238 -0.1104  0.0385
33771W        W76684  28.784  15.231  15.904 -0.3971  0.2548 -0.0347
33772W        W76685  23.731   7.630  16.052  0.1074 -0.3005 -0.0879
33773W        W76686  28.822  22.001  19.182  0.1282 -0.2333 -0.1565
33774W        W76687  27.547  10.530  22.435 -0.0064  0.0762 -0.0517
33775W        W76688  28.087  19.271  14.812 -0.0531 -0.1446  0.1813
33776W        W76689  16.453  11.542  20.419  0.0647 -0.1214  0.0356
33777W        W76690  34.408  12.267  18.387  0.0495 -0.1627 -0.0120
33778W        W76691  31.953  10.302  22.550 -0.1765 -0.4056 -0.1242
33779W        W76692  11.723  12.081  23.400  0.3434 -0.0271 -0.0136
33780W        W76693  28.368  10.175  22.650 -0.3874 -0.0154 -0.2205
33781W        W76694   3.322   1.337  23.785  0.0000  0.2644  0.2885
33782W        W76695  27.999  16.633  19.740 -0.0189  0.0203 -0.1441
33783W        W76696  30.847   6.253  20.183 -0.2426  0.2694 -0.0998
33784W        W76697   1.095  10.445  17.738 -0.2527  0.0845 -0.0209
33785W        W76698  24.792   7.378  20.096 -0.0389  0.0794  0.0585
33786W        W76699  29.593   2.180  27.343 -0.0701 -0.2188  0.0989
33787W        W76700   2.594   8.460  17.073  0.0372 -0.2390 -0.1269
33788W        W76701  31.287  32.801  18.412  0.0606 -0.0956 -0.0541
33789W        W76702  27.162   8.233  24.711  0.1387  0.0347 -0.0013
33790W        W76703  22.178   7.729  21.493  0.1104 -0.0013 -0.0351
33791W        W76704  31.758  11.051  18.809 -0.0830 -0.1729  0.0918
33792W        W76705   0.571  17.912  16.528  0.0125  0.0671  0.0892
33793W        W76706   3.386  12.053  20.983  0.2765 -0.1948 -0.0087
33794W        W76707  31.282  17.638  17.916 -0.0105 -0.0102  0.0562
33795W        W76708  32.323   9.034  23.881  0.0912  0.0698 -0.1274
33796W        W76709  29.129   4.429  27.380  0.2010 -0.1868  0.0749
33797W        W76710  32.230  14.022  24.740 -0.1768  0.0365 -0.0720
33798W        W76711  27.799  30.493  21.154 -0.1724  0.4067  0.1123
33799W        W76712  26.268  23.555  13.965  0.0610 -0.1651 -0.0832
33800W        W76713  24.549  10.060  24.214  0.0821 -0.1910  0.0929
33801W        W76714  19.409   2.429  20.632  0.0096  0.0576  0.2346
33802W        W76715  23.798  14.327  15.052  0.1623  0.1326 -0.1135
33803W        W76716  28.141  14.495  14.641 -0.0381  0.0350  0.1389
33804W        W76717   0.190   5.135  22.258 -0.1212  0.3407  0.1168
33805W        W76718  23.224   8.966  20.410 -0.1486 -0.0082 -0.0995
33806W        W76719   5.127  15.586  16.958 -0.1180 -0.4296  0.0681
33807W        W76720  31.958  14.415  27.792 -0.2842  0.0995  0.3652
33808W        W76721  34.208  11.054  17.301  0.1952 -0.1204  0.0168
33809W        W76722  26.185  33.744  18.404 -0.2049  0.0206  0.1277
33810W        W76723  13.585  12.655  19.324 -0.0885 -0.1097 -0.1211
33811W        W76724  26.729   1.583  23.881  0.0255 -0.0912  0.1101
33812W        W76725  21.631  23.032  15.330  0.0166  0.0756  0.2091
33813W        W76726  25.978   7.566  19.185 -0.1733  0.1980 -0.2588
33814W        W76727   5.042   6.366  26.919 -0.2766  0.1724  0.2055
33815W        W76728  31.803   3.936  17.953 -0.1659 -0.0597  0.2361
33816W        W76729  29.851  29.996  20.596  0.0295  0.0638  0.2181
33817W        W76730  23.421  12.860  24.782 -0.2861  0.3473 -0.3071
33818W        W76731  22.752   3.650  18.064 -0.0936 -0.1474  0.2770
33819W        W76732  26.930   3.823  21.952 -0.0662  0.2155 -0.1138
33820W        W76733  27.440  18.274  17.118  0.2497  0.0616  0.0286
33821W        W76734   0.529  16.783  16.769  0.0163 -0.2073 -0.2422
33822W        W76735  24.229  22.039  24.575 -0.0484 -0.3582  0.0893
33823W        W76736  29.987  13.961  26.534  0.0131 -0.3729 -0.5147
33824W        W76737   1.282  10.276  20.837 -0.1210  0.2107  0.1239
33825W        W76738   0.877   6.358  22.441 -0.0181 -0.3142 -0.0393
33826W        W76739   1.790   7.294   0.397  0.1178  0.1278  0.3599
33827W        W76740   1.333  34.001  22.957 -0.0605 -0.1091 -0.0056
33828W        W76741  31.287  14.763  20.995  0.3537 -0.0821 -0.1190
33829W        W76742  24.508   7.889   0.617 -0.1103 -0.2637  0.0895
33830W        W76743   1.770   9.007  20.226 -0.0143 -0.0841 -0.0633
33831W        W76744  28.470   8.297  22.039 -0.1134  0.0951 -0.0402
33832W        W76745   2.785  25.368  19.473 -0.4334 -0.0489  0.0930
33833W        W76746  20.864   9.770  24.464  0.1121  0.1553  0.2866
33834W        W76747  28.320  18.203  18.202 -0.0176 -0.3217  0.0566
33835W        W76748   0.956  10.950  24.836  0.0065 -0.2659 -0.0255
33836W        W76749  27.772   2.488  27.334 -0.1989  0.0544 -0.1595
33837W        W76750  30.290   0.785   0.756 -0.1251 -0.0286  0.2464
33838W        W76751  26.652   9.290  21.369  0.0417 -0.2728 -0.1258
33839W        W76752   2.354  10.656  16.632  0.1430 -0.0623  0.1756
33840W        W76753  19.880  11.653  12.679 -0.0800  0.1119  0.0249
33841W        W76754  27.538  15.674  18.941  0.1229 -0.1792 -0.0038
33842W        W76755  33.377  14.293  20.568 -0.0857  0.0611 -0.1904
33843W        W76756  19.475  12.820  23.718  0.0745  0.1296  0.2113
33844W        W76757  33.899   9.882  19.841 -0.1798 -0.1563  0.2204
33845W        W76758  33.618  14.069  14.444 -0.2423  0.3282  0.1289
33846W        W76759  33.774   4.836  28.934  0.2458 -0.2517  0.0535
33847W        W76760  30.832   9.267  18.535 -0.0570 -0.1692 -0.0100
33848W        W76761  30.897  17.511  19.001 -0.0083  0.1506 -0.0154
33849W        W76762  34.088  17.621  17.191 -0.0907  0.0283  0.2132
33850W        W76763  26.076   8.732  21.512  0.1425  0.3227 -0.0724
33851W        W76764  22.798  22.766  21.912  0.1076 -0.3018 -0.1040
33852W        W76765  24.421  18.643  16.192 -0.3572 -0.1665 -0.1732
33853W        W76766  24.733   2.027  17.849  0.1011 -0.2275  0.0003
33854W        W76767  24.693  33.104  29.181 -0.1056 -0.2335 -0.2019
33855W        W76768  30.528  10.857  14.475  0.1713 -0.1660  0.0756
33856W        W76769  33.357   1.912  16.120 -0.0015 -0.2174  0.2680
33857W        W76770  29.437  13.819  17.098  0.1796 -0.0477  0.3586
33858W        W76771  29.453  11.184  14.356  0.4122 -0.1930 -0.2987
33859W        W76772  34.319  12.103  14.343 -0.2341  0.1114 -0.1079
33860W        W76773   1.844  23.258  17.917  0.2053  0.1234 -0.3720
33861W        W76774  30.944  15.830  17.157 -0.1519 -0.0928  0.2229
33862W        W76775  24.971  19.785  13.598  0.0777  0.3977  0.2985
33863W        W76776   1.924  18.443  21.513 -0.0216  0.1933  0.2442
33864W        W76777  23.356  10.580  21.535  0.0916 -0.0036 -0.0190
33865W        W76778  21.742  14.495  24.065 -0.2866  0.3296 -0.0858
33866W        W76779  18.450   0.308  20.922  0.1855  0.2266  0.0502
33867W        W76780  26.916   9.893  17.824 -0.2063 -0.3780 -0.1124
33868W        W76781  20.145  11.305  16.752 -0.0700 -0.0865 -0.3305
33869W        W76782  27.385   9.774  18.113  0.1275  0.0119  0.0450
33870W        W76783  27.825  11.403  18.086  0.1189 -0.2786  0.0046
33871W        W76784   2.406  27.004  16.540  0.1410 -0.1202  0.0271
33872W        W76785   0.070  12.819  23.613 -0.2864 -0.0780 -0.0953
33873W        W76786  30.209  12.188  25.758  0.1069 -0.2347 -0.0145
33874W        W76787  32.704  12.404  23.739 -0.1747 -0.0652  0.0939
33875W        W76788   3.605  15.522  17.772 -0.0095 -0.0314  0.1525
33876W        W76789  21.025   5.397  14.630 -0.2614  0.0014  0.1667
33877W        W76790  29.239  17.701  25.886  0.0693 -0.0459  0.3955
33878W        W76791  19.690   3.930  25.704  0.1031 -0.1250  0.1034
33879W        W76792  34.466  13.271  20.267  0.1153 -0.0233 -0.5300
33880W        W76793  27.663  13.291  14.127 -0.0961  0.0438 -0.2458
33881W        W76794   6.358  10.569  16.869 -0.0706 -0.0149 -0.0759
33882W        W76795  31.899  17.201  17.355 -0.0141  0.0644  0.3272
33883W        W76796  28.909  18.383  16.623 -0.2191  0.4193 -0.0837
33884W        W76797  33.680  29.437  26.216  0.2468  0.2448 -0.2240
33885W        W76798  33.003  16.084  17.368  0.0830  0.0010 -0.2945
33886W        W76799  26.952   4.872  14.780 -0.2337 -0.3293 -0.0280
33887W        W76800  26.993  13.624  18.884 -0.0701 -0.0159  0.4750
33888W        W76801  27.948  11.059  24.002 -0.3283 -0.1314 -0.2487
33889W        W76802  29.309  11.963  25.591 -0.0727 -0.2715  0.2521
33890W        W76803  24.839  16.064  16.350  0.1143 -0.2302 -0.1325
33891W        W76804   4.093   8.313  16.691  0.0239 -0.0724 -0.1708
33892W        W76805   3.545  24.318  24.621  0.0925  0.0690 -0.0643
33893W        W76806   3.264   4.898  21.725 -0.0735 -0.1045 -0.0565
33894W        W76807  30.631  13.319  21.247  0.2669  0.1048 -0.1502
33895W        W76808   2.734  25.095  15.304 -0.2938  0.0865 -0.2185
33896W        W76809  30.196  31.845  16.498 -0.2143  0.1191 -0.0816
33897W        W76810  28.137   9.478  15.127 -0.0520  0.0114 -0.1436
33898W        W76811  28.402   4.918  16.409 -0.0037  0.1470  0.0756
33899W        W76812   4.861  20.162  19.353 -0.0427 -0.1372  0.2564
33900W        W76813  33.239   5.876  19.891  0.4120  0.0018 -0.4371
33901W        W76814  31.811   2.318  25.665 -0.0423 -0.1210  0.3547
33902W        W76815  13.288  11.915  19.785 -0.0704 -0.0220  0.3286
33903W        W76816  28.414   2.414  15.364 -0.1672  0.2722 -0.2889
33904W        W76817  23.714  10.285  17.734  0.3274  0.0406 -0.0006
33905W        W76818  28.257  11.051  16.680  0.2745 -0.3396 -0.0524
33906W        W76819  17.725   5.704   2.031  0.0262 -0.1181  0.0508
33907W        W76820  20.276  19.811  12.656  0.2711  0.0120 -0.0631
33908W        W76821  30.615   2.160  15.713  0.1544  0.1273 -0.0559
33909W        W76822  26.883   8.866  17.534 -0.0809  0.0983  0.1327
33910W        W76823  27.098   2.563  27.372  0.0051  0.0486  0.3090
33911W        W76824   4.707  20.280  23.181  0.4231 -0.0090  0.1646
33912W        W76825  27.222  10.845  20.182  0.2450  0.0056  0.1671
33913W        W76826  30.973  20.225  25.470  0.1190 -0.0363 -0.0625
33914W        W76827  29.399  14.240  22.183 -0.3562 -0.2164 -0.3127
33915W        W76828  30.153  17.884  13.634  0.0735  0.1063  0.0091
33916W        W76829   0.724  13.122  14.439  0.2939  0.0336  0.2897
33917W        W76830  18.180   7.077  18.024  0.0620  0.2209  0.0969
33918W        W76831  28.711   2.678  22.888  0.1063  0.0983  0.0110
33919W        W76832  32.997  10.172  27.238  0.2397  0.3506 -0.1462
33920W        W76833  10.792   0.637  23.872 -0.2376  0.0661 -0.2440
33921W        W76834   5.398   0.823  24.309  0.0968 -0.1267  0.0447
33922W        W76835  30.660  17.061  17.083 -0.2359  0.2074 -0.1455
33923W        W76836  30.845  14.324  16.923 -0.1595  0.0208  0.4509
33924W        W76837  29.354  13.774  14.820 -0.1785 -0.1133 -0.1091
33925W        W76838  28.705   8.070  19.441 -0.0869 -0.0669  0.3380
33926W        W76839  22.388  15.174  13.934 -0.0138 -0.2287  0.0904
33927W        W76840  26.017   8.357  14.193 -0.1052  0.1939 -0.0169
33928W        W76841  32.397  12.873  15.688  0.3331  0.1722 -0.4205
33929W        W76842   4.808   9.031  16.619  0.0385  0.4267 -0.0561
33930W        W76843  24.490  13.593  17.511 -0.1237 -0.5800  0.0038
33931W        W76844  33.383   8.603  22.058  0.0206  0.1138 -0.0710
33932W        W76845  23.531   7.899  23.181  0.0313 -0.3450 -0.0003
33933W        W76846  32.076   9.894  20.570 -0.0067  0.0414  0.0199
33934W        W76847  34.288  13.464  24.563  0.2387 -0.0116  0.2365
33935W        W76848  22.902   9.323  14.236 -0.0027 -0.2193  0.1500
33936W        W76849  24.187  24.823  16.444  0.0988 -0.0579  0.1740
33937W        W76850   6.127  19.221  27.713 -0.1243 -0.4027 -0.3873
33938W        W76851  32.903  11.960  18.327  0.1709 -0.1716 -0.3407
33939W        W76852  25.814   1.170  17.270  0.3377  0.1768  0.0155
33940W        W76853   6.823  18.098  13.451  0.0980 -0.2336 -0.3095
33941W        W76854  16.879   5.207  22.860 -0.0236 -0.0639 -0.1474
33942W        W76855   2.270   9.811  21.183 -0.1245  0.1575  0.1404
33943W        W76856  32.410   3.181  21.493  0.0355 -0.0152  0.0943
33944W        W76857   4.258  13.773  24.040  0.3216  0.0756 -0.0792
33945W        W76858  30.321   8.909  14.797 -0.1570 -0.0544  0.0826
33946W        W76859  30.314  17.875  15.186 -0.2565  0.0887 -0.0129
33947W        W76860  30.257   7.791  16.067  0.2739  0.1560  0.0408
33948W        W76861  28.424  13.691  20.279  0.1857 -0.2405  0.0249
33949W        W76862  25.834   7.547  19.658 -0.2107  0.0174  0.0175
33950W        W76863  31.406  17.285  17.152 -0.0731  0.3535 -0.0815
33951W        W76864  22.833  15.524  23.901  0.1061  0.1406 -0.1508
33952W        W76865  33.150   3.140  17.089 -0.1254  0.2347  0.0289
33953W        W76866   0.116   7.158  20.512  0.2338  0.0018  0.0491
33954W        W76867  19.780  14.518  21.472  0.2243  0.1218  0.0380
33955W        W76868  29.365   6.117  15.056  0.2652  0.0215 -0.0468
33956W        W76869  33.684   7.841  18.527  0.0336  0.1675  0.0479
33957W        W76870   4.865   5.916  26.820  0.0332  0.2519 -0.2170
33958W        W76871  32.042  14.061  20.953  0.0429 -0.0585  0.2905
33959W        W76872  24.419   6.530  28.471  0.0441 -0.1046 -0.0395
33960W        W76873  19.926   6.006  17.653  0.2885  0.0875 -0.0430
33961W        W76874  31.199  13.431  15.463  0.1190 -0.2336 -0.1666
33962W        W76875  26.947   6.293  20.406 -0.3465  0.0364  0.0757
33963W        W76876  21.919   2.563  17.017  0.1382  0.1845  0.2547
33964W        W76877  31.982   7.474  20.359  0.1185  0.0663  0.0991
33965W        W76878  25.994  14.414  16.761 -0.0263 -0.0719  0.0040
33966W        W76879  27.864   6.195  25.301 -0.0619  0.0096 -0.0360
33967W        W76880  32.471  11.836  24.575 -0.0548  0.0724 -0.2641
33968W        W76881  31.986  11.121  16.919  0.0060 -0.0741  0.2584
33969W        W76882  30.315   0.177  22.433 -0.1006  0.0085 -0.2895
33970W        W76883  29.919   7.832  16.997  0.0098  0.0633  0.1360
33971W        W76884   0.078   3.088  16.678  0.2164 -0.1894  0.3251
33972W        W76885  27.342  12.076  16.020 -0.0346 -0.3316 -0.0821
33973W        W76886   7.790  11.601  17.823 -0.1452  0.0125  0.1223
33974W        W76887  33.673   5.195  15.860 -0.0337 -0.1828  0.1468
33975W        W76888  28.788  17.795  15.527  0.0107  0.0396  0.0245
33976W        W76889  27.503   6.230  18.082  0.1010 -0.1976 -0.0272
33977W        W76890   7.126  27.511  15.553  0.2907 -0.0615  0.0316
33978W        W76891  27.695  14.076  26.966  0.2764 -0.1344 -0.4164
33979W        W76892  26.096   3.443  24.673 -0.2068  0.1033  0.2024
33980W        W76893  32.364   8.205  16.471 -0.0781 -0.0430 -0.1934
33981W        W76894  27.850   5.581  18.869  0.3430 -0.0983  0.0928
33982W        W76895  25.411  13.037  13.831  0.0360  0.0023 -0.2212
33983W        W76896  32.811  12.213  20.661 -0.0125 -0.1629  0.3086
33984W        W76897  32.306  13.467  14.994  0.2591  0.0232 -0.1795
33985W        W76898   2.224  14.494  25.070  0.0056 -0.2498  0.1386
33986W        W76899  20.694  12.570  17.836  0.1284  0.1366  0.0037
33987W        W76900  25.253  15.307  20.456  0.0241 -0.3221 -0.0739
33988W        W76901  33.229  18.186  20.855  0.1747 -0.0032  0.4116
33989W        W76902  32.500  30.370  15.502  0.1049  0.1516 -0.0481
33990W        W76903   1.312  14.764  16.799  0.0706  0.0197 -0.1387
33991W        W76904  26.082  32.264  14.158 -0.0757 -0.1717 -0.2427
33992W        W76905  26.507   9.815  13.526 -0.1640 -0.0100 -0.3111
33993W        W76906  25.260  12.700  18.025  0.3106  0.0100 -0.1987
33994W        W76907  29.022  13.358  13.301 -0.2956  0.2557 -0.3510
33995W        W76908  31.346  21.645  17.815  0.1015 -0.2723  0.0770
33996W        W76909   4.250  29.991  28.372 -0.2308  0.1115 -0.3309
33997W        W76910  23.476  15.722  19.448  0.2523  0.0236  0.1335
33998W        W76911  29.527  11.067  24.347  0.0579 -0.0528 -0.3046
33999W        W76912  34.114  34.342   0.811 -0.3218 -0.1608  0.3578
34000W        W76913  16.696  12.877  21.500  0.0418  0.0367  0.0186
34001W        W76914   4.303  16.938  27.823  0.4990 -0.2291  0.1466
34002W        W76915  26.893  10.798  17.363  0.1333 -0.0447 -0.0752
34003W        W76916  28.815   9.359  20.037 -0.1598  0.1079  0.3079
34004W        W76917  27.623   5.183  23.936  0.1824 -0.1682  0.1478
34005W        W76918  28.056  21.562  27.771  0.0132  0.0273  0.0002
34006W        W76919  21.861  12.188  27.592 -0.3247  0.0529 -0.1740
34007W        W76920  28.766   7.337  18.886 -0.2166  0.1969  0.1851
34008W        W76921  30.805   1.665  19.322 -0.0085 -0.0794 -0.0756
34009W        W76922  26.590   4.463  21.049 -0.1631  0.0971 -0.2399
34010W        W76923  34.188   0.952  20.852  0.1778  0.2325 -0.1711
34011W        W76924  29.066   1.161   1.550 -0.3187 -0.1262  0.0124
34012W        W76925  21.041  11.469  19.464  0.0053  0.4607  0.0327
34013W        W76926  21.551   0.201  19.308 -0.0411  0.0081  0.0983
34014W        W76927  33.084   5.330  21.850 -0.0121  0.1737  0.2653
34015W        W76928   1.975   1.275  20.074 -0.0776 -0.1460  0.4019
34016W        W76929  25.797   4.167  16.393  0.4319  0.0492 -0.2928
34017W        W76930   0.998   8.206  22.318  0.3472 -0.0152  0.5885
34018W        W76931  33.415  13.791  15.724 -0.0169 -0.0216 -0.1423
34019W        W76932  34.257  13.782  22.054  0.2797 -0.2558  0.0412
34020W        W76933  29.230  20.370   0.240  0.0810 -0.1364  0.1984
34021W        W76934  30.648  14.468  18.925 -0.0036 -0.4318 -0.1808
34022W        W76935  30.314  12.142  23.795 -0.1606 -0.1825 -0.1587
34023W        W76936  33.926  13.660  24.151 -0.1596  0.0239 -0.1129
34024W        W76937  13.685  25.397  21.714  0.1470  0.0615 -0.0983
34025W        W76938  26.134  11.049  24.081 -0.2925  0.2621  0.2422
34026W        W76939   1.260  15.261  17.591 -0.1369  0.4580  0.2332
34027W        W76940  22.221  17.508  22.173  0.1600  0.0463 -0.0371
34028W        W76941  26.602  10.724  19.150  0.2141 -0.0813  0.1008
34029W        W76942  29.206   9.841  18.464 -0.0569  0.2127  0.1234
34030W        W76943  25.063  16.879  14.590 -0.0223 -0.0454 -0.2488
34031W        W76944  32.439  14.280  19.593  0.0322 -0.1365 -0.0595
34032W        W76945   0.260   6.648  25.033  0.1839 -0.2725 -0.2052
34033W        W76946   2.321  25.685   8.159 -0.2247 -0.0555 -0.2252
34034W        W76947  27.902  15.864  23.457  0.1893  0.4061 -0.2732
34035W        W76948   0.742   6.866  16.819  0.0041 -0.1134  0.1693
34036W        W76949  27.105  22.564  28.162 -0.1062 -0.0483 -0.0867
34037W        W76950   4.300  10.571  21.128 -0.2687 -0.2158  0.0882
34038W        W76951   2.184  11.549  14.685  0.0562  0.0979 -0.0200
34039W        W76952  31.697   8.016  19.520 -0.0881  0.3949 -0.1178
34040W        W76953  30.415   8.248  16.120 -0.0384 -0.4598  0.3622
34041W        W76954   2.504  24.517  19.788 -0.3596 -0.1853 -0.1532
34042W        W76955  27.716   0.894  22.457 -0.2415  0.0397 -0.0008
34043W        W76956   1.053   6.699  19.176  0.0712 -0.0818 -0.0917
34044W        W76957  22.348   0.171  28.195 -0.0342 -0.2031  0.0242
34045W        W76958  23.611   0.012  26.910 -0.2031 -0.0236 -0.2408
34046W        W76959  22.894  32.743  28.013  0.0273  0.0064  0.5384
34047W        W76960  23.008   4.779  24.384  0.1297 -0.0033  0.2937
34048W        W76961   4.854  15.141  14.935  0.4002 -0.2926 -0.1565
34049W        W76962  17.564   9.042  19.109  0.0922  0.0166 -0.0585
34050W        W76963   0.891  12.302  16.167 -0.0045  0.0641  0.1888
34051W        W76964  23.953   3.173   1.594  0.0401  0.2899 -0.0764
34052W        W76965  32.119  13.795  23.593 -0.0023  0.1652 -0.0739
34053W        W76966  23.141  12.553  21.901  0.0409 -0.1857  0.2850
34054W        W76967   1.369  12.898  14.574  0.1525  0.2985  0.1138
34055W        W76968  32.630  10.114   6.330  0.2717 -0.1280 -0.5345
34056W        W76969  31.446  24.196  21.759 -0.2596  0.1390  0.0858
34057W        W76970  26.906  13.290  23.904 -0.0350 -0.0024 -0.0862
34058W        W76971  25.345   8.641  20.306 -0.1050  0.1342  0.0216
34059W        W76972  21.785  16.971  25.674  0.0636 -0.2343 -0.1978
34060W        W76973  27.688   8.608   0.838  0.0241  0.2246 -0.0688
34061W        W76974  25.984   2.958  17.350 -0.0611  0.2306 -0.0195
34062W        W76975  18.673  14.401  21.330  0.1470  0.2091 -0.1775
34063W        W76976  26.730  14.244  20.542  0.1546  0.4403 -0.0828
34064W        W76977  21.894   7.143  16.836 -0.1895  0.1231 -0.0408
34065W        W76978  28.951  19.043  29.176  0.1348 -0.1696  0.2111
34066W        W76979  11.387   5.390  19.850 -0.0563  0.0565  0.0578
34067W        W76980  27.474  17.497  25.051 -0.2185  0.2578 -0.2094
34068W        W76981  33.855   8.260   3.588  0.0060  0.0902 -0.0491
34069W        W76982  28.815   9.157   0.593 -0.0375 -0.1123  0.3317
34070W        W76983  21.999   9.466  20.641 -0.1348  0.2663  0.0819
34071W        W76984  24.729  12.252  15.571 -0.0881 -0.0866 -0.0379
34072W        W76985  21.557   1.766  21.888  0.0792 -0.1160 -0.0384
34073W        W76986  27.786   3.732  17.188  0.1203 -0.2490  0.3005
34074W        W76987   5.629   7.954  17.739 -0.3492 -0.0732  0.1531
34075W        W76988  29.721   6.613  15.113 -0.0821  0.1316  0.0712
34076W        W76989  30.573   6.541  16.509  0.0091 -0.0289 -0.0578
34077W        W76990   1.338  14.552   4.388 -0.1192 -0.1296  0.0843
34078W        W76991  24.975  12.122  20.878 -0.0393  0.0138  0.1931
34079W        W76992  32.905   2.654  28.539 -0.1084 -0.2199  0.0499
34080W        W76993  10.146   6.098  24.665 -0.1531 -0.2807  0.0342
34081W        W76994  29.895  14.201  22.140 -0.0883 -0.0387 -0.3138
34082W        W76995  29.742   2.972  17.431  0.0914  0.0723  0.0844
34083W        W76996  20.196   8.658  17.092 -0.4442  0.2059  0.0740
34084W        W76997  16.752   1.858  24.402  0.3057 -0.0554 -0.2251
34085W        W76998  22.070   0.344  27.632  0.1186  0.2010  0.1667
34086W        W76999   4.727   6.507   2.235 -0.0736  0.1907 -0.2395
34087W        W77000  26.262   7.397  19.861 -0.2022  0.2379  0.0049
34088W        W77001  23.940   5.538  16.472 -0.0184 -0.1702  0.2594
34089W        W77002  22.464   1.391  22.726  0.0048  0.1203 -0.3046
34090W        W77003  30.184   6.643  22.452  0.2592 -0.2716 -0.3024
34091W        W77004   0.225  33.548  24.342 -0.3289 -0.2336 -0.1236
34092W        W77005   6.220   3.421  26.020 -0.1974 -0.4475  0.0214
34093W        W77006   8.478   7.887  25.265 -0.0555 -0.0561  0.1356
34094W        W77007  26.089  13.974  16.889  0.2020 -0.0287  0.2979
34095W        W77008  20.890  12.235  26.694 -0.3391 -0.2317  0.2385
34096W        W77009  26.233   7.264  21.589  0.1896  0.0192 -0.3230
34097W        W77010   3.874  25.806  24.580 -0.0461  0.0081 -0.1434
34098W        W77011  23.819  17.797  14.339  0.2487 -0.0996  0.1280
34099W        W77012   3.620  17.031  15.536 -0.1112  0.2537  0.2443
34100W        W77013   6.363   0.447  18.073  0.2881 -0.0327 -0.1812
34101W        W77014   2.717   3.294  27.002  0.1154  0.0498 -0.2712
34102W        W77015  28.386   8.255  17.940 -0.1285  0.0053  0.0555
34103W        W77016  29.491   3.629  19.790 -0.0943 -0.0723  0.1288
34104W        W77017  28.306   9.182  16.201  0.0792  0.0081 -0.1083
34105W        W77018   3.348   2.142  25.031 -0.0006 -0.1378  0.0234
34106W        W77019  17.622  13.862  14.325 -0.0074 -0.1435 -0.0623
34107W        W77020  23.302  14.092  23.605  0.1046  0.0523  0.0327
34108W        W77021  32.119   7.396  24.211  0.2233  0.1055  0.0465
34109W        W77022  20.052   4.145  21.783 -0.0782 -0.1486  0.1573
34110W        W77023  30.911   1.614  28.086 -0.1719  0.0225 -0.0127
34111W        W77024  26.795   6.855  27.321 -0.1485  0.1489  0.3830
34112W        W77025  23.118   9.425  14.664 -0.3533 -0.1134 -0.0059
34113W        W77026   5.029  12.995  22.261  0.0012 -0.2213 -0.1390
34114W        W77027  22.107  16.759  22.088 -0.0856  0.1030 -0.1813
34115W        W77028  26.035   4.061  24.700 -0.1741 -0.2160  0.0009
34116W        W77029   2.803   7.910  18.011 -0.3277  0.0658 -0.1991
34117W        W77030  23.618   0.597   0.774 -0.0017 -0.0622  0.0948
34118W        W77031  27.504   1.236  23.221  0.0954 -0.0527  0.1620
34119W        W77032  29.560  17.085  26.822  0.1379 -0.0156  0.1570
34120W        W77033  28.870   4.774  15.277 -0.1479 -0.4142 -0.1738
34121W        W77034  29.108  21.840  14.012 -0.0909 -0.0861  0.0589
34122W        W77035   9.580  12.563  15.686 -0.1503  0.3685  0.0373
34123W        W77036  27.235   7.640  17.117  0.1959 -0.3234 -0.2235
34124W        W77037  33.033  25.450  18.351  0.1606  0.1248  0.1339
34125W        W77038  27.732  31.723  20.390  0.1309  0.0330  0.0201
34126W        W77039  30.153  15.712  15.547 -0.2065  0.1075  0.1250
34127W        W77040  33.823   9.372  16.035  0.1144 -0.1033  0.0591
34128W        W77041   5.426   4.146  26.210  0.1565  0.0202 -0.1190
34129W        W77042  27.736  15.193  19.580 -0.0812  0.0204  0.0029
34130W        W77043  34.422   6.094  18.293  0.0214 -0.1263 -0.0985
34131W        W77044  33.718  13.338  18.721 -0.1285 -0.1288 -0.1359
34132W        W77045  27.932  33.503  24.748  0.1783 -0.3930  0.1062
34133W        W77046  27.313   5.488  23.499 -0.0685 -0.2453  0.1029
34134W        W77047   7.088   9.238  24.874  0.2529 -0.0373 -0.1587
34135W        W77048  30.223   8.889  20.105  0.0203  0.1283 -0.1761
34136W        W77049  33.911  23.000  24.716 -0.2052 -0.1188  0.2090
34137W        W77050   2.748  19.087  18.071  0.1665  0.0537  0.0370
34138W        W77051  27.128   7.030  20.196  0.1946  0.2993 -0.0228
34139W        W77052  29.714   9.581  21.391  0.2236 -0.0419  0.0840
34140W        W77053  19.860   9.288  21.139  0.3897  0.0910 -0.3721
34141W        W77054  25.255  17.081  22.571  0.2928  0.1547 -0.1256
34142W        W77055  26.840   6.279  21.814  0.3039 -0.0880 -0.1054
34143W        W77056  28.317  10.114  18.075 -0.1587  0.2606 -0.0092
34144W        W77057  31.898  13.948  16.731  0.0290  0.0326 -0.0685
34145W        W77058  29.297  18.753  20.380 -0.0953  0.0585  0.0344
34146W        W77059  28.118   7.389  15.007 -0.0277  0.4357  0.2153
34147W        W77060  27.275   8.528  15.297 -0.1175  0.1980  0.0414
34148W        W77061  16.370  12.469  15.778 -0.0412 -0.0302  0.4688
34149W        W77062  29.472  10.858  23.805  0.0754 -0.3052  0.0993
34150W        W77063  32.903   7.632  21.941  0.2860 -0.0087  0.0653
34151W        W77064   8.855   3.088  18.362  0.3055 -0.1188 -0.0203
34152W        W77065  20.659  11.248  19.268  0.0337  0.1063  0.1850
34153W        W77066  25.424  18.156  16.988 -0.0403  0.1448  0.0932
34154W        W77067  30.121  23.020  15.998  0.1106 -0.0728 -0.0090
34155W        W77068   9.111  10.650  23.641  0.1646 -0.1264  0.0472
34156W        W77069  34.130  13.267  15.505 -0.1288 -0.0245 -0.1592
34157W        W77070  19.823  15.089  15.721 -0.1327 -0.0064 -0.2763
34158W        W77071  28.668   7.666  26.788 -0.0648 -0.3019  0.0852
34159W        W77072  25.683  16.401  28.278 -0.1095  0.0519  0.0027
34160W        W77073  31.250  11.053  16.394  0.1568 -0.1365  0.1202
34161W        W77074  25.422   2.075  18.985 -0.0723  0.0784  0.0293
34162W        W77075   3.191   8.112  22.273  0.2048  0.1639  0.2360
34163W        W77076  33.069  11.888  22.012 -0.3409 -0.2365  0.1741
34164W        W77077  29.474  10.568  23.364 -0.2761 -0.1722 -0.0619
34165W        W77078  12.407  13.523  19.500 -0.2590  0.1202  0.1272
34166W        W77079   7.130  13.048  21.977 -0.0419  0.2800 -0.1159
34167W        W77080  21.498  11.817   3.661  0.0882 -0.1392  0.0799
34168W        W77081  28.709   2.273  24.597 -0.1632 -0.0299 -0.1599
34169W        W77082  33.591  10.622  27.597 -0.2441  0.0565 -0.1878
34170W        W77083  11.234   7.319  23.005  0.1035 -0.2279 -0.2997
34171W        W77084  26.475   1.011  18.195  0.4553 -0.1107  0.1086
34172W        W77085  26.357  12.637  27.557  0.1377 -0.0232  0.0449
34173W        W77086   0.716  14.007  23.076 -0.1142  0.0557  0.2969
34174W        W77087  27.704  14.413  27.939  0.1747 -0.3645 -0.3571
34175W        W77088  32.858  12.270  23.234 -0.1614  0.0841 -0.1144
34176W        W77089  31.861  10.768  17.301 -0.1120 -0.4299  0.1038
34177W        W77090  15.260   7.302  14.373 -0.0983 -0.1982 -0.0266
34178W        W77091  32.941   0.212  16.776 -0.2499 -0.0879 -0.1138
34179W        W77092  30.486  10.144  14.913 -0.0882  0.1302 -0.0757
34180W        W77093   3.528  16.558  21.572  0.0928 -0.0493  0.0759
34181W        W77094  28.571   7.252  23.627 -0.1370 -0.2332 -0.1040
34182W        W77095   2.187  20.977   1.949  0.1062  0.0833  0.0601
34183W        W77096  31.739  15.779  17.817  0.0392  0.0277 -0.0673
34184W        W77097  23.862  12.146  22.389 -0.1856  0.0521  0.0135
34185W        W77098  27.338   9.352  23.697  0.0480 -0.0391  0.2416
34186W        W77099   3.666   4.561  17.241  0.1824 -0.2120  0.1134
34187W        W77100  34.425   5.930  19.165  0.1941 -0.2554  0.2484
34188W        W77101  27.030  14.625  19.234  0.1530  0.0545 -0.2552
34189W        W77102  16.924   4.257  21.999 -0.2120  0.1231 -0.1899
34190W        W77103   0.429  34.231  20.984  0.1799 -0.0165 -0.2636
34191W        W77104   1.055  10.358  15.493  0.1378 -0.1786  0.0626
34192W        W77105  25.223  13.427  25.878 -0.0528  0.1977 -0.4087
34193W        W77106  27.371   7.506  20.183 -0.2654  0.1154 -0.2333
34194W        W77107   2.050   5.706  17.005 -0.0286 -0.0197  0.3447
34195W        W77108  26.417  13.138  13.618  0.1897 -0.1148 -0.1985
34196W        W77109  15.049   7.587  23.406 -0.1216 -0.1894 -0.1966
34197W        W77110  31.354  32.720  24.661  0.2425 -0.1497 -0.0823
34198W        W77111  25.185   3.376  27.690 -0.4569 -0.0752  0.0526
34199W        W77112  33.635   3.191  16.062 -0.0324 -0.5399  0.5007
34200W        W77113  25.475  20.789  14.267  0.0042 -0.0276 -0.0800
34201W        W77114  32.883  10.072  24.887 -0.1066 -0.1245  0.0163
34202W        W77115  28.919  19.472  16.406 -0.2231 -0.1166  0.0158
34203W        W77116  32.744   6.092  29.209 -0.2384  0.2270 -0.3740
34204W        W77117  14.021   4.465  18.033  0.0090  0.0276 -0.2134
34205W        W77118  31.711  12.632  27.416  0.2155 -0.4110  0.0750
34206W        W77119  33.226  28.839  23.530  0.2275  0.2182  0.1715
34207W        W77120   7.248  15.664  15.358  0.3135 -0.0237 -0.0489
34208W        W77121  24.236  14.072  22.631  0.1974 -0.4036 -0.1537
34209W        W77122  30.450   9.310  23.114 -0.0652 -0.1846  0.1931
34210W        W77123  30.986  16.172   4.836  0.0520 -0.1166 -0.2960
34211W        W77124   1.730   7.525  22.701 -0.1039  0.0385  0.3486
34212W        W77125  33.029   4.682  23.041 -0.2166 -0.1414 -0.2210
34213W        W77126  27.133  21.829  15.378  0.0849 -0.0544 -0.0880
34214W        W77127  27.716  32.756  21.750 -0.1332  0.2144  0.1778
34215W        W77128  30.011  19.878  20.584 -0.3929  0.2927  0.0836
34216W        W77129  19.419   9.000  21.646  0.0543  0.0469 -0.0904
34217W        W77130  30.803  13.623  17.545  0.0290  0.2456  0.1849
34218W        W77131   1.105  10.537  16.707  0.2435 -0.0534  0.0160
34219W        W77132  18.240   7.832  14.374 -0.2878 -0.2630 -0.0101
34220W        W77133   9.182  10.210  20.883 -0.0475 -0.3672 -0.0202
34221W        W77134  23.963  16.045  28.894  0.0726 -0.1123  0.3641
34222W        W77135   5.476  14.351  18.717 -0.1815  0.1877  0.0569
34223W        W77136   6.272   3.014  22.486 -0.1142 -0.2931  0.1571
34224W        W77137   6.575  10.800  15.596 -0.2127 -0.0003 -0.0111
34225W        W77138  26.964   7.928  14.602  0.0613  0.0657  0.0651
34226W        W77139  27.685   7.532  24.356 -0.0990  0.0478 -0.0064
34227W        W77140  19.244   7.846  26.513 -0.3082 -0.2277 -0.1906
34228W        W77141  16.508  15.581   2.629 -0.2340 -0.4807 -0.0405
34229W        W77142  31.329   5.734  28.918 -0.1766 -0.1646  0.0304
34230W        W77143   6.100   4.470  19.091 -0.0215 -0.1510 -0.0742
34231W        W77144  32.343   6.000  23.487  0.3117  0.5392  0.1115
34232W        W77145  21.894  20.553  25.132  0.0017 -0.0494  0.0487
34233W        W77146  27.045   9.557  16.438  0.2582 -0.2607 -0.0275
34234W        W77147  32.482   9.948  27.354  0.1589  0.1910  0.1066
34235W        W77148  30.060  13.314  15.109  0.1455 -0.1333 -0.1036
34236W        W77149  27.419  18.378  22.523 -0.0908 -0.1311 -0.1893
34237W        W77150  27.506  13.035  22.738  0.4247  0.1068 -0.1585
34238W        W77151  10.131  23.168  20.685  0.1507  0.3395 -0.2044
34239W        W77152  24.455   7.118  13.400  0.3118  0.1977  0.2838
34240W        W77153  18.226   4.734  27.902  0.0454 -0.1102 -0.4428
34241W        W77154  24.138  33.405  19.639  0.0040 -0.1186  0.2307
34242W        W77155  12.500   8.971  23.838 -0.1510  0.3329  0.0615
34243W        W77156  16.700   5.015  16.703 -0.4463  0.0194  0.0728
34244W        W77157  22.892  15.732  16.834 -0.0629  0.2397 -0.2494
34245W        W77158  24.961  11.642   1.632  0.1238  0.5171  0.4177
34246W        W77159  31.297   3.768  17.900  0.0338 -0.0389  0.1218
34247W        W77160  26.106  12.831  23.486  0.0830  0.2957 -0.2708
34248W        W77161  11.473   4.148  23.431 -0.1627 -0.4891  0.2241
34249W        W77162   5.866   9.561  26.977  0.3924 -0.3108  0.1075
34250W        W77163   0.043   4.377  22.869 -0.1020 -0.1990  0.1789
34251W        W77164   2.105  14.777   0.981 -0.0359 -0.1793 -0.0330
34252W        W77165   0.971  15.208  13.832 -0.0118 -0.4495 -0.3735
34253W        W77166  30.854  31.650  18.917  0.4659  0.3203 -0.2509
34254W        W77167  34.467   1.792  20.174 -0.1492 -0.1497  0.2004
34255W        W77168  32.030  33.543  22.108 -0.3136 -0.0571 -0.0944
34256W        W77169  32.956   9.445  26.951 -0.2882 -0.5675 -0.0686
34257W        W77170  23.993  20.474  12.775  0.1406  0.1880 -0.2676
34258W        W77171  22.001  15.250  18.100  0.2777  0.2035 -0.0814
34259W        W77172  28.302  21.029  14.128  0.3019 -0.0648  0.1782
34260W        W77173  33.887   8.725  15.515 -0.2509 -0.0938 -0.0039
34261W        W77174  30.473  12.541  15.763 -0.1618  0.0956 -0.2123
34262W        W77175   6.907  14.702  15.144  0.1245  0.0417  0.1451
34263W        W77176  24.110  30.358  24.784  0.0882  0.0126 -0.1255
34264W        W77177  24.964  12.939  22.211 -0.1837 -0.0608 -0.0382
34265W        W77178  18.240  28.176  16.121  0.3163 -0.1798  0.0497
34266W        W77179  28.205  14.514  15.167 -0.3598  0.0899 -0.3731
34267W        W77180   8.065   3.744   0.857  0.1604  0.2798  0.0684
34268W        W77181   1.588  11.392  16.288  0.0531  0.1803 -0.0140
34269W        W77182  21.148   4.517  18.091  0.0313  0.0115 -0.0632
34270W        W77183  21.965  10.621  26.010 -0.1829 -0.3075  0.0612
34271W        W77184   0.530  10.720  18.381  0.0745  0.0492  0.0112
34272W        W77185   1.383  14.861  16.167 -0.0114  0.0770 -0.2671
34273W        W77186  20.921   5.715  15.430  0.3274 -0.0693 -0.1414
34274W        W77187  33.405  15.680  27.605  0.2204  0.0316  0.1354
34275W        W77188  29.514   0.582  26.477  0.2376  0.0388 -0.2097
34276W        W77189  29.720   8.892  20.587  0.0590 -0.0695 -0.2997
34277W        W77190  26.888   4.264  15.632 -0.1023 -0.1704  0.0637
34278W        W77191  31.902   3.089   2.099 -0.1162 -0.0714  0.0366
34279W        W77192   1.171   9.477  23.379  0.0001 -0.0286  0.0478
34280W        W77193  24.633  13.663  13.672  0.0860  0.3075 -0.1013
34281W        W77194   0.379   4.980  26.871 -0.1281 -0.2373  0.0880
34282W        W77195  28.243   7.098  23.251  0.0137 -0.2009  0.3160
34283W        W77196  27.260   9.777   0.921  0.0836 -0.2930 -0.1569
34284W        W77197  25.266   7.534  20.240  0.0736 -0.3949 -0.0915
34285W        W77198  34.247   5.302  27.127 -0.0000 -0.3847 -0.0958
34286W        W77199  33.733  10.314  18.170  0.0297 -0.0961 -0.1882
34287W        W77200  28.401   2.576  19.191  0.1787  0.6049  0.0172
34288W        W77201   0.339   4.396   4.302  0.1167  0.0952 -0.2395
34289W        W77202   2.012   3.022  22.098 -0.0737 -0.0490  0.2509
34290W        W77203  32.107  33.176  28.945 -0.2707  0.5504  0.1866
34291W        W77204  24.599  12.260  19.840  0.0398 -0.0959 -0.0382
34292W        W77205  26.222   3.837  22.235 -0.1921 -0.1379 -0.0640
34293W        W77206  22.223  12.556  25.964  0.0333 -0.2560 -0.2775
34294W        W77207  24.810   2.934  18.829 -0.1906  0.0456  0.1353
34295W        W77208  33.784  33.481  18.337  0.1662  0.0924 -0.0198
34296W        W77209  27.848  12.564  17.741 -0.2928  0.0321  0.2100
34297W        W77210  30.028   1.125  27.057  0.0503  0.1577 -0.0770
34298W        W77211  27.172  14.579  15.748 -0.4628 -0.1497 -0.0185
34299W        W77212  31.726   2.354  18.243 -0.2268 -0.2258  0.0132
34300W        W77213  30.472   3.234   1.965  0.1031 -0.0292 -0.2087
34301W        W77214  21.685  10.042  23.591 -0.1057  0.2080 -0.0441
34302W        W77215  21.748   6.952  17.797 -0.1886  0.0270  0.0521
34303W        W77216  33.478   9.787  23.160 -0.1628  0.0866 -0.1353
34304W        W77217  30.741   7.624  19.989  0.3533 -0.2208 -0.1263
34305W        W77218  30.982  15.414  27.639  0.3086  0.2395 -0.2165
34306W        W77219  21.263  13.293  23.277  0.0464 -0.3729 -0.1484
34307W        W77220  20.238   6.193  26.665 -0.0869  0.2648 -0.1553
34308W        W77221  28.958  12.485  23.067  0.2031  0.0484 -0.1954
34309W        W77222  31.358  12.351  24.092  0.1694  0.1274 -0.0746
34310W        W77223   2.953   6.470  20.335  0.1279  0.2542  0.1786
34311W        W77224  31.035   9.163  22.300  0.0370  0.2048 -0.2782
34312W        W77225  34.058  17.675  21.634 -0.1854 -0.1494  0.2878
34313W        W77226  25.447   2.707  17.178 -0.3850  0.4823 -0.2877
34314W        W77227  31.352   6.920  19.774 -0.1723 -0.2765  0.1859
34315W        W77228  29.833   9.432  28.730 -0.2709  0.0497 -0.1835
34316W        W77229  33.761  33.338  19.017  0.0256 -0.0771 -0.1183
34317W        W77230  22.361   6.822  18.561 -0.0962  0.0025  0.0245
34318W        W77231  23.606  12.908  18.776 -0.0363  0.4587  0.0208
34319W        W77232  15.172  14.307  28.788  0.0706 -0.0111 -0.0423
34320W        W77233   1.425   6.953  29.197 -0.0842  0.1870  0.1073
34321W        W77234  30.245  12.745  17.309  0.1285  0.1218 -0.0830
34322W        W77235  29.213   8.768  27.252  0.1113 -0.5652  0.1914
34323W        W77236  27.916  18.005  14.186 -0.0620 -0.1953  0.0509
34324W        W77237  29.520  32.998   0.272 -0.2463 -0.2147 -0.0025
34325W        W77238  33.431   2.027  20.512  0.1412  0.1523  0.0022
34326W        W77239  25.436  14.389  27.315  0.2209  0.0095  0.0894
34327W        W77240   4.403   8.831  20.507 -0.3093 -0.2743 -0.1819
34328W        W77241  26.558  10.744  24.198  0.0600  0.1087  0.3116
34329W        W77242  28.888   3.934  22.385  0.2546  0.2936 -0.2325
34330W        W77243  32.009   8.580  22.417 -0.0719 -0.5610  0.0511
34331W        W77244  23.489  12.411  18.501  0.3340  0.3348  0.2190
34332W        W77245   2.017  14.372   0.094 -0.2158  0.0751 -0.4357
34333W        W77246   3.254  21.541  25.787 -0.1575 -0.2037  0.2408
34334W        W77247  21.560   1.576   1.337 -0.0311  0.4111 -0.1662
34335W        W77248  30.564  20.981  13.637 -0.0612  0.0678 -0.3575
34336W        W77249  29.443   9.614  25.742 -0.0441  0.0792  0.0576
34337W        W77250  18.403   8.101  23.272 -0.3761 -0.0308 -0.0978
34338W        W77251  25.435   1.093  28.916  0.2633  0.1165 -0.1617
34339W        W77252   0.422   5.054  21.790 -0.0568  0.2810 -0.0302
34340W        W77253  14.394  10.251  26.930 -0.0410  0.0177 -0.0569
34341W        W77254  27.926  19.084  22.842  0.0194 -0.1787  0.1216
34342W        W77255  20.931   8.012  20.030  0.1190  0.2596 -0.0761
34343W        W77256   6.804   0.389  23.591 -0.1605 -0.1060  0.0845
34344W        W77257  28.487  11.572  23.214 -0.0720  0.0382 -0.0052
34345W        W77258  25.455   9.281  24.598  0.3798  0.1777 -0.0080
34346W        W77259  26.910  20.742  17.638  0.1027  0.0069  0.1359
34347W        W77260  23.570  10.683  15.264  0.0030  0.1331  0.0567
34348W        W77261  25.718  10.794  14.348 -0.1217 -0.0690  0.1227
34349W        W77262  31.320  14.737  24.041 -0.2124 -0.1108 -0.1002
34350W        W77263  29.983  11.949  13.614 -0.0609  0.0584 -0.0845
34351W        W77264   2.246   7.155  22.090 -0.2563 -0.0667  0.0178
34352W        W77265  27.636  14.046  16.423  0.0524 -0.2178 -0.4490
34353W        W77266  21.444   9.346  27.692 -0.2106  0.0076 -0.0890
34354W        W77267  23.051  12.912  17.336 -0.1196 -0.1586  0.0047
34355W        W77268   2.555  32.470  26.275  0.1812 -0.1243  0.1963
34356W        W77269  33.890   8.315  21.973  0.0867  0.5307 -0.0886
34357W        W77270   5.229  20.302   0.777 -0.1445  0.2208  0.2942
34358W        W77271  10.975   8.782  28.187 -0.2646 -0.0623 -0.0013
34359W        W77272  31.770  34.381  19.802 -0.1941  0.1003 -0.2084
34360W        W77273  27.745   6.440  20.759  0.2140 -0.0247 -0.1814
34361W        W77274   0.330  13.640  28.787  0.2465 -0.2911 -0.1633
34362W        W77275  33.956   6.940  18.649 -0.3714 -0.0127  0.2603
34363W        W77276  29.721   6.577  22.736  0.5044 -0.4490  0.3087
34364W        W77277   4.443   6.676  20.453 -0.1016  0.2745 -0.1158
34365W        W77278  23.282  13.009  16.509 -0.0315 -0.2434  0.4754
34366W        W77279  25.684  11.674  26.900 -0.1228 -0.1198 -0.2118
34367W        W77280  31.041   8.162  18.658 -0.1232  0.0211 -0.3134
34368W        W77281  29.194   8.509  24.519  0.1606 -0.3088 -0.1372
34369W        W77282  29.334  18.705  14.263 -0.0984 -0.0287  0.0229
34370W        W77283  20.612  13.486  21.332 -0.1793 -0.1625  0.0166
34371W        W77284  21.307  18.550  15.634  0.1555  0.0339 -0.2107
34372W        W77285  33.943   2.166  22.506  0.0842  0.0350 -0.1530
34373W        W77286  31.845   0.870  27.459  0.0735 -0.1249  0.0641
34374W        W77287  29.606   4.228  14.847  0.1377  0.1347  0.1006
34375W        W77288  27.621   7.166   2.169  0.4276 -0.0291 -0.1588
34376W        W77289  26.347  16.966  19.563  0.0147  0.0148  0.0485
34377W        W77290  29.302   5.446  26.070 -0.2365 -0.0811  0.1536
34378W        W77291  30.592   3.022  17.443 -0.0722 -0.1141 -0.0336
34379W        W77292   7.171  17.198  25.216  0.1230 -0.1378 -0.0391
34380W        W77293  33.176  16.584  25.382 -0.0644  0.2002 -0.1693
34381W        W77294   2.349  10.638  16.106 -0.2351 -0.0916 -0.0525
34382W        W77295  25.139   4.078  25.479  0.1786 -0.2806 -0.3055
34383W        W77296  28.231   6.367  14.910  0.1601  0.2390 -0.2784
34384W        W77297  30.521   9.242  22.314  0.2683  0.1936  0.3940
34385W        W77298  33.023   6.850  18.851 -0.1815 -0.0462 -0.3735
34386W        W77299  14.646   5.640  16.567 -0.2390 -0.1446  0.0046
34387W        W77300  26.214   1.850  25.293 -0.1298  0.2199  0.0031
34388W        W77301  25.759  14.578  14.956  0.0530 -0.1514 -0.3370
34389W        W77302  32.111   6.255   0.758  0.1646  0.1376 -0.3515
34390W        W77303  23.846  10.274  23.522  0.1140 -0.2288  0.1365
34391W        W77304  21.815   5.564  29.202 -0.0427  0.0473  0.0164
34392W        W77305  30.581  14.716  15.919 -0.2131 -0.1816  0.1693
34393W        W77306  23.660   5.649   1.922  0.1007  0.0342 -0.0293
34394W        W77307  30.530   6.141   4.741 -0.0815  0.0640 -0.2260
34395W        W77308   1.808  26.071   4.307  0.0065  0.2586  0.3276
34396W        W77309   0.808   5.555   1.050 -0.1832  0.2014  0.1676
34397W        W77310  29.947   3.004  25.830  0.0884 -0.2520  0.1755
34398W        W77311  29.004  11.433  20.653  0.0495 -0.4140  0.0833
34399W        W77312  25.522   9.052   3.705  0.1015  0.1200 -0.0442
34400W        W77313  26.738   9.959  27.815  0.0211  0.1224 -0.0808
34401W        W77314  26.187  11.969  14.909 -0.2026  0.2454 -0.1232
34402W        W77315   0.395   8.911  26.988  0.2177  0.3020 -0.1889
34403W        W77316  30.432   2.252   1.711 -0.0498  0.0572  0.3025
34404W        W77317  26.091   5.308   1.994  0.1118  0.2666 -0.1001
34405W        W77318  24.833   5.132  28.152  0.0159  0.3480  0.3617
34406W        W77319  20.856  34.214  22.083 -0.0755 -0.0369  0.2577
34407W        W77320   6.431   5.653  25.134 -0.2253 -0.2806 -0.0810
34408W        W77321  22.940  17.036   4.069  0.0285  0.0462  0.1261
34409W        W77322  20.722   7.001  22.303 -0.2577 -0.1977 -0.1909
34410W        W77323  30.914   8.235  27.879  0.0485 -0.1589  0.3630
34411W        W77324  24.232  23.063  22.890  0.0507  0.3806  0.0761
34412W        W77325  33.112  32.688  19.962 -0.1746 -0.1904  0.0993
34413W        W77326  26.452   8.065  25.552  0.0896  0.0673  0.0144
34414W        W77327  25.304  12.063  28.144  0.0821 -0.2583  0.1816
34415W        W77328  22.458   3.068  27.588 -0.1449 -0.0181 -0.1193
34416W        W77329   1.761   8.440   5.468  0.3037  0.0685  0.0422
34417W        W77330   1.072  19.745   5.215  0.2194  0.1117  0.1618
34418W        W77331  32.105  34.220  28.057 -0.0444  0.0979 -0.0261
34419W        W77332  24.603  12.837  27.014 -0.3375 -0.3205 -0.0708
34420W        W77333  23.608  33.294  22.974 -0.1926  0.3871 -0.1589
34421W        W77334  26.009  17.308   0.438 -0.2102  0.2960 -0.1852
34422W        W77335  21.025  18.707  26.138 -0.0722  0.0255 -0.2168
34423W        W77336  34.011   5.080   9.802  0.2922  0.3749  0.0752
34424W        W77337  33.792   4.282  17.251  0.1075  0.0849 -0.6637
34425W        W77338  25.632   9.493   3.910  0.0877 -0.1237  0.2555
34426W        W77339  22.524  16.957  14.160  0.2432 -0.1951  0.3488
34427W        W77340  26.739   6.062   1.470  0.2456 -0.3223 -0.0718
34428W        W77341  21.152   8.453  24.320 -0.0277 -0.0376  0.2876
34429W        W77342   0.042   0.179   3.648  0.0250  0.0808 -0.4490
34430W        W77343  28.533  28.369  25.560 -0.0733 -0.0759  0.2321
34431W        W77344  31.560   5.691  27.466  0.0843 -0.0728  0.0453
34432W        W77345  23.582   0.445  14.324  0.1359  0.1558 -0.0820
34433W        W77346   8.182  32.586   6.551  0.2311 -0.1182  0.0798
34434W        W77347  29.703  10.288   0.192  0.3329 -0.1705  0.2163
34435W        W77348  23.097  14.736  22.954 -0.1906  0.0708  0.1121
34436W        W77349  29.275  11.912  23.005  0.3035  0.1976  0.1871
34437W        W77350   8.392  11.990  23.262 -0.2060 -0.0146  0.0525
34438W        W77351  31.611  14.299   1.032 -0.1378  0.0028  0.0279
34439W        W77352   6.266  10.479  23.334 -0.0125  0.1853 -0.0949
34440W        W77353  23.672   6.925  25.255 -0.2636  0.0480  0.0125
34441W        W77354  22.604   7.819  26.525  0.0409 -0.3314 -0.1902
34442W        W77355  20.560  23.238  22.235 -0.2610  0.3598 -0.0820
34443W        W77356  28.634  19.083  15.628  0.0288 -0.0758  0.1249
34444W        W77357  28.143  12.699  23.355 -0.1381  0.0732  0.0153
34445W        W77358   0.970  23.412  29.044 -0.1415 -0.0201  0.1798
34446W        W77359  28.532   8.834  24.451  0.0289  0.2446  0.0052
34447W        W77360  22.647   8.187  13.945  0.2428 -0.0268 -0.0151
34448W        W77361  28.753  15.638  28.073 -0.0389  0.1606  0.0632
34449W        W77362  34.350   7.597  26.018 -0.2265 -0.2318  0.2757
34450W        W77363  21.113   5.903  21.501  0.2635 -0.2867 -0.1415
34451W        W77364  31.823   1.853  28.871  0.1129  0.0817  0.2969
34452W        W77365  28.428   6.672  21.883  0.1532  0.1590 -0.2338
34453W        W77366  24.071  16.784  26.129  0.1047 -0.0114  0.0820
34454W        W77367  27.626  19.360  23.398  0.0293  0.1358 -0.3335
34455W        W77368  33.164  11.328   2.731  0.3004  0.0793 -0.1006
34456W        W77369  17.451   4.971   5.840 -0.0192  0.2257  0.0990
34457W        W77370  25.516   6.191   2.171  0.0485  0.3545 -0.2046
34458W        W77371   1.368  14.759  14.814 -0.0197  0.0478 -0.0341
34459W        W77372  29.142  32.239  23.766  0.1720  0.0877  0.1867
34460W        W77373  27.298  20.633  28.058 -0.0389  0.0821 -0.0018
34461W        W77374  31.996  10.265  24.933  0.0440 -0.1401  0.0120
34462W        W77375  26.352   0.708  28.803  0.1897 -0.1104 -0.1807
34463W        W77376  26.892  18.517  14.413  0.0287  0.1093  0.2489
34464W        W77377  26.644   0.895  19.712  0.0403  0.2128 -0.1375
34465W        W77378  28.824  14.650  15.842  0.1479  0.3318 -0.0549
34466W        W77379  29.524  15.821  23.064  0.0584  0.1476 -0.2883
34467W        W77380  22.199  11.749  16.164 -0.0202 -0.1318  0.0622
34468W        W77381  27.329  28.190  23.526  0.0594 -0.2097  0.1630
34469W        W77382   0.300  12.348   0.055  0.0834 -0.1431  0.0707
34470W        W77383  34.146  14.331  17.237  0.0867 -0.0796  0.0120
34471W        W77384  30.469   7.179   3.516  0.3502 -0.0702  0.0039
34472W        W77385  29.669  17.638   0.077  0.4644 -0.0396  0.0295
34473W        W77386  23.728   7.222  28.327 -0.0041  0.0330  0.2604
34474W        W77387  32.680  10.086  20.664  0.0253  0.1019  0.2468
34475W        W77388  31.135  11.492  24.306  0.2124 -0.0286 -0.0866
34476W        W77389   6.800   9.808  23.357 -0.1887  0.1235  0.1332
34477W        W77390  32.859  15.077   1.050  0.0739 -0.0530 -0.0579
34478W        W77391  25.623  12.950  27.032 -0.0088 -0.1142  0.0974
34479W        W77392  31.423  14.727  24.814 -0.1451  0.1011  0.1588
34480W        W77393  25.917  13.888  19.066 -0.2718 -0.3402 -0.3232
34481W        W77394  27.708   8.112  27.787 -0.0600 -0.1512  0.0232
34482W        W77395   2.316   3.246  20.977  0.0027 -0.1523  0.0782
34483W        W77396  26.696   7.389  23.219 -0.0744  0.0441  0.0422
34484W        W77397  18.178  10.350  17.653  0.0078 -0.2271  0.1827
34485W        W77398  32.173   1.079  18.462  0.0034  0.1107 -0.0602
34486W        W77399  32.837   2.135  24.091 -0.0635 -0.1112 -0.3131
34487W        W77400  27.043  12.660  19.727 -0.0234  0.3938  0.1188
34488W        W77401  23.792  26.052  28.398 -0.0958 -0.1233 -0.3123
34489W        W77402   2.149   6.493  21.181 -0.0197 -0.1358  0.1580
34490W        W77403  25.995  16.739  23.811  0.0501 -0.0784  0.0789
34491W        W77404  27.839   2.821  25.921  0.2204  0.3406  0.0886
34492W        W77405  21.898  10.010  15.654  0.3219  0.4527 -0.0579
34493W        W77406  30.073  13.261   0.943 -0.1278 -0.1439  0.1105
34494W        W77407   7.782   3.157  20.913  0.0089  0.0935 -0.0161
34495W        W77408  11.174   4.260  19.187 -0.4749  0.1780 -0.2664
34496W        W77409  22.256  34.095  23.544  0.1685 -0.3221 -0.2738
34497W        W77410  16.643   8.293  17.771 -0.2191 -0.1771  0.0080
34498W        W77411  24.312  10.627  22.855  0.0916  0.2109 -0.0781
34499W        W77412   0.416  27.138  15.474 -0.0383  0.2285  0.2100
34500W        W77413  26.520  17.978  23.713 -0.2402 -0.1311  0.2234
34501W        W77414  23.518   8.490  26.030  0.3102 -0.0132 -0.0294
34502W        W77415  29.547   9.533  18.278 -0.0871  0.1192 -0.1330
34503W        W77416  32.920   6.364   4.734  0.0251  0.0487  0.0644
34504W        W77417  29.671   9.717  14.941  0.0929  0.0735 -0.0690
34505W        W77418  32.654  15.614  24.506  0.0693  0.0093 -0.2383
34506W        W77419  28.231  16.226  20.970  0.1743  0.1216  0.1601
34507W        W77420   0.886   1.603  19.735 -0.0799 -0.3414  0.2943
34508W        W77421   2.679  16.634   2.498 -0.1632  0.0980  0.4150
34509W        W77422   2.040  16.101  28.608  0.0857  0.1952  0.0295
34510W        W77423   4.048  10.024  29.317 -0.3703  0.0489 -0.1294
34511W        W77424   2.785  10.335   5.732  0.0943  0.5309 -0.1001
34512W        W77425  32.107  20.744  28.236  0.0716 -0.3034  0.0496
34513W        W77426   6.108   3.396  28.074  0.1672  0.1417 -0.0188
34514W        W77427   3.517  31.694  24.403  0.1401  0.2970 -0.0236
34515W        W77428  26.955  12.273  28.977  0.1254 -0.1779 -0.2809
34516W        W77429   0.834  15.498   2.645 -0.0790 -0.1919 -0.1501
34517W        W77430  28.384  31.825  21.074 -0.1878 -0.0844  0.0535
34518W        W77431  29.520   8.615  24.856  0.0291  0.2687  0.1983
34519W        W77432   5.975   8.913  18.852 -0.2241 -0.0091 -0.1336
34520W        W77433  32.317  10.989  25.955 -0.3032 -0.2211 -0.0687
34521W        W77434  30.448  10.907  22.656  0.0832 -0.1546 -0.2854
34522W        W77435  22.273   6.403   6.010 -0.1171 -0.1845  0.2834
34523W        W77436  26.700   7.127  28.912  0.0924  0.0038  0.3995
34524W        W77437  32.711  14.591  29.419 -0.0601  0.3020 -0.0907
34525W        W77438  27.764  16.103  24.393 -0.1444  0.1188 -0.0444
34526W        W77439  34.169  12.124  24.695  0.1794  0.0491 -0.0893
34527W        W77440  25.927  11.745  25.593 -0.0441 -0.3402 -0.1176
34528W        W77441  34.401   8.274  17.809 -0.2314 -0.4352 -0.0426
34529W        W77442  28.268  11.186  27.241 -0.2948  0.0581  0.1360
34530W        W77443  26.847  19.062  28.850 -0.2973 -0.0809 -0.2189
34531W        W77444  32.589  33.560  18.138  0.1367  0.1528 -0.0407
34532W        W77445  16.818   8.399  25.076 -0.0701 -0.3294  0.0480
34533W        W77446   3.555  19.449  29.640  0.1541 -0.3340  0.1205
34534W        W77447  20.907   4.750  14.357  0.1786 -0.0102 -0.1956
34535W        W77448  29.700  11.123  27.770  0.3955  0.1429 -0.1310
34536W        W77449  27.335   3.459  18.636 -0.0771 -0.2020 -0.2535
34537W        W77450  19.600  10.595  24.416  0.2333 -0.2624  0.0300
34538W        W77451   5.601   9.155  29.627 -0.1973  0.2273  0.3571
34539W        W77452  16.524   4.396  26.480 -0.1429 -0.0392 -0.0273
34540W        W77453  23.300   7.921  21.061 -0.1203  0.0200  0.3522
34541W        W77454   4.792  12.522  24.339  0.0073 -0.0962 -0.0241
34542W        W77455  34.207   6.316  25.294  0.1031  0.1424  0.1828
34543W        W77456  26.755  12.450  24.180  0.0018  0.3851  0.0550
34544W        W77457  32.865  18.631  21.821  0.0882  0.2075  0.1541
34545W        W77458   8.773  10.238  26.871 -0.3012  0.2352  0.1537
34546W        W77459  23.226  17.299  24.496  0.0337  0.2093  0.0468
34547W        W77460   2.883  12.979   7.057  0.0850 -0.1974  0.0685
34548W        W77461  26.268  17.440  24.622 -0.0719  0.3192  0.1006
34549W        W77462  19.265   1.460  18.001  0.3159  0.0934 -0.0398
34550W        W77463  26.541  17.558   8.840 -0.3023  0.2829  0.0059
34551W        W77464  23.667  16.083  22.689  0.1125  0.1693  0.0172
34552W        W77465  27.839  15.973  15.059 -0.2588  0.2853  0.0485
34553W        W77466  32.942  14.645  28.000 -0.1655  0.1664 -0.1329
34554W        W77467  24.058   4.127  27.963 -0.3253 -0.1518  0.1624
34555W        W77468  31.141   5.102  22.358  0.0816  0.0451 -0.0841
34556W        W77469  31.047  18.033  21.532  0.0061  0.2507 -0.3229
34557W        W77470  25.104  18.807  16.434  0.2454 -0.2170  0.0681
34558W        W77471  32.639   2.882  18.761 -0.2314  0.1509  0.0042
34559W        W77472  28.009   7.162  25.772  0.1765  0.2436 -0.2083
34560W        W77473   0.524  19.692   3.459 -0.1913 -0.0934  0.2652
34561W        W77474  25.039  13.104   8.302  0.0310  0.2047  0.3872
34562W        W77475  20.966   6.348  16.470  0.0907  0.3870 -0.1128
34563W        W77476  30.783  23.261  22.780 -0.2426 -0.0190 -0.0052
34564W        W77477  34.169   3.779  22.456  0.3289 -0.3456  0.1063
34565W        W77478   0.232   4.129  27.167  0.1958  0.1874 -0.0070
34566W        W77479  30.355  11.065  22.171 -0.0451  0.3426  0.2141
34567W        W77480   3.779  12.766  28.052  0.3455 -0.2127  0.0755
34568W        W77481   2.708   2.382  16.924 -0.0020 -0.1136 -0.2017
34569W        W77482  31.126   3.507  19.492  0.0130  0.1297  0.1583
34570W        W77483  29.846   3.968  16.801  0.2036 -0.0528 -0.1218
34571W        W77484  28.804  16.185  17.287 -0.3113 -0.2936  0.1536
34572W        W77485   2.860   0.465  18.353  0.1171  0.1963 -0.0727
34573W        W77486   1.354  21.507  18.731 -0.4573  0.4427 -0.5192
34574W        W77487  32.234   1.771  25.259 -0.0281 -0.1396 -0.3283
34575W        W77488  33.986   9.622  29.246  0.1914  0.0832  0.0763
34576W        W77489  26.148  23.959  20.759  0.1563  0.0641 -0.1289
34577W        W77490  25.154  33.975  28.991 -0.0072 -0.1887 -0.0990
34578W        W77491  28.307  17.871  29.091 -0.1331 -0.2783  0.0932
34579W        W77492  24.443   5.790  16.431  0.2649  0.1187  0.1635
34580W        W77493  24.532   6.977  23.804  0.0065  0.0010 -0.0414
34581W        W77494  25.950   1.388   1.419 -0.0782  0.0340 -0.2450
34582W        W77495  20.612   7.093   0.089  0.1780 -0.2012 -0.0084
34583W        W77496  28.420   7.329  20.089 -0.1927  0.1676 -0.2450
34584W        W77497  33.917   3.777  16.746 -0.1264  0.1427 -0.0944
34585W        W77498  33.148  10.494  17.939  0.2616  0.0405 -0.1974
34586W        W77499   2.604   4.952  20.936 -0.3025  0.0932 -0.2478
34587W        W77500  22.803  17.021  26.889  0.2564 -0.0050 -0.3392
34588W        W77501   5.336   6.241  28.009  0.2005 -0.0253 -0.0268
34589W        W77502  26.904   6.168  15.022  0.2459 -0.0219  0.1306
34590W        W77503   4.260   4.762  22.207  0.0086 -0.1754  0.0376
34591W        W77504  30.601  13.954   2.069 -0.0764  0.3880 -0.3595
34592W        W77505  23.802  34.046  25.234  0.0564  0.3213 -0.0709
34593W        W77506  31.837   3.397  22.848 -0.2503  0.1900  0.0243
34594W        W77507  24.637  13.745   2.761  0.1602 -0.3861  0.1571
34595W        W77508  28.270   9.137  22.366  0.1407 -0.3005 -0.0396
34596W        W77509   6.805   9.752   4.855  0.1154 -0.0454 -0.1877
34597W        W77510  19.059   4.217  24.865  0.0037  0.1804 -0.2092
34598W        W77511  26.171   9.218  18.782  0.1579 -0.0426  0.1515
34599W        W77512  25.729   6.915  25.936 -0.1317  0.2785  0.2324
34600W        W77513  33.496   3.105  25.259 -0.0242  0.5631 -0.1971
34601W        W77514   4.966   3.089  23.299 -0.0554 -0.0026 -0.2407
34602W        W77515  24.759   8.676   0.222 -0.1049 -0.0717  0.0070
34603W        W77516  33.011  10.509   2.359 -0.3139 -0.2873 -0.3424
34604W        W77517  17.915  15.648  13.896 -0.1057 -0.2523 -0.0468
34605W        W77518  32.245  12.686  21.983  0.1449  0.2283  0.0636
34606W        W77519  31.754  17.673  28.226  0.0094  0.1466  0.0113
34607W        W77520  34.394   5.728  21.542 -0.0725  0.1087 -0.1746
34608W        W77521  30.180   7.247  23.955 -0.0331  0.0515 -0.0651
34609W        W77522   7.227  30.489  24.159 -0.0304  0.0895  0.0765
34610W        W77523  22.888  10.018  23.764 -0.0490 -0.0026 -0.2798
34611W        W77524  26.159  16.232  17.009  0.5118 -0.4643 -0.0970
34612W        W77525  26.569  32.526  29.632  0.0924 -0.0692 -0.2846
34613W        W77526  20.136   6.717  28.679 -0.2597 -0.2053  0.1464
34614W        W77527  33.395  33.830  29.379  0.1835  0.0252  0.2380
34615W        W77528  21.839  12.440   0.770  0.1362 -0.2286  0.0404
34616W        W77529  33.288  23.982   0.398  0.2422  0.1050  0.3246
34617W        W77530  33.135   4.900  20.263  0.0677 -0.1377  0.3514
34618W        W77531  29.186  10.916   1.303 -0.0649  0.1644 -0.0721
34619W        W77532  34.324  33.024  25.127 -0.1250 -0.1964 -0.2190
34620W        W77533  25.576   6.344  24.246  0.0530  0.0714 -0.1264
34621W        W77534  33.991   2.341  16.310  0.2632 -0.1167  0.0661
34622W        W77535  33.634  20.984  24.984 -0.0903  0.1870  0.2592
34623W        W77536  28.263   1.517  20.588  0.0572 -0.0511 -0.1528
34624W        W77537  34.018   8.604  25.721 -0.1307 -0.0766  0.0266
34625W        W77538  27.923   5.411  19.352 -0.0699 -0.0353  0.2276
34626W        W77539  30.025  28.202  23.599  0.1312  0.1417 -0.0964
34627W        W77540   3.082  33.140  18.988  0.0447 -0.0853 -0.0331
34628W        W77541  31.745  22.153  22.877 -0.4308  0.0993 -0.4411
34629W        W77542  32.109  16.238  28.385  0.2080  0.3315  0.2896
34630W        W77543  32.676  32.172   1.903 -0.0587  0.2260 -0.6170
34631W        W77544  31.000   1.356  24.906 -0.2272  0.1958 -0.0147
34632W        W77545  31.796  16.778  15.357 -0.0469  0.2683  0.1083
34633W        W77546   7.386   1.815  23.449 -0.2393  0.2150 -0.0385
34634W        W77547  26.421   6.919  22.793 -0.0034  0.3302 -0.0605
34635W        W77548  18.778  12.554  24.858  0.0048  0.0730 -0.2000
34636W        W77549   3.796  33.915  18.128 -0.1618  0.1798 -0.0177
34637W        W77550  27.063   3.612   6.922  0.0618  0.1019 -0.1967
34638W        W77551  14.915  32.482  23.122  0.0412 -0.2090 -0.1438
34639W        W77552  29.707  10.787  27.358 -0.1977  0.1741  0.1878
34640W        W77553  28.770   4.936   0.749 -0.0550 -0.0808  0.3848
34641W        W77554   1.308  24.340  20.603  0.0039  0.0003 -0.2709
34642W        W77555  33.194   4.533  27.174  0.0865  0.0415  0.1116
34643W        W77556   1.247  13.005  26.336 -0.0012  0.0378  0.0217
34644W        W77557  23.762   3.094  23.674  0.1615  0.1546  0.0298
34645W        W77558   0.024   1.479  25.537 -0.0495 -0.2404  0.1647
34646W        W77559  22.786   4.950  27.732 -0.0336 -0.0170 -0.0159
34647W        W77560   0.847   4.623  22.654  0.1287  0.2082  0.0073
34648W        W77561   0.895  34.305   2.413 -0.0286 -0.2920  0.2028
34649W        W77562  25.856   3.873  27.589 -0.0995  0.0821 -0.0614
34650W        W77563  27.982  11.948  24.979 -0.1442 -0.0286  0.2033
34651W        W77564   5.847  11.489  28.047 -0.0224  0.2682 -0.3684
34652W        W77565  27.746   4.258  25.038 -0.1520 -0.0630 -0.2586
34653W        W77566  30.660   6.353  16.000 -0.0050  0.1804  0.1625
34654W        W77567   2.088  14.618  29.002  0.3612  0.0495 -0.1399
34655W        W77568  32.107   8.001   2.404  0.2285 -0.3676 -0.0984
34656W        W77569   0.236   8.253  19.636  0.2926 -0.0818 -0.0637
34657W        W77570   4.855  14.341  28.333 -0.1794  0.2329 -0.2333
34658W        W77571  28.272  19.654  13.401  0.0628  0.1816 -0.1219
34659W        W77572  32.100   7.278  23.687  0.1529  0.0056  0.0575
34660W        W77573   2.662  15.706  23.139  0.1107 -0.1154 -0.1096
34661W        W77574  26.136  18.176  26.267 -0.1211  0.0524  0.0489
34662W        W77575  31.046   3.668  26.817  0.3760  0.5067 -0.1422
34663W        W77576  29.210  14.573  20.933  0.3920 -0.0296  0.3500
34664W        W77577  31.751   4.733  18.675 -0.1810 -0.0232  0.3649
34665W        W77578  24.773   6.288  27.228  0.2482 -0.1847  0.1857
34666W        W77579  28.535  16.099  22.399 -0.0662  0.1383  0.0517
34667W        W77580  34.165   1.165  24.077 -0.1322  0.4056  0.0308
34668W        W77581  19.569  10.920  24.870 -0.2122  0.4385  0.1029
34669W        W77582  27.556  18.874  26.285 -0.1520 -0.2402 -0.2508
34670W        W77583  21.233   8.880  22.723  0.0943  0.0818  0.1468
34671W        W77584   2.146   8.983  18.856  0.1985 -0.0579 -0.1066
34672W        W77585  28.764  20.922  20.137  0.0293  0.0458 -0.0277
34673W        W77586  34.207  11.055  23.075 -0.0196  0.3411  0.1727
34674W        W77587   2.793  12.931  23.426  0.2996  0.1993 -0.2277
34675W        W77588  14.522  34.279  20.705  0.0705 -0.1499  0.0756
34676W        W77589  31.777   4.263   0.384 -0.0411 -0.2029  0.0686
34677W        W77590  33.764  12.239  25.056  0.1094 -0.0030  0.0147
34678W        W77591  29.839   6.403  24.629  0.1163  0.0004  0.1466
34679W        W77592   1.941   0.948   4.408 -0.0888  0.1317  0.2362
34680W        W77593  24.461  13.469   3.290  0.0852 -0.2737  0.2089
34681W        W77594  32.045   4.463  22.071 -0.1280  0.0150  0.1478
34682W        W77595  34.234  13.251  18.490  0.2326  0.0044  0.1558
34683W        W77596  32.957  17.479  29.620 -0.3207  0.0689  0.0662
34684W        W77597   1.825   9.167  22.143  0.0784  0.0925 -0.1559
34685W        W77598  27.295  10.263  22.915  0.3537 -0.0887  0.3305
34686W        W77599  20.429  16.426  15.600  0.5436  0.0191 -0.2298
34687W        W77600   2.498   7.423  25.298  0.0510 -0.0464  0.0884
34688W        W77601  34.310  14.654  28.621  0.1549 -0.3267 -0.1943
34689W        W77602  23.432  10.386  22.763 -0.1380  0.1775  0.1472
34690W        W77603  28.801   1.844  16.584 -0.3397 -0.0314  0.1816
34691W        W77604  30.128  10.658   0.354 -0.1122 -0.0865  0.2922
34692W        W77605  21.813  10.702   5.701  0.0127 -0.1545 -0.0484
34693W        W77606  23.661   2.613  29.403  0.2347  0.2460 -0.1001
34694W        W77607  33.129   5.894   4.830 -0.3254 -0.1496 -0.0728
34695W        W77608   2.411  15.998  25.430  0.0063  0.0030 -0.0535
34696W        W77609   1.285   1.410  23.091  0.1014  0.0222  0.3069
34697W        W77610  28.963  17.639  22.879  0.2271 -0.1121 -0.0194
34698W        W77611  26.538  16.898   3.743  0.1132 -0.1505  0.2234
34699W        W77612  24.294  15.898  13.942 -0.2225 -0.0847 -0.1285
34700W        W77613  34.175  12.123   0.766 -0.1722  0.0029  0.0018
34701W        W77614   2.567   7.793   2.935  0.0555  0.4505 -0.2558
34702W        W77615   6.142   8.103  17.845 -0.1769  0.0683 -0.1413
34703W        W77616  30.545   4.306  17.378  0.2446  0.0926  0.3973
34704W        W77617  26.083   1.686  22.561 -0.3332  0.2625 -0.2324
34705W        W77618  24.575  14.234  24.129 -0.3140 -0.3852 -0.2464
34706W        W77619  28.346   8.468  14.274 -0.0271  0.1513 -0.0315
34707W        W77620  31.296   8.439  24.644  0.1898 -0.1579  0.0327
34708W        W77621  29.889  12.389  21.384  0.2108  0.2655  0.0526
34709W        W77622  22.415   3.463  19.838 -0.2106  0.2161  0.0423
34710W        W77623  25.022  14.199  13.683 -0.0022  0.2037  0.1471
34711W        W77624  22.102   8.508   0.227 -0.1817 -0.0935  0.0287
34712W        W77625  30.860   7.777   0.835  0.5009  0.0830  0.2578
34713W        W77626  29.716   8.635  21.498  0.1097 -0.2786  0.0630
34714W        W77627  28.506   4.136  28.957 -0.2041  0.0864 -0.0374
34715W        W77628  29.751   9.724  19.790  0.0379 -0.1283  0.0928
34716W        W77629  28.602   3.516  26.016 -0.2437  0.1014  0.0831
34717W        W77630  28.414  13.160  23.359  0.0575 -0.1360 -0.0063
34718W        W77631  29.871  12.335  16.414  0.0047  0.0978 -0.1988
34719W        W77632  31.468   1.110  24.713 -0.0117  0.0170 -0.1198
34720W        W77633  26.786  18.561  28.692  0.0660  0.5716  0.3025
34721W        W77634  21.394  15.590   2.030  0.1773 -0.0463  0.0986
34722W        W77635  29.518  10.714  19.257  0.2977 -0.2228  0.0401
34723W        W77636  29.928   3.340  25.492 -0.0486  0.1764 -0.2389
34724W        W77637   3.850   2.243  25.193 -0.1732  0.1477  0.1823
34725W        W77638  13.314   4.185  16.235  0.1744  0.0549 -0.1628
34726W        W77639  29.060   2.679  24.759 -0.2512 -0.0797  0.0060
34727W        W77640   1.217   9.229   1.630 -0.0105 -0.0326 -0.1120
34728W        W77641  22.559  21.865  22.567 -0.1924 -0.0152 -0.2406
34729W        W77642  29.747   2.067  20.073 -0.0626 -0.0586 -0.3776
34730W        W77643  30.925   6.655   1.149 -0.0082 -0.3437  0.0840
34731W        W77644  29.465  10.533  24.176 -0.3118 -0.1105  0.2491
34732W        W77645  26.269  29.622  26.449  0.0500 -0.3285  0.0527
34733W        W77646   0.816   8.579  15.854  0.0584 -0.1126  0.2886
34734W        W77647  24.116  17.505  25.644  0.1520  0.1541  0.1811
34735W        W77648  32.347   6.986  17.312 -0.1476 -0.0902 -0.4131
34736W        W77649  31.205   5.208  20.310 -0.0414 -0.1214  0.1144
34737W        W77650  32.298  13.198  20.846 -0.0286 -0.2459 -0.1177
34738W        W77651  31.120   9.607  20.230  0.3043  0.1125  0.2080
34739W        W77652  23.536  33.907  27.371 -0.0742  0.1196 -0.1663
34740W        W77653  25.637   9.116  18.678  0.0127  0.1385  0.0018
34741W        W77654  19.037  14.619  21.009  0.0345  0.2247  0.5451
34742W        W77655   1.387  20.540  15.264 -0.0082 -0.2920 -0.2020
34743W        W77656  30.096   4.450  19.374  0.1124 -0.0655 -0.0015
34744W        W77657  31.079  10.734  26.346 -0.0103 -0.1028  0.0975
34745W        W77658  24.973   5.539  21.271 -0.3496 -0.0852  0.2300
34746W        W77659  33.368  11.687  15.727  0.1331 -0.1313 -0.0091
34747W        W77660  29.256   2.326  23.710  0.0608  0.0034 -0.0167
34748W        W77661  31.940   6.158  18.576  0.0694  0.1395 -0.1009
34749W        W77662  29.790  12.259  23.818  0.0757  0.2252 -0.0209
34750W        W77663  29.577   7.382  17.100 -0.0407  0.1640 -0.0890
34751W        W77664   0.022   0.075  26.694 -0.0164  0.1496 -0.0032
34752W        W77665  30.694  18.647  26.488 -0.3265 -0.0200 -0.1328
34753W        W77666  20.747  10.435  15.074  0.1474  0.2417 -0.2292
34754W        W77667  27.819  12.344  29.009  0.1265 -0.0264  0.1428
34755W        W77668  28.530   1.690  10.733  0.4019  0.0533 -0.1236
34756W        W77669   5.594   5.944  23.971 -0.0901 -0.0649  0.3487
34757W        W77670   2.039   9.751  26.829 -0.2124  0.1332  0.0727
34758W        W77671  26.976   7.378  23.701 -0.0610  0.0162 -0.2823
34759W        W77672  34.036   7.857  18.274 -0.1011  0.3087 -0.3400
34760W        W77673  24.420   7.053  16.253 -0.0800  0.1729 -0.1149
34761W        W77674  32.789  13.414  17.110 -0.0473 -0.0504  0.1506
34762W        W77675  23.550  24.973  27.837 -0.3120 -0.3816  0.0526
34763W        W77676  31.979   9.431  26.653 -0.1695 -0.2289 -0.2853
34764W        W77677  28.496  30.192  27.863 -0.0398 -0.0304 -0.2195
34765W        W77678  33.791   2.949  17.729 -0.0680 -0.0389  0.2540
34766W        W77679  23.385  13.342  15.949  0.0836 -0.4740 -0.0812
34767W        W77680  25.379   5.299  26.507  0.3639  0.0336 -0.4380
34768W        W77681  32.080   9.823   3.262  0.4359 -0.1843 -0.1146
34769W        W77682  29.247   2.045  25.381  0.2025  0.0749 -0.0438
34770W        W77683   6.224   8.709  26.268  0.1803 -0.1253  0.3990
34771W        W77684  33.033   8.312  29.378 -0.0476 -0.1590 -0.0854
34772W        W77685  18.605   7.934  14.778  0.0871 -0.0572  0.0365
34773W        W77686  31.580   4.356  21.751 -0.0886  0.0871 -0.1073
34774W        W77687  29.630   8.218  16.620 -0.2405  0.0276 -0.0579
34775W        W77688  30.499  13.940  17.047 -0.3621  0.2319 -0.0140
34776W        W77689  20.653  10.582  19.231  0.0065  0.3361  0.0696
34777W        W77690  24.459   8.394   1.372  0.2449 -0.3034 -0.1016
34778W        W77691   1.739   4.409  25.324 -0.2876  0.1412  0.1124
34779W        W77692  18.325   3.352  25.072  0.0954 -0.0868  0.1619
34780W        W77693  28.375  17.094   1.703  0.0448 -0.0441 -0.1148
34781W        W77694   5.888  30.172  26.879  0.3604 -0.0225  0.0043
34782W        W77695   0.443  19.785  19.542  0.0580  0.1197  0.0366
34783W        W77696  27.816  31.285  25.193  0.1750 -0.2032 -0.1147
34784W        W77697  10.052  15.784  26.525 -0.2724 -0.0105  0.1426
34785W        W77698  33.371  15.751  23.003  0.1076  0.2229 -0.2805
34786W        W77699  24.136  11.671  25.349 -0.0694  0.0135 -0.0103
34787W        W77700  23.361  11.180  27.966 -0.2639 -0.3035  0.0060
34788W        W77701  33.147   8.099  17.242 -0.0610 -0.2262  0.0779
34789W        W77702   2.944   0.490  25.291  0.1535 -0.1589  0.0692
34790W        W77703  19.742   9.033  25.334 -0.1603  0.3342 -0.2735
34791W        W77704   4.712  32.691  26.340 -0.0108 -0.1840 -0.2744
34792W        W77705   4.946   4.695   6.820  0.0245  0.0602  0.0168
34793W        W77706  21.388   0.365  26.538 -0.1466 -0.0759  0.2353
34794W        W77707  20.415   6.391   0.692 -0.0827 -0.3355 -0.3106
34795W        W77708  30.967  16.999  22.513  0.0341 -0.2247  0.4584
34796W        W77709  28.058   4.510  24.126  0.0075 -0.2809  0.1885
34797W        W77710   2.325  15.549  29.242 -0.4868  0.0175  0.1614
34798W        W77711   0.085  20.392  28.816 -0.1458  0.1466  0.2396
34799W        W77712  26.114  10.572   6.846 -0.2134  0.0329  0.2809
34800W        W77713  21.096  14.349  29.768  0.2665 -0.3489  0.0304
34801W        W77714  25.971  12.545   3.146 -0.1310  0.2714  0.2435
34802W        W77715  23.274   8.686  24.250  0.1837 -0.0897  0.1356
34803W        W77716  32.739   7.296   7.438 -0.0306 -0.3259  0.3081
34804W        W77717   5.346   1.466   3.161 -0.1583  0.1169  0.0307
34805W        W77718  27.781   3.383   4.220  0.1857 -0.2214 -0.0786
34806W        W77719  27.944   9.896  20.860 -0.1681 -0.0653  0.0029
34807W        W77720   0.147  24.514  29.192  0.2374 -0.0290 -0.1053
34808W        W77721   0.828  13.933  24.257 -0.2737 -0.0885 -0.2482
34809W        W77722  27.529  12.625  15.926  0.5400 -0.1067 -0.0171
34810W        W77723  26.435   7.314   8.467 -0.0995  0.0292  0.0108
34811W        W77724  29.909   6.215  22.427  0.0901 -0.0239 -0.0633
34812W        W77725  17.140   6.794  19.165 -0.0045 -0.0689  0.1469
34813W        W77726  19.704  31.279  27.684 -0.4651 -0.0155  0.3318
34814W        W77727   5.340   5.501   2.528  0.1270 -0.1510 -0.1069
34815W        W77728  32.863   7.573   5.563  0.0329 -0.1396  0.0366
34816W        W77729  28.634  10.905  28.011  0.1143 -0.3797 -0.3236
34817W        W77730  27.514   1.938  29.170  0.1257 -0.3140 -0.0958
34818W        W77731   1.397   1.465  26.694 -0.0834  0.0349  0.0001
34819W        W77732  27.003  20.413   0.204 -0.0956  0.0306 -0.0169
34820W        W77733  33.317   5.932   0.180 -0.1586  0.1268 -0.1024
34821W        W77734   4.682  12.639  19.107  0.0549  0.5004 -0.0333
34822W        W77735  23.375   0.794   0.404 -0.2981 -0.2626  0.1542
34823W        W77736  33.161  13.524  24.797  0.1886  0.0624  0.0903
34824W        W77737  29.216  23.928  28.361  0.0521  0.0167 -0.0362
34825W        W77738  30.300   9.580  20.782 -0.1429 -0.1947  0.1469
34826W        W77739   7.609   4.150  27.307 -0.1775  0.0480  0.2762
34827W        W77740  27.734  20.837  29.503 -0.2019 -0.2682 -0.1101
34828W        W77741  34.247  12.512   2.000 -0.0620 -0.2868  0.1551
34829W        W77742  26.099   3.712  28.571 -0.1568  0.4036  0.0160
34830W        W77743  31.084  17.914   0.968 -0.1047 -0.0306 -0.2129
34831W        W77744  29.671  18.506  17.880 -0.1561  0.0514 -0.0262
34832W        W77745  25.750   4.821  25.713  0.0525 -0.0787 -0.2961
34833W        W77746  26.702   9.609   4.192  0.0754  0.0865 -0.1274
34834W        W77747  26.636  20.419   1.541  0.1685 -0.1041  0.2652
34835W        W77748   9.971  14.238   4.243 -0.0645  0.0089 -0.2374
34836W        W77749  22.138  14.700  28.631 -0.0211 -0.1882 -0.2145
34837W        W77750  32.452   8.065  26.869  0.2251 -0.0517 -0.0686
34838W        W77751   9.917  31.848  25.102 -0.1289 -0.1886 -0.0001
34839W        W77752  14.317  24.048  24.982  0.1682 -0.0254  0.1552
34840W        W77753   2.791   6.506  23.407 -0.0147 -0.3045 -0.0681
34841W        W77754  28.935   3.553   6.206  0.1168  0.0467  0.0519
34842W        W77755  26.252  30.568   9.969 -0.1419  0.0067 -0.1251
34843W        W77756   3.463   7.390   2.498 -0.1378 -0.1656  0.2559
34844W        W77757  34.357   0.251  23.771  0.2175 -0.1655  0.0661
34845W        W77758   3.531  17.853  20.729 -0.2289 -0.3261 -0.1283
34846W        W77759  22.326   7.279  27.585 -0.0461  0.2241  0.0223
34847W        W77760  32.899   5.499  26.717  0.0948 -0.0507 -0.0966
34848W        W77761  20.542   3.228  24.522 -0.2897 -0.3370  0.0986
34849W        W77762   8.519  34.011   3.071 -0.1188  0.0229  0.2160
34850W        W77763   1.775  10.321   4.767  0.2339  0.1797  0.2261
34851W        W77764  29.269   6.781  18.617  0.0307  0.0823 -0.0764
34852W        W77765  18.498   8.929  21.695 -0.1025 -0.4474  0.2099
34853W        W77766  30.197  13.354   7.986  0.1896 -0.1879  0.1900
34854W        W77767  26.640   9.586  20.060  0.1887  0.1362  0.1300
34855W        W77768  29.845  14.398   4.411  0.2586  0.3489  0.3113
34856W        W77769  33.691  13.155  25.477 -0.0535 -0.0346  0.1135
34857W        W77770  32.194   7.388   2.098 -0.2722  0.1957  0.0677
34858W        W77771  26.605   1.018  24.793 -0.0645  0.4928  0.4113
34859W        W77772  28.837   8.705   3.089 -0.0971 -0.0852  0.4207
34860W        W77773  31.520  11.400  27.631  0.1847  0.2061 -0.0396
34861W        W77774  12.480   0.844  24.825 -0.3989  0.0488  0.2230
34862W        W77775   2.019   6.633  23.144 -0.1989  0.1039  0.0683
34863W        W77776  21.522  24.733  27.677  0.2818 -0.1353  0.0461
34864W        W77777  29.530  19.119   4.039 -0.1204 -0.0505  0.0010
34865W        W77778  20.603  14.007  27.331  0.0038  0.1451  0.1969
34866W        W77779   3.040  11.751  28.201  0.1623 -0.0152 -0.1462
34867W        W77780  34.080  13.123  27.347  0.0152  0.1635 -0.0920
34868W        W77781  33.064  16.453   3.711 -0.3304  0.0235  0.2908
34869W        W77782  19.782   3.270   0.627 -0.1651 -0.1113 -0.0834
34870W        W77783   0.550  13.568  18.311  0.1450  0.0270  0.1873
34871W        W77784  25.674  14.542   1.083  0.1157  0.2317  0.0364
34872W        W77785  23.609  10.622  27.573 -0.1260  0.4604  0.0344
34873W        W77786  27.877  17.202  27.312  0.3063  0.0060 -0.0099
34874W        W77787  30.238   8.502   6.101 -0.2470  0.1017 -0.3538
34875W        W77788  25.090  17.870  28.818 -0.0323  0.1066 -0.4207
34876W        W77789  22.267  12.195  19.664 -0.0860 -0.1258 -0.0195
34877W        W77790  17.671  11.269  26.127  0.2468  0.1486 -0.0788
34878W        W77791  30.062   5.286   1.199  0.4199  0.1094 -0.2632
34879W        W77792  32.478  12.636  26.560  0.1224  0.3829 -0.0780
34880W        W77793  28.327   2.980  28.293 -0.1113  0.2296 -0.4654
34881W        W77794  32.701  28.705  28.498  0.5109 -0.4424  0.0293
34882W        W77795   4.036   8.679   8.505 -0.1014  0.1739  0.0644
34883W        W77796   1.578   8.588  19.750 -0.1095  0.2724  0.0926
34884W        W77797  33.339  12.554   9.796 -0.1284  0.0425  0.1420
34885W        W77798   5.669  10.224  18.363 -0.1226 -0.0087  0.0216
34886W        W77799  32.877   7.780  26.856 -0.1055 -0.2622 -0.0220
34887W        W77800  26.086  16.456  25.800  0.0446  0.2251 -0.0881
34888W        W77801  33.116   6.301  25.220 -0.3406  0.0230  0.1614
34889W        W77802  34.214   6.912  17.121  0.0336  0.0108  0.0568
34890W        W77803   1.150   8.390  18.883  0.1727 -0.2411  0.1060
34891W        W77804   3.197   8.650  27.419 -0.0056 -0.1627  0.1032
34892W        W77805   1.962   2.497   6.128  0.2293 -0.1787 -0.1816
34893W        W77806  31.095   4.406   1.693 -0.1011 -0.2823  0.3628
34894W        W77807   6.872   4.608  17.985  0.3727 -0.0738 -0.0260
34895W        W77808  29.983   1.178   0.958 -0.0892 -0.0927  0.1342
34896W        W77809  26.155  31.028   9.719  0.0448  0.1046  0.2051
34897W        W77810  25.820  28.531   5.323  0.1885 -0.1314  0.0342
34898W        W77811  18.300  19.182   1.642 -0.1547 -0.0749 -0.1377
34899W        W77812  26.854   8.381   3.544 -0.0628 -0.1011 -0.1960
34900W        W77813  27.940  30.105  23.971  0.0181  0.3667 -0.0595
34901W        W77814  26.129   3.651  24.024 -0.3283  0.1463 -0.1848
34902W        W77815   6.462  15.177  25.407  0.1431  0.0753  0.1903
34903W        W77816   2.749   6.224  23.982  0.2385 -0.0734  0.1011
34904W        W77817  20.284   1.648  26.782  0.2030 -0.1247  0.0402
34905W        W77818   0.995   9.317  27.155 -0.1405  0.1286  0.1448
34906W        W77819   3.416  13.814  28.086  0.1188 -0.0579 -0.0601
34907W        W77820  16.220   5.877  26.306  0.2735 -0.2845  0.1297
34908W        W77821  27.689  11.954   8.512 -0.0668  0.2219 -0.0968
34909W        W77822  25.031  17.086   0.321  0.2054 -0.0468 -0.3804
34910W        W77823  16.860   9.335  27.234  0.2984 -0.0617 -0.1415
34911W        W77824  29.518  17.446  28.388 -0.0219  0.0295  0.1796
34912W        W77825  29.291   7.413   9.739  0.0166 -0.1984 -0.1120
34913W        W77826  34.088   2.906  27.648 -0.0718 -0.2691 -0.0118
34914W        W77827  21.649   6.791   0.001 -0.0167 -0.1549 -0.0345
34915W        W77828  23.656  15.271  28.473 -0.1646  0.2734 -0.0815
34916W        W77829  23.435   9.546   8.130  0.0744 -0.0441  0.1785
34917W        W77830  21.770   1.769  20.485 -0.2538  0.0193  0.5600
34918W        W77831  24.140  13.395   5.963 -0.1036  0.1280  0.0518
34919W        W77832  26.028  16.227  29.169 -0.3232 -0.0433  0.0649
34920W        W77833  33.997   9.933   1.284  0.0449  0.0822  0.2492
34921W        W77834  27.111   2.055   0.258 -0.1177 -0.0141  0.4196
34922W        W77835  25.962   8.092  15.678 -0.2085 -0.1864  0.0846
34923W        W77836  10.604  10.498   6.271  0.1424 -0.1167 -0.0385
34924W        W77837  32.948  33.970  28.215 -0.0761 -0.0262  0.1909
34925W        W77838  24.322   6.937  26.467  0.2450 -0.1354 -0.1494
34926W        W77839  33.880  17.009   6.723 -0.1043 -0.2653 -0.0872
34927W        W77840  21.710  13.479  27.090  0.0876 -0.2602 -0.1136
34928W        W77841  32.335  10.939  23.338  0.0989 -0.0991 -0.0771
34929W        W77842  31.833  34.062  25.567 -0.0718  0.0974 -0.0609
34930W        W77843  30.130  21.740  21.655 -0.1335  0.1659 -0.1784
34931W        W77844  29.016   8.333   1.973 -0.2492 -0.1208 -0.3879
34932W        W77845  24.770   5.844  22.384  0.2022  0.3061  0.2876
34933W        W77846  26.403  21.854  28.750  0.1040 -0.0827  0.2847
34934W        W77847  22.861  17.074  21.046 -0.2448  0.0100  0.1787
34935W        W77848   8.889   9.775  27.945 -0.0775  0.3152  0.1059
34936W        W77849  28.416   6.874  28.780 -0.1147  0.1358  0.1544
34937W        W77850   4.256   6.289   2.580 -0.2549  0.3892 -0.0757
34938W        W77851  26.659  11.456  27.254  0.0850  0.3201  0.0374
34939W        W77852  29.511  18.353   0.795 -0.0021  0.3869  0.0478
34940W        W77853   4.808   5.401  22.587 -0.2207  0.1128  0.0175
34941W        W77854  21.093  14.916   4.713  0.0812 -0.1162  0.0712
34942W        W77855  23.917  24.202   0.247 -0.0257 -0.0677  0.0354
34943W        W77856   3.446   0.322  25.198 -0.0258 -0.3017  0.0383
34944W        W77857  29.537  10.087   2.402  0.0169  0.0987  0.3249
34945W        W77858  29.420  19.646  25.456  0.0955 -0.1627  0.3043
34946W        W77859  27.451  16.572  25.152 -0.1306 -0.0769 -0.0454
34947W        W77860  22.961   8.057  16.484  0.2645  0.1683  0.3557
34948W        W77861  32.781  31.787   5.784  0.0105  0.2500 -0.0461
34949W        W77862   3.933   9.705  26.496  0.2229  0.3278 -0.0659
34950W        W77863  30.000   2.777  21.530 -0.1041 -0.1883 -0.0922
34951W        W77864   5.444  11.394  27.230 -0.1159 -0.5658  0.4415
34952W        W77865  20.855  11.843  27.041  0.2107  0.0058  0.0310
34953W        W77866  30.018   5.679   8.468 -0.0705 -0.1038 -0.1540
34954W        W77867  29.242  17.065  21.060  0.0937 -0.0476 -0.1550
34955W        W77868   5.169   1.755  28.896  0.0234  0.0790 -0.3733
34956W        W77869  25.489  18.425  22.786  0.0413 -0.1969  0.0377
34957W        W77870  29.570   0.839  22.679 -0.1521  0.0930  0.0950
34958W        W77871  24.361   8.805  18.752  0.2132 -0.0993  0.2294
34959W        W77872  33.765  16.145  26.133 -0.3298  0.1394  0.0239
34960W        W77873   0.676  11.336  25.993  0.3323  0.3006  0.0229
34961W        W77874  23.379   4.567  19.678 -0.1235  0.0873  0.2107
34962W        W77875  26.628  10.951  20.672  0.2402  0.0152 -0.2999
34963W        W77876  30.597  15.434  23.117 -0.0643 -0.0589 -0.2142
34964W        W77877   4.280   3.356   0.345  0.1579  0.0461 -0.2028
34965W        W77878  33.663   0.780  26.471  0.5131 -0.0171 -0.0303
34966W        W77879  25.597  13.680  21.452  0.0960  0.1165 -0.0027
34967W        W77880   0.081  16.591  22.114  0.0055 -0.1797 -0.0996
34968W        W77881   2.306   2.318  21.116 -0.0774  0.1624  0.2206
34969W        W77882  28.891   9.709   3.439 -0.2300 -0.0732 -0.0338
34970W        W77883  23.549  10.673   2.434 -0.2596 -0.0511 -0.0146
34971W        W77884  28.165  12.909  27.637 -0.3050 -0.1048 -0.1162
34972W        W77885   9.290  33.626  29.563  0.0912  0.0675  0.2058
34973W        W77886   1.189   2.997  20.268 -0.3719 -0.0600  0.0804
34974W        W77887  32.536   8.678  18.693  0.1800 -0.1509  0.2329
34975W        W77888  27.944   8.913  15.804  0.2317 -0.0950  0.2144
34976W        W77889  31.860  18.430   2.097  0.0392 -0.0085  0.0728
34977W        W77890  30.094   9.155  27.384  0.0457  0.1480  0.1612
34978W        W77891   3.127  21.333  22.786  0.1837  0.0526 -0.1190
34979W        W77892  25.758   7.503  17.867  0.1126 -0.4021 -0.0535
34980W        W77893  24.570  15.295   1.914  0.1140  0.2011 -0.0030
34981W        W77894  29.427   9.127  28.901  0.3742 -0.0741 -0.1685
34982W        W77895   5.984  18.249   1.855  0.2704 -0.3469 -0.2006
34983W        W77896  23.312  15.496   3.192 -0.1100  0.5623 -0.0274
34984W        W77897   4.922  13.509  16.230  0.3615 -0.0895 -0.1468
34985W        W77898   1.919   8.755  17.603  0.3564 -0.5270 -0.0129
34986W        W77899  26.283  14.120  18.801 -0.2081 -0.0712  0.0118
34987W        W77900  29.209  11.440  24.659  0.0553 -0.1908 -0.1388
34988W        W77901  26.233  10.245   4.963  0.1137  0.0824  0.0164
34989W        W77902  27.045   3.389  15.684 -0.0297  0.1827  0.0461
34990W        W77903  23.964  12.165   1.695  0.0699 -0.0215 -0.1668
34991W        W77904   4.216  14.811   5.904 -0.0837 -0.3405 -0.2534
34992W        W77905  27.304   5.581   3.057  0.1489  0.2534 -0.0729
34993W        W77906  26.349  14.699  29.439  0.0462  0.1444 -0.2935
34994W        W77907  25.786  17.820   0.264  0.2455 -0.1657 -0.3591
34995W        W77908  14.312   4.333  24.346  0.0501 -0.2441 -0.1883
34996W        W77909  26.262  22.007  23.044  0.1264 -0.0077  0.0265
34997W        W77910  34.232   5.547   9.480  0.0104  0.1485 -0.0372
34998W        W77911  22.976  14.924   7.497  0.3918  0.2434 -0.2946
34999W        W77912  30.264   6.380  20.659  0.2979 -0.2871 -0.1383
35000W        W77913   3.524  14.804  28.352  0.1362 -0.2607  0.0227
35001W        W77914  29.939  22.170  29.090  0.0145 -0.0056  0.0486
35002W        W77915  23.724   3.764   0.895 -0.2322 -0.1824 -0.2480
35003W        W77916  30.207  15.406  13.613 -0.1501 -0.2868 -0.0020
35004W        W77917  30.489   5.512  29.722 -0.1724 -0.0124  0.2227
35005W        W77918  22.482   7.773  19.587  0.1734 -0.0385 -0.4075
35006W        W77919   1.885  11.374  17.959 -0.0911 -0.0350 -0.0349
35007W        W77920  18.729   8.640  22.764 -0.0003  0.2267  0.2063
35008W        W77921   2.593  20.842  23.214  0.0414 -0.1511 -0.0161
35009W        W77922  27.983   1.109   8.056  0.2270 -0.0069  0.1904
35010W        W77923  29.462  18.195  24.719 -0.1326 -0.0412  0.2289
35011W        W77924   4.745  34.165   0.021 -0.2007 -0.0657  0.2124
35012W        W77925  27.330   6.606  20.334  0.0492 -0.1083  0.1336
35013W        W77926   1.819  18.794   0.078  0.4341 -0.0934 -0.1631
35014W        W77927  20.912   4.508  24.711 -0.0192 -0.3526  0.1193
35015W        W77928  31.373   8.307  29.543 -0.2800  0.2048  0.0896
35016W        W77929   4.933   9.855  28.847 -0.1633 -0.1605  0.1476
35017W        W77930  30.773   1.858  25.768 -0.1592  0.1989 -0.3537
35018W        W77931  33.802  11.928   6.681 -0.0394  0.0973  0.3757
35019W        W77932  31.544  11.174   1.521  0.2066 -0.1226  0.0472
35020W        W77933   6.425   5.905   0.578 -0.3849 -0.2004  0.2021
35021W        W77934  21.577  17.275  19.967  0.2615 -0.0155 -0.1564
35022W        W77935   2.526   7.562   1.936 -0.1409 -0.0930 -0.0947
35023W        W77936   4.897   9.192   9.826  0.1333 -0.3718  0.0248
35024W        W77937  29.648   4.143  19.397  0.2651  0.1608 -0.1793
35025W        W77938  28.725   1.886  20.408 -0.1472  0.0304 -0.0453
35026W        W77939  22.226   8.573  24.566  0.0522  0.0281 -0.0187
35027W        W77940   7.748  22.635   8.512 -0.1791 -0.2894  0.3790
35028W        W77941   6.876  10.842  17.882 -0.2504 -0.0863  0.0172
35029W        W77942  30.517  15.521   7.406 -0.1120 -0.1669 -0.0041
35030W        W77943  29.843  12.611  24.755 -0.0793  0.1107  0.1388
35031W        W77944  33.686   8.476  20.438 -0.1517  0.0347 -0.3604
35032W        W77945  29.830  16.030  18.804 -0.2176 -0.1958  0.1345
35033W        W77946  23.026  12.600   1.746 -0.0142 -0.0127 -0.0991
35034W        W77947  28.008  21.997  28.273  0.1009 -0.1818 -0.3327
35035W        W77948  25.870  11.651   2.897 -0.5753 -0.3758 -0.1222
35036W        W77949  26.764   1.832  17.220 -0.1799  0.0013 -0.3362
35037W        W77950  28.664   6.515  18.391 -0.2322 -0.1675 -0.1492
35038W        W77951   5.047   9.926  21.057 -0.1030 -0.0294  0.0036
35039W        W77952  15.686   8.649  28.658  0.1367 -0.3934  0.0558
35040W        W77953   2.600   0.198   1.854  0.0575 -0.2087  0.0301
35041W        W77954  23.001   6.843  28.920  0.1052  0.2602  0.0336
35042W        W77955   3.176   9.380  25.216  0.2245  0.1066  0.0010
35043W        W77956  21.857  11.011   1.792 -0.0224 -0.2117 -0.0321
35044W        W77957  26.782  11.474  29.192  0.0239 -0.0528 -0.3470
35045W        W77958  17.370  16.867   2.788  0.0805  0.3345 -0.0162
35046W        W77959  10.778   4.252  24.298 -0.0451 -0.1266  0.0735
35047W        W77960  31.958  10.178  21.731  0.0555  0.1439 -0.0616
35048W        W77961  28.016   4.212  26.627 -0.1010 -0.1966  0.2008
35049W        W77962   1.130   6.234   0.327  0.1571 -0.3029 -0.2562
35050W        W77963  27.026   5.938  27.561  0.6125 -0.0249 -0.0021
35051W        W77964  30.416  14.367   2.343  0.2032 -0.0169  0.0297
35052W        W77965   2.537   3.378   5.197  0.0735 -0.1364 -0.0414
35053W        W77966  21.048  16.650  26.714  0.2068 -0.0877 -0.2375
35054W        W77967  14.526   4.872   1.393  0.0487 -0.1147  0.0800
35055W        W77968  25.667  13.684   5.035  0.3023 -0.2747 -0.2872
35056W        W77969  24.854   4.379  24.253 -0.2036  0.2916  0.2065
35057W        W77970  23.103  10.490   0.561  0.1171  0.0541  0.0473
35058W        W77971   4.029   0.977  25.262  0.2052 -0.0843 -0.2211
35059W        W77972  30.883  14.077  23.186  0.1041 -0.4148 -0.1242
35060W        W77973  19.728   2.277  22.432  0.3207  0.1030  0.0928
35061W        W77974  24.281   4.177  14.719  0.1371  0.0154  0.0543
35062W        W77975  21.768  18.614  23.661 -0.0469  0.0821 -0.1828
35063W        W77976   9.690  11.448  26.448 -0.3735  0.1678  0.1445
35064W        W77977  20.580   4.117  20.458 -0.0275 -0.3636 -0.1376
35065W        W77978  28.302  12.558  28.082  0.0304 -0.0679  0.0757
35066W        W77979  26.880  11.788  17.741  0.0389  0.2073 -0.1344
35067W        W77980   9.825  22.598  21.978  0.0279 -0.1109  0.1740
35068W        W77981  24.975  12.774   6.238  0.1200 -0.2832 -0.1117
35069W        W77982  29.718   6.568   4.856  0.0242 -0.1040 -0.1333
35070W        W77983  32.164   3.187  22.489  0.1397  0.0315 -0.0892
35071W        W77984  34.331  12.681  27.124  0.0096 -0.1358 -0.0861
35072W        W77985  32.395  29.116  25.579  0.2029 -0.0512 -0.3644
35073W        W77986   1.235  10.900   2.266  0.1635  0.1887 -0.2736
35074W        W77987   3.861   7.181  22.518  0.1247 -0.3122 -0.0897
35075W        W77988  32.712  17.172  26.821  0.2439 -0.1679 -0.0416
35076W        W77989  32.596   7.364  27.011 -0.3052 -0.1183 -0.2603
35077W        W77990  25.763  12.703  14.001  0.2104 -0.0879  0.1433
35078W        W77991  21.767  15.856  27.117  0.0658  0.2433 -0.1997
35079W        W77992  27.396   5.218  28.992  0.0778 -0.0466  0.1866
35080W        W77993   5.548  11.374  26.781 -0.4501  0.3913  0.2128
35081W        W77994   5.451  16.517  28.339  0.0610 -0.0108 -0.2118
35082W        W77995  25.327   4.900  17.583 -0.0272 -0.3939  0.0110
35083W        W77996  30.498  19.337   1.531  0.3720  0.1924  0.0202
35084W        W77997   6.910  32.474  28.909 -0.0415  0.2029  0.0157
35085W        W77998  32.842  20.551  22.038 -0.1463  0.4070 -0.0391
35086W        W77999   9.301  10.109  28.060 -0.0528 -0.3734 -0.0881
35087W        W78000  28.619   9.853   0.716  0.2973 -0.0695 -0.2801
35088W        W78001   1.085   8.847  24.750 -0.2842 -0.0535  0.0124
35089W        W78002  19.293  14.560   2.327  0.2231  0.2738  0.1959
35090W        W78003  20.510  16.753   6.295 -0.1627 -0.0745 -0.0872
35091W        W78004  32.790  12.158  22.310 -0.0376 -0.0594 -0.0999
35092W        W78005  19.173  14.941  24.616  0.0383  0.2783 -0.0021
35093W        W78006  24.450   0.453  23.532  0.3307  0.1354 -0.2960
35094W        W78007   1.896  16.602  20.008  0.2196  0.1174 -0.1959
35095W        W78008  17.364   6.370   3.038  0.0997  0.0312 -0.2231
35096W        W78009  32.469   4.690   0.598 -0.1939 -0.1466  0.1502
35097W        W78010  33.458   7.932   8.725  0.0009  0.0655  0.0476
35098W        W78011   8.314  13.018  18.735 -0.0943 -0.1252  0.0140
35099W        W78012  32.323   4.468  24.427  0.0345 -0.2015 -0.1384
35100W        W78013  25.130   9.548   1.365 -0.1492  0.2014 -0.4056
35101W        W78014  29.092   5.658  27.327  0.2303 -0.1969  0.1237
35102W        W78015  30.909  16.618   3.526  0.1853  0.0484  0.0940
35103W        W78016  28.306   8.879  24.970  0.0653 -0.1256  0.3082
35104W        W78017  31.632  18.091  29.092  0.0495 -0.2073  0.3469
35105W        W78018  23.655  10.247   7.233 -0.0793  0.0810  0.0948
35106W        W78019  32.100  17.020  27.086 -0.3131 -0.1302 -0.0177
35107W        W78020  23.712   9.165  27.395  0.0327 -0.0638  0.3284
35108W        W78021  23.525  13.884  26.237  0.1843  0.1220  0.4634
35109W        W78022  17.719  13.164   1.719  0.1901 -0.1269 -0.2072
35110W        W78023  23.400  11.886  19.253 -0.2022 -0.0172 -0.2412
35111W        W78024  21.055   1.185   9.118 -0.1880 -0.1676  0.4493
35112W        W78025  24.739  14.004  27.540  0.1903  0.0071 -0.3904
35113W        W78026  30.092   6.782  28.747 -0.0364 -0.1133  0.0365
35114W        W78027  27.958   9.079   0.660 -0.1245  0.0685  0.1203
35115W        W78028  22.201  16.000  16.873 -0.0650 -0.3164 -0.1766
35116W        W78029  27.523  32.364   3.423 -0.0619  0.0930  0.0320
35117W        W78030  20.777   4.406   4.579  0.0245  0.2796  0.1565
35118W        W78031  21.463  15.772  25.254 -0.1581 -0.1416 -0.4645
35119W        W78032  28.364  21.554  15.542  0.0536 -0.2580 -0.0444
35120W        W78033  24.528  10.606   0.690 -0.1494 -0.0697 -0.1317
35121W        W78034  29.457  33.867  16.013  0.0487  0.1974  0.0872
35122W        W78035   0.577  17.902  21.937 -0.1152  0.0347 -0.0556
35123W        W78036  18.897   4.596   2.428  0.1223 -0.2790  0.0831
35124W        W78037  31.947  22.680  20.629  0.3914 -0.0434  0.0786
35125W        W78038  29.017  17.105  25.254 -0.1350 -0.0439  0.2623
35126W        W78039  32.840  21.513  10.076  0.0675 -0.0422 -0.1573
35127W        W78040  25.597  17.169  28.768  0.1683 -0.1161  0.1976
35128W        W78041  22.660   9.932  25.908  0.1013 -0.0852 -0.0309
35129W        W78042  32.665  13.064  21.872  0.0040 -0.3105 -0.1998
35130W        W78043  10.276  23.321  22.347 -0.1992  0.1030 -0.1105
35131W        W78044  32.071   5.891  16.327 -0.1200  0.0878 -0.0057
35132W        W78045  26.039  20.697  19.745 -0.0282  0.1150  0.0416
35133W        W78046  25.616   8.216  28.951 -0.3271  0.2068 -0.0379
35134W        W78047  33.712  14.295  15.723  0.0608  0.3268  0.0461
35135W        W78048  18.369   8.453  24.912 -0.2383 -0.1461  0.1821
35136W        W78049  24.640  15.818   2.628 -0.3183  0.1920  0.0951
35137W        W78050   4.219  13.408  29.428  0.0863  0.0502 -0.3053
35138W        W78051  27.812   1.230  19.703  0.1305 -0.2918  0.1146
35139W        W78052  19.868  18.077   1.600  0.1578 -0.0012  0.0893
35140W        W78053  20.260  32.624  25.209  0.1051  0.2442 -0.0370
35141W        W78054  25.456  11.909  23.761  0.0306 -0.0581 -0.0002
35142W        W78055  26.824  14.857  28.262 -0.0742 -0.1699 -0.0852
35143W        W78056  27.964  17.263   3.552  0.1880  0.0894  0.1380
35144W        W78057  22.080   1.835   4.829  0.1672  0.1821 -0.3664
35145W        W78058  21.202   2.831   5.355 -0.2992 -0.1722 -0.1641
35146W        W78059  27.457   2.517  26.047 -0.2635  0.0159  0.0241
35147W        W78060  30.636   2.980  23.829  0.0380  0.0393 -0.0075
35148W        W78061  28.013  12.978  14.109 -0.0119 -0.0583  0.2366
35149W        W78062   7.764  30.939  11.481  0.1699 -0.2420 -0.0817
35150W        W78063  29.346  12.678   2.225 -0.0559  0.0708  0.1690
35151W        W78064   4.633   6.714   0.143  0.1396 -0.0903  0.0485
35152W        W78065  29.921  12.866  16.448 -0.1282 -0.1456 -0.0820
35153W        W78066  23.310   4.360  17.152 -0.1862  0.0306 -0.2292
35154W        W78067  26.364  24.225  27.666 -0.0158  0.1252  0.0529
35155W        W78068  32.543   9.039  21.712  0.0526 -0.1082  0.2077
35156W        W78069  25.490   7.772  29.147 -0.0533  0.3665 -0.1470
35157W        W78070  30.109  17.211  28.130 -0.0945  0.1407  0.2662
35158W        W78071   3.273  16.114   2.898 -0.3816 -0.0066 -0.0913
35159W        W78072  20.534  15.991  25.367 -0.0101 -0.1473 -0.0794
35160W        W78073  30.808   9.002  19.453  0.0149  0.2635  0.0331
35161W        W78074  28.304  16.485  27.831 -0.2086 -0.0551  0.2120
35162W        W78075  29.100   3.087   3.888 -0.0499 -0.0735 -0.0237
35163W        W78076   1.994   2.203  26.013 -0.2608 -0.2077  0.0961
35164W        W78077  26.310   4.621  26.550 -0.0792  0.0510  0.2587
35165W        W78078  21.287   7.967  29.763 -0.2052 -0.0740 -0.1541
35166W        W78079  32.683  12.457  22.841  0.4329 -0.0907 -0.0010
35167W        W78080  32.384   9.139  14.973 -0.0239  0.1472  0.2260
35168W        W78081  31.659  32.556   1.007 -0.0368  0.1533 -0.0464
35169W        W78082  27.671  12.123  22.097 -0.1028 -0.1420 -0.0264
35170W        W78083  34.064  15.948  25.463 -0.0438  0.3243 -0.0590
35171W        W78084  14.185  18.444   5.305  0.0845 -0.0601  0.0705
35172W        W78085   3.051  24.317   4.904 -0.0444 -0.0542  0.3062
35173W        W78086  28.448  11.303  10.096  0.0667 -0.0695  0.3590
35174W        W78087  26.954  15.713  24.115  0.1586  0.1458 -0.1103
35175W        W78088   2.362  13.257  20.588  0.2060 -0.1814 -0.0907
35176W        W78089  30.826  17.618   0.702  0.0434  0.1287 -0.0173
35177W        W78090  29.493  20.917   2.676  0.4123 -0.1531 -0.0108
35178W        W78091  30.261   9.552  29.301  0.1192  0.2460 -0.0850
35179W        W78092   1.311   8.548   0.923 -0.0666  0.3665 -0.2693
35180W        W78093  34.168  12.483   6.331 -0.1822  0.1246  0.4772
35181W        W78094  21.832  16.229  22.161  0.0231  0.0806  0.0101
35182W        W78095   0.622  12.489   0.873 -0.0222 -0.2936 -0.0016
35183W        W78096   0.294   1.120   6.599  0.1829  0.0527 -0.1252
35184W        W78097  22.169  17.172  21.345 -0.0591 -0.1618  0.1709
35185W        W78098  24.961  16.292  25.809  0.0274 -0.4048  0.0335
35186W        W78099   5.094  11.154  26.925 -0.0932 -0.0657  0.0247
35187W        W78100  21.309   7.461   4.966 -0.0234 -0.5805 -0.1601
35188W        W78101  22.016  18.099   4.209 -0.0285  0.1510  0.2340
35189W        W78102  21.773  13.262  28.868 -0.0525 -0.0527  0.1699
35190W        W78103   6.978  19.071  28.206  0.0736 -0.1229 -0.0080
35191W        W78104  28.197  11.227   2.945 -0.0961  0.1191  0.1696
35192W        W78105  27.727  14.116   1.017  0.0515  0.2503  0.1636
35193W        W78106  30.019   6.586  29.629 -0.1023  0.0510 -0.0251
35194W        W78107  27.349  20.411  26.102 -0.2779  0.3175  0.1624
35195W        W78108  27.234  10.762  24.889 -0.2080 -0.1663  0.1489
35196W        W78109  34.150   7.640  28.940 -0.0549  0.0628  0.0571
35197W        W78110  18.935   1.825   5.125 -0.0308  0.1665 -0.1515
35198W        W78111  31.232  34.270  22.349 -0.2490 -0.2592  0.2162
35199W        W78112  28.075   8.620   0.536  0.2360 -0.1946 -0.0199
35200W        W78113  30.303   4.629  21.285 -0.0681 -0.1206 -0.1405
35201W        W78114  23.755   6.352   3.869  0.0723 -0.1548  0.2018
35202W        W78115   0.379  24.994   2.571  0.0596  0.1063 -0.0215
35203W        W78116  23.997  31.510  28.068  0.2868 -0.0310 -0.0751
35204W        W78117  28.272   4.161  20.740 -0.0481 -0.3025  0.2863
35205W        W78118  32.622   7.574  24.337  0.3368  0.3026  0.0211
35206W        W78119   7.941  15.810   0.360  0.1172 -0.1568 -0.1227
35207W        W78120  31.042  14.290  27.019 -0.0898 -0.4875 -0.0874
35208W        W78121  30.925   9.801   1.100  0.4488  0.3121 -0.3022
35209W        W78122  32.021   4.115  24.137  0.1082  0.1807  0.3096
35210W        W78123   3.464  12.871   0.117 -0.0710  0.0476  0.0572
35211W        W78124  34.160   1.440   9.387  0.0478  0.1265  0.0285
35212W        W78125  25.985  13.905  28.771  0.1089  0.1118 -0.5125
35213W        W78126   6.568  13.013  27.165  0.0087  0.2180 -0.1451
35214W        W78127  15.796   7.016  21.715 -0.0351 -0.2389  0.0291
35215W        W78128  24.318   7.688   2.528 -0.0322  0.2187  0.0524
35216W        W78129  29.962  34.221  14.977 -0.0960  0.1290 -0.1448
35217W        W78130   1.369  14.541  24.645  0.0577  0.0066 -0.2220
35218W        W78131  27.972  13.069  26.592  0.0337  0.1305  0.0206
35219W        W78132  31.993  18.980   3.649 -0.0071  0.0027 -0.0202
35220W        W78133  21.148   9.215   2.736  0.0157  0.0996 -0.0613
35221W        W78134   0.856   5.977  27.063  0.1194  0.0815  0.3262
35222W        W78135  27.887  10.475   0.338  0.2015  0.3258 -0.1680
35223W        W78136  33.435  17.472   0.238  0.1328 -0.1167 -0.1823
35224W        W78137  16.580   4.291  25.074  0.0155  0.0690 -0.0398
35225W        W78138   6.400  15.818   2.417 -0.1223 -0.0481  0.3794
35226W        W78139  29.992  10.127   0.543  0.1688 -0.0809 -0.1627
35227W        W78140  25.613   3.683  10.609  0.2834 -0.0878 -0.0885
35228W        W78141   1.831   2.254  24.664  0.3045  0.2336  0.2157
35229W        W78142  16.988   2.603  17.245  0.1060 -0.1596  0.2073
35230W        W78143  16.145  16.270  22.846  0.1976  0.0199  0.0259
35231W        W78144  25.808  15.287   7.900 -0.1603 -0.1579 -0.0978
35232W        W78145  22.446  11.343   2.483 -0.0607 -0.2748  0.0926
35233W        W78146   0.806   6.192   5.566  0.0760  0.1204  0.0206
35234W        W78147   3.270   4.584   8.491 -0.0046  0.2332 -0.1856
35235W        W78148   2.906  14.751  25.889 -0.0808 -0.1541  0.1840
35236W        W78149  30.635   1.031   1.843 -0.1458 -0.0125  0.0583
35237W        W78150  34.053  32.856  21.245  0.2339 -0.0053 -0.1566
35238W        W78151   0.222   8.527  10.059  0.1917  0.0245 -0.0658
35239W        W78152  30.755  18.431  27.893  0.3107 -0.1354 -0.0134
35240W        W78153  26.104   7.561  24.574  0.2009 -0.2546 -0.0361
35241W        W78154   3.167  24.822  28.388  0.0520 -0.1017  0.1508
35242W        W78155   1.420   9.118   0.420  0.2059  0.0566  0.1200
35243W        W78156  33.355  19.482   0.822 -0.3219  0.1771 -0.0079
35244W        W78157  32.837  11.807   9.088  0.1027  0.1463 -0.1986
35245W        W78158  24.852  20.785   4.692  0.1940 -0.3691  0.1202
35246W        W78159  24.832  33.312   1.094  0.0643 -0.1073  0.0826
35247W        W78160  23.865   8.509   1.663  0.1635  0.2352  0.0555
35248W        W78161  22.025   7.977  23.857 -0.2615  0.0885 -0.0004
35249W        W78162  31.817   9.161  28.331 -0.0998  0.3206 -0.0650
35250W        W78163  22.803  18.964  26.893  0.0266  0.0018  0.0271
35251W        W78164  21.078  13.487  29.641  0.1275  0.0861  0.3204
35252W        W78165  23.612  31.160   2.346  0.1923 -0.0054  0.2893
35253W        W78166   2.556  11.020  28.578  0.0189  0.0518  0.0640
35254W        W78167   6.280  11.296  27.827  0.1126  0.0880 -0.0376
35255W        W78168  24.939  14.478  27.592 -0.1084  0.0189  0.0810
35256W        W78169  26.504  11.535   4.697  0.3452 -0.0017 -0.0997
35257W        W78170  34.034  12.606  17.435 -0.0062 -0.3286  0.2384
35258W        W78171  22.910  28.572  22.271  0.2980 -0.1880  0.0913
35259W        W78172  31.647  29.613  21.232 -0.1969 -0.2524 -0.3408
35260W        W78173   2.585   9.098  18.349 -0.1188 -0.0546  0.2947
35261W        W78174  28.834  17.324  17.750  0.0228 -0.1685  0.1042
35262W        W78175   1.389  22.328  16.399  0.0788  0.0416  0.2057
35263W        W78176  27.745  11.412  18.555  0.0692  0.1166  0.0653
35264W        W78177  31.785  23.563  17.739 -0.0934 -0.0471 -0.0105
35265W        W78178  34.114  22.199  22.497  0.6201 -0.1422  0.2207
35266W        W78179  26.757  12.051  25.031 -0.1326  0.2728  0.0862
35267W        W78180  28.111  12.389  16.569 -0.1124 -0.0080  0.2404
35268W        W78181  26.581  11.402  20.005  0.0581  0.4986 -0.1130
35269W        W78182   5.005   5.305  19.685  0.1869 -0.2232 -0.3882
35270W        W78183  25.542   8.484  25.071  0.1430  0.1090 -0.0831
35271W        W78184  26.668  10.498  16.170 -0.4674 -0.2829  0.2550
35272W        W78185   0.222  10.952  16.440 -0.1110 -0.2270 -0.1323
35273W        W78186  33.697  20.075  15.680  0.1347 -0.1635  0.0634
35274W        W78187  21.174  20.983  12.387  0.0758  0.4876  0.1355
35275W        W78188   1.460  18.740  16.595 -0.1530  0.0374  0.2526
35276W        W78189  26.939  29.796  24.393  0.0163  0.1370 -0.3032
35277W        W78190  25.419   9.282  21.864  0.1333  0.1196 -0.1875
35278W        W78191  23.414   9.131  22.616 -0.0709  0.3221 -0.4136
35279W        W78192  26.947   5.658  15.061 -0.0310 -0.0233  0.0087
35280W        W78193  30.938  20.691  19.262 -0.2912  0.0713 -0.2289
35281W        W78194   2.372  16.902  21.594  0.0018  0.0724 -0.0269
35282W        W78195   1.027  13.577  22.985  0.0347  0.1087 -0.0252
35283W        W78196  29.973  14.575  15.905  0.0853  0.1312  0.3559
35284W        W78197   8.881  16.465  18.258  0.3461 -0.2549 -0.1481
35285W        W78198  25.195  26.438  26.515 -0.2957 -0.0569 -0.3514
35286W        W78199  34.334  20.836  17.303 -0.1157 -0.0478  0.1361
35287W        W78200  27.939  17.077  17.187 -0.1240  0.0617 -0.0673
35288W        W78201  10.982  18.095  14.555 -0.0265  0.1656  0.2048
35289W        W78202   9.969  18.949  21.260 -0.1383 -0.2650 -0.2657
35290W        W78203  11.303  13.226  27.557 -0.1977 -0.1748  0.0919
35291W        W78204  34.195  15.153  19.372  0.2378  0.0741 -0.1596
35292W        W78205   4.135  12.045  23.492 -0.1079 -0.0081 -0.0489
35293W        W78206  27.063  17.699  14.419  0.0939  0.0327 -0.0600
35294W        W78207  29.358  19.990  18.640  0.0785 -0.0348 -0.2594
35295W        W78208   2.707   4.597  25.216 -0.0774  0.1030 -0.2634
35296W        W78209  34.150   5.133  23.843 -0.0918 -0.0700 -0.4025
35297W        W78210  24.491   7.112  24.899 -0.0494  0.4044  0.1195
35298W        W78211  26.706  19.870  23.409 -0.1267  0.2350  0.0010
35299W        W78212  25.212  11.455  16.362 -0.0788  0.0743 -0.0661
35300W        W78213  29.990  20.122  14.060  0.2984  0.0383  0.2310
35301W        W78214  32.503   5.166  20.849 -0.0659 -0.1754  0.1870
35302W        W78215  31.799  11.315  26.165  0.0709  0.1859  0.3008
35303W        W78216  32.229  16.544  15.500  0.0829  0.0626 -0.0002
35304W        W78217  32.624  24.079  16.157  0.1656  0.2915 -0.0165
35305W        W78218   3.053  12.488  16.164 -0.3214 -0.0628  0.0169
35306W        W78219  33.363  16.512  17.314 -0.1547 -0.2371  0.0251
35307W        W78220  27.286   5.073  21.048  0.3621 -0.1612  0.0763
35308W        W78221   0.487  18.089  20.069  0.0919  0.3625  0.0256
35309W        W78222  28.650  11.242  15.367 -0.2255  0.0178  0.0337
35310W        W78223  25.220  23.833  25.568  0.4235 -0.2049 -0.0335
35311W        W78224   5.548  15.371  22.544  0.2872  0.1203  0.0256
35312W        W78225  25.930   4.900  24.051 -0.1423 -0.1905 -0.0497
35313W        W78226  34.242  11.953  16.221  0.1015 -0.1258 -0.1481
35314W        W78227  25.060  22.995  16.030 -0.2888  0.2495  0.1344
35315W        W78228  33.857  15.855  24.914  0.0518 -0.0397  0.0372
35316W        W78229  32.115  23.715  28.412 -0.0846 -0.1584  0.1706
35317W        W78230   3.690  16.691  20.827  0.1478 -0.1066 -0.0979
35318W        W78231  31.131  15.638  13.811  0.0599 -0.0948  0.0613
35319W        W78232  26.056  16.350  15.277 -0.1432 -0.1061  0.1256
35320W        W78233  25.706  17.050  22.929 -0.0850 -0.3508 -0.0154
35321W        W78234  34.365  19.259  13.428  0.0129  0.1977 -0.0250
35322W        W78235  29.278  15.011  17.011 -0.3844 -0.2468 -0.2295
35323W        W78236  27.689  13.186  18.664 -0.1178  0.1312 -0.4248
35324W        W78237   5.219  17.264  23.799  0.1219 -0.2367 -0.3003
35325W        W78238   6.149  14.600   2.782  0.0451 -0.2103  0.3544
35326W        W78239   4.481   5.874  19.424  0.0377  0.1935 -0.1217
35327W        W78240  32.106  13.746  14.390 -0.0618  0.2899  0.0361
35328W        W78241   3.450  12.870  23.476  0.2335 -0.0089  0.0152
35329W        W78242  24.892   8.667  18.660  0.0532 -0.0700 -0.1099
35330W        W78243  28.581  11.801  15.322 -0.6444 -0.0097  0.1173
35331W        W78244  26.739  23.198  19.302 -0.0201  0.0989 -0.1847
35332W        W78245  26.449  14.376  26.754 -0.1204  0.1229 -0.0063
35333W        W78246  29.644  12.067  22.384  0.1490  0.0572  0.0215
35334W        W78247  12.334  31.094  19.652 -0.1223 -0.3250 -0.3202
35335W        W78248  28.651  12.439  29.342  0.1217  0.0179  0.1156
35336W        W78249   1.006   6.369  18.435  0.4158  0.1197 -0.0445
35337W        W78250  21.723  22.169  25.097  0.0121  0.0476  0.0044
35338W        W78251  23.023  11.703  15.959 -0.1963 -0.1210  0.0431
35339W        W78252  29.554  16.541  18.059  0.0563 -0.1181 -0.0274
35340W        W78253  24.708  14.122  20.863  0.0909 -0.3643 -0.2707
35341W        W78254  23.169   7.669  20.158  0.0034 -0.2356  0.2042
35342W        W78255   2.436  14.289  21.167  0.2146 -0.0838 -0.2225
35343W        W78256  12.249  15.230  15.221 -0.1563 -0.4165  0.0903
35344W        W78257  29.793  15.861  14.409 -0.0379  0.2754 -0.0122
35345W        W78258  29.655  12.153  14.844 -0.5152 -0.1214 -0.1309
35346W        W78259   3.516  19.476  20.817  0.1904  0.1142 -0.2043
35347W        W78260  31.704  13.765  22.751 -0.0046 -0.2032 -0.2019
35348W        W78261  32.324  18.675  18.017 -0.1313 -0.0309 -0.3087
35349W        W78262   0.486  19.228  18.898 -0.0559 -0.0067  0.1834
35350W        W78263  30.892  12.117  21.374 -0.0508 -0.2166 -0.0164
35351W        W78264  23.799  12.598  24.844  0.4221 -0.1020  0.1822
35352W        W78265  27.048   6.834  29.200 -0.0868 -0.3788 -0.1469
35353W        W78266  33.558  12.006  14.413 -0.4205 -0.0943 -0.0707
35354W        W78267  28.047  18.183  18.659 -0.0097  0.2981  0.1690
35355W        W78268   3.466  13.686  17.517 -0.2374  0.0086  0.1440
35356W        W78269  26.882  21.842  24.856 -0.0959 -0.2644  0.0505
35357W        W78270  17.203   2.856  19.189  0.4127  0.1098  0.0315
35358W        W78271  26.198  14.121  19.996  0.2127  0.3144  0.2293
35359W        W78272  22.539  20.554  12.727 -0.0725 -0.0250  0.0880
35360W        W78273  26.308  12.767  25.862  0.1891  0.0981  0.2075
35361W        W78274  21.384  27.941  16.488 -0.1188  0.0248 -0.0575
35362W        W78275  30.541  16.058  15.626  0.0623  0.2245 -0.2314
35363W        W78276  18.064   3.119  28.145  0.0888 -0.2403  0.1624
35364W        W78277  27.858  13.372   5.659  0.2594 -0.0440  0.2153
35365W        W78278   0.289  13.543  21.293  0.0583  0.0087 -0.0467
35366W        W78279  34.158   9.717  26.111 -0.0372 -0.2049 -0.2369
35367W        W78280   8.317  12.620  22.448  0.3886 -0.2153  0.1334
35368W        W78281  18.201   9.729  18.662 -0.4471 -0.0028  0.1090
35369W        W78282   0.362  17.489  20.356  0.3143 -0.1622 -0.0207
35370W        W78283  24.873  20.268  17.524 -0.0602 -0.0981  0.4305
35371W        W78284  31.391   2.319  18.637 -0.1181  0.0262 -0.2055
35372W        W78285  29.943  19.939  21.078 -0.0337  0.4070 -0.1583
35373W        W78286  27.210  12.729  20.267 -0.1277 -0.0097 -0.1448
35374W        W78287  32.213  31.327  15.616 -0.1367  0.0263  0.0253
35375W        W78288  31.247   7.540  26.846  0.2715  0.0661  0.2778
35376W        W78289  29.936  10.053  14.659 -0.1224 -0.0712  0.1519
35377W        W78290  23.343  31.624  18.453  0.0897  0.2484  0.0006
35378W        W78291  28.820   9.063  20.452 -0.2180  0.1868  0.2739
35379W        W78292  34.281  24.195  14.294  0.0099 -0.0318  0.1617
35380W        W78293  32.391  11.697  29.267  0.0697  0.2746  0.1300
35381W        W78294   1.144  11.647  18.832  0.3842  0.2621 -0.0706
35382W        W78295  21.511  12.860  19.624  0.0399 -0.0228  0.1565
35383W        W78296  25.258  18.067  27.526 -0.1359 -0.0156  0.1014
35384W        W78297  20.585  10.113  21.674 -0.0246  0.2785  0.1745
35385W        W78298  32.531  17.296  18.015  0.0247 -0.2933 -0.2221
35386W        W78299   1.175   9.772  16.381  0.0528  0.0262  0.0750
35387W        W78300   1.147  16.947  18.629  0.0419 -0.0353 -0.2685
35388W        W78301  33.870  17.636  14.981  0.0387 -0.0404 -0.2701
35389W        W78302  32.519  21.477  14.901  0.0037  0.1118  0.0805
35390W        W78303  22.768  16.947  13.706  0.0450  0.0517  0.2015
35391W        W78304  30.965  21.764  13.584  0.1548 -0.0752  0.3357
35392W        W78305   5.965  11.527  20.559 -0.0271  0.0510  0.2251
35393W        W78306  32.964  19.463  16.682  0.2186 -0.2639  0.1495
35394W        W78307  28.833  20.556  14.969 -0.3877 -0.0686  0.1949
35395W        W78308  22.788   4.082  13.533 -0.0388 -0.2331 -0.3178
35396W        W78309   3.491  17.056  17.491 -0.1667  0.1782 -0.1048
35397W        W78310   1.444  22.632  25.037 -0.3687  0.0228 -0.0019
35398W        W78311  24.116  16.120  19.814  0.1349  0.0783 -0.0091
35399W        W78312  27.006  20.783  24.444 -0.2763 -0.2098 -0.1170
35400W        W78313  19.215  30.759  14.572 -0.4589 -0.0657  0.0784
35401W        W78314   7.432  12.893  23.170 -0.0687  0.2039  0.0373
35402W        W78315  29.841  14.834  17.173 -0.2813 -0.4438 -0.0170
35403W        W78316  21.184  10.147  24.289 -0.2964 -0.1628 -0.2913
35404W        W78317   2.304  17.301  22.033  0.0289  0.1550  0.0041
35405W        W78318   4.239  11.561  14.916  0.2989  0.0411  0.1481
35406W        W78319  24.316  11.740  16.529 -0.1377 -0.0332 -0.2336
35407W        W78320  27.088  19.127  19.214 -0.1149 -0.0218 -0.6907
35408W        W78321  34.405   0.854  19.056 -0.0958  0.0428  0.0176
35409W        W78322  27.220  21.890  14.477 -0.1651 -0.2625 -0.1103
35410W        W78323   0.991  10.712  18.210 -0.0782  0.0546  0.4761
35411W        W78324  20.775  14.921  12.188  0.2123  0.3783  0.0133
35412W        W78325   4.155  10.377  18.618 -0.2785  0.0546  0.1771
35413W        W78326  24.786   0.737   0.338  0.3244  0.1007  0.0393
35414W        W78327  33.034  11.416  19.930  0.0741  0.1568  0.1121
35415W        W78328  26.087   4.135  18.154 -0.1470 -0.0239 -0.1121
35416W        W78329  29.397  12.352  20.347 -0.4267 -0.3555 -0.0237
35417W        W78330   0.744  11.763  17.425  0.0257 -0.2205 -0.1011
35418W        W78331  28.547  16.987  26.398 -0.1774  0.4064 -0.2451
35419W        W78332  27.412  11.627  17.854 -0.1610  0.0236 -0.0649
35420W        W78333  23.268   0.946  22.258 -0.1209  0.0731  0.1725
35421W        W78334  24.315  17.257  19.595  0.3701 -0.0655 -0.2567
35422W        W78335  31.096   9.931  24.384  0.1615  0.3270 -0.1054
35423W        W78336  26.752  10.277  18.591 -0.3828  0.0276 -0.1460
35424W        W78337  29.232  18.296  14.027  0.0406 -0.0739 -0.3500
35425W        W78338   5.907  17.461  17.101  0.0681 -0.0254 -0.1275
35426W        W78339  32.328   9.370  16.394 -0.0276  0.1101  0.0158
35427W        W78340   4.968   5.644  17.692 -0.1307 -0.2225  0.1409
35428W        W78341  22.231  17.377  11.998 -0.0961 -0.0038 -0.2437
35429W        W78342  29.875  21.367  16.650 -0.0821 -0.2269 -0.0843
35430W        W78343  28.187  15.411  14.450 -0.0438 -0.0755 -0.0017
35431W        W78344  31.701  15.227  15.571  0.1858 -0.2492 -0.0514
35432W        W78345  25.755  18.632  14.151  0.6004  0.0576  0.1733
35433W        W78346  30.473  26.058  14.320 -0.0589 -0.0289 -0.0396
35434W        W78347  30.897  24.184  21.877 -0.1017  0.5591  0.0006
35435W        W78348  24.421   7.639  21.091  0.1746 -0.1242  0.1456
35436W        W78349  26.935   9.629  23.563  0.1424  0.2466 -0.0011
35437W        W78350  25.822   3.972  23.118  0.2844 -0.2083  0.0135
35438W        W78351  24.135   9.071  14.746  0.0795 -0.1740  0.3021
35439W        W78352  34.227  20.138  20.325  0.0195  0.0459  0.0866
35440W        W78353  30.300  14.191  16.047  0.0315 -0.1229 -0.2729
35441W        W78354  31.556  29.291  16.163 -0.1134  0.0069  0.0203
35442W        W78355  22.877  20.450  16.684 -0.0571 -0.1620  0.2591
35443W        W78356  26.967  19.652  20.040 -0.0425 -0.1671  0.0122
35444W        W78357  32.135  12.498  19.561  0.0160 -0.0204 -0.0620
35445W        W78358  20.319  18.590  12.684  0.0311 -0.2431 -0.0712
35446W        W78359  33.420  19.382  24.195  0.1707 -0.1761  0.1784
35447W        W78360  30.090  14.027  23.065  0.0443  0.0903  0.3112
35448W        W78361   5.340  16.354  17.804  0.0082 -0.0087  0.0601
35449W        W78362  10.227  14.913  19.990  0.1082  0.1935  0.1656
35450W        W78363  32.387   3.964  18.848  0.0353  0.0213 -0.2252
35451W        W78364  26.532  22.033  13.280 -0.2124  0.0980 -0.3805
35452W        W78365  29.917   4.756  14.899 -0.1170  0.0815 -0.1515
35453W        W78366  33.972  15.169  15.941 -0.1009  0.2197  0.2181
35454W        W78367  32.146  20.530  14.077  0.0903  0.1689  0.0091
35455W        W78368  32.104  26.692  22.327  0.1811  0.2631  0.1921
35456W        W78369  25.194  20.341  20.383 -0.3339  0.2955  0.1894
35457W        W78370  24.995  15.925  19.535 -0.3184  0.0541  0.1187
35458W        W78371   4.813  20.655  26.505  0.1400 -0.0989  0.1692
35459W        W78372   8.501  10.396  23.993 -0.2661  0.0364  0.0084
35460W        W78373  26.252  13.009  22.131 -0.0413 -0.0152 -0.1964
35461W        W78374  33.821   7.846  19.075  0.0885  0.0791  0.0788
35462W        W78375  20.356  21.214  16.930 -0.0974  0.2103 -0.1116
35463W        W78376   1.263  10.402  23.402 -0.0194 -0.1754  0.1275
35464W        W78377  20.764  19.285  13.282  0.0458  0.3045 -0.0143
35465W        W78378  26.125  33.140  14.139  0.2803 -0.0156  0.0566
35466W        W78379  28.716  13.322  15.379  0.0861  0.1230 -0.0409
35467W        W78380  32.425  19.265  20.646 -0.2246 -0.3285  0.1979
35468W        W78381   1.097  17.780  13.509  0.0132  0.2582 -0.1853
35469W        W78382  28.935  13.758  16.858  0.0936  0.2712  0.0689
35470W        W78383  21.861  10.463  13.492  0.0961 -0.1967  0.0309
35471W        W78384  31.279   6.570  21.887 -0.2445 -0.1090  0.2258
35472W        W78385   0.594  14.814  18.204 -0.0248  0.0638 -0.0976
35473W        W78386   5.246  13.852  17.384 -0.2344  0.0632  0.0678
35474W        W78387  26.255   1.516  15.439 -0.1366  0.2915  0.1341
35475W        W78388  29.101  10.970  25.783 -0.0387 -0.0144  0.0923
35476W        W78389  34.055  10.204   0.214  0.0325 -0.0678 -0.0873
35477W        W78390   0.330  17.752  29.095  0.4247  0.0482 -0.0996
35478W        W78391  32.046  17.267  19.012 -0.2815 -0.3020 -0.0428
35479W        W78392  23.561  11.155  19.417 -0.1067  0.0076 -0.1207
35480W        W78393   3.677   5.051  19.489 -0.2787 -0.1269 -0.0864
35481W        W78394  23.652  12.827  16.134 -0.2087  0.2500  0.0721
35482W        W78395   3.276  12.099  20.418 -0.1445  0.1244  0.1199
35483W        W78396  19.854  22.327  15.453  0.0300 -0.2945  0.3155
35484W        W78397   9.105   4.657  19.253 -0.1477  0.0941  0.0281
35485W        W78398  25.240   3.128  27.106 -0.0542  0.1471 -0.0931
35486W        W78399  11.151  10.715  25.998 -0.2236 -0.0715  0.1688
35487W        W78400  20.530   2.426  22.249  0.1947 -0.0874 -0.1341
35488W        W78401  32.299  16.609  17.875 -0.0190  0.0364 -0.0994
35489W        W78402  30.751  15.186  14.330  0.2350  0.2697  0.0317
35490W        W78403  24.857   9.847  22.832  0.1788 -0.4386 -0.0102
35491W        W78404  27.638  12.236  15.631 -0.0328 -0.0907 -0.3967
35492W        W78405  30.385  17.628  16.052 -0.0939  0.0582  0.0010
35493W        W78406  23.879   6.746  15.857 -0.1566  0.0646  0.2159
35494W        W78407  26.442  21.381  21.708 -0.4122 -0.0570 -0.2285
35495W        W78408  31.545  10.583  26.451  0.0405  0.0233  0.1535
35496W        W78409  30.277  11.189  20.409 -0.1820 -0.0206  0.0753
35497W        W78410   0.564  12.341  15.728  0.3592  0.1755 -0.0215
35498W        W78411  29.417  15.895  18.535 -0.0088 -0.3120  0.0088
35499W        W78412   4.865   9.245  25.844 -0.0044 -0.2870  0.2452
35500W        W78413  31.673  18.101  15.879 -0.1409 -0.2773 -0.1595
35501W        W78414  27.769   7.998  15.271  0.1225 -0.1022  0.1663
35502W        W78415   7.021  14.677  22.242  0.0586 -0.0800 -0.0418
35503W        W78416  34.255  21.138  19.178  0.0473 -0.3216 -0.2287
35504W        W78417  27.364  13.476  23.059  0.0892  0.2064  0.0189
35505W        W78418  28.751  19.833  17.328  0.1401 -0.0764  0.0283
35506W        W78419  25.948   9.089  14.827 -0.0924 -0.0147 -0.1204
35507W        W78420  16.478   1.177  16.957  0.1821  0.1004  0.2257
35508W        W78421  24.672  13.455  15.145  0.0703 -0.1691 -0.0633
35509W        W78422  30.383  21.495  22.094 -0.0905 -0.3146 -0.4727
35510W        W78423  18.176  15.494  22.693  0.0783  0.0031 -0.2045
35511W        W78424  31.699  24.380  19.718 -0.0049 -0.1610  0.0871
35512W        W78425  30.221  15.942  17.517 -0.2042  0.1273 -0.1784
35513W        W78426  29.132  18.045  22.515  0.1478  0.3488 -0.0741
35514W        W78427  33.580   8.144  21.656 -0.0897  0.1240  0.0934
35515W        W78428  31.258  21.343  20.742  0.2604 -0.1850 -0.0155
35516W        W78429   2.290   1.019  19.689 -0.1850 -0.0358 -0.3707
35517W        W78430  27.595  22.781  14.102 -0.0840  0.2408  0.3673
35518W        W78431  30.535  11.161  16.108  0.0618 -0.1522  0.4152
35519W        W78432  31.166  28.942  21.642  0.1032 -0.1871 -0.0261
35520W        W78433  27.184  14.229  14.697 -0.2689  0.0236 -0.0994
35521W        W78434  17.587  30.866  23.052  0.3086  0.1834  0.2477
35522W        W78435  27.577  13.855  17.487  0.3193  0.0826 -0.0921
35523W        W78436  29.810   6.940  19.062 -0.0911 -0.1082  0.1062
35524W        W78437  31.151  15.319  13.434 -0.2123 -0.2877 -0.2467
35525W        W78438  32.886  13.364  24.383 -0.0381 -0.1718  0.1681
35526W        W78439  31.589  10.290  26.934  0.0166 -0.1427  0.1765
35527W        W78440  21.729  12.225  16.687  0.1018  0.0757  0.0759
35528W        W78441  27.132  34.359  21.963  0.2028 -0.1057  0.3829
35529W        W78442   2.157  15.491  14.952 -0.1535  0.0332 -0.0000
35530W        W78443  28.939  25.151  27.371  0.1580  0.0285  0.0801
35531W        W78444   0.708   8.117  16.055  0.0660 -0.2777  0.4003
35532W        W78445  30.263  20.723  25.944 -0.2758 -0.1121  0.2488
35533W        W78446   4.182  19.518  20.223  0.1715  0.2931  0.1844
35534W        W78447  26.844   5.806  16.610  0.1851  0.1185 -0.3006
35535W        W78448   0.092  20.226  18.874 -0.1273 -0.1626  0.1490
35536W        W78449  28.841   6.901  21.667 -0.0937 -0.2260  0.0829
35537W        W78450  28.103   8.998  19.366 -0.0869  0.1461  0.0048
35538W        W78451   8.475  20.649  13.777  0.2118  0.0661  0.0617
35539W        W78452  27.152   5.697  23.085 -0.2309  0.0369  0.1400
35540W        W78453  33.216  21.951  20.184  0.0196 -0.1480  0.1566
35541W        W78454  27.112  15.429  18.584  0.0328  0.1690 -0.1000
35542W        W78455   7.151  18.140  26.079 -0.0173 -0.0291 -0.5209
35543W        W78456  21.333  19.533  19.470 -0.0375  0.3809 -0.1056
35544W        W78457  20.603  12.099  15.100 -0.4012  0.0549 -0.0874
35545W        W78458  31.713   9.384  25.611 -0.2471  0.1622  0.0029
35546W        W78459  29.520   3.812  18.054  0.3520  0.3157 -0.2883
35547W        W78460  32.855  16.612  19.489  0.0639  0.1093  0.1295
35548W        W78461   3.538   2.166  28.032 -0.1057  0.1726  0.0194
35549W        W78462  27.103  14.184  14.209  0.1797  0.0505 -0.0387
35550W        W78463   4.529  23.319  18.122 -0.2684 -0.0912  0.0509
35551W        W78464  31.456  19.260  27.933 -0.0455  0.1370  0.2153
35552W        W78465   6.616   9.783  19.934  0.0045  0.1555  0.0862
35553W        W78466  27.768  15.444  13.467  0.0426 -0.1834  0.0892
35554W        W78467   2.804  19.292  14.816  0.1443  0.2166 -0.0275
35555W        W78468  31.378  24.568  15.123 -0.0575 -0.1024  0.0087
35556W        W78469  27.074  13.652  17.762  0.0526 -0.0639 -0.2970
35557W        W78470  32.125  15.104  14.338 -0.3674 -0.1342  0.0061
35558W        W78471  29.543  18.997  16.950 -0.2193  0.1434 -0.0534
35559W        W78472   0.919  16.366  15.087  0.2079 -0.0560  0.0058
35560W        W78473  26.413   0.771  23.110  0.1192  0.2647  0.2311
35561W        W78474  31.270  30.092  17.265  0.1259  0.0184  0.3104
35562W        W78475  28.290  17.996  27.000  0.2231 -0.0189  0.0400
35563W        W78476   4.357  16.133  23.213  0.1440 -0.2691  0.1237
35564W        W78477  19.382  10.248  18.229 -0.0201 -0.3025 -0.1490
35565W        W78478  24.655  17.198  14.461  0.4058  0.0700  0.0776
35566W        W78479   5.309  16.896  18.068  0.0250  0.0727 -0.0458
35567W        W78480   0.709   3.297  18.006  0.1102 -0.1821 -0.0577
35568W        W78481  28.884  11.034  19.817 -0.1927  0.0511 -0.2760
35569W        W78482  30.764  11.867  18.598 -0.3989 -0.1051  0.1208
35570W        W78483  29.950  17.769  16.200 -0.0632 -0.1650 -0.2610
35571W        W78484  31.116  13.689  19.193  0.0959 -0.0135  0.1901
35572W        W78485   1.612   4.642  23.223 -0.1824  0.0294 -0.1295
35573W        W78486  34.210  19.486  21.552  0.3066 -0.1871  0.0545
35574W        W78487  29.049   4.144  23.429 -0.0489 -0.0674  0.1025
35575W        W78488  12.661   7.414  22.657  0.0744 -0.0295 -0.1534
35576W        W78489  33.504  15.381  13.927 -0.1753  0.0309  0.2177
35577W        W78490  27.339  12.561  15.022 -0.2336 -0.0498  0.1625
35578W        W78491  24.062  25.604  16.825  0.0011 -0.0830 -0.1409
35579W        W78492   5.460   5.199  20.427  0.2610 -0.2816  0.0223
35580W        W78493  28.328  28.965  18.468 -0.0094  0.2305  0.2846
35581W        W78494  34.258  13.407  21.196 -0.1036  0.1397  0.2414
35582W        W78495   1.666  19.376  14.177 -0.0360 -0.1543  0.2537
35583W        W78496  11.828  15.513  21.037  0.1164  0.0094  0.1782
35584W        W78497  21.754  13.718  15.708  0.1731 -0.1033 -0.1188
35585W        W78498  28.474  17.845  18.776 -0.1322 -0.1590  0.2664
35586W        W78499  30.155  22.449  19.083 -0.0964 -0.3341 -0.0043
35587W        W78500   1.245  16.614  16.149  0.1177 -0.2401  0.1697
35588W        W78501  25.326  21.441  12.842  0.2259 -0.0352  0.3131
35589W        W78502  23.163  14.265  21.249 -0.0871  0.2549  0.0521
35590W        W78503   9.111  16.829  17.143 -0.0878  0.2604 -0.1936
35591W        W78504  34.312  11.523  19.866 -0.1036 -0.2783 -0.0357
35592W        W78505  30.932  13.892  21.271 -0.0575 -0.2232 -0.0342
35593W        W78506  24.195  10.499  17.923  0.2884  0.3230 -0.0192
35594W        W78507  29.560   7.172  24.157  0.0055  0.0264  0.1925
35595W        W78508  19.217  23.525  25.078 -0.1205 -0.0554  0.1340
35596W        W78509  30.588  23.551  14.416  0.3467  0.2680  0.2355
35597W        W78510   0.556  23.087  21.412  0.2544  0.1623 -0.1486
35598W        W78511  32.546  10.831  20.485  0.0931  0.0632 -0.1939
35599W        W78512   0.599  12.921  22.756  0.4131  0.0588  0.1695
35600W        W78513  32.702  14.165  24.589 -0.2550 -0.2417  0.0098
35601W        W78514  33.009   0.477  23.445  0.0114 -0.0151  0.0987
35602W        W78515  32.772  10.240  22.977  0.0870  0.3470  0.0233
35603W        W78516  27.096  11.796  14.073  0.1024  0.3095  0.2849
35604W        W78517  20.327   8.246  15.183  0.2195  0.1989 -0.1564
35605W        W78518   2.011  10.403  17.244 -0.0950 -0.2007 -0.2456
35606W        W78519  30.890  19.445  16.265  0.1350 -0.0947 -0.0720
35607W        W78520  27.460  17.465  22.216  0.0730  0.0990  0.0816
35608W        W78521  27.335  15.040  13.567  0.2835  0.1690 -0.0994
35609W        W78522  22.220  19.827  15.371  0.2193 -0.1792  0.2268
35610W        W78523  34.223  18.181  18.113  0.1502 -0.0338  0.0269
35611W        W78524  30.656  14.649  14.342 -0.2902 -0.1602 -0.4613
35612W        W78525  30.614  14.886  23.137  0.2159  0.0778  0.1450
35613W        W78526  32.631   3.200  20.144  0.0688  0.0012  0.0641
35614W        W78527  25.852  21.279  18.138 -0.2129 -0.4089 -0.0558
35615W        W78528  26.506  17.929  16.126  0.0100 -0.1934  0.0343
35616W        W78529  33.862  12.748  22.831  0.0419  0.1054  0.2463
35617W        W78530  26.619  20.469  21.618  0.1452  0.2786 -0.0011
35618W        W78531  29.119  19.479  14.919  0.0448 -0.0037  0.0134
35619W        W78532  31.405  11.501  16.116 -0.2204  0.3137 -0.0617
35620W        W78533  20.679  14.807  14.327 -0.1511  0.0181  0.0471
35621W        W78534  27.201  21.323  15.478  0.1003 -0.1401  0.1069
35622W        W78535  30.679  12.552  22.486 -0.0223  0.2645  0.5067
35623W        W78536  32.354  25.778  17.102 -0.1793 -0.1792 -0.4279
35624W        W78537  33.326  12.931  22.643 -0.0591 -0.0781  0.2096
35625W        W78538  32.375   6.138   0.070  0.1382  0.3019  0.0601
35626W        W78539   5.948  15.231  14.236 -0.3705  0.1851  0.0559
35627W        W78540  32.934   5.654  23.083  0.1696 -0.0384 -0.1616
35628W        W78541  23.408  24.754  20.060 -0.2177 -0.0064 -0.0303
35629W        W78542  21.916  18.538  12.179 -0.3303  0.0477 -0.0195
35630W        W78543  20.367  11.761  14.714 -0.0142  0.1538  0.0823
35631W        W78544  31.651  23.147  17.317 -0.1118 -0.1865 -0.1728
35632W        W78545  29.283   7.425  17.681  0.0529 -0.3126  0.3905
35633W        W78546  30.709  28.838  28.471 -0.2392 -0.1020 -0.0616
35634W        W78547  31.903  11.985  14.855  0.0998  0.1633 -0.0105
35635W        W78548   3.854  13.500  19.363  0.2268  0.0018 -0.0620
35636W        W78549  22.015  24.851  17.373 -0.2756  0.1992  0.0917
35637W        W78550   2.519  10.890  23.206  0.6043  0.2347  0.3325
35638W        W78551  23.613  21.812  21.265  0.0129 -0.1893 -0.1424
35639W        W78552  20.691   9.097  21.579  0.1478 -0.1826  0.1501
35640W        W78553  23.351   1.403  17.154  0.1015  0.0947  0.2354
35641W        W78554  33.646   9.500  22.741 -0.0081 -0.2378 -0.2713
35642W        W78555  32.709   4.807  18.512 -0.0662  0.0919  0.0432
35643W        W78556  30.738   8.251  22.144  0.2478  0.0209  0.2644
35644W        W78557  24.134  16.586  18.882  0.0145  0.1339 -0.0898
35645W        W78558  27.435  21.343  13.657 -0.1951  0.1281  0.1118
35646W        W78559  34.289  13.423  17.988 -0.0976  0.2115 -0.0134
35647W        W78560  31.924  19.181  15.968 -0.0653  0.1214 -0.3713
35648W        W78561   2.534   2.181  20.149  0.0820 -0.0357 -0.2374
35649W        W78562  30.502   6.977  16.267  0.1823 -0.0266  0.1166
35650W        W78563  26.125  11.216  19.772  0.2812 -0.1391  0.1262
35651W        W78564  33.851  14.067  20.496  0.3557 -0.0372  0.1977
35652W        W78565  31.636  20.107  15.152  0.0993 -0.0253  0.2316
35653W        W78566  21.859  16.064  14.781 -0.2571 -0.0441 -0.2131
35654W        W78567  30.356   9.907  21.981 -0.2414  0.0595 -0.3006
35655W        W78568  20.820  24.084  19.805  0.0773  0.0627  0.0711
35656W        W78569  30.716  13.066  21.635 -0.0923  0.0444 -0.0755
35657W        W78570   4.740  12.370  29.704 -0.0196  0.2100 -0.1641
35658W        W78571  33.910  12.645  16.865 -0.3142 -0.1249  0.0522
35659W        W78572  32.376  17.071  28.517  0.1434 -0.0814  0.0890
35660W        W78573   0.722  22.572  21.459 -0.0706 -0.0683 -0.0156
35661W        W78574  30.776   5.402  18.669  0.0597  0.3024 -0.0226
35662W        W78575  29.957  13.171  20.958 -0.1737 -0.0173 -0.2387
35663W        W78576  26.126   9.356   3.812  0.1406  0.2372 -0.2089
35664W        W78577   2.052  11.190  20.934  0.1137  0.0919  0.3886
35665W        W78578  32.636  10.358  22.508  0.1478 -0.1202 -0.1782
35666W        W78579   1.559   9.056  18.954  0.1084 -0.0659  0.0465
35667W        W78580  19.923   4.050  25.245  0.1364  0.1823 -0.1279
35668W        W78581  25.037  11.849  19.624  0.0091  0.1346  0.0286
35669W        W78582   7.127   7.832  17.789  0.0357 -0.1055 -0.0269
35670W        W78583  27.761  14.861  14.741 -0.0652  0.1168 -0.0341
35671W        W78584  26.443   9.671  28.671 -0.2383 -0.2030 -0.1079
35672W        W78585  32.839  10.265  28.110 -0.2530  0.2531  0.0617
35673W        W78586  28.440   6.805  22.819  0.1852  0.0200 -0.3795
35674W        W78587  28.996   9.158  26.415 -0.1944  0.0677  0.2497
35675W        W78588  33.628   7.722  17.969 -0.2436 -0.1337  0.1504
35676W        W78589  22.668   6.719  19.017 -0.0073  0.2842  0.1694
35677W        W78590  26.093   1.128  19.181  0.1154  0.0030 -0.0465
35678W        W78591   3.841  22.429  24.621  0.5321  0.3100 -0.0335
35679W        W78592  27.028  30.884  25.261  0.1093 -0.0517  0.1419
35680W        W78593   0.936  14.238  21.516  0.0403  0.3154 -0.0518
35681W        W78594  30.073  14.807  20.377 -0.0132 -0.1017 -0.3303
35682W        W78595   9.743  10.937  29.107 -0.0159 -0.2847 -0.1367
35683W        W78596  26.089  21.362  14.994 -0.1212 -0.0415 -0.0598
35684W        W78597  27.243  15.418  16.092 -0.1217  0.0211  0.0256
35685W        W78598  22.703  13.243  27.840  0.3863  0.1214 -0.0411
35686W        W78599  11.487   8.706  22.459 -0.4785  0.0461  0.2794
35687W        W78600  16.646  21.558  26.387 -0.0076  0.1581 -0.0867
35688W        W78601  26.653  21.362  28.010 -0.2976 -0.2191  0.4800
35689W        W78602  28.235  23.685   0.171  0.1337  0.1156 -0.0816
35690W        W78603   8.714  14.614  21.801 -0.4282  0.0199  0.0522
35691W        W78604  21.810  32.180  19.863  0.2662  0.2174  0.2613
35692W        W78605  30.208  27.454  17.420  0.2715 -0.2370  0.2104
35693W        W78606   6.175   8.232  23.194  0.1204  0.1242 -0.2386
35694W        W78607   6.563  18.876  22.844 -0.0314 -0.1459  0.0050
35695W        W78608   0.683  16.631  15.627 -0.1040 -0.0797  0.1003
35696W        W78609  20.621  10.414  22.119 -0.2934  0.0704  0.2085
35697W        W78610  23.243   9.370  19.358 -0.1226  0.0883 -0.1885
35698W        W78611  28.301   5.632  17.359  0.1305  0.2121  0.2971
35699W        W78612  31.119  14.259  20.981  0.2394  0.2649  0.1548
35700W        W78613  33.380  15.141  19.507 -0.1039 -0.3717 -0.1449
35701W        W78614  32.187   8.386  28.323 -0.3443  0.0424 -0.3376
35702W        W78615  31.238  11.680  26.785 -0.1109 -0.3997  0.0566
35703W        W78616  26.599  22.682  19.600  0.2495  0.2292  0.1255
35704W        W78617  10.683  17.837  26.348  0.2785  0.0770  0.1111
35705W        W78618  27.515  21.946  14.862 -0.0979  0.1131  0.2286
35706W        W78619  33.229  17.915  14.103  0.0723  0.0791  0.0663
35707W        W78620  22.753  12.465  27.321  0.0909  0.2990  0.0024
35708W        W78621   2.174   8.302  18.770  0.0811 -0.0796 -0.1049
35709W        W78622  21.565   6.046  24.200 -0.0981 -0.1765 -0.2972
35710W        W78623  32.697   8.770  24.195  0.3162 -0.0954 -0.1902
35711W        W78624  20.565  23.067  24.686 -0.1997 -0.1940 -0.1488
35712W        W78625  29.667   9.974  17.562  0.2585 -0.2988 -0.2244
35713W        W78626   1.964   7.975  24.238  0.2074  0.1419  0.0650
35714W        W78627  21.262   5.380  24.009  0.0760 -0.1104  0.2863
35715W        W78628  34.102  16.316  14.279  0.5071  0.2471  0.1271
35716W        W78629   2.709  20.100  26.459  0.1590  0.5798  0.2621
35717W        W78630   1.898   7.881  18.653  0.1612  0.0192 -0.1714
35718W        W78631  22.622  17.718  25.817 -0.0005  0.1060  0.2317
35719W        W78632  22.442   6.523  20.838 -0.3420  0.0666  0.1590
35720W        W78633  24.374  14.212  14.347 -0.1495 -0.1059  0.1165
35721W        W78634  25.918  15.640  20.892  0.0933  0.0131  0.1523
35722W        W78635  32.621  28.410  20.982  0.2680  0.0888  0.1758
35723W        W78636  24.606  19.390   8.440 -0.0865 -0.0546 -0.1466
35724W        W78637  26.721  11.816   1.031 -0.0044 -0.2802 -0.1824
35725W        W78638  18.503  13.765  13.591  0.2025 -0.1202  0.0891
35726W        W78639  32.414  11.570  19.295  0.0676  0.2957 -0.1749
35727W        W78640   4.369  15.267  28.551  0.2460  0.0763 -0.2296
35728W        W78641  26.781  11.069  25.416  0.4033 -0.1863  0.1810
35729W        W78642  28.400  15.465  15.481  0.4581 -0.0155 -0.3499
35730W        W78643  25.664  12.683  21.255  0.0362  0.2601  0.1679
35731W        W78644  28.654  11.773  25.982  0.0357  0.0593 -0.2203
35732W        W78645  28.028  14.669  29.455  0.0029  0.4061  0.0186
35733W        W78646  33.379  10.941  15.127 -0.1004  0.0387  0.1015
35734W        W78647  32.498  13.043  18.708  0.0512 -0.1777  0.1129
35735W        W78648  32.960  13.345  22.572  0.1250  0.0431  0.1703
35736W        W78649  28.641   9.533  15.486  0.0091  0.0407 -0.0811
35737W        W78650  31.284  20.885  18.052 -0.1142  0.2104 -0.3375
35738W        W78651  17.471  17.027  14.127 -0.1404 -0.0709  0.3189
35739W        W78652  28.282   7.117  16.582  0.0472  0.0111 -0.2476
35740W        W78653   2.216   5.563  26.460  0.1009 -0.0952  0.0924
35741W        W78654  27.760  24.018  16.445  0.0087 -0.0918 -0.1473
35742W        W78655  23.231  10.106  16.290  0.0173  0.2108  0.0516
35743W        W78656  24.596  21.469  23.322 -0.1905  0.0541  0.4258
35744W        W78657  30.934  10.687  27.875 -0.0132 -0.3129 -0.0109
35745W        W78658  33.233  19.010  17.640  0.2946  0.0330 -0.1262
35746W        W78659  29.669   7.586  23.795  0.1216  0.0044 -0.0814
35747W        W78660   0.076   8.444  20.073 -0.0154 -0.2024  0.0653
35748W        W78661  25.435   8.899  16.131 -0.0053 -0.1142  0.3110
35749W        W78662  18.862   3.160  19.369  0.2026 -0.4273  0.3038
35750W        W78663  25.319  10.870  17.879 -0.0376  0.0070 -0.0403
35751W        W78664  27.170  34.492  28.081 -0.0263  0.1070  0.0917
35752W        W78665   6.052  22.927  22.464 -0.0549  0.0743  0.1677
35753W        W78666  28.726  29.834  15.119  0.0911 -0.1480 -0.2067
35754W        W78667   7.648  10.858  16.192  0.0194 -0.0627 -0.0768
35755W        W78668   1.283   3.384  17.544  0.1505  0.1052 -0.3458
35756W        W78669  10.668   8.109  22.111  0.0070  0.1969 -0.0287
35757W        W78670  22.984  24.646  15.769  0.0023 -0.0177  0.1223
35758W        W78671  12.154   3.402  25.432 -0.0165 -0.1173  0.1386
35759W        W78672   1.078   8.869  17.994 -0.1661 -0.0331  0.0834
35760W        W78673  22.808   5.622  21.376  0.0066  0.2146  0.0554
35761W        W78674   8.554   8.666  24.233  0.1296 -0.0258  0.1707
35762W        W78675   1.027  15.185   1.653 -0.2340  0.1204  0.2117
35763W        W78676  25.872   5.610  20.961 -0.1682 -0.2836  0.2083
35764W        W78677  22.846  17.521  20.224 -0.0152 -0.2424  0.1494
35765W        W78678  30.823  21.209  15.490  0.0306  0.0642 -0.0826
35766W        W78679   4.293  14.229  22.472 -0.0378 -0.0371  0.1441
35767W        W78680  25.344  12.900   0.044  0.3175  0.3049 -0.2431
35768W        W78681   8.122  13.550  13.916  0.4192  0.2791  0.0067
35769W        W78682   2.921  15.069  14.324 -0.0899  0.1273  0.2713
35770W        W78683  25.812   7.388  26.372 -0.2353  0.2073  0.0541
35771W        W78684   3.465   5.253  20.421 -0.0791 -0.0318  0.0556
35772W        W78685   6.706   7.732  19.511  0.0200  0.2640  0.0703
35773W        W78686  27.073   3.781  28.623 -0.1948 -0.1654 -0.1322
35774W        W78687  33.100  20.119  23.134  0.0961 -0.1519 -0.2969
35775W        W78688   7.318  12.961  18.937 -0.2437 -0.0523 -0.1070
35776W        W78689  28.022  14.294  27.304  0.1539  0.1244  0.2425
35777W        W78690  34.160  16.914  19.602 -0.0545 -0.0633 -0.0791
35778W        W78691  31.574   8.065  21.081  0.0665 -0.0716  0.2372
35779W        W78692   0.044  10.113  23.918 -0.1463 -0.4236  0.1547
35780W        W78693  25.805  11.095  24.957  0.2667  0.1958  0.3253
35781W        W78694  28.871  11.513  22.524  0.1595  0.2128  0.0094
35782W        W78695  32.301   9.946  22.414 -0.2512 -0.0915 -0.4234
35783W        W78696  15.692   6.045  18.644  0.3163  0.0927 -0.0320
35784W        W78697  33.965  19.311  14.917 -0.1696 -0.1057 -0.0944
35785W        W78698  32.125   3.075  19.667  0.0424  0.1217 -0.3337
35786W        W78699  28.818  16.738  15.423 -0.0172 -0.0550  0.0286
35787W        W78700  23.086   7.772  27.122 -0.2811  0.0480  0.0477
35788W        W78701  33.493   8.248  16.799 -0.1373 -0.1092  0.0490
35789W        W78702  28.907   9.528  17.573  0.0889 -0.2730  0.2545
35790W        W78703  20.531  13.989  24.873  0.0935  0.1325  0.0398
35791W        W78704  26.736  15.309  19.910 -0.3366 -0.2086 -0.1730
35792W        W78705  32.442   0.727  17.678  0.0357 -0.2596  0.0571
35793W        W78706  32.139  14.378  23.620 -0.0889 -0.0423  0.0454
35794W        W78707  28.285  16.729  18.081  0.2742  0.1018  0.2144
35795W        W78708  10.455  11.687  20.343  0.1036  0.0265 -0.2460
35796W        W78709   1.260  14.354  17.247 -0.0797  0.1283  0.0053
35797W        W78710   5.746   8.351  20.294 -0.2334 -0.2030  0.2406
35798W        W78711  23.674  11.107   1.051  0.3696 -0.2219 -0.0802
35799W        W78712  31.614  14.616  20.134  0.0778  0.0010 -0.2631
35800W        W78713  26.956   3.603  18.991  0.2379 -0.0196 -0.0233
35801W        W78714  20.088  13.203  28.165  0.0601  0.0667  0.1564
35802W        W78715   1.470   7.469  27.549  0.1537 -0.1053  0.0174
35803W        W78716  16.672  25.156   5.479 -0.1742 -0.0466 -0.1810
35804W        W78717   1.053  17.199  22.563 -0.1694 -0.1355  0.0851
35805W        W78718  26.041  13.312  25.951  0.1023 -0.1473  0.2381
35806W        W78719   6.536  13.921  22.402 -0.1010  0.0296 -0.0171
35807W        W78720   6.128  11.216  21.604  0.2523 -0.0610 -0.1746
35808W        W78721   0.704   6.660  18.182  0.0970 -0.2135  0.1322
35809W        W78722  23.683  18.318  13.439  0.2314 -0.2725  0.1225
35810W        W78723   3.504  13.083  19.232  0.1134 -0.2161  0.0017
35811W        W78724  30.567  11.210  15.582  0.0490  0.1533  0.0963
35812W        W78725  33.822  19.310   3.299 -0.1521  0.0486  0.0965
35813W        W78726  22.972   2.499  21.819 -0.1249 -0.2453 -0.0447
35814W        W78727  27.395  10.480   0.263 -0.2363 -0.2799  0.1700
35815W        W78728   7.876   9.558  21.030 -0.1263 -0.3515 -0.2084
35816W        W78729  27.324  19.284  15.111 -0.1441 -0.0288 -0.1622
35817W        W78730  26.270   7.653  17.970 -0.0894 -0.3445 -0.1061
35818W        W78731  29.091  18.072  23.240  0.0820 -0.4541 -0.0610
35819W        W78732  20.384  20.356  11.995  0.0494 -0.1855  0.3328
35820W        W78733  28.256  31.013  25.239 -0.3907  0.1711  0.0863
35821W        W78734  22.454  10.429  23.560  0.1434 -0.1480  0.0134
35822W        W78735  10.003   5.172  24.679 -0.1805  0.1601 -0.2123
35823W        W78736  28.993   6.580  20.240  0.0040 -0.1083 -0.0068
35824W        W78737   2.074   3.765  21.001 -0.4032  0.0620 -0.2858
35825W        W78738  22.724  10.738  18.504 -0.1748 -0.3706 -0.0552
35826W        W78739  22.781  12.463  17.174  0.0582  0.0081  0.0872
35827W        W78740  31.720  25.349  19.591  0.2328 -0.1232 -0.1054
35828W        W78741  24.177  18.360  26.377  0.2029  0.0878 -0.0599
35829W        W78742  33.497  10.032  17.851  0.4155 -0.0118  0.0806
35830W        W78743  21.117  11.488  20.865  0.3184  0.1475 -0.0294
35831W        W78744   0.223  12.088  20.908  0.2816 -0.0023  0.1183
35832W        W78745   3.144  14.798  23.050 -0.2347 -0.0920 -0.1938
35833W        W78746   5.787  19.688  28.025  0.2221 -0.2649  0.1660
35834W        W78747  24.179   3.424  17.660  0.0427  0.1138 -0.1042
35835W        W78748   1.467   6.388  22.457 -0.0095 -0.1701 -0.3506
35836W        W78749  25.360  16.107  25.522 -0.0223 -0.0380  0.0392
35837W        W78750  33.915   4.814  25.922  0.3294  0.0006 -0.1428
35838W        W78751  34.107   8.166  26.019  0.0132 -0.3067  0.2439
35839W        W78752  26.068  15.129  25.200  0.0833  0.0348 -0.1240
35840W        W78753  18.032   8.566   3.852 -0.2426  0.0017  0.1188
35841W        W78754  25.748   7.577  16.833 -0.1786  0.0730 -0.2678
35842W        W78755   3.215  11.348  10.606  0.0071 -0.1561 -0.0436
35843W        W78756  27.995  19.913  24.063 -0.2374 -0.1561  0.0611
35844W        W78757  23.879  20.548  17.353 -0.1027 -0.0102  0.0257
35845W        W78758  22.848  26.069   4.442 -0.1717  0.3457  0.1101
35846W        W78759   0.526  10.916  20.995  0.1355  0.2709  0.0086
35847W        W78760  18.225  10.924  13.203  0.0008  0.0927  0.0324
35848W        W78761  31.220  31.225  21.775 -0.2467 -0.1023 -0.1408
35849W        W78762  33.925   9.953  19.165 -0.1252  0.0546  0.2463
35850W        W78763  20.747  11.009  19.722 -0.2669  0.1333 -0.0950
35851W        W78764  29.626  11.016  25.954 -0.1229 -0.2210  0.0344
35852W        W78765  19.110  25.059  27.611  0.1133  0.1714  0.0791
35853W        W78766  33.172  19.284  14.171 -0.1089  0.2504  0.1821
35854W        W78767  28.049  11.601  27.289  0.3217 -0.1196  0.0948
35855W        W78768   2.501  17.256  14.119  0.0675 -0.1142  0.4251
35856W        W78769  28.209   9.109  20.852 -0.5944 -0.1576  0.4034
35857W        W78770   1.028   4.970  19.212 -0.1812  0.2318 -0.3154
35858W        W78771  32.398   6.728  27.084 -0.0789 -0.2418 -0.4527
35859W        W78772   0.411  15.693  22.115 -0.0594 -0.0728 -0.1771
35860W        W78773  30.501   8.887  17.857 -0.0256 -0.0430 -0.0565
35861W        W78774  31.707  17.834  20.507 -0.1253  0.0348  0.2587
35862W        W78775   5.110  12.362  17.017  0.1304 -0.3026  0.3258
35863W        W78776  25.165  25.709  20.046  0.0201 -0.0793 -0.0833
35864W        W78777  33.187  24.006  13.617  0.0253 -0.0015 -0.0502
35865W        W78778  30.990  11.251  15.829 -0.1805  0.1708  0.2307
35866W        W78779  24.965  20.065  20.841  0.1702 -0.2169 -0.2224
35867W        W78780   0.335   9.463  29.651  0.1256  0.0068 -0.1606
35868W        W78781   0.370  16.719  20.893 -0.1660  0.2793  0.0056
35869W        W78782   3.181  14.774  22.172 -0.1955  0.2119 -0.4954
35870W        W78783  22.097  11.272  15.885 -0.0621  0.0192  0.5096
35871W        W78784   1.347  19.088  18.271  0.3435  0.2529 -0.0485
35872W        W78785  33.051   0.346  17.644  0.1039 -0.1039 -0.0197
35873W        W78786   5.309  14.743  14.676 -0.1994  0.5056 -0.4898
35874W        W78787  18.580  32.053   3.166  0.1916 -0.1114 -0.1030
35875W        W78788  31.644   9.584  16.673  0.0464 -0.4096 -0.2569
35876W        W78789  28.072  13.744  19.906  0.1102 -0.0417  0.0145
35877W        W78790  33.586  15.580  25.354  0.1978  0.0713  0.2510
35878W        W78791  33.209   5.161  21.405  0.0875 -0.1284 -0.0219
35879W        W78792  28.003   2.556  17.856  0.1564  0.2349  0.1882
35880W        W78793  21.836  12.711  21.567  0.0157  0.0891  0.0765
35881W        W78794  24.431  18.223  24.049 -0.0246  0.1245 -0.0050
35882W        W78795  23.636  21.970  14.696  0.0442  0.0276 -0.0393
35883W        W78796  23.822  12.038  14.461 -0.1220 -0.1503 -0.1721
35884W        W78797  30.304  17.402  18.141 -0.2516  0.1168 -0.0380
35885W        W78798  20.497  11.465  24.325  0.1994  0.0157 -0.1038
35886W        W78799  18.310   6.368  18.703  0.4870 -0.0043 -0.0968
35887W        W78800  28.497   8.077  24.287  0.3322  0.1091 -0.1219
35888W        W78801   2.597   9.415  20.443 -0.0626 -0.0982  0.1626
35889W        W78802  15.576   8.454  24.959  0.2405  0.0178 -0.0980
35890W        W78803  23.937  16.146  23.526 -0.0873 -0.0081  0.0777
35891W        W78804  29.841  10.284  20.413  0.0207 -0.1936 -0.1004
35892W        W78805   3.881  11.196  23.175 -0.1709 -0.1150 -0.2717
35893W        W78806  26.087  19.922  20.433 -0.3200 -0.0503  0.2311
35894W        W78807  32.677  21.705  27.339  0.0459 -0.3662  0.1930
35895W        W78808  33.041  14.567  16.179 -0.2732 -0.0248 -0.0088
35896W        W78809   9.122  11.797  20.867  0.0284 -0.1332  0.3107
35897W        W78810  30.144  21.261  14.558  0.0428 -0.1959  0.1376
35898W        W78811   9.765   9.370  24.075 -0.3713 -0.2994 -0.3143
35899W        W78812  20.593  18.211  13.990  0.0673  0.0247 -0.1780
35900W        W78813  18.450  13.495  22.137  0.0698  0.0161 -0.0849
35901W        W78814  17.786  10.660  12.461  0.1742 -0.4604  0.0319
35902W        W78815  31.502  14.060  22.416  0.1124 -0.2248  0.0945
35903W        W78816  23.078  19.149  14.813  0.1949 -0.0760 -0.2296
35904W        W78817  24.140  26.006  24.059 -0.2122  0.2016  0.1890
35905W        W78818  32.660  24.305  26.362 -0.0006 -0.0970 -0.0645
35906W        W78819  24.784  33.669  20.168 -0.0218 -0.0144 -0.1556
35907W        W78820  32.400   3.534  25.364 -0.3340  0.3969 -0.1012
35908W        W78821  17.696   8.644  18.758 -0.2566  0.1095 -0.1606
35909W        W78822   0.214   4.249  20.331 -0.0333 -0.0090  0.1357
35910W        W78823   0.839  17.374  18.624 -0.3906 -0.0513 -0.0963
35911W        W78824  26.697   5.621  24.131  0.0929 -0.2020  0.0924
35912W        W78825   9.269  17.369  17.999 -0.3961 -0.0201 -0.4534
35913W        W78826  27.370  11.116  22.550  0.2437 -0.0373 -0.1333
35914W        W78827  24.270   3.708  15.997  0.1782 -0.0575  0.2341
35915W        W78828  24.628  10.957  22.543  0.2529 -0.1059  0.0449
35916W        W78829  21.788  22.031  17.242 -0.0994 -0.0251  0.2140
35917W        W78830   3.134   8.702   2.566 -0.2168 -0.1328 -0.1172
35918W        W78831  30.901  10.132  23.633  0.1318 -0.0847 -0.0272
35919W        W78832   7.733   2.428  27.400  0.0861 -0.0007 -0.1284
35920W        W78833  17.156  11.955  25.002 -0.3590 -0.0155  0.0314
35921W        W78834   2.393  17.785  21.861 -0.1536 -0.1026 -0.0919
35922W        W78835  30.682  14.293  24.798  0.2080  0.0331 -0.0169
35923W        W78836  26.887   1.318  27.257 -0.2327  0.0181 -0.0041
35924W        W78837  27.550  21.533  14.589  0.0611  0.2957  0.0740
35925W        W78838  30.683   9.654  15.854  0.3463 -0.1006  0.2809
35926W        W78839  16.651  10.175  23.902  0.0578  0.1371 -0.0859
35927W        W78840  30.830  28.545  27.332  0.0975  0.1868  0.0588
35928W        W78841  25.305   6.331  19.252  0.0385 -0.2304  0.2238
35929W        W78842   3.474  21.163  13.850  0.0770 -0.1805 -0.0187
35930W        W78843  33.056  12.093  15.819  0.0861  0.3215 -0.0358
35931W        W78844  30.746  12.153  19.851  0.1041  0.3125  0.0191
35932W        W78845  29.550   9.384  16.092 -0.2517 -0.0941 -0.3091
35933W        W78846  27.194  14.823  15.299 -0.4465 -0.0179  0.0542
35934W        W78847   3.373  33.465  20.617  0.1244 -0.3428 -0.0858
35935W        W78848  28.132  16.833  20.247 -0.0993  0.0590  0.0734
35936W        W78849   3.668  18.306  20.192 -0.1536  0.3863  0.3911
35937W        W78850   2.708   9.664  23.051  0.1227 -0.3599  0.0503
35938W        W78851   0.119   7.742  29.093  0.0143  0.0452 -0.3064
35939W        W78852   6.082  15.962  25.988 -0.0129  0.0174  0.2052
35940W        W78853  32.317  17.552  23.467 -0.0190 -0.1718 -0.1926
35941W        W78854  23.358  14.294  23.083  0.0952 -0.0780  0.0851
35942W        W78855  31.917   0.615  17.035  0.2508 -0.1832  0.1073
35943W        W78856  27.047  15.594  14.183 -0.2545  0.2768  0.0277
35944W        W78857  22.730   3.792  28.497  0.2776 -0.0080  0.2619
35945W        W78858  26.676  16.941  21.885  0.1826 -0.1749 -0.0998
35946W        W78859   3.281  16.086  14.505 -0.1359 -0.0338  0.1663
35947W        W78860  26.651  22.517   0.124 -0.0669 -0.1987  0.0948
35948W        W78861  33.108  14.732  17.873 -0.1788  0.5573  0.2542
35949W        W78862   1.037  16.732  14.701  0.2897  0.2661  0.1439
35950W        W78863  26.200   6.641  19.653 -0.2156 -0.3632  0.4153
35951W        W78864  28.984   7.896  28.064  0.0205  0.1341  0.0240
35952W        W78865  29.121  30.352  16.108  0.1200 -0.1877  0.0371
35953W        W78866  26.639  22.976  22.925 -0.2100  0.1272  0.3286
35954W        W78867  29.793  23.748  17.124  0.0474 -0.3575 -0.1118
35955W        W78868  20.119  22.659  17.199  0.2134  0.0805  0.4175
35956W        W78869  30.424  10.215  19.449 -0.0573  0.0679 -0.1687
35957W        W78870  33.355  10.161  14.680  0.0394  0.1852  0.0857
35958W        W78871  31.789  19.374  16.402 -0.0857  0.0857 -0.2875
35959W        W78872  23.790  15.693  23.437  0.1577 -0.0130  0.0663
35960W        W78873  23.749   2.025   4.924 -0.1885  0.0455 -0.3764
35961W        W78874  34.037  19.397  17.012 -0.2655  0.0666  0.0106
35962W        W78875   5.982  18.049  19.119 -0.3107  0.1861 -0.1500
35963W        W78876  27.831  10.397  20.788 -0.1929  0.0857 -0.1812
35964W        W78877  18.586  11.806   8.423  0.1819 -0.0011  0.2659
35965W        W78878  32.552  14.100  25.528 -0.0189 -0.0835 -0.1998
35966W        W78879   5.604  12.148  24.690 -0.1737  0.0503 -0.0021
35967W        W78880   3.360  22.056  20.920  0.0602  0.0073  0.1835
35968W        W78881  21.250  19.174  23.348  0.0958  0.0395  0.0517
35969W        W78882   3.705  18.131  24.686 -0.2469 -0.0669 -0.0866
35970W        W78883  34.469  17.405  16.642  0.0667 -0.1930  0.1641
35971W        W78884   1.284  13.689  20.887 -0.0662 -0.2077 -0.0338
35972W        W78885  28.057   7.984   5.550 -0.2866  0.4925  0.1311
35973W        W78886  30.023  20.328  20.448 -0.2973 -0.1077 -0.1754
35974W        W78887  16.320  21.087  13.154 -0.3736  0.1635 -0.0474
35975W        W78888  27.951  16.238  17.946 -0.1849 -0.0521  0.1013
35976W        W78889  29.986   6.903  24.289  0.2123  0.1356  0.0241
35977W        W78890   2.559  11.925  22.554 -0.1032  0.0180  0.0522
35978W        W78891  26.434  11.849  18.156 -0.1066 -0.2127 -0.2896
35979W        W78892  28.533  19.441  25.654 -0.0397  0.0284  0.1582
35980W        W78893  21.915  14.245  13.055  0.1911  0.0603 -0.2847
35981W        W78894  23.546  27.455  14.295 -0.0218  0.2076 -0.0720
35982W        W78895   4.671  13.084  19.332  0.1408 -0.2395  0.3884
35983W        W78896   1.544  11.748  18.057 -0.1019  0.1689 -0.4387
35984W        W78897  24.064  16.831  24.831 -0.0380  0.0130  0.1180
35985W        W78898  26.290  16.972  18.384  0.0561 -0.1859  0.2061
35986W        W78899   3.536   4.386  21.588 -0.2070 -0.0379  0.0484
35987W        W78900  33.758  18.977   2.272  0.0687 -0.0581 -0.1792
35988W        W78901  30.216  16.206   2.078 -0.3072 -0.3748  0.1908
35989W        W78902   7.199  34.469  20.250  0.0507 -0.1262 -0.2452
35990W        W78903   0.926  14.470  23.054 -0.1823  0.2855  0.0310
35991W        W78904  23.075   9.586  15.477 -0.2705  0.1108 -0.0987
35992W        W78905  13.756  13.425  12.771  0.1596 -0.2318 -0.2437
35993W        W78906  29.294   8.593  18.986  0.1533 -0.0350  0.0319
35994W        W78907  25.034  10.816  13.539 -0.0874 -0.0112  0.3000
35995W        W78908  24.146  16.938  17.305  0.3175 -0.0507  0.0182
35996W        W78909  28.039  19.107  16.781 -0.2975 -0.1135  0.1800
35997W        W78910  24.729   2.951  19.971 -0.2912 -0.0119 -0.0338
35998W        W78911  22.323  21.202  15.786 -0.2071  0.0909 -0.0800
35999W        W78912   1.276  10.194  25.084 -0.3802 -0.0592  0.1817
36000W        W78913   3.522  19.520  18.104 -0.1271 -0.0145 -0.1912
36001W        W78914  31.263  13.652  17.629 -0.0908 -0.1746  0.2114
36002W        W78915  28.336  11.787  18.033 -0.2021  0.1257 -0.0780
36003W        W78916  18.777  10.660  22.338  0.1317 -0.0711 -0.2934
36004W        W78917  30.804  17.063  19.722  0.0072 -0.1996 -0.0641
36005W        W78918  29.728   0.926  23.694  0.1965  0.0563 -0.0245
36006W        W78919  29.263  19.847  15.240 -0.0715 -0.1363 -0.1493
36007W        W78920  31.927  33.943  20.759  0.2097  0.3845  0.0610
36008W        W78921  18.940   6.563  18.002 -0.1660 -0.2344  0.1850
36009W        W78922  19.722  10.584  19.648  0.3247 -0.0256 -0.0025
36010W        W78923  33.107  14.490  13.594  0.3293 -0.0229 -0.2499
36011W        W78924  29.056  10.024  21.535 -0.0054 -0.0581  0.1266
36012W        W78925  27.935  21.739  15.035  0.1138  0.0008 -0.0681
36013W        W78926  17.394  10.991  25.700  0.0026 -0.2530 -0.0595
36014W        W78927  26.806  32.575  19.400  0.1728 -0.0764 -0.1384
36015W        W78928  29.309   7.385   6.108  0.1030  0.1995  0.1393
36016W        W78929   6.488  17.584   5.045 -0.0559 -0.0704  0.0872
36017W        W78930  23.324   8.322  23.402  0.3406 -0.0855 -0.1135
36018W        W78931   0.568  19.482  14.931  0.1245  0.2672 -0.1464
36019W        W78932  31.897  17.863  25.209  0.0784 -0.2228  0.3401
36020W        W78933  31.587  19.300  18.645  0.0618 -0.0318 -0.1211
36021W        W78934  30.392  11.627  16.250  0.0131  0.0416  0.0218
36022W        W78935  31.400  10.463  16.130  0.0968  0.1151  0.1155
36023W        W78936  26.441  18.359  19.931  0.0120 -0.0361  0.2488
36024W        W78937   4.424  12.219  16.703 -0.0322 -0.3497  0.1898
36025W        W78938  33.956   7.201  25.095 -0.0597 -0.1488 -0.1618
36026W        W78939  33.678   3.482  19.790 -0.1166  0.0056 -0.1549
36027W        W78940  23.456  11.073  13.966 -0.0449 -0.2283 -0.2504
36028W        W78941  27.771  18.491  20.994 -0.1589  0.0545  0.1084
36029W        W78942   0.287  18.335  16.798 -0.0319  0.4788  0.3046
36030W        W78943   0.705  17.806  15.728  0.0415 -0.1994  0.2470
36031W        W78944  28.176  13.196  18.597 -0.1958  0.1228  0.3407
36032W        W78945  33.166  22.663  18.650  0.1077  0.1468 -0.1958
36033W        W78946   4.367  15.689  28.843  0.0660 -0.1840  0.0121
36034W        W78947  10.470  16.597  24.524 -0.0181  0.3024 -0.2523
36035W        W78948   1.824  14.342  25.413 -0.1521 -0.1164  0.0912
36036W        W78949  11.524  11.063  20.934  0.0692  0.6947  0.3346
36037W        W78950  34.140  12.508  21.396  0.3917  0.0064 -0.2468
36038W        W78951  22.658  10.827  24.719 -0.1568 -0.2428  0.1022
36039W        W78952  27.759   7.885  22.625 -0.0995 -0.0596 -0.0151
36040W        W78953  31.870  16.736  15.877 -0.1762 -0.3440 -0.6039
36041W        W78954  29.215  31.373  17.559  0.2605  0.0665  0.3210
36042W        W78955  32.407  10.550  22.957 -0.1200  0.0636  0.0231
36043W        W78956  29.450  15.512  25.121  0.1327 -0.0059  0.1580
36044W        W78957  27.476  10.330  23.891 -0.2759 -0.0168 -0.2212
36045W        W78958  33.675  13.664  16.606 -0.0880 -0.0177  0.4025
36046W        W78959   9.000  23.096  24.551 -0.2887 -0.2039 -0.0769
36047W        W78960  32.396  11.608  23.925 -0.2152  0.0251 -0.1904
36048W        W78961  21.019  10.036  14.835  0.3515  0.1951  0.2915
36049W        W78962  25.183   8.451  17.557 -0.2334 -0.0315 -0.3099
36050W        W78963   3.420  16.859  23.237 -0.1721  0.1089  0.0595
36051W        W78964  31.065  14.357  14.585  0.0637  0.2121  0.1454
36052W        W78965  31.021  11.077  17.352  0.3225 -0.1771  0.1308
36053W        W78966  30.074  15.304  17.338 -0.2065 -0.0638  0.1242
36054W        W78967  31.275  15.465  21.491 -0.1003  0.2002  0.1150
36055W        W78968  33.667  21.551  24.584 -0.0917 -0.0260  0.1471
36056W        W78969  20.754  10.824  28.456  0.0707 -0.0258  0.0186
36057W        W78970  25.039  14.427  20.634 -0.2659 -0.3956  0.1783
36058W        W78971  21.463   0.252  28.863  0.3920 -0.2461 -0.0513
36059W        W78972  31.520  10.099  29.508  0.2858 -0.2232  0.1897
36060W        W78973  33.038  11.290  15.862 -0.2329 -0.1662  0.1208
36061W        W78974   2.290  10.020  19.229  0.0799 -0.1010 -0.0225
36062W        W78975  32.310  14.922  18.328 -0.1588  0.1457 -0.0125
36063W        W78976  30.479  14.788  23.963  0.0375 -0.0429  0.1891
36064W        W78977   3.987   9.772   0.296 -0.0186 -0.2375 -0.0008
36065W        W78978  32.830  19.175   3.884 -0.3502  0.3485 -0.0043
36066W        W78979   2.807  23.539  28.260  0.2437 -0.0823 -0.1320
36067W        W78980   2.754  10.342  17.278 -0.0952  0.0692  0.0577
36068W        W78981  12.904  21.685  21.304  0.1330  0.0266  0.0167
36069W        W78982  10.558  12.892  15.186  0.1337  0.1750 -0.1378
36070W        W78983  25.457  21.243  28.860 -0.2196 -0.3021  0.0866
36071W        W78984  24.220  33.670   0.891 -0.1160  0.1646  0.1894
36072W        W78985  27.940   9.959  19.370 -0.0154  0.2393 -0.1553
36073W        W78986  24.539  30.185  26.928  0.0437  0.0712 -0.1534
36074W        W78987  21.455  16.447  22.543 -0.0282 -0.0691  0.3395
36075W        W78988  27.309  19.594  19.522  0.2475 -0.0742  0.0492
36076W        W78989   0.451  19.585   2.158 -0.0005 -0.0177 -0.0321
36077W        W78990  29.214  10.978  15.222 -0.2666  0.2628  0.2290
36078W        W78991  25.318  25.132  21.328 -0.0743 -0.3052 -0.3068
36079W        W78992  29.321   9.326  24.882 -0.1640  0.1258  0.1211
36080W        W78993  20.640  17.445  25.782  0.1467  0.0233 -0.2433
36081W        W78994  23.758  11.620  16.998  0.1883 -0.3248  0.2453
36082W        W78995   3.473  30.258  22.663  0.1009  0.1778 -0.0786
36083W        W78996   4.889  10.257  22.804 -0.2080  0.0176 -0.2099
36084W        W78997  29.415  14.120  18.552 -0.0332  0.0488 -0.0342
36085W        W78998  27.659  10.452  26.929  0.0824 -0.2753  0.0843
36086W        W78999  32.430  15.863  19.884 -0.1068 -0.0736 -0.2806
36087W        W79000  17.248  11.462  25.444 -0.0255  0.0126  0.1505
36088W        W79001  21.172   5.187  27.438  0.0640 -0.0052 -0.3009
36089W        W79002  27.542   4.747  23.309  0.0160  0.0344  0.0345
36090W        W79003  25.735  13.196  18.572  0.0095 -0.0339  0.1740
36091W        W79004   4.359  23.467  16.353  0.1665  0.2379  0.1804
36092W        W79005  30.311  15.844  16.643  0.0827  0.1551 -0.1341
36093W        W79006  28.648  22.363  21.315 -0.0959  0.1918  0.1353
36094W        W79007  30.744  19.544  23.191  0.0845 -0.3913  0.0698
36095W        W79008  33.185  16.493  22.386  0.0774  0.1537 -0.3014
36096W        W79009  23.844  14.294  22.902 -0.0037 -0.0312 -0.0886
36097W        W79010  27.368  16.530  27.817 -0.2877 -0.3272  0.0857
36098W        W79011   7.007   0.443  21.323  0.2409  0.1481  0.2079
36099W        W79012  31.107  10.413  15.648 -0.2718 -0.0900  0.1914
36100W        W79013  26.312  15.683  25.237 -0.1159 -0.2942 -0.1393
36101W        W79014  33.171   5.763  19.030 -0.2474 -0.1534  0.0411
36102W        W79015   1.106  13.350  23.528 -0.4476 -0.0565 -0.0842
36103W        W79016   6.227  14.115  16.341  0.2128  0.0770  0.0613
36104W        W79017  31.027  14.743  19.207  0.0340  0.1285  0.3177
36105W        W79018  26.854  10.104  23.258 -0.2513 -0.2035 -0.2097
36106W        W79019   8.107   0.476   1.857  0.3204 -0.1364  0.3780
36107W        W79020  27.805  16.041  27.205  0.1450 -0.2612  0.0142
36108W        W79021  29.640  13.239  16.317  0.1215 -0.0535  0.0383
36109W        W79022  33.599  15.749  29.173  0.0145 -0.0511 -0.2816
36110W        W79023  22.593  12.869   0.357  0.1971  0.1858 -0.3515
36111W        W79024   0.253   6.001  21.879  0.2662 -0.0635 -0.0971
36112W        W79025  30.373  19.154  15.265 -0.1444  0.3081  0.3117
36113W        W79026  22.612  16.042  24.033  0.3060  0.1374 -0.1853
36114W        W79027  28.667  21.581  27.905 -0.0287  0.0735  0.1287
36115W        W79028   0.921  18.780  26.497 -0.0633 -0.0294  0.1389
36116W        W79029  31.420   9.871  22.892 -0.3428 -0.0577  0.3570
36117W        W79030  27.505  11.027  18.731  0.2150  0.0282  0.2497
36118W        W79031  28.209  33.040  19.145 -0.2681  0.0020  0.0557
36119W        W79032  26.534  19.196   1.888 -0.1301  0.1059  0.2880
36120W        W79033   3.555  10.682   6.229 -0.1043 -0.1817  0.3328
36121W        W79034   1.697  21.529  24.804  0.0263 -0.2621 -0.0408
36122W        W79035   2.356  12.465   1.241 -0.0937 -0.2684 -0.0275
36123W        W79036  30.165  14.747  29.089  0.0272  0.0832  0.4113
36124W        W79037  31.615   6.895  29.740  0.0905 -0.0340  0.2086
36125W        W79038  31.781   2.411   3.475 -0.1333  0.2742 -0.1580
36126W        W79039  20.720  22.813  16.413 -0.3207 -0.0857 -0.1308
36127W        W79040  25.742  14.892  16.096  0.2403  0.1454 -0.0940
36128W        W79041  33.305  18.682   1.569  0.0407  0.3054  0.3151
36129W        W79042  26.440  13.367  22.518 -0.1606  0.1136  0.0272
36130W        W79043  32.456   6.931  24.715 -0.0265  0.1194 -0.1770
36131W        W79044  32.928  14.206  18.569 -0.0936  0.1423 -0.2801
36132W        W79045  31.115  11.085  18.961  0.1940 -0.0147 -0.2014
36133W        W79046   4.879  14.414  20.462  0.3144 -0.0723  0.3513
36134W        W79047  32.115   6.808  22.899 -0.0677  0.1769  0.5380
36135W        W79048  19.268  14.630  29.389 -0.0638  0.1215  0.0623
36136W        W79049  26.820  15.228  23.948  0.1495 -0.2162  0.2059
36137W        W79050   0.145  15.716  25.231  0.0563 -0.0608  0.0835
36138W        W79051  28.503   3.350  24.389 -0.0300 -0.0155 -0.3238
36139W        W79052  29.663  11.418  17.768 -0.3319  0.0388  0.2505
36140W        W79053  26.899  16.435  15.280  0.2039  0.2525 -0.1055
36141W        W79054  33.625  13.695  24.947  0.0427  0.1218 -0.0824
36142W        W79055   0.044  13.902  14.293 -0.1638 -0.1115  0.1133
36143W        W79056   9.630  12.828  29.277 -0.3964 -0.0581  0.3444
36144W        W79057   6.352  19.247   3.477 -0.1591  0.2305  0.0221
36145W        W79058  24.476   8.673  14.681  0.2037 -0.0005 -0.2833
36146W        W79059  29.140  30.954  24.774 -0.0679 -0.2614  0.1567
36147W        W79060   5.586   2.731  23.844  0.0741  0.2114  0.1933
36148W        W79061  30.409  19.941  21.156 -0.0914  0.0344  0.0938
36149W        W79062  29.273   4.995   4.125  0.1400  0.3224 -0.3562
36150W        W79063  30.981  29.043  24.238  0.1489 -0.1092 -0.1535
36151W        W79064  30.846   5.268   1.084  0.1004 -0.1309  0.1848
36152W        W79065  30.381  20.408  25.516  0.1117 -0.1434  0.2971
36153W        W79066  31.759   8.965  16.972  0.1007  0.2703  0.1025
36154W        W79067  30.067  11.033  18.058  0.0375  0.0752 -0.0057
36155W        W79068   6.405  16.707  18.875 -0.1717  0.2633  0.1606
36156W        W79069  34.261  12.224  15.346  0.2912 -0.0811  0.0897
36157W        W79070  31.572  15.628  22.564  0.1484  0.2055  0.1776
36158W        W79071  31.444   2.673  28.336 -0.0523 -0.0947  0.0995
36159W        W79072  28.957  27.937  14.529 -0.1056 -0.0229 -0.3874
36160W        W79073  31.610  27.995  27.309  0.0466 -0.1667  0.1370
36161W        W79074  33.252  23.882  14.451  0.3522  0.0288 -0.1397
36162W        W79075  31.553  10.739  20.801  0.0550 -0.0858  0.1276
36163W        W79076  32.331   6.904  21.934  0.1831 -0.0887 -0.1236
36164W        W79077  30.963  18.486  25.400 -0.2894  0.1583 -0.2799
36165W        W79078   0.008  10.416   4.242  0.2208  0.2856  0.0404
36166W        W79079  23.714  34.445  23.313  0.2703  0.3420  0.1314
36167W        W79080  24.060  15.930   0.746  0.1342  0.1449 -0.2344
36168W        W79081   1.873  13.713  18.328  0.1394  0.2035 -0.2728
36169W        W79082  27.656   7.485   3.855  0.2780 -0.2464  0.0802
36170W        W79083  21.644   4.815  26.840  0.0091 -0.0467  0.1151
36171W        W79084   4.322  16.913   0.275  0.0250 -0.1702  0.2289
36172W        W79085  24.504  23.474   0.327  0.1652 -0.0258 -0.3410
36173W        W79086  32.492  24.410  24.462  0.0452  0.4166 -0.0566
36174W        W79087  26.174  14.575  24.647  0.2629 -0.0161  0.0700
36175W        W79088  16.975   9.799  14.237 -0.0328  0.0363 -0.2925
36176W        W79089  27.953   8.715  26.402  0.0523 -0.0180 -0.0667
36177W        W79090   4.254   7.770  21.867 -0.1412 -0.0543  0.2953
36178W        W79091  33.640  18.266  22.691 -0.2212 -0.1204 -0.1574
36179W        W79092  21.752   8.313  29.037 -0.0816 -0.2050 -0.1421
36180W        W79093  33.226  13.918   7.332 -0.2789 -0.2157 -0.0469
36181W        W79094  32.220  20.076   6.826  0.2651 -0.1177 -0.2192
36182W        W79095  28.759  14.707   5.889  0.1406  0.0301 -0.1299
36183W        W79096  31.030  14.826  20.170 -0.1486  0.0941  0.1454
36184W        W79097  31.276  13.083  23.700  0.1018 -0.2913 -0.0305
36185W        W79098  20.864  12.642  26.345  0.3090 -0.3103  0.1142
36186W        W79099  33.480  23.814  26.448  0.0844 -0.0301  0.0326
36187W        W79100   4.755   9.214  24.089  0.1556 -0.0560 -0.1303
36188W        W79101  32.562   4.287  16.618  0.1209 -0.0892  0.1284
36189W        W79102   8.861  15.460  25.567  0.5372  0.0794 -0.0054
36190W        W79103  24.882  10.811  21.407  0.4115  0.2312 -0.2247
36191W        W79104  18.154  10.293  13.214  0.0838 -0.1070  0.2920
36192W        W79105  17.322  24.526  16.548 -0.3290 -0.2620  0.0201
36193W        W79106  32.218  11.835  26.804  0.1330 -0.0627  0.1988
36194W        W79107  32.371  19.765  20.461  0.2570  0.0529  0.2095
36195W        W79108  21.695  17.167  24.853 -0.0651 -0.0108  0.2439
36196W        W79109  30.367   7.917  26.312  0.0621  0.0596  0.0818
36197W        W79110  27.302  10.926  26.772 -0.1632  0.0462 -0.0879
36198W        W79111   1.596   8.725  24.733 -0.1104 -0.3916  0.0872
36199W        W79112  27.570  17.018  17.530 -0.0163  0.3041  0.4055
36200W        W79113  29.559  11.580  18.458 -0.0968  0.2236 -0.3515
36201W        W79114  25.507   5.832  15.218  0.1211  0.0851  0.0351
36202W        W79115  33.286  23.278   0.797  0.3635  0.1374  0.0888
36203W        W79116  31.196   1.278  21.514 -0.3062  0.2364  0.0284
36204W        W79117   7.469  11.658  23.477 -0.0635  0.1469 -0.0434
36205W        W79118   2.891  16.710  25.759 -0.1093 -0.0363  0.4299
36206W        W79119  27.249  15.451  23.451 -0.1372  0.0609  0.2062
36207W        W79120  15.193  27.908  18.835  0.2806  0.1407  0.0094
36208W        W79121  27.042  21.753   0.803  0.0904  0.1110  0.1995
36209W        W79122  30.179  14.079  17.415  0.0729 -0.1527  0.2238
36210W        W79123  24.912  24.642  27.529  0.0098  0.2131 -0.1356
36211W        W79124   1.551  18.154   0.931  0.1303 -0.3278  0.1120
36212W        W79125  24.208   6.974  24.469  0.1562  0.1297 -0.0680
36213W        W79126  27.794   3.476  28.956  0.1673  0.4660  0.0679
36214W        W79127  28.809  16.744   5.979 -0.0318 -0.1193  0.0880
36215W        W79128  28.795  12.925  19.271 -0.0649  0.1079 -0.2094
36216W        W79129   0.246   7.201  20.050  0.3752  0.4077 -0.1796
36217W        W79130  30.844  32.150  23.590  0.0632  0.2702 -0.2044
36218W        W79131  30.337  21.831   3.786  0.0172  0.1905  0.0373
36219W        W79132  32.826  23.647  22.145 -0.3147  0.0486  0.1378
36220W        W79133  28.785  30.333  27.431  0.1155  0.1018 -0.2211
36221W        W79134  30.844  11.232  28.683 -0.1307  0.1268 -0.2867
36222W        W79135  25.320   5.727  21.615  0.1566 -0.1526  0.2104
36223W        W79136  20.817  13.747  20.795 -0.0849 -0.0405  0.0637
36224W        W79137  25.716  14.339  22.310  0.0263  0.2045  0.3141
36225W        W79138  27.145  21.990  16.786 -0.1183 -0.2972  0.2112
36226W        W79139  32.507  15.913  17.508  0.2011  0.0058 -0.1342
36227W        W79140   1.923  17.136  15.093 -0.0004 -0.3469 -0.0354
36228W        W79141   2.173  25.763  29.065  0.0506 -0.0997 -0.0183
36229W        W79142  21.111  34.262  19.945 -0.1789 -0.1190  0.2957
36230W        W79143  17.522  13.851  17.734  0.0520 -0.0966  0.1807
36231W        W79144  29.172  26.881  27.747  0.3191 -0.0448  0.0391
36232W        W79145  11.998   8.478  18.969 -0.0988  0.1709 -0.0351
36233W        W79146  29.175  18.501  19.937 -0.2040  0.1954 -0.3847
36234W        W79147  30.037   8.273  21.251  0.2388 -0.0363 -0.1610
36235W        W79148  23.838   8.308  23.428  0.0751 -0.1110  0.1482
36236W        W79149  31.970   8.739  24.136  0.0458  0.2907  0.1598
36237W        W79150   5.091  11.870  28.143  0.0452 -0.0505 -0.3379
36238W        W79151   1.879  13.840  22.014 -0.1912 -0.0350 -0.0640
36239W        W79152  30.943  22.142  21.844 -0.2193  0.1951  0.0191
36240W        W79153   1.029  12.528   0.574  0.0087  0.1218  0.0504
36241W        W79154  31.569  16.775  25.849 -0.2942  0.1036 -0.2100
36242W        W79155  25.667  22.381  21.361  0.1241  0.0737 -0.0161
36243W        W79156   2.819  15.778  18.270  0.3024  0.1832  0.1182
36244W        W79157  32.387   9.737  20.918 -0.0016  0.0629 -0.3243
36245W        W79158  23.939  29.282  25.696  0.0110  0.0092  0.1858
36246W        W79159  31.204   5.250  20.864  0.0611  0.0922  0.1192
36247W        W79160  29.183  18.401  24.382 -0.1840 -0.3073 -0.3227
36248W        W79161  19.797   5.071  22.042 -0.0330  0.3650 -0.1105
36249W        W79162  27.516  22.018  28.358  0.0080 -0.3489 -0.0315
36250W        W79163  23.568  17.777  14.839  0.1717  0.0289  0.2519
36251W        W79164  25.303  19.510   9.002  0.3020  0.2640  0.0153
36252W        W79165  33.808   6.633  25.353  0.0760 -0.2471 -0.0395
36253W        W79166  34.405  14.456  22.632 -0.0633  0.1976 -0.0595
36254W        W79167  21.953  17.230  12.701 -0.0240 -0.0420 -0.1737
36255W        W79168  31.599  15.081  23.416  0.2114  0.1818 -0.2049
36256W        W79169   4.200  10.991  17.543  0.0260  0.1036 -0.0342
36257W        W79170   3.328   1.548  18.975  0.0755 -0.2494 -0.1234
36258W        W79171  30.761   6.882  18.323  0.1277  0.3427  0.3346
36259W        W79172  30.478  15.393   2.540 -0.0219  0.1283 -0.1289
36260W        W79173  30.419  15.754  19.279  0.1553  0.1088 -0.1351
36261W        W79174   4.891   8.546  22.892  0.1711  0.0409  0.2556
36262W        W79175  31.549  14.615  19.410  0.0114  0.3321 -0.1292
36263W        W79176   4.137   5.636  27.618  0.0518  0.0676 -0.2505
36264W        W79177  25.502  14.870  24.086  0.0717 -0.0963  0.2144
36265W        W79178  22.398   2.612  24.265 -0.0032 -0.2595 -0.0164
36266W        W79179   5.314  34.468  23.767  0.2645 -0.1771  0.0710
36267W        W79180  24.972  13.261  27.899  0.0730  0.0746 -0.6423
36268W        W79181   6.186  21.564  24.643 -0.1649  0.1167  0.0745
36269W        W79182  27.018  19.947  26.104 -0.0093 -0.3041 -0.0488
36270W        W79183   3.270  17.468  28.476  0.3311 -0.0417  0.0757
36271W        W79184  33.755  11.996  22.027  0.2847 -0.1931 -0.1221
36272W        W79185   2.639  14.544  25.418  0.0114  0.2190  0.0157
36273W        W79186   2.630  15.745  26.278 -0.0468 -0.1315 -0.2261
36274W        W79187  33.083  24.576  26.578  0.0686  0.0834 -0.0003
36275W        W79188  29.424  13.792  29.639 -0.0096  0.0328  0.0093
36276W        W79189  30.483  18.883  18.524  0.0355 -0.2204 -0.0684
36277W        W79190  28.419   7.039  22.379 -0.0374  0.1458  0.0232
36278W        W79191  28.369  12.737  23.973  0.4072  0.3239  0.2674
36279W        W79192  28.286  16.487  18.905 -0.1829  0.3446 -0.3195
36280W        W79193  24.380  19.475  22.753 -0.0785 -0.1071  0.2950
36281W        W79194  28.442  13.936  28.026 -0.0776 -0.0774  0.0653
36282W        W79195   6.044   5.356  24.006 -0.1060 -0.2123 -0.1182
36283W        W79196  17.263  14.290  24.167 -0.0024 -0.2145  0.0852
36284W        W79197  21.390  12.881  13.515 -0.2064 -0.1126 -0.1188
36285W        W79198  20.842  19.388  19.864  0.0588  0.2356  0.0485
36286W        W79199   3.201  12.529  20.606  0.0273  0.1170  0.1778
36287W        W79200   4.873   3.511  27.203 -0.2132 -0.0711 -0.0379
36288W        W79201  29.218  10.121  19.835 -0.1699  0.0870  0.0615
36289W        W79202  33.155   9.411  15.370  0.4663 -0.0214  0.2286
36290W        W79203  29.565  18.913   1.225 -0.2134 -0.0798 -0.0585
36291W        W79204   0.168   9.748  21.652  0.1377  0.1985 -0.0287
36292W        W79205  31.983  14.949  18.861 -0.0524 -0.2873  0.2252
36293W        W79206  24.087  12.851  20.559  0.1583  0.1357 -0.1125
36294W        W79207   3.590   6.681  17.050 -0.0148 -0.2403 -0.0700
36295W        W79208  22.134  10.413  21.176  0.0929  0.0686  0.1011
36296W        W79209  25.012   1.836   0.208  0.0477 -0.0098 -0.3690
36297W        W79210  31.980  17.308  16.270  0.2267  0.0513  0.0456
36298W        W79211  33.495   9.165  19.374  0.0049  0.3606 -0.0667
36299W        W79212  33.776  13.459  15.906 -0.0749  0.2092  0.1764
36300W        W79213   1.095  18.786  19.118  0.0657  0.2234 -0.0187
36301W        W79214  31.378  21.952  22.267 -0.3214 -0.1043  0.0361
36302W        W79215  25.848  13.685  25.543 -0.0929 -0.0954  0.1924
36303W        W79216  12.652  14.544  18.933 -0.1015  0.2743 -0.0285
36304W        W79217  23.719  14.088  24.452  0.0604  0.1030  0.1514
36305W        W79218  21.909  16.275  17.761 -0.1474  0.1376  0.0817
36306W        W79219   8.546  13.056  24.649  0.1263  0.3318  0.3300
36307W        W79220  33.793  10.917  25.490 -0.0347 -0.1888  0.1816
36308W        W79221  32.655  18.253  23.627 -0.4014  0.1404 -0.0883
36309W        W79222  22.470  14.180  17.348  0.0851 -0.0073 -0.3436
36310W        W79223  29.229   6.010  25.311 -0.2771 -0.2979  0.5243
36311W        W79224  27.498  14.390   1.658 -0.2283 -0.1415  0.1955
36312W        W79225  22.711  21.819  27.156  0.0671  0.0937 -0.0719
36313W        W79226  31.866  11.475   1.282  0.0229 -0.1151  0.1817
36314W        W79227  29.340   8.773   5.408  0.2411  0.0996 -0.5854
36315W        W79228  12.847  10.562  24.774  0.0922  0.1171 -0.0539
36316W        W79229   9.303  16.873  13.620  0.1318  0.0508  0.0203
36317W        W79230  28.147  15.272  26.800  0.0660 -0.1044  0.0926
36318W        W79231  27.047  10.155  16.898  0.0959 -0.0434  0.2700
36319W        W79232  27.934   9.982  17.348 -0.0265  0.0358 -0.0238
36320W        W79233  34.160  15.667  25.848 -0.1172 -0.2158  0.1971
36321W        W79234  29.944  15.775  26.304  0.0005  0.1454  0.0664
36322W        W79235  25.706   8.319  22.654  0.0321  0.2416  0.1584
36323W        W79236  31.245  12.389  18.579  0.3582  0.1330 -0.2668
36324W        W79237  24.826  23.413   1.277 -0.1164  0.0341 -0.4872
36325W        W79238  25.810  16.799  20.428 -0.3804  0.2932 -0.0607
36326W        W79239  21.508   5.115  16.403  0.1858  0.0041 -0.2677
36327W        W79240  24.399  25.107  16.020  0.0191  0.0356 -0.0375
36328W        W79241   0.434  15.399  17.826 -0.2668  0.0181 -0.0642
36329W        W79242  26.301  24.226  18.590  0.1363 -0.1653 -0.1205
36330W        W79243  22.006  19.559  14.968  0.4943  0.0200 -0.0187
36331W        W79244  27.015   1.137   0.636  0.0207  0.1408  0.2892
36332W        W79245  25.700  14.372  20.257 -0.1993 -0.0445 -0.0693
36333W        W79246   1.845  15.290  29.405  0.2781  0.0741  0.1297
36334W        W79247   5.815  10.938  24.325  0.1100  0.0453  0.2371
36335W        W79248  27.747  13.612  22.722  0.0595 -0.0809  0.0477
36336W        W79249  12.144  16.153  20.090  0.1308  0.2381  0.2449
36337W        W79250  21.746  14.931  24.445  0.0137  0.2218  0.0854
36338W        W79251  26.998  21.083  25.917  0.1041  0.0302  0.1035
36339W        W79252  34.162   9.622  21.389  0.4077  0.1049 -0.3699
36340W        W79253  27.949   9.204  23.381 -0.1143  0.3321 -0.2390
36341W        W79254  28.979   1.507  27.085  0.1541  0.2904  0.1090
36342W        W79255   3.688  23.588  28.070 -0.0350 -0.0997  0.1122
36343W        W79256  23.539  10.789  25.091  0.0503 -0.0451  0.0196
36344W        W79257  23.485  16.899  12.871 -0.0782  0.0528  0.1056
36345W        W79258  25.379  12.858   0.570 -0.0962  0.0844 -0.0752
36346W        W79259   1.525  14.240  19.054  0.0187 -0.2136  0.2208
36347W        W79260  25.602  17.278   0.122 -0.4361  0.2001 -0.5123
36348W        W79261  29.228  19.329  23.203  0.1140 -0.0842 -0.0957
36349W        W79262  20.565  13.270  22.516  0.0124  0.1442  0.0140
36350W        W79263   8.718  14.530  22.372  0.0607 -0.1634 -0.1903
36351W        W79264  27.469   9.509   3.751  0.0421 -0.2532 -0.0730
36352W        W79265  32.278   4.786   2.591 -0.2916 -0.3360 -0.3658
36353W        W79266  20.769   8.055   0.103  0.2743 -0.1914  0.0425
36354W        W79267  21.368   4.821  17.267 -0.0689 -0.0508  0.0664
36355W        W79268  30.775  13.083  13.787  0.0659  0.1918 -0.0448
36356W        W79269  24.111  11.804  18.634  0.1894 -0.4015 -0.2089
36357W        W79270  22.971  21.930  15.780  0.2503 -0.0841 -0.0406
36358W        W79271  12.526  21.734  25.619 -0.0376  0.0302  0.0040
36359W        W79272  18.523   9.688  27.480 -0.3003 -0.2528  0.1687
36360W        W79273   4.820   5.854  25.886  0.0256  0.1110 -0.2545
36361W        W79274  24.717  16.520  27.956 -0.0721 -0.0829 -0.3826
36362W        W79275  30.747   9.933  19.781 -0.1578 -0.2304  0.1105
36363W        W79276  24.388  19.453  28.618  0.2480 -0.0377  0.2901
36364W        W79277  30.233  17.970  28.172  0.1694  0.0797  0.3031
36365W        W79278  33.926  11.055  20.428  0.0538  0.0187  0.2011
36366W        W79279  28.102  16.497  14.514 -0.2983 -0.0400  0.0382
36367W        W79280   5.232  11.871  27.521 -0.0453  0.2226  0.0721
36368W        W79281   4.341  10.314  24.191  0.0956 -0.0157 -0.4408
36369W        W79282  24.595   8.824  23.955  0.1604 -0.2562 -0.2269
36370W        W79283  23.027  19.566   0.204 -0.0556 -0.0106 -0.0083
36371W        W79284  24.136  12.487  16.808  0.3668 -0.0185 -0.1243
36372W        W79285  31.502  17.429  18.839  0.0756  0.3965 -0.1209
36373W        W79286   2.547  28.241  17.609  0.0119 -0.0284 -0.2504
36374W        W79287  21.472   7.383  22.030  0.3258 -0.0646  0.0092
36375W        W79288   4.601   7.468  24.337  0.2803 -0.0824 -0.1583
36376W        W79289  33.817   9.837  18.270  0.0831 -0.2702  0.2674
36377W        W79290   1.818  20.337  21.061  0.1617  0.2895 -0.1665
36378W        W79291  32.773  12.604  18.734 -0.1397 -0.0105 -0.1556
36379W        W79292  27.258  21.565  24.697 -0.3200 -0.2089  0.1882
36380W        W79293  28.417  22.465  24.875 -0.2139 -0.3586 -0.1205
36381W        W79294  32.134  20.173   4.387  0.1930  0.0375 -0.1851
36382W        W79295  23.666  18.662  27.160 -0.1126  0.4876  0.1444
36383W        W79296  28.007  20.299  24.817  0.3481 -0.1480  0.0926
36384W        W79297  33.419  11.932   5.828  0.3004 -0.0681  0.2203
36385W        W79298  27.378  10.065  19.114  0.0355 -0.1264 -0.1879
36386W        W79299  30.650  17.666  25.012  0.2062  0.3897 -0.1872
36387W        W79300  29.095  11.927   0.464  0.2479 -0.3285 -0.0318
36388W        W79301   0.923  28.889  27.504 -0.1448 -0.0404 -0.0603
36389W        W79302  19.598  33.181  25.140  0.1327 -0.0245 -0.0815
36390W        W79303  18.354  13.499  27.370 -0.1527 -0.2311 -0.1424
36391W        W79304  30.662  13.975  22.702 -0.2066  0.0688 -0.3701
36392W        W79305  22.375  13.086  16.598 -0.0424 -0.3905 -0.1090
36393W        W79306  30.462  12.220  22.177 -0.1474 -0.2686  0.0801
36394W        W79307  21.879  17.229  15.488 -0.1388 -0.0230  0.2719
36395W        W79308   1.708   9.892  17.992 -0.1324  0.2972 -0.1936
36396W        W79309  31.654  18.391  16.283  0.0207  0.3009  0.1843
36397W        W79310  28.399  10.648  25.653  0.1333 -0.2644  0.0992
36398W        W79311  31.323  21.483   3.662  0.1210  0.0833  0.2816
36399W        W79312  28.162   5.265  23.837 -0.0231 -0.2084 -0.0875
36400W        W79313  23.424  15.489  14.589 -0.0069  0.0346 -0.3900
36401W        W79314   8.229  12.492  21.360  0.1335 -0.1504  0.0140
36402W        W79315  30.495  13.084  19.944 -0.1128 -0.0671 -0.2278
36403W        W79316  20.690   5.757  22.537 -0.0922  0.0585 -0.2945
36404W        W79317  30.004  14.226   3.919  0.1599  0.4040  0.0476
36405W        W79318   1.544  18.522   1.322 -0.0901  0.2983  0.0269
36406W        W79319  21.896   7.837  20.364  0.1458 -0.1886  0.1663
36407W        W79320  20.094  23.567   0.369 -0.1670 -0.2598 -0.1687
36408W        W79321  23.292   2.821   4.837 -0.0725  0.2343 -0.2092
36409W        W79322  24.923  12.981  17.095 -0.3516  0.0314  0.1970
36410W        W79323  21.061  11.880  21.147  0.1412 -0.0070 -0.0538
36411W        W79324  20.528   5.716  21.670  0.0255  0.0409  0.1811
36412W        W79325  29.219  19.194  26.357  0.3442 -0.1188  0.0833
36413W        W79326   1.239  14.523  15.350 -0.2543  0.0341 -0.0271
36414W        W79327  31.003  10.586  20.816  0.0283  0.3348 -0.1412
36415W        W79328  21.905  12.884   2.146 -0.1496  0.0026  0.3074
36416W        W79329  34.268  12.794  20.201  0.1795 -0.0029 -0.0218
36417W        W79330   5.848  22.675  19.923 -0.1595 -0.1034  0.1008
36418W        W79331  26.017  15.850  23.996 -0.1141 -0.4088 -0.1032
36419W        W79332  20.903  12.064  13.616 -0.1698 -0.0772  0.2374
36420W        W79333  16.014  12.563  16.933 -0.2436  0.0712  0.0646
36421W        W79334   8.986   0.435  20.679 -0.0582  0.0277  0.1971
36422W        W79335  25.816  15.919  25.401  0.1864  0.1962  0.0210
36423W        W79336   0.598  22.261  25.279  0.0969 -0.1053  0.1456
36424W        W79337  19.079  25.190  22.104  0.1533  0.1333  0.0535
36425W        W79338  33.840  10.960  15.473 -0.0406  0.0356 -0.0662
36426W        W79339  21.545  12.243   1.241 -0.2371  0.1595  0.0568
36427W        W79340  31.381  19.684  14.459  0.1768  0.0852  0.2869
36428W        W79341  30.157   2.903   3.773 -0.1737 -0.0001 -0.2059
36429W        W79342  11.581   7.355  26.019 -0.2254 -0.0639 -0.3427
36430W        W79343   3.409   6.008  23.080  0.2179  0.1764 -0.1404
36431W        W79344  29.894  21.917  16.641  0.2312 -0.2863 -0.3432
36432W        W79345  22.681  19.607   3.766 -0.2502 -0.2270 -0.0685
36433W        W79346   0.353  15.274  15.710 -0.2122  0.2005  0.0129
36434W        W79347  29.861  14.358  15.411 -0.0593 -0.4207  0.2363
36435W        W79348  27.047   6.074  17.911  0.0602  0.2628  0.1997
36436W        W79349  27.414  16.533  19.445  0.1233 -0.0584 -0.0424
36437W        W79350  33.104   9.579  22.862 -0.0367 -0.2195  0.4733
36438W        W79351   8.869   8.253  17.795  0.1665  0.1256  0.0853
36439W        W79352  17.753   5.758  24.202  0.1766 -0.2210  0.2203
36440W        W79353   0.775   9.843  25.961  0.0636  0.2358 -0.4024
36441W        W79354  27.496  23.458  21.501 -0.0132  0.1855  0.0863
36442W        W79355  33.152  15.349   4.709 -0.1908  0.2055 -0.1155
36443W        W79356  25.078  13.003  15.350  0.1469 -0.1779 -0.0593
36444W        W79357  30.115   7.303  16.900 -0.0931 -0.0373 -0.1601
36445W        W79358   5.390  26.553  19.248  0.1558  0.2063 -0.0339
36446W        W79359  32.831  21.163  28.692  0.2529  0.2152  0.3112
36447W        W79360  26.428  13.064  29.125 -0.0576 -0.2170 -0.2311
36448W        W79361   0.245  23.362  24.988 -0.3356 -0.0990  0.1087
36449W        W79362  33.215  29.306  25.284  0.1143 -0.0674 -0.1447
36450W        W79363  29.527  10.446  26.415 -0.1345  0.0735 -0.0622
36451W        W79364   1.568   7.493  21.737 -0.2725  0.1781  0.2934
36452W        W79365  14.985  12.689  26.195 -0.1520  0.0326 -0.1840
36453W        W79366  28.134  12.394  24.786  0.2492 -0.1304  0.0354
36454W        W79367  19.234  11.282  26.589 -0.0062  0.1528  0.0447
36455W        W79368  21.867   5.857  17.036  0.3358  0.0705  0.0252
36456W        W79369  29.453  13.268  22.277  0.1648  0.0123  0.0726
36457W        W79370   2.364  16.317   7.741 -0.4315  0.0085  0.0424
36458W        W79371   2.319  17.165   6.602 -0.1773 -0.0252 -0.0550
36459W        W79372  10.806  15.035  19.979 -0.0057  0.0885 -0.1081
36460W        W79373  31.778  11.131  16.323 -0.0489 -0.0735 -0.2880
36461W        W79374  25.708  13.479   1.126  0.0422 -0.3159  0.2042
36462W        W79375  10.656   9.022  24.679 -0.1935 -0.0713  0.0005
36463W        W79376  30.288  15.069  25.559  0.1607 -0.1656  0.0841
36464W        W79377  18.237   4.298  25.106  0.1486  0.0334  0.0885
36465W        W79378  21.982  18.544  28.070 -0.1609 -0.3790 -0.2191
36466W        W79379  32.082  33.965  26.929 -0.2220  0.1568 -0.1439
36467W        W79380  34.090   7.911  22.360 -0.3579  0.0168 -0.2086
36468W        W79381  31.172  31.660  26.706  0.0352 -0.0181 -0.0488
36469W        W79382   6.532  12.487  15.116 -0.2418 -0.0917 -0.0074
36470W        W79383  32.538  12.789  27.026 -0.0898 -0.2635 -0.1582
36471W        W79384   2.247  24.822   4.319 -0.1753 -0.1414 -0.0651
36472W        W79385  26.452   4.676  25.188  0.0233 -0.0143  0.2252
36473W        W79386  26.337  17.247  17.881 -0.2891  0.1505 -0.2121
36474W        W79387  32.827  20.573  29.414  0.0448  0.1177  0.1312
36475W        W79388  24.714  17.165   1.658  0.0048  0.1153  0.0692
36476W        W79389  29.933  10.469  20.872 -0.2661 -0.1034  0.0121
36477W        W79390  23.147   4.468  19.138 -0.1306  0.0630 -0.1400
36478W        W79391   1.866  16.781   8.057 -0.0726 -0.3640 -0.1335
36479W        W79392  25.224   8.602  26.359 -0.3584  0.0199  0.0616
36480W        W79393  27.888  12.282  26.244  0.1494  0.5502  0.1379
36481W        W79394  21.911  15.948  25.616  0.3539  0.0354 -0.0808
36482W        W79395   8.208  11.722   8.942  0.3521  0.1673  0.2223
36483W        W79396  22.341  22.463  27.632  0.0448  0.2642  0.1160
36484W        W79397  18.109  14.153  22.919  0.1075 -0.0906  0.0961
36485W        W79398  20.340  17.159   4.619 -0.1252 -0.1706  0.0899
36486W        W79399  21.123  10.508   7.020  0.1572 -0.2559  0.0108
36487W        W79400  23.287  17.158  26.713  0.3841 -0.2398 -0.3342
36488W        W79401  29.572  12.397  29.703 -0.3100 -0.1850 -0.4129
36489W        W79402  27.540  21.282   8.886  0.2114 -0.1338  0.2010
36490W        W79403  31.280  11.682  25.465  0.0969 -0.2691  0.2232
36491W        W79404  28.074  16.783   3.742 -0.2248 -0.1628 -0.1590
36492W        W79405   2.159  18.497   7.237  0.2535  0.4984 -0.1121
36493W        W79406  11.556  20.964  24.403  0.0871  0.3531 -0.3942
36494W        W79407  34.273   7.986  23.796  0.0879  0.2805 -0.0576
36495W        W79408  22.727  11.263  23.714  0.0396  0.1258 -0.0147
36496W        W79409  33.915  12.639  24.032  0.2554 -0.0706 -0.1553
36497W        W79410  33.977   8.841  27.838 -0.1399 -0.0816 -0.1776
36498W        W79411  33.161  29.759  27.526  0.1790 -0.1012 -0.1386
36499W        W79412  29.927  20.858  18.734 -0.1191 -0.0794  0.1256
36500W        W79413   3.729  18.570  19.450  0.2976 -0.1474  0.1166
36501W        W79414  27.313  20.079  28.072  0.1236  0.0559  0.3498
36502W        W79415   8.458  11.372  19.490 -0.2082 -0.0314 -0.2651
36503W        W79416  20.015   8.476  23.041  0.0012  0.0973  0.0122
36504W        W79417  29.322   6.627   1.428 -0.2977  0.2382 -0.3462
36505W        W79418  31.133  17.949   6.597  0.2455  0.0077  0.2230
36506W        W79419  31.850  12.164   4.502  0.0718  0.2987  0.2363
36507W        W79420  30.687  15.848   1.816 -0.0442  0.2098  0.0184
36508W        W79421  30.055  16.692   0.780 -0.2976  0.0301  0.1464
36509W        W79422  34.427  17.260  18.731 -0.1612  0.2119 -0.1160
36510W        W79423  28.283  13.997  26.471 -0.2855 -0.1078  0.0503
36511W        W79424  30.748   2.173  24.452  0.2654  0.0550 -0.1622
36512W        W79425  19.043  18.661  27.494  0.1952 -0.0984 -0.1083
36513W        W79426  27.217  12.127   4.666  0.5243 -0.2135 -0.0398
36514W        W79427   0.885   2.161  28.249  0.2253 -0.0935  0.1175
36515W        W79428  17.193   9.998  19.665  0.0712 -0.0046 -0.2078
36516W        W79429  30.706  17.260  24.247  0.0817  0.1951  0.1206
36517W        W79430  13.501  12.414  15.123  0.0020  0.0758  0.0093
36518W        W79431  25.379   6.232  24.705 -0.2080 -0.2459 -0.5106
36519W        W79432   6.305  22.758  27.661  0.0958  0.1704 -0.0223
36520W        W79433  15.939  33.915  29.048 -0.1940 -0.0317  0.0499
36521W        W79434   8.189  14.726  28.551 -0.0374 -0.2403  0.2027
36522W        W79435   3.008  19.512   4.559  0.2658 -0.0669  0.4227
36523W        W79436  26.822  11.548   2.626 -0.1247 -0.0056  0.2059
36524W        W79437  33.274  13.489   1.675  0.0911  0.0080  0.0826
36525W        W79438  16.144  11.263  18.968 -0.2665  0.0246  0.1836
36526W        W79439   2.361  11.483  23.613 -0.0391 -0.2640 -0.0203
36527W        W79440   4.825  14.739  28.631  0.2767  0.0040  0.0303
36528W        W79441  27.978  13.841  20.415  0.0375  0.1742  0.0016
36529W        W79442  18.119   4.120  27.445 -0.1777 -0.0274  0.1015
36530W        W79443   2.754   6.667   6.800  0.1825  0.0987  0.1448
36531W        W79444   4.240  17.671  29.138 -0.3349 -0.0360  0.1716
36532W        W79445  21.754  18.732   3.618  0.0164  0.0310 -0.0432
36533W        W79446  28.066  23.551  24.482  0.1218  0.2235  0.0023
36534W        W79447  30.052  21.485  24.225  0.0458  0.1686  0.0091
36535W        W79448  31.056  31.474  27.179  0.3446  0.0346  0.4014
36536W        W79449  32.089  12.614   7.184  0.4492  0.2140  0.0042
36537W        W79450   1.500  16.035  20.101  0.0970 -0.3013 -0.2616
36538W        W79451  29.623  14.176  26.825  0.1468 -0.0578  0.0732
36539W        W79452  32.526  10.315  21.579  0.0413  0.0343  0.0069
36540W        W79453  23.795  11.698  29.111  0.1363 -0.0464 -0.0872
36541W        W79454  18.724  11.948  27.670 -0.0861 -0.1115 -0.1056
36542W        W79455   5.766   5.374   1.006 -0.0970  0.1315  0.0313
36543W        W79456  22.413  14.219  25.911 -0.0526  0.0835 -0.0984
36544W        W79457  21.589   8.404   0.156  0.1311 -0.0633 -0.0301
36545W        W79458   3.911  11.725  15.969 -0.2686 -0.0103 -0.0801
36546W        W79459  26.144  11.967   9.369  0.4192 -0.1080 -0.0050
36547W        W79460  32.889  13.339   5.089  0.4402 -0.2333 -0.2095
36548W        W79461  21.776  20.295  24.184  0.0821  0.1685 -0.2982
36549W        W79462  32.211  16.202   3.392 -0.0233  0.0681  0.4948
36550W        W79463   7.261  14.991  16.104 -0.1747 -0.2318  0.1973
36551W        W79464   4.283   8.460   3.308 -0.0206  0.0828  0.0462
36552W        W79465  26.838  21.295  24.343 -0.0121  0.0097 -0.2317
36553W        W79466  27.385   7.995  29.180  0.1010  0.2774 -0.0876
36554W        W79467  26.631  10.860  19.594 -0.2096 -0.1505 -0.1729
36555W        W79468  30.985  21.423  28.280 -0.2910 -0.1904  0.2855
36556W        W79469  26.714  13.259  25.067 -0.1911 -0.0448 -0.0296
36557W        W79470  29.267  18.604  21.946 -0.5167 -0.0923  0.1915
36558W        W79471  29.614   9.909  29.070  0.1288 -0.0031 -0.4861
36559W        W79472   1.943  28.603  26.110  0.0501 -0.1284  0.2377
36560W        W79473  28.768  16.248  25.730 -0.0120 -0.4570  0.0862
36561W        W79474  34.195  19.559  25.559  0.1825 -0.0202  0.0004
36562W        W79475  29.337  11.868  23.972 -0.0841  0.1912  0.0386
36563W        W79476  27.121  18.001  23.008  0.1077  0.3472 -0.1315
36564W        W79477  23.791   9.332  23.001  0.3573 -0.0851  0.2621
36565W        W79478  21.917  17.423  24.418  0.1941 -0.2671 -0.0999
36566W        W79479  32.210  19.707   2.732  0.0039  0.0867 -0.1316
36567W        W79480  33.048   9.132  25.528  0.2224 -0.2714  0.1269
36568W        W79481  26.332  10.505  26.375 -0.1307 -0.2191 -0.0397
36569W        W79482  21.047  12.008   0.392  0.3597  0.0341 -0.1328
36570W        W79483  15.940   8.141  21.071  0.1562  0.2502 -0.1504
36571W        W79484  27.442  17.411  23.822 -0.1779  0.0131  0.1717
36572W        W79485  21.663  20.011  25.220  0.1463  0.0383  0.0957
36573W        W79486   3.431  26.056  19.372  0.0045  0.0658 -0.0183
36574W        W79487   6.337  22.007  23.398  0.3318  0.3032  0.0144
36575W        W79488  26.792  15.709  27.923  0.0737 -0.1123  0.2006
36576W        W79489  15.997  26.031  25.528 -0.0117 -0.2299  0.0266
36577W        W79490   0.377  14.537   1.921  0.3241  0.0788 -0.6304
36578W        W79491   0.925  19.504  27.906 -0.1349  0.3764 -0.1874
36579W        W79492  27.889  13.304   3.977  0.2924  0.1379 -0.1201
36580W        W79493  31.462  16.040  23.891 -0.2287  0.2423  0.0330
36581W        W79494  33.886   8.843  24.341  0.2216  0.3705 -0.1770
36582W        W79495  28.144  20.321  25.283 -0.1134 -0.1020  0.1590
36583W        W79496  21.715   5.605  18.577  0.1759  0.1458 -0.3760
36584W        W79497  28.712   8.313  22.597 -0.2413 -0.2319 -0.1338
36585W        W79498  32.559  23.117   2.738  0.1138 -0.2542 -0.0039
36586W        W79499  30.891   8.039   5.051  0.3421  0.0428 -0.1449
36587W        W79500  24.600  11.369   5.416 -0.1236  0.0484  0.4390
36588W        W79501  25.772  17.348  26.232  0.2542  0.0279  0.0750
36589W        W79502  32.087   9.673  29.756  0.0396  0.0212 -0.2462
36590W        W79503   7.378  18.765  21.492  0.0036 -0.1905 -0.0593
36591W        W79504  21.305  13.402  27.340  0.0284  0.0469  0.1165
36592W        W79505  33.503  12.092  29.140 -0.0993  0.2056 -0.1606
36593W        W79506  27.483   7.683  29.584 -0.0217  0.3753 -0.0639
36594W        W79507  32.163  27.710   0.578 -0.0314 -0.0468  0.1694
36595W        W79508  31.552  11.764  28.992 -0.1197  0.1252 -0.2051
36596W        W79509  31.327  10.496  27.316  0.0336 -0.2139 -0.2297
36597W        W79510  28.398  25.707  27.502 -0.1379 -0.3509 -0.1881
36598W        W79511  32.840   9.324   3.039 -0.3034 -0.0823 -0.2207
36599W        W79512  23.933  13.351  22.986 -0.1619  0.1792 -0.0430
36600W        W79513  25.214   8.084   0.068 -0.1660  0.0371 -0.2025
36601W        W79514   0.980  28.932  15.203  0.0301 -0.3036 -0.0263
36602W        W79515   2.933  24.830  22.078 -0.1555  0.3712 -0.1122
36603W        W79516  32.154  17.043   9.844  0.3278  0.2123 -0.0981
36604W        W79517  20.849  24.835  26.888 -0.2141  0.0825  0.1829
36605W        W79518  26.139  20.874  22.400  0.3255 -0.0407  0.2524
36606W        W79519  33.373  20.312   4.249  0.2435  0.0671  0.3192
36607W        W79520  30.279  22.136  28.632 -0.2234  0.0427  0.0152
36608W        W79521  27.920  17.664  14.890 -0.2921  0.1782 -0.7060
36609W        W79522   1.318  14.517  24.131  0.0108 -0.0216  0.2015
36610W        W79523  24.202  19.074   3.344  0.3146  0.0820  0.1670
36611W        W79524  15.722   6.208  25.786  0.2603  0.1268  0.2949
36612W        W79525   3.375  18.153  25.833 -0.0110 -0.0375 -0.0581
36613W        W79526  22.387  18.757  24.232  0.1196 -0.2937 -0.3943
36614W        W79527  29.044  10.485  14.902 -0.0485  0.3572 -0.0605
36615W        W79528  25.895  23.398   7.405 -0.1353 -0.0113 -0.3630
36616W        W79529  29.255  12.913  13.422  0.3476  0.0344  0.3497
36617W        W79530  21.872   2.617   0.705 -0.1280 -0.1547 -0.0313
36618W        W79531  27.561  17.099   3.264  0.0841 -0.1813 -0.1474
36619W        W79532   0.124   4.492  17.679 -0.3235  0.1054 -0.2236
36620W        W79533  31.292  18.225  29.668 -0.4478  0.2345  0.0311
36621W        W79534  20.704   7.495  17.067  0.3166 -0.2184  0.1635
36622W        W79535  18.611  14.411   1.031 -0.1180  0.0129 -0.2029
36623W        W79536  30.246  16.286  21.663  0.2390  0.1985  0.0769
36624W        W79537  29.924  18.681   3.140  0.1179  0.1037  0.1525
36625W        W79538   1.607  11.769  19.545 -0.1578  0.2115  0.4392
36626W        W79539  33.023  24.874  24.302 -0.0889 -0.0858  0.2636
36627W        W79540  30.275  14.579  24.815 -0.0614  0.0207  0.0046
36628W        W79541  29.407  33.493  24.994 -0.1405 -0.0194 -0.2652
36629W        W79542  32.735  10.752  17.737 -0.0613  0.0489 -0.0138
36630W        W79543  34.427   9.120   3.314  0.1956  0.2253  0.3594
36631W        W79544   0.968  11.006   3.791 -0.2578  0.1549 -0.2235
36632W        W79545  30.411   5.992  26.478 -0.1483 -0.2353  0.0549
36633W        W79546   1.903  17.753  27.372 -0.1813  0.1212  0.1149
36634W        W79547  23.642  13.746  23.756  0.0823  0.0328  0.0679
36635W        W79548  13.298  13.720   4.898  0.0474 -0.2605 -0.3506
36636W        W79549  23.560  14.652  29.777 -0.2190  0.1103  0.1193
36637W        W79550  32.186  21.376  27.416  0.3604  0.1789  0.4955
36638W        W79551  28.196  15.481  21.999  0.2363 -0.1377  0.0593
36639W        W79552  30.219  19.125  22.930  0.0390  0.0886 -0.0263
36640W        W79553  23.951  10.799  28.552 -0.0135  0.1542 -0.1455
36641W        W79554  27.196   5.345   2.659  0.0693  0.0090 -0.1374
36642W        W79555  31.590  18.070   3.503  0.1273 -0.1630  0.0959
36643W        W79556  24.528   8.224  22.400  0.1116 -0.3368 -0.1130
36644W        W79557  24.255   5.387  25.453 -0.0966  0.1604  0.0989
36645W        W79558  22.906   9.957  21.060 -0.0613 -0.0253 -0.0177
36646W        W79559  18.337  27.196  24.055 -0.1658  0.0699 -0.1814
36647W        W79560   6.120  26.971  25.803 -0.2780  0.0909 -0.0230
36648W        W79561  20.337  15.048  25.848 -0.1002  0.1740  0.1139
36649W        W79562  20.458  12.210   1.168  0.1521 -0.2444  0.1088
36650W        W79563   4.282  18.025  21.434  0.0060 -0.2270 -0.0552
36651W        W79564   7.538  14.474  26.222  0.0133 -0.1491  0.0464
36652W        W79565  31.707  15.371  20.231  0.1435 -0.2548 -0.0917
36653W        W79566  27.345  18.421  19.760 -0.3192 -0.2368  0.2159
36654W        W79567   4.198   9.352  22.938  0.0383 -0.1103  0.3222
36655W        W79568  26.376  18.194  22.021 -0.0542  0.1906  0.0269
36656W        W79569  32.908  17.772   0.321 -0.2489 -0.0787 -0.0690
36657W        W79570  15.914   1.720  27.721  0.3138  0.2002  0.3205
36658W        W79571   4.479  10.377  27.715 -0.0730  0.0312 -0.3343
36659W        W79572  27.438  21.232  26.825  0.1151 -0.4282 -0.2761
36660W        W79573   6.878  22.000   0.408  0.0544 -0.1400  0.3624
36661W        W79574  28.349  20.416  25.974  0.0500  0.0541 -0.1249
36662W        W79575   0.819   7.052  28.023 -0.0828  0.3240  0.1122
36663W        W79576   5.722   7.543  26.335  0.1251 -0.0556 -0.1090
36664W        W79577  31.233   8.324  23.604  0.2232  0.1572  0.0199
36665W        W79578  31.306  15.610   4.684  0.0806 -0.1432  0.1315
36666W        W79579  24.021  16.282   9.573 -0.1614 -0.1558  0.0996
36667W        W79580   3.756   7.767  19.054 -0.1052 -0.0940 -0.0696
36668W        W79581  30.325  15.702  21.778  0.2190  0.1427  0.0281
36669W        W79582   3.478  18.932   5.028 -0.1499  0.3469  0.1354
36670W        W79583  30.256  12.880   6.494 -0.0217 -0.1143 -0.1901
36671W        W79584  30.860   3.721  24.537  0.1853 -0.0466 -0.2080
36672W        W79585  28.136   0.957   1.970  0.0081 -0.1814 -0.4346
36673W        W79586  31.625   9.108  20.871 -0.0582 -0.0667 -0.1695
36674W        W79587  31.799   6.388   7.899  0.0200  0.0522  0.2654
36675W        W79588  27.458   8.502  25.456 -0.1532  0.2865 -0.0050
36676W        W79589  33.612  10.370   2.503 -0.2831  0.0945 -0.1996
36677W        W79590  22.192   9.331  27.541  0.0078  0.1995  0.2377
36678W        W79591   3.389   4.838  16.908  0.0500  0.0328  0.3896
36679W        W79592  25.262  13.886  26.016 -0.1200 -0.1540  0.0931
36680W        W79593   7.716   1.165  22.655 -0.1373  0.3121  0.2146
36681W        W79594  22.134  15.608   1.021  0.0264 -0.2684 -0.0533
36682W        W79595   4.875  12.781  28.054 -0.1988 -0.2933  0.0744
36683W        W79596   3.457   8.347  17.635 -0.0201  0.0674 -0.1823
36684W        W79597  31.771  20.948   7.617  0.3138  0.0533  0.2445
36685W        W79598  23.394  13.951  24.093 -0.2764  0.1160  0.2551
36686W        W79599  26.214  17.037  26.806  0.1558  0.0899  0.1616
36687W        W79600  23.828  19.028  27.408 -0.3516  0.2544  0.0943
36688W        W79601  32.954  11.282  27.208  0.2576  0.3152  0.1194
36689W        W79602   1.153  15.389  28.124 -0.0703  0.4408  0.0092
36690W        W79603  32.641  14.493   3.268  0.2526  0.1217  0.0935
36691W        W79604   6.677   9.990  29.370  0.1957 -0.1912 -0.0978
36692W        W79605  31.664   7.284  26.684 -0.0034 -0.1253  0.0226
36693W        W79606  24.844  13.523   4.205 -0.0890 -0.0531  0.1581
36694W        W79607  34.049  17.327   1.031 -0.1923  0.3685 -0.1081
36695W        W79608  17.053   6.752  24.529  0.0884  0.0174 -0.0945
36696W        W79609  33.098   2.598  24.038  0.2102 -0.2184  0.0164
36697W        W79610   5.363  22.841  16.868  0.0902 -0.1707  0.3842
36698W        W79611  26.302  15.347  22.667 -0.1470 -0.0627 -0.0964
36699W        W79612  33.480  12.419  24.129  0.1709  0.4907  0.1048
36700W        W79613  11.847  11.021  20.513  0.1491  0.0223 -0.1819
36701W        W79614   3.916  13.066   2.509  0.0320  0.2613 -0.0979
36702W        W79615  30.695  24.222  28.057  0.1292 -0.1844  0.2475
36703W        W79616  28.181  20.357  22.325 -0.0594  0.0319 -0.2007
36704W        W79617  25.511  14.370  24.950 -0.1295 -0.1019 -0.3057
36705W        W79618  31.441   6.315  21.345 -0.1241  0.0702 -0.1977
36706W        W79619  31.356   3.205   5.787  0.2361 -0.2170 -0.1489
36707W        W79620   9.927   5.020  10.043  0.0256 -0.0614 -0.0813
36708W        W79621  20.060  12.377  26.023  0.1670 -0.0567 -0.1475
36709W        W79622  28.941   7.821   1.800  0.1793  0.1113 -0.3293
36710W        W79623   8.390  20.753   8.944  0.1332  0.1439  0.1148
36711W        W79624  30.662  19.436   2.043 -0.3433  0.1723 -0.0341
36712W        W79625  34.218  16.956  25.296  0.4900 -0.1798 -0.1681
36713W        W79626  23.293  11.518  22.594  0.0219  0.2738  0.1070
36714W        W79627  22.619   6.486  18.262 -0.1066  0.1684  0.0832
36715W        W79628  28.338   4.997   1.028 -0.3089 -0.0367  0.4235
36716W        W79629  30.014   7.049   4.612 -0.1453 -0.1984  0.1251
36717W        W79630   9.241  20.146  25.556  0.2563 -0.2857 -0.3388
36718W        W79631  26.873  16.303  16.254 -0.0403 -0.0390 -0.1900
36719W        W79632  32.075  10.770  20.633  0.0165 -0.0774 -0.0953
36720W        W79633   3.104   6.000   0.643 -0.1065 -0.2553 -0.1672
36721W        W79634  31.489  17.114   0.891  0.1530 -0.2651  0.2083
36722W        W79635  31.440   4.883  29.525  0.3133 -0.0457  0.1725
36723W        W79636  30.087   4.826  16.503  0.0745  0.0144 -0.2980
36724W        W79637  31.754  10.497  29.668 -0.2575 -0.3883  0.3657
36725W        W79638  29.115  20.567   5.761 -0.0873 -0.3238  0.1074
36726W        W79639  23.621  28.016  24.056 -0.1592  0.0508 -0.0101
36727W        W79640  24.095  10.545   3.691  0.0818 -0.0392  0.0293
36728W        W79641   1.571  10.962  23.355 -0.0017  0.2378  0.0646
36729W        W79642  21.406  11.283  24.369  0.0980 -0.0094 -0.1014
36730W        W79643  27.831  24.835  29.347 -0.0515  0.1563  0.0194
36731W        W79644  17.044  25.419   5.673 -0.1624  0.2491 -0.0631
36732W        W79645   5.850  15.738  19.377 -0.1138  0.0297  0.0008
36733W        W79646  32.466  13.789  23.055  0.1506 -0.2400  0.3090
36734W        W79647  22.714   6.944   4.938  0.1826 -0.1497  0.0546
36735W        W79648  30.419  12.397  28.063 -0.1727 -0.2858 -0.1818
36736W        W79649  28.316  14.350  28.674 -0.2596  0.0910  0.0847
36737W        W79650  15.787  12.594  23.004  0.1059 -0.2150  0.0358
36738W        W79651   1.889  16.682   0.348 -0.1712  0.0944  0.1277
36739W        W79652  22.939  30.126   5.079  0.1223 -0.0269  0.3931
36740W        W79653  23.660   7.854   0.408  0.2210  0.0938 -0.1095
36741W        W79654  25.059   3.093  25.667  0.0507 -0.0032 -0.1521
36742W        W79655   8.821  16.730  27.493  0.0826  0.1548 -0.0249
36743W        W79656  23.128  11.031   6.418  0.0539 -0.0347  0.0141
36744W        W79657  22.956   8.046   2.874  0.2827 -0.2393 -0.5353
36745W        W79658   5.244  33.844   4.454 -0.3124  0.1055  0.1228
36746W        W79659  23.988  19.539   5.292 -0.1035  0.0858  0.2111
36747W        W79660  27.800  21.152   8.424  0.1323  0.2238  0.2150
36748W        W79661  21.104   5.454  19.360  0.0446 -0.1802 -0.0608
36749W        W79662  30.094   7.518  26.139 -0.1406 -0.1727  0.1038
36750W        W79663  33.031   3.128   7.293  0.1103  0.2819 -0.0304
36751W        W79664  31.256   7.977  26.596  0.0142 -0.1744 -0.0674
36752W        W79665  29.840  12.249  21.942  0.1134  0.0376  0.1703
36753W        W79666  26.764  18.016  20.126 -0.1676  0.0284 -0.0081
36754W        W79667   5.630   4.329  27.228 -0.3064 -0.1376  0.3188
36755W        W79668  29.038  23.620  25.079  0.1704  0.0841 -0.0210
36756W        W79669  15.090  20.870   3.994  0.1150  0.0172 -0.2137
36757W        W79670  30.574   6.960  28.770 -0.0686 -0.4465 -0.0307
36758W        W79671   4.201  10.825  20.726  0.0100 -0.1840  0.1442
36759W        W79672  17.466  16.113  24.042  0.0332 -0.3187  0.0830
36760W        W79673  22.187  21.126  23.473  0.1902 -0.2615 -0.0739
36761W        W79674  29.095   9.676  14.805 -0.2142 -0.4162 -0.2926
36762W        W79675  27.930  12.244  22.511  0.0353  0.3473 -0.1236
36763W        W79676  28.161   5.487  27.662  0.0328  0.0715  0.6945
36764W        W79677  27.073   8.965   1.278 -0.0015  0.1555 -0.3858
36765W        W79678  31.144  15.131  19.546 -0.0292 -0.0959 -0.0875
36766W        W79679   1.506  13.358  17.543  0.2852  0.3021  0.2035
36767W        W79680  29.459   8.475  22.907  0.1176 -0.0153 -0.0825
36768W        W79681  28.861   5.490   9.251 -0.1684 -0.2044  0.2504
36769W        W79682  27.904  17.645  18.831  0.0873  0.0236 -0.0109
36770W        W79683  30.553   8.975  28.611 -0.1689 -0.4355  0.3310
36771W        W79684  28.209  11.642  21.575  0.0692  0.1708 -0.2051
36772W        W79685  31.477   7.377  23.743 -0.0948 -0.0265 -0.1377
36773W        W79686  28.609  16.632  24.399  0.0762 -0.0097 -0.0254
36774W        W79687  14.377  10.024   0.084  0.1064  0.1827  0.0619
36775W        W79688  25.472  19.803  23.229  0.0291 -0.2063  0.1400
36776W        W79689  34.165  18.863  23.199  0.0283 -0.1338 -0.1786
36777W        W79690  27.622   7.235  19.634 -0.2282  0.0423  0.0506
36778W        W79691   2.399  17.292  19.141  0.1824 -0.1757  0.2862
36779W        W79692   3.173  20.385   1.172 -0.1793  0.1618  0.1646
36780W        W79693  31.766  16.264  27.316 -0.1361 -0.2135 -0.0665
36781W        W79694  27.586  15.834  22.569  0.0728 -0.2312  0.4081
36782W        W79695  25.905  14.314  23.658 -0.1731 -0.0509  0.0431
36783W        W79696   8.030  15.744  24.771 -0.2571 -0.0882  0.0486
36784W        W79697   1.780  12.342  27.282 -0.0186 -0.0057 -0.2137
36785W        W79698  26.436  10.504  23.800 -0.2375 -0.0133 -0.1650
36786W        W79699   1.441  21.475  21.729  0.0619 -0.0849 -0.0511
36787W        W79700  19.640   7.301   1.346  0.0642 -0.2643 -0.2167
36788W        W79701  22.005  18.660  18.442  0.3108 -0.3528  0.0634
36789W        W79702  29.250  12.869  25.983 -0.1390  0.1723 -0.0059
36790W        W79703  29.902  10.591  29.622  0.0446  0.1722  0.0563
36791W        W79704  28.083   9.106  17.622 -0.3449 -0.3147 -0.0743
36792W        W79705   3.982  26.240  29.145  0.3109  0.2109  0.2505
36793W        W79706  32.342  19.610   7.771 -0.2059  0.1933 -0.3164
36794W        W79707  23.790   6.790   5.643  0.0896  0.3332 -0.3323
36795W        W79708  21.872  21.640  27.280 -0.1146 -0.1689  0.0115
36796W        W79709  28.503  21.710  26.917 -0.3487 -0.2405  0.3549
36797W        W79710  29.361  16.970  17.797  0.1031 -0.0714 -0.2212
36798W        W79711  27.432  12.958  23.907 -0.0810 -0.1770  0.2623
36799W        W79712   3.574  21.006   2.751  0.3047  0.0321  0.1645
36800W        W79713  30.853  19.353  26.194 -0.1663  0.1332 -0.2125
36801W        W79714   4.253   9.957  16.861 -0.3583  0.0847 -0.0725
36802W        W79715  31.889  10.949  26.567 -0.1724  0.3776  0.0783
36803W        W79716  24.610  16.210  26.643 -0.2360  0.3434 -0.0696
36804W        W79717  31.448  15.657  18.818  0.3657  0.0593 -0.0467
36805W        W79718   7.400  17.166  29.296  0.0543  0.0026  0.0089
36806W        W79719   6.524  18.339  24.960 -0.3809 -0.1278  0.0247
36807W        W79720   2.352  12.946   9.753  0.1885  0.0812 -0.0549
36808W        W79721   0.891  10.300  27.355 -0.3728 -0.3972  0.0741
36809W        W79722  16.428   4.882  23.315  0.0948  0.1559 -0.0669
36810W        W79723  32.042  12.771  13.408  0.2499 -0.0269  0.0127
36811W        W79724  22.438   9.803  28.732  0.0026  0.0293  0.0463
36812W        W79725  24.341  13.062   6.992 -0.0048  0.0555  0.0224
36813W        W79726   4.168  12.905  22.866  0.1385 -0.2765  0.1163
36814W        W79727   0.277  11.168  20.609  0.2014  0.0651 -0.0592
36815W        W79728  34.108   2.570   4.280  0.0050  0.1721 -0.2312
36816W        W79729  28.250   6.537  20.626  0.0962 -0.0816 -0.1564
36817W        W79730  27.888  18.906  27.992  0.1411  0.2770  0.0749
36818W        W79731  34.147  13.977   5.882  0.0397  0.4420 -0.1926
36819W        W79732  16.873  13.622  22.911 -0.0751  0.1201 -0.0575
36820W        W79733  33.984   9.926   0.741  0.1109 -0.0618  0.3745
36821W        W79734  28.633   6.543  17.633 -0.2464  0.1150 -0.0403
36822W        W79735  21.625  18.745   6.203 -0.0675 -0.2776 -0.1623
36823W        W79736  34.280   7.846  27.671  0.2981  0.0304  0.1181
36824W        W79737   0.662  19.915  29.188  0.1471  0.0134 -0.1962
36825W        W79738  24.069  15.343   8.590 -0.2096  0.2131  0.0649
36826W        W79739   2.086  14.240  17.350 -0.0151  0.3149 -0.0962
36827W        W79740  29.191   5.702  22.595 -0.2866 -0.3176  0.0056
36828W        W79741  23.096  12.347   2.735 -0.1592  0.0583  0.0187
36829W        W79742   5.496  14.616  23.849 -0.0763 -0.3973  0.1971
36830W        W79743  30.584   5.216  25.280  0.1301 -0.3501 -0.1984
36831W        W79744  31.175   7.696   9.921 -0.1869 -0.0385 -0.1854
36832W        W79745   9.061   1.221  23.302 -0.0817  0.0681 -0.0073
36833W        W79746  27.863   6.161  18.791  0.0827  0.1393  0.2192
36834W        W79747  30.649   7.525  17.265 -0.0880 -0.0830 -0.1362
36835W        W79748   1.063   9.803  18.900 -0.1205  0.2063 -0.0751
36836W        W79749   5.135  11.106  25.045 -0.0183  0.2407  0.2097
36837W        W79750  27.386   3.045   4.382  0.1953 -0.0983 -0.4998
36838W        W79751  23.575  13.729  22.171  0.0879 -0.0095  0.0713
36839W        W79752   8.013  12.382  28.259 -0.1110  0.1860 -0.0768
36840W        W79753  23.488  17.797   8.055 -0.0075  0.2204 -0.1208
36841W        W79754  13.790  14.750  25.799  0.2155 -0.1795  0.1259
36842W        W79755   7.687  15.760  28.773  0.1151  0.0509 -0.2222
36843W        W79756  27.533  19.853  17.355  0.1377 -0.1969 -0.2595
36844W        W79757  32.703   8.437   9.468 -0.1988  0.1375 -0.3186
36845W        W79758  27.542  17.051   4.459  0.0432  0.0509  0.0639
36846W        W79759  34.083  20.724  26.398  0.1777  0.0617  0.2215
36847W        W79760  28.804   6.285  22.554 -0.2237  0.1634 -0.1013
36848W        W79761   2.385  19.990   4.557  0.1462 -0.0991  0.0716
36849W        W79762  30.150  16.187   0.643 -0.0021 -0.1105 -0.0130
36850W        W79763  30.609  14.581  21.756 -0.1357 -0.0186 -0.0784
36851W        W79764  30.156  13.285  16.338 -0.0736 -0.0069 -0.0466
36852W        W79765  24.097  15.888  15.168  0.0343 -0.0608 -0.1914
36853W        W79766  23.584   4.885  26.826  0.4680 -0.4021 -0.0780
36854W        W79767   8.489   9.688  16.626  0.1119 -0.1933 -0.1876
36855W        W79768  30.205  13.441  15.856 -0.1480  0.1409  0.0291
36856W        W79769  19.821  18.628  27.956 -0.1628 -0.0899 -0.1054
36857W        W79770   5.773   8.821  25.869  0.0394  0.0472  0.0008
36858W        W79771  31.664  19.900   7.945 -0.1399  0.1490  0.0191
36859W        W79772   0.179   9.834   1.486 -0.2445 -0.1071  0.3360
36860W        W79773  26.931  14.773   0.995 -0.3029 -0.2020  0.2093
36861W        W79774  26.713  23.960   5.523 -0.0935 -0.0690  0.2150
36862W        W79775   0.892  13.402   1.940 -0.2978 -0.1190  0.2544
36863W        W79776  25.227  15.596  29.724  0.0693 -0.0321 -0.0408
36864W        W79777  31.853  22.574   0.022  0.4002 -0.0099 -0.1717
36865W        W79778   1.535  10.769  19.752  0.0447 -0.2147  0.2291
36866W        W79779  25.360   2.605  28.235  0.0393  0.1448  0.2953
36867W        W79780  29.965   8.045  22.121  0.3766 -0.0729 -0.4529
36868W        W79781  33.776  31.789  19.603  0.1635  0.1701  0.0401
36869W        W79782   2.034  12.646  25.581 -0.1742  0.0510 -0.2053
36870W        W79783  33.188  16.823   4.115  0.0883 -0.1769  0.1038
36871W        W79784  32.937  24.693  19.848 -0.0696 -0.1195  0.0696
36872W        W79785  24.053   6.221  24.899 -0.0517  0.1087  0.3941
36873W        W79786  33.092  21.927  22.194  0.0476 -0.1445  0.2281
36874W        W79787   3.869  20.707   2.409 -0.1815  0.0001  0.0121
36875W        W79788  31.228  14.264  27.500 -0.1693 -0.2880 -0.2542
36876W        W79789  24.809  13.870  26.581  0.1076 -0.1537  0.5051
36877W        W79790  25.496  12.580  28.730  0.2103 -0.1221  0.2153
36878W        W79791  25.054  17.940  28.286 -0.1660  0.2506 -0.1319
36879W        W79792  32.485  10.165   7.233  0.1380 -0.1718 -0.5149
36880W        W79793  32.422  14.879   8.686  0.1073 -0.0315 -0.0270
36881W        W79794   6.751  11.263  19.569 -0.0866  0.2695 -0.1556
36882W        W79795   1.206  20.990   1.875 -0.2130 -0.3109 -0.3501
36883W        W79796  26.796   2.395   4.061 -0.2935 -0.0705  0.0611
36884W        W79797  28.791  19.811  28.850 -0.1812 -0.0457 -0.4478
36885W        W79798   3.383  19.669   8.363 -0.0659 -0.0260  0.0295
36886W        W79799  31.005  13.561   2.738  0.1421 -0.2010  0.2023
36887W        W79800  26.344  16.087   3.302  0.1961 -0.0869 -0.0349
36888W        W79801  19.551  22.232  24.764  0.0913 -0.1635 -0.4303
36889W        W79802  25.639  20.677   8.085 -0.0750 -0.3840 -0.0374
36890W        W79803  32.762   9.843  24.410  0.0002  0.3314 -0.1168
36891W        W79804  27.768   8.885   2.647  0.2449 -0.2460 -0.2927
36892W        W79805  33.962  10.190  15.987 -0.0775  0.0602 -0.2129
36893W        W79806  22.991   5.698   5.294 -0.1959  0.2134  0.1273
36894W        W79807   1.831  14.812   8.991  0.0913  0.3202  0.1408
36895W        W79808  30.631  15.404   2.029  0.3677 -0.1408  0.0032
36896W        W79809  33.925  20.013  29.560 -0.0544 -0.1415  0.0878
36897W        W79810  27.697   7.599  17.643 -0.0444  0.3480  0.2327
36898W        W79811   0.930  17.962  28.530 -0.2421 -0.2837  0.3586
36899W        W79812  31.130  14.131  23.609  0.0204  0.1233  0.0836
36900W        W79813   0.004  14.071   9.263 -0.1015  0.1480  0.1269
36901W        W79814   0.813  21.521  23.933  0.1474 -0.1304 -0.1494
36902W        W79815  32.174  17.297   0.414  0.0318  0.1123 -0.1698
36903W        W79816  33.513  15.236  29.090  0.0167 -0.0695  0.0354
36904W        W79817  27.855  15.022  24.166 -0.3777  0.1415  0.5520
36905W        W79818   4.227  15.450   1.571  0.4346 -0.0006  0.0489
36906W        W79819  27.183  19.191  27.468 -0.1929  0.1526 -0.0623
36907W        W79820  31.805  32.491   8.599 -0.1316  0.1830  0.2725
36908W        W79821  33.200   3.505   1.314 -0.1932 -0.3756  0.1724
36909W        W79822   0.091   6.165  24.356 -0.1053  0.3146 -0.1708
36910W        W79823  28.023   9.127  26.102  0.0486  0.0172 -0.2887
36911W        W79824  34.351  17.488  23.149 -0.1504  0.3747 -0.2024
36912W        W79825  23.850  14.038  25.005  0.1576 -0.0915  0.0807
36913W        W79826   7.194   6.595  27.609 -0.0217 -0.0773 -0.0974
36914W        W79827   2.154  19.807  18.486 -0.1999 -0.1583  0.3374
36915W        W79828  23.794  13.955  16.665 -0.0136 -0.2768  0.2164
36916W        W79829  25.597  23.563  27.935 -0.1060  0.2829  0.0619
36917W        W79830   1.609  18.919   1.725  0.1827 -0.0171  0.2099
36918W        W79831  27.276  19.609  22.984  0.3214 -0.1510  0.0544
36919W        W79832   1.165   8.347  21.865  0.2161  0.1473  0.0774
36920W        W79833  24.432  22.738   3.584 -0.1342  0.1303 -0.0369
36921W        W79834   5.060   7.401  25.100 -0.2677  0.0005  0.1109
36922W        W79835  33.288   7.886   5.769 -0.1938  0.1247 -0.1780
36923W        W79836  31.464  14.673  29.453 -0.0056  0.1180  0.2856
36924W        W79837   1.666  22.123  19.873 -0.0494  0.1212 -0.0468
36925W        W79838  31.438   2.552  22.710 -0.0913 -0.1994 -0.0526
36926W        W79839  26.632  16.902  25.337 -0.0283 -0.1155 -0.1045
36927W        W79840   1.558  16.860  22.667 -0.3000 -0.0879  0.0050
36928W        W79841  27.851  18.523  22.856  0.1611  0.0545 -0.3043
36929W        W79842  27.734  20.997  18.212 -0.1112 -0.0817  0.1807
36930W        W79843  34.045  20.030  24.035 -0.1208 -0.0109  0.1519
36931W        W79844  27.594  18.847  15.537  0.4156  0.0350  0.3711
36932W        W79845   7.480  21.791  16.141 -0.0134  0.0661 -0.0567
36933W        W79846  27.502  15.575  17.392  0.0933  0.0449  0.0651
36934W        W79847  34.402  20.270  15.020  0.0095  0.1288 -0.1620
36935W        W79848  34.126  11.806  17.108  0.1759  0.0717 -0.1033
36936W        W79849  29.904  14.222  16.660 -0.1381  0.0532 -0.0446
36937W        W79850  32.021  17.459  20.829 -0.2702 -0.2172 -0.0487
36938W        W79851  30.265   8.826  16.135 -0.2982 -0.2479 -0.4145
36939W        W79852  30.744  21.481  13.272 -0.0020 -0.1195 -0.3283
36940W        W79853  22.599  16.760  13.260 -0.0246  0.2529  0.1590
36941W        W79854  28.380  21.482  15.015  0.3216 -0.2356  0.1514
36942W        W79855  32.187   4.327  17.985  0.0979  0.0527  0.1433
36943W        W79856  20.591  18.217  12.156  0.0358  0.0094 -0.1499
36944W        W79857  31.969  18.194  21.301  0.0973  0.0913  0.0084
36945W        W79858  29.632  13.323  19.997  0.1836  0.0260 -0.2869
36946W        W79859  24.783   9.698  20.780  0.1079 -0.0474  0.0695
36947W        W79860  15.841  12.195  19.104 -0.2995 -0.0937 -0.1248
36948W        W79861   1.301  15.834  20.618 -0.1564 -0.0397 -0.1568
36949W        W79862   4.790  16.054  15.515 -0.0554 -0.0130 -0.1505
36950W        W79863   1.057  17.759  18.898  0.1244  0.3824 -0.0109
36951W        W79864  28.540  19.665  21.778  0.1559 -0.0515  0.0708
36952W        W79865  27.698  16.212  16.861  0.1862 -0.1847  0.2896
36953W        W79866   0.333  13.592  19.730 -0.0604 -0.0713 -0.0239
36954W        W79867  22.463  17.135  14.994  0.0070 -0.2613 -0.2857
36955W        W79868  25.820  15.427  22.002 -0.0902  0.1365  0.0239
36956W        W79869   1.425  20.670  14.348  0.0353 -0.2092 -0.1691
36957W        W79870  32.234  20.066  19.617  0.2536  0.0626 -0.0916
36958W        W79871  31.277  23.196  15.186 -0.2202  0.0423  0.0509
36959W        W79872  32.297   8.222  20.648  0.0236  0.3215 -0.0253
36960W        W79873  30.019  19.269  15.630 -0.1134 -0.1965 -0.1789
36961W        W79874  25.006  15.046  23.944 -0.1373 -0.3022  0.0927
36962W        W79875  33.649  24.340  18.012  0.0883 -0.3185 -0.1429
36963W        W79876   2.579  21.762  22.806 -0.3626 -0.1201  0.2079
36964W        W79877  24.603   8.013  26.822 -0.0393 -0.2102  0.0223
36965W        W79878  33.488  30.478  16.681 -0.1433 -0.0918 -0.0181
36966W        W79879  30.108  16.977  27.098 -0.1581  0.2350 -0.0178
36967W        W79880   5.604  16.917  14.987  0.2768 -0.2314 -0.0023
36968W        W79881  26.148   9.220  17.368 -0.1177 -0.3264 -0.0109
36969W        W79882   0.270  14.512  17.929  0.3787  0.0642 -0.1969
36970W        W79883  33.306  17.494  22.401 -0.0932  0.3578  0.1467
36971W        W79884  33.002  21.245  22.582 -0.1363  0.0663 -0.1197
36972W        W79885  27.167  12.621  24.572  0.2106  0.0437 -0.0899
36973W        W79886  32.614  21.535  17.099 -0.1379  0.1410 -0.1562
36974W        W79887  31.443  11.668  17.511  0.1899 -0.1175 -0.2276
36975W        W79888   2.259  18.486  19.630  0.1041 -0.1074 -0.2659
36976W        W79889  15.176  20.547  15.038  0.0626 -0.1834  0.1037
36977W        W79890   0.080  18.569   2.519 -0.1767  0.0119 -0.1434
36978W        W79891  29.984  21.815  22.138  0.1126 -0.1584 -0.2730
36979W        W79892  25.543  25.261  17.560  0.0440 -0.1942  0.1077
36980W        W79893  32.226  28.339  22.367 -0.0427  0.0585  0.0450
36981W        W79894  23.834  25.113  13.712  0.2304  0.0546  0.0885
36982W        W79895  30.291  12.783  13.690  0.1436  0.1561 -0.0347
36983W        W79896   0.367  21.559  17.917 -0.0562 -0.0327 -0.0224
36984W        W79897  32.648  17.669  14.327 -0.1424  0.2210  0.3729
36985W        W79898  29.423  17.811  16.322 -0.2515  0.1060  0.2207
36986W        W79899  26.037  24.299  24.653 -0.4574 -0.1539  0.0601
36987W        W79900   1.302   7.881  17.795 -0.3349  0.2542 -0.0670
36988W        W79901  28.096  13.531  17.567 -0.0445  0.2070 -0.0716
36989W        W79902  31.934  18.524  17.670 -0.0400  0.1234 -0.1668
36990W        W79903  27.176   8.359  14.754  0.0369 -0.0867  0.1263
36991W        W79904  32.675   9.680  23.113  0.0416 -0.2179 -0.0987
36992W        W79905  23.089  21.555  15.250 -0.0326 -0.2767 -0.1177
36993W        W79906   3.071  12.897  15.049  0.2433  0.0119  0.0721
36994W        W79907  29.489  19.399  16.641 -0.1229 -0.1143  0.0687
36995W        W79908   8.466  23.323  18.040  0.1669 -0.1501 -0.2896
36996W        W79909   8.203  15.646  21.482  0.2028  0.3103 -0.0172
36997W        W79910  33.960  17.868  25.178  0.3439  0.0518  0.1369
36998W        W79911  21.812  28.192  16.001 -0.1926  0.1093 -0.1429
36999W        W79912  29.276  17.748  22.031  0.0989  0.1329 -0.0655
37000W        W79913  12.630  30.500  22.291 -0.0787  0.1526 -0.2329
37001W        W79914  23.604  21.026  20.691  0.0368  0.0987  0.0521
37002W        W79915   3.075   8.396  17.271 -0.3472 -0.0247  0.0565
37003W        W79916   4.335  17.542  22.362 -0.0221 -0.1696  0.2410
37004W        W79917  34.143  10.847  16.611  0.1118  0.0170 -0.0807
37005W        W79918  16.112   7.707  21.195  0.0823  0.1672  0.0182
37006W        W79919  27.994  20.641  15.053 -0.1579  0.0547 -0.3086
37007W        W79920   0.404  26.845  18.795  0.2419 -0.1158  0.0738
37008W        W79921   8.287  22.093  22.638  0.0217 -0.1513 -0.0793
37009W        W79922   3.665  17.871  14.826  0.2321 -0.1203 -0.1252
37010W        W79923   1.143  14.214  26.501 -0.3473 -0.2756  0.1466
37011W        W79924   7.753  18.262  20.336  0.0781  0.0916  0.0820
37012W        W79925  33.245  22.282  23.435  0.3265  0.1004  0.0720
37013W        W79926  24.226  25.162  13.427 -0.1556 -0.0065  0.0983
37014W        W79927   3.234  26.189  17.501 -0.1970 -0.0946  0.0714
37015W        W79928  31.384  23.917  16.480  0.3012 -0.0528  0.4649
37016W        W79929  27.778  17.638  25.369 -0.1245  0.3726  0.3981
37017W        W79930  23.689   6.515  26.059  0.0036  0.3068 -0.0390
37018W        W79931  22.301  26.141  23.131 -0.1423 -0.2494  0.5319
37019W        W79932  30.130  16.718  21.333  0.0389 -0.1285  0.0561
37020W        W79933  30.015  14.125  24.905  0.1029  0.0435 -0.0295
37021W        W79934  30.214  16.174  13.323 -0.1244  0.0504 -0.3488
37022W        W79935   5.966   1.028  22.558  0.1011  0.1953 -0.1789
37023W        W79936  24.493  20.676  19.917 -0.1494  0.1735 -0.1561
37024W        W79937  25.168  11.040  14.664  0.0204  0.0271 -0.1794
37025W        W79938   3.920  14.220  20.836 -0.0225 -0.0688  0.1157
37026W        W79939  30.435  25.495  28.935  0.4562  0.3379 -0.0737
37027W        W79940  29.945  22.348  12.821  0.1992  0.0783  0.0015
37028W        W79941  31.048  12.164  17.771 -0.1973  0.1607  0.2177
37029W        W79942  31.038  20.071  13.892  0.1697  0.3181 -0.3516
37030W        W79943  33.475  17.644  25.320 -0.1235 -0.1705  0.0929
37031W        W79944  28.219  18.590  17.881 -0.1136 -0.0227  0.2134
37032W        W79945  32.486  14.858  15.249  0.1184  0.2739 -0.1751
37033W        W79946  27.980  16.652  18.471 -0.2360  0.1094  0.1357
37034W        W79947  31.709  14.389  17.941  0.0388  0.3001  0.0110
37035W        W79948  16.474  26.827  15.985  0.1233  0.1890  0.1907
37036W        W79949   1.283  18.818  14.425  0.0055  0.2074 -0.0123
37037W        W79950  32.949  18.298  22.225  0.1301 -0.0080  0.0577
37038W        W79951  27.062   9.257  20.143 -0.3035  0.0448  0.0323
37039W        W79952  28.691  26.040  18.567 -0.1520 -0.0035 -0.2395
37040W        W79953   0.648  13.683  29.156  0.1344 -0.0402  0.1247
37041W        W79954  19.415  10.792  20.224  0.1249  0.0453  0.1169
37042W        W79955  21.676  24.188  14.200 -0.1379  0.1896  0.1444
37043W        W79956  32.258   8.800  15.759 -0.1019  0.0563  0.0680
37044W        W79957   5.123  30.223  16.216 -0.0448 -0.2101  0.0715
37045W        W79958   4.025   7.642  17.990 -0.3680 -0.0258 -0.0541
37046W        W79959  18.831  22.530  26.544 -0.1699  0.2786  0.2073
37047W        W79960  33.799   8.402  19.959  0.2423 -0.1722 -0.3763
37048W        W79961  32.614  10.592  26.093 -0.0915 -0.0530  0.3024
37049W        W79962  25.422   9.527  16.645  0.0655  0.1106 -0.1617
37050W        W79963  28.199  13.234  14.987  0.3044 -0.1094  0.0362
37051W        W79964   1.561   8.062  16.699 -0.0409  0.0078 -0.2190
37052W        W79965  31.016  12.448  22.883  0.0084  0.3753  0.1861
37053W        W79966   3.527  12.660  16.147 -0.0050 -0.0668 -0.0338
37054W        W79967   4.353  12.260  16.232 -0.1291 -0.2796  0.2584
37055W        W79968  31.899  12.636  15.937  0.0635  0.1775  0.1384
37056W        W79969  23.966  20.138  17.065 -0.1654  0.1895 -0.2573
37057W        W79970   0.688  18.926  19.805 -0.0968 -0.1205  0.1414
37058W        W79971   4.098  10.734  23.113 -0.0258  0.3134 -0.1750
37059W        W79972  24.767   9.381  18.170  0.2691 -0.0113  0.0225
37060W        W79973  29.472  22.101  27.945 -0.0620 -0.0525 -0.2459
37061W        W79974  28.993  19.530  15.874  0.1864  0.1345 -0.3049
37062W        W79975   4.750  14.700  15.151  0.0609 -0.0027 -0.0810
37063W        W79976   0.895  11.463  15.677 -0.1866 -0.0208 -0.0738
37064W        W79977  26.017   9.905  14.317 -0.0927  0.1600 -0.1234
37065W        W79978  30.736   8.396  20.651  0.2079  0.0647  0.1666
37066W        W79979   6.283  17.867  15.307  0.2984  0.0074  0.0133
37067W        W79980  22.825  22.850  15.898  0.3288 -0.0450  0.0404
37068W        W79981   1.704   5.938  20.629  0.0277 -0.3526 -0.1687
37069W        W79982  33.723   7.962  20.610  0.0049 -0.3600  0.1376
37070W        W79983  25.805  28.466  13.315  0.0004  0.0437  0.1322
37071W        W79984  29.518  23.601  14.071 -0.0915  0.1534  0.0594
37072W        W79985  18.830   1.315  20.483  0.0306 -0.0348 -0.2332
37073W        W79986   0.003  15.187  20.699  0.0383 -0.2624 -0.1461
37074W        W79987  26.892  14.608  17.047  0.1286 -0.0102 -0.0799
37075W        W79988  26.243  12.166   1.568  0.0178  0.1474 -0.0335
37076W        W79989  24.690  18.116  14.507  0.0733  0.0568  0.2032
37077W        W79990   8.253  20.207  23.983 -0.0516 -0.2938  0.2472
37078W        W79991  27.634  16.171  14.511 -0.0113 -0.2147  0.3218
37079W        W79992  29.239   8.156  23.242 -0.3694  0.1551  0.0627
37080W        W79993   7.880   3.461  22.150 -0.3662  0.0544 -0.0746
37081W        W79994  28.894  17.963  17.487 -0.0562 -0.1533  0.0620
37082W        W79995   1.250  18.167  23.466 -0.0236 -0.2194  0.0230
37083W        W79996  28.199   5.207  17.070  0.0466 -0.0967  0.1317
37084W        W79997  24.198  14.534  24.291  0.0556  0.1769 -0.1500
37085W        W79998   1.027  23.549  17.009  0.1003 -0.0978 -0.2927
37086W        W79999  29.842  14.820  25.683  0.0658 -0.4112  0.2224
37087W        W80000   2.937  26.752  15.729  0.0180  0.0679 -0.1004
37088W        W80001  26.309  21.159  13.151 -0.2107  0.0628  0.0536
37089W        W80002   7.848  13.178  20.326 -0.1084 -0.0412  0.0809
37090W        W80003  31.627  18.709  20.726 -0.0306  0.0749 -0.0877
37091W        W80004  29.928  21.575  16.127 -0.1860  0.1000 -0.1811
37092W        W80005  30.964  29.864  18.945  0.2678  0.1889  0.0378
37093W        W80006  30.199  14.200  26.985  0.0163 -0.1466 -0.0894
37094W        W80007   7.332  16.092  22.575  0.2787  0.0499 -0.1041
37095W        W80008   0.307  10.091  17.891 -0.0295 -0.1268 -0.0979
37096W        W80009  25.115  13.694  13.490 -0.1044 -0.0356  0.1697
37097W        W80010  26.877  15.953  20.542 -0.0496  0.1712 -0.1131
37098W        W80011  30.320  12.557  16.273  0.1214  0.1704 -0.0502
37099W        W80012  28.851  10.531  29.375 -0.0384  0.1509  0.1332
37100W        W80013  32.616  16.051  19.427 -0.1619  0.3607  0.1601
37101W        W80014  30.278   1.383  16.949  0.1257  0.0657  0.1729
37102W        W80015  25.392  23.579  12.370  0.0881 -0.0996 -0.0501
37103W        W80016   7.239  12.682  19.490  0.0317  0.0114  0.0067
37104W        W80017  30.794  15.238  18.191  0.1481 -0.0168  0.0285
37105W        W80018  32.223  13.790  25.183  0.1643 -0.1671  0.0912
37106W        W80019  31.037  24.307  25.496  0.0585  0.2066  0.0850
37107W        W80020  27.019  18.724  15.003 -0.2624 -0.3106  0.0539
37108W        W80021  33.626  31.596  22.311  0.0335  0.1157 -0.1678
37109W        W80022  29.557  12.609  21.076 -0.1478 -0.1200 -0.0667
37110W        W80023  28.355  10.775  16.259 -0.1299  0.2493 -0.2452
37111W        W80024  30.685  12.207  16.513 -0.1267 -0.1367 -0.0804
37112W        W80025  29.928   9.688  15.362  0.2283 -0.1558 -0.0362
37113W        W80026  28.008  17.263  16.331 -0.3263  0.3682 -0.3069
37114W        W80027   0.195  21.400  18.431 -0.0953  0.0092 -0.0526
37115W        W80028  22.797   6.752  14.771 -0.3153  0.1611  0.0721
37116W        W80029  26.385  23.130  15.934  0.0196  0.0796 -0.2646
37117W        W80030   2.215  27.245  18.713  0.1826  0.0039 -0.0342
37118W        W80031  32.148  24.498  15.523 -0.3394 -0.0843  0.0580
37119W        W80032   3.618   3.164  25.283 -0.1332  0.3639 -0.0727
37120W        W80033  25.544  25.637  19.681 -0.0647 -0.1757 -0.1676
37121W        W80034  22.024   9.737  18.857  0.0042 -0.0623 -0.0133
37122W        W80035  25.867  15.602  19.495 -0.1440 -0.0415  0.1058
37123W        W80036  30.921  24.636  15.378 -0.1342 -0.1236 -0.1256
37124W        W80037  25.489  18.586  20.896  0.2153  0.1518 -0.3338
37125W        W80038   3.713  14.640  23.812  0.3463  0.1252  0.2377
37126W        W80039   1.667  16.304  24.649  0.0548 -0.0788  0.0331
37127W        W80040  33.970   9.451  15.184  0.0468  0.2047 -0.0387
37128W        W80041   0.071  28.351  22.482 -0.1193  0.0553 -0.0161
37129W        W80042  28.798  19.332  27.977 -0.2690  0.2046 -0.1534
37130W        W80043   2.240  18.819  18.956  0.2036  0.4695 -0.0548
37131W        W80044  32.103  18.188  23.453  0.2807  0.0838  0.1048
37132W        W80045   2.344  12.231  22.218  0.0879  0.1827 -0.0701
37133W        W80046  33.502  16.874  15.101 -0.1903 -0.3044 -0.0346
37134W        W80047   0.650   1.993  21.361  0.0383 -0.0219 -0.2330
37135W        W80048   1.039  16.584  18.066 -0.3457 -0.1661 -0.2420
37136W        W80049   1.754  22.324  23.624  0.0036  0.0850 -0.1683
37137W        W80050  12.249  23.158  14.667  0.0867  0.1021 -0.1562
37138W        W80051  23.973  22.943  24.106  0.1424 -0.3384  0.2886
37139W        W80052  26.247  14.007  14.423 -0.2471  0.1352 -0.4306
37140W        W80053   4.325  13.520  20.761  0.5213 -0.0445  0.0093
37141W        W80054  30.515  14.756  13.723 -0.1690 -0.3790 -0.4114
37142W        W80055  32.096  21.694  16.340 -0.3597 -0.2219  0.2807
37143W        W80056  29.783   9.364  18.843 -0.0213 -0.0701 -0.0110
37144W        W80057  26.080  24.260  18.113  0.1271  0.1375 -0.0613
37145W        W80058   1.571  13.380  18.500 -0.1508  0.1013  0.2666
37146W        W80059  26.700  25.454  16.820  0.1671  0.1487  0.0607
37147W        W80060   7.508  14.613  22.450 -0.1622  0.0569 -0.1952
37148W        W80061  32.484  17.784  18.388  0.2818  0.0824 -0.1433
37149W        W80062  28.074  10.449  15.561  0.1295 -0.2892 -0.1880
37150W        W80063  29.813  18.588  16.040 -0.2094 -0.0305  0.1573
37151W        W80064   5.163  17.314  18.796 -0.4521 -0.2749  0.0496
37152W        W80065  10.288  26.346  29.376  0.1383  0.0755 -0.1859
37153W        W80066  34.036  13.929  19.988 -0.1390  0.0926  0.1415
37154W        W80067   4.886  15.248  17.283  0.2012  0.1806 -0.2155
37155W        W80068  17.912  20.340  15.244 -0.1816 -0.2326 -0.0326
37156W        W80069   8.441  14.749  20.513  0.0698  0.3965 -0.1935
37157W        W80070   1.058  22.589  14.461  0.2757 -0.1234 -0.1917
37158W        W80071  25.144   9.957  16.892  0.1708 -0.2806 -0.0938
37159W        W80072  23.758  14.884  19.929  0.1719  0.1978 -0.2161
37160W        W80073  27.984  22.159  16.014 -0.1278  0.0481  0.2275
37161W        W80074   5.927   6.270  23.654  0.3960  0.0949 -0.0818
37162W        W80075   2.896  21.381   3.806  0.0096  0.0424  0.0321
37163W        W80076   5.392  16.012  19.105 -0.0261 -0.2119 -0.0796
37164W        W80077  26.847  21.607  14.548  0.4362 -0.1985 -0.0007
37165W        W80078  22.637  23.282  24.197  0.0826 -0.1008 -0.1394
37166W        W80079   0.201  20.554  13.588  0.3315  0.0493  0.0863
37167W        W80080  30.004   9.764  20.342  0.0356  0.1719 -0.3465
37168W        W80081   2.506  23.177  15.569 -0.5332  0.0818  0.1066
37169W        W80082  26.624   9.957  19.394 -0.2839  0.1064 -0.0169
37170W        W80083   3.101  11.895  16.253 -0.0294  0.0352 -0.0024
37171W        W80084  13.128  22.373  13.878 -0.0408  0.0249  0.1609
37172W        W80085  21.652   9.088  21.406  0.0739 -0.1744  0.0546
37173W        W80086  25.747  16.436  19.906 -0.1497  0.1648  0.0759
37174W        W80087  33.998  16.611   1.790  0.2286 -0.2009  0.0135
37175W        W80088   1.603  20.980  16.952  0.1563 -0.2939  0.0169
37176W        W80089  31.671  21.321  22.685 -0.1216  0.5579  0.0276
37177W        W80090  32.042  21.408  14.880  0.0503 -0.1275  0.1817
37178W        W80091  32.938  23.869  16.967 -0.0420  0.0208 -0.0668
37179W        W80092   5.680  17.137  26.738 -0.0783  0.1096 -0.2307
37180W        W80093   5.936   6.208  24.696 -0.2092 -0.2688  0.1845
37181W        W80094  33.894  16.576  14.750 -0.3280  0.2271  0.0002
37182W        W80095  30.014  15.047  16.137 -0.3928 -0.0403  0.0757
37183W        W80096  30.945  17.770  19.857  0.1414  0.0042  0.0348
37184W        W80097  32.020  12.984  16.376  0.0826 -0.0669  0.0641
37185W        W80098  22.871   7.872   0.181 -0.2697  0.0996  0.3488
37186W        W80099   3.413  26.888  15.357 -0.1741  0.0418 -0.2160
37187W        W80100  33.428  17.392  15.016  0.1459 -0.0293 -0.2124
37188W        W80101  30.593  18.217  20.557  0.2237 -0.1085 -0.2149
37189W        W80102  27.673  12.230  16.819  0.1705 -0.2954  0.0532
37190W        W80103  30.103  19.853   0.156 -0.0015  0.2611 -0.3343
37191W        W80104  34.173  23.466  17.848  0.0862 -0.1078 -0.0157
37192W        W80105  19.106   6.571  19.925  0.0531 -0.2706 -0.0597
37193W        W80106  24.205  13.383  21.100  0.0859  0.0686  0.2691
37194W        W80107  31.120  16.116  15.623  0.1960  0.1703  0.0904
37195W        W80108  33.650  14.347  19.132  0.3368 -0.0903  0.2494
37196W        W80109  24.258  11.740  22.612  0.1564 -0.3237 -0.0478
37197W        W80110  33.149  15.611  17.500 -0.2711 -0.0762  0.1041
37198W        W80111  31.636  17.726  15.597 -0.2258  0.2059  0.0072
37199W        W80112   5.659  14.307  16.601 -0.2883  0.3099 -0.0876
37200W        W80113  32.176  17.807  16.105 -0.2781 -0.0567 -0.1422
37201W        W80114   5.168  25.780  14.657  0.1469  0.1378 -0.2750
37202W        W80115  22.222  20.609  17.114  0.1351  0.0283  0.1888
37203W        W80116   7.534  21.442  13.664 -0.2349  0.2078 -0.0123
37204W        W80117  32.076  18.931  25.451 -0.1463  0.2617 -0.1036
37205W        W80118   3.138  18.957  14.491 -0.0591  0.0613  0.0144
37206W        W80119  31.571  14.191  19.752  0.0107  0.2659  0.1140
37207W        W80120  29.828  12.950  23.155 -0.2327  0.1298 -0.2174
37208W        W80121  26.267  17.402  17.404 -0.0900  0.1698  0.2756
37209W        W80122  32.547  21.842  25.003 -0.2384  0.1846  0.1039
37210W        W80123  23.560  21.490  13.890 -0.3266 -0.0681  0.2055
37211W        W80124  31.956  14.683  19.634 -0.1715  0.1413 -0.3193
37212W        W80125  27.582  17.152  19.518 -0.1806  0.0113  0.2783
37213W        W80126   0.871   5.873  18.789 -0.0907  0.0282  0.0125
37214W        W80127  26.336  12.378  21.803 -0.0316 -0.0469  0.0669
37215W        W80128  34.048  18.129  18.894 -0.2659 -0.2433 -0.0339
37216W        W80129   3.239  28.155   0.025  0.1942 -0.0291  0.1783
37217W        W80130  25.236  10.528  14.529 -0.4024  0.3541  0.1731
37218W        W80131  32.075  18.586  22.312  0.2747 -0.1750 -0.2615
37219W        W80132  33.400  10.948  20.464  0.0342 -0.0784  0.2327
37220W        W80133  33.125  19.406  15.998  0.0471  0.0016 -0.0786
37221W        W80134   2.904  20.412  16.427  0.1358  0.0115  0.3219
37222W        W80135  26.671   5.328  18.842  0.2575  0.0306 -0.0879
37223W        W80136   8.956  24.602  15.757  0.1282  0.2679  0.3363
37224W        W80137   2.959  16.541  18.095  0.2882  0.1232  0.1591
37225W        W80138  31.475  11.230  20.931  0.2984 -0.1286 -0.2069
37226W        W80139  28.727  15.767  15.745 -0.2619 -0.0898 -0.1570
37227W        W80140   2.528  16.308  13.648  0.1949  0.1503 -0.4092
37228W        W80141  28.612  15.543   1.263 -0.2098  0.1339  0.0973
37229W        W80142  23.940  14.034  14.546 -0.2482  0.1527  0.2614
37230W        W80143  30.288  15.075  14.842  0.3103 -0.0012  0.2152
37231W        W80144  30.615  12.832   0.275 -0.0005  0.1713  0.0551
37232W        W80145  25.581  14.156  21.407 -0.1128  0.0482 -0.0119
37233W        W80146  28.175  20.912  17.846  0.2903 -0.0951  0.3816
37234W        W80147  23.470  22.023  17.105  0.0130  0.0018 -0.2723
37235W        W80148  26.616  18.859  16.333 -0.0029 -0.2737 -0.2001
37236W        W80149  27.113  12.825  15.446 -0.0012  0.3791 -0.2230
37237W        W80150  33.016  12.069  16.878  0.0818 -0.1703 -0.1593
37238W        W80151  30.739  26.467  17.577  0.0738  0.1234 -0.0964
37239W        W80152  28.955  28.835  24.580 -0.1026  0.0868  0.3577
37240W        W80153  33.781  12.008  18.142 -0.1472  0.0657  0.1170
37241W        W80154  26.302  24.717  15.195  0.2186  0.1826  0.2989
37242W        W80155   5.678  28.058  15.356  0.1462  0.2291 -0.0767
37243W        W80156   6.143   9.343  23.260  0.2306  0.2494  0.2125
37244W        W80157  27.286  12.498  24.129  0.0262 -0.0330 -0.0354
37245W        W80158   2.285  15.747  16.484  0.0628 -0.0105  0.1742
37246W        W80159  28.735  13.418  18.957 -0.2571 -0.0830  0.0597
37247W        W80160  16.953  11.893  15.457 -0.0516  0.0065 -0.1709
37248W        W80161  29.447  24.089  22.210 -0.0978  0.1900 -0.0071
37249W        W80162   0.670   7.230  19.847  0.0040  0.1708  0.0534
37250W        W80163  26.821  20.574  12.885 -0.0972  0.0554 -0.0818
37251W        W80164  28.243  30.277  18.154  0.1880  0.2192  0.2641
37252W        W80165  30.530  13.386  22.075  0.0705  0.0961  0.1403
37253W        W80166   0.002  16.343  23.812  0.2470  0.0154 -0.2645
37254W        W80167  20.503  13.650  17.016  0.2161 -0.1516  0.1945
37255W        W80168  32.604  16.844  15.246  0.0343 -0.2880 -0.2237
37256W        W80169  19.509  12.035  16.676 -0.1762  0.3823  0.3965
37257W        W80170  33.589  27.089  15.656  0.3606  0.1703 -0.0035
37258W        W80171  27.048  20.980  13.769 -0.1917 -0.0530  0.1618
37259W        W80172  19.908  11.789  26.855 -0.0214 -0.0043  0.0980
37260W        W80173  21.908  19.494  23.948  0.3088 -0.0830  0.0612
37261W        W80174  32.383  18.618  18.621  0.2733  0.1214  0.4141
37262W        W80175  33.427  23.716  17.162  0.2609 -0.1187  0.0487
37263W        W80176  28.014  30.340  18.616 -0.0125 -0.2110 -0.0180
37264W        W80177   8.240  28.970  20.572 -0.2297  0.0295 -0.0087
37265W        W80178   5.511  10.293  16.770  0.1926  0.0314 -0.1098
37266W        W80179  20.121   5.002  23.619  0.0469  0.1178  0.0219
37267W        W80180  33.950   9.427  20.007  0.2737  0.2141 -0.0301
37268W        W80181  25.780  13.141  16.079 -0.2464 -0.0192 -0.0415
37269W        W80182   0.579  28.578  15.329 -0.0815 -0.0470 -0.0454
37270W        W80183  21.098  19.307  12.893 -0.2403 -0.1230  0.1549
37271W        W80184  23.461  13.543  20.025 -0.0996  0.0750  0.0749
37272W        W80185  16.308   4.988  17.038  0.0399  0.2386 -0.0354
37273W        W80186  27.858  11.684  15.100  0.2234 -0.0503 -0.1793
37274W        W80187  23.146  12.908  15.939  0.0268 -0.2068 -0.3238
37275W        W80188  32.308  18.548   1.330 -0.0106 -0.0814 -0.0679
37276W        W80189  31.253  22.649  14.843  0.1560  0.0415  0.2856
37277W        W80190  28.975  21.121  18.201 -0.1609  0.0207  0.2031
37278W        W80191  31.848  24.413  20.564 -0.0376  0.1027  0.2759
37279W        W80192  30.168  20.404  18.922 -0.1521 -0.0839  0.1794
37280W        W80193   2.901  32.710  22.019  0.2491 -0.0845 -0.1301
37281W        W80194  17.236  14.366  14.825  0.4022  0.0141 -0.1727
37282W        W80195  17.411  17.727  11.701 -0.0790  0.2937 -0.2439
37283W        W80196  29.638  20.967  14.503  0.4082 -0.2577  0.0602
37284W        W80197   0.522  13.712  19.242  0.1575 -0.0182 -0.1592
37285W        W80198   6.358  28.888  16.159 -0.1180 -0.0031 -0.2717
37286W        W80199   1.312  21.510  18.182  0.1614  0.1446 -0.0827
37287W        W80200  31.289  14.239  16.206 -0.0906 -0.0854  0.1079
37288W        W80201  26.952  13.080  19.366  0.0115  0.0541  0.0023
37289W        W80202   0.491  19.728  13.662  0.1819  0.1034 -0.2988
37290W        W80203   0.708  16.951  18.895 -0.0189 -0.3458 -0.1416
37291W        W80204  31.741   3.933  22.025  0.0777  0.1219 -0.2907
37292W        W80205   2.045  22.905  16.067  0.0788 -0.0181  0.0606
37293W        W80206  27.003  11.133  26.349  0.1074 -0.1313  0.0472
37294W        W80207  22.997  20.563  25.152 -0.3274 -0.0916 -0.2134
37295W        W80208  34.089  10.505  24.852  0.0982 -0.2118  0.2698
37296W        W80209  27.363   0.297  13.971  0.2427 -0.1820  0.0693
37297W        W80210  33.568  25.202  18.651 -0.1802  0.1442 -0.0723
37298W        W80211  32.811  27.325  15.040 -0.1590  0.3376  0.0638
37299W        W80212  29.145   3.921  19.500 -0.1665  0.2183  0.1687
37300W        W80213  31.657   9.502  20.462 -0.0951  0.0981  0.0903
37301W        W80214   7.835  23.978  20.351  0.1646  0.2327  0.0565
37302W        W80215   0.203  18.278  13.613  0.1745  0.2387 -0.0489
37303W        W80216   0.286  22.718  21.660  0.1204 -0.2047  0.1534
37304W        W80217  26.969  17.544  13.559  0.0813  0.5737 -0.2454
37305W        W80218  32.575  16.321  16.424 -0.0016  0.0067 -0.1092
37306W        W80219  26.579  13.659  13.718 -0.0460 -0.2619 -0.0885
37307W        W80220  24.413  10.022  13.948 -0.1968 -0.0126 -0.0377
37308W        W80221  31.483   8.893  15.265 -0.2645  0.2715 -0.0078
37309W        W80222  26.860  13.304  13.496  0.2657 -0.0718 -0.2919
37310W        W80223  34.471  11.944  20.056  0.2771 -0.1437 -0.1600
37311W        W80224  34.351  16.408  13.803 -0.1725 -0.0196  0.0221
37312W        W80225  31.932  10.101  15.395  0.0899  0.0161 -0.0864
37313W        W80226   2.562  12.319  19.460  0.1473 -0.2512 -0.1991
37314W        W80227  28.536  15.989  19.277  0.1151 -0.2101  0.1405
37315W        W80228  21.024  11.696  23.525  0.2097  0.1252 -0.1816
37316W        W80229  27.553  16.539  16.540  0.0067  0.3295 -0.1425
37317W        W80230   0.446  13.720  22.198 -0.0543 -0.2433  0.0765
37318W        W80231   0.067   8.907  20.248 -0.3732 -0.0586 -0.1240
37319W        W80232   6.137  13.945  19.863 -0.0393 -0.2488 -0.0170
37320W        W80233  14.257  10.596  14.368 -0.2111  0.2362 -0.0702
37321W        W80234  18.654   7.020  18.251  0.1562 -0.2750 -0.0232
37322W        W80235   3.523  25.583  15.368  0.0715 -0.1960  0.0712
37323W        W80236  28.511  25.102  14.209 -0.2479 -0.1357 -0.2761
37324W        W80237  32.964  11.011  20.214  0.3406  0.4239 -0.2248
37325W        W80238   8.017  16.115  20.582  0.4636  0.3265  0.2541
37326W        W80239  30.205  12.788  14.473 -0.1703 -0.1136 -0.0358
37327W        W80240  28.833  16.429  19.239 -0.0746 -0.6149  0.0731
37328W        W80241  29.264   9.204  22.696  0.0840 -0.3318  0.0134
37329W        W80242  28.941   9.869  17.191 -0.0766  0.0037  0.1307
37330W        W80243   2.851  10.926  21.484 -0.0387  0.1657  0.1114
37331W        W80244  23.570   9.627  24.450  0.0650 -0.2448  0.2168
37332W        W80245  33.928  18.154  17.170  0.3636  0.2565  0.1373
37333W        W80246  28.539  15.269  22.903  0.0575  0.0034  0.0612
37334W        W80247  33.650  21.635  28.841  0.0121 -0.3384  0.0791
37335W        W80248  28.720  19.941  19.745 -0.0178  0.0289  0.1318
37336W        W80249  27.654   7.871  17.202 -0.0558  0.3399 -0.2500
37337W        W80250  23.192  15.671  13.473  0.1869  0.0692  0.3044
37338W        W80251  30.405  27.013  16.395  0.0800 -0.1033  0.0298
37339W        W80252  21.152  25.805  14.720  0.0317  0.0102  0.2425
37340W        W80253  33.882  15.133  21.375 -0.1709  0.3423  0.1632
37341W        W80254  26.522  11.963  23.311 -0.0914  0.0106  0.1931
37342W        W80255   1.050  24.824  25.143 -0.2568  0.1977 -0.0383
37343W        W80256  15.772  11.883  23.234  0.2845  0.3295  0.3515
37344W        W80257  20.673  18.553  14.872  0.1083  0.0020 -0.1695
37345W        W80258  24.876  10.463  22.329  0.1004 -0.0304 -0.2074
37346W        W80259   0.222  14.839  22.474 -0.1905 -0.1906  0.1845
37347W        W80260  16.711   6.874  27.597 -0.0434  0.1876  0.0221
37348W        W80261   4.743  19.870  21.449  0.0117 -0.2248 -0.2665
37349W        W80262  32.601  11.229  19.623  0.2027  0.2590 -0.1121
37350W        W80263   0.340  13.360  16.080 -0.0033 -0.0154  0.1142
37351W        W80264  29.536  16.490  20.358  0.0029 -0.2964  0.1021
37352W        W80265   0.735  28.001  28.064 -0.0449  0.1766 -0.0401
37353W        W80266  27.974  17.182  21.469 -0.0201  0.1092 -0.0779
37354W        W80267  25.537  16.906  18.444 -0.1000 -0.2992  0.3294
37355W        W80268  26.175  30.946  20.276  0.3664  0.0850 -0.0689
37356W        W80269  25.905   9.905  15.261  0.1422 -0.1316  0.1189
37357W        W80270   4.574  22.731  22.687  0.3199  0.1944 -0.3091
37358W        W80271   1.085  15.911  25.518 -0.0417  0.1553  0.2423
37359W        W80272  33.984  18.822  25.486 -0.1414  0.1507  0.0182
37360W        W80273  31.304  30.273  15.592 -0.0803  0.0505  0.0881
37361W        W80274   9.614  13.094  21.124 -0.0297  0.1461  0.0822
37362W        W80275  17.181  24.621  17.637 -0.3338 -0.1566 -0.1667
37363W        W80276   3.578  23.225  20.415 -0.1356 -0.2883 -0.2790
37364W        W80277  30.371   9.831  16.284 -0.0471 -0.1300  0.0045
37365W        W80278   2.062   8.534  26.571 -0.0514 -0.2463  0.1793
37366W        W80279  23.020  22.721  19.847 -0.0282  0.0217 -0.1191
37367W        W80280  27.073  16.581  28.868 -0.2697  0.3417 -0.0715
37368W        W80281   8.549  10.459  24.775  0.0235  0.1076 -0.2710
37369W        W80282  28.050   2.200  27.040 -0.1149 -0.3283  0.1247
37370W        W80283  26.076  18.699  26.493 -0.1526  0.0744  0.2546
37371W        W80284  11.594  14.445  20.531  0.3028 -0.3036 -0.1107
37372W        W80285  31.298  12.131  22.549  0.0116 -0.1777  0.3640
37373W        W80286   1.999  27.593  29.461 -0.2834 -0.1708  0.1720
37374W        W80287   6.811  33.247  22.444 -0.0026  0.1588 -0.0235
37375W        W80288  27.325  15.355  26.930  0.1914  0.0415  0.2144
37376W        W80289  32.197  16.904  14.303  0.1241  0.0341  0.0205
37377W        W80290  28.350   6.300  18.787 -0.0796  0.1109 -0.0063
37378W        W80291  34.051  22.387  28.909 -0.0911 -0.0945  0.0986
37379W        W80292  15.629  21.449  28.005 -0.2206 -0.2576 -0.1306
37380W        W80293  14.694   7.838  24.853 -0.0083  0.0232 -0.1283
37381W        W80294   5.888  26.320  17.924 -0.0453 -0.0890 -0.1862
37382W        W80295  29.055  21.976  15.153 -0.2117 -0.2272 -0.1400
37383W        W80296  33.091  10.003  23.492  0.0963  0.1008 -0.2535
37384W        W80297  27.018  21.481   6.166 -0.0920  0.2576  0.0066
37385W        W80298  32.405  15.675  15.590 -0.2156  0.4612  0.4386
37386W        W80299  33.068  11.208  24.900  0.0159  0.2508  0.2578
37387W        W80300   1.681  20.407  27.912 -0.0331  0.3313 -0.1259
37388W        W80301   4.172  20.497  14.415 -0.2471 -0.2307 -0.0705
37389W        W80302   2.233  23.270  23.109 -0.0726 -0.4817 -0.2926
37390W        W80303  29.880  15.663   2.716 -0.0511 -0.0428  0.1950
37391W        W80304  28.349  23.577  25.320 -0.1589  0.1061 -0.1342
37392W        W80305  17.183   9.383  17.628  0.1359  0.2339  0.2192
37393W        W80306  34.098  23.900  21.192 -0.1196 -0.0111 -0.1645
37394W        W80307   6.396  22.375  20.457 -0.2488  0.1862  0.0018
37395W        W80308  32.011   7.677  19.224  0.0123 -0.2678 -0.3582
37396W        W80309   2.279  21.119  22.156 -0.0972 -0.2150 -0.0216
37397W        W80310  29.942   1.360  24.460 -0.0453 -0.0885  0.0504
37398W        W80311   4.850  19.863  25.314 -0.1188 -0.0314  0.1506
37399W        W80312   4.205  24.292  23.550 -0.2605  0.2252  0.1834
37400W        W80313  30.928  13.942  15.495  0.0376  0.1779 -0.1187
37401W        W80314  25.367  23.874  12.845 -0.3367  0.0325 -0.1154
37402W        W80315   6.545  11.592  18.463  0.0268  0.3245  0.0671
37403W        W80316   3.247  11.616  14.805  0.2666  0.2657  0.1765
37404W        W80317  30.660  21.482  24.938  0.0001 -0.2577  0.0110
37405W        W80318  28.794   9.231  16.848 -0.0358  0.0209 -0.0307
37406W        W80319  22.332  11.219  17.385  0.2082  0.1438  0.1707
37407W        W80320  26.013  14.431  16.080 -0.0504 -0.0441  0.1476
37408W        W80321  21.609  24.422  20.039 -0.1518  0.1724 -0.0436
37409W        W80322  28.418  25.315  16.092  0.1090  0.0236  0.0640
37410W        W80323  26.565  13.700  15.317 -0.0192 -0.1536 -0.0579
37411W        W80324  21.210   9.053  17.622 -0.0029 -0.1457  0.1489
37412W        W80325  33.288  21.564   7.261 -0.2567 -0.1554  0.2887
37413W        W80326   4.011  17.126  18.379  0.0701  0.0507 -0.4325
37414W        W80327  27.369  32.870  15.595  0.1391  0.2245 -0.1940
37415W        W80328  28.177  14.506  16.518 -0.0905  0.2259  0.1851
37416W        W80329  25.983  28.272  22.811  0.0553 -0.1850  0.2045
37417W        W80330   0.106  15.905  21.287 -0.1520 -0.0033 -0.2002
37418W        W80331  26.345  23.143  21.504 -0.1488 -0.0834 -0.1072
37419W        W80332  21.750  28.295  27.058  0.0147 -0.3787  0.0105
37420W        W80333   1.686  18.251  17.876  0.0102  0.1288 -0.0725
37421W        W80334  29.941  27.427  29.325 -0.1188  0.3747  0.1695
37422W        W80335  33.326   9.653  20.564  0.3460  0.0726 -0.0029
37423W        W80336  27.322  16.885  13.911  0.0290  0.2046 -0.2218
37424W        W80337  20.335  13.869  16.308  0.0040 -0.0096 -0.0654
37425W        W80338   0.453  27.717  24.337  0.0026  0.0588  0.0465
37426W        W80339   4.779  16.200  13.699  0.0768  0.1763  0.0772
37427W        W80340   7.209  22.015  15.629 -0.2211  0.1132 -0.0842
37428W        W80341   6.185  11.282  19.316  0.3428 -0.1374 -0.2268
37429W        W80342   2.199  10.525  22.745 -0.1962  0.2963  0.0384
37430W        W80343  24.219  15.125  18.975  0.1757 -0.3389 -0.2946
37431W        W80344  29.523  21.745  24.216  0.2032 -0.0693  0.2507
37432W        W80345  27.404  11.474  26.546 -0.0223 -0.0325 -0.1325
37433W        W80346  26.521  13.979  24.220  0.2257  0.1684  0.3187
37434W        W80347  30.354  11.256   3.370 -0.1510  0.2860 -0.0865
37435W        W80348  24.921  22.871  14.467 -0.0955 -0.1960 -0.1376
37436W        W80349  33.790  13.290  22.793  0.2604 -0.1163 -0.0867
37437W        W80350   6.120   9.055  19.659 -0.3680  0.2002  0.1140
37438W        W80351  29.304  15.211  28.545 -0.0004 -0.0469 -0.3066
37439W        W80352  31.032  23.100  15.604 -0.0069 -0.1237 -0.2487
37440W        W80353  33.651  11.770  16.913  0.1520  0.0634 -0.0486
37441W        W80354  32.496  18.033   0.015  0.0667 -0.1110 -0.1758
37442W        W80355  24.379  21.057  18.072 -0.3738  0.0844 -0.1162
37443W        W80356  33.621  19.092  20.491  0.2181  0.1126 -0.1415
37444W        W80357  27.842  28.921  19.494 -0.3058 -0.0062 -0.1114
37445W        W80358  29.721   9.038  24.814  0.0351 -0.3678 -0.0745
37446W        W80359  26.036  10.398  25.471  0.0772  0.0329 -0.1548
37447W        W80360   6.989  12.995  23.048 -0.0796  0.2824  0.0845
37448W        W80361  29.740  14.919  23.567 -0.1795 -0.0890  0.0231
37449W        W80362   5.104  18.395  26.716  0.0675 -0.1308 -0.1875
37450W        W80363  16.887   9.581  14.728  0.0176 -0.0989  0.4055
37451W        W80364  33.918   7.804  24.143 -0.1828  0.1952 -0.2608
37452W        W80365  27.371   5.977  15.006 -0.1079  0.0283 -0.1306
37453W        W80366  32.221  12.479  15.310 -0.3037  0.1205  0.0467
37454W        W80367  30.757  16.527   1.877 -0.3737  0.3219  0.0056
37455W        W80368  22.076  22.574  19.352  0.0556 -0.0132 -0.0595
37456W        W80369  32.857   8.288  15.319  0.1823  0.0826  0.0271
37457W        W80370  25.307  12.910  23.506 -0.1122 -0.2411 -0.1369
37458W        W80371  23.876  18.283  22.375 -0.0311 -0.3016  0.0424
37459W        W80372  24.246  12.431  20.802 -0.1793 -0.1276  0.1939
37460W        W80373  33.517   8.121  24.629  0.0547 -0.0495  0.1464
37461W        W80374   4.951  24.271  17.192  0.0585 -0.2225  0.1394
37462W        W80375   2.741   6.492   2.425  0.0118  0.2316  0.1400
37463W        W80376   2.452  29.393   5.106  0.0496  0.1844 -0.1053
37464W        W80377  33.994  15.657  16.193  0.1771  0.0131  0.1371
37465W        W80378   1.931  16.555  15.007 -0.2471 -0.0762  0.1883
37466W        W80379  29.378  13.942  29.096  0.0459  0.0442  0.1087
37467W        W80380  32.281  13.342  23.806  0.0811  0.0846 -0.0837
37468W        W80381  28.241  27.523  13.212  0.0924 -0.0470 -0.3956
37469W        W80382   1.048  13.368  17.221 -0.0739  0.1600  0.2373
37470W        W80383  25.316  15.563  19.609  0.2520 -0.0190 -0.3078
37471W        W80384  23.015  12.501  13.838  0.2168 -0.0944  0.0403
37472W        W80385  22.565  16.977  17.746 -0.0832 -0.0553 -0.2620
37473W        W80386  20.011  19.192  21.780 -0.0801 -0.0408  0.1472
37474W        W80387  27.665  15.840  16.516 -0.2025 -0.2729  0.0996
37475W        W80388  17.878  13.307  28.955 -0.4396 -0.1191 -0.3217
37476W        W80389  26.147   9.150  21.369  0.3293  0.1360  0.1771
37477W        W80390  30.032  22.040  19.536 -0.0019 -0.2657 -0.1348
37478W        W80391  29.132  11.947  19.914  0.1342  0.1009 -0.1409
37479W        W80392  31.462   3.672  21.742  0.0709  0.1546 -0.2002
37480W        W80393   7.996  11.843  22.501 -0.3991  0.1838 -0.2412
37481W        W80394   3.787  20.751  22.386 -0.0537 -0.0547 -0.1507
37482W        W80395  26.243  14.244  23.211 -0.0253 -0.1512  0.1325
37483W        W80396  24.345  12.707  14.084 -0.2517  0.0598 -0.3791
37484W        W80397   3.951  13.934  22.486 -0.3016 -0.1179 -0.0994
37485W        W80398  28.787  23.791  17.361 -0.1630 -0.0859 -0.0134
37486W        W80399  25.999  14.263  21.822  0.3117  0.0495 -0.0274
37487W        W80400  20.310  18.528  24.184 -0.1802  0.1336 -0.0663
37488W        W80401  28.088  24.229  14.233  0.0110 -0.0500  0.0938
37489W        W80402  30.989   5.096  21.317  0.4914  0.2003  0.0687
37490W        W80403  30.171   7.907   0.370  0.0676  0.2453  0.0422
37491W        W80404  16.845  22.131  15.076  0.0310  0.0044 -0.0228
37492W        W80405  19.597   7.102  23.262 -0.1653 -0.0471  0.2255
37493W        W80406   2.299  23.270  24.895 -0.0224  0.0357  0.0731
37494W        W80407   9.445  32.180  18.029  0.0726 -0.1383  0.3859
37495W        W80408   1.832   6.698  22.151 -0.3714  0.2022 -0.3398
37496W        W80409   4.224  13.863  18.331  0.2568 -0.1395  0.1905
37497W        W80410  20.791  24.688  25.370 -0.1397  0.1378  0.0701
37498W        W80411  23.622  13.697  23.264 -0.2247 -0.0848  0.0080
37499W        W80412  16.154   7.684  19.456 -0.1816 -0.1326 -0.0472
37500W        W80413  32.470  22.675  17.791  0.0202  0.0301 -0.1408
37501W        W80414  17.451  24.556  28.123 -0.1700  0.0773 -0.0291
37502W        W80415  28.520  20.326  27.298  0.0358  0.2612  0.3589
37503W        W80416  34.334  17.014  16.260  0.3595  0.2298  0.0941
37504W        W80417   2.133   8.787  22.399 -0.4799  0.0990 -0.1261
37505W        W80418  34.006  19.572  19.337 -0.0654  0.1251 -0.0845
37506W        W80419  22.279  23.231  14.811 -0.0864  0.0758 -0.2123
37507W        W80420  27.993  27.580  14.966 -0.1795 -0.3277 -0.1978
37508W        W80421  29.896  27.051  23.632  0.0055 -0.2497 -0.2964
37509W        W80422  27.306  22.171  15.734  0.0558  0.0896 -0.2460
37510W        W80423   8.710  16.988  19.184 -0.0115  0.1614  0.0314
37511W        W80424  24.577   8.845  22.432 -0.1517  0.2333  0.0355
37512W        W80425  13.959   8.694  14.964  0.1782  0.1478  0.0540
37513W        W80426  28.546  10.199  25.685 -0.4848 -0.4406 -0.0714
37514W        W80427  22.146  20.721  24.306  0.0421  0.3127  0.1591
37515W        W80428  22.275   7.005  20.803  0.0293 -0.1802  0.2805
37516W        W80429  26.232  15.994  26.413  0.0105  0.3703  0.0110
37517W        W80430  30.424  18.374  13.922 -0.1748  0.2676 -0.0757
37518W        W80431  27.225   1.037  16.292  0.4247 -0.5429 -0.0862
37519W        W80432   0.662  21.191  21.250  0.2691  0.3842  0.0097
37520W        W80433  22.080   7.526  20.794 -0.1420 -0.4081  0.2148
37521W        W80434  28.772  18.924  12.896  0.1940 -0.2943 -0.2165
37522W        W80435   1.528   9.539  18.848  0.1584  0.1313  0.2349
37523W        W80436  15.440  28.771  28.054 -0.1510  0.0927  0.0236
37524W        W80437  33.515  10.969  19.136  0.2091 -0.3077 -0.0439
37525W        W80438  33.883  24.871  18.878 -0.2030 -0.2270  0.0630
37526W        W80439  24.076  12.255  24.577  0.1085 -0.0673 -0.1045
37527W        W80440  34.058  15.281  17.519  0.2939  0.1935 -0.0697
37528W        W80441  32.066   9.017  15.318  0.1937 -0.0807  0.1135
37529W        W80442  12.078   9.746  19.994 -0.1113 -0.1301 -0.2149
37530W        W80443  10.021  14.383   3.384  0.0742 -0.2167 -0.1285
37531W        W80444  10.372  14.501  24.164 -0.1334 -0.1986 -0.1920
37532W        W80445  29.767  13.193  26.513 -0.1973 -0.0329  0.0008
37533W        W80446  22.109  27.225  24.286  0.0606  0.0069 -0.1077
37534W        W80447  27.812  16.834  15.321  0.1842 -0.0030 -0.2815
37535W        W80448  22.179  21.932  20.693 -0.0289 -0.1068  0.1144
37536W        W80449   0.741  14.836  24.584  0.0105  0.1153  0.2302
37537W        W80450   0.486  20.585  16.138  0.1005  0.0106  0.1210
37538W        W80451   1.388  15.567  16.104  0.2859 -0.1035 -0.2392
37539W        W80452  28.312  16.279  20.076  0.2994  0.0201 -0.2798
37540W        W80453  22.600  10.747  18.017  0.1261 -0.1228 -0.2029
37541W        W80454   6.489  20.182  27.395 -0.1472 -0.0101 -0.3771
37542W        W80455  27.190  19.034  23.568  0.1454 -0.4599 -0.1946
37543W        W80456   0.911   5.799  19.606  0.0469  0.1881 -0.1204
37544W        W80457  30.036  14.344  24.392  0.1445  0.1932  0.2005
37545W        W80458  15.220  10.171  14.195 -0.0337  0.0393 -0.0247
37546W        W80459  31.432  10.701  18.008  0.1311  0.0752 -0.1275
37547W        W80460  31.420  23.980  19.788  0.2621 -0.0359 -0.1889
37548W        W80461  24.966  13.145  16.142 -0.1710  0.0748  0.0880
37549W        W80462   1.506  26.612  14.868  0.2996  0.4696 -0.0339
37550W        W80463   7.341  17.340  23.858  0.2298  0.3012 -0.4406
37551W        W80464  23.650  20.346  23.170 -0.0435  0.0844 -0.1059
37552W        W80465  19.532  11.350  17.183  0.2405 -0.0236  0.1911
37553W        W80466  23.470  17.999  16.965  0.0470 -0.1314 -0.2535
37554W        W80467  27.976  18.679  18.414  0.2735  0.0705 -0.1007
37555W        W80468  26.009  15.331  15.365 -0.0248  0.1705 -0.3927
37556W        W80469   0.508   8.475  27.389 -0.1261  0.2288  0.2409
37557W        W80470   2.858  12.351  22.233 -0.0240 -0.1602 -0.0004
37558W        W80471  29.809  24.118  19.260  0.0606  0.1373  0.5109
37559W        W80472  32.654  14.437  13.312  0.2472 -0.3623 -0.0694
37560W        W80473  29.175   7.132  18.024  0.1371 -0.0674 -0.0426
37561W        W80474   3.058  25.772  16.236  0.0064 -0.3104 -0.2532
37562W        W80475  20.201   7.694  15.013  0.2962  0.0844  0.1117
37563W        W80476  28.459  13.080  28.140  0.0060  0.0021  0.3220
37564W        W80477   4.037  15.498  19.673 -0.3233 -0.2539 -0.1051
37565W        W80478  30.678  16.696  16.467 -0.0770  0.2439  0.0944
37566W        W80479  25.853   6.486  17.873 -0.1242 -0.0150  0.2401
37567W        W80480  11.657  19.162  14.729  0.1946 -0.1292  0.1978
37568W        W80481  30.992  20.598  20.978  0.4417  0.2346  0.1973
37569W        W80482  24.182  10.920   0.108  0.1276  0.0390  0.0553
37570W        W80483  33.570  13.347  26.608 -0.0902 -0.2087 -0.1814
37571W        W80484  27.886  24.731   1.388 -0.2517 -0.0430  0.2143
37572W        W80485   2.381   6.747  26.139 -0.0874  0.0631  0.0092
37573W        W80486  24.695  15.047  21.272  0.1948  0.3807  0.0450
37574W        W80487  32.720  24.931  22.780 -0.1818  0.1897  0.3156
37575W        W80488  32.746  15.141  14.460  0.0519  0.1505 -0.0064
37576W        W80489  31.158  11.772  22.238 -0.1148 -0.1882 -0.2462
37577W        W80490  32.347  28.518  24.350  0.0926 -0.1429  0.1339
37578W        W80491  22.581  21.963  14.852  0.0683  0.0985 -0.0878
37579W        W80492  29.482  14.598  21.367 -0.0456 -0.0378 -0.0506
37580W        W80493  29.326  24.800  13.981  0.0310  0.0874 -0.0455
37581W        W80494   1.681  15.261  18.207 -0.3015 -0.1038  0.0549
37582W        W80495  17.674  13.398  12.203  0.1341 -0.0073  0.0100
37583W        W80496  26.746  18.007  17.412  0.0710 -0.0335 -0.1312
37584W        W80497  23.674  13.398  27.299  0.1033  0.1537  0.1507
37585W        W80498  25.024  11.782  18.167  0.3543 -0.0462 -0.0259
37586W        W80499   3.075  22.015  25.658 -0.1924 -0.2523  0.2060
37587W        W80500  33.270  13.980  21.885  0.0806  0.3150  0.2162
37588W        W80501  12.650  27.773  21.891  0.1162 -0.0490  0.1665
37589W        W80502  27.088   6.230  16.466  0.5240  0.1229  0.0953
37590W        W80503  21.171  16.162  26.005  0.1055 -0.0658 -0.3598
37591W        W80504  27.405  22.891  18.070  0.2192  0.0649 -0.0397
37592W        W80505  27.711  15.721  16.044 -0.3755  0.4313  0.2342
37593W        W80506  32.404  24.352  14.241  0.1318 -0.0563 -0.2076
37594W        W80507  29.431  14.169  17.578 -0.2290 -0.2375 -0.3711
37595W        W80508  31.470  25.878  26.061 -0.1067  0.2356 -0.1934
37596W        W80509   3.379  17.267  25.350  0.1055 -0.1006 -0.1013
37597W        W80510   4.935  12.564  18.310 -0.3015 -0.1782 -0.3552
37598W        W80511  33.312  22.799  15.870  0.0721 -0.1738 -0.1083
37599W        W80512   0.040  11.445  17.076 -0.2981  0.1530 -0.2610
37600W        W80513  32.438  12.660  25.090  0.5556 -0.0197  0.0641
37601W        W80514   1.996  26.472  21.478 -0.0305  0.0022  0.0647
37602W        W80515   0.809  15.938  25.002  0.2100  0.3055 -0.1707
37603W        W80516   8.159  19.273  16.706 -0.0031  0.1682 -0.2595
37604W        W80517  34.210  31.276  16.468 -0.4074  0.0915  0.1911
37605W        W80518  10.064   6.766  23.265  0.3658  0.1804 -0.0719
37606W        W80519  24.136  12.238  16.303  0.1985  0.3306  0.3322
37607W        W80520  26.614  19.971  21.709 -0.0880  0.0129  0.0260
37608W        W80521  18.292  10.414  17.059 -0.0921 -0.1580  0.0259
37609W        W80522  31.190   3.228  16.151  0.1327 -0.2922  0.1501
37610W        W80523  25.983   8.922   1.722 -0.2869 -0.2854  0.0198
37611W        W80524   3.512  17.327  18.342  0.0686  0.0758  0.1275
37612W        W80525   0.810  13.000  18.917  0.1705 -0.2827  0.0938
37613W        W80526  28.111  23.639  25.704 -0.1657  0.3986 -0.1401
37614W        W80527  27.011  12.977  25.524  0.1385 -0.0830 -0.0464
37615W        W80528  30.793  25.375  18.142 -0.0798 -0.0035 -0.0171
37616W        W80529   4.797  18.019  23.199  0.1920  0.3256  0.1016
37617W        W80530   5.233   5.841  18.125 -0.0337 -0.1428 -0.4129
37618W        W80531   1.651  12.833  18.552 -0.5387  0.1620  0.0738
37619W        W80532  24.704  20.348  20.471  0.0390  0.1869 -0.4338
37620W        W80533   9.301  19.736  19.361  0.0058 -0.2703  0.1110
37621W        W80534  22.189  20.114  14.879  0.3588  0.1512 -0.0135
37622W        W80535  22.602  16.761  18.282  0.2360 -0.1022 -0.4505
37623W        W80536  30.605  22.465  28.477 -0.4375  0.1885  0.0145
37624W        W80537  31.193   6.438  17.768 -0.1560 -0.1427  0.0614
37625W        W80538  28.702  28.554  18.633 -0.0567  0.1677 -0.1259
37626W        W80539  32.916  17.895  23.087 -0.2857  0.2945 -0.0259
37627W        W80540  28.240  17.000  27.905 -0.2378  0.2393 -0.2932
37628W        W80541   0.316  14.784  20.999 -0.0558  0.1455 -0.2715
37629W        W80542   6.000  13.282  17.743  0.3090  0.0531  0.1755
37630W        W80543  33.430   8.507  17.356  0.1774  0.1069 -0.2677
37631W        W80544  33.943  10.904  20.949 -0.0464  0.1833  0.1824
37632W        W80545  29.763  19.008  24.811 -0.2865 -0.1357  0.1242
37633W        W80546   1.097  11.596  20.055 -0.5499  0.1765  0.0783
37634W        W80547  28.627  23.220  16.578  0.1185 -0.2241 -0.0806
37635W        W80548  25.717  13.788  28.253 -0.1261 -0.0183 -0.1731
37636W        W80549   3.198  24.934  24.329  0.1475 -0.0832 -0.0874
37637W        W80550   1.985  17.309  15.580 -0.1865  0.2143  0.0377
37638W        W80551   8.494  11.958  19.819  0.2225  0.2061 -0.0803
37639W        W80552   0.393  12.215   3.876  0.0955  0.0133 -0.0439
37640W        W80553  28.805  11.204  14.872  0.3045  0.1325  0.2610
37641W        W80554  33.836  17.358  27.528 -0.3665  0.2839 -0.3556
37642W        W80555   0.128  22.579  16.255  0.2586 -0.1654 -0.1776
37643W        W80556  25.432  14.708  23.095 -0.3305 -0.0530 -0.0225
37644W        W80557  24.260  17.203   1.487  0.2919  0.1067  0.2601
37645W        W80558  24.726  11.279  13.519 -0.0971  0.0577  0.1177
37646W        W80559   3.981  15.805  17.165 -0.2240  0.1078  0.0514
37647W        W80560  26.766  26.263  17.894 -0.2788 -0.0437 -0.1703
37648W        W80561  26.144  19.271  23.501  0.2343  0.0408 -0.1684
37649W        W80562  26.355  16.419  24.564  0.2065  0.3995  0.2438
37650W        W80563  20.021   8.521  24.575  0.3741 -0.0671 -0.2998
37651W        W80564   3.275  21.826   3.787  0.1379 -0.2696  0.1291
37652W        W80565  32.926  12.508  25.028 -0.2450 -0.1661 -0.2640
37653W        W80566   1.711  23.452  28.032  0.2102  0.1499  0.3062
37654W        W80567  21.638  15.770  22.089 -0.1205 -0.1635  0.1469
37655W        W80568   1.263  21.095  17.859 -0.0269 -0.0827 -0.1804
37656W        W80569  32.579  11.502  18.333  0.2250 -0.2907  0.5347
37657W        W80570  28.419  18.655  20.416  0.0131  0.2854  0.0808
37658W        W80571   2.995  32.238   2.481 -0.1766  0.0485  0.1657
37659W        W80572  22.354  14.383  15.741  0.0134  0.0384  0.1002
37660W        W80573  27.960  13.031  17.151  0.3308  0.1152 -0.0536
37661W        W80574  26.646   7.478  24.572 -0.2375  0.1631 -0.1396
37662W        W80575  30.232  19.100  20.503  0.1280 -0.1021  0.1040
37663W        W80576   5.562  28.083  16.478  0.2420 -0.2257 -0.0827
37664W        W80577  27.010  11.865  21.784  0.2451 -0.0937  0.1742
37665W        W80578   2.191  12.190  20.741  0.0164  0.1094 -0.1961
37666W        W80579   0.881  23.947  16.784  0.1841  0.3757 -0.1208
37667W        W80580  21.756   4.990  23.407 -0.2061 -0.2215 -0.0918
37668W        W80581   3.351  19.046  24.306  0.1302  0.0533 -0.2871
37669W        W80582   2.348  17.278  23.605 -0.0777 -0.1600 -0.1732
37670W        W80583  26.867  13.229  15.677  0.0951 -0.1359 -0.0405
37671W        W80584  31.340  20.572  23.406  0.2745 -0.1002 -0.0957
37672W        W80585  21.827  14.708  22.221 -0.1556  0.0646 -0.1824
37673W        W80586  32.367  12.828  28.494 -0.1522 -0.2912  0.3181
37674W        W80587   1.091   3.662  23.655  0.1072 -0.0584  0.2294
37675W        W80588  19.110  24.625  24.460  0.0047  0.2591 -0.1225
37676W        W80589   2.905  15.671  15.457  0.1153  0.0072 -0.2156
37677W        W80590   0.498  21.235  23.674 -0.1994 -0.0101 -0.1339
37678W        W80591  24.525   9.273  14.523  0.0837 -0.2117  0.2006
37679W        W80592  28.017  21.657  19.730 -0.0518 -0.0472 -0.1076
37680W        W80593   3.470  25.486  17.094 -0.0235  0.0345 -0.0071
37681W        W80594   6.286  25.955  16.634  0.1277  0.2459 -0.0574
37682W        W80595  18.232  10.643  14.030 -0.2844 -0.2534  0.0253
37683W        W80596  28.995  27.552  19.133 -0.1135 -0.0259  0.0323
37684W        W80597  33.146  18.284  21.715  0.2581  0.4406 -0.1372
37685W        W80598  25.397  28.033  17.757  0.0295  0.1717 -0.1075
37686W        W80599  26.543   9.441  23.354  0.0544  0.0316  0.1011
37687W        W80600  33.035  11.450  17.526 -0.0277 -0.3176  0.0049
37688W        W80601  30.226  11.439  19.409 -0.0353 -0.1377 -0.2038
37689W        W80602  28.606  11.198  19.424  0.2591 -0.0359 -0.0333
37690W        W80603  28.159  13.556  15.426  0.0164  0.0274 -0.1407
37691W        W80604  33.211  17.604  28.548 -0.1727 -0.1906 -0.3184
37692W        W80605  30.234  15.081  20.002 -0.0514  0.2864 -0.1562
37693W        W80606  27.331  14.728  21.218 -0.0717 -0.5138  0.2288
37694W        W80607  29.376  16.042  19.037  0.1321  0.1423  0.3946
37695W        W80608   0.569  15.336  25.020 -0.1351  0.1857  0.0952
37696W        W80609   2.129  17.744  19.996 -0.0390 -0.1885  0.1367
37697W        W80610  18.950  15.135  26.840 -0.1527 -0.0180  0.0013
37698W        W80611  18.663   8.800  13.217 -0.1851  0.2910 -0.3349
37699W        W80612  29.069   3.397  19.661 -0.0139  0.2452 -0.0309
37700W        W80613  34.320  26.233  16.880 -0.2817  0.0438  0.0371
37701W        W80614  27.362  11.499  16.920  0.1222  0.1435 -0.1461
37702W        W80615  27.483  22.626  22.492 -0.2415 -0.1867 -0.1317
37703W        W80616  22.150  13.088  21.801  0.0351  0.1102  0.0924
37704W        W80617   9.950  10.991  26.533  0.0980 -0.1018 -0.1251
37705W        W80618  24.773  17.694  14.148  0.0280 -0.2398  0.1572
37706W        W80619  33.068  11.285  22.113  0.1871 -0.1766 -0.2952
37707W        W80620   3.200  17.544  21.653  0.0868  0.0940 -0.0889
37708W        W80621  26.871  16.178  23.419 -0.0330 -0.1006 -0.1475
37709W        W80622  27.082  16.073  22.640  0.4301  0.0986 -0.0527
37710W        W80623  32.355  10.836  18.078 -0.1639 -0.1028 -0.1080
37711W        W80624   6.184  23.048  19.961  0.2810 -0.1152  0.0449
37712W        W80625  20.471   9.333  24.722  0.0443  0.1220 -0.0368
37713W        W80626  22.867  11.300  26.249 -0.1427 -0.5807  0.4018
37714W        W80627  18.501  11.739  12.891  0.2338 -0.2949 -0.3105
37715W        W80628  12.418  17.149  19.460  0.0074 -0.0075 -0.0713
37716W        W80629  31.049   8.581  15.259  0.1221  0.0763 -0.0978
37717W        W80630   5.449   7.183  18.231 -0.2068 -0.0497  0.0004
37718W        W80631   2.374  17.776  15.849  0.0476 -0.0157  0.0292
37719W        W80632   1.968  10.459  29.110 -0.1338  0.0959 -0.0507
37720W        W80633   5.137  14.767  15.964  0.0992 -0.1200 -0.2390
37721W        W80634   3.748   7.719  23.387  0.0354 -0.0348  0.0603
37722W        W80635   2.997  14.189  22.160  0.3432  0.2872 -0.1067
37723W        W80636  28.124  21.890  25.973  0.0108 -0.3247 -0.4627
37724W        W80637   0.725  18.477   0.379  0.0616  0.0891  0.1173
37725W        W80638   1.881  19.184  25.131 -0.0895  0.0673 -0.0506
37726W        W80639  22.206  10.886  25.634  0.0663  0.2254  0.2171
37727W        W80640  31.473  21.340   8.908  0.1604 -0.2802 -0.0926
37728W        W80641  25.688  25.542  28.781  0.3646 -0.2271 -0.1122
37729W        W80642   6.948  17.241   0.724  0.0806  0.0118  0.0094
37730W        W80643  20.486  20.774  13.646  0.0538  0.1120 -0.1459
37731W        W80644  26.722  24.694  17.418 -0.3478 -0.2938 -0.1397
37732W        W80645   3.961   9.829  25.527  0.0661  0.2772 -0.1590
37733W        W80646  33.202  19.772  23.921  0.2049 -0.3031 -0.1843
37734W        W80647  30.789  20.786  27.576 -0.2977  0.3843 -0.0644
37735W        W80648  31.759  23.391  22.770  0.2699 -0.1937  0.0888
37736W        W80649  21.195  13.790  13.615 -0.0787 -0.0042  0.1669
37737W        W80650   2.767   8.336  16.142  0.0935  0.2098  0.1866
37738W        W80651   1.683  24.591  20.761 -0.1837  0.3105 -0.1318
37739W        W80652  27.022   6.382  15.845  0.1149 -0.3097  0.1679
37740W        W80653  33.440  21.759  28.342  0.1110  0.2084 -0.1451
37741W        W80654  30.262  22.007   4.848  0.2787  0.0273  0.0051
37742W        W80655  22.924  27.710  23.469 -0.0331  0.1258 -0.0249
37743W        W80656  30.811  26.489  17.096  0.0983 -0.2465  0.0794
37744W        W80657  31.653  11.262  18.109 -0.1057  0.1725 -0.1056
37745W        W80658  31.354  25.443  16.137  0.2114  0.0712  0.4020
37746W        W80659  26.033  22.959   1.462  0.6371 -0.0490 -0.1014
37747W        W80660  33.005  18.521  16.636 -0.2323  0.3877 -0.1938
37748W        W80661   3.125  31.600  15.899 -0.0125  0.1003  0.1256
37749W        W80662  29.939   5.590  27.013  0.2936 -0.0117  0.5205
37750W        W80663  26.355  14.144  15.297  0.5733 -0.0848 -0.2499
37751W        W80664   4.324  16.822  19.654 -0.2769  0.2940 -0.3108
37752W        W80665  24.389  16.407   3.629 -0.3221 -0.1409 -0.3087
37753W        W80666   4.341   5.227  24.998  0.1832 -0.1591  0.2215
37754W        W80667   1.231  23.944  27.456 -0.0328  0.2564 -0.2920
37755W        W80668  19.602  25.129  18.506 -0.0082 -0.1025  0.2779
37756W        W80669  28.771  15.441  21.774  0.0669  0.0072 -0.1898
37757W        W80670  27.784  16.079  20.621 -0.0755  0.0145  0.2490
37758W        W80671  30.693  20.518  24.011 -0.1254  0.0012 -0.2198
37759W        W80672  27.158  18.624  20.986  0.3718  0.1801 -0.0291
37760W        W80673   8.366  19.103  18.038  0.2346  0.3533 -0.4314
37761W        W80674  30.635  28.354  21.492  0.0846 -0.2879 -0.2392
37762W        W80675  27.790  17.035  29.730 -0.0828 -0.0867 -0.2280
37763W        W80676  29.754  16.720  20.981  0.1906  0.2253 -0.2054
37764W        W80677  31.663  17.427  25.105 -0.2589  0.3431 -0.1468
37765W        W80678  15.519  14.278  23.332  0.2757  0.4546 -0.0310
37766W        W80679   9.966  33.903  19.583  0.2109 -0.0032  0.1857
37767W        W80680  25.614  18.401   1.116 -0.0088 -0.2256 -0.2359
37768W        W80681  29.588  28.876  19.208 -0.0435 -0.0099  0.1416
37769W        W80682  24.203   3.833  26.536 -0.0975  0.0243 -0.0129
37770W        W80683  31.692  17.227  19.420  0.1478  0.5659  0.0419
37771W        W80684  23.656  17.983  20.490  0.0526 -0.1952  0.1833
37772W        W80685  31.455   5.120  25.660 -0.3645 -0.0146 -0.2205
37773W        W80686   1.681  13.036   1.023 -0.1708 -0.1329  0.2179
37774W        W80687  32.885  32.864  21.452 -0.3259  0.1237  0.3304
37775W        W80688  28.571  21.967  15.383 -0.1005 -0.3315 -0.0679
37776W        W80689  32.792  16.368  25.589 -0.0930 -0.1478 -0.0593
37777W        W80690  33.587  21.290  27.516  0.0496 -0.0785 -0.0989
37778W        W80691  29.970  11.428  20.863  0.0626  0.2361  0.2555
37779W        W80692  29.909  26.300  26.188 -0.1085  0.1386  0.2200
37780W        W80693  10.582  23.389  24.782  0.0492  0.1610 -0.0785
37781W        W80694  30.086  20.979  25.481  0.0189 -0.1799  0.0853
37782W        W80695  29.512  21.237  19.587 -0.0757 -0.1434  0.0932
37783W        W80696  32.234  20.180  28.177 -0.0611  0.2504 -0.0039
37784W        W80697   8.319  17.005   1.076 -0.1440 -0.0978 -0.1868
37785W        W80698   9.376  18.000  24.078  0.1821 -0.0658  0.0839
37786W        W80699  27.915  23.014  27.423  0.3391  0.2173 -0.2085
37787W        W80700  32.569  18.546  27.054 -0.1219  0.1897 -0.1381
37788W        W80701   2.079  23.620  15.454  0.1640 -0.2236  0.0692
37789W        W80702  30.154  11.245   1.318 -0.0858  0.0637  0.0014
37790W        W80703  24.120  20.268   4.644  0.1991  0.0425  0.0730
37791W        W80704  31.648  15.985  13.889 -0.0749  0.4766 -0.1434
37792W        W80705   3.915   8.818  20.685  0.0477 -0.1521  0.2585
37793W        W80706   4.890  16.304  17.107  0.1439  0.1034 -0.1308
37794W        W80707   4.867  11.635  25.143 -0.2162 -0.0520  0.2016
37795W        W80708   4.885  17.449  15.949 -0.2003  0.2185 -0.0090
37796W        W80709  26.073  14.453   5.214 -0.0775 -0.0931  0.0766
37797W        W80710  26.536  11.065  23.195  0.1293  0.0305 -0.0172
37798W        W80711  22.185   6.632  16.568  0.0761  0.1909 -0.1706
37799W        W80712   1.203  23.685   1.981  0.3186 -0.1838 -0.0024
37800W        W80713   0.135  16.217  14.170 -0.1400 -0.2521 -0.0046
37801W        W80714  27.668  12.640  22.457  0.0303  0.1372  0.2435
37802W        W80715  33.421  18.458  28.111 -0.0261 -0.0699  0.2122
37803W        W80716   7.360  14.590  21.358  0.0294  0.2912 -0.0444
37804W        W80717  29.961  12.055  17.077 -0.0066  0.0971  0.2801
37805W        W80718   7.657  23.392  21.803  0.0922 -0.1527 -0.0372
37806W        W80719   4.374   8.946   3.738  0.0057 -0.0388  0.1488
37807W        W80720  29.466   7.360  24.699 -0.0391  0.1339  0.1472
37808W        W80721  33.476  22.201  23.877 -0.2466 -0.1822  0.3047
37809W        W80722  28.408  17.536  17.557 -0.0294 -0.0601 -0.1668
37810W        W80723   1.653  23.047  26.499 -0.0443 -0.1289 -0.1523
37811W        W80724   0.881  20.106  20.842 -0.0469  0.0919  0.0276
37812W        W80725   0.410  16.001  14.945 -0.0044 -0.0999  0.0813
37813W        W80726   0.700  22.070  20.394  0.1650  0.0295 -0.2854
37814W        W80727  33.145   9.501  23.532 -0.1780 -0.0296  0.2704
37815W        W80728  33.164  16.173  14.494 -0.1496 -0.1469 -0.1410
37816W        W80729  29.823  12.226  19.621 -0.1722 -0.1948  0.3565
37817W        W80730  24.308  23.857  23.702  0.2546 -0.1797 -0.3469
37818W        W80731  19.672  18.897  14.826  0.2791  0.1412  0.1413
37819W        W80732  25.354  16.270  13.914 -0.2175  0.0114  0.4838
37820W        W80733  27.776  17.865  24.864 -0.1473  0.0866 -0.0442
37821W        W80734  20.004  24.821  22.604 -0.1730 -0.1238 -0.0752
37822W        W80735   9.726  18.602  12.775  0.0934  0.0227 -0.0092
37823W        W80736  33.148  21.363  13.684 -0.4351  0.2532  0.1482
37824W        W80737  27.117  17.066   8.352 -0.0364 -0.0537 -0.1116
37825W        W80738   3.027  10.826  28.018  0.1722 -0.3055  0.2706
37826W        W80739   3.052  15.131  14.808  0.1179  0.0192 -0.2369
37827W        W80740  33.227  16.189  25.798  0.4809 -0.1030  0.2728
37828W        W80741  18.438  22.711  24.353  0.0138 -0.2013  0.0972
37829W        W80742  24.519   3.694  22.863 -0.0402  0.0091 -0.0699
37830W        W80743  25.526  15.390  28.092 -0.0572  0.0317 -0.0033
37831W        W80744  20.236  32.797  24.438 -0.3330  0.1242 -0.0626
37832W        W80745  34.351  18.059  13.978  0.1320  0.2358 -0.3916
37833W        W80746  23.308  17.600  15.253  0.0721 -0.1221 -0.0413
37834W        W80747  18.274  22.148  25.903 -0.1307 -0.1007  0.0707
37835W        W80748  33.925  10.949   0.181  0.0054 -0.0483 -0.0941
37836W        W80749  26.510  16.235  29.483  0.3003 -0.0624  0.3534
37837W        W80750  28.484  19.880   9.327  0.1032  0.2617  0.1557
37838W        W80751  31.698  10.202  27.456 -0.2003  0.0413  0.1667
37839W        W80752  33.496  10.421  16.163 -0.1995  0.0032 -0.0584
37840W        W80753   4.215  11.814  16.366  0.1984  0.5204 -0.2488
37841W        W80754  23.885  23.674   2.002 -0.3575  0.2679 -0.0702
37842W        W80755  25.224  15.418  14.076  0.0827  0.1739  0.1011
37843W        W80756  28.354  16.067  26.066 -0.0167 -0.2617  0.1177
37844W        W80757  30.913  20.074  21.128  0.2451 -0.1949  0.0180
37845W        W80758   8.392   6.269  25.817  0.1683  0.0377  0.2315
37846W        W80759  23.716  16.458  23.105 -0.3053  0.1851  0.2191
37847W        W80760  21.766  12.132  13.047  0.1235  0.3311 -0.2616
37848W        W80761  32.908  18.947  23.162  0.2051  0.2341  0.0435
37849W        W80762  31.628  19.028  29.333 -0.0141  0.1110  0.0434
37850W        W80763  31.083  12.359  23.382  0.1300 -0.1993 -0.1207
37851W        W80764  30.973  12.353  20.660 -0.0083  0.1090 -0.2548
37852W        W80765  20.656  21.701  24.416 -0.2665 -0.0825 -0.1155
37853W        W80766   1.124  13.238  21.544 -0.0277  0.0656 -0.1102
37854W        W80767  28.342  10.066  15.850  0.0246 -0.5635  0.1407
37855W        W80768  20.179   7.393   0.684 -0.0690 -0.0963 -0.1397
37856W        W80769  29.967  16.989   3.594  0.2270  0.0684 -0.0997
37857W        W80770  26.251  22.248  24.385 -0.0865  0.4614 -0.0460
37858W        W80771  28.453  16.895  25.841  0.1589 -0.0707 -0.3361
37859W        W80772  29.945  18.507  29.063  0.0064 -0.3615  0.2693
37860W        W80773   0.287  11.960  20.425  0.0789 -0.0813 -0.0611
37861W        W80774   3.209   9.477  17.909 -0.1315  0.2718  0.0531
37862W        W80775   7.523  16.899  20.642 -0.0201  0.1237  0.0365
37863W        W80776   0.393  17.194   2.154 -0.0967 -0.1207 -0.0486
37864W        W80777   1.657   9.738  22.679  0.3227  0.0312  0.0747
37865W        W80778  30.131  18.052  22.766 -0.0821  0.2340  0.0088
37866W        W80779  22.302  10.581  15.131  0.0787 -0.0903 -0.1701
37867W        W80780  19.186  15.062  12.688 -0.0088  0.4854  0.0524
37868W        W80781   1.583  11.949  21.396  0.1825  0.1324  0.0253
37869W        W80782  30.276  23.864  21.929  0.1841  0.2416  0.1444
37870W        W80783  25.633   6.177  26.558 -0.1546 -0.1471  0.1169
37871W        W80784  34.346  26.961  29.299  0.1010 -0.2145 -0.1516
37872W        W80785   5.754  14.943  20.170 -0.3289 -0.1894  0.2166
37873W        W80786  21.604   5.700  17.422 -0.1890  0.1470 -0.0705
37874W        W80787  29.896  16.532  28.427 -0.1845  0.1715  0.1827
37875W        W80788  28.198   3.410  24.766  0.1112 -0.0637 -0.1805
37876W        W80789  31.305  20.632   4.109  0.2163  0.0533 -0.1401
37877W        W80790  22.145   8.730  15.227 -0.1395  0.0478  0.1516
37878W        W80791  29.974  22.858  14.351  0.0641  0.0058  0.3659
37879W        W80792  33.740  21.768  16.620  0.0425 -0.1021  0.0640
37880W        W80793  30.905  25.266  29.066 -0.2246 -0.0279  0.2781
37881W        W80794  29.201  20.120  19.956  0.0010 -0.0430  0.2938
37882W        W80795   5.676   3.523  27.840  0.1179 -0.1723  0.0787
37883W        W80796  16.170  12.812  20.183  0.0462  0.0251  0.1818
37884W        W80797  24.128  13.198  13.998  0.4140 -0.2011  0.1929
37885W        W80798   0.548  19.868  23.633 -0.2000 -0.1711 -0.1847
37886W        W80799  28.417  17.629  19.947 -0.2071  0.0904  0.2476
37887W        W80800  22.871  23.221  29.529 -0.1081  0.2575 -0.2046
37888W        W80801  29.572  18.127  19.928 -0.3094 -0.1544  0.0905
37889W        W80802   4.883  25.574  25.754 -0.0317  0.3205 -0.1660
37890W        W80803  34.200  17.198  20.485  0.1378  0.0765 -0.0005
37891W        W80804  32.748   6.117  26.359  0.0067  0.0496  0.1425
37892W        W80805  28.582  21.140  15.485 -0.3530  0.0805  0.1184
37893W        W80806   0.641   5.612  18.431  0.1888 -0.0551  0.0282
37894W        W80807   4.600  19.809  24.727  0.4057  0.0644  0.0533
37895W        W80808  19.661  26.065  22.475 -0.0003  0.3307 -0.0209
37896W        W80809  17.342  23.585  26.152  0.4187 -0.4254 -0.1424
37897W        W80810  25.215  16.645  26.340  0.1283 -0.0346 -0.0780
37898W        W80811  25.973  20.852  27.620 -0.3533  0.0999 -0.0812
37899W        W80812   2.207  14.683  24.129 -0.1495 -0.0405  0.2193
37900W        W80813  34.204  19.141  29.517  0.1232 -0.0031 -0.0809
37901W        W80814  26.879  16.503  22.998  0.0424  0.0763 -0.0219
37902W        W80815  33.555  16.145  27.611 -0.0636  0.2159  0.3479
37903W        W80816  29.829  17.714   0.790 -0.1053  0.1737 -0.2293
37904W        W80817  23.829  22.152  12.592 -0.4368 -0.0062 -0.3086
37905W        W80818   0.851  17.553  21.543  0.0743 -0.0376  0.1224
37906W        W80819  33.530  23.365  29.101 -0.2271  0.0695  0.1722
37907W        W80820  22.275  16.740  20.198  0.2555  0.3660 -0.1528
37908W        W80821  23.956  20.321  28.284  0.0139  0.0532  0.2798
37909W        W80822  26.267  21.334   0.761  0.3448  0.1661 -0.1527
37910W        W80823  29.848  17.082  25.417 -0.0202  0.0597  0.3055
37911W        W80824  19.234  28.636  23.228  0.1512 -0.0316 -0.0993
37912W        W80825  27.042  17.248  21.108  0.3453  0.1787 -0.0222
37913W        W80826  27.054   2.039  25.305 -0.3143  0.1356  0.2962
37914W        W80827  26.101   5.368  18.776  0.1465  0.1663  0.1296
37915W        W80828   6.671  27.139  14.422 -0.1484  0.3446 -0.1467
37916W        W80829  33.110  13.172  18.757  0.1467 -0.2880  0.1566
37917W        W80830  24.557  14.494  24.680 -0.3112 -0.3308  0.4573
37918W        W80831  28.768  27.581  13.385 -0.0489 -0.1271  0.0126
37919W        W80832   3.605  19.348  26.578  0.5143  0.3396 -0.2734
37920W        W80833  29.607  16.517  15.732  0.4356  0.0122  0.0312
37921W        W80834  19.601  17.266  29.388  0.3588 -0.1506  0.0360
37922W        W80835   1.649  23.557  17.020 -0.0411 -0.0729  0.0154
37923W        W80836  33.523  17.932   3.480 -0.1005  0.0787  0.2559
37924W        W80837   3.766  24.803   1.864  0.1485 -0.1217 -0.0905
37925W        W80838  33.624  16.612  17.726  0.2634  0.0120  0.1481
37926W        W80839  26.358  20.161  22.966 -0.0393 -0.1474  0.2918
37927W        W80840  30.674  11.558  22.159  0.1612 -0.1453  0.0946
37928W        W80841  32.702  21.918  21.144 -0.0576 -0.1740 -0.1816
37929W        W80842   0.811  11.734  23.302  0.1353 -0.0032 -0.0487
37930W        W80843  31.804  30.563  28.812 -0.0596  0.2704  0.1999
37931W        W80844  27.863  15.456   2.522  0.5282  0.0463  0.3538
37932W        W80845   0.023  25.382  25.654 -0.2695  0.0953 -0.1048
37933W        W80846  26.097  16.657   2.066  0.0460  0.1570  0.3281
37934W        W80847  25.668  14.229  23.209  0.1934 -0.0474 -0.1255
37935W        W80848  23.449  23.403  24.066 -0.1474  0.1213  0.5558
37936W        W80849   3.632  19.013   4.284  0.2463  0.1546 -0.2057
37937W        W80850  33.034  17.846  17.693 -0.1368  0.0675 -0.1339
37938W        W80851  30.223  14.837  15.574 -0.0264  0.1195 -0.0303
37939W        W80852   2.406  18.995  25.177 -0.0794 -0.0592 -0.1956
37940W        W80853  32.191   0.483  20.455 -0.1414  0.0189  0.0975
37941W        W80854   1.137   9.108  21.521 -0.1711  0.0394  0.0450
37942W        W80855   2.015  19.305  16.815  0.1428  0.0211  0.0157
37943W        W80856  29.519  24.474  26.251  0.2805  0.1270 -0.3318
37944W        W80857  21.132  17.316  19.845  0.1845 -0.0113  0.2949
37945W        W80858  30.908  15.840   1.329  0.3689 -0.0077  0.0242
37946W        W80859  14.645   3.690  22.280 -0.1021  0.3834 -0.1326
37947W        W80860  26.926  15.457  17.960 -0.0922 -0.1199  0.0903
37948W        W80861   3.644  13.360  25.345 -0.1410 -0.1004  0.4689
37949W        W80862  32.865  19.779  24.923 -0.0442  0.0035  0.2648
37950W        W80863  16.285  19.463   1.182  0.0152  0.0600 -0.3552
37951W        W80864  20.599  16.420  27.920  0.1768 -0.0174 -0.2665
37952W        W80865  28.595  25.570  28.220 -0.0505  0.2767 -0.2313
37953W        W80866  29.699  22.674   3.446  0.0294 -0.0142  0.2092
37954W        W80867  26.673  15.628  15.204  0.1339  0.0726  0.0211
37955W        W80868  30.530  10.453  25.156  0.0894  0.0291  0.0102
37956W        W80869  29.079   4.261  28.457  0.2215  0.4134 -0.0542
37957W        W80870  30.794  12.655  25.448  0.0376  0.2418 -0.0936
37958W        W80871  30.301  11.830   1.320  0.0308  0.1421 -0.2171
37959W        W80872   2.543  15.867  17.509 -0.2689  0.2832  0.2459
37960W        W80873  23.322  19.001  16.466  0.4186 -0.3306 -0.1686
37961W        W80874  10.906  17.637  19.141 -0.0672  0.3421 -0.0914
37962W        W80875   3.766  22.900  14.297 -0.2823  0.0586  0.0727
37963W        W80876  32.351  19.683  14.483 -0.0263 -0.0270  0.3774
37964W        W80877  23.159  15.229  26.749 -0.2225  0.0182  0.1931
37965W        W80878  25.904   6.532  22.016 -0.1462 -0.1752 -0.1023
37966W        W80879  33.971   1.669  29.272  0.0874  0.0795 -0.5414
37967W        W80880  26.679  11.548  22.984 -0.1042 -0.0102  0.2716
37968W        W80881  24.698  12.390  14.679 -0.4164 -0.0249  0.2351
37969W        W80882  18.663  12.288  17.311 -0.2478 -0.1195 -0.1623
37970W        W80883  31.353  14.708   1.092  0.0118 -0.0425 -0.0182
37971W        W80884  27.587  12.501  20.083  0.1140 -0.0398  0.0141
37972W        W80885  19.604  13.685   3.637 -0.1580 -0.1569  0.0504
37973W        W80886  25.917   8.096  16.165  0.1980 -0.0659  0.1397
37974W        W80887  31.684  15.060  23.955  0.0385  0.0973 -0.2822
37975W        W80888  25.342  13.253  17.807 -0.1313 -0.2338  0.0426
37976W        W80889  25.096  15.627  20.118 -0.1799 -0.0473 -0.0951
37977W        W80890  34.434  22.363   4.127 -0.0896  0.2888 -0.1717
37978W        W80891   3.002  10.096  20.172 -0.1933  0.1014  0.0338
37979W        W80892  26.384  16.726  29.761  0.0921 -0.0459  0.0466
37980W        W80893  30.259   4.415  24.809 -0.3898  0.0962 -0.2016
37981W        W80894  25.408  32.203   3.130 -0.2424 -0.0616 -0.2808
37982W        W80895   0.474  18.993  22.277  0.1342 -0.5046  0.0693
37983W        W80896  32.165   9.161  17.345  0.0353  0.0763  0.1718
37984W        W80897  30.669  25.394   6.730 -0.1344 -0.0448  0.0914
37985W        W80898   5.551  22.768  20.951 -0.0872 -0.0485  0.2726
37986W        W80899  30.564  11.146  17.116 -0.0280  0.0777 -0.1929
37987W        W80900   1.492  12.289  23.802  0.2807 -0.0131 -0.3507
37988W        W80901  25.054  27.727  16.542  0.1405  0.0748  0.0628
37989W        W80902  32.857   1.481  21.911  0.0303 -0.0297  0.2190
37990W        W80903   6.944  16.304  20.474  0.1601  0.0774 -0.1554
37991W        W80904  32.974  24.503  14.910 -0.1977  0.0131 -0.0295
37992W        W80905  18.361  13.606  28.379 -0.0572  0.0186 -0.0430
37993W        W80906   9.190  15.001  23.893 -0.1010  0.0652 -0.0334
37994W        W80907  25.520  25.642  28.249 -0.1100 -0.1870  0.0103
37995W        W80908  23.970  18.390  25.747 -0.0251  0.1320  0.0552
37996W        W80909  30.955  17.395  17.358 -0.2703 -0.0067  0.0435
37997W        W80910   2.088  23.806  20.844 -0.0700  0.1420  0.2362
37998W        W80911  23.336  13.360  22.863 -0.3614  0.2207 -0.2557
37999W        W80912  25.515  23.325  27.468 -0.5546  0.0575  0.0761
38000W        W80913  29.144  33.776  23.901 -0.1115  0.0885 -0.1618
38001W        W80914  29.452  13.318  14.463  0.1787 -0.0727  0.0755
38002W        W80915  23.667  20.817  23.333 -0.3247 -0.0374 -0.1354
38003W        W80916  34.074  22.070  18.282 -0.0159 -0.0341 -0.3314
38004W        W80917  18.850  30.506  24.941  0.0478  0.1126 -0.0227
38005W        W80918   5.959  19.626   3.262 -0.0339 -0.0110  0.1334
38006W        W80919   9.909   1.068  20.553  0.2254 -0.1663  0.1904
38007W        W80920  30.556  20.773  15.736 -0.2314 -0.0482 -0.1526
38008W        W80921  26.100  19.631  24.238 -0.2812  0.0652 -0.1533
38009W        W80922  31.725   9.404  28.801 -0.0582  0.0389 -0.1813
38010W        W80923  25.042  19.149  22.045  0.0286 -0.3879  0.2354
38011W        W80924  25.935  13.413  20.614  0.2179  0.0025  0.1415
38012W        W80925  31.474  13.315  29.159 -0.1345  0.0259  0.2949
38013W        W80926   0.479  21.390  25.041 -0.0715  0.1875  0.1783
38014W        W80927   8.391  22.458  26.545  0.3339  0.2017  0.2296
38015W        W80928   0.327  21.589  24.389  0.1038  0.2176 -0.1796
38016W        W80929  25.615  23.460  15.325  0.0391  0.1296  0.3043
38017W        W80930   1.999  16.188   5.204 -0.0546 -0.0444  0.0081
38018W        W80931  29.376  24.683   2.418  0.0569 -0.0964 -0.1817
38019W        W80932   4.482  20.235  27.737  0.1557 -0.0775 -0.3268
38020W        W80933  25.780   8.647  26.233  0.0211  0.0740  0.1191
38021W        W80934   9.713  21.366  29.079  0.0454  0.1207 -0.0347
38022W        W80935  33.666  28.867  24.577  0.1984  0.1619 -0.2410
38023W        W80936  29.180  22.973  29.186 -0.3482  0.3504  0.0914
38024W        W80937  26.504  15.417  27.564 -0.3595  0.2020  0.1241
38025W        W80938   0.871  14.005  17.254 -0.2712 -0.0640  0.1582
38026W        W80939  30.982  12.609   4.886 -0.4596  0.2413  0.0281
38027W        W80940  30.827  22.438  13.635 -0.0347 -0.0991  0.0563
38028W        W80941  21.570  10.769   0.405 -0.3459  0.2132  0.1559
38029W        W80942  29.802  13.788  18.824 -0.1229  0.0550 -0.0380
38030W        W80943  24.217  26.780  29.070 -0.1245  0.0017  0.2370
38031W        W80944  26.463   7.738  17.486  0.0866 -0.0247 -0.0803
38032W        W80945  28.962  10.325  26.290 -0.1541  0.1065  0.2017
38033W        W80946  23.448  21.820   3.551 -0.1729  0.0556  0.2374
38034W        W80947  31.794  14.779  14.294 -0.0243  0.2776  0.0771
38035W        W80948  20.773  27.027   0.359  0.2005 -0.5698 -0.1557
38036W        W80949  27.818  26.074  26.039 -0.0414 -0.1030 -0.1510
38037W        W80950  23.274  11.544  19.684  0.0995 -0.2635 -0.1025
38038W        W80951  32.622   5.363  20.027  0.0513 -0.1517 -0.2111
38039W        W80952   5.424  15.756  27.761 -0.3486 -0.1084 -0.0170
38040W        W80953   7.835  15.977   4.691 -0.2155 -0.0444  0.1487
38041W        W80954  31.066  12.590  25.873  0.0455  0.5047  0.1972
38042W        W80955   5.588  20.122  26.426  0.1724 -0.1773  0.0406
38043W        W80956  25.582  24.483   3.198  0.2989 -0.0407 -0.0737
38044W        W80957  32.544  17.969  20.184 -0.0888 -0.1061  0.0687
38045W        W80958   8.908  20.024  20.518  0.1016  0.1604 -0.2318
38046W        W80959  32.868   7.741  23.609  0.1527  0.2278 -0.2510
38047W        W80960  28.592  19.701  18.662  0.1641  0.2993 -0.0380
38048W        W80961  22.957  20.423  19.752 -0.1950  0.1775  0.3742
38049W        W80962   6.062  10.132  20.292  0.0159  0.2465 -0.0208
38050W        W80963  27.949  24.398  13.799 -0.1157  0.1607  0.2679
38051W        W80964  23.326  19.525  19.604 -0.2144  0.2094 -0.0304
38052W        W80965  29.265  22.160  14.703  0.1229 -0.0875  0.1603
38053W        W80966   3.613  19.510  17.328  0.3908  0.3175 -0.2249
38054W        W80967   6.993  13.847  22.313  0.1747 -0.0229  0.1466
38055W        W80968   2.317  18.987  28.811  0.2316 -0.1474 -0.0794
38056W        W80969  23.581  19.699  29.035 -0.0554  0.3952  0.2826
38057W        W80970  30.293   9.316  17.135 -0.2546  0.0343 -0.3465
38058W        W80971   3.876  22.115   1.158 -0.0055 -0.1473 -0.1355
38059W        W80972  30.564  25.778  22.174 -0.0172 -0.1643  0.0899
38060W        W80973   2.082  13.938  17.823  0.0088 -0.2152  0.0473
38061W        W80974  21.831   6.991  25.479  0.3710  0.2357  0.0204
38062W        W80975  32.161  26.190  15.524  0.0866  0.1460 -0.1546
38063W        W80976   2.032  14.374   0.612 -0.4461  0.3799 -0.0059
38064W        W80977   2.517  15.198  15.258 -0.0022 -0.3365 -0.2373
38065W        W80978   1.742   1.914  26.738 -0.1250 -0.1104  0.0820
38066W        W80979  20.320  21.097  29.522  0.0334  0.1057  0.0605
38067W        W80980   4.093  22.523   6.811  0.1234  0.1104 -0.0847
38068W        W80981  30.590  12.169  20.398  0.0213  0.0348 -0.0462
38069W        W80982   9.340   9.972  29.505 -0.1911 -0.4446 -0.0084
38070W        W80983  28.790   9.951  24.272 -0.1117  0.0784  0.2284
38071W        W80984  27.055  13.721  22.421  0.3431 -0.1130 -0.2599
38072W        W80985  30.522  16.310  22.954  0.0025 -0.0481 -0.2306
38073W        W80986  29.244  12.418  28.372  0.0999 -0.1520 -0.1777
38074W        W80987  30.250   8.985  21.899 -0.2036  0.1291  0.0117
38075W        W80988  18.761   6.767  20.356 -0.2503  0.0852  0.1269
38076W        W80989  25.092  30.234  14.692  0.0541  0.0671 -0.3049
38077W        W80990   4.783  20.477  20.577  0.3184 -0.3519 -0.0186
38078W        W80991  30.326   1.707  21.853 -0.1762 -0.2886  0.2383
38079W        W80992  31.224  21.307   6.274  0.3124 -0.1067 -0.0736
38080W        W80993  30.480  16.838   0.930 -0.1208 -0.3671 -0.2557
38081W        W80994  31.543  25.502  25.639 -0.0282 -0.2136 -0.2753
38082W        W80995  25.616  13.101  19.658  0.0058 -0.1898 -0.1759
38083W        W80996  32.341   0.218  19.592  0.2927 -0.0526 -0.0167
38084W        W80997   2.053  17.229  25.695  0.2213  0.0708  0.0726
38085W        W80998  23.149   7.738  25.420  0.1340  0.0258 -0.1388
38086W        W80999  27.645   6.700   5.366 -0.0386 -0.2309 -0.2603
38087W        W81000  27.449  11.299  20.090  0.0639 -0.2459  0.0133
38088W        W81001  31.081  22.636  21.807 -0.1723 -0.1117 -0.1939
38089W        W81002   4.086  21.307  27.801 -0.0840  0.0148 -0.1058
38090W        W81003   2.346  20.918  19.571 -0.2259 -0.0972 -0.0270
38091W        W81004  21.093  22.737  16.096  0.1399  0.0893 -0.1785
38092W        W81005   3.188  20.347  24.897  0.0426 -0.1202  0.1339
38093W        W81006  34.355   8.607  16.422  0.1586 -0.2410  0.2848
38094W        W81007  21.389   8.960  21.014  0.0824 -0.0422  0.1724
38095W        W81008   3.677   7.169  20.586  0.1158  0.2920  0.0041
38096W        W81009   0.314  22.253  17.682  0.4142 -0.2927 -0.1090
38097W        W81010  24.246  13.831  19.701  0.1238  0.2316 -0.0735
38098W        W81011  33.151   2.615  24.506  0.0689 -0.0982 -0.0095
38099W        W81012  20.017  10.329  20.905 -0.2485 -0.0459  0.1590
38100W        W81013  26.483  28.181  15.633  0.0642  0.1882  0.1019
38101W        W81014  28.432  16.264   0.705  0.1124 -0.1531 -0.1387
38102W        W81015  20.148   4.325   1.843 -0.0597 -0.1202  0.2681
38103W        W81016  31.540  10.920  22.918  0.1839 -0.2414 -0.2632
38104W        W81017  30.440   6.976  26.610  0.2479 -0.2074  0.1933
38105W        W81018  30.141  17.977  18.724  0.1958 -0.1118 -0.1055
38106W        W81019   1.501  19.548  25.013  0.0787  0.0993  0.2677
38107W        W81020  28.414  18.590  26.203  0.1675 -0.0773 -0.0810
38108W        W81021   2.085  10.952  26.219  0.0840  0.0196 -0.1151
38109W        W81022  21.686  13.724   0.662 -0.0222  0.1543 -0.2033
38110W        W81023   2.460  29.722  29.058 -0.0341  0.0648 -0.1938
38111W        W81024  29.572  10.729  20.434  0.0005 -0.5088  0.1153
38112W        W81025  26.453   0.576  29.409 -0.2069 -0.2691 -0.2697
38113W        W81026  20.525  13.655  29.060 -0.0781  0.4076  0.0333
38114W        W81027   2.385  24.243  27.972  0.1518  0.0479  0.4394
38115W        W81028   8.079  10.964   0.199  0.0100  0.2072  0.0779
38116W        W81029   6.660  10.272   4.555  0.0144 -0.0275 -0.2014
38117W        W81030   5.170   7.014  22.973  0.1943 -0.0754 -0.0306
38118W        W81031  24.188  16.094  21.805 -0.0866 -0.0015 -0.2478
38119W        W81032  22.838  15.243  21.755  0.1272  0.0626  0.1323
38120W        W81033  18.897  24.144  14.425  0.1057 -0.0257  0.1547
38121W        W81034  15.840  15.306  26.968 -0.1670  0.0377 -0.1071
38122W        W81035  20.810  33.610  26.370  0.0016 -0.1149  0.4116
38123W        W81036  22.831  12.854  24.066 -0.0051 -0.2472  0.0051
38124W        W81037  23.720  19.319   2.209  0.0061  0.1793  0.1286
38125W        W81038  26.840   4.059   5.060  0.0164 -0.0719  0.1654
38126W        W81039  28.838  18.320  22.873 -0.2757  0.0460  0.1932
38127W        W81040  27.719  17.335  16.836 -0.0919 -0.2708 -0.0864
38128W        W81041  30.590  19.790  16.661 -0.4477  0.0492 -0.0447
38129W        W81042   0.260  15.737  27.205  0.1172  0.0635  0.1059
38130W        W81043  23.833  11.867   6.067  0.3647  0.1138 -0.1284
38131W        W81044  21.359  17.870   2.138  0.0476 -0.4203  0.1821
38132W        W81045  28.897  10.688  24.738  0.1361  0.0861  0.1808
38133W        W81046  28.226  14.010  23.371 -0.2670 -0.2762  0.0074
38134W        W81047  32.684  10.775   0.137  0.0056  0.0071  0.4927
38135W        W81048  22.313  17.083  27.860 -0.1288  0.2455  0.0184
38136W        W81049  29.832  16.751  28.939  0.2256 -0.1086  0.3064
38137W        W81050  34.303  22.276  29.477 -0.2865 -0.0187  0.1352
38138W        W81051  25.773   8.694  19.997  0.2698  0.1236 -0.0444
38139W        W81052  33.917  28.148   9.783 -0.0818 -0.0763  0.3010
38140W        W81053  34.270  19.388   8.903 -0.1494  0.1355 -0.2156
38141W        W81054  28.208  16.937  26.976  0.1396  0.1770 -0.1991
38142W        W81055  26.633  16.778   2.879 -0.2109  0.2229  0.2902
38143W        W81056   0.607  22.835  17.757  0.3942  0.1187  0.1426
38144W        W81057  31.966  17.174  24.397  0.1038 -0.2245  0.0458
38145W        W81058  30.467  16.751  15.043 -0.1540  0.1046 -0.2417
38146W        W81059  27.328  27.105  23.617  0.0384  0.5945 -0.1649
38147W        W81060  29.848  23.887  27.595 -0.0949 -0.0394  0.0269
38148W        W81061  26.712  26.916   4.814  0.2632 -0.3279  0.0080
38149W        W81062  31.542  15.545  24.649 -0.0652  0.2036  0.0668
38150W        W81063   2.951  19.196  22.498  0.0046  0.0267  0.1080
38151W        W81064  23.504  25.695  28.710  0.1877  0.0131  0.0836
38152W        W81065  19.721  15.719  27.104  0.2457  0.2285 -0.0843
38153W        W81066  27.482  22.728  25.747  0.0943  0.2735 -0.0931
38154W        W81067  31.330   3.876  26.128  0.2481  0.0698  0.1537
38155W        W81068  28.940  27.651  23.024 -0.1076 -0.3161 -0.1424
38156W        W81069  28.779  15.049  19.240  0.1677  0.0540 -0.0487
38157W        W81070   4.862  15.382   0.152 -0.1575 -0.0140  0.1066
38158W        W81071  20.597  26.956   3.975 -0.4172  0.2863 -0.0776
38159W        W81072  30.253  12.919   2.839  0.0038 -0.3677 -0.0874
38160W        W81073  23.440  23.421   0.720 -0.0236 -0.0622 -0.2395
38161W        W81074  26.731  23.087   7.018  0.0437  0.2998 -0.3981
38162W        W81075  34.406  15.702   9.538  0.0636 -0.0114 -0.0324
38163W        W81076  28.000  15.420  29.361  0.2532  0.0395  0.0173
38164W        W81077  13.014   1.680  20.350 -0.2045  0.2370 -0.0534
38165W        W81078   1.885   2.597  17.696 -0.4318 -0.1318  0.5474
38166W        W81079   2.216  13.663   1.911 -0.0155 -0.0489 -0.1717
38167W        W81080  29.752  21.458   6.486 -0.4201  0.0224  0.1159
38168W        W81081  27.654  24.965   7.787  0.2681  0.2663 -0.1007
38169W        W81082   7.013  13.814   4.311  0.0267 -0.1329 -0.1816
38170W        W81083  22.173  18.506   3.845  0.1182 -0.0448 -0.0949
38171W        W81084  30.115  12.264   2.681 -0.0633  0.2098  0.0593
38172W        W81085  29.116   4.972  25.928  0.1039  0.1594  0.0930
38173W        W81086  27.173  17.645  27.472 -0.0265 -0.1225 -0.1880
38174W        W81087  32.268  15.064  25.580 -0.2175 -0.2543  0.1933
38175W        W81088  32.350  23.977  27.435  0.0195  0.1859  0.3348
38176W        W81089  32.032  10.907   1.226  0.0286  0.2071  0.1171
38177W        W81090  30.176  18.260  19.123  0.0330 -0.1252  0.0244
38178W        W81091  19.296  14.493   0.120  0.3290 -0.1940  0.0454
38179W        W81092  32.833  15.812   0.615 -0.0544  0.1688 -0.2159
38180W        W81093  27.559  15.130   5.388 -0.0165 -0.3813  0.0944
38181W        W81094  26.482  19.439   3.453  0.1219  0.1016  0.0409
38182W        W81095  24.089  15.448  25.556 -0.1884 -0.0557  0.1299
38183W        W81096   0.364  14.952   2.207 -0.1714 -0.0557  0.1762
38184W        W81097  24.192   2.885   2.202 -0.1314 -0.0329  0.0403
38185W        W81098   1.839  14.600  18.726  0.0895 -0.0690  0.3654
38186W        W81099  29.246  12.812   9.091  0.1785 -0.1703 -0.0972
38187W        W81100   3.470  11.739  10.330 -0.0738  0.0226  0.1864
38188W        W81101  21.759  19.348   3.579 -0.0429  0.2125 -0.0204
38189W        W81102  24.936  15.890   3.040 -0.1131 -0.0057 -0.2496
38190W        W81103  24.233  20.539  29.596 -0.2699  0.1658  0.3202
38191W        W81104  34.223   0.580   2.095  0.2530  0.2651  0.1911
38192W        W81105  22.701  12.546  28.871 -0.1813  0.1225 -0.0430
38193W        W81106  31.012  20.494  27.138  0.0298 -0.1109 -0.1811
38194W        W81107  31.348  22.453  21.374  0.1207  0.0237 -0.3220
38195W        W81108   1.941  13.348  20.253  0.0237 -0.1150  0.2835
38196W        W81109  28.979  18.900   2.916  0.0473  0.2224 -0.0051
38197W        W81110  24.048  11.514   0.003 -0.0508  0.0960 -0.0344
38198W        W81111  32.664  15.413   2.854 -0.0252 -0.1242 -0.0450
38199W        W81112  15.756  29.791   2.174  0.0093  0.0443  0.0158
38200W        W81113  32.611  11.069  29.421  0.1972  0.1628 -0.1805
38201W        W81114  26.576  13.990  25.652 -0.1948 -0.0993 -0.0356
38202W        W81115  29.880  11.261  24.039 -0.0864  0.1124 -0.0695
38203W        W81116  32.534  18.110   0.610  0.1226 -0.0598 -0.1380
38204W        W81117   3.549  11.963  29.685  0.0527  0.1882 -0.2561
38205W        W81118  25.682  20.987  29.269  0.0529  0.2531  0.2152
38206W        W81119  24.938   8.817  20.597 -0.0429 -0.1306  0.2692
38207W        W81120  28.254  28.667  29.760  0.1965  0.0507 -0.0139
38208W        W81121  21.082  26.177   4.701  0.2047  0.0687  0.3157
38209W        W81122  33.816  12.922  24.990 -0.0636 -0.4531  0.0262
38210W        W81123   0.727  22.175   0.433 -0.0192 -0.0931  0.2772
38211W        W81124  27.813  11.450  22.862 -0.4853 -0.1492 -0.0710
38212W        W81125  21.845  31.183  23.862  0.0248 -0.1455 -0.0915
38213W        W81126   2.829  16.369   2.967 -0.0634  0.0106  0.0217
38214W        W81127  27.560  16.398  29.025 -0.0885 -0.0145  0.3228
38215W        W81128  28.048   8.427  24.692 -0.0836  0.3710 -0.1259
38216W        W81129  32.907  14.189  28.853  0.2418 -0.2113 -0.1731
38217W        W81130  28.914   5.387  18.519 -0.0413  0.0337  0.3393
38218W        W81131  33.599  13.140   6.262  0.3987 -0.1132 -0.1540
38219W        W81132  33.468  12.662  18.495 -0.1777 -0.1748 -0.1030
38220W        W81133  26.223  20.437  22.565 -0.1748  0.2622 -0.0287
38221W        W81134   3.364   3.105  24.460  0.2178 -0.0438  0.2627
38222W        W81135  29.695  17.476  28.896 -0.1393 -0.1378 -0.1505
38223W        W81136  22.334  10.333   0.120 -0.0913  0.0568  0.4024
38224W        W81137   1.941   2.427  18.256  0.2898 -0.2824 -0.0108
38225W        W81138   0.627  16.385   3.277  0.1245 -0.2145 -0.0208
38226W        W81139  29.987  15.676  23.889  0.1247  0.1004  0.5446
38227W        W81140  27.360  23.948  24.024  0.1929 -0.3132 -0.1941
38228W        W81141  16.600  29.591   9.507 -0.1407 -0.0398  0.1251
38229W        W81142   9.582   3.970  24.844 -0.0217  0.1731  0.0141
38230W        W81143  23.452  10.188  21.293 -0.0952  0.0788  0.2117
38231W        W81144  30.267  13.543  26.764 -0.3119  0.0899 -0.0186
38232W        W81145   6.976  11.619  17.126 -0.2061  0.3156  0.1202
38233W        W81146  25.758  11.990  27.839  0.0096 -0.3494 -0.1104
38234W        W81147  26.588  20.206   2.011 -0.4496  0.3216 -0.0639
38235W        W81148  26.760  19.847   9.362 -0.1165  0.1493 -0.0194
38236W        W81149  26.083  28.614  25.102 -0.1001 -0.1482  0.1666
38237W        W81150  24.126  18.285  23.126  0.0343 -0.1406  0.2116
38238W        W81151  18.626  20.739  20.764  0.0222  0.1643 -0.3289
38239W        W81152  33.056   5.551  20.199  0.1688  0.1902 -0.0153
38240W        W81153  23.475  30.077  27.351  0.0098  0.0854 -0.0812
38241W        W81154  32.905   9.180  25.006  0.0852 -0.0601  0.0327
38242W        W81155  26.919  18.092  26.504  0.0985  0.2021 -0.2657
38243W        W81156  22.541  10.688  20.937  0.0080  0.1862  0.0078
38244W        W81157  28.878  14.676  29.149  0.1862 -0.0114 -0.2808
38245W        W81158  30.651  18.566   4.800 -0.1888 -0.0186  0.0388
38246W        W81159   8.336   7.457  25.043  0.1740  0.1360 -0.1194
38247W        W81160  25.106  19.760  25.011  0.1318  0.1516  0.1187
38248W        W81161  28.063  15.277  20.929 -0.3268  0.1894 -0.0768
38249W        W81162  14.801   4.945  26.034  0.0244 -0.0039 -0.0999
38250W        W81163   3.472  12.938  10.181 -0.0135  0.1294  0.4454
38251W        W81164   0.822  21.029  27.322 -0.0781  0.1909 -0.3067
38252W        W81165  24.482   6.925   4.322  0.2666  0.0642  0.0995
38253W        W81166  21.895  26.246   2.900 -0.0535 -0.0184 -0.1468
38254W        W81167  26.660  32.219  23.553 -0.0781 -0.1875  0.1253
38255W        W81168  27.642  16.217  24.863 -0.0839 -0.3625  0.2184
38256W        W81169  24.644  18.527  25.391 -0.1366  0.3002  0.1275
38257W        W81170   3.725   5.448  24.571  0.1183 -0.0818 -0.3457
38258W        W81171  20.988  15.429  27.553  0.0280  0.0192  0.0934
38259W        W81172  23.433  23.995   2.139  0.1789  0.2143 -0.1709
38260W        W81173   6.365   9.786  22.616 -0.2432 -0.2669 -0.0901
38261W        W81174  22.640  16.497   0.994  0.0784 -0.1125  0.0328
38262W        W81175  34.458  19.345   0.765 -0.2847  0.0473  0.3470
38263W        W81176   4.025  25.663  21.860 -0.0659 -0.3117 -0.0932
38264W        W81177  28.999  26.240  26.469 -0.0055  0.2715 -0.1076
38265W        W81178  24.873   9.966  19.316  0.2234 -0.0030  0.3650
38266W        W81179  29.794  27.521   0.048 -0.1863  0.1662 -0.3279
38267W        W81180   4.516  23.192   3.928  0.0114 -0.0697 -0.0228
38268W        W81181  18.302  15.083  21.864  0.1419  0.0889 -0.2720
38269W        W81182  33.192  28.438  25.381 -0.1606  0.1217  0.3646
38270W        W81183  30.653   4.699   2.707 -0.1207 -0.1652  0.1743
38271W        W81184  26.725  22.208  27.394  0.1981  0.3962  0.1095
38272W        W81185   7.050  15.349   4.180 -0.1504 -0.0544 -0.0938
38273W        W81186   6.331   9.559   1.392  0.0983 -0.0402 -0.0622
38274W        W81187  29.477  10.639  21.030 -0.5147 -0.1090  0.4171
38275W        W81188  28.010   7.445   4.737  0.3538  0.0887 -0.2598
38276W        W81189  34.406  16.477   3.217  0.0494 -0.0644  0.1606
38277W        W81190  31.559  21.575   1.084 -0.1070 -0.1241 -0.0412
38278W        W81191   2.082  11.753   4.496 -0.2776 -0.0368  0.0530
38279W        W81192   0.277  25.055   1.461  0.3821  0.2737 -0.1473
38280W        W81193   0.863  15.111  28.710 -0.0776  0.0006 -0.1325
38281W        W81194  20.137  28.873   2.222  0.1932  0.0281  0.1151
38282W        W81195  33.157  16.113   0.863  0.3171  0.1004  0.0836
38283W        W81196  29.957  21.638  29.072  0.1340 -0.2410  0.0485
38284W        W81197  34.058  16.822  29.619 -0.0764  0.1000  0.1723
38285W        W81198  32.636  28.018  27.790  0.0593  0.2619 -0.0670
38286W        W81199  28.666  13.238  18.475  0.0631 -0.0523 -0.0258
38287W        W81200  12.065  16.162  21.331  0.1289  0.1543  0.0575
38288W        W81201  26.554   7.145  14.090  0.3474  0.2850 -0.0224
38289W        W81202  28.780  19.577  15.313 -0.3080 -0.0527 -0.1884
38290W        W81203  27.310  15.258  19.782  0.1399 -0.0278  0.0738
38291W        W81204  25.137  20.259   2.922  0.2795  0.1716  0.1015
38292W        W81205  28.515  11.182  21.621  0.0336 -0.1805 -0.0340
38293W        W81206  32.298   6.910  24.112  0.1112 -0.1573  0.2082
38294W        W81207  31.848  21.191  17.277  0.0231 -0.1507 -0.0803
38295W        W81208  13.605  15.914  23.543 -0.0292 -0.0234  0.1805
38296W        W81209  29.842  20.369   2.416 -0.0639 -0.1278 -0.0477
38297W        W81210   0.898  19.283  26.266  0.0800 -0.2513  0.2593
38298W        W81211   0.762  18.147   6.192 -0.0560  0.2748  0.0542
38299W        W81212  31.572  10.803   2.124  0.2398  0.1471 -0.0079
38300W        W81213  31.152   8.822  22.660 -0.1153 -0.1264  0.0120
38301W        W81214  26.099   9.297  29.033 -0.0234  0.2040 -0.1601
38302W        W81215  32.507  11.131   0.475 -0.0182  0.0150  0.2001
38303W        W81216  30.028  12.837   0.628  0.0017  0.1004  0.3587
38304W        W81217  27.682  15.101   9.285  0.1267  0.2025 -0.2988
38305W        W81218  15.047  12.366  28.844 -0.1353  0.0422 -0.0039
38306W        W81219  31.448  16.857  15.715  0.2019  0.0546 -0.0778
38307W        W81220  27.437  12.324  23.665  0.5194  0.0460 -0.2178
38308W        W81221  22.440  22.497  18.974  0.0063 -0.0573 -0.0891
38309W        W81222  24.060   0.635   2.671  0.2749  0.0590  0.0236
38310W        W81223  19.754  21.387  28.741  0.0738  0.1177 -0.1012
38311W        W81224  29.283   9.605   5.906 -0.2497 -0.2981 -0.2120
38312W        W81225  33.597  13.741   1.406  0.1199 -0.0360 -0.0724
38313W        W81226  10.539   0.416  22.918 -0.0694  0.0655 -0.2387
38314W        W81227  22.447   9.718  23.885  0.0564 -0.0306  0.1326
38315W        W81228  32.041  14.741   4.372  0.0383  0.2698 -0.1301
38316W        W81229   0.383  20.081   4.847 -0.1199  0.0204 -0.0763
38317W        W81230  34.099   0.039   0.360  0.0136 -0.1252 -0.1038
38318W        W81231   3.212  26.696  10.029  0.0989 -0.1494 -0.0955
38319W        W81232  29.837   6.638   3.493 -0.3114  0.1914 -0.0121
38320W        W81233   2.366  13.087  27.920  0.2852 -0.1758 -0.0893
38321W        W81234   4.176  24.030  24.951 -0.1608  0.0261  0.2779
38322W        W81235  26.383  14.987  23.041  0.1225  0.2259 -0.6020
38323W        W81236  18.568  24.227  28.551 -0.1228  0.0317 -0.1453
38324W        W81237   2.671  19.421   2.506  0.1843  0.2022  0.0921
38325W        W81238  28.872  16.787   4.401  0.0865 -0.3728 -0.1321
38326W        W81239  25.098  16.732   2.302 -0.0800  0.0833 -0.0041
38327W        W81240  24.201  16.688  23.372 -0.3803  0.2901  0.1852
38328W        W81241  27.421  15.506  21.032 -0.1484 -0.2055 -0.0336
38329W        W81242   0.020  19.844   2.184 -0.2003 -0.0910  0.0849
38330W        W81243  26.589  17.364  26.675 -0.1050  0.0610  0.0365
38331W        W81244  33.554  14.369  29.460 -0.0697  0.1696 -0.0621
38332W        W81245  25.881  15.944   3.417  0.2908 -0.1345  0.1656
38333W        W81246  32.524  25.894  26.406 -0.2152  0.1587 -0.0545
38334W        W81247   0.951  21.997  27.119  0.1036  0.0416 -0.0978
38335W        W81248  24.144  14.938   1.804  0.5286  0.2014  0.1060
38336W        W81249   3.504  11.030   1.074  0.0559 -0.3107  0.0502
38337W        W81250  26.297   7.931  27.755 -0.0522 -0.4333 -0.3271
38338W        W81251   2.273   8.862  25.060 -0.0640  0.1271  0.0881
38339W        W81252   1.971  17.035  26.627 -0.1272  0.1967  0.3070
38340W        W81253  22.838  18.884  12.959 -0.4170 -0.0572 -0.0825
38341W        W81254   7.006   3.703  23.585  0.1902  0.0450 -0.2319
38342W        W81255  11.132  15.581  25.203  0.0194 -0.0303  0.1888
38343W        W81256  26.641  20.380  17.904  0.2059  0.0903  0.3026
38344W        W81257  26.402  10.958   1.263  0.1978 -0.2030 -0.1956
38345W        W81258  29.790  13.464  29.554  0.4896 -0.1918 -0.1687
38346W        W81259  23.632  27.556  28.418 -0.2510  0.2654  0.2446
38347W        W81260   8.454  21.757  25.556 -0.1098  0.4981  0.1726
38348W        W81261  33.891  24.449   5.788  0.3340 -0.0541  0.3402
38349W        W81262  29.210  32.526  26.095 -0.1799 -0.1063  0.1402
38350W        W81263  34.206   8.119  27.027 -0.0128  0.2081 -0.1264
38351W        W81264   4.766  25.280   0.136 -0.3659  0.2693 -0.0883
38352W        W81265  29.107  15.570  16.075 -0.1936  0.1321 -0.3132
38353W        W81266  29.574   0.174   3.580  0.0586 -0.0797  0.0451
38354W        W81267   1.314  16.522  22.954  0.0770 -0.0244 -0.1093
38355W        W81268  31.712  19.811  27.992 -0.1201 -0.0892 -0.0043
38356W        W81269  26.356  20.481   4.579  0.2181 -0.2367 -0.0576
38357W        W81270  30.313   1.671  25.724  0.0997 -0.1623 -0.2227
38358W        W81271  31.044  13.695  28.227  0.3080  0.2951  0.0291
38359W        W81272  24.187  14.890  21.425 -0.4697 -0.1897 -0.2334
38360W        W81273  26.507  13.452  24.153 -0.0813 -0.1047  0.3176
38361W        W81274   9.514  18.309  28.570 -0.0187 -0.0916  0.2613
38362W        W81275  23.977   8.626  23.850 -0.0806 -0.0107  0.1485
38363W        W81276   1.573  22.347  18.930 -0.0130 -0.0018  0.2280
38364W        W81277  33.057  16.991  13.855  0.0866 -0.0027 -0.2099
38365W        W81278  19.923  17.129  24.511 -0.3812  0.2014 -0.1028
38366W        W81279   7.878  14.320  24.921 -0.1513  0.2663  0.0114
38367W        W81280  23.155  13.531   1.338  0.2623  0.4304 -0.1110
38368W        W81281  29.568  19.604   7.586  0.1379 -0.0646  0.3815
38369W        W81282  28.651  19.339  24.482  0.1362 -0.2043  0.0509
38370W        W81283   5.827  14.008   0.423 -0.1171  0.0210  0.0171
38371W        W81284  33.760  13.121  24.019  0.2410  0.2700  0.0279
38372W        W81285  32.756  25.773  14.572 -0.0049 -0.0207 -0.0046
38373W        W81286  30.841  26.555  20.363 -0.0564 -0.1003 -0.0431
38374W        W81287  29.281  19.842  27.106  0.0463 -0.3265  0.1380
38375W        W81288  23.203   7.995  26.019 -0.0564  0.2932 -0.2137
38376W        W81289  26.178   6.478   3.328 -0.1581 -0.1060 -0.1470
38377W        W81290   1.815  26.639   2.171  0.0302 -0.0329  0.1342
38378W        W81291  21.044  24.145  28.322  0.1251 -0.0483  0.1306
38379W        W81292  28.528  24.218  22.337 -0.2197  0.3117 -0.1754
38380W        W81293  28.585  15.863  23.329  0.4051 -0.1032  0.0932
38381W        W81294  27.290  20.385  19.120  0.2762 -0.2566 -0.3768
38382W        W81295  10.373   5.443  25.625  0.0802  0.2228 -0.0120
38383W        W81296  18.225  10.895   3.497 -0.0383 -0.1075  0.0364
38384W        W81297  19.692  14.660   9.088  0.0357  0.2408  0.0946
38385W        W81298   7.443  15.655  27.812 -0.0824  0.0829  0.1302
38386W        W81299  30.227  28.047  21.606  0.1411 -0.0074 -0.0258
38387W        W81300  28.833  27.851   3.011 -0.1596  0.2294 -0.3258
38388W        W81301  26.683  18.012   0.364  0.0148  0.2207  0.1684
38389W        W81302  27.579  15.495  25.100  0.0682 -0.1506  0.0035
38390W        W81303   3.069  12.199  26.127  0.1782  0.1201 -0.1339
38391W        W81304  30.270  19.637   0.741 -0.0424 -0.1326 -0.2001
38392W        W81305  21.955   9.830  27.656 -0.0235 -0.1692 -0.4226
38393W        W81306  27.777  13.836   4.008 -0.1106  0.1812 -0.0206
38394W        W81307  31.593  24.764   1.989 -0.1772  0.0875 -0.2962
38395W        W81308  31.192  14.949   7.345  0.2988  0.3917  0.1311
38396W        W81309  30.704  14.361   3.305 -0.1731  0.3552 -0.0125
38397W        W81310  29.465   8.169  21.385  0.2095 -0.1342 -0.1399
38398W        W81311   2.069  18.528  25.966 -0.1690 -0.0959  0.1668
38399W        W81312  20.815   5.988  20.696 -0.0153  0.1949 -0.1390
38400W        W81313   3.329  17.391   1.170 -0.1979 -0.2043  0.1064
38401W        W81314  24.075  24.052  27.899 -0.1132 -0.0003 -0.0818
38402W        W81315  30.809  21.282  22.303  0.0317  0.2209 -0.0886
38403W        W81316  29.111  10.670  26.732  0.1434  0.3206 -0.0548
38404W        W81317   1.666  18.443  27.576 -0.3305  0.0047 -0.0287
38405W        W81318  31.581  24.969  23.266  0.0100  0.1135 -0.2016
38406W        W81319   0.165  33.458   1.118  0.0634  0.0237 -0.0252
38407W        W81320  30.804   4.418  24.743  0.0202 -0.2142 -0.1244
38408W        W81321  22.715   7.491  27.319 -0.0098 -0.0140  0.0901
38409W        W81322  18.977  15.185  25.037  0.0657 -0.3294  0.0452
38410W        W81323  33.774  17.077   1.950  0.0408  0.0400 -0.1269
38411W        W81324   0.444  13.950  24.921  0.2018  0.0564 -0.1442
38412W        W81325   1.875  20.416  26.405 -0.0017 -0.2495 -0.1700
38413W        W81326  28.672  10.677  21.713  0.0516  0.0881  0.0021
38414W        W81327  11.144  10.867   1.388 -0.3622 -0.1034  0.2032
38415W        W81328   1.448  15.662  27.314  0.0229 -0.1281 -0.1063
38416W        W81329  26.134  10.540  24.235 -0.0977  0.0061 -0.0405
38417W        W81330   2.665  11.779   2.259 -0.1174  0.1194 -0.1594
38418W        W81331  25.986  15.879  21.697 -0.0862  0.2581  0.0622
38419W        W81332  22.991   6.524  26.537  0.0055  0.1223  0.1266
38420W        W81333  30.060  22.816  25.631 -0.2555 -0.0814  0.3080
38421W        W81334  30.242  21.341   6.469 -0.0958  0.2096  0.0551
38422W        W81335  27.800  22.936   3.725 -0.1978  0.2247 -0.2783
38423W        W81336  31.794  15.595  28.443  0.1728  0.1621  0.4952
38424W        W81337  27.961  12.241  23.422 -0.2403  0.2366 -0.0268
38425W        W81338   3.456  13.264  26.055 -0.0082  0.2763 -0.1372
38426W        W81339   1.258  25.555  22.500  0.2733 -0.0601 -0.1955
38427W        W81340   0.366  16.453  27.102 -0.1467 -0.0008 -0.1818
38428W        W81341  25.674  13.027   3.186 -0.1404  0.1520  0.2488
38429W        W81342  24.373  22.238   1.900 -0.3253 -0.2518  0.1177
38430W        W81343   3.924  17.791  26.236 -0.0288  0.0993  0.1082
38431W        W81344  14.653  15.577  28.503 -0.2478 -0.1989 -0.2855
38432W        W81345  34.123  15.089  16.381 -0.4928  0.2918  0.1885
38433W        W81346   3.708  21.703   0.723 -0.2646 -0.1093  0.0757
38434W        W81347  24.581  18.173  17.912  0.3444  0.0583  0.1318
38435W        W81348  20.518  34.336  28.991  0.0183  0.0051 -0.0219
38436W        W81349   3.052  19.412  17.741 -0.0547  0.1693  0.2855
38437W        W81350  20.807   8.635  21.363 -0.1582  0.0790  0.1955
38438W        W81351  20.861  15.345   4.392 -0.0927  0.1670 -0.1478
38439W        W81352   3.300  22.344  28.962 -0.1316 -0.0781  0.1346
38440W        W81353  24.773  23.111  22.314 -0.2762  0.0057  0.2081
38441W        W81354  22.023  12.257  20.625 -0.0336  0.1195 -0.0703
38442W        W81355  32.161  25.008  28.571 -0.0565 -0.0557 -0.3344
38443W        W81356  29.073  22.260   5.996 -0.2977 -0.2468 -0.3079
38444W        W81357   2.257  17.909   4.436 -0.0840 -0.0666  0.1058
38445W        W81358  31.163  13.338  27.622 -0.2902  0.0328 -0.1273
38446W        W81359  19.749  26.056  29.003  0.1128  0.0875  0.0373
38447W        W81360  31.331  25.826   1.267  0.2438  0.3922 -0.0157
38448W        W81361  27.587  14.661  18.436  0.0914  0.0707 -0.0521
38449W        W81362   3.855  12.893  26.280  0.3453 -0.0328  0.1029
38450W        W81363  22.617  13.838  27.119  0.0404 -0.0503  0.0549
38451W        W81364   1.007  30.804  29.169 -0.2106 -0.1065 -0.2423
38452W        W81365  33.985  16.843  25.756 -0.1572 -0.1150 -0.0113
38453W        W81366  11.421  14.351   3.845  0.0679  0.2434 -0.2025
38454W        W81367  30.988  16.625   6.943  0.3098  0.0667  0.2677
38455W        W81368  15.437  18.083   2.901 -0.0552  0.0429 -0.0441
38456W        W81369  27.966   6.366   6.312  0.0222  0.0315  0.0826
38457W        W81370   2.191  26.789   2.418 -0.1211 -0.0424  0.0658
38458W        W81371  33.203  15.569   8.133  0.0334  0.0962  0.0130
38459W        W81372  26.094  22.440  17.874 -0.2516 -0.0353  0.3303
38460W        W81373  26.617  19.410   5.249  0.4506  0.1081 -0.1857
38461W        W81374  22.786  11.088  28.879  0.1494  0.2875  0.0497
38462W        W81375  31.649  17.499  22.580  0.1505  0.0724 -0.2421
38463W        W81376   0.240   1.374   0.015  0.0643 -0.3043 -0.2451
38464W        W81377  32.324  24.325   1.421  0.0435 -0.1891 -0.0604
38465W        W81378   7.276  23.322  23.209 -0.2114  0.1361 -0.0863
38466W        W81379  18.276  14.494  27.534 -0.0229 -0.1005  0.0094
38467W        W81380  31.127  15.621   3.033 -0.1181  0.1655  0.0170
38468W        W81381  25.688  17.717   2.342  0.1444  0.0841 -0.0517
38469W        W81382   2.988   9.535  18.402 -0.0018 -0.0425 -0.3663
38470W        W81383  30.924  16.251  27.111  0.0534  0.2743 -0.2789
38471W        W81384  28.492  11.594  16.929  0.0838 -0.1890  0.1781
38472W        W81385  28.314  13.380   1.556  0.5673 -0.2502 -0.0761
38473W        W81386   2.287   8.139  24.525 -0.3445 -0.5007 -0.1765
38474W        W81387  29.875  20.977  24.141 -0.4501 -0.3804 -0.3418
38475W        W81388  27.089  24.460  24.269 -0.2675 -0.0100  0.0055
38476W        W81389  25.465  17.283   2.430 -0.2180 -0.1477 -0.0119
38477W        W81390  32.918  17.136  20.260 -0.3159 -0.1424 -0.2518
38478W        W81391   4.801  10.949   2.925 -0.1421 -0.0137  0.1408
38479W        W81392   6.457  14.037  26.205 -0.1796  0.1158 -0.2876
38480W        W81393  33.986  11.271  23.725  0.0975  0.0344  0.0160
38481W        W81394  30.923  20.275  24.346 -0.1856  0.1417 -0.2192
38482W        W81395   0.378   7.282   1.646 -0.2711 -0.0045 -0.1119
38483W        W81396   0.371  19.319  19.405 -0.0027  0.1450  0.0719
38484W        W81397  31.596   9.931  16.212  0.2912  0.3962 -0.0508
38485W        W81398  28.100  16.661   9.448 -0.0891  0.0946  0.0140
38486W        W81399  34.295  14.957   7.485 -0.0535  0.0380  0.3543
38487W        W81400   1.378  31.452  19.371 -0.0620 -0.2189 -0.0115
38488W        W81401   0.759   9.994  21.831 -0.1447 -0.3340  0.0396
38489W        W81402  28.698  14.581   0.780  0.3241  0.0174 -0.0342
38490W        W81403  32.741  11.347   5.563 -0.0358  0.2214  0.0122
38491W        W81404   0.787  24.118  10.043 -0.1407 -0.0703 -0.1971
38492W        W81405  17.896  16.322   3.276  0.0557 -0.0549  0.1910
38493W        W81406  28.900  19.011  24.835  0.0187  0.0086  0.1800
38494W        W81407  27.835  15.594   0.645  0.3042 -0.0101  0.1823
38495W        W81408  29.569  16.294   5.596  0.0583  0.2065  0.1908
38496W        W81409   6.522  23.234  27.750  0.0762  0.0451  0.0992
38497W        W81410   3.292   7.280  29.205 -0.2283 -0.0433  0.1537
38498W        W81411  32.740  16.448  20.774 -0.0906  0.1891  0.2649
38499W        W81412  29.615   7.569  18.016  0.0325  0.0865  0.3642
38500W        W81413  27.568  18.030   5.663 -0.1287  0.1243  0.3662
38501W        W81414  20.571  10.558   1.125  0.0724 -0.3454  0.0712
38502W        W81415   5.818  18.932  22.257  0.0644  0.0483  0.1092
38503W        W81416  29.208  21.521  25.157  0.1082 -0.3111  0.0333
38504W        W81417   8.481  13.105  26.892  0.3963 -0.1799  0.1122
38505W        W81418  28.203  20.730  28.683 -0.1139 -0.5006 -0.1085
38506W        W81419   0.607  10.846  25.177 -0.1612 -0.0780 -0.0624
38507W        W81420  33.060  13.514  29.522 -0.1659 -0.1450  0.0744
38508W        W81421  30.813  13.792  24.848  0.3046  0.0614 -0.0738
38509W        W81422  29.052  16.691  20.791  0.1023 -0.0842 -0.0170
38510W        W81423  19.271  12.079  21.210  0.1119 -0.0266 -0.0530
38511W        W81424  34.408  15.990  28.473 -0.1751 -0.0169  0.2021
38512W        W81425  22.539  23.694  28.711 -0.2894  0.2001  0.0629
38513W        W81426  33.618  21.422   4.294  0.0445 -0.2181  0.1117
38514W        W81427   4.237   1.698  19.383 -0.1184 -0.0963  0.0960
38515W        W81428  27.013  17.044  23.837  0.0553  0.0607 -0.1008
38516W        W81429  33.249  18.635  22.522  0.0672  0.4002  0.1113
38517W        W81430  31.636  30.093  21.065 -0.1737  0.0036 -0.0458
38518W        W81431   2.506  23.094   0.586 -0.0023  0.1038  0.2267
38519W        W81432   5.046  19.255   6.200  0.1433 -0.0410 -0.2252
38520W        W81433   1.853  11.078  29.245  0.3194 -0.1575 -0.1010
38521W        W81434  23.823  20.172  24.021  0.4706 -0.5358  0.4006
38522W        W81435  22.432  23.083   0.985 -0.1450 -0.0679  0.0904
38523W        W81436  30.565  17.668  26.920 -0.0271 -0.3219  0.0965
38524W        W81437   1.201  22.070   0.253 -0.2487 -0.3561 -0.1061
38525W        W81438  30.112  24.048   0.630 -0.1837  0.1082  0.0915
38526W        W81439  21.946  26.600   2.184 -0.0563 -0.3071 -0.0195
38527W        W81440  33.616  14.122   5.060  0.0238  0.1878  0.1176
38528W        W81441  27.478  18.894  20.027 -0.0019 -0.0564  0.1286
38529W        W81442  28.673  25.625  27.102 -0.0261 -0.1984 -0.2777
38530W        W81443  23.146   8.723  22.411 -0.1929  0.1039 -0.3525
38531W        W81444   5.396  17.385   8.300 -0.2786  0.2249  0.2978
38532W        W81445  18.738  11.706  18.880 -0.0247 -0.2979  0.0101
38533W        W81446  20.233  19.996  28.908 -0.0135  0.3494  0.1431
38534W        W81447  29.163  25.069   1.566  0.0207  0.0344 -0.1258
38535W        W81448  30.743   7.085  26.233  0.0680  0.2468  0.1156
38536W        W81449  32.787  12.314   9.599 -0.0707 -0.0181  0.1606
38537W        W81450  19.735  12.559  29.620 -0.2140  0.0120 -0.1979
38538W        W81451  26.865  21.068   8.347  0.1088  0.1708  0.2783
38539W        W81452  20.042  15.656  24.568  0.0932 -0.1643 -0.1731
38540W        W81453  14.405  20.284  26.007 -0.2367  0.1550 -0.3203
38541W        W81454  30.883  17.598   8.879 -0.2397 -0.0995  0.1240
38542W        W81455  19.813  11.803   7.711 -0.2098 -0.2368  0.0041
38543W        W81456  26.962  10.774   9.237  0.1954 -0.0714 -0.1619
38544W        W81457  33.043  12.613   7.708  0.0099 -0.2725  0.0374
38545W        W81458  32.058  19.656   5.936 -0.1502 -0.1786 -0.1665
38546W        W81459  30.517  23.222   4.002 -0.2105  0.0239 -0.1946
38547W        W81460  32.414  18.375  21.988  0.2254  0.3975  0.1385
38548W        W81461   3.593  19.702   5.768 -0.0337 -0.0592 -0.0034
38549W        W81462  24.792  12.553  27.436  0.2063  0.1442  0.3009
38550W        W81463  22.781  13.267  18.870 -0.1380 -0.0860  0.3719
38551W        W81464  25.057  15.295  29.349  0.0681  0.2109  0.2269
38552W        W81465  23.753  18.954   8.648  0.3014 -0.0380  0.2339
38553W        W81466  27.164  22.098   6.125  0.2276  0.0320 -0.3699
38554W        W81467   4.492   8.487   3.836  0.1376 -0.1664 -0.0534
38555W        W81468  17.672   1.795   0.430 -0.0268 -0.2138 -0.0659
38556W        W81469  26.595  15.476  23.141  0.2128  0.2549  0.0210
38557W        W81470  32.279  10.401   3.430  0.0438  0.0022  0.0794
38558W        W81471  32.572  21.999   1.207 -0.2190 -0.2104 -0.0206
38559W        W81472  18.550  14.918  27.365  0.0512 -0.2236  0.0438
38560W        W81473  26.471  22.668  22.402  0.2106 -0.0032  0.0269
38561W        W81474  13.567   8.506  25.559  0.0478  0.0693  0.0653
38562W        W81475   1.919  19.841   8.295  0.1928  0.0842  0.2548
38563W        W81476  27.392  23.377   4.735  0.0199 -0.2530  0.1268
38564W        W81477  25.620   6.752  25.479 -0.2672  0.1438 -0.1863
38565W        W81478  30.165  12.560  25.242  0.1721 -0.1502  0.2115
38566W        W81479  28.421  20.412   1.982  0.1024 -0.2980  0.0869
38567W        W81480  30.848  14.030   2.573  0.3352  0.0648 -0.4437
38568W        W81481  26.593  18.458   7.200 -0.0789 -0.0791 -0.1878
38569W        W81482   6.329  18.292  22.182 -0.1308  0.0475 -0.0895
38570W        W81483  32.498  13.973   8.286  0.0014  0.0678  0.1374
38571W        W81484  34.279  18.367   5.804  0.2302 -0.3816  0.1756
38572W        W81485  30.799   3.219  25.481 -0.0589  0.0656  0.0423
38573W        W81486  26.762  20.363   6.108 -0.1589  0.2918  0.2786
38574W        W81487  21.473  15.999  26.382  0.4181  0.0159  0.0951
38575W        W81488  32.738   8.291  29.767 -0.3483 -0.0259 -0.2220
38576W        W81489  18.747  11.457  23.300 -0.1201 -0.3291 -0.0260
38577W        W81490  25.917  20.044  18.493 -0.1261  0.0378 -0.1362
38578W        W81491   9.063  12.156  25.407 -0.2528 -0.2380 -0.5578
38579W        W81492  31.323  16.217  25.112 -0.0751 -0.3642 -0.1382
38580W        W81493  31.457  15.653  28.062  0.0187 -0.1782 -0.2904
38581W        W81494  19.168  17.094  29.208  0.2348 -0.1939 -0.0147
38582W        W81495  22.693  20.190  27.043 -0.5397  0.2804  0.1470
38583W        W81496  16.566  11.745  28.924 -0.2704  0.2386 -0.0238
38584W        W81497   5.481  13.755   3.686 -0.0789 -0.0682 -0.1703
38585W        W81498  26.154  20.302   6.116 -0.0274 -0.4840  0.4580
38586W        W81499   0.664  17.664  24.698  0.0139 -0.2897 -0.0793
38587W        W81500  19.797  15.913   2.880  0.2615 -0.0190  0.3005
38588W        W81501  26.021  16.866   3.665  0.0899 -0.0031  0.0865
38589W        W81502  24.203  30.333  27.461  0.2469 -0.0219  0.2995
38590W        W81503   9.891  15.965  28.544 -0.1155 -0.0707 -0.1388
38591W        W81504  20.361   2.234  29.439  0.1438 -0.0655  0.1089
38592W        W81505  25.499  17.250  24.187  0.3502  0.1125 -0.0609
38593W        W81506  33.374  16.792  16.026  0.1826 -0.1756 -0.0494
38594W        W81507   3.178  14.342  20.201  0.0876 -0.0425  0.0735
38595W        W81508  23.252  15.070  16.920  0.1697  0.2588 -0.0817
38596W        W81509  20.374  19.860  19.960  0.3241  0.0202 -0.1051
38597W        W81510  31.483  17.442  16.661 -0.2827  0.1893 -0.1164
38598W        W81511  29.551  20.948  14.026 -0.1910 -0.0652 -0.3077
38599W        W81512  31.498  20.623  21.838  0.0588 -0.4013 -0.2839
38600W        W81513  26.453  18.146  20.921  0.0269 -0.3418 -0.3599
38601W        W81514  21.121  24.325  17.459 -0.0468  0.0138 -0.3182
38602W        W81515  30.065  21.991  21.202  0.1451 -0.0866  0.1408
38603W        W81516  25.456  22.263  14.623 -0.0565  0.2879  0.2180
38604W        W81517  31.546  17.389  24.592 -0.0253 -0.1770  0.1152
38605W        W81518  27.063  24.722  26.793  0.3344  0.4278 -0.0181
38606W        W81519  31.104  11.966  24.297 -0.0741 -0.1494 -0.1683
38607W        W81520  22.217  12.566  14.607  0.2030  0.1856  0.1412
38608W        W81521  26.433  21.240  23.088  0.0913 -0.2861 -0.2516
38609W        W81522  31.705  17.791  21.081 -0.1869  0.0919  0.0577
38610W        W81523  29.676  22.408  13.213 -0.0532  0.4095 -0.1074
38611W        W81524  30.737   7.138  18.766  0.0459  0.1965  0.1100
38612W        W81525  25.528  15.929  19.224 -0.0274 -0.0444  0.1433
38613W        W81526  29.829  30.696   0.518 -0.3069 -0.2725 -0.0352
38614W        W81527  32.460  20.553  14.512 -0.0483  0.1805  0.0804
38615W        W81528  23.410  12.792  18.203  0.0228 -0.1248  0.1268
38616W        W81529   6.942  12.377  15.692  0.0143  0.0717  0.0338
38617W        W81530  33.886  12.826   1.481 -0.1661 -0.6674  0.0630
38618W        W81531  30.406  18.543  16.064 -0.0883 -0.1971  0.1398
38619W        W81532   0.012  29.201  19.644 -0.3688  0.2074  0.1995
38620W        W81533   6.698  10.961  20.814  0.1885 -0.0108  0.0369
38621W        W81534  28.898  21.300  24.421 -0.0061  0.1600  0.1351
38622W        W81535  25.409  17.142  14.285  0.0400 -0.1702 -0.1845
38623W        W81536  29.912  22.059  17.140  0.0115  0.3050 -0.2791
38624W        W81537   6.706  30.144  15.588 -0.0295 -0.2843 -0.1892
38625W        W81538   1.658  17.627  15.732 -0.0613 -0.0473  0.1067
38626W        W81539  31.033   2.535  19.324  0.0790 -0.3877  0.3031
38627W        W81540  33.185   6.447  19.829 -0.0017 -0.0042 -0.2800
38628W        W81541  30.706  22.318  17.705 -0.1714  0.2691  0.0003
38629W        W81542  29.803  16.802  15.385 -0.2248  0.0620  0.2013
38630W        W81543  23.971  12.792  22.703  0.1988 -0.0710 -0.1289
38631W        W81544  31.933  12.443  14.639  0.0819 -0.0511  0.0760
38632W        W81545  28.970  29.740  19.657  0.0960 -0.1628  0.1226
38633W        W81546  27.342  24.662  16.973  0.0773 -0.1730 -0.3605
38634W        W81547   5.160  18.329  28.533  0.0222  0.2305 -0.1371
38635W        W81548  25.338   0.110  22.340  0.1936  0.1691 -0.1026
38636W        W81549  25.886  25.255  21.318  0.0978  0.0458 -0.1253
38637W        W81550  29.141  24.926  23.567 -0.0105  0.1854 -0.0609
38638W        W81551  31.021  13.843  18.324 -0.2405 -0.0757  0.1002
38639W        W81552  20.404  25.839  15.075 -0.0801  0.3014  0.2765
38640W        W81553  30.243  19.119  16.166  0.0268 -0.1174  0.4098
38641W        W81554  26.017  22.810  16.740  0.2150 -0.0622 -0.2020
38642W        W81555  33.748  30.366  14.425  0.0016 -0.1369 -0.0114
38643W        W81556  28.157  20.639  27.658 -0.1634  0.1140  0.2976
38644W        W81557  34.340  14.673  18.737 -0.3246 -0.0385  0.1148
38645W        W81558  34.244  18.221  16.172 -0.2411 -0.0457  0.0024
38646W        W81559   6.739  23.259  15.238 -0.0467  0.1638  0.1640
38647W        W81560   2.782  29.162  18.078  0.0448  0.0313 -0.1863
38648W        W81561   3.664  27.397  16.005 -0.2103 -0.2202 -0.1337
38649W        W81562  30.162  17.641  14.754  0.1087  0.1297  0.2278
38650W        W81563  30.571  22.575  21.616  0.3014 -0.0155  0.0060
38651W        W81564  24.717  24.371  18.214  0.0301 -0.0117 -0.0319
38652W        W81565   2.603  19.333  13.621  0.0942 -0.0668  0.2253
38653W        W81566  32.159   8.409  17.021 -0.1396 -0.0270  0.0727
38654W        W81567  24.681  26.034  27.163  0.0547  0.1755 -0.1317
38655W        W81568   0.278  15.534  18.743  0.1593  0.2212  0.1180
38656W        W81569  30.235  23.530  14.870 -0.2054  0.3566  0.0114
38657W        W81570  31.580  27.658  20.145  0.1065  0.1675 -0.2217
38658W        W81571  25.217  17.261  15.301 -0.2973 -0.0921 -0.3980
38659W        W81572  26.955  20.178  15.735 -0.0197  0.1706 -0.0523
38660W        W81573   1.101  27.265  16.109 -0.3724 -0.1616 -0.2738
38661W        W81574  30.472  26.365  19.403  0.0779 -0.1943  0.0197
38662W        W81575   2.199  11.594  24.871  0.0106  0.2110  0.0763
38663W        W81576  31.654  23.304  21.774  0.0125  0.0088  0.0532
38664W        W81577  19.584  13.644  17.517 -0.2410 -0.0671 -0.1280
38665W        W81578  31.215   4.077  24.881  0.0224 -0.0967 -0.1841
38666W        W81579   0.016  19.321  17.151 -0.1604  0.1368 -0.0555
38667W        W81580  34.112   7.542  18.701 -0.0396 -0.1754 -0.2228
38668W        W81581  19.391  22.785  20.286  0.2137  0.0884  0.4451
38669W        W81582  22.614  24.267  16.549  0.1956  0.0626  0.0565
38670W        W81583  26.957  26.502  21.117 -0.0986  0.1181  0.1543
38671W        W81584  26.950  18.467  17.253  0.1684  0.2834 -0.2461
38672W        W81585   2.132  15.422  15.498  0.1135 -0.0039 -0.1058
38673W        W81586  25.905  19.976  22.936  0.2661  0.2044 -0.1115
38674W        W81587   1.236  24.368  18.377 -0.3658 -0.1357 -0.0320
38675W        W81588  29.918  15.950  24.279  0.1033  0.1151 -0.2591
38676W        W81589  21.768  20.030  19.565 -0.0884  0.3097  0.1956
38677W        W81590  16.579   3.296  20.622 -0.1006  0.0262 -0.0195
38678W        W81591  28.123  20.184  15.613  0.4357  0.1287 -0.1413
38679W        W81592  32.798  24.325  17.245  0.0437 -0.2185 -0.0332
38680W        W81593  24.253  29.924  17.421  0.2585 -0.1749 -0.1628
38681W        W81594   0.039  17.703  14.646 -0.1018  0.1841 -0.0525
38682W        W81595  33.227  22.750  14.405  0.1002 -0.2222  0.1330
38683W        W81596  26.970  26.024  18.330  0.1364  0.0140  0.2928
38684W        W81597  22.522  11.121  15.664 -0.0288  0.2701 -0.1344
38685W        W81598   2.495  20.684  16.515  0.1023  0.2942  0.1088
38686W        W81599  29.000  18.730  23.202 -0.3018 -0.0837  0.0866
38687W        W81600  30.391  33.041  22.384 -0.0307 -0.2435  0.2407
38688W        W81601  28.133  12.581  19.061 -0.2212 -0.1208  0.2877
38689W        W81602   7.184   9.986  19.781 -0.1210  0.0774 -0.0183
38690W        W81603  25.603  14.542  13.319  0.0974  0.3334  0.2966
38691W        W81604  22.997  12.734  13.430  0.2429 -0.0114 -0.3953
38692W        W81605  27.228  17.812  21.380 -0.0534 -0.0101 -0.1568
38693W        W81606   4.382  14.817  16.180 -0.3010  0.2304  0.3604
38694W        W81607   3.039  22.292  21.883 -0.2169 -0.3415  0.1610
38695W        W81608   3.883  22.591  14.653  0.3733 -0.1519 -0.0608
38696W        W81609  21.239  24.217  15.124  0.2533 -0.2267  0.0753
38697W        W81610  24.747  17.009  23.167  0.4138  0.1868 -0.0189
38698W        W81611  23.578  25.602  18.647  0.0014 -0.0445  0.1137
38699W        W81612  31.165  24.603  14.458  0.0336  0.0756 -0.0905
38700W        W81613   3.409  14.734  26.048  0.1295  0.0470  0.1806
38701W        W81614  30.869  24.834  22.801  0.1227  0.2960 -0.2537
38702W        W81615  32.641  13.789  14.450  0.0283 -0.0806  0.4159
38703W        W81616   0.146  13.828  16.225  0.0314 -0.0108 -0.0617
38704W        W81617   4.075  22.837  23.275  0.0962  0.0108 -0.0423
38705W        W81618  33.931  18.471  20.017 -0.0669  0.1248  0.2761
38706W        W81619   5.846  20.125  24.404 -0.0399  0.3973 -0.1367
38707W        W81620   3.481   9.939  17.898 -0.0760  0.2133  0.2179
38708W        W81621   5.769  23.370  19.243  0.3046  0.1338  0.5605
38709W        W81622  28.665  22.260  12.387 -0.0143 -0.1793  0.1060
38710W        W81623   5.210  29.228  18.651 -0.0681  0.3210  0.0725
38711W        W81624  28.728  16.902  14.995  0.2530 -0.1383  0.0932
38712W        W81625  23.293  24.110  16.245 -0.0232 -0.1631 -0.3878
38713W        W81626   0.106  21.706  26.699  0.0126  0.1855 -0.0547
38714W        W81627   4.293   9.179  16.788  0.0863 -0.3693 -0.1798
38715W        W81628   1.373  23.381  17.973 -0.0841 -0.2536  0.2624
38716W        W81629  20.484  23.843  13.634  0.3469  0.0128 -0.2214
38717W        W81630  30.640  13.476  16.273 -0.1639 -0.0551  0.1137
38718W        W81631  33.544  26.902  28.959  0.0853 -0.0225  0.3637
38719W        W81632   3.038  27.349  23.651 -0.3172  0.0157  0.3113
38720W        W81633   1.324  16.903  16.720 -0.1970 -0.4528  0.4077
38721W        W81634   4.731  26.162  17.646  0.1155 -0.2455  0.3240
38722W        W81635  28.281  24.432  20.369  0.2688  0.2116 -0.2172
38723W        W81636  28.952  23.240  19.673  0.3933  0.0906 -0.1887
38724W        W81637   0.077  15.920  26.137  0.1785 -0.0909 -0.1285
38725W        W81638   0.728  16.299  14.618 -0.1918  0.0964  0.0330
38726W        W81639  32.327  17.404  17.052 -0.2825 -0.1341 -0.2754
38727W        W81640  11.176  16.817  18.113  0.1336 -0.0040  0.0597
38728W        W81641  34.283  18.296  15.396 -0.0368  0.2065  0.0159
38729W        W81642  26.498  19.244  15.932 -0.0122  0.1513 -0.0892
38730W        W81643  32.712  20.832  20.569  0.0839 -0.1752 -0.1138
38731W        W81644  33.319  11.020  25.886  0.0631 -0.1046 -0.0215
38732W        W81645  29.786   7.354  17.588  0.2419  0.1003 -0.0827
38733W        W81646  29.403  14.052  16.440 -0.1577 -0.2016 -0.2654
38734W        W81647   1.760  17.172  16.865 -0.1744 -0.3059 -0.0355
38735W        W81648   4.648  23.223  22.979 -0.1682  0.3952 -0.0320
38736W        W81649   1.677  15.632  15.674 -0.2570 -0.1440 -0.0444
38737W        W81650  31.718  11.379  28.106  0.0998  0.1607 -0.1439
38738W        W81651   7.896  17.476  14.432  0.0443 -0.0313 -0.1240
38739W        W81652  29.649  19.014  19.868 -0.0800 -0.0773 -0.4221
38740W        W81653  29.933  26.861  14.507 -0.0288 -0.0174  0.2899
38741W        W81654  25.794  27.186  14.006  0.0419 -0.1655  0.0321
38742W        W81655  30.164  11.764  14.595 -0.1104 -0.2048 -0.0294
38743W        W81656  30.769  26.521  13.230 -0.3545 -0.1705 -0.0319
38744W        W81657  26.498  23.603  15.164  0.1409  0.2966  0.2006
38745W        W81658  32.080  26.564  18.361  0.4537  0.1725  0.0316
38746W        W81659  30.389  17.990  21.197  0.0547 -0.1137 -0.0721
38747W        W81660  29.307  15.174  17.930 -0.0119 -0.0562 -0.0778
38748W        W81661  32.038  17.686  16.671 -0.0158  0.1604  0.1537
38749W        W81662  32.389  32.798  18.981 -0.1568  0.0023  0.0124
38750W        W81663  32.507  26.719  25.133 -0.3871 -0.0380 -0.3001
38751W        W81664  27.054  14.564  22.222  0.0111 -0.2391  0.1674
38752W        W81665  31.754  14.247  13.480  0.0986  0.0286  0.1348
38753W        W81666  26.484  33.234  16.929  0.2107 -0.2197  0.1400
38754W        W81667  33.658  14.557  17.719  0.1266  0.1015  0.2149
38755W        W81668  29.925  24.868  18.561  0.0605 -0.1362  0.1377
38756W        W81669  32.846  17.517  18.397 -0.0186  0.3034  0.1195
38757W        W81670  19.139  24.892  16.144  0.0475  0.3133  0.3377
38758W        W81671  32.700  25.211  15.985  0.2675 -0.2125 -0.4047
38759W        W81672   1.356  26.274  20.983 -0.1139  0.3859 -0.1423
38760W        W81673  25.469  19.010  16.767 -0.0045 -0.0045  0.2272
38761W        W81674  27.883  25.525  22.953  0.0576 -0.2962 -0.1619
38762W        W81675   0.064  10.152  18.627  0.3185 -0.1538  0.2138
38763W        W81676  28.809  22.692  14.661  0.3918 -0.1510  0.3179
38764W        W81677  18.568   8.944  18.969 -0.0189 -0.1544 -0.0179
38765W        W81678  28.879  15.015  18.458 -0.1586 -0.0095  0.1464
38766W        W81679  33.173  16.259  22.871 -0.1538  0.3117  0.1200
38767W        W81680   4.387  17.510  16.245 -0.0771  0.0337 -0.1116
38768W        W81681  32.617  25.513  20.028  0.0731  0.1279  0.1073
38769W        W81682  28.803  18.331  17.915  0.0128 -0.0110  0.1054
38770W        W81683  26.244  23.115  25.980  0.2894  0.0948  0.1799
38771W        W81684   4.702  16.541  15.507  0.0673  0.3826 -0.2130
38772W        W81685   1.010  17.357  23.924 -0.0125  0.1812 -0.3267
38773W        W81686  29.467  14.753  14.624  0.0710  0.1342 -0.0036
38774W        W81687  18.813  21.025  14.557  0.0296 -0.2562  0.2242
38775W        W81688  24.879  20.495  23.033 -0.4826 -0.1947  0.3082
38776W        W81689  25.022  16.221  26.391  0.0346 -0.2014  0.0996
38777W        W81690   0.695  20.284  18.182  0.2431 -0.1152 -0.1301
38778W        W81691  29.695  10.654  18.252  0.0722  0.1397 -0.0936
38779W        W81692   5.001  18.563  15.714 -0.0541 -0.1749 -0.0981
38780W        W81693  31.607  11.234  15.674  0.0745  0.3431 -0.0739
38781W        W81694  33.392  24.152  15.570 -0.0976  0.0613 -0.2240
38782W        W81695   2.362  18.588  21.358  0.0360  0.2132 -0.1779
38783W        W81696  22.753  28.955  20.410 -0.0424  0.2367 -0.1428
38784W        W81697  25.622  30.219  15.143 -0.3497  0.0371  0.0507
38785W        W81698   7.388  23.589  17.371 -0.0680  0.0368  0.0510
38786W        W81699   1.946  10.255  20.431  0.0777 -0.0606  0.1523
38787W        W81700  32.342  16.455  22.200 -0.2175 -0.2767  0.0524
38788W        W81701  28.701  23.288  17.083  0.6093 -0.0459 -0.2618
38789W        W81702   1.189  30.061  21.000 -0.2088  0.0635 -0.1963
38790W        W81703  28.273  20.145  13.298  0.2347  0.5636  0.0327
38791W        W81704  27.955  34.290  22.982  0.0115 -0.0584 -0.0070
38792W        W81705  22.150  28.152  16.877 -0.1462  0.0045  0.2087
38793W        W81706  33.010  21.829  15.584  0.1268  0.4360 -0.2458
38794W        W81707   0.256  19.350  25.299 -0.3839  0.2864  0.0991
38795W        W81708  34.433  28.359  25.505 -0.1204 -0.1041 -0.0316
38796W        W81709  25.550  27.926  18.499 -0.0602  0.0041 -0.1589
38797W        W81710  16.315  15.481  12.909 -0.0974  0.2772 -0.0232
38798W        W81711  29.563  28.831  13.849  0.2461  0.0588  0.0893
38799W        W81712   8.515  15.494  19.226 -0.1716  0.0414 -0.0095
38800W        W81713   3.598  17.684  19.849  0.0250  0.2185 -0.0349
38801W        W81714  29.444  21.857  14.336 -0.0820 -0.0103  0.4506
38802W        W81715  29.046  17.760  21.518  0.2632 -0.1071  0.0753
38803W        W81716   5.887  26.161  15.200 -0.1083 -0.0058 -0.2703
38804W        W81717  32.365  22.081  16.577  0.0713  0.0230  0.4046
38805W        W81718   0.075  21.553  16.042 -0.1355  0.2543  0.2641
38806W        W81719  28.525  22.191  14.546  0.0457 -0.1514  0.0751
38807W        W81720  28.039  12.628  15.016  0.2538  0.4927  0.1889
38808W        W81721   0.672  15.959  16.155 -0.2548 -0.1694  0.0445
38809W        W81722  29.911  18.792   0.618  0.1348 -0.2749 -0.0423
38810W        W81723  26.585  21.804  15.521 -0.1407 -0.2376  0.2455
38811W        W81724   1.870  21.133  15.888  0.1066  0.1662 -0.2294
38812W        W81725  31.218  16.415  28.641  0.1544 -0.0323  0.1524
38813W        W81726  13.272  13.961  13.951  0.0922  0.1460 -0.1875
38814W        W81727   2.552  29.021  15.939 -0.0665  0.2762  0.0922
38815W        W81728  26.158  10.690  15.819  0.3544 -0.0255 -0.3448
38816W        W81729   0.188  17.226  17.053  0.1188 -0.0841  0.0982
38817W        W81730  31.580   8.852  25.346 -0.1861  0.0075 -0.0998
38818W        W81731  29.490  17.213  13.575 -0.1686 -0.1510 -0.3001
38819W        W81732  28.609  20.903  15.930  0.2165  0.3807 -0.2241
38820W        W81733  10.052  14.208  22.831 -0.3027 -0.3374 -0.1190
38821W        W81734   2.918  28.649  18.085  0.2486 -0.0397  0.0915
38822W        W81735  30.485  21.523  13.696 -0.0171  0.1645 -0.0632
38823W        W81736  31.584  28.743  22.369  0.2293 -0.0233 -0.2605
38824W        W81737   6.067  24.246  16.694  0.0691 -0.1991  0.2558
38825W        W81738   8.258  17.738  15.263  0.2898  0.0960  0.2279
38826W        W81739   0.754   9.524  23.019 -0.0793  0.1557 -0.0880
38827W        W81740  29.222  19.357  15.415 -0.1132 -0.0445  0.1297
38828W        W81741  26.334  25.651  21.271 -0.3928 -0.1423 -0.2755
38829W        W81742  31.182  29.654  20.139  0.0533  0.2173  0.2446
38830W        W81743  22.717  28.084  22.498  0.0739  0.1889  0.0847
38831W        W81744  29.418  20.567  13.591 -0.0520 -0.2350  0.0306
38832W        W81745   2.846  28.251  24.206 -0.3307  0.0715  0.0995
38833W        W81746  26.638  20.341  16.851  0.1242  0.0143  0.3924
38834W        W81747  24.873  25.754  17.363  0.1711 -0.1453 -0.1458
38835W        W81748   7.451  18.995  14.748  0.0091  0.0755 -0.1183
38836W        W81749  22.468   9.492  27.056  0.1486 -0.1994  0.3711
38837W        W81750  30.023  28.399  14.520 -0.0608  0.0475  0.0507
38838W        W81751  32.043  28.671  22.079  0.0938 -0.2410  0.1363
38839W        W81752  22.164  14.988  21.314  0.0688 -0.1788  0.0711
38840W        W81753  32.749  16.707  22.116 -0.1507  0.0784 -0.2140
38841W        W81754   1.960  22.965  22.282 -0.0137  0.1855  0.1265
38842W        W81755  32.317  19.749  17.237  0.0648  0.0482 -0.1856
38843W        W81756  32.737  22.574  17.251 -0.1114 -0.3536 -0.0293
38844W        W81757  30.493  10.337  15.372  0.2991  0.1667 -0.0247
38845W        W81758  34.016  26.957  16.278 -0.0032 -0.2488  0.2721
38846W        W81759   3.009  15.136  15.377 -0.1082  0.0139  0.1668
38847W        W81760  26.647  19.743  22.155 -0.2145  0.0533 -0.0158
38848W        W81761   5.105  26.850  18.037 -0.3261 -0.1911  0.4447
38849W        W81762  31.749  22.012  15.984  0.0228 -0.0513  0.1018
38850W        W81763  27.796  23.940  13.787 -0.0565  0.4592  0.0364
38851W        W81764  24.857  34.183  23.397 -0.2308  0.1823  0.1160
38852W        W81765  31.805  18.449  18.780 -0.0614 -0.1391  0.1054
38853W        W81766   1.775  32.842  17.314 -0.3132 -0.0599 -0.3077
38854W        W81767  28.922  26.219  16.071 -0.1035 -0.0582  0.0066
38855W        W81768  31.924  22.210  14.364  0.2470  0.1062  0.0998
38856W        W81769  33.003  11.048  16.878 -0.1584  0.3216 -0.0056
38857W        W81770   1.797  17.917  21.355 -0.0248  0.1089 -0.0208
38858W        W81771  27.207  17.883  20.380  0.0573  0.1812  0.0547
38859W        W81772  26.320  12.650  21.145  0.2296 -0.1355  0.2061
38860W        W81773  25.560  11.436  18.131  0.1207 -0.1934  0.0191
38861W        W81774  20.723  20.039  14.492  0.1017 -0.0328  0.1217
38862W        W81775  25.910  25.210  15.391 -0.0795 -0.0263 -0.1544
38863W        W81776  25.492  19.367  15.853 -0.3717  0.0878 -0.0411
38864W        W81777   3.558  15.137  14.792 -0.1217 -0.0742 -0.0295
38865W        W81778  32.561  23.704  16.577  0.1360 -0.0008 -0.0163
38866W        W81779  18.779  26.067  15.266  0.0521 -0.0723  0.2612
38867W        W81780  24.753  21.253  15.119 -0.2082  0.3732  0.2189
38868W        W81781   3.420  10.472  18.005 -0.2184 -0.3569  0.1479
38869W        W81782  24.454  27.354  22.243  0.0171  0.1022  0.0106
38870W        W81783  25.179  23.178  12.837  0.0769 -0.0402  0.1363
38871W        W81784  25.032  30.107  22.783  0.0142 -0.0215 -0.0957
38872W        W81785  28.694  27.427  13.828  0.5119 -0.0594 -0.1310
38873W        W81786  28.897  23.410  22.237  0.0163 -0.0842  0.3467
38874W        W81787  28.804  15.163  16.522 -0.2941 -0.3145  0.0391
38875W        W81788   0.411  31.251  18.523 -0.0355 -0.0143 -0.1581
38876W        W81789  27.053  29.939  20.702  0.1326 -0.2672 -0.1564
38877W        W81790  27.667  17.900  20.118 -0.0091  0.2935  0.2132
38878W        W81791   5.227  30.753  20.245 -0.1572  0.0651  0.1788
38879W        W81792   1.618  15.543  17.739 -0.2719  0.0696  0.0979
38880W        W81793   1.481  11.699  20.358  0.1197  0.0282 -0.3641
38881W        W81794  22.953  22.770  12.623 -0.0368 -0.3542  0.2329
38882W        W81795   8.710  30.265  18.290  0.1297 -0.3092 -0.0501
38883W        W81796   3.325  24.904  17.639 -0.4516  0.0562 -0.2937
38884W        W81797  21.114  21.340  14.429  0.3807 -0.3424  0.2119
38885W        W81798   3.288  21.192   2.007  0.0300  0.0005  0.0720
38886W        W81799   3.702  10.612  18.398 -0.0351  0.1736  0.1177
38887W        W81800  24.041  23.401  23.958 -0.1431 -0.1232 -0.1796
38888W        W81801   5.890  30.641  16.248  0.2603 -0.1492  0.0468
38889W        W81802  28.429  24.106  23.317  0.2080  0.0133  0.1019
38890W        W81803  34.189  22.590  14.117  0.2243 -0.2341  0.1914
38891W        W81804  26.615  16.184  17.201 -0.1052  0.0793  0.4544
38892W        W81805  11.965  14.763  24.908 -0.0722  0.0400  0.1522
38893W        W81806   2.308  15.225  17.146  0.1377  0.2333  0.0941
38894W        W81807  24.639  15.708  15.427 -0.3548  0.1334 -0.0411
38895W        W81808  29.164  22.627  21.328  0.1132 -0.4556 -0.2220
38896W        W81809   3.340  17.245  24.468 -0.0654 -0.2127 -0.0048
38897W        W81810  27.280  26.300  17.871 -0.1715  0.1709  0.1742
38898W        W81811  25.721  15.403  14.207 -0.0011  0.1785  0.0767
38899W        W81812  33.173  28.022  20.956  0.3643 -0.3035  0.1583
38900W        W81813  21.715  15.023  13.531 -0.1635 -0.1871  0.1699
38901W        W81814  30.383  22.462  20.413  0.1076  0.0297 -0.2540
38902W        W81815  30.717  28.965  19.862  0.0862 -0.1314  0.3789
38903W        W81816   7.376  21.214  18.448 -0.2633 -0.0486  0.1996
38904W        W81817   2.575  17.690  17.775  0.1443  0.0963 -0.0903
38905W        W81818   2.614  26.243  18.736  0.0132 -0.0430  0.0150
38906W        W81819   3.359  32.207  18.932  0.1116  0.1280  0.0901
38907W        W81820  22.569  23.745  18.363  0.1815  0.2652  0.0516
38908W        W81821  33.392  24.645  17.310 -0.2684  0.0334  0.0761
38909W        W81822   1.045  19.908  18.311 -0.0743 -0.0688 -0.0410
38910W        W81823   1.288  11.838  17.369  0.1486 -0.1438  0.3005
38911W        W81824  15.250  13.780  16.322  0.2004 -0.1346 -0.0381
38912W        W81825   6.213  23.333  19.551 -0.0066 -0.0374 -0.1222
38913W        W81826  30.877  23.229  14.730  0.1317 -0.0582  0.0062
38914W        W81827   0.546  21.150  15.314 -0.2760 -0.3554 -0.0788
38915W        W81828  28.011  21.575  13.628 -0.3720 -0.0445  0.2502
38916W        W81829  29.326  21.125  26.547 -0.1250 -0.0969  0.3374
38917W        W81830  29.631  31.301  17.832  0.0982 -0.2428 -0.1710
38918W        W81831  29.754  29.627   4.245 -0.1468 -0.2843  0.1100
38919W        W81832  33.616  27.120  14.467 -0.3848 -0.1621 -0.0023
38920W        W81833  23.337  14.224  16.885 -0.2914 -0.1707 -0.0759
38921W        W81834   1.206  22.318  23.920 -0.1417  0.1509  0.3333
38922W        W81835  16.624  20.875  18.783  0.0949  0.1389 -0.3028
38923W        W81836  32.762  22.328  20.372  0.1572 -0.2418 -0.1727
38924W        W81837  29.053  19.272  13.890 -0.0716  0.0212  0.1373
38925W        W81838  25.016  31.374  22.903 -0.3787 -0.1804 -0.1838
38926W        W81839  26.495  26.845  17.623  0.0166  0.0333 -0.0164
38927W        W81840  29.884  17.833  24.335 -0.0324  0.0622  0.0477
38928W        W81841   0.268  30.267  22.660  0.1291  0.0762 -0.1038
38929W        W81842   0.896  28.127  19.650  0.0186  0.0597  0.0893
38930W        W81843   4.673  31.874  17.421  0.0541 -0.0029 -0.1567
38931W        W81844  29.110  12.511  13.708  0.0251 -0.1820  0.0875
38932W        W81845  32.902  18.797  19.830  0.0458 -0.3403  0.3395
38933W        W81846  26.697   9.298  23.896  0.5506  0.0345  0.1586
38934W        W81847  30.530  19.254  19.823 -0.3599  0.0996  0.2493
38935W        W81848   0.701  14.732  19.806  0.0905 -0.4697  0.2211
38936W        W81849  31.282   9.440  17.479  0.1251 -0.0279 -0.1635
38937W        W81850  21.862  11.634  13.384  0.1022 -0.1104 -0.2219
38938W        W81851  22.671   1.268  15.792  0.1529 -0.0568  0.1261
38939W        W81852  30.467  20.452  13.058  0.0276  0.1517 -0.2067
38940W        W81853   3.293  15.285  26.908 -0.1693  0.0080 -0.0075
38941W        W81854   8.667  14.660  16.738 -0.2745 -0.1180 -0.2124
38942W        W81855  30.052  26.449  17.866 -0.1011  0.2089  0.1671
38943W        W81856  24.804  24.290  12.017 -0.0627 -0.2269 -0.2810
38944W        W81857  23.285  24.848  22.760 -0.2950 -0.4556 -0.0111
38945W        W81858   1.152  19.705  16.864  0.0691 -0.0199  0.0810
38946W        W81859  28.946  18.666  14.975 -0.0446  0.0523 -0.0274
38947W        W81860  28.976  31.917  20.935 -0.5705 -0.1202  0.0321
38948W        W81861  31.321  26.811  19.792  0.1902  0.3285 -0.3163
38949W        W81862   0.477  20.845  14.429  0.1643  0.0853 -0.1538
38950W        W81863  33.267  18.334  15.010  0.3885 -0.3090  0.0259
38951W        W81864  28.675  25.565  15.627  0.0819 -0.0562  0.1569
38952W        W81865  34.215  16.272  20.373 -0.0865  0.0154  0.1543
38953W        W81866  26.956  16.811  20.823 -0.1506  0.2286 -0.2983
38954W        W81867  24.435  28.170  21.510 -0.1178 -0.3900 -0.1632
38955W        W81868   0.063  15.220  17.042 -0.0591  0.3595  0.0675
38956W        W81869  33.544  15.317  15.652 -0.3001 -0.1914  0.1400
38957W        W81870  32.822  22.318  15.271 -0.0308 -0.0126  0.1309
38958W        W81871  32.430  20.536  17.147  0.1451  0.0410 -0.4545
38959W        W81872   0.781  18.314  18.244 -0.0322 -0.0774  0.2717
38960W        W81873  31.160  16.592  16.711  0.0090  0.1713 -0.1779
38961W        W81874  27.817  16.287  21.942  0.0229  0.1346 -0.0768
38962W        W81875   8.217  24.677   7.899 -0.1313 -0.2420 -0.0605
38963W        W81876   3.614  22.479  16.413 -0.5269 -0.0504  0.1370
38964W        W81877  22.136  15.817  24.594  0.0837  0.1340 -0.0337
38965W        W81878  27.226  33.872  18.951  0.2782 -0.1354  0.0195
38966W        W81879  27.683  14.740  17.589  0.0322 -0.1106  0.1040
38967W        W81880  26.334  27.671  15.651  0.2899 -0.1223 -0.4127
38968W        W81881  34.151  15.818  20.634  0.1901 -0.1059  0.1934
38969W        W81882   4.691  20.568  14.496  0.0842 -0.3662  0.0485
38970W        W81883  21.037  24.528  21.597  0.2750 -0.2249  0.2727
38971W        W81884  26.408   1.522  17.374  0.0040 -0.0237  0.2401
38972W        W81885  26.205  19.704  14.600  0.1814  0.2424 -0.1173
38973W        W81886  29.498  15.110  17.461  0.2840  0.0372 -0.0286
38974W        W81887  30.584  17.964  22.992 -0.1329  0.1214  0.1595
38975W        W81888   7.476  22.368  23.283 -0.1039  0.0760  0.1508
38976W        W81889  28.964  23.323   1.660  0.3957 -0.1700  0.1279
38977W        W81890  22.004  15.251  16.305  0.2740 -0.2201 -0.1131
38978W        W81891  29.920  28.832  20.365 -0.1377 -0.3488 -0.2598
38979W        W81892   6.311  13.540  15.672  0.2726  0.0074 -0.0952
38980W        W81893   0.051  16.043  17.311  0.0178 -0.3899  0.1844
38981W        W81894  19.800  13.046  14.830 -0.0948 -0.0873  0.2971
38982W        W81895  32.870  22.280  19.493 -0.0832  0.0557  0.3587
38983W        W81896  24.231   9.254  18.447  0.5486 -0.3714  0.2699
38984W        W81897   0.172   5.597  24.433 -0.0705 -0.0431  0.2170
38985W        W81898  30.899  21.766  14.605  0.2598  0.2093  0.2092
38986W        W81899  29.150  18.423  25.693  0.0002  0.1001  0.0610
38987W        W81900  33.635  13.657  17.191 -0.2336  0.0190  0.0973
38988W        W81901   0.583  23.342  17.618 -0.2363  0.0164  0.1632
38989W        W81902  29.696  15.619  21.244 -0.1052  0.1075 -0.3958
38990W        W81903  25.398  21.793  17.365 -0.0548 -0.0163  0.1720
38991W        W81904   1.441  20.602  22.333 -0.1939 -0.1098 -0.3999
38992W        W81905  23.082  27.983  17.311 -0.0224  0.0391 -0.1127
38993W        W81906   6.424   7.549  27.124 -0.0063 -0.2040  0.1593
38994W        W81907   2.182  15.243  25.599 -0.0403  0.0823  0.3176
38995W        W81908  17.978  22.428  13.519  0.2389  0.1920  0.2000
38996W        W81909   0.053  13.554   0.724 -0.2853  0.1333  0.0894
38997W        W81910  24.938  24.804  26.986 -0.1272  0.0179 -0.1286
38998W        W81911   3.649  15.785  28.289 -0.0195 -0.0585  0.0068
38999W        W81912   2.291  24.284  20.636 -0.3372  0.1286  0.0111
39000W        W81913  31.944  17.847  15.171  0.2435  0.0058  0.3679
39001W        W81914   9.180  17.227  14.314  0.1965  0.1356  0.1701
39002W        W81915  18.708  20.333  13.926  0.0127 -0.2362  0.0011
39003W        W81916  24.774  12.515  18.041  0.1226  0.0655  0.4416
39004W        W81917  21.349  22.970  13.923 -0.0986  0.0414 -0.0886
39005W        W81918  28.531  24.256  26.839 -0.0074 -0.0450  0.1920
39006W        W81919  21.265  13.515   3.472 -0.3038  0.2411 -0.1576
39007W        W81920  32.604  30.622  14.235 -0.1336  0.2384  0.2235
39008W        W81921  28.967  26.894  16.300  0.1104  0.1293 -0.3953
39009W        W81922  31.209  21.644  19.351 -0.1778  0.0927 -0.2184
39010W        W81923  23.762  22.614  15.759  0.2053 -0.0002  0.0825
39011W        W81924  33.883  17.340  23.346 -0.0947 -0.1286  0.0960
39012W        W81925  26.998  17.390  20.119 -0.3223  0.2018 -0.3537
39013W        W81926  17.913  29.607  19.654 -0.1884 -0.2619  0.2685
39014W        W81927  28.067  18.822  26.490 -0.1789  0.0167 -0.0184
39015W        W81928  29.496  14.651  15.766  0.1225 -0.1195 -0.0368
39016W        W81929   3.002  31.616  20.175 -0.2398 -0.0795  0.0716
39017W        W81930   1.503  26.451  23.815  0.0774 -0.0784 -0.3005
39018W        W81931  29.186  20.447  22.502  0.0707  0.0355  0.2445
39019W        W81932  33.492  32.207  19.675  0.0041 -0.1437  0.0706
39020W        W81933   0.920  32.158   7.103  0.0740 -0.4782 -0.0478
39021W        W81934  25.573  13.613  17.389 -0.1091  0.2622 -0.1681
39022W        W81935  30.103  13.820  23.646  0.1818  0.0274  0.1266
39023W        W81936  30.698  23.607  21.846  0.0391 -0.0394 -0.0461
39024W        W81937   1.125  24.536  21.411  0.1831 -0.0218  0.2132
39025W        W81938  19.713  15.073  14.338  0.0464 -0.1927 -0.3012
39026W        W81939  27.675  26.676  13.120  0.0558  0.0843  0.1398
39027W        W81940  27.382  23.363  23.273  0.0715 -0.4557 -0.1197
39028W        W81941   4.541  23.721  27.244  0.1721  0.4408 -0.1379
39029W        W81942   1.499  19.273   1.352 -0.1067 -0.3067  0.3470
39030W        W81943   3.325  30.986  19.130 -0.1748 -0.0643 -0.3556
39031W        W81944  31.973  14.167  22.333 -0.3941  0.3600 -0.3111
39032W        W81945  25.569  31.170  15.115  0.0903 -0.1694 -0.2714
39033W        W81946  20.503  14.616  25.514 -0.2369  0.1519  0.1645
39034W        W81947   3.824   7.985  18.250  0.0582  0.0331  0.1913
39035W        W81948  28.755  17.908   1.513 -0.0635 -0.2994 -0.0209
39036W        W81949   0.352  17.273  17.827  0.0154 -0.2311  0.2874
39037W        W81950  27.997  13.047   0.591  0.0758  0.1045 -0.1907
39038W        W81951  27.933  19.691  23.135 -0.2754 -0.4147  0.1623
39039W        W81952  28.794  11.886  18.346  0.0307  0.6747  0.1953
39040W        W81953   7.166  11.988  19.154  0.0870  0.2137 -0.0762
39041W        W81954  29.546  14.713  17.867  0.0205 -0.2215  0.2942
39042W        W81955  31.762  24.581   3.907  0.0143  0.1395  0.1509
39043W        W81956  16.253  10.625  20.286  0.0297 -0.1093 -0.0088
39044W        W81957   2.821  17.314  15.254  0.1698 -0.1854 -0.4349
39045W        W81958  12.341  10.280  14.170  0.2762  0.0244 -0.1503
39046W        W81959  31.495  22.556  22.969  0.0574 -0.1305 -0.1389
39047W        W81960  32.521  16.574  13.122 -0.3694  0.0245 -0.1955
39048W        W81961   3.916  23.993  14.598 -0.1386  0.2267  0.0973
39049W        W81962   3.231   9.072  23.861 -0.0332 -0.1771  0.1581
39050W        W81963  14.125  26.380  16.007 -0.2314  0.3346 -0.4459
39051W        W81964  19.896  19.580   0.559  0.4099 -0.0927  0.0022
39052W        W81965  32.244  12.047  19.199  0.3184 -0.1393 -0.1822
39053W        W81966  28.001  15.468  22.807  0.1298 -0.0488 -0.0901
39054W        W81967   2.940  18.799  23.582  0.1330  0.1065 -0.1495
39055W        W81968  31.416  12.709  19.808  0.0124 -0.1335  0.0340
39056W        W81969  10.163  13.423  15.852  0.1836  0.1134 -0.1777
39057W        W81970  25.153  21.349  21.659 -0.1141  0.2396  0.1258
39058W        W81971  26.998  11.572  23.788 -0.2227 -0.1681  0.1481
39059W        W81972   0.395  26.403  20.269 -0.2661  0.0853  0.0857
39060W        W81973   6.900  27.484  26.881  0.1501 -0.2382 -0.0027
39061W        W81974  32.843  26.163  16.254 -0.0347 -0.0288  0.2333
39062W        W81975   3.176  15.938  24.434  0.1812 -0.0730  0.1624
39063W        W81976  28.319  30.718  21.296 -0.4201 -0.0254 -0.0628
39064W        W81977  34.254  17.936  16.858  0.0162 -0.3204  0.1748
39065W        W81978  31.074  14.021  19.630  0.0992  0.3924  0.1816
39066W        W81979   4.313  22.728  19.899  0.0574  0.5279 -0.2670
39067W        W81980  27.434  24.055  17.100 -0.1452  0.0997 -0.4783
39068W        W81981   8.737  22.368  27.441  0.1151  0.0691 -0.0118
39069W        W81982  26.471  11.173  16.517  0.2473  0.0394  0.0058
39070W        W81983  28.128  19.056  21.630  0.1399 -0.1247 -0.1748
39071W        W81984  27.091  32.890  22.186 -0.2482 -0.0795  0.0311
39072W        W81985   1.888  19.308   0.446 -0.0682  0.2436 -0.2877
39073W        W81986  25.016  11.671  15.448 -0.1840  0.2093  0.1270
39074W        W81987  30.143  16.751  23.058 -0.1793  0.0816  0.0072
39075W        W81988   3.076  24.595  17.279 -0.2978 -0.0699  0.0328
39076W        W81989  29.760  21.542  14.746 -0.2497 -0.0068 -0.1932
39077W        W81990  33.757  18.732  16.115 -0.0498  0.1843 -0.0077
39078W        W81991   8.284  14.393  20.209 -0.1728 -0.0385 -0.3599
39079W        W81992  20.924   6.470  22.830 -0.0009 -0.0057 -0.1774
39080W        W81993   1.364  21.475  25.911  0.1724 -0.0406  0.1343
39081W        W81994  25.307  24.636  21.560  0.1313 -0.1010  0.3483
39082W        W81995  22.411  13.291  14.074  0.0679 -0.2306  0.2120
39083W        W81996   7.830  20.415  20.702 -0.3075 -0.2853  0.3091
39084W        W81997   4.601  16.077  20.100 -0.0511 -0.1972 -0.1409
39085W        W81998   3.686  17.527  18.807  0.3099  0.0244  0.2907
39086W        W81999  34.277  15.807  22.449 -0.1518 -0.1563  0.1950
39087W        W82000  27.829  21.739  23.355 -0.0188 -0.0662  0.2060
39088W        W82001  26.177  11.206  18.911  0.0510 -0.0075 -0.3133
39089W        W82002  22.592  12.368  14.248  0.0577  0.0107  0.1027
39090W        W82003  24.616  21.922   0.254 -0.1344 -0.0231 -0.1746
39091W        W82004  23.701  26.133  25.175 -0.1012 -0.1745 -0.1998
39092W        W82005  28.368  18.415  27.420  0.1864  0.2317 -0.0894
39093W        W82006  32.106  20.336  13.606 -0.1389  0.1156 -0.0017
39094W        W82007   5.390  11.879  18.186 -0.1775 -0.2484 -0.0526
39095W        W82008   1.545  28.750  14.099  0.0702  0.1793  0.0914
39096W        W82009  32.632   9.078  26.753 -0.1476 -0.0680  0.0769
39097W        W82010  34.377  23.153  18.902 -0.2796 -0.1462  0.0211
39098W        W82011  31.330  19.165  14.571  0.0073  0.1652  0.0400
39099W        W82012  23.241  13.244  27.742 -0.0501  0.0076  0.1568
39100W        W82013  30.245  26.390  25.782  0.1543  0.1624 -0.0638
39101W        W82014   0.775  19.168  26.719  0.3861 -0.0104  0.0011
39102W        W82015  25.173   9.791  15.216  0.3239  0.1579 -0.0376
39103W        W82016   9.650  11.745  23.075 -0.0137  0.1778  0.1322
39104W        W82017  31.443  10.216  20.929  0.0782  0.0919 -0.1588
39105W        W82018  22.085  31.268  28.212 -0.2889  0.1512 -0.0299
39106W        W82019   6.671  12.320  21.785  0.0385 -0.5286 -0.2828
39107W        W82020   6.202  25.768  25.142  0.0395  0.1170  0.1454
39108W        W82021  33.609  15.344  18.320 -0.0130  0.2674 -0.2164
39109W        W82022  23.058  25.407  13.982 -0.0838  0.0464 -0.0377
39110W        W82023  21.986  20.578  23.794 -0.3718  0.1864 -0.2932
39111W        W82024  20.079  24.799  16.520 -0.2668  0.1716 -0.2193
39112W        W82025  29.393  22.895  24.842  0.0795  0.4698  0.0036
39113W        W82026  31.397  17.971  19.643  0.0996 -0.2248  0.0268
39114W        W82027   5.078  17.641  15.379  0.0115  0.0918  0.3935
39115W        W82028  31.491  19.063  16.728  0.2920 -0.0653  0.2148
39116W        W82029  29.779  18.857  18.825  0.1414 -0.3420 -0.1357
39117W        W82030  31.501  21.954  25.762  0.3027 -0.1781 -0.2851
39118W        W82031   0.496  23.208  28.867 -0.1097 -0.1345 -0.0326
39119W        W82032   8.807  11.643  16.971 -0.0207 -0.3045  0.0476
39120W        W82033   1.639  27.639   0.163 -0.0139  0.1835  0.0923
39121W        W82034  25.129  15.767  23.917  0.2549 -0.1202 -0.0570
39122W        W82035  18.911  25.343  28.020  0.0702 -0.3142 -0.0855
39123W        W82036  29.829  33.362   4.349  0.0854 -0.0452  0.6274
39124W        W82037  33.888  20.109  24.527 -0.1697  0.0645 -0.2518
39125W        W82038  27.036  19.084  16.546 -0.1615  0.3630  0.3723
39126W        W82039  19.912  13.794  28.424  0.0607  0.1358 -0.1052
39127W        W82040  32.389  12.259  15.720  0.1084 -0.0966  0.4842
39128W        W82041  10.477  32.095  20.997 -0.3494  0.3671 -0.3908
39129W        W82042  32.800  18.699  27.489  0.3509  0.1368  0.0440
39130W        W82043  33.125  18.025  23.505 -0.1308 -0.2649 -0.3598
39131W        W82044  31.189  16.035  17.665 -0.0042 -0.0538  0.2608
39132W        W82045  33.059  30.460  18.717  0.1402  0.2265  0.5261
39133W        W82046   3.692  13.150  14.743  0.0276  0.2137  0.2694
39134W        W82047  32.231  26.631  18.899 -0.1811 -0.2484  0.2133
39135W        W82048  32.340  23.981  25.226 -0.0545  0.2278 -0.5966
39136W        W82049  28.108  17.434  20.973 -0.0976  0.0579 -0.1737
39137W        W82050  28.739  16.512  22.128 -0.0139 -0.1791 -0.3794
39138W        W82051  26.237  23.585  19.118  0.0074 -0.1355  0.2314
39139W        W82052   1.274  17.532  14.462 -0.2376  0.0523  0.0879
39140W        W82053  27.373  14.029  13.862  0.0800 -0.1208 -0.0174
39141W        W82054  24.209  15.433  26.061 -0.0269 -0.3359 -0.0507
39142W        W82055  33.351  32.381  18.015 -0.1801  0.3265 -0.0837
39143W        W82056  15.673  19.099  15.985  0.0434 -0.3752 -0.1339
39144W        W82057  27.768  26.599  15.883  0.1748  0.1444  0.4550
39145W        W82058   4.581  13.912  16.022  0.3961  0.1437  0.0926
39146W        W82059   1.549  25.372  25.738 -0.2806  0.4668  0.3132
39147W        W82060  30.025  15.827  22.175 -0.1058 -0.1944 -0.0009
39148W        W82061  32.248  21.359  17.574  0.1781  0.2589  0.0690
39149W        W82062   3.301  14.675  19.725  0.0686  0.0252  0.3911
39150W        W82063  28.814  15.723  24.473 -0.0094  0.0354  0.0099
39151W        W82064  17.452  19.975  14.238  0.1413  0.4385  0.1176
39152W        W82065  34.346  24.857   1.313 -0.4624  0.0935 -0.1410
39153W        W82066  31.493  19.901  20.290  0.1177 -0.1019  0.3405
39154W        W82067   7.358  20.637   2.108 -0.1883 -0.4271 -0.1148
39155W        W82068   1.859  12.134  15.474 -0.3646  0.0434  0.1573
39156W        W82069  20.173  20.384  21.913 -0.2553  0.1041 -0.0826
39157W        W82070  28.136  10.948  28.026 -0.0035 -0.2147 -0.2696
39158W        W82071  32.147  21.232  22.958 -0.1375 -0.0313 -0.1972
39159W        W82072  29.297  14.134  20.118 -0.1805  0.2505  0.1070
39160W        W82073  31.030  12.716  23.871 -0.1524  0.2185 -0.1331
39161W        W82074   7.302  13.316  18.067  0.3125 -0.0315 -0.1909
39162W        W82075  31.824  14.586  17.396  0.0475 -0.2707 -0.0130
39163W        W82076  22.047  20.106  27.653 -0.2069  0.1363 -0.1543
39164W        W82077   1.554  20.247  18.859  0.0014 -0.1418 -0.2956
39165W        W82078  30.431   8.163  23.662  0.0594  0.2239 -0.2162
39166W        W82079  33.695   8.126  17.484  0.0078 -0.2031 -0.2905
39167W        W82080  30.601  33.177   2.016  0.1181 -0.2760  0.2048
39168W        W82081  20.803   9.366  17.521  0.1820 -0.1310  0.2873
39169W        W82082  26.173  24.295  19.108  0.1739 -0.1218  0.2217
39170W        W82083   4.554  26.184  24.119  0.3092 -0.0652  0.1207
39171W        W82084  23.198  15.360  20.605 -0.4065 -0.0539 -0.1352
39172W        W82085  33.780  33.901  22.428  0.0882  0.2275  0.0682
39173W        W82086  21.051  13.129  15.215  0.3587 -0.1799 -0.1065
39174W        W82087  34.045  16.791  18.070 -0.1608 -0.0574  0.0030
39175W        W82088  25.840   8.811  14.380  0.0343  0.0232 -0.0931
39176W        W82089  15.305  13.264  20.728  0.0650  0.2694  0.2849
39177W        W82090  33.863  24.610   1.991 -0.4071 -0.0414  0.1253
39178W        W82091   4.480  21.131  28.187  0.1465 -0.0438 -0.0026
39179W        W82092   2.276  15.816   3.389  0.1894  0.0147  0.1487
39180W        W82093  29.546  16.859  16.283 -0.1173  0.1339  0.1380
39181W        W82094   2.347  24.659  15.810  0.1668 -0.0356 -0.1617
39182W        W82095   5.970  11.320  14.701 -0.1450  0.4180 -0.1577
39183W        W82096  32.876  25.339  29.771 -0.2089  0.2048 -0.1189
39184W        W82097  18.857  10.515  16.950 -0.2924 -0.0022  0.3377
39185W        W82098  33.558  21.666  15.019  0.0507  0.0408  0.1093
39186W        W82099  33.022  20.396  16.857 -0.2299  0.1224  0.0049
39187W        W82100   6.660  21.612  22.477 -0.0393  0.0436 -0.0648
39188W        W82101  28.496  13.789  22.532  0.1075 -0.0444  0.0917
39189W        W82102   5.122  27.116  16.671  0.1099  0.0824  0.3118
39190W        W82103  22.242  22.907  13.310  0.2298 -0.1381  0.0963
39191W        W82104   4.747  13.566  22.233 -0.0660 -0.1264 -0.0789
39192W        W82105   0.393  25.689   4.274 -0.1058  0.0967  0.2987
39193W        W82106  24.462  19.821  27.218 -0.0595  0.0543 -0.0193
39194W        W82107  20.126  25.680  21.358 -0.0977 -0.1939  0.0868
39195W        W82108  31.913  12.561  25.441  0.2990 -0.1859  0.2122
39196W        W82109  33.547  29.685  25.191 -0.1210 -0.1766 -0.1863
39197W        W82110  29.088  24.220  15.728  0.1739 -0.1466 -0.0628
39198W        W82111  28.965  24.062  16.829  0.1598  0.0060 -0.3107
39199W        W82112  27.025  21.315  20.192 -0.2821  0.0054  0.0142
39200W        W82113  31.152  18.091  15.660  0.0643  0.1575  0.1701
39201W        W82114  28.010  15.727  26.868 -0.2631  0.1989  0.2887
39202W        W82115   3.951  17.731  28.619  0.1520  0.4459  0.0062
39203W        W82116  26.413  16.457  22.899  0.2887  0.2420 -0.3044
39204W        W82117  34.472  15.854  28.922  0.1648  0.1364 -0.2869
39205W        W82118   1.970  17.941  18.631 -0.0423  0.2055  0.0474
39206W        W82119  25.818  17.492  18.349 -0.0037 -0.1816 -0.1637
39207W        W82120   0.683  27.357  27.131  0.0223 -0.2139 -0.1991
39208W        W82121  31.510  12.658  17.921 -0.0738  0.3166  0.0013
39209W        W82122  32.870  30.796  20.634 -0.1132 -0.0429  0.0300
39210W        W82123   7.252  25.004  17.971  0.1860  0.0650 -0.1589
39211W        W82124   4.363  30.434  18.423 -0.2147  0.0928  0.1794
39212W        W82125  33.396  22.276  24.856 -0.1629  0.1905 -0.2793
39213W        W82126  26.135  23.891  15.383 -0.2225  0.3352  0.2450
39214W        W82127  30.819  24.312  13.675 -0.2020  0.0397  0.0489
39215W        W82128  28.684  24.070  16.061 -0.0177 -0.2307 -0.0698
39216W        W82129  31.137  17.230  26.100  0.1039  0.0599 -0.3172
39217W        W82130  28.964   9.931   3.011 -0.0516 -0.0911  0.2632
39218W        W82131   0.664  10.465  21.826 -0.0062  0.1456  0.0990
39219W        W82132   2.620   6.410  18.920  0.2737  0.1026 -0.0210
39220W        W82133   5.081  16.016  21.723  0.0803  0.1299  0.3052
39221W        W82134  28.711  18.736  28.716 -0.1246  0.2413 -0.1198
39222W        W82135  29.983  15.400  19.743  0.0652 -0.0369  0.0776
39223W        W82136  26.609  26.018   3.765  0.1384 -0.0559 -0.0640
39224W        W82137  33.744   8.392   3.147  0.2682 -0.1611 -0.3493
39225W        W82138   6.621  10.805  23.657 -0.0043  0.3416  0.2571
39226W        W82139  29.652   6.414  25.491 -0.0566 -0.2425 -0.4129
39227W        W82140  30.376  13.613  14.867 -0.5808  0.1955 -0.1387
39228W        W82141  17.487   9.742  15.088 -0.0303  0.1135  0.0616
39229W        W82142  28.280  23.696  20.041  0.0982 -0.0817  0.2043
39230W        W82143  30.085  12.248  26.726 -0.2108 -0.0325  0.2277
39231W        W82144  23.078  25.902  15.388  0.0251  0.0841 -0.0078
39232W        W82145  27.345  15.538  13.190 -0.2837 -0.0856 -0.0032
39233W        W82146  27.854  23.224  20.485  0.1257  0.1491 -0.0167
39234W        W82147  28.191  21.262  22.876 -0.0564  0.0264  0.4081
39235W        W82148  28.803  21.832  21.246 -0.0495 -0.1426  0.0127
39236W        W82149  28.751  10.149  23.385 -0.0007 -0.2944  0.0825
39237W        W82150  24.491   6.785  18.068  0.4943  0.3177 -0.2024
39238W        W82151  25.390  13.222  17.247  0.1912  0.0376  0.0991
39239W        W82152  33.406  25.657  15.589  0.0373  0.5544 -0.0758
39240W        W82153  24.974  17.135  26.332  0.2331 -0.1120  0.1281
39241W        W82154  34.180  13.865  18.113  0.0191 -0.0416  0.0028
39242W        W82155  28.414  21.204  25.237  0.2827 -0.0053 -0.1685
39243W        W82156  32.750  20.859  16.841 -0.3277 -0.0884  0.1119
39244W        W82157  26.844  11.114  22.394 -0.0908 -0.0554 -0.1135
39245W        W82158  10.786   5.228  23.306  0.4132  0.0953  0.2005
39246W        W82159  30.656   0.068  16.732 -0.1702  0.1346 -0.2926
39247W        W82160  14.518  11.908  16.692 -0.4535 -0.0108 -0.0924
39248W        W82161   1.414  26.504  22.303 -0.1399  0.4362  0.0337
39249W        W82162  31.000  30.658  28.840 -0.1836 -0.3732 -0.5396
39250W        W82163   3.850  27.883  16.937 -0.0075  0.1258 -0.2060
39251W        W82164  33.750  15.609  20.295  0.4101  0.2234  0.2799
39252W        W82165  31.657  22.368  22.412  0.0468  0.0783  0.1088
39253W        W82166  31.196  16.289  26.607  0.2024 -0.3103  0.0292
39254W        W82167  29.180  22.822  24.387 -0.0650  0.0187 -0.1130
39255W        W82168   4.057  18.845  22.053 -0.0167  0.4528  0.2182
39256W        W82169   2.217  14.364  24.505  0.2749  0.3804 -0.1275
39257W        W82170   2.060  24.347  15.315  0.0910 -0.0448  0.1382
39258W        W82171  32.439  23.601  19.224  0.2070  0.1783 -0.2819
39259W        W82172  28.049  26.524  26.172  0.1642  0.3687  0.0409
39260W        W82173  21.741  10.421  20.336  0.1152  0.0883  0.1565
39261W        W82174  11.234  19.973  14.176  0.0790  0.3148 -0.0665
39262W        W82175  21.003  14.404  17.844  0.1753  0.0610 -0.2113
39263W        W82176  30.904  22.933  27.625  0.0611 -0.2802 -0.1019
39264W        W82177  33.946  22.106  21.675  0.0884 -0.1273 -0.0521
39265W        W82178  32.768  20.120  17.203  0.1419 -0.1229 -0.3190
39266W        W82179  10.909  16.320  23.245  0.1152  0.4043 -0.2668
39267W        W82180  29.607  20.512  24.786  0.2332 -0.1388  0.1259
39268W        W82181  30.103  30.471  15.321  0.2730 -0.0789  0.1788
39269W        W82182  21.147  14.571  27.991  0.0372 -0.0418 -0.1027
39270W        W82183  27.761  15.202  17.182  0.0737 -0.1277  0.1315
39271W        W82184   6.139  19.292  17.262 -0.1934  0.0928 -0.0423
39272W        W82185   1.206  18.182  22.417 -0.2542 -0.2913 -0.1670
39273W        W82186  28.341  30.452  26.862 -0.3486 -0.0663  0.2184
39274W        W82187   2.125  17.168  27.126 -0.0996 -0.1183  0.2130
39275W        W82188  15.164  11.878   3.175  0.2037  0.0296  0.0518
39276W        W82189  20.023  10.912  26.464  0.1680 -0.1443 -0.3255
39277W        W82190  24.447  24.418  22.467  0.4937 -0.4507  0.1255
39278W        W82191  27.248  15.465  22.573 -0.2304 -0.3304 -0.1366
39279W        W82192  29.944  22.409  13.656 -0.4167  0.0514  0.1035
39280W        W82193  33.502  26.049  26.196 -0.1682  0.1748  0.1494
39281W        W82194   0.068  10.333  27.783  0.3733  0.0744  0.1626
39282W        W82195  26.520  26.621  23.623 -0.2077 -0.1292  0.3804
39283W        W82196  31.292  25.535  22.167 -0.1794 -0.1077 -0.1030
39284W        W82197  33.592  19.984  23.369 -0.2444 -0.1235 -0.0997
39285W        W82198  25.382  11.263   1.679  0.0414  0.0269  0.2070
39286W        W82199  26.035  19.387  20.396 -0.1704  0.2676  0.0368
39287W        W82200   4.168  23.001  14.615 -0.2014 -0.2371  0.0884
39288W        W82201  27.337  28.169  18.407 -0.2089 -0.0239 -0.0177
39289W        W82202  33.123  12.234  18.720  0.1352 -0.0537  0.2769
39290W        W82203  34.405  23.809  22.920 -0.3899 -0.3864 -0.0192
39291W        W82204  33.803  22.444  13.644 -0.0684 -0.3299  0.1636
39292W        W82205  21.859  22.430  19.762 -0.3984  0.1965 -0.0851
39293W        W82206  22.386  24.607  13.574 -0.2838  0.2470  0.1090
39294W        W82207  29.283  11.865  18.166 -0.0697 -0.0988 -0.0173
39295W        W82208  23.942  21.765  13.643 -0.0300  0.0096  0.0409
39296W        W82209  33.418  28.996  20.054 -0.0314 -0.2741  0.2095
39297W        W82210   1.477  18.033  17.356  0.1203  0.0158  0.4516
39298W        W82211  28.720  18.917  13.567 -0.1500  0.2949 -0.0239
39299W        W82212  31.420  22.650  20.420 -0.0066  0.1601  0.3783
39300W        W82213   6.936  20.838  25.145  0.0452  0.3806 -0.0566
39301W        W82214   1.540  28.532  15.800  0.1309  0.0636  0.2707
39302W        W82215  25.758  32.998  14.519 -0.0201  0.2444 -0.1921
39303W        W82216   1.110  19.309  17.213  0.5506  0.1504 -0.2895
39304W        W82217  19.173   6.975  17.090  0.2149  0.0900  0.1442
39305W        W82218  28.669  10.756  14.602 -0.0031  0.2731  0.2105
39306W        W82219   1.971  15.099   1.366 -0.1009 -0.0890 -0.0227
39307W        W82220  28.747  15.444   3.194  0.2811  0.0343 -0.0179
39308W        W82221   0.017  29.372  14.748  0.1196 -0.1083  0.1956
39309W        W82222   7.639  18.250  22.590  0.0712  0.1930  0.1828
39310W        W82223  31.624  32.135  29.005  0.0786 -0.0533  0.0022
39311W        W82224  27.682  18.906  21.884 -0.1890  0.1519 -0.0108
39312W        W82225   5.176  22.230  18.808 -0.0260 -0.0372 -0.0695
39313W        W82226  26.123  28.969   0.840  0.2506 -0.0771 -0.2063
39314W        W82227   6.169  25.891   0.159 -0.0317  0.1546  0.0901
39315W        W82228  30.068  20.832  23.151 -0.0652  0.3809  0.3412
39316W        W82229  26.352  25.173  20.425 -0.2579  0.0451 -0.1779
39317W        W82230  28.069  18.697  23.543 -0.0190 -0.0867  0.3926
39318W        W82231  22.694  14.961  18.639 -0.1047 -0.0754 -0.0076
39319W        W82232  30.870  18.589  18.486  0.0620  0.0400 -0.0266
39320W        W82233  33.572  23.539  21.677  0.0269 -0.2486  0.1117
39321W        W82234  31.070  15.182  23.239  0.2942 -0.1248  0.1730
39322W        W82235  24.399  25.741  21.446 -0.3612  0.1347  0.1139
39323W        W82236  19.096  25.001   0.984  0.0286  0.1002  0.2946
39324W        W82237  23.598  31.444  28.395 -0.3153 -0.2043 -0.0203
39325W        W82238  24.939  14.244  16.845 -0.0382  0.1084 -0.0365
39326W        W82239  16.834  21.331  24.747 -0.0073  0.0532  0.1563
39327W        W82240  29.908  16.587  24.866  0.0135 -0.0968 -0.0033
39328W        W82241  24.861  17.604  15.298  0.1155 -0.1646 -0.0057
39329W        W82242   0.149  21.338  17.105 -0.0048 -0.2099  0.2702
39330W        W82243  27.546  26.773  23.119 -0.0992 -0.1185  0.1300
39331W        W82244   7.388  20.703  22.818  0.1867  0.0745 -0.1239
39332W        W82245  30.583  18.022  25.355 -0.0379 -0.1636  0.4424
39333W        W82246   0.598  13.114  23.520 -0.1953  0.2344  0.4142
39334W        W82247  22.556  26.477  16.723  0.1775  0.1660  0.1227
39335W        W82248  27.077  22.699  13.365 -0.1318  0.2420 -0.0398
39336W        W82249  26.411   8.057  15.488  0.2413  0.1134 -0.1239
39337W        W82250  30.887  24.024  19.679 -0.1406  0.1695  0.2473
39338W        W82251   0.312  12.729  27.164 -0.0569  0.2026 -0.1515
39339W        W82252   1.479  32.085  28.968 -0.1388 -0.2151 -0.3951
39340W        W82253   1.774   4.268  18.938  0.2585 -0.2482  0.1984
39341W        W82254  21.751  31.927  22.838  0.0323 -0.0410 -0.1317
39342W        W82255  33.185  13.565  15.361  0.0884  0.5392  0.3186
39343W        W82256   2.132  14.836  18.265 -0.0053  0.3351 -0.2393
39344W        W82257  28.431  17.790  14.779 -0.3631 -0.1196 -0.1788
39345W        W82258   7.765  18.661  18.660  0.1924 -0.1272  0.0100
39346W        W82259  16.856   4.132  19.382 -0.1445 -0.2597 -0.2263
39347W        W82260   1.584  13.267  20.641 -0.3136  0.2025 -0.1694
39348W        W82261  32.727  26.022  27.951 -0.1524  0.2864 -0.2949
39349W        W82262   2.651  14.088  20.726  0.1354  0.0054  0.0537
39350W        W82263   7.069  22.831   0.595  0.1872  0.1014  0.1015
39351W        W82264  31.900  11.753  17.002 -0.2951  0.1805  0.0918
39352W        W82265  10.033  18.304  25.835  0.2742 -0.2250 -0.4588
39353W        W82266  26.325  14.097   1.531  0.0853 -0.3463  0.1235
39354W        W82267  24.357  22.686  18.167  0.1637 -0.0377 -0.1786
39355W        W82268  29.269  17.976  20.940  0.0265  0.1629  0.1199
39356W        W82269  29.838  31.704  20.040 -0.1764  0.1605 -0.2123
39357W        W82270  31.192  22.948  29.074  0.3289 -0.1772 -0.0004
39358W        W82271  33.080   2.385  16.068  0.0988  0.1390 -0.1796
39359W        W82272   7.438  22.152  15.173 -0.1496 -0.0887  0.1892
39360W        W82273  22.076  16.306  15.555  0.0263 -0.0976 -0.0279
39361W        W82274  24.708  20.017  15.889 -0.0744  0.1413 -0.0121
39362W        W82275   1.827  32.273  23.343 -0.1823  0.3339  0.0545
39363W        W82276  33.506   7.208  17.570 -0.0284 -0.0827  0.2665
39364W        W82277   2.197  17.254  14.522 -0.0392  0.0557  0.2722
39365W        W82278   0.535  12.191  26.476 -0.0786  0.0538  0.3122
39366W        W82279  27.434  23.889  19.356  0.0425  0.2725 -0.0850
39367W        W82280  28.795  21.866  21.908  0.0216 -0.1629 -0.1981
39368W        W82281  22.632  20.227  23.827 -0.0042 -0.2983  0.2077
39369W        W82282  17.481  18.938  27.684  0.1576 -0.1315 -0.1263
39370W        W82283   4.860  11.287  24.634 -0.0426  0.1701  0.0392
39371W        W82284   4.492  21.287  16.376  0.0807 -0.1743 -0.0904
39372W        W82285  18.433  22.284  15.243  0.0889 -0.0135  0.1851
39373W        W82286  26.499  22.750   0.569 -0.2326  0.0855 -0.2440
39374W        W82287   2.068  13.233  20.964 -0.2654  0.0640  0.0240
39375W        W82288   7.469  16.339  20.549 -0.2487 -0.1593  0.2935
39376W        W82289   1.865   6.415  25.601  0.3736 -0.1342 -0.0945
39377W        W82290   0.835  23.935  15.045  0.2630 -0.1322 -0.2527
39378W        W82291  33.090  17.564  15.459 -0.0720  0.0926 -0.0312
39379W        W82292  32.788   6.763  20.034  0.1139 -0.0711 -0.0862
39380W        W82293  25.736  15.115  19.632  0.3555  0.0609 -0.0469
39381W        W82294  23.261  19.381  22.444 -0.3475 -0.1153 -0.0064
39382W        W82295  33.878  14.626  18.185 -0.2109  0.2391 -0.0219
39383W        W82296  21.504  22.781  20.513 -0.1335 -0.0207 -0.1263
39384W        W82297  28.725  14.046  16.480 -0.1063  0.0604  0.2130
39385W        W82298   0.267  28.054  14.117 -0.0265  0.0043  0.0742
39386W        W82299  34.256  16.796  20.124  0.0811 -0.1177  0.2489
39387W        W82300  30.191  23.857  22.540  0.1538 -0.1636  0.1044
39388W        W82301  21.242  28.023  15.707  0.2001 -0.2116 -0.2983
39389W        W82302  26.339  15.239  20.819  0.0772 -0.1056 -0.2234
39390W        W82303  28.021  28.143  20.389  0.0953  0.1157  0.1161
39391W        W82304  21.562  24.136  28.243 -0.3151  0.0102 -0.2499
39392W        W82305  31.001  12.771   2.334  0.3457 -0.0028 -0.1885
39393W        W82306   1.424  17.608  25.531  0.4148  0.2057  0.0518
39394W        W82307  22.115  25.670  16.565  0.0857 -0.1744  0.3598
39395W        W82308  29.104  22.697  20.321  0.0387 -0.0958  0.3323
39396W        W82309   1.531  26.993  15.208  0.0489  0.1049 -0.0640
39397W        W82310  24.457  20.560  18.155 -0.3735  0.1627 -0.0313
39398W        W82311  33.789  22.137  29.571  0.2443  0.1926 -0.2839
39399W        W82312   7.446   9.054  19.670  0.2693 -0.0712  0.1708
39400W        W82313  24.802  26.343  28.267  0.3101  0.0501 -0.2156
39401W        W82314  32.662  12.896  22.352 -0.0546  0.1319  0.0383
39402W        W82315  31.836  20.981  27.210  0.0684  0.1016 -0.1665
39403W        W82316  31.841  15.621  23.893  0.0647  0.0081 -0.1350
39404W        W82317  27.724  20.029  22.876 -0.2490 -0.0777  0.2392
39405W        W82318  29.029  17.045  17.389  0.2737  0.1513  0.3610
39406W        W82319   0.568  24.405  18.905 -0.0584  0.0537  0.2902
39407W        W82320  32.355  23.860  22.185  0.3398 -0.0134  0.1399
39408W        W82321  30.359  25.432  23.913 -0.3411  0.1579 -0.0860
39409W        W82322   1.999  19.804  21.593 -0.0620 -0.0490 -0.0427
39410W        W82323  30.357  13.866  25.041  0.2705 -0.1134 -0.3353
39411W        W82324  21.194   6.714  24.846  0.5981 -0.2646  0.3917
39412W        W82325  29.543  22.749  22.818 -0.0778  0.3947  0.2118
39413W        W82326  28.245  15.824  15.798 -0.1495  0.1131  0.1577
39414W        W82327  20.748  21.050  26.113  0.0663  0.2073  0.2120
39415W        W82328  32.174  21.911  22.864 -0.1477 -0.0878  0.0173
39416W        W82329  30.586  21.740  21.183 -0.0622  0.1640 -0.3776
39417W        W82330  25.528  16.389  19.236 -0.2083 -0.1109 -0.1029
39418W        W82331  30.543  22.464   1.321 -0.0121  0.0857 -0.3239
39419W        W82332  30.773  10.067  21.074 -0.0002  0.0334 -0.1102
39420W        W82333  32.886  12.191  24.602 -0.2344 -0.1623 -0.1111
39421W        W82334   6.195  21.064  27.005  0.2138  0.0964 -0.1872
39422W        W82335  18.248  28.188  19.535 -0.0550 -0.3043 -0.1720
39423W        W82336  25.602  26.496  23.457  0.0365  0.3463 -0.1194
39424W        W82337  18.525  29.626  17.882 -0.2217  0.1538  0.1637
39425W        W82338   1.679   1.645  20.237  0.0488 -0.0847  0.0458
39426W        W82339  22.187  29.416   2.315 -0.0482  0.0090  0.0269
39427W        W82340  29.445  32.534   5.615 -0.4138  0.1388  0.1157
39428W        W82341   7.508  22.765   5.347 -0.2642  0.2924  0.2696
39429W        W82342  27.606  17.590  24.478 -0.2855 -0.0434  0.1333
39430W        W82343   0.477  23.728  26.277 -0.1481 -0.1565  0.3580
39431W        W82344  30.278  19.517  23.419  0.3209  0.1355 -0.3363
39432W        W82345  25.190  24.326  25.728 -0.1736 -0.1382  0.3620
39433W        W82346  26.004  17.955  15.465  0.1829  0.1402  0.2997
39434W        W82347  30.580  25.422  19.594  0.0512 -0.1216  0.1420
39435W        W82348   6.543  24.065  26.923  0.0850  0.1523 -0.0698
39436W        W82349  24.061  22.881  27.883  0.1083 -0.1475 -0.0857
39437W        W82350  18.783  29.988  23.751 -0.0592 -0.0847 -0.0042
39438W        W82351   1.813  20.083  14.130 -0.3114 -0.0648 -0.1402
39439W        W82352  26.989  19.944  21.372 -0.1658 -0.1030  0.1614
39440W        W82353  28.871  16.133  27.176  0.0547 -0.0134  0.0727
39441W        W82354  30.791  16.174  28.094 -0.0596  0.3004  0.0820
39442W        W82355   6.262  16.411   6.006 -0.0675 -0.0242  0.0279
39443W        W82356  26.585  23.981  22.184  0.1376 -0.2089 -0.0860
39444W        W82357  34.483  24.978   4.068 -0.2389 -0.2553  0.0992
39445W        W82358  30.378  22.945  15.477 -0.1552  0.2674  0.2387
39446W        W82359  24.077  34.044  28.721  0.2465  0.2205 -0.1247
39447W        W82360  32.866   2.547  21.010  0.0308 -0.1039  0.2126
39448W        W82361  21.766  19.954  15.206  0.1924  0.1722 -0.0148
39449W        W82362  33.724  19.702  17.260 -0.0020 -0.0891  0.0216
39450W        W82363  28.108  29.001  19.038 -0.3373  0.1869  0.1528
39451W        W82364  26.075  26.366  25.672 -0.0761 -0.1728 -0.0560
39452W        W82365  29.647  20.652  26.127 -0.0086 -0.0020  0.2216
39453W        W82366  18.865  19.310  22.222  0.1289 -0.1332 -0.1262
39454W        W82367  33.224  26.903   2.142 -0.0556 -0.1425 -0.0284
39455W        W82368  27.238  18.165  19.285 -0.1345  0.2041 -0.0303
39456W        W82369  32.126   8.118  22.498  0.2923  0.1356  0.0325
39457W        W82370  24.295  28.086  26.722  0.0984 -0.0520  0.1391
39458W        W82371  23.377   7.612  13.754 -0.2801  0.1909 -0.0019
39459W        W82372  14.872  21.389  29.350  0.0467 -0.1238 -0.2805
39460W        W82373   1.854  13.387  22.638 -0.3160 -0.2486 -0.2241
39461W        W82374  26.631  11.304  17.391  0.0415 -0.1229  0.0150
39462W        W82375  25.616  15.053  15.096 -0.1451 -0.1280  0.0346
39463W        W82376  33.395  16.018  23.492 -0.1093 -0.0728 -0.0577
39464W        W82377  27.744  24.136  24.803 -0.0881  0.0760  0.0193
39465W        W82378   0.604  19.186  17.848  0.2419  0.1161  0.0366
39466W        W82379   0.661  13.654  16.996  0.0031 -0.1664  0.2089
39467W        W82380  32.607  13.994  17.248  0.1456  0.2299 -0.0565
39468W        W82381  27.696  25.866  29.696 -0.2274 -0.0203  0.1860
39469W        W82382  27.185  20.720  19.467  0.2232  0.0777  0.2680
39470W        W82383  24.782  27.267  23.983 -0.0012  0.0542 -0.1579
39471W        W82384  32.059  17.637  24.763  0.2410  0.4988  0.1663
39472W        W82385  21.739  15.289  23.443  0.2558  0.2187  0.3703
39473W        W82386  28.327  19.946   4.186 -0.2539 -0.0351  0.1675
39474W        W82387  21.465  13.158   1.479 -0.0591 -0.0446  0.1390
39475W        W82388   2.481  26.123  28.062 -0.1054 -0.0187 -0.2365
39476W        W82389  27.062  17.222   4.383  0.1384  0.2268  0.2995
39477W        W82390  22.029  17.502   1.736  0.0060  0.1524  0.0815
39478W        W82391  20.620  21.450  25.302  0.1135 -0.1851 -0.3654
39479W        W82392  18.655  22.310  20.561 -0.0316  0.0879  0.0461
39480W        W82393  26.698  14.446  24.398  0.3019 -0.0162 -0.2179
39481W        W82394  21.293  24.205   0.028 -0.0070  0.0493 -0.1014
39482W        W82395  29.998  25.009  28.493  0.0670  0.2227 -0.1186
39483W        W82396  12.884  25.843  21.771  0.0462 -0.0627 -0.3778
39484W        W82397  24.795  26.256   0.522 -0.1762 -0.1609  0.2790
39485W        W82398  13.444  25.882  27.027 -0.2722  0.1213 -0.0304
39486W        W82399  27.073  17.323  19.060  0.0310  0.0738  0.1243
39487W        W82400  20.688  22.396  16.043 -0.0230 -0.2514  0.1164
39488W        W82401  14.168  22.451   0.060 -0.0017  0.3484  0.0856
39489W        W82402  28.939  22.084  22.846 -0.0739 -0.0667  0.2230
39490W        W82403  30.379  19.618   2.567  0.0347  0.1636 -0.1146
39491W        W82404   3.295  15.093  20.486  0.2403 -0.1196  0.2862
39492W        W82405  28.714  31.465  20.613  0.0568  0.1437 -0.2047
39493W        W82406   2.155  20.100  23.551  0.0756 -0.1074  0.2440
39494W        W82407  32.599  25.258  26.030  0.2618 -0.0137 -0.0615
39495W        W82408  10.221  10.744  29.074 -0.0742  0.0025  0.0859
39496W        W82409  24.124  13.805  17.831  0.1172 -0.3185  0.2378
39497W        W82410  27.534  21.482  20.362 -0.0886 -0.2265  0.1774
39498W        W82411   3.437  16.154   0.750 -0.2480  0.0083  0.1815
39499W        W82412  18.685  20.266  24.519  0.2514  0.1172  0.3127
39500W        W82413  34.196  16.342  25.948  0.1101  0.2847  0.0307
39501W        W82414   6.174   0.049   3.014 -0.0290  0.0466 -0.1667
39502W        W82415  10.729  23.772  21.505  0.2502 -0.0138 -0.1513
39503W        W82416   0.333  15.645  29.765 -0.3001  0.0312 -0.0663
39504W        W82417   1.358  29.159  26.882 -0.2910 -0.1405  0.4522
39505W        W82418   2.817   7.481  21.335  0.0452  0.1926  0.1977
39506W        W82419  22.424  13.318  18.544 -0.3355 -0.1438  0.0692
39507W        W82420  29.063  21.881  18.719  0.0041 -0.2110  0.1862
39508W        W82421   3.741  24.299  18.268  0.1493  0.1279 -0.1407
39509W        W82422  26.041  22.339  28.809 -0.3816  0.0490  0.2214
39510W        W82423   3.792  20.950  24.602 -0.2800  0.3485 -0.2580
39511W        W82424   0.390  22.802  29.222 -0.1440  0.0143 -0.1453
39512W        W82425  32.465  14.327  21.831  0.0205  0.1434  0.0547
39513W        W82426  31.843  33.257   4.953 -0.0720  0.2636  0.2645
39514W        W82427   2.473  26.065  15.176  0.2133 -0.1567 -0.3456
39515W        W82428  29.088  20.175  28.656 -0.0032 -0.0566  0.1415
39516W        W82429  14.455  29.768  26.332  0.0351 -0.0847 -0.1536
39517W        W82430  32.052  24.784  15.093 -0.2733  0.1456 -0.0331
39518W        W82431   0.979  10.333  23.820  0.0510 -0.0377  0.3310
39519W        W82432   6.395  17.244  21.584  0.2617  0.0468 -0.3087
39520W        W82433  25.237  15.927  14.838  0.1969  0.1553 -0.1451
39521W        W82434   4.445  22.071  23.173  0.0050  0.0432  0.0028
39522W        W82435  34.301   5.291  21.701  0.0654  0.0166  0.0869
39523W        W82436  31.454  25.174   6.643  0.1478 -0.0761 -0.3329
39524W        W82437  18.891  21.524  24.704 -0.0799 -0.0555  0.1696
39525W        W82438  17.898  21.574  19.203  0.1039  0.0273  0.2340
39526W        W82439  28.618  20.062  22.132  0.4979  0.2688  0.0327
39527W        W82440   2.646  23.360  23.366  0.0193 -0.0514 -0.1991
39528W        W82441   1.202  16.833  27.315  0.1650  0.2031 -0.0848
39529W        W82442   3.570  22.797  16.800  0.2532 -0.2812 -0.0006
39530W        W82443   1.149  11.733  19.351 -0.2145  0.1553  0.0906
39531W        W82444  26.605  19.717  24.312  0.4037  0.1068  0.1499
39532W        W82445  30.453  20.940  24.118 -0.4216  0.0183  0.4274
39533W        W82446  21.446  33.620   1.240 -0.1584 -0.0303 -0.0573
39534W        W82447   1.246  16.401  20.675 -0.2183  0.1926  0.1568
39535W        W82448  34.445  23.207  28.865  0.1380  0.2029  0.2104
39536W        W82449  26.848  20.864  23.440 -0.1265 -0.2490  0.1644
39537W        W82450  31.931  17.090  23.395  0.2334  0.1089 -0.6149
39538W        W82451  32.181  14.734  24.015 -0.0227  0.1672  0.1046
39539W        W82452  24.575  19.605  19.146  0.1045  0.0599 -0.4091
39540W        W82453  28.095  16.764  21.855 -0.2190 -0.3198 -0.1870
39541W        W82454   3.682  18.866  22.843  0.1125  0.0000  0.0398
39542W        W82455  25.487  26.443  28.064 -0.1484 -0.2006  0.0885
39543W        W82456   7.036  14.662  27.456 -0.0342  0.3532  0.0665
39544W        W82457  22.850  20.261  21.054 -0.2935 -0.0982 -0.1622
39545W        W82458   5.057  14.143  26.347  0.3572  0.0335  0.1063
39546W        W82459  29.399  18.113  18.801 -0.1321  0.0145  0.4036
39547W        W82460  33.599  26.271  25.299  0.0574  0.0155  0.1545
39548W        W82461   1.168  25.293  22.979  0.0474 -0.1097 -0.2181
39549W        W82462  25.466  20.321  19.970  0.0116 -0.3011 -0.0048
39550W        W82463  25.046  15.495  22.033 -0.0812  0.0587 -0.0262
39551W        W82464  29.423  22.293  22.706  0.2586  0.0621 -0.0955
39552W        W82465   6.591  19.668  23.295  0.1476  0.0085 -0.1282
39553W        W82466   3.868  22.902  21.184 -0.1866  0.0399  0.1804
39554W        W82467  28.664  13.901  23.531  0.2187  0.1363 -0.1171
39555W        W82468  32.118  22.298  17.976 -0.0819  0.0926 -0.3686
39556W        W82469  34.027  12.336  19.095 -0.3480  0.1335 -0.1583
39557W        W82470  25.197   1.639  22.213 -0.2393  0.0268 -0.0491
39558W        W82471  30.637  17.825  18.257  0.0262  0.0641  0.1720
39559W        W82472  31.821  23.598  13.841  0.2611  0.2366 -0.3137
39560W        W82473  25.744  24.277  14.165  0.1099  0.1339  0.0420
39561W        W82474  30.486  16.789   0.414 -0.0332 -0.0591 -0.2038
39562W        W82475   2.368  13.628  25.242  0.1159  0.0968  0.1163
39563W        W82476  30.984  12.163  25.524  0.0712  0.1863 -0.1413
39564W        W82477  31.120  28.244  22.383 -0.1782 -0.0708 -0.2826
39565W        W82478  29.842  18.013  25.010 -0.0669 -0.0759  0.0022
39566W        W82479  27.609  22.400  18.188 -0.0713  0.0170 -0.0798
39567W        W82480  29.361  30.683  27.796  0.3638  0.2283  0.1289
39568W        W82481  30.834  26.146  24.678 -0.1191 -0.1445  0.0554
39569W        W82482  28.840  19.513   1.029  0.2256 -0.0231 -0.0433
39570W        W82483  28.645  20.784  14.530 -0.1346 -0.1486 -0.0814
39571W        W82484  27.583  23.623  15.377 -0.3706 -0.4269 -0.0695
39572W        W82485  27.868  20.862  23.913  0.3337  0.0156 -0.0405
39573W        W82486  24.978  21.085   2.040 -0.0678  0.1091 -0.1478
39574W        W82487  23.735   7.711  13.415 -0.1061  0.0535 -0.1205
39575W        W82488  34.299  22.744  19.840  0.2853 -0.1694 -0.0247
39576W        W82489  33.549  27.137   1.853  0.2227  0.2562 -0.0166
39577W        W82490  14.136  27.136  23.159  0.0142 -0.2126 -0.1828
39578W        W82491  23.113  10.703  18.169  0.0021 -0.0877 -0.2746
39579W        W82492  26.838   9.198  21.813 -0.2090  0.1638 -0.0524
39580W        W82493  30.729   6.844  23.360  0.1904 -0.0425 -0.1903
39581W        W82494  29.696  20.786   2.247  0.0447 -0.0201  0.0954
39582W        W82495  31.669  23.572  24.499 -0.1777 -0.1698 -0.1110
39583W        W82496  14.297  13.894  15.932  0.1500 -0.1865 -0.0061
39584W        W82497  28.366  15.951  20.535  0.0237 -0.1200 -0.0483
39585W        W82498  33.016  20.251  28.514 -0.0400 -0.0806 -0.0609
39586W        W82499  29.277  31.898   4.034  0.1805 -0.0107 -0.1489
39587W        W82500   1.703  15.572  14.608  0.4811  0.0355 -0.0137
39588W        W82501  28.689  25.747   2.883 -0.0555 -0.0166 -0.1517
39589W        W82502  33.588  28.646  22.541  0.1310  0.1319 -0.1178
39590W        W82503  25.452  12.405   0.219 -0.1650 -0.1548 -0.3139
39591W        W82504   5.114   8.248  21.575  0.2747 -0.3588  0.0309
39592W        W82505   0.095  23.784   9.334 -0.0204 -0.1178 -0.1881
39593W        W82506   0.402  13.113  28.447 -0.2591 -0.0463  0.0517
39594W        W82507  32.315   2.349  24.246  0.1546 -0.1913 -0.1809
39595W        W82508  30.455  30.167  20.506  0.0050 -0.0921  0.1396
39596W        W82509  30.754  20.417   0.725 -0.0530  0.2415  0.0775
39597W        W82510  32.119  20.790  25.730  0.2427 -0.1182 -0.1472
39598W        W82511  28.210  18.069  22.288  0.0063 -0.1774  0.0499
39599W        W82512  24.433  13.772  22.044 -0.2257 -0.0541  0.0087
39600W        W82513   1.671  25.942  22.256  0.1506  0.3436 -0.0503
39601W        W82514  25.123  14.335  15.069 -0.0790 -0.1575  0.3976
39602W        W82515  29.127  16.742  21.866 -0.1053 -0.2092 -0.3635
39603W        W82516   2.167  18.112  17.782  0.1308 -0.4626 -0.5198
39604W        W82517  29.152  21.617   2.031  0.1599  0.1702 -0.1348
39605W        W82518  13.928  17.570  15.380  0.0379 -0.0744  0.0738
39606W        W82519  17.498   9.919  17.961 -0.2670 -0.4444  0.0691
39607W        W82520  27.714  25.035  16.920  0.1639 -0.1316 -0.0250
39608W        W82521  32.224  14.517  22.619  0.0490 -0.1923 -0.0574
39609W        W82522  21.020  17.843  14.077 -0.1677 -0.0387 -0.0398
39610W        W82523  29.120  25.500  22.242  0.1598  0.0231  0.1136
39611W        W82524  16.322  21.502  16.933  0.1308  0.1570  0.0866
39612W        W82525  33.798  22.024  24.842  0.1521 -0.1082 -0.1795
39613W        W82526   5.572  10.080  25.089  0.0580  0.1234  0.1308
39614W        W82527  24.718  17.392  22.862  0.0311  0.2790  0.0710
39615W        W82528   5.110  14.863   0.535 -0.2089  0.1136 -0.2859
39616W        W82529  30.855  16.164  25.943 -0.0021  0.2370  0.1840
39617W        W82530  29.650  20.371   0.472 -0.1978 -0.0587 -0.1222
39618W        W82531   7.818  16.451  23.869 -0.0448  0.1542 -0.2084
39619W        W82532  22.243  18.870  26.366 -0.0441 -0.1750 -0.0958
39620W        W82533  25.225  25.086  27.919 -0.1913  0.0434 -0.0812
39621W        W82534  21.767  22.489  28.488 -0.2557 -0.1957 -0.2740
39622W        W82535  32.725  28.150  26.474  0.1329 -0.1204 -0.0189
39623W        W82536  28.659  26.939  27.612 -0.0384  0.0496 -0.2929
39624W        W82537  30.026  18.131  23.684 -0.0752  0.0276  0.1173
39625W        W82538   5.226  17.935  19.985  0.0831  0.0259  0.2428
39626W        W82539  26.389  24.029   2.423  0.1223 -0.0287  0.2266
39627W        W82540  24.794  17.663   1.907  0.3119  0.1322  0.2618
39628W        W82541   0.821  18.974  25.877  0.0708 -0.0899 -0.0278
39629W        W82542  28.561  22.714  13.758  0.1235  0.1326 -0.0619
39630W        W82543  26.057  15.066  21.629  0.0925  0.2059  0.2772
39631W        W82544  28.786   5.218   1.858 -0.1709  0.1597  0.1338
39632W        W82545  30.784  32.282   3.910 -0.1328  0.0544  0.5114
39633W        W82546   2.727  12.741  21.791 -0.2656 -0.0708 -0.1522
39634W        W82547   0.114  18.288  24.306 -0.1866  0.0094 -0.0479
39635W        W82548   4.534  21.486  17.602 -0.0426 -0.0319  0.0111
39636W        W82549  26.148  22.334  22.093  0.2474 -0.3355  0.0237
39637W        W82550  32.961  22.971  24.991 -0.0331  0.0817  0.0525
39638W        W82551  25.364  20.331  21.703 -0.2141  0.0478  0.1655
39639W        W82552   5.448  12.835   2.394 -0.1408 -0.4712 -0.1739
39640W        W82553  29.966  10.688  27.843  0.0183  0.0247  0.3687
39641W        W82554  25.183  16.621  13.578 -0.1264  0.2396  0.2014
39642W        W82555  26.983  15.199  21.296 -0.1719 -0.2794 -0.1748
39643W        W82556   9.974  11.042  28.685  0.0009 -0.0455  0.0694
39644W        W82557  24.616  24.937  26.543 -0.0814 -0.2594  0.2096
39645W        W82558  19.058  19.114  15.034 -0.0787  0.1372  0.2813
39646W        W82559  20.914  24.436  18.444  0.1247  0.0586  0.0925
39647W        W82560  34.483  23.309   2.438 -0.1473 -0.3128  0.1943
39648W        W82561  33.026  22.402  26.206 -0.0247  0.0621  0.0094
39649W        W82562  21.193  19.619  21.881 -0.0547  0.0158  0.0400
39650W        W82563  12.087  12.541  24.029 -0.1490  0.1004 -0.1104
39651W        W82564  29.563  20.633  17.134  0.0673  0.0509 -0.0418
39652W        W82565  23.988  22.756  17.764  0.0418  0.0805  0.4576
39653W        W82566  34.302  12.207  19.577  0.0658 -0.1421  0.1026
39654W        W82567  26.789  30.755   2.088 -0.2544  0.2748 -0.1661
39655W        W82568   2.286  13.820  19.274 -0.1237  0.3281  0.0868
39656W        W82569  30.380  25.971  21.064 -0.3227  0.0479 -0.0319
39657W        W82570   4.425  13.470  19.619 -0.0494 -0.2641 -0.1154
39658W        W82571   6.598  18.764  27.525 -0.1785  0.1206 -0.0441
39659W        W82572  22.065  18.933  13.094 -0.1187 -0.0436  0.0544
39660W        W82573  18.446  26.790   3.757 -0.2229  0.2382 -0.1994
39661W        W82574  26.413  11.961   0.345 -0.0129 -0.0141  0.0826
39662W        W82575  12.191  26.966  28.524 -0.1357  0.0359  0.0090
39663W        W82576  18.931  24.566  19.914 -0.1200  0.0246  0.0116
39664W        W82577  31.758  22.412  26.513  0.1475  0.1407  0.1510
39665W        W82578   7.386  19.455  24.316  0.0102  0.0721  0.1310
39666W        W82579  34.455  24.965  18.936 -0.3597  0.1243  0.1047
39667W        W82580  33.733  21.130  15.959  0.4680  0.1806 -0.3188
39668W        W82581   7.856  18.449  24.988  0.2746  0.2849  0.1641
39669W        W82582  22.206  14.047  13.415  0.2385 -0.2035  0.1148
39670W        W82583  30.208  16.115  22.629  0.0983 -0.0815  0.2011
39671W        W82584  20.047  22.374  28.073 -0.1148  0.4667 -0.1211
39672W        W82585  29.499  20.777   5.509 -0.1172 -0.2646 -0.1494
39673W        W82586   3.231  20.326   2.082  0.3365  0.0693  0.0892
39674W        W82587  33.007  22.594   0.177  0.1169 -0.0953 -0.2310
39675W        W82588  29.274  20.642  19.975 -0.0783  0.1485 -0.3283
39676W        W82589  29.552  23.859   2.803  0.0323  0.2535 -0.3665
39677W        W82590  33.730  18.288  15.143  0.3121  0.2441  0.3926
39678W        W82591  30.021  32.863  23.375  0.2444 -0.1972  0.2995
39679W        W82592  31.899  22.138  23.790 -0.0083 -0.0656  0.0424
39680W        W82593  25.717  16.864  29.501 -0.0797 -0.0557 -0.0954
39681W        W82594  16.760  27.025  19.343  0.0809  0.0133  0.2760
39682W        W82595  31.657  26.331   1.369  0.3871  0.0601  0.1667
39683W        W82596  31.342  26.664  20.351  0.0274 -0.0610  0.0749
39684W        W82597  30.681  17.486  19.559 -0.0934 -0.1589 -0.3990
39685W        W82598  28.333  28.605  27.688  0.0152  0.2188  0.1944
39686W        W82599  20.486   9.289  22.077  0.3528  0.0568 -0.2310
39687W        W82600  29.288  21.170   1.152 -0.0981  0.2568  0.2454
39688W        W82601  32.071  24.577  21.057 -0.0018  0.2296 -0.1820
39689W        W82602   9.736  13.435  26.105 -0.2793  0.0677  0.0765
39690W        W82603  11.906  19.469   7.323 -0.2490 -0.1723  0.1047
39691W        W82604  28.857  22.431  25.755 -0.0642 -0.0182  0.0343
39692W        W82605   0.918  30.693  23.318 -0.0910  0.1741  0.2353
39693W        W82606   4.971  19.763   6.964  0.2576  0.1030  0.2098
39694W        W82607  25.900  15.043  26.651 -0.0547  0.2735  0.2084
39695W        W82608   1.816  21.090   7.407 -0.0033  0.0630  0.1338
39696W        W82609  17.953  15.409  13.380  0.2639 -0.0914  0.1600
39697W        W82610  18.435  28.577  17.332 -0.2183  0.2275 -0.2804
39698W        W82611  28.899  20.523  13.336 -0.0359  0.2160 -0.2536
39699W        W82612   2.406  29.784   1.606  0.2332 -0.0923 -0.2908
39700W        W82613   0.063  19.867  26.630 -0.0977  0.0975  0.0420
39701W        W82614   6.319  22.466  27.272 -0.1810 -0.1811 -0.4919
39702W        W82615  24.822  20.411   7.699  0.0621  0.1269 -0.3583
39703W        W82616  26.268  29.350  25.959  0.3651  0.3201  0.1284
39704W        W82617   4.392  21.202  21.072  0.2259 -0.0084 -0.0428
39705W        W82618   0.747  17.096  14.889  0.2477  0.0552  0.0205
39706W        W82619  26.749  27.162  19.367 -0.0914 -0.0099  0.2042
39707W        W82620  22.252  26.221   1.460 -0.1192 -0.4088  0.0527
39708W        W82621  27.480   9.887  21.591  0.1324 -0.0464  0.0089
39709W        W82622   3.034  21.081  29.522 -0.3230 -0.0606 -0.1949
39710W        W82623  31.114  18.697  23.170  0.1260  0.0920  0.0504
39711W        W82624  28.118  27.151  19.097  0.3321 -0.2309 -0.1202
39712W        W82625   1.143  27.823  20.614 -0.0858 -0.0153 -0.1677
39713W        W82626   0.653  24.872  16.456 -0.2585  0.0326  0.0940
39714W        W82627  32.579  30.738  25.129 -0.0830  0.1060  0.1598
39715W        W82628   2.968  30.142  15.826 -0.0592  0.0192 -0.0151
39716W        W82629  10.527  15.993  25.427 -0.1427 -0.2101  0.2670
39717W        W82630  21.732  13.392  12.964  0.0260  0.1149  0.0265
39718W        W82631  32.134  22.337  29.085  0.1377  0.3160  0.2031
39719W        W82632  25.236  23.049  17.093  0.1467  0.3157 -0.0837
39720W        W82633  32.264  19.588  21.039  0.1911  0.1917  0.1252
39721W        W82634  34.030  20.387  25.864  0.2997 -0.3161 -0.0124
39722W        W82635  27.742  32.696  15.917  0.6358  0.0365  0.0478
39723W        W82636  24.071  21.263  22.505 -0.0528  0.0773 -0.0579
39724W        W82637  28.856  18.290  18.753  0.2750 -0.1803 -0.2134
39725W        W82638  22.459  26.709  15.534 -0.0339  0.1214  0.0061
39726W        W82639  31.825  30.631  19.954  0.1184  0.2573 -0.3344
39727W        W82640  33.420  17.001  18.763  0.0604 -0.0584 -0.1551
39728W        W82641   7.937  13.650  22.977 -0.1066  0.1915 -0.2125
39729W        W82642  17.923  24.288  26.051  0.0893 -0.1129 -0.1222
39730W        W82643  26.687  22.312  24.921 -0.0076  0.0183 -0.2072
39731W        W82644  25.617  15.953  13.402  0.0594  0.0487  0.0225
39732W        W82645  24.191  23.111  28.725  0.1413 -0.2214 -0.0762
39733W        W82646   3.691  20.150   3.167  0.2763  0.3015  0.0361
39734W        W82647   3.169  22.387  16.134  0.3460  0.3014 -0.0376
39735W        W82648  25.814  28.531  20.793 -0.2700 -0.0373 -0.0092
39736W        W82649  28.132  26.968  27.566  0.3082  0.0543 -0.2022
39737W        W82650  26.823  19.046   3.592 -0.1844  0.0475  0.2480
39738W        W82651   1.999  20.709  16.855 -0.4413 -0.1134  0.0507
39739W        W82652  17.766  23.122  15.048 -0.0293 -0.1222  0.0179
39740W        W82653   3.080  13.600   0.499 -0.1076 -0.3197  0.0066
39741W        W82654  24.167  21.696  25.162  0.2646  0.2190 -0.2322
39742W        W82655   0.251   6.154  24.971  0.1350 -0.0761 -0.2501
39743W        W82656  34.407  26.406  18.060 -0.0284  0.2275 -0.0591
39744W        W82657  25.265   1.591  29.082 -0.1145  0.0341  0.0167
39745W        W82658  27.670  19.352   2.568  0.4711  0.2048  0.1666
39746W        W82659  20.429  27.051  26.295  0.0204 -0.4243 -0.0624
39747W        W82660  32.673  31.923   1.333 -0.0045 -0.0519 -0.0538
39748W        W82661   5.293  19.750  26.202  0.0662 -0.2261 -0.0790
39749W        W82662  24.944  11.301  14.320 -0.0743  0.1576 -0.0440
39750W        W82663  10.282  21.245  29.747  0.0138 -0.2332  0.0246
39751W        W82664   1.838  18.851  21.826  0.1353  0.2149  0.1618
39752W        W82665  23.986  24.867  27.171  0.1253 -0.0154 -0.1823
39753W        W82666  29.365   8.436  15.938  0.0293 -0.0316  0.0518
39754W        W82667  28.531  28.624  13.959  0.4821  0.2794 -0.0458
39755W        W82668  27.222  18.480  26.428  0.2063 -0.0071 -0.0424
39756W        W82669  23.474  12.787   0.193  0.1073 -0.1555 -0.0000
39757W        W82670   5.447  27.114  15.597  0.1796  0.0023  0.0890
39758W        W82671  34.476  13.058  26.693  0.0998  0.0630  0.0939
39759W        W82672   0.168  21.368  26.070 -0.2835 -0.0601  0.3748
39760W        W82673  32.490  21.821  26.376 -0.2244  0.1459 -0.0452
39761W        W82674  29.629  15.278  27.222 -0.1761  0.0127  0.2519
39762W        W82675  32.241  13.891  21.963  0.0371  0.2239 -0.2545
39763W        W82676  30.248  20.199   1.154  0.1759 -0.1134 -0.0587
39764W        W82677   7.191  21.797  21.850 -0.1662  0.2577  0.0809
39765W        W82678   6.908  16.777  23.609 -0.1432 -0.2210 -0.2175
39766W        W82679  30.485  17.292  24.716  0.1143  0.0257  0.1071
39767W        W82680  26.527  19.164  20.218  0.0011  0.4582 -0.0804
39768W        W82681  27.895  28.036   1.695  0.2126 -0.2000  0.7495
39769W        W82682  32.167   9.692  23.176  0.1320 -0.1185 -0.2864
39770W        W82683   0.984  20.996  23.866  0.0616 -0.1780 -0.0468
39771W        W82684  31.845   9.371  17.731  0.0087  0.1398 -0.1621
39772W        W82685  29.584  17.414  26.363 -0.1012  0.0295  0.2374
39773W        W82686  33.858  29.821  26.457 -0.1657 -0.2371  0.0969
39774W        W82687   5.724  25.746   5.369 -0.5610 -0.1625  0.0691
39775W        W82688  26.085  16.265  16.439 -0.0176  0.1197  0.1457
39776W        W82689   0.683   6.630  22.807 -0.1009  0.0371  0.3795
39777W        W82690  26.805  23.221  13.922  0.0809 -0.1222 -0.0062
39778W        W82691   0.170  13.566  27.382  0.3031 -0.0986 -0.0351
39779W        W82692  17.893  32.514   1.150  0.0560  0.0979 -0.1555
39780W        W82693  34.216  28.064   0.665 -0.3248 -0.0265  0.0664
39781W        W82694   6.565  31.026   1.122  0.0889 -0.1425  0.0090
39782W        W82695   7.013  23.251   1.445  0.0011  0.3922 -0.3711
39783W        W82696   1.710  16.139  23.206  0.0766 -0.0012  0.0644
39784W        W82697  31.181  20.596  24.006 -0.2388 -0.3820  0.0338
39785W        W82698  22.059  30.976  23.418 -0.1309 -0.0888 -0.0394
39786W        W82699  26.864  14.930  18.067 -0.0483 -0.2585 -0.2781
39787W        W82700  24.772   3.166  23.036  0.0720 -0.3075 -0.0373
39788W        W82701  32.922  19.288   0.259  0.2867  0.1228 -0.0928
39789W        W82702   3.147  20.350  16.849 -0.0035  0.1940 -0.5133
39790W        W82703  32.558  17.213  13.888 -0.0563  0.2574  0.2843
39791W        W82704  25.023  30.319  24.614 -0.1155  0.3109 -0.1030
39792W        W82705  21.119  18.146  26.134  0.0214 -0.0814  0.0001
39793W        W82706   8.936   8.692  18.665 -0.0034  0.1354 -0.1809
39794W        W82707  20.335  11.431   3.818 -0.0127  0.1990 -0.1906
39795W        W82708  31.910  13.053  29.633 -0.0681  0.0965  0.4156
39796W        W82709  28.935  23.965  22.346 -0.0769 -0.3393 -0.1906
39797W        W82710  32.176  19.045  22.599  0.0616  0.0049 -0.2216
39798W        W82711  26.492  14.910  26.928 -0.4121 -0.1995 -0.2643
39799W        W82712  30.988  20.110  29.523  0.3377  0.1804 -0.0559
39800W        W82713   0.771  20.762  20.350 -0.1920 -0.2706  0.0228
39801W        W82714  26.155  30.536  27.576 -0.4021  0.0296 -0.0963
39802W        W82715  25.596  22.418  22.379 -0.0524  0.1770 -0.3039
39803W        W82716  29.578  17.054   1.363  0.1726  0.0485 -0.0182
39804W        W82717  14.957  13.942  22.643 -0.1160  0.4937  0.1586
39805W        W82718   3.475  21.158  21.315  0.2524  0.2430  0.0995
39806W        W82719  17.523  29.717  15.340  0.0481 -0.2146 -0.0806
39807W        W82720  22.885  14.071   3.280  0.3014 -0.1074  0.0428
39808W        W82721  16.154  25.635  28.075  0.2268  0.1229  0.1371
39809W        W82722   2.405  12.015  23.270 -0.1136  0.2234 -0.0671
39810W        W82723  25.896  21.038  20.388  0.0746 -0.0382 -0.2743
39811W        W82724  20.847  27.506  23.754 -0.0378 -0.3925 -0.1085
39812W        W82725  34.267  26.551  27.312 -0.1274  0.5209 -0.2943
39813W        W82726  26.846  17.022  26.291  0.1248 -0.1856 -0.1289
39814W        W82727  29.814  16.524  21.780 -0.0625  0.1959 -0.4476
39815W        W82728  30.339  10.397   2.423 -0.1580  0.1923  0.0115
39816W        W82729  21.663  17.450  28.889 -0.0502 -0.0573  0.0377
39817W        W82730  32.051  16.972  26.108  0.0139 -0.1484 -0.0904
39818W        W82731  28.342  21.098  27.828 -0.2312 -0.1937 -0.3196
39819W        W82732  23.587  21.508  27.094  0.2182  0.0886 -0.0793
39820W        W82733  23.842   2.159  22.038  0.1399 -0.2201  0.2071
39821W        W82734   0.215  23.226  26.957 -0.1858 -0.0755  0.0730
39822W        W82735  31.808  22.507  23.323  0.0661  0.0642 -0.2601
39823W        W82736  32.761  25.675  24.464 -0.4886  0.0692  0.4925
39824W        W82737   7.036  19.532  23.445 -0.1916  0.1039  0.2429
39825W        W82738  10.905  30.950   5.660 -0.0617 -0.2756  0.3804
39826W        W82739  32.493  30.462  20.607  0.1774 -0.0257 -0.1242
39827W        W82740  16.683  17.979  27.454 -0.2113 -0.0155 -0.0060
39828W        W82741   4.208  24.513   4.222  0.2123  0.0652 -0.0517
39829W        W82742  34.179  25.462  25.287  0.0710 -0.0567 -0.3630
39830W        W82743   1.803  20.275   4.589 -0.1912  0.1323 -0.0468
39831W        W82744  29.163  19.358  21.456 -0.2132  0.0665  0.1658
39832W        W82745  27.395  32.827  26.447  0.0922  0.1834  0.0498
39833W        W82746  31.546  21.734   1.753 -0.1950  0.3606  0.1053
39834W        W82747   3.391  19.863   1.827  0.1117  0.0243 -0.1137
39835W        W82748  33.312  23.136  26.720  0.1262 -0.0877 -0.3881
39836W        W82749  26.985  14.327   5.791  0.0010  0.1493 -0.2237
39837W        W82750  30.731  13.674  19.794  0.0905 -0.1243  0.4657
39838W        W82751  26.691  18.604  25.568 -0.0529 -0.0273  0.0273
39839W        W82752  25.067  20.638  23.480 -0.1404 -0.0166  0.1637
39840W        W82753  34.308  16.570  28.358  0.0388  0.1943 -0.0410
39841W        W82754  28.648  22.224   2.504  0.0375  0.0673 -0.2590
39842W        W82755  31.202  19.933   9.157  0.3371 -0.2715 -0.2982
39843W        W82756  32.797  21.308   4.961 -0.0728 -0.0922 -0.1784
39844W        W82757  27.605  30.273   7.382  0.1836  0.0872  0.0968
39845W        W82758  33.274  17.579  18.697 -0.0890 -0.0858  0.0320
39846W        W82759  26.154  23.986  25.339  0.0276 -0.3542 -0.3136
39847W        W82760   3.533  16.275   5.403  0.1665  0.2587 -0.0646
39848W        W82761  29.870  31.341  14.876 -0.2463 -0.1764  0.1994
39849W        W82762  19.869  16.485   7.825 -0.0069 -0.0718  0.0107
39850W        W82763  28.935   6.368   6.193 -0.0363 -0.0068  0.0739
39851W        W82764   4.350  21.098   4.878  0.0615  0.0018 -0.0662
39852W        W82765  25.255  11.107  20.770  0.0062 -0.1060 -0.1388
39853W        W82766   3.240   9.944  26.497  0.1566 -0.2433 -0.0579
39854W        W82767  21.231  17.217   6.271  0.2743 -0.2437 -0.2529
39855W        W82768  33.023  17.780   5.225  0.0739  0.0174  0.1905
39856W        W82769  28.576  17.854   6.372 -0.0498  0.3846 -0.3718
39857W        W82770  20.141  18.888   2.212  0.2902  0.2519 -0.0050
39858W        W82771  29.474  16.667  19.838  0.3173  0.0999 -0.5196
39859W        W82772  28.774  12.104   2.938 -0.2447 -0.2171  0.3466
39860W        W82773  30.997  24.874   9.120 -0.1733 -0.1050 -0.1564
39861W        W82774  28.266  20.461   6.021 -0.0285 -0.1194  0.0231
39862W        W82775  31.289  18.151  28.631 -0.0024  0.0558 -0.0165
39863W        W82776  30.664  27.010   8.670 -0.2100 -0.3120 -0.2089
39864W        W82777   4.763   9.136   0.592  0.4377 -0.0266 -0.0648
39865W        W82778  29.256  27.690  18.685  0.2043 -0.2789  0.1159
39866W        W82779   6.202  23.191  28.187  0.3664 -0.0579 -0.3070
39867W        W82780   2.549  13.440  21.109  0.0130  0.0271  0.0860
39868W        W82781  18.167  28.412   7.532 -0.1583  0.1418 -0.1488
39869W        W82782  28.351   8.004   1.732  0.1596 -0.2187  0.0146
39870W        W82783  10.710  18.296  25.179  0.1069  0.1451 -0.1063
39871W        W82784   1.410  16.976  18.106 -0.1325  0.3256  0.0791
39872W        W82785  17.856  28.795  18.029 -0.0572  0.0447 -0.2314
39873W        W82786  23.154  21.643  22.710  0.1743 -0.1404 -0.1084
39874W        W82787  23.215  11.243   8.475  0.0243 -0.0919 -0.1564
39875W        W82788  23.046  23.624   0.432 -0.3418 -0.0487  0.1815
39876W        W82789  30.432  11.436  26.032 -0.1199  0.1801  0.2345
39877W        W82790   1.205  15.970   2.240  0.0585  0.1367  0.0289
39878W        W82791  31.258  16.317  23.146 -0.1484 -0.0969  0.0014
39879W        W82792  26.749  12.380  26.318  0.1972 -0.2311  0.0905
39880W        W82793  18.465  30.972  25.638  0.1480  0.0841  0.0266
39881W        W82794   4.969  19.616  27.441 -0.1248 -0.2025  0.0020
39882W        W82795  24.782  21.340  25.739 -0.0979 -0.0783  0.2761
39883W        W82796   2.166  26.330  19.008  0.2096  0.0399 -0.0990
39884W        W82797  23.626  20.445  26.490  0.2143  0.0420 -0.3492
39885W        W82798  27.711  20.229  22.182 -0.0274  0.1790 -0.1402
39886W        W82799  23.579  15.825   6.665 -0.2531 -0.0964 -0.0191
39887W        W82800  31.336  27.374  22.550 -0.4879 -0.1371 -0.1233
39888W        W82801  13.065  27.752  25.068  0.1888  0.1358 -0.0020
39889W        W82802   5.453  26.665   1.323 -0.1435 -0.2271  0.0280
39890W        W82803  27.402  25.370   3.140  0.1720  0.0169  0.0583
39891W        W82804  26.281  25.141  25.371 -0.2106 -0.0967  0.2283
39892W        W82805   2.367  18.300  17.027  0.1074 -0.0207 -0.0527
39893W        W82806   5.981  21.735   5.684 -0.2614  0.2772  0.0630
39894W        W82807  24.225  30.134  29.772  0.1132  0.1195  0.2721
39895W        W82808  25.388  26.336   3.660  0.0708  0.0599 -0.1283
39896W        W82809  15.874  27.105   1.395 -0.0644 -0.2936 -0.2133
39897W        W82810  32.498   8.737  15.228 -0.1630 -0.1551 -0.0681
39898W        W82811  22.695  18.004  22.286 -0.0359  0.1608 -0.0134
39899W        W82812  31.488  16.360  25.557 -0.2894  0.1504 -0.2324
39900W        W82813  19.349  20.233  25.786 -0.0238 -0.0576  0.4052
39901W        W82814   4.999  31.124  29.141  0.1962 -0.0077 -0.2038
39902W        W82815  21.761  26.845  28.165  0.3114  0.1614  0.0728
39903W        W82816  25.618  23.203   0.826 -0.1659  0.1851 -0.1652
39904W        W82817   2.314  22.363   6.856  0.3102  0.1952 -0.1298
39905W        W82818  28.860  19.827   9.002 -0.2733 -0.2074 -0.0788
39906W        W82819  34.075  20.957  28.230  0.1176 -0.0231  0.4011
39907W        W82820  16.343  10.664   0.744 -0.0548 -0.2155 -0.0167
39908W        W82821  15.030  16.235  24.173 -0.2891 -0.0454  0.0158
39909W        W82822  18.616   2.303  23.469 -0.2953  0.3099 -0.0502
39910W        W82823   4.489  25.137  29.419  0.0678 -0.1663 -0.0475
39911W        W82824   8.904  30.528  24.354  0.2899  0.0014 -0.1826
39912W        W82825   6.801  15.603  26.725  0.0186 -0.1065  0.3255
39913W        W82826  19.031  22.123  12.247 -0.0558 -0.0131  0.3313
39914W        W82827  18.716  25.694  28.934 -0.0878 -0.0764  0.0073
39915W        W82828   0.740  25.039  28.036  0.2214  0.3153 -0.0659
39916W        W82829  21.614  23.691  25.643  0.1621 -0.2195 -0.0457
39917W        W82830  34.470  15.543  18.123 -0.1756  0.3941  0.0556
39918W        W82831  22.050  22.747  24.398  0.2296 -0.1856  0.0534
39919W        W82832   3.302  14.905  29.780  0.1776 -0.1824 -0.1003
39920W        W82833  31.656  14.414  27.342  0.1809  0.1225  0.0728
39921W        W82834  28.651  27.592  21.215  0.2574  0.3086  0.2561
39922W        W82835  26.406  11.544  26.175  0.0179  0.0796  0.0897
39923W        W82836  20.671  24.528  26.371  0.2021 -0.0096  0.0626
39924W        W82837  16.060  24.869  27.458 -0.0366 -0.0147 -0.0789
39925W        W82838  25.823  16.369  21.702 -0.2346 -0.0965 -0.1005
39926W        W82839   8.541  10.598  15.964  0.1124  0.2261 -0.0998
39927W        W82840  22.470  27.594   6.297  0.1816 -0.0203  0.1921
39928W        W82841  34.482  28.757   0.455  0.0680 -0.1302  0.2390
39929W        W82842  26.482  23.722   3.080 -0.2664  0.0122 -0.3448
39930W        W82843  16.082  12.334  28.162  0.0104 -0.2316 -0.4945
39931W        W82844  15.051  32.633   6.061 -0.0163  0.0855  0.0819
39932W        W82845  20.614  25.182  27.890 -0.1679  0.1056 -0.1627
39933W        W82846  10.282  15.302  27.424 -0.3030  0.5226  0.1523
39934W        W82847  27.788  22.043   2.017 -0.1057  0.3191 -0.0043
39935W        W82848  20.612  10.448   5.934 -0.2287 -0.1033 -0.2667
39936W        W82849  32.256  22.035   6.873 -0.0887  0.3260 -0.2883
39937W        W82850   1.461  20.077   3.669  0.1418  0.0286 -0.1140
39938W        W82851   1.650  14.742  25.618 -0.0210  0.0380  0.0995
39939W        W82852  27.043  19.609  17.368 -0.1765 -0.0854 -0.3652
39940W        W82853   0.270  16.983   7.024 -0.0129  0.1114  0.1061
39941W        W82854  30.085  20.197  28.987 -0.0094 -0.1253 -0.1619
39942W        W82855  26.266  24.237   5.507 -0.2305 -0.2162 -0.2699
39943W        W82856  20.502  21.768  20.655  0.1800 -0.1407 -0.0441
39944W        W82857  33.369  14.528  19.542  0.2276  0.1140  0.1428
39945W        W82858   4.318  11.611   3.493 -0.0760  0.1127 -0.1818
39946W        W82859  25.892  26.479   6.587  0.0741 -0.2024 -0.1342
39947W        W82860  32.962   8.797  29.280 -0.3563 -0.1239  0.2673
39948W        W82861  24.503  23.270  20.336 -0.2301 -0.1862  0.2996
39949W        W82862   7.428  14.429  29.281  0.1676  0.0759  0.1515
39950W        W82863  23.635  21.498  29.209 -0.5058  0.2549  0.0150
39951W        W82864  31.284   9.652  29.472  0.2368 -0.2162  0.1088
39952W        W82865  25.926  20.699   4.609 -0.1672  0.1652 -0.0352
39953W        W82866  23.037  26.166  18.975 -0.0803  0.2285  0.1799
39954W        W82867   8.700  23.908  24.887  0.0773  0.1395  0.2022
39955W        W82868  29.602  23.616  25.523 -0.1137  0.0942 -0.2337
39956W        W82869   2.443  14.000  28.049  0.2939  0.2370 -0.0158
39957W        W82870  32.545  29.720  19.591 -0.1256  0.3775 -0.2590
39958W        W82871  30.506  21.651  26.054 -0.2507  0.0791  0.1206
39959W        W82872  26.153  20.277  21.599 -0.1427  0.1212  0.1587
39960W        W82873   1.096  28.015   2.660 -0.3501  0.2245 -0.0276
39961W        W82874   3.764  20.711   0.396 -0.2004  0.2305 -0.1318
39962W        W82875  34.287  21.285  29.130  0.0047 -0.0115 -0.1140
39963W        W82876  30.110  25.852  17.217 -0.3301 -0.3556  0.3375
39964W        W82877  28.835  20.283   1.670 -0.1489 -0.4165  0.1133
39965W        W82878  27.557   5.845  21.752 -0.4347  0.4558 -0.0399
39966W        W82879  28.434  10.664   4.158  0.1696  0.3010  0.1685
39967W        W82880  24.147  12.962  14.465 -0.2824  0.2031 -0.0152
39968W        W82881  23.537  23.025  26.336  0.0897  0.0713  0.3305
39969W        W82882  21.547  10.926  28.234 -0.0626  0.0353 -0.3821
39970W        W82883   1.666  13.963   2.248 -0.0846 -0.0224 -0.1911
39971W        W82884  26.317  28.634   2.136  0.0681 -0.2354  0.2839
39972W        W82885  27.405  29.391   6.529 -0.3279  0.0722  0.1216
39973W        W82886  18.676  21.807  19.325 -0.1169  0.0487  0.0956
39974W        W82887  31.769  21.811  26.636  0.1096 -0.0866  0.0497
39975W        W82888  30.111  14.675  22.201  0.3170 -0.3240  0.2577
39976W        W82889  21.593  12.264  21.442  0.1011  0.2568 -0.1593
39977W        W82890   2.597  11.570  24.600  0.0784 -0.4736 -0.0223
39978W        W82891   2.306  12.207  19.090  0.2629 -0.0591  0.1319
39979W        W82892  28.568  12.199   6.682 -0.1520 -0.2139 -0.1934
39980W        W82893   3.512  12.119  26.750 -0.2974  0.4336 -0.1291
39981W        W82894  15.383  24.982  26.568 -0.0708 -0.1538 -0.2724
39982W        W82895  27.295  18.986   7.864  0.2783 -0.0589  0.0192
39983W        W82896  21.643  12.087  26.347  0.1129 -0.0825 -0.0827
39984W        W82897  23.016  25.536  29.646  0.1960  0.0642 -0.2014
39985W        W82898  24.116  29.590   8.004  0.1768 -0.1418  0.0349
39986W        W82899   2.140  19.262  26.488  0.1597  0.2196 -0.0821
39987W        W82900  26.370  16.008   4.549  0.0208 -0.0388 -0.2588
39988W        W82901  26.914  19.735  23.905 -0.2557 -0.0890 -0.0957
39989W        W82902  24.985  18.762   5.014 -0.0959  0.0468  0.1051
39990W        W82903  27.765  17.653   5.391  0.0540 -0.0247 -0.0237
39991W        W82904  31.448  19.557  24.947 -0.3183  0.0652  0.0760
39992W        W82905  31.868  28.948   3.890  0.3617 -0.3373  0.3880
39993W        W82906  30.395  17.018  17.777 -0.0930 -0.1342  0.2485
39994W        W82907   0.354  20.800   1.421  0.1903  0.0099  0.1022
39995W        W82908   4.054  10.306   4.171 -0.1958 -0.1900 -0.2186
39996W        W82909  29.464  23.047  20.313  0.2298 -0.1766  0.0381
39997W        W82910  28.673  21.499  24.804  0.0217 -0.2788 -0.0976
39998W        W82911  11.237  26.378  24.334  0.4829  0.1241  0.0142
39999W        W82912  20.592  21.020  26.565  0.0877  0.1316 -0.4150
40000W        W82913  30.847  16.269   5.355  0.0085 -0.0676  0.2078
40001W        W82914  32.994  12.287  24.083 -0.2770  0.1455  0.1305
40002W        W82915  31.397  18.756   2.128  0.0403  0.0206 -0.3543
40003W        W82916  22.599  29.387   0.902 -0.1575  0.3085 -0.0728
40004W        W82917   1.838  17.358  18.200  0.3242 -0.2449  0.0334
40005W        W82918  33.063  24.027   0.913  0.1983  0.3922 -0.2995
40006W        W82919   1.133  18.640  29.424 -0.2193  0.0696 -0.0753
40007W        W82920  22.270  16.723  29.694  0.3148 -0.1566  0.2570
40008W        W82921  18.227  25.468  16.217  0.3181 -0.0962 -0.0843
40009W        W82922  29.299  11.839  20.415  0.2096 -0.0447 -0.1597
40010W        W82923  28.661  25.114  24.931 -0.0074 -0.0334 -0.1476
40011W        W82924  33.097  14.387  22.873 -0.1339 -0.1423  0.1525
40012W        W82925  19.116  27.118  25.147 -0.3370 -0.0267  0.1548
40013W        W82926  23.630  25.260  27.363 -0.1507  0.0497 -0.3016
40014W        W82927   3.655  19.197  16.925 -0.0412  0.0926  0.0233
40015W        W82928  27.614  20.908   0.460  0.0531 -0.0311  0.0739
40016W        W82929  25.412  11.870  20.671  0.2458  0.1080  0.0810
40017W        W82930  28.258  20.798  22.581 -0.4387 -0.0333  0.2830
40018W        W82931  31.683  12.805   6.435 -0.2953  0.0700  0.0716
40019W        W82932  32.019  15.863   5.881 -0.2918  0.0122 -0.0120
40020W        W82933   7.910  18.899  23.362 -0.0227 -0.0987 -0.0981
40021W        W82934  18.633   0.988   5.305  0.1055  0.3411  0.2016
40022W        W82935  27.955  26.013  27.550 -0.1555  0.0141  0.1324
40023W        W82936  11.431  17.274  22.451 -0.0558 -0.4571  0.2984
40024W        W82937  21.211  21.753  22.775 -0.2442 -0.0864 -0.1084
40025W        W82938   1.915  15.466   9.677 -0.0824 -0.3009  0.0262
40026W        W82939  26.481  16.957  25.842  0.1521  0.1600 -0.0574
40027W        W82940  31.041  32.773   3.827 -0.3314 -0.1708 -0.0684
40028W        W82941   2.853  13.218  29.137  0.3019 -0.1527  0.2390
40029W        W82942  31.600  33.954  22.581 -0.0866  0.0698 -0.0736
40030W        W82943  32.054  23.316   5.869 -0.0443 -0.0431  0.0940
40031W        W82944  32.367  15.597   5.673 -0.1571  0.0082  0.2330
40032W        W82945  19.757  25.558  28.726 -0.0678 -0.1893 -0.0310
40033W        W82946  33.826  27.058  24.812 -0.2141  0.2142 -0.2150
40034W        W82947  27.669  11.222  29.480 -0.0969 -0.2970  0.3925
40035W        W82948   2.410  31.915   4.338  0.2246 -0.1185  0.2486
40036W        W82949  26.530  15.739  20.166  0.1816  0.0937  0.3063
40037W        W82950  29.819  19.325  22.250  0.2395  0.2003 -0.1852
40038W        W82951   7.500  29.274  25.668  0.0418  0.1158 -0.1192
40039W        W82952   4.274   6.868  23.091  0.0753  0.0797 -0.1019
40040W        W82953  32.083  13.862  20.274  0.2589 -0.2099  0.1844
40041W        W82954  26.457  23.582  24.478 -0.1847 -0.6335  0.2034
40042W        W82955  17.653  18.147  14.612  0.0398  0.0357 -0.4443
40043W        W82956   1.142  25.489  19.574  0.2924  0.0575  0.1028
40044W        W82957  28.608  30.696   5.769 -0.0165 -0.0904  0.1311
40045W        W82958  11.738  22.784  18.165  0.2519  0.0226 -0.1460
40046W        W82959  21.917  33.713   5.581 -0.0194  0.1080  0.0218
40047W        W82960   0.297  17.316   5.072 -0.0842  0.1678  0.0391
40048W        W82961  33.044   9.398  20.242 -0.0381 -0.0790 -0.1882
40049W        W82962  30.006  17.597  28.421 -0.0187 -0.0254  0.2265
40050W        W82963  14.916  23.274  22.330 -0.0263  0.1203  0.1434
40051W        W82964  31.684  27.080  23.601 -0.3113 -0.0986 -0.5059
40052W        W82965  21.803   7.949   3.761 -0.0021  0.0061 -0.1944
40053W        W82966   4.312  19.940  23.340 -0.1411  0.2383 -0.0265
40054W        W82967   4.398  27.359  26.647  0.0600  0.1299 -0.3003
40055W        W82968  32.693  26.725   5.483  0.0409 -0.0873 -0.1979
40056W        W82969  23.410   5.748   8.745  0.1394 -0.2356  0.2656
40057W        W82970  34.245  16.511  18.741  0.1524  0.0170 -0.0592
40058W        W82971  25.861  23.688   1.038  0.3624 -0.3666  0.0595
40059W        W82972  24.942  17.969  25.914 -0.0397  0.2767  0.2031
40060W        W82973   2.051  30.825   7.446 -0.1267 -0.0688 -0.0666
40061W        W82974  28.015   0.414   2.458  0.1347  0.1037  0.0361
40062W        W82975  12.301  26.620  22.143  0.2532  0.1431 -0.1282
40063W        W82976  20.103  21.242  18.109 -0.0947  0.0790 -0.0932
40064W        W82977  15.926  23.062  21.946  0.3155  0.1039 -0.5288
40065W        W82978  27.752  27.922  17.844  0.1380 -0.1131  0.0400
40066W        W82979  21.647  23.988  23.698 -0.0995  0.2829  0.1308
40067W        W82980  27.499  19.936  23.295  0.0466  0.2821 -0.0780
40068W        W82981  33.025  17.870  20.474  0.0546 -0.0790  0.0224
40069W        W82982   0.858  22.419  24.461 -0.1192  0.0672  0.3623
40070W        W82983  28.469  31.727  29.145  0.0893  0.2711 -0.3959
40071W        W82984  25.665  34.206   2.351  0.1426 -0.2464 -0.0632
40072W        W82985  12.078  18.124   0.398 -0.1532 -0.1331  0.3949
40073W        W82986  30.629  10.281  10.058  0.0004  0.1877 -0.0139
40074W        W82987  33.407  14.968  18.656 -0.0021  0.0007  0.0661
40075W        W82988  32.072  20.659   2.614 -0.0223 -0.1265 -0.0073
40076W        W82989   7.146  25.753  26.664 -0.1507  0.0407 -0.1481
40077W        W82990  30.781  17.710   2.696  0.2360 -0.0274 -0.1684
40078W        W82991  24.569  15.410  25.608  0.1658 -0.4826 -0.1975
40079W        W82992   4.083  18.614  22.552  0.0806  0.1136  0.1013
40080W        W82993  30.471  21.240   4.166 -0.0519  0.0192 -0.0807
40081W        W82994   2.471  24.572   4.706 -0.2126  0.0707 -0.1778
40082W        W82995   2.402  13.124  29.179  0.2341 -0.1995  0.2794
40083W        W82996  25.623  28.052  16.804  0.4174 -0.1991 -0.4711
40084W        W82997  28.943  13.882  21.798 -0.1369  0.2201 -0.1833
40085W        W82998  33.858  16.555   4.455 -0.1188  0.1662  0.3208
40086W        W82999  25.956  25.959   0.660  0.2480 -0.1975 -0.0375
40087W        W83000  28.007  21.860   1.480 -0.1239  0.3353 -0.0045
40088W        W83001   1.260  25.839   2.957  0.0052 -0.0959 -0.1353
40089W        W83002   2.651  24.357   8.402 -0.1703  0.2487 -0.0610
40090W        W83003  26.398  24.419  25.016  0.0947 -0.0372  0.3849
40091W        W83004  25.910  13.857   6.282  0.0527  0.1022  0.0454
40092W        W83005  27.307  18.301  20.204 -0.1962  0.0131  0.0427
40093W        W83006  23.612  19.199  28.798  0.0789  0.0979 -0.3183
40094W        W83007  17.588  15.742  25.555 -0.4747  0.1568  0.0435
40095W        W83008  33.000  26.809  26.681 -0.0753 -0.1150 -0.0434
40096W        W83009  24.187  27.501   3.896  0.0943  0.3280  0.0352
40097W        W83010  30.195  23.669   1.271 -0.0392  0.1026  0.1599
40098W        W83011   7.927  18.067  29.692  0.0556 -0.3393  0.2399
40099W        W83012   5.377  13.781  26.197 -0.3138 -0.1446  0.0444
40100W        W83013  15.768   7.991   4.654  0.1228  0.0595  0.0759
40101W        W83014   2.478  12.801  29.573 -0.2371 -0.1170 -0.3119
40102W        W83015  28.080   8.702   5.850  0.0288  0.2697 -0.1404
40103W        W83016  31.808  17.561  23.590 -0.1334 -0.2511 -0.1570
40104W        W83017  32.209  24.167  26.569 -0.1405  0.0204 -0.0567
40105W        W83018  29.645  10.284  16.451  0.3016  0.2785 -0.0964
40106W        W83019  33.478  13.906  22.344 -0.0234 -0.1227 -0.0444
40107W        W83020   1.848  24.516  24.631 -0.0423 -0.0501 -0.0733
40108W        W83021   8.203  17.631  24.729  0.1141 -0.1437 -0.0543
40109W        W83022  22.009   6.216  24.018 -0.0333  0.0172  0.0725
40110W        W83023  27.432  21.741   6.369 -0.2617  0.2170 -0.2087
40111W        W83024  23.646  21.486  23.834 -0.0536  0.0476 -0.2017
40112W        W83025   1.048  13.763   7.404  0.0993  0.1763  0.0818
40113W        W83026   0.215  20.237  24.880  0.2870  0.1166 -0.0026
40114W        W83027   2.163  15.432  22.895  0.2483 -0.2912  0.1268
40115W        W83028   2.807  29.757   4.981  0.2116 -0.2012 -0.0659
40116W        W83029  23.126  12.425  19.366  0.3781 -0.0576  0.1503
40117W        W83030   4.338  13.985   0.029 -0.1242 -0.2429  0.0392
40118W        W83031  31.728   6.792  11.727 -0.0645  0.3950 -0.0051
40119W        W83032   0.569  27.048  28.566 -0.0185 -0.0374  0.2086
40120W        W83033  25.626  13.860  21.941 -0.1587  0.0390 -0.1492
40121W        W83034   1.326  13.424   1.736  0.1334  0.1178  0.3008
40122W        W83035  22.725  22.770  28.726 -0.0278  0.0157 -0.1446
40123W        W83036  27.259  14.383   7.087 -0.0553 -0.1085 -0.0184
40124W        W83037  27.188  33.628   0.086 -0.2418  0.1022  0.3999
40125W        W83038   4.468  22.195  27.676 -0.1768 -0.0218 -0.0916
40126W        W83039  34.227  19.296  26.768  0.5362  0.0224  0.1154
40127W        W83040   2.320  12.464  24.529  0.1456 -0.0294 -0.0880
40128W        W83041   2.477  28.134   2.705 -0.0064  0.0460  0.2013
40129W        W83042  22.878  22.183  25.008  0.0804  0.3099 -0.0141
40130W        W83043  31.801  25.685  29.271 -0.0810 -0.0587  0.0758
40131W        W83044   3.719  33.101   0.119  0.0235 -0.0717 -0.1658
40132W        W83045  21.589  28.184   1.782 -0.0652 -0.2128  0.2811
40133W        W83046  31.909  11.893   7.514 -0.3819 -0.2110  0.0733
40134W        W83047   1.984  22.305  21.380 -0.0005  0.3398  0.1196
40135W        W83048  31.627  22.254   0.810 -0.0600  0.2135  0.1904
40136W        W83049  32.590  28.980  26.928  0.1413  0.3915 -0.1588
40137W        W83050  27.910  21.106   3.257 -0.1023 -0.0137 -0.0105
40138W        W83051  17.093  23.109   0.052  0.2055 -0.1098 -0.0504
40139W        W83052   4.522  13.399   5.665 -0.1723  0.1416 -0.1159
40140W        W83053  21.466  30.210   9.580  0.1021 -0.0551 -0.2895
40141W        W83054  26.580  14.433  28.174 -0.3275  0.2008  0.1745
40142W        W83055  31.472  21.942  25.063  0.0017  0.2746  0.1707
40143W        W83056   1.283  24.627   4.016  0.0063 -0.1670  0.0433
40144W        W83057  24.371  16.082   1.112 -0.0595  0.0491 -0.0689
40145W        W83058  32.555  20.813   2.608 -0.0342 -0.1583  0.2835
40146W        W83059  29.562  33.415   3.429 -0.0798 -0.2452 -0.3359
40147W        W83060   4.365  21.023  14.427  0.3749  0.0840 -0.4000
40148W        W83061  30.798  15.602   6.082  0.0409  0.0422  0.0013
40149W        W83062  28.411  16.986  19.378 -0.0059 -0.0551 -0.4458
40150W        W83063  33.983  13.512   6.037 -0.1562  0.1369 -0.3010
40151W        W83064  27.510  10.722  15.072  0.1693  0.1414 -0.0812
40152W        W83065   0.125  19.797  24.258  0.0506 -0.1484  0.0340
40153W        W83066  30.243  19.982  23.635  0.0213  0.0550 -0.1954
40154W        W83067  26.343  20.864  20.096  0.3545 -0.1268 -0.2068
40155W        W83068  33.821  22.377   5.480  0.1660 -0.0726 -0.0122
40156W        W83069  18.389  21.748  17.774  0.2331  0.2430 -0.2841
40157W        W83070  22.423  21.952   1.080 -0.1731 -0.2561  0.0699
40158W        W83071  33.093  23.516  27.527 -0.0479  0.0318  0.3901
40159W        W83072  25.712  22.824  20.493 -0.0634 -0.1626  0.0351
40160W        W83073   6.865  26.418   5.202 -0.1918 -0.0410 -0.0910
40161W        W83074  20.476  24.191   7.519 -0.1422  0.0343  0.0235
40162W        W83075   6.858   7.245  25.847 -0.0346 -0.0909  0.0036
40163W        W83076  31.081  26.679   2.639  0.0635  0.0729  0.0318
40164W        W83077  26.995  24.622   0.033  0.2875 -0.2350  0.3997
40165W        W83078  23.593  12.757  21.679  0.2447 -0.1853  0.0854
40166W        W83079   0.099  18.645   5.491  0.0699  0.1659 -0.3537
40167W        W83080  30.734  18.773   7.583  0.2411  0.4648 -0.2462
40168W        W83081  22.919  16.913   0.490  0.0871  0.3240  0.2456
40169W        W83082  31.460  25.309   5.618  0.1970 -0.2367  0.2685
40170W        W83083  18.779  23.434   1.147 -0.2023  0.1189 -0.1285
40171W        W83084  27.261  12.982  14.713 -0.2121  0.1572  0.0825
40172W        W83085  29.870  25.744   0.746 -0.1146 -0.1047 -0.2544
40173W        W83086  24.645   1.142  16.896 -0.0933 -0.0446  0.0691
40174W        W83087  28.333  14.994  22.027 -0.2143 -0.1494 -0.0000
40175W        W83088  21.073  18.228   8.579 -0.1651 -0.1973  0.1933
40176W        W83089  30.397  10.428  23.757 -0.2940 -0.1427  0.3426
40177W        W83090   5.301  19.663   6.579  0.0513 -0.0116  0.2414
40178W        W83091  32.632  16.336   1.607  0.3524 -0.0466  0.0602
40179W        W83092   0.296   8.753  21.520 -0.2783  0.0201 -0.0324
40180W        W83093   0.368  12.296  22.376 -0.0384  0.0875  0.1794
40181W        W83094  24.572  20.186  24.008 -0.2868  0.0088  0.3254
40182W        W83095  26.936  22.622  22.560  0.1887  0.2061  0.0475
40183W        W83096  19.618   9.432   8.283 -0.0563 -0.1472  0.2609
40184W        W83097  29.090  30.952  29.730  0.2379  0.1464  0.2961
40185W        W83098  18.289  24.646  27.481 -0.0949  0.0028  0.3453
40186W        W83099  34.209  18.435   5.182 -0.1617  0.2558  0.1381
40187W        W83100   1.143  23.844  18.496  0.0770 -0.1456 -0.1693
40188W        W83101  29.793   5.225  24.671  0.3961 -0.2897 -0.1387
40189W        W83102  29.604  30.491   2.715  0.1650 -0.0417  0.2129
40190W        W83103  33.446  19.745  29.286  0.1178 -0.3493 -0.3252
40191W        W83104  33.928  22.317   4.050 -0.2007 -0.1545  0.2765
40192W        W83105  24.729  30.665   5.207 -0.3387 -0.1729  0.6053
40193W        W83106  27.564  25.371  21.074  0.0144 -0.1028  0.0391
40194W        W83107  23.756  23.675  14.321 -0.0659 -0.1967  0.1286
40195W        W83108  32.794  29.091   2.211  0.0357 -0.1147 -0.0681
40196W        W83109   5.582  14.766  26.836  0.2186  0.1266  0.0128
40197W        W83110   0.439  14.821  23.186  0.1583  0.2931 -0.0204
40198W        W83111  28.416  19.867  25.298  0.1194  0.0846 -0.0741
40199W        W83112  23.569  25.743  29.357 -0.4800 -0.0996 -0.0518
40200W        W83113  34.407  32.210   1.596  0.0977  0.1461  0.0031
40201W        W83114   2.833  18.248   1.169  0.0552 -0.2425 -0.1183
40202W        W83115  25.005  21.444   1.662  0.2394 -0.3192 -0.2333
40203W        W83116  13.860  20.030  27.428 -0.3587 -0.0921  0.0742
40204W        W83117  29.457  14.485  25.579  0.2651  0.1619  0.2269
40205W        W83118  22.780  22.794   1.718  0.2072  0.0112  0.3414
40206W        W83119   1.846  27.068  20.625 -0.1121 -0.2971 -0.0409
40207W        W83120  29.253  34.157   2.792  0.2638 -0.0658  0.0815
40208W        W83121  23.517  23.735   0.265 -0.3013  0.3190 -0.0395
40209W        W83122  11.737   2.886   4.942  0.4169 -0.2065  0.0336
40210W        W83123   3.638  11.176  25.498  0.0124  0.1643 -0.0094
40211W        W83124  27.676  25.328   5.233  0.2804 -0.1564  0.1649
40212W        W83125   0.025  28.670  17.455  0.0072 -0.1268 -0.1134
40213W        W83126   2.092  25.988   4.944  0.1126  0.0837 -0.2518
40214W        W83127  29.033  18.823   6.343  0.0996  0.1515  0.2830
40215W        W83128   0.694  25.333   4.574 -0.1482  0.3943 -0.1288
40216W        W83129  24.244  17.683   2.192 -0.2638 -0.0136  0.0305
40217W        W83130   0.323  18.681   0.249  0.2612 -0.2452  0.1086
40218W        W83131  16.514  27.893  24.865  0.0639 -0.0335  0.0756
40219W        W83132  27.123  29.699   3.085 -0.2463  0.2203 -0.0906
40220W        W83133  27.674  19.261  25.897  0.4069  0.1107 -0.0627
40221W        W83134  16.114  25.218  23.439 -0.2384 -0.1378 -0.0403
40222W        W83135  33.573  20.575   2.976  0.2085 -0.1211  0.3029
40223W        W83136  19.656  28.472   8.503 -0.0125 -0.2443  0.1044
40224W        W83137   0.413   7.731  26.253  0.0253 -0.1833 -0.2657
40225W        W83138   1.580  16.368   4.908  0.1535  0.0826 -0.2521
40226W        W83139  25.049  27.797  29.750 -0.2446  0.0437 -0.3046
40227W        W83140  25.265  16.367  19.674  0.2369 -0.1469 -0.0855
40228W        W83141  26.492  18.698  22.417 -0.4395 -0.1153 -0.1789
40229W        W83142  23.870  17.577  28.312 -0.0675  0.2229 -0.1461
40230W        W83143  18.281  20.157  22.547 -0.2028 -0.2514  0.0266
40231W        W83144  29.567  15.634  24.208 -0.0491  0.1029 -0.2609
40232W        W83145  20.906  21.285  20.311 -0.2302 -0.2301 -0.1603
40233W        W83146  33.038  16.972   3.419  0.0851 -0.0752 -0.0788
40234W        W83147  26.089  21.912  20.522  0.1900  0.3986  0.3428
40235W        W83148  19.003  26.621   2.246 -0.4548 -0.1903  0.2872
40236W        W83149  22.783  12.864   4.287  0.0427  0.0298 -0.1116
40237W        W83150  31.012  27.038  25.335  0.2761 -0.0992  0.0699
40238W        W83151  29.930  16.226  23.077  0.0710 -0.1483 -0.1584
40239W        W83152  15.987  22.934   5.587  0.3392  0.1398  0.2089
40240W        W83153  30.788  18.296  27.311  0.2040 -0.4055  0.0762
40241W        W83154  29.675  28.711   5.779  0.0017 -0.0607 -0.1048
40242W        W83155  17.099  18.379   3.339 -0.1670  0.0988 -0.1632
40243W        W83156  28.594  18.066  29.479  0.0372  0.0375 -0.1996
40244W        W83157  29.926  22.190   1.562 -0.2109  0.2770  0.1022
40245W        W83158  31.559  10.177  26.052  0.0947  0.0097  0.0459
40246W        W83159   0.653  23.699   8.581  0.1447  0.1789  0.3268
40247W        W83160   3.037  29.031  29.705 -0.1218 -0.2197 -0.0365
40248W        W83161  24.976  21.719   4.975  0.0601  0.1816  0.2571
40249W        W83162  32.571  29.871   2.985  0.2093  0.3623  0.0874
40250W        W83163  32.904  11.860  23.645  0.2405 -0.2072 -0.1606
40251W        W83164  12.250   5.417  24.866 -0.1853  0.0891  0.1502
40252W        W83165  23.619  22.513  25.263  0.0488 -0.2974  0.0105
40253W        W83166  28.102  28.169  29.528  0.2199  0.0977 -0.1764
40254W        W83167  26.031  13.897   2.705  0.0304  0.0600 -0.3008
40255W        W83168   1.935  27.365   3.666 -0.2579 -0.0377 -0.0444
40256W        W83169  26.320  23.950  29.325 -0.1255  0.0496 -0.0454
40257W        W83170  32.336  26.543   0.251 -0.1145  0.0747  0.1670
40258W        W83171  18.931  34.276  14.913 -0.0700 -0.0706 -0.1314
40259W        W83172   4.028  24.065  22.562 -0.1434  0.2069 -0.0315
40260W        W83173  31.613  25.946  15.365  0.0401 -0.1318 -0.1020
40261W        W83174  22.901  15.270  13.188  0.0170  0.1654 -0.5609
40262W        W83175  29.500   8.961  23.985  0.2489 -0.0553 -0.1824
40263W        W83176  32.544  17.482  27.863 -0.2505  0.1465 -0.1794
40264W        W83177  33.525  24.115  17.485 -0.2314  0.4049  0.1587
40265W        W83178   0.398  20.934  17.353  0.2900  0.0416  0.2115
40266W        W83179  30.574  28.548  18.411  0.3309 -0.0470  0.0262
40267W        W83180  28.190  26.424  13.184  0.1757  0.1490 -0.0879
40268W        W83181  30.433  22.346  18.681 -0.0222 -0.0999  0.2831
40269W        W83182  32.926  22.831  20.403 -0.1454  0.2562 -0.1489
40270W        W83183  22.086  10.945  22.864  0.2826 -0.0521  0.1065
40271W        W83184  28.803  21.203  14.113  0.0478  0.4697  0.2960
40272W        W83185  33.348  21.234  18.413  0.0289  0.2571 -0.2256
40273W        W83186  28.519  32.525  15.770 -0.0905  0.3966  0.0732
40274W        W83187  30.031  22.728  15.163  0.0472 -0.2123 -0.2802
40275W        W83188  21.115  12.406  25.853 -0.1144 -0.2958  0.0520
40276W        W83189   3.632  29.688  18.739  0.1647 -0.0040 -0.1618
40277W        W83190  29.028  26.776  13.255 -0.0016 -0.3721 -0.0811
40278W        W83191   5.370  24.213  20.364 -0.4554 -0.0034  0.2855
40279W        W83192  33.202  17.620  19.558 -0.1300 -0.1188  0.0460
40280W        W83193   3.315  31.831  19.752 -0.0864 -0.1440  0.1886
40281W        W83194  23.542  23.623  15.364 -0.2749  0.1645 -0.0096
40282W        W83195  32.019  26.755  14.549 -0.1356 -0.1724 -0.0103
40283W        W83196  28.815  10.661  15.424  0.1555 -0.0820  0.1933
40284W        W83197  30.563  13.711  18.604  0.0250  0.2332 -0.4953
40285W        W83198  30.143  28.254  13.306 -0.0080  0.0320  0.0867
40286W        W83199  30.604  24.997  25.386 -0.0492  0.1213  0.5049
40287W        W83200  33.541  18.085  27.348 -0.0134 -0.2256 -0.0927
40288W        W83201   1.258  16.652  19.752  0.1148  0.1160  0.3725
40289W        W83202  17.579  26.233  28.195  0.2141  0.0115  0.0286
40290W        W83203   7.930  24.561  21.595  0.1313 -0.2151  0.2886
40291W        W83204  29.125  20.636  16.783 -0.3478 -0.3161 -0.1001
40292W        W83205   1.685  29.723  15.570 -0.1248  0.0816 -0.2106
40293W        W83206  34.440  29.976  27.164  0.1017  0.0001  0.4593
40294W        W83207   0.588  27.327  15.016 -0.1293  0.1469 -0.0948
40295W        W83208   5.536   8.494  21.774 -0.0324  0.1374 -0.0045
40296W        W83209   0.685  14.645  14.587  0.3646  0.0503 -0.1245
40297W        W83210  22.008  25.382  18.153 -0.5452  0.0107  0.1992
40298W        W83211   3.580  19.265  14.423 -0.0565 -0.2346  0.2179
40299W        W83212  33.601  19.923  13.161 -0.1809  0.0606 -0.2503
40300W        W83213   3.959  18.165  15.082 -0.3810 -0.3132 -0.2100
40301W        W83214  27.571  22.354  25.352  0.1932 -0.4867  0.1392
40302W        W83215  24.671  32.508  22.672  0.2190  0.2292  0.1039
40303W        W83216  23.558  29.877  13.786 -0.0412 -0.2105  0.1953
40304W        W83217   4.331  22.600  16.821  0.3364  0.1101  0.0058
40305W        W83218  29.062  21.947  23.377 -0.2175 -0.2840  0.0839
40306W        W83219  28.592  26.001   1.853 -0.1170  0.0113  0.1103
40307W        W83220  31.773  25.817  21.176  0.0887 -0.1384  0.0454
40308W        W83221   9.084  17.654  13.317  0.2860 -0.1730 -0.0618
40309W        W83222  26.652  26.921  20.219  0.0993 -0.1650 -0.2338
40310W        W83223   6.955  17.115  27.381 -0.1927 -0.1728 -0.1150
40311W        W83224   1.309  12.532  15.928 -0.1777 -0.2572  0.2577
40312W        W83225  25.754  30.950  25.821  0.0754 -0.0032 -0.0227
40313W        W83226  20.487  17.414  15.119  0.1219  0.1621  0.0607
40314W        W83227  32.605  26.539  17.874 -0.0400 -0.0375  0.2329
40315W        W83228  18.031  28.868  25.024 -0.0321 -0.1415  0.0375
40316W        W83229   4.248  19.195  17.933 -0.0296  0.2051  0.0421
40317W        W83230  31.299   0.141  16.572 -0.0053 -0.0179  0.0760
40318W        W83231  24.177   0.479  20.758  0.0184  0.1156  0.0931
40319W        W83232  30.443  29.804  25.613 -0.0535 -0.1639 -0.0154
40320W        W83233  22.760  26.005  18.608 -0.2668  0.5453 -0.0101
40321W        W83234  29.554  30.145  15.939 -0.3107 -0.1493 -0.3827
40322W        W83235  24.338  19.511  25.755  0.1516  0.1536 -0.1856
40323W        W83236  33.972  23.414  28.855 -0.0075 -0.0089 -0.0034
40324W        W83237  29.234   0.884  16.838 -0.0787 -0.1817  0.0319
40325W        W83238   6.379  20.279  17.339 -0.2025 -0.0566 -0.0312
40326W        W83239  27.112  25.308  14.873 -0.0905  0.2049  0.3729
40327W        W83240  32.308  34.169  20.402 -0.0056 -0.1367 -0.0226
40328W        W83241  27.256  30.936  14.531 -0.4242  0.2495  0.0231
40329W        W83242   2.330  14.918  16.105  0.0851  0.0134  0.0325
40330W        W83243  30.310  17.517  13.917  0.4691  0.0658 -0.1317
40331W        W83244  23.291  17.732  23.216  0.1728 -0.0855 -0.0200
40332W        W83245  27.627  18.723  14.082 -0.4280 -0.2188  0.2442
40333W        W83246  31.931  19.592  15.398  0.2014 -0.0799  0.0548
40334W        W83247  24.308  31.990  16.525 -0.0088  0.0244  0.2422
40335W        W83248  26.812  21.958   0.385  0.1851  0.0673 -0.1073
40336W        W83249  29.488  20.378  17.674  0.4812 -0.1419  0.0570
40337W        W83250  29.162  14.812  14.244  0.1154  0.1769  0.2729
40338W        W83251   1.643  32.069  22.422  0.0900 -0.0470 -0.1010
40339W        W83252  30.491  15.242  13.948  0.0189 -0.2238  0.0420
40340W        W83253  33.701  17.237  25.082  0.0241  0.0070 -0.3083
40341W        W83254   3.912  12.808  15.899  0.1981 -0.3380 -0.2204
40342W        W83255  19.748  25.887  17.683  0.2223  0.0099 -0.0639
40343W        W83256   3.886  16.176  14.422  0.1318 -0.1654 -0.0167
40344W        W83257  28.949  32.657  23.480  0.1625 -0.1025 -0.3868
40345W        W83258  28.156  19.858  19.135  0.2133 -0.0011  0.1138
40346W        W83259  25.663  19.823  19.788 -0.2332  0.4028  0.0583
40347W        W83260   0.886  24.936  15.441  0.1921 -0.2073  0.1677
40348W        W83261  27.321  24.571  17.527 -0.3003  0.0859 -0.0018
40349W        W83262  33.093  19.141  15.274 -0.0195 -0.2566  0.0440
40350W        W83263  28.684  29.823  21.228 -0.0155  0.3694  0.2696
40351W        W83264  33.061  24.258  18.510  0.1588 -0.1560  0.1504
40352W        W83265  33.955  16.582  16.679 -0.0766 -0.0809  0.0334
40353W        W83266   0.367  29.248  26.956 -0.2481  0.0878  0.2981
40354W        W83267  26.914  21.247  17.764  0.2747  0.1473  0.3890
40355W        W83268  32.700  15.778  16.606  0.1284 -0.0669  0.1861
40356W        W83269  29.968  21.258  17.936 -0.0589 -0.0667  0.0960
40357W        W83270  31.824  21.146  15.288  0.0925  0.1403 -0.1808
40358W        W83271  29.691  19.229  18.352 -0.1562  0.1309 -0.0306
40359W        W83272   3.915   9.022  19.649 -0.0789  0.0424  0.1830
40360W        W83273  34.192  33.849  16.314 -0.0008 -0.2864  0.0624
40361W        W83274  30.105  18.795  15.730  0.3442 -0.1612  0.2773
40362W        W83275  32.836  34.416  16.180  0.2698  0.1496 -0.0138
40363W        W83276  22.893  33.073  18.385  0.3158  0.0944  0.0298
40364W        W83277  28.639  21.324  17.866 -0.0369  0.2394 -0.2001
40365W        W83278  23.767   0.692  16.025 -0.0626 -0.1326  0.1306
40366W        W83279  25.659  33.608  18.525  0.0857 -0.0326 -0.0520
40367W        W83280  25.957   2.402  23.036  0.1661  0.0251 -0.4208
40368W        W83281  29.295  18.354  25.241 -0.0446 -0.0082  0.1209
40369W        W83282  28.078  19.748  15.918  0.5746 -0.1641 -0.0298
40370W        W83283  23.345  21.361  12.818 -0.0504 -0.2560  0.0673
40371W        W83284  30.527  21.981  15.952  0.4006  0.0792  0.0328
40372W        W83285  26.259  23.261  13.362  0.1150  0.0966 -0.2229
40373W        W83286  21.270  25.609  14.228  0.3171  0.0027  0.1607
40374W        W83287  24.344  27.829  23.231 -0.2160  0.3344 -0.0397
40375W        W83288   6.570  26.681  19.630  0.0383  0.0481  0.0401
40376W        W83289   2.305  22.937  21.917 -0.4562  0.3527 -0.3686
40377W        W83290  22.227  26.279  13.302  0.1139 -0.0544  0.2499
40378W        W83291   2.012  15.888  27.034  0.1004 -0.1303 -0.0303
40379W        W83292  33.532  21.868  15.488 -0.0447 -0.2569  0.0539
40380W        W83293  27.973  18.098  25.277  0.1527  0.0543  0.1853
40381W        W83294  30.613  16.888  21.548  0.4569  0.4047 -0.1392
40382W        W83295   1.047  28.231  17.279  0.0410  0.0217  0.2048
40383W        W83296  27.738  19.634  14.894 -0.1339  0.2132 -0.1919
40384W        W83297   2.131  12.167  19.721  0.1585 -0.1580  0.1611
40385W        W83298  29.621  25.481  13.936  0.0465  0.1435 -0.0328
40386W        W83299  22.323  26.007  13.714 -0.2965  0.1857  0.0855
40387W        W83300   4.650  28.248  16.800 -0.0918  0.0976 -0.3521
40388W        W83301   0.242  22.897  16.838  0.0568 -0.0248  0.0021
40389W        W83302  21.038  28.497  15.658 -0.1593 -0.0915  0.2394
40390W        W83303   1.350  26.362  19.294  0.1422  0.0947 -0.1615
40391W        W83304  29.613  27.370  14.372  0.0113 -0.1098  0.0274
40392W        W83305  25.712  20.378  14.024  0.1549 -0.1118 -0.2058
40393W        W83306  22.670  28.862  15.537  0.1954 -0.0024 -0.0619
40394W        W83307   4.327  15.541  16.931 -0.0728  0.1711 -0.0161
40395W        W83308  33.710  15.655  22.662  0.0635  0.1017  0.3221
40396W        W83309  10.624  24.638  18.487 -0.0334  0.2742 -0.0506
40397W        W83310   1.532  22.394  18.166 -0.2375  0.0417 -0.1096
40398W        W83311  31.092  22.644  17.777 -0.3099 -0.1849 -0.0600
40399W        W83312   0.868  16.535  17.623  0.0310 -0.1966 -0.2271
40400W        W83313  32.529  13.413  16.022 -0.3762 -0.0812 -0.0394
40401W        W83314   0.034  26.548  15.870 -0.0654  0.0406  0.0666
40402W        W83315  24.635  23.461  27.234 -0.0336  0.4166 -0.1958
40403W        W83316  26.092  21.550  14.393  0.2541  0.0954  0.1743
40404W        W83317  22.326  29.932  21.268 -0.0586 -0.0307 -0.0222
40405W        W83318  31.291  25.141  22.893  0.1837 -0.0246 -0.2847
40406W        W83319  32.027  23.818  15.403  0.0870 -0.0414  0.0104
40407W        W83320  31.897  23.954  19.329 -0.1525 -0.4914  0.0070
40408W        W83321  25.702  26.321  19.104 -0.2223  0.1499  0.0043
40409W        W83322  33.035  29.171  16.566 -0.2182 -0.1110  0.1254
40410W        W83323   0.855  22.432  17.804  0.0333  0.3816  0.0040
40411W        W83324  29.727  20.610  14.884 -0.1284  0.0199 -0.1442
40412W        W83325  24.824  22.526  23.253 -0.1315  0.1811 -0.0733
40413W        W83326  31.963  30.533  19.521  0.0042 -0.3216 -0.0372
40414W        W83327  31.882  23.285  14.734  0.0753 -0.0577 -0.0714
40415W        W83328  31.647  29.413  17.950  0.0379 -0.0137 -0.3875
40416W        W83329  32.963  24.722  28.142  0.1266 -0.1837 -0.0967
40417W        W83330  30.606  18.769  20.311  0.0702  0.1534  0.1820
40418W        W83331  28.785  31.599  24.299  0.1243 -0.2156  0.2936
40419W        W83332  31.136  20.862  24.420  0.0444 -0.2798  0.1210
40420W        W83333   2.706  27.499  20.364 -0.0467  0.0835  0.2012
40421W        W83334  31.543  22.484  19.359  0.2954  0.1574 -0.1525
40422W        W83335  33.983   2.830  21.830  0.1527 -0.1344  0.1462
40423W        W83336  33.911  19.924  16.819 -0.0673  0.0373 -0.0895
40424W        W83337  28.060  23.892  12.995  0.0664 -0.0271 -0.1056
40425W        W83338   5.567  20.014  17.857  0.0926 -0.2748 -0.1688
40426W        W83339   1.159  23.158  18.385  0.1459 -0.1309  0.1539
40427W        W83340   4.617   0.306  20.805  0.3069  0.3117 -0.4914
40428W        W83341   4.960  24.047  19.398  0.0884 -0.0843 -0.0446
40429W        W83342  34.435  15.433  19.858  0.1795 -0.0821  0.0362
40430W        W83343  25.450  24.662  15.977  0.1695 -0.0052 -0.2322
40431W        W83344  21.548  32.512  16.313  0.2241  0.1291  0.0973
40432W        W83345  32.591  27.343  19.527 -0.1440  0.2906 -0.0992
40433W        W83346  24.230  33.566  23.573 -0.0974  0.0381 -0.3557
40434W        W83347   2.951  26.936  21.138 -0.1553 -0.1404  0.1265
40435W        W83348  31.319  13.801  21.951  0.2275 -0.0682  0.4136
40436W        W83349  30.462  17.256  21.243 -0.0523 -0.1326 -0.0579
40437W        W83350  32.475  25.026  14.006 -0.1645  0.0755  0.2472
40438W        W83351  24.376  26.652  27.977 -0.0354 -0.1615  0.1570
40439W        W83352  11.057  18.129  19.210  0.0432 -0.0097 -0.4162
40440W        W83353  26.385  22.699  16.284 -0.0144 -0.0910 -0.3139
40441W        W83354  33.068  23.102  13.511 -0.0386 -0.1579  0.3775
40442W        W83355  27.866  18.049  13.569  0.3455 -0.1109  0.0330
40443W        W83356   1.854  29.621  22.076 -0.0585 -0.3835  0.2227
40444W        W83357  24.683  24.745  16.486  0.2008  0.1344 -0.0339
40445W        W83358  31.729  25.411  14.169  0.1714 -0.0996 -0.0946
40446W        W83359  24.674  27.070  26.711  0.0824  0.3613 -0.0649
40447W        W83360  30.026  28.649  19.080  0.3747 -0.0423 -0.0189
40448W        W83361  27.504  32.297  14.913 -0.1062  0.0879 -0.4396
40449W        W83362  34.190  26.820  18.183  0.0303 -0.3012 -0.0353
40450W        W83363  20.762  28.458  19.922 -0.1844  0.1848  0.0317
40451W        W83364  32.664  19.662  18.168  0.0660  0.0670 -0.0017
40452W        W83365  27.899  20.397  24.346  0.1871 -0.0627  0.2732
40453W        W83366   2.609  22.428  16.220  0.1761 -0.0887 -0.1304
40454W        W83367  22.965  29.888  27.208  0.1129  0.0815 -0.1064
40455W        W83368  13.146  21.267  16.982  0.0463  0.0727 -0.0409
40456W        W83369  28.172  33.060  18.635  0.1557 -0.1190 -0.2778
40457W        W83370  30.547  22.057  13.852 -0.0563 -0.2242  0.0315
40458W        W83371  30.009  30.622  14.573  0.3234  0.0086  0.1300
40459W        W83372  22.427  13.704  24.185  0.2515 -0.0628 -0.2212
40460W        W83373  25.018  21.841  23.969 -0.3582  0.2559  0.0302
40461W        W83374  11.064  16.777  13.138 -0.1842  0.0551 -0.0082
40462W        W83375   0.431   0.758  23.808  0.2855 -0.0886 -0.2043
40463W        W83376   0.566  25.654   0.452  0.1718 -0.0440 -0.0990
40464W        W83377  30.440  20.467  17.882  0.1458 -0.2052  0.1025
40465W        W83378  28.172  30.165  16.010 -0.0540 -0.0859  0.4416
40466W        W83379  33.358  20.128  26.433  0.5358 -0.2033 -0.2230
40467W        W83380  28.914  14.018  17.372 -0.0341 -0.2004 -0.1699
40468W        W83381  26.767  23.602  15.980 -0.0803 -0.4393 -0.0342
40469W        W83382  29.657   7.892  20.109 -0.2259 -0.1549  0.1079
40470W        W83383  27.160  29.180  22.429 -0.1325 -0.1109  0.1315
40471W        W83384  31.747  18.603  13.033 -0.3182 -0.2153 -0.0966
40472W        W83385  30.382  30.787  15.699  0.1104 -0.1514  0.0557
40473W        W83386  24.824  25.774  22.377 -0.1383 -0.0314  0.3896
40474W        W83387  33.344  25.741  14.903 -0.2122  0.4455  0.3020
40475W        W83388  21.751  25.110  14.303  0.0439  0.2015 -0.1187
40476W        W83389  32.207  24.469  26.105  0.0034 -0.0362 -0.0742
40477W        W83390   1.181  17.480  15.781  0.1756 -0.0402  0.2641
40478W        W83391  25.009  27.235  15.237 -0.0947 -0.1510 -0.2194
40479W        W83392  31.111  17.300  14.285 -0.2462 -0.2987  0.0265
40480W        W83393  25.652  20.188  20.363  0.1810  0.1146 -0.0923
40481W        W83394  27.815  28.906  18.558  0.1821 -0.0696 -0.1002
40482W        W83395  29.367  26.513  24.868 -0.2499  0.0951 -0.1864
40483W        W83396  32.139  20.960  22.521  0.2014 -0.0356 -0.4855
40484W        W83397  32.399  21.082  17.167 -0.0356  0.0143  0.0116
40485W        W83398  34.250  17.656  22.654  0.1731 -0.0434  0.2367
40486W        W83399  33.767   9.990  17.355  0.0953 -0.0131 -0.1232
40487W        W83400  25.682  27.728  25.209  0.3176  0.1503 -0.2377
40488W        W83401  34.402  19.066  16.506 -0.2778 -0.2778  0.1434
40489W        W83402   6.367  26.170  15.453  0.0476  0.0613 -0.1603
40490W        W83403  34.399  27.836  14.360  0.0861 -0.2107 -0.1851
40491W        W83404  34.094  10.721  22.019  0.2282 -0.2945  0.1869
40492W        W83405   6.934  23.649  20.671 -0.0043  0.4101  0.0815
40493W        W83406   3.622  31.119  20.893 -0.1785  0.1943  0.2007
40494W        W83407   0.096  22.314  15.332 -0.0463  0.2589 -0.1467
40495W        W83408   3.325  10.437  15.544  0.1050  0.1892  0.0241
40496W        W83409  30.162  31.071  15.337 -0.3076 -0.0733  0.2307
40497W        W83410   3.283   7.119  16.384  0.1235  0.1345 -0.0801
40498W        W83411  18.976  29.102  15.569 -0.1419 -0.2167  0.1533
40499W        W83412  33.950  19.005  14.513 -0.2183  0.0238  0.0111
40500W        W83413  24.815  33.334  14.447  0.3614  0.0209  0.2688
40501W        W83414  17.148  24.110  15.769  0.0210 -0.0520  0.2533
40502W        W83415  26.560  29.804  16.853  0.1708 -0.0796  0.1392
40503W        W83416  14.146  18.519  15.682  0.0088  0.0753  0.4107
40504W        W83417   0.049  22.671  15.745 -0.0473 -0.0507  0.1981
40505W        W83418  28.095  19.659  15.437 -0.3231 -0.1998 -0.1146
40506W        W83419   1.628  21.899  13.650  0.1435  0.1896 -0.1939
40507W        W83420  26.210  16.863  21.455  0.2079 -0.0298  0.0104
40508W        W83421  31.435  22.633  17.451  0.1484 -0.0340 -0.3163
40509W        W83422  31.295  14.168  17.798  0.1554 -0.0933 -0.0118
40510W        W83423   7.013  24.344  17.305 -0.3860 -0.2414  0.1159
40511W        W83424  30.326   0.333  15.885  0.2116  0.0453 -0.2450
40512W        W83425   1.951  14.942  19.135  0.1818  0.0054 -0.0779
40513W        W83426  33.448  26.717  18.521 -0.4383  0.0152 -0.2181
40514W        W83427  30.554  20.710  23.158  0.1525  0.3248  0.1496
40515W        W83428  32.606  30.881  15.129  0.1185  0.1157  0.0313
40516W        W83429  27.215  21.886  13.767 -0.2480  0.3110  0.4477
40517W        W83430   2.583  27.329  17.953 -0.0886  0.2592 -0.2987
40518W        W83431  19.649  28.960  20.546 -0.1451  0.1666  0.0442
40519W        W83432  14.122  12.734  16.800 -0.0305  0.2119 -0.3706
40520W        W83433  20.527  23.857  16.473 -0.0152 -0.1041  0.2396
40521W        W83434  30.822  18.183  20.128  0.0701 -0.1153 -0.1116
40522W        W83435   3.836  18.828  14.355  0.0583 -0.1863 -0.4182
40523W        W83436  27.139  14.693  17.758  0.2048 -0.0558 -0.1123
40524W        W83437  32.320  15.669  24.149  0.3654 -0.0033 -0.0500
40525W        W83438  33.166  29.057  14.112 -0.0505  0.4776 -0.0028
40526W        W83439  31.490  25.738  16.981  0.1156  0.3350 -0.1350
40527W        W83440  29.308   4.355  18.459  0.0823 -0.0536 -0.2624
40528W        W83441  32.564  27.500  25.335 -0.0887  0.0973 -0.0033
40529W        W83442  27.578  30.781  15.428  0.2939 -0.3236  0.2479
40530W        W83443  23.211  27.981  13.586 -0.2587 -0.1175  0.0947
40531W        W83444  27.329  18.447  15.982 -0.0104 -0.2146 -0.3244
40532W        W83445  31.332  19.335  16.133  0.0292  0.2967 -0.2923
40533W        W83446   3.324  24.533  18.186  0.0175  0.1112  0.0312
40534W        W83447  33.632  22.177  18.457 -0.3399  0.0440 -0.0643
40535W        W83448  33.057  14.928  19.932 -0.1216  0.0057  0.2384
40536W        W83449  27.315  26.431  16.702  0.2810  0.0172  0.0375
40537W        W83450   4.402  12.748  16.053  0.1190  0.0641 -0.0880
40538W        W83451  31.919  30.696  16.330  0.0256  0.1696 -0.0413
40539W        W83452  30.402  19.619  21.814 -0.0447 -0.3906 -0.1865
40540W        W83453  25.289  12.847  20.350 -0.1297  0.0043  0.1979
40541W        W83454  32.197  24.912  26.920 -0.1381 -0.1407  0.0057
40542W        W83455  31.073  30.180  15.153 -0.1230 -0.3802  0.2937
40543W        W83456   2.684  32.793  23.338 -0.0727  0.4085  0.1948
40544W        W83457  29.907  18.638  16.965 -0.0249 -0.1620 -0.0663
40545W        W83458  33.960  29.969  17.250 -0.2369 -0.0024  0.1308
40546W        W83459  11.785  29.736   1.586 -0.2492  0.0074 -0.0153
40547W        W83460   6.119  18.434  17.370  0.0040  0.0296 -0.2771
40548W        W83461  29.717  34.328  15.914 -0.0047 -0.0573 -0.2576
40549W        W83462  32.236  25.488  17.549 -0.2867 -0.4548 -0.0071
40550W        W83463   4.683  21.317  13.379  0.0273  0.0722 -0.0666
40551W        W83464  32.625   0.035  17.829 -0.2507  0.0601  0.0804
40552W        W83465  22.067  28.549  21.595 -0.2082  0.0906  0.1858
40553W        W83466  31.203  23.448  18.914  0.1962 -0.0895 -0.3062
40554W        W83467  31.286  30.330  16.825  0.0367  0.0593  0.2460
40555W        W83468  29.844  24.153  16.588 -0.0269  0.1595 -0.2088
40556W        W83469  30.854  25.497  16.169 -0.0321 -0.0404 -0.0552
40557W        W83470  28.762  28.247  26.512  0.2961  0.3917 -0.3082
40558W        W83471   2.762  22.986  20.000  0.1848  0.2056  0.3509
40559W        W83472  11.424  24.563  22.138 -0.3000  0.1467  0.1196
40560W        W83473  22.728  30.670  14.426 -0.1157  0.0047 -0.1365
40561W        W83474  27.432   8.284  23.151  0.0005 -0.1341  0.1792
40562W        W83475   2.122  25.867  18.719  0.3307 -0.0312 -0.1168
40563W        W83476  33.177  17.735  16.716  0.0858 -0.0801 -0.2728
40564W        W83477  31.345  21.241  13.867 -0.0751  0.2837  0.2483
40565W        W83478  28.068  32.262  27.566 -0.0440  0.0581 -0.0804
40566W        W83479  28.300  13.093  22.060 -0.0557 -0.1185  0.0194
40567W        W83480  25.962  18.758  14.660  0.2448 -0.2648 -0.2162
40568W        W83481  22.612  27.554  15.403 -0.3795  0.0749 -0.0060
40569W        W83482   4.373  26.557  21.721  0.1477  0.2566  0.1602
40570W        W83483   0.696  19.012  20.659 -0.0947 -0.1112  0.3948
40571W        W83484   6.155  24.263  22.904 -0.0406  0.1844 -0.0366
40572W        W83485  33.203  28.513  20.707 -0.1010  0.2259  0.2210
40573W        W83486   0.974   0.375  22.621 -0.1429 -0.2847 -0.4201
40574W        W83487  30.376  14.371  15.555  0.2509  0.3861  0.1384
40575W        W83488  33.334  19.842  15.452  0.0516  0.0701 -0.0940
40576W        W83489  33.122   4.374  19.619 -0.2807  0.2412  0.1824
40577W        W83490  23.010  24.833  14.015 -0.4155 -0.2787  0.1311
40578W        W83491  30.961  29.067  29.735 -0.4381 -0.0501  0.1634
40579W        W83492   1.934  23.606  25.061  0.1327  0.2315  0.4202
40580W        W83493  33.898  29.949  20.325  0.3543 -0.0222 -0.2154
40581W        W83494  33.196  22.339  15.605 -0.1072 -0.0890  0.1912
40582W        W83495  30.442  17.456  15.609  0.0692  0.1509  0.0664
40583W        W83496  27.230  22.919  22.165  0.2803 -0.2011  0.0637
40584W        W83497  23.437  23.659  18.069 -0.2751 -0.0934  0.1354
40585W        W83498  33.435  26.574  14.482  0.0639  0.0662  0.0999
40586W        W83499   3.256  10.646  16.012  0.1006 -0.0249  0.1837
40587W        W83500  31.932  20.627  25.151  0.0729  0.2408 -0.0955
40588W        W83501  18.405  26.549  15.813  0.1266  0.0515  0.2794
40589W        W83502  31.739  33.245  18.347 -0.3050 -0.2731 -0.0890
40590W        W83503   2.606  19.380  22.833  0.1594  0.0684 -0.2654
40591W        W83504  24.508  14.668  14.064  0.1036  0.4444  0.1585
40592W        W83505  21.106  21.283  18.129 -0.2885  0.0386 -0.2528
40593W        W83506  29.657  29.524  17.299 -0.2811  0.4882 -0.2172
40594W        W83507  32.674  18.531  17.039 -0.2360 -0.4663  0.2826
40595W        W83508  33.301  27.440  14.164  0.2655  0.0848 -0.0888
40596W        W83509  30.547  29.848  24.534  0.2573 -0.0574 -0.1057
40597W        W83510  31.417  28.793  14.057 -0.1585 -0.1442 -0.2141
40598W        W83511  24.931  25.291  13.779  0.1468  0.0343 -0.3962
40599W        W83512  27.577  26.167  13.158 -0.1878 -0.1924 -0.0992
40600W        W83513  33.961  30.550  19.564 -0.0784  0.1252  0.2993
40601W        W83514  31.853  31.774  14.802 -0.0695  0.1399  0.1413
40602W        W83515  27.421  15.904  14.106  0.1463  0.0288 -0.0262
40603W        W83516  34.260  19.016  18.575 -0.0123  0.0523 -0.0218
40604W        W83517  31.409  26.317  15.662  0.1715  0.4186 -0.1909
40605W        W83518  30.918  31.586  24.221 -0.0508  0.2970  0.0485
40606W        W83519  30.992  15.699  22.381 -0.0659 -0.2565  0.0749
40607W        W83520  23.570  25.708  23.984  0.3409  0.1541  0.3936
40608W        W83521  25.063   1.941  22.616 -0.0672  0.0287  0.0417
40609W        W83522  25.056  27.067  14.617  0.2283  0.0866  0.0238
40610W        W83523  21.822  16.582  12.076  0.1294 -0.2222  0.1604
40611W        W83524   2.723  16.641  19.598 -0.1107  0.0414  0.1559
40612W        W83525  31.838   9.164  16.486  0.3607 -0.0737 -0.0249
40613W        W83526  31.352  22.838  16.541  0.0266 -0.1969 -0.0165
40614W        W83527  28.797  29.732  20.166 -0.0081  0.1144 -0.2032
40615W        W83528   0.985  24.497  15.599  0.2257 -0.3986 -0.1030
40616W        W83529  26.552   9.664  20.614 -0.3147  0.1716 -0.0932
40617W        W83530  31.602  26.710  26.733  0.1902  0.0677  0.1070
40618W        W83531  27.442  16.261  15.291 -0.0346  0.2169  0.1237
40619W        W83532  25.972  21.145  17.454  0.3094  0.1233 -0.1425
40620W        W83533  32.253  22.378  23.214  0.2190  0.0143 -0.0560
40621W        W83534  12.950  22.160  15.958  0.4032 -0.0608  0.0591
40622W        W83535  12.804  29.218  20.281 -0.1408 -0.1079  0.3586
40623W        W83536  28.204  24.723  13.482 -0.3563 -0.1423 -0.0782
40624W        W83537  25.091  17.949  18.747  0.0786 -0.0574  0.0618
40625W        W83538  31.508  20.110  16.808 -0.0720  0.2047 -0.1614
40626W        W83539  26.138  26.598  14.660  0.2777 -0.0174  0.1631
40627W        W83540  34.139  18.102  24.733 -0.0300 -0.1283  0.2744
40628W        W83541   7.509  14.124  16.060 -0.2633 -0.2322  0.2652
40629W        W83542  32.821  22.369  17.776 -0.0533 -0.0474  0.1606
40630W        W83543   2.471  23.093  16.985  0.2178 -0.5724 -0.0431
40631W        W83544  31.238  18.954  13.792  0.1889  0.0004 -0.1728
40632W        W83545  17.370  21.699  19.305 -0.2575 -0.4331 -0.2144
40633W        W83546  23.271  24.540  13.256  0.3125 -0.0609 -0.2154
40634W        W83547   3.020  11.303  17.532 -0.3779 -0.1903  0.2629
40635W        W83548  27.760   2.053  14.083  0.0939 -0.0702  0.2150
40636W        W83549  16.138  23.884  14.653 -0.3814 -0.1883  0.3232
40637W        W83550   2.167  24.852  16.985 -0.3937  0.0072  0.1648
40638W        W83551  27.204  26.747  15.706 -0.0260  0.3005 -0.2766
40639W        W83552  28.360  27.436  22.256  0.1368 -0.0712  0.1335
40640W        W83553  27.612  29.325  21.706 -0.2094  0.2514  0.1217
40641W        W83554  28.713  15.564  18.024  0.1885  0.0868  0.0353
40642W        W83555  31.001  23.326  18.183  0.0906  0.3677  0.2972
40643W        W83556  29.078  24.337   0.810  0.2967 -0.0049  0.1639
40644W        W83557   0.718  18.422  25.676 -0.2158  0.1345 -0.3557
40645W        W83558  34.324  29.010  20.158  0.3368  0.0871  0.1828
40646W        W83559  27.738  32.779  17.518  0.0822  0.1480 -0.1989
40647W        W83560  27.653  28.494  20.397  0.0345 -0.2421  0.1891
40648W        W83561   2.994  22.022  20.525  0.0678 -0.0436 -0.0653
40649W        W83562  23.653  24.924  15.413 -0.0602  0.2402 -0.2729
40650W        W83563  31.014  18.775  14.505  0.1909 -0.1324  0.1793
40651W        W83564  29.573  19.935  19.720  0.0155  0.0192 -0.0941
40652W        W83565  25.035  15.681  14.457 -0.0386 -0.0192 -0.1089
40653W        W83566   6.919  22.608  14.550  0.1915  0.0884  0.0371
40654W        W83567  34.209  31.510  24.972  0.1413 -0.1545 -0.2353
40655W        W83568  32.320  29.842  22.313  0.0231 -0.0757  0.3043
40656W        W83569  31.519  28.310  14.881  0.1411  0.2586 -0.2796
40657W        W83570  26.935  11.973  16.328 -0.0780  0.1438  0.1245
40658W        W83571  21.390  22.688  14.801  0.1777 -0.0424 -0.2872
40659W        W83572  29.883  16.809  17.731 -0.0500  0.2608 -0.2120
40660W        W83573  27.289  24.567  20.680 -0.2526  0.2020 -0.1771
40661W        W83574  29.109  22.260  21.004  0.1652  0.0862 -0.0550
40662W        W83575  30.668  29.465  20.000 -0.1620 -0.0446 -0.1147
40663W        W83576  32.426  22.987  19.942  0.1565  0.0413  0.0494
40664W        W83577   4.839  24.933  16.561  0.0117 -0.1500 -0.3037
40665W        W83578  33.750  31.906  25.170  0.2736 -0.1360  0.0857
40666W        W83579  29.133  25.859  29.464  0.0570  0.1117  0.1107
40667W        W83580   4.346  17.748  21.858 -0.1160 -0.2326  0.0476
40668W        W83581  31.839  21.653  27.621  0.0872  0.1254 -0.1185
40669W        W83582  26.525  22.522  20.627  0.2212 -0.0150  0.0894
40670W        W83583   5.551  13.932  18.391  0.1592 -0.2044 -0.3492
40671W        W83584  28.233   0.847   0.966  0.4393  0.1186  0.2580
40672W        W83585   5.290  25.833  16.427  0.0821  0.0241 -0.2175
40673W        W83586  23.573  10.933  24.014 -0.1104 -0.0748 -0.2116
40674W        W83587  28.513  23.235  15.483 -0.3217  0.0291  0.3160
40675W        W83588  34.304  31.301  25.929 -0.0587 -0.0129  0.0404
40676W        W83589   0.380  24.452  23.855  0.1043  0.3134  0.2780
40677W        W83590  28.509  30.204  19.982 -0.0540 -0.0920  0.0323
40678W        W83591  32.021  28.472  19.124 -0.0741 -0.3674 -0.1857
40679W        W83592  25.538  30.567  22.734  0.1334 -0.0113 -0.0080
40680W        W83593  27.796  15.845  17.676 -0.3967 -0.0795  0.0396
40681W        W83594   0.477  15.249  13.753 -0.1157  0.2014  0.0188
40682W        W83595  19.399   3.706  22.201  0.1672  0.2224 -0.3268
40683W        W83596  24.426  20.647  12.619 -0.1288 -0.3987  0.0642
40684W        W83597  30.552  27.587  24.267 -0.3019 -0.4066 -0.0283
40685W        W83598  34.079  24.005  26.521 -0.0607  0.0012  0.0819
40686W        W83599  23.582  23.639  13.411  0.1235  0.2150  0.1862
40687W        W83600   1.889  18.623  19.312  0.0739  0.0032 -0.4674
40688W        W83601  32.277  21.066  15.621 -0.0220 -0.0119  0.0937
40689W        W83602  30.531  18.235  22.151 -0.1693  0.2530  0.1161
40690W        W83603   5.678  11.626  26.271 -0.3653  0.0736  0.1730
40691W        W83604  28.636  25.641  18.148 -0.0829  0.0514 -0.1929
40692W        W83605  30.306  31.142  16.419  0.0877  0.2167 -0.0387
40693W        W83606  21.413  29.517  28.397  0.0725 -0.4238  0.4778
40694W        W83607  29.138  21.544  22.057  0.2407  0.2589 -0.1939
40695W        W83608   2.015  25.384  24.477  0.3561  0.2229  0.1504
40696W        W83609  31.883  19.862  23.425  0.0997  0.1742  0.1783
40697W        W83610  34.176  31.526  23.502 -0.1036 -0.1039 -0.4585
40698W        W83611  32.231  25.386  15.839 -0.5763 -0.0215 -0.1762
40699W        W83612   5.057  17.118  25.989  0.1944  0.1253 -0.1611
40700W        W83613  32.258   0.415  23.999 -0.0348 -0.2085 -0.1204
40701W        W83614  28.983  20.564  25.408  0.2220 -0.0183  0.1607
40702W        W83615  32.668  25.658  23.616 -0.0886  0.3601 -0.0975
40703W        W83616  32.145  27.743  23.915 -0.1626 -0.0270 -0.1415
40704W        W83617   4.856  13.385  17.246 -0.0100  0.2574 -0.1112
40705W        W83618  31.715  31.494  19.033  0.0862  0.1484  0.1065
40706W        W83619  23.946  17.090  22.422 -0.1057  0.0666  0.3120
40707W        W83620  34.040  23.437  15.005  0.0217 -0.0677  0.1190
40708W        W83621  30.057  16.692  20.462  0.1467 -0.1702  0.0764
40709W        W83622  30.638  23.500  18.892 -0.0633  0.0542  0.1966
40710W        W83623  26.596  10.026  21.202  0.0674  0.0695 -0.0195
40711W        W83624  20.486  30.017  18.764 -0.1967 -0.0509  0.0755
40712W        W83625  31.267  30.809  18.639  0.1579  0.0863 -0.1494
40713W        W83626  26.054  33.353  14.758  0.1806  0.0701 -0.3389
40714W        W83627   0.608  26.382  27.431 -0.1060 -0.0282 -0.0860
40715W        W83628  22.951  15.093  12.306 -0.1176 -0.2933 -0.4508
40716W        W83629  32.436  26.746  23.798  0.3186  0.0555  0.1277
40717W        W83630  24.640  19.967  19.470  0.2345  0.0191 -0.0466
40718W        W83631  33.279  17.281  16.454 -0.1917  0.1414  0.0909
40719W        W83632   1.787  15.082  14.829 -0.0397  0.1044  0.0129
40720W        W83633  34.329  23.302  18.308 -0.1054  0.1393 -0.1195
40721W        W83634  10.341  23.321  15.386 -0.0488 -0.2504 -0.0373
40722W        W83635  33.210  15.823  26.199  0.2891  0.2820  0.0334
40723W        W83636   4.669  19.350  24.913 -0.1902  0.1189  0.3112
40724W        W83637  32.717  22.649  14.356 -0.0939  0.0125  0.3195
40725W        W83638  29.718  19.806   0.585  0.2340 -0.0265 -0.0453
40726W        W83639  27.651  26.446  15.429 -0.0616 -0.0867  0.0643
40727W        W83640   5.893  26.084  22.483  0.1042 -0.0446  0.0023
40728W        W83641  31.124  30.815  15.522  0.0034 -0.0968 -0.2011
40729W        W83642  30.190  26.612  23.372 -0.0349  0.2481  0.3847
40730W        W83643  34.458   0.475  23.235 -0.3946 -0.2065 -0.3816
40731W        W83644  29.193  27.893  13.540 -0.4392  0.1609  0.0528
40732W        W83645  30.403  23.730  15.294 -0.0991  0.1845  0.1827
40733W        W83646   0.609  26.982  19.406 -0.0066  0.0628  0.2492
40734W        W83647   6.634  11.728  22.779  0.4013  0.1482  0.1689
40735W        W83648  29.785  19.274  22.763  0.0625  0.0994  0.1346
40736W        W83649  34.072  30.106  29.153  0.4402  0.0569 -0.1554
40737W        W83650  29.042  22.607  17.156 -0.0534  0.0283 -0.0692
40738W        W83651  22.308  34.313  24.335 -0.1186  0.3022  0.0097
40739W        W83652  26.890  33.716  24.120  0.0081 -0.0248  0.1263
40740W        W83653   3.653  15.558  16.970 -0.0203  0.0022  0.2697
40741W        W83654  19.164  26.294  27.445 -0.0930 -0.3336 -0.3007
40742W        W83655  30.612  29.725  28.023 -0.0452 -0.0744 -0.0217
40743W        W83656   4.802  19.797   3.709  0.0825  0.5153 -0.2470
40744W        W83657  26.726  20.667  16.167  0.1373  0.0508 -0.3092
40745W        W83658  33.989  25.579  22.698  0.1430 -0.0137  0.0707
40746W        W83659   9.293  18.091  14.134 -0.1283  0.1959  0.1891
40747W        W83660  20.840  13.282  22.942 -0.0870 -0.0134 -0.0137
40748W        W83661  25.605  26.295  26.800 -0.2096  0.2721  0.1929
40749W        W83662   0.578  30.625  17.348  0.4083 -0.2001  0.3236
40750W        W83663  15.144  23.267  16.085  0.0035 -0.0912 -0.2841
40751W        W83664  28.254  28.379  21.110 -0.1415  0.0434 -0.0731
40752W        W83665  30.058  30.830  22.540  0.0871  0.0593 -0.0313
40753W        W83666  20.003  25.841   0.493  0.3563  0.2168  0.1068
40754W        W83667  26.035  13.468  21.125 -0.1902 -0.1291 -0.1973
40755W        W83668  29.923  28.819  14.237 -0.1535  0.0528 -0.1631
40756W        W83669  29.276  31.830  28.013 -0.1374 -0.1246 -0.1506
40757W        W83670  25.344  24.658  18.348  0.1115  0.3126  0.0334
40758W        W83671  33.529  26.275  14.923 -0.0174 -0.0376 -0.0125
40759W        W83672   0.211  30.067   0.606  0.0820 -0.0029  0.1301
40760W        W83673  25.611   2.195  17.627  0.3235  0.0204  0.0178
40761W        W83674  33.482  28.841  16.521 -0.3930 -0.1374  0.1835
40762W        W83675  32.251  12.945  25.556 -0.1860 -0.2398 -0.1920
40763W        W83676   2.143  30.488  23.534  0.0450 -0.0962 -0.0030
40764W        W83677  27.644  15.301  20.129  0.0449  0.1405 -0.2455
40765W        W83678  24.827  18.985  19.088 -0.0385 -0.2829  0.1144
40766W        W83679   3.296  27.747  16.189  0.0564  0.0535  0.0526
40767W        W83680  31.664  20.939  14.893 -0.2125 -0.2331 -0.4944
40768W        W83681  18.098  21.036  17.834 -0.0112  0.0701  0.1925
40769W        W83682   1.824  17.582  20.377 -0.0174 -0.2195 -0.1782
40770W        W83683  19.294  25.391  20.433  0.2422 -0.1021  0.0965
40771W        W83684  33.437  21.628  19.841  0.1990 -0.3781  0.2151
40772W        W83685  26.716  21.911  26.605 -0.2410 -0.3647 -0.1887
40773W        W83686  31.789  20.837  24.355  0.1541 -0.0687  0.3053
40774W        W83687  21.903  24.307  13.599  0.1365  0.2203  0.6577
40775W        W83688   0.307  19.455  23.425  0.0928 -0.4421 -0.0312
40776W        W83689  28.606   3.468  17.664  0.2419 -0.1130 -0.0361
40777W        W83690  28.990   0.003  16.953 -0.0017 -0.1283 -0.2053
40778W        W83691  19.922  30.177  22.909 -0.1960  0.0270  0.0682
40779W        W83692   7.702  23.157  22.955 -0.3774 -0.2054 -0.0435
40780W        W83693  33.641  25.098  17.342 -0.2705 -0.1535  0.2976
40781W        W83694  32.516  15.075  26.849  0.5060 -0.3810  0.3362
40782W        W83695  23.324  23.072  22.625  0.0540 -0.2420 -0.1525
40783W        W83696   0.537  29.077  15.372 -0.1084 -0.3095  0.0492
40784W        W83697  25.602  18.600  25.717  0.1719 -0.1219  0.2063
40785W        W83698   1.724  31.581  15.197 -0.1751 -0.0015  0.1336
40786W        W83699   0.932  18.866  17.527  0.0830 -0.0227 -0.3776
40787W        W83700  30.550  26.850  20.794 -0.0799 -0.3372  0.0056
40788W        W83701  28.324  10.008  18.551  0.2034 -0.1004 -0.0227
40789W        W83702  28.980  13.121  20.952  0.0023  0.2126 -0.1774
40790W        W83703  18.993  22.586  27.596 -0.2606  0.1540 -0.1155
40791W        W83704  28.445  23.600  22.508 -0.2997  0.1578  0.0718
40792W        W83705   1.481  18.935  19.381 -0.0506  0.0533 -0.0114
40793W        W83706  33.307  18.121  16.470  0.0628  0.1139  0.0269
40794W        W83707   1.769  34.167  17.816  0.0304  0.1920 -0.3758
40795W        W83708  22.512  22.079  24.653  0.4727  0.1373  0.1148
40796W        W83709   0.355   0.941  20.336  0.2558  0.0061 -0.3383
40797W        W83710  33.105  33.677  21.328 -0.1656 -0.0879  0.1369
40798W        W83711  31.554  15.422  17.489  0.1644 -0.0447 -0.2511
40799W        W83712  22.962  30.052  13.466  0.1763 -0.0132 -0.2353
40800W        W83713  27.932  20.252  12.814 -0.1735 -0.1438  0.0241
40801W        W83714  21.594  28.501  15.659  0.1007  0.4305 -0.2816
40802W        W83715  21.884  21.094  23.046 -0.2928  0.0188  0.0733
40803W        W83716  28.912  29.977  19.037 -0.1193 -0.0017  0.3000
40804W        W83717  17.902  20.275  27.582  0.3056  0.0803  0.0796
40805W        W83718  23.076  33.811  21.822 -0.0662 -0.2282 -0.2243
40806W        W83719  19.884  25.322   0.625  0.1857 -0.3329  0.2770
40807W        W83720   1.056  30.379  16.582 -0.1684  0.3644 -0.0056
40808W        W83721  29.508  22.925  21.004 -0.0923  0.4346  0.0600
40809W        W83722  23.706  19.680  18.814  0.0232  0.1698  0.0831
40810W        W83723  31.116  21.727  21.094 -0.1973 -0.1923  0.0911
40811W        W83724  31.570  18.488  23.142 -0.1842  0.2309 -0.1868
40812W        W83725   4.409  29.260  20.000 -0.4234  0.1285  0.3693
40813W        W83726  26.085  13.982  22.346  0.0722 -0.2035  0.0268
40814W        W83727  31.890  29.458  23.486 -0.2561  0.1831 -0.2900
40815W        W83728   3.195  14.557  17.247 -0.0335 -0.1846 -0.2443
40816W        W83729  30.958  11.575  28.999  0.0796 -0.0314 -0.3307
40817W        W83730  31.962  29.193  23.065  0.4930 -0.2094 -0.1107
40818W        W83731  25.730  20.510  12.995  0.3490 -0.0469 -0.2159
40819W        W83732  27.909  27.459  22.054  0.1225 -0.0705 -0.0824
40820W        W83733   3.637  18.330  14.579 -0.1084  0.0407  0.2084
40821W        W83734  34.218  25.909  19.594  0.0356  0.3373 -0.1050
40822W        W83735  30.580  33.003  16.231  0.3035 -0.0627  0.0270
40823W        W83736  28.692  14.225   0.118  0.1638  0.0818  0.0100
40824W        W83737   3.262  32.192  26.809 -0.1215  0.4962  0.1485
40825W        W83738  33.656  33.794  16.461  0.2150 -0.1890  0.3154
40826W        W83739  28.834  29.649  24.090  0.1073 -0.0139  0.1072
40827W        W83740  29.555  15.874  19.520 -0.0943 -0.2399  0.0362
40828W        W83741  28.085  14.636  15.611 -0.1161 -0.0284 -0.0273
40829W        W83742  22.449  15.173  14.762 -0.1658  0.3330  0.1412
40830W        W83743  31.151  29.057  16.053 -0.1862  0.1582 -0.0386
40831W        W83744  23.549  26.248  28.880  0.1171  0.2393 -0.1973
40832W        W83745  30.145  26.928  26.774  0.0243 -0.1300 -0.3122
40833W        W83746  31.597  18.106  26.096 -0.1632  0.0712  0.1714
40834W        W83747   6.819  23.257  17.483  0.0705  0.1947  0.1970
40835W        W83748  25.187  23.426  16.448  0.1316 -0.1337 -0.2723
40836W        W83749  30.347  18.617  22.905  0.1007  0.0930 -0.0357
40837W        W83750  34.430  13.741  24.097 -0.1646 -0.1558  0.0823
40838W        W83751  30.139  23.341  25.664  0.1089 -0.2002  0.0256
40839W        W83752   5.237   0.691  23.173  0.1461  0.0774 -0.2457
40840W        W83753   2.962  20.826  22.722 -0.0084  0.1139  0.0049
40841W        W83754  34.091  20.087  27.266 -0.1833  0.3065 -0.2654
40842W        W83755  25.666  24.310  21.318  0.2111 -0.2402 -0.0232
40843W        W83756   2.367  21.050  25.641  0.2460  0.0258 -0.1170
40844W        W83757  25.609  22.689  24.059  0.0999 -0.5466 -0.0440
40845W        W83758   2.823  15.180  21.984 -0.2689  0.1384  0.0330
40846W        W83759   1.752  25.026  27.726 -0.3155  0.0580  0.4802
40847W        W83760  32.147  23.665  21.633  0.1132  0.1780  0.1818
40848W        W83761  27.507  14.797  23.061 -0.0271 -0.0157 -0.0530
40849W        W83762  33.558   1.446   3.566  0.2215  0.0283 -0.0785
40850W        W83763  24.312  29.126  14.374  0.0090  0.0217  0.1188
40851W        W83764  32.790  19.736   1.250 -0.1413 -0.2308  0.1701
40852W        W83765  19.886  23.632  19.172 -0.1860  0.1257  0.2692
40853W        W83766   2.998  29.688  27.626  0.1035  0.2495 -0.0473
40854W        W83767  25.255  31.941  15.148 -0.1124 -0.1874 -0.3590
40855W        W83768  23.990  16.214  16.056 -0.0407 -0.0782  0.1394
40856W        W83769  25.409  19.826  22.682 -0.1069  0.2661  0.0367
40857W        W83770  28.294  26.915  21.922  0.1606 -0.0749  0.1617
40858W        W83771  33.173  20.080  27.496  0.0581 -0.0256  0.1875
40859W        W83772  23.077  19.668  27.717  0.1685 -0.0209  0.1260
40860W        W83773  31.674  29.973  21.598  0.0365 -0.1027 -0.1274
40861W        W83774   3.068  13.293  19.436 -0.0913 -0.0506  0.2376
40862W        W83775  20.181  25.061  19.291 -0.1357 -0.0962 -0.2594
40863W        W83776  31.571  22.515   7.497 -0.1095  0.1436  0.1135
40864W        W83777   1.111  19.395  14.009  0.3525  0.0881 -0.2302
40865W        W83778  22.430  18.723  20.565  0.0054 -0.2985  0.1273
40866W        W83779  15.509  22.689  25.648 -0.0839 -0.0829  0.1145
40867W        W83780  30.631  17.029  18.215  0.2983 -0.2132 -0.1297
40868W        W83781  27.670  30.078  25.533  0.2915 -0.1072 -0.2299
40869W        W83782  29.994  16.771  16.602  0.4294  0.1909  0.0701
40870W        W83783  33.280  26.235  19.944 -0.0133  0.1538 -0.0258
40871W        W83784  29.949  28.792  14.711  0.0448 -0.2015 -0.0055
40872W        W83785  29.936  11.075  19.641  0.0542 -0.1400  0.0624
40873W        W83786   1.582  20.100  21.461  0.0068 -0.0403 -0.2312
40874W        W83787  29.330  27.680  20.444  0.0499 -0.0828 -0.1463
40875W        W83788  27.740  28.069  24.875 -0.1856  0.0600  0.0600
40876W        W83789  21.269  20.097  19.847 -0.0238  0.0677 -0.2531
40877W        W83790   7.366  20.395  18.086 -0.2077 -0.1387  0.2147
40878W        W83791  24.671  27.182  16.277 -0.0027  0.2033  0.1411
40879W        W83792  26.150  15.835  17.397  0.1427  0.1997 -0.2412
40880W        W83793  26.169  25.344  18.971 -0.2923 -0.4004  0.1304
40881W        W83794  29.911   3.377  16.331 -0.1054 -0.0473  0.1645
40882W        W83795  31.925  17.960  17.437  0.1496  0.1905  0.1882
40883W        W83796  27.499  34.196   1.933  0.0456  0.0460  0.2020
40884W        W83797   4.075  11.427  25.624 -0.1579  0.0636  0.1428
40885W        W83798  32.202  30.982  25.381  0.0717 -0.3396 -0.2031
40886W        W83799  22.732  33.907  19.595  0.0972  0.2014  0.0562
40887W        W83800  34.322  11.206  20.735  0.0295 -0.1694  0.2358
40888W        W83801  23.969  17.270  15.157  0.0750  0.1418 -0.0581
40889W        W83802  30.645  34.038  29.554 -0.0532  0.1966  0.1272
40890W        W83803   2.865  16.844  20.130 -0.0659 -0.0251  0.1992
40891W        W83804  31.114  18.743  27.339 -0.0554  0.1517  0.0119
40892W        W83805   6.190   2.927  18.195  0.0268  0.0632 -0.2956
40893W        W83806  28.435  30.831  20.767 -0.0899  0.2581  0.2169
40894W        W83807  34.341  21.927  27.095  0.1615 -0.3260 -0.1865
40895W        W83808  30.489  21.210  17.567 -0.4510  0.1872 -0.0555
40896W        W83809  31.129  24.440  17.806 -0.1683  0.0315 -0.2396
40897W        W83810  28.678  13.989  20.807  0.0547 -0.0295 -0.0279
40898W        W83811  32.149  22.114  25.724  0.0873  0.0504 -0.0262
40899W        W83812  24.041  10.308  24.528 -0.1153 -0.2759  0.2208
40900W        W83813  28.517  12.521  14.871 -0.3181 -0.1385  0.0493
40901W        W83814  25.682  28.681  29.511  0.1726  0.1302 -0.1329
40902W        W83815  14.882  32.053  16.486 -0.0873 -0.1045  0.0375
40903W        W83816  31.405  22.802  18.195 -0.1882 -0.1582  0.6158
40904W        W83817  29.200  14.631  19.858 -0.1913 -0.0749 -0.2118
40905W        W83818  33.743  29.245  23.133  0.1574 -0.1435 -0.0337
40906W        W83819  31.446  22.787  22.111 -0.0459  0.2094  0.4093
40907W        W83820   2.043  19.329  21.398  0.2008 -0.0780  0.3356
40908W        W83821  30.408  23.342  23.231 -0.1124  0.1081  0.0750
40909W        W83822  32.221  23.284  15.691 -0.3982 -0.2202  0.0109
40910W        W83823  31.461  20.696  15.963  0.0148 -0.1070 -0.4031
40911W        W83824  26.929   0.434  14.732  0.0161  0.0897  0.0523
40912W        W83825   0.700  27.057  16.411  0.0120 -0.2035  0.0140
40913W        W83826  27.136  30.687  21.732 -0.3730  0.0358  0.0402
40914W        W83827  16.649  21.345  18.892  0.1052 -0.1952  0.0050
40915W        W83828   2.785  29.597  19.252 -0.2132 -0.0523 -0.0239
40916W        W83829  22.989  11.368  24.536  0.0836  0.3461 -0.0935
40917W        W83830  23.227  28.798  17.698 -0.0093 -0.0868 -0.1835
40918W        W83831  17.041  28.459  29.526 -0.0962  0.1982 -0.1199
40919W        W83832   6.503  30.229  17.386  0.1542 -0.3028 -0.1791
40920W        W83833  29.630  25.872   3.161 -0.1032  0.3748 -0.1533
40921W        W83834   0.155   5.562  26.263 -0.0425  0.1429  0.0486
40922W        W83835  29.998  19.226  14.913 -0.2523 -0.0873 -0.1794
40923W        W83836  21.962  25.794  15.667 -0.2010  0.3308 -0.2693
40924W        W83837  34.149  30.565  22.028 -0.1406  0.2092 -0.1933
40925W        W83838  26.717  25.978  14.194 -0.2318 -0.1523 -0.1625
40926W        W83839  34.438  26.331  15.368  0.1758  0.0176  0.1324
40927W        W83840   2.314  19.358  18.216 -0.0105  0.1831  0.1018
40928W        W83841  19.416  26.076  27.801  0.2144 -0.0638 -0.1857
40929W        W83842  11.237  23.059  22.494  0.1198 -0.0633  0.2888
40930W        W83843  29.985  18.181  14.095  0.0808 -0.0000 -0.0287
40931W        W83844  26.109  12.600  22.458  0.0601 -0.1213 -0.0220
40932W        W83845  22.619  21.763  16.546  0.2461  0.0417 -0.2254
40933W        W83846  30.590   1.371  22.064  0.2550  0.2058  0.0323
40934W        W83847  25.100  23.769  26.063  0.1385 -0.1092  0.2452
40935W        W83848  16.363  24.679  18.410  0.1444 -0.1550  0.0390
40936W        W83849  32.994  23.235  17.345 -0.1654 -0.0523 -0.1265
40937W        W83850  27.711  24.919  22.676 -0.0445 -0.1816  0.0329
40938W        W83851  20.503  21.248  12.964  0.3354 -0.1958  0.0419
40939W        W83852  25.033  25.096  29.495  0.0905  0.0235 -0.2001
40940W        W83853  34.116  19.771  15.777  0.0586 -0.4407  0.2636
40941W        W83854  33.182  29.108  16.014  0.1560  0.2468  0.0714
40942W        W83855  33.610  10.165  22.571  0.0722  0.0191 -0.2076
40943W        W83856   1.024  20.951  28.192  0.0505 -0.1342  0.2274
40944W        W83857  29.089  29.440  26.812 -0.4006  0.1582 -0.1935
40945W        W83858  28.243  27.181  20.123  0.1000  0.0561 -0.2789
40946W        W83859  22.451  26.225  14.122  0.1462 -0.2085 -0.3879
40947W        W83860  34.422  25.165  22.956 -0.2457  0.1865 -0.3189
40948W        W83861  34.203  31.745  16.153  0.0254 -0.0096  0.3344
40949W        W83862  26.184  25.315  15.931  0.4512  0.2144  0.0743
40950W        W83863  23.501  21.674  12.421  0.0440  0.2963  0.1846
40951W        W83864  34.374  29.768  17.018 -0.3932  0.1308 -0.0377
40952W        W83865  28.294  24.363  17.152  0.0927 -0.1495 -0.2595
40953W        W83866  32.015  18.110  16.493 -0.1020  0.2485  0.5005
40954W        W83867  32.291  33.429   5.164  0.2116 -0.1942 -0.1582
40955W        W83868   6.499  21.228  22.889  0.2481 -0.0085 -0.3242
40956W        W83869  26.160  17.967  14.196 -0.0528 -0.1014 -0.0582
40957W        W83870  30.822  23.904  27.331  0.1962 -0.0805 -0.2293
40958W        W83871   6.947  24.572  25.339  0.1152 -0.1951 -0.0648
40959W        W83872  29.468  23.352  17.416 -0.1459 -0.2735 -0.0858
40960W        W83873   1.017  27.339  24.834 -0.0380 -0.1034 -0.0243
40961W        W83874  28.320  30.766  17.360  0.0720 -0.0215  0.2861
40962W        W83875  22.006  29.807  12.847 -0.0870 -0.0349 -0.1396
40963W        W83876  26.481  14.939  26.022  0.0474  0.2444 -0.3057
40964W        W83877   6.302  24.160  26.157  0.4326  0.1424 -0.1154
40965W        W83878  28.706  26.091  24.672  0.0339  0.2151 -0.2094
40966W        W83879  31.970  25.401  18.400 -0.3437 -0.1517  0.1020
40967W        W83880  33.815  26.682  20.294 -0.0421  0.1128 -0.2275
40968W        W83881   7.598  10.782  19.704 -0.2392 -0.1925  0.0732
40969W        W83882  34.170  28.597  20.009  0.1122  0.0612  0.0478
40970W        W83883  30.585  25.493  15.206 -0.2322 -0.2631  0.1464
40971W        W83884  19.877  34.446   2.263 -0.0839  0.2374 -0.0273
40972W        W83885   1.411  22.219  17.141  0.0306 -0.0309  0.3604
40973W        W83886  32.285  31.224  23.718  0.0997  0.0967 -0.0894
40974W        W83887  24.106  28.100  20.168 -0.0153  0.2544 -0.0298
40975W        W83888  30.362  28.085  15.303 -0.1736 -0.2639  0.0119
40976W        W83889  28.199  25.680  21.672 -0.1840 -0.0139  0.2831
40977W        W83890  33.376  22.476  19.510 -0.1937 -0.0038 -0.2267
40978W        W83891  27.182  27.374  21.065  0.1245  0.2141  0.1668
40979W        W83892  32.628  27.066  16.259  0.0082 -0.1484 -0.2508
40980W        W83893  25.037  29.020  29.551 -0.4136 -0.1619 -0.2108
40981W        W83894  27.203  24.938  12.848 -0.0641 -0.0581 -0.1900
40982W        W83895   1.572  29.771   3.382 -0.1745  0.1330  0.5328
40983W        W83896  20.838  18.560  22.323 -0.0863 -0.1703 -0.1425
40984W        W83897  33.654  32.070  24.722  0.0475  0.1917  0.0675
40985W        W83898  29.727  24.110  14.480  0.0798  0.1977 -0.0978
40986W        W83899  31.597  32.519  16.360  0.1956 -0.1028  0.3185
40987W        W83900  33.892  22.317  27.385  0.1852 -0.0120 -0.3319
40988W        W83901  28.752  12.943  17.879  0.2042 -0.1911 -0.1798
40989W        W83902  30.863  15.001  18.785  0.3668  0.1175 -0.0857
40990W        W83903  19.378  12.013  13.370 -0.3646 -0.1523  0.2967
40991W        W83904  27.846  24.391  21.819  0.0071  0.0897 -0.1926
40992W        W83905  27.539  26.958   0.538 -0.0096  0.1638  0.1088
40993W        W83906  26.782  24.429  21.155  0.1202  0.2440 -0.1130
40994W        W83907  21.476  31.361  22.029 -0.0826 -0.2394 -0.1036
40995W        W83908  34.192  19.138  20.673 -0.0419 -0.1220  0.2296
40996W        W83909   0.756  21.899  18.190  0.3673  0.1246  0.0483
40997W        W83910  23.131  19.090  15.370 -0.1378 -0.2081 -0.3568
40998W        W83911  33.517  21.193  14.960  0.0466 -0.0517  0.3904
40999W        W83912  30.062  25.701  13.909  0.3597  0.1628  0.3106
41000W        W83913  22.133  32.298  24.560 -0.0059 -0.0312  0.0386
41001W        W83914  33.637  21.486  14.551  0.2375  0.3067 -0.0710
41002W        W83915  32.519  26.183  15.234 -0.1090  0.0122 -0.2170
41003W        W83916  34.051  25.080  14.317  0.0237  0.0207 -0.0031
41004W        W83917   0.458  20.877  20.706 -0.1190  0.2032 -0.3153
41005W        W83918  28.432  18.664  13.890 -0.0864 -0.1878 -0.0388
41006W        W83919  31.510  12.218  21.999  0.0858  0.2661 -0.0719
41007W        W83920  27.790  20.712  20.141 -0.2126 -0.3736  0.1848
41008W        W83921  19.063  19.930  27.989 -0.3232 -0.0998 -0.0681
41009W        W83922  32.726  18.220  14.955  0.0731 -0.0110 -0.4140
41010W        W83923  33.846  17.306  18.304 -0.0179 -0.0905  0.2362
41011W        W83924  26.882  22.274  13.526  0.0990 -0.1767 -0.2597
41012W        W83925   3.598  16.979   1.472 -0.0944  0.1145 -0.0837
41013W        W83926  31.978  24.750  17.005  0.1698 -0.2374  0.1835
41014W        W83927  33.383  23.726  26.924 -0.2526 -0.1032 -0.2937
41015W        W83928  29.973  15.372  16.513 -0.0606  0.0501 -0.2888
41016W        W83929  23.595   1.779  14.658 -0.0937  0.0373  0.3077
41017W        W83930  31.836   5.030   0.150  0.2860  0.1744 -0.0051
41018W        W83931  26.462  18.814  19.790  0.0002  0.3234 -0.0964
41019W        W83932   1.936  18.690  27.212 -0.0181  0.1160  0.5951
41020W        W83933  28.913  26.463  22.972 -0.2524 -0.0549 -0.1602
41021W        W83934   2.154  25.276  15.106  0.1565 -0.2935  0.2784
41022W        W83935  30.525   3.807  23.685 -0.1216 -0.1657 -0.0845
41023W        W83936  33.877  22.957  19.037  0.1725 -0.0612  0.0297
41024W        W83937  28.303  20.726  20.122 -0.0400  0.1547  0.0918
41025W        W83938  10.488  17.162  26.736 -0.2133 -0.4474 -0.0673
41026W        W83939  27.559  21.386  15.125  0.1921 -0.1148 -0.1895
41027W        W83940  27.927  23.304  18.538 -0.0404 -0.2091 -0.2174
41028W        W83941  24.077  24.634  17.015 -0.0894  0.1375  0.0725
41029W        W83942   1.253  33.462  19.074  0.1544 -0.4496 -0.0564
41030W        W83943  20.096  10.507  13.688  0.2336 -0.2698  0.0070
41031W        W83944  25.505  19.240  21.021 -0.2524  0.0792  0.0853
41032W        W83945  32.247  17.611  17.572 -0.2796 -0.0839  0.1042
41033W        W83946  31.439  21.687  13.210  0.0200  0.1052  0.1862
41034W        W83947  27.826  25.792  28.911  0.1927  0.2745  0.5100
41035W        W83948  31.243  20.419  13.579 -0.2062 -0.2856 -0.1162
41036W        W83949  26.914  26.377  18.729 -0.1553  0.0674  0.5422
41037W        W83950  32.532  22.556  16.713 -0.1533 -0.2079  0.1039
41038W        W83951  32.443  28.531  19.725  0.2797  0.2249 -0.0387
41039W        W83952  33.978  28.030  14.065 -0.0972  0.2098  0.0130
41040W        W83953  25.000  22.794  21.912 -0.2062  0.1940 -0.4394
41041W        W83954  11.381  15.151  20.815  0.2410 -0.0988 -0.1841
41042W        W83955  33.585  18.933  23.925  0.1162  0.0459 -0.0012
41043W        W83956  15.039  10.956  16.154  0.1284  0.2011  0.2159
41044W        W83957  26.764  19.857  17.727 -0.3572  0.0470  0.1403
41045W        W83958  32.214  25.786  20.948  0.0739 -0.3545 -0.0694
41046W        W83959  21.549  26.949  22.530 -0.1218 -0.1484  0.2519
41047W        W83960   5.096  16.271   0.137  0.0435  0.3725 -0.0098
41048W        W83961   0.967  24.525   6.098 -0.1616  0.1342 -0.2618
41049W        W83962  33.738  23.996  19.199  0.1010  0.1039  0.0148
41050W        W83963  28.157  30.352  22.094  0.0590  0.1284 -0.0149
41051W        W83964  30.984  22.631  16.152  0.1555  0.0439  0.4084
41052W        W83965  32.098  11.592  19.978 -0.3137 -0.1267 -0.2540
41053W        W83966   0.794  25.212   0.662 -0.1150 -0.1299  0.0748
41054W        W83967  30.855  23.316   1.125  0.2836  0.2414  0.4689
41055W        W83968  33.516  21.493  14.060 -0.1600 -0.1451 -0.1020
41056W        W83969  27.896  27.605  22.582 -0.1241 -0.4009 -0.2406
41057W        W83970  26.071  22.736  29.153 -0.1003 -0.0707  0.0582
41058W        W83971  24.808   6.716  28.033 -0.1035  0.0406 -0.0077
41059W        W83972   2.786  29.314  28.612 -0.1936 -0.0201 -0.1496
41060W        W83973  33.284  14.205  25.317 -0.2129 -0.3301  0.0111
41061W        W83974  28.256  15.444  23.255  0.0913  0.1467 -0.1133
41062W        W83975   9.705   8.522  23.120  0.3186  0.1041 -0.0497
41063W        W83976  29.085   7.511  23.233 -0.3456  0.0980  0.1039
41064W        W83977  24.376  26.967   0.139  0.1278  0.0874 -0.1771
41065W        W83978   0.033  13.941  19.985 -0.4235 -0.1464  0.0331
41066W        W83979  27.778  30.629   1.997 -0.0087 -0.0302  0.1695
41067W        W83980  23.703   2.269  22.802  0.1161 -0.0083  0.2958
41068W        W83981  32.264   6.149  26.325  0.0836  0.1194 -0.1073
41069W        W83982   0.812  26.044   9.294 -0.0923 -0.0518 -0.1325
41070W        W83983  25.331  26.932  20.465 -0.0081 -0.2023  0.1563
41071W        W83984  25.130  20.703  14.602 -0.1597  0.2392 -0.1651
41072W        W83985  11.983  25.681  18.692 -0.0224 -0.0820  0.1861
41073W        W83986  17.994  21.369  23.279 -0.0435 -0.0819 -0.3546
41074W        W83987   3.202   9.275  18.794 -0.0265  0.1493  0.2387
41075W        W83988  27.551  22.725  28.130  0.0448  0.0237  0.4187
41076W        W83989  31.622  24.073  23.599  0.0745  0.1346 -0.2827
41077W        W83990  24.120  31.440   3.477 -0.0625  0.2484  0.2909
41078W        W83991   3.974  18.522   2.074  0.2000  0.1648  0.3266
41079W        W83992  30.406  27.504  26.779  0.2107 -0.3288 -0.0925
41080W        W83993  25.699  21.809  13.809  0.1016 -0.2754 -0.0011
41081W        W83994  28.351  24.503  21.860  0.1213 -0.0311 -0.0478
41082W        W83995  28.844  12.268  20.516 -0.0210 -0.0141 -0.1621
41083W        W83996  23.461  32.317  22.685  0.0832 -0.1964 -0.0681
41084W        W83997   8.925  21.125   0.321 -0.0426 -0.1028 -0.0622
41085W        W83998  32.473   1.594  27.672  0.1935 -0.2445  0.0079
41086W        W83999  32.873  34.239  20.584 -0.0733 -0.5097  0.2272
41087W        W84000   0.899  19.887  13.973  0.0677 -0.0997 -0.1032
41088W        W84001  25.339  19.706   1.645 -0.3445 -0.1997 -0.1677
41089W        W84002  26.523  29.312  15.454 -0.4542 -0.0343 -0.3432
41090W        W84003  23.775  26.757  22.401  0.1588  0.0461  0.0273
41091W        W84004  32.771  15.122  16.255 -0.0703  0.1217  0.0773
41092W        W84005  29.180  21.749   0.442 -0.2412 -0.2346  0.0018
41093W        W84006  28.114  22.457   8.796  0.2014  0.0116 -0.4224
41094W        W84007   0.834  30.196  15.610  0.2424 -0.1440  0.0128
41095W        W84008  33.013  11.728  16.131  0.1077 -0.0722 -0.0203
41096W        W84009   4.521   3.804   0.941  0.1669  0.1341  0.2327
41097W        W84010  33.108  21.452   2.046  0.1899 -0.0319 -0.0973
41098W        W84011  26.449  20.415  28.346  0.4452 -0.1716  0.1148
41099W        W84012  30.211  31.917  16.999  0.1713 -0.0724 -0.4048
41100W        W84013  27.397  27.498  26.920 -0.0817 -0.1210  0.4940
41101W        W84014  29.453  25.496  24.810 -0.0569  0.0450 -0.0486
41102W        W84015   1.169  27.357  29.103  0.0734 -0.3518 -0.2465
41103W        W84016  20.233  16.887  27.726 -0.2320 -0.0285 -0.1254
41104W        W84017   2.689  18.299  21.867 -0.0257  0.1768 -0.1861
41105W        W84018  34.193  27.842  13.577 -0.0244 -0.0289  0.3379
41106W        W84019  18.921  25.027  19.784 -0.0609 -0.0578  0.1317
41107W        W84020   3.119  25.327  22.352 -0.3541 -0.1654 -0.4455
41108W        W84021  30.250  21.736  14.817  0.2273 -0.2263  0.0761
41109W        W84022   2.518  32.725   1.306  0.1715  0.0477 -0.0859
41110W        W84023  19.963  15.017   4.328 -0.1231  0.1050  0.0816
41111W        W84024   6.840  17.543  22.813  0.2358 -0.2634 -0.0501
41112W        W84025  25.249  22.098  25.585  0.1076  0.1061 -0.1075
41113W        W84026   0.860  26.021   4.263 -0.0904 -0.0056 -0.0168
41114W        W84027   0.498  26.548  17.434  0.0131  0.2174  0.0171
41115W        W84028  23.774  23.858  23.883  0.1316 -0.4369  0.0748
41116W        W84029  31.813  28.960  15.844 -0.0549 -0.1456 -0.2565
41117W        W84030  26.089  24.435  16.084  0.1023  0.2389  0.6214
41118W        W84031  25.256  27.657  26.213 -0.2506  0.2486  0.0389
41119W        W84032  31.197  29.599  28.860 -0.0169 -0.2243 -0.2825
41120W        W84033  26.089   5.387   0.900  0.3001 -0.0038 -0.1709
41121W        W84034  30.418  30.555  24.043  0.2184  0.0458  0.1794
41122W        W84035  16.371  26.698  25.141 -0.1506 -0.2365  0.2422
41123W        W84036   1.715  23.157  29.685 -0.1498 -0.1728 -0.2948
41124W        W84037  28.968  20.705  20.997 -0.4410 -0.1290  0.0567
41125W        W84038  29.440  27.371  22.704  0.2320 -0.1001 -0.0011
41126W        W84039  25.187  33.907  20.031  0.0493 -0.1306 -0.2682
41127W        W84040  29.840  28.121  24.778 -0.1020  0.0635 -0.1206
41128W        W84041  28.046  22.151  17.119  0.1920 -0.0590  0.0736
41129W        W84042  31.118  19.074  24.624  0.2268 -0.0583 -0.0742
41130W        W84043  25.697  24.420  20.792  0.4087 -0.1339  0.4008
41131W        W84044   2.532  23.722  29.096  0.0901 -0.1904 -0.1409
41132W        W84045   2.657  19.283  16.741 -0.0386  0.0133 -0.0002
41133W        W84046  32.213  22.904   8.753  0.0805  0.1371  0.1407
41134W        W84047   1.562  20.629   0.384  0.0936 -0.0460  0.1544
41135W        W84048   3.134  18.009   3.891 -0.2811 -0.1711 -0.0527
41136W        W84049  23.872  28.112   4.595  0.0103 -0.1261 -0.1520
41137W        W84050  17.653  24.472  22.947 -0.2314  0.0532  0.1723
41138W        W84051  28.757  29.194  22.558 -0.0395 -0.0135 -0.3087
41139W        W84052  33.371  22.330  17.819 -0.1415 -0.0813  0.1035
41140W        W84053  22.233  26.045  25.771  0.0122 -0.0163  0.0771
41141W        W84054  30.545  27.025  24.327 -0.0120  0.1489 -0.1702
41142W        W84055  32.814   2.360   8.861 -0.1943  0.0306 -0.1982
41143W        W84056  32.942  13.847  17.793  0.2333 -0.0995  0.2164
41144W        W84057  31.620  25.538  23.949  0.3262  0.0828 -0.0248
41145W        W84058  19.953  23.836  21.509  0.0713  0.0670  0.0911
41146W        W84059  26.444  26.808  23.168  0.0446 -0.1773 -0.1634
41147W        W84060  33.512  24.153  21.636 -0.0994 -0.0078 -0.3081
41148W        W84061  26.785  14.779  26.472 -0.1811 -0.0571 -0.0426
41149W        W84062  29.348  23.755  19.605  0.0290  0.0596  0.4659
41150W        W84063   1.764  12.352  18.745 -0.2334  0.3903  0.0214
41151W        W84064  27.413  27.380  29.269  0.0012  0.0363 -0.0322
41152W        W84065  19.556   2.357  25.042  0.2886  0.1239  0.0540
41153W        W84066   3.358  14.871  28.869  0.2414  0.2578  0.2060
41154W        W84067  32.106  22.719  28.795 -0.0916 -0.1140  0.3620
41155W        W84068  32.592  19.882  16.716  0.0843  0.0101  0.2027
41156W        W84069  26.934  15.549  14.784  0.2761  0.2638  0.2514
41157W        W84070  32.899  24.371   2.263  0.2293  0.2803  0.1432
41158W        W84071  31.600  28.665  25.064 -0.0758 -0.1105 -0.0964
41159W        W84072  25.097  10.495  27.215 -0.2003  0.0634 -0.1780
41160W        W84073  31.577  25.943   4.158 -0.1343  0.0405 -0.0925
41161W        W84074   7.639  28.089  22.999 -0.1229  0.2782 -0.1458
41162W        W84075   0.478  27.268  21.523  0.0059  0.0669  0.0943
41163W        W84076  31.311  18.224  24.616  0.3001 -0.0396  0.0906
41164W        W84077  34.431  33.127   0.308 -0.2338  0.1780 -0.0271
41165W        W84078  29.397  22.293  27.137  0.0914 -0.1159 -0.1920
41166W        W84079   2.462  13.899  14.487  0.2418 -0.1965 -0.2011
41167W        W84080  31.780  22.825   4.400  0.0364  0.0710  0.1549
41168W        W84081  24.606  33.304  27.683  0.2455 -0.3385  0.0896
41169W        W84082  33.328  22.091  25.797  0.2078 -0.1382 -0.0939
41170W        W84083  30.423  21.276  21.156  0.1428 -0.4083  0.3744
41171W        W84084   5.545  26.301  14.419 -0.2172  0.0755 -0.0611
41172W        W84085   0.470  23.892  20.020 -0.3466  0.0413 -0.0259
41173W        W84086   0.992  10.224  19.141  0.1010 -0.0837  0.1774
41174W        W84087  29.175  24.855  20.873  0.1887  0.1537 -0.0023
41175W        W84088  32.567  24.573   1.033 -0.0016 -0.1658 -0.1511
41176W        W84089   0.745  16.218  21.409 -0.3324  0.0330 -0.1803
41177W        W84090  22.186  24.807  19.516 -0.0334  0.0856  0.2836
41178W        W84091  30.772  20.638  25.776  0.0236 -0.2741 -0.1629
41179W        W84092  31.924  23.514  27.024 -0.4104  0.2115 -0.0973
41180W        W84093   8.395  20.575  29.058 -0.2587 -0.0480 -0.0476
41181W        W84094   7.420  13.274   8.428  0.2234  0.3525 -0.0655
41182W        W84095  18.753  30.208  21.977  0.1467  0.1887  0.5000
41183W        W84096  26.322  26.218  22.375  0.0607 -0.0687  0.1883
41184W        W84097  22.220  25.303  17.307 -0.0451 -0.2655  0.1538
41185W        W84098  23.804  28.710   2.624 -0.0525  0.0124 -0.0436
41186W        W84099  34.426  22.977  25.096  0.0723  0.0463 -0.0790
41187W        W84100  29.956  12.924  20.090 -0.2454  0.0272  0.0630
41188W        W84101  31.005  26.804  14.438  0.0174  0.1212  0.1029
41189W        W84102  33.763  22.031   0.950  0.5152  0.0179 -0.1404
41190W        W84103  27.137  15.840  28.336 -0.0252  0.0211 -0.1673
41191W        W84104  31.615  31.011  22.088  0.0156  0.2066  0.2044
41192W        W84105  27.873  29.882  19.346  0.4437 -0.3623 -0.1259
41193W        W84106   3.729  26.955  15.845  0.3688  0.0132  0.0218
41194W        W84107  34.317  16.896  14.732 -0.3875 -0.2690 -0.0051
41195W        W84108  30.940  19.519  24.006  0.1553 -0.0669  0.1610
41196W        W84109  21.206  14.571   1.822  0.2765 -0.4088 -0.0135
41197W        W84110   4.999  27.067  28.175 -0.0521  0.3257  0.2524
41198W        W84111  22.342  17.240  20.362  0.0262 -0.1757  0.0087
41199W        W84112  25.026  31.470  17.010  0.0310  0.1339 -0.0533
41200W        W84113  21.715  20.300  13.348 -0.1299 -0.0581 -0.0141
41201W        W84114  32.157  23.759  14.920  0.2008  0.2342 -0.0560
41202W        W84115  23.551  20.157  27.060 -0.2716 -0.3216  0.1618
41203W        W84116  28.372  22.989  25.097  0.1197  0.2804  0.3421
41204W        W84117  31.432  11.638  22.682 -0.0948 -0.1366 -0.1494
41205W        W84118   3.100  22.886  13.695  0.0062 -0.2230 -0.0650
41206W        W84119  28.623  26.718  19.952 -0.3369 -0.2532 -0.0588
41207W        W84120   2.727  25.893  23.563  0.2739  0.1888 -0.3095
41208W        W84121  20.650  25.901  22.154 -0.1404  0.1945  0.3049
41209W        W84122  24.759  21.053   0.793 -0.0467  0.2496  0.0003
41210W        W84123  30.841  22.369   7.603 -0.1662 -0.0841 -0.0721
41211W        W84124  29.351  25.712  20.412 -0.0823 -0.1748 -0.0407
41212W        W84125  25.709  18.046  21.200  0.0779  0.0028  0.1329
41213W        W84126  33.180  31.690  19.404 -0.2944  0.2468 -0.0634
41214W        W84127   2.895  23.228  25.495  0.1119 -0.1987  0.1373
41215W        W84128  16.028  29.196  25.757  0.0452 -0.1801  0.1220
41216W        W84129  34.099  22.147  18.880 -0.1686  0.1240  0.1586
41217W        W84130  24.845  28.375   1.061  0.1148 -0.2106  0.0736
41218W        W84131  27.753   8.113   1.056 -0.0581 -0.0486  0.2968
41219W        W84132  32.348   0.825  16.168 -0.1972 -0.0624 -0.0199
41220W        W84133  18.402  21.624  19.727  0.2736 -0.1231  0.1894
41221W        W84134   0.886  33.489  16.682 -0.0863  0.0117  0.0016
41222W        W84135  27.884  26.768  27.111  0.1020  0.0738 -0.2569
41223W        W84136  33.092   7.164  21.990 -0.2191  0.1881  0.0558
41224W        W84137   0.555  19.698  22.561  0.0877  0.2895 -0.0924
41225W        W84138  24.250  27.517  19.952 -0.0228 -0.0092 -0.0701
41226W        W84139  26.939  23.595  24.783 -0.2218 -0.1208 -0.2284
41227W        W84140  29.880  30.132  14.462  0.0448 -0.0992  0.0951
41228W        W84141  30.829   1.431  21.096 -0.2327  0.1177 -0.0957
41229W        W84142  31.649  21.741  24.653 -0.0204  0.1504  0.1384
41230W        W84143  27.809   9.420  20.813 -0.0032  0.0488  0.1803
41231W        W84144  28.060  27.970  25.866  0.1901 -0.0602  0.2285
41232W        W84145  29.603   3.467  20.486  0.0417 -0.1001 -0.2888
41233W        W84146  21.361  17.118  25.862  0.3116 -0.3057  0.0788
41234W        W84147  29.815   2.554  22.103 -0.1439  0.0743  0.2454
41235W        W84148   6.906   0.995  24.805  0.0725 -0.2367  0.2866
41236W        W84149   0.898  15.799  22.271 -0.1154  0.0439  0.0039
41237W        W84150  22.249  18.428  23.644  0.0205  0.0117 -0.1058
41238W        W84151   0.107  30.927  28.108  0.1190  0.1341 -0.2173
41239W        W84152  25.838  23.610  12.690  0.0132 -0.1151 -0.1050
41240W        W84153  28.475  18.151  21.281  0.1910  0.2900 -0.0179
41241W        W84154  18.202  26.977  24.583 -0.0905 -0.1918 -0.0932
41242W        W84155  25.258  24.022  28.641 -0.0924  0.0730 -0.1719
41243W        W84156  31.335  13.800  23.219 -0.1721 -0.0351  0.0131
41244W        W84157  28.574  30.162  28.323 -0.1569 -0.1245  0.2919
41245W        W84158  29.365   4.885   8.375 -0.4583  0.0254 -0.0502
41246W        W84159  30.438  24.354   0.378  0.0058  0.3698  0.1614
41247W        W84160  33.050  30.421  24.579 -0.4018 -0.3450 -0.2155
41248W        W84161  33.367  27.712  19.354  0.1664 -0.0207 -0.0107
41249W        W84162   4.880  18.975  22.425  0.0760  0.0593  0.1123
41250W        W84163  27.685  30.398   6.412  0.0696 -0.3249  0.0216
41251W        W84164  21.560  26.509  28.491 -0.3319 -0.0540  0.1922
41252W        W84165  31.651  21.735  14.501  0.1274 -0.2830  0.0349
41253W        W84166  12.685  23.378   3.299  0.1348  0.0022  0.1518
41254W        W84167   2.472  25.953  22.687  0.1169 -0.0453 -0.0838
41255W        W84168  26.334   9.202  18.300  0.1738  0.1690  0.0938
41256W        W84169   0.369  16.947  20.377 -0.2239 -0.0170  0.3593
41257W        W84170  23.465  16.698  27.901  0.5931  0.1191 -0.0789
41258W        W84171  31.282  29.281  21.305  0.0111 -0.1214  0.1056
41259W        W84172  19.719  32.290  27.198  0.1097  0.2813  0.2105
41260W        W84173  32.540  17.577  18.875  0.0511 -0.0273 -0.3808
41261W        W84174  28.929  23.480  23.757  0.2791  0.0447 -0.0875
41262W        W84175  32.078  23.018  18.696 -0.1480  0.0424 -0.1665
41263W        W84176  28.862  23.243  28.113  0.2991  0.1756  0.0861
41264W        W84177  32.910  26.208  18.090 -0.1289 -0.2678  0.0604
41265W        W84178  29.480  25.331   1.154  0.0645  0.0459 -0.2461
41266W        W84179  12.649  26.245   0.303 -0.3475  0.1705 -0.0952
41267W        W84180  23.708  34.047  16.611 -0.2918  0.0221  0.2746
41268W        W84181  28.952  23.242  21.791  0.2365  0.1964  0.1514
41269W        W84182   1.221  18.985  24.088 -0.3012 -0.1193  0.2049
41270W        W84183   5.739  23.134  22.161  0.2247  0.0499  0.0298
41271W        W84184  29.022  17.534  21.096 -0.1460 -0.1878 -0.3273
41272W        W84185  20.213   2.047  25.710  0.0734 -0.0513 -0.0174
41273W        W84186  27.974  32.220  26.861 -0.2362  0.2166  0.0950
41274W        W84187  24.194  26.979  25.024  0.1589 -0.1896 -0.2312
41275W        W84188   0.776   8.367  28.994 -0.1200 -0.0634  0.0260
41276W        W84189  26.892  15.558  20.859 -0.1324  0.2598  0.0411
41277W        W84190  29.075  26.168  21.608  0.0443  0.0224  0.2324
41278W        W84191  30.028  28.803  23.613  0.2003 -0.3516  0.0603
41279W        W84192  27.478  24.427  23.287 -0.2464 -0.0605  0.0742
41280W        W84193  28.430  25.324  14.666 -0.1952 -0.0926 -0.2097
41281W        W84194  31.019  28.846  15.157 -0.0514 -0.3651 -0.1185
41282W        W84195  26.886  20.760  19.975 -0.0284  0.0707  0.2546
41283W        W84196  31.703  24.302  16.226  0.0278 -0.2727  0.3759
41284W        W84197  23.366  24.665  21.826  0.0500  0.0549  0.2878
41285W        W84198  32.731  17.479  23.255  0.0246  0.1638 -0.1201
41286W        W84199  23.710  17.361  20.469  0.0665 -0.0455 -0.0096
41287W        W84200   4.981  20.952  28.435 -0.0173  0.2792 -0.2001
41288W        W84201   3.250  16.751   5.982 -0.0191 -0.1270 -0.0708
41289W        W84202   3.743  14.897   1.972 -0.0381 -0.3948  0.1000
41290W        W84203  33.970  24.171   5.203 -0.1422  0.1015 -0.0913
41291W        W84204   3.324  23.882  19.559 -0.3191  0.2527  0.0850
41292W        W84205   0.667   1.059  19.608  0.0434 -0.0715 -0.0513
41293W        W84206  33.778  32.389  20.404 -0.1977 -0.1827 -0.3753
41294W        W84207  32.183  22.488   0.401  0.0642  0.1376  0.2741
41295W        W84208  17.269  22.309  29.380 -0.1489  0.0214  0.1679
41296W        W84209   5.096  32.002  17.150  0.1604  0.0610  0.3000
41297W        W84210  25.309   0.296   4.642 -0.0672 -0.1507 -0.0320
41298W        W84211  28.815  19.483  22.961  0.4385 -0.2985  0.0364
41299W        W84212   2.202  20.802  26.445 -0.0028 -0.0265 -0.0060
41300W        W84213  31.260  21.991  21.518 -0.0718  0.1289 -0.0205
41301W        W84214  32.648  16.758  20.331  0.0095  0.1489  0.1034
41302W        W84215  30.083  18.545  26.206  0.1000 -0.1754 -0.0253
41303W        W84216  17.884  12.513  21.039 -0.0380  0.0729 -0.1827
41304W        W84217  12.486  14.534  18.479 -0.1870  0.1179 -0.0598
41305W        W84218  31.114  24.984  24.360 -0.1456 -0.1562  0.2258
41306W        W84219  31.031  19.635   1.766  0.0100  0.0779 -0.0403
41307W        W84220  33.083  23.136  22.166 -0.1133 -0.2986 -0.0325
41308W        W84221   3.983  21.671  22.391 -0.1086 -0.4703  0.0594
41309W        W84222  24.913  19.259  29.226 -0.3175 -0.2026 -0.2278
41310W        W84223  19.805  24.586   2.674 -0.1154 -0.2499  0.2179
41311W        W84224  27.754  34.018  20.151 -0.3343  0.2635  0.1775
41312W        W84225  11.380  20.347  22.581  0.0309  0.1199  0.1746
41313W        W84226  31.815  32.844  25.699  0.0599 -0.0022  0.1527
41314W        W84227  24.154  21.304  17.679 -0.2675  0.2462  0.2462
41315W        W84228  31.308  21.118  25.254  0.1644 -0.0875  0.0882
41316W        W84229   4.374  19.089   5.694 -0.0450  0.1984  0.2795
41317W        W84230   5.343  22.447  25.454 -0.0335 -0.2865  0.0633
41318W        W84231   1.868  27.822  26.437  0.1584 -0.0806 -0.1337
41319W        W84232   0.644   3.597   2.071 -0.3094  0.0250  0.1021
41320W        W84233  32.500  33.984  26.236 -0.2928  0.0690  0.0743
41321W        W84234   9.137  16.443   1.225 -0.1506  0.1399  0.1408
41322W        W84235  31.852  26.749   0.491  0.1440 -0.3135  0.1131
41323W        W84236  23.392  20.880  28.638 -0.0684  0.1367 -0.1359
41324W        W84237  33.110  21.449  15.963 -0.3669 -0.0855 -0.2686
41325W        W84238   2.480  18.718  27.966 -0.3451  0.1665  0.1808
41326W        W84239  25.209  18.121  19.315  0.0090  0.3265 -0.1296
41327W        W84240  33.449  26.758  16.589  0.1682  0.4346  0.0324
41328W        W84241  31.231   1.690  19.547 -0.1012  0.0158  0.0130
41329W        W84242  26.868  18.870  20.617  0.3399  0.1830  0.2980
41330W        W84243  32.912  25.426  15.595  0.0230 -0.1691  0.1151
41331W        W84244  25.901  23.615  24.469  0.0180  0.0742 -0.0292
41332W        W84245   0.896  20.862  26.400  0.1150 -0.2610  0.2577
41333W        W84246  20.494  22.007  19.364 -0.0909 -0.2932 -0.0791
41334W        W84247  29.963  28.590   0.247  0.3440 -0.0753 -0.1468
41335W        W84248   1.676  16.694  19.016 -0.2481 -0.0121 -0.0504
41336W        W84249   3.045  18.773  28.418 -0.1143 -0.0965  0.0877
41337W        W84250   7.297  28.747  15.299  0.0466  0.0814 -0.0455
41338W        W84251  24.800  14.877  29.078 -0.3788 -0.0818 -0.2221
41339W        W84252  26.692  18.285  19.138 -0.1145  0.0497  0.3070
41340W        W84253  31.867  16.960  20.847  0.0776  0.1357  0.2489
41341W        W84254  33.390  33.458  19.295 -0.2612  0.1632  0.0131
41342W        W84255   1.351  23.097  27.938 -0.3190  0.1067 -0.0331
41343W        W84256  26.157  27.686   2.718 -0.0161  0.0229 -0.1380
41344W        W84257  25.972  28.984   3.175 -0.1007 -0.3154  0.1736
41345W        W84258  26.091  17.240  13.305 -0.0293 -0.1265 -0.0631
41346W        W84259  33.755  12.957  19.073  0.1474 -0.0214  0.3784
41347W        W84260   4.369  28.351   3.892 -0.2213 -0.0807  0.1118
41348W        W84261  27.811  26.940  28.801  0.3676 -0.4841  0.3007
41349W        W84262  30.808   1.088  20.691  0.1945 -0.2592 -0.1044
41350W        W84263  29.001  30.857  16.043 -0.1746  0.0875 -0.2262
41351W        W84264  29.109  28.501   3.288  0.0757 -0.0839  0.2397
41352W        W84265  34.051  26.303  14.115  0.2305  0.1675  0.2227
41353W        W84266  32.300  29.091   6.768  0.0904 -0.2278  0.0387
41354W        W84267  30.238   5.354  19.679  0.1300  0.0931 -0.1313
41355W        W84268  21.205  22.173  23.124 -0.1264  0.0612 -0.0357
41356W        W84269  29.925  15.056  22.548 -0.1929  0.2728  0.0322
41357W        W84270  27.177  32.589  29.483  0.0823  0.0057 -0.2318
41358W        W84271  22.776   9.771  24.595  0.3500  0.1177 -0.5857
41359W        W84272   1.027  22.775  23.932  0.1970 -0.2382 -0.4696
41360W        W84273  30.070  26.242  29.612  0.1689  0.0005  0.0951
41361W        W84274   6.085  11.872  28.743  0.0352 -0.0866  0.0058
41362W        W84275  20.022  22.787  26.628 -0.0339 -0.1120  0.0219
41363W        W84276  25.885  28.304  28.566  0.0248 -0.0125  0.1621
41364W        W84277   1.968  21.075  29.451 -0.2749 -0.0717 -0.3573
41365W        W84278  29.246  18.754  17.911 -0.0085 -0.1233  0.1952
41366W        W84279  30.608  22.160  25.570 -0.1341  0.2589  0.1675
41367W        W84280  28.030  17.781  16.843  0.1989  0.1827  0.0461
41368W        W84281   3.004  21.536  27.792 -0.0769  0.2206  0.2069
41369W        W84282  26.704  24.290   5.131  0.0073  0.1681  0.2576
41370W        W84283  28.104  17.754   3.207 -0.2689 -0.1322  0.4042
41371W        W84284  23.082  33.897  27.555  0.1978  0.0096  0.3701
41372W        W84285  26.485  31.353  20.493 -0.2584 -0.3619 -0.1383
41373W        W84286  28.721  26.498   2.505  0.3100 -0.1313  0.2117
41374W        W84287   1.918  32.202  28.003  0.0424  0.1530  0.1409
41375W        W84288  32.968   8.775  28.389 -0.2922  0.1317  0.0045
41376W        W84289  22.789  27.007  20.658 -0.0148  0.0266 -0.0919
41377W        W84290  19.511  22.564  27.385  0.2199  0.1280 -0.1684
41378W        W84291  17.364  24.915  19.562  0.1135 -0.0682  0.1001
41379W        W84292  31.172  27.294   1.896 -0.2593 -0.1258 -0.0117
41380W        W84293  32.938  26.454   1.334  0.0300 -0.0668  0.2272
41381W        W84294   1.590  25.119  24.228 -0.0242  0.0431  0.0617
41382W        W84295  22.323  25.913  26.625 -0.1289  0.2066  0.0207
41383W        W84296  34.011  20.291   0.714 -0.1324  0.2442  0.1952
41384W        W84297  31.445  26.331  24.028 -0.2661  0.1355 -0.0574
41385W        W84298  32.510  31.956  14.446  0.1629 -0.0482 -0.1063
41386W        W84299  33.652  28.830  25.676  0.1328 -0.1039 -0.0535
41387W        W84300  24.667  24.244   3.148  0.1794 -0.2616  0.3876
41388W        W84301  30.236  19.788  25.061  0.3778  0.1765 -0.1795
41389W        W84302  21.456  16.839   1.368 -0.3093 -0.0064  0.3072
41390W        W84303  27.427  21.600  22.057 -0.1428 -0.3146  0.4340
41391W        W84304  29.998  21.505  19.226  0.0920  0.2771  0.1079
41392W        W84305  22.194  19.800  23.557  0.1039  0.0128 -0.1568
41393W        W84306  33.856  26.712  14.831 -0.1015  0.2178 -0.0150
41394W        W84307   1.489  19.207  23.582  0.3416 -0.3119  0.1711
41395W        W84308  33.973  25.814  29.710  0.0357  0.0143  0.2043
41396W        W84309  23.389  27.291  25.310 -0.1436  0.1574 -0.1603
41397W        W84310  26.345  30.486  20.436  0.3023 -0.2330 -0.1230
41398W        W84311  26.089   6.591  29.174  0.2583  0.3644 -0.0551
41399W        W84312  31.156  18.417  19.544 -0.4349  0.0549 -0.0171
41400W        W84313  25.890  24.271  23.216  0.0714  0.0011  0.2068
41401W        W84314  32.016  10.333  14.652 -0.2345  0.0527  0.1424
41402W        W84315   8.832  14.409   1.622  0.1614 -0.1537 -0.2259
41403W        W84316  32.793  27.098  20.196  0.0766 -0.3001 -0.0731
41404W        W84317   1.403  31.529  21.206 -0.1061  0.2089 -0.2417
41405W        W84318  23.280  26.515  24.172 -0.1206 -0.1939  0.0289
41406W        W84319  27.932  30.184  16.975 -0.4234  0.0414  0.0318
41407W        W84320  34.476  22.667  24.726  0.1461  0.1246 -0.4094
41408W        W84321   3.580  25.966   4.422 -0.3586 -0.1069  0.1437
41409W        W84322   1.303  12.826  21.841  0.1868 -0.0869 -0.1896
41410W        W84323  23.812  22.562  23.381 -0.0459  0.0304  0.0096
41411W        W84324  24.075  19.882  27.790 -0.0437 -0.2907 -0.0987
41412W        W84325  28.033  14.471  25.726  0.1508  0.2371 -0.2870
41413W        W84326  25.780  24.613  29.140 -0.0176  0.0602 -0.1434
41414W        W84327   8.044  24.514  23.165  0.1507 -0.1702 -0.1746
41415W        W84328   2.905  25.114  28.773 -0.0763  0.2437 -0.1566
41416W        W84329  27.363  21.454  16.521 -0.1280 -0.0446  0.1129
41417W        W84330  25.399  27.867   3.796  0.2415 -0.2564 -0.0222
41418W        W84331  31.445  18.807  19.695  0.0738 -0.3812  0.0249
41419W        W84332   1.515  23.242  25.255 -0.0507 -0.3236 -0.0460
41420W        W84333  27.137  26.332   5.890  0.1302  0.0226  0.0608
41421W        W84334   2.834  26.259  27.045  0.1952 -0.2107 -0.0764
41422W        W84335  25.024  11.623  26.400 -0.0372 -0.0245  0.2101
41423W        W84336  20.762  30.517  24.634 -0.0133 -0.1085 -0.2784
41424W        W84337  22.730  33.249  29.634  0.0038 -0.0710 -0.0638
41425W        W84338   1.419  22.080   1.191 -0.2110  0.0389 -0.3309
41426W        W84339  32.075  23.206  21.544 -0.2319  0.1679 -0.0218
41427W        W84340   0.394  15.995  23.060 -0.4079 -0.2110  0.3158
41428W        W84341  31.889  22.640  14.590  0.1461  0.1523  0.1869
41429W        W84342  11.151  25.284   2.887  0.2674 -0.0572  0.1192
41430W        W84343  32.057  11.367  24.719  0.1349 -0.1134  0.3482
41431W        W84344   4.510  31.167  25.089 -0.0934 -0.2557  0.2436
41432W        W84345  33.658  27.024  24.017  0.3046 -0.1009  0.1822
41433W        W84346  30.796  18.054   9.239  0.3299  0.1219 -0.0144
41434W        W84347  33.927  19.225  22.903  0.1029 -0.0294 -0.1542
41435W        W84348  27.533  11.778  18.902 -0.3366 -0.0422  0.2080
41436W        W84349  31.216  20.975  22.106 -0.1065 -0.0609  0.2117
41437W        W84350  33.843  19.038  16.679 -0.3658  0.0689  0.0290
41438W        W84351  19.355   4.333   3.185  0.1469  0.0910 -0.1909
41439W        W84352   0.260  28.425  26.430  0.0774 -0.1313  0.2859
41440W        W84353  32.380  20.667  19.667  0.2185 -0.1284 -0.4122
41441W        W84354  29.535  20.702  27.170  0.0025  0.1043 -0.1043
41442W        W84355  27.249   2.485  16.195 -0.0523 -0.2006 -0.1218
41443W        W84356  32.110  21.046  24.989  0.2522  0.0122  0.6793
41444W        W84357  23.203  15.920  22.777 -0.1735  0.1303 -0.0223
41445W        W84358  18.065  28.130  20.013 -0.2494  0.3484  0.0183
41446W        W84359  15.742  29.697  26.719  0.3888 -0.2240  0.2260
41447W        W84360  32.906  28.640  20.279  0.2979  0.3071  0.1105
41448W        W84361   3.914  31.090  15.917  0.0767  0.1863 -0.1630
41449W        W84362   3.282  14.296  19.117 -0.3020  0.0286 -0.0863
41450W        W84363  27.256   0.771  23.665  0.2249 -0.0913 -0.3667
41451W        W84364  23.460  25.851  24.783  0.0378 -0.2287  0.1496
41452W        W84365  28.994  18.101  29.168 -0.1000 -0.1165  0.0309
41453W        W84366  27.672  31.590  27.428  0.0875  0.1793 -0.4878
41454W        W84367  32.778   0.181  26.393  0.2733 -0.1366  0.3838
41455W        W84368  11.162  19.697   0.386 -0.1072  0.0986  0.0880
41456W        W84369  30.107  30.110  28.805  0.1652 -0.3064  0.3093
41457W        W84370  23.763  22.520  27.948  0.3981  0.0127 -0.4556
41458W        W84371  28.704  24.995  28.198 -0.1680  0.1854 -0.0078
41459W        W84372  28.110  23.383  28.409  0.1990 -0.0247 -0.0400
41460W        W84373   2.234  20.275  22.607  0.1324  0.1058  0.1358
41461W        W84374  31.545  24.815  13.719 -0.2053  0.2338  0.2571
41462W        W84375  29.714  34.408  25.354 -0.0080 -0.0581 -0.2235
41463W        W84376  30.131   4.769   0.478 -0.2564  0.1474 -0.0959
41464W        W84377  18.836  22.107  26.903  0.2354 -0.0906  0.0146
41465W        W84378  29.500  23.545   0.697  0.1571  0.1742  0.0987
41466W        W84379   0.855  13.336   3.116 -0.0655 -0.1578 -0.1412
41467W        W84380  19.304  27.149  21.598  0.0386  0.3308  0.3879
41468W        W84381  33.550  23.749   0.826  0.0502  0.2696  0.2546
41469W        W84382  32.664  23.850  22.586  0.0756 -0.1847  0.0215
41470W        W84383   9.545  28.890  27.546  0.0209 -0.1805 -0.0506
41471W        W84384  21.416  17.148  27.253  0.1282 -0.1808  0.0377
41472W        W84385  24.946   4.557   2.120 -0.0272 -0.1503 -0.4391
41473W        W84386  32.662  33.376  21.417  0.0796  0.0406  0.1476
41474W        W84387  27.788  14.384   5.282 -0.2981  0.0275 -0.2081
41475W        W84388  33.668  23.210  23.865  0.2269 -0.0361  0.0567
41476W        W84389  19.172  29.442  25.554 -0.1043  0.2202  0.0581
41477W        W84390  21.154  33.247  27.473  0.5644 -0.1487  0.1407
41478W        W84391  31.570  17.836   7.755  0.0227 -0.1178 -0.0342
41479W        W84392  30.745  30.194  25.366 -0.2480  0.0410  0.0029
41480W        W84393   2.345  25.461   1.526  0.0801  0.1389  0.0381
41481W        W84394  24.140  26.639   1.449  0.1781  0.2029  0.0256
41482W        W84395  22.511  25.390   2.365 -0.0907 -0.2470 -0.3424
41483W        W84396  22.780  28.651  29.731 -0.1330  0.0852 -0.1637
41484W        W84397  27.079  23.489   3.237  0.1456  0.1130 -0.0501
41485W        W84398  24.617  26.415   2.006  0.0801  0.0613 -0.1448
41486W        W84399  27.465  30.417  23.926 -0.0021 -0.3290 -0.1441
41487W        W84400  30.123   0.645  23.492  0.0480  0.0744 -0.2337
41488W        W84401  16.092  23.361   6.060 -0.1258  0.1111  0.0754
41489W        W84402  15.546  32.222   3.239 -0.4097  0.0550 -0.2863
41490W        W84403  34.228  20.211   8.830  0.2459 -0.0670 -0.1973
41491W        W84404  28.820  33.536   2.081 -0.1819  0.1690 -0.3871
41492W        W84405  25.530  21.333  18.579 -0.1247 -0.0313  0.2680
41493W        W84406  17.529   8.454  28.323 -0.0569  0.2399 -0.1849
41494W        W84407  26.881  31.095   3.314  0.2004 -0.2848 -0.2228
41495W        W84408  18.552  27.485  28.493 -0.2844  0.2013 -0.0463
41496W        W84409  30.099  23.112  23.517 -0.1560 -0.1153 -0.4988
41497W        W84410  30.994  19.647  29.285 -0.6353  0.3009 -0.2324
41498W        W84411  21.086  22.647   4.905 -0.2391 -0.0822 -0.0683
41499W        W84412  24.367  33.640  14.435  0.4639  0.0097  0.1899
41500W        W84413  34.024   3.000   4.678  0.0383  0.2962  0.4253
41501W        W84414  24.374  24.441  25.370 -0.2792  0.0558  0.1711
41502W        W84415  26.187  28.907   7.443 -0.2151 -0.3184 -0.0792
41503W        W84416  24.007  23.278   6.673 -0.0629 -0.2027 -0.0696
41504W        W84417   4.745  20.826   6.161 -0.1509 -0.0287  0.0558
41505W        W84418  16.765  29.276  22.234 -0.3662  0.0909  0.0826
41506W        W84419   4.851  15.372   2.596  0.2082 -0.1699  0.0784
41507W        W84420   3.083  26.154  29.718 -0.1034 -0.0370 -0.0761
41508W        W84421  24.122  18.772  18.737  0.1404  0.0232 -0.2077
41509W        W84422  31.435  21.243  24.157  0.0847 -0.2020 -0.0949
41510W        W84423  32.356  28.898   4.646 -0.0497  0.0585 -0.0837
41511W        W84424  25.741  31.459  26.513 -0.0162 -0.0443  0.0902
41512W        W84425  19.766  23.406   7.298 -0.0838  0.2350  0.0238
41513W        W84426  31.150  22.151   2.507  0.1262 -0.3766  0.3435
41514W        W84427  22.330  16.754   4.654  0.2840  0.2036 -0.0120
41515W        W84428  25.022  22.833   0.531 -0.1522  0.1892 -0.2136
41516W        W84429   5.623  27.140  20.881  0.0490 -0.1363 -0.0969
41517W        W84430  29.563  25.737  27.743 -0.2266  0.1191  0.0561
41518W        W84431  31.971  27.031  29.655 -0.2770 -0.1885  0.1877
41519W        W84432  18.244  25.577  21.632 -0.3831  0.3571  0.1175
41520W        W84433  13.048  25.808  23.250 -0.3697  0.4277  0.1515
41521W        W84434  29.308  30.501  25.397 -0.0021  0.3291  0.2022
41522W        W84435  27.908  20.398  14.611 -0.1096 -0.2508 -0.4076
41523W        W84436  21.804  26.422  26.458  0.0702  0.1905  0.0223
41524W        W84437  23.659  15.396  25.221 -0.1588  0.0693 -0.3794
41525W        W84438  29.428  27.873  14.392  0.2782 -0.0498 -0.0138
41526W        W84439  25.710  16.979  25.489  0.0998  0.2038  0.0315
41527W        W84440  25.803  30.127  27.512  0.1166  0.3409  0.0091
41528W        W84441  27.454  25.329   2.081 -0.0386  0.3230  0.1022
41529W        W84442  24.703  18.698  28.890  0.0626 -0.3693 -0.4491
41530W        W84443  31.147  27.606  25.351 -0.0634  0.1199  0.1204
41531W        W84444  29.550  27.733  24.805 -0.0376 -0.0196 -0.0748
41532W        W84445  31.421  29.982   6.121 -0.2581 -0.0768 -0.0760
41533W        W84446  29.589  19.446  15.054 -0.1878  0.0478  0.1198
41534W        W84447   0.189  27.143   5.506  0.1152 -0.3102 -0.1674
41535W        W84448   0.381  20.487  27.885  0.1369  0.0151 -0.1419
41536W        W84449  24.518  21.825   4.883 -0.0577 -0.0621  0.0250
41537W        W84450  33.324  32.643  20.596 -0.1519  0.1098  0.3896
41538W        W84451  22.932   0.584   0.316 -0.0577  0.0361  0.1988
41539W        W84452  29.598  24.826  22.881  0.0048  0.0373  0.1721
41540W        W84453  28.205  19.594  28.062 -0.1065 -0.0649 -0.2064
41541W        W84454  13.653  22.471  17.587 -0.0488  0.0725 -0.0290
41542W        W84455  21.997  18.668   4.726 -0.1814  0.4877 -0.1183
41543W        W84456  26.469  34.359   8.968  0.1012 -0.1957 -0.0243
41544W        W84457  26.195  18.412  28.618  0.0716  0.2629  0.0355
41545W        W84458   2.817  14.340  19.916 -0.2281  0.0142 -0.0320
41546W        W84459   0.913  22.003  23.140 -0.3118 -0.0210 -0.0375
41547W        W84460   9.609  16.124  25.049  0.0439 -0.1994  0.0499
41548W        W84461   0.441  23.414  10.315  0.0744  0.0915 -0.0558
41549W        W84462   9.309  23.171   0.428  0.2842  0.0193 -0.1953
41550W        W84463  29.246  34.016   0.204  0.0155  0.1260  0.2533
41551W        W84464  25.820  19.456  27.596  0.3646 -0.2201  0.1097
41552W        W84465  32.173  17.192   7.800  0.1894  0.1853  0.1219
41553W        W84466  34.414  22.255   7.160  0.2443  0.4455  0.3762
41554W        W84467  33.904  29.787   0.857  0.1580  0.3767 -0.1357
41555W        W84468  21.141  25.402  23.847 -0.1242 -0.0561  0.0773
41556W        W84469  27.205  25.807   3.170 -0.1314 -0.0457 -0.1866
41557W        W84470  27.333  22.756  23.438 -0.4193  0.2163  0.2053
41558W        W84471  33.323  23.520  16.722  0.0882  0.2699  0.3141
41559W        W84472   0.062  12.908  27.591  0.1342 -0.2375  0.0405
41560W        W84473  25.384  28.101   1.121 -0.2122 -0.0072  0.1241
41561W        W84474  24.718  24.406   0.354 -0.2006 -0.2050 -0.2485
41562W        W84475   5.743  23.320  20.118 -0.0863 -0.4650 -0.1284
41563W        W84476  25.772  25.858   2.791  0.2395 -0.1863 -0.2234
41564W        W84477  33.288  29.018   2.030  0.0817 -0.0510 -0.1204
41565W        W84478  27.228  26.831  29.504 -0.0601 -0.0169  0.4593
41566W        W84479  20.574  28.212   7.826 -0.0787  0.1630 -0.0719
41567W        W84480  24.299  19.374  20.043  0.0759  0.0850 -0.1151
41568W        W84481  29.712   3.534  26.831  0.0227 -0.2203 -0.0367
41569W        W84482   2.703  32.494   1.733 -0.3004 -0.0511  0.2832
41570W        W84483  20.360  27.887  22.808  0.0747  0.1124 -0.0891
41571W        W84484  21.810  18.227  19.891 -0.1401 -0.0385 -0.1518
41572W        W84485  25.818  18.336  24.573  0.0652  0.4400 -0.1671
41573W        W84486   5.292  21.825  24.652  0.2248 -0.1186  0.5085
41574W        W84487  22.873  24.429   7.830 -0.1450 -0.1936  0.0689
41575W        W84488  27.506   4.915   1.325  0.1422 -0.1107  0.1722
41576W        W84489   3.187  17.032  21.724 -0.3280  0.0754  0.3983
41577W        W84490  24.210  24.796   0.110  0.1168 -0.2620 -0.3142
41578W        W84491  28.434  20.337   1.401 -0.1037  0.0074  0.1746
41579W        W84492  17.448   9.197  25.831  0.2831  0.2271  0.3647
41580W        W84493  27.648  17.983  25.737  0.0033 -0.2039  0.1283
41581W        W84494  22.614  26.949  24.433 -0.0709  0.0890  0.2490
41582W        W84495   2.294  27.970  29.616 -0.1886 -0.3012  0.2554
41583W        W84496  25.742  25.190   2.661  0.1796  0.0125  0.0792
41584W        W84497  33.543  22.038  24.428  0.0353  0.0444 -0.1268
41585W        W84498  26.138  25.378  23.377  0.1559  0.0147 -0.0230
41586W        W84499   1.899  20.974   5.487 -0.0013 -0.1286 -0.2436
41587W        W84500   3.638  25.661  26.714 -0.0542 -0.3480 -0.2001
41588W        W84501  31.009  15.585  21.077  0.1430  0.3552 -0.3573
41589W        W84502  22.007  19.081  26.756  0.3756 -0.1165 -0.0557
41590W        W84503  31.472   1.445  29.579  0.0339  0.0762  0.0084
41591W        W84504  27.642  32.579   6.260  0.2452 -0.1582  0.0501
41592W        W84505  33.707  19.214   8.653  0.3182 -0.0531 -0.1433
41593W        W84506   1.005  23.427  22.687 -0.3415  0.1600  0.2432
41594W        W84507  34.040  29.745  22.323 -0.0397 -0.1967  0.3689
41595W        W84508  26.019  26.572  23.692 -0.1008  0.0306 -0.5088
41596W        W84509   1.616  23.863  20.062  0.1174 -0.0598 -0.1086
41597W        W84510   5.219  31.339   9.452 -0.1834 -0.3631 -0.1347
41598W        W84511  31.540  12.797  29.365  0.2034 -0.2742 -0.0677
41599W        W84512  22.819  22.394  26.361 -0.3139 -0.0255 -0.0061
41600W        W84513   4.969  14.552   3.319 -0.3398 -0.0224 -0.1440
41601W        W84514  29.507  25.708   0.372  0.0998 -0.2299  0.2518
41602W        W84515  19.057  21.252   2.135  0.0149  0.1969 -0.2619
41603W        W84516  33.909  26.406  16.602 -0.3792 -0.1826  0.0472
41604W        W84517   1.960  33.218  27.752 -0.1978  0.1714  0.2145
41605W        W84518  28.177  19.175   6.450 -0.1852  0.0984 -0.0433
41606W        W84519  29.884  24.956  19.275  0.1463 -0.0722  0.3453
41607W        W84520  29.464  12.406   1.831 -0.0866 -0.0447 -0.0828
41608W        W84521  31.103  22.266  16.729 -0.0283  0.1192 -0.0719
41609W        W84522  23.019  23.135   2.082  0.2133  0.1441 -0.3467
41610W        W84523   3.734  26.837  29.419 -0.1170  0.1210 -0.0166
41611W        W84524   2.406  29.650   9.883  0.2052 -0.2223  0.0776
41612W        W84525   1.880  24.622  21.267 -0.0676 -0.0580  0.3427
41613W        W84526  22.791  25.417  20.583 -0.2424  0.1638  0.1159
41614W        W84527  25.764  27.405  27.969 -0.2373  0.1902  0.0665
41615W        W84528  28.759  16.865  17.952  0.1936 -0.1559 -0.0431
41616W        W84529  34.093  32.204  25.002  0.2134 -0.2715 -0.0205
41617W        W84530  15.989  23.857  23.605 -0.0189 -0.0021  0.2688
41618W        W84531  33.351  19.828   2.572 -0.0144  0.0812 -0.0258
41619W        W84532  19.936  24.078  28.383 -0.0614  0.1550  0.0996
41620W        W84533  31.314  34.387  24.647  0.1655 -0.1188  0.3081
41621W        W84534  19.218  12.561  13.625  0.0998  0.2598 -0.1979
41622W        W84535  30.431  30.723   1.010  0.1658  0.0618 -0.1329
41623W        W84536  33.019  18.005   9.145  0.1684  0.0202  0.0524
41624W        W84537  28.868  20.889  21.784 -0.1897 -0.1509 -0.0409
41625W        W84538  32.590  23.451   9.559  0.3908  0.3332 -0.0924
41626W        W84539  29.710  25.246  16.632  0.0706  0.1000  0.1286
41627W        W84540  26.032  23.474  28.515  0.3683  0.1887 -0.0580
41628W        W84541   0.444   5.664   0.010  0.0421  0.0325  0.1128
41629W        W84542  30.602  34.408  28.412 -0.1820  0.1570 -0.1493
41630W        W84543  33.689  25.468  21.838 -0.3795 -0.2060  0.1750
41631W        W84544  31.972  29.831  23.029  0.0959 -0.1340  0.0700
41632W        W84545   3.567  22.134  28.304  0.1304  0.1767 -0.0670
41633W        W84546  20.543  26.592   0.438  0.0357 -0.1390  0.0160
41634W        W84547   1.087  30.151  28.626  0.0753 -0.2538 -0.1363
41635W        W84548  31.675  13.065  25.520  0.4074 -0.0231  0.3634
41636W        W84549  28.964  31.127  16.490  0.1605  0.0104  0.1944
41637W        W84550   2.780  24.675  28.914 -0.1902 -0.1234 -0.0025
41638W        W84551  28.820  29.339  21.450  0.0883 -0.0435 -0.1828
41639W        W84552  33.621  32.867  21.027  0.2576  0.0121 -0.0208
41640W        W84553   7.953  25.628   2.717 -0.0832 -0.1839  0.0155
41641W        W84554  29.365  25.839  25.209  0.0704 -0.1464  0.3113
41642W        W84555  33.184  20.941  25.903 -0.2274  0.1237  0.2710
41643W        W84556   1.856  27.806   5.647 -0.0282  0.3525 -0.0371
41644W        W84557  30.747  14.455  16.366 -0.2111  0.2321  0.1756
41645W        W84558  22.565  22.515  25.873  0.2307  0.3204 -0.3622
41646W        W84559  19.600  26.729  23.023  0.2011  0.0442  0.3713
41647W        W84560  34.341  18.370  28.030 -0.2449 -0.0615  0.1607
41648W        W84561  32.804  12.449  27.387 -0.2877 -0.1983  0.1079
41649W        W84562  26.738  30.720  28.183  0.0670  0.0162  0.0956
41650W        W84563  25.265  23.320   0.488 -0.0292  0.0709  0.1763
41651W        W84564  28.128  18.363  26.604 -0.1075  0.4299  0.0926
41652W        W84565  31.159  18.454  26.874 -0.0814 -0.0962  0.3850
41653W        W84566  19.803  19.643   4.562 -0.1877  0.1230 -0.0787
41654W        W84567  27.477  20.604   0.047 -0.0783  0.1174 -0.0515
41655W        W84568  17.079  25.368  23.192 -0.1179  0.2930 -0.0737
41656W        W84569  34.002  25.743   1.423  0.0461 -0.0039 -0.1340
41657W        W84570   3.716  31.126  22.769  0.0200 -0.1855 -0.2679
41658W        W84571  34.131  21.288  26.366  0.2633  0.0037  0.0770
41659W        W84572  31.010  18.904  25.625 -0.0749  0.2376 -0.3787
41660W        W84573  10.863  16.663   6.722  0.1368 -0.2426 -0.2017
41661W        W84574  27.466  22.672  24.739 -0.0494  0.1385  0.0388
41662W        W84575   2.650  29.427   8.274 -0.0180 -0.0692 -0.1706
41663W        W84576  17.426  30.403   6.450 -0.2273 -0.0573 -0.2135
41664W        W84577  32.058  16.199  27.783 -0.1358  0.0469 -0.1454
41665W        W84578  32.232  32.966   3.117  0.0145 -0.0488  0.2049
41666W        W84579   1.597  14.594   3.460 -0.3204  0.0035 -0.0474
41667W        W84580  22.911  26.294   0.593  0.1444  0.1478  0.1964
41668W        W84581  23.605   0.926  23.559  0.1900 -0.1612 -0.0287
41669W        W84582   5.401  25.622  21.848 -0.2136  0.1045 -0.0946
41670W        W84583  33.918  12.403   4.420 -0.3806 -0.0392 -0.3319
41671W        W84584   1.836  16.638  26.895  0.1093 -0.1619 -0.5089
41672W        W84585  22.188  23.279  24.846  0.1252 -0.1814  0.1319
41673W        W84586  34.015  11.662  25.590 -0.2606 -0.0889 -0.2078
41674W        W84587  23.666  21.917  22.090 -0.2328 -0.0794  0.0147
41675W        W84588  21.563  22.281  22.223  0.3075 -0.0214 -0.1004
41676W        W84589  17.226  23.890  21.901 -0.3614 -0.2347  0.4684
41677W        W84590   4.859  29.093  10.818 -0.1417  0.3571  0.0891
41678W        W84591  29.413  31.047  19.404 -0.1291 -0.1893 -0.0983
41679W        W84592  25.073  13.288  28.388 -0.0473 -0.0275  0.1693
41680W        W84593  26.638  32.813  20.103 -0.3488 -0.2101  0.1439
41681W        W84594  30.812  13.354  14.773  0.0480  0.0665  0.2091
41682W        W84595  20.584   6.518  29.518  0.0444 -0.1972  0.0638
41683W        W84596  26.972  34.367   2.884 -0.1824  0.2345  0.0357
41684W        W84597  12.297   6.192   3.122  0.1861  0.0372  0.3093
41685W        W84598  23.419  18.400  29.598  0.1725 -0.1220 -0.0486
41686W        W84599   1.245  17.435   5.105  0.3294  0.1066  0.1967
41687W        W84600  20.453  17.680   5.267  0.1594 -0.1423  0.3287
41688W        W84601  26.295  21.917   1.407  0.3487  0.2336  0.1663
41689W        W84602  28.696  28.305  19.210  0.1683 -0.2686 -0.0143
41690W        W84603  27.166  24.514  25.540  0.2853  0.0383 -0.0403
41691W        W84604   8.624   0.157   6.482  0.1387 -0.1882 -0.3391
41692W        W84605  34.090   2.569  25.786 -0.1174 -0.1028 -0.1166
41693W        W84606  31.471  13.580  18.615  0.0750  0.0045 -0.0269
41694W        W84607  30.461  23.991  28.508 -0.0560 -0.0932  0.0732
41695W        W84608  31.910  24.169   8.238  0.2368  0.0160 -0.4163
41696W        W84609  32.334  17.730  13.944  0.1148  0.0797  0.1003
41697W        W84610   0.005  31.850   5.167  0.2379  0.1680  0.0300
41698W        W84611  31.739  32.968  23.836 -0.1925  0.1073 -0.0155
41699W        W84612  24.737  26.683  19.912  0.0934  0.0166  0.2566
41700W        W84613  27.085  31.519  28.358  0.2578 -0.2508 -0.0038
41701W        W84614  16.354  14.498   7.890  0.2701 -0.2544  0.0295
41702W        W84615  25.670  23.397  26.932 -0.1315  0.0191  0.1230
41703W        W84616  22.873  23.197  29.035  0.2815 -0.0369  0.1178
41704W        W84617  19.614  17.721   3.828 -0.2868  0.1885 -0.3837
41705W        W84618  24.424  27.458  19.169 -0.1233  0.1556  0.0757
41706W        W84619  32.704  24.016   1.328 -0.6667 -0.1313 -0.0348
41707W        W84620   1.571  12.292  22.784 -0.1460 -0.3791 -0.0795
41708W        W84621  13.916  25.862   9.892  0.4079 -0.1929 -0.2170
41709W        W84622  24.388   3.337   7.954 -0.0982  0.1375 -0.1679
41710W        W84623  12.381  25.102   2.587  0.3041 -0.4323 -0.2038
41711W        W84624  23.739  20.456  25.636  0.2121  0.0999 -0.0263
41712W        W84625   5.447   0.990   4.708  0.1016  0.1693  0.2572
41713W        W84626  29.996  19.188  24.338 -0.1348 -0.3054 -0.2616
41714W        W84627  18.532  11.136   0.915 -0.0694  0.1059 -0.1060
41715W        W84628  31.181  22.432  22.475 -0.3142  0.0751  0.3249
41716W        W84629  11.866  17.293  19.385  0.1616  0.2092  0.0903
41717W        W84630   0.666  19.535   9.875  0.2720 -0.0367 -0.3611
41718W        W84631  22.630  30.186  18.567  0.1350 -0.3661 -0.0720
41719W        W84632  27.038  27.068  22.040 -0.0981 -0.0285 -0.1098
41720W        W84633  31.203  30.783  25.819 -0.1418 -0.3035  0.0221
41721W        W84634  29.880  25.975   7.013  0.1705 -0.0863 -0.0200
41722W        W84635  28.999  28.243  25.293 -0.0750  0.5665  0.1736
41723W        W84636  20.167  16.740  23.647  0.0142  0.1346  0.1567
41724W        W84637  27.747  24.494  28.037 -0.0581 -0.1830 -0.1766
41725W        W84638   5.625  24.627   0.309  0.1725  0.1272  0.2111
41726W        W84639  29.015  27.016  29.404  0.1544  0.1186 -0.1786
41727W        W84640   6.573  15.948   6.030 -0.1065 -0.3623 -0.0205
41728W        W84641   1.239  25.346   5.895  0.0473 -0.1062 -0.0258
41729W        W84642   1.943  22.646  26.299  0.0512  0.0349 -0.1331
41730W        W84643  33.323  18.257   6.299  0.1303  0.1385  0.1191
41731W        W84644  34.288  30.856  20.592 -0.2027  0.1567  0.2990
41732W        W84645  33.724  32.626   4.288  0.2773  0.1538  0.1500
41733W        W84646  25.831  27.074  26.320  0.0125 -0.1924 -0.1722
41734W        W84647   6.843  34.160   7.575  0.3767  0.1182  0.2094
41735W        W84648  27.646  27.793  25.281  0.2227 -0.0723  0.0242
41736W        W84649  25.657  30.815  16.959  0.0660 -0.2034 -0.0739
41737W        W84650  28.523  26.735  13.066 -0.2053 -0.4181 -0.1833
41738W        W84651  33.325  28.674  24.182  0.1227  0.2278  0.1781
41739W        W84652   2.476  22.191  28.781  0.0616 -0.2906 -0.1421
41740W        W84653  32.232  30.243  25.590  0.3140  0.4963 -0.2571
41741W        W84654   1.152  18.257  22.918  0.0778  0.1933 -0.1568
41742W        W84655  27.783  27.104  22.788  0.2823  0.1428 -0.1093
41743W        W84656  21.554  26.402   0.286 -0.1358 -0.0261 -0.1544
41744W        W84657   2.865  24.331  20.615 -0.1509  0.1182 -0.2790
41745W        W84658   1.400  15.401   9.834  0.2238  0.2331 -0.0172
41746W        W84659  21.315  16.632   7.973  0.2561  0.3392  0.0953
41747W        W84660  25.513   0.452   0.895 -0.2278  0.1327 -0.0427
41748W        W84661  20.083  29.863  28.674  0.2969 -0.2342  0.3264
41749W        W84662  31.865  34.339  27.670  0.0146 -0.0544  0.2680
41750W        W84663  24.144  25.361  25.774 -0.0703  0.0270  0.3643
41751W        W84664  25.666  31.525  21.529  0.0158  0.0855 -0.0903
41752W        W84665  27.706  24.125   3.546 -0.0316  0.0361 -0.1902
41753W        W84666  29.675  28.693  26.675  0.3580 -0.0323  0.0005
41754W        W84667  15.935  23.675  16.283  0.0617 -0.3440  0.0046
41755W        W84668  19.759  15.297   5.930 -0.2813  0.1277  0.1457
41756W        W84669  22.330  24.007   1.198 -0.2825  0.0899  0.0922
41757W        W84670   3.434  34.430  21.018  0.0132  0.0740 -0.0308
41758W        W84671  29.614  25.714  18.852 -0.1309 -0.6563 -0.1192
41759W        W84672  31.342  31.309  25.988  0.0605  0.0035 -0.2434
41760W        W84673   6.449  20.792  21.340  0.1088  0.1207  0.1146
41761W        W84674  27.387  29.933   3.954 -0.0390  0.1809  0.2116
41762W        W84675  14.894  25.526   5.405  0.0459 -0.1109  0.0588
41763W        W84676  30.016  21.586  26.104  0.0940  0.0816  0.0444
41764W        W84677  32.957   1.169  21.487 -0.0959 -0.0915  0.0084
41765W        W84678  18.760  17.045  26.595  0.0848  0.1056 -0.3935
41766W        W84679  31.507  24.837   3.382  0.0730  0.0398 -0.2398
41767W        W84680  26.159  25.218   4.552 -0.0865  0.0435 -0.2986
41768W        W84681  30.927  20.197   2.059 -0.2400  0.0137 -0.0076
41769W        W84682   1.571  30.501  20.856  0.3174  0.2730 -0.0904
41770W        W84683  23.502  17.732  16.498  0.0842  0.2077  0.2390
41771W        W84684  24.126   2.739   0.310 -0.1321  0.1945 -0.2366
41772W        W84685  18.832  23.761  23.782 -0.2231  0.1400 -0.0437
41773W        W84686  31.302  26.121  27.327 -0.1321  0.1295 -0.1812
41774W        W84687  26.483  28.968  21.693  0.1778 -0.1925 -0.1560
41775W        W84688  33.223  24.979  22.575  0.0058  0.1717 -0.0562
41776W        W84689  23.713  32.005  23.475 -0.1976 -0.2758  0.1976
41777W        W84690  21.983  23.114   3.185 -0.2006 -0.1723  0.0659
41778W        W84691  34.028  24.570   3.431  0.1808  0.2081 -0.0527
41779W        W84692  33.180  23.929  22.386  0.1746  0.0755 -0.0655
41780W        W84693  31.766  28.490  29.647  0.1489  0.2209 -0.1512
41781W        W84694   0.194  21.747  19.763 -0.2659  0.1793 -0.1180
41782W        W84695   1.571  23.633  27.070  0.0537  0.0008 -0.3806
41783W        W84696   2.522  27.105  25.771  0.1153 -0.3093 -0.3479
41784W        W84697  30.390  32.122  23.793  0.1551 -0.1110  0.1702
41785W        W84698  28.233  18.159  28.713  0.1293 -0.1525 -0.3437
41786W        W84699  26.430  23.376   6.120 -0.0288 -0.0962  0.3726
41787W        W84700   0.582  17.390  17.399 -0.0188  0.1618  0.2319
41788W        W84701  32.710  26.872  28.615  0.0946 -0.1476 -0.0479
41789W        W84702  33.056  24.083  26.699 -0.1038  0.0657 -0.0933
41790W        W84703  30.396  22.291  24.557 -0.1857 -0.3826 -0.1291
41791W        W84704  21.561  23.285  20.703 -0.1767 -0.0286  0.1087
41792W        W84705  31.398  30.173   0.585  0.2072 -0.0617  0.0312
41793W        W84706  32.847  32.743   1.742  0.3850 -0.1472 -0.2602
41794W        W84707  21.557  17.236  22.211  0.2557  0.0592  0.0224
41795W        W84708  32.702  28.303  27.413 -0.0716  0.0181  0.2896
41796W        W84709   3.553  26.705  28.385  0.3506  0.3474  0.1571
41797W        W84710  31.575  28.369   7.665 -0.2371  0.1960 -0.0268
41798W        W84711  27.939  25.454  21.991 -0.1334  0.2977 -0.0435
41799W        W84712  31.986  29.057  25.345 -0.3052 -0.1976  0.1029
41800W        W84713  23.293  26.236   1.032 -0.1698  0.0152  0.2259
41801W        W84714  26.881  19.160  27.911 -0.0548  0.0377  0.0165
41802W        W84715  21.438  31.299  29.387 -0.1601  0.1714  0.1999
41803W        W84716  30.078  24.014  28.903 -0.0589 -0.0421  0.2558
41804W        W84717  21.679  15.129  22.555 -0.2914  0.2062 -0.3304
41805W        W84718   4.396  11.449  19.383  0.0587  0.0086 -0.1417
41806W        W84719  33.742  22.079  28.627  0.3132  0.4358  0.0818
41807W        W84720  29.927  26.861   2.879  0.0213  0.3212  0.2948
41808W        W84721  28.783  22.675   2.292 -0.1667 -0.2137  0.3573
41809W        W84722  25.914  26.065  24.062  0.1219 -0.2400 -0.1069
41810W        W84723  28.416  26.111  20.215 -0.1082  0.0204  0.4360
41811W        W84724  21.022  24.348   3.557 -0.1613  0.1063 -0.0307
41812W        W84725   1.098  33.737  29.037  0.2096 -0.4528  0.0741
41813W        W84726  33.344  24.799  15.027  0.1291  0.0282 -0.1763
41814W        W84727   2.161  23.788  23.933 -0.2385 -0.1766 -0.0072
41815W        W84728  32.471  32.626  18.147 -0.0313  0.0927 -0.3468
41816W        W84729   0.035  25.324  28.892 -0.1080 -0.0406  0.1095
41817W        W84730   6.301  24.641  27.189 -0.2395 -0.1193 -0.2580
41818W        W84731  24.037  31.929   2.672 -0.1914  0.1137  0.0369
41819W        W84732  29.278  34.277  24.645 -0.0400 -0.1522 -0.0506
41820W        W84733  31.348  19.533  29.679 -0.0919  0.1500  0.2848
41821W        W84734  33.576  18.072   2.630 -0.0055 -0.1191  0.0469
41822W        W84735   2.176  15.629   9.265 -0.2051 -0.0776  0.2959
41823W        W84736   4.083  32.700  24.656  0.1552  0.3726 -0.0390
41824W        W84737  32.345  22.428  14.644  0.2340  0.0526  0.1118
41825W        W84738  28.773  24.000  13.525  0.1264 -0.0446 -0.2800
41826W        W84739  31.520   5.409  25.073 -0.1312  0.0448 -0.2758
41827W        W84740  30.231  28.933   2.286 -0.2616  0.1096  0.1481
41828W        W84741  19.695  28.263   4.172 -0.3701 -0.0387 -0.0764
41829W        W84742  26.143  31.328  24.851 -0.0999 -0.1753 -0.0110
41830W        W84743  23.894  18.734   1.401 -0.3895 -0.3104  0.1659
41831W        W84744  25.269  33.074  27.346 -0.3149  0.1549 -0.0019
41832W        W84745   6.302  12.527   0.199  0.2564 -0.3835  0.2673
41833W        W84746  27.512  25.021  17.780 -0.3026  0.3553  0.1067
41834W        W84747  27.850  24.282   2.574  0.0801 -0.0497 -0.0487
41835W        W84748  28.441  29.321   0.718 -0.4684  0.1175  0.1769
41836W        W84749  22.082  14.375  20.543 -0.1792  0.1014 -0.0361
41837W        W84750   2.111  23.988  10.114 -0.0320  0.2188  0.0805
41838W        W84751   2.844   4.132  19.902 -0.4347  0.1131  0.1081
41839W        W84752   3.235  15.904   5.371 -0.0386 -0.1590  0.0948
41840W        W84753  21.232  27.114  19.732 -0.0477  0.2559 -0.0904
41841W        W84754  21.944  30.457   2.984  0.0175  0.1347 -0.0065
41842W        W84755  23.355  27.777  26.044  0.2788 -0.1748  0.0560
41843W        W84756   1.809  29.210  27.067 -0.0484  0.0299 -0.1675
41844W        W84757   1.771  25.474  28.923 -0.1045  0.1223 -0.0558
41845W        W84758   0.345  25.364  22.301 -0.1471 -0.2086  0.0720
41846W        W84759  27.448  26.356  27.621  0.0516 -0.0325 -0.2178
41847W        W84760  33.346  26.597   0.585 -0.0517  0.1561  0.1340
41848W        W84761  22.178  27.951   4.435  0.2784 -0.0623 -0.1597
41849W        W84762  32.389  22.669  19.576  0.4269  0.0007  0.0085
41850W        W84763  26.871  23.232   6.363  0.0024 -0.0597 -0.0707
41851W        W84764  19.393  10.888  16.204 -0.1016 -0.0822 -0.0537
41852W        W84765  28.573  25.651  25.381 -0.2425  0.0088 -0.1884
41853W        W84766  27.289  32.077   7.593 -0.2131 -0.1932 -0.3532
41854W        W84767  24.880  21.191  29.568 -0.1371 -0.3622  0.3106
41855W        W84768  23.461  22.995   1.677 -0.0204 -0.2373 -0.2955
41856W        W84769  29.039  16.384  14.908  0.1667 -0.0590  0.0397
41857W        W84770   7.853  13.082  23.011  0.1357  0.2040 -0.1428
41858W        W84771  28.656  23.310   9.365 -0.3391  0.2960  0.3377
41859W        W84772   5.083  27.063   4.945  0.1242  0.0783  0.1982
41860W        W84773  26.960   0.456  26.574  0.2850  0.1202 -0.3030
41861W        W84774  32.976   9.049  28.833  0.1019 -0.0859  0.0553
41862W        W84775  32.347  16.970  22.060 -0.0508  0.0237  0.1592
41863W        W84776   4.253  31.963  22.424  0.1346 -0.0933 -0.2455
41864W        W84777  26.596  19.776  15.806  0.1020  0.0337  0.2924
41865W        W84778  22.512  29.624   6.468  0.0345 -0.0573 -0.0887
41866W        W84779  20.395  22.729  27.401 -0.2228  0.2084 -0.2215
41867W        W84780  29.500  21.476  21.400  0.3889 -0.2251 -0.0247
41868W        W84781   2.636  30.906   0.045 -0.2949 -0.0115 -0.2633
41869W        W84782  24.286  18.814   8.900  0.0219 -0.0084 -0.1526
41870W        W84783   1.474  15.912  25.910  0.1400 -0.0021  0.0661
41871W        W84784  21.370  24.795   3.778  0.2927 -0.1776 -0.2819
41872W        W84785  26.393  21.755  23.477  0.3912  0.1106 -0.1972
41873W        W84786  26.719  23.507   4.570 -0.0963 -0.1765  0.1694
41874W        W84787  30.517  24.013   1.375  0.2870  0.0027  0.0541
41875W        W84788  21.321  21.276  17.202  0.0377  0.0863 -0.0118
41876W        W84789  14.316  24.435  20.828  0.0469  0.3467 -0.0225
41877W        W84790  29.785  13.862   0.632 -0.3658  0.0542  0.0307
41878W        W84791  24.548  25.307  19.720 -0.0790 -0.0765 -0.3153
41879W        W84792  33.572  23.346   4.825 -0.2088  0.1367  0.0928
41880W        W84793  24.237  19.341  27.965 -0.1849  0.1178  0.1003
41881W        W84794  30.699  27.613  25.709  0.3520 -0.0278 -0.0104
41882W        W84795   1.269  20.544   3.857  0.1816 -0.2924  0.3150
41883W        W84796  19.122  27.163  27.263 -0.0038  0.0587 -0.0165
41884W        W84797  15.373  32.043   3.664 -0.2042 -0.0086 -0.0364
41885W        W84798   5.416  33.882   1.902  0.2175  0.2264 -0.1218
41886W        W84799   3.489  32.763  28.918 -0.0491 -0.2232 -0.3399
41887W        W84800   8.763  17.946   5.840 -0.0032 -0.0611 -0.5872
41888W        W84801  25.903  23.892  28.940 -0.1822  0.2297  0.0220
41889W        W84802  24.178  31.883   1.860  0.1240 -0.3668  0.2138
41890W        W84803   3.574  20.323   2.452 -0.2161  0.1101  0.1698
41891W        W84804   5.123  15.721  27.389 -0.1423  0.0316  0.1049
41892W        W84805   5.483  22.497   2.905 -0.0496 -0.0736  0.1057
41893W        W84806  26.002  20.053  23.860 -0.2699 -0.2370  0.0834
41894W        W84807  27.921   5.784   0.968  0.0689 -0.0223  0.1162
41895W        W84808   5.470  21.165   8.522 -0.0915  0.2575 -0.2704
41896W        W84809  20.214  18.152   5.080 -0.2111 -0.0515  0.0375
41897W        W84810  32.959  26.991  29.119  0.1185 -0.1173  0.0804
41898W        W84811  12.974  25.479  23.685 -0.2590 -0.0918  0.0233
41899W        W84812   1.249  31.605   8.415 -0.0699 -0.3282  0.0242
41900W        W84813  32.429  16.559  27.774  0.2360 -0.2531 -0.0400
41901W        W84814  32.092  21.525  26.324 -0.0454  0.3424 -0.2215
41902W        W84815   1.598  14.922   2.707 -0.1334  0.1300  0.0604
41903W        W84816  33.824  21.745   1.362  0.2587  0.1477 -0.2579
41904W        W84817  27.674  23.593   4.426  0.1275 -0.0586  0.1434
41905W        W84818  30.679  27.514   5.999 -0.0573  0.2177  0.4202
41906W        W84819  29.427  20.638   4.443  0.1283 -0.0805  0.0797
41907W        W84820   5.193   6.674  22.594  0.1501  0.4079 -0.1743
41908W        W84821  32.456  22.342  22.706 -0.1748  0.0584  0.4462
41909W        W84822  26.368  23.877  28.832 -0.2466  0.2718 -0.2893
41910W        W84823   2.690  24.615   4.265 -0.0380  0.0667  0.0273
41911W        W84824  16.739  33.376  26.957 -0.6478 -0.2878  0.2183
41912W        W84825  25.653  22.465  29.116  0.0289  0.1928  0.0828
41913W        W84826   0.059  26.034   7.613  0.0168  0.0811 -0.0522
41914W        W84827  31.495   0.682  21.311  0.1261  0.0460 -0.2793
41915W        W84828  30.363  34.011  22.671  0.2007  0.0426  0.0722
41916W        W84829  29.954  31.453   3.544  0.1519 -0.2546  0.0553
41917W        W84830  27.906  22.407  27.755  0.1074 -0.1282  0.4240
41918W        W84831  28.877  21.156  26.085  0.1045  0.3930 -0.0139
41919W        W84832  20.640  24.926  17.821 -0.1776 -0.1079 -0.1406
41920W        W84833  24.427  22.961  27.073 -0.0476 -0.1238  0.2666
41921W        W84834   0.896  17.407  26.400 -0.2504 -0.1146 -0.2416
41922W        W84835  29.980  25.211   5.153  0.0350 -0.0539  0.3778
41923W        W84836  30.452   2.586  28.282 -0.2875  0.0740 -0.1109
41924W        W84837   0.036  25.776   6.189  0.1696 -0.1330  0.2767
41925W        W84838   3.246   1.288  19.404  0.0318 -0.1423 -0.1169
41926W        W84839  28.580  25.793  14.829  0.0185  0.3003  0.0153
41927W        W84840  26.999  32.641  18.554  0.0244 -0.0544 -0.1052
41928W        W84841  25.331  29.384  14.795 -0.2140  0.2968  0.0975
41929W        W84842  25.051  19.698  19.310 -0.1034  0.3213  0.1156
41930W        W84843  31.637  28.591  17.678 -0.3043  0.0031  0.0732
41931W        W84844  26.705  17.658  15.713  0.0522  0.1309 -0.1705
41932W        W84845  32.265  20.421  19.256  0.3345 -0.1025  0.0358
41933W        W84846  30.331  30.313  18.341  0.2355 -0.4052 -0.0367
41934W        W84847  34.212  29.039  14.941  0.0956 -0.2625  0.0210
41935W        W84848  32.195  18.320  13.920 -0.0223 -0.1434  0.1701
41936W        W84849   1.113  25.557  19.089  0.0189  0.3219 -0.0108
41937W        W84850  26.146  19.633  19.990 -0.2488 -0.0714  0.1995
41938W        W84851  20.697  19.410  17.429 -0.3808  0.3416  0.1079
41939W        W84852  25.180  19.004  20.701 -0.2264  0.1022  0.1650
41940W        W84853  28.047  33.106  14.983 -0.0317 -0.4644  0.0504
41941W        W84854  21.869  20.549  19.270  0.0025  0.1032  0.3787
41942W        W84855  34.439  33.864  19.849  0.1625  0.2434 -0.1084
41943W        W84856  30.869  15.431  14.899 -0.0433 -0.3129 -0.3225
41944W        W84857  21.771  31.666  21.875  0.2043 -0.1477 -0.0376
41945W        W84858   1.055   9.335  16.300  0.0204 -0.3083 -0.1251
41946W        W84859  24.280   1.166  18.132  0.0635 -0.1726  0.0989
41947W        W84860  19.021  31.075  20.848  0.1796 -0.1067 -0.0200
41948W        W84861  25.190  21.443  20.614 -0.1409 -0.2732 -0.3612
41949W        W84862  23.908  31.430  17.225 -0.0659 -0.2256  0.0503
41950W        W84863  31.920  23.042  24.328  0.1018  0.4206  0.0935
41951W        W84864  22.687  18.433  20.948 -0.0672 -0.1300 -0.0501
41952W        W84865   3.712  25.681  18.470  0.2615  0.4829 -0.3026
41953W        W84866  24.344  32.900  21.332 -0.0836  0.0881 -0.2868
41954W        W84867  33.929  22.411  14.511  0.0759  0.1403 -0.1699
41955W        W84868  32.639  30.171  17.258  0.1426 -0.0193 -0.0939
41956W        W84869  29.957   5.946  18.891  0.2307 -0.0087 -0.0622
41957W        W84870  16.834  18.918  13.155  0.2059 -0.1613  0.2509
41958W        W84871  32.283  24.516  17.839  0.0689  0.0467 -0.2159
41959W        W84872  28.747   3.153  20.397  0.0090  0.0812 -0.0177
41960W        W84873  26.858  29.203  14.675 -0.1808  0.0270 -0.1045
41961W        W84874  31.871  26.812  21.173 -0.3880 -0.1952 -0.0946
41962W        W84875  34.425  27.614  22.034 -0.2296  0.1457 -0.0817
41963W        W84876  30.953  23.694  18.562  0.1376  0.0111  0.0343
41964W        W84877  27.336  23.788  26.503 -0.0206  0.0705 -0.0567
41965W        W84878   0.514  27.514  17.241  0.1847  0.1432 -0.0260
41966W        W84879   0.911  32.272  20.099  0.1900 -0.1359  0.0983
41967W        W84880  26.025  29.542  21.071 -0.1481 -0.0433  0.1730
41968W        W84881  33.480  20.222  13.536  0.2363 -0.0703 -0.1132
41969W        W84882  19.137  27.011  26.738  0.0218  0.0511 -0.1607
41970W        W84883  32.785  30.218  14.480  0.4362 -0.2600  0.1005
41971W        W84884  23.735  30.262  17.843 -0.1368 -0.3442 -0.0242
41972W        W84885  28.138  24.503  26.543  0.1004  0.0682  0.0006
41973W        W84886  29.735  23.787  17.607 -0.0527 -0.3995  0.0716
41974W        W84887  24.998   1.875  16.543 -0.1804 -0.0523  0.1453
41975W        W84888  27.205  27.866  25.034 -0.1869 -0.3694 -0.0383
41976W        W84889  25.302  25.531  22.163 -0.1288 -0.3086  0.2779
41977W        W84890  27.580   2.336  19.280 -0.2632 -0.2270  0.2018
41978W        W84891  18.957  31.631  16.281 -0.1404 -0.0466 -0.0015
41979W        W84892  22.422  21.895  15.297  0.1432  0.1281 -0.2932
41980W        W84893  26.218  19.625  14.026 -0.3867 -0.1059  0.0067
41981W        W84894  23.927  27.157  13.658 -0.3049 -0.6029 -0.1776
41982W        W84895  11.115   5.797  17.524  0.0552 -0.0833 -0.2978
41983W        W84896  33.289  31.021  14.632  0.0012  0.1138 -0.0080
41984W        W84897   2.603  19.599  16.297  0.0749 -0.4110  0.0553
41985W        W84898   0.005  26.039  22.046  0.0644 -0.3970  0.1049
41986W        W84899  26.017   3.545  18.321  0.0420  0.1098  0.1712
41987W        W84900  25.217  31.954  16.798  0.0218 -0.2138  0.0117
41988W        W84901  22.869  31.100  19.142 -0.0584  0.0879 -0.0043
41989W        W84902   0.608  19.273  16.396 -0.1345  0.3209 -0.1823
41990W        W84903   1.480  20.708   1.439  0.2739  0.3543 -0.1296
41991W        W84904   3.955  18.980  24.460 -0.0851  0.2077  0.1603
41992W        W84905   1.428  32.149  18.670  0.1362  0.1741  0.2105
41993W        W84906  28.267  30.643  18.937 -0.1971 -0.3758  0.2027
41994W        W84907   4.312  27.765  20.240  0.0100  0.0177 -0.2627
41995W        W84908  30.438  18.714  14.285  0.0824 -0.2792 -0.0831
41996W        W84909  33.956  22.381  21.185  0.1894  0.0850 -0.0018
41997W        W84910  32.404  31.435  18.554 -0.0813  0.0346 -0.2162
41998W        W84911  32.399  25.710  15.541 -0.0480 -0.1752 -0.0800
41999W        W84912  33.654  27.654  27.122 -0.0816  0.1669  0.1884
42000W        W84913  33.055  24.638  20.803  0.1250  0.0946  0.3075
42001W        W84914  33.392  26.247  16.408  0.0399  0.0807  0.1428
42002W        W84915  31.603  25.858  16.118 -0.1771  0.1212 -0.1728
42003W        W84916  33.895  16.406  19.260 -0.0225  0.0802  0.0166
42004W        W84917  31.406  31.667  15.195 -0.1468  0.0318  0.2631
42005W        W84918   0.425   2.794  16.884 -0.0819  0.5167  0.3973
42006W        W84919  30.735  33.236  15.758 -0.0148  0.0876  0.0103
42007W        W84920  25.727  21.438  17.089  0.0964  0.0686  0.0464
42008W        W84921  23.378  23.340  21.162  0.2273  0.0093  0.1947
42009W        W84922  32.390  26.558  28.416  0.0487  0.5330  0.0199
42010W        W84923   3.688  24.463  16.046 -0.0531  0.2138  0.0731
42011W        W84924  27.426  26.479  21.542 -0.2250 -0.1166  0.0055
42012W        W84925   3.275  13.853  26.355 -0.3476  0.1560  0.0126
42013W        W84926  28.519  21.966  18.824  0.2211  0.1541 -0.0842
42014W        W84927   0.877  30.318  17.127  0.4203  0.1602 -0.0361
42015W        W84928  23.928  25.848  15.088  0.0417 -0.0679 -0.0928
42016W        W84929  28.478   2.043   0.269  0.1253  0.0353  0.2466
42017W        W84930   2.931  15.144  22.453  0.1894  0.1017  0.0643
42018W        W84931  28.446  26.934  14.454 -0.1270  0.0209  0.0872
42019W        W84932  31.397  32.904  21.314  0.0249 -0.0241  0.0222
42020W        W84933   2.127  27.120  15.306 -0.1582 -0.1512 -0.1253
42021W        W84934  29.670  16.341  16.428 -0.3074 -0.2042 -0.0399
42022W        W84935   3.295  21.931  14.823 -0.0004 -0.2437 -0.3469
42023W        W84936  33.126  29.188  13.523  0.0848  0.0085 -0.2686
42024W        W84937  20.979  22.315  13.984  0.0880 -0.1295 -0.1344
42025W        W84938  27.349  34.150   0.034  0.1051  0.1667  0.0057
42026W        W84939  26.854  30.421  20.062 -0.1578 -0.2690 -0.1182
42027W        W84940  25.617  29.069  19.494 -0.0591  0.3021  0.0491
42028W        W84941  20.827   3.879  16.035  0.3325  0.1562 -0.0338
42029W        W84942  30.485  10.004  23.311  0.2733  0.2507  0.1844
42030W        W84943  23.742  34.493  14.068  0.5020  0.4579 -0.0551
42031W        W84944  17.013  24.261  20.086 -0.0567 -0.2776  0.2174
42032W        W84945   3.661  24.575  26.145  0.1264  0.1173 -0.1969
42033W        W84946  29.902  30.235  19.827 -0.0466  0.0851 -0.0363
42034W        W84947  28.311  31.764  20.427 -0.0707  0.1175  0.0401
42035W        W84948  26.409  33.794  15.002 -0.1699  0.0510  0.0881
42036W        W84949  29.220  22.598  16.671  0.1368  0.0041 -0.1947
42037W        W84950  30.057  23.582  24.735  0.0496 -0.1473  0.2056
42038W        W84951  17.715  22.551  22.129  0.3554  0.0095  0.1516
42039W        W84952  32.333  25.006  20.014  0.1011 -0.2227  0.0956
42040W        W84953  30.813   1.165  17.953  0.0008  0.1795  0.0430
42041W        W84954  30.848  26.825  13.976  0.1465  0.1112  0.2302
42042W        W84955  31.824  21.548  15.621  0.0288 -0.0851 -0.3169
42043W        W84956  21.034  26.005  17.249 -0.0112  0.1783  0.2161
42044W        W84957  30.291   1.601  22.609  0.0635  0.0568  0.2957
42045W        W84958   1.266  21.039  15.349 -0.2139  0.1243 -0.5323
42046W        W84959   6.829  25.685  23.221 -0.0838 -0.1801  0.2321
42047W        W84960  26.082  30.435  14.681 -0.0530 -0.0134 -0.0282
42048W        W84961  14.606  25.811  22.709 -0.0350 -0.0385 -0.1732
42049W        W84962  20.237  22.941  16.437  0.0343  0.0002 -0.0372
42050W        W84963   4.300  32.263  16.361  0.0481  0.0126  0.0751
42051W        W84964   3.320  24.497  15.709  0.2529 -0.0450  0.0470
42052W        W84965  30.448  25.876  15.477 -0.0792  0.0024  0.1232
42053W        W84966  24.356  31.615  25.333 -0.0781  0.0538 -0.2285
42054W        W84967   4.986   3.319  26.579 -0.0761  0.3022  0.1603
42055W        W84968  31.881  24.093  15.816 -0.0278  0.0203  0.0186
42056W        W84969  32.784  22.316  22.310  0.1066 -0.2097  0.0499
42057W        W84970  24.175  22.575  13.267 -0.1752  0.0931  0.0364
42058W        W84971  30.148  32.291  18.797 -0.2064  0.0977 -0.2069
42059W        W84972  26.870  25.944  15.460 -0.2168  0.0469  0.3929
42060W        W84973  22.387  16.163  20.305 -0.0052 -0.0988 -0.0979
42061W        W84974   1.562  33.233  16.393  0.0772  0.0528 -0.3364
42062W        W84975  30.028  28.321  15.018  0.2557 -0.1379  0.0572
42063W        W84976  33.167  30.937  17.627 -0.2709  0.0829  0.0572
42064W        W84977  26.992  25.969  29.045  0.0969 -0.0689  0.1320
42065W        W84978  27.301  12.703  19.221  0.2193 -0.1133 -0.0561
42066W        W84979  22.576  22.831  22.945  0.1011 -0.0836  0.1628
42067W        W84980  32.877  24.257  14.474 -0.2901  0.1301 -0.1227
42068W        W84981  23.491   4.783  17.606  0.1673 -0.3504  0.0493
42069W        W84982   6.846  12.586  27.108 -0.2269  0.1407  0.2243
42070W        W84983  34.488   0.211  19.031 -0.4546 -0.0981  0.0173
42071W        W84984   1.494  25.221  19.193  0.0877 -0.1198  0.0183
42072W        W84985  22.059  30.970   0.296  0.1117  0.2571  0.1036
42073W        W84986  30.109  25.669  15.043 -0.2571 -0.0020  0.3316
42074W        W84987   6.572  22.409  16.953 -0.2700  0.1107  0.0970
42075W        W84988  28.287  29.542  14.971  0.0740 -0.1137 -0.0892
42076W        W84989  15.939   7.831  16.494 -0.2136  0.1228  0.1320
42077W        W84990  33.444  18.291  26.681  0.3571 -0.1504 -0.0022
42078W        W84991  34.313  34.445  18.654  0.0077  0.4504 -0.0289
42079W        W84992  24.276  25.503  17.686 -0.4174  0.1332  0.1426
42080W        W84993  24.018  28.465  13.521 -0.0019 -0.0103 -0.1227
42081W        W84994   1.568  26.515  20.593 -0.0651  0.0876 -0.0230
42082W        W84995  27.368  31.154  16.655  0.3961 -0.0489  0.1157
42083W        W84996   1.179  31.243  16.006 -0.2633 -0.2809  0.2855
42084W        W84997  20.657  24.885  22.256 -0.0367  0.0927  0.2606
42085W        W84998  31.315  24.603  16.006 -0.1136 -0.0327 -0.1607
42086W        W84999  26.953  27.019  16.065 -0.0603 -0.0998  0.1708
42087W        W85000  30.467  29.864  14.322  0.0514  0.0201  0.0951
42088W        W85001  24.232  33.806  13.952  0.0304  0.0301 -0.0099
42089W        W85002  29.024  31.648  19.806  0.0958 -0.2498  0.1331
42090W        W85003   0.077  23.485  15.757 -0.0110 -0.0572 -0.2340
42091W        W85004  26.578  21.919  20.464 -0.1487 -0.0817 -0.1989
42092W        W85005  29.972  18.303  21.012 -0.0680 -0.1572  0.1053
42093W        W85006   1.458   1.023  21.555 -0.2706 -0.0675  0.0214
42094W        W85007   9.766  31.430  20.111 -0.0884  0.0355 -0.1439
42095W        W85008   1.153  24.185  24.350 -0.0335  0.1027  0.3046
42096W        W85009  24.546  21.938  20.037  0.0995  0.0412 -0.2574
42097W        W85010  28.621  29.742  25.296  0.0132 -0.1572 -0.0942
42098W        W85011  19.042  31.014  23.396 -0.0516 -0.0267  0.1796
42099W        W85012   1.801  26.508  16.256  0.3766  0.0173 -0.3646
42100W        W85013   2.218  28.951  16.906 -0.1266  0.1934  0.0797
42101W        W85014   2.155   4.549  16.824  0.0310 -0.0324 -0.3100
42102W        W85015  21.277   2.252  16.707  0.1840 -0.0099  0.0588
42103W        W85016  29.627  17.149  19.873 -0.1581  0.1546 -0.1152
42104W        W85017  25.488  23.806  17.427  0.0821  0.1883  0.1125
42105W        W85018  27.835  24.329  19.449  0.1623  0.0137 -0.1228
42106W        W85019  23.113  23.092  27.695  0.3869  0.2670  0.1387
42107W        W85020  32.343  30.878  14.656 -0.3519  0.0434  0.0961
42108W        W85021  33.689  26.244  23.003 -0.1424 -0.3022  0.1856
42109W        W85022  30.547   4.156   0.846  0.2671  0.0227 -0.0139
42110W        W85023  27.342   4.675  14.523 -0.0021 -0.0951 -0.4533
42111W        W85024  25.791  30.175  18.165 -0.1372 -0.0528 -0.1381
42112W        W85025  26.555  29.891  14.020 -0.1276 -0.0911 -0.0036
42113W        W85026  33.011  34.025  18.654 -0.0980  0.1681 -0.2141
42114W        W85027  33.642  25.396  25.264  0.2440 -0.0147  0.4683
42115W        W85028  31.384  28.217  28.607  0.2823  0.0550  0.1177
42116W        W85029  33.262  12.655  19.023  0.0064 -0.1931 -0.0307
42117W        W85030   6.140  24.893  17.532 -0.2414  0.1311 -0.3602
42118W        W85031  24.715  33.506  23.374 -0.0377  0.1332 -0.0037
42119W        W85032  32.606  25.986  23.204  0.1013  0.3846  0.2107
42120W        W85033  30.656  31.489  17.555  0.2989 -0.3946 -0.1742
42121W        W85034  27.076  28.034  15.900 -0.2290  0.0270  0.1843
42122W        W85035  26.560  20.864  14.918  0.2930 -0.2027  0.1310
42123W        W85036  31.936  25.269  14.964  0.0557  0.0699  0.2195
42124W        W85037   0.254  21.006  17.834  0.2667 -0.1009 -0.0877
42125W        W85038  31.610  27.853  21.844 -0.0533 -0.1786  0.1879
42126W        W85039   4.338  27.631  17.124 -0.1424 -0.1755 -0.2353
42127W        W85040  31.638  28.071  14.457  0.0335  0.2749 -0.2079
42128W        W85041  20.403  24.779  23.555 -0.0453  0.1269 -0.0062
42129W        W85042   3.219  23.616  22.540 -0.0743  0.1639 -0.2120
42130W        W85043  31.250  19.581  22.006  0.1854 -0.1845 -0.2965
42131W        W85044  32.934  17.912  21.382 -0.0552  0.0883  0.0671
42132W        W85045   0.862  24.850  23.043  0.0230  0.3164  0.0675
42133W        W85046  30.125  18.701  18.019  0.3036  0.2672 -0.0146
42134W        W85047  19.882  22.453  20.395 -0.1336  0.2078 -0.0905
42135W        W85048  25.452  21.269  20.230  0.2375  0.1669 -0.2324
42136W        W85049  33.800  17.353  21.181  0.0235  0.0874 -0.1660
42137W        W85050  33.930  34.346  20.542  0.1763  0.0950 -0.0134
42138W        W85051  33.807  27.722  16.088 -0.1142 -0.0520 -0.0541
42139W        W85052  31.530  29.823  15.063 -0.0120 -0.0423 -0.0861
42140W        W85053  26.770  22.950  18.489  0.1602  0.1471 -0.1952
42141W        W85054   3.601  19.783  22.621 -0.2690 -0.2409  0.0330
42142W        W85055   1.893  27.718  19.550  0.2420  0.0847  0.0383
42143W        W85056  32.545  32.888  14.631  0.5180  0.1986 -0.1323
42144W        W85057   4.141  25.167  17.250  0.1624  0.1912  0.0745
42145W        W85058  29.499   0.626  17.216 -0.0223  0.0665  0.0717
42146W        W85059   0.446  15.919  14.401 -0.1329  0.0157  0.1399
42147W        W85060  25.440  26.703  25.991 -0.0533  0.2550 -0.1108
42148W        W85061  23.899   3.372  18.622  0.0642 -0.1748 -0.2302
42149W        W85062   9.671   1.014  23.900 -0.0318  0.0258  0.2493
42150W        W85063  23.562  23.176  13.423  0.1521  0.0077 -0.1525
42151W        W85064  28.131  14.604  22.279 -0.0946  0.3580  0.0421
42152W        W85065   4.475  21.585  23.328 -0.0667  0.1785  0.0615
42153W        W85066  21.178  22.657  11.957 -0.2987  0.0496  0.0721
42154W        W85067  24.915  30.511  16.263  0.0665 -0.0137 -0.0437
42155W        W85068  25.762  32.666  18.494 -0.0091 -0.1125  0.0097
42156W        W85069  29.312  22.744  26.832  0.3777  0.1963  0.0193
42157W        W85070   4.169  28.274  16.998 -0.2301 -0.2730 -0.0832
42158W        W85071   4.835  25.650  14.957  0.1821 -0.1650  0.1772
42159W        W85072   2.610  21.747  14.865  0.5346 -0.0058 -0.3013
42160W        W85073  33.364  29.457  14.344 -0.1172  0.1061  0.2084
42161W        W85074   2.928  26.228  20.917 -0.0399  0.1690 -0.2643
42162W        W85075  20.803  22.550  18.620  0.0316  0.2258  0.0940
42163W        W85076  34.293  20.112  17.794 -0.0362  0.0358 -0.1411
42164W        W85077   3.228  26.858  16.911  0.0302  0.6109  0.1242
42165W        W85078  29.310  32.925  21.219  0.1062  0.3356  0.2675
42166W        W85079  30.739  31.894  14.643 -0.1721  0.0502  0.0242
42167W        W85080  29.148  18.365  14.541  0.2060  0.0368 -0.0561
42168W        W85081  24.560  28.464  22.471  0.1237  0.4754  0.3107
42169W        W85082  30.469  29.250  20.427 -0.0273  0.3310 -0.2235
42170W        W85083  21.945  25.926  24.997  0.2640  0.3601  0.1918
42171W        W85084  29.572  28.942  27.189 -0.0628  0.2081  0.0431
42172W        W85085  30.135  26.612  14.887  0.0955  0.0825  0.0143
42173W        W85086  33.554  25.850  21.625 -0.2319 -0.2084 -0.1991
42174W        W85087  28.751  26.185  15.102  0.0279 -0.0473  0.2838
42175W        W85088  20.622   5.509  23.004  0.0200 -0.0378  0.0945
42176W        W85089  26.731  28.877  17.911 -0.0789 -0.0102  0.2229
42177W        W85090  32.957  30.597  18.153  0.0987 -0.2391 -0.2647
42178W        W85091   0.580  26.794  22.210  0.1221  0.0709  0.1435
42179W        W85092  22.053  28.009  19.866  0.0948 -0.3028 -0.3092
42180W        W85093   1.415  20.594  28.797 -0.0055  0.0762  0.0371
42181W        W85094   6.682  15.856  23.357  0.2227 -0.1400  0.2249
42182W        W85095  31.694   8.643  16.615  0.4304 -0.4955  0.1339
42183W        W85096  32.661  24.549  20.281 -0.1422  0.0844 -0.0292
42184W        W85097  33.295  26.110  27.886 -0.0709  0.2050  0.0600
42185W        W85098  29.504  24.343  20.163  0.0814  0.1750  0.2930
42186W        W85099  26.452   0.160  14.150  0.0336  0.1047  0.4526
42187W        W85100  33.269  25.803  21.266  0.1746  0.1691 -0.1101
42188W        W85101  28.309  34.415  20.639  0.0021 -0.0384  0.2418
42189W        W85102   1.229   5.793  17.719  0.0362  0.1899  0.1854
42190W        W85103  27.646  21.271  16.157  0.0696 -0.4336  0.3029
42191W        W85104   0.876  25.513  23.826  0.1255  0.1251 -0.2961
42192W        W85105   1.874  20.914  19.732  0.0146  0.3292  0.1455
42193W        W85106  31.371  26.788  19.034 -0.0243  0.2308 -0.0910
42194W        W85107  27.454  17.027  21.402 -0.0447  0.3095 -0.2398
42195W        W85108  25.480  23.602  23.672  0.0923 -0.0537 -0.2829
42196W        W85109  27.072  29.393  19.279 -0.0862  0.0542 -0.2828
42197W        W85110  27.370  25.172  15.694 -0.2532 -0.1237 -0.1993
42198W        W85111  30.118  30.635  17.213  0.2139  0.0468  0.1066
42199W        W85112   5.287  23.749  16.581 -0.2072  0.2880 -0.0558
42200W        W85113  22.909  24.200  24.028  0.3960  0.0186  0.1162
42201W        W85114  26.902  32.365  21.863  0.5050 -0.1093 -0.0213
42202W        W85115  24.228  26.073  17.051 -0.3191 -0.0889  0.0634
42203W        W85116   4.003  19.834  22.151  0.2282 -0.0439  0.4153
42204W        W85117  20.218  29.513  13.972  0.1538 -0.0169  0.0485
42205W        W85118  24.161  34.319  14.311 -0.1301 -0.0952  0.0871
42206W        W85119  33.594  20.423  20.567 -0.0022 -0.1184  0.0845
42207W        W85120  32.347  26.971  18.025 -0.0971  0.0785 -0.2961
42208W        W85121   9.712  23.635  15.918 -0.0126 -0.0135 -0.3934
42209W        W85122   8.422  17.499  14.593 -0.3465  0.2037  0.0030
42210W        W85123   3.775  22.116  14.722 -0.0271 -0.1131 -0.0221
42211W        W85124  26.498   2.436  15.538 -0.1898 -0.2432 -0.0423
42212W        W85125  31.188  19.270  13.309  0.1383 -0.0926 -0.1222
42213W        W85126  25.165  22.617  14.902  0.0678  0.1169 -0.0418
42214W        W85127   1.583  30.214  15.294 -0.2382  0.0614  0.0049
42215W        W85128  30.902  28.036  15.541  0.1318 -0.0038  0.0172
42216W        W85129  34.473   1.716  26.355  0.1740 -0.1228  0.0461
42217W        W85130  29.718  17.047  18.146  0.0168 -0.3137  0.0148
42218W        W85131  29.485  28.128  15.681 -0.1493 -0.0019 -0.0351
42219W        W85132  34.350   0.154  29.395  0.6922 -0.3314 -0.0172
42220W        W85133  32.325  24.005  19.566  0.0963  0.0989  0.3856
42221W        W85134   4.888  17.119  22.148  0.2376  0.1210  0.0110
42222W        W85135  27.493  25.825  23.106  0.0459 -0.1318 -0.0559
42223W        W85136  29.196  30.360  17.751  0.0368  0.2389  0.0093
42224W        W85137  27.697  27.063  17.291  0.1508  0.0707  0.1736
42225W        W85138  27.303  18.850  24.014  0.0393  0.2178 -0.1685
42226W        W85139   2.103  32.669  17.974 -0.0284 -0.0643 -0.1828
42227W        W85140  23.907  33.408  17.980 -0.0196  0.1283 -0.0868
42228W        W85141  23.007  34.426  28.886  0.4329  0.0866 -0.1686
42229W        W85142   3.526  26.673  17.694 -0.4848 -0.0364 -0.0586
42230W        W85143   2.652  28.508  14.836  0.1736 -0.0188 -0.0850
42231W        W85144  22.670  27.994  13.801  0.0937  0.1975  0.1182
42232W        W85145  29.284  29.922  20.259  0.0180  0.1988  0.3756
42233W        W85146  31.846  22.980  19.456  0.0335 -0.0086  0.2095
42234W        W85147  32.105  28.099  14.898  0.0961 -0.2196  0.1066
42235W        W85148  20.427  30.140  16.610  0.0974  0.0095 -0.0987
42236W        W85149  29.318  30.983  25.236  0.2187 -0.0612 -0.0064
42237W        W85150   1.553  33.344  20.820 -0.2477 -0.2366 -0.0303
42238W        W85151  27.284  19.475  25.664  0.0530  0.0689 -0.0422
42239W        W85152   3.302  18.115  15.921  0.0962 -0.1528 -0.0399
42240W        W85153  31.440  22.343  19.841  0.1015 -0.1391  0.0113
42241W        W85154  27.252   7.568  17.886  0.2995 -0.0992 -0.0835
42242W        W85155  32.928  26.683  22.492 -0.0238  0.1593 -0.3369
42243W        W85156   1.869  31.687  21.613  0.2795  0.3789 -0.2477
42244W        W85157   0.960  33.093  15.932  0.2408  0.3251 -0.0411
42245W        W85158  28.297  26.260  18.741 -0.1838  0.1017  0.1650
42246W        W85159  12.405  28.249  27.253 -0.0042 -0.1975 -0.2581
42247W        W85160  30.894  32.085  14.002 -0.1947 -0.0979  0.1286
42248W        W85161  29.317  24.710  16.885  0.0407  0.1207  0.2091
42249W        W85162  32.923   1.090  22.883  0.2066 -0.0033  0.0983
42250W        W85163  33.009  30.626  15.903 -0.0768  0.0698 -0.0870
42251W        W85164   6.881   0.341  19.342  0.1058 -0.3407  0.0761
42252W        W85165   1.668  22.915  14.939  0.0375  0.0448  0.0893
42253W        W85166  29.935  22.908  13.642  0.0055  0.3370  0.1054
42254W        W85167  28.855  31.317  18.626  0.1294 -0.3358  0.0617
42255W        W85168  29.569  19.757  18.294 -0.1131  0.2672  0.0866
42256W        W85169  30.744  25.298  22.915  0.0989 -0.0669 -0.0211
42257W        W85170  33.349  12.214  14.883 -0.0393  0.0748 -0.2135
42258W        W85171  31.289  28.191  25.209  0.3035  0.1854 -0.0924
42259W        W85172  30.092  24.291  21.462 -0.3240 -0.0516  0.1703
42260W        W85173  25.770  34.228  22.939 -0.0218 -0.1030 -0.2027
42261W        W85174  26.374  23.050  13.794  0.1208 -0.3113 -0.4138
42262W        W85175  32.340   1.928  20.623 -0.2199 -0.0677 -0.2033
42263W        W85176  30.548  30.529  18.911  0.1072 -0.0555  0.3556
42264W        W85177  31.969  26.797  20.637  0.1892  0.2262 -0.1206
42265W        W85178  31.469  28.932  16.462  0.2981  0.2034 -0.2753
42266W        W85179  27.898  30.763  22.325 -0.2504 -0.2928 -0.1854
42267W        W85180  21.089  11.822  19.024  0.0593  0.0157  0.1218
42268W        W85181   3.615  17.318  14.274  0.1001 -0.0411  0.1503
42269W        W85182  28.039  19.837  13.768 -0.0020  0.1053 -0.4030
42270W        W85183  25.697  32.599  15.288  0.0963  0.1971  0.1316
42271W        W85184  23.553  24.548  19.279 -0.1694 -0.4135 -0.0569
42272W        W85185   1.665  17.361  14.677 -0.1477 -0.4121 -0.2435
42273W        W85186  29.992  30.848  16.189  0.0189 -0.1871 -0.2707
42274W        W85187  26.173  29.109  24.635 -0.0600  0.0250  0.0351
42275W        W85188  26.949  33.008  15.384  0.1155 -0.1152 -0.1366
42276W        W85189  23.508  17.488  16.959  0.0415  0.0192 -0.2348
42277W        W85190  32.667  31.154  23.425 -0.0275  0.0361  0.1592
42278W        W85191   6.028  29.410  24.109  0.1555 -0.4005  0.1160
42279W        W85192  28.803  19.216  17.366  0.0620  0.3609  0.1961
42280W        W85193  24.229  10.532  19.680  0.1840  0.1565  0.1999
42281W        W85194  31.741  25.529  17.891 -0.2732  0.0663  0.3732
42282W        W85195  33.647   0.841  17.079  0.1713  0.2065 -0.2754
42283W        W85196   3.249  24.807  24.778 -0.1837  0.1761 -0.2163
42284W        W85197   2.012  25.101  16.499 -0.1308  0.3170  0.1222
42285W        W85198  21.694  24.930  22.334  0.2058 -0.1896 -0.0820
42286W        W85199   1.437  24.395  17.929 -0.1147 -0.3212  0.3094
42287W        W85200   0.107  23.800  21.009  0.0943  0.0533 -0.0645
42288W        W85201  33.611  34.420  23.086  0.1920 -0.1231  0.1403
42289W        W85202  20.860  25.140  18.831 -0.2476 -0.1418 -0.0601
42290W        W85203   0.931   1.142  17.424  0.0253 -0.0259  0.0698
42291W        W85204  32.800   3.938  22.060 -0.3561  0.0038 -0.2985
42292W        W85205  30.906  32.712  15.828 -0.2334  0.0127 -0.1668
42293W        W85206  28.685  22.653  17.823  0.1258  0.4014  0.1415
42294W        W85207  30.297  18.089  24.761  0.2449  0.0141 -0.4471
42295W        W85208  26.438  31.807  15.568  0.0625  0.1251  0.1030
42296W        W85209  31.936  31.515  13.978  0.0484 -0.0067 -0.1947
42297W        W85210  31.679  24.383  17.244 -0.0510 -0.1675  0.1115
42298W        W85211  28.979  31.743  17.761 -0.0079 -0.2720 -0.1248
42299W        W85212   0.417  17.994  14.044  0.0725 -0.1158  0.1101
42300W        W85213   3.509  31.671  26.919 -0.2072  0.1361  0.2762
42301W        W85214   2.117  22.326  19.072  0.4152 -0.5575 -0.2340
42302W        W85215   4.948  27.918  15.714 -0.0451  0.1548  0.3577
42303W        W85216   2.214  12.505  16.297 -0.0889  0.2000  0.1672
42304W        W85217  32.478  29.338  26.039  0.0930  0.5495  0.0628
42305W        W85218  34.395  15.432  16.590 -0.1058 -0.1580 -0.1939
42306W        W85219  32.424  19.650  18.666  0.3815  0.1991  0.0001
42307W        W85220  24.845  20.591  20.967  0.0828 -0.0032 -0.0423
42308W        W85221  30.574  25.627  14.725 -0.6077 -0.1919 -0.0337
42309W        W85222  27.875  33.822  21.639  0.0574  0.0613 -0.1649
42310W        W85223   2.919  23.187   1.464  0.0131  0.1119  0.1154
42311W        W85224  33.569  19.514  23.711  0.0751 -0.1380 -0.0203
42312W        W85225  30.350  21.317  19.931  0.2113 -0.0501 -0.2902
42313W        W85226  20.578  23.439  28.642  0.2562  0.2170 -0.0599
42314W        W85227  31.252  23.553  22.728 -0.1601  0.1944 -0.2931
42315W        W85228  34.294  29.647  13.944  0.1065 -0.1310 -0.1407
42316W        W85229  33.950  24.299  14.645 -0.0206  0.2484 -0.1024
42317W        W85230  30.321  23.168  19.871 -0.2126  0.2302 -0.0285
42318W        W85231  28.526  13.163  21.229  0.0284 -0.0938  0.1559
42319W        W85232  24.589  31.593  22.155  0.1707  0.0453 -0.1828
42320W        W85233  33.447  25.747  19.987 -0.1436 -0.0405 -0.2153
42321W        W85234  29.460  28.673  28.625  0.2226  0.1255  0.2024
42322W        W85235  32.616  29.774  16.961 -0.0875  0.1068  0.0352
42323W        W85236  29.935   3.004  17.907  0.3560  0.0506  0.1779
42324W        W85237   4.186  27.130  20.828 -0.1532 -0.2166 -0.1192
42325W        W85238  32.366  16.785  16.313 -0.0553 -0.0281  0.3136
42326W        W85239  23.315  25.831  13.969  0.3366  0.0433  0.2388
42327W        W85240  27.125  34.132  16.291  0.0026 -0.1244  0.1176
42328W        W85241  32.935  31.218  25.060  0.0321 -0.0530 -0.0897
42329W        W85242  28.618  14.765  14.342 -0.2095  0.1257 -0.1506
42330W        W85243  32.277  21.490  15.320 -0.0170 -0.0642  0.0487
42331W        W85244  24.159  27.251  21.342  0.2001 -0.3981 -0.4689
42332W        W85245  33.508  22.994  21.454  0.0874  0.1419 -0.2104
42333W        W85246  31.533  26.443  28.887  0.1366  0.0612  0.2421
42334W        W85247  30.439  27.875  17.198  0.3609  0.2548 -0.1759
42335W        W85248  30.534   2.440  18.372  0.0727 -0.1038  0.1568
42336W        W85249  25.053  23.864  26.621 -0.0664  0.1962 -0.0350
42337W        W85250  25.089  25.991  12.175  0.1168  0.0536  0.2953
42338W        W85251   6.088  15.143  16.673 -0.2169  0.0781  0.2709
42339W        W85252  33.522  21.384  26.886 -0.0837  0.2073  0.0955
42340W        W85253  25.524  14.312  17.916  0.1090  0.0718  0.2996
42341W        W85254  22.203  29.007  15.869  0.1114  0.0143  0.4094
42342W        W85255  18.931   3.437  20.237  0.1086 -0.0509 -0.2300
42343W        W85256  30.195  24.761  21.589 -0.2057 -0.0946  0.3418
42344W        W85257   0.385  22.215  20.009 -0.0212 -0.2850 -0.2350
42345W        W85258  23.605  19.262  27.048 -0.0153  0.0632  0.2113
42346W        W85259  26.956   0.518  25.932  0.1193 -0.2064  0.2121
42347W        W85260  25.529   1.788  16.527 -0.0330  0.0815 -0.2591
42348W        W85261  20.369  24.521  17.562  0.2409  0.2525  0.1017
42349W        W85262  22.629  24.709  16.806  0.4237  0.2005  0.0199
42350W        W85263  13.686  21.956  27.877  0.0984 -0.1609  0.0275
42351W        W85264   1.122  31.407  17.953  0.1825  0.2714  0.1184
42352W        W85265   0.585  23.351  24.158 -0.1791 -0.0891  0.3099
42353W        W85266  31.278  20.824  26.282 -0.2179  0.0253 -0.0415
42354W        W85267  25.202  31.207  13.711  0.0874 -0.1670 -0.0532
42355W        W85268   0.938  21.658  20.432  0.0901 -0.1028 -0.3383
42356W        W85269  21.197  27.655  22.794  0.1213  0.2447 -0.0056
42357W        W85270  22.454  22.868  14.426  0.0557 -0.0806 -0.0766
42358W        W85271  33.148  17.636  17.267 -0.1844 -0.0033  0.2208
42359W        W85272  24.164  19.030  16.502  0.0368 -0.3087 -0.0829
42360W        W85273  33.126  34.361  17.799  0.1259  0.1453  0.1354
42361W        W85274  16.348  31.300  19.494 -0.0351 -0.4864  0.3367
42362W        W85275  32.429  24.428  25.573 -0.0125 -0.0456 -0.2282
42363W        W85276  29.024   5.822  29.225  0.1002  0.0444  0.1870
42364W        W85277  28.981   3.107  16.463 -0.0178 -0.0598  0.1711
42365W        W85278  33.202   1.154  27.252  0.1343  0.0020  0.1367
42366W        W85279  28.926  21.048  15.112  0.1239  0.0267 -0.0498
42367W        W85280  29.909  23.626  20.696 -0.1435 -0.0562 -0.0071
42368W        W85281  32.214  17.304  23.023  0.1484  0.0777 -0.1880
42369W        W85282  24.125  20.734  13.994 -0.1334  0.0438 -0.2843
42370W        W85283   1.004  31.594  22.869  0.0157 -0.1814  0.1791
42371W        W85284  27.821   5.049  20.907  0.0773  0.0347 -0.0145
42372W        W85285  33.083  16.152  19.279 -0.2195  0.1998 -0.1268
42373W        W85286  17.094  30.306  24.541  0.3029  0.0350  0.1122
42374W        W85287  28.482  29.015  14.866  0.1120  0.0294  0.1420
42375W        W85288  24.253  26.938  22.152 -0.0750 -0.0970  0.0427
42376W        W85289  32.813   3.005  22.295  0.1034  0.0142  0.1851
42377W        W85290  20.857  18.957  15.601 -0.3533  0.0699 -0.1580
42378W        W85291  28.695  21.317  21.986  0.0403 -0.2192  0.0708
42379W        W85292   2.114  12.332  23.533  0.2288 -0.1594 -0.1210
42380W        W85293   3.333  33.028  26.528 -0.1509 -0.1298 -0.0418
42381W        W85294   3.726  11.279  17.673 -0.3027 -0.1305 -0.0562
42382W        W85295  28.752  20.090  13.631 -0.2477 -0.0821 -0.1536
42383W        W85296  26.079  24.792  20.651 -0.2192  0.0243  0.1970
42384W        W85297   9.048   0.931  20.837  0.2596  0.0112  0.0610
42385W        W85298  34.137  26.171  22.547 -0.0321 -0.3333  0.0027
42386W        W85299  24.141  22.263  14.065 -0.3372 -0.0880  0.1026
42387W        W85300  26.039  24.694  23.496 -0.1884  0.0258  0.1345
42388W        W85301  26.347  29.277  20.335 -0.0618  0.0908  0.1915
42389W        W85302  32.370  12.005  13.718  0.3665 -0.2017 -0.0127
42390W        W85303  29.786   3.362   0.052  0.1679 -0.2420  0.4941
42391W        W85304  31.520  20.942  23.049  0.1459  0.1298  0.0876
42392W        W85305  34.237  29.123  23.994  0.1653  0.1360 -0.0485
42393W        W85306  32.476  28.098  17.998 -0.2654 -0.1706  0.2707
42394W        W85307  29.938  33.655  25.179  0.0395 -0.2109 -0.1899
42395W        W85308  31.168  17.199  21.404  0.0500 -0.1342 -0.1544
42396W        W85309  32.318  12.107  22.086 -0.1222 -0.0187  0.1198
42397W        W85310  25.108  26.507  12.422 -0.0421 -0.3239 -0.3378
42398W        W85311  21.699  27.096  15.613 -0.1543 -0.0526 -0.1563
42399W        W85312  24.205  31.256  14.586 -0.3561 -0.0369 -0.0886
42400W        W85313  23.475  32.004  26.266  0.3423  0.1326  0.1805
42401W        W85314   4.186  24.259  18.688  0.1119 -0.3267 -0.0172
42402W        W85315   0.172  31.292  20.585  0.0759  0.1969 -0.2506
42403W        W85316   2.646  17.405   0.632  0.0511 -0.0533 -0.3112
42404W        W85317   7.904  17.126  27.569 -0.2871 -0.1925  0.0388
42405W        W85318  32.426  29.939  20.095 -0.2104 -0.2855 -0.1371
42406W        W85319   0.219  25.897  21.505 -0.0210  0.1837  0.0275
42407W        W85320  27.558  30.067  18.939 -0.0257  0.2099 -0.1014
42408W        W85321  25.762   5.028  15.051 -0.2369 -0.2773  0.1038
42409W        W85322   5.367  24.337  19.451  0.0106  0.3865 -0.2151
42410W        W85323  24.139  23.321  19.166 -0.2138 -0.0199 -0.1347
42411W        W85324  22.355  33.101  19.995  0.2439 -0.0272 -0.1852
42412W        W85325  28.233  24.551  27.727  0.0151  0.0070 -0.2331
42413W        W85326  23.110   5.141  26.846 -0.1097  0.2209 -0.0102
42414W        W85327  29.420  28.663  16.945  0.0138 -0.1506  0.1677
42415W        W85328  23.471  30.547  12.616  0.0170 -0.2171 -0.1508
42416W        W85329  27.313  31.224  26.075  0.0923  0.0079  0.0521
42417W        W85330  29.378  23.611  22.019  0.0933  0.0539 -0.1290
42418W        W85331   8.538  22.840  23.404 -0.1951 -0.0303  0.2442
42419W        W85332  31.497  24.944  26.295 -0.3527  0.1862  0.1365
42420W        W85333  30.712  29.861  14.714  0.0469  0.1089 -0.0976
42421W        W85334  32.257  32.401   4.250 -0.1933  0.2311 -0.0121
42422W        W85335  34.307  18.186  21.719  0.0056 -0.2819  0.1228
42423W        W85336  27.155  17.890  19.840 -0.1592 -0.0029  0.3208
42424W        W85337  34.420  13.906  17.667  0.0810  0.1896  0.0834
42425W        W85338   5.531  18.388  21.850 -0.0152 -0.5943  0.0137
42426W        W85339  10.266  20.304  26.523 -0.1605  0.0592  0.1502
42427W        W85340  15.682   2.174  18.734 -0.3441  0.1332 -0.0470
42428W        W85341  11.043  26.207  26.790 -0.4449 -0.2265  0.0791
42429W        W85342  33.098  19.929  16.666 -0.0320  0.0643 -0.1902
42430W        W85343  29.662  29.707  13.759  0.1993  0.0741  0.0716
42431W        W85344  34.238  31.217  15.954  0.0301  0.2472 -0.1454
42432W        W85345   0.055  23.335  15.265  0.2662  0.1833 -0.1291
42433W        W85346  30.938  19.135  21.203 -0.2163 -0.0244  0.1784
42434W        W85347  14.733  26.505  29.285  0.0768 -0.0351  0.0223
42435W        W85348   9.714  19.709  23.610  0.2979 -0.0358  0.0249
42436W        W85349  32.743  31.242  21.630  0.1608 -0.1907 -0.1673
42437W        W85350  28.770  18.333  26.462  0.1464 -0.4226  0.0259
42438W        W85351  32.335  16.008  25.860  0.1493 -0.1943  0.0399
42439W        W85352  27.724  26.198  23.662 -0.1821 -0.1946  0.1258
42440W        W85353  29.054  19.215  21.994  0.0936  0.2677  0.2721
42441W        W85354  29.716  23.944  16.096  0.0472 -0.2753 -0.1431
42442W        W85355  30.030  12.514  20.936 -0.0174  0.0123 -0.2074
42443W        W85356   1.961  32.312  19.388 -0.1706 -0.0902  0.2732
42444W        W85357   2.658  15.435  20.843  0.0439 -0.1139 -0.2893
42445W        W85358  14.171   2.087  16.681 -0.0809 -0.0248  0.0421
42446W        W85359   6.564  17.149  15.972 -0.1190 -0.2138 -0.1579
42447W        W85360  14.360  30.651  22.287 -0.1967  0.1620  0.1428
42448W        W85361  30.877   6.295   2.635 -0.1599  0.1552 -0.1118
42449W        W85362  30.753  28.847  22.356  0.4701  0.2351  0.1182
42450W        W85363  18.097  26.322  18.149  0.0654 -0.0970 -0.0938
42451W        W85364  32.662  30.509  19.057 -0.3110  0.3780  0.2956
42452W        W85365  26.228  24.614  16.556  0.3203  0.1732  0.1154
42453W        W85366  20.919   5.151  22.989 -0.1251  0.1919  0.1447
42454W        W85367  25.738  21.141  19.425 -0.1789  0.1768  0.1771
42455W        W85368  25.147  28.281  24.931  0.0080  0.0326 -0.1322
42456W        W85369  33.767  29.041  14.699  0.0892 -0.4769  0.1411
42457W        W85370   5.356  18.507   2.549  0.4524 -0.1122  0.1523
42458W        W85371  27.160  31.356  22.174  0.5002  0.0454 -0.0430
42459W        W85372   2.229  13.553  15.984 -0.1762 -0.3579  0.4153
42460W        W85373  28.970   8.987  23.571  0.0757  0.1868 -0.1872
42461W        W85374  25.666  28.696  16.328  0.1339 -0.0446 -0.0134
42462W        W85375  26.001  32.422  25.613 -0.2817  0.5245 -0.3381
42463W        W85376  22.358  21.729  25.704  0.0664 -0.1307  0.1908
42464W        W85377  28.438  20.647   0.901 -0.0100  0.1170  0.1407
42465W        W85378  30.654  28.343  22.438  0.4005  0.0536 -0.2153
42466W        W85379  33.240  31.678  20.679 -0.1224  0.1784 -0.2914
42467W        W85380   2.982  22.098  17.559 -0.1301 -0.1639  0.1253
42468W        W85381  21.457   3.744  18.766  0.1153  0.0552 -0.4798
42469W        W85382  30.543  22.539  15.189  0.2001  0.1737  0.2488
42470W        W85383  25.263  20.622  24.716 -0.1066  0.1098 -0.0566
42471W        W85384  30.342  21.929  19.153 -0.0295 -0.0652  0.0820
42472W        W85385  26.036  26.367  13.365 -0.1953  0.1519 -0.1007
42473W        W85386   2.973  24.618  23.976 -0.0089  0.1125  0.3245
42474W        W85387  25.532  28.203  25.376  0.0702  0.0302  0.1091
42475W        W85388  24.921   0.662  13.736 -0.3397  0.0762 -0.1806
42476W        W85389   0.940   7.644  23.041  0.0844  0.0493  0.0573
42477W        W85390  34.198  27.316  18.358 -0.1193  0.4816  0.3591
42478W        W85391  27.561   3.884  16.213  0.2394  0.2026  0.1214
42479W        W85392   0.099  23.104  17.340  0.1861  0.0282  0.3962
42480W        W85393  24.130  32.767  21.813  0.3097 -0.0690  0.0529
42481W        W85394   4.008  31.768  27.851 -0.2585  0.0260  0.1378
42482W        W85395  33.883   3.948  20.021 -0.0490 -0.1592 -0.2611
42483W        W85396  34.131  23.251  21.391 -0.0855  0.0834 -0.0084
42484W        W85397  34.036  32.173  19.681 -0.2113 -0.4886 -0.0978
42485W        W85398   2.448  30.002  19.519 -0.4572  0.0226  0.2501
42486W        W85399   0.776  26.861  20.538  0.2299  0.6276  0.0037
42487W        W85400  28.714  22.511  23.410 -0.0288 -0.0873  0.0427
42488W        W85401  32.740  21.882  24.207 -0.1545 -0.0615 -0.2226
42489W        W85402  33.822  27.003  17.474  0.2224  0.2670  0.0679
42490W        W85403   0.283  32.866  17.099 -0.2202  0.0631  0.1918
42491W        W85404  22.805  18.183  28.976  0.1672  0.0562  0.0689
42492W        W85405  27.366  30.108  18.021 -0.1808  0.0625  0.0061
42493W        W85406  26.944  24.072  13.244  0.1103 -0.2121 -0.2314
42494W        W85407  32.740  28.974  18.990  0.1416 -0.0881  0.1935
42495W        W85408  31.618  32.133  15.050  0.2946 -0.0879  0.0569
42496W        W85409  29.320  27.797  21.771  0.0348  0.3266 -0.1197
42497W        W85410  31.271  23.678  21.919  0.0392  0.0316  0.1694
42498W        W85411  31.989  22.459  15.921  0.1791 -0.0653  0.2287
42499W        W85412  32.101  19.322  21.934 -0.3282 -0.3285 -0.1440
42500W        W85413  30.621  29.013  20.839 -0.1401  0.0395 -0.2732
42501W        W85414  32.126   1.541  18.970  0.0471 -0.0576 -0.2126
42502W        W85415  31.663  19.349  19.914 -0.0635 -0.0726  0.0451
42503W        W85416  17.444  27.136  22.814 -0.1994  0.0159  0.0653
42504W        W85417  23.716  27.730   3.107 -0.1497  0.0607  0.0743
42505W        W85418  28.405  30.312  14.318 -0.1267  0.0620  0.0705
42506W        W85419  18.501  21.313  27.191 -0.2778 -0.2332 -0.1654
42507W        W85420  17.109   3.118  25.536 -0.1996 -0.3511  0.0154
42508W        W85421  27.443   1.882  19.059  0.0976 -0.1067  0.1568
42509W        W85422  21.329  17.872  15.300  0.1348 -0.1943  0.1139
42510W        W85423  21.908  26.678  27.716  0.0172 -0.0845  0.0050
42511W        W85424  23.788  29.259   2.904 -0.0790  0.0523 -0.1689
42512W        W85425  29.828  22.892  22.008  0.0243 -0.1128  0.0072
42513W        W85426  27.204  20.272  22.602  0.0079 -0.0781  0.4505
42514W        W85427  33.259  28.361  16.320  0.0501 -0.0746 -0.0168
42515W        W85428  26.362   2.668  17.618 -0.2843  0.4218 -0.1916
42516W        W85429  29.608  27.046  19.766 -0.0526 -0.2796 -0.2088
42517W        W85430  27.766   3.601  20.228 -0.2262 -0.0132  0.1758
42518W        W85431  26.233   2.520  19.248  0.0685  0.1242 -0.2355
42519W        W85432  18.011  33.281  20.635 -0.1683  0.5336  0.0285
42520W        W85433  27.089  28.101  29.223  0.2455 -0.1037 -0.0850
42521W        W85434  23.700  31.190  20.756  0.0636  0.1825 -0.2393
42522W        W85435  24.966  25.442   2.355  0.0932 -0.2080 -0.0754
42523W        W85436  32.506   1.506  18.613  0.2966 -0.0928  0.2652
42524W        W85437  19.637  19.725  20.983 -0.2784  0.0554  0.0870
42525W        W85438  23.280  27.329  26.261 -0.1124  0.0454 -0.2121
42526W        W85439  30.473  28.210  17.613  0.1974  0.0929 -0.3096
42527W        W85440  31.000  23.161  24.668  0.0437 -0.1083  0.0060
42528W        W85441  30.837  31.271  16.759  0.1910 -0.4853 -0.1399
42529W        W85442  31.811  30.622  14.780  0.2891 -0.3034  0.0230
42530W        W85443  28.865  20.198  17.001  0.1755  0.0584 -0.2422
42531W        W85444  25.256  27.549  15.517 -0.0237 -0.0902 -0.0251
42532W        W85445  16.215  32.406  16.216  0.2346  0.0944 -0.1850
42533W        W85446   2.624  29.055   0.803  0.0598 -0.1076  0.1429
42534W        W85447  14.612   4.350  28.345  0.1335  0.0198 -0.1057
42535W        W85448  31.872  22.190  16.409 -0.0904 -0.1026  0.0988
42536W        W85449  30.535  26.550  18.099 -0.0501 -0.3625  0.3385
42537W        W85450   4.491  23.142  23.443  0.0491 -0.1913  0.2303
42538W        W85451  21.767  26.909  20.697  0.0357  0.2121 -0.1511
42539W        W85452  32.400  22.154  23.691  0.2517 -0.0850  0.0359
42540W        W85453  20.391  28.229  17.900  0.2122 -0.0462 -0.0380
42541W        W85454  32.810  19.704  14.733  0.0304 -0.3089  0.3079
42542W        W85455   6.403   0.023   3.573  0.1361  0.0442 -0.0784
42543W        W85456  27.605  17.405  21.045  0.1097  0.1647 -0.0446
42544W        W85457  21.334  26.529  22.111 -0.1589  0.1568 -0.2996
42545W        W85458  30.626  26.213  27.663  0.1106 -0.2390 -0.2369
42546W        W85459  28.464  18.893  19.200 -0.0496 -0.2767 -0.2225
42547W        W85460  29.768  25.814  16.029  0.2089 -0.2558 -0.4260
42548W        W85461  24.471  26.114  18.728 -0.2183  0.0873  0.1708
42549W        W85462  32.488  20.097  14.713  0.1548  0.0208 -0.0030
42550W        W85463  32.299  25.660   1.661 -0.0155  0.0421  0.1283
42551W        W85464  12.059  19.304  15.233 -0.1116  0.2270  0.1713
42552W        W85465  23.442   0.014  18.609  0.0734 -0.1662  0.1228
42553W        W85466   3.978   3.931  29.419 -0.0046 -0.2375 -0.0668
42554W        W85467  22.238  21.859  15.759  0.2230 -0.2537 -0.5250
42555W        W85468  25.391  21.730  18.832  0.0035  0.3359 -0.2911
42556W        W85469   3.531   2.819   0.673  0.1662 -0.1686  0.1794
42557W        W85470   7.390  29.124  21.026  0.0716  0.0796  0.4579
42558W        W85471   2.956   0.750  22.937 -0.0092  0.1017  0.2271
42559W        W85472   1.274  24.101  16.006  0.0930  0.1447 -0.1129
42560W        W85473  28.957  30.593  20.709 -0.0751 -0.0380 -0.0078
42561W        W85474  31.451  30.493  19.600  0.1301 -0.0397 -0.1704
42562W        W85475  28.137   6.389  15.410 -0.3076 -0.1563 -0.0553
42563W        W85476   0.767  28.264  25.082  0.1725 -0.0789  0.1357
42564W        W85477   2.979  20.175  17.303 -0.0749 -0.0177  0.2853
42565W        W85478  27.809  31.199  14.153  0.2388 -0.3603 -0.1582
42566W        W85479   1.411  25.780  21.138 -0.2467 -0.5039  0.3123
42567W        W85480  27.156  23.329  20.113  0.1217  0.0750 -0.1627
42568W        W85481  16.543  24.617  19.397  0.3506  0.1340 -0.1104
42569W        W85482  32.871  31.993  23.538  0.0054 -0.1510 -0.0186
42570W        W85483   8.426  18.361  25.065  0.1328 -0.0584  0.0776
42571W        W85484  30.748   2.639  20.954  0.0485 -0.2265  0.2423
42572W        W85485  29.059  23.509  26.911 -0.2228  0.2102 -0.2448
42573W        W85486  32.881   0.766  17.850  0.1157  0.0508  0.1341
42574W        W85487  26.685  27.220  14.110 -0.1046  0.2533  0.2047
42575W        W85488  28.405  21.291  24.271 -0.0303 -0.0587  0.0928
42576W        W85489  28.988  29.545  13.836 -0.0492 -0.1805  0.4250
42577W        W85490  22.923  27.911  21.658 -0.0015 -0.0958  0.4823
42578W        W85491  24.270  26.835  23.376 -0.1943  0.0450  0.0877
42579W        W85492  26.331  15.694  24.732  0.0401  0.2239 -0.2383
42580W        W85493  33.502  25.100  24.300  0.1284 -0.0001 -0.0155
42581W        W85494  18.860  30.328  14.400 -0.4277  0.3631  0.1807
42582W        W85495  34.222  32.100  14.959 -0.2484  0.0133  0.0789
42583W        W85496  19.518  25.450  26.290  0.0966 -0.4021 -0.4262
42584W        W85497  27.634  24.698  22.157 -0.2729  0.1492 -0.0032
42585W        W85498   8.110  27.725   4.781  0.2225  0.1051  0.1621
42586W        W85499  32.027  24.565  13.973 -0.0259 -0.0515 -0.0279
42587W        W85500  25.496  24.544  16.997 -0.0376 -0.1948  0.2533
42588W        W85501   8.103  24.402  20.554  0.1927 -0.1070  0.1291
42589W        W85502  29.120  32.915  23.018  0.1785  0.1275 -0.0566
42590W        W85503   0.354  31.403  15.511 -0.2586 -0.2207  0.0153
42591W        W85504  25.328  27.562  23.799  0.0841  0.0351  0.1788
42592W        W85505  25.836  22.326  13.935 -0.1401 -0.0799 -0.0339
42593W        W85506  31.595  33.461  18.766 -0.2642 -0.0508  0.1859
42594W        W85507  33.125  26.968  14.322  0.3653  0.0705 -0.0239
42595W        W85508  26.616   7.834  16.295 -0.1754  0.1258 -0.2607
42596W        W85509   1.956  27.967  16.914  0.1240  0.1136 -0.2055
42597W        W85510  27.928   1.200  19.125  0.1681 -0.0022 -0.0089
42598W        W85511   3.417  18.604  25.636  0.0806  0.0390 -0.2568
42599W        W85512  28.408  31.884  14.706  0.1095 -0.2401 -0.1188
42600W        W85513  24.955  23.522  13.515  0.3197  0.1418 -0.0074
42601W        W85514  29.806  21.146  17.150 -0.2880 -0.0774  0.1632
42602W        W85515   0.062  23.602  20.117  0.1181  0.0963  0.0404
42603W        W85516   1.892  34.290  21.083 -0.0202 -0.0070  0.2074
42604W        W85517   2.122  28.827  26.589  0.1224  0.0546 -0.0575
42605W        W85518  11.575  26.606  24.929  0.1384 -0.1234  0.1286
42606W        W85519   1.596  25.015  27.089  0.1147 -0.1186 -0.2026
42607W        W85520  29.170  19.521  18.498 -0.3891  0.0143  0.1375
42608W        W85521  32.083  28.962  14.818  0.1601  0.0804  0.0523
42609W        W85522  27.503  22.914  25.260  0.3447  0.0626 -0.4772
42610W        W85523  26.248  27.734  27.941  0.1747  0.3332 -0.0744
42611W        W85524  32.398  29.592  20.967  0.0787  0.0736  0.1758
42612W        W85525  23.903  31.015  18.310  0.0271 -0.2899  0.1679
42613W        W85526  24.595  25.117  18.702  0.0348  0.2362  0.0553
42614W        W85527  31.230  23.206   0.827 -0.1327 -0.2998 -0.1214
42615W        W85528   2.847  15.685  20.392 -0.0690 -0.3878  0.1126
42616W        W85529  31.742  26.518  17.289 -0.0248  0.0739  0.2707
42617W        W85530  33.529  23.082  18.684 -0.0449 -0.1684  0.4501
42618W        W85531  29.551  22.531  20.517  0.2302 -0.3248  0.1775
42619W        W85532   7.283  34.261  20.736 -0.1958  0.3410  0.2341
42620W        W85533  27.189  32.270   0.666  0.0206 -0.2722  0.2719
42621W        W85534  29.154  16.849  23.386 -0.1897 -0.0160 -0.0739
42622W        W85535   0.745  13.382  13.965  0.0690  0.1093 -0.0065
42623W        W85536  18.744  22.043  18.134 -0.1224 -0.1355 -0.4179
42624W        W85537  19.434  32.527   4.430  0.2966  0.0606 -0.3071
42625W        W85538  29.676  20.193  18.090 -0.0715 -0.0281 -0.1755
42626W        W85539  28.426  19.935  20.379 -0.4687 -0.0198 -0.0469
42627W        W85540   1.394  20.208  22.610  0.1229 -0.0853  0.0434
42628W        W85541  33.113  29.609  22.478 -0.2889 -0.3275 -0.1562
42629W        W85542  30.248  10.985  20.909 -0.3165  0.0120 -0.0195
42630W        W85543  32.500  30.458  18.332 -0.0659 -0.3237  0.3503
42631W        W85544  32.731   8.570  15.730 -0.0128  0.0848 -0.1103
42632W        W85545  28.877  33.643  18.504  0.0444 -0.3177 -0.2433
42633W        W85546  33.284  17.241  20.975 -0.0440 -0.1081  0.1382
42634W        W85547   0.348  29.037  16.289  0.1138 -0.2339 -0.2331
42635W        W85548  30.879  33.048  20.798 -0.2413  0.2711  0.0377
42636W        W85549  28.072  33.080  15.851 -0.2627  0.2239  0.1787
42637W        W85550  31.405  26.445  26.023 -0.0274 -0.1356 -0.0382
42638W        W85551  19.327  23.840  14.627  0.1911 -0.2443  0.2161
42639W        W85552  28.992  32.987  14.973 -0.2967  0.2830 -0.0185
42640W        W85553  23.887  27.717  27.847  0.0088  0.0617 -0.2076
42641W        W85554  27.810  27.041  14.869 -0.2807  0.2378 -0.2834
42642W        W85555  22.616  23.878  20.369  0.0358  0.0744  0.1280
42643W        W85556   2.610  26.429  15.505  0.4382 -0.1793 -0.1408
42644W        W85557  31.860   0.386  28.237 -0.0329  0.2456  0.1159
42645W        W85558   1.628  25.688  15.242  0.0326 -0.0333 -0.0318
42646W        W85559  27.933  30.133  28.152  0.1366  0.1083  0.1262
42647W        W85560  26.322  26.969  24.500 -0.1149  0.3468 -0.3962
42648W        W85561   1.162  31.075  15.496  0.3661 -0.2001  0.1314
42649W        W85562  29.806   5.500   3.160 -0.3093 -0.1148  0.2706
42650W        W85563  32.705  33.172  18.416 -0.2745 -0.3759  0.1244
42651W        W85564  26.418  24.958  16.913  0.2352 -0.1122  0.0137
42652W        W85565  28.909  23.025  29.659  0.0259 -0.1745 -0.0471
42653W        W85566  25.735  22.279  20.516 -0.0188 -0.1845 -0.2569
42654W        W85567   4.205  20.719  29.213  0.2695  0.0388  0.3004
42655W        W85568  26.526  18.201  17.013  0.3684  0.0917  0.1727
42656W        W85569  20.625   1.146  19.098 -0.0242 -0.0641 -0.2389
42657W        W85570   2.475  30.484  16.047  0.1138  0.0537  0.3133
42658W        W85571  27.906   1.835   6.012  0.1957  0.1292 -0.1449
42659W        W85572  19.323  24.222  20.311 -0.0869  0.3865  0.4257
42660W        W85573  29.942  25.322  19.722 -0.1918 -0.1383 -0.2312
42661W        W85574  26.584  30.542  18.060  0.2438  0.3159 -0.2365
42662W        W85575  25.282  34.257  23.176  0.0953 -0.2275 -0.0592
42663W        W85576   2.060  28.342   4.066  0.0968  0.2111 -0.1165
42664W        W85577  31.888  25.584  27.799 -0.1988  0.3034 -0.0960
42665W        W85578  21.772  14.211  23.571  0.1169  0.0394 -0.0944
42666W        W85579  28.315  27.792  13.654  0.5944  0.1172  0.0455
42667W        W85580  24.595  28.591  14.508 -0.2285  0.1324 -0.0021
42668W        W85581   1.358  26.763  14.346  0.1253  0.2162 -0.1133
42669W        W85582  33.166  34.077  23.157 -0.1516  0.1353 -0.1617
42670W        W85583  34.099  31.438  19.315 -0.0048 -0.1248  0.1326
42671W        W85584   2.357  18.296   1.936 -0.0221 -0.5640 -0.0102
42672W        W85585  32.065  32.198  15.288 -0.1232 -0.1826  0.0910
42673W        W85586  25.168  29.361  21.574 -0.2075  0.0976  0.1024
42674W        W85587   3.451  17.356  16.565 -0.0916 -0.1013 -0.4341
42675W        W85588  30.453  21.013  26.727  0.2991  0.0868  0.1346
42676W        W85589  28.163  29.476  17.684 -0.0926 -0.0300 -0.2876
42677W        W85590  28.220   3.864  15.250 -0.1408 -0.0701  0.2659
42678W        W85591  32.841  20.705  17.398 -0.0181 -0.2281 -0.1396
42679W        W85592  31.281  25.589  14.332  0.0960  0.1691 -0.1652
42680W        W85593  24.663  22.586  26.841 -0.2945 -0.0502  0.2018
42681W        W85594  24.260  28.043  19.160 -0.3077  0.0392  0.0564
42682W        W85595  33.596  26.541  15.524 -0.1240 -0.3090  0.1619
42683W        W85596  32.654  26.260  17.048  0.0091  0.0486 -0.3232
42684W        W85597  31.482  28.428  16.604 -0.2282  0.2131 -0.1094
42685W        W85598  24.678  26.829   1.272 -0.2177  0.0883  0.1591
42686W        W85599  24.898  22.353  20.822  0.1682  0.1244 -0.0227
42687W        W85600  23.088  31.705   1.733  0.1017 -0.2088  0.2253
42688W        W85601  27.884   4.603  19.374 -0.2112  0.1565 -0.0261
42689W        W85602   2.850  21.640  14.444 -0.3787  0.1298  0.1247
42690W        W85603  29.592  22.700  13.958 -0.0241  0.2308 -0.1158
42691W        W85604  19.115   4.737  23.385  0.1624  0.1398  0.0495
42692W        W85605  34.112  32.542  16.718 -0.1302  0.3740 -0.1222
42693W        W85606  25.606  26.408   4.148  0.2280 -0.1648 -0.0089
42694W        W85607  18.179  14.346  15.153  0.2720  0.4121 -0.2051
42695W        W85608   2.882  31.444  23.778  0.0475  0.0840 -0.1959
42696W        W85609  29.201  26.600   0.540  0.0248 -0.2491  0.2410
42697W        W85610  30.835   0.854  14.532  0.0225  0.0563 -0.2112
42698W        W85611   3.636  19.740  18.992  0.0085 -0.2516 -0.0504
42699W        W85612  27.651  18.942  23.680 -0.1067 -0.0783  0.0331
42700W        W85613  29.441  21.474  16.855 -0.0113  0.0556  0.2158
42701W        W85614  26.540  12.381  19.629  0.1417  0.2933 -0.1529
42702W        W85615  32.063   5.623  26.103 -0.0816 -0.2280 -0.2853
42703W        W85616  19.142  16.058  13.651  0.1394 -0.1932 -0.1459
42704W        W85617  28.645  29.078  18.885  0.2026  0.0651  0.2398
42705W        W85618  29.364   0.148   6.483 -0.1100 -0.1582  0.0323
42706W        W85619   0.074  24.409  15.620  0.1005  0.1630 -0.1296
42707W        W85620   1.237   1.963  27.157 -0.0558  0.1977  0.2764
42708W        W85621  28.642  22.194  20.869 -0.2280 -0.0687 -0.0036
42709W        W85622  34.364  22.748  21.354  0.1827 -0.2872 -0.0559
42710W        W85623  31.832   2.266  24.433  0.1956 -0.1810 -0.4445
42711W        W85624  33.522  21.739  23.177  0.2019  0.0940 -0.0332
42712W        W85625  23.731  20.476  22.680  0.1082  0.2299 -0.0731
42713W        W85626   2.158  20.773  20.234 -0.3860 -0.2162  0.0599
42714W        W85627  25.257   2.300  27.423  0.3688  0.1216 -0.0613
42715W        W85628  21.224  26.253  18.751 -0.1347  0.0227 -0.4073
42716W        W85629  28.364  19.020  18.008 -0.0315 -0.1267  0.3640
42717W        W85630   6.877  23.835  18.811 -0.2765  0.2336 -0.0033
42718W        W85631  28.620  32.033  19.796 -0.1443  0.1786  0.3409
42719W        W85632   0.984  21.844  18.678 -0.0499 -0.3664 -0.1347
42720W        W85633  28.457  28.950  21.276  0.0029 -0.1695 -0.0382
42721W        W85634   3.158  13.824  18.856 -0.1505  0.0114  0.1106
42722W        W85635  22.499  31.126  26.077  0.1019 -0.2039 -0.1374
42723W        W85636  27.524  29.541  16.040 -0.0654  0.0841 -0.0243
42724W        W85637   4.715  14.882   5.070 -0.0030 -0.2481 -0.1293
42725W        W85638  31.089   5.554  23.015  0.0600  0.0064  0.2534
42726W        W85639  29.643  29.631  21.895 -0.0719 -0.1654 -0.4411
42727W        W85640  34.215  27.411  21.607 -0.1112  0.3202 -0.0681
42728W        W85641  29.548  29.731  18.812  0.1613  0.0082  0.0669
42729W        W85642  26.441  25.020   3.534 -0.3588  0.1301  0.2302
42730W        W85643   3.518  28.912  14.975 -0.0753 -0.1032  0.0642
42731W        W85644  28.943  23.547   0.456  0.3099  0.0134  0.1850
42732W        W85645  27.431  23.106  27.712  0.0590  0.1065 -0.2549
42733W        W85646   6.638  31.912  24.376 -0.0142 -0.0570 -0.2496
42734W        W85647  27.903  21.150  13.821 -0.0610 -0.1980  0.0220
42735W        W85648  23.676  28.658  26.963 -0.1523  0.0665  0.0249
42736W        W85649  19.643  14.074  25.021  0.1098  0.1250 -0.1189
42737W        W85650  26.475  23.881   1.955 -0.2032 -0.1848 -0.4433
42738W        W85651  26.508  28.143   5.410  0.2146  0.1701 -0.0802
42739W        W85652   2.782  31.838  16.213 -0.4620  0.1383 -0.0229
42740W        W85653  26.082  13.460  21.641  0.0977 -0.1428  0.0202
42741W        W85654  31.616  20.402  22.840  0.1493 -0.4355 -0.3890
42742W        W85655  19.258   0.661   2.244  0.1664  0.2553 -0.0187
42743W        W85656   6.492  25.182  16.815 -0.0542  0.0144 -0.1390
42744W        W85657  27.981   0.505   3.702  0.3731 -0.3222 -0.1790
42745W        W85658   0.631  29.839  15.957  0.2031 -0.1058  0.0167
42746W        W85659  29.831  32.833  26.461  0.0164  0.4082  0.1420
42747W        W85660  28.930  30.124  17.302 -0.2960 -0.2979  0.2002
42748W        W85661  24.727  27.948  21.829  0.3084  0.0023 -0.0316
42749W        W85662  25.515  25.106   5.017  0.0367 -0.0256 -0.3339
42750W        W85663  32.404  29.286  14.651 -0.2061 -0.0595  0.1020
42751W        W85664  25.934  31.230  22.085  0.3318  0.2356 -0.1507
42752W        W85665  25.137  24.742  20.195  0.0493  0.4028  0.1374
42753W        W85666  31.261  29.576  18.644  0.1994 -0.1353  0.0327
42754W        W85667   2.015  28.323  20.322  0.0644  0.0825  0.1757
42755W        W85668   0.788  25.135  23.495  0.0147 -0.3001 -0.4308
42756W        W85669  26.949  28.772  24.687  0.1296  0.1190 -0.1967
42757W        W85670  19.339  16.858  15.063 -0.0167 -0.2037  0.5706
42758W        W85671  20.245  29.094  18.504 -0.3814  0.3123 -0.1548
42759W        W85672  28.527  32.116  27.272 -0.0180 -0.0129 -0.0889
42760W        W85673  18.469  27.390  16.541  0.1679  0.1674 -0.2171
42761W        W85674  27.254  24.735  22.881 -0.2232  0.1592  0.1583
42762W        W85675  28.303   9.941  26.616  0.4205  0.3710  0.0816
42763W        W85676   5.544  12.870  18.503  0.1269  0.1506 -0.0659
42764W        W85677  23.271  12.153   1.615 -0.1713 -0.2961  0.0304
42765W        W85678   3.352  18.138  22.535 -0.0445  0.0332  0.0651
42766W        W85679  31.810  31.231  25.146  0.3820 -0.0078 -0.1075
42767W        W85680  29.091  18.870  24.324  0.1512 -0.2790 -0.0497
42768W        W85681  28.383  19.082  20.659  0.0568  0.1546  0.0137
42769W        W85682  24.292  24.908  21.579 -0.0378 -0.0008 -0.0765
42770W        W85683   0.137  24.540  21.729  0.1948 -0.2897  0.2224
42771W        W85684  33.507   5.260  22.123 -0.0981 -0.1244 -0.1270
42772W        W85685  30.271  17.297  25.200  0.0762 -0.0472  0.2851
42773W        W85686  18.907  28.529  25.252 -0.0869 -0.3141 -0.2088
42774W        W85687  20.688  31.972   8.072  0.2759  0.3436  0.0391
42775W        W85688   4.457  24.767  21.837 -0.2693 -0.1457 -0.1401
42776W        W85689  20.917  16.960  25.614 -0.1165 -0.1366  0.3925
42777W        W85690   0.787  24.144  15.961  0.0364  0.2306  0.1584
42778W        W85691  29.777  17.150  24.397  0.1446 -0.0892  0.4100
42779W        W85692   1.630  24.241  16.818 -0.1826  0.1198  0.1272
42780W        W85693   3.104  33.114  24.899  0.1206  0.0630 -0.1149
42781W        W85694  21.139  29.842   1.309  0.0711  0.0907 -0.0882
42782W        W85695  30.819  24.753  26.738 -0.0097  0.4750  0.0445
42783W        W85696   0.902   1.380  19.201 -0.0916  0.0030  0.1002
42784W        W85697   1.923  29.078  19.096  0.0959  0.0074  0.1668
42785W        W85698   0.589  26.392   3.572 -0.2233  0.0480 -0.0824
42786W        W85699  28.935  27.423  15.086 -0.1038 -0.2458  0.1479
42787W        W85700  25.789  23.768  14.035 -0.0986  0.1434  0.2458
42788W        W85701  29.346  28.561  24.739  0.1125 -0.3221 -0.0438
42789W        W85702  32.937  21.764  18.321  0.0580 -0.1631 -0.0914
42790W        W85703   3.950  27.109  24.963  0.0671  0.0354 -0.0758
42791W        W85704  28.556   4.908  26.086  0.2186 -0.0026 -0.2562
42792W        W85705  30.269  13.222  21.599  0.3376 -0.1593  0.3575
42793W        W85706  33.310   4.023  29.066 -0.0435 -0.0430  0.0222
42794W        W85707  30.305  29.637  28.675 -0.0347  0.1760  0.0170
42795W        W85708   2.350  20.524  18.921 -0.1687  0.0002 -0.2120
42796W        W85709  25.673  28.203  18.111  0.2181  0.0636  0.1622
42797W        W85710  32.816  18.885  14.274 -0.2730  0.2032 -0.2103
42798W        W85711  27.722  27.024  15.511 -0.2909  0.2312  0.2055
42799W        W85712  28.127  24.659  20.850  0.0289 -0.1711  0.3462
42800W        W85713   0.735  22.703  21.969 -0.0083 -0.1814 -0.0840
42801W        W85714  23.292  22.890  26.833 -0.0909 -0.4299  0.1389
42802W        W85715  28.729  19.319  19.723 -0.1212  0.3450 -0.3206
42803W        W85716  21.090  27.814   2.690 -0.1182  0.1884 -0.1178
42804W        W85717  24.304   0.018  21.565 -0.1378 -0.0080  0.2283
42805W        W85718  18.427  32.884  16.958 -0.0492  0.1817 -0.0135
42806W        W85719  30.037  28.706  22.518  0.0163  0.3705 -0.2166
42807W        W85720  16.806  30.129  18.059 -0.0392  0.0519  0.1476
42808W        W85721  28.705  24.208  20.763 -0.2279 -0.0942  0.1718
42809W        W85722  34.359   4.305  23.330 -0.3798 -0.0344  0.2256
42810W        W85723  32.843  24.180  22.102 -0.1216 -0.2651  0.0715
42811W        W85724   3.065  31.123  21.536 -0.0114 -0.1555 -0.2614
42812W        W85725  34.229  27.546  19.299  0.2569 -0.0269 -0.1923
42813W        W85726  23.191   9.677  26.220  0.1365 -0.0084 -0.1778
42814W        W85727  33.859   1.563  24.961  0.0505  0.0222  0.2701
42815W        W85728  32.621  28.695  24.726 -0.1046 -0.0847 -0.1737
42816W        W85729  29.995  23.563  23.068 -0.0051 -0.1247 -0.0600
42817W        W85730  29.396  28.862  25.814 -0.2283 -0.0129  0.0778
42818W        W85731  29.006  25.098  21.422  0.1120 -0.1401 -0.0740
42819W        W85732  26.380  31.460   6.101 -0.1838 -0.0417  0.1751
42820W        W85733  23.862  23.530  24.837  0.4410  0.1123 -0.0649
42821W        W85734  23.861   1.399  29.374 -0.0576 -0.1016 -0.1147
42822W        W85735   1.550  20.737  18.685 -0.1161 -0.1931 -0.2721
42823W        W85736  28.724  34.107  15.264  0.1273  0.0874  0.1063
42824W        W85737  20.766   6.795  23.213  0.4514  0.0669  0.2402
42825W        W85738  10.301   7.493  19.282 -0.1600  0.1112 -0.1937
42826W        W85739   0.712  23.316   8.955 -0.2311  0.1335  0.5433
42827W        W85740  27.395  27.605   3.599  0.1808  0.1954  0.1757
42828W        W85741  21.120  21.846   4.394 -0.0672  0.1637 -0.0130
42829W        W85742   7.415  30.117   3.116 -0.1513  0.2511 -0.2034
42830W        W85743  23.624  25.897  26.182 -0.1864  0.0327 -0.0228
42831W        W85744  25.488  26.254   1.457 -0.1363 -0.2158  0.0355
42832W        W85745  29.357   2.525  21.678 -0.0655 -0.1670  0.2460
42833W        W85746  30.154  27.286  28.582  0.2261 -0.0483 -0.1881
42834W        W85747  27.062  29.949  20.177  0.1070 -0.2442 -0.2770
42835W        W85748  31.341  31.278  21.255 -0.2825 -0.2127  0.1575
42836W        W85749   5.377  30.958   5.591  0.1169 -0.1805 -0.2171
42837W        W85750  29.054  21.947  25.636  0.2537 -0.0365  0.0392
42838W        W85751  27.772  17.966   4.435  0.0101  0.2242 -0.0265
42839W        W85752  32.725  33.672  24.788 -0.1332  0.1859  0.0718
42840W        W85753  30.284  23.178   1.484  0.0682  0.1487 -0.0104
42841W        W85754  29.208  27.231  15.490  0.1820  0.0587  0.1838
42842W        W85755  30.007  33.670  22.689  0.0972  0.1397  0.0195
42843W        W85756  20.572  30.803  28.800 -0.0881  0.0545  0.0779
42844W        W85757  26.690   5.067   1.107  0.3354 -0.1769  0.0255
42845W        W85758  22.581  31.279  18.636  0.0787 -0.1751 -0.0625
42846W        W85759  34.259  32.633  28.329 -0.2735  0.0529 -0.2148
42847W        W85760  34.381  26.377  25.712  0.2046 -0.2197 -0.2097
42848W        W85761  26.214  26.954  19.543  0.4924 -0.0818 -0.2084
42849W        W85762  23.498  22.335   1.665 -0.1244 -0.0497  0.2235
42850W        W85763  22.530  21.464  27.835 -0.0528  0.2354  0.1005
42851W        W85764  32.013  30.764  22.460  0.0775 -0.0936  0.1910
42852W        W85765   1.732  25.161  15.493 -0.1983 -0.2916  0.1925
42853W        W85766  18.240  32.641  19.268  0.1186  0.2149  0.0384
42854W        W85767  28.904  33.225   6.803  0.2242  0.0165 -0.2395
42855W        W85768  28.417  28.731  28.189  0.2215  0.0054  0.2767
42856W        W85769  18.822  28.722  26.758 -0.2450  0.1204 -0.0010
42857W        W85770  22.481   0.404  22.114  0.5160  0.0621  0.1136
42858W        W85771   3.345  30.146  17.775  0.4499 -0.0960 -0.1203
42859W        W85772  31.936  24.237  23.212  0.0947 -0.0766  0.0251
42860W        W85773  33.703  23.644  17.762  0.0297  0.1724 -0.0794
42861W        W85774  27.893  34.110   3.094  0.0858 -0.0370  0.0380
42862W        W85775  33.840  33.543  16.103  0.1441 -0.4594  0.0803
42863W        W85776   2.020  22.258   1.009  0.0750 -0.1322  0.0617
42864W        W85777  29.518  30.207  18.885 -0.1080 -0.1349 -0.1926
42865W        W85778  29.146  23.872  25.488 -0.0431  0.2870  0.0480
42866W        W85779  27.408   8.196  24.207 -0.0813 -0.1987  0.1331
42867W        W85780  28.923  28.432  21.633 -0.3921  0.3787  0.0196
42868W        W85781  29.696  12.168  28.457  0.0313  0.0714  0.2158
42869W        W85782   0.764   0.254  25.809 -0.0213 -0.0811 -0.1028
42870W        W85783  34.126  28.375  22.110  0.0579  0.1610  0.2018
42871W        W85784   0.450   8.128  20.225  0.3574  0.3359  0.0268
42872W        W85785  32.373  27.424  19.059 -0.2665  0.2565  0.3154
42873W        W85786  32.575  23.171  21.493  0.1132 -0.0197  0.1420
42874W        W85787  26.345   8.355  24.273  0.1679  0.4491 -0.1181
42875W        W85788  26.114  26.134  29.374  0.3465 -0.2500  0.0106
42876W        W85789  18.624  27.177   5.508  0.0695 -0.0117 -0.2421
42877W        W85790   0.312  29.774   1.222  0.0023  0.0765  0.2368
42878W        W85791   2.823  23.814   7.464  0.1132  0.0512 -0.0951
42879W        W85792  30.631  31.082  20.786  0.2481 -0.1206  0.4598
42880W        W85793  17.222   3.349   3.853 -0.0974 -0.2585 -0.2300
42881W        W85794  34.124  22.427  27.966  0.1630  0.2443  0.0166
42882W        W85795  25.653   0.461  26.365  0.0749  0.0347 -0.1199
42883W        W85796  27.356  21.187  22.593 -0.1579 -0.1247  0.1030
42884W        W85797   0.159  32.544  26.510 -0.0202  0.0182 -0.4248
42885W        W85798  24.180  19.756  25.334  0.0555  0.0946 -0.1144
42886W        W85799  25.668  32.706  22.367  0.0241  0.1190 -0.1376
42887W        W85800  28.025  25.576  25.970  0.1440  0.0086  0.1435
42888W        W85801  19.014  21.174  22.940 -0.1092 -0.0215  0.0874
42889W        W85802  20.913  22.168  21.813 -0.0348 -0.3038 -0.0290
42890W        W85803   6.736  14.809  26.485  0.1239  0.0732  0.1807
42891W        W85804  34.179  25.199  28.553 -0.0465  0.2689  0.0278
42892W        W85805  22.591  29.485  27.393 -0.1645  0.2299  0.2957
42893W        W85806  22.810  30.698  21.623 -0.0269  0.2217  0.0493
42894W        W85807   3.491  32.618  21.798  0.2117  0.1895 -0.1000
42895W        W85808  30.412  22.881  23.999  0.1898 -0.0547  0.0811
42896W        W85809  28.101  33.599  26.214  0.0899 -0.1887  0.1112
42897W        W85810  31.316  29.162  29.025 -0.3158 -0.1918  0.3145
42898W        W85811  19.123  22.171  27.401  0.0838 -0.0007 -0.0474
42899W        W85812   5.475   0.988  19.962 -0.0949  0.1915  0.0528
42900W        W85813  26.393   0.190   5.501  0.0093 -0.0535 -0.0032
42901W        W85814   1.901  26.477  22.525  0.1522  0.3030 -0.2886
42902W        W85815  32.830  28.847  20.985  0.1553 -0.1812  0.0214
42903W        W85816  31.528  28.852  20.374  0.1263  0.3677 -0.0613
42904W        W85817   3.195  23.592  22.043  0.0065  0.0174  0.0065
42905W        W85818  28.413  22.769   3.815 -0.2020 -0.0697 -0.1609
42906W        W85819   2.537  19.189  19.058 -0.0212  0.1277 -0.1561
42907W        W85820  24.555   1.087  16.353 -0.1342 -0.0692  0.1391
42908W        W85821  27.987  26.000  22.193 -0.1952  0.1025 -0.2435
42909W        W85822   3.954  17.325  23.096  0.1772 -0.1875 -0.0289
42910W        W85823  31.203  26.222  20.490  0.1690 -0.6558  0.2063
42911W        W85824  28.654  21.135  21.315 -0.2714 -0.1771  0.2679
42912W        W85825  20.782  27.100  15.049 -0.3350  0.2003 -0.0486
42913W        W85826  34.117  25.708  22.190 -0.0511  0.1564 -0.1258
42914W        W85827  29.816  18.329  24.084  0.0908  0.1863  0.1008
42915W        W85828  12.087  28.309  24.438  0.3122 -0.2283  0.2397
42916W        W85829   4.971  28.198   4.220 -0.0455  0.3650 -0.0325
42917W        W85830   7.643  24.952  16.234 -0.1626 -0.1416 -0.0890
42918W        W85831   1.166  27.817  28.396 -0.0480  0.0614 -0.0138
42919W        W85832  23.651   0.879  26.256  0.0058 -0.0248 -0.2255
42920W        W85833   6.133  24.665  23.863 -0.3173 -0.1749 -0.0780
42921W        W85834  21.637  33.485  27.135  0.2708 -0.1390  0.1819
42922W        W85835  28.827  32.892  21.047 -0.4039  0.0248 -0.0609
42923W        W85836   4.315  16.875  21.385 -0.1289  0.1300 -0.1361
42924W        W85837  17.101  31.212   1.373  0.1527  0.2729  0.0604
42925W        W85838  28.474   7.180   1.267 -0.1861  0.1712 -0.0533
42926W        W85839  31.234  28.152  19.246 -0.0574  0.0736 -0.0352
42927W        W85840  30.705  21.786   9.658  0.2995 -0.0017  0.3582
42928W        W85841  33.982  15.902  28.934  0.0973  0.2532  0.0349
42929W        W85842  27.802  30.754  23.224  0.0676  0.2299  0.1428
42930W        W85843  34.078  28.215  19.515 -0.0865 -0.1060 -0.2106
42931W        W85844  18.544  19.235  14.918 -0.0152  0.1663  0.0245
42932W        W85845   4.925  25.791  21.802 -0.1108  0.2467  0.0718
42933W        W85846   4.292  25.962  21.005  0.1856  0.0456 -0.0512
42934W        W85847  33.421  19.644  16.389 -0.0227 -0.2650 -0.3470
42935W        W85848  24.737  20.492  25.144  0.3777 -0.1152  0.0851
42936W        W85849   4.956  25.746  19.253 -0.0489  0.0292  0.1674
42937W        W85850  29.375  27.099  14.951 -0.2908  0.2019  0.0870
42938W        W85851   2.122  26.936   1.530 -0.0333 -0.1498  0.0835
42939W        W85852   0.712  26.777  25.854 -0.4361  0.0632  0.2485
42940W        W85853  22.583  31.781  18.638  0.2939 -0.1927 -0.0396
42941W        W85854   3.554  15.458  25.326 -0.0840 -0.1392  0.1517
42942W        W85855  33.820  23.429  16.968 -0.1021 -0.2348  0.2921
42943W        W85856   4.020  26.898  15.097 -0.2959 -0.0829 -0.0520
42944W        W85857  28.452  25.247  26.911 -0.2337  0.2378  0.3531
42945W        W85858  29.336  32.088  14.645  0.1671  0.2833 -0.2588
42946W        W85859  29.894  19.407  20.399 -0.0789  0.4485  0.0535
42947W        W85860  26.664  26.843  17.092  0.0807 -0.2407  0.2689
42948W        W85861   0.053  10.969  23.497 -0.0828  0.0519 -0.1522
42949W        W85862  31.882  27.211  27.491  0.2794  0.0428  0.0278
42950W        W85863  26.660  34.066  29.161 -0.1049  0.1330  0.0399
42951W        W85864  30.874  21.611  19.665 -0.1532  0.0479 -0.1038
42952W        W85865   1.161  31.936  14.826 -0.0275 -0.2387  0.3550
42953W        W85866   1.209   8.547   3.792 -0.1598  0.2402  0.2191
42954W        W85867  28.435  25.380  25.778  0.1418  0.3379  0.0198
42955W        W85868   4.966  15.071  25.575  0.0938 -0.0495 -0.0745
42956W        W85869  34.056  20.294  18.819 -0.1423  0.3810  0.2884
42957W        W85870   3.097  18.692  22.649  0.0719  0.1115  0.1794
42958W        W85871  23.172  28.007  29.326  0.1157  0.0875  0.1206
42959W        W85872   4.234  15.208  20.139 -0.3438  0.0529  0.0478
42960W        W85873  33.745  20.748  14.777  0.0466 -0.1770 -0.0077
42961W        W85874  22.324  21.427  28.330  0.3110 -0.3786 -0.5479
42962W        W85875  18.625  30.181  27.814  0.2418  0.3125 -0.4569
42963W        W85876  29.087  29.960  15.649  0.1603  0.0953  0.0461
42964W        W85877   1.261  23.575  27.825 -0.2080  0.0392  0.2257
42965W        W85878  28.545  33.669  22.002  0.2642 -0.2417 -0.1474
42966W        W85879  25.926  34.068  16.265  0.1226 -0.2849 -0.1638
42967W        W85880  30.804  17.885  16.535 -0.1671 -0.2977  0.1157
42968W        W85881  20.763  26.379   0.896  0.1830  0.0017  0.2337
42969W        W85882  25.965  16.127  19.393 -0.0929  0.2400 -0.0668
42970W        W85883   2.286  27.814   1.655 -0.0049 -0.0318 -0.0230
42971W        W85884  27.293  19.676  20.656 -0.2940 -0.1424  0.2780
42972W        W85885   3.665  19.520  23.041  0.0492 -0.0745  0.0080
42973W        W85886  30.720  31.740   0.182  0.0388 -0.1129 -0.0788
42974W        W85887  23.657  26.840  14.444 -0.1167  0.1210  0.2635
42975W        W85888   0.334  18.993  29.550 -0.0170  0.0866  0.1067
42976W        W85889  21.865   1.066  18.921  0.0725 -0.1262 -0.2299
42977W        W85890  26.417  19.007  20.687  0.0938  0.1806  0.3018
42978W        W85891  20.117  28.056  26.861  0.2147  0.3013 -0.2086
42979W        W85892  20.042   2.567  25.417 -0.0757  0.0642 -0.2043
42980W        W85893  30.971  20.254  27.633 -0.0283  0.0622  0.1259
42981W        W85894  29.789  23.434   2.807 -0.1538 -0.0797 -0.0368
42982W        W85895  32.395   7.495  18.293 -0.0459 -0.5199  0.0771
42983W        W85896  33.812  26.140  27.208  0.0516  0.1391  0.1232
42984W        W85897  29.501  23.195  19.394 -0.0540 -0.0614 -0.0250
42985W        W85898  25.373  31.073  19.853  0.0322  0.2225  0.1327
42986W        W85899   7.114  22.825   4.994  0.0237 -0.0393  0.1601
42987W        W85900   0.377  19.635   0.678 -0.2248  0.2291  0.0985
42988W        W85901  32.225  23.032  25.322  0.0949  0.1024  0.3659
42989W        W85902  30.997  27.302  18.641 -0.3304  0.0300  0.0522
42990W        W85903  30.166   2.408  16.235 -0.0297  0.0948  0.0136
42991W        W85904  32.813  33.139  24.553 -0.1304 -0.0649  0.3544
42992W        W85905   1.625   1.140  18.165  0.0006  0.0082 -0.0092
42993W        W85906   1.224  27.602  27.051 -0.2060  0.2653  0.2649
42994W        W85907  30.793  33.753  25.685 -0.2575 -0.0122 -0.0026
42995W        W85908  23.044  22.922   4.583 -0.3211 -0.2737  0.1846
42996W        W85909  20.541  21.513  29.638 -0.2813 -0.2421  0.5067
42997W        W85910  25.586  31.897   2.220  0.0480  0.1618 -0.1519
42998W        W85911  32.731  33.157  17.364  0.2143  0.0550  0.2724
42999W        W85912  29.735  26.681  16.431 -0.2154 -0.0942  0.0360
43000W        W85913   0.762  32.298   1.001 -0.1783 -0.0331 -0.1068
43001W        W85914  31.768  24.881  28.838 -0.0487  0.3041  0.1816
43002W        W85915  26.754  27.831   1.083 -0.2541 -0.2020 -0.0833
43003W        W85916  32.495  19.896  19.239 -0.1195  0.1644  0.2199
43004W        W85917  26.068  30.846  23.555 -0.1535  0.2550 -0.0737
43005W        W85918  17.699  26.006  14.963  0.5475  0.0063  0.0469
43006W        W85919  28.094  32.518  23.317  0.2696 -0.2406 -0.1924
43007W        W85920  31.741  19.774  21.080  0.0403 -0.1560 -0.2313
43008W        W85921  29.975  29.100   5.511  0.0235  0.2062  0.0310
43009W        W85922  26.814  26.754  22.370 -0.0608  0.0988  0.0586
43010W        W85923   0.170  22.206   8.901 -0.1689  0.2630  0.0088
43011W        W85924   2.631  33.111  28.826  0.4069 -0.1580 -0.0457
43012W        W85925  26.753  14.426  20.991 -0.0557 -0.0203  0.0309
43013W        W85926   1.697  27.065  14.181 -0.0049  0.2183 -0.0736
43014W        W85927   1.791   2.739  25.501  0.0979 -0.1682  0.2341
43015W        W85928  24.724  21.551  24.666  0.2968  0.1234 -0.1075
43016W        W85929  30.627  23.025  29.014  0.0489  0.0150 -0.3136
43017W        W85930  31.141  26.995  28.247  0.0366  0.1766 -0.0866
43018W        W85931   4.299  28.972  24.199  0.2083 -0.3788  0.1810
43019W        W85932  27.686  28.542  22.368  0.2889  0.2601 -0.0369
43020W        W85933   3.625  15.699  22.733 -0.1148 -0.0466  0.1702
43021W        W85934   6.614  30.997  23.344  0.1530  0.1040  0.0829
43022W        W85935  28.543  24.963   2.178 -0.2216  0.1938  0.2654
43023W        W85936   1.730  30.425  20.365 -0.0177 -0.2238 -0.1572
43024W        W85937  20.999  27.978   9.090 -0.1279  0.2843  0.0676
43025W        W85938  25.066  15.501  15.591 -0.1428  0.1261  0.2311
43026W        W85939   3.241  31.060  25.693 -0.1830 -0.2556 -0.0359
43027W        W85940  26.055   6.711   5.930 -0.0435 -0.2294 -0.0374
43028W        W85941  29.976   2.538  25.619  0.0252  0.0834  0.1485
43029W        W85942  24.932   1.865  26.219 -0.0402  0.2332 -0.0584
43030W        W85943  32.292  33.424  28.080  0.0293  0.3589 -0.4924
43031W        W85944  27.379  23.343  19.254 -0.0244  0.0037 -0.2010
43032W        W85945  25.841   1.454  24.869 -0.2307 -0.0426 -0.0626
43033W        W85946  23.955  25.225   0.173  0.0703  0.2180 -0.2173
43034W        W85947  33.515  22.041   3.189 -0.3480 -0.0571  0.1941
43035W        W85948  30.363  31.517   0.641  0.3596  0.0528 -0.1318
43036W        W85949   0.005  32.083   6.690  0.0602  0.0358 -0.0544
43037W        W85950  16.630   5.256  26.170  0.0107  0.1475  0.0926
43038W        W85951   8.090  22.135  24.068  0.2325  0.0418  0.2300
43039W        W85952  13.799  24.540  18.991 -0.2448  0.2097 -0.0339
43040W        W85953  24.798  22.322  19.649 -0.1633  0.0583 -0.2469
43041W        W85954   8.011  26.203   8.630 -0.2620  0.0675 -0.0116
43042W        W85955  31.119  33.120  27.790  0.1459 -0.0318 -0.2025
43043W        W85956   3.747  26.408  15.880  0.2784 -0.0270 -0.1724
43044W        W85957  33.296  24.976  26.833  0.0580  0.1391  0.2103
43045W        W85958  25.226  25.805  19.291  0.1332  0.0418 -0.2250
43046W        W85959  33.521  24.599  15.985  0.0186 -0.2623  0.0130
43047W        W85960  32.001  26.656  23.427 -0.1935  0.0250  0.0829
43048W        W85961  22.580  26.986   0.377  0.2152  0.1101  0.0824
43049W        W85962  34.319  26.465  19.668  0.1407 -0.0216 -0.0396
43050W        W85963  31.592   2.283   2.539  0.1203 -0.3736  0.0125
43051W        W85964  28.967  10.698  21.204  0.2644 -0.3105 -0.2260
43052W        W85965  19.401  27.946  28.657 -0.0789  0.2391  0.1376
43053W        W85966  27.790  27.307   1.128 -0.1021  0.0992 -0.2106
43054W        W85967   7.539  29.250   5.702  0.3498  0.2554 -0.0731
43055W        W85968  25.747  21.040  12.504  0.1600 -0.1371 -0.2463
43056W        W85969  32.487  24.546  19.784 -0.1111  0.1463 -0.0883
43057W        W85970   7.143   6.720  26.052 -0.1628 -0.1144 -0.3398
43058W        W85971  19.952  29.336  23.081 -0.2196  0.2983  0.1000
43059W        W85972  30.986   6.541  28.627 -0.1109 -0.0320  0.2237
43060W        W85973  13.672  31.786   9.455  0.1110  0.0404 -0.0343
43061W        W85974  28.548   1.427   2.796  0.0472  0.0011  0.1906
43062W        W85975  23.606  31.846   4.032  0.0970 -0.6100  0.1162
43063W        W85976  30.948  30.325  19.770  0.1073  0.0284  0.2452
43064W        W85977  23.588  27.419  26.659 -0.2205 -0.0561  0.1447
43065W        W85978  25.218  24.048  21.062 -0.2704  0.3053 -0.1548
43066W        W85979  30.163   6.783  23.295  0.0590  0.0731 -0.0370
43067W        W85980  28.313  33.992  25.924 -0.0416  0.2420  0.0411
43068W        W85981  24.565  30.613  24.686  0.0510 -0.1986  0.3045
43069W        W85982  19.367  23.655  22.504  0.0909  0.0799 -0.3014
43070W        W85983  30.334   4.530   0.042 -0.2606  0.0398  0.1417
43071W        W85984  26.503  25.213  14.787  0.0990 -0.0711  0.0413
43072W        W85985  21.521  19.931  22.407  0.1725  0.2016  0.1043
43073W        W85986  32.739  30.304  27.513  0.0845  0.3475 -0.0008
43074W        W85987   0.904  20.971  17.497 -0.0737 -0.1391  0.0610
43075W        W85988   1.464  21.549  16.263 -0.0680  0.2248  0.0106
43076W        W85989  32.028  22.851  21.075 -0.1802  0.3699  0.1314
43077W        W85990  29.787  26.695  17.310  0.1348 -0.0821 -0.1341
43078W        W85991   1.387  27.764  18.285 -0.1095 -0.0314  0.3194
43079W        W85992   1.368  20.917  16.381 -0.0905 -0.1659  0.0413
43080W        W85993  29.047  32.632  14.393  0.0168 -0.1065  0.3417
43081W        W85994  25.854  26.951  27.087 -0.0097 -0.4017 -0.0011
43082W        W85995  31.830   0.530  17.541 -0.1382 -0.4033  0.2862
43083W        W85996  28.985  32.078  26.871  0.0646 -0.3119  0.1284
43084W        W85997  24.172  31.122  27.403 -0.4587 -0.1820 -0.2017
43085W        W85998   1.960   3.807   6.957 -0.0757  0.1867 -0.1721
43086W        W85999  28.891  31.579   3.992  0.0999 -0.1283  0.1508
43087W        W86000   2.717  24.783  18.153  0.4017 -0.2425 -0.3910
43088W        W86001  17.145  25.195  15.727 -0.0561  0.1730 -0.1919
43089W        W86002  23.421  27.910   0.980 -0.1394 -0.0794 -0.2887
43090W        W86003  23.310  21.886   1.765  0.2634 -0.0033 -0.0202
43091W        W86004   5.043  13.907  29.737  0.0455 -0.1700  0.3287
43092W        W86005  21.946  22.393   0.242 -0.1902  0.2735 -0.1681
43093W        W86006  28.777  31.668  17.286 -0.0970 -0.1149  0.1321
43094W        W86007  22.501  29.679  20.825  0.0533 -0.0562 -0.0443
43095W        W86008  20.891  21.691  19.152  0.2447 -0.1546 -0.0574
43096W        W86009  31.015  24.411  18.386  0.1205  0.0386  0.0506
43097W        W86010   4.014  12.548  22.574  0.2430  0.1464 -0.4117
43098W        W86011   7.215  22.170  14.276 -0.1213  0.3143  0.2197
43099W        W86012   1.267  33.908  17.873  0.2019  0.0395 -0.0381
43100W        W86013  30.859  26.780  18.863 -0.0073  0.2299  0.0846
43101W        W86014   3.064  22.744   3.667  0.1530  0.2576 -0.2102
43102W        W86015   0.798   9.161  19.817 -0.1235  0.2104 -0.0175
43103W        W86016  33.398  29.214  24.294  0.0370  0.1070  0.0590
43104W        W86017  31.325   4.902  16.128 -0.3510  0.2303 -0.2372
43105W        W86018  30.646  29.080  23.308  0.0872 -0.1785 -0.1359
43106W        W86019  18.739  30.863  22.442  0.0908 -0.0402  0.0848
43107W        W86020  30.212  25.772  23.020 -0.1132  0.0567  0.1962
43108W        W86021  32.281  25.699   6.211 -0.2313 -0.1673  0.1633
43109W        W86022  28.808  25.948   2.343  0.1244 -0.2066  0.2467
43110W        W86023  30.709  32.489  16.277  0.0033  0.3207  0.2110
43111W        W86024  31.542  13.429  24.604  0.2791 -0.3070  0.3058
43112W        W86025   8.450  15.881  22.966  0.0761 -0.0529  0.0734
43113W        W86026  31.494   2.251  19.194  0.0343  0.0003 -0.0632
43114W        W86027  20.928  31.956  29.406  0.0585  0.0025 -0.0309
43115W        W86028   0.185  23.316  21.631  0.1524  0.0353  0.0806
43116W        W86029  26.801  21.521  22.045 -0.2450 -0.0826  0.1614
43117W        W86030  25.162  27.556  18.535 -0.0136 -0.5779  0.3520
43118W        W86031  18.569  32.742   2.089  0.3664 -0.1894  0.1276
43119W        W86032  28.336   0.228  15.551 -0.0163  0.0971  0.0608
43120W        W86033  31.971  18.528  18.343  0.1351 -0.2798 -0.0156
43121W        W86034  30.033  18.521  27.148 -0.5446 -0.0078 -0.3746
43122W        W86035   2.065  29.425  24.315  0.0452 -0.1797 -0.3345
43123W        W86036  27.530  26.830  22.388  0.0703  0.2589 -0.0584
43124W        W86037  18.562  28.944  21.055  0.0891  0.4507  0.2405
43125W        W86038  27.358  32.401  23.967  0.3385 -0.0363  0.0697
43126W        W86039   0.208  21.026  21.098 -0.1181  0.0197  0.0662
43127W        W86040  32.330  28.579   2.855 -0.0784  0.0284 -0.0715
43128W        W86041   0.888  27.817  18.400 -0.1627 -0.0954 -0.2229
43129W        W86042  31.182  15.548  15.284 -0.0018 -0.3944  0.2656
43130W        W86043  30.487  30.045  28.433 -0.0915 -0.0997 -0.0984
43131W        W86044  27.841  22.571   1.991 -0.0286 -0.0567  0.1993
43132W        W86045  30.963  28.088   4.009 -0.2209  0.1014  0.1363
43133W        W86046  28.173   8.332   0.050  0.3304 -0.2609  0.0670
43134W        W86047  32.415   1.591  25.711 -0.0619 -0.0038 -0.2205
43135W        W86048  18.648  17.880   1.666 -0.2065 -0.0831  0.1777
43136W        W86049  30.995  10.611   6.269  0.3872  0.0491  0.2713
43137W        W86050  25.127  24.278  26.329  0.0805 -0.0378 -0.3418
43138W        W86051  19.719  20.910  24.151 -0.3286 -0.0642  0.0614
43139W        W86052   1.121  28.467  23.736  0.0531 -0.0464 -0.0065
43140W        W86053  27.211  33.934   0.926 -0.2940 -0.4058 -0.3803
43141W        W86054   0.794  23.891   4.625  0.3764  0.0624 -0.0635
43142W        W86055  29.580  28.373   3.919  0.5023 -0.0782 -0.1557
43143W        W86056  31.391  31.149   4.031  0.0887 -0.2121  0.1851
43144W        W86057  33.195  28.254  28.276  0.0589 -0.1438  0.1513
43145W        W86058   9.987  28.038  28.685  0.0920 -0.1563 -0.1971
43146W        W86059  28.287  24.044  21.647  0.3117  0.3637 -0.3972
43147W        W86060  21.768  28.768  27.282  0.0449 -0.1751 -0.1086
43148W        W86061  26.906   0.974   4.263  0.3998  0.0059 -0.0397
43149W        W86062  26.925  25.901  25.799 -0.0251  0.2669 -0.2566
43150W        W86063  31.105  33.642   8.369  0.1458  0.0790  0.1757
43151W        W86064   0.968  28.847   3.167  0.3051 -0.0790  0.0498
43152W        W86065  28.625  28.155   0.417  0.2106 -0.0696  0.0464
43153W        W86066  32.781  25.992   1.070 -0.5211  0.2838  0.1012
43154W        W86067   4.936  30.826  26.084 -0.4117 -0.0174 -0.1286
43155W        W86068  34.025  29.395   7.321 -0.0722 -0.3685 -0.0900
43156W        W86069  25.852  30.273  28.328  0.0755  0.0060 -0.2723
43157W        W86070  28.842  32.758  26.588 -0.1340 -0.0412 -0.1399
43158W        W86071   0.763  30.523  14.153  0.2033 -0.0333 -0.1130
43159W        W86072   1.154  22.983   4.291  0.2115 -0.0485  0.2656
43160W        W86073  29.630  32.346  10.650  0.0111 -0.1548 -0.0057
43161W        W86074  31.762  29.269   0.701  0.0045 -0.3649 -0.0027
43162W        W86075  33.750  33.118   3.028  0.0290  0.2179 -0.0226
43163W        W86076  33.914   2.955   1.408 -0.2205  0.1335 -0.2048
43164W        W86077  31.251  24.072   1.991 -0.1477 -0.0472 -0.2795
43165W        W86078  23.475  26.292  27.069 -0.4789  0.0846 -0.2084
43166W        W86079   1.333  20.409  25.338  0.2434 -0.3399  0.1091
43167W        W86080  27.247  31.430  27.072 -0.0722 -0.0150 -0.2076
43168W        W86081  27.956  12.657   4.959 -0.0235  0.1447  0.0245
43169W        W86082  15.120  17.764   4.603  0.1304 -0.3721 -0.1343
43170W        W86083  27.003  20.083  25.042  0.2474  0.2517  0.2868
43171W        W86084   4.047  26.012   0.192  0.1092  0.0879 -0.0414
43172W        W86085  16.701  33.148  23.050  0.2837  0.1490 -0.0514
43173W        W86086  32.877  28.549  21.780 -0.0237  0.2908 -0.2435
43174W        W86087  22.447  30.746  29.493  0.2023 -0.0297  0.1727
43175W        W86088  32.577  26.211  29.096 -0.1006 -0.1084 -0.0443
43176W        W86089  28.658  30.297  28.893 -0.4426  0.0178  0.1725
43177W        W86090  31.657  30.319  24.571  0.4996  0.0852 -0.3697
43178W        W86091  19.703  26.352   5.157 -0.1917  0.1831 -0.2195
43179W        W86092   7.261  20.229   6.768  0.2190  0.3014  0.4328
43180W        W86093  33.645  27.725   2.497  0.0130 -0.0901  0.0206
43181W        W86094  21.908   2.788   3.988 -0.2058 -0.1510  0.1558
43182W        W86095   6.226  25.245  20.154  0.0879  0.1209  0.2793
43183W        W86096  33.726  24.983  29.420  0.2838  0.0459  0.2338
43184W        W86097  28.327  24.563   1.865 -0.1788  0.0813 -0.0474
43185W        W86098  33.592  32.063   8.007 -0.1448 -0.2613 -0.0269
43186W        W86099   6.716  32.662   3.328 -0.0596  0.0715  0.1658
43187W        W86100  24.159  22.354  23.617 -0.3691  0.0408 -0.2819
43188W        W86101  22.650  26.296  17.166  0.1388 -0.3614 -0.2984
43189W        W86102  24.190  31.324   7.367  0.0225 -0.0962  0.0819
43190W        W86103   1.422  20.227   9.204  0.2710  0.1616  0.0674
43191W        W86104  26.994  30.578  19.382  0.2641 -0.4568 -0.1907
43192W        W86105   0.751  14.711   7.136 -0.3261  0.3409 -0.1635
43193W        W86106   5.164  21.219  27.130  0.0247 -0.0792  0.0882
43194W        W86107  10.102  31.856   9.838  0.0098  0.2491  0.1103
43195W        W86108  28.033   3.994  25.401  0.0066 -0.2010  0.2641
43196W        W86109  32.137  25.837  18.472  0.0179 -0.0927  0.0744
43197W        W86110   5.046  27.249   6.629  0.3209 -0.0892  0.1439
43198W        W86111  11.512  30.646   4.618  0.0191 -0.0981 -0.2053
43199W        W86112  27.953  20.535   0.201  0.1692  0.1455  0.0183
43200W        W86113   1.854  33.344   3.073  0.2971  0.1274 -0.0384
43201W        W86114   1.052  25.078  24.280 -0.0152 -0.1856  0.4093
43202W        W86115  34.491   1.116   5.119  0.2369  0.1626  0.2332
43203W        W86116  23.963  32.512  18.940  0.1923  0.0277 -0.1848
43204W        W86117   7.653  30.913   3.361  0.1237  0.2015 -0.0858
43205W        W86118  14.863   1.258  21.251 -0.0237 -0.3878 -0.1842
43206W        W86119  29.616  26.503  29.769 -0.0524  0.1572  0.0561
43207W        W86120  31.354  24.223   6.204 -0.1021  0.0020 -0.1586
43208W        W86121  26.713  21.335   7.642  0.1976 -0.1058 -0.2607
43209W        W86122  23.944  26.073   0.602  0.2261 -0.1254 -0.2104
43210W        W86123   2.810  30.558  27.312 -0.2953  0.1747  0.0919
43211W        W86124  34.090   5.528   8.104  0.1711  0.3604 -0.3486
43212W        W86125  27.234  24.811  27.255  0.1608  0.1264  0.1631
43213W        W86126  20.082  27.984  28.569  0.1920  0.0340 -0.2191
43214W        W86127   2.279  31.262   1.455 -0.4508 -0.1192 -0.0484
43215W        W86128  28.905  27.872  16.483 -0.2639  0.1325 -0.0141
43216W        W86129  27.831  30.077   2.464 -0.0310 -0.2659  0.4458
43217W        W86130  29.835  27.618  27.688  0.0404 -0.1570  0.0081
43218W        W86131  30.246  31.299  23.191  0.2438 -0.0050 -0.4023
43219W        W86132  17.205  28.745   3.649  0.0981 -0.2281  0.1191
43220W        W86133  18.118  17.942  14.452  0.1233  0.0736  0.2316
43221W        W86134  34.082  17.201  29.283  0.1948 -0.1186 -0.0601
43222W        W86135  31.054  32.611  22.771  0.0184  0.0759  0.1038
43223W        W86136  33.124  17.321  27.953 -0.4864  0.1019 -0.1777
43224W        W86137  21.467  11.762  19.389  0.3128 -0.0507  0.3120
43225W        W86138  26.243  22.494   6.292  0.0575  0.2980 -0.1024
43226W        W86139  25.467  22.378   5.396  0.1658 -0.0674 -0.1780
43227W        W86140   2.316  25.088   2.028  0.0139 -0.1392 -0.1620
43228W        W86141   0.348  19.151   3.531  0.0210 -0.0781  0.3083
43229W        W86142  20.698  28.127   2.595 -0.1323  0.1035  0.2075
43230W        W86143  31.303   4.674   6.294  0.0991  0.1792  0.4949
43231W        W86144  27.077   0.508  27.136  0.0140  0.0734  0.0808
43232W        W86145  28.831   3.296   2.265 -0.2760  0.2972 -0.0661
43233W        W86146  25.408  31.345  26.873  0.0117  0.1796  0.1774
43234W        W86147  27.023  20.748  18.672 -0.2485  0.0061  0.0557
43235W        W86148  32.577   2.894  18.251 -0.1788  0.0906 -0.1704
43236W        W86149   1.971  23.406  22.577  0.0294  0.2514 -0.1244
43237W        W86150  24.334  27.892  27.792 -0.2321 -0.1607 -0.0039
43238W        W86151  16.921  26.716   1.118  0.1392 -0.1585  0.1010
43239W        W86152   2.959  20.456   0.718  0.0852 -0.0887 -0.0515
43240W        W86153  26.289  18.781  22.919  0.2322 -0.1120  0.5333
43241W        W86154   1.486  30.154   0.529 -0.0506 -0.1236 -0.1229
43242W        W86155  30.389  33.321  24.387  0.0537 -0.1174 -0.1589
43243W        W86156  30.096  26.799  28.599  0.2176 -0.0914  0.1495
43244W        W86157  18.878  21.958  25.055 -0.2683  0.1289  0.0923
43245W        W86158  19.214  19.845  23.918 -0.1186 -0.3485 -0.0981
43246W        W86159   8.360  21.407  23.425 -0.0577 -0.0204 -0.1764
43247W        W86160  27.826  27.215  26.228 -0.0322 -0.0221  0.0137
43248W        W86161  32.391   3.465   4.248  0.2759 -0.0591 -0.1452
43249W        W86162  26.955   2.983  25.501  0.0127 -0.0449  0.0253
43250W        W86163  30.997  23.037   8.387  0.1421  0.3230 -0.0471
43251W        W86164  31.802  15.725   5.034  0.5806 -0.5328 -0.3789
43252W        W86165   1.293  24.882   0.028  0.0773 -0.0739  0.2102
43253W        W86166  20.390  28.444   2.341  0.1282  0.0100 -0.1242
43254W        W86167   3.257   1.994  18.600  0.1855  0.0944  0.4201
43255W        W86168  29.166  30.594  27.200 -0.0468 -0.2262 -0.0206
43256W        W86169  27.698  26.322   9.407  0.2093  0.0736  0.3536
43257W        W86170   5.378  26.516   5.590 -0.0351 -0.3799 -0.0073
43258W        W86171   1.516  33.591   1.522 -0.1490 -0.0073 -0.4598
43259W        W86172  19.685  29.617   2.046 -0.1851 -0.2762 -0.2214
43260W        W86173  34.072  22.934  28.699  0.3014 -0.0951  0.2306
43261W        W86174  22.634  22.240   2.716  0.2714 -0.3127  0.2663
43262W        W86175  20.045   0.460   0.731  0.0613 -0.1863 -0.0531
43263W        W86176  26.627  30.423  21.809 -0.1003 -0.1772  0.0364
43264W        W86177   5.145  28.271  27.629  0.4058  0.1976  0.0861
43265W        W86178   0.832  25.575   3.660  0.1233  0.2458  0.0539
43266W        W86179  24.868  33.818   8.970  0.0687 -0.0145  0.2433
43267W        W86180  26.954  34.327  24.586 -0.1033  0.2732 -0.2609
43268W        W86181  26.092  33.697  25.212 -0.4025 -0.4260 -0.0390
43269W        W86182  20.784  21.447  23.441 -0.0212 -0.0492  0.0098
43270W        W86183  22.478  20.062   5.474 -0.1382 -0.2394 -0.1467
43271W        W86184  32.093  14.247  25.196  0.0937  0.0537  0.0177
43272W        W86185  30.479  17.126  26.797 -0.0167 -0.0214 -0.1253
43273W        W86186   3.324   2.572   5.505 -0.1402 -0.0113 -0.3102
43274W        W86187  32.671  30.774   5.365 -0.2505  0.0089 -0.0599
43275W        W86188  30.574  23.679   8.406 -0.0420  0.2309 -0.0872
43276W        W86189  30.282  27.266   6.074 -0.2189  0.1151  0.0829
43277W        W86190  32.759   3.689  21.579  0.0636 -0.1288 -0.1134
43278W        W86191  26.524  33.024   2.491  0.0456 -0.1599  0.1073
43279W        W86192   2.654  27.741  26.847 -0.0027 -0.1043  0.0519
43280W        W86193  33.475  20.333   2.481  0.1999 -0.1398  0.1114
43281W        W86194  32.510  25.051   2.892  0.1733 -0.0386 -0.0828
43282W        W86195  28.080  27.107  24.899 -0.0769  0.3340  0.0370
43283W        W86196   0.328  24.160  17.512  0.2274 -0.1523  0.1378
43284W        W86197  19.997  34.182  28.049 -0.0107  0.0565 -0.0028
43285W        W86198   0.155  23.967  22.361 -0.2468  0.2727  0.0474
43286W        W86199  27.630  24.350  29.691  0.2155  0.1235 -0.2189
43287W        W86200  18.434  31.435  27.758  0.2506 -0.0794  0.1546
43288W        W86201  32.663   7.946  28.099 -0.1829  0.0079  0.2712
43289W        W86202  30.461  32.486   5.618  0.0239  0.2411  0.2439
43290W        W86203  17.126  29.319  20.162 -0.0747 -0.0795  0.0804
43291W        W86204  31.895  21.800   4.739  0.1271  0.0108  0.1839
43292W        W86205  14.526  17.697  14.793  0.0670  0.3792  0.1895
43293W        W86206  15.453   1.349   2.342  0.0777 -0.2674 -0.2237
43294W        W86207  31.417  27.744   2.051 -0.1954  0.1073  0.3476
43295W        W86208   5.981  29.363   0.343  0.2000 -0.3322 -0.0666
43296W        W86209  20.847  31.276   5.756 -0.1262  0.0196 -0.3191
43297W        W86210  32.604   1.428  27.180  0.0424  0.1542 -0.1208
43298W        W86211  30.931  27.255  16.506  0.1523  0.1421 -0.0117
43299W        W86212   0.019  32.077   9.213  0.0747  0.1330  0.2110
43300W        W86213  27.263   1.365  20.560 -0.1143  0.2447  0.0863
43301W        W86214   0.399  26.225  15.992  0.3672 -0.2350  0.0222
43302W        W86215  22.466  21.344  19.813  0.1123  0.5300 -0.0218
43303W        W86216  31.197  23.392   2.539  0.0739  0.2433  0.0958
43304W        W86217  22.560  16.114  29.422  0.1096 -0.1273 -0.0987
43305W        W86218  25.492  28.395   2.727 -0.2553  0.1655  0.0581
43306W        W86219  33.359  24.993  21.093 -0.2183 -0.1474 -0.0108
43307W        W86220  10.433  21.628  24.368 -0.0156 -0.1765 -0.3465
43308W        W86221  26.136  28.763   2.713 -0.3508  0.0897  0.0639
43309W        W86222  28.865   3.040  18.519 -0.1241  0.1802  0.2994
43310W        W86223  20.400  19.805  22.977  0.2538  0.0864 -0.0967
43311W        W86224  32.808  16.403  21.318  0.4692  0.3590  0.1945
43312W        W86225  26.875  27.591  29.274 -0.3812 -0.0349  0.4327
43313W        W86226  19.569  24.033  24.309  0.0595  0.0677  0.0969
43314W        W86227  21.179  32.703   3.810 -0.1236 -0.0668 -0.1197
43315W        W86228  27.291  31.544  23.594  0.0684  0.1458 -0.1861
43316W        W86229  33.085  16.853  20.617  0.0336 -0.0320 -0.1400
43317W        W86230  24.045   3.112   9.424  0.2963  0.1986 -0.0417
43318W        W86231   5.348  29.031  22.978 -0.1346 -0.3919 -0.1034
43319W        W86232  27.640  26.762   2.973  0.0725 -0.2561  0.0259
43320W        W86233  30.145  22.618  28.316 -0.1328  0.0722 -0.0590
43321W        W86234  27.194  25.376  23.844 -0.0072  0.0917 -0.2227
43322W        W86235   4.681  19.982  27.402 -0.2152  0.4063 -0.0526
43323W        W86236  32.022  33.618  22.654 -0.3059 -0.0819 -0.3850
43324W        W86237  29.329   0.178  29.203 -0.0437  0.1974  0.2828
43325W        W86238  33.942  28.383  25.170  0.0668 -0.4125 -0.0311
43326W        W86239  15.654   4.984   6.170 -0.1594  0.2029  0.0734
43327W        W86240  30.070  30.522  26.587  0.1129  0.2236 -0.0995
43328W        W86241  27.587  31.133   0.042  0.1070  0.2583 -0.2455
43329W        W86242  30.908  25.539  22.532 -0.0115  0.0074 -0.1950
43330W        W86243  24.540  25.501   1.119 -0.2044 -0.1445 -0.0713
43331W        W86244  33.393  10.063  24.622  0.0231 -0.0656  0.0878
43332W        W86245   6.632  17.634  21.430 -0.0588  0.2980 -0.4776
43333W        W86246  30.105   6.113   1.619 -0.1903  0.0424 -0.0996
43334W        W86247   3.770  25.671  25.491 -0.3505 -0.0122  0.0524
43335W        W86248  27.450  25.757  23.671 -0.0668 -0.1565  0.1183
43336W        W86249  29.696   3.186  24.169  0.0408  0.1168  0.0255
43337W        W86250   7.632   2.341   0.353  0.1743  0.1865 -0.0757
43338W        W86251  31.631  33.676   8.333 -0.0167  0.4088  0.1378
43339W        W86252   9.614  33.876  12.840 -0.0523 -0.3262 -0.3888
43340W        W86253  30.523  22.749  26.296 -0.2204 -0.2023 -0.0702
43341W        W86254  23.825  21.339  28.002  0.1010  0.2229 -0.0522
43342W        W86255   3.913   3.578  18.740  0.0519 -0.1212  0.0729
43343W        W86256  33.552  26.754  25.157  0.1455 -0.2191  0.0122
43344W        W86257  27.698  28.614  24.877 -0.0620  0.3225 -0.3428
43345W        W86258  33.616  28.319  28.606 -0.0779 -0.1212 -0.1643
43346W        W86259  31.173  32.117  10.405 -0.3725 -0.3952  0.3008
43347W        W86260  16.179   0.514   0.239 -0.0708 -0.1462  0.2802
43348W        W86261  26.426  18.053  25.894 -0.4311 -0.0659 -0.1087
43349W        W86262  18.772   0.229   3.718  0.0410  0.1715  0.3683
43350W        W86263  32.564  27.770  26.187 -0.0806 -0.5418 -0.0050
43351W        W86264  32.468  28.346  25.220 -0.1457  0.0947  0.0405
43352W        W86265  24.406  23.895  21.417  0.0687  0.1027 -0.1021
43353W        W86266   0.473  25.902   3.779  0.1251 -0.2010  0.2563
43354W        W86267  31.123  27.761   8.426 -0.1602  0.1817 -0.2477
43355W        W86268  22.161  24.432   0.234 -0.3216  0.3074 -0.0613
43356W        W86269  27.280  32.800   0.814 -0.0985  0.0033  0.1539
43357W        W86270  32.445  11.452  27.336  0.0221 -0.2338  0.1223
43358W        W86271  34.139  20.927  25.862  0.0762 -0.0763 -0.0902
43359W        W86272  27.875  26.764  23.539  0.0443 -0.4248 -0.1741
43360W        W86273   4.871  32.595  21.201 -0.1717 -0.0134 -0.1357
43361W        W86274  21.157  21.680  25.238 -0.1820 -0.1984 -0.0204
43362W        W86275  26.300   2.201  28.412  0.0159  0.2108  0.1506
43363W        W86276  24.070  25.165  24.083 -0.1693  0.0637 -0.1420
43364W        W86277  20.093   7.470  29.563 -0.1609 -0.1384  0.2347
43365W        W86278  28.072  34.203  26.318  0.1213 -0.0581 -0.1473
43366W        W86279  26.787  23.638   7.221  0.3210  0.1369 -0.0585
43367W        W86280   6.761  28.706  29.235  0.0076  0.0275 -0.0081
43368W        W86281  15.748  24.603  22.839  0.1289 -0.2088  0.1119
43369W        W86282  31.934  31.763   7.402  0.1421  0.0277  0.1783
43370W        W86283   6.725  25.350  21.061 -0.0329  0.3263 -0.2311
43371W        W86284   5.422  28.206   0.618 -0.0574  0.2620  0.0286
43372W        W86285   3.648  22.581   2.481 -0.0036  0.1048 -0.1709
43373W        W86286  29.906  24.447   6.972  0.2943 -0.0326 -0.3666
43374W        W86287  29.360  23.113  22.064  0.1099 -0.0212  0.1829
43375W        W86288  31.189  27.282   8.736  0.0702  0.0521  0.1897
43376W        W86289  20.066  17.537   1.497 -0.3860  0.3604 -0.3364
43377W        W86290  27.931  18.947  20.180  0.1453  0.3282  0.0104
43378W        W86291  33.667   1.797  29.720  0.0852  0.0015  0.0701
43379W        W86292   1.006  29.776  29.005 -0.1372  0.1417  0.2926
43380W        W86293  25.618   7.763  24.647 -0.0996 -0.2359  0.0310
43381W        W86294   2.188  16.098  24.503  0.0610  0.4105  0.0657
43382W        W86295   7.004  18.279  25.004 -0.0464 -0.2597 -0.1902
43383W        W86296  28.834  34.001   0.526  0.0985 -0.2402 -0.2644
43384W        W86297  28.387  30.594   5.318 -0.2821  0.3613  0.1152
43385W        W86298   0.227   3.606  25.152 -0.1767  0.1631  0.1312
43386W        W86299  20.161   3.065  26.632  0.0960 -0.1222  0.3091
43387W        W86300  22.673   9.216   4.965 -0.1267  0.1982 -0.3743
43388W        W86301  21.701  20.354  22.792  0.0957 -0.0539 -0.4237
43389W        W86302  18.842  28.575   0.953  0.1612  0.0649  0.3947
43390W        W86303  33.120  25.525  23.782  0.2295 -0.1517  0.3832
43391W        W86304  29.613   0.817   9.212  0.0256 -0.3919  0.2648
43392W        W86305  23.885  32.501  27.598 -0.0079  0.0842 -0.4795
43393W        W86306  26.804  30.022  26.287 -0.2607  0.0978  0.2030
43394W        W86307   0.075  27.617   4.201  0.0210 -0.0883  0.0104
43395W        W86308  28.347  29.479  24.978  0.1326  0.1785 -0.1600
43396W        W86309  25.908  25.127  26.762  0.0755  0.3702  0.1892
43397W        W86310  24.695  26.610  27.408  0.3819  0.0057 -0.0921
43398W        W86311   0.170  30.466   4.549  0.0716  0.0277 -0.0193
43399W        W86312   5.709  26.761   1.802  0.2170  0.0518  0.0098
43400W        W86313  27.565  29.471  27.256  0.1069  0.0131  0.1366
43401W        W86314  32.471  28.296   3.270  0.3822 -0.0716  0.3639
43402W        W86315  25.921   0.222   0.727 -0.1158 -0.1400 -0.1422
43403W        W86316  12.109  23.023   4.812 -0.1969 -0.0089  0.0016
43404W        W86317  18.723  22.355  23.537 -0.3045  0.1341  0.1226
43405W        W86318  29.680   1.818  26.387 -0.0630 -0.3275  0.3505
43406W        W86319   2.215  21.888  27.605 -0.1185 -0.0817 -0.2735
43407W        W86320   0.890  23.737   2.418  0.1917  0.1576  0.2128
43408W        W86321   8.321  18.025   6.303  0.2462  0.3447 -0.1198
43409W        W86322  28.744  31.586   0.654 -0.0742  0.2890 -0.2129
43410W        W86323  31.641  22.173   4.994 -0.2331  0.1431 -0.2131
43411W        W86324  25.299  22.483  26.902  0.1351 -0.2001  0.0621
43412W        W86325   3.978  25.874   1.851 -0.1980  0.2594 -0.2430
43413W        W86326  24.132  30.562  28.572  0.1464  0.0208 -0.2602
43414W        W86327  27.095   3.185  17.751  0.0432 -0.0360 -0.1768
43415W        W86328  28.960  32.396  27.458  0.1182 -0.2110  0.0195
43416W        W86329  23.706   4.126  28.323 -0.2946  0.2466 -0.2448
43417W        W86330  21.407  28.198  24.876  0.0399 -0.1423  0.0239
43418W        W86331   2.749   1.927  27.454  0.2699  0.0036  0.0562
43419W        W86332   5.990  16.161   3.813 -0.1089  0.0797 -0.0948
43420W        W86333  30.022   1.685  20.031  0.0041  0.0075 -0.1995
43421W        W86334  29.772  30.248  29.261  0.1483 -0.0556 -0.0352
43422W        W86335  21.347  32.134  22.578 -0.1915 -0.1997  0.0163
43423W        W86336  26.558  21.481  19.519  0.2877 -0.0409  0.3044
43424W        W86337  20.550  19.674  15.851  0.1617 -0.0898  0.0623
43425W        W86338  27.080   5.358  16.874 -0.1621  0.1309  0.3524
43426W        W86339  23.826  27.207   5.561  0.1304  0.1534  0.0912
43427W        W86340  17.372   2.289  22.468  0.0829  0.3539 -0.0903
43428W        W86341  31.603  18.536   1.124 -0.1327  0.1356 -0.3999
43429W        W86342   2.962  27.736   0.017  0.1046 -0.1500 -0.1663
43430W        W86343  26.044  22.602  19.483  0.0286 -0.1251  0.3351
43431W        W86344  30.142  29.711   2.855 -0.0811  0.1549 -0.2101
43432W        W86345  26.397   2.439  16.583  0.1499  0.0609  0.1919
43433W        W86346  34.227  33.988  21.715 -0.2297 -0.0349  0.1107
43434W        W86347  31.754  18.678  26.650 -0.0183 -0.3701 -0.3513
43435W        W86348  22.812  19.085   1.089  0.1567  0.1449 -0.0525
43436W        W86349  31.238   6.460  24.554 -0.1205  0.1799  0.0349
43437W        W86350  21.165  27.521  21.877 -0.0651  0.0353  0.1334
43438W        W86351  27.723  32.022  22.306  0.4342  0.1905 -0.0362
43439W        W86352   7.327  16.780   0.863  0.2665 -0.0379  0.2459
43440W        W86353  32.580  22.427  24.068 -0.0452 -0.0158  0.2239
43441W        W86354  33.504  26.813   6.025 -0.0929  0.1788  0.0872
43442W        W86355   0.972  31.736  29.555 -0.1508  0.1040 -0.1255
43443W        W86356   1.731  30.244  28.101  0.0653  0.0137 -0.0742
43444W        W86357  30.849  19.882   7.298 -0.1510 -0.0082  0.2894
43445W        W86358   4.705  26.410  20.522  0.0733  0.3516 -0.0238
43446W        W86359  14.394  31.960  24.553  0.0797  0.0563 -0.1004
43447W        W86360  24.975   2.939   3.745  0.0171 -0.2393 -0.0303
43448W        W86361  25.405  25.649  25.394  0.1235 -0.1943  0.0033
43449W        W86362  32.836  27.651  26.637 -0.0923 -0.1012 -0.2308
43450W        W86363  31.313  28.430  29.157 -0.0109 -0.0523  0.1176
43451W        W86364  22.689  30.333   1.395  0.3206  0.3405  0.0077
43452W        W86365  23.541   1.727  29.490 -0.2257  0.1624  0.0710
43453W        W86366  26.555  31.890   5.895  0.0435 -0.0639  0.1412
43454W        W86367  24.486   4.665   2.461 -0.0804 -0.3253 -0.1825
43455W        W86368  30.248  21.949   3.270  0.0888  0.0244 -0.1686
43456W        W86369  29.149  19.708  27.652 -0.0080 -0.0272 -0.0791
43457W        W86370  23.520  30.809   8.582  0.1164 -0.1170  0.0787
43458W        W86371  31.068  34.418   0.251 -0.1091  0.1827  0.0238
43459W        W86372  26.095  28.917   1.486  0.0609  0.1575  0.2672
43460W        W86373  11.365  28.128  29.296 -0.0342  0.2253  0.0147
43461W        W86374  20.486  23.772  23.506  0.0189 -0.0544 -0.0892
43462W        W86375  31.987  29.354   0.133 -0.1452 -0.0062  0.1555
43463W        W86376  31.760  32.469  20.137 -0.0667  0.0636  0.2216
43464W        W86377  31.478   1.170   7.213 -0.3628 -0.0076  0.0281
43465W        W86378  30.320  28.872   0.485 -0.1559  0.3227  0.2146
43466W        W86379   2.536   2.420  20.613  0.0437  0.1332 -0.1656
43467W        W86380  30.535  30.891  26.346  0.0515 -0.0950  0.1767
43468W        W86381  33.164  20.895   0.365  0.1989 -0.2707 -0.0797
43469W        W86382  32.165  25.770  28.919 -0.3173 -0.1704  0.0841
43470W        W86383  26.995  29.137  28.099 -0.0080 -0.0018  0.0047
43471W        W86384  23.449  22.186   1.182 -0.3529 -0.0279  0.0622
43472W        W86385  21.533  27.687  25.723  0.0983 -0.1706 -0.1596
43473W        W86386   3.445  18.084  18.827 -0.0499  0.2809 -0.0624
43474W        W86387   9.379  18.545   8.826  0.0641 -0.1755  0.0941
43475W        W86388  30.398  26.655   6.525  0.1060 -0.2093 -0.1981
43476W        W86389  20.573  27.902  28.197  0.0820 -0.2441 -0.0841
43477W        W86390  24.788  25.602  29.401 -0.0338  0.2035  0.1692
43478W        W86391  29.828  29.321  22.293 -0.1442 -0.1439  0.1729
43479W        W86392   0.008  29.161  16.913  0.0040 -0.1330  0.1428
43480W        W86393  21.852  19.191  22.994  0.0417 -0.2239  0.1075
43481W        W86394  32.214  16.762  26.612 -0.0420  0.0958  0.0911
43482W        W86395  29.466  24.652   1.164 -0.0300 -0.0153 -0.1024
43483W        W86396  26.133  29.767  27.045  0.1193 -0.1654 -0.0572
43484W        W86397  31.368  31.829   3.083  0.1183 -0.0387 -0.1425
43485W        W86398  18.802  29.198   2.070 -0.1055  0.0441  0.0531
43486W        W86399  31.322  30.076   4.498 -0.0923 -0.0387  0.1189
43487W        W86400  26.643   4.235   1.062 -0.2196 -0.1295  0.0761
43488W        W86401  18.720   1.497   0.379  0.2338 -0.1053 -0.0375
43489W        W86402  33.828  24.859  21.159 -0.4485 -0.3609 -0.5143
43490W        W86403  32.999  33.443   6.270 -0.1313 -0.0048  0.0074
43491W        W86404   7.325  30.523  10.670  0.0183  0.1318 -0.3229
43492W        W86405   2.177  31.635   9.433 -0.0999 -0.0389 -0.0656
43493W        W86406  16.921   2.885   3.986  0.1284 -0.1793 -0.1496
43494W        W86407   2.613  32.625   3.087 -0.0152  0.1605 -0.1870
43495W        W86408   0.584  23.354  23.580  0.1573  0.3017  0.3718
43496W        W86409  22.859   3.180   5.788  0.1387  0.4306  0.0863
43497W        W86410  29.471  19.718  22.956  0.2922  0.1248 -0.0118
43498W        W86411   4.980  25.723   2.369  0.6351 -0.0706 -0.2460
43499W        W86412  26.267  24.744   2.041  0.2269 -0.0167  0.3053
43500W        W86413  29.485  29.357   5.277 -0.0886  0.3851  0.3040
43501W        W86414  15.915  23.729   2.209 -0.0339 -0.1604 -0.0122
43502W        W86415   1.766  33.826   7.780 -0.2314  0.0714  0.1483
43503W        W86416  29.240  34.495  22.277 -0.0364 -0.1220  0.0161
43504W        W86417  24.910  28.775  17.027 -0.4792 -0.1540  0.0327
43505W        W86418  32.537  28.064  26.929  0.0961  0.0494 -0.3765
43506W        W86419  15.819  23.610  28.866 -0.0198 -0.4004 -0.1316
43507W        W86420  27.768  25.421  21.521 -0.1531 -0.0786 -0.0896
43508W        W86421  19.390   3.561  29.030 -0.1813 -0.1809  0.0320
43509W        W86422   4.102   1.256  22.612  0.1546 -0.1831 -0.0735
43510W        W86423   0.055  19.856   5.142 -0.1089  0.2174  0.0698
43511W        W86424  27.354  29.243  25.877 -0.2858  0.3194 -0.0824
43512W        W86425  12.175  19.582   3.865 -0.0575  0.2302  0.2046
43513W        W86426   1.424  24.843   6.982  0.1626  0.0744 -0.0338
43514W        W86427  22.746  26.474   1.600 -0.1772 -0.0524 -0.1366
43515W        W86428  24.842  26.804   8.626 -0.1185  0.0103  0.2373
43516W        W86429  19.371  34.423  20.697  0.2718  0.1219  0.0305
43517W        W86430  25.541  28.768  28.546 -0.0852 -0.0396  0.3674
43518W        W86431  20.476  18.859   1.258  0.2568 -0.3681 -0.0065
43519W        W86432  29.513  27.879  13.883  0.0628  0.0146  0.0653
43520W        W86433   0.837  12.693  25.015 -0.1444  0.1312 -0.3732
43521W        W86434  28.061  25.600   8.249  0.2781  0.0212  0.2380
43522W        W86435  24.602  25.056  25.492 -0.0134 -0.1135  0.3108
43523W        W86436  31.593   1.737   8.346 -0.0209  0.2344  0.0433
43524W        W86437  26.732  25.862  22.406 -0.2210 -0.1251 -0.0971
43525W        W86438  27.151  30.204  24.845  0.0511  0.0302 -0.3928
43526W        W86439  29.963  32.859  25.643  0.2585 -0.1294  0.1314
43527W        W86440  27.342  26.942   5.307 -0.0407  0.0370  0.0476
43528W        W86441  32.002  21.503   0.158 -0.3290 -0.1019 -0.1455
43529W        W86442  34.449  21.178   0.609 -0.3120 -0.1830 -0.0466
43530W        W86443  21.682  23.581   3.734 -0.1535  0.1497  0.0972
43531W        W86444  31.679  19.738   0.209 -0.0989  0.2832  0.0616
43532W        W86445  22.366  21.642  26.480 -0.0207  0.0036  0.1497
43533W        W86446  32.734  32.829  22.600  0.1969 -0.0607  0.1368
43534W        W86447   7.170  34.172   1.326  0.2306  0.0166 -0.0508
43535W        W86448   5.161  31.234   5.956 -0.1190  0.0230  0.0536
43536W        W86449  28.938  17.248   3.922  0.0715  0.2472  0.0203
43537W        W86450  29.776   9.949  25.720  0.2467  0.2603 -0.0932
43538W        W86451  26.488  26.808   3.023 -0.2176 -0.3397  0.1218
43539W        W86452  31.700  24.311  26.706  0.2261  0.2843  0.2377
43540W        W86453  32.499  17.729   1.499 -0.1388 -0.1884  0.0744
43541W        W86454   3.495  20.297  26.757 -0.4814 -0.2068 -0.4400
43542W        W86455  31.356  24.784   1.446 -0.0162 -0.0330 -0.2397
43543W        W86456   0.256  26.156  28.466  0.0512  0.0226  0.0521
43544W        W86457  20.949  20.288  28.395  0.0694  0.2260 -0.0140
43545W        W86458  12.566  27.862  25.005 -0.0260  0.2462 -0.2025
43546W        W86459  26.358  30.919  29.302 -0.3264  0.0098  0.1829
43547W        W86460  31.441  23.069   2.179  0.1945  0.0166  0.0220
43548W        W86461  28.665  33.515  28.584 -0.1308 -0.0943  0.4808
43549W        W86462  31.249  25.496  23.271  0.1257 -0.2291  0.0852
43550W        W86463  20.828  29.160  25.202  0.0042  0.0571 -0.0781
43551W        W86464  19.008  31.003   2.406 -0.2135  0.1082  0.3076
43552W        W86465  19.609  18.563  13.134  0.0851 -0.1931  0.1865
43553W        W86466  24.494  22.938   2.555 -0.1380  0.1215 -0.2607
43554W        W86467  27.322   3.101   0.480 -0.0010  0.3016  0.3070
43555W        W86468   8.794  28.399  25.748 -0.1209  0.0000  0.2459
43556W        W86469  29.781  19.239   7.929  0.0403  0.1216 -0.0131
43557W        W86470  27.367  26.649  28.031  0.3474  0.0427  0.0265
43558W        W86471  32.156  33.345   0.010  0.1735 -0.1804 -0.0466
43559W        W86472  20.006  20.363   2.816  0.1699  0.2014 -0.0424
43560W        W86473  30.518  26.434  22.292 -0.3073  0.2296  0.3335
43561W        W86474   2.246  16.700  23.562  0.0079  0.1815  0.1345
43562W        W86475  32.367   0.646   0.075 -0.0234 -0.1383  0.2892
43563W        W86476   1.810  34.215  26.697  0.0793 -0.3890  0.1313
43564W        W86477  30.286  27.793   6.108 -0.1360 -0.0684 -0.0311
43565W        W86478   9.002  26.264   2.270 -0.2225  0.1836  0.1238
43566W        W86479  24.161  26.035   5.311 -0.1322 -0.4732 -0.5944
43567W        W86480  10.950  23.912   6.102  0.1238  0.0393  0.0541
43568W        W86481  33.492  26.570  28.140  0.2339 -0.0678 -0.2694
43569W        W86482   0.592   2.646   5.834 -0.3318  0.0266  0.3612
43570W        W86483   8.462  30.281  29.234  0.1835  0.1372 -0.1423
43571W        W86484  27.777  20.905  21.622  0.0661  0.0782 -0.0310
43572W        W86485  32.825  31.684   0.891  0.1198 -0.1637  0.0731
43573W        W86486  17.332  21.780  21.871  0.5813  0.0783 -0.0193
43574W        W86487   1.463  10.309   2.594 -0.1618 -0.0107 -0.0521
43575W        W86488  20.811  33.832   1.254  0.1430 -0.0559 -0.2260
43576W        W86489   0.309   7.914  26.736 -0.2458  0.0633 -0.0971
43577W        W86490   8.837  26.110  10.035  0.0746  0.2700  0.3262
43578W        W86491   1.297   5.342   7.433  0.0527  0.1203  0.0385
43579W        W86492   1.057  26.774   5.102 -0.2821 -0.1465  0.0469
43580W        W86493  30.605  31.951   8.060  0.1703  0.2946 -0.0468
43581W        W86494   7.595  13.961  26.435 -0.1138 -0.0938  0.1930
43582W        W86495  33.771  27.640   8.550  0.0234  0.1901  0.0879
43583W        W86496  33.007  27.602   4.984 -0.0160 -0.0508  0.1433
43584W        W86497  30.857   0.707   2.571 -0.1521 -0.1040 -0.0023
43585W        W86498  27.866  27.698  26.766 -0.4856  0.1977  0.2038
43586W        W86499  33.414  32.516  22.568 -0.0291 -0.2433 -0.1099
43587W        W86500  24.686  29.244  26.911  0.2482 -0.1862 -0.0812
43588W        W86501  30.975  34.291   2.603 -0.0445 -0.2245  0.2430
43589W        W86502  33.298   6.847   1.325  0.0951 -0.2780  0.0904
43590W        W86503  28.406   1.258  27.941 -0.1761  0.1034 -0.2011
43591W        W86504   6.050  22.181   9.385  0.1115  0.1265  0.0058
43592W        W86505  29.892  34.167  23.402 -0.1302 -0.0332  0.2432
43593W        W86506  28.896  33.031  20.262  0.0947 -0.1242  0.0137
43594W        W86507  32.334  18.656  22.887  0.1888  0.1823  0.2938
43595W        W86508  33.030  32.029  25.759 -0.3315 -0.1699  0.2211
43596W        W86509   2.330  21.263  20.250  0.0115  0.0513  0.2993
43597W        W86510  26.443   0.832  17.323  0.1865  0.2649 -0.1079
43598W        W86511   0.095  21.312  23.978  0.1227  0.1904  0.0239
43599W        W86512  25.484  32.243  18.292 -0.0292 -0.0274 -0.0517
43600W        W86513  25.287  26.483  20.825  0.0011  0.0600  0.2798
43601W        W86514   3.150  26.612  20.693 -0.0223 -0.1770 -0.1461
43602W        W86515  33.602  30.457  22.197  0.1920  0.2339  0.0766
43603W        W86516  30.648  33.082  17.339  0.0930  0.2702  0.0944
43604W        W86517  32.717  18.445  19.019  0.1094 -0.1372  0.1049
43605W        W86518  31.637  12.254  19.965 -0.3042  0.0751  0.3080
43606W        W86519  29.004  30.009  29.103  0.0807  0.0641 -0.1188
43607W        W86520  22.769   3.085  15.872 -0.1448 -0.0222  0.2420
43608W        W86521   0.427  29.121  14.580  0.0746  0.0066  0.2481
43609W        W86522  31.861  25.439  22.049  0.2617  0.0437 -0.0472
43610W        W86523  31.127  25.733  15.362 -0.0059  0.1047 -0.0676
43611W        W86524  28.627  34.426  17.504 -0.1092 -0.1547 -0.0157
43612W        W86525  25.187  28.285   3.491  0.0474 -0.1122 -0.0842
43613W        W86526  30.365  25.477  21.279 -0.0583 -0.0942  0.0616
43614W        W86527  34.434  31.355  17.640  0.1047 -0.1844 -0.1106
43615W        W86528  32.710   0.904  24.453 -0.2375  0.0594  0.0014
43616W        W86529   0.262  33.277  23.773  0.0391 -0.0391  0.0876
43617W        W86530   9.034  18.645  20.835 -0.1391 -0.4267  0.0603
43618W        W86531  31.817  26.165  18.059  0.4019  0.4550 -0.1028
43619W        W86532   2.821  33.947  16.846 -0.0039  0.2212  0.3839
43620W        W86533   0.264   5.607  16.003  0.2462 -0.1864 -0.2993
43621W        W86534  31.188   2.975  18.145  0.2524 -0.1685 -0.1814
43622W        W86535  22.363   5.414  15.725  0.1505 -0.1482 -0.0081
43623W        W86536  27.778  34.130  22.073  0.2497 -0.2040  0.1219
43624W        W86537  25.323  28.466  21.789 -0.1501 -0.1523  0.2127
43625W        W86538   8.493  26.354   0.340 -0.1406  0.1034 -0.0334
43626W        W86539  31.280  31.350  19.956  0.1883  0.0201  0.0293
43627W        W86540   4.817  31.253  18.595  0.2068  0.2501 -0.1738
43628W        W86541  27.715  27.145  23.872  0.0614 -0.1663  0.2346
43629W        W86542  33.414  27.597  14.672 -0.0469 -0.3342  0.0956
43630W        W86543  34.340   1.374  18.838  0.2671  0.1560  0.1751
43631W        W86544   0.267  32.528  18.608 -0.2654 -0.3927 -0.2223
43632W        W86545  34.217  33.412  18.593  0.0692 -0.1444 -0.1095
43633W        W86546  28.799  30.263  15.391 -0.0280 -0.1023 -0.2238
43634W        W86547  26.864  29.303  22.022 -0.0735  0.1707  0.0845
43635W        W86548  20.625   4.234  29.078 -0.0576 -0.2810 -0.1004
43636W        W86549  17.866   2.114  22.301 -0.2648  0.0652 -0.1906
43637W        W86550  34.197  28.576  19.032 -0.1970 -0.0333  0.0540
43638W        W86551  25.399   3.056  13.412  0.0082  0.1504 -0.2126
43639W        W86552  30.606  25.609  27.795  0.0605  0.1474  0.2697
43640W        W86553  25.491  32.779  17.041  0.1191 -0.0461 -0.2656
43641W        W86554  23.889   1.695  13.713  0.1200  0.0636 -0.0966
43642W        W86555  26.010  27.828  18.850 -0.2341 -0.0243 -0.2694
43643W        W86556  32.384   2.408  20.194  0.0682 -0.0688 -0.0473
43644W        W86557  21.956  28.890  16.664 -0.0571 -0.0762  0.1226
43645W        W86558  31.578   1.745  17.386  0.0450  0.0231 -0.1460
43646W        W86559  32.066  27.396  17.923 -0.0809  0.2898  0.0678
43647W        W86560  31.781  31.238  17.354  0.1484 -0.1713 -0.1119
43648W        W86561  34.224  31.707  18.814  0.1201  0.3116  0.1836
43649W        W86562  30.424  32.658   2.099  0.0137  0.2760 -0.2243
43650W        W86563   6.697  28.174  21.876  0.2277 -0.0998  0.2240
43651W        W86564  33.731  23.071  18.112 -0.5036  0.0000 -0.2154
43652W        W86565  26.174  29.311  26.853  0.2874 -0.0311 -0.1984
43653W        W86566   8.976  27.572  18.837 -0.4026 -0.0068  0.1819
43654W        W86567  26.553  21.389  13.591  0.0111  0.4607  0.1150
43655W        W86568   1.824  30.521  15.628  0.2467  0.1562 -0.2348
43656W        W86569   2.883  23.383  17.192  0.0826 -0.2085 -0.0080
43657W        W86570  32.077   3.997  24.677 -0.0532  0.1161 -0.1436
43658W        W86571  31.516  33.390  21.351 -0.0668  0.0236  0.0687
43659W        W86572   5.084  17.587  23.403 -0.3778 -0.1674 -0.0952
43660W        W86573  28.782  31.592  16.299 -0.0021  0.0555 -0.2338
43661W        W86574  29.846  22.800  17.015  0.2480 -0.0726 -0.0509
43662W        W86575  31.426  25.299  18.713 -0.0712  0.1758  0.0379
43663W        W86576  29.585  23.602  24.046  0.1569 -0.0697  0.0634
43664W        W86577  29.388  28.700  21.550 -0.1266  0.1371  0.0132
43665W        W86578  22.477  23.711  25.788 -0.1448 -0.0567  0.1301
43666W        W86579  27.166  32.532  15.303 -0.1213  0.1222  0.2203
43667W        W86580  32.951  28.019  16.565 -0.2285 -0.0961  0.0452
43668W        W86581  28.848  23.873  26.730  0.2021 -0.4452 -0.1196
43669W        W86582  24.165   0.045  15.560 -0.1435  0.0115  0.2428
43670W        W86583   0.715  25.148  18.371  0.1583  0.1685  0.0835
43671W        W86584  24.230   2.278  17.662 -0.1073  0.0167 -0.1141
43672W        W86585  28.320  13.190  24.767  0.4838  0.1921  0.1970
43673W        W86586  23.691  22.685  13.251  0.0310 -0.1835  0.2963
43674W        W86587  34.283  29.058  28.546 -0.0626  0.1045 -0.0506
43675W        W86588  30.793  31.135  15.800  0.0077  0.1380  0.2154
43676W        W86589  29.495  16.794  21.448  0.0400  0.1514 -0.3449
43677W        W86590  27.049  23.683  15.504 -0.0283  0.0469 -0.0895
43678W        W86591  28.659  32.178  18.633  0.0117 -0.1412  0.0660
43679W        W86592  33.846  22.496  19.247 -0.0876  0.0979 -0.2027
43680W        W86593   0.621  31.597  16.377 -0.1415 -0.3888 -0.1114
43681W        W86594  33.850  24.595  17.498  0.0230 -0.0434 -0.1317
43682W        W86595  33.448  31.869  14.289  0.3401  0.3128  0.1339
43683W        W86596   3.755  15.374  14.122 -0.1139 -0.0894  0.1596
43684W        W86597  32.871   3.719  20.586 -0.2616  0.1005 -0.1386
43685W        W86598  28.063   4.444  22.710 -0.1244  0.2489  0.1112
43686W        W86599  22.709  28.704   1.075  0.1307 -0.2731 -0.0778
43687W        W86600  29.561  22.038  25.498 -0.2598 -0.0609 -0.0733
43688W        W86601  33.849  27.944  17.597 -0.2232 -0.1666 -0.0478
43689W        W86602  30.651  33.533  16.209 -0.1372 -0.0617 -0.1636
43690W        W86603  30.534  21.888  18.605  0.2707  0.2033 -0.1145
43691W        W86604  33.740  29.098  16.194 -0.1273  0.0756 -0.4525
43692W        W86605  24.631  22.884  16.776 -0.0703 -0.1249 -0.3810
43693W        W86606   1.145  28.875  18.341  0.4169 -0.0578  0.1263
43694W        W86607  27.505  27.983  24.051  0.2869 -0.0966 -0.3064
43695W        W86608  23.716   1.797  22.490  0.0371 -0.0284  0.2129
43696W        W86609  30.425  26.785  21.615  0.0016 -0.0189  0.1347
43697W        W86610  25.871   6.142  16.445 -0.2174 -0.0639  0.0605
43698W        W86611   7.632   0.161  20.044 -0.1292  0.1608  0.0867
43699W        W86612  32.235  25.206   0.412 -0.0096  0.1442  0.0340
43700W        W86613  32.201  18.981  27.371 -0.0823  0.2387  0.1789
43701W        W86614   9.953  32.613  18.828 -0.1330  0.1551  0.1769
43702W        W86615  34.068  22.742  22.695 -0.1152 -0.0501  0.1101
43703W        W86616  29.201  29.523  25.154 -0.1776  0.1290 -0.1095
43704W        W86617   0.411   4.402  21.542 -0.0857 -0.4549  0.1374
43705W        W86618  25.708  34.214   0.463  0.1324  0.3392  0.1321
43706W        W86619  28.505  31.297  18.339 -0.0589  0.1607 -0.1083
43707W        W86620  23.161  21.989  27.741  0.1940 -0.0038  0.1803
43708W        W86621   0.517   4.704  19.457  0.1057  0.0279  0.2619
43709W        W86622  24.156   3.978  17.756 -0.3137 -0.0741 -0.0556
43710W        W86623  26.708  29.014  21.219  0.4381 -0.1299 -0.2328
43711W        W86624  26.400   2.482  22.566 -0.0946  0.0480 -0.1989
43712W        W86625  26.374   0.307  15.421  0.2365 -0.1314 -0.0775
43713W        W86626  29.963  10.873  25.557 -0.1623 -0.0342  0.2507
43714W        W86627   0.596  21.163  26.864 -0.0132  0.0800  0.2591
43715W        W86628  33.919  30.510  17.009  0.1578 -0.3730  0.0830
43716W        W86629  29.957  31.781  15.076 -0.0139 -0.1126  0.1636
43717W        W86630   4.656   4.181  19.893  0.1862  0.3444  0.0374
43718W        W86631  29.231  19.747  21.082 -0.1556 -0.0843  0.1300
43719W        W86632   1.549  11.375  17.303  0.1783 -0.1703  0.1202
43720W        W86633  21.102  29.334  18.074  0.1126 -0.1781 -0.0485
43721W        W86634  32.868  32.052  14.706  0.1153  0.1026 -0.4684
43722W        W86635  29.291  30.132  14.446 -0.2049  0.1603 -0.0266
43723W        W86636  28.088  27.682  18.748  0.0678  0.2255 -0.1615
43724W        W86637  34.184  18.012  17.578 -0.0918 -0.1046 -0.0194
43725W        W86638  27.285  26.854  21.084 -0.3625 -0.0812  0.3783
43726W        W86639  32.529  31.950  26.132 -0.1529  0.3107 -0.0828
43727W        W86640  20.906  29.634  18.998  0.1340  0.0413  0.0383
43728W        W86641  25.016  25.264  26.665 -0.1037 -0.0455 -0.1524
43729W        W86642  31.313   6.413   2.211 -0.1814 -0.2241 -0.2234
43730W        W86643   6.378   4.422  21.862 -0.0038 -0.2926  0.1350
43731W        W86644   7.280   4.821   3.480  0.3069  0.0370  0.3253
43732W        W86645  31.542  17.073  16.172  0.0459 -0.1498  0.2105
43733W        W86646  21.354  28.118  13.821 -0.2272 -0.2102 -0.3370
43734W        W86647   3.166  27.196  15.973 -0.0522  0.0154 -0.1960
43735W        W86648  21.890  33.818  14.341 -0.0785  0.0315  0.2158
43736W        W86649  21.539  30.643  23.526  0.1483 -0.1246 -0.0848
43737W        W86650  27.221  28.058  27.498 -0.0339 -0.2100 -0.4999
43738W        W86651  28.772  32.156  18.072 -0.2527  0.1727  0.3217
43739W        W86652  32.757  20.803  16.364 -0.0865  0.2281  0.0760
43740W        W86653   3.953  26.199  14.903  0.3214 -0.0186 -0.0301
43741W        W86654  26.611  24.072  13.657  0.3242  0.0771  0.1432
43742W        W86655  21.961   0.608  16.018  0.0080  0.0908 -0.0785
43743W        W86656  28.518   4.813  18.597 -0.5317  0.1534  0.2085
43744W        W86657  24.435  29.427  25.859 -0.0970  0.4483 -0.1143
43745W        W86658   3.498  24.493   2.799  0.0880  0.0554 -0.1719
43746W        W86659  17.274  27.528  15.171 -0.1216 -0.1124  0.1279
43747W        W86660  29.052   2.248  17.345  0.0303  0.1829 -0.1376
43748W        W86661  28.811  25.219  16.864  0.2361  0.1363 -0.3636
43749W        W86662   1.541  30.073  14.050 -0.1206 -0.0366  0.3796
43750W        W86663  30.045  29.783  21.037  0.1216  0.0685  0.0842
43751W        W86664  24.627   4.510  21.921 -0.0024  0.0620 -0.0342
43752W        W86665  27.126  32.369  23.514  0.1956 -0.0322 -0.1643
43753W        W86666  29.894  27.022  16.739  0.2807  0.0798  0.0607
43754W        W86667   1.741   2.283  19.437  0.1587 -0.0518 -0.1630
43755W        W86668  29.182  28.054  24.002 -0.3043  0.2122 -0.3002
43756W        W86669   0.102  32.540  28.000 -0.4732  0.1397 -0.1879
43757W        W86670  33.996  31.862  14.309  0.1597  0.0513  0.2073
43758W        W86671  27.397  29.412  14.745  0.1102 -0.1108 -0.0306
43759W        W86672  10.155  26.077  20.711  0.1285 -0.0130 -0.3084
43760W        W86673  30.699   6.469  16.995  0.1831 -0.2238 -0.3917
43761W        W86674   7.284  25.781  22.958  0.4264  0.0280 -0.2797
43762W        W86675  27.309  29.533  23.720 -0.1408  0.0614  0.0259
43763W        W86676   7.430  31.244  17.411  0.0699  0.1694  0.1689
43764W        W86677  27.764  33.814  26.537 -0.0737  0.2422 -0.2296
43765W        W86678   6.938   1.011  23.113  0.3327  0.4103 -0.2204
43766W        W86679  28.921   0.780  28.324 -0.0291 -0.2839 -0.0164
43767W        W86680  30.354  16.470  14.604  0.1355 -0.4445 -0.0056
43768W        W86681  27.790  28.987  20.369  0.0425  0.0804 -0.1112
43769W        W86682  31.464  28.641  17.215 -0.0398  0.2816  0.0543
43770W        W86683  31.416  28.581  15.287  0.0310  0.0745  0.2078
43771W        W86684  31.019   6.040  17.370 -0.0338  0.0940  0.0729
43772W        W86685  13.019   2.754  20.057 -0.0672 -0.1250 -0.3261
43773W        W86686  26.697   5.082  15.962 -0.0722 -0.1517  0.2915
43774W        W86687  24.707  18.167  19.642 -0.1168  0.2626 -0.0858
43775W        W86688  24.836  30.724  16.722  0.1202  0.1507 -0.0675
43776W        W86689  27.009   1.650  19.224 -0.1314 -0.1957  0.1925
43777W        W86690  25.726  28.366  27.325 -0.0089 -0.1816 -0.1795
43778W        W86691  30.883  22.769  21.278  0.0283 -0.1038 -0.0708
43779W        W86692  30.325   1.405  21.283  0.0066 -0.0635 -0.2281
43780W        W86693  20.330  31.820  26.501  0.0419  0.0233  0.4873
43781W        W86694  27.251  32.812  25.970  0.2397 -0.1384 -0.1741
43782W        W86695   3.200  26.456  24.180  0.0238 -0.1183 -0.1046
43783W        W86696  29.427  20.357  19.543  0.2503  0.1393 -0.0369
43784W        W86697  18.153   7.855  29.589 -0.3911 -0.1090  0.0429
43785W        W86698  29.824  27.473  20.605  0.3018 -0.3273  0.1134
43786W        W86699  32.920  30.026  19.749 -0.0259 -0.2853  0.3354
43787W        W86700  31.728  26.369  14.764  0.0094 -0.1523 -0.1173
43788W        W86701  20.363  32.163   1.240 -0.4302 -0.0752  0.3100
43789W        W86702   2.125  29.869  18.148 -0.3749  0.1174  0.4480
43790W        W86703   0.383  24.665  19.399 -0.1240 -0.1029  0.2381
43791W        W86704  33.528  30.672  14.807 -0.0494 -0.0264 -0.1656
43792W        W86705   0.875  30.362  18.948  0.1499  0.0994 -0.0386
43793W        W86706  29.603  27.225  27.472 -0.1753  0.2606 -0.1671
43794W        W86707  28.729  28.524  21.169  0.0726  0.0838 -0.5504
43795W        W86708  32.473   1.148  17.939  0.0235  0.0437 -0.0411
43796W        W86709  30.259  28.969  20.027  0.1025 -0.0976  0.1721
43797W        W86710   2.589  26.457  17.466  0.1725 -0.1106 -0.2470
43798W        W86711  31.154  22.662  17.029 -0.0888 -0.1049 -0.0623
43799W        W86712  34.311  24.310  18.265  0.2388 -0.0937 -0.0141
43800W        W86713  24.105  28.359  20.583  0.1141  0.2005 -0.3287
43801W        W86714  30.673  23.143  18.536  0.1313 -0.2225  0.2767
43802W        W86715  23.041  25.102  26.315 -0.2206 -0.4211  0.0392
43803W        W86716  31.689  30.727  17.348 -0.1929 -0.0249 -0.1087
43804W        W86717  20.324  21.554  15.504  0.2540  0.1163  0.1858
43805W        W86718  19.636  23.334  24.863 -0.2348 -0.3994 -0.1904
43806W        W86719   9.991  32.198  16.356 -0.0225 -0.1997 -0.2134
43807W        W86720   3.298  26.283  28.411  0.1241  0.4049  0.1162
43808W        W86721  18.368   3.187  19.083  0.0828  0.0361 -0.3921
43809W        W86722   2.093  19.618  16.371  0.1703  0.1212 -0.3697
43810W        W86723  24.646  24.042  17.727  0.0911 -0.0037  0.0548
43811W        W86724  27.253  27.680  22.700 -0.0187 -0.2328  0.3861
43812W        W86725  24.866  25.298  14.820  0.0233  0.5863 -0.0279
43813W        W86726  29.933  31.083  26.810 -0.2657  0.0016  0.0348
43814W        W86727   2.962  25.161  21.237  0.0179  0.2483  0.2140
43815W        W86728  33.579  31.429  20.910  0.0124 -0.1628  0.1818
43816W        W86729  31.342   7.112  17.054 -0.2000 -0.3317 -0.0292
43817W        W86730   1.831  33.792  23.015 -0.0546 -0.1358  0.3482
43818W        W86731  27.299  20.978  16.340 -0.2037 -0.1856 -0.2588
43819W        W86732  32.284  28.172  15.513  0.0758 -0.0886  0.3540
43820W        W86733  23.225   2.618  28.449  0.2050  0.2187  0.0427
43821W        W86734  30.927  31.996  25.198  0.0364 -0.1531 -0.3948
43822W        W86735  22.438  29.238  14.537 -0.0276  0.2609  0.0971
43823W        W86736  33.492   4.973   4.188  0.1301 -0.0012  0.0460
43824W        W86737  23.655  24.427  27.068 -0.1611 -0.1909  0.2007
43825W        W86738  27.986   4.170  21.159  0.0529 -0.0524 -0.2142
43826W        W86739   8.062  16.477  18.919 -0.0991 -0.1184  0.3216
43827W        W86740  23.060  28.299  23.202 -0.0992  0.0904 -0.0989
43828W        W86741  16.851  33.372  20.300 -0.1613  0.2682  0.1975
43829W        W86742   0.991  21.585  15.940 -0.0545  0.1542 -0.1166
43830W        W86743  30.364  25.401  20.652  0.0706  0.2159  0.2798
43831W        W86744  32.419  24.112  15.569 -0.0011 -0.2121  0.0293
43832W        W86745  25.088  33.030  20.489 -0.1997 -0.0160 -0.0401
43833W        W86746  32.017  31.479  27.803  0.3175 -0.1112  0.1329
43834W        W86747  23.373  32.681  14.956 -0.0605  0.0674 -0.0629
43835W        W86748   2.465  30.419  15.219  0.2742  0.3413 -0.3360
43836W        W86749  26.646   9.758  26.638 -0.1036 -0.0500  0.0509
43837W        W86750  24.391  29.850  27.513  0.0992  0.0678  0.1032
43838W        W86751  32.721  34.090  17.705 -0.0168  0.2142 -0.0115
43839W        W86752   2.958   2.255  19.796  0.0676  0.1421  0.1639
43840W        W86753   0.331  28.839  17.068 -0.3125 -0.0258 -0.1074
43841W        W86754  33.245  23.075  18.074 -0.0026  0.0220  0.2502
43842W        W86755   0.089  33.314  22.380  0.3008  0.0008 -0.3186
43843W        W86756   3.849  34.452  19.170 -0.1028  0.1888  0.1489
43844W        W86757   6.395  23.628  23.412  0.0820 -0.1857  0.1547
43845W        W86758  27.668  26.724  20.306 -0.0105  0.0077 -0.1451
43846W        W86759  30.205  16.565  13.620 -0.0475 -0.0426 -0.1636
43847W        W86760   1.098  31.926  20.479  0.2142 -0.1698  0.1630
43848W        W86761  28.469  34.204  17.073 -0.1562 -0.1996  0.0831
43849W        W86762   1.629   3.856  24.643 -0.2577  0.2077  0.1417
43850W        W86763   1.596  26.819  17.439 -0.0860 -0.0980  0.0715
43851W        W86764   0.649   2.839  17.925 -0.3828 -0.2358 -0.2358
43852W        W86765  28.695  28.772  19.301  0.0123  0.3171  0.0495
43853W        W86766   1.695  29.593  14.550  0.1763 -0.0714  0.2954
43854W        W86767  31.408  11.195  29.005 -0.0273 -0.0782 -0.1700
43855W        W86768  31.951  31.489  15.197  0.0405 -0.0952 -0.1943
43856W        W86769   0.612  30.421   0.831 -0.0518  0.1575 -0.1584
43857W        W86770  29.748  29.348  21.060  0.0945  0.1096 -0.2175
43858W        W86771  33.426   4.214   2.967 -0.0953 -0.0189  0.1785
43859W        W86772  32.419  33.441  24.469 -0.0750  0.1747 -0.0636
43860W        W86773  24.856   2.993  21.250 -0.0809 -0.0285  0.3126
43861W        W86774   5.242   7.794  16.609 -0.0758  0.0247 -0.3567
43862W        W86775  33.007   1.443   1.531 -0.0845 -0.1231 -0.1687
43863W        W86776  22.142  19.158  25.939  0.0864 -0.2091 -0.1773
43864W        W86777  26.477   0.541  21.734  0.1748 -0.0587 -0.0307
43865W        W86778   5.442  28.607  15.926 -0.2323  0.1009 -0.1171
43866W        W86779   0.480  22.646  15.463 -0.2829 -0.1335  0.1042
43867W        W86780   2.791  29.628  18.583  0.3429  0.1024  0.0482
43868W        W86781   1.284  30.018  17.418  0.2980 -0.0928 -0.0525
43869W        W86782  25.018  30.550   6.617 -0.1544  0.0208 -0.0842
43870W        W86783  24.560   4.028  21.079 -0.1183 -0.1647  0.1318
43871W        W86784   2.566  34.360  20.743  0.3743 -0.0800 -0.0962
43872W        W86785  15.926  22.573  19.702 -0.1230 -0.2162 -0.1676
43873W        W86786  33.458  33.304  27.962 -0.1397  0.0719 -0.4173
43874W        W86787  26.824  33.795  15.345  0.0130 -0.2368  0.0215
43875W        W86788  30.076  23.711  14.242  0.2176  0.1868  0.0981
43876W        W86789  31.587  22.789  18.635  0.1245 -0.1767  0.4792
43877W        W86790  23.585  29.341  21.339  0.0216 -0.1406  0.0083
43878W        W86791   5.306   3.189  29.055  0.1985  0.1656  0.0168
43879W        W86792  21.207  32.844  18.734 -0.3526 -0.0097 -0.4247
43880W        W86793  22.000  27.253  18.996  0.0268  0.0316  0.0320
43881W        W86794  29.461  32.837  18.327  0.0182 -0.1415 -0.1284
43882W        W86795  26.080  25.761  20.589 -0.1762  0.1067  0.2705
43883W        W86796  26.122  28.447  16.146 -0.1482 -0.1695 -0.0012
43884W        W86797   0.686  30.964  23.938 -0.1985 -0.1287  0.1853
43885W        W86798  30.664  24.482  14.102 -0.3438  0.1393  0.1348
43886W        W86799  21.010   6.886  24.371  0.5626  0.0519  0.0113
43887W        W86800  15.716  26.844  24.358  0.3223 -0.0585 -0.0524
43888W        W86801  34.276  26.748  14.505  0.0165 -0.0371  0.0812
43889W        W86802  28.837  22.586  13.399 -0.0000  0.1893 -0.3414
43890W        W86803  22.640   1.100  16.734 -0.4341 -0.0685  0.1712
43891W        W86804  17.304  28.004  16.097 -0.3622 -0.4390 -0.1363
43892W        W86805  33.668  28.067  16.486 -0.1266 -0.0810 -0.0532
43893W        W86806   0.882  22.590  22.454 -0.0516  0.2862 -0.0723
43894W        W86807   0.066  18.578  29.494  0.0547  0.1948  0.0754
43895W        W86808  29.378   0.530  15.413 -0.0307  0.5144 -0.0380
43896W        W86809  21.881   8.881  22.016 -0.0561  0.0341 -0.2096
43897W        W86810  30.364  34.397  16.365  0.2735 -0.4539  0.0018
43898W        W86811  28.438  33.371  20.837  0.0285  0.1523  0.1771
43899W        W86812   1.813  27.478  15.349 -0.0898 -0.1946  0.3233
43900W        W86813  32.525  32.040  15.948 -0.2109  0.0868  0.1302
43901W        W86814  29.870   4.452   0.148  0.1001 -0.2585 -0.0502
43902W        W86815   3.288   0.897  19.735 -0.0804 -0.1805 -0.1218
43903W        W86816  29.739  22.251  14.102 -0.1440  0.1709  0.1894
43904W        W86817  29.012  31.371   1.467 -0.0416  0.0732  0.2871
43905W        W86818   3.374  33.103  18.057 -0.0421  0.2569  0.0692
43906W        W86819  30.570  22.749  19.950  0.0316  0.1753  0.2542
43907W        W86820  27.999  28.148  25.387 -0.3089  0.1321 -0.0450
43908W        W86821   2.117  29.087  18.615 -0.1975 -0.0534  0.0505
43909W        W86822   3.396  18.311  18.204 -0.0593 -0.2842 -0.1805
43910W        W86823   3.584   6.299  19.001  0.0219 -0.1423 -0.2688
43911W        W86824  31.322   4.420  29.419  0.1141 -0.0717 -0.0909
43912W        W86825  28.545   0.675  20.361  0.0424 -0.2661  0.1512
43913W        W86826  32.387  25.237  15.270 -0.0423 -0.0544  0.0004
43914W        W86827  29.593  21.116  15.398  0.0252  0.2185  0.1742
43915W        W86828   0.780   0.627  22.028 -0.1867 -0.2338 -0.2050
43916W        W86829   2.134  31.286  15.777 -0.0700 -0.2054  0.0691
43917W        W86830   1.507   0.185  18.560  0.0898 -0.3451  0.2186
43918W        W86831  26.375  31.850  18.448  0.1265 -0.0386  0.0720
43919W        W86832  25.306   0.822  17.573 -0.2396 -0.3113 -0.1508
43920W        W86833  26.653  21.098  20.688 -0.0789 -0.0411  0.1918
43921W        W86834  34.363  22.942  16.482 -0.3992 -0.4470 -0.0066
43922W        W86835  32.235  22.986  16.835  0.1147  0.1918  0.0661
43923W        W86836  32.767  33.707  20.492 -0.1369  0.2442 -0.1209
43924W        W86837  10.874  27.774  16.538 -0.2541  0.3135 -0.1973
43925W        W86838  25.568  16.238  18.322 -0.1584  0.4246  0.1490
43926W        W86839   8.202  34.337  18.250  0.3415 -0.2574  0.0689
43927W        W86840  23.000  21.059  27.814  0.0134  0.0493  0.3485
43928W        W86841  28.214  26.015  18.300 -0.1176 -0.0727 -0.4612
43929W        W86842   4.687   6.820  22.292  0.0623  0.0684 -0.1634
43930W        W86843   0.227   0.620   1.465 -0.2596  0.0231  0.3595
43931W        W86844  25.428   0.764  20.410  0.0249  0.2889  0.0041
43932W        W86845  28.260   2.396  25.272 -0.0620  0.0353  0.1041
43933W        W86846  28.012   3.212  16.939  0.1613 -0.0309  0.1614
43934W        W86847   4.025  31.631  19.213  0.0053 -0.1515  0.2076
43935W        W86848  32.481  26.171  14.676  0.1123  0.1532 -0.0045
43936W        W86849  29.705  21.177  19.019  0.0461 -0.0451 -0.3152
43937W        W86850  31.150  30.068   2.118  0.1516  0.0512 -0.0050
43938W        W86851  19.723  33.702  18.243  0.1351  0.0284  0.2998
43939W        W86852  29.767  24.135  14.005  0.0495 -0.1192  0.2827
43940W        W86853  24.866  26.110  13.647  0.0475  0.2154 -0.0354
43941W        W86854   0.183   5.166  27.342 -0.0968 -0.0712  0.0876
43942W        W86855  33.868  21.029  13.864  0.0606 -0.2289  0.0756
43943W        W86856  25.599  29.670  15.195  0.1478  0.1226 -0.1877
43944W        W86857  22.545   7.267  23.672  0.0373 -0.1722 -0.1151
43945W        W86858   1.969  28.051  17.570 -0.0998 -0.0354 -0.1249
43946W        W86859  23.380  34.484  22.917 -0.2247  0.0259  0.0038
43947W        W86860  32.005  32.203  16.373  0.1876  0.2206 -0.0826
43948W        W86861  33.365  33.782  24.165  0.2363 -0.0042 -0.2133
43949W        W86862  28.364   4.332  17.235  0.0137  0.0126 -0.1077
43950W        W86863  23.790   4.679  22.335 -0.1507 -0.0115 -0.0216
43951W        W86864   2.900  27.623  14.380  0.1437 -0.1175 -0.1467
43952W        W86865  23.151  29.106  16.613  0.0747  0.0684  0.2082
43953W        W86866  27.578  29.453  19.473  0.2997 -0.0748  0.3115
43954W        W86867  26.607  32.789  16.656 -0.0899 -0.3226  0.1148
43955W        W86868  30.995  29.152  20.256  0.2056  0.0904  0.2934
43956W        W86869  31.456  21.501  25.522 -0.2951  0.0400  0.1523
43957W        W86870   2.093   1.982  19.185  0.0296  0.0521 -0.1862
43958W        W86871  25.290  28.084  15.472  0.0536  0.1548  0.0510
43959W        W86872   4.215  28.343  15.352 -0.1240 -0.2088  0.3519
43960W        W86873   2.702   4.985   0.937  0.1770  0.0917  0.2978
43961W        W86874  27.997   9.665  26.933 -0.0510 -0.1435 -0.1684
43962W        W86875   0.647  24.177  19.310 -0.3404  0.3689 -0.0885
43963W        W86876  32.282  32.957  16.890 -0.0168 -0.1862 -0.0717
43964W        W86877  29.798  27.876  15.416  0.3594  0.1648  0.1034
43965W        W86878   4.764  34.010  16.972  0.1681 -0.1991  0.1202
43966W        W86879  31.423   1.858  25.541 -0.0146  0.0315 -0.1571
43967W        W86880  29.307   1.908   1.989  0.0211 -0.0822 -0.0034
43968W        W86881   6.310  27.604  18.120 -0.0026 -0.3430 -0.0438
43969W        W86882  26.684   1.442  15.708 -0.0837 -0.2226  0.1131
43970W        W86883  26.940   2.403  15.749  0.2218  0.1106 -0.3170
43971W        W86884   1.704  29.488  19.490 -0.2612  0.0572 -0.0841
43972W        W86885   2.238   0.849  22.939 -0.2384  0.0412  0.1940
43973W        W86886  31.109  29.043  14.733 -0.2819 -0.0698  0.0928
43974W        W86887  34.019  29.777  19.847  0.1236 -0.0107  0.0226
43975W        W86888  23.483  19.357  13.385 -0.0050 -0.1515 -0.0292
43976W        W86889  24.694   9.357   2.180  0.3122 -0.3458 -0.2570
43977W        W86890  24.932  23.058  25.548 -0.3520 -0.2393 -0.0561
43978W        W86891  31.192  21.857  26.712  0.3965  0.1964 -0.3653
43979W        W86892   9.367  23.248  20.030 -0.2680  0.2162  0.4275
43980W        W86893  32.577   2.218  16.194  0.2176 -0.5842 -0.1760
43981W        W86894  30.707  18.758  23.617  0.0426 -0.0396 -0.0332
43982W        W86895  25.891  32.869  18.938  0.3888  0.2249 -0.3493
43983W        W86896  30.908  30.610  19.379 -0.2207  0.0417 -0.2969
43984W        W86897  29.018  19.569  17.708  0.1200  0.2315 -0.1003
43985W        W86898  34.101  26.625  17.661  0.3747 -0.0920 -0.1718
43986W        W86899  29.255  26.405  21.140 -0.0047  0.2015  0.0981
43987W        W86900  25.216  26.221  23.651 -0.0427  0.3661 -0.3237
43988W        W86901  29.889  32.385  24.303  0.0098  0.1770 -0.2700
43989W        W86902  28.588  33.824  20.125  0.2682 -0.1029 -0.1619
43990W        W86903   5.013   0.722  22.422  0.0246  0.0993  0.0565
43991W        W86904  32.170   6.922  16.736 -0.0689 -0.0434  0.3556
43992W        W86905  34.313  32.970  25.666 -0.2272 -0.0788 -0.2435
43993W        W86906  30.525  22.501  20.966 -0.1215 -0.1570  0.1809
43994W        W86907  25.096  24.428  24.184  0.2083  0.0696  0.0224
43995W        W86908   1.267   0.256  17.355 -0.4601 -0.1468 -0.0427
43996W        W86909   0.904  23.974  21.824 -0.2456  0.0875 -0.0578
43997W        W86910  32.042  19.664  16.776  0.1674  0.1736 -0.3080
43998W        W86911  27.101   1.041  17.878 -0.0452 -0.4432 -0.0698
43999W        W86912  34.246  21.960  21.218  0.0958  0.1592  0.0757
44000W        W86913   4.075  21.585   2.079  0.2832  0.1646 -0.3942
44001W        W86914  25.531   6.017  22.552  0.1734  0.0745 -0.3036
44002W        W86915  20.587  14.140  12.247 -0.3121 -0.0011 -0.0206
44003W        W86916  33.356   8.776  25.326  0.1679  0.0418 -0.3350
44004W        W86917  34.330  14.175  18.601 -0.0411 -0.0479 -0.3142
44005W        W86918  22.249  27.787  14.623  0.1700  0.1383 -0.3165
44006W        W86919   0.082   1.309  19.530 -0.1026 -0.1496  0.1681
44007W        W86920  32.754   0.450  27.661 -0.0862  0.0298  0.0752
44008W        W86921  29.753  27.660  18.672  0.0770  0.0336 -0.2449
44009W        W86922  32.102  15.333  23.151  0.0909  0.0737  0.2537
44010W        W86923  21.924   4.554   2.631  0.3098  0.0137  0.2466
44011W        W86924   3.044  30.015  19.333  0.1051  0.3303  0.2732
44012W        W86925   3.582  31.076  21.390  0.1800 -0.0639  0.2636
44013W        W86926  25.407  23.096  23.838 -0.1253 -0.2892 -0.2235
44014W        W86927  20.491  17.334  21.538  0.1026 -0.1140 -0.1814
44015W        W86928  24.172  18.132  14.482  0.2522  0.3592 -0.1422
44016W        W86929  22.800   4.233  18.249 -0.1174  0.2092  0.1031
44017W        W86930  31.552  17.540  19.875  0.0188 -0.2522  0.1697
44018W        W86931  22.129   9.706  24.276  0.0133 -0.0189 -0.1512
44019W        W86932  20.067  28.559  25.202 -0.0727  0.1449  0.0924
44020W        W86933  27.283   1.390  26.826  0.2056  0.0085  0.0047
44021W        W86934  18.822  27.928  22.668 -0.0380 -0.0784  0.1660
44022W        W86935  27.773   0.062  26.426 -0.1915  0.0292 -0.1685
44023W        W86936   3.420  29.594  16.752  0.2019 -0.0193 -0.1050
44024W        W86937   3.447   5.052  20.852  0.1477  0.1908  0.1392
44025W        W86938  28.742   3.565  27.437 -0.0635 -0.0772  0.3445
44026W        W86939  29.308   4.682  23.473  0.0149  0.2478 -0.0144
44027W        W86940  25.903  29.825  14.429  0.2193 -0.0661  0.1803
44028W        W86941   0.597   2.972  21.517  0.2543 -0.0108  0.1058
44029W        W86942  28.539  10.462  27.832  0.0555 -0.2590  0.3583
44030W        W86943  33.496  29.069  15.090 -0.3970 -0.2430 -0.4089
44031W        W86944  18.140  23.810  17.381  0.4958 -0.0930  0.0749
44032W        W86945  30.983   0.815  21.581  0.0905 -0.6589 -0.1532
44033W        W86946   0.673  26.784  22.976 -0.3529 -0.1821 -0.0761
44034W        W86947  28.919   0.876  24.744  0.2994  0.1343 -0.3101
44035W        W86948  28.701  32.330  20.222  0.1148  0.0743 -0.1835
44036W        W86949  26.796  20.846  26.342  0.1383  0.1434  0.1141
44037W        W86950  31.780  31.392  28.823 -0.0365  0.0153  0.0362
44038W        W86951  24.458  11.321  20.224 -0.0208 -0.0242 -0.0652
44039W        W86952  30.126  14.835  24.303 -0.3133 -0.1391  0.0669
44040W        W86953  22.491  29.956  13.677  0.1709 -0.0620  0.0127
44041W        W86954   1.233  19.600  24.426 -0.1169 -0.1050 -0.0433
44042W        W86955  32.059  23.994  20.378  0.0562 -0.1201  0.0302
44043W        W86956  24.884   4.181  22.960  0.3435 -0.0819  0.1226
44044W        W86957  34.031  30.561  14.735  0.2186 -0.0235  0.0254
44045W        W86958  33.115  26.007  27.395  0.2090  0.1145  0.1262
44046W        W86959   0.040  14.679  20.585 -0.2032 -0.3425 -0.0206
44047W        W86960  29.654  32.176  25.077 -0.1926 -0.1507  0.2806
44048W        W86961  23.566  13.480  28.244  0.2039  0.1156 -0.2549
44049W        W86962  20.788  32.947  27.600  0.2420  0.0458 -0.2948
44050W        W86963  30.389  31.558  14.968  0.2572  0.1134 -0.2121
44051W        W86964   8.472  27.010  23.592  0.2008  0.2395  0.0341
44052W        W86965  29.198   3.046  24.231 -0.1201  0.1571 -0.0315
44053W        W86966  24.987  27.432  21.720 -0.4182  0.2603  0.1058
44054W        W86967  21.146  21.096  19.877  0.0547 -0.0229 -0.1013
44055W        W86968  31.145  14.617  26.660  0.2331  0.1948 -0.1076
44056W        W86969  28.685  23.857  22.828 -0.3464 -0.1103  0.0933
44057W        W86970  28.253   1.662  24.619  0.3888  0.1432 -0.0413
44058W        W86971  30.978   1.039   1.411 -0.1910  0.0737 -0.0931
44059W        W86972  26.473  31.438  17.119  0.0772 -0.1212  0.0819
44060W        W86973  13.543  29.229  16.692  0.0678  0.0059  0.1639
44061W        W86974  31.827  29.177  21.977 -0.0568  0.1437 -0.2295
44062W        W86975   1.187  28.696   1.076  0.1744 -0.0430  0.1731
44063W        W86976  16.880  28.890  21.365 -0.2926 -0.1139 -0.2960
44064W        W86977  28.267  29.068  15.310 -0.0233 -0.0958  0.0116
44065W        W86978  21.255   2.134  14.224  0.1454  0.2681 -0.1337
44066W        W86979  29.084   2.941  22.173 -0.3856 -0.2675 -0.0925
44067W        W86980   4.984  26.221  19.287 -0.1329  0.1840  0.0962
44068W        W86981   1.158  19.638  21.924 -0.1756 -0.1949  0.3467
44069W        W86982  30.203  28.455  21.263  0.0806  0.0437 -0.0712
44070W        W86983  25.924   0.486  15.328  0.0123  0.0794 -0.2905
44071W        W86984  28.529  22.289  14.019  0.0584  0.3656  0.1972
44072W        W86985  27.205  30.416  20.392 -0.1688 -0.2655  0.0953
44073W        W86986   0.446  25.876  22.453  0.2044 -0.2350 -0.4029
44074W        W86987   6.311  33.568  18.342  0.1001 -0.4056  0.1794
44075W        W86988  33.478   0.181   1.968 -0.0002  0.0855  0.2550
44076W        W86989  21.759   9.619  25.391 -0.0382 -0.0046 -0.3604
44077W        W86990  30.819   0.933  22.046  0.0529  0.1629  0.1186
44078W        W86991  25.789  30.432  15.604  0.1711  0.0877 -0.2158
44079W        W86992   3.136  13.558  21.443 -0.1994 -0.1923 -0.1906
44080W        W86993  23.832  23.223  15.833 -0.0885  0.2795 -0.0483
44081W        W86994  24.711  18.293  14.046 -0.2184 -0.2127 -0.5001
44082W        W86995  25.191  26.230  17.163  0.0685  0.1467  0.0793
44083W        W86996  30.746  16.896   2.360 -0.1323 -0.2196  0.0074
44084W        W86997  30.408  27.201  27.196  0.3338  0.2033 -0.0997
44085W        W86998  28.205  32.166  18.428  0.1053  0.3716  0.1071
44086W        W86999  24.278  26.136  20.239  0.1558 -0.0656  0.5240
44087W        W87000  31.176   1.963  17.729 -0.4123  0.2543 -0.0753
44088W        W87001  27.115  31.262  23.097 -0.0638 -0.3296 -0.0231
44089W        W87002  27.747  19.003  13.107  0.1235 -0.0524 -0.0327
44090W        W87003  28.046  25.558  22.470 -0.0333  0.0275  0.0353
44091W        W87004   1.683  31.874  19.475 -0.1404 -0.1951  0.1308
44092W        W87005  29.105  23.547  16.378 -0.0451  0.2830 -0.1892
44093W        W87006  21.109  25.835  20.394 -0.2307  0.1169  0.4379
44094W        W87007  30.275  33.644  19.302 -0.0731 -0.0404 -0.1761
44095W        W87008  27.361  23.232  26.483  0.0595 -0.1740  0.3520
44096W        W87009  23.470  23.936   0.788 -0.1590 -0.2665  0.1193
44097W        W87010   2.664  32.802  21.051  0.0830 -0.2562 -0.0726
44098W        W87011  30.489  32.769  20.033 -0.1192  0.3189  0.2761
44099W        W87012  22.753  27.735  21.136  0.1100 -0.3507 -0.1241
44100W        W87013  28.156  34.077  15.196 -0.2966  0.0757  0.2962
44101W        W87014  28.899  22.881  22.260  0.1945 -0.0887 -0.4025
44102W        W87015  33.989   0.273  21.085 -0.0478  0.4715  0.1700
44103W        W87016  24.610  18.905  16.684  0.2014 -0.1942  0.0021
44104W        W87017  25.396  29.648  24.455 -0.0635 -0.2712 -0.1168
44105W        W87018  27.680  30.618  16.804 -0.0400 -0.0756 -0.0791
44106W        W87019  30.300  30.227  21.849 -0.0536 -0.1226 -0.0114
44107W        W87020  25.064  13.508  16.497  0.1066  0.0004 -0.3000
44108W        W87021  27.075  28.346  22.099 -0.0776 -0.1111 -0.1410
44109W        W87022  27.815   3.360  18.524 -0.0653  0.0411 -0.1308
44110W        W87023  25.546   3.022  15.486  0.2055  0.0565  0.0248
44111W        W87024  27.291  28.359  24.799 -0.2399  0.3207 -0.2789
44112W        W87025  31.552  31.494  23.784  0.1234  0.0633 -0.2185
44113W        W87026   2.169   1.499  28.965  0.1706 -0.1687 -0.0629
44114W        W87027  25.730  28.867  23.694  0.0706 -0.1095  0.1390
44115W        W87028   1.375  25.415  17.357  0.2121  0.1669  0.2933
44116W        W87029  24.005  24.601  20.725  0.1915 -0.3138 -0.1739
44117W        W87030  31.824  27.507  27.057 -0.1418  0.3959 -0.0329
44118W        W87031  23.855   2.253  20.740 -0.0475 -0.1975  0.0949
44119W        W87032   3.201  31.343  16.414 -0.0176  0.0342 -0.1272
44120W        W87033  29.866  32.151  29.638 -0.3435  0.0232 -0.1107
44121W        W87034  34.475   5.661  19.533  0.1159  0.1467 -0.1639
44122W        W87035  30.522  21.454  23.969  0.3902  0.1696  0.0878
44123W        W87036  24.236   6.020  18.239  0.3852  0.0038  0.2964
44124W        W87037   5.469   3.443   2.185  0.0675  0.0431  0.2104
44125W        W87038   1.658  22.378  20.426  0.0197  0.0849  0.1670
44126W        W87039   1.556  25.326  21.083  0.2913 -0.0617  0.0858
44127W        W87040  23.635  21.401  16.283  0.1108 -0.0666 -0.1893
44128W        W87041   0.004  23.629  14.831  0.2534  0.2591  0.1167
44129W        W87042  27.128  27.599  24.088 -0.0734 -0.2686  0.0524
44130W        W87043  26.489   2.062  21.071 -0.3334 -0.0437 -0.1774
44131W        W87044  32.314  27.051   0.305  0.1208  0.0863  0.1443
44132W        W87045  31.543  25.092  21.972  0.0422  0.5727  0.0532
44133W        W87046  21.504  26.454  20.741 -0.0708 -0.0929 -0.2332
44134W        W87047   4.645  26.778   5.029 -0.0195 -0.1059 -0.1062
44135W        W87048  22.298  24.108  16.119 -0.1593 -0.4436  0.0549
44136W        W87049  29.265  30.832  17.325  0.0462 -0.5406  0.1451
44137W        W87050  32.481  25.879  20.536  0.0115  0.0512  0.0939
44138W        W87051  31.826  22.709   2.483 -0.3280 -0.0589 -0.0713
44139W        W87052  22.220   4.997  24.975 -0.0310 -0.0923 -0.0646
44140W        W87053  34.496  34.186  19.002 -0.1466 -0.2378 -0.2250
44141W        W87054   4.652  26.424  23.305  0.0128  0.0957  0.2608
44142W        W87055  27.958  26.293  13.999 -0.1165 -0.2989  0.4105
44143W        W87056  30.765  24.543  15.832  0.0492 -0.1917 -0.0143
44144W        W87057  21.078   1.668  14.598  0.0255 -0.3151 -0.0878
44145W        W87058  26.924   2.392  22.309  0.0793  0.1808 -0.1179
44146W        W87059  32.531  27.036  17.293 -0.0273 -0.0465  0.1976
44147W        W87060   5.511   2.135   5.052 -0.2954  0.3053 -0.1722
44148W        W87061   0.842  22.325   5.126 -0.0966  0.1978 -0.1668
44149W        W87062  20.664   4.323   3.357 -0.0658 -0.1420  0.1824
44150W        W87063  26.350   1.500  16.884  0.3348  0.0983  0.2524
44151W        W87064   1.076  32.931  14.700 -0.2040  0.1816 -0.0404
44152W        W87065  33.189   2.785  18.526 -0.1339 -0.0841  0.1037
44153W        W87066  24.773  26.599  26.906 -0.1016  0.0942 -0.1861
44154W        W87067  30.677  34.254  28.933  0.3624 -0.0518 -0.0759
44155W        W87068  31.338  33.317  27.369  0.2709 -0.2413  0.2218
44156W        W87069  24.896  25.346  15.767  0.1764 -0.0689 -0.1483
44157W        W87070  32.437   4.740  26.524  0.2656 -0.0461  0.1647
44158W        W87071  29.903  17.085  20.288 -0.2312  0.2800  0.2154
44159W        W87072  29.490  28.891   5.376 -0.0054  0.2859 -0.3058
44160W        W87073  31.828  17.611  17.106 -0.0886 -0.3129  0.1931
44161W        W87074  22.892  23.928  25.792 -0.2169  0.4535 -0.1623
44162W        W87075  33.259  32.340  24.399  0.0637  0.1216 -0.0437
44163W        W87076  23.821  29.462  15.914 -0.0743 -0.1403  0.1958
44164W        W87077  24.841  24.605  21.830  0.2628 -0.1866 -0.2037
44165W        W87078  26.701   7.137  26.014  0.0301  0.0727 -0.1035
44166W        W87079  33.224  27.185  13.780 -0.0924 -0.0267 -0.1495
44167W        W87080  17.370  29.594  28.088 -0.0995  0.2114  0.2586
44168W        W87081  27.745  21.002  23.008  0.1206 -0.2925  0.1172
44169W        W87082  24.968  33.765   0.292  0.1764 -0.5174  0.0385
44170W        W87083  25.355  27.316  16.470 -0.0223 -0.0979 -0.1602
44171W        W87084   5.482  33.156  20.169  0.0319  0.3388  0.0001
44172W        W87085  16.171  25.807   1.631 -0.1785  0.0979 -0.0465
44173W        W87086  30.094  27.165  27.606  0.4094 -0.2219 -0.0302
44174W        W87087  24.612  31.491  16.088  0.2704  0.0379  0.1213
44175W        W87088  27.087  30.405  18.912 -0.1778  0.2654 -0.2681
44176W        W87089  23.532   3.214  22.413  0.2086 -0.1614 -0.2139
44177W        W87090  23.525  29.688  27.744 -0.1716  0.1861 -0.0143
44178W        W87091  32.404  29.849  22.831 -0.0754 -0.1385 -0.1789
44179W        W87092   1.687  33.234  23.557 -0.0587  0.0136  0.2111
44180W        W87093  33.653  17.604  15.702 -0.1116 -0.0981 -0.5683
44181W        W87094  27.775  32.774  25.952 -0.2088  0.0547 -0.0133
44182W        W87095  31.137  32.399  16.597  0.2383  0.1095 -0.2242
44183W        W87096  32.054  34.374  16.424  0.2558  0.1141 -0.0475
44184W        W87097   2.328  22.824  29.485  0.0847  0.2794 -0.1186
44185W        W87098  17.844  25.901  18.316  0.0712 -0.0762  0.0578
44186W        W87099  33.389  28.025  25.113  0.1820 -0.0428 -0.0124
44187W        W87100   6.764  23.394  18.740  0.0886  0.0883  0.0976
44188W        W87101  31.652   3.051  15.927 -0.0193  0.0337  0.1522
44189W        W87102  29.161   0.488  15.891 -0.4805 -0.0583  0.3438
44190W        W87103  29.612  31.048  14.081  0.0147 -0.2509  0.1800
44191W        W87104  26.460  29.795  24.041  0.0389 -0.1944 -0.2074
44192W        W87105  25.239  31.170  21.273 -0.3500 -0.4123 -0.2470
44193W        W87106  25.338  31.160  17.300  0.1528 -0.2350 -0.1645
44194W        W87107  28.420  34.378  19.242 -0.3008 -0.0062  0.1490
44195W        W87108  26.470  24.618   0.429 -0.1041 -0.0728  0.1075
44196W        W87109  33.713  27.185  26.954  0.0562  0.2908  0.1933
44197W        W87110   4.459  27.467  23.023  0.2115 -0.0971  0.1637
44198W        W87111  25.290  21.898  22.344 -0.0541 -0.0619  0.2482
44199W        W87112  30.402  22.507  15.754 -0.0989  0.1426 -0.2538
44200W        W87113   3.775  28.668  21.787 -0.3101  0.0384  0.1379
44201W        W87114  27.158  31.516  22.670 -0.0548  0.0504 -0.0938
44202W        W87115  30.099  30.253  22.403 -0.0758 -0.2705 -0.1577
44203W        W87116  34.132   3.687   2.418 -0.0418 -0.3176 -0.0830
44204W        W87117  25.828  33.111  26.716  0.0196 -0.0828  0.0030
44205W        W87118   0.869  13.196  24.893  0.0794  0.0791 -0.1789
44206W        W87119   1.344   2.188  27.616  0.0731  0.1055 -0.1278
44207W        W87120  27.657  32.522  15.354 -0.2403  0.0338 -0.1585
44208W        W87121   0.925  26.744  15.948 -0.0509  0.2138  0.1220
44209W        W87122  30.914   9.100   3.357  0.2837 -0.4697  0.3911
44210W        W87123  27.835  22.934  21.034 -0.3888 -0.0200  0.1994
44211W        W87124  24.696  21.485  19.722 -0.2111 -0.1720  0.1622
44212W        W87125   7.215  26.147  20.751 -0.0618  0.0118 -0.0302
44213W        W87126  26.042   2.841  17.952 -0.0671 -0.2271  0.2234
44214W        W87127  25.623   2.244  17.022 -0.1995 -0.1379 -0.1720
44215W        W87128  28.906  28.461  19.813  0.2218 -0.1612  0.0359
44216W        W87129  23.503  24.992  13.209 -0.0305 -0.1176  0.2354
44217W        W87130   6.935  23.635  20.174  0.1825 -0.1366 -0.0603
44218W        W87131  32.118  28.941  19.854  0.1032 -0.5355 -0.1572
44219W        W87132  33.186  26.606  20.923 -0.0371  0.5354  0.1227
44220W        W87133  18.806  18.550  11.386 -0.0799 -0.4552  0.3436
44221W        W87134  30.867   2.402  22.916 -0.1431 -0.0286 -0.0639
44222W        W87135  18.803  25.024  22.953  0.0863  0.4527  0.0941
44223W        W87136  31.423   5.124  26.973 -0.1048  0.2558  0.1664
44224W        W87137  30.450   4.410  23.806 -0.1452  0.1885 -0.1542
44225W        W87138  32.333  24.488  20.600 -0.1750 -0.2200 -0.1596
44226W        W87139  29.862  33.395  15.512  0.1214 -0.1804  0.1621
44227W        W87140  23.871  23.901   1.084  0.0470  0.0930  0.2727
44228W        W87141  25.773   3.792   0.211  0.1207  0.0951  0.0221
44229W        W87142  19.597  25.498  23.362 -0.0024  0.1303 -0.0120
44230W        W87143  29.915  22.424   7.397  0.2918 -0.1112  0.3407
44231W        W87144  32.089  23.732  18.627  0.0723  0.2661  0.0680
44232W        W87145   5.315   5.758  21.700  0.0149 -0.0283  0.0388
44233W        W87146   1.584   0.406  19.061  0.1938 -0.2811  0.0450
44234W        W87147  22.987  28.596  24.984  0.0437 -0.2460  0.4337
44235W        W87148  29.998  29.195  27.360 -0.2683 -0.5246 -0.1033
44236W        W87149  34.065  29.730  28.727 -0.0361  0.0419  0.2594
44237W        W87150  30.487  28.376  15.704  0.3395  0.1567 -0.0899
44238W        W87151  25.303   0.169  22.834 -0.4337 -0.1702 -0.2758
44239W        W87152  28.301  12.658  18.005  0.1031  0.0522 -0.0549
44240W        W87153  32.255  29.407  28.060  0.2877  0.4388  0.1329
44241W        W87154  22.077  29.163  25.975  0.2775  0.0565 -0.5426
44242W        W87155  28.189  27.238  28.643  0.0071 -0.0921 -0.3342
44243W        W87156  32.780   1.486  18.208 -0.1698  0.0673 -0.0641
44244W        W87157  30.420  26.435  15.686 -0.1362  0.1724 -0.0051
44245W        W87158  27.725  26.423  21.072 -0.1473  0.1910  0.2208
44246W        W87159  34.247  21.745  25.798  0.1657 -0.1843  0.0465
44247W        W87160  18.418   2.708  21.334 -0.2039  0.3604 -0.0748
44248W        W87161  19.551  30.333  25.486  0.0321  0.0375 -0.0503
44249W        W87162  30.413  34.389  18.556  0.4536 -0.2603  0.1369
44250W        W87163  32.159  25.939   2.461  0.3173  0.2862 -0.0880
44251W        W87164  30.054   0.092   1.354 -0.0379  0.1923 -0.0064
44252W        W87165  31.679  23.757  21.581 -0.1900 -0.2435 -0.1090
44253W        W87166   0.135  31.278  23.434  0.1008 -0.6104 -0.0279
44254W        W87167   7.462  33.101  21.592  0.0155  0.1727 -0.0828
44255W        W87168  29.020  32.767  16.809 -0.2864  0.1982  0.2463
44256W        W87169  23.396  28.825  13.462 -0.0700  0.0669  0.3588
44257W        W87170  30.081   9.516  21.796  0.2079 -0.1479  0.0254
44258W        W87171  29.420  31.006  18.265 -0.1021 -0.2113 -0.0971
44259W        W87172   6.669  26.629  23.610  0.0673  0.3319  0.0203
44260W        W87173  21.792  23.031  14.700 -0.0251 -0.3345  0.2017
44261W        W87174  28.257   2.966  19.451 -0.3867 -0.1687  0.0997
44262W        W87175  27.977   5.061   1.895 -0.0453 -0.0960 -0.2112
44263W        W87176  32.714  22.161  15.745  0.1320 -0.0655 -0.0497
44264W        W87177  25.187  24.901  24.321  0.0755  0.0818 -0.0675
44265W        W87178   4.030  33.938  21.802  0.2166  0.0425  0.1889
44266W        W87179  34.481  28.161  19.231 -0.0592  0.0924  0.2038
44267W        W87180   2.589  28.648  24.980 -0.0803 -0.0037  0.1409
44268W        W87181  23.546  27.438  18.136 -0.3822  0.2258 -0.0092
44269W        W87182  18.821  23.482  28.895  0.2382 -0.1781  0.0199
44270W        W87183  28.368   1.934  26.739 -0.2186 -0.0888  0.0132
44271W        W87184  20.137  24.138  24.868 -0.0669  0.0406  0.0637
44272W        W87185   0.166   2.032  21.492  0.0541  0.0890 -0.2330
44273W        W87186  33.382   7.705  19.911  0.1294 -0.0479  0.0623
44274W        W87187  25.562  19.176  22.116 -0.1368 -0.1432 -0.0098
44275W        W87188   5.130  30.731  24.022 -0.1386  0.0094 -0.2095
44276W        W87189  32.749  21.872  20.300 -0.1001 -0.0658  0.0823
44277W        W87190  32.544   0.004  25.792 -0.2139  0.1648  0.0611
44278W        W87191  11.593  22.368  22.599 -0.1876  0.2533  0.2278
44279W        W87192  32.045  33.258  16.307  0.0131  0.2306  0.0180
44280W        W87193  31.923  32.880  21.349 -0.1499 -0.0498  0.1836
44281W        W87194  21.028  19.729  16.903 -0.0201  0.2837 -0.1277
44282W        W87195  32.539   2.172   7.029  0.1233  0.0095 -0.0178
44283W        W87196   2.548  27.570  20.907 -0.2671  0.1656 -0.2468
44284W        W87197  24.489  27.995  25.470  0.3263 -0.4582 -0.2147
44285W        W87198  32.325  29.185  21.344  0.0776  0.2190 -0.0445
44286W        W87199   0.318  30.457  24.754 -0.3142  0.2034 -0.0875
44287W        W87200  23.129  31.326  26.692 -0.1068 -0.0107 -0.4374
44288W        W87201  23.203   4.677  22.309  0.0853 -0.0865  0.1426
44289W        W87202  30.664  11.486  23.780 -0.1858  0.2229 -0.0519
44290W        W87203  32.856  31.445  22.917  0.0499  0.1309  0.2302
44291W        W87204   7.822  33.338  24.735  0.5320 -0.2228  0.0183
44292W        W87205   1.367  33.638  19.585 -0.1837 -0.1364  0.1553
44293W        W87206  27.265   2.638  24.279 -0.3641  0.0005 -0.1475
44294W        W87207  10.695  33.766  18.910 -0.1857  0.0528  0.0724
44295W        W87208  21.821  32.701  26.881  0.0282  0.0355 -0.0335
44296W        W87209  23.260  30.082  22.264 -0.3646 -0.1279 -0.5182
44297W        W87210  15.043  34.188  24.233  0.0712  0.0969  0.2161
44298W        W87211  24.390  32.619  15.288 -0.0851  0.1384  0.0061
44299W        W87212  29.830   0.050  21.020  0.0292 -0.1274 -0.1312
44300W        W87213  32.391  31.443  16.789 -0.1521  0.0227 -0.2026
44301W        W87214   1.254  31.783  15.740 -0.0759 -0.0845 -0.2120
44302W        W87215   6.597  30.792  20.117 -0.0311 -0.2342 -0.0094
44303W        W87216  30.955  11.963  28.083 -0.1840 -0.1027  0.0635
44304W        W87217   0.521  23.380  16.024  0.0753  0.1332  0.1757
44305W        W87218  33.338  19.003  18.546 -0.0179 -0.0677  0.0014
44306W        W87219   4.535  32.555  29.235  0.0875 -0.1921  0.1071
44307W        W87220   7.217  32.457  17.264  0.0794 -0.0295  0.0942
44308W        W87221   0.342  33.390  28.610  0.2283 -0.3708  0.1683
44309W        W87222  27.838   1.888  16.423  0.1214 -0.0767  0.0130
44310W        W87223  31.207  34.063  15.301  0.1428  0.1877  0.1047
44311W        W87224  28.408  31.377   4.526 -0.0897  0.0610 -0.3504
44312W        W87225   0.541  32.726   1.277  0.0050 -0.0168  0.0852
44313W        W87226  31.238  21.027  23.601  0.1855  0.2449 -0.2940
44314W        W87227   0.276  28.523  14.047  0.1048  0.2540 -0.2161
44315W        W87228   1.857   5.427  25.538 -0.3932  0.4067  0.1891
44316W        W87229  24.452   6.907  22.250 -0.1210  0.0011 -0.0987
44317W        W87230  30.754  30.215  24.253  0.0357 -0.0647  0.3907
44318W        W87231  30.269  24.135  19.103 -0.1614 -0.0823  0.1295
44319W        W87232  30.155  25.896  21.507 -0.0906 -0.1646  0.0307
44320W        W87233   2.737   3.792  22.099 -0.2057  0.0345  0.1713
44321W        W87234  17.886  32.776  25.307  0.1007  0.1103  0.0661
44322W        W87235  31.409   4.291  22.874 -0.1996 -0.1739  0.2602
44323W        W87236  24.189  27.349  16.161  0.2029 -0.2283 -0.0575
44324W        W87237  29.947  30.452  15.820  0.2166  0.3054 -0.0777
44325W        W87238  26.021   9.161  16.404 -0.2572 -0.0278 -0.0774
44326W        W87239  25.024   0.376   2.385  0.0951 -0.0682  0.2068
44327W        W87240  33.462   0.192  23.478 -0.1005  0.1940  0.0451
44328W        W87241  30.982  29.758  27.415  0.0753 -0.1528 -0.0388
44329W        W87242  21.389   0.750  24.143 -0.1944  0.1882 -0.0244
44330W        W87243   1.147  19.918  21.399  0.1795 -0.0945  0.0236
44331W        W87244  31.739  31.475  20.177  0.0473  0.4850  0.1360
44332W        W87245  21.320  27.737  15.289 -0.0400  0.1501  0.0854
44333W        W87246  23.187  24.805  24.159 -0.1738  0.0304 -0.2131
44334W        W87247  32.057  26.235  28.008  0.1123  0.4174  0.0908
44335W        W87248   4.303  26.470  14.654  0.2126  0.0493 -0.0516
44336W        W87249  31.738   3.752  28.007 -0.0389  0.1148  0.2607
44337W        W87250  34.336  30.113   3.262 -0.0746 -0.2658  0.3893
44338W        W87251  30.788  26.291  18.408 -0.1667  0.0402 -0.2756
44339W        W87252  20.972  33.461  15.184  0.0992 -0.0230  0.0375
44340W        W87253  25.774  33.003  15.714 -0.1171  0.0435  0.0069
44341W        W87254  23.811  27.976  16.703 -0.3444 -0.0187  0.1392
44342W        W87255  15.111  11.753  16.389  0.4594 -0.7191  0.0430
44343W        W87256  33.770  25.176  28.227 -0.1877 -0.1785 -0.0582
44344W        W87257  32.059  23.487  20.694 -0.2155 -0.1173  0.2127
44345W        W87258  23.895  33.824  18.331 -0.0318  0.3187  0.1648
44346W        W87259   4.095   3.900  22.739 -0.1304 -0.1295 -0.0960
44347W        W87260  30.367   2.538  22.090  0.1221  0.2028  0.1817
44348W        W87261  31.423  31.461  22.130 -0.0352 -0.0196 -0.3297
44349W        W87262   4.648  32.138  26.157 -0.3024 -0.2230 -0.0577
44350W        W87263  25.942   5.038  16.933 -0.0840 -0.0369 -0.0191
44351W        W87264   2.148   0.409  16.746 -0.1180 -0.1053 -0.0302
44352W        W87265  23.720   2.691  28.455  0.2644  0.1802  0.0604
44353W        W87266  29.354  20.029  19.135 -0.0920 -0.1264 -0.2757
44354W        W87267   3.709  31.234  29.161 -0.2310  0.0987 -0.2712
44355W        W87268  30.903  32.032  24.046  0.1065  0.1261 -0.2126
44356W        W87269  27.152   5.102  15.185 -0.1613  0.0471  0.1034
44357W        W87270  23.593  23.226  24.541  0.1706 -0.1291  0.1634
44358W        W87271  27.726  27.146  18.238 -0.0941 -0.0312 -0.1551
44359W        W87272  27.615  30.039  16.137 -0.0967  0.0044 -0.2224
44360W        W87273  22.708  31.918  27.480 -0.1471 -0.0687  0.1745
44361W        W87274  26.510   3.533  16.925 -0.0803  0.4280  0.0897
44362W        W87275  28.573   2.882  23.507  0.0457  0.0484  0.1062
44363W        W87276  24.473  29.081  17.115  0.0613  0.0024  0.4986
44364W        W87277  31.037  31.008  18.151  0.1744  0.2120  0.0989
44365W        W87278   0.740  15.278  19.831 -0.1022 -0.0404  0.1076
44366W        W87279  25.512  25.802  26.373 -0.1685 -0.0926 -0.1930
44367W        W87280  26.274  32.449  16.850  0.2466 -0.0841  0.1824
44368W        W87281  24.955  28.841  24.144 -0.2124 -0.1292  0.1903
44369W        W87282   0.465  33.671  16.688  0.0424  0.1531  0.0295
44370W        W87283   0.209  32.484  28.533 -0.2510 -0.1214  0.0787
44371W        W87284  32.768   2.822  19.364  0.2200  0.0855 -0.1432
44372W        W87285   0.214   9.257  22.255  0.1179  0.0530 -0.1549
44373W        W87286  30.623  17.529  16.942  0.2326 -0.1199 -0.1555
44374W        W87287  26.779   6.521  23.476 -0.0992  0.1868 -0.3404
44375W        W87288  23.254  22.034  22.323 -0.0847 -0.2710 -0.2683
44376W        W87289   0.344  26.653  16.289  0.0543 -0.0611 -0.0489
44377W        W87290   2.278  33.550  22.375  0.0241 -0.0384  0.0122
44378W        W87291   6.374  18.722  19.268  0.2280 -0.0052 -0.1063
44379W        W87292  20.632   2.986  24.043 -0.1218 -0.1943 -0.0688
44380W        W87293   4.347   2.767   0.884 -0.0856  0.0170 -0.0798
44381W        W87294  22.329  29.253  26.508  0.3048 -0.1611  0.1681
44382W        W87295   2.628  26.357  19.281 -0.2738  0.2458 -0.2397
44383W        W87296   1.624  32.781   5.935  0.2134  0.1981 -0.1083
44384W        W87297  33.662  31.804  18.602 -0.1617 -0.0170  0.4347
44385W        W87298  31.576   6.308   1.729 -0.1239 -0.1326 -0.0690
44386W        W87299  23.124  30.889  22.759  0.3063 -0.0575 -0.3105
44387W        W87300  31.353  30.647  19.147  0.0220  0.2535  0.1611
44388W        W87301  32.490  30.385  24.125  0.1177  0.3985 -0.1248
44389W        W87302   0.166  33.852  19.406  0.1500 -0.1042 -0.3404
44390W        W87303   3.308  23.769  24.495  0.1883  0.1714  0.2119
44391W        W87304   7.246  26.818  18.900  0.1335  0.2985 -0.1702
44392W        W87305  27.385   7.040  21.242 -0.0826 -0.0127  0.2248
44393W        W87306  28.021   1.103  25.123 -0.0284  0.3010 -0.1282
44394W        W87307   5.235  31.602  29.194  0.1351 -0.0773 -0.1876
44395W        W87308  22.581  32.303  24.358 -0.1329  0.1223  0.3007
44396W        W87309  25.721  26.664  13.242 -0.2584 -0.0866 -0.2010
44397W        W87310  29.961  24.898  20.097 -0.2261 -0.0766  0.0890
44398W        W87311  16.982  28.894  22.753 -0.2335  0.2109 -0.3329
44399W        W87312   1.510  21.337  26.685 -0.1115  0.1974 -0.1071
44400W        W87313   2.711  33.937  18.900 -0.1209  0.2032  0.4090
44401W        W87314  34.192  30.898  19.193 -0.1401  0.1884 -0.1454
44402W        W87315  24.777  34.407  25.392  0.1727  0.0015  0.0391
44403W        W87316  23.120  31.148  22.347 -0.0019 -0.2096 -0.4168
44404W        W87317   0.408  34.027  20.068  0.2320  0.4495  0.1414
44405W        W87318   8.666   6.225  17.843 -0.3261 -0.1520 -0.0162
44406W        W87319   0.062  34.347  25.439  0.0124  0.0047  0.1290
44407W        W87320  28.587  21.630  19.424  0.0508 -0.1756  0.1418
44408W        W87321  27.719   6.926  24.211 -0.2670  0.1491 -0.6103
44409W        W87322  20.120  32.800  16.240 -0.2415 -0.0235 -0.1173
44410W        W87323  26.796  16.599  29.376  0.2347 -0.0351 -0.1238
44411W        W87324  33.201  17.666  23.863  0.6452 -0.0438 -0.1253
44412W        W87325  25.861  27.690   4.777  0.1413  0.0278  0.0650
44413W        W87326   0.887   7.353   0.061  0.1983  0.4099 -0.2393
44414W        W87327  25.571  30.533  21.750  0.0715 -0.0594 -0.0800
44415W        W87328  28.927   4.489  22.380 -0.1637 -0.1226  0.2033
44416W        W87329  28.062  29.829  17.357 -0.2658  0.3219 -0.3320
44417W        W87330  30.175  24.878   0.242 -0.0562  0.1284 -0.2488
44418W        W87331  28.844  26.441  27.890  0.1140  0.0843  0.0765
44419W        W87332  31.664  23.674  20.272  0.0487  0.1698  0.0558
44420W        W87333  23.438   0.330  23.423  0.1427  0.0348 -0.0024
44421W        W87334  32.926  22.762  24.313  0.1222 -0.2236 -0.1287
44422W        W87335   5.571  23.629  20.946  0.1007 -0.0727 -0.2088
44423W        W87336   3.367  32.811  22.745  0.4686 -0.0302  0.1104
44424W        W87337   3.718  33.406  17.138 -0.0485  0.1521  0.0682
44425W        W87338  27.589   2.631   1.584 -0.3292  0.0519 -0.0737
44426W        W87339  25.888  29.948  22.297  0.2210  0.1001 -0.1756
44427W        W87340  32.974  20.495  25.654  0.1039 -0.0121  0.0488
44428W        W87341   8.520  26.648  18.029  0.1251  0.0383  0.1224
44429W        W87342  34.102  23.336  21.884  0.3432 -0.0669  0.0657
44430W        W87343   4.046  33.229  24.716  0.2310  0.1993 -0.0294
44431W        W87344   9.275  22.147  22.793 -0.1997 -0.2522  0.0217
44432W        W87345  25.576  29.349  25.838 -0.2415  0.1104 -0.0204
44433W        W87346  24.663  29.034  20.356  0.0745 -0.1238  0.3786
44434W        W87347  31.229  31.961   0.876 -0.1629 -0.0751 -0.1444
44435W        W87348   4.477   0.105   3.234 -0.0252 -0.0745 -0.0009
44436W        W87349  34.212  32.352  23.815 -0.0009  0.2037 -0.1117
44437W        W87350   3.567  33.818   1.789 -0.0642 -0.2042 -0.2228
44438W        W87351  29.577   7.010  27.425 -0.0944  0.3199  0.0089
44439W        W87352  26.870  29.634  23.456  0.3947 -0.2959  0.1819
44440W        W87353  16.959  24.142   5.142 -0.2604 -0.0372 -0.4045
44441W        W87354   0.808  24.766  24.632  0.0065  0.1377  0.0865
44442W        W87355  33.998  24.983  16.101  0.3487  0.1188  0.1417
44443W        W87356  31.176  31.759  28.894 -0.0917  0.2669  0.2630
44444W        W87357  24.698  24.635   2.124 -0.1292  0.0676 -0.0171
44445W        W87358  29.930   5.239  24.195 -0.0193 -0.0539 -0.2125
44446W        W87359  30.919  29.497  23.175  0.2369  0.3890  0.2554
44447W        W87360  33.190  30.877   5.192 -0.2485 -0.1374  0.0754
44448W        W87361  20.415  19.845   0.287 -0.1872  0.0892  0.3338
44449W        W87362  18.801  34.145  23.848 -0.0585 -0.1985  0.0626
44450W        W87363   0.687  26.687  26.668 -0.1578 -0.4169 -0.2002
44451W        W87364  25.757  32.771  17.460 -0.1840  0.0222 -0.1273
44452W        W87365  33.020  26.120  20.868 -0.1257  0.0038  0.0152
44453W        W87366   4.091  34.354  23.132  0.0699  0.0526 -0.0009
44454W        W87367  27.195  28.117   7.856  0.1635 -0.2845 -0.0693
44455W        W87368  30.163  34.167   1.765 -0.0667 -0.1295 -0.0359
44456W        W87369  28.750  32.625  20.607 -0.0130 -0.1881 -0.1151
44457W        W87370  30.389  32.333  29.171  0.1132  0.1402 -0.1882
44458W        W87371  26.559   1.500  19.201  0.1914  0.2527 -0.0095
44459W        W87372   1.601  28.705  18.371  0.2121  0.3031  0.2246
44460W        W87373  17.850  23.637  23.969 -0.3136 -0.4850  0.0152
44461W        W87374   0.234  27.583  16.311  0.2897  0.0348 -0.1018
44462W        W87375  32.189  29.498  17.090  0.3446  0.0735 -0.1886
44463W        W87376  26.172   3.414  27.351  0.0296  0.1340  0.0158
44464W        W87377  31.300  23.825  23.257 -0.3053 -0.1425 -0.2895
44465W        W87378  33.462   6.138  18.651  0.1015 -0.0541  0.3475
44466W        W87379   5.693   2.089  21.453 -0.2549  0.0597 -0.1062
44467W        W87380  31.755  28.026   2.397  0.5605 -0.0045 -0.1468
44468W        W87381  31.948   3.745  20.963 -0.3828  0.2433  0.1257
44469W        W87382  19.342  21.765  24.702  0.1922  0.1902 -0.1114
44470W        W87383  25.817  23.896  24.894  0.1515  0.0185  0.2626
44471W        W87384  24.406   5.857   2.998  0.1837 -0.1395  0.0978
44472W        W87385  28.525  34.423  10.157  0.0893 -0.2638  0.0631
44473W        W87386  25.573  27.205   5.110  0.0478  0.1441 -0.2399
44474W        W87387   1.136   4.450  25.592  0.3212 -0.2366 -0.0115
44475W        W87388  18.258  30.360   0.128 -0.0697  0.0782  0.0365
44476W        W87389  31.453  30.311  26.376 -0.0149  0.0579  0.1288
44477W        W87390   3.659  23.103  22.072  0.1366  0.1492  0.1706
44478W        W87391  26.680  28.652  20.832  0.1297 -0.1220 -0.0526
44479W        W87392   1.578  31.800  24.673  0.2079  0.0131 -0.2854
44480W        W87393  32.431  25.698  14.991  0.0825  0.2113 -0.0072
44481W        W87394  29.461   3.458  21.878 -0.1866 -0.1188 -0.1175
44482W        W87395  28.242   5.325  24.710 -0.1509 -0.0556 -0.0346
44483W        W87396  28.524  32.243  24.566  0.1984 -0.1084 -0.1243
44484W        W87397  25.146  22.686  25.201  0.0495  0.2028  0.0641
44485W        W87398  32.609  29.591  21.467 -0.0083 -0.1899 -0.1514
44486W        W87399  30.287  28.719  24.575 -0.0189  0.4091 -0.1135
44487W        W87400   7.231   2.389  29.610  0.1482  0.1006  0.1405
44488W        W87401  30.671  25.211  26.525  0.1470  0.0894 -0.0798
44489W        W87402  28.725  19.846  13.206 -0.0824 -0.1929 -0.2272
44490W        W87403   3.650  29.213  24.353  0.0904  0.0866  0.0653
44491W        W87404  22.996   3.210  18.364 -0.2198 -0.2247  0.0068
44492W        W87405  21.022  23.181  25.199  0.1298 -0.1132 -0.2721
44493W        W87406  21.362  23.976  24.128 -0.0238 -0.0946  0.0887
44494W        W87407   8.111  32.717  23.842  0.1399 -0.2354 -0.0349
44495W        W87408  34.255   9.023  19.895  0.3334 -0.0662 -0.2480
44496W        W87409  28.985  31.821  18.867 -0.0476 -0.1745  0.0088
44497W        W87410  27.275  21.542  18.946 -0.0717  0.0653 -0.1698
44498W        W87411  23.056  30.622  13.872  0.1532  0.2882 -0.1899
44499W        W87412  26.537   3.876   3.006  0.2757 -0.3370  0.2654
44500W        W87413  27.287  29.220  24.886  0.2985  0.0037 -0.0931
44501W        W87414   2.130  32.365   2.425 -0.0756 -0.1497 -0.1882
44502W        W87415   1.610   4.237  25.834  0.2051  0.0208  0.1037
44503W        W87416  29.476   2.729  23.018  0.3063 -0.1144  0.4586
44504W        W87417  26.049  12.066  24.519  0.0830  0.1964  0.0446
44505W        W87418  20.313  27.995  29.131  0.0454  0.1415 -0.0150
44506W        W87419   2.802  18.768  16.917 -0.4163 -0.2542  0.1136
44507W        W87420  22.450  30.997  25.589 -0.0508  0.0972 -0.0391
44508W        W87421  21.747  30.192  23.785  0.4987 -0.2303 -0.0605
44509W        W87422   7.602  31.138  28.831  0.0135  0.2474  0.0216
44510W        W87423   2.963   5.280  20.981 -0.2024 -0.0760  0.1309
44511W        W87424  34.356  29.801  25.758 -0.1601  0.3534 -0.0938
44512W        W87425  26.364   1.660  21.324  0.0370  0.0963  0.2774
44513W        W87426  34.039  30.417  17.500  0.0193  0.0780  0.0771
44514W        W87427   1.412   4.793   3.613  0.1778 -0.0405 -0.2529
44515W        W87428   0.914   6.364  20.087 -0.1694  0.5339 -0.1081
44516W        W87429  30.931  22.058  14.133  0.1013 -0.1629  0.1814
44517W        W87430  24.869   4.161  28.834  0.0575 -0.1595 -0.0645
44518W        W87431  33.241  30.410  21.798  0.0115 -0.0972  0.0542
44519W        W87432   5.053  16.607  27.348 -0.0276 -0.0651  0.0193
44520W        W87433   3.745  20.914  19.021 -0.1436  0.1582 -0.1782
44521W        W87434   0.239   3.105  18.034  0.2512 -0.2215  0.1673
44522W        W87435  23.100  25.567  23.904  0.0673 -0.0791  0.1277
44523W        W87436  21.475  20.991   4.783 -0.0115 -0.2080 -0.0513
44524W        W87437  15.836  25.389  26.055 -0.1978 -0.2711 -0.1839
44525W        W87438  24.454  32.339  20.379 -0.2279  0.1455  0.0133
44526W        W87439  27.923   4.465  22.213  0.1195 -0.0820  0.0400
44527W        W87440  11.940  29.803  27.479 -0.0146  0.0044  0.0561
44528W        W87441  26.593  33.378  29.537  0.2177  0.0621 -0.2599
44529W        W87442  26.549  31.174  24.320  0.2503  0.1117  0.1542
44530W        W87443  29.472  28.010   2.518  0.1037  0.0953 -0.0381
44531W        W87444  29.563   2.834  24.465 -0.2963  0.1648 -0.1672
44532W        W87445  26.239  30.679  23.992  0.2607 -0.1765  0.2460
44533W        W87446  27.974  27.052  22.320 -0.2631  0.0346 -0.0538
44534W        W87447   1.317  31.543   0.786  0.1606 -0.2972 -0.1104
44535W        W87448  23.434  30.169  26.447 -0.1897 -0.0521  0.1762
44536W        W87449  27.281  28.739   5.777 -0.1655 -0.0636  0.0703
44537W        W87450  28.242  28.407   1.755 -0.1169  0.0312  0.0134
44538W        W87451  28.311   0.686  29.423  0.1141 -0.0964  0.1249
44539W        W87452  29.026  30.446   0.003 -0.2245 -0.0591 -0.4457
44540W        W87453   1.075   1.237  25.290 -0.1207 -0.0890  0.0122
44541W        W87454  27.262   1.929  26.833  0.1013 -0.0548 -0.2038
44542W        W87455  34.122   5.141  25.100 -0.0545  0.4222  0.1150
44543W        W87456  34.169  23.871  16.721  0.0129 -0.0844  0.1245
44544W        W87457  31.271  27.986   2.473 -0.0555  0.3083  0.2719
44545W        W87458  22.069  32.097  26.883  0.0560  0.0694  0.3343
44546W        W87459   3.784   1.432  23.516 -0.0732 -0.0035 -0.1156
44547W        W87460  28.938  32.642  25.434 -0.3467  0.0562 -0.0263
44548W        W87461  19.820  30.813  25.646 -0.1602  0.1886 -0.1999
44549W        W87462  33.487   7.444   2.231 -0.0115 -0.1754 -0.1698
44550W        W87463  19.374   2.322  23.955 -0.0706  0.1213 -0.1466
44551W        W87464  26.671  29.689  19.978 -0.0947 -0.0921 -0.2502
44552W        W87465  34.059  28.438  20.512 -0.0063 -0.1355 -0.0518
44553W        W87466  34.177   2.567  22.280  0.0615  0.0916 -0.1142
44554W        W87467  26.326  30.770   7.283 -0.1426 -0.1144  0.2294
44555W        W87468  23.875  27.714   5.028  0.0279  0.0475  0.0501
44556W        W87469  32.048  30.794  23.874 -0.2359  0.1203 -0.1474
44557W        W87470  29.232  30.402  26.084 -0.3297  0.2630 -0.3381
44558W        W87471  32.542   3.283   2.594 -0.2010 -0.1789 -0.0663
44559W        W87472  32.855  29.124  23.170  0.2152  0.2300 -0.3720
44560W        W87473   0.487  29.467  25.643 -0.1445  0.2542  0.0856
44561W        W87474  10.542  24.754   0.131  0.0472 -0.0613 -0.0682
44562W        W87475  28.291   2.400  26.593 -0.0739  0.0318  0.0212
44563W        W87476  27.964  19.352  26.333  0.1027  0.4552  0.2922
44564W        W87477   9.289  20.174  20.267  0.3513 -0.0708 -0.0771
44565W        W87478  16.126  24.252  21.070 -0.2707  0.0815  0.1120
44566W        W87479   5.684   3.764   1.114  0.2765 -0.3539 -0.1796
44567W        W87480  33.109  23.486  22.592 -0.3008 -0.1626  0.0274
44568W        W87481  24.841   9.439  25.666  0.0911 -0.1461  0.0542
44569W        W87482   9.711   0.842  27.045  0.0492 -0.2099  0.2481
44570W        W87483  34.219  16.675  21.803  0.3460 -0.1505  0.0095
44571W        W87484   9.306  27.205  28.676  0.0323 -0.0013 -0.2158
44572W        W87485   6.732   7.895  20.691 -0.2625  0.1026 -0.4675
44573W        W87486   1.382   0.868  22.662 -0.2537 -0.4339  0.0275
44574W        W87487  26.614   0.352   5.079  0.1078 -0.0069 -0.0904
44575W        W87488  32.916  28.396  24.984 -0.1228  0.4087 -0.2145
44576W        W87489  31.066  31.094  22.223  0.1125  0.0199 -0.2643
44577W        W87490  16.559  25.965  27.933  0.3008  0.0693  0.2186
44578W        W87491  27.605  12.131  18.583 -0.1876 -0.1457  0.0296
44579W        W87492  32.596   8.850   1.382  0.1261 -0.0798  0.0966
44580W        W87493  28.948  30.828  13.759  0.1145  0.3381 -0.0421
44581W        W87494   4.399  22.087   2.007 -0.1112  0.2172  0.0627
44582W        W87495   7.258  22.789  22.955 -0.2811  0.1468 -0.1441
44583W        W87496  28.786  33.378  23.014 -0.0675  0.1462  0.1111
44584W        W87497  19.961  21.037   0.636  0.0068  0.0280 -0.0912
44585W        W87498   9.108  22.878  19.246 -0.3211  0.2800 -0.1047
44586W        W87499  31.686  28.156  23.217 -0.1938 -0.1899  0.1155
44587W        W87500  27.772  22.734  16.479 -0.2617 -0.0517  0.0140
44588W        W87501  32.116  24.736  27.734  0.2049 -0.0404  0.1817
44589W        W87502  30.223  30.840  23.029 -0.2349 -0.3654 -0.0706
44590W        W87503  21.514  26.754   0.657 -0.1551 -0.3311  0.0110
44591W        W87504   0.101   1.064  29.284  0.0872 -0.3680  0.2381
44592W        W87505  32.326   2.675   8.675 -0.0845  0.1007 -0.0557
44593W        W87506  30.963  23.519  22.309  0.0254 -0.0019 -0.3611
44594W        W87507   1.322  24.880  18.602 -0.1030  0.1008 -0.0069
44595W        W87508  32.959  31.240  28.905 -0.3174 -0.1535  0.1021
44596W        W87509  29.999   1.206   0.084 -0.0650  0.2224 -0.5040
44597W        W87510  32.812  23.227  15.076  0.0326  0.0621 -0.0038
44598W        W87511  34.307  24.930  28.125  0.1525 -0.0213  0.3138
44599W        W87512   0.398  33.778   0.713  0.0847  0.0954 -0.1313
44600W        W87513  10.783  32.493  18.252  0.0573 -0.0376 -0.0970
44601W        W87514  24.038  28.598  25.905  0.0111 -0.0029 -0.2021
44602W        W87515  32.779   2.950  23.728 -0.1227  0.0018 -0.1653
44603W        W87516  27.479  25.007  28.883 -0.0096  0.0695 -0.0551
44604W        W87517   5.091  30.215  23.469  0.2355  0.0569  0.1059
44605W        W87518  24.642   2.328  21.587 -0.2363  0.1164 -0.1162
44606W        W87519   4.874  32.240  23.397  0.0561  0.0047  0.2128
44607W        W87520  31.771   2.591  16.023 -0.2224 -0.2078  0.0939
44608W        W87521  25.726  32.874  27.550  0.0235 -0.2026  0.1328
44609W        W87522  27.751  28.496   0.032  0.0267  0.1944 -0.3421
44610W        W87523  30.890  30.524   4.870  0.1458  0.1010  0.1170
44611W        W87524   0.748  26.385  26.213  0.1204 -0.1798  0.0218
44612W        W87525  28.702  34.229  20.379 -0.1600  0.0022 -0.2980
44613W        W87526  23.381   4.301   1.472  0.0448  0.2547  0.2813
44614W        W87527   4.477  33.900   0.581  0.3056  0.0080 -0.2838
44615W        W87528  28.227  24.828  17.328  0.2294 -0.2564 -0.0531
44616W        W87529  27.290  25.590  29.780 -0.1127  0.0980  0.0156
44617W        W87530  33.012  25.805   0.064  0.1243 -0.0702  0.2367
44618W        W87531  29.605  26.977  27.945 -0.2507  0.3604 -0.1367
44619W        W87532   0.912  22.417   2.254  0.2434  0.1459 -0.3431
44620W        W87533   2.362   0.709   1.881 -0.1681 -0.0798 -0.0792
44621W        W87534  20.624  32.641  26.142 -0.2711  0.2840 -0.1735
44622W        W87535   4.513  31.807   1.300  0.0105 -0.0071 -0.2357
44623W        W87536   2.267  27.749  17.266  0.0065 -0.0684  0.2116
44624W        W87537  31.930  29.999  23.586 -0.2713 -0.0943  0.0558
44625W        W87538   0.943   1.470  26.530 -0.0597  0.1789  0.2871
44626W        W87539   0.364   3.422  26.443 -0.1835 -0.0945 -0.0496
44627W        W87540   8.438  24.434   2.039  0.4316  0.0510 -0.0145
44628W        W87541  26.099  27.465  14.977 -0.0931 -0.0996 -0.0428
44629W        W87542  31.299  29.597  26.604  0.0374  0.1257  0.2162
44630W        W87543  25.434  18.358   6.141 -0.2160  0.1589 -0.2282
44631W        W87544  23.486   1.164  22.683 -0.0382  0.1364 -0.0434
44632W        W87545  27.464  33.525  21.431  0.1556 -0.0346  0.0056
44633W        W87546  24.936   1.143  22.262  0.2666  0.2654  0.2097
44634W        W87547   6.086  34.405  20.764 -0.3718 -0.0725  0.1369
44635W        W87548  32.850  20.662  15.423 -0.3660  0.2417 -0.1944
44636W        W87549  23.397  32.783  24.410  0.1276  0.0614 -0.2549
44637W        W87550   0.747  28.796  24.943 -0.0763 -0.1848 -0.1027
44638W        W87551  27.338   4.434  15.574  0.2050  0.0496 -0.2288
44639W        W87552  33.234  33.557  28.965  0.1940  0.1705  0.0797
44640W        W87553   0.284  31.460  15.014 -0.2516  0.2231  0.1203
44641W        W87554   5.908  32.380  17.254 -0.2698 -0.1051  0.1262
44642W        W87555   4.154  34.159  18.811  0.1648  0.1657  0.0528
44643W        W87556  24.759  24.552  25.685 -0.0554  0.0241  0.0003
44644W        W87557  32.901  18.862  18.343 -0.2458 -0.1133 -0.0463
44645W        W87558  29.769   0.107  14.713 -0.2243  0.2132  0.0052
44646W        W87559  25.092  26.613   5.978 -0.0711  0.1225  0.1083
44647W        W87560   6.031  24.102  21.817  0.0248 -0.0155 -0.2671
44648W        W87561  12.770  33.396  26.255  0.2896  0.0050 -0.1662
44649W        W87562  17.833  26.468  27.887  0.0557 -0.0014 -0.3722
44650W        W87563  28.929   7.771  25.566 -0.0337 -0.0774 -0.0887
44651W        W87564   0.653   0.847   2.831  0.3966  0.1903 -0.2011
44652W        W87565   6.907   3.731  27.060  0.3943 -0.2211  0.2491
44653W        W87566  24.952  27.372  19.295  0.1351  0.0112 -0.0353
44654W        W87567  24.583   3.023  20.842 -0.1217  0.2039  0.0270
44655W        W87568   6.424  26.948  24.089 -0.0929 -0.0899  0.0414
44656W        W87569  33.359  31.348  23.402  0.0721 -0.0851  0.4557
44657W        W87570  22.685  30.359   3.077 -0.2576 -0.0081 -0.0166
44658W        W87571  26.171  30.243  27.148  0.3748  0.1448  0.1478
44659W        W87572  21.586   0.550  26.085 -0.0574  0.1323 -0.1057
44660W        W87573  27.100  28.948  22.906 -0.0177  0.2289  0.1204
44661W        W87574  22.996  28.003   1.238  0.1068  0.0561 -0.1298
44662W        W87575  31.553  31.540  25.500 -0.0426  0.1088  0.0177
44663W        W87576  27.847  22.950  28.484 -0.0058 -0.0262 -0.2812
44664W        W87577  30.202  32.864  24.146  0.0990 -0.1032  0.0778
44665W        W87578  27.457  26.717  14.649 -0.1375 -0.1255 -0.2428
44666W        W87579   0.587  34.448  21.490 -0.2756  0.0155 -0.0391
44667W        W87580   5.969  31.783  27.347  0.1744 -0.1313  0.2345
44668W        W87581  33.741  30.353  23.981  0.1152  0.1833  0.2077
44669W        W87582  34.347   3.723   1.996 -0.2151  0.1312 -0.1341
44670W        W87583   2.862  32.135   4.400  0.0231  0.2165 -0.3614
44671W        W87584  26.681  15.835  18.407  0.0994  0.0086  0.2325
44672W        W87585  32.265   1.678  21.950  0.2409 -0.1135 -0.0998
44673W        W87586  33.894  28.673   2.526  0.2999  0.1355  0.0780
44674W        W87587  33.160  31.264  20.181 -0.4695  0.1974  0.0922
44675W        W87588  28.422  27.684  28.784 -0.2507  0.1260  0.0465
44676W        W87589   0.763  31.063  18.161 -0.0655  0.2291 -0.0761
44677W        W87590  34.299   4.873   4.316  0.0281  0.2867 -0.3188
44678W        W87591   3.427  32.713   2.330 -0.3251  0.0155 -0.0010
44679W        W87592  25.645  25.533  25.990 -0.3129 -0.0015  0.0363
44680W        W87593   1.820  34.273   9.393  0.0344  0.1910 -0.0514
44681W        W87594   3.509  21.442  17.286  0.1005  0.1505 -0.1722
44682W        W87595  26.989  27.718   3.168  0.0098 -0.0027 -0.1636
44683W        W87596  15.755  34.358  26.949  0.0359 -0.0167 -0.0633
44684W        W87597   1.476  25.505  15.791  0.2364  0.1353  0.2820
44685W        W87598   0.895  22.789  29.650 -0.0976 -0.1524 -0.1908
44686W        W87599  23.984  23.014  23.307  0.2577  0.1304 -0.2873
44687W        W87600  22.392   9.175  17.581 -0.1553 -0.1471  0.2174
44688W        W87601  33.871  30.981   0.545 -0.0801  0.1730  0.0823
44689W        W87602  27.020   8.015   2.242  0.2301 -0.0344  0.3571
44690W        W87603  25.395  20.163  24.997  0.0275  0.0014 -0.0150
44691W        W87604   2.363  23.876   4.393  0.1085  0.0138 -0.0950
44692W        W87605   3.327  26.827  18.908  0.3323 -0.2524  0.1274
44693W        W87606  34.324  25.157  10.247 -0.0178  0.0523 -0.0136
44694W        W87607  20.263   0.731   9.288  0.0639  0.0244 -0.0492
44695W        W87608  25.805  29.703  18.955  0.2125  0.0817  0.0881
44696W        W87609  17.956  32.639   0.374 -0.0697 -0.2618  0.0389
44697W        W87610   9.549  33.882   0.155 -0.0973  0.2955  0.2281
44698W        W87611   2.400   8.696  20.619 -0.0609 -0.0872  0.2345
44699W        W87612  14.835  28.586  15.724  0.3262 -0.2966 -0.0788
44700W        W87613  23.081  27.992  22.166 -0.2078  0.1579 -0.2809
44701W        W87614   0.867  27.737  21.915  0.0450  0.1011 -0.1690
44702W        W87615   3.142  32.353  16.421  0.0965  0.3764  0.1913
44703W        W87616   1.056  30.399   0.328  0.0501 -0.0176  0.1624
44704W        W87617  31.887  27.188  16.494 -0.1584 -0.1537 -0.2267
44705W        W87618  28.797   0.192  23.049  0.1890 -0.0776  0.0092
44706W        W87619  31.165  29.202  26.856 -0.3869 -0.1379  0.1991
44707W        W87620  23.924  32.100  29.339 -0.1447  0.1809  0.1547
44708W        W87621  31.273  29.260  27.487 -0.1743 -0.0609 -0.0199
44709W        W87622  28.962  21.782  24.387  0.2858  0.1427  0.0437
44710W        W87623  34.247  16.972  17.050  0.2173 -0.1057  0.2536
44711W        W87624   0.813  27.625  16.310  0.0418  0.3540  0.1040
44712W        W87625   1.040  29.022  17.738  0.0964  0.2560  0.1172
44713W        W87626  28.559  28.181  29.626 -0.1942  0.1028 -0.0837
44714W        W87627  32.169  20.525  21.285  0.1759  0.1237  0.0109
44715W        W87628  21.736  25.947  29.270  0.1333 -0.1326 -0.0779
44716W        W87629   0.587  34.392   1.996 -0.1943 -0.0551 -0.2910
44717W        W87630   4.819   4.023   2.676  0.0024  0.0562 -0.1570
44718W        W87631  31.166  23.605  15.973 -0.3042  0.3019 -0.0851
44719W        W87632  21.304  26.242  16.150  0.0241  0.0177 -0.1479
44720W        W87633  25.493   2.480  23.831  0.0347  0.0417 -0.0094
44721W        W87634  30.407  24.974  23.046 -0.2866 -0.1271  0.0554
44722W        W87635   1.311  33.537  23.764  0.1060  0.0227 -0.0673
44723W        W87636  25.297  27.447   1.983  0.1659  0.1409 -0.1382
44724W        W87637  31.303  24.509  19.982  0.2501  0.0072  0.0972
44725W        W87638   5.758  26.724  26.603 -0.1321  0.2348  0.1042
44726W        W87639  31.653   8.272  25.042 -0.0869  0.2596 -0.0176
44727W        W87640  23.926  29.067  18.297 -0.2906 -0.0291 -0.2430
44728W        W87641  31.290  18.990   0.259  0.1627  0.0095  0.0225
44729W        W87642  26.222   6.110  24.888 -0.1145 -0.0088 -0.2613
44730W        W87643  32.535   1.532  20.410 -0.2328  0.1814 -0.1432
44731W        W87644   3.838   3.006  18.948  0.4552 -0.2890 -0.0121
44732W        W87645  27.025  33.793   3.682 -0.1395 -0.1903 -0.1254
44733W        W87646  23.979  32.182  22.524 -0.1143  0.1200 -0.2140
44734W        W87647  31.904   0.018  19.165  0.2008  0.1800  0.3376
44735W        W87648  31.348  32.361   0.103 -0.3128  0.1281 -0.2074
44736W        W87649  28.375   4.357  19.385  0.1331 -0.5097 -0.0819
44737W        W87650  32.564  28.755  16.742 -0.0748  0.3086 -0.0237
44738W        W87651  30.982  33.880   2.844 -0.2286  0.1137  0.2103
44739W        W87652  30.017  24.624  26.135  0.1221 -0.1064  0.1891
44740W        W87653  29.886  22.125  28.274 -0.1825  0.0943  0.1865
44741W        W87654  22.041   4.359   3.676  0.0781 -0.1434  0.0170
44742W        W87655   2.948  29.564  25.034 -0.0329 -0.1984 -0.0560
44743W        W87656  32.232  23.837   3.911  0.0218  0.0118 -0.3956
44744W        W87657   4.563  20.765  17.994 -0.2369 -0.1774  0.2353
44745W        W87658   0.638   2.665  27.262  0.4301  0.0574 -0.2359
44746W        W87659  34.359   1.499  16.388  0.2323 -0.1582 -0.2555
44747W        W87660  25.417  33.851  25.335 -0.1194 -0.2705  0.0567
44748W        W87661   8.290  17.247  17.194  0.0380  0.1647  0.1451
44749W        W87662   8.348   0.763  22.350 -0.0689 -0.1246  0.2181
44750W        W87663  25.177   4.712  29.350 -0.1419 -0.0919 -0.1188
44751W        W87664  11.386   1.267   8.633  0.1606  0.2559 -0.3806
44752W        W87665  20.433   4.276   1.348  0.1017  0.2240 -0.1618
44753W        W87666   1.118  24.024  20.996 -0.0544  0.3371 -0.3154
44754W        W87667   1.844  20.303  22.298 -0.1507 -0.0965 -0.1331
44755W        W87668  20.456  32.196  18.587 -0.1726 -0.2735  0.4730
44756W        W87669   3.968  22.146  24.211  0.0965  0.0547 -0.0127
44757W        W87670   1.618  32.780  14.712  0.1261 -0.1715 -0.1790
44758W        W87671  24.504  30.150  29.321  0.0123 -0.2618  0.3098
44759W        W87672  18.894  30.549  15.468  0.0566 -0.3036  0.0695
44760W        W87673  26.054  32.678  23.404 -0.6508 -0.2295  0.1611
44761W        W87674  31.129   2.410   2.879 -0.0079 -0.0228  0.3787
44762W        W87675  32.799  29.178  22.174 -0.1885 -0.1639  0.1094
44763W        W87676  10.092  20.810   2.723  0.0235 -0.2212  0.1004
44764W        W87677  32.217   2.548   0.488  0.3394  0.0667  0.0172
44765W        W87678  28.969  26.465  25.650 -0.3010 -0.1188 -0.2192
44766W        W87679   0.212  31.731  17.440 -0.0240 -0.0296 -0.1252
44767W        W87680  27.778  33.281   0.861  0.0412 -0.3498 -0.0176
44768W        W87681  30.042  24.729  17.610  0.0306  0.4926 -0.0189
44769W        W87682  28.534   0.657  18.591 -0.1031  0.4385  0.0178
44770W        W87683  27.913   0.482   1.820  0.0242  0.2594 -0.0259
44771W        W87684  25.441   5.739  24.905 -0.3131  0.1381 -0.0141
44772W        W87685   0.592  25.193  28.614 -0.1744 -0.0056 -0.2188
44773W        W87686  25.860  11.230  22.066  0.2634  0.1735 -0.1896
44774W        W87687   1.570  24.687  17.067  0.0394  0.3863 -0.1876
44775W        W87688   4.350   1.230  19.165  0.0503 -0.2386  0.0471
44776W        W87689  33.905  22.285   7.111  0.0952 -0.0621 -0.2609
44777W        W87690  33.908  31.243  21.315  0.2874 -0.1171  0.1295
44778W        W87691  29.640  26.593  14.999 -0.1168 -0.0365  0.1165
44779W        W87692  24.782  21.750  27.332  0.0196 -0.0903  0.0078
44780W        W87693   4.843   0.796  28.011  0.0328  0.0736  0.3351
44781W        W87694  27.145  25.535  23.302 -0.1078  0.2111 -0.0535
44782W        W87695  11.790   1.765  18.646  0.0324 -0.1642 -0.0493
44783W        W87696  19.488  22.745   7.924  0.1683 -0.1334 -0.0706
44784W        W87697  27.884   1.665  19.329  0.2582  0.0513  0.1526
44785W        W87698  15.832  32.951  22.882  0.1560  0.0147  0.2653
44786W        W87699   0.092  32.081  24.894 -0.2240  0.0154 -0.1374
44787W        W87700  24.541  34.279  22.341 -0.1400 -0.0294  0.0257
44788W        W87701  30.395   0.653   0.128 -0.1590  0.3169 -0.0025
44789W        W87702  29.203  29.692  15.186 -0.0045 -0.1027  0.0113
44790W        W87703  32.634  34.102  25.482  0.0704  0.1780  0.1032
44791W        W87704  24.115   0.777  19.267 -0.0303 -0.0050  0.1256
44792W        W87705  27.481  30.118  28.130 -0.2011 -0.0680  0.0605
44793W        W87706  25.687   0.685   7.253  0.1545 -0.2798  0.2383
44794W        W87707  19.592  22.000   1.989  0.3394 -0.2597  0.1303
44795W        W87708   7.377  33.968  24.978 -0.0662  0.0079  0.0074
44796W        W87709  15.509  23.794  26.975  0.2559 -0.1599  0.0028
44797W        W87710   4.026  32.069   2.589  0.0202 -0.2440  0.0149
44798W        W87711  28.307  28.956   7.674 -0.0869 -0.0712  0.1597
44799W        W87712   4.754  33.245   2.928 -0.1825 -0.2197 -0.4153
44800W        W87713   0.126   3.965   8.776 -0.5771 -0.1444  0.1650
44801W        W87714  29.913  33.197   6.228 -0.0143  0.0106 -0.2921
44802W        W87715  29.133   7.812   1.113  0.2580  0.0220 -0.0307
44803W        W87716   3.666  33.020  28.520 -0.1601  0.1471  0.2890
44804W        W87717   2.595   4.785   6.632 -0.3129 -0.0729  0.1100
44805W        W87718  24.129   0.016   3.414 -0.0690  0.0167 -0.0873
44806W        W87719  25.046  29.224   8.394  0.0541  0.0416  0.1073
44807W        W87720  22.370   4.973   2.449 -0.0681 -0.1404  0.1543
44808W        W87721  22.437  32.965  15.993 -0.5214  0.0364 -0.0021
44809W        W87722  30.225   6.941  26.166  0.1285 -0.1636  0.3877
44810W        W87723  32.201   5.421  28.076 -0.2088 -0.1215  0.3388
44811W        W87724  28.798  26.760  28.930  0.1150  0.3404  0.1644
44812W        W87725   0.868   0.303   5.236 -0.0571  0.1293 -0.1168
44813W        W87726  33.321  34.011  27.580  0.1352  0.1455  0.2277
44814W        W87727  29.913   6.270   0.263 -0.0041  0.0971 -0.4844
44815W        W87728  22.164  24.011  22.176 -0.0629  0.0549  0.0605
44816W        W87729  27.859  29.646  26.829  0.2814 -0.4333 -0.1050
44817W        W87730  24.777   3.387   5.398 -0.0147 -0.0257  0.0177
44818W        W87731  34.018   0.444   5.926 -0.1662  0.2772 -0.2487
44819W        W87732  23.325   0.329  27.184 -0.0281  0.1066  0.0052
44820W        W87733  22.339   7.033   2.223 -0.0048  0.2087  0.1035
44821W        W87734  33.408   6.465  25.594 -0.0977  0.1765 -0.2020
44822W        W87735  28.922  33.227  17.081  0.0484 -0.0094  0.3244
44823W        W87736   9.198   1.643  24.171  0.0620 -0.3158 -0.0298
44824W        W87737  18.785  26.553   1.764  0.2133 -0.0635 -0.0969
44825W        W87738   3.815   0.335  28.457 -0.2388  0.0355 -0.1800
44826W        W87739  19.989  31.675  16.958 -0.2033  0.0035 -0.1118
44827W        W87740   5.342   4.802   3.386 -0.2478 -0.0054 -0.0510
44828W        W87741  19.495  23.290  16.562 -0.2049  0.0524 -0.1283
44829W        W87742  22.525   0.059  28.813  0.2415 -0.1081  0.1706
44830W        W87743  23.899  10.334  25.778 -0.2983 -0.1086  0.0620
44831W        W87744  30.542  32.414  25.270  0.2945  0.1421  0.3535
44832W        W87745  22.638  19.702  25.731  0.1373 -0.2289  0.2069
44833W        W87746  29.088   0.570  27.565 -0.2197 -0.3368  0.0015
44834W        W87747   5.586  22.215  26.264 -0.0546 -0.2132 -0.1878
44835W        W87748   4.696   1.453  26.507 -0.0493  0.1800  0.1511
44836W        W87749  22.010  30.464  23.445  0.2329 -0.2245  0.0214
44837W        W87750  22.236   3.722  22.198 -0.0356 -0.1211 -0.5468
44838W        W87751  30.151  26.121  27.999  0.2643 -0.0135 -0.1380
44839W        W87752   0.713  30.276  22.089 -0.0359  0.0430 -0.5467
44840W        W87753   4.942  34.435  19.211  0.0217  0.1044 -0.0610
44841W        W87754   1.486   3.245  29.353  0.0655 -0.0432 -0.0295
44842W        W87755  18.886  32.401  25.412 -0.0764 -0.6192  0.0289
44843W        W87756  31.263  21.049  14.321 -0.1062 -0.2141  0.1274
44844W        W87757  19.201  34.297   6.549  0.0188  0.0804  0.0813
44845W        W87758  26.899  32.065  28.341  0.1096 -0.0033  0.1513
44846W        W87759  28.596  34.429   3.669 -0.0010 -0.2184 -0.2045
44847W        W87760  31.581  29.147   5.932  0.0487 -0.2092  0.1179
44848W        W87761  25.965  29.135  15.623  0.2875 -0.0789 -0.1814
44849W        W87762  17.037  25.484  21.149 -0.1836  0.1771 -0.0323
44850W        W87763   1.390   9.965   8.384  0.0636 -0.2868 -0.2751
44851W        W87764   3.884  24.173   3.019 -0.0998 -0.0397 -0.2411
44852W        W87765  26.310  26.759   1.777 -0.0206 -0.0126  0.2624
44853W        W87766  31.160   3.543   6.885 -0.0217  0.1184  0.3281
44854W        W87767  32.728   2.349  21.447  0.2076 -0.0087 -0.1825
44855W        W87768  27.987  33.939   4.588 -0.2405  0.0332 -0.1472
44856W        W87769  21.981  26.381  27.274 -0.1514 -0.1442  0.2449
44857W        W87770   9.229   5.261   8.315 -0.4698 -0.1606 -0.3692
44858W        W87771  23.846  32.487  25.186 -0.1882 -0.0950  0.1362
44859W        W87772   1.842  34.381   5.851 -0.5446 -0.3045  0.2175
44860W        W87773  29.639   0.207  29.606  0.4031  0.0233 -0.0167
44861W        W87774  34.114   1.205  22.228  0.2258 -0.2350  0.0924
44862W        W87775  26.662  29.672  19.411  0.1308  0.0842  0.1081
44863W        W87776  32.625  29.416  24.285 -0.1686  0.1383 -0.0643
44864W        W87777   3.527  22.199  27.801  0.4257  0.3551 -0.1555
44865W        W87778  31.002  28.854  29.282  0.0578  0.0653  0.0593
44866W        W87779  27.588   2.787  15.247  0.0147 -0.2252 -0.1248
44867W        W87780  32.201   3.280  28.511  0.2370  0.1521  0.0460
44868W        W87781  22.353   2.116  19.836 -0.0749  0.0427  0.2567
44869W        W87782  30.723   2.228  24.956  0.1819  0.1807 -0.0976
44870W        W87783  27.365  32.456   7.182 -0.3695  0.1310  0.0952
44871W        W87784   4.117   2.852   4.029 -0.0063  0.0196 -0.3953
44872W        W87785  29.477  24.784  25.307 -0.0085  0.0271 -0.1096
44873W        W87786  30.134  31.566  17.290  0.1415 -0.2124 -0.1569
44874W        W87787  26.764  23.986   4.282 -0.2901  0.3110 -0.1055
44875W        W87788  28.511  32.097   0.764  0.1651 -0.1322  0.2613
44876W        W87789  26.100  33.790   3.759 -0.0452 -0.0410 -0.2962
44877W        W87790  18.725  26.770  26.975  0.0904  0.3492  0.2605
44878W        W87791   2.989  29.366  17.141 -0.2068 -0.0862  0.1348
44879W        W87792  32.679  27.279   1.508 -0.1181  0.2298  0.1109
44880W        W87793   2.207  25.969  25.619 -0.0216 -0.0637 -0.1369
44881W        W87794  32.852  31.749  24.841 -0.2323  0.0056  0.1839
44882W        W87795  29.887  29.298  23.316 -0.2783  0.0796  0.1100
44883W        W87796  34.365  32.397  22.891  0.2860  0.2095 -0.2988
44884W        W87797   4.692  15.526  24.143  0.1875 -0.1138 -0.0192
44885W        W87798  30.538  31.891   3.698  0.2562 -0.1510 -0.2420
44886W        W87799  27.585   2.896  26.447  0.1057 -0.1612  0.0742
44887W        W87800  25.764  31.589  29.412 -0.0977  0.0767 -0.0573
44888W        W87801  27.054  28.224   2.091  0.0742 -0.2147  0.0274
44889W        W87802  32.109  16.690  13.768 -0.1125 -0.1058 -0.0974
44890W        W87803  10.400  23.736  29.265  0.1268  0.2057  0.2282
44891W        W87804  20.365  25.459   2.657  0.2769  0.1437 -0.3400
44892W        W87805  27.007   1.507   1.383 -0.2297  0.0889 -0.0711
44893W        W87806  28.888  30.189   2.392 -0.0038 -0.0497 -0.2376
44894W        W87807   3.664   2.347   1.721  0.1374  0.2380 -0.0365
44895W        W87808  33.424  31.192   5.680  0.2916  0.1735 -0.0242
44896W        W87809  20.978   9.143  25.755 -0.0660 -0.2284  0.0545
44897W        W87810  25.242  33.639  22.435 -0.1794  0.0942  0.4139
44898W        W87811   0.577  30.145   0.281 -0.0208 -0.2104  0.2776
44899W        W87812   3.901  16.515   2.397 -0.1651 -0.0196  0.1993
44900W        W87813   4.891  23.053  15.628  0.1640  0.1252  0.0505
44901W        W87814   1.485  31.999   0.592  0.4279 -0.0672  0.1889
44902W        W87815  32.668  24.065  27.050 -0.0904 -0.1895 -0.0707
44903W        W87816  26.084  32.611  22.582 -0.0827 -0.0266 -0.1816
44904W        W87817  28.951  27.160  21.198  0.1305  0.0505 -0.0254
44905W        W87818  24.761  24.446  26.688 -0.3512  0.0461  0.0470
44906W        W87819  10.697   3.656  10.586 -0.0948 -0.2145  0.0501
44907W        W87820   6.097   1.155  23.526 -0.1385 -0.3706  0.3837
44908W        W87821  18.210   3.285   0.210  0.0997 -0.0965  0.1658
44909W        W87822   0.161  31.631  28.351  0.2324  0.2227  0.1870
44910W        W87823  27.027  28.769  26.065  0.1100 -0.0706 -0.2002
44911W        W87824  25.714  30.613  25.237 -0.0533  0.1348 -0.0571
44912W        W87825  23.711  28.021  28.632 -0.1207 -0.3143  0.1766
44913W        W87826  31.959  29.137  20.965  0.1449  0.1384 -0.2726
44914W        W87827   3.328   0.762   2.254  0.3485  0.2400  0.1042
44915W        W87828  25.702  25.212  29.581  0.0116 -0.1110  0.3490
44916W        W87829  25.881  29.093  17.219  0.2839  0.3126  0.1060
44917W        W87830  34.088  27.830  18.325  0.0618 -0.0885  0.1427
44918W        W87831  24.644  25.515  26.589  0.2470  0.1431  0.1083
44919W        W87832  31.945  28.437  26.073 -0.0026 -0.1269 -0.2421
44920W        W87833   5.015   5.671  22.236  0.1568 -0.2374  0.2457
44921W        W87834  29.152  27.764  18.208 -0.3431  0.0539 -0.1465
44922W        W87835  26.045  24.654   0.959  0.0321 -0.0261 -0.2343
44923W        W87836  25.185  26.602  29.273  0.3283  0.2428  0.0735
44924W        W87837   2.030  19.821   4.244 -0.0699 -0.0560  0.0985
44925W        W87838  26.906   4.164   7.498  0.0921  0.0876  0.3145
44926W        W87839   2.035   7.892  29.655 -0.0703 -0.0563  0.2000
44927W        W87840  27.330  32.582  19.398 -0.1421 -0.2392  0.1677
44928W        W87841  27.881   0.238  15.303 -0.0891  0.1541  0.1557
44929W        W87842  33.893  29.121   8.358  0.1325  0.0677  0.4087
44930W        W87843  28.912   6.231  24.640 -0.1549  0.1876 -0.0126
44931W        W87844   2.764   0.144   6.933 -0.0367 -0.1630 -0.0606
44932W        W87845  30.346  29.754   4.803 -0.0540  0.0063  0.1663
44933W        W87846  27.466   1.411  25.881  0.1655 -0.2444 -0.1681
44934W        W87847  25.356   3.693   4.432 -0.4351  0.2217  0.1569
44935W        W87848  24.194   0.346  29.187  0.0525  0.1632  0.1374
44936W        W87849   2.170  27.067  23.354  0.0198  0.1322  0.3984
44937W        W87850  32.399  27.552   6.995 -0.0950 -0.2077  0.2886
44938W        W87851  19.540  23.359   1.243 -0.0769  0.1822 -0.1417
44939W        W87852   7.982   5.630  29.225  0.0156 -0.0141  0.1237
44940W        W87853  30.436  16.955  25.856 -0.2863 -0.0503 -0.0963
44941W        W87854  29.884  32.425  28.413  0.0365 -0.1937  0.1328
44942W        W87855  29.703  22.195  22.140 -0.2808  0.0869 -0.4285
44943W        W87856  33.617  26.942   4.499  0.0290 -0.1467  0.1565
44944W        W87857   7.160  28.891  25.934  0.1145 -0.0400 -0.0017
44945W        W87858  28.299   3.428  18.940  0.1539 -0.3284  0.0429
44946W        W87859   4.438  26.991  23.156  0.0147 -0.2392 -0.2526
44947W        W87860  23.883  19.998  26.555 -0.3483  0.3198 -0.1563
44948W        W87861  28.848  31.021  22.579  0.1831 -0.0164 -0.3371
44949W        W87862  33.063   0.132  27.526 -0.1706 -0.0594 -0.0032
44950W        W87863  32.999  25.341  21.323  0.2263  0.0683 -0.4140
44951W        W87864  16.326  28.317  27.150 -0.1131  0.2287 -0.1049
44952W        W87865  33.472  16.709   2.069  0.0368  0.2059  0.2472
44953W        W87866  26.214   1.628  29.182  0.0402  0.2496 -0.0975
44954W        W87867   0.981  21.953  23.685 -0.0454 -0.1570  0.2125
44955W        W87868  27.493   0.669  25.625  0.3324  0.2231 -0.0579
44956W        W87869   0.948  25.974   2.129 -0.0057  0.1046 -0.0233
44957W        W87870  21.901  25.158  28.434 -0.0158  0.0089 -0.0319
44958W        W87871  17.386   2.386   0.771  0.1694  0.0665 -0.0425
44959W        W87872  33.494  20.276  16.638  0.0578 -0.1502 -0.0763
44960W        W87873  30.438  32.982  27.612  0.1308 -0.1856 -0.0704
44961W        W87874  34.269  25.522   2.719  0.1441  0.1200 -0.0587
44962W        W87875   0.210   4.170   4.814  0.0113 -0.1144  0.0428
44963W        W87876   0.136   3.076   7.411 -0.2508  0.3129 -0.2337
44964W        W87877  25.050   0.732  29.112 -0.0358  0.0579 -0.2859
44965W        W87878   4.568   8.946   1.431 -0.0035  0.4744 -0.1471
44966W        W87879  28.585  31.591   3.600 -0.1004 -0.3711  0.0765
44967W        W87880  32.114  24.969  26.096 -0.2401 -0.1924  0.0762
44968W        W87881  30.850   7.840   5.868 -0.1139 -0.2196  0.0492
44969W        W87882  24.277   2.776  29.371 -0.1786  0.0916 -0.1326
44970W        W87883   1.840   2.260   2.498  0.0344  0.0843  0.3575
44971W        W87884  16.300  25.109  26.912 -0.0880 -0.1682  0.0177
44972W        W87885  31.008   5.972  17.931  0.3194  0.1131  0.1619
44973W        W87886   2.022   5.263  18.052 -0.1211  0.0809  0.0888
44974W        W87887  21.371   2.781  29.495  0.0918 -0.1586  0.4012
44975W        W87888   0.362   3.915  21.508 -0.0440  0.1828 -0.2430
44976W        W87889  33.581  20.427  16.030  0.5016  0.0857  0.1729
44977W        W87890  31.269  28.356   3.133 -0.1680  0.2847 -0.1009
44978W        W87891   4.410   6.788   4.416  0.0169 -0.0151  0.4309
44979W        W87892  29.102   7.680  10.183  0.1935 -0.2901 -0.1127
44980W        W87893  31.729  23.406   2.592 -0.0378  0.1709  0.0288
44981W        W87894  29.968   0.850   6.305 -0.0164 -0.0605  0.0673
44982W        W87895   8.949   2.054  28.908  0.4064  0.4554  0.3317
44983W        W87896  23.409  23.569   1.875  0.2749  0.3625 -0.2615
44984W        W87897  30.425  32.116   5.965  0.3858 -0.0674 -0.3556
44985W        W87898  23.196  19.470  26.220 -0.0552  0.0864  0.0491
44986W        W87899  31.469  21.847   4.007  0.2659  0.0681 -0.2566
44987W        W87900   5.125   3.437   5.969 -0.2397 -0.1119  0.0138
44988W        W87901  32.678  29.970  24.415  0.3058 -0.1258  0.1095
44989W        W87902  31.131  30.455   2.462 -0.5001 -0.2719  0.1415
44990W        W87903  24.382  24.481  19.722  0.0299 -0.1103  0.1366
44991W        W87904  26.330  31.322  27.891  0.1852  0.4145 -0.1520
44992W        W87905   1.501  23.719  19.216 -0.1441 -0.0071  0.0012
44993W        W87906  26.929  27.683  24.570  0.1828 -0.0672 -0.4292
44994W        W87907   0.408  29.685  27.097  0.2452 -0.0276 -0.3540
44995W        W87908  30.578  34.488   1.636 -0.3998 -0.0524 -0.2941
44996W        W87909  18.033  25.517  28.019 -0.1974  0.0089  0.1510
44997W        W87910  26.999  33.232   0.595  0.1146 -0.1581  0.0656
44998W        W87911  27.625  30.272  29.495  0.0545  0.0479 -0.2009
44999W        W87912  31.558  31.819  28.588 -0.0335  0.0206 -0.1243
45000W        W87913   3.036   2.610  25.811 -0.2273 -0.0700 -0.3011
45001W        W87914  27.447  34.171  22.505 -0.0849  0.1144  0.3649
45002W        W87915  21.434  24.860  26.869 -0.2367 -0.1157  0.0063
45003W        W87916  18.160  31.526  25.210  0.0430 -0.2222  0.0737
45004W        W87917  21.776  31.372   2.775  0.2002  0.0224  0.0229
45005W        W87918   0.059  28.287   1.892 -0.0200  0.2554  0.0836
45006W        W87919  18.020  20.864  18.878 -0.1344  0.3656  0.1680
45007W        W87920  20.154  31.280  28.476  0.1541 -0.0126  0.1690
45008W        W87921   3.247  29.902   0.630 -0.3231  0.1639 -0.2418
45009W        W87922   4.253  27.909  23.790 -0.2907  0.0303 -0.1971
45010W        W87923  32.404  21.809  19.418  0.1514 -0.0007 -0.1288
45011W        W87924  31.487  30.886  27.678 -0.2976 -0.1145 -0.0394
45012W        W87925  28.144  33.424  29.694  0.0488 -0.0761  0.0633
45013W        W87926  25.417   5.940   3.764  0.1325  0.1052  0.3457
45014W        W87927   1.072   2.726   0.060 -0.0055 -0.2702  0.0973
45015W        W87928  30.091  26.626   5.430  0.2053 -0.3139 -0.0891
45016W        W87929   0.481  33.736  28.177  0.1278 -0.2113 -0.0766
45017W        W87930  32.294   0.307  10.228 -0.1721  0.0289  0.0598
45018W        W87931  32.992  31.913   3.538  0.0080  0.0513 -0.2959
45019W        W87932  34.257  29.323  26.212 -0.2804 -0.2853  0.2186
45020W        W87933   4.518  20.702  22.963 -0.0787 -0.1414 -0.0575
45021W        W87934  30.118  33.989   9.920 -0.3712  0.1110  0.0450
45022W        W87935   3.298   6.288  28.251  0.2224 -0.0727 -0.3412
45023W        W87936  32.008  25.028  29.701 -0.0098  0.1088  0.1391
45024W        W87937  30.571  23.312  27.464 -0.0385 -0.2782  0.0594
45025W        W87938  17.079   2.161  24.748  0.1269  0.1358 -0.0480
45026W        W87939  30.925  33.341   1.625 -0.0504  0.1224  0.1777
45027W        W87940  31.305   3.110  28.219  0.1089  0.1710 -0.0190
45028W        W87941  30.764  22.835   1.012  0.0529  0.0300 -0.0574
45029W        W87942  29.515   8.258  21.900 -0.0907  0.1055  0.2046
45030W        W87943  33.868  32.844   2.102 -0.1377  0.0342  0.5286
45031W        W87944  27.961  26.051   3.927  0.1600  0.1354  0.0788
45032W        W87945  33.002   1.936  26.270 -0.0625 -0.2966 -0.0655
45033W        W87946  21.111  20.922  16.744 -0.0931  0.2049 -0.1219
45034W        W87947  21.382  26.254  19.913  0.4246  0.3689 -0.1827
45035W        W87948  28.481  30.514  21.744  0.0395 -0.0666 -0.2640
45036W        W87949  32.616  31.291  20.075 -0.1015 -0.0636  0.0225
45037W        W87950  32.192   0.536  28.566 -0.1112 -0.0208 -0.1965
45038W        W87951   2.028  29.968  20.673  0.2502  0.0676 -0.1026
45039W        W87952  21.613   4.654  29.165 -0.2207 -0.0662  0.1997
45040W        W87953   0.063  28.945   5.557 -0.2071  0.2150 -0.4328
45041W        W87954   4.270  10.857   6.744 -0.5837  0.0740 -0.0490
45042W        W87955  29.595  34.296  21.536  0.1393  0.1912  0.2350
45043W        W87956  33.596  23.640  16.324 -0.0507  0.0857 -0.3895
45044W        W87957  30.905  28.737   5.229 -0.2024 -0.2314 -0.0498
45045W        W87958   3.174  29.063  25.380 -0.1465 -0.1370 -0.3629
45046W        W87959  32.575  29.442   3.904  0.3671  0.1689  0.0898
45047W        W87960  31.477   3.621  23.810 -0.2893 -0.0720  0.0497
45048W        W87961  31.207  29.685  20.954 -0.0338  0.0290  0.0173
45049W        W87962  32.122  27.715   2.172  0.0388  0.3461  0.0180
45050W        W87963  23.356   1.444  16.394 -0.2906  0.0765 -0.2820
45051W        W87964  32.724  26.233  29.753 -0.2355 -0.2473  0.3252
45052W        W87965  33.586   1.538   5.975  0.2835  0.1357  0.1100
45053W        W87966  23.553   1.424  20.377  0.0352 -0.0501  0.2010
45054W        W87967  22.762   6.168  26.110 -0.2344  0.1495 -0.1118
45055W        W87968   2.164  31.580  23.062 -0.1072 -0.1194  0.0199
45056W        W87969  30.751   5.615  26.461 -0.0147 -0.1596 -0.4599
45057W        W87970  32.327   5.049   0.019  0.1510  0.2116  0.2649
45058W        W87971  33.490   0.642  28.445  0.0939 -0.1077 -0.1650
45059W        W87972   5.731   4.824   3.679 -0.0480 -0.0130  0.3814
45060W        W87973  23.838  31.462  22.903  0.1625  0.1393  0.2207
45061W        W87974  23.679   0.868  27.922  0.0882  0.3897  0.1852
45062W        W87975  32.129  25.516  21.396 -0.1404 -0.1568 -0.1918
45063W        W87976  25.787   2.705  29.777 -0.0607  0.0337 -0.1699
45064W        W87977  33.816  14.884   3.768 -0.2681  0.2258 -0.0221
45065W        W87978  33.449  33.649  19.777  0.2575  0.1196 -0.0715
45066W        W87979  30.219  18.058   1.172  0.0720 -0.0638 -0.1133
45067W        W87980  30.596  30.923  28.561 -0.1305 -0.3225 -0.1317
45068W        W87981  11.874   7.378   4.566 -0.5239  0.4241 -0.2484
45069W        W87982  31.317   2.731   4.646 -0.3229 -0.0014  0.1432
45070W        W87983  29.713  23.758  22.703 -0.1880 -0.0509 -0.0945
45071W        W87984   2.029  27.363   2.484  0.2019 -0.2120 -0.3067
45072W        W87985   5.240   6.574   7.732 -0.0329 -0.3808  0.3369
45073W        W87986  33.010   7.388   2.341 -0.1063  0.2760 -0.2455
45074W        W87987   1.201  29.725  26.015  0.1177  0.0182  0.1843
45075W        W87988   0.428  23.877  24.771 -0.0931 -0.0974 -0.0381
45076W        W87989  24.997  31.935  29.164  0.1634  0.0277 -0.3074
45077W        W87990   8.422   9.507   3.933  0.0874  0.0076 -0.0285
45078W        W87991   1.874  25.580   8.516 -0.0598 -0.0508 -0.1550
45079W        W87992   6.919  28.085  23.769 -0.0650 -0.0824 -0.2874
45080W        W87993   5.484  31.996   2.614 -0.2412 -0.2668 -0.0732
45081W        W87994   3.682  30.593   0.192  0.0145  0.1079 -0.1216
45082W        W87995   2.406   2.813  24.168 -0.0052 -0.2503 -0.0152
45083W        W87996  30.712  28.708   0.229 -0.2488 -0.1532 -0.2190
45084W        W87997  26.162  25.024  13.118  0.0457 -0.0258  0.0362
45085W        W87998   2.752  33.599   1.113  0.1692  0.0183 -0.2170
45086W        W87999   5.738  29.747  26.113  0.1678  0.0360 -0.0216
45087W        W88000   1.965   1.786  21.087 -0.1539  0.1839  0.2894
45088W        W88001  31.278  29.670   0.655 -0.0964  0.1887 -0.2376
45089W        W88002  28.278   2.944  26.899  0.1878 -0.0164  0.0952
45090W        W88003  28.409   0.482  26.560  0.0581  0.1608 -0.0037
45091W        W88004  29.858   4.873   2.056  0.2870  0.0852 -0.2367
45092W        W88005  32.355  26.167  18.066  0.1691 -0.0273 -0.0450
45093W        W88006   3.067  22.112  23.379 -0.0245  0.0267 -0.0573
45094W        W88007  32.179  27.674   2.691  0.0409 -0.1953 -0.2569
45095W        W88008  17.984  18.596  23.562 -0.1792  0.3399  0.1942
45096W        W88009   1.250  25.564   5.249  0.0406  0.1579  0.0345
45097W        W88010  30.185  28.166  24.476 -0.2859  0.0253  0.2013
45098W        W88011  30.879  27.784   7.171 -0.0563  0.0235  0.0358
45099W        W88012  33.745  21.243  25.988 -0.0688 -0.0839  0.1061
45100W        W88013  31.131   5.085  21.813  0.3653 -0.0879  0.4798
45101W        W88014   5.329  22.829   2.315 -0.1045 -0.1234  0.4427
45102W        W88015  25.391  33.761  26.001 -0.1361  0.1741  0.1432
45103W        W88016  33.241   5.491  25.850  0.3041  0.0864  0.2939
45104W        W88017   6.262  28.009  19.144 -0.1546  0.1883 -0.2133
45105W        W88018  25.359  29.347   1.448 -0.0846  0.2637  0.0608
45106W        W88019  31.025  31.445   2.373  0.0773 -0.0601  0.2511
45107W        W88020   1.413   3.147   8.598  0.1308  0.0030  0.0470
45108W        W88021  32.039  19.844  28.487 -0.0610 -0.0806  0.0424
45109W        W88022  29.757  18.877  23.926 -0.2012  0.0074  0.1062
45110W        W88023   7.044   8.039  12.036  0.5430  0.1627  0.0004
45111W        W88024  31.649  34.469  26.468  0.2065  0.0286  0.0799
45112W        W88025   0.880  28.583   2.025  0.1704  0.1953 -0.1281
45113W        W88026  34.198   0.011   2.422  0.1391  0.3299  0.0133
45114W        W88027  27.688   6.119   2.144  0.0769  0.0441 -0.3750
45115W        W88028  30.025  25.473  23.494  0.0321  0.0526 -0.2281
45116W        W88029  30.084  32.150  24.862  0.0691 -0.1145  0.2601
45117W        W88030  31.300  32.234  24.335 -0.2240 -0.0359  0.2785
45118W        W88031  26.576  21.318  20.061  0.4490  0.0842 -0.0676
45119W        W88032  25.804  25.019  23.201  0.0796  0.0092  0.1258
45120W        W88033  20.109  33.837   1.595 -0.0505 -0.1381  0.0297
45121W        W88034  34.270   6.393  29.518 -0.0659 -0.0786 -0.2140
45122W        W88035  25.136  33.345  27.691 -0.2244 -0.1702 -0.0905
45123W        W88036  24.662  25.764  22.913 -0.0025 -0.0252  0.2714
45124W        W88037   0.088  22.216  23.840 -0.1242 -0.2158  0.0058
45125W        W88038  29.104  28.482  26.078 -0.0376  0.3211 -0.5172
45126W        W88039  33.849  25.992  23.968 -0.1837  0.0998 -0.1781
45127W        W88040   2.883  32.044  26.275  0.1848 -0.1001  0.2581
45128W        W88041  25.914  24.938  28.815  0.1165  0.0141 -0.4005
45129W        W88042   0.226  34.257  22.960 -0.1738 -0.0207  0.1356
45130W        W88043  31.048  29.859  26.160 -0.1929 -0.1676 -0.1716
45131W        W88044  23.793  31.410  23.512  0.0477 -0.1754  0.0715
45132W        W88045   5.215   3.302  28.518  0.0600  0.0398  0.1255
45133W        W88046  32.241   3.405  27.057  0.2598  0.1042  0.1911
45134W        W88047   0.703   0.186  28.495 -0.2019 -0.0527  0.2035
45135W        W88048   1.619  26.754  28.294  0.1057 -0.2501 -0.1114
45136W        W88049  30.403  31.664   1.269 -0.2002 -0.0968 -0.1948
45137W        W88050   0.637  28.926  18.143  0.0549 -0.0188 -0.1115
45138W        W88051  24.507  34.102  24.188  0.0517 -0.1835 -0.4108
45139W        W88052  25.080   0.036   5.663 -0.0193  0.0160 -0.0499
45140W        W88053  28.954   5.965   3.192  0.0675  0.2137  0.0769
45141W        W88054  26.281  17.103   2.710  0.2909 -0.2341 -0.0279
45142W        W88055  26.939  24.766   8.710  0.0033  0.3985  0.2720
45143W        W88056  22.867   4.881   2.764 -0.0855  0.1093 -0.1035
45144W        W88057  31.891  27.111  22.101 -0.0108  0.0063 -0.1458
45145W        W88058   0.744   4.857  28.830 -0.1051  0.2916  0.0380
45146W        W88059  25.029   2.318  23.180  0.0673  0.1599 -0.1985
45147W        W88060   7.171  14.630  25.568 -0.1165 -0.1470  0.1841
45148W        W88061  20.952  30.226  28.584 -0.0567  0.2250  0.0438
45149W        W88062  27.064  26.590  28.463 -0.0496 -0.2699 -0.0338
45150W        W88063  33.211  23.266  14.324 -0.2506 -0.1807 -0.0647
45151W        W88064  33.421   9.454  10.205  0.2636 -0.0597 -0.1005
45152W        W88065  24.712   0.194   6.418 -0.0229  0.3399 -0.0755
45153W        W88066   5.002   5.915   7.554 -0.1869  0.0638 -0.1269
45154W        W88067  30.490  25.822  26.539  0.1028  0.0762 -0.1144
45155W        W88068  13.656  30.709   8.396 -0.2641 -0.0745 -0.0566
45156W        W88069  30.756   4.521   5.466  0.2273  0.5516  0.4773
45157W        W88070  29.284   9.851   0.151 -0.2722 -0.2084  0.0199
45158W        W88071  31.743   5.683  29.361 -0.0912 -0.0676  0.2255
45159W        W88072  31.453  28.288  18.765 -0.0964  0.1044  0.2185
45160W        W88073  32.486  24.661   8.888 -0.0257  0.0446  0.1459
45161W        W88074  30.485  34.372  10.020 -0.2330 -0.0642 -0.0649
45162W        W88075  32.283  21.956  24.163 -0.0855  0.0063 -0.1198
45163W        W88076   0.093   4.240   7.868  0.0352 -0.0465 -0.2382
45164W        W88077  25.251   1.499   0.594  0.0926  0.0043 -0.1860
45165W        W88078  26.250   3.784  26.186  0.1839 -0.1008  0.0737
45166W        W88079  28.735  32.423  28.314  0.1879  0.0314  0.1155
45167W        W88080  32.535  30.688  25.637 -0.0766 -0.2451  0.0425
45168W        W88081  10.200  13.586  29.381  0.2018 -0.0238  0.0774
45169W        W88082  31.463  26.240   6.166 -0.1793  0.0449 -0.1296
45170W        W88083  29.416  23.221   5.988  0.0246  0.1333  0.1281
45171W        W88084  25.223  24.599   0.052  0.1917 -0.2712  0.1925
45172W        W88085  15.879  26.261  27.263  0.4024  0.1402  0.1227
45173W        W88086  28.419  32.502  19.728 -0.0210  0.0744 -0.1591
45174W        W88087   1.336  26.051  20.238  0.1177 -0.0646  0.2595
45175W        W88088  30.953  31.338  25.555  0.2820  0.1578 -0.0544
45176W        W88089  30.680  23.878   2.011 -0.1217  0.3253  0.0858
45177W        W88090  30.980  21.842   3.741 -0.1023 -0.0777 -0.0757
45178W        W88091  33.524  27.228  24.459  0.2596 -0.1448  0.0631
45179W        W88092   2.867  19.547  19.090 -0.1428 -0.0494  0.1686
45180W        W88093   2.429  31.661  19.934 -0.1967  0.1180  0.1656
45181W        W88094  27.594  28.156   1.233  0.1836 -0.0306 -0.0510
45182W        W88095  28.432  25.238  17.830  0.1141 -0.0233  0.0442
45183W        W88096   8.846  23.178  25.407  0.1933  0.0466 -0.0749
45184W        W88097  26.430  28.862   5.288  0.0590  0.1615  0.0388
45185W        W88098  24.196  24.740  23.832  0.0017 -0.0830 -0.2246
45186W        W88099  33.713  23.432  23.414 -0.2775  0.0801 -0.2127
45187W        W88100  29.051  31.280   0.895  0.1997  0.0767  0.2683
45188W        W88101   4.640  24.541   1.983 -0.3612 -0.0959 -0.0126
45189W        W88102  28.354  27.203   1.988  0.1634  0.1778  0.3075
45190W        W88103  23.768   1.551  28.447 -0.0959  0.2742 -0.0941
45191W        W88104  23.418   7.352  27.355 -0.0975  0.0764 -0.1284
45192W        W88105  32.448  29.475  29.611 -0.0027  0.0220 -0.1975
45193W        W88106  33.501  22.703   8.245 -0.1002 -0.0358  0.0093
45194W        W88107  33.558   5.570  24.610 -0.2043 -0.0716 -0.1670
45195W        W88108  19.848  28.440   2.962  0.1870 -0.1375  0.2068
45196W        W88109  31.820   3.071  28.227 -0.2578  0.2164 -0.2578
45197W        W88110  31.752  10.613   6.980 -0.0185 -0.1883 -0.1234
45198W        W88111   6.233  25.779   7.604 -0.3803  0.0405 -0.1189
45199W        W88112   1.038  30.234   1.776  0.0745  0.0399 -0.0151
45200W        W88113   3.597   5.868   4.289  0.1488  0.0759 -0.0937
45201W        W88114  31.504  32.763   2.637 -0.0584  0.0077  0.0989
45202W        W88115  29.549  29.688   1.538  0.0542  0.0256  0.1944
45203W        W88116  24.739  31.982  16.091  0.0007  0.0453  0.0010
45204W        W88117   2.953  30.776  18.862 -0.2758 -0.1657  0.1572
45205W        W88118  16.005   4.269   5.087  0.2783 -0.0386  0.0717
45206W        W88119   5.500   2.187   4.434  0.0247  0.0743 -0.0445
45207W        W88120  32.157  30.393  17.876  0.0956  0.0849  0.2059
45208W        W88121  32.879  34.182  26.490  0.2092  0.0646 -0.0323
45209W        W88122   9.459  16.820  25.478  0.0440  0.3218  0.3949
45210W        W88123  33.298  24.265  16.929 -0.1315 -0.2876  0.0658
45211W        W88124   5.698  33.222  18.318 -0.1917  0.0438  0.0559
45212W        W88125  20.263  31.556  20.638  0.0153  0.1329 -0.0443
45213W        W88126  32.678  29.835  26.844 -0.0381  0.0125  0.2854
45214W        W88127  29.108   4.378   3.223 -0.0474 -0.1782  0.3289
45215W        W88128  28.306   1.534   0.088  0.0819 -0.2005 -0.3625
45216W        W88129  34.412   1.561   3.057 -0.3682  0.3581  0.1244
45217W        W88130  28.034  28.187  26.898 -0.3436  0.0767  0.1037
45218W        W88131   0.343   2.807   2.901 -0.2052  0.1617 -0.1734
45219W        W88132  33.482  21.266   3.324  0.3038  0.2090 -0.1736
45220W        W88133  31.352  25.566  25.151  0.1643  0.0864  0.0867
45221W        W88134  29.939  29.163   9.097  0.1421  0.1282  0.1577
45222W        W88135  17.833   5.644  27.586  0.2672  0.1327  0.0737
45223W        W88136   1.301   3.949  17.021  0.1450  0.4381 -0.1955
45224W        W88137   2.666  22.565  22.707  0.1278 -0.0582 -0.0325
45225W        W88138  30.957  22.931  29.495 -0.0367 -0.5055  0.3126
45226W        W88139  24.097  30.430  21.162 -0.1397  0.0086  0.0652
45227W        W88140  27.174   0.757   5.362 -0.1498  0.0627  0.1529
45228W        W88141  31.254  31.866   1.585 -0.1359 -0.2919  0.1952
45229W        W88142   2.441   4.743   9.719  0.0970 -0.1380 -0.1140
45230W        W88143  31.410  28.602   0.848  0.1407  0.2397 -0.2340
45231W        W88144   3.103  25.540   0.744 -0.1824 -0.3431 -0.1399
45232W        W88145  32.026  21.655   2.556 -0.2129 -0.1629 -0.0296
45233W        W88146   0.747  26.035  28.287  0.0680 -0.0965 -0.3992
45234W        W88147  33.641  29.450  19.997 -0.2975 -0.2052  0.2268
45235W        W88148  30.003  32.166   9.133 -0.4134  0.0840 -0.1613
45236W        W88149   5.814   6.071  27.859 -0.2388 -0.1841  0.1135
45237W        W88150  31.961  25.598   8.696  0.1436  0.2955  0.0301
45238W        W88151  33.136  20.689  19.756 -0.2251 -0.1289 -0.2253
45239W        W88152  32.760  25.495  22.632 -0.3162 -0.2015 -0.2663
45240W        W88153  27.414  30.190   5.926  0.2742 -0.1899  0.0641
45241W        W88154  30.724  31.790   2.137  0.0041  0.0695 -0.2329
45242W        W88155  32.428   0.786  19.595  0.2858  0.3624 -0.2953
45243W        W88156  32.670   0.969   3.294  0.1047  0.1007  0.0286
45244W        W88157  19.992  26.568   0.005  0.1854 -0.2375  0.3016
45245W        W88158   5.872   3.316   0.959  0.3233 -0.0938  0.3447
45246W        W88159  22.341  31.036  14.865 -0.1170 -0.1387  0.0175
45247W        W88160  31.871  27.569   5.049 -0.2554 -0.0455 -0.2037
45248W        W88161   6.283  30.774  27.767 -0.0467 -0.2591  0.1849
45249W        W88162  11.970  34.351   3.872  0.0165  0.1303 -0.0821
45250W        W88163  30.922  24.383   1.355 -0.0614  0.3615  0.0444
45251W        W88164  31.278  33.362  20.271 -0.0231 -0.0530 -0.4253
45252W        W88165  33.698   5.100   1.156 -0.3185 -0.1817  0.0963
45253W        W88166  28.050  32.119  24.842 -0.2728 -0.2392  0.1296
45254W        W88167   4.466  32.402  19.928 -0.0219 -0.1160  0.0467
45255W        W88168  33.431  18.850  29.348  0.0184 -0.3114 -0.0869
45256W        W88169  32.371   5.950  28.938 -0.0061 -0.0250  0.2654
45257W        W88170  28.171  23.164   0.466 -0.0979 -0.3936  0.1983
45258W        W88171  28.632  12.360   1.529 -0.2407  0.1903 -0.1130
45259W        W88172  30.619  21.475  17.141  0.0146  0.0050 -0.0628
45260W        W88173   1.117   2.446  15.772 -0.1878  0.1989 -0.0079
45261W        W88174   9.454  32.117  27.563 -0.2220  0.3092 -0.2197
45262W        W88175  23.021  29.586  16.271  0.2938  0.0810 -0.2735
45263W        W88176   5.184  29.788   0.649  0.4016 -0.0140 -0.0198
45264W        W88177  27.070   5.096  17.965 -0.1229  0.3349 -0.0565
45265W        W88178  30.847   3.877  20.209  0.3615 -0.1782 -0.0399
45266W        W88179  27.776   3.816  17.641  0.2470 -0.2294  0.1447
45267W        W88180  33.895  17.602  20.263 -0.1917 -0.2963  0.1712
45268W        W88181  33.200  27.975  25.568  0.2216  0.0070  0.2369
45269W        W88182  33.454  26.883  20.618  0.1411 -0.2012 -0.0362
45270W        W88183  19.169   7.402  24.863 -0.4676  0.3517 -0.0195
45271W        W88184  29.317  21.975  16.665 -0.1478  0.1574  0.0408
45272W        W88185  32.966   0.041  14.990 -0.4989  0.0349  0.1667
45273W        W88186  22.909   4.379   6.408 -0.1273 -0.1357  0.0480
45274W        W88187  21.638   7.808  19.906  0.1999 -0.4340  0.1202
45275W        W88188  23.167  29.821  17.422  0.0666  0.0302  0.3298
45276W        W88189  32.107   2.653  27.741  0.0500 -0.3569 -0.0547
45277W        W88190  24.739  32.546  21.827  0.0431 -0.2727  0.2751
45278W        W88191  28.054  22.990  13.652  0.2088  0.0936 -0.1037
45279W        W88192  33.136   5.874  24.585 -0.0016 -0.0787  0.1494
45280W        W88193   2.318  33.064  18.210  0.0372  0.0522 -0.2675
45281W        W88194  26.047  32.114  16.476 -0.2166  0.0273  0.0577
45282W        W88195   0.548  24.460  19.920  0.0366  0.0384 -0.1910
45283W        W88196  27.723  11.656  19.368 -0.0128 -0.2976  0.0665
45284W        W88197  24.802  19.844  17.273  0.1018  0.0433  0.1172
45285W        W88198  27.551   7.273  22.183 -0.0158  0.0827  0.0017
45286W        W88199  27.729  34.432  26.903 -0.1213 -0.0834 -0.2818
45287W        W88200  21.503  31.418   0.967  0.0009 -0.3244  0.0667
45288W        W88201  25.435   0.610  24.987  0.0350 -0.2101 -0.0230
45289W        W88202  26.958  33.207  16.585 -0.1494 -0.0406 -0.2613
45290W        W88203   5.712  32.467  25.164 -0.0175  0.1476  0.1401
45291W        W88204  23.102  25.392  21.570 -0.2485 -0.1237 -0.0751
45292W        W88205  24.899  13.095   1.823  0.0677 -0.2290  0.1880
45293W        W88206  23.569  26.227  18.707 -0.2082 -0.2969 -0.2017
45294W        W88207  21.885   2.988  19.937 -0.1889 -0.0266 -0.0721
45295W        W88208  31.591  27.071  19.356 -0.5641 -0.0088 -0.0637
45296W        W88209  31.785   5.428  21.302 -0.2461  0.0070 -0.0937
45297W        W88210   1.214   0.043  19.096 -0.1030 -0.2693  0.0379
45298W        W88211  29.375  33.004  17.185 -0.0890  0.1663  0.1789
45299W        W88212  33.074  30.806  19.051 -0.2216 -0.1798 -0.2965
45300W        W88213  31.094  29.839  15.546 -0.1252  0.4440  0.2218
45301W        W88214  29.223  30.237  19.363  0.0976 -0.0622  0.1528
45302W        W88215  31.028  34.353  19.066 -0.0734 -0.2064 -0.1506
45303W        W88216  28.907  25.733  15.229  0.3256  0.1162  0.0335
45304W        W88217   0.848   3.889  19.269 -0.0640  0.0235 -0.0946
45305W        W88218  17.684  21.486  14.495 -0.0270  0.0792 -0.0921
45306W        W88219  31.253   1.902  15.459  0.0636 -0.2021 -0.0609
45307W        W88220  29.892  25.811  14.470  0.1089  0.4309 -0.1353
45308W        W88221  22.686  32.077  13.821 -0.0270  0.0145  0.1629
45309W        W88222   1.951   0.937  19.071  0.1336 -0.0965 -0.1051
45310W        W88223  25.119   0.250  21.007  0.2388 -0.3268  0.2303
45311W        W88224  23.484  28.276  17.509  0.3136  0.0408 -0.2692
45312W        W88225  30.438   8.567  21.018  0.2133  0.1538 -0.1886
45313W        W88226  31.076   3.390  29.266  0.2965  0.0938  0.1466
45314W        W88227  22.633  31.348  26.505  0.0457  0.2153 -0.0640
45315W        W88228  26.699  29.313  26.791  0.1191  0.1029  0.1200
45316W        W88229  29.406   3.195  18.048 -0.0058 -0.0580  0.0082
45317W        W88230  32.166   7.930  18.806  0.2923  0.3751  0.0138
45318W        W88231  27.134  25.490  18.608  0.1328  0.0058  0.2074
45319W        W88232  22.288  34.116  23.034 -0.3412  0.1462 -0.0513
45320W        W88233  17.809   2.831  17.176  0.1055  0.1727 -0.1997
45321W        W88234  23.916   0.381  24.718  0.0862 -0.1380  0.2584
45322W        W88235   0.691  22.315  17.316  0.1024  0.2295 -0.2194
45323W        W88236  21.623   1.713  14.819 -0.0845  0.0277  0.0996
45324W        W88237  26.151   0.934  17.740 -0.0597 -0.2317  0.3891
45325W        W88238  20.537  24.821  16.929 -0.0117 -0.1630 -0.1142
45326W        W88239  31.572  33.101  16.205 -0.1404  0.1235 -0.1878
45327W        W88240   2.166  31.212  15.240  0.0014 -0.1289  0.3591
45328W        W88241   0.717   2.315  16.943 -0.1632 -0.0788  0.1519
45329W        W88242  19.073  30.434  21.177 -0.1385 -0.4098  0.3122
45330W        W88243   1.689  28.464  14.911  0.1394 -0.1777 -0.0959
45331W        W88244  28.807   1.786  27.601 -0.3990  0.0597  0.2122
45332W        W88245  31.197   1.286  18.753 -0.3785  0.0386 -0.3116
45333W        W88246  29.665  28.329  14.119 -0.1708  0.0335 -0.3437
45334W        W88247  31.865  31.860  17.876 -0.1363  0.0207  0.3043
45335W        W88248   7.988  32.919  20.924  0.0663  0.3199 -0.0617
45336W        W88249  26.074   4.633  20.277 -0.0319 -0.0769  0.1428
45337W        W88250  32.728   4.049  25.534 -0.2781 -0.0701 -0.0922
45338W        W88251  27.184  27.126  18.950  0.2236  0.0349 -0.0988
45339W        W88252  22.960   3.622  16.822 -0.1329  0.0396 -0.0848
45340W        W88253   1.436  31.008  22.719 -0.2874  0.2137  0.0876
45341W        W88254  29.329   6.584  23.692  0.3106  0.2776  0.4307
45342W        W88255  30.666  31.380  14.595  0.0679 -0.1444 -0.2116
45343W        W88256  25.782  31.045  22.666  0.3177  0.0592 -0.0234
45344W        W88257  34.332  16.574  24.963  0.0278 -0.0749 -0.1684
45345W        W88258  16.586  33.086  16.787  0.2544  0.3312  0.0746
45346W        W88259  27.654  32.655  19.034 -0.0984  0.1400 -0.0834
45347W        W88260  10.093  27.166  15.612  0.1523 -0.0243 -0.0187
45348W        W88261  24.208   2.978  26.780  0.1109 -0.3634 -0.2690
45349W        W88262  27.048   1.379  19.877  0.3424  0.0801  0.0630
45350W        W88263  19.684  33.886  27.858  0.1238 -0.0200 -0.0759
45351W        W88264  27.323   4.485  20.999 -0.1647  0.2627  0.1828
45352W        W88265  25.467   2.914  19.510  0.0481  0.2309  0.1338
45353W        W88266  25.115   5.663  23.798 -0.0803 -0.0355 -0.0142
45354W        W88267  29.947  33.010  28.555  0.1686  0.2271  0.1127
45355W        W88268  33.905  29.307  25.787  0.2124  0.3454  0.1482
45356W        W88269  18.459   0.518  26.350 -0.1398 -0.3948  0.1601
45357W        W88270  30.360   6.302  22.108  0.1435  0.0704 -0.1666
45358W        W88271  23.038  32.502  24.335  0.1644  0.1569  0.1690
45359W        W88272  32.396   9.594  22.725 -0.0173  0.0965  0.1662
45360W        W88273  30.908   3.349  17.112 -0.1840  0.5642  0.2309
45361W        W88274  26.593   1.416  14.719  0.1528 -0.0308  0.0367
45362W        W88275  28.463   1.028  19.284  0.2643 -0.1188 -0.1564
45363W        W88276  16.171   0.949   2.652 -0.0129 -0.0564 -0.0038
45364W        W88277  34.063  28.811  15.928  0.1234  0.0308 -0.0984
45365W        W88278  23.484   3.019  18.173 -0.1492  0.3587 -0.1009
45366W        W88279   1.990  28.927  24.407 -0.2658  0.1619 -0.2231
45367W        W88280  31.427   2.838  27.096  0.0685  0.2545  0.0240
45368W        W88281  22.714  31.514  16.530 -0.0182 -0.1513  0.1006
45369W        W88282  29.650   0.485  21.841  0.0932  0.0306  0.2417
45370W        W88283  18.090   0.613  18.155 -0.0385 -0.1981  0.2402
45371W        W88284  32.423  29.369  14.082 -0.0057  0.3611 -0.0679
45372W        W88285   2.246  27.985  17.951 -0.1456  0.2163  0.0052
45373W        W88286  31.786   1.533  22.067  0.0409 -0.2759 -0.0501
45374W        W88287  20.622   0.093  19.869  0.3615 -0.1843 -0.0871
45375W        W88288  25.506  30.783  14.350  0.1160 -0.1274  0.3682
45376W        W88289  31.229  11.912  23.128  0.0363 -0.0161  0.4263
45377W        W88290  22.182  21.261  16.867 -0.0499 -0.0439 -0.0651
45378W        W88291   0.636  25.727  18.999  0.2435 -0.2907  0.4004
45379W        W88292  25.540  31.890  24.157  0.2010 -0.0919  0.0748
45380W        W88293   5.081   0.012  24.728  0.2348 -0.3070 -0.1171
45381W        W88294  23.557  28.426  15.736  0.1370 -0.1522 -0.0040
45382W        W88295  26.439  33.045  23.556  0.0477  0.0404  0.1026
45383W        W88296  28.753  30.636  16.513  0.2459  0.0224  0.0483
45384W        W88297  31.808   0.483  18.788  0.4066 -0.0586  0.1238
45385W        W88298   2.819  19.686  17.324  0.3313 -0.1129  0.1602
45386W        W88299  28.581   4.125  21.102 -0.2088 -0.0500 -0.0738
45387W        W88300  32.926   6.288  16.790 -0.2097 -0.0740 -0.2071
45388W        W88301  30.005   1.860  25.052  0.0463  0.0310  0.0942
45389W        W88302  27.965   7.021  22.566  0.1685 -0.0927 -0.0759
45390W        W88303   1.860   0.986   9.521 -0.1014  0.2642  0.0179
45391W        W88304  30.511  30.355  26.610 -0.2192 -0.3696 -0.0110
45392W        W88305  29.687   7.184  16.673  0.0047 -0.0637  0.1122
45393W        W88306   6.261   1.019  17.274 -0.1641 -0.0276 -0.3047
45394W        W88307  24.287  33.979  26.587 -0.0614 -0.1224  0.2394
45395W        W88308  33.898  30.465  15.438  0.0177  0.4427  0.0916
45396W        W88309  31.391   0.365  17.501  0.1110 -0.0615  0.2411
45397W        W88310   0.476  29.881  19.022 -0.3022  0.2175 -0.2659
45398W        W88311  25.955   2.485  24.240  0.0597  0.2668 -0.0925
45399W        W88312  19.544  23.588  22.988 -0.1179 -0.1189 -0.1653
45400W        W88313   2.199  26.118  20.534 -0.0331 -0.1434  0.1969
45401W        W88314   8.042   3.286  23.877  0.1220  0.1439  0.1339
45402W        W88315  32.403   9.562  20.379  0.0716 -0.0756  0.1682
45403W        W88316   1.593  32.465  17.727 -0.0406  0.1185 -0.2239
45404W        W88317  29.376  32.496  24.386  0.2491 -0.1282 -0.0258
45405W        W88318  33.015   2.836  25.221  0.0961  0.6352 -0.1185
45406W        W88319  27.254  33.149  14.609  0.0462  0.0707 -0.0678
45407W        W88320  21.999  34.352  14.031 -0.0719 -0.1349  0.1719
45408W        W88321  29.154  32.496  21.913  0.0441  0.0676 -0.2678
45409W        W88322  34.229   0.937  19.657 -0.3230 -0.0917  0.0383
45410W        W88323  25.746  28.752  21.308  0.3119  0.0162 -0.3060
45411W        W88324  25.551   7.931  24.114 -0.0327 -0.3350  0.1964
45412W        W88325   0.805  31.619  18.306  0.0026  0.1150  0.1011
45413W        W88326  25.263   1.989  18.111 -0.2974 -0.3015 -0.0103
45414W        W88327  28.814  26.863  19.266 -0.2879 -0.1694 -0.2770
45415W        W88328  30.480  20.390  24.537 -0.1476 -0.1882 -0.3822
45416W        W88329  26.481  33.261  18.398 -0.1472 -0.2091 -0.2342
45417W        W88330  32.058  30.081  15.135 -0.2469 -0.3657 -0.0699
45418W        W88331  33.817   0.587  27.732  0.4424  0.6137 -0.2197
45419W        W88332   0.489   1.262  15.618  0.0181  0.0355 -0.3795
45420W        W88333  26.327   8.246  28.956  0.1322 -0.0473  0.5088
45421W        W88334  26.351   7.401  22.653  0.3588  0.1383  0.1030
45422W        W88335   3.506  32.261  25.796 -0.0129  0.1028  0.2068
45423W        W88336  30.329  32.051  15.706  0.1125  0.1894 -0.3490
45424W        W88337  26.842  25.761  27.486 -0.1740 -0.1925 -0.2679
45425W        W88338  27.295  19.662  17.849 -0.0372 -0.1545 -0.0502
45426W        W88339  22.926  29.667  24.397 -0.3569 -0.0686 -0.2222
45427W        W88340  30.964  18.955  19.463 -0.1101 -0.3544 -0.2313
45428W        W88341  29.993  30.200  16.230 -0.0966  0.0910  0.0044
45429W        W88342  18.173   4.767  21.318  0.1208 -0.2924 -0.2989
45430W        W88343   0.118  32.170  18.190 -0.2831 -0.1070  0.0026
45431W        W88344  32.109  32.452  16.857 -0.0053 -0.0047 -0.2170
45432W        W88345  24.339   2.956  24.220 -0.4833  0.2024 -0.1626
45433W        W88346  30.102   1.979  20.439  0.0943 -0.4218 -0.0031
45434W        W88347  11.601  31.749  26.355 -0.0650  0.0878  0.1087
45435W        W88348  24.032   4.958  29.544  0.1142  0.3922 -0.0979
45436W        W88349  27.836   4.993  22.096 -0.0286 -0.3529  0.1291
45437W        W88350  27.249   4.980  17.129  0.1666  0.1201  0.3326
45438W        W88351  24.131   2.407  16.035 -0.3648 -0.0351 -0.1926
45439W        W88352  31.163  27.793  20.457 -0.1088  0.0492  0.0998
45440W        W88353   3.964  32.725  22.081 -0.1643 -0.1763 -0.0194
45441W        W88354  25.554  28.030   3.136  0.1048 -0.1311 -0.0208
45442W        W88355   3.068  23.366  20.416 -0.0105  0.2279 -0.1502
45443W        W88356  24.053  20.758  17.816  0.0213 -0.1208  0.0498
45444W        W88357  19.777   0.909  16.191 -0.0534 -0.2122 -0.2908
45445W        W88358  30.951  32.140  20.659 -0.0474  0.0852 -0.2403
45446W        W88359   4.813  18.178   1.136  0.0671 -0.1064 -0.0168
45447W        W88360  25.238  29.375  13.848  0.1235  0.2169 -0.1106
45448W        W88361   3.448  33.018  19.348  0.1421  0.0595 -0.1173
45449W        W88362  28.608  16.550  22.625 -0.2070 -0.0610  0.1355
45450W        W88363  19.689   0.363  19.321  0.2405 -0.1875  0.1116
45451W        W88364  28.212   2.758  16.066 -0.5657  0.0452 -0.2302
45452W        W88365  19.521   5.480  21.469 -0.0323  0.1813 -0.0767
45453W        W88366  30.641  32.427  14.977  0.1561 -0.2915 -0.1973
45454W        W88367  34.053  25.142  17.579  0.1412  0.0141  0.0598
45455W        W88368  31.360  32.135  17.262  0.2607 -0.0953  0.2518
45456W        W88369  23.798  21.974  25.309 -0.1495  0.0932 -0.0674
45457W        W88370  30.529   4.722  16.065 -0.1022 -0.0153  0.0099
45458W        W88371  28.937   1.288  19.741 -0.0249  0.1135  0.0120
45459W        W88372  30.704  29.770  16.573 -0.0969  0.3693  0.1083
45460W        W88373   3.574  30.944  19.562 -0.4017 -0.2196  0.1938
45461W        W88374  30.452  24.674  15.187  0.1697 -0.1438 -0.0728
45462W        W88375   0.087  32.685  18.098  0.3201  0.1228 -0.0582
45463W        W88376  31.835   9.275  24.079 -0.4069 -0.1276 -0.0712
45464W        W88377  27.302  33.067  21.785  0.1422 -0.1889  0.1112
45465W        W88378  26.168  32.309  18.806  0.0533  0.1164 -0.0311
45466W        W88379  17.317  33.302  17.693  0.0138 -0.0206  0.0147
45467W        W88380   3.554  31.437  16.057 -0.0687  0.0004  0.0611
45468W        W88381  34.089  32.646  25.339 -0.1635 -0.0575 -0.0976
45469W        W88382  32.660   8.932   1.865  0.1693  0.1560  0.0624
45470W        W88383   1.686  27.119  26.891 -0.2890  0.0211  0.0790
45471W        W88384  21.721   6.828  19.108 -0.0377 -0.1004 -0.4834
45472W        W88385  33.155   2.072  23.111  0.0363 -0.0892 -0.0286
45473W        W88386  30.162  11.034   0.788 -0.2527  0.0966  0.2987
45474W        W88387   4.724   0.933  22.011  0.0649  0.0977  0.1989
45475W        W88388  30.447   1.481  20.167 -0.1533 -0.0042 -0.2463
45476W        W88389  27.562  31.702  25.027 -0.1607  0.0920  0.0068
45477W        W88390  18.984  31.534   4.562 -0.0419 -0.1232  0.1449
45478W        W88391  29.009  27.267  15.916  0.1632 -0.4560  0.1194
45479W        W88392  27.969  28.589   0.878  0.0682 -0.0720 -0.0640
45480W        W88393  14.828   5.388  21.941 -0.0840 -0.1683 -0.0471
45481W        W88394  30.509   2.238  20.881 -0.2879 -0.0292 -0.2050
45482W        W88395   1.064   4.909  21.898 -0.0056 -0.0469  0.1262
45483W        W88396  20.382  23.885   4.767  0.0665  0.0876  0.0683
45484W        W88397   5.562   1.475  18.675 -0.0209  0.0530 -0.1999
45485W        W88398  26.324   6.578  24.752 -0.1169 -0.0350 -0.0738
45486W        W88399   4.667  33.858  19.272 -0.2039 -0.1736 -0.2969
45487W        W88400  28.987  33.138   5.744 -0.2086  0.0218 -0.0191
45488W        W88401  25.007   1.603   3.567  0.0320 -0.1360  0.0615
45489W        W88402  27.656  29.950  20.987  0.0759  0.2096 -0.0141
45490W        W88403  24.431   3.285   3.044  0.0418  0.0754  0.1039
45491W        W88404   0.319  27.906  21.031  0.0801  0.1580 -0.1779
45492W        W88405  28.572  26.842  29.386 -0.0748  0.1611 -0.0928
45493W        W88406  25.214   0.907  20.942 -0.3486 -0.1208  0.1695
45494W        W88407  25.590  22.695  16.940 -0.1062 -0.2528 -0.0734
45495W        W88408   4.099  30.115  22.859 -0.0459  0.0821 -0.2051
45496W        W88409  29.722   8.304  27.824 -0.1188  0.0086 -0.0695
45497W        W88410   0.701   0.599  27.017 -0.1629 -0.0488  0.3822
45498W        W88411   3.559   5.299   0.379 -0.0505 -0.0469  0.0033
45499W        W88412  33.179  33.265  23.812 -0.0714 -0.4478 -0.1381
45500W        W88413  31.465  33.539  28.141 -0.0737 -0.1028  0.4498
45501W        W88414  32.593   4.233  19.333 -0.4456 -0.0344  0.2214
45502W        W88415  34.389  30.120  21.837  0.4156  0.1446  0.2103
45503W        W88416  14.646  33.005   8.765 -0.0384 -0.0408 -0.0629
45504W        W88417  29.796  29.141   3.593  0.1921 -0.0337  0.2299
45505W        W88418  22.448  33.780  13.487 -0.0930  0.1716 -0.0965
45506W        W88419  32.801  27.190  18.178 -0.0676  0.0967 -0.1299
45507W        W88420  28.245   3.550  27.512 -0.0593  0.2463  0.0116
45508W        W88421  22.848   1.406  13.951  0.1743 -0.0686 -0.3172
45509W        W88422  29.270   7.156  26.096  0.0376 -0.0483  0.2375
45510W        W88423  30.011   5.313  27.490 -0.2356  0.1128  0.1800
45511W        W88424  32.182  28.165  22.950 -0.3438 -0.0653 -0.0408
45512W        W88425  29.295  31.888  18.160  0.0798 -0.0160 -0.0867
45513W        W88426   4.455  33.215  26.038 -0.0035 -0.0948 -0.3607
45514W        W88427  29.426   4.268   4.428 -0.1617 -0.1509  0.1888
45515W        W88428   1.035   8.454  16.359 -0.0820 -0.0921 -0.1096
45516W        W88429  22.088   3.538  23.119  0.0570  0.1333  0.1412
45517W        W88430  31.557  15.115  28.111 -0.2506 -0.0520 -0.0212
45518W        W88431  25.156  28.425  17.435 -0.0557  0.0339  0.2193
45519W        W88432  34.172  28.163  24.411 -0.0985  0.2132  0.0943
45520W        W88433   3.329  33.992  18.368  0.0248  0.2037 -0.3395
45521W        W88434  11.883  24.272   0.325 -0.2042 -0.0156 -0.1196
45522W        W88435  28.469   5.477  26.489  0.1870 -0.0963  0.1931
45523W        W88436   5.552  33.307  25.715  0.2926 -0.2575  0.0532
45524W        W88437  24.666  29.880  25.607  0.1783 -0.2494  0.0027
45525W        W88438  23.434   8.303  22.504  0.1562  0.1061  0.0552
45526W        W88439  23.409   6.965  26.976  0.0678  0.1970  0.0614
45527W        W88440  24.848  27.946  24.645  0.0132 -0.0980  0.0899
45528W        W88441  30.735  28.704  16.042  0.2256 -0.3344  0.0133
45529W        W88442  24.525  32.745  13.824  0.3730 -0.2740 -0.0267
45530W        W88443  25.720   0.642  27.389  0.4469 -0.0553 -0.0548
45531W        W88444  20.330  33.569   1.242  0.0465  0.2946  0.1500
45532W        W88445  22.713  25.183  25.595  0.3153  0.1726  0.2172
45533W        W88446  25.176  25.191   0.201 -0.1045 -0.1070 -0.0597
45534W        W88447  26.137  28.782   4.038  0.1688  0.2735 -0.2496
45535W        W88448  30.477  34.447  17.775  0.0605  0.2564 -0.0449
45536W        W88449  25.693  32.560  20.173 -0.2162  0.1362  0.2308
45537W        W88450  33.345   0.669  15.915  0.0981 -0.1133  0.2498
45538W        W88451  33.488  21.757  21.740  0.1156 -0.1307 -0.1591
45539W        W88452  31.621  32.628  28.997 -0.1118  0.3529 -0.5515
45540W        W88453  22.107  31.123  21.309 -0.0017 -0.2452 -0.1525
45541W        W88454   1.595  30.383  23.442  0.1882 -0.1299  0.2324
45542W        W88455  30.935   0.938  19.665  0.0169 -0.1709  0.0069
45543W        W88456   2.824  30.451  24.955  0.1015  0.0792  0.2131
45544W        W88457   3.899  23.650  21.199 -0.4073  0.1139  0.2367
45545W        W88458  19.449  33.430  24.230 -0.0005  0.1919 -0.1749
45546W        W88459  29.050  30.868  24.142 -0.0045 -0.1425 -0.2286
45547W        W88460  31.519  34.267  20.774 -0.0668  0.2495 -0.2604
45548W        W88461  29.123  25.924  17.685  0.0142 -0.1865 -0.0538
45549W        W88462  28.022  34.230  18.060 -0.1131  0.1354 -0.0181
45550W        W88463  23.301   3.465   1.156 -0.2541  0.2018  0.2867
45551W        W88464  30.285  30.770  18.546  0.2480 -0.0194  0.1528
45552W        W88465  21.853  33.700  24.473 -0.1256  0.1573  0.1829
45553W        W88466  33.323   3.951  28.492 -0.2981  0.0577  0.3771
45554W        W88467   1.839  34.307  18.389  0.1610 -0.0286 -0.1015
45555W        W88468  14.782   1.669  16.288  0.2571 -0.0401  0.2432
45556W        W88469  25.462  34.194  18.998  0.0063 -0.5250  0.1138
45557W        W88470  31.549   8.201  22.831  0.5531  0.0726  0.1383
45558W        W88471  33.752  29.333   1.851  0.2355  0.1007  0.0264
45559W        W88472  31.566   8.596  17.721 -0.0848  0.1877 -0.0119
45560W        W88473  34.401  25.955  15.050 -0.1115  0.3432  0.1115
45561W        W88474  20.964   2.868  24.399  0.1465 -0.0512  0.1472
45562W        W88475  24.640   5.751   2.544 -0.0510 -0.0033  0.2979
45563W        W88476  22.594   9.392   3.019  0.0765 -0.2522  0.0531
45564W        W88477  29.983  23.628  16.585 -0.1625 -0.0357 -0.1410
45565W        W88478  28.018  31.989  15.044  0.0330 -0.1569  0.0086
45566W        W88479  29.672   5.551  17.343 -0.0644  0.0938 -0.2056
45567W        W88480   1.494   9.281   3.041  0.1136  0.0446 -0.4354
45568W        W88481   1.097  31.440  26.122  0.0551  0.2102  0.1476
45569W        W88482  22.783   2.180  25.093 -0.0570 -0.2216 -0.1838
45570W        W88483   0.669  29.253  24.797 -0.0365 -0.0882 -0.0124
45571W        W88484  33.218  34.259   2.938 -0.0109  0.0238 -0.1041
45572W        W88485   2.709   2.735  18.655  0.1711 -0.2219  0.4128
45573W        W88486   6.038  29.437  17.062  0.2135  0.2021  0.0692
45574W        W88487  34.247   4.302  26.894 -0.0466  0.0785  0.1923
45575W        W88488   1.637  23.485  15.255  0.2949  0.1305  0.1250
45576W        W88489  32.394  34.427  27.104 -0.2988 -0.0572 -0.1479
45577W        W88490  30.630  34.180  26.325 -0.1775  0.1610 -0.1937
45578W        W88491  31.284  33.349  20.847  0.0094  0.0476  0.0987
45579W        W88492   2.187   2.676  25.786 -0.3643 -0.0916  0.2245
45580W        W88493  27.323  10.335   1.546  0.3209  0.0446 -0.2145
45581W        W88494  28.366  25.258  19.750 -0.0158 -0.1929 -0.1901
45582W        W88495  26.089  33.990  25.772 -0.0497  0.0277  0.0975
45583W        W88496  20.055   0.898  24.750 -0.1861  0.0022  0.3333
45584W        W88497  28.349  23.011  28.189  0.2191  0.1761 -0.3697
45585W        W88498  30.206  25.308  18.248  0.1066 -0.2187  0.1028
45586W        W88499   5.927  25.750  24.334 -0.1733 -0.0685  0.0547
45587W        W88500  28.030  34.445  28.149  0.0410 -0.0833  0.2464
45588W        W88501  34.120  24.974  13.799  0.1464  0.1891  0.0620
45589W        W88502  30.739   1.639  27.061  0.1575 -0.2357 -0.0547
45590W        W88503  34.318  25.207  17.999 -0.1008 -0.1355 -0.0976
45591W        W88504   0.357  30.121  21.707 -0.2835  0.2502 -0.1870
45592W        W88505  26.183  27.931  15.262 -0.0507 -0.2269 -0.0283
45593W        W88506   6.091  22.814  20.382 -0.3156  0.1207  0.0894
45594W        W88507  30.388  30.981  27.646  0.0715 -0.1916 -0.1202
45595W        W88508   7.816  31.153  25.307  0.2484  0.1938 -0.2225
45596W        W88509  22.152   1.900  15.302  0.1240  0.0714  0.0632
45597W        W88510  28.333  29.812  16.920 -0.0085 -0.3279  0.4822
45598W        W88511   1.777  29.323  23.850 -0.3921 -0.3205 -0.3045
45599W        W88512  21.758   1.024  13.564 -0.3524 -0.0532 -0.0709
45600W        W88513   4.732  28.944  25.422  0.0335  0.1700 -0.0866
45601W        W88514  32.731  31.294  17.800  0.1458 -0.0346 -0.0413
45602W        W88515  18.057   2.488  14.769  0.1843 -0.1389  0.2637
45603W        W88516  30.343   0.614  25.952  0.0594 -0.0175 -0.1162
45604W        W88517  13.600   0.843  26.453  0.0762  0.1472 -0.3236
45605W        W88518  25.544   0.090  14.367 -0.2126  0.2354 -0.1819
45606W        W88519  34.087  26.011   4.107 -0.2551  0.3402 -0.0651
45607W        W88520  23.323  29.824  28.174  0.2186  0.2469 -0.0594
45608W        W88521   1.108   5.926   0.930 -0.0127 -0.1894  0.0480
45609W        W88522  26.110   7.764  10.144  0.2780 -0.1031  0.0314
45610W        W88523  32.622  25.224  17.374  0.1875  0.0441  0.0462
45611W        W88524  19.816   4.159  15.110 -0.0105 -0.4463  0.1249
45612W        W88525  28.144   8.236  23.530  0.2308 -0.0041 -0.0066
45613W        W88526  25.493  21.985  27.317  0.0243 -0.1145  0.2238
45614W        W88527  34.225  22.872  20.423 -0.1550 -0.1903  0.0041
45615W        W88528  27.251  25.808  26.212  0.0878 -0.3167  0.0037
45616W        W88529   3.061   5.709  26.874  0.2265 -0.2137 -0.0688
45617W        W88530  29.640   8.385  19.867 -0.1588  0.2711 -0.0475
45618W        W88531  32.252  33.904  17.333 -0.2144 -0.1063 -0.0878
45619W        W88532   2.150   7.617  23.072  0.2614 -0.2884 -0.3183
45620W        W88533  29.726  25.770  19.323 -0.0525  0.4586  0.0956
45621W        W88534  34.105  27.249  25.802 -0.0912  0.2048  0.0253
45622W        W88535  27.956   2.315  15.624  0.0428 -0.1942 -0.0947
45623W        W88536  27.161  26.775  17.054  0.3932 -0.0653 -0.1664
45624W        W88537  31.627  31.944  14.411  0.0012  0.2993 -0.3347
45625W        W88538   2.490   5.947  19.128 -0.0054 -0.2314 -0.2523
45626W        W88539   1.091  34.086  22.119  0.2067 -0.1302  0.0283
45627W        W88540  32.376  27.973  13.596 -0.0264 -0.1916  0.0216
45628W        W88541  29.840   5.591  26.056 -0.0445  0.0167  0.2381
45629W        W88542   2.989  31.640  18.221  0.1909 -0.2789  0.3887
45630W        W88543  29.607  33.430  28.584  0.1005 -0.4196 -0.0175
45631W        W88544  27.411  34.446  22.928  0.1530  0.1772 -0.1929
45632W        W88545  27.736  32.333  28.247 -0.0256 -0.1681  0.0155
45633W        W88546  31.373   0.067  23.642  0.1047  0.1672  0.3077
45634W        W88547   1.650  34.263   0.780  0.1898 -0.0729 -0.0301
45635W        W88548  26.247   3.457  17.798  0.3865 -0.1451 -0.0693
45636W        W88549  23.195  32.853  25.718 -0.0366 -0.4229 -0.2591
45637W        W88550  31.992  29.254   1.712 -0.3234  0.2894  0.0092
45638W        W88551   9.030   0.224   0.751 -0.0149 -0.0557  0.1347
45639W        W88552  18.372  33.336  22.058 -0.1952  0.5016  0.5566
45640W        W88553  19.408   4.139  25.320  0.1501 -0.3262  0.0205
45641W        W88554  30.514   6.771   3.195  0.0276  0.1043  0.1539
45642W        W88555  21.364   6.768  18.754  0.2284  0.0367 -0.0549
45643W        W88556   7.779   0.039  21.462 -0.0808 -0.0535  0.0778
45644W        W88557  27.250  10.285  20.654  0.0903 -0.2161  0.3334
45645W        W88558   4.721  18.775  18.634 -0.0539 -0.0317 -0.0614
45646W        W88559  30.681   8.066  16.612  0.1868 -0.2477  0.0947
45647W        W88560   1.212  29.823  16.915  0.2798  0.0426  0.2464
45648W        W88561   0.627  33.840  23.716 -0.1120 -0.2220 -0.1503
45649W        W88562  31.787   3.324   6.543  0.0883 -0.1992  0.2167
45650W        W88563   6.346  10.228  21.960 -0.0343  0.0976  0.0988
45651W        W88564  28.822  25.722  21.869  0.0874  0.0520 -0.2498
45652W        W88565   8.965  27.034  28.331 -0.2439 -0.1695  0.1331
45653W        W88566   3.664   4.245  20.420 -0.0071  0.2256 -0.0624
45654W        W88567  25.715   4.126  22.573 -0.0080  0.0963  0.1054
45655W        W88568  32.555   6.417  28.925  0.1062  0.0534  0.1992
45656W        W88569  24.836   2.869  24.167  0.0545  0.2382  0.0235
45657W        W88570  32.783  28.618  22.677  0.0703  0.1298  0.2625
45658W        W88571  24.346   0.819  15.323  0.0030  0.2363 -0.4333
45659W        W88572  18.565  34.076  21.578  0.3747 -0.2712 -0.2632
45660W        W88573  16.277   1.740   0.743 -0.0111 -0.3904 -0.2022
45661W        W88574  18.738  33.509  18.094  0.1327  0.1668  0.2115
45662W        W88575  23.158   7.902   0.982 -0.2439 -0.0502 -0.0719
45663W        W88576   4.029  25.181   2.136  0.1879  0.1868 -0.1535
45664W        W88577  27.293  10.340  23.409  0.0233  0.0047  0.0575
45665W        W88578   0.433   7.580   3.165 -0.2870 -0.1203 -0.4237
45666W        W88579  25.023   3.227  19.645 -0.3555 -0.0690 -0.1264
45667W        W88580  25.339   4.470  16.146 -0.1096  0.2215 -0.0803
45668W        W88581   1.537   8.982  15.589  0.2288  0.0559 -0.0384
45669W        W88582  32.080  28.359  23.957 -0.0369  0.0697 -0.1293
45670W        W88583  31.962   9.676  20.144 -0.0176  0.0027  0.0109
45671W        W88584  21.655  19.486  21.772  0.2171 -0.0041 -0.1735
45672W        W88585   1.088   5.600   4.932 -0.1000 -0.2600  0.0782
45673W        W88586  22.131  30.489  17.251  0.1562 -0.1303  0.1812
45674W        W88587   3.615  29.352  23.541 -0.2765 -0.0293  0.2688
45675W        W88588  11.792  30.116  16.299  0.0462  0.1337 -0.0622
45676W        W88589  22.765  33.057  28.896  0.0754  0.3897  0.0448
45677W        W88590  33.409  27.869  23.724  0.0114 -0.0975  0.0096
45678W        W88591  26.644   1.554  20.201  0.0366 -0.0235  0.1202
45679W        W88592   5.396  25.373  19.507  0.3585 -0.1141  0.1314
45680W        W88593   0.433   3.622  19.433  0.0923  0.0444 -0.0836
45681W        W88594   1.545  31.612  16.219  0.1659 -0.0608  0.1060
45682W        W88595  30.082   8.048  18.798  0.0562 -0.5561  0.1513
45683W        W88596  29.908  24.722   3.195 -0.1194  0.1205  0.1404
45684W        W88597   9.216   2.973  25.852 -0.2550  0.4066 -0.2643
45685W        W88598  21.630   6.529   2.068 -0.0081 -0.2049  0.0191
45686W        W88599   3.404  27.495  18.273  0.0655  0.0216 -0.0209
45687W        W88600  26.096  15.426  23.122  0.0097  0.2116  0.1129
45688W        W88601  25.363  33.419  25.556  0.0319 -0.1885  0.2613
45689W        W88602  32.030   5.189  18.389 -0.0523  0.1504 -0.3797
45690W        W88603  33.681   0.982  21.746  0.0349  0.2069 -0.0699
45691W        W88604   0.242  32.727  15.507  0.0155 -0.1844 -0.0268
45692W        W88605   4.902   3.379  29.426 -0.3644 -0.1053  0.2753
45693W        W88606  25.061  28.508  25.955 -0.0435 -0.1281 -0.2531
45694W        W88607  29.576   4.883  24.274  0.1382 -0.0075  0.1559
45695W        W88608   0.966  29.253  21.741  0.0268 -0.2111 -0.0499
45696W        W88609  29.914   0.557  27.179  0.2764 -0.0543 -0.1997
45697W        W88610  32.776  21.394   0.555  0.1037  0.2453  0.4716
45698W        W88611   8.187   5.298  24.933 -0.1514 -0.1745  0.2633
45699W        W88612  20.824   2.105  25.235 -0.2263 -0.4737  0.1089
45700W        W88613  22.674  29.240   2.469  0.2401  0.1588 -0.1918
45701W        W88614  13.207  17.325  21.951 -0.1684 -0.3660 -0.0874
45702W        W88615  26.921  29.444   6.348 -0.2316 -0.0371  0.0883
45703W        W88616  28.758   4.574   1.068  0.0910 -0.2858 -0.0049
45704W        W88617   3.227  21.849  16.359  0.0149  0.0396  0.0002
45705W        W88618  27.640   7.045  25.017 -0.2151 -0.2313 -0.2663
45706W        W88619   1.706  33.858   3.176 -0.0406  0.1275 -0.0238
45707W        W88620  28.087  33.490   1.477  0.1612 -0.0905  0.2537
45708W        W88621   7.113   5.098  26.426  0.4765 -0.3509 -0.0229
45709W        W88622  28.867  12.607  28.745 -0.1377  0.2891  0.1125
45710W        W88623  20.544  34.286  21.192 -0.3126 -0.0192 -0.1949
45711W        W88624  34.206  24.836  21.532  0.1766  0.0024 -0.1054
45712W        W88625   3.821  29.799   2.379 -0.0135 -0.0114 -0.3417
45713W        W88626  33.675   3.090  24.389 -0.0447  0.1218  0.0201
45714W        W88627  29.017  15.455   6.496  0.2257  0.1807  0.2336
45715W        W88628  32.320   3.825  21.319 -0.4247  0.3495 -0.0815
45716W        W88629  32.850  31.140   0.669  0.0036  0.0483  0.5472
45717W        W88630   3.756  32.529  19.174  0.0995 -0.0258  0.2112
45718W        W88631  25.077  25.263  24.691  0.1713 -0.0835  0.1794
45719W        W88632  27.679  34.492  27.806  0.0412 -0.1151  0.3785
45720W        W88633  33.631  31.688  28.601 -0.0915  0.3525  0.1591
45721W        W88634  23.422  27.471  18.938 -0.1789 -0.0282 -0.0628
45722W        W88635  21.898  25.579  17.595  0.0764  0.0228  0.2109
45723W        W88636  31.088   4.822  19.380  0.0240 -0.1424  0.1581
45724W        W88637  26.483   5.107  21.596 -0.1277  0.0130 -0.0054
45725W        W88638  31.315  27.916  20.889  0.1656 -0.1965 -0.0201
45726W        W88639  23.767  12.261  25.476  0.0027 -0.2594 -0.1931
45727W        W88640  13.462  27.910  22.875 -0.1971 -0.3551  0.2870
45728W        W88641  30.581  26.400  23.797 -0.2859  0.1993  0.1239
45729W        W88642  28.305   2.045  15.013 -0.1708  0.4631 -0.1280
45730W        W88643  13.934   1.256  29.267 -0.1568  0.0097  0.0370
45731W        W88644  27.728   0.561  28.821  0.1271  0.0828 -0.1579
45732W        W88645  27.093   5.192   1.369 -0.1902  0.0695  0.2302
45733W        W88646  31.060  32.684  21.725 -0.0417 -0.1394  0.0243
45734W        W88647  24.143  29.197  22.444  0.1638 -0.0596 -0.0196
45735W        W88648   0.568  28.514  24.011  0.2043  0.1009  0.1794
45736W        W88649  23.132   2.300  24.768  0.0393 -0.1800 -0.4098
45737W        W88650  34.488  26.839   3.456 -0.1164 -0.1755 -0.1554
45738W        W88651   5.959   5.645  27.802  0.1333  0.0547  0.0870
45739W        W88652  32.348  20.623  23.360 -0.0665  0.0691  0.2831
45740W        W88653  27.583   8.177  19.611 -0.3810 -0.2172  0.2667
45741W        W88654  30.038  30.900   0.085  0.0977  0.0981  0.0226
45742W        W88655  32.888   0.881   7.445  0.0013  0.0736 -0.3836
45743W        W88656   5.771   1.116   1.110  0.4067 -0.0570  0.1511
45744W        W88657  28.655   4.885   5.446  0.0920 -0.3253  0.0020
45745W        W88658  28.265  26.814  15.718  0.0732 -0.1601  0.4777
45746W        W88659  26.637  27.668  23.767  0.1197 -0.4312  0.3573
45747W        W88660  21.728  24.911  27.287 -0.0484  0.2885  0.1045
45748W        W88661   2.824  27.836  29.337 -0.1020 -0.2378  0.1269
45749W        W88662  28.275   2.131  28.520 -0.0663  0.2203  0.2885
45750W        W88663   0.340  33.372  15.963  0.2681  0.0796 -0.0526
45751W        W88664   1.321  24.678  24.588 -0.1106 -0.3051  0.1278
45752W        W88665  21.306   2.157  21.588  0.0646  0.0414  0.0930
45753W        W88666  29.477  31.149   1.352 -0.0721  0.0822  0.1707
45754W        W88667  32.551  30.543  21.877 -0.0197 -0.2835 -0.0868
45755W        W88668  26.756  30.492  25.393  0.2341  0.1861  0.1387
45756W        W88669  31.175   4.445   6.739 -0.5048  0.1908  0.1054
45757W        W88670  29.742  31.944  17.207 -0.1306 -0.1856 -0.1016
45758W        W88671  28.368   1.586  22.703 -0.0075 -0.2298  0.1224
45759W        W88672  27.023  25.384  22.714  0.3075 -0.1147  0.1036
45760W        W88673  29.814  31.446   2.271  0.0023 -0.1171 -0.0052
45761W        W88674   4.117  34.381  21.578  0.0541 -0.1237  0.0103
45762W        W88675  27.755  30.924  14.677  0.0814 -0.1739  0.3708
45763W        W88676  26.009  34.048  15.225 -0.1165 -0.1586 -0.1262
45764W        W88677  12.926  31.010  25.201 -0.1409 -0.0430  0.0345
45765W        W88678  32.219  21.389  15.949 -0.0462  0.1138  0.3334
45766W        W88679  32.488  30.913   3.460 -0.0792  0.3763  0.1303
45767W        W88680  28.831   2.179  21.039 -0.1353 -0.0775 -0.1733
45768W        W88681  33.658  12.836  17.778  0.4409 -0.1265  0.1188
45769W        W88682   2.274   4.602   0.056  0.0201 -0.1426  0.2916
45770W        W88683  31.939   6.068  29.631  0.0962  0.0830  0.1616
45771W        W88684  33.582  32.008  26.237 -0.0047  0.1573  0.0311
45772W        W88685   3.896  32.913  27.296 -0.1533 -0.0845  0.3609
45773W        W88686  27.990  12.679   2.568  0.4745  0.1718  0.0039
45774W        W88687  29.744  22.741  25.217 -0.2276  0.0624 -0.0136
45775W        W88688   2.265   0.024  16.011  0.0859  0.1835 -0.1956
45776W        W88689  29.854  25.511  29.316 -0.0319  0.0041 -0.1190
45777W        W88690  32.534  23.506   8.051  0.0131  0.1818 -0.0540
45778W        W88691   3.349  30.889   0.403  0.1192  0.0387 -0.1111
45779W        W88692  27.530  26.063   4.802  0.2412  0.0949 -0.5269
45780W        W88693  26.787  22.732  22.051  0.0802  0.1758 -0.1091
45781W        W88694  32.780  21.727   0.136  0.1805  0.1917  0.0756
45782W        W88695   5.726  23.150  20.633 -0.0179 -0.3069 -0.0808
45783W        W88696  31.852   9.878  17.018  0.1997  0.1867 -0.0375
45784W        W88697  26.561   7.324  29.764 -0.2117  0.1557  0.1586
45785W        W88698  27.156  33.849  21.082 -0.3188 -0.2030  0.2662
45786W        W88699  15.323   4.286  23.933 -0.1813 -0.0060 -0.1755
45787W        W88700  24.412   0.145  26.423 -0.0712 -0.2288  0.2457
45788W        W88701  29.923   0.862  15.578  0.1635 -0.2311 -0.2307
45789W        W88702  29.538  31.565   0.898 -0.0282 -0.2785  0.1347
45790W        W88703  28.602   3.613  28.047 -0.1851  0.1089  0.0277
45791W        W88704   2.361  30.730  25.693 -0.0811  0.1448  0.0040
45792W        W88705  29.556   6.448  28.885 -0.0913  0.0484 -0.0609
45793W        W88706  33.506  30.233  25.910  0.2979 -0.4542 -0.1715
45794W        W88707  33.361  23.568   1.695  0.0079  0.1966 -0.1409
45795W        W88708  25.612  26.145  29.767  0.0566  0.2200 -0.1860
45796W        W88709  23.820   8.601  28.826 -0.1923 -0.0208  0.4258
45797W        W88710  32.453  33.093   2.694  0.1471 -0.0840 -0.0017
45798W        W88711  34.458  34.106  17.095 -0.2496 -0.0079 -0.0325
45799W        W88712   0.229  25.358  18.873  0.0842  0.1109 -0.1880
45800W        W88713  25.251   2.914  18.040 -0.3341  0.0986 -0.2387
45801W        W88714  26.901   0.118   4.655 -0.1926  0.0140  0.2685
45802W        W88715   1.213   0.504  19.929 -0.2702  0.0350 -0.0503
45803W        W88716  29.290  31.125   2.289  0.0436 -0.3269 -0.1450
45804W        W88717  26.652   7.685   2.478 -0.1554 -0.0015  0.2698
45805W        W88718  33.174   9.189  27.384 -0.1080 -0.0094 -0.0166
45806W        W88719  27.438  25.765  21.616  0.0124 -0.1735  0.0595
45807W        W88720  21.990  24.236  25.384 -0.1447 -0.1207  0.0079
45808W        W88721  34.202  30.233  24.192 -0.0307  0.1621 -0.0846
45809W        W88722  25.760   2.685  26.019  0.0084  0.1153 -0.1911
45810W        W88723   4.039   2.900  29.545 -0.0255 -0.0991  0.1102
45811W        W88724  30.280   1.987  26.642 -0.0432  0.2165  0.3289
45812W        W88725  32.347  26.599  21.353 -0.0824  0.1439  0.0854
45813W        W88726  26.180   6.555  29.658  0.0771  0.0495 -0.1160
45814W        W88727  33.694  27.036  26.017  0.4245 -0.3930 -0.1038
45815W        W88728  30.939  20.636   1.516  0.1071  0.1102 -0.3742
45816W        W88729  27.199   1.250  24.526  0.1106 -0.3319 -0.0273
45817W        W88730  25.393   9.058  29.430  0.2527  0.0392 -0.0642
45818W        W88731  22.879   9.398   3.469 -0.4214  0.2181  0.1844
45819W        W88732  32.160  30.837  23.357 -0.3419  0.1748 -0.2171
45820W        W88733  34.385   1.832  28.694 -0.0919 -0.1225 -0.0538
45821W        W88734   7.083  10.147  28.750  0.2455 -0.0112 -0.2687
45822W        W88735  34.219   2.698  18.668  0.0955 -0.0423  0.0968
45823W        W88736   3.404  23.754  16.362 -0.4709 -0.0268  0.0318
45824W        W88737  27.455  25.815  29.222  0.1083 -0.1152 -0.0614
45825W        W88738  30.882   5.142  16.234 -0.1230 -0.2671 -0.2043
45826W        W88739  30.113  18.972  21.454 -0.1400 -0.1837  0.1132
45827W        W88740   3.504  22.940  19.305 -0.0045  0.1139  0.1194
45828W        W88741  25.616  27.143   3.331 -0.0409 -0.0932  0.0182
45829W        W88742   1.855  24.925   8.616 -0.1126 -0.4829  0.1324
45830W        W88743  26.941   5.315  18.445  0.2494  0.1003 -0.0991
45831W        W88744  32.434  27.080  28.051 -0.0054 -0.0272 -0.0561
45832W        W88745  30.924  30.507  22.712 -0.0241  0.0059  0.0653
45833W        W88746  30.606  29.361   7.175  0.2114 -0.5685  0.2893
45834W        W88747  31.041  27.872  23.192 -0.0374  0.0812  0.2391
45835W        W88748  28.230   2.131  25.721  0.0592  0.2290  0.2270
45836W        W88749  20.139   8.324  25.114  0.0358  0.0668 -0.0806
45837W        W88750  28.724  26.427  26.871  0.0337  0.0822  0.0614
45838W        W88751  32.957   5.776  16.776 -0.1012  0.1933  0.2092
45839W        W88752  23.425  32.457  15.684 -0.3319  0.1544 -0.1074
45840W        W88753   0.258   3.345  21.713  0.0688 -0.0482 -0.1078
45841W        W88754  27.577  24.798   2.366 -0.1223  0.1274  0.1043
45842W        W88755  10.337   8.676  27.199  0.2146 -0.0684  0.3550
45843W        W88756  33.776   2.067  16.656 -0.0519  0.0374 -0.3517
45844W        W88757   0.042   5.961  23.918 -0.3722 -0.0007  0.1774
45845W        W88758  34.116   0.732  22.317 -0.0719  0.3147  0.1465
45846W        W88759  28.978  32.638   9.130  0.1284 -0.0458  0.2708
45847W        W88760  26.394   3.053  22.340  0.2615  0.3423 -0.0982
45848W        W88761   7.088  29.441  23.715  0.1579  0.1332 -0.3205
45849W        W88762  26.927  32.930  21.005  0.0241 -0.4322 -0.1227
45850W        W88763  31.955   8.908  17.889  0.0605 -0.1737  0.1071
45851W        W88764   7.856  23.054  25.636 -0.2483 -0.0735  0.1677
45852W        W88765  28.699   0.942  23.445 -0.0462 -0.1247 -0.0942
45853W        W88766  15.087  11.998  25.682 -0.1097 -0.1814 -0.3023
45854W        W88767  24.335   8.574   1.917 -0.0604  0.1532 -0.1745
45855W        W88768  31.012  26.128  24.213 -0.0400 -0.0044 -0.0164
45856W        W88769  32.542  22.694  25.752 -0.0079  0.0962 -0.0248
45857W        W88770   6.100  28.881  23.160 -0.1278 -0.0812 -0.1314
45858W        W88771  20.218   4.903  25.206  0.0375 -0.1626  0.0534
45859W        W88772  29.368   5.257  15.479 -0.2738  0.3307 -0.1878
45860W        W88773  15.750  14.750  26.152  0.0978  0.0202 -0.0376
45861W        W88774   5.023  24.319  29.461 -0.2766  0.0320 -0.2701
45862W        W88775   4.743  34.111  17.572  0.0322 -0.0224 -0.1371
45863W        W88776  21.227   0.973  22.508 -0.0177 -0.1299 -0.2099
45864W        W88777  21.116   5.224  28.040 -0.1196  0.1284  0.0756
45865W        W88778  29.086  24.088   0.344  0.0705 -0.1362 -0.3489
45866W        W88779   4.588  14.182  25.185 -0.0682 -0.0749 -0.0883
45867W        W88780  22.718   1.099  24.444 -0.0064 -0.1480  0.2191
45868W        W88781  30.646  25.953  28.227  0.4311  0.0319  0.0834
45869W        W88782  24.257   9.724  24.831  0.0365  0.1478 -0.2989
45870W        W88783  30.101  31.898  24.403 -0.4502  0.3177 -0.2150
45871W        W88784  30.270  31.457  24.545 -0.2740 -0.0735 -0.2751
45872W        W88785  22.683  32.166  13.357  0.1546 -0.2060 -0.1771
45873W        W88786  17.770  25.259  20.643 -0.2165  0.1486 -0.0461
45874W        W88787  24.460  30.558  29.036 -0.5242 -0.0591  0.1807
45875W        W88788  32.472   2.112   5.782  0.4199 -0.1172 -0.0217
45876W        W88789   5.389  30.078   0.316 -0.0930 -0.0273 -0.2477
45877W        W88790  32.327   8.791  22.093  0.2605  0.1943  0.3617
45878W        W88791  32.484  20.002  21.159 -0.1451  0.1076  0.1456
45879W        W88792  31.909  29.927  26.500 -0.1171  0.0084  0.0129
45880W        W88793  24.869  32.009  28.233 -0.1602 -0.2685  0.0766
45881W        W88794  25.526   3.599  22.761 -0.3079  0.3069 -0.2975
45882W        W88795   1.592  28.924  22.456  0.0013 -0.1901 -0.0084
45883W        W88796   5.835   2.965   5.836  0.2347 -0.0484 -0.2218
45884W        W88797   2.831  32.348  14.754 -0.0810 -0.1622  0.0410
45885W        W88798  19.189  31.187  26.047  0.2564  0.2138 -0.0567
45886W        W88799  26.594  30.459  27.780  0.0843 -0.2962  0.0062
45887W        W88800  21.554  30.580  28.913 -0.0294  0.0843  0.0142
45888W        W88801   0.444  31.158   0.800  0.0019 -0.1995  0.0336
45889W        W88802  27.730   1.028  16.482  0.3189 -0.0974 -0.1483
45890W        W88803  29.089  11.188  29.075  0.0156 -0.1093 -0.0098
45891W        W88804   0.276  20.994  28.035  0.2142 -0.2036  0.2787
45892W        W88805  24.901  34.364  29.594 -0.1523 -0.2968 -0.2103
45893W        W88806  31.185   9.500  15.781  0.0236  0.0434 -0.0403
45894W        W88807  23.629  28.677  14.735 -0.0283 -0.5638 -0.1217
45895W        W88808  32.291  34.275  19.384  0.2089 -0.0698 -0.0799
45896W        W88809   3.303  33.443  28.098 -0.2495  0.2978 -0.0987
45897W        W88810  22.720   5.042  27.244 -0.3761 -0.1952 -0.1655
45898W        W88811  21.995   1.394  21.595 -0.0952  0.2409  0.1450
45899W        W88812  24.478   1.698  16.389 -0.0820 -0.1036  0.1470
45900W        W88813  34.364   1.587  10.245 -0.2931 -0.1415  0.1653
45901W        W88814  32.926  23.180  19.912  0.1569  0.2822 -0.0037
45902W        W88815  27.943  27.649  23.978 -0.1820 -0.0603  0.1425
45903W        W88816   2.280   3.670  26.487  0.0016  0.0657 -0.0937
45904W        W88817  31.359   2.920   7.793 -0.0358  0.2843  0.1803
45905W        W88818  29.412  30.332  28.985 -0.2523 -0.0783 -0.3244
45906W        W88819  31.269   2.017  22.636  0.1946 -0.2459 -0.3911
45907W        W88820   5.825  30.716  24.990 -0.1520 -0.1640  0.1915
45908W        W88821  10.285  28.279  23.237 -0.1709 -0.3048  0.1009
45909W        W88822   3.170  22.528  23.181 -0.2243  0.2899  0.0807
45910W        W88823  24.908  31.120  19.075 -0.0327  0.0256  0.0326
45911W        W88824  27.243  34.336  27.257 -0.0780 -0.0412 -0.0706
45912W        W88825  31.564   7.006  28.711 -0.3418  0.2475 -0.0228
45913W        W88826  25.435  28.862   4.358  0.2445 -0.2115  0.0452
45914W        W88827  28.336   6.171  28.079 -0.0899  0.1762  0.1791
45915W        W88828  31.519   0.470  22.315  0.0484 -0.1668  0.1384
45916W        W88829  17.857   1.020  28.371 -0.0565  0.1684  0.0090
45917W        W88830  25.593  28.494  25.847  0.0520 -0.1716 -0.0274
45918W        W88831  16.886  27.633  26.779 -0.0928  0.2982  0.0920
45919W        W88832  30.053   0.292  28.357 -0.2392 -0.2311 -0.2859
45920W        W88833  19.302  33.909  27.420  0.0878  0.3605  0.3001
45921W        W88834  10.361  31.384  25.748  0.0182 -0.0520 -0.3001
45922W        W88835   9.687   4.011  25.930 -0.0525  0.0117  0.2348
45923W        W88836  33.166  19.706   0.286  0.1984  0.2695  0.0730
45924W        W88837  21.813  31.818   5.533 -0.1518  0.0407 -0.0390
45925W        W88838  25.784   2.445  25.150  0.0158  0.0416  0.2703
45926W        W88839  27.292   1.795  23.634  0.1469 -0.1348  0.0732
45927W        W88840   4.146  31.028  24.788 -0.0567 -0.3752 -0.2379
45928W        W88841  25.500  17.897  29.118 -0.1783  0.0581  0.1503
45929W        W88842  31.690   5.991   3.141 -0.1133 -0.0332  0.3437
45930W        W88843  23.713  34.300   4.301 -0.1863 -0.0692  0.5935
45931W        W88844  29.172   2.520  20.073  0.0160 -0.2188 -0.1398
45932W        W88845   3.525  32.864   6.601  0.0138  0.3356  0.0302
45933W        W88846   4.697  31.583  26.333  0.3019 -0.0630 -0.2982
45934W        W88847   0.317   6.177  27.190 -0.0395  0.3255 -0.1947
45935W        W88848   0.659  30.097  24.245 -0.1830  0.0613  0.2245
45936W        W88849   3.216  13.947  17.170  0.0739 -0.0480 -0.0719
45937W        W88850   8.237  31.855  25.783 -0.2692 -0.2230 -0.0893
45938W        W88851  27.949   3.075   7.715 -0.0866  0.3717 -0.1531
45939W        W88852  23.986  30.295  25.471 -0.0206 -0.0447  0.1896
45940W        W88853  23.017   6.687   1.673 -0.1111  0.0668  0.1551
45941W        W88854  21.328  32.076  16.208  0.2138  0.0582  0.0590
45942W        W88855  31.888  32.518  28.166  0.0818  0.1085  0.1207
45943W        W88856  26.558   7.320   3.281  0.0953  0.0465 -0.0858
45944W        W88857   7.894  30.553   2.763  0.1577  0.0394 -0.0527
45945W        W88858   1.762  18.925  22.402 -0.2404  0.1269  0.1995
45946W        W88859  33.340  31.694  24.958 -0.2690 -0.0972 -0.0067
45947W        W88860  33.391  32.095   5.906 -0.2389  0.1094 -0.1042
45948W        W88861  30.421  31.899   9.022 -0.2061  0.0601  0.1712
45949W        W88862  26.453   7.908  24.871 -0.0012  0.0102  0.3814
45950W        W88863  24.548  33.035  21.868 -0.1190 -0.1533  0.3838
45951W        W88864   1.580  29.612  17.324 -0.2310  0.3151  0.0556
45952W        W88865   3.450  28.154  21.935 -0.1513 -0.1028  0.1875
45953W        W88866   1.463  14.958  22.464  0.0940 -0.1225  0.1626
45954W        W88867  32.537  22.575   6.866 -0.3090  0.1148  0.0953
45955W        W88868   1.587  28.969  28.973  0.1432  0.0926  0.0951
45956W        W88869   1.313  32.928  24.920  0.1588  0.0266 -0.0593
45957W        W88870  28.556   1.979  26.015 -0.4107 -0.0453  0.0179
45958W        W88871   8.298  33.583  21.554  0.1820 -0.1046  0.2326
45959W        W88872  28.103  31.156   2.740 -0.1265  0.2012 -0.0354
45960W        W88873  29.512   5.423   6.582 -0.2644  0.0642  0.2978
45961W        W88874  27.357   3.124   0.984  0.1316 -0.1143 -0.0676
45962W        W88875  23.856   0.981  20.761 -0.2721 -0.1430 -0.0297
45963W        W88876  29.548  28.762  22.204  0.1781 -0.1389 -0.0956
45964W        W88877  26.178  33.573  13.888  0.0948 -0.2301  0.0333
45965W        W88878  26.150  34.046   2.614  0.0273  0.0051 -0.1291
45966W        W88879  24.045  28.058  22.820 -0.0617  0.0708  0.0739
45967W        W88880  21.855   1.637  27.206 -0.3461  0.2277  0.2484
45968W        W88881  29.228  32.501  27.055  0.2098 -0.1589  0.2647
45969W        W88882  27.514  26.143   3.417 -0.0950 -0.0638  0.1015
45970W        W88883  30.206   3.348  26.742 -0.1336 -0.0360 -0.1297
45971W        W88884  33.430   0.331   3.315 -0.0449  0.2950  0.0265
45972W        W88885  10.432  29.861  25.202  0.3196  0.0667 -0.1231
45973W        W88886  29.604  28.554  26.165 -0.0400  0.0665 -0.4715
45974W        W88887  31.334   9.491  21.131 -0.2060 -0.1328  0.0872
45975W        W88888  32.441  33.894  28.200  0.0632  0.0388  0.1413
45976W        W88889   3.077   1.790  23.539 -0.2078 -0.1013 -0.3458
45977W        W88890   4.450  10.798  21.557 -0.2336 -0.1491 -0.1641
45978W        W88891  30.298  28.467  16.204  0.3355 -0.1703  0.3352
45979W        W88892   3.473  31.895   2.935 -0.2246 -0.0671  0.1609
45980W        W88893  28.496   5.379  19.238 -0.0464 -0.1815  0.1071
45981W        W88894   0.778   9.375   1.646  0.3075  0.0462 -0.3439
45982W        W88895  17.989   0.148  27.538 -0.1250  0.3898  0.2154
45983W        W88896  31.908   6.012  20.986 -0.0609  0.4305 -0.0716
45984W        W88897   8.243   5.443  22.152  0.1922 -0.0041 -0.1310
45985W        W88898   1.619   4.166   7.132  0.1617 -0.0733  0.0600
45986W        W88899   2.247  30.157   1.326 -0.2180 -0.0358 -0.1483
45987W        W88900  28.439  33.549  10.834  0.0153 -0.1225  0.1303
45988W        W88901  28.381  28.965   5.907  0.0584 -0.0489 -0.1120
45989W        W88902  30.733  14.974  19.723 -0.0869 -0.0659  0.0410
45990W        W88903  16.124  25.859  21.457  0.0543 -0.2590  0.0921
45991W        W88904   4.357  33.698  24.847  0.0377  0.1125  0.1794
45992W        W88905   6.647   6.657  25.888  0.0778 -0.4189 -0.3453
45993W        W88906   7.014  23.644  22.856  0.0192  0.1315 -0.1140
45994W        W88907   5.274   6.319  29.477  0.1362 -0.2081 -0.1501
45995W        W88908   1.318  34.189   9.525  0.1549 -0.0023 -0.2629
45996W        W88909  34.149   1.665  22.410 -0.2074  0.0458  0.4001
45997W        W88910   2.976  30.285  23.565  0.0947 -0.0467  0.0135
45998W        W88911  32.204   0.477  19.197 -0.2590 -0.1622  0.1593
45999W        W88912   1.698  25.800  25.405 -0.2615 -0.2677 -0.0425
46000W        W88913  20.570   4.898  24.671  0.0802 -0.0418 -0.0407
46001W        W88914  31.874  31.990  26.233  0.3721  0.3206 -0.0561
46002W        W88915   1.164  28.246  22.755 -0.0076 -0.0496 -0.2171
46003W        W88916   1.442  10.324  24.593  0.2656  0.1651 -0.0767
46004W        W88917   1.159   6.699   1.677  0.2149 -0.1337  0.0033
46005W        W88918  33.137   6.557   5.188  0.0691  0.0243 -0.0517
46006W        W88919   1.181   6.359  27.056 -0.1343 -0.1670  0.2321
46007W        W88920  21.792   0.245   7.173 -0.0784  0.1080 -0.1059
46008W        W88921   2.381  30.326  25.220  0.1475 -0.0467 -0.0468
46009W        W88922  26.618   1.995  20.569  0.2294  0.0630 -0.2459
46010W        W88923  26.991   4.088  27.559  0.0633  0.1167  0.0311
46011W        W88924  22.556  22.382  28.953 -0.0110  0.0791  0.1470
46012W        W88925   0.346   0.508   2.743  0.0512 -0.4194 -0.0207
46013W        W88926  30.691  24.670   3.739 -0.3251 -0.1264 -0.0441
46014W        W88927  34.343  30.898   5.280 -0.0851  0.1191  0.0493
46015W        W88928   2.475   1.309   1.936  0.2169  0.1087 -0.3218
46016W        W88929  31.258  33.607   2.514  0.1788 -0.0274 -0.0929
46017W        W88930  32.043  32.916  26.170 -0.1977 -0.2781  0.1273
46018W        W88931  19.563   2.211  27.240  0.1601 -0.2559  0.0859
46019W        W88932  27.602  33.831  19.582  0.1666  0.0797 -0.3825
46020W        W88933  33.153   4.047  24.263 -0.3687  0.0720  0.1840
46021W        W88934   2.012   1.027   2.680  0.0870  0.2458  0.1440
46022W        W88935  29.901  32.276  23.066 -0.0512 -0.0557 -0.3213
46023W        W88936  23.839   4.442   9.982 -0.4113  0.0221  0.3082
46024W        W88937   1.452  28.692   0.542 -0.2664 -0.1039  0.0310
46025W        W88938  31.125   0.345  21.592 -0.0308 -0.3785  0.1881
46026W        W88939  26.386  29.388  22.861 -0.3139 -0.0266 -0.1491
46027W        W88940  34.421   8.990  25.241  0.0761  0.1984  0.2092
46028W        W88941  20.783  32.949  20.009  0.2011  0.1958  0.2411
46029W        W88942  26.406   8.105   1.672 -0.0706  0.0294 -0.0173
46030W        W88943  28.048   9.323   4.919 -0.1866  0.1242  0.3620
46031W        W88944  33.146   4.721   5.351  0.0567 -0.2556 -0.0740
46032W        W88945  17.373   8.195   4.944  0.0779  0.1841 -0.3598
46033W        W88946  26.988  33.297   6.615 -0.0849 -0.0201 -0.1538
46034W        W88947   6.556  28.837  10.446  0.0203  0.0298 -0.1068
46035W        W88948   1.660  23.825   5.098 -0.1806  0.1347  0.3968
46036W        W88949  31.426  32.882   6.381  0.0506  0.1096 -0.1064
46037W        W88950   3.243   3.841  24.615 -0.0677  0.1446 -0.0495
46038W        W88951   2.324   4.616  18.382 -0.0816 -0.0516 -0.0348
46039W        W88952  21.969  30.994   0.895  0.0581  0.2164 -0.0731
46040W        W88953  25.373   1.468  26.989  0.1879 -0.2302 -0.4140
46041W        W88954  32.407  32.149  23.329 -0.3441  0.0790 -0.2318
46042W        W88955   1.188  16.652   6.369 -0.0639 -0.0732 -0.0361
46043W        W88956  24.348   8.993  27.836  0.0100  0.1385 -0.1013
46044W        W88957   6.918  20.308  25.415 -0.0596 -0.2153 -0.3248
46045W        W88958  33.681   3.214   0.058  0.0942 -0.2811  0.1196
46046W        W88959  32.486  24.703  22.405 -0.0664  0.1484  0.0510
46047W        W88960  32.884  26.669   0.186 -0.1027 -0.3903  0.1639
46048W        W88961  22.816  33.560  13.273 -0.1897 -0.0501  0.1791
46049W        W88962   2.601   4.316   1.614 -0.1293  0.1468 -0.0200
46050W        W88963  30.035  30.177   2.045  0.2596 -0.0453 -0.0836
46051W        W88964  33.132  32.415  23.920  0.1364  0.1249 -0.0557
46052W        W88965   1.934  25.417  17.344  0.0679 -0.0304 -0.1069
46053W        W88966  24.163  26.426   7.975  0.0325  0.1764 -0.0406
46054W        W88967  30.892  22.789   3.851 -0.1676 -0.0561  0.1247
46055W        W88968   5.362   2.467  21.166  0.0735 -0.0757  0.1011
46056W        W88969  30.172   4.187   9.401  0.2484 -0.3436  0.1896
46057W        W88970  29.027   0.918  27.059 -0.0252 -0.0361 -0.2823
46058W        W88971   6.299   7.077  27.489 -0.0046  0.0901 -0.2513
46059W        W88972  30.787  14.478   3.881 -0.0844  0.0211 -0.0314
46060W        W88973  32.587  24.963   0.128  0.2597 -0.1792  0.2274
46061W        W88974  32.553   3.951   0.781 -0.3690  0.2081  0.1400
46062W        W88975   5.414  33.957  21.297 -0.2136  0.0878  0.3878
46063W        W88976  28.062  30.435   0.417  0.1889 -0.1000  0.0215
46064W        W88977  23.964   2.134  23.246 -0.0396  0.1059 -0.3106
46065W        W88978  29.562  32.481   1.769 -0.1666  0.0443 -0.0886
46066W        W88979  33.342  32.509   5.134 -0.2102  0.1354  0.1578
46067W        W88980   4.457  14.562   8.345  0.0605 -0.0230 -0.2618
46068W        W88981   8.585   5.452  27.959 -0.0218  0.1639 -0.1272
46069W        W88982  33.890  34.006   0.065 -0.0452  0.1475 -0.3254
46070W        W88983   3.405  27.256  25.727 -0.1038 -0.1218  0.1498
46071W        W88984   1.612   5.234   5.621  0.1932  0.0373 -0.2533
46072W        W88985  33.473   4.944   6.248  0.1275  0.0341  0.3236
46073W        W88986  33.318  34.353   6.609 -0.0455  0.0394 -0.3284
46074W        W88987  20.859  26.312  17.656  0.1644 -0.1359  0.0295
46075W        W88988  28.494   1.705  27.164  0.2445 -0.1326 -0.0426
46076W        W88989  21.230  29.280   7.006  0.1071 -0.0257 -0.2527
46077W        W88990  24.558   2.520  23.326  0.1806  0.2272 -0.1193
46078W        W88991   6.422  24.458  25.380 -0.0838  0.0905 -0.0806
46079W        W88992  16.561   3.125  25.328 -0.0743  0.1138  0.0610
46080W        W88993   3.343  28.580   7.633 -0.0771  0.1223  0.1977
46081W        W88994   1.522   1.980   0.389 -0.1296  0.2481 -0.1430
46082W        W88995  19.412  29.828   2.430 -0.0819 -0.2255 -0.0288
46083W        W88996  28.870   5.144  20.729 -0.0556 -0.0547  0.3125
46084W        W88997  23.069  30.335   1.697  0.1684 -0.0119  0.0400
46085W        W88998  26.169  33.683   7.792 -0.2123  0.2412  0.0101
46086W        W88999  28.921   9.975   7.203  0.0465 -0.1778  0.1422
46087W        W89000  29.539  10.332   8.944 -0.0007  0.0958 -0.0098
46088W        W89001  28.471  33.736  25.562 -0.0648 -0.2624 -0.2908
46089W        W89002  24.896  29.695  24.534 -0.2068  0.0593  0.0556
46090W        W89003   2.871  34.282   2.897 -0.3109  0.1015 -0.1121
46091W        W89004   0.988  27.601  29.508  0.0522  0.1187  0.1003
46092W        W89005  26.627  30.653  22.417  0.0934  0.0230 -0.0029
46093W        W89006   1.339   6.649   2.495  0.2572  0.2256 -0.1686
46094W        W89007   5.771   1.021  19.122  0.2126  0.0655 -0.3376
46095W        W89008   5.834  32.067   0.628  0.1900  0.1280  0.2859
46096W        W89009  28.195   0.007  23.987  0.3246 -0.0018  0.3656
46097W        W89010  29.027   9.981  25.861 -0.2530 -0.0535  0.0317
46098W        W89011  33.980  30.018  19.407 -0.0426 -0.1879 -0.0274
46099W        W89012  29.980   2.173   2.661 -0.1155 -0.3568 -0.1206
46100W        W89013  27.981  31.004  21.827 -0.2404 -0.0807  0.1774
46101W        W89014   0.609   9.362  16.083 -0.0671  0.1750 -0.2714
46102W        W89015   6.698   0.771  22.063  0.1108 -0.0498 -0.0853
46103W        W89016   5.492  33.466   2.550  0.1658 -0.1636 -0.2236
46104W        W89017  18.369  29.738  21.256  0.1781 -0.2109  0.0806
46105W        W89018   4.282   6.491   4.072 -0.2905  0.0187  0.0670
46106W        W89019  32.163   3.967  23.684 -0.2340 -0.0490 -0.3724
46107W        W89020  26.472   0.194  28.777  0.0596 -0.0530 -0.1016
46108W        W89021  32.324  28.418  27.782 -0.1716  0.2270 -0.0990
46109W        W89022  26.821  10.737  26.538 -0.2050 -0.0385  0.0946
46110W        W89023   4.538   3.470   3.549  0.0299 -0.1035 -0.1030
46111W        W89024  29.313   4.826  22.443 -0.2718  0.1085  0.1910
46112W        W89025  32.601   0.712  23.698  0.1427  0.3532 -0.0764
46113W        W89026  28.071   8.087   6.093 -0.0666  0.0787  0.0523
46114W        W89027  26.626   0.136  29.243 -0.0407 -0.1591 -0.2049
46115W        W89028  27.315  34.469  24.256 -0.1932 -0.2818  0.2105
46116W        W89029  31.139   2.990   6.887 -0.3041 -0.0384 -0.1473
46117W        W89030  20.424  22.845  20.548  0.2051  0.1115  0.2414
46118W        W89031  33.514  24.456  18.826 -0.5013  0.3028  0.0058
46119W        W89032   3.036  33.953  20.972 -0.0235 -0.1300 -0.3570
46120W        W89033  16.395  32.293  18.942  0.0541  0.1786  0.4284
46121W        W89034  23.849  32.676   6.832 -0.0330  0.1029 -0.1178
46122W        W89035   1.432   4.624  22.304 -0.2657  0.0936 -0.1762
46123W        W89036  29.267  33.496   0.158  0.2179 -0.1567 -0.1619
46124W        W89037  20.683  29.574  19.527 -0.0349  0.2206 -0.0345
46125W        W89038  21.606  25.985  26.304 -0.0365 -0.0629 -0.0417
46126W        W89039  26.677   1.874   2.718 -0.2083 -0.3519 -0.0975
46127W        W89040   0.511   0.097  26.248 -0.1655  0.2955 -0.0242
46128W        W89041   3.991   3.577   2.336  0.1108 -0.3729  0.1890
46129W        W89042  31.866   2.836  22.730  0.0653  0.0675 -0.3384
46130W        W89043  30.585  27.011   5.616 -0.2809  0.0521 -0.2826
46131W        W89044   8.827   2.996  21.151 -0.1754  0.2800  0.0112
46132W        W89045   8.227  28.817  21.588  0.1322  0.1640 -0.0313
46133W        W89046  34.106  27.871  27.177 -0.1562 -0.1500  0.1574
46134W        W89047  27.878   3.054   8.785  0.0034 -0.1845 -0.2028
46135W        W89048  23.955   2.306  28.210  0.3286  0.0490  0.0871
46136W        W89049   4.497  28.246   7.887 -0.1538  0.0072 -0.1921
46137W        W89050  27.213  29.936  21.185  0.1653 -0.5427  0.0435
46138W        W89051   9.214  11.048   1.457 -0.0137  0.0997  0.0100
46139W        W89052  22.899   0.295  20.716  0.2318 -0.0367 -0.0215
46140W        W89053  27.811   4.798   4.654  0.0129 -0.0033 -0.2631
46141W        W89054  23.232   0.601   3.173  0.1198 -0.1397 -0.0023
46142W        W89055  16.374  12.338   3.932  0.1804 -0.0245 -0.1181
46143W        W89056   1.399  34.112   2.324 -0.1375 -0.0250 -0.0002
46144W        W89057  30.396  11.145  28.934 -0.2759  0.4123 -0.0638
46145W        W89058  32.287  29.745   7.397 -0.1466 -0.4300  0.0573
46146W        W89059  18.137  19.048   0.229 -0.0641 -0.0795 -0.2839
46147W        W89060  23.888   8.318   2.123  0.1792 -0.1947  0.0377
46148W        W89061  29.528  28.165  27.388 -0.3349  0.5774 -0.0017
46149W        W89062   2.185  19.439   2.813  0.1577 -0.1713 -0.0153
46150W        W89063  23.769  25.625  20.689 -0.2990 -0.2206 -0.1583
46151W        W89064  14.224  32.364  27.408  0.0041  0.0723 -0.5380
46152W        W89065  33.530   1.943  22.760 -0.0152 -0.0456 -0.2602
46153W        W89066  31.923  33.294  28.433 -0.2978  0.1352 -0.4176
46154W        W89067  33.275  23.134   1.424  0.0052 -0.1490  0.2366
46155W        W89068   2.425  32.348  27.969 -0.6379  0.1866 -0.2624
46156W        W89069   1.576  29.656  24.287  0.1208 -0.2755  0.0105
46157W        W89070  29.752   7.702   6.050 -0.1294  0.3519  0.2146
46158W        W89071  23.727   4.924   0.131 -0.1296 -0.0424  0.3692
46159W        W89072   0.769   1.851  29.459 -0.0686 -0.2378 -0.2026
46160W        W89073   4.952  27.177   2.219  0.2293  0.1950 -0.0079
46161W        W89074   6.154  27.891  17.778  0.0448 -0.2844 -0.2535
46162W        W89075   0.825  33.295  18.019 -0.2452 -0.1427  0.2469
46163W        W89076  22.918  18.652  24.948 -0.0906  0.0451 -0.1217
46164W        W89077  33.462  33.823   2.326  0.0635 -0.1317  0.3253
46165W        W89078  25.179  20.644  22.154  0.1206  0.0602 -0.1238
46166W        W89079  33.314  30.413  17.777  0.1058 -0.0688 -0.1083
46167W        W89080  28.478   4.450  24.530 -0.1531 -0.0609 -0.1503
46168W        W89081  32.998   2.797  23.238 -0.2148 -0.0809  0.2808
46169W        W89082   4.938   0.779  24.159  0.0105 -0.2950  0.0378
46170W        W89083  33.098  33.208  18.779  0.1829  0.0090  0.0159
46171W        W89084  34.426   0.728   1.077  0.1108  0.0149  0.2985
46172W        W89085  21.965   0.013  21.195 -0.5232  0.1303 -0.1092
46173W        W89086  32.629   1.001  21.853  0.0876  0.3416 -0.0286
46174W        W89087  32.418   3.752  19.346 -0.0938 -0.1756  0.2044
46175W        W89088   0.854   5.610   0.369  0.0094 -0.1746  0.2161
46176W        W89089  26.160   0.606  26.230 -0.1171 -0.0570  0.0504
46177W        W89090   6.731   3.900  29.619 -0.0695 -0.1276  0.0428
46178W        W89091  28.293  11.513   1.501 -0.3278 -0.0058 -0.1281
46179W        W89092  29.913  25.147  17.881 -0.2968  0.1475  0.1069
46180W        W89093  26.636  30.131  19.104 -0.4286  0.0780  0.1301
46181W        W89094  23.775  33.725  19.048  0.1395 -0.1975 -0.1108
46182W        W89095   3.693  29.721   0.648 -0.0308  0.0627 -0.1883
46183W        W89096  18.594   2.164  20.889  0.0640  0.0648  0.1353
46184W        W89097  34.024  33.605  15.589  0.1003  0.1754  0.2882
46185W        W89098   3.094   1.057  26.009  0.2929 -0.1247  0.1219
46186W        W89099  27.539   4.414  29.720 -0.3158  0.2667 -0.2426
46187W        W89100   3.783  18.441  18.934  0.2634 -0.1914 -0.2887
46188W        W89101  33.119   9.510  16.837 -0.4164  0.0967  0.0332
46189W        W89102  27.627  33.169  15.917 -0.0501  0.1159  0.0985
46190W        W89103   7.982   2.744  24.822 -0.1035 -0.1478 -0.0065
46191W        W89104  16.353  29.926  26.541  0.2361 -0.2126 -0.0896
46192W        W89105   1.481   1.576  16.935 -0.2460  0.0453  0.0289
46193W        W89106  30.191   7.096   0.690 -0.3673 -0.3232  0.2204
46194W        W89107  34.488  32.229  15.422 -0.0464  0.0703 -0.0370
46195W        W89108  29.261  30.508  24.424 -0.1933  0.0464 -0.2330
46196W        W89109   7.106  31.969  22.787  0.2265 -0.0502  0.3487
46197W        W89110   0.505   3.427  23.047  0.1000 -0.1057 -0.2608
46198W        W89111  28.033   2.529  19.668 -0.1119 -0.2209  0.0753
46199W        W89112  32.850  28.437  17.690  0.1258  0.0786  0.0752
46200W        W89113  28.191   1.319  17.773  0.0638  0.1460  0.3109
46201W        W89114  32.827   1.143  17.130  0.0408  0.1955  0.1872
46202W        W89115  25.171  24.422  18.778 -0.4706 -0.0618  0.0082
46203W        W89116  10.145  10.744  16.648 -0.0009 -0.0636  0.2195
46204W        W89117  29.005  31.253  21.550  0.3672  0.2584 -0.0389
46205W        W89118   2.539   2.202  24.130  0.2149  0.3629  0.0243
46206W        W89119   4.417  32.518  18.257 -0.0489 -0.1802  0.2327
46207W        W89120  33.086  28.586  21.308 -0.0445 -0.0490 -0.3048
46208W        W89121  33.593   2.585   1.224  0.0246  0.1884  0.0093
46209W        W89122  23.041  30.030  15.505 -0.0499  0.0036 -0.2249
46210W        W89123  28.424   1.003  20.752  0.1545  0.2533  0.1930
46211W        W89124  33.599  32.411   9.750  0.4068  0.0456 -0.2784
46212W        W89125  34.072  33.946  25.570  0.0551 -0.0814  0.1755
46213W        W89126  29.008   9.701  19.158  0.0465 -0.1393 -0.2212
46214W        W89127  26.097  32.780  27.874  0.1658 -0.1224 -0.3421
46215W        W89128   2.210   4.243  28.885  0.1637 -0.1527  0.0959
46216W        W89129  15.341  26.624  20.046 -0.0000  0.1234 -0.0501
46217W        W89130  28.217   0.576   0.107 -0.2601  0.2049 -0.0927
46218W        W89131  30.503   1.412  17.424 -0.1601 -0.1889 -0.0964
46219W        W89132   9.396  33.328  25.813  0.1440  0.0009 -0.3585
46220W        W89133   0.894  23.259  19.146 -0.0606  0.2229 -0.2339
46221W        W89134   5.556   3.453  22.892 -0.0770 -0.1075 -0.1417
46222W        W89135   3.343  32.648  20.439  0.4147  0.1080 -0.0484
46223W        W89136  33.159  28.138  24.448  0.2028 -0.2617 -0.1232
46224W        W89137  32.823  26.928  19.419 -0.1838 -0.0465  0.0761
46225W        W89138  32.505  29.267  16.521  0.0543  0.1270 -0.0062
46226W        W89139   2.048   2.537  20.160 -0.2799  0.3311  0.1483
46227W        W89140  27.031  20.675  21.891 -0.2038  0.1140  0.2436
46228W        W89141  28.132  29.802  21.162 -0.1962  0.3296 -0.2089
46229W        W89142  25.696   8.806  23.213 -0.2003  0.0661 -0.1383
46230W        W89143   7.545  25.398  22.160  0.1410 -0.3232 -0.1217
46231W        W89144  34.101  14.361  24.782 -0.3566 -0.3233 -0.3343
46232W        W89145   3.614  14.668  24.614 -0.0243  0.1420 -0.0367
46233W        W89146   3.268   1.318  25.603  0.0808  0.0426  0.4436
46234W        W89147  29.263   3.575  28.454 -0.0708 -0.0103  0.0606
46235W        W89148  28.626  30.719  27.216  0.1797 -0.0224 -0.2201
46236W        W89149   3.047   3.062  18.498  0.2303 -0.3839 -0.2863
46237W        W89150  29.274  26.265   3.245  0.1558 -0.0927 -0.1084
46238W        W89151  23.846  27.780  20.418  0.3580 -0.3291 -0.0209
46239W        W89152  27.496   6.425  25.538  0.2717 -0.1223 -0.0154
46240W        W89153  30.446  27.959  19.191 -0.0659 -0.0967  0.1408
46241W        W89154  31.509   4.376  24.603  0.1098 -0.3787 -0.0506
46242W        W89155  27.592  31.392  21.311 -0.0446  0.1541 -0.0191
46243W        W89156   3.729  28.728  19.485  0.0334  0.1884 -0.0865
46244W        W89157  21.151   2.121   0.428 -0.4393  0.0219  0.0450
46245W        W89158  33.537  31.693  21.377  0.1130  0.1477  0.1508
46246W        W89159  29.679  33.768  16.557 -0.0046 -0.1593  0.0157
46247W        W89160  29.119   7.873  17.143  0.1790 -0.2928  0.0703
46248W        W89161   5.966  29.902  21.700 -0.0368 -0.0794  0.0425
46249W        W89162  28.284  31.741  15.468 -0.0338  0.0026  0.1341
46250W        W89163   0.961   5.021  23.864 -0.0281  0.2833  0.2063
46251W        W89164  27.429   4.179  24.136 -0.2007  0.1101  0.0837
46252W        W89165   4.159  29.113  23.472  0.0890 -0.0086  0.2181
46253W        W89166  32.625   2.435  17.543  0.1244 -0.0892 -0.1477
46254W        W89167  25.102   3.942  17.045 -0.0682  0.0672 -0.1460
46255W        W89168  25.699   3.708  22.244  0.0456 -0.1201  0.0115
46256W        W89169  31.851  32.140   3.041  0.2452  0.0960  0.0866
46257W        W89170  31.236  23.064  19.541  0.1032 -0.0627  0.1919
46258W        W89171   2.317   7.468  21.195  0.1229  0.1736  0.0966
46259W        W89172   2.713  33.279  21.035  0.2445  0.0007 -0.1130
46260W        W89173   2.136  21.017  28.168  0.0263  0.0752  0.0314
46261W        W89174  30.151  24.643  27.452 -0.0404 -0.1347 -0.0749
46262W        W89175  32.721  11.110  18.673  0.0870  0.2252  0.2124
46263W        W89176   2.920  27.601  26.424 -0.0022 -0.0211  0.2971
46264W        W89177  33.058  28.670  16.756 -0.2941 -0.2394 -0.1317
46265W        W89178  30.687  18.850  22.662  0.1374 -0.2406  0.1149
46266W        W89179  34.314  13.775  14.671  0.1333  0.0678 -0.0562
46267W        W89180  32.075  28.474  13.632 -0.1767 -0.3253  0.0385
46268W        W89181  33.431   2.627  18.962  0.0703 -0.1359  0.2167
46269W        W89182   1.400  11.265  18.294  0.1035 -0.0759  0.0157
46270W        W89183  26.010   2.359  17.856 -0.4819 -0.0017  0.1207
46271W        W89184  30.512  11.672  17.336 -0.2417  0.0646 -0.1536
46272W        W89185  32.370   3.646  20.239 -0.1608  0.0768 -0.1647
46273W        W89186   0.358  31.764  14.070 -0.1664  0.2908 -0.2883
46274W        W89187   0.242  11.251  23.925 -0.1486  0.0227 -0.0070
46275W        W89188  31.150   2.778  20.256  0.0650 -0.1328  0.1503
46276W        W89189  32.478  10.646  23.760 -0.1437 -0.1617  0.1496
46277W        W89190  20.399  31.933  19.529  0.1726  0.3017 -0.0174
46278W        W89191   1.213   5.906  28.929 -0.1158 -0.1273  0.2666
46279W        W89192   6.745  27.901  17.780  0.0127 -0.1536  0.1160
46280W        W89193  32.899   3.881  21.096  0.1359 -0.4359 -0.1067
46281W        W89194  22.500  33.488  20.804 -0.0277 -0.4948 -0.4385
46282W        W89195  32.226   1.722  19.909  0.1134  0.1338 -0.0266
46283W        W89196  30.796   2.136  19.508 -0.1734 -0.0204  0.0829
46284W        W89197  29.242   3.924  21.802  0.2071 -0.0210 -0.0658
46285W        W89198   0.042  26.620  21.976  0.0469  0.2576  0.0253
46286W        W89199   3.161   5.693   0.298 -0.0245  0.1737  0.0353
46287W        W89200   1.706  11.127  24.375  0.0334 -0.0904 -0.0671
46288W        W89201  33.860  30.373   1.261  0.0232 -0.2783  0.5414
46289W        W89202  25.552  32.607  23.634 -0.3176 -0.0373 -0.2851
46290W        W89203  34.294   1.034  27.224  0.0621 -0.0012  0.0673
46291W        W89204  27.094   0.806  18.973 -0.0347 -0.1426 -0.2621
46292W        W89205  32.580  29.882  15.193 -0.0182 -0.0006 -0.0939
46293W        W89206   1.882  23.433  20.204  0.1293 -0.1045 -0.0606
46294W        W89207  32.780  11.148   1.534 -0.2197 -0.0701  0.0675
46295W        W89208   1.193  32.570  15.676 -0.0430 -0.1117 -0.2102
46296W        W89209  25.805  33.596  20.673 -0.0866 -0.1074 -0.2098
46297W        W89210  26.634  28.255  22.441  0.0610 -0.1957 -0.1417
46298W        W89211  23.045   0.537  26.451  0.0739 -0.2080  0.1052
46299W        W89212  25.458  17.658  28.022  0.0858  0.0076  0.0035
46300W        W89213   0.023   1.302  20.213 -0.0265 -0.1287  0.3061
46301W        W89214  25.628  34.402  26.279  0.1945  0.1259  0.3368
46302W        W89215   3.153  30.786  25.319  0.0677  0.1647 -0.3607
46303W        W89216  31.199  32.277  19.154 -0.2809 -0.0780  0.2299
46304W        W89217   4.171   8.475  21.541 -0.0095 -0.1339  0.2433
46305W        W89218   2.960  31.210  25.261  0.1398 -0.2049  0.1357
46306W        W89219  33.451  33.251  15.199  0.0642  0.0079 -0.1196
46307W        W89220  30.315   7.899   2.304  0.0114 -0.4000  0.0094
46308W        W89221  22.144   0.529  17.963  0.0895 -0.3329 -0.0878
46309W        W89222   6.434  14.456   0.720  0.0865  0.0632 -0.0291
46310W        W89223  29.538   2.205  28.164 -0.0082  0.3830 -0.1578
46311W        W89224   7.532  34.447  18.808 -0.0480  0.2160 -0.1838
46312W        W89225  19.832  29.088  16.496  0.4996 -0.0210 -0.1074
46313W        W89226  29.447   3.638  21.407  0.0473  0.0306 -0.0817
46314W        W89227  31.242   9.809  14.347  0.0085  0.0888  0.1439
46315W        W89228  32.916  10.539  17.002 -0.2946 -0.1088 -0.1879
46316W        W89229  27.343   2.689  25.561  0.0612 -0.2125  0.1258
46317W        W89230  32.905  32.515  14.615  0.1069  0.3396 -0.0757
46318W        W89231  12.589   6.714  24.254 -0.1186 -0.2123  0.2234
46319W        W89232   3.655  33.591  26.655 -0.1522 -0.2949 -0.0623
46320W        W89233  30.032  33.701  17.451  0.0135  0.0417 -0.1115
46321W        W89234  27.307  17.532  16.541  0.1381 -0.1708 -0.0241
46322W        W89235   1.695  34.067  25.471  0.2045 -0.1798 -0.1338
46323W        W89236  31.452  29.488  21.736  0.3965  0.0025 -0.0592
46324W        W89237  23.462  30.511  18.284 -0.0661 -0.1542  0.1468
46325W        W89238   2.536   0.348  18.788  0.0098 -0.0275  0.1493
46326W        W89239  31.916  32.024  23.335 -0.2421 -0.1668 -0.1883
46327W        W89240   3.966  25.267  19.455  0.0217  0.2738 -0.0305
46328W        W89241   1.046   4.703  24.701  0.0876 -0.1395  0.1044
46329W        W89242  30.209  29.721  24.204  0.1715  0.0593  0.1856
46330W        W89243   3.028  32.549  26.465  0.1347 -0.1749 -0.1686
46331W        W89244  21.947   2.035  23.172  0.1623 -0.1862 -0.1783
46332W        W89245  20.334   4.557  20.604 -0.0404  0.1207 -0.0058
46333W        W89246   8.471   3.236  18.990  0.2011  0.0161 -0.0916
46334W        W89247  27.834  31.661  19.589 -0.0710  0.0971  0.0452
46335W        W89248   2.204  32.754  19.663  0.1424  0.1427 -0.0281
46336W        W89249  27.620   0.489  22.117 -0.2034 -0.0004 -0.4271
46337W        W89250  33.237   2.808  16.375 -0.1893 -0.1922 -0.1284
46338W        W89251  29.404   2.195  21.143 -0.2954 -0.0958  0.2136
46339W        W89252  34.400  33.435  21.093 -0.0189  0.0354 -0.0150
46340W        W89253  34.063  30.455  21.493 -0.0537 -0.0075 -0.0731
46341W        W89254   2.584   1.913  17.802 -0.4271  0.2367 -0.0069
46342W        W89255  25.723   5.391  16.295 -0.2938  0.1863 -0.0123
46343W        W89256   0.604   6.001  22.233 -0.0140 -0.3887  0.0164
46344W        W89257   4.443  28.640  28.326  0.0912 -0.0008 -0.1660
46345W        W89258  13.779   1.427   3.089 -0.0574 -0.1581  0.2216
46346W        W89259  26.160  14.425  24.187  0.0692  0.1475  0.1781
46347W        W89260  29.718  29.706  25.823  0.2216 -0.2151  0.0626
46348W        W89261   2.002  31.014  24.704  0.3905  0.1022 -0.2571
46349W        W89262  32.588  31.259  20.558  0.2890  0.3766 -0.1807
46350W        W89263  31.286  25.638  17.461  0.4901 -0.0392 -0.1975
46351W        W89264  31.301   0.949  16.780  0.1076  0.0853  0.1609
46352W        W89265  32.674  33.007  28.476 -0.0389 -0.2885 -0.2455
46353W        W89266  27.427  28.551  23.015 -0.1479  0.0271  0.1248
46354W        W89267  31.391  30.018  19.838 -0.0942 -0.0696  0.0303
46355W        W89268  33.423  26.873  26.393  0.2982 -0.0460 -0.0755
46356W        W89269  33.478  32.269  25.800 -0.0056 -0.0572  0.0264
46357W        W89270   7.334   6.395  27.112  0.1944 -0.1031 -0.2329
46358W        W89271   3.295   3.291  21.348  0.0493 -0.1739  0.1445
46359W        W89272  27.063   3.437   0.225 -0.3262  0.2163  0.1257
46360W        W89273   8.320   6.419  24.347 -0.3419  0.2166 -0.0065
46361W        W89274  30.970  32.326  22.149 -0.0058 -0.3047 -0.0723
46362W        W89275  32.719  28.932  14.756  0.1783 -0.1579  0.0436
46363W        W89276   1.295  31.998   1.912  0.1061  0.1955 -0.2596
46364W        W89277   0.259   3.439  19.877  0.5274  0.1832 -0.0256
46365W        W89278  25.351  34.267  18.504 -0.0491  0.0103 -0.0901
46366W        W89279  20.087   3.144  18.563 -0.1414  0.0695  0.1326
46367W        W89280  26.241   8.703  18.156  0.1046  0.1620  0.0051
46368W        W89281   2.677   2.408  21.463  0.1733  0.1885  0.1565
46369W        W89282   8.833  28.700  23.612 -0.1194 -0.0715  0.0381
46370W        W89283   2.472   4.591  24.382  0.0514  0.3625 -0.0372
46371W        W89284  29.034   7.167  23.600 -0.1273  0.0810 -0.1431
46372W        W89285  31.786  33.286  19.933  0.0330  0.4239  0.3060
46373W        W89286   0.559  34.329  28.919  0.0464 -0.1039  0.3159
46374W        W89287  34.350   2.623  19.920  0.1450  0.2292 -0.1216
46375W        W89288  30.887   9.653  23.414  0.1144  0.0871 -0.1840
46376W        W89289  29.646  29.618  16.792  0.1278 -0.0967  0.0018
46377W        W89290  25.241   4.257   0.725 -0.0535  0.0720 -0.0040
46378W        W89291  25.947  32.825  20.623  0.2317 -0.0548  0.3792
46379W        W89292  28.754   9.106  26.826 -0.1658  0.0132 -0.0395
46380W        W89293  15.844   1.934  17.225  0.0121 -0.2657 -0.2716
46381W        W89294   1.614  10.858  26.320  0.1672  0.3363  0.1766
46382W        W89295   0.924  23.947  14.416  0.0785 -0.1641  0.1496
46383W        W89296  24.234  13.235  15.736  0.1841 -0.0239  0.2037
46384W        W89297   3.320  25.679  28.813  0.0830  0.0027 -0.1896
46385W        W89298   2.303  30.417   1.763  0.0333  0.0406 -0.3551
46386W        W89299  28.791   9.739  24.748  0.1125  0.0925 -0.0806
46387W        W89300   3.785  28.262  21.047  0.1045  0.0777 -0.2371
46388W        W89301  29.249   6.105  27.245 -0.0170 -0.1007 -0.2563
46389W        W89302  24.371  12.310   1.940  0.2078 -0.0141 -0.0760
46390W        W89303   9.297   2.279  20.766 -0.1963 -0.0774  0.1008
46391W        W89304  32.347   3.570   2.115  0.1359 -0.1360 -0.3247
46392W        W89305  24.759   1.422  24.176 -0.0590  0.3049  0.0235
46393W        W89306  32.923  28.975  19.879 -0.0364 -0.1752  0.1617
46394W        W89307  29.099  33.007   0.564  0.3211  0.0535  0.0622
46395W        W89308  33.325  30.060  22.728  0.2897  0.1605 -0.2625
46396W        W89309  23.864  20.636  24.206  0.1663 -0.0211  0.1282
46397W        W89310  29.083   2.347  20.637 -0.0031  0.1743  0.0842
46398W        W89311  28.949  32.895  27.591 -0.0415  0.0481 -0.1176
46399W        W89312  31.839  31.698  22.939 -0.3292  0.0826 -0.1167
46400W        W89313  32.757  11.806  29.570  0.0432 -0.1279  0.1799
46401W        W89314  27.367   5.181  27.863  0.1951  0.0111 -0.2232
46402W        W89315  32.311   3.815  18.019 -0.1403  0.0448 -0.1098
46403W        W89316  31.402  12.754  15.384  0.1869  0.0199  0.0307
46404W        W89317  30.124   2.480  17.732 -0.1708 -0.0720  0.1286
46405W        W89318  19.822  15.518  22.855  0.2342 -0.0585  0.1315
46406W        W89319  32.485  31.585  23.995 -0.2909 -0.1315 -0.1225
46407W        W89320  30.462   4.040  24.503  0.3239 -0.1518  0.1026
46408W        W89321   4.002   3.605  24.896  0.1947 -0.1801 -0.0408
46409W        W89322  24.486  28.428  25.940  0.1456 -0.1198 -0.0948
46410W        W89323  33.168  32.324  19.223 -0.3078  0.0583 -0.0295
46411W        W89324  25.715  27.810  23.009 -0.0140 -0.2662  0.0910
46412W        W89325  31.539   1.363  23.914 -0.0765 -0.0825 -0.0009
46413W        W89326   3.067  34.460  20.031  0.0708  0.0255 -0.2567
46414W        W89327  28.379  12.122  23.199  0.2343  0.0178  0.0073
46415W        W89328  24.112  31.423  18.986  0.1525  0.0267  0.0130
46416W        W89329  30.078   0.153  17.567 -0.2036 -0.2224  0.3108
46417W        W89330   2.462  16.383  19.213  0.1233 -0.1704 -0.0868
46418W        W89331   2.608   7.385   1.457 -0.1464 -0.0768  0.0087
46419W        W89332  31.125  24.049  23.683 -0.1355  0.0382 -0.0260
46420W        W89333   6.997   0.734  25.178 -0.0716  0.0050  0.0594
46421W        W89334  22.314   9.182  26.411 -0.0032  0.0386  0.2984
46422W        W89335   9.769  10.763  24.360 -0.2109 -0.2792 -0.1300
46423W        W89336  33.688  31.789  17.282  0.1676  0.2132 -0.0343
46424W        W89337  32.677  27.452  22.434 -0.0293  0.4371  0.0211
46425W        W89338  25.758  10.392   0.101  0.3705 -0.1856 -0.0131
46426W        W89339  27.310   6.826  26.304 -0.1858  0.1092 -0.2916
46427W        W89340  10.366  28.129  17.358  0.0263  0.1803 -0.2833
46428W        W89341  19.174  20.811  19.595  0.1240  0.0144 -0.0918
46429W        W89342   7.202   3.366  25.051  0.0572 -0.0489 -0.1734
46430W        W89343  27.921   4.235  27.132 -0.3755 -0.0241  0.1441
46431W        W89344   0.919   4.230  26.478 -0.4017  0.0228 -0.1435
46432W        W89345  31.167  33.575  28.704 -0.0122 -0.2505  0.0728
46433W        W89346  34.283  26.832  23.374 -0.0220  0.0973 -0.3839
46434W        W89347   9.085   1.827  21.020  0.0708 -0.2396  0.1187
46435W        W89348   3.971  30.359  26.155 -0.0173  0.2364  0.1040
46436W        W89349  34.085   0.907  26.767  0.0302  0.0607 -0.0815
46437W        W89350   4.014   2.458  17.278  0.0207  0.0933  0.1542
46438W        W89351   2.774  26.845  17.203 -0.0360 -0.2692 -0.0053
46439W        W89352  31.456  30.235  23.681  0.0881  0.0946 -0.2043
46440W        W89353   7.670  25.350  28.147  0.0330  0.0416 -0.1368
46441W        W89354  30.754   1.349  23.395  0.1568 -0.2456 -0.1834
46442W        W89355  34.173  32.129  15.865 -0.1740  0.2837 -0.1970
46443W        W89356  24.442  10.144  24.775  0.2031 -0.0514 -0.1971
46444W        W89357  28.540  32.705  14.751  0.1903  0.2022  0.1195
46445W        W89358   6.003   0.836  21.634 -0.0242  0.0586 -0.2169
46446W        W89359  23.694  10.615  24.639 -0.0468  0.3327 -0.0054
46447W        W89360  21.127   6.199  24.622 -0.2374 -0.3062 -0.2791
46448W        W89361  25.999   0.644  20.454  0.1878  0.0730 -0.0972
46449W        W89362  29.210   0.229  19.089 -0.1901  0.1457  0.0377
46450W        W89363   2.355  31.211  21.545  0.0524 -0.0737 -0.0614
46451W        W89364   4.767  32.907  22.660  0.1981  0.1623  0.2594
46452W        W89365   3.275   1.050  21.547 -0.2111 -0.0725 -0.1090
46453W        W89366  30.696  27.981   0.297  0.1503 -0.1186  0.0047
46454W        W89367  29.500  32.898  15.077  0.0273 -0.2165 -0.0954
46455W        W89368  28.718   7.403  16.407  0.1498 -0.2319 -0.0456
46456W        W89369  33.382   0.289   2.850 -0.0503  0.0872  0.1316
46457W        W89370   3.210   5.928  25.002 -0.1489 -0.1261  0.1933
46458W        W89371   3.846  23.736  28.634 -0.0851  0.2530 -0.0414
46459W        W89372  26.856   8.146  18.788 -0.0911  0.1676  0.1705
46460W        W89373  34.335   0.586  29.091  0.1615 -0.1490 -0.0692
46461W        W89374  34.472  32.888  23.538  0.0484  0.1498 -0.0783
46462W        W89375  33.038   6.240  18.836 -0.2090 -0.1991  0.0310
46463W        W89376  33.785  33.070  27.495  0.1942 -0.1553 -0.1050
46464W        W89377  30.546   9.655   2.329  0.0271  0.1791  0.2640
46465W        W89378  29.094   5.106  21.314 -0.0069  0.0078  0.2078
46466W        W89379   1.477  31.965  21.476 -0.1451 -0.0516 -0.0807
46467W        W89380  13.565  12.230  24.564  0.2984 -0.0974 -0.0899
46468W        W89381   1.439  10.053  21.244  0.0271  0.1596  0.0251
46469W        W89382   2.550   8.524  17.610 -0.1173 -0.1268 -0.2611
46470W        W89383  32.452   4.342  23.844  0.2744  0.2071 -0.2235
46471W        W89384  33.182  30.166  15.998  0.2144 -0.1226 -0.1495
46472W        W89385  26.070   4.969  14.205 -0.2714 -0.0736 -0.0575
46473W        W89386   0.779  11.236  19.605  0.1222 -0.1905  0.1094
46474W        W89387  27.073  31.627   1.987 -0.1704 -0.0519  0.0724
46475W        W89388  31.652  28.511  18.170 -0.1246  0.1032 -0.0085
46476W        W89389  34.161   1.415   3.468  0.0727  0.4669 -0.0285
46477W        W89390  27.443  31.117  25.461  0.0317  0.0568  0.0680
46478W        W89391  11.881   1.238  28.809 -0.2588 -0.0359  0.4149
46479W        W89392   0.092  32.717  16.650 -0.0061  0.0959 -0.2294
46480W        W89393   1.608  33.362  20.300  0.2386  0.5131 -0.3532
46481W        W89394  30.652  31.193  15.328  0.0740  0.0394 -0.2125
46482W        W89395  31.173   9.680  21.961  0.1216 -0.0457 -0.0100
46483W        W89396  23.399  26.558  20.519  0.0318  0.0993  0.0573
46484W        W89397   1.145  13.669  16.727 -0.2408 -0.1094  0.1096
46485W        W89398  31.613   3.402   3.941 -0.0967  0.2704 -0.1189
46486W        W89399   2.772   9.814  20.734  0.1307 -0.2439  0.2185
46487W        W89400   5.285   8.512  18.875 -0.5235 -0.0543  0.0668
46488W        W89401  30.369   3.655   0.859 -0.0051 -0.1716 -0.1694
46489W        W89402   1.876  22.940  23.294 -0.0506 -0.3189 -0.2365
46490W        W89403   2.923   5.951  12.176  0.3026  0.1197 -0.1203
46491W        W89404  31.620   2.827  27.878  0.0602  0.0955  0.0657
46492W        W89405  32.697   3.541  25.773  0.0132 -0.2294 -0.2997
46493W        W89406   2.253  26.570  18.542  0.2984 -0.1487  0.1481
46494W        W89407  31.212   1.721  18.967  0.2815  0.1356  0.2461
46495W        W89408   2.605   2.983  22.809 -0.0803 -0.0152 -0.4472
46496W        W89409  29.026   8.289  25.873  0.1462 -0.1803  0.0947
46497W        W89410  25.947  12.856  20.423  0.1824 -0.1050  0.1385
46498W        W89411  32.915   1.088   1.912  0.2403  0.1981  0.0416
46499W        W89412   1.504  34.355  28.403  0.0564 -0.2277 -0.0272
46500W        W89413   3.733   9.368  22.766 -0.0751 -0.0153 -0.3325
46501W        W89414  29.534   0.246  20.324  0.3013 -0.3198 -0.1673
46502W        W89415   3.135   1.752  19.655  0.3138  0.2806  0.2340
46503W        W89416  33.806  12.159  21.517  0.0437 -0.0884 -0.2917
46504W        W89417  34.376   6.658  18.827  0.3295  0.0328 -0.0631
46505W        W89418  26.896   2.188  24.205 -0.1596  0.1102 -0.1820
46506W        W89419   7.059   8.595  24.132 -0.0205  0.1656  0.0066
46507W        W89420  32.546   8.603  16.806  0.2144  0.4468  0.1121
46508W        W89421   0.138  31.598  23.955 -0.1739 -0.0856  0.1085
46509W        W89422   0.989  27.626  15.126  0.1149  0.3255  0.2870
46510W        W89423  29.190   9.952  17.581 -0.2778 -0.1438 -0.1547
46511W        W89424  30.183   6.567  16.057 -0.1043 -0.2389 -0.0262
46512W        W89425  28.994   9.005  24.134 -0.0553  0.0211  0.1544
46513W        W89426   2.271  30.949  14.772  0.1654  0.1188  0.3272
46514W        W89427  28.910  12.764  26.820  0.0539 -0.0946  0.0860
46515W        W89428  15.700   2.333  29.656 -0.0778 -0.4240  0.1663
46516W        W89429   3.279  28.647  16.480 -0.0096  0.1064 -0.1004
46517W        W89430   0.101   4.233  24.034 -0.2948 -0.1216  0.2638
46518W        W89431   6.482   9.005  18.673 -0.1344  0.1918  0.0508
46519W        W89432  30.116   4.005  18.011 -0.1152  0.2483 -0.0028
46520W        W89433  34.155  32.855  18.253 -0.2952  0.1761 -0.5142
46521W        W89434  33.509   6.660  18.894  0.2139  0.2025 -0.3288
46522W        W89435  16.519  14.071   0.430 -0.1649  0.3332 -0.2954
46523W        W89436  33.586   6.368  24.484 -0.2942 -0.0532 -0.4198
46524W        W89437  20.015   6.526  23.314  0.3561 -0.0705  0.0664
46525W        W89438   5.370  28.142  18.308  0.1641 -0.0467 -0.3218
46526W        W89439   2.439   1.114  21.630 -0.1268  0.1050  0.1769
46527W        W89440  28.294  30.805  14.525  0.0915 -0.0411  0.1373
46528W        W89441   1.731  26.562   1.384  0.0468 -0.2960 -0.0284
46529W        W89442  30.316   6.374  22.921  0.3714 -0.1305  0.3162
46530W        W89443   4.344   5.919  26.745  0.1777  0.0043 -0.3905
46531W        W89444  30.892   6.685  24.186 -0.1289 -0.0424 -0.2133
46532W        W89445   0.747  32.330  20.616  0.1250  0.1170 -0.4039
46533W        W89446  29.902  11.356  25.218  0.0657 -0.1828  0.1914
46534W        W89447  12.358  24.457  22.880 -0.2071  0.1037 -0.2198
46535W        W89448  31.773  29.197  17.169  0.2346 -0.0980 -0.0985
46536W        W89449  33.221  10.536  18.428  0.1326 -0.5203 -0.0880
46537W        W89450   9.483   1.288  26.172  0.1595  0.1516 -0.0052
46538W        W89451   0.148  31.716  18.506 -0.2943  0.1720  0.3443
46539W        W89452   8.661   2.289  26.338 -0.2397 -0.2884 -0.2607
46540W        W89453  31.060  29.380  25.355 -0.3495  0.0065 -0.0078
46541W        W89454   8.083   6.716  24.986 -0.1541  0.1952 -0.0472
46542W        W89455   6.835   2.724  23.903  0.2155 -0.0756 -0.4436
46543W        W89456  18.267  34.177   5.345 -0.0083 -0.0538  0.3811
46544W        W89457  25.482  11.713  29.278 -0.0893 -0.1521 -0.3495
46545W        W89458   7.948   1.637  20.284 -0.0888 -0.0461 -0.4154
46546W        W89459  24.210   7.401  18.905 -0.1475  0.1598  0.2876
46547W        W89460  32.254  27.647  21.178 -0.1462 -0.3294 -0.0852
46548W        W89461   2.537   5.665   1.127  0.0075  0.1531 -0.0898
46549W        W89462   2.721  34.186  25.613 -0.0381  0.0848 -0.2355
46550W        W89463   3.232  21.530  20.666 -0.1798  0.0014 -0.0950
46551W        W89464  25.807   0.926   1.359 -0.2088  0.0168  0.3349
46552W        W89465  20.897   0.091   2.041 -0.2258 -0.3914  0.0432
46553W        W89466  32.340  32.668  23.506 -0.1851  0.0018  0.1986
46554W        W89467  33.177  26.838  28.505  0.1123 -0.0701  0.1028
46555W        W89468   3.674   9.744  27.436 -0.2199 -0.0323 -0.0365
46556W        W89469  29.646   5.155  26.981  0.2834  0.2188 -0.1132
46557W        W89470   3.846   6.076  23.915 -0.1717  0.0260 -0.0365
46558W        W89471  25.951  14.707  22.084 -0.1221 -0.0351 -0.0995
46559W        W89472  34.396  30.842  16.827 -0.0071  0.2127 -0.1510
46560W        W89473  28.791   1.311  21.981 -0.2007  0.0018  0.2205
46561W        W89474  22.235  14.806  28.152  0.0569 -0.0055  0.4541
46562W        W89475  14.190   8.642  24.055  0.2609  0.3525 -0.0147
46563W        W89476  33.123   7.129  19.801 -0.1879 -0.0018 -0.2994
46564W        W89477  30.791   2.727  17.044 -0.1704  0.1472  0.1083
46565W        W89478  29.211   1.456  16.629  0.1366  0.0244  0.1775
46566W        W89479  33.444   6.875  16.549 -0.0320 -0.2304  0.1482
46567W        W89480   3.462  30.468  16.956 -0.0123 -0.3538 -0.0776
46568W        W89481   7.467  27.617  19.006  0.0599 -0.1318  0.1067
46569W        W89482  30.781  32.677  29.060 -0.1237  0.3330 -0.1839
46570W        W89483  27.352  20.764  26.540  0.0034 -0.1802  0.0450
46571W        W89484  31.461   3.644  15.938 -0.2163  0.2723  0.0010
46572W        W89485   0.513   2.031  22.303  0.0555 -0.0721 -0.3697
46573W        W89486   1.049   8.826  19.117 -0.1158  0.4637 -0.0212
46574W        W89487  29.382  25.766  21.049 -0.3063 -0.1062 -0.1130
46575W        W89488  28.953   4.012  27.647 -0.1961 -0.0740  0.2415
46576W        W89489  21.188   0.254  27.965  0.4013 -0.1603 -0.0119
46577W        W89490  29.807   4.076  23.096 -0.2508  0.3068 -0.1669
46578W        W89491   0.847   4.202  24.791  0.2241 -0.0324 -0.1779
46579W        W89492  24.179   8.128  18.530 -0.2637 -0.3566  0.2401
46580W        W89493  30.418  25.812  19.994  0.2702  0.2290 -0.1693
46581W        W89494   6.433  29.590  21.802  0.0803  0.0025 -0.2414
46582W        W89495  31.414   2.048  24.565  0.0350  0.1314  0.1041
46583W        W89496  33.548  31.664   0.953 -0.2069  0.2093 -0.1629
46584W        W89497  32.879  30.767  22.879  0.1372 -0.2530 -0.2383
46585W        W89498   1.129  12.571  19.301  0.0750  0.1924  0.2306
46586W        W89499  26.822  21.404  23.415  0.0111 -0.2141  0.1044
46587W        W89500  29.876  13.603  22.876  0.2417 -0.0497 -0.2329
46588W        W89501  28.512  32.448  19.225  0.2942 -0.2750  0.3349
46589W        W89502  25.589  25.749  27.455  0.0944  0.0316  0.1689
46590W        W89503   0.530   1.686  22.684 -0.0168 -0.1101 -0.1459
46591W        W89504  27.607  12.667  15.434 -0.0341 -0.0998  0.0930
46592W        W89505  32.137  34.423   0.990  0.0618 -0.0708 -0.0779
46593W        W89506  32.109  32.681  18.496  0.0225 -0.0289 -0.1313
46594W        W89507  21.722  31.434  20.430  0.0349  0.0088 -0.2022
46595W        W89508   4.580   2.155  24.564  0.0896  0.1069 -0.1148
46596W        W89509   5.512   1.754  28.547  0.1513  0.0426 -0.2322
46597W        W89510  33.853  29.867  15.322 -0.1923  0.2149  0.3037
46598W        W89511   0.380   9.731  23.244 -0.1199 -0.0977 -0.1643
46599W        W89512  21.236  33.163  26.458  0.1119  0.0130 -0.1853
46600W        W89513  28.800   4.272  19.616  0.0079 -0.1853  0.0743
46601W        W89514  27.237  14.105   1.927  0.1342 -0.0243 -0.0860
46602W        W89515   0.420   5.954  17.105  0.0752  0.4915  0.2263
46603W        W89516   0.248  26.374  26.138  0.2386 -0.3120  0.0289
46604W        W89517  27.113   2.605  29.532  0.2382 -0.0196  0.3461
46605W        W89518   8.255  23.810  25.238 -0.4894 -0.1498  0.1510
46606W        W89519  32.060  28.603   2.382 -0.1360  0.0552  0.0139
46607W        W89520   2.175  11.442  25.894 -0.2331 -0.1208 -0.3716
46608W        W89521  30.957   7.516   4.217  0.0924 -0.3469  0.2542
46609W        W89522  31.757   7.304  23.321  0.4485  0.0752 -0.2017
46610W        W89523  32.045   4.579  26.219  0.3067  0.1674 -0.0010
46611W        W89524  26.711  25.960  25.035  0.2166  0.0273  0.2806
46612W        W89525  31.691  33.271  25.533  0.1800 -0.1068  0.0696
46613W        W89526   2.569  28.185  25.991  0.0841  0.4681 -0.1437
46614W        W89527   8.675  27.983  17.237 -0.3354 -0.0380 -0.3384
46615W        W89528   4.087  26.456  29.646  0.1009 -0.0037 -0.1414
46616W        W89529  25.204  28.805   2.793  0.1369 -0.0490  0.3335
46617W        W89530   5.581   4.067  25.365 -0.2181 -0.2094 -0.3475
46618W        W89531   8.575   8.278   3.256 -0.1300  0.1219  0.1810
46619W        W89532  24.867   1.504  18.650  0.0853  0.2772 -0.5631
46620W        W89533  23.076  28.965   0.198 -0.1184 -0.2629 -0.0446
46621W        W89534   5.333  24.065  26.804 -0.0694  0.0991  0.4503
46622W        W89535  33.108  27.232  26.412 -0.0673 -0.2390  0.3420
46623W        W89536   2.902   0.575  24.333  0.1653 -0.1869  0.0110
46624W        W89537  27.105  10.572  26.101 -0.0664 -0.0998 -0.0172
46625W        W89538  31.095  19.613  20.024  0.0733 -0.1548 -0.0128
46626W        W89539  28.892  16.729  25.498  0.0581  0.1117  0.1197
46627W        W89540   1.202   7.111   4.268  0.0204 -0.0329 -0.2236
46628W        W89541  10.376   1.105  22.766 -0.1419 -0.2635 -0.1372
46629W        W89542  14.191   2.040  22.489  0.1092 -0.0159 -0.2143
46630W        W89543   3.686   1.025  17.699  0.0466  0.2860  0.2591
46631W        W89544  33.874  30.186  21.882  0.0848  0.0103  0.1906
46632W        W89545  24.908  33.942   2.261 -0.1353  0.0161 -0.2106
46633W        W89546  28.808  22.162  17.935 -0.1614 -0.2439 -0.4049
46634W        W89547   0.211  33.856   8.186  0.2541 -0.1350  0.1380
46635W        W89548  30.909   4.240  28.418 -0.0403 -0.0116 -0.1552
46636W        W89549   0.346  31.195  16.548 -0.3973 -0.0417  0.0092
46637W        W89550  20.776   0.519  23.038 -0.1778  0.0361  0.1114
46638W        W89551   3.191  31.314  21.075  0.0695 -0.1718 -0.1175
46639W        W89552  33.049   4.576   0.455  0.3294 -0.1292 -0.1847
46640W        W89553   4.529   3.423  23.491  0.1334  0.0266 -0.1963
46641W        W89554   1.701   1.514   0.021  0.0046  0.0460 -0.2576
46642W        W89555  27.536   5.808  26.181 -0.3167 -0.2637 -0.1040
46643W        W89556  24.444   5.255  25.926 -0.3125  0.1310 -0.0440
46644W        W89557   3.742  11.232  27.080  0.1510 -0.0252  0.2348
46645W        W89558  34.105   4.033  24.087  0.2982 -0.0244  0.0072
46646W        W89559   0.962   8.705   0.038  0.4074 -0.0815  0.0320
46647W        W89560  33.516  12.985  14.515 -0.0314 -0.3297  0.0895
46648W        W89561  21.141   8.692  18.195 -0.1045 -0.0674  0.2562
46649W        W89562   3.367   3.578  20.910  0.0111 -0.2079 -0.0056
46650W        W89563   5.097  34.491  28.542 -0.1102 -0.0585  0.1307
46651W        W89564   3.992  28.448   2.602 -0.0960  0.0497  0.1346
46652W        W89565   3.342   2.773   7.071 -0.2272 -0.0541 -0.3096
46653W        W89566   9.119   4.027  18.123  0.0154  0.1973  0.0890
46654W        W89567  32.877   5.042  27.101  0.0798 -0.0185  0.2396
46655W        W89568   5.104   2.058   4.731  0.1411  0.2619  0.1632
46656W        W89569  32.956  34.162  16.826  0.3454  0.0260 -0.0999
46657W        W89570  27.953   8.376  25.572  0.1620  0.2538  0.3395
46658W        W89571   4.055   0.745  21.327 -0.1635  0.0246  0.3220
46659W        W89572  33.283   3.094   0.379  0.1519  0.0672  0.0188
46660W        W89573  32.358   4.168  25.119  0.2083  0.0514  0.1943
46661W        W89574  25.352   1.866  26.683  0.0465  0.1606  0.4409
46662W        W89575  25.634  28.506  17.685  0.0858 -0.0418 -0.4626
46663W        W89576  28.788   2.115   0.663 -0.0249 -0.1957 -0.0259
46664W        W89577  34.310   0.788  23.774 -0.0382 -0.1246 -0.1713
46665W        W89578  31.849   3.460   0.778 -0.0026  0.1687  0.0625
46666W        W89579  30.364  32.133   0.359  0.0063  0.1400  0.0528
46667W        W89580   2.556  26.769  29.470  0.0899 -0.2609  0.2256
46668W        W89581   3.618  16.694  29.189  0.1357  0.1729  0.0055
46669W        W89582   2.726  23.394   2.528 -0.1094 -0.1125  0.0328
46670W        W89583  30.819  33.727  25.155 -0.0027  0.0165 -0.0124
46671W        W89584   6.124  29.151   3.187 -0.0126 -0.0327 -0.0486
46672W        W89585  28.955   5.210  27.458  0.2263  0.0050 -0.6344
46673W        W89586  25.052  30.625  24.153  0.0548  0.0847  0.0302
46674W        W89587  31.774  32.514  18.897 -0.1159  0.1778  0.2293
46675W        W89588  34.335   9.350  29.711  0.2427  0.2377 -0.1686
46676W        W89589  33.440   6.413   3.548 -0.0783 -0.0936 -0.2638
46677W        W89590  27.965  12.088   7.139 -0.2315 -0.1780 -0.0528
46678W        W89591  32.546  26.941  29.566  0.0573 -0.0172 -0.0310
46679W        W89592  26.095  15.075   1.982 -0.0376  0.0667  0.0489
46680W        W89593   3.312   6.209   2.953 -0.1889 -0.3348  0.3094
46681W        W89594  31.547  26.465  23.567  0.0741 -0.1334 -0.0783
46682W        W89595  24.665  32.518  19.942  0.2396 -0.0354 -0.0142
46683W        W89596  31.420  32.730   1.483  0.0977  0.1314  0.1249
46684W        W89597   6.637   5.962  21.152  0.1003 -0.5128  0.1752
46685W        W89598   8.332   6.385  21.736  0.0629 -0.0106 -0.1070
46686W        W89599  27.773   1.197  23.638  0.0086  0.1279  0.0215
46687W        W89600   2.507  33.471  22.786  0.0133 -0.2195  0.1858
46688W        W89601   3.671   2.193  27.354 -0.2504 -0.1041 -0.0381
46689W        W89602  28.617   4.262  29.772 -0.0426  0.1811  0.0097
46690W        W89603  13.748  28.564  24.251  0.3479  0.0227 -0.0650
46691W        W89604   3.676   6.972  21.904 -0.0419  0.1920 -0.2862
46692W        W89605   8.523  31.524  24.351  0.0290 -0.0408  0.0030
46693W        W89606  16.271  33.204   0.488 -0.0657 -0.2950  0.0406
46694W        W89607  13.966  29.162  25.659 -0.0523 -0.0183  0.0158
46695W        W89608   9.683  32.105   3.891  0.1824 -0.1040 -0.1220
46696W        W89609   5.437  25.743  29.215 -0.0806 -0.0240 -0.2298
46697W        W89610   6.364   3.924  18.308  0.1443  0.1363 -0.4041
46698W        W89611  31.549  18.778  25.552  0.2139  0.0903 -0.1124
46699W        W89612   4.484  22.599  17.325  0.2339 -0.0724 -0.2428
46700W        W89613   1.444   0.699  26.676  0.2576 -0.0555 -0.2895
46701W        W89614   4.831   1.330  29.647 -0.2391  0.1861  0.2397
46702W        W89615   3.560   3.307   0.270  0.0564  0.0735 -0.0804
46703W        W89616  29.631   0.552  21.170 -0.1725 -0.2560 -0.1749
46704W        W89617  30.073  33.703   2.104 -0.1045 -0.0967 -0.0803
46705W        W89618  28.728  30.076  24.329  0.2823  0.4307 -0.0050
46706W        W89619  12.800   1.262  20.117 -0.2755  0.1558 -0.1520
46707W        W89620  30.500   7.153  19.208  0.2466 -0.0352  0.0477
46708W        W89621  33.745  34.057  23.911  0.0999  0.1665 -0.1874
46709W        W89622  29.613  33.856  18.267 -0.1208  0.0702 -0.1594
46710W        W89623  32.950  31.645  25.375  0.0834  0.1592  0.0136
46711W        W89624  25.509   8.411  27.256 -0.0579 -0.1236 -0.0412
46712W        W89625  22.709  12.409  14.759  0.3510 -0.1236 -0.0667
46713W        W89626  23.329   7.554  22.116  0.2006 -0.0950  0.0916
46714W        W89627  24.193   9.671  26.704 -0.1836 -0.0553  0.1359
46715W        W89628  30.808   5.364  27.925 -0.1170 -0.3028  0.1675
46716W        W89629  32.682  10.010  26.803  0.0060 -0.0505 -0.0484
46717W        W89630  10.196  32.703  16.445  0.0252 -0.0813 -0.1199
46718W        W89631  29.048  26.281  19.634 -0.1036 -0.1802 -0.0488
46719W        W89632   0.931  11.214   4.293 -0.1632  0.0030  0.0941
46720W        W89633  27.585   3.240   3.705 -0.2063  0.0732 -0.3307
46721W        W89634   9.910   1.705  22.145 -0.0851  0.3057  0.1918
46722W        W89635  16.854  27.045   1.585  0.0537 -0.1243  0.0710
46723W        W89636   4.658  24.612  27.989  0.0932 -0.0355 -0.0773
46724W        W89637  19.527  30.081  26.910 -0.0359  0.2942 -0.0577
46725W        W89638  33.479   5.942  26.932 -0.0042  0.1916 -0.0284
46726W        W89639   1.542  11.896  29.421 -0.0092  0.0257 -0.1979
46727W        W89640  31.420   2.822  16.355 -0.1880  0.0936  0.1407
46728W        W89641   0.497   4.145  24.397 -0.1445  0.0928 -0.0337
46729W        W89642  13.664   9.764   0.515 -0.1019 -0.1132 -0.2795
46730W        W89643  22.634   7.001  22.541 -0.0764  0.0359  0.3026
46731W        W89644  20.755   1.621  27.058  0.1694  0.0300 -0.2181
46732W        W89645   5.201   4.616   8.175  0.0300 -0.1151  0.2410
46733W        W89646   6.126   2.866   0.759  0.4620 -0.2475  0.1415
46734W        W89647   7.250  33.514  26.168  0.2376  0.1119  0.1132
46735W        W89648  28.917   0.778   4.572  0.0966  0.3612 -0.2630
46736W        W89649   7.808   0.942   3.882  0.2013  0.2606 -0.3375
46737W        W89650  33.642   8.761   0.616  0.0121  0.0691 -0.0752
46738W        W89651   3.181   7.368  26.288 -0.1334  0.2865 -0.0462
46739W        W89652  23.506   7.587  25.825  0.3641 -0.2400 -0.1303
46740W        W89653  32.496  14.047   0.472 -0.1341 -0.2136 -0.0764
46741W        W89654  29.128   6.058  20.341 -0.1856  0.0343 -0.0689
46742W        W89655  22.121   0.633  25.366  0.2293  0.2035 -0.1583
46743W        W89656  33.888  33.848  19.772 -0.0371 -0.1263 -0.2164
46744W        W89657   6.663  18.029  15.973  0.2728 -0.0362  0.1679
46745W        W89658  32.139  31.476  17.666 -0.0521 -0.2358  0.3432
46746W        W89659  34.239   4.019   0.186 -0.1104  0.1791 -0.3400
46747W        W89660  29.089   2.910   1.468 -0.0511 -0.0596  0.1933
46748W        W89661  16.076  23.518  21.864  0.1711 -0.1498 -0.0266
46749W        W89662  31.335   4.306   3.199  0.0731 -0.2084  0.2474
46750W        W89663  32.787  32.420   4.461 -0.1039  0.0203 -0.0356
46751W        W89664  31.148   4.050  21.543  0.1527  0.3655 -0.0352
46752W        W89665  33.205  17.919   8.426  0.2423  0.1647 -0.3380
46753W        W89666   0.501   2.283  25.432  0.0224  0.0136 -0.0387
46754W        W89667  27.392  20.658  22.879 -0.0675  0.0341 -0.0285
46755W        W89668   0.430  11.195  26.389  0.1815 -0.0568  0.1221
46756W        W89669  12.685   9.158  20.640  0.3638 -0.1146  0.2867
46757W        W89670   1.831  31.561   0.714  0.1744 -0.0051 -0.0374
46758W        W89671   9.223  32.907  24.561 -0.3485  0.1579  0.1119
46759W        W89672   2.419   7.681  27.351  0.0923  0.1771  0.2555
46760W        W89673  34.270  28.094  26.294  0.0832 -0.0616 -0.0714
46761W        W89674   4.391  33.663  21.997 -0.1227  0.0245 -0.1362
46762W        W89675  24.671  10.164  25.896 -0.1039  0.0193  0.1926
46763W        W89676   6.385   7.256  25.992  0.1411 -0.2752  0.0828
46764W        W89677  33.315  34.138  22.686 -0.0016 -0.1250 -0.1086
46765W        W89678  33.935   0.624  27.273  0.1116  0.0557 -0.0716
46766W        W89679  30.992  28.400   1.489  0.3066 -0.2475 -0.2753
46767W        W89680  28.656   2.275  27.304 -0.1238  0.1130 -0.0601
46768W        W89681   0.335   4.453   3.165 -0.2369  0.1290 -0.2741
46769W        W89682  27.737  21.804  16.714 -0.0626  0.0634 -0.2149
46770W        W89683  31.968  13.406  17.090 -0.4701  0.2282  0.1259
46771W        W89684   3.705  34.188  24.618 -0.3031 -0.1385  0.0025
46772W        W89685  25.640  33.739  23.060  0.3244  0.2609  0.0582
46773W        W89686   8.978  32.389  24.147  0.0343  0.0521 -0.1047
46774W        W89687  30.071  12.247   0.613 -0.0286  0.0817 -0.0425
46775W        W89688   2.537   3.716  26.059  0.2809 -0.0056  0.1565
46776W        W89689  31.737   2.541  27.418 -0.2602 -0.1586  0.1122
46777W        W89690   0.607   2.530  20.904 -0.6140 -0.0513  0.1824
46778W        W89691   0.624   1.105  27.062 -0.4316 -0.0698  0.0355
46779W        W89692  33.012   8.483  28.792  0.2360  0.1404 -0.1310
46780W        W89693   6.390  11.838  23.615  0.3667  0.0681 -0.0611
46781W        W89694   2.139  30.622  22.182  0.2984 -0.0641 -0.1177
46782W        W89695  32.952   3.671  28.855 -0.3683  0.0740  0.0503
46783W        W89696  22.162  29.296   0.047  0.2202  0.2328  0.2325
46784W        W89697   8.372   2.911   0.038  0.0951  0.1223 -0.1272
46785W        W89698   6.625  28.941  19.056 -0.3527 -0.1216 -0.3598
46786W        W89699  27.034  25.211  27.021 -0.1337 -0.1389  0.2122
46787W        W89700  33.627  30.997  28.895  0.0518  0.3161 -0.0815
46788W        W89701  17.011   7.429   1.918  0.2925 -0.3641  0.2215
46789W        W89702   2.894   1.664  26.933 -0.2889 -0.1166  0.0246
46790W        W89703  26.275  26.283   1.467 -0.1060  0.0787 -0.1478
46791W        W89704  28.000  13.200  14.530  0.0541 -0.0685  0.1352
46792W        W89705  29.850   5.981   7.256  0.0517 -0.1234 -0.0417
46793W        W89706  26.082   6.484  27.810 -0.3194 -0.0367  0.0196
46794W        W89707  27.709  31.184  27.759 -0.2553 -0.0895 -0.1654
46795W        W89708   7.233  24.631  21.167  0.2932 -0.1259  0.3162
46796W        W89709  12.231   4.445  26.272  0.2529  0.1191 -0.3138
46797W        W89710   7.818  30.135  25.968 -0.2601 -0.0072  0.3433
46798W        W89711  25.702   0.945  26.363 -0.3772  0.4169  0.0432
46799W        W89712  21.299   3.407   2.555  0.1079 -0.0743  0.0395
46800W        W89713  32.120  24.149  28.206  0.1015 -0.4741  0.2149
46801W        W89714   2.519  29.831  15.415  0.1804 -0.0548 -0.2310
46802W        W89715  25.094  32.765  27.044 -0.0897 -0.1930  0.3212
46803W        W89716   3.800   8.870  28.827  0.0623  0.2195 -0.2957
46804W        W89717  22.507   1.640  17.464  0.3470 -0.1926 -0.0454
46805W        W89718   5.727  34.471  21.905 -0.4044 -0.0303  0.3616
46806W        W89719  27.912   8.118   0.587 -0.0731  0.0814 -0.0500
46807W        W89720  22.980  25.915   0.175  0.1720  0.1404 -0.1733
46808W        W89721  18.066  24.587  28.043 -0.3159 -0.1487  0.0549
46809W        W89722   9.293   4.614  22.412  0.3222  0.1344  0.1333
46810W        W89723   9.683  12.707  28.794 -0.0795 -0.0826 -0.1485
46811W        W89724   5.508   2.590  24.690  0.0908 -0.0621 -0.0576
46812W        W89725  34.484  33.377  19.662 -0.0177  0.1229 -0.0075
46813W        W89726  10.040  24.706  22.144  0.1611  0.2808 -0.1802
46814W        W89727  31.051  13.283  16.555  0.1887 -0.1019  0.2755
46815W        W89728   3.295  12.195  25.436 -0.2910  0.1356  0.0148
46816W        W89729   4.132  32.505  15.707 -0.0554  0.0250  0.0325
46817W        W89730   6.249  33.700  21.837 -0.3734 -0.2977 -0.3084
46818W        W89731  27.790   5.135  21.606 -0.2223 -0.0867  0.0651
46819W        W89732  26.160  24.489   0.035  0.2517 -0.0874  0.2472
46820W        W89733  31.390  32.369  18.596 -0.1189  0.0667  0.0959
46821W        W89734   0.551   7.768   8.882  0.0338  0.2572 -0.2233
46822W        W89735  34.251   6.832  25.193  0.6250  0.0188 -0.0766
46823W        W89736   4.033   0.091   4.921 -0.1790 -0.1825  0.2861
46824W        W89737  31.482  33.942  24.580  0.0606  0.2383  0.1217
46825W        W89738  28.862  31.706  21.995  0.1307 -0.0669  0.3960
46826W        W89739  31.515   7.202  22.496 -0.1694 -0.1098  0.2271
46827W        W89740  30.133  30.226  21.311  0.0831  0.0713  0.1056
46828W        W89741   3.726   5.067  22.520  0.1495 -0.1677 -0.1288
46829W        W89742   5.483   1.886  20.087 -0.2753 -0.0033 -0.0483
46830W        W89743  24.611   5.581  28.369  0.0942 -0.0747 -0.0952
46831W        W89744  30.950  30.337   6.215  0.2929  0.1989 -0.0735
46832W        W89745   1.338  30.580  24.615 -0.1556 -0.1460  0.3236
46833W        W89746  33.687   0.069  23.921  0.1788 -0.4017  0.0925
46834W        W89747  25.024   2.509  27.017 -0.0333  0.1949 -0.2626
46835W        W89748   3.458   3.315  23.457 -0.2347 -0.1213  0.1406
46836W        W89749   7.056  33.424  19.660 -0.0611 -0.0920 -0.0492
46837W        W89750  21.762   5.009  18.760  0.0350 -0.1769 -0.0486
46838W        W89751   7.634  10.477  26.535 -0.1750  0.2602 -0.0888
46839W        W89752   0.240  29.981   4.128  0.0117 -0.0798 -0.2094
46840W        W89753   4.927   4.467   9.866 -0.2120 -0.1266  0.0324
46841W        W89754   4.364  26.825  26.541 -0.0091  0.1627  0.3400
46842W        W89755  33.603   8.240  25.920  0.0907 -0.0498  0.0918
46843W        W89756  30.841   2.150  27.923 -0.0383  0.1047  0.0768
46844W        W89757   4.861   6.935  23.399 -0.4299  0.0118 -0.2066
46845W        W89758  32.086  32.769   5.815 -0.0936 -0.0663 -0.2942
46846W        W89759   0.034   1.581  24.211 -0.3437 -0.3017 -0.0597
46847W        W89760  33.507  13.345   0.639 -0.1904  0.1685 -0.0968
46848W        W89761  30.845   8.288  21.662  0.0563  0.3187 -0.0926
46849W        W89762  30.358   5.728  25.969 -0.0979 -0.1838 -0.1334
46850W        W89763   3.665  29.233  16.012 -0.1290  0.0871  0.2404
46851W        W89764   2.157   6.254  22.810  0.3853  0.1050 -0.5112
46852W        W89765  10.960  30.215   2.020 -0.2677 -0.1302 -0.0792
46853W        W89766  25.760  33.121  28.103 -0.2594  0.2515 -0.0982
46854W        W89767   3.931  14.763   1.094  0.3347  0.1538 -0.1520
46855W        W89768   1.451  16.977   3.102 -0.0674 -0.1519 -0.0414
46856W        W89769  31.743   2.486   6.102  0.0663  0.3776 -0.0603
46857W        W89770   5.239   0.065  29.040  0.0771  0.1456  0.1497
46858W        W89771   0.535   5.780   6.298  0.3745  0.0486  0.0628
46859W        W89772   2.336   5.718   5.410  0.5133  0.0224 -0.2429
46860W        W89773  28.699  13.495  28.103  0.1404 -0.2587  0.1535
46861W        W89774  27.837   9.220  14.381 -0.2114 -0.2507  0.0452
46862W        W89775  25.319   3.608  20.336  0.1380  0.2408 -0.0218
46863W        W89776  27.339  27.291   0.002 -0.3020 -0.1379  0.1014
46864W        W89777  24.278  30.335   1.220 -0.1000  0.2195  0.2115
46865W        W89778   6.124  28.646  28.458 -0.1363 -0.0275 -0.1913
46866W        W89779   1.891  33.923  18.681 -0.1616  0.1679 -0.2641
46867W        W89780  32.507   5.658  20.808  0.0219  0.0767  0.0746
46868W        W89781  23.837  11.240  26.407 -0.1323  0.0818  0.1936
46869W        W89782  30.372  28.546  16.974  0.1935 -0.0540 -0.0661
46870W        W89783  27.254   3.115  28.734  0.3786  0.1871 -0.0243
46871W        W89784   6.737   0.026  25.602  0.0626  0.3755 -0.1095
46872W        W89785  29.269  33.385   4.029  0.3907 -0.0075  0.1380
46873W        W89786  29.666   0.319   2.461 -0.3273 -0.1946  0.1126
46874W        W89787   7.627  29.672  27.398  0.0035 -0.0452 -0.3169
46875W        W89788  33.902   8.559  26.846 -0.1600 -0.3580  0.0773
46876W        W89789   2.962   1.215   4.433 -0.0625 -0.2262 -0.0386
46877W        W89790   8.851  17.234   5.214  0.0834  0.1142 -0.3080
46878W        W89791  16.183  29.338  22.781 -0.2412  0.0375 -0.1499
46879W        W89792  27.392  31.618  27.907  0.2589 -0.2264  0.1621
46880W        W89793  30.807  24.433   2.340  0.0804  0.2636 -0.1554
46881W        W89794  29.334   6.249  25.903  0.1363  0.1842  0.0219
46882W        W89795  12.691  34.364   9.187  0.1435 -0.0548  0.1138
46883W        W89796  28.731  32.194  29.300 -0.1508 -0.2956  0.0784
46884W        W89797   4.624  33.213   1.005  0.0514  0.4034 -0.0594
46885W        W89798  34.269   3.461  26.172  0.2767  0.0570 -0.0868
46886W        W89799  33.348  17.551   1.711  0.2317 -0.1445  0.0924
46887W        W89800  30.648   2.783  28.752 -0.1479 -0.0488 -0.0977
46888W        W89801  29.974  11.856  25.416 -0.0175 -0.1652 -0.1241
46889W        W89802  27.274   2.193   4.947 -0.0620  0.0113  0.1152
46890W        W89803   3.370  17.504   0.490  0.1333  0.0621 -0.3125
46891W        W89804  29.709   7.223   5.004 -0.0058  0.0834  0.1320
46892W        W89805   4.495  11.232  20.561 -0.0242 -0.1044  0.2900
46893W        W89806  31.971   6.082  22.429 -0.0330 -0.1965  0.1843
46894W        W89807  29.638  26.712   6.981  0.1371  0.0994 -0.0924
46895W        W89808  30.654   4.761  23.451  0.0175  0.1877 -0.0363
46896W        W89809  30.824   4.925  24.585 -0.3744  0.2345 -0.1405
46897W        W89810   7.048  30.519  27.361  0.1047  0.3739  0.1914
46898W        W89811   9.960  31.922  28.983  0.4092 -0.2848 -0.0584
46899W        W89812  11.278  32.184  26.386 -0.1710 -0.3683 -0.0219
46900W        W89813  28.344   7.282  18.402 -0.1135 -0.0099  0.0209
46901W        W89814   2.262   3.999  27.766 -0.0892 -0.1176 -0.0790
46902W        W89815  32.710  13.193  15.540  0.3701  0.0369  0.0283
46903W        W89816  34.099   3.774   3.908  0.1411  0.1132 -0.0703
46904W        W89817   0.498   8.768  16.727  0.1748  0.0531  0.4554
46905W        W89818   0.674  29.477  29.229 -0.0100  0.1517 -0.0001
46906W        W89819  26.947   0.699  29.644 -0.1684  0.1610 -0.1934
46907W        W89820  27.802  28.680  14.171  0.1419  0.0067 -0.2420
46908W        W89821   2.712   9.573   0.532 -0.2314  0.0494 -0.0693
46909W        W89822  29.891   2.015  29.491 -0.3442 -0.1156  0.0734
46910W        W89823  31.491  10.620   6.193  0.2002 -0.2149 -0.1106
46911W        W89824   7.344   5.315  28.698  0.1643 -0.0660 -0.2902
46912W        W89825   3.046  30.428  27.987  0.1866 -0.0054 -0.1966
46913W        W89826  21.213   7.199   0.533 -0.1670  0.3318 -0.0222
46914W        W89827   1.206  26.719  20.957  0.1097 -0.2401  0.1114
46915W        W89828   2.941   1.824  20.155 -0.0106  0.1588 -0.0801
46916W        W89829  27.361  34.482   3.645 -0.1295  0.0089 -0.0931
46917W        W89830   8.129   1.079  24.290  0.0931  0.0783  0.1962
46918W        W89831   0.300  11.376  16.134  0.1741  0.0960 -0.0296
46919W        W89832   5.694  13.187   8.926  0.3911 -0.1027  0.2351
46920W        W89833  30.825  10.819  15.482  0.2037  0.1525 -0.0685
46921W        W89834  29.324  33.432  26.814 -0.3229 -0.1125 -0.3360
46922W        W89835  32.677  24.668   2.621 -0.0183  0.2269 -0.3612
46923W        W89836  18.888  13.417  18.227  0.0290 -0.0461 -0.2987
46924W        W89837   1.770   1.941  27.511 -0.0547  0.4757  0.0062
46925W        W89838   6.963   7.964  24.929 -0.1619  0.2569 -0.1614
46926W        W89839  30.070  32.580   3.139 -0.3362 -0.1602 -0.0061
46927W        W89840  23.487  25.189  23.945 -0.3334  0.0828 -0.1857
46928W        W89841   7.782  31.694  20.495 -0.0305  0.1817 -0.1609
46929W        W89842   2.975  33.797   0.145 -0.1043  0.2766 -0.0636
46930W        W89843   1.915   2.504  29.478  0.1343 -0.1385 -0.0455
46931W        W89844   8.841   9.014  20.698 -0.1707 -0.3606  0.1173
46932W        W89845   1.148   7.396  19.876  0.0595 -0.1419 -0.1168
46933W        W89846  22.680  29.876  25.351  0.1026  0.0756  0.3316
46934W        W89847  27.880  13.493   0.916  0.1438 -0.4117  0.1572
46935W        W89848   2.170   1.085  26.965  0.0758 -0.3955 -0.0583
46936W        W89849  31.184  32.495  21.061 -0.0370 -0.1245 -0.1476
46937W        W89850  16.061   3.930  22.270  0.0874  0.2207 -0.2724
46938W        W89851  13.979   7.568  25.812 -0.2833  0.0085  0.0122
46939W        W89852  31.336  12.344   2.369 -0.0122 -0.1055  0.0737
46940W        W89853   5.538  31.134  20.658 -0.1662 -0.4669 -0.1794
46941W        W89854   3.046  31.837  24.540  0.2744  0.2816 -0.0295
46942W        W89855   2.345  30.009  24.199  0.2113 -0.3614  0.0296
46943W        W89856  32.414  13.735  14.009  0.1363 -0.1363 -0.0958
46944W        W89857   5.920   2.848  29.495  0.1698 -0.2189 -0.1337
46945W        W89858   7.447  12.274   7.681 -0.1803  0.0547  0.1880
46946W        W89859  12.986  32.794  25.572 -0.0343 -0.1040  0.2316
46947W        W89860  23.771  33.144  24.290  0.0071  0.0349  0.0282
46948W        W89861   5.974  10.167   1.009 -0.0879  0.0817  0.1354
46949W        W89862   7.302  32.301   3.962  0.0467  0.0494  0.0818
46950W        W89863  28.193   6.061  27.078  0.2217  0.1992  0.2295
46951W        W89864  19.930   1.929   0.592 -0.1289  0.3650  0.1476
46952W        W89865  10.356   9.756  28.054  0.0815  0.1177  0.0748
46953W        W89866  30.204   5.257  29.398  0.3191 -0.1745  0.3643
46954W        W89867   0.124  27.618   5.219  0.0465 -0.0385  0.3392
46955W        W89868   9.313  31.830   7.257  0.0949 -0.0135 -0.1890
46956W        W89869  34.387   4.675   1.055  0.0056 -0.0799 -0.0906
46957W        W89870   8.861   4.783  27.095 -0.0415  0.1299 -0.0497
46958W        W89871  24.987  30.209   3.981  0.0858  0.3970 -0.1020
46959W        W89872   0.056  30.142  14.500  0.0183  0.1339 -0.1576
46960W        W89873  23.811   2.622  23.142 -0.1541  0.0953 -0.0992
46961W        W89874  24.644  32.377   4.563  0.0100 -0.1560  0.1040
46962W        W89875  26.355  20.066  26.995 -0.0354 -0.2654  0.4153
46963W        W89876  26.094  26.308  27.042 -0.0000  0.0366 -0.1104
46964W        W89877  29.484  31.865  25.465 -0.0565 -0.1270  0.1734
46965W        W89878   5.110   4.334  27.703 -0.0943  0.0210 -0.2185
46966W        W89879  29.466   1.246   5.765 -0.0038 -0.1447  0.2312
46967W        W89880  34.316  30.117   1.997  0.0768  0.2130 -0.0636
46968W        W89881  32.422   4.760   4.951  0.0550  0.2413  0.2031
46969W        W89882  33.575  33.182   3.479  0.0682  0.2340  0.1180
46970W        W89883  30.629   6.844   8.895 -0.1443 -0.1033  0.1658
46971W        W89884  30.832   1.170  20.137  0.0524 -0.0931 -0.0011
46972W        W89885   3.025   2.908  22.247  0.1912 -0.1932 -0.4544
46973W        W89886   7.003  14.864  28.948  0.1337 -0.0638 -0.0216
46974W        W89887  25.497   0.587  29.629 -0.0344  0.0732  0.2980
46975W        W89888   2.522   2.077  26.070  0.2032  0.0797  0.0168
46976W        W89889  31.967  26.685  29.235  0.1011  0.0876  0.1237
46977W        W89890  31.347  34.095  27.277 -0.2060  0.0157 -0.2602
46978W        W89891  31.101   2.002  28.352 -0.4009 -0.0287  0.0097
46979W        W89892   6.250   3.869   0.744  0.1942 -0.0961  0.0218
46980W        W89893  20.893   4.336  27.396 -0.0250  0.2262  0.0274
46981W        W89894  28.531   1.011  25.044  0.1416 -0.1666 -0.0001
46982W        W89895  31.411   0.247  19.829  0.1414  0.1365  0.1787
46983W        W89896   4.102   4.723  27.159  0.0543  0.2409  0.0375
46984W        W89897  34.058  34.434   7.661 -0.1831 -0.2309 -0.3245
46985W        W89898   7.334  21.678  27.817  0.2589  0.0992 -0.3103
46986W        W89899  33.288   3.100  22.192 -0.2315  0.2479 -0.1224
46987W        W89900   1.136  33.970  29.579  0.0842 -0.1742  0.0882
46988W        W89901  30.757   4.787   1.776  0.0479  0.1449  0.0397
46989W        W89902   4.460   9.729  20.868  0.0207  0.0120  0.0250
46990W        W89903   6.018   7.137  24.183 -0.0433  0.3447 -0.0095
46991W        W89904   1.383   0.416   3.761 -0.1173 -0.1904  0.2019
46992W        W89905  28.584  14.335  29.424 -0.1371  0.2172  0.1509
46993W        W89906  24.479   3.806   9.262 -0.0785  0.0911 -0.0706
46994W        W89907   0.111   7.172   0.480 -0.0814  0.0367 -0.0448
46995W        W89908   5.917  10.880  25.058 -0.1909 -0.2756 -0.1696
46996W        W89909  29.874  34.452  29.165  0.2018  0.3914 -0.2097
46997W        W89910  30.774   0.750  27.593 -0.0051  0.1440 -0.3271
46998W        W89911  30.620   2.068   6.053  0.1733  0.2520  0.1469
46999W        W89912   2.619   7.165   0.440  0.0068  0.4199  0.3710
47000W        W89913   4.349  30.209   9.077  0.1612 -0.1933  0.3200
47001W        W89914  28.375   4.248  23.111  0.0106 -0.2103 -0.0987
47002W        W89915  28.261  12.281   6.293 -0.2782  0.2826  0.0188
47003W        W89916   4.405   4.138  24.125  0.0746 -0.1417  0.0345
47004W        W89917  29.898   0.924   0.485  0.0591  0.1859 -0.2487
47005W        W89918   4.347   9.350   2.282 -0.1579 -0.3203 -0.2169
47006W        W89919  31.730  19.629   0.805 -0.3277  0.4327 -0.0846
47007W        W89920   9.683  10.773   1.798 -0.0429 -0.0829  0.2080
47008W        W89921   7.473  11.050   5.460  0.2951  0.1272  0.2818
47009W        W89922   1.099  13.369  27.729  0.0267  0.1779 -0.0790
47010W        W89923   0.921   5.921  23.154 -0.0916  0.2060  0.1659
47011W        W89924  21.595   3.595   0.695 -0.3695 -0.0367  0.1238
47012W        W89925   0.227   2.577  19.004  0.0301 -0.0041 -0.2465
47013W        W89926   8.374  31.439  28.650  0.3669  0.0122 -0.3218
47014W        W89927   0.783  29.871  26.227  0.0430 -0.2368  0.1630
47015W        W89928  25.938   4.032  19.734  0.0281  0.1884  0.1036
47016W        W89929   7.927   3.604  27.471  0.2095  0.3216 -0.2613
47017W        W89930  28.024  33.076  26.980 -0.1590 -0.3095 -0.0692
47018W        W89931  21.985  25.534  26.527 -0.0979  0.1171  0.0107
47019W        W89932  16.777   8.711  23.350 -0.2327 -0.0964 -0.0508
47020W        W89933   2.123  34.366   1.720  0.1156 -0.1463  0.0069
47021W        W89934  33.137  30.760  29.619 -0.0634 -0.0022  0.1081
47022W        W89935  25.449  28.021  14.423 -0.2447  0.3289 -0.2911
47023W        W89936  30.755   4.743  26.806  0.2276  0.1513  0.1922
47024W        W89937  27.183   0.251  24.706  0.2006  0.1661 -0.0444
47025W        W89938  25.396   7.805  28.111  0.3906  0.1624 -0.2635
47026W        W89939  33.957  32.841  28.758 -0.1377  0.0476 -0.0657
47027W        W89940   5.167   5.373  29.286  0.0649  0.1940  0.2301
47028W        W89941  29.116  30.492   1.162  0.0808  0.0167  0.1430
47029W        W89942  31.174  32.445  28.788 -0.1886  0.0860 -0.1560
47030W        W89943   3.890  33.459  24.028  0.1178 -0.1203 -0.1787
47031W        W89944   8.464   8.156  28.830  0.0639  0.2543 -0.1067
47032W        W89945  30.304  31.477  25.620 -0.1520 -0.0610 -0.0445
47033W        W89946  29.233  29.555   2.885  0.1336  0.0620 -0.0667
47034W        W89947  26.758  33.566  21.468 -0.1134 -0.1944  0.0925
47035W        W89948  29.164   6.526  21.283  0.2373 -0.0040  0.0698
47036W        W89949  10.238   1.549   8.200  0.2299 -0.1764  0.4261
47037W        W89950  27.414  33.493   3.841  0.0171  0.0614  0.1722
47038W        W89951   3.296  28.176  23.522 -0.0985 -0.0292 -0.2343
47039W        W89952  21.237  32.938  27.854 -0.0070 -0.3268 -0.0488
47040W        W89953   3.453   8.341   9.885 -0.0220 -0.1035 -0.1476
47041W        W89954  30.314  33.219   9.553  0.0201 -0.2217  0.0559
47042W        W89955   8.960   9.979   8.437 -0.2069 -0.0000 -0.1000
47043W        W89956  23.096  34.176  26.303  0.0618 -0.4512 -0.0767
47044W        W89957  32.655   6.694   3.846 -0.3697 -0.0253  0.1370
47045W        W89958   2.241  31.217   0.903  0.0368  0.2377 -0.0927
47046W        W89959  22.701  25.713   1.017  0.3074  0.0076  0.2267
47047W        W89960  30.790   3.645   1.197  0.1645 -0.1536 -0.0407
47048W        W89961   2.660  11.545   6.512  0.0731 -0.3100  0.3890
47049W        W89962  34.196   2.146  29.103 -0.0537  0.0341  0.1000
47050W        W89963   1.895  30.472  27.070  0.0346  0.1374 -0.0732
47051W        W89964  17.894  29.586  26.737  0.2132  0.2235  0.0355
47052W        W89965   1.715  33.515   4.806  0.0255  0.2634  0.0401
47053W        W89966  23.740   3.128   1.150 -0.1673  0.2757  0.0567
47054W        W89967  27.948  29.925  25.879 -0.1845  0.1022  0.0999
47055W        W89968  22.977  33.756  24.890 -0.0549 -0.0709  0.0328
47056W        W89969  24.751  28.627  21.083  0.1661 -0.0515 -0.1703
47057W        W89970  32.294   3.084  26.037  0.2294  0.5358  0.2258
47058W        W89971  28.368   6.763  24.700 -0.0150  0.1995 -0.0225
47059W        W89972   4.291  31.804  29.446 -0.1099  0.2872  0.2643
47060W        W89973  32.603   0.001   4.344  0.2135 -0.1925 -0.1872
47061W        W89974   4.068   0.116   0.379 -0.3634 -0.1196 -0.4592
47062W        W89975  27.832   7.564  10.620 -0.0293  0.2392 -0.1561
47063W        W89976   2.505  28.791  29.417  0.1972  0.2896  0.0101
47064W        W89977   4.649   5.767  25.392  0.1828  0.2215 -0.0446
47065W        W89978  28.730   5.980  26.993 -0.2571  0.1971  0.0169
47066W        W89979  17.711   5.776  27.021 -0.1362 -0.1979 -0.0959
47067W        W89980   1.207  11.997   2.711 -0.1360  0.5526  0.3900
47068W        W89981   2.442  28.535  24.034 -0.0311 -0.0043 -0.4449
47069W        W89982  27.695  10.509   5.151  0.2771  0.1592  0.1519
47070W        W89983   3.604  33.711  16.299  0.5205 -0.0115  0.0085
47071W        W89984  31.176   9.777  18.787  0.3619  0.0664  0.0206
47072W        W89985   2.577  11.925  26.453  0.0049  0.0776  0.2113
47073W        W89986  32.682  15.546  21.835 -0.0941 -0.0243 -0.3544
47074W        W89987  15.751   2.481   9.888  0.2966  0.0280  0.2869
47075W        W89988   6.063  27.118   6.325 -0.0375 -0.2995 -0.2825
47076W        W89989  31.084  10.125  28.054  0.0996  0.0916 -0.2495
47077W        W89990   0.352   6.727  28.073 -0.1581  0.0453  0.0970
47078W        W89991  10.209   5.319  25.161  0.2622 -0.0024 -0.0376
47079W        W89992   4.219   5.263  22.532 -0.3459 -0.4178 -0.0450
47080W        W89993  32.858   4.678  17.494  0.1082 -0.0365  0.1627
47081W        W89994  33.266   0.400  24.331  0.3651  0.1890  0.0423
47082W        W89995  27.118   4.596  17.951 -0.3744  0.0763 -0.4513
47083W        W89996   1.494   1.890  17.456 -0.0505 -0.1345  0.1098
47084W        W89997  30.822   8.080  23.457  0.1043  0.0932 -0.0363
47085W        W89998  26.687  22.640  29.254 -0.4121  0.3293  0.3545
47086W        W89999  25.937   7.293  24.981 -0.0947 -0.1958 -0.0364
47087W        W90000  28.385   4.036  27.241  0.1584 -0.0205  0.0573
47088W        W90001   2.562   2.134  23.201  0.0217 -0.0331 -0.1596
47089W        W90002  33.134  28.278  29.171 -0.2779 -0.2269  0.1678
47090W        W90003   1.316  33.413  18.213  0.0234  0.0688  0.2379
47091W        W90004  27.648   1.230  17.030  0.2838 -0.0993  0.1561
47092W        W90005   0.489   5.501  19.761 -0.1322 -0.2579 -0.1661
47093W        W90006   1.729  33.618  19.100 -0.2498 -0.2308  0.0921
47094W        W90007  30.539  17.048  19.249 -0.0980 -0.0287 -0.2109
47095W        W90008   7.783   7.102  17.921 -0.1410 -0.0415  0.0591
47096W        W90009  29.826  12.489  18.039  0.0011 -0.1371  0.3476
47097W        W90010   3.516  13.791  24.463 -0.1673  0.2508 -0.0558
47098W        W90011  26.662   8.017  24.455 -0.1300 -0.0346  0.1328
47099W        W90012  30.051   8.382  27.275 -0.2318  0.2836 -0.1350
47100W        W90013  25.002   4.095  19.266 -0.1078  0.2687 -0.1305
47101W        W90014  30.968  33.135  23.025  0.0216 -0.0356  0.1496
47102W        W90015   3.512   8.033  21.239 -0.4842  0.0411 -0.4618
47103W        W90016  29.752  28.739  24.599  0.0605 -0.2030 -0.1517
47104W        W90017  22.217   9.604  15.105 -0.0599 -0.1336  0.3771
47105W        W90018  31.433  27.527  29.617 -0.0508 -0.2943  0.0361
47106W        W90019  33.829   2.097  28.725 -0.0289 -0.1339  0.2211
47107W        W90020  31.356   0.737  21.868  0.2062  0.0838 -0.2037
47108W        W90021   2.252   3.768  19.661  0.0298 -0.3428  0.1029
47109W        W90022   2.872   4.880  22.552 -0.0214  0.2536 -0.0769
47110W        W90023   0.288   4.093  27.733 -0.1529 -0.2121 -0.0486
47111W        W90024  29.927  25.012  15.674 -0.1232  0.0648  0.3570
47112W        W90025  16.384   9.418  17.057 -0.5168 -0.0514 -0.0460
47113W        W90026  26.466   7.088  18.894 -0.0632  0.0030 -0.0045
47114W        W90027   6.658   3.149  17.971 -0.4468 -0.1723  0.2269
47115W        W90028  30.017  30.831  17.696  0.4637 -0.6012 -0.0749
47116W        W90029  33.442   7.794  26.571 -0.0435  0.2055 -0.0290
47117W        W90030   5.978  34.089  17.535 -0.0003 -0.3464 -0.0394
47118W        W90031   0.901   8.198  20.830  0.1578 -0.0019  0.0551
47119W        W90032  24.760   9.550  22.140  0.2572  0.1802  0.0401
47120W        W90033  25.742  26.699  29.052 -0.2023 -0.1853  0.1595
47121W        W90034  29.410   8.590  21.096 -0.1181 -0.0136  0.4850
47122W        W90035   0.147  11.166  17.529  0.1857  0.1709 -0.0386
47123W        W90036  32.641   8.912  19.151  0.2193  0.0661 -0.1079
47124W        W90037   1.209  29.630  18.903  0.1360  0.0450 -0.2556
47125W        W90038  26.148   4.094  23.721  0.1053  0.0711  0.0246
47126W        W90039  30.953   4.508  16.141 -0.1656  0.0671  0.1340
47127W        W90040  31.198   1.538  15.850  0.2190 -0.0320  0.1584
47128W        W90041  26.351  15.231  23.524 -0.2653  0.0460  0.4410
47129W        W90042  29.987  21.615  25.566  0.0674  0.0230  0.4607
47130W        W90043  26.930  29.580  25.012 -0.2750 -0.1816  0.0548
47131W        W90044  27.007   2.503  19.740 -0.0410 -0.2681  0.0622
47132W        W90045  20.865   5.867  14.550  0.2492 -0.2750 -0.2752
47133W        W90046   0.210   2.295  16.767 -0.0111 -0.0469 -0.0097
47134W        W90047   1.854   9.986  24.770 -0.0574 -0.0943 -0.0327
47135W        W90048  34.010   1.367  18.108  0.1669  0.2982 -0.2537
47136W        W90049   0.590   2.487  23.457 -0.3288 -0.0716  0.2887
47137W        W90050  32.432   6.214  16.162 -0.0612  0.4916  0.0354
47138W        W90051  33.397  31.902  16.300 -0.3503 -0.1194  0.1118
47139W        W90052  31.605   0.732  19.845 -0.0150 -0.1027  0.1642
47140W        W90053  29.766  33.082  21.749  0.3359 -0.0472 -0.2455
47141W        W90054  31.779  22.979  22.497  0.0001  0.2056 -0.1345
47142W        W90055  17.945  33.070  29.221 -0.0755 -0.1976  0.0794
47143W        W90056  34.354   8.967  15.962 -0.0565  0.0520 -0.0001
47144W        W90057   0.614   0.724  18.438  0.1953  0.0242  0.1790
47145W        W90058  25.050  31.430  21.712 -0.0591 -0.2872  0.2194
47146W        W90059  12.712   6.045  19.952 -0.1554  0.2932  0.0455
47147W        W90060  28.182   3.740  28.847 -0.2814 -0.0659 -0.1745
47148W        W90061  18.388   4.534   3.186  0.4404 -0.0744  0.0449
47149W        W90062  29.277  10.868  14.702  0.1848 -0.0898 -0.1071
47150W        W90063  28.675  11.758  28.384 -0.1444  0.0018  0.1703
47151W        W90064   3.628  27.825  26.826  0.1645  0.0497 -0.1816
47152W        W90065   0.504   8.492  24.522 -0.0509 -0.1256 -0.0474
47153W        W90066  30.324  14.073  19.717  0.1977  0.1574  0.2686
47154W        W90067  23.644   5.956  16.396 -0.2139  0.0108  0.0759
47155W        W90068  27.280  33.629  28.203 -0.0912 -0.2338 -0.3418
47156W        W90069  29.724   0.175  17.099  0.3393 -0.1416 -0.2213
47157W        W90070  28.254  11.889  21.146 -0.1202 -0.1680 -0.1552
47158W        W90071  28.833   7.434  28.236  0.2235  0.0850  0.0359
47159W        W90072  33.064   0.523  29.233  0.0362 -0.0137  0.0256
47160W        W90073  10.597  27.301   4.115 -0.0445  0.0844  0.0598
47161W        W90074  33.790   7.379  18.322  0.4872  0.3058  0.2225
47162W        W90075  34.189   0.080  19.672  0.0312 -0.0404  0.0311
47163W        W90076  18.474   4.436  21.667  0.0418 -0.1220  0.2010
47164W        W90077  32.999  14.381  27.074 -0.0243 -0.1271 -0.2944
47165W        W90078  33.292   0.410  21.750  0.1722  0.2385 -0.0410
47166W        W90079  33.491   2.208  22.081  0.0263  0.1580 -0.2450
47167W        W90080   1.068  15.242  16.388 -0.1327  0.0839  0.0814
47168W        W90081   6.116   1.339  21.605 -0.1443  0.2464 -0.2492
47169W        W90082  27.693   4.422  17.943 -0.0888 -0.1805 -0.1735
47170W        W90083  32.188  12.026  22.821 -0.1145 -0.3007  0.2144
47171W        W90084  31.951   0.185  28.886  0.0089  0.0612 -0.4641
47172W        W90085  24.047   6.831  28.602 -0.0228 -0.0618 -0.4432
47173W        W90086   1.825   6.388  17.145 -0.0208  0.2393  0.0520
47174W        W90087  31.822  15.280  17.917 -0.3213  0.1497 -0.2267
47175W        W90088   0.672  34.253  23.433 -0.1711  0.1045 -0.1358
47176W        W90089   0.284   6.296  19.030 -0.3696  0.0552  0.0247
47177W        W90090  19.484   6.882  20.089  0.0176 -0.2504 -0.1306
47178W        W90091  26.516   9.255  24.564 -0.4107  0.1412 -0.1025
47179W        W90092  31.424  25.104  14.821 -0.0488  0.1170 -0.1470
47180W        W90093   0.393   5.804  25.848 -0.0033  0.0309 -0.0500
47181W        W90094  33.843  11.804  20.691  0.1772 -0.4358  0.3528
47182W        W90095   9.563   8.970  17.339 -0.2088  0.1400  0.2935
47183W        W90096  29.979   6.848  17.544  0.0406 -0.0112 -0.0068
47184W        W90097   2.764   2.388  27.432  0.0162  0.1599  0.0940
47185W        W90098  10.369  31.587  25.270  0.1732 -0.2649  0.2523
47186W        W90099  29.406   6.324  23.249  0.1217  0.1994  0.0680
47187W        W90100  33.093  28.148  21.904 -0.2493  0.0782  0.0455
47188W        W90101   1.145  33.354  20.506 -0.4407 -0.1639  0.0623
47189W        W90102   1.244   9.137  19.986 -0.0289  0.3839  0.0392
47190W        W90103  32.192   0.745  16.619 -0.0014  0.1193 -0.1554
47191W        W90104  33.384   6.403  29.331  0.0119  0.2424 -0.0890
47192W        W90105  27.265  10.738  17.746  0.2690 -0.0448 -0.1099
47193W        W90106  31.306   1.472  18.014  0.0803  0.0233  0.2092
47194W        W90107   1.797  33.874  15.547  0.3095  0.1329  0.0846
47195W        W90108  33.430  10.271  15.216 -0.0747  0.1695 -0.0267
47196W        W90109  32.963   3.220  22.963  0.0175  0.0104 -0.0557
47197W        W90110  28.520   8.332  19.868 -0.0329  0.0651 -0.0429
47198W        W90111  31.894  10.195  16.550 -0.1265 -0.0602  0.0714
47199W        W90112  32.615   6.392  25.050  0.1635  0.0413 -0.0905
47200W        W90113  29.916   2.272  15.835  0.1143 -0.1229 -0.1885
47201W        W90114   3.708   3.975  19.489 -0.1105 -0.0085 -0.0255
47202W        W90115   2.429  10.439  20.527  0.0482 -0.0308  0.1236
47203W        W90116   0.613   7.824  20.613  0.1334 -0.0721  0.1101
47204W        W90117  31.750   8.239  17.389 -0.0001 -0.0805  0.1153
47205W        W90118   4.211   9.041  23.926  0.2299 -0.0093  0.0907
47206W        W90119   5.763   5.907  21.133 -0.3022  0.2126 -0.0644
47207W        W90120   5.125   6.188  26.119  0.0589  0.2534  0.0950
47208W        W90121  32.206   8.259  24.173 -0.1296 -0.1173  0.2770
47209W        W90122  29.098   5.969   0.172  0.1772  0.2446 -0.0356
47210W        W90123  25.033  11.558  20.932 -0.0995 -0.0225 -0.0712
47211W        W90124   3.289  33.179  17.253 -0.3094  0.1059 -0.0533
47212W        W90125   8.571   4.166  24.806  0.1384  0.0126  0.2703
47213W        W90126  33.746  30.088  25.454 -0.2702  0.0244 -0.0470
47214W        W90127  26.009  17.897  27.051 -0.1948  0.1239  0.0825
47215W        W90128   9.202  29.800  25.422 -0.1672 -0.0643  0.1071
47216W        W90129   6.760  32.329  23.619 -0.0126 -0.1899 -0.0510
47217W        W90130   1.306   6.917  23.070  0.0052 -0.3966 -0.2391
47218W        W90131   1.068   2.038  17.736  0.0720  0.2065  0.0317
47219W        W90132  30.743  16.033  21.497  0.0678  0.1144  0.2072
47220W        W90133   2.574  12.813  22.407 -0.3266 -0.1973 -0.2305
47221W        W90134   5.792   2.619  21.448  0.3778  0.0137 -0.0597
47222W        W90135   6.180   9.362  17.724 -0.4350  0.0382  0.0036
47223W        W90136   2.938  30.689  17.195  0.0331  0.2859  0.1324
47224W        W90137   0.690  32.878  17.808 -0.0712 -0.0070  0.1251
47225W        W90138  28.072   7.343  17.997 -0.0520  0.1368  0.1089
47226W        W90139  27.079   5.164  24.126  0.0990 -0.1449  0.2307
47227W        W90140  10.398  11.359  15.611  0.0886  0.1047  0.5417
47228W        W90141   1.492   2.583  21.416 -0.1535  0.0694  0.3346
47229W        W90142  32.774   1.145  20.664  0.2135 -0.1409  0.2018
47230W        W90143  25.798   5.841  24.102 -0.1791 -0.0845 -0.1674
47231W        W90144   3.613  28.999  26.987  0.0335  0.1161 -0.1591
47232W        W90145   9.874   0.793  21.469  0.0470  0.1905 -0.1479
47233W        W90146  31.251   1.117   2.573 -0.2634 -0.0852 -0.0328
47234W        W90147  26.177   5.086  24.935  0.1843  0.0784 -0.3950
47235W        W90148  33.935   1.287  27.585  0.3515  0.3249 -0.1020
47236W        W90149   0.775   2.830  20.544 -0.0129 -0.5254 -0.0501
47237W        W90150  31.455   6.997  27.471 -0.2032 -0.2271 -0.2466
47238W        W90151  31.275   2.403  17.935  0.0277 -0.2019 -0.0690
47239W        W90152  32.652   6.732  17.017  0.0928 -0.1986  0.1089
47240W        W90153   6.396   5.202  18.613  0.1749  0.0162 -0.0516
47241W        W90154  27.264  12.238  18.982 -0.1415 -0.3276 -0.0737
47242W        W90155  27.158  19.412  21.482 -0.2021 -0.3912 -0.0453
47243W        W90156  25.402  11.216  23.774 -0.0538  0.0453 -0.1756
47244W        W90157  25.580  17.049   0.593 -0.0018  0.1085 -0.2017
47245W        W90158  22.889  30.240  19.067  0.0832 -0.4031  0.2381
47246W        W90159  27.686  34.182  27.365  0.2910  0.2029 -0.2908
47247W        W90160   2.496   8.601  18.525  0.1042  0.1615  0.2365
47248W        W90161  26.907   0.988  20.159  0.1096 -0.1020  0.2328
47249W        W90162  32.682  11.785  16.553  0.2989  0.3034  0.0286
47250W        W90163  24.177   1.122  24.463 -0.1241  0.2184 -0.2263
47251W        W90164  30.224   6.358  16.902  0.1452 -0.2161  0.1629
47252W        W90165  30.520  16.116  20.388 -0.0652 -0.4469  0.1025
47253W        W90166   6.419   1.248  19.574 -0.0937  0.3020 -0.1294
47254W        W90167  26.151   6.242  17.106  0.0382 -0.0551 -0.0768
47255W        W90168  25.634   5.202  18.863 -0.0617 -0.0034  0.2041
47256W        W90169  29.916   0.959  21.315 -0.1060  0.2317  0.0764
47257W        W90170  27.851   3.584  19.442  0.2990  0.3171 -0.0751
47258W        W90171  23.300  18.035  14.513  0.1369 -0.2657  0.0309
47259W        W90172  30.442  11.764  18.990 -0.1448 -0.2711 -0.0941
47260W        W90173  26.344   1.872  25.820  0.4355  0.1109 -0.0417
47261W        W90174  32.744   7.275  23.423  0.3648  0.1596 -0.0649
47262W        W90175   2.808   4.737  26.092 -0.1696 -0.3909 -0.0130
47263W        W90176   1.955   3.162  18.580 -0.1829 -0.2408  0.1381
47264W        W90177   1.608   0.924  21.037 -0.0736 -0.3440 -0.0140
47265W        W90178  32.059  13.496  29.424 -0.0325 -0.0609  0.2136
47266W        W90179  28.142   6.591  28.272  0.3921  0.0190 -0.2859
47267W        W90180   1.942   3.489  23.394 -0.0619 -0.0109  0.2396
47268W        W90181  10.080   6.661  26.945  0.0462  0.0092 -0.1787
47269W        W90182   1.810   4.205  20.975 -0.0072 -0.2281  0.2968
47270W        W90183   4.369  27.553  17.871 -0.0853 -0.0150  0.1770
47271W        W90184  30.951  19.395  25.250 -0.0947  0.1752  0.1600
47272W        W90185  33.122  12.998  20.170  0.1222 -0.1604  0.1029
47273W        W90186  28.211   0.791  17.791 -0.0888 -0.2689  0.2333
47274W        W90187   4.198  13.132  18.219 -0.0572 -0.0218  0.2898
47275W        W90188   4.427  17.739   1.098  0.0437  0.1196 -0.0531
47276W        W90189  30.652  32.364  22.830  0.0615  0.3207  0.1094
47277W        W90190  33.938   0.929  21.287 -0.0995  0.2368 -0.0217
47278W        W90191   0.962   5.409  20.020 -0.0218  0.0877  0.1195
47279W        W90192  25.262   4.506  13.530  0.1323  0.1628  0.2106
47280W        W90193   4.928   1.171  26.015 -0.1120 -0.3627 -0.0601
47281W        W90194  32.968   6.806  16.591  0.0946  0.0918 -0.0104
47282W        W90195  31.241  31.205  15.205  0.0893 -0.2384 -0.0663
47283W        W90196  33.405   6.328  20.727 -0.0549 -0.4740 -0.1119
47284W        W90197  31.268   0.611  18.493  0.1246 -0.3016  0.2090
47285W        W90198   7.274  12.082  15.931 -0.2505 -0.1026 -0.1465
47286W        W90199  25.572  34.329  13.964 -0.0221 -0.3982 -0.0265
47287W        W90200   5.015   3.096  24.527 -0.0470  0.1309  0.0642
47288W        W90201  29.475  30.698  15.944 -0.3091 -0.2580 -0.4652
47289W        W90202  33.085   5.414  28.545  0.1829 -0.0195 -0.3293
47290W        W90203   5.844  33.994  21.830 -0.2662 -0.2175 -0.0507
47291W        W90204  28.107  33.563  15.154  0.0926 -0.0331 -0.3391
47292W        W90205   1.187  32.362  24.126 -0.1098  0.1450  0.0410
47293W        W90206  10.297   8.077  24.574  0.0674 -0.2127 -0.0647
47294W        W90207   4.521  10.173  29.133  0.4505  0.1802  0.2668
47295W        W90208  24.732  11.321  21.550 -0.2088  0.2090  0.1141
47296W        W90209  29.930  11.724  19.685 -0.2069 -0.0634  0.0596
47297W        W90210  26.160  24.513  22.096  0.0726  0.2905 -0.1232
47298W        W90211   2.147   4.579   0.689  0.2491 -0.3246 -0.1008
47299W        W90212  32.549  15.948  25.332  0.1088  0.0313 -0.0287
47300W        W90213   0.020  10.260  24.625  0.1766  0.0417  0.1442
47301W        W90214  21.235   0.793  25.655 -0.1190 -0.3976 -0.0188
47302W        W90215   0.213  14.555  20.105 -0.0212 -0.1267 -0.1648
47303W        W90216  26.770   9.691  26.029 -0.1553 -0.3392  0.1804
47304W        W90217  20.775   6.774   0.490 -0.3059  0.0030 -0.1434
47305W        W90218  31.397   8.543  17.071 -0.0896 -0.0755  0.0507
47306W        W90219   8.859  32.010  24.452  0.0496  0.0333  0.0847
47307W        W90220   9.786  24.097  25.735 -0.2515 -0.1117 -0.4129
47308W        W90221  19.644  11.222  24.456 -0.1443 -0.2299 -0.1915
47309W        W90222  24.307  12.454  27.443  0.0019  0.1265 -0.1809
47310W        W90223  22.752   4.578  27.405 -0.1097  0.0691  0.0410
47311W        W90224   1.146  21.986  25.620  0.1466  0.3560  0.3708
47312W        W90225  30.701  12.130  14.032 -0.1991 -0.0762 -0.0716
47313W        W90226  27.736  33.321  21.907  0.0117 -0.0276  0.1729
47314W        W90227   6.429  12.332  19.583 -0.2766  0.0141 -0.0855
47315W        W90228   0.184  34.174  21.515  0.0875  0.1416 -0.0967
47316W        W90229  26.570   0.719  21.020  0.1186 -0.2386  0.1254
47317W        W90230  24.372  12.230  22.451 -0.0402 -0.0240 -0.4103
47318W        W90231   9.202  14.187  22.289 -0.0289 -0.1339  0.4153
47319W        W90232  29.454   8.699  23.470  0.1482 -0.0311  0.0316
47320W        W90233   5.935   8.507  24.915  0.2438  0.0809  0.0719
47321W        W90234  10.011  32.118  18.597  0.0213 -0.0367 -0.0597
47322W        W90235   1.678   5.191  21.199  0.1945  0.0320 -0.1855
47323W        W90236  32.978  14.361  24.278  0.0770 -0.0428 -0.1045
47324W        W90237   4.292   1.103  24.535 -0.2179 -0.1772 -0.1044
47325W        W90238  24.433  33.247  28.165 -0.1876  0.1483  0.2082
47326W        W90239  32.858   7.515  21.344  0.0529  0.1488 -0.1644
47327W        W90240   1.239  14.914  18.159 -0.0047  0.1378  0.3373
47328W        W90241  20.667   2.488  24.072  0.0358 -0.0248 -0.2373
47329W        W90242  27.011  33.658  27.741  0.0747 -0.0410 -0.0055
47330W        W90243   0.094  12.180  16.903  0.2596 -0.3112  0.2140
47331W        W90244   2.552   4.127  20.903  0.1304  0.0495  0.0037
47332W        W90245  31.442  11.157  26.550  0.0656  0.2179  0.1348
47333W        W90246  29.584   4.595  25.914 -0.2407  0.0667  0.4983
47334W        W90247   2.799   6.425  22.005 -0.1150  0.0516  0.1563
47335W        W90248  30.293   4.477  18.518  0.2280 -0.2761  0.0873
47336W        W90249   1.543  12.553  16.765  0.0013  0.1623 -0.1886
47337W        W90250  32.928   2.363  16.984  0.4754 -0.0775 -0.1972
47338W        W90251  28.527   0.963  21.250  0.1667  0.2129 -0.0823
47339W        W90252   7.165  29.354  22.736  0.1671  0.0090 -0.2886
47340W        W90253  25.456  12.921  14.300 -0.1976  0.2107  0.2907
47341W        W90254  23.952   4.988   0.684  0.0084 -0.1504  0.1891
47342W        W90255  26.531  30.297  14.729 -0.0433 -0.0441  0.2276
47343W        W90256   6.081   1.261  18.105 -0.0752  0.0850 -0.1163
47344W        W90257  18.856   7.052  27.251 -0.0690  0.0104 -0.0691
47345W        W90258   1.327   3.086  20.822  0.2664  0.0411 -0.0524
47346W        W90259  28.483  27.180  15.967  0.1974 -0.3389 -0.0982
47347W        W90260  22.551   8.819  19.030  0.0768  0.1341 -0.1477
47348W        W90261   0.625   2.932  18.930 -0.1361 -0.1268 -0.0998
47349W        W90262  27.916  29.151   0.877 -0.1108 -0.0764  0.2367
47350W        W90263  33.391   4.015  27.015  0.2492  0.3792  0.2057
47351W        W90264  31.620   6.661  17.971 -0.1385  0.0842  0.2561
47352W        W90265   0.128   0.086  21.247 -0.0929  0.0350 -0.0521
47353W        W90266  33.967   4.031  22.057  0.1195  0.2324 -0.3269
47354W        W90267  28.707   0.651  22.880 -0.0313  0.0848 -0.0365
47355W        W90268  27.576   6.981  27.204  0.3590  0.0799  0.1053
47356W        W90269  29.803  14.311  18.851  0.4932 -0.3310 -0.0479
47357W        W90270  21.769  11.938  16.257 -0.0622  0.1552 -0.1619
47358W        W90271   1.495   2.717  23.617 -0.0115 -0.0663  0.0144
47359W        W90272   7.460  32.643  20.086  0.0602  0.1497 -0.1507
47360W        W90273  29.943   3.911  19.814  0.1096 -0.1726  0.0843
47361W        W90274  31.621   6.849  22.145  0.1629 -0.2049  0.4102
47362W        W90275  30.937   6.405  18.218  0.1982  0.0580 -0.1258
47363W        W90276  33.075  29.893  18.843  0.1643  0.3378 -0.0315
47364W        W90277  26.584   0.272   1.141 -0.3189 -0.0402  0.1745
47365W        W90278   8.935   0.406  21.164 -0.1397 -0.0070 -0.0066
47366W        W90279  24.064   9.372  25.768  0.1718 -0.0872 -0.2009
47367W        W90280   6.152   5.864  17.607  0.1830  0.2659  0.0606
47368W        W90281  31.285  14.965  15.714  0.1089  0.0055 -0.0551
47369W        W90282  31.489   9.909  15.591  0.1972 -0.0435 -0.0284
47370W        W90283   4.839   3.963  16.925  0.2221  0.2229 -0.1128
47371W        W90284  29.280   1.762  22.517 -0.0415  0.3665  0.0409
47372W        W90285  33.225  15.277  23.935  0.0251  0.0430  0.4073
47373W        W90286  27.926   4.185  17.041 -0.3181  0.0794 -0.0626
47374W        W90287  24.809  15.283  25.200 -0.2760 -0.0903 -0.2358
47375W        W90288   7.917  30.909  24.521  0.3119  0.0585 -0.4419
47376W        W90289  27.896  12.541  28.516 -0.0646  0.0242 -0.0028
47377W        W90290   1.445   9.405  21.877 -0.0672  0.0647  0.0281
47378W        W90291   4.479  16.453  29.570 -0.1302 -0.3078  0.2191
47379W        W90292  33.402  34.346  18.452  0.1349  0.2211  0.0549
47380W        W90293  27.413   6.095  20.545 -0.2398  0.0176  0.0639
47381W        W90294  27.508  22.947  24.231 -0.2939  0.2555  0.4755
47382W        W90295   4.091   5.711  24.822  0.1264  0.0913 -0.2448
47383W        W90296   0.603   7.147  27.164 -0.2865  0.0607  0.1345
47384W        W90297  11.208  12.445  17.347 -0.0233  0.2039 -0.1360
47385W        W90298  33.727   4.853  20.434 -0.1472 -0.1146  0.1532
47386W        W90299  29.912   0.250  25.735 -0.1114  0.0573  0.1983
47387W        W90300  32.072  31.425  25.518 -0.0761  0.2691 -0.1211
47388W        W90301   6.652   6.747  22.412 -0.1619 -0.1766 -0.0436
47389W        W90302  26.798   5.849  15.507 -0.1607  0.1299 -0.2401
47390W        W90303   4.191  21.481  14.554 -0.1293 -0.2784 -0.1428
47391W        W90304  20.952   7.405  16.531  0.0860 -0.3859 -0.0078
47392W        W90305  27.920   9.812  15.756  0.1704  0.1351 -0.0850
47393W        W90306   6.884  12.158  25.583 -0.1614  0.0151 -0.0327
47394W        W90307  32.064  31.117   0.490 -0.1290  0.1439 -0.1656
47395W        W90308  30.779  28.342   1.016 -0.2908  0.0005  0.2591
47396W        W90309   4.400  10.829   2.350 -0.0188  0.0177 -0.1339
47397W        W90310   0.019   7.613  24.789  0.2645  0.0888 -0.0857
47398W        W90311  34.402  15.498  15.558 -0.0349  0.1948  0.0437
47399W        W90312   6.429  31.598  23.993 -0.4145 -0.2108  0.4244
47400W        W90313  30.956  32.003  18.220 -0.0152  0.0704 -0.1279
47401W        W90314  34.382   7.576  28.451 -0.1483 -0.0527 -0.3324
47402W        W90315  23.960   8.814  14.312  0.2422  0.2845  0.0200
47403W        W90316  26.853  14.208  18.527  0.1590 -0.1115  0.2097
47404W        W90317  30.995   1.790  20.057 -0.4235 -0.2787 -0.1326
47405W        W90318  27.608  13.291  17.664  0.0905  0.0857  0.1051
47406W        W90319  32.857   5.258  17.455  0.0204  0.0278  0.1298
47407W        W90320  26.830   5.820  17.530 -0.3107 -0.0351 -0.2082
47408W        W90321  32.319   9.045  20.154  0.0524  0.0270  0.1625
47409W        W90322   4.464  24.660  15.201 -0.1133 -0.1681  0.2355
47410W        W90323  29.261  10.151  27.550  0.3044  0.2598 -0.0615
47411W        W90324  10.649   8.347  17.638  0.4080  0.0702 -0.0929
47412W        W90325   8.039   5.388  24.360  0.1297  0.0179 -0.4835
47413W        W90326   0.523   3.695  22.060  0.1035 -0.0548 -0.1047
47414W        W90327  10.661   8.724  18.386 -0.2362 -0.0534  0.1995
47415W        W90328  28.185   4.357  16.615  0.0670 -0.0723  0.0672
47416W        W90329  28.955   1.804  21.954 -0.0298 -0.0639 -0.0595
47417W        W90330   7.033  16.386  18.348 -0.0404  0.1106  0.2371
47418W        W90331  24.572  31.792  17.604 -0.1004 -0.0642  0.0304
47419W        W90332   1.830   1.900  28.003  0.0982  0.0265 -0.0820
47420W        W90333   3.937  31.225  20.055  0.1806  0.1132  0.0757
47421W        W90334  33.320   4.084  19.279  0.1441 -0.3457  0.1090
47422W        W90335  21.396   3.690  20.987  0.4797 -0.2143 -0.1589
47423W        W90336  24.170   9.557  17.492  0.1071 -0.0239 -0.3535
47424W        W90337   4.962  33.941  20.074 -0.2651  0.0681 -0.0487
47425W        W90338  32.137   5.577  16.929  0.1180 -0.3998 -0.3269
47426W        W90339  32.001  12.179  29.121 -0.0742 -0.2726  0.2741
47427W        W90340  22.478   4.997  23.553 -0.2099  0.2554  0.1444
47428W        W90341  33.710  30.173  20.936 -0.1334 -0.0082  0.0626
47429W        W90342  17.236   2.723  29.085 -0.0724 -0.0957  0.0117
47430W        W90343  22.113   7.506  14.996  0.1439 -0.1307 -0.0259
47431W        W90344  28.780  10.318  16.826  0.2019  0.0365 -0.1982
47432W        W90345   2.829   2.065  18.272 -0.3051 -0.0999 -0.0187
47433W        W90346   9.868  15.897  26.994  0.0289 -0.2190  0.1968
47434W        W90347  24.382  22.189  15.086  0.2746 -0.1558 -0.1076
47435W        W90348   3.634   7.553  17.130 -0.1594 -0.1275  0.1324
47436W        W90349  13.344  28.653  15.933 -0.2080  0.0965  0.1654
47437W        W90350  24.148  14.652  23.790  0.0639  0.0458  0.1866
47438W        W90351  32.524  32.870  16.468 -0.2691  0.1203 -0.1006
47439W        W90352  28.012   5.546  28.475  0.0298 -0.3953  0.3335
47440W        W90353   7.649   8.538  28.043 -0.0672  0.2622  0.0619
47441W        W90354   0.647   4.835  23.441 -0.3036 -0.2140 -0.0235
47442W        W90355  29.814   0.202  22.363  0.1906 -0.0688 -0.1295
47443W        W90356   9.605   5.188   7.102  0.0781  0.0884 -0.5138
47444W        W90357   0.738   4.752  21.573 -0.0747 -0.1060  0.1752
47445W        W90358   4.711   2.685  27.411  0.0895 -0.0396  0.0424
47446W        W90359  24.238  11.080  23.289 -0.1350  0.0367  0.2578
47447W        W90360  26.597  12.982  26.274  0.0012  0.1042 -0.0967
47448W        W90361  30.484   2.627  15.850 -0.2095 -0.0887 -0.0546
47449W        W90362  26.011   0.058  16.730  0.0709  0.0144  0.1661
47450W        W90363  29.024   9.314  18.208 -0.0835 -0.0582  0.0102
47451W        W90364  29.704  11.220  16.860  0.1883  0.1950  0.1431
47452W        W90365  31.037   7.224  16.018 -0.0684  0.1503  0.1436
47453W        W90366   2.307  16.636  18.182  0.1403  0.3437 -0.2752
47454W        W90367  20.413  33.718  28.750  0.3343 -0.1898 -0.2554
47455W        W90368   0.716  15.222  14.335 -0.1085  0.1541  0.0104
47456W        W90369   1.600  10.275  22.646 -0.0853 -0.1978 -0.0783
47457W        W90370  32.173  27.989  18.964  0.1437 -0.3118  0.2634
47458W        W90371   4.067   7.729  25.929  0.1262 -0.1916 -0.0322
47459W        W90372   3.452   0.765  24.495  0.1144  0.1164 -0.3680
47460W        W90373   0.258   9.322  27.273 -0.0121  0.1299 -0.3182
47461W        W90374   0.998   0.824  21.493 -0.0348 -0.1306 -0.0052
47462W        W90375  32.534   5.787  21.742 -0.2609 -0.1834  0.0927
47463W        W90376  34.149   7.481  19.997  0.0425 -0.0636  0.1303
47464W        W90377   8.451   0.570  22.970  0.4519  0.1854 -0.2155
47465W        W90378  31.534  34.414  20.258 -0.1449 -0.4672  0.2077
47466W        W90379  32.278   3.908  16.361  0.4215  0.2301  0.0949
47467W        W90380  26.254  21.114  16.865 -0.2518 -0.0292  0.2456
47468W        W90381   2.157  16.870  19.244  0.2545  0.0465 -0.0374
47469W        W90382   0.161  25.803  27.538  0.2312  0.0756 -0.1499
47470W        W90383   7.705  18.364  17.506  0.3288  0.0114 -0.1283
47471W        W90384  28.588   8.210  23.772  0.3246  0.0703 -0.1116
47472W        W90385  19.110   8.605  24.265  0.0815  0.0356  0.0619
47473W        W90386  29.531   2.019  24.922 -0.0102  0.0965 -0.3632
47474W        W90387   8.517   6.589  24.788 -0.1535  0.0707  0.1742
47475W        W90388  31.301   6.884  17.549  0.3491 -0.1434 -0.0524
47476W        W90389  34.488  11.825  28.992 -0.0027  0.1148 -0.2316
47477W        W90390   2.750   0.104  24.678 -0.0157 -0.2111  0.0686
47478W        W90391  29.478  26.934  21.965  0.0511  0.0180 -0.2269
47479W        W90392  12.228  19.067  19.038  0.3978 -0.2945  0.1366
47480W        W90393  23.271   3.174  17.476 -0.0579 -0.3737  0.4154
47481W        W90394  13.578   4.389  21.130 -0.2703 -0.0521 -0.0448
47482W        W90395  33.001   4.488  19.134 -0.1944 -0.0260 -0.0779
47483W        W90396  23.378   6.078  27.250 -0.1344 -0.2141  0.1023
47484W        W90397  29.873   0.551  24.517  0.1135  0.0452 -0.2170
47485W        W90398  31.466  31.772  23.378 -0.1118  0.2874  0.1484
47486W        W90399   3.366   8.530  19.420 -0.0877 -0.2312 -0.1568
47487W        W90400  27.709  31.144  23.575 -0.2276 -0.1125 -0.1944
47488W        W90401  27.870   0.281  21.284 -0.3211  0.1527  0.1764
47489W        W90402  28.782   7.919  16.321 -0.2214 -0.0564  0.0712
47490W        W90403  33.863  28.749  15.205  0.0876  0.1919  0.0139
47491W        W90404   6.668  21.884  29.627 -0.0722 -0.0089  0.0343
47492W        W90405   4.722  23.647  28.235  0.0083 -0.0002 -0.3488
47493W        W90406   4.372  33.026  22.935 -0.2770  0.0857  0.1765
47494W        W90407  32.125   4.109   3.838  0.0703  0.0377 -0.0042
47495W        W90408  23.296   3.449  23.900 -0.0569  0.2216 -0.0129
47496W        W90409  26.585  31.479  28.320 -0.0516 -0.1009  0.1071
47497W        W90410  11.177  31.020  19.134 -0.2491 -0.0462  0.0260
47498W        W90411   0.773  32.328  23.760 -0.2173 -0.2580  0.0341
47499W        W90412  32.012   4.208   1.305 -0.2313  0.0337  0.0520
47500W        W90413   1.996   3.511  21.828 -0.0540 -0.1444 -0.0184
47501W        W90414   0.270  33.872   5.910  0.1621  0.3377 -0.0697
47502W        W90415  33.743   1.786  17.096  0.2285  0.0896  0.0240
47503W        W90416   1.025   7.829  19.668  0.1855  0.0561 -0.0929
47504W        W90417   2.581  13.772  26.596  0.4940 -0.0087  0.2757
47505W        W90418   8.013   6.676  24.038 -0.1933 -0.1268 -0.1001
47506W        W90419   6.949  32.675   2.111  0.3224  0.0827  0.0204
47507W        W90420   2.505  33.949   0.110  0.1180  0.1511  0.3315
47508W        W90421  30.276   9.706  27.502 -0.1497 -0.1964  0.0443
47509W        W90422  25.423   9.702   0.369  0.0593  0.3131  0.0660
47510W        W90423  29.918  34.279  15.456  0.0098 -0.1654 -0.3705
47511W        W90424  20.021  29.804  23.250  0.0405 -0.0606  0.2567
47512W        W90425  29.926  10.722  17.658 -0.0631  0.2033  0.0331
47513W        W90426  11.694   6.641  21.853  0.0501  0.1562  0.0554
47514W        W90427   4.536   3.426  26.416 -0.1354 -0.2790 -0.2376
47515W        W90428  33.463  33.319  28.443 -0.0247 -0.0767  0.4075
47516W        W90429   2.222   4.915  23.984  0.1125 -0.0702  0.0604
47517W        W90430  28.806   9.560  28.549  0.0107 -0.2223  0.2981
47518W        W90431  27.270   7.796  22.469 -0.0051  0.2694 -0.1153
47519W        W90432   2.360  30.361  27.127  0.1091  0.2138 -0.4369
47520W        W90433   7.633   5.376  24.972 -0.1739 -0.3135  0.0893
47521W        W90434  19.611   3.262  15.585  0.1317  0.0362  0.2567
47522W        W90435   4.030  10.673   1.109  0.0566 -0.0412 -0.1667
47523W        W90436  30.287   8.553  22.234  0.1585  0.0632  0.2580
47524W        W90437  26.747  21.722  18.621 -0.0246 -0.0281  0.3773
47525W        W90438  23.548  29.969  20.352 -0.2497  0.0481  0.0500
47526W        W90439   4.788   6.142  21.308 -0.3160  0.0249 -0.1203
47527W        W90440  27.175  17.917  24.794  0.0100 -0.0745 -0.0124
47528W        W90441  23.147   2.357  23.511 -0.1960  0.0773  0.2352
47529W        W90442  29.089  30.882  26.270  0.3503 -0.0853 -0.0045
47530W        W90443  26.467   7.792  18.395  0.0025  0.1520  0.0729
47531W        W90444  29.074   4.629  20.038 -0.0845 -0.0405  0.2606
47532W        W90445  29.277   6.542  19.521 -0.2012 -0.0032  0.0200
47533W        W90446  31.861   6.803  21.698 -0.2538 -0.2407 -0.0868
47534W        W90447  34.433   2.539  27.388  0.0187  0.2166  0.2050
47535W        W90448  27.726  11.802   1.200  0.2665 -0.3437 -0.0831
47536W        W90449  27.107   7.114  25.684 -0.1746 -0.1407  0.0612
47537W        W90450  21.228   2.109   2.747  0.0935  0.1174  0.1594
47538W        W90451  34.191  29.644  23.959  0.1626 -0.1722  0.2685
47539W        W90452   0.761   8.832  26.578  0.3021  0.1463  0.0069
47540W        W90453  31.796   5.217  18.996 -0.1197 -0.0347  0.2091
47541W        W90454  33.084   5.026  22.228 -0.2123 -0.1612  0.4163
47542W        W90455   1.080  13.762  21.852  0.0746 -0.0581  0.3338
47543W        W90456   5.326  31.545   4.275  0.0344 -0.0419  0.1669
47544W        W90457  30.299   9.615  25.917  0.1094 -0.0825  0.1110
47545W        W90458   1.616   2.187  25.713 -0.0902 -0.4196  0.3165
47546W        W90459  11.388   3.833  20.136  0.2912 -0.2408  0.0638
47547W        W90460   3.386  12.190  27.921  0.0523  0.2118  0.1756
47548W        W90461  33.208  33.963  26.820 -0.0579 -0.1064  0.0500
47549W        W90462  24.444   1.856   3.210 -0.0508 -0.5708  0.3040
47550W        W90463   7.295   5.658  26.539 -0.1516 -0.0051  0.1740
47551W        W90464   9.244   0.345   0.325  0.0247 -0.0855  0.0770
47552W        W90465  11.049   1.702  22.346 -0.1056 -0.0939 -0.0190
47553W        W90466  11.769   9.652  23.391 -0.3384  0.1031 -0.4135
47554W        W90467   1.803  32.438  20.862 -0.1788  0.2714  0.0826
47555W        W90468   3.313   6.685  27.402  0.2543 -0.0445  0.0753
47556W        W90469   1.569  29.545   2.966 -0.3215 -0.0568 -0.0276
47557W        W90470  28.239  31.617  19.911  0.0431  0.0246 -0.3991
47558W        W90471  32.060   9.474  22.273  0.2963 -0.2784 -0.2677
47559W        W90472  28.815  23.160  22.644 -0.2205 -0.0700 -0.3143
47560W        W90473  31.706   8.178   3.809  0.1783 -0.2537 -0.0666
47561W        W90474   7.110   4.640  22.182  0.0420 -0.0956 -0.1242
47562W        W90475   0.594  13.388  23.083 -0.3064 -0.0963  0.2082
47563W        W90476  31.783  10.033  18.777  0.0295  0.0380  0.0763
47564W        W90477   7.580  25.421  27.645  0.0105  0.0698 -0.0098
47565W        W90478  23.888  14.352  21.949  0.1088  0.1289 -0.2039
47566W        W90479  31.693   9.236  15.583 -0.0701  0.0999  0.1638
47567W        W90480  27.119   4.074  20.789 -0.2902  0.0771 -0.1186
47568W        W90481  25.756  11.698   0.641  0.2433 -0.0380 -0.1325
47569W        W90482  29.570  31.185  20.873  0.0926  0.1468  0.0340
47570W        W90483   4.826  12.447  22.952 -0.1118 -0.0265 -0.1469
47571W        W90484   3.864   5.507  19.711  0.1975 -0.1094  0.0259
47572W        W90485   0.580   2.206   2.790 -0.0771 -0.0586 -0.1091
47573W        W90486   4.829  28.541   1.327 -0.1441 -0.3155 -0.2142
47574W        W90487  28.385   3.864  21.571  0.0077 -0.2177 -0.2601
47575W        W90488   1.962   1.818  21.572  0.1102  0.2966 -0.4065
47576W        W90489  30.210   6.863  24.748 -0.0384 -0.1195 -0.0220
47577W        W90490  18.380  30.600  26.190  0.0387  0.1662 -0.1778
47578W        W90491  28.696  33.465  18.091 -0.0030  0.1666  0.4370
47579W        W90492   8.076   1.330  22.979 -0.3479 -0.1716  0.2392
47580W        W90493   0.132  23.515   2.931  0.2092 -0.0056 -0.2162
47581W        W90494  32.437  30.277  28.011  0.0463 -0.0292  0.5586
47582W        W90495  30.046   3.027  24.494 -0.0566  0.2799 -0.1576
47583W        W90496  33.251  32.145  18.526 -0.0905  0.2294 -0.1501
47584W        W90497  25.077   0.314  29.362 -0.1116  0.1937 -0.0489
47585W        W90498  31.878   7.587  18.215  0.0090 -0.1274  0.1213
47586W        W90499   7.615   3.741  28.197 -0.2424 -0.2201  0.4026
47587W        W90500  30.992   6.030  22.874  0.1781  0.6945  0.0286
47588W        W90501  33.864   2.708  19.992  0.0591 -0.0148  0.4373
47589W        W90502  28.797   2.127  19.932 -0.2555 -0.0704 -0.1950
47590W        W90503  10.946   6.003  20.680  0.0510 -0.3991  0.2550
47591W        W90504  23.052   8.408  12.710  0.1947  0.1360  0.1573
47592W        W90505   3.211   1.455  20.953 -0.1084  0.1175 -0.1467
47593W        W90506  28.148  14.611  24.276  0.1071  0.3276 -0.1295
47594W        W90507   0.931   2.978  22.571 -0.2385  0.0565  0.1345
47595W        W90508  30.905   3.495   2.101 -0.3628  0.1562 -0.1276
47596W        W90509  22.182   1.571  19.785  0.1407  0.1059 -0.1065
47597W        W90510   2.400  10.134  26.936 -0.1534  0.0433  0.3022
47598W        W90511  27.369  13.241  27.877 -0.2016 -0.0841  0.0721
47599W        W90512   8.593  10.213  25.391  0.2302 -0.1909 -0.1449
47600W        W90513  30.221   0.572  21.403 -0.0310 -0.1672 -0.4023
47601W        W90514  24.883  10.546  14.874  0.2951 -0.2256  0.4228
47602W        W90515  31.525  15.214  21.099 -0.1871  0.1982 -0.0376
47603W        W90516  30.370   5.784  18.679 -0.0958 -0.1573 -0.0806
47604W        W90517   1.814   5.334  26.768 -0.1745 -0.1964  0.1316
47605W        W90518  34.188  10.641   1.252  0.1062  0.1506 -0.0508
47606W        W90519  19.913   4.092  23.052  0.0834 -0.0655  0.1446
47607W        W90520  29.402  30.421  28.256 -0.0050  0.0409  0.1529
47608W        W90521   6.158  32.518  20.765 -0.2523 -0.2876  0.1960
47609W        W90522   5.262   6.768  17.045  0.0524 -0.2773  0.0046
47610W        W90523  32.854  32.479  25.904 -0.2068  0.1119  0.1951
47611W        W90524   5.926  16.730  20.035 -0.0009  0.0638  0.0046
47612W        W90525   5.544  17.429  10.124  0.1508 -0.0907  0.0972
47613W        W90526  34.477   6.588   0.506 -0.1375 -0.0624 -0.0452
47614W        W90527   5.620  34.183  25.524 -0.4428 -0.0339  0.3006
47615W        W90528   0.858   0.123  27.180 -0.2094 -0.1318  0.0060
47616W        W90529   0.441  18.830  19.354  0.2765  0.1987  0.2031
47617W        W90530  33.482   8.852   0.126  0.0738  0.0995  0.0717
47618W        W90531   2.005  29.941  28.931  0.2728 -0.1264  0.0009
47619W        W90532   7.532  33.225  23.831  0.1489  0.2469  0.0651
47620W        W90533  23.457  10.026  27.232 -0.2620  0.0038  0.2804
47621W        W90534   0.071   1.231  23.800 -0.1133  0.0157 -0.2332
47622W        W90535   0.346   1.082  25.980  0.3507  0.0588 -0.1982
47623W        W90536  24.588  12.002  22.923 -0.2181  0.0339  0.1707
47624W        W90537   8.574  33.452  26.528 -0.0448  0.1869 -0.0067
47625W        W90538   3.947   7.234  25.923 -0.3108 -0.0032  0.2501
47626W        W90539   3.076  32.632  24.913  0.0768  0.2632 -0.1122
47627W        W90540  30.084  31.843  26.329 -0.2874 -0.0951 -0.4442
47628W        W90541  31.945  34.320  21.075  0.2955 -0.1895  0.2141
47629W        W90542   3.397   4.347  25.839  0.3394  0.1793 -0.2250
47630W        W90543  28.647  11.587  19.879  0.0582  0.1482  0.0566
47631W        W90544  30.418   7.917  24.154  0.0338 -0.0874 -0.0200
47632W        W90545   1.085  12.092  24.003  0.1800 -0.1599 -0.0166
47633W        W90546  28.481   5.018  26.721  0.0579 -0.1009  0.3380
47634W        W90547  28.781  16.182  27.717 -0.3590  0.2315  0.1355
47635W        W90548  32.030  15.590   0.756  0.1275 -0.1741 -0.0984
47636W        W90549   2.686   6.955  18.898 -0.0541  0.0010  0.1975
47637W        W90550  31.167   7.215   2.413  0.4238  0.1601  0.0116
47638W        W90551  29.562   1.900   2.869  0.0512 -0.4924  0.1756
47639W        W90552  34.282   5.872  23.470  0.0736 -0.3810 -0.3148
47640W        W90553   4.356  22.846  20.849 -0.3667 -0.1844  0.0801
47641W        W90554  34.217  10.920   2.213 -0.2302 -0.2120 -0.1225
47642W        W90555  33.046   3.453   2.588  0.1739  0.0945  0.0241
47643W        W90556  24.390  31.643  21.107 -0.0310  0.2010 -0.1188
47644W        W90557  25.127   9.856  25.059 -0.1420  0.0972  0.1405
47645W        W90558  25.938  26.225   6.151 -0.1247 -0.2390  0.1347
47646W        W90559   1.560  19.322   2.008 -0.0692  0.4104 -0.3326
47647W        W90560  34.022  32.460  19.153  0.3429  0.1799 -0.0394
47648W        W90561  10.575  12.366  26.694 -0.1183 -0.0158 -0.2193
47649W        W90562  15.682   7.205   0.753  0.1218 -0.0281  0.1428
47650W        W90563  22.052  11.064  23.784  0.0076  0.0693 -0.1325
47651W        W90564  27.159  10.803   1.079  0.2904  0.1977 -0.0489
47652W        W90565   8.269   9.594  15.784  0.3798  0.0995 -0.2056
47653W        W90566   0.222  32.954  19.405 -0.2200  0.0296 -0.1641
47654W        W90567  24.198  10.230  25.417  0.0682 -0.0951  0.3484
47655W        W90568  29.712  32.240  21.924 -0.1136 -0.0976 -0.1453
47656W        W90569   0.604   6.028  25.403  0.1002 -0.1494 -0.0086
47657W        W90570  27.233   1.419  27.636  0.1652 -0.4958 -0.1117
47658W        W90571   0.938   8.197  20.297 -0.0783 -0.0829 -0.1237
47659W        W90572  26.828   9.639   0.768 -0.0507  0.0133  0.1074
47660W        W90573  26.530  27.092  26.805  0.1878  0.2600  0.3790
47661W        W90574  34.157   8.541  20.285  0.2496  0.0792 -0.2950
47662W        W90575   1.433  13.070  24.788 -0.2160 -0.1292  0.1501
47663W        W90576  29.988  34.018  16.201 -0.2787  0.4521 -0.1198
47664W        W90577  27.650  34.125  23.808  0.0638  0.0040 -0.5804
47665W        W90578  32.240  16.124  23.861 -0.0338  0.2249 -0.0095
47666W        W90579  32.122  11.403  23.533  0.0146  0.0836  0.3144
47667W        W90580  31.511  13.151   8.894 -0.0412 -0.2367 -0.0031
47668W        W90581  29.455   9.971  26.576 -0.1995  0.0965  0.1470
47669W        W90582  23.550  16.185  19.157  0.0868  0.2863  0.1949
47670W        W90583  31.056   5.686  22.398 -0.0200 -0.4427  0.0180
47671W        W90584  23.574  16.249  29.722  0.3755 -0.0949 -0.0727
47672W        W90585   6.985   2.450  23.346  0.4167  0.2743  0.1744
47673W        W90586  33.450   5.720  12.652 -0.0882 -0.0204 -0.0134
47674W        W90587   2.167  29.764   1.022  0.3627  0.0815  0.1319
47675W        W90588   5.002   2.857   0.045  0.4220 -0.2202  0.0361
47676W        W90589   1.216   7.168  17.034  0.1796 -0.1319  0.0133
47677W        W90590   9.515   2.406  24.829 -0.2588  0.2136  0.2013
47678W        W90591   0.367  16.101  24.120  0.2853  0.0533 -0.3576
47679W        W90592  33.601   6.611  18.400 -0.1927 -0.1655  0.0167
47680W        W90593  20.629   7.039  17.893  0.0174 -0.2511  0.3723
47681W        W90594  27.027  26.677  23.408  0.0572  0.0432  0.0049
47682W        W90595  15.308  13.754  23.392 -0.0321  0.1519 -0.0387
47683W        W90596   7.464   7.292  19.402  0.1911 -0.2371  0.0308
47684W        W90597   0.966  12.811  24.453  0.0018 -0.3644  0.2380
47685W        W90598   4.868   9.921  21.680  0.3215  0.3376 -0.0905
47686W        W90599  11.427   5.349  27.859 -0.1745  0.0231 -0.0891
47687W        W90600  29.938   8.706  17.992  0.1422 -0.2530  0.1398
47688W        W90601  30.326  21.233  16.251 -0.1241 -0.0193  0.3705
47689W        W90602  33.977   3.552  20.276  0.1518 -0.2352 -0.1190
47690W        W90603  34.301   2.232  18.046 -0.1604 -0.0381  0.1564
47691W        W90604   6.447   7.056  20.872 -0.1706 -0.1889 -0.1668
47692W        W90605   5.116   2.919  27.528 -0.0333  0.0715 -0.0392
47693W        W90606   2.303  29.949  27.447  0.1582 -0.1216 -0.1163
47694W        W90607  32.776   6.033  21.319 -0.1797  0.0383 -0.2395
47695W        W90608   6.044  15.244  19.267  0.2619  0.0669 -0.3937
47696W        W90609  29.269  13.992  23.163  0.1118  0.0127 -0.0948
47697W        W90610   2.204   0.654  20.508  0.3702  0.2697 -0.2064
47698W        W90611  28.110  15.621  27.413 -0.0084 -0.3956  0.3420
47699W        W90612   1.937  10.653  23.633  0.0303  0.1811 -0.0225
47700W        W90613   1.128   0.178  24.795 -0.4100  0.1984 -0.0477
47701W        W90614   2.966  10.667  25.130  0.2581  0.0489  0.0951
47702W        W90615  26.456  18.406  21.441  0.1041  0.4276  0.1773
47703W        W90616  27.475  16.048  27.566  0.2180  0.0741 -0.1147
47704W        W90617  29.844  26.611  23.776  0.1987  0.0402  0.0477
47705W        W90618   1.523  33.593  25.441  0.0544  0.1042  0.0555
47706W        W90619  24.732   8.971  14.151 -0.0049 -0.0364  0.0116
47707W        W90620  11.120  31.708  24.684 -0.0092 -0.0327  0.1072
47708W        W90621   0.303  33.250  29.694  0.3319  0.0502  0.0929
47709W        W90622   0.135  34.308  19.636 -0.0879 -0.0756 -0.0500
47710W        W90623  34.061  18.790  22.200  0.3706 -0.1166  0.1605
47711W        W90624   6.305   5.047  22.644 -0.0474  0.1643 -0.1044
47712W        W90625  12.592  13.948  24.591  0.2514  0.1338 -0.2934
47713W        W90626   9.339   4.375  18.879 -0.0967  0.1304 -0.0062
47714W        W90627   6.110   3.399  22.783 -0.1049  0.0362  0.2503
47715W        W90628  33.527   7.414  25.023 -0.4313  0.0687 -0.1795
47716W        W90629  31.221   2.706  23.130 -0.1548 -0.2376  0.0536
47717W        W90630  34.171   8.553  25.135 -0.0446 -0.2530 -0.0617
47718W        W90631  10.456   2.271  24.026  0.1141 -0.2736  0.0582
47719W        W90632  31.659   4.276   4.426 -0.1128 -0.0200 -0.3618
47720W        W90633   3.382   4.164  28.473  0.1602  0.0848 -0.0839
47721W        W90634  29.292  31.087  15.577 -0.0355  0.2576 -0.1542
47722W        W90635  34.292   4.955   1.996  0.1703  0.0228 -0.0458
47723W        W90636  28.343  17.354  28.916  0.0645  0.1865 -0.1111
47724W        W90637   5.089  32.714  27.122  0.1971 -0.2476 -0.1112
47725W        W90638  31.419   3.735  24.506  0.1381  0.0514 -0.1356
47726W        W90639  10.066   2.442  29.502  0.1100  0.2481  0.1091
47727W        W90640   1.453   8.715  18.525 -0.0290 -0.1516 -0.2207
47728W        W90641  30.776   3.698  23.186 -0.1155 -0.1226 -0.0970
47729W        W90642   2.854  31.300  29.536 -0.2620  0.4203 -0.2496
47730W        W90643  26.977  32.272   0.150  0.1342 -0.0728 -0.3895
47731W        W90644   1.951   2.883  27.104 -0.3446  0.2654  0.0776
47732W        W90645  33.105   6.966  23.448  0.1879  0.0045 -0.0604
47733W        W90646  23.512   0.854   1.902 -0.2903 -0.1317  0.0630
47734W        W90647   1.519   4.296   4.867  0.1336 -0.2295 -0.0618
47735W        W90648  27.890   8.690  25.229 -0.0345  0.0901  0.1738
47736W        W90649  12.038   6.517  23.698 -0.0471  0.0539  0.1367
47737W        W90650  27.264  13.521  25.828 -0.0121  0.1579 -0.0728
47738W        W90651   5.877  25.811  20.724  0.1520  0.0907 -0.2128
47739W        W90652  31.250  11.040  24.146  0.6138  0.0298  0.0015
47740W        W90653  27.046  27.211  27.240  0.0979 -0.0002  0.0305
47741W        W90654   7.278   7.016  19.833 -0.2868  0.0786 -0.1136
47742W        W90655  24.126   2.939  26.244  0.0177 -0.4017  0.0283
47743W        W90656  33.423  15.485  23.409  0.0084 -0.0101 -0.0528
47744W        W90657   6.667   9.975   8.771  0.1581  0.3232 -0.1741
47745W        W90658  26.845  10.714   3.779 -0.1727  0.1721 -0.0303
47746W        W90659  27.160   6.011  24.670 -0.0271  0.0732  0.0879
47747W        W90660   3.619   7.445  11.823 -0.2241 -0.3002  0.1034
47748W        W90661  29.944   9.251   0.490 -0.2032  0.1545  0.0482
47749W        W90662   2.525   3.229  17.857  0.2898  0.0905 -0.1760
47750W        W90663  25.378   6.615  17.092  0.1096 -0.2443 -0.0816
47751W        W90664  34.176  30.653   5.969  0.0415 -0.4212  0.0542
47752W        W90665  34.163   9.001  24.786  0.1805 -0.1007 -0.0468
47753W        W90666  32.658   1.949  20.132 -0.0242  0.3061  0.3442
47754W        W90667  23.454  29.447  26.734 -0.1436  0.0676  0.0901
47755W        W90668  28.648   8.629  21.672 -0.1145  0.1255  0.0994
47756W        W90669   1.446   3.050  21.291  0.1116  0.0207  0.2113
47757W        W90670   2.985   8.879   2.990  0.1028 -0.0346  0.1139
47758W        W90671  30.482   2.429   1.183  0.0819 -0.0351 -0.2291
47759W        W90672  33.493  19.948   0.025 -0.1745  0.2075  0.3329
47760W        W90673  31.526   9.493  19.942  0.0777  0.0414  0.0339
47761W        W90674  28.457  33.229  24.871  0.1018  0.0317  0.1276
47762W        W90675  32.017   4.044  19.581 -0.3095 -0.0998 -0.0546
47763W        W90676  32.362   6.455  21.722  0.2486 -0.0603  0.2575
47764W        W90677   6.407   3.652   4.600 -0.1457  0.0516 -0.0749
47765W        W90678  27.820  18.394  29.695 -0.1446 -0.0793 -0.0883
47766W        W90679  26.452   3.873   1.546  0.0138 -0.4168 -0.1165
47767W        W90680  33.011  10.305  24.410 -0.1783 -0.1245 -0.1266
47768W        W90681  32.704  19.098   5.140  0.2810 -0.3825  0.2557
47769W        W90682  34.326   0.991  24.575 -0.0991  0.1284 -0.1012
47770W        W90683  33.154  31.797  21.116 -0.0149 -0.0499  0.1323
47771W        W90684   9.059  13.243  26.991  0.2509  0.3344  0.3148
47772W        W90685   3.202   3.505  19.305 -0.0330 -0.2089  0.0934
47773W        W90686  29.380   0.579  19.356  0.0151  0.0218 -0.1968
47774W        W90687   3.963   3.886   5.059 -0.0024  0.1687 -0.1672
47775W        W90688  34.326  33.845  29.033  0.1865 -0.5271  0.4571
47776W        W90689  24.436   6.745  25.716  0.1465 -0.3194  0.1607
47777W        W90690  34.325   3.640  21.244  0.0162 -0.3969  0.0853
47778W        W90691  23.253   6.781  26.103 -0.2885  0.0817 -0.0150
47779W        W90692  29.192  15.087  19.620 -0.0709  0.2481 -0.0148
47780W        W90693  25.692   7.281  24.520 -0.0486  0.1712  0.1227
47781W        W90694  25.811  16.679  17.143  0.1285  0.0719 -0.1547
47782W        W90695   0.833  13.084  23.937 -0.0914 -0.0216  0.0427
47783W        W90696  20.989   0.996  15.933 -0.1098  0.1594  0.1779
47784W        W90697  25.886  12.205  26.626  0.1455  0.1184  0.0136
47785W        W90698  27.984   4.446  25.622  0.1079  0.0472 -0.3112
47786W        W90699   3.965  34.331  29.397  0.0279 -0.2075 -0.1252
47787W        W90700  33.960  10.063  20.757 -0.0404  0.0736  0.4944
47788W        W90701   5.790   1.442   7.684 -0.2609 -0.1672  0.1328
47789W        W90702   4.516   5.143  27.702 -0.0936  0.0714  0.3007
47790W        W90703   3.817   0.457  27.229 -0.0983 -0.1988 -0.3256
47791W        W90704   1.172   3.945  19.759 -0.3204 -0.0239 -0.3267
47792W        W90705  29.357  10.599  16.872 -0.1503  0.1576  0.0054
47793W        W90706  31.541  12.033   3.528 -0.0008  0.1113 -0.0238
47794W        W90707  32.848  11.032  25.343 -0.1278 -0.1786  0.0146
47795W        W90708  30.468  15.239   0.051  0.1922 -0.1450 -0.1845
47796W        W90709  25.692  24.817  26.455 -0.1360 -0.1599  0.2042
47797W        W90710  18.317   4.389  25.640 -0.0101  0.0494 -0.5572
47798W        W90711  34.043   1.395  29.724  0.1094 -0.0934 -0.0089
47799W        W90712  32.108  32.667  16.355  0.2126  0.1427  0.3153
47800W        W90713  26.943   6.112   2.347 -0.0379  0.0212 -0.0401
47801W        W90714  34.382  15.678  29.466  0.0767 -0.1600 -0.1698
47802W        W90715  32.718  34.458  19.970  0.0209  0.0963  0.1921
47803W        W90716  27.999   5.865   9.459 -0.0983  0.2080 -0.3281
47804W        W90717   2.185   1.435   4.991  0.0462  0.1235 -0.1210
47805W        W90718  26.394   6.318  26.862 -0.1185  0.0621 -0.0003
47806W        W90719   5.118   5.006  20.986 -0.1008 -0.0670  0.3826
47807W        W90720   3.046   7.175  21.710 -0.1256  0.0635 -0.0443
47808W        W90721  30.725   8.718  22.915  0.3230  0.0534  0.1914
47809W        W90722   1.090   6.375  20.997  0.2722 -0.0715  0.1632
47810W        W90723  25.535   7.519  21.078 -0.0297  0.0957 -0.0451
47811W        W90724  12.108   4.369  16.755 -0.0859  0.0520 -0.0832
47812W        W90725   3.447  33.082  21.967 -0.0635 -0.1892  0.2051
47813W        W90726  28.821  32.235   1.159  0.2092  0.2295 -0.0336
47814W        W90727  28.970   3.614  26.987  0.0689  0.1814  0.2739
47815W        W90728   0.539  13.155   8.016 -0.0504 -0.0807  0.0494
47816W        W90729   6.535   4.716   1.222 -0.1745  0.0063  0.2273
47817W        W90730   3.725   2.042   0.241 -0.1574  0.0362 -0.0248
47818W        W90731   5.431  34.398  27.034  0.0724 -0.0481 -0.1495
47819W        W90732  27.435   5.155  18.993  0.1016  0.1117 -0.2393
47820W        W90733  34.390   8.599  26.134  0.0969 -0.2138 -0.0349
47821W        W90734   3.929  16.558  26.270 -0.1569 -0.0186 -0.2499
47822W        W90735  28.007   5.317  22.421  0.1816 -0.0108 -0.2062
47823W        W90736  23.269   5.493  23.737  0.0362  0.0442 -0.2479
47824W        W90737  33.417  11.331  21.385 -0.1124 -0.0054  0.1325
47825W        W90738  34.199   6.546  18.382  0.1581 -0.1435  0.0038
47826W        W90739  15.371  17.883  29.695 -0.3065 -0.0420  0.0489
47827W        W90740  30.753  15.289  25.694  0.2442  0.0661  0.2285
47828W        W90741  28.760  18.998   5.059 -0.0641  0.3822 -0.2860
47829W        W90742  24.926  12.418   0.382 -0.0744  0.0029  0.1602
47830W        W90743  32.768  15.400  25.622  0.4447  0.3269  0.1705
47831W        W90744  30.221   5.910   3.188  0.1151 -0.2317  0.1288
47832W        W90745  28.811  14.787  23.622  0.0899  0.2178  0.1229
47833W        W90746   7.882   3.904  22.448  0.0588  0.2447  0.1624
47834W        W90747  34.203   7.728  23.075  0.2951 -0.2994 -0.1654
47835W        W90748   1.558  14.787  29.471 -0.1432  0.1280 -0.0314
47836W        W90749  12.673  12.219  28.178  0.0888 -0.0557  0.2577
47837W        W90750  24.604   6.624   3.911 -0.1252 -0.0269 -0.1358
47838W        W90751  32.075   9.408  16.914 -0.0812 -0.0704 -0.1749
47839W        W90752  33.695   4.397  21.792  0.0599 -0.1116 -0.2240
47840W        W90753  27.016   8.812   3.676 -0.0790  0.2315  0.0516
47841W        W90754  33.092  18.163   0.756  0.2129  0.1206 -0.3436
47842W        W90755   3.694   0.502  25.969 -0.0856 -0.2183 -0.0970
47843W        W90756   6.697   8.507  29.757 -0.1849  0.4124  0.2756
47844W        W90757  32.212   5.197   0.504 -0.0429  0.0740  0.0531
47845W        W90758   0.420   8.245  21.521  0.1787 -0.2014  0.2206
47846W        W90759  25.859   5.775  17.406 -0.2029 -0.0467 -0.2168
47847W        W90760  32.284   1.967  23.931  0.2187 -0.2569 -0.0599
47848W        W90761  29.355   0.188  20.892  0.0853 -0.2170 -0.1269
47849W        W90762  27.950  17.986   2.824  0.1161 -0.2045  0.3012
47850W        W90763   1.885   3.304   7.047  0.0926  0.1278 -0.0553
47851W        W90764  22.666  17.788  23.242  0.1300 -0.0556  0.1247
47852W        W90765  31.990  17.732  29.033 -0.2020 -0.0533 -0.2062
47853W        W90766  31.143   9.996   4.273 -0.0599  0.0492  0.2333
47854W        W90767  25.474   6.262   0.131  0.0941 -0.3865  0.2995
47855W        W90768  18.683   9.445  15.920 -0.0912 -0.1585 -0.0698
47856W        W90769  22.479  31.712  20.095  0.0208 -0.2651  0.0985
47857W        W90770  30.781  13.314   3.156 -0.0814  0.2940 -0.4876
47858W        W90771   3.219   1.867  28.190  0.2211 -0.2598  0.0487
47859W        W90772  32.751  11.596  18.852 -0.0214 -0.2694 -0.1194
47860W        W90773  31.975  10.983   2.792 -0.3795 -0.0994 -0.0188
47861W        W90774   2.033   6.215  27.795  0.2255  0.0155 -0.0970
47862W        W90775   3.220   5.731  23.480 -0.1797  0.1844 -0.1894
47863W        W90776   9.648   3.924  29.597 -0.0088  0.0812  0.1665
47864W        W90777  24.239  13.862  21.145 -0.0343  0.2344 -0.2207
47865W        W90778   3.917   2.919   6.887 -0.2796  0.2041  0.0079
47866W        W90779  22.309   1.379  27.985  0.0620 -0.2638 -0.1033
47867W        W90780  34.411  34.323  10.801  0.0023  0.0581 -0.1634
47868W        W90781  31.840  10.612  27.783  0.0842 -0.0996  0.3587
47869W        W90782   3.353   4.538  20.813 -0.1924  0.2920 -0.1042
47870W        W90783  23.570   5.381  20.450  0.2484 -0.2871  0.1114
47871W        W90784  28.352  27.939   1.544  0.2401  0.0097 -0.1866
47872W        W90785  31.728   4.677  26.691 -0.1602  0.1208 -0.5684
47873W        W90786   1.787   2.899   4.397 -0.0935 -0.0073  0.0414
47874W        W90787  13.638   5.416  26.730 -0.1445  0.1424  0.1939
47875W        W90788  29.960   3.856  28.140  0.1474 -0.1870 -0.0528
47876W        W90789  22.694   5.538   4.134 -0.1566 -0.1585 -0.0547
47877W        W90790   0.417  13.865  20.887  0.2164  0.0378 -0.1589
47878W        W90791  24.470  30.417  25.497  0.4026 -0.3883  0.1516
47879W        W90792  33.706   7.961  22.791 -0.3293 -0.1196  0.0789
47880W        W90793   3.359   5.308   7.647 -0.1107  0.2974  0.2553
47881W        W90794  32.929  30.662  24.098 -0.2039  0.2022  0.2585
47882W        W90795  30.296   4.350  22.910 -0.2826 -0.1733  0.3642
47883W        W90796  33.288   3.346   2.056 -0.3150  0.1111  0.1408
47884W        W90797  30.736   8.341   5.990 -0.0180  0.2493  0.0122
47885W        W90798  28.816   5.185  28.173  0.0030  0.1114 -0.0993
47886W        W90799  27.988   6.276   5.335  0.2707  0.1603 -0.1211
47887W        W90800   5.550   3.136  18.916  0.0825  0.2356 -0.0601
47888W        W90801  34.001  22.685  29.581 -0.1233  0.0214  0.2110
47889W        W90802   2.673   2.622   4.038 -0.1415  0.0235 -0.1072
47890W        W90803   2.899  29.253  19.610 -0.0512  0.1084 -0.0443
47891W        W90804  28.468   5.160  15.327 -0.0481  0.2614  0.1007
47892W        W90805  28.401   8.410   5.524 -0.2045  0.0207  0.1347
47893W        W90806  29.957  10.110  26.552  0.1837  0.0625  0.2387
47894W        W90807  28.346   3.418  19.431  0.2722 -0.2188 -0.1082
47895W        W90808  26.131  16.082  22.604 -0.1601 -0.0926 -0.1065
47896W        W90809   1.421  10.142  28.148  0.0856  0.0825 -0.0809
47897W        W90810   3.520  31.965  23.029 -0.2804 -0.3638  0.4233
47898W        W90811   2.641   0.542  23.861  0.3187  0.1848  0.1529
47899W        W90812   5.276   6.902  20.233  0.3554 -0.0572 -0.1549
47900W        W90813   7.579  14.920  28.406  0.0115  0.0419  0.1228
47901W        W90814   5.549  16.525  29.619  0.0513 -0.1587  0.2992
47902W        W90815   9.382   9.208  29.082  0.3665 -0.0209 -0.2748
47903W        W90816   2.763   2.827  18.072 -0.0149 -0.3174  0.1642
47904W        W90817  10.415  15.384  23.928  0.0948  0.0099  0.0940
47905W        W90818   7.505   4.632  18.300 -0.1737 -0.0248  0.0640
47906W        W90819   9.683   2.593  20.906  0.0502 -0.1380 -0.3557
47907W        W90820  31.378  11.822  16.457 -0.0229  0.2249 -0.4612
47908W        W90821   3.028  32.741  23.676 -0.1539  0.1196  0.1148
47909W        W90822  27.400   0.635   1.303  0.1246 -0.0826  0.0563
47910W        W90823   2.002   6.470  20.681  0.4009  0.2363 -0.0940
47911W        W90824  32.870  12.248   1.145  0.0836 -0.0566  0.0400
47912W        W90825   3.648  33.367   1.553 -0.1656  0.0972  0.3238
47913W        W90826  32.782   0.705  26.020  0.1896 -0.1156  0.0521
47914W        W90827  30.739   2.385  29.226  0.0115 -0.1905  0.0154
47915W        W90828  25.349  14.993   4.243  0.0466 -0.3183 -0.0120
47916W        W90829  34.163   6.119  22.765 -0.2539 -0.0847 -0.0638
47917W        W90830  34.143  34.340  24.752 -0.1090 -0.3585 -0.1876
47918W        W90831  26.822   2.641  25.870 -0.0080  0.1865 -0.3078
47919W        W90832   0.327   9.522  28.916 -0.1809 -0.0108  0.1530
47920W        W90833   4.246  31.635  24.810 -0.0794  0.1203 -0.2283
47921W        W90834  31.878  15.625  26.499  0.0321 -0.0632 -0.2294
47922W        W90835   1.593  10.204   1.487 -0.1101 -0.2215 -0.0641
47923W        W90836   1.322   0.663   0.308  0.0990  0.0682 -0.2229
47924W        W90837  11.958   2.226  25.271 -0.2048  0.0878  0.3788
47925W        W90838  25.999   5.581  19.699  0.0594 -0.1779 -0.1680
47926W        W90839   3.019  14.558   0.748 -0.1185 -0.2060  0.3908
47927W        W90840  22.707  19.412  20.924 -0.1105  0.5671  0.1395
47928W        W90841  29.649   4.264  22.166  0.0227  0.0734 -0.0840
47929W        W90842   4.960   5.261  23.963 -0.2214 -0.1824  0.1157
47930W        W90843   7.424  11.670   0.261 -0.2335 -0.1669  0.1310
47931W        W90844  31.471   8.103   9.899 -0.2247  0.0564 -0.2924
47932W        W90845  24.228   1.298   1.904 -0.0679  0.1583  0.1513
47933W        W90846   0.921   1.386  20.287  0.1489  0.2609  0.2575
47934W        W90847  25.186   6.269  26.333 -0.1663 -0.1013 -0.1322
47935W        W90848  11.654  31.272  10.876  0.1990  0.0411  0.0795
47936W        W90849   2.335   2.761  17.807 -0.0640  0.1409  0.0309
47937W        W90850  32.418   4.517   1.167 -0.2145  0.0422 -0.1620
47938W        W90851  25.347   3.661   5.508 -0.3676 -0.2827 -0.1722
47939W        W90852  29.449  11.220  27.151 -0.1667 -0.0868 -0.2721
47940W        W90853   2.744   7.756  23.061 -0.0936  0.0299 -0.2448
47941W        W90854  11.452  10.432  18.089 -0.0208  0.4026  0.2567
47942W        W90855  30.480  10.049   2.064 -0.2487 -0.0022  0.1597
47943W        W90856   4.163  33.621  18.326  0.1421 -0.2056 -0.5176
47944W        W90857  33.391  19.114   0.412  0.0817  0.0753 -0.1793
47945W        W90858  26.985   3.000  27.221 -0.0549  0.0499 -0.1453
47946W        W90859   4.012  10.455  25.955 -0.4049  0.0640 -0.2001
47947W        W90860   4.022  10.898  25.599 -0.0803 -0.0141  0.0597
47948W        W90861  26.732  10.161   0.876  0.2239 -0.0841 -0.0079
47949W        W90862   6.398  30.556   2.027  0.0637 -0.0517 -0.0019
47950W        W90863  26.763   7.648  22.571  0.3348  0.0350  0.1250
47951W        W90864   4.679   2.541   2.825 -0.2517 -0.1088  0.1894
47952W        W90865   6.666  16.617  24.610 -0.3527 -0.1289 -0.2254
47953W        W90866  19.098   7.636  26.985 -0.0960 -0.0393  0.2799
47954W        W90867  27.460  19.896  25.218  0.0066  0.1124  0.1904
47955W        W90868   2.377  11.524  19.986 -0.3471 -0.0304 -0.2361
47956W        W90869  34.334   2.688  26.318 -0.1895  0.3670  0.0780
47957W        W90870  30.065   2.754  28.985 -0.1977 -0.1711  0.1031
47958W        W90871  28.424   4.143  24.056 -0.0960 -0.1132 -0.0422
47959W        W90872   2.700   5.210   3.935  0.4503 -0.0990 -0.1236
47960W        W90873   0.720   5.880  21.261 -0.1116 -0.1775 -0.1938
47961W        W90874  33.631   0.889   3.386 -0.0552 -0.0176  0.1697
47962W        W90875  32.359  19.830  26.339 -0.1309  0.2384 -0.1157
47963W        W90876  24.731   4.520   4.621  0.0518 -0.0240 -0.2344
47964W        W90877  33.796   3.146   5.166  0.1030 -0.0829  0.1003
47965W        W90878   3.702   8.094  27.040  0.1324  0.3074 -0.0002
47966W        W90879  33.215   8.327  25.610 -0.0204 -0.2357  0.0166
47967W        W90880  24.270  15.851   5.192  0.0547  0.0266  0.1425
47968W        W90881   4.826  31.900  28.487  0.0605 -0.2223  0.0140
47969W        W90882   0.792  29.140   8.835  0.0174  0.0419 -0.3612
47970W        W90883   7.693   7.659   4.521  0.0184 -0.1221  0.0697
47971W        W90884   6.688   6.898  27.791 -0.1792 -0.0661  0.3352
47972W        W90885   0.776   4.162  16.793  0.0644  0.2463  0.1654
47973W        W90886  10.382  27.363  23.931 -0.1021 -0.0855  0.1262
47974W        W90887   3.932   1.485  24.414  0.0635  0.1884  0.0943
47975W        W90888  33.239   7.899  27.475  0.1508 -0.3093 -0.4214
47976W        W90889  31.919   5.837   0.419  0.3184  0.2949  0.3485
47977W        W90890  27.836   9.649  23.734 -0.1208  0.1552 -0.2162
47978W        W90891   0.179  10.391   4.711  0.1047 -0.1525 -0.2721
47979W        W90892  27.974  16.120  21.500 -0.1686 -0.2771 -0.0731
47980W        W90893  32.440  10.664   3.939  0.1945 -0.1027 -0.1804
47981W        W90894  12.080   3.026  25.028  0.1646  0.1671 -0.0084
47982W        W90895  30.942   5.978  25.571  0.3255 -0.1083 -0.1207
47983W        W90896  23.635  11.955   0.735  0.0004 -0.0041 -0.1062
47984W        W90897  23.581  12.797   1.544 -0.0623  0.0401 -0.2523
47985W        W90898  11.213   9.611  18.149  0.0448  0.0927 -0.0577
47986W        W90899  10.568  13.527  22.122  0.1449  0.1086 -0.1762
47987W        W90900   5.058   6.886   6.841  0.1999 -0.3582  0.0588
47988W        W90901  11.301   6.939  20.504  0.3827  0.2119 -0.2650
47989W        W90902  33.279   5.188  10.609 -0.2385  0.0305 -0.1727
47990W        W90903  11.727   5.451  15.918 -0.2758  0.4020 -0.0024
47991W        W90904   6.973   1.772  27.017 -0.0074  0.3968 -0.0826
47992W        W90905  33.439   4.415  22.725  0.2669  0.2437  0.2634
47993W        W90906  10.784   6.755  25.993 -0.0750  0.0015  0.0837
47994W        W90907  32.950   6.260  25.692 -0.0018 -0.1910  0.5920
47995W        W90908  32.743   3.397  21.207  0.0871 -0.3847  0.1065
47996W        W90909  32.837   6.149  11.244 -0.0349 -0.3287  0.0770
47997W        W90910   4.732  12.125   4.252 -0.0240 -0.2569 -0.0874
47998W        W90911   2.662   5.860  27.165  0.0368  0.0259 -0.1314
47999W        W90912   8.707   5.559  25.779  0.0022  0.1268 -0.0091
48000W        W90913  33.150   8.962   0.639 -0.2070  0.0687 -0.0953
48001W        W90914  27.696   3.272   6.542  0.3284 -0.0979  0.1603
48002W        W90915  27.520  32.842   9.282  0.0587 -0.1308 -0.0210
48003W        W90916  25.790  12.379  21.764  0.4080  0.1811  0.0836
48004W        W90917   2.483   9.036  19.346  0.2223  0.1293 -0.1054
48005W        W90918  22.561  16.279  13.080  0.0646 -0.1812 -0.1172
48006W        W90919  23.867  12.388  21.404  0.0340 -0.2316  0.0281
48007W        W90920   6.312   8.878  24.967  0.3431  0.1790 -0.0495
48008W        W90921  34.178  11.267  26.876  0.0435 -0.2130 -0.0110
48009W        W90922  34.148   9.395  20.952 -0.1233  0.0710  0.1771
48010W        W90923  32.826  17.897  19.634  0.0270 -0.0511 -0.2762
48011W        W90924  13.898  10.338  14.010  0.0665  0.0095 -0.3128
48012W        W90925  33.822   0.006  15.556 -0.1925  0.2008 -0.3153
48013W        W90926  31.094   7.531  23.463  0.0901 -0.0457 -0.1593
48014W        W90927  31.461  12.172  24.667  0.0820  0.0622 -0.1804
48015W        W90928   4.135  17.658  18.613  0.1917  0.0495 -0.0522
48016W        W90929  23.502   3.587  13.903 -0.0618  0.1258  0.0270
48017W        W90930  24.420  13.025  17.501  0.0824  0.1619 -0.0307
48018W        W90931  34.123  24.372   1.575  0.1005 -0.0415  0.1622
48019W        W90932  21.828  11.252  25.290  0.0532 -0.5916 -0.2617
48020W        W90933  27.289  11.407  22.125  0.1626 -0.3403 -0.1892
48021W        W90934   3.077   6.502  17.292 -0.2757 -0.2093  0.3803
48022W        W90935  32.534  15.492  23.534  0.1358  0.1786  0.1887
48023W        W90936   4.138  14.283   3.126  0.0510  0.1649 -0.2393
48024W        W90937  29.502  14.656  15.277  0.1230 -0.5066 -0.0882
48025W        W90938  30.777  17.004  15.416  0.0491  0.4553 -0.0762
48026W        W90939  32.093   9.930  19.141 -0.0693  0.1164 -0.0798
48027W        W90940  32.603   8.154  18.581 -0.1932 -0.1002  0.2514
48028W        W90941   7.053   7.430  19.726  0.0797 -0.0504 -0.0845
48029W        W90942   2.810   5.172  20.040  0.1251 -0.2441 -0.1269
48030W        W90943   3.924  11.928  15.531  0.0587  0.0363 -0.1772
48031W        W90944  23.904  16.467  17.482 -0.0102 -0.1078  0.4223
48032W        W90945  31.617  11.276  24.353 -0.2530 -0.0824  0.0937
48033W        W90946   0.282  31.072  14.728  0.2828  0.0133 -0.1044
48034W        W90947  24.899  19.217  15.811  0.0856  0.2435  0.3474
48035W        W90948  34.480  19.328  24.083 -0.1026 -0.0601  0.3565
48036W        W90949  32.892   0.390  22.060 -0.0184 -0.3448  0.1452
48037W        W90950  18.609   9.225   4.605  0.2417 -0.1232 -0.1701
48038W        W90951   8.086   5.927  22.921  0.0522 -0.1867 -0.3030
48039W        W90952  30.844   8.870  16.173 -0.3073 -0.1117  0.0553
48040W        W90953  24.888   8.161  27.255  0.2090  0.2208  0.1829
48041W        W90954  29.904   5.447  19.308  0.3950 -0.0408 -0.0549
48042W        W90955  29.817  17.610  13.980  0.0870  0.1200  0.0485
48043W        W90956  31.402  30.839  17.718 -0.0215 -0.1481  0.2521
48044W        W90957  26.688  14.372  20.053  0.1611 -0.0426  0.1217
48045W        W90958  32.370  17.236  18.550  0.1933 -0.4067 -0.0484
48046W        W90959  29.844  10.535  25.883 -0.1248  0.0894  0.1618
48047W        W90960  30.983   2.163  18.965 -0.0407  0.2559  0.0086
48048W        W90961  34.243  33.563  24.254 -0.2371  0.1449  0.0497
48049W        W90962  34.210  10.231  25.708 -0.1535 -0.3450  0.3851
48050W        W90963  34.434  14.326  22.137 -0.0500  0.0837 -0.0184
48051W        W90964   5.118  11.647  21.672  0.1560  0.2284 -0.3020
48052W        W90965  29.796   9.731  15.864  0.2606 -0.3946 -0.1330
48053W        W90966  27.761  15.209  25.534 -0.0950  0.2172  0.1541
48054W        W90967   0.565  10.641  16.692 -0.1449  0.0652 -0.1147
48055W        W90968   2.190  12.685  18.967  0.0770  0.0484 -0.0965
48056W        W90969   4.939  10.471  25.800  0.2373 -0.2121 -0.0271
48057W        W90970   0.134  18.207  17.725 -0.2008  0.1353  0.1575
48058W        W90971  27.101  10.409  19.974  0.2251  0.2098  0.0995
48059W        W90972  26.365   1.816  24.162 -0.2536  0.2198  0.1888
48060W        W90973   5.870  20.562  26.261 -0.1384  0.0688  0.4282
48061W        W90974   3.937   0.443  18.299  0.2882 -0.0879  0.1799
48062W        W90975  30.153  20.733  26.477 -0.1592 -0.3805  0.0463
48063W        W90976  18.152   0.828  22.178  0.1618 -0.0905  0.3288
48064W        W90977  26.577   6.549  17.225  0.1833  0.0939 -0.0873
48065W        W90978  13.276   3.521  25.111  0.0119  0.2088  0.2540
48066W        W90979  26.516  10.008  14.432 -0.0569 -0.2832  0.4200
48067W        W90980  32.551   6.637  16.439  0.0110 -0.0607 -0.5358
48068W        W90981  21.827  14.170  27.846 -0.4786 -0.0090 -0.1666
48069W        W90982  33.866  11.495  19.715 -0.0573 -0.2144 -0.0251
48070W        W90983  22.447  17.791  15.230 -0.2912 -0.1284  0.1347
48071W        W90984  30.422   3.577  18.045 -0.1467 -0.2414  0.0041
48072W        W90985   2.756   0.857  20.690  0.1557  0.1505  0.1803
48073W        W90986   2.050   7.178  22.561 -0.2217  0.1641  0.1096
48074W        W90987  30.670   1.882  18.677 -0.0512 -0.2441 -0.2075
48075W        W90988  28.356  18.758  15.967  0.0944 -0.1511  0.4022
48076W        W90989   4.772   8.622  17.305  0.4037 -0.0766  0.0166
48077W        W90990  27.066  15.611  26.393  0.2138  0.1852 -0.0055
48078W        W90991  30.885   0.456  25.021  0.1566  0.0532 -0.0408
48079W        W90992  28.012  10.980  14.797  0.1006 -0.2362  0.0119
48080W        W90993  22.415   8.326  27.366 -0.1660 -0.2134 -0.0984
48081W        W90994  30.742   3.637  16.734  0.0364  0.1915  0.0203
48082W        W90995  31.084  21.601   1.519  0.0868  0.2552 -0.0148
48083W        W90996  26.833  18.338  16.135 -0.2662  0.2126 -0.0192
48084W        W90997  27.780  10.354   1.698  0.1511  0.1385 -0.0914
48085W        W90998  32.799  32.852  23.823 -0.0148 -0.1147  0.0541
48086W        W90999  21.223  32.302  23.021 -0.0021  0.1012  0.0666
48087W        W91000  30.573   4.364  19.451 -0.1597  0.1823 -0.0784
48088W        W91001  30.389   7.502  16.442  0.1789 -0.1842  0.0120
48089W        W91002  30.029   6.829  16.498 -0.3323  0.3019  0.1998
48090W        W91003  21.494   6.951  13.943 -0.1757  0.2590  0.3437
48091W        W91004  32.627   4.623  27.093  0.2217 -0.0551  0.1024
48092W        W91005   9.619  34.395  21.039 -0.0523 -0.1563  0.3566
48093W        W91006  30.175  19.905  16.952 -0.0269  0.2683  0.1213
48094W        W91007  27.395  12.045  25.328  0.0643  0.1418 -0.1541
48095W        W91008  25.569  18.618  17.872 -0.1120 -0.0468 -0.2504
48096W        W91009  33.181   1.829  18.342  0.0275  0.2035 -0.1292
48097W        W91010  28.599   1.707  23.936  0.2111  0.0502  0.1120
48098W        W91011  25.809  34.204  18.407  0.2796 -0.1145 -0.0580
48099W        W91012  16.808   8.476  27.766  0.1814 -0.0078  0.0795
48100W        W91013  28.935  11.962  21.831 -0.1715 -0.1841  0.1538
48101W        W91014   9.899   2.792  17.742 -0.2020  0.0529 -0.1597
48102W        W91015  17.232  18.602  13.088 -0.1152 -0.2722  0.0202
48103W        W91016   1.751   0.991  24.679 -0.0573 -0.1800  0.0350
48104W        W91017  25.455   8.681  18.782  0.1311  0.0032  0.0603
48105W        W91018   6.014  16.993  17.326  0.2054 -0.1322 -0.4430
48106W        W91019   9.400   3.850  20.998  0.0912  0.0767 -0.0453
48107W        W91020   1.995  33.428  17.371 -0.3193 -0.0637  0.1296
48108W        W91021  29.003   2.171  21.557 -0.0179 -0.1150 -0.2029
48109W        W91022   1.547  18.959  20.252 -0.3672  0.0741  0.0795
48110W        W91023  25.080  18.792  20.260  0.2097  0.3360 -0.2559
48111W        W91024   9.371  23.195  23.677 -0.2900  0.0750  0.1981
48112W        W91025   3.070   4.822  21.115 -0.1762  0.1605  0.1115
48113W        W91026  20.770  14.002  16.569 -0.1949 -0.1177  0.4604
48114W        W91027  22.232  31.580  26.712  0.1320  0.2271 -0.0255
48115W        W91028  30.333  13.260  14.540  0.0899  0.0534 -0.0877
48116W        W91029   2.701   6.887  17.189  0.1922 -0.0862  0.1519
48117W        W91030  28.462  11.878  28.866  0.2285 -0.1679  0.1503
48118W        W91031  23.826   4.708  23.357  0.1705 -0.0765  0.0194
48119W        W91032   0.029  13.003  25.814  0.3082  0.0254  0.0810
48120W        W91033  29.965  18.166   2.927  0.2770  0.1950 -0.1556
48121W        W91034  32.650  27.791  22.058  0.0499 -0.0195 -0.1360
48122W        W91035  28.778   9.289  22.490 -0.0953  0.3031 -0.3118
48123W        W91036  32.481   3.966  19.774 -0.0347  0.2050  0.1105
48124W        W91037   3.380   8.017  16.484 -0.1542 -0.3523  0.2477
48125W        W91038   8.972   8.056  18.256 -0.1672  0.1257  0.1214
48126W        W91039  23.828  31.258  15.085 -0.2746  0.1310 -0.2632
48127W        W91040  26.727   7.060  21.423 -0.1373 -0.0992  0.1744
48128W        W91041   2.774  11.340  18.734 -0.0163  0.1300 -0.2248
48129W        W91042  26.263   9.491   3.233  0.0036  0.0392 -0.2847
48130W        W91043  33.491   2.268  27.038 -0.0559  0.1006  0.2432
48131W        W91044  29.971  11.844  19.212 -0.2105  0.1539 -0.1276
48132W        W91045  32.501  32.760  27.701 -0.1174  0.0032  0.1699
48133W        W91046  30.429  30.839  26.818 -0.1227  0.1965 -0.1262
48134W        W91047  33.547   6.858  20.748 -0.4098  0.1256 -0.3473
48135W        W91048   1.904   9.126  23.584  0.1953 -0.0907  0.1021
48136W        W91049  30.194  11.077  16.696  0.0986 -0.0804 -0.0468
48137W        W91050  30.690  12.475  24.097 -0.0478 -0.1011  0.0403
48138W        W91051   0.281   9.294  22.809 -0.0291  0.1029  0.1342
48139W        W91052  28.399  11.617  14.211  0.0260 -0.1871  0.1174
48140W        W91053   0.827  14.782  15.083 -0.1569  0.0129  0.0429
48141W        W91054  28.141   3.724  19.844  0.2573  0.0772 -0.0946
48142W        W91055  22.959  12.350  15.213  0.2162 -0.1500  0.1026
48143W        W91056  24.649  11.118  27.899 -0.1257  0.1585  0.3033
48144W        W91057   4.781   0.370  28.881  0.0509  0.0016 -0.2962
48145W        W91058  27.715  11.395  17.317  0.0033 -0.0668 -0.2962
48146W        W91059  26.658   5.133  15.028  0.3026  0.1967  0.1113
48147W        W91060  30.660  31.628  28.063 -0.2110  0.2958  0.1973
48148W        W91061  24.812   8.210  16.681 -0.0430 -0.2574  0.1588
48149W        W91062   4.890  32.974  21.557 -0.2431  0.2075  0.4100
48150W        W91063  23.993  13.572  21.928  0.2570  0.0751 -0.1128
48151W        W91064  31.388   2.762  20.710 -0.1449 -0.2890 -0.0264
48152W        W91065  23.351  14.794  23.398  0.3868 -0.1696  0.0079
48153W        W91066  32.464   5.876   0.537  0.1445  0.2504  0.0646
48154W        W91067  21.752   1.193  24.368 -0.3265  0.0701 -0.1014
48155W        W91068  26.877   7.689   1.458  0.5586 -0.0434 -0.1306
48156W        W91069   2.005  14.600  20.288 -0.4386 -0.1070 -0.1694
48157W        W91070   1.795  15.597  23.242  0.1209  0.1592 -0.2525
48158W        W91071  29.290   9.166  17.494  0.2590  0.2626 -0.0729
48159W        W91072   2.852  22.713  21.069  0.1113 -0.0131  0.0778
48160W        W91073  32.511   7.820  21.094 -0.0139  0.3606 -0.2471
48161W        W91074  29.421  11.122  13.873 -0.1727 -0.1406 -0.0016
48162W        W91075   8.313  12.582  19.578 -0.0132  0.0386  0.1973
48163W        W91076  31.897   2.187   4.084 -0.0609  0.2335 -0.1175
48164W        W91077   1.163   4.998  22.473  0.0838  0.2869 -0.1261
48165W        W91078  21.505  14.485  12.668 -0.0590  0.3450 -0.0038
48166W        W91079  28.619  12.338  20.994  0.3038 -0.3144 -0.0457
48167W        W91080   0.533   6.120  18.214  0.0039 -0.2701 -0.1233
48168W        W91081  31.008  15.046  21.297 -0.0882 -0.0598  0.0616
48169W        W91082  27.037   1.593  17.638 -0.2188  0.1378 -0.1167
48170W        W91083   5.407  12.595  25.955  0.2501  0.0246 -0.2759
48171W        W91084   0.392   6.961  22.115  0.1626 -0.0523  0.0267
48172W        W91085  26.344   5.672  15.394 -0.0055 -0.2483 -0.2143
48173W        W91086  33.188  21.152  14.175  0.2571 -0.2446 -0.1096
48174W        W91087  31.886  12.357  23.365 -0.0393  0.2885  0.1784
48175W        W91088  25.627   3.670  28.370  0.0662  0.1639 -0.0067
48176W        W91089   6.220  30.318  19.582 -0.0698 -0.0151  0.2500
48177W        W91090  30.345  13.879  24.552 -0.1735 -0.0682  0.1933
48178W        W91091  21.682   3.953  16.950 -0.2546  0.1707  0.3823
48179W        W91092  34.317  12.481  17.832 -0.0676 -0.1770  0.0439
48180W        W91093   0.344  32.393  22.630 -0.0794 -0.2997 -0.0222
48181W        W91094   6.041   5.741  23.704 -0.1641  0.2068 -0.0997
48182W        W91095   0.363  12.335  18.781  0.1202 -0.0610  0.1480
48183W        W91096   3.437  13.828  15.359 -0.3104 -0.4078  0.0583
48184W        W91097   5.201  12.677  22.558 -0.0080 -0.1743  0.2267
48185W        W91098  22.006  11.802  22.296  0.0310 -0.1863 -0.0843
48186W        W91099  30.623  11.104  17.654 -0.1223 -0.0924 -0.0728
48187W        W91100  32.226   9.136  27.034 -0.0466  0.1659 -0.1663
48188W        W91101  26.967  14.738  14.735 -0.2059  0.0839  0.0820
48189W        W91102  25.582   8.893   0.107  0.2830  0.0518  0.1911
48190W        W91103  23.736   1.510  20.937  0.2963  0.1973 -0.2629
48191W        W91104  31.095   2.044  26.938 -0.0387 -0.0884  0.0503
48192W        W91105  31.037   8.915  17.158  0.0490 -0.0346  0.1578
48193W        W91106   6.102   8.887  20.639  0.0940 -0.0828  0.0549
48194W        W91107  24.339   6.518  24.130 -0.0750  0.1317 -0.0717
48195W        W91108   9.180   2.449  28.028  0.2055  0.0308 -0.0085
48196W        W91109  31.501  13.162  20.022  0.0210  0.0578 -0.4309
48197W        W91110  33.256   4.732  23.575 -0.4840 -0.0071  0.0375
48198W        W91111  34.288  10.163  15.611 -0.3882  0.2530 -0.2374
48199W        W91112  34.049  11.423  16.758  0.1395  0.3520 -0.0585
48200W        W91113  28.049   8.595  28.997  0.2640  0.3107 -0.0282
48201W        W91114  31.410   8.115  15.949 -0.1891  0.2857  0.3380
48202W        W91115  30.091   9.477  22.277  0.3042 -0.0032 -0.1240
48203W        W91116  34.065   8.711  18.406  0.1045  0.2823  0.0954
48204W        W91117  30.393   6.349   2.255  0.1596  0.0028  0.1234
48205W        W91118  34.388  10.611  16.147 -0.0367 -0.0744 -0.0023
48206W        W91119  28.741  13.663  19.816  0.1008  0.1329  0.2122
48207W        W91120   7.044  11.960  21.827 -0.1205 -0.0792  0.1275
48208W        W91121  26.770   6.959  18.490  0.3927 -0.1685 -0.1105
48209W        W91122  26.085   6.675  25.698 -0.2719 -0.0619  0.0966
48210W        W91123   4.076  12.790  14.955 -0.3720 -0.2308  0.0639
48211W        W91124  32.027   2.017  17.477 -0.1114  0.0975  0.1193
48212W        W91125   1.618  22.029   0.621 -0.0853 -0.2217 -0.1058
48213W        W91126  29.929  16.128  15.535  0.1246  0.0484  0.0301
48214W        W91127  30.387  18.419  20.025  0.4886 -0.1721 -0.0026
48215W        W91128  29.021   7.229  22.795  0.4414  0.0210  0.2867
48216W        W91129  33.477  22.823  20.530  0.1113 -0.1446  0.2861
48217W        W91130   6.032  12.822  19.771  0.0613 -0.2063 -0.0423
48218W        W91131  32.008  13.159  15.941  0.2111  0.0134 -0.4150
48219W        W91132  33.678   8.680  23.932 -0.2358 -0.0051  0.0484
48220W        W91133  18.817   3.502  28.962 -0.3177  0.0431  0.1549
48221W        W91134  11.077  10.824  19.002  0.0577  0.0457 -0.0446
48222W        W91135  29.528  20.500  14.263  0.1642  0.0595 -0.2830
48223W        W91136  31.650   7.195  16.673  0.1212  0.0482  0.2433
48224W        W91137  22.765   8.174  18.377  0.1510 -0.0452 -0.1318
48225W        W91138  33.157   6.920  18.340 -0.0932 -0.1112 -0.2358
48226W        W91139   4.269   8.437  24.643 -0.0463 -0.3039  0.0870
48227W        W91140  20.582  33.893  20.610 -0.0760 -0.1584 -0.1563
48228W        W91141  27.673  10.791  27.443 -0.0062  0.0939  0.0669
48229W        W91142  28.712  31.251  29.429 -0.3697 -0.0328  0.0031
48230W        W91143   0.141  14.878  27.614  0.2609  0.3346 -0.3007
48231W        W91144  31.213   5.992  16.856 -0.0034  0.1223  0.0454
48232W        W91145  14.236   5.605  23.232 -0.2747 -0.0623  0.1795
48233W        W91146   1.832  11.534  21.730 -0.1872 -0.0763  0.2829
48234W        W91147  21.886  18.549  18.953  0.2952 -0.3379 -0.3522
48235W        W91148  30.918  10.331  21.831 -0.3437 -0.1089 -0.1683
48236W        W91149  13.252   5.633  21.295 -0.2166 -0.4618  0.1433
48237W        W91150  31.651   9.612  15.195  0.0298  0.0534  0.0684
48238W        W91151  34.051   8.713  28.918 -0.0092  0.0149 -0.0682
48239W        W91152  33.673  14.835   5.327  0.0505 -0.1508 -0.1507
48240W        W91153  29.989  13.458  22.326  0.1304  0.0437 -0.2854
48241W        W91154  11.468  16.109  22.124  0.0774  0.0370  0.1837
48242W        W91155  32.874  11.665  22.436 -0.0761  0.1089 -0.0393
48243W        W91156  25.255  14.015  14.393  0.1268  0.1025  0.1357
48244W        W91157  26.709  13.342  18.079  0.3492  0.0701 -0.1508
48245W        W91158   0.832  26.890  29.098  0.0890  0.0552 -0.1437
48246W        W91159  30.643  32.198  24.880 -0.0150 -0.1786 -0.2245
48247W        W91160  32.528   8.767  27.172 -0.1640  0.2942  0.0440
48248W        W91161   1.198   8.628  22.503  0.1485  0.0814 -0.0519
48249W        W91162   7.363  15.987  18.879  0.0058 -0.1465  0.0513
48250W        W91163  29.982  30.402  22.825  0.0093  0.0259 -0.3789
48251W        W91164  33.083   5.189  16.222  0.0317  0.3603 -0.1607
48252W        W91165   2.050  17.693  19.261 -0.1929  0.2805 -0.0206
48253W        W91166  30.926  17.678  15.359 -0.0072 -0.2316  0.1308
48254W        W91167  33.927   4.713  16.877  0.2844  0.0704 -0.1845
48255W        W91168  31.433  19.621   2.419 -0.1347  0.1261  0.1120
48256W        W91169  26.502   4.606  15.376  0.0466  0.1342  0.0219
48257W        W91170  27.161  14.710  29.740 -0.1026 -0.1241  0.3000
48258W        W91171  28.473  13.024  14.189 -0.5402  0.0961  0.0750
48259W        W91172  29.723  21.394  14.192  0.2973  0.2733 -0.2910
48260W        W91173   6.967  16.477  26.598  0.2829  0.0198  0.2290
48261W        W91174   8.895   3.442  19.341  0.1072 -0.2716 -0.2759
48262W        W91175   4.076  17.301   0.513  0.0989  0.0930  0.3900
48263W        W91176   8.011  28.074  19.483  0.1250 -0.0164 -0.0924
48264W        W91177   1.249   9.849  27.795  0.0189  0.0645  0.1210
48265W        W91178  28.939   5.539  21.495 -0.3226 -0.0619 -0.4160
48266W        W91179  31.426  11.612  15.315  0.1586  0.0685 -0.0635
48267W        W91180  10.884  12.587  17.873 -0.4253 -0.3739  0.0793
48268W        W91181   4.271   6.858  21.420 -0.0073 -0.0106  0.1615
48269W        W91182  31.997  12.889   1.713 -0.1956 -0.1160 -0.1974
48270W        W91183   9.453   4.309  19.914  0.5659  0.1131 -0.0282
48271W        W91184  27.776   5.168  15.754  0.0346  0.0028  0.0821
48272W        W91185   1.188  11.942  22.990 -0.0690 -0.0835 -0.0899
48273W        W91186  26.448  18.490  17.431 -0.0051 -0.0913  0.2987
48274W        W91187   0.146   3.926  17.607 -0.0512  0.0969  0.2261
48275W        W91188   0.324  11.390  16.692 -0.2527  0.1708 -0.1577
48276W        W91189   8.018  12.585  26.888 -0.1951  0.3004 -0.3045
48277W        W91190  15.493   5.971  17.787 -0.1883 -0.0115 -0.2671
48278W        W91191  33.867   2.111  21.182 -0.0628  0.0854 -0.0178
48279W        W91192   5.145  33.545   9.879 -0.1398 -0.2610 -0.0309
48280W        W91193  30.473  31.026  19.042  0.3610 -0.1402  0.2660
48281W        W91194   9.369   2.559  19.740  0.0493  0.1753  0.0218
48282W        W91195  27.688   5.188  22.957 -0.1235 -0.0732  0.0367
48283W        W91196  24.355  13.679  14.124 -0.1644  0.0519 -0.0215
48284W        W91197   1.231  32.578   0.805  0.0029 -0.2541 -0.0427
48285W        W91198  30.628   9.781  18.661  0.1140  0.2798 -0.0441
48286W        W91199  21.835  12.093  13.611  0.0180  0.0399 -0.2775
48287W        W91200  33.565  17.706  18.275 -0.0423  0.1030 -0.1462
48288W        W91201  28.692  11.495  29.203 -0.4057  0.1324  0.2347
48289W        W91202  27.472  11.661  23.757  0.2469  0.0450 -0.1353
48290W        W91203   6.071  10.133  22.358 -0.1331 -0.2872 -0.0196
48291W        W91204  30.023  23.965  14.822  0.1511 -0.2254 -0.1409
48292W        W91205  28.933  14.609  17.136  0.0129 -0.3851 -0.2851
48293W        W91206  28.219  20.512  20.626 -0.0527 -0.1310 -0.1288
48294W        W91207  21.352  13.099  27.767 -0.1638  0.1755  0.1999
48295W        W91208   3.864   0.633  22.070 -0.1488  0.1564  0.1036
48296W        W91209   0.293   7.652  17.253 -0.0042 -0.2476 -0.3691
48297W        W91210  33.768  31.345  21.852  0.2356  0.1841  0.2345
48298W        W91211  31.501   6.464  23.241  0.1678 -0.1968 -0.2597
48299W        W91212   0.972   6.637  17.709 -0.3046 -0.1551  0.0609
48300W        W91213  32.841   6.557  18.465  0.1059 -0.0241  0.2617
48301W        W91214  34.216   2.937  19.181  0.1385 -0.0504 -0.1454
48302W        W91215  30.524   7.517  25.111 -0.1153 -0.0740 -0.1389
48303W        W91216   0.620  16.870  27.131  0.1731  0.0214  0.2816
48304W        W91217  28.343  33.830   0.120 -0.1591 -0.1226  0.1251
48305W        W91218  25.329  11.462  18.992 -0.3390  0.1176 -0.2725
48306W        W91219  25.518   0.785  25.878  0.2227 -0.0920  0.3046
48307W        W91220  29.642  12.853  18.421 -0.3766 -0.0338  0.1185
48308W        W91221  31.294  26.368  21.689  0.1760 -0.0743 -0.0414
48309W        W91222  22.118  12.741  17.799  0.0477  0.0626  0.1147
48310W        W91223  34.363  17.677  20.337 -0.2542 -0.0459  0.0183
48311W        W91224  29.286  24.390  28.511  0.0563  0.1467  0.1976
48312W        W91225   2.617   3.399  24.779 -0.1178 -0.0107  0.1907
48313W        W91226  29.471  15.711  26.962 -0.1857  0.1516  0.0366
48314W        W91227  23.178  32.400  20.128  0.2827  0.2075 -0.3209
48315W        W91228  31.193   5.302  29.256 -0.0621 -0.0939 -0.0889
48316W        W91229  33.251   0.384   1.588 -0.0810 -0.1362 -0.1095
48317W        W91230   7.366  33.364  28.308 -0.1015 -0.0724 -0.2627
48318W        W91231  30.721  17.689  29.124 -0.0894  0.1573 -0.1360
48319W        W91232  34.437  21.428  22.300 -0.1476 -0.1484  0.0363
48320W        W91233  31.231   3.422  18.570 -0.1630  0.0931 -0.2311
48321W        W91234  28.872   3.201   2.840 -0.0636  0.0811  0.1800
48322W        W91235  34.106  18.640  20.455  0.0672  0.0094  0.0939
48323W        W91236   1.648  10.344  17.670 -0.1766  0.1473 -0.2131
48324W        W91237  26.174  11.562  22.814 -0.3796  0.3390  0.2992
48325W        W91238   9.947  17.301  20.599 -0.2839 -0.1670  0.0289
48326W        W91239  11.292   9.609  22.489 -0.1555 -0.1533 -0.0593
48327W        W91240  22.705   3.006  22.023  0.0897  0.0233 -0.1461
48328W        W91241  31.541   9.434  16.173  0.1413 -0.0331 -0.1836
48329W        W91242   3.242  32.117  15.423  0.0121 -0.0069 -0.0679
48330W        W91243   6.037  12.326  24.838 -0.0548 -0.6197  0.2378
48331W        W91244  30.432  15.498  25.297  0.0013  0.2012  0.1900
48332W        W91245   7.311  30.782  17.346  0.0761  0.2531 -0.2111
48333W        W91246  10.624   5.106  25.340 -0.2573 -0.1596  0.2158
48334W        W91247  33.038  11.218  14.664 -0.1492 -0.0709 -0.1109
48335W        W91248  31.312  34.113  16.359 -0.3099 -0.1422 -0.0914
48336W        W91249   8.641   6.068  19.117  0.3750  0.0989  0.2419
48337W        W91250  29.179  12.390  14.637  0.1704 -0.2953 -0.1111
48338W        W91251  24.141  19.153  23.985  0.0553  0.1682  0.2383
48339W        W91252  32.176   4.180  22.586 -0.0029  0.2162 -0.2581
48340W        W91253   2.039  11.374  16.055  0.1981  0.0200  0.3135
48341W        W91254  11.045   5.692  21.060 -0.2482  0.1283  0.0285
48342W        W91255   1.366   6.799  22.130  0.2958  0.2261 -0.0977
48343W        W91256   0.768  33.698  22.099 -0.0478  0.1104 -0.0609
48344W        W91257   0.634  11.651  19.285  0.0969  0.0061  0.0744
48345W        W91258  32.915  12.632  14.273 -0.0458  0.1420 -0.0966
48346W        W91259   8.296  17.870  25.463 -0.0323  0.0374 -0.0235
48347W        W91260  31.830   0.176  24.022 -0.0908 -0.0181 -0.1541
48348W        W91261  31.587  32.447  14.623 -0.1697 -0.3910 -0.0270
48349W        W91262  28.352   3.846  19.210  0.0772  0.1275 -0.0587
48350W        W91263  31.176  11.126  26.072 -0.2490  0.0439 -0.0870
48351W        W91264  31.280   5.007  28.011  0.1638  0.0486  0.3601
48352W        W91265  29.651   4.613  27.836  0.1421 -0.0974 -0.1300
48353W        W91266  17.177  22.668  22.358  0.2518  0.1034 -0.0798
48354W        W91267  32.196   7.604  15.211 -0.1329  0.0571 -0.0752
48355W        W91268   0.710   4.989  22.276 -0.3715  0.0387  0.1902
48356W        W91269  32.152   8.836  18.392  0.1807 -0.3131  0.2769
48357W        W91270   5.777  14.429  26.491  0.0615 -0.0334 -0.0090
48358W        W91271  30.511  33.804   5.150  0.0259 -0.0519  0.1521
48359W        W91272  21.215   6.772  28.861 -0.0075  0.0175  0.1188
48360W        W91273  28.653  15.754  27.512 -0.2816  0.1705  0.1220
48361W        W91274  34.457  25.605  27.979 -0.0111  0.3534 -0.3100
48362W        W91275   0.220  10.840  15.316  0.2440  0.3971 -0.5125
48363W        W91276  20.772  15.427  12.165 -0.2421 -0.0136 -0.1694
48364W        W91277   9.189  26.595  24.214  0.1963 -0.0049  0.2890
48365W        W91278  34.245  15.619  24.050 -0.1623 -0.2192 -0.1527
48366W        W91279   4.413  18.342  22.811  0.2970 -0.0570  0.0712
48367W        W91280  31.777  33.218  17.729  0.1274  0.0654  0.0156
48368W        W91281   1.327  14.245  20.681 -0.0373 -0.0469 -0.2634
48369W        W91282  33.762  14.568  20.547 -0.3975 -0.0320 -0.0767
48370W        W91283  29.711  11.481  21.281  0.1847  0.0749 -0.1008
48371W        W91284  33.808  13.719  18.404 -0.0999  0.2648 -0.3239
48372W        W91285  33.874  14.240  16.421 -0.4499 -0.2027 -0.0210
48373W        W91286  31.339   9.288   1.194  0.0428 -0.0563 -0.3909
48374W        W91287  15.501  14.110  20.903 -0.2813  0.1234 -0.0011
48375W        W91288  27.779   2.797  22.382  0.3436 -0.0087  0.1436
48376W        W91289  26.982  14.062  15.596  0.2671 -0.1766 -0.0205
48377W        W91290  29.550  21.748  21.965  0.0636  0.0794 -0.6254
48378W        W91291   5.441  16.469  14.422  0.4412  0.1158  0.2110
48379W        W91292   9.967  17.439  22.245 -0.2196  0.1901 -0.0887
48380W        W91293   4.956  13.300  21.846 -0.1006  0.2273 -0.1133
48381W        W91294   6.038   0.443  17.462 -0.0717 -0.1625  0.0254
48382W        W91295  18.945   7.694  22.693 -0.1521 -0.0735 -0.0437
48383W        W91296   0.599   7.957  16.987  0.2220  0.1494 -0.1042
48384W        W91297  24.185   7.400  19.407  0.2753  0.0383  0.2251
48385W        W91298  27.937  18.972  25.033  0.0705 -0.1921 -0.1118
48386W        W91299  17.872   4.193  17.799 -0.1967  0.0455 -0.1331
48387W        W91300  27.636  10.281  28.158 -0.0445  0.2675  0.0270
48388W        W91301   8.635  10.020  15.114  0.3610 -0.1437 -0.3631
48389W        W91302   5.776   5.231  22.676  0.1973 -0.0395  0.3664
48390W        W91303   4.980   9.219  23.243 -0.1016  0.1540 -0.3431
48391W        W91304  33.986  16.957  27.998 -0.4008  0.0028  0.1568
48392W        W91305  10.975  13.991  21.397  0.1603  0.1024 -0.1443
48393W        W91306  30.573   5.510  16.481 -0.5804  0.0518  0.1756
48394W        W91307   9.583   1.654  22.533 -0.1295 -0.1050  0.2588
48395W        W91308  23.965  30.204  13.650 -0.2970  0.3467  0.2675
48396W        W91309  22.649   9.270  12.910  0.0472 -0.3823 -0.1140
48397W        W91310   0.479  30.370  14.695 -0.1009 -0.1230  0.3462
48398W        W91311   3.997  13.076  17.696  0.1233  0.1899 -0.2743
48399W        W91312   3.035  16.096  23.390 -0.1298 -0.0306 -0.0282
48400W        W91313  29.582   6.687   2.391  0.1302  0.0173  0.0151
48401W        W91314   4.471  30.143  27.792 -0.1546 -0.1970  0.3012
48402W        W91315  24.969   5.349  22.249  0.1874  0.2381 -0.0943
48403W        W91316  32.926   3.855  20.055  0.3324 -0.1298 -0.0475
48404W        W91317   1.300  15.489  23.308 -0.0713 -0.2348 -0.2114
48405W        W91318  15.300   0.777  15.816  0.2227  0.2002 -0.0678
48406W        W91319  34.256   9.789  20.354 -0.0643  0.0032 -0.0388
48407W        W91320  21.290   9.627  14.547 -0.0410 -0.1779 -0.2027
48408W        W91321   2.964  16.955  14.830 -0.0962 -0.0755 -0.1797
48409W        W91322   3.293   6.498  19.361  0.0381 -0.2503 -0.0029
48410W        W91323   4.671   5.564  23.647  0.3489 -0.0677  0.3761
48411W        W91324  27.499  13.127  15.603 -0.2768  0.0199 -0.2059
48412W        W91325   4.435  17.469  28.222 -0.2180 -0.6997 -0.1358
48413W        W91326   4.220  28.327  21.962 -0.0858  0.1310  0.0611
48414W        W91327  28.334   9.554  15.892  0.2704 -0.0011 -0.1309
48415W        W91328  31.230  18.732  29.568  0.0553 -0.3220 -0.0229
48416W        W91329  32.929   6.007  20.737 -0.2838 -0.2153  0.1629
48417W        W91330  30.869   4.927  27.646  0.0049 -0.0124 -0.0437
48418W        W91331   2.098  10.766  19.817 -0.1199 -0.0516 -0.1971
48419W        W91332  25.802  10.351  14.605  0.1511 -0.1426 -0.0372
48420W        W91333  28.125   3.088   3.774  0.0865  0.0653 -0.3444
48421W        W91334  33.199   2.816   2.013  0.0304 -0.0140  0.1507
48422W        W91335  34.272  11.923  21.457  0.4313 -0.1805  0.2918
48423W        W91336   7.163  13.908  24.435  0.3936 -0.0765  0.1273
48424W        W91337   1.508   6.313  19.449  0.1468 -0.1081 -0.3027
48425W        W91338  28.454   8.291  16.631  0.0767 -0.1828  0.4255
48426W        W91339   0.144   7.340  24.280  0.2106  0.3208  0.1951
48427W        W91340  14.556   8.504  20.041  0.2886 -0.0401 -0.2215
48428W        W91341   2.880   6.578  25.957 -0.0918 -0.0345 -0.0714
48429W        W91342  27.397  22.175   2.845 -0.2775 -0.1887  0.1246
48430W        W91343  33.769   6.633  16.953  0.2001 -0.0376  0.3194
48431W        W91344  32.697   6.055  19.874  0.2438  0.1338 -0.1343
48432W        W91345  32.487  13.375  28.349  0.0162 -0.0679 -0.0760
48433W        W91346   5.287  12.516  19.830  0.3091 -0.0136  0.2073
48434W        W91347  29.439   4.699  28.313 -0.2832  0.1255  0.1272
48435W        W91348  32.623  14.847  28.960 -0.0714  0.1223  0.1242
48436W        W91349  12.488  14.330  24.207  0.0988  0.2021 -0.1470
48437W        W91350  25.908  22.792  22.191  0.0745  0.0876  0.2294
48438W        W91351  32.133   7.300  15.540  0.2101  0.4010 -0.3089
48439W        W91352   5.607  12.030  16.731 -0.2814  0.2868  0.2905
48440W        W91353  27.802   5.104  20.396 -0.6348 -0.0812  0.0926
48441W        W91354  31.455  14.790  15.247  0.0488  0.7479 -0.3039
48442W        W91355  30.462  12.613   2.531 -0.1741 -0.1317 -0.2953
48443W        W91356  31.575  15.250  18.355 -0.1377  0.2910  0.0152
48444W        W91357  24.884   5.030  17.345  0.0324 -0.2300 -0.1425
48445W        W91358  22.452   0.597  23.676 -0.5431 -0.0780  0.0046
48446W        W91359  30.406   9.806  15.383  0.1644 -0.3079  0.1098
48447W        W91360   0.854   8.720  22.055  0.4253  0.4229  0.0285
48448W        W91361   3.717  10.913  18.847  0.0315 -0.1660  0.2377
48449W        W91362   4.225  14.144  26.319  0.0550 -0.0975 -0.0155
48450W        W91363  33.333  20.619   1.112 -0.1843  0.0614  0.3383
48451W        W91364   0.806   5.294  21.588  0.0878  0.4853 -0.0229
48452W        W91365   1.786   4.604  18.573 -0.1998  0.0427 -0.0466
48453W        W91366   0.903  19.035  21.445 -0.2866 -0.1661 -0.2072
48454W        W91367   4.677  16.750  25.907  0.2976  0.0005  0.1800
48455W        W91368   8.085   7.254  18.992 -0.1766  0.1083  0.1832
48456W        W91369  12.051  33.549  24.707  0.0905 -0.1947 -0.1661
48457W        W91370  31.670  10.341  23.684 -0.1581 -0.3556  0.2227
48458W        W91371  33.935  10.232  20.271 -0.0235  0.0806  0.0122
48459W        W91372   5.862   0.985   4.380  0.2529  0.1460 -0.1650
48460W        W91373   3.558   4.222  27.943  0.2501  0.4260  0.1679
48461W        W91374   5.302  15.421   0.608 -0.2325  0.1379 -0.2509
48462W        W91375  29.122  23.099   0.366  0.0613  0.4418  0.1610
48463W        W91376  19.415  15.690  23.108  0.4127 -0.2193 -0.0021
48464W        W91377  25.203  13.961  24.834 -0.0518  0.0831  0.1676
48465W        W91378  24.530   8.010  28.682  0.1002 -0.2599  0.1424
48466W        W91379  28.405  29.272   4.078 -0.4446  0.1371 -0.1183
48467W        W91380   5.704   4.904  20.723 -0.1425 -0.1442  0.2531
48468W        W91381  24.274  11.458  23.569 -0.0381  0.2574  0.0084
48469W        W91382  33.721   6.165  19.985 -0.5082 -0.1656  0.0273
48470W        W91383  29.177   0.267   2.546  0.1183  0.1888 -0.3121
48471W        W91384   3.636  11.835  16.554  0.0390  0.0881 -0.0707
48472W        W91385   2.980  23.347  21.043  0.0861  0.2555  0.1608
48473W        W91386  31.164  10.465  17.461  0.0684 -0.1835  0.1299
48474W        W91387  30.802  13.123  20.808  0.1566  0.2979  0.3724
48475W        W91388   0.910   9.825  19.402  0.0559 -0.0727 -0.1505
48476W        W91389   2.753   4.970  23.679 -0.0964 -0.0082  0.0351
48477W        W91390   3.133  11.779  22.212  0.2245 -0.4481  0.4215
48478W        W91391   1.512  13.164  29.203 -0.0871  0.2412 -0.0812
48479W        W91392  18.321   7.287  19.080 -0.1205  0.0399  0.2668
48480W        W91393  32.698  15.907  14.833  0.2996  0.0459  0.1115
48481W        W91394   0.562  31.587  22.117  0.2503  0.0866 -0.0731
48482W        W91395  27.770  21.350  24.325  0.2241  0.2491 -0.4543
48483W        W91396  24.867  21.100  23.768  0.1434  0.2785 -0.2881
48484W        W91397  31.022  10.435  24.391  0.0278 -0.0713  0.0174
48485W        W91398  26.807  12.751  16.442  0.0162 -0.0809 -0.1537
48486W        W91399  32.329   9.817  28.548  0.1850  0.1702 -0.1009
48487W        W91400   5.551  18.613  29.174  0.4757 -0.1740 -0.2753
48488W        W91401   3.674   2.912  28.997 -0.1020 -0.0176  0.0923
48489W        W91402   1.049   0.943  15.540  0.0705  0.2433  0.1016
48490W        W91403   6.225  10.652  16.420 -0.3442 -0.2636  0.1203
48491W        W91404  24.745  12.145  21.809  0.1152 -0.0734  0.0081
48492W        W91405   6.104   4.977  25.263  0.0920  0.1344  0.1134
48493W        W91406  30.744   0.713  15.837  0.0595 -0.2718 -0.2704
48494W        W91407   0.270   6.577  18.484 -0.1906  0.1602 -0.2589
48495W        W91408  33.765   3.010   5.760 -0.0051  0.3110 -0.1605
48496W        W91409  31.531  10.764  20.229  0.0300 -0.0100  0.0765
48497W        W91410  15.454  10.354  17.112  0.1509  0.2063  0.2971
48498W        W91411  33.563  10.313   0.604  0.0030 -0.0685 -0.0439
48499W        W91412  10.108   4.588  23.554  0.3638  0.1090 -0.0196
48500W        W91413  27.912   9.227  16.889 -0.2168 -0.0068 -0.1469
48501W        W91414  31.637   2.628   2.976  0.4930  0.1373 -0.2353
48502W        W91415   7.998  10.602  17.288  0.1884  0.2468  0.0528
48503W        W91416  26.143  20.569  15.714 -0.1313  0.0114 -0.1989
48504W        W91417  28.405  15.327  22.437 -0.5034 -0.0375 -0.1534
48505W        W91418  21.423  31.632  20.993  0.1290  0.0876 -0.0797
48506W        W91419  27.920   9.866  25.704  0.1162 -0.0962  0.1956
48507W        W91420  25.772  11.313  28.699 -0.2620 -0.1199 -0.2451
48508W        W91421  33.733   7.589  20.231  0.1072  0.1737  0.1434
48509W        W91422   1.732   9.982  29.039 -0.0331 -0.0572 -0.2300
48510W        W91423   2.559   9.656   2.336  0.1228 -0.0909  0.0634
48511W        W91424  25.158   2.410  17.830 -0.1004  0.1630 -0.2087
48512W        W91425  32.645  14.685  14.834 -0.3388  0.0778 -0.0155
48513W        W91426  29.763  23.568  14.613  0.0654 -0.0071  0.1055
48514W        W91427  26.584   4.952  24.053  0.0066 -0.1563  0.1016
48515W        W91428  22.614   8.809  22.415  0.0073 -0.1783  0.3742
48516W        W91429  31.493  10.736  19.077 -0.0477  0.0433  0.0827
48517W        W91430  30.987   6.404  25.894 -0.0113 -0.2041  0.0107
48518W        W91431   8.221  13.312   2.274 -0.2103 -0.3724 -0.1673
48519W        W91432   5.263   7.403  26.303  0.3021 -0.0710  0.0631
48520W        W91433   9.736  16.987  22.063 -0.0475  0.0818 -0.3190
48521W        W91434  32.426  13.551  21.642 -0.1055  0.0566 -0.3647
48522W        W91435   3.199  24.430   1.039 -0.0044  0.1939  0.0038
48523W        W91436   3.035  12.870  22.218  0.0991 -0.0440  0.1340
48524W        W91437   4.967  13.016  23.504  0.2669 -0.0789 -0.0116
48525W        W91438  30.375   6.261  18.857 -0.1485  0.1486 -0.3943
48526W        W91439   1.537   9.224  21.313 -0.0272  0.0731  0.0638
48527W        W91440  23.771  16.650  19.308  0.1597  0.3763  0.0048
48528W        W91441  30.016  19.050   1.076 -0.0933 -0.2144 -0.0829
48529W        W91442   0.092  15.366   1.990  0.0475 -0.0016 -0.2864
48530W        W91443  19.964   6.481  16.044 -0.1516  0.1783 -0.1528
48531W        W91444  25.135  15.174   2.000  0.0681 -0.2610 -0.2083
48532W        W91445  34.214  16.916  15.776  0.1492  0.1173 -0.2551
48533W        W91446  27.668  15.166  29.679 -0.1934  0.0966 -0.5824
48534W        W91447  29.112  16.970  14.506 -0.3213 -0.0572  0.2843
48535W        W91448   1.989  12.386  24.063  0.1247 -0.1142  0.2669
48536W        W91449   0.498  10.138  18.348 -0.1099  0.2934 -0.0359
48537W        W91450   3.662  14.127  25.437  0.2348  0.0402 -0.2749
48538W        W91451  23.113  12.039  13.867 -0.1460 -0.1735  0.0475
48539W        W91452  27.153  20.170  17.622  0.1129  0.1219  0.0165
48540W        W91453  27.402   3.009  26.896 -0.3857  0.0859  0.0146
48541W        W91454   2.571   1.406  20.782  0.0017 -0.1687 -0.1382
48542W        W91455   6.402  15.353   2.353 -0.0559 -0.0839  0.1052
48543W        W91456   8.931   9.173  23.577  0.3958  0.0236 -0.1229
48544W        W91457   2.868   8.660  19.235 -0.0051  0.1381 -0.1672
48545W        W91458   2.115  25.729  28.020  0.1934 -0.0118 -0.0974
48546W        W91459   0.099  12.069  15.768 -0.0741 -0.0084 -0.1497
48547W        W91460   6.507   9.612   6.103 -0.0179  0.0731 -0.0211
48548W        W91461  21.712  11.572  16.729 -0.3748 -0.0805 -0.1953
48549W        W91462   7.700   3.684  13.395 -0.1040  0.2192  0.2596
48550W        W91463  30.531  33.036  26.378 -0.0084  0.1762  0.0598
48551W        W91464   7.096   8.155  23.137 -0.2084 -0.0285  0.3432
48552W        W91465   2.573   5.257  17.567 -0.1931  0.2602 -0.3036
48553W        W91466  10.971   9.410  24.737  0.3670  0.0380 -0.0587
48554W        W91467   9.581  12.673  28.035  0.0789 -0.0240 -0.1025
48555W        W91468  28.582  33.566  23.934 -0.0558 -0.1238 -0.2727
48556W        W91469   2.033   7.283  21.593 -0.1570  0.0692  0.0232
48557W        W91470   3.157  30.911  26.795 -0.0584  0.0623  0.0272
48558W        W91471  27.253   6.315  20.914 -0.0886  0.2415 -0.1407
48559W        W91472  19.153   6.016   6.181 -0.0929  0.1065 -0.2079
48560W        W91473  28.570   1.235  26.971 -0.2208 -0.0853  0.0606
48561W        W91474   7.736   8.823  29.302 -0.2165  0.3247 -0.0454
48562W        W91475   0.416  14.590  28.462 -0.1008  0.4318  0.0246
48563W        W91476   6.629   0.860   0.530 -0.0853 -0.1320  0.0343
48564W        W91477  25.374  13.918  18.327 -0.1824  0.0141  0.0208
48565W        W91478  27.453   9.177  17.613  0.0757  0.2471 -0.0738
48566W        W91479  30.818   9.602  25.808  0.2366 -0.2280  0.1884
48567W        W91480   3.989  10.740   9.037 -0.2262 -0.0852  0.3285
48568W        W91481   4.724  10.209  28.138 -0.0440  0.0774 -0.0804
48569W        W91482  17.649   5.247  14.911  0.1408  0.0887  0.2450
48570W        W91483   3.229   7.367  24.829 -0.1737  0.2372 -0.1214
48571W        W91484  30.508  15.936  25.654  0.1003 -0.1315 -0.0245
48572W        W91485  28.867  33.976  17.655 -0.4373  0.2948  0.1234
48573W        W91486  33.874   5.381  20.434  0.0615  0.0870  0.2170
48574W        W91487   1.924  18.620   2.556 -0.0551  0.0752  0.2024
48575W        W91488  24.774   1.292   0.440  0.0016  0.0701  0.2947
48576W        W91489  32.040   9.289  22.886  0.4260 -0.0126 -0.3362
48577W        W91490  33.181  10.639  27.180 -0.2558  0.1341 -0.0339
48578W        W91491   2.551   2.125  17.324  0.0897 -0.1238  0.0852
48579W        W91492   7.427   0.529  18.125 -0.4987 -0.1335  0.0297
48580W        W91493   6.600   9.047   1.256 -0.1435 -0.1358 -0.1052
48581W        W91494   6.811  33.595  23.512  0.1491 -0.1534  0.0324
48582W        W91495   2.250  20.175  25.310  0.1604  0.1269 -0.1569
48583W        W91496  30.479  33.538  17.298  0.1618  0.1584  0.1500
48584W        W91497  26.585  14.817  19.919 -0.2017 -0.1897 -0.1168
48585W        W91498  29.915  10.489   0.969  0.0571 -0.0607 -0.1485
48586W        W91499  33.905  12.143  14.869 -0.0581 -0.0384 -0.2134
48587W        W91500   0.230  16.257  15.411 -0.1831  0.2820 -0.3317
48588W        W91501  23.465  12.056   3.614 -0.1864 -0.1851 -0.0463
48589W        W91502  26.427  11.361   0.937  0.1209  0.5114 -0.0198
48590W        W91503  31.248  20.015  14.841  0.1473 -0.2947  0.0004
48591W        W91504  26.522   0.767  25.798 -0.1390 -0.1009  0.0374
48592W        W91505  27.195   5.784  28.897  0.0755 -0.3104 -0.1696
48593W        W91506   1.058  34.236  27.741 -0.1555  0.0270  0.3802
48594W        W91507  29.706   7.199  25.167  0.1340 -0.1355  0.0683
48595W        W91508  22.411  11.773  22.554 -0.0523 -0.3669  0.0437
48596W        W91509   1.006   2.845  23.351 -0.3637 -0.1121  0.1932
48597W        W91510  30.014  13.805  20.549 -0.0891 -0.2080 -0.0243
48598W        W91511  10.393   3.619  23.606  0.1111  0.1668  0.0000
48599W        W91512   3.207  13.597  22.897  0.1565  0.0902 -0.2147
48600W        W91513   5.970  12.431  16.773  0.0143 -0.1413 -0.2347
48601W        W91514   3.482   9.194  24.435  0.2597 -0.1456 -0.1338
48602W        W91515   1.434  13.396  28.264 -0.2090 -0.0312  0.2154
48603W        W91516   0.587  20.675  21.173 -0.0621 -0.2289 -0.0757
48604W        W91517  24.461  13.806  28.511 -0.1652 -0.0143 -0.1222
48605W        W91518  33.457   9.241  19.939 -0.0313 -0.1937 -0.1607
48606W        W91519  16.396   8.910  26.055  0.0073 -0.1193 -0.3353
48607W        W91520  16.256   9.755  24.329  0.0701  0.2140 -0.2020
48608W        W91521  33.749  14.673  21.126 -0.0720  0.1402 -0.2926
48609W        W91522  20.903   3.622  24.545  0.2503 -0.2732  0.1379
48610W        W91523  30.723  18.420  23.241  0.2763  0.0605  0.1453
48611W        W91524  21.674   8.353  23.669  0.1441  0.4579 -0.2114
48612W        W91525  28.785   7.875  17.667 -0.0589 -0.0376  0.0243
48613W        W91526  22.996   8.266  24.660  0.0375 -0.0559 -0.0601
48614W        W91527   4.837   9.681  28.064 -0.4192 -0.0527 -0.2337
48615W        W91528  16.487   8.867  21.102 -0.3530  0.0284  0.0342
48616W        W91529  28.866   7.911   7.336  0.1491  0.2335 -0.1157
48617W        W91530   3.801   8.242  23.610 -0.4986 -0.0267  0.0800
48618W        W91531  33.140  15.978  21.321  0.1682 -0.0697 -0.0200
48619W        W91532   1.936   8.837  21.770 -0.4011  0.3482  0.1978
48620W        W91533  31.087  32.160  21.692 -0.0141  0.1444 -0.0553
48621W        W91534  28.041   0.951  21.469 -0.0235 -0.1088 -0.4293
48622W        W91535  31.587  11.515   6.675 -0.2117 -0.0794  0.1846
48623W        W91536  27.983  13.947  17.831 -0.2803 -0.1125  0.1587
48624W        W91537  16.958   8.174  23.563 -0.0718 -0.0263  0.1061
48625W        W91538  29.264  10.514  22.361 -0.2899  0.0322  0.0014
48626W        W91539   5.361   7.335   1.910  0.1013 -0.0369 -0.0306
48627W        W91540   2.601   8.132  29.354  0.2108 -0.3065  0.0379
48628W        W91541  27.996   6.617  29.063 -0.0204 -0.0247  0.0049
48629W        W91542  33.842   9.415  18.576 -0.0042 -0.1668  0.4959
48630W        W91543  30.864   3.867  17.186  0.0746  0.2161  0.0395
48631W        W91544   4.161  16.428   0.192 -0.0869  0.0713 -0.0556
48632W        W91545  32.865  10.083  14.961  0.1650  0.2366 -0.0717
48633W        W91546  34.111  14.516  21.406 -0.2686  0.1430 -0.2996
48634W        W91547  29.296   4.231  22.610 -0.0601 -0.3303 -0.2136
48635W        W91548   9.884   9.352   0.504 -0.1894 -0.4257  0.0172
48636W        W91549  20.455  11.490  22.606 -0.2076 -0.2040  0.1186
48637W        W91550  30.000   3.202  29.306 -0.1416  0.1704 -0.1895
48638W        W91551  32.712   4.766  16.589 -0.2234 -0.0737 -0.0915
48639W        W91552  33.545   8.208  22.378 -0.0508  0.2629  0.0548
48640W        W91553  14.064   8.174  26.377  0.1724 -0.0429  0.0501
48641W        W91554   7.891   8.286  26.040  0.1280  0.2521 -0.1265
48642W        W91555  33.198   9.883  28.199  0.0919 -0.0982 -0.3025
48643W        W91556   8.118   2.808  20.636 -0.0103 -0.1226 -0.0244
48644W        W91557  26.466  10.535  20.068 -0.0271 -0.3873  0.1981
48645W        W91558   8.918  20.521  15.209  0.1560 -0.2180 -0.0048
48646W        W91559   5.135   7.467  24.624 -0.1691 -0.0914 -0.2542
48647W        W91560  28.387  10.386  26.109 -0.1286 -0.0467 -0.3560
48648W        W91561  24.000  13.401  19.297 -0.5601  0.1614  0.0599
48649W        W91562  32.004  10.426   1.507  0.3068 -0.2431  0.3231
48650W        W91563   1.028  19.803  27.445  0.1273 -0.0929 -0.0464
48651W        W91564  28.393  10.722  29.660 -0.0342  0.2159  0.2378
48652W        W91565  25.560   2.463  27.793 -0.0556 -0.2507  0.3315
48653W        W91566  33.551  11.212  20.090 -0.3635  0.1273 -0.0708
48654W        W91567  24.528   6.198  25.054 -0.0523  0.0497  0.1085
48655W        W91568  15.607   2.322   3.381 -0.1391  0.0870 -0.0115
48656W        W91569   8.805  33.852   0.568 -0.2163 -0.0679  0.0623
48657W        W91570   0.459  14.049  21.342  0.2320 -0.2588  0.1796
48658W        W91571  30.286  15.459  24.729  0.2449  0.0179 -0.1017
48659W        W91572  28.737   4.305  16.048  0.2921  0.0223 -0.1269
48660W        W91573   4.745  14.506  14.528  0.0695 -0.1801 -0.2213
48661W        W91574  26.125  19.589  26.828  0.2407 -0.5645  0.0927
48662W        W91575  31.222   3.118  24.718  0.0206  0.2077 -0.0816
48663W        W91576  31.988  13.448  21.203 -0.0505  0.2612  0.0056
48664W        W91577  19.631  11.010   8.379 -0.2854  0.0343  0.2913
48665W        W91578  24.061   8.327  25.476  0.4106  0.2806  0.0810
48666W        W91579  12.044   9.459  25.165 -0.1449  0.0814 -0.1859
48667W        W91580  24.182   5.606   0.056  0.0880 -0.2028  0.0997
48668W        W91581  24.667   5.260  27.158 -0.0232 -0.0592 -0.2205
48669W        W91582  31.165   8.383  21.236 -0.2318  0.3509  0.2297
48670W        W91583   3.852   9.368  18.630 -0.0468 -0.2392  0.1595
48671W        W91584  30.353  19.593  26.975 -0.1873  0.1380 -0.2652
48672W        W91585  32.413  10.857  18.982  0.1244 -0.1892 -0.1171
48673W        W91586  31.716   0.609   3.060  0.1132  0.1504 -0.1801
48674W        W91587  31.992  15.781  20.166 -0.1227  0.1193  0.0751
48675W        W91588  31.537  15.850  21.715  0.3119  0.1665 -0.1241
48676W        W91589  25.838   0.842   5.264 -0.0679 -0.0983 -0.1316
48677W        W91590   1.336   3.930  26.323 -0.0101  0.0385  0.2116
48678W        W91591  32.872  16.845  27.673 -0.1949  0.2269 -0.1157
48679W        W91592  32.413   1.990  18.810  0.2157  0.2794 -0.2813
48680W        W91593   0.916  10.263  24.310  0.2063 -0.1304 -0.1016
48681W        W91594   2.124  12.699   2.109 -0.0288 -0.1271 -0.1892
48682W        W91595  25.611  24.072  22.159 -0.1357  0.1349  0.4204
48683W        W91596   8.631  13.700  21.648  0.0418 -0.2014 -0.1889
48684W        W91597  29.381  16.258  27.680 -0.2888  0.2243  0.0718
48685W        W91598   1.900  14.481  16.588  0.1672 -0.0383  0.0260
48686W        W91599  31.948  14.980  22.876 -0.0031  0.2119 -0.3623
48687W        W91600   3.422  16.487  25.574  0.1255  0.0546  0.0518
48688W        W91601  23.733  11.790   0.250  0.4873 -0.1805  0.0939
48689W        W91602   2.789  10.130  26.662  0.3532 -0.2217 -0.2648
48690W        W91603  23.127  14.218  20.495  0.0463 -0.0768  0.1037
48691W        W91604  19.313  16.581  29.143  0.2207  0.0321  0.1117
48692W        W91605   6.621   6.444  21.051  0.1985  0.0115  0.0124
48693W        W91606  28.068  17.708  21.470 -0.2058  0.2613 -0.3375
48694W        W91607   0.778   2.659  26.231 -0.1500 -0.2219 -0.1375
48695W        W91608   0.090   8.246  24.523  0.0013 -0.0439  0.0294
48696W        W91609   5.614   6.963   0.100 -0.0001 -0.0509 -0.0906
48697W        W91610  24.522  12.416   0.027 -0.1821  0.1303  0.2215
48698W        W91611  11.015   5.164  28.074 -0.0787 -0.1119  0.1804
48699W        W91612   4.709  13.724   0.320  0.0288 -0.0620  0.0708
48700W        W91613  30.417   9.110  29.105  0.5939 -0.1271 -0.2030
48701W        W91614  32.829   3.728   5.032 -0.0081  0.2455 -0.0833
48702W        W91615  33.298   8.630  27.425 -0.1567  0.1338 -0.2217
48703W        W91616  31.982   1.700   1.237 -0.1000 -0.0802 -0.0989
48704W        W91617   4.718   9.619  21.320 -0.2252 -0.1134  0.0201
48705W        W91618   0.850  15.551   5.615 -0.1642 -0.2104 -0.3658
48706W        W91619  26.893   1.376  26.428 -0.0218  0.2331  0.1133
48707W        W91620  31.157  21.553  25.131  0.0255  0.0310  0.0460
48708W        W91621   2.776   5.318  24.652 -0.1945  0.1025  0.0708
48709W        W91622  32.541  17.645   5.291 -0.2420 -0.0731 -0.0917
48710W        W91623  30.690   9.877   6.961  0.0587 -0.3074  0.3387
48711W        W91624   1.292  17.634  21.171 -0.0877  0.0427  0.2350
48712W        W91625   6.356  13.631  24.152  0.0906  0.0453 -0.1313
48713W        W91626  29.856   3.370  22.450 -0.0674  0.1817  0.1551
48714W        W91627  30.872   8.922  24.071 -0.0376 -0.3345 -0.0178
48715W        W91628   1.467  11.062   1.442  0.4053 -0.0190  0.2252
48716W        W91629   8.970  17.150  20.114  0.2532 -0.0087 -0.3617
48717W        W91630  33.127   0.729   8.143 -0.3543 -0.0103 -0.2678
48718W        W91631   7.573   8.350  25.631 -0.3361 -0.0467  0.0655
48719W        W91632   0.315   0.578   7.345  0.1359 -0.0949  0.0166
48720W        W91633  31.786  31.841  15.529 -0.2120 -0.2214 -0.3783
48721W        W91634  28.624  16.213   1.782 -0.0636  0.3459 -0.0743
48722W        W91635   2.074   5.673  19.957 -0.0914 -0.1069  0.3080
48723W        W91636  28.309  12.680   1.145  0.2309 -0.0176 -0.0535
48724W        W91637  15.516   4.930  20.630  0.2089 -0.5183  0.1494
48725W        W91638   0.470   1.451  20.446 -0.0578  0.0214  0.0065
48726W        W91639  31.375  17.549   8.977 -0.0306 -0.1679  0.0916
48727W        W91640  33.763  13.837  21.835 -0.1930 -0.1622  0.2687
48728W        W91641  30.051  11.992   5.259  0.0067 -0.0985  0.0649
48729W        W91642   6.467  12.789  20.053  0.2653 -0.0139  0.2316
48730W        W91643  32.603  29.715   6.513  0.3866  0.3060 -0.0923
48731W        W91644   1.042  18.436  26.081  0.0260 -0.1486  0.0181
48732W        W91645   8.759  12.251   5.243  0.0418  0.0752 -0.0862
48733W        W91646  33.146   9.443  19.583  0.1416  0.1148 -0.3941
48734W        W91647  32.352   5.642  23.834  0.1461 -0.1458 -0.4885
48735W        W91648   2.742  13.021  19.805  0.2143 -0.1771  0.1465
48736W        W91649  12.354   4.436  17.642  0.3260 -0.0253 -0.0491
48737W        W91650   2.584   7.112  17.694  0.2039  0.0060 -0.3222
48738W        W91651  27.852   9.329   2.790  0.0375  0.2539 -0.0591
48739W        W91652   4.091   3.114  26.639  0.0141 -0.0245 -0.1949
48740W        W91653   3.316  10.831  17.671 -0.1185  0.1572 -0.0843
48741W        W91654  24.912   7.281  24.747 -0.2185 -0.0390 -0.0325
48742W        W91655   4.831   8.344   1.083 -0.0632 -0.1317  0.0103
48743W        W91656  23.371   8.298  21.846  0.0058 -0.1977 -0.0523
48744W        W91657  23.216  16.305  27.286  0.3765 -0.1076  0.2587
48745W        W91658  34.482   8.530  25.558 -0.0215 -0.1933 -0.1154
48746W        W91659   0.221   6.032  21.331 -0.0558 -0.0994  0.0373
48747W        W91660  11.680   7.478  19.417  0.2737  0.0847 -0.0849
48748W        W91661  24.722  17.014  28.229 -0.1398  0.1061  0.4774
48749W        W91662  31.980   2.426  18.742  0.0575 -0.4397 -0.3766
48750W        W91663  24.703  14.347  23.550 -0.3096 -0.4155 -0.3110
48751W        W91664  30.969  10.024   1.798  0.1595  0.3625 -0.0679
48752W        W91665   9.756  15.019   2.871  0.0915  0.1587  0.0013
48753W        W91666  21.766   0.519  16.558  0.1120  0.2146  0.1303
48754W        W91667  30.495   5.252  17.736  0.0879 -0.0040  0.2395
48755W        W91668  33.872  10.439   2.035 -0.2575  0.1435 -0.1611
48756W        W91669  26.389   7.330  16.146 -0.2157 -0.0558 -0.0086
48757W        W91670  28.455  13.118  25.963 -0.0058  0.0573  0.0028
48758W        W91671  24.911  13.994   5.926  0.2364  0.0462 -0.1545
48759W        W91672  23.730   8.321  20.430  0.2733  0.2116  0.1233
48760W        W91673  28.626   8.298   4.782  0.0254 -0.2331  0.1045
48761W        W91674  10.025   9.913  26.236  0.0476  0.0533  0.0861
48762W        W91675   2.976   5.284   1.301  0.4098 -0.5333  0.1024
48763W        W91676   0.996  20.667  22.187 -0.1995 -0.1152  0.2385
48764W        W91677   0.752  12.076  22.032 -0.0208  0.3524  0.4044
48765W        W91678  24.697  29.749  25.055 -0.0057  0.1039  0.1343
48766W        W91679   5.281  13.729   4.175  0.1001 -0.0403 -0.2647
48767W        W91680  24.217  30.107   4.522 -0.1828  0.2348  0.0121
48768W        W91681   5.483   9.276   1.909  0.1331  0.1608 -0.1945
48769W        W91682  28.171  24.606  29.643  0.0354 -0.2099  0.4869
48770W        W91683  10.879  32.543  25.368 -0.0545 -0.0123  0.2553
48771W        W91684  33.776  11.086  24.215  0.0837  0.1573  0.1864
48772W        W91685  31.524  14.150  28.040  0.0405  0.1501  0.0642
48773W        W91686  11.885   4.973  20.936 -0.0473  0.1960 -0.2680
48774W        W91687   0.043  17.454  29.324 -0.0321 -0.2742 -0.2522
48775W        W91688   6.903   2.125  28.876  0.0002 -0.2658 -0.0875
48776W        W91689  12.392   8.014  29.260 -0.1070  0.1432 -0.3031
48777W        W91690  30.256  12.571  26.260 -0.0262 -0.2075  0.0863
48778W        W91691  32.707   5.086   0.380  0.0190  0.0317 -0.1924
48779W        W91692   2.790   1.018  19.719 -0.2303 -0.0849  0.1303
48780W        W91693  25.907  10.310  15.688  0.2239 -0.1361 -0.0025
48781W        W91694  27.443   4.809  20.641 -0.0587 -0.1498  0.1744
48782W        W91695  29.382  29.320   0.520  0.0135  0.0179  0.0297
48783W        W91696  30.086   8.860  16.803 -0.0270 -0.0062  0.4307
48784W        W91697  33.555  17.264   1.005 -0.0760  0.0603  0.1144
48785W        W91698  33.920   6.896  22.122  0.1010  0.0392  0.1875
48786W        W91699  33.360  16.258   4.232  0.3110 -0.5013 -0.2473
48787W        W91700   8.235  33.606  23.268  0.2784 -0.0717  0.1275
48788W        W91701  28.665   5.364   7.933 -0.1179  0.1797  0.0055
48789W        W91702  12.357  13.465  29.331 -0.2378 -0.1909  0.3038
48790W        W91703  27.417  15.831  26.152 -0.0105 -0.2943 -0.0401
48791W        W91704  28.294   5.667  28.080 -0.5010  0.3621 -0.1079
48792W        W91705  28.557   8.239   5.952 -0.0474  0.0565 -0.1652
48793W        W91706   7.886   9.437   2.448 -0.0948  0.5199  0.2727
48794W        W91707   7.088  20.036  28.046 -0.1538  0.3858  0.1481
48795W        W91708  15.923   7.193  27.252 -0.0602  0.0475  0.0551
48796W        W91709  24.354  16.155  25.446  0.1454 -0.0453 -0.0742
48797W        W91710  28.472  10.872  28.450  0.1760 -0.2526  0.3311
48798W        W91711  32.083   2.518  16.432 -0.3406  0.0356  0.1881
48799W        W91712  29.569   9.366   6.930  0.3102 -0.1880  0.0768
48800W        W91713  29.255  14.464  23.938 -0.1087 -0.0775 -0.0487
48801W        W91714  23.165  18.855  22.557  0.3130 -0.1198 -0.1603
48802W        W91715   2.609  11.149  25.960  0.1905 -0.2254  0.1594
48803W        W91716  27.367  21.695  22.641  0.1077 -0.0098  0.1410
48804W        W91717  33.767   9.414  23.466 -0.1517  0.3410  0.0905
48805W        W91718   2.720  11.646   1.182 -0.0033  0.1291 -0.3483
48806W        W91719  24.393  18.218  24.620 -0.1741  0.0723 -0.3787
48807W        W91720   3.250  15.688  19.666 -0.0334 -0.3162 -0.2559
48808W        W91721  12.442  10.003  27.085 -0.4000  0.1587  0.0144
48809W        W91722   1.834   2.971   3.935  0.1850  0.0605  0.2607
48810W        W91723  25.012   8.676  13.895  0.2731  0.0825 -0.0348
48811W        W91724  22.624  14.673  28.648 -0.3097 -0.1224  0.0121
48812W        W91725  32.559  10.594   2.212  0.0340 -0.0305  0.2679
48813W        W91726  31.015  10.741  20.156  0.3591  0.2009 -0.1266
48814W        W91727   0.834   1.558  26.077  0.0314 -0.2683 -0.1010
48815W        W91728   7.008  34.345   8.024 -0.3101  0.0686 -0.0755
48816W        W91729   5.930   8.490  23.736  0.1766 -0.1210  0.0269
48817W        W91730  30.715   1.058  26.101  0.0688  0.0100 -0.1727
48818W        W91731  33.610  13.417  19.261 -0.0652  0.3531 -0.2142
48819W        W91732  33.150  21.918   2.115  0.3535  0.1196  0.0712
48820W        W91733  18.162  12.966  23.022  0.0703  0.0661  0.0463
48821W        W91734  30.014  10.505  19.495  0.1346  0.1200  0.0095
48822W        W91735  27.321  13.334  24.214 -0.0585  0.1427 -0.3367
48823W        W91736  32.909   9.598   3.459  0.1012  0.1112  0.0382
48824W        W91737  14.890  12.231  29.308  0.2069  0.1988  0.1503
48825W        W91738  16.225   7.583  24.835  0.2109  0.1040 -0.2942
48826W        W91739  33.141   4.912  28.669  0.1895  0.2923  0.3548
48827W        W91740  26.883   7.877  14.133  0.0381  0.0404 -0.2673
48828W        W91741   0.799   8.441  17.968  0.0137  0.0608 -0.1049
48829W        W91742   4.508  10.070  27.068  0.1068 -0.0875 -0.1615
48830W        W91743  29.873   6.890   0.355 -0.2572  0.1778  0.0030
48831W        W91744   4.233   3.344  19.107 -0.1892  0.2165  0.1541
48832W        W91745  29.541   3.485  16.721  0.3784  0.1491 -0.1282
48833W        W91746  21.275   8.219  26.582  0.0990 -0.1569  0.0334
48834W        W91747  20.682   5.149  27.840  0.1170  0.2835 -0.1297
48835W        W91748  28.794   6.960  26.094 -0.1800 -0.1789  0.3172
48836W        W91749  33.657  31.226  27.514  0.1427  0.0937 -0.2065
48837W        W91750   3.146   8.164  28.201  0.0582 -0.0875  0.2417
48838W        W91751   0.240  20.628  21.574 -0.0497  0.3758  0.3689
48839W        W91752   0.684  10.163   1.374 -0.3372 -0.0258  0.1483
48840W        W91753   4.667   6.584  17.805  0.1898  0.1814 -0.3339
48841W        W91754   1.242  17.517   1.546  0.2845  0.2301 -0.0888
48842W        W91755  27.030  14.039  27.290 -0.0500  0.0425  0.0783
48843W        W91756   8.917   9.098   5.569 -0.0899 -0.0186 -0.3171
48844W        W91757  26.853  18.259  19.631 -0.1973  0.0109 -0.1851
48845W        W91758  27.865  23.163  16.697 -0.0398 -0.1238  0.0512
48846W        W91759   3.055   8.196  19.489  0.0420 -0.0456  0.0700
48847W        W91760   2.190  15.242   5.360  0.1323  0.0048  0.2799
48848W        W91761  30.455  10.480   3.405  0.0739  0.1993 -0.1088
48849W        W91762  32.593  11.059  22.893 -0.0800 -0.2978  0.2928
48850W        W91763  31.848   8.203   1.060  0.0070  0.2683  0.2307
48851W        W91764  31.025   7.530  28.994 -0.4760 -0.1280  0.3149
48852W        W91765  12.163   3.337  28.796  0.4436  0.3013  0.0474
48853W        W91766   8.949   8.893  22.267  0.0791  0.1357 -0.1718
48854W        W91767   2.179  10.982  25.600 -0.2353 -0.1592 -0.1355
48855W        W91768   1.082  11.875  16.547 -0.3046 -0.0067  0.1430
48856W        W91769   6.029   4.154  21.312  0.1168  0.1402  0.0054
48857W        W91770  29.698  13.743  20.925 -0.0738  0.2059 -0.1244
48858W        W91771  33.813  10.210   7.220  0.0604  0.4783 -0.5441
48859W        W91772   2.638  31.696   4.769  0.0424 -0.0811  0.2331
48860W        W91773   4.768  12.963   3.834  0.2738 -0.0013  0.0428
48861W        W91774  29.176   2.419  27.163  0.3924  0.2576 -0.1033
48862W        W91775   3.294  12.390  29.332  0.0858  0.0454  0.0245
48863W        W91776  23.663   5.827   6.948 -0.0644  0.0329 -0.1308
48864W        W91777  28.188  14.896  26.484 -0.1811  0.0548 -0.1253
48865W        W91778   3.639  11.706  18.788  0.2201  0.3148 -0.2692
48866W        W91779  29.787  19.419  25.049  0.1329 -0.1152 -0.2640
48867W        W91780  30.286   3.973  23.241 -0.0032  0.2779 -0.2344
48868W        W91781   7.320  17.007  17.093 -0.0445 -0.1809  0.3084
48869W        W91782   4.470  12.432  23.719 -0.1772  0.0051 -0.2041
48870W        W91783   3.599  20.422  23.320 -0.1113 -0.1315  0.1595
48871W        W91784   0.756  14.927  29.277 -0.0695  0.0794  0.1716
48872W        W91785  26.626   8.960  10.148  0.0606  0.1885  0.1526
48873W        W91786  16.311  12.046  19.264  0.0707 -0.1806 -0.2160
48874W        W91787  28.315   5.813   5.333 -0.2020 -0.1738  0.3392
48875W        W91788   1.691  16.533   3.829 -0.1314  0.0387 -0.0461
48876W        W91789   3.864  14.428  22.306  0.3623  0.1012  0.3565
48877W        W91790   2.898   6.202  26.799  0.0985 -0.1269  0.1905
48878W        W91791  28.522  15.326   5.085 -0.1485  0.0282  0.0683
48879W        W91792   5.444  13.403  18.531 -0.2489  0.2283 -0.0975
48880W        W91793  30.090  17.603  27.856  0.0599 -0.0926  0.3685
48881W        W91794   5.761  10.491  22.578  0.3102  0.1530  0.3833
48882W        W91795  32.684   2.308   2.821 -0.0121 -0.0641  0.1192
48883W        W91796  33.556   5.453  16.398  0.3298  0.1938  0.1659
48884W        W91797  31.762  12.529  24.895  0.1902 -0.0466  0.1894
48885W        W91798   2.502   1.730  25.617  0.1809  0.1556  0.0884
48886W        W91799  31.722  12.031   1.294  0.1582 -0.4229  0.3942
48887W        W91800  14.339  32.707  28.168  0.3623  0.0134  0.0330
48888W        W91801   6.996  15.122  26.869 -0.2218  0.3899 -0.0120
48889W        W91802  22.248  16.305  25.739 -0.1702  0.4410  0.0015
48890W        W91803  27.968   1.881   1.357 -0.0921 -0.1878  0.0204
48891W        W91804  31.704   7.405   5.835 -0.0231  0.0238 -0.1529
48892W        W91805  24.659  10.967  24.168 -0.1501 -0.1379  0.0644
48893W        W91806  34.107  12.251   5.368  0.0402 -0.2066 -0.3906
48894W        W91807  21.682  12.303  25.909  0.0477  0.1048 -0.2309
48895W        W91808  16.518   8.422  29.375  0.0845  0.5711  0.0815
48896W        W91809  11.079  29.078   6.274  0.0941  0.2797  0.2901
48897W        W91810  32.705  11.699   2.927  0.0225  0.0515 -0.0868
48898W        W91811  28.967  10.508  20.724  0.2513  0.1690 -0.3216
48899W        W91812   5.953  13.566  16.304 -0.0262  0.1241 -0.1099
48900W        W91813   0.426  13.224   0.293 -0.1729 -0.0651 -0.1707
48901W        W91814   5.129   2.104  18.309 -0.0323  0.1177 -0.4562
48902W        W91815   1.347  20.616   0.850  0.2428  0.3543 -0.2609
48903W        W91816  21.667   5.524   2.514 -0.0291  0.2231  0.0530
48904W        W91817  29.646  16.415   6.415 -0.2415  0.0752 -0.3262
48905W        W91818   5.311   6.317  27.393  0.1207  0.0831  0.0886
48906W        W91819   2.456   3.216  23.373  0.1557 -0.0993 -0.0027
48907W        W91820   0.711   4.792   5.365  0.0904  0.3074  0.1185
48908W        W91821   6.298   8.341  24.542 -0.0902 -0.2849 -0.0951
48909W        W91822  28.625  13.085  27.147  0.0955 -0.2058  0.0040
48910W        W91823  29.900  10.956  23.511  0.4349  0.3740 -0.1299
48911W        W91824  34.359   3.347  28.968 -0.1467  0.2546 -0.1096
48912W        W91825  32.721  17.704   6.694  0.1001  0.2427  0.2479
48913W        W91826  32.089  21.041   2.259  0.0041 -0.0012 -0.0899
48914W        W91827   4.827   8.419   5.935 -0.2056 -0.4662 -0.0794
48915W        W91828  26.413   2.438  25.414  0.5381  0.2893  0.0768
48916W        W91829  33.328  16.406  29.749  0.1656  0.0933  0.0492
48917W        W91830   2.306  14.387   5.003 -0.2138  0.0262  0.0001
48918W        W91831   6.492  34.012  24.237  0.3472  0.1656 -0.0206
48919W        W91832   7.135  26.791  23.306 -0.2354  0.0595  0.2093
48920W        W91833  30.706   7.860  14.981 -0.0511  0.1001 -0.0224
48921W        W91834   3.103   2.028  24.090 -0.0947 -0.3239 -0.2455
48922W        W91835   3.133   0.310  29.230  0.0993  0.2445 -0.0511
48923W        W91836  26.850  15.887   2.567 -0.2658 -0.0572  0.2053
48924W        W91837  18.415   6.145   7.128  0.1198 -0.0608 -0.0652
48925W        W91838  24.770   3.349  24.925  0.1344  0.0787 -0.2727
48926W        W91839   3.363  16.733  16.235 -0.1532 -0.0160 -0.0632
48927W        W91840  12.663  15.464  21.331  0.0084  0.2098  0.3097
48928W        W91841   7.458  15.732  13.606  0.3776 -0.1479  0.1118
48929W        W91842   0.812  18.748  23.992  0.1035 -0.2779  0.3985
48930W        W91843   4.950   8.203  17.433 -0.2829 -0.0689 -0.1160
48931W        W91844  30.485  13.366  24.847  0.0451  0.0763 -0.4309
48932W        W91845   0.512  13.295  20.189  0.0155 -0.0844 -0.1644
48933W        W91846  27.736  13.763  23.278 -0.1547  0.1887  0.1311
48934W        W91847   3.475  21.937  23.156  0.0283 -0.1009 -0.0995
48935W        W91848  30.175  10.678  20.542  0.0061  0.3319 -0.0481
48936W        W91849  33.737  11.467  19.240  0.1882 -0.0460  0.0998
48937W        W91850   0.512  14.297  21.832 -0.0948  0.1589 -0.2454
48938W        W91851   3.499  15.240  15.346 -0.2383 -0.1944  0.0084
48939W        W91852   2.141   9.697  16.634 -0.1212  0.1569  0.2375
48940W        W91853   0.110  16.175  20.687  0.0213 -0.2744  0.1766
48941W        W91854  29.767   7.068  21.726 -0.0898  0.0141  0.2402
48942W        W91855  12.865  20.613  19.966 -0.0822 -0.0032  0.1884
48943W        W91856   7.722  33.260  23.374 -0.0142 -0.1826  0.2289
48944W        W91857  34.194  14.743  14.467 -0.2926 -0.1517 -0.0827
48945W        W91858   4.467  28.217  21.540  0.1732 -0.1179  0.1927
48946W        W91859  32.167  25.798  14.556 -0.0882  0.0172 -0.0258
48947W        W91860  30.503  11.433  20.807 -0.0824  0.0363 -0.0926
48948W        W91861  27.323  21.584  17.024  0.0877  0.2921  0.2286
48949W        W91862  32.066  18.853  20.487  0.1327 -0.2284 -0.2044
48950W        W91863  29.401  21.208  14.914 -0.3266 -0.0920  0.0009
48951W        W91864  23.545  12.814  20.490  0.0117  0.0894  0.1496
48952W        W91865  32.224  13.445  19.946 -0.1704 -0.1947 -0.1542
48953W        W91866   0.428  31.883  15.357  0.2454  0.0440  0.2213
48954W        W91867  26.415  25.158  15.347  0.0589  0.1562 -0.1854
48955W        W91868  24.198  15.538  20.532  0.1565  0.1159 -0.1926
48956W        W91869   4.913   8.995  20.493 -0.1005  0.0960  0.0591
48957W        W91870   4.175  22.986  23.805 -0.0379  0.0219  0.2241
48958W        W91871   2.545  13.954  17.017 -0.0905 -0.3203  0.1723
48959W        W91872   2.764  13.452  14.326  0.2038 -0.1083  0.0017
48960W        W91873  29.381  13.423  21.819  0.0921  0.0961  0.0085
48961W        W91874  30.936  19.153  20.562 -0.0020  0.3040 -0.3237
48962W        W91875  23.394  26.361  26.542 -0.0892  0.2053  0.3751
48963W        W91876  32.952  16.149  18.785  0.0642 -0.0961  0.2531
48964W        W91877  23.561  10.338  13.049  0.5012 -0.1114 -0.2544
48965W        W91878  33.688  16.582  18.783  0.1093 -0.1399  0.0098
48966W        W91879  27.070   9.923  15.218  0.0012  0.1281  0.2906
48967W        W91880   0.342   9.058  17.527  0.0558 -0.1696  0.1530
48968W        W91881   0.556   9.138  18.930 -0.0281 -0.1702 -0.2136
48969W        W91882  27.194   9.239  22.716 -0.0323  0.2313  0.1982
48970W        W91883  30.094  11.094  15.381 -0.1952  0.0819 -0.0961
48971W        W91884   6.464  17.254  16.430  0.2114 -0.0545 -0.2051
48972W        W91885  28.541  13.362  19.411 -0.0406 -0.0310  0.3720
48973W        W91886  34.021  14.423  14.120  0.1679  0.0591 -0.2707
48974W        W91887   0.150   9.389  20.763 -0.0429 -0.2073  0.0796
48975W        W91888  29.516  26.579  26.269  0.0276 -0.2469  0.1804
48976W        W91889  27.088  11.514   0.006 -0.1354  0.1016 -0.0615
48977W        W91890  25.700  17.403  23.338 -0.1431 -0.0190 -0.2168
48978W        W91891  17.749  18.664  14.576 -0.0307  0.0914  0.1342
48979W        W91892   6.813  12.084  26.428 -0.1951  0.1048  0.2405
48980W        W91893  10.785  11.337  28.448  0.0385  0.0052 -0.0511
48981W        W91894  33.077  15.534  16.434 -0.1789 -0.1210  0.1962
48982W        W91895  22.847  13.435  18.398 -0.0060  0.0226  0.0473
48983W        W91896  24.041  13.650  18.365  0.3148  0.0258  0.2760
48984W        W91897  27.520  10.174  15.134 -0.0852  0.1555 -0.4580
48985W        W91898  25.778  14.293  26.938  0.2407  0.2231 -0.0096
48986W        W91899  26.606   8.029  17.878  0.1886 -0.4626  0.0505
48987W        W91900   0.791  14.066  20.352 -0.0077  0.7868 -0.2671
48988W        W91901  27.916  14.916  19.941 -0.2494  0.0493 -0.1811
48989W        W91902   1.504  14.619  14.126  0.2631  0.2630  0.0641
48990W        W91903  32.729  12.601  17.851  0.2469  0.1982  0.1059
48991W        W91904  32.907  18.141  25.659 -0.1772  0.0581 -0.1131
48992W        W91905  10.148   4.008  17.305  0.0495 -0.0358 -0.2370
48993W        W91906  28.641  19.613  19.314  0.0325 -0.4033  0.0671
48994W        W91907   0.360  20.411  14.655 -0.1803  0.1996  0.0775
48995W        W91908   1.347  17.430  17.090 -0.0683  0.2349 -0.0653
48996W        W91909  11.962   5.547  23.791 -0.1227  0.1653 -0.0474
48997W        W91910  24.986  13.509  19.047 -0.1754  0.1111 -0.0884
48998W        W91911   1.126   9.242  28.736 -0.1774 -0.2271 -0.1109
48999W        W91912  25.176  13.456  15.578  0.1698 -0.0968 -0.1669
49000W        W91913  11.973  19.042  16.361  0.2690  0.0013  0.0465
49001W        W91914  21.593  34.076  14.033  0.3298  0.1416 -0.0030
49002W        W91915  30.560  22.968  14.283  0.2532 -0.0522  0.1287
49003W        W91916   8.707  15.995  28.640 -0.1528 -0.1592  0.4612
49004W        W91917  31.485  18.352  18.266  0.1112  0.1696 -0.0899
49005W        W91918  30.033  21.307  22.935 -0.0247 -0.3355 -0.6141
49006W        W91919  29.474  13.109  19.547  0.0037 -0.2003  0.0190
49007W        W91920  34.397   9.240  17.698 -0.0018  0.2480 -0.2441
49008W        W91921  23.106  19.937  21.595 -0.1489  0.2598  0.1506
49009W        W91922  33.184  13.610  17.431  0.0163  0.2231 -0.2712
49010W        W91923   1.418  22.466  14.837 -0.1666  0.0945 -0.0716
49011W        W91924  33.567   8.895  16.298  0.4474  0.3786 -0.0613
49012W        W91925   3.120  22.678  16.624 -0.0529  0.0963  0.0182
49013W        W91926  27.205   0.580  24.209  0.2041 -0.0640  0.0684
49014W        W91927  34.125  31.061  17.250  0.0945  0.1180 -0.0692
49015W        W91928   0.975  26.665  22.590 -0.5152 -0.1258 -0.2617
49016W        W91929  30.243  10.116  21.158 -0.1942 -0.2749 -0.1256
49017W        W91930  32.874  12.356  14.688  0.0298  0.3770 -0.0510
49018W        W91931  24.500   8.220  24.628 -0.5357 -0.1100 -0.1002
49019W        W91932  27.400  25.827  17.649 -0.0846  0.1554 -0.0002
49020W        W91933  33.251  13.717  25.255  0.0689  0.0611 -0.0691
49021W        W91934   5.609   5.746  22.948  0.0504 -0.1681  0.0336
49022W        W91935  32.725  11.549  17.026 -0.1302 -0.0760 -0.0065
49023W        W91936  27.575  20.297  12.484  0.2295  0.0471  0.1595
49024W        W91937   8.992   6.939  23.936  0.0563  0.3531 -0.0033
49025W        W91938   2.762  15.687  19.890 -0.3018  0.1161  0.0127
49026W        W91939  30.788  11.795  23.372  0.0108 -0.3799 -0.0289
49027W        W91940  17.483  12.519  20.752  0.2262  0.0299 -0.2096
49028W        W91941  20.734  10.123  20.180  0.2923 -0.0057 -0.4532
49029W        W91942   7.366   8.336  17.797  0.1781  0.0561 -0.1302
49030W        W91943  29.420   9.284   7.876  0.0034 -0.0245  0.2689
49031W        W91944   5.956   6.929  17.781  0.1018 -0.0894  0.1506
49032W        W91945  26.769  10.743  25.083 -0.2174 -0.2713  0.0212
49033W        W91946   1.782  15.417  26.666  0.2313 -0.2121  0.1298
49034W        W91947   4.093  10.998  23.579  0.0979  0.2113  0.2197
49035W        W91948  32.158  11.784  20.529  0.1255 -0.0432 -0.0660
49036W        W91949  29.450  14.018  19.660 -0.0855  0.0721  0.2626
49037W        W91950  33.489   8.452  28.577  0.0484  0.0512  0.1668
49038W        W91951  33.237   7.252  20.780  0.2574 -0.1342  0.3461
49039W        W91952  25.955  12.051  29.264  0.1914 -0.0349  0.0495
49040W        W91953   1.150  12.601  15.420 -0.1888  0.0575  0.3334
49041W        W91954   0.909  25.275  14.322 -0.0802  0.2031 -0.2022
49042W        W91955  33.416  13.724  20.731  0.1972  0.0514 -0.0975
49043W        W91956  10.054   2.647  22.999  0.1510  0.1930 -0.0288
49044W        W91957  30.224  14.613  19.892 -0.1212 -0.0132  0.1962
49045W        W91958  34.225   8.412  19.702 -0.2264  0.0898 -0.0867
49046W        W91959  30.760  16.498  20.693 -0.0455 -0.2307 -0.0793
49047W        W91960   4.912  14.828  17.522 -0.1029 -0.3442 -0.1509
49048W        W91961   6.432  21.608  21.741 -0.1288  0.2923  0.1378
49049W        W91962   3.602  24.427  17.140 -0.0632 -0.4347  0.0504
49050W        W91963   0.028  19.835  23.283 -0.1832  0.2193  0.4652
49051W        W91964  31.849   4.162  25.786  0.2354  0.2522 -0.3532
49052W        W91965   1.236  14.154  16.803 -0.2128  0.0354 -0.1185
49053W        W91966  24.780  11.039  13.944 -0.0078  0.2283 -0.3561
49054W        W91967  27.980  15.584   0.126  0.1667  0.1579  0.0959
49055W        W91968   6.422  10.278  27.268 -0.2625  0.2674  0.0331
49056W        W91969  28.981   6.949  17.601  0.0064  0.3261  0.1691
49057W        W91970  29.794  26.750  24.702 -0.3650  0.1194 -0.1250
49058W        W91971  27.270  18.261  18.138  0.0907  0.1344 -0.2985
49059W        W91972  30.578  34.441  22.866  0.2594  0.4110  0.1828
49060W        W91973  26.204  20.392  20.389 -0.1577  0.2220  0.0905
49061W        W91974  27.867  18.834  13.664  0.1522  0.1230 -0.0220
49062W        W91975  32.123   3.433  16.506 -0.0142 -0.0952  0.0101
49063W        W91976   1.484  15.379  19.567 -0.1552 -0.2718  0.1051
49064W        W91977  11.589  23.423  19.790  0.3416 -0.1402  0.0921
49065W        W91978  25.015  13.248  25.352 -0.1807 -0.0567 -0.2126
49066W        W91979  32.472  23.000  16.391  0.1758 -0.0216  0.1046
49067W        W91980  28.944   0.360  17.767  0.1637  0.1894  0.2596
49068W        W91981  23.375   5.244  23.035  0.2040  0.2872 -0.1947
49069W        W91982  26.005  14.619  28.090  0.1366 -0.2910  0.0152
49070W        W91983  34.058  11.546  17.972 -0.0475 -0.2489 -0.2860
49071W        W91984  29.838  11.332  13.624  0.0309  0.0696 -0.2736
49072W        W91985  32.207  17.944  20.727  0.2864  0.1062  0.1942
49073W        W91986   3.748  18.889  16.325 -0.0734  0.1152 -0.2530
49074W        W91987  32.749  20.556  24.391 -0.1826  0.1795 -0.3392
49075W        W91988  18.227  11.991  14.413 -0.0480 -0.0508 -0.0899
49076W        W91989  29.551  15.826  27.914  0.0387  0.3699 -0.0751
49077W        W91990  28.859   1.462  17.197  0.0820 -0.2502  0.1579
49078W        W91991   3.483  19.503  23.495 -0.1010  0.3610 -0.2578
49079W        W91992  33.198  15.066  27.655 -0.1674 -0.1135  0.0306
49080W        W91993   5.635  23.779  18.035 -0.3726  0.0689  0.0291
49081W        W91994   1.809  19.079  14.766  0.0386  0.2066 -0.0916
49082W        W91995  33.137  14.068  15.395  0.0956 -0.1622 -0.0470
49083W        W91996  31.911  14.021  13.873 -0.1784  0.0843  0.0211
49084W        W91997  31.297  23.140  16.904  0.2765 -0.2383 -0.0753
49085W        W91998   0.411   4.706  21.161 -0.1258 -0.0104 -0.2049
49086W        W91999  32.384   9.260   0.085  0.0312  0.1123  0.1116
49087W        W92000  31.474  11.160  19.392  0.2753 -0.2691  0.0136
49088W        W92001  31.858  10.588  22.063  0.3042  0.0776  0.2720
49089W        W92002  32.878   8.981  23.722  0.0458 -0.0363 -0.1293
49090W        W92003   2.570  18.883  15.078  0.2680  0.1145 -0.0716
49091W        W92004  22.346   9.737  13.730  0.0101  0.2613  0.1820
49092W        W92005   2.703  24.533  19.233 -0.4402  0.0653 -0.1275
49093W        W92006  34.016   4.564  18.782  0.0901 -0.1561  0.0406
49094W        W92007  27.676  14.661  16.490 -0.1265 -0.2450 -0.3230
49095W        W92008  33.612  14.283   0.349  0.2046  0.2267 -0.4227
49096W        W92009  32.614   6.374  24.028 -0.2457  0.0194  0.2543
49097W        W92010   2.221  10.623  18.645  0.0353 -0.1529  0.1402
49098W        W92011   9.884   2.059  27.565  0.1379 -0.0961  0.3169
49099W        W92012  29.382  15.013  19.157 -0.1553 -0.3629 -0.0687
49100W        W92013   1.427  18.717  14.957  0.2409 -0.1684  0.1156
49101W        W92014  28.800  12.129  15.009  0.1548  0.0974  0.1000
49102W        W92015   7.266  17.681  15.442  0.2971 -0.2304  0.0673
49103W        W92016   7.125  16.668  19.191 -0.0577 -0.2977  0.2009
49104W        W92017  31.318  11.980  20.676 -0.1303 -0.0497 -0.2662
49105W        W92018  28.353  21.105  13.618 -0.0726 -0.2390  0.2111
49106W        W92019   1.114   4.775  17.922  0.0737  0.2215 -0.0934
49107W        W92020  32.526  14.343  23.921  0.1437  0.1302  0.2680
49108W        W92021   7.397  13.296  20.446 -0.2424  0.1581 -0.1955
49109W        W92022  19.837   8.355  21.360  0.1872  0.2170  0.2656
49110W        W92023  33.485  15.089  26.830 -0.1358  0.4077  0.0957
49111W        W92024  32.867  21.048  15.745 -0.0881  0.0809  0.1257
49112W        W92025   0.556  12.135  16.690  0.2934 -0.0075  0.1518
49113W        W92026  32.553  10.322  18.931  0.0002  0.1350  0.1563
49114W        W92027  33.612  23.907  14.769 -0.2437 -0.2307  0.0364
49115W        W92028  31.903  12.902  15.497 -0.0621 -0.0432  0.1750
49116W        W92029   1.082  10.814  19.541  0.2086 -0.0466 -0.0320
49117W        W92030  33.791  15.241  14.326  0.0087 -0.0799  0.0287
49118W        W92031  25.387  21.240  13.683  0.1162  0.0525 -0.1173
49119W        W92032  30.370   8.153  27.563  0.1544  0.1618 -0.1221
49120W        W92033  32.436  23.211  13.795  0.0528 -0.0905  0.1650
49121W        W92034  29.032  11.442  25.659  0.3565 -0.0255  0.0076
49122W        W92035  27.617   0.776  18.343  0.1237 -0.1311 -0.1424
49123W        W92036  25.056  10.799  28.778  0.2623  0.1723 -0.1193
49124W        W92037   2.781  11.851  18.130 -0.0872  0.1757 -0.1145
49125W        W92038   4.874  15.229  16.722  0.1158 -0.1138 -0.2952
49126W        W92039  11.155  11.822  29.306 -0.2372 -0.1105 -0.1892
49127W        W92040  28.340  23.694  15.776  0.0075  0.0139  0.1416
49128W        W92041  33.225  15.529  25.750 -0.1367  0.3009 -0.0595
49129W        W92042   5.999  16.012  18.882  0.3383  0.1793  0.1492
49130W        W92043  32.854  11.871  17.361  0.2053 -0.0803  0.2678
49131W        W92044   7.104   4.195  23.372  0.1196 -0.3301  0.0384
49132W        W92045  32.746  13.757  26.983  0.2718 -0.4738  0.1691
49133W        W92046  27.272  11.442  15.502  0.0972 -0.1593 -0.1496
49134W        W92047  29.797  18.219  18.306  0.0241  0.0035 -0.0653
49135W        W92048  27.107  17.468  19.537 -0.0058 -0.3609 -0.0008
49136W        W92049   3.907   9.903  18.516 -0.2422  0.1034  0.0148
49137W        W92050  29.767  15.009  22.035  0.2213 -0.1337 -0.1837
49138W        W92051  32.147  10.545  16.267  0.1386 -0.1850 -0.0334
49139W        W92052   7.109  16.297  14.170 -0.3678  0.0366 -0.1596
49140W        W92053   0.211  12.939  21.106 -0.1777  0.1641 -0.0081
49141W        W92054  32.373  15.324  27.705 -0.0423 -0.2444 -0.2292
49142W        W92055   1.366   7.823  22.926 -0.0947  0.0157  0.0659
49143W        W92056  21.972   4.184  14.646 -0.1664  0.0803  0.2112
49144W        W92057  34.059  13.849  24.812  0.0427  0.0656 -0.2471
49145W        W92058  32.832   7.725  18.373  0.3825  0.0110  0.0968
49146W        W92059  33.182  14.619  23.896  0.1208 -0.2944 -0.0901
49147W        W92060  29.567  11.918  21.266 -0.0607  0.1806 -0.1380
49148W        W92061  23.781  17.960  24.373 -0.4441 -0.0242 -0.0116
49149W        W92062   4.087  17.107  14.282  0.1339  0.2378 -0.2754
49150W        W92063  31.504  15.087  25.296  0.2037  0.2055  0.1582
49151W        W92064   3.124  16.236  21.469 -0.2864  0.0862  0.0943
49152W        W92065   4.702  26.622  24.184 -0.0817  0.1534 -0.1720
49153W        W92066   3.828   3.649  23.975  0.2043  0.1066 -0.4248
49154W        W92067  30.535  16.522  27.789 -0.2897 -0.0670 -0.0937
49155W        W92068  31.973  23.061  20.193 -0.0910  0.0571 -0.1682
49156W        W92069  24.855  13.042  25.932  0.0501 -0.3551  0.0465
49157W        W92070  31.531  24.403   0.368  0.1077 -0.0501 -0.0513
49158W        W92071  31.397  28.333  20.598 -0.0636  0.1661 -0.1009
49159W        W92072   5.617   8.550  22.269  0.1972 -0.0631 -0.5398
49160W        W92073  32.447  12.752  14.206 -0.1622  0.1416  0.1758
49161W        W92074  27.614  12.640  26.445 -0.1579  0.1729  0.1003
49162W        W92075  34.481   9.795  24.855  0.0024  0.0176 -0.1337
49163W        W92076   8.313  14.703  21.560  0.0151 -0.1998  0.0892
49164W        W92077   4.354  10.052  25.793 -0.2129 -0.5642  0.3559
49165W        W92078  27.013  18.770  28.285  0.1682  0.1076 -0.0646
49166W        W92079   5.471  21.177  16.671  0.1134  0.1423  0.3650
49167W        W92080  33.973  15.296  19.913 -0.0469 -0.0340  0.1774
49168W        W92081   5.745  10.430  17.228 -0.0380 -0.0832  0.3197
49169W        W92082  33.571  17.456  19.144  0.4556 -0.0053  0.1744
49170W        W92083  26.803  10.563  27.212 -0.0185 -0.0768  0.1446
49171W        W92084  30.586  12.531  14.690 -0.1705 -0.0365 -0.2509
49172W        W92085   7.510   6.614  19.527  0.2609  0.3438  0.1451
49173W        W92086  30.610  14.995  22.098  0.3858  0.0508  0.1986
49174W        W92087  26.501   3.365  25.713  0.0590  0.0218  0.2274
49175W        W92088  27.486  16.623  21.045  0.1474  0.2368  0.2578
49176W        W92089  26.468  14.698   6.898  0.3978 -0.0500 -0.0899
49177W        W92090  33.168   9.254  14.804  0.0094 -0.2374 -0.1919
49178W        W92091   3.075   4.452  19.436 -0.3157 -0.2125  0.3049
49179W        W92092  30.419  17.500  20.790  0.0542  0.2860  0.2097
49180W        W92093  29.853  23.873  21.250  0.0728 -0.2443 -0.0328
49181W        W92094   0.400  15.733  24.845 -0.1272  0.0635  0.1766
49182W        W92095  30.021  11.866  18.673 -0.1110  0.0719  0.0266
49183W        W92096  25.372   7.780  18.281  0.1267  0.0990 -0.2843
49184W        W92097  25.667  25.261  21.814  0.1174 -0.0804 -0.0403
49185W        W92098  26.872   7.861   2.929 -0.3025 -0.1596  0.0406
49186W        W92099  21.504   2.757  20.197 -0.1708  0.1476  0.0500
49187W        W92100  33.435  16.826  16.607  0.2404  0.0461  0.0846
49188W        W92101  33.532  19.520  21.948 -0.1574 -0.2388  0.2136
49189W        W92102  31.733   9.817  20.881  0.3363 -0.1335  0.4179
49190W        W92103  26.172  10.274  22.359 -0.0819 -0.0731  0.0430
49191W        W92104   6.568  17.686  18.427  0.1141 -0.0371 -0.1814
49192W        W92105  30.731  12.960  23.543  0.2306  0.0291 -0.1938
49193W        W92106  26.142  15.496  17.048  0.1633  0.2019 -0.3583
49194W        W92107  32.514  12.959  16.340  0.0181  0.0527 -0.0958
49195W        W92108  28.431  33.285  25.446 -0.1216  0.3181 -0.0384
49196W        W92109  31.616  16.130   1.915 -0.1243 -0.1240 -0.1727
49197W        W92110  33.656  10.385  21.070 -0.0881 -0.2200 -0.1739
49198W        W92111  27.408  19.195  17.684  0.0905 -0.1060 -0.0483
49199W        W92112   1.689  13.173  16.078 -0.1305 -0.0009  0.0522
49200W        W92113  20.867   3.426  23.714  0.1581  0.0633 -0.0111
49201W        W92114  30.199  20.333  20.936  0.2733  0.2446 -0.0893
49202W        W92115   0.547   9.596  18.613 -0.0469 -0.1662  0.2399
49203W        W92116  26.261  10.502  17.696  0.0351 -0.1756 -0.0085
49204W        W92117  32.339  12.409  18.488  0.1448  0.1724 -0.1155
49205W        W92118   0.836  16.098  27.817  0.1791  0.0091  0.2676
49206W        W92119  25.860  13.260  17.283  0.0043 -0.1549  0.1710
49207W        W92120   1.245  11.947  14.567 -0.1010  0.0608 -0.1342
49208W        W92121  10.064  11.648  25.425 -0.1623  0.1730  0.1033
49209W        W92122   2.478   9.793  19.824 -0.0563 -0.1004 -0.1822
49210W        W92123  32.069  11.027  21.970 -0.2334  0.0659  0.0472
49211W        W92124   2.582   7.371  26.842  0.0982  0.3050 -0.0981
49212W        W92125  31.755  14.517  23.909 -0.0057 -0.1791 -0.2702
49213W        W92126  24.910  16.571  20.830  0.3184  0.0048 -0.3713
49214W        W92127  34.170  13.946  21.561 -0.2016  0.1846 -0.0140
49215W        W92128  29.827  16.123  14.881  0.2760 -0.0792  0.0100
49216W        W92129   0.316  19.354  26.649 -0.0970  0.0043 -0.0891
49217W        W92130   4.873  11.409  23.456 -0.4623  0.0352  0.2749
49218W        W92131  29.491  10.653  24.728 -0.1220 -0.1078  0.2182
49219W        W92132  29.635   6.956  15.768  0.0662 -0.0058 -0.0711
49220W        W92133  32.041  17.639   1.438  0.1674  0.2591  0.1665
49221W        W92134   7.421  20.908  21.065  0.0019  0.0854 -0.0258
49222W        W92135   5.668  17.912  21.890 -0.1170 -0.3344  0.1091
49223W        W92136  24.220  13.995  24.664 -0.0506 -0.0560 -0.2205
49224W        W92137  27.301  15.129  23.961  0.2904 -0.0237 -0.0372
49225W        W92138   0.612  13.691  21.645  0.1397 -0.0231 -0.2682
49226W        W92139  31.333   7.728  22.661 -0.1336  0.1671  0.0045
49227W        W92140   5.443  12.471  17.698  0.0620 -0.0933 -0.2935
49228W        W92141  34.274  14.832  24.560  0.2615 -0.0631 -0.1621
49229W        W92142   5.990   7.081  21.746  0.2270 -0.0196  0.0608
49230W        W92143  31.857  13.177  17.510 -0.0180 -0.2788  0.0220
49231W        W92144  32.315   5.218  22.482  0.3248 -0.2712 -0.1839
49232W        W92145  29.946  12.905  21.389 -0.0150  0.0317 -0.0930
49233W        W92146   9.234  16.925  19.739  0.0282  0.0106  0.1401
49234W        W92147   0.791  23.824  27.128 -0.0556  0.1284  0.0144
49235W        W92148  33.674   6.435  26.637  0.1831 -0.2754 -0.1478
49236W        W92149  16.506  19.535  23.691 -0.0417 -0.2018  0.1703
49237W        W92150  31.107  16.559  17.610 -0.0895  0.0941 -0.1660
49238W        W92151   5.583   7.737  19.446 -0.1964  0.0764 -0.1992
49239W        W92152  31.660  19.546  13.313  0.1128  0.3140 -0.1112
49240W        W92153  27.635   1.931  20.446 -0.0357 -0.0252 -0.2676
49241W        W92154   9.271  17.317  21.762  0.0595 -0.0294 -0.2057
49242W        W92155   0.281  11.587   0.152  0.2879 -0.1065 -0.2516
49243W        W92156  29.718  16.414  19.076  0.0894 -0.0946 -0.0393
49244W        W92157   1.012  17.612  25.871  0.1453  0.1540  0.0255
49245W        W92158   1.605   9.463  27.923  0.2656  0.1133  0.2044
49246W        W92159   3.559  15.402  16.444 -0.3755  0.1169  0.2975
49247W        W92160  24.462   4.147  22.677  0.4969  0.1256 -0.1042
49248W        W92161  30.525  22.858  23.497  0.0589 -0.0762  0.0902
49249W        W92162  32.905  15.643  19.093  0.3352  0.0789 -0.0013
49250W        W92163  29.789  11.073  20.155  0.3960 -0.1787 -0.3063
49251W        W92164  31.374  22.692   0.814 -0.0561 -0.0794  0.0108
49252W        W92165  27.400  24.109  15.541 -0.0684  0.0197  0.1156
49253W        W92166  32.998   5.855  27.168  0.0548 -0.1268 -0.0700
49254W        W92167  18.988   9.779  25.786  0.2308  0.1601 -0.0665
49255W        W92168   5.733   3.397  29.422 -0.1468  0.0208 -0.2493
49256W        W92169  26.333  14.878  25.539  0.0666  0.0787 -0.1886
49257W        W92170  29.145  18.570  22.415 -0.1733 -0.0816  0.2554
49258W        W92171  29.536  12.680  15.015  0.0394 -0.1198 -0.0165
49259W        W92172  10.482  10.271  27.165 -0.0698 -0.0082 -0.2651
49260W        W92173   1.947  15.494  22.427  0.1638 -0.1535 -0.1651
49261W        W92174   7.726   9.495  27.237 -0.0655  0.1697  0.1760
49262W        W92175   2.384   1.165  19.187  0.0501  0.3127 -0.2714
49263W        W92176   9.274   6.622  23.650  0.0410 -0.2379 -0.2081
49264W        W92177  28.516   9.185  21.200 -0.2332  0.0840  0.3174
49265W        W92178  30.888  15.117  25.249 -0.0545  0.1317 -0.0684
49266W        W92179  27.247  19.922  16.086 -0.1241 -0.3172 -0.1703
49267W        W92180   4.602  18.194  17.654 -0.2856 -0.1966  0.1018
49268W        W92181  24.775  19.894  18.444 -0.1915  0.2117 -0.0883
49269W        W92182  32.278  24.780  18.315 -0.1569 -0.2576 -0.0080
49270W        W92183  16.426   9.994  20.377 -0.0510 -0.0308 -0.2885
49271W        W92184  27.544  18.077  14.985  0.0217  0.1078 -0.0508
49272W        W92185  22.774  17.960  20.029  0.2694  0.3235  0.0195
49273W        W92186   6.723   6.815  21.543  0.1843 -0.0722  0.2152
49274W        W92187   0.508   3.717  17.990 -0.1823  0.0058 -0.0601
49275W        W92188   3.658   4.682  23.939  0.0039 -0.0128 -0.0332
49276W        W92189  26.488   7.717  28.905 -0.2709  0.2448  0.2357
49277W        W92190  32.208  10.357  23.442 -0.1427  0.0608 -0.2071
49278W        W92191  25.392   4.391  23.441 -0.4125 -0.1109  0.1430
49279W        W92192  28.756  13.884  18.203  0.4319  0.0590  0.2181
49280W        W92193   4.506  15.422  19.787  0.0266  0.4296  0.1741
49281W        W92194   0.496  14.154   1.671  0.0291 -0.1536  0.0062
49282W        W92195  27.343  15.546  19.404  0.0518  0.3577 -0.1880
49283W        W92196  20.970   9.240  22.241 -0.1855  0.2844  0.3574
49284W        W92197  32.316  14.147  14.763 -0.1154  0.0460 -0.1681
49285W        W92198  30.533  20.961  25.140  0.1233 -0.3551 -0.0507
49286W        W92199  30.281   9.713  14.920 -0.2343  0.0876  0.2305
49287W        W92200  28.522  27.662  14.745 -0.1997 -0.1116  0.1060
49288W        W92201  25.924   0.136  20.692 -0.0259  0.0813 -0.3084
49289W        W92202  25.354  20.387  22.756  0.0173 -0.1134 -0.0717
49290W        W92203  26.232  27.020  21.053 -0.1243 -0.2206  0.0201
49291W        W92204  21.664  21.706  13.997 -0.0097  0.1294 -0.1578
49292W        W92205   6.287  22.324  14.543 -0.0804 -0.1225 -0.1168
49293W        W92206  24.971  33.869  26.271 -0.2899  0.1163 -0.0228
49294W        W92207  32.486   6.133  18.552 -0.3385  0.1722  0.0477
49295W        W92208   0.425  18.236  18.984  0.0725  0.0633  0.1389
49296W        W92209   2.210   4.359   6.539  0.0780 -0.1227 -0.0039
49297W        W92210  29.582  24.654  15.635 -0.1193  0.2545 -0.0566
49298W        W92211  29.803  23.215   1.157  0.0005  0.1492 -0.0014
49299W        W92212  34.065  14.957  23.731  0.0204  0.0353  0.0143
49300W        W92213  29.089  20.782  23.093 -0.1937  0.1518 -0.1616
49301W        W92214   5.869  16.347  19.658 -0.0270 -0.0596  0.0879
49302W        W92215  16.317  12.050  19.793 -0.0271  0.0516  0.4394
49303W        W92216  32.970  17.722  19.086  0.2095  0.2555 -0.1541
49304W        W92217  10.890  13.577   1.903 -0.1314 -0.4281 -0.1531
49305W        W92218  32.362  15.024  24.917 -0.1865 -0.0338 -0.2288
49306W        W92219  32.204  13.284  18.356 -0.4054 -0.3301 -0.0504
49307W        W92220  27.761  16.508  14.929 -0.0661 -0.2371 -0.0057
49308W        W92221  31.605  23.530  16.859  0.1231  0.2253  0.0355
49309W        W92222  33.419  14.948  22.425  0.0852  0.3424  0.0285
49310W        W92223  30.871  18.364  14.664 -0.0895  0.0097 -0.3692
49311W        W92224  25.853  17.185  21.523 -0.0465  0.0041 -0.3735
49312W        W92225  33.440   7.667  21.617  0.3878  0.1392 -0.2974
49313W        W92226   9.391   5.010  19.009 -0.0721 -0.0652 -0.1025
49314W        W92227  30.924  19.311  15.764  0.0308  0.2802  0.1038
49315W        W92228  33.090   3.433  22.534  0.1316 -0.2948 -0.0075
49316W        W92229   2.078   7.778  20.767 -0.0581  0.1313 -0.1168
49317W        W92230   3.944  14.331  15.389  0.0683 -0.1443 -0.1050
49318W        W92231  27.153  11.929  23.445  0.0045 -0.1065 -0.0180
49319W        W92232   5.956  19.647  27.512 -0.1573  0.0065  0.3260
49320W        W92233  33.259  13.074  24.637  0.0321 -0.1312  0.3200
49321W        W92234  33.292  10.454   1.565  0.2726  0.1336 -0.2542
49322W        W92235  33.026  15.699  22.245 -0.1338 -0.0922 -0.0116
49323W        W92236  32.007  10.777  19.295 -0.2766 -0.0135  0.0701
49324W        W92237  12.978  16.385  23.402 -0.2128  0.3325  0.0016
49325W        W92238  29.692   6.747  19.626 -0.1809 -0.0538 -0.1711
49326W        W92239  29.406   7.420  27.851 -0.2084  0.3137 -0.0114
49327W        W92240   3.486  11.738  21.803  0.0242  0.3194 -0.0546
49328W        W92241  32.222  14.538  23.108  0.1515 -0.1006  0.1187
49329W        W92242  25.532  22.872  17.567 -0.1913 -0.1906  0.0732
49330W        W92243   3.219  21.819  28.070  0.0839  0.1394 -0.3601
49331W        W92244  27.079  14.859  16.617 -0.0188  0.0906 -0.0676
49332W        W92245  25.141  12.602  14.472  0.4879  0.1301 -0.3520
49333W        W92246  34.027   5.686  23.051  0.0051 -0.2264  0.3326
49334W        W92247   4.963   6.877  17.530 -0.1282  0.0538 -0.0705
49335W        W92248  30.937   9.095  21.774  0.2570 -0.1387 -0.0415
49336W        W92249  31.997   7.685  19.765 -0.0474  0.1699  0.3180
49337W        W92250  28.168  16.504   1.482  0.2788  0.1287 -0.3607
49338W        W92251  33.112   6.427  23.770  0.1453  0.2459 -0.1599
49339W        W92252  29.304  15.392   0.695 -0.2642  0.1147 -0.0115
49340W        W92253  26.164  10.889  29.162  0.1378 -0.0177  0.1146
49341W        W92254   0.795  24.372  22.890 -0.0296  0.0990 -0.0373
49342W        W92255  27.336  16.695  15.520  0.2249 -0.0450  0.2171
49343W        W92256   2.907   5.015  17.867 -0.0155  0.1901 -0.0034
49344W        W92257  21.190   7.291  23.298 -0.0285  0.0534  0.3342
49345W        W92258  29.506  16.740  26.151 -0.0450 -0.0664  0.1442
49346W        W92259   4.982  17.581  18.393  0.1314  0.3227 -0.0104
49347W        W92260  27.085  19.382  13.589  0.0005 -0.6314 -0.1442
49348W        W92261  29.940   8.595  16.384 -0.4001  0.0140 -0.1841
49349W        W92262  26.834   2.506  23.347  0.3161  0.0633 -0.0579
49350W        W92263  33.807  19.770  15.339 -0.3032 -0.0646 -0.2288
49351W        W92264   0.794  18.672  21.005  0.2356 -0.0979 -0.0587
49352W        W92265   7.239  14.074  21.071 -0.0822 -0.2139  0.0104
49353W        W92266  33.533  14.991  15.255  0.3303  0.1767 -0.0992
49354W        W92267   6.163  15.532  25.194  0.1704  0.0862  0.0185
49355W        W92268   0.007  15.975  19.540  0.4094  0.2874  0.4455
49356W        W92269  31.496  31.817   0.160 -0.1084  0.0967 -0.0758
49357W        W92270  29.607   5.814  22.311 -0.1222  0.2364  0.2855
49358W        W92271  18.647  13.555  22.755 -0.4431  0.1318  0.0552
49359W        W92272   5.589  22.026  29.122 -0.1788 -0.2427  0.3094
49360W        W92273   8.130   8.761  23.914  0.2078 -0.3185  0.1164
49361W        W92274   1.532   0.364  23.937 -0.2040  0.2290  0.1988
49362W        W92275   8.677   8.266  23.538 -0.1989  0.1270  0.2185
49363W        W92276   5.266   8.346  23.131 -0.1094 -0.1575 -0.1906
49364W        W92277   5.867  19.518  15.763 -0.1576  0.2947  0.1294
49365W        W92278  32.725   5.521  19.064  0.2695  0.2732 -0.2691
49366W        W92279   7.687  19.429  14.921 -0.2161 -0.0932  0.0091
49367W        W92280  27.282  21.146  23.563  0.2203  0.0334  0.0271
49368W        W92281  34.150  14.733  26.099 -0.2824  0.0890 -0.0493
49369W        W92282   3.277   7.614  21.561 -0.3255  0.3428 -0.1781
49370W        W92283  28.892   9.434  23.858  0.1244  0.2670  0.0580
49371W        W92284  25.441  20.831  23.782  0.0461  0.0082  0.0402
49372W        W92285  32.914   3.283  19.378 -0.2136 -0.1449  0.1922
49373W        W92286   2.015  21.565  29.010 -0.2219  0.1905 -0.1929
49374W        W92287   6.085  10.166  18.612  0.1228 -0.0464  0.0981
49375W        W92288   5.795   9.753  21.400 -0.3023 -0.0847  0.1756
49376W        W92289  30.109  17.983  29.065  0.0802  0.0875 -0.1716
49377W        W92290   7.562  16.646  21.146  0.0379  0.0532 -0.1042
49378W        W92291  24.142   8.994  24.171  0.0337  0.1336 -0.2414
49379W        W92292  26.447  15.724  20.717 -0.2973 -0.2766  0.3647
49380W        W92293  30.997  22.736  20.772 -0.2857 -0.1038  0.2584
49381W        W92294  23.351  10.244   4.438 -0.0959  0.0830 -0.2074
49382W        W92295  32.862  18.823  19.330 -0.0762 -0.1846 -0.1828
49383W        W92296   5.956   1.825  21.071 -0.1613 -0.1966 -0.1454
49384W        W92297   0.015  19.116  17.600 -0.1502  0.0508 -0.1717
49385W        W92298   3.299  13.791  24.892  0.3368 -0.0553 -0.0567
49386W        W92299   5.838  18.036   0.311  0.2447 -0.0470  0.4588
49387W        W92300  25.704  17.341   1.577 -0.0031  0.1083  0.0554
49388W        W92301   1.384   2.587  22.295  0.3784 -0.3133  0.0098
49389W        W92302   2.162  18.022  25.740 -0.0985 -0.1921  0.0703
49390W        W92303   3.928  15.533  24.100 -0.0582 -0.3561  0.2081
49391W        W92304  32.576   4.396  25.926  0.0753  0.0769 -0.2176
49392W        W92305  11.419  18.025  22.110 -0.0669 -0.2055 -0.3034
49393W        W92306  21.220  25.169  23.381  0.0675 -0.2031  0.1136
49394W        W92307  11.336  17.030  12.320  0.1228  0.2388  0.2405
49395W        W92308   9.112  16.958  24.079  0.1561  0.3060  0.2523
49396W        W92309  28.409   8.460  19.414  0.2773 -0.2899 -0.1049
49397W        W92310   1.515  15.499  27.777  0.2256 -0.0563 -0.1854
49398W        W92311  31.553  15.882  20.333  0.1437 -0.1699  0.0306
49399W        W92312  33.286  14.937  28.144 -0.1527 -0.0575 -0.1030
49400W        W92313   6.988  13.017  27.389  0.2798 -0.1170  0.1938
49401W        W92314   9.302  10.478  20.431 -0.3980 -0.0812 -0.1505
49402W        W92315  30.496  22.073  14.538  0.0280 -0.2004  0.1575
49403W        W92316  30.511  10.670  16.760 -0.1659  0.0474  0.0951
49404W        W92317  23.149  27.202   0.268 -0.1020 -0.0116 -0.2469
49405W        W92318   2.253  13.740  25.831 -0.1568  0.2769 -0.0654
49406W        W92319   9.574   7.834  21.116 -0.1743  0.1282  0.0679
49407W        W92320   5.463  20.648  23.493 -0.2492 -0.1261 -0.0321
49408W        W92321   7.496  16.676  19.620 -0.0627  0.0850 -0.0517
49409W        W92322  23.326   6.073  21.687 -0.1689  0.1399  0.1089
49410W        W92323   6.648   6.644  20.494  0.0678 -0.0842  0.0859
49411W        W92324  23.234  25.107  28.746 -0.0419  0.1719  0.2309
49412W        W92325  32.948  16.626  26.018  0.1899  0.0046 -0.2005
49413W        W92326   1.220   8.631  11.470  0.1635  0.0488  0.1682
49414W        W92327  27.846  12.611   3.641 -0.0553 -0.2366 -0.1167
49415W        W92328  31.720  15.732  18.391  0.1136 -0.3521  0.2645
49416W        W92329  10.407  17.048   0.255  0.0686  0.1703  0.1615
49417W        W92330  32.450  12.214  29.319  0.0665  0.3423  0.0167
49418W        W92331  32.844   9.868  22.586  0.1114 -0.3293  0.1881
49419W        W92332  25.215  14.031  27.582 -0.1788 -0.2262 -0.0494
49420W        W92333  28.428   5.890  21.315 -0.0558 -0.0052  0.2720
49421W        W92334  30.575  12.069  14.532  0.1686  0.3011 -0.1567
49422W        W92335  29.522  14.536  16.789 -0.0859  0.2767 -0.0325
49423W        W92336  33.895  18.569  23.630 -0.1980  0.1498 -0.0008
49424W        W92337  27.869   9.215  20.310 -0.2530  0.0543 -0.0735
49425W        W92338   0.806  15.564  18.909  0.0693  0.1712 -0.1963
49426W        W92339  29.277   9.154   5.013 -0.3875 -0.1060  0.1139
49427W        W92340  33.780   5.429  22.569 -0.1354 -0.0664  0.3517
49428W        W92341  27.354  19.607  27.699 -0.1337  0.1811  0.0100
49429W        W92342  11.433  21.192  25.067  0.0204  0.1260 -0.1128
49430W        W92343  25.649   9.424  19.663  0.0189 -0.1608  0.0909
49431W        W92344   5.620  14.844  13.171  0.1626  0.1768  0.0698
49432W        W92345  30.453   6.853  23.789 -0.1846 -0.1357 -0.1210
49433W        W92346  29.352  25.884  24.260  0.1215 -0.2491 -0.0059
49434W        W92347  33.745   4.381  24.182  0.0842  0.0752  0.2005
49435W        W92348  18.680  13.230  24.179 -0.1223  0.0662  0.3432
49436W        W92349  34.080   8.496  22.469 -0.3375 -0.0103 -0.1773
49437W        W92350  31.300  13.569  14.695  0.0020  0.0137 -0.0955
49438W        W92351  32.867   8.667  25.314  0.1239  0.2805 -0.0476
49439W        W92352  26.480  20.924   4.810 -0.1168  0.2257  0.1086
49440W        W92353  34.164   6.904  20.704 -0.0001  0.0331  0.1438
49441W        W92354   0.390  22.848  20.589 -0.1444  0.2820  0.0349
49442W        W92355  26.221  21.159  29.509 -0.0282  0.1032  0.0543
49443W        W92356  29.074  11.260  28.378  0.2006 -0.1284 -0.1051
49444W        W92357  29.130  20.649  28.352  0.1635  0.0087 -0.2062
49445W        W92358  28.307  17.049  20.726  0.4016 -0.0326 -0.0653
49446W        W92359  12.904   5.168  24.222  0.4022 -0.0763 -0.2329
49447W        W92360  31.560   8.846  24.327 -0.3132 -0.0102  0.0050
49448W        W92361  32.075  10.971  22.839  0.3304 -0.5702  0.1649
49449W        W92362   1.334   8.272   4.232 -0.1783  0.3061  0.3693
49450W        W92363   3.879  15.005  24.177 -0.1802  0.1748  0.1188
49451W        W92364   8.904  18.703  26.029  0.2590 -0.1445  0.0509
49452W        W92365  30.451  13.990  25.553  0.0452  0.1138  0.1070
49453W        W92366  12.453  15.747  26.070 -0.3059  0.1264 -0.1045
49454W        W92367   7.906  15.167   0.033 -0.0124  0.2196  0.0586
49455W        W92368  30.793  13.703   1.173  0.1576  0.0042 -0.2631
49456W        W92369  33.505  11.038  17.397 -0.0325  0.0914 -0.0528
49457W        W92370  32.327  16.795  22.603  0.0924  0.0016  0.0020
49458W        W92371  31.761  15.022  14.716  0.1099 -0.1243  0.2278
49459W        W92372  22.636  13.280  28.388 -0.0848  0.0335 -0.0541
49460W        W92373   5.916  16.997  20.873  0.0111  0.3368  0.0183
49461W        W92374   2.861  18.278  23.596 -0.1992  0.0613 -0.0907
49462W        W92375  31.868   1.727  20.997 -0.2617 -0.0175 -0.3408
49463W        W92376   0.737  13.062  16.258  0.0470 -0.1817 -0.3344
49464W        W92377  29.571  11.043  29.057  0.0780 -0.1990 -0.3205
49465W        W92378   0.692  12.215  20.636  0.2486 -0.0956  0.1547
49466W        W92379   6.012   9.166   0.654  0.1769 -0.1933  0.1430
49467W        W92380  28.918  16.237   3.651 -0.2106 -0.1920 -0.2939
49468W        W92381  33.412   4.724  19.813 -0.3041  0.3736  0.2639
49469W        W92382  31.917  11.871  23.209 -0.0318  0.0122 -0.2017
49470W        W92383  33.295  11.680  27.909 -0.1459 -0.1422  0.0470
49471W        W92384   4.303  13.264   4.627  0.0112  0.1139 -0.3399
49472W        W92385  11.950  11.744  19.786 -0.4295 -0.2823  0.1898
49473W        W92386  29.627  17.634   1.693  0.2377  0.3837 -0.0652
49474W        W92387  28.771  21.839  14.763  0.1419 -0.0631  0.3948
49475W        W92388  28.674  22.903  20.548 -0.2159  0.3509  0.0145
49476W        W92389  29.726  18.571  23.574  0.1050  0.2415 -0.0244
49477W        W92390  31.669   4.559  16.290 -0.0664 -0.0330 -0.0986
49478W        W92391   5.816  10.286  23.597 -0.0730  0.5571 -0.1805
49479W        W92392  26.370  18.733  18.984 -0.0279 -0.1779  0.1017
49480W        W92393   1.074   3.627  22.217 -0.2256 -0.1284  0.2731
49481W        W92394  34.209  18.564  17.636  0.5642  0.0176 -0.1333
49482W        W92395  24.078  11.195  25.586 -0.0311  0.1026  0.1833
49483W        W92396  31.817  14.711  18.457  0.0552 -0.0233  0.1358
49484W        W92397   2.744  17.748  27.483 -0.0140 -0.0265 -0.1937
49485W        W92398  31.463  17.004  22.306 -0.0685 -0.0519 -0.0453
49486W        W92399  32.653   3.006  27.828 -0.2085  0.0743 -0.1572
49487W        W92400  31.181  11.294  23.552 -0.4484  0.0737 -0.1994
49488W        W92401  33.861   9.512  27.832 -0.2079  0.0891  0.2262
49489W        W92402   3.049   6.231  20.835 -0.1371 -0.1815 -0.0734
49490W        W92403  33.627   6.433  19.562  0.1249  0.1491 -0.0857
49491W        W92404  31.800  25.936  17.609  0.2323  0.1832  0.1635
49492W        W92405   0.048  10.188  26.113 -0.0742 -0.0549 -0.1109
49493W        W92406  32.706  13.658  15.369 -0.0687 -0.2884 -0.2189
49494W        W92407  25.316  14.716  20.209 -0.1213  0.1444 -0.1772
49495W        W92408  30.867  22.242  23.597 -0.1669  0.2782  0.3173
49496W        W92409  29.011  18.890   3.409  0.0677  0.0985  0.1872
49497W        W92410  28.269  17.138  15.245 -0.2204  0.2977 -0.6485
49498W        W92411  27.347  11.775  26.068  0.4223  0.1951 -0.0220
49499W        W92412  25.441   4.901   5.654  0.0796  0.1780 -0.0153
49500W        W92413  19.783  11.731  19.081  0.1759 -0.0081 -0.3907
49501W        W92414  31.211  15.918   6.360  0.0628  0.2430  0.1929
49502W        W92415  25.265   8.013  21.039  0.1550  0.4355  0.0905
49503W        W92416  26.231  12.353  24.916  0.2625 -0.2376 -0.2122
49504W        W92417   5.068  10.337  18.144  0.0544  0.0967 -0.0128
49505W        W92418  23.299  18.989  19.650 -0.0005  0.2086 -0.2408
49506W        W92419  14.397  19.243  22.674  0.3649 -0.1387  0.2543
49507W        W92420  32.059  10.976  15.521 -0.0776  0.0058 -0.1029
49508W        W92421  34.224  22.151  28.464 -0.2043 -0.0207 -0.5114
49509W        W92422   0.296  16.410  17.008 -0.3414  0.2962 -0.1122
49510W        W92423  34.193  10.287   4.793 -0.0447 -0.0299 -0.0926
49511W        W92424  13.082  18.801  20.784 -0.0749  0.0210 -0.0180
49512W        W92425  28.341  10.295  24.245 -0.3615 -0.1768 -0.3657
49513W        W92426  30.424   8.659  25.710 -0.1935  0.0133  0.1710
49514W        W92427  29.098  11.582  18.665 -0.0434 -0.1727 -0.3647
49515W        W92428  22.366  12.461  25.397  0.1396  0.3222 -0.1449
49516W        W92429  26.481  22.510  22.971  0.0831 -0.0066  0.0626
49517W        W92430  19.386  15.711   8.913 -0.2287 -0.0820 -0.0407
49518W        W92431  23.299  11.479  19.079 -0.1097 -0.0318  0.2535
49519W        W92432  29.712   9.158  21.983 -0.2974  0.2516 -0.1606
49520W        W92433  24.403   7.953  21.448 -0.2313  0.0104  0.0186
49521W        W92434  27.427  10.944  16.134 -0.1114  0.0819  0.1150
49522W        W92435  31.734  17.268  14.297 -0.0477  0.1047  0.2005
49523W        W92436   1.265  12.613   1.345 -0.1221  0.1217 -0.1331
49524W        W92437  31.430  15.555  19.829  0.4262 -0.4927  0.0848
49525W        W92438   1.170  11.686  21.114  0.0223  0.1672  0.2337
49526W        W92439  31.396  16.500  24.063  0.0424 -0.0586  0.0134
49527W        W92440  29.952   4.160  26.835  0.0845 -0.1985  0.2191
49528W        W92441   3.269  11.455  15.315  0.0134 -0.1779  0.0866
49529W        W92442   4.280  26.492  21.174  0.3946  0.0054 -0.0001
49530W        W92443  11.596  21.674   0.903 -0.0283 -0.0682  0.0837
49531W        W92444  32.147  13.361  17.826  0.1203  0.0589  0.2093
49532W        W92445  27.400  15.753  24.581 -0.2593 -0.0341  0.4112
49533W        W92446  34.142  10.957  27.523 -0.2110  0.0469  0.1051
49534W        W92447   3.311  17.268  26.131  0.4141 -0.1348  0.0258
49535W        W92448   6.194  11.566  27.373 -0.0881 -0.4688  0.2534
49536W        W92449  30.848  13.262  23.930  0.0329 -0.0682 -0.3103
49537W        W92450   8.924  10.840  26.988 -0.0396  0.1304  0.1842
49538W        W92451  33.373  23.032  20.093  0.3923 -0.6551  0.3995
49539W        W92452   7.063  17.830  16.470  0.1680  0.1610 -0.1427
49540W        W92453  30.768  13.961  29.153  0.0714  0.4150  0.2027
49541W        W92454  32.749   7.598  25.412 -0.3820 -0.0664 -0.2866
49542W        W92455  32.843  17.472  27.278 -0.0195 -0.0226  0.1034
49543W        W92456  24.686  18.478  20.354  0.1936 -0.1286 -0.3277
49544W        W92457   8.513  20.197  16.111 -0.2879 -0.0259 -0.0164
49545W        W92458  30.683   9.998  26.110 -0.2543  0.1090 -0.1178
49546W        W92459   2.905   6.672  25.457  0.1425 -0.0696 -0.2560
49547W        W92460   0.361  21.640  16.590 -0.2226 -0.0512  0.2404
49548W        W92461  17.055  23.852  23.614  0.1791 -0.4547  0.0677
49549W        W92462   1.749   4.049  24.166  0.2435  0.1919 -0.2998
49550W        W92463  33.733  11.615  21.573 -0.2728  0.1356 -0.3271
49551W        W92464  30.232  10.210  16.683 -0.2914 -0.0404 -0.1317
49552W        W92465  20.568  20.200   3.960  0.0730 -0.3012  0.1411
49553W        W92466  33.815  13.060  15.057  0.3445  0.1886 -0.1605
49554W        W92467  23.874   6.984  19.003 -0.3832  0.2130 -0.0135
49555W        W92468   3.935  12.153  22.902 -0.1448 -0.1223  0.0265
49556W        W92469  22.126  19.156  18.534  0.0165 -0.0675 -0.0835
49557W        W92470  23.274   8.809   0.881  0.0398 -0.0639 -0.1565
49558W        W92471  33.262  12.685  19.620 -0.0058  0.5314  0.3438
49559W        W92472  29.835  14.560  27.065 -0.1198  0.0301  0.0541
49560W        W92473   2.811   8.278  23.909 -0.5889 -0.3160 -0.2330
49561W        W92474  33.846   9.461  17.121 -0.1970  0.0983 -0.3047
49562W        W92475   4.705  11.263  26.271 -0.3665 -0.2266 -0.0596
49563W        W92476  27.345   9.377  28.349 -0.1899  0.0395 -0.1277
49564W        W92477  28.214   5.497  26.928 -0.2472 -0.3628 -0.2066
49565W        W92478  12.007  11.001  19.282 -0.2175  0.1138  0.0593
49566W        W92479  34.148   1.920   0.002  0.1471 -0.1085 -0.0306
49567W        W92480  29.874  14.245  19.779  0.1651 -0.1964 -0.2746
49568W        W92481   2.972  11.705  17.115  0.2428 -0.2103  0.0768
49569W        W92482  31.411  16.929   9.176 -0.0930  0.1333  0.1667
49570W        W92483   6.281  34.436  27.192 -0.1058  0.1942 -0.0571
49571W        W92484  34.248  11.530  18.917  0.0733 -0.0907  0.1944
49572W        W92485  17.543  12.411  17.695 -0.1881 -0.0103  0.0234
49573W        W92486  29.270  16.235  28.925  0.0147  0.0176  0.1950
49574W        W92487   4.308  19.009  14.255  0.0764 -0.1104 -0.0184
49575W        W92488  31.015  18.604  24.802  0.0458  0.2634 -0.1711
49576W        W92489  30.212  11.718  24.970 -0.0702  0.1193 -0.1473
49577W        W92490   4.345  11.667  20.389 -0.0703  0.3101  0.2067
49578W        W92491  34.172  15.468  28.705 -0.1464 -0.4528 -0.0871
49579W        W92492   0.974  15.651  20.266 -0.2257 -0.1248  0.0845
49580W        W92493   6.714   9.561  26.173 -0.2747 -0.0575 -0.0394
49581W        W92494  28.564  24.467   0.541 -0.0955  0.3214  0.1800
49582W        W92495  28.949  14.584  25.781  0.0698 -0.2410  0.3347
49583W        W92496  33.269  16.000   5.293  0.0799 -0.0805  0.1761
49584W        W92497  30.244  20.666  13.465  0.1337 -0.0891  0.1153
49585W        W92498  32.965  12.215  26.457  0.2407 -0.1015 -0.0396
49586W        W92499  32.607  24.176  17.665  0.2207  0.0169  0.0085
49587W        W92500   4.346  16.988   0.826  0.2294  0.4338  0.2569
49588W        W92501  19.559  21.515  18.887  0.0371 -0.1336 -0.2649
49589W        W92502   1.906  14.915  28.535 -0.0948 -0.2958 -0.0098
49590W        W92503  10.322   5.065   2.638 -0.1097 -0.0741 -0.0711
49591W        W92504  29.028  11.401  27.295  0.0029 -0.0102  0.0596
49592W        W92505  28.865  14.999  24.054  0.2009 -0.0880  0.1423
49593W        W92506  27.942  14.242  16.838  0.0261 -0.1592  0.3344
49594W        W92507   0.138   3.763   2.356 -0.2541 -0.0158  0.1248
49595W        W92508  33.492  17.315   3.326  0.1553  0.1166  0.0758
49596W        W92509  34.123   0.627  22.838 -0.1099 -0.1153 -0.1249
49597W        W92510  25.759  19.716  29.619  0.0051 -0.1270  0.0485
49598W        W92511   4.975   7.886   9.051 -0.0610  0.2054  0.0432
49599W        W92512   3.897  22.847   1.552  0.0184 -0.1741 -0.0624
49600W        W92513   0.881   7.927  27.664 -0.2542 -0.0569 -0.0846
49601W        W92514  26.454  25.527   4.193 -0.1138 -0.0439  0.5944
49602W        W92515  31.019   9.707  18.267 -0.0174 -0.1443 -0.2094
49603W        W92516  19.302   9.440  29.748  0.1423  0.0288 -0.2301
49604W        W92517  27.319  27.197  17.699 -0.4552  0.3663 -0.0888
49605W        W92518   9.248  12.880   4.196 -0.0012  0.0397 -0.2257
49606W        W92519   1.443  16.470  23.481  0.1994  0.0230  0.0665
49607W        W92520  22.930  22.932   5.170  0.0403  0.0279 -0.0549
49608W        W92521  24.493  12.975  28.136 -0.0723 -0.2310 -0.1567
49609W        W92522   6.133  21.461  25.151  0.0616 -0.0007 -0.3320
49610W        W92523  24.827  16.560   0.260 -0.0066 -0.2281  0.0506
49611W        W92524   6.307   6.673  26.577  0.0947 -0.0326  0.0315
49612W        W92525   5.548  12.266  27.550 -0.1285 -0.0465 -0.1650
49613W        W92526  26.663   5.865  28.866  0.5846 -0.1372  0.1748
49614W        W92527  32.703  12.802  19.662 -0.1989 -0.2540 -0.1681
49615W        W92528   1.983  11.788  23.330  0.2725  0.3545 -0.1026
49616W        W92529  33.211   1.001  26.618  0.1407  0.1997 -0.0565
49617W        W92530   3.101  20.519  20.133 -0.0847 -0.2323 -0.1091
49618W        W92531   1.898  12.868  27.280  0.3269 -0.2792  0.0296
49619W        W92532  34.134   8.685  21.138 -0.1212  0.1883 -0.0566
49620W        W92533   9.179  24.846   6.913  0.5809 -0.1893  0.1936
49621W        W92534  21.401  13.815  28.693 -0.1383 -0.3611  0.1158
49622W        W92535   4.485  19.518  27.232  0.1543  0.0807 -0.1489
49623W        W92536  22.821  10.336  21.778 -0.0423 -0.2351 -0.1690
49624W        W92537  27.789   7.116  26.219 -0.1235 -0.1233  0.0128
49625W        W92538   8.299  14.831   1.117 -0.0669 -0.0404 -0.1705
49626W        W92539  21.103  17.606  29.524  0.0899  0.1137  0.2814
49627W        W92540   5.110  12.330  24.672 -0.0052  0.0310  0.2518
49628W        W92541  34.289   6.994  28.252 -0.1852 -0.0840 -0.0290
49629W        W92542  33.222  13.424   1.143 -0.0100  0.0180 -0.0642
49630W        W92543  32.582   8.527  26.754 -0.0604 -0.1113  0.0808
49631W        W92544   0.040   8.791  18.101  0.1392  0.0475  0.3196
49632W        W92545  32.743  13.205  23.463 -0.0176  0.0148  0.0312
49633W        W92546   2.551  12.398   1.978  0.0011 -0.2432  0.2435
49634W        W92547   9.283   6.218  25.457 -0.0163  0.1101 -0.1372
49635W        W92548   2.696  17.241  27.325 -0.0380  0.2223  0.0724
49636W        W92549  33.625  13.712   5.532  0.1805  0.3492 -0.1194
49637W        W92550  20.964  22.733  29.387 -0.2217 -0.0775  0.0550
49638W        W92551  32.574  14.947   5.786 -0.2253  0.1793 -0.1916
49639W        W92552  32.894  26.645  22.978 -0.0348 -0.0404 -0.1056
49640W        W92553   0.720  16.303  16.575  0.0025  0.3421 -0.1905
49641W        W92554  33.299  29.023  22.995 -0.1660  0.2259 -0.3248
49642W        W92555  20.688  12.411  27.751  0.2903  0.0029  0.1554
49643W        W92556  32.714   5.700   3.817 -0.0533  0.1786 -0.1840
49644W        W92557  28.959  16.775   2.543  0.3916 -0.0736  0.0665
49645W        W92558  27.135   9.628  16.967 -0.4110 -0.3222 -0.1433
49646W        W92559  30.434   6.234  27.926  0.2153 -0.0456  0.2159
49647W        W92560  30.756  13.011   4.555  0.2343  0.4571 -0.0130
49648W        W92561  23.911   6.240  27.100  0.0538 -0.0944 -0.1680
49649W        W92562  32.564  22.026  17.110  0.3762 -0.4231 -0.0677
49650W        W92563  26.577  13.633  18.578  0.2528  0.1314  0.1397
49651W        W92564   1.052  30.827   2.572  0.0205 -0.1250 -0.1803
49652W        W92565  30.892  17.121  25.679  0.0426 -0.0801 -0.4755
49653W        W92566  32.700   9.159  29.552 -0.2715 -0.3239  0.2461
49654W        W92567   5.971  14.246   1.420 -0.0636 -0.2474 -0.1986
49655W        W92568  31.656  10.848  26.058  0.2408 -0.0382  0.0436
49656W        W92569  30.962  14.337  25.675  0.1829  0.5517  0.3413
49657W        W92570   0.037  18.822  24.366  0.0517  0.0717  0.0943
49658W        W92571  29.992  17.982   9.463 -0.1099  0.0218 -0.1534
49659W        W92572  33.605   9.631  19.562 -0.5356 -0.0153  0.2782
49660W        W92573   0.335   3.696  25.616 -0.3543 -0.0036  0.2125
49661W        W92574  26.679  21.870   7.622  0.0402  0.1021 -0.2146
49662W        W92575   7.679  10.918   9.405 -0.1222 -0.1020  0.0304
49663W        W92576   7.167  12.686  25.720 -0.0616  0.0829 -0.1245
49664W        W92577   0.002  15.419  26.122  0.0534  0.0767  0.0893
49665W        W92578  29.047  21.226  19.102 -0.2621 -0.2633  0.0759
49666W        W92579  31.315  15.880  28.469  0.1478  0.2978 -0.1410
49667W        W92580   0.925   8.681  20.663  0.0306 -0.0730  0.0250
49668W        W92581  34.068  19.886   1.871 -0.3264 -0.4073  0.2222
49669W        W92582   1.707  17.100  28.895 -0.1431 -0.1748  0.0999
49670W        W92583  30.348   3.241  25.681 -0.2163  0.3350 -0.1004
49671W        W92584   6.856   3.354   1.610 -0.0360 -0.1662  0.0183
49672W        W92585  32.358  23.085  19.341  0.1124  0.3357 -0.1108
49673W        W92586  26.493  17.111   5.564 -0.1866 -0.0580  0.1605
49674W        W92587   6.892  24.496  22.360  0.1131 -0.0472 -0.3409
49675W        W92588   0.586  18.238   1.216 -0.0141  0.1481 -0.0745
49676W        W92589   1.560  18.451  28.600  0.0339 -0.0718  0.1533
49677W        W92590  33.601   9.119  25.675  0.1058 -0.5923  0.1166
49678W        W92591  33.800  15.387  23.776  0.1180 -0.0739  0.0413
49679W        W92592  29.156  24.303  25.896 -0.0124  0.1624 -0.2690
49680W        W92593  25.938   8.459  18.821 -0.1455 -0.2626 -0.1453
49681W        W92594  27.951  15.580  18.133  0.1120  0.1084 -0.0909
49682W        W92595  21.147  20.790  26.247 -0.1010 -0.3190  0.3202
49683W        W92596   6.279   3.644  24.144 -0.1423 -0.0177  0.0924
49684W        W92597  24.024  16.865  22.870  0.2755 -0.0062  0.2365
49685W        W92598  29.676  25.132  27.962  0.2710  0.0872 -0.3864
49686W        W92599  30.106  22.697   7.002 -0.0632 -0.1743 -0.1278
49687W        W92600  29.871  15.909   1.941 -0.0615  0.2297 -0.0277
49688W        W92601  31.968  15.694  28.938  0.1109  0.2415  0.1392
49689W        W92602  25.772   4.459  14.948  0.1874  0.1927  0.1842
49690W        W92603  33.127  15.515  28.905 -0.3440  0.1291  0.0143
49691W        W92604   3.166   8.131  27.288  0.0903  0.0043  0.3839
49692W        W92605   2.660  20.359  22.847  0.3491 -0.0168 -0.0264
49693W        W92606  18.645  10.799  24.138  0.0627 -0.2957 -0.0375
49694W        W92607  29.264  23.861   1.056  0.1620  0.0866  0.2068
49695W        W92608  31.634   7.305  21.376 -0.2501  0.0298  0.1108
49696W        W92609   8.028  12.974  26.503  0.1027  0.1098 -0.3895
49697W        W92610  29.190  17.096   1.683  0.0198 -0.0501 -0.2232
49698W        W92611  33.382  15.150   6.241  0.2832  0.2746 -0.2146
49699W        W92612   4.149  11.855  24.004  0.0582 -0.1425  0.0366
49700W        W92613  25.983  16.010  24.543 -0.0102 -0.2169  0.0521
49701W        W92614  34.289  11.435  14.977 -0.0347 -0.0171 -0.0462
49702W        W92615  29.104   6.059  26.689  0.0784  0.1866 -0.1111
49703W        W92616  31.130  22.107  27.410 -0.1846  0.2682 -0.3075
49704W        W92617  34.139   4.311  29.378  0.0693  0.0028  0.0595
49705W        W92618  23.126  22.487  21.510  0.3388  0.2094  0.0257
49706W        W92619  11.047  10.564  19.622 -0.0344 -0.0825 -0.0196
49707W        W92620   2.847   8.407   5.539  0.0104 -0.2471  0.2927
49708W        W92621  24.914   5.874   2.966 -0.0138 -0.2255 -0.1770
49709W        W92622  21.412  16.670  25.671  0.1221 -0.3264 -0.0526
49710W        W92623   8.443  13.989   1.182 -0.1867 -0.0709  0.1960
49711W        W92624  23.019   6.573   5.980 -0.0739  0.3664  0.0502
49712W        W92625  27.838   4.661  21.342 -0.0112  0.0185 -0.0028
49713W        W92626   0.577  11.623   3.177  0.0951 -0.1296  0.1611
49714W        W92627   4.545  11.347  27.710  0.1327 -0.1835  0.0379
49715W        W92628   9.819   6.085  23.727  0.0291 -0.1250 -0.1069
49716W        W92629  31.297   8.721  29.005  0.0831  0.1573  0.0220
49717W        W92630  22.282  22.952  24.017  0.1034  0.0695  0.1025
49718W        W92631  25.628   8.156   0.685 -0.0114 -0.1389  0.1367
49719W        W92632  12.132  13.415  24.835 -0.0491  0.3015  0.1356
49720W        W92633   6.836  10.538  29.005  0.1095  0.3228  0.1607
49721W        W92634  16.400   5.948  26.890  0.3114 -0.0838  0.0020
49722W        W92635   3.730  14.690  29.396 -0.2454  0.0292  0.1725
49723W        W92636  27.052  12.908  24.211 -0.2001  0.1653 -0.1782
49724W        W92637  28.538  10.719  19.664 -0.2705 -0.1601 -0.2662
49725W        W92638   3.998   0.134  23.547  0.1237  0.0259  0.0393
49726W        W92639   5.590  10.228   1.473  0.1808 -0.1172  0.3388
49727W        W92640   8.029  19.785  26.852 -0.3168 -0.0688 -0.1121
49728W        W92641  29.934   5.200   0.676 -0.1999  0.1785 -0.0104
49729W        W92642  32.099  11.009  24.198 -0.0744  0.1349 -0.2680
49730W        W92643  27.621  26.572  29.387  0.1753  0.2007  0.1257
49731W        W92644  27.683  19.415  28.453  0.1837 -0.1460  0.0814
49732W        W92645  31.217  16.380  14.587 -0.3445 -0.0236  0.0225
49733W        W92646   2.333   3.961  18.229 -0.1269  0.0418  0.0623
49734W        W92647  33.696   9.129   2.598  0.1690 -0.0584 -0.0335
49735W        W92648  24.805  15.314   2.411  0.0583 -0.0581  0.0224
49736W        W92649  29.413  11.724  27.162 -0.0517  0.0721 -0.1103
49737W        W92650  25.358   6.831  19.112 -0.0291  0.3155 -0.1223
49738W        W92651  27.645  13.760  27.851  0.2242 -0.3608  0.2748
49739W        W92652   0.290  20.665   0.096  0.1723 -0.1216  0.3210
49740W        W92653   4.128  13.705  21.175 -0.2645  0.0137  0.1637
49741W        W92654  34.360  16.848  23.877 -0.3824  0.0208 -0.2063
49742W        W92655  19.439   0.448  23.537 -0.0670  0.1690 -0.2673
49743W        W92656  30.846  26.607  25.833  0.0840  0.0134  0.0182
49744W        W92657  23.221  12.765  27.800  0.2089  0.0477 -0.1704
49745W        W92658   4.581  12.497  17.147 -0.2689  0.1852  0.1263
49746W        W92659  31.671  13.380  18.100  0.2315 -0.0725 -0.1419
49747W        W92660  28.276  34.155  21.957  0.0418  0.0389 -0.0097
49748W        W92661  29.071   0.081  10.203 -0.0320  0.1123  0.0664
49749W        W92662  25.154  25.344  25.818  0.2446 -0.0348 -0.2691
49750W        W92663   7.631  10.288  27.376  0.0080 -0.1010 -0.2887
49751W        W92664  26.764  18.997   1.142 -0.1226  0.1513  0.1644
49752W        W92665   9.806  18.478   6.202 -0.0538 -0.0570  0.2675
49753W        W92666   8.813  23.838   4.190 -0.1348 -0.1045  0.2270
49754W        W92667  27.997   4.299  24.573  0.1131  0.2339 -0.2800
49755W        W92668  26.738  18.298   6.690 -0.0644  0.1707  0.2467
49756W        W92669  23.012   6.562  19.298 -0.1184  0.0534 -0.1675
49757W        W92670  29.186  15.988  25.895 -0.2194  0.0954 -0.3177
49758W        W92671  34.256  17.669   2.810  0.1527 -0.1566 -0.4132
49759W        W92672  33.325  24.048  24.479 -0.1259 -0.3042 -0.0924
49760W        W92673  24.030  10.629   0.462 -0.2929  0.0884 -0.0079
49761W        W92674  10.165   8.727  26.760  0.2694 -0.1075 -0.0517
49762W        W92675  25.044  12.016  26.142  0.0426  0.0453 -0.0366
49763W        W92676  29.724  22.605   9.503  0.1273 -0.1472  0.1419
49764W        W92677  31.766   9.687  29.329 -0.0517  0.1795  0.3895
49765W        W92678   2.498  14.157   7.158  0.0328  0.0319 -0.1448
49766W        W92679  33.538   7.068  18.031  0.1968 -0.1450 -0.2215
49767W        W92680  31.709  10.149   7.101 -0.0753  0.0551  0.3685
49768W        W92681  10.930  16.823   4.732  0.1643 -0.0358 -0.1647
49769W        W92682   5.877   8.504  24.231  0.0847  0.1082  0.2861
49770W        W92683  31.509  23.335  22.337 -0.0911 -0.2000  0.1382
49771W        W92684   5.498   5.800  22.341 -0.2242  0.2475  0.0100
49772W        W92685  28.577   8.682  18.312  0.0976  0.0370  0.1133
49773W        W92686  29.589   5.494   0.984 -0.1263  0.2024 -0.3018
49774W        W92687  29.083  20.587  24.918  0.1018  0.0051 -0.2000
49775W        W92688   4.991  19.092  24.649  0.2406 -0.0237 -0.0436
49776W        W92689  26.038  26.204  24.870 -0.2393 -0.0414  0.0461
49777W        W92690  11.545  16.217  27.750 -0.1775 -0.0095  0.1580
49778W        W92691   1.065  10.011  18.023  0.1646  0.0919  0.2259
49779W        W92692  29.746  19.573  27.681 -0.2346  0.1204  0.0745
49780W        W92693  26.105  12.694  14.437  0.1028  0.2183 -0.3393
49781W        W92694  21.537   3.445  28.408  0.1156  0.1333 -0.0545
49782W        W92695  16.783  26.379  25.432 -0.0143 -0.3138 -0.2084
49783W        W92696  22.410   9.940  25.388  0.1001 -0.1279 -0.1721
49784W        W92697  10.201  16.870   2.984 -0.0084 -0.0895  0.0938
49785W        W92698  32.691   8.302  17.185 -0.0350 -0.1255  0.1293
49786W        W92699   6.606   7.803  23.860 -0.2258 -0.1376  0.0463
49787W        W92700   3.974  21.899  24.608 -0.0133  0.1522 -0.1102
49788W        W92701  21.666  17.228   2.503 -0.1396 -0.2409 -0.4367
49789W        W92702  29.488  13.290   0.131  0.0156  0.2540 -0.0036
49790W        W92703  28.565   7.921  21.181  0.1095 -0.0084  0.0998
49791W        W92704  28.124  13.391  22.965  0.0131 -0.2453 -0.2972
49792W        W92705  27.540  15.666  26.595 -0.1584 -0.1360  0.0378
49793W        W92706  30.073   4.902  27.970  0.1950  0.4054  0.5033
49794W        W92707  33.728  22.732   4.182 -0.3353  0.2747  0.2624
49795W        W92708   6.120  10.199  28.135  0.0593  0.0216  0.1783
49796W        W92709   4.451  22.071  26.455  0.3828 -0.0494 -0.1961
49797W        W92710  32.141  24.807   4.253  0.2550 -0.0812  0.2162
49798W        W92711  32.839  19.483  25.336  0.0023  0.2794 -0.0027
49799W        W92712  31.717  12.497  18.401  0.4225  0.1168  0.1884
49800W        W92713  29.652  11.723   5.642  0.0125  0.1720  0.2677
49801W        W92714   5.414  18.690   1.722 -0.0622 -0.2395 -0.3482
49802W        W92715   3.176  11.352  21.604 -0.0435 -0.1815  0.1861
49803W        W92716  30.304  23.336  20.446  0.1512  0.0841 -0.0802
49804W        W92717  28.228   4.508  16.079  0.1562  0.1964  0.0209
49805W        W92718   4.106  12.703  23.341 -0.0980  0.2745 -0.0678
49806W        W92719  30.940  23.043   2.108  0.0860 -0.1081 -0.0523
49807W        W92720  21.220  22.541  14.337 -0.2302 -0.1691 -0.0648
49808W        W92721  22.257  16.505  22.926 -0.1127  0.3936  0.0797
49809W        W92722   6.050  19.625  28.507 -0.1712  0.0054  0.1748
49810W        W92723  28.608  18.364   2.032  0.2384  0.1104  0.2870
49811W        W92724   6.379   7.859  24.818  0.0076 -0.1178 -0.1714
49812W        W92725  12.204  13.007  23.508  0.0990 -0.2565 -0.1459
49813W        W92726  32.200  13.024   2.567 -0.4144  0.1084  0.3694
49814W        W92727   8.601   8.312  28.222  0.2177  0.2394  0.1692
49815W        W92728   0.761  10.720  23.592 -0.0366 -0.2846 -0.0109
49816W        W92729  23.267  22.429  19.526  0.4002 -0.3495  0.3068
49817W        W92730   5.495  13.526   1.133  0.0360 -0.3570 -0.2295
49818W        W92731   3.095  20.933  26.028 -0.2288  0.1342  0.4487
49819W        W92732  29.269  14.970  23.799 -0.5840  0.2514 -0.1229
49820W        W92733  25.127   8.591  16.424  0.2958 -0.0145  0.2861
49821W        W92734  24.309   9.771   3.694 -0.0378  0.2744  0.2753
49822W        W92735  32.365   4.857  20.063  0.1048  0.1122 -0.3648
49823W        W92736  24.915  18.549   4.187 -0.1688 -0.0228  0.0700
49824W        W92737   4.915   3.846  27.644 -0.1835  0.6209  0.0160
49825W        W92738  28.114  10.936  18.772 -0.2130 -0.1721 -0.4383
49826W        W92739   6.216  12.590  25.264 -0.2814 -0.1946 -0.2887
49827W        W92740  34.458   7.911  20.002 -0.2159 -0.1166  0.1275
49828W        W92741  29.339  15.075   1.994 -0.0089  0.1694 -0.0680
49829W        W92742  32.300  15.986   0.663  0.1539 -0.1198 -0.0142
49830W        W92743  23.699  23.520  27.400 -0.3132  0.1272 -0.2337
49831W        W92744  24.685  11.198  26.500  0.1090  0.0020  0.1115
49832W        W92745   1.602  31.123   0.911  0.1775 -0.3741 -0.2214
49833W        W92746   7.150  25.736   0.035 -0.0950 -0.0424 -0.1092
49834W        W92747   0.219  17.156  23.260  0.1869 -0.2657 -0.0139
49835W        W92748  23.408  14.814  26.432 -0.3065 -0.1070 -0.7065
49836W        W92749  17.495   5.865  27.934 -0.0353 -0.0332  0.1352
49837W        W92750   3.263  11.083  22.790  0.0302  0.2963 -0.0112
49838W        W92751   8.296  20.529   6.942 -0.0795 -0.2692  0.1087
49839W        W92752   4.253  18.240   6.715  0.3480  0.1867 -0.1145
49840W        W92753   0.688  15.086  21.622 -0.1018 -0.3491 -0.2919
49841W        W92754   7.094  21.202  24.811  0.0153 -0.0558  0.0434
49842W        W92755   4.560  21.447   2.271 -0.1138 -0.0467 -0.2865
49843W        W92756   2.808  13.905   0.803  0.2501 -0.0122 -0.1307
49844W        W92757  34.161  14.509   1.350  0.0725 -0.0372 -0.0254
49845W        W92758  23.394  18.028  24.003  0.0260  0.0994  0.3993
49846W        W92759  20.260  13.584  20.634  0.2595 -0.3415 -0.3799
49847W        W92760   9.591  10.646  27.645  0.2262 -0.0380 -0.2198
49848W        W92761  34.374  15.364  27.231 -0.2577 -0.0483  0.3301
49849W        W92762   0.461  17.071  15.438 -0.0747 -0.2094  0.0919
49850W        W92763   1.731  22.969  17.093  0.2011  0.1471 -0.3294
49851W        W92764   1.524  18.637  16.111  0.1560  0.4344 -0.1269
49852W        W92765  34.436  13.155  18.961  0.1281 -0.0782 -0.0043
49853W        W92766  31.761   3.989  21.402  0.3085 -0.1524  0.1250
49854W        W92767  22.435  26.255  21.647 -0.1683  0.0274  0.0358
49855W        W92768  31.099  11.868  20.171 -0.1062  0.1826  0.2943
49856W        W92769  34.212   9.347  16.834 -0.3742  0.0063  0.1010
49857W        W92770  25.981   9.972  21.752 -0.1105 -0.1773 -0.0429
49858W        W92771   7.191  16.896  16.642  0.5010  0.1186  0.0884
49859W        W92772  33.797  11.477  22.175  0.1118 -0.1636  0.1561
49860W        W92773   2.407   9.293  16.918  0.0092 -0.1459 -0.0280
49861W        W92774   7.521  13.244  26.576 -0.1048  0.0243  0.3188
49862W        W92775  34.062  19.851  21.271  0.0112  0.2430 -0.0196
49863W        W92776  32.037  12.876  18.579  0.0049 -0.1804 -0.0249
49864W        W92777  12.744  14.780  22.072  0.3859  0.1841 -0.1088
49865W        W92778  11.295  29.971  18.223 -0.1373  0.0214 -0.0865
49866W        W92779   2.304  25.569  15.995 -0.3963 -0.2146  0.0946
49867W        W92780  31.465  23.027  19.076  0.2604 -0.3123  0.2398
49868W        W92781   1.074   6.966  19.582 -0.2616  0.2225  0.2747
49869W        W92782  10.970  22.422  13.457  0.2001  0.3979 -0.0789
49870W        W92783  28.647  18.610  15.497 -0.0619 -0.1187 -0.2200
49871W        W92784  29.840   8.408  22.395 -0.0215  0.1330 -0.0499
49872W        W92785   2.796  18.732  25.310  0.0298  0.0866 -0.1897
49873W        W92786  33.739   4.639  24.679  0.3084 -0.2737  0.1874
49874W        W92787   0.928  10.697  22.410 -0.3751  0.1232  0.1590
49875W        W92788  30.542  25.692  13.164 -0.3506 -0.0404  0.2697
49876W        W92789  25.408  30.054  15.632 -0.1544 -0.2811  0.0376
49877W        W92790  29.396  26.088  15.813  0.0199 -0.3258 -0.0182
49878W        W92791   1.434  27.222  20.860 -0.1033 -0.2673 -0.2108
49879W        W92792  28.459  12.315  15.355  0.1846  0.2471  0.1740
49880W        W92793  26.096  15.834  15.145  0.4052  0.1080  0.1079
49881W        W92794   5.264  13.967  15.235  0.1240 -0.0725 -0.2920
49882W        W92795   2.447  13.371  16.906 -0.0064  0.1953 -0.1227
49883W        W92796  27.911  29.140  25.582  0.4754 -0.1563 -0.0268
49884W        W92797  10.436  18.280  24.606  0.2496  0.0063 -0.2293
49885W        W92798   2.830  21.973  15.237  0.0500 -0.0407 -0.2026
49886W        W92799  23.575   9.480  15.181  0.0164  0.2607  0.0535
49887W        W92800  33.835  15.723  14.093 -0.3433 -0.3489  0.0910
49888W        W92801  24.753  13.517  23.590  0.2084  0.1924 -0.0223
49889W        W92802   6.224  10.688  17.316  0.0796  0.0041 -0.0062
49890W        W92803  17.275  24.005  19.808 -0.3993  0.1889 -0.2141
49891W        W92804  32.362  16.869  19.876  0.1900 -0.1498  0.1927
49892W        W92805  31.676  15.349  16.922 -0.2377 -0.1383 -0.1835
49893W        W92806  28.362  15.846  18.202 -0.2224 -0.1257  0.1770
49894W        W92807   6.967  14.518  20.367 -0.0801 -0.0030 -0.1015
49895W        W92808  33.541  17.870  15.323 -0.0009  0.1388 -0.5352
49896W        W92809  28.808  28.110  18.402  0.0258  0.1360 -0.3417
49897W        W92810  27.347   3.875  27.792  0.0797 -0.0908  0.1928
49898W        W92811  32.135  11.345  14.501 -0.0575  0.2406  0.0576
49899W        W92812  28.679  19.858  21.328  0.3227  0.1997 -0.2815
49900W        W92813   2.267  16.856  14.792 -0.1347 -0.2603 -0.2995
49901W        W92814   9.108  13.862  14.696 -0.0137 -0.3102  0.0145
49902W        W92815  21.793   9.651  16.022  0.1240 -0.0733  0.2011
49903W        W92816   1.842  25.258  14.260 -0.0777 -0.0489  0.3000
49904W        W92817  31.826  20.637  20.933 -0.0495 -0.5478 -0.2170
49905W        W92818   5.975  14.705  16.758  0.1075 -0.2297  0.2460
49906W        W92819   0.608  13.121  17.229  0.1544  0.1593  0.3678
49907W        W92820  28.609   5.974  26.457  0.4103 -0.0189  0.0225
49908W        W92821   2.148   2.143  16.470 -0.2129 -0.5905  0.0785
49909W        W92822  31.342  27.670  17.281  0.1562 -0.1885 -0.2944
49910W        W92823  32.130  22.770  13.616  0.1696 -0.2655 -0.2988
49911W        W92824  29.036  17.185  18.832 -0.1138  0.1215 -0.0764
49912W        W92825  27.230  21.754  26.524 -0.3490  0.1458  0.2175
49913W        W92826   5.577  21.988  15.966  0.0933 -0.1164 -0.2265
49914W        W92827   1.315  25.821  22.953 -0.0504 -0.1149 -0.1085
49915W        W92828  25.278  20.591  16.996 -0.0164 -0.1987 -0.1436
49916W        W92829  27.665  18.170  19.087 -0.0602  0.0107  0.0986
49917W        W92830  23.710  15.346  12.795  0.2832  0.0325  0.1039
49918W        W92831   1.076  11.429  22.987 -0.2330 -0.0429 -0.0370
49919W        W92832   1.280  13.931  18.630  0.2152 -0.0483  0.1297
49920W        W92833  26.662   7.825  19.517  0.2387 -0.1570  0.1799
49921W        W92834  29.478   5.787  25.701  0.0690  0.0322  0.0344
49922W        W92835  29.886  13.559  25.679 -0.1564 -0.1068 -0.1836
49923W        W92836  33.051  15.702  23.650  0.0262 -0.1266  0.2550
49924W        W92837  27.144  16.966  14.371  0.1081  0.3013  0.0473
49925W        W92838  30.280  14.213  14.318 -0.3476 -0.1817  0.2303
49926W        W92839  22.728   9.083  20.489  0.0295 -0.1429  0.2530
49927W        W92840  18.091  17.153  12.151  0.0614  0.2893 -0.3440
49928W        W92841  28.700  17.073  22.830 -0.2631  0.0097  0.3495
49929W        W92842  32.742   8.549  16.339  0.1873 -0.3131  0.2012
49930W        W92843   0.779  11.940  15.419 -0.0371  0.0425  0.2696
49931W        W92844  31.098  15.516  18.485 -0.3605 -0.0474 -0.0778
49932W        W92845  28.262  19.557  14.485 -0.1683 -0.3024  0.0010
49933W        W92846   6.666   9.537  26.665  0.0451 -0.0930 -0.3390
49934W        W92847   6.037   6.313  19.232  0.1880  0.1448 -0.3137
49935W        W92848   3.136   9.745  16.702  0.1774  0.2543  0.0072
49936W        W92849  32.707  22.086  19.075  0.0685  0.0381  0.2077
49937W        W92850   0.811  11.163  22.701  0.1810  0.0207  0.1544
49938W        W92851   2.199  14.095  19.989  0.0514 -0.0873 -0.0592
49939W        W92852  31.131  28.302  13.723 -0.2401 -0.0349  0.0223
49940W        W92853  31.064  26.092  16.868  0.1511  0.2941  0.1375
49941W        W92854   0.007  29.926  19.646 -0.0189 -0.1244 -0.0173
49942W        W92855  31.123  12.858  23.186 -0.4599 -0.1005  0.0580
49943W        W92856   2.658  17.750  16.805  0.3760 -0.0430  0.0587
49944W        W92857  30.680  12.549  27.621 -0.1600 -0.0458 -0.2585
49945W        W92858  29.086   6.189  28.635  0.0398  0.1965  0.2209
49946W        W92859   7.564  18.135  13.953 -0.1632 -0.0372  0.1600
49947W        W92860  33.882  17.823  17.983 -0.2188  0.1779 -0.0197
49948W        W92861   2.002  19.736  17.134 -0.1330 -0.2365 -0.4089
49949W        W92862   4.174  19.998  24.560 -0.1834  0.3445  0.2865
49950W        W92863  22.985  13.708  19.203 -0.0760  0.2961  0.0422
49951W        W92864   1.229  10.809  23.680 -0.0073 -0.1423 -0.0069
49952W        W92865   6.142  20.366  14.382 -0.1618  0.3617 -0.1726
49953W        W92866  22.582   9.465  20.816 -0.1113  0.2924 -0.0275
49954W        W92867   0.773  10.507  20.183 -0.0414  0.3100 -0.1073
49955W        W92868  33.478  20.050  22.867  0.1389 -0.1437 -0.3683
49956W        W92869   2.014  10.729  17.665  0.1096 -0.0148  0.1003
49957W        W92870  30.155  13.677  21.739  0.1619  0.1917  0.1492
49958W        W92871  33.210   9.482  15.871  0.2887  0.1224  0.0706
49959W        W92872  26.808  20.356  18.479  0.1583  0.1009  0.1231
49960W        W92873   4.908  19.669  14.058 -0.1222 -0.0748 -0.0846
49961W        W92874   3.484  21.938  15.826 -0.1284 -0.0486 -0.1260
49962W        W92875  33.107  21.326  14.657 -0.2015  0.1762 -0.2392
49963W        W92876   2.886  11.545  19.878 -0.1004  0.1475  0.0967
49964W        W92877  34.152  22.411  23.474 -0.1815  0.2633  0.2892
49965W        W92878  23.120  28.697  16.326 -0.1186 -0.3068 -0.2180
49966W        W92879  29.793   8.555  23.915  0.1162  0.2333 -0.0659
49967W        W92880  32.595  17.957  15.738 -0.3491 -0.2055 -0.2560
49968W        W92881   1.319   6.672  18.077 -0.0100  0.3932  0.1510
49969W        W92882  29.845  15.580  23.365  0.0574  0.0498  0.2407
49970W        W92883  31.665  12.185  27.646  0.0212  0.0490 -0.0264
49971W        W92884  33.416   9.542  17.325 -0.0268 -0.0196 -0.1024
49972W        W92885  34.391  11.938  14.908 -0.0298  0.0953 -0.0347
49973W        W92886  29.301  14.135  21.509 -0.0117  0.0191  0.3178
49974W        W92887   4.069  26.100  18.206  0.1126  0.1647 -0.1805
49975W        W92888   4.826  21.035  24.516  0.2205 -0.2046 -0.1311
49976W        W92889  32.752  15.831  14.269  0.0706  0.0124 -0.0267
49977W        W92890   6.071  14.453  23.582  0.1951 -0.1636  0.0804
49978W        W92891  28.835  12.798  25.009 -0.0280  0.3599 -0.0718
49979W        W92892   6.657  14.311  24.718 -0.0963 -0.0454  0.2854
49980W        W92893  29.288  13.145  13.991  0.1741  0.2777 -0.3124
49981W        W92894  32.583  20.167  18.342  0.2700 -0.1846 -0.0678
49982W        W92895  25.222   7.495  15.983  0.1795  0.0025  0.0484
49983W        W92896  30.263  20.261  19.859 -0.1094 -0.0697  0.1262
49984W        W92897   1.230  21.981  16.108  0.1643 -0.0963 -0.1018
49985W        W92898  31.390  18.241  21.121 -0.1831  0.3223  0.1033
49986W        W92899   5.044  17.531  16.931 -0.2550 -0.0406  0.1412
49987W        W92900   1.895  18.762  15.125 -0.2427  0.1127  0.2036
49988W        W92901  33.079  16.245  15.012  0.2342 -0.2142  0.0193
49989W        W92902  27.848  21.639  22.858  0.1560  0.1060  0.1622
49990W        W92903  18.962  12.085   1.381  0.3366 -0.1635  0.1421
49991W        W92904  30.470  24.338  13.329 -0.0880 -0.0374  0.0753
49992W        W92905  29.148  13.684  14.378  0.1541  0.1279  0.0880
49993W        W92906  32.438  23.886  17.221 -0.1293  0.0155 -0.2007
49994W        W92907  31.625  20.711  23.742  0.0088  0.0728 -0.2226
49995W        W92908   3.559  11.476  24.224  0.2755 -0.0221 -0.2280
49996W        W92909   4.537  18.418  15.272  0.2289 -0.0620  0.1102
49997W        W92910   7.935   6.635  22.747 -0.2328  0.2520 -0.3567
49998W        W92911  33.218  14.761  26.023  0.1260 -0.0169 -0.2025
49999W        W92912  27.770  11.933  20.309  0.2138 -0.1308 -0.1356
50000W        W92913   6.634  11.104  18.699 -0.0162 -0.1429  0.2991
50001W        W92914  32.185   9.856  24.326 -0.4612  0.1719  0.0297
50002W        W92915   7.017  12.299  18.751  0.4042  0.0230 -0.1219
50003W        W92916   5.263  24.087  18.002 -0.3467  0.3274  0.0671
50004W        W92917  31.881  10.385  20.134  0.1112  0.1040 -0.0099
50005W        W92918  28.845  21.330  17.347  0.1322 -0.1194  0.0546
50006W        W92919   3.370  24.286  18.637  0.2217 -0.1502 -0.1361
50007W        W92920   1.628  27.977  14.136  0.1238 -0.0706  0.0116
50008W        W92921  31.376  19.010  20.363  0.1480  0.0790  0.0034
50009W        W92922   2.728  12.163  29.151  0.1589 -0.0664  0.3066
50010W        W92923  23.382  10.126  21.832  0.1092 -0.0891  0.3324
50011W        W92924  18.131   2.490  20.971 -0.0277  0.0485  0.1536
50012W        W92925   4.988  18.802  13.397 -0.0192 -0.0603 -0.0777
50013W        W92926  30.303  24.570  16.139 -0.0510 -0.0477  0.0288
50014W        W92927  32.461   5.738  22.653 -0.0555  0.2537 -0.1222
50015W        W92928  26.590  14.607  23.387  0.1365 -0.0083  0.1771
50016W        W92929   2.884  33.122  19.614 -0.0920 -0.1676  0.4094
50017W        W92930   0.928  15.368  21.283 -0.2964 -0.0241 -0.2754
50018W        W92931   5.084  13.146  18.077 -0.1503  0.3502  0.0018
50019W        W92932  15.607  12.191  15.637  0.1221  0.0062 -0.0326
50020W        W92933  30.747  17.016  14.524 -0.1203 -0.1812  0.1324
50021W        W92934   1.907  18.356  15.443  0.1734 -0.0442 -0.1112
50022W        W92935  32.872   8.891  20.331 -0.0412  0.0725  0.0639
50023W        W92936  26.212  21.615  13.317  0.2589 -0.3257 -0.1547
50024W        W92937   4.211  14.403  15.897 -0.2356  0.2735  0.0167
50025W        W92938   2.057  22.952  14.590  0.5411  0.0054  0.1254
50026W        W92939  19.249   5.927   2.092  0.0924  0.1357  0.3560
50027W        W92940  24.681   8.288  16.190  0.5096  0.4989 -0.0011
50028W        W92941  21.162  13.405  17.637  0.2086 -0.0749  0.2023
50029W        W92942  28.508  18.023  16.734  0.2541 -0.0660  0.2050
50030W        W92943  28.526  12.399  22.000 -0.0208 -0.2905 -0.3139
50031W        W92944   1.786  14.612  15.150  0.2154  0.0945  0.0525
50032W        W92945  15.530  14.723  12.736 -0.0939  0.0034  0.3386
50033W        W92946  29.278  17.545  19.594  0.2660 -0.1250 -0.0023
50034W        W92947  13.631  19.570  29.638 -0.0482 -0.0676  0.0700
50035W        W92948  30.779   8.794  21.372  0.3374  0.1374 -0.0604
50036W        W92949   3.821  16.753  17.145  0.0750  0.1309  0.1812
50037W        W92950  14.585  19.656  12.073  0.0109 -0.1514 -0.3134
50038W        W92951  28.909  10.873  16.095 -0.1877  0.0617  0.3261
50039W        W92952   6.908  19.090  23.123  0.0426  0.1467 -0.3133
50040W        W92953   4.613  10.849  17.937  0.3373 -0.0876  0.1478
50041W        W92954   3.781  10.707  15.763 -0.1045  0.0150 -0.1861
50042W        W92955  27.080   8.948  19.665 -0.0030  0.0350 -0.1532
50043W        W92956  24.491  33.963  19.699  0.0095 -0.0826 -0.0021
50044W        W92957   1.889  15.863  18.776 -0.1588 -0.0127  0.1814
50045W        W92958  34.150   9.112  17.286 -0.4948 -0.3851  0.1097
50046W        W92959  33.011  10.570  15.218 -0.1139  0.1355  0.1265
50047W        W92960  28.086  21.236  20.989  0.1538 -0.1718  0.1875
50048W        W92961   3.152  22.534  23.699  0.0987  0.4167 -0.1989
50049W        W92962  28.853  18.540  27.468  0.1704  0.2407 -0.0432
50050W        W92963   4.105  18.178  14.594  0.1705 -0.2122 -0.0062
50051W        W92964   1.927  15.536  24.586  0.0827  0.0635 -0.1483
50052W        W92965   3.279  13.751  18.016  0.4119 -0.1930  0.1244
50053W        W92966   4.264  22.387  15.854  0.2406 -0.0006 -0.0803
50054W        W92967  25.711  34.171  17.840 -0.1642 -0.3526 -0.2038
50055W        W92968   1.317  25.733  17.808 -0.1937  0.2538 -0.2623
50056W        W92969   3.585  18.059  13.805  0.0635  0.0567  0.2899
50057W        W92970  33.438  12.282  19.894 -0.0696 -0.1766 -0.2749
50058W        W92971  29.558  28.300  15.198  0.1393  0.0567 -0.0774
50059W        W92972   7.062  10.995  17.394 -0.1563 -0.0599 -0.0840
50060W        W92973  11.014  23.926  19.132 -0.2395  0.0272 -0.2403
50061W        W92974   3.546  20.869  16.077  0.0836 -0.1101  0.4109
50062W        W92975  29.781  10.035  16.913 -0.2551  0.0918  0.1453
50063W        W92976   8.502  24.225  13.818 -0.0919  0.1195 -0.0141
50064W        W92977  25.514  18.184  18.873  0.1130 -0.1545 -0.4368
50065W        W92978   4.135  24.767  29.462 -0.2326  0.0435  0.4294
50066W        W92979   0.405  22.417  25.855 -0.2586  0.2014 -0.4596
50067W        W92980  28.333  15.787  14.202  0.2097  0.4322 -0.0378
50068W        W92981   4.707  12.538  16.545  0.2476 -0.0796  0.1685
50069W        W92982   0.247  29.545  19.372  0.1672  0.1251  0.1747
50070W        W92983   5.346  24.796  26.226 -0.0332 -0.3077  0.4721
50071W        W92984  22.377  23.904  27.917  0.0563 -0.0248  0.0500
50072W        W92985   0.136  13.976  21.812  0.0003  0.0320  0.0736
50073W        W92986   7.740  12.848  21.147  0.0725  0.0426 -0.2315
50074W        W92987  30.510  21.192  14.890  0.2019 -0.0433  0.2816
50075W        W92988  32.835  16.648   0.847  0.1630  0.0659 -0.1872
50076W        W92989  33.995  19.697  13.643  0.0446  0.2467  0.0237
50077W        W92990  31.284   8.483  18.917 -0.0217  0.0769 -0.2913
50078W        W92991  26.475  23.018  16.696  0.4056 -0.0365  0.1300
50079W        W92992  11.343  29.991  16.071 -0.0131  0.2529 -0.2090
50080W        W92993  30.403  20.554  13.938 -0.1015 -0.1721  0.0888
50081W        W92994  23.417  18.085  12.955  0.0575  0.0187  0.4258
50082W        W92995  27.549  28.111  26.601 -0.0203 -0.1810 -0.0502
50083W        W92996   1.102   3.834  18.799 -0.2379  0.2254  0.1298
50084W        W92997  31.204  26.827  23.493  0.2265 -0.2702  0.3093
50085W        W92998  21.857  25.638  23.285 -0.0721 -0.1528  0.1086
50086W        W92999   3.186  31.696  27.451  0.4302  0.0226  0.0414
50087W        W93000  27.365  14.865  19.450 -0.1675 -0.1408 -0.2105
50088W        W93001  32.114  10.581  26.309  0.1129  0.0445 -0.1600
50089W        W93002  23.568   8.731  24.687 -0.0913  0.2835  0.2182
50090W        W93003   6.638  11.544  23.984  0.0714 -0.3009 -0.3283
50091W        W93004   8.642  25.621  29.301  0.0734 -0.1595  0.1876
50092W        W93005   4.265   7.517  20.525  0.1540  0.2674 -0.2806
50093W        W93006   4.404  24.054  20.822  0.1870 -0.2199 -0.2177
50094W        W93007  32.381  12.320  23.281 -0.2489  0.2730 -0.1924
50095W        W93008  33.087  26.166  19.033  0.1025 -0.1264 -0.2077
50096W        W93009  26.377   6.907  16.909  0.1418  0.2258 -0.0283
50097W        W93010   3.254  23.625  15.496  0.0806  0.0214  0.1725
50098W        W93011   8.361  19.648  23.758 -0.3733 -0.1217  0.3096
50099W        W93012  28.149  21.201  21.506  0.1451  0.5060 -0.0638
50100W        W93013   6.561   8.204  21.059 -0.2010 -0.0769  0.0862
50101W        W93014  29.386  16.708  14.217  0.1710 -0.3903  0.0113
50102W        W93015  28.431   9.699  22.579  0.2166  0.3456  0.1407
50103W        W93016   8.677   7.532  16.333  0.1229 -0.0102 -0.0634
50104W        W93017   0.593  11.768  26.792 -0.1326  0.0350 -0.0008
50105W        W93018  25.817  16.121  18.770 -0.1744  0.1113  0.1534
50106W        W93019  10.403   9.414  24.769  0.1123 -0.0171  0.0710
50107W        W93020  25.897  21.063  14.418  0.1416  0.2420  0.0800
50108W        W93021   3.471   8.784  17.259 -0.0563  0.2541 -0.2666
50109W        W93022   4.257  16.382  24.549  0.1749 -0.1181  0.1754
50110W        W93023   0.556  22.116  21.175  0.1902 -0.1208  0.0863
50111W        W93024  34.455  27.928  28.100  0.1978  0.0783 -0.0314
50112W        W93025  32.333  18.401  20.572 -0.1766  0.4590  0.5095
50113W        W93026  29.241  25.201  25.141  0.0833  0.1087  0.0459
50114W        W93027  29.394  11.524  27.628  0.2558  0.2488  0.1393
50115W        W93028   6.890  17.140  21.568  0.2874 -0.1873 -0.0737
50116W        W93029   6.779  16.651  17.493  0.0279 -0.1708  0.0838
50117W        W93030   0.598  22.318  18.710  0.1249  0.3340  0.6677
50118W        W93031   2.192  20.685  15.727 -0.1292  0.2612  0.0864
50119W        W93032  17.719  20.078  22.560  0.0860 -0.7211 -0.1500
50120W        W93033  27.034  16.344  20.215 -0.2484  0.1928 -0.0620
50121W        W93034  34.461  19.135  22.155  0.1357 -0.0698 -0.1400
50122W        W93035  27.279  23.009  27.227  0.1477  0.1252 -0.3076
50123W        W93036  25.104  21.027  21.146  0.1778 -0.2525  0.2281
50124W        W93037  32.919   7.507  29.563  0.2470 -0.0122 -0.0957
50125W        W93038   2.896  32.125  19.979 -0.1168 -0.0229 -0.1278
50126W        W93039  32.687  10.311  20.035 -0.2769 -0.5477 -0.2854
50127W        W93040   2.214  18.332  20.080  0.1969  0.2259 -0.1267
50128W        W93041  10.966  14.308  28.767  0.1169  0.0227 -0.3606
50129W        W93042  31.050  26.804  14.927 -0.1337 -0.1514  0.1455
50130W        W93043  22.410  29.274   3.055  0.1358  0.0949  0.0873
50131W        W93044   1.601  16.704  14.171  0.0625  0.2162 -0.1100
50132W        W93045   0.561  11.625  28.000  0.1994  0.1758 -0.0324
50133W        W93046  29.998  15.579  16.045  0.0363 -0.0492 -0.2778
50134W        W93047  27.989  15.646  20.567  0.0783  0.2933 -0.0498
50135W        W93048   0.039  20.696  25.039  0.1257  0.1699  0.0038
50136W        W93049  32.697  14.665  16.590  0.3634 -0.1945 -0.4748
50137W        W93050  30.863  23.182  23.316  0.0651  0.3040 -0.1289
50138W        W93051   1.271  26.001  18.843  0.3046  0.3404  0.0643
50139W        W93052  30.077  19.209  18.851 -0.0313 -0.0285 -0.1694
50140W        W93053  25.954   1.549  29.772 -0.3512 -0.1906  0.0327
50141W        W93054  32.418  22.960  15.343  0.2174 -0.1302  0.0193
50142W        W93055   8.875  15.098  16.313 -0.0843 -0.0872 -0.0154
50143W        W93056  28.872  21.519  15.115 -0.1250 -0.3279  0.1341
50144W        W93057  33.781  20.266  19.615 -0.0401 -0.1760  0.1118
50145W        W93058  26.888  26.446  25.033 -0.1124  0.0324  0.2154
50146W        W93059   2.696   9.334  16.124  0.2566  0.2832 -0.1386
50147W        W93060   3.577  23.810  17.316  0.2907  0.1339 -0.0069
50148W        W93061  13.470  21.314  14.236  0.2386  0.0786 -0.3328
50149W        W93062  29.070  10.284  17.960  0.1649  0.0569  0.0646
50150W        W93063   8.519  24.369  24.771  0.0700 -0.1806  0.0162
50151W        W93064   0.184  11.479  19.153 -0.1714  0.3300  0.0268
50152W        W93065   0.597  21.175  24.167  0.1555 -0.3646 -0.1306
50153W        W93066  33.946  14.515  22.869 -0.0667 -0.0418 -0.2737
50154W        W93067  23.088  13.808  23.223 -0.0651 -0.0827 -0.1542
50155W        W93068  34.128  12.716  15.489 -0.1236  0.0788 -0.1679
50156W        W93069   0.352  17.255  14.434  0.2689 -0.0374 -0.0187
50157W        W93070  29.776   7.505  15.399 -0.0374 -0.0532 -0.1199
50158W        W93071   6.499  14.143  21.519 -0.0176  0.3017  0.3084
50159W        W93072   0.717   2.702  24.890 -0.0593  0.1311  0.1246
50160W        W93073   0.493  17.529  19.485  0.0098  0.0643 -0.2938
50161W        W93074  21.406   8.617  22.029 -0.0264  0.1312  0.0901
50162W        W93075   3.429  13.071  16.994  0.0177 -0.0762 -0.2918
50163W        W93076   5.231  11.282  15.775 -0.1496  0.1584  0.0285
50164W        W93077  24.999  25.221   3.298  0.3238 -0.0307  0.1844
50165W        W93078   0.416   4.244  19.367 -0.1642  0.0715 -0.0000
50166W        W93079  31.294  13.591  19.855  0.0783  0.2169 -0.2446
50167W        W93080  27.419  26.034  15.290 -0.0457  0.5233  0.1693
50168W        W93081  30.948  21.688  16.287 -0.3064  0.0834  0.1986
50169W        W93082   2.636  22.192  19.325  0.0694  0.2001  0.0012
50170W        W93083  27.422   0.121  21.629  0.1024 -0.3706 -0.2567
50171W        W93084  23.930  28.179  21.457  0.0968 -0.0219  0.0666
50172W        W93085   3.671  13.259  22.856 -0.3363 -0.1929 -0.0316
50173W        W93086  31.419  28.122  21.401  0.1427  0.0130 -0.0717
50174W        W93087  29.670  28.649  18.635 -0.0411 -0.0366 -0.0075
50175W        W93088   3.229   7.255  20.795  0.0280 -0.0583  0.2290
50176W        W93089   4.513  14.068  26.777 -0.2140 -0.0771  0.1201
50177W        W93090  32.429  21.057  21.268  0.1073  0.1765  0.4143
50178W        W93091   6.754  11.205  15.865  0.0679  0.0473 -0.0484
50179W        W93092   2.449   5.975  21.718 -0.1927  0.0990 -0.1029
50180W        W93093   7.766  26.619  15.210  0.0950 -0.0410 -0.0834
50181W        W93094  33.963  14.595  29.551 -0.0443 -0.2783  0.0271
50182W        W93095  29.947  14.177  18.374  0.1421 -0.1725  0.1689
50183W        W93096   4.752  19.094  28.502  0.3050 -0.0559  0.1758
50184W        W93097   9.689  18.376  17.197  0.0704  0.1830 -0.1017
50185W        W93098  34.006  20.609  25.264  0.1619 -0.3583 -0.3509
50186W        W93099   5.433  14.598  24.784 -0.0224 -0.1764 -0.3579
50187W        W93100   4.160   4.833  26.327 -0.0215  0.2339 -0.1199
50188W        W93101  29.830  19.210  29.107 -0.2008 -0.1318 -0.2363
50189W        W93102  31.425  20.286  15.589  0.2832  0.0227 -0.2090
50190W        W93103   2.315  22.964  18.092  0.3009 -0.0637 -0.1071
50191W        W93104   1.878   8.657  20.676 -0.0811 -0.0367 -0.0943
50192W        W93105  34.175  14.331  17.794 -0.2411  0.1089  0.0079
50193W        W93106  28.297  12.049  27.242 -0.0979  0.1120 -0.0233
50194W        W93107  28.632  28.034  22.389  0.0021 -0.2580  0.2774
50195W        W93108   5.394  14.810  18.914  0.3125 -0.3638  0.2945
50196W        W93109  31.141  16.735  26.286 -0.0373  0.3112 -0.2988
50197W        W93110  26.238  19.843  12.450  0.2224  0.3110 -0.0686
50198W        W93111  27.610   9.219  28.761  0.0547 -0.1655  0.0457
50199W        W93112  19.368  32.231   1.168 -0.0296  0.0499 -0.4186
50200W        W93113  30.489   4.548  27.756 -0.1588 -0.1407 -0.0320
50201W        W93114  30.204  21.647  13.146 -0.1477  0.2246  0.0364
50202W        W93115  30.383  26.878  17.717 -0.2054  0.0206 -0.4011
50203W        W93116  27.791  26.069  17.986 -0.0579 -0.0841 -0.2144
50204W        W93117  33.975  17.679  16.240 -0.1983  0.1827 -0.1239
50205W        W93118  26.788  13.671  22.879  0.0974 -0.0321  0.3873
50206W        W93119   0.002  19.680  17.896  0.1063  0.1982  0.4695
50207W        W93120  22.404  23.893  18.950 -0.1463  0.1941 -0.0397
50208W        W93121  32.063   9.408  20.839 -0.1170  0.0512  0.1846
50209W        W93122   4.505   5.919  17.775 -0.2743 -0.0562 -0.2593
50210W        W93123   7.872   9.544  26.371 -0.1447 -0.2700 -0.0980
50211W        W93124  26.001  19.632  13.324 -0.2190  0.4137  0.1336
50212W        W93125  33.737  23.380  21.154  0.0513  0.1129 -0.0031
50213W        W93126   5.372  18.298  16.078  0.0235 -0.0431 -0.0691
50214W        W93127   3.089   4.608   1.876 -0.0362 -0.1018 -0.1617
50215W        W93128  30.579  17.164  18.776 -0.1699 -0.0231  0.0162
50216W        W93129  29.041   2.092  28.272  0.2220 -0.2628  0.0690
50217W        W93130   6.499   9.230  24.242  0.1476 -0.1658  0.0559
50218W        W93131  29.211  29.094   4.921 -0.0606 -0.0398  0.0995
50219W        W93132  13.385  24.140  16.222  0.3840  0.2631  0.0325
50220W        W93133  22.940  33.605  20.615 -0.3763  0.2016 -0.0097
50221W        W93134  32.078  20.493  23.818 -0.1483  0.1486 -0.1316
50222W        W93135  21.105  21.321  15.811  0.1576 -0.2831  0.2393
50223W        W93136  17.255   1.873  15.867 -0.2669  0.1349  0.1130
50224W        W93137   0.669  24.199  21.421 -0.0926 -0.0747 -0.1454
50225W        W93138  33.861  16.368  17.381 -0.2378 -0.1773 -0.0780
50226W        W93139  31.346   5.400  16.199  0.0919 -0.0331  0.0880
50227W        W93140  29.272  17.223  22.050  0.2499  0.0169  0.0770
50228W        W93141  28.022  25.056  14.916  0.0900 -0.2688 -0.1422
50229W        W93142  10.446   4.146  23.426 -0.1050  0.1567 -0.1548
50230W        W93143  24.193  23.756  20.940  0.3399  0.0809  0.0108
50231W        W93144   8.152  18.320  14.647  0.0551  0.1853 -0.3027
50232W        W93145  33.015   5.489  20.965 -0.0307 -0.2514  0.1647
50233W        W93146   8.708  17.168  14.349 -0.1144 -0.1987  0.3595
50234W        W93147   5.295  19.998  16.118 -0.0401  0.1552  0.0436
50235W        W93148   4.747   0.950  18.744 -0.1809  0.1188 -0.0634
50236W        W93149  27.321  29.608  22.108 -0.1606  0.0818 -0.0965
50237W        W93150  27.880  13.964  19.056 -0.4528 -0.0100 -0.0133
50238W        W93151   7.951  15.535  20.462  0.0516 -0.1510 -0.3648
50239W        W93152  31.614  12.845  18.872 -0.0168 -0.0076 -0.1185
50240W        W93153  30.754  17.388  16.346 -0.2082 -0.0292 -0.0483
50241W        W93154   1.900  21.022  23.860 -0.0065  0.1588 -0.1032
50242W        W93155   8.219   9.111  24.879  0.2718 -0.3812 -0.3416
50243W        W93156   1.428  16.708  25.997 -0.2669 -0.2599  0.1680
50244W        W93157   6.096   3.712  18.637  0.0119 -0.1052  0.2064
50245W        W93158   9.892  21.261  25.452 -0.1539  0.2922 -0.2174
50246W        W93159   3.104  22.615  15.584  0.1380  0.0540 -0.1421
50247W        W93160   2.416  15.732  27.264  0.1660  0.1786  0.0452
50248W        W93161  30.868  10.466  15.110 -0.2162 -0.0791  0.0738
50249W        W93162   2.940  17.627  14.704  0.0707 -0.1951 -0.4556
50250W        W93163  32.156  15.727  18.657 -0.1116  0.2283 -0.0751
50251W        W93164  24.440  23.847  23.178  0.0893 -0.0147 -0.0141
50252W        W93165  23.898  16.580  23.841  0.0713  0.0673 -0.0691
50253W        W93166   1.393  11.235  17.754  0.0309  0.0510 -0.1861
50254W        W93167   7.288   2.359  25.697  0.0440 -0.1179 -0.0540
50255W        W93168  32.690  10.991  14.987  0.1289  0.2343 -0.1807
50256W        W93169   1.807  13.705  17.382  0.2844 -0.2285  0.0836
50257W        W93170   4.840  14.411  22.510  0.0832 -0.0839  0.0095
50258W        W93171   9.760  23.496  16.422 -0.1515  0.1006  0.0802
50259W        W93172  31.818  16.383  17.147 -0.0651 -0.0413 -0.0477
50260W        W93173   1.099  16.887  20.379  0.2353  0.0031 -0.1679
50261W        W93174  31.298  16.096  19.126 -0.3326  0.1540 -0.0649
50262W        W93175   9.471  22.934  22.567 -0.2074  0.2422 -0.2672
50263W        W93176  26.444  14.690  23.860 -0.0706 -0.2552  0.0518
50264W        W93177  19.356  12.176  13.940 -0.0644 -0.0628  0.0459
50265W        W93178   0.396  19.836  25.668 -0.0842  0.4363  0.1133
50266W        W93179   9.729  17.384  27.114  0.0577  0.1760 -0.2379
50267W        W93180  22.864  16.645  24.992 -0.0759 -0.1106 -0.0179
50268W        W93181  30.230  15.269  18.134 -0.0466 -0.2743  0.2241
50269W        W93182  29.675  13.216  25.270 -0.1158  0.1833  0.1482
50270W        W93183  32.893  24.074  15.385  0.0270  0.0035 -0.0327
50271W        W93184  22.826  17.716  17.857 -0.0144  0.2262 -0.0512
50272W        W93185   0.734   2.195  24.523 -0.2031 -0.1639  0.3308
50273W        W93186  22.060   1.456  24.786 -0.0282  0.2473  0.0347
50274W        W93187  29.003  23.952  21.856 -0.0955  0.2401 -0.0225
50275W        W93188  27.480  21.144  18.607  0.1601 -0.2530  0.3820
50276W        W93189   4.025  12.431  16.947 -0.2002  0.3230  0.0717
50277W        W93190   3.569   6.757  22.463  0.0308 -0.3325 -0.1485
50278W        W93191   1.074  23.402  23.170 -0.0186  0.1458  0.2939
50279W        W93192   3.760  23.576   3.415  0.3583  0.3427  0.0583
50280W        W93193  26.556  11.394  21.007  0.0290  0.1684 -0.0919
50281W        W93194   6.997  16.520   4.883 -0.0963  0.1746  0.2194
50282W        W93195   2.033  18.952  19.843  0.1074 -0.0135 -0.1110
50283W        W93196  11.144  24.806  25.686  0.3477  0.1779 -0.3576
50284W        W93197  20.827  21.105  11.987 -0.2782  0.1792 -0.2012
50285W        W93198   3.095  15.309  20.058 -0.1078  0.0259  0.0387
50286W        W93199  29.827  10.900  14.548  0.0964 -0.0539 -0.0439
50287W        W93200  25.961  24.867  20.095  0.1989 -0.2034 -0.2551
50288W        W93201  27.691  19.360  21.408 -0.1652  0.1038 -0.1775
50289W        W93202  18.110  15.404  26.296 -0.1880  0.1156 -0.2188
50290W        W93203  28.239  23.927  16.328 -0.0517  0.1093  0.1141
50291W        W93204   0.996  10.338  27.894  0.0858  0.0583 -0.2746
50292W        W93205  31.821  11.961  25.448  0.1478  0.2148 -0.2977
50293W        W93206  27.556   9.237  25.445 -0.0072  0.1652 -0.0085
50294W        W93207  32.468  13.547  26.254  0.1069 -0.2617 -0.1113
50295W        W93208  20.540  15.676  27.698  0.0692 -0.0502  0.0252
50296W        W93209  32.954  24.360  24.743 -0.1665  0.2785  0.1689
50297W        W93210   1.573  24.488  13.769 -0.1092  0.0549 -0.0355
50298W        W93211  20.407   5.365  21.215  0.0089 -0.0703 -0.1683
50299W        W93212  30.145  11.484  24.434  0.2759 -0.2248  0.2441
50300W        W93213   0.586  20.293   2.983 -0.2124 -0.3906 -0.1776
50301W        W93214   0.602  21.590  15.538  0.2196  0.3938 -0.3528
50302W        W93215   6.284  23.990  29.758  0.1070  0.0823 -0.0375
50303W        W93216   0.237  25.266  20.626 -0.0977 -0.2823  0.1293
50304W        W93217  25.256  33.401  26.370 -0.1584  0.2857 -0.0720
50305W        W93218   5.648  14.239   1.854  0.2772  0.2525  0.0011
50306W        W93219  21.503  17.676   2.590  0.1916  0.1453 -0.0955
50307W        W93220   8.379  16.161  25.323 -0.2207 -0.2610 -0.1987
50308W        W93221  31.453  17.853  24.915 -0.0105  0.1763  0.0759
50309W        W93222   6.661   9.322  19.130 -0.2064  0.0505 -0.1853
50310W        W93223   0.976  21.436  28.390 -0.1097 -0.0943  0.2578
50311W        W93224   5.966  13.425  19.556 -0.0731  0.1779 -0.1381
50312W        W93225   6.505  21.623  23.623 -0.1507  0.4163 -0.0726
50313W        W93226  23.969  11.170  13.954 -0.0826  0.0813  0.3218
50314W        W93227   9.943  30.822  16.383  0.0642 -0.0142  0.1789
50315W        W93228  28.013  14.792  18.979 -0.1618  0.5140 -0.1292
50316W        W93229  33.122  17.310   1.245 -0.1085 -0.1221  0.0153
50317W        W93230  30.538  14.431  23.043  0.0408 -0.2091 -0.0778
50318W        W93231  27.035  17.080  16.699 -0.0220 -0.2672 -0.0021
50319W        W93232  33.081  23.277  28.065 -0.0192 -0.2354  0.1027
50320W        W93233   3.198  18.299  17.377 -0.1193 -0.0424  0.2091
50321W        W93234  18.007  30.347  18.328 -0.1632  0.1235 -0.2785
50322W        W93235  25.194  23.466   1.660 -0.2134 -0.2896  0.1987
50323W        W93236  31.525  19.048  24.243 -0.1016 -0.4259 -0.1430
50324W        W93237   3.090  19.857   0.575  0.1730 -0.0315 -0.0028
50325W        W93238  29.379  19.290  20.257  0.3760  0.1686 -0.1025
50326W        W93239   6.261  26.497  18.824  0.0075  0.1635 -0.2879
50327W        W93240   5.414  22.237   1.359  0.1496  0.0224 -0.0573
50328W        W93241   1.304  15.907  23.024  0.1061  0.0872  0.3154
50329W        W93242   2.862  21.158  25.669  0.1014  0.0051  0.1747
50330W        W93243  30.396   7.209  23.470  0.1633 -0.2697 -0.2434
50331W        W93244   1.569  17.102  21.874 -0.1686  0.3241  0.0715
50332W        W93245   4.878  13.382  15.235  0.5202  0.0813 -0.1451
50333W        W93246  25.377  23.452  20.442  0.1889  0.2072  0.1483
50334W        W93247  30.986  21.401   8.777 -0.0627 -0.0730  0.0192
50335W        W93248  33.135  19.944   2.179  0.3080  0.3898  0.0905
50336W        W93249   1.105  23.442  25.411  0.1831 -0.0597 -0.2425
50337W        W93250   7.037  16.318  22.040  0.0937 -0.0880  0.0200
50338W        W93251   6.819  22.241  24.773 -0.3720  0.0209 -0.0851
50339W        W93252   7.435  15.697  24.624 -0.0211 -0.0268 -0.1496
50340W        W93253  24.113  20.760  27.278  0.3298 -0.5623  0.1248
50341W        W93254  32.351  12.279  14.247  0.0929 -0.1964 -0.0099
50342W        W93255  29.509  13.702  24.620 -0.0331  0.1213  0.1150
50343W        W93256   9.892  17.375   8.362  0.0752 -0.2166 -0.1154
50344W        W93257  25.016   0.171  28.130 -0.0960 -0.0080 -0.3237
50345W        W93258  10.483  24.054  14.874 -0.3972 -0.0499 -0.0210
50346W        W93259   1.260  17.428   5.637  0.1406 -0.0175  0.2938
50347W        W93260  33.064  19.011  24.360  0.0805 -0.1225 -0.0415
50348W        W93261  30.124  15.340  29.539  0.0701  0.1684  0.4366
50349W        W93262   1.530  17.731   5.981 -0.1009  0.1210 -0.3590
50350W        W93263  23.906  20.638  20.585 -0.3729 -0.1671  0.1025
50351W        W93264  28.259  23.687  23.002 -0.1799  0.1420 -0.1488
50352W        W93265  28.690  15.291  14.525 -0.1140 -0.2456  0.1770
50353W        W93266   1.707  12.373  20.654  0.0207  0.3174  0.0959
50354W        W93267   5.665  31.923  17.047 -0.0840 -0.0986 -0.0961
50355W        W93268   4.847  13.739  27.390 -0.0554  0.0390 -0.3663
50356W        W93269  29.168  15.837   0.498 -0.3305  0.0481 -0.1362
50357W        W93270  29.649  14.383  14.912  0.0804  0.1939  0.4431
50358W        W93271  27.933  19.503  13.039  0.0428 -0.0750 -0.2632
50359W        W93272  25.757  15.003  27.860  0.0900  0.0660 -0.0498
50360W        W93273  21.222  25.700  13.644 -0.0866 -0.0998 -0.2040
50361W        W93274  16.900  20.864   4.417  0.0348 -0.0063 -0.0871
50362W        W93275  33.010  14.016  22.436 -0.1735  0.2455 -0.2006
50363W        W93276  28.659   8.446  24.727  0.0306  0.0692  0.2211
50364W        W93277  26.405  22.763  25.610 -0.0187  0.0035  0.0345
50365W        W93278  10.313  17.956  22.873 -0.2211 -0.0875 -0.2016
50366W        W93279   8.800  13.911  19.768  0.1986  0.4325  0.0462
50367W        W93280  31.817   5.075  23.468 -0.3332  0.3678  0.1301
50368W        W93281   3.497  18.869  14.805 -0.0176  0.1111  0.2102
50369W        W93282  27.243   7.986  20.040 -0.1701 -0.2140 -0.0916
50370W        W93283  30.819  29.251   5.294 -0.0796 -0.2928  0.1198
50371W        W93284   4.275   4.765  16.938 -0.2631 -0.1763 -0.1373
50372W        W93285  33.914  12.279  18.600  0.1903 -0.0640 -0.1968
50373W        W93286   4.625  27.664   1.674 -0.1357  0.0760 -0.0482
50374W        W93287  33.961  19.706  18.530 -0.2023 -0.0707 -0.1571
50375W        W93288  29.995  24.257   1.552  0.1217 -0.1299  0.2436
50376W        W93289  30.369  17.637  28.780  0.0644 -0.1917  0.2153
50377W        W93290  27.095  23.452  22.173 -0.0705  0.2510 -0.1798
50378W        W93291  28.825  21.622  26.538  0.0074  0.3887 -0.1877
50379W        W93292   6.657   4.441  22.246 -0.2865  0.1060  0.1343
50380W        W93293  13.442  20.081  25.617 -0.2142  0.1781 -0.0363
50381W        W93294  27.733  14.672  27.448 -0.0663 -0.2075  0.2660
50382W        W93295  16.940  27.082  21.264  0.0605  0.3200 -0.1334
50383W        W93296  34.430  10.975  17.980 -0.2181  0.2817  0.0852
50384W        W93297  26.586   7.200  22.013 -0.0351  0.2387 -0.0592
50385W        W93298   4.111  17.855  23.262  0.2032  0.0615 -0.2396
50386W        W93299   2.194  20.973   3.120 -0.0772 -0.0626 -0.2592
50387W        W93300  33.017  16.791  21.069  0.4552 -0.2820 -0.1076
50388W        W93301   1.457   9.959  22.305 -0.0961 -0.0856  0.0792
50389W        W93302   2.110  15.785   2.463  0.1548 -0.0998 -0.0211
50390W        W93303  34.285  16.239  21.555  0.0450  0.1138  0.0462
50391W        W93304  29.487  18.052  23.783 -0.1194  0.1869 -0.1446
50392W        W93305  32.207  33.122  22.597  0.0790  0.1217  0.0068
50393W        W93306  26.359   9.678  24.278  0.0212 -0.4370 -0.1546
50394W        W93307  23.200  15.914  17.202  0.2844 -0.0473 -0.2844
50395W        W93308  33.281  17.586   2.602  0.2148 -0.0020 -0.1090
50396W        W93309  29.179  18.869  15.431  0.2680 -0.2416 -0.1185
50397W        W93310  29.360  19.031  25.155 -0.0908  0.1311  0.0476
50398W        W93311   0.809  13.527  16.048 -0.0205  0.1034 -0.1427
50399W        W93312  31.572  15.037  19.885 -0.1643  0.0212 -0.0993
50400W        W93313  32.554  19.103  25.132 -0.0664  0.0323  0.3165
50401W        W93314   1.469  16.939   0.641  0.2031 -0.0988 -0.0743
50402W        W93315  32.059  26.821  21.729  0.1999 -0.0777  0.3256
50403W        W93316  30.018  15.181  23.172  0.2155  0.1074  0.0809
50404W        W93317  32.082  12.269  26.539  0.1357  0.0702  0.0852
50405W        W93318   4.068  11.765  29.527  0.3905 -0.0135  0.3036
50406W        W93319  31.574  25.066  17.730  0.0263 -0.1112  0.3830
50407W        W93320   3.056  16.988  27.659 -0.1429  0.2376 -0.0748
50408W        W93321  15.041  16.705  26.135  0.1106  0.1249 -0.0488
50409W        W93322   0.842  16.357  29.742  0.0234 -0.0275  0.3020
50410W        W93323   2.780  11.211   0.400  0.0372 -0.0304  0.2019
50411W        W93324  32.811   7.944  20.162  0.1496 -0.1337 -0.1968
50412W        W93325  32.631  16.422  19.067  0.0878 -0.0714 -0.2571
50413W        W93326  30.026  17.245   1.687 -0.1595  0.2965 -0.0361
50414W        W93327   4.517  10.729  25.592 -0.0164  0.3418 -0.0401
50415W        W93328   1.106  21.973   2.885 -0.1426 -0.0666  0.0293
50416W        W93329  30.680  20.349  18.941 -0.0641  0.1986 -0.3497
50417W        W93330  29.380  15.745  21.709 -0.4247  0.1708  0.2301
50418W        W93331   0.926  10.685   0.008  0.1999  0.0396  0.3341
50419W        W93332   3.197  13.701   1.752 -0.2108  0.1818  0.0447
50420W        W93333  22.668   4.152  19.373 -0.0589 -0.0445  0.1137
50421W        W93334   4.148  18.644  15.466  0.0654 -0.0075 -0.1083
50422W        W93335  30.265  13.090  14.055 -0.4377  0.0086  0.0826
50423W        W93336  33.689  22.674  23.006 -0.1758 -0.0810 -0.0465
50424W        W93337   0.170  19.654  21.445  0.0770 -0.2754  0.1844
50425W        W93338  31.448  21.758  26.228  0.1627  0.1374 -0.1069
50426W        W93339   1.437  18.554  21.716 -0.3028 -0.0494 -0.0402
50427W        W93340  32.359  20.146  23.530  0.1461 -0.3699  0.1071
50428W        W93341  29.384  12.256  15.275 -0.1098 -0.0641  0.0872
50429W        W93342  26.185  27.033  17.137 -0.2860 -0.0440  0.0686
50430W        W93343   9.809  20.128  21.572 -0.1678 -0.0223 -0.2572
50431W        W93344  33.806   5.132   1.804  0.2863  0.1702  0.2175
50432W        W93345  27.263  26.036  18.769 -0.0917 -0.0822  0.1910
50433W        W93346  28.971  13.315   4.223 -0.2044 -0.1393  0.0878
50434W        W93347  31.855  12.468  21.750  0.2756  0.2012  0.4422
50435W        W93348  28.542  24.236  18.629 -0.0349 -0.2021 -0.1050
50436W        W93349   1.219   9.596  29.139 -0.0521 -0.1266 -0.1763
50437W        W93350   0.398  12.684   5.273 -0.3080  0.0089 -0.0397
50438W        W93351   0.833  16.500  29.022  0.1429 -0.1263  0.1315
50439W        W93352  29.912  18.116  16.940  0.1502 -0.2716 -0.3376
50440W        W93353   8.557  16.705  24.551  0.0856  0.3686 -0.0537
50441W        W93354   4.893   9.618  23.824 -0.1941 -0.1530 -0.1554
50442W        W93355  10.438   7.553  18.197  0.0611  0.1309 -0.1894
50443W        W93356  30.675  19.374  22.757 -0.1653  0.1334 -0.0476
50444W        W93357   0.184  13.186  24.467 -0.0355 -0.2995 -0.3462
50445W        W93358   9.476  21.689   2.375 -0.1712  0.0415 -0.2084
50446W        W93359   1.444  17.939  14.042  0.1167 -0.4524  0.3722
50447W        W93360   4.645   7.229  18.799 -0.4074  0.0875  0.3659
50448W        W93361  20.789  18.351  24.376  0.1906 -0.0377  0.1146
50449W        W93362   4.882  16.899  24.736 -0.1964 -0.1737 -0.0678
50450W        W93363  32.274  16.488  17.281  0.3409  0.2509 -0.0027
50451W        W93364  24.898  24.096  20.583  0.0035 -0.2721  0.1803
50452W        W93365   4.637   9.788  24.245 -0.1209  0.1634 -0.1411
50453W        W93366   4.232  16.352  22.171 -0.2651 -0.1945  0.0980
50454W        W93367  31.573  16.734  21.155 -0.2669  0.2218 -0.0958
50455W        W93368  22.106  21.098   7.485 -0.1725 -0.0109  0.0652
50456W        W93369  23.672  25.003  21.549 -0.2302 -0.1208  0.0157
50457W        W93370  29.922   5.154  26.581  0.2032  0.1740  0.0313
50458W        W93371   7.010  11.862  24.089  0.0649 -0.0218 -0.0836
50459W        W93372  21.420  20.391  24.935  0.0122  0.2399 -0.0698
50460W        W93373  27.859  19.267  27.369 -0.0527 -0.1973 -0.0689
50461W        W93374   2.449  19.507  23.909  0.0222 -0.0409  0.1631
50462W        W93375  11.742  10.238  18.902  0.1495  0.3506  0.1782
50463W        W93376   0.715  13.572  27.138 -0.1118  0.0789 -0.0719
50464W        W93377  25.240  15.068  21.199  0.3524 -0.0960  0.0532
50465W        W93378  32.218  22.679  15.033  0.0208 -0.0913  0.1130
50466W        W93379   5.334  18.038   1.019  0.1033 -0.0024  0.1131
50467W        W93380  14.585  14.581   0.520  0.1822  0.5051  0.3646
50468W        W93381   3.096  21.061  14.205 -0.0148 -0.1825 -0.0165
50469W        W93382   1.443   0.896   4.792 -0.1555  0.0632  0.1264
50470W        W93383   4.494  20.114   1.564 -0.0474 -0.1686  0.1823
50471W        W93384  31.408  24.744  18.153 -0.0490  0.0415 -0.2088
50472W        W93385   6.485  16.549   1.875  0.0348 -0.3638 -0.2873
50473W        W93386   0.842  20.150  19.588 -0.0544  0.0921 -0.2573
50474W        W93387  23.072  12.500  20.345  0.2088 -0.0578  0.2464
50475W        W93388  31.185  21.645  24.249  0.0700 -0.0456  0.1567
50476W        W93389  25.941  13.034  15.510  0.1433  0.1988 -0.0897
50477W        W93390   4.215  20.900  18.393 -0.0823  0.2259 -0.3117
50478W        W93391   6.828  16.555   0.639  0.2324 -0.1834 -0.1174
50479W        W93392  29.296  15.703  20.193 -0.0011  0.0569 -0.2992
50480W        W93393  22.624  15.673  24.368 -0.0558 -0.0281  0.1235
50481W        W93394  27.301  24.288  27.663 -0.0124  0.0475 -0.0393
50482W        W93395  31.783  21.846  16.723  0.3055 -0.1219  0.0059
50483W        W93396   1.140   7.347  27.092 -0.1710  0.1375 -0.4156
50484W        W93397  13.224  20.303  17.105  0.0747  0.3696  0.0364
50485W        W93398   4.521  10.592  17.508  0.1206  0.3036 -0.1790
50486W        W93399  27.963  13.951   0.577 -0.1478 -0.0277 -0.2069
50487W        W93400  33.611  11.312  24.730  0.1355 -0.0418 -0.0778
50488W        W93401   2.977  16.482  19.198  0.0438 -0.1534  0.0693
50489W        W93402  33.787  14.902   2.551 -0.1638 -0.2075 -0.0953
50490W        W93403  29.064  14.828  17.608  0.0322  0.2353 -0.0936
50491W        W93404  29.020  29.788   1.928 -0.0261 -0.2671  0.2274
50492W        W93405   0.616  11.386  17.712 -0.0273 -0.2783 -0.1323
50493W        W93406   4.827  16.047   4.430  0.2581  0.1547 -0.0779
50494W        W93407  21.483  13.960  23.914  0.0186  0.1247  0.0884
50495W        W93408   2.720  21.274  29.042 -0.0242 -0.1504  0.1252
50496W        W93409  26.188  11.304  15.558  0.4187  0.0567 -0.0414
50497W        W93410  25.348   5.942  29.548  0.1170  0.0253  0.2200
50498W        W93411  20.142  18.189  27.776  0.0687  0.4107  0.2027
50499W        W93412  34.209   8.434  28.486 -0.1882  0.2215 -0.1948
50500W        W93413  11.075   4.728  23.411  0.2111  0.0432 -0.1804
50501W        W93414   5.708  18.493  22.676  0.2589 -0.1475  0.1045
50502W        W93415  29.723   3.420  18.509 -0.0600 -0.2910  0.1235
50503W        W93416  34.014  15.468  29.189 -0.1137  0.1889  0.0294
50504W        W93417   0.120  19.454   0.289 -0.2116  0.1024  0.0805
50505W        W93418   7.437  21.404  21.588  0.1311  0.1657 -0.1224
50506W        W93419   2.156  12.566   6.000  0.2045  0.2274  0.1245
50507W        W93420   1.024  19.935   1.552  0.3237  0.1504 -0.0691
50508W        W93421  30.595  23.217  22.272  0.4127 -0.2032 -0.3663
50509W        W93422  32.235   3.738  24.355 -0.0605  0.1219  0.2826
50510W        W93423  22.192   7.893  19.969  0.3130 -0.0379  0.1441
50511W        W93424  33.549   8.046  23.261  0.2131  0.0876 -0.1261
50512W        W93425   2.661  20.525   1.212  0.1634  0.1450  0.2740
50513W        W93426   9.115  21.932   0.392 -0.0602 -0.0958  0.1199
50514W        W93427   7.042  22.974  15.722 -0.0286  0.0843 -0.0330
50515W        W93428   4.551  18.000   0.019 -0.0645 -0.2881 -0.3367
50516W        W93429  20.405  12.457  24.519  0.2470 -0.1446 -0.3385
50517W        W93430   2.715  17.990  23.263  0.3755 -0.2705  0.5292
50518W        W93431  23.665   9.390   2.040  0.0213 -0.1752  0.1495
50519W        W93432  33.852  19.131   0.119 -0.0243  0.1843 -0.1209
50520W        W93433  12.892  16.028   3.973 -0.0165  0.1564  0.1164
50521W        W93434  10.968  15.553  25.786 -0.2078  0.0905 -0.1595
50522W        W93435  33.124  13.941  14.414 -0.3332  0.3092  0.1377
50523W        W93436   9.072   2.554   5.281 -0.0522 -0.0889  0.0536
50524W        W93437  30.896  24.226  27.002 -0.0379  0.0945 -0.2891
50525W        W93438   0.945  19.106   4.757 -0.1299 -0.1255  0.0014
50526W        W93439  27.757   6.405   8.674  0.1734  0.1195  0.1846
50527W        W93440  11.680  11.016   5.812 -0.2105  0.0364  0.1511
50528W        W93441   4.337  15.319  22.571  0.4046 -0.0637  0.0297
50529W        W93442  33.214  23.273  29.497  0.0810 -0.1563  0.0356
50530W        W93443   0.214  26.043   8.650  0.0110  0.2964  0.0258
50531W        W93444  26.719  12.552  24.771 -0.2425  0.2040 -0.3154
50532W        W93445  33.439  19.754  25.241  0.5209  0.1426 -0.5639
50533W        W93446  25.530  16.111  25.037  0.0331 -0.0904 -0.2270
50534W        W93447   3.466  23.143   1.480 -0.1189 -0.2436  0.3137
50535W        W93448   6.573  29.449  16.899  0.0627 -0.0851 -0.2455
50536W        W93449  10.040  28.845   2.089  0.0507  0.0884 -0.1862
50537W        W93450   8.751   9.535  20.426  0.0493  0.3545 -0.0700
50538W        W93451   2.586  32.838  27.314 -0.0471  0.2881 -0.1143
50539W        W93452   1.428  20.503   4.858 -0.1194 -0.3810 -0.2584
50540W        W93453   3.151  17.843  16.932  0.3094 -0.1960  0.0137
50541W        W93454   0.932  15.302   2.196  0.1215  0.2197 -0.0838
50542W        W93455  34.050  11.129  24.633 -0.1607  0.1054 -0.1632
50543W        W93456  32.665  15.486  20.694  0.3653  0.2855  0.2599
50544W        W93457  29.309  11.369  14.863 -0.1345  0.1044  0.0154
50545W        W93458  24.517   4.381   9.425  0.0100  0.1073  0.0627
50546W        W93459   3.965  20.257  22.526  0.2387  0.2057 -0.0453
50547W        W93460  32.045  23.821  24.783 -0.0314 -0.2855  0.1843
50548W        W93461  24.738  17.192  22.387 -0.3099  0.1625  0.0499
50549W        W93462  26.944  22.004  20.848  0.2261  0.0241 -0.3134
50550W        W93463  27.881  17.475  28.107  0.1458  0.1297  0.1038
50551W        W93464   3.435  15.023  24.929 -0.2343 -0.0303 -0.3263
50552W        W93465  25.509  20.254   2.135 -0.0140 -0.1067 -0.3332
50553W        W93466   2.590  17.287  20.065  0.1407 -0.0720 -0.0413
50554W        W93467  29.567  28.356  23.799  0.1846 -0.2507 -0.1639
50555W        W93468   6.391   6.123  23.553  0.1883 -0.2310  0.1789
50556W        W93469  10.121  14.922  24.301  0.0035  0.0511 -0.1628
50557W        W93470   4.598  21.336  24.119 -0.2518 -0.0183 -0.2235
50558W        W93471  14.740  21.102  17.501  0.0286 -0.1184 -0.0980
50559W        W93472   2.417  10.367  26.438 -0.3237 -0.3342  0.2695
50560W        W93473  30.582  15.150  24.520 -0.0082 -0.2746  0.0391
50561W        W93474  28.952  10.435  24.311 -0.0817 -0.0706  0.2523
50562W        W93475  31.173  17.722  26.105 -0.3641 -0.3983  0.0508
50563W        W93476  26.610  24.213   3.339 -0.1913 -0.0938  0.0785
50564W        W93477  31.299  23.660  27.275  0.1936 -0.1200  0.2959
50565W        W93478  33.176  14.758   6.498  0.0846 -0.0096 -0.1566
50566W        W93479  30.588   4.788  19.752 -0.1165  0.0874 -0.0580
50567W        W93480  29.020  31.502   8.326  0.0023 -0.2006 -0.0434
50568W        W93481  19.756  14.538  25.283  0.1438  0.1089  0.0548
50569W        W93482   1.035   9.360  17.974 -0.4959  0.3296 -0.2728
50570W        W93483  25.625   2.997  27.867 -0.3035 -0.0825 -0.1726
50571W        W93484  31.255  30.519   1.390  0.0608  0.3268  0.1383
50572W        W93485  29.318  15.226  23.341  0.2804 -0.1629 -0.1295
50573W        W93486   8.145   9.431   5.305 -0.2007 -0.0608 -0.0893
50574W        W93487  31.887  11.451  18.498  0.2101  0.0199  0.1854
50575W        W93488   2.283  20.595  21.524  0.3580  0.2789 -0.3508
50576W        W93489  29.653  16.174  24.610  0.0475 -0.1512 -0.1249
50577W        W93490  26.206  23.184  24.557  0.1403 -0.0664 -0.3792
50578W        W93491   2.958  25.957  28.136  0.4000 -0.1604 -0.3189
50579W        W93492  31.052  23.684  25.544  0.0308  0.2663  0.1915
50580W        W93493   7.992  27.712   9.746  0.2068 -0.0195  0.1219
50581W        W93494  26.121  19.557   3.108  0.1405 -0.0033  0.0231
50582W        W93495  25.706  18.274  23.491  0.1086 -0.2739  0.0650
50583W        W93496   2.316   7.627  27.921  0.2682  0.1849  0.1872
50584W        W93497  17.098  16.755  27.643 -0.0341 -0.0419  0.3104
50585W        W93498  24.025  15.386  18.604 -0.1506 -0.2904  0.4383
50586W        W93499   7.361  10.447  26.951  0.2236  0.0326  0.0108
50587W        W93500   7.593  20.230  23.547 -0.2596  0.3819  0.0646
50588W        W93501  10.569  18.151   4.210  0.0265  0.0396  0.0162
50589W        W93502  34.064  13.445   1.465  0.2322 -0.1701  0.2095
50590W        W93503  28.812  24.308  28.382 -0.2080 -0.1564  0.1732
50591W        W93504  23.155  22.137  22.889 -0.4250 -0.3884  0.1144
50592W        W93505  34.031  20.510   5.760  0.0656  0.0221  0.0810
50593W        W93506  33.237  14.758  21.907 -0.0263  0.1177 -0.2349
50594W        W93507   1.045  25.296   0.169 -0.0487 -0.0961  0.0503
50595W        W93508  31.296  26.221  19.850 -0.3458  0.0013  0.0095
50596W        W93509  33.763  15.071   2.038  0.2604 -0.1363 -0.1538
50597W        W93510  17.066  14.880  24.970 -0.0904 -0.0538  0.2015
50598W        W93511   5.819  22.219  15.317 -0.0726  0.0236  0.3195
50599W        W93512  30.274  15.684  26.677 -0.1326 -0.0508  0.1643
50600W        W93513   1.966  10.193  20.944 -0.0616 -0.0515 -0.1567
50601W        W93514  33.639  20.785  22.381 -0.0340  0.2285 -0.0762
50602W        W93515  12.652  28.649  19.458 -0.0290  0.0362 -0.0621
50603W        W93516  22.685  10.883  23.396 -0.2293 -0.3135 -0.3064
50604W        W93517   1.048  13.516  24.148 -0.1280 -0.0854  0.2489
50605W        W93518  18.400  28.399  25.767 -0.2131 -0.0434 -0.2807
50606W        W93519   4.696  32.022   5.715  0.2562  0.1795 -0.0865
50607W        W93520  30.814  29.322   0.902  0.4088  0.1886  0.2195
50608W        W93521  31.025  17.440  24.672 -0.0058  0.2183 -0.0554
50609W        W93522  21.887  12.513  25.530  0.3815 -0.1788 -0.0622
50610W        W93523  33.016  19.078  26.502 -0.2818  0.1656 -0.0249
50611W        W93524  33.009   4.139  21.559  0.0240  0.1850  0.0664
50612W        W93525  30.528  18.208   4.356  0.0941 -0.2383 -0.2007
50613W        W93526  12.864   4.912   0.506 -0.4222 -0.0552 -0.0219
50614W        W93527  32.677  21.777  22.581  0.0575  0.1787  0.0765
50615W        W93528   3.249  12.849  29.066 -0.2096  0.0737 -0.0952
50616W        W93529   2.816  15.256   2.566 -0.0815  0.1745  0.0055
50617W        W93530   1.768  15.822  22.799 -0.1187  0.0908  0.1086
50618W        W93531   4.286  14.275   5.601  0.1178 -0.0501  0.1654
50619W        W93532  25.014  12.125   2.550  0.0427  0.0928  0.1438
50620W        W93533  32.796  19.395   0.769 -0.3956 -0.1539  0.0867
50621W        W93534   7.238  22.174   7.775  0.0016 -0.2532  0.0307
50622W        W93535   2.677  21.781   2.134  0.2716 -0.1887  0.0721
50623W        W93536  30.157  18.816  26.774  0.2379  0.1593 -0.1888
50624W        W93537  34.177  32.865  17.711  0.1812 -0.3065 -0.0582
50625W        W93538  30.025  21.409   3.950 -0.0927  0.1553 -0.0083
50626W        W93539  30.412  19.970   9.381  0.0714 -0.0594  0.1501
50627W        W93540  24.657  19.117   4.323  0.0060 -0.1549  0.2222
50628W        W93541  24.302  21.518  20.849 -0.0241  0.2178  0.1709
50629W        W93542   0.984   9.646   3.950  0.3030 -0.2816  0.2085
50630W        W93543   2.797  12.064  26.908  0.0211 -0.1768 -0.0789
50631W        W93544  22.066  22.440   6.070  0.1114 -0.1567  0.0847
50632W        W93545  34.175  28.552   8.382 -0.0610 -0.2412  0.2316
50633W        W93546   1.934  11.868  26.950 -0.1212 -0.3303  0.1620
50634W        W93547   2.230  23.783   1.850  0.1238 -0.3433  0.0415
50635W        W93548  33.477  12.157  27.379  0.0754 -0.5502  0.2995
50636W        W93549  29.857   5.985  21.119  0.3007 -0.2290 -0.1475
50637W        W93550  31.114  34.097  24.252  0.0901  0.0267 -0.1001
50638W        W93551  30.646  10.803   5.933  0.1191  0.2001 -0.3251
50639W        W93552  30.910  11.963  17.319 -0.2293 -0.1784 -0.0796
50640W        W93553   3.230  25.048  21.690 -0.0677  0.2423 -0.0518
50641W        W93554  25.830  12.252  27.339 -0.3520 -0.0426 -0.1339
50642W        W93555  29.872  15.056   1.062 -0.0214 -0.0567  0.0583
50643W        W93556  34.319  18.552  26.372 -0.1098 -0.1534 -0.0297
50644W        W93557  34.369  22.954  21.919 -0.2070 -0.0430  0.0069
50645W        W93558  22.552  23.310  26.461  0.2445  0.1839  0.2575
50646W        W93559   2.096  14.458   8.141 -0.2243  0.3781  0.0509
50647W        W93560  20.574  21.921   1.855 -0.1323 -0.0834  0.1368
50648W        W93561  30.520  12.771  29.557  0.0189 -0.3433 -0.1092
50649W        W93562   5.465  15.991  28.573 -0.3360 -0.1070  0.1525
50650W        W93563  10.642  14.901  25.634 -0.1163 -0.2847  0.0347
50651W        W93564  12.242  14.478   4.147 -0.4964 -0.0558 -0.0392
50652W        W93565   3.006  17.378  25.653  0.0627 -0.0760 -0.0918
50653W        W93566   2.851   5.413  23.347 -0.0620 -0.1247  0.2932
50654W        W93567  21.967  20.294  18.410  0.1837  0.3586  0.1030
50655W        W93568  32.735  27.554   1.100  0.2710  0.1065  0.2997
50656W        W93569   0.255  15.707   0.638 -0.3316  0.1958  0.0190
50657W        W93570  27.589  15.797   3.237 -0.3074 -0.0425 -0.1008
50658W        W93571   6.762  12.159   6.494  0.2744 -0.0844  0.1664
50659W        W93572  33.522  20.679  27.547 -0.0387 -0.0535  0.1791
50660W        W93573   2.913  13.001   0.482 -0.1518  0.2062 -0.5215
50661W        W93574  21.250  21.431   0.385 -0.0544 -0.1411  0.2408
50662W        W93575   4.777  15.406  25.931  0.1155 -0.1815  0.3455
50663W        W93576   4.649  10.877   4.633  0.0993 -0.2288 -0.2065
50664W        W93577  34.415  20.175  26.276  0.2302 -0.0861  0.3847
50665W        W93578  32.855  14.336  18.094  0.2178  0.3869  0.2296
50666W        W93579  12.580  22.371   0.705 -0.1293  0.3450  0.4293
50667W        W93580  29.671   7.779  24.629 -0.2558  0.0103 -0.0484
50668W        W93581  30.479  15.963   1.005 -0.0428  0.3428 -0.1293
50669W        W93582   1.172   2.884   7.776  0.1802 -0.0299 -0.1252
50670W        W93583  34.358  19.482  18.336  0.0328 -0.0154  0.1092
50671W        W93584   2.657  10.987  25.520  0.1148  0.0416  0.3199
50672W        W93585   7.485  23.679   5.381 -0.1797  0.0289 -0.1538
50673W        W93586  28.430  15.114  20.105  0.1310  0.2420 -0.3330
50674W        W93587   1.681  16.791  29.279 -0.1981  0.0701  0.1945
50675W        W93588  28.593  18.328  29.000  0.1481  0.0691  0.5188
50676W        W93589   0.151  23.946  25.906 -0.1175  0.4084  0.0004
50677W        W93590   5.316   7.300  10.534  0.0535 -0.0997 -0.2494
50678W        W93591   1.380  14.402  18.555 -0.2033  0.2286 -0.0593
50679W        W93592  27.744  18.403  26.248 -0.2503  0.1973 -0.1106
50680W        W93593   0.249  19.955  22.226  0.0311  0.1641 -0.1148
50681W        W93594  25.383  18.190  25.770  0.0314  0.2095 -0.2257
50682W        W93595  25.516  17.019   5.882  0.1761 -0.0694  0.0264
50683W        W93596  25.310  20.140  26.512  0.2186  0.0013  0.0455
50684W        W93597  30.745  13.053  25.797  0.1747 -0.0482 -0.1073
50685W        W93598  31.823  32.211  24.464 -0.0951 -0.2144  0.1249
50686W        W93599  29.704  21.671  25.153  0.0521 -0.1258  0.2010
50687W        W93600  19.145  14.996   0.419 -0.0629  0.0267  0.1401
50688W        W93601   2.151  24.021  26.698 -0.1614 -0.0731 -0.0410
50689W        W93602   8.288  19.427  14.080  0.3851  0.1571 -0.0122
50690W        W93603   6.579  25.223   2.405  0.0719 -0.1674  0.0814
50691W        W93604   8.087  23.046  18.285  0.0370  0.1455 -0.4049
50692W        W93605  25.250  31.703  26.415  0.0469 -0.2568 -0.0230
50693W        W93606   4.910  10.236   6.622 -0.1805 -0.0321  0.0270
50694W        W93607   9.748  15.564  29.385 -0.0019 -0.5201 -0.1191
50695W        W93608   4.653   8.276   9.239 -0.1402 -0.0096 -0.0534
50696W        W93609  31.834  16.939  24.826  0.0234  0.2755 -0.2236
50697W        W93610   3.550  13.693   0.331  0.0353 -0.3060  0.0866
50698W        W93611  30.554  18.244   5.996 -0.2716  0.1632 -0.4190
50699W        W93612  31.346  16.388   4.578 -0.1055 -0.0144 -0.1912
50700W        W93613  28.288   8.508   7.744  0.0237 -0.1830  0.3005
50701W        W93614  22.595  19.575  23.098  0.2654 -0.0484 -0.0476
50702W        W93615  14.971  16.914  22.644 -0.0944 -0.3555  0.0048
50703W        W93616   0.550  18.885  24.363 -0.0279  0.1283 -0.0088
50704W        W93617   3.122  20.860   5.229  0.2110  0.0714  0.3174
50705W        W93618   0.625  20.331   7.889 -0.1854  0.1930  0.3792
50706W        W93619  27.121  22.932  26.118  0.1586 -0.0296 -0.1055
50707W        W93620   7.643   7.785  24.133  0.2743 -0.2060 -0.1444
50708W        W93621  23.530  19.208   1.439  0.2901  0.0981  0.2542
50709W        W93622  15.784  20.202  27.971 -0.1974 -0.1242  0.2201
50710W        W93623  27.089  31.000  21.254 -0.1816 -0.2733 -0.2009
50711W        W93624  31.052  13.499  25.948  0.0207 -0.1660  0.0497
50712W        W93625  31.980  25.169   6.309 -0.1387  0.0957  0.1570
50713W        W93626   2.339  12.049  24.968  0.0137 -0.0666 -0.3479
50714W        W93627  23.005   9.504  18.061 -0.3000 -0.2957  0.1130
50715W        W93628  29.020  30.017  25.252  0.3506 -0.0591  0.1672
50716W        W93629  31.157  10.219   1.343 -0.2374  0.0224 -0.1328
50717W        W93630  32.376  17.389   1.139 -0.1349  0.2306  0.0931
50718W        W93631  28.143  18.336  25.797  0.3358 -0.0084  0.0822
50719W        W93632  32.868  28.208  29.586  0.0594 -0.0517 -0.0892
50720W        W93633  26.931  12.650  28.525 -0.3604 -0.2231 -0.1806
50721W        W93634  26.668  23.293   2.746 -0.1943  0.0432 -0.0931
50722W        W93635   3.112  16.323   4.272 -0.0562 -0.2995 -0.2238
50723W        W93636  30.955  21.045  24.877 -0.1547 -0.0542  0.0753
50724W        W93637  34.391  17.173  27.741 -0.0842  0.2328 -0.2772
50725W        W93638   2.573   1.288  29.623 -0.1012 -0.2718 -0.0745
50726W        W93639  24.311  20.902  17.442  0.2736 -0.2895  0.1416
50727W        W93640  28.571  22.791   0.353 -0.1339 -0.0788  0.0369
50728W        W93641   1.544  18.748   6.373 -0.1417  0.1389  0.0770
50729W        W93642  13.413  12.119  17.208 -0.0582  0.2747 -0.1198
50730W        W93643  30.365  18.391   2.079 -0.1489 -0.0114 -0.0432
50731W        W93644   2.914   7.757  25.554 -0.0330  0.1168 -0.0106
50732W        W93645   9.614  15.056  28.699 -0.1906 -0.0928 -0.0459
50733W        W93646  28.250  19.113   7.792 -0.2950  0.0082 -0.0144
50734W        W93647   0.247  24.494   2.644 -0.1888  0.3380 -0.3606
50735W        W93648   2.934  20.324   0.199  0.2146 -0.2650  0.0019
50736W        W93649  26.567  19.500  28.131  0.1533  0.2127 -0.2171
50737W        W93650   4.729  12.303  28.065  0.0803  0.2905  0.2524
50738W        W93651  34.296   3.023  25.822  0.2433  0.1577 -0.4762
50739W        W93652   2.501   6.316   4.902  0.1558  0.3349 -0.1115
50740W        W93653  18.178  14.817   6.116 -0.0654  0.3503  0.0191
50741W        W93654  23.152  22.508   5.121 -0.0319 -0.0128  0.2752
50742W        W93655  33.965  29.061   7.625  0.3125  0.0390 -0.0287
50743W        W93656   7.666  23.340   5.772  0.1149  0.2159  0.0262
50744W        W93657   2.443  18.557  24.980  0.0013  0.1489  0.0807
50745W        W93658  27.887  20.568   1.724  0.1879  0.0912 -0.0991
50746W        W93659  10.974  12.270   1.647  0.4254  0.1557  0.0989
50747W        W93660  26.600  19.364   2.364  0.2008  0.1048 -0.2228
50748W        W93661  26.587  17.022   4.655  0.0920  0.1052 -0.2422
50749W        W93662   6.524  11.766  28.932  0.0049  0.4033  0.0371
50750W        W93663  32.913  13.370  25.428 -0.1574  0.2335  0.0470
50751W        W93664   7.991   9.515  28.591  0.1734 -0.0112  0.0304
50752W        W93665  28.370  14.937   3.135  0.2214 -0.0808  0.1063
50753W        W93666  32.391  14.030  20.589  0.0527  0.2070  0.1344
50754W        W93667  23.211  19.583   5.445 -0.0580 -0.0238  0.0950
50755W        W93668   5.762   7.640   9.533  0.1017 -0.0651 -0.1203
50756W        W93669  26.735  13.311  29.455  0.0018  0.1779  0.1165
50757W        W93670   0.398  13.553   2.150  0.2080 -0.0909  0.4910
50758W        W93671  22.010   9.949   1.905 -0.0675  0.2437  0.1439
50759W        W93672  22.933  23.721  25.336 -0.0198  0.1336 -0.2470
50760W        W93673   0.094  19.482  22.430 -0.3079  0.2272  0.0374
50761W        W93674  27.819  24.700  19.068  0.0511 -0.2168 -0.0849
50762W        W93675  32.256  28.637   0.058  0.0574  0.1714  0.3034
50763W        W93676  31.097   9.651  27.343 -0.0158  0.1212 -0.3192
50764W        W93677  27.740   8.817  25.753 -0.2998  0.0917 -0.0974
50765W        W93678   1.990  11.144   1.652  0.1449 -0.2547  0.3454
50766W        W93679  31.016  10.932   2.275  0.3342 -0.2677 -0.5371
50767W        W93680  32.353  16.301  24.957 -0.2412  0.4012  0.1082
50768W        W93681  31.945  11.188   4.133 -0.1257  0.1448  0.0680
50769W        W93682   1.701  12.651  27.649 -0.1015 -0.1128 -0.1123
50770W        W93683   2.940  14.336   5.832  0.0622 -0.1528  0.2444
50771W        W93684   1.808  16.486   1.783  0.5318  0.0774 -0.0072
50772W        W93685  28.473  22.286  17.394 -0.6060  0.6131 -0.2575
50773W        W93686  33.271  17.693  24.419 -0.1311  0.0795 -0.1944
50774W        W93687   9.614  20.860  27.869 -0.1391 -0.1973 -0.1781
50775W        W93688   9.116  25.993  17.264  0.2833  0.0242  0.1664
50776W        W93689  30.225  25.431  26.765 -0.1783  0.1078 -0.0517
50777W        W93690   3.685  13.270  17.367 -0.2091  0.0431 -0.0097
50778W        W93691  30.760  10.573  19.733 -0.0958  0.0146 -0.0693
50779W        W93692  28.775  16.488  16.383 -0.1050  0.1211 -0.1943
50780W        W93693  31.837  11.752  18.937  0.0640 -0.1866  0.3527
50781W        W93694   2.917  22.654  14.541 -0.2158  0.3158  0.2574
50782W        W93695  31.652  18.822  14.004  0.0340 -0.0911  0.2203
50783W        W93696  32.616  24.799  14.401  0.1331  0.0387 -0.2174
50784W        W93697  33.964  19.377  18.877  0.1333  0.0794 -0.0864
50785W        W93698  33.808  15.771  23.370  0.1906  0.1892 -0.1431
50786W        W93699  28.717  20.499  20.527  0.0247  0.1007  0.0384
50787W        W93700   0.195  19.975  15.957  0.4964 -0.6625  0.4735
50788W        W93701   0.459  28.852  17.597  0.2731  0.0943  0.1024
50789W        W93702  28.288  22.591  13.316  0.1663 -0.1017 -0.1306
50790W        W93703  31.585  25.713  18.318 -0.0010 -0.0932 -0.4215
50791W        W93704   3.263  13.468  16.683 -0.0467 -0.0322 -0.1228
50792W        W93705  28.603  29.369  18.353 -0.0037 -0.0079  0.3743
50793W        W93706  28.437  18.959  18.531 -0.2552 -0.0532 -0.2293
50794W        W93707   1.505  23.852  17.565 -0.4107  0.3738 -0.1271
50795W        W93708   2.381  22.625  28.530 -0.0040  0.1787 -0.2127
50796W        W93709   1.254  26.634  15.458  0.1552 -0.0978  0.1372
50797W        W93710  34.463  13.898  21.226 -0.0969 -0.0902  0.1086
50798W        W93711   1.222  29.301  15.432  0.1416 -0.0960 -0.0008
50799W        W93712   1.219  10.764  22.821 -0.3185  0.0950  0.0539
50800W        W93713  31.445  22.199  14.652  0.1582 -0.5232 -0.0822
50801W        W93714  30.844  23.903  15.774 -0.2491  0.0295  0.3955
50802W        W93715  21.845  29.176  22.836  0.3746 -0.1491 -0.0520
50803W        W93716  33.186  17.950  22.516  0.0485 -0.2047  0.1978
50804W        W93717   1.102  14.823  17.709 -0.0122 -0.0723  0.1188
50805W        W93718  30.484  12.490   3.052  0.1420  0.1906 -0.0553
50806W        W93719  29.729  12.696  19.624  0.1728 -0.0167 -0.3143
50807W        W93720  22.283  20.445  27.986  0.0173 -0.2350 -0.1469
50808W        W93721  32.552  23.958  20.516  0.1202  0.3286 -0.0409
50809W        W93722  12.905  17.590  17.264  0.0155  0.1054 -0.0071
50810W        W93723   6.207  23.208  20.614  0.0725  0.2977 -0.0460
50811W        W93724   1.384  20.057  17.851  0.1154 -0.2778 -0.3461
50812W        W93725  31.045  22.231  25.786  0.1307 -0.2794  0.1266
50813W        W93726   6.114  11.994  18.264 -0.2613 -0.0084  0.2356
50814W        W93727  10.018  14.535  14.373 -0.2744 -0.0387 -0.0408
50815W        W93728   1.818  15.965  16.506  0.3242  0.3774  0.0623
50816W        W93729  31.220  17.327  15.726  0.1779 -0.1318  0.1114
50817W        W93730  31.996  28.021  28.594  0.0425 -0.3157  0.2127
50818W        W93731   4.877  18.098  15.156 -0.1267  0.4009 -0.1242
50819W        W93732   6.410  17.860  19.954 -0.0026  0.0721  0.0450
50820W        W93733   3.459  20.904  20.245  0.1170  0.0262  0.0170
50821W        W93734  20.563  11.558  19.656  0.0720 -0.0138  0.1187
50822W        W93735   1.638  13.898  16.742  0.0626  0.1176 -0.0283
50823W        W93736  11.514  12.486  16.055 -0.0914 -0.0192 -0.4176
50824W        W93737  23.116  15.576  15.717 -0.0815 -0.2823 -0.1596
50825W        W93738   2.169  13.368  15.115 -0.2948  0.2573 -0.1509
50826W        W93739  31.409  25.048  20.764  0.0179  0.0869  0.0305
50827W        W93740  31.433  12.238  25.163 -0.1455 -0.1991  0.1661
50828W        W93741   2.697  18.212  15.647 -0.1999  0.0567  0.0996
50829W        W93742   5.179  20.644   0.443 -0.0769 -0.0986  0.1294
50830W        W93743   6.582  25.106  14.665 -0.1543  0.2470  0.0463
50831W        W93744  33.971  20.289  14.754  0.4259 -0.1110  0.0788
50832W        W93745   7.157  25.813  27.659  0.0180  0.2831 -0.2488
50833W        W93746  32.711  23.623  23.028  0.0879 -0.0311 -0.3780
50834W        W93747   0.040  21.428  23.521 -0.0246  0.1901  0.1171
50835W        W93748   1.254  22.621  25.960  0.1240  0.2651  0.1874
50836W        W93749  25.532   9.415  16.110 -0.1583 -0.0689 -0.4332
50837W        W93750  20.287  19.501  25.331 -0.2602  0.0796 -0.2071
50838W        W93751  32.633  31.300  15.362  0.3439 -0.0983  0.0836
50839W        W93752  25.598  25.899  18.504 -0.0207  0.0617 -0.1572
50840W        W93753   1.306  25.508  20.092 -0.3135 -0.0200 -0.1844
50841W        W93754  26.054  22.065  13.431 -0.0383 -0.1347 -0.0197
50842W        W93755  23.839   9.589  16.985  0.1541 -0.0203  0.1662
50843W        W93756  24.516  15.833  15.987  0.2143 -0.3011 -0.0626
50844W        W93757   5.769  24.614  23.252  0.0984  0.1364 -0.0009
50845W        W93758  24.318  15.290  22.807  0.3441 -0.0627 -0.0876
50846W        W93759  34.079  15.967  23.693 -0.0811 -0.4415  0.0585
50847W        W93760  32.643  21.018  19.941  0.1075  0.1983  0.0588
50848W        W93761  29.334  23.780  25.976 -0.3015 -0.2093  0.0744
50849W        W93762   4.412  14.279  16.345  0.1589  0.1502  0.1295
50850W        W93763   8.922  19.063  18.192 -0.2132 -0.1047 -0.1781
50851W        W93764  33.172  24.761  18.644  0.0180 -0.2395  0.1265
50852W        W93765   0.854  26.296  15.552  0.0783 -0.2286 -0.0613
50853W        W93766   0.754  32.526  21.686 -0.1632  0.0794  0.0717
50854W        W93767  31.268  25.098  23.869 -0.0208 -0.2334 -0.0600
50855W        W93768  33.379  24.264  14.086 -0.0010  0.3813 -0.1767
50856W        W93769   1.542  34.160  16.126  0.3028  0.1561 -0.0535
50857W        W93770   7.353  30.078  16.836  0.1458  0.0092  0.0793
50858W        W93771  32.595  27.375  17.739  0.2677 -0.0974 -0.0199
50859W        W93772   0.592  24.353  16.652  0.2445  0.1720  0.1961
50860W        W93773   8.614  15.060  17.556 -0.3724  0.0983 -0.1621
50861W        W93774  29.677  16.035  15.972  0.2547  0.1851  0.2473
50862W        W93775  28.478  14.950  15.658  0.2739  0.2105  0.0446
50863W        W93776  32.233  27.839  17.579 -0.2959 -0.1130  0.0552
50864W        W93777  31.401  27.665  19.096  0.2301 -0.0192  0.1257
50865W        W93778  25.822  14.937  14.058 -0.3537 -0.0119  0.1625
50866W        W93779  30.865  18.504  15.748  0.1296 -0.0376  0.0912
50867W        W93780  31.832  23.463  18.982  0.4115 -0.1092 -0.0563
50868W        W93781  30.591  19.879  19.985  0.1971  0.4065 -0.0221
50869W        W93782  32.687  26.722  15.906 -0.2652 -0.0746  0.0270
50870W        W93783   1.340  16.321  19.335 -0.0118  0.1817  0.2370
50871W        W93784  28.165  24.147  12.589 -0.0339 -0.0263 -0.2628
50872W        W93785  18.901  29.130  18.747 -0.1278 -0.1754  0.0596
50873W        W93786   8.999  16.342  28.254  0.1663  0.3837 -0.0586
50874W        W93787   0.963  15.853  15.103 -0.2199 -0.3353  0.1029
50875W        W93788  30.548  14.579  24.409 -0.1442 -0.2928  0.4004
50876W        W93789   7.963  18.741  22.419 -0.0847  0.0771 -0.1290
50877W        W93790   0.978  18.399  16.752  0.2776 -0.0928 -0.0603
50878W        W93791  31.417  11.965  17.036 -0.4616  0.0938 -0.0943
50879W        W93792  32.987  15.169  20.928 -0.1791 -0.2090  0.0680
50880W        W93793   1.723  14.315  17.014 -0.0002 -0.1289  0.1113
50881W        W93794  25.462  27.558  16.923 -0.3539  0.0969  0.0014
50882W        W93795  16.257  22.084  15.390  0.0508  0.4024 -0.1864
50883W        W93796  23.588  27.057  20.560  0.5424 -0.1407  0.1491
50884W        W93797  33.155  20.413  16.349  0.1108  0.2372  0.3362
50885W        W93798  24.342   3.228  18.110 -0.1163  0.2370 -0.1517
50886W        W93799  24.032  30.728  20.744  0.1127  0.3292 -0.1437
50887W        W93800  32.002  25.553  16.832  0.2843  0.1980 -0.0199
50888W        W93801  33.251  25.565  18.770 -0.1399 -0.0604  0.0089
50889W        W93802  32.763  21.151  13.974 -0.1366  0.3310  0.0155
50890W        W93803   5.753  15.528  18.441  0.1219  0.0182  0.1892
50891W        W93804  34.064  21.726  14.766 -0.0151  0.1495 -0.2440
50892W        W93805   5.521  14.663  16.975  0.0926  0.0146 -0.2785
50893W        W93806  28.022  16.172  14.109  0.2328  0.0006  0.1956
50894W        W93807  25.282  11.268  13.299  0.1708 -0.1568 -0.1784
50895W        W93808   4.565  28.650  17.083  0.1120  0.4932  0.0774
50896W        W93809   4.071  19.093  26.627  0.2827 -0.1751  0.1347
50897W        W93810  34.107  23.484  15.955  0.3867 -0.0841  0.1356
50898W        W93811  25.565  21.752  18.352 -0.2193  0.2751  0.2834
50899W        W93812  29.974  10.403  23.403  0.0191  0.0918  0.0094
50900W        W93813   1.062   8.008  16.794  0.1135 -0.2834  0.2919
50901W        W93814   6.898  13.525  23.180 -0.1968 -0.0567  0.0297
50902W        W93815   3.588  31.666  15.604  0.0861  0.1951 -0.1652
50903W        W93816  30.625  22.300  16.820 -0.1395 -0.0492 -0.0431
50904W        W93817  32.489  20.403  16.675 -0.1221 -0.1817 -0.0826
50905W        W93818  10.713  23.905  20.167  0.3091 -0.1924 -0.0424
50906W        W93819  29.242  22.219  17.555  0.2844 -0.1944  0.1597
50907W        W93820  22.181  26.123  14.543 -0.0207  0.0083 -0.1019
50908W        W93821  32.459  23.251  23.205 -0.1494 -0.0835 -0.2388
50909W        W93822  30.485  22.301  19.583  0.2406  0.2258 -0.1762
50910W        W93823  27.748  10.109  23.552  0.0981 -0.2306 -0.4483
50911W        W93824  29.236  22.615  14.958 -0.0299 -0.0500 -0.0436
50912W        W93825  34.378  27.708  24.204  0.0012  0.2514 -0.0765
50913W        W93826  29.913   8.754  19.617 -0.2975  0.1894 -0.0235
50914W        W93827   6.965  24.307  16.513  0.0712 -0.1281 -0.1504
50915W        W93828  30.489  23.150  16.366  0.1948 -0.3253  0.1041
50916W        W93829  24.084  23.220  21.154 -0.2330  0.2200  0.3023
50917W        W93830  27.685  22.300  16.844  0.0152  0.1258  0.0907
50918W        W93831   0.183  13.322  22.799  0.3365  0.1534  0.0323
50919W        W93832  34.008  22.975  17.459  0.0450 -0.1117  0.0565
50920W        W93833  32.488  18.011  16.440  0.2438 -0.2012 -0.1178
50921W        W93834  34.122  12.501  20.579 -0.0572 -0.1488 -0.3137
50922W        W93835  32.413  19.456  15.952 -0.0360 -0.0120  0.0755
50923W        W93836  33.243  16.501  15.381 -0.3262  0.0542  0.0879
50924W        W93837  28.631  22.108  13.217 -0.0262 -0.0855 -0.0238
50925W        W93838  21.479   1.911  23.511  0.3016  0.1750 -0.3551
50926W        W93839   9.190  28.706  25.488  0.0738  0.4248  0.1134
50927W        W93840   0.789  23.465  18.542 -0.0398  0.1433  0.2060
50928W        W93841  32.020   7.000  20.525 -0.0852 -0.0996  0.2267
50929W        W93842   4.195  20.340  25.813 -0.1565 -0.1998 -0.0599
50930W        W93843   4.623  20.430  19.689  0.1681  0.0847 -0.5430
50931W        W93844   1.384  19.567  18.069  0.0495 -0.0205 -0.1958
50932W        W93845  34.492  24.817  14.112 -0.1404  0.1983  0.0524
50933W        W93846  30.557  25.377  13.631 -0.0975  0.0103  0.0568
50934W        W93847  32.463  21.087  23.631 -0.2186 -0.0975 -0.2009
50935W        W93848  34.190   7.494  20.497  0.1095 -0.0417  0.1532
50936W        W93849   1.306  17.049  14.360 -0.2602  0.0485  0.2797
50937W        W93850  28.222  18.387  14.427  0.1331 -0.0558 -0.1019
50938W        W93851  33.646  10.704  18.753  0.0328 -0.0350  0.1273
50939W        W93852   4.365  19.472  29.731 -0.3710  0.2030 -0.0957
50940W        W93853  11.557  13.176  15.253  0.3678 -0.1011  0.2266
50941W        W93854  33.181  18.320  22.892  0.2200 -0.0222  0.5107
50942W        W93855   1.538  22.676  14.407 -0.1180  0.0413  0.1587
50943W        W93856   2.582  11.119  16.336 -0.1129 -0.1039  0.1431
50944W        W93857   2.265  18.248  19.152  0.1761  0.3180  0.1978
50945W        W93858  31.353  14.268  15.171 -0.1359 -0.0002 -0.0803
50946W        W93859  31.621  30.775  15.820  0.1581  0.2318 -0.0309
50947W        W93860   2.192  27.640  21.374 -0.1062 -0.1217 -0.0035
50948W        W93861  30.063  18.753  13.096  0.0942  0.2494  0.1135
50949W        W93862  34.169  32.968  23.141  0.0025  0.2026  0.1143
50950W        W93863   2.881  24.300  14.941 -0.1354  0.3091 -0.1839
50951W        W93864   4.277  28.508  17.500 -0.1553  0.0898  0.1379
50952W        W93865  29.018  17.523  17.249 -0.0419  0.1286  0.0112
50953W        W93866   2.977  17.851  16.465 -0.0186  0.0166 -0.0397
50954W        W93867   5.524  20.750  20.403  0.2753 -0.0922  0.1959
50955W        W93868  32.456  27.521  14.765  0.1909  0.0881 -0.3414
50956W        W93869  12.036  30.027  17.260  0.4286 -0.0969 -0.0446
50957W        W93870   5.997  14.113  14.899 -0.1127  0.2015 -0.1036
50958W        W93871   4.544  17.597  23.315 -0.0558 -0.0546 -0.2169
50959W        W93872  18.237  13.195  17.747  0.0220  0.1311 -0.2664
50960W        W93873   3.163  23.693  17.543  0.0156  0.2778 -0.2977
50961W        W93874   8.835  30.659  16.495 -0.4356 -0.1545 -0.0671
50962W        W93875   9.011  11.152  15.406  0.5310 -0.1385  0.1212
50963W        W93876  28.124  15.147  21.542 -0.0252  0.0104  0.3065
50964W        W93877   0.754  15.619  14.632  0.1797 -0.2614 -0.1564
50965W        W93878   3.007  20.107  20.466  0.1768 -0.3610  0.1533
50966W        W93879  31.961  17.233  22.297  0.0222  0.1608  0.0038
50967W        W93880  31.020  20.077  18.666  0.0938 -0.0857 -0.1795
50968W        W93881  33.042  23.069  21.346  0.0036  0.1036 -0.0397
50969W        W93882  29.399  21.080  15.929  0.2130  0.1428  0.1601
50970W        W93883  20.036  21.583  13.214  0.1122  0.0520  0.1745
50971W        W93884  32.783  17.749  13.766 -0.0499  0.0864  0.1602
50972W        W93885   1.175   9.004  20.986 -0.1021  0.3705  0.0326
50973W        W93886  34.464  17.224  15.443  0.0127  0.0093 -0.0076
50974W        W93887   1.071  22.421  22.997 -0.0657  0.1266 -0.5054
50975W        W93888   1.866  20.265  24.960  0.0777  0.0264  0.1406
50976W        W93889   0.273  19.864  27.690 -0.3509  0.1930 -0.1582
50977W        W93890   1.123  32.828  16.935 -0.0498  0.0953 -0.2903
50978W        W93891  26.907  11.052  21.192 -0.0265 -0.1427  0.3535
50979W        W93892   2.657  19.612  22.144 -0.0148 -0.1455  0.0927
50980W        W93893   4.942  24.662  17.452  0.0569 -0.0493  0.0189
50981W        W93894  32.182  18.119  17.893  0.0027  0.3439 -0.1645
50982W        W93895  11.502  18.218  18.436 -0.1735 -0.0750 -0.3361
50983W        W93896  30.331   8.312  20.116  0.2784 -0.0829 -0.2139
50984W        W93897  33.217  11.775  14.724  0.1322 -0.0467  0.0244
50985W        W93898   7.497  23.052  18.018  0.1197  0.1368  0.1737
50986W        W93899  30.505  21.638  27.968  0.2723 -0.0495  0.2613
50987W        W93900  25.765  22.280  27.709 -0.0053 -0.0580  0.5493
50988W        W93901  23.756  14.647  15.458 -0.2818  0.1975  0.0583
50989W        W93902  30.568  12.359  19.394  0.1685  0.2236 -0.2269
50990W        W93903   0.638   6.313  16.363  0.0967 -0.3137 -0.2154
50991W        W93904   0.365  25.299  16.652 -0.1666  0.1587 -0.1642
50992W        W93905  34.364  21.000  18.222 -0.0124  0.2704  0.1254
50993W        W93906   4.804   3.503  25.382  0.3529 -0.0518  0.1277
50994W        W93907  34.389  16.049  14.620 -0.1893 -0.2320 -0.0745
50995W        W93908  28.501  16.037  18.747  0.1640 -0.1170 -0.0482
50996W        W93909  26.863  21.875  21.354  0.2219 -0.0153  0.1548
50997W        W93910   5.835  13.553  23.343  0.2454  0.3968 -0.2590
50998W        W93911   1.647  22.094  24.175 -0.1712 -0.2313  0.2818
50999W        W93912   4.322  26.212  19.011 -0.0095 -0.1401  0.0223
51000W        W93913  25.887  10.351  16.382 -0.1068  0.1114 -0.4523
51001W        W93914   4.797  17.586  14.204 -0.0006  0.1396  0.2957
51002W        W93915  29.840  15.018  26.774  0.0678  0.1425 -0.0875
51003W        W93916  28.851  18.594  21.725 -0.1648 -0.2572 -0.1275
51004W        W93917   8.380  16.436  16.080 -0.1196 -0.1184 -0.0812
51005W        W93918   0.534  22.413  15.944 -0.0226 -0.0484  0.0161
51006W        W93919  31.935  20.895  19.429 -0.1329  0.1077 -0.1035
51007W        W93920  30.139  12.961  18.194 -0.0449 -0.1266  0.1033
51008W        W93921  31.422  14.829  23.027 -0.0935 -0.4184  0.0831
51009W        W93922  30.958  17.719  20.466  0.2031  0.0926  0.0225
51010W        W93923  27.807  32.477  19.823  0.0946 -0.1521 -0.0173
51011W        W93924  28.652  15.912  23.870  0.0054  0.1973 -0.1208
51012W        W93925   5.562  17.368  25.981  0.5400  0.2220  0.0860
51013W        W93926   4.586  17.764  24.953  0.1275  0.1997  0.0526
51014W        W93927   2.545  24.926  21.758  0.1192  0.2015  0.0381
51015W        W93928  25.771  23.776   2.405 -0.1415 -0.0303 -0.0064
51016W        W93929  30.010  20.310  26.732  0.1524 -0.1684 -0.0587
51017W        W93930   5.885  23.166  18.756 -0.1222  0.0025  0.1227
51018W        W93931  29.894  14.998  18.650  0.0301 -0.1540 -0.0410
51019W        W93932  30.421  12.290  27.148 -0.1933 -0.0996  0.1587
51020W        W93933  31.343  14.491  20.523  0.1108  0.0203  0.0482
51021W        W93934  24.641  21.308  13.323 -0.1874 -0.3109  0.2112
51022W        W93935  33.242  14.439  15.751 -0.0010  0.1219  0.0955
51023W        W93936  21.934  25.195  13.096 -0.0393  0.0134  0.1238
51024W        W93937   1.703  17.612  18.821 -0.0800 -0.2362  0.1373
51025W        W93938  14.303  19.900  15.099  0.1251 -0.0812  0.1706
51026W        W93939   2.822  22.556  20.283 -0.0658  0.0782  0.1101
51027W        W93940   6.494  16.733  26.980  0.0532  0.1934 -0.1147
51028W        W93941   3.012  19.289  23.435  0.0057  0.0004  0.0627
51029W        W93942  27.108  13.747  15.040  0.1065  0.0639 -0.0391
51030W        W93943   4.894  22.268  23.360  0.0420 -0.2340  0.0970
51031W        W93944   1.227   7.822  19.174 -0.0501  0.0915 -0.2073
51032W        W93945   7.023  28.313  29.212 -0.2893  0.0049 -0.0780
51033W        W93946  25.835  20.620  21.713  0.3550 -0.1461 -0.0108
51034W        W93947   3.529  27.489  17.123  0.1391 -0.1740  0.0639
51035W        W93948   7.820  12.195  23.830  0.1130 -0.0422 -0.0897
51036W        W93949   1.788  19.427  22.480  0.0196  0.2705  0.1805
51037W        W93950   2.695  17.314  18.717  0.0097 -0.0508 -0.4297
51038W        W93951  33.603  22.424  14.104 -0.1101 -0.3230  0.0440
51039W        W93952  32.015  16.210  18.582 -0.2410  0.3995 -0.1667
51040W        W93953  33.029  16.788  14.866 -0.1899  0.0309  0.1539
51041W        W93954  23.496  14.820  16.572  0.0734  0.5932  0.0811
51042W        W93955  33.750  15.944   3.334 -0.0691  0.1596  0.4611
51043W        W93956  29.370  21.189  24.289 -0.2468 -0.3490  0.2151
51044W        W93957  25.711  16.458  25.384 -0.1035 -0.5251  0.0945
51045W        W93958  29.358  12.378  18.257 -0.0809 -0.2044  0.0623
51046W        W93959   4.618  25.181  20.626  0.0009 -0.0638 -0.0431
51047W        W93960  11.688  10.066  15.240  0.2050 -0.0949  0.1442
51048W        W93961   1.896  14.835  22.092 -0.0814 -0.1027 -0.0426
51049W        W93962  33.869  20.274  26.321 -0.3235 -0.0131 -0.2564
51050W        W93963  32.564  16.853  18.274  0.1216 -0.1684  0.0279
51051W        W93964   0.781  19.007  18.505 -0.2306 -0.0786 -0.0353
51052W        W93965  34.407  26.173  19.150  0.1577  0.0264 -0.1330
51053W        W93966   1.456  14.089  21.151 -0.0483  0.0413  0.1103
51054W        W93967  17.633  20.975  15.062 -0.1685  0.3239  0.1903
51055W        W93968  11.935  28.603  23.535  0.0958  0.4295  0.0251
51056W        W93969  33.557  13.654  23.711 -0.0909  0.0127  0.1991
51057W        W93970   9.226  24.884  15.395  0.0333 -0.1712 -0.0374
51058W        W93971  25.811  21.493  29.179  0.1420 -0.0131  0.1276
51059W        W93972   4.989  17.998  16.824  0.1955 -0.4942 -0.4702
51060W        W93973  33.644  18.765  22.999  0.2827  0.0535 -0.2131
51061W        W93974  31.092  18.919  18.808  0.0926  0.0934  0.0370
51062W        W93975  31.572  14.648  16.210  0.3275  0.0012  0.1129
51063W        W93976   6.287  16.321  24.013  0.2347  0.2736  0.0272
51064W        W93977  30.280  29.329  25.772  0.1861 -0.2183 -0.0416
51065W        W93978   7.121  14.228  24.848  0.1661 -0.1289 -0.1818
51066W        W93979   4.496  20.774  20.228 -0.3675 -0.1788 -0.1138
51067W        W93980   2.248  15.513  16.018  0.0776 -0.1405 -0.1998
51068W        W93981   1.677  32.229  24.394  0.0280 -0.0837 -0.2985
51069W        W93982  25.948  22.710  16.075 -0.3289 -0.0240 -0.2220
51070W        W93983   0.890   0.217  20.268 -0.0121  0.2065  0.0138
51071W        W93984   3.642  17.611  19.313  0.0186 -0.1470  0.1295
51072W        W93985   0.424  11.680  23.640  0.1444 -0.1143  0.0023
51073W        W93986  10.582   5.542  17.463 -0.3708  0.1669  0.1875
51074W        W93987   4.951  10.820  16.482 -0.1861  0.1792 -0.0528
51075W        W93988  31.263  30.680  20.485 -0.0477  0.1919 -0.2040
51076W        W93989   2.042  18.389   5.781 -0.1098 -0.0550  0.0558
51077W        W93990  29.186  19.010  18.375  0.2305 -0.0984 -0.2472
51078W        W93991  31.368  21.789  15.802  0.2849 -0.2099  0.3724
51079W        W93992  28.054  26.595  14.759  0.2698 -0.0267  0.0143
51080W        W93993   5.825  21.078  23.471 -0.0124  0.1570  0.0694
51081W        W93994   5.323  16.311  25.248 -0.2786 -0.3597 -0.2916
51082W        W93995   0.310  18.017  16.022 -0.1349 -0.0736  0.1492
51083W        W93996  25.557  23.745  26.520 -0.0877 -0.0992  0.3387
51084W        W93997  29.199  33.505  18.147  0.2884 -0.3457  0.0172
51085W        W93998  21.380  26.600  17.918 -0.4981  0.0259  0.0570
51086W        W93999   1.648  21.953  14.542  0.0319  0.0100 -0.1106
51087W        W94000  22.854  14.747  14.954  0.4044 -0.1214  0.1109
51088W        W94001  24.339  12.662  23.967  0.1961  0.0088 -0.1012
51089W        W94002  32.232  21.533  22.502 -0.1510 -0.2307 -0.1471
51090W        W94003  24.286  22.279  27.065 -0.1902 -0.0819 -0.1925
51091W        W94004  23.265  25.454  14.485 -0.3814  0.2846 -0.0117
51092W        W94005   1.229  18.695  18.569  0.0935 -0.2023 -0.0631
51093W        W94006  34.304  10.744  19.188  0.0193 -0.1751  0.0513
51094W        W94007  29.333  12.312  19.670 -0.4928 -0.1487  0.2990
51095W        W94008  10.505  15.825  20.563 -0.0337 -0.1336  0.1887
51096W        W94009   1.772  11.306  20.516 -0.0705 -0.3346  0.0904
51097W        W94010   0.288  17.348  24.639  0.0154 -0.1095  0.2744
51098W        W94011  31.204  27.786  18.627  0.0562  0.0619 -0.3244
51099W        W94012  34.067   7.500  19.550 -0.0095 -0.1275 -0.1536
51100W        W94013   1.015  18.495  14.189  0.0114  0.0475 -0.2081
51101W        W94014  30.503  14.988  26.009 -0.0011 -0.0719 -0.0379
51102W        W94015   4.137  21.712   8.970  0.1317  0.3002  0.2597
51103W        W94016   2.365  11.728  17.039  0.0601 -0.2405  0.3442
51104W        W94017   7.470  16.027   0.370 -0.1315 -0.1615  0.0405
51105W        W94018  20.561  22.221  19.929 -0.0929 -0.0041 -0.0791
51106W        W94019   3.933  23.581  20.205  0.0149  0.3746 -0.3190
51107W        W94020  28.032  25.057   9.519 -0.1353 -0.1386  0.0742
51108W        W94021  33.567  24.676  20.781 -0.2229 -0.4044  0.1020
51109W        W94022   4.155  21.507  27.137 -0.1898  0.1776 -0.0663
51110W        W94023   6.507  15.355  20.164  0.0805  0.2484  0.0158
51111W        W94024   9.685  17.130  19.769 -0.2046  0.1953  0.0712
51112W        W94025   3.133  27.541  16.706  0.1422  0.0317  0.0542
51113W        W94026  22.453  17.914  14.243 -0.0646  0.0836  0.1394
51114W        W94027  26.668  17.178  14.257  0.0710 -0.0171  0.0759
51115W        W94028  33.465  18.284  14.522  0.1273 -0.1088 -0.0012
51116W        W94029   3.887  13.300  20.881 -0.3643  0.1489  0.1503
51117W        W94030   0.656  12.478  22.679 -0.1183  0.2188  0.4465
51118W        W94031   5.201  16.473  18.999 -0.1475  0.3454  0.0013
51119W        W94032  30.030  27.048  15.098 -0.0783 -0.1928  0.0070
51120W        W94033  33.480  14.354  22.078 -0.2877 -0.0632  0.1127
51121W        W94034   1.364  31.036  27.218 -0.0547 -0.1085 -0.0998
51122W        W94035  29.688  15.018  24.097 -0.1863 -0.0711  0.1336
51123W        W94036   2.211  23.794  22.367 -0.1254  0.3117 -0.0450
51124W        W94037  21.253  24.550   1.962  0.0781 -0.0320 -0.3597
51125W        W94038  29.792  25.197  22.576  0.0173 -0.0295  0.2809
51126W        W94039  11.717  18.831  23.419  0.2399  0.1965 -0.3774
51127W        W94040  27.141   9.382  21.366  0.0123 -0.1287 -0.1235
51128W        W94041  24.839  17.669  18.093  0.1517  0.1841 -0.1621
51129W        W94042   1.275  32.422  20.691 -0.0913 -0.1137 -0.0497
51130W        W94043  29.982  17.696  23.165  0.1501  0.1983 -0.0014
51131W        W94044   8.018  20.332  26.016 -0.1517 -0.2650  0.0651
51132W        W94045  26.267  22.737  27.098  0.0419 -0.0155  0.0642
51133W        W94046  33.852  14.449  20.051  0.0056  0.1198  0.2679
51134W        W94047  31.285  17.868  18.498  0.0292 -0.0310  0.2584
51135W        W94048  32.125   2.755  18.056 -0.1242 -0.1624  0.1088
51136W        W94049   1.163  21.002  19.379 -0.0998 -0.1146  0.3027
51137W        W94050  23.322  23.416  21.729 -0.2206  0.1584 -0.3574
51138W        W94051  33.696  18.809  27.405  0.0598 -0.0403  0.1522
51139W        W94052  29.631  19.600  18.775 -0.0795  0.1310 -0.0598
51140W        W94053  10.683  29.784  27.179 -0.3010 -0.1084 -0.1164
51141W        W94054  32.817  24.087  25.739 -0.3305 -0.0899  0.0177
51142W        W94055   2.975  14.979  21.013  0.5164  0.0315 -0.4166
51143W        W94056   0.035  16.704  18.404 -0.1163 -0.0946 -0.2960
51144W        W94057  26.265  26.345  17.733  0.0036  0.1738  0.1397
51145W        W94058   5.123  19.399  23.674 -0.3176 -0.0362  0.2502
51146W        W94059  26.436  15.424  26.089  0.3469 -0.1071 -0.0152
51147W        W94060  31.216  21.101  19.783 -0.0232  0.0398  0.0802
51148W        W94061  18.680  21.450   6.958 -0.1185  0.1409 -0.0109
51149W        W94062   4.372  22.593  19.385 -0.1464  0.1233 -0.0201
51150W        W94063  24.410  22.620  13.776  0.2889  0.1328  0.0959
51151W        W94064  23.356  21.538  21.807  0.0627  0.0449  0.0708
51152W        W94065  31.819  25.418  17.337 -0.0195  0.1837  0.2313
51153W        W94066   7.348  16.033  15.697 -0.1571 -0.1275  0.0809
51154W        W94067   2.935  28.019   0.424  0.0660 -0.0160 -0.0541
51155W        W94068  24.147  20.479  19.025  0.1435  0.0330  0.0089
51156W        W94069  25.028  18.745  26.570  0.1183  0.2613  0.1827
51157W        W94070  34.487  33.016  18.580  0.2278  0.2139 -0.1388
51158W        W94071  28.324  23.188  22.807 -0.1623  0.0103  0.3551
51159W        W94072  30.397  26.262  27.171 -0.2820 -0.1378 -0.3640
51160W        W94073  11.231  20.088  16.026 -0.3737  0.2935 -0.1113
51161W        W94074  27.754  29.396  18.462  0.0213  0.1362  0.4713
51162W        W94075   9.997  22.472  29.233  0.0952 -0.1116 -0.1341
51163W        W94076   7.029  16.824  22.187  0.0825 -0.0096 -0.2365
51164W        W94077  21.798  24.092   0.258  0.0195 -0.2131 -0.0399
51165W        W94078  32.995  10.527  23.811 -0.0519  0.2489 -0.3612
51166W        W94079  11.206   9.829  18.831  0.0617  0.0559 -0.1220
51167W        W94080  30.011  22.864  24.308  0.0014 -0.0225 -0.2097
51168W        W94081  26.014  10.286  20.104 -0.1624 -0.2820  0.1476
51169W        W94082  33.877  16.387  25.036 -0.1830  0.0901 -0.1488
51170W        W94083  27.351  24.102  17.753 -0.1724 -0.0236  0.0022
51171W        W94084  30.211   6.419  17.549  0.0518 -0.2986 -0.2068
51172W        W94085  21.735  13.942  14.625 -0.0886  0.0284 -0.2064
51173W        W94086   4.580  10.449  18.199  0.1153  0.2995 -0.0349
51174W        W94087  10.914  29.410  20.479  0.0140 -0.1955  0.1451
51175W        W94088  34.411  14.561  27.242  0.0251  0.0657 -0.2244
51176W        W94089  34.083  20.661  15.162 -0.1490  0.1382 -0.1377
51177W        W94090   4.781  24.912  27.046 -0.1232 -0.2247  0.0820
51178W        W94091  33.236  28.687  17.878  0.1719 -0.2872  0.0154
51179W        W94092   3.123  25.100  14.527  0.0547  0.1480 -0.0022
51180W        W94093  34.055  13.338   0.766 -0.1286  0.0350  0.2788
51181W        W94094  29.882   0.636   0.003  0.2036  0.3644  0.2653
51182W        W94095  15.235  23.305  23.737  0.0905  0.1547  0.0784
51183W        W94096   0.810  27.259  13.982 -0.0127 -0.0328 -0.1271
51184W        W94097   6.090  17.375  27.011  0.2317 -0.0841  0.0578
51185W        W94098  29.178  24.260  27.828  0.1036  0.0452  0.0473
51186W        W94099  25.347  19.969  13.940  0.0240 -0.1135 -0.1960
51187W        W94100   4.394  12.812  22.363  0.3190  0.3336  0.1817
51188W        W94101   0.871  21.122  15.735  0.0782 -0.1704  0.4076
51189W        W94102   8.027  14.189  25.555 -0.1157 -0.1363 -0.0223
51190W        W94103  32.709  19.760  27.262  0.0669 -0.1011  0.1774
51191W        W94104  31.826  19.909  18.999  0.1129  0.1253  0.3475
51192W        W94105  32.194   8.025  27.749 -0.1075 -0.1167 -0.0770
51193W        W94106  31.727  20.681  14.392  0.0673 -0.1029  0.0848
51194W        W94107  32.374  18.271  26.664 -0.0885 -0.0649  0.2867
51195W        W94108  31.568   5.295  26.512 -0.0302  0.0269 -0.1126
51196W        W94109  21.914  22.436  18.901  0.2159 -0.0141  0.0709
51197W        W94110  28.249  18.939  25.548  0.0533 -0.0377 -0.1988
51198W        W94111   0.648  32.781  28.585  0.2057  0.3059  0.0361
51199W        W94112  29.311  18.765  21.447  0.0174  0.0708 -0.0014
51200W        W94113   6.406  17.413  23.106  0.3119 -0.0692 -0.1444
51201W        W94114  24.472  22.880  29.129 -0.1817  0.1475 -0.0361
51202W        W94115   8.745  21.839  27.417 -0.1150 -0.5697  0.0940
51203W        W94116   6.652  11.032  22.659  0.0601  0.0198 -0.0023
51204W        W94117   3.682  15.395  19.180 -0.0487 -0.2041  0.0801
51205W        W94118  23.471  23.037  15.501 -0.1719  0.3672 -0.4204
51206W        W94119   4.396   8.689  21.037  0.1543  0.0910 -0.3024
51207W        W94120  27.811  22.091  21.266  0.3331  0.0378  0.0929
51208W        W94121  33.242  30.235  14.661  0.1350 -0.1395 -0.1803
51209W        W94122   0.057  19.172  21.644 -0.1006 -0.0228  0.1034
51210W        W94123  22.331   4.374  17.557 -0.1399 -0.1987 -0.0196
51211W        W94124   1.541  28.008  20.250 -0.3796 -0.2811 -0.1796
51212W        W94125   5.585  19.290  20.049 -0.3024 -0.0936 -0.3566
51213W        W94126  30.699  29.328  14.472 -0.1675  0.2406  0.2855
51214W        W94127   8.459  17.261  25.233 -0.1084 -0.3685  0.1470
51215W        W94128  23.189  23.245  18.853 -0.0286 -0.1086  0.3633
51216W        W94129   1.626  25.307  22.314 -0.2318  0.1879 -0.4381
51217W        W94130  16.407  25.066  24.326  0.1955  0.4203  0.0602
51218W        W94131   1.798   2.467  27.745  0.0434 -0.3485 -0.3315
51219W        W94132  29.186  17.179  22.854 -0.2592 -0.3507  0.1213
51220W        W94133  31.845  26.764  20.182 -0.2200  0.2460  0.2159
51221W        W94134   3.632  26.951  14.768 -0.2159  0.4001 -0.0015
51222W        W94135  27.846  20.931  27.018 -0.1807  0.0074  0.2221
51223W        W94136   0.567  20.240  13.728 -0.0675  0.1280 -0.0562
51224W        W94137   7.932  19.879  23.641  0.3052 -0.1401 -0.0971
51225W        W94138   7.206   6.932  27.109  0.0722  0.0756  0.2434
51226W        W94139  32.855  14.955   4.502 -0.1760 -0.0299 -0.0725
51227W        W94140  27.073  26.606  13.893  0.0708 -0.2254 -0.0338
51228W        W94141   6.093  23.719  23.837 -0.0414 -0.0442 -0.0550
51229W        W94142  24.061  23.616  17.941  0.0044 -0.1692 -0.1439
51230W        W94143   0.663  24.939  25.452  0.1401 -0.2584 -0.3425
51231W        W94144  29.462  13.331  27.412 -0.0234  0.2820 -0.4462
51232W        W94145  32.653  17.574  20.476 -0.1445  0.4036  0.0928
51233W        W94146  29.685  22.383  16.591  0.2800 -0.1492  0.0457
51234W        W94147  31.723  16.782  26.842  0.0609  0.1146  0.0957
51235W        W94148  31.026  23.665   3.387 -0.2116  0.0374 -0.0784
51236W        W94149   1.214  14.621  26.756 -0.1133  0.2523 -0.1755
51237W        W94150  25.282  25.626  15.600  0.0537  0.1576 -0.3820
51238W        W94151  27.837  20.388  23.221 -0.1754  0.1386  0.1400
51239W        W94152  32.254  23.808  17.714  0.4446 -0.1584 -0.1705
51240W        W94153  21.331  30.759  14.961  0.1544 -0.0017 -0.1271
51241W        W94154  32.698  22.954   1.400  0.1509 -0.1020 -0.0629
51242W        W94155  29.907   8.558  18.932  0.1952 -0.1760  0.0558
51243W        W94156  33.866  18.191  16.603  0.0951 -0.1860  0.0236
51244W        W94157  31.482  22.994   2.719 -0.0004  0.1760  0.3962
51245W        W94158  25.119  28.341   1.510  0.1249  0.1299  0.4139
51246W        W94159  12.211  17.063   0.726 -0.0623 -0.1875  0.1387
51247W        W94160   0.006  20.905  22.079 -0.2047  0.1245 -0.2500
51248W        W94161  22.823  20.639  18.678  0.0844  0.2391 -0.0507
51249W        W94162   0.631  23.829  23.884 -0.2300  0.0636 -0.1217
51250W        W94163  21.880  19.584  22.204  0.2259  0.1031 -0.0669
51251W        W94164  29.985  23.267   1.891  0.0477  0.2594  0.3511
51252W        W94165  33.238  27.808   7.855  0.0796  0.2784  0.1811
51253W        W94166   3.182  19.818  28.242 -0.0389  0.0085 -0.0591
51254W        W94167   1.713  20.221   0.101 -0.2672 -0.3955  0.1423
51255W        W94168  33.888   0.951  19.032 -0.0186  0.0692  0.1880
51256W        W94169  29.546  23.140  15.719 -0.0148  0.1259  0.0210
51257W        W94170  32.876  19.126   9.005  0.2295 -0.0453  0.1631
51258W        W94171   9.632  10.973  19.101 -0.3491  0.1233  0.0347
51259W        W94172   0.865  33.560  15.660  0.1248 -0.1382  0.1407
51260W        W94173  30.568  23.679  19.713  0.2243 -0.0655  0.2431
51261W        W94174  28.943  21.064  12.917  0.2041 -0.0785  0.0410
51262W        W94175  28.013  12.108  21.639 -0.2697 -0.1302  0.0292
51263W        W94176   3.096  21.877  21.648  0.0429  0.0951 -0.0307
51264W        W94177  29.315  27.240  24.646 -0.0900 -0.0973  0.0206
51265W        W94178  29.984  10.719  23.926 -0.1607 -0.0654 -0.1924
51266W        W94179   3.005  16.773  21.367  0.0077 -0.1630  0.0957
51267W        W94180  25.032  19.263  16.663 -0.0602 -0.0093  0.0597
51268W        W94181  32.347  20.593  24.751 -0.1533  0.1109  0.0420
51269W        W94182  26.147   9.847  20.374 -0.1398 -0.1060  0.1499
51270W        W94183   4.846  17.683  25.668 -0.3706  0.0730  0.0895
51271W        W94184  33.481  25.969   2.561  0.3141 -0.2130  0.2992
51272W        W94185   9.511  18.557  25.834  0.0656 -0.1972  0.1215
51273W        W94186  26.623  22.120  17.803  0.0352  0.1203  0.1700
51274W        W94187  29.767  14.324   1.078 -0.0365 -0.2173 -0.0378
51275W        W94188   5.863  24.814  28.307 -0.1570  0.1599 -0.0598
51276W        W94189  30.205  18.339  14.509 -0.0674  0.1702 -0.0620
51277W        W94190  24.981   8.544  22.453 -0.1215 -0.0483 -0.0916
51278W        W94191  34.063  21.556  17.625  0.2577  0.0516 -0.2205
51279W        W94192  24.654  20.714  24.009  0.1251  0.2752  0.5986
51280W        W94193  31.995  30.296  23.190 -0.1088 -0.3426  0.2121
51281W        W94194   5.900  23.743  17.417  0.0045  0.2765 -0.0103
51282W        W94195  30.318  33.085   7.641 -0.1062 -0.0288 -0.0418
51283W        W94196  33.491  30.959  21.198 -0.5256 -0.0446 -0.0202
51284W        W94197  16.539  19.431   0.705 -0.2614 -0.1072  0.0258
51285W        W94198   5.708  11.634  24.722 -0.0381 -0.0728 -0.0535
51286W        W94199   3.568  18.717   5.480  0.1869  0.1291 -0.2759
51287W        W94200  24.974  23.121  18.577  0.0147  0.0337  0.1813
51288W        W94201   4.615  23.193  25.641 -0.2880  0.3970  0.3317
51289W        W94202   2.481  19.781  13.823 -0.3924 -0.2634  0.0081
51290W        W94203  28.805  17.550  25.286 -0.0532  0.1405 -0.0238
51291W        W94204  30.434  18.543   3.007  0.1792 -0.1332  0.0102
51292W        W94205   2.395  18.394  25.475 -0.1424  0.1385  0.0578
51293W        W94206  32.958  26.073   3.106 -0.0936  0.0254 -0.0146
51294W        W94207  30.502  28.936  19.058  0.1920  0.0132 -0.3134
51295W        W94208  31.943  19.597   3.142  0.3552 -0.3914  0.1460
51296W        W94209   3.610  21.625  22.785 -0.2416  0.0213  0.0980
51297W        W94210  27.554  32.013   2.675 -0.0754 -0.1532  0.0515
51298W        W94211  33.445  23.011  25.930  0.1525 -0.2275  0.0807
51299W        W94212  33.371   6.892  26.673  0.3300 -0.1060  0.0943
51300W        W94213   0.690  28.528  14.872 -0.0857  0.1517 -0.0665
51301W        W94214   9.369  25.001   5.083  0.1737 -0.1574  0.1245
51302W        W94215   2.404  19.575   1.691  0.1264  0.0017 -0.0770
51303W        W94216  33.040  22.481  19.083  0.1691  0.1316 -0.0833
51304W        W94217  28.721  30.742   3.292  0.2775 -0.5949 -0.2446
51305W        W94218   4.655  19.139  26.352 -0.1003  0.1027  0.1926
51306W        W94219  21.318  21.117  20.644  0.0279 -0.1198  0.0353
51307W        W94220  34.160  15.046  18.053 -0.2091  0.0684  0.2500
51308W        W94221  29.697  16.998  21.896 -0.2375  0.0329  0.1881
51309W        W94222  33.175  26.411   1.865  0.2603  0.0591 -0.1342
51310W        W94223  28.454  12.149  17.172  0.2422  0.1567 -0.2732
51311W        W94224  31.184   9.721  23.907 -0.1128 -0.0274 -0.2520
51312W        W94225  28.601  27.562   1.156  0.1080 -0.2591  0.3969
51313W        W94226   1.400  17.884  23.898  0.0447  0.0081 -0.2601
51314W        W94227  29.011  18.573   6.836 -0.0237  0.4131 -0.5125
51315W        W94228  30.259  19.591  29.009  0.1231 -0.2114 -0.3467
51316W        W94229  32.115  19.488  22.388 -0.1244 -0.4238 -0.0010
51317W        W94230  32.136  25.516   2.927 -0.1306  0.2358  0.0635
51318W        W94231  29.456  17.467  20.788  0.1925 -0.0009  0.1377
51319W        W94232  12.706   3.951   3.162  0.1709 -0.1833 -0.1422
51320W        W94233  25.444  21.918  27.900  0.1449  0.0851 -0.1841
51321W        W94234   1.204  13.400  14.882 -0.0702 -0.2211 -0.0221
51322W        W94235  27.367  13.492  16.057  0.2193  0.0325 -0.2433
51323W        W94236   2.548  15.943   6.195 -0.0547  0.3340 -0.0379
51324W        W94237   7.285  19.320  27.843 -0.2247  0.3035 -0.0991
51325W        W94238   6.240  14.614  24.017 -0.1400 -0.2769 -0.0366
51326W        W94239   0.269  30.872  20.895  0.0392 -0.0036 -0.5038
51327W        W94240  23.889   7.357  25.657  0.1498  0.5231 -0.0447
51328W        W94241  22.352  27.225  26.003 -0.0540  0.0390 -0.0692
51329W        W94242  23.040  15.515   1.496 -0.2701  0.0952 -0.0693
51330W        W94243  30.740  15.426  24.923 -0.3411 -0.3272  0.1122
51331W        W94244   5.174  21.914  20.136 -0.4247  0.1045  0.3167
51332W        W94245  22.979  15.491  22.574  0.1561 -0.4364  0.1596
51333W        W94246  11.875  19.024   2.482  0.2413  0.1403 -0.0959
51334W        W94247   3.719  21.487  26.678  0.0265  0.2138  0.1026
51335W        W94248   0.736  17.926  17.301 -0.0400 -0.2512 -0.2108
51336W        W94249  33.024  14.900   5.480 -0.2487 -0.0470  0.0505
51337W        W94250   0.979  15.078  18.958  0.2842  0.1758 -0.0935
51338W        W94251   6.756  12.252  23.701  0.0901 -0.2259  0.1419
51339W        W94252   0.078  21.901  29.002  0.1665  0.1639 -0.0704
51340W        W94253  30.561  19.947  29.147 -0.0046  0.0141 -0.1006
51341W        W94254  34.399  14.413  25.626  0.0282 -0.0839  0.1361
51342W        W94255  25.273  12.208  26.581  0.0291  0.0136  0.0592
51343W        W94256  25.672  15.994  20.723 -0.2638 -0.1021  0.1220
51344W        W94257  33.032  21.197  17.090  0.0320  0.2185 -0.0924
51345W        W94258  25.355  25.536  29.654  0.1456  0.0551 -0.1210
51346W        W94259   1.279  15.000  23.802  0.1021 -0.0870 -0.0231
51347W        W94260   9.475  24.302  21.877 -0.0116 -0.0600 -0.3314
51348W        W94261  27.474  14.377  26.056  0.0147  0.1541 -0.1854
51349W        W94262   5.419  18.919  21.927  0.0180 -0.0188 -0.1418
51350W        W94263  26.658  15.383  16.746 -0.1107 -0.2449 -0.1034
51351W        W94264  18.968   3.537  27.461 -0.0223 -0.0969  0.2418
51352W        W94265  28.319  20.252   0.139 -0.2196 -0.0189  0.0696
51353W        W94266  32.192  19.125  21.432  0.1951  0.2010  0.2156
51354W        W94267  29.279  16.682  29.053 -0.2822 -0.0270  0.2617
51355W        W94268  30.590  23.058  21.728 -0.2091  0.0684  0.1402
51356W        W94269  29.561  23.315  26.228  0.1648  0.2315  0.1120
51357W        W94270   1.979  15.723  17.392  0.1463 -0.0521  0.1228
51358W        W94271  28.297   8.707  16.377 -0.1729  0.1802 -0.3086
51359W        W94272  33.144  14.841  27.199 -0.1344 -0.0415 -0.2446
51360W        W94273  23.844  26.820  21.909  0.0890  0.1533  0.3828
51361W        W94274   2.616  19.168  24.417  0.0818 -0.0036 -0.2851
51362W        W94275  21.945  27.213  25.012 -0.1911  0.1700 -0.2691
51363W        W94276  30.951  11.551  17.640 -0.0402  0.0548 -0.0436
51364W        W94277   7.717  19.001  27.881 -0.0327  0.0775 -0.0000
51365W        W94278   8.629  21.807  28.329  0.4319 -0.0890 -0.0185
51366W        W94279  30.960  23.611   0.725 -0.2166 -0.0035 -0.0746
51367W        W94280  29.879  23.434  27.167  0.0548 -0.0623 -0.0488
51368W        W94281   4.873  26.411  25.275 -0.1994  0.1465 -0.0589
51369W        W94282   2.974  12.631   3.234  0.4109  0.0267 -0.0704
51370W        W94283   3.681  14.640  14.793  0.2197  0.1509  0.0724
51371W        W94284   0.782  15.987   1.874 -0.1494  0.1138 -0.0138
51372W        W94285  23.715  28.847  19.383 -0.0260 -0.1515 -0.1994
51373W        W94286  29.852   3.866  20.692  0.1296  0.1865 -0.0821
51374W        W94287   6.629  11.224  25.467 -0.4529 -0.1027 -0.2188
51375W        W94288  30.198  26.119   4.690 -0.0137  0.1086  0.0119
51376W        W94289  34.025  14.706  19.194  0.0517  0.1222 -0.0503
51377W        W94290  33.987  11.523  20.235  0.1077  0.0236 -0.0796
51378W        W94291  27.652  33.013  25.028 -0.0995  0.3389 -0.0116
51379W        W94292  23.198   4.855  16.266  0.0109  0.1661  0.1912
51380W        W94293  32.926  17.185  24.570 -0.3916 -0.0171  0.0060
51381W        W94294   0.474  24.318  26.211  0.0374  0.1316 -0.1404
51382W        W94295   3.507  24.937  23.658 -0.1628  0.1796 -0.0526
51383W        W94296  29.984  31.883  21.695 -0.4824 -0.1825  0.0582
51384W        W94297  21.340   7.450  18.645  0.1038 -0.1482  0.1002
51385W        W94298  27.313  24.859   2.866 -0.0820  0.2711  0.4748
51386W        W94299  19.839  14.582  22.439  0.0322 -0.2805 -0.1247
51387W        W94300   1.441  21.821  23.703  0.1968  0.1643  0.3006
51388W        W94301  25.616  14.971  27.367  0.4328  0.0438  0.1267
51389W        W94302  23.603  26.520   6.035 -0.5709  0.0941 -0.2016
51390W        W94303  27.084  13.882  17.343 -0.0065 -0.2340 -0.3168
51391W        W94304   4.569  12.451  26.009  0.3021  0.0995 -0.1473
51392W        W94305  31.162  23.753   3.924 -0.2687  0.1075 -0.3709
51393W        W94306   1.031  22.360  16.797 -0.1828 -0.0156 -0.0586
51394W        W94307  31.571  22.400   3.341 -0.3696  0.0464 -0.2655
51395W        W94308  29.832  19.777  23.412 -0.2013  0.1612  0.3354
51396W        W94309  27.603  21.121  21.226  0.2515  0.2404 -0.1929
51397W        W94310  30.864  30.331   7.896 -0.0575  0.0828 -0.1234
51398W        W94311  32.578  22.870  18.662 -0.1918  0.0296  0.2794
51399W        W94312  32.312  26.001  24.711 -0.1306  0.1169  0.2812
51400W        W94313  30.882  25.321  20.712  0.1896 -0.3750 -0.0021
51401W        W94314  12.181  24.038  16.846  0.2504 -0.0055  0.0399
51402W        W94315  30.475  10.203  27.604  0.1264  0.2591  0.0433
51403W        W94316   8.387  16.530  19.276 -0.1810 -0.0428 -0.0644
51404W        W94317  28.196  13.002  21.594 -0.0355 -0.0871  0.2363
51405W        W94318   0.934  16.266  23.118  0.0699  0.2888 -0.0420
51406W        W94319  31.027  18.928  28.064 -0.0171 -0.1172 -0.1721
51407W        W94320  28.780   8.136  15.790 -0.0164  0.0869 -0.0483
51408W        W94321   5.676  24.717  21.908  0.0566 -0.0602  0.2650
51409W        W94322  21.116  18.012  21.131 -0.3529  0.0927 -0.0944
51410W        W94323  25.441  12.755   1.085  0.0465 -0.2473  0.0290
51411W        W94324  28.797  11.034  29.453  0.0520  0.1057 -0.1116
51412W        W94325   3.863  16.646  28.146  0.0549 -0.0970  0.1203
51413W        W94326  31.887  15.126  21.734 -0.0228 -0.0488 -0.0504
51414W        W94327  28.892  29.251  24.379  0.2820  0.1481  0.0029
51415W        W94328  30.468  20.532   6.261  0.1773  0.0551  0.0059
51416W        W94329  22.817  26.482  23.750  0.0302  0.0340  0.1693
51417W        W94330  29.707  21.652  29.605 -0.3250 -0.0345 -0.0501
51418W        W94331   3.369  21.467  16.740  0.1260  0.0488 -0.2262
51419W        W94332  27.811  23.904  21.770 -0.0262  0.1997 -0.1577
51420W        W94333   1.575  18.058  22.949  0.0860  0.1181  0.0305
51421W        W94334  28.328  19.193  13.587 -0.1604 -0.1498 -0.1078
51422W        W94335  34.444  25.946  26.685 -0.1565  0.0568  0.1814
51423W        W94336  31.237  12.231  19.667 -0.2874  0.3175  0.2636
51424W        W94337   0.060  17.991   1.125  0.0387  0.2612 -0.2247
51425W        W94338  25.570  18.084  21.897  0.0998 -0.0829  0.1495
51426W        W94339   0.115  27.141  18.129  0.1021  0.0360  0.3291
51427W        W94340   7.310  16.662  29.338 -0.0521 -0.0325  0.1325
51428W        W94341   1.818  21.108  15.039 -0.1080  0.2375  0.0365
51429W        W94342  33.993  22.498  23.953 -0.4255 -0.0161 -0.1722
51430W        W94343  27.730  16.412   3.494  0.2462 -0.1465  0.0152
51431W        W94344  10.421  22.648  26.852 -0.1772 -0.2297  0.1173
51432W        W94345  31.479  14.805  28.573  0.0040  0.1329 -0.4336
51433W        W94346  32.935  21.070  18.164  0.2440 -0.2326  0.0340
51434W        W94347  32.909  19.085  22.687 -0.2835  0.0172 -0.0744
51435W        W94348  32.285  20.697  26.632 -0.2652 -0.1451 -0.1327
51436W        W94349  28.744   9.214  24.817  0.1962 -0.2101 -0.1100
51437W        W94350  24.769  28.126  26.888  0.3747  0.1783 -0.0083
51438W        W94351  15.841  16.651   0.987 -0.0943 -0.5651 -0.1233
51439W        W94352   3.672   6.371   4.944  0.3593  0.2393  0.1739
51440W        W94353   3.435  21.166  21.892  0.2714 -0.2321 -0.1763
51441W        W94354   8.857  11.198  21.849 -0.0158  0.2513  0.0082
51442W        W94355  23.026  24.263  21.605 -0.1797 -0.3627 -0.2299
51443W        W94356   0.129  22.294  28.750  0.2563  0.0350  0.0816
51444W        W94357  26.213  16.885   4.132  0.3580 -0.2314 -0.0478
51445W        W94358  31.610  21.129   4.000  0.0170 -0.0375 -0.1348
51446W        W94359  29.988  14.429  29.475  0.2993 -0.0687  0.0302
51447W        W94360   3.188  16.078   2.015 -0.2110 -0.1190 -0.1631
51448W        W94361   0.401  21.409  28.420 -0.1761  0.1257 -0.1456
51449W        W94362   8.492  20.186  23.419  0.1448 -0.4012  0.0938
51450W        W94363  26.519   5.412   0.194  0.1353 -0.2553 -0.2330
51451W        W94364  25.430  20.274  13.554  0.1824  0.1637 -0.0201
51452W        W94365   7.528  28.723   0.058  0.0822 -0.1386 -0.2826
51453W        W94366  32.164  33.336  21.195 -0.0553 -0.3800  0.0793
51454W        W94367  32.654  25.421  20.575  0.1480 -0.2549 -0.1305
51455W        W94368   7.605  20.015  20.771  0.0770 -0.0295  0.0583
51456W        W94369   4.888  21.429  18.709 -0.2144  0.0426  0.0130
51457W        W94370  26.022  18.681  24.245 -0.2728  0.1208  0.0807
51458W        W94371   1.149  21.751   7.600 -0.0870  0.1232 -0.0817
51459W        W94372  30.772  16.866  23.579 -0.0302  0.3040 -0.1018
51460W        W94373   6.032  26.568  21.434  0.1632 -0.0577  0.1730
51461W        W94374  23.010  11.761  25.236 -0.0164  0.2613  0.0410
51462W        W94375  27.255  17.108  15.273  0.4362 -0.3711 -0.3369
51463W        W94376   4.445  16.903   9.538  0.1333  0.1061 -0.4172
51464W        W94377   0.376  29.795  21.345 -0.1566 -0.0035  0.0707
51465W        W94378   2.276  24.455  28.573  0.0045 -0.0952  0.1174
51466W        W94379  33.877  30.556  28.911 -0.2485  0.1984 -0.0448
51467W        W94380   0.769  30.929  28.239 -0.1868 -0.1070  0.1308
51468W        W94381  33.731  19.444   2.560  0.2339 -0.0967 -0.0316
51469W        W94382   0.200   6.627  21.397  0.1170  0.5003  0.1002
51470W        W94383   4.476  17.403   7.021 -0.1643  0.1464  0.0101
51471W        W94384  19.941  27.071   1.639 -0.1686 -0.0282 -0.3030
51472W        W94385  33.555  17.556  27.953  0.1696  0.1187 -0.1674
51473W        W94386   0.089  17.840   0.559 -0.3930  0.0004 -0.1530
51474W        W94387   0.677  24.302   7.356 -0.1463  0.0558  0.1556
51475W        W94388  29.066  13.779  25.755  0.1315 -0.0738  0.2409
51476W        W94389  21.003  23.846   6.966 -0.0752 -0.1182 -0.3152
51477W        W94390   7.490  20.321  24.428  0.2423  0.3758 -0.0147
51478W        W94391  31.549   8.431  25.986  0.2887  0.1546 -0.2472
51479W        W94392  24.284  24.883  20.384 -0.0791  0.4247 -0.0326
51480W        W94393  31.827  22.245  24.263 -0.2683 -0.0292  0.0060
51481W        W94394  30.215  23.785   3.660 -0.1219  0.2464  0.0884
51482W        W94395  27.878  29.817  26.338  0.0626  0.0512 -0.1847
51483W        W94396   4.993  27.777   4.594 -0.1387 -0.1038  0.0461
51484W        W94397  18.798  16.731  29.054  0.2057  0.1735 -0.1770
51485W        W94398  22.490  22.620   0.743  0.0663  0.1931 -0.0480
51486W        W94399  10.400  23.664  25.766  0.1449  0.0005  0.0627
51487W        W94400  25.200  20.528  25.612  0.0894 -0.1108 -0.0880
51488W        W94401  33.931  14.133   6.713 -0.2867 -0.0189  0.1238
51489W        W94402  32.297  17.191  21.064 -0.3348 -0.2889 -0.3700
51490W        W94403  31.089  28.702  28.819 -0.0909  0.0653  0.1329
51491W        W94404  22.112  21.659   2.500  0.0445  0.1247  0.3055
51492W        W94405   5.719  19.300  25.573 -0.4500  0.2234  0.0800
51493W        W94406   1.380  19.109   6.038  0.3522  0.2071  0.0964
51494W        W94407  34.122  15.147  25.728 -0.0653  0.5058  0.0105
51495W        W94408   3.645  25.047  19.083  0.1268  0.1327  0.1996
51496W        W94409  32.237  15.832  16.404  0.0723  0.0829 -0.4015
51497W        W94410  23.298  27.906   2.830 -0.2152  0.1550  0.1162
51498W        W94411  31.563  19.267  26.620 -0.0415  0.0824 -0.2462
51499W        W94412  24.443  26.187  22.731  0.1973  0.0858 -0.0727
51500W        W94413  10.147  21.130   6.727 -0.0950  0.0769 -0.0148
51501W        W94414  23.672  22.869  27.538  0.0319  0.3681 -0.0472
51502W        W94415  29.221  11.847  22.501 -0.2130 -0.4651  0.1704
51503W        W94416   1.918  20.692  28.634  0.1055 -0.0398 -0.2057
51504W        W94417  31.031  14.922  22.718  0.0622  0.1477  0.5316
51505W        W94418  17.149  18.300   0.038 -0.0306 -0.0202  0.0122
51506W        W94419  31.541  21.178  29.774  0.0747  0.3156 -0.3247
51507W        W94420  22.049   4.265   7.608 -0.0667 -0.0583 -0.2118
51508W        W94421  30.492  20.198   3.226 -0.0609 -0.0166 -0.2994
51509W        W94422  24.714  18.844   3.313  0.1160  0.3022 -0.2832
51510W        W94423  33.518  30.029  27.032 -0.1749 -0.0300  0.0240
51511W        W94424   5.996  28.974  29.705  0.1074  0.1156 -0.0152
51512W        W94425   1.978  17.389   6.978  0.1130 -0.0678  0.0747
51513W        W94426  27.845  18.762   2.526  0.1166 -0.3375 -0.0580
51514W        W94427  25.543  22.031   3.421 -0.4359 -0.3587 -0.0572
51515W        W94428  17.036  25.059   4.283  0.0090  0.0309  0.1504
51516W        W94429  27.925  33.152  27.878 -0.2102 -0.0342 -0.2693
51517W        W94430   2.662  13.698   1.706  0.0049 -0.2358  0.0539
51518W        W94431  28.491  22.633  25.387 -0.2394 -0.3119 -0.1420
51519W        W94432  26.720  29.821   8.257 -0.2768 -0.2094  0.0377
51520W        W94433  31.833  27.952  21.055 -0.0590 -0.0553  0.3542
51521W        W94434  27.793  21.837   0.337  0.3348 -0.2576 -0.0044
51522W        W94435   9.504  19.954   7.172  0.1306 -0.1199 -0.0737
51523W        W94436   6.995  10.164   5.712 -0.0778  0.2911 -0.0724
51524W        W94437  33.239  22.693   9.488  0.2650  0.0680  0.1507
51525W        W94438  27.246  27.685  17.793  0.0547  0.0075 -0.0111
51526W        W94439  10.729  20.197   9.227  0.0379  0.3377  0.1346
51527W        W94440  24.253  22.421  15.533 -0.3084  0.1097 -0.0841
51528W        W94441   4.651  24.238  25.875 -0.1845  0.1439 -0.0475
51529W        W94442  28.181  26.342  26.759 -0.2873 -0.0586 -0.0653
51530W        W94443  26.453  16.207  25.458  0.0752 -0.0689 -0.0474
51531W        W94444   1.366  17.314  20.297  0.0628  0.1257  0.0484
51532W        W94445  31.580  21.198   6.698 -0.1060 -0.0492  0.0606
51533W        W94446   1.046  22.029  29.165 -0.0615  0.2042 -0.0839
51534W        W94447   3.710   9.853  29.674  0.0494 -0.2494  0.0157
51535W        W94448   4.815  18.210  25.766 -0.3490 -0.3096 -0.2101
51536W        W94449  28.663  22.127  24.686 -0.0577  0.2509 -0.0205
51537W        W94450  32.119  27.750  23.221 -0.0476  0.0649  0.0828
51538W        W94451  34.461  31.788  17.929  0.2412 -0.1496  0.3306
51539W        W94452  26.705  18.964  27.029  0.2104  0.1686  0.0123
51540W        W94453  27.694  17.002  28.274 -0.0738 -0.5327  0.0603
51541W        W94454  29.665  22.009   6.573  0.3463  0.0022 -0.0752
51542W        W94455  25.855  16.873   2.583  0.3396 -0.0728  0.1403
51543W        W94456  25.680  18.285   2.429  0.3249  0.1889 -0.3999
51544W        W94457   2.435  23.124  25.364  0.0817 -0.0741 -0.2050
51545W        W94458  27.337  28.827  27.872 -0.3655  0.0799 -0.0953
51546W        W94459  30.036  17.086  18.543 -0.1618  0.0350 -0.0448
51547W        W94460  10.230  21.771  25.337 -0.1555  0.3751  0.0968
51548W        W94461  24.016  19.574   1.847 -0.1498  0.1019 -0.1223
51549W        W94462  21.677   1.789  29.040 -0.0239  0.0730  0.2480
51550W        W94463  26.539  12.535  18.812  0.1324 -0.0915  0.1196
51551W        W94464  33.092  18.472   7.719  0.2476  0.0044  0.0507
51552W        W94465  12.504  32.722  23.881  0.1537  0.3543 -0.2354
51553W        W94466  27.565  23.951   3.062  0.0647  0.0615 -0.1119
51554W        W94467  30.017  17.453   1.231 -0.1147  0.1073  0.1415
51555W        W94468  21.916  25.484  29.524  0.1815  0.0426 -0.2668
51556W        W94469  24.543   4.259  28.042  0.2297 -0.1597 -0.0573
51557W        W94470   0.442  16.919  29.043 -0.0821 -0.1327  0.3070
51558W        W94471   5.836  21.995  23.574 -0.0769  0.3068  0.1563
51559W        W94472  31.741  27.329   7.604  0.0632 -0.1850  0.1473
51560W        W94473  30.554  20.738  17.431 -0.1714 -0.0601  0.3277
51561W        W94474   0.343  18.071   4.511  0.2713 -0.0841 -0.1510
51562W        W94475  21.300  18.758  13.753 -0.1145  0.1890 -0.1650
51563W        W94476  25.087  16.848   7.062  0.1819  0.0659  0.3794
51564W        W94477  28.572  19.758  28.372 -0.2853 -0.1464 -0.2196
51565W        W94478   6.301  11.087   0.928 -0.1031  0.0286 -0.0181
51566W        W94479  26.298  20.988  26.655  0.2689  0.0663  0.0410
51567W        W94480   5.272  19.748  21.498  0.1793 -0.0346  0.2055
51568W        W94481  25.894  23.106  15.137  0.0561  0.0765  0.0774
51569W        W94482  32.385  31.655  26.855 -0.3109 -0.1248  0.0719
51570W        W94483  34.442  19.795  23.772 -0.0238  0.1203 -0.1087
51571W        W94484   6.021  18.349   2.864  0.1640  0.0302 -0.0493
51572W        W94485  31.169  23.248   3.056  0.2142  0.1372 -0.0609
51573W        W94486  29.757  20.583   2.869  0.2602 -0.1413 -0.0698
51574W        W94487  29.510   7.855  15.762 -0.0238 -0.2143  0.0907
51575W        W94488  29.923  23.223   6.160 -0.2814 -0.3084  0.3600
51576W        W94489   1.129   4.364  28.475  0.1001  0.0826  0.1221
51577W        W94490   1.382  22.345  24.574  0.2430 -0.2306  0.0446
51578W        W94491  11.743  25.402  21.389 -0.1138  0.0743 -0.1478
51579W        W94492  28.797  25.590  26.625 -0.1468 -0.1901  0.0273
51580W        W94493  24.165  25.223  26.660  0.1412  0.1627  0.0123
51581W        W94494   5.092  28.943   4.214  0.1114 -0.4034 -0.2401
51582W        W94495   6.526  10.074  27.867 -0.0815 -0.2984 -0.0656
51583W        W94496  24.734  18.708  24.001  0.0707  0.1338 -0.1055
51584W        W94497  20.496  25.830  25.577 -0.1320  0.0238  0.1324
51585W        W94498  32.709  24.256  20.896  0.1539 -0.2429  0.0650
51586W        W94499  28.017  17.901  15.984  0.1884 -0.1197 -0.2181
51587W        W94500  26.551  24.580   9.105  0.2297 -0.2509 -0.2329
51588W        W94501  33.055  14.314   1.933  0.1020 -0.3150  0.1284
51589W        W94502   0.902  14.355   2.865  0.2021  0.3120  0.3442
51590W        W94503  32.736  15.576   3.848  0.2233  0.1481 -0.1863
51591W        W94504   1.457  23.169  19.154 -0.0077 -0.0820  0.1384
51592W        W94505   1.209  17.641   6.372  0.0094  0.1068 -0.2084
51593W        W94506   3.000  14.696  25.069 -0.0329 -0.1388  0.1916
51594W        W94507  33.613  19.569   5.221 -0.1332  0.1595  0.0714
51595W        W94508  19.273  25.601  14.068 -0.1754  0.0417  0.0395
51596W        W94509  32.245  15.477   1.681 -0.0803 -0.3152 -0.0722
51597W        W94510   1.675  29.262   1.016  0.0389 -0.2651  0.0757
51598W        W94511   7.750  16.319  28.961 -0.1098 -0.0468  0.1021
51599W        W94512  26.726  16.898   4.188 -0.2044 -0.0108 -0.1307
51600W        W94513  26.985  27.322  26.726 -0.0459 -0.0115 -0.0747
51601W        W94514  29.360  18.975  22.767 -0.2736 -0.2493  0.1073
51602W        W94515   4.544  25.463  19.338 -0.2155  0.3861  0.2247
51603W        W94516  16.727  13.769  27.902 -0.0268  0.2672 -0.0790
51604W        W94517  25.598  20.246   4.084 -0.1215 -0.3457  0.1275
51605W        W94518  31.852  19.747   3.590 -0.2205 -0.2750 -0.0924
51606W        W94519  31.605  26.343  28.358  0.2918  0.2119  0.1770
51607W        W94520   3.379  18.018  27.707 -0.0467  0.2170  0.2554
51608W        W94521   4.476  11.371  22.516  0.0110  0.1239 -0.2635
51609W        W94522  33.350  11.712  26.655  0.0110  0.2338  0.1539
51610W        W94523  25.599  22.611  25.094 -0.1526 -0.3842 -0.2348
51611W        W94524  32.340  23.255  25.721  0.0317 -0.0289  0.1862
51612W        W94525  29.098  14.444  26.350 -0.1182  0.3452  0.2014
51613W        W94526  26.677  25.938  27.945  0.0735  0.2288  0.3100
51614W        W94527   1.840  30.956   8.811 -0.0607  0.1166 -0.3267
51615W        W94528   1.683  23.522  29.358 -0.2632  0.3057 -0.0349
51616W        W94529  32.856  22.785  19.471  0.1278 -0.0454  0.0255
51617W        W94530   3.016  11.022   5.147  0.1616 -0.2224  0.0520
51618W        W94531  11.128  23.861   2.650  0.2911  0.1797 -0.1694
51619W        W94532  28.231  28.068   0.773  0.0239  0.2094  0.2300
51620W        W94533  33.411  18.010  28.313  0.1084  0.0941 -0.4621
51621W        W94534   0.302  20.812   2.837 -0.2383  0.1071 -0.1526
51622W        W94535  33.164  26.116  14.456  0.1764 -0.1118  0.0173
51623W        W94536   1.189  13.767  23.761 -0.0474  0.0543  0.1269
51624W        W94537  19.248  17.065   2.092 -0.0101  0.0931 -0.0025
51625W        W94538  33.086  27.062   0.513  0.1569  0.0388 -0.0912
51626W        W94539  22.181   2.826   2.799 -0.0844  0.0059 -0.1381
51627W        W94540   6.512  25.336  15.989 -0.0586  0.1917  0.2216
51628W        W94541  29.486   7.060  23.647 -0.0234 -0.0476 -0.2499
51629W        W94542  27.649  19.565  22.625 -0.0660  0.1112 -0.0575
51630W        W94543  31.881  19.805  27.395  0.1584 -0.1474  0.0196
51631W        W94544  22.952  24.802  25.832 -0.0674 -0.1961  0.2474
51632W        W94545  27.970  19.535  25.606 -0.1338  0.1742  0.0188
51633W        W94546  26.628  15.069  21.745  0.0753  0.0870  0.0855
51634W        W94547   9.000   8.767  27.749  0.0038  0.1157  0.3023
51635W        W94548  29.146  19.428  29.545 -0.1832 -0.4070  0.3014
51636W        W94549   8.813  13.049   2.754 -0.1166  0.1799  0.0120
51637W        W94550   9.146  26.462   2.762 -0.0932  0.1543  0.1539
51638W        W94551   7.281   9.755  27.586 -0.0481 -0.4290 -0.2263
51639W        W94552  15.787  18.687  29.020  0.2049 -0.2210  0.2054
51640W        W94553  31.233  13.532  25.489 -0.3861  0.0515  0.2817
51641W        W94554  22.137  23.761  20.404 -0.1802 -0.2355  0.2044
51642W        W94555  33.553  20.162   4.698  0.3324 -0.2871  0.5114
51643W        W94556   9.962  23.101  18.671 -0.1736  0.1094  0.0441
51644W        W94557  27.434  29.281  26.826  0.0823  0.2318  0.1444
51645W        W94558  33.497  18.220   7.191 -0.0877  0.2654 -0.3116
51646W        W94559  24.452  22.139  26.611 -0.2018  0.3919  0.0096
51647W        W94560   1.656  19.159   5.540 -0.2208 -0.0205 -0.0176
51648W        W94561  26.958  15.928  25.542  0.3676  0.1261  0.1287
51649W        W94562  33.336  13.626  23.263  0.0626  0.2311 -0.2267
51650W        W94563   4.838  24.094   1.856  0.1654 -0.0807 -0.1489
51651W        W94564  34.123  34.204   1.632 -0.0286 -0.2517  0.1338
51652W        W94565  29.423  24.046   7.760 -0.2348  0.0444  0.3120
51653W        W94566   6.842  22.671  20.318 -0.5813 -0.1770 -0.5994
51654W        W94567   3.448  28.180   0.525  0.0641  0.0396  0.3589
51655W        W94568   0.164  24.420   1.681 -0.3471  0.0149  0.2808
51656W        W94569  31.952  19.936   8.866 -0.1475 -0.0321 -0.1047
51657W        W94570   1.397  31.589   3.162 -0.2140  0.2007  0.0432
51658W        W94571  31.518  21.873  27.158 -0.1586  0.0526 -0.1575
51659W        W94572  33.254  23.014   0.160  0.1941  0.1618  0.1588
51660W        W94573   3.743  12.310   5.179  0.4647  0.2329  0.3123
51661W        W94574  25.821  16.996   1.240  0.0393 -0.0203  0.3566
51662W        W94575  29.941  17.590  20.286  0.3736  0.0422  0.2156
51663W        W94576   0.379  17.560   1.377 -0.2001  0.1990 -0.0152
51664W        W94577  34.250  24.216   7.178  0.2893  0.0268 -0.0133
51665W        W94578  23.931  18.314  24.082  0.2233 -0.0702  0.2762
51666W        W94579  30.498  21.134  28.931  0.0567  0.2337 -0.0899
51667W        W94580   7.383  15.287  23.172 -0.0883 -0.0214 -0.2061
51668W        W94581   0.403  31.585  27.540  0.0081  0.1977  0.1859
51669W        W94582  31.246  22.359  26.955 -0.1538  0.1955  0.1123
51670W        W94583  33.131  14.611  29.145 -0.2014  0.1942  0.2811
51671W        W94584  34.172  29.960  29.688  0.1360  0.3501 -0.2911
51672W        W94585   9.236  13.302  25.491  0.0693  0.0209  0.0735
51673W        W94586  27.284  25.115  24.911  0.0968 -0.0927  0.0722
51674W        W94587   0.580  16.080  26.816  0.1402  0.0996 -0.1772
51675W        W94588  31.694  23.513  28.509  0.0322 -0.1858 -0.1178
51676W        W94589  25.148  26.391   2.656 -0.1056 -0.2149 -0.1136
51677W        W94590  28.849  14.246   5.474  0.2110 -0.0599  0.0170
51678W        W94591  23.643  32.497  29.127 -0.0330  0.0299 -0.4688
51679W        W94592  32.859  18.641   8.954  0.2861  0.0888 -0.0102
51680W        W94593  29.312   0.137   3.034  0.0775  0.0601 -0.1108
51681W        W94594   1.775  26.836  25.441 -0.1065  0.0663 -0.2771
51682W        W94595  31.303  16.603   7.479 -0.0206  0.1123 -0.1016
51683W        W94596   0.461  22.948   0.071  0.0361 -0.2185 -0.0983
51684W        W94597  20.884  26.337   7.798 -0.1449 -0.4548  0.2037
51685W        W94598  27.219  20.316   5.835  0.0953 -0.0097 -0.2392
51686W        W94599  24.191  27.054   8.963  0.0234 -0.0910  0.0363
51687W        W94600  30.507  10.348  24.529  0.2316 -0.2292  0.2240
51688W        W94601  34.457  28.125   4.349  0.1642 -0.2407 -0.4377
51689W        W94602   0.566   0.429   3.626 -0.0681  0.0760  0.1017
51690W        W94603  23.442  21.156   7.537  0.0512  0.1028 -0.0385
51691W        W94604  26.475  28.778  24.451 -0.0883 -0.2681  0.1049
51692W        W94605  30.623  10.299  28.067  0.1373  0.1737 -0.4142
51693W        W94606  25.734  19.782   3.310 -0.0763 -0.2952 -0.3478
51694W        W94607  30.510  16.627   6.763 -0.1741 -0.2420 -0.0993
51695W        W94608  30.273  14.198  21.844  0.0893 -0.4628 -0.2868
51696W        W94609  23.989  15.449  24.429 -0.3062  0.1293  0.1507
51697W        W94610   2.072  15.280  14.483  0.2445 -0.0984 -0.2634
51698W        W94611  26.879  26.025  22.994 -0.0395 -0.4340  0.1726
51699W        W94612   0.021  31.369  25.480  0.1191 -0.3045  0.0938
51700W        W94613  28.588  29.893  14.169 -0.2077  0.4325 -0.0999
51701W        W94614  19.910  27.109  15.047 -0.2027 -0.0231  0.1761
51702W        W94615  28.385  23.409  18.345  0.1830 -0.1191 -0.0247
51703W        W94616  26.428  16.471  23.500 -0.1102 -0.2767  0.2058
51704W        W94617  28.585  24.954  16.562  0.1072 -0.2511 -0.1296
51705W        W94618  26.594  16.146  22.429 -0.3746  0.1849  0.3188
51706W        W94619  11.149  28.633  16.661  0.1050  0.0034  0.2541
51707W        W94620  31.285  29.583  19.239 -0.0319 -0.1985 -0.0117
51708W        W94621  28.264  19.069  17.497  0.0945 -0.1558  0.2418
51709W        W94622  34.283  21.471  18.084 -0.0072  0.2544  0.0497
51710W        W94623  25.376  26.361  16.727 -0.1515 -0.1209  0.1215
51711W        W94624  31.384  16.135  15.142  0.0355  0.1199 -0.3646
51712W        W94625   2.311  28.018  22.915  0.0503  0.0005 -0.0534
51713W        W94626   1.878  24.840  15.172 -0.1191  0.3678  0.2623
51714W        W94627  26.962  29.176  15.594 -0.0643 -0.1753  0.2940
51715W        W94628   4.131  18.073  18.893  0.1600 -0.0184 -0.1649
51716W        W94629  27.108   2.647  20.236 -0.4818  0.1238  0.1975
51717W        W94630   0.132  24.862  15.839 -0.4445  0.1069 -0.0193
51718W        W94631  34.181  14.885  20.200  0.0175  0.2716  0.1898
51719W        W94632  30.795  25.534  15.677  0.2321  0.0175 -0.0541
51720W        W94633  30.930  21.742  22.506  0.0539  0.4471  0.1055
51721W        W94634   0.035  28.183  16.143 -0.0920 -0.2900 -0.2219
51722W        W94635  30.718  24.734  18.887 -0.1000 -0.0166 -0.0550
51723W        W94636   5.883  10.488  25.503 -0.2053 -0.2974 -0.4856
51724W        W94637  30.984  26.580  19.351  0.2636  0.2565  0.1391
51725W        W94638   8.787  20.081  18.061 -0.0482  0.1303  0.0189
51726W        W94639  25.321  26.711  25.468  0.1233 -0.1969 -0.1556
51727W        W94640  32.810  28.141  20.523  0.0835  0.0330  0.1386
51728W        W94641  21.788  20.989  19.112  0.3628  0.1525 -0.3961
51729W        W94642  31.920  23.819  19.861  0.0704 -0.0940 -0.3267
51730W        W94643   1.532  30.919  15.880  0.1920 -0.1973 -0.2262
51731W        W94644  21.993  28.601  13.478 -0.0837  0.1632  0.2284
51732W        W94645  34.463  15.091  14.697 -0.1341  0.0864 -0.0205
51733W        W94646  23.322  27.539  15.428 -0.2000  0.2089 -0.2937
51734W        W94647  27.440  16.887  19.072  0.2301 -0.4516  0.1439
51735W        W94648  22.392  11.307  18.205  0.0339  0.0744 -0.0596
51736W        W94649   1.617  23.108  16.080 -0.0775  0.3069 -0.0053
51737W        W94650   6.333  21.103  17.239 -0.1273 -0.2154  0.4402
51738W        W94651  32.772  22.714  14.909  0.2847  0.2459  0.0496
51739W        W94652  30.783  19.661  14.001 -0.1144 -0.0403  0.2961
51740W        W94653  33.849  32.500  15.784 -0.1581 -0.0918 -0.0166
51741W        W94654   3.859  27.210  25.419  0.1849 -0.4965 -0.0507
51742W        W94655   1.176   0.957  19.708 -0.0387  0.0210 -0.0988
51743W        W94656   1.115  25.062  20.021 -0.1339  0.0955  0.0289
51744W        W94657  22.687  26.103   2.630 -0.4589  0.0579 -0.1370
51745W        W94658  32.720   9.790  23.835  0.0691  0.0623 -0.0683
51746W        W94659   4.605  23.064  19.498  0.4031 -0.2505  0.1041
51747W        W94660  34.169  23.105  16.930 -0.0993 -0.2204  0.1552
51748W        W94661  24.608  22.494  23.679 -0.1606 -0.0549  0.2771
51749W        W94662  30.853  22.632  18.608  0.0466 -0.0459 -0.3208
51750W        W94663   2.776  21.136  16.572 -0.2494 -0.0659 -0.1411
51751W        W94664   4.718  22.733  20.234  0.2015 -0.1976  0.0979
51752W        W94665  28.020  33.603  14.672  0.0696 -0.2733  0.2622
51753W        W94666  25.620  30.960  13.869  0.0936 -0.2545  0.3479
51754W        W94667  26.141  25.912  19.146  0.2897  0.1513 -0.4002
51755W        W94668   3.532  24.317  14.283  0.0478 -0.0184  0.0868
51756W        W94669   3.135  19.711  27.516  0.2179  0.3529 -0.2970
51757W        W94670  28.762  22.291  14.947 -0.1236 -0.1367 -0.1056
51758W        W94671   3.529  22.244  19.844  0.1439 -0.0691 -0.1001
51759W        W94672  33.629  20.763  16.389  0.2112  0.0458  0.3958
51760W        W94673  18.161  20.458  14.034  0.0038  0.1955 -0.1609
51761W        W94674   0.380  18.468  19.776 -0.3175  0.4397 -0.1755
51762W        W94675  21.709  34.194  16.935  0.0118  0.1199 -0.2995
51763W        W94676   3.701  21.084  14.865  0.1873  0.0035  0.3014
51764W        W94677  31.745  11.662   0.871 -0.1150 -0.0469 -0.0032
51765W        W94678  27.126  11.271  24.579  0.3125 -0.1438  0.0006
51766W        W94679  30.573  21.636  14.162  0.1262 -0.3244 -0.0896
51767W        W94680   1.451  24.411  18.989 -0.1864  0.1487  0.3279
51768W        W94681   4.849  18.365  20.714  0.0029 -0.1531  0.1301
51769W        W94682   2.210  30.534  18.862 -0.2009  0.2257 -0.0831
51770W        W94683  31.242  14.297  18.310 -0.1812  0.0876  0.2382
51771W        W94684   1.464   7.760   2.103  0.0675  0.1569 -0.0705
51772W        W94685  32.966  31.469  18.531 -0.0641  0.3334  0.0174
51773W        W94686  11.263   8.819  18.474  0.0376 -0.2517 -0.0841
51774W        W94687  25.169  30.942  14.784 -0.2048 -0.4939  0.1399
51775W        W94688   1.365  33.609  15.360 -0.0904  0.2289 -0.1262
51776W        W94689  27.538  18.601  15.107 -0.2161  0.2172 -0.1210
51777W        W94690  28.089  30.757  13.816  0.2396  0.1483  0.1987
51778W        W94691  11.905  23.012  20.541  0.3302  0.1223  0.2647
51779W        W94692   2.494  31.444  17.436  0.0284 -0.2137 -0.5671
51780W        W94693  27.019  21.224  27.189 -0.3503 -0.0028 -0.0107
51781W        W94694   0.262  25.616  13.830 -0.0496  0.1433 -0.3097
51782W        W94695   3.827  30.855  20.436 -0.1351 -0.0394 -0.0450
51783W        W94696  30.276  26.914  17.118  0.0407  0.2769 -0.1998
51784W        W94697  32.903  19.618  15.278 -0.1128 -0.0561  0.1956
51785W        W94698   9.744  21.001  19.887 -0.0451 -0.0167  0.2030
51786W        W94699  31.870  27.374  15.922 -0.2424  0.3282 -0.4095
51787W        W94700  30.189  16.619  15.678  0.1480 -0.0664 -0.0182
51788W        W94701  33.334  16.532  19.104 -0.0046  0.0707 -0.3401
51789W        W94702  26.523  18.202  14.000  0.1323  0.2117  0.0959
51790W        W94703  32.900  12.429  20.029 -0.0631 -0.1875  0.0424
51791W        W94704  28.105   8.747  16.827 -0.0216 -0.1869  0.2145
51792W        W94705  29.258  13.564  15.723 -0.0680 -0.4046 -0.5355
51793W        W94706   0.298  19.927  14.997 -0.1021  0.1575 -0.1367
51794W        W94707   0.157  22.438  23.313 -0.1293 -0.1528  0.0974
51795W        W94708  30.248  24.601  24.716 -0.2688  0.0135  0.0521
51796W        W94709  23.406  23.752  13.939  0.0169  0.1316  0.2207
51797W        W94710   1.178  21.233  20.150  0.0579 -0.0992 -0.1492
51798W        W94711  31.422  28.981  18.056  0.0380  0.4709  0.2015
51799W        W94712  30.228  33.229  17.621 -0.3629  0.1771  0.1229
51800W        W94713   3.214   0.357  16.930 -0.0310 -0.0950 -0.1938
51801W        W94714   4.412  24.726  18.902 -0.4395 -0.1055  0.1059
51802W        W94715  33.879  20.610  15.656  0.0800  0.2378  0.1119
51803W        W94716   2.418  22.763  14.988 -0.4121  0.1147 -0.1498
51804W        W94717  30.483  17.748  20.346 -0.1060  0.2124  0.1501
51805W        W94718  30.641  31.514  25.211  0.1951 -0.2282 -0.1385
51806W        W94719  32.074   2.762  26.402 -0.1777 -0.0869 -0.2572
51807W        W94720   0.814  20.239  16.401 -0.0439  0.0433  0.4238
51808W        W94721  32.673  21.533  17.963  0.1510  0.3229  0.3627
51809W        W94722  32.754  24.923  18.231  0.1359  0.2603  0.3041
51810W        W94723  33.700  15.904  19.204 -0.0041 -0.1081  0.0511
51811W        W94724  30.207  20.731  14.731  0.1040 -0.2238  0.3035
51812W        W94725   1.878  18.942  18.269 -0.1600 -0.0327 -0.0265
51813W        W94726   3.293  11.293  17.972 -0.1043 -0.0077  0.0658
51814W        W94727  33.801  22.747  20.149  0.2541 -0.5337  0.0821
51815W        W94728  29.722  17.031  14.545  0.1741  0.2030 -0.0513
51816W        W94729   3.197  25.298  14.967  0.1026 -0.0211  0.1760
51817W        W94730   1.080  23.656  26.686  0.0839  0.3130 -0.0100
51818W        W94731   0.142  30.812  18.712  0.1131  0.1217  0.0630
51819W        W94732  30.128  29.779  15.061  0.0368  0.1040 -0.1629
51820W        W94733  12.753  25.384  14.974  0.1957  0.1370  0.1345
51821W        W94734  31.300  30.364  24.161  0.0910 -0.4502 -0.2561
51822W        W94735  34.428  23.655  18.756  0.1957  0.0281 -0.2743
51823W        W94736  32.172  20.954  18.975  0.0113 -0.1187  0.2733
51824W        W94737  31.068  25.252  15.336  0.2684  0.0312  0.4407
51825W        W94738   0.122  12.872  16.256  0.1164 -0.0500 -0.0281
51826W        W94739  33.335   9.384  21.039  0.1553 -0.0345 -0.0665
51827W        W94740   1.732  26.023  15.686  0.1477 -0.2056  0.0325
51828W        W94741  29.649  24.887  16.108 -0.3958  0.0282  0.0254
51829W        W94742  33.005  21.876  17.860  0.2453  0.0907 -0.5878
51830W        W94743   3.957  16.477  13.963 -0.0413  0.1841 -0.2046
51831W        W94744   6.087  27.467  24.598  0.3097  0.1577 -0.1360
51832W        W94745   2.207  22.726  20.475 -0.4209  0.1630 -0.0053
51833W        W94746   1.460  30.035  16.505 -0.3051  0.0976  0.0414
51834W        W94747  28.694  31.042  27.999  0.0888  0.0556  0.2334
51835W        W94748  28.409  33.092  21.252  0.3205  0.1909  0.1815
51836W        W94749   9.930  22.898   0.962  0.0237 -0.2107  0.0644
51837W        W94750  33.746  33.173  16.415  0.2033  0.1871  0.2778
51838W        W94751  33.854  26.562  22.623  0.5014 -0.0562  0.0510
51839W        W94752  34.489  31.304  18.923 -0.1720 -0.2442  0.0954
51840W        W94753   6.685  24.630  15.591  0.0126  0.0886  0.0031
51841W        W94754   0.879  20.122  17.758 -0.3027 -0.1805  0.2657
51842W        W94755   2.853  16.303  20.437  0.0118 -0.1385  0.0346
51843W        W94756  10.992  29.753  26.101 -0.2745 -0.4359 -0.1309
51844W        W94757  29.182  28.238  13.987 -0.4687  0.1152 -0.1918
51845W        W94758  34.219  27.350  17.001  0.0620 -0.1543 -0.1766
51846W        W94759  13.782  14.024  15.791 -0.0880 -0.2657  0.2568
51847W        W94760   4.225  30.673  17.044  0.0406 -0.1530  0.0112
51848W        W94761  25.929  34.028  16.737  0.0602  0.0422 -0.1790
51849W        W94762  28.489   1.158  18.810 -0.3989 -0.1472 -0.1677
51850W        W94763   0.708  33.729  17.170 -0.1203 -0.1304  0.1542
51851W        W94764   7.929  23.176  16.608 -0.1862  0.0301 -0.0829
51852W        W94765  24.281  21.279  26.599  0.0007 -0.1334 -0.0759
51853W        W94766   0.100   0.560  22.009  0.2520  0.1529  0.1432
51854W        W94767  28.936  25.032  18.752  0.1354  0.2598  0.0573
51855W        W94768   2.179  27.403  15.703 -0.2451 -0.0542 -0.2005
51856W        W94769  29.457  31.811  17.599 -0.4193  0.2412  0.0610
51857W        W94770  32.371  31.776  15.457  0.4054 -0.3460 -0.2005
51858W        W94771  22.498  24.131  12.839  0.0574  0.2094 -0.3527
51859W        W94772  25.853  24.923  13.494 -0.1155  0.1287 -0.2694
51860W        W94773  32.345  30.512  16.456 -0.2313  0.3513  0.1230
51861W        W94774  24.692   0.023  16.529 -0.0553 -0.2434 -0.0474
51862W        W94775  34.425  25.745  16.824 -0.1361 -0.0855  0.1577
51863W        W94776   7.479   4.948  22.393 -0.2490  0.0036 -0.0325
51864W        W94777  30.189  23.216  14.045  0.1769 -0.0999 -0.0500
51865W        W94778  28.850  21.509  13.121  0.1801 -0.0412  0.0765
51866W        W94779   0.421  20.730  22.030 -0.0405 -0.2989 -0.1633
51867W        W94780  31.127  26.435  14.083  0.0493 -0.0162 -0.1713
51868W        W94781  24.606  32.017  14.349 -0.1081  0.0472 -0.0717
51869W        W94782   2.574  20.350  23.427  0.2025  0.0113  0.0452
51870W        W94783  34.179  19.130  18.003  0.2262 -0.2315 -0.0043
51871W        W94784  31.099  19.769  18.213 -0.1505  0.0133  0.0508
51872W        W94785  33.987  21.422  15.359  0.0070  0.0083 -0.1118
51873W        W94786   1.064  27.430  18.085  0.4124 -0.3077  0.0498
51874W        W94787  21.897  27.209  22.301 -0.1991  0.1409 -0.0861
51875W        W94788  34.447  26.964  18.610 -0.2407 -0.1188  0.1147
51876W        W94789   0.084  23.361  22.105 -0.1080 -0.1161 -0.0033
51877W        W94790   3.283  17.304  23.515  0.1982  0.1229  0.0869
51878W        W94791   2.215  31.546  16.215  0.2515  0.0345 -0.1176
51879W        W94792  29.784  22.556  19.446  0.1197 -0.2400 -0.1865
51880W        W94793  32.201  33.952  17.872 -0.2097  0.3693 -0.1145
51881W        W94794  31.871   2.475  21.634 -0.0425 -0.1739  0.4936
51882W        W94795  31.839  12.061  16.562  0.1045 -0.1844  0.0983
51883W        W94796  27.350  17.648  15.092 -0.1563  0.1638  0.2475
51884W        W94797  30.941  27.661  16.918  0.0019  0.2510 -0.1108
51885W        W94798  32.251  20.912  14.883 -0.0129 -0.3033  0.2629
51886W        W94799  29.356  27.858  17.193 -0.0640  0.0843  0.3812
51887W        W94800  27.579  18.851  27.567 -0.1061  0.1234 -0.0359
51888W        W94801  21.279  18.862  29.762  0.0868 -0.2806 -0.0621
51889W        W94802   1.134  18.681  24.653 -0.1799 -0.1912  0.2322
51890W        W94803   9.568  14.290  22.613  0.1855 -0.1063 -0.2528
51891W        W94804  31.273  22.308  13.777  0.2432 -0.0263  0.0919
51892W        W94805  30.623  28.449  16.558  0.0675  0.0671  0.1884
51893W        W94806   2.019  27.026  17.794 -0.1052 -0.3487 -0.0732
51894W        W94807   7.080  23.142  22.725  0.0308  0.0375 -0.0218
51895W        W94808   4.202  21.983  21.622 -0.1697  0.1547  0.1142
51896W        W94809  31.894  26.511  23.916  0.0321  0.0424  0.1108
51897W        W94810   2.579  16.897  15.177 -0.1362  0.2369  0.0252
51898W        W94811   2.057  27.301  14.418 -0.0162  0.2200  0.0046
51899W        W94812   2.839  20.886  24.375  0.0894  0.0401 -0.3448
51900W        W94813  23.844  16.390  15.069 -0.1655  0.0238  0.3230
51901W        W94814  34.005  26.663  17.046  0.0048  0.0401 -0.5463
51902W        W94815   3.834  21.820  17.084 -0.0067 -0.0077  0.2437
51903W        W94816  24.937  13.833  14.888  0.0730  0.1319  0.1932
51904W        W94817  27.419  27.542  13.678 -0.0922 -0.0003  0.1095
51905W        W94818  31.490  12.073  23.533 -0.3087  0.0236 -0.1488
51906W        W94819   2.772  15.842  19.308  0.2140 -0.0575 -0.0709
51907W        W94820   1.738  24.309  19.371  0.0168 -0.2255  0.1965
51908W        W94821   2.636  23.065  17.431  0.0125 -0.4103 -0.2630
51909W        W94822  27.626  22.741  13.598 -0.0142  0.0095  0.2439
51910W        W94823  34.290  19.835  18.991  0.0549 -0.0165  0.0078
51911W        W94824  23.384  22.233  26.979  0.0081 -0.1640 -0.1926
51912W        W94825  33.571  28.220  17.277  0.1943  0.1652  0.2009
51913W        W94826  26.921  22.314  20.497  0.0836  0.0956 -0.0842
51914W        W94827   5.387  29.823  15.486  0.2592 -0.1997  0.0724
51915W        W94828   9.468  22.285  14.315 -0.2208  0.1708 -0.0003
51916W        W94829  30.362  23.355  26.992 -0.1029  0.0827 -0.2867
51917W        W94830  32.461  25.614  24.114  0.1709  0.0893 -0.0854
51918W        W94831  27.321  32.507  20.649  0.0362 -0.1396 -0.0090
51919W        W94832   5.407  33.708  23.559 -0.2603  0.0749  0.1371
51920W        W94833  30.534  28.083  23.484  0.1240 -0.4791 -0.1758
51921W        W94834  26.716  24.665  15.591 -0.0829  0.4720 -0.1346
51922W        W94835  30.788  25.526  14.182  0.2455 -0.1392 -0.1037
51923W        W94836   2.723  20.981  19.997  0.0518  0.2485  0.0915
51924W        W94837   3.272  12.874  19.673 -0.1578  0.0559 -0.0161
51925W        W94838  31.480  18.673  24.643  0.2329  0.3089 -0.3231
51926W        W94839  29.562   8.921  14.332  0.1496 -0.0265  0.2232
51927W        W94840   2.304  29.779  21.704 -0.0844  0.0252 -0.0079
51928W        W94841  31.748  21.059  15.801  0.2506 -0.0751  0.2940
51929W        W94842  15.120  30.147  27.483  0.0098  0.1515  0.1451
51930W        W94843   8.242  13.376  20.109 -0.0048  0.0115 -0.0018
51931W        W94844  29.253  30.524  21.120  0.1059 -0.0539  0.1207
51932W        W94845  24.261  23.444  22.490  0.2531  0.0922  0.0009
51933W        W94846  33.305   9.934  25.163  0.5388 -0.0320  0.1757
51934W        W94847  32.090  27.626  15.088  0.2457 -0.1977 -0.2572
51935W        W94848   0.317  24.460  24.600 -0.2757  0.0969 -0.0982
51936W        W94849  32.847  32.599  28.172  0.2936 -0.1315 -0.0001
51937W        W94850  34.105  26.161  24.336  0.0713  0.0637  0.0786
51938W        W94851  32.005  19.659  19.581  0.5212 -0.0179  0.2022
51939W        W94852  31.907  20.723  27.644  0.1263 -0.1933  0.4057
51940W        W94853  31.935  31.639  19.656  0.1521 -0.1233 -0.0625
51941W        W94854  32.008  26.172  25.037  0.0495 -0.2328  0.0068
51942W        W94855  30.108  24.157  20.893  0.0433 -0.1137 -0.1237
51943W        W94856  28.747  17.097  20.997  0.2956  0.0921  0.3827
51944W        W94857  22.475  23.773  22.479 -0.4368 -0.2306 -0.0640
51945W        W94858  28.569  23.427  24.887 -0.1884  0.1748 -0.0988
51946W        W94859  28.971  28.089  22.047 -0.2774  0.1826  0.1832
51947W        W94860   6.782  27.697  17.294 -0.0434 -0.1356 -0.0015
51948W        W94861   0.925  25.592  17.472  0.0498  0.0340 -0.0553
51949W        W94862  30.441  29.362   3.637  0.1007 -0.2101  0.1230
51950W        W94863  27.158  22.269  17.663  0.0365  0.1166  0.1645
51951W        W94864  28.918  31.641  28.743 -0.0137  0.2577  0.1298
51952W        W94865  23.390  31.633  17.296 -0.0828 -0.2018  0.1597
51953W        W94866  26.681  27.361  19.837  0.0801  0.2318 -0.0579
51954W        W94867  24.576   2.131  13.423  0.0194 -0.2425  0.1966
51955W        W94868  33.008  18.374  24.490 -0.1239 -0.0135  0.1923
51956W        W94869   4.747  21.055   0.656 -0.0656  0.0318 -0.1880
51957W        W94870   7.500  23.434  24.287 -0.3728 -0.3207 -0.4948
51958W        W94871   0.086  29.868  18.546  0.1015  0.1699  0.0359
51959W        W94872  30.784  20.870  22.645  0.1175 -0.0895  0.0843
51960W        W94873  14.339  11.788  12.531 -0.1398  0.0694  0.1091
51961W        W94874  32.777  29.867  21.012  0.1434  0.2042  0.0624
51962W        W94875   0.397  20.715  18.265  0.2249  0.1305 -0.0357
51963W        W94876  27.421   9.386  20.472  0.1022  0.0234 -0.2784
51964W        W94877  29.484  14.480  19.365  0.0646 -0.0447  0.0917
51965W        W94878  22.543  20.166  17.788 -0.0336  0.1831 -0.0778
51966W        W94879  10.223  25.736  25.110  0.2754 -0.1050  0.0550
51967W        W94880   2.682  27.137  14.889  0.2917 -0.0658  0.0935
51968W        W94881  27.438  30.310  22.866  0.1044 -0.0216  0.2106
51969W        W94882  30.175   2.169  18.688 -0.3686 -0.0176  0.1662
51970W        W94883  33.942  25.878  14.801  0.1987  0.1156  0.1702
51971W        W94884   2.729  23.426  15.195  0.0313 -0.2190 -0.2214
51972W        W94885  32.506  28.191  17.385 -0.1185  0.1206  0.1766
51973W        W94886  33.385  34.025   0.025  0.0164 -0.0466  0.3059
51974W        W94887  33.466  20.034  22.028 -0.3670 -0.1305 -0.2048
51975W        W94888  26.373  25.654  20.163  0.2996 -0.0168 -0.2772
51976W        W94889   0.735  17.413  13.606  0.2721 -0.2337  0.0238
51977W        W94890  25.739  15.612   1.041  0.1281 -0.2677  0.1608
51978W        W94891  33.264   0.385  17.148 -0.0462 -0.1107  0.0339
51979W        W94892   8.158  20.773  14.685 -0.1929 -0.1082  0.2548
51980W        W94893  30.983  20.994  18.476  0.3478  0.1428  0.0670
51981W        W94894   2.183  23.835  20.324 -0.0055 -0.4213  0.1404
51982W        W94895   8.284  27.879  16.888  0.3179  0.2992 -0.2075
51983W        W94896   1.958  26.130  14.386 -0.1474 -0.0460 -0.0780
51984W        W94897  32.609  23.524  17.477  0.3982 -0.0489  0.0395
51985W        W94898  32.796  26.351   0.725 -0.0472 -0.0145  0.0781
51986W        W94899   2.210  27.062  14.829 -0.1237 -0.0709  0.0678
51987W        W94900  24.451  25.278  15.478 -0.0565  0.1637  0.3146
51988W        W94901   1.982  21.811  19.620  0.1626 -0.0461  0.0113
51989W        W94902  25.680  19.830   1.304 -0.1521 -0.0605 -0.0459
51990W        W94903   2.028  32.193  25.199 -0.1990 -0.1542 -0.1025
51991W        W94904   1.121  30.091  25.021  0.1170  0.0390  0.0157
51992W        W94905   4.213  17.369  15.014 -0.2096 -0.0317 -0.0161
51993W        W94906  22.853  23.805  21.675 -0.0265  0.3139 -0.0643
51994W        W94907   0.602  25.404  26.177  0.0274  0.0405 -0.0789
51995W        W94908  26.827   2.796  16.228 -0.1355  0.5425 -0.0090
51996W        W94909  31.907  20.185  15.557 -0.2067 -0.0466  0.1739
51997W        W94910  24.969  13.243  13.564  0.0133 -0.5328  0.2285
51998W        W94911   5.103  22.212  19.712 -0.0777 -0.1470  0.0769
51999W        W94912   0.732  19.171  23.217 -0.0933  0.1114 -0.3199
52000W        W94913  23.379  27.936  18.134 -0.1975  0.1153 -0.1073
52001W        W94914  29.704  10.191  24.530 -0.1440 -0.0910 -0.1000
52002W        W94915   1.498  15.186  16.659  0.2075  0.0329 -0.0285
52003W        W94916   8.233  22.479  15.708 -0.0047  0.1614 -0.0457
52004W        W94917  29.404  22.218  13.711 -0.1740  0.1724  0.0008
52005W        W94918   1.678  14.699  18.246 -0.0501  0.2477  0.2230
52006W        W94919  31.334  21.238  17.138 -0.3979 -0.1749  0.0007
52007W        W94920  30.085  26.732  15.448  0.3274  0.0822  0.1941
52008W        W94921  33.123  13.384  14.509  0.2113  0.0610  0.0357
52009W        W94922   1.307  30.195  19.526  0.0415  0.1752  0.1788
52010W        W94923  27.811  27.568  15.545  0.2398  0.1656  0.3168
52011W        W94924   1.910  15.413  13.620  0.1259 -0.1842  0.1635
52012W        W94925  28.651  15.779  19.843  0.0714  0.1160 -0.4307
52013W        W94926  33.730  22.164  14.933  0.4326 -0.2708  0.2161
52014W        W94927  32.232  22.701  14.205 -0.3062 -0.0244 -0.0519
52015W        W94928   0.044  27.314  15.156  0.4086 -0.2101  0.0140
52016W        W94929  33.249   9.842  26.912  0.0998  0.0805  0.0407
52017W        W94930   0.383  20.845  28.932 -0.3266 -0.0795 -0.0289
52018W        W94931  29.639  28.923  22.783 -0.0968 -0.2348  0.0561
52019W        W94932  25.471  26.032  12.496 -0.0834 -0.0670  0.2165
52020W        W94933  29.606  19.710  26.444  0.0967  0.2251  0.0009
52021W        W94934  25.354  28.584  26.391 -0.0468 -0.3837 -0.1555
52022W        W94935  32.659  30.119  18.606 -0.0568  0.0125 -0.1247
52023W        W94936   2.512   7.452  18.200 -0.1952 -0.2395  0.2706
52024W        W94937   0.066  31.045  18.070  0.1621 -0.1143  0.1552
52025W        W94938  24.848  21.129  26.696  0.2342 -0.2721  0.1435
52026W        W94939   3.974  16.285  17.478  0.1370 -0.0045 -0.3761
52027W        W94940  22.616  12.042  16.133 -0.0890 -0.3051  0.1232
52028W        W94941  32.965  28.271  14.481  0.1073 -0.0550 -0.0852
52029W        W94942   0.865  14.115  18.373 -0.3578 -0.1252  0.2091
52030W        W94943  30.971  15.144  20.672  0.0103 -0.1061 -0.1168
52031W        W94944   5.739  23.516  15.560 -0.0595  0.2162  0.1651
52032W        W94945  24.778  24.807  12.894  0.1626 -0.0439  0.1647
52033W        W94946  27.741  21.871  29.282 -0.0934  0.3295  0.3579
52034W        W94947   5.402  27.680  15.534  0.4538 -0.0009  0.2388
52035W        W94948  29.221  18.867  25.916 -0.1656  0.0081  0.1835
52036W        W94949  13.605   4.663  23.545 -0.0403  0.2732 -0.2342
52037W        W94950  23.417  16.098  17.628  0.2165 -0.1782  0.3160
52038W        W94951  28.759  27.330  16.525 -0.3437 -0.1616  0.1199
52039W        W94952   0.701   2.709  22.018  0.0745 -0.1813  0.1877
52040W        W94953   7.231  16.297  24.504 -0.2459  0.0325 -0.0045
52041W        W94954  30.444  29.167  18.251 -0.2881  0.0674  0.2485
52042W        W94955  25.065  25.390  19.651  0.2205  0.0179 -0.0192
52043W        W94956   0.185  28.141  24.475  0.1240  0.1533  0.3290
52044W        W94957   3.839  12.146  19.012 -0.1934  0.1169 -0.0364
52045W        W94958   7.415  17.521  16.377 -0.1131  0.0673  0.1011
52046W        W94959   5.955   1.240  21.035 -0.1665  0.1906  0.3841
52047W        W94960   3.297  14.006  16.588  0.0430 -0.1772  0.1753
52048W        W94961  28.143  32.140  17.473  0.1384 -0.2221  0.0309
52049W        W94962  23.349  24.791  13.661 -0.0819 -0.2124  0.2512
52050W        W94963   8.499  28.664  16.630  0.0813 -0.1650 -0.4098
52051W        W94964   3.442  21.477  23.232  0.2545 -0.2215  0.1412
52052W        W94965  27.904  27.339  25.388 -0.1499  0.4986 -0.2919
52053W        W94966   1.380  25.003  15.797 -0.1540 -0.0147 -0.0236
52054W        W94967  34.408  29.516  19.991 -0.0828  0.3461  0.0451
52055W        W94968  33.696  22.628  23.503  0.0546 -0.5842 -0.2099
52056W        W94969   3.295  29.024  19.408  0.0625 -0.1551 -0.1196
52057W        W94970  32.724  28.613  17.222 -0.0694  0.0639 -0.0313
52058W        W94971   0.026  15.076  23.381  0.1382 -0.0025  0.1554
52059W        W94972  32.155  16.659  23.626  0.1448 -0.1332 -0.0038
52060W        W94973  20.724  28.534  26.393  0.1444 -0.0385  0.0419
52061W        W94974  31.920  28.128   3.793 -0.0348 -0.0630 -0.2665
52062W        W94975  27.596   1.522  28.897  0.2296 -0.1257  0.0308
52063W        W94976  30.790  18.749  13.996 -0.1663 -0.0189 -0.0703
52064W        W94977  30.782  17.252   6.348  0.1297  0.0034 -0.1385
52065W        W94978   6.318  20.167  18.815  0.0571  0.1755 -0.2432
52066W        W94979  32.466  20.330  25.772 -0.1361  0.2812 -0.1354
52067W        W94980  33.509  22.643  18.222  0.1811  0.0206 -0.1522
52068W        W94981  24.912  23.410  15.904 -0.1007 -0.1099  0.1060
52069W        W94982  31.288  19.990  27.254  0.1114  0.1448  0.2215
52070W        W94983  27.801  28.042  14.738 -0.1813  0.0119  0.0116
52071W        W94984  33.152  15.743  14.909  0.1952 -0.0844  0.0471
52072W        W94985  26.086  29.963  14.889 -0.2137  0.2316 -0.3064
52073W        W94986  31.828   3.063  27.262 -0.1151 -0.0637  0.0719
52074W        W94987  14.270  18.092  14.089 -0.0530  0.1497  0.0478
52075W        W94988  29.058  28.246  16.954 -0.0724 -0.0774 -0.2814
52076W        W94989   0.013  21.492  24.819  0.0418  0.0705  0.1599
52077W        W94990  33.019  28.185  22.992 -0.1359  0.1182  0.0699
52078W        W94991  28.918  23.590  21.397 -0.1815 -0.1376  0.0481
52079W        W94992  29.823  30.935  21.784 -0.1170 -0.1997  0.3073
52080W        W94993   7.578  26.125  20.392 -0.1901 -0.0697 -0.0966
52081W        W94994   1.722  33.145  25.546 -0.0742  0.1608  0.1046
52082W        W94995  30.605  25.354  16.854 -0.0705  0.2439  0.0044
52083W        W94996  25.032  31.132   2.656  0.0299  0.0295  0.3426
52084W        W94997  33.347  27.855  23.210  0.2869 -0.0598 -0.0175
52085W        W94998  34.112  20.739  19.563 -0.2573  0.0441 -0.0187
52086W        W94999   3.257  20.156  19.630 -0.0155  0.1856  0.0525
52087W        W95000  31.742  17.939  18.781  0.0109  0.0233 -0.0749
52088W        W95001   4.386  28.864  22.522 -0.3024  0.1687  0.0256
52089W        W95002  31.106  16.658  19.014  0.0067  0.0733 -0.1181
52090W        W95003  28.601  33.721  25.024  0.3617  0.0928 -0.0734
52091W        W95004  29.804  23.498  23.515 -0.0073 -0.0321 -0.1028
52092W        W95005  32.369  12.385  17.565 -0.0657  0.1131  0.3079
52093W        W95006   0.303  29.612  15.192 -0.2078  0.0579 -0.3388
52094W        W95007  29.497  20.283  20.389  0.0955  0.1389  0.0139
52095W        W95008  29.464  27.094  20.446  0.0644  0.1051  0.0534
52096W        W95009  32.080  17.618  18.612  0.1000  0.0587 -0.3618
52097W        W95010  28.697  16.230  26.711 -0.2234 -0.2097  0.1015
52098W        W95011  21.974  26.567  13.794  0.1733 -0.3296  0.1099
52099W        W95012  29.425  21.589  25.641 -0.1585  0.3913  0.1339
52100W        W95013  32.994  20.603  27.757  0.0911 -0.1593 -0.0161
52101W        W95014  33.930  25.975  16.896 -0.2385 -0.0972 -0.0115
52102W        W95015   3.636  17.749  16.783 -0.1027 -0.1251  0.0174
52103W        W95016  30.989  31.690  21.947  0.0274 -0.1649 -0.0563
52104W        W95017  32.872  16.433  24.956 -0.0265  0.1052 -0.1625
52105W        W95018  22.812  16.840  16.477 -0.0722  0.3814  0.1952
52106W        W95019  32.988  21.768  21.626 -0.2210  0.1467  0.1449
52107W        W95020  33.147  19.822  17.180 -0.1382  0.1217 -0.0144
52108W        W95021  32.901  31.781  18.077 -0.0323 -0.0991  0.0344
52109W        W95022   3.707  17.270  17.077 -0.5574  0.1400 -0.4593
52110W        W95023   1.362  21.344  16.708  0.0717  0.1591 -0.1466
52111W        W95024   0.872  21.019  19.854  0.0860  0.1074 -0.2361
52112W        W95025   2.014  32.036  17.029 -0.0976 -0.0020 -0.1487
52113W        W95026  33.057  17.428  17.966 -0.1039 -0.0081  0.0674
52114W        W95027  30.528  25.469  23.313  0.1513  0.1563  0.2529
52115W        W95028  14.313  24.876  19.772  0.0701 -0.3259  0.1977
52116W        W95029   0.606  19.664  16.109  0.2763  0.1913 -0.0193
52117W        W95030  29.000  24.406  26.887 -0.0419  0.1755  0.2528
52118W        W95031  27.385  21.581  26.060  0.0136 -0.0787 -0.2928
52119W        W95032   1.288  28.195  21.781  0.1291 -0.3741  0.0521
52120W        W95033   0.532  25.972  21.944  0.0786  0.0773  0.0201
52121W        W95034   2.346  22.122  15.095  0.1372  0.2033  0.1423
52122W        W95035   5.194  27.538  18.685 -0.0911 -0.2668  0.3728
52123W        W95036  21.273  28.727  29.734 -0.2598 -0.0876  0.4704
52124W        W95037   1.731  12.630  23.540  0.1114  0.0136 -0.0175
52125W        W95038  21.728  22.235  27.246 -0.1815 -0.0076 -0.2143
52126W        W95039   7.292  18.423  20.630 -0.1521 -0.1351 -0.0284
52127W        W95040  31.473  29.873  20.522 -0.0195 -0.1377  0.1799
52128W        W95041   1.890  21.680  14.953 -0.3273  0.0226  0.0808
52129W        W95042   3.698  30.067   0.269  0.1218 -0.0107  0.3030
52130W        W95043  28.836  30.815  21.318  0.0470 -0.0815 -0.0176
52131W        W95044  21.530  16.311  29.627 -0.0142 -0.1012  0.2116
52132W        W95045  30.287  29.340  26.232  0.1306  0.2089 -0.2247
52133W        W95046  31.622  17.352  25.929 -0.2547 -0.4732  0.2439
52134W        W95047  20.412  22.184  26.511  0.0285 -0.0393  0.2427
52135W        W95048  13.681   8.147  16.003 -0.0282 -0.0487  0.1176
52136W        W95049  27.038  22.808  20.344  0.0887  0.1295 -0.4721
52137W        W95050   6.786  18.742   5.068  0.2046  0.1487 -0.3127
52138W        W95051  34.109  26.695   1.456 -0.1683  0.2072 -0.0156
52139W        W95052  30.289  14.166   1.366 -0.3103  0.3744 -0.1670
52140W        W95053  16.926  23.196  25.667  0.2908 -0.0480 -0.3155
52141W        W95054  27.619  25.353  23.467  0.3832 -0.1448  0.0892
52142W        W95055  22.466  19.108   2.494 -0.1364  0.0539 -0.2961
52143W        W95056  33.876  17.896  21.118  0.1837  0.0914 -0.1052
52144W        W95057   0.113  17.591  20.880 -0.0922  0.0065  0.2239
52145W        W95058   0.936  27.772  15.844 -0.0809 -0.0175 -0.2613
52146W        W95059  26.675  25.222  27.421  0.3536  0.3568  0.0905
52147W        W95060  34.203  24.977  14.978 -0.2519  0.1198 -0.0210
52148W        W95061  22.516  28.223  26.234  0.0344  0.0029  0.1239
52149W        W95062  19.151  26.016  21.550 -0.1608  0.3675  0.2169
52150W        W95063  25.391  13.339  21.816  0.2008  0.1713  0.0424
52151W        W95064  29.653  18.419  20.551 -0.3072 -0.4598 -0.0293
52152W        W95065  23.736  28.026  18.524 -0.1451  0.0991 -0.0592
52153W        W95066   3.000  17.142  28.196  0.0359 -0.3491  0.4413
52154W        W95067   0.919  20.110  23.402  0.1011 -0.2296  0.0209
52155W        W95068  31.910  33.545  23.226 -0.0375  0.0128  0.0335
52156W        W95069  31.160  23.600  21.448  0.1783 -0.1319  0.0014
52157W        W95070  31.099  22.029  13.120 -0.3663 -0.1388  0.3728
52158W        W95071   4.210  11.328   0.800  0.1632 -0.3056 -0.3621
52159W        W95072  26.906  29.014  13.647 -0.1260  0.0898  0.1788
52160W        W95073   3.058  22.337   0.281 -0.0043 -0.0648  0.7054
52161W        W95074  21.072  28.398  28.794 -0.2935  0.4337  0.0864
52162W        W95075  25.088  17.486  23.553 -0.0213 -0.1610  0.4084
52163W        W95076   2.251  21.359  23.958  0.0387 -0.0427  0.0622
52164W        W95077   2.841   0.326  21.431  0.2235  0.1655  0.2175
52165W        W95078  21.465  18.047  28.651 -0.0836  0.0854 -0.0030
52166W        W95079   0.869  19.796   1.985  0.1620  0.1770  0.0307
52167W        W95080  29.642  15.345  22.843  0.0930  0.0011 -0.0299
52168W        W95081  24.058  33.277  21.712 -0.2122  0.0528  0.2368
52169W        W95082   6.939  17.513  25.525  0.3222  0.0721  0.0094
52170W        W95083  28.310   2.042   0.957 -0.0894  0.2734  0.0344
52171W        W95084   2.712  27.741  15.347 -0.2151 -0.1208  0.0302
52172W        W95085  24.327  21.100  14.280  0.2170 -0.0936  0.1110
52173W        W95086   0.562  17.787  26.469 -0.0665  0.1710 -0.0908
52174W        W95087  33.758  25.105  20.679 -0.0484  0.0755  0.1354
52175W        W95088   5.523  18.803  15.222  0.1124  0.0238  0.0486
52176W        W95089  30.650  19.653  18.457 -0.0940  0.0799  0.0577
52177W        W95090  31.761  21.434  13.997 -0.0223  0.5449 -0.0615
52178W        W95091  24.558  27.561  26.777  0.3196  0.3198  0.0214
52179W        W95092  21.094  20.661  22.769  0.1295  0.0288  0.1174
52180W        W95093  28.578  24.384  18.123  0.1016 -0.0350 -0.0844
52181W        W95094  24.813  20.282  22.131 -0.3624  0.3385  0.2096
52182W        W95095   4.101  20.383  25.024 -0.0903  0.1363 -0.1921
52183W        W95096  33.272  22.752  22.753 -0.3477  0.2497  0.0909
52184W        W95097   1.818  22.765  19.067 -0.1674 -0.1373 -0.1737
52185W        W95098   5.803  27.368  24.990 -0.0854  0.3438  0.0528
52186W        W95099   0.759  28.395  15.871 -0.0119  0.1244 -0.0033
52187W        W95100  28.667  14.328  22.625 -0.1402 -0.0887 -0.2149
52188W        W95101  30.113  27.385  19.821  0.2076  0.2285  0.2091
52189W        W95102   3.040  29.318  16.576  0.5203  0.2384  0.1947
52190W        W95103  28.714  23.830  24.536 -0.1190 -0.1209 -0.0947
52191W        W95104  32.185  24.840  24.670  0.0716 -0.2849 -0.1241
52192W        W95105  34.320  14.447  16.441 -0.0379  0.4820  0.2147
52193W        W95106  32.340  17.176  27.492 -0.1693 -0.0485  0.4974
52194W        W95107  30.181  27.543  20.283  0.4710  0.1976 -0.0592
52195W        W95108  32.374  18.953  19.756 -0.0251 -0.0800 -0.2201
52196W        W95109  23.976  24.221   5.598  0.3377 -0.0027  0.0679
52197W        W95110  28.948  24.717  28.644 -0.1005  0.0249  0.0560
52198W        W95111  33.998  30.426  29.682  0.0393 -0.2100 -0.1974
52199W        W95112   6.025  20.578  20.096 -0.0592  0.0122  0.0106
52200W        W95113   0.682  28.703  26.041 -0.1203 -0.1220  0.1595
52201W        W95114  25.079  31.475  15.347 -0.1531 -0.2061  0.1333
52202W        W95115  34.148  19.258  27.617  0.0668 -0.2855  0.4467
52203W        W95116  29.706  19.785  22.540 -0.2526  0.0450  0.0748
52204W        W95117  12.794  22.934   2.517  0.4129 -0.3143 -0.4177
52205W        W95118  29.339  21.130  28.468 -0.1269  0.0046  0.1461
52206W        W95119  28.579  26.005  26.728  0.1030 -0.0384  0.1927
52207W        W95120  23.734  13.944   0.000  0.1287  0.1885 -0.0035
52208W        W95121  22.689  17.318  16.447  0.0260 -0.3289 -0.2010
52209W        W95122  26.884  29.531  23.975 -0.0863  0.2910 -0.0138
52210W        W95123  29.244  21.004  17.224  0.3135  0.2230  0.2477
52211W        W95124   8.096  26.197  22.234  0.1169 -0.0435  0.2741
52212W        W95125   7.647  24.858   3.737  0.2629  0.0196 -0.0624
52213W        W95126  25.754  32.329  20.746 -0.2054 -0.3859  0.0181
52214W        W95127   1.811  18.535  20.420 -0.2536  0.2166  0.4117
52215W        W95128  33.011  32.530  15.794 -0.0555 -0.1364  0.0614
52216W        W95129   8.056  25.939  21.578 -0.1688 -0.0968 -0.0761
52217W        W95130   5.211  23.739  25.256 -0.0927 -0.1182  0.0362
52218W        W95131  30.646  18.994   2.876  0.2121 -0.2203 -0.3286
52219W        W95132   0.024  20.383  22.055  0.0295 -0.0252  0.1047
52220W        W95133  28.909  28.870   5.714  0.3393  0.0904 -0.0595
52221W        W95134   2.785  13.720  16.587 -0.3153  0.1795  0.5617
52222W        W95135  23.079  18.998  26.430  0.1411 -0.0736  0.2449
52223W        W95136   2.893  23.166  14.826  0.0758  0.0978 -0.1018
52224W        W95137  22.510  15.572  27.197 -0.2773 -0.4394 -0.1068
52225W        W95138   3.114  26.932   7.188 -0.0713  0.0568 -0.1185
52226W        W95139  28.602  30.731  29.611  0.1195  0.0362 -0.0831
52227W        W95140  33.851   0.530  15.752  0.0264 -0.0363  0.0063
52228W        W95141  31.082  27.862  17.833  0.0990 -0.0136  0.4737
52229W        W95142  26.315  33.626  20.521  0.1013  0.1116 -0.1399
52230W        W95143   2.228  19.975  19.024  0.1350  0.3935 -0.3281
52231W        W95144   2.693  32.575  17.476 -0.0909 -0.1832  0.3516
52232W        W95145  30.346  16.219  27.019 -0.3150  0.0234  0.2868
52233W        W95146  25.894  25.586  22.145 -0.2828 -0.0958 -0.2130
52234W        W95147   7.284  21.597  28.492  0.1584  0.0935 -0.0727
52235W        W95148  31.283  28.633  29.672 -0.0691  0.0311  0.0240
52236W        W95149  31.273  19.714  23.582  0.0549  0.1203 -0.1510
52237W        W95150  29.788  24.439  16.170  0.2821 -0.0594  0.1464
52238W        W95151  27.681   9.950  26.132  0.0863 -0.0268  0.2136
52239W        W95152   3.480  21.837  18.997  0.1443 -0.0767  0.0570
52240W        W95153  32.289  19.241  24.546  0.0414  0.2251 -0.1063
52241W        W95154  34.214  29.602  29.249 -0.2306 -0.0242  0.1441
52242W        W95155   7.974  13.458   1.861  0.1225 -0.0376  0.3345
52243W        W95156  28.447  22.692  12.459  0.2209 -0.3388  0.0238
52244W        W95157  23.821  25.737  22.680  0.1737 -0.0861 -0.0860
52245W        W95158  26.232   0.981  16.394  0.1920 -0.3629  0.0097
52246W        W95159   3.797  19.946   2.779  0.3002 -0.0671  0.3433
52247W        W95160  23.428  21.716  28.275  0.2181  0.1604 -0.2513
52248W        W95161  27.427   1.569  28.122  0.1625 -0.0444  0.0134
52249W        W95162   1.325  22.129   2.384  0.0554 -0.3142 -0.1280
52250W        W95163  33.669  23.322  19.383 -0.1802 -0.2207  0.0440
52251W        W95164  26.928  18.529  24.086  0.0745 -0.0556 -0.1342
52252W        W95165  29.383  25.632  26.571  0.2839 -0.1427 -0.1343
52253W        W95166  32.305  28.168   0.695  0.3937  0.1159  0.2670
52254W        W95167  33.973  24.311  15.962 -0.0685  0.1197 -0.0248
52255W        W95168  31.735  22.859  26.339 -0.1619 -0.0560  0.0333
52256W        W95169   3.389  19.110  17.546 -0.0722 -0.1512  0.2487
52257W        W95170  31.055  20.061  26.771  0.1333 -0.1977  0.1484
52258W        W95171  28.688  13.664  26.553 -0.0175 -0.3287  0.1883
52259W        W95172  31.243  27.268  28.688  0.0892  0.4099  0.1952
52260W        W95173  22.728  26.021  28.505  0.0611  0.1632  0.0150
52261W        W95174  29.824  17.867   3.862 -0.2021 -0.3697  0.3850
52262W        W95175   8.793  18.238  15.166 -0.2583  0.3247  0.0884
52263W        W95176  33.907  15.457   7.466  0.0403 -0.1248 -0.1968
52264W        W95177   0.221  16.144   3.084  0.1308  0.2975 -0.2131
52265W        W95178  31.845  27.696  26.612  0.0581 -0.1812  0.2397
52266W        W95179   0.336  32.548   3.391  0.1919 -0.3074 -0.1067
52267W        W95180  33.378  16.562   8.982  0.0286  0.1426 -0.0391
52268W        W95181  31.409  25.902  14.873  0.1583  0.1423  0.1088
52269W        W95182  32.135  14.480  20.494  0.0814  0.1392  0.1386
52270W        W95183  29.771  23.654  15.718 -0.0316 -0.0045 -0.1664
52271W        W95184  25.406  18.225   6.608  0.0331  0.0480 -0.1857
52272W        W95185   3.951  22.654  17.334  0.2073  0.0962 -0.0287
52273W        W95186  28.982  23.428   4.293  0.3462  0.1423  0.0111
52274W        W95187   1.808  20.884  21.976  0.2379 -0.0871  0.2232
52275W        W95188   2.971  29.806  19.986 -0.1280  0.3272  0.1238
52276W        W95189  25.081  26.706  22.242  0.2399 -0.1637 -0.0984
52277W        W95190  23.545  19.809  27.671  0.2498  0.1486  0.0844
52278W        W95191  32.862  32.037  15.429  0.1965 -0.0332 -0.0691
52279W        W95192  34.402  27.152   3.843 -0.0427 -0.0906  0.1453
52280W        W95193  31.157  19.178  29.389  0.2842  0.1752 -0.1574
52281W        W95194  21.534  27.270  23.529 -0.1529 -0.0397 -0.2091
52282W        W95195   0.565  21.861  15.952 -0.1094  0.1293  0.0147
52283W        W95196   7.261  26.910   1.918 -0.0180 -0.3928  0.0095
52284W        W95197  24.198  26.259  26.057 -0.0262 -0.0776  0.2183
52285W        W95198  30.589  23.250   0.691 -0.1572 -0.0436  0.2309
52286W        W95199   3.417  33.119   1.202 -0.3698 -0.0846  0.0784
52287W        W95200   1.787  31.192   4.953  0.0101 -0.0437  0.1782
52288W        W95201  33.120   3.445  19.847 -0.1424 -0.1175 -0.0576
52289W        W95202   0.222  19.920  28.885 -0.0906  0.0906  0.2126
52290W        W95203  28.771  23.756  27.214 -0.0525  0.2384 -0.0536
52291W        W95204  28.417  19.687  23.326 -0.0142  0.3205 -0.1538
52292W        W95205   2.603  11.818  22.078  0.0847 -0.1549  0.1979
52293W        W95206  30.304  16.383  28.266  0.1339  0.1278 -0.0953
52294W        W95207   0.698  32.149  16.391 -0.0606  0.3840  0.2184
52295W        W95208  24.853  25.078   0.904  0.0265 -0.2542  0.0025
52296W        W95209  23.478  25.287  21.869 -0.0688 -0.1647 -0.0753
52297W        W95210  27.975  24.613  14.686  0.2074 -0.1917  0.0958
52298W        W95211   0.381  32.448  19.193 -0.1758 -0.0449 -0.0729
52299W        W95212   3.098  29.509  23.499  0.0384 -0.0158 -0.1208
52300W        W95213  31.781  30.752  25.429  0.3006 -0.1333 -0.1946
52301W        W95214  29.416  26.585  21.571 -0.1225 -0.1711 -0.2311
52302W        W95215  33.900  13.915  23.496  0.1422 -0.1410  0.1550
52303W        W95216  29.485  29.860  23.259  0.1563  0.0020  0.1076
52304W        W95217  33.897  29.088   9.846  0.3316 -0.3499 -0.1155
52305W        W95218  34.044  16.543   4.908 -0.2890  0.0612 -0.0048
52306W        W95219  32.499  24.804  20.998  0.0124 -0.1452 -0.0266
52307W        W95220  22.934   0.232  14.100 -0.2222  0.2243  0.2103
52308W        W95221   8.352  19.276  27.219  0.0373 -0.2258 -0.0285
52309W        W95222  32.780  26.480  20.615  0.2108 -0.2258 -0.1094
52310W        W95223  33.469  10.257  26.871  0.1201 -0.0306  0.1502
52311W        W95224  27.530  17.392  19.040 -0.2199 -0.1673 -0.2300
52312W        W95225  29.467  17.970   2.927 -0.2661  0.0491 -0.1945
52313W        W95226  18.506  19.814  22.186 -0.1201 -0.3732 -0.0118
52314W        W95227   5.932  15.299  22.932  0.5651 -0.1269 -0.0526
52315W        W95228   4.707  21.571   0.384 -0.0646  0.0820 -0.2280
52316W        W95229  32.353  20.895  16.093 -0.1337  0.0155  0.0640
52317W        W95230  33.153  20.898  14.962  0.0312 -0.2449  0.1101
52318W        W95231  16.326  25.198  19.757  0.0539 -0.0938 -0.1069
52319W        W95232   2.574  28.669  17.266 -0.0421 -0.1169  0.0564
52320W        W95233  27.765   9.373  15.508 -0.1438 -0.0368 -0.0341
52321W        W95234   0.143  28.963  24.224 -0.0091  0.4515 -0.1163
52322W        W95235  28.581  24.953  21.750  0.1311  0.0757 -0.4445
52323W        W95236  31.342  22.246  26.343  0.1720 -0.1180  0.0927
52324W        W95237   4.899   5.463  20.661  0.0771 -0.0491  0.0360
52325W        W95238  22.473  14.417   4.720 -0.0127  0.0655  0.1077
52326W        W95239   2.694  16.883  19.114  0.3283 -0.1435  0.0044
52327W        W95240  33.212  30.505  15.123 -0.0188 -0.5932 -0.3141
52328W        W95241  29.967  26.177   1.162  0.0683 -0.1138 -0.0521
52329W        W95242  14.697  26.330  25.344  0.3133  0.3647  0.0492
52330W        W95243  27.104  23.280  20.685 -0.1944 -0.1420  0.0795
52331W        W95244   3.121  28.082  18.866 -0.4197 -0.0481 -0.0612
52332W        W95245   2.669  34.205   1.679 -0.3512 -0.0862 -0.0278
52333W        W95246  33.854  14.470  18.701 -0.2016  0.0281 -0.0814
52334W        W95247  32.950  21.665   2.524 -0.1837 -0.0732 -0.1851
52335W        W95248   8.144  16.661  16.475 -0.2076 -0.0190  0.1565
52336W        W95249  22.921  25.269  16.331  0.0859 -0.1210  0.0323
52337W        W95250  21.223  21.168   3.363  0.0186  0.0163 -0.1001
52338W        W95251  34.281  26.938  21.107  0.1940  0.1032  0.1144
52339W        W95252  31.001  17.106  16.723  0.2321 -0.3334  0.1802
52340W        W95253  28.096   8.178  21.075 -0.0119  0.0904  0.0246
52341W        W95254  25.457  30.557  24.403 -0.3744  0.1377 -0.1389
52342W        W95255   9.214   9.281  22.212 -0.1255  0.1460  0.0842
52343W        W95256   0.871  29.968  27.994  0.1625  0.0985 -0.1138
52344W        W95257  26.505  31.044  26.391  0.0696  0.0207 -0.2408
52345W        W95258  32.783  10.341   1.448 -0.1024 -0.1461 -0.2330
52346W        W95259  33.730  11.222  28.292 -0.0701  0.1091 -0.1676
52347W        W95260   3.539  20.930  29.462 -0.0248  0.3106  0.1236
52348W        W95261   3.241  19.879  15.694  0.1956  0.1452  0.1898
52349W        W95262  28.659  20.620  26.339 -0.1216 -0.0102  0.1720
52350W        W95263  27.514  28.612  26.315  0.3036 -0.0892 -0.0093
52351W        W95264  28.778  16.481  28.704 -0.0947  0.1387 -0.0347
52352W        W95265  32.278  29.402  25.122 -0.0376  0.0107 -0.1286
52353W        W95266   3.867  25.485  18.929 -0.1446  0.0555 -0.0534
52354W        W95267   0.798  24.017  25.255  0.1277  0.3380 -0.0968
52355W        W95268  34.230  23.407  16.479 -0.0027  0.1712  0.0427
52356W        W95269  18.077  24.038  21.218  0.0096  0.2033  0.2087
52357W        W95270  31.137  23.666  28.312 -0.1303 -0.0566  0.1439
52358W        W95271  30.595  23.371  29.438  0.3634  0.1707  0.0941
52359W        W95272  33.433  19.306  29.723  0.2521 -0.0370  0.0963
52360W        W95273   4.929  20.915   5.289  0.0904  0.0332  0.0864
52361W        W95274   1.543  27.198   9.968 -0.0704 -0.2142 -0.0843
52362W        W95275   8.044  25.970   1.378 -0.0132 -0.1961  0.0446
52363W        W95276  28.809  24.717  24.572 -0.2025 -0.1572 -0.0978
52364W        W95277  27.249  22.944   4.520  0.0844  0.2882 -0.0527
52365W        W95278  25.013  19.563   0.360 -0.1929 -0.0696  0.1750
52366W        W95279  31.033  25.331   2.584  0.1512 -0.1991 -0.0522
52367W        W95280  27.445  25.798  25.761  0.0281  0.2202 -0.3503
52368W        W95281  27.533  12.605   9.013 -0.2046  0.1094 -0.0834
52369W        W95282   9.092  20.887  24.905 -0.1282  0.0056 -0.0296
52370W        W95283  29.115  33.561  29.406  0.2279 -0.1671 -0.2513
52371W        W95284  24.667  18.226  18.617  0.1557  0.1591 -0.1849
52372W        W95285  30.522  21.766  24.368 -0.1826  0.3297 -0.3167
52373W        W95286  32.355  29.031  26.469 -0.1081  0.1115 -0.1329
52374W        W95287  26.476  26.181  25.873  0.1387 -0.4023  0.0408
52375W        W95288  21.384  15.292  25.072 -0.0224 -0.2365  0.1543
52376W        W95289  30.649  32.868   2.507  0.1083 -0.2361 -0.0979
52377W        W95290   5.222  20.144  25.080  0.1685  0.0247 -0.2487
52378W        W95291  30.963  24.864  26.271  0.3728 -0.3421  0.1569
52379W        W95292   2.102  27.482   0.256  0.0042 -0.3080 -0.1240
52380W        W95293   7.326  22.867  14.723 -0.0380 -0.1869  0.3839
52381W        W95294  26.070  24.568  24.017 -0.0358 -0.0553  0.0049
52382W        W95295  32.230  13.238   2.044 -0.0128  0.4268  0.2082
52383W        W95296   7.257  22.585  17.181  0.2785 -0.0452 -0.0358
52384W        W95297   8.063  20.960  26.287 -0.2068  0.3303 -0.2652
52385W        W95298  25.777  27.586  26.085  0.0114 -0.1736  0.1272
52386W        W95299  32.610  23.924  23.444 -0.0175 -0.1790 -0.0920
52387W        W95300   0.852  22.440  23.466 -0.0190  0.0697 -0.2539
52388W        W95301  33.052  16.041  21.888 -0.0201 -0.0534  0.0332
52389W        W95302   8.036  19.482   0.096 -0.0807  0.2620  0.3358
52390W        W95303  26.234  21.467   5.629  0.1261  0.0591 -0.0833
52391W        W95304   3.045  29.189  15.643  0.4128 -0.0243  0.0634
52392W        W95305  27.852  27.152  26.755 -0.3878  0.0033 -0.0617
52393W        W95306  27.576  21.952  18.482 -0.2335 -0.0092 -0.2251
52394W        W95307   0.883  17.347  20.438  0.0094 -0.0206  0.0398
52395W        W95308  27.065  28.067  24.215  0.0752 -0.1460  0.0696
52396W        W95309  26.219  23.243  22.713  0.2247 -0.1394 -0.0250
52397W        W95310  24.599  19.189   0.364  0.2069  0.0313 -0.2448
52398W        W95311   1.145  26.197  22.586  0.3627 -0.0943  0.2409
52399W        W95312  31.989  19.278  23.180 -0.0308 -0.0299 -0.2178
52400W        W95313  32.939  13.135  25.002 -0.0156 -0.0528 -0.1072
52401W        W95314  26.192  17.099  25.060  0.1394 -0.1735  0.0231
52402W        W95315   1.066  33.013  16.442  0.1608 -0.1594 -0.0082
52403W        W95316   2.458  27.173  21.211 -0.0504  0.0016  0.0609
52404W        W95317  22.840  24.583  26.997 -0.1005 -0.4157 -0.1355
52405W        W95318  31.546  29.978  26.818  0.2493  0.0389  0.0031
52406W        W95319  22.881  32.814  20.209  0.0182  0.0697 -0.3868
52407W        W95320  33.489  19.400  28.135 -0.0691  0.1187  0.0407
52408W        W95321  31.515  31.841  27.985 -0.3015  0.3095  0.1061
52409W        W95322  26.065  18.938  25.545  0.3296 -0.0128 -0.0074
52410W        W95323   0.211  27.710  28.863 -0.1804 -0.3191 -0.1670
52411W        W95324   0.349  13.663  24.374  0.0539  0.0682 -0.0301
52412W        W95325  29.306  22.005   3.669  0.1792  0.0135  0.1984
52413W        W95326   1.459   7.659   1.110 -0.0834  0.2121  0.0142
52414W        W95327  27.864  30.165   4.820  0.1379  0.4630  0.3051
52415W        W95328  32.788   1.008   8.502  0.0026  0.0240  0.0240
52416W        W95329   3.771  13.905  26.287  0.1862 -0.0279 -0.0230
52417W        W95330  31.215  16.196  21.818  0.1812 -0.3002 -0.4113
52418W        W95331  31.143  26.160   0.514 -0.1633 -0.1512  0.2394
52419W        W95332  27.594   7.997   7.362 -0.1347 -0.1058  0.1270
52420W        W95333  28.088  34.338   5.493 -0.1230  0.2374  0.0150
52421W        W95334  28.187  33.788  17.950 -0.0265 -0.3258  0.1037
52422W        W95335   6.503  22.027   1.745  0.1592  0.1045  0.1453
52423W        W95336  27.840  18.412  27.833  0.1080  0.0546  0.0665
52424W        W95337  34.140  29.137   3.239 -0.3337 -0.2423  0.0007
52425W        W95338  34.303  27.139  23.847 -0.2290 -0.2369 -0.3165
52426W        W95339  33.204  19.807  14.457  0.0419  0.1946 -0.1219
52427W        W95340   5.393  32.751   4.738  0.0487 -0.0740 -0.1638
52428W        W95341   4.879  24.311   0.540  0.2047 -0.1917  0.0147
52429W        W95342  32.498  30.527   2.186  0.2913 -0.0794 -0.2294
52430W        W95343  18.908  21.341  26.933  0.1126 -0.2461 -0.2708
52431W        W95344   6.263  21.549   3.615  0.2590  0.4073 -0.1038
52432W        W95345  33.420  27.277  27.356 -0.3001  0.0886 -0.1320
52433W        W95346   7.132  24.980   1.667  0.0262  0.0565 -0.2383
52434W        W95347   0.821   2.164  19.246 -0.0074 -0.1227  0.1440
52435W        W95348  30.048  24.673  22.890 -0.1822 -0.0989 -0.0356
52436W        W95349   9.225  15.005  25.605 -0.3220 -0.0810 -0.0776
52437W        W95350  34.154  34.037  25.110  0.1524  0.1996 -0.2119
52438W        W95351  23.254  17.526   4.935  0.0407  0.1607 -0.0089
52439W        W95352   0.078  20.525  19.682 -0.0274 -0.0221  0.0170
52440W        W95353  34.092  17.659  15.456 -0.2692  0.0567  0.0824
52441W        W95354  30.283  20.911   6.598 -0.1495 -0.1291 -0.0658
52442W        W95355  22.769  15.079  24.591  0.0278  0.0813 -0.4597
52443W        W95356  30.166  20.779   2.565 -0.2961 -0.4024 -0.0035
52444W        W95357  30.478  28.754  27.030  0.3074  0.0306 -0.0822
52445W        W95358  28.065  29.595  27.284  0.0348 -0.2709  0.2201
52446W        W95359  25.839  31.543  22.554 -0.1216  0.1086 -0.0839
52447W        W95360   5.104  17.329  26.807 -0.2341  0.2618 -0.1633
52448W        W95361  20.081  25.937  29.669 -0.3343  0.1599 -0.1932
52449W        W95362   7.711  19.408  27.110  0.1530  0.4123  0.0829
52450W        W95363  24.170  27.782   2.919  0.0596  0.1521  0.0260
52451W        W95364  30.168  31.181   1.929 -0.2531 -0.1092  0.2476
52452W        W95365  22.848  15.887  26.341  0.2136 -0.1015 -0.4897
52453W        W95366  19.487  20.704  23.713  0.1260  0.3326  0.1349
52454W        W95367   4.025  26.445  27.315 -0.1550  0.2351  0.0209
52455W        W95368  31.149  25.426  29.494 -0.3590  0.1172  0.0242
52456W        W95369  26.501  24.373   5.977 -0.0842  0.0951 -0.0250
52457W        W95370   0.106  20.260  23.606 -0.2295 -0.0008  0.2469
52458W        W95371   5.731  21.601   0.064  0.0367 -0.0911 -0.0186
52459W        W95372  31.593  19.224  21.933 -0.2267  0.1171 -0.2872
52460W        W95373  33.002  29.969   0.895  0.0119  0.2050 -0.0886
52461W        W95374  31.136  14.369  28.879  0.1459 -0.1595  0.1975
52462W        W95375  31.721  28.877   8.376  0.1378  0.2316 -0.1781
52463W        W95376  10.557  18.177  29.141 -0.1895 -0.3251  0.0295
52464W        W95377  33.779  26.519  18.889  0.0169  0.1565 -0.0727
52465W        W95378  24.595  28.800   0.811  0.2813  0.3008  0.0163
52466W        W95379  11.444  23.645  26.741  0.0937 -0.2026  0.2400
52467W        W95380   2.224  17.258  26.215  0.1067  0.0744  0.0659
52468W        W95381  22.101  15.947  28.561 -0.0621 -0.1399  0.5247
52469W        W95382  26.310  22.024   6.389  0.0677  0.1862  0.1046
52470W        W95383  25.026  28.284  28.196 -0.0476 -0.1766 -0.1605
52471W        W95384   3.702  15.856   5.129  0.0850 -0.0031  0.0328
52472W        W95385  31.596  26.101   9.436 -0.0011  0.0567  0.0881
52473W        W95386  27.281  29.468   7.961 -0.2414  0.2184  0.0490
52474W        W95387   0.879  21.933   3.404 -0.1321  0.1736 -0.0029
52475W        W95388   5.278  27.668  16.649 -0.1271  0.2010 -0.2385
52476W        W95389   5.556  24.004   4.846  0.0035 -0.1282  0.0328
52477W        W95390  32.506   4.486   2.961  0.1142 -0.0336  0.0317
52478W        W95391   4.668  17.402  27.272  0.1183  0.0186 -0.0209
52479W        W95392  28.054  17.081  23.641 -0.1311  0.0613  0.1732
52480W        W95393  31.836  19.685  18.474  0.2250 -0.0484 -0.1165
52481W        W95394  32.696  24.295   3.141 -0.3424  0.1553 -0.2399
52482W        W95395   1.422  10.369  20.352 -0.0644 -0.1751 -0.2422
52483W        W95396   8.022  20.102   3.883  0.0181 -0.1885 -0.2223
52484W        W95397  30.763  23.983   0.442 -0.2251  0.4449 -0.0810
52485W        W95398   3.571  15.351  28.027 -0.2253  0.1689  0.0144
52486W        W95399  23.580  26.559  24.581 -0.0901 -0.0225  0.1107
52487W        W95400  29.620  20.067  21.838 -0.1079 -0.1918  0.0352
52488W        W95401   0.801  28.389  27.165 -0.1252 -0.2712 -0.0852
52489W        W95402  29.916  16.905  26.542  0.0358 -0.0688 -0.0144
52490W        W95403  27.060  26.470  29.083  0.1571  0.3872  0.2643
52491W        W95404  22.233  25.052   1.231  0.2164  0.1400  0.1401
52492W        W95405   4.946   0.309  29.358 -0.1485  0.1444 -0.2309
52493W        W95406  33.550  30.288   7.497  0.3609 -0.0734 -0.0619
52494W        W95407  27.562  13.752  14.267  0.2861 -0.0792 -0.1607
52495W        W95408   9.456  20.016  24.726 -0.1096  0.0395  0.3025
52496W        W95409   5.129  13.697  23.865 -0.1338 -0.1657  0.1522
52497W        W95410  30.066  20.129  24.795 -0.2480  0.0464 -0.0863
52498W        W95411  27.485  20.547   4.817 -0.2313  0.0555  0.2796
52499W        W95412   1.825  28.420  22.394  0.0233  0.1018 -0.0319
52500W        W95413  34.205  18.853  23.949  0.0010 -0.1590 -0.1683
52501W        W95414  34.000   7.454  28.100 -0.0390 -0.0088  0.0913
52502W        W95415   1.265   3.427   5.942  0.0147 -0.1186  0.0771
52503W        W95416   0.534  22.472   5.952 -0.0226 -0.0612 -0.3906
52504W        W95417  26.895  25.336  27.915  0.0767  0.3372 -0.1097
52505W        W95418  32.151  21.510  14.401 -0.0195 -0.2851  0.0636
52506W        W95419  33.193  18.516  23.896  0.1551  0.0546  0.2216
52507W        W95420  28.387  23.747  26.816  0.1675 -0.0475  0.0321
52508W        W95421  31.639  18.518  29.372 -0.0705  0.0445  0.0013
52509W        W95422  32.846  23.339  20.855  0.2015 -0.1615 -0.3094
52510W        W95423  33.576  19.932  18.733  0.0908 -0.0864 -0.0948
52511W        W95424  28.243  23.687  26.354 -0.0793  0.0520 -0.2782
52512W        W95425   0.618  19.228  21.781 -0.4686  0.0993  0.0693
52513W        W95426   1.758  20.593   3.951 -0.1100  0.0450 -0.3584
52514W        W95427  28.901  32.973  26.164 -0.0222 -0.1747  0.1228
52515W        W95428  19.500  19.508   0.218 -0.4495  0.2228 -0.2900
52516W        W95429  31.665   5.566  26.941 -0.0463  0.0649  0.1644
52517W        W95430   3.657  26.464  19.819 -0.4133  0.0764  0.2968
52518W        W95431  32.715  32.126  29.766 -0.0795 -0.0064  0.2983
52519W        W95432  27.190  26.556  21.959  0.0226  0.0756  0.1121
52520W        W95433  30.234  27.889   6.811  0.1613  0.0302  0.1452
52521W        W95434  29.664  24.873  29.347 -0.1974 -0.0582  0.2691
52522W        W95435  30.656  29.133  24.890 -0.1215 -0.0089  0.1471
52523W        W95436  31.672  17.063   8.755  0.2219  0.0839  0.5098
52524W        W95437  32.880  18.321  28.199  0.0243  0.1468  0.0602
52525W        W95438  24.760  30.279   1.353  0.0656 -0.2851  0.1608
52526W        W95439  29.240  22.884   4.793  0.0841  0.1043 -0.3357
52527W        W95440  33.136  20.540  24.035  0.0829  0.1063  0.1204
52528W        W95441  27.907  21.214  28.666  0.2677 -0.1329 -0.4810
52529W        W95442  17.097  20.836  28.611  0.2577  0.2794 -0.0730
52530W        W95443  24.137  21.249  29.339 -0.1061 -0.0731  0.2725
52531W        W95444   6.093  25.671  25.703 -0.0813 -0.0458 -0.3123
52532W        W95445  30.549  17.773  26.357  0.0073  0.2287  0.0368
52533W        W95446  33.036  24.319   0.166 -0.2176 -0.0533 -0.0431
52534W        W95447   2.820  19.811   1.810 -0.1018 -0.1590 -0.0636
52535W        W95448  32.151  19.064  15.021  0.0233 -0.3484  0.0654
52536W        W95449   2.007  28.979  18.044 -0.0858  0.0801 -0.0939
52537W        W95450  22.024  22.046  23.111  0.0432  0.3037  0.0574
52538W        W95451   0.751  15.844  23.372  0.4008 -0.0892  0.0023
52539W        W95452  18.814  26.369  29.512  0.0384  0.0957  0.0704
52540W        W95453   2.532  28.323  20.211  0.0466  0.1074  0.0163
52541W        W95454   5.477  21.650  10.328 -0.3697 -0.0871  0.3248
52542W        W95455  17.804  22.525   3.407 -0.3404  0.1859 -0.0392
52543W        W95456  27.764  20.622  28.465 -0.2139 -0.0571  0.1690
52544W        W95457   1.516  22.814   0.242  0.2024 -0.1825  0.0185
52545W        W95458  20.015  21.788  28.833 -0.0476  0.2249 -0.2245
52546W        W95459   0.191  19.385  19.914  0.1585 -0.0526 -0.1263
52547W        W95460  29.160  19.234  25.568 -0.0880 -0.0091  0.1114
52548W        W95461   0.203  27.871  15.219  0.1945  0.0430  0.0631
52549W        W95462   8.785  26.070  24.092 -0.0134 -0.2163  0.0607
52550W        W95463   2.159  25.884  29.623  0.4201 -0.0669 -0.0447
52551W        W95464  31.736  15.236   2.570  0.0163 -0.1497 -0.3081
52552W        W95465  31.895  18.818   4.902 -0.2222 -0.1075  0.3437
52553W        W95466  33.657  25.974   4.353 -0.4463  0.0638 -0.2602
52554W        W95467  30.249   8.651  23.655  0.0712 -0.0152  0.0428
52555W        W95468  27.356  28.681  19.315 -0.0870 -0.1599  0.3951
52556W        W95469  34.185  22.800  24.272 -0.0252  0.2258 -0.1901
52557W        W95470  29.262  14.853  27.903  0.1133 -0.1852  0.1809
52558W        W95471   6.804  16.202  24.281 -0.1218 -0.1564  0.0409
52559W        W95472  32.517  28.686  21.390  0.0258 -0.1388 -0.0090
52560W        W95473  29.434  26.756   7.548  0.1849  0.0015  0.0351
52561W        W95474   5.705  24.893   0.952  0.0678 -0.0829 -0.1285
52562W        W95475   2.506  25.981  21.434  0.1396  0.0663  0.0206
52563W        W95476  25.840  31.300   5.483  0.1134 -0.0128  0.1819
52564W        W95477  26.712  27.014   1.729 -0.0195  0.2748 -0.0653
52565W        W95478  24.451  23.364   4.172 -0.2357 -0.0189  0.0041
52566W        W95479  24.708  22.522  29.405 -0.2005  0.2064  0.0128
52567W        W95480  28.817  31.943  16.775  0.2972 -0.4604 -0.0435
52568W        W95481   3.439  19.875   2.348  0.1002  0.2560  0.2477
52569W        W95482  29.210  28.643  21.052  0.0755 -0.1184 -0.0334
52570W        W95483  22.548   8.095  23.025 -0.1648  0.1052 -0.2637
52571W        W95484  29.342  29.834  26.108 -0.2876  0.5651 -0.0929
52572W        W95485  27.762  30.255  29.008  0.2774 -0.1794 -0.2143
52573W        W95486   8.119  17.036   2.039  0.2543 -0.1336 -0.1927
52574W        W95487   1.895  18.859   1.302 -0.1242  0.1243  0.0590
52575W        W95488  21.862  17.641   3.377  0.0241  0.0615  0.1218
52576W        W95489   1.781  27.616   6.636 -0.1941  0.1934  0.2609
52577W        W95490  22.514  18.296  25.655 -0.1295  0.0160 -0.2580
52578W        W95491  31.715  25.613  26.513 -0.1143  0.1717 -0.1492
52579W        W95492  24.865   2.862   0.324 -0.0980  0.0065  0.0242
52580W        W95493   2.764  19.234   1.035  0.3053  0.0199 -0.0329
52581W        W95494   2.510  21.754   4.837  0.1472 -0.2218  0.1068
52582W        W95495  23.209  20.609  19.048  0.2330  0.0003 -0.0709
52583W        W95496  20.625  19.533  25.785 -0.0895  0.5620 -0.4033
52584W        W95497  21.845  13.908  18.127 -0.0511  0.1918  0.0291
52585W        W95498  31.824  18.766  21.846 -0.0347  0.2744 -0.0852
52586W        W95499  29.840   1.879  21.846 -0.1167 -0.3032  0.2432
52587W        W95500   1.833  18.636   3.807  0.3175 -0.0937  0.1914
52588W        W95501  21.106  14.752  23.045  0.2046 -0.0627 -0.0036
52589W        W95502  29.811  24.759   8.465 -0.0530  0.3162 -0.2036
52590W        W95503  31.530   1.262  28.247  0.2321  0.3146  0.2577
52591W        W95504  25.714  20.941  18.862 -0.0220 -0.2222 -0.0909
52592W        W95505  34.241  28.594   1.595 -0.0610 -0.2219 -0.0468
52593W        W95506  29.860  32.356   0.428 -0.1211  0.1174 -0.1442
52594W        W95507   2.326  28.547   5.117  0.1181 -0.0838  0.1294
52595W        W95508   0.882  21.214   2.632  0.4024 -0.0979  0.3259
52596W        W95509   3.336  31.691  26.408  0.1374  0.1233  0.2813
52597W        W95510  33.377  26.159  25.727 -0.0940 -0.0926 -0.3534
52598W        W95511  20.030  11.240  21.275  0.4288 -0.0010 -0.0340
52599W        W95512  19.451  25.075   1.366 -0.3629  0.0934  0.0758
52600W        W95513   2.937  26.061   6.542 -0.0580  0.1228  0.1537
52601W        W95514   4.407  22.791   8.158 -0.1361  0.0593 -0.1073
52602W        W95515  27.651  29.554   1.140 -0.1192 -0.1194 -0.5151
52603W        W95516   1.122  26.435   4.190 -0.2002  0.0063 -0.4305
52604W        W95517  29.063  29.502   7.335  0.3496 -0.1970 -0.1755
52605W        W95518  12.266   5.385  25.418 -0.4318 -0.0189  0.1734
52606W        W95519  28.642  21.672  25.338  0.2727  0.2138  0.3236
52607W        W95520  21.538  26.589  27.365  0.0637  0.2199  0.0758
52608W        W95521  24.810  32.945  28.035  0.1176 -0.0498  0.0789
52609W        W95522   2.362  18.089   3.772 -0.1362  0.0996 -0.3301
52610W        W95523   0.493  15.042  24.026  0.0802 -0.0677  0.1243
52611W        W95524  33.807  27.361   2.751  0.0467  0.0558  0.1487
52612W        W95525  32.648  11.911  27.164 -0.0431  0.2622  0.0500
52613W        W95526  29.558  25.418   9.021  0.1624  0.3410 -0.1307
52614W        W95527  23.209  24.266  21.136 -0.3853 -0.1693 -0.0444
52615W        W95528  29.472  28.835  14.941 -0.1429  0.3301 -0.0501
52616W        W95529  33.791  27.453  27.668 -0.0095  0.1913  0.0718
52617W        W95530  21.402  16.943  25.213  0.1380  0.1698 -0.0732
52618W        W95531  30.732  28.221  16.977 -0.0364 -0.2781 -0.0161
52619W        W95532   4.584  23.004  18.643  0.4370 -0.1291 -0.0162
52620W        W95533  34.327   5.381  23.300  0.0714  0.0976 -0.0148
52621W        W95534  32.014  12.963  19.898 -0.0168 -0.0212 -0.3542
52622W        W95535  27.463  24.625  15.611  0.0040 -0.2302  0.1307
52623W        W95536  34.213  21.786  16.526 -0.3919  0.4217  0.0571
52624W        W95537  34.015  22.013  17.498  0.2490  0.0881  0.1053
52625W        W95538  33.302  32.878  14.838 -0.1631 -0.5129 -0.1592
52626W        W95539  29.481  26.945  17.007 -0.0274 -0.0012  0.2412
52627W        W95540  27.318  24.228  16.638 -0.1253  0.1499 -0.1212
52628W        W95541  28.780  24.456  20.283 -0.1561 -0.1360  0.0318
52629W        W95542  31.110  16.878  17.148 -0.0165  0.2298 -0.2996
52630W        W95543  26.158  26.941  23.997  0.2290 -0.3853  0.1031
52631W        W95544  28.522  32.688  14.257  0.0883 -0.0218  0.0074
52632W        W95545   6.203  33.680  17.564 -0.1686  0.2576 -0.1458
52633W        W95546   3.329   4.803  19.237  0.0884  0.3295  0.0283
52634W        W95547  31.692  29.211  18.408  0.3907 -0.1617  0.3394
52635W        W95548  28.655  28.973  18.052  0.0094 -0.1474 -0.0983
52636W        W95549  31.134  29.246  19.745 -0.0746  0.1988 -0.3315
52637W        W95550  30.334  31.787  18.761  0.2164 -0.1671  0.2450
52638W        W95551  23.869   3.381  24.940 -0.0661 -0.0651  0.0295
52639W        W95552  27.261  21.658  28.549 -0.2523 -0.0788 -0.0137
52640W        W95553   1.729  25.476  22.799  0.1123  0.1054 -0.0405
52641W        W95554  13.765  28.618  16.986 -0.3530  0.0150 -0.0581
52642W        W95555   9.529  18.577  17.800 -0.2412  0.0034  0.2010
52643W        W95556  31.657  27.928  16.672  0.1730 -0.0773  0.0943
52644W        W95557  33.704  28.814  19.169  0.1620  0.0737 -0.4091
52645W        W95558  33.745  25.649  16.454  0.0597  0.1995  0.0915
52646W        W95559  27.905  25.851  25.491 -0.1729 -0.1301 -0.0718
52647W        W95560  32.412  19.090  14.565  0.0969 -0.0196  0.1347
52648W        W95561   2.201  25.063  15.612 -0.0803  0.0658  0.0351
52649W        W95562   8.187  31.429  19.428  0.0473 -0.0066 -0.0346
52650W        W95563  10.049  24.628  17.849 -0.1222  0.0276 -0.1515
52651W        W95564   5.267   1.245  20.748  0.0427 -0.1400  0.1685
52652W        W95565  34.003   4.285  22.575 -0.0479 -0.1332  0.0569
52653W        W95566  33.140   1.135  15.868 -0.0182 -0.2377  0.1368
52654W        W95567  21.149  19.645  22.464 -0.0399  0.0031  0.0664
52655W        W95568  28.846  27.032  24.210  0.2207  0.1567 -0.1130
52656W        W95569  27.385  29.030  14.080  0.0154  0.1388  0.3538
52657W        W95570   1.431   6.706  20.402  0.0728  0.1960 -0.1886
52658W        W95571  33.123   1.522  17.185  0.0216 -0.1749  0.2077
52659W        W95572   1.261  25.087   4.913  0.0099 -0.0937 -0.0443
52660W        W95573  33.566  28.242  19.350  0.0196  0.0251  0.4388
52661W        W95574   5.285  21.039  18.840  0.2809 -0.3945 -0.2335
52662W        W95575  26.998   4.281  19.071 -0.3008  0.1837 -0.0457
52663W        W95576   4.675  29.534  18.850 -0.0287 -0.1041 -0.1345
52664W        W95577  33.820  25.014  26.265  0.1581 -0.2344  0.0400
52665W        W95578  30.023  20.721  14.209  0.0129  0.0257  0.3004
52666W        W95579   0.652  23.273  23.038 -0.0131 -0.2913 -0.1523
52667W        W95580   5.526  24.570  15.363  0.4323 -0.0071  0.0413
52668W        W95581  27.985  22.568   5.061 -0.1827 -0.2268  0.0987
52669W        W95582  27.169  14.219  19.683  0.3306  0.0482 -0.1994
52670W        W95583  29.873   1.389  20.980 -0.1136 -0.0655 -0.1068
52671W        W95584  30.916  23.917  22.746  0.3329  0.2782 -0.0441
52672W        W95585  27.233  24.965  26.351 -0.0015  0.3418 -0.0414
52673W        W95586   5.670  16.673  25.319 -0.0943  0.1032  0.0509
52674W        W95587   0.558  22.698  19.175 -0.0260  0.1507 -0.1453
52675W        W95588  29.700  23.047  18.694  0.1657  0.1540  0.2884
52676W        W95589  12.378  18.978  14.185  0.0988  0.2657 -0.1408
52677W        W95590  32.802   0.846  19.924 -0.0993  0.2976 -0.2267
52678W        W95591   3.907  18.122  18.412 -0.0939  0.1165  0.0180
52679W        W95592   4.494   3.416  16.809 -0.1564  0.0342  0.0597
52680W        W95593  27.616  24.953  25.899 -0.4786 -0.3962  0.0032
52681W        W95594  25.794  21.617  17.826  0.1820  0.0754 -0.1679
52682W        W95595   6.321  21.156  18.459 -0.0407 -0.1628 -0.0001
52683W        W95596  31.989  27.516  21.679 -0.0850  0.0392 -0.2697
52684W        W95597   1.458  26.890  16.866  0.0854 -0.0440 -0.1454
52685W        W95598  33.180  26.803  15.638 -0.1855  0.0710  0.0344
52686W        W95599   8.794  26.574  29.551  0.1523  0.2810 -0.0036
52687W        W95600  27.581  33.267  16.392  0.1289  0.0386 -0.1793
52688W        W95601  28.338  24.144  15.247 -0.0211 -0.2874  0.1724
52689W        W95602   1.403  31.553  28.552  0.0839 -0.1641 -0.1459
52690W        W95603   2.844  19.527  19.695  0.0888 -0.3940 -0.2936
52691W        W95604   1.197  30.088  14.889  0.0280  0.1214  0.0450
52692W        W95605   3.031  17.197   4.402 -0.0449  0.1116 -0.0382
52693W        W95606  31.061  19.221  14.138  0.0053 -0.0725 -0.0616
52694W        W95607  26.909   4.324  16.442  0.1111 -0.0659  0.3426
52695W        W95608  33.185  20.873  16.125  0.1137  0.0968  0.1977
52696W        W95609  31.735  26.548  16.469 -0.0481  0.3340  0.0819
52697W        W95610   3.230  28.493  21.562  0.1978  0.4604  0.5546
52698W        W95611  22.780  32.587  15.635  0.2851  0.2789 -0.0024
52699W        W95612  33.303  20.200  20.114 -0.1058 -0.1897  0.1277
52700W        W95613  29.221  23.840  23.569 -0.0717  0.0121 -0.0550
52701W        W95614  31.453  27.138  15.616  0.0751 -0.0275 -0.1770
52702W        W95615  26.121  24.283  27.210  0.0146  0.3713  0.0704
52703W        W95616   2.824  31.103  18.211  0.0112  0.1263 -0.1892
52704W        W95617  31.956  28.803  17.347  0.4225  0.2231 -0.3784
52705W        W95618  28.581   5.455  28.501  0.1326  0.0645  0.3443
52706W        W95619  24.456  33.894  16.058 -0.5352 -0.1245 -0.2102
52707W        W95620  32.470  29.149  17.379  0.1819  0.0092  0.3807
52708W        W95621  31.593  26.849  16.854  0.1124 -0.0254 -0.0117
52709W        W95622  29.307  23.932  12.640  0.3532  0.1611 -0.3102
52710W        W95623  12.549  27.365  18.680  0.2273 -0.0739 -0.3041
52711W        W95624  32.030  29.127  17.750  0.1915  0.1553 -0.3382
52712W        W95625  34.323  25.554  29.373  0.1490 -0.2439 -0.1274
52713W        W95626   0.400  26.819  26.285 -0.4382  0.2940 -0.1232
52714W        W95627   8.977  15.842  19.729 -0.0850  0.2488 -0.1359
52715W        W95628  30.644  29.632  22.546  0.4234 -0.1680  0.1210
52716W        W95629  32.971  25.961  25.982  0.3687  0.1064 -0.1382
52717W        W95630   0.355  18.799  16.593 -0.2680  0.1529  0.1370
52718W        W95631   0.636  23.833  22.254 -0.0874 -0.1415 -0.2353
52719W        W95632   6.937  32.077  26.380  0.0772  0.2373  0.2791
52720W        W95633   1.973  33.102  22.172  0.0383  0.0841 -0.2425
52721W        W95634   3.981  27.299  17.038  0.1494 -0.1510 -0.1131
52722W        W95635  25.413  32.077  22.366 -0.3175  0.2062  0.0167
52723W        W95636   0.780  20.566  17.172  0.2644  0.1329 -0.0576
52724W        W95637   0.411  26.734  16.836 -0.1928  0.1537 -0.3067
52725W        W95638   2.764  28.158  19.204  0.1430  0.1452 -0.0176
52726W        W95639   4.365  25.755  22.619 -0.0859  0.0518  0.1997
52727W        W95640  31.180  32.709  18.934  0.3692 -0.0901  0.0538
52728W        W95641   7.576  24.805  21.970  0.0762 -0.1232  0.1101
52729W        W95642   3.449  25.008  14.201  0.1297  0.2107 -0.1170
52730W        W95643  23.800  30.031  23.156  0.1609  0.3329  0.0532
52731W        W95644  31.915  24.270  14.555  0.2101 -0.0657 -0.2720
52732W        W95645  30.199  29.404  15.854  0.2933  0.2154  0.2165
52733W        W95646  33.008  28.991  24.453 -0.0682  0.0942  0.2567
52734W        W95647   2.028  34.253  23.255  0.0444  0.0854  0.0742
52735W        W95648  31.144  19.120  22.285 -0.0926 -0.1929  0.1355
52736W        W95649   4.765  32.593  17.771 -0.0542  0.2415 -0.1390
52737W        W95650  26.705  26.619  19.283 -0.2657  0.0640 -0.0323
52738W        W95651  30.695  21.966  14.991 -0.2381  0.2257 -0.4689
52739W        W95652  28.004  25.089  14.385  0.1501  0.6316  0.1146
52740W        W95653   4.013  14.803  14.410  0.1644  0.1067 -0.0257
52741W        W95654   4.831  23.742  17.510 -0.2533 -0.2304 -0.2011
52742W        W95655  27.762  22.107  22.680 -0.0151 -0.0641  0.0408
52743W        W95656   1.784   3.348  26.823  0.0827 -0.1042  0.0384
52744W        W95657  25.105  27.836  12.957  0.0725 -0.1806  0.0843
52745W        W95658  22.918  18.006  12.989 -0.3840  0.2024 -0.3145
52746W        W95659  25.057   3.148  26.223  0.1160  0.0773  0.3340
52747W        W95660  31.580  24.158  20.261  0.0787  0.1351  0.2132
52748W        W95661  19.629  27.851   5.251  0.2256 -0.2091  0.0368
52749W        W95662   1.416  27.103  21.371 -0.1938  0.0726 -0.1432
52750W        W95663  29.826   1.073  24.881 -0.0680  0.0641  0.0594
52751W        W95664  22.826  32.127   2.083  0.1983 -0.0201  0.2757
52752W        W95665   4.636  34.086   4.172 -0.4279  0.0293 -0.1473
52753W        W95666   7.191  21.468  21.114  0.2282  0.1221 -0.4233
52754W        W95667  30.685  23.560  17.904 -0.0678  0.0092 -0.1040
52755W        W95668   2.169  20.995  23.416 -0.4747 -0.4820  0.0793
52756W        W95669  34.315   0.692  18.556 -0.0001  0.1912 -0.3175
52757W        W95670   0.156  20.058  17.445 -0.1130  0.1437  0.2960
52758W        W95671  29.348  29.117  17.482 -0.0961 -0.0556  0.0226
52759W        W95672  30.885  23.321  16.616  0.1718  0.1219  0.0731
52760W        W95673   0.328  32.532  21.118  0.0462  0.0213 -0.3220
52761W        W95674   3.769  23.575  24.288  0.0495  0.0320 -0.1221
52762W        W95675  30.570  20.841  18.963  0.1099 -0.2551 -0.2255
52763W        W95676  29.342  20.581  21.881  0.0542 -0.0050  0.4366
52764W        W95677  29.020  20.511  29.011 -0.0866 -0.0513  0.0208
52765W        W95678  32.239  24.378  16.035  0.0001  0.2530 -0.0596
52766W        W95679  32.794  28.641  19.408  0.0320  0.0621  0.2852
52767W        W95680  25.846  25.178  13.917 -0.3205 -0.0170  0.2039
52768W        W95681  32.602  22.073  18.138 -0.1696 -0.2740  0.1538
52769W        W95682  33.104  10.709  16.008 -0.5697 -0.4430 -0.0461
52770W        W95683  26.131  32.323  23.034 -0.0317 -0.0225  0.0896
52771W        W95684   8.570  19.270  25.388 -0.3314  0.0667 -0.0718
52772W        W95685   1.001  28.696  24.155 -0.1234  0.0001 -0.1029
52773W        W95686   0.947  21.268  14.976  0.0861 -0.0562  0.0964
52774W        W95687  24.468  19.201  18.744  0.0044 -0.2055 -0.6179
52775W        W95688   0.867  30.405  26.000 -0.0219 -0.0815 -0.0432
52776W        W95689  27.798  31.510  15.491  0.1983  0.0439 -0.0776
52777W        W95690  25.100  28.525  15.228 -0.1156  0.0878 -0.3939
52778W        W95691   5.918  31.871  20.159  0.2225 -0.1694  0.1688
52779W        W95692   2.248  27.312  20.193 -0.2267  0.2373 -0.3167
52780W        W95693   9.584  33.566  23.061 -0.2613 -0.0797  0.0808
52781W        W95694  33.261  25.053  15.700 -0.1097 -0.0418 -0.0845
52782W        W95695  30.985  19.131  21.752 -0.0269  0.0420 -0.3016
52783W        W95696  30.713  29.278  22.091  0.1828  0.2706  0.4564
52784W        W95697  27.133  21.547  12.866 -0.1845 -0.3192 -0.0473
52785W        W95698  30.024  22.277  15.547 -0.1369  0.3172  0.0965
52786W        W95699  29.092  21.139  16.775 -0.0269  0.1440  0.1652
52787W        W95700   2.759  20.836  23.785  0.1525  0.0209  0.5541
52788W        W95701  30.999   2.588  18.361 -0.2155  0.0845 -0.3009
52789W        W95702  31.324  32.985  22.634  0.5058 -0.0597  0.0167
52790W        W95703  33.993  19.484  14.480 -0.1655  0.0185  0.4936
52791W        W95704  28.779  25.539  18.591 -0.0679 -0.3269  0.4123
52792W        W95705  29.701  24.574  23.918 -0.1679 -0.0130 -0.0791
52793W        W95706   2.289  31.024  26.111 -0.1413  0.0111  0.1702
52794W        W95707   2.431  34.458  16.563 -0.1002 -0.2613 -0.0657
52795W        W95708  26.890  29.031  16.851 -0.3604 -0.1246  0.0897
52796W        W95709  22.413  29.346  19.362 -0.1046  0.1997 -0.0326
52797W        W95710   0.942  26.357  19.647 -0.0201 -0.1745  0.1011
52798W        W95711   1.978  16.585  17.744 -0.2139  0.1122  0.1844
52799W        W95712   1.842  21.097  16.484  0.2451  0.3103  0.0311
52800W        W95713  30.517  25.612  17.286 -0.1108  0.1032  0.0111
52801W        W95714  30.891  24.819  18.050  0.2335 -0.0641 -0.0345
52802W        W95715   5.509  22.942  27.908  0.0816  0.1017  0.0031
52803W        W95716  27.701  15.221  15.889  0.1521  0.0020 -0.1973
52804W        W95717  32.163  26.472  14.970  0.1569 -0.2202  0.0018
52805W        W95718   5.231  25.933  24.635 -0.0489 -0.2614 -0.0636
52806W        W95719  29.644  22.281  18.031 -0.0394 -0.1054 -0.2186
52807W        W95720  34.286  32.071  16.543 -0.0241 -0.2096  0.0067
52808W        W95721   4.103  29.238  15.757  0.4303 -0.3528  0.0917
52809W        W95722   2.444  26.902  15.637 -0.1514 -0.0222  0.0217
52810W        W95723  31.043  21.752  20.458  0.2934 -0.1915  0.0417
52811W        W95724  28.460  19.613  14.930  0.0985  0.6171 -0.6041
52812W        W95725  21.121  26.386  14.396  0.0678 -0.0724 -0.2124
52813W        W95726  31.912  31.222  16.047 -0.3167 -0.0822 -0.3495
52814W        W95727  33.594  31.320  17.044  0.1225 -0.0315 -0.1033
52815W        W95728  22.918   5.754  15.261 -0.1087  0.2065  0.0259
52816W        W95729   3.484  25.530  19.233  0.0746  0.1608 -0.0633
52817W        W95730   0.084   1.018  21.176 -0.1307  0.1618 -0.1347
52818W        W95731  31.712   1.252  18.222  0.1654  0.3339 -0.1460
52819W        W95732   5.038  33.449  20.067  0.0466  0.2099 -0.2443
52820W        W95733  27.841  29.472  15.157 -0.2290  0.1349  0.1855
52821W        W95734   1.074  26.482  24.786 -0.1925 -0.0969 -0.0351
52822W        W95735  26.490   3.412  15.524 -0.4355 -0.0192 -0.2766
52823W        W95736  34.342  21.313  13.904  0.1659 -0.0478  0.0384
52824W        W95737  30.237  26.051  16.483 -0.0970  0.1203 -0.0201
52825W        W95738  30.994  20.549  17.862  0.3391 -0.5310 -0.0815
52826W        W95739  25.107  18.310  17.329 -0.0690 -0.0019 -0.0219
52827W        W95740  26.900  23.831  16.980 -0.1085  0.1164 -0.0590
52828W        W95741  34.036  22.898  15.188 -0.0791  0.2079 -0.1262
52829W        W95742   8.272  18.084  22.567 -0.0771  0.0386  0.3330
52830W        W95743  32.864  25.179  21.788  0.2776  0.1603 -0.1224
52831W        W95744  33.506  30.956  15.245  0.3159 -0.1721  0.1447
52832W        W95745   7.037  26.080  15.213 -0.1629  0.0455 -0.0105
52833W        W95746   2.065  30.223  14.746  0.0425 -0.1473  0.1534
52834W        W95747  32.621  23.303  22.410  0.2625 -0.0185 -0.3608
52835W        W95748  26.034  21.998   3.267  0.4562 -0.3349 -0.2095
52836W        W95749  25.526  31.321  14.606  0.0977 -0.0266 -0.1109
52837W        W95750   4.672  13.860  17.043 -0.0759  0.0456  0.0698
52838W        W95751  30.326  27.785  27.731 -0.4011  0.1519 -0.3587
52839W        W95752   1.245  19.075  16.159  0.0021 -0.2246 -0.1232
52840W        W95753  32.954  25.941  20.363  0.0505 -0.0978  0.2028
52841W        W95754  23.130  15.667  19.831 -0.1852 -0.2462  0.2200
52842W        W95755  16.786  22.877  26.695 -0.2184  0.1448 -0.0919
52843W        W95756  31.223  32.470  17.601 -0.2236 -0.1458  0.2641
52844W        W95757  32.117  22.640  26.655  0.0602  0.0925  0.1355
52845W        W95758  25.324  30.602  16.526 -0.2375  0.1902 -0.0027
52846W        W95759  28.621  34.217  27.716 -0.1519 -0.2938 -0.1939
52847W        W95760  32.922  25.857  15.256  0.0044 -0.1092  0.2323
52848W        W95761   5.398  22.669  18.398 -0.1147  0.0489 -0.0751
52849W        W95762  34.246   2.845   2.916 -0.1316  0.1323  0.1753
52850W        W95763  30.359  25.190  21.691  0.0841 -0.0238  0.0336
52851W        W95764  33.256  28.078   0.711 -0.0319 -0.1580 -0.4211
52852W        W95765   0.653  34.046  25.350  0.0666 -0.1374  0.2242
52853W        W95766  24.710   2.863  25.987 -0.1486 -0.4152  0.0628
52854W        W95767  30.516  28.480  24.245  0.4691  0.1759 -0.0128
52855W        W95768   0.821   4.609  26.134  0.2453  0.1283 -0.0363
52856W        W95769   2.193  33.532  28.998 -0.1854  0.2343  0.3366
52857W        W95770  28.776  32.577  23.935  0.1542  0.0137 -0.0389
52858W        W95771  21.338  20.682  20.966  0.1431 -0.3127 -0.0423
52859W        W95772   0.254  26.180  18.408  0.0032 -0.0307  0.1829
52860W        W95773   7.494  22.688  21.166  0.3174 -0.0365 -0.2878
52861W        W95774  26.179  27.256  14.367  0.1045  0.0112  0.3314
52862W        W95775  25.742  25.954  23.532  0.0016 -0.1245  0.1358
52863W        W95776  25.503  30.882  18.818 -0.0213  0.2980 -0.2611
52864W        W95777   4.102  30.053  19.808 -0.0952 -0.2236  0.0275
52865W        W95778  29.795  32.386  19.144 -0.2106 -0.0696 -0.1864
52866W        W95779  30.028  21.987  24.345  0.2125  0.3935 -0.4797
52867W        W95780   4.371  29.481  16.881  0.4113 -0.2603  0.1337
52868W        W95781   1.748  25.917  27.613  0.0521  0.1328  0.0302
52869W        W95782   1.916  27.569  14.800  0.0860  0.2806  0.3518
52870W        W95783  22.702  24.216  18.133  0.0920 -0.2814  0.0484
52871W        W95784  29.414  23.352  19.859 -0.0981  0.2466  0.0140
52872W        W95785  32.986  21.798  13.601  0.2797 -0.1512 -0.1904
52873W        W95786   1.404  23.682  22.897  0.2006  0.2468  0.0776
52874W        W95787  28.519  30.215   0.138  0.0140  0.0825  0.1366
52875W        W95788  34.375  31.437  21.514 -0.1528  0.1664 -0.0279
52876W        W95789  18.205  30.025  15.281  0.0347 -0.0037 -0.0832
52877W        W95790  32.894  18.120  17.268 -0.0497  0.0435 -0.2961
52878W        W95791  22.299  32.211  19.929 -0.0952  0.1089 -0.2430
52879W        W95792  19.495   0.035  25.755 -0.1240  0.0235  0.0846
52880W        W95793   3.996  17.144  21.102 -0.0134 -0.1499 -0.0458
52881W        W95794  25.081  10.680  17.509  0.1485 -0.0608  0.2323
52882W        W95795  33.469  15.145  21.737  0.0062  0.1630  0.0876
52883W        W95796  31.136  23.557  19.988  0.0664 -0.3325 -0.0678
52884W        W95797  34.212  27.895  16.556  0.1341  0.0905  0.1924
52885W        W95798   1.250  34.224  16.494  0.2458 -0.0910  0.1867
52886W        W95799  31.508  33.468  22.034  0.2114  0.1200  0.0093
52887W        W95800  25.303  21.640  16.178  0.1655 -0.1901 -0.3520
52888W        W95801  27.599  25.296  15.085 -0.1696 -0.0217  0.1149
52889W        W95802  27.337  29.162  16.478 -0.0947 -0.2746  0.0497
52890W        W95803   0.660  30.621   5.825 -0.1299  0.1830  0.1097
52891W        W95804  30.302   0.373  22.975 -0.2213  0.1713 -0.0872
52892W        W95805   1.921  13.183  26.875  0.1737  0.0893  0.2980
52893W        W95806  27.456  27.753  20.667  0.0694 -0.0473  0.1030
52894W        W95807   0.665  18.784  16.117  0.1387  0.0447 -0.0449
52895W        W95808  30.383  25.381  17.803 -0.3304  0.0967 -0.0749
52896W        W95809  33.544  22.202  25.307  0.1103 -0.0947 -0.0210
52897W        W95810  28.094  30.616  17.774 -0.0812 -0.0532 -0.0198
52898W        W95811   4.226   0.050  22.628  0.1872  0.2304  0.1061
52899W        W95812  21.027  25.421  21.623  0.0246 -0.3721  0.5891
52900W        W95813  17.303  26.605  16.587 -0.1916 -0.3226 -0.2005
52901W        W95814   0.028  23.103  16.045 -0.2633 -0.0866  0.1683
52902W        W95815  25.308  24.582  27.805 -0.0589 -0.1534 -0.0352
52903W        W95816   9.857  14.631  28.603  0.2728 -0.3152  0.0201
52904W        W95817  25.353  33.526  20.353  0.0102  0.1376 -0.1818
52905W        W95818  28.963  23.022  13.660  0.3492 -0.0632  0.2865
52906W        W95819  33.478  28.056  14.313 -0.1416  0.2182 -0.1169
52907W        W95820  30.167  18.470  22.428 -0.1751  0.3045 -0.0983
52908W        W95821  33.085  13.412  18.198  0.4406  0.0783  0.0756
52909W        W95822   4.457  21.157  16.881  0.0338  0.1911 -0.0934
52910W        W95823   7.033  19.435  20.631  0.0080 -0.2870 -0.2392
52911W        W95824  28.828  26.263   0.246 -0.0333 -0.2165 -0.1982
52912W        W95825  26.960  24.879  19.028 -0.1008  0.1128  0.0883
52913W        W95826   0.360  29.170  27.427  0.0880 -0.0244  0.4675
52914W        W95827  25.280  32.439  22.059  0.0273  0.0283 -0.0508
52915W        W95828   9.802  14.502  26.318  0.1046  0.1394 -0.1446
52916W        W95829   6.902  16.930  20.665  0.0686 -0.2438 -0.1046
52917W        W95830  31.566  20.751  17.115  0.1248  0.0237  0.2905
52918W        W95831   2.424  18.495  23.192  0.0603  0.0304 -0.2703
52919W        W95832   0.648  18.213   2.994 -0.0609  0.0432 -0.1188
52920W        W95833   1.307  18.062  19.184 -0.0721 -0.1961  0.3206
52921W        W95834  25.170  31.013  25.899  0.1173  0.1263 -0.0602
52922W        W95835   4.751   8.596  20.224  0.0892  0.0114 -0.1510
52923W        W95836  25.070  27.793  15.045 -0.3247 -0.2237  0.0901
52924W        W95837   8.752  34.382  23.642 -0.2227 -0.1248  0.0963
52925W        W95838  31.931  20.426  19.710  0.2693 -0.3783  0.1461
52926W        W95839  23.569  19.897  21.850  0.2803 -0.2466  0.1479
52927W        W95840   4.672  18.455  18.091 -0.2886 -0.3807 -0.1292
52928W        W95841  23.120  23.058  21.466  0.0293 -0.1159  0.1503
52929W        W95842   7.349  34.185  28.979 -0.1256  0.0874  0.0591
52930W        W95843   3.165  15.436  16.832  0.1114  0.1638  0.0832
52931W        W95844   0.208  32.956  21.895  0.2562 -0.2538  0.0708
52932W        W95845  12.310  33.429  20.695  0.2323  0.0994  0.0603
52933W        W95846  25.650  28.924  20.052 -0.5101 -0.1662  0.0915
52934W        W95847   6.942  17.309  22.372  0.3012  0.2314 -0.0464
52935W        W95848  29.867  28.585  21.649 -0.0206 -0.1349  0.1429
52936W        W95849  24.485  31.399  28.347 -0.0805 -0.0007  0.2145
52937W        W95850  34.463  16.544  19.432  0.1621 -0.1803 -0.2099
52938W        W95851  33.630  20.964  19.224  0.0011  0.3271  0.0851
52939W        W95852  22.830  18.374  18.990  0.1269  0.1685 -0.0651
52940W        W95853   2.641  33.142  20.079  0.1041  0.0935  0.0034
52941W        W95854  28.370   0.275  16.215  0.1186 -0.1932  0.1204
52942W        W95855  26.005   8.192  21.421  0.1825 -0.1224 -0.0578
52943W        W95856  30.522  22.226  23.193 -0.0671 -0.0415  0.2396
52944W        W95857  30.271  20.099  16.243 -0.0793 -0.1948  0.1932
52945W        W95858   4.315  28.242  28.653 -0.0700  0.0349  0.1724
52946W        W95859  30.664  16.214  22.464 -0.0374 -0.0977  0.0857
52947W        W95860   5.733  24.850  22.373  0.0482 -0.4911 -0.1306
52948W        W95861   1.863  34.470  16.509  0.2348 -0.0376 -0.1304
52949W        W95862   1.326  22.790  19.402  0.4168  0.0328 -0.2050
52950W        W95863  27.180  29.479  20.259  0.0120 -0.0229  0.1836
52951W        W95864  23.877  22.478  19.120 -0.0664 -0.0044 -0.0080
52952W        W95865   5.578  21.436  19.060 -0.1523 -0.2375  0.0564
52953W        W95866   0.446  31.955  17.870 -0.2905 -0.0450 -0.2188
52954W        W95867  29.897  20.229  17.237 -0.2395  0.0335 -0.0700
52955W        W95868  33.052  18.082  20.029  0.1642  0.1333 -0.1885
52956W        W95869  30.362  21.370  16.741  0.1447  0.0449  0.0014
52957W        W95870  24.105  23.496  23.283 -0.1050  0.0390  0.0745
52958W        W95871  30.917  13.613  22.972  0.0910 -0.0792  0.1003
52959W        W95872  24.300  29.963  26.563  0.1688 -0.0694 -0.1040
52960W        W95873   1.363  20.984  23.551  0.0113 -0.2118 -0.1000
52961W        W95874   1.555  32.290  26.625  0.0136  0.2341 -0.0427
52962W        W95875   2.127  18.822  20.690 -0.0718  0.3160  0.1284
52963W        W95876   1.905  30.952  17.891  0.2239 -0.1267 -0.0559
52964W        W95877   2.820  28.315  20.733  0.2121 -0.0252 -0.3483
52965W        W95878   7.391  23.860  20.047 -0.2288 -0.0409  0.1110
52966W        W95879  28.148  29.551   1.024  0.1981  0.0583  0.0441
52967W        W95880  33.354  30.396  28.836 -0.4569 -0.2874  0.1711
52968W        W95881  32.802  27.041  23.489 -0.3111 -0.0508  0.3584
52969W        W95882  29.552  31.050  28.617  0.0077  0.0818  0.0050
52970W        W95883  28.912  32.205  15.603 -0.0977 -0.2164 -0.3988
52971W        W95884   7.410   0.749  23.972  0.1587 -0.1700  0.1751
52972W        W95885   2.031   5.063  17.581 -0.3376 -0.1256  0.1417
52973W        W95886  29.720  26.356  15.568 -0.1111  0.1500  0.4300
52974W        W95887  30.823  26.532  19.847  0.1425  0.0516  0.1439
52975W        W95888   5.484  16.087  17.230  0.0176  0.1698  0.2602
52976W        W95889   2.952  32.109   0.832 -0.1594  0.2413  0.2433
52977W        W95890   0.867  20.526  19.939 -0.0231 -0.1069  0.2672
52978W        W95891  31.272  26.308  13.647 -0.1902  0.2031  0.2237
52979W        W95892  27.982  28.370  13.269 -0.1036 -0.0324  0.4151
52980W        W95893  26.677   0.964   1.669 -0.2312 -0.3364  0.1040
52981W        W95894   2.675  24.103  21.575 -0.0125  0.0197 -0.0519
52982W        W95895  21.223  19.937  23.566 -0.3161  0.0785  0.0399
52983W        W95896   0.550  34.078  15.299  0.4821 -0.0325 -0.2603
52984W        W95897  19.171  26.593  16.408 -0.2234  0.0602 -0.0826
52985W        W95898  24.024  30.988  23.206 -0.1046 -0.0875 -0.3099
52986W        W95899  34.492  21.291  16.580 -0.2629 -0.0012 -0.2538
52987W        W95900  31.963  32.979  25.214 -0.0713 -0.0226  0.2273
52988W        W95901  33.537  23.229  17.487  0.1031  0.0446  0.0428
52989W        W95902   4.915   7.408  19.877 -0.0834 -0.1889  0.1665
52990W        W95903   0.320  20.039  16.426 -0.0163 -0.0625 -0.1942
52991W        W95904   3.244  29.436  18.371 -0.1934 -0.0586 -0.3201
52992W        W95905   3.637  22.814  21.710 -0.2110 -0.0858 -0.3734
52993W        W95906   4.564  29.612  15.726  0.1233 -0.1664 -0.1188
52994W        W95907  34.254  32.371  18.468  0.0892  0.1078  0.0829
52995W        W95908  29.367  23.457   3.396  0.0177 -0.1373  0.0561
52996W        W95909   1.303   2.361  26.621  0.0758  0.1411 -0.3805
52997W        W95910  31.130  25.039  22.345 -0.1971 -0.0051 -0.3075
52998W        W95911  17.196  10.336  15.361 -0.0613  0.2681  0.0067
52999W        W95912  25.299   4.519  21.298 -0.2785  0.0811  0.1438
53000W        W95913  27.086   1.808  25.769 -0.2345  0.2615 -0.0577
53001W        W95914  31.522  25.489  15.135 -0.0409 -0.0204  0.3489
53002W        W95915  31.266  24.687  21.968 -0.0449  0.2244 -0.0085
53003W        W95916   9.681  16.712  24.986 -0.4694  0.1365  0.3066
53004W        W95917  31.683  17.736  13.054 -0.1522  0.1977 -0.1108
53005W        W95918  28.408  12.940  20.205 -0.0538 -0.2068  0.3219
53006W        W95919  27.149  31.916  24.755  0.0037 -0.2072 -0.3326
53007W        W95920   6.511  19.928  15.006  0.0055 -0.0589  0.0202
53008W        W95921   1.402  26.928  15.816  0.0539 -0.0589 -0.2396
53009W        W95922  30.386  33.841  24.864 -0.2399 -0.0501 -0.0515
53010W        W95923  20.259  20.834  17.761  0.5515  0.2657  0.0709
53011W        W95924  31.682  24.087  29.236  0.1821  0.1984  0.2476
53012W        W95925  21.230  28.560  17.658 -0.3134 -0.0387 -0.1424
53013W        W95926  32.471  28.875  15.232  0.2556  0.1044 -0.0974
53014W        W95927  30.577  26.775  26.973 -0.0379 -0.0718  0.0238
53015W        W95928   2.446  31.095  20.594  0.4164 -0.0110 -0.0886
53016W        W95929   5.446  27.779   5.069 -0.0372 -0.1007  0.0338
53017W        W95930  11.459  23.414  16.085 -0.2747 -0.0226  0.1498
53018W        W95931   8.235   3.205  24.742  0.2862  0.1768  0.3170
53019W        W95932   8.325  23.069  29.004 -0.2471  0.1541 -0.2927
53020W        W95933   2.481  30.172  23.695  0.0428 -0.1128 -0.2975
53021W        W95934  24.154  28.710  22.588  0.0253 -0.0265 -0.0763
53022W        W95935   7.408  24.003  22.594 -0.0416 -0.2628 -0.0745
53023W        W95936  31.773  31.119  23.589 -0.2285  0.0458  0.1464
53024W        W95937  22.227  16.142  22.500  0.0461 -0.0093 -0.1721
53025W        W95938  13.465   3.627  26.514 -0.0560  0.1620  0.3439
53026W        W95939   3.128  22.951  25.845 -0.2056 -0.1811 -0.1017
53027W        W95940   4.925  17.659  24.108  0.1706  0.2552  0.2497
53028W        W95941  29.643  29.996  22.438  0.0033 -0.4135 -0.0122
53029W        W95942   2.988  13.782  21.029  0.1359 -0.0356  0.2450
53030W        W95943  29.860  29.222   0.955 -0.2258  0.1409 -0.2100
53031W        W95944  32.326  24.686  21.453  0.0643 -0.1114 -0.0530
53032W        W95945   1.365   4.423  26.207 -0.2287  0.0411 -0.3262
53033W        W95946  29.056  12.876   0.608 -0.1101 -0.0568  0.0312
53034W        W95947  29.456  27.947  26.724  0.2752  0.0162 -0.2639
53035W        W95948  33.147   2.644  22.225 -0.2971 -0.0226 -0.1375
53036W        W95949  30.400  23.398  26.216 -0.0868 -0.2593 -0.1813
53037W        W95950   0.095  14.427  17.453 -0.0533  0.2397  0.0201
53038W        W95951  24.813  27.023  13.584 -0.2647 -0.1129  0.3884
53039W        W95952  28.061  20.310  12.276 -0.1681  0.0485  0.0817
53040W        W95953  33.325   2.219  20.974  0.1361 -0.0741  0.0417
53041W        W95954   1.164  28.302  18.583 -0.3461 -0.4928 -0.0451
53042W        W95955  14.271  22.136  20.570 -0.2278 -0.2180  0.0395
53043W        W95956   1.358  21.904  20.796  0.2341 -0.0702 -0.2117
53044W        W95957   1.470  26.112  25.062 -0.1021  0.0576  0.1776
53045W        W95958  22.676  30.481  25.056 -0.1095  0.1931 -0.0918
53046W        W95959   0.152   0.945  19.880 -0.0227  0.0550  0.0441
53047W        W95960  27.695  23.132  29.310  0.0136 -0.0218  0.2825
53048W        W95961  34.190  24.524  20.159  0.1921  0.3939  0.1604
53049W        W95962  30.628  24.099  18.721  0.0383 -0.0702 -0.0802
53050W        W95963  29.689   5.082  26.138 -0.3193 -0.3644 -0.0438
53051W        W95964   2.995  29.525  23.996 -0.0449  0.1002 -0.1007
53052W        W95965  30.845  27.405  21.940 -0.0550 -0.3174  0.0337
53053W        W95966  31.322  22.978  23.617  0.0152 -0.3404 -0.0341
53054W        W95967  24.387  26.963  13.282 -0.1305 -0.0809  0.0213
53055W        W95968  28.948  24.563  18.524  0.0916 -0.2886 -0.1603
53056W        W95969  24.136  34.487  24.363 -0.1628 -0.5417 -0.2282
53057W        W95970  29.480  32.585  22.941  0.0609  0.1061  0.1011
53058W        W95971   8.754  16.464  17.191  0.0805  0.0887  0.1330
53059W        W95972   5.007  33.970  18.886  0.0219 -0.0644 -0.0544
53060W        W95973   1.908  22.736  25.478  0.1647 -0.0148  0.0468
53061W        W95974  30.441  28.130  14.395  0.0830 -0.0688 -0.0733
53062W        W95975  29.867   0.721  18.711  0.2161  0.2987 -0.2598
53063W        W95976   5.816  18.746  21.553 -0.0328 -0.1794 -0.1315
53064W        W95977  28.059   8.277   4.191 -0.1379  0.0763  0.4886
53065W        W95978   3.678  34.225  21.454 -0.2494  0.0067  0.0150
53066W        W95979  30.109   4.503   2.296  0.2702  0.1208  0.1127
53067W        W95980  32.571  20.548  15.009 -0.0148 -0.1752 -0.3274
53068W        W95981   1.470  11.139  21.904 -0.0606 -0.0321 -0.1180
53069W        W95982  20.889   6.175  19.855 -0.1565 -0.2394 -0.2099
53070W        W95983  30.058  30.946  27.280  0.3174 -0.3230  0.1228
53071W        W95984   2.540  29.112  22.159  0.0434 -0.2866 -0.1796
53072W        W95985  31.696  22.646   0.514 -0.2096  0.0540  0.0351
53073W        W95986  26.085  24.813  24.755 -0.1034  0.2314  0.1985
53074W        W95987  34.194  23.455  20.912  0.1213 -0.2279  0.4426
53075W        W95988  30.140   0.136  24.231 -0.1074  0.1142 -0.3254
53076W        W95989  26.126   1.513  26.127  0.0791  0.1936 -0.0523
53077W        W95990   9.839  23.410   0.327  0.0242  0.1743  0.2108
53078W        W95991  32.550  32.452   1.495  0.3615 -0.0089 -0.0760
53079W        W95992  29.970   0.436  14.991  0.0139  0.0433 -0.1106
53080W        W95993   8.067   1.215  21.923  0.2488 -0.2234  0.1174
53081W        W95994   1.672   2.269  25.156 -0.0519  0.4896  0.1411
53082W        W95995  30.417  19.549  26.084  0.3566  0.0444 -0.1669
53083W        W95996  33.487  30.179  29.700  0.1248  0.0423  0.0782
53084W        W95997  25.191  26.270  24.679 -0.1475  0.1338 -0.1024
53085W        W95998  28.476  25.162  13.563  0.2031  0.1833  0.0995
53086W        W95999   8.478  14.038  28.364  0.1069  0.3250 -0.1947
53087W        W96000  25.894  26.850  22.203 -0.1246  0.0159  0.0517
53088W        W96001  34.444  30.280  16.239 -0.0703  0.1068  0.1453
53089W        W96002   1.175  25.287  18.250 -0.0216  0.1781  0.0672
53090W        W96003  31.308   0.827  17.303 -0.0081 -0.0238  0.0039
53091W        W96004  31.319   9.150   0.001  0.0924 -0.0251  0.2462
53092W        W96005   0.048  27.026  21.608 -0.0438 -0.3897 -0.2841
53093W        W96006  19.398  25.707   3.008  0.1122  0.0563  0.0631
53094W        W96007  34.012  31.789   0.538 -0.0611  0.4335  0.1159
53095W        W96008   6.074  15.459  17.458  0.3666  0.0768  0.3754
53096W        W96009  28.828  26.313  19.149 -0.0633  0.0567 -0.2988
53097W        W96010   3.854  28.463   4.268 -0.0822 -0.3195  0.2016
53098W        W96011   2.266  21.045  17.518 -0.0129 -0.0818  0.0173
53099W        W96012  20.189   5.499  14.820  0.0553  0.3386  0.1361
53100W        W96013   9.477  20.982  16.624 -0.0718  0.0297  0.1419
53101W        W96014  10.522  32.728  19.230  0.3326 -0.1380 -0.1467
53102W        W96015  30.764  24.405  24.035 -0.1663 -0.0069 -0.0574
53103W        W96016  24.072  25.735  19.948 -0.3311  0.0027 -0.0148
53104W        W96017  24.026  26.330  25.610 -0.0409  0.0670 -0.2151
53105W        W96018  12.427   2.115  17.894  0.0169 -0.0743 -0.0323
53106W        W96019   0.587  18.945  15.572 -0.1041 -0.0384 -0.1482
53107W        W96020  25.045  26.701   2.132 -0.3061 -0.1581 -0.0464
53108W        W96021  29.064  33.175  18.519  0.1039 -0.3937  0.1448
53109W        W96022   2.155  22.187  26.335  0.0556  0.1367 -0.1782
53110W        W96023  12.686   0.062  27.493 -0.2202 -0.1667  0.0642
53111W        W96024  21.968   2.004  27.494 -0.0525  0.0626 -0.1549
53112W        W96025  29.966   1.565  26.688 -0.2723 -0.3580 -0.1255
53113W        W96026   3.077   0.899  28.222  0.0657  0.0860  0.1063
53114W        W96027   7.248   2.586  28.877 -0.1921 -0.1250  0.0903
53115W        W96028  28.892  17.512  20.156 -0.2564  0.1027  0.2271
53116W        W96029  31.533  14.538  25.261  0.3991  0.0625  0.1085
53117W        W96030  28.348  34.442   7.488 -0.2895 -0.1696  0.0764
53118W        W96031   3.426  32.985  25.270  0.2713 -0.1236  0.1370
53119W        W96032  33.175  26.739  16.169 -0.0229 -0.0432  0.2253
53120W        W96033   4.024  12.106  22.353 -0.2568  0.2464 -0.2832
53121W        W96034  30.608  30.545  17.204 -0.1032  0.3201  0.0393
53122W        W96035  28.630  20.748  19.653 -0.0110 -0.3238  0.0854
53123W        W96036  33.363  33.000  19.117 -0.2580  0.1379 -0.0816
53124W        W96037  30.024  33.570  24.641  0.3473  0.0780  0.0819
53125W        W96038  31.730  17.415  23.050 -0.2016 -0.0346 -0.2137
53126W        W96039  11.718  13.517  19.301 -0.0247  0.0522 -0.2931
53127W        W96040  28.001  30.937   0.131  0.2021 -0.1831 -0.0567
53128W        W96041   2.071  27.187  28.313  0.3405  0.0633 -0.0699
53129W        W96042  33.061  19.284  20.655 -0.0682  0.1449 -0.2500
53130W        W96043   5.447   2.647   7.517  0.0244 -0.0584  0.0089
53131W        W96044  11.878   7.144  29.204  0.1858  0.0736  0.0265
53132W        W96045  27.202  23.378   7.420  0.0365  0.1934  0.1977
53133W        W96046   1.699  25.773  29.429 -0.3722  0.1742  0.1425
53134W        W96047   1.258  34.310   1.202 -0.1369  0.1161  0.1792
53135W        W96048  33.025   2.278  27.145 -0.1019  0.0416  0.2750
53136W        W96049  22.244  33.201  19.000 -0.1992 -0.1884  0.2519
53137W        W96050   1.944  19.914  26.652  0.0618 -0.1188 -0.1617
53138W        W96051  32.417  17.943  22.196  0.1840  0.4040  0.1034
53139W        W96052  15.447   2.554  25.940  0.1475 -0.0116  0.2849
53140W        W96053  28.693  29.743  28.022 -0.0342 -0.1544 -0.1607
53141W        W96054  33.674  33.324   2.204 -0.1627  0.1754  0.1004
53142W        W96055  28.404  29.625   1.575  0.0382  0.0581 -0.1066
53143W        W96056  33.553  30.020  17.520 -0.1627 -0.4978 -0.0973
53144W        W96057  28.641  19.664   2.929  0.0631  0.2463 -0.0461
53145W        W96058   0.331   0.078   1.488 -0.0105 -0.2246  0.0036
53146W        W96059  32.920  23.232  15.645  0.3153 -0.2455  0.0201
53147W        W96060  34.329  17.969  23.058  0.2036  0.0518 -0.0885
53148W        W96061  27.705   0.405  20.319  0.1599  0.0947  0.0381
53149W        W96062   1.077  21.011  18.864  0.0401 -0.0078 -0.3786
53150W        W96063   8.235  16.248  22.706 -0.0550 -0.3291  0.2279
53151W        W96064   2.330  14.620  21.863 -0.1110 -0.0265 -0.4317
53152W        W96065   0.438  29.355  24.382 -0.1183 -0.0207  0.0874
53153W        W96066  30.102   0.555  16.334  0.0594  0.1015 -0.0067
53154W        W96067   2.093  12.057  21.266 -0.1177  0.1152 -0.1535
53155W        W96068   6.659  29.745  27.218  0.2517 -0.0571  0.4040
53156W        W96069  30.387  32.730  23.714 -0.2576 -0.2206 -0.0257
53157W        W96070  31.723  29.962  17.998 -0.2893  0.2138  0.1171
53158W        W96071  23.910  34.264   8.805 -0.0278  0.4034 -0.2851
53159W        W96072  26.413  25.989  22.810  0.2187 -0.2829  0.1691
53160W        W96073  33.946  31.915  17.818 -0.1522  0.2342 -0.0124
53161W        W96074  21.403  29.846  28.777 -0.0303  0.5532 -0.0459
53162W        W96075  33.181  33.650  20.800  0.2144  0.1524 -0.0261
53163W        W96076  27.556   3.386  15.129  0.2864 -0.2173  0.0525
53164W        W96077  28.975  31.051  25.702  0.1630 -0.0434 -0.0782
53165W        W96078   5.402  24.918  23.483  0.2442 -0.0983 -0.0803
53166W        W96079  32.092  29.365  16.297  0.0773 -0.0814  0.1145
53167W        W96080  29.938  29.167   0.429 -0.0726 -0.1477 -0.0914
53168W        W96081  32.917  23.038  22.951  0.0137  0.1185 -0.2166
53169W        W96082   2.597  22.451  28.166  0.1515 -0.0684 -0.0738
53170W        W96083  33.881  26.447  18.434 -0.1546  0.0582 -0.0847
53171W        W96084  32.956  30.787  13.897  0.1534  0.0422 -0.0332
53172W        W96085   5.488  30.691  17.427  0.2149 -0.3673  0.0904
53173W        W96086   0.185   2.590  29.774  0.0416 -0.0979  0.0817
53174W        W96087  31.396  24.359  29.631 -0.0936 -0.3255  0.0542
53175W        W96088   3.130   0.754  26.779 -0.0592 -0.0230  0.0013
53176W        W96089   4.276  33.314   1.376  0.2290  0.3489 -0.1445
53177W        W96090  23.826  26.790  25.853 -0.0161 -0.0918 -0.2819
53178W        W96091  29.355  30.949  22.023  0.0857 -0.0593  0.1508
53179W        W96092   2.248  30.434  19.509  0.0098  0.0311  0.1176
53180W        W96093  23.875  15.704  27.394  0.1182  0.0333  0.2676
53181W        W96094   0.140  21.217  14.889  0.0737  0.0330  0.2351
53182W        W96095   0.033  30.628  17.798 -0.0165 -0.2004 -0.6015
53183W        W96096  33.425  24.164  20.752 -0.3993 -0.1158  0.1606
53184W        W96097  34.057  16.847  17.582 -0.2406  0.0002  0.3016
53185W        W96098   3.587  30.089  24.913  0.1107  0.0837 -0.2684
53186W        W96099  23.401  29.492  25.736  0.3641 -0.1662  0.0040
53187W        W96100   6.960  20.987   3.422 -0.2913 -0.2746 -0.0323
53188W        W96101  27.917  21.938  24.168  0.1056  0.2777 -0.0196
53189W        W96102   3.117  23.511  15.989  0.0987 -0.4890 -0.0701
53190W        W96103  32.323  25.011  18.789  0.1020 -0.2079 -0.2284
53191W        W96104  19.320  23.929  28.050  0.1137  0.0121 -0.5367
53192W        W96105   4.311  10.542  23.557 -0.0384 -0.0750 -0.3169
53193W        W96106  28.398  13.880   0.867 -0.1312  0.0411 -0.3861
53194W        W96107  33.690   2.549  26.134 -0.1780  0.2829  0.1668
53195W        W96108  32.610  30.278  16.027 -0.3034  0.1014  0.0234
53196W        W96109  28.530  25.100  13.089  0.0583 -0.3370 -0.1163
53197W        W96110  28.488  19.019   0.819 -0.0428 -0.4571  0.2008
53198W        W96111  32.643   9.502  19.944  0.0820  0.3481  0.0605
53199W        W96112  28.763  24.296  25.393  0.1636 -0.2964  0.1718
53200W        W96113  33.949   6.131  23.781 -0.0996  0.0833  0.1111
53201W        W96114  25.962  20.799  29.711  0.1052 -0.0242 -0.3540
53202W        W96115   3.757  32.363  28.489  0.1608 -0.0785 -0.1413
53203W        W96116  29.582  33.000  20.795  0.0327 -0.2231 -0.1659
53204W        W96117  29.507  20.742  24.348 -0.1478  0.2861 -0.2707
53205W        W96118   3.867  33.241  28.124  0.2194  0.1150  0.1962
53206W        W96119  24.364  24.915  25.869  0.2417 -0.0070 -0.2907
53207W        W96120  32.708  15.523  21.241  0.0405 -0.3876 -0.1681
53208W        W96121   0.224  26.174  16.500  0.1744  0.0947 -0.1010
53209W        W96122  32.524  22.108   6.096 -0.2571  0.1681 -0.2905
53210W        W96123  32.844   1.777  16.148  0.2154  0.0397  0.2789
53211W        W96124   8.703  21.519   0.598 -0.3254 -0.0822 -0.0588
53212W        W96125  28.553  34.252  19.737 -0.2089 -0.1909  0.0299
53213W        W96126   4.421  34.332  27.782  0.2155  0.1433  0.2154
53214W        W96127   3.022  31.751  21.960  0.1745  0.1008 -0.1270
53215W        W96128   0.637  24.153  15.455 -0.0316 -0.0742 -0.3857
53216W        W96129  31.528  24.137  21.237  0.2163  0.0742 -0.0944
53217W        W96130  27.310  33.461  18.743  0.5505 -0.3614 -0.1607
53218W        W96131  30.044  33.097  18.124 -0.1370 -0.1386  0.1179
53219W        W96132   6.769  14.148  25.764 -0.3745 -0.1993  0.0690
53220W        W96133   9.566  21.275  23.522  0.0152 -0.2233 -0.2994
53221W        W96134   0.740  27.671  21.203  0.1327  0.2293  0.0416
53222W        W96135  34.038  33.617   2.817 -0.0602 -0.0976 -0.2198
53223W        W96136  34.234  32.106  20.476 -0.3895  0.0600 -0.1100
53224W        W96137   1.359  22.815  29.535 -0.0548  0.1078 -0.0864
53225W        W96138  29.495  11.695  18.969  0.0014  0.0621  0.0338
53226W        W96139  30.589  31.784  28.982 -0.0911 -0.0810  0.2156
53227W        W96140   3.556  30.053  16.537  0.1631  0.1942  0.1435
53228W        W96141  25.549  29.629  22.387  0.0308  0.1802  0.0946
53229W        W96142  32.761  32.181  21.430 -0.2806 -0.1255 -0.1035
53230W        W96143   6.989  29.126  27.246 -0.1507  0.0770 -0.0051
53231W        W96144  26.434  26.558  19.734 -0.1525 -0.3176 -0.0138
53232W        W96145   6.222  30.768  19.244  0.1359 -0.3461 -0.1074
53233W        W96146  15.282  28.468  22.774  0.1675  0.0726 -0.0932
53234W        W96147  30.628  27.465  26.244  0.1860 -0.0272 -0.0382
53235W        W96148  23.161  25.484  29.148 -0.0668  0.0030  0.0750
53236W        W96149  22.931  21.015  26.080  0.0136 -0.2173 -0.0447
53237W        W96150   8.055  19.706  23.096  0.3834  0.0571  0.2455
53238W        W96151  28.798  27.777   0.093  0.1119  0.0336  0.2179
53239W        W96152  26.340  20.109  24.456 -0.0729 -0.1651 -0.1739
53240W        W96153   5.683  27.411  15.258  0.2650 -0.0945 -0.1963
53241W        W96154  10.079  18.965  22.011  0.2921  0.1457  0.1507
53242W        W96155   4.512  16.047  28.013 -0.1262 -0.3832  0.0563
53243W        W96156   3.373  19.898  25.200 -0.2615 -0.0706 -0.0766
53244W        W96157   2.762  24.508  22.546  0.1735  0.0359  0.2264
53245W        W96158  27.476  32.080  25.598 -0.2771  0.1003 -0.2967
53246W        W96159  28.788  22.733  20.991  0.3499  0.1479 -0.1241
53247W        W96160  32.487  18.544  17.549  0.2989  0.0792  0.1204
53248W        W96161   4.955  26.858  19.376  0.2367 -0.0417  0.1590
53249W        W96162  24.411  29.338   5.380 -0.0185  0.0284 -0.0511
53250W        W96163  27.232  27.523  21.994 -0.2207  0.0858  0.0083
53251W        W96164   7.277   4.765   1.458  0.0250 -0.2460  0.1235
53252W        W96165  25.710   2.604   1.232 -0.2676 -0.4351 -0.0794
53253W        W96166   3.836  18.117  27.990 -0.2279 -0.0281  0.0268
53254W        W96167  25.584  12.738  14.758  0.3123  0.1520 -0.0448
53255W        W96168  33.651  28.702  17.121  0.0733 -0.0363 -0.3677
53256W        W96169  33.302  15.755  19.533  0.2098 -0.0278 -0.0786
53257W        W96170  24.157  15.892  26.941 -0.2811  0.1117 -0.1103
53258W        W96171   4.348  30.493  16.560  0.1400 -0.0866 -0.0920
53259W        W96172  19.343  31.292  18.087 -0.3590  0.0006 -0.1414
53260W        W96173   4.022  17.835  22.741 -0.2277 -0.0121  0.1501
53261W        W96174  11.623  28.035  21.927 -0.2646  0.3642 -0.3156
53262W        W96175  30.705  19.360  22.183 -0.0638 -0.0709  0.2197
53263W        W96176  13.528  26.328  29.275 -0.2660  0.2651  0.0308
53264W        W96177   8.388  15.339  25.782 -0.4088  0.1069  0.2843
53265W        W96178   4.231  20.565   3.491 -0.1131 -0.3580 -0.2195
53266W        W96179  23.539   1.779  16.042  0.1684  0.0880  0.1769
53267W        W96180  30.723  28.615  25.701 -0.0148  0.0253  0.1482
53268W        W96181  30.630  18.632  24.112  0.0637 -0.1032 -0.0991
53269W        W96182  11.045  31.762  25.190 -0.1521 -0.1288 -0.2953
53270W        W96183   6.622  29.129   3.321  0.5163  0.0003 -0.0597
53271W        W96184   5.303  15.531  26.241 -0.4422  0.2725 -0.2933
53272W        W96185   7.204  27.792  24.579  0.2819  0.2386  0.2633
53273W        W96186   2.100  28.592  24.825 -0.1085  0.1952 -0.1196
53274W        W96187  20.748  21.913  25.438  0.1443 -0.2862 -0.1858
53275W        W96188  33.937  23.380  18.621 -0.1665 -0.2988 -0.4110
53276W        W96189  31.167  24.273  14.109 -0.1307  0.0503  0.0202
53277W        W96190   2.081  32.948  26.753 -0.1855 -0.2489 -0.0673
53278W        W96191   6.344  25.465  14.882  0.0913 -0.1104  0.2982
53279W        W96192  33.916  33.307  21.018 -0.0964 -0.1480  0.0472
53280W        W96193  31.994   8.271  22.944  0.1036  0.0258  0.4151
53281W        W96194  19.823  29.879   9.598 -0.0452 -0.0946  0.0867
53282W        W96195  22.222  26.169   2.377  0.2676 -0.1451  0.2376
53283W        W96196  32.016  30.724  26.295  0.2381 -0.1183  0.2441
53284W        W96197   9.353  25.124  29.502  0.2234 -0.0741  0.0456
53285W        W96198  29.069  30.123  22.344  0.0704  0.3868 -0.2929
53286W        W96199  32.777  25.229  23.952  0.1044 -0.5162  0.1972
53287W        W96200  31.474  29.962  28.693 -0.1560 -0.2580 -0.1062
53288W        W96201  30.719  33.341  24.778  0.0586  0.0587 -0.1142
53289W        W96202  26.553  28.322   4.225 -0.0976  0.1417  0.1894
53290W        W96203   7.077  22.037   3.336  0.2637 -0.0454  0.1880
53291W        W96204  31.551  27.559   0.591 -0.0372 -0.0838  0.2194
53292W        W96205   6.528   0.618  21.115 -0.0152 -0.0023  0.2312
53293W        W96206   1.229  27.801   1.290 -0.0763 -0.1236 -0.5432
53294W        W96207   6.810  18.528  20.616 -0.1393 -0.0131  0.0500
53295W        W96208  34.394  27.623   6.936 -0.0760 -0.2363  0.2920
53296W        W96209  18.940  18.881  25.147 -0.3195  0.2933 -0.2519
53297W        W96210   9.583  16.214  23.102  0.4082  0.0111 -0.2582
53298W        W96211  33.473  23.250  24.877  0.0253  0.0324  0.0983
53299W        W96212   6.016  15.761  27.929  0.0394 -0.0216 -0.2545
53300W        W96213   8.922  28.995  25.902  0.4965 -0.0929 -0.6185
53301W        W96214  31.369   0.757  25.185 -0.0782 -0.0013 -0.0550
53302W        W96215  30.035   5.547   4.534  0.0733 -0.1373 -0.2138
53303W        W96216   3.906  19.475   0.204  0.1714 -0.1074  0.0367
53304W        W96217  26.809  30.884   4.944 -0.0496  0.0263  0.2704
53305W        W96218  27.145  18.607  13.896 -0.0702 -0.0114  0.1139
53306W        W96219  10.687  31.903  24.761  0.1081 -0.0403 -0.1039
53307W        W96220  26.828   2.428   5.148 -0.1792 -0.0213  0.1751
53308W        W96221  19.190   9.469   4.196  0.0428 -0.1383 -0.0465
53309W        W96222   2.251  30.955   2.513 -0.0934  0.1268 -0.1409
53310W        W96223  30.308  32.554  15.979 -0.1983  0.1178 -0.0922
53311W        W96224  31.399   5.716  17.710 -0.1161  0.0868  0.0560
53312W        W96225  31.225  19.367  22.920 -0.2118 -0.0542  0.0795
53313W        W96226   1.140  34.406   1.737  0.3560 -0.1219  0.2865
53314W        W96227  21.577  30.350  27.182 -0.1597 -0.0836  0.1130
53315W        W96228  34.088  32.180   4.241  0.0991  0.2739 -0.0317
53316W        W96229  34.251  33.387   6.155  0.1004  0.0922 -0.1099
53317W        W96230   1.568  26.669  27.757 -0.0386  0.0846 -0.0020
53318W        W96231   4.377  26.690  28.641 -0.0417  0.0014 -0.2761
53319W        W96232  27.696  32.164  18.364 -0.5238  0.0666  0.1430
53320W        W96233  30.711  21.952   5.158 -0.0402 -0.0809  0.4627
53321W        W96234  26.383  24.652   1.363  0.1395 -0.0883 -0.0935
53322W        W96235  24.253  22.315  21.346  0.0318 -0.0707  0.1018
53323W        W96236  29.427   0.584  19.893 -0.1314  0.1764  0.0888
53324W        W96237  33.202  19.137   1.282 -0.1393 -0.0264 -0.0066
53325W        W96238  30.221   6.844  20.920  0.0232  0.2059  0.0862
53326W        W96239  34.346  33.895  11.199 -0.1553 -0.3532  0.1297
53327W        W96240  25.388  27.835  24.682 -0.0451  0.2589  0.0655
53328W        W96241  25.403  26.990  28.199  0.0392  0.1679  0.1247
53329W        W96242  34.267  26.554  23.824  0.2571 -0.0650 -0.2374
53330W        W96243  18.506  19.685   3.916 -0.2646 -0.1569  0.2888
53331W        W96244  25.619  22.182  22.836  0.2743 -0.1725  0.0381
53332W        W96245   4.406  25.695  25.978 -0.2051 -0.2296  0.2615
53333W        W96246  25.804  29.195  18.209  0.0470  0.0451  0.2078
53334W        W96247   3.566   2.324   8.707 -0.0952  0.3949 -0.0468
53335W        W96248  27.798  21.957  14.433  0.0406  0.1349 -0.0895
53336W        W96249  30.904  23.471   4.847  0.2060 -0.2165 -0.2374
53337W        W96250  32.452  24.828  28.952  0.0884  0.0168  0.1206
53338W        W96251  24.003  17.633  24.752  0.0260 -0.0217 -0.1529
53339W        W96252  31.583  24.670   6.263 -0.2190 -0.3203 -0.2087
53340W        W96253  22.243  25.649   0.229 -0.0892 -0.0051  0.2870
53341W        W96254  16.924   9.456  28.964 -0.0571 -0.3262  0.3750
53342W        W96255   0.445  24.355   4.696  0.0871  0.2601 -0.3353
53343W        W96256   3.210  29.524   5.831  0.1745  0.0372  0.1772
53344W        W96257  28.872  29.169  19.625  0.1726 -0.0495  0.0027
53345W        W96258  32.203  27.665   1.652 -0.1299 -0.1371 -0.1344
53346W        W96259  24.238  25.820  24.556 -0.2320 -0.0458  0.2448
53347W        W96260  28.828  19.401  23.499 -0.0432  0.0131  0.1909
53348W        W96261  33.146  31.782  18.896 -0.0342  0.1495  0.1101
53349W        W96262  29.955  25.300   1.979 -0.2799  0.1378 -0.0422
53350W        W96263  34.183  33.264  26.177 -0.2248 -0.2129  0.2537
53351W        W96264  30.608  26.941  28.358  0.3272 -0.0340 -0.3246
53352W        W96265  13.806  24.750  21.700 -0.2667 -0.2857  0.1099
53353W        W96266   9.614  24.024   6.385  0.0694  0.2703 -0.0437
53354W        W96267   0.387  30.011   2.690  0.2364 -0.1043  0.2361
53355W        W96268   2.742  26.889  24.318 -0.2526  0.0977  0.0938
53356W        W96269   1.113  19.720   2.457  0.1452  0.4014 -0.0531
53357W        W96270   2.838  28.664   6.793 -0.1505 -0.0600  0.0748
53358W        W96271  30.393  26.716   8.060 -0.0106  0.2369  0.1682
53359W        W96272  32.854   1.729  28.892  0.3694  0.1052 -0.2069
53360W        W96273   2.155   5.761  11.098 -0.2337 -0.0733 -0.0175
53361W        W96274   3.150  12.035  19.868  0.2264  0.1155 -0.1880
53362W        W96275  16.696   5.625  17.856 -0.1965 -0.3278 -0.1646
53363W        W96276   1.769  22.556   0.662 -0.1742  0.1298 -0.0625
53364W        W96277  23.309  28.350  19.970  0.0458  0.0287  0.1693
53365W        W96278  31.105  33.304  25.731 -0.0494  0.3262  0.0181
53366W        W96279   0.304  26.847  22.619 -0.2201 -0.0668  0.4052
53367W        W96280  11.490   3.422  21.271 -0.3027 -0.3822  0.1050
53368W        W96281   0.290  26.981  28.110  0.4304 -0.3117 -0.4438
53369W        W96282   2.075  18.270  25.076 -0.4377  0.1213 -0.0651
53370W        W96283   0.511  13.509  26.430 -0.0013  0.1425 -0.0258
53371W        W96284  29.914  30.922  29.351  0.1350 -0.3259 -0.1953
53372W        W96285  25.828  32.162   5.407  0.1473  0.0266  0.0108
53373W        W96286   0.496  33.556  27.272  0.2887  0.1428  0.0983
53374W        W96287   6.127  30.949   1.814  0.1870 -0.1361  0.2134
53375W        W96288  23.463  20.030  28.661  0.0802  0.0285  0.1505
53376W        W96289  33.817  30.749   2.397  0.1050 -0.3019 -0.1379
53377W        W96290  34.080  27.133  24.361 -0.0609  0.0707 -0.0726
53378W        W96291  25.214  32.343  29.506 -0.0916 -0.1113 -0.1688
53379W        W96292   2.302  19.197  27.625  0.0109 -0.2021  0.2513
53380W        W96293  28.452  32.483  17.192 -0.0047 -0.2152  0.0727
53381W        W96294   4.976  31.316  25.958  0.0793 -0.0497 -0.2664
53382W        W96295  24.924   5.363  26.207 -0.0968  0.1199 -0.0008
53383W        W96296   3.914  27.584   0.097  0.3942  0.0525  0.5690
53384W        W96297  30.926  32.118  18.759  0.4139 -0.0742 -0.0338
53385W        W96298  34.094   3.231   2.092  0.1675 -0.0241 -0.1129
53386W        W96299  29.680  29.627   0.218 -0.0685  0.0169 -0.0554
53387W        W96300  24.950  25.961   5.279 -0.0358  0.0091  0.2117
53388W        W96301  32.980  34.482  23.428  0.0787  0.1472  0.1729
53389W        W96302  29.289   0.735  29.166 -0.2369  0.1986  0.2515
53390W        W96303   2.507   5.857  29.221 -0.5136 -0.2007 -0.1969
53391W        W96304  31.115  27.786   6.144 -0.1327  0.2499  0.0507
53392W        W96305  30.178  19.850  29.432 -0.1065 -0.2197  0.0448
53393W        W96306  31.839  20.901   3.118 -0.1232  0.1760 -0.2660
53394W        W96307   7.961  23.475   4.686 -0.1229 -0.2555  0.1393
53395W        W96308  10.811  29.160  24.687 -0.0130 -0.0699  0.0015
53396W        W96309  33.060   6.323   1.273  0.1426 -0.2383 -0.1628
53397W        W96310   6.219   5.057  13.747  0.2448 -0.0541 -0.0523
53398W        W96311   7.542  20.887  14.535  0.2532 -0.0809 -0.1196
53399W        W96312  34.252  29.242  25.096 -0.0593 -0.1597 -0.0675
53400W        W96313  31.712  27.843  18.654  0.0092 -0.0750 -0.0672
53401W        W96314   1.082   7.695   6.370  0.0116 -0.1122 -0.2080
53402W        W96315   0.527  20.664   3.320  0.0650 -0.1762  0.2493
53403W        W96316   6.820  22.882  21.951 -0.0931 -0.2069  0.1338
53404W        W96317  25.379  22.434  29.608 -0.0076 -0.3506  0.0522
53405W        W96318   1.818  24.114   1.354  0.2201  0.2868 -0.1153
53406W        W96319   1.791  29.476   4.662 -0.1230  0.1354 -0.0210
53407W        W96320  31.463  28.617  21.407 -0.0651 -0.2278 -0.1921
53408W        W96321  31.598  27.833  24.419  0.0043 -0.3334 -0.1612
53409W        W96322   9.172   3.780  29.509 -0.2082  0.1821  0.2990
53410W        W96323  18.662  28.259  24.686 -0.3018 -0.0565  0.2112
53411W        W96324  30.436  28.364   0.573 -0.2842  0.1013  0.0595
53412W        W96325  11.369  24.855   0.939 -0.0546 -0.2079  0.0934
53413W        W96326  13.272  32.070  20.814 -0.0027 -0.0801  0.0781
53414W        W96327  17.823   4.321   5.654  0.1472  0.0330  0.3400
53415W        W96328   1.269  31.756   6.435 -0.0660  0.1892  0.0100
53416W        W96329   1.783  32.992  15.531  0.1568  0.2003  0.3932
53417W        W96330  23.057  25.034   1.770  0.0558 -0.1301 -0.2055
53418W        W96331  10.303  23.446   6.251  0.1609 -0.0053 -0.2663
53419W        W96332  26.915  24.290  28.422 -0.1527  0.1129  0.2749
53420W        W96333  31.414  33.339   6.541  0.0902 -0.0595 -0.1463
53421W        W96334   4.327  20.658   2.255  0.0748  0.2320  0.2971
53422W        W96335  25.743  29.804  25.665 -0.2175 -0.0861 -0.1466
53423W        W96336  30.108  25.825  22.030 -0.3448 -0.0878  0.0761
53424W        W96337   6.785  23.241  28.253  0.3797 -0.1762  0.1550
53425W        W96338   1.269  33.289  25.721 -0.1164 -0.2448 -0.0769
53426W        W96339  20.635  19.566   1.977  0.0611  0.1236  0.1970
53427W        W96340   4.604  24.144  18.227 -0.3061  0.3430  0.3350
53428W        W96341  31.568  26.905   7.925 -0.0348  0.0287  0.2106
53429W        W96342  25.614  32.580  27.965  0.0280  0.2154 -0.0032
53430W        W96343  32.568  22.240  26.084 -0.2747  0.2012  0.0248
53431W        W96344   0.004  31.516  22.972  0.1609 -0.0812 -0.3388
53432W        W96345  10.192  29.485  27.307  0.0595  0.0193 -0.1586
53433W        W96346  27.302  22.880  29.242 -0.3188 -0.2944  0.2755
53434W        W96347  29.590  30.879  14.529 -0.2845 -0.0932 -0.0164
53435W        W96348  22.599  20.944  20.563 -0.0516 -0.1590  0.0653
53436W        W96349  25.201  26.163   7.939 -0.0619  0.0037  0.0672
53437W        W96350   3.562  12.374  22.462 -0.1926  0.1632  0.1517
53438W        W96351   0.927   1.085  28.838 -0.1256 -0.0701 -0.1414
53439W        W96352  20.078  29.019  29.042 -0.2551  0.2190  0.3375
53440W        W96353  24.936  23.747  19.664  0.0850  0.2157  0.2661
53441W        W96354  29.008  28.427   1.039 -0.1570 -0.2341 -0.2280
53442W        W96355   0.022  24.971  17.582  0.1999  0.1169  0.0209
53443W        W96356   0.545  22.858  20.024 -0.0157 -0.1037  0.2569
53444W        W96357   1.399  31.864  26.321  0.0317 -0.0935 -0.3481
53445W        W96358   2.018  27.583   5.058  0.2380  0.0754  0.2528
53446W        W96359  33.587  31.230   7.546  0.0354 -0.2101 -0.2957
53447W        W96360   0.909  19.230  24.462  0.0581  0.0554 -0.0694
53448W        W96361  31.000   4.343  25.254  0.3124 -0.0124  0.0872
53449W        W96362  30.949   0.320  28.121  0.1898 -0.3703 -0.0990
53450W        W96363   0.443   7.404   0.864  0.0410 -0.1021  0.3231
53451W        W96364  27.642  20.092  20.789  0.0433  0.3232 -0.2143
53452W        W96365  32.770   0.040  15.447  0.0061  0.1150  0.2645
53453W        W96366  34.159  33.886  28.387  0.1187 -0.0471 -0.1453
53454W        W96367  31.797  21.759  15.151  0.5005  0.0625 -0.2391
53455W        W96368  32.682  25.614  27.513 -0.2295 -0.0143 -0.2837
53456W        W96369  24.197   3.282   0.913 -0.3321 -0.2310 -0.0784
53457W        W96370  10.451  31.218  29.276  0.1865  0.1054 -0.1748
53458W        W96371  27.084  22.808  24.455  0.0146 -0.4420  0.1254
53459W        W96372  33.830  26.124   3.092  0.2402  0.0152  0.0712
53460W        W96373  33.975  28.138   5.782 -0.0087 -0.0438 -0.1180
53461W        W96374   1.042  34.319  22.639 -0.0950 -0.1613 -0.2840
53462W        W96375   0.834  29.617  24.474  0.1290 -0.1159 -0.1010
53463W        W96376  26.239  24.786  27.043  0.1434  0.1424  0.1459
53464W        W96377   0.113   1.200  20.712 -0.2298 -0.3498  0.1962
53465W        W96378   2.649  22.099   0.261 -0.1293  0.0988  0.0313
53466W        W96379  21.213  21.118  26.592  0.0596  0.2081 -0.1276
53467W        W96380   9.773  24.871  29.365  0.0211 -0.1000  0.1691
53468W        W96381  31.098  18.911   2.614  0.2468 -0.0613 -0.1835
53469W        W96382   2.506  18.650   7.547  0.2348 -0.1080 -0.0754
53470W        W96383   0.034  34.023  28.088  0.4924  0.3423 -0.0107
53471W        W96384  27.293  24.488  23.734  0.0830 -0.0169  0.1684
53472W        W96385  29.784  27.407  14.888 -0.1822  0.4578 -0.1765
53473W        W96386   3.476  17.368  22.957  0.0181 -0.1357  0.2081
53474W        W96387   6.506  33.297   5.694  0.0719  0.1036  0.0553
53475W        W96388  21.712   0.359  29.317 -0.2586 -0.3290  0.3760
53476W        W96389  33.711  29.500   0.386  0.2859 -0.1231  0.2944
53477W        W96390  30.526  16.474  29.411  0.1330 -0.3157 -0.0389
53478W        W96391  23.659  26.517   2.056  0.1636 -0.6699 -0.0224
53479W        W96392   7.798  18.908  26.042  0.1192 -0.0718  0.2953
53480W        W96393  31.091  32.723  24.215  0.0414  0.3446 -0.0895
53481W        W96394   2.621  19.719   3.070 -0.1930 -0.3660 -0.1188
53482W        W96395  32.890  14.626  19.290 -0.3703 -0.1318 -0.3344
53483W        W96396   0.178  32.820  22.969 -0.1267 -0.0123  0.0097
53484W        W96397   0.369  31.707   2.584  0.0099  0.0050 -0.1933
53485W        W96398  31.075  25.800   2.404  0.1765  0.0878 -0.1793
53486W        W96399   5.977  18.278   7.996  0.3877  0.0174 -0.0635
53487W        W96400  26.891  20.538  24.866 -0.3990  0.2880  0.3553
53488W        W96401   1.293  27.787  23.080 -0.1869  0.0817  0.3153
53489W        W96402  31.778  33.356  20.446  0.2011 -0.1674 -0.1102
53490W        W96403  33.347  30.516   3.136  0.3686  0.5254  0.0477
53491W        W96404   3.921  24.492  24.374  0.0105  0.1541 -0.0063
53492W        W96405   2.105  22.587   9.904 -0.0324 -0.1949  0.0283
53493W        W96406   4.201  25.588   2.672  0.0932  0.0007  0.0516
53494W        W96407  32.489  26.535   6.721 -0.0455  0.0742 -0.0573
53495W        W96408  13.809  19.562  20.182  0.0203  0.0354 -0.2235
53496W        W96409  26.846   1.497  21.957 -0.3082  0.1209 -0.1689
53497W        W96410  27.054  26.053   0.313  0.2919 -0.0600  0.2475
53498W        W96411  31.943  32.745   4.410 -0.5388  0.1998  0.2305
53499W        W96412   3.646  29.684  28.123 -0.0257 -0.2910 -0.1032
53500W        W96413   9.910  25.492  25.431  0.1857  0.2190 -0.0804
53501W        W96414   3.697  19.861  27.212 -0.1052  0.2427  0.0755
53502W        W96415  25.052  30.621  26.959 -0.1024  0.0149  0.3040
53503W        W96416   0.697  31.293   7.699  0.1848 -0.0863 -0.0670
53504W        W96417   1.041  28.937   3.647 -0.0285 -0.0087 -0.0569
53505W        W96418   1.153  25.890  19.773 -0.0514 -0.2969  0.5503
53506W        W96419  30.032  19.006  25.267  0.0485 -0.2725  0.1970
53507W        W96420   2.332  31.611   3.376  0.0976 -0.2239 -0.1178
53508W        W96421  22.752  21.157   0.960 -0.0612  0.2579  0.0922
53509W        W96422   4.777  23.200  28.523  0.0076  0.2957  0.0655
53510W        W96423  24.817   1.861   2.424  0.2881 -0.3845 -0.3015
53511W        W96424  29.573  17.253  15.455  0.3132 -0.3087  0.0239
53512W        W96425  33.611  20.837  28.439 -0.4114 -0.0498 -0.1235
53513W        W96426   6.607  29.527  27.866 -0.0109 -0.0569 -0.1458
53514W        W96427   4.950  24.120  27.322 -0.0950 -0.0450  0.4044
53515W        W96428  30.460  33.075  23.359  0.0993  0.2060 -0.0798
53516W        W96429  25.323   1.627   6.841 -0.2760  0.1038  0.4377
53517W        W96430  29.609  23.836  28.046 -0.0564 -0.3462 -0.0741
53518W        W96431  34.415  22.922   0.280 -0.3627  0.1668 -0.0692
53519W        W96432   1.992  25.226  29.362 -0.0448  0.0657 -0.1805
53520W        W96433  22.311  24.243  25.899  0.0021 -0.1630 -0.1634
53521W        W96434   3.968  26.308   7.964 -0.2978  0.0470 -0.1283
53522W        W96435  20.616  25.129   2.994 -0.1899 -0.0144 -0.0251
53523W        W96436   3.173  23.736   7.097 -0.0153 -0.3103  0.0638
53524W        W96437  13.217  18.817  22.964 -0.1623 -0.0176  0.1292
53525W        W96438  17.045  22.179  28.919 -0.0154  0.1080 -0.2783
53526W        W96439  33.362  16.445  26.191  0.5141  0.1119 -0.2020
53527W        W96440  28.352  33.376  28.176  0.2110  0.0055  0.0217
53528W        W96441   2.348   2.443   5.317  0.1879 -0.0930 -0.1501
53529W        W96442  31.055  22.990   5.399  0.0308 -0.0920  0.0958
53530W        W96443   6.186  26.298   6.880  0.0647  0.2785  0.2092
53531W        W96444  26.258  21.353   7.837 -0.0174 -0.2916 -0.0163
53532W        W96445  28.466  12.150   4.037  0.1939  0.2736  0.0501
53533W        W96446  24.051  23.196  27.407 -0.1884 -0.1233  0.1382
53534W        W96447   1.961  30.463   4.513  0.1990 -0.2603 -0.0774
53535W        W96448  22.310  30.372   2.690 -0.1573 -0.0905  0.1734
53536W        W96449  19.734   0.189   0.376 -0.1091  0.0718 -0.3148
53537W        W96450  33.127  30.684  25.063 -0.0736  0.1472  0.0900
53538W        W96451  28.794  33.074   2.329  0.1312 -0.0521  0.4096
53539W        W96452  26.883   7.360  26.570  0.0589 -0.0473 -0.0106
53540W        W96453  27.614  24.907   6.778 -0.0262 -0.0359 -0.2107
53541W        W96454   2.197  26.122  17.718 -0.2180  0.2705  0.1055
53542W        W96455  24.622   4.266  25.317 -0.2630  0.1536 -0.2915
53543W        W96456  32.460  29.481  21.965  0.0030  0.3370 -0.0321
53544W        W96457   0.514  32.072  26.310 -0.1159  0.0256  0.2014
53545W        W96458   0.014  33.103  26.533  0.1854 -0.1617  0.2340
53546W        W96459   3.551   2.227  24.415 -0.0651 -0.0314 -0.1518
53547W        W96460   3.216  19.086  20.868  0.1965 -0.1329  0.1473
53548W        W96461  27.259  28.696  15.030  0.0827 -0.1677 -0.0044
53549W        W96462  32.293   4.568  17.326 -0.1198 -0.4600  0.2757
53550W        W96463  20.171   0.933  18.315 -0.1441  0.1586 -0.0952
53551W        W96464  34.283  30.215  25.449  0.0988  0.1333 -0.0095
53552W        W96465   2.835  17.578  13.862  0.4241 -0.0065 -0.0659
53553W        W96466  32.654  14.436  17.031 -0.0031  0.2207  0.0725
53554W        W96467   0.475  24.718  17.494 -0.0465  0.1539 -0.0077
53555W        W96468  34.139   0.103  16.007  0.2335 -0.0636  0.1023
53556W        W96469  27.338  20.384  14.480 -0.0759 -0.1702 -0.0016
53557W        W96470  23.055   4.838  22.760  0.0494 -0.1270 -0.0382
53558W        W96471  33.976   0.053  16.648  0.0227  0.2339 -0.0974
53559W        W96472  30.192  29.200  19.581  0.1848 -0.2996  0.1561
53560W        W96473  34.006  32.136  18.766  0.2141 -0.0465 -0.0250
53561W        W96474   0.494  32.366  15.230  0.3265 -0.1079  0.1565
53562W        W96475   3.788  28.437  26.250  0.2806 -0.1351  0.1574
53563W        W96476  30.499   2.521  16.715 -0.1425  0.0804 -0.0251
53564W        W96477   3.815  32.273  21.891  0.2852  0.0515 -0.0623
53565W        W96478   0.132   1.985  24.591  0.0512  0.2354 -0.1440
53566W        W96479  31.899   3.213  19.210  0.2869 -0.0087  0.0861
53567W        W96480  30.603  27.337  19.325 -0.0998  0.2426  0.0991
53568W        W96481  25.852   5.431  15.349  0.0952 -0.1011 -0.6540
53569W        W96482  28.958   0.262  20.458 -0.2855  0.0882  0.2161
53570W        W96483   4.998  21.940  22.556 -0.4212 -0.1480 -0.1919
53571W        W96484   0.427  32.567  20.327  0.1134  0.2628 -0.1641
53572W        W96485   3.874  25.611  14.942  0.3161  0.0596 -0.0884
53573W        W96486   1.683  33.146  23.057 -0.1675 -0.0104  0.0831
53574W        W96487  33.915  11.156  16.251  0.0963  0.0012 -0.0637
53575W        W96488  29.540   2.136  26.856  0.0738 -0.0993  0.0566
53576W        W96489  29.716  31.184  17.350 -0.0330  0.1349  0.3148
53577W        W96490  30.205  22.252  16.482 -0.1616  0.0817 -0.2673
53578W        W96491  21.621  32.215  16.736  0.0669  0.1124 -0.0608
53579W        W96492  23.120  17.378  20.623  0.1221  0.0421 -0.1693
53580W        W96493  32.554  29.279  18.538 -0.1048 -0.0167 -0.1629
53581W        W96494   3.827  27.226  15.400  0.2399  0.0553 -0.0449
53582W        W96495  22.207  26.431  17.379  0.2907  0.1392  0.2446
53583W        W96496   4.797  20.988  19.270 -0.1659 -0.0664 -0.2461
53584W        W96497   2.860  27.684  17.127  0.1730 -0.2789 -0.1155
53585W        W96498  31.977  27.098  19.007 -0.0065 -0.0645  0.1274
53586W        W96499   3.105  33.500  15.425  0.0108 -0.3956 -0.1011
53587W        W96500   1.523  29.123  18.611  0.1527 -0.0499  0.1976
53588W        W96501  26.919  27.624  16.226 -0.2884 -0.3305  0.0917
53589W        W96502   3.522   1.113  20.276  0.3951  0.1938  0.3564
53590W        W96503   0.453   0.533  24.380 -0.0542 -0.0890 -0.0735
53591W        W96504  27.001  20.290  20.990 -0.2392 -0.0413 -0.4233
53592W        W96505   0.141  28.994  22.679 -0.0686  0.0626  0.2726
53593W        W96506  28.606  10.404  21.267 -0.1419  0.3017 -0.0070
53594W        W96507   1.020  26.571  27.121 -0.1298 -0.1328  0.0043
53595W        W96508  29.036   6.048  21.341  0.1807  0.2731  0.1993
53596W        W96509  23.372  22.350  23.285 -0.3418  0.0009 -0.2982
53597W        W96510  27.752   5.739  14.770 -0.0342 -0.0214  0.1518
53598W        W96511  19.779  21.663  19.831  0.1608  0.1432 -0.1989
53599W        W96512   3.771  31.830  22.516  0.0125  0.0513 -0.1023
53600W        W96513  23.073  31.853  14.041  0.0391  0.0767 -0.0996
53601W        W96514  34.228  26.260  26.296  0.0101 -0.0855 -0.0660
53602W        W96515  33.958  29.940  15.835  0.1600  0.4033  0.3074
53603W        W96516  34.120  22.038  15.234  0.2518 -0.0605 -0.3883
53604W        W96517   5.549  20.838  19.825 -0.1249  0.1942 -0.0101
53605W        W96518  30.033  21.717  17.576 -0.1974 -0.1352 -0.1571
53606W        W96519  23.971  26.531  20.501  0.4021 -0.1056 -0.0650
53607W        W96520   0.153  23.617  17.454  0.0093 -0.0323 -0.1648
53608W        W96521   0.481  26.922  24.368 -0.2557 -0.0297 -0.5247
53609W        W96522  21.736   1.857  21.360 -0.1051  0.0116  0.2487
53610W        W96523  33.620  26.435  17.426  0.2752 -0.2909  0.0233
53611W        W96524   4.056   0.038  24.610 -0.0990 -0.2495  0.0201
53612W        W96525  28.600  26.937  15.298 -0.1458  0.0598 -0.2723
53613W        W96526   5.193  26.419  15.246 -0.0190 -0.3266  0.0321
53614W        W96527  27.887  23.091  27.968  0.3213  0.0256 -0.0458
53615W        W96528  29.347  19.948  22.220 -0.2576 -0.1025  0.1364
53616W        W96529   1.011  24.703  19.002 -0.2630  0.1334 -0.0726
53617W        W96530   1.362  33.729  16.665 -0.0316 -0.2735 -0.1312
53618W        W96531  21.569  27.958  27.359 -0.0041 -0.0011  0.0947
53619W        W96532   0.256  25.552  19.675 -0.1726  0.0174  0.4501
53620W        W96533  28.140  34.155  22.555  0.1435  0.4122 -0.0811
53621W        W96534  29.533  31.800  29.211  0.1228 -0.1287 -0.0762
53622W        W96535  30.523  18.097  21.682  0.0813 -0.0298  0.1089
53623W        W96536  26.596  30.979  23.832 -0.2043 -0.0036 -0.1704
53624W        W96537   0.248   6.951  25.506  0.0608 -0.1325 -0.1669
53625W        W96538  25.321  29.939  23.674 -0.2988 -0.1059 -0.1986
53626W        W96539  26.083  22.818  17.454 -0.1326 -0.0196  0.1427
53627W        W96540  32.727  27.794  19.063  0.3541  0.1433 -0.1015
53628W        W96541   2.719  26.002  17.291  0.0541  0.0093  0.1828
53629W        W96542  33.298   2.203  18.709 -0.0617  0.0825 -0.3988
53630W        W96543  27.308   1.613  17.230  0.0492 -0.0616  0.0233
53631W        W96544  14.731  17.858  15.401 -0.1181 -0.0056  0.1660
53632W        W96545   6.363  28.451  19.402 -0.0438  0.2461 -0.0120
53633W        W96546   4.918  28.224  20.273  0.1958 -0.0060  0.0364
53634W        W96547  30.286   0.297  18.860  0.1684 -0.0777 -0.1904
53635W        W96548  26.555  34.280  13.749  0.0130 -0.1134 -0.1806
53636W        W96549  14.069  29.682  17.094 -0.2068 -0.0388 -0.4413
53637W        W96550   4.018  17.621  14.435  0.1537  0.1951 -0.1264
53638W        W96551  30.552  30.787  16.744  0.2613  0.0633  0.0190
53639W        W96552  26.311  34.177  14.727  0.1245  0.0959  0.1480
53640W        W96553  34.209  16.949  23.384  0.0816  0.0111 -0.0821
53641W        W96554   1.065  27.773  25.068  0.1153 -0.1118  0.3090
53642W        W96555   3.777   4.776  18.201 -0.1556 -0.2491 -0.1030
53643W        W96556  33.009   0.061  18.232  0.0457 -0.1883 -0.0440
53644W        W96557  33.784  31.291  23.925 -0.2502 -0.1038 -0.1295
53645W        W96558  32.770  26.729  24.217 -0.2124 -0.1540  0.4889
53646W        W96559   2.661  24.335  16.898  0.2070  0.0681 -0.0642
53647W        W96560   3.036   2.088  17.488  0.0398  0.0525  0.0302
53648W        W96561  34.142  33.585   0.212 -0.1384 -0.2139  0.0299
53649W        W96562  27.517  30.428  14.586  0.0052 -0.0524  0.1605
53650W        W96563  28.787  29.828   4.242  0.0848 -0.2484 -0.0605
53651W        W96564  26.738  30.351  13.925 -0.1311  0.1038  0.1416
53652W        W96565  29.279  20.622  15.186  0.1239 -0.1484  0.0203
53653W        W96566  27.914  33.090  22.609  0.0105  0.0416  0.1004
53654W        W96567  27.541   4.863  15.384  0.1393  0.3409 -0.0749
53655W        W96568  30.628  22.859  27.028 -0.2799  0.2650 -0.2097
53656W        W96569  28.435  29.410  14.389 -0.1167  0.2523  0.1042
53657W        W96570  33.075  21.362  20.758 -0.3558 -0.0012  0.0750
53658W        W96571   5.248  21.830  21.065  0.1761 -0.3790 -0.0156
53659W        W96572   4.977   4.200  28.168 -0.1171  0.2041 -0.1490
53660W        W96573   5.620  27.235  16.591 -0.2390  0.2917 -0.0523
53661W        W96574   2.307  25.895  14.579 -0.2136  0.2277 -0.0334
53662W        W96575   6.489  27.488  17.673 -0.1120  0.0077  0.2271
53663W        W96576  33.149  26.576  15.142 -0.4831 -0.1387 -0.1877
53664W        W96577  27.911  27.181  24.316  0.2015  0.0937 -0.0135
53665W        W96578   2.855   0.024  16.751 -0.4099 -0.1501 -0.0995
53666W        W96579   6.461  33.971  19.556 -0.0039 -0.0586 -0.1493
53667W        W96580  34.415  27.614  15.583  0.3772 -0.1414 -0.1481
53668W        W96581  34.150   5.083  17.230  0.0835 -0.3222  0.1525
53669W        W96582  28.263   0.512  22.743 -0.3144 -0.1072  0.2790
53670W        W96583   1.929  28.418  15.533 -0.2265  0.2108 -0.0999
53671W        W96584  24.753  30.294  25.900  0.1328  0.1577  0.0935
53672W        W96585  28.040  34.277  21.546 -0.4740  0.2134 -0.1177
53673W        W96586  33.946  28.293  22.577  0.1464  0.0535  0.0402
53674W        W96587   5.279   0.023  18.174  0.2229  0.0554  0.1008
53675W        W96588  32.919  29.267  26.235 -0.1512 -0.2800  0.0593
53676W        W96589  27.982   1.776  15.861  0.2382 -0.0837 -0.2235
53677W        W96590  27.738  19.457  19.230 -0.0345 -0.0684  0.2733
53678W        W96591   5.456  22.054  17.355  0.0036  0.1253 -0.1942
53679W        W96592  30.129  23.916  25.645 -0.0426  0.1631 -0.0601
53680W        W96593  19.711   1.171  13.598 -0.2097  0.3597 -0.0049
53681W        W96594  32.408  32.251  28.921  0.0502  0.1344 -0.0140
53682W        W96595   0.819  15.358  15.074  0.1087  0.2922  0.1019
53683W        W96596   2.027  31.452  14.804  0.0725 -0.2294 -0.5027
53684W        W96597   3.120  33.304  26.045 -0.2629  0.0406 -0.1313
53685W        W96598   2.443  25.574  15.414  0.0033  0.2386 -0.0441
53686W        W96599  28.288   3.609  14.815  0.2419 -0.2045 -0.2131
53687W        W96600  34.217  28.979  20.621  0.2341  0.0822  0.1249
53688W        W96601  29.693  19.690  13.952  0.4112 -0.3643  0.0774
53689W        W96602   0.441  21.391  20.799  0.0710 -0.0265 -0.1108
53690W        W96603  34.296  30.973  14.540 -0.0784  0.1131  0.0725
53691W        W96604  22.473  27.039  23.150  0.3786  0.1037 -0.3313
53692W        W96605   6.305   1.176  20.297 -0.1107  0.1053 -0.1344
53693W        W96606  33.584   0.281  19.321  0.0602  0.1820  0.0179
53694W        W96607  31.626  30.684  16.749 -0.0937 -0.0022  0.2132
53695W        W96608   0.131  29.481  18.889 -0.0312 -0.2763  0.0311
53696W        W96609  34.034  31.655  15.724 -0.1628  0.2967 -0.0408
53697W        W96610   0.042  34.175  17.573 -0.1004  0.0629  0.1533
53698W        W96611  22.509  31.700  21.160 -0.0915  0.1993  0.2817
53699W        W96612  23.207  25.613  17.686 -0.0849  0.0071 -0.6784
53700W        W96613  26.084   5.400  29.674 -0.0757 -0.0139 -0.0643
53701W        W96614  28.667  28.756  20.306 -0.3782 -0.1692 -0.4101
53702W        W96615   0.472  25.898  20.535  0.1141 -0.1554 -0.1044
53703W        W96616   1.770   0.893  15.142  0.2960  0.1538  0.1564
53704W        W96617  33.707  16.697  20.007 -0.0274  0.0882 -0.2907
53705W        W96618  25.109  29.258  23.106  0.2887  0.0578 -0.2518
53706W        W96619   3.918  34.330  20.883  0.1371  0.3444 -0.0355
53707W        W96620  25.675  29.127  17.707 -0.0858 -0.0369 -0.1951
53708W        W96621  29.567   1.444  21.326  0.1114 -0.0536  0.3620
53709W        W96622  26.570  26.496  15.403 -0.2347 -0.1221  0.2162
53710W        W96623   6.488  20.471  14.055  0.0930 -0.3015 -0.1369
53711W        W96624  29.584  30.473  16.375  0.2323  0.3386 -0.0414
53712W        W96625   5.990   0.027  18.798  0.5393  0.0434  0.0607
53713W        W96626  27.889  28.016  20.876 -0.1345  0.0573  0.0792
53714W        W96627  21.222  29.398  25.336 -0.0530 -0.0787 -0.2892
53715W        W96628  33.748  34.245  20.995 -0.1139  0.2337  0.1468
53716W        W96629  31.812  24.044   1.339 -0.3241 -0.3926  0.0854
53717W        W96630  11.883  30.930  27.531  0.1924 -0.1401  0.2864
53718W        W96631   0.999  18.770  15.314 -0.2479  0.2601  0.3417
53719W        W96632  31.554  32.583  22.852  0.0388 -0.0102 -0.0599
53720W        W96633  24.999  22.461  15.412  0.4726  0.0811  0.0639
53721W        W96634  32.781  34.017  20.117 -0.1847 -0.2910 -0.0344
53722W        W96635  28.087  31.471   9.389 -0.4585 -0.0864  0.0018
53723W        W96636  22.473  23.442  29.224 -0.2737 -0.2606  0.1823
53724W        W96637  33.550   0.811  25.174 -0.2798 -0.0952 -0.1328
53725W        W96638   3.799  25.739  17.990  0.0880 -0.1677 -0.1411
53726W        W96639  28.064   5.569  20.555  0.3539  0.5373 -0.3210
53727W        W96640  28.540   2.497  18.701 -0.1751 -0.2842 -0.0306
53728W        W96641  26.127  18.917  15.105 -0.1541  0.2573 -0.5106
53729W        W96642   3.341  32.043  15.888  0.4794  0.1172 -0.1256
53730W        W96643  29.017  29.136  16.175 -0.1900 -0.1606  0.1871
53731W        W96644  12.014  26.246  21.090  0.0177  0.0082 -0.1021
53732W        W96645   2.851  31.376  20.608  0.1966  0.0835 -0.4220
53733W        W96646  10.213  27.834  23.689 -0.0125  0.2474 -0.0589
53734W        W96647  28.708   4.015  24.704  0.0350 -0.0703  0.1159
53735W        W96648  32.192  21.541  21.148  0.3571 -0.0583  0.0250
53736W        W96649  32.789  28.929  15.688  0.1424  0.2528 -0.1887
53737W        W96650  31.429   6.539  15.305 -0.0619 -0.1333 -0.2919
53738W        W96651  21.849  28.345  12.922 -0.0312 -0.1981 -0.0649
53739W        W96652  30.698  31.680  18.448  0.1913 -0.1174 -0.1643
53740W        W96653  31.275  24.537  21.407 -0.1374  0.1898  0.3606
53741W        W96654  34.245  26.697  14.000 -0.2357 -0.1707  0.0969
53742W        W96655   4.854  33.019  20.460 -0.1624 -0.0459 -0.0130
53743W        W96656   1.798  20.693  21.477 -0.1443 -0.0973  0.1449
53744W        W96657   8.343  23.264  14.560  0.0639  0.1410 -0.0727
53745W        W96658  31.586   1.378  26.332 -0.0626  0.0047 -0.0642
53746W        W96659   2.529   4.419  19.550 -0.1114  0.0004 -0.2895
53747W        W96660   0.988  18.357  17.257 -0.2331 -0.1643 -0.0608
53748W        W96661   2.192  26.738  23.879  0.0788  0.2779 -0.0261
53749W        W96662   4.878  33.031  24.249 -0.2279  0.2741 -0.1133
53750W        W96663   3.315  28.427  17.577 -0.1172 -0.2287  0.1297
53751W        W96664  32.259  27.179  14.408 -0.1702 -0.1095  0.0821
53752W        W96665   5.500  32.935  27.206 -0.3136  0.3593  0.1145
53753W        W96666   5.417  30.524  18.331  0.0347 -0.0799 -0.3557
53754W        W96667  32.091  32.009  14.122 -0.2683 -0.1994 -0.1301
53755W        W96668  25.239  29.123  27.033  0.2275  0.1457 -0.1118
53756W        W96669   4.844  25.273  20.146 -0.1792 -0.3652  0.1374
53757W        W96670  32.907  21.256  19.561 -0.0597 -0.2520  0.3018
53758W        W96671  31.980  32.267  20.736 -0.0781  0.0752  0.0600
53759W        W96672  25.683  15.366  16.557 -0.2420 -0.4803 -0.3784
53760W        W96673  31.460  22.837  15.848 -0.1423 -0.1403  0.0471
53761W        W96674  29.963  26.457  19.362 -0.2554 -0.4040  0.0723
53762W        W96675  29.436   5.658  21.441 -0.0701  0.0806  0.1945
53763W        W96676  32.784  22.650  19.944  0.2909 -0.1246 -0.1779
53764W        W96677  25.120  27.837  23.026 -0.1076  0.0546  0.3037
53765W        W96678  27.869  30.992  25.730  0.0692  0.0075 -0.0602
53766W        W96679   5.136  32.160  19.885 -0.0846 -0.1997  0.2869
53767W        W96680  22.689  29.297  23.350  0.1980  0.0380 -0.2008
53768W        W96681   2.210  31.549  17.084 -0.0750 -0.1407  0.1435
53769W        W96682   0.247  33.539  17.138  0.2268  0.0939  0.1245
53770W        W96683  27.120  12.191  14.825 -0.2588  0.0939 -0.0588
53771W        W96684  24.222  24.487   0.482 -0.2073 -0.2454  0.1033
53772W        W96685   2.245  30.583   5.577  0.0745 -0.0432 -0.0896
53773W        W96686  23.777  30.156  22.672  0.1332 -0.0522  0.0783
53774W        W96687   3.264  27.554  24.360  0.3452 -0.1465 -0.0843
53775W        W96688   7.783  22.197  21.127 -0.0359 -0.3839  0.1347
53776W        W96689  33.563  24.246  20.256 -0.1444 -0.5049  0.0689
53777W        W96690  31.642  21.672  23.616  0.1857  0.0447  0.0066
53778W        W96691   9.818   2.840  26.679  0.0425  0.0435 -0.0596
53779W        W96692  30.730  22.752  14.727  0.3055  0.1953  0.0304
53780W        W96693  31.287  26.732  15.377 -0.1683 -0.3198  0.0096
53781W        W96694  34.283   3.020  22.556 -0.1085 -0.1878  0.0306
53782W        W96695   1.098   1.051  21.929  0.2055 -0.2461  0.3502
53783W        W96696  27.431   5.889  19.855 -0.1828 -0.0183  0.0807
53784W        W96697  33.241  23.489  17.805  0.0425  0.2193  0.2406
53785W        W96698  33.147  27.725  20.079  0.5316 -0.1661 -0.1555
53786W        W96699   7.641  19.731  13.382 -0.0989  0.1435 -0.2398
53787W        W96700   3.435   9.891  22.761 -0.2938  0.1268 -0.2117
53788W        W96701  27.773  30.750  18.888  0.3599 -0.2681 -0.1426
53789W        W96702  13.634   2.471  20.603  0.0580  0.0523  0.0319
53790W        W96703  31.853  19.485  21.502  0.4717 -0.2328  0.1881
53791W        W96704   0.060  25.510  26.203  0.2452 -0.0497  0.0577
53792W        W96705  32.948  27.677  19.560  0.0997  0.0759 -0.0970
53793W        W96706   0.616  28.073  15.079 -0.0631 -0.2736 -0.3334
53794W        W96707  25.192  17.679  24.121 -0.1909  0.1013 -0.0396
53795W        W96708   2.246   3.897  16.558  0.0952 -0.0476 -0.1523
53796W        W96709  26.517  32.126  19.388 -0.0142  0.0476  0.0779
53797W        W96710   0.978  32.790  20.598  0.0255  0.2004  0.1310
53798W        W96711  31.223  19.594  21.155 -0.2400  0.2767 -0.0412
53799W        W96712  21.999  29.484  26.804 -0.0750 -0.0942 -0.0721
53800W        W96713  27.410   5.973  18.957 -0.1471 -0.1020  0.0402
53801W        W96714  26.299  18.251  22.735 -0.0314 -0.1009 -0.1138
53802W        W96715  34.364  29.580  16.569 -0.3616 -0.2892 -0.2773
53803W        W96716  31.900  26.013  17.131  0.0225 -0.0658 -0.0244
53804W        W96717  28.398  29.754  29.601  0.3896  0.1717  0.1858
53805W        W96718  28.987  32.917  18.097  0.5070 -0.0177 -0.1627
53806W        W96719   5.842  20.241  22.766 -0.0411 -0.0803  0.3696
53807W        W96720   3.537  34.333  25.169 -0.1436 -0.2027  0.2441
53808W        W96721   1.667  27.193  23.108 -0.0686  0.1719  0.2240
53809W        W96722  28.910  32.519  19.657  0.1084  0.1425 -0.3030
53810W        W96723  22.737  32.783  16.351  0.0289 -0.0572  0.0594
53811W        W96724  11.932  22.270  26.806  0.0794  0.0116  0.0351
53812W        W96725  34.100  34.452  26.451  0.1773  0.0274  0.3881
53813W        W96726  27.495  17.735  16.950  0.1095 -0.2033  0.2858
53814W        W96727  28.866  30.752  21.849  0.4701  0.2049 -0.1777
53815W        W96728  34.414   1.713  23.671  0.2872  0.0579 -0.1130
53816W        W96729   0.167   1.897  18.172 -0.0709  0.2163 -0.2253
53817W        W96730  34.076  15.739  19.465 -0.0759 -0.1648  0.2846
53818W        W96731  34.172  27.377  24.868  0.2792  0.1956  0.1828
53819W        W96732  24.505  26.263  29.754 -0.2002  0.1606  0.2983
53820W        W96733  30.533  34.086  21.530  0.2024  0.0007  0.0112
53821W        W96734  23.228  24.407   3.474 -0.1332  0.0335 -0.3963
53822W        W96735  32.742  32.682  24.295  0.0032 -0.4109 -0.1632
53823W        W96736  31.259  22.473  14.273  0.1271  0.0970  0.2728
53824W        W96737  31.758  28.569  20.027 -0.2248  0.1821 -0.1144
53825W        W96738  29.829  18.894  20.398  0.2032 -0.2219  0.0253
53826W        W96739   0.744  19.636  18.727  0.2854 -0.0654 -0.2336
53827W        W96740   0.124  33.263  16.748  0.0312  0.1874  0.3315
53828W        W96741  33.752   5.281  20.992  0.0014 -0.0752 -0.0820
53829W        W96742  26.027   1.523  19.951  0.1216  0.0654 -0.3167
53830W        W96743  28.986  24.918  22.644  0.0630 -0.0605  0.2066
53831W        W96744   3.537   2.458  18.455 -0.0835  0.3517 -0.0139
53832W        W96745  28.088   0.385   1.125  0.1227 -0.2778  0.2368
53833W        W96746   0.653   6.985  25.160  0.2009 -0.0536 -0.2355
53834W        W96747  31.846   4.566  20.726  0.3086 -0.2237  0.3240
53835W        W96748  22.449  30.185  26.261 -0.1568  0.0448  0.0486
53836W        W96749   4.588  15.326  20.772  0.5629  0.0075 -0.1381
53837W        W96750   1.188  30.289  17.919 -0.2530 -0.2708  0.0145
53838W        W96751   2.628  26.639  14.620  0.2793 -0.0361 -0.3194
53839W        W96752  29.227  21.267  14.408  0.1947  0.1047 -0.2981
53840W        W96753   5.979  28.351  24.491  0.1096  0.3349  0.1798
53841W        W96754   5.097   2.720  19.625  0.2169  0.0136 -0.1920
53842W        W96755   9.860  32.949  16.691 -0.0371  0.1837  0.0245
53843W        W96756  32.087  32.537  21.721 -0.0325  0.0417 -0.0183
53844W        W96757  32.530  23.513  19.748  0.1351  0.1763 -0.3631
53845W        W96758  32.397  22.722  22.370 -0.0133 -0.0612 -0.3861
53846W        W96759   2.473  30.879  24.371 -0.1718 -0.0452  0.0630
53847W        W96760   6.803  27.706  16.444  0.0532  0.0066  0.1278
53848W        W96761  33.236  34.299  27.190  0.1123 -0.3765 -0.0036
53849W        W96762   1.220  29.479  14.950  0.1022 -0.0466 -0.1173
53850W        W96763   0.584   1.659  23.648 -0.0071  0.0826  0.1863
53851W        W96764   9.067   2.052   5.463  0.0657 -0.1272 -0.0435
53852W        W96765   3.098  32.823   3.182 -0.1622 -0.1062  0.0580
53853W        W96766  25.034   9.220   4.857  0.0271 -0.2913  0.2189
53854W        W96767   1.946  33.973  22.447 -0.1370  0.2015  0.0080
53855W        W96768  32.865   3.243  18.536 -0.0551  0.0709  0.2525
53856W        W96769  34.163  29.274  15.811  0.0802  0.2452  0.0785
53857W        W96770  27.188   0.824  19.768  0.2502  0.2577 -0.0083
53858W        W96771  27.643  31.646  22.620  0.1428  0.0918 -0.1932
53859W        W96772  27.205  32.874  16.141 -0.1820  0.0214  0.1903
53860W        W96773  30.325   0.966  21.631  0.5783  0.0149  0.2379
53861W        W96774   2.580   0.969  18.792  0.0656 -0.1321 -0.0926
53862W        W96775  26.416   4.593  17.314 -0.1032  0.2267 -0.1691
53863W        W96776  24.839   2.069  17.015 -0.0710 -0.2014  0.0126
53864W        W96777   3.174   2.378  21.536  0.0634 -0.3045  0.1971
53865W        W96778  26.481  26.874  14.982 -0.0588  0.2459  0.1123
53866W        W96779  27.992   2.617  28.603  0.2882  0.1305  0.2006
53867W        W96780  21.754   6.503  13.906 -0.0171  0.0045 -0.3426
53868W        W96781   1.539  33.286  17.382  0.2254  0.2272 -0.2112
53869W        W96782   3.210  20.190  13.842  0.1188 -0.0247  0.1141
53870W        W96783   0.763  31.826  19.775  0.1815  0.0910  0.1522
53871W        W96784   3.653  22.854  24.701  0.1525  0.0674 -0.1247
53872W        W96785  28.802  34.080  25.381  0.2487  0.1684 -0.0562
53873W        W96786  33.277   1.474  26.912 -0.1436 -0.3671 -0.1873
53874W        W96787   0.555  31.358  17.280  0.0386  0.5922  0.2670
53875W        W96788   0.752  27.343   1.965 -0.1068  0.2805 -0.0652
53876W        W96789   1.612  30.306   2.035  0.0914 -0.4829  0.1182
53877W        W96790  28.815  27.258  22.647  0.0899 -0.0943 -0.0422
53878W        W96791  32.474  26.766  14.266 -0.0416 -0.2229  0.2255
53879W        W96792  30.403  16.279  19.525  0.1074 -0.0988 -0.1254
53880W        W96793  20.124   2.805  25.868 -0.1944  0.0536 -0.0267
53881W        W96794  28.342   2.723  20.376 -0.0788  0.1704 -0.0582
53882W        W96795  31.533  33.303  23.432 -0.5015 -0.0765  0.1397
53883W        W96796  24.496  34.194   3.746 -0.1317 -0.2392 -0.1573
53884W        W96797   0.257  31.383  21.163 -0.1136  0.0451  0.1594
53885W        W96798  25.955   0.753  22.903  0.1944 -0.0654  0.0658
53886W        W96799   8.501   1.427  18.583  0.2646  0.5117  0.1120
53887W        W96800   6.078  20.573  20.635 -0.1886 -0.0145  0.1723
53888W        W96801  22.314  26.259  27.756 -0.4753 -0.2139  0.0075
53889W        W96802   0.849  28.525  19.076 -0.2211  0.2796  0.3043
53890W        W96803   5.692  23.308  24.137 -0.2209 -0.2065  0.3408
53891W        W96804  31.026  30.822  14.462  0.0678  0.0434 -0.1933
53892W        W96805  32.184  30.546  17.408 -0.0875  0.0146 -0.0415
53893W        W96806  31.862  24.512  13.467  0.3284 -0.1628  0.1078
53894W        W96807   2.336  18.572   4.797  0.1792  0.2662  0.3767
53895W        W96808  31.377  23.559  17.471 -0.0134 -0.2371 -0.1085
53896W        W96809   0.504  24.235  21.923 -0.0268 -0.3696 -0.0655
53897W        W96810  34.331   0.989   0.183 -0.0754  0.1316  0.2046
53898W        W96811   1.568  17.643  19.381 -0.1412  0.2364  0.2153
53899W        W96812  27.437  27.291  21.501  0.3913  0.1384  0.1821
53900W        W96813   5.722  16.539  17.238  0.1035 -0.6526 -0.1376
53901W        W96814   1.642   0.765  23.723  0.1240  0.4225  0.0372
53902W        W96815  24.997  34.116  27.368  0.0092  0.0462  0.0554
53903W        W96816  31.871  29.489  14.918 -0.0908  0.3596  0.0355
53904W        W96817   0.863  24.811   0.278 -0.0951 -0.2087 -0.3003
53905W        W96818  25.190  33.123  29.052 -0.2825  0.1584  0.1758
53906W        W96819   4.225  30.177   2.289  0.1426 -0.0058  0.0676
53907W        W96820  28.906   5.741  20.021  0.2354  0.2831  0.4894
53908W        W96821  31.908   0.708   0.332  0.0924  0.4866  0.0632
53909W        W96822  29.187  32.076  16.203  0.2661 -0.3141 -0.3088
53910W        W96823  27.570   4.589  17.007  0.0413  0.0396  0.0540
53911W        W96824   5.257  22.544  19.255 -0.0781 -0.0870 -0.0090
53912W        W96825  10.433  31.093  21.317 -0.1519 -0.0474 -0.0426
53913W        W96826  19.114  29.892  23.132 -0.1934 -0.1134  0.0239
53914W        W96827  33.605   1.289  25.390  0.1942 -0.0141 -0.1978
53915W        W96828  34.035  23.572  19.085  0.0107 -0.2312 -0.0507
53916W        W96829   6.739  33.607  20.599  0.0086  0.0811  0.0246
53917W        W96830  30.076   2.113  22.204  0.0072  0.1537 -0.2442
53918W        W96831  12.325  29.327  17.278 -0.0214  0.1877  0.0167
53919W        W96832  26.971  23.634  17.444 -0.2983 -0.0165  0.1716
53920W        W96833  31.758  34.399  28.552  0.0659  0.3333 -0.2297
53921W        W96834   3.589  29.837  18.222  0.1015  0.1743  0.1469
53922W        W96835  30.213  28.094  16.807  0.3529 -0.2726  0.0424
53923W        W96836  33.989  24.141  17.712  0.1656  0.0184 -0.0435
53924W        W96837   6.438  26.882  26.365 -0.2442 -0.3212 -0.1738
53925W        W96838  34.051  26.392  15.702 -0.0942 -0.1776 -0.1530
53926W        W96839  33.001   7.638   3.573 -0.2966  0.1798  0.0441
53927W        W96840   2.121  29.900  16.435  0.2240 -0.0764 -0.1883
53928W        W96841  21.501  23.705  21.428  0.4525  0.0799  0.1809
53929W        W96842  32.387  31.726  22.240  0.0594  0.2392 -0.0169
53930W        W96843   5.868   6.961  26.961 -0.0436  0.2463  0.2351
53931W        W96844  33.643  31.023  25.468  0.0896  0.3006 -0.1259
53932W        W96845   2.681  27.157  19.457  0.0630 -0.3020 -0.5189
53933W        W96846  32.644  10.271  15.411 -0.3516  0.1819  0.1508
53934W        W96847  32.868  19.004  15.806 -0.1298  0.1353  0.1724
53935W        W96848  25.713   1.688  17.739  0.0297  0.5596  0.0619
53936W        W96849   0.432   5.226  28.839  0.0570 -0.2124 -0.2101
53937W        W96850  32.993   9.873  17.714  0.1830 -0.1043  0.2454
53938W        W96851  31.497  28.955  20.956  0.0606 -0.1304 -0.0609
53939W        W96852  24.996  30.959  15.753  0.0094 -0.2101 -0.0714
53940W        W96853  17.092  32.141  23.646  0.0690  0.2708 -0.2318
53941W        W96854   6.475  31.366  20.838  0.1407 -0.0587  0.0708
53942W        W96855  21.425   4.300   1.337 -0.2485  0.5549  0.0650
53943W        W96856  27.530  31.531  20.822  0.0491 -0.2096 -0.1202
53944W        W96857  25.713  26.882  15.979 -0.3221 -0.1484  0.2375
53945W        W96858   4.810  31.400  27.831 -0.0944 -0.0967 -0.1095
53946W        W96859  13.173  32.489  17.718  0.0301 -0.1214  0.0494
53947W        W96860  32.740   4.087  16.242  0.1202 -0.0047 -0.0925
53948W        W96861  33.441  29.290  18.258  0.1561  0.4167  0.0739
53949W        W96862  16.802  21.104  16.098 -0.1206  0.1956 -0.0253
53950W        W96863  29.699   4.956   0.251 -0.1318 -0.0443 -0.0627
53951W        W96864  34.440   9.503  23.426 -0.3777 -0.1166  0.1958
53952W        W96865   5.124  26.359  15.729  0.2837  0.2637  0.1428
53953W        W96866  30.891   4.495   0.844  0.0546 -0.0452 -0.0036
53954W        W96867  19.946  26.225  18.936  0.2009 -0.3271  0.0391
53955W        W96868   3.067  34.289  17.149  0.0637 -0.1252 -0.1726
53956W        W96869   0.068  31.521  22.455 -0.0520  0.2192  0.0346
53957W        W96870  31.183   3.363   1.336 -0.1665  0.0808 -0.2216
53958W        W96871   2.534  21.256  17.898 -0.1855 -0.0054 -0.2182
53959W        W96872  29.811  29.772  20.171  0.3161 -0.0789 -0.1575
53960W        W96873   5.849  23.290  28.859  0.1418  0.0045  0.2424
53961W        W96874   1.886  29.247  16.596  0.2591  0.0090 -0.1032
53962W        W96875   1.871  19.843  29.631 -0.1335  0.1220  0.0148
53963W        W96876  28.157  25.140  21.644  0.1481  0.0904  0.0714
53964W        W96877   6.297   2.969  23.524 -0.0039  0.0674 -0.0611
53965W        W96878  30.154  20.881  17.734  0.2142  0.2048  0.1426
53966W        W96879   5.701  34.053   3.483 -0.0945  0.1171 -0.1036
53967W        W96880   0.180  19.167  18.103  0.1582 -0.0306 -0.0089
53968W        W96881  29.062   0.060  27.646 -0.0178  0.1431 -0.1164
53969W        W96882  26.030  13.301  19.223 -0.3067 -0.2600  0.0872
53970W        W96883  28.435  31.706  24.639  0.0775  0.2443  0.1224
53971W        W96884  28.030   5.903  21.740  0.1291  0.0564  0.2300
53972W        W96885  32.840  20.588   0.125  0.4039 -0.3294 -0.3073
53973W        W96886  29.328   0.781  21.614  0.2479 -0.0119 -0.2186
53974W        W96887   1.726  25.458  19.586  0.3111 -0.3318 -0.0236
53975W        W96888  24.572  29.441  21.719 -0.3682  0.5158  0.1757
53976W        W96889   1.407   0.485  22.362  0.2528  0.0043  0.1345
53977W        W96890  21.281  21.925   0.522  0.1365  0.1756 -0.1140
53978W        W96891   1.107  32.261   2.432 -0.2089  0.0549  0.0192
53979W        W96892   4.238  33.591  24.299 -0.0895 -0.3250  0.1724
53980W        W96893  33.673  30.307  23.445 -0.2207 -0.5284 -0.0301
53981W        W96894  31.364   6.550   9.524  0.1470 -0.1435  0.2908
53982W        W96895  31.431  19.977   6.440  0.0704 -0.0292 -0.0051
53983W        W96896  29.802  31.799   0.500  0.3017  0.0283  0.0633
53984W        W96897  28.388  32.824  20.839 -0.0363  0.1793 -0.2861
53985W        W96898   3.354  28.433   5.066 -0.0608 -0.1444 -0.0040
53986W        W96899  33.091  24.452   0.686  0.0738  0.0462  0.3025
53987W        W96900  26.268  34.471  27.083 -0.0842 -0.1214  0.0753
53988W        W96901  34.040  24.774  16.647  0.0332  0.3942  0.2836
53989W        W96902   1.426  18.117  28.241  0.0292  0.1930 -0.2656
53990W        W96903  32.399  29.117  23.377 -0.2039 -0.1432 -0.0577
53991W        W96904  30.295  25.506  24.473 -0.2129 -0.0865  0.0335
53992W        W96905  34.058  33.794  20.227 -0.1853 -0.0691 -0.0938
53993W        W96906   1.762  22.945  20.346 -0.0874  0.2701  0.0935
53994W        W96907   1.564   8.125  22.162 -0.1797  0.3017  0.2718
53995W        W96908   5.333  32.132  29.335 -0.1662 -0.1375 -0.1563
53996W        W96909   2.791  34.455  18.522 -0.0430 -0.0157  0.1259
53997W        W96910  19.271  28.109  26.686  0.0923  0.0736  0.2408
53998W        W96911  33.321   2.651  17.042  0.0544  0.0725 -0.4428
53999W        W96912   6.850   0.589   9.132  0.0026  0.1986 -0.3419
54000W        W96913   0.199  27.112  16.322 -0.0973 -0.3331 -0.2960
54001W        W96914   6.593   6.921   2.646 -0.0384 -0.2815  0.0818
54002W        W96915  23.945  27.193  24.614 -0.3024  0.1388 -0.0424
54003W        W96916   3.120   4.063  18.620 -0.1788  0.2405 -0.0057
54004W        W96917  28.345  18.066  13.853  0.0427  0.1383  0.2649
54005W        W96918   6.349   2.441  28.674 -0.0297  0.1101 -0.0287
54006W        W96919  22.738   2.609  27.503 -0.0459  0.0801  0.0368
54007W        W96920   2.991   7.605   1.751 -0.0730  0.1543  0.2470
54008W        W96921   2.560  33.514   4.237  0.0116  0.1030  0.0094
54009W        W96922   5.997  34.239  26.832  0.0381 -0.4139  0.0134
54010W        W96923   0.110  14.163  14.716 -0.1039 -0.0749  0.1183
54011W        W96924  16.511  34.217  25.165 -0.1185  0.0828 -0.2963
54012W        W96925  27.936  31.496  18.382 -0.4266  0.2768  0.0516
54013W        W96926  30.475  33.558  26.862 -0.0737  0.0223  0.3537
54014W        W96927  28.189  22.129  13.554  0.0951 -0.2922 -0.0591
54015W        W96928  29.981  19.496  19.233 -0.2187 -0.2558  0.2462
54016W        W96929  27.468  24.911   0.034  0.2687  0.1167 -0.1749
54017W        W96930   0.821  29.485   1.055 -0.2254 -0.1290  0.0130
54018W        W96931  32.746  24.578   1.542  0.1817 -0.0211  0.0765
54019W        W96932   4.659  32.117  18.250 -0.1571  0.1750  0.0616
54020W        W96933   2.351  24.723   6.000 -0.0326 -0.3991  0.2975
54021W        W96934  23.082  23.980  26.271  0.4007 -0.1767  0.1636
54022W        W96935  22.187  22.188  25.677 -0.0436 -0.0388  0.2631
54023W        W96936  24.485  33.963  27.096 -0.2956 -0.0893 -0.2871
54024W        W96937  20.892  26.288  20.220 -0.2476 -0.1919 -0.1330
54025W        W96938  29.292  23.052  22.561  0.0075  0.0394 -0.0315
54026W        W96939   0.894  25.656  28.638 -0.0896 -0.0560  0.1699
54027W        W96940  26.139  25.563  22.860  0.0893 -0.0136 -0.0924
54028W        W96941  30.149   7.218  28.982 -0.0956  0.0249 -0.1003
54029W        W96942  18.741  31.708  20.629 -0.1187  0.0950 -0.3534
54030W        W96943  29.991  34.076   1.270  0.0016  0.1242  0.3971
54031W        W96944   3.548   3.120  19.376  0.1787  0.0630 -0.0969
54032W        W96945  28.685  11.527  24.641  0.1057 -0.0581 -0.3236
54033W        W96946  28.891   8.300  27.310  0.1157 -0.1378 -0.1471
54034W        W96947  30.088  33.881   5.365 -0.3020  0.1378  0.1358
54035W        W96948   4.766  33.407  18.413  0.0504  0.1743 -0.2243
54036W        W96949  15.825  32.412  26.507  0.1672  0.0402 -0.3267
54037W        W96950  27.418  31.952  21.902 -0.2471 -0.0081 -0.0381
54038W        W96951   8.171  25.459  18.368  0.2096 -0.1757 -0.1447
54039W        W96952  33.589  23.608   2.151 -0.0639  0.2171 -0.1251
54040W        W96953  27.752  30.467  18.090  0.1185  0.0222 -0.0523
54041W        W96954  32.234  27.779  27.251 -0.1153 -0.4782 -0.1596
54042W        W96955   2.035   3.748  22.860  0.0409  0.0372 -0.2324
54043W        W96956  30.749  22.741  19.515 -0.1011 -0.0355  0.4405
54044W        W96957  23.825  29.726   6.920 -0.1432 -0.1699  0.2604
54045W        W96958  32.190   7.880  28.530  0.0794  0.2417  0.1248
54046W        W96959   9.605   3.779  23.751 -0.0802 -0.0295 -0.1896
54047W        W96960  27.984  25.127  17.686 -0.0729  0.1583  0.1808
54048W        W96961  24.465  29.427  22.757 -0.0946 -0.1678  0.0544
54049W        W96962   4.108  28.204  27.519 -0.0117 -0.2214 -0.1618
54050W        W96963  33.408  25.339  27.685  0.1697  0.1848  0.3064
54051W        W96964   2.385  23.065  22.520  0.1933 -0.1029 -0.1323
54052W        W96965  27.864  34.115   0.863  0.2996  0.2603  0.0805
54053W        W96966   7.312  31.082  27.705 -0.0740 -0.3122  0.0400
54054W        W96967  32.756  29.438  25.166  0.0354 -0.0619 -0.3070
54055W        W96968  28.232  32.576  27.113  0.1305  0.1569 -0.0336
54056W        W96969   0.434  25.010   4.852  0.3137 -0.4278  0.1695
54057W        W96970   8.955  27.868  21.931 -0.2405 -0.0335 -0.0306
54058W        W96971  32.867  25.135  20.940 -0.2433  0.5671 -0.1359
54059W        W96972  26.127   8.458  19.792  0.1785  0.1649  0.1116
54060W        W96973  13.802  21.407  17.778  0.1490  0.2283  0.0608
54061W        W96974   4.938  23.900  15.148  0.0856 -0.1933 -0.0686
54062W        W96975  32.970  11.427  29.198 -0.1178  0.0562  0.4432
54063W        W96976  27.446  17.047  23.418  0.1979 -0.1500 -0.0269
54064W        W96977  20.040  23.207  23.965  0.2487  0.1169  0.1198
54065W        W96978  31.974  17.431  28.672 -0.0573 -0.0438 -0.0190
54066W        W96979   6.759  10.134   5.225 -0.0676 -0.0075 -0.0810
54067W        W96980  31.345   7.252  23.020  0.0625  0.0790 -0.3062
54068W        W96981   4.298  30.360  17.934  0.0960 -0.0321  0.1653
54069W        W96982  32.516   4.293  22.304 -0.0876 -0.0940  0.0470
54070W        W96983   0.194  32.448  27.048 -0.3346  0.0931  0.1574
54071W        W96984  33.756   2.819  27.076 -0.1272 -0.1391 -0.0297
54072W        W96985   6.649   1.002  18.006 -0.1707 -0.1608 -0.0274
54073W        W96986  31.380   0.104  19.340 -0.0937 -0.1540 -0.0544
54074W        W96987   3.073  29.597  27.137 -0.0108  0.1503 -0.2617
54075W        W96988  27.537  27.359  22.404 -0.0197  0.2597 -0.0390
54076W        W96989  33.457  30.441  15.585  0.2490 -0.4248 -0.0166
54077W        W96990  24.639   8.514  26.689  0.0330 -0.1816 -0.1500
54078W        W96991   0.310  27.329  27.596  0.1610  0.0158 -0.3426
54079W        W96992   1.779  32.903  21.024  0.0412 -0.2972  0.0354
54080W        W96993  11.808  32.545  24.550 -0.0049  0.5153 -0.0915
54081W        W96994  25.594  33.469  29.661 -0.3315 -0.0806  0.1237
54082W        W96995  33.274   2.592  20.641  0.2666  0.2029  0.3088
54083W        W96996  10.666  31.383  18.533 -0.2224 -0.1801 -0.1584
54084W        W96997  31.406   2.137   4.441 -0.0136 -0.2708 -0.1298
54085W        W96998  29.974  33.188  20.477  0.0139 -0.0906  0.3684
54086W        W96999  27.133   4.500  23.699  0.1388  0.4270  0.1258
54087W        W97000   7.971  23.395  22.643 -0.3478  0.0262  0.3602
54088W        W97001  25.462  24.561  25.333  0.0904  0.0656  0.0932
54089W        W97002  32.159  30.189  24.527  0.0250 -0.5304  0.0547
54090W        W97003   4.978  26.018  26.710 -0.2041 -0.1830 -0.0657
54091W        W97004   1.805  12.300  28.997 -0.2126  0.2810  0.4505
54092W        W97005   4.042  31.595  29.060 -0.0769  0.1354  0.0703
54093W        W97006  32.603   0.994  16.613  0.1035 -0.2636 -0.1358
54094W        W97007   1.813  33.925  16.538  0.0136 -0.3003 -0.3055
54095W        W97008  31.417  23.199  17.826 -0.2960 -0.1676  0.1625
54096W        W97009   0.383  28.782   0.693  0.0095 -0.2545  0.0460
54097W        W97010   2.631  27.185  23.214  0.0632 -0.3165 -0.3355
54098W        W97011   0.857  33.697   2.938  0.2663  0.1479 -0.2310
54099W        W97012  28.244  34.109  16.651 -0.1532  0.0975  0.2528
54100W        W97013  30.932  22.720  23.797  0.2020 -0.2302 -0.6671
54101W        W97014   7.376  27.085  28.823 -0.1468  0.1371  0.3198
54102W        W97015   5.217  28.901  24.267 -0.2432 -0.1595 -0.4672
54103W        W97016   5.802  28.772  16.859 -0.0580 -0.1284  0.2656
54104W        W97017   7.924  32.132  21.765 -0.2431  0.2519 -0.1626
54105W        W97018  28.192   2.244   7.325 -0.0503  0.0037  0.2011
54106W        W97019   8.982  24.792  19.147 -0.3655  0.0894 -0.0014
54107W        W97020  30.844  29.508  16.949 -0.1123 -0.0821 -0.0295
54108W        W97021  31.157   0.706  17.862  0.2732 -0.1462  0.3303
54109W        W97022   1.256  23.551  21.627 -0.3683  0.0616 -0.2850
54110W        W97023  31.160  26.691  20.815 -0.1302  0.1969 -0.2022
54111W        W97024  27.522   0.373   7.691 -0.2107  0.0236 -0.0707
54112W        W97025  28.384  24.397   7.815  0.2786 -0.0163  0.2563
54113W        W97026  25.630   1.774   1.336  0.0038  0.0006  0.1196
54114W        W97027  34.036  12.771  25.854  0.0811 -0.1893 -0.0148
54115W        W97028  18.062  30.033  21.640  0.1877 -0.3712  0.1012
54116W        W97029  26.359  23.968  16.860 -0.0960 -0.2098 -0.1294
54117W        W97030   5.896   0.570  26.607  0.0639  0.0248  0.1613
54118W        W97031  28.745  18.976  16.643  0.0261  0.1822  0.1448
54119W        W97032  28.649  25.467  23.936 -0.0499  0.0619  0.0603
54120W        W97033  33.692  27.891   1.376  0.0441 -0.1409  0.2462
54121W        W97034  31.332  23.050  21.464 -0.1446  0.3058 -0.1324
54122W        W97035  21.220   3.028  22.226 -0.4727 -0.0552 -0.1431
54123W        W97036  29.892  31.929  28.787 -0.1757 -0.2412 -0.0997
54124W        W97037   7.478  28.239  29.437  0.2005 -0.0201 -0.0881
54125W        W97038   9.975   6.388  18.167  0.6087 -0.1120  0.4890
54126W        W97039   9.901  21.812  21.859 -0.2906  0.0649 -0.0697
54127W        W97040  28.108  30.398  25.059 -0.1960 -0.2892 -0.2250
54128W        W97041   6.962  26.450  15.537  0.0012 -0.0355 -0.0292
54129W        W97042  30.415  10.281  28.491  0.1071 -0.3260 -0.4278
54130W        W97043   2.756   2.902  29.650  0.2472  0.1563 -0.1392
54131W        W97044  31.653  31.458   8.606  0.2442  0.0812 -0.1020
54132W        W97045  29.681  10.635  19.916  0.1328 -0.0407  0.2377
54133W        W97046  27.824   1.195  27.640 -0.1225  0.2163 -0.1223
54134W        W97047  32.645  30.552  21.390  0.1141 -0.1046  0.1509
54135W        W97048   2.504   0.934  26.013 -0.0701 -0.1492  0.1478
54136W        W97049  28.421  30.886  25.732  0.0255 -0.1936  0.0220
54137W        W97050  32.158  11.043  29.193 -0.2973  0.1778  0.4115
54138W        W97051  33.872  25.110  15.418 -0.1505 -0.0784 -0.0310
54139W        W97052  33.329  33.573   3.601 -0.1294  0.1078 -0.1633
54140W        W97053   4.722  22.609  24.658 -0.0290  0.4155 -0.0407
54141W        W97054   7.030  30.763  25.016  0.4280 -0.2084 -0.0569
54142W        W97055   2.486  30.701   4.469  0.2859 -0.1579  0.0013
54143W        W97056   2.153  30.613  20.190 -0.2484  0.0492 -0.1211
54144W        W97057  27.029   3.453  22.798  0.1006  0.0869  0.1085
54145W        W97058  34.292   6.179   1.261  0.1581  0.1489 -0.1230
54146W        W97059  25.874   1.812  21.457 -0.0109  0.0834 -0.2525
54147W        W97060  29.834  11.151  28.304  0.1476 -0.0697 -0.2004
54148W        W97061  20.636  21.915  28.862 -0.1848 -0.1770 -0.2395
54149W        W97062   0.746  19.086  16.928 -0.1528 -0.1202 -0.1554
54150W        W97063  33.246  28.079  26.429 -0.2000 -0.0108 -0.2164
54151W        W97064   0.533  14.009   2.497  0.1227  0.0240  0.1907
54152W        W97065  33.495  27.594   0.840  0.1704  0.1983 -0.0732
54153W        W97066   2.815  27.239  26.764 -0.0542 -0.4250 -0.2712
54154W        W97067   5.172  34.459  28.050  0.3559 -0.1251 -0.1836
54155W        W97068   5.001  25.982  15.976  0.1590  0.2052 -0.0503
54156W        W97069  31.127  27.836  28.802  0.1520  0.2247  0.1049
54157W        W97070   0.561   3.077   1.946 -0.0704 -0.2714  0.1330
54158W        W97071  34.424   2.254  26.042  0.1353 -0.0620  0.0582
54159W        W97072  22.615  26.337  19.890  0.2070 -0.0729 -0.1422
54160W        W97073  34.044   2.121  25.301 -0.1204  0.4231 -0.1949
54161W        W97074  31.623  27.359  25.032 -0.2399 -0.2721  0.1055
54162W        W97075  21.250   2.524  15.134 -0.0397 -0.1995 -0.1256
54163W        W97076   6.632  31.107  25.005  0.1097 -0.3271  0.0029
54164W        W97077   7.160  16.376  23.416 -0.3701 -0.2290 -0.0344
54165W        W97078  11.637  33.901  21.069  0.2977  0.0980  0.0421
54166W        W97079  33.126  26.311  17.230  0.0674 -0.2830  0.2337
54167W        W97080  32.137   0.952   2.409 -0.0527 -0.0278  0.1865
54168W        W97081  33.118  30.312  19.257  0.1566 -0.0717 -0.2359
54169W        W97082  26.984  26.141  13.657  0.1459  0.2975 -0.0460
54170W        W97083   8.043  33.205  23.866  0.1447 -0.1385 -0.0819
54171W        W97084  27.347  11.342  14.219 -0.1336 -0.0579  0.0342
54172W        W97085  22.439   3.300   5.527 -0.0477 -0.1929  0.1855
54173W        W97086   1.427  31.918  23.345  0.2356  0.2392 -0.2074
54174W        W97087  23.489   2.334  27.942 -0.0638 -0.2474 -0.1196
54175W        W97088   4.886  20.265   5.905 -0.4035 -0.3114  0.1941
54176W        W97089   3.347  24.048  22.764  0.1442  0.5433  0.0789
54177W        W97090  28.799  23.807  15.605 -0.1137  0.1291 -0.1655
54178W        W97091  28.870  27.808  24.306  0.1202 -0.1470 -0.1821
54179W        W97092   3.600  13.024  18.514  0.1991  0.1573 -0.1780
54180W        W97093  12.284   0.252  29.756  0.0986  0.1273  0.0551
54181W        W97094  29.343  21.640  19.938  0.0951 -0.1160 -0.0983
54182W        W97095   2.960  32.084  17.970  0.1069 -0.1569 -0.0650
54183W        W97096  33.772  24.955  19.606  0.2473 -0.0195  0.2240
54184W        W97097  34.406  24.513   0.407 -0.0683 -0.0565  0.2839
54185W        W97098   6.274  22.616  22.719 -0.0429  0.2272 -0.0916
54186W        W97099  29.711  33.793  28.112  0.2677  0.1844  0.0027
54187W        W97100   3.701   0.587   0.511 -0.3837  0.2242 -0.3235
54188W        W97101  30.309   3.899  22.566  0.2265 -0.0796 -0.0339
54189W        W97102   0.810  24.713   0.773  0.0823 -0.1409  0.0638
54190W        W97103   0.278  32.000  22.237  0.0558 -0.2023 -0.2718
54191W        W97104  30.185   1.765   1.729  0.0397 -0.0687  0.1005
54192W        W97105   2.846   3.712   2.349 -0.1230 -0.0734 -0.0087
54193W        W97106   2.773   2.290   6.568  0.2711  0.0380  0.1125
54194W        W97107  24.892  27.972  25.888  0.2859  0.1813  0.1192
54195W        W97108  25.732  32.127  28.501  0.0036 -0.0072  0.2263
54196W        W97109  29.450  29.734  20.805  0.1962  0.0692 -0.0845
54197W        W97110   3.026  33.265  25.517  0.2730 -0.2059  0.0129
54198W        W97111  33.281  20.112  19.090  0.2537  0.0335  0.0102
54199W        W97112  31.349  33.369   5.335  0.0016  0.1489  0.1650
54200W        W97113  34.066   6.245  18.849 -0.2749 -0.1998 -0.0669
54201W        W97114   2.209  24.773  26.151  0.4818 -0.1527  0.0177
54202W        W97115   2.078  31.493  26.213  0.1554 -0.0460  0.4256
54203W        W97116  26.708  26.726  18.280  0.2131 -0.2169  0.1299
54204W        W97117   4.718  26.380  29.034  0.2483  0.0209 -0.0879
54205W        W97118   0.156  27.049  27.167  0.3019 -0.1048 -0.1396
54206W        W97119  25.735  23.760  29.374  0.0306  0.1944  0.2563
54207W        W97120  29.905  26.961   6.331 -0.2907 -0.2509 -0.0574
54208W        W97121  23.949  29.874  19.285  0.1921 -0.0046 -0.0107
54209W        W97122   1.158  12.273   1.021 -0.0716  0.1424 -0.1656
54210W        W97123  28.026  30.894  27.489  0.2319  0.0536 -0.0491
54211W        W97124  23.815   1.636   1.946  0.1038 -0.1451 -0.1697
54212W        W97125   3.749  24.690  25.505 -0.2222  0.0793 -0.2932
54213W        W97126  30.915  23.824  13.852  0.2181 -0.2234  0.3939
54214W        W97127  25.985  27.374  20.782 -0.2200  0.1470  0.0100
54215W        W97128   3.501   4.839  27.254 -0.1031  0.0007 -0.1470
54216W        W97129  33.861  31.978  28.914  0.2519 -0.0780 -0.0765
54217W        W97130  23.357  26.982  29.329 -0.2353  0.0181 -0.0059
54218W        W97131   1.012  33.636  25.508  0.2921 -0.0943 -0.2578
54219W        W97132  22.688   4.800   1.570 -0.1202  0.1887 -0.0022
54220W        W97133  25.795   0.680  29.239 -0.1131  0.1728 -0.0571
54221W        W97134   7.782   0.336  23.899 -0.1464 -0.1192 -0.1461
54222W        W97135  30.712  27.029   1.154 -0.2260 -0.0707 -0.2172
54223W        W97136   6.338   5.829  22.239 -0.1469  0.0693  0.2992
54224W        W97137  31.327  13.282  26.634 -0.0419 -0.3846 -0.0861
54225W        W97138   2.059   5.518   2.403 -0.0207  0.1264 -0.0953
54226W        W97139   3.040  22.069  28.549 -0.1350  0.1249  0.0493
54227W        W97140  31.905  22.470   2.017  0.0598  0.0799  0.0858
54228W        W97141   1.849  32.011  26.286  0.0318  0.2792 -0.0185
54229W        W97142   7.423  23.041  24.604  0.0882 -0.1202 -0.2115
54230W        W97143  28.770   8.069   0.799 -0.1746 -0.0714 -0.0141
54231W        W97144  31.540   0.072  16.077 -0.1536  0.0804  0.3300
54232W        W97145   9.308  32.378   0.610 -0.3325  0.0786  0.2496
54233W        W97146  27.472  24.123  28.543 -0.0187  0.1457  0.2971
54234W        W97147  29.026  28.107  18.868  0.0523  0.3078 -0.0336
54235W        W97148  30.303  21.665   0.973  0.1890 -0.1247 -0.3063
54236W        W97149   9.151   3.646  10.889  0.2571 -0.2967  0.0287
54237W        W97150   3.849   5.157  29.694  0.5287  0.1539  0.2082
54238W        W97151  25.916  24.240  17.575 -0.1863  0.0099  0.2774
54239W        W97152   0.438  19.375  24.443 -0.3121 -0.1362 -0.2435
54240W        W97153  32.827  26.701  17.225 -0.0816 -0.1009 -0.0200
54241W        W97154  32.209  30.376   4.597 -0.3549  0.0738  0.3685
54242W        W97155   2.497  32.747  24.421 -0.2611  0.1820 -0.2200
54243W        W97156   5.032  28.707   4.678  0.1289 -0.1584  0.0105
54244W        W97157  27.609   0.565  27.720  0.1420  0.1078 -0.1029
54245W        W97158  27.017  27.676   0.161  0.1922 -0.2000  0.0237
54246W        W97159   9.016  33.836  25.572 -0.2853  0.1257  0.1500
54247W        W97160   0.799  21.955  29.741  0.1459 -0.1483  0.0284
54248W        W97161   4.300  24.291  22.992 -0.2560  0.6481  0.0078
54249W        W97162  34.168  21.171  20.281  0.0549 -0.0850 -0.1203
54250W        W97163  29.738  31.841   4.158  0.0674  0.2016  0.1914
54251W        W97164   3.841  29.790   1.367 -0.1324 -0.3540 -0.0016
54252W        W97165  28.388   0.952  21.899  0.1503  0.0003 -0.0750
54253W        W97166  27.008  22.285   1.806 -0.1199  0.3691  0.2093
54254W        W97167  31.480  32.610  28.445 -0.0858  0.2821  0.2695
54255W        W97168  33.638  28.921  15.637  0.0155  0.2447 -0.3333
54256W        W97169   5.738  26.390   8.305 -0.0422  0.1598  0.1316
54257W        W97170  33.725  32.616  24.820 -0.0450  0.1585 -0.5482
54258W        W97171  22.638  20.835  16.831  0.1387  0.1232  0.4938
54259W        W97172  27.896  31.990   9.853 -0.2670 -0.0499 -0.0352
54260W        W97173   8.101  29.046  26.115 -0.1208 -0.0096  0.2531
54261W        W97174  23.791  24.912  17.330 -0.0514  0.3090 -0.1856
54262W        W97175   3.990  34.227   7.275  0.0018  0.0710  0.2458
54263W        W97176   2.180   0.162  26.828 -0.0751  0.0894 -0.2004
54264W        W97177  19.053  28.028   4.560 -0.4471 -0.0087 -0.0546
54265W        W97178  31.213  32.543   5.885 -0.1908  0.0842  0.2018
54266W        W97179   7.347   3.332   1.216  0.1655 -0.1297  0.3817
54267W        W97180   5.967  28.803  24.059 -0.2571  0.1001 -0.3577
54268W        W97181  27.500  25.028   1.226 -0.2919 -0.0930  0.0663
54269W        W97182  22.750  26.718  28.952  0.0926  0.0437 -0.0980
54270W        W97183  29.360  14.464   6.360  0.4667  0.2210  0.0929
54271W        W97184   5.198  28.918   1.010 -0.2506  0.2267  0.0827
54272W        W97185  34.377   1.959  27.108 -0.1587 -0.2021 -0.0329
54273W        W97186   2.370   1.839   2.114 -0.1424  0.0970 -0.2903
54274W        W97187  24.591  31.505  29.425 -0.1060  0.0668  0.1604
54275W        W97188  33.726  26.595   3.913  0.2054  0.1029 -0.3804
54276W        W97189   0.441  26.067   1.899 -0.0988  0.1870 -0.0398
54277W        W97190  32.839  29.273  25.666 -0.0801 -0.1874 -0.3603
54278W        W97191   5.550   2.725  29.178  0.2281 -0.1348 -0.2334
54279W        W97192   3.025  32.291   5.494  0.0908  0.3733  0.0271
54280W        W97193   5.694  22.836   8.278 -0.0870  0.0705 -0.1713
54281W        W97194  28.467  28.121  26.106 -0.0412 -0.3102  0.0676
54282W        W97195  28.557  31.168   3.998  0.2143  0.1025 -0.0597
54283W        W97196   7.205  31.799  10.518 -0.2895  0.0178 -0.0646
54284W        W97197  11.415  32.030  25.819  0.2149 -0.1372  0.0546
54285W        W97198  27.849   7.435  21.786 -0.2330  0.1169 -0.1803
54286W        W97199   3.431  31.971   0.805 -0.1520  0.0082  0.1304
54287W        W97200  32.131  28.851  27.417 -0.2505 -0.1610 -0.2077
54288W        W97201  12.649  29.283  26.271 -0.0490  0.0199 -0.0620
54289W        W97202  26.876  24.739  28.646  0.2053 -0.1918  0.2703
54290W        W97203   6.311  24.885  22.284  0.0919  0.0231 -0.3900
54291W        W97204   0.181   6.807  16.907  0.0565 -0.4108 -0.4125
54292W        W97205  31.103  30.929   0.151  0.1158  0.1585 -0.2747
54293W        W97206   1.002  34.456  25.323  0.2688  0.0331 -0.0017
54294W        W97207   0.147  33.045   6.280 -0.0002  0.0350  0.0176
54295W        W97208   8.517  24.382  27.526 -0.1386  0.2537  0.1363
54296W        W97209  29.765   2.363  28.956  0.1285 -0.2091 -0.1690
54297W        W97210  27.504  26.018   1.005  0.3380  0.0614 -0.0921
54298W        W97211  26.211   9.000   0.305  0.1598  0.1711 -0.0448
54299W        W97212   3.294  26.199   3.806  0.1315  0.1135  0.0450
54300W        W97213  33.592  21.193  17.256  0.2755  0.0988  0.0386
54301W        W97214  28.613   4.425   5.697 -0.4763  0.0599 -0.0338
54302W        W97215  26.287   4.518   6.903  0.0857 -0.1867  0.1420
54303W        W97216   4.846  23.783  15.648  0.1636 -0.0434 -0.0905
54304W        W97217   1.823  27.661  26.981  0.3376  0.1334 -0.1089
54305W        W97218  32.799  21.783  25.522 -0.0424 -0.1189 -0.0193
54306W        W97219  31.215  33.710  27.629 -0.3166 -0.2831 -0.0419
54307W        W97220  33.156  32.664  26.791  0.3139  0.1321 -0.0796
54308W        W97221   2.010  24.575   1.323  0.0709  0.0939 -0.1203
54309W        W97222   9.024  26.886  26.034  0.0913  0.1130  0.3138
54310W        W97223   2.964  32.579  21.513  0.1908 -0.2326 -0.1631
54311W        W97224  33.662   2.602   5.072  0.2617  0.0317 -0.2551
54312W        W97225   4.089  20.272  28.106  0.2350  0.1869 -0.0220
54313W        W97226  34.192  33.930   7.605  0.2003  0.0758 -0.0743
54314W        W97227  34.196  29.054  24.590 -0.0865  0.1454 -0.4334
54315W        W97228  32.192  30.162  16.885 -0.1451 -0.1176  0.0320
54316W        W97229   0.704  32.673  25.383  0.1288  0.0461 -0.1725
54317W        W97230  29.993  33.464  21.567 -0.1625  0.0057 -0.0616
54318W        W97231  25.931   0.958   2.760  0.0945  0.2833  0.1349
54319W        W97232  24.856  33.700  27.651  0.1008  0.0607 -0.3630
54320W        W97233  31.553  24.817   0.119  0.3559 -0.3283 -0.0882
54321W        W97234  11.694  19.591   7.725  0.1122 -0.2858 -0.1965
54322W        W97235  25.878  13.690   5.549 -0.1274 -0.1901  0.0347
54323W        W97236  31.593   9.043  17.481 -0.0636 -0.0530 -0.0931
54324W        W97237   5.847  33.703   8.486 -0.0740 -0.2043  0.0948
54325W        W97238   9.052  33.673  21.902  0.0462  0.2662  0.1641
54326W        W97239  30.482   2.535   6.616 -0.1331 -0.2657 -0.0534
54327W        W97240  11.329  30.235  25.118 -0.2165 -0.2269  0.0905
54328W        W97241   0.856  24.082  19.728 -0.4490 -0.0208 -0.2244
54329W        W97242   0.675  29.350  26.216 -0.1147 -0.0853  0.0752
54330W        W97243  28.731  24.968  25.954  0.1718  0.3517  0.1278
54331W        W97244   5.958  17.929  27.857  0.0428 -0.1816  0.0752
54332W        W97245   6.914  28.768   2.190  0.1837 -0.3771  0.2150
54333W        W97246  29.006   5.270   6.698 -0.1276 -0.1381  0.1334
54334W        W97247  23.002  23.168  22.950  0.4248  0.0920  0.3070
54335W        W97248  10.764  32.465  17.437  0.0487  0.4499 -0.1265
54336W        W97249   3.617  24.250   1.186 -0.0435 -0.2039  0.3205
54337W        W97250  29.267  26.217  25.967 -0.0019  0.2082 -0.2198
54338W        W97251   0.661  25.816   4.813 -0.2207 -0.0954  0.0024
54339W        W97252  29.115  24.660  28.082 -0.2649  0.0460 -0.2513
54340W        W97253  32.719  21.914   8.356 -0.0120  0.2781 -0.1881
54341W        W97254  14.936   0.000   0.336 -0.0478 -0.2507 -0.0200
54342W        W97255   0.494  16.592  23.128  0.0970 -0.2191 -0.0822
54343W        W97256   9.357   0.167  27.608 -0.1468  0.1396 -0.0596
54344W        W97257   3.449  31.981  21.738  0.0266 -0.1553  0.0588
54345W        W97258  33.756  28.993   2.896 -0.1748 -0.0466  0.1621
54346W        W97259   0.075  26.345  22.711 -0.0825 -0.2511  0.0940
54347W        W97260  33.782  21.865  20.290 -0.3685  0.0871 -0.0965
54348W        W97261  15.697  20.329   3.493 -0.0516 -0.1987 -0.0245
54349W        W97262  22.043   1.696   0.396  0.3156 -0.2327  0.2069
54350W        W97263  24.899  24.696  28.043  0.2357 -0.0215 -0.2071
54351W        W97264   1.390   3.360   2.471 -0.2111 -0.2808  0.0325
54352W        W97265  12.895   3.022   4.127 -0.1119 -0.0660 -0.1400
54353W        W97266   6.327  22.741  23.996 -0.1265 -0.2105 -0.1601
54354W        W97267   0.334   2.701   8.577 -0.0696  0.2236  0.1722
54355W        W97268  26.798  29.186  23.196 -0.0931  0.1112  0.1284
54356W        W97269  25.832   0.657  24.064 -0.3013 -0.0352  0.0111
54357W        W97270  31.068  31.505  19.539  0.0767 -0.2411  0.2418
54358W        W97271   0.050  34.414  27.798 -0.3453  0.1084 -0.3706
54359W        W97272  17.175  23.614  29.117  0.2491 -0.0214  0.0687
54360W        W97273   5.192  26.087  22.122 -0.1980 -0.2101  0.1107
54361W        W97274  12.198  23.065  27.946  0.1902  0.2194  0.0229
54362W        W97275  33.967   3.719  25.401 -0.0222 -0.0582  0.1631
54363W        W97276   2.577  24.730   1.204  0.0740  0.0458  0.0249
54364W        W97277   2.563  34.351  25.121  0.1608  0.0351 -0.0710
54365W        W97278   4.905   3.376   1.050 -0.2986  0.0471  0.0994
54366W        W97279  25.430   3.905   1.177 -0.3530  0.1513 -0.0315
54367W        W97280   3.163  33.399   1.963 -0.0955  0.0597  0.2343
54368W        W97281  29.337  28.368  23.337  0.3570 -0.0866 -0.0530
54369W        W97282  19.389   1.876  28.353 -0.2325  0.0620 -0.4081
54370W        W97283  32.135   1.819  27.024  0.0281 -0.0246 -0.0896
54371W        W97284   3.348  25.558  29.565  0.0791 -0.3227  0.0054
54372W        W97285   4.208  28.891  29.316 -0.0326 -0.2501  0.1061
54373W        W97286  33.164  29.110  29.423 -0.0771  0.0401  0.0650
54374W        W97287   2.151  31.656  22.087  0.0491 -0.1297 -0.0416
54375W        W97288  30.725  30.450  10.002  0.1464 -0.0637 -0.1631
54376W        W97289   2.619  28.548  27.671  0.1624 -0.1303  0.3648
54377W        W97290   9.961  31.350  24.323  0.1433  0.1577 -0.0699
54378W        W97291  31.077  31.050   4.961  0.0231 -0.1694  0.1520
54379W        W97292  27.189   5.304  20.226 -0.1677  0.1269  0.0032
54380W        W97293  33.821  23.825  20.727  0.1134  0.1643  0.2339
54381W        W97294  18.944  34.218  27.350  0.3172  0.0466 -0.2831
54382W        W97295  31.682   5.798  26.441 -0.0725 -0.1639 -0.1018
54383W        W97296  27.068   5.739  26.351 -0.0458  0.1139 -0.0417
54384W        W97297   0.146   8.937   0.653 -0.1343  0.1211 -0.0233
54385W        W97298  33.983  27.707   1.715  0.0538  0.3117 -0.1783
54386W        W97299  20.773  21.783  21.176  0.0847  0.1143  0.5000
54387W        W97300  24.439   2.748  21.348 -0.0396  0.2154  0.2534
54388W        W97301   6.251  24.643  17.930 -0.0564  0.1434 -0.0262
54389W        W97302  12.165  22.196  20.839 -0.3841  0.3716  0.2149
54390W        W97303   4.620  31.202   0.410 -0.0200 -0.0350 -0.0561
54391W        W97304  31.045  23.680   8.137 -0.4077 -0.0511 -0.0733
54392W        W97305   6.205   1.413  22.642 -0.2730  0.1318  0.1158
54393W        W97306  27.529  30.196  21.479  0.5626 -0.1636 -0.0636
54394W        W97307  27.076  31.848   2.780 -0.2775  0.1354  0.3237
54395W        W97308   3.967  29.451  28.349  0.1264  0.3837 -0.1344
54396W        W97309   4.306  34.214   1.228  0.5209 -0.2823 -0.0028
54397W        W97310  15.036  31.534  18.934 -0.0888  0.2445  0.0806
54398W        W97311  27.185  30.489  15.347  0.0164 -0.0814  0.3605
54399W        W97312  10.897   6.860   3.154  0.0155  0.2451 -0.0229
54400W        W97313  33.635  26.508   3.285 -0.0410 -0.0267  0.0258
54401W        W97314  27.725   2.875   4.069 -0.0553  0.0040  0.0353
54402W        W97315  29.891  25.403  20.586  0.1676  0.0918 -0.2070
54403W        W97316   4.613  29.676  27.707  0.1511  0.0022  0.0834
54404W        W97317   5.642  23.356  25.872  0.1673 -0.2451 -0.0934
54405W        W97318   7.794   0.975  29.301 -0.0317  0.2481  0.0360
54406W        W97319  12.871  26.657   2.957  0.1438 -0.2858 -0.3370
54407W        W97320   7.032  25.249  25.697  0.0951 -0.2598  0.1118
54408W        W97321  27.654  32.069   2.126  0.2796  0.3175  0.3002
54409W        W97322  31.845   3.683  24.076 -0.2505  0.0960 -0.0087
54410W        W97323  12.572  29.519  22.828 -0.0337 -0.0909 -0.2036
54411W        W97324  31.273   1.317   8.508  0.0261  0.0022  0.1574
54412W        W97325  33.862  29.374  24.343  0.1301 -0.0149  0.1533
54413W        W97326  12.658  29.657  25.069 -0.0882 -0.2410  0.0937
54414W        W97327  30.275   8.369  23.201 -0.3276  0.3669 -0.1034
54415W        W97328   8.810  22.787   2.324  0.0978  0.1092 -0.0511
54416W        W97329   0.578  25.627  21.303  0.2553  0.0321  0.0026
54417W        W97330  31.371  27.747  22.245 -0.1614 -0.4448 -0.2633
54418W        W97331   0.475  30.308  29.487  0.1421 -0.0667 -0.1413
54419W        W97332  29.170  30.333   4.973 -0.1097 -0.0395  0.1701
54420W        W97333   4.629  33.336  27.615  0.1702  0.0835 -0.0266
54421W        W97334   9.226   2.650  28.574  0.0674 -0.0159  0.2820
54422W        W97335   8.894  30.741  19.456 -0.1274 -0.0546  0.5263
54423W        W97336  32.356  21.958  28.212  0.2137  0.1077 -0.1242
54424W        W97337   4.657  29.982  22.411  0.2835 -0.0783  0.1683
54425W        W97338  32.383  23.975  26.035 -0.0533  0.0858 -0.0775
54426W        W97339   1.288  30.215   1.297 -0.3277  0.2956 -0.2037
54427W        W97340   4.221   5.065  11.618 -0.0898  0.1987  0.1054
54428W        W97341  27.933  32.658   8.237  0.3591  0.1737 -0.0293
54429W        W97342  14.713  29.727   4.755 -0.0041 -0.0158 -0.2290
54430W        W97343  26.308  19.312  25.316  0.2342  0.2380 -0.0265
54431W        W97344   1.177   3.973  27.266  0.0837  0.2808  0.0638
54432W        W97345  24.977  10.888  28.235 -0.1204 -0.2443 -0.1960
54433W        W97346  27.727  21.782  25.688  0.4241 -0.0401 -0.2382
54434W        W97347  33.268  26.368  24.927 -0.0811  0.1901 -0.0616
54435W        W97348   3.599  18.940   2.388  0.1805 -0.2141 -0.0351
54436W        W97349   1.100   1.830  27.867 -0.3629 -0.0839 -0.0816
54437W        W97350  27.471  11.792  29.609 -0.3992 -0.1895  0.1029
54438W        W97351   0.205   3.128   6.272  0.2412 -0.2259  0.1239
54439W        W97352  28.879   2.020  29.125 -0.3039 -0.2454  0.0010
54440W        W97353  22.850  33.995   2.133  0.3290 -0.0629 -0.3220
54441W        W97354   4.220   6.630  27.734 -0.2244  0.1964 -0.2191
54442W        W97355   0.152   8.397  24.966 -0.1044  0.0879 -0.0656
54443W        W97356  32.536   1.857  26.653  0.3317 -0.0268  0.1116
54444W        W97357   5.770  33.348   5.330  0.1729  0.0606  0.1127
54445W        W97358   9.461  32.378  28.893  0.2850  0.2039  0.1335
54446W        W97359   6.926  31.759   8.827 -0.3065 -0.3511  0.1210
54447W        W97360  31.573  32.522  26.061  0.1437  0.0577  0.1884
54448W        W97361   5.573   4.168   5.186 -0.0846 -0.0671  0.0945
54449W        W97362   0.032  30.133  29.376  0.0693 -0.0776 -0.0121
54450W        W97363  32.716  31.437  27.892  0.1661 -0.0645  0.1346
54451W        W97364  31.972   3.437   1.703  0.1871 -0.2433  0.0534
54452W        W97365  32.308   7.558   6.668 -0.1869  0.2834  0.0419
54453W        W97366   3.793  34.214   1.417  0.0680 -0.0935  0.1579
54454W        W97367  30.931  29.849  17.873  0.1616  0.0032 -0.4517
54455W        W97368  33.167  27.271  22.563 -0.1328  0.0847  0.0828
54456W        W97369   6.602  27.135   2.251 -0.0394 -0.2031 -0.1436
54457W        W97370   3.670   1.451  21.274  0.0378  0.1584  0.0028
54458W        W97371   8.488   2.046   3.550  0.2646  0.1816  0.0563
54459W        W97372  29.732  23.971   1.940 -0.1749  0.0965 -0.1201
54460W        W97373  15.942   0.074  29.464 -0.1263  0.0724  0.0458
54461W        W97374  34.008  28.419   0.123  0.2755 -0.2420  0.1129
54462W        W97375  28.694   1.750  28.147  0.1386  0.1685 -0.2289
54463W        W97376   5.003  26.145   0.250  0.2606 -0.1918 -0.1014
54464W        W97377  31.920  34.434  23.544 -0.0778 -0.2424  0.5068
54465W        W97378  30.399  22.354  29.543  0.0570  0.1237 -0.2367
54466W        W97379  32.818   3.697   2.206 -0.1869 -0.0647 -0.1218
54467W        W97380  18.475  29.051  26.556  0.0040  0.2544 -0.0659
54468W        W97381  21.174  27.157  22.867 -0.0276  0.0948 -0.0888
54469W        W97382  29.539  29.889  14.806  0.1802 -0.0466  0.0175
54470W        W97383   0.020   4.607  16.896 -0.0327  0.0620 -0.3280
54471W        W97384   0.998   3.308  18.652  0.0751  0.1729 -0.1954
54472W        W97385   2.560  34.124  17.227  0.0122  0.0098  0.0859
54473W        W97386  31.070   4.483  24.319 -0.1452  0.1835 -0.0857
54474W        W97387  32.488   4.478  18.859 -0.1234 -0.1029 -0.1757
54475W        W97388  24.058  34.240  20.663 -0.0304  0.0045  0.1849
54476W        W97389   1.832  31.905  18.457 -0.2125  0.1958  0.0327
54477W        W97390  26.551  28.784  23.065 -0.2847  0.1438  0.1198
54478W        W97391  34.196  31.732  17.324 -0.1075 -0.2373  0.1620
54479W        W97392  29.726  30.310  24.669 -0.0072 -0.0099 -0.0278
54480W        W97393  33.509  22.855  28.000 -0.2527  0.1293 -0.3655
54481W        W97394  31.594  32.032  18.327  0.2147 -0.0146  0.1481
54482W        W97395   3.867  27.701  21.326 -0.0186  0.1130 -0.2971
54483W        W97396  30.858  34.430  23.638 -0.0493 -0.0380  0.0060
54484W        W97397  29.852  18.871  22.450  0.1317  0.1969  0.1291
54485W        W97398   3.980  32.541  17.611  0.0518  0.0113  0.2303
54486W        W97399   4.957  31.764  16.675  0.0899 -0.1369 -0.1043
54487W        W97400  18.173  34.374  21.744 -0.1183 -0.0099  0.2312
54488W        W97401  33.686   2.580  22.705  0.0869 -0.1078 -0.0141
54489W        W97402  32.119   2.104  17.995 -0.2874  0.0718 -0.2100
54490W        W97403  26.912  29.639  27.501  0.1345 -0.1809 -0.0404
54491W        W97404   3.265   9.413  26.559 -0.4054 -0.0458 -0.0022
54492W        W97405  28.080  33.270  18.162  0.1122 -0.3541 -0.0468
54493W        W97406  27.264   3.595  18.034 -0.0568 -0.0135  0.1202
54494W        W97407  32.835  31.943  24.069  0.1841  0.0155 -0.0094
54495W        W97408   0.482   2.914  26.665 -0.4542  0.0513  0.0554
54496W        W97409   1.601   2.748  19.262  0.1288 -0.0087 -0.2114
54497W        W97410   5.054  25.062  17.122  0.0607  0.3649 -0.1950
54498W        W97411  34.288  22.453  14.952 -0.0875 -0.0110 -0.0449
54499W        W97412  32.414   3.805  20.778  0.3888  0.0821 -0.3276
54500W        W97413  10.177   1.652  19.267 -0.5644 -0.0742 -0.1131
54501W        W97414   3.276  30.365  24.011 -0.0457  0.0168  0.0057
54502W        W97415   6.197  22.335  14.044 -0.0735 -0.0279 -0.1582
54503W        W97416  32.625  32.004  17.054 -0.2524 -0.2253 -0.2692
54504W        W97417  32.126   7.507  25.397 -0.0029  0.0915  0.0112
54505W        W97418  32.656   0.978  18.386  0.1909 -0.0626  0.0744
54506W        W97419  25.318  33.339  26.928 -0.0084  0.0727  0.4105
54507W        W97420  24.777   9.570   3.170 -0.0071 -0.0730 -0.0691
54508W        W97421   0.675   4.588  20.398  0.1001 -0.1789 -0.1191
54509W        W97422  27.431  34.192  16.700  0.0526 -0.0766  0.1277
54510W        W97423   0.876  31.577  19.330 -0.0109  0.3905  0.0743
54511W        W97424   0.349   3.126   0.514 -0.1730 -0.2459  0.0841
54512W        W97425  29.624   2.648  20.781 -0.1916 -0.3594 -0.0211
54513W        W97426  24.982   4.479  14.637  0.2624 -0.1194 -0.0422
54514W        W97427   4.177  32.103  18.378  0.2013 -0.1760 -0.0339
54515W        W97428  30.508  20.308  25.056 -0.1764 -0.1463 -0.1410
54516W        W97429  32.807  26.656  21.249 -0.1544  0.1650  0.1501
54517W        W97430  26.200   0.950  22.513 -0.0963  0.0046 -0.1383
54518W        W97431  19.136  22.780  17.420  0.3303  0.1129  0.2643
54519W        W97432  33.313  25.686   1.140 -0.0688  0.1398 -0.0886
54520W        W97433  30.109  33.426  17.019 -0.1774 -0.2541 -0.0821
54521W        W97434  28.231   8.644  26.005 -0.3056 -0.0200 -0.2111
54522W        W97435  34.382  26.038  21.123 -0.0984  0.0357  0.1915
54523W        W97436   0.362  33.578  19.903  0.2294  0.0279  0.4162
54524W        W97437  29.509  30.021  13.425 -0.0421 -0.0346 -0.2142
54525W        W97438   2.062  31.124  23.527 -0.2144  0.0955  0.2151
54526W        W97439   6.218  32.453  24.870  0.3075 -0.0699  0.0824
54527W        W97440   5.416   4.437  20.148  0.1725 -0.0018 -0.0499
54528W        W97441   0.049   0.089  21.758 -0.3216  0.0227  0.0838
54529W        W97442   7.234  32.004  25.011  0.0398  0.0232  0.0144
54530W        W97443  24.839  33.448  25.781  0.2113  0.0957  0.0339
54531W        W97444  31.031   7.990  18.228  0.2194 -0.1303 -0.2327
54532W        W97445  26.435   8.955  23.649 -0.0104  0.4198  0.4719
54533W        W97446  24.380  26.599  17.090  0.0098 -0.0103  0.0073
54534W        W97447  33.220  29.903  21.271 -0.0028  0.0944 -0.0862
54535W        W97448   5.980   1.044  19.938  0.0481  0.4897  0.4509
54536W        W97449  33.901  28.583  23.163 -0.0429 -0.1908 -0.0646
54537W        W97450  33.361   4.566  20.605  0.1824  0.0186  0.1387
54538W        W97451   3.413  25.823  24.828  0.0632  0.0743  0.0846
54539W        W97452  32.261   1.128   0.120  0.0902 -0.1398  0.0572
54540W        W97453  25.008  30.659  14.422  0.1805  0.0577  0.3073
54541W        W97454  24.353  24.381  25.852  0.2026  0.1922 -0.1314
54542W        W97455  30.370  25.627  16.142 -0.2626 -0.0946 -0.1201
54543W        W97456  28.103   4.335  15.437  0.0694 -0.1113  0.1715
54544W        W97457   2.436  25.865  26.962 -0.1087  0.0342  0.0711
54545W        W97458   8.279  33.845  17.960 -0.0226  0.3856 -0.0805
54546W        W97459  24.477  31.989  22.425 -0.0136  0.1827  0.1248
54547W        W97460  31.614  29.221  22.435  0.0912 -0.4216 -0.0132
54548W        W97461  29.322  25.370  15.049 -0.2713  0.0796  0.0823
54549W        W97462  29.220  27.518  16.388  0.1760 -0.0121 -0.1733
54550W        W97463   1.459  30.763  17.801 -0.0978  0.2173  0.0138
54551W        W97464   7.693   1.687  25.602 -0.1384 -0.2544 -0.2471
54552W        W97465  22.563  30.453  28.951 -0.2761  0.1066 -0.0555
54553W        W97466   3.231  29.670  17.918  0.1621  0.1699 -0.0478
54554W        W97467  26.171   5.456  26.908  0.2445 -0.4315 -0.0551
54555W        W97468  23.965  21.370   3.824 -0.0270 -0.1796 -0.2374
54556W        W97469   6.432  31.944  21.414 -0.1627 -0.1777  0.2104
54557W        W97470  33.586   1.483  15.905  0.3159 -0.0085  0.1687
54558W        W97471  19.087  31.481  24.152 -0.3093 -0.2080  0.2387
54559W        W97472   8.026  33.964  22.629  0.2108 -0.0587 -0.2010
54560W        W97473  32.616  29.062  20.323  0.0835  0.0457 -0.2443
54561W        W97474  27.627  34.385  15.108 -0.2996  0.0983 -0.1832
54562W        W97475  31.709  32.670  19.693 -0.0280 -0.1067 -0.1138
54563W        W97476  32.934  32.083  16.428 -0.3779  0.0512 -0.0916
54564W        W97477  27.323  32.460  17.134 -0.0237  0.3080  0.0983
54565W        W97478  26.956  26.657  25.852  0.1095  0.0703  0.0891
54566W        W97479  17.991  33.357  23.002  0.0165 -0.0870 -0.2528
54567W        W97480   1.373   3.534  16.678 -0.0121 -0.1379 -0.3681
54568W        W97481  27.298  28.779  25.625 -0.4309  0.1782 -0.1485
54569W        W97482  28.595   1.727  16.042 -0.0548 -0.0194  0.1913
54570W        W97483  27.938  32.216  16.332 -0.0883 -0.2174  0.0180
54571W        W97484   4.811  25.847  24.373 -0.2431  0.0040 -0.2213
54572W        W97485   5.560  26.558  14.870  0.0331  0.1810 -0.1116
54573W        W97486  34.481   0.237  15.584 -0.3334 -0.1036  0.0955
54574W        W97487  24.154   0.755  25.360  0.0368 -0.0764  0.0228
54575W        W97488  31.069  30.568  17.302 -0.3265 -0.1986  0.2751
54576W        W97489  17.145  33.162  25.974 -0.5172  0.0352 -0.2303
54577W        W97490   3.924   5.255  18.237  0.0139 -0.0397  0.0653
54578W        W97491   5.844   5.553  21.493  0.1833 -0.1827 -0.3320
54579W        W97492  26.081  27.392  28.396 -0.0362 -0.0915 -0.1486
54580W        W97493  33.473  32.249  17.484 -0.0808  0.1516 -0.0585
54581W        W97494  31.259  27.088  27.720  0.0033  0.0778  0.2647
54582W        W97495   1.636  32.826  16.782 -0.1450 -0.1485  0.1624
54583W        W97496  29.673  30.527  22.306  0.0484  0.1926 -0.1000
54584W        W97497   5.698   0.248  21.022  0.0562 -0.1621  0.1939
54585W        W97498  30.682  26.482  14.310  0.0646  0.0458 -0.0461
54586W        W97499  33.965   1.318  23.599  0.1386 -0.2635 -0.0330
54587W        W97500  23.676   1.058  19.531 -0.0992 -0.1848 -0.1544
54588W        W97501  34.184   4.626  24.228  0.0671  0.0424  0.0734
54589W        W97502  29.728  26.038  22.886 -0.4215  0.0344  0.1481
54590W        W97503  27.299  28.735  25.156  0.1593  0.3210  0.0411
54591W        W97504   8.140   0.736  21.883  0.0822  0.1940  0.1028
54592W        W97505  34.181  24.485  18.741 -0.0984 -0.3410 -0.1934
54593W        W97506   0.667  32.243  25.063 -0.0087 -0.0818 -0.1269
54594W        W97507   3.126  18.804  22.180 -0.0907  0.3138  0.0959
54595W        W97508   1.341  29.025  25.451  0.1569  0.0864  0.1642
54596W        W97509   5.843  33.607   1.732 -0.0131 -0.1345  0.0291
54597W        W97510  28.966   3.544  15.066  0.0035  0.3804  0.2208
54598W        W97511  32.054  31.337  23.199 -0.0622  0.0335 -0.1914
54599W        W97512   4.721   7.616  23.864 -0.1819  0.1474  0.1270
54600W        W97513  13.950  26.160  17.794  0.0565  0.0245  0.2213
54601W        W97514   1.784  28.874  14.577 -0.0166  0.0932 -0.3470
54602W        W97515  27.178   4.889  18.433 -0.2522  0.0142 -0.1745
54603W        W97516   4.949  28.625  27.225  0.1790 -0.2278  0.0286
54604W        W97517  29.444   5.851   2.981 -0.1331 -0.0932  0.3046
54605W        W97518  27.195   4.787  28.747 -0.0565  0.1188  0.1558
54606W        W97519  10.714   3.279  23.361 -0.0485 -0.3044 -0.3036
54607W        W97520   0.087   2.962  21.420  0.1611  0.2972  0.3194
54608W        W97521   9.815  30.354  19.983  0.3699  0.0638 -0.0273
54609W        W97522   3.058  32.297  17.025 -0.1110 -0.1031 -0.5065
54610W        W97523  25.390  30.478  17.998 -0.2857  0.0886 -0.1554
54611W        W97524   2.657  21.985  25.430  0.1292 -0.2247 -0.0069
54612W        W97525   6.511   6.553  25.213 -0.1771  0.1814  0.2169
54613W        W97526   0.236   2.678  19.471 -0.3689  0.0355 -0.2601
54614W        W97527  24.099   6.445  25.348 -0.1963  0.0527 -0.0618
54615W        W97528   2.185  27.532  22.753 -0.0828  0.1612 -0.0307
54616W        W97529   3.492  26.205   4.846 -0.3663 -0.3596 -0.3174
54617W        W97530  27.736  22.526   7.483  0.0295 -0.1714 -0.0704
54618W        W97531  32.711  24.252  18.168  0.1123 -0.1275 -0.1473
54619W        W97532   3.532   1.830   5.905  0.2491  0.3450  0.3249
54620W        W97533  24.079  28.536  19.273 -0.0411  0.0955  0.4226
54621W        W97534  26.244  26.069  23.680 -0.2054 -0.1036  0.4374
54622W        W97535  24.653  11.929  14.624  0.1210  0.0472  0.1081
54623W        W97536   1.633   5.065  16.629  0.1504  0.1190  0.3389
54624W        W97537   1.648  29.236  14.163 -0.3340  0.1200  0.0665
54625W        W97538  29.683  26.011  20.672  0.1908 -0.3349 -0.0223
54626W        W97539  33.963  31.320  27.841 -0.0845  0.0402 -0.3020
54627W        W97540  22.597   1.832  28.257  0.1052  0.0662  0.2728
54628W        W97541   8.022  33.157  26.508  0.2849 -0.1409 -0.1111
54629W        W97542  28.193  31.588  16.329  0.2979 -0.3888  0.0791
54630W        W97543  22.090   4.234   0.147 -0.0124  0.2738  0.0062
54631W        W97544  29.139  29.255  17.898 -0.2770  0.1746 -0.2177
54632W        W97545  14.277   3.224  22.023  0.3712 -0.0873 -0.0997
54633W        W97546  24.051  29.703  20.044  0.0213 -0.2014  0.0299
54634W        W97547  30.321  33.947  17.053 -0.2418  0.0883 -0.1366
54635W        W97548  26.590   4.634  27.315  0.1956 -0.2844  0.2532
54636W        W97549  32.417  26.104  23.620 -0.0854 -0.1327  0.5261
54637W        W97550  29.589   0.429  17.733  0.3001 -0.0075 -0.0191
54638W        W97551  15.732  33.497   1.470 -0.3208  0.2419  0.0128
54639W        W97552  22.344  26.623  23.510  0.0852  0.0089  0.0758
54640W        W97553  34.477  14.134  19.513 -0.0244  0.0901 -0.4162
54641W        W97554   3.999   3.219  27.171  0.2712 -0.2596  0.2926
54642W        W97555   7.623  33.979  19.039 -0.0554  0.0057  0.0312
54643W        W97556   2.923  23.785  24.163 -0.2892  0.2456 -0.3561
54644W        W97557   5.424  32.411  27.984  0.1416  0.3142  0.4692
54645W        W97558   2.666  29.113  18.626  0.2997  0.0243 -0.0800
54646W        W97559  27.384   8.043  21.393  0.1601  0.1860  0.0375
54647W        W97560   6.391  30.713  23.696  0.0595 -0.1997  0.1328
54648W        W97561  27.573  33.954  23.015 -0.2133 -0.2202 -0.0416
54649W        W97562   4.201   5.301  24.477  0.3658  0.1221 -0.0284
54650W        W97563   1.205   1.825  19.328 -0.0869 -0.0215  0.0441
54651W        W97564   6.186  32.085  16.107  0.1370 -0.0922  0.1352
54652W        W97565  32.173   4.901  24.625  0.0945  0.1185 -0.6488
54653W        W97566  33.984  27.911  25.034  0.1323 -0.0137  0.0147
54654W        W97567  30.247   5.158  27.039  0.3002 -0.1445  0.0033
54655W        W97568  30.479   2.094  26.179  0.0752  0.1644 -0.3667
54656W        W97569  24.588   2.761  26.943 -0.0758 -0.1039 -0.0286
54657W        W97570  29.825  31.666  24.816 -0.3933  0.1293 -0.0339
54658W        W97571  32.740   2.522  15.700  0.1647 -0.1781  0.1032
54659W        W97572  34.474  33.921  27.170  0.0590  0.0265  0.0432
54660W        W97573  30.677  13.598  21.635 -0.0516 -0.0454  0.1224
54661W        W97574  28.386  29.907  29.079 -0.2283 -0.0472 -0.0344
54662W        W97575  28.526  23.408  21.629  0.1822 -0.1085  0.0401
54663W        W97576  29.071   2.596  21.244  0.0362  0.2056  0.0843
54664W        W97577  30.578  32.806  24.994 -0.0679  0.1165  0.0702
54665W        W97578  32.554  32.550  21.735  0.0489  0.0649 -0.1238
54666W        W97579   1.607  30.585  13.674  0.2630 -0.1010 -0.1226
54667W        W97580  33.756  33.776  17.135 -0.0680 -0.3643  0.0260
54668W        W97581   0.780  21.131  24.710  0.3359  0.0310 -0.1300
54669W        W97582   3.327   3.858  25.645  0.0274 -0.0178 -0.1922
54670W        W97583  30.630  32.883  22.808 -0.1813  0.0672 -0.1953
54671W        W97584   6.932   1.484  29.118  0.0564 -0.1448  0.2520
54672W        W97585  20.815  19.636   0.020 -0.4009 -0.0679  0.2700
54673W        W97586  27.931   2.233  22.528  0.0769  0.0422 -0.0640
54674W        W97587  21.893   4.034  17.380  0.2031 -0.1390  0.0498
54675W        W97588  30.745  30.760   0.530 -0.3252  0.1270 -0.4511
54676W        W97589  29.914  26.812  24.238  0.1151  0.0825  0.2228
54677W        W97590  32.163   4.876  18.894 -0.1972 -0.2449 -0.1529
54678W        W97591   7.874   8.463  21.987  0.1420  0.0617  0.1298
54679W        W97592  21.715  31.394   1.855 -0.0421 -0.1776 -0.0619
54680W        W97593  29.663   0.584  28.345 -0.0024  0.0763 -0.1373
54681W        W97594   0.307   5.015  16.835  0.0184 -0.2624  0.2554
54682W        W97595  10.066   7.255  26.030 -0.1259 -0.1034  0.1154
54683W        W97596  31.063  28.992  23.036 -0.1937  0.2832 -0.0023
54684W        W97597  29.814  33.164  22.355 -0.1327  0.0851  0.0751
54685W        W97598  27.404  24.331  16.122  0.1629  0.6011 -0.0249
54686W        W97599  28.249  21.890  21.194  0.2416 -0.1500  0.1288
54687W        W97600  26.060  33.053  25.705  0.1248  0.1013  0.0449
54688W        W97601  32.346  29.835  18.415 -0.0391  0.0755  0.3411
54689W        W97602   4.411   3.131  27.509 -0.1135 -0.0064  0.0407
54690W        W97603  33.272   7.464  23.356  0.0873 -0.1878  0.2403
54691W        W97604  11.637  31.636  29.101  0.1245 -0.0722 -0.3535
54692W        W97605  22.026  27.220  26.952 -0.0767  0.2110  0.0218
54693W        W97606  34.222  28.892  25.912  0.0856  0.0878 -0.0055
54694W        W97607   4.853  27.731  20.431 -0.1301  0.1442 -0.0759
54695W        W97608  32.119   5.348  24.910 -0.1884 -0.0132  0.2106
54696W        W97609  32.296  18.770  26.604  0.2247  0.0116 -0.1287
54697W        W97610   9.273   5.290  19.487 -0.0715  0.0474  0.3445
54698W        W97611  21.304   6.676  26.677 -0.2835  0.2732  0.0123
54699W        W97612  29.981   2.022  27.019  0.0114  0.0562  0.0284
54700W        W97613  29.976  31.396  21.790 -0.1299 -0.2755 -0.0901
54701W        W97614   5.148   0.687  21.872 -0.2399  0.1112  0.1547
54702W        W97615   1.922  26.837  16.610  0.2524  0.2339  0.1286
54703W        W97616   2.040  32.632   6.866 -0.2890 -0.2759 -0.1805
54704W        W97617  34.105  31.632  21.041  0.0572  0.3733  0.2044
54705W        W97618  11.468   1.108  22.899  0.0256  0.2959 -0.0837
54706W        W97619  23.826  34.021  28.184  0.1910 -0.3069 -0.0205
54707W        W97620  29.788  23.781   3.267  0.3127 -0.1640  0.0248
54708W        W97621   1.874  13.690  24.752 -0.1350  0.1293 -0.1672
54709W        W97622   0.949  30.795  26.375  0.3537 -0.0010 -0.1368
54710W        W97623   3.319  10.080  24.183  0.3707  0.0821 -0.1814
54711W        W97624  26.488  34.072   0.468 -0.0384  0.2029 -0.1985
54712W        W97625   6.284   3.317   0.706 -0.0378 -0.2054  0.3608
54713W        W97626  26.048  27.022  28.737 -0.2350  0.2922 -0.0549
54714W        W97627   8.819  28.271  20.519 -0.0888 -0.1690  0.0316
54715W        W97628  19.533  28.188  23.628  0.1781 -0.2161  0.1383
54716W        W97629  26.655   5.247  24.468 -0.0479  0.0752  0.3993
54717W        W97630   0.065   1.431  18.387 -0.0160 -0.1533 -0.2576
54718W        W97631  32.770  30.493  19.563  0.1185 -0.1269 -0.1401
54719W        W97632  30.193  33.899  23.120 -0.0255  0.1538  0.0303
54720W        W97633  32.723   1.363  21.087 -0.1104 -0.0877 -0.2948
54721W        W97634  22.836  26.428  27.693 -0.3581  0.0052 -0.1282
54722W        W97635  18.471  33.573  28.648 -0.2005 -0.0353 -0.1829
54723W        W97636   7.477   1.512  25.184 -0.0500 -0.0566 -0.2330
54724W        W97637   2.538  32.362  20.237 -0.0827 -0.1001 -0.2509
54725W        W97638  33.941  29.861  24.537 -0.0704  0.2809 -0.0159
54726W        W97639   0.472  31.162   3.457 -0.0199 -0.0361 -0.3073
54727W        W97640   1.493  31.170  25.535  0.1545 -0.3618  0.2492
54728W        W97641   1.227   7.042  17.635 -0.1984  0.1069  0.0395
54729W        W97642   7.382  30.287   2.258  0.1227  0.0107 -0.0642
54730W        W97643  26.356  29.343  28.301  0.0038 -0.0555  0.2733
54731W        W97644  31.800  13.265  23.658  0.0412 -0.1453  0.0637
54732W        W97645   0.055  30.141  17.522 -0.0856 -0.1179 -0.3427
54733W        W97646  34.218   3.306  21.593  0.1436 -0.2573  0.2526
54734W        W97647  27.962  27.568   4.652 -0.1014 -0.0035  0.0400
54735W        W97648  24.460  32.227  26.236 -0.0916  0.0109  0.0869
54736W        W97649  24.855  26.389  28.786 -0.0272  0.0297 -0.1581
54737W        W97650  10.909   1.839  26.715 -0.1770  0.0821  0.2506
54738W        W97651  21.609   6.840   0.954 -0.1485 -0.1943 -0.0881
54739W        W97652   1.930  26.711  15.074  0.0955 -0.2838  0.1256
54740W        W97653  25.459   4.761  26.563 -0.0223 -0.0942 -0.0529
54741W        W97654  22.972   5.288  19.644 -0.1889 -0.0647  0.2049
54742W        W97655  29.904  30.168   0.176  0.0201  0.5801 -0.2097
54743W        W97656   4.613   0.705  25.062 -0.3774  0.2294 -0.0293
54744W        W97657  33.778  32.549   1.369 -0.3705  0.3252 -0.1052
54745W        W97658  33.407   1.932   3.687  0.0100  0.2380 -0.2510
54746W        W97659  15.084   5.836   2.226 -0.0366  0.1052  0.0324
54747W        W97660   6.045   0.898   3.352  0.0200  0.0263 -0.2347
54748W        W97661  32.568  32.853  19.480 -0.0803 -0.0547  0.1498
54749W        W97662  30.927  22.866  15.182  0.2198  0.3310 -0.1131
54750W        W97663  29.008  26.728  26.239 -0.0082  0.0196 -0.3814
54751W        W97664  31.864   4.191   5.363  0.0937  0.3348  0.0027
54752W        W97665  20.178  30.373  28.882  0.0852 -0.0808 -0.2506
54753W        W97666   4.476   0.534  29.394  0.0409  0.0920  0.1212
54754W        W97667   1.843   1.737  24.844 -0.1985 -0.0292  0.0413
54755W        W97668  18.911  26.075   0.114 -0.0675 -0.3513  0.1707
54756W        W97669   2.104  30.735  28.033  0.2650 -0.2004 -0.0814
54757W        W97670   1.306   3.929  17.513 -0.0695 -0.0365  0.2596
54758W        W97671  34.317  29.741  24.901  0.1181 -0.0841 -0.1197
54759W        W97672   5.410  29.794  23.453 -0.1607  0.2462  0.1187
54760W        W97673   3.986  30.837  17.931 -0.1081 -0.3364 -0.2538
54761W        W97674  28.358  26.619  19.119 -0.3907 -0.0407  0.1314
54762W        W97675   0.709  34.284  22.961  0.0491  0.0681  0.1488
54763W        W97676   9.667  23.454  20.490 -0.1765 -0.1481  0.1410
54764W        W97677  31.076  31.118  29.003 -0.1501  0.0368 -0.0439
54765W        W97678  33.173   0.627  22.979 -0.0162  0.0156  0.0707
54766W        W97679   1.625   8.490  28.974 -0.1559 -0.0201 -0.2776
54767W        W97680   3.955  10.422   7.408  0.0255 -0.3424  0.3093
54768W        W97681  32.415  34.415  23.328  0.0845  0.0986  0.2292
54769W        W97682   8.254   0.597  24.297  0.4124  0.3641  0.2561
54770W        W97683   4.768   0.550   1.017  0.1451 -0.0234 -0.3532
54771W        W97684  26.777   0.224   5.917 -0.1152 -0.1284 -0.3607
54772W        W97685   4.897   5.896  20.860  0.0619  0.1440  0.1953
54773W        W97686  24.477   7.385  21.676 -0.0277  0.2036 -0.1021
54774W        W97687  28.392  26.948   5.280 -0.0932 -0.2901  0.1790
54775W        W97688  26.123  28.024   4.433 -0.2642 -0.0237 -0.0139
54776W        W97689  34.057   4.525  22.117  0.1262 -0.0898 -0.2340
54777W        W97690  30.413  20.059  19.318  0.0114  0.0425 -0.2027
54778W        W97691  26.898  29.097  29.583  0.3041  0.1971 -0.2966
54779W        W97692   5.233  27.064  27.731 -0.2676 -0.0407 -0.1036
54780W        W97693   8.459   4.847  26.221 -0.0937 -0.3677  0.2274
54781W        W97694  31.620   2.994   3.485  0.2249 -0.0706  0.0803
54782W        W97695  18.034  20.024  25.804 -0.0721 -0.2645  0.3566
54783W        W97696   3.875   5.378  20.204  0.0398 -0.0316  0.1830
54784W        W97697   3.536  32.991  23.978  0.1911  0.4018 -0.3214
54785W        W97698  31.811  29.546  23.992  0.0636  0.1963  0.1877
54786W        W97699  31.155   0.165  22.064 -0.0514  0.3093  0.2335
54787W        W97700  27.925  29.802   0.650  0.3528 -0.1315  0.1454
54788W        W97701  24.773   2.615  16.969 -0.1874  0.2915  0.0459
54789W        W97702   7.491   4.492   0.520 -0.1178  0.1922 -0.0049
54790W        W97703   5.829  32.651  27.675 -0.0463  0.2471 -0.1236
54791W        W97704  32.756   9.048  21.261  0.3643 -0.0832  0.2310
54792W        W97705  33.445   1.695  23.165 -0.1357  0.0191  0.1261
54793W        W97706   5.493  26.063  21.534  0.2098 -0.0993 -0.2037
54794W        W97707  34.235   4.192   3.659 -0.1977 -0.4470  0.3266
54795W        W97708  33.113   7.320  26.785  0.2776 -0.0477  0.0327
54796W        W97709   1.411  31.095  23.968 -0.1400  0.1359  0.1980
54797W        W97710   4.291   5.886  23.420  0.4009  0.0363 -0.3227
54798W        W97711  29.928  20.432  23.570 -0.3119  0.5929  0.1937
54799W        W97712  33.988   4.785  20.902 -0.0367 -0.1648 -0.0513
54800W        W97713  30.723   7.849   2.009 -0.1922 -0.5260  0.0862
54801W        W97714  26.916  33.195  27.675  0.0079  0.1455 -0.0378
54802W        W97715  15.933   5.446  24.557  0.2143  0.2025  0.0012
54803W        W97716  19.033  21.704  21.582 -0.2011  0.3935  0.0454
54804W        W97717  32.092   5.033  27.615 -0.0785  0.1043 -0.5801
54805W        W97718  12.659  30.085   1.476  0.2742 -0.1418  0.0615
54806W        W97719   2.841   2.644  23.965  0.1974 -0.1888 -0.2570
54807W        W97720   1.964  31.637  18.017 -0.1684  0.0562 -0.1499
54808W        W97721  28.507  29.741  27.473  0.0392 -0.0889  0.3563
54809W        W97722  19.926  23.665  25.793 -0.0499 -0.2544 -0.0563
54810W        W97723  33.654  26.744  21.866 -0.0271 -0.0183  0.1868
54811W        W97724  31.034  30.731   5.378 -0.1831  0.1177  0.0576
54812W        W97725   1.783  33.469   6.099  0.1619 -0.0970 -0.2478
54813W        W97726   0.223  28.820  29.768 -0.0576  0.2021 -0.0759
54814W        W97727   2.169   7.390  17.598  0.2115 -0.0290  0.2485
54815W        W97728   2.062  29.838  27.826 -0.0500  0.2795 -0.2492
54816W        W97729  33.086   0.266  23.880  0.1785 -0.4229 -0.1819
54817W        W97730  29.323   0.874  27.951 -0.0817  0.1519  0.1657
54818W        W97731  16.157  28.121   2.503  0.3747  0.1268 -0.3280
54819W        W97732   1.806  33.900  27.895  0.1805  0.0023 -0.4036
54820W        W97733  25.190   2.352  19.389 -0.2745  0.0445 -0.1247
54821W        W97734  28.350   3.815  24.455 -0.3838  0.0118  0.0788
54822W        W97735   3.249   3.397  25.589  0.2094 -0.1017  0.0349
54823W        W97736  24.850  30.006  27.276 -0.3302  0.1744 -0.3485
54824W        W97737   9.801  28.127  21.679  0.3651 -0.1164 -0.0578
54825W        W97738  10.676  14.910  26.625 -0.2398  0.2966  0.0625
54826W        W97739  25.995   1.443  20.537 -0.0495  0.1357 -0.0422
54827W        W97740   2.121  25.079  25.733  0.1299  0.2149  0.1983
54828W        W97741   1.191  29.269  26.292 -0.3742 -0.0668  0.2754
54829W        W97742  10.427  27.633   1.530 -0.0678  0.0713  0.2498
54830W        W97743   6.428   3.798  22.968 -0.1369  0.1958 -0.1990
54831W        W97744   8.865  31.027  27.174  0.1478  0.1982  0.1565
54832W        W97745   0.471  31.122  22.288  0.2464  0.0251  0.1095
54833W        W97746   0.013  26.288   8.251  0.1291  0.1399  0.2988
54834W        W97747  30.633  27.420   1.421 -0.2033 -0.2653  0.1315
54835W        W97748   2.314  21.807   0.500  0.1308 -0.0225  0.2562
54836W        W97749  31.777   6.968  23.902 -0.2206  0.0363 -0.0351
54837W        W97750  27.831  33.203  21.321 -0.0148  0.2088  0.3905
54838W        W97751  33.833   1.419  18.859 -0.0487 -0.0936  0.2022
54839W        W97752  26.844  28.841  27.727  0.0912  0.1062  0.1042
54840W        W97753   2.137  26.705  29.146 -0.1387  0.1272  0.0322
54841W        W97754   4.146  33.269  28.613  0.0511  0.0199 -0.0606
54842W        W97755  27.823   6.643  24.682 -0.1020 -0.2756 -0.2273
54843W        W97756   7.943  29.382   1.813  0.1090  0.1336  0.2337
54844W        W97757  33.086  33.092  20.357  0.0466  0.1274  0.4056
54845W        W97758   0.453  33.477  23.320 -0.0305 -0.0642 -0.1198
54846W        W97759  28.946  32.287   0.619  0.0150 -0.1457  0.0255
54847W        W97760  34.447  30.839   2.488  0.0805 -0.0261 -0.0043
54848W        W97761  29.509  33.191   5.381 -0.3049  0.0341  0.3826
54849W        W97762  20.642  29.778  29.476 -0.1580 -0.0621  0.0119
54850W        W97763   4.685   2.123  21.714 -0.1386  0.3894 -0.2214
54851W        W97764   0.284   4.483  20.752  0.0930 -0.1022  0.0106
54852W        W97765  19.462  11.309  29.560  0.0662  0.0486  0.2478
54853W        W97766  28.482  21.037   5.185 -0.2181 -0.0068 -0.1191
54854W        W97767  26.134  29.542  16.382  0.4255  0.3345  0.0523
54855W        W97768  20.395  11.906   7.921  0.1382  0.1462 -0.2503
54856W        W97769   9.823  32.479   7.827  0.1052 -0.0300 -0.0769
54857W        W97770   0.186  22.492   0.401  0.1107 -0.0145 -0.1435
54858W        W97771  29.938   3.904   0.892  0.0568  0.0561  0.6909
54859W        W97772  29.790  15.297   0.649  0.1044  0.3012  0.2304
54860W        W97773   4.068  13.389  23.713 -0.0041 -0.1396 -0.0234
54861W        W97774   2.506  34.055  24.703  0.2341  0.1258  0.0216
54862W        W97775  34.380  28.402   1.087 -0.0376 -0.3211 -0.1567
54863W        W97776  29.595  24.305  26.781  0.1475 -0.1297  0.3480
54864W        W97777   0.293   5.230  28.327  0.1312 -0.3793  0.2397
54865W        W97778   0.239   7.580  16.207 -0.0246 -0.1909 -0.1784
54866W        W97779   7.680  32.515  29.337  0.2980  0.2082  0.0511
54867W        W97780   9.249   9.506  23.352  0.0692  0.0317  0.2574
54868W        W97781  25.636  11.229  27.513 -0.1464  0.0156  0.0493
54869W        W97782  32.322   2.747  29.272 -0.1781  0.0273 -0.2851
54870W        W97783  28.004   1.787  22.408  0.0940 -0.1194 -0.0292
54871W        W97784  28.615  34.243   5.436  0.1670  0.2162  0.0928
54872W        W97785  29.473  31.678  28.732  0.0076  0.2353  0.1808
54873W        W97786  29.952  28.937   3.175  0.5201  0.0761 -0.1868
54874W        W97787  24.393  23.880   4.066  0.3133  0.1157 -0.0943
54875W        W97788  30.652  30.205   5.322  0.0674 -0.0575  0.0595
54876W        W97789  32.442   4.408  28.896 -0.4544  0.0296  0.1303
54877W        W97790   6.878  33.066   2.941 -0.0564 -0.0295 -0.0303
54878W        W97791  30.944   2.724  16.505  0.1872 -0.2183 -0.0838
54879W        W97792   2.160  32.678   8.391  0.3026  0.3621 -0.3479
54880W        W97793  10.989   1.010   1.606  0.1655  0.1762 -0.2087
54881W        W97794  33.778   3.664   2.091 -0.0647  0.0094 -0.1339
54882W        W97795  29.790   9.166   9.269 -0.1237 -0.0052  0.1207
54883W        W97796   0.850   3.132   4.283 -0.2343 -0.0681  0.0914
54884W        W97797   5.964  29.382   0.933  0.1180 -0.0628  0.2025
54885W        W97798  29.863  27.860   2.916  0.0489 -0.1196 -0.2089
54886W        W97799  30.548   3.553  26.422  0.4190  0.2279 -0.3844
54887W        W97800  31.972   2.535  28.206 -0.0430 -0.0703 -0.1149
54888W        W97801  27.172  33.270  25.763 -0.1413  0.1595  0.0175
54889W        W97802   2.916  23.679   5.198  0.0108 -0.0490 -0.1569
54890W        W97803   5.583   0.458   7.511 -0.0174 -0.0758 -0.2050
54891W        W97804  33.390   5.957   6.690 -0.3903  0.0541  0.0992
54892W        W97805  25.003   6.715   3.581  0.2572 -0.1937  0.0621
54893W        W97806   3.229  22.082   3.278 -0.0687 -0.1209  0.1253
54894W        W97807  27.570   8.299   1.524  0.0225 -0.0226  0.0062
54895W        W97808   7.485   9.184   4.211  0.1971  0.2420  0.3069
54896W        W97809  32.268  32.648  22.339 -0.0579 -0.0642  0.0287
54897W        W97810   0.968   4.076  21.318 -0.1648 -0.2080  0.0415
54898W        W97811  32.765  33.560   0.865 -0.0323  0.0845 -0.0175
54899W        W97812   2.066   6.947   1.246  0.0572 -0.2212 -0.0453
54900W        W97813   8.038   6.236   5.458 -0.0068 -0.1078  0.2137
54901W        W97814  31.201   6.571  26.837  0.1614 -0.1225 -0.1744
54902W        W97815   1.245  29.699   1.300 -0.1097 -0.2437 -0.0374
54903W        W97816   2.458   4.830  23.313 -0.1389  0.2910  0.0640
54904W        W97817   1.922   6.775  25.919 -0.1135 -0.0429 -0.0717
54905W        W97818  15.956   5.458   8.333  0.0066  0.1252 -0.0793
54906W        W97819  33.987   1.318  16.157 -0.3413  0.0414  0.0889
54907W        W97820   7.923  12.601   5.716 -0.1635  0.2432 -0.0936
54908W        W97821  29.484  11.941  28.856  0.2708 -0.0674 -0.2223
54909W        W97822   6.249  31.949  21.908  0.0410  0.0498 -0.2132
54910W        W97823  29.919   7.552   3.191 -0.1540  0.0949 -0.1027
54911W        W97824  25.554   2.478   6.224  0.6058  0.2568 -0.1112
54912W        W97825   7.972   3.936  19.519 -0.1174 -0.1346  0.2547
54913W        W97826   3.436   7.090   3.994  0.0240 -0.0014 -0.2577
54914W        W97827  26.471   6.859   0.259  0.2594 -0.4220 -0.4665
54915W        W97828  32.200  32.370   1.943 -0.2387  0.2057 -0.0853
54916W        W97829   4.924   3.860   6.406  0.2270 -0.2069 -0.0108
54917W        W97830   3.149  33.446  24.079 -0.0791 -0.0338 -0.1715
54918W        W97831  27.567  29.538  21.176 -0.1856 -0.0915 -0.0012
54919W        W97832   4.641   7.481  22.162 -0.2197 -0.0820 -0.3707
54920W        W97833   1.326   0.027  27.420 -0.1707  0.0228 -0.1430
54921W        W97834   0.893   1.551  18.504  0.1746  0.1616 -0.0782
54922W        W97835   8.399  23.934  23.038  0.2507  0.1364 -0.0344
54923W        W97836  28.302  29.759  28.395  0.2256  0.1069  0.0255
54924W        W97837  32.043  24.450  28.908  0.2591 -0.0025 -0.0838
54925W        W97838  32.286   4.783  28.067  0.0434  0.0642  0.3806
54926W        W97839   1.710  34.433   6.679 -0.0194  0.1360  0.0576
54927W        W97840   9.683  16.068  28.991  0.2070  0.0628  0.2096
54928W        W97841  21.510  28.198  28.594 -0.2336  0.0270  0.0855
54929W        W97842   0.262   4.269   0.212  0.3385  0.1373 -0.1176
54930W        W97843  20.872  10.548  21.104 -0.0930  0.1682 -0.1180
54931W        W97844   1.287  19.590   3.930 -0.4489  0.1429  0.1845
54932W        W97845   0.543  32.590   7.677  0.0557 -0.0011 -0.1889
54933W        W97846   9.177   8.354  23.205 -0.2015 -0.0563  0.2341
54934W        W97847  29.165   5.356   0.584  0.0919  0.0904  0.3442
54935W        W97848  23.826  27.187   3.394 -0.2212  0.0741 -0.1115
54936W        W97849  26.206  24.997  28.138 -0.0578  0.0729 -0.0991
54937W        W97850   6.158  31.750  29.386 -0.2630  0.2111  0.0380
54938W        W97851   1.704  26.576   4.331 -0.2468  0.2674 -0.1047
54939W        W97852  31.903  29.255  19.514  0.0374 -0.0383  0.1689
54940W        W97853  26.613   0.753  27.207  0.2272  0.1725 -0.0080
54941W        W97854   9.327   5.985   8.628  0.4053 -0.2082  0.2585
54942W        W97855  33.541  15.383  24.892 -0.1335 -0.0880  0.0747
54943W        W97856   5.740   4.888  27.430 -0.0380 -0.0394 -0.0438
54944W        W97857   1.789   1.560  26.437  0.1414 -0.1046  0.0690
54945W        W97858  33.433  25.652  28.129 -0.0056 -0.2659 -0.0881
54946W        W97859  33.268   7.231   3.139 -0.3200  0.0056 -0.1306
54947W        W97860  29.389  25.705  15.458  0.2053  0.0238 -0.2653
54948W        W97861  28.836  24.104  23.653 -0.0193  0.2697  0.0857
54949W        W97862  29.062   1.595   9.970 -0.3933  0.2653  0.0284
54950W        W97863  12.051   0.231  20.679 -0.3165  0.1168 -0.3094
54951W        W97864  27.452   0.252   2.324  0.0341 -0.0390 -0.0393
54952W        W97865  32.186  23.133  28.460 -0.2152 -0.4054  0.3193
54953W        W97866  31.381   4.731  24.016  0.2080 -0.0254  0.0695
54954W        W97867  31.843  32.064  21.505 -0.2491 -0.1590 -0.0727
54955W        W97868  33.066  23.557  28.916 -0.1718 -0.0041 -0.1104
54956W        W97869   1.955   6.774  29.380  0.1029 -0.2012  0.0361
54957W        W97870   8.553  32.356   1.845  0.0791 -0.4275 -0.0661
54958W        W97871  33.398  30.218  25.102  0.1616  0.0986 -0.0048
54959W        W97872  26.290  29.936   3.947  0.2100 -0.1315 -0.0726
54960W        W97873  31.121   0.424  11.072 -0.0763  0.1134 -0.0965
54961W        W97874  28.716  34.341  22.187  0.1651 -0.0657  0.0302
54962W        W97875  33.748   5.627   1.895 -0.2439 -0.1043 -0.0649
54963W        W97876  30.606  33.753  28.256  0.0679  0.1689 -0.0227
54964W        W97877   9.239  27.695  10.992  0.3218  0.0984  0.0021
54965W        W97878  26.721  31.235  29.326  0.1851  0.0410 -0.1072
54966W        W97879   2.036   1.350   2.245 -0.0026  0.2657 -0.0403
54967W        W97880  23.179   1.248   8.911  0.1323 -0.0903 -0.2284
54968W        W97881  23.241  26.609  19.479 -0.1154 -0.0307  0.0288
54969W        W97882  30.283  32.186  19.335 -0.0740 -0.3186 -0.0849
54970W        W97883  30.578   2.733   2.950 -0.0138  0.1434  0.0138
54971W        W97884   3.704  29.536   5.920 -0.3019  0.2039  0.1914
54972W        W97885   1.752   6.601   2.765  0.5084  0.3160  0.2335
54973W        W97886  28.756  30.688  28.392 -0.1386  0.3078 -0.3309
54974ION     NA97887   1.105  25.721  10.169 -0.2372 -0.4903 -0.8732
54975ION     NA97888   3.306   0.851   0.143 -0.1922  0.4588 -0.3930
54976ION     NA97889  13.336  16.804   6.754 -0.0394 -0.1574 -0.0073
54977ION     NA97890   9.077   1.776   9.833  0.6503 -0.1684  0.2777
54978ION     NA97891   9.900   5.369   6.667  0.0185 -0.3128  0.0815
54979ION     NA97892  25.915  25.937  27.162  0.5499 -0.0743  0.0859
54980ION     NA97893  20.350  34.314  26.165 -0.2048 -0.4606 -0.2723
54981ION     NA97894  31.796   3.507   2.079 -0.0524  0.6441  0.4407
54982ION     NA97895  23.181  18.061  25.619  0.2325  0.3311 -0.4724
54983ION     NA97896   7.788  18.167  15.920 -0.3876  0.5889  0.1629
54984ION     NA97897  31.119  10.116   4.772 -0.2578  0.1795  0.2543
54985ION     NA97898   3.645  28.103  25.653  0.6383  0.1547 -0.1476
54986ION     NA97899  10.446   6.447   0.058  0.3593  0.5806  0.8043
54987ION     NA97900  19.672  16.437   8.184  0.0338 -0.3664 -0.1606
54988ION     NA97901  15.452  21.215  29.747 -0.1621  0.8286 -0.2217
54989ION     NA97902  17.887  11.426   8.497 -0.3956 -0.6867 -0.4042
54990ION     NA97903  27.769   5.005   6.556 -0.5583  0.2821  0.2761
54991ION     NA97904  23.494   3.759  26.014 -0.1914  0.1038  0.1695
54992ION     NA97905  22.971  24.163   8.132 -0.1068 -0.1087  0.2406
54993ION     NA97906   1.835  18.799   9.069  0.2978 -0.1477 -0.1731
54994ION     NA97907  14.995  10.366   0.516 -0.3430  0.4510  0.1717
54995ION     NA97908  32.048   0.464  11.296 -0.2723  0.1096 -0.3291
54996ION     NA97909  18.344  24.601   5.881  0.6905  0.0560 -0.1761
54997ION     NA97910  31.112  25.290   8.995 -0.1200 -0.2562 -0.0499
54998ION     NA97911  19.183   8.663   4.501  0.0235  0.0482  0.0353
54999ION     NA97912   8.535   2.190  13.463 -0.5271 -0.0764 -0.5538
55000ION     NA97913  23.350  28.539   1.798  0.0326 -0.3085 -0.6613
55001ION     NA97914  31.864  10.489  26.714 -0.1671 -0.1340  0.1427
55002ION     NA97915   6.161   1.030  13.030 -0.4470  0.1433 -0.4136
55003ION     NA97916  11.910   1.133  26.211 -0.0272  0.2960  0.0512
55004ION     NA97917  18.232   4.941   8.282  0.0092  0.0102  0.1097
55005ION     NA97918   2.441  27.039  26.865  0.1029  0.2005 -0.0592
55006ION     NA97919  28.655  16.993   9.536  0.6738 -0.3445  0.6001
55007ION     NA97920  25.335   6.245  10.242  0.2978 -0.4125 -0.0430
55008ION     NA97921  14.451  25.895   6.093 -0.2296  0.0347  0.4914
55009ION     NA97922  11.258  12.947   2.484 -0.1781  0.2957 -0.2601
55010ION     NA97923   2.183  16.523   9.064  0.0303  0.3168 -0.1993
55011ION     NA97924  23.797  25.279   5.007 -0.3109 -0.6581 -0.1348
55012ION     NA97925  30.091  11.392   9.863 -0.1193  0.2279 -0.0863
55013ION     NA97926  19.539  16.832   7.467  0.2652  0.4438 -0.0921
55014ION     NA97927  16.492  28.556   3.884 -0.1244 -0.7915 -0.1424
55015ION     NA97928  26.441   0.829   1.303 -0.2847 -0.0091  0.3796
55016ION     NA97929  23.992  25.632   7.960 -0.2662  0.2711 -0.1081
55017ION     NA97930  16.627  20.946   2.392 -0.6840  0.0684 -0.2094
55018ION     NA97931  11.701  25.763   6.749  0.0776  0.2018 -0.1872
55019ION     NA97932  15.861   3.324   2.372 -0.0513 -0.2701 -0.0193
55020ION     NA97933  30.268  19.398  22.142 -0.6438 -0.4290  0.2470
55021ION     NA97934  30.235  14.077   9.860 -0.2218  0.4290  0.5553
55022ION     NA97935   1.443  17.857   7.756 -0.3194 -0.1235  0.2384
55023ION     NA97936   0.324   9.074  24.318  0.2505  0.1583  0.3466
55024ION     NA97937   2.700  18.659   6.495  0.3107 -0.0282 -0.0783
55025ION     NA97938  24.517  22.194   2.654  0.3501  0.0875 -0.5600
55026ION     NA97939   1.379  14.485   5.592 -0.1480  0.2712 -0.1059
55027ION     NA97940  15.397  18.710   0.311 -0.2781  0.2974 -0.0146
55028ION     NA97941  17.930  23.945   8.461  0.3028  0.4024  0.2662
55029ION     NA97942   0.677   5.692   5.906  0.1004  0.1055  0.3944
55030ION     NA97943  13.334  27.729   8.490 -0.0235 -0.3098 -0.0847
55031ION     NA97944  18.119  16.412   2.050  0.0994  0.0424 -0.3399
55032ION     NA97945  20.408   8.855  26.585 -0.0520  0.3250  0.3513
55033ION     NA97946  32.773   6.727   5.363  0.0681  0.0929 -0.0677
55034ION     NA97947  19.162  12.220   8.114  0.0857  0.0209 -0.2454
55035ION     NA97948  24.740  16.776   5.800  0.1628  0.1086 -0.0444
55036ION     NA97949   2.456  10.668   6.424 -0.3786 -0.0464 -0.4202
55037ION     NA97950   5.489  33.466   2.094 -0.0525  0.3903 -0.0132
55038ION     NA97951   5.656  19.159   9.342 -0.3326 -0.4269  0.1480
55039ION     NA97952  13.780   7.086   4.934  0.0198 -0.4088 -0.1259
55040ION     NA97953  32.312  20.999  25.355 -0.0967 -0.0246  0.1588
55041ION     NA97954  33.373  23.100   9.547  0.1466  0.2929  0.1261
55042ION     NA97955   1.970  14.970   4.191 -0.1696  0.0487  0.0069
55043ION     NA97956  14.245  31.678   6.723  0.0870  0.2702  0.3843
55044ION     NA97957  27.945   9.338  29.532 -0.1451  0.4833 -0.0946
55045ION     NA97958   6.700  21.556   9.839  0.3804 -0.5561  0.7739
55046ION     NA97959  32.657   6.977   6.644 -0.2675 -0.2282  0.1853
55047ION     NA97960  34.166  12.465  10.093 -0.2044  0.4633 -0.3560
55048ION     NA97961  24.321   2.667   9.746  0.0363  0.3925  0.1912
55049ION     NA97962   3.721  19.711   6.909 -0.0925  0.3131  0.0965
55050ION     NA97963  17.295  23.498   5.615  0.1342 -0.3445 -0.0321
55051ION     NA97964  27.853  23.740   3.359  0.1335 -0.0394 -0.1673
55052ION     NA97965  16.273  13.923   0.929  0.0086 -0.0151 -0.0423
55053ION     NA97966  32.014   9.939  28.216 -0.3220  0.0611  0.2017
55054ION     NA97967  13.096  14.245  26.246 -0.0236  0.9776  0.4712
55055ION     NA97968  12.641  19.072   7.213  0.2908  0.2406  0.2895
55056ION     NA97969  25.124   2.140   4.848  0.1119  0.2413 -0.6387
55057ION     NA97970  19.698  15.771   6.389 -0.1757  1.2010  0.1704
55058ION     NA97971   4.512  23.780   5.033 -0.1631 -0.0757  0.7001
55059ION     NA97972  28.572  16.661   8.818  0.2050  0.3683  0.2171
55060ION     NA97973   1.065  24.761   8.965 -0.1903 -0.2548  0.3723
55061ION     NA97974  12.662  21.623  23.713  0.0072 -0.0684 -0.0416
55062ION     NA97975  15.516  19.784   8.730 -0.0595 -0.0373  0.1119
55063ION     NA97976   1.221  12.670  28.088  0.0722 -0.5035 -0.5255
55064ION     NA97977   7.807  30.529   3.419  0.3882  0.5138 -0.7155
55065ION     NA97978   2.285  17.260   3.026 -0.2143 -0.3618  0.1688
55066ION     NA97979  19.776  16.567  23.851 -0.3776 -0.5637  0.3615
55067ION     NA97980  27.264   5.547   3.793  0.4146 -0.0813  0.1548
55068ION     NA97981  32.246  30.513   0.311  0.3958  0.2571 -0.1822
55069ION     NA97982  13.247  17.710   8.786  0.3326 -0.4176 -0.1722
55070ION     NA97983   7.066  20.684   9.667 -0.2284 -0.6783 -0.0445
55071ION     NA97984  34.359   3.770   9.012 -0.0158  0.3503  0.0190
55072ION     NA97985  33.441   5.380   1.997 -0.2772 -0.4054 -0.2405
55073ION     NA97986  27.257  15.405   5.273  0.4878 -0.0215 -0.0119
55074ION     NA97987  25.161   4.332   2.368 -0.3025 -0.1968 -0.2395
55075ION     NA97988  25.028   3.306   9.948 -0.0390 -0.0934 -0.2335
55076ION     NA97989   4.495   2.722   3.165  0.4454  0.0036  0.5929
55077ION     NA97990  10.647  20.562   9.035 -0.1338 -0.0252  0.0948
55078ION     NA97991   0.039  25.179   4.961  0.1536 -0.0770 -0.0664
55079ION     NA97992  20.942  22.514   8.802  0.0472  0.2501 -0.5534
55080ION     NA97993   4.984  12.352   5.121 -0.3546 -0.2581 -0.4977
55081ION     NA97994   9.018  20.667  25.270 -0.0434 -0.2289  0.0038
55082ION     NA97995  13.054  22.166  26.773  0.0760 -0.2995  0.2983
55083ION     NA97996   5.374   3.373  26.487  0.0956 -0.1557 -0.2197
55084ION     NA97997   8.423  12.124  10.857 -0.3701  0.1413 -0.1376
55085ION     NA97998  26.646  25.016   8.921  0.1926 -0.4784 -0.2304
55086ION     NA97999  15.678   7.910   9.737 -0.1793 -0.3442  0.1332
55087ION     NA98000  19.310  31.518  26.622  0.5839  0.3414 -0.5322
55088ION     NA98001  20.615  16.481   5.869 -0.2945  0.1328 -0.0634
55089ION     NA98002  20.245   4.786  23.194  0.6509 -0.2244 -0.1410
55090ION     NA98003  21.556   2.383  25.302 -0.2399 -0.2221 -0.2243
55091ION     NA98004   9.077  31.142  25.497 -0.8806 -0.0584  0.3271
55092ION     NA98005  10.368  33.702  28.918 -0.1864 -0.7012  0.2924
55093ION     NA98006  10.624  27.246   2.955 -0.1672  0.1298  0.2874
55094ION     NA98007  20.861  18.161  19.480  0.3351  0.2242 -0.2449
55095ION     NA98008  30.185  26.725   0.606  0.4282 -0.2254 -0.3199
55096ION     NA98009   7.179   2.776  27.027  0.0640  0.2246 -0.0038
55097ION     NA98010   5.731  22.207   9.643  0.0702 -0.6207  0.5397
55098ION     NA98011  33.164  31.899  10.461  0.0859 -0.4187  0.6768
55099ION     NA98012  10.786  27.784  26.325  0.8647  0.5332  0.2586
55100ION     NA98013  11.161  13.925  26.900 -0.0138  0.5417  0.0072
55101ION     NA98014  16.832  26.611  25.073 -0.3946 -0.0066  0.1511
55102ION     NA98015  16.181  31.742   6.706  0.0689 -0.4120  0.0350
55103ION     NA98016  30.043   0.160   2.554 -0.3503  0.0522 -0.3458
55104ION     NA98017   8.044  14.640  26.798  0.1681  0.1141 -0.3848
55105ION     NA98018  31.862  13.360   3.926 -0.0236 -0.2017  0.0553
55106ION     NA98019   0.478   1.193  28.973  0.3789  0.0676  0.2665
55107ION     NA98020  34.378  15.383   4.302  0.3892  0.1040 -0.0251
55108ION     NA98021  18.784   3.658  26.612  0.0218  0.8386  0.5681
55109ION     NA98022  15.142  12.535  26.679  0.1104 -0.0211  0.4711
55110ION     NA98023  28.671  10.989  21.283  0.2592 -0.1482  0.2320
55111ION     NA98024  19.125  14.855   0.840 -0.2183 -0.3349  0.0700
55112ION     NA98025  23.582   3.369   1.460 -0.2062 -0.1545 -0.9411
55113ION     NA98026  30.620  26.094  29.742  0.1918  0.0926 -0.0992
55114ION     NA98027   4.191   7.497  12.887  0.3958  0.1613 -0.1362
55115ION     NA98028  20.059  10.490   1.916  0.3741 -0.0158  0.1712
55116ION     NA98029  23.525  17.442   5.960  0.1018 -0.2465  0.1209
55117ION     NA98030  19.427   0.056   4.854 -0.3902 -0.4278 -0.0299
55118ION     NA98031  23.943   5.367  29.620 -0.2617  0.1122  0.5157
55119ION     NA98032  13.457  15.024  26.930  0.3576  0.1170  0.1242
55120ION     NA98033  14.390  24.484   4.185  0.0538  0.4816 -0.3895
55121ION     NA98034  15.424   1.424   3.407  0.0517 -0.1679  0.0501
55122ION     NA98035  11.880   2.953  29.699  0.4329 -0.7174  0.0384
55123ION     NA98036  12.962   0.606  10.700 -0.6610 -0.1753  0.3175
55124ION     NA98037  13.316  10.639   9.166 -0.1867 -0.2483  0.5927
55125ION     NA98038  31.230  21.759   6.259 -0.2661 -0.1896 -0.1179
55126ION     NA98039   8.458  10.863   4.271  0.1784  0.0121  0.2112
55127ION     NA98040  24.929  30.123  29.531  0.0605  0.2428 -0.4793
55128ION     NA98041  33.001  16.686   4.466 -0.1183  0.2866 -0.5639
55129ION     NA98042   7.534  30.915   5.448 -0.7473  0.1231 -0.0504
55130ION     NA98043  32.707   5.346   9.448  0.4284  0.4930 -0.0637
55131ION     NA98044  30.930   7.481   5.655 -0.2336 -0.3713  0.9538
55132ION     NA98045  11.965   4.710   5.026  0.2681  0.5231 -0.0525
55133ION     NA98046   0.998  21.091   8.269  0.2546  0.3275 -0.7320
55134ION     NA98047   8.242  32.468   7.834  0.0125 -0.1701 -0.0033
55135ION     NA98048  28.354   3.774  24.878 -0.3943  0.0023  0.1353
55136ION     NA98049  17.475  29.388   4.225 -0.3179 -0.2901 -0.1234
55137ION     NA98050   6.372   1.034   1.660 -0.7395  0.2869  0.1044
55138ION     NA98051  32.221  24.243   5.451 -0.4292 -0.1578  0.2154
55139ION     NA98052  14.841  27.147  24.167  0.3203 -0.0808  0.1051
55140ION     NA98053  15.256   8.915  26.024  0.0840 -0.3094  0.1331
55141ION     NA98054  21.754  13.859  29.672 -0.1638 -0.2373 -0.0025
55142ION     NA98055  20.533  31.456   9.198 -0.0873  0.1959 -0.5710
55143ION     NA98056   0.037  16.942   6.116 -0.5641  0.1796  0.1489
55144ION     NA98057   7.406  20.885   3.303  0.1580 -0.1251 -0.1238
55145ION     NA98058  34.036   4.205   5.588 -0.1586 -0.0729 -0.0451
55146ION     NA98059  23.498  34.492   9.633  0.3420  0.4160  0.1623
55147ION     NA98060  19.527  23.334   5.712 -0.2736  0.1248 -0.2924
55148ION     NA98061  11.619  32.620   2.418  0.1990 -0.0223  0.0021
55149ION     NA98062  31.070  31.382  26.365  0.6047 -0.1594 -0.1033
55150ION     NA98063  13.123   1.857   3.592  0.1327 -0.1687  0.6423
55151ION     NA98064  20.631   7.802   9.354 -0.3513  0.7357  0.3284
55152ION     NA98065   8.109   9.844  11.649  0.1379 -0.1520  0.5404
55153ION     NA98066  16.212   6.119   3.468  0.1586  0.2556  0.0425
55154ION     NA98067   4.142   4.335   0.524 -0.0741 -0.1835  0.0233
55155ION     NA98068   1.651  16.278   2.843 -0.1250  0.4736  0.5110
55156ION     NA98069  12.426  34.161   4.169 -0.0522  0.3468 -0.1655
55157ION     NA98070   4.744  29.278   8.576 -0.2190  0.0246 -0.0250
55158ION     NA98071  26.428  15.137  23.911 -0.4425 -0.2944 -0.5828
55159ION     NA98072   3.194  20.700  25.148 -0.1752 -0.2435  0.2022
55160ION     NA98073   3.856   5.600  29.763  0.3007  0.3546  0.2947
55161ION     NA98074  33.414  11.264   9.494  0.3952  0.3434 -0.3034
55162ION     NA98075  17.972  32.039   8.427 -0.1864 -0.1339 -0.0878
55163ION     NA98076  17.398  31.395   8.228  0.1607 -0.3582 -0.0159
55164ION     NA98077  30.585   6.024  22.924 -0.3276 -0.1778 -0.6282
55165ION     NA98078  12.314  33.114   7.900  0.7655 -0.1902 -0.1227
55166ION     NA98079  21.187  15.664   4.251  0.4901 -0.0025 -0.2530
55167ION     NA98080  20.866  27.599  27.966 -0.5040  0.0098 -0.0902
55168ION     NA98081   3.011   6.147   3.268 -0.6595  0.0076  0.0691
55169ION     NA98082   8.801  14.089  29.245 -0.2165 -0.0266  0.7434
55170ION     NA98083   2.815  22.910  29.493 -0.5580  0.2332  0.1533
55171ION     NA98084  23.789   0.331   2.772 -0.9419  0.4275 -0.1525
55172ION     NA98085  16.514  18.518  28.717  0.0689  0.4717  0.5631
55173ION     NA98086  17.073  33.815   9.985 -0.2087 -0.0735 -0.5652
55174ION     NA98087   9.105  22.591   8.107 -0.3138 -0.2901  0.2935
55175ION     NA98088  33.729  15.861   9.280  0.3878 -0.6307 -0.4699
55176ION     NA98089  23.290  23.475   6.154  0.5318  0.2766  0.4310
55177ION     NA98090  17.641  15.860   4.055 -0.1477  0.1201  0.2522
55178ION     NA98091  32.445  19.310   5.471 -0.0295  0.4569  0.3088
55179ION     NA98092   5.352   8.196   9.744 -0.0659  0.3627 -0.1185
55180ION     NA98093  26.792   7.571  10.270 -0.3700 -0.3605  0.2666
55181ION     NA98094  16.012  13.912   5.736 -0.2049  0.5860 -0.1024
55182ION     NA98095  23.797  31.145  24.518  0.1813  0.6193  0.4059
55183ION     NA98096  21.697  32.156   9.363  0.5969  0.0370  0.4480
55184ION     NA98097  33.346  32.516   1.207 -0.0767 -0.0134 -0.1497
55185ION     NA98098  11.312  14.183   9.017 -0.0481 -0.2379 -0.0041
55186ION     NA98099   8.523  34.114   6.881 -0.1251  0.4380 -0.1648
55187ION     NA98100  13.841  27.023  21.829  0.1659 -0.2003 -0.5988
55188ION     NA98101   9.532  28.458   8.411  0.4317  0.2457 -0.2235
55189ION     NA98102  31.217   5.057  10.006  0.0122 -0.1742  0.2305
55190ION     NA98103   8.290  23.740   6.022 -0.5304  0.5059 -0.4999
55191ION     NA98104  28.292   2.387   0.040  0.3276 -0.0312  0.1926
55192ION     NA98105  29.411   0.522   9.447  0.4497  0.0985  0.5328
55193ION     NA98106  15.036   5.444   2.511  0.1373 -0.2646 -0.5181
55194ION     NA98107  16.606  13.324  18.287 -0.0187  0.1381 -0.2636
55195ION     NA98108  16.710  32.870   0.541  0.3959  0.0613  0.5426
55196ION     NA98109  19.148   6.230   0.003 -0.0832 -0.5670 -0.2650
55197ION     NA98110  32.207   0.977   7.904  0.3641  0.0031 -0.0801
55198ION     NA98111  13.963   0.013  28.073 -0.3929  0.1117  0.6576
55199ION     NA98112  19.691  21.347   4.007 -0.0566  0.5268 -0.3115
55200ION     NA98113  29.489  21.737  27.686  0.0097  0.1594 -0.4215
55201ION     NA98114  29.203   0.193   3.864  0.6186 -0.1106  0.1912
55202ION     NA98115   0.093   5.758   9.552 -0.0141  0.0536  0.9500
55203ION     NA98116  11.083  11.326   1.587 -0.0224  0.0223  0.2449
55204ION     NA98117  19.525  16.608  28.769 -0.0170 -0.1100  0.2782
55205ION     NA98118  11.577  23.546   9.418 -0.0415  0.8102  0.0435
55206ION     NA98119  20.667  19.334   2.842  0.0332 -0.2739 -0.3932
55207ION     NA98120  16.228  24.610   6.996 -0.3268 -0.0395 -0.7663
55208ION     NA98121  20.571  11.244  27.625 -0.5539 -0.3293  0.3534
55209ION     NA98122   8.607   8.613   2.486 -0.1629  0.2919  0.2360
55210ION     NA98123  15.770  18.698   8.764 -0.3588  0.2307 -0.5237
55211ION     NA98124   2.973   2.930   1.441  0.3615  0.2935 -0.1085
55212ION     NA98125  19.973   2.064   9.372  0.0737  0.0888  0.3278
55213ION     NA98126   1.739  15.277  26.200 -0.0799  0.6313 -0.1429
55214ION     NA98127   6.171   8.005  12.096 -0.0765 -0.3302  0.3223
55215ION     NA98128  14.712  29.662   7.546 -0.1979 -0.2906 -0.5747
55216ION     NA98129  10.127   5.065  28.395  0.3332  0.0486  0.4112
55217ION     NA98130  26.484   3.593   5.409  0.3216 -0.2768  0.0032
55218ION     NA98131  10.493  31.390  12.188 -0.1300  0.5767  0.0804
55219ION     NA98132  29.116   5.969   8.482  0.2784  0.0447  0.1781
55220ION     NA98133   0.935   7.613   8.715 -0.1003 -0.3435  0.4888
55221ION     NA98134  30.351   2.313  10.775  0.0921  0.0650  0.5822
55222ION     NA98135   0.324  28.533  24.403  0.0958  0.1400 -0.1371
55223ION     NA98136   2.539  29.679   7.910  0.1326  0.1263  0.4513
55224ION     NA98137  12.347  13.108   8.058 -0.5543  0.0357  0.2839
55225ION     NA98138  22.344  13.362  28.032 -0.1358  0.3582 -0.2926
55226ION     NA98139  19.585   5.459   5.377 -0.1248  0.3753  0.2330
55227ION     NA98140  10.615  22.364   7.570 -0.7490 -0.1435  0.3691
55228ION     NA98141  11.080  26.408  20.650  0.2298  0.4796  0.2023
55229ION     NA98142  18.931   6.468   8.771  0.0517  0.1525 -0.1664
55230ION     NA98143   2.939  33.325   5.660  0.0444 -0.0664 -0.1180
55231ION     NA98144  15.145  23.506   9.295 -0.3244  0.2782 -0.1584
55232ION     NA98145   3.545  18.498  28.922  0.1786  0.0110  0.0415
55233ION     NA98146   7.085  34.011   3.862 -0.1556 -0.0132  0.1314
55234ION     NA98147  18.993   9.838   6.792  0.1125 -0.2973 -0.0156
55235ION     NA98148  32.146  17.979   4.733  0.2851 -0.0061 -0.5073
55236ION     NA98149  32.045  13.613  22.933  0.0263  0.1698 -0.5179
55237ION     NA98150  31.465   9.890   1.469 -0.6873  0.6717  0.3057
55238ION     NA98151  28.974  13.860   0.211 -0.2939  0.3117  0.0269
55239ION     NA98152  15.378  10.094   8.705 -0.2391 -0.1600  0.0335
55240ION     NA98153  30.647   0.267  27.271  0.0770  0.0297 -0.3999
55241ION     NA98154  29.892   8.631   1.848  0.5585 -0.9014  0.2182
55242ION     NA98155  24.494   8.448   7.698 -0.1159  0.2527  0.1037
55243ION     NA98156   4.570  27.790  22.629 -0.3377  0.0276 -0.1790
55244ION     NA98157  11.426  25.082  10.135 -0.1778  0.1446  0.2967
55245ION     NA98158  25.403   2.908   5.786  0.5744  0.3469  0.2773
55246ION     NA98159  14.232  16.129  26.918  0.3513  0.0300 -0.0500
55247ION     NA98160  21.363  23.904   5.849  0.1519  0.3777 -0.2529
55248ION     NA98161  20.071  19.188  22.241 -0.2754 -0.5792  0.0725
55249ION     NA98162   5.487  18.461   2.968  0.3346 -0.0562 -0.2984
55250ION     NA98163  30.274   1.312   7.123 -0.1656 -0.0693  0.1624
55251ION     NA98164   7.099  16.831   7.002 -0.1595  0.2060 -0.0301
55252ION     NA98165  27.823  28.913   9.406  0.1192  0.0832 -0.0831
55253ION     NA98166  18.238  24.932   7.558  0.1682 -0.1398  0.1026
55254ION     NA98167  10.308  32.678  19.594  0.5644  0.6279 -0.0872
55255ION     NA98168  32.352  20.221   3.424 -0.0272  0.4641  0.0500
55256ION     NA98169  16.876  20.572  21.387  0.1293  0.1477  0.0011
55257ION     NA98170  12.061  24.950   8.871 -0.2254  0.5314  0.0555
55258ION     NA98171  23.565  15.221   9.177 -0.2213 -0.1243  0.0763
55259ION     NA98172   3.372  33.096   2.131  0.2683  0.1945 -0.1561
55260ION     NA98173  31.338  25.000   9.851  0.7545 -0.3162 -0.6796
55261ION     NA98174   7.935  33.331  12.258  0.6317 -0.3627 -0.1646
55262ION     NA98175   9.108  26.796  28.714 -0.1599 -0.0343 -0.1654
55263ION     NA98176  11.582  17.395  25.172 -0.1729  0.1571 -0.4934
55264ION     NA98177  25.649  11.889   8.751  0.2040 -0.0222  0.6754
55265ION     NA98178  25.881  16.180   8.720  0.3663 -0.4147  0.0051
55266ION     NA98179  16.744   1.844  10.394 -0.0356  0.1602 -0.5279
55267ION     NA98180   7.235  10.677   3.023  0.1529  0.1877  0.4233
55268ION     NA98181  21.891  10.038   0.935  0.2218 -0.0527  0.2110
55269ION     NA98182   2.263  24.977   8.875  0.4965  0.3866 -0.0700
55270ION     NA98183  30.466  26.367   5.192 -0.0886  0.2470 -0.2530
55271ION     NA98184  12.433   8.435   6.007 -0.2054 -0.6770  0.4536
55272ION     NA98185   7.631   1.355  12.157  0.3735  0.4752 -0.3755
55273ION     NA98186  20.758  23.701   1.289 -0.1160 -0.1116 -0.4333
55274ION     NA98187  17.560  19.436  25.192 -0.1116 -0.1585  0.2194
55275ION     NA98188  19.187  19.271  23.069 -0.2945 -0.6979 -1.0326
55276ION     NA98189   2.611  32.718   7.685  0.2957 -0.0332 -0.3503
55277ION     NA98190  10.675  23.912   5.787 -0.2690  0.2689  0.0550
55278ION     NA98191  20.595   7.156  23.970 -0.3753  0.1914 -0.2192
55279ION     NA98192  14.041  26.767   3.632 -0.1700 -0.4204 -0.5297
55280ION     NA98193   3.479  21.419   0.949  0.0602  0.1917  0.4205
55281ION     NA98194   3.971   8.764   1.953 -0.3583  0.1191 -0.1354
55282ION     NA98195  32.300  23.732   9.660  0.0991 -0.0694  0.5976
55283ION     NA98196  27.659   4.645   5.901  0.1155 -0.0114 -0.2954
55284ION     NA98197  16.748  15.741   7.116 -0.4365 -0.4272  0.4061
55285ION     NA98198   9.944   0.018   5.645 -0.6391 -0.0240 -0.1920
55286ION     NA98199  21.667  30.083   9.151 -0.2334 -0.1929  0.6489
55287ION     NA98200  28.111   1.608  10.611  0.1066 -0.2993 -0.1698
55288ION     NA98201   6.474  14.500   5.760  0.3440 -0.1312  0.0253
55289ION     NA98202  19.999   2.931   5.887  0.4314  0.0114  0.2101
55290ION     NA98203   1.537  12.676   7.383  0.4508  0.3083 -0.2455
55291ION     NA98204  20.380  31.944  28.696 -0.0321 -0.3169 -0.5948
55292ION     NA98205  30.110   5.933  10.935  0.0586  0.0686  0.5484
55293ION     NA98206  11.530  29.081   7.413  0.4241 -0.0644  0.1777
55294ION     NA98207   2.144  26.198   9.115 -0.2833 -0.2579  0.0498
55295ION     NA98208   4.529   5.998   0.053  0.2016 -0.4536  0.3115
55296ION     NA98209  16.295  11.749   2.259  0.1419  0.0142  0.1733
55297ION     NA98210  30.909   5.189  25.664  0.3080  0.4007  0.0838
55298ION     NA98211  15.438  24.539  26.641 -0.0317 -0.3444  0.0933
55299ION     NA98212  13.971  18.644   1.831 -0.0392  0.1289 -0.3220
55300ION     NA98213  10.177  13.254  27.328  0.0208  0.5307  0.3041
55301ION     NA98214   8.139  25.006  10.552  0.0910  0.1311  0.8108
55302ION     NA98215   3.354  23.983  29.387 -0.0603  0.3343  0.0112
55303ION     NA98216   8.356  32.752  12.379  0.9820  0.5346 -0.4757
55304ION     NA98217  21.241  20.649   8.279 -0.7004 -0.1509 -0.2353
55305ION     NA98218  10.730   6.572   7.551  0.2551  0.3025 -0.1811
55306ION     NA98219  29.201   7.879   3.141 -0.3672 -0.3305  0.0182
55307ION     NA98220  18.923  23.977  20.474 -0.8454  0.2008 -0.2607
55308ION     NA98221  23.961   3.391   7.337 -0.2422  0.1609  0.7312
55309ION     NA98222  15.641   1.610  10.543  0.3596 -0.1327 -0.1681
55310ION     NA98223  24.406   3.154  27.095 -0.0481  0.3091  0.4175
55311ION     NA98224  22.783  25.720  28.283  0.5379  0.6667 -0.0222
55312ION     NA98225   2.767   1.526  21.519  0.1938  0.0513 -0.2938
55313ION     NA98226  15.166  32.370   8.080 -0.0241 -0.2925 -0.4149
55314ION     NA98227   5.293  19.795  28.120 -0.1278  0.1167  0.1252
55315ION     NA98228  31.299  19.221   3.810 -0.3419 -0.7162 -0.4412
55316ION     NA98229  12.516  20.956  27.268 -0.7072 -0.1566 -0.1200
55317ION     NA98230  15.891  16.852   7.327 -0.2696 -0.1841 -0.3168
55318ION     NA98231  10.302   3.061   2.472 -0.1459  0.3199 -0.3368
55319ION     NA98232  28.382  21.138   9.174  0.0558  0.1541  0.1000
55320ION     NA98233  32.260  29.807   9.725 -0.4091 -0.5011  0.1972
55321ION     NA98234  20.934  26.769   7.808 -0.2349  0.4503  0.1163
55322ION     NA98235   5.640   3.638  25.381 -0.2036 -0.3901 -0.3589
55323ION     NA98236  33.212   3.700  11.695 -0.5448  0.1366  0.0733
55324ION     NA98237  33.834  29.924   2.609  0.2830 -0.5976  0.2299
55325ION     NA98238  22.091  31.852   8.906 -0.2437  0.0492  0.4046
55326ION     NA98239  30.329  32.447   7.146  0.4852 -0.2606 -0.3809
55327ION     NA98240  20.423  24.325   8.713  0.2767 -0.1346 -0.5038
55328ION     NA98241  30.260   7.583  11.321 -0.0141 -0.0913  0.7549
55329ION     NA98242  18.017  23.705  23.582  0.3869 -0.6719 -0.5197
55330ION     NA98243  16.366  33.144   1.769 -0.0077  0.2365  0.0272
55331ION     NA98244  25.875  18.979   5.174 -0.4668 -0.5500 -0.0191
55332ION     NA98245   6.397  10.474  11.671  0.2977 -0.3473  0.0663
55333ION     NA98246  19.760  10.421   5.691 -0.4455  0.0165 -0.6928
55334ION     NA98247  30.429  14.295   3.955 -0.4867 -0.4407 -0.3237
55335ION     NA98248   8.966   0.512   9.870  0.4273 -0.1962 -0.1194
55336ION     NA98249  13.015  32.324   5.912  0.4016 -0.2769  0.5715
55337ION     NA98250  29.046   2.551   9.281  0.4633  0.0556  0.0166
55338ION     NA98251  20.002  26.564   5.388 -0.1673 -0.4428 -0.1773
55339ION     NA98252   4.640  27.313   6.085 -0.1301  0.0087  0.3712
55340ION     NA98253  29.962  33.539  10.533 -0.0409 -0.3026  0.1973
55341ION     NA98254  15.887  23.185   1.041 -0.1825  0.1201 -0.1259
55342ION     NA98255   2.606  26.705  25.857  0.2699  0.0880  0.0476
55343ION     NA98256  34.063  13.987  23.866 -0.0318  0.3833 -0.0310
55344ION     NA98257   4.489   7.029   5.690 -0.8029 -0.2525  0.4907
55345ION     NA98258   9.104  10.322  29.429 -0.7557  0.2441 -0.1778
55346ION     NA98259  19.457  14.254  26.130 -0.1804 -0.6824 -0.5598
55347ION     NA98260   4.173  32.479   9.143  0.1981  0.4091 -0.2485
55348ION     NA98261  19.749  23.465  28.782 -0.3879 -0.0133 -0.6058
55349ION     NA98262   9.803  11.909   2.923  0.4011 -0.6087  0.3203
55350ION     NA98263  18.364   0.683   7.831  0.1313  0.3684  0.0581
55351ION     NA98264   0.108  16.549   8.032  0.2662 -0.2118  0.0098
55352ION     NA98265   6.519  10.759   3.978 -0.4009 -0.0634 -0.0849
55353ION     NA98266  26.571  18.087   9.555  0.0318 -0.3374  0.1333
55354ION     NA98267  12.787  11.427   4.439  0.2866  0.3895  0.2056
55355ION     NA98268  33.407   1.388   3.199 -0.1890 -0.4346  0.5338
55356ION     NA98269   2.770   4.061  19.505  0.2338 -0.2880  0.6486
55357ION     NA98270  24.456  24.613   5.152 -0.1891 -0.0819 -0.1973
55358ION     NA98271  14.996  13.723   2.536 -0.5368 -0.0673 -0.5120
55359ION     NA98272  19.750  24.226  18.784 -0.2057 -0.1747  0.3260
55360ION     NA98273  16.346  21.089   6.304  0.2115 -0.1410 -0.1970
55361ION     NA98274  21.806   6.118   1.219 -0.3210 -0.3426  0.4130
55362ION     NA98275   3.149  17.221  27.222  0.0030 -0.1216 -0.0823
55363ION     NA98276   1.173  20.141   6.479 -0.0983  0.3124  0.6762
55364ION     NA98277   5.985  16.671   4.969  0.9229  0.5214 -0.0224
55365ION     NA98278   9.180   9.838  10.887  0.2383 -0.3546 -0.0186
55366ION     NA98279   0.284   7.524  17.998 -0.0893 -0.0440  0.2794
55367ION     NA98280   9.936  33.854   2.269 -0.1219 -0.0624  0.2152
55368ION     NA98281  15.330  18.474   7.360  0.0672  0.3450  0.1784
55369ION     NA98282  27.971  23.474   8.898 -0.0972 -0.2586  0.4464
55370ION     NA98283  26.322  28.382   8.982  0.5931 -0.5888  0.6741
55371ION     NA98284  21.615  28.132   8.846  0.6027 -0.1046  0.1639
55372ION     NA98285  17.184  29.048   8.805  0.2453  0.0602  0.1586
55373ION     NA98286  15.770  17.728  22.466 -0.1297 -0.1899 -0.1654
55374ION     NA98287  11.228  16.307   8.173  0.0566  0.1567 -0.5834
55375ION     NA98288  15.166  27.547  28.308  0.1554  0.1684  0.5120
55376ION     NA98289  24.247  13.103   7.903 -0.0516  0.3735 -0.4377
55377ION     NA98290  16.630  34.060  11.036  0.0681 -0.7422 -0.0602
55378ION     NA98291  29.432  13.015   0.487  0.1736 -0.4263  0.5872
55379ION     NA98292   8.073  22.838  10.089 -0.5295 -0.1338  0.5139
55380ION     NA98293   4.674  30.811   9.653 -0.7940  0.4391  0.2786
55381ION     NA98294   2.106  27.769  10.148 -0.1807 -0.0055 -0.2594
55382ION     NA98295   5.908  24.857   3.133  0.2245  0.0047  0.5992
55383ION     NA98296  24.789  25.646  26.978 -0.0826  0.2405 -0.6027
55384ION     NA98297   6.159  25.833   5.178  0.0240 -0.1601 -0.0573
55385ION     NA98298  27.423   7.094   2.512  0.4896  0.3134  0.0347
55386ION     NA98299  19.038  30.596   4.205  0.2567  0.0163 -0.1568
55387ION     NA98300  11.325  30.420  29.026 -0.0519 -0.2293 -0.2427
55388ION     NA98301  29.895  17.722   2.926  0.1347  0.2040 -0.0973
55389ION     NA98302  33.388  33.111  10.621 -0.7672 -0.3079  0.3068
55390ION     NA98303  10.901  31.775  23.829  0.2947  0.1866  0.2471
55391ION     NA98304  27.630  26.866   6.081  0.1232 -0.4427 -0.7779
55392ION     NA98305   7.791  20.887   6.207  0.3087  0.0201  0.1212
55393ION     NA98306  26.783   0.102   5.397  0.7051  0.1574 -0.5435
55394ION     NA98307   7.653  21.790   9.685 -0.3072  0.0817  0.1438
55395ION     NA98308  29.826   6.149  28.725  0.2176 -0.0548  0.0408
55396ION     NA98309  31.809  22.741   3.498  0.0650 -0.1950 -0.1719
55397ION     NA98310  29.109  16.336  28.468 -0.4824 -0.0092 -0.1945
55398ION     NA98311  14.970   6.113  10.956  0.3140 -0.1182  0.5285
55399ION     NA98312  23.879  13.538   4.229  0.2103  0.1357  0.1222
55400ION     NA98313  12.367  25.989  27.615 -0.4916  0.1214  0.1783
55401ION     NA98314   3.260  22.151   4.714 -0.0441 -0.4773 -0.1109
55402ION     NA98315   6.765  16.700   9.879 -0.5060  0.0696 -0.3644
55403ION     NA98316  11.863  32.918  10.397  0.0694 -0.1640 -0.5292
55404ION     NA98317  23.899  17.511   4.314 -0.3743  0.3618  0.0335
55405ION     NA98318   7.466  11.947   0.609  0.1303  0.0565 -0.1408
55406ION     NA98319  14.483  23.698  25.952  0.3314 -0.1960  0.0971
55407ION     NA98320  13.120  24.126   7.193  0.1203  0.1732  0.0950
55408ION     NA98321  24.701  13.257   8.571 -0.4186  0.9800 -0.0898
55409ION     NA98322  23.491  16.447  27.585 -0.1024  0.3692  0.1640
55410ION     NA98323   9.251  32.665  12.004  0.3277 -0.2961  0.4928
55411ION     NA98324   5.795  30.045   6.362  0.7336 -0.0155  0.3096
55412ION     NA98325   0.068  12.722   9.387  0.1520  0.7534  0.3675
55413ION     NA98326  24.400  10.543   2.001 -0.4372  0.1994 -0.3036
55414ION     NA98327   0.451  22.633  23.589 -0.2196 -0.0485  0.3112
55415ION     NA98328  27.625  28.093   9.065 -0.1108  0.3147 -0.6366
55416ION     NA98329  13.422  14.781  27.774 -0.1907  0.3215 -0.3974
55417ION     NA98330  21.231  11.664   6.152 -0.0625 -0.0349  0.3239
55418ION     NA98331  22.811  22.568   8.330 -0.2156 -0.2817 -0.3682
55419ION     NA98332   5.911   5.398   7.564  0.6307 -0.0738 -0.1925
55420ION     NA98333  22.886  12.303   7.960 -0.0957 -0.0788  0.1589
55421ION     NA98334  14.190  19.452   8.856  0.0174  0.4349  0.2314
55422ION     NA98335  24.729  11.402   3.003  0.2027 -0.4545 -0.4150
55423ION     NA98336  18.404  12.856   8.355  0.3868  0.1858  0.0213
55424ION     NA98337  20.918  24.183   7.526  0.4777 -0.7774  0.1002
55425ION     NA98338   0.064   7.637  11.869 -0.1232 -0.1710 -0.3288
55426ION     NA98339  17.960  10.463  29.596 -0.6059  0.2912  0.3674
55427ION     NA98340   0.257  14.555   8.519 -0.1802 -0.0561  0.0749
55428ION     NA98341  15.010  31.152  10.681 -0.6132  0.2793 -0.0921
55429ION     NA98342  20.775  30.551   0.514  0.4811  0.5631  0.2753
55430ION     NA98343  26.819  29.079   5.953  0.2988 -0.3665  0.4035
55431ION     NA98344  19.206   5.704   6.467 -0.0231  0.1795  0.0156
55432ION     NA98345  28.913  19.311   2.998 -0.0038  0.1653 -0.5948
55433ION     NA98346  27.193   0.753  10.680  0.5490  0.1282  0.0314
55434ION     NA98347   5.975  10.899   7.991 -0.2536 -0.1697 -0.2859
55435ION     NA98348  11.725  29.040   1.796  0.4230  0.0176  0.0114
55436ION     NA98349   2.608  16.011   8.403 -0.1611 -0.2045  0.1778
55437ION     NA98350   8.736  29.439  10.287 -0.4801 -0.2875  0.4021
55438ION     NA98351  26.022  22.777   2.931 -0.3288  0.0820  0.0352
55439ION     NA98352  25.201  22.127   3.709 -0.2130  0.5386 -0.3493
55440ION     NA98353   1.425  32.882   1.835 -0.0256  0.1112 -0.3402
55441ION     NA98354  27.315  10.783   7.901  0.9058  0.4833  0.0161
55442ION     NA98355  23.610  13.211   7.982 -0.1461 -0.2002 -0.3367
55443ION     NA98356   4.013  15.912  10.078  0.4912 -0.2903  0.0501
55444ION     NA98357  28.556   1.736  14.842  0.1523  0.2047 -0.0891
55445ION     NA98358  14.790  29.863   6.479  0.4516 -0.0461 -0.1616
55446ION     NA98359  20.979  12.358   0.673 -0.1414 -0.7886 -0.2547
55447ION     NA98360  19.463  25.929   6.254  0.1961 -0.1202 -0.2826
55448ION     NA98361  34.390  29.506   7.125  0.1159 -0.0715 -0.3230
55449ION     NA98362   4.515  29.970   4.425  0.2888  0.4128 -0.3220
55450ION     NA98363  16.983  13.406  22.557  0.0545  0.1338 -0.2251
55451ION     NA98364  28.815  31.410   9.047  0.1132 -0.0518  0.3585
55452ION     NA98365  20.971  17.227   4.960 -0.2041  0.3901  0.0446
55453ION     NA98366  15.099  11.845   8.547 -0.3478  0.1037  0.4222
55454ION     NA98367  28.232  33.850  26.498 -0.3859  0.8028 -0.1495
55455ION     NA98368  24.248  17.887   7.320 -0.1307  0.6167  0.2079
55456ION     NA98369   8.575   0.084  12.857  0.0219  0.4220  0.5735
55457ION     NA98370  10.217   2.226   3.365 -0.0900  0.3339  0.0086
55458ION     NA98371  11.201  30.438   1.244  0.1992 -0.1446  0.2715
55459ION     NA98372  21.222  12.016   2.082 -0.3912  0.1121  0.3939
55460ION     NA98373  13.020   1.170  11.860  0.3964  0.4594  0.0055
55461ION     NA98374  25.017  15.237   3.406 -0.2393  0.3947  0.5576
55462ION     NA98375   0.917  11.168   7.201 -0.4470  0.0151 -0.3291
55463ION     NA98376  17.697  13.241   8.142  0.0952 -0.1650  0.5298
55464ION     NA98377  11.250  20.044  25.824  0.0591 -0.4946 -0.0894
55465ION     NA98378  18.317  22.834   8.520 -0.4423 -0.0952 -0.4975
55466ION     NA98379  26.295  11.586   3.330  0.2312  0.6561  0.0393
55467ION     NA98380   4.481  12.993  28.260 -0.0706 -0.1841 -0.0077
55468ION     NA98381  16.559  27.759   9.957  0.2982  0.5182 -0.1288
55469ION     NA98382  28.361  16.579   1.077 -0.0829  0.3191 -0.1837
55470ION     NA98383  24.898   6.965   0.642 -0.2763 -0.0533  0.0894
55471ION     NA98384   4.972  23.885  29.446  0.0079 -0.6001  0.1302
55472ION     NA98385   1.203   1.822  10.209  0.5746 -0.3217 -0.1226
55473ION     NA98386  31.798  33.088   3.153 -0.3886 -0.6976 -0.1549
55474ION     NA98387  26.304  22.892   4.159  0.7806  0.0940 -0.1706
55475ION     NA98388  18.932  20.717  28.544  0.3379  0.1821  0.0596
55476ION     NA98389  33.176  24.790   1.471 -0.1048 -0.0053  0.2578
55477ION     NA98390   8.622  20.953   2.222 -0.3296  0.1220 -0.1776
55478ION     NA98391  24.347  23.464  22.914 -0.1402 -0.8732 -0.0057
55479ION     NA98392  13.345   0.439  23.991  0.0302  0.0313 -0.0174
55480ION     NA98393  15.143   6.653  10.406 -0.3005 -0.3924  0.6428
55481ION     NA98394  23.632   3.097  10.224 -0.4047 -0.0545  0.6956
55482ION     NA98395  12.625  17.201   5.774 -0.0773 -0.2648  0.0077
55483ION     NA98396  22.128  18.365  18.704 -0.0768 -0.2605  0.1785
55484ION     NA98397   8.658  12.027  27.799  0.1427  0.0680  0.5973
55485ION     NA98398   8.036  15.858   9.234  0.1350  0.2647 -0.0241
55486ION     NA98399  24.397  27.383   4.292 -0.1707 -0.0943 -0.3600
55487ION     NA98400  12.522   9.536  27.428 -0.3680 -0.7193  0.0438
55488ION     NA98401  10.545  32.665   0.710  0.5955 -0.6333  0.1276
55489ION     NA98402  32.633  31.742   6.427 -0.0343  0.1093 -0.2457
55490ION     NA98403  19.878  20.965   6.492 -0.3397  0.1502  0.0126
55491ION     NA98404   2.696   2.702   7.730  0.3940  0.2419 -0.0658
55492ION     NA98405  31.126  28.971   1.835  0.1319  0.1614  0.1894
55493ION     NA98406   5.640   4.580   8.196 -0.0143 -0.6851 -0.0388
55494ION     NA98407  23.284  11.342   2.239  0.3091  0.8575 -0.0920
55495ION     NA98408  13.405   6.793  10.594 -0.0664  0.0674 -0.2605
55496ION     NA98409   1.909   1.286   6.761 -0.2296  0.3885 -0.4990
55497ION     NA98410   2.809  32.184   1.994  0.4502  0.2559  0.0501
55498ION     NA98411   7.747  24.552   5.156  0.5320  0.2974 -0.0200
55499ION     NA98412  16.517  10.099   8.288 -0.3368  0.2773  0.3452
55500ION     NA98413   8.987   9.206   9.470 -0.7524 -0.2717 -0.2741
55501ION     NA98414  31.277   3.614  11.716  0.4156 -0.5055  0.4118
55502ION     NA98415   6.991   5.419  27.275 -0.2142 -0.0360  0.0735
55503ION     NA98416  21.584   9.900   9.321  0.2484 -0.0228 -0.2955
55504ION     NA98417   5.854   9.651  12.030  0.4623  0.6183 -0.6821
55505ION     NA98418   2.109  29.607   7.294  0.0607 -0.0814 -0.1631
55506ION     NA98419   4.723  22.673   3.473  0.2978 -0.4937 -0.1113
55507ION     NA98420   4.360  11.436   7.698  0.0225  0.6012  0.3127
55508ION     NA98421   5.127   0.305  29.732  0.3629  0.0750  0.0124
55509ION     NA98422   1.033   3.226  19.521  0.2006  0.0449  0.2274
55510ION     NA98423  24.569  33.590  27.970  0.0400 -0.4109  0.2910
55511ION     NA98424  34.292  19.266   8.001 -0.4596  0.8330 -0.0102
55512ION     NA98425  14.487  17.086   3.776  0.3128 -0.2846 -0.2710
55513ION     NA98426  32.368  33.173  10.852 -0.0285 -0.1207 -0.3813
55514W        W98427  10.141  26.288   5.370 -0.0055  0.1211 -0.1330
55515W        W98428   3.444   3.759   0.517  0.2454  0.0010  0.0777
55516W        W98429   6.097  32.126  28.545 -0.1585 -0.2367  0.0045
55517W        W98430   4.113  30.127   7.762 -0.1335 -0.0033  0.1141
55518W        W98431   2.635   4.257   6.931 -0.3510  0.0306  0.1522
55519W        W98432  28.117   2.422  29.450 -0.1690 -0.3280  0.2740
55520W        W98433   7.628  32.301  18.773  0.1955 -0.0368  0.0320
55521W        W98434   0.797   6.450  27.501 -0.0500  0.1989 -0.0880
55522W        W98435  13.090   1.733   7.296 -0.1594  0.0873  0.0608
55523W        W98436  22.002  33.209  24.481  0.1899 -0.0328  0.2403
55524W        W98437   2.397  28.649  26.980  0.0213  0.1958 -0.1033
55525W        W98438   4.406   9.519  27.704  0.0829 -0.1211 -0.0440
55526W        W98439   4.717   2.562  24.296 -0.1222  0.0139  0.1562
55527W        W98440   0.381  34.299   6.933  0.1581 -0.0841  0.0525
55528W        W98441  31.942  10.993  10.416  0.1987 -0.3682  0.0605
55529W        W98442   6.651   5.988   4.692 -0.0259  0.2416 -0.1686
55530W        W98443  28.611  32.127  17.545 -0.1357  0.2299 -0.2538
55531W        W98444  26.606  27.182   0.466  0.0988  0.0979 -0.0934
55532W        W98445   0.345  34.177  25.826 -0.0015 -0.0607  0.2672
55533W        W98446   0.038   8.489   6.684  0.2060 -0.3899 -0.3019
55534W        W98447  29.281   1.322  10.537  0.3396 -0.0197  0.0050
55535W        W98448  29.271  29.007  26.403  0.2250  0.0154  0.0627
55536W        W98449   0.942  31.223   8.818  0.1058 -0.2077 -0.2060
55537W        W98450  29.054   6.238   4.961  0.0764 -0.1388  0.2729
55538W        W98451   7.430  26.269  27.783  0.3166  0.0715  0.1075
55539W        W98452  34.028   1.361   0.449 -0.0019 -0.2293 -0.2228
55540W        W98453   3.328  29.591  19.454  0.0221 -0.0196 -0.2732
55541W        W98454   0.051   0.019   0.564  0.0072  0.2061 -0.0560
55542W        W98455  24.314  10.386  28.546 -0.2489  0.2968 -0.0469
55543W        W98456  28.856   5.370  10.316  0.1855  0.2763 -0.2180
55544W        W98457   1.513  31.527   5.404  0.2089 -0.3358 -0.0701
55545W        W98458   4.304   8.220   1.365  0.1100 -0.0034  0.4118
55546W        W98459  30.294  33.850  29.248  0.4235 -0.3312 -0.3072
55547W        W98460   9.537   8.604  24.485  0.1874 -0.2387  0.2561
55548W        W98461  28.012  18.882   0.746 -0.1567 -0.0499 -0.1612
55549W        W98462  10.133   4.726  12.769  0.3344 -0.1074 -0.1052
55550W        W98463  24.934   3.748  20.641 -0.5751 -0.2676 -0.0671
55551W        W98464   7.013   3.865   0.281 -0.2015  0.1279 -0.0352
55552W        W98465   6.575   1.994   7.752 -0.0206  0.0845  0.2347
55553W        W98466  26.193   0.501   2.412  0.0481  0.1801 -0.2096
55554W        W98467   1.281   1.089   9.247  0.1727  0.1024 -0.2270
55555W        W98468  34.481   0.680  20.474 -0.0422 -0.0080 -0.0525
55556W        W98469  28.606   6.201   5.503 -0.2427  0.1198  0.0699
55557W        W98470   0.562  32.735   3.822 -0.1276 -0.2139 -0.2324
55558W        W98471  31.091   6.205   6.238 -0.0583 -0.0433  0.0361
55559W        W98472  22.049  24.393   4.348  0.0734  0.1986 -0.0519
55560W        W98473   3.522   5.190   2.956  0.1473  0.2963 -0.2367
55561W        W98474   0.940   2.399  24.119  0.1798 -0.1586  0.3534
55562W        W98475  24.607   9.661  29.457 -0.2155 -0.0117 -0.0146
55563W        W98476   2.487  27.829  22.449  0.1251  0.1081 -0.1584
55564W        W98477   0.973  29.227   6.698 -0.3234  0.1171 -0.0845
55565W        W98478   0.257   1.054   0.444 -0.0338 -0.1265 -0.2597
55566W        W98479   2.295   9.457  18.592 -0.0683 -0.0151 -0.0082
55567W        W98480   5.983   3.378   7.639  0.1838  0.1209  0.1783
55568W        W98481  33.694  23.401  20.252 -0.0242 -0.2305 -0.1447
55569W        W98482   4.405   2.217  11.577 -0.1113  0.1607  0.0417
55570W        W98483  32.770   9.175   8.963 -0.2688  0.1119  0.0480
55571W        W98484  32.685  11.463   7.951  0.0939  0.3187 -0.0500
55572W        W98485   2.511   1.468  27.169 -0.0682  0.0176  0.2190
55573W        W98486   6.553   6.687  10.163 -0.1021 -0.4262 -0.0797
55574W        W98487  10.287  19.688  23.762  0.0693 -0.2496 -0.1307
55575W        W98488  33.390  28.352   1.331 -0.1464  0.1312 -0.0941
55576W        W98489  18.556  14.114   0.026  0.0850  0.0241  0.2060
55577W        W98490   7.193  28.631  17.266 -0.1890  0.0161 -0.0070
55578W        W98491   4.011   7.790   1.505 -0.0526  0.1886  0.0514
55579W        W98492  13.075   3.945   8.321 -0.0600 -0.2690 -0.1892
55580W        W98493   3.540   1.254   3.805 -0.1541  0.2257 -0.1489
55581W        W98494  31.730  12.501  26.937 -0.0856  0.0468  0.0861
55582W        W98495  10.559  26.481   6.559 -0.4429 -0.4479 -0.3124
55583W        W98496   4.584  10.054  22.411  0.0973 -0.2770  0.1289
55584W        W98497   8.144   1.694   0.398  0.0825  0.0320  0.1026
55585W        W98498  25.086  28.724   7.029 -0.0566  0.2461 -0.0340
55586W        W98499  13.665  27.687  21.571 -0.1185 -0.3302  0.2320
55587W        W98500  31.468  29.183   4.996 -0.0683  0.0927 -0.1663
55588W        W98501  33.072   4.902  27.552 -0.4570  0.0920  0.0336
55589W        W98502  26.304  16.254   8.695 -0.0531 -0.2728 -0.3238
55590W        W98503  32.950   6.700  28.194 -0.1029 -0.2272  0.0772
55591W        W98504  27.677  34.345   4.579 -0.1437  0.0274  0.0077
55592W        W98505  14.297  32.981   0.861  0.2089 -0.1101  0.0269
55593W        W98506  34.299   2.316   3.574 -0.0700  0.0064 -0.3555
55594W        W98507   7.888  23.937  29.095  0.1065 -0.7548 -0.4544
55595W        W98508  33.692  34.371  10.757 -0.1714  0.3410  0.0311
55596W        W98509  31.224  27.760  26.477  0.1221 -0.4349  0.2470
55597W        W98510  10.292   4.095  22.581 -0.1267 -0.0631  0.0672
55598W        W98511  23.463  31.288  29.668  0.1755 -0.2792  0.1273
55599W        W98512  10.346   5.615  27.878 -0.6139  0.0352 -0.3435
55600W        W98513   4.007  23.031  24.969  0.1604 -0.0732  0.1347
55601W        W98514   3.376  10.086   6.056  0.2598 -0.0835 -0.1193
55602W        W98515   4.785   9.242  24.639  0.0548 -0.1550  0.1746
55603W        W98516  31.658  24.177   6.657 -0.2965 -0.2061  0.2198
55604W        W98517  34.278   8.279  26.558  0.0579  0.0077  0.1072
55605W        W98518  33.513   0.868   1.490  0.0240  0.2984  0.1727
55606W        W98519   7.947   1.575   4.924  0.1513 -0.1689 -0.0626
55607W        W98520  25.488  21.830   0.751  0.1009  0.2180  0.2410
55608W        W98521  14.634  29.374  21.212  0.3048 -0.0527 -0.2497
55609W        W98522  32.549  30.961   1.721 -0.1240 -0.0329 -0.2194
55610W        W98523   3.588   0.808   1.708  0.0253  0.0993 -0.1314
55611W        W98524  23.767  20.784  29.448  0.0453  0.0776 -0.1524
55612W        W98525   7.485  24.130  16.538 -0.1233 -0.0380  0.3261
55613W        W98526  30.792   0.138  27.667 -0.0878 -0.1319  0.1641
55614W        W98527  24.889   9.423  28.096 -0.3890  0.1264  0.0063
55615W        W98528  29.657  32.614   9.906 -0.0727 -0.1035 -0.0380
55616W        W98529   2.729   5.512  11.977 -0.0370  0.1121 -0.1508
55617W        W98530  31.496  20.723   2.724  0.2476  0.0307 -0.0548
55618W        W98531   2.338   3.493   3.287 -0.0203 -0.0129  0.0855
55619W        W98532  31.994  22.320   4.659 -0.1963 -0.0011  0.2086
55620W        W98533  29.873  32.299  29.149  0.0513 -0.0149 -0.0712
55621W        W98534   0.637  10.139   3.365 -0.0316 -0.2941 -0.0727
55622W        W98535   9.111  27.412  20.665  0.0626 -0.1671  0.2173
55623W        W98536  10.907  33.490  29.731 -0.0317 -0.1174  0.0414
55624W        W98537   4.233  12.010   9.967 -0.0666  0.0294 -0.1376
55625W        W98538  10.199   4.645  29.184  0.0696 -0.3083 -0.3650
55626W        W98539  32.022  10.519   0.365 -0.0586  0.0140  0.1055
55627W        W98540  31.997   5.064   1.476 -0.3914 -0.0134 -0.1540
55628W        W98541   4.574   0.431  23.804 -0.3887  0.0250 -0.3323
55629W        W98542   7.336  11.561   1.938 -0.0202 -0.0336 -0.2791
55630W        W98543   1.461   1.613  21.874 -0.0761 -0.1643  0.0736
55631W        W98544   2.907  10.137   0.438  0.1289  0.2909 -0.1248
55632W        W98545   0.280  32.634  24.733 -0.1640  0.3270 -0.2006
55633W        W98546   3.655   8.212  21.710  0.4425  0.1100  0.3842
55634W        W98547   9.023   0.308  26.808  0.1707 -0.2077  0.0108
55635W        W98548   2.888   3.432   9.831  0.0556  0.3726  0.0124
55636W        W98549   3.511   5.029   8.691 -0.3939  0.2055 -0.0061
55637W        W98550  27.094   9.681  28.020  0.2527  0.0277  0.2891
55638W        W98551   0.471   2.978  22.838  0.0911 -0.1743 -0.4280
55639W        W98552  28.503  32.620  25.271  0.2975  0.0973 -0.3386
55640W        W98553  29.281  31.894  25.050 -0.2407  0.0659  0.1557
55641W        W98554   0.428   1.391   3.036  0.0395  0.2109 -0.0547
55642W        W98555   4.867  32.590  24.480 -0.1363 -0.0281  0.0042
55643W        W98556   0.351  26.510   1.676  0.2131  0.2263  0.1816
55644W        W98557  12.666   3.849   6.106 -0.2193  0.1237 -0.2903
55645W        W98558  33.374   7.167   9.435  0.3418 -0.3381 -0.2055
55646W        W98559  11.341   0.805   4.294  0.1182  0.0227 -0.1967
55647W        W98560  31.087   6.760  10.947 -0.0869 -0.0634 -0.1682
55648W        W98561  25.596  24.815   6.613  0.0617 -0.0637  0.1423
55649W        W98562   5.308  11.305  22.753  0.0654 -0.1985  0.1201
55650W        W98563  31.240  32.016   9.866 -0.1973  0.1011  0.1202
55651W        W98564  10.771  11.039   2.393  0.2495 -0.0453  0.4477
55652W        W98565  11.294   0.472   7.051  0.0312 -0.0908 -0.1144
55653W        W98566  14.264   1.681   5.414 -0.0913  0.0928  0.2031
55654W        W98567   0.493   8.140   1.326  0.4357  0.0544 -0.1335
55655W        W98568   3.728  13.198   2.053 -0.2823 -0.1951 -0.2562
55656W        W98569   8.168  13.950  24.707 -0.2965 -0.5215 -0.0156
55657W        W98570   2.324  20.758   5.319 -0.2549 -0.1627  0.0249
55658W        W98571  30.872   4.400  27.474  0.0098 -0.1232 -0.3214
55659W        W98572   9.375  31.367  25.744 -0.0367  0.0983 -0.2580
55660W        W98573   1.677   0.268   6.136 -0.2167 -0.1828  0.0891
55661W        W98574   0.764  21.540  21.714 -0.1913  0.0070  0.1846
55662W        W98575  31.647  30.195   8.468 -0.1192  0.1766  0.0010
55663W        W98576   7.103   3.537  28.135 -0.1994  0.0537  0.2091
55664W        W98577  27.467  18.822  25.173  0.3409 -0.0163 -0.0775
55665W        W98578   4.629   2.453  26.789  0.0071 -0.2290  0.0140
55666W        W98579  33.374   8.036  18.210 -0.1859  0.0350  0.2156
55667W        W98580   4.231  28.603   0.030 -0.1010 -0.0650  0.2535
55668W        W98581  31.051  29.377  24.682 -0.2328 -0.0659 -0.3065
55669W        W98582  32.638   3.855   9.426 -0.1002 -0.2175 -0.0775
55670W        W98583   8.286   5.349  13.460  0.1832  0.0763 -0.1325
55671W        W98584  27.089   6.468  27.724 -0.0807  0.0607  0.0927
55672W        W98585   3.130   7.439   1.254 -0.2172  0.0463 -0.1974
55673W        W98586   9.300   8.122  26.216  0.1461  0.0172 -0.2137
55674W        W98587   4.059  10.171  21.196  0.0938 -0.0239  0.4436
55675W        W98588  22.940  33.923   6.282 -0.2333  0.0970 -0.1162
55676W        W98589   1.992   8.104   6.394 -0.1932 -0.1645  0.0047
55677W        W98590  32.782  26.501   2.837 -0.1705  0.1931 -0.0209
55678W        W98591   2.066  33.078  29.069  0.1770  0.2487  0.0425
55679W        W98592  27.192   1.902  27.798  0.0313 -0.0499 -0.1126
55680W        W98593  28.231   8.078   3.323 -0.3797 -0.1338  0.1309
55681W        W98594  12.445  17.695  27.482  0.1529  0.0543 -0.1361
55682W        W98595  32.901  17.236   2.614  0.0043 -0.2562 -0.1581
55683W        W98596   3.511   8.983  18.593 -0.0394 -0.1796  0.0652
55684W        W98597   9.233   5.630   7.235  0.0897 -0.1911 -0.2371
55685W        W98598   2.727   5.443   5.516  0.0319  0.2638  0.0851
55686W        W98599  30.561  10.823   2.575  0.0357 -0.0963  0.2873
55687W        W98600  31.685  10.501   2.639  0.3650  0.1372 -0.2257
55688W        W98601   6.467  33.789   5.366 -0.1263 -0.0754  0.1433
55689W        W98602  27.208  33.118  29.632  0.1373  0.5196  0.0513
55690W        W98603   5.641   5.425   2.988  0.0994 -0.1863 -0.3264
55691W        W98604   0.831  32.568   4.877  0.2460  0.0050  0.1440
55692W        W98605  34.267  23.850  20.607  0.1062 -0.1113 -0.3560
55693W        W98606  34.027   1.613  25.414 -0.1386 -0.2928 -0.0616
55694W        W98607   0.457  27.244  25.914 -0.0255  0.2713 -0.2819
55695W        W98608  10.234  12.411  27.161  0.2108 -0.0575 -0.0807
55696W        W98609  30.995   8.329   2.099  0.1556 -0.0522  0.0804
55697W        W98610  30.700   6.100   5.682 -0.0714 -0.0888  0.1579
55698W        W98611  33.099  10.801   1.318 -0.2049  0.0918  0.2894
55699W        W98612   1.308   6.220  28.546  0.1473  0.1696 -0.2713
55700W        W98613  12.468   9.125  17.714 -0.0642  0.1358  0.0341
55701W        W98614   1.772   2.878   0.025 -0.1166  0.0544 -0.0281
55702W        W98615   0.876   6.858  11.106 -0.0031  0.0476  0.1695
55703W        W98616   9.638  24.062   8.661  0.0070  0.0363  0.1324
55704W        W98617   4.874   1.206   4.330 -0.1127  0.1297 -0.1732
55705W        W98618  34.061   1.662  24.010 -0.0521  0.1950  0.2623
55706W        W98619  29.522  30.719   3.170 -0.0612 -0.0452 -0.0406
55707W        W98620  14.862  33.108   0.092  0.2359 -0.3038  0.0040
55708W        W98621  30.854   8.624   3.321  0.1066 -0.0927 -0.0110
55709W        W98622   7.677   3.730  21.758 -0.0340  0.0866  0.0069
55710W        W98623  22.971   5.428   2.794 -0.1455 -0.1054 -0.1356
55711W        W98624  34.445  31.620  29.711 -0.1405 -0.0093  0.2193
55712W        W98625   8.313   4.086  29.758 -0.0856  0.0728 -0.3156
55713W        W98626   1.217   6.067   3.854  0.0498  0.3910 -0.2446
55714W        W98627  34.107   9.191  15.591 -0.0405  0.1311  0.0745
55715W        W98628  28.219   5.040   6.541  0.0827  0.2935 -0.2313
55716W        W98629   0.702   4.607   1.503 -0.0347  0.0633  0.1747
55717W        W98630   6.213   2.133  13.129 -0.1249 -0.2386  0.0720
55718W        W98631   4.612  12.625  28.465 -0.0232  0.1175  0.0013
55719W        W98632  29.479   5.000   0.782 -0.4015 -0.3005  0.2207
55720W        W98633  23.442  31.872   1.171 -0.1625  0.0096 -0.0463
55721W        W98634  29.689  25.538  22.969 -0.3506  0.1139  0.2082
55722W        W98635   6.680  34.023  13.023  0.3029  0.3139 -0.2340
55723W        W98636   5.425   9.809  11.024 -0.3138 -0.1265  0.1251
55724W        W98637  30.621  33.890  27.153 -0.0781  0.0201  0.0891
55725W        W98638   0.736  18.937   9.771 -0.3093 -0.4367  0.2400
55726W        W98639  33.397  31.903   2.158  0.1514 -0.0017 -0.2320
55727W        W98640  13.784   0.533   2.449 -0.0079 -0.1910  0.1699
55728W        W98641  32.453  28.981  28.874  0.4557 -0.1475  0.2912
55729W        W98642  30.753   1.919  22.732 -0.0790 -0.1797  0.2031
55730W        W98643   4.971  27.978  27.284  0.0613 -0.0670  0.3099
55731W        W98644  32.279   1.619   0.864 -0.0825  0.2179  0.1496
55732W        W98645  10.969   2.354   5.832  0.1317 -0.1763  0.1542
55733W        W98646  34.109  13.432  16.833  0.0101 -0.0057 -0.0938
55734W        W98647   5.441   1.974   1.185 -0.1889  0.2238 -0.0805
55735W        W98648   1.683   8.573  22.936 -0.2637 -0.2360 -0.1129
55736W        W98649   8.876   8.374  22.477  0.0844  0.2431 -0.4004
55737W        W98650   4.470   2.370   1.893  0.0601  0.1264 -0.0321
55738W        W98651  32.377   5.722   3.040  0.0922 -0.1265  0.0774
55739W        W98652  10.105   5.185  27.981 -0.1490 -0.2279 -0.1675
55740W        W98653  26.258   7.220  29.269  0.0320 -0.0416 -0.1548
55741W        W98654   4.061   6.819   0.315 -0.1386  0.0737  0.0556
55742W        W98655   0.289   3.442  21.222  0.2521 -0.0471  0.1290
55743W        W98656  10.014   9.192   3.197  0.1453  0.2576 -0.2630
55744W        W98657  27.622  33.945   6.636 -0.2842  0.0961  0.0943
55745W        W98658   1.914  13.139  27.742 -0.0688  0.5618  0.6264
55746W        W98659   5.350   4.377  28.579 -0.2541  0.1064 -0.3682
55747W        W98660  28.777   2.890   1.090 -0.2644 -0.2858  0.2524
55748W        W98661   2.172  33.900   1.875  0.0240  0.0382 -0.0010
55749W        W98662  10.431  29.808  27.736 -0.1068 -0.2428 -0.2625
55750W        W98663  31.782  28.499   4.079  0.1641  0.0140  0.3660
55751W        W98664   7.600   7.523  25.599  0.0724 -0.3504 -0.3240
55752W        W98665   4.949   6.480  19.227 -0.2870 -0.0633 -0.0475
55753W        W98666   8.742  29.325   9.409 -0.0850  0.0076  0.2593
55754W        W98667   2.508   2.024   5.004 -0.2301  0.0167 -0.3409
55755W        W98668  12.854  32.847  29.454 -0.2125  0.0111 -0.1445
55756W        W98669  29.986  30.998   7.686  0.0079  0.2987 -0.1573
55757W        W98670  30.557   1.988   3.930 -0.0834  0.3053  0.0805
55758W        W98671  16.735  23.661  20.837 -0.2211  0.1536 -0.0876
55759W        W98672   4.534   0.229   6.318  0.2080  0.2043 -0.0871
55760W        W98673   0.405   1.497  25.219  0.2786  0.1650  0.1307
55761W        W98674  10.775   1.158   6.724 -0.2374  0.3433 -0.3539
55762W        W98675   9.430   4.558   3.364  0.2837  0.0055 -0.2190
55763W        W98676   8.216   5.762   7.290 -0.2186 -0.4639 -0.1264
55764W        W98677  26.874   6.614   2.190 -0.1708  0.1488 -0.2852
55765W        W98678   2.633   1.173  28.209 -0.0127  0.1642  0.1025
55766W        W98679   1.821  12.023  10.358  0.0776  0.1190 -0.1582
55767W        W98680  13.539   2.693   5.023  0.0308  0.2739 -0.0609
55768W        W98681  12.746   7.085  24.528 -0.1311 -0.1086  0.0273
55769W        W98682  31.631   0.454  29.252 -0.0661 -0.0214  0.1174
55770W        W98683  31.088   1.161  24.398 -0.0389  0.0486 -0.1217
55771W        W98684   2.509  33.786   8.881 -0.1942 -0.0284 -0.1860
55772W        W98685   4.831  33.794   5.502 -0.1303 -0.2043  0.0695
55773W        W98686  30.284  31.553   5.123  0.3807 -0.3101  0.2638
55774W        W98687  27.307   9.503  26.192 -0.0063 -0.1872 -0.0167
55775W        W98688  26.526   0.299   2.791 -0.2341  0.0400  0.1223
55776W        W98689   1.089  33.304   3.115  0.0158  0.0028 -0.0690
55777W        W98690   2.736   9.628  10.340  0.1218  0.1983 -0.1949
55778W        W98691  28.471  31.647   8.274 -0.1256 -0.2362 -0.1634
55779W        W98692  32.857   8.267  27.107  0.4529  0.0883  0.1876
55780W        W98693  31.983  26.694   1.380 -0.0602  0.3492  0.3938
55781W        W98694  17.718  32.149   7.046  0.1392  0.3207 -0.1283
55782W        W98695   2.379   1.436  24.078 -0.1153  0.2398  0.0218
55783W        W98696   4.613  11.504   4.319  0.1227  0.1598 -0.0921
55784W        W98697   3.847  33.696   9.870 -0.1028  0.0025 -0.0434
55785W        W98698   0.788   2.701  20.079  0.0927  0.0759  0.1663
55786W        W98699  32.972   7.842   9.075  0.0794  0.3322 -0.0672
55787W        W98700   2.995  28.466   3.741  0.0060 -0.2143 -0.2434
55788W        W98701  10.603   7.236  29.391 -0.1522  0.0464  0.2959
55789W        W98702  31.242   7.081  29.342 -0.0990  0.2749  0.1306
55790W        W98703  14.727  31.934  25.507  0.1175  0.1607 -0.3695
55791W        W98704   5.241  28.301  26.982 -0.1235  0.0491  0.0473
55792W        W98705  32.698   8.120  23.986  0.0557  0.1361 -0.1603
55793W        W98706  29.761   6.547   8.824  0.0788 -0.0933 -0.1423
55794W        W98707  25.155   4.984   3.527  0.0141  0.0744  0.0518
55795W        W98708  31.358   8.082  25.642 -0.2340  0.2633  0.2411
55796W        W98709   2.883   0.893   0.005  0.0626 -0.0954 -0.1236
55797W        W98710   6.712  15.645   4.420  0.0406 -0.1062  0.3489
55798W        W98711   6.177   1.011   6.942  0.1070  0.5502 -0.3304
55799W        W98712   8.324   2.376   7.760  0.1085 -0.0091  0.0590
55800W        W98713  12.855  30.580  24.371  0.0777 -0.1352 -0.3343
55801W        W98714   2.326  11.424   0.297  0.0818  0.0789  0.3917
55802W        W98715   4.317  25.092   7.354 -0.2372 -0.0163  0.0344
55803W        W98716   6.043  14.828   1.476 -0.0943 -0.2341  0.0783
55804W        W98717   5.834   1.608   1.686 -0.0288 -0.2908 -0.2475
55805W        W98718  11.595  34.430   1.298 -0.0426  0.0828 -0.5015
55806W        W98719  31.972   1.629   5.023  0.1009 -0.0904  0.0496
55807W        W98720   2.821  14.862  29.493 -0.1433 -0.0088  0.0479
55808W        W98721   6.875  34.306  29.692 -0.2922  0.1677 -0.1769
55809W        W98722   0.341  31.949  25.336  0.1038 -0.0484 -0.2378
55810W        W98723   2.342  26.948  22.718 -0.0061 -0.0432  0.0896
55811W        W98724  31.922  14.514   3.337 -0.0088  0.0785 -0.0391
55812W        W98725   4.696   5.312   5.658 -0.1564  0.1634 -0.0023
55813W        W98726  30.878   8.373  10.181 -0.1114  0.0391  0.2379
55814W        W98727   9.284  13.936  24.892  0.3241  0.0955 -0.0667
55815W        W98728  30.245  26.787   3.474 -0.0144 -0.0049  0.0257
55816W        W98729   9.581  20.637   0.946 -0.0973 -0.1476 -0.4147
55817W        W98730   5.397  23.003  22.756  0.0255  0.2824 -0.2823
55818W        W98731   1.909   5.966  26.709 -0.3658 -0.1690  0.0989
55819W        W98732   5.372  26.355  29.400  0.0446  0.0776 -0.0505
55820W        W98733  29.360  34.128  10.062  0.0968 -0.1083 -0.1954
55821W        W98734   3.385   3.875   8.347 -0.1669  0.0353 -0.1571
55822W        W98735  32.359  15.204  10.000  0.1111 -0.0362  0.1648
55823W        W98736  29.986   6.905   2.507  0.1047  0.0339  0.1754
55824W        W98737   1.804   4.248  26.352  0.0566 -0.0799  0.0480
55825W        W98738   1.681   6.516  27.962  0.0072 -0.2471  0.1059
55826W        W98739  34.424  27.901  26.779  0.1021 -0.3849 -0.0373
55827W        W98740  29.830  24.155   2.495 -0.0496 -0.2117 -0.0245
55828W        W98741   9.807   9.264   1.081 -0.0317 -0.0973 -0.0633
55829W        W98742  10.890  16.412  24.698 -0.1630  0.5324 -0.2681
55830W        W98743   4.823   3.040  26.108  0.0329 -0.1276  0.2150
55831W        W98744  12.479  10.711  18.078  0.2622 -0.1979  0.0279
55832W        W98745  33.953   0.331  26.818 -0.0801  0.3269  0.1526
55833W        W98746  29.448  32.559   2.347  0.0726 -0.2814  0.1454
55834W        W98747   5.436  21.669  22.523  0.0810  0.1516 -0.0976
55835W        W98748   8.219  32.815  27.272  0.2327  0.2926 -0.2262
55836W        W98749   5.014   2.215  19.996  0.2917 -0.1999 -0.3129
55837W        W98750   7.143   2.235  26.217  0.0703  0.1001  0.0497
55838W        W98751   9.173  32.770  10.641  0.3528  0.4282 -0.0191
55839W        W98752   3.577  34.202   4.990 -0.1754  0.1359  0.1358
55840W        W98753   7.275  19.906  22.476  0.3697  0.0032  0.0782
55841W        W98754  29.102  31.859   6.585 -0.0554 -0.1192 -0.1028
55842W        W98755  11.773  32.457  11.908 -0.0847 -0.0413  0.2160
55843W        W98756   8.981   6.721  29.001 -0.1230 -0.0575 -0.1087
55844W        W98757   3.357   6.982   3.508  0.1199  0.1408  0.0517
55845W        W98758   1.897  23.693   0.906 -0.0187 -0.0372 -0.0567
55846W        W98759  33.020   1.674   4.001 -0.1608 -0.0526  0.1468
55847W        W98760  34.084   7.799   9.617  0.3366  0.3570  0.1757
55848W        W98761   8.333   6.961  21.113  0.0527 -0.2373 -0.3419
55849W        W98762   3.183   4.222   0.983  0.0249 -0.2221 -0.0055
55850W        W98763  26.297   7.529  23.728 -0.1203  0.1636  0.0789
55851W        W98764  30.468   3.391  27.527 -0.1988  0.1095  0.1375
55852W        W98765  33.462   7.545  28.454 -0.1216 -0.0200  0.2952
55853W        W98766  34.366  30.550  26.959  0.3466  0.2217 -0.2135
55854W        W98767  11.260  22.560   2.241  0.1879  0.0379 -0.0929
55855W        W98768  11.983  34.299  28.650  0.0942 -0.1397 -0.0777
55856W        W98769  34.078   0.927   3.093 -0.1981 -0.1537  0.3014
55857W        W98770  11.631  24.301   7.495  0.1856  0.0987  0.0715
55858W        W98771   1.301   5.407   9.350 -0.0308  0.3138  0.0596
55859W        W98772  14.041   7.374   4.347 -0.1261  0.0117 -0.0772
55860W        W98773  29.562   8.288  10.588  0.2497  0.0410  0.0507
55861W        W98774   4.269  26.890   5.477 -0.1641  0.0239 -0.0187
55862W        W98775  31.682  33.349   3.497  0.1555 -0.3463  0.1642
55863W        W98776  30.651  31.471  27.531  0.1333 -0.0280 -0.0436
55864W        W98777   1.229   6.735   1.177 -0.1270  0.0158  0.0293
55865W        W98778  33.878  32.168   6.012 -0.1246 -0.3321  0.4156
55866W        W98779  22.198   5.220  29.089  0.0335  0.0793 -0.5157
55867W        W98780   7.155   8.365   3.320 -0.2913 -0.1652 -0.1145
55868W        W98781   7.008   8.987   4.821 -0.0872 -0.0214 -0.2307
55869W        W98782  28.731   5.894  21.814  0.0530 -0.0656 -0.0094
55870W        W98783  29.258   3.716  17.131  0.0269  0.0252  0.0506
55871W        W98784   3.365  30.683   3.951 -0.3436  0.3398 -0.3661
55872W        W98785   6.743   9.095   8.276  0.1145 -0.1988 -0.1331
55873W        W98786   6.796   6.912  26.773 -0.0915  0.0345 -0.0719
55874W        W98787   6.003  33.352  26.366  0.1973 -0.2176 -0.1875
55875W        W98788  10.651  33.396   3.880 -0.3017  0.4190  0.1097
55876W        W98789   2.980  33.015  26.884 -0.3555 -0.0044  0.0389
55877W        W98790  12.542  25.597   1.731 -0.3798 -0.1451  0.0495
55878W        W98791   0.025  32.898   1.261  0.1912 -0.0665 -0.0416
55879W        W98792   5.463   2.205  10.646 -0.0159  0.2626 -0.1086
55880W        W98793  31.843  11.713  27.694  0.0552 -0.1117 -0.1969
55881W        W98794  26.256  14.174   9.400  0.0080 -0.1735 -0.2602
55882W        W98795   5.480   8.658  24.998  0.3562 -0.1938  0.0043
55883W        W98796   2.219   7.371  11.819  0.1241 -0.2919  0.0370
55884W        W98797   2.857   3.448   6.734 -0.1135  0.1172 -0.2135
55885W        W98798  31.763   9.594   2.587 -0.0693  0.2311  0.0679
55886W        W98799  10.485  28.974  18.641  0.0848 -0.0330  0.0252
55887W        W98800   8.191  30.082   1.757  0.1379  0.1080 -0.0661
55888W        W98801  23.856  34.031  27.002 -0.3288 -0.1410 -0.0451
55889W        W98802  32.728   4.693   1.869  0.2460  0.1743 -0.1046
55890W        W98803   0.535   3.158  27.515  0.3230 -0.1969  0.2836
55891W        W98804  27.641  24.113  23.685 -0.1243  0.0427  0.4609
55892W        W98805  10.164  27.858   8.754  0.1289 -0.0586 -0.1075
55893W        W98806  17.377   4.632   0.028  0.2235 -0.0088 -0.0427
55894W        W98807  14.896  30.731   3.634 -0.0187  0.2783  0.0323
55895W        W98808   3.092  33.500  27.069  0.0219  0.1763  0.3413
55896W        W98809  12.043  32.482  29.195 -0.1811  0.0321 -0.3276
55897W        W98810   9.117   5.932  19.099  0.2988 -0.1609 -0.3208
55898W        W98811  11.690   6.384  25.954 -0.3163  0.0336 -0.0989
55899W        W98812   3.359   7.988   2.728  0.1092  0.0301 -0.0094
55900W        W98813  14.607  30.698   9.218 -0.0385  0.1544 -0.4234
55901W        W98814   4.278   5.434   2.994  0.0728 -0.0032 -0.0832
55902W        W98815  31.677   3.585   5.697 -0.1285  0.0049  0.0121
55903W        W98816  24.955  17.573   9.141  0.3741 -0.0919  0.2548
55904W        W98817  31.499  29.347   9.755  0.1557 -0.0823 -0.1598
55905W        W98818  31.000   6.208   7.540 -0.0471 -0.3435  0.0924
55906W        W98819   1.408   8.507   7.975 -0.0795  0.1449  0.3651
55907W        W98820  27.040  26.602   5.522  0.2024  0.0374  0.1064
55908W        W98821   6.990   1.983  25.858 -0.2199  0.2825 -0.0803
55909W        W98822  33.475  26.983   5.520 -0.1354 -0.1757  0.2341
55910W        W98823  31.596  31.491  26.973 -0.1788  0.2297 -0.3581
55911W        W98824   7.956  28.881   9.632 -0.2333  0.0006 -0.0177
55912W        W98825  10.826   6.864   7.841 -0.0349  0.4155 -0.0200
55913W        W98826  33.598   9.441  26.466  0.0540 -0.1634 -0.0892
55914W        W98827   1.302   5.031   9.698  0.3374 -0.1620 -0.0206
55915W        W98828  15.157  34.006   3.016  0.2132  0.0094  0.2840
55916W        W98829   3.408   0.216   4.838  0.2765  0.0823 -0.0462
55917W        W98830  31.314  33.724   7.882  0.0784  0.0819 -0.2505
55918W        W98831  10.106   0.014   1.350  0.2186 -0.2480  0.0887
55919W        W98832  28.581   4.374   1.749  0.0033 -0.2274  0.3403
55920W        W98833  33.599   7.963  10.694 -0.1542 -0.2790  0.2476
55921W        W98834   5.038  11.834   5.539 -0.0469  0.4644 -0.0897
55922W        W98835  32.767   9.394   4.993  0.2029  0.0670 -0.1787
55923W        W98836   8.218   1.631   4.507  0.1085  0.4109 -0.0920
55924W        W98837   0.869   5.515  10.629  0.1831  0.3675 -0.0386
55925W        W98838   5.631   4.649   9.537  0.2779  0.0590  0.0089
55926W        W98839  31.092  17.902   3.287  0.3638 -0.1920 -0.0441
55927W        W98840   8.841  30.717   2.476 -0.5926 -0.1402 -0.0386
55928W        W98841   6.539  33.036   0.341 -0.0691  0.0423  0.0964
55929W        W98842  30.477   6.149   6.540  0.0454  0.2689  0.0222
55930W        W98843   1.800   4.106   6.553 -0.0597 -0.0380 -0.1485
55931W        W98844   4.834  33.727   1.007  0.0800  0.2145  0.0271
55932W        W98845   0.150   5.527   9.171 -0.0343  0.0477  0.1053
55933W        W98846   5.981  30.858   2.732  0.1740 -0.0664 -0.0758
55934W        W98847  26.590  11.303  10.045  0.1621  0.2017 -0.3667
55935W        W98848   7.748   3.183  29.323  0.2766 -0.0749  0.2279
55936W        W98849   1.175  34.461   8.319 -0.0493 -0.1267  0.0236
55937W        W98850  27.554   1.525  27.262  0.1008 -0.1870  0.1412
55938W        W98851  26.532   9.575   1.507 -0.0614 -0.0336  0.1008
55939W        W98852   9.852   5.356  12.039  0.3779  0.1378  0.1541
55940W        W98853   1.064   7.089   5.109  0.0866  0.2442 -0.4039
55941W        W98854   3.877   2.593  26.103 -0.1907  0.2481  0.1091
55942W        W98855   1.235   5.583   3.088  0.0961 -0.2422 -0.0534
55943W        W98856   1.332   7.493  11.909 -0.1174 -0.1117  0.4017
55944W        W98857  28.973   1.573   5.096  0.0923  0.2106  0.0153
55945W        W98858   9.214  32.076   8.603  0.0437 -0.0558  0.0224
55946W        W98859   2.567  12.416   9.755  0.2487 -0.0935  0.2641
55947W        W98860   2.942   3.977   9.902 -0.1103  0.3371 -0.0026
55948W        W98861   6.675   3.453   7.606 -0.0122  0.0855 -0.1116
55949W        W98862   4.840   4.332  21.455  0.1205 -0.0752 -0.2656
55950W        W98863  33.565   1.948   7.351  0.1566 -0.0300  0.1489
55951W        W98864  28.736  10.867   1.530  0.0411  0.0931 -0.0401
55952W        W98865  27.432   2.439   7.128 -0.0471  0.1258  0.0211
55953W        W98866   9.466  30.233   1.321  0.5192 -0.2536  0.2593
55954W        W98867   5.743   8.668  10.876 -0.1662 -0.0320 -0.2623
55955W        W98868  10.069  34.417  29.036  0.1063  0.3074 -0.1917
55956W        W98869   3.725  31.742   3.832  0.1748  0.1138 -0.3533
55957W        W98870  28.166   5.904   6.281  0.1581 -0.0585 -0.0070
55958W        W98871  32.144   9.944   6.945  0.1763  0.1009  0.2623
55959W        W98872  32.287   5.392   8.085 -0.0278  0.0160  0.0445
55960W        W98873  33.187   1.946  29.644 -0.2115  0.0387 -0.0398
55961W        W98874   6.289  26.921   5.486 -0.0099  0.0821  0.1632
55962W        W98875   1.033   0.724   2.121  0.4771 -0.0813  0.1921
55963W        W98876  23.131  34.388  28.302  0.0948 -0.5166  0.0277
55964W        W98877  29.589  14.171   7.401  0.2233 -0.2783  0.0619
55965W        W98878   6.271  28.752   6.905  0.3061 -0.3008 -0.2368
55966W        W98879   0.475  34.450   3.429  0.0459  0.0938 -0.2356
55967W        W98880   8.654   2.235   8.140 -0.1199  0.0841 -0.0633
55968W        W98881  29.707  11.200   9.841  0.2783  0.0085 -0.0003
55969W        W98882   8.772   7.924   9.820 -0.1580  0.0081 -0.1802
55970W        W98883   5.584   6.628   5.014 -0.1774  0.0292 -0.2356
55971W        W98884   6.565  32.735   4.208 -0.3482 -0.0519  0.1708
55972W        W98885   7.041   8.055  28.040  0.2237 -0.0093 -0.0357
55973W        W98886   1.467  12.335  27.989  0.2448  0.0554  0.0335
55974W        W98887  30.290   9.889   6.614  0.1747 -0.0974  0.1304
55975W        W98888  33.506   3.419  10.376  0.0446 -0.0680 -0.0722
55976W        W98889   3.931  12.909   5.246 -0.1632 -0.0015 -0.0446
55977W        W98890  31.936  33.431   3.986  0.0980  0.3873  0.0527
55978W        W98891  21.814   3.247   4.649 -0.0635 -0.2212 -0.0903
55979W        W98892   3.803   7.192  11.410 -0.0444 -0.2965 -0.2760
55980W        W98893  31.804   2.525   7.436  0.0336 -0.3281  0.0426
55981W        W98894   0.843  10.039  29.205  0.0559 -0.0758 -0.2875
55982W        W98895  31.693   2.134  22.851 -0.1926 -0.2629  0.0237
55983W        W98896   0.597   9.728   3.008 -0.2277 -0.0325 -0.0194
55984W        W98897  25.454  29.957   0.198  0.0317 -0.2778  0.0645
55985W        W98898   5.009  11.482  27.839 -0.3385 -0.0103 -0.2110
55986W        W98899   2.615   4.140   2.535  0.3106 -0.2235  0.1023
55987W        W98900  10.223   5.591  23.159  0.4763  0.1583  0.0770
55988W        W98901   3.068  32.621   8.428  0.0971 -0.2605 -0.2271
55989W        W98902  31.264  10.999   8.769 -0.0876 -0.2154 -0.0991
55990W        W98903  27.653  32.468  29.517 -0.3591 -0.0316  0.2889
55991W        W98904  28.234   9.860   5.625  0.0235 -0.2148 -0.2192
55992W        W98905  28.930   2.626   3.616 -0.0067  0.1621  0.2494
55993W        W98906   7.182  16.972   8.714 -0.1829 -0.2751  0.0279
55994W        W98907  11.510   6.796  10.800  0.0344 -0.0999  0.0492
55995W        W98908  30.979  30.054   8.857 -0.0173 -0.1375 -0.0112
55996W        W98909   2.478  32.461  10.720 -0.0037 -0.1350 -0.1026
55997W        W98910  33.129   0.796  27.590 -0.0629 -0.0971  0.0706
55998W        W98911  11.146   8.771   7.454 -0.0757  0.0748 -0.1462
55999W        W98912  32.085   7.325   6.186 -0.2569  0.1771  0.2142
56000W        W98913  11.760  15.614  24.131 -0.1830 -0.3067  0.2695
56001W        W98914  32.305   6.146  27.567  0.1038 -0.2061 -0.1521
56002W        W98915  33.725   4.079   3.349 -0.0337  0.1583  0.0151
56003W        W98916  33.636  33.775  21.012  0.0164 -0.2621 -0.4924
56004W        W98917  32.587   5.762   7.969 -0.1499  0.0361 -0.0878
56005W        W98918   4.236   9.469   7.480 -0.1767  0.0863  0.0015
56006W        W98919  34.041  32.088   6.496 -0.1445 -0.0181 -0.1871
56007W        W98920   0.233  10.727   9.581 -0.2279 -0.2111  0.3143
56008W        W98921  28.923  13.415   0.362 -0.2487 -0.0360 -0.2286
56009W        W98922   2.918  31.924   8.832  0.0773  0.3078  0.3171
56010W        W98923   5.317  27.623   6.502 -0.1581  0.1051  0.3548
56011W        W98924   7.710  33.266   3.785 -0.0018  0.0039  0.0954
56012W        W98925   9.911   4.758   0.421 -0.1010  0.2611 -0.2151
56013W        W98926   4.617   4.468   3.280 -0.2387 -0.3204  0.2486
56014W        W98927   0.864   5.261   9.640 -0.1664  0.0495  0.3444
56015W        W98928   8.872  10.412  11.935  0.1213 -0.2383  0.3420
56016W        W98929   1.529  30.823  10.611 -0.1162  0.1867 -0.0347
56017W        W98930   0.712  12.480   1.409  0.1958 -0.3185  0.3001
56018W        W98931  30.229  32.075   1.860 -0.0451  0.1027 -0.0292
56019W        W98932   5.465  24.677  24.702 -0.0741 -0.0223  0.1074
56020W        W98933  27.435   4.285   9.729 -0.3276 -0.0694 -0.2013
56021W        W98934   4.762  29.476  20.356 -0.0088 -0.0920 -0.1286
56022W        W98935   5.423  29.210   6.339 -0.1132 -0.1495 -0.2923
56023W        W98936  10.960   7.197   4.976 -0.2558  0.0856  0.0768
56024W        W98937   1.922  10.012   6.642  0.1775 -0.5055  0.0707
56025W        W98938   4.185   8.326   4.278  0.3579 -0.1802  0.0817
56026W        W98939  12.813   3.085  29.235 -0.0977 -0.1260 -0.3561
56027W        W98940  15.764   3.141   0.363  0.1278  0.2293  0.1211
56028W        W98941   6.158  32.166  11.294 -0.2198  0.0178 -0.1236
56029W        W98942  29.899   7.924  27.384 -0.0022 -0.0561 -0.0758
56030W        W98943   0.538  33.674  25.690 -0.2077  0.1663 -0.1144
56031W        W98944  28.450  19.061  27.674 -0.1515  0.1764  0.2126
56032W        W98945  32.924   1.156   5.336  0.1759 -0.2847  0.0490
56033W        W98946   2.422   0.556   8.662  0.2497  0.1269 -0.1337
56034W        W98947  25.030   7.925   4.880 -0.1837  0.0117 -0.3304
56035W        W98948  10.842   4.170  10.750 -0.0548 -0.0542 -0.2607
56036W        W98949   8.193  29.344   6.109  0.3489  0.1683 -0.1949
56037W        W98950   4.127  22.512  22.003  0.2582 -0.1005 -0.2899
56038W        W98951   4.315   0.166  11.187 -0.0131 -0.1088  0.0125
56039W        W98952  20.540   7.198  27.817  0.0219 -0.0829 -0.1327
56040W        W98953  30.779  10.940   0.919  0.1155  0.1717  0.0316
56041W        W98954   8.111   4.341  11.593 -0.1593  0.0081  0.0162
56042W        W98955  34.382   1.655   5.169  0.3293 -0.1802  0.2257
56043W        W98956  11.263  21.552   9.284  0.0648  0.0389  0.1757
56044W        W98957   4.796   3.801  29.776 -0.1570  0.0172 -0.1626
56045W        W98958  30.738  34.327   9.130 -0.2442 -0.0936  0.0501
56046W        W98959  22.153  23.398  28.449  0.0268 -0.2672 -0.1977
56047W        W98960   2.386   0.446   4.648  0.0119 -0.0728 -0.0573
56048W        W98961   3.979   2.505  10.761 -0.0882 -0.0142 -0.3826
56049W        W98962  31.924   2.131   4.661  0.3341  0.0118  0.0451
56050W        W98963   5.463   7.770  21.655 -0.1550  0.0822 -0.1694
56051W        W98964   1.353  31.084   8.537  0.0226  0.0301  0.0253
56052W        W98965   5.699  12.335   7.545 -0.1217 -0.1662  0.1272
56053W        W98966   7.922  34.012   9.906  0.0043 -0.1582 -0.0922
56054W        W98967  13.035  30.227   8.565  0.1244  0.1207 -0.1469
56055W        W98968   5.149   7.871   9.953 -0.1634  0.0143  0.2352
56056W        W98969  26.236   7.246   9.406 -0.1883 -0.1164  0.0909
56057W        W98970  32.469   1.385   4.061  0.0294  0.0053 -0.0411
56058W        W98971   2.398   2.572   5.819  0.1700 -0.2685  0.2673
56059W        W98972   0.560   0.099  11.012 -0.1353 -0.0566  0.1780
56060W        W98973   4.889  29.458  24.702 -0.2614  0.0287 -0.0870
56061W        W98974  10.538   3.346  24.839 -0.2330  0.1132 -0.0278
56062W        W98975  26.607   6.484   1.741 -0.0604 -0.3915 -0.0540
56063W        W98976  31.700   0.443  20.296 -0.3707 -0.0238  0.0463
56064W        W98977   2.202   8.042  12.238 -0.2887  0.0113  0.0081
56065W        W98978  33.253  32.547   5.746 -0.0539 -0.1758  0.1578
56066W        W98979   1.069   7.601   1.715  0.2541  0.1285  0.0060
56067W        W98980   0.503   4.269   9.653  0.3015  0.0149  0.3231
56068W        W98981   5.949   7.612  28.718  0.1054  0.1912  0.1217
56069W        W98982   4.302  33.594   3.546 -0.0072 -0.1742 -0.0864
56070W        W98983   4.251  29.415  25.595  0.0205  0.1155 -0.3167
56071W        W98984  27.709   0.912  28.307 -0.1999 -0.0104 -0.0323
56072W        W98985   6.932  10.948   5.186  0.2043  0.2289  0.1744
56073W        W98986  26.059  31.913   7.158  0.2548 -0.0587  0.0463
56074W        W98987   9.279   6.685   5.983  0.3209 -0.0097  0.1431
56075W        W98988  33.823   8.608   4.871 -0.0196 -0.1529  0.1566
56076W        W98989  33.458   9.688   6.031 -0.0330  0.0744  0.2836
56077W        W98990   1.957  33.686  10.208  0.0052  0.2678 -0.2011
56078W        W98991  33.478   0.140   9.389 -0.4092 -0.3043  0.2213
56079W        W98992  26.521  32.433   6.285 -0.2178 -0.0741 -0.1669
56080W        W98993  31.457  24.326   4.807 -0.2590 -0.1471 -0.1246
56081W        W98994  28.708  33.106   9.234 -0.0175 -0.2534 -0.1171
56082W        W98995   4.267   7.596   1.944 -0.2604 -0.4139  0.1524
56083W        W98996   5.832  27.922   5.397  0.2549 -0.1243  0.0610
56084W        W98997   1.666   4.332  11.382 -0.0003  0.0715 -0.0475
56085W        W98998  30.286  13.190   4.519  0.1189 -0.0116 -0.0036
56086W        W98999   0.573   7.767   5.133  0.0133  0.0217  0.1401
56087W        W99000   7.077   5.634   8.279 -0.2635 -0.0300  0.3394
56088W        W99001   1.149  34.314   9.034 -0.1626 -0.1640 -0.2132
56089W        W99002  10.182  10.589   9.297 -0.0656 -0.0713 -0.0363
56090W        W99003   3.199  12.110  10.227 -0.2037 -0.1438 -0.2329
56091W        W99004  28.013   7.688   6.451  0.0434  0.0421  0.1068
56092W        W99005   4.345  33.405   8.550  0.2484 -0.1715 -0.1175
56093W        W99006   8.101   7.165  12.301 -0.1459 -0.2095 -0.1281
56094W        W99007  30.731   4.277  29.550  0.1589  0.3108 -0.0501
56095W        W99008   6.186   5.175  11.599 -0.1668 -0.0726 -0.2020
56096W        W99009  27.528  13.721  18.048  0.5053  0.2530 -0.2752
56097W        W99010  27.457   0.866   4.522 -0.0493 -0.1261  0.1417
56098W        W99011   3.790   7.277   8.877 -0.0052  0.0182 -0.1252
56099W        W99012   4.534   0.151  23.397  0.1587  0.0654 -0.0059
56100W        W99013  26.942  31.199   1.759 -0.2097  0.0868 -0.0097
56101W        W99014   3.189   6.550   3.296 -0.1947 -0.1750  0.1168
56102W        W99015  33.889  10.773   6.191  0.0853  0.2083 -0.6206
56103W        W99016  29.715  31.480  25.350  0.4116  0.1655 -0.2125
56104W        W99017   7.180   8.181  26.854  0.1246 -0.1857 -0.2179
56105W        W99018   5.642   1.582   6.110  0.1130  0.1252  0.4051
56106W        W99019   2.802   7.341   3.213 -0.0333  0.1579 -0.0521
56107W        W99020  17.692  10.133  28.927 -0.0672  0.0930 -0.0780
56108W        W99021   3.634   5.118  28.735 -0.0166 -0.0062  0.0469
56109W        W99022   9.749   7.700  12.083  0.1202  0.0015  0.0691
56110W        W99023  27.925  30.727  24.752  0.0414  0.1722  0.2562
56111W        W99024   3.322   8.929   0.107 -0.1991  0.2244 -0.1932
56112W        W99025   6.030   3.027  28.517 -0.1348 -0.1774  0.0877
56113W        W99026  19.489  28.889   1.449  0.0996  0.1030  0.0635
56114W        W99027  33.073  11.486   0.149  0.3550 -0.3054  0.0043
56115W        W99028   6.899   2.544  12.208  0.2040  0.1496  0.2111
56116W        W99029   2.342   2.249   4.149  0.1337 -0.1912 -0.0007
56117W        W99030   9.411   8.937   9.531 -0.0762 -0.3535 -0.0646
56118W        W99031   2.611   7.842   8.980 -0.0368  0.1445 -0.3344
56119W        W99032  11.002  27.835  10.011 -0.0395  0.1181  0.2800
56120W        W99033   2.707   7.135   9.457 -0.0099  0.3515  0.3162
56121W        W99034   5.695   3.950  29.391  0.0917 -0.1540  0.1312
56122W        W99035   5.570   0.261   6.302 -0.0487 -0.1243 -0.4116
56123W        W99036   5.210  29.462  10.723  0.2355 -0.0580 -0.0914
56124W        W99037   3.575  18.338   8.210  0.0062  0.2134 -0.0185
56125W        W99038  11.200  28.590   7.987  0.0461  0.3791 -0.2028
56126W        W99039  25.199  32.725   4.319  0.0932  0.0980  0.0294
56127W        W99040  33.278  12.203   9.244 -0.0641  0.3351 -0.1805
56128W        W99041  33.951   1.225   6.300  0.0339 -0.0678 -0.2570
56129W        W99042   5.109   3.027   7.628 -0.2070 -0.3206  0.2763
56130W        W99043   7.104  31.160   4.890  0.2067  0.4102  0.4671
56131W        W99044   9.382  32.036   4.253  0.0111  0.0285  0.0372
56132W        W99045   1.224  29.172   9.240 -0.1558 -0.0547 -0.0847
56133W        W99046  15.365  32.895   1.746  0.1963 -0.2620  0.2003
56134W        W99047  30.942   9.138  26.444 -0.1841 -0.0883  0.1429
56135W        W99048   0.210   9.382   2.900 -0.0543  0.1920  0.3624
56136W        W99049  27.292   6.755   2.020 -0.2775  0.1900 -0.2144
56137W        W99050   3.116   0.798  10.023 -0.0131  0.0383 -0.3418
56138W        W99051  11.652   0.495   4.550 -0.1777  0.0820  0.1465
56139W        W99052   8.757  29.025   8.150  0.4642 -0.4966 -0.2292
56140W        W99053   5.445  17.595   2.587 -0.1155  0.1450 -0.0335
56141W        W99054   8.687   1.976   4.357  0.1156  0.1367  0.2239
56142W        W99055  33.930   7.752   3.724 -0.0893 -0.0423  0.0767
56143W        W99056  33.515   4.527  11.526 -0.1119  0.4392 -0.0592
56144W        W99057   8.178  19.213   5.660 -0.0632  0.1802  0.0008
56145W        W99058   7.773   9.407  10.399 -0.0056 -0.0893 -0.1445
56146W        W99059   4.368   1.668   9.707 -0.1531  0.0944 -0.1198
56147W        W99060   4.907   5.555  19.205 -0.0935 -0.1376  0.2181
56148W        W99061   8.559   9.727  20.059 -0.0840  0.0832 -0.0417
56149W        W99062   3.473   5.604  12.747  0.2203  0.0495 -0.1031
56150W        W99063   6.610  18.868   8.047  0.1750 -0.0164 -0.1932
56151W        W99064  23.562  29.395  29.233 -0.0128  0.1279 -0.2742
56152W        W99065  29.210  32.373   9.591 -0.0568  0.2193  0.0314
56153W        W99066  33.737  11.988  29.642  0.0995  0.1949  0.0391
56154W        W99067  28.924  17.279  29.557  0.1584  0.0243  0.2450
56155W        W99068  32.147   4.918   3.149 -0.1272 -0.0509  0.0819
56156W        W99069  33.241   5.818   3.954  0.0130 -0.0914 -0.2692
56157W        W99070   0.223  32.573   0.861  0.0016 -0.0424 -0.1018
56158W        W99071   3.791  10.817  10.706  0.1318  0.0832  0.3353
56159W        W99072   5.141   3.087   2.422  0.0488  0.0478 -0.0336
56160W        W99073  14.399  10.777   1.099 -0.1484 -0.0891  0.0235
56161W        W99074   4.767   4.640  13.184 -0.1673  0.0936 -0.1532
56162W        W99075   1.865  11.551  10.121 -0.3071 -0.2561 -0.2190
56163W        W99076   2.039  34.179  26.237  0.0552  0.2340  0.3624
56164W        W99077  27.505   5.841   9.438 -0.0140 -0.1495  0.0926
56165W        W99078   4.245  13.380   5.196 -0.1728 -0.1016  0.0613
56166W        W99079  24.049  11.956  27.566  0.0176 -0.0866  0.0327
56167W        W99080  12.654   5.727   0.001 -0.0759 -0.0184  0.1216
56168W        W99081  33.123   1.385   6.020 -0.2728 -0.2312 -0.0336
56169W        W99082  10.133   2.145  28.116 -0.3686 -0.5169 -0.1814
56170W        W99083  10.510   3.940  28.309 -0.3070  0.1795  0.0051
56171W        W99084  31.554  31.941   8.838 -0.2215 -0.2116 -0.0782
56172W        W99085   7.086   1.597   7.782  0.1542 -0.0299 -0.2123
56173W        W99086   2.404  26.191   6.340  0.3862  0.0545  0.2538
56174W        W99087   0.993   2.189   7.105  0.2000  0.4259 -0.0469
56175W        W99088   2.294  10.621  25.907 -0.4344 -0.0765 -0.1694
56176W        W99089   2.480  12.620  28.020  0.2842  0.0771  0.0045
56177W        W99090   6.907  11.334   1.598  0.0850 -0.1707 -0.2127
56178W        W99091  23.078   0.766   9.133  0.4125  0.0047 -0.3968
56179W        W99092   0.724   4.636   2.066  0.2025 -0.1123 -0.2726
56180W        W99093   3.073   0.558   8.636 -0.3507  0.1421  0.4032
56181W        W99094  34.005   8.124   7.462  0.0341 -0.4958  0.0538
56182W        W99095  11.730  32.311  25.603 -0.0406  0.2214  0.0200
56183W        W99096   3.873   0.587   7.693 -0.1457  0.1800 -0.0380
56184W        W99097   7.046   6.577  10.541 -0.3122 -0.1809 -0.0952
56185W        W99098  26.739  11.889   1.510  0.0840  0.1402 -0.0447
56186W        W99099  33.080   7.126  10.944 -0.2047  0.0476  0.1767
56187W        W99100  31.161  14.119   2.198 -0.0983  0.0363  0.5214
56188W        W99101   7.842   6.036  27.613  0.1995  0.2801  0.0227
56189W        W99102  33.551  25.916   5.451  0.0298 -0.1019 -0.1106
56190W        W99103   0.982   4.696   6.742 -0.0220 -0.0437 -0.1039
56191W        W99104  33.455  31.218   8.499 -0.0751  0.6233  0.1688
56192W        W99105  32.104   0.672   4.408 -0.1731  0.1227  0.1196
56193W        W99106  10.170   6.249   6.772 -0.0715 -0.1158  0.0746
56194W        W99107   8.662  32.641  12.676 -0.3454 -0.2756  0.3130
56195W        W99108   5.984  10.935  10.149  0.1633  0.0274 -0.1842
56196W        W99109   7.125  34.242   5.195 -0.1545 -0.2729  0.0757
56197W        W99110   8.053   0.215  25.155 -0.1911  0.0836 -0.1793
56198W        W99111   6.870   1.999   3.166 -0.1413  0.0455 -0.2217
56199W        W99112   7.405  33.815   3.636  0.2939 -0.2357  0.3197
56200W        W99113  11.390   3.252  27.956  0.0977 -0.0305  0.1049
56201W        W99114   3.567  25.914   6.298  0.2060 -0.0512 -0.2056
56202W        W99115   5.190   8.843   7.405  0.0697 -0.1146  0.0987
56203W        W99116  32.914  24.444   8.769  0.0401 -0.0442  0.0797
56204W        W99117  14.657   1.231   3.651 -0.2598 -0.2709 -0.1834
56205W        W99118  32.603   5.776  11.584 -0.0182 -0.1561  0.1255
56206W        W99119   9.115  31.682  11.403  0.0731 -0.1802  0.0817
56207W        W99120  12.402   0.978   5.888 -0.0381  0.0696 -0.1405
56208W        W99121   7.499   1.598  29.163  0.0999  0.2178 -0.0530
56209W        W99122  31.911  11.286  20.469  0.1546  0.1021  0.0345
56210W        W99123  31.570   6.831  25.106 -0.1216 -0.0592  0.0081
56211W        W99124   3.127  11.724  27.047 -0.1063  0.0553  0.1399
56212W        W99125   7.778   9.330   8.137 -0.3004 -0.1176  0.0777
56213W        W99126   4.975   9.761   0.194 -0.2202  0.1915 -0.0198
56214W        W99127  34.089  33.808   6.671  0.0859  0.3949  0.2743
56215W        W99128   0.093   2.145  10.287  0.0151 -0.1831 -0.4036
56216W        W99129  10.786   3.759  24.672 -0.1962  0.0540  0.1768
56217W        W99130   7.583   0.967  11.976 -0.0883 -0.0065  0.1701
56218W        W99131  30.831  32.359   0.235  0.1156 -0.0056 -0.0907
56219W        W99132   2.290   6.859   9.177  0.1959 -0.2801 -0.1739
56220W        W99133  32.996  28.678  29.775  0.0101 -0.1415  0.1938
56221W        W99134   5.217   6.611  25.311 -0.3748 -0.1275 -0.3291
56222W        W99135  34.405   1.713   0.308 -0.0657 -0.0666 -0.0031
56223W        W99136  33.574   9.198  10.987 -0.1204  0.3024  0.0903
56224W        W99137  34.303  12.413   0.372  0.1803 -0.1396  0.2639
56225W        W99138   1.780  28.235  22.893 -0.2166  0.1220 -0.4043
56226W        W99139   9.787  28.262  25.029 -0.2254  0.0692 -0.0551
56227W        W99140  28.751  11.414   7.442 -0.1857 -0.3435  0.2570
56228W        W99141   5.512   1.877   2.818 -0.2077  0.0193 -0.0813
56229W        W99142   2.101  30.884   4.738 -0.1370 -0.1851  0.1359
56230W        W99143   1.001   1.652   7.159 -0.0393 -0.1688  0.0719
56231W        W99144  33.596  10.490  25.733 -0.2144 -0.0013  0.4457
56232W        W99145   1.315  28.036  29.334 -0.2899 -0.0963  0.3347
56233W        W99146   3.015   9.135   4.053  0.0353 -0.2311  0.2050
56234W        W99147   1.698   5.036  10.717 -0.0816 -0.0250 -0.3403
56235W        W99148  10.372  13.787  28.174  0.2560  0.0419 -0.1579
56236W        W99149   0.944   6.692   5.716 -0.0674  0.1807 -0.1940
56237W        W99150   3.726   2.088  10.499 -0.0694 -0.0430 -0.0871
56238W        W99151  11.356   3.936   8.935  0.1067 -0.1657 -0.1613
56239W        W99152  33.737   2.728   9.109 -0.0305  0.0671 -0.2027
56240W        W99153   5.318  29.235   5.817 -0.0733 -0.0175 -0.0232
56241W        W99154   6.695   0.850   9.550  0.2194  0.0833  0.0345
56242W        W99155   4.295  14.712   7.609  0.0106  0.5120 -0.0520
56243W        W99156  13.423  33.256  10.528 -0.2217 -0.1491 -0.1033
56244W        W99157   2.088   6.368   3.122  0.3994  0.0358  0.2400
56245W        W99158  33.398   3.044   9.275  0.4436 -0.0613 -0.1839
56246W        W99159  27.724   6.349   0.495  0.1408  0.0648  0.0061
56247W        W99160  31.052   3.077   3.244 -0.1564  0.0697 -0.1751
56248W        W99161   1.768   8.979   5.469  0.0497  0.0309 -0.1072
56249W        W99162   1.046  27.397   6.016  0.1859 -0.2524 -0.0272
56250W        W99163   3.848   0.602   8.281  0.0791 -0.0408 -0.0493
56251W        W99164   5.004   0.068  11.419 -0.1468  0.1439 -0.3093
56252W        W99165   9.640  28.172   6.146  0.0013 -0.1053 -0.0930
56253W        W99166   9.568   0.680   7.215  0.1670  0.0419 -0.1712
56254W        W99167   5.493   9.909   9.327  0.1545 -0.1357 -0.1764
56255W        W99168   9.356  13.569   9.041 -0.1887 -0.3411  0.0784
56256W        W99169  33.829   7.624  10.021 -0.1118  0.1957  0.0404
56257W        W99170   2.879   4.292  12.335  0.2134  0.0925  0.0243
56258W        W99171   7.824   7.530  13.393  0.0332  0.0488 -0.1847
56259W        W99172  11.261   4.753   8.749 -0.0324 -0.0562  0.0628
56260W        W99173  31.607  12.157   4.002 -0.2512 -0.0808 -0.1658
56261W        W99174   0.984  14.093  24.751 -0.1281  0.1051  0.1278
56262W        W99175   9.810  31.373  10.546 -0.0723  0.1620 -0.0220
56263W        W99176   7.009   3.020  13.565  0.0743 -0.1196 -0.0371
56264W        W99177  33.836  12.190   7.408 -0.0201  0.1826 -0.0765
56265W        W99178   7.991  29.467   9.686  0.1358 -0.2210 -0.2237
56266W        W99179  14.702   2.785  27.123 -0.0616 -0.2178  0.0091
56267W        W99180   5.952  23.090  27.723 -0.2164  0.2743  0.0450
56268W        W99181  32.183  17.839   5.549  0.0477 -0.2616 -0.1775
56269W        W99182  33.667  29.655  28.984 -0.1697  0.1481 -0.1503
56270W        W99183  25.596  25.148   3.451  0.3973 -0.0995 -0.0779
56271W        W99184  14.212  27.413  10.098 -0.1850  0.2305 -0.2238
56272W        W99185   3.785   0.301  29.323  0.0800  0.3964 -0.3606
56273W        W99186  29.729   0.273   9.187 -0.2352  0.0931  0.1118
56274W        W99187   7.076   8.220   8.332 -0.1317  0.0883  0.2173
56275W        W99188  31.738   7.768   2.182 -0.2222 -0.4406 -0.2074
56276W        W99189  31.808   4.159   9.510  0.0002 -0.0570 -0.1358
56277W        W99190  15.627  11.588  28.949 -0.1901 -0.1971 -0.1855
56278W        W99191   0.103   8.047  11.712 -0.2852 -0.1049 -0.1166
56279W        W99192   7.044   7.444  10.192 -0.1509  0.0382  0.0247
56280W        W99193   7.575  14.253   6.678  0.1946  0.0801  0.3883
56281W        W99194   2.761   8.676  11.962 -0.0460  0.0459  0.0527
56282W        W99195   8.171   4.788  12.482  0.1552  0.0888  0.1229
56283W        W99196  13.247  34.409   6.240 -0.1031 -0.0481 -0.1142
56284W        W99197  27.650  15.470   8.398 -0.0750  0.0546 -0.3912
56285W        W99198   4.652  14.886   1.124  0.1153 -0.0431  0.2562
56286W        W99199   0.980  13.462   6.154  0.0766 -0.1336  0.3882
56287W        W99200   1.401   5.294  11.506 -0.0747  0.0474 -0.2041
56288W        W99201  30.465   1.897  25.272 -0.1228 -0.2003  0.2823
56289W        W99202  23.691  26.280   4.128  0.2168 -0.0836  0.2688
56290W        W99203   8.246   2.438   6.358  0.0046 -0.1741 -0.0764
56291W        W99204   0.910  22.744  28.069 -0.0293  0.2509  0.4385
56292W        W99205   0.332   6.982  11.263 -0.1398 -0.0342 -0.0901
56293W        W99206  33.469  12.767   8.824  0.4564 -0.2535 -0.1126
56294W        W99207   0.173  34.164   9.610 -0.1834 -0.3602 -0.1004
56295W        W99208   5.278   9.932  29.228 -0.3489 -0.0741  0.1359
56296W        W99209  25.526  18.765   8.278 -0.0105 -0.1285  0.2773
56297W        W99210  13.384   5.237   4.893 -0.0333 -0.0240 -0.1147
56298W        W99211   3.573  34.389   6.218  0.1010 -0.1301  0.2563
56299W        W99212  28.503   0.504   3.444  0.2482  0.2328 -0.0342
56300W        W99213  34.109  31.476   2.883  0.0468  0.0933  0.2479
56301W        W99214  27.185  10.338   4.918 -0.3770  0.0550 -0.1053
56302W        W99215   6.277   4.116  11.029 -0.2356  0.1204  0.1975
56303W        W99216  30.497  17.140   5.910  0.1315 -0.3095  0.1843
56304W        W99217  15.584   4.170   9.198  0.1183 -0.1289 -0.1535
56305W        W99218   3.235   6.995   7.439 -0.0162  0.0752  0.2335
56306W        W99219  29.751   1.860   9.433 -0.1380  0.3260  0.0672
56307W        W99220  33.451   6.311   4.832  0.0936 -0.2673 -0.3822
56308W        W99221  33.343  31.450   8.946  0.3126 -0.3192  0.0743
56309W        W99222   0.075  30.896  29.128  0.1007  0.0731 -0.1904
56310W        W99223   1.855  32.626  28.990  0.0962  0.1609  0.1745
56311W        W99224   1.764   3.270   8.209  0.1326 -0.3492  0.1721
56312W        W99225   4.095  14.099  24.977 -0.0062  0.0801  0.3020
56313W        W99226  33.059   2.240   2.556  0.2967  0.2041 -0.2956
56314W        W99227  31.552   1.376   5.166 -0.2203  0.4445 -0.0870
56315W        W99228   3.655  30.872   7.729  0.0507  0.3409  0.1727
56316W        W99229  28.931  32.798   6.096  0.0999  0.2272 -0.2505
56317W        W99230   8.220  13.024   5.960 -0.0878 -0.0747  0.0978
56318W        W99231   5.343   8.312   7.378  0.2103 -0.0314 -0.2134
56319W        W99232   2.701   9.886   5.989 -0.0075 -0.1073  0.1455
56320W        W99233   4.638   5.999  13.499  0.2424 -0.0714  0.2252
56321W        W99234  11.572   8.798   4.934  0.4055 -0.2224 -0.1787
56322W        W99235   1.433   1.842   7.094  0.2249 -0.3765  0.2766
56323W        W99236   0.636   1.763   8.664  0.1687 -0.0183  0.6256
56324W        W99237  27.003  10.218   6.319  0.0142 -0.2269 -0.0074
56325W        W99238   5.889  31.307   6.586  0.1235  0.0956 -0.2802
56326W        W99239   0.701   3.797  11.458  0.0567 -0.1141 -0.0562
56327W        W99240   3.661   6.406  10.503 -0.3545 -0.0323 -0.3612
56328W        W99241   7.189  30.393   9.698 -0.3189 -0.1591  0.0736
56329W        W99242   6.697   6.325   3.359 -0.0560 -0.0575  0.2052
56330W        W99243  33.958   9.828   5.995 -0.5118 -0.1107 -0.3231
56331W        W99244   4.792  31.360   9.158  0.1848 -0.2078 -0.3319
56332W        W99245  33.299  31.599  10.720 -0.2162 -0.0045  0.1893
56333W        W99246  25.168   1.726  10.201  0.0115  0.3379  0.1170
56334W        W99247  33.659  12.779   3.848 -0.3564  0.5873  0.0584
56335W        W99248  32.869   7.211   0.414  0.0909 -0.1872  0.1634
56336W        W99249  10.340  15.183   4.335 -0.0356  0.1606 -0.2582
56337W        W99250  33.960  12.367   6.859 -0.0316 -0.0509  0.2883
56338W        W99251   4.111  10.352   9.358 -0.2735 -0.1556  0.0286
56339W        W99252   0.817   7.856  10.938 -0.3279  0.0343 -0.0884
56340W        W99253   4.208   7.637   2.669  0.2110 -0.0975 -0.2410
56341W        W99254   3.492   3.309   0.786 -0.0958 -0.2142  0.0589
56342W        W99255   7.004  29.722   8.288 -0.4300  0.2111  0.0070
56343W        W99256   2.277  15.675  28.688 -0.0896 -0.0776  0.3532
56344W        W99257   1.716   2.469   4.073 -0.1830  0.1520 -0.0358
56345W        W99258   8.664  29.958  11.438 -0.2560  0.1336 -0.1456
56346W        W99259   1.508   2.105   4.778  0.2810 -0.2682  0.0573
56347W        W99260   0.923   4.896  10.610 -0.0568  0.0147  0.2584
56348W        W99261  17.250   3.131   5.367  0.1575 -0.1205 -0.0931
56349W        W99262  27.642  11.034  26.366  0.0312  0.1012  0.0982
56350W        W99263  14.351   1.785  10.365 -0.1201  0.0788 -0.0641
56351W        W99264  34.126   5.270   6.296  0.3220  0.0011 -0.1296
56352W        W99265   4.699   9.669  11.749  0.2274  0.2956  0.1352
56353W        W99266  31.957  12.556   5.556 -0.3039 -0.2391  0.1070
56354W        W99267  30.004  11.400   2.483 -0.0071 -0.0356  0.1660
56355W        W99268   6.477   9.940   5.638  0.1286 -0.0811  0.0671
56356W        W99269  31.288  13.772   7.808  0.0803  0.0521  0.0916
56357W        W99270   0.102  30.444   3.975  0.2076  0.1989  0.1099
56358W        W99271   6.933   6.059  10.466 -0.1353 -0.1145 -0.2749
56359W        W99272  11.278  11.212   6.250 -0.0790  0.2026  0.1531
56360W        W99273  10.626   0.964   9.852  0.0521 -0.0808 -0.0833
56361W        W99274  12.374   2.179  10.862  0.2987  0.0107  0.2283
56362W        W99275   2.610  31.846   7.879 -0.0678  0.1554  0.1493
56363W        W99276   2.786   1.057   4.871 -0.0419 -0.1608  0.3207
56364W        W99277   4.345   3.536   7.586  0.0598 -0.2281  0.0661
56365W        W99278   7.617   3.270  11.911 -0.2096  0.2385 -0.2414
56366W        W99279  32.166   1.713  11.383  0.1341  0.2971  0.2897
56367W        W99280   9.550   6.705  25.317  0.2392  0.1683 -0.1291
56368W        W99281  13.536   8.668   3.571  0.0404  0.0747  0.0361
56369W        W99282  10.542   6.801   8.979  0.0239  0.0743 -0.0997
56370W        W99283  30.947  15.362   8.827  0.2509  0.1271 -0.3704
56371W        W99284   7.493  33.222   5.446  0.0930  0.3384  0.0913
56372W        W99285   4.215  27.662   3.822 -0.0383  0.2268  0.2440
56373W        W99286   0.047  25.972   2.227 -0.0095  0.0840  0.0546
56374W        W99287  10.880  33.293   7.711  0.0288  0.3269  0.0265
56375W        W99288   3.513  14.856   3.507 -0.1045  0.2901 -0.0239
56376W        W99289  27.494  31.150   0.987 -0.1318  0.1689  0.3174
56377W        W99290  32.058   3.842   9.067  0.0126  0.3660 -0.4690
56378W        W99291  29.950   9.950  10.621  0.0253 -0.0779 -0.2594
56379W        W99292  34.436   2.193  10.812 -0.0417 -0.1327 -0.0087
56380W        W99293  13.341  33.602   6.716  0.1102 -0.2398  0.0645
56381W        W99294  31.444  12.908   5.471  0.0964 -0.2873 -0.0330
56382W        W99295  32.581   7.476   3.336  0.0563 -0.1286 -0.0416
56383W        W99296  29.724  11.774   9.799 -0.1972 -0.0395  0.2204
56384W        W99297   8.279   5.183  10.922 -0.0531 -0.2656  0.1705
56385W        W99298   8.416   4.133   4.093  0.1941 -0.2086  0.3775
56386W        W99299  33.471  27.553  10.277 -0.2205  0.0367 -0.1498
56387W        W99300   6.381  32.574   8.383 -0.2423  0.3464 -0.0885
56388W        W99301   2.464   4.792   9.243  0.0720 -0.0579  0.1802
56389W        W99302  31.562  31.630  11.065 -0.1476  0.3512 -0.1748
56390W        W99303   1.134  23.268  29.700  0.4256 -0.0102  0.1289
56391W        W99304  14.452   8.385   3.036  0.2278 -0.1958  0.0288
56392W        W99305   5.684   4.343   7.417  0.0680  0.2382  0.1926
56393W        W99306   6.911  29.199   9.111 -0.0070 -0.1295  0.0120
56394W        W99307   8.162  34.222  25.379 -0.1686  0.0343  0.2073
56395W        W99308   8.633   4.182   7.095  0.0061  0.1495 -0.2492
56396W        W99309  12.668   4.317   4.506 -0.1756 -0.2222  0.1859
56397W        W99310  33.932   1.913   9.536  0.1704  0.0284 -0.0707
56398W        W99311  33.731   8.631   6.206 -0.0984 -0.1342  0.1504
56399W        W99312   4.464   4.513  10.182 -0.2752 -0.0786 -0.0122
56400W        W99313  18.951   1.991   7.055 -0.0756  0.4259  0.2485
56401W        W99314  30.763  13.908   7.980 -0.3057 -0.0124  0.2777
56402W        W99315   7.135   3.850  12.557  0.0640  0.2464  0.0594
56403W        W99316   5.444   9.205   9.734  0.0668 -0.0193  0.0762
56404W        W99317  22.699   5.084   8.819 -0.0222  0.0737  0.0925
56405W        W99318  19.410   9.908   2.518  0.2060  0.2058 -0.2780
56406W        W99319   9.091   5.783   8.221 -0.0416  0.3722  0.1851
56407W        W99320   0.988  12.560  24.054 -0.5400  0.2056  0.1056
56408W        W99321   2.110   0.768   5.458  0.0793 -0.2520 -0.1981
56409W        W99322  29.776  33.271  10.114  0.3496  0.0296 -0.2871
56410W        W99323   0.065  22.243  27.916 -0.2899 -0.1109 -0.5265
56411W        W99324  27.334  10.161   2.010 -0.0398  0.1321  0.2918
56412W        W99325   4.273   1.714   2.642 -0.0318 -0.0154 -0.2815
56413W        W99326   4.570   4.220  27.890  0.2913  0.0209 -0.0872
56414W        W99327  32.510  32.874   6.431 -0.0856 -0.1582 -0.0051
56415W        W99328   9.130   0.765   5.140 -0.2212 -0.3467 -0.1533
56416W        W99329   9.390  30.323   2.994  0.3875 -0.0658 -0.1956
56417W        W99330  28.665  34.239  24.854  0.1972  0.0863 -0.2210
56418W        W99331   3.742   7.174  12.256 -0.1180  0.2347 -0.1608
56419W        W99332   2.706  15.332   9.145 -0.1903 -0.0423  0.0742
56420W        W99333   4.624  12.212   4.847  0.5438  0.0344  0.1023
56421W        W99334   7.475   0.307   9.908  0.1098  0.1556  0.0607
56422W        W99335   7.801   4.120  11.988  0.2754  0.0540 -0.2127
56423W        W99336   7.042  18.396   5.255 -0.0592 -0.0190 -0.1006
56424W        W99337   2.020   7.816   4.060 -0.3755 -0.2744  0.0640
56425W        W99338  32.538   3.317  10.389 -0.1879 -0.2290  0.2245
56426W        W99339  31.750   0.516   5.143 -0.0643 -0.0729  0.0471
56427W        W99340   8.288   0.078   9.393 -0.0286  0.0012 -0.3278
56428W        W99341  22.288   2.738   6.088 -0.0569  0.0482  0.3741
56429W        W99342  30.038  32.044   3.535  0.2865  0.1284 -0.1388
56430W        W99343   4.514   9.512   9.629  0.0045  0.2025  0.0437
56431W        W99344   9.287   7.585  11.815  0.1702 -0.0493 -0.2853
56432W        W99345  32.598   6.190   8.216 -0.1213  0.0868  0.0505
56433W        W99346   2.088   3.121  10.791 -0.1210 -0.2625 -0.0854
56434W        W99347   2.228   8.688  10.616  0.3788 -0.3935 -0.1962
56435W        W99348   0.944   1.210   9.584 -0.1646 -0.0246  0.0755
56436W        W99349   8.658  15.239  28.023  0.3791 -0.1076 -0.4462
56437W        W99350  32.111  33.843   2.226  0.1098 -0.0402 -0.2832
56438W        W99351   9.513   5.498   9.008 -0.1129 -0.0602  0.3728
56439W        W99352   6.705   0.242  11.502 -0.2109 -0.3007 -0.3288
56440W        W99353  27.367   2.651   5.366 -0.0370  0.0925 -0.2483
56441W        W99354  30.911   6.747   2.381 -0.1968 -0.0772 -0.0172
56442W        W99355  34.420  12.544   9.735 -0.2316 -0.2002 -0.1620
56443W        W99356  26.519  13.483  28.915 -0.1880  0.0502  0.1947
56444W        W99357   9.926   7.974   5.441 -0.0117  0.1494 -0.3459
56445W        W99358  34.424  26.500  10.213 -0.1444 -0.0075  0.0156
56446W        W99359   9.832   1.971   7.340 -0.0964  0.2072 -0.2281
56447W        W99360   8.088   5.738  12.623  0.0728  0.0295  0.0446
56448W        W99361   4.389  10.009  10.346 -0.0345  0.0217 -0.3054
56449W        W99362   6.820   5.621   6.575 -0.0168 -0.1739 -0.0154
56450W        W99363  29.979   9.904   5.100  0.1065  0.0604  0.0974
56451W        W99364  28.282   8.134   9.992  0.1528  0.1455  0.0721
56452W        W99365   4.236   7.209   7.218 -0.1029  0.3380  0.1537
56453W        W99366   4.237  27.091   6.989  0.0831 -0.4383 -0.1856
56454W        W99367  28.703  14.997   5.482 -0.0687  0.1533  0.1152
56455W        W99368  31.424   2.182   7.997 -0.2115  0.1323  0.0909
56456W        W99369   5.514  31.863   3.135 -0.2628  0.0739 -0.0350
56457W        W99370   0.487   6.418   6.023  0.1163 -0.0044  0.2695
56458W        W99371   1.867  26.355   2.588  0.5246 -0.0616 -0.0129
56459W        W99372   2.299   7.043  11.304  0.0398  0.1991 -0.0283
56460W        W99373   1.251   7.564   9.790 -0.0392 -0.1202  0.1946
56461W        W99374   4.937   8.004   7.803 -0.3889 -0.1869 -0.1402
56462W        W99375  29.846   4.467  10.721  0.0054 -0.3135  0.0379
56463W        W99376   9.558  29.593   9.053 -0.1363 -0.0000  0.1759
56464W        W99377   2.494   5.582   3.735  0.3106  0.0126  0.1250
56465W        W99378  27.518   8.566   9.791 -0.0687 -0.0044 -0.1861
56466W        W99379   4.397   8.702   5.762  0.0832 -0.1067 -0.0160
56467W        W99380  33.356   5.334  11.448 -0.0578  0.2987  0.0714
56468W        W99381  10.504   6.405   5.548 -0.0765  0.1640 -0.0276
56469W        W99382   1.880  15.551   3.219  0.0078 -0.2827  0.1974
56470W        W99383  29.555  15.884   6.631  0.1084 -0.1037 -0.1944
56471W        W99384  27.744  12.087   3.029 -0.0140  0.1174 -0.3002
56472W        W99385  31.710  26.428   7.786 -0.1243  0.1824  0.0251
56473W        W99386  22.698   6.169   8.186 -0.0236  0.0621 -0.1136
56474W        W99387   5.128  15.457   3.446 -0.0416 -0.2906  0.0911
56475W        W99388   2.744   7.358  11.319 -0.0705  0.3788 -0.3046
56476W        W99389   9.282  31.912  28.216 -0.0052 -0.0021 -0.3319
56477W        W99390  14.733   8.175   6.914  0.1801  0.1225 -0.1246
56478W        W99391   8.041   5.758   2.252  0.3478 -0.3205 -0.0702
56479W        W99392   2.174  10.615   2.342 -0.1038 -0.3215  0.2174
56480W        W99393   5.046  25.200   9.904 -0.0295  0.4376  0.0136
56481W        W99394   5.118  14.291   2.909  0.0629  0.2023 -0.1824
56482W        W99395   4.477   1.904  12.424 -0.2103  0.1361 -0.1464
56483W        W99396   6.784  24.811  21.090  0.1511 -0.3084 -0.2076
56484W        W99397  34.217   4.240  11.042 -0.1804 -0.1899 -0.2297
56485W        W99398   7.231  12.315   4.799 -0.0763 -0.2100 -0.2852
56486W        W99399   5.615   3.730   2.591 -0.1956  0.1311  0.2130
56487W        W99400   3.336  11.779   2.235 -0.1304 -0.1713 -0.2498
56488W        W99401   8.402   2.544  13.159 -0.3334 -0.0010  0.2763
56489W        W99402  33.353  11.795  19.151 -0.0338  0.2178 -0.1785
56490W        W99403  12.759   0.166  11.960  0.0358 -0.2034  0.2065
56491W        W99404   9.290  27.674   9.388 -0.3860 -0.0074  0.0021
56492W        W99405  34.381  30.519   8.409  0.0102 -0.1477 -0.0476
56493W        W99406   0.043   0.358   8.265 -0.0068 -0.0415  0.0635
56494W        W99407  10.639   0.682   9.312 -0.0420 -0.1352  0.3871
56495W        W99408   4.230   7.154   6.679 -0.2540  0.0857  0.2142
56496W        W99409  25.450   7.222   8.354  0.0679 -0.1205 -0.1283
56497W        W99410   3.187  32.752   5.689  0.0192 -0.1419 -0.0733
56498W        W99411  32.951   1.629   0.644  0.1120  0.2518  0.0921
56499W        W99412   4.492   0.751   8.892 -0.1877 -0.0435  0.0565
56500W        W99413  31.809  28.458   3.077  0.0202  0.0202 -0.0677
56501W        W99414  10.158   1.306   6.625 -0.0725 -0.1005 -0.0563
56502W        W99415  14.082  33.943   4.816  0.1761  0.2490 -0.0017
56503W        W99416  28.524   8.755   4.439 -0.1381 -0.0365 -0.0439
56504W        W99417   3.423  34.041   2.241 -0.2125 -0.0239  0.0590
56505W        W99418  32.280  31.216   9.987 -0.0557  0.1208 -0.2089
56506W        W99419   6.425  10.059   1.195 -0.0764  0.2625  0.1596
56507W        W99420  32.536   7.084  11.199 -0.2662 -0.1001 -0.1720
56508W        W99421  33.281   4.513  24.778 -0.3681 -0.0764  0.0081
56509W        W99422   5.278   4.269   1.736  0.1059 -0.1904  0.2184
56510W        W99423   0.453   6.267   7.094 -0.0701  0.1147 -0.1926
56511W        W99424   6.807  14.646   4.927  0.0532  0.2919 -0.2537
56512W        W99425  31.755   7.705   5.468 -0.1034 -0.0592 -0.0444
56513W        W99426  30.273   2.977  10.005 -0.0387  0.0196  0.0509
56514W        W99427   8.416  31.846   5.873  0.2080 -0.0126 -0.2123
56515W        W99428   4.439   1.966  29.388  0.1300  0.0767 -0.0460
56516W        W99429   0.647   3.852  10.859 -0.0771  0.1208  0.0822
56517W        W99430   1.901   7.935   9.519 -0.0863  0.0961 -0.0154
56518W        W99431   5.155   3.485  10.852 -0.2222  0.1366  0.1599
56519W        W99432  33.045   7.039  11.465 -0.1911 -0.3424 -0.0168
56520W        W99433  31.971  13.048   8.589 -0.2130 -0.2518 -0.1062
56521W        W99434  28.483  28.577  23.713 -0.1300 -0.2550  0.1759
56522W        W99435   0.754   7.626   8.151 -0.1669 -0.2340  0.0381
56523W        W99436  34.031   6.393   9.491  0.3512 -0.0702  0.0090
56524W        W99437   3.003  29.683   8.723  0.0559 -0.3687  0.2557
56525W        W99438  33.608  33.218  25.082  0.0154  0.0712  0.1013
56526W        W99439   8.498  10.297  11.155 -0.0842  0.1415  0.1929
56527W        W99440  11.626   7.439   7.988 -0.1872  0.0514 -0.0689
56528W        W99441   0.950  12.743   8.936 -0.0043  0.1738  0.2338
56529W        W99442   6.182   8.812   9.860 -0.2801 -0.1264  0.2257
56530W        W99443   4.408  30.359  10.110  0.0331 -0.1098 -0.0016
56531W        W99444   7.079   7.012   4.971 -0.0387 -0.2512  0.0176
56532W        W99445   0.980   6.724  10.668  0.0217 -0.1557 -0.2493
56533W        W99446  10.209   5.566   1.034  0.0783 -0.1867 -0.3600
56534W        W99447   6.382   9.020   0.149 -0.1353  0.4083 -0.2717
56535W        W99448  29.271   6.632  10.406  0.0730  0.3447  0.1408
56536W        W99449   5.858  27.648  10.314  0.0696 -0.3036  0.0822
56537W        W99450   1.019   1.632  11.452 -0.0948 -0.1760 -0.3518
56538W        W99451   3.471  29.409   8.521 -0.0321  0.0934 -0.1717
56539W        W99452  25.294   7.132   4.484  0.4019  0.0946  0.3141
56540W        W99453   9.642   2.434  13.840 -0.0259  0.1017 -0.0089
56541W        W99454   4.516   9.250   4.405  0.0439 -0.1321  0.0185
56542W        W99455   6.442   6.565   9.692  0.1863 -0.0460 -0.0517
56543W        W99456   4.179   3.686  11.366  0.2139  0.1480  0.1176
56544W        W99457   9.158   1.287  10.384 -0.0004 -0.3312 -0.0277
56545W        W99458  32.411   9.333  10.918 -0.0855  0.1991  0.2623
56546W        W99459   6.252   7.687  13.010  0.1572 -0.1562  0.1992
56547W        W99460   2.363  30.477  10.196  0.0407  0.0278  0.2825
56548W        W99461   9.366  34.363  12.563  0.2248 -0.1335  0.0786
56549W        W99462  33.041   2.202  11.132 -0.2278 -0.2556 -0.1858
56550W        W99463   4.823   1.915  11.512  0.0836 -0.1209 -0.2014
56551W        W99464  31.565   7.274   8.143  0.1548  0.3806  0.4555
56552W        W99465  31.677   8.813   4.934 -0.0854 -0.1490 -0.1572
56553W        W99466   9.712  10.436   3.179 -0.0258 -0.1442  0.0131
56554W        W99467  31.597   4.078   5.835  0.1986  0.0481 -0.3244
56555W        W99468  25.187  11.090   5.474 -0.0778  0.0576  0.3153
56556W        W99469  32.361   4.197   6.883  0.0747  0.1691 -0.1629
56557W        W99470  29.201  10.191   6.505 -0.1939  0.2542 -0.1175
56558W        W99471  12.575   6.005  10.911 -0.3050 -0.2780 -0.1747
56559W        W99472  33.033   3.298  12.337  0.2749 -0.3149  0.2024
56560W        W99473   0.276   0.700   9.784 -0.0123 -0.1006  0.1862
56561W        W99474   4.232   0.419   5.934 -0.0769  0.0309  0.2312
56562W        W99475   0.260  30.387  10.206  0.1310  0.0973  0.1934
56563W        W99476   9.702  28.445   9.895 -0.0944 -0.2364 -0.3933
56564W        W99477   1.851  12.020   9.800  0.0552 -0.0089 -0.3865
56565W        W99478  22.243  10.432   5.213  0.1999  0.0764 -0.0882
56566W        W99479   5.248   8.864   4.653 -0.3054  0.0466 -0.1754
56567W        W99480  11.877   6.167   8.835  0.3735  0.1754 -0.1893
56568W        W99481  30.260   3.305   9.063 -0.2525 -0.1246  0.2520
56569W        W99482   6.100  23.123   8.278 -0.2331  0.3725 -0.1673
56570W        W99483   4.146  31.861  10.135 -0.0336  0.0057  0.2652
56571W        W99484   8.467   0.959  13.017  0.1619 -0.0979  0.0515
56572W        W99485  30.476   2.826   1.529 -0.0971 -0.2259 -0.0895
56573W        W99486  33.480  30.339  10.776 -0.1634 -0.4579  0.5491
56574W        W99487   1.994   0.590  10.613 -0.0813 -0.1872 -0.1746
56575W        W99488   6.866   2.091   0.053  0.0888 -0.0203 -0.1542
56576W        W99489  28.001   1.161   2.745  0.0996  0.0730 -0.2531
56577W        W99490   3.532  13.282   8.643  0.2987 -0.0511 -0.2375
56578W        W99491   2.044  34.264   0.331  0.0680 -0.1036 -0.1272
56579W        W99492   3.975  15.819   8.674 -0.1707  0.0099  0.2503
56580W        W99493  11.509   2.306   9.488  0.0343  0.0657 -0.1106
56581W        W99494   1.558  14.616   7.790  0.0716 -0.0764 -0.1786
56582W        W99495   1.396  33.645   6.831  0.0966  0.0929  0.1588
56583W        W99496   5.781  10.098  29.360  0.3625  0.0778 -0.1226
56584W        W99497   7.232  32.307   9.709  0.3172 -0.0328 -0.2591
56585W        W99498   3.086   6.498   9.882 -0.0474  0.0019 -0.0292
56586W        W99499   3.056   3.336   0.384  0.1509  0.0846 -0.0717
56587W        W99500   6.377   4.371  12.118  0.2468 -0.2850 -0.1672
56588W        W99501  30.521   6.202   9.815 -0.0375  0.1843 -0.2338
56589W        W99502  10.305  32.334  10.771  0.2787 -0.1927  0.1498
56590W        W99503  28.308  33.957   8.326  0.0257 -0.0811  0.2111
56591W        W99504   5.028  32.638   8.310 -0.3410 -0.1099 -0.0051
56592W        W99505  30.338  31.795  10.122  0.1919  0.2335 -0.3140
56593W        W99506  12.168  30.970  25.100 -0.0544 -0.0673 -0.2875
56594W        W99507  31.733   4.590   6.614  0.2082 -0.1806 -0.1159
56595W        W99508   7.687  13.732   8.621  0.1283  0.0212  0.0910
56596W        W99509  25.965  33.201   5.745  0.0268  0.3775  0.0151
56597W        W99510   5.834  32.357  12.364  0.1063  0.0204  0.1310
56598W        W99511   8.713   7.351   9.188  0.1179  0.0235  0.2615
56599W        W99512   1.975   5.259   8.626 -0.1777 -0.1686  0.3000
56600W        W99513   3.735  12.800  25.848 -0.1463  0.0268  0.4000
56601W        W99514   2.039   1.291  12.295  0.1854  0.2539 -0.2824
56602W        W99515   2.260   2.676  10.687 -0.2094 -0.0073  0.0777
56603W        W99516  27.318  33.338   8.169  0.1599  0.0659 -0.1110
56604W        W99517   3.693   2.927  12.501  0.2368 -0.1692 -0.3684
56605W        W99518   9.269  33.205  11.264 -0.3890  0.0259  0.1190
56606W        W99519   4.091   5.906  12.000  0.0427 -0.1090 -0.0291
56607W        W99520   4.849   5.459   3.553  0.0970  0.0665  0.3051
56608W        W99521   1.579   5.821  12.994 -0.2227  0.1913 -0.2297
56609W        W99522  32.530  13.254   8.625  0.0340  0.0887  0.2241
56610W        W99523   8.509  33.158  10.592  0.5282  0.0249 -0.0649
56611W        W99524   5.251  10.898   8.853 -0.1813 -0.1975 -0.0071
56612W        W99525  32.482  21.782   9.202 -0.1297 -0.0231 -0.3280
56613W        W99526   4.272  32.764   3.712 -0.0394  0.1807  0.3325
56614W        W99527   4.944   6.026   8.205 -0.0683  0.2426  0.0021
56615W        W99528   4.595  33.075   6.564  0.0599 -0.0334  0.0247
56616W        W99529  10.311   6.807  11.308 -0.0324  0.1569 -0.2576
56617W        W99530   2.583  33.203   2.348 -0.3397 -0.1971  0.1388
56618W        W99531   2.573   7.866   4.631  0.1480  0.2506  0.0059
56619W        W99532   5.284   5.723   9.617 -0.1622 -0.1708 -0.2782
56620W        W99533  33.375   4.090   7.091  0.1129  0.1670 -0.1477
56621W        W99534   5.538  33.813  11.368 -0.2971  0.1342 -0.3002
56622W        W99535  11.602   4.489  28.604 -0.1448  0.1845 -0.1051
56623W        W99536  29.950  28.906  27.698 -0.3671 -0.1562  0.0076
56624W        W99537   1.423  11.187  10.096  0.0095  0.0988 -0.0910
56625W        W99538   0.354  12.686  18.351 -0.1078  0.0305 -0.1459
56626W        W99539  30.046  11.565   1.686 -0.0620  0.2717  0.1502
56627W        W99540  31.748   4.501  28.147 -0.1770  0.0291 -0.4214
56628W        W99541   1.592  18.442  24.746 -0.1891  0.3028  0.0993
56629W        W99542  31.404   5.786   0.667  0.1246  0.0741 -0.0991
56630W        W99543  11.066  14.680  25.353  0.0853  0.1422  0.3415
56631W        W99544   3.176  10.605  28.812 -0.2855  0.2247 -0.0844
56632W        W99545  34.023   0.980   3.666  0.0988 -0.1208  0.1519
56633W        W99546   1.152  17.488  28.808 -0.1053  0.0994  0.0756
56634W        W99547  29.536  11.353   7.446  0.0847  0.1606  0.1827
56635W        W99548  34.250   9.164  18.356  0.0432  0.0819  0.0463
56636W        W99549   2.980  13.646  29.453  0.0330  0.1305 -0.0140
56637W        W99550  11.721  29.011   6.984 -0.1554 -0.1460 -0.1401
56638W        W99551  10.568  11.751   0.575  0.0701 -0.2082  0.0858
56639W        W99552  30.126  10.896   2.407 -0.2068  0.3282  0.0973
56640W        W99553  28.337  11.254  29.499 -0.3950  0.1302 -0.0499
56641W        W99554   7.994   0.390   5.333  0.1332  0.0905 -0.0260
56642W        W99555   3.951  33.816  29.456  0.3475  0.0952 -0.0142
56643W        W99556   1.058  11.281  15.202 -0.1305 -0.0714 -0.1228
56644W        W99557   1.323   7.019  10.907  0.1237 -0.0144 -0.4170
56645W        W99558   1.389  32.549   9.277  0.1926 -0.2660 -0.0555
56646W        W99559  31.092   6.429  16.678 -0.0318 -0.4138  0.0745
56647W        W99560  30.422  17.832   9.001 -0.1124 -0.1387 -0.1161
56648W        W99561   2.621  32.738   8.136 -0.0316  0.0695 -0.2295
56649W        W99562  30.429   7.919   5.069  0.0683 -0.0136  0.1100
56650W        W99563   5.845  29.524   1.417  0.2732  0.3855 -0.1424
56651W        W99564   0.925   1.289   3.591  0.0128  0.0181 -0.2032
56652W        W99565  33.023   8.433  19.469 -0.0999 -0.0501 -0.4028
56653W        W99566  10.274   4.761  21.823 -0.2020 -0.2086  0.0785
56654W        W99567   3.205   1.296  27.103 -0.0842  0.1810  0.0348
56655W        W99568   6.806  11.568  26.403 -0.2210 -0.0034  0.2261
56656W        W99569   2.820   4.635  17.534 -0.0816  0.2171  0.1100
56657W        W99570   3.447   3.360   2.633 -0.1818  0.1440 -0.1336
56658W        W99571   8.674  33.120   2.870 -0.3006  0.0038  0.1915
56659W        W99572  31.523   2.037  27.584  0.0605 -0.0485  0.2878
56660W        W99573   4.468   6.342  13.141 -0.0193 -0.1343  0.2606
56661W        W99574  30.528   9.496   9.221  0.1083 -0.1871  0.0564
56662W        W99575  11.343   9.958   4.428 -0.0085  0.0944 -0.3167
56663W        W99576   3.185  13.922   0.060  0.1443 -0.2240 -0.2325
56664W        W99577  17.771  10.194  25.319  0.3299 -0.1326  0.4241
56665W        W99578  29.690   5.844  10.092 -0.1373 -0.2334 -0.2066
56666W        W99579   6.964  20.775  25.673  0.1372  0.2016  0.0489
56667W        W99580   0.265  11.558  20.062  0.2654 -0.5124 -0.1532
56668W        W99581  24.477  10.936  20.651  0.1639 -0.1140  0.1418
56669W        W99582   4.734   9.221   3.937  0.1824 -0.0412 -0.0128
56670W        W99583   2.206  31.308  10.149 -0.0369 -0.2056 -0.0755
56671W        W99584  31.262  12.712  24.910  0.1293 -0.1427  0.2547
56672W        W99585   6.338  15.047   3.468  0.1571  0.1215 -0.1350
56673W        W99586   8.015  28.336   1.116  0.0132 -0.0168  0.0550
56674W        W99587   5.392   7.820  10.987 -0.1073 -0.2307 -0.0661
56675W        W99588   4.931  33.038   4.769  0.4272  0.1335 -0.0020
56676W        W99589  12.193   8.358  28.600  0.4196 -0.5392  0.1232
56677W        W99590  13.876   5.214   5.982  0.2245 -0.2380  0.1165
56678W        W99591   9.505   5.208   1.207  0.3220 -0.1904  0.1773
56679W        W99592  30.790  12.244   0.027  0.2595 -0.2077 -0.4553
56680W        W99593   1.088  10.915   1.184  0.1497 -0.2454 -0.0068
56681W        W99594  28.192  29.351   2.047  0.0400 -0.3528 -0.1620
56682W        W99595  30.661   1.480   4.979  0.0749 -0.1889  0.1487
56683W        W99596  29.913  19.641  25.477 -0.3064 -0.0417  0.0077
56684W        W99597  14.193  10.941   2.030  0.1685  0.0107  0.0947
56685W        W99598  25.909   1.390   1.965  0.0700  0.0476  0.1265
56686W        W99599  34.467   4.005  25.386  0.0897 -0.3950 -0.2993
56687W        W99600  28.816  18.574   0.796 -0.3371  0.0762 -0.0201
56688W        W99601   0.345   6.050   9.881 -0.2874 -0.0978 -0.0827
56689W        W99602   4.224   4.221   1.774  0.0807 -0.0348 -0.1511
56690W        W99603   2.819  13.496   6.925  0.0374 -0.0686  0.0152
56691W        W99604  26.877  11.164   6.717  0.0133  0.1824 -0.1208
56692W        W99605   6.561  29.663   6.375 -0.0020  0.0082 -0.0358
56693W        W99606  10.538  14.041  25.429  0.2394 -0.2654 -0.5000
56694W        W99607   0.878   2.115   9.191 -0.2350  0.1719 -0.2733
56695W        W99608  28.122  12.024   7.600 -0.0807  0.0068 -0.0501
56696W        W99609   9.802   2.335  26.751 -0.0111 -0.0825 -0.0753
56697W        W99610  12.691   9.620  23.779 -0.1770 -0.1733 -0.2463
56698W        W99611  10.372  14.446  27.824  0.1546  0.0383  0.0798
56699W        W99612   1.681   9.610  23.462 -0.0958  0.0701  0.1278
56700W        W99613  13.966   6.511  10.284  0.3095 -0.2275  0.1053
56701W        W99614  27.110  15.945   0.458  0.2833 -0.4908  0.1032
56702W        W99615   4.776  13.571   4.755 -0.2968 -0.0396 -0.2077
56703W        W99616  31.382   4.719   9.182 -0.1454  0.2113  0.1657
56704W        W99617   5.805   5.874   1.287  0.0561  0.0114 -0.4208
56705W        W99618  31.175   4.837  25.346  0.0279 -0.1073 -0.0561
56706W        W99619   5.529   5.806  24.841 -0.0156 -0.1404 -0.1851
56707W        W99620   9.324  33.898   0.992  0.0239 -0.0007  0.1383
56708W        W99621   3.808   5.640   2.975  0.0694 -0.1081 -0.3142
56709W        W99622  25.554   9.084  22.303 -0.1861 -0.0865  0.0906
56710W        W99623   1.482   3.592   0.271 -0.1626 -0.2115 -0.0744
56711W        W99624   6.326  31.537   2.545 -0.0484  0.0248  0.1217
56712W        W99625  28.653  33.718  27.831  0.1543  0.1632  0.3336
56713W        W99626   0.428   6.548  20.660  0.0228 -0.0366  0.1387
56714W        W99627   8.055  10.513   9.759  0.4782  0.0166 -0.1594
56715W        W99628   0.647  28.864  24.408 -0.0660 -0.1892 -0.3948
56716W        W99629   8.889   8.793  28.232  0.1878 -0.1443  0.0475
56717W        W99630  32.559   6.591  29.707  0.0202 -0.1990  0.3375
56718W        W99631  28.018  10.976  22.970  0.1168 -0.1816  0.1932
56719W        W99632  34.353  12.288   9.281 -0.1419 -0.1421  0.0648
56720W        W99633  30.707  12.071   4.668 -0.1736  0.1681  0.2738
56721W        W99634  12.557   2.518  26.470  0.1857 -0.0491  0.0225
56722W        W99635  31.977   1.640   3.861  0.0373  0.0120  0.0121
56723W        W99636  11.176  11.830  26.193 -0.0962 -0.1949  0.3112
56724W        W99637  29.309   3.231  26.560 -0.0043  0.1586  0.2350
56725W        W99638   1.902   4.706  28.892  0.0618 -0.1133  0.1398
56726W        W99639   8.995   2.188   1.112  0.1912 -0.1720 -0.1412
56727W        W99640   9.380  26.001  28.030  0.2493 -0.0965  0.0972
56728W        W99641   5.815   4.475   5.727  0.3063 -0.3771 -0.2041
56729W        W99642  28.440  32.438   8.517  0.1193 -0.1085  0.1809
56730W        W99643   0.731  26.527   4.483  0.3008  0.0732  0.1567
56731W        W99644  33.294  12.203  26.898 -0.0855 -0.0177 -0.1007
56732W        W99645   5.171  15.401   9.409 -0.1707 -0.0139 -0.0060
56733W        W99646   3.355   0.268   5.466  0.3995  0.1147 -0.0145
56734W        W99647   6.673   2.764  18.256 -0.1175 -0.4158 -0.0824
56735W        W99648   5.106  33.388   1.850  0.1131  0.3063  0.1090
56736W        W99649   0.105  29.933  10.401  0.0624 -0.2023 -0.3277
56737W        W99650  13.409   7.902   0.133 -0.1944 -0.1290  0.1105
56738W        W99651   6.904   2.328  24.781  0.1661  0.1804 -0.0537
56739W        W99652   2.678   8.117  17.482 -0.0827 -0.2344  0.1401
56740W        W99653  28.216   2.854   8.267 -0.0206 -0.0446  0.2335
56741W        W99654   6.661  32.462  18.916  0.1852 -0.3466 -0.1462
56742W        W99655   4.496   9.377   6.995  0.2103 -0.0880 -0.2278
56743W        W99656  31.265  15.081   2.241  0.4431 -0.1235 -0.2221
56744W        W99657  32.675  34.423   7.324 -0.0330 -0.1370 -0.3548
56745W        W99658   0.069   7.285  29.380 -0.0140  0.0307  0.2153
56746W        W99659  32.571   0.663   2.533  0.1852  0.3394 -0.1409
56747W        W99660   5.657   7.898   9.928  0.1301 -0.0639  0.3273
56748W        W99661   6.361  34.346   9.599  0.2104  0.1051 -0.2378
56749W        W99662  14.264   7.037  29.597 -0.1044  0.0544  0.0650
56750W        W99663  16.629  32.241  28.782  0.0193  0.0296 -0.0300
56751W        W99664  25.504   8.971   1.866 -0.0193  0.0364 -0.1080
56752W        W99665   5.758   2.115   1.515 -0.2702 -0.1560 -0.2909
56753W        W99666   3.855   0.012   3.352 -0.0613  0.0019  0.4400
56754W        W99667   6.285   3.498   6.621 -0.2405 -0.2056  0.3533
56755W        W99668   5.209  10.065  27.911  0.3144  0.1829 -0.0514
56756W        W99669  33.589  33.349  20.155  0.1360 -0.0071 -0.0594
56757W        W99670  33.502   9.301   2.167  0.0922  0.0983  0.1678
56758W        W99671   8.290  11.053  26.687 -0.2030  0.0380  0.2907
56759W        W99672   6.432  13.123  20.880 -0.1229 -0.2511  0.1333
56760W        W99673   0.454  13.189   1.758 -0.0575 -0.0773 -0.0027
56761W        W99674  34.290   4.182   6.535  0.0408  0.3035 -0.0485
56762W        W99675  26.448  16.633  24.979 -0.1532 -0.3722 -0.0867
56763W        W99676   5.952   8.034   2.083  0.3832 -0.0833 -0.3362
56764W        W99677  28.570  18.915  26.715 -0.2296 -0.1273 -0.0135
56765W        W99678   0.663  11.181   8.777  0.4866  0.2094  0.0797
56766W        W99679   5.479  10.272   4.245  0.1473 -0.3650 -0.2443
56767W        W99680  30.128   9.680   1.979 -0.0676 -0.0976  0.1345
56768W        W99681  34.390  14.951   6.598 -0.1473 -0.2515 -0.1299
56769W        W99682   3.149   5.416  29.311 -0.0796  0.0479 -0.0087
56770W        W99683  34.227  26.289  28.584 -0.2717  0.2823  0.3159
56771W        W99684  33.791  13.699  27.558  0.0115  0.1567 -0.0313
56772W        W99685   6.012   5.414   2.707 -0.1995 -0.1527 -0.0141
56773W        W99686  27.909   1.019   4.753  0.0361  0.1142  0.0859
56774W        W99687  34.227   2.132   6.103  0.1719  0.2692 -0.1822
56775W        W99688   9.425  12.024   6.588  0.0280 -0.0368  0.2047
56776W        W99689  12.990   7.584   6.604 -0.0323  0.1772 -0.2609
56777W        W99690   7.086   3.082  25.757  0.2373 -0.3419  0.1657
56778W        W99691   1.176   1.663   1.207 -0.1997  0.0385  0.2328
56779W        W99692  30.975   5.830   0.110  0.0300  0.0347 -0.3051
56780W        W99693  29.335  31.494   4.312 -0.2628 -0.0101  0.0718
56781W        W99694   4.192   4.102   7.289  0.1312  0.2832  0.4449
56782W        W99695  31.097   0.018   9.789  0.0884  0.0441  0.0690
56783W        W99696  26.240   7.864   4.630 -0.0743 -0.2315  0.0750
56784W        W99697   8.440   8.876   7.015 -0.0650 -0.1021 -0.0783
56785W        W99698   4.302  32.316  26.558 -0.2942  0.0898 -0.0814
56786W        W99699   7.938   2.867   7.250  0.1997 -0.1400  0.0094
56787W        W99700   2.977   3.333  18.061  0.1406 -0.1042  0.0780
56788W        W99701  33.291   3.559   0.139 -0.0923 -0.0564 -0.0561
56789W        W99702   3.318  10.599  26.511 -0.2011 -0.0037 -0.2620
56790W        W99703  29.592   0.295   8.409  0.2686 -0.0248 -0.1170
56791W        W99704   0.892   6.275  28.924  0.0602  0.0729 -0.1189
56792W        W99705   7.642  31.118  26.919  0.0100  0.2186  0.0503
56793W        W99706  10.477   8.137   4.128 -0.0592  0.0562 -0.2328
56794W        W99707  17.117  34.086  10.345 -0.0735 -0.1497 -0.1779
56795W        W99708  33.909   5.056  26.506  0.0769 -0.0818  0.3417
56796W        W99709  32.156   4.230  27.981  0.1539 -0.0475  0.2474
56797W        W99710  29.389   7.767  21.921  0.1706  0.0873  0.0555
56798W        W99711   0.560   9.289  27.941  0.1357  0.0366 -0.1033
56799W        W99712  32.103   4.649   5.370  0.2306 -0.3495 -0.0078
56800W        W99713  28.151   5.995  22.506  0.0890 -0.0266  0.1228
56801W        W99714   6.013  10.555  27.164  0.0796 -0.1075 -0.1572
56802W        W99715   7.330  12.147  22.393 -0.0773 -0.0809 -0.0862
56803W        W99716  33.158   4.649   3.736  0.0663  0.2884  0.0628
56804W        W99717   6.221  31.254  27.964  0.1662 -0.0439 -0.0055
56805W        W99718   3.931   3.420  23.482 -0.0436  0.1410 -0.2115
56806W        W99719   7.050   8.141   9.240 -0.1746 -0.2809 -0.1595
56807W        W99720  27.147   5.455   9.387 -0.0393 -0.1479  0.0780
56808W        W99721  34.008  34.191   5.468  0.2581 -0.5553 -0.1265
56809W        W99722  27.159  30.197   3.086  0.1354 -0.1855  0.0196
56810W        W99723   6.625   2.162  27.089  0.2288  0.0562 -0.0802
56811W        W99724   2.004   3.724   0.637 -0.2663  0.0739 -0.4859
56812W        W99725   5.279   7.918  28.503 -0.0275 -0.2288  0.4425
56813W        W99726   6.019   1.570  11.452  0.2808  0.1514 -0.3008
56814W        W99727   4.096  32.991   4.876 -0.1794  0.0205 -0.1623
56815W        W99728  32.591  22.807   1.861  0.0010 -0.0092 -0.1655
56816W        W99729  10.085  31.055  27.949  0.1726  0.0233 -0.0260
56817W        W99730   0.766  21.706   3.820  0.0730  0.1391 -0.1721
56818W        W99731   2.803   2.657  10.539 -0.2424  0.2116 -0.3384
56819W        W99732  31.478   6.174  24.191 -0.0219  0.0090  0.1123
56820W        W99733  11.496   1.697  20.953  0.2418  0.0613  0.2481
56821W        W99734  26.031   7.168   8.991  0.0297  0.0141 -0.0819
56822W        W99735  28.134   6.239   0.300  0.0581  0.0370 -0.0197
56823W        W99736   1.784  21.937  20.309  0.3454  0.2298 -0.1989
56824W        W99737   4.026   2.179   7.969  0.0186 -0.0569  0.1653
56825W        W99738   3.246   2.015  11.960 -0.1563 -0.2252 -0.0219
56826W        W99739   8.695   5.895  18.226 -0.2766 -0.1618  0.0179
56827W        W99740  11.990  13.376   5.169 -0.1903  0.0536 -0.1475
56828W        W99741   7.891  34.010   7.954 -0.1923  0.4679 -0.2147
56829W        W99742   6.552   8.692  20.525  0.3881 -0.1192  0.0184
56830W        W99743   0.242  12.737   1.222 -0.2946  0.0250  0.0023
56831W        W99744   6.019   9.818  27.867 -0.1121  0.1478  0.2469
56832W        W99745   7.605  34.230   3.322  0.1528 -0.0583 -0.2281
56833W        W99746   7.554  32.798   6.567  0.1541  0.1771 -0.0681
56834W        W99747  33.944  32.171  28.413 -0.0960 -0.1918 -0.0489
56835W        W99748   3.680  31.835   0.379  0.0775 -0.1722 -0.6200
56836W        W99749  32.051  14.104   5.964  0.2735 -0.2101  0.0522
56837W        W99750   6.435  14.607  23.247  0.1805  0.0949  0.0816
56838W        W99751   0.149   9.151  23.911  0.1184  0.4020  0.0855
56839W        W99752   2.154  32.971   2.210  0.1651 -0.1010 -0.2410
56840W        W99753   2.675  24.107   1.904  0.0886 -0.3244  0.2816
56841W        W99754  25.004   0.699   6.457  0.0286 -0.2604 -0.0612
56842W        W99755  29.693   6.526  27.405  0.0345  0.1069 -0.0903
56843W        W99756  33.404   5.311   1.558 -0.0974  0.1277 -0.0208
56844W        W99757  12.055  13.173  27.639 -0.0661 -0.0625  0.0423
56845W        W99758  25.821   4.575   4.344  0.1323 -0.0190 -0.1941
56846W        W99759   4.444   2.826  27.019 -0.0930 -0.0070  0.0659
56847W        W99760   1.865  17.956   9.435 -0.0891 -0.1035  0.0895
56848W        W99761  32.515   8.897  23.384 -0.0457  0.0912 -0.2487
56849W        W99762  22.861   5.705  26.000 -0.0118 -0.3305  0.2350
56850W        W99763   0.272   2.019  23.387  0.0006  0.0610  0.0966
56851W        W99764   5.920   7.235   2.017 -0.0732  0.2281  0.0215
56852W        W99765  24.835   3.361   6.238  0.2167 -0.4352  0.1701
56853W        W99766   5.218   2.171   0.769 -0.0514 -0.0315 -0.0906
56854W        W99767  14.956  13.230   5.487  0.1060 -0.0564 -0.0638
56855W        W99768   9.380   5.965  27.681 -0.1751 -0.2217 -0.0459
56856W        W99769   1.497  14.312  29.710  0.0691  0.1063 -0.2790
56857W        W99770   4.483  12.125   0.961  0.2652  0.4733 -0.0176
56858W        W99771  34.396  33.814   1.475  0.0496  0.2498  0.0683
56859W        W99772  11.309  11.709  28.372 -0.1257  0.1006  0.2802
56860W        W99773   4.899  33.254  17.032 -0.0589 -0.0389 -0.1497
56861W        W99774   1.348  34.113   7.877 -0.1804 -0.0238 -0.2971
56862W        W99775  32.765   6.370  23.459  0.1089 -0.1950 -0.1205
56863W        W99776  22.138   1.609   2.731 -0.0153  0.0252  0.0720
56864W        W99777  10.009   5.318   7.640  0.1919  0.0676 -0.0708
56865W        W99778  28.457   1.713   1.518  0.0868  0.0152 -0.1342
56866W        W99779   0.704   2.066  26.845 -0.1954 -0.1719 -0.1223
56867W        W99780   1.124   0.769   3.038  0.3972 -0.1235 -0.2863
56868W        W99781   8.887   6.107  13.405  0.2965 -0.0408  0.2278
56869W        W99782  10.450   8.459  28.009  0.0254 -0.0896 -0.1577
56870W        W99783   6.394   6.213  24.522 -0.0090 -0.1229  0.0903
56871W        W99784  34.400   6.245  22.201 -0.1673 -0.3336 -0.0294
56872W        W99785  10.944   4.326  29.147  0.3054  0.2797  0.1308
56873W        W99786   4.131  22.017   3.751  0.0441  0.1645  0.1255
56874W        W99787  32.641  12.897   0.619 -0.2770 -0.0006 -0.0702
56875W        W99788   9.942   6.635   9.365  0.0275 -0.2126 -0.0837
56876W        W99789   6.337   9.955  10.575 -0.1737 -0.0709  0.3583
56877W        W99790   1.002   7.648   5.226 -0.0947 -0.5158 -0.0906
56878W        W99791   3.240  18.077   2.328  0.0105 -0.2072  0.0989
56879W        W99792  33.698  24.037   1.887  0.1502 -0.1628  0.0373
56880W        W99793  29.814  32.066  26.745  0.0422 -0.3772 -0.1326
56881W        W99794  30.671   9.899  28.350  0.0443  0.1405 -0.0851
56882W        W99795   1.968   0.493   9.330 -0.1010  0.1864  0.3107
56883W        W99796  16.157   1.047  29.748  0.1650 -0.0041  0.1538
56884W        W99797  10.930  26.957  26.244 -0.2775 -0.1121  0.0361
56885W        W99798   9.975   2.280  25.888 -0.1345  0.0360 -0.0230
56886W        W99799  34.232   0.425   6.636  0.0030 -0.1263  0.1353
56887W        W99800  32.517   6.766   7.403  0.6715 -0.0739 -0.0930
56888W        W99801  29.265   6.794  26.510  0.0121 -0.1235  0.2133
56889W        W99802  24.618  10.592  28.893  0.0444 -0.0968  0.0475
56890W        W99803   0.153  13.353  27.765 -0.1619 -0.0741 -0.0400
56891W        W99804   1.976   9.641  11.528  0.1848  0.0997 -0.1441
56892W        W99805  12.553  10.902  24.299  0.1606 -0.1771  0.2872
56893W        W99806  30.608   4.419  28.877 -0.2077 -0.1400 -0.1871
56894W        W99807   3.529   2.891   8.635 -0.0552  0.0586 -0.1224
56895W        W99808   0.812  10.140   2.877  0.1438  0.0236  0.1765
56896W        W99809   7.685  10.105   9.762 -0.2818  0.0093  0.1494
56897W        W99810  31.622   7.914  27.533 -0.0254  0.0632  0.1334
56898W        W99811   2.535   5.721   6.929 -0.1429  0.1215  0.3065
56899W        W99812  24.779   5.155  28.672  0.0416  0.0805 -0.0942
56900W        W99813   2.886   3.172   2.596 -0.3090  0.0188 -0.2598
56901W        W99814  32.616  26.867   3.120  0.0092 -0.3819 -0.1860
56902W        W99815  30.808  16.893  29.443  0.1157  0.1962 -0.1271
56903W        W99816  34.289   3.011   5.914  0.2510  0.2473  0.0369
56904W        W99817  18.717  11.445  24.806  0.1865 -0.1647 -0.3408
56905W        W99818  30.777   6.546  28.056  0.1708 -0.5664 -0.0546
56906W        W99819   3.466   9.459  23.254 -0.2488  0.0529  0.2368
56907W        W99820  34.019  27.412  25.348  0.5641  0.1361  0.0138
56908W        W99821  31.774  32.414   7.988  0.5050 -0.2095 -0.1921
56909W        W99822  14.635  11.363  27.784 -0.0259  0.0173  0.2405
56910W        W99823  11.969   0.588  29.442 -0.1172  0.0572  0.0658
56911W        W99824  30.731   4.743  25.226  0.0380 -0.0194  0.0043
56912W        W99825  26.658  30.336   5.444 -0.1345 -0.2766 -0.0299
56913W        W99826  12.973  12.230  25.909  0.2683  0.0306  0.0885
56914W        W99827   6.871   6.246  27.424  0.1469  0.2136 -0.1998
56915W        W99828  31.075  10.225   5.452 -0.1445 -0.0006 -0.1464
56916W        W99829   5.319   2.011  27.819  0.0059  0.0419  0.0735
56917W        W99830  32.363   8.344  27.360 -0.0040  0.2248  0.0082
56918W        W99831   5.715   5.511   0.246  0.0037  0.2710  0.0244
56919W        W99832   5.603   0.380   0.187  0.2388 -0.1234  0.2297
56920W        W99833  12.875   0.836  29.134 -0.0771 -0.3756 -0.1781
56921W        W99834   8.571  33.400  27.377 -0.1603  0.1485 -0.0189
56922W        W99835   6.090  13.151  27.679 -0.0283 -0.1375  0.1642
56923W        W99836  30.379   3.364  22.428 -0.2645  0.0289 -0.1234
56924W        W99837   5.124  12.573   9.284  0.0542  0.0646 -0.0442
56925W        W99838  13.462  11.102  29.211  0.2707  0.0105 -0.1441
56926W        W99839   8.215   7.355  11.813  0.0452  0.1987  0.1460
56927W        W99840   3.780   5.346   7.863  0.1884  0.0169 -0.3738
56928W        W99841  32.382  15.465   2.400 -0.1947  0.2512 -0.0884
56929W        W99842  30.716   8.642   4.521 -0.0403  0.1668  0.1224
56930W        W99843   4.038   3.980  19.084 -0.0798  0.3030 -0.0711
56931W        W99844   8.959  11.123  24.047 -0.1608  0.6231 -0.3118
56932W        W99845   3.929   1.649  23.932 -0.0450 -0.0306 -0.5210
56933W        W99846  32.490   5.188   2.396 -0.0374  0.2349  0.2743
56934W        W99847  10.891  15.836  22.613 -0.2115  0.1769  0.0915
56935W        W99848  16.448   2.769  23.889  0.1196  0.1629 -0.0996
56936W        W99849  15.863  12.723  22.134 -0.2286 -0.1261  0.1822
56937W        W99850  32.909   4.123  26.920 -0.2328 -0.1920 -0.0683
56938W        W99851   0.697  10.697   3.440  0.2616  0.1415  0.1871
56939W        W99852   3.659  21.196  28.981 -0.0513 -0.1675  0.1917
56940W        W99853   8.316  29.745  11.110  0.3547 -0.1796 -0.0120
56941W        W99854   4.761   6.953  17.108  0.0938 -0.2072 -0.0790
56942W        W99855   3.283  31.112  10.882  0.0894  0.1506 -0.1021
56943W        W99856   1.620  10.862   5.248 -0.0805  0.2068 -0.1678
56944W        W99857  11.185  11.785  27.495  0.4464 -0.0681  0.1635
56945W        W99858  28.220   0.097   0.271  0.0622  0.0396  0.0186
56946W        W99859  33.761   5.062  27.002 -0.2783  0.2432  0.1490
56947W        W99860  33.285  29.686  29.352 -0.0708 -0.0593 -0.3060
56948W        W99861  23.849   6.633   2.880  0.0582  0.0515  0.0155
56949W        W99862   1.629  30.888   4.572 -0.4395 -0.0410  0.3220
56950W        W99863   0.112   5.473   5.049  0.1280 -0.2375  0.0363
56951W        W99864  15.973   1.429   6.429  0.0200 -0.1851 -0.1255
56952W        W99865  33.135  11.442   3.221  0.0100 -0.1075  0.3126
56953W        W99866  27.557   3.918   4.210 -0.2792  0.3863  0.1758
56954W        W99867  33.137  10.480  27.732 -0.3315 -0.0058  0.1206
56955W        W99868   9.079  31.654   3.271 -0.0726 -0.0598 -0.0707
56956W        W99869  30.231   8.656  20.552  0.3586  0.0637 -0.0042
56957W        W99870  15.047   8.835   9.488  0.0558 -0.2503  0.1868
56958W        W99871   1.933  12.935   2.562  0.0413  0.3356 -0.0174
56959W        W99872   3.167   4.988   7.968 -0.0953 -0.0388 -0.0468
56960W        W99873  33.986   9.934   4.433  0.1761  0.0550  0.0488
56961W        W99874  23.856   3.123   7.870 -0.0182  0.1611  0.1355
56962W        W99875  16.213   2.773  22.021 -0.3220  0.0400  0.1194
56963W        W99876  26.034  15.129  28.423  0.1043  0.1214  0.1118
56964W        W99877   7.598   2.333  28.288 -0.3664 -0.1809 -0.2546
56965W        W99878  33.937   0.061  29.168 -0.2369 -0.0781 -0.1608
56966W        W99879  32.709   6.607  24.487  0.1739  0.0973 -0.0532
56967W        W99880  12.208   6.446   8.368  0.4588 -0.0614 -0.1698
56968W        W99881  28.423  30.239  21.311  0.0834  0.0384  0.3687
56969W        W99882  33.468   2.328  29.535 -0.0438 -0.0051 -0.1791
56970W        W99883   9.807  11.214   1.991  0.3445  0.2529 -0.2134
56971W        W99884  30.582  32.713   6.829  0.0310  0.0062  0.2112
56972W        W99885   6.416   3.283  19.839  0.0834 -0.0911 -0.2979
56973W        W99886  32.668  32.362  10.716  0.1068 -0.1859 -0.2981
56974W        W99887   1.398   9.383  25.342 -0.2246 -0.0063 -0.1568
56975W        W99888   4.253   5.254  27.245 -0.1371  0.2532 -0.1332
56976W        W99889   5.248   0.196   5.017 -0.1074  0.0312 -0.0020
56977W        W99890   4.639   2.883  12.339  0.1615  0.0474  0.5021
56978W        W99891  30.906  11.636  29.705 -0.0316  0.0931 -0.3101
56979W        W99892  11.061   6.426  24.106  0.1766  0.0256  0.2783
56980W        W99893   0.590   1.320   2.489  0.0879  0.0758  0.1164
56981W        W99894   0.532   5.338   6.506  0.0092 -0.0691  0.3485
56982W        W99895   6.354   6.364  22.312 -0.0560  0.1033 -0.0202
56983W        W99896  26.587  33.953  25.884 -0.0143 -0.0460  0.0275
56984W        W99897   1.754   0.690  28.217 -0.0948 -0.0444  0.1019
56985W        W99898   3.906   0.556  28.948 -0.2873 -0.1730 -0.0809
56986W        W99899  23.062   7.570  29.513 -0.3578  0.0832  0.0888
56987W        W99900  33.229   6.302  28.107 -0.0230  0.0873 -0.2327
56988W        W99901   2.249   5.790   1.525  0.1954 -0.0574 -0.0549
56989W        W99902   0.331   8.269  18.054  0.6148  0.2105  0.3773
56990W        W99903   4.144  33.024   2.254 -0.2557  0.1149  0.2318
56991W        W99904  32.512   5.198   4.149 -0.0967  0.1364  0.0846
56992W        W99905   8.494  15.992  26.216  0.1645  0.2248  0.2581
56993W        W99906   5.815  12.834  11.085  0.0515 -0.2151  0.2196
56994W        W99907   7.786  18.603   0.524 -0.0223 -0.0633  0.1257
56995W        W99908   5.592   5.586  26.971  0.0608  0.1227  0.0350
56996W        W99909  26.591   8.270   7.629  0.0858  0.1910 -0.2883
56997W        W99910  33.020  14.191   3.470 -0.1587  0.0415  0.1245
56998W        W99911   8.960   4.398   0.737  0.0673 -0.3227  0.2329
56999W        W99912   7.049  30.964  26.757  0.2274 -0.0876 -0.3156
57000W        W99913  31.389   0.463  27.789  0.0939 -0.1177 -0.0536
57001W        W99914   6.870  34.294  12.584  0.0043  0.2040 -0.0634
57002W        W99915   5.892  11.062   7.229 -0.2624 -0.1556  0.0741
57003W        W99916  14.748   3.501  28.478  0.1959  0.0789  0.2978
57004W        W99917   7.281  12.080  25.222  0.0992 -0.5581  0.4234
57005W        W99918  20.212  12.742  23.862  0.1241  0.0812 -0.0026
57006W        W99919  31.062   8.285  29.123  0.1259 -0.0050 -0.3514
57007W        W99920   4.825   7.438  26.581 -0.1161  0.0600  0.2789
57008W        W99921  32.689   8.201   2.866  0.1816 -0.0784 -0.0326
57009W        W99922  33.085   8.875  27.014 -0.1452  0.1628  0.2410
57010W        W99923   9.466   5.194   6.588  0.1479 -0.2101  0.2236
57011W        W99924  33.487  32.681  10.814  0.3817 -0.0907  0.1280
57012W        W99925  28.499   9.495   2.170 -0.3149  0.0804 -0.2569
57013W        W99926   9.424  16.957  24.477 -0.1975 -0.0767  0.0447
57014W        W99927   5.474   6.134  23.285 -0.2885  0.2366  0.1400
57015W        W99928   5.844   9.886   6.533  0.0453 -0.1050  0.2454
57016W        W99929  29.257  16.147  26.664 -0.0304  0.1042  0.1869
57017W        W99930   2.236   7.556  12.369  0.2059  0.2702  0.2282
57018W        W99931   9.767  10.653   5.156  0.2070  0.1057  0.0034
57019W        W99932  12.055   4.095  20.712  0.1941 -0.0933  0.0166
57020W        W99933   1.220   8.960   4.481 -0.2460  0.0589  0.0665
57021W        W99934  29.354   0.147  11.334 -0.0642 -0.4022  0.3299
57022W        W99935  33.486  10.574   6.514 -0.1749  0.0509 -0.0337
57023W        W99936  29.061   9.915   4.222 -0.1817 -0.0282  0.2486
57024W        W99937   3.791   9.199  12.335 -0.4355 -0.4570 -0.0145
57025W        W99938   8.785   7.411   3.098 -0.0764 -0.2080  0.1382
57026W        W99939  28.911   3.598   4.180 -0.1196 -0.1357 -0.0814
57027W        W99940  16.729  11.788   2.206  0.2716  0.0629 -0.2550
57028W        W99941   6.913  23.949   5.045 -0.1031  0.1490 -0.1028
57029W        W99942   3.818   3.213   4.267  0.2778 -0.6029  0.2497
57030W        W99943   7.659  14.142   4.900  0.0324 -0.2655  0.1172
57031W        W99944   9.654   6.605   4.562 -0.1008 -0.0177 -0.2662
57032W        W99945   5.179   4.979  24.287 -0.1451  0.2242  0.0069
57033W        W99946   6.658  32.257  27.583  0.0241  0.1852  0.0440
57034W        W99947   0.060   7.054   4.272  0.1053  0.1165  0.1270
57035W        W99948  27.527  15.980   6.462 -0.1372  0.1420 -0.1925
57036W        W99949   1.711   9.298   8.435  0.1204 -0.0170 -0.2437
57037W        W99950   1.370   5.008  12.484 -0.1116  0.0812  0.1723
57038W        W99951   4.682  16.389  26.785  0.2473  0.1504 -0.0175
57039W        W99952   3.871  15.150   7.654 -0.0051 -0.0711 -0.0332
57040W        W99953   1.237   6.090   8.710 -0.0142  0.1759 -0.0272
57041W        W99954  27.706  12.964   7.169 -0.1097  0.1686 -0.1960
57042W        W99955   0.371   1.472   0.627  0.0599 -0.0225 -0.2819
57043W        W99956   4.737   2.658   7.181 -0.1419  0.1117  0.0670
57044W        W99957  22.058   9.380   0.144 -0.0834 -0.1631  0.0777
57045W        W99958  10.801  11.378   3.605  0.1412 -0.1366 -0.0714
57046W        W99959   0.014  26.164   1.705  0.0708  0.3963 -0.1469
57047W        W99960  25.626  10.815   9.478 -0.0988  0.0323  0.1869
57048W        W99961   1.318   4.682  11.678 -0.1782  0.3714 -0.1403
57049W        W99962   1.250   1.061  24.016 -0.2266  0.0211  0.1364
57050W        W99963  34.462   2.402  27.904  0.1322  0.0842  0.0336
57051W        W99964  33.751   7.506   9.373 -0.1462 -0.1569  0.4260
57052W        W99965  10.889  15.094   4.745 -0.0888  0.1808 -0.0401
57053W        W99966  32.628   8.421  10.448 -0.1504  0.1260 -0.2744
57054W        W99967  11.102   9.249   0.472 -0.0994 -0.0176 -0.1264
57055W        W99968   0.161  25.300   9.706 -0.3025  0.1268  0.0074
57056W        W99969  31.857  33.613   4.472 -0.1137 -0.2039 -0.2373
57057W        W99970   7.281   6.130   8.144  0.3417 -0.2611 -0.1060
57058W        W99971  13.636  33.192   5.042 -0.1676  0.0330  0.1697
57059W        W99972   2.802   1.842  12.112  0.1624 -0.3094 -0.2152
57060W        W99973  22.167  19.495   0.569 -0.0680  0.0927 -0.2706
57061W        W99974   3.369   4.998   6.036 -0.0827 -0.0815  0.2293
57062W        W99975  11.338   6.289   5.001 -0.3136 -0.1900  0.0975
57063W        W99976   0.874  33.386  28.673  0.0222 -0.1275  0.1125
57064W        W99977  32.530   1.872   8.854 -0.0135  0.0085  0.0002
57065W        W99978  14.314   2.575  25.173  0.1223  0.0766  0.0019
57066W        W99979   0.669   5.042  24.853  0.1712 -0.1069 -0.3452
57067W        W99980   1.648   6.158   2.974  0.2389 -0.2420 -0.1040
57068W        W99981  21.590   1.544   0.201  0.0494 -0.1596 -0.1722
57069W        W99982   3.872  10.549   4.961 -0.0346 -0.2178  0.2893
57070W        W99983   8.619  10.477   5.471  0.1325  0.0209  0.0683
57071W        W99984   1.043   2.511   6.443  0.1263 -0.1163  0.0396
57072W        W99985   8.251   8.021  29.273 -0.3208  0.0194  0.0062
57073W        W99986  34.338   3.143  11.333  0.4802  0.0793  0.0597
57074W        W99987  17.864   2.303   6.869  0.1969  0.1340 -0.1766
57075W        W99988  30.289   1.172   5.745 -0.0066 -0.0911  0.1491
57076W        W99989  30.570  32.945   8.587 -0.1500 -0.0618 -0.2113
57077W        W99990   8.877   4.013   7.519  0.1612  0.0672 -0.1882
57078W        W99991   4.478  13.683   2.386 -0.3240 -0.2059  0.2118
57079W        W99992   6.882   7.040  10.433  0.1718  0.1433  0.1617
57080W        W99993   9.882  18.498  27.825 -0.3414  0.3909 -0.0034
57081W        W99994   3.562  11.599  15.681 -0.1584  0.0604 -0.0454
57082W        W99995   2.786  10.897   6.190 -0.1253  0.2184 -0.0839
57083W        W99996   6.951   3.973   3.512  0.1858  0.0138 -0.1169
57084W        W99997   6.907  13.448   7.533  0.0998 -0.2216  0.0529
57085W        W99998  27.137   9.414  25.610 -0.0855  0.3187 -0.0466
57086W        W99999   1.232   8.990  12.057  0.0810 -0.0098  0.3970
57087W        W    0  31.827  14.583   5.685  0.3263 -0.0913  0.0166
57088W        W    1   3.564  10.298  29.329  0.0489  0.2493  0.2353
57089W        W    2   5.505   4.329   9.867 -0.3521  0.3455 -0.0995
57090W        W    3  31.045   2.947  26.727 -0.4476 -0.3452  0.1833
57091W        W    4  31.937   9.837   8.856  0.1266  0.1426  0.0642
57092W        W    5   7.556   8.076   3.584 -0.1436 -0.2031 -0.2460
57093W        W    6   4.402  10.830  29.621  0.0321  0.2367 -0.0466
57094W        W    7  20.886  15.173  26.546  0.2792 -0.2916 -0.0271
57095W        W    8  31.894   3.103  26.734  0.0121 -0.0563  0.0212
57096W        W    9   6.209   4.772   6.509  0.0210 -0.0798  0.0910
57097W        W   10   5.755  27.584   3.869 -0.2730 -0.0405 -0.0781
57098W        W   11  11.252   6.170   2.214 -0.1720 -0.1638 -0.1096
57099W        W   12   9.731  28.447  28.086  0.0856  0.0875  0.2213
57100W        W   13   8.707  29.131  28.187  0.1180 -0.3192  0.2522
57101W        W   14  30.836   2.324  25.448 -0.4331  0.2290  0.0362
57102W        W   15   1.975   4.518   4.720  0.3512 -0.1058 -0.0447
57103W        W   16  30.135   7.510   4.486  0.2158 -0.1067 -0.0360
57104W        W   17  28.900   9.237   2.240  0.0058  0.1925  0.2524
57105W        W   18  30.920  14.940   6.270 -0.1844 -0.0528  0.3090
57106W        W   19  27.898  10.982   6.653  0.0963  0.0625 -0.1412
57107W        W   20   2.119  28.172   9.997  0.1605 -0.0589  0.1363
57108W        W   21  32.594  12.872  27.543 -0.0457 -0.0131 -0.1336
57109W        W   22   7.673   4.932   0.715 -0.2040 -0.1255 -0.0390
57110W        W   23   8.553   1.020   6.622 -0.2405 -0.0845 -0.1582
57111W        W   24  11.857  12.367   5.576 -0.0093 -0.2732 -0.1838
57112W        W   25  32.148   0.894  23.354 -0.1880  0.1385  0.1538
57113W        W   26   0.475   3.106   2.539  0.0365  0.0119  0.0037
57114W        W   27   4.251  33.018   2.806  0.1019 -0.0555 -0.2582
57115W        W   28   9.437  15.473  26.915 -0.2513  0.1186 -0.0824
57116W        W   29  32.739   4.103   7.246  0.0012  0.0039 -0.0257
57117W        W   30   7.608   5.310   7.608 -0.0928 -0.0490 -0.0705
57118W        W   31   4.127   7.665   8.796  0.2297 -0.0859 -0.1577
57119W        W   32   7.751   7.672  10.867 -0.0761 -0.3649  0.2470
57120W        W   33   9.512  16.192  17.543 -0.0452  0.1702 -0.2311
57121W        W   34  30.392  11.118  24.637 -0.0584  0.2550 -0.1531
57122W        W   35   3.539  13.093   0.685  0.2288  0.0950 -0.0702
57123W        W   36  11.248   2.036  24.977 -0.1294  0.0484 -0.1615
57124W        W   37  31.812   5.431   1.204 -0.0633  0.0526  0.2175
57125W        W   38   5.120   5.994   6.993 -0.1390  0.3750  0.3003
57126W        W   39   6.508  34.163  24.793  0.2815  0.1867  0.0198
57127W        W   40  29.506  34.217   6.309  0.1578  0.2278  0.2149
57128W        W   41   3.419   8.395   5.849  0.3444  0.1722  0.2165
57129W        W   42   3.413  15.253  26.198  0.0513 -0.2965 -0.0153
57130W        W   43   7.685   8.587   5.318  0.3069  0.1796  0.3479
57131W        W   44  34.469   8.571   4.499 -0.1089 -0.2189  0.1213
57132W        W   45  32.989   7.173  12.046  0.0508 -0.1946 -0.1316
57133W        W   46  31.145  16.534   7.993  0.0756 -0.2263 -0.0845
57134W        W   47   2.973   7.708  26.608  0.0103 -0.0831  0.2212
57135W        W   48  29.694   5.356   8.130 -0.2178  0.0357 -0.0470
57136W        W   49  10.618   7.418   5.314 -0.3861  0.0685 -0.2944
57137W        W   50   2.155  10.693   0.955 -0.0958 -0.1183  0.2928
57138W        W   51  12.407   1.604  12.736 -0.1061 -0.0167  0.0235
57139W        W   52  30.635  14.018   5.761  0.0522  0.0170  0.3304
57140W        W   53  27.424   3.868  21.819  0.0037  0.0722 -0.1396
57141W        W   54   1.477  11.524   3.410  0.0183 -0.2620 -0.2039
57142W        W   55   7.976  33.146  29.717  0.0158 -0.1644  0.0944
57143W        W   56   3.103   9.204  11.338  0.1387 -0.1873 -0.3278
57144W        W   57  28.657  19.534  29.298 -0.0315  0.0459 -0.0241
57145W        W   58  10.328   4.669   6.576 -0.2193 -0.1696 -0.0768
57146W        W   59   9.529   0.768  12.166  0.0321  0.1283 -0.2229
57147W        W   60  31.035  13.756   9.116  0.2119 -0.1117 -0.2512
57148W        W   61   1.554  30.358  10.884  0.4462  0.2633  0.1834
57149W        W   62  34.399   7.165  11.179  0.0045  0.2898  0.3980
57150W        W   63   8.901  33.912  28.874 -0.0338 -0.2549  0.1630
57151W        W   64  16.338  15.617  24.506  0.3217  0.2435 -0.2873
57152W        W   65  32.101  21.488  23.660 -0.2540  0.1118  0.1169
57153W        W   66   1.471   7.609  11.464 -0.0099 -0.1099  0.3580
57154W        W   67   2.583   6.823   8.487 -0.2231 -0.1175 -0.1946
57155W        W   68   8.448  13.426  28.708  0.2802 -0.0783 -0.0606
57156W        W   69   5.331   9.303   8.258  0.0252 -0.0310  0.0627
57157W        W   70   0.677   7.895   0.871 -0.0312  0.2370 -0.1156
57158W        W   71  14.442  10.476   6.870 -0.1916 -0.0920 -0.2540
57159W        W   72  30.806  33.041   3.335  0.0425 -0.0077 -0.3709
57160W        W   73   4.068   1.587  10.545 -0.0856  0.0896 -0.1625
57161W        W   74  29.467  12.106  29.326 -0.0284  0.1177 -0.0392
57162W        W   75   0.655   0.810  10.090  0.2825  0.0045  0.0229
57163W        W   76   3.033   1.015  29.341  0.3167  0.1651 -0.1246
57164W        W   77  34.083   1.456   6.741  0.1891 -0.2262  0.0292
57165W        W   78   3.192  33.554  25.197  0.1412  0.1983  0.0928
57166W        W   79   2.162   6.947   0.592 -0.4573 -0.0330 -0.0147
57167W        W   80  16.565   6.745   2.406 -0.2437  0.0037 -0.0322
57168W        W   81  26.835  10.989  28.576  0.1515 -0.1098 -0.1658
57169W        W   82   6.848  10.120   1.031  0.0112 -0.0779 -0.2275
57170W        W   83   0.893   6.656   7.159  0.1322  0.0492 -0.1600
57171W        W   84  16.125   7.694   9.789  0.0317 -0.1826  0.0033
57172W        W   85  22.238  16.650  28.324 -0.0138 -0.3336 -0.2577
57173W        W   86   3.571   4.521  11.587 -0.1095  0.0405 -0.1388
57174W        W   87   1.160  31.498   1.966 -0.0288  0.0764 -0.0188
57175W        W   88   3.513   8.299  10.465 -0.1147  0.1462  0.0020
57176W        W   89   7.306  31.022  10.423  0.0714 -0.1229 -0.1863
57177W        W   90   7.455  13.102   7.396  0.1001  0.3326 -0.2465
57178W        W   91  12.143  13.296   8.655 -0.1096  0.1994 -0.2501
57179W        W   92   7.134   8.875  10.271  0.0054  0.3752  0.3613
57180W        W   93  31.650   6.703   9.151 -0.0070  0.1328  0.0966
57181W        W   94  30.119  13.052  29.250  0.0616  0.0217  0.2868
57182W        W   95   2.961   7.789   7.924  0.3316  0.2556  0.0687
57183W        W   96  22.392   8.677   8.178 -0.1274 -0.0126  0.0824
57184W        W   97   1.948  10.721   9.868 -0.0223 -0.2350 -0.0814
57185W        W   98   8.411   3.610   3.266  0.3119 -0.2145 -0.0223
57186W        W   99  31.529   8.317   9.113  0.0479 -0.0225 -0.0612
57187W        W  100   1.738   3.293   3.476 -0.1584  0.2419 -0.3170
57188W        W  101  32.641   2.485   0.850 -0.3326  0.1028 -0.1328
57189W        W  102   2.908  26.847   0.663 -0.1525 -0.1224 -0.0092
57190W        W  103  33.678   5.259  12.261 -0.1547 -0.1874 -0.1448
57191W        W  104   4.919  33.900  12.196 -0.4377 -0.1401  0.2351
57192W        W  105   1.810   4.130   1.433 -0.0891  0.2020  0.1430
57193W        W  106   6.016  28.311  25.473  0.2634 -0.1574  0.2271
57194W        W  107   0.210   9.938  27.359  0.2494  0.0092  0.0070
57195W        W  108   0.278  16.352  27.581  0.1081  0.2383  0.0135
57196W        W  109  34.253   8.368  10.137 -0.0629  0.0777 -0.0085
57197W        W  110  32.489  18.831  26.055  0.2371  0.0586  0.1886
57198W        W  111   2.099   7.754   4.529 -0.0971 -0.1947  0.0609
57199W        W  112   2.776  27.306   2.700 -0.2477  0.0280 -0.2913
57200W        W  113  31.531   7.557   9.537  0.1296  0.0801 -0.1030
57201W        W  114   8.080  10.383   4.187 -0.0047  0.0323 -0.2492
57202W        W  115   0.440  33.347  26.465  0.0132  0.0179 -0.1588
57203W        W  116   6.253  28.674  11.693 -0.2511 -0.0862  0.0716
57204W        W  117   6.132  31.814   9.794 -0.2257  0.2187  0.1729
57205W        W  118   2.545   8.705   5.221 -0.0686  0.2456 -0.0850
57206W        W  119   6.301   5.011  26.802 -0.2010  0.1078 -0.1776
57207W        W  120   3.477   1.971  10.942  0.1250  0.1647  0.1594
57208W        W  121  27.576   3.431   4.674 -0.0383 -0.0390 -0.3423
57209W        W  122   2.744   3.705   3.480  0.0922  0.2382  0.1963
57210W        W  123   4.042  16.247   8.901 -0.0276 -0.2165 -0.1664
57211W        W  124  17.161   4.344  26.823 -0.1557  0.0506 -0.1152
57212W        W  125  28.981  34.170   4.600  0.0176  0.2932  0.1426
57213W        W  126  24.028  33.410   2.667  0.0042  0.1306 -0.0066
57214W        W  127   8.061  33.005   5.756  0.2068 -0.2338 -0.1440
57215W        W  128   5.706   8.366   3.688  0.3014 -0.2213  0.0777
57216W        W  129   2.681  28.786   6.017 -0.2176 -0.1845 -0.0366
57217W        W  130   7.590   2.488   7.206 -0.2069 -0.2182  0.4032
57218W        W  131   0.009  16.941  29.281  0.1082  0.0642 -0.2034
57219W        W  132  30.822   7.145  10.711  0.5272  0.0086  0.1211
57220W        W  133   1.116   3.377  28.850  0.0905  0.0896  0.2075
57221W        W  134  14.276   4.125   7.502  0.2490 -0.1653 -0.0214
57222W        W  135  32.309  32.414  29.675  0.2159 -0.2685  0.1248
57223W        W  136   7.779   3.528   9.335  0.1522 -0.0830 -0.0876
57224W        W  137  30.170   1.061   6.796  0.2092  0.2068  0.0754
57225W        W  138   0.665  30.634   3.314  0.0559  0.3082  0.2149
57226W        W  139   7.522   0.465   0.862  0.0043 -0.0657 -0.0086
57227W        W  140   9.671   2.940  10.188  0.1001  0.0953  0.0148
57228W        W  141   0.973   1.928   6.668 -0.2801  0.0819  0.0257
57229W        W  142  13.531   4.045  24.373 -0.3100 -0.0916 -0.0670
57230W        W  143   6.053   6.713   2.696 -0.0332  0.0734 -0.0185
57231W        W  144   1.868   7.907   1.472 -0.0321  0.0159 -0.1558
57232W        W  145   1.535  16.057   5.292  0.3089 -0.0901  0.0775
57233W        W  146   4.365   5.716   9.538 -0.1161  0.2094 -0.2230
57234W        W  147   6.201   4.415   8.817 -0.0288 -0.1591  0.1516
57235W        W  148   7.499   4.453  29.185 -0.0074  0.2632 -0.2723
57236W        W  149   1.563   4.945  28.043  0.0508 -0.0387 -0.1068
57237W        W  150   6.078   9.210  11.039 -0.1019 -0.1887  0.1349
57238W        W  151  34.184   9.189  12.060 -0.4463  0.2962 -0.5416
57239W        W  152   1.739  11.367   5.268 -0.1634  0.1590  0.0345
57240W        W  153  27.127   7.457   0.549  0.1068  0.3645 -0.1505
57241W        W  154  16.940   8.013   9.204 -0.0572 -0.1323  0.1702
57242W        W  155   1.865   9.895   1.756 -0.2567  0.1916  0.0811
57243W        W  156   5.948   8.117   5.808  0.1628 -0.0962 -0.1103
57244W        W  157   4.650   6.333   5.117  0.1627  0.0821  0.0236
57245W        W  158  21.616   8.410   1.267 -0.2594  0.1637  0.4664
57246W        W  159   6.762   5.057   6.246  0.1360  0.1919  0.2601
57247W        W  160   6.099  21.777   3.031 -0.2317  0.4215 -0.0082
57248W        W  161   2.387  10.058   8.986 -0.2605  0.0216 -0.1991
57249W        W  162   3.453  12.512  10.998  0.0200  0.2581  0.3548
57250W        W  163  31.922   9.033   9.065  0.1820  0.2816  0.1854
57251W        W  164  13.009   3.473   8.410  0.3077  0.2003 -0.0419
57252W        W  165   3.834   5.212   3.312  0.0761 -0.2238  0.0027
57253W        W  166   2.604   2.108   5.714  0.1676  0.1087 -0.0172
57254W        W  167  12.937  33.543  29.618  0.1184 -0.1563  0.0284
57255W        W  168   4.913   2.434  11.476  0.5027 -0.1284 -0.3101
57256W        W  169   7.320   9.408   9.183 -0.2037  0.1444  0.1240
57257W        W  170  21.457   8.857   5.336 -0.0911  0.1920  0.0535
57258W        W  171   1.823  12.417  25.204  0.0746  0.0592  0.0193
57259W        W  172   0.890  11.020   8.011  0.1249  0.0894  0.2353
57260W        W  173  32.505  16.829   8.257 -0.0480 -0.0058 -0.2420
57261W        W  174   3.953   2.058   5.051  0.2169 -0.1062 -0.1882
57262W        W  175  10.610  11.985   1.497  0.0721 -0.2647  0.0395
57263W        W  176  31.525  22.360  28.078  0.2402 -0.2209 -0.0419
57264W        W  177   9.085   8.378  28.042  0.1313 -0.1755  0.0422
57265W        W  178   4.222   0.476   9.421  0.2661 -0.0106  0.0873
57266W        W  179   2.580   1.531   2.843 -0.0274  0.1992 -0.0441
57267W        W  180   2.809   7.746  21.818  0.1477 -0.2026  0.1176
57268W        W  181   3.015   8.251  12.005 -0.2197 -0.0997 -0.1182
57269W        W  182   1.564   6.261   0.729 -0.1380 -0.2122  0.1131
57270W        W  183   9.408   4.938   4.968 -0.1501  0.1001 -0.0149
57271W        W  184   3.895  33.287   8.076  0.1173 -0.0694  0.2097
57272W        W  185  21.029   3.479   4.265  0.1853 -0.2165  0.1398
57273W        W  186   8.167  13.848   7.797  0.2310  0.2991 -0.0497
57274W        W  187   5.427   9.689  24.680  0.2910  0.4425  0.3661
57275W        W  188  31.229   9.699   4.776 -0.2252  0.3961 -0.3440
57276W        W  189  32.933   3.700   1.666 -0.0176  0.1244  0.0206
57277W        W  190  33.934   6.418   4.983 -0.0348 -0.1581  0.1919
57278W        W  191   4.131   2.709   4.492  0.2016 -0.0990 -0.1798
57279W        W  192  29.658  10.713  10.054  0.2126 -0.0898  0.0910
57280W        W  193   5.458   5.606   1.511 -0.1279  0.0712  0.3259
57281W        W  194   5.161  33.035   3.693  0.0588 -0.0418  0.0393
57282W        W  195   7.834   6.915  10.126  0.2095 -0.0761  0.0197
57283W        W  196  32.468  11.612  10.171  0.0664  0.2587  0.0154
57284W        W  197  31.931   9.272   3.462  0.2615 -0.0032  0.1568
57285W        W  198   0.580   7.650  23.363  0.0311 -0.0620 -0.3524
57286W        W  199  26.570   6.029   2.020  0.0520  0.2297 -0.0652
57287W        W  200   3.655   3.331  10.027 -0.0161 -0.0300  0.1934
57288W        W  201  31.791   4.186   7.089  0.0699 -0.0689  0.0014
57289W        W  202   1.613   8.031  10.520  0.1876 -0.1037  0.0076
57290W        W  203   0.939   7.633  11.430 -0.2865  0.1003 -0.0153
57291W        W  204  33.387   7.677   9.734 -0.2708  0.1290 -0.1072
57292W        W  205  10.415   2.172   1.173  0.0971  0.2733 -0.2807
57293W        W  206   0.410  32.793   8.820 -0.0875  0.0675  0.2243
57294W        W  207   9.438   6.825   8.690 -0.0231 -0.0377  0.0246
57295W        W  208  30.900   8.285  11.034 -0.3663 -0.1168 -0.0149
57296W        W  209  32.995  12.972  29.542 -0.3628  0.1267 -0.1953
57297W        W  210   6.360  31.904   2.891 -0.6422 -0.0909  0.1022
57298W        W  211  33.017  11.719  10.155  0.1060  0.0723 -0.2186
57299W        W  212   5.727  12.039  29.409 -0.2356  0.3876 -0.0420
57300W        W  213  33.116  11.741   1.122  0.1343  0.2354  0.1439
57301W        W  214  33.648   2.731   1.787  0.0279  0.0151  0.1059
57302W        W  215  29.473   6.367  26.533  0.2866 -0.0302  0.4119
57303W        W  216   6.674   9.359   6.501 -0.0903  0.0440  0.1926
57304W        W  217   9.143   1.873  11.647 -0.0176 -0.2009 -0.0011
57305W        W  218  34.023   0.538  26.189  0.0885  0.0529  0.0655
57306W        W  219   7.921   1.905  29.410  0.0707  0.0401  0.2535
57307W        W  220   9.883  33.514   6.136  0.1620  0.0625 -0.0978
57308W        W  221   3.900  13.857   8.007 -0.0597 -0.2666 -0.0767
57309W        W  222  31.691   9.984   4.096 -0.1912 -0.2071  0.2509
57310W        W  223   9.126  13.401   2.462  0.1801  0.2960  0.0555
57311W        W  224  25.961  14.562   6.333 -0.1062 -0.0584 -0.0736
57312W        W  225  10.909   8.369  27.938  0.2192  0.2442  0.3692
57313W        W  226  29.077  12.429  10.210 -0.1316 -0.0773 -0.2882
57314W        W  227  28.463  13.267  28.630 -0.1969 -0.0544  0.3617
57315W        W  228  21.058   5.813   8.548 -0.1108  0.1650  0.0278
57316W        W  229  29.777  11.807   2.059  0.1688 -0.2339 -0.2067
57317W        W  230   1.608   6.217   6.011 -0.0135  0.0432  0.1388
57318W        W  231   3.077  34.086  24.503 -0.0802  0.2066  0.4092
57319W        W  232  32.072   6.717  29.645 -0.2252  0.2734 -0.0450
57320W        W  233   5.428  12.025  25.502  0.0848 -0.1377 -0.0648
57321W        W  234  28.876   8.291   7.026  0.1213 -0.0603  0.1201
57322W        W  235  14.133  20.830   6.223  0.1300  0.2538  0.2095
57323W        W  236  30.213  17.718  23.936  0.0009  0.1566  0.0028
57324W        W  237  10.028   2.493   3.065 -0.0275  0.0199 -0.0116
57325W        W  238   5.167   6.668  26.307  0.0426  0.1243  0.4152
57326W        W  239  13.836   0.510   0.835 -0.1273  0.0513  0.2883
57327W        W  240   2.780   5.261   8.100 -0.1385  0.3226 -0.3617
57328W        W  241  33.417  18.119  25.359  0.0794  0.3155 -0.0090
57329W        W  242   5.329  10.694   0.168  0.3346  0.1324  0.2661
57330W        W  243  30.148  12.549   3.411 -0.0424 -0.1628  0.0078
57331W        W  244   0.811   1.200  11.217  0.0304  0.2198  0.3353
57332W        W  245  33.554   7.157   6.497  0.1310 -0.3563 -0.0511
57333W        W  246  24.181   0.247   5.395  0.3053  0.1525 -0.1668
57334W        W  247   6.365  13.559  10.209  0.0411  0.1879  0.1405
57335W        W  248  30.006   6.390  29.047 -0.1527  0.5411 -0.1364
57336W        W  249   0.602   7.458  25.408  0.1789  0.1743 -0.0206
57337W        W  250  28.844  16.174  24.224  0.2647  0.0708  0.2219
57338W        W  251   9.517  33.158   6.881 -0.3853 -0.0398  0.1959
57339W        W  252   4.481  10.049   6.796 -0.0274 -0.3268 -0.0825
57340W        W  253   7.133   9.802  29.196  0.0166  0.1183  0.0741
57341W        W  254   1.182   1.174  18.353 -0.0775 -0.2143 -0.1588
57342W        W  255   2.010   6.626  11.543 -0.1046  0.0195 -0.4408
57343W        W  256   6.302  34.370   1.840  0.3940 -0.0170 -0.0499
57344W        W  257  11.770   8.719   1.655  0.1807 -0.0423 -0.0452
57345W        W  258   4.357  12.788   8.664 -0.0054 -0.0749 -0.0842
57346W        W  259  32.813  11.375   9.824 -0.2158 -0.1636  0.1778
57347W        W  260  14.268  21.111   0.180  0.0212 -0.3424 -0.1087
57348W        W  261   4.009   0.977  12.312  0.0719 -0.0278 -0.0706
57349W        W  262  31.986  15.675   7.933  0.3990 -0.0477  0.0583
57350W        W  263  33.482  32.934   1.232  0.3101  0.2163  0.1901
57351W        W  264  30.766  11.136   6.381 -0.0080  0.1870  0.2987
57352W        W  265   7.923  10.768   4.966  0.2119 -0.1252 -0.2966
57353W        W  266  13.319   3.873   2.556  0.1371 -0.0443 -0.0914
57354W        W  267   4.960  18.448  25.327 -0.1272  0.1228  0.1837
57355W        W  268   2.732   3.778   8.930  0.1159  0.1000 -0.0387
57356W        W  269  32.545   1.363   9.064 -0.0044  0.0859 -0.1778
57357W        W  270   6.035   9.921   7.546  0.3483 -0.2370 -0.2066
57358W        W  271  27.389   3.877   2.092  0.3364 -0.1235  0.1154
57359W        W  272  11.919   1.450  25.423 -0.1906  0.3146  0.0895
57360W        W  273   1.077  15.675   3.154 -0.0695 -0.2363  0.1548
57361W        W  274  32.423  12.476  28.847 -0.2901 -0.0518 -0.3541
57362W        W  275   8.007   4.468   6.450  0.0244  0.1056  0.1225
57363W        W  276   3.471   5.850  27.962 -0.0912  0.0504  0.1940
57364W        W  277   6.202  12.741   1.257  0.1612 -0.0159 -0.4160
57365W        W  278  31.626  10.349   6.569  0.1034  0.0061 -0.1196
57366W        W  279   5.229   6.692  28.214  0.1653  0.2007  0.0623
57367W        W  280  29.767   1.473  10.556 -0.1359 -0.0101  0.4248
57368W        W  281  33.903  14.378   4.638  0.2242  0.1278  0.0554
57369W        W  282   5.174  10.847   8.221  0.0708  0.1069 -0.1431
57370W        W  283   6.492  14.693  21.433  0.0295 -0.0914 -0.2865
57371W        W  284   5.651  11.387   5.171 -0.0844 -0.1758 -0.1060
57372W        W  285  21.824  27.630   3.996  0.0289  0.0231  0.0312
57373W        W  286  32.009   8.187   5.550 -0.0700 -0.0722 -0.1446
57374W        W  287  29.890  16.822  10.187  0.1969  0.0761 -0.0429
57375W        W  288  28.861   6.946  27.019 -0.5794  0.1158  0.2392
57376W        W  289   6.872  11.782  28.511  0.1710 -0.1657 -0.1060
57377W        W  290   6.688   0.473  18.792 -0.0808 -0.1433 -0.0482
57378W        W  291  29.758   8.739   3.628  0.1474  0.1057  0.1301
57379W        W  292  11.582   0.028   4.149  0.0756  0.1142  0.0607
57380W        W  293  31.238  19.779  25.365  0.0134 -0.0500 -0.2015
57381W        W  294  15.930   8.413   8.388 -0.0733 -0.2721  0.1958
57382W        W  295   4.512  12.377   8.498  0.1027  0.0910 -0.1302
57383W        W  296   3.537  13.536  23.270 -0.0896  0.1713 -0.2409
57384W        W  297   2.230   9.750   7.896  0.0580 -0.3710 -0.0312
57385W        W  298   3.747  34.351   9.025 -0.0962  0.1313 -0.0768
57386W        W  299  33.124   8.068  27.929 -0.0061 -0.2780 -0.2624
57387W        W  300  32.459   0.182   1.880  0.2918  0.1794  0.4514
57388W        W  301   3.525  10.490   5.360 -0.2339 -0.2396 -0.1917
57389W        W  302  11.630  27.058   9.257  0.0790  0.1031  0.1554
57390W        W  303   9.014   9.788   2.789  0.1640  0.1472 -0.2041
57391W        W  304  28.436  12.123   7.121 -0.2227 -0.0416  0.1093
57392W        W  305  30.403  11.170  28.421 -0.3650 -0.1752 -0.1149
57393W        W  306  27.377  19.597   8.674 -0.0073 -0.3846  0.0256
57394W        W  307   3.331   3.306   7.759 -0.2020  0.0188  0.3488
57395W        W  308   1.540  22.213   9.038 -0.1212  0.1377  0.1204
57396W        W  309   8.411  21.086   8.580 -0.1562  0.4147  0.3227
57397W        W  310  32.298   6.854  23.400  0.3655 -0.0045  0.0638
57398W        W  311   1.632   2.919   5.300 -0.2042  0.0232  0.0799
57399W        W  312  28.537   2.623   1.606  0.1078  0.2906 -0.0756
57400W        W  313  29.612  33.717   5.360  0.0412 -0.1553 -0.1093
57401W        W  314  30.016  13.335   6.428  0.5295 -0.2839  0.0210
57402W        W  315   4.771   7.003  11.302  0.0492 -0.2451 -0.0291
57403W        W  316   7.551   2.247  13.104 -0.0832  0.0821 -0.1334
57404W        W  317  31.611  31.470   7.682 -0.1654 -0.0216  0.0839
57405W        W  318  34.294   8.626   4.968 -0.0877  0.1965 -0.0881
57406W        W  319  33.287  15.076   1.948 -0.0365  0.2424 -0.2727
57407W        W  320   8.566  10.895   8.354 -0.2405 -0.0292  0.1924
57408W        W  321   3.422  23.649   1.344  0.0232 -0.0549  0.0946
57409W        W  322   2.141   8.913  11.571  0.0256  0.0655  0.0887
57410W        W  323   3.054   5.497  25.035  0.0399  0.0821  0.3857
57411W        W  324   9.867   0.019   4.293 -0.3581  0.2285  0.1714
57412W        W  325   0.693   5.476  23.045 -0.1161  0.2778  0.2578
57413W        W  326   2.311   2.273  28.682  0.2558 -0.0798 -0.0457
57414W        W  327   1.917   4.110   7.958  0.4089 -0.3391  0.0495
57415W        W  328  30.972   7.098  26.701 -0.2014  0.1141  0.2304
57416W        W  329  11.142   9.389   6.267  0.0593  0.0520 -0.0130
57417W        W  330  30.147  13.105   3.297 -0.2292 -0.1338  0.2742
57418W        W  331   4.084   9.091  25.451 -0.4192  0.2261 -0.1486
57419W        W  332  11.184  28.473  26.683 -0.2734 -0.1455  0.1320
57420W        W  333   6.851   5.537  22.858  0.1732 -0.1044  0.0550
57421W        W  334  11.000   0.844  11.599  0.2941 -0.2468  0.2692
57422W        W  335  28.822   9.445   4.565  0.2956 -0.2020  0.2335
57423W        W  336   9.421  16.480   4.956 -0.3510  0.0653 -0.1228
57424W        W  337  29.126  32.172   7.013 -0.1862 -0.1190 -0.1104
57425W        W  338  32.637   7.461   1.970  0.0102  0.1337 -0.1039
57426W        W  339  33.353   5.564   7.457  0.4622 -0.1067  0.1494
57427W        W  340   8.779   4.424   5.257  0.0561 -0.2862 -0.0987
57428W        W  341   7.167   9.380  12.534  0.1534  0.0670  0.0452
57429W        W  342  11.734  32.769  10.920 -0.0127 -0.1190 -0.2370
57430W        W  343  10.172   0.105   7.661  0.2121  0.1430 -0.0401
57431W        W  344   5.098   7.047   4.872 -0.1037 -0.0446 -0.0556
57432W        W  345   1.635  30.364  10.432  0.0889 -0.4061  0.1473
57433W        W  346  12.686   8.737   1.716 -0.1994 -0.0248  0.1219
57434W        W  347   1.297  11.249  27.761  0.0671  0.1180 -0.1723
57435W        W  348  20.937  11.904   6.370 -0.3744  0.2173 -0.1329
57436W        W  349  27.671   7.997  23.727 -0.3521 -0.4675 -0.2705
57437W        W  350   5.876  33.688   7.140  0.5182  0.0076 -0.0903
57438W        W  351   5.462   5.282  10.892  0.0859  0.0536  0.2603
57439W        W  352  13.840  11.981   4.975  0.1310 -0.3267  0.1147
57440W        W  353  33.874   2.203  11.441 -0.0626  0.1210 -0.0248
57441W        W  354   5.047   1.277  13.356 -0.3595 -0.0176 -0.1761
57442W        W  355   2.473  10.536   9.922  0.0508  0.2587  0.0994
57443W        W  356  31.313  10.851   6.576  0.1340 -0.0565 -0.0598
57444W        W  357  30.909  31.597   9.058 -0.0968  0.0630  0.0894
57445W        W  358  20.204  32.932   9.670  0.1093 -0.1034 -0.3438
57446W        W  359  11.953   7.861  10.590 -0.1744 -0.0330 -0.0627
57447W        W  360   1.619   6.044   8.224 -0.1194 -0.2866 -0.1188
57448W        W  361   4.997   6.514   9.258 -0.1366 -0.0024 -0.1541
57449W        W  362  28.925   4.224  24.230  0.1309 -0.0063 -0.0481
57450W        W  363  28.947  15.777  26.735 -0.1449  0.0086 -0.1461
57451W        W  364   0.123   7.265   8.456  0.4097  0.2263 -0.1495
57452W        W  365  15.218   9.850   8.101  0.0156 -0.2411  0.0001
57453W        W  366  30.193   1.110  23.740  0.0723  0.0561 -0.2666
57454W        W  367  34.391  13.081   9.571 -0.0816  0.1626 -0.0585
57455W        W  368   6.775   5.749  12.022 -0.1589  0.0077  0.1870
57456W        W  369   4.712   4.071  23.311 -0.0493  0.0513  0.0297
57457W        W  370   2.482  15.387   7.802  0.3895  0.0820  0.0446
57458W        W  371   5.917  10.748   5.991  0.0551  0.1241 -0.1952
57459W        W  372  31.824   6.187   2.150  0.0234  0.2075  0.1115
57460W        W  373   7.753   6.500   0.913  0.2134 -0.1746 -0.0695
57461W        W  374   9.660  10.014   0.676 -0.1559  0.0750  0.0818
57462W        W  375  12.173   0.441   4.638 -0.0861  0.0246  0.3398
57463W        W  376   6.192  13.159   4.935  0.3588  0.1849 -0.2223
57464W        W  377   0.196  11.997   6.574 -0.0262 -0.3090  0.1815
57465W        W  378   4.797  33.157   9.253  0.0851 -0.4037  0.0816
57466W        W  379   5.614   4.028   5.658 -0.0003  0.3391  0.1960
57467W        W  380   1.172   7.163  11.336 -0.0700  0.0483  0.0510
57468W        W  381  25.520  30.599  29.307  0.1379  0.1138  0.0009
57469W        W  382  30.762   2.286   5.032 -0.0510 -0.0088 -0.2002
57470W        W  383   3.146   6.748   8.618 -0.0668  0.1386 -0.2672
57471W        W  384   6.600   8.579   9.651  0.3565 -0.1948 -0.0184
57472W        W  385  23.437  19.292  24.692 -0.0756  0.0776 -0.1283
57473W        W  386  28.150  32.747   3.948 -0.2509  0.1258 -0.1126
57474W        W  387  14.291  10.878   8.019 -0.0874  0.1493  0.1110
57475W        W  388   5.147  19.887   8.211 -0.0238  0.0639  0.0503
57476W        W  389  26.572   1.909   7.356  0.0319 -0.5272  0.4007
57477W        W  390  33.079   6.781   7.506  0.3464  0.3296 -0.2395
57478W        W  391   4.801  34.364  29.004  0.0886  0.4197  0.1484
57479W        W  392  16.926  34.163   5.496  0.1826 -0.0497 -0.0608
57480W        W  393  31.338  13.603   1.844  0.1496 -0.2271 -0.0519
57481W        W  394  17.845  34.489   9.268 -0.2233  0.0261 -0.2076
57482W        W  395  30.881   8.495   8.262  0.0088 -0.0824  0.0873
57483W        W  396   0.938  14.464   5.748  0.2709 -0.1338  0.5535
57484W        W  397  13.510   5.175   4.246 -0.0802 -0.1600 -0.0552
57485W        W  398   5.228   4.654  13.303  0.0629 -0.2840 -0.0483
57486W        W  399  32.192   2.657   1.914 -0.0988  0.2454 -0.1398
57487W        W  400   1.770   2.301   6.841  0.1400  0.0043 -0.2051
57488W        W  401   9.947   7.051  12.142 -0.0503  0.0582  0.3886
57489W        W  402  21.786   3.415  26.151  0.1643  0.0507 -0.0888
57490W        W  403   6.374  14.364   9.051  0.3757  0.0210 -0.0489
57491W        W  404   2.573   9.083   8.572 -0.1606 -0.2091 -0.0440
57492W        W  405  10.519   1.497   5.399  0.1056  0.1208 -0.0780
57493W        W  406   5.156  33.478   3.937 -0.1500  0.0564 -0.3692
57494W        W  407  31.439   6.484   0.198  0.2481  0.4024  0.0414
57495W        W  408   5.698   0.661   1.768 -0.0522 -0.1079 -0.0150
57496W        W  409  10.601   6.310   7.922  0.2053  0.0226 -0.2982
57497W        W  410  26.857   3.139   8.669 -0.0942  0.1186 -0.1721
57498W        W  411  32.048  10.115  29.495  0.0018  0.0282 -0.1578
57499W        W  412  33.300   0.615   9.868  0.1148  0.0990 -0.1664
57500W        W  413   4.759  13.034   6.873 -0.1043  0.2217 -0.3455
57501W        W  414  22.185  32.304   2.112  0.1269  0.0796  0.0852
57502W        W  415  29.950   2.304   7.660  0.0671  0.1344  0.3484
57503W        W  416  33.538  10.143  27.420  0.1261  0.1039 -0.2472
57504W        W  417   1.294   9.570   3.524  0.0502  0.0803 -0.1979
57505W        W  418   8.407  13.941   6.173  0.4692 -0.0721  0.1141
57506W        W  419  10.334   9.830   9.883  0.0869 -0.1158 -0.1185
57507W        W  420  33.171   3.252   8.747 -0.0672 -0.0597  0.0695
57508W        W  421  31.604  10.229  10.038  0.1225  0.1304  0.3909
57509W        W  422   0.798   5.197   8.730 -0.4447 -0.3592 -0.0146
57510W        W  423   3.223   4.028   3.793 -0.1791 -0.0292 -0.2436
57511W        W  424  33.714   7.281  26.027 -0.2502  0.1369 -0.2577
57512W        W  425   4.898   1.909  29.286  0.0149 -0.0935 -0.1464
57513W        W  426   0.645   0.727   0.334  0.1343  0.2301 -0.1778
57514W        W  427   1.892   8.794   6.965 -0.0349 -0.0717 -0.2678
57515W        W  428  18.419  12.084   1.341  0.0214  0.0388  0.4106
57516W        W  429   5.224   8.568  27.763 -0.1234 -0.1158 -0.0679
57517W        W  430   5.753   6.059  12.807  0.0059 -0.1168 -0.1702
57518W        W  431   2.416   4.332   4.977  0.0041 -0.2918  0.0368
57519W        W  432  34.330   7.916   9.150 -0.1695 -0.1456  0.0189
57520W        W  433  31.153  16.945   8.785  0.0943 -0.1338 -0.1982
57521W        W  434  25.093   4.106   4.625  0.0575 -0.0421  0.1554
57522W        W  435  13.511  32.438  27.892 -0.0271  0.0274 -0.0828
57523W        W  436  10.003   4.699   8.359 -0.0574  0.2895  0.0075
57524W        W  437  10.293  32.039   6.142 -0.1688 -0.1663 -0.3572
57525W        W  438   2.455   7.116   6.675  0.0400 -0.0032 -0.2211
57526W        W  439   4.810   5.573  28.419 -0.3065 -0.2948  0.3060
57527W        W  440   8.366   1.733   8.962 -0.3117 -0.1715  0.0626
57528W        W  441   1.409   7.380   7.437 -0.2467 -0.0001  0.0918
57529W        W  442   2.518   5.252   4.360  0.2578 -0.1886 -0.1616
57530W        W  443  22.104   4.571   5.605  0.0627 -0.1593 -0.1788
57531W        W  444   3.104   6.959  29.631  0.1530 -0.0855  0.1150
57532W        W  445  12.246   5.346   5.321  0.0352 -0.2637  0.0372
57533W        W  446   6.356   2.743   7.216 -0.1738  0.1900 -0.1982
57534W        W  447   2.937   5.284  13.498  0.3945  0.3439  0.2506
57535W        W  448  30.184   9.429  10.111 -0.1549 -0.0371  0.3314
57536W        W  449   3.385  10.586   8.037  0.0388  0.1277 -0.1649
57537W        W  450   2.857   9.281  12.221  0.0213 -0.1672  0.0381
57538W        W  451   9.995   2.074   4.372  0.1775 -0.0317 -0.2474
57539W        W  452   9.711   3.938  10.668  0.0052  0.1193  0.1154
57540W        W  453  12.826  12.653   6.935 -0.1242 -0.2569  0.1092
57541W        W  454  32.646   5.566  24.631  0.1479  0.3345 -0.0170
57542W        W  455   9.997  34.467   9.725 -0.0101  0.1030  0.1453
57543W        W  456  17.106   7.602   0.939  0.0071 -0.2656 -0.0121
57544W        W  457   7.503  15.102   7.855  0.1572 -0.1147 -0.2670
57545W        W  458  31.161  15.622   8.392 -0.0997  0.2221  0.2359
57546W        W  459   0.331   1.764   2.728  0.1333  0.1730  0.1763
57547W        W  460   9.583  13.946   4.293  0.1278  0.0838 -0.2610
57548W        W  461  32.751  15.820   2.479 -0.0137 -0.2109 -0.1617
57549W        W  462  15.689   4.649   8.306 -0.0564  0.0189  0.0026
57550W        W  463   4.209   5.059   7.470 -0.3044  0.2090 -0.0139
57551W        W  464  32.097  16.442   8.307  0.0585 -0.1376 -0.0851
57552W        W  465   8.817   7.924  10.467  0.3848 -0.1941  0.3045
57553W        W  466   6.335  10.391   4.118  0.1164  0.3235 -0.2851
57554W        W  467  31.724  13.718   7.579  0.1226  0.2810  0.3390
57555W        W  468  25.127   1.245   5.905  0.4345  0.1238 -0.2698
57556W        W  469  10.079   3.599   5.150 -0.1033  0.2568 -0.2724
57557W        W  470  34.257  12.288   5.901  0.1012  0.2376 -0.2107
57558W        W  471  10.860   4.439   7.886  0.3080 -0.1085  0.2840
57559W        W  472  11.121  10.264  10.452  0.1886 -0.0945 -0.1716
57560W        W  473  32.903   1.038   9.985 -0.0436 -0.0738 -0.0774
57561W        W  474  10.291   0.763   2.417  0.1878  0.3157 -0.1372
57562W        W  475   2.925   4.543  11.648 -0.4338 -0.2135  0.1486
57563W        W  476  10.044   3.867   7.533  0.0143 -0.0114 -0.0200
57564W        W  477   0.520   6.207   7.628  0.0957  0.0090 -0.1094
57565W        W  478   4.117  20.249   5.061 -0.2042  0.0161 -0.1249
57566W        W  479   0.909  13.319  10.510  0.0118  0.2622  0.0097
57567W        W  480   5.191   3.392   8.278  0.0748  0.1085 -0.3952
57568W        W  481  34.137   3.734  28.685  0.2589 -0.0101 -0.0875
57569W        W  482   5.577   2.996  26.587 -0.1622  0.1566 -0.0997
57570W        W  483  32.020   7.688  10.660 -0.3217  0.1079  0.0354
57571W        W  484  32.237  12.929   0.259 -0.0560 -0.1700 -0.2353
57572W        W  485  30.320  19.114   6.056  0.5396  0.0622 -0.3428
57573W        W  486  22.979   9.609  23.468  0.0282 -0.1867  0.1962
57574W        W  487   2.243   7.052  28.474 -0.4083  0.1057  0.0864
57575W        W  488   9.607   3.203   8.967  0.1446  0.0600  0.0006
57576W        W  489   4.131   1.392   7.476  0.0467 -0.1355 -0.0180
57577W        W  490   1.876   6.460   6.406 -0.0243 -0.3495  0.2010
57578W        W  491  11.986  12.134   9.154  0.3940  0.0534  0.1140
57579W        W  492   3.966   8.258  12.421 -0.1968 -0.0205  0.0245
57580W        W  493   3.466  11.127   7.537  0.0583 -0.2349  0.1782
57581W        W  494   0.819   3.207   0.133 -0.3285 -0.0421  0.1819
57582W        W  495   7.679   4.044  12.530 -0.1114 -0.0350 -0.1182
57583W        W  496  12.872   7.209   9.359 -0.0782  0.2459  0.0404
57584W        W  497  11.568  34.486   6.171 -0.0161  0.3726 -0.3035
57585W        W  498   7.025   6.594   9.901  0.1067  0.0797  0.0343
57586W        W  499   6.270  17.842   6.443  0.0684  0.1141 -0.1111
57587W        W  500   0.071   8.541   6.209 -0.0375  0.0315  0.2593
57588W        W  501   7.140   1.722  13.178  0.0295 -0.1331 -0.0753
57589W        W  502   6.655   6.909   4.050  0.0554  0.2041 -0.0688
57590W        W  503   3.035   0.771   7.443 -0.2071 -0.1730  0.0375
57591W        W  504   2.401  13.472  28.260 -0.0309  0.0896 -0.0280
57592W        W  505  33.233   4.608   6.594  0.0264 -0.0359 -0.1799
57593W        W  506  33.723   4.113   2.450 -0.3246 -0.0620  0.0158
57594W        W  507  33.444   9.754   5.204  0.1395 -0.0303  0.0477
57595W        W  508   4.653   6.861   6.574 -0.2556  0.0554 -0.1259
57596W        W  509   5.475  11.568   4.733  0.1602  0.1706  0.1881
57597W        W  510   9.457   6.042   6.604  0.0420 -0.2443  0.1787
57598W        W  511   3.029  14.024   7.741  0.0157 -0.1765 -0.2011
57599W        W  512   0.418   5.853   4.087  0.0167  0.2371 -0.3427
57600W        W  513   8.243  11.168   3.313 -0.1574 -0.8029 -0.0432
57601W        W  514   3.319  11.449   5.071 -0.0121 -0.4147 -0.0470
57602W        W  515  17.017   9.430   4.023  0.1637  0.1214  0.4271
57603W        W  516   9.177  12.414   9.705  0.1100 -0.0895  0.0044
57604W        W  517   6.912   9.769  12.204 -0.1552  0.5161 -0.2052
57605W        W  518   4.092  32.846   7.422 -0.0171  0.1699 -0.0557
57606W        W  519  32.737   9.003   3.392 -0.1455 -0.3062  0.1279
57607W        W  520  31.081   8.791  27.959  0.0470 -0.2814  0.3560
57608W        W  521   4.145   7.758  10.873 -0.1846  0.0902 -0.3623
57609W        W  522  33.785  10.143  10.028 -0.3868 -0.2592  0.3730
57610W        W  523   7.132  28.458   5.499 -0.0426  0.2759  0.0866
57611W        W  524   5.125   2.101  29.700  0.0508  0.2431 -0.1177
57612W        W  525   7.318  10.210   3.061 -0.0974 -0.0915 -0.0337
57613W        W  526  34.340  12.445   3.351  0.1889  0.1725 -0.0266
57614W        W  527   0.437  14.328   3.723  0.0131 -0.1599 -0.4725
57615W        W  528  29.469  14.310  29.480 -0.1708  0.2428 -0.1410
57616W        W  529  32.534  13.511   9.082 -0.0429 -0.2568 -0.1305
57617W        W  530   8.475   0.762   5.222  0.1863 -0.0335 -0.0172
57618W        W  531  31.995   9.918   5.571 -0.1178 -0.3223 -0.0984
57619W        W  532   9.918   7.665  29.183  0.1945 -0.1524  0.1783
57620W        W  533   8.300   7.706   3.143 -0.0736  0.1071  0.2458
57621W        W  534   8.400   7.007  26.512 -0.2463  0.3907  0.1537
57622W        W  535   6.685  31.100  11.718 -0.1396 -0.0101 -0.1599
57623W        W  536   8.760   5.485   7.231  0.1358  0.0893  0.1959
57624W        W  537   4.181   0.970   9.280 -0.2098 -0.0910 -0.4234
57625W        W  538  31.922   2.129  10.037  0.1050  0.0053 -0.2105
57626W        W  539   5.204  18.836   8.361  0.0281  0.0869  0.0813
57627W        W  540  34.025   3.270   9.560 -0.0944  0.4061 -0.0437
57628W        W  541   4.294  14.048   4.013 -0.0034 -0.0491  0.1455
57629W        W  542   4.590  22.161   5.882 -0.1309  0.2110  0.1954
57630W        W  543   7.807  32.578   4.796 -0.1047  0.1712  0.0618
57631W        W  544  13.916  34.222   2.139 -0.0792  0.1063 -0.0651
57632W        W  545   9.667   6.752  12.649  0.2658 -0.1364 -0.2831
57633W        W  546   5.672  11.308   8.664  0.0606  0.0739 -0.2281
57634W        W  547   4.963   5.390   5.254 -0.1118 -0.3304  0.2151
57635W        W  548  29.510  33.394  10.560  0.1161  0.1630 -0.2740
57636W        W  549  33.597   5.941   7.256  0.0316 -0.0003 -0.0502
57637W        W  550  27.420  10.734   8.311 -0.0202 -0.2293 -0.1386
57638W        W  551   1.876   8.525   0.584 -0.0683 -0.4146  0.0538
57639W        W  552  30.616  33.653  10.584 -0.1185 -0.0662  0.3610
57640W        W  553   9.764  14.329   7.370 -0.0204  0.0209  0.0529
57641W        W  554  31.005  16.907  23.105 -0.0464  0.3394 -0.2385
57642W        W  555   6.164  16.521   6.487 -0.1244  0.4418  0.1289
57643W        W  556   4.910  13.072   5.968  0.0048  0.3632 -0.0253
57644W        W  557  33.786  22.213   8.170  0.3858 -0.2129  0.1973
57645W        W  558   3.938   4.813   5.284 -0.2775 -0.1247  0.3818
57646W        W  559  32.645  13.372   6.441 -0.1169  0.4739 -0.1485
57647W        W  560   6.063  13.262   4.380  0.1456  0.3682  0.1139
57648W        W  561   9.141   5.050  11.582  0.1477 -0.0756  0.2541
57649W        W  562   9.855   5.275   3.522  0.1064  0.2456 -0.0482
57650W        W  563  10.583   7.264   5.819  0.0197  0.0206  0.0224
57651W        W  564   7.353   8.224   6.899 -0.5918  0.1773 -0.3441
57652W        W  565   0.236   8.176   4.952 -0.2949  0.3020  0.1490
57653W        W  566  32.412  20.562   3.672 -0.1640 -0.4175  0.2146
57654W        W  567   4.627  16.651   6.530  0.0168  0.0290 -0.1209
57655W        W  568  12.327  14.436   8.624 -0.2066  0.2606  0.2358
57656W        W  569   1.269   2.724  10.423  0.2302 -0.2002 -0.0302
57657W        W  570  26.269   8.867   9.235  0.1459  0.1877  0.1557
57658W        W  571  23.487  12.141   7.392  0.1574 -0.0114  0.0300
57659W        W  572   9.641   9.188  11.999 -0.0055  0.1201  0.0229
57660W        W  573   5.147   3.350  13.229 -0.2085  0.1867 -0.0513
57661W        W  574  13.935  16.988   2.884 -0.0203  0.0356 -0.1329
57662W        W  575   2.205   3.731   9.141  0.2648  0.0429  0.0060
57663W        W  576   5.931   8.635   8.149 -0.0132 -0.0753  0.0302
57664W        W  577   1.593  31.356   6.157  0.1640  0.0718  0.1042
57665W        W  578  30.010   0.066   9.660  0.0661  0.2730  0.0830
57666W        W  579   5.551   4.683   6.987  0.1905  0.2426 -0.0533
57667W        W  580  32.375   2.288  12.086  0.4316  0.0760 -0.1893
57668W        W  581   3.667   1.850   7.856  0.0918  0.0942 -0.0027
57669W        W  582   1.547   3.897  12.686 -0.0141  0.0006 -0.0078
57670W        W  583   2.074   4.781   6.751  0.2070 -0.0383  0.1773
57671W        W  584  32.482  12.372  10.059  0.1412 -0.0284 -0.1169
57672W        W  585  32.843   4.663   9.833  0.2126  0.0869 -0.0172
57673W        W  586   6.775  16.318   7.393 -0.0547 -0.0293  0.0901
57674W        W  587  26.166   3.750   3.401  0.2520 -0.4065 -0.1065
57675W        W  588   0.972   9.115  10.589 -0.1897  0.0789 -0.2265
57676W        W  589   1.456  10.294   6.652  0.4707  0.1142  0.2138
57677W        W  590  34.235  27.882   7.629  0.1275 -0.0321  0.1319
57678W        W  591  31.097   7.295   8.394  0.1131  0.2244 -0.1491
57679W        W  592   5.567   3.873  27.038 -0.1862 -0.0282  0.0049
57680W        W  593   2.311   5.767   0.616 -0.0293  0.2666 -0.0327
57681W        W  594   6.660   0.556  11.950 -0.1152  0.3406 -0.1220
57682W        W  595   5.511   4.095   0.692 -0.3226  0.0598  0.1000
57683W        W  596  32.678  11.759   1.336 -0.0166 -0.2696  0.0341
57684W        W  597   8.631  15.253   6.068 -0.2844  0.1281  0.0676
57685W        W  598  34.177   0.033   8.514  0.1228  0.0219  0.1788
57686W        W  599  11.127   5.172   7.518  0.1488 -0.2325  0.1003
57687W        W  600  34.240  13.333   8.508  0.2247  0.0015  0.3523
57688W        W  601  34.259   5.992   8.251  0.1178 -0.2139  0.0635
57689W        W  602  32.172   5.531   1.745 -0.1581  0.0218  0.0694
57690W        W  603  33.480  10.003   4.714 -0.1416 -0.0077  0.1562
57691W        W  604   3.394   6.302   9.546 -0.1850  0.1043  0.2284
57692W        W  605  33.027   0.006   1.057  0.1555 -0.0785 -0.1761
57693W        W  606  29.390   1.542   9.551 -0.0542 -0.1308 -0.0171
57694W        W  607   2.976  33.431   7.490  0.0091  0.2295  0.0325
57695W        W  608  24.591   6.982   6.256 -0.0796  0.2910  0.1972
57696W        W  609   0.662   4.472   9.177  0.1145  0.1600  0.4195
57697W        W  610   9.203  12.761   8.461 -0.0746  0.2844 -0.1826
57698W        W  611   0.328  33.052  10.242  0.2025  0.4242  0.1539
57699W        W  612   4.245   7.167  12.611 -0.0879  0.2220 -0.1395
57700W        W  613   4.261  21.468   8.570  0.1741 -0.1992 -0.1304
57701W        W  614   2.471  31.667  29.567  0.3259  0.1870 -0.0377
57702W        W  615   3.574   7.342  27.230  0.0539 -0.0676  0.0470
57703W        W  616   4.626   7.767   2.962  0.0548 -0.0325  0.2081
57704W        W  617   4.060   5.026   2.656 -0.0999  0.1067  0.0638
57705W        W  618  32.407   5.659   4.334  0.4081 -0.0563  0.0159
57706W        W  619   5.616  27.552  10.773 -0.0434  0.1106  0.1085
57707W        W  620  31.221   4.074   8.423 -0.0311  0.1757  0.0129
57708W        W  621  29.178  10.618   1.791  0.0218  0.0427 -0.0960
57709W        W  622   5.606   6.341   6.401 -0.2660 -0.0158 -0.1123
57710W        W  623  30.662  31.023   6.659 -0.2639 -0.1012  0.1592
57711W        W  624   8.895  11.449   6.443  0.3240 -0.1323  0.0418
57712W        W  625   6.204   3.164  12.120  0.0984  0.0418  0.2482
57713W        W  626  27.744  33.868   8.529 -0.0164 -0.1438  0.1801
57714W        W  627   9.555   7.188   4.851  0.0414  0.0277  0.1105
57715W        W  628   7.633  29.065  11.526  0.0567 -0.0197 -0.0306
57716W        W  629  34.470  11.423   9.370 -0.1184  0.0731  0.1422
57717W        W  630   6.545   3.450   5.235 -0.1732  0.1422  0.3111
57718W        W  631   6.592  25.717   8.637 -0.0551 -0.0429 -0.2410
57719W        W  632  31.175  14.717   4.420  0.1127 -0.0224  0.0979
57720W        W  633   4.405   2.152  13.590  0.1795 -0.1555 -0.1195
57721W        W  634  33.499  10.331   9.518  0.0441 -0.4274  0.2544
57722W        W  635   1.966  13.207   0.528 -0.0774 -0.0352 -0.0303
57723W        W  636  12.791  16.368   2.288  0.1163  0.0297 -0.1116
57724W        W  637   4.901   8.897   8.532  0.1428 -0.1366 -0.0047
57725W        W  638  31.898   9.950  10.298 -0.1053  0.1516 -0.0822
57726W        W  639   0.235   9.897   8.884 -0.3613 -0.2086  0.1230
57727W        W  640  23.505  28.824   2.994  0.0184  0.0001 -0.1170
57728W        W  641  10.190   1.525  12.247 -0.2403 -0.0810 -0.2571
57729W        W  642  32.692  15.226   3.426  0.1101 -0.1052  0.1110
57730W        W  643  31.567   9.370   9.581 -0.0599  0.1226 -0.2516
57731W        W  644   7.921   4.793  12.920  0.3577 -0.0577  0.0225
57732W        W  645   0.937   6.516   8.866 -0.1538 -0.1307 -0.3330
57733W        W  646   4.906   4.136   9.505  0.1350  0.0552 -0.1365
57734W        W  647  17.049   5.814   1.703 -0.1137 -0.1511 -0.0457
57735W        W  648  26.791  11.910  27.049 -0.2481  0.3359 -0.2037
57736W        W  649  12.937  15.006   2.248 -0.1233 -0.0764 -0.1747
57737W        W  650   0.846  14.391  29.623 -0.2030 -0.4315  0.0070
57738W        W  651  31.625  11.245   8.380 -0.0169  0.0357  0.1066
57739W        W  652  30.779  10.716  24.751  0.0569  0.1595 -0.0474
57740W        W  653  33.175  10.045   2.461 -0.2264  0.0577 -0.2365
57741W        W  654  31.080  12.129   7.049 -0.3786 -0.2949  0.1308
57742W        W  655   9.812   7.273  24.606 -0.3241 -0.3130 -0.4224
57743W        W  656  11.871  31.104   2.341 -0.0859  0.1211 -0.0759
57744W        W  657  30.015  22.728   6.495 -0.1130  0.1072 -0.0473
57745W        W  658   7.010   6.383  24.424  0.0329 -0.0918 -0.3655
57746W        W  659   6.151  16.874   6.044  0.0072  0.1413  0.1815
57747W        W  660   3.292   3.049   1.204 -0.0326  0.0668 -0.1291
57748W        W  661   5.466   7.615  29.453 -0.0042  0.0448 -0.0931
57749W        W  662   3.935  17.144   5.405 -0.1965 -0.1305  0.0272
57750W        W  663   7.509  22.250   3.006 -0.0262  0.1255  0.0048
57751W        W  664   0.530  31.759  25.855 -0.4079 -0.0562  0.2985
57752W        W  665  34.425  18.340   7.875  0.3189 -0.1719 -0.2226
57753W        W  666  25.569   9.848   5.801  0.3197 -0.0236 -0.0915
57754W        W  667   2.583  17.814  24.471  0.1527 -0.3258 -0.4571
57755W        W  668  33.445   6.429   7.292  0.3534  0.0611  0.2039
57756W        W  669  11.111  33.882   0.660 -0.0968 -0.0045 -0.0210
57757W        W  670  27.300   7.759  27.707  0.0619  0.0906 -0.0063
57758W        W  671  10.320  10.659  25.388  0.0478  0.1117 -0.0832
57759W        W  672   0.565  14.781   1.113 -0.0022 -0.2288 -0.0242
57760W        W  673  30.636   2.770  25.488 -0.1361  0.2195  0.1081
57761W        W  674   8.844   6.259  26.815  0.0616  0.2498 -0.4592
57762W        W  675  23.541   8.117  25.680 -0.0267 -0.5278 -0.0357
57763W        W  676   5.124   2.567   4.645  0.0074 -0.0232 -0.3110
57764W        W  677   0.352  19.015   5.708 -0.1247  0.0533  0.2190
57765W        W  678   8.570   4.247   2.888 -0.0899  0.0844  0.1273
57766W        W  679  26.218  15.118  22.135  0.1335 -0.1230  0.1166
57767W        W  680  29.738   0.698  25.568 -0.1827  0.0106  0.1241
57768W        W  681  31.825   8.274   6.049  0.0417 -0.0038 -0.0665
57769W        W  682   5.493   2.563  11.171  0.0483  0.2768  0.4559
57770W        W  683  32.720  14.543   6.719 -0.0137  0.2237  0.5488
57771W        W  684  33.677   3.602  28.272 -0.0816 -0.0955  0.0100
57772W        W  685  29.268  11.580  10.196 -0.2338 -0.0092  0.2140
57773W        W  686  15.292   8.542   6.055  0.0051 -0.1577  0.0761
57774W        W  687  27.111  11.153   2.870  0.0153  0.0773  0.1694
57775W        W  688  32.404  12.627   1.559  0.0250 -0.0342 -0.1550
57776W        W  689   8.483  11.721   7.993  0.1192 -0.1327 -0.2569
57777W        W  690   3.856  33.686  24.623  0.0064 -0.0092  0.0430
57778W        W  691   1.106  15.935  27.016 -0.0741  0.0249 -0.1338
57779W        W  692  29.122  20.533   6.570  0.1036 -0.3077 -0.0295
57780W        W  693   8.536  20.302  27.329 -0.0690 -0.2350 -0.0196
57781W        W  694   4.049   4.029  26.340 -0.1165  0.2877 -0.0104
57782W        W  695   3.056   4.170  28.079 -0.1020  0.1785 -0.0068
57783W        W  696  28.999   8.824  22.651 -0.0763  0.1389 -0.1932
57784W        W  697   1.734   7.084   9.324  0.0666 -0.1928 -0.1246
57785W        W  698  31.635   8.941  23.682 -0.0301 -0.0171  0.2492
57786W        W  699  28.762   7.970  25.155  0.0271  0.1710  0.0363
57787W        W  700  22.681  17.233  26.427 -0.1621 -0.4893 -0.0136
57788W        W  701  32.629  15.107   4.937  0.1486  0.0247  0.0288
57789W        W  702  13.800  12.606  24.961  0.1240  0.2166  0.0851
57790W        W  703   2.295   0.475   9.670  0.0383  0.0953  0.1536
57791W        W  704  32.641  15.227  16.747  0.1919  0.2629  0.2370
57792W        W  705  21.747  11.012   8.014 -0.0492 -0.3197 -0.1587
57793W        W  706   2.115   3.929  11.975 -0.0426 -0.1453  0.0511
57794W        W  707   7.953  20.009   0.061 -0.1799  0.1033  0.2211
57795W        W  708  33.033  20.181   4.607  0.2845  0.4567 -0.5095
57796W        W  709  30.357   8.102  20.826  0.0770  0.1717  0.1604
57797W        W  710   7.953  14.689   2.745  0.1332 -0.1259  0.0243
57798W        W  711   0.598  13.180  27.996  0.0613  0.6260 -0.0159
57799W        W  712   0.618   4.040   3.510  0.2093 -0.2157 -0.2161
57800W        W  713  30.232   4.906  24.407 -0.0151 -0.0053 -0.2305
57801W        W  714  28.357  19.485   6.099  0.0737  0.2562 -0.0071
57802W        W  715  10.704  16.032  27.900 -0.1881 -0.0849  0.1406
57803W        W  716  29.574   5.670  29.306 -0.0515  0.0659  0.1543
57804W        W  717   3.403  17.964   0.326  0.1891 -0.0569 -0.1463
57805W        W  718   1.707  10.618   7.466 -0.2761 -0.2537  0.1602
57806W        W  719   1.772  25.744  23.248 -0.0546  0.1368 -0.0712
57807W        W  720  32.462  11.873  26.310 -0.2003  0.2378  0.0843
57808W        W  721  15.064   1.843  25.356 -0.0931  0.2135 -0.0302
57809W        W  722   5.603   9.129  27.131 -0.1146 -0.0414  0.3513
57810W        W  723   2.581  15.388   7.183  0.4802 -0.2960 -0.2866
57811W        W  724  31.133   5.057  25.996 -0.4888 -0.0225 -0.1216
57812W        W  725  30.938  14.093  28.491 -0.4654  0.1681 -0.0228
57813W        W  726   6.889   9.654   2.287  0.1142  0.1569 -0.1170
57814W        W  727  30.523   8.216   4.671 -0.0573 -0.1413 -0.0196
57815W        W  728  22.275  18.521  15.660 -0.1394  0.0308 -0.0370
57816W        W  729  33.488   0.083  25.235  0.1909  0.0653 -0.4232
57817W        W  730  33.561   8.790  28.909  0.0975 -0.3507  0.1444
57818W        W  731   2.163   3.260   4.201 -0.0547 -0.2342 -0.0424
57819W        W  732  29.967   0.160   1.958 -0.0996  0.3452 -0.2215
57820W        W  733   6.745  32.619  17.456 -0.1576  0.3031  0.3610
57821W        W  734   7.017   7.178  29.170  0.1416  0.0539  0.0843
57822W        W  735  29.713   7.555   8.936 -0.2496 -0.0039  0.3072
57823W        W  736  32.187  14.436  18.647 -0.1309 -0.1783  0.3698
57824W        W  737   5.364  10.687  18.487  0.0893  0.0459  0.1366
57825W        W  738  33.970  13.807  25.448 -0.4318 -0.3707 -0.1078
57826W        W  739  30.336   7.179   9.788  0.2294  0.2664 -0.3487
57827W        W  740   4.166  16.503   7.199 -0.4206 -0.1547  0.0670
57828W        W  741  27.627   8.306  21.802 -0.4305  0.1938 -0.0924
57829W        W  742  29.257  19.213  27.841  0.0790 -0.1324 -0.1630
57830W        W  743  13.018  17.280   1.429  0.2341 -0.0173 -0.0032
57831W        W  744  14.532  18.051  21.868  0.1555 -0.2044 -0.1624
57832W        W  745   4.609   9.813   7.337 -0.0055  0.3651 -0.1752
57833W        W  746  25.089   1.796  24.357 -0.1608 -0.0181 -0.0480
57834W        W  747  31.054   7.362   7.363  0.0145 -0.7590  0.2614
57835W        W  748   5.854   4.774  11.326 -0.1410 -0.2324 -0.0242
57836W        W  749  28.267  31.280   7.998  0.0234  0.4332  0.1417
57837W        W  750  31.993  16.672  27.990  0.0802  0.1912 -0.0293
57838W        W  751   3.250  31.678  10.284  0.0557 -0.1713  0.0248
57839W        W  752   7.051   9.096  25.443  0.1753  0.1319  0.0610
57840W        W  753   6.530   5.360   5.918  0.1679  0.1311 -0.1385
57841W        W  754  25.585  13.774  24.524 -0.2197 -0.1718 -0.0535
57842W        W  755   4.583  12.975  26.844  0.2995  0.1351  0.2283
57843W        W  756  20.175  13.313  19.742  0.0384 -0.1843  0.0485
57844W        W  757  33.302   5.570   8.258  0.2106 -0.1925 -0.0648
57845W        W  758  27.367  14.303   4.522  0.0838 -0.2171  0.2533
57846W        W  759  29.500  16.689  22.272 -0.3169 -0.1662  0.0187
57847W        W  760   6.216   9.270  24.688 -0.1166  0.2431 -0.1018
57848W        W  761  34.044  10.147  24.041 -0.0959 -0.1345 -0.0656
57849W        W  762   5.582  13.226  16.597  0.0880  0.2047  0.0909
57850W        W  763   5.121  19.586  20.586 -0.0009 -0.0481  0.0192
57851W        W  764   2.663  33.137  10.129 -0.1197  0.3414 -0.1517
57852W        W  765  32.745  11.935   0.805 -0.0052  0.1509  0.2146
57853W        W  766  24.041  12.191   7.550  0.1056 -0.1352  0.2577
57854W        W  767  27.953  11.527   3.704 -0.2685 -0.1838 -0.0542
57855W        W  768  28.667   4.869  10.199  0.0762  0.1015  0.0566
57856W        W  769   7.260  33.736   6.485 -0.0444 -0.1515  0.0071
57857W        W  770   1.734  16.942  27.314  0.1008  0.0571  0.2606
57858W        W  771   0.577  15.653  15.491 -0.0092 -0.2577  0.0596
57859W        W  772  25.976  32.450  27.478 -0.1492 -0.2690 -0.2073
57860W        W  773  31.252  12.800  27.666 -0.1930  0.1434 -0.0360
57861W        W  774   2.850  23.587   7.892  0.1597 -0.0920  0.0815
57862W        W  775  23.093  15.969   1.652  0.1277  0.2209  0.3832
57863W        W  776  30.339   7.134   0.235  0.0579 -0.3196 -0.1161
57864W        W  777  32.140   5.354  17.836  0.2693 -0.0328  0.3237
57865W        W  778  32.718   5.358   1.628 -0.0791  0.5652 -0.0033
57866W        W  779   1.315  18.944   5.103 -0.2247 -0.0032 -0.2432
57867W        W  780  29.001  13.654   8.414 -0.0849 -0.2335  0.0447
57868W        W  781  31.705   9.631  26.217  0.0824 -0.5444  0.2087
57869W        W  782  28.987  12.784   6.732  0.2332 -0.1736  0.3138
57870W        W  783  29.934  33.295   9.206 -0.0966  0.3394 -0.0905
57871W        W  784   4.502  32.862   1.501 -0.0859  0.1883  0.1008
57872W        W  785   2.410  28.072  28.257  0.0070 -0.0756  0.0658
57873W        W  786  26.865  16.621   4.586  0.1570  0.2798 -0.1026
57874W        W  787   1.619   5.732  10.145 -0.1606  0.2226  0.0309
57875W        W  788   2.279   6.437   0.454 -0.0586  0.1533  0.2294
57876W        W  789   2.262  18.580  10.077  0.0826 -0.0310 -0.2018
57877W        W  790  34.463  14.114   3.912  0.2348  0.1723 -0.1952
57878W        W  791  18.917   3.737   2.841  0.1561  0.0471  0.1185
57879W        W  792   3.559   7.762  19.900 -0.2107 -0.0212 -0.2773
57880W        W  793   1.190  12.135  25.817  0.2019  0.1082  0.1941
57881W        W  794  31.793   6.632   2.270 -0.1977 -0.2511  0.1583
57882W        W  795   8.489  12.443  26.838 -0.1253  0.0197  0.0884
57883W        W  796  11.279   8.320  25.677 -0.0186 -0.3623  0.0081
57884W        W  797  28.751   9.056  25.275 -0.1508  0.0543 -0.3156
57885W        W  798   7.650   8.162  27.749  0.1164 -0.1506 -0.0544
57886W        W  799   5.104  13.602  25.714  0.0270 -0.1484 -0.3020
57887W        W  800   6.917  14.078   5.266 -0.2768  0.0840  0.2270
57888W        W  801  32.182  21.502   2.105  0.0347 -0.0790 -0.1491
57889W        W  802   9.490  13.155   3.840 -0.2264  0.0911 -0.1325
57890W        W  803  33.085   5.790   1.402  0.2018 -0.1827 -0.0913
57891W        W  804  31.791  24.041   7.261 -0.1529  0.3236 -0.1609
57892W        W  805  12.422   9.539  20.940 -0.0714  0.2637  0.0729
57893W        W  806  13.534  10.600  28.504  0.2572 -0.0010 -0.1925
57894W        W  807  22.964  12.211  26.847 -0.1092 -0.2085 -0.2231
57895W        W  808   4.225   7.579  28.101 -0.0094  0.0850 -0.1528
57896W        W  809   2.302  20.629  23.717  0.0137  0.2514 -0.2726
57897W        W  810   1.639  15.898  19.346  0.0231  0.0815 -0.0517
57898W        W  811   2.384   7.594  23.550 -0.2755 -0.0262  0.0743
57899W        W  812  33.020  17.418  22.782  0.0199 -0.2064  0.0212
57900W        W  813  30.366  13.853  28.010 -0.2782  0.1951  0.0257
57901W        W  814   4.694   9.015  21.402 -0.0600 -0.1855  0.2130
57902W        W  815  10.862  12.980   6.379 -0.0982 -0.1697 -0.0732
57903W        W  816  27.320  24.918  24.352 -0.0087  0.0707  0.0577
57904W        W  817  10.421  10.282   4.666  0.1257 -0.1144  0.3404
57905W        W  818  15.653  14.738  27.135 -0.0206  0.0791  0.0542
57906W        W  819  13.952   8.386  24.602 -0.0476  0.1060 -0.0476
57907W        W  820  11.279   9.177  10.760  0.0462  0.0713  0.0327
57908W        W  821  29.710  17.205  27.796 -0.2256  0.0610 -0.1275
57909W        W  822  34.195  11.426  28.761 -0.0843  0.1234 -0.1872
57910W        W  823   4.935   1.339  29.105 -0.0742 -0.2088 -0.0828
57911W        W  824   5.555   6.350   1.661  0.1712  0.0452  0.0460
57912W        W  825   0.528   7.357  20.806  0.0285 -0.3879 -0.1355
57913W        W  826  29.416  32.140  27.620  0.1315  0.0080 -0.0881
57914W        W  827   5.227  18.190   5.789  0.2402 -0.4518  0.2590
57915W        W  828  28.774  10.837  25.341  0.1940  0.0227 -0.0617
57916W        W  829   2.489   9.244   2.911  0.0458 -0.1386  0.1399
57917W        W  830  33.009  16.449   1.317 -0.0295  0.0082  0.1581
57918W        W  831  33.793  14.581  27.337 -0.0549 -0.1810  0.2867
57919W        W  832  23.847  10.858  28.082 -0.1185 -0.0157  0.0989
57920W        W  833   0.211   4.957  27.813  0.2753  0.2789 -0.0011
57921W        W  834   1.070  14.887   1.145 -0.1763 -0.0644 -0.0660
57922W        W  835   7.222  32.020   1.571 -0.0946  0.1170 -0.4727
57923W        W  836   1.374   4.986   0.906 -0.1331  0.2766  0.0140
57924W        W  837   7.794  34.428   6.963 -0.1744 -0.0648 -0.1274
57925W        W  838   9.125  13.708   6.119  0.1226 -0.0497 -0.2298
57926W        W  839  14.007   4.588   2.802  0.2272  0.0120  0.0066
57927W        W  840  29.736  16.454   4.684  0.0314  0.1065  0.1883
57928W        W  841  31.419  15.424  22.051 -0.0849  0.1502 -0.0509
57929W        W  842   0.072  21.130  25.183  0.1310 -0.0614 -0.3016
57930W        W  843  30.172  11.865  27.149 -0.0094 -0.0965 -0.0063
57931W        W  844   9.109   3.767  26.782  0.0662 -0.1611  0.1600
57932W        W  845   6.262  10.134   9.213 -0.2144 -0.0658  0.0354
57933W        W  846   9.634   7.077  18.693  0.1583  0.0229  0.1859
57934W        W  847  30.460  14.788  29.576 -0.2037 -0.3076 -0.0431
57935W        W  848  10.086  15.893   3.806  0.1745  0.0383 -0.1197
57936W        W  849  32.953  17.985  29.657 -0.2359 -0.0262 -0.1289
57937W        W  850  32.722   7.073   3.148 -0.2176  0.1150 -0.2093
57938W        W  851  10.113  11.380   9.599 -0.1655 -0.0376 -0.1714
57939W        W  852  10.481  16.800   0.823  0.0658 -0.2574  0.0692
57940W        W  853  30.594   9.618   1.797  0.4210 -0.0675  0.0415
57941W        W  854   0.353  16.162   7.978 -0.1411  0.0154  0.0948
57942W        W  855   0.648   7.194  24.250  0.1086  0.1751 -0.0132
57943W        W  856   0.083   6.555   2.120 -0.1752 -0.0233  0.0826
57944W        W  857  32.634   7.193   4.039  0.0972 -0.2269 -0.0188
57945W        W  858   3.500  10.152   9.984 -0.1522 -0.1165 -0.3237
57946W        W  859  32.443   9.967   5.253 -0.0772  0.2350 -0.3278
57947W        W  860   2.854  14.516   2.941 -0.1829  0.3304 -0.0646
57948W        W  861  27.539  20.220  26.988  0.0030  0.1161  0.0929
57949W        W  862  10.095   7.198   0.752  0.0235 -0.1710  0.1700
57950W        W  863  30.248  11.399   0.478  0.0830  0.0318  0.0654
57951W        W  864  24.890  12.451   2.167  0.0923 -0.1515  0.1921
57952W        W  865   9.854   8.585   5.286 -0.2232  0.1050  0.1471
57953W        W  866   3.781   9.868  17.508 -0.0904 -0.0233  0.0467
57954W        W  867  31.167  14.521   3.539 -0.0079  0.3230 -0.1706
57955W        W  868   4.251   5.006   4.081 -0.2122 -0.0627 -0.1214
57956W        W  869   2.838  12.731   5.053  0.0142  0.1558 -0.0357
57957W        W  870  10.949  14.998   8.836 -0.0553  0.0012 -0.5147
57958W        W  871  29.209   5.236   1.684 -0.1773  0.2833  0.3137
57959W        W  872  28.129   6.376   2.272 -0.1758  0.0475 -0.1542
57960W        W  873   7.157   2.702   6.909  0.1929 -0.1256  0.0254
57961W        W  874  21.824   8.437   3.641  0.1152  0.2504  0.1220
57962W        W  875  30.488   2.281   2.216 -0.0484  0.1237 -0.0040
57963W        W  876  31.465  12.834  17.365  0.1834 -0.1202 -0.0718
57964W        W  877  25.786  10.956   1.330  0.1009  0.1275  0.0015
57965W        W  878  33.476  12.126  28.110 -0.2333  0.0554 -0.0823
57966W        W  879   0.835   6.864   9.293 -0.0089  0.0511  0.0670
57967W        W  880  29.742  10.753  16.418  0.1492 -0.0923  0.0345
57968W        W  881  29.904   6.453   5.450 -0.2148  0.2661  0.0505
57969W        W  882   0.397  13.890  15.320 -0.4702  0.2602 -0.1326
57970W        W  883   2.230  14.726   5.517 -0.0223  0.0787 -0.1073
57971W        W  884   5.346  17.527   0.890 -0.3807 -0.0976  0.0897
57972W        W  885   4.120  10.136  28.796 -0.0977 -0.1145  0.1784
57973W        W  886  25.123   8.575   1.820  0.3340 -0.1782 -0.3438
57974W        W  887  29.450   2.893  25.954  0.1491  0.1415 -0.1986
57975W        W  888   6.194  22.056  14.958 -0.1609 -0.2574  0.0666
57976W        W  889  21.496  22.781  21.890 -0.1030  0.2443  0.1885
57977W        W  890   7.991   7.653   7.851  0.0988 -0.2569  0.0158
57978W        W  891  27.654  14.043  19.714  0.2670 -0.3180  0.0770
57979W        W  892  23.552   3.802   1.384 -0.1403  0.1709 -0.2741
57980W        W  893  32.607  16.346   0.415 -0.0650 -0.1137  0.2403
57981W        W  894   3.242  14.580   9.299 -0.3389 -0.0779 -0.1752
57982W        W  895  30.555   9.475   1.299  0.0014  0.2559  0.2128
57983W        W  896  13.697  17.884   0.777  0.2417  0.0737  0.2513
57984W        W  897   3.634   4.087  22.747  0.0955  0.0599 -0.0807
57985W        W  898   0.031   6.774  26.413 -0.0642 -0.0317 -0.0873
57986W        W  899   6.156  11.630   0.811  0.1127  0.1360  0.1372
57987W        W  900  27.820   3.361  23.248 -0.1714  0.3467  0.2213
57988W        W  901   1.687  19.252   9.027  0.4293  0.0897  0.0292
57989W        W  902  33.478   4.455   6.161  0.0487  0.0891  0.3338
57990W        W  903  27.420  14.957   3.616  0.2708  0.4587 -0.1058
57991W        W  904   5.022  25.062   6.562  0.1623  0.0805  0.0954
57992W        W  905   0.557   3.871   5.457  0.0608  0.0596 -0.0454
57993W        W  906  14.073  16.546   1.568  0.1887 -0.0540  0.0168
57994W        W  907  31.035  19.264   3.083 -0.0352  0.2048 -0.0827
57995W        W  908   2.499   8.142  21.719 -0.4121 -0.0601 -0.0148
57996W        W  909  30.195  12.579   9.670  0.0234 -0.1854  0.0438
57997W        W  910  23.131   3.698  25.730 -0.3338  0.0503 -0.1514
57998W        W  911  32.822   8.922   9.402 -0.2110 -0.0159  0.0322
57999W        W  912  25.549  17.937  24.370  0.2241 -0.2381 -0.2504
58000W        W  913  34.478   7.779  29.636  0.2698 -0.3616 -0.1748
58001W        W  914   4.597  11.459  24.301 -0.0723  0.2879  0.0649
58002W        W  915   2.026  12.274   3.047 -0.0661  0.1271 -0.3813
58003W        W  916  33.221  11.981   0.678 -0.0325 -0.0498 -0.2836
58004W        W  917  19.284   6.815  16.227  0.0556  0.2183  0.2116
58005W        W  918   0.029  22.747   3.500  0.0959  0.0875 -0.1129
58006W        W  919   3.162   1.828   9.143 -0.1683 -0.0518  0.0430
58007W        W  920   0.635   7.843  28.963 -0.1585 -0.0828 -0.1065
58008W        W  921   5.010  14.618   6.064  0.1189  0.2207 -0.2465
58009W        W  922   1.147   8.023   0.680 -0.1794 -0.0537  0.1911
58010W        W  923   1.860   8.768  27.977 -0.0839 -0.0252 -0.0283
58011W        W  924   1.819  18.157   2.580  0.1781 -0.3797  0.2732
58012W        W  925  22.220   8.673  26.243  0.0572 -0.3382  0.2746
58013W        W  926  10.730  18.705  28.188  0.0407 -0.0381  0.2022
58014W        W  927   6.812  15.700   3.891  0.0262 -0.0398 -0.3989
58015W        W  928  30.670  13.048   3.708 -0.0638  0.3731 -0.1393
58016W        W  929   2.164   2.716  22.548  0.0504  0.0263 -0.0476
58017W        W  930   8.917  28.632  27.418 -0.0853 -0.2446 -0.3845
58018W        W  931   5.973   7.894  29.190 -0.1463  0.0856  0.0609
58019W        W  932  10.885   5.512  25.243  0.1931 -0.1315 -0.0684
58020W        W  933   8.183  11.964   1.559 -0.2563  0.3856 -0.0024
58021W        W  934  27.011  19.385   0.415  0.1953 -0.2320  0.1499
58022W        W  935   0.213  32.407   3.892  0.1719 -0.1233 -0.5406
58023W        W  936   0.190   7.363  10.825  0.3370 -0.0366  0.1683
58024W        W  937   4.294  19.635   3.540 -0.2182  0.0616 -0.5189
58025W        W  938  17.752  13.930  21.596 -0.0994  0.1416 -0.1469
58026W        W  939  34.012   2.238   1.151  0.0261  0.1746 -0.2108
58027W        W  940   9.706  12.585   4.609 -0.2104  0.1679 -0.1103
58028W        W  941   1.236  10.740  19.033  0.1719 -0.0059  0.2406
58029W        W  942  12.721   5.573   0.918  0.0868 -0.1656 -0.0438
58030W        W  943  25.122   5.419   0.098 -0.1634 -0.1718  0.1288
58031W        W  944  29.812  16.851   6.198  0.3455 -0.0326  0.2029
58032W        W  945   2.773  10.852  29.458 -0.1904  0.1720  0.1286
58033W        W  946  25.486   6.046   2.614 -0.0110 -0.2489 -0.0590
58034W        W  947   1.261  11.033  16.174  0.0336 -0.0843 -0.3973
58035W        W  948   9.434  13.718   8.442 -0.2478  0.1509 -0.2144
58036W        W  949  28.097  23.418   2.091 -0.0586 -0.3016 -0.2257
58037W        W  950   0.007  13.936  15.664 -0.1980  0.3204 -0.1159
58038W        W  951   9.681  10.200   2.596  0.0214  0.1353 -0.1413
58039W        W  952  26.897  17.312   5.811 -0.1822  0.2307 -0.3388
58040W        W  953  27.089   3.913  26.593  0.1762  0.0626  0.2367
58041W        W  954  32.941  13.459  23.079 -0.4269 -0.5307 -0.1973
58042W        W  955  33.942  14.842   1.695 -0.2131  0.1268  0.3477
58043W        W  956   9.168  15.918  18.033 -0.0362  0.1439 -0.0656
58044W        W  957   2.297  10.168   6.921  0.0795  0.0280 -0.1177
58045W        W  958   0.289   1.829  17.652  0.0406 -0.1240  0.3160
58046W        W  959  30.592   9.139   2.073  0.1889  0.2836 -0.1727
58047W        W  960  30.959  15.035   0.266 -0.0520  0.0356  0.0201
58048W        W  961   7.951   1.407  19.810  0.0627 -0.1972 -0.0614
58049W        W  962  15.081   9.307  24.289 -0.2160 -0.0065  0.0158
58050W        W  963  28.178  18.361   9.366 -0.0924 -0.0725 -0.3006
58051W        W  964  34.021  13.251   4.054  0.2148 -0.2316  0.0643
58052W        W  965  33.707  32.653   6.010  0.0566  0.1132  0.1446
58053W        W  966   3.534   2.806  21.398 -0.0403 -0.0032 -0.0975
58054W        W  967  12.164   3.515   0.065 -0.0701  0.2108 -0.0757
58055W        W  968  22.515   5.868  21.721 -0.1018 -0.0690  0.1374
58056W        W  969   0.861  16.956  28.226 -0.1532 -0.0230 -0.2662
58057W        W  970  27.120  17.653   4.888  0.0432  0.3957  0.0174
58058W        W  971  31.936   6.610  29.141 -0.0686 -0.1517  0.2109
58059W        W  972  31.111   9.559   0.211  0.0582  0.0304  0.0472
58060W        W  973   4.262  19.523   8.306 -0.0285 -0.0445 -0.0172
58061W        W  974   7.589  15.470   2.745 -0.0353  0.2064  0.3438
58062W        W  975   4.843   9.362  29.189 -0.0101  0.4851 -0.0113
58063W        W  976  29.374   5.893  26.306  0.0809  0.3055  0.0682
58064W        W  977   4.200   4.993  23.785  0.2505  0.3462 -0.3364
58065W        W  978  17.763  12.890   2.164  0.3472  0.1878  0.2257
58066W        W  979   2.876   4.634   1.301  0.1319 -0.4079 -0.1205
58067W        W  980   6.126  11.519  23.857 -0.0232  0.1444 -0.2077
58068W        W  981   3.451  17.967   4.826 -0.1136 -0.2364  0.1821
58069W        W  982   0.004  13.564   5.826  0.0096 -0.3917 -0.0635
58070W        W  983   3.528   4.448   3.908  0.0518  0.4076  0.1799
58071W        W  984   3.588   4.784   2.597  0.1043 -0.1747  0.0438
58072W        W  985  28.950  17.656  28.254  0.1270 -0.3725 -0.2785
58073W        W  986  24.832  14.846  28.589  0.0453 -0.0870  0.0612
58074W        W  987  10.734  10.574   4.193 -0.0656 -0.1476 -0.2282
58075W        W  988  32.675   3.603   7.632  0.0263  0.0393 -0.0771
58076W        W  989   0.826  15.445   4.136  0.0468 -0.3799 -0.1152
58077W        W  990  31.646  12.616   0.844  0.1809 -0.1184 -0.1985
58078W        W  991  10.531   8.168   0.232  0.0418  0.2544  0.0198
58079W        W  992  12.331   1.683   3.224  0.1539 -0.1047 -0.0179
58080W        W  993  12.135  15.924  21.787 -0.0489 -0.0432  0.3359
58081W        W  994  10.677  10.119   6.612  0.0227 -0.1217 -0.0158
58082W        W  995  33.097   4.386  28.337 -0.0928 -0.1034  0.1897
58083W        W  996   2.734   7.954   8.462  0.1280  0.0129  0.2839
58084W        W  997   2.434  19.290   5.442  0.5800 -0.0867 -0.0596
58085W        W  998   8.704  10.524  20.456 -0.0912 -0.0634 -0.1488
58086W        W  999   2.968  16.361  25.325 -0.1513  0.0743 -0.3487
58087W        W 1000   2.157  33.724   2.989 -0.3644 -0.1220  0.5286
58088W        W 1001   3.292  23.155   8.550  0.1752  0.0876 -0.0296
58089W        W 1002   1.479  20.099  28.855 -0.0388 -0.1941  0.0876
58090W        W 1003  24.843  27.259  21.167 -0.1372 -0.1591 -0.0269
58091W        W 1004  33.229  12.278  23.621  0.0993 -0.1018  0.1752
58092W        W 1005   3.536  28.155   2.410 -0.1693  0.0624  0.1747
58093W        W 1006  25.953  10.882  17.529 -0.0491 -0.2522 -0.4081
58094W        W 1007  32.205   8.661   5.666 -0.0645 -0.1740 -0.0406
58095W        W 1008  10.518  14.779   5.850 -0.0908 -0.0653 -0.1899
58096W        W 1009  33.248  13.235   8.311  0.0053 -0.0605  0.1667
58097W        W 1010  23.626   1.047   9.588  0.0299 -0.2003 -0.0584
58098W        W 1011  33.491  16.033  17.288  0.3377  0.0338 -0.0775
58099W        W 1012   5.048  15.848   0.421 -0.1155  0.0599  0.2103
58100W        W 1013  20.693   6.298  18.972  0.2898  0.0086  0.0988
58101W        W 1014  30.945   4.946  18.521 -0.2383 -0.0393 -0.2448
58102W        W 1015   0.504  10.557   0.609 -0.0142 -0.1048 -0.0862
58103W        W 1016  31.159  10.125   6.458  0.0931  0.2191 -0.0633
58104W        W 1017  16.543  12.250   4.950  0.0019  0.0361 -0.3873
58105W        W 1018   3.650   3.301  22.932 -0.0775 -0.2683  0.0066
58106W        W 1019   6.613   5.297   4.179 -0.0812  0.1671  0.2190
58107W        W 1020   0.686  15.274   6.845  0.0157 -0.1954 -0.1393
58108W        W 1021   9.614   0.417   3.978 -0.0036 -0.0197 -0.0923
58109W        W 1022   6.610   3.164  26.387 -0.2894 -0.1026  0.1886
58110W        W 1023  28.290  12.787   3.957  0.0900  0.0635 -0.0314
58111W        W 1024   2.679  32.316  16.102  0.1517 -0.1770 -0.1818
58112W        W 1025   1.273   7.243   0.342 -0.3649 -0.1727 -0.0039
58113W        W 1026  31.826  12.149  20.909  0.0455  0.2047  0.3225
58114W        W 1027  13.798   7.285   5.348 -0.1549  0.2740  0.1257
58115W        W 1028  22.096  14.347   1.377 -0.2496  0.2666 -0.1947
58116W        W 1029  29.736   2.916   9.987  0.0582  0.3524 -0.2794
58117W        W 1030  31.458  10.349  28.698  0.1895 -0.0782 -0.0431
58118W        W 1031  26.742   0.398   6.405 -0.1711 -0.0628 -0.0581
58119W        W 1032   3.427  17.271   2.746  0.0274 -0.2361 -0.0668
58120W        W 1033  33.435  10.609   8.949  0.1282  0.3541  0.0392
58121W        W 1034  25.335   9.985   6.984  0.1717  0.1828 -0.0044
58122W        W 1035  11.076  14.653   3.036  0.2090 -0.0611 -0.2967
58123W        W 1036  29.095  14.264   3.905 -0.4989  0.2474 -0.2639
58124W        W 1037  11.392  31.676  12.345 -0.3476 -0.0220 -0.0041
58125W        W 1038   0.645   3.125  25.288 -0.1150  0.0538  0.1788
58126W        W 1039  34.444  17.680   6.182  0.2216 -0.0123 -0.0799
58127W        W 1040  26.361   7.745   7.094  0.0631  0.2864 -0.0829
58128W        W 1041  31.376   6.291  22.784  0.2626 -0.1800  0.3119
58129W        W 1042   8.585  14.782   6.009  0.3061 -0.1841 -0.2312
58130W        W 1043  10.698   5.953   5.514 -0.1565 -0.2292 -0.2345
58131W        W 1044  28.387   9.188   4.570 -0.2618 -0.1794  0.0522
58132W        W 1045   3.774   3.724  11.715  0.2017  0.0060 -0.1879
58133W        W 1046  15.539  21.053   7.641 -0.2289  0.1511  0.3787
58134W        W 1047   6.047  12.844   3.306  0.0567 -0.1536  0.1650
58135W        W 1048   7.676   9.289   7.176  0.1439  0.1223 -0.0553
58136W        W 1049  32.883  27.904  23.594  0.1373 -0.0967 -0.1795
58137W        W 1050   2.566   1.077  29.168  0.0912  0.1580 -0.1718
58138W        W 1051   4.987   1.190   1.705  0.3522  0.1229  0.2262
58139W        W 1052  34.281  17.408   0.452  0.0410 -0.1236 -0.2313
58140W        W 1053  32.021  10.120   4.591  0.2933  0.0031 -0.1579
58141W        W 1054  12.213  13.823   6.511  0.0093  0.2475 -0.0242
58142W        W 1055   6.497  13.253   6.849 -0.0213  0.3687  0.0844
58143W        W 1056   0.423   6.028   0.469 -0.0360 -0.1843  0.0760
58144W        W 1057  34.290   3.477   4.591  0.1809  0.2241 -0.0768
58145W        W 1058  30.713   8.087   9.335 -0.1022 -0.0181  0.0825
58146W        W 1059  34.466   3.678  12.201 -0.2351 -0.3730 -0.0721
58147W        W 1060   5.588   6.201   0.048  0.1279  0.1563  0.2042
58148W        W 1061  28.164  15.090   0.018 -0.2003 -0.2787  0.1403
58149W        W 1062   5.777  26.529   4.135  0.1388  0.0779  0.5455
58150W        W 1063  32.730   9.137  26.261  0.0901 -0.2328  0.0798
58151W        W 1064  27.121  15.836   9.218  0.1887  0.0351  0.2818
58152W        W 1065   7.904   7.648  11.591  0.0832  0.1869  0.0974
58153W        W 1066  33.174   0.749   5.325  0.2647  0.2351 -0.0445
58154W        W 1067   1.419  13.473  10.355  0.1360  0.2668 -0.0677
58155W        W 1068  23.496  15.744   7.729  0.1084  0.0519  0.2610
58156W        W 1069   2.022   9.500  29.749  0.2608 -0.1042 -0.0879
58157W        W 1070   0.048  12.765  24.143  0.1722 -0.1486  0.0971
58158W        W 1071  33.356  12.805   0.478 -0.0904  0.0586  0.5604
58159W        W 1072  30.904  12.171   3.120 -0.0102 -0.0689 -0.2294
58160W        W 1073  30.460  17.197   4.947  0.0284  0.0037  0.5058
58161W        W 1074  30.717   9.572   7.383 -0.3737  0.1580  0.0654
58162W        W 1075   2.134   9.004  28.492 -0.2604  0.0402 -0.2523
58163W        W 1076   9.177  13.648   7.512 -0.0014 -0.3810 -0.0522
58164W        W 1077   1.910  15.146   3.779 -0.1480 -0.1715 -0.0930
58165W        W 1078  25.906   9.439   4.554  0.2590  0.0061 -0.0803
58166W        W 1079   6.108   4.734   2.074 -0.1794 -0.0228  0.1173
58167W        W 1080   6.528   9.887   1.683  0.0909 -0.0229  0.3051
58168W        W 1081   4.775  11.412  28.322 -0.1518  0.2347  0.3351
58169W        W 1082  14.078  18.823   3.470  0.0469  0.2065  0.1751
58170W        W 1083   2.938   3.532  10.608  0.0424 -0.1316 -0.1232
58171W        W 1084   6.797  15.068   3.120 -0.0759  0.0120 -0.0948
58172W        W 1085  27.747  13.083   6.625  0.0098  0.1578  0.2347
58173W        W 1086  33.007  12.814   8.422  0.0098 -0.3241 -0.2023
58174W        W 1087   4.723  12.755  10.146 -0.0924  0.0775  0.0968
58175W        W 1088  34.037   7.369   3.440  0.1851 -0.1175  0.2247
58176W        W 1089  33.142   8.362   2.423  0.0597 -0.1218  0.3801
58177W        W 1090  34.066  19.829   5.530  0.1787 -0.0107 -0.0220
58178W        W 1091  28.921  10.035   4.758  0.1107 -0.1148 -0.1234
58179W        W 1092   7.674   1.847   0.287 -0.0808  0.2672 -0.0602
58180W        W 1093   3.929  11.068  28.750 -0.0568  0.1574  0.1641
58181W        W 1094  33.905  23.339   5.355  0.2111  0.1557 -0.2257
58182W        W 1095   2.396  31.595   3.949 -0.1725  0.2188  0.0328
58183W        W 1096   5.469  11.808  22.779 -0.0981  0.0157 -0.0082
58184W        W 1097   8.671   8.054   5.297 -0.1162 -0.0776 -0.0578
58185W        W 1098  30.611  33.145  25.868 -0.0424  0.0271 -0.0130
58186W        W 1099   2.075   8.713   3.982  0.2440  0.0080 -0.0888
58187W        W 1100   2.948  10.048   9.680  0.2487 -0.0596  0.2458
58188W        W 1101  32.951  20.632   8.856 -0.2001  0.1433 -0.0431
58189W        W 1102   0.606  33.839  28.801 -0.0230  0.0834  0.2493
58190W        W 1103   0.380  11.695  26.306 -0.0198 -0.2095  0.2627
58191W        W 1104   4.428   7.996   7.430  0.2655  0.3122 -0.0763
58192W        W 1105   1.159   9.531   2.504 -0.0134  0.1595  0.4214
58193W        W 1106  29.511  11.855   8.754  0.0661  0.1856 -0.2096
58194W        W 1107  11.815  12.419   1.877 -0.0000 -0.2037  0.1158
58195W        W 1108   6.689   5.737   7.983  0.0545  0.0450  0.1795
58196W        W 1109  30.141   9.775   1.191  0.1143  0.2622  0.2482
58197W        W 1110   4.008   5.389   6.227  0.1943  0.1030  0.4175
58198W        W 1111   4.204  10.622   4.554  0.1316  0.1742  0.0446
58199W        W 1112  31.170  17.840  29.090 -0.3019 -0.1284  0.1465
58200W        W 1113  33.458   5.988   4.446 -0.3399  0.4436  0.0634
58201W        W 1114   2.453   7.369   9.070  0.3265  0.1529 -0.1668
58202W        W 1115  26.834   5.534   3.617 -0.1237 -0.3399 -0.0320
58203W        W 1116  27.635   3.135   1.398 -0.0911  0.0698  0.1939
58204W        W 1117   6.828   9.142  10.536  0.0653 -0.1088  0.1204
58205W        W 1118   2.069  13.943   8.869 -0.0572  0.3121 -0.0454
58206W        W 1119  28.115  19.610   2.076 -0.1354  0.3747  0.0005
58207W        W 1120  12.336  30.771  11.967  0.1610 -0.2789 -0.0318
58208W        W 1121   2.883   8.831  29.585 -0.0655 -0.2058 -0.1881
58209W        W 1122   9.155  30.536   1.671  0.2219  0.1733 -0.3028
58210W        W 1123   6.671  10.316  10.543 -0.0929  0.2357  0.3809
58211W        W 1124  12.249   8.760   4.694  0.1214 -0.1092 -0.3502
58212W        W 1125  29.202   9.268   3.764  0.2516  0.2633 -0.0158
58213W        W 1126   1.060  10.538  17.231 -0.0500  0.2393  0.1407
58214W        W 1127  12.035  13.107   0.823 -0.0667 -0.6108 -0.1856
58215W        W 1128   4.106   4.350  21.425 -0.3392 -0.1287  0.1496
58216W        W 1129   5.832  16.304   7.234  0.2430  0.0913  0.0213
58217W        W 1130  29.530  19.293  28.507 -0.0132 -0.2360  0.0762
58218W        W 1131  31.901  14.097   1.429  0.2464  0.0900 -0.1019
58219W        W 1132  11.442  13.477   8.028 -0.0464  0.1109  0.3520
58220W        W 1133  27.309  16.426   9.328  0.0863  0.0541  0.0148
58221W        W 1134   3.833   8.054   4.033  0.0277 -0.1792  0.0279
58222W        W 1135   2.217   4.419  19.151 -0.0834 -0.0923  0.1020
58223W        W 1136  17.852  15.937  27.491 -0.1479  0.2447 -0.0023
58224W        W 1137  10.587  12.215   3.161 -0.2793 -0.0598  0.0928
58225W        W 1138   2.352   7.180   3.219 -0.0956  0.1077 -0.0913
58226W        W 1139  28.667   8.723  22.254 -0.1212  0.2362  0.0162
58227W        W 1140  23.410  19.946   8.501 -0.3460  0.1506  0.0812
58228W        W 1141   0.566   8.973   1.048  0.2106 -0.0993 -0.1748
58229W        W 1142  29.588   2.569   0.510  0.2329 -0.3373  0.4580
58230W        W 1143  28.605   5.185  25.637  0.0466 -0.1097  0.0373
58231W        W 1144   9.063  15.815  29.299  0.2298  0.0927  0.0052
58232W        W 1145  24.435  29.807   8.848 -0.4599  0.1950 -0.6131
58233W        W 1146  11.810   8.405   5.895  0.0029  0.0227 -0.0680
58234W        W 1147   0.747   1.157  18.738  0.0819  0.0159  0.3637
58235W        W 1148  33.598  16.767  29.566 -0.1107 -0.2648 -0.4109
58236W        W 1149  33.661   0.262   4.623 -0.2239 -0.3707  0.0671
58237W        W 1150   3.455  13.545   6.815  0.0637 -0.2539 -0.0092
58238W        W 1151  20.628   6.968  26.172  0.2764  0.0106 -0.0731
58239W        W 1152   0.436  19.868   8.387  0.0190 -0.0960  0.1390
58240W        W 1153   3.815   3.761   2.738 -0.0050 -0.3963 -0.1247
58241W        W 1154  33.897  12.262  23.131 -0.0683 -0.2431  0.1449
58242W        W 1155  33.893   6.742  24.830 -0.0500 -0.1284  0.3332
58243W        W 1156  28.713  10.578   2.278  0.1132 -0.0561 -0.0329
58244W        W 1157   7.343  15.231  29.267  0.0793  0.1425 -0.1322
58245W        W 1158   9.095   5.316   9.313  0.1165  0.1570  0.1615
58246W        W 1159  20.260   8.836   3.609 -0.0919 -0.4166 -0.2379
58247W        W 1160  11.574   4.685   4.840  0.0501  0.0396 -0.1794
58248W        W 1161   5.812  12.624  26.228  0.2980  0.0577  0.3838
58249W        W 1162  34.020  13.407  25.059  0.2069 -0.4078 -0.0649
58250W        W 1163   4.127   1.566  20.011 -0.0726  0.1141  0.0732
58251W        W 1164   2.528   1.667  10.456  0.3502  0.1705 -0.0905
58252W        W 1165   6.521   3.235  27.836  0.0124 -0.0489 -0.1070
58253W        W 1166  33.375  12.026   7.175 -0.1597 -0.1216 -0.2284
58254W        W 1167   0.908   8.857   8.746  0.2290  0.2551  0.5537
58255W        W 1168   8.720  13.844   0.753 -0.2073  0.2220  0.0592
58256W        W 1169  33.918   7.286   5.555 -0.1275  0.0485 -0.0741
58257W        W 1170   0.382   9.925  10.519  0.1496  0.3805 -0.2584
58258W        W 1171  20.735  16.554  27.151  0.1926 -0.3330 -0.0030
58259W        W 1172   9.330  15.772   8.370  0.1122  0.0455 -0.1607
58260W        W 1173   4.244  12.399   3.090  0.0251  0.0068  0.0376
58261W        W 1174  30.543  11.720   1.806  0.1331 -0.2193  0.3405
58262W        W 1175  31.734   6.508  28.606 -0.3464  0.2238 -0.2061
58263W        W 1176  21.180   5.729  25.725  0.2523 -0.0234  0.1317
58264W        W 1177   5.800   4.906   7.418 -0.0345  0.0092  0.3596
58265W        W 1178   0.950  12.148  24.903  0.1571 -0.1684 -0.1596
58266W        W 1179   3.361   3.252   5.991 -0.0882 -0.1520  0.0830
58267W        W 1180   3.206   7.299  12.124 -0.0885  0.2830 -0.2358
58268W        W 1181   5.855  11.007   1.089  0.1022 -0.2095 -0.0423
58269W        W 1182  25.335   9.426   5.565 -0.2623 -0.1724 -0.2081
58270W        W 1183  32.926   8.376   3.376  0.1375 -0.0430 -0.0396
58271W        W 1184   7.946  22.509   5.373 -0.2725  0.0639 -0.1630
58272W        W 1185  30.848   1.609  29.720  0.2671  0.2585 -0.3346
58273W        W 1186   5.546   2.733   4.023  0.2159  0.0771  0.1454
58274W        W 1187  27.405  31.397   6.847  0.0600 -0.0884  0.0244
58275W        W 1188  10.329   5.009  13.429  0.1904  0.0168 -0.1278
58276W        W 1189   0.206  16.151  24.663 -0.3014 -0.0732  0.0794
58277W        W 1190  25.125   9.123   0.236 -0.2021  0.0461  0.1308
58278W        W 1191   2.431   3.880   6.566 -0.0605 -0.0936  0.1007
58279W        W 1192   1.484   4.623   9.874  0.0634 -0.1281 -0.5630
58280W        W 1193   3.877   6.837   4.257  0.2337 -0.1212  0.2433
58281W        W 1194   1.967   3.935  11.519  0.0225  0.0013  0.1744
58282W        W 1195   0.661   9.573   4.312  0.2130  0.2543 -0.0765
58283W        W 1196  32.750   9.340  25.825  0.2493 -0.0124 -0.1514
58284W        W 1197   7.133   6.309   6.150 -0.0912  0.3348  0.0102
58285W        W 1198  34.096  12.940   8.226 -0.2055 -0.2350  0.1757
58286W        W 1199  27.219  12.825  27.579  0.0937 -0.0610  0.2149
58287W        W 1200   0.352  12.453   9.529 -0.0483  0.2315  0.1703
58288W        W 1201   4.628   0.060   5.148  0.0553 -0.1372 -0.0857
58289W        W 1202  11.901  13.417   6.377  0.3515  0.0004  0.0405
58290W        W 1203  12.268   3.662   3.027  0.0536  0.1950 -0.2820
58291W        W 1204   0.883   6.007  25.791  0.0852  0.0971 -0.0129
58292W        W 1205   2.344  26.240  10.164  0.1167  0.0605 -0.1388
58293W        W 1206  28.137  34.298  27.626  0.0384  0.1666 -0.1733
58294W        W 1207  21.457  14.641  29.447 -0.2272  0.0558 -0.1963
58295W        W 1208   3.699   9.520   9.657  0.0971 -0.1441  0.0217
58296W        W 1209  29.495   4.634   6.956 -0.0715  0.3402 -0.3604
58297W        W 1210   7.099   8.662   3.711 -0.1656  0.1836 -0.3509
58298W        W 1211  33.662   5.929   6.184 -0.1160 -0.0231  0.1263
58299W        W 1212  31.873  16.315   5.106  0.0036 -0.0611 -0.1270
58300W        W 1213  26.863  33.080   8.380  0.4827  0.1056  0.0766
58301W        W 1214   1.009   5.904   6.515  0.2570 -0.1075  0.1105
58302W        W 1215  31.464   3.524   2.289  0.1048 -0.0572 -0.1086
58303W        W 1216  33.497   3.736   1.672 -0.1374  0.2748  0.3469
58304W        W 1217  11.198   2.759   7.407  0.0044  0.1022  0.1549
58305W        W 1218   2.832  13.870   9.861 -0.0199  0.2580  0.0971
58306W        W 1219  10.918   2.719  12.757 -0.0598  0.1410  0.2307
58307W        W 1220   7.817   2.686   6.235 -0.2046 -0.0900 -0.0665
58308W        W 1221   0.824   4.108  10.265 -0.0969 -0.0980 -0.1089
58309W        W 1222   1.783   7.090   7.303  0.2217  0.0547  0.0253
58310W        W 1223   5.130  22.104   2.935  0.1232 -0.1148  0.0120
58311W        W 1224   7.699   6.543  12.693 -0.0835 -0.3595  0.0188
58312W        W 1225  30.459  12.000  28.472  0.2839 -0.4405 -0.1160
58313W        W 1226  13.021  13.224   6.228 -0.3241 -0.0241  0.0308
58314W        W 1227  24.633   9.353   3.596  0.2683 -0.1370 -0.1677
58315W        W 1228  27.259  15.037  25.738  0.1672 -0.2455 -0.4065
58316W        W 1229   8.467  20.165  28.557  0.0496  0.0946  0.1032
58317W        W 1230   2.664  19.293   4.022 -0.0146 -0.3918  0.3267
58318W        W 1231   2.933  10.768  20.487  0.1718 -0.3320  0.1366
58319W        W 1232  34.056  28.154   4.112 -0.0282  0.0201 -0.2707
58320W        W 1233   2.132   7.341   2.603 -0.2256 -0.0519  0.1998
58321W        W 1234   3.276  20.213   8.480 -0.0067 -0.0054 -0.0133
58322W        W 1235   4.474   8.047   1.832 -0.2649  0.0422 -0.2413
58323W        W 1236   0.382   8.452   2.300  0.1820 -0.4763 -0.1293
58324W        W 1237   5.600   5.677   7.513  0.1980 -0.1940 -0.1742
58325W        W 1238  26.787  15.349   5.408 -0.2767 -0.2101 -0.2691
58326W        W 1239  31.643   7.450  11.657  0.1093 -0.1565  0.0098
58327W        W 1240  33.180  33.174   9.415  0.0791  0.1455 -0.1308
58328W        W 1241  25.578  11.080  26.516  0.1808 -0.1799  0.0667
58329W        W 1242   3.018  14.431  10.573 -0.4653 -0.0458  0.1634
58330W        W 1243  12.068  16.848   1.956 -0.2694 -0.1728 -0.2719
58331W        W 1244   0.047  11.523   6.789  0.1951  0.0904 -0.0964
58332W        W 1245   3.577   2.136   5.402  0.3269 -0.1595 -0.0371
58333W        W 1246   4.418  18.260  27.461 -0.1006  0.0357 -0.1210
58334W        W 1247  31.045   7.534   7.985  0.0105 -0.2216  0.0718
58335W        W 1248  33.229  13.589  26.853 -0.1488  0.0574  0.0672
58336W        W 1249   4.694   6.123   9.334  0.0573  0.2126  0.0022
58337W        W 1250  14.156  14.336  20.956  0.2044 -0.1591  0.0795
58338W        W 1251  33.576  13.473   8.985  0.2148 -0.1509  0.1255
58339W        W 1252  22.215  10.490   2.550  0.2119  0.3146  0.0404
58340W        W 1253  10.095   2.477   8.469  0.0476  0.2173 -0.2058
58341W        W 1254  30.637  14.015   0.373  0.0279 -0.2077  0.0953
58342W        W 1255  31.757   6.930   6.790 -0.0077 -0.0691 -0.1700
58343W        W 1256   8.532   3.057  28.928 -0.1468  0.0547  0.0012
58344W        W 1257  32.853   8.672   7.422  0.1376 -0.1991  0.2298
58345W        W 1258   1.565   4.039   8.699  0.0826 -0.0580  0.1598
58346W        W 1259  26.150  12.761   8.534 -0.1094 -0.1334 -0.0395
58347W        W 1260   6.055  31.131   7.629  0.2135  0.2851  0.0749
58348W        W 1261   2.705   6.689   2.893  0.2889  0.1142  0.2882
58349W        W 1262  26.728  23.314   0.730  0.0154  0.2239  0.1764
58350W        W 1263  30.012   9.321  26.386 -0.0488 -0.2056 -0.0122
58351W        W 1264  15.042   8.592   8.497  0.1388 -0.0546  0.2438
58352W        W 1265  28.407  11.222  26.569 -0.2275  0.2109  0.1007
58353W        W 1266  26.146  20.187   4.083 -0.0268 -0.0043  0.2697
58354W        W 1267   8.920   8.795   9.338 -0.2330  0.1397 -0.2287
58355W        W 1268   1.461  32.209   6.233  0.3376 -0.2610  0.1774
58356W        W 1269   4.197  10.060   6.343 -0.0885  0.2630  0.1374
58357W        W 1270  13.315   2.686  18.808 -0.0933  0.0064 -0.2363
58358W        W 1271  33.620   7.449   7.421 -0.1574  0.2993  0.2363
58359W        W 1272   7.176  12.149  10.171  0.3883 -0.1217  0.2076
58360W        W 1273   4.069  12.355  27.134 -0.0345  0.3135  0.1028
58361W        W 1274  30.401   7.577  10.104 -0.3389 -0.1479  0.2268
58362W        W 1275  11.238   5.970  10.728 -0.1596  0.0907 -0.1978
58363W        W 1276   0.188   6.563  16.015  0.0721 -0.2723 -0.1820
58364W        W 1277  32.688  11.922   8.172  0.3005  0.2108  0.2118
58365W        W 1278   5.185   6.594  12.508  0.1413 -0.0250  0.0180
58366W        W 1279  24.518  13.939  27.046 -0.1697 -0.1904  0.2707
58367W        W 1280   4.756   8.409  24.487  0.0658  0.3700  0.1685
58368W        W 1281  17.196   5.405   5.748 -0.1858  0.0712  0.1759
58369W        W 1282   0.808  19.260   3.349 -0.0972  0.1482  0.1452
58370W        W 1283   6.023  31.667   6.917 -0.2639  0.1029  0.0916
58371W        W 1284   6.109   9.028   2.747  0.3003 -0.3484 -0.0075
58372W        W 1285  26.841   1.498   7.526 -0.0174  0.0645  0.1642
58373W        W 1286  11.246   8.938   4.351 -0.0459 -0.2998 -0.1958
58374W        W 1287  11.037  19.660  28.675 -0.2193 -0.0815 -0.4945
58375W        W 1288   2.133   4.693   5.218 -0.1255 -0.0002  0.0703
58376W        W 1289  33.339  13.111   5.272  0.1290  0.0711 -0.2279
58377W        W 1290  30.961  15.693  29.182  0.3752 -0.1745 -0.1148
58378W        W 1291  34.411  10.682   0.077  0.0111 -0.0872  0.3862
58379W        W 1292   1.893  32.359   5.285  0.0031  0.3463 -0.1310
58380W        W 1293   0.742  11.154  10.668 -0.1551 -0.1248  0.1811
58381W        W 1294  30.423  31.442   8.999  0.3113 -0.0202 -0.1681
58382W        W 1295   0.342  11.955   4.863 -0.1557  0.2024 -0.4719
58383W        W 1296  20.672   6.574   5.946  0.1258  0.0363 -0.1448
58384W        W 1297   4.089   3.151   7.292 -0.1765  0.0867 -0.0718
58385W        W 1298   4.908  15.084  23.365 -0.2948 -0.1063  0.0885
58386W        W 1299  25.216   0.571  27.256  0.4923  0.3389 -0.2809
58387W        W 1300  30.977  30.118   1.451  0.2567  0.2393 -0.1991
58388W        W 1301  32.311  19.699  23.140 -0.0105  0.0530 -0.0437
58389W        W 1302  26.732  18.303  27.740 -0.0455 -0.1133  0.1992
58390W        W 1303  22.834   5.881   7.096 -0.0513  0.1100 -0.0421
58391W        W 1304  33.797   7.078   2.694  0.3920 -0.1588  0.3128
58392W        W 1305   9.723   8.009   9.043  0.2398  0.1583 -0.1984
58393W        W 1306   8.721  32.636   9.208  0.2642  0.1190  0.0298
58394W        W 1307  33.474   0.499  20.216 -0.0133 -0.0265  0.0192
58395W        W 1308  29.070  11.743   0.909 -0.0256  0.1958 -0.1265
58396W        W 1309   6.767  10.330  11.490 -0.0153 -0.2491 -0.1046
58397W        W 1310  10.105  10.504   1.671 -0.3468 -0.0293  0.1285
58398W        W 1311  10.562  17.560   1.502  0.0736  0.1245  0.3891
58399W        W 1312  31.934  32.039   5.041 -0.1086 -0.2682  0.4179
58400W        W 1313   1.473   3.590  10.282 -0.3791 -0.1989  0.2154
58401W        W 1314  33.021  17.035  29.077  0.2951 -0.2412  0.2363
58402W        W 1315   9.860  14.957   5.615 -0.2984 -0.0615 -0.1337
58403W        W 1316   0.629   9.976   6.388  0.0253  0.1538 -0.2482
58404W        W 1317  32.089   9.729   4.223  0.1461  0.1715  0.1366
58405W        W 1318   5.422  29.581   2.534 -0.0532 -0.0561  0.1106
58406W        W 1319  12.782   8.855   4.724 -0.3502  0.1949  0.3280
58407W        W 1320  10.414  10.362  23.867  0.0726  0.1028 -0.2928
58408W        W 1321   8.393  30.200  10.159 -0.1591 -0.1952 -0.0316
58409W        W 1322   3.777   2.486   7.100  0.3697 -0.1876  0.0288
58410W        W 1323  12.200  14.267  23.778  0.2230  0.1954 -0.0744
58411W        W 1324  32.599  13.674   1.514 -0.3414 -0.0943 -0.1517
58412W        W 1325  30.649   3.354  26.902 -0.1860 -0.2780 -0.1579
58413W        W 1326  32.416   5.355  26.786 -0.0532  0.1198  0.2406
58414W        W 1327   1.537   2.844  11.378  0.2692 -0.0028  0.1411
58415W        W 1328   7.395  17.041   4.221 -0.1744 -0.1160 -0.4168
58416W        W 1329   1.286   5.751  26.211  0.3653  0.2224 -0.0117
58417W        W 1330   6.321   8.423  10.849 -0.1639  0.0583 -0.0789
58418W        W 1331   5.298   7.165  27.997  0.1426 -0.1702  0.0122
58419W        W 1332   1.316  14.659   3.014 -0.1672  0.4554  0.1752
58420W        W 1333  32.969  15.121   3.927 -0.0266  0.0867  0.1126
58421W        W 1334   4.451  33.433   4.070 -0.3330  0.2144 -0.0571
58422W        W 1335   1.991  10.207   7.775 -0.2151  0.2299  0.1886
58423W        W 1336  31.419  10.177   5.094 -0.1388 -0.1734  0.0831
58424W        W 1337   5.267   7.976  10.485 -0.1316 -0.0323 -0.3229
58425W        W 1338  25.392  11.235  29.158  0.0121 -0.0988 -0.0208
58426W        W 1339  18.258  13.373  16.406 -0.6503 -0.1816 -0.1244
58427W        W 1340   2.647  13.390   7.432  0.2784 -0.1237 -0.2469
58428W        W 1341  30.907  12.343   0.899  0.2529  0.0909  0.2286
58429W        W 1342  32.251  21.082  27.833  0.1694  0.2152  0.0716
58430W        W 1343   1.642  12.068   8.118  0.0636 -0.1222 -0.0862
58431W        W 1344  34.286   6.814  28.719 -0.0993  0.2793  0.2633
58432W        W 1345   2.738  17.345   6.222  0.1478 -0.1264 -0.1273
58433W        W 1346  10.614   9.532   1.509 -0.1614 -0.1550  0.0974
58434W        W 1347  10.478   0.374  12.282 -0.1515  0.1663  0.2696
58435W        W 1348   1.581  12.037   9.029  0.3533 -0.4375 -0.0952
58436W        W 1349   2.512   9.237   9.530  0.1253  0.1528  0.0009
58437W        W 1350   1.414   9.731   1.582 -0.2723  0.0917  0.1562
58438W        W 1351   8.956  31.534  28.336 -0.1300  0.4712 -0.1327
58439W        W 1352   3.289  13.897   4.714 -0.1564 -0.0738 -0.4327
58440W        W 1353   6.150   4.968   5.633 -0.0965 -0.0027 -0.1022
58441W        W 1354   2.497   7.839  28.922  0.3190 -0.2774 -0.3652
58442W        W 1355   0.394   9.850  28.428  0.1549 -0.0635 -0.2908
58443W        W 1356  32.617  14.513   9.046 -0.1752 -0.3592 -0.0067
58444W        W 1357   0.217  12.735   7.133  0.1367  0.0922  0.1171
58445W        W 1358   6.003  10.289   6.250  0.2096 -0.1459 -0.1426
58446W        W 1359  10.147  14.660   2.887  0.3433 -0.0011  0.1915
58447W        W 1360  27.482   9.276   9.214 -0.1816 -0.0496  0.0611
58448W        W 1361  29.994   3.970   2.200 -0.2475 -0.0806 -0.1066
58449W        W 1362  32.967   9.885   7.796  0.0115 -0.6584  0.0872
58450W        W 1363  34.021   2.213   9.104 -0.0346  0.2545 -0.3357
58451W        W 1364  27.074   7.144   2.280 -0.0909 -0.0345  0.2687
58452W        W 1365   8.840  18.099   8.848  0.1265 -0.0608  0.0949
58453W        W 1366   6.889  30.166  10.699 -0.3984 -0.1241  0.0800
58454W        W 1367  28.599  12.435  23.529 -0.0918  0.1659  0.0070
58455W        W 1368   1.318  30.715   9.326  0.2961 -0.0411 -0.1993
58456W        W 1369   1.037   3.413  10.024  0.2340  0.1087  0.3623
58457W        W 1370  25.996  13.270   9.722  0.1409  0.0120  0.0737
58458W        W 1371   8.939   5.730   7.670 -0.0735 -0.1121  0.1217
58459W        W 1372   8.432   0.071   2.009 -0.3112 -0.2299  0.3443
58460W        W 1373  34.226  32.556   8.620 -0.3661 -0.0969  0.0934
58461W        W 1374  33.576  17.603  27.189 -0.2457  0.2058  0.3048
58462W        W 1375   1.273  11.665   9.227  0.1173  0.3428 -0.2509
58463W        W 1376   1.997  34.399   8.893  0.3049  0.1042 -0.0931
58464W        W 1377  28.831   7.755   4.841 -0.1975  0.2616 -0.0946
58465W        W 1378   1.467   9.799   6.818  0.2892 -0.1155  0.1821
58466W        W 1379  10.256  10.866   4.963  0.1563  0.1359  0.0287
58467W        W 1380   7.177  24.982   4.079  0.2409  0.2142 -0.2704
58468W        W 1381   7.163   8.309   7.871 -0.1358 -0.2512  0.0241
58469W        W 1382  32.508  11.168   6.413  0.2871  0.1668 -0.0386
58470W        W 1383   8.966  15.192   9.233  0.2271  0.1847 -0.0452
58471W        W 1384   3.555   8.951  25.525  0.0306  0.0233 -0.1569
58472W        W 1385  20.780   7.641   2.909 -0.2034 -0.0410 -0.0948
58473W        W 1386  33.530  23.324  27.791 -0.4078  0.0778  0.3429
58474W        W 1387   1.715  26.300  29.362  0.3503 -0.1455 -0.2775
58475W        W 1388   4.819   3.259  27.758 -0.0777  0.0135  0.0057
58476W        W 1389   1.951  12.510   5.386  0.0143 -0.2944 -0.3649
58477W        W 1390   2.749   7.295   8.617  0.0726 -0.3581 -0.1853
58478W        W 1391  34.358   1.659   8.363 -0.0074 -0.1134 -0.0079
58479W        W 1392   1.820  16.665  23.233 -0.0365  0.0344 -0.0030
58480W        W 1393   0.461  24.461   5.185  0.2005  0.1946 -0.0602
58481W        W 1394   1.309   9.925   5.730  0.1609 -0.0824  0.0018
58482W        W 1395   5.677  12.276   2.508  0.0579  0.0380  0.1209
58483W        W 1396  26.045  10.247   4.399  0.0220  0.2149 -0.1528
58484W        W 1397   4.499   3.292   5.285  0.0960  0.0578 -0.3171
58485W        W 1398   2.436   5.977   3.494 -0.0086  0.1122  0.1781
58486W        W 1399   0.497  33.272   6.538 -0.2829  0.0469 -0.1109
58487W        W 1400  12.924  16.109  29.408  0.0882 -0.1727 -0.1587
58488W        W 1401   4.497  15.125  25.440 -0.0695  0.2129  0.2950
58489W        W 1402  26.963   7.002   0.178 -0.1179  0.3526 -0.1138
58490W        W 1403   1.416  13.421   9.283 -0.0210  0.2476  0.0672
58491W        W 1404   7.971  22.558   6.388 -0.0831  0.2027  0.1536
58492W        W 1405   1.372  19.940   1.996 -0.1270 -0.0354  0.1237
58493W        W 1406   0.025   9.387  25.695  0.3068 -0.0449  0.0201
58494W        W 1407  24.033  18.115   4.286  0.2011  0.0422  0.2720
58495W        W 1408  32.783   2.245  24.566 -0.1071  0.2937  0.4550
58496W        W 1409  32.694  23.661   9.052  0.1710 -0.3339  0.1932
58497W        W 1410   5.348  12.186  28.466  0.5049  0.1164  0.0033
58498W        W 1411   3.069   7.160   5.328 -0.1638  0.0486  0.1492
58499W        W 1412  30.940   7.027  27.188 -0.1518  0.0519 -0.1397
58500W        W 1413   8.438   6.626   4.068  0.0944 -0.3482 -0.0262
58501W        W 1414  32.664   1.452   3.599 -0.0052 -0.0275 -0.1333
58502W        W 1415   0.112   0.402  12.037  0.0447 -0.0256  0.0155
58503W        W 1416   1.768   8.194  24.656 -0.0898  0.1818  0.1535
58504W        W 1417  32.521   4.958   1.429  0.0568  0.2983 -0.0183
58505W        W 1418   0.845  10.149   3.817 -0.0716 -0.2012  0.0795
58506W        W 1419  34.422  22.592  28.394  0.1670  0.3963  0.2847
58507W        W 1420   4.674   3.930   5.200  0.0811  0.0072 -0.0280
58508W        W 1421   7.316  16.391   8.618 -0.1002 -0.0399 -0.3139
58509W        W 1422  23.401  29.369   5.579  0.1669  0.0797  0.0966
58510W        W 1423  10.995   5.174  29.669  0.1920 -0.1480  0.0129
58511W        W 1424   7.347   4.328   8.387  0.0276 -0.0227  0.0160
58512W        W 1425  26.504   9.259  26.468  0.1781  0.3949 -0.0611
58513W        W 1426  33.160  12.585   2.256  0.1697  0.1859 -0.1473
58514W        W 1427  27.208  16.441   9.817 -0.2490 -0.3987  0.3146
58515W        W 1428  31.103  11.317   6.769  0.1339 -0.0498 -0.0809
58516W        W 1429  32.540   8.644  28.486  0.3397 -0.0512  0.0001
58517W        W 1430   0.695   4.083   5.965  0.1344 -0.0706 -0.2421
58518W        W 1431  25.420  10.683   3.938  0.0061 -0.1811  0.0288
58519W        W 1432   5.670  11.402  29.459  0.1657  0.1117 -0.1304
58520W        W 1433   4.694  16.974  27.520  0.0817  0.0082 -0.1900
58521W        W 1434  32.009  32.132   1.103  0.1559 -0.0556  0.1606
58522W        W 1435  33.653  12.069   9.778 -0.4022 -0.0550  0.1436
58523W        W 1436  33.839   1.399   3.940 -0.1538 -0.3098 -0.1347
58524W        W 1437   1.031   9.286   8.395 -0.0859  0.4023  0.2873
58525W        W 1438   8.093  12.372  10.636  0.1751 -0.2497 -0.0271
58526W        W 1439  13.916  21.760   2.542  0.0955  0.0795 -0.3761
58527W        W 1440   9.472   2.738  27.154 -0.2071  0.0456  0.0540
58528W        W 1441  32.253   6.149   7.747  0.0987  0.2583 -0.3323
58529W        W 1442  27.656  16.003   8.444  0.1195  0.0346 -0.2152
58530W        W 1443   1.530   7.984  28.756  0.2170 -0.1596  0.2296
58531W        W 1444  27.014   6.252  29.022 -0.1161  0.1195 -0.1645
58532W        W 1445   1.093  16.599  28.640  0.1596 -0.2173 -0.0357
58533W        W 1446   3.484  12.812   5.455  0.0940  0.0006  0.0808
58534W        W 1447  15.456   4.836   9.558 -0.0484  0.0159 -0.0349
58535W        W 1448   5.456   4.549  12.477  0.1663  0.2104 -0.0087
58536W        W 1449   5.476   3.922   3.512  0.1006  0.2367 -0.0206
58537W        W 1450   3.892  13.194   4.232  0.2199 -0.0083  0.0359
58538W        W 1451  31.195   8.958   9.671  0.2097 -0.2738  0.2905
58539W        W 1452  11.959  17.907   0.993  0.0392  0.1304 -0.0670
58540W        W 1453   6.090   4.832   9.713  0.0015  0.2607 -0.2222
58541W        W 1454   7.422   5.484  12.585 -0.3345  0.0195 -0.4292
58542W        W 1455  32.835  21.562  26.778  0.0402  0.0254 -0.2190
58543W        W 1456   7.137   1.349   5.329  0.1212 -0.2266 -0.0114
58544W        W 1457   1.753   1.963   2.929  0.0398  0.0818  0.0262
58545W        W 1458  34.121   2.383   6.932 -0.0709 -0.0944 -0.0867
58546W        W 1459  29.007   0.197  24.901 -0.1612 -0.0343  0.1753
58547W        W 1460   7.242   5.679   7.834 -0.1410  0.1310  0.0049
58548W        W 1461   2.332   4.141  26.640 -0.0352  0.0185 -0.3036
58549W        W 1462   0.492   8.713   6.989 -0.0191  0.0022  0.2065
58550W        W 1463   3.917   2.474  12.444  0.1515 -0.1000 -0.1935
58551W        W 1464  27.357   7.291   5.794  0.1152  0.0891 -0.1083
58552W        W 1465   3.068  15.637  29.233  0.3275  0.0017 -0.1122
58553W        W 1466   3.583  16.781   3.626  0.0167 -0.0769 -0.0138
58554W        W 1467  23.191  19.728   7.572  0.0642  0.0414  0.1669
58555W        W 1468  30.359   5.624   4.946 -0.2000 -0.0491  0.0332
58556W        W 1469   1.294  11.215   5.664  0.1202  0.1831  0.0176
58557W        W 1470  12.340   3.964   7.185  0.0406 -0.2306  0.0331
58558W        W 1471  33.520   8.735   2.784  0.0556 -0.0556  0.0752
58559W        W 1472   3.046   9.089   9.456  0.2385 -0.2094  0.1085
58560W        W 1473   3.557  11.546   1.298 -0.1289  0.0237  0.0149
58561W        W 1474  24.165  19.223   7.640 -0.1389  0.0369 -0.1425
58562W        W 1475   9.280  34.448   1.110 -0.1244  0.0169  0.1765
58563W        W 1476   6.257  17.709   1.276  0.1726 -0.1105 -0.3776
58564W        W 1477   6.995   5.228  10.029 -0.0270 -0.2508  0.0192
58565W        W 1478   4.854   6.266  10.193  0.2312  0.0270 -0.1351
58566W        W 1479   4.534  11.654  24.753  0.0493  0.1147 -0.2004
58567W        W 1480  27.386   2.008   9.430  0.1052 -0.1012  0.0498
58568W        W 1481  33.044   7.985   9.551 -0.5971 -0.0994  0.3293
58569W        W 1482   3.849   3.314   4.846  0.0618 -0.1033  0.1225
58570W        W 1483  33.965   5.169  22.973  0.1200  0.0355  0.0219
58571W        W 1484   4.808   3.441  21.187  0.3066  0.1626  0.1381
58572W        W 1485  11.511  14.373   6.831 -0.2387 -0.0259 -0.1685
58573W        W 1486   4.173  14.936   6.349  0.3500  0.0871 -0.1429
58574W        W 1487  28.883   6.467   1.772  0.0399  0.2007 -0.2606
58575W        W 1488  33.727   0.585   7.899  0.1679 -0.2894 -0.1154
58576W        W 1489   6.859  12.622   4.037  0.0054  0.1421 -0.2371
58577W        W 1490   2.048   9.649   4.813  0.0952  0.1538  0.2107
58578W        W 1491   9.474   7.228  11.523  0.3376  0.2550  0.2860
58579W        W 1492   7.983  14.284   5.528 -0.3357  0.2066  0.1369
58580W        W 1493  30.299   4.465   7.311  0.1069 -0.0674 -0.0118
58581W        W 1494  10.872  21.860   9.922  0.1018  0.0957 -0.2082
58582W        W 1495  34.418  15.490   5.610 -0.0349 -0.3930  0.2477
58583W        W 1496   0.949   1.375   4.092  0.0057  0.3976  0.0113
58584W        W 1497   3.697   0.611   5.781 -0.2037 -0.0116  0.2052
58585W        W 1498   3.634   2.615  12.057 -0.1270  0.0039  0.0731
58586W        W 1499   6.665   7.780   8.533  0.2477  0.0013  0.2035
58587W        W 1500   2.276   3.540   4.718  0.0004 -0.3070  0.0897
58588W        W 1501   2.622  20.313   4.040 -0.1206 -0.1316  0.2140
58589W        W 1502   2.493  14.344   9.738  0.0216 -0.2846 -0.1939
58590W        W 1503  10.032   0.326   2.564 -0.0482 -0.2846 -0.1669
58591W        W 1504   9.667  12.050   8.096  0.0995 -0.2915  0.1207
58592W        W 1505  33.421   5.819   9.151  0.1287  0.0368  0.1005
58593W        W 1506   0.737  11.887   5.172  0.0106  0.0501  0.1326
58594W        W 1507   1.192  26.903   5.980 -0.1284 -0.1368  0.1389
58595W        W 1508   5.747  25.269  25.757 -0.1254  0.1190 -0.1136
58596W        W 1509   8.784  11.291   1.684  0.0075 -0.0394 -0.3557
58597W        W 1510  32.078   4.058  20.584 -0.0636  0.1857  0.1225
58598W        W 1511   8.907  14.132   7.416 -0.0504 -0.0165  0.3715
58599W        W 1512   1.768   7.142  26.281 -0.1787 -0.1307 -0.0493
58600W        W 1513  29.691  32.152   9.584 -0.0264 -0.2701  0.1615
58601W        W 1514   0.374  19.172  28.773 -0.0298  0.1473 -0.2577
58602W        W 1515   5.248  12.225   9.607  0.0782  0.1049  0.0348
58603W        W 1516   9.384  12.343  10.224  0.1915 -0.1314  0.0719
58604W        W 1517  29.965  10.543   8.374 -0.1206  0.2243  0.0800
58605W        W 1518   0.985  16.021   9.308 -0.1314 -0.2367  0.1104
58606W        W 1519   3.484   6.748  12.251 -0.0769 -0.1352 -0.1109
58607W        W 1520  27.394  14.212   5.008 -0.3881  0.0971 -0.2073
58608W        W 1521   5.217   5.104   3.779  0.1556 -0.0153 -0.3666
58609W        W 1522   6.029  11.089   8.396  0.2302 -0.0008 -0.0218
58610W        W 1523   9.868   9.656   8.056 -0.0252  0.2028  0.0133
58611W        W 1524   5.210   4.993  12.541  0.0479  0.2024  0.0019
58612W        W 1525  15.383   3.635   7.483  0.1022 -0.2473  0.1449
58613W        W 1526   3.120   9.983  11.090 -0.3186 -0.1150  0.1275
58614W        W 1527  32.369  12.413   0.521 -0.0715 -0.0266  0.1415
58615W        W 1528  30.568   9.757   8.797  0.1124  0.5061 -0.1793
58616W        W 1529   3.326   6.336  11.940  0.2528 -0.3540 -0.1189
58617W        W 1530  11.996   3.803   7.571 -0.1653 -0.0394 -0.0774
58618W        W 1531   9.273  10.343   8.922 -0.0233 -0.1658  0.1353
58619W        W 1532   3.718   4.773   7.713  0.3793 -0.1554  0.0769
58620W        W 1533   2.512  15.834   7.555 -0.4963 -0.1249  0.1423
58621W        W 1534   7.570   9.855   6.359  0.1261  0.2128 -0.1648
58622W        W 1535  11.477   5.274   3.499 -0.1223 -0.2660 -0.0378
58623W        W 1536   6.925  14.419  29.480  0.2283 -0.1224 -0.4761
58624W        W 1537   1.964  12.736   7.195 -0.0964  0.1930 -0.1836
58625W        W 1538   3.176  17.630   7.680 -0.2320 -0.1958  0.4190
58626W        W 1539  33.828  10.764   4.885 -0.2263 -0.3774  0.2136
58627W        W 1540   9.168   3.178   4.797 -0.0507  0.0292 -0.4941
58628W        W 1541  14.815   4.837   7.181  0.1041 -0.4838 -0.1373
58629W        W 1542  26.018   9.325   5.087  0.2662 -0.0385  0.0024
58630W        W 1543   4.677  13.102  29.337  0.0217  0.0357  0.0914
58631W        W 1544   2.423   2.332   7.044 -0.1217 -0.0243 -0.2311
58632W        W 1545  24.291  10.194   1.775 -0.3554 -0.1010  0.0797
58633W        W 1546   7.853   4.836   9.621 -0.0015  0.2696  0.2864
58634W        W 1547  27.366  11.384   5.072  0.0491 -0.3015 -0.0764
58635W        W 1548   1.358   7.776   5.689 -0.1244  0.1786 -0.1230
58636W        W 1549  33.644  14.691   7.037 -0.0020  0.2739  0.3308
58637W        W 1550  10.798   7.776   9.096  0.0724 -0.0281 -0.2024
58638W        W 1551  31.053   2.848   0.506 -0.1139  0.3848 -0.1214
58639W        W 1552   0.729   2.835  11.158  0.2042 -0.0552 -0.0028
58640W        W 1553   6.128   8.626   1.543  0.2310 -0.1581  0.1544
58641W        W 1554  12.603   6.608   9.199 -0.2185 -0.1046 -0.1866
58642W        W 1555   6.044   0.188   6.427 -0.0669 -0.0849 -0.2742
58643W        W 1556  28.658  18.013   5.329  0.1055  0.0564 -0.2115
58644W        W 1557  21.684   0.422   4.369 -0.1471 -0.2932 -0.2318
58645W        W 1558   3.941   5.294  10.331  0.0219 -0.1267 -0.3679
58646W        W 1559   2.186  26.324   9.671  0.0307 -0.0115  0.0383
58647W        W 1560  28.068  14.229   8.874  0.1941 -0.4287  0.2912
58648W        W 1561   4.255   9.186  28.517  0.1460  0.1960  0.1461
58649W        W 1562  31.724   6.476   7.012 -0.1372  0.0022 -0.2609
58650W        W 1563  34.352  31.679   6.378  0.0142 -0.1630  0.1358
58651W        W 1564   0.903   8.708   9.290  0.1803  0.1524 -0.2338
58652W        W 1565   4.041  14.969  10.530 -0.2718 -0.2840  0.0021
58653W        W 1566  12.951  33.946  29.288 -0.0115  0.0204  0.0095
58654W        W 1567  27.861   6.273   4.528 -0.1466  0.1229  0.1608
58655W        W 1568   1.787  24.915  29.743 -0.0405 -0.0876 -0.3166
58656W        W 1569  15.511  15.448   6.515  0.2080  0.2301  0.1180
58657W        W 1570  13.526   1.185  27.404  0.2901 -0.0958  0.1258
58658W        W 1571   2.238   9.655   5.736  0.1968  0.1873 -0.0601
58659W        W 1572   6.116   0.788   9.363 -0.1197 -0.0108  0.1401
58660W        W 1573   3.486   5.384   1.278  0.0221  0.0469  0.0869
58661W        W 1574  11.648   9.034   3.975 -0.2413  0.2102 -0.0619
58662W        W 1575   5.708   6.649  11.386  0.2401 -0.0518 -0.0204
58663W        W 1576  10.823   9.150   4.081  0.0778 -0.0030  0.0164
58664W        W 1577  28.535  16.884   2.925 -0.0727  0.0313  0.1892
58665W        W 1578   6.529   3.462   9.821 -0.3543  0.3627 -0.1097
58666W        W 1579   0.115  11.076   5.105  0.0508 -0.1448  0.0717
58667W        W 1580  28.446  12.613   3.033  0.0883 -0.1936 -0.3088
58668W        W 1581  11.616  12.992   9.418 -0.2933 -0.1362 -0.3293
58669W        W 1582  22.328  12.375   0.717 -0.3367 -0.0613  0.4613
58670W        W 1583  34.213   6.158   7.091  0.1277 -0.0528 -0.2570
58671W        W 1584  34.426   8.116   5.859 -0.0203  0.0066  0.0822
58672W        W 1585  15.875  15.036   2.124 -0.0078 -0.2114 -0.0253
58673W        W 1586  33.190  12.382   4.470  0.0897 -0.3167 -0.0504
58674W        W 1587   4.345  13.088  10.295 -0.1438  0.0566  0.2291
58675W        W 1588   0.235  12.084   0.565  0.1502  0.1692  0.3145
58676W        W 1589  17.929   7.021   2.139 -0.0128 -0.2909 -0.2801
58677W        W 1590   6.157  12.800   5.687  0.2173 -0.0023  0.0970
58678W        W 1591   8.513   4.357  12.562 -0.0522  0.1704  0.1985
58679W        W 1592   3.525  10.415  10.431  0.4911  0.0163 -0.0949
58680W        W 1593   9.010   7.032  11.409 -0.2294 -0.2273 -0.2072
58681W        W 1594  33.941  15.748   5.869  0.1099 -0.1129 -0.1164
58682W        W 1595  19.623  15.170   0.424 -0.3537  0.0272 -0.3152
58683W        W 1596  31.998   6.499  10.053  0.0314  0.0476  0.1233
58684W        W 1597  32.161   1.092  21.780  0.1989 -0.1524 -0.3408
58685W        W 1598   3.665  21.485   7.596 -0.0970 -0.2908 -0.1513
58686W        W 1599   1.619  20.572   2.997  0.0210  0.2482 -0.0107
58687W        W 1600  28.191  10.517  10.137 -0.2044  0.0374  0.0647
58688W        W 1601  33.584  13.379   3.880  0.1298  0.1794  0.3667
58689W        W 1602  22.335  15.070  27.357  0.1237 -0.1503 -0.1631
58690W        W 1603  33.036  10.195  11.167  0.0222 -0.1313  0.0929
58691W        W 1604  24.524  12.693   9.066 -0.1344 -0.1424  0.0028
58692W        W 1605   2.719   7.312   4.717 -0.3246  0.2649  0.1031
58693W        W 1606   4.493   3.336  10.418 -0.0377 -0.1163 -0.1632
58694W        W 1607  14.929  10.413   3.422  0.0404  0.1068  0.0977
58695W        W 1608  32.630  12.250  27.867 -0.1495  0.2187  0.1962
58696W        W 1609  12.994   0.974  11.478 -0.0810 -0.3660  0.0142
58697W        W 1610  32.079   2.849   5.383  0.1840  0.1078  0.2594
58698W        W 1611  29.192   4.170   9.649  0.0726 -0.0511 -0.0977
58699W        W 1612   3.321   1.911  11.461 -0.0367  0.0180 -0.1501
58700W        W 1613   5.760  24.859   9.296  0.3797  0.2506  0.3042
58701W        W 1614   0.549   6.452  12.205 -0.1042 -0.0458 -0.0713
58702W        W 1615  30.109  18.177   8.916  0.0994 -0.2296  0.1141
58703W        W 1616   0.694   5.244  10.984 -0.2004  0.0923  0.0923
58704W        W 1617   2.000  12.273   8.685 -0.4183  0.1840  0.1632
58705W        W 1618   8.708   2.651  12.222  0.4025  0.1511 -0.0613
58706W        W 1619  34.334  23.742  10.000 -0.3201  0.3054 -0.0142
58707W        W 1620   3.540   5.834   7.797  0.2363 -0.1816  0.1630
58708W        W 1621  15.851  34.433   9.399 -0.0903  0.0385 -0.1467
58709W        W 1622   6.744   8.045  12.672 -0.0828  0.0153  0.2147
58710W        W 1623   2.174  12.144   5.569  0.1053 -0.0344  0.1228
58711W        W 1624  12.288  33.589   5.726  0.0968  0.0699 -0.2471
58712W        W 1625   1.518   6.937  12.392  0.0757 -0.2320 -0.2210
58713W        W 1626  30.743  10.344   1.082 -0.0049  0.2523 -0.0801
58714W        W 1627   4.613  30.579   6.774 -0.0976 -0.1785  0.0394
58715W        W 1628  14.581  22.545   7.189  0.4234  0.3284  0.1135
58716W        W 1629   6.937   4.394   1.301  0.0188  0.3621 -0.4992
58717W        W 1630   0.328  11.132   0.483  0.1287  0.2079  0.1124
58718W        W 1631   5.870  34.176   9.656  0.3420  0.0416 -0.2036
58719W        W 1632  27.935  13.876   7.799  0.0069 -0.0614 -0.0094
58720W        W 1633  33.600   2.385   9.549  0.0558  0.0483  0.0248
58721W        W 1634   1.786  10.874   6.624 -0.2439 -0.1937  0.2823
58722W        W 1635  29.106  20.272   7.052  0.0202 -0.0486  0.1885
58723W        W 1636  30.219  33.752   8.442  0.4042 -0.0505  0.0219
58724W        W 1637  34.211   1.268  26.489  0.0705  0.2935  0.0194
58725W        W 1638   5.284  14.019   2.519 -0.0280 -0.1739 -0.2122
58726W        W 1639  30.653  16.391   7.204 -0.1701  0.5000 -0.0461
58727W        W 1640   5.006   0.798   9.585  0.1072  0.2225 -0.2080
58728W        W 1641   2.752   5.588   8.480  0.2128 -0.0333  0.0559
58729W        W 1642   5.936   1.578   8.185 -0.0501  0.3445  0.0425
58730W        W 1643  32.783  11.233   8.473 -0.0619 -0.1868  0.0601
58731W        W 1644   7.736   1.533   6.273 -0.1429 -0.1674  0.2491
58732W        W 1645   5.961  20.862   4.505  0.2060  0.0690  0.0819
58733W        W 1646   6.423   6.442  13.198 -0.3012  0.1010 -0.0157
58734W        W 1647  31.141   8.053   7.938  0.0694 -0.1995 -0.1132
58735W        W 1648   5.269   2.061  11.850  0.0546 -0.0705 -0.3066
58736W        W 1649   0.365   1.887   5.442 -0.0751 -0.1595  0.0088
58737W        W 1650  32.877  16.051   7.816  0.1281 -0.1853  0.0329
58738W        W 1651  32.222  18.918   7.105 -0.0164 -0.0052 -0.0671
58739W        W 1652  30.428   7.624   0.004  0.2546 -0.0735 -0.1606
58740W        W 1653   6.521   6.495   2.452  0.0531 -0.2207 -0.5176
58741W        W 1654  17.081   6.971   4.825  0.0378 -0.0116  0.1331
58742W        W 1655   3.604   7.302   6.684 -0.0598  0.0977 -0.2408
58743W        W 1656   3.517   8.577   6.555  0.0780  0.3151  0.0683
58744W        W 1657   3.964   8.293  10.177  0.0149 -0.3368 -0.4036
58745W        W 1658  27.029  13.781   6.797 -0.0693  0.1739 -0.3966
58746W        W 1659   6.657   2.369  11.461  0.1184 -0.1623  0.1517
58747W        W 1660   4.142  11.930   2.499  0.0466  0.1688 -0.0088
58748W        W 1661  33.016  12.154  21.147  0.3578  0.0799 -0.0680
58749W        W 1662   1.775   6.986   4.676  0.2544  0.0525 -0.2013
58750W        W 1663  28.526  18.678   7.044  0.0557 -0.2504  0.0522
58751W        W 1664   3.742   5.972  12.331 -0.0230 -0.0471  0.2242
58752W        W 1665  23.475  18.513   4.755  0.0259 -0.1816  0.1155
58753W        W 1666  29.902  10.250   9.231  0.0540 -0.5776  0.0322
58754W        W 1667  10.898  18.996   3.843 -0.1910 -0.0534  0.2911
58755W        W 1668   6.583   4.397  10.219  0.1029  0.0225 -0.2744
58756W        W 1669  31.620  18.329   8.782 -0.4103  0.1505  0.0836
58757W        W 1670   2.166  15.815   1.777 -0.1165  0.0767 -0.2299
58758W        W 1671   5.879   3.711   7.251 -0.2645  0.4691 -0.0814
58759W        W 1672   3.205   8.308   8.733  0.1221  0.0437 -0.3471
58760W        W 1673  31.279  19.220   8.675 -0.0591  0.0028 -0.0557
58761W        W 1674   4.256  12.025   5.117  0.1899  0.1291  0.0597
58762W        W 1675   8.022   2.920  11.255 -0.1901 -0.0465  0.0654
58763W        W 1676  27.758   8.423   8.635 -0.4240 -0.1907  0.0930
58764W        W 1677   0.937   0.024   7.073  0.0020 -0.3324  0.0493
58765W        W 1678  13.326   8.070   8.897 -0.2743  0.1449 -0.1613
58766W        W 1679   7.966   4.485  10.631 -0.1992  0.2342 -0.2368
58767W        W 1680  30.007  30.455   4.319 -0.0792  0.3273  0.0243
58768W        W 1681  10.664  11.730  29.392 -0.1233  0.0245 -0.0933
58769W        W 1682   6.026   3.068   6.929  0.1047 -0.1329 -0.0715
58770W        W 1683   5.289  19.119   5.507  0.0238 -0.2152  0.1253
58771W        W 1684   1.589  10.273   9.904 -0.4119  0.2108  0.3260
58772W        W 1685   1.997  10.853   8.431 -0.0647  0.0474 -0.1537
58773W        W 1686   2.623  17.048   8.852 -0.3446 -0.1241 -0.1864
58774W        W 1687  10.284   2.572  26.862  0.1765 -0.2871 -0.0204
58775W        W 1688  29.586   7.880   6.547 -0.3883 -0.4486  0.0487
58776W        W 1689  29.487  11.632   6.725 -0.0322  0.2028  0.1209
58777W        W 1690  31.242   7.954   9.434  0.2057  0.1106 -0.0440
58778W        W 1691  33.277  34.384   5.009 -0.1151 -0.1855  0.1872
58779W        W 1692  34.384   5.912   3.360 -0.0643  0.2633  0.3337
58780W        W 1693   8.176   6.559  12.677  0.0820 -0.0508 -0.1621
58781W        W 1694  13.622  15.845   5.691 -0.2243  0.3726  0.0919
58782W        W 1695   1.616   7.181  10.576 -0.1812  0.0321  0.1094
58783W        W 1696   8.921  19.131   9.179 -0.0205 -0.3134 -0.0596
58784W        W 1697   1.044   9.813   8.763 -0.0014  0.5026  0.0066
58785W        W 1698   3.546  11.367   3.320 -0.1924 -0.1110 -0.1868
58786W        W 1699  29.176  11.457   7.145  0.0893 -0.2169 -0.3674
58787W        W 1700  16.705  13.674   1.630  0.0347 -0.1615 -0.4084
58788W        W 1701   2.935   5.090  12.209  0.1832  0.1169  0.2361
58789W        W 1702   0.967  10.682   8.840 -0.0039  0.0123 -0.0452
58790W        W 1703  30.895   0.043   4.754  0.2938 -0.2816  0.1568
58791W        W 1704  33.132   4.962   2.613 -0.4221 -0.0717  0.1570
58792W        W 1705   1.388  12.512  26.601 -0.0710 -0.1851 -0.0918
58793W        W 1706  20.908  13.635   7.906  0.0841 -0.1367  0.1838
58794W        W 1707  29.245  32.689   8.766  0.2303 -0.1377  0.0045
58795W        W 1708   5.089  13.060   9.830 -0.2316 -0.0659  0.3343
58796W        W 1709  26.293   8.761   0.817 -0.0395  0.1337  0.2176
58797W        W 1710   0.417   6.315  24.016  0.4081 -0.0788 -0.1524
58798W        W 1711   2.329  15.954   7.094 -0.0716 -0.0381 -0.0688
58799W        W 1712  32.811  18.935   1.791  0.0068 -0.0037 -0.0894
58800W        W 1713  31.539   6.243   5.656 -0.0701 -0.0868 -0.0074
58801W        W 1714   7.947   5.653   7.726 -0.1727  0.5915  0.1112
58802W        W 1715  33.357  19.143   4.011 -0.1303  0.0607  0.2303
58803W        W 1716  10.675  10.685   9.111  0.2484 -0.1974 -0.1377
58804W        W 1717   4.877  11.537   9.575 -0.0389  0.4057 -0.0575
58805W        W 1718   6.581   8.136  11.811 -0.0682  0.2876 -0.2230
58806W        W 1719  22.770   5.599   9.324  0.0579  0.4192 -0.0841
58807W        W 1720  31.479   4.199   6.418  0.0185  0.0503 -0.1134
58808W        W 1721   2.181  17.461   5.445  0.0292  0.0035 -0.1401
58809W        W 1722   2.226   0.229  10.898 -0.1546  0.2786  0.0506
58810W        W 1723   8.116   6.860   2.511  0.1624 -0.1401 -0.0225
58811W        W 1724  30.446   5.669   9.921 -0.1173 -0.0332 -0.1647
58812W        W 1725  28.505  20.867   4.567  0.3944 -0.2731  0.2121
58813W        W 1726  33.177  34.074   7.039  0.2581  0.0784  0.0593
58814W        W 1727   6.555  33.455   9.891  0.2195 -0.2169  0.1711
58815W        W 1728  32.935  10.728   8.838 -0.4260  0.0107  0.1733
58816W        W 1729   5.315  29.451   7.233  0.2220 -0.1368 -0.1616
58817W        W 1730   5.443   4.420  11.478 -0.0832 -0.3331  0.0746
58818W        W 1731  12.274   5.218   4.654  0.0083 -0.4041  0.2132
58819W        W 1732  34.282  16.695   6.789  0.0404  0.1517 -0.0221
58820W        W 1733   5.240  33.112   9.750 -0.2749  0.1495  0.2853
58821W        W 1734  17.785  11.286   4.247  0.3282 -0.0135  0.1408
58822W        W 1735   0.509   9.558   9.175  0.1059  0.0320 -0.2019
58823W        W 1736  11.146  17.534   2.413  0.0829 -0.2894  0.1557
58824W        W 1737  32.724   0.711   5.692 -0.1718 -0.2045  0.0052
58825W        W 1738  12.344   1.926  12.299 -0.0572 -0.0928  0.4858
58826W        W 1739  22.563   5.594   4.791  0.0729 -0.0104  0.1373
58827W        W 1740   0.021   0.475  10.175 -0.1971  0.1044 -0.0491
58828W        W 1741   6.444  12.227  27.329 -0.1201 -0.0166 -0.1825
58829W        W 1742   2.877   6.122   4.394 -0.0831  0.1777  0.1809
58830W        W 1743  27.565  30.499   6.950 -0.1089 -0.1108 -0.1186
58831W        W 1744   3.763   9.537  28.300  0.0267 -0.2048 -0.1002
58832W        W 1745  26.168  24.248   8.366  0.1769 -0.0540  0.3133
58833W        W 1746   2.572  14.577   8.177  0.0691 -0.1401  0.0317
58834W        W 1747  32.161   8.217   4.651  0.4195 -0.2163 -0.0776
58835W        W 1748   3.053  11.478   3.410 -0.1097  0.0805 -0.1215
58836W        W 1749   8.578  15.573   7.935 -0.0571 -0.1837 -0.0468
58837W        W 1750   7.287  10.974   3.367 -0.1044 -0.2777 -0.0699
58838W        W 1751   4.515  23.118   5.378 -0.0179 -0.2822 -0.1127
58839W        W 1752  33.480  14.041   8.840  0.2338  0.2572  0.0969
58840W        W 1753   0.565  14.448   3.274 -0.1112 -0.1846  0.3977
58841W        W 1754  31.657  33.522   9.854  0.2538 -0.0400 -0.4806
58842W        W 1755   6.397   8.052   4.997  0.1154 -0.1935 -0.0895
58843W        W 1756   5.111  23.802   7.493 -0.0887  0.0029  0.2261
58844W        W 1757   9.599   4.598   7.812  0.2660 -0.0607 -0.0714
58845W        W 1758  30.645   0.620  11.006  0.2065  0.0733 -0.1182
58846W        W 1759  20.375  13.493  28.493 -0.0807 -0.1843  0.0898
58847W        W 1760  31.859  21.927  28.057 -0.2772  0.0869  0.1460
58848W        W 1761   5.626  14.784   2.792  0.0144 -0.1458  0.2111
58849W        W 1762  26.411   9.820   0.470 -0.0167 -0.1368 -0.0359
58850W        W 1763   5.875  14.344   4.532 -0.0824 -0.1139  0.0580
58851W        W 1764  32.845   3.166  21.775  0.0167 -0.3603 -0.1300
58852W        W 1765  29.301  14.965  25.699 -0.1502  0.1624  0.1031
58853W        W 1766   3.886   6.643  24.643 -0.0976  0.2962 -0.1537
58854W        W 1767   7.456   9.388  28.962  0.1561 -0.0538  0.2434
58855W        W 1768   2.550  10.384   1.070  0.2868 -0.4320 -0.0728
58856W        W 1769   9.829  19.616   2.781  0.1653  0.2636  0.0968
58857W        W 1770  27.790  11.714   5.260  0.2222  0.0514 -0.2189
58858W        W 1771   0.961  11.468   5.418  0.0363 -0.0721 -0.0225
58859W        W 1772  25.212   6.202   0.767 -0.0822 -0.1614 -0.3648
58860W        W 1773  29.444  17.903  14.199  0.1807  0.0395 -0.2900
58861W        W 1774  30.488  14.587  28.765 -0.4114  0.3419 -0.0853
58862W        W 1775   2.038  19.171  24.249  0.1089  0.4706  0.0334
58863W        W 1776  30.342   9.591  23.515 -0.0663 -0.5603 -0.2709
58864W        W 1777  28.944  11.972   3.875 -0.3019 -0.3253  0.1847
58865W        W 1778   3.651  14.777   6.200 -0.0578 -0.1504 -0.1951
58866W        W 1779   6.436  23.536  26.245 -0.0080 -0.0097 -0.2219
58867W        W 1780  28.014   8.710  28.388  0.1321 -0.2586  0.1165
58868W        W 1781  31.774   9.184   8.184 -0.0737 -0.3220  0.2374
58869W        W 1782   4.371   7.250  10.042 -0.0567  0.0542 -0.5024
58870W        W 1783   4.851   3.149  11.804  0.1233  0.2047  0.4462
58871W        W 1784   9.339  14.720   2.665 -0.0861  0.0526 -0.1638
58872W        W 1785   5.589   5.888   7.027 -0.1820  0.0286  0.2437
58873W        W 1786  12.279  16.262  27.277 -0.2266  0.0161  0.1198
58874W        W 1787   0.942  12.508  19.842  0.1268 -0.1975 -0.1389
58875W        W 1788  32.275   6.324  29.362  0.1612  0.2178  0.1059
58876W        W 1789  28.807  23.258   4.742  0.1223  0.0216  0.1513
58877W        W 1790  29.371  19.648   7.018 -0.0671  0.2252 -0.0631
58878W        W 1791   5.211  22.966  29.610  0.3481  0.1759 -0.0619
58879W        W 1792   9.109  11.619   5.901 -0.0116  0.2155 -0.1861
58880W        W 1793   7.532   7.992  24.867  0.0489 -0.3208  0.1512
58881W        W 1794   1.324  20.921  20.535 -0.2082  0.1071 -0.0839
58882W        W 1795  34.211  28.441   8.860  0.0314  0.3261 -0.1153
58883W        W 1796  30.146  12.497   3.989 -0.1815  0.2894  0.1980
58884W        W 1797  10.849  20.301   2.191 -0.0397  0.1907  0.3072
58885W        W 1798   1.687  21.084   0.137 -0.0371 -0.3233 -0.1769
58886W        W 1799  32.759  15.389  24.025 -0.0196  0.1321 -0.0001
58887W        W 1800   3.553   7.179   5.647  0.0884 -0.0178 -0.1577
58888W        W 1801  13.505  12.846   0.040  0.1675 -0.1428  0.1410
58889W        W 1802   4.493  17.772  28.686  0.0778 -0.5492 -0.2726
58890W        W 1803   4.493  17.139   8.451  0.0817 -0.1522 -0.3062
58891W        W 1804  30.693   5.319  10.310  0.0433  0.0256 -0.3728
58892W        W 1805  34.232  14.485  23.290 -0.2453 -0.0697 -0.1057
58893W        W 1806  33.444  16.138   5.829  0.1772  0.2142 -0.0893
58894W        W 1807   0.763  17.722   3.772  0.0027  0.0942  0.2183
58895W        W 1808   7.890  11.039   7.818  0.0434 -0.0416  0.2838
58896W        W 1809   2.240  14.342  27.105 -0.3070 -0.0225  0.0442
58897W        W 1810  22.125  20.102  25.147 -0.3404  0.2113  0.1327
58898W        W 1811  32.989  15.697   7.087 -0.1211 -0.0698 -0.1191
58899W        W 1812  31.943  12.386  29.633  0.1084 -0.1875  0.0719
58900W        W 1813   1.669  17.428  24.805 -0.0654  0.1124 -0.1436
58901W        W 1814   7.458  14.058   3.003 -0.0687  0.2292  0.0251
58902W        W 1815   0.488   8.945   7.417  0.0371 -0.2795 -0.0496
58903W        W 1816   5.197  11.415  26.359 -0.1704 -0.0449 -0.3963
58904W        W 1817   2.280  13.815  20.887  0.0361  0.2146  0.2675
58905W        W 1818  25.090  20.062  29.728  0.1659 -0.1689  0.0715
58906W        W 1819  19.052  17.054  26.212  0.1887  0.2616  0.3729
58907W        W 1820   0.374  13.079   9.458 -0.0719 -0.2335  0.0463
58908W        W 1821  22.624  11.659   1.697  0.1969  0.1379  0.3655
58909W        W 1822  33.511  23.207   8.639  0.1113  0.3142  0.0950
58910W        W 1823  11.086   0.034   1.380 -0.0675  0.1716 -0.2169
58911W        W 1824   9.019  14.342  28.391 -0.1644 -0.2893 -0.0200
58912W        W 1825   6.328   6.755   8.301 -0.0412 -0.0205 -0.1116
58913W        W 1826   4.345  17.513  21.047 -0.2280  0.0221  0.0336
58914W        W 1827   4.487  21.602  29.279  0.0079  0.0160 -0.1945
58915W        W 1828   2.482  10.202  20.980 -0.2411  0.0013 -0.0730
58916W        W 1829  31.857   6.957  24.411 -0.0317 -0.3039  0.2402
58917W        W 1830   1.607   5.944   9.117 -0.3230 -0.2146 -0.2152
58918W        W 1831  27.049  16.229   1.676 -0.0938 -0.0186  0.1553
58919W        W 1832  30.331   2.393  28.722 -0.0752  0.2544  0.0910
58920W        W 1833   0.468   8.009  24.752 -0.1282  0.1451  0.0414
58921W        W 1834   3.440  11.676   4.139  0.3681  0.1884  0.0322
58922W        W 1835  33.851  27.064  29.300 -0.1631 -0.2693 -0.2809
58923W        W 1836   5.446   3.542   0.699 -0.3492 -0.3401 -0.1222
58924W        W 1837   3.342  15.899   8.166 -0.0599  0.0142 -0.0440
58925W        W 1838  13.286  13.437   0.701 -0.0825 -0.2656  0.0133
58926W        W 1839  10.675  30.816  29.068 -0.3401 -0.1946  0.1048
58927W        W 1840  33.118  32.894  25.103  0.1000 -0.0724 -0.1224
58928W        W 1841   2.860  17.008  23.571 -0.3314  0.3993 -0.2143
58929W        W 1842   8.172  25.929   6.492  0.1605  0.1606  0.3412
58930W        W 1843   7.967  11.108  19.535 -0.2112  0.0298  0.1222
58931W        W 1844  21.997  20.174   1.786 -0.1320 -0.1721  0.1767
58932W        W 1845   5.060  12.216  26.040 -0.0720 -0.2399 -0.3016
58933W        W 1846  32.365  21.702  25.914 -0.3003 -0.1146 -0.0594
58934W        W 1847   0.651  21.882  28.474 -0.0161 -0.3331 -0.1183
58935W        W 1848  30.588   3.666  25.720  0.0085 -0.1257 -0.2312
58936W        W 1849   4.854  16.114   7.097 -0.3179  0.0248 -0.3704
58937W        W 1850   2.487   7.920   0.074 -0.0296  0.1590 -0.0071
58938W        W 1851   7.347  13.061  27.735  0.0997 -0.1392  0.0836
58939W        W 1852  18.915  15.801  14.912  0.1087  0.1221  0.0058
58940W        W 1853  32.608  22.771  26.297 -0.1619  0.1529 -0.0424
58941W        W 1854  29.598  13.722   8.732 -0.1062 -0.3113  0.2150
58942W        W 1855   5.308  11.455  10.487  0.0071  0.0158  0.3440
58943W        W 1856   9.538   6.510   0.706  0.0067 -0.0217  0.0251
58944W        W 1857   0.040  16.608  29.700 -0.2115 -0.2216 -0.1676
58945W        W 1858   1.771  16.151  28.159 -0.3009 -0.1313 -0.1328
58946W        W 1859   2.906   0.007   0.870 -0.1460 -0.0953 -0.0581
58947W        W 1860  25.099  17.659   0.351 -0.1587 -0.1024  0.0789
58948W        W 1861   8.284  23.509  26.700  0.4948 -0.1361 -0.0055
58949W        W 1862  33.558   5.223  10.069 -0.1820 -0.1892  0.2396
58950W        W 1863  10.796   5.460   7.894  0.0949 -0.2839 -0.0546
58951W        W 1864  32.548  17.478   0.094 -0.4116 -0.1887 -0.1020
58952W        W 1865  29.501  18.471   1.595  0.0128 -0.3278 -0.0012
58953W        W 1866  28.263   6.803   7.661  0.0647  0.0363 -0.1913
58954W        W 1867  29.970  19.188   3.766  0.0118 -0.1029 -0.0446
58955W        W 1868  30.073  18.863   4.252  0.1430 -0.0871 -0.1488
58956W        W 1869   3.316  12.589   9.289  0.2418 -0.1767  0.2674
58957W        W 1870  34.463  19.923   6.756  0.0540 -0.0526  0.4628
58958W        W 1871  31.590  15.742  25.185 -0.1080 -0.4010 -0.0572
58959W        W 1872   2.589  10.789   3.115 -0.2443 -0.1273  0.0653
58960W        W 1873   6.639  21.236  25.662 -0.2233 -0.0873 -0.1332
58961W        W 1874  31.549   9.299  22.717 -0.0559 -0.2865 -0.0710
58962W        W 1875  34.324  23.245   7.042 -0.0151  0.0426  0.2649
58963W        W 1876   3.631  20.645   5.889 -0.4404  0.0156 -0.1907
58964W        W 1877  32.876  16.437  28.076  0.0533  0.1338  0.0243
58965W        W 1878   6.383   2.324   3.151 -0.0993  0.1355  0.0710
58966W        W 1879  32.021   7.911  27.205  0.0289  0.1572  0.1194
58967W        W 1880   1.537   7.138   7.836  0.1899 -0.0962  0.0490
58968W        W 1881  33.741   9.169  22.385 -0.1435 -0.0065 -0.0783
58969W        W 1882   0.439  10.733   4.380  0.0977 -0.0270 -0.1259
58970W        W 1883  27.943  13.284  28.033  0.1953 -0.2558 -0.0099
58971W        W 1884   9.633  12.933  26.142  0.0815 -0.3208 -0.1578
58972W        W 1885  10.235  22.737  18.420  0.0972 -0.0950 -0.1648
58973W        W 1886   8.477  14.033  25.670  0.1292  0.0125 -0.0110
58974W        W 1887  16.773   7.969   1.234 -0.3988 -0.2202 -0.0188
58975W        W 1888   7.422  23.520   3.893  0.0290  0.1891 -0.1481
58976W        W 1889   1.014  30.379   3.010  0.2775  0.3973  0.0625
58977W        W 1890   1.690   4.695   7.016 -0.0564 -0.2019  0.1597
58978W        W 1891  31.604  14.468  26.882 -0.0056  0.1209  0.0891
58979W        W 1892   0.183   9.847  19.005 -0.1646 -0.0395 -0.0873
58980W        W 1893  29.070   8.306  10.645  0.0310  0.3095  0.0516
58981W        W 1894   1.251  10.640  26.058  0.1235  0.2909 -0.1658
58982W        W 1895   2.501  13.902   2.920 -0.4047 -0.2335 -0.1560
58983W        W 1896   4.084  13.051  28.997 -0.3095  0.0579 -0.2641
58984W        W 1897   5.317  16.566   1.894  0.2303 -0.4316 -0.0419
58985W        W 1898   1.937  12.220  27.882  0.1354  0.0354  0.0311
58986W        W 1899   4.186  11.199   5.862 -0.1690  0.3438 -0.0315
58987W        W 1900  31.711  25.536   3.198  0.2063 -0.2493 -0.1388
58988W        W 1901  25.930  11.194  22.567  0.0488 -0.2434  0.0282
58989W        W 1902   1.162   5.830  29.657  0.3317  0.0133 -0.1694
58990W        W 1903  29.160  10.191  29.146 -0.3071  0.2539  0.0540
58991W        W 1904  24.419  22.485   6.529  0.0450  0.0840 -0.0025
58992W        W 1905   8.083   6.646  10.486  0.1231  0.1201  0.0155
58993W        W 1906  34.149  16.947   3.035 -0.2573  0.2591  0.3093
58994W        W 1907  33.589   3.724  18.389 -0.0847 -0.0311  0.0078
58995W        W 1908   6.765  19.251   3.796  0.0437 -0.0788 -0.1637
58996W        W 1909   1.215  12.321  24.482 -0.1647 -0.0613 -0.3931
58997W        W 1910  28.900  16.124   0.170  0.1633 -0.2107 -0.1333
58998W        W 1911  33.024  18.121   2.400 -0.0418 -0.2887 -0.0107
58999W        W 1912   0.305  11.809   2.376 -0.0753  0.0380 -0.0662
59000W        W 1913  33.341  12.311   0.354 -0.1321 -0.1668 -0.0532
59001W        W 1914   9.679  12.855   3.038  0.0737  0.2342  0.1165
59002W        W 1915   3.521  21.106  25.907 -0.3489 -0.1333  0.0673
59003W        W 1916  23.799  13.157  27.850  0.0370  0.0901  0.2209
59004W        W 1917  30.244  17.712   1.621  0.1159 -0.0256 -0.0907
59005W        W 1918  30.145   6.046  26.948 -0.1455  0.1710  0.2941
59006W        W 1919  31.281  13.158  28.139 -0.0698  0.0716  0.1970
59007W        W 1920   0.533  14.729   6.122 -0.2136  0.0509  0.1659
59008W        W 1921   4.568   9.075   9.354 -0.0306 -0.1472 -0.1150
59009W        W 1922  34.326  16.478  29.034 -0.3870  0.1844 -0.0078
59010W        W 1923  34.372  13.783   1.096 -0.0436  0.2936 -0.2091
59011W        W 1924  33.205  14.930   2.591  0.1213  0.1956  0.1550
59012W        W 1925  27.077  12.317  27.798  0.1214  0.0420  0.4594
59013W        W 1926  21.427   6.337   0.089  0.1458 -0.1537 -0.0714
59014W        W 1927  12.115  11.086   1.844 -0.2120 -0.0085 -0.0061
59015W        W 1928   6.467  19.077   0.021 -0.0819 -0.2996  0.1199
59016W        W 1929  23.873  16.388  27.793 -0.0809 -0.0486 -0.1812
59017W        W 1930   5.068  19.306   2.930 -0.1484 -0.0082  0.4572
59018W        W 1931  28.792  17.465   7.493 -0.0463  0.2065  0.2845
59019W        W 1932  25.244  17.050   9.235  0.0224  0.0561  0.2229
59020W        W 1933  30.701  13.837  29.670  0.0761  0.0784 -0.2575
59021W        W 1934  15.282  22.714   9.802 -0.0552 -0.0882  0.0047
59022W        W 1935   0.556   0.425   4.220 -0.0532 -0.0522  0.0652
59023W        W 1936  29.442   7.536   3.089 -0.0712 -0.0718  0.1240
59024W        W 1937   0.407   6.129  11.201  0.1465  0.0592 -0.2587
59025W        W 1938   3.381   8.714   3.336  0.1052 -0.2003  0.1659
59026W        W 1939   0.135  14.379  27.735 -0.1647 -0.1294  0.0224
59027W        W 1940  31.205   4.037  22.559 -0.0506 -0.0778  0.2036
59028W        W 1941  32.662   7.992  22.760  0.3557 -0.0006  0.1226
59029W        W 1942  26.666  17.691   0.804 -0.0963  0.2638 -0.0172
59030W        W 1943  33.542   6.521   1.048 -0.2092 -0.0458  0.0362
59031W        W 1944  33.887  21.018  10.062 -0.1124 -0.1002  0.1262
59032W        W 1945   1.306   9.719   7.301  0.1086  0.2600  0.0680
59033W        W 1946  26.047   7.878   9.684  0.4946 -0.0095 -0.0115
59034W        W 1947  34.168  20.427  28.189  0.2763  0.4901  0.1771
59035W        W 1948   7.369  10.470  22.053  0.1172 -0.0901 -0.1227
59036W        W 1949   2.312  10.378   4.116  0.0517 -0.0802 -0.1386
59037W        W 1950   0.578  16.660   7.317  0.2315  0.1213  0.1967
59038W        W 1951  27.669  10.207   4.313  0.2456 -0.0015 -0.1446
59039W        W 1952  12.854   6.631  23.778 -0.1245  0.0797 -0.0677
59040W        W 1953   1.906  12.916  10.006 -0.1989 -0.2392  0.1480
59041W        W 1954   3.814  17.802  21.628  0.3180 -0.2733 -0.1442
59042W        W 1955  29.999  12.335  13.048 -0.3387  0.0277  0.2525
59043W        W 1956   5.426   6.412  13.176  0.0586  0.0142 -0.0517
59044W        W 1957  34.442  11.590  20.447  0.2805  0.1872 -0.0786
59045W        W 1958  29.362  19.383  27.317  0.2444 -0.0398  0.1177
59046W        W 1959   0.701   7.861  16.472  0.3096  0.0213  0.3089
59047W        W 1960   1.557   6.064   1.178 -0.2162  0.2081  0.0724
59048W        W 1961   6.138   0.592   6.031 -0.0275  0.0009 -0.2399
59049W        W 1962   1.761   8.050  25.202  0.1040  0.2614 -0.1690
59050W        W 1963  31.193   8.804   3.665 -0.2748 -0.1752  0.2583
59051W        W 1964   8.800  12.216   8.639  0.1909 -0.0561 -0.2564
59052W        W 1965  30.946  24.213  28.502  0.0772 -0.1625 -0.0424
59053W        W 1966   2.819  13.751  21.911  0.3238  0.1194 -0.1108
59054W        W 1967   4.560  16.793  21.963 -0.2810  0.1570  0.1258
59055W        W 1968  34.122  14.563  26.785  0.0187 -0.0968 -0.1068
59056W        W 1969  27.039  12.821   4.088  0.3138  0.1781  0.0105
59057W        W 1970   8.194  12.798  25.978  0.0323 -0.0487  0.3416
59058W        W 1971  21.123  11.010  24.742  0.4003  0.1878 -0.0549
59059W        W 1972  29.068  19.355   5.272 -0.2990  0.0972  0.1779
59060W        W 1973  32.661  17.394  28.895 -0.1331  0.1178 -0.0986
59061W        W 1974   1.975  19.740  23.861 -0.2750 -0.0634  0.0931
59062W        W 1975  32.138  22.484   3.555  0.2289 -0.1752 -0.1920
59063W        W 1976   7.088  22.006  19.780 -0.1145  0.0034 -0.0185
59064W        W 1977   2.549  23.811   9.447 -0.2433 -0.3245  0.0839
59065W        W 1978  28.010   7.460   9.042 -0.0273  0.2058  0.2087
59066W        W 1979   8.908  32.664   3.746 -0.0791 -0.0465 -0.0334
59067W        W 1980  33.996  11.805   4.414 -0.0691  0.0660 -0.3252
59068W        W 1981   4.159  22.741   5.392 -0.1745  0.2646  0.0677
59069W        W 1982  28.035  18.063   5.311 -0.2053  0.1484  0.0868
59070W        W 1983   7.123  14.337   3.965  0.0289  0.0408 -0.0408
59071W        W 1984  30.501  14.405  25.265 -0.0826  0.4248 -0.2616
59072W        W 1985   4.572  18.581   7.631 -0.1606  0.3225  0.0583
59073W        W 1986  28.239  14.872   5.120  0.1519 -0.2486 -0.1823
59074W        W 1987   6.326  13.275   5.423 -0.2330 -0.1281  0.1060
59075W        W 1988   7.182  14.060   1.192  0.1493 -0.1344 -0.0425
59076W        W 1989   3.831  22.721   4.508 -0.0765  0.1678 -0.0527
59077W        W 1990  31.909  13.367  24.915 -0.0249  0.1151  0.0570
59078W        W 1991   2.175   4.509   5.693 -0.0320 -0.0654 -0.1965
59079W        W 1992   3.230  22.703   0.592 -0.2193 -0.1126  0.2036
59080W        W 1993   3.704  34.200   0.031  0.1995  0.0108 -0.2710
59081W        W 1994  27.701  14.139  26.494 -0.3438 -0.1442  0.1135
59082W        W 1995  30.299   8.132  25.043  0.0388 -0.1877 -0.2194
59083W        W 1996   4.722  11.181  21.565 -0.0940  0.0494  0.0544
59084W        W 1997  28.863   5.616   7.554  0.1384 -0.2029  0.5745
59085W        W 1998  25.917  10.009   2.723  0.3185 -0.0088 -0.1048
59086W        W 1999   2.606  27.243  27.236  0.2144 -0.0322 -0.0928
59087W        W 2000   0.598  13.133  27.451 -0.0430 -0.2078 -0.0807
59088W        W 2001  33.266   8.302  25.062 -0.2045  0.1272 -0.0047
59089W        W 2002   3.933  14.823  20.926 -0.3308 -0.0545 -0.0174
59090W        W 2003   6.085  15.714  28.423  0.1107 -0.0331  0.0456
59091W        W 2004   1.712  19.705   0.987 -0.1165  0.0591 -0.1720
59092W        W 2005   2.732  18.808   8.028 -0.1086  0.0340  0.2250
59093W        W 2006   0.030  33.347   3.469  0.0822 -0.3042  0.0047
59094W        W 2007  33.315  26.077   4.687  0.0041  0.1510 -0.5444
59095W        W 2008   3.491  18.189   1.095  0.2455  0.2966  0.0616
59096W        W 2009  31.127   5.555  26.865  0.1867  0.3379 -0.2341
59097W        W 2010   2.181  13.875  27.441 -0.2517 -0.1956 -0.0820
59098W        W 2011  28.038  19.662   6.514  0.1224  0.1354  0.2485
59099W        W 2012  32.942  14.441  25.613 -0.2832  0.0133 -0.0701
59100W        W 2013   5.510  22.823   5.037  0.0241  0.3184 -0.0520
59101W        W 2014  30.373  22.204   0.926 -0.0446 -0.2725  0.0338
59102W        W 2015   4.078   4.638  12.505 -0.3205 -0.0864  0.1845
59103W        W 2016  31.446  17.677  26.923  0.1286  0.1102  0.1270
59104W        W 2017  33.324  19.661   1.260  0.1675 -0.1031 -0.1003
59105W        W 2018  14.223  11.656   0.021  0.1488 -0.0313 -0.0463
59106W        W 2019   4.601  10.456   0.518  0.0663  0.0379  0.0984
59107W        W 2020  10.757  16.359   2.100 -0.0520  0.1488 -0.1818
59108W        W 2021   6.379  17.971   3.773 -0.1171  0.1140 -0.0374
59109W        W 2022  30.867  15.561  23.504 -0.0661  0.0537 -0.0441
59110W        W 2023  26.800  23.678   9.484 -0.2714  0.1723  0.0340
59111W        W 2024   5.605  15.509  28.647  0.1565  0.0058 -0.1428
59112W        W 2025   0.963   6.576   6.655 -0.3164  0.0404  0.0718
59113W        W 2026   4.896   9.877  26.597 -0.2041  0.3975 -0.3769
59114W        W 2027   7.463  23.128  25.130  0.1187  0.2309 -0.0011
59115W        W 2028  28.304  20.804   6.391  0.3272 -0.2110 -0.1100
59116W        W 2029  32.647  18.775   4.378  0.0716  0.0764  0.0257
59117W        W 2030  34.326  21.173  26.889  0.0183  0.3528 -0.2899
59118W        W 2031  32.453  14.848   6.406 -0.1934 -0.0141 -0.0991
59119W        W 2032  34.193  18.348   3.350  0.1138 -0.0624 -0.0881
59120W        W 2033  32.565  12.926   1.182 -0.4341 -0.1845 -0.2350
59121W        W 2034  26.516  15.565   4.655  0.2047  0.0661  0.0826
59122W        W 2035   5.771  26.082   4.384 -0.1619 -0.0678  0.1149
59123W        W 2036  25.062   2.887   1.049 -0.1875  0.0914  0.1070
59124W        W 2037  13.305  20.881   0.421 -0.0833 -0.5202 -0.1033
59125W        W 2038   6.953  17.536  29.518  0.0585  0.0369  0.0717
59126W        W 2039   6.298   9.729  11.024  0.2145  0.1844 -0.1051
59127W        W 2040  34.002   6.912   5.222 -0.0214 -0.0540  0.1589
59128W        W 2041  30.277  12.605  29.116  0.0235  0.1213  0.1097
59129W        W 2042   4.507   9.683  29.011 -0.1080  0.2896  0.0678
59130W        W 2043   6.860  17.839   8.977 -0.1153  0.2191  0.0166
59131W        W 2044  33.134  14.559  28.606  0.0577 -0.2376 -0.0774
59132W        W 2045   0.971  11.521   6.989  0.2184  0.1992  0.0498
59133W        W 2046   7.235   9.135  22.808 -0.0623 -0.0905  0.0645
59134W        W 2047   4.744  16.930   5.885 -0.0390  0.0048  0.0584
59135W        W 2048   5.149  25.578   5.462 -0.1500 -0.2599  0.3608
59136W        W 2049  30.146  22.546   8.796 -0.0493  0.2188  0.0800
59137W        W 2050  29.010  15.793  18.799 -0.0074  0.0127 -0.0350
59138W        W 2051   3.702  16.531  20.351 -0.1165  0.2161  0.1872
59139W        W 2052   1.781  25.181   6.746  0.2776 -0.0474 -0.1587
59140W        W 2053  26.344  14.444   3.429 -0.0528  0.3328  0.3891
59141W        W 2054   5.966  13.599   0.802 -0.1723  0.1925 -0.0619
59142W        W 2055  32.026  15.971   7.456  0.3242  0.2564 -0.0424
59143W        W 2056   2.673  10.658  10.866 -0.0514 -0.2004  0.0138
59144W        W 2057   3.569  11.814  27.209  0.1222 -0.0108  0.0687
59145W        W 2058  23.115  10.819  29.134  0.0431  0.1075  0.2201
59146W        W 2059  30.634  12.272   4.207 -0.0962 -0.0437  0.0768
59147W        W 2060  33.896  11.459   0.493  0.0429 -0.0036 -0.1052
59148W        W 2061   5.198   6.971  23.817 -0.1186  0.1435 -0.0692
59149W        W 2062   2.555  14.894  26.540  0.2917  0.2942 -0.0346
59150W        W 2063  10.134  13.207   1.720  0.1143  0.0432  0.3904
59151W        W 2064   9.973  11.037   6.765 -0.3520 -0.1245 -0.1325
59152W        W 2065   1.456  16.943  26.900  0.0126  0.1321  0.1716
59153W        W 2066  25.245  19.082  23.507  0.3753 -0.0112  0.2324
59154W        W 2067  34.096  15.245   3.561 -0.3581  0.3168  0.0527
59155W        W 2068   3.675  15.959   9.846 -0.0814 -0.1743 -0.2545
59156W        W 2069  29.534  15.652   4.920  0.2419 -0.0576 -0.2972
59157W        W 2070  10.198   0.268  28.695 -0.1228 -0.5841 -0.0213
59158W        W 2071  31.385  22.854   0.062  0.1797 -0.3747 -0.0054
59159W        W 2072   2.803   4.597  27.847 -0.1234 -0.3641  0.0194
59160W        W 2073  27.401   5.806   6.946 -0.1721 -0.1046 -0.1426
59161W        W 2074  29.267  21.166   1.677 -0.1383 -0.1048 -0.1598
59162W        W 2075   2.535  27.001   7.154  0.0985 -0.0999 -0.0666
59163W        W 2076   2.291  13.822  20.389  0.0856  0.0979  0.0061
59164W        W 2077  32.414   2.279  22.703 -0.1355 -0.0024  0.1968
59165W        W 2078  32.520  24.746   6.228 -0.0873  0.0055 -0.0170
59166W        W 2079   1.901   8.881   9.677  0.0883 -0.1223  0.0233
59167W        W 2080  32.571  13.462   3.249  0.1762  0.1567 -0.1365
59168W        W 2081  12.612   5.846   2.954  0.4456 -0.2161 -0.5074
59169W        W 2082   0.996  19.816  24.875  0.1800  0.0057 -0.0012
59170W        W 2083   6.842   9.549  23.998 -0.0673 -0.2363 -0.0967
59171W        W 2084  11.832  21.268  26.728 -0.1279 -0.1695  0.1559
59172W        W 2085   3.534  20.417  23.818 -0.3401 -0.3183 -0.2165
59173W        W 2086  31.316  16.513   6.140 -0.0553 -0.1486  0.1841
59174W        W 2087   0.748   8.976  21.203 -0.1728  0.0097  0.1741
59175W        W 2088   1.417  13.516  26.408  0.0227  0.0092  0.0742
59176W        W 2089  27.600  21.716  26.887  0.1373  0.3365 -0.0554
59177W        W 2090   4.123  14.085   1.540 -0.1134 -0.2210 -0.1856
59178W        W 2091   3.701  18.861   1.892  0.0223 -0.2945 -0.1361
59179W        W 2092   1.852  13.408  10.160 -0.2725 -0.2057  0.2026
59180W        W 2093  24.380  10.016   0.141 -0.1521 -0.1560  0.1928
59181W        W 2094  22.499  10.249   3.984 -0.0562 -0.3323 -0.2677
59182W        W 2095  30.948  21.177  24.011  0.3109  0.1080 -0.2923
59183W        W 2096  25.302  22.705  15.705  0.3510 -0.0969 -0.0557
59184W        W 2097   0.203  22.026   1.319 -0.0656 -0.0631 -0.0075
59185W        W 2098  32.122   7.014   7.896 -0.0961 -0.1159  0.3206
59186W        W 2099   2.637   8.358   1.310 -0.0111  0.3061  0.0722
59187W        W 2100  26.112   6.784   9.532  0.0736 -0.4552  0.3597
59188W        W 2101   7.698   9.073   5.202  0.2078  0.0909 -0.0719
59189W        W 2102   4.455  18.472  25.424 -0.0950  0.1299 -0.0573
59190W        W 2103   7.528   4.265  10.410  0.2240 -0.1041 -0.0543
59191W        W 2104  24.068  13.079  24.014  0.0976 -0.0729 -0.1941
59192W        W 2105  29.801  13.445  26.935  0.1144  0.1181 -0.5334
59193W        W 2106  33.535  17.125  29.240  0.0078  0.0469  0.2170
59194W        W 2107  28.193  10.365  18.886  0.2540 -0.0416 -0.1486
59195W        W 2108   4.606   7.645   2.350  0.3028  0.2415  0.0421
59196W        W 2109   9.742  19.880  27.739  0.0186  0.0971  0.2131
59197W        W 2110   9.515  11.066  28.509 -0.0762 -0.1429 -0.0241
59198W        W 2111  32.674  32.439   3.243  0.4835 -0.1598 -0.1143
59199W        W 2112  32.761   7.528  20.760  0.0108  0.1205  0.0364
59200W        W 2113  12.319  13.987   7.540 -0.0335 -0.4112  0.0497
59201W        W 2114   3.573  13.488  18.892 -0.1812  0.2299 -0.2546
59202W        W 2115   9.097  24.032  28.116 -0.1631  0.1671 -0.3552
59203W        W 2116   0.479  19.849  25.166  0.2269 -0.1641  0.0890
59204W        W 2117   7.697  12.305   0.750 -0.1219  0.3538 -0.1256
59205W        W 2118  33.328  13.473  27.480 -0.0442 -0.1270 -0.2313
59206W        W 2119   0.532   4.175  26.808 -0.2591  0.0672 -0.1186
59207W        W 2120  33.831   6.775  26.109 -0.3121  0.1247  0.0617
59208W        W 2121  27.567   1.243  29.741 -0.2553  0.2058  0.0061
59209W        W 2122  33.700  13.945   2.782  0.1431  0.4631  0.3914
59210W        W 2123  28.648  12.444  24.730 -0.0258  0.0266 -0.1023
59211W        W 2124  29.305  15.770  25.494 -0.1608  0.2446  0.3535
59212W        W 2125   8.001  12.123   9.716  0.2359 -0.0416 -0.2385
59213W        W 2126   2.953  10.397   6.197 -0.1541 -0.1513  0.0249
59214W        W 2127  30.023  10.714   7.441 -0.1583 -0.0375  0.2378
59215W        W 2128   3.427  25.753   3.750 -0.2119  0.1304 -0.1714
59216W        W 2129   8.053  10.036  10.929 -0.1037  0.0470  0.1792
59217W        W 2130   8.398  19.990   2.986  0.1280  0.1812  0.2072
59218W        W 2131  16.110  15.444   1.264  0.0854  0.0721  0.1798
59219W        W 2132   7.322   7.119  20.865 -0.1380 -0.1502 -0.2093
59220W        W 2133   4.934   6.638   3.119 -0.2921  0.1590 -0.0158
59221W        W 2134   0.643  14.989   5.016 -0.0593 -0.2623 -0.0474
59222W        W 2135  28.147  18.532   3.792  0.0824 -0.1158 -0.0255
59223W        W 2136   4.431  15.233   2.324  0.1453 -0.2089  0.1406
59224W        W 2137   6.824  18.764   3.906 -0.1629 -0.0861 -0.1833
59225W        W 2138   2.165  21.668   2.364 -0.1119  0.1125  0.1327
59226W        W 2139  26.009  15.877   5.529 -0.0435 -0.1847 -0.3675
59227W        W 2140   5.304   9.622   2.455 -0.1425  0.3232 -0.1125
59228W        W 2141  27.390  15.605   5.621  0.1786 -0.1131 -0.1746
59229W        W 2142  26.756  11.577  20.581  0.2639 -0.0955  0.1917
59230W        W 2143  27.465  14.228   9.791 -0.3118  0.3642 -0.3775
59231W        W 2144  13.259  15.108   8.212  0.0676  0.3451 -0.1813
59232W        W 2145  28.705  11.777  16.312 -0.1865  0.2217  0.1538
59233W        W 2146   8.069  15.293  27.813 -0.2178 -0.0312  0.1506
59234W        W 2147  14.613  24.796   2.512  0.3129  0.0884  0.1483
59235W        W 2148  24.463  13.687  23.991 -0.0581  0.1268  0.0912
59236W        W 2149  33.160  20.864  29.640  0.1781  0.1519  0.1912
59237W        W 2150   0.478   5.031   2.912  0.2198 -0.2492  0.2155
59238W        W 2151  21.926   7.352  27.304  0.3242  0.0903  0.0543
59239W        W 2152   3.125  17.638   2.689 -0.0247 -0.0847 -0.1366
59240W        W 2153  33.902  13.733   5.039 -0.1261  0.0938 -0.0663
59241W        W 2154   1.733  11.671   6.521 -0.0234 -0.1489 -0.1257
59242W        W 2155   3.442  15.027  24.374  0.2387  0.1136  0.1209
59243W        W 2156   4.696  13.775  10.198  0.2766  0.4536 -0.0096
59244W        W 2157   4.435  14.838  19.772  0.0890 -0.2479  0.0079
59245W        W 2158   5.409  10.964   7.244  0.0722 -0.0191  0.0552
59246W        W 2159  30.402  24.585   1.302 -0.4799  0.0608 -0.0015
59247W        W 2160  28.095  10.150  29.686 -0.0725  0.1556  0.1448
59248W        W 2161  28.368   9.754  25.567  0.0893 -0.1273 -0.5103
59249W        W 2162  21.420   9.080  26.064  0.2734 -0.4105 -0.0590
59250W        W 2163   1.572   9.868   4.588 -0.0644  0.1347 -0.1700
59251W        W 2164   4.924  33.987   6.227  0.0445 -0.2418  0.2848
59252W        W 2165   1.929   8.182   7.636 -0.1446 -0.0466 -0.1219
59253W        W 2166  30.196  21.894  20.020  0.1775  0.0210  0.3546
59254W        W 2167  28.603  21.173   8.268  0.2039  0.1103 -0.1124
59255W        W 2168   1.367   3.757  28.612 -0.1290  0.0411  0.0502
59256W        W 2169   2.156   5.529   0.130 -0.0380 -0.0944  0.0832
59257W        W 2170   4.094   2.704  23.719  0.0595 -0.3437  0.2326
59258W        W 2171   5.084  13.956   8.336 -0.0809 -0.0089 -0.2653
59259W        W 2172   4.117  13.783   9.561  0.1536  0.0567  0.1830
59260W        W 2173  32.905  19.238   2.538  0.0021 -0.0436 -0.0239
59261W        W 2174   0.560   3.796   0.018 -0.1774 -0.2418  0.1550
59262W        W 2175  22.524  28.487   6.088 -0.1459 -0.1106 -0.2307
59263W        W 2176  26.551  22.277  28.980  0.1121  0.1607 -0.1149
59264W        W 2177  27.044   5.702   5.009 -0.3040  0.0185  0.2018
59265W        W 2178  27.283   0.490   6.515  0.0065 -0.0488  0.1882
59266W        W 2179   1.942  14.743   5.085  0.0890 -0.2509 -0.0093
59267W        W 2180  31.717   7.560  24.747 -0.1822 -0.2431  0.0746
59268W        W 2181  28.960   7.508   9.395 -0.2808  0.1625 -0.0069
59269W        W 2182  32.385  18.455  28.024  0.1934  0.0596 -0.0419
59270W        W 2183  33.463  24.136   6.912 -0.0714 -0.1328  0.1827
59271W        W 2184  31.834   1.368  23.496 -0.0262 -0.0499 -0.0546
59272W        W 2185  29.128  20.241  26.399 -0.2228 -0.2776 -0.0439
59273W        W 2186   0.086  14.454   5.238 -0.1881  0.1563 -0.0681
59274W        W 2187  30.439   3.205   9.550  0.1377 -0.2623  0.2821
59275W        W 2188   2.067   9.778   2.352 -0.0219 -0.0305  0.0237
59276W        W 2189  33.402  14.291   7.822  0.3849 -0.0315  0.0254
59277W        W 2190   7.283  21.488   6.229  0.2454  0.0909 -0.3992
59278W        W 2191   4.353   5.922   4.588  0.1647  0.1962  0.0777
59279W        W 2192   8.424  13.295   1.271 -0.2623 -0.2601  0.0540
59280W        W 2193   1.336  15.146  25.990 -0.0643 -0.0251 -0.0543
59281W        W 2194  34.291  15.962   6.235  0.0673 -0.1956  0.2046
59282W        W 2195   6.528  27.882   8.999  0.0147  0.2348  0.0952
59283W        W 2196  31.711  17.217  10.155  0.1041  0.1810 -0.1331
59284W        W 2197  11.458   7.786  28.860 -0.0876  0.0403 -0.1321
59285W        W 2198   5.506   7.178  25.047  0.2935  0.0446  0.1301
59286W        W 2199  34.054  15.003  28.916 -0.1779  0.3970 -0.1078
59287W        W 2200   1.848  14.653   9.465  0.0227  0.0305 -0.0956
59288W        W 2201   0.587  15.832   3.321  0.3750 -0.1423  0.0750
59289W        W 2202   2.765   7.355  22.130 -0.2181 -0.2094 -0.0529
59290W        W 2203   8.264  13.630   8.273 -0.1592 -0.3139 -0.1981
59291W        W 2204   3.987   8.704  23.572 -0.0364 -0.0324  0.0200
59292W        W 2205  15.267  11.256   2.529  0.0967 -0.1379  0.0606
59293W        W 2206   4.143  19.590   1.376  0.1695 -0.4078 -0.2048
59294W        W 2207   7.000  19.424   0.483 -0.2499  0.1752  0.1984
59295W        W 2208   5.882  16.151   6.667  0.1726  0.2910 -0.3722
59296W        W 2209  28.452   5.603  29.284  0.0760 -0.0290  0.0611
59297W        W 2210   0.346   6.370   3.965  0.0552  0.0755  0.5198
59298W        W 2211  30.129  19.237  27.677  0.1642  0.3258  0.2668
59299W        W 2212   9.120  11.390  25.803 -0.2975  0.2834  0.0899
59300W        W 2213   2.376  12.716   8.293 -0.1458 -0.0581  0.1409
59301W        W 2214  26.478  25.961  24.116 -0.2397 -0.4169  0.0739
59302W        W 2215   2.286   7.257  26.131 -0.1782 -0.0135  0.0072
59303W        W 2216   5.038   8.234  28.843 -0.0452 -0.5358 -0.1502
59304W        W 2217   5.993   7.354  13.208  0.0296 -0.2745  0.0549
59305W        W 2218  31.366  21.909  28.316  0.0218 -0.0291 -0.0462
59306W        W 2219   4.075   9.497   8.042  0.0999  0.0249  0.0693
59307W        W 2220  33.624  20.509   6.624 -0.4072 -0.3018 -0.1139
59308W        W 2221  31.751  14.991   6.943 -0.0016  0.0468  0.3155
59309W        W 2222   8.801   5.076  24.331  0.0571 -0.2371  0.3276
59310W        W 2223  33.597  11.658   3.547  0.3196 -0.1886 -0.2220
59311W        W 2224   3.902  10.581  11.205 -0.0964 -0.0496  0.4449
59312W        W 2225   3.307  14.561   6.592 -0.0559  0.0725 -0.1940
59313W        W 2226   3.207   9.663   8.144  0.0243  0.2509  0.0269
59314W        W 2227   1.414   7.573  10.826 -0.0755  0.2732 -0.3083
59315W        W 2228  14.749  16.795  25.153 -0.0584  0.0568 -0.1407
59316W        W 2229  25.597   6.388  29.426  0.1321  0.1289 -0.0131
59317W        W 2230   7.729   5.566  17.527 -0.0951 -0.2941  0.1897
59318W        W 2231  12.128  19.140   4.763 -0.2425  0.0985 -0.1930
59319W        W 2232  28.750   6.356   9.857 -0.2309 -0.0456 -0.0853
59320W        W 2233  30.424   4.282   6.161 -0.2321 -0.2840  0.0067
59321W        W 2234   2.680   8.211  21.028  0.3428 -0.2342 -0.2817
59322W        W 2235   4.317   1.413   8.997 -0.0802  0.5598 -0.0021
59323W        W 2236  29.651  11.961   4.754  0.0514 -0.1467 -0.1702
59324W        W 2237   8.974   8.809   8.103 -0.0876 -0.5354  0.2295
59325W        W 2238   9.345  10.526   0.428 -0.3095  0.0307 -0.0455
59326W        W 2239   6.715  11.494   6.812  0.0612  0.1658 -0.0932
59327W        W 2240  29.681  26.827   5.219 -0.3491 -0.0297 -0.0288
59328W        W 2241  24.851  19.174  23.201  0.1284  0.3489 -0.1563
59329W        W 2242  34.034   2.413   3.059 -0.0103  0.4078  0.0213
59330W        W 2243   1.705  10.379   0.825 -0.5328 -0.2311 -0.1432
59331W        W 2244   6.430  29.739   4.137  0.0726 -0.0637 -0.2828
59332W        W 2245  25.294  15.891  27.561 -0.1025  0.0205  0.1759
59333W        W 2246  28.106  11.341   1.926  0.0205 -0.0898 -0.4357
59334W        W 2247   8.666  11.261   4.972  0.0125  0.0670 -0.0188
59335W        W 2248   1.373   6.177   7.824  0.1840 -0.2442  0.0146
59336W        W 2249  29.948  11.335   9.384 -0.1110  0.1764  0.0919
59337W        W 2250   1.468   7.417  12.546 -0.2000  0.0341 -0.2952
59338W        W 2251   5.599   1.864   7.959  0.0994 -0.3871 -0.0399
59339W        W 2252   0.558  13.219  21.506 -0.0137 -0.1006  0.1669
59340W        W 2253   0.559  16.946   5.481 -0.3982 -0.2666 -0.1679
59341W        W 2254   3.918  19.034   6.636 -0.3368  0.0351  0.1766
59342W        W 2255  28.116  12.710  26.236 -0.1276 -0.0190 -0.2688
59343W        W 2256   4.460  16.012  29.222 -0.0105  0.2241 -0.0618
59344W        W 2257  34.233   5.392  12.061 -0.0667  0.4279  0.2011
59345W        W 2258  33.967  16.074   2.783  0.3248  0.2782  0.2820
59346W        W 2259  33.475  14.253  28.960 -0.0452  0.5478 -0.0818
59347W        W 2260  30.840   8.307  29.653 -0.3001 -0.2398 -0.0256
59348W        W 2261  10.629  18.984   1.257 -0.1539  0.0457 -0.2691
59349W        W 2262   3.633   8.693   1.238 -0.3299  0.1078 -0.1750
59350W        W 2263  26.551  10.177  25.557 -0.0122 -0.1033 -0.2908
59351W        W 2264  23.242  25.351   6.447  0.0524  0.0309  0.1645
59352W        W 2265   5.744  13.010   8.335 -0.3230 -0.0356  0.1346
59353W        W 2266   7.711   8.533   7.696  0.2177  0.2571  0.1951
59354W        W 2267   5.678  11.266   7.591 -0.2401 -0.2202  0.0941
59355W        W 2268   5.341  12.898   8.637 -0.2162 -0.3173 -0.2018
59356W        W 2269  30.180  18.927  10.278  0.1291  0.0405  0.0062
59357W        W 2270   4.905  20.672   9.234  0.1008 -0.0903 -0.1588
59358W        W 2271  33.613  13.604  29.619  0.2012 -0.0166 -0.1014
59359W        W 2272   4.947  13.313   1.698  0.3064 -0.0052 -0.0423
59360W        W 2273   4.399  12.657   0.240 -0.2225 -0.0012 -0.2360
59361W        W 2274  17.051   8.652   9.827  0.3468 -0.1747  0.2990
59362W        W 2275  30.101   9.533   5.427  0.0868 -0.0482 -0.2491
59363W        W 2276   3.652  15.510   5.580  0.3651 -0.1463  0.3446
59364W        W 2277  20.578  14.331  26.875  0.3025 -0.0177 -0.1931
59365W        W 2278   0.370  10.553   8.740 -0.0407 -0.0664 -0.4346
59366W        W 2279   4.311   7.590  28.598 -0.1946 -0.1476 -0.3724
59367W        W 2280  31.253  17.722  28.239 -0.0131  0.4059 -0.2867
59368W        W 2281  19.360   7.102   2.299  0.1493  0.0461  0.2883
59369W        W 2282  25.706  18.770   2.189  0.0720  0.1862  0.0634
59370W        W 2283  33.767  23.605   8.414 -0.1536  0.1557 -0.0878
59371W        W 2284   0.191  11.075   8.394  0.1658 -0.1410 -0.0288
59372W        W 2285  13.800  23.801   5.270 -0.0427 -0.1329 -0.3601
59373W        W 2286   6.171   7.601   3.592 -0.0152 -0.2341 -0.0625
59374W        W 2287  32.599  12.627   7.351 -0.2236 -0.0776 -0.0277
59375W        W 2288   3.308   7.640   8.200 -0.1040  0.0779  0.1444
59376W        W 2289   5.118   9.135  28.702  0.1828 -0.0437 -0.3102
59377W        W 2290  12.481  22.689   4.693  0.1918  0.0922  0.1267
59378W        W 2291   8.008   8.548   3.000  0.1364  0.0915 -0.4028
59379W        W 2292   3.293  11.282  28.058 -0.0390  0.0728  0.2824
59380W        W 2293  24.347  13.932  27.856 -0.1760  0.2755 -0.0616
59381W        W 2294   8.157  15.478  28.766  0.1049 -0.1050  0.1408
59382W        W 2295   5.048   7.678   6.713  0.2284  0.2534 -0.2212
59383W        W 2296  31.249  11.437   2.939 -0.0073  0.1724  0.2999
59384W        W 2297  25.662  14.738   3.119  0.2276 -0.3816 -0.1236
59385W        W 2298   6.282  16.849   9.251 -0.0363  0.0161 -0.2475
59386W        W 2299  31.550  14.464   2.131 -0.1285 -0.0889  0.1369
59387W        W 2300   9.691   7.845   2.383 -0.0322 -0.1315  0.1960
59388W        W 2301  28.338  11.328  22.798  0.4003 -0.1297 -0.3922
59389W        W 2302   5.431   7.982   3.516 -0.2649 -0.0802  0.2345
59390W        W 2303   6.539  22.289   0.167  0.0300 -0.1718  0.4387
59391W        W 2304   5.619   3.111  12.008  0.0598 -0.1506  0.1464
59392W        W 2305  32.137  20.730   8.315  0.0890 -0.1673 -0.3508
59393W        W 2306  28.095  17.770  24.201  0.1850  0.1780 -0.0695
59394W        W 2307   8.688   9.605   0.982  0.2658  0.3622 -0.0148
59395W        W 2308  30.599  17.048   1.892  0.2299 -0.0233  0.1113
59396W        W 2309  10.001   9.773  10.339  0.2665 -0.0880 -0.1134
59397W        W 2310  30.357  14.513   4.302  0.1840 -0.0515  0.0377
59398W        W 2311  27.043  17.021   4.947 -0.1893 -0.3019  0.0723
59399W        W 2312   4.684  13.996   6.511 -0.0439 -0.0079 -0.1267
59400W        W 2313  28.767   8.395  11.060 -0.3989  0.0083 -0.0394
59401W        W 2314  34.371  14.848   9.726 -0.0569  0.1154 -0.2874
59402W        W 2315  30.863  18.840   2.139  0.6373  0.0509 -0.1360
59403W        W 2316  33.836   8.869  10.220 -0.1982  0.2272  0.1312
59404W        W 2317  14.651  19.092   6.530  0.4614  0.3330  0.1873
59405W        W 2318  11.842   5.779  28.544  0.2316  0.2474 -0.2056
59406W        W 2319  33.242   4.541   1.102 -0.0833 -0.1946 -0.1692
59407W        W 2320  30.876  13.972   7.483  0.5286 -0.0529 -0.1548
59408W        W 2321  32.554   7.951  11.095  0.0605 -0.1077 -0.2502
59409W        W 2322   2.543   6.046   8.586  0.0030 -0.1746  0.3258
59410W        W 2323  32.703  10.749   8.318  0.1149  0.1657  0.1995
59411W        W 2324  30.440  12.080   9.207  0.3610  0.0492 -0.1397
59412W        W 2325  28.843   8.957   4.808 -0.2321 -0.0321  0.0447
59413W        W 2326  32.720  13.700   4.107 -0.2578 -0.1590 -0.0692
59414W        W 2327   0.612   6.164   2.601  0.0866 -0.2702 -0.0350
59415W        W 2328  10.954  14.505   0.140 -0.0914  0.1421  0.0872
59416W        W 2329  14.654  11.628  27.333 -0.2216  0.0220  0.3096
59417W        W 2330   9.016  29.502   9.013 -0.2520  0.0285 -0.1811
59418W        W 2331   1.008  15.040   9.324 -0.1257  0.0208 -0.1096
59419W        W 2332  34.149  12.961   0.166 -0.0935  0.1475 -0.0060
59420W        W 2333  13.538  21.436  16.373 -0.5660 -0.1198  0.1047
59421W        W 2334  12.876   5.325   8.501 -0.2356  0.3104  0.2957
59422W        W 2335  27.117   7.329   7.838 -0.0165 -0.1598  0.0670
59423W        W 2336   3.720  27.618   5.349 -0.0190  0.0283 -0.1216
59424W        W 2337  28.271   9.078   6.189  0.0816  0.0487 -0.2762
59425W        W 2338   0.299  15.933   3.916  0.0605 -0.1704  0.0684
59426W        W 2339  33.878  12.625  26.282 -0.0014 -0.0487 -0.1497
59427W        W 2340   4.319  12.691  28.029 -0.3646  0.2319 -0.4474
59428W        W 2341  19.498   4.874   5.599  0.0341  0.0371 -0.1163
59429W        W 2342  26.936  16.564   3.761 -0.1029 -0.2089 -0.0812
59430W        W 2343   6.390   4.675   6.027  0.1303 -0.1987  0.0972
59431W        W 2344   7.037  16.077   5.280  0.0274  0.3132  0.0997
59432W        W 2345  29.886  12.731   2.474  0.1646 -0.1396  0.0546
59433W        W 2346   1.119  29.033  22.715 -0.0767 -0.0601 -0.1532
59434W        W 2347  13.172   5.490   5.352  0.1670  0.1099  0.1467
59435W        W 2348  30.429   0.908   3.419 -0.0460  0.0906 -0.0726
59436W        W 2349  24.996   9.447   2.714 -0.2030  0.0750  0.1104
59437W        W 2350   0.122   1.473   9.304 -0.0872  0.1653  0.1053
59438W        W 2351  30.200  19.382   8.183 -0.1911 -0.1536 -0.2875
59439W        W 2352   5.748   4.133  12.666 -0.0402 -0.1974 -0.0403
59440W        W 2353  21.232  18.608   8.199 -0.3365  0.2718 -0.0070
59441W        W 2354  29.968  11.380   4.645  0.1677 -0.5104 -0.2533
59442W        W 2355   6.532   5.048   0.732  0.0042 -0.0643 -0.1570
59443W        W 2356   5.457  19.785   2.972  0.1086 -0.1541 -0.3289
59444W        W 2357   5.783  13.692   4.307  0.1531  0.0078  0.3260
59445W        W 2358  34.128  12.706   9.348  0.1675  0.2175  0.1136
59446W        W 2359   8.305   2.078   6.709 -0.2546  0.4881  0.2939
59447W        W 2360  33.348   4.564  28.926 -0.2110 -0.0031 -0.0704
59448W        W 2361   1.261  11.378   2.995 -0.0506 -0.0318 -0.0015
59449W        W 2362   5.489   7.016   4.555 -0.1219 -0.2150  0.1751
59450W        W 2363   1.178   7.655   6.901  0.0235 -0.0113  0.0409
59451W        W 2364   7.298  10.264   1.267  0.0967 -0.1946 -0.1006
59452W        W 2365   3.154  10.533   4.348  0.1271 -0.0345 -0.1710
59453W        W 2366   4.060   6.651   5.473  0.1052  0.1716  0.0515
59454W        W 2367   0.921  11.969   4.737  0.2416  0.1126 -0.0096
59455W        W 2368  27.349  17.120  27.479 -0.3016 -0.3283  0.0276
59456W        W 2369   1.776  11.205   9.744 -0.1926  0.0409 -0.2096
59457W        W 2370  27.937   7.096  21.321 -0.1558  0.2517  0.1672
59458W        W 2371  30.507   8.579  28.357 -0.4330 -0.0224  0.2136
59459W        W 2372  31.003  12.601   1.842 -0.0317 -0.1724  0.1592
59460W        W 2373   1.263   9.826  10.817 -0.1949  0.0969 -0.2820
59461W        W 2374  11.173   6.455  26.223 -0.1555  0.1926  0.2293
59462W        W 2375   4.020  11.610   8.438  0.0659  0.2846  0.1265
59463W        W 2376   5.489   2.652   5.952 -0.0705  0.0899  0.0060
59464W        W 2377  34.155  12.120   9.841 -0.0284 -0.1153  0.1660
59465W        W 2378   4.572  11.743   6.221  0.1749  0.4510  0.2092
59466W        W 2379  32.159  14.006   2.890  0.0296 -0.0012 -0.1186
59467W        W 2380  28.243  22.667   2.985  0.1107 -0.1694  0.2207
59468W        W 2381   7.674  11.543   8.137  0.3117 -0.1589  0.3366
59469W        W 2382   3.779  14.809   0.108 -0.1086 -0.4959 -0.1699
59470W        W 2383   0.144   0.063   9.313 -0.0508  0.0870  0.1640
59471W        W 2384   1.210   7.746  29.013 -0.2160  0.0838 -0.2277
59472W        W 2385   5.015   6.693  11.797  0.1342 -0.0225 -0.0182
59473W        W 2386  10.614  15.203   8.014  0.0735  0.0950 -0.1865
59474W        W 2387  30.276  15.043  28.718 -0.2058 -0.2996 -0.0422
59475W        W 2388  30.112   3.032   2.755 -0.1720  0.0571  0.1063
59476W        W 2389   2.797   9.151   0.155 -0.0079 -0.1805 -0.1933
59477W        W 2390  28.733  17.296   0.670 -0.1935  0.3914 -0.2880
59478W        W 2391   8.694  14.693   3.850  0.2505 -0.1819 -0.3354
59479W        W 2392   2.540  11.627  10.845  0.0526 -0.1145  0.0902
59480W        W 2393   6.438  21.424   4.732 -0.0226 -0.0831  0.0092
59481W        W 2394   6.184   1.480   6.788  0.1386  0.2814  0.1492
59482W        W 2395   4.718   9.236   3.412 -0.0071 -0.1451  0.1430
59483W        W 2396  34.391   8.007  25.057  0.0074 -0.1967 -0.2281
59484W        W 2397  26.681  18.650   3.978 -0.0494 -0.4258  0.0671
59485W        W 2398  25.997  15.295  28.929  0.1285 -0.1199 -0.0915
59486W        W 2399   5.031  12.807   1.990  0.1948 -0.3834  0.2295
59487W        W 2400   2.810  13.886   5.529  0.2569  0.2822 -0.1921
59488W        W 2401   6.372   2.824  11.476  0.1584  0.2539  0.0771
59489W        W 2402  30.063   9.120   3.764 -0.1616 -0.4196  0.0302
59490W        W 2403   4.677   9.726   5.588  0.1617  0.1870 -0.0733
59491W        W 2404  31.018  17.291   8.452  0.3182  0.3068  0.1169
59492W        W 2405   8.761   6.794   4.512 -0.0149 -0.2700  0.3511
59493W        W 2406  32.282   7.040  25.796  0.1181  0.1155  0.0720
59494W        W 2407  28.346  14.924  10.028 -0.1635 -0.2020  0.0567
59495W        W 2408  32.826   5.783  28.181  0.1882 -0.1413 -0.2761
59496W        W 2409   9.027  16.893   9.525  0.1530  0.0133 -0.1724
59497W        W 2410   9.912  14.717   6.029  0.1470 -0.1116 -0.0352
59498W        W 2411   2.462   7.924  12.643 -0.1304 -0.1513  0.3342
59499W        W 2412  29.555  15.060   7.142  0.0987  0.2393  0.2296
59500W        W 2413  32.993   6.351   8.515 -0.3029 -0.5765 -0.1752
59501W        W 2414   5.777   1.780  29.502  0.1205 -0.1720  0.1646
59502W        W 2415   9.209   6.095  11.888 -0.0434  0.0002  0.0884
59503W        W 2416   2.939  13.768   1.294  0.0003  0.2185 -0.2033
59504W        W 2417   3.374  14.309   0.965 -0.1298 -0.3296  0.0550
59505W        W 2418  30.746  11.062  10.269  0.2979  0.0685 -0.0342
59506W        W 2419   1.439   2.164   6.182 -0.1618 -0.0511 -0.0943
59507W        W 2420   7.781   6.069  28.943 -0.5528  0.1595 -0.1964
59508W        W 2421   2.836   9.769   5.325  0.2060  0.0286  0.1492
59509W        W 2422  28.085  11.559   9.090 -0.1525  0.1096 -0.0979
59510W        W 2423   6.964  11.043   8.729  0.0399 -0.1552 -0.1926
59511W        W 2424   5.019   5.628   1.144 -0.1541  0.5057 -0.1226
59512W        W 2425  29.319  10.727  29.458 -0.1119  0.2819  0.1147
59513W        W 2426  28.128  17.087  29.405  0.0210  0.1362  0.1629
59514W        W 2427   9.398   9.478   2.611 -0.0701  0.2734 -0.1616
59515W        W 2428  18.452  13.663   4.772  0.0123 -0.2776 -0.2664
59516W        W 2429   1.571  16.367   6.346 -0.0799 -0.0848 -0.2404
59517W        W 2430  29.055  34.444  28.129 -0.0512 -0.2330  0.0768
59518W        W 2431  30.649  10.855   4.135 -0.2416  0.0498 -0.4905
59519W        W 2432  26.453   1.185   8.370 -0.0146 -0.2419 -0.2165
59520W        W 2433   1.906  11.798  29.740  0.0976 -0.0027  0.0409
59521W        W 2434   0.654  16.495   6.377 -0.3483  0.0874 -0.4476
59522W        W 2435   2.615   7.543   2.508  0.0108 -0.2583 -0.1437
59523W        W 2436   4.925  20.759  25.456 -0.0979 -0.2212 -0.0555
59524W        W 2437   7.336   7.030   6.427  0.0769 -0.2136 -0.2225
59525W        W 2438  33.042  18.101   3.504 -0.2441 -0.1032  0.2004
59526W        W 2439  12.804  16.963   4.455  0.0375 -0.1131 -0.1842
59527W        W 2440   1.001  12.846   3.856  0.2231 -0.0247 -0.1526
59528W        W 2441  33.653  15.562   8.939 -0.1049 -0.0597 -0.0777
59529W        W 2442   1.462  19.621   2.881  0.0975  0.1034  0.0407
59530W        W 2443  23.478  30.921   1.223  0.0451 -0.1007  0.1780
59531W        W 2444   3.683  19.057   5.840  0.1505  0.0741  0.0416
59532W        W 2445  27.109  17.903   0.232 -0.1167  0.0015 -0.1923
59533W        W 2446   4.424   9.240   0.963 -0.0508  0.0498  0.1766
59534W        W 2447  32.395  16.364   6.642 -0.0287  0.4189 -0.0303
59535W        W 2448  14.779  10.830   7.638  0.0980 -0.2989 -0.0399
59536W        W 2449  31.432  11.870   7.515  0.0036 -0.2354  0.1469
59537W        W 2450   6.441  18.992  25.824  0.1529 -0.0053  0.3449
59538W        W 2451  10.064   5.514   8.642 -0.1604 -0.1956  0.0151
59539W        W 2452  31.618  17.218  29.720  0.0163  0.0331  0.2601
59540W        W 2453   4.374  18.245   0.829 -0.4184  0.2323 -0.0585
59541W        W 2454   3.618  18.116   4.045  0.1678  0.1253 -0.1596
59542W        W 2455  32.600  12.950  25.954 -0.2590 -0.1233  0.2366
59543W        W 2456  22.491  15.465   3.899  0.2504 -0.1736  0.3092
59544W        W 2457  22.948  14.923  28.910  0.2709 -0.3497  0.0385
59545W        W 2458   2.556  32.300   7.804 -0.1488  0.0568 -0.1311
59546W        W 2459  26.330  11.772   1.834  0.2454 -0.0082  0.0175
59547W        W 2460  32.907  13.594   2.906 -0.3167  0.0218  0.0748
59548W        W 2461   6.374  12.728  27.557  0.1061 -0.0687  0.0899
59549W        W 2462   3.831  10.507   3.792  0.3501 -0.0200 -0.1065
59550W        W 2463  29.204   9.876   5.222 -0.0322 -0.2341  0.2064
59551W        W 2464   6.030  15.330   8.079  0.2037  0.1771 -0.1436
59552W        W 2465  29.369  29.499   8.341 -0.0116  0.0215  0.3141
59553W        W 2466   0.868   6.347   9.380  0.1446  0.0313 -0.3145
59554W        W 2467  29.390   9.462   4.222  0.0378 -0.1074 -0.2443
59555W        W 2468  34.313  11.302   5.431 -0.0823 -0.0985 -0.1559
59556W        W 2469   6.494   8.755  22.501 -0.1692 -0.0882 -0.0424
59557W        W 2470  26.013  17.391   8.802 -0.2219 -0.0349  0.2401
59558W        W 2471   6.646   2.174   4.861  0.1936 -0.0881  0.1291
59559W        W 2472   4.353  14.964   3.660  0.1288  0.1641  0.0494
59560W        W 2473   0.954  17.473   6.987 -0.0617 -0.3887 -0.1204
59561W        W 2474  24.834  12.812  20.144 -0.2075 -0.1053 -0.2680
59562W        W 2475   0.949  20.087   3.399 -0.2306  0.1523 -0.3819
59563W        W 2476   4.659  15.545   3.746 -0.3326 -0.1729 -0.0660
59564W        W 2477   5.015  18.944   1.529  0.0252 -0.2319 -0.2770
59565W        W 2478   2.730  27.026  29.092 -0.1423 -0.3452  0.0537
59566W        W 2479  14.803  10.416   3.883  0.0019 -0.0138 -0.2938
59567W        W 2480  10.812  14.803   1.379 -0.0689 -0.0401 -0.0589
59568W        W 2481  13.818  19.585   4.977 -0.0169 -0.3071  0.0023
59569W        W 2482   0.751   7.131   5.565  0.0181 -0.2954  0.1258
59570W        W 2483   4.068  17.385   8.551  0.3436  0.0792 -0.2357
59571W        W 2484   6.615  14.218   4.000 -0.1498 -0.3140 -0.2415
59572W        W 2485  33.193  13.248   0.179 -0.0210 -0.2236  0.0959
59573W        W 2486   4.000  11.362   1.825  0.1502  0.0149 -0.0321
59574W        W 2487   1.443  16.927   2.199  0.3168  0.1620 -0.1754
59575W        W 2488   1.050  14.984   4.226  0.0312  0.0274 -0.0111
59576W        W 2489   3.782  33.291   9.196 -0.3807  0.2737 -0.1196
59577W        W 2490  27.120   6.648  10.345  0.0409  0.0069  0.0472
59578W        W 2491   1.657  13.650   8.900 -0.3951  0.0535  0.5245
59579W        W 2492   5.251  17.348  28.747  0.0115  0.1265  0.2471
59580W        W 2493  30.367  14.920   2.104 -0.1929  0.1395  0.0556
59581W        W 2494   1.618  13.037   2.063  0.1127  0.0617  0.1246
59582W        W 2495  10.588   1.013  25.906  0.3002 -0.1722  0.1464
59583W        W 2496  13.034  19.077   4.664  0.2570 -0.0890  0.0368
59584W        W 2497   1.619   4.483   2.698  0.0093  0.0844  0.0755
59585W        W 2498   3.303  21.666  10.338 -0.0661  0.0683  0.0161
59586W        W 2499  33.295  11.149   1.757 -0.0928 -0.2054 -0.1875
59587W        W 2500   5.579   8.303   6.743 -0.1589  0.0327  0.3763
59588W        W 2501   0.937   6.062   1.824  0.0044 -0.3208  0.3205
59589W        W 2502   3.370   1.407   8.789 -0.2359 -0.2718  0.0432
59590W        W 2503   5.783  13.400   3.496  0.2634 -0.0704 -0.1702
59591W        W 2504   2.507  16.884  27.995  0.1429  0.1093  0.0844
59592W        W 2505   1.863   5.446   7.536  0.4287  0.0697 -0.1504
59593W        W 2506   1.435   4.256  26.705  0.3095 -0.0809 -0.0843
59594W        W 2507   2.420   8.132   6.742  0.0128 -0.1488 -0.1533
59595W        W 2508   1.374  18.332   6.656  0.3708 -0.2928  0.0166
59596W        W 2509  24.153  20.069   1.917  0.1695  0.0216  0.1524
59597W        W 2510  32.643  13.353   5.585  0.1463  0.0945 -0.2770
59598W        W 2511   2.572  32.807   9.145  0.2512 -0.0333  0.0632
59599W        W 2512   2.860  14.292   6.352  0.4593  0.3550 -0.0637
59600W        W 2513   9.785  34.035   5.865 -0.3007  0.0478 -0.1615
59601W        W 2514   6.970  16.544   4.382 -0.0999 -0.0765 -0.0718
59602W        W 2515  23.868  19.580  20.440 -0.0286 -0.2970 -0.2767
59603W        W 2516  33.197  29.887   7.189 -0.0512  0.1580  0.1148
59604W        W 2517  33.268  28.845   8.894 -0.1622  0.2666  0.2270
59605W        W 2518  34.048   5.231   4.123 -0.1000  0.1607 -0.2509
59606W        W 2519  12.512  14.280  28.221  0.0780  0.1773  0.0794
59607W        W 2520   3.882  16.013   5.638  0.2325 -0.1887  0.1286
59608W        W 2521   5.518  10.564   9.629 -0.1218  0.0505  0.0157
59609W        W 2522   2.094  23.446   0.454 -0.0611 -0.1090 -0.0279
59610W        W 2523   5.394  22.335   7.264 -0.5122 -0.0196  0.2656
59611W        W 2524  20.323  18.986   5.180 -0.0461  0.1596  0.1856
59612W        W 2525   2.360  13.029   5.774  0.0613 -0.1430  0.3049
59613W        W 2526  33.478  11.738   6.291  0.1021  0.1455 -0.0623
59614W        W 2527  31.402   5.892  24.807  0.1018  0.0061  0.2167
59615W        W 2528   0.982  17.295   4.052  0.2132  0.1603  0.6877
59616W        W 2529   4.808   6.890  28.135 -0.2813  0.0525  0.1778
59617W        W 2530   6.324  12.088   5.069  0.2762 -0.1623 -0.0048
59618W        W 2531  14.305  14.080  26.206  0.0205  0.2938 -0.0009
59619W        W 2532  30.350  25.223   6.423 -0.3043 -0.2070 -0.1173
59620W        W 2533   6.066   9.532   4.817  0.4698  0.2696  0.2087
59621W        W 2534  32.564  12.774   8.755  0.3147 -0.3499  0.1916
59622W        W 2535  31.399   5.058   2.384  0.1304  0.0240 -0.4438
59623W        W 2536   0.346  16.376  29.001 -0.0892  0.0155  0.0759
59624W        W 2537   1.484  21.028   3.832  0.1062  0.0401 -0.1039
59625W        W 2538   4.315  10.537   1.868  0.0946 -0.0402  0.4612
59626W        W 2539   7.270  15.254  27.602 -0.1533 -0.2237  0.1205
59627W        W 2540   4.970   3.263   3.703  0.0983  0.1798 -0.1732
59628W        W 2541   1.870   0.203  28.093  0.0708 -0.0126 -0.5330
59629W        W 2542  33.442  20.477  28.788  0.2087 -0.2856  0.5653
59630W        W 2543  32.888   4.316   4.463 -0.1465  0.0136 -0.1148
59631W        W 2544  17.440   2.735  26.148  0.1129  0.0259 -0.2024
59632W        W 2545   7.260   6.277  11.666  0.3064  0.2224  0.3280
59633W        W 2546   5.639  23.179   8.631 -0.2041 -0.0138  0.0203
59634W        W 2547   5.583  33.373   5.952  0.1892  0.0267  0.0818
59635W        W 2548  27.042   8.127   9.118 -0.1522 -0.0711  0.0445
59636W        W 2549   2.778  12.836   9.506  0.0260 -0.2313 -0.0774
59637W        W 2550  34.061  17.165   8.913 -0.0768 -0.1778  0.1817
59638W        W 2551   4.544  19.661  29.307  0.0091  0.1862 -0.2238
59639W        W 2552   3.483  25.860   7.341 -0.0745  0.0001  0.0297
59640W        W 2553  29.782   9.918   3.519  0.2651  0.0441  0.2735
59641W        W 2554  31.667  14.853   8.262 -0.0578 -0.0662  0.2168
59642W        W 2555   3.328  10.359   9.454 -0.0615  0.2713  0.2540
59643W        W 2556   2.975  17.188  20.429 -0.1414 -0.1630 -0.3312
59644W        W 2557   9.077   8.242   9.989 -0.1149 -0.0132 -0.1985
59645W        W 2558  14.362   8.400   7.701 -0.0572  0.2313  0.2430
59646W        W 2559   4.765   1.838  10.019 -0.1200  0.3578  0.3193
59647W        W 2560  33.073   2.184   3.227 -0.1461  0.0420 -0.3406
59648W        W 2561   0.684  11.310  10.167  0.0140  0.2822  0.3552
59649W        W 2562   3.671  23.609   9.870 -0.2492 -0.0650 -0.2765
59650W        W 2563  20.940  14.009   4.277  0.0739 -0.1034 -0.1343
59651W        W 2564   5.462  15.838   9.240 -0.3589  0.2287  0.0552
59652W        W 2565   3.974   6.616  10.068  0.0992 -0.1903 -0.0008
59653W        W 2566  10.688   3.749  11.881  0.1781 -0.1943 -0.1828
59654W        W 2567  33.710  17.886   7.678 -0.1335  0.0587 -0.1510
59655W        W 2568   9.506   7.454   6.613 -0.2513 -0.0100 -0.0111
59656W        W 2569  18.186   8.873  24.639  0.1153 -0.0964  0.0673
59657W        W 2570   3.312   4.456   5.442  0.0661  0.3607 -0.1066
59658W        W 2571   0.020  16.243   1.434 -0.0667  0.0242  0.0347
59659W        W 2572   3.159  16.754   6.997 -0.3697  0.0660 -0.0484
59660W        W 2573  29.690   9.753   8.845 -0.4000  0.2264  0.2257
59661W        W 2574  30.339  32.231   2.884 -0.0320 -0.1169  0.2091
59662W        W 2575  29.881  12.075   8.076 -0.0331 -0.0001  0.1336
59663W        W 2576   0.112  14.220   1.153  0.0165  0.0637  0.2164
59664W        W 2577   8.188  30.601  10.772  0.0589  0.0655 -0.3035
59665W        W 2578  34.395  10.677  10.477  0.0472 -0.5756  0.1092
59666W        W 2579  32.742  23.142  25.468  0.2294 -0.0709 -0.1392
59667W        W 2580  30.259  17.401   9.342 -0.2038 -0.0092  0.3152
59668W        W 2581  33.501  17.632   7.214 -0.1191  0.1169 -0.4211
59669W        W 2582  10.202  13.834   9.133  0.0007 -0.0661 -0.1197
59670W        W 2583  32.888  19.598   7.926 -0.1938 -0.0926 -0.1561
59671W        W 2584  31.430  13.107   8.263 -0.1909 -0.0976  0.0424
59672W        W 2585  33.750  22.875  29.140 -0.3273  0.2836 -0.1012
59673W        W 2586  29.835   4.413   7.432  0.1358 -0.0992 -0.0326
59674W        W 2587  23.847   1.304   5.847 -0.1016  0.1222 -0.1025
59675W        W 2588  25.499  11.351   2.675 -0.1234  0.1739 -0.1079
59676W        W 2589  28.778   5.988   9.506  0.0681 -0.1556 -0.0964
59677W        W 2590  31.659  19.569  27.062 -0.0220 -0.1672 -0.3205
59678W        W 2591  22.129  15.441  25.910  0.1212  0.1384 -0.0590
59679W        W 2592  12.211  14.371   7.276  0.2861 -0.1479  0.2461
59680W        W 2593   1.449  13.503   8.304  0.1182  0.2682 -0.0013
59681W        W 2594   1.836  16.943   3.631 -0.0624  0.0136 -0.0606
59682W        W 2595   8.684  14.974   8.278 -0.0933 -0.1951  0.0544
59683W        W 2596   0.176   5.088  10.961 -0.2627 -0.1703 -0.1246
59684W        W 2597  26.892   3.720  29.544  0.0639  0.0238  0.0494
59685W        W 2598  33.895   7.783   4.473  0.0059 -0.0649  0.1450
59686W        W 2599   4.854   0.398   9.330  0.3496 -0.0870  0.1290
59687W        W 2600   3.300  19.589  10.437 -0.1524  0.0143 -0.0377
59688W        W 2601   8.140   3.344  13.555 -0.5135 -0.0927 -0.0798
59689W        W 2602   5.080   9.216  10.324 -0.2547  0.2735 -0.0309
59690W        W 2603   9.921  22.615  24.853 -0.2338 -0.2915  0.1176
59691W        W 2604   7.117   1.738   2.078  0.3619 -0.1551 -0.0856
59692W        W 2605   5.986  17.124   8.994 -0.1241  0.2083  0.1571
59693W        W 2606  31.596  16.477   8.925  0.1684  0.1069 -0.0029
59694W        W 2607  27.377  13.186  27.273 -0.2509  0.3200  0.0594
59695W        W 2608   9.544   5.885   1.858 -0.1815  0.3080  0.0708
59696W        W 2609   6.325  12.875   7.831 -0.0573 -0.1224  0.1419
59697W        W 2610   4.112   9.042  11.608  0.0179  0.0823  0.1580
59698W        W 2611   2.511  13.710   2.453 -0.1075 -0.1920 -0.2959
59699W        W 2612   1.379  11.182   8.060  0.3532  0.2600  0.2045
59700W        W 2613   4.870   5.963  10.961 -0.1451 -0.1592 -0.2597
59701W        W 2614  25.906   6.881   3.021 -0.0288 -0.1186  0.0004
59702W        W 2615  32.032  14.302   5.299 -0.0029  0.0540 -0.0404
59703W        W 2616  32.487   6.420  12.130  0.0406  0.0229  0.4490
59704W        W 2617   6.292  17.535   7.251  0.3616  0.1907  0.0280
59705W        W 2618  25.819  15.032   4.301  0.0948  0.0382 -0.0388
59706W        W 2619   9.660   1.440   7.358 -0.1874 -0.0326 -0.2600
59707W        W 2620  31.104  15.872   7.876  0.1156 -0.4346 -0.0640
59708W        W 2621   9.329  11.755   5.012 -0.2824 -0.0995  0.1825
59709W        W 2622  10.471  16.277   1.489 -0.0960  0.2062 -0.1542
59710W        W 2623  31.706  23.284   7.906  0.1449 -0.0645 -0.2574
59711W        W 2624  29.323   5.166   4.934  0.4769  0.0641  0.0203
59712W        W 2625  21.312   8.240   9.778 -0.0020 -0.1030 -0.0477
59713W        W 2626  32.873   6.765   8.755 -0.1772  0.1549  0.0270
59714W        W 2627   3.907  10.315   7.905 -0.0115  0.0250 -0.2128
59715W        W 2628   5.962   8.998  10.522  0.0447  0.3473 -0.1877
59716W        W 2629  11.615   6.954  10.176  0.3043  0.0959  0.2240
59717W        W 2630   1.631  21.755   6.972  0.1454 -0.3694  0.1973
59718W        W 2631  33.094  26.122   7.658  0.1377 -0.3684 -0.0708
59719W        W 2632   5.089   1.905   8.948 -0.1165  0.0941 -0.0903
59720W        W 2633   6.033   0.142  11.314  0.3923  0.2711  0.4369
59721W        W 2634   1.388  13.548   0.195  0.2224  0.4486 -0.1283
59722W        W 2635   7.524  33.108  11.643  0.0738 -0.0233  0.0421
59723W        W 2636   9.643   5.564   6.335  0.2187 -0.2790  0.0074
59724W        W 2637  30.030  16.089   6.358  0.1024 -0.1740 -0.0164
59725W        W 2638   6.032  11.277  28.400 -0.1357 -0.1978  0.2582
59726W        W 2639   1.253  23.430   7.440 -0.3416  0.2881  0.0367
59727W        W 2640   9.179  21.066   0.934 -0.1133 -0.1225  0.0315
59728W        W 2641   8.545  11.295   6.832  0.2559 -0.1784  0.2755
59729W        W 2642  10.992  10.635   1.878  0.1508  0.1168  0.1164
59730W        W 2643  27.765   7.208   9.688 -0.1018 -0.0731 -0.0001
59731W        W 2644   0.647  26.062   8.840 -0.2005  0.0794 -0.1434
59732W        W 2645   4.604   5.396   1.305  0.3088 -0.0398  0.2099
59733W        W 2646  27.239   6.935   3.091  0.1839  0.3253 -0.1366
59734W        W 2647  33.163   2.990   9.753  0.2589  0.0446  0.0933
59735W        W 2648  32.986   3.939  11.023 -0.2855 -0.1619 -0.1635
59736W        W 2649   3.170   9.738   0.725 -0.0639 -0.0135 -0.1079
59737W        W 2650  30.767  11.820   3.936 -0.1431  0.0398  0.0908
59738W        W 2651  27.495  24.466   4.631 -0.0831 -0.2711  0.2088
59739W        W 2652  30.644  19.000  10.258 -0.2021 -0.0352  0.2523
59740W        W 2653   3.912  12.956   8.145  0.1096  0.1837  0.0458
59741W        W 2654  29.420  11.977   5.266  0.2019  0.1618 -0.3754
59742W        W 2655  31.715  14.884   9.233  0.3159  0.1307  0.0666
59743W        W 2656   6.003   7.978  10.241  0.0808 -0.0022 -0.0613
59744W        W 2657   0.395   5.031   9.358  0.1209 -0.0437 -0.2103
59745W        W 2658   6.612   0.883   7.144  0.0494  0.2313 -0.1335
59746W        W 2659   3.540   9.733   3.002  0.0401 -0.0021 -0.1902
59747W        W 2660   2.382  25.953   9.367  0.1911  0.0704  0.1064
59748W        W 2661   0.050  14.986   4.243 -0.2907  0.2797  0.0060
59749W        W 2662   1.096  14.122  17.643  0.3562  0.0537  0.0852
59750W        W 2663   2.879  11.885   8.045  0.0247 -0.0433 -0.0941
59751W        W 2664   0.408  16.849   9.671 -0.1545 -0.0886 -0.3946
59752W        W 2665   8.413  17.870  24.264  0.2829 -0.6827  0.0629
59753W        W 2666   6.801  13.827   6.101  0.1125 -0.1181 -0.1625
59754W        W 2667   1.402   8.195   3.496 -0.0872  0.0764 -0.0740
59755W        W 2668   8.627   8.233   9.055  0.1325 -0.1793 -0.3519
59756W        W 2669  30.923   5.478   4.829  0.3297 -0.0652 -0.1614
59757W        W 2670  31.663   9.636   5.961  0.2645 -0.2443  0.0096
59758W        W 2671  27.782   8.399   7.587  0.0792 -0.2317  0.0215
59759W        W 2672   7.940  29.425   4.820 -0.0326 -0.2180 -0.1328
59760W        W 2673  32.012   9.023   7.702 -0.0343  0.0332 -0.0252
59761W        W 2674   8.261  13.497   7.417  0.0839  0.0042 -0.1870
59762W        W 2675   1.551  13.772   7.483  0.1781  0.1914 -0.1894
59763W        W 2676   3.153  19.283   8.871 -0.0362  0.0629 -0.0915
59764W        W 2677   1.777  33.614  10.665  0.2919  0.1563 -0.2715
59765W        W 2678   6.146  14.469   7.142 -0.2599  0.4248  0.0684
59766W        W 2679   0.876  31.440   3.758  0.4559  0.0496 -0.2570
59767W        W 2680   0.378  12.739   6.615 -0.2814 -0.2898 -0.2804
59768W        W 2681  13.522  20.823   8.613 -0.1674 -0.2460 -0.0163
59769W        W 2682  33.979  17.178   3.951  0.0264  0.1326  0.0773
59770W        W 2683   4.559   3.500   6.589 -0.0435  0.3163 -0.0074
59771W        W 2684   3.520   7.727   7.127 -0.2310 -0.2352 -0.3337
59772W        W 2685  31.533  12.635   0.024  0.0403  0.2043 -0.3276
59773W        W 2686  25.605  14.429   4.893  0.0700 -0.0474 -0.1741
59774W        W 2687   3.614   5.686   2.286 -0.1069  0.0176  0.1267
59775W        W 2688  29.257  11.109   8.993 -0.3695 -0.0035 -0.1792
59776W        W 2689   0.511   0.350  11.498  0.0595 -0.2582  0.0041
59777W        W 2690   1.735   6.428   2.285 -0.1214 -0.1077 -0.1297
59778W        W 2691   3.377   2.106  10.092  0.2870  0.2024  0.1801
59779W        W 2692  11.606   5.687  12.297  0.1443  0.3637 -0.2499
59780W        W 2693   2.206  17.925   7.172  0.1502 -0.1175  0.1528
59781W        W 2694  23.623   8.871   7.984 -0.1310 -0.0466 -0.0213
59782W        W 2695   2.655   3.945   2.980 -0.1872 -0.2857  0.0042
59783W        W 2696   5.251  14.583   2.453 -0.0745 -0.4808 -0.2120
59784W        W 2697   7.374   7.850   9.985  0.2215  0.2411  0.1384
59785W        W 2698  34.030  24.454   4.746 -0.0491 -0.2136 -0.1004
59786W        W 2699  24.775  22.585   3.230  0.1537  0.2225 -0.0952
59787W        W 2700   7.134   3.121  11.866  0.1885  0.2303  0.1205
59788W        W 2701   5.150  13.880   4.616 -0.1017  0.0368 -0.0794
59789W        W 2702   3.094  14.943   9.585  0.1864 -0.1531 -0.3483
59790W        W 2703  33.255   1.794   1.060  0.1736  0.0554  0.0686
59791W        W 2704  25.715  13.193   7.374 -0.1365  0.0759  0.0965
59792W        W 2705   1.988  13.837   5.598  0.3099 -0.2505  0.0488
59793W        W 2706   7.271  10.877   6.219 -0.1500 -0.0503 -0.1410
59794W        W 2707  30.725   9.353   5.637 -0.3149  0.0834  0.3516
59795W        W 2708  33.142  19.874   8.371 -0.0553  0.2163 -0.1104
59796W        W 2709  27.837  14.579   9.488  0.0777 -0.1483 -0.1531
59797W        W 2710   4.973  15.292   5.345 -0.3510  0.1453 -0.2441
59798W        W 2711  33.616   9.403   9.461 -0.0204  0.1453  0.1378
59799W        W 2712  27.641  23.957   0.181 -0.5097  0.3053 -0.1071
59800W        W 2713   1.312  10.312   7.548  0.3415  0.1312  0.2234
59801W        W 2714   6.858  13.541   8.057 -0.1717  0.0216  0.0077
59802W        W 2715   7.872  13.452   5.039  0.0423 -0.1499 -0.0472
59803W        W 2716   4.731  21.115   6.906  0.0955  0.4535 -0.0872
59804W        W 2717  34.244   8.468  23.718 -0.1146 -0.1281  0.2678
59805W        W 2718  23.913  11.390   9.134 -0.2588  0.1815 -0.1170
59806W        W 2719   8.169  27.797   6.903  0.1379  0.0370  0.0570
59807W        W 2720   5.968   3.517  13.324 -0.1339 -0.0114  0.1317
59808W        W 2721   3.378  10.938  25.146  0.0058 -0.0734  0.3421
59809W        W 2722   1.303   9.480   6.394  0.0017  0.2328  0.1208
59810W        W 2723   8.436  13.270   1.748 -0.3436 -0.0146  0.0113
59811W        W 2724  30.432  17.399   4.058 -0.0158  0.3449 -0.2577
59812W        W 2725  33.432  18.543   6.840  0.0286  0.2256  0.1381
59813W        W 2726   0.646  13.655   6.648  0.0740 -0.1100  0.0034
59814W        W 2727  33.018  14.007   7.987 -0.0116 -0.2834  0.2175
59815W        W 2728  24.798  16.506   6.821  0.0939 -0.2374 -0.0609
59816W        W 2729  30.141  17.169   0.485  0.1116  0.1932 -0.1428
59817W        W 2730   7.431  10.522   8.493 -0.3144 -0.2910 -0.2006
59818W        W 2731   2.181  14.633   3.828 -0.2368 -0.1331 -0.2105
59819W        W 2732  28.585  18.064   3.396 -0.0977 -0.0428  0.0504
59820W        W 2733   2.947  14.194   8.682  0.1574  0.0055 -0.2602
59821W        W 2734   2.352  28.590  28.427 -0.0853  0.1295 -0.1839
59822W        W 2735   3.639   5.960  11.818  0.1869  0.2027 -0.0979
59823W        W 2736   1.513  11.865  27.936 -0.0092  0.1506  0.0262
59824W        W 2737   3.756   7.740   0.046  0.3289 -0.0913 -0.2243
59825W        W 2738  29.499  23.023   8.725  0.1591 -0.0642  0.1903
59826W        W 2739  31.877  15.770   2.632  0.0616  0.2082 -0.1446
59827W        W 2740   1.264  10.581   0.695  0.3780  0.5145 -0.1397
59828W        W 2741  20.233  11.512   3.218 -0.1676 -0.1483  0.0569
59829W        W 2742  32.839   7.757   6.129 -0.1652 -0.0004  0.2217
59830W        W 2743  27.193  16.513   0.786 -0.1696 -0.1669 -0.1180
59831W        W 2744  33.081  17.329   9.454 -0.2233  0.1136 -0.0210
59832W        W 2745   7.713   5.950  10.896 -0.1565  0.1419  0.0275
59833W        W 2746   5.620  10.206   7.629 -0.0240 -0.1458 -0.3748
59834W        W 2747  27.610   8.112   2.025  0.0493  0.2244  0.0666
59835W        W 2748   1.603  10.379   5.420 -0.1507  0.0298  0.0576
59836W        W 2749  31.792  20.899   5.603 -0.0094  0.1824 -0.0430
59837W        W 2750   5.612   5.807  11.151  0.0014  0.0879 -0.0755
59838W        W 2751   1.609   5.847  11.538 -0.0648 -0.1038 -0.0117
59839W        W 2752   3.575   9.924   0.918 -0.3412  0.2159  0.1248
59840W        W 2753   4.639  18.638   4.585  0.0201 -0.0011  0.3073
59841W        W 2754  29.771   8.061  22.786 -0.0039  0.0851 -0.2509
59842W        W 2755  26.414  11.082   4.863  0.2280  0.1516 -0.1955
59843W        W 2756   1.026   8.762  27.101  0.1450  0.0233  0.0990
59844W        W 2757   3.540  12.459  10.031 -0.1572 -0.0122  0.0771
59845W        W 2758   7.070  15.244   4.622  0.1989 -0.4272 -0.0864
59846W        W 2759  29.121  11.001   6.386  0.4935  0.0703  0.2317
59847W        W 2760   6.659   5.675   2.928  0.2075 -0.2687 -0.0651
59848W        W 2761   1.877  19.653   7.255 -0.1680 -0.0423 -0.0067
59849W        W 2762   3.761  10.047   9.482  0.2338  0.1363 -0.1708
59850W        W 2763   6.569   3.216   6.302  0.0430 -0.0249  0.0417
59851W        W 2764   6.471  13.745   5.200 -0.0824 -0.0087  0.1871
59852W        W 2765   7.568  11.878  10.297  0.1410  0.1393 -0.1277
59853W        W 2766  10.110  12.418   0.086  0.2428  0.0820 -0.1879
59854W        W 2767   8.816   7.399  11.769  0.1992 -0.1540 -0.4311
59855W        W 2768  13.631   9.879   3.420 -0.2507  0.1262 -0.2713
59856W        W 2769  12.884   5.639   2.577  0.1134 -0.2007 -0.0251
59857W        W 2770  30.847  17.982   9.964  0.0498 -0.0727 -0.2476
59858W        W 2771   5.908  22.517   3.326  0.0377 -0.4297 -0.0738
59859W        W 2772  27.276  20.623   3.616  0.1730 -0.0299 -0.1592
59860W        W 2773   9.147  10.946   2.313 -0.3330  0.2358 -0.3010
59861W        W 2774   0.433  13.512   7.674  0.3567  0.2272 -0.3955
59862W        W 2775  26.288  15.298   6.251 -0.2364 -0.0305  0.1676
59863W        W 2776  15.340   6.435   7.663  0.1948  0.2292  0.1172
59864W        W 2777  32.091  22.313   8.839  0.0708  0.0187  0.0613
59865W        W 2778  31.461   6.740   8.105 -0.4646  0.2098 -0.2319
59866W        W 2779   0.489  10.697   4.976 -0.1850  0.1128 -0.0431
59867W        W 2780   3.611   0.242  12.771 -0.1396 -0.2455 -0.0051
59868W        W 2781  10.364   4.543   5.261  0.1059 -0.1837  0.2177
59869W        W 2782  33.973  12.089   3.498  0.0524 -0.3356  0.1144
59870W        W 2783   8.109  11.031  10.987  0.1693 -0.1283 -0.2290
59871W        W 2784   5.198  15.464   8.876  0.2341 -0.2360 -0.3993
59872W        W 2785  27.482  11.213   0.999  0.3022  0.1641 -0.0280
59873W        W 2786   8.063   7.317   9.817  0.0150 -0.0797 -0.0649
59874W        W 2787   4.788  21.079   2.920 -0.0813  0.1630 -0.1940
59875W        W 2788   0.120  20.564   9.053  0.2663 -0.2654  0.2296
59876W        W 2789  30.790  16.114   9.482  0.1847  0.3097 -0.1739
59877W        W 2790  31.370  17.579   4.966  0.3183  0.0842  0.1104
59878W        W 2791  31.055   7.313   4.655 -0.1207 -0.2683 -0.4125
59879W        W 2792  33.210  10.461   2.806 -0.0566 -0.0935 -0.2389
59880W        W 2793  32.019   3.082   4.060  0.0235  0.0768 -0.0181
59881W        W 2794  13.740  15.963  23.989 -0.1316 -0.3608  0.1119
59882W        W 2795   8.632  17.544   2.441  0.1451 -0.1644 -0.3534
59883W        W 2796   4.922   3.093  10.293 -0.0232 -0.1843  0.1712
59884W        W 2797   2.711  18.924  27.486 -0.1079 -0.1973 -0.0881
59885W        W 2798  34.067  15.444  25.146 -0.2594 -0.0348 -0.0227
59886W        W 2799   4.202   7.647   9.740 -0.0522  0.3713  0.0302
59887W        W 2800  29.138  13.551  26.236 -0.0077  0.2644 -0.1454
59888W        W 2801  27.050  17.769   8.811  0.1533 -0.2029 -0.0113
59889W        W 2802   3.291   9.838   7.699  0.1524  0.0189  0.0239
59890W        W 2803   0.960  14.035   0.184  0.3084 -0.4022 -0.0874
59891W        W 2804   2.752  25.563  10.008 -0.2910  0.1929 -0.0820
59892W        W 2805  32.739  20.116  26.068 -0.2366 -0.0834  0.2858
59893W        W 2806   3.840   8.873   3.267  0.1313  0.0962  0.1139
59894W        W 2807   9.315  10.280   6.613  0.4652 -0.2585  0.2958
59895W        W 2808   0.612   9.658   7.131  0.2193  0.4062 -0.0730
59896W        W 2809   4.171   9.254   6.594  0.3183 -0.2950 -0.2724
59897W        W 2810   7.441  19.148   6.088 -0.4639 -0.1547  0.0860
59898W        W 2811   6.825  22.519   2.359 -0.1297 -0.0716  0.1924
59899W        W 2812   4.733   6.015   1.370  0.1792 -0.0578  0.1553
59900W        W 2813   2.004   6.518   5.888 -0.1405 -0.1808 -0.1846
59901W        W 2814  25.039  21.486   3.483  0.3351 -0.2475 -0.3337
59902W        W 2815   6.603  13.880   9.202  0.0532  0.3516  0.0278
59903W        W 2816   4.397  12.112   3.444 -0.1069  0.1176 -0.0813
59904W        W 2817   4.073   2.875   9.445 -0.3879 -0.1299  0.0129
59905W        W 2818  27.736  15.221   2.949  0.0569  0.2358 -0.1034
59906W        W 2819  13.579   7.207   4.613  0.1829 -0.0704 -0.2024
59907W        W 2820  20.351  19.415   4.880  0.1108  0.0733  0.2082
59908W        W 2821   7.187  11.061   9.214  0.0205  0.2076  0.1348
59909W        W 2822  31.068   4.858   4.190 -0.0586 -0.0310  0.1594
59910W        W 2823  26.398   5.144   3.335 -0.2018 -0.1100 -0.2076
59911W        W 2824   4.700  17.060   2.241 -0.2142  0.1560 -0.1475
59912W        W 2825  31.768   0.563   2.539 -0.4185 -0.1146  0.2946
59913W        W 2826   5.348   7.666   8.146 -0.0908 -0.2856 -0.0407
59914W        W 2827   1.437   8.825   1.860  0.2056 -0.1492  0.0532
59915W        W 2828  34.209  20.769   4.792 -0.1032 -0.3982  0.0966
59916W        W 2829  30.443  14.583   4.798 -0.2762 -0.1195 -0.0696
59917W        W 2830   6.898   2.979   7.858  0.3302  0.2538  0.1662
59918W        W 2831   0.853  31.764   1.564  0.0381 -0.2722 -0.3798
59919W        W 2832   0.003   2.396   9.122  0.0826 -0.1529 -0.5104
59920W        W 2833   5.423  12.855   6.084 -0.3863  0.0816  0.0175
59921W        W 2834   6.970  12.158   8.394  0.0478 -0.1349 -0.1013
59922W        W 2835  32.069  33.919   5.004  0.1087  0.0468 -0.3005
59923W        W 2836   3.747   1.717   6.412 -0.1313 -0.1136  0.0017
59924W        W 2837  22.079  18.848   0.669  0.1817  0.1185  0.2534
59925W        W 2838   4.315   8.170  12.823  0.4135  0.1643 -0.1238
59926W        W 2839  27.672  11.887   2.490  0.1129 -0.2388  0.3104
59927W        W 2840   0.985   7.903   2.052 -0.0641  0.2054 -0.0722
59928W        W 2841   0.148  18.277   7.321 -0.0708  0.0037 -0.1415
59929W        W 2842   0.451  27.789   5.905  0.1149 -0.0905 -0.0512
59930W        W 2843   5.644  12.095   9.878  0.0806  0.0909 -0.1831
59931W        W 2844  32.446  13.261   9.530  0.1019 -0.3144 -0.2880
59932W        W 2845  33.244   6.166   6.031  0.0253  0.0059 -0.0843
59933W        W 2846   6.765  11.192   8.258  0.1012 -0.0008  0.1566
59934W        W 2847  15.048  14.150   5.015  0.2310  0.3013 -0.1752
59935W        W 2848  31.899  15.229  10.177  0.1127  0.2045  0.0358
59936W        W 2849   4.290   4.303  28.367  0.2621  0.0257 -0.0100
59937W        W 2850  26.973  11.506   4.036 -0.0975  0.0780 -0.2060
59938W        W 2851  31.866   4.458   9.132  0.0155  0.0557  0.0574
59939W        W 2852   4.740   6.619  12.207 -0.2959 -0.3962  0.0308
59940W        W 2853   2.499  17.369   9.406  0.0547  0.1535  0.1945
59941W        W 2854  12.698  18.157  23.283  0.1476  0.1525 -0.2090
59942W        W 2855   5.153  10.993   9.597  0.1640  0.0062 -0.3515
59943W        W 2856  31.396   9.806   1.021  0.1916 -0.1029 -0.0297
59944W        W 2857   5.651   5.037  12.374 -0.0687  0.2308  0.1775
59945W        W 2858   3.877  20.252  10.164 -0.2033  0.0546  0.2431
59946W        W 2859  18.928  20.904  22.001  0.0828  0.0064  0.0012
59947W        W 2860  33.096  17.509   5.763 -0.1194  0.1897 -0.0178
59948W        W 2861  26.071  14.996   9.158  0.0439  0.0552 -0.0422
59949W        W 2862  34.084   8.388   4.067 -0.1069  0.0580  0.3007
59950W        W 2863   0.027   9.522  10.364  0.0321  0.0756  0.1032
59951W        W 2864  31.849  15.106  24.822 -0.0263 -0.0327  0.2293
59952W        W 2865  15.847   6.027   4.634 -0.0334 -0.2207 -0.1413
59953W        W 2866  34.065   7.224   9.693  0.0286  0.3423 -0.0537
59954W        W 2867  32.817  28.802   8.583  0.3235  0.3459  0.0466
59955W        W 2868  30.894  16.218   6.601  0.4996  0.0894  0.1656
59956W        W 2869  32.144   5.701  25.652  0.0110  0.3017  0.0999
59957W        W 2870  13.016  14.286  19.790  0.1608  0.0750  0.1828
59958W        W 2871   6.745  29.236  17.715 -0.2002 -0.1718 -0.1096
59959W        W 2872  23.060  17.325  23.219 -0.1740  0.0989  0.1433
59960W        W 2873  29.894  20.876   0.705  0.3581  0.1105  0.0926
59961W        W 2874  12.197  20.027   6.700  0.1120  0.2333  0.1143
59962W        W 2875   8.706  31.385  11.206  0.2600 -0.1987  0.1145
59963W        W 2876   1.898  19.303  29.700 -0.2037  0.0670  0.0216
59964W        W 2877  31.876  13.021   0.652 -0.0014  0.3153  0.1005
59965W        W 2878  31.794  14.046   2.420 -0.0251 -0.2132  0.1270
59966W        W 2879  10.235  13.571  23.608  0.4300 -0.3270  0.1453
59967W        W 2880  24.607  18.791  23.017  0.0866 -0.0414  0.2122
59968W        W 2881   3.534  18.442   2.495 -0.0939 -0.0792  0.1738
59969W        W 2882  24.263  17.730  27.176  0.2288 -0.2916  0.4464
59970W        W 2883  29.082   8.837  24.930 -0.0553 -0.0573 -0.2805
59971W        W 2884  32.416  28.632   8.160  0.3772 -0.1186 -0.3542
59972W        W 2885  13.944  14.972  23.580 -0.1571 -0.6117 -0.0051
59973W        W 2886  32.126  15.927   4.204 -0.0645  0.1867 -0.2166
59974W        W 2887  30.486  28.562   2.161 -0.2870  0.3919  0.0909
59975W        W 2888   0.447  23.464   4.891 -0.1991 -0.1431 -0.1864
59976W        W 2889  33.508  27.317   9.843  0.0753  0.1602  0.0118
59977W        W 2890   2.192  18.553   8.202  0.3023  0.2072 -0.0436
59978W        W 2891  22.370  21.177   6.451 -0.4291 -0.1479 -0.1664
59979W        W 2892   2.317  13.308  10.037 -0.0031 -0.1782  0.0724
59980W        W 2893   9.330   8.002  28.520  0.3059  0.4292  0.0890
59981W        W 2894  31.156  19.223   2.176 -0.2730 -0.2048  0.0349
59982W        W 2895  18.628   6.726  24.497  0.0463  0.1216  0.4027
59983W        W 2896  11.006  23.067   3.460  0.0129 -0.0068 -0.2421
59984W        W 2897   3.743  20.721  19.881 -0.3531  0.2888 -0.2917
59985W        W 2898  34.166  17.202   2.586 -0.2573 -0.1955  0.0197
59986W        W 2899  32.550  18.173  21.233 -0.0760  0.0222  0.0717
59987W        W 2900  29.138  14.675   4.896  0.3641 -0.1510  0.1201
59988W        W 2901  33.704  22.781   0.239  0.1368 -0.1314 -0.0936
59989W        W 2902  10.451  25.215  22.232  0.0327 -0.0574 -0.0009
59990W        W 2903   8.056   4.090  24.909 -0.1398  0.0075 -0.0649
59991W        W 2904  29.806  13.348   4.785 -0.0935 -0.0639  0.1175
59992W        W 2905  28.058   4.558   3.780  0.1007 -0.0281  0.1677
59993W        W 2906  27.629  23.877  29.200  0.3428  0.1725 -0.1013
59994W        W 2907   1.886  18.548   6.809 -0.1546  0.1740 -0.2300
59995W        W 2908  13.649   9.244   0.440 -0.1069 -0.0199  0.6473
59996W        W 2909  28.851  16.343   4.162  0.0726  0.0092 -0.1462
59997W        W 2910   0.730  18.817   4.375 -0.1535 -0.0348 -0.1176
59998W        W 2911  10.600  19.043  22.051  0.0120  0.1194  0.0133
59999W        W 2912  24.051  14.073   9.190 -0.0499  0.3379  0.0671
60000W        W 2913   3.060  17.113   2.506  0.0115 -0.1323  0.2337
60001W        W 2914   7.979  13.865   5.798 -0.0396 -0.3279  0.0594
60002W        W 2915  30.666  20.162  25.933 -0.1782 -0.0488 -0.1973
60003W        W 2916  16.445  28.189  23.397 -0.3985 -0.2824 -0.0922
60004W        W 2917  33.860  26.106  26.678 -0.3733  0.3259 -0.2252
60005W        W 2918   7.800  11.551  28.826 -0.1628  0.3383 -0.0106
60006W        W 2919   7.885  13.562   3.496 -0.1435 -0.1102 -0.0368
60007W        W 2920   5.990  13.586   5.177  0.4007  0.0994  0.0665
60008W        W 2921   7.803  21.802   4.893 -0.0517  0.2849 -0.0020
60009W        W 2922   3.303  21.500   4.115 -0.0104 -0.3560 -0.1995
60010W        W 2923  12.898  18.837  22.068 -0.0225  0.0623 -0.4277
60011W        W 2924  33.698  21.753   8.369  0.2883 -0.0359  0.0345
60012W        W 2925  33.744  21.789  25.871  0.2090  0.0297  0.2065
60013W        W 2926  14.449  20.232  27.228 -0.0485 -0.0708  0.0664
60014W        W 2927   1.742  22.408   2.489  0.0449 -0.3019  0.2723
60015W        W 2928   4.286  20.253   7.332  0.2536  0.0586 -0.0425
60016W        W 2929  31.026  20.077   6.870 -0.2099 -0.0436  0.4293
60017W        W 2930  20.383  17.626  22.440 -0.1496  0.3967 -0.1292
60018W        W 2931   9.564  28.366   1.546  0.1565  0.0747  0.4253
60019W        W 2932   2.284  13.015   3.068  0.1894  0.1339 -0.0847
60020W        W 2933  14.338  18.501  29.102  0.0218  0.2939 -0.2953
60021W        W 2934  31.936  21.035  23.924 -0.1208 -0.2905 -0.1171
60022W        W 2935  19.350  20.621   1.651 -0.1651 -0.1188 -0.0679
60023W        W 2936   2.563  31.212   3.421 -0.1267  0.2342 -0.1871
60024W        W 2937  11.210  16.406  24.261  0.0710  0.2502  0.2052
60025W        W 2938   3.429  16.475  26.566 -0.2115  0.3426 -0.1751
60026W        W 2939   0.530  26.061   2.405 -0.3994 -0.1997  0.3055
60027W        W 2940   3.516   3.923  24.226  0.1234 -0.0846 -0.0398
60028W        W 2941  10.738  17.706   1.044  0.1043 -0.1032  0.0117
60029W        W 2942  22.463  20.517  24.649  0.3493 -0.2232 -0.2267
60030W        W 2943  32.065  11.097  25.121 -0.1259  0.1589  0.0917
60031W        W 2944   8.105  13.191  10.052 -0.0567  0.2958  0.0790
60032W        W 2945  33.209  18.282   5.472  0.0278  0.0572 -0.1614
60033W        W 2946  34.185  19.595  27.156  0.0290 -0.0058 -0.0225
60034W        W 2947  26.286  11.685   1.344  0.1160 -0.2716  0.2203
60035W        W 2948  11.797  18.004   2.417 -0.1152  0.0106  0.2673
60036W        W 2949  31.935  24.505   5.599  0.1543  0.0546 -0.1388
60037W        W 2950  21.383  21.848  27.276 -0.0514 -0.0966  0.3190
60038W        W 2951  27.750  20.669   3.222  0.1559  0.1308 -0.0938
60039W        W 2952  34.253  12.987  17.758 -0.2877  0.0205 -0.0603
60040W        W 2953  31.420   5.921  19.117 -0.1036  0.1046 -0.0033
60041W        W 2954   7.997  12.668  21.977 -0.4531 -0.0206 -0.1552
60042W        W 2955  27.450   9.910  27.088 -0.0281 -0.3113  0.1227
60043W        W 2956  14.039  22.942   1.399  0.2342 -0.1838 -0.2969
60044W        W 2957  28.112  13.013   5.299 -0.2390 -0.0705 -0.3218
60045W        W 2958   1.330  13.525  26.909  0.1255  0.2209 -0.2364
60046W        W 2959  32.701   4.909   2.819  0.3240 -0.0212  0.0931
60047W        W 2960  13.963  14.654   1.220  0.2674 -0.0139 -0.1113
60048W        W 2961  34.005  18.655   7.656 -0.1503  0.0585 -0.1417
60049W        W 2962   0.432  16.592  29.434 -0.2012  0.0275 -0.1554
60050W        W 2963   2.485  16.268  27.116 -0.3176 -0.0997  0.0976
60051W        W 2964   4.697  21.441   8.125 -0.2006  0.3630  0.0140
60052W        W 2965   2.728  12.371   5.922 -0.1770  0.1237 -0.1280
60053W        W 2966   1.087   6.433   6.169 -0.3164 -0.0167  0.0943
60054W        W 2967   3.610  27.746  29.131  0.0724  0.1039 -0.2131
60055W        W 2968   1.055  20.276   2.838 -0.1373 -0.2976 -0.0783
60056W        W 2969   1.708  22.096   2.032 -0.0361  0.0097  0.1254
60057W        W 2970  11.526  16.236  25.833 -0.2346 -0.3166  0.0310
60058W        W 2971  12.271  12.667  29.659  0.0717  0.4028 -0.2501
60059W        W 2972  27.126  14.991   7.735 -0.1165 -0.1944  0.1473
60060W        W 2973   4.453  23.035   0.356 -0.0190 -0.3673 -0.1385
60061W        W 2974   0.072  16.950   0.329 -0.2097  0.0640 -0.0734
60062W        W 2975  34.200   9.494   4.565  0.0361 -0.0413 -0.0995
60063W        W 2976   6.072  17.380  29.262 -0.1351  0.0225 -0.0633
60064W        W 2977  31.819   7.883  25.871 -0.2396  0.1151  0.2666
60065W        W 2978   8.354  17.758   8.471 -0.1899 -0.1198 -0.2629
60066W        W 2979   7.059  12.778   0.725  0.0737  0.0642  0.2007
60067W        W 2980   2.582  22.559   0.988  0.0156 -0.0596 -0.3166
60068W        W 2981   4.658  17.770   5.548 -0.1458 -0.0679  0.0032
60069W        W 2982  32.369  14.146   1.304 -0.0873 -0.1243  0.0044
60070W        W 2983  34.151  20.066   5.996 -0.1814  0.0394  0.0499
60071W        W 2984   8.517  18.304   8.118  0.1118 -0.0773  0.2566
60072W        W 2985   7.181  18.959  24.297  0.0882 -0.0716 -0.1857
60073W        W 2986  10.064   8.366   7.711  0.2121 -0.1106 -0.0199
60074W        W 2987   3.623  19.476   4.090 -0.0106  0.0874  0.1659
60075W        W 2988   6.330  23.453  29.639  0.0040 -0.0299  0.0385
60076W        W 2989  28.348  18.350  24.879 -0.0166 -0.2307  0.2255
60077W        W 2990  33.376   4.138  22.104 -0.0817  0.1863 -0.0539
60078W        W 2991   1.455  18.485   8.483 -0.0764  0.3567  0.2014
60079W        W 2992  28.655  10.254   7.664  0.1358 -0.3185 -0.0072
60080W        W 2993  11.059  29.242  28.471 -0.0110  0.2645 -0.1234
60081W        W 2994  17.855  29.613  17.119  0.1913  0.0247 -0.0163
60082W        W 2995  13.849  14.656  20.698  0.2025 -0.0230 -0.1141
60083W        W 2996   4.698   0.466  10.664 -0.1323  0.1991  0.1396
60084W        W 2997   5.820  10.946   2.937 -0.2459 -0.1060 -0.1094
60085W        W 2998  28.137  22.606   6.867  0.4182 -0.3244  0.1669
60086W        W 2999  27.181  20.806   2.392 -0.0422  0.0251  0.2002
60087W        W 3000   8.757  15.024   4.184  0.0394 -0.1489  0.2841
60088W        W 3001   0.415   9.154  29.245  0.0708  0.0637  0.0961
60089W        W 3002  14.181  30.319   5.937 -0.1948 -0.0784  0.1165
60090W        W 3003   7.132  14.130  27.642 -0.2074  0.2108 -0.0917
60091W        W 3004  33.009  16.694   0.313  0.0298 -0.0690  0.0121
60092W        W 3005  28.187  20.692   5.567 -0.1634  0.6391  0.3181
60093W        W 3006   8.621  19.640   7.624 -0.0809  0.3667  0.2704
60094W        W 3007   2.913   3.843   6.452 -0.2255 -0.1592 -0.3730
60095W        W 3008  27.034  33.548   5.040 -0.2384 -0.1214  0.1774
60096W        W 3009  29.963  11.790   0.491  0.1337  0.4154 -0.3101
60097W        W 3010  16.435  19.869  26.312 -0.2025  0.0508 -0.0748
60098W        W 3011  33.988  16.837  27.544  0.1415  0.0812  0.3328
60099W        W 3012   3.314   9.620  27.063 -0.0297 -0.1836  0.1774
60100W        W 3013   6.238  17.751   5.952 -0.3109  0.2239 -0.0802
60101W        W 3014  32.587  22.237  29.134 -0.2037 -0.2228 -0.0487
60102W        W 3015  28.719  16.662  23.160 -0.0601  0.0110  0.0839
60103W        W 3016   1.230  26.419   9.121  0.0364  0.2318 -0.1438
60104W        W 3017   2.421  21.125   5.688  0.1046  0.1081  0.1396
60105W        W 3018  25.583  23.323   1.299 -0.1140  0.0478 -0.0279
60106W        W 3019   8.759  13.915   3.591  0.1658 -0.1234 -0.4185
60107W        W 3020   2.140   9.577   1.423 -0.4238  0.0282  0.1373
60108W        W 3021   6.985  17.329  28.158 -0.0949 -0.4342  0.1146
60109W        W 3022  19.003  13.315   3.498  0.0809 -0.0977  0.0236
60110W        W 3023   6.693  15.282   7.512  0.2097  0.2807 -0.0382
60111W        W 3024   5.883  16.141  29.435 -0.1449 -0.0797 -0.0998
60112W        W 3025  30.744  19.372   5.321  0.0185  0.1806 -0.1566
60113W        W 3026   0.617  14.806  29.770  0.2256  0.0076  0.0220
60114W        W 3027   5.129  33.577   2.986 -0.2350  0.1716  0.1602
60115W        W 3028   5.621  14.042   9.209 -0.0908 -0.2266  0.1086
60116W        W 3029   2.189  23.382   2.216  0.1807  0.2217 -0.0617
60117W        W 3030  30.899   9.778   0.615 -0.0142 -0.2289 -0.3309
60118W        W 3031   8.047  16.781   7.781 -0.1644 -0.0160 -0.1803
60119W        W 3032   4.332  22.700   3.324  0.1910  0.1166  0.0771
60120W        W 3033  34.473  31.250   2.108 -0.3737 -0.1015 -0.0472
60121W        W 3034   6.779   6.976  18.303  0.1062 -0.2321 -0.0308
60122W        W 3035   2.538  17.420   8.431 -0.4057  0.1330  0.0004
60123W        W 3036  33.737  31.196  22.610 -0.0192  0.4741  0.0841
60124W        W 3037  33.921  28.345  27.191  0.2259 -0.1249  0.4013
60125W        W 3038  31.334  17.071   4.972  0.1143 -0.1493 -0.2730
60126W        W 3039  28.787  14.970  20.420 -0.2691  0.1942 -0.1397
60127W        W 3040   7.921  23.764   5.619 -0.2771 -0.1887 -0.2584
60128W        W 3041   6.927  14.477   4.449 -0.2622  0.0978  0.0197
60129W        W 3042   7.985  18.434  27.142  0.4605  0.0269  0.1420
60130W        W 3043  30.067  17.464   3.709 -0.1156  0.0009 -0.0605
60131W        W 3044  24.718  22.322   0.478  0.3608  0.0018 -0.1938
60132W        W 3045  30.742  16.551   4.524 -0.1927  0.0458 -0.0511
60133W        W 3046  31.013  11.916   7.970  0.2108  0.2061 -0.0526
60134W        W 3047  25.345   6.733   3.228 -0.0676  0.2189  0.1475
60135W        W 3048   7.295  11.961  10.696 -0.2350 -0.3704 -0.0368
60136W        W 3049   7.037   7.789  27.189  0.1708 -0.1109 -0.1506
60137W        W 3050  32.597  23.557  28.818 -0.0651 -0.0736  0.0624
60138W        W 3051  34.175  23.798  24.159 -0.4546 -0.0819 -0.0911
60139W        W 3052  25.987  18.111  29.064 -0.0910  0.1132  0.1870
60140W        W 3053  29.361  19.212  28.945  0.1584 -0.1164  0.1277
60141W        W 3054  24.926  15.252  24.472  0.2564  0.0280  0.2838
60142W        W 3055   5.740  16.899   8.523  0.0482  0.0248  0.3555
60143W        W 3056   1.780  17.817  25.231  0.0431 -0.0133  0.1317
60144W        W 3057   8.271  22.005   1.809  0.0401 -0.0374  0.0524
60145W        W 3058   9.120  11.876   5.451 -0.3089  0.1888 -0.0732
60146W        W 3059   3.008   6.484   0.071 -0.0147 -0.2648 -0.0262
60147W        W 3060   3.351   5.982  10.496  0.3751 -0.0504  0.2764
60148W        W 3061   4.515  12.357  22.570  0.0571 -0.3261 -0.1230
60149W        W 3062   0.904  11.892  15.916 -0.0308 -0.2099 -0.2910
60150W        W 3063   3.224  14.167   0.521 -0.0996 -0.1924 -0.3456
60151W        W 3064   6.999  11.575  23.636  0.1892 -0.3779  0.2658
60152W        W 3065  30.032  19.402  29.600  0.0744  0.0436  0.4586
60153W        W 3066   5.770  11.375   9.354  0.2519 -0.2131  0.0126
60154W        W 3067  30.094   7.234  19.509 -0.0658  0.1504 -0.4155
60155W        W 3068  33.284  32.729  25.939 -0.3317  0.1085 -0.2581
60156W        W 3069  25.961  17.439  28.458 -0.0457 -0.1873  0.3028
60157W        W 3070   6.682  13.732   1.975 -0.1022  0.1254 -0.2219
60158W        W 3071  22.620  17.609  29.347 -0.3259 -0.1489  0.0433
60159W        W 3072   7.228  19.736   5.791  0.0423  0.1483  0.3243
60160W        W 3073   4.250  20.158   8.742  0.1675  0.2197 -0.0913
60161W        W 3074   7.679  13.404   2.291  0.1538 -0.0866  0.0954
60162W        W 3075  31.565  21.894   3.498  0.0966  0.1570  0.4257
60163W        W 3076   4.468  18.643   5.974  0.0227 -0.2196 -0.2043
60164W        W 3077   9.953  11.710   5.633  0.0678 -0.1483 -0.2407
60165W        W 3078  28.807  19.828   1.453 -0.0094 -0.0669 -0.2214
60166W        W 3079   7.252  12.288   0.578 -0.0487 -0.2201 -0.1059
60167W        W 3080   0.243  27.893   7.400 -0.0353 -0.1406  0.0168
60168W        W 3081  10.443  18.618   2.668 -0.0334 -0.2369  0.0132
60169W        W 3082  25.494  18.018   7.771 -0.0740  0.0485 -0.2019
60170W        W 3083  31.666  16.751  24.415 -0.1351  0.1287 -0.1449
60171W        W 3084   8.570   7.600   5.500 -0.0217  0.1215  0.0039
60172W        W 3085  25.804  16.680  28.995 -0.1955  0.3616  0.1449
60173W        W 3086   3.073   4.676  25.564 -0.1978 -0.0765 -0.0985
60174W        W 3087   6.431  26.026   2.238  0.3265  0.0282  0.0981
60175W        W 3088   1.025   2.116   8.723 -0.0136 -0.1517  0.1699
60176W        W 3089   8.111  19.413   2.244  0.0341 -0.2072 -0.0928
60177W        W 3090  12.859   9.281  24.154  0.1263 -0.3859 -0.1287
60178W        W 3091   4.976  11.691   1.508 -0.1602  0.1584 -0.0501
60179W        W 3092   5.642  11.935  20.611  0.2144  0.0325 -0.0398
60180W        W 3093   0.861  16.539   5.460  0.0837  0.1048 -0.0768
60181W        W 3094  29.202  17.712   4.511 -0.1647  0.1690  0.0020
60182W        W 3095  33.941  15.013  22.721  0.2990 -0.1344  0.2247
60183W        W 3096  33.823  11.262   3.306  0.0193  0.2906  0.1456
60184W        W 3097   3.928  15.897   3.652 -0.1839  0.0672 -0.1136
60185W        W 3098  30.937   7.504  24.830  0.2288  0.2748  0.1809
60186W        W 3099  25.584   9.370   0.028  0.0868  0.1115  0.2258
60187W        W 3100  30.510  11.754  28.019 -0.5908  0.0089 -0.0340
60188W        W 3101  30.121  14.669  18.176  0.2838  0.2782 -0.2057
60189W        W 3102   6.015   5.209  29.693 -0.0027  0.3580  0.0485
60190W        W 3103   1.236  20.069  29.717 -0.0981 -0.1354 -0.1895
60191W        W 3104   4.245  16.096  25.490 -0.0935  0.1989  0.1334
60192W        W 3105  25.885   5.258   4.142 -0.0219  0.2542  0.0828
60193W        W 3106   2.334  22.046   7.504 -0.2098 -0.0069 -0.3434
60194W        W 3107  27.005  18.195  23.473 -0.3948  0.0676  0.1204
60195W        W 3108   1.363  15.601   5.514  0.1047 -0.0121 -0.0515
60196W        W 3109   1.743  25.888   3.666 -0.0537  0.0197  0.1311
60197W        W 3110   4.693   4.987  29.174  0.5248 -0.2136  0.0387
60198W        W 3111   1.424  21.541   0.663 -0.0421 -0.0080  0.1391
60199W        W 3112  29.984   7.238   1.136 -0.1300 -0.1107 -0.0906
60200W        W 3113   9.453  11.243  29.463 -0.1636 -0.1711  0.1848
60201W        W 3114  25.779  21.212   4.718  0.0444  0.0851  0.0496
60202W        W 3115  10.064  21.865  23.466 -0.1622 -0.0091  0.1931
60203W        W 3116  31.617  12.923   6.985  0.0573  0.0727 -0.2643
60204W        W 3117  13.753  16.953   3.782 -0.1397 -0.3151 -0.0118
60205W        W 3118  28.896  17.789   0.531 -0.0793  0.0369 -0.0284
60206W        W 3119  33.071   6.031  10.055 -0.2970  0.2151  0.0019
60207W        W 3120  26.700  26.010   1.418  0.0008  0.0078 -0.1090
60208W        W 3121   1.289  16.400   1.956  0.3877  0.0665  0.1152
60209W        W 3122  25.684  19.927  26.695  0.0099  0.0146  0.2393
60210W        W 3123   2.202  15.439   2.120  0.1752 -0.0777 -0.1114
60211W        W 3124  28.856  17.308  23.245  0.0694 -0.0025  0.0063
60212W        W 3125  10.249  14.392  21.930  0.2302 -0.0465 -0.0623
60213W        W 3126   7.408  27.196  27.896 -0.0353  0.1616 -0.2879
60214W        W 3127   8.880  11.755  10.156  0.0849  0.3191 -0.2133
60215W        W 3128   5.158  11.388   0.465  0.2556 -0.0943 -0.1819
60216W        W 3129   5.823  13.299   3.011 -0.0869 -0.2774  0.2163
60217W        W 3130  10.470  11.430  27.170  0.4630 -0.0510 -0.0293
60218W        W 3131  33.211  15.582   1.629  0.3068  0.2872 -0.2288
60219W        W 3132   9.209   9.859   2.269  0.3584 -0.0971  0.1825
60220W        W 3133  21.908   7.444  22.245 -0.0130 -0.0855 -0.0038
60221W        W 3134   0.320  10.476  25.600  0.2095  0.0437 -0.1706
60222W        W 3135   4.496  26.860  18.735  0.1041 -0.1010  0.1596
60223W        W 3136  32.121  12.668  24.077  0.0751  0.0616  0.1001
60224W        W 3137   6.925   9.813   0.036  0.0115  0.2373  0.2547
60225W        W 3138   0.982  23.245   2.646 -0.1886  0.0484 -0.1281
60226W        W 3139   4.990  22.535  26.855  0.1508  0.2400 -0.2019
60227W        W 3140  31.880  20.319   8.103 -0.0943 -0.1751 -0.0323
60228W        W 3141   7.915  17.864   4.292 -0.0553 -0.2876 -0.0282
60229W        W 3142  33.520  10.360  24.208  0.3505 -0.0591  0.0553
60230W        W 3143   5.883  18.443  22.180  0.1624 -0.2791  0.4296
60231W        W 3144   9.714  12.203   4.266 -0.0900  0.0566 -0.2005
60232W        W 3145   6.056  17.409  25.975 -0.1174 -0.0272  0.1050
60233W        W 3146   0.669   2.756   9.017  0.1341 -0.1521 -0.1849
60234W        W 3147  30.682  22.158  16.385 -0.0307  0.0788 -0.1600
60235W        W 3148  24.123  13.196   3.533 -0.3851 -0.1009 -0.1705
60236W        W 3149  21.142  25.066   5.407  0.0279  0.0507 -0.0039
60237W        W 3150   1.998  19.286   7.615  0.1065  0.1436 -0.0488
60238W        W 3151  32.127  24.229   3.090  0.1679 -0.0370  0.0454
60239W        W 3152   5.525  25.070   6.640  0.3456  0.0901  0.0732
60240W        W 3153  26.039  19.083   7.550 -0.1872 -0.1569  0.1285
60241W        W 3154   0.566  22.762   2.446 -0.3562  0.0496 -0.0141
60242W        W 3155  31.980  21.279   4.671  0.0126 -0.0506  0.2582
60243W        W 3156   6.385  17.000  24.800 -0.3256  0.2342 -0.0152
60244W        W 3157   0.644  20.159   4.437  0.0603 -0.1013  0.1061
60245W        W 3158   3.869  14.958  15.919  0.1933  0.2357  0.0409
60246W        W 3159   6.388   6.724   3.086 -0.2186  0.1039 -0.0589
60247W        W 3160  13.895  24.881  10.457  0.0119  0.7649  0.0871
60248W        W 3161  22.972  25.931   8.390  0.0342 -0.0486 -0.1306
60249W        W 3162   5.492  27.055   9.737  0.3654  0.0731  0.2180
60250W        W 3163   1.984  12.990  29.370  0.1243  0.0591 -0.0079
60251W        W 3164  28.575   6.451  26.169  0.1417 -0.1158  0.1844
60252W        W 3165   6.585  26.530  28.796  0.1122 -0.3158  0.3279
60253W        W 3166  13.279  16.443  23.006  0.0367  0.2037 -0.0593
60254W        W 3167   6.680  14.741  25.627 -0.2750  0.1156  0.2673
60255W        W 3168  25.966  13.567   3.135 -0.0863 -0.1461  0.0684
60256W        W 3169  21.616  16.928  24.444 -0.0492  0.3692  0.5786
60257W        W 3170  10.769  10.627   4.794 -0.2221  0.0736  0.2636
60258W        W 3171   3.522  17.873  22.912 -0.1068 -0.2679  0.0698
60259W        W 3172  13.631  19.752   3.940 -0.1573 -0.2688  0.0996
60260W        W 3173   6.064  32.431  19.182  0.0456  0.1766 -0.0557
60261W        W 3174  31.884   6.741  26.749  0.2428 -0.3441  0.0028
60262W        W 3175   8.482   3.710   5.482  0.2561 -0.1744  0.1588
60263W        W 3176  17.223   9.058  29.142  0.1768 -0.2046 -0.2431
60264W        W 3177   5.818  17.656   7.394  0.0230 -0.3381  0.1459
60265W        W 3178   5.237  17.754   3.030  0.3421  0.0256 -0.1339
60266W        W 3179   4.373  15.656   1.070 -0.0142  0.1410  0.0023
60267W        W 3180   9.554  26.352  23.241  0.0230 -0.2675  0.1760
60268W        W 3181   3.599  16.440   6.979 -0.0632 -0.1884 -0.1260
60269W        W 3182   4.953  13.233  27.142  0.1588 -0.0512 -0.3293
60270W        W 3183  11.609  13.533   2.887  0.2619 -0.4307  0.0087
60271W        W 3184  29.315   7.323  10.497 -0.1090 -0.0097  0.0293
60272W        W 3185   3.565   6.816  29.371  0.0328  0.0120 -0.0859
60273W        W 3186   0.366  13.715   8.097 -0.0821 -0.1261  0.0907
60274W        W 3187   4.084  19.704   7.136 -0.0960  0.4403 -0.0145
60275W        W 3188   0.979  14.396   7.967  0.3164 -0.0329 -0.0488
60276W        W 3189  32.522  10.185  24.064 -0.1683 -0.1301 -0.1156
60277W        W 3190   9.308  11.063   4.710 -0.0481  0.2496 -0.0522
60278W        W 3191   6.943  25.406   2.699 -0.2325 -0.0852  0.0848
60279W        W 3192   4.455   7.083   0.492  0.1163  0.0433 -0.1424
60280W        W 3193  29.268  18.119   5.971 -0.0538 -0.0298  0.3437
60281W        W 3194  33.208  17.218   2.979  0.1272 -0.1772  0.3438
60282W        W 3195  31.418  11.858  28.120  0.0515  0.1230 -0.1858
60283W        W 3196  30.467   4.119   4.207 -0.0929  0.2223 -0.2138
60284W        W 3197   0.248   9.183   1.531  0.0103 -0.1552  0.1316
60285W        W 3198   0.829  21.518   8.323 -0.0286 -0.1311 -0.2444
60286W        W 3199   1.356  20.610  29.675  0.0775  0.0614  0.0234
60287W        W 3200   2.960  12.610   0.184 -0.2142 -0.4970 -0.0231
60288W        W 3201  31.049   2.773  24.248 -0.2258  0.3754  0.1974
60289W        W 3202   1.181  17.513   8.690  0.2635  0.1890  0.2791
60290W        W 3203   2.831  18.148   2.621  0.0446  0.4341 -0.1239
60291W        W 3204  24.384  21.071  23.666  0.2791  0.2098  0.1046
60292W        W 3205  15.273   5.587  26.832 -0.2332  0.2498 -0.0278
60293W        W 3206  26.879  26.055   2.847  0.2126 -0.2497  0.1062
60294W        W 3207  30.089  18.095   5.701  0.0387  0.2146 -0.3040
60295W        W 3208  11.522  16.928  19.152 -0.0148 -0.2112  0.5392
60296W        W 3209  34.458  15.652   1.516 -0.0703 -0.0879  0.0886
60297W        W 3210  14.351  21.110   4.286 -0.3006  0.0204 -0.2492
60298W        W 3211  31.169  12.294   4.024 -0.0620  0.1899 -0.2992
60299W        W 3212  33.543   3.607   2.624 -0.3093 -0.1724  0.2129
60300W        W 3213   0.632  12.104   4.294  0.1501 -0.2984  0.0288
60301W        W 3214  30.536   8.895  27.257 -0.1185  0.0152 -0.0629
60302W        W 3215  25.960   7.328   8.472  0.5247  0.3184  0.0248
60303W        W 3216  31.127  30.354  23.323  0.1676  0.0856 -0.0124
60304W        W 3217   0.805  14.347  25.407  0.1293 -0.0053 -0.5246
60305W        W 3218   0.812  22.421   1.774 -0.0661  0.1013  0.0561
60306W        W 3219  32.339  11.296   1.347 -0.0109 -0.0979 -0.0203
60307W        W 3220   5.591  21.747   7.018 -0.0343  0.0083  0.0621
60308W        W 3221  24.478  14.300   5.701  0.2605  0.0562 -0.3946
60309W        W 3222   3.511  20.191   6.023  0.0954 -0.3128  0.0362
60310W        W 3223   1.827  17.995  27.829 -0.0484  0.2918 -0.2256
60311W        W 3224   7.573  14.835   1.990 -0.0282  0.3390  0.3290
60312W        W 3225   8.135  11.663   5.602  0.1824 -0.2043  0.2990
60313W        W 3226  33.689  11.067   8.256  0.2167  0.1935  0.2839
60314W        W 3227   3.634   3.724   6.707 -0.0733 -0.0228  0.4364
60315W        W 3228  30.848   7.855  29.282  0.0214 -0.3593  0.2059
60316W        W 3229  31.115  12.594  29.546  0.1246 -0.2507  0.0183
60317W        W 3230  30.584  14.599   6.997  0.3255 -0.0770  0.0112
60318W        W 3231   6.233   7.626   6.631  0.2634 -0.1387 -0.0800
60319W        W 3232  21.544  11.620   0.930  0.1948 -0.3077  0.1462
60320W        W 3233  12.468   9.967   0.643 -0.0976  0.0778 -0.0845
60321W        W 3234  34.261  14.050  27.951  0.1455  0.1217 -0.0953
60322W        W 3235   6.257   8.384   3.889 -0.0072  0.1549 -0.4252
60323W        W 3236  33.448  25.675   3.730 -0.1438 -0.0866 -0.0966
60324W        W 3237   9.854  11.200   7.548 -0.1598 -0.1079  0.1889
60325W        W 3238   6.162   7.668   4.285  0.2544  0.0955  0.1512
60326W        W 3239   3.273  26.541   2.289  0.4911  0.2918  0.1998
60327W        W 3240   5.119  14.973   0.082  0.2220 -0.1067  0.2194
60328W        W 3241   3.606  11.335   8.490  0.1653  0.1305  0.1096
60329W        W 3242   6.559  12.131   2.793 -0.3081 -0.2361  0.0611
60330W        W 3243   1.505  27.969  22.575 -0.0549  0.3500  0.0324
60331W        W 3244  18.939  15.024  28.708  0.3527 -0.0928 -0.0815
60332W        W 3245   7.932  12.955  29.609  0.2474  0.1671  0.1058
60333W        W 3246   0.096  18.390   4.229  0.2624 -0.1328 -0.1759
60334W        W 3247  30.475  26.480  29.568 -0.1336  0.0571  0.1293
60335W        W 3248  31.472  21.086  28.879 -0.1180 -0.1034 -0.1387
60336W        W 3249  12.261  21.557   7.911 -0.2363 -0.2309  0.3430
60337W        W 3250  25.550   9.842  27.833  0.0490  0.2193 -0.0705
60338W        W 3251   0.246  24.968   3.040 -0.0325 -0.0442 -0.0339
60339W        W 3252   3.899  23.966   6.194  0.2131 -0.1592 -0.1029
60340W        W 3253  31.973  24.256  21.771  0.1824  0.0230 -0.0643
60341W        W 3254  28.729  17.539   5.492 -0.1272 -0.1752 -0.5204
60342W        W 3255  33.492  22.084   1.367 -0.0680 -0.0103 -0.3199
60343W        W 3256   1.483  12.939   3.064  0.3716 -0.0164 -0.0197
60344W        W 3257  29.878  25.330   2.839  0.2060  0.0769  0.0998
60345W        W 3258   9.090  20.920   8.239 -0.2838 -0.0129  0.0697
60346W        W 3259  28.777  14.396  28.502 -0.0572  0.1055 -0.1406
60347W        W 3260  26.734   6.272   4.594  0.4200 -0.0387 -0.2576
60348W        W 3261  30.551  22.006  22.113 -0.1333  0.1720  0.3580
60349W        W 3262  31.782  23.102  28.799  0.0645 -0.1907 -0.1301
60350W        W 3263   0.442   8.095  29.377  0.1804  0.3317 -0.1332
60351W        W 3264  29.931   8.790  26.482  0.0934 -0.0775  0.0991
60352W        W 3265   5.718  18.763  28.750 -0.1516  0.0223  0.1567
60353W        W 3266   2.712  11.739   3.231 -0.3028 -0.3165  0.1468
60354W        W 3267  12.368   7.181  26.882  0.2944 -0.1677  0.1423
60355W        W 3268   5.592   6.641   7.401 -0.1809 -0.4068  0.1866
60356W        W 3269   9.340  11.875   7.262  0.0785  0.2624  0.0594
60357W        W 3270   5.999  17.826   1.678  0.1507 -0.0037  0.2013
60358W        W 3271  34.081   5.880  11.588 -0.0417 -0.3961 -0.2945
60359W        W 3272   4.666  19.499   4.757 -0.0640  0.1048 -0.0126
60360W        W 3273  30.036  25.564   0.274 -0.2703 -0.2401 -0.1637
60361W        W 3274   8.776  18.995   0.136 -0.0472  0.1443  0.0378
60362W        W 3275  26.249  21.314   6.146  0.1043  0.0086  0.1041
60363W        W 3276  10.311   4.723   2.964  0.0465 -0.1318  0.1776
60364W        W 3277   4.594  26.775   9.254 -0.1655 -0.1798 -0.1154
60365W        W 3278  15.152  13.525  29.294 -0.3058 -0.0479  0.2599
60366W        W 3279   4.013  12.281   7.466 -0.2161  0.3970 -0.0858
60367W        W 3280   7.748  10.303   1.727 -0.2449  0.0751 -0.0458
60368W        W 3281  30.821  11.331   2.020 -0.0508 -0.0801 -0.0654
60369W        W 3282   4.204  23.441  22.623  0.2910 -0.0320 -0.2235
60370W        W 3283  19.234  13.195   4.986 -0.2936  0.0263  0.2168
60371W        W 3284  32.773  22.553   4.289  0.0957 -0.0791  0.0169
60372W        W 3285   4.427  23.167   5.873 -0.1725 -0.3523 -0.2317
60373W        W 3286   0.260  17.997   8.117  0.2043  0.1591  0.1676
60374W        W 3287   7.569  13.304   8.968 -0.1713 -0.2075  0.2367
60375W        W 3288  26.184   9.804   4.198 -0.0198 -0.1181  0.0872
60376W        W 3289   0.645  25.039  27.302  0.2303  0.0371 -0.0255
60377W        W 3290  14.187  16.809   0.685  0.4516  0.1971 -0.1667
60378W        W 3291  29.048  19.123   2.133 -0.2653  0.0725 -0.2063
60379W        W 3292   6.648  23.237   1.786  0.0856 -0.0597 -0.0055
60380W        W 3293   1.242  14.578   3.895 -0.0665 -0.0030 -0.0847
60381W        W 3294  13.762  11.215   1.744 -0.2457 -0.1426  0.0065
60382W        W 3295  26.849  10.258   8.146  0.3240  0.2471  0.0995
60383W        W 3296  31.793  19.095   8.427  0.2943 -0.2396  0.0270
60384W        W 3297   3.445  19.122   9.245 -0.1754  0.2004 -0.1288
60385W        W 3298   4.970  15.760   8.428  0.0495 -0.3224 -0.0448
60386W        W 3299   1.072  18.067   3.272 -0.1032  0.3361 -0.1868
60387W        W 3300  27.115   8.691  28.291  0.2116  0.2710 -0.0947
60388W        W 3301   4.087  18.980   2.193  0.0925  0.1289 -0.0871
60389W        W 3302   1.839  16.324  25.519 -0.0163  0.0322 -0.4212
60390W        W 3303   1.689  22.811  10.717 -0.1376 -0.0409 -0.3474
60391W        W 3304   1.431  12.859   9.015 -0.0622  0.0293  0.3306
60392W        W 3305   3.507  18.715   1.459  0.0905 -0.0264 -0.1865
60393W        W 3306   3.552  21.154  25.027  0.0298  0.2558 -0.3786
60394W        W 3307   4.201  22.516   0.393  0.0693  0.2334 -0.1171
60395W        W 3308   1.085  12.814   2.834 -0.1613 -0.4983  0.1690
60396W        W 3309   2.416  14.232   5.732 -0.0144 -0.1244  0.1308
60397W        W 3310   5.521   4.694   2.937  0.0606 -0.3327  0.2551
60398W        W 3311  33.544  15.406   2.371 -0.1959 -0.0205 -0.1686
60399W        W 3312  22.638   6.618  29.220  0.0704 -0.1020  0.1809
60400W        W 3313  13.293  10.750   3.554  0.0849  0.1007 -0.2490
60401W        W 3314  31.070  12.860   7.607 -0.1958  0.0814  0.2348
60402W        W 3315   0.434  17.355   6.738 -0.1940  0.0968 -0.0889
60403W        W 3316   0.718  23.399   0.761  0.0972 -0.2664 -0.1769
60404W        W 3317  33.701  10.481  28.639  0.0749 -0.4441 -0.2599
60405W        W 3318  14.741  17.466  24.135  0.1177 -0.0108 -0.2690
60406W        W 3319   4.360  28.665  28.893  0.1103  0.2735 -0.2870
60407W        W 3320   2.944  14.510   4.212  0.2227  0.1506 -0.1952
60408W        W 3321  28.835  19.345   6.276 -0.4068  0.1384 -0.0864
60409W        W 3322   8.370  10.461   8.676 -0.0216 -0.0459  0.1751
60410W        W 3323   3.611  19.758  27.797  0.2848 -0.1525 -0.4030
60411W        W 3324   2.630  11.101  10.282 -0.2017 -0.3252 -0.1703
60412W        W 3325   6.347  20.939   7.998  0.1349  0.0186  0.2945
60413W        W 3326   5.572   9.579  12.360 -0.2802 -0.1336  0.0560
60414W        W 3327  30.570  31.292  10.152  0.0014 -0.0532  0.0733
60415W        W 3328   0.015  19.685   8.031  0.0856 -0.1324  0.0562
60416W        W 3329  10.653  14.243   6.032 -0.2128 -0.0594 -0.1890
60417W        W 3330  30.536  18.136   5.005 -0.0119 -0.2120 -0.3655
60418W        W 3331   3.220  13.342   9.912 -0.0945  0.2001  0.0528
60419W        W 3332  31.884  20.103  29.416 -0.1303 -0.2553  0.0311
60420W        W 3333  32.905   8.109   5.625  0.2332 -0.4043  0.2363
60421W        W 3334   3.701   7.304   7.175 -0.0899 -0.1018 -0.2118
60422W        W 3335   4.241  21.007   8.270  0.2825  0.2482  0.2182
60423W        W 3336   1.208   5.589  22.940  0.0208  0.1578 -0.2432
60424W        W 3337  34.134   0.172  27.483  0.1374  0.3115 -0.2563
60425W        W 3338   4.708  15.608   5.661 -0.1219  0.0004  0.3088
60426W        W 3339  12.338   3.611   8.971 -0.0284  0.3433 -0.1052
60427W        W 3340  28.312  12.520   5.287  0.1692  0.0463  0.0550
60428W        W 3341   7.555  19.985  28.182  0.2530  0.2907  0.0162
60429W        W 3342  19.589  18.170  29.612  0.1072 -0.0151 -0.0208
60430W        W 3343  25.559  18.420  21.431  0.0335 -0.1346  0.0597
60431W        W 3344  17.832  19.278   8.415 -0.1918 -0.1258  0.1007
60432W        W 3345   2.347  23.603   8.173  0.0717 -0.2274  0.0256
60433W        W 3346   7.928  16.709  27.842  0.1865 -0.0103  0.0195
60434W        W 3347   2.092  22.634   3.252 -0.2866  0.1538  0.2025
60435W        W 3348   5.484  21.237   6.851  0.1199 -0.1649 -0.1152
60436W        W 3349   7.897  12.225   1.170  0.0163  0.0704  0.2565
60437W        W 3350   2.654  14.534   4.687 -0.2463  0.0308 -0.0758
60438W        W 3351   4.053  11.359   7.416 -0.2852 -0.2786 -0.0101
60439W        W 3352  13.493  16.334  28.692 -0.3754 -0.0327 -0.1076
60440W        W 3353   4.186  13.803  25.952  0.1964 -0.1424 -0.3647
60441W        W 3354  33.669   8.343  27.186  0.1712 -0.0050  0.2259
60442W        W 3355   9.064   8.348   3.585  0.3562 -0.0042 -0.0122
60443W        W 3356  31.768   8.355  27.393  0.2782  0.3099  0.2404
60444W        W 3357  23.973  19.644   6.357 -0.2563  0.0081  0.1587
60445W        W 3358   5.236   6.647   0.103 -0.2453  0.3357  0.2308
60446W        W 3359  21.720  24.688   2.320  0.1096 -0.0357 -0.1931
60447W        W 3360  26.726  14.849   5.620  0.0285  0.0701  0.2010
60448W        W 3361  24.977  17.212   2.080 -0.0277  0.0417 -0.0735
60449W        W 3362   3.156  11.504   8.204  0.3555 -0.0273 -0.0965
60450W        W 3363   8.633   7.484  10.431 -0.0831 -0.2207  0.0375
60451W        W 3364  33.374   9.915  10.346  0.1440 -0.0398  0.1762
60452W        W 3365   5.071  21.006   8.281  0.1033  0.2287 -0.3543
60453W        W 3366  13.766  26.817   8.382  0.1724 -0.2868 -0.2860
60454W        W 3367  32.378   6.715  10.900  0.1868  0.1987  0.2649
60455W        W 3368   0.236  21.619   9.083 -0.1491 -0.2212  0.1828
60456W        W 3369  28.043  18.218   6.376 -0.3375  0.0035  0.0170
60457W        W 3370  23.530  11.485   0.657  0.0756  0.3986  0.1946
60458W        W 3371   0.220  18.868   4.112  0.3617  0.0646 -0.3278
60459W        W 3372   1.100  18.541   7.940 -0.0588  0.0966  0.0985
60460W        W 3373   5.655   1.785  12.090  0.1345 -0.1939 -0.0868
60461W        W 3374   5.923  13.296   9.830  0.1265 -0.0191  0.0446
60462W        W 3375  21.460  17.805   7.675 -0.2618  0.1062  0.1468
60463W        W 3376  22.818  11.828   0.205  0.0172  0.1223 -0.1222
60464W        W 3377   3.810  15.098   5.805  0.1091  0.2539 -0.1043
60465W        W 3378   4.206   9.840   1.138 -0.1513 -0.3070 -0.0470
60466W        W 3379   1.237  17.449   2.964 -0.0262  0.2916 -0.1381
60467W        W 3380  24.927  11.436   4.354  0.4532 -0.3827  0.0479
60468W        W 3381   8.820  12.141   4.486  0.2651  0.0443 -0.0320
60469W        W 3382  26.703  12.601   3.757 -0.3833  0.0606  0.1455
60470W        W 3383  32.921  17.278   5.269  0.1905 -0.2979 -0.2991
60471W        W 3384  32.223  19.967   4.898 -0.4487  0.0017 -0.1597
60472W        W 3385   0.256  12.675   9.011  0.0793  0.0482 -0.1162
60473W        W 3386   3.348  14.044   6.802 -0.3699  0.0687  0.1942
60474W        W 3387  28.246   7.938  26.537  0.1389 -0.0309 -0.2587
60475W        W 3388  33.704  20.082   9.041  0.2617  0.0582  0.2132
60476W        W 3389  32.720  15.819   6.571 -0.2837  0.4590 -0.1073
60477W        W 3390  32.292  26.560  29.522  0.1951  0.0410 -0.0586
60478W        W 3391  30.975  24.279   4.583 -0.0671 -0.4432 -0.0998
60479W        W 3392  34.124  22.046   8.568  0.0083  0.2016 -0.0159
60480W        W 3393   1.285  17.848   7.344 -0.2136  0.2273  0.2453
60481W        W 3394  29.367   6.750  25.266  0.2719 -0.5211 -0.1963
60482W        W 3395  33.610   9.280   7.492 -0.0183  0.0089 -0.2019
60483W        W 3396  13.977   8.026  28.707  0.0336  0.0947 -0.1725
60484W        W 3397   3.025  13.272   8.331 -0.1849 -0.1002 -0.0698
60485W        W 3398   2.360  10.156   2.410 -0.2168  0.2556  0.0955
60486W        W 3399   3.995   7.481  10.178 -0.1414  0.0066 -0.4361
60487W        W 3400  33.029  12.726   1.120  0.0561  0.3554  0.1509
60488W        W 3401   7.208  15.203   9.518  0.2488  0.0275 -0.1109
60489W        W 3402  33.525  19.550   8.276  0.0504 -0.0166 -0.0972
60490W        W 3403   8.542  16.990   2.324  0.3600  0.0644 -0.0703
60491W        W 3404   8.483  13.931   7.260 -0.0349  0.2716 -0.0518
60492W        W 3405   9.953  15.737   6.954  0.0035 -0.1942  0.2063
60493W        W 3406  34.065  28.755   6.420 -0.1154  0.2405  0.1337
60494W        W 3407   4.995  23.685   8.137  0.2007  0.0423  0.2438
60495W        W 3408   9.569  12.926   0.015  0.0874 -0.0915 -0.1108
60496W        W 3409  22.698  13.329   5.315 -0.2269 -0.1493 -0.0616
60497W        W 3410   6.471  25.749   4.893 -0.2741 -0.2277 -0.0523
60498W        W 3411   2.479   7.600   5.103 -0.1734  0.0747  0.0562
60499W        W 3412  33.939  29.646   3.959 -0.1181 -0.0031  0.4406
60500W        W 3413   8.418  25.500   6.388 -0.1862  0.2370  0.1075
60501W        W 3414   4.631   7.550  12.587  0.1015 -0.0905  0.1298
60502W        W 3415   6.104  16.635   2.588 -0.0895  0.3791 -0.2473
60503W        W 3416   9.291  10.076  10.523  0.2447  0.0648 -0.0264
60504W        W 3417  16.775  17.291  22.978  0.0662 -0.0034 -0.1479
60505W        W 3418   8.122  15.311   0.480  0.0199  0.2128 -0.1874
60506W        W 3419   8.971  16.449   4.766  0.1083 -0.0547  0.1210
60507W        W 3420   0.207  14.917   5.273  0.0433 -0.2362 -0.5197
60508W        W 3421   2.004   1.428  27.327 -0.1866  0.2817  0.2217
60509W        W 3422  28.087  22.418   4.563  0.2519  0.0015  0.1479
60510W        W 3423  29.197  23.559  27.998 -0.2573 -0.0009  0.2231
60511W        W 3424  30.791  19.792   3.412 -0.1506  0.0465 -0.2208
60512W        W 3425   6.246  27.803   7.576 -0.0351  0.1098  0.1316
60513W        W 3426  28.656  10.531   5.994 -0.1448  0.0530 -0.0878
60514W        W 3427  22.198  14.055  29.658  0.0611 -0.2039 -0.1171
60515W        W 3428  34.102  11.910  26.537 -0.2410 -0.0727  0.0741
60516W        W 3429   4.794  12.076   8.109  0.0429  0.0013 -0.1935
60517W        W 3430  28.396  26.743   3.482 -0.0426  0.1095  0.2022
60518W        W 3431  13.650  18.625   1.515 -0.2560 -0.0173 -0.0101
60519W        W 3432  26.953  15.571   4.935 -0.0305  0.5821  0.0860
60520W        W 3433  33.350  20.120  10.076 -0.0534 -0.0636 -0.0806
60521W        W 3434  34.352   8.179   3.460 -0.2065  0.2550 -0.1185
60522W        W 3435  26.344  18.874   6.081 -0.0623 -0.0723 -0.0955
60523W        W 3436  33.401  11.019   3.164 -0.2048  0.1619  0.0962
60524W        W 3437   4.432  11.067   7.251  0.0083 -0.1619  0.1152
60525W        W 3438  12.932   3.545  25.707  0.0464 -0.0290  0.1247
60526W        W 3439   4.380  17.512   0.158  0.1912 -0.0451 -0.2282
60527W        W 3440  34.388   6.469   8.995 -0.1365 -0.3210  0.2297
60528W        W 3441  26.041  14.529   7.165  0.2777 -0.2912 -0.1219
60529W        W 3442   2.527  14.103   8.997 -0.3738 -0.2733 -0.0819
60530W        W 3443  28.455  13.426   3.471  0.0371  0.0306 -0.1176
60531W        W 3444   6.393  10.682  10.281 -0.0891  0.0004 -0.2468
60532W        W 3445   6.866  13.004   7.898 -0.1023 -0.4079 -0.0406
60533W        W 3446  28.375  16.581   1.984  0.0798  0.1333 -0.2125
60534W        W 3447  22.020   9.806   8.553  0.0403  0.1268  0.0052
60535W        W 3448  32.666  22.353   8.696 -0.1938 -0.3496  0.0364
60536W        W 3449   1.652  21.671   2.354 -0.1833  0.1546  0.0861
60537W        W 3450  27.727  16.512   8.624  0.1133 -0.0086 -0.0633
60538W        W 3451   1.580   4.981   3.043 -0.0695  0.0212  0.1363
60539W        W 3452   4.277  12.176  27.852 -0.1523 -0.0041  0.4381
60540W        W 3453   7.721  16.135   8.739 -0.0434  0.2809 -0.1170
60541W        W 3454   8.622   8.536   3.754  0.2639 -0.2173  0.2030
60542W        W 3455  12.823  28.715   3.196  0.0405  0.1979  0.0293
60543W        W 3456  33.556  16.412   7.636 -0.0192 -0.0633  0.4151
60544W        W 3457   8.169  16.536   0.227  0.1105  0.4805 -0.1332
60545W        W 3458   6.804   7.047   0.208 -0.1760 -0.0467 -0.2081
60546W        W 3459  30.457  16.003   7.416  0.0484 -0.3526 -0.1241
60547W        W 3460  26.440  21.194  23.636  0.1237  0.0297 -0.1413
60548W        W 3461  32.865  23.106   9.719  0.0644 -0.1940 -0.1381
60549W        W 3462   0.645  22.588   0.666  0.0293 -0.0090 -0.2254
60550W        W 3463  21.139  25.746  28.295  0.2729 -0.4258  0.2285
60551W        W 3464   4.653  13.883  10.805  0.1561 -0.1148 -0.0683
60552W        W 3465  30.356  17.791   3.445  0.0681 -0.1458  0.3266
60553W        W 3466  27.601  14.319   5.700  0.0450 -0.2438 -0.0830
60554W        W 3467  26.961   9.092  25.170 -0.2214  0.0430 -0.0650
60555W        W 3468   1.541  11.721  28.873 -0.2501  0.1210  0.1633
60556W        W 3469   2.978  21.695   0.529  0.0375  0.2358  0.0280
60557W        W 3470  11.807  13.083   0.377 -0.1732 -0.3166  0.0707
60558W        W 3471   9.206  14.191   6.014 -0.3128  0.1069  0.1508
60559W        W 3472   0.837  11.970   9.266  0.1105 -0.0026  0.0119
60560W        W 3473   7.850  20.254   2.898 -0.0742  0.0424  0.2835
60561W        W 3474  32.547  18.445   6.458  0.1488  0.1590  0.0817
60562W        W 3475   4.047  14.742   8.652  0.0900  0.1494 -0.0283
60563W        W 3476  10.183  19.823   4.299  0.1491 -0.3376 -0.3448
60564W        W 3477   3.098  20.227   2.529  0.1962 -0.0090  0.0937
60565W        W 3478  27.550  19.400   5.757  0.0777 -0.0259 -0.1918
60566W        W 3479  26.096  18.416   7.332 -0.0695  0.1875  0.0450
60567W        W 3480  25.973  16.456   9.034 -0.1448 -0.1308  0.0674
60568W        W 3481   6.105  13.764   7.929  0.2121 -0.0822 -0.1994
60569W        W 3482   3.710  17.676  27.299 -0.0556 -0.0455 -0.1201
60570W        W 3483   2.326  13.874   9.873  0.2855 -0.1681 -0.1543
60571W        W 3484   7.246  17.358   7.787  0.2779  0.1300  0.2798
60572W        W 3485  13.853  18.002  25.815 -0.0969 -0.1126  0.0408
60573W        W 3486  29.809  20.906   7.496  0.1174  0.1969 -0.1270
60574W        W 3487   3.401  22.146   2.570 -0.0676 -0.0953  0.3539
60575W        W 3488  13.852  19.560  17.890  0.0014  0.5330  0.0238
60576W        W 3489   0.284  14.560   5.690 -0.4603 -0.0677  0.2109
60577W        W 3490  12.271   9.472   5.759 -0.1409 -0.2520  0.1193
60578W        W 3491   4.821  13.225   2.250 -0.0277  0.0384 -0.1037
60579W        W 3492  30.432   8.856   3.322 -0.1339  0.2909 -0.3564
60580W        W 3493   3.589  15.414   4.521  0.1160 -0.2025 -0.0485
60581W        W 3494  33.017  30.251  26.235  0.3355  0.0037  0.2141
60582W        W 3495   1.792   2.262   9.892  0.1081  0.1454 -0.1458
60583W        W 3496  24.528   8.040   5.181  0.1727 -0.0297 -0.0781
60584W        W 3497  31.533  22.777  10.150  0.0060 -0.3088  0.1781
60585W        W 3498  14.374  20.853  19.667  0.1597 -0.3796  0.2367
60586W        W 3499  30.358  10.520   5.618  0.1969 -0.1299 -0.1270
60587W        W 3500  32.893  21.699   3.617  0.1540 -0.1116 -0.1764
60588W        W 3501   0.271  17.400   5.591  0.1602 -0.0234 -0.1384
60589W        W 3502   8.043  15.786   5.624 -0.2029  0.0730 -0.3444
60590W        W 3503   1.554  15.164   9.433 -0.4337  0.0432  0.1647
60591W        W 3504   9.198  17.249   6.478  0.0107  0.0080 -0.2443
60592W        W 3505   2.672  10.751   4.282  0.2125  0.0180 -0.1258
60593W        W 3506   6.097  11.244   5.688 -0.1962 -0.1305 -0.0530
60594W        W 3507  27.096  20.001   3.599 -0.3665  0.1642 -0.1058
60595W        W 3508   7.631   9.777   8.945 -0.0507  0.0525 -0.0065
60596W        W 3509  16.777  21.202   6.717  0.0029 -0.0560 -0.2534
60597W        W 3510  31.529  13.095  27.395 -0.1988 -0.1425 -0.1665
60598W        W 3511  33.319  26.636   4.797 -0.0035  0.1855  0.0152
60599W        W 3512   1.074  11.672  25.095 -0.2203 -0.0037 -0.0680
60600W        W 3513  11.989   3.938   8.897  0.0248 -0.3008 -0.0752
60601W        W 3514  25.118  11.853   7.125 -0.0013 -0.0197  0.3939
60602W        W 3515   7.044  25.969   6.184 -0.2879 -0.0223  0.1481
60603W        W 3516  26.904  20.778   5.848  0.3559  0.1850 -0.0091
60604W        W 3517   0.940  18.530   9.677 -0.0607  0.1100 -0.0313
60605W        W 3518   1.371  10.878   4.106 -0.2137  0.1737 -0.0436
60606W        W 3519   5.304  21.375   4.987 -0.3061  0.0869  0.0475
60607W        W 3520  30.647  31.647  22.813  0.0086 -0.0204  0.2353
60608W        W 3521  34.398  10.277   7.933  0.0359 -0.0512  0.0177
60609W        W 3522   9.134  20.754   0.509  0.1151  0.2332 -0.1119
60610W        W 3523  29.217  21.967   9.982 -0.2904  0.0298  0.1647
60611W        W 3524  26.746   8.289  29.239  0.0313 -0.0792  0.0488
60612W        W 3525  30.674  16.394   2.485  0.1842 -0.0175  0.2250
60613W        W 3526  34.308  14.654   4.703  0.1038 -0.0788 -0.0050
60614W        W 3527   1.898  17.650  28.168 -0.0454 -0.2064  0.1439
60615W        W 3528   5.485  16.041   2.306  0.0753  0.2209 -0.2385
60616W        W 3529  24.802  19.274   7.149 -0.3624  0.1945  0.2153
60617W        W 3530   1.845  16.926   9.004 -0.2233  0.3556 -0.0338
60618W        W 3531   6.124  20.762   0.251  0.0353  0.1037  0.1830
60619W        W 3532  10.381  12.949   6.544 -0.0585  0.0745 -0.0307
60620W        W 3533   3.695  22.286  29.296 -0.1316 -0.0874  0.1983
60621W        W 3534   5.963  22.031   0.878 -0.1614 -0.3082 -0.0628
60622W        W 3535  28.810  15.621  29.244  0.0490  0.1847 -0.0800
60623W        W 3536  10.653  13.412   5.314  0.2773 -0.2776 -0.2209
60624W        W 3537  26.098  19.087   2.863 -0.0790 -0.0977 -0.1186
60625W        W 3538  32.783   8.234   6.154 -0.2274 -0.0791 -0.1169
60626W        W 3539  14.472  24.775   8.082  0.1031 -0.0523  0.0579
60627W        W 3540  29.065  26.336   8.675  0.1131 -0.3793 -0.0925
60628W        W 3541   8.230   6.236  10.814  0.1353 -0.2338 -0.3964
60629W        W 3542   4.456  17.375   5.331 -0.2392 -0.0680 -0.5030
60630W        W 3543  10.877  11.531   8.665 -0.0837  0.0044  0.1465
60631W        W 3544  10.381  14.195  24.949  0.0626  0.0832  0.0209
60632W        W 3545   2.357  13.215   3.783  0.3653  0.1851 -0.0268
60633W        W 3546   8.987  31.951  10.447 -0.0370 -0.0157  0.3722
60634W        W 3547   1.980  16.287   4.502  0.1316 -0.2117  0.3834
60635W        W 3548   6.543  24.261  22.037 -0.0150  0.1373  0.0536
60636W        W 3549  34.477  14.978  26.343  0.0220 -0.2520  0.2500
60637W        W 3550  28.446  18.236   6.766  0.0588  0.2190  0.2008
60638W        W 3551   1.406   2.523   3.203 -0.0425  0.1948 -0.0899
60639W        W 3552   2.235  23.605   6.713  0.0247  0.1215 -0.1734
60640W        W 3553   7.372  14.328   7.884  0.0875  0.2343  0.3806
60641W        W 3554  22.230  19.713  26.021 -0.0280 -0.0851 -0.2020
60642W        W 3555  27.978  12.678   8.792 -0.0742 -0.1947  0.1252
60643W        W 3556   5.475   6.768  29.421  0.1156 -0.0758  0.1535
60644W        W 3557  31.187  22.478   9.789  0.3084 -0.0434 -0.1714
60645W        W 3558   4.126  23.339   8.935  0.0577  0.0310  0.0969
60646W        W 3559   6.104  17.358   7.755 -0.3859  0.1825  0.1132
60647W        W 3560  31.036  12.767   8.115 -0.1698  0.1228 -0.1246
60648W        W 3561   0.712  16.084   2.923  0.1119 -0.0102  0.0082
60649W        W 3562   3.427  23.819   6.206  0.0138 -0.1306  0.1424
60650W        W 3563  25.384  10.969   9.927 -0.0808 -0.1880  0.1178
60651W        W 3564   3.191   5.005   4.002 -0.0075  0.0766 -0.1976
60652W        W 3565   4.220  13.995   6.778 -0.0547  0.0719 -0.1591
60653W        W 3566   3.832  22.111  27.420  0.3206  0.1669 -0.1256
60654W        W 3567   7.921  24.578   8.885 -0.0735 -0.0651 -0.0972
60655W        W 3568  34.363  20.047   7.245  0.0790  0.2504 -0.1053
60656W        W 3569   4.607  25.280   7.016 -0.3049  0.2010 -0.2211
60657W        W 3570  32.348  22.506  29.634  0.0303  0.1293  0.0118
60658W        W 3571   2.992  11.901   4.373  0.0699  0.0360 -0.2245
60659W        W 3572  25.782  17.443  25.196 -0.1436  0.0706  0.2627
60660W        W 3573  33.262   8.824   9.066 -0.0595  0.0328 -0.3660
60661W        W 3574   0.879   8.948   2.340  0.1209 -0.2090 -0.1403
60662W        W 3575  26.091  19.873   6.952  0.0876 -0.1364  0.1649
60663W        W 3576   9.619  11.689   3.741  0.2888  0.3666 -0.2064
60664W        W 3577  19.197  18.125  27.632 -0.1055  0.0683  0.2323
60665W        W 3578   0.556  33.580   9.426 -0.0207  0.0093  0.1459
60666W        W 3579   9.879  10.005  29.353 -0.0666 -0.0036 -0.0863
60667W        W 3580   6.891  16.124   9.393  0.1080 -0.1602 -0.2447
60668W        W 3581  34.464  27.237   1.869 -0.0153 -0.2705  0.2716
60669W        W 3582   0.399   7.084   3.369  0.3537  0.3473 -0.1267
60670W        W 3583   0.878  13.533   1.414  0.4273 -0.0788 -0.0897
60671W        W 3584  25.732  18.281   8.913  0.1836 -0.0686  0.0740
60672W        W 3585  28.628  21.159   7.257 -0.0701  0.0314 -0.2512
60673W        W 3586  27.770   7.479   7.109  0.1908 -0.1404 -0.0843
60674W        W 3587   2.835  18.903   4.762 -0.0620  0.0209 -0.2314
60675W        W 3588   6.173  32.228   3.721  0.1002 -0.0474  0.0799
60676W        W 3589   7.864  26.333   2.190  0.3223 -0.0484  0.0206
60677W        W 3590  32.832  10.047   8.350  0.1583 -0.1931  0.1423
60678W        W 3591  27.854  17.602   8.476  0.0462 -0.0899  0.0536
60679W        W 3592  26.469  23.529  26.230  0.1362 -0.1489  0.3512
60680W        W 3593   3.180  10.268   7.236  0.1063  0.1282 -0.0177
60681W        W 3594  33.357  10.094   5.600  0.0139 -0.0223 -0.1194
60682W        W 3595  30.237   9.287   5.844 -0.1499  0.0907  0.0856
60683W        W 3596  31.118  18.383   8.515  0.1146  0.0469  0.1658
60684W        W 3597  26.921  27.084  29.201  0.1085 -0.1588 -0.1958
60685W        W 3598   2.790  13.632   8.617 -0.0413  0.3734 -0.1609
60686W        W 3599   3.945  18.057   4.919  0.3030  0.0820  0.3406
60687W        W 3600  22.424  12.924  19.221 -0.1471  0.0173  0.2575
60688W        W 3601   6.380   8.462   4.744  0.0188  0.0795 -0.2702
60689W        W 3602   8.843  10.852   9.363  0.1858 -0.2612 -0.1604
60690W        W 3603   9.270  14.383   7.211  0.3495  0.1367 -0.0627
60691W        W 3604  30.793  29.912   8.281  0.0398  0.0467  0.0044
60692W        W 3605  32.439  14.743   3.614 -0.0775 -0.2103 -0.1268
60693W        W 3606   6.089  11.201   0.050 -0.4036 -0.0380  0.0253
60694W        W 3607   5.384  24.569   5.431  0.0806  0.0824  0.2635
60695W        W 3608  34.291  20.870   8.783  0.0392 -0.0482 -0.3289
60696W        W 3609  33.373   7.113   4.693 -0.0327 -0.0632  0.1787
60697W        W 3610   4.227  17.372  26.389  0.1228  0.1727 -0.3574
60698W        W 3611   8.478  22.147   3.951 -0.0511 -0.1180 -0.1646
60699W        W 3612   2.469  13.409   6.127 -0.2167 -0.3274  0.4029
60700W        W 3613   3.590   8.350  11.323 -0.0429  0.3658  0.0692
60701W        W 3614  34.234  13.591  28.741  0.3243 -0.1390  0.2723
60702W        W 3615  31.067  15.376   1.548  0.1372 -0.1696 -0.3114
60703W        W 3616  29.662  23.861  26.504 -0.1795  0.1630  0.0140
60704W        W 3617  23.935   8.417   4.076 -0.1078 -0.0473  0.1136
60705W        W 3618   1.918  18.165   8.500  0.1731  0.1476 -0.1888
60706W        W 3619   4.635  10.558  23.907 -0.1899  0.2561 -0.2867
60707W        W 3620  14.248  29.033   6.861  0.0788 -0.2888 -0.3427
60708W        W 3621  27.578   9.732   7.623  0.0676  0.1295 -0.0634
60709W        W 3622  32.426   3.506  11.768  0.2042  0.1899 -0.2094
60710W        W 3623  27.172  19.665   4.021 -0.1760 -0.1445  0.3839
60711W        W 3624  31.852   7.438   6.736 -0.0945 -0.2666 -0.1087
60712W        W 3625  25.848   7.501  27.516 -0.0934 -0.2355  0.2232
60713W        W 3626  29.283  15.070   3.231  0.2388 -0.0563 -0.2207
60714W        W 3627  33.130   8.304   9.994  0.1882 -0.0057 -0.0837
60715W        W 3628   8.672   9.372   7.076 -0.0436  0.0999 -0.0023
60716W        W 3629  25.199  21.518  24.533 -0.2123  0.4365 -0.2519
60717W        W 3630  15.922  15.748   4.194 -0.1100 -0.2302  0.1214
60718W        W 3631  27.855  23.906  28.802 -0.2185 -0.0380 -0.0130
60719W        W 3632  28.379  11.908   8.084 -0.1008 -0.2826 -0.0299
60720W        W 3633  32.993  10.455   6.739  0.0169 -0.1653 -0.3251
60721W        W 3634  32.766  19.311   6.065 -0.0422 -0.1233 -0.0045
60722W        W 3635   7.054   1.512  24.928  0.1557 -0.2169 -0.4117
60723W        W 3636  13.182  11.512   4.429 -0.1474  0.1278  0.1781
60724W        W 3637   1.723  23.643   3.202  0.0333  0.1723 -0.2187
60725W        W 3638   8.773  15.496   3.222  0.2090 -0.0918 -0.3466
60726W        W 3639  10.462  19.692  29.205  0.0482  0.0795 -0.1633
60727W        W 3640  14.876  12.677   6.110  0.3498 -0.0382 -0.0387
60728W        W 3641   2.012  23.659   9.137 -0.0011 -0.0380  0.2260
60729W        W 3642  10.309   9.463   7.897 -0.0839  0.0982 -0.1553
60730W        W 3643  10.134  12.384   2.965 -0.1030  0.4679 -0.1805
60731W        W 3644  24.544  11.649  26.331 -0.3014  0.2029 -0.0466
60732W        W 3645   0.922  22.530   4.212 -0.2995 -0.2522 -0.0570
60733W        W 3646  17.862  22.151   7.728  0.0831 -0.1424 -0.0481
60734W        W 3647  14.028  12.583  28.394 -0.3182  0.0107 -0.0896
60735W        W 3648   3.263   6.779   6.956 -0.2283  0.0587  0.2598
60736W        W 3649  33.578  18.912   7.761  0.1612  0.1550  0.0945
60737W        W 3650  14.619  11.080   6.292  0.2904 -0.0137 -0.2451
60738W        W 3651  33.768  22.867   9.889  0.1153 -0.1175  0.0151
60739W        W 3652   9.223  18.559   4.728  0.1098 -0.1438  0.1272
60740W        W 3653  24.783  29.007  25.449  0.1066 -0.0548 -0.4570
60741W        W 3654   0.859  12.832   7.712  0.3669  0.1456 -0.0192
60742W        W 3655   7.125  21.556  29.352  0.0243  0.2046  0.2073
60743W        W 3656  14.577   8.570  27.630  0.1003  0.2010  0.0205
60744W        W 3657  27.570  23.038   8.644  0.0019 -0.0337  0.0685
60745W        W 3658   6.278  14.548   6.608  0.2038  0.2835 -0.1508
60746W        W 3659   9.197  15.445   3.510 -0.0513 -0.2266 -0.0488
60747W        W 3660  10.611  10.901   2.860 -0.0171 -0.1942  0.0468
60748W        W 3661   3.549   2.804   7.527  0.2026  0.1851  0.0126
60749W        W 3662   7.426  18.516   2.947  0.1690 -0.2367  0.0729
60750W        W 3663  28.123  19.423   6.917  0.0710 -0.1551 -0.0876
60751W        W 3664  30.912  32.492  10.543  0.1883  0.0543 -0.1022
60752W        W 3665   3.316  14.245  28.867 -0.1510  0.0826 -0.0576
60753W        W 3666  34.137   8.559   5.771 -0.1302  0.1968 -0.1583
60754W        W 3667   8.930  13.350   1.980  0.1624  0.0548  0.0290
60755W        W 3668  13.001  11.384   8.099  0.2614  0.2341  0.1163
60756W        W 3669   6.512  17.981   8.062  0.0879  0.1447 -0.3717
60757W        W 3670   6.514  11.832   3.489  0.1543 -0.1118 -0.2597
60758W        W 3671  32.046   9.694   3.757 -0.0337 -0.1644 -0.0639
60759W        W 3672   4.548  10.059   4.526  0.0977  0.0158 -0.0910
60760W        W 3673   0.116  20.025   6.272  0.1049 -0.1082 -0.1295
60761W        W 3674   3.577  12.526  27.611 -0.1959 -0.1381  0.0275
60762W        W 3675   1.408  10.544   0.226 -0.1123 -0.0537 -0.1095
60763W        W 3676  34.022  17.118   8.440 -0.3045  0.0985  0.3212
60764W        W 3677  28.442  12.997   7.718  0.0440  0.2103 -0.2990
60765W        W 3678   5.826  23.233  25.399  0.2546  0.0340 -0.2777
60766W        W 3679  29.954  22.990  28.066 -0.0232 -0.0491 -0.0980
60767W        W 3680   5.280   6.395   8.267  0.1267 -0.0915  0.1151
60768W        W 3681   7.692   1.081  12.967  0.1629  0.0368 -0.3049
60769W        W 3682   7.568  15.588   7.184  0.2032  0.2480  0.0839
60770W        W 3683   5.041  17.374   5.725  0.2929  0.4213 -0.1015
60771W        W 3684  31.524  27.155   5.777  0.0268 -0.1652  0.0203
60772W        W 3685   9.058  14.836  27.990  0.1815  0.1218  0.3232
60773W        W 3686   0.510  21.775   6.234  0.3280  0.2122  0.2742
60774W        W 3687  11.515  23.063   3.192  0.2121 -0.0344 -0.1996
60775W        W 3688   2.485  11.568   4.227  0.3592 -0.1014  0.0284
60776W        W 3689   1.176  15.470   9.216 -0.2413 -0.1906  0.1448
60777W        W 3690  32.305   5.171   8.655  0.2575 -0.0912 -0.0308
60778W        W 3691   5.666  11.661   3.811 -0.0186 -0.0123 -0.1856
60779W        W 3692   8.695  34.181   1.972 -0.1818 -0.3911  0.2033
60780W        W 3693  33.163  26.035  28.806  0.0161 -0.1928  0.0858
60781W        W 3694   5.518  15.552   1.439 -0.1513 -0.4284  0.3849
60782W        W 3695  33.209  19.352   5.102 -0.0253  0.0641 -0.0310
60783W        W 3696   4.835  11.581  10.839 -0.3160  0.1051 -0.2170
60784W        W 3697  31.861  17.205   4.196 -0.0778 -0.0341 -0.0693
60785W        W 3698   3.003  22.519   5.971 -0.0360  0.0816  0.2780
60786W        W 3699   6.880  18.200   8.625  0.1686  0.0567  0.0906
60787W        W 3700   8.538   8.100   4.796 -0.0810 -0.2848 -0.0102
60788W        W 3701  10.729  18.419   4.604 -0.1042  0.1120  0.1065
60789W        W 3702   5.608  22.168   7.773  0.0648  0.1353  0.3659
60790W        W 3703  21.811  18.981   5.631 -0.0841 -0.2697 -0.0460
60791W        W 3704  24.159  27.582   5.519 -0.2423 -0.1377  0.0547
60792W        W 3705  24.189  22.692  27.411 -0.1001 -0.2535  0.4041
60793W        W 3706   8.327  19.601   4.190 -0.1131 -0.1110 -0.0814
60794W        W 3707   1.414  18.231   4.092  0.0109 -0.3466 -0.2584
60795W        W 3708   8.450  14.737   6.827  0.1265  0.0528  0.0772
60796W        W 3709   3.062  10.977   8.982  0.0218 -0.3151 -0.1603
60797W        W 3710  27.535  20.837   7.757 -0.0574 -0.1266  0.4178
60798W        W 3711   0.268  16.270   0.795  0.0698  0.0774  0.0059
60799W        W 3712   7.884  22.925   7.773  0.2356 -0.0227  0.0529
60800W        W 3713  31.304   3.922  10.221 -0.0299  0.0811  0.2253
60801W        W 3714   7.881  26.901   4.774  0.0309 -0.0465 -0.0951
60802W        W 3715   0.654  11.553   3.988  0.0932  0.4118 -0.2130
60803W        W 3716   3.696   4.326   0.171  0.2097 -0.3071  0.1119
60804W        W 3717   0.927  23.345   1.696  0.0347  0.2691 -0.2215
60805W        W 3718   0.088  20.426   3.211 -0.4047  0.3259  0.0268
60806W        W 3719  33.220   9.134   7.174  0.0133 -0.0227 -0.2497
60807W        W 3720  29.694  19.223   6.876  0.2320 -0.0255 -0.3104
60808W        W 3721  10.204  14.498  27.291 -0.0101 -0.0853  0.0233
60809W        W 3722   8.769   9.557  10.979 -0.0953 -0.0792 -0.4267
60810W        W 3723   0.083  16.064   7.275 -0.1221 -0.0543  0.0482
60811W        W 3724   2.448  16.895   7.764 -0.2487  0.0767  0.4136
60812W        W 3725   8.530  17.039   4.060 -0.2841 -0.1321 -0.1792
60813W        W 3726   1.842   0.058  25.974  0.0796 -0.1484  0.0336
60814W        W 3727  26.704  15.900   8.872  0.0509 -0.2550  0.3369
60815W        W 3728   5.846   6.458   3.061 -0.0383  0.1616 -0.0117
60816W        W 3729  31.630   7.809  10.334 -0.0524 -0.0410  0.2811
60817W        W 3730   9.055  17.821   1.872 -0.0959  0.0975  0.1183
60818W        W 3731  31.783  23.670   6.912  0.1521  0.0687  0.0701
60819W        W 3732  33.041  19.211   8.205  0.1364  0.2702 -0.0803
60820W        W 3733  32.589  20.462   5.979 -0.1283  0.1632 -0.1549
60821W        W 3734   8.914  17.474   4.001  0.0113  0.0434 -0.2365
60822W        W 3735  22.525  21.846   6.538  0.0691 -0.2448  0.0632
60823W        W 3736   0.278  11.579   9.982 -0.0921 -0.0037  0.3400
60824W        W 3737   2.026  10.597  24.728  0.2747  0.1841  0.0279
60825W        W 3738   6.647  17.456   4.416  0.1311 -0.0078 -0.1504
60826W        W 3739   1.001  18.625   1.364 -0.2095 -0.2410 -0.0842
60827W        W 3740   1.247   7.983  27.956 -0.2404 -0.4424 -0.0192
60828W        W 3741   1.231  14.623   6.984  0.1219 -0.2938 -0.1327
60829W        W 3742   5.751  18.589   3.303  0.3005 -0.0076 -0.0100
60830W        W 3743  26.790  11.172   9.533 -0.2582 -0.1119 -0.1530
60831W        W 3744   1.877  16.520  10.352 -0.2061 -0.1747  0.2829
60832W        W 3745   8.107  16.162  26.523  0.0951  0.2742  0.4074
60833W        W 3746   1.293   2.112   5.266  0.2122 -0.0992  0.1394
60834W        W 3747   7.794   0.830   9.843  0.4596  0.0358 -0.0992
60835W        W 3748   9.673  23.105   5.520  0.0040 -0.0878  0.3758
60836W        W 3749  12.738  12.586   0.137  0.3007  0.1342 -0.3005
60837W        W 3750  32.063  23.500   7.308  0.1841 -0.0078  0.0856
60838W        W 3751   5.617  20.114   8.533 -0.0142  0.0609 -0.0026
60839W        W 3752  33.716  23.201   2.935 -0.2810 -0.0509  0.0122
60840W        W 3753  27.324  24.938  20.341 -0.0422 -0.1498 -0.0067
60841W        W 3754   5.831  18.940   8.965  0.1393 -0.1035  0.1511
60842W        W 3755   7.260  16.279   6.638  0.0081  0.0330  0.1554
60843W        W 3756   5.905   0.916  12.336  0.0832 -0.1279  0.1238
60844W        W 3757   0.379  33.665   5.419 -0.0619 -0.2824 -0.1233
60845W        W 3758  10.897  28.459   8.356 -0.1944 -0.1669 -0.1484
60846W        W 3759  31.556  14.275   0.000  0.1600 -0.2218 -0.2530
60847W        W 3760   1.239  18.807   5.575  0.2235  0.0704  0.2326
60848W        W 3761   0.305  15.688   8.226 -0.0211  0.0536 -0.2072
60849W        W 3762   3.014   5.993   9.073 -0.0505  0.1311  0.1408
60850W        W 3763   4.000  25.270   6.184  0.0421  0.3903 -0.2110
60851W        W 3764   2.895  19.840   9.684 -0.0296  0.4003 -0.3935
60852W        W 3765  32.706  16.029  28.325 -0.1160 -0.4054  0.0816
60853W        W 3766   8.853  16.849   8.291 -0.1781 -0.1169 -0.0323
60854W        W 3767  11.045   8.570   4.141  0.0727  0.1801  0.0274
60855W        W 3768   1.787  20.365   0.705  0.1023 -0.1200  0.0973
60856W        W 3769   1.986  11.184  22.324 -0.1063  0.0790 -0.5322
60857W        W 3770   9.296  15.536   7.520  0.0947  0.0528 -0.0444
60858W        W 3771   9.958  15.946   2.172  0.1579 -0.1210 -0.2789
60859W        W 3772  30.531  10.227   8.567 -0.0179 -0.2909  0.0978
60860W        W 3773   6.368  15.988   6.497  0.2020 -0.3471 -0.0174
60861W        W 3774   4.810  13.777   8.775  0.0345 -0.0708  0.0843
60862W        W 3775  30.307  17.753   2.347  0.1733  0.1438  0.0238
60863W        W 3776   4.583   5.816   7.181  0.2119 -0.1544 -0.0503
60864W        W 3777  30.457  20.486   7.921 -0.2260 -0.1836  0.3044
60865W        W 3778  20.444  21.564   1.549 -0.2404  0.1279 -0.0486
60866W        W 3779  33.736  13.720  26.967  0.0977  0.3680 -0.0001
60867W        W 3780  34.202  18.933   8.702 -0.1915  0.1008 -0.0487
60868W        W 3781  31.637   9.541   4.423  0.4305 -0.0191  0.4763
60869W        W 3782  28.511  14.868  28.551  0.0043  0.0030 -0.1512
60870W        W 3783   6.198  19.977   2.198 -0.0373  0.0969 -0.0812
60871W        W 3784   2.513  12.663  10.163  0.1144  0.1035  0.1293
60872W        W 3785   0.253  26.086  10.038 -0.1525  0.0361 -0.0350
60873W        W 3786   6.762  14.497   5.442 -0.1988  0.0584 -0.3463
60874W        W 3787   5.932  15.482   9.565 -0.0710  0.1436  0.0695
60875W        W 3788   3.748  17.233  28.499 -0.0839 -0.0343 -0.3395
60876W        W 3789   9.443  23.163  29.730  0.0783  0.1598 -0.2884
60877W        W 3790   3.936  23.085   6.032  0.0648  0.0092  0.2416
60878W        W 3791  34.301  16.370   8.912 -0.5291 -0.1792  0.2761
60879W        W 3792   6.679  12.333  11.202  0.3389  0.0759  0.0537
60880W        W 3793  32.998  18.937   6.982 -0.1180  0.4147 -0.0905
60881W        W 3794  30.460  16.699   5.265  0.2014 -0.0871  0.2243
60882W        W 3795   1.866  14.138   5.016  0.0445  0.0215 -0.1392
60883W        W 3796   2.801  14.667   8.938  0.0013 -0.0192 -0.0870
60884W        W 3797  25.496  14.213   8.842  0.0339 -0.1600 -0.3017
60885W        W 3798  14.363  13.011   4.584 -0.0301 -0.0571  0.1490
60886W        W 3799   6.058  16.397   5.501 -0.2859  0.2174 -0.3261
60887W        W 3800   7.268  12.768   2.776  0.0181 -0.1913 -0.0068
60888W        W 3801  32.443  17.132   6.114  0.1570  0.0519  0.0537
60889W        W 3802  27.466   8.110  27.374  0.2144 -0.1218  0.2141
60890W        W 3803   4.275  12.533   5.365 -0.2452  0.2756 -0.1349
60891W        W 3804  33.581  20.519   5.633 -0.1371 -0.0535  0.1006
60892W        W 3805   3.529  17.024   7.361  0.2305  0.0704  0.1708
60893W        W 3806  21.221   5.743   7.078  0.0002  0.4611 -0.2118
60894W        W 3807   4.898  18.531   8.886 -0.0835 -0.0075  0.3141
60895W        W 3808   4.966  24.622   2.807 -0.0393  0.3051  0.1228
60896W        W 3809   3.791  12.104   7.878  0.2253 -0.0788 -0.0610
60897W        W 3810  18.020  12.511  21.701  0.1155 -0.1622  0.1829
60898W        W 3811   2.670  15.962   1.662  0.1114  0.0463  0.2649
60899W        W 3812  12.863  12.725   0.614 -0.0047  0.2878 -0.2395
60900W        W 3813   4.199  14.542   9.099  0.0135 -0.1202 -0.3202
60901W        W 3814   4.409   9.142  11.206 -0.0874  0.1326  0.0705
60902W        W 3815   5.691   8.764  12.010 -0.0688  0.3009 -0.0524
60903W        W 3816   0.619  14.180  26.520 -0.1345 -0.1016 -0.1763
60904W        W 3817  26.897  20.102   9.793 -0.2535  0.0029  0.0842
60905W        W 3818   3.789  12.074   9.329  0.1759  0.1517 -0.0799
60906W        W 3819  33.382  16.312   8.088  0.1651  0.0525 -0.1427
60907W        W 3820  32.189  20.648   7.838  0.1398  0.2118 -0.1408
60908W        W 3821   2.217   7.245   9.557  0.0065  0.0284 -0.0053
60909W        W 3822   8.612  15.601   6.469  0.0111 -0.2944 -0.0103
60910W        W 3823   5.692  34.356   0.017 -0.1188 -0.0260 -0.0416
60911W        W 3824  11.272  20.354   7.896  0.1962  0.0158  0.1710
60912W        W 3825  27.884  16.371  26.186 -0.1625 -0.0980 -0.0415
60913W        W 3826   2.856  10.600   9.459 -0.1485 -0.0291  0.1276
60914W        W 3827  12.751  21.136   5.417 -0.1065 -0.0152 -0.3322
60915W        W 3828  30.250   6.005   5.495  0.1940  0.3658 -0.1436
60916W        W 3829   6.982  21.467   0.174  0.4104 -0.0022  0.0225
60917W        W 3830   8.486  21.807   8.616  0.0708  0.1280 -0.0847
60918W        W 3831   3.411   7.537  25.841  0.1025  0.1400  0.0514
60919W        W 3832   2.156  13.815   7.967  0.1304  0.3609  0.2453
60920W        W 3833  30.642   4.120   0.278  0.1916  0.0246  0.1040
60921W        W 3834   0.115  17.682  23.895  0.2050 -0.0743 -0.2086
60922W        W 3835   3.867   9.335   3.067  0.2519 -0.3767  0.2269
60923W        W 3836   8.292  13.503   6.872 -0.1449  0.0279  0.1149
60924W        W 3837  14.400  20.766   7.427  0.1475 -0.0476 -0.1910
60925W        W 3838  12.255  18.230   3.751  0.2849  0.0810  0.2500
60926W        W 3839   3.111  24.610   0.121 -0.0703 -0.0544 -0.2940
60927W        W 3840   2.568  11.526   7.317  0.2443  0.0465  0.0695
60928W        W 3841  12.209   9.118   4.231  0.1287  0.1932  0.1848
60929W        W 3842   3.970  15.504   7.270  0.1815 -0.0396  0.3962
60930W        W 3843   6.395  22.007   6.049  0.1489  0.2569  0.1678
60931W        W 3844  34.320  21.051   7.624 -0.0538  0.1894 -0.0687
60932W        W 3845   0.927  10.450  11.032 -0.0046 -0.1836  0.2337
60933W        W 3846   3.075  17.587   8.197 -0.0125  0.2131 -0.3458
60934W        W 3847   6.532  17.476   6.641  0.0005 -0.0148  0.0032
60935W        W 3848   1.357  15.147   8.924  0.1669 -0.0788  0.0892
60936W        W 3849  33.188   9.518   1.255 -0.0140 -0.0252  0.2601
60937W        W 3850  34.177  13.192   3.126 -0.1082  0.0214 -0.2519
60938W        W 3851  30.696  15.161   9.794 -0.3960 -0.3706  0.1903
60939W        W 3852  29.998  22.811   7.791 -0.0806  0.0689  0.3391
60940W        W 3853   8.907  20.450   9.113 -0.0344  0.0400  0.1253
60941W        W 3854   2.789  11.691  10.390 -0.1923  0.0247 -0.1037
60942W        W 3855  26.784   9.423   4.632 -0.0387  0.4322  0.0015
60943W        W 3856   3.167  18.683   0.373  0.2826  0.0046  0.1233
60944W        W 3857  29.735  18.286   6.082 -0.0492 -0.0228 -0.1408
60945W        W 3858  26.304   8.907   9.731  0.1029 -0.0398  0.1796
60946W        W 3859   7.537  14.524   3.142  0.1870 -0.1437 -0.2792
60947W        W 3860   9.962  10.803   3.508 -0.2294 -0.1243 -0.2213
60948W        W 3861  34.205  18.157   0.010 -0.0368 -0.1442 -0.3440
60949W        W 3862  30.724  24.418   2.897 -0.0306 -0.2559  0.1427
60950W        W 3863  31.541   8.102   8.632 -0.1142 -0.0846 -0.1334
60951W        W 3864  31.569  20.737   8.085  0.0938  0.1712  0.0235
60952W        W 3865  31.007  11.172   5.771  0.0263  0.0849 -0.0302
60953W        W 3866  31.282   6.854   6.615 -0.1199 -0.0180 -0.0922
60954W        W 3867  34.219  19.147   7.608 -0.1628  0.1438 -0.0291
60955W        W 3868  32.483   1.112  10.333 -0.1025 -0.2550  0.0774
60956W        W 3869  31.462  13.610   8.878 -0.3657 -0.0585  0.3137
60957W        W 3870   5.851  16.653   6.861  0.0843  0.1991 -0.0196
60958W        W 3871   6.785   6.168   9.587 -0.0704 -0.3055  0.1273
60959W        W 3872   8.144  10.716   5.696 -0.1107  0.0549  0.0735
60960W        W 3873   4.022   7.407   4.026  0.4866  0.0794  0.0002
60961W        W 3874  32.213  24.825   9.846 -0.0158 -0.0727  0.1806
60962W        W 3875   1.543  21.843   8.574 -0.1049  0.2457 -0.2057
60963W        W 3876   5.607  31.866   1.513 -0.0305  0.0366 -0.2134
60964W        W 3877   7.137   7.250  13.117  0.0271 -0.2203  0.0219
60965W        W 3878  16.786  21.270   2.646  0.1978  0.2387 -0.2203
60966W        W 3879   3.377  18.134   7.686  0.2511 -0.4304  0.1002
60967W        W 3880   7.831  19.410   1.702 -0.0516 -0.0817 -0.0865
60968W        W 3881  17.254  21.501   0.848 -0.1207  0.0083  0.1066
60969W        W 3882   1.210  16.089  29.715  0.0503 -0.0628 -0.1021
60970W        W 3883   7.596   8.980   5.680 -0.0983  0.1777 -0.0957
60971W        W 3884  13.073  20.100   2.477 -0.2310 -0.0290  0.0765
60972W        W 3885   8.134   9.972   7.194 -0.0759 -0.3421 -0.1761
60973W        W 3886   2.663  17.113   3.370 -0.2892  0.1300  0.1558
60974W        W 3887   0.240  16.217   6.147 -0.1247  0.1377 -0.2506
60975W        W 3888   0.371  16.390   8.862  0.3232  0.1772 -0.1925
60976W        W 3889  16.242  11.283   3.016  0.0614  0.0451  0.2228
60977W        W 3890  11.539  13.130   5.390 -0.1028 -0.1076  0.0756
60978W        W 3891  33.660  21.791   6.823 -0.0190 -0.0550 -0.0230
60979W        W 3892  28.352   9.607  10.221  0.2416 -0.0585  0.0194
60980W        W 3893  15.958  15.983   5.573 -0.2995  0.2629 -0.3468
60981W        W 3894   0.580  18.656   3.387  0.0799  0.0634 -0.2784
60982W        W 3895   8.529  10.106  28.313 -0.0115 -0.1282 -0.2391
60983W        W 3896   3.374  21.254   4.508  0.4512  0.0850 -0.0322
60984W        W 3897   7.766  24.996   0.842 -0.0307  0.3677 -0.3755
60985W        W 3898   1.371  21.314   5.375  0.0309  0.0990  0.0360
60986W        W 3899  28.290  20.789   3.639  0.1488  0.2271 -0.0754
60987W        W 3900   6.481  12.588   9.640 -0.0300  0.4215  0.1333
60988W        W 3901   8.892  18.032   0.065 -0.2528  0.3517  0.2059
60989W        W 3902   3.974   0.966   5.918  0.0665 -0.4585 -0.1021
60990W        W 3903   5.078   9.446   6.505  0.0671  0.0933  0.1635
60991W        W 3904  32.940  20.344   9.257  0.2341 -0.0194  0.1773
60992W        W 3905  18.632  16.719   3.415  0.0082 -0.0184  0.0583
60993W        W 3906  31.805  16.305  26.822  0.1269  0.1696  0.1521
60994W        W 3907   4.544  17.249   8.000 -0.1088  0.1083 -0.2552
60995W        W 3908   7.565   7.461   7.604 -0.3030 -0.1588  0.1265
60996W        W 3909  26.627  18.178   4.724 -0.1583 -0.1377 -0.1973
60997W        W 3910   7.668  26.814   9.358 -0.0371 -0.2166 -0.1759
60998W        W 3911   2.218  16.496   6.075 -0.1536  0.0344 -0.0546
60999W        W 3912   1.312  27.698   6.384  0.3745 -0.1317  0.1440
61000W        W 3913  29.159  20.230   4.742 -0.3111 -0.1658 -0.1699
61001W        W 3914  33.724   6.419   8.424  0.0557  0.3099  0.0306
61002W        W 3915   7.608   9.270  11.669 -0.0233 -0.2220 -0.0463
61003W        W 3916   0.618  23.308  29.440 -0.0816 -0.2651 -0.0301
61004W        W 3917  33.903  14.753   9.540 -0.2532 -0.1428  0.0665
61005W        W 3918  25.275  21.804   1.442  0.4549 -0.1270 -0.0030
61006W        W 3919  12.849  18.903   5.172  0.0405 -0.0984  0.2230
61007W        W 3920   5.412  22.588  28.282  0.0121 -0.0151  0.1175
61008W        W 3921   0.323  15.532   4.254 -0.0769 -0.0130 -0.0481
61009W        W 3922  10.465   7.363   7.734  0.1228  0.0496 -0.0382
61010W        W 3923  11.014  17.302   6.105  0.2931  0.2080  0.0141
61011W        W 3924  30.843   9.263  27.190  0.0184 -0.0083 -0.1249
61012W        W 3925   4.320  21.549   5.193  0.1884 -0.2330  0.0990
61013W        W 3926   4.179  26.327  10.924 -0.0620 -0.2525  0.0023
61014W        W 3927   2.992  18.633   6.855  0.1757 -0.0055  0.0416
61015W        W 3928  28.555  21.193  29.345  0.3567  0.0601 -0.0257
61016W        W 3929   3.201   8.115   8.283 -0.0687 -0.1139  0.2521
61017W        W 3930   0.419  12.129  28.716 -0.0426  0.1003  0.2936
61018W        W 3931   7.359  18.064   8.864 -0.4028 -0.0304 -0.2056
61019W        W 3932   2.082  12.555   9.703  0.0268 -0.3634 -0.0499
61020W        W 3933  27.057  10.702  22.550 -0.3599  0.1070  0.2248
61021W        W 3934   4.338  14.863   6.825  0.3535 -0.2490 -0.1548
61022W        W 3935  25.889  23.582   6.183 -0.0534  0.1085 -0.1342
61023W        W 3936   1.521  16.519   7.778  0.0120  0.0571  0.1148
61024W        W 3937   6.453  15.536   6.722 -0.0450  0.2649 -0.0246
61025W        W 3938   0.689  19.639   7.657  0.1136  0.0105  0.1165
61026W        W 3939   1.248  15.478   6.525 -0.1135  0.0331 -0.1396
61027W        W 3940  29.795  14.660   7.500  0.2132 -0.3739  0.1315
61028W        W 3941   2.187  18.072  24.137 -0.3340 -0.1588 -0.1251
61029W        W 3942  34.221  18.955   5.278 -0.0151 -0.0340 -0.1517
61030W        W 3943   7.441  18.099   0.249  0.1557 -0.0706 -0.4818
61031W        W 3944  27.431   4.927   5.620 -0.1518 -0.0887  0.3711
61032W        W 3945   7.451  13.857   6.960  0.0598  0.0706  0.0248
61033W        W 3946   9.901  13.269   4.847 -0.3481  0.1838  0.0625
61034W        W 3947   0.228  17.402   9.693 -0.1797 -0.1001  0.1956
61035W        W 3948   8.759   9.333   2.692 -0.1114 -0.1468 -0.0987
61036W        W 3949   5.735  19.668   3.853  0.0270  0.3896  0.0370
61037W        W 3950   4.470  10.933   8.876  0.0001  0.0812 -0.0416
61038W        W 3951   3.693  21.924   9.054 -0.0249 -0.1598  0.0588
61039W        W 3952  30.543   7.453  11.581  0.0696  0.0432  0.0844
61040W        W 3953   0.092   9.724   6.841 -0.0459  0.0053 -0.0148
61041W        W 3954  11.685  15.136  26.530  0.0936 -0.0484 -0.1560
61042W        W 3955  27.023  19.198   6.741 -0.1093 -0.2003 -0.0745
61043W        W 3956  29.729   9.514   3.839  0.0808 -0.0519  0.3269
61044W        W 3957   1.664   4.998   7.471 -0.2091 -0.0071  0.1961
61045W        W 3958   3.917   9.669  27.837  0.0562  0.0399  0.3013
61046W        W 3959  30.156   2.741   6.846  0.0893  0.0008 -0.3947
61047W        W 3960   5.924  11.696   0.015 -0.0505 -0.2213  0.0253
61048W        W 3961   3.665   8.729  10.204  0.0925 -0.1797  0.3819
61049W        W 3962   4.674  15.503  27.234  0.2287 -0.2435 -0.3095
61050W        W 3963  12.502   2.286  10.267  0.1626 -0.2468  0.1054
61051W        W 3964   6.116  16.722   7.277  0.2620  0.0364  0.0838
61052W        W 3965   0.752  25.333   6.038 -0.2419  0.0234  0.0418
61053W        W 3966  14.399  18.044  24.678 -0.1855 -0.2344 -0.2286
61054W        W 3967   0.514  21.531   3.381 -0.2046  0.0184  0.1042
61055W        W 3968   2.326  15.000   6.886 -0.0464 -0.1718  0.1827
61056W        W 3969   5.839  22.640   7.311 -0.0219 -0.1545  0.0262
61057W        W 3970   2.619  17.458   4.363  0.2210 -0.1049  0.1380
61058W        W 3971   9.528   2.586  12.755  0.3630 -0.1601  0.1166
61059W        W 3972   4.956   1.382   8.015  0.0867 -0.1204 -0.2421
61060W        W 3973  32.823  15.925  27.193 -0.0097  0.0062 -0.1988
61061W        W 3974   4.468  16.797   3.332 -0.1209  0.0811  0.0774
61062W        W 3975  30.635  22.581  27.933  0.1871  0.1302  0.2529
61063W        W 3976  31.224  13.410   1.285 -0.0551 -0.1241 -0.1332
61064W        W 3977  10.308  14.241   7.155 -0.0695 -0.1992  0.2839
61065W        W 3978   3.883  18.935   1.189  0.0943  0.2069 -0.1949
61066W        W 3979  12.861  13.891  26.503  0.1540 -0.0773  0.1998
61067W        W 3980   4.819   7.927   6.269 -0.0522 -0.1117 -0.2028
61068W        W 3981   3.676  19.004  22.331  0.0173 -0.0174 -0.3178
61069W        W 3982   1.375  17.023   5.836  0.0397  0.0370  0.0497
61070W        W 3983   5.306  18.102   0.539 -0.0046 -0.1627 -0.2089
61071W        W 3984   5.329  10.466  24.285 -0.2371  0.1346 -0.5020
61072W        W 3985   5.844  11.416  22.916  0.2474 -0.0312 -0.0736
61073W        W 3986   1.139  11.821   6.564  0.1381  0.4039 -0.5975
61074W        W 3987   5.385  21.462   3.597 -0.1658 -0.1763 -0.5108
61075W        W 3988  33.603   9.840  23.646 -0.1252 -0.1902 -0.3077
61076W        W 3989  32.303  15.344  28.199 -0.1602 -0.0619  0.1981
61077W        W 3990  34.182   0.530   0.237  0.0059 -0.1803  0.0750
61078W        W 3991  18.617  27.280   0.017  0.2302 -0.1711 -0.1387
61079W        W 3992  30.559  24.174   3.324  0.5598 -0.1271 -0.0026
61080W        W 3993   2.178  29.415   0.573  0.1156  0.3604 -0.0444
61081W        W 3994  30.877  30.780  25.461 -0.3686  0.0379  0.0269
61082W        W 3995  30.320  17.819   8.519 -0.0681  0.1014  0.0149
61083W        W 3996  18.881  21.117   1.355 -0.1773  0.1294 -0.0742
61084W        W 3997  32.198  19.178   9.002 -0.2693  0.0194 -0.2153
61085W        W 3998   5.755  14.539  25.588  0.0830 -0.2002  0.2486
61086W        W 3999  20.862   6.023   1.918 -0.0686  0.1545  0.1511
61087W        W 4000   4.112  18.966   4.249  0.2014 -0.2946 -0.1315
61088W        W 4001   4.075  28.326   1.398  0.2306 -0.1551 -0.0584
61089W        W 4002  26.527  23.675  19.690 -0.3052  0.3247 -0.1261
61090W        W 4003  34.466  29.287   7.608 -0.1211  0.2437  0.4976
61091W        W 4004  23.511  22.160  28.712  0.0373 -0.1802 -0.0210
61092W        W 4005   7.160  16.172  26.125  0.0710 -0.1748 -0.1096
61093W        W 4006  25.742  17.933   1.045 -0.2287 -0.2648  0.1824
61094W        W 4007   3.157  20.661   5.962  0.0516 -0.0231  0.0457
61095W        W 4008  25.615   8.385  20.661 -0.1169 -0.3435 -0.1230
61096W        W 4009   9.407  18.004   7.144  0.0268  0.3700  0.1516
61097W        W 4010   3.397  19.936  21.506 -0.2242  0.1795 -0.0472
61098W        W 4011  30.715  30.216  24.817 -0.1414  0.3576  0.0747
61099W        W 4012  33.891  16.142   4.119  0.1423 -0.1182 -0.1482
61100W        W 4013  21.342  27.847  26.165 -0.0165  0.2638  0.0943
61101W        W 4014  10.290   1.298   9.696  0.0362 -0.1522 -0.2483
61102W        W 4015   9.904  19.358   4.649  0.0885 -0.4381 -0.1443
61103W        W 4016  29.990  18.736   6.863  0.0970 -0.0987 -0.2130
61104W        W 4017  29.028  30.246  28.612 -0.0335  0.0646  0.1334
61105W        W 4018  29.410  30.947   9.596 -0.0624 -0.1112  0.0594
61106W        W 4019   8.361  18.344  28.020 -0.0911  0.2586  0.0725
61107W        W 4020   7.571  20.387   0.029 -0.1954  0.0092 -0.1310
61108W        W 4021   6.998  17.808   7.872  0.3299 -0.3057 -0.1299
61109W        W 4022  28.186  21.674   1.955 -0.1357  0.4498  0.0656
61110W        W 4023   6.779  16.956  26.616  0.0078 -0.2870 -0.0946
61111W        W 4024   9.727  20.183   5.640 -0.0520  0.0977 -0.2959
61112W        W 4025   2.730  26.043  26.534 -0.3378 -0.0391 -0.0603
61113W        W 4026  11.806  11.913  28.454 -0.0855  0.0593 -0.2068
61114W        W 4027   4.581  19.603   1.032  0.2833 -0.1583  0.0068
61115W        W 4028  20.578  33.139   0.928 -0.0653  0.1751 -0.0526
61116W        W 4029  32.633  30.013   6.040 -0.1269  0.0218  0.2376
61117W        W 4030  32.454  25.883   2.923 -0.2173  0.1606 -0.0472
61118W        W 4031  32.254  15.955   2.878  0.1080 -0.0022 -0.1326
61119W        W 4032   6.366  24.159   8.062 -0.1668 -0.2444 -0.0706
61120W        W 4033  26.948  18.466  29.170 -0.2255 -0.1520 -0.0460
61121W        W 4034  32.932  14.625   3.959 -0.1097 -0.2899 -0.0322
61122W        W 4035  30.948  15.377  16.161 -0.0118  0.0365 -0.2595
61123W        W 4036   7.967  18.772   3.625  0.0123 -0.0236  0.4172
61124W        W 4037  32.063   4.203  10.196  0.2493 -0.1797 -0.1784
61125W        W 4038   5.786  24.584   8.845 -0.0276  0.1001 -0.1018
61126W        W 4039   1.245  24.238  24.986  0.1938 -0.0113  0.2748
61127W        W 4040   3.529  24.652  23.014 -0.1273  0.2108  0.1174
61128W        W 4041   7.845  19.422   4.832 -0.0421  0.1893 -0.1716
61129W        W 4042  27.187  18.242  21.893  0.0593  0.1215 -0.1938
61130W        W 4043  15.990  12.178  23.584 -0.0275 -0.0181 -0.0338
61131W        W 4044  32.890  17.485   4.782  0.0336 -0.0167  0.3615
61132W        W 4045  32.019  16.739   2.540 -0.1906  0.2491  0.2602
61133W        W 4046   0.116  26.043   0.501 -0.0692 -0.0865 -0.4091
61134W        W 4047  33.198  26.589   3.838  0.0674 -0.0383  0.2535
61135W        W 4048   9.741  19.893   9.716  0.0326 -0.2276 -0.3189
61136W        W 4049  26.361  20.929   5.615 -0.1344 -0.0152 -0.1765
61137W        W 4050   0.953  11.351   6.480 -0.1694  0.0480  0.0034
61138W        W 4051   6.820  14.913  10.370  0.0946 -0.0168 -0.1511
61139W        W 4052   3.964  15.317   9.272 -0.1411  0.1875  0.1551
61140W        W 4053   8.536  15.338  22.909 -0.0099 -0.2477 -0.2114
61141W        W 4054   5.649  25.414   5.833  0.1622  0.1595 -0.1154
61142W        W 4055   4.623  16.028   9.817  0.1242  0.0603  0.0133
61143W        W 4056  11.085  17.603   3.694  0.4204 -0.2802 -0.1974
61144W        W 4057  32.320  19.691  21.528 -0.1234  0.0602 -0.0380
61145W        W 4058   4.438  20.636   8.545 -0.0456 -0.1677 -0.1903
61146W        W 4059  32.929  22.721   9.067  0.2278  0.2836  0.2052
61147W        W 4060   4.825  13.231   2.729  0.0963  0.5270  0.0806
61148W        W 4061  33.426  25.329  24.800  0.1329  0.0549 -0.1310
61149W        W 4062  26.182  19.807  17.595 -0.0089 -0.4983  0.0828
61150W        W 4063   3.390  28.838  10.615  0.4242  0.0073 -0.2238
61151W        W 4064   4.895  27.055   7.389 -0.2201 -0.4784  0.1524
61152W        W 4065   1.693  13.989  26.193 -0.2440  0.0351  0.2425
61153W        W 4066   9.217  10.564   9.360  0.2386 -0.2406 -0.0590
61154W        W 4067  23.675  23.191   0.301  0.2771 -0.0229  0.3097
61155W        W 4068   5.603  11.838  23.280 -0.0178  0.2303 -0.1011
61156W        W 4069  30.466  33.666   3.015 -0.4675 -0.1814 -0.1587
61157W        W 4070   0.921  21.559  22.287 -0.2416  0.1931  0.0669
61158W        W 4071   9.491  17.374  22.378  0.0065  0.1704  0.0810
61159W        W 4072   4.413  25.132  18.401 -0.1114 -0.1210 -0.0455
61160W        W 4073  29.423  19.806   8.162  0.0226 -0.4033  0.0770
61161W        W 4074  31.343   4.452  27.503  0.2670  0.1194 -0.0535
61162W        W 4075  28.856  13.510  27.319  0.4387 -0.1212 -0.1568
61163W        W 4076  24.513  11.982   4.776 -0.1233 -0.0772  0.0139
61164W        W 4077   0.065  25.155   2.230 -0.2181  0.2952 -0.0512
61165W        W 4078   4.394  16.408   4.284  0.3179 -0.0299  0.0868
61166W        W 4079  34.147   4.572  28.680 -0.0153 -0.0175  0.0694
61167W        W 4080   1.159  18.816  17.077 -0.3177  0.3825 -0.4179
61168W        W 4081  29.683  16.521  24.216  0.1455 -0.0750 -0.3208
61169W        W 4082  33.390  21.938   2.692 -0.1392 -0.0812 -0.2568
61170W        W 4083  11.784  20.166   1.766 -0.2520 -0.1142  0.1796
61171W        W 4084   8.615  24.508  28.546 -0.1264 -0.1497  0.2017
61172W        W 4085  32.687   7.680  25.943 -0.1493 -0.3267  0.0565
61173W        W 4086  33.927  20.341   0.192  0.0736 -0.0247 -0.2656
61174W        W 4087   5.701   3.655  19.398 -0.1621  0.3371 -0.0925
61175W        W 4088   2.576  10.827  26.301  0.3253 -0.0074 -0.4519
61176W        W 4089   6.006  28.243   3.188  0.1388  0.1835 -0.0452
61177W        W 4090   4.961  16.852  28.968  0.1131  0.2508  0.1863
61178W        W 4091   2.385  12.797  26.810  0.1166 -0.2012 -0.0317
61179W        W 4092  33.091  25.003   0.740  0.1525 -0.1936  0.1661
61180W        W 4093  32.587  12.945   1.931  0.0603 -0.0226 -0.1024
61181W        W 4094   7.554  13.117   0.485 -0.0116 -0.0967 -0.0642
61182W        W 4095   5.959  19.944   0.259  0.0973  0.1688 -0.0014
61183W        W 4096   6.579  32.400   5.279  0.2037  0.2617  0.1234
61184W        W 4097  26.003  27.859   0.549 -0.0850  0.0064  0.1992
61185W        W 4098   3.317  18.959  26.194  0.0529  0.2255 -0.3398
61186W        W 4099  28.007  25.816   0.376 -0.1170  0.0591 -0.1814
61187W        W 4100  19.857  21.452  21.667 -0.0171 -0.1096  0.0092
61188W        W 4101   4.570  29.110  15.841 -0.2410  0.0012 -0.0606
61189W        W 4102   7.034   6.426  25.034 -0.0131  0.0477 -0.0236
61190W        W 4103  12.270  21.292   2.912  0.1560 -0.1934  0.4067
61191W        W 4104  11.414  17.825   2.069  0.2443 -0.1938 -0.2787
61192W        W 4105  29.700  23.142   2.356  0.0636  0.0617 -0.0125
61193W        W 4106   9.038  27.239  27.178 -0.3834 -0.0160 -0.1122
61194W        W 4107  28.377  21.011  26.192 -0.0876 -0.1362 -0.0982
61195W        W 4108  12.178  18.912  21.213 -0.4423 -0.0127 -0.2970
61196W        W 4109  31.215  30.176  29.519 -0.1569 -0.1216  0.0732
61197W        W 4110   1.280  20.846   6.929 -0.0861 -0.0221  0.2319
61198W        W 4111   5.508  14.197   4.178 -0.1738 -0.0859 -0.3736
61199W        W 4112  15.046  21.204   2.533 -0.3309  0.0730 -0.1738
61200W        W 4113  17.528   1.631   3.811  0.0198  0.3589  0.1326
61201W        W 4114  11.117  16.605   3.017  0.3949  0.2629 -0.0446
61202W        W 4115   7.597  25.673  10.409 -0.0363 -0.0563 -0.2784
61203W        W 4116   0.525  14.796  25.275  0.1892 -0.0603  0.0860
61204W        W 4117  17.548  30.140   1.857  0.2389  0.0623 -0.3656
61205W        W 4118   8.320   6.492  29.363  0.3849  0.0739  0.1169
61206W        W 4119   0.490  18.715  26.726  0.1407  0.2405  0.0208
61207W        W 4120  25.242  22.656   1.982  0.1439 -0.3299 -0.0185
61208W        W 4121  10.945  21.397   2.832  0.2187  0.0470  0.1799
61209W        W 4122   1.683  13.370  27.256 -0.2338 -0.1251  0.1874
61210W        W 4123   1.682  20.975  20.192  0.1402 -0.3811 -0.1094
61211W        W 4124  25.850  20.931  25.929 -0.2373 -0.1458 -0.2150
61212W        W 4125  30.545   9.835  23.938  0.0054 -0.0220 -0.2169
61213W        W 4126  13.874  15.981   1.383 -0.1112  0.1821  0.1752
61214W        W 4127  30.439  16.005  26.186  0.3440  0.1018 -0.1893
61215W        W 4128  33.781  14.216   5.605 -0.1142 -0.1217 -0.0250
61216W        W 4129   5.028  14.660  24.518 -0.2140  0.1036 -0.0316
61217W        W 4130  30.055  19.971   1.599  0.3360  0.1134 -0.0834
61218W        W 4131  32.778  21.719   7.377  0.0922 -0.1124  0.0715
61219W        W 4132   3.920  16.921   8.646 -0.1301 -0.0041  0.1780
61220W        W 4133   1.354  19.597   3.424 -0.0072 -0.0961  0.1148
61221W        W 4134   7.206  26.513   7.025 -0.3583 -0.3828  0.0622
61222W        W 4135   8.911  16.713   2.657 -0.0611  0.4255  0.1476
61223W        W 4136  28.290  23.578   0.665  0.1115 -0.0590  0.2406
61224W        W 4137   1.068  13.272   5.559  0.2488 -0.0075  0.0713
61225W        W 4138   8.991  16.736   4.274  0.1446 -0.0387  0.1020
61226W        W 4139   9.328  18.703   0.877  0.1247  0.2167  0.0948
61227W        W 4140  23.850   6.605   7.355 -0.0786  0.1831  0.0398
61228W        W 4141  10.855  27.464  10.388  0.0881 -0.2596  0.1968
61229W        W 4142   5.199  21.538   9.122 -0.1475 -0.1802 -0.0934
61230W        W 4143  33.724  20.527  27.957  0.0540 -0.1645 -0.0604
61231W        W 4144   5.443  21.317  27.928  0.2155 -0.1562  0.1458
61232W        W 4145   4.168   8.544  28.793  0.1575  0.1138  0.1471
61233W        W 4146   1.672  20.315  29.354  0.1237 -0.0421  0.2141
61234W        W 4147   2.287  19.617   3.860  0.1617 -0.0101  0.2740
61235W        W 4148  10.157  22.514  10.147 -0.1913  0.0991  0.2350
61236W        W 4149   8.115  21.352  22.991 -0.2631  0.1473 -0.2213
61237W        W 4150  34.150  12.896  25.373  0.2607  0.2563 -0.0900
61238W        W 4151  31.210  20.003   2.593  0.2784 -0.3802  0.3747
61239W        W 4152  22.385  22.847   2.451 -0.2906 -0.1449  0.1429
61240W        W 4153   8.920  18.480  29.491 -0.1825  0.2780  0.0586
61241W        W 4154   4.397  24.710   0.912  0.1548 -0.3208 -0.0370
61242W        W 4155   0.483  28.422  21.103 -0.2980  0.1193 -0.2061
61243W        W 4156   7.840  20.640  21.145  0.0103 -0.0632  0.0469
61244W        W 4157  11.754  14.215  27.414  0.3490 -0.2106  0.2572
61245W        W 4158  26.833  14.166   5.162 -0.0945  0.0722  0.2360
61246W        W 4159  18.183  14.403   8.319  0.1140  0.1278 -0.4100
61247W        W 4160  10.527   9.172   3.227 -0.3544 -0.1777  0.1007
61248W        W 4161   1.655  23.363   5.434 -0.2148  0.1208 -0.2341
61249W        W 4162  20.560  21.968  28.057  0.3290  0.2652  0.1923
61250W        W 4163   1.551  22.865   5.372  0.2352 -0.0592 -0.2192
61251W        W 4164   3.922  11.699  26.912  0.2885  0.1609 -0.1079
61252W        W 4165  24.678  16.519   9.555  0.0723  0.1998 -0.2832
61253W        W 4166   7.230  18.112  24.320 -0.0145  0.0719 -0.1116
61254W        W 4167  27.929  28.115   3.558 -0.1214 -0.1852  0.0682
61255W        W 4168   3.928  20.185  23.664 -0.0866  0.2146 -0.0289
61256W        W 4169   3.076  28.238   3.203 -0.5368 -0.3145 -0.0919
61257W        W 4170  24.689   3.366  25.933 -0.2807 -0.1631 -0.0894
61258W        W 4171  11.962  22.745   4.001 -0.0474 -0.1363 -0.0766
61259W        W 4172  28.733  15.442   7.583  0.3492 -0.1009 -0.2344
61260W        W 4173   2.512  21.448   7.898 -0.2069  0.1476  0.2351
61261W        W 4174   7.959  25.930  24.276 -0.2126 -0.4103 -0.0558
61262W        W 4175   7.893  19.942   8.736 -0.1477  0.1466  0.0223
61263W        W 4176  31.031  19.416  25.703  0.3879 -0.1567 -0.4105
61264W        W 4177  10.921  18.584  28.606 -0.0089 -0.1038 -0.2185
61265W        W 4178   1.382  12.580  27.129 -0.0850 -0.0501 -0.0145
61266W        W 4179  25.692  15.036   7.282  0.1076  0.0234  0.0697
61267W        W 4180  13.531  14.316   2.213  0.1372 -0.1053  0.0940
61268W        W 4181  26.835  11.286   7.219  0.1429 -0.0253  0.0455
61269W        W 4182  32.919  12.715  16.418  0.0060  0.0092  0.1867
61270W        W 4183  32.086  19.356   1.138 -0.2816  0.0845 -0.1465
61271W        W 4184   1.388  15.142   2.150  0.0971 -0.0810 -0.0737
61272W        W 4185   2.200  26.575   2.876 -0.0516 -0.0379 -0.0459
61273W        W 4186  26.756  19.391  25.966  0.0997  0.0491  0.3170
61274W        W 4187   8.124  19.582   5.293 -0.0473 -0.3284 -0.0141
61275W        W 4188   3.348  31.321   2.217  0.0191 -0.0588  0.1075
61276W        W 4189   1.529  19.266  10.260  0.1995 -0.0625 -0.0925
61277W        W 4190  23.423  20.661  29.082  0.0268  0.0139  0.0321
61278W        W 4191   9.491  21.601   0.630 -0.1787  0.0504 -0.1410
61279W        W 4192  34.029  14.474  29.085 -0.3053  0.0215 -0.1152
61280W        W 4193   4.712  27.938   3.241  0.0953  0.1155 -0.0601
61281W        W 4194  31.034  18.701   3.097  0.2045  0.1379  0.2635
61282W        W 4195   1.645  22.707  28.949 -0.1916 -0.3155  0.2449
61283W        W 4196   5.696  31.415  28.087  0.1511 -0.4355 -0.1273
61284W        W 4197   3.542  32.772   2.885  0.2280 -0.1634 -0.4270
61285W        W 4198   1.418  18.799   6.861  0.5102 -0.0900  0.1374
61286W        W 4199  28.199   6.947   9.062 -0.2197  0.0420  0.0832
61287W        W 4200   5.538  15.501   8.314  0.0238 -0.3530  0.1259
61288W        W 4201   3.773  15.552   1.524 -0.1142 -0.1117  0.2218
61289W        W 4202   1.136  21.000  26.884 -0.0274 -0.0485  0.2733
61290W        W 4203   1.315  26.094   0.851 -0.2846 -0.0049 -0.0746
61291W        W 4204   1.940  23.100  29.237 -0.0809  0.0872  0.0618
61292W        W 4205  28.469   1.130   7.869  0.0204  0.0323 -0.3057
61293W        W 4206   7.300  31.705  29.496  0.1963 -0.0586 -0.1523
61294W        W 4207   2.764  17.804  21.441 -0.1184 -0.0679 -0.0600
61295W        W 4208  11.759  16.093   0.760 -0.0510 -0.0721  0.4714
61296W        W 4209   5.863  12.735   7.923 -0.1955 -0.1727  0.1196
61297W        W 4210   6.472  22.738   8.313 -0.3689  0.1882  0.0446
61298W        W 4211  11.413  18.706  12.361  0.0984  0.0286  0.0507
61299W        W 4212  11.325  18.833  22.548 -0.2696 -0.0397  0.0768
61300W        W 4213  29.937  30.785  27.774  0.2221  0.0192  0.2509
61301W        W 4214   8.673  15.438  28.868 -0.1297 -0.1222  0.0255
61302W        W 4215  32.850  23.222   0.973  0.2925 -0.0263 -0.0712
61303W        W 4216   4.624  17.156   3.659  0.0195 -0.0636 -0.1638
61304W        W 4217  30.867  28.297  28.617  0.3470  0.4573 -0.0792
61305W        W 4218  32.066  17.982  26.178 -0.2088 -0.0387  0.2238
61306W        W 4219   0.637  18.925   2.026  0.1352 -0.0444  0.2315
61307W        W 4220   9.525  20.277   6.757  0.1940 -0.2244 -0.0234
61308W        W 4221   1.062  18.871  25.466 -0.0719  0.1973  0.0229
61309W        W 4222  33.544  24.376   4.049 -0.2121  0.0991 -0.0551
61310W        W 4223   0.337  12.132   3.329 -0.0512  0.1837 -0.1647
61311W        W 4224  11.883  18.469  26.991  0.2499  0.0170 -0.0634
61312W        W 4225   7.528  24.932   5.186 -0.1444 -0.0882  0.0285
61313W        W 4226  27.134  19.680   9.662 -0.1246  0.2698  0.2978
61314W        W 4227   0.820  17.422   0.676  0.1318 -0.0120 -0.0260
61315W        W 4228  32.608  23.382  20.414  0.0433 -0.0919 -0.0424
61316W        W 4229  21.264  18.938   4.779 -0.2614 -0.1011  0.0660
61317W        W 4230  32.868   8.590   0.985  0.0754 -0.1735  0.1447
61318W        W 4231   8.552  22.410   0.718 -0.0468 -0.0764  0.0065
61319W        W 4232  32.172  20.106   7.737 -0.1394  0.1230  0.0240
61320W        W 4233   9.891   8.989  23.243  0.0606  0.4235  0.3913
61321W        W 4234  28.756  33.419   2.656 -0.0196 -0.1265 -0.1032
61322W        W 4235  13.552  26.749   5.072  0.0718  0.1067 -0.1499
61323W        W 4236  33.343  18.015  29.239  0.0623  0.0832 -0.1267
61324W        W 4237  32.734  10.469   3.120  0.1680 -0.2906  0.2034
61325W        W 4238   2.331   9.526  29.230  0.0541  0.0917 -0.1223
61326W        W 4239   3.561  28.260   7.326  0.0845  0.3832  0.0757
61327W        W 4240   1.310  20.864  26.060  0.2434 -0.0021 -0.0465
61328W        W 4241   5.553  32.616   1.891  0.1240 -0.0774  0.2588
61329W        W 4242   1.235  24.026  21.466 -0.2044  0.1292 -0.2325
61330W        W 4243   5.788  14.561   1.084 -0.0159 -0.0991  0.1148
61331W        W 4244   8.489  19.454  19.915  0.3016  0.2662  0.3486
61332W        W 4245  33.074  16.502   3.172 -0.0986 -0.0283 -0.1471
61333W        W 4246  23.289  21.823  28.934  0.1357 -0.1196  0.0732
61334W        W 4247   3.543  16.042   9.042  0.0839 -0.1488 -0.0160
61335W        W 4248   4.575  23.207   2.011 -0.1588 -0.1144 -0.2049
61336W        W 4249   8.695  17.351  28.228  0.2791 -0.0514  0.3089
61337W        W 4250   9.288  16.259   4.392 -0.0674 -0.0698 -0.2356
61338W        W 4251  28.282  32.883   8.813  0.2289 -0.2188  0.0076
61339W        W 4252   4.800  17.483  21.256  0.4070  0.0228 -0.1799
61340W        W 4253  26.952  15.242  27.777 -0.1757  0.1454  0.2649
61341W        W 4254  15.859  16.427   1.506 -0.0574 -0.2653 -0.2447
61342W        W 4255  31.801  22.293   6.771  0.2658 -0.0462 -0.1460
61343W        W 4256  28.966  25.444  25.847 -0.1438  0.2352 -0.0997
61344W        W 4257  26.410  25.568  27.654  0.0815 -0.1108 -0.2103
61345W        W 4258   2.757  14.742   5.727  0.0502 -0.1030  0.1367
61346W        W 4259  28.077  26.435   1.671  0.0759  0.1591 -0.2173
61347W        W 4260   8.956  27.744   0.466 -0.0124  0.1869 -0.3336
61348W        W 4261  33.424  12.952   5.810  0.1141 -0.0382  0.1959
61349W        W 4262   3.156  28.555   8.102  0.0799 -0.0190 -0.1803
61350W        W 4263   4.445  16.469  26.270 -0.2997 -0.1484 -0.0485
61351W        W 4264  12.270  17.983   8.032  0.1426  0.1828  0.2239
61352W        W 4265   2.341   7.433   0.097  0.3073 -0.0261 -0.1819
61353W        W 4266   2.168  33.208  25.250  0.5823  0.2450  0.3416
61354W        W 4267   0.522  22.774   1.152 -0.2513 -0.2061 -0.1081
61355W        W 4268  33.777  13.825  28.820 -0.1080  0.1513  0.3005
61356W        W 4269  22.993  12.083  21.094 -0.0077 -0.3005  0.0713
61357W        W 4270  10.182  19.730   1.230 -0.2596  0.0461  0.2007
61358W        W 4271  31.426  23.723   6.548 -0.2233 -0.3340 -0.0116
61359W        W 4272   3.509  14.004   5.138 -0.1017 -0.0230  0.2856
61360W        W 4273   4.733  26.042   6.621  0.0957 -0.0286  0.0408
61361W        W 4274  31.936  27.975  29.560 -0.0652  0.1012  0.1435
61362W        W 4275   9.201  19.095  27.678  0.0897 -0.0269 -0.0017
61363W        W 4276  29.322  19.590   9.761 -0.4363  0.2369  0.0768
61364W        W 4277   2.278  17.827   9.175  0.2561  0.5271  0.0751
61365W        W 4278   3.968  14.516  27.737  0.1275  0.0464 -0.0748
61366W        W 4279   4.016  24.590   2.700  0.0641 -0.1610 -0.2439
61367W        W 4280  13.721  19.715   3.142  0.3674  0.2514  0.1306
61368W        W 4281   5.178  17.099  27.471 -0.0229  0.2348 -0.0259
61369W        W 4282  32.208   2.512  27.238 -0.1154  0.5401  0.1981
61370W        W 4283   3.327  28.649   0.719 -0.1687  0.0608 -0.0393
61371W        W 4284   7.636  18.949  19.030  0.0042 -0.3220 -0.0396
61372W        W 4285   4.428  20.784  27.791  0.0023  0.0124 -0.3672
61373W        W 4286  29.626  16.675  27.582  0.2707 -0.0192  0.1905
61374W        W 4287   3.246  24.173  21.410 -0.0523  0.3427  0.0214
61375W        W 4288   4.540  23.847   8.225 -0.1533  0.0741 -0.2603
61376W        W 4289  24.593  14.666  22.062  0.0161  0.0298 -0.1289
61377W        W 4290   7.669  21.865  26.373 -0.0699  0.0074  0.0932
61378W        W 4291   6.497  18.847  20.389  0.2171  0.1485  0.1019
61379W        W 4292   0.177  22.660   1.987  0.0437  0.0451 -0.0833
61380W        W 4293  34.193  13.483  27.722 -0.0050 -0.0344 -0.2458
61381W        W 4294  33.034  18.955   0.805  0.0945  0.0723  0.1128
61382W        W 4295   2.925  27.201   1.536 -0.1669 -0.0511  0.2871
61383W        W 4296  33.879  14.195   9.906  0.2832  0.0754  0.0269
61384W        W 4297  27.640  19.873  16.412 -0.0408 -0.1929  0.1586
61385W        W 4298  29.298  28.994   4.398  0.5212  0.1005  0.2315
61386W        W 4299  12.316  17.993   1.780  0.0910  0.0111 -0.1603
61387W        W 4300  30.156  22.185   6.771  0.0252 -0.0769 -0.4701
61388W        W 4301  33.468  24.382  24.867  0.1540 -0.0161 -0.3104
61389W        W 4302   1.323  14.664  23.443  0.0767 -0.2189 -0.2121
61390W        W 4303  26.628  26.308   9.069  0.1799 -0.2233  0.0735
61391W        W 4304  32.922  13.154   1.533 -0.1216  0.2423  0.3818
61392W        W 4305   7.617  25.884   1.793 -0.0235  0.0583 -0.0033
61393W        W 4306   6.869  21.408   4.949  0.1753 -0.4385  0.0645
61394W        W 4307  31.912  18.573   8.412 -0.1011 -0.0501 -0.1816
61395W        W 4308  27.673  33.372   7.805 -0.1544  0.1649 -0.1259
61396W        W 4309  17.309  26.698   3.415  0.1793  0.1563 -0.1501
61397W        W 4310   9.090  12.882   3.747 -0.4655 -0.3958  0.0142
61398W        W 4311   1.166  10.409  10.170 -0.1541 -0.0058 -0.1540
61399W        W 4312   2.710  18.368  15.007  0.2021  0.0353 -0.0932
61400W        W 4313  33.815  12.638   8.504 -0.0989  0.0900  0.0656
61401W        W 4314   8.491  20.970   4.642 -0.2411 -0.0541 -0.0060
61402W        W 4315  34.207  29.073  10.348 -0.4312  0.1286  0.1582
61403W        W 4316   1.266  18.048  29.432  0.2527  0.1048 -0.1048
61404W        W 4317  30.562  26.613   2.635 -0.0711 -0.0014  0.4048
61405W        W 4318   3.821  17.724   0.321  0.2073 -0.0836  0.0030
61406W        W 4319  30.663  26.956   4.659 -0.2402 -0.1342  0.2110
61407W        W 4320   3.240  16.140  17.911 -0.0435  0.0636 -0.1336
61408W        W 4321  28.350  24.710  24.407  0.1230 -0.0188  0.0297
61409W        W 4322  10.354  21.649   2.900  0.1485 -0.0288  0.0289
61410W        W 4323  33.948  24.404  23.396 -0.0434 -0.0817  0.2527
61411W        W 4324  27.502  22.510   4.640 -0.1538 -0.0063  0.4191
61412W        W 4325   1.938  12.851   3.737 -0.3081 -0.1848  0.2052
61413W        W 4326  15.017  28.314  27.923  0.1645  0.0144 -0.1449
61414W        W 4327   6.178  10.049  19.858  0.0316  0.1102 -0.1316
61415W        W 4328  33.239  27.742  22.737  0.1499 -0.3076  0.2635
61416W        W 4329  33.108  12.864   4.476  0.1880 -0.1192  0.1045
61417W        W 4330   9.216   6.526   3.061 -0.0790  0.2820 -0.1458
61418W        W 4331   3.328  18.513  23.580  0.0791  0.3025  0.1539
61419W        W 4332  22.705  19.876   6.946 -0.2563  0.1726  0.1136
61420W        W 4333   0.861  11.472   4.943  0.1249  0.0565  0.1106
61421W        W 4334   4.773  22.381  27.341  0.0354  0.0861  0.2598
61422W        W 4335  31.367  14.028   1.489 -0.0435 -0.1431  0.0136
61423W        W 4336  31.484  17.689  29.713 -0.1020  0.0606  0.1471
61424W        W 4337   2.908  19.128  19.420 -0.1730 -0.2980  0.0681
61425W        W 4338  11.102  15.659   0.590 -0.0756 -0.2047  0.2579
61426W        W 4339  14.818  14.239  28.170  0.0815 -0.2741 -0.1100
61427W        W 4340   8.599  23.030  26.813 -0.2415  0.0354  0.2795
61428W        W 4341  31.144  11.503  27.267  0.0697 -0.0365 -0.1102
61429W        W 4342   7.080  14.680   2.899  0.1702  0.1604  0.0941
61430W        W 4343  12.123  21.554  26.967 -0.4194 -0.1953  0.1577
61431W        W 4344   2.159  16.630  26.230  0.2604  0.0214 -0.1886
61432W        W 4345   9.903  20.970   7.926  0.0861  0.1043  0.1638
61433W        W 4346   1.828  26.576   7.742  0.2801  0.4655 -0.0895
61434W        W 4347  30.368  18.560   3.842 -0.1858  0.0475  0.1431
61435W        W 4348  13.486  14.185   4.686 -0.0168 -0.0931 -0.0883
61436W        W 4349  10.535  27.988   6.244  0.2738  0.0667  0.0582
61437W        W 4350  31.377  19.942  23.099  0.2179 -0.3034  0.0661
61438W        W 4351   3.500   9.109   3.693 -0.0840  0.0865 -0.0299
61439W        W 4352   4.010  27.905  28.255 -0.0515 -0.4202 -0.1056
61440W        W 4353   2.014  24.044  28.494  0.0521  0.2525 -0.2181
61441W        W 4354  11.168  26.577  26.383 -0.3468  0.1179  0.1227
61442W        W 4355  27.564  26.696   0.130 -0.1697 -0.5044 -0.1308
61443W        W 4356  32.512  17.708   3.305 -0.1502  0.1198 -0.2525
61444W        W 4357   5.327  26.490   2.764  0.0626 -0.2191  0.3300
61445W        W 4358  18.562  23.431   7.819  0.0880 -0.2167  0.1158
61446W        W 4359  18.475  20.891  28.433  0.2677  0.0655  0.1060
61447W        W 4360  23.990  16.024   3.375  0.0102  0.3252 -0.2535
61448W        W 4361  14.299  24.667   3.713  0.1087 -0.2077 -0.1625
61449W        W 4362   3.256  27.243   0.885 -0.1541 -0.3090  0.0126
61450W        W 4363  33.520  23.439  24.416 -0.0407 -0.1400 -0.0847
61451W        W 4364   4.126  19.762   3.991  0.0040 -0.1777 -0.0633
61452W        W 4365  32.023  16.314   3.867  0.1038  0.5247 -0.0855
61453W        W 4366   6.499   7.758   0.959 -0.1891 -0.1360  0.1125
61454W        W 4367  11.339  18.536   3.258 -0.0016  0.1177  0.0743
61455W        W 4368  34.434  21.622   0.341 -0.1644  0.0571 -0.1931
61456W        W 4369   1.982  23.354  26.231 -0.2861  0.0454 -0.1254
61457W        W 4370  29.401  22.535  19.137 -0.2014 -0.2910 -0.2639
61458W        W 4371   7.285  32.821   4.680  0.1071 -0.1123  0.1607
61459W        W 4372  29.099  26.389   1.020 -0.0091 -0.3465  0.0341
61460W        W 4373   5.732  14.924  26.096  0.0617 -0.1131  0.1480
61461W        W 4374  10.932  14.525  23.835  0.3520  0.0810 -0.3877
61462W        W 4375  22.543   8.148  28.959 -0.0705  0.3490 -0.0798
61463W        W 4376  30.197  19.211   7.015 -0.2591  0.1583  0.1920
61464W        W 4377  16.079  15.600  23.073 -0.2152 -0.0472 -0.2877
61465W        W 4378   2.069  26.286   3.880 -0.0127 -0.1187 -0.1168
61466W        W 4379  33.535   1.342  29.522  0.0982 -0.1199 -0.0407
61467W        W 4380   0.797  20.969   6.046  0.2012  0.2036 -0.0911
61468W        W 4381  32.016  25.377   7.797 -0.1115  0.0232 -0.1650
61469W        W 4382   8.998  26.888   9.030  0.2368  0.0230  0.2887
61470W        W 4383   2.389  13.704  22.848  0.2755 -0.0281 -0.1394
61471W        W 4384  10.267   8.967   9.056 -0.0954 -0.0712  0.2906
61472W        W 4385  28.544  14.093   6.628 -0.1871 -0.0520 -0.2588
61473W        W 4386   0.090   5.673  23.008  0.1803  0.1270 -0.1547
61474W        W 4387  28.930  19.858   7.293  0.2560  0.1371 -0.0990
61475W        W 4388   1.548  23.789   6.624 -0.0140 -0.0636  0.0277
61476W        W 4389   6.661  17.605   1.885  0.0814  0.3720 -0.1148
61477W        W 4390   2.916  32.170  27.809  0.1259  0.0166 -0.0648
61478W        W 4391  13.461  19.574   8.214 -0.0896  0.0323  0.1647
61479W        W 4392  32.256  16.516   4.833  0.0244 -0.2087 -0.1023
61480W        W 4393   2.026   4.609  22.613 -0.0452  0.2054 -0.0501
61481W        W 4394  33.549   8.011   0.466 -0.1274 -0.0177  0.1868
61482W        W 4395  33.487  15.894   8.329 -0.1595  0.1601  0.1048
61483W        W 4396   8.394  29.627  10.036 -0.2744 -0.2873  0.0149
61484W        W 4397  25.853  17.390   2.682  0.4488  0.2964 -0.0927
61485W        W 4398   4.750  13.526   6.128  0.1504 -0.0573 -0.1463
61486W        W 4399  26.823  18.925   5.269  0.0568  0.0598 -0.0881
61487W        W 4400  32.304  17.900  23.869  0.0864  0.1106 -0.0010
61488W        W 4401  20.341  14.475  28.177 -0.1899 -0.0072  0.3121
61489W        W 4402  31.153  22.818  27.090 -0.2105 -0.1196 -0.0431
61490W        W 4403   6.839  15.348   0.569 -0.0801  0.1809  0.1107
61491W        W 4404  30.271   9.897   4.429 -0.1484 -0.0133  0.0999
61492W        W 4405   1.561  19.331   9.512  0.1813 -0.0403  0.2665
61493W        W 4406   8.624  20.143   3.372 -0.2273 -0.0277  0.0056
61494W        W 4407  23.303  23.082   1.081 -0.0910 -0.2070 -0.1809
61495W        W 4408   0.475  25.231   8.762  0.0357  0.0246 -0.0370
61496W        W 4409   5.084  20.547   4.519 -0.1856 -0.1945  0.0100
61497W        W 4410   2.928  12.756   6.435  0.1242  0.0644 -0.0488
61498W        W 4411   1.637  24.030   8.185 -0.1060 -0.3586  0.0700
61499W        W 4412  33.527  27.052   3.379  0.0537 -0.2364  0.0117
61500W        W 4413   3.888  18.015  25.685 -0.0171 -0.5625 -0.0004
61501W        W 4414   7.512  31.176  25.867 -0.2996 -0.2026 -0.1340
61502W        W 4415  26.010  15.528  27.982 -0.0089 -0.0240 -0.3900
61503W        W 4416   3.522  29.427   1.490  0.1558 -0.0628  0.1340
61504W        W 4417   9.620  14.344  29.390  0.0212 -0.2522  0.2115
61505W        W 4418   7.325  28.277   3.516 -0.0390 -0.1205 -0.0575
61506W        W 4419   5.008  29.290   0.743  0.1733  0.2872 -0.2763
61507W        W 4420  33.004  32.804   6.619  0.0852 -0.1590 -0.3058
61508W        W 4421   3.246  16.215   0.210  0.2903 -0.1483  0.2368
61509W        W 4422   7.223  25.417   3.117  0.3332 -0.2163 -0.2835
61510W        W 4423  31.941  12.491   1.249  0.0237 -0.2595  0.0198
61511W        W 4424  32.958  26.923   7.583  0.0983  0.1989  0.0204
61512W        W 4425   3.936   9.231  10.020 -0.0010 -0.1921 -0.0128
61513W        W 4426  30.259  17.497  10.348 -0.4321  0.1983 -0.0163
61514W        W 4427   3.319  21.219   1.303  0.0143  0.4537 -0.1334
61515W        W 4428  32.984  23.202  24.579 -0.1758  0.1627  0.0246
61516W        W 4429   2.315  27.611   4.576  0.2256 -0.0770  0.0771
61517W        W 4430   1.137  20.893   4.675 -0.0193  0.2302 -0.4029
61518W        W 4431   0.132  17.427   1.802 -0.1314  0.0241 -0.3530
61519W        W 4432   7.305  21.161   8.730  0.1685  0.0939 -0.4370
61520W        W 4433   7.722  18.794   6.263  0.2433  0.0258 -0.1024
61521W        W 4434   7.382  18.423   3.457 -0.0903  0.3096 -0.0860
61522W        W 4435   5.101  10.192   9.023 -0.1314  0.0127 -0.2585
61523W        W 4436  32.625  25.373   8.040 -0.1709 -0.0444 -0.1029
61524W        W 4437   9.852  31.033   2.938 -0.0333  0.2595 -0.2178
61525W        W 4438   1.848  23.160   4.119  0.0197  0.0834  0.3060
61526W        W 4439  29.776  21.926   7.646  0.0025 -0.1240 -0.2719
61527W        W 4440   5.632  17.218   2.262 -0.1270  0.0891 -0.4071
61528W        W 4441   4.782  14.604  25.915 -0.0808  0.2757 -0.1528
61529W        W 4442  16.407  11.422   4.586 -0.1166  0.0610  0.0740
61530W        W 4443  33.610  19.680  25.719  0.2650 -0.0537 -0.0793
61531W        W 4444  27.276   8.737   2.685 -0.1772 -0.0403  0.4331
61532W        W 4445   2.229  15.466   8.256  0.1015  0.0530 -0.0658
61533W        W 4446   6.340  29.002  26.220  0.3713 -0.0003  0.0507
61534W        W 4447   6.250  23.978   2.069 -0.0029 -0.0556  0.1336
61535W        W 4448  27.109  16.679   6.783  0.1833 -0.1060  0.2424
61536W        W 4449  26.085  20.654  29.252  0.1060  0.0607  0.1604
61537W        W 4450  16.453  21.185   0.282 -0.1559  0.3364 -0.1260
61538W        W 4451  13.639  25.400   7.359 -0.1167  0.1292 -0.1176
61539W        W 4452   3.206  19.034  25.531 -0.1311 -0.0763  0.1970
61540W        W 4453  13.130   9.529   5.968  0.2784  0.0048  0.1724
61541W        W 4454   0.664  13.256   5.859 -0.0552 -0.0044  0.1735
61542W        W 4455   5.041  26.466   8.832 -0.1398 -0.3326 -0.1246
61543W        W 4456   7.406   0.221   7.209  0.2066  0.1555 -0.0900
61544W        W 4457   7.704  16.083  28.408  0.0037 -0.2175  0.3059
61545W        W 4458   0.853  25.774  22.745 -0.0810  0.1089 -0.1396
61546W        W 4459  11.375  21.623   3.354  0.1896 -0.0579 -0.0521
61547W        W 4460   3.058   9.232  28.634 -0.1148  0.5513  0.2235
61548W        W 4461   1.372  25.311   3.462  0.0373  0.1677  0.0475
61549W        W 4462   8.137  15.147   6.004  0.0597  0.2749 -0.2746
61550W        W 4463   5.613  18.906  26.445  0.0883  0.0426  0.0160
61551W        W 4464  33.919  10.077  21.341 -0.0251  0.0385  0.1357
61552W        W 4465  34.405  21.584   9.434 -0.1146 -0.0600  0.1193
61553W        W 4466  33.975  19.520   4.475 -0.1326 -0.0240  0.0180
61554W        W 4467   0.318  15.198   6.421  0.0909 -0.5083  0.0863
61555W        W 4468   4.204  17.014  28.352  0.0415 -0.0667  0.0348
61556W        W 4469   2.191  14.273   7.664 -0.0603 -0.0421 -0.0634
61557W        W 4470  25.882  22.255   5.678  0.1883  0.0456 -0.0424
61558W        W 4471   4.229  17.481   7.540 -0.1287 -0.0457  0.1387
61559W        W 4472  28.068  20.390   6.763 -0.1005  0.0174 -0.2853
61560W        W 4473  27.085  20.321   1.017 -0.1452 -0.1416 -0.1326
61561W        W 4474  30.521  24.490  25.604 -0.4278  0.0541 -0.1363
61562W        W 4475   5.363   7.507  25.461  0.0562 -0.1281  0.2378
61563W        W 4476   7.732  11.805  29.610  0.4907  0.1465 -0.4328
61564W        W 4477   7.889  28.110   8.562  0.2445  0.1137  0.2976
61565W        W 4478   0.008  15.311  29.157  0.0962  0.1286  0.1345
61566W        W 4479  25.307  22.370   4.054 -0.0137  0.2079  0.3114
61567W        W 4480   5.157  15.568   7.904 -0.2701 -0.1368 -0.0519
61568W        W 4481  31.850  26.288   7.333  0.1912  0.2857  0.3957
61569W        W 4482  33.950  20.358   2.600  0.0794 -0.3019 -0.0282
61570W        W 4483   3.170  17.999   7.207  0.0200 -0.0203 -0.1467
61571W        W 4484  12.969  25.418   4.073  0.0435  0.0965 -0.1609
61572W        W 4485   4.672  21.477   0.843 -0.3497 -0.0971  0.0107
61573W        W 4486  22.916  18.693   2.206 -0.0715 -0.1265  0.2148
61574W        W 4487  30.356  13.218   0.545 -0.0529  0.1176  0.2404
61575W        W 4488   8.924  24.952   9.161  0.1475 -0.2393  0.1134
61576W        W 4489   8.155  24.076   0.561 -0.0721 -0.0081  0.0133
61577W        W 4490  33.232  19.399  25.596 -0.1816  0.0686 -0.0804
61578W        W 4491   3.913  23.757   4.666  0.1331 -0.1196 -0.0727
61579W        W 4492  28.837  21.272   2.281  0.2614 -0.2385 -0.0529
61580W        W 4493   2.586   4.451   2.122 -0.1416  0.3317 -0.1709
61581W        W 4494  11.081   8.305   7.789 -0.3674  0.2903  0.3642
61582W        W 4495  29.659  24.302  27.885  0.1523  0.0705  0.1307
61583W        W 4496  10.069  21.254   1.221 -0.2111 -0.4467  0.0454
61584W        W 4497   1.318  15.141   5.771 -0.1592 -0.0093  0.4346
61585W        W 4498   0.623  24.996   9.713  0.0070 -0.0350  0.0284
61586W        W 4499   3.627  19.331  27.391  0.4247 -0.2701  0.0894
61587W        W 4500  32.885  11.061   5.989  0.1561  0.1981  0.3646
61588W        W 4501   5.157  16.038   2.655  0.0852  0.2521 -0.0376
61589W        W 4502   4.403  20.161   5.582 -0.0946 -0.0057  0.0922
61590W        W 4503   3.847  14.267   8.798  0.2824  0.1550  0.2199
61591W        W 4504  30.378  18.318   6.699 -0.1846 -0.0675 -0.0394
61592W        W 4505  29.087  20.837  29.658  0.3122  0.3490 -0.0591
61593W        W 4506   6.820  18.390   6.335  0.2262  0.0741 -0.0302
61594W        W 4507  34.097  13.053  28.983  0.0355 -0.1725  0.3454
61595W        W 4508   0.386  21.252   6.467  0.1151  0.0680 -0.1916
61596W        W 4509   1.898  22.101   3.288  0.0295  0.3347 -0.0510
61597W        W 4510   7.881  17.192   4.305  0.1213  0.2373 -0.0222
61598W        W 4511  34.013  12.917   2.553 -0.2183  0.0265  0.5709
61599W        W 4512  16.276   9.093  25.014  0.0222 -0.1675 -0.0209
61600W        W 4513  30.869  20.798   9.221  0.3696 -0.1467  0.0267
61601W        W 4514  21.685  22.419   1.204 -0.2203 -0.2201  0.3766
61602W        W 4515   2.912  24.181   7.843 -0.0269 -0.0317 -0.3819
61603W        W 4516   3.971  13.982  24.451 -0.2621 -0.3676  0.0052
61604W        W 4517  15.284  14.256   1.849  0.1841  0.0113  0.2141
61605W        W 4518  26.745  32.627   0.694 -0.4207  0.1096  0.1024
61606W        W 4519  33.501  18.367   2.215 -0.2666 -0.4727  0.0778
61607W        W 4520  33.428  30.818  27.198 -0.0896 -0.1699 -0.1866
61608W        W 4521  33.706   9.207   6.072 -0.0742  0.1114 -0.1823
61609W        W 4522   8.816  11.414  10.564  0.1258 -0.0710  0.1317
61610W        W 4523  31.513  19.289   7.235 -0.1295 -0.0143 -0.4743
61611W        W 4524  33.306  32.462   0.768  0.2916 -0.0853  0.0067
61612W        W 4525  17.153  13.979   5.377  0.3199 -0.1245  0.0269
61613W        W 4526   6.062  19.761   8.659 -0.2727 -0.4009  0.3742
61614W        W 4527  33.521  28.475   0.842  0.5934 -0.0172 -0.1577
61615W        W 4528  32.959  23.236   6.471  0.0170 -0.1946 -0.1676
61616W        W 4529   2.218  12.078   4.823 -0.0712  0.3469 -0.3866
61617W        W 4530  33.822  26.167   7.137 -0.1094 -0.2290  0.1664
61618W        W 4531   5.073  16.301  28.684 -0.1819 -0.0474 -0.0310
61619W        W 4532   6.000  16.575   8.890 -0.0549 -0.2246 -0.2556
61620W        W 4533  30.441  29.770   3.276  0.2112 -0.0734 -0.2945
61621W        W 4534  34.166  18.633   2.915 -0.2354  0.1844 -0.0819
61622W        W 4535  24.797  18.156   5.139 -0.1599 -0.0966  0.0775
61623W        W 4536  29.434  33.651  22.333 -0.1687  0.0902  0.3565
61624W        W 4537   0.010  26.107   9.075  0.0985  0.1152 -0.0205
61625W        W 4538   0.206   7.194   6.136 -0.4475 -0.1807 -0.1143
61626W        W 4539  32.742  15.769   5.377 -0.2048 -0.0921  0.0300
61627W        W 4540   6.210  27.377   3.051  0.3152  0.0241  0.3062
61628W        W 4541  34.407  21.701   4.625  0.1123  0.0137 -0.0245
61629W        W 4542  32.621  26.384   7.296  0.0506  0.2966 -0.0994
61630W        W 4543  11.131  13.151  10.007 -0.0240  0.2936  0.0002
61631W        W 4544  28.242  19.453   4.145  0.1588 -0.0907  0.5353
61632W        W 4545   3.142  13.181   3.058 -0.2674  0.1234  0.2081
61633W        W 4546   5.058  19.825   8.779  0.1200  0.2432 -0.0025
61634W        W 4547  33.604  28.664   5.319  0.1802  0.2580  0.2317
61635W        W 4548  32.971  22.345   1.886 -0.1386  0.0262  0.0293
61636W        W 4549   1.661  16.731  22.186 -0.0584  0.0015  0.0379
61637W        W 4550   5.884  21.627   7.389 -0.3062 -0.2615 -0.2428
61638W        W 4551   5.581   7.194  29.177  0.1258  0.0604 -0.1624
61639W        W 4552  33.154  24.092   5.405  0.1204  0.0250 -0.1110
61640W        W 4553  12.362  11.327   7.456 -0.2202 -0.0555 -0.0331
61641W        W 4554  33.638  14.750  29.003 -0.1485 -0.3897 -0.0383
61642W        W 4555  23.169  21.848   6.158 -0.0097  0.1364  0.3232
61643W        W 4556   3.995   4.056   3.113  0.1430 -0.2063 -0.1641
61644W        W 4557   7.523  28.398   5.098  0.1035 -0.3081 -0.0833
61645W        W 4558   1.899  20.510   5.195 -0.3073  0.3255 -0.1218
61646W        W 4559   2.837  21.047   1.622  0.1468  0.0388  0.1097
61647W        W 4560   8.383   6.668   0.908  0.1820 -0.1102  0.2243
61648W        W 4561   3.077  23.234   0.441 -0.1985 -0.1476 -0.1260
61649W        W 4562  33.448  11.245   9.060  0.2708 -0.0885 -0.2549
61650W        W 4563   5.288  20.200  29.035 -0.1707  0.0903 -0.0443
61651W        W 4564  32.496  31.775   8.280 -0.1580 -0.0922 -0.1735
61652W        W 4565   9.152  20.175  26.910  0.2837  0.2625 -0.0208
61653W        W 4566   6.865  29.278   6.471 -0.3272  0.0083 -0.0285
61654W        W 4567   4.193  15.012   4.210 -0.0973  0.1368  0.0271
61655W        W 4568   7.246  24.275   7.667 -0.0889 -0.2658 -0.0026
61656W        W 4569   3.713  11.443   0.821 -0.2545 -0.0501  0.3168
61657W        W 4570   2.562  28.285   1.328 -0.1575 -0.2170  0.2067
61658W        W 4571  13.655   7.144   2.980 -0.1757 -0.1632  0.0029
61659W        W 4572  12.394  28.777   8.360 -0.2063  0.0416  0.0019
61660W        W 4573   0.023   7.216  22.915  0.1388  0.0422 -0.3519
61661W        W 4574  30.003  12.665   5.747 -0.0743  0.0769 -0.1141
61662W        W 4575   9.416  16.917   6.046 -0.4343 -0.2207 -0.1367
61663W        W 4576  33.733  20.215   5.267 -0.0387  0.0605  0.1534
61664W        W 4577  24.068  28.244   1.689 -0.1826  0.1328 -0.0666
61665W        W 4578   3.662  12.963  28.457 -0.0530  0.1811  0.1395
61666W        W 4579  32.780  18.539   0.709 -0.3488 -0.0036 -0.5702
61667W        W 4580  11.073  12.186   6.555  0.3492 -0.1256  0.0600
61668W        W 4581  26.779  23.106   1.471 -0.0226 -0.1498 -0.1134
61669W        W 4582   0.346  13.212   8.904  0.0365  0.1240 -0.0935
61670W        W 4583  25.822  18.752   0.776  0.0838  0.0498  0.0402
61671W        W 4584  32.944  16.492   5.074  0.4276 -0.0397 -0.0875
61672W        W 4585   0.816  19.899   8.075  0.1306 -0.1447  0.3672
61673W        W 4586  11.490   8.357   3.986 -0.1956 -0.1920 -0.3027
61674W        W 4587  31.896  16.195   7.930  0.0943 -0.0812 -0.0076
61675W        W 4588  28.645  25.466   0.689  0.1215 -0.1661  0.3410
61676W        W 4589  10.267  31.556   0.471 -0.1176 -0.1606 -0.3021
61677W        W 4590  11.387  20.354   3.770 -0.1206  0.1550  0.0211
61678W        W 4591   5.710  13.301  22.527  0.1631  0.3515  0.1624
61679W        W 4592   6.797  27.342   9.394  0.0082  0.3191 -0.0714
61680W        W 4593   4.835  11.197   8.161 -0.0797 -0.2395 -0.2273
61681W        W 4594  33.778  23.624   5.780 -0.2129  0.1864 -0.0276
61682W        W 4595  31.259   8.806   8.300 -0.0245 -0.1572  0.1441
61683W        W 4596  28.093   0.145   3.321  0.0744 -0.0219  0.0758
61684W        W 4597  32.240  28.249   6.293 -0.1987 -0.0504  0.4475
61685W        W 4598   7.882  12.669   2.931 -0.0974 -0.0513 -0.1512
61686W        W 4599   0.787  10.207   9.002  0.3879  0.0269 -0.0268
61687W        W 4600  33.410  18.031  27.805 -0.1882  0.2164  0.2783
61688W        W 4601   2.907  28.579   5.317 -0.0548  0.2408 -0.1803
61689W        W 4602  11.406  15.365   6.670  0.3882 -0.1024  0.2215
61690W        W 4603   6.509  10.610  18.712  0.2411 -0.0426 -0.0139
61691W        W 4604  32.216  22.194   9.295  0.0307 -0.3177 -0.0463
61692W        W 4605   5.742  11.897  11.286 -0.0136 -0.1046 -0.0944
61693W        W 4606   5.344   2.603  22.693 -0.2302 -0.0849  0.2480
61694W        W 4607  20.125  22.261   3.397  0.1773  0.2371  0.2596
61695W        W 4608   4.706  14.593   5.501  0.0931 -0.1295 -0.1689
61696W        W 4609  20.966  25.943   1.481  0.4327  0.0883 -0.1553
61697W        W 4610  28.091  23.357  27.044 -0.0643 -0.2652 -0.1271
61698W        W 4611   7.355  29.337   6.592 -0.0086  0.2345 -0.1726
61699W        W 4612  28.692   2.935   5.375 -0.3412 -0.0774 -0.3361
61700W        W 4613   4.048  22.202   2.788 -0.1619 -0.3236  0.0211
61701W        W 4614  33.153  16.489   5.983 -0.0092  0.0300  0.0354
61702W        W 4615   0.704  21.174   3.919 -0.0447  0.3156 -0.2245
61703W        W 4616   2.579   3.440   9.348  0.2479  0.0808 -0.2876
61704W        W 4617  30.598  22.650   7.029 -0.0457 -0.0161 -0.1499
61705W        W 4618  26.294  18.371   0.672  0.0698  0.1884 -0.1940
61706W        W 4619   3.969  25.895   9.313 -0.0898 -0.3735  0.0132
61707W        W 4620   4.362  28.650   7.160  0.0931  0.2303  0.2740
61708W        W 4621  32.144  24.662   7.016  0.0831 -0.1393  0.1937
61709W        W 4622   5.253  20.479   3.890  0.1618 -0.0080  0.1281
61710W        W 4623  32.134  21.572  24.975 -0.1597  0.1018  0.0583
61711W        W 4624   8.857  13.785   8.404  0.0457 -0.2662  0.0331
61712W        W 4625   1.570  31.000  14.839  0.0576 -0.3146 -0.0359
61713W        W 4626  10.249  14.780  28.322  0.0933 -0.1079 -0.0093
61714W        W 4627   4.438  16.762   3.871 -0.0143  0.1392 -0.0208
61715W        W 4628   2.129  18.759   6.382 -0.1755 -0.1989  0.0738
61716W        W 4629  10.028  24.838   9.641 -0.2394 -0.0521  0.0031
61717W        W 4630  27.693  19.262   6.707 -0.0404  0.1791 -0.1961
61718W        W 4631  32.461  10.930   3.535  0.2227 -0.1279  0.0603
61719W        W 4632   0.406  15.403   2.434  0.1077 -0.1569 -0.2652
61720W        W 4633   3.837  18.329   7.796 -0.0755 -0.0171  0.0241
61721W        W 4634  27.998  20.740   4.676  0.0263  0.0232 -0.2190
61722W        W 4635   8.128  11.066   1.320 -0.0844 -0.2928 -0.0175
61723W        W 4636   8.025  20.164   3.373 -0.1876 -0.1245  0.2685
61724W        W 4637   8.384  23.119   1.458  0.1566 -0.0838 -0.3542
61725W        W 4638   2.593  19.567  28.505 -0.1129  0.0868 -0.0553
61726W        W 4639   4.993  24.860   8.605 -0.3994  0.1235 -0.0613
61727W        W 4640  34.134  15.278   1.693  0.0755 -0.0134  0.1635
61728W        W 4641   1.972  27.044   8.823 -0.1635 -0.0433  0.1132
61729W        W 4642  12.915  19.410   7.016 -0.1440  0.2452  0.4552
61730W        W 4643  34.459  18.318  22.186 -0.3151 -0.0741  0.2074
61731W        W 4644   9.011  17.325   9.147  0.1598  0.1167 -0.1319
61732W        W 4645  33.089  23.692   3.988  0.2492 -0.2561  0.1815
61733W        W 4646   8.183  16.291   3.177  0.2029 -0.1872  0.1277
61734W        W 4647  12.946   7.294  10.817 -0.1013  0.1118  0.1507
61735W        W 4648   8.463  14.941  26.201  0.0793 -0.4246  0.1634
61736W        W 4649  26.691   1.765   2.222 -0.1892 -0.0773  0.1493
61737W        W 4650   6.661  25.837   5.800 -0.0410  0.2304 -0.1713
61738W        W 4651   8.121  31.556   7.837  0.0776 -0.0456 -0.1522
61739W        W 4652   1.117  15.689   7.532 -0.0718 -0.0048  0.0401
61740W        W 4653  32.708  23.999   6.736 -0.3068 -0.0759 -0.2288
61741W        W 4654  26.563  21.807   0.838  0.1941 -0.3769  0.3565
61742W        W 4655  11.887  21.026  28.822  0.2872 -0.0587 -0.0072
61743W        W 4656  10.339  18.597   4.094  0.1992 -0.1686  0.1225
61744W        W 4657  27.126  22.048   3.810 -0.2160 -0.0479  0.2945
61745W        W 4658  25.569   8.691  26.751  0.0769 -0.3108  0.2886
61746W        W 4659   2.568  25.030   6.326  0.0672  0.0369 -0.0873
61747W        W 4660  32.234  32.009   6.643 -0.0302  0.0222  0.3093
61748W        W 4661  29.301  25.378   7.292  0.2407 -0.1565  0.1392
61749W        W 4662   0.602  18.902  22.766 -0.1295  0.1467 -0.1570
61750W        W 4663  12.760  28.616   9.350  0.2012 -0.0466  0.0885
61751W        W 4664   4.830  17.546   3.322 -0.0872 -0.1480  0.1430
61752W        W 4665  11.564  29.965   7.474  0.0958  0.2474  0.2198
61753W        W 4666  24.247  18.346   5.137 -0.0382  0.0756 -0.1028
61754W        W 4667   0.746  23.913   2.002 -0.2873  0.0755 -0.3629
61755W        W 4668   8.133   0.347   9.902 -0.1910  0.3100  0.1132
61756W        W 4669  17.319  31.073   8.497  0.1301 -0.0119 -0.0559
61757W        W 4670  29.868  24.275  27.163  0.1784 -0.2694 -0.0947
61758W        W 4671   9.572  15.438   1.338 -0.1915 -0.0912  0.2218
61759W        W 4672  10.306   7.758   6.587  0.1447  0.1623 -0.2357
61760W        W 4673  10.325  14.520   6.253  0.1733  0.0050  0.3099
61761W        W 4674   2.787  17.580  28.311  0.2535  0.0154 -0.1261
61762W        W 4675   7.674  23.372   0.041 -0.1916 -0.2230 -0.0961
61763W        W 4676  34.189  22.512   8.713 -0.1319 -0.1070  0.2516
61764W        W 4677   5.929  21.923  25.439 -0.1151 -0.1984  0.0503
61765W        W 4678  32.165  28.600   6.621 -0.3401 -0.3346  0.1263
61766W        W 4679   1.166  24.667   5.138 -0.4333  0.0328  0.0364
61767W        W 4680   8.610  27.480   1.234 -0.1108  0.4360  0.2991
61768W        W 4681  28.045  16.653  26.568 -0.0757  0.3324 -0.1166
61769W        W 4682  21.344  22.327   0.202 -0.0818 -0.2364  0.1892
61770W        W 4683   7.093  16.946   9.249  0.1039  0.1148 -0.1673
61771W        W 4684   2.365  15.699   5.444 -0.1753  0.2793  0.0189
61772W        W 4685  29.827  17.226   6.580  0.4634  0.1034  0.0299
61773W        W 4686   6.613  16.375   5.319 -0.0964 -0.0778  0.2548
61774W        W 4687   3.796  14.307   1.233 -0.1650  0.0694  0.0648
61775W        W 4688   2.278  19.088   2.553 -0.1978 -0.0253  0.1801
61776W        W 4689  25.455   4.901   9.258  0.0702  0.0236  0.0502
61777W        W 4690  31.554  21.552   7.481 -0.3636 -0.4948 -0.0964
61778W        W 4691  27.095  22.317   0.263  0.1607  0.1074 -0.2292
61779W        W 4692   2.210  25.253   0.180  0.1438  0.0712 -0.1770
61780W        W 4693  31.261  21.104   4.988 -0.1221 -0.0918 -0.0348
61781W        W 4694   6.717  20.390   6.541 -0.1482 -0.2103 -0.1428
61782W        W 4695  32.372  15.541   7.055 -0.2783 -0.1327  0.0903
61783W        W 4696   2.998  26.798   6.654  0.1272 -0.0412  0.0028
61784W        W 4697   1.882   9.182   3.937 -0.1839  0.3427  0.0074
61785W        W 4698  15.165  19.390  25.331 -0.0077  0.1185 -0.0195
61786W        W 4699  15.794  16.638  15.376  0.2677  0.1015  0.3328
61787W        W 4700   2.656  23.488   2.026  0.0878  0.0273 -0.0294
61788W        W 4701  32.302  23.862   4.421 -0.4271  0.2706 -0.0497
61789W        W 4702  31.798  24.294   9.360  0.0412  0.2746 -0.1636
61790W        W 4703  30.403  27.865   0.685  0.2128  0.0814  0.4016
61791W        W 4704  16.776  12.790   6.470  0.1820  0.1927  0.3797
61792W        W 4705  28.677  25.438   2.423  0.0236  0.3996  0.2236
61793W        W 4706  26.755  19.895   4.885 -0.1616 -0.2255 -0.1320
61794W        W 4707   3.464  25.213   6.854 -0.1136  0.1532 -0.1112
61795W        W 4708  28.685  26.088   8.503 -0.1270 -0.0155 -0.0553
61796W        W 4709  33.127  10.546   5.598  0.0678  0.1854 -0.0848
61797W        W 4710   0.936  11.935   6.149 -0.1524  0.2759  0.0698
61798W        W 4711  32.671  19.896   8.197 -0.1548  0.1528  0.0288
61799W        W 4712   4.900  17.532   5.163 -0.1487  0.3592 -0.0758
61800W        W 4713  33.176  26.521   7.331 -0.1765 -0.0506 -0.0470
61801W        W 4714  31.708  29.724   1.528 -0.2555 -0.2604  0.1867
61802W        W 4715  25.815  21.285  28.067 -0.1901  0.1312 -0.1144
61803W        W 4716  18.487  16.216   3.743  0.1873  0.2633 -0.4529
61804W        W 4717   0.552  27.366   6.203  0.2559 -0.0903  0.1156
61805W        W 4718   0.834  30.436   1.397  0.2525  0.2968 -0.1655
61806W        W 4719   6.455   9.781   3.272  0.1635 -0.1396  0.0177
61807W        W 4720   7.155  31.296   8.462 -0.0567 -0.3487  0.0986
61808W        W 4721   3.594  23.044   6.836 -0.1202  0.0990  0.1291
61809W        W 4722  25.895  17.267   7.267 -0.1177  0.0149  0.2046
61810W        W 4723   9.598  24.583   5.056 -0.3325  0.0368  0.0315
61811W        W 4724  25.806  23.297   3.522 -0.4588 -0.1310  0.1841
61812W        W 4725   1.673  30.866  29.070 -0.3508 -0.0297 -0.1138
61813W        W 4726   6.433  21.844   0.925 -0.2065 -0.1724  0.0470
61814W        W 4727  31.578  23.328   7.320  0.2450 -0.1112 -0.0800
61815W        W 4728  33.711   7.415   3.068 -0.3533 -0.1075 -0.1708
61816W        W 4729   4.269   3.984  27.578 -0.0656  0.1058 -0.1425
61817W        W 4730   5.087  10.595   0.599  0.4486 -0.0577  0.0920
61818W        W 4731   6.182  22.978  27.256 -0.1492 -0.0511  0.3272
61819W        W 4732   3.934  18.389   5.379  0.0839 -0.4227 -0.2191
61820W        W 4733   8.616  11.454  29.455 -0.0000 -0.1269  0.3911
61821W        W 4734  29.455  26.915   0.190  0.1585 -0.2408  0.6461
61822W        W 4735  24.880  22.577   7.055 -0.3164  0.3341 -0.0389
61823W        W 4736   7.760  15.699   3.783 -0.2229 -0.0713  0.0644
61824W        W 4737  30.595  25.362   7.287  0.0800 -0.0429 -0.1071
61825W        W 4738  31.724  11.673   3.779 -0.1536 -0.0400 -0.3585
61826W        W 4739  14.714  21.184  28.269 -0.3759 -0.0511  0.0260
61827W        W 4740   0.210  19.912   1.059 -0.0047 -0.1467 -0.3278
61828W        W 4741   6.015  18.244   6.618  0.0918  0.0198 -0.0840
61829W        W 4742   9.963  16.220   8.903 -0.0659  0.2109 -0.2884
61830W        W 4743   3.036  13.770   5.118  0.1212 -0.1381 -0.3149
61831W        W 4744   3.788  25.856  10.690  0.2286  0.0223 -0.4336
61832W        W 4745   7.907   4.406   8.253  0.1860  0.0013 -0.0278
61833W        W 4746  33.907  15.162  10.436 -0.3106  0.0221 -0.0376
61834W        W 4747  34.307  19.800   4.697  0.1392  0.0844 -0.0535
61835W        W 4748   7.742  17.233   2.949 -0.1411 -0.1302 -0.0873
61836W        W 4749  33.984  16.148   1.318 -0.2029 -0.2468  0.0376
61837W        W 4750   2.916  12.471   7.480 -0.0091  0.2909 -0.1030
61838W        W 4751   0.793  25.820  29.183 -0.1052  0.1980 -0.0478
61839W        W 4752   2.846  31.925   7.388 -0.0254 -0.1552  0.1540
61840W        W 4753  16.316  26.293   6.495 -0.1181  0.0342  0.1152
61841W        W 4754   0.388  20.155   3.547 -0.1177  0.2163 -0.2327
61842W        W 4755  10.162  21.603   7.167 -0.2141 -0.2401 -0.2938
61843W        W 4756   5.783  11.086  26.470  0.1291  0.0377  0.0317
61844W        W 4757  31.001  19.713   6.067 -0.0428 -0.0719 -0.1166
61845W        W 4758   0.550  10.857  10.091 -0.1010  0.0696 -0.0709
61846W        W 4759   9.978  24.557   4.062 -0.0820  0.2748  0.3679
61847W        W 4760  32.661  22.870  10.109 -0.1737 -0.2524  0.1825
61848W        W 4761   8.689  14.379   3.391 -0.1527 -0.0206 -0.2612
61849W        W 4762   9.296  18.027   2.745 -0.0750  0.1719 -0.1761
61850W        W 4763  32.295  20.032  27.270  0.1284  0.2275  0.0741
61851W        W 4764  17.267  27.997   9.859  0.0703  0.2681  0.1816
61852W        W 4765  26.899  17.747   2.724 -0.3227 -0.2038  0.2530
61853W        W 4766  11.194  21.636  10.178  0.4872 -0.0564 -0.0897
61854W        W 4767   6.773  21.095   1.608  0.0025  0.0508 -0.2659
61855W        W 4768   8.500  19.282   7.991  0.0279 -0.2750 -0.0700
61856W        W 4769   1.614  17.187   8.624  0.1490 -0.1443 -0.1681
61857W        W 4770   9.607  23.376   9.476  0.0822 -0.2308  0.0640
61858W        W 4771  34.483  15.340   7.951  0.0622  0.3380 -0.0630
61859W        W 4772  33.215  14.532  23.422 -0.0256 -0.1393  0.0437
61860W        W 4773  22.907  25.037   6.870 -0.2458 -0.0700 -0.2589
61861W        W 4774  32.838  15.845   1.772 -0.1147 -0.2567 -0.2749
61862W        W 4775   0.425   5.203   8.390  0.3685 -0.1440 -0.1533
61863W        W 4776  28.258   7.568   6.902 -0.1024  0.0668  0.2080
61864W        W 4777   1.298   0.433   5.546 -0.1773  0.0436  0.2147
61865W        W 4778  33.477  21.186   7.551  0.1567 -0.1286  0.1453
61866W        W 4779  32.882  25.733   4.776  0.2860  0.1170  0.3201
61867W        W 4780  33.132  13.713   0.709 -0.1741  0.2045 -0.0833
61868W        W 4781  28.054  26.838   4.865  0.0302 -0.2992 -0.0357
61869W        W 4782   3.988  22.351   5.784  0.0736  0.0942  0.2543
61870W        W 4783  30.875  25.651   9.067  0.2847  0.1227 -0.0132
61871W        W 4784   8.699  20.742  28.135  0.2793  0.1186 -0.1417
61872W        W 4785   7.109  23.672   0.284 -0.2111  0.1846 -0.2952
61873W        W 4786  34.118  22.141   5.914 -0.1245  0.0804  0.2021
61874W        W 4787   1.546   9.189  10.977  0.0934  0.1278 -0.2626
61875W        W 4788   1.979  21.728   4.824 -0.0785  0.0364 -0.0232
61876W        W 4789  32.630  16.198   3.051  0.3420 -0.0998  0.1828
61877W        W 4790  33.413  25.316   8.594  0.0571  0.2062 -0.2175
61878W        W 4791  32.585  22.763   0.774 -0.1155 -0.1463  0.5938
61879W        W 4792  10.141  17.797   1.139 -0.0194 -0.0243  0.2224
61880W        W 4793   5.638  14.745   5.897 -0.0905 -0.1080  0.3498
61881W        W 4794  17.378  24.759   8.789 -0.2179  0.0604  0.1919
61882W        W 4795  12.879  11.974  25.118  0.0983 -0.3326  0.2758
61883W        W 4796   5.751  19.762   7.492  0.0048  0.0913  0.2735
61884W        W 4797   8.289  29.608  10.649  0.5141  0.0796 -0.1192
61885W        W 4798   6.323  24.865   2.700  0.0955 -0.2509 -0.0446
61886W        W 4799  31.691  23.012   9.207 -0.2679 -0.2292 -0.0891
61887W        W 4800   7.368  21.386   4.761  0.1227 -0.2593 -0.4817
61888W        W 4801   7.681  27.972   4.846 -0.1580 -0.1784  0.4690
61889W        W 4802   6.023  18.221   9.506  0.1293 -0.0517  0.1917
61890W        W 4803  25.684  24.090   6.546  0.1185  0.2504 -0.0420
61891W        W 4804  13.418  27.978   7.073 -0.0713  0.0639 -0.1156
61892W        W 4805  29.667  25.125   9.926 -0.2303 -0.2632  0.1158
61893W        W 4806   4.368  22.250   5.435 -0.0971 -0.2846  0.0839
61894W        W 4807  10.471  32.380   8.105  0.1400 -0.1704  0.2324
61895W        W 4808  30.854  18.104  28.834 -0.0497  0.0208  0.0240
61896W        W 4809  34.266  25.285   3.114  0.1206  0.1753  0.5280
61897W        W 4810   1.588  21.035   5.000  0.1646  0.0500 -0.0403
61898W        W 4811   9.579  14.551   6.352  0.1541 -0.0055  0.0909
61899W        W 4812  25.590  29.419   4.470  0.0422 -0.2788 -0.1307
61900W        W 4813  28.804  30.682   4.757 -0.2753  0.1681  0.2307
61901W        W 4814   2.793  19.430   0.572 -0.1396  0.2084  0.0321
61902W        W 4815  20.030  14.641  26.616  0.2442 -0.0242  0.0554
61903W        W 4816  12.420  22.051   7.999  0.0275  0.0676 -0.1247
61904W        W 4817  33.027  25.407   8.284 -0.0638 -0.1934  0.0371
61905W        W 4818  21.153  19.370  29.529 -0.0345 -0.0760 -0.0686
61906W        W 4819  12.619  18.664   3.980 -0.0310  0.2461  0.0107
61907W        W 4820  11.219   9.304   1.037  0.0468 -0.3477  0.2696
61908W        W 4821   7.215  16.202  29.137  0.1629 -0.0101 -0.2599
61909W        W 4822   4.176  29.172   7.896  0.1825  0.1015 -0.0749
61910W        W 4823  28.928   7.369   7.492 -0.1173  0.3275 -0.3057
61911W        W 4824   3.008  18.170   9.332  0.0475 -0.1442 -0.0350
61912W        W 4825   2.708  17.630   9.048 -0.2128 -0.0474 -0.5222
61913W        W 4826   3.020   9.925   6.327 -0.2201 -0.6117 -0.0480
61914W        W 4827   5.623  21.602   6.539 -0.1789  0.1791 -0.0672
61915W        W 4828   2.071  15.132   9.363 -0.1126  0.0925  0.2284
61916W        W 4829  12.123  17.402   3.946  0.3889 -0.0471  0.3485
61917W        W 4830   4.575  20.434  24.466  0.2553 -0.0457  0.0634
61918W        W 4831   3.321  16.296   9.737  0.0923 -0.3131  0.1995
61919W        W 4832   8.060  26.099   9.356  0.0186  0.2166 -0.2101
61920W        W 4833   9.226   9.489   7.938  0.0291 -0.2324  0.0741
61921W        W 4834   8.885  18.316   6.210 -0.0222  0.1280  0.2270
61922W        W 4835  21.561  18.364  25.379 -0.1264 -0.4163 -0.0103
61923W        W 4836  33.172  24.643   2.677  0.2330  0.4106 -0.1102
61924W        W 4837   1.124  25.517   1.995  0.0479 -0.0362 -0.4069
61925W        W 4838   4.263   9.012   7.162 -0.0717 -0.3691  0.0301
61926W        W 4839   8.735  16.439   6.727  0.0792  0.0413 -0.0479
61927W        W 4840  12.696  30.498  12.345 -0.3415 -0.0827  0.1938
61928W        W 4841   8.995  30.115   3.328  0.0959 -0.1526 -0.1264
61929W        W 4842  16.364  26.575   7.974  0.1385 -0.0870  0.2834
61930W        W 4843   1.081  30.481   5.119 -0.1096 -0.1062 -0.1604
61931W        W 4844   8.554  19.134   6.789 -0.0079 -0.0481  0.1633
61932W        W 4845   5.179  15.257   4.462 -0.2158 -0.1547  0.1186
61933W        W 4846   4.992  25.057   9.351  0.0725  0.1740  0.3762
61934W        W 4847  32.447  11.026   2.571 -0.1065 -0.2011  0.1617
61935W        W 4848   5.345  14.821   3.687 -0.2275  0.2785  0.4085
61936W        W 4849  32.855  28.134   1.077 -0.3804 -0.1604 -0.5445
61937W        W 4850  29.435  18.761  27.805  0.1609 -0.0316  0.1328
61938W        W 4851  32.438  19.875   8.594 -0.5164 -0.0815  0.0568
61939W        W 4852  29.727  15.253   9.569 -0.2635 -0.0312  0.0980
61940W        W 4853   8.663  10.652  26.529  0.1072  0.2999 -0.2733
61941W        W 4854  34.097  18.864   8.090 -0.0087 -0.0928  0.0133
61942W        W 4855   8.293  14.100   3.381 -0.0773  0.2597  0.1289
61943W        W 4856   4.683  13.667   7.894  0.0899  0.0901 -0.0518
61944W        W 4857  32.872  28.576   9.040  0.4292 -0.1290  0.0016
61945W        W 4858  32.231  20.562   3.221 -0.0603  0.1276 -0.0771
61946W        W 4859  27.165  18.139   4.440 -0.0708 -0.0874  0.1798
61947W        W 4860  13.371  15.749   6.100  0.1098  0.0915  0.0553
61948W        W 4861   1.671  27.611   7.147 -0.3400  0.1216  0.1944
61949W        W 4862   1.340   4.362   6.626 -0.1107  0.2375  0.1037
61950W        W 4863   1.317  20.033   4.638 -0.0452  0.3107  0.1288
61951W        W 4864   2.735  10.544   7.373  0.0503 -0.2569  0.4014
61952W        W 4865   7.358  34.450  12.630 -0.1222 -0.2243  0.0305
61953W        W 4866   2.161   1.406   3.056  0.2235  0.1860 -0.0623
61954W        W 4867   7.285  17.953  28.673 -0.0922  0.1927  0.2205
61955W        W 4868   1.909  21.208   4.581  0.3190 -0.1182 -0.0418
61956W        W 4869  34.190  13.519  23.679  0.0469 -0.0531 -0.2990
61957W        W 4870  11.515   9.850   8.986 -0.1884  0.2784  0.1924
61958W        W 4871  14.044  22.544   2.495  0.2785  0.3778  0.0381
61959W        W 4872  31.312  15.774   6.918 -0.1301  0.0669 -0.3295
61960W        W 4873   0.376  10.399   6.480  0.0428  0.0964 -0.3012
61961W        W 4874   1.245  14.354   8.891  0.1645  0.3117  0.1885
61962W        W 4875   5.781  14.511   2.384 -0.1434 -0.1724 -0.0129
61963W        W 4876   3.679  23.020   7.345 -0.1033 -0.0561 -0.1894
61964W        W 4877  14.860  13.288   9.114  0.0483 -0.2787 -0.2607
61965W        W 4878   3.239  18.647   8.029 -0.0037 -0.0221  0.2566
61966W        W 4879   5.666   3.374  28.733  0.1766 -0.0787 -0.3457
61967W        W 4880   0.892  18.102   6.710 -0.1821 -0.2033  0.0223
61968W        W 4881   3.823  27.016  26.520  0.1807  0.0863 -0.0675
61969W        W 4882  33.495  16.280   3.033  0.0875  0.1879  0.3736
61970W        W 4883   1.589  24.417   7.292 -0.0720 -0.0563 -0.1396
61971W        W 4884   4.285  10.311   1.314  0.1316  0.3516 -0.1039
61972W        W 4885  32.559   6.115   4.098  0.3216  0.0397  0.2346
61973W        W 4886  32.562  12.166   7.112 -0.0644 -0.0762  0.1774
61974W        W 4887   8.293  21.823   5.627 -0.1833 -0.2883  0.0586
61975W        W 4888   8.996  13.178   6.053 -0.2628  0.1070  0.1315
61976W        W 4889  31.503   0.770   6.004 -0.3001  0.0985 -0.0722
61977W        W 4890   2.522  11.868   6.851  0.3091  0.1569 -0.1451
61978W        W 4891  27.190  23.757   2.119  0.0568  0.0080  0.2876
61979W        W 4892  34.008   8.967   0.180 -0.1868  0.0235 -0.2394
61980W        W 4893   1.371  30.531  28.946 -0.0210  0.2436  0.0125
61981W        W 4894  29.161  14.582   6.839 -0.0510  0.0784 -0.1780
61982W        W 4895  27.104  17.585   3.961 -0.2018  0.1811 -0.0588
61983W        W 4896  32.303  19.231   1.959 -0.0361  0.2368  0.1755
61984W        W 4897  29.911  24.961   2.439 -0.2218  0.2072 -0.1226
61985W        W 4898  12.483  15.000   5.320  0.1217 -0.3306  0.2260
61986W        W 4899  17.081  20.541  23.644  0.1382  0.1603  0.0802
61987W        W 4900  26.810  21.451   7.154 -0.0127 -0.0095 -0.0418
61988W        W 4901   4.124  22.374   7.982 -0.2214 -0.2375  0.0310
61989W        W 4902   4.948  13.245   7.883  0.1099  0.1181 -0.0649
61990W        W 4903  31.995  12.273   9.180  0.0287  0.2384  0.1453
61991W        W 4904   0.833  19.401   6.318 -0.3726  0.1073 -0.1662
61992W        W 4905  33.022   9.977  29.400  0.1680  0.2441 -0.2954
61993W        W 4906  22.014  19.103   6.131 -0.0836 -0.0417 -0.3090
61994W        W 4907  20.671  17.644   2.902  0.2293 -0.0509 -0.0281
61995W        W 4908   1.143  22.540  28.874 -0.2224 -0.0426 -0.0489
61996W        W 4909   4.832  19.304   0.734 -0.1603 -0.0451 -0.0021
61997W        W 4910   6.293  14.735   5.062  0.1629 -0.2348  0.0466
61998W        W 4911  10.884  21.870   5.053 -0.0564 -0.0899 -0.2343
61999W        W 4912  11.411  29.459   6.750 -0.2792  0.3842  0.0705
62000W        W 4913  29.702  19.530   4.335  0.6908 -0.0809  0.1179
62001W        W 4914   6.550  19.036   9.448  0.0621  0.0443 -0.0111
62002W        W 4915   2.815  25.113   9.767  0.0530  0.1373 -0.2031
62003W        W 4916   7.228  19.771   6.994 -0.2633 -0.0458  0.0611
62004W        W 4917   1.588  15.446   7.340 -0.2969  0.2132  0.0159
62005W        W 4918  32.613  13.765   9.935  0.0647 -0.1009 -0.0247
62006W        W 4919   8.195  25.718   9.102  0.1005 -0.1428 -0.2581
62007W        W 4920  29.334  24.279   6.377 -0.1729 -0.0034 -0.2671
62008W        W 4921  29.805  16.180   9.539  0.1316  0.0069  0.0599
62009W        W 4922   1.075  30.913   7.884 -0.1160 -0.1138  0.1087
62010W        W 4923   7.643  15.040   4.561  0.1087 -0.3199  0.2475
62011W        W 4924  29.953  25.583   8.730  0.1183 -0.2209  0.2050
62012W        W 4925  27.721  21.515   7.071  0.2538  0.2534  0.0143
62013W        W 4926   3.034  22.759   4.175 -0.0546  0.1915 -0.2275
62014W        W 4927  33.603  19.837  27.295  0.1652 -0.0272 -0.1081
62015W        W 4928  30.215  20.129   8.741  0.2991  0.0169  0.2670
62016W        W 4929   7.310   8.072   4.476  0.1069 -0.0277 -0.1065
62017W        W 4930  28.444  11.163   5.127 -0.2572 -0.0627  0.0381
62018W        W 4931  17.055  20.016   4.452  0.2574  0.0614 -0.1805
62019W        W 4932  31.744  18.471   7.630 -0.3227 -0.2345 -0.1364
62020W        W 4933  33.800   9.321   9.926  0.0686 -0.1391  0.0641
62021W        W 4934  28.044  23.502   3.069 -0.1524 -0.2049  0.3257
62022W        W 4935  29.914  24.968   5.595 -0.1683 -0.3238  0.0329
62023W        W 4936  11.000  11.016   4.446  0.1368  0.2737  0.2059
62024W        W 4937   9.663  23.110   3.100  0.2018 -0.3278  0.1731
62025W        W 4938  11.348   9.522   5.407  0.1772  0.0610 -0.1159
62026W        W 4939  32.539  16.013   7.187 -0.1016 -0.2669 -0.0046
62027W        W 4940  33.783  32.180   8.457  0.1340  0.2790 -0.3699
62028W        W 4941   0.441  22.429   3.511  0.0563  0.1276 -0.0450
62029W        W 4942  33.937  23.647   3.756 -0.1608 -0.5103  0.0331
62030W        W 4943   6.251  27.285   7.670  0.0319  0.0130 -0.0108
62031W        W 4944   1.893  14.438   8.635  0.0816 -0.2022  0.1710
62032W        W 4945   0.236   5.479  26.794 -0.3741  0.1596 -0.0765
62033W        W 4946   6.858   9.428   1.466  0.2471 -0.2400 -0.0340
62034W        W 4947   7.492  24.634   9.648 -0.2942  0.0985 -0.0141
62035W        W 4948  24.347  20.270   8.559  0.1484 -0.2549 -0.0305
62036W        W 4949  32.658  17.248   9.804  0.1547  0.2184  0.0835
62037W        W 4950   8.170  18.456   7.796 -0.1421  0.3196 -0.2236
62038W        W 4951  29.733  10.758  25.158  0.1041 -0.2033 -0.1048
62039W        W 4952   2.870   4.909   3.205  0.1838 -0.0513 -0.2119
62040W        W 4953   7.018  20.928   4.895  0.3913  0.0681  0.2685
62041W        W 4954   4.653  26.710   3.617 -0.1218  0.0127  0.0065
62042W        W 4955  30.402  16.450   6.241 -0.0777 -0.1434  0.0134
62043W        W 4956  33.605   9.149  27.604 -0.0584 -0.0485 -0.1068
62044W        W 4957  33.492  29.431   8.282  0.1811 -0.0018 -0.2865
62045W        W 4958   0.387  17.609  10.170  0.0134 -0.1141 -0.1314
62046W        W 4959   6.501  26.077   5.310 -0.1595 -0.1022  0.0957
62047W        W 4960  28.615  22.188   7.303  0.0277 -0.3166 -0.1548
62048W        W 4961   7.847  23.280   9.968  0.0598  0.0195  0.2860
62049W        W 4962   1.268  11.237   5.077  0.0987 -0.2961  0.0997
62050W        W 4963  14.041   8.121   6.727 -0.1191 -0.3660  0.0684
62051W        W 4964   4.942  27.578  28.473  0.2120 -0.2364 -0.0558
62052W        W 4965   0.208  21.973   7.699  0.0045 -0.5210 -0.0075
62053W        W 4966   0.794  20.422  28.079  0.0163  0.0527  0.0817
62054W        W 4967   8.089  15.798   3.006 -0.3586  0.1830 -0.2206
62055W        W 4968  13.898  13.846   0.831 -0.3138 -0.3713 -0.1761
62056W        W 4969  33.533  29.013  28.187 -0.1555 -0.1111  0.1702
62057W        W 4970  32.576  30.096   9.050  0.1461  0.0766 -0.1889
62058W        W 4971   2.419  11.719   5.718  0.0794 -0.1980  0.1924
62059W        W 4972  33.895  25.476   8.761 -0.0701  0.0514  0.2859
62060W        W 4973   3.227  24.569   9.048 -0.3014 -0.0081 -0.0364
62061W        W 4974   8.996  18.038   3.195  0.0383  0.0790 -0.2463
62062W        W 4975  32.388  25.787   4.841 -0.1858  0.0916  0.2565
62063W        W 4976  16.626  21.184   5.986 -0.1498 -0.1314  0.0777
62064W        W 4977  32.678  24.964   7.100  0.1560 -0.0200  0.0692
62065W        W 4978  34.279  23.754   4.128  0.2117 -0.1999  0.0692
62066W        W 4979   5.034  16.348   8.383  0.0129 -0.0453 -0.2263
62067W        W 4980  28.908  10.650   9.747 -0.1122  0.2461 -0.0275
62068W        W 4981   0.917  25.425   7.215  0.0202 -0.0279  0.3335
62069W        W 4982  10.826  20.331   7.606 -0.3033 -0.0848  0.0616
62070W        W 4983  21.165  21.181  22.703 -0.0070  0.1338  0.2414
62071W        W 4984   3.606  23.800   6.693  0.2562 -0.0183 -0.2124
62072W        W 4985   5.878  18.692   9.387  0.2110 -0.2011  0.0038
62073W        W 4986  34.307   3.625   8.585  0.2387  0.2798  0.0563
62074W        W 4987  24.292  22.837  24.503 -0.0780 -0.0053  0.1129
62075W        W 4988  11.250  20.237   6.134  0.0711 -0.2522 -0.2595
62076W        W 4989   6.898  17.019   7.924  0.2493  0.0716  0.0331
62077W        W 4990   1.469  12.393   4.402  0.0479 -0.0277  0.1166
62078W        W 4991  13.554  23.531   5.647  0.1652 -0.3784  0.0317
62079W        W 4992  28.814  24.923   9.445 -0.2820 -0.0968  0.2269
62080W        W 4993  27.265  16.164  28.693 -0.1889 -0.1192 -0.1450
62081W        W 4994   2.719  15.382   4.064  0.1581  0.3524  0.0055
62082W        W 4995   7.309  22.679   2.889  0.0578  0.3720 -0.4150
62083W        W 4996   1.102  23.763   6.859  0.0794  0.3086 -0.1879
62084W        W 4997  15.728  13.927  28.676  0.0691 -0.1517 -0.0419
62085W        W 4998   2.412  13.869   6.596 -0.0553 -0.0410 -0.0229
62086W        W 4999  11.621  19.801  25.683 -0.1701 -0.0141  0.0881
62087W        W 5000  10.099  20.668  27.372 -0.2301  0.0913  0.3303
62088W        W 5001   3.322  22.671   8.253 -0.1987  0.0651 -0.0844
62089W        W 5002  30.889  24.862   8.622 -0.2356 -0.0205 -0.1851
62090W        W 5003  10.203  25.557   7.711  0.2489  0.0717  0.1159
62091W        W 5004  13.174  17.323  26.847 -0.1020  0.1164 -0.4323
62092W        W 5005   5.722  23.779   9.192  0.1665  0.0376  0.1277
62093W        W 5006   8.338  24.931   4.641  0.1764 -0.1507 -0.3084
62094W        W 5007   0.730  23.353   2.156  0.1441 -0.0768  0.0053
62095W        W 5008  31.325  14.565   9.225 -0.1896 -0.0509 -0.0633
62096W        W 5009   5.772  15.966   8.299  0.1646  0.3844 -0.2526
62097W        W 5010  10.191  18.717  29.414 -0.1040 -0.0176 -0.0754
62098W        W 5011  28.429  31.279   3.229 -0.1505 -0.0407 -0.3678
62099W        W 5012   2.090  19.074   8.869 -0.1389  0.0414  0.1209
62100W        W 5013   4.369  15.347   6.096 -0.1759 -0.5648  0.0483
62101W        W 5014  30.591  21.703   5.876  0.1181 -0.1510  0.1773
62102W        W 5015   4.472  12.488  26.602  0.1650  0.0833 -0.3009
62103W        W 5016   2.383  27.308   1.272  0.1859  0.1371 -0.1211
62104W        W 5017  28.144  21.903   8.772  0.0599 -0.0530 -0.0664
62105W        W 5018  29.925  16.635   7.577  0.2141 -0.2688 -0.0165
62106W        W 5019  32.098  13.422  25.748 -0.2033  0.1694  0.2263
62107W        W 5020   4.922  19.333   3.413  0.0103 -0.0566 -0.0374
62108W        W 5021   1.894  15.843   5.540 -0.0951 -0.0856 -0.2684
62109W        W 5022  29.098  16.320   8.496  0.0275  0.0019 -0.1707
62110W        W 5023  26.383  25.150   1.779 -0.2059  0.1498 -0.3315
62111W        W 5024   3.477  18.427   7.197 -0.1679  0.1325 -0.0415
62112W        W 5025  31.882  24.104   4.128  0.1080  0.1280 -0.1927
62113W        W 5026  29.513  16.967   2.802 -0.0114  0.0275  0.1041
62114W        W 5027  12.847  16.294   5.021 -0.0619 -0.0950 -0.1747
62115W        W 5028  32.996  21.205   3.296 -0.0579 -0.2018  0.0511
62116W        W 5029   3.585   9.907   7.313 -0.1741  0.2658 -0.2835
62117W        W 5030   1.364  19.386  28.182  0.3254  0.0267  0.1570
62118W        W 5031   3.308  27.782   7.406 -0.0472  0.1783 -0.1340
62119W        W 5032  33.766  26.088   3.628  0.0208  0.1213  0.1416
62120W        W 5033   3.351  25.513   5.337 -0.2005 -0.1320  0.2213
62121W        W 5034  28.021  20.556   8.604  0.2915 -0.3435  0.1071
62122W        W 5035   2.286  13.283   7.725 -0.3930  0.2790 -0.3563
62123W        W 5036  30.837  21.937   4.639 -0.0764  0.0491  0.1909
62124W        W 5037   3.473  20.712   8.322 -0.1081  0.0215 -0.0953
62125W        W 5038  32.192  16.691   7.846  0.2799  0.2454  0.0340
62126W        W 5039  31.140  29.822   5.486 -0.2840 -0.2467  0.4076
62127W        W 5040  25.429  27.776   6.621  0.1459 -0.1025 -0.2020
62128W        W 5041  34.113  26.155   7.917  0.0086 -0.2547 -0.1875
62129W        W 5042   1.055  18.273   7.170 -0.2284 -0.0349 -0.1705
62130W        W 5043   1.398  24.565   7.971 -0.1792  0.3879 -0.1781
62131W        W 5044   5.547  21.986   5.564  0.0484 -0.4329  0.0247
62132W        W 5045  32.064  16.900   9.354 -0.1920 -0.0433 -0.1589
62133W        W 5046  28.063  11.810   1.993 -0.0966 -0.0885 -0.1734
62134W        W 5047   7.159  23.143   0.955  0.1495 -0.0393  0.1832
62135W        W 5048   0.848  11.965   8.729 -0.1847  0.1537  0.1405
62136W        W 5049   7.302  17.879   2.017 -0.3787 -0.0131  0.2095
62137W        W 5050   1.247  20.730   5.880  0.1554 -0.1645 -0.2162
62138W        W 5051  31.426   8.527  11.607  0.2138 -0.0805  0.1818
62139W        W 5052   9.041  15.001   9.891 -0.0469 -0.3187 -0.2505
62140W        W 5053   5.850  24.340  10.108  0.1681 -0.3338  0.1268
62141W        W 5054   4.383   9.897   8.087  0.0653  0.2533 -0.2612
62142W        W 5055   9.385  24.738  10.057  0.0302  0.1211 -0.0891
62143W        W 5056  32.714  20.455   3.278 -0.0075 -0.3311 -0.2133
62144W        W 5057  31.601  17.715   5.381 -0.1929  0.2566  0.2195
62145W        W 5058   9.886  21.394   5.511 -0.2270  0.1222  0.0585
62146W        W 5059  31.486  18.263   0.754 -0.3736  0.1369  0.0391
62147W        W 5060  32.914  19.749   8.948  0.0127 -0.1170 -0.0151
62148W        W 5061  16.213  19.212   2.778 -0.1415 -0.1149 -0.0246
62149W        W 5062  26.137  13.825   4.626  0.3653 -0.0390 -0.0426
62150W        W 5063  29.152  19.242   6.882 -0.1323  0.1506  0.2053
62151W        W 5064   2.999  10.999   7.992  0.2162  0.0704  0.4074
62152W        W 5065   4.707  10.500   8.897 -0.1881  0.0522  0.1339
62153W        W 5066   6.905   8.762   8.710  0.2008 -0.1116  0.2761
62154W        W 5067  32.440  12.669   5.685  0.2334 -0.0717 -0.0316
62155W        W 5068   4.495  23.609   5.442  0.1375 -0.0974 -0.3835
62156W        W 5069   3.689  22.788  29.503  0.2187 -0.1912 -0.0181
62157W        W 5070  29.406  17.268   8.334  0.1202  0.0479 -0.2106
62158W        W 5071  31.968  13.593   1.813 -0.5340  0.2708 -0.2167
62159W        W 5072   7.123   4.160  27.357 -0.0555 -0.0535 -0.2906
62160W        W 5073   5.371  11.035  27.786 -0.0597 -0.1125  0.0752
62161W        W 5074   0.820  10.071   7.359  0.0009  0.0765  0.0804
62162W        W 5075  31.926  19.650   9.859  0.0606  0.0955  0.2910
62163W        W 5076  24.964  17.798   4.504  0.2388  0.1287  0.0756
62164W        W 5077  32.929  22.662   7.757 -0.0413  0.2642 -0.0682
62165W        W 5078  31.465  23.242   6.497  0.1443  0.4246  0.1835
62166W        W 5079   6.720  23.654   7.131 -0.0899 -0.0394 -0.2003
62167W        W 5080   9.471  26.085   8.870 -0.0996  0.2978  0.0093
62168W        W 5081  33.320  24.006  27.602  0.1954  0.1627  0.2794
62169W        W 5082  18.616  16.928   5.717 -0.0854 -0.0654 -0.2052
62170W        W 5083  29.619  14.778  28.411  0.0239  0.0534 -0.0595
62171W        W 5084  34.133  24.026   8.481  0.2740 -0.2689  0.2912
62172W        W 5085   7.135  23.613   8.235  0.0584 -0.0576  0.3808
62173W        W 5086  26.839  21.579   3.871 -0.0268  0.2304 -0.4066
62174W        W 5087  26.394  34.129   9.871 -0.1469  0.2400  0.1435
62175W        W 5088  14.313  20.496   7.002  0.0803 -0.0830 -0.0587
62176W        W 5089  31.549  17.662   9.463  0.0119  0.2704 -0.1433
62177W        W 5090   5.041  24.069   2.831 -0.0091  0.1528 -0.4162
62178W        W 5091  33.712  23.096   1.648 -0.2426 -0.0254  0.0944
62179W        W 5092   0.096  27.920  29.398 -0.2112 -0.2368 -0.0060
62180W        W 5093  28.401  24.684  22.640  0.0586  0.3012 -0.3476
62181W        W 5094  30.363   3.888  27.582  0.2593 -0.1242  0.0733
62182W        W 5095   8.364  25.540   1.738 -0.2138  0.0794 -0.2922
62183W        W 5096   4.528   4.269  25.030 -0.1542  0.2885  0.0387
62184W        W 5097   8.487  15.610  19.709 -0.0923  0.2501  0.4812
62185W        W 5098   0.283  27.073   7.752 -0.0278  0.0012 -0.2483
62186W        W 5099   1.347  25.980   9.370  0.0303 -0.0464  0.0518
62187W        W 5100  29.466  21.380  27.910  0.1720  0.1776 -0.0026
62188W        W 5101  31.785  24.350  22.716  0.0380 -0.0573 -0.4337
62189W        W 5102   8.678  16.338   3.302  0.0671  0.0376  0.2130
62190W        W 5103  34.299  24.851   1.793  0.1095 -0.1066  0.1447
62191W        W 5104  18.940  20.645  23.574  0.0278 -0.0085  0.3848
62192W        W 5105  24.031  25.442  25.301 -0.1643 -0.2658 -0.1138
62193W        W 5106   5.407  13.598   6.100  0.1738 -0.1146  0.0753
62194W        W 5107  31.356  24.261   7.426  0.0457 -0.0368  0.1337
62195W        W 5108  32.550   2.881   6.319  0.1346  0.0631 -0.2235
62196W        W 5109   2.400  28.867   2.099 -0.2400  0.0883 -0.1575
62197W        W 5110  16.155  23.523   4.425 -0.1739  0.3265 -0.0087
62198W        W 5111   6.724  18.705   2.254  0.1490  0.2152  0.0043
62199W        W 5112  19.596  26.053  27.149  0.0358 -0.3093 -0.0084
62200W        W 5113  25.814  31.038   8.851 -0.0397  0.1631  0.2173
62201W        W 5114   4.344  22.128  27.192 -0.0103 -0.0499 -0.1516
62202W        W 5115  30.371  14.648   7.530 -0.0236 -0.1301  0.0222
62203W        W 5116   0.909  26.147  27.792  0.0941  0.0164  0.0293
62204W        W 5117  33.949  25.697  20.339 -0.0700  0.1505 -0.1530
62205W        W 5118  11.089  24.842  26.219  0.3076  0.0456 -0.0935
62206W        W 5119  26.393  27.949   1.475  0.1578 -0.2248 -0.0686
62207W        W 5120   4.530  31.730   3.944 -0.1712  0.0568 -0.1706
62208W        W 5121  32.847  32.221   0.955  0.0254  0.0387  0.1588
62209W        W 5122  31.945  16.529   6.762 -0.2393  0.0549 -0.0485
62210W        W 5123   5.836  19.360  26.544 -0.2857  0.1313  0.1096
62211W        W 5124   0.174   2.835   2.053  0.1253  0.2031  0.1560
62212W        W 5125  33.818  30.142  22.510 -0.1506 -0.1281  0.0680
62213W        W 5126  33.839  12.878   0.610 -0.1824 -0.2825 -0.2854
62214W        W 5127   7.854  12.924   8.026  0.2977  0.0118 -0.0785
62215W        W 5128   0.921   6.804   8.413 -0.0477  0.0654 -0.2066
62216W        W 5129   8.300  28.035  23.671  0.3226 -0.0912  0.1972
62217W        W 5130  11.274  23.538   5.973 -0.1556 -0.1220  0.1672
62218W        W 5131  33.281   0.596  19.728 -0.6582  0.1685  0.1648
62219W        W 5132   3.523  25.663  28.359 -0.1996  0.3237  0.0752
62220W        W 5133  20.319  33.137   7.234  0.0774 -0.0698  0.0631
62221W        W 5134   3.224   3.330  11.153 -0.3263  0.1217  0.2295
62222W        W 5135  28.601  32.727   7.566  0.0717  0.0261  0.2471
62223W        W 5136   7.682  24.870  10.086 -0.0712 -0.1134  0.1194
62224W        W 5137   9.261  15.258  29.692  0.2719 -0.2345  0.0073
62225W        W 5138   0.663  28.759  21.528  0.1740 -0.1467 -0.0818
62226W        W 5139   9.538  19.053  21.505  0.0397  0.1949 -0.2004
62227W        W 5140  13.637  32.936  22.411 -0.0560  0.2379 -0.2113
62228W        W 5141   1.000   8.232   0.156  0.1439  0.1699 -0.0805
62229W        W 5142  24.947  13.065   1.159  0.0084 -0.1795  0.2347
62230W        W 5143   5.194  19.953   7.561  0.3375 -0.2080  0.1464
62231W        W 5144   4.083  18.256  25.099 -0.3235 -0.1168 -0.0568
62232W        W 5145   1.165  21.688   1.208 -0.3281  0.0210 -0.1615
62233W        W 5146  17.420  16.406   5.515  0.3852 -0.1269  0.0232
62234W        W 5147  32.027  30.674   0.645 -0.1566  0.2176  0.1158
62235W        W 5148   9.459  32.740   4.643  0.0029  0.3097 -0.3568
62236W        W 5149   1.175  26.370   9.595 -0.0687 -0.0736 -0.0374
62237W        W 5150  10.289  16.401   5.464 -0.0845  0.3821 -0.0863
62238W        W 5151  28.023  32.547  19.325  0.1595  0.1788  0.0596
62239W        W 5152  33.296  23.111  25.440  0.1328  0.0930 -0.0623
62240W        W 5153   2.438  16.150   5.236 -0.1124  0.2596  0.0059
62241W        W 5154  33.241  17.402   8.568  0.0866  0.0298  0.1085
62242W        W 5155   6.290  23.015   3.004  0.3186 -0.0509  0.0852
62243W        W 5156   0.708  20.439   8.937 -0.2221  0.2298  0.1690
62244W        W 5157   4.738  24.601   4.307  0.4113  0.3378 -0.1405
62245W        W 5158   3.273  24.440  22.390  0.2238 -0.1626  0.1717
62246W        W 5159   8.945  26.129   1.198 -0.0458 -0.0498  0.1009
62247W        W 5160   0.638  30.908  27.776 -0.2442  0.1924 -0.2874
62248W        W 5161  30.492  23.313   5.359 -0.3105  0.1680 -0.3549
62249W        W 5162   7.789  18.635   9.196  0.2457 -0.1120 -0.3355
62250W        W 5163  33.615  24.787   3.289 -0.1920  0.2101  0.0300
62251W        W 5164   0.076  20.163   4.494  0.2503 -0.2587 -0.0808
62252W        W 5165   7.339  20.511   1.551 -0.1210 -0.0338  0.1974
62253W        W 5166  25.190  22.082   7.665 -0.0231  0.0905  0.3108
62254W        W 5167  26.682  16.231  24.843 -0.0692 -0.2208 -0.0025
62255W        W 5168  34.314  25.479   4.120  0.2537  0.1734 -0.1936
62256W        W 5169   7.107  28.255   9.757 -0.0222 -0.0395 -0.1366
62257W        W 5170   3.327  27.105  10.302 -0.2482 -0.0674  0.0922
62258W        W 5171   5.531  21.295   2.414  0.0754 -0.1550  0.1463
62259W        W 5172  21.283  34.144  29.602  0.0912  0.0903  0.0179
62260W        W 5173   0.100  16.629   6.399  0.0863  0.3345  0.2725
62261W        W 5174   1.539  13.940   6.689  0.2157  0.1546 -0.1041
62262W        W 5175   6.197  11.000   7.599  0.0782  0.1566  0.1854
62263W        W 5176   3.112  27.696   6.747 -0.0707 -0.4817  0.0851
62264W        W 5177   2.031  26.221   6.868  0.1231  0.3730 -0.0646
62265W        W 5178   1.525  23.214  28.411 -0.2438 -0.0507 -0.1601
62266W        W 5179  16.436  24.651  21.136 -0.2369 -0.3570 -0.2331
62267W        W 5180  15.944  24.597  29.495  0.0743 -0.1042 -0.3211
62268W        W 5181  28.947  31.851   0.271  0.0448  0.0400 -0.1851
62269W        W 5182  25.971  20.673   9.020  0.1576 -0.1917 -0.0749
62270W        W 5183  27.467  19.047   2.953  0.2848  0.0691 -0.0531
62271W        W 5184   0.073  31.621   4.231  0.0028  0.6578  0.2115
62272W        W 5185   5.081  33.505  10.467 -0.1557 -0.1241 -0.0441
62273W        W 5186   6.102  19.533   2.030  0.2175 -0.1855  0.1222
62274W        W 5187   9.491  28.454   0.901  0.0156  0.3184 -0.0545
62275W        W 5188  32.183  30.712   2.535 -0.3023  0.0889  0.0381
62276W        W 5189  11.052  19.657   3.250  0.1168 -0.4870  0.1384
62277W        W 5190   9.541  16.908   7.080  0.0177 -0.1341 -0.2146
62278W        W 5191   6.886  18.796  25.071  0.1386 -0.3527  0.0585
62279W        W 5192   2.503  26.853   1.106  0.1547  0.0386 -0.0331
62280W        W 5193  32.342  21.263   2.636  0.1074  0.2623  0.0714
62281W        W 5194   6.623  21.778  25.929 -0.0924  0.0935 -0.1555
62282W        W 5195  32.033  28.113   2.797 -0.0719 -0.2300 -0.0365
62283W        W 5196  32.403  23.659  29.240 -0.2629 -0.0717  0.0868
62284W        W 5197   4.510  15.635  29.663  0.1633 -0.0340  0.1188
62285W        W 5198   3.721  23.103  27.811  0.0653  0.1109  0.0365
62286W        W 5199   9.911  32.049  11.967  0.1174  0.0907  0.1585
62287W        W 5200  10.467  22.458  26.381 -0.1943  0.1557  0.0682
62288W        W 5201   8.525  22.305  28.232 -0.2035  0.0552  0.1733
62289W        W 5202  33.532  22.698   6.942  0.0079 -0.0272  0.1464
62290W        W 5203   4.007  15.563   0.173  0.0096  0.2508  0.0287
62291W        W 5204  10.473  23.770   1.869 -0.0138  0.1192 -0.0247
62292W        W 5205  31.146  27.338  23.866 -0.0896 -0.2118 -0.0549
62293W        W 5206  29.861  34.446  21.964 -0.1168  0.1824  0.1730
62294W        W 5207  33.838  20.855  22.821 -0.0067 -0.2598 -0.2137
62295W        W 5208  33.761  31.012   3.420  0.3685  0.2827  0.0460
62296W        W 5209  21.001  20.706  28.776 -0.0652 -0.0733 -0.0855
62297W        W 5210   6.607  19.144   1.169 -0.0366  0.1589 -0.1807
62298W        W 5211   6.032   7.085  23.654 -0.2471  0.1232  0.1503
62299W        W 5212  21.309  25.687  29.039 -0.0454 -0.0846  0.0733
62300W        W 5213  29.078   0.268   1.101 -0.1696  0.3346  0.0493
62301W        W 5214  10.394  15.113   3.329 -0.4928 -0.0701 -0.1751
62302W        W 5215   4.526  10.963   4.157 -0.0139  0.0996  0.0243
62303W        W 5216   1.750  23.151   2.225 -0.1118 -0.1148  0.4212
62304W        W 5217   3.962  27.537   6.779 -0.1178  0.0113 -0.2088
62305W        W 5218   6.521  20.978   3.695 -0.0500  0.2850  0.1090
62306W        W 5219  32.199  33.212  27.659  0.1552 -0.1686 -0.0351
62307W        W 5220   8.009   1.724   5.472  0.1414  0.1644  0.1098
62308W        W 5221  32.329  20.851  29.349 -0.1531  0.0244 -0.0168
62309W        W 5222   2.142  13.571   2.922 -0.1212 -0.2134 -0.0694
62310W        W 5223  32.901  10.263   1.977 -0.1245  0.0270  0.0609
62311W        W 5224  31.250  13.802  27.806  0.2851  0.3069 -0.3029
62312W        W 5225   6.953  23.465   3.598 -0.1885  0.2189 -0.1307
62313W        W 5226   4.708  10.218   3.578  0.6255  0.2382  0.0581
62314W        W 5227  32.431  25.675   1.189  0.0999 -0.0447  0.1269
62315W        W 5228  27.237  23.311   4.203  0.1952 -0.2055  0.1410
62316W        W 5229   3.817  29.800   6.442  0.3765  0.0990  0.2064
62317W        W 5230  31.241  22.424   6.222  0.0143  0.1196  0.3803
62318W        W 5231  34.385  25.171   6.136 -0.2252  0.0753  0.1693
62319W        W 5232  26.315  28.356   4.952  0.2167  0.1621  0.0417
62320W        W 5233   0.188  14.409  18.997 -0.0202  0.2291 -0.2243
62321W        W 5234  11.230  28.170   9.771 -0.2956 -0.4152  0.2059
62322W        W 5235   8.688  20.372   5.267  0.3281  0.1560 -0.0191
62323W        W 5236   5.957   5.455   6.629 -0.1876 -0.1314  0.4103
62324W        W 5237   4.881  27.445   3.674 -0.0511 -0.1255  0.0977
62325W        W 5238  34.171  32.605   7.365 -0.1159 -0.4395  0.2716
62326W        W 5239   0.116  18.773   7.493 -0.0597  0.0127 -0.2132
62327W        W 5240  31.816  13.730   5.147  0.1009  0.0315 -0.2429
62328W        W 5241  11.240  25.549   0.189 -0.0771 -0.4000 -0.1143
62329W        W 5242   0.792  17.402   5.321 -0.0592  0.0419 -0.1117
62330W        W 5243  33.164  29.543   0.455  0.2109 -0.0569  0.0168
62331W        W 5244   6.743  27.762   4.716 -0.0810 -0.2286  0.0217
62332W        W 5245  33.478  25.054   4.577 -0.0908  0.0854  0.0559
62333W        W 5246   3.538  28.075   7.842 -0.1139 -0.0267  0.0029
62334W        W 5247   3.125  33.527   1.468 -0.1269 -0.1768 -0.0585
62335W        W 5248  33.611  24.883  24.773 -0.2242  0.1125 -0.1794
62336W        W 5249  10.022  23.228  24.900 -0.1081  0.2915  0.0070
62337W        W 5250  12.595  19.695  19.949 -0.3349 -0.5259 -0.1662
62338W        W 5251  30.184  23.294   7.852 -0.1573 -0.2768  0.0458
62339W        W 5252  26.971  30.197  21.556  0.1894 -0.1230 -0.2369
62340W        W 5253   1.961  31.479   3.796  0.3897 -0.0207  0.1539
62341W        W 5254  28.636  17.864  26.669 -0.0977  0.1448  0.0618
62342W        W 5255   8.462  20.456   0.669  0.0512 -0.0683  0.1345
62343W        W 5256  29.054  18.000   4.129  0.1478  0.0500 -0.0905
62344W        W 5257  33.620  23.043  29.589 -0.0451 -0.0464 -0.1458
62345W        W 5258  25.966  31.893  27.492 -0.2891  0.2687  0.3541
62346W        W 5259   6.914  27.689  24.152 -0.0721 -0.4914  0.0624
62347W        W 5260   6.745  25.504  26.793  0.1311  0.0667 -0.0363
62348W        W 5261   1.216  28.951   0.200 -0.2560 -0.1987  0.2821
62349W        W 5262   0.862  26.618  18.056 -0.3673  0.1278 -0.3060
62350W        W 5263  32.578  27.373  21.793 -0.0575 -0.0651 -0.0969
62351W        W 5264  34.144  24.307  26.873  0.0370 -0.1568  0.0146
62352W        W 5265  31.607  17.054  28.776 -0.0150 -0.0825 -0.1288
62353W        W 5266  11.695  26.401  27.989  0.1377 -0.2692  0.1305
62354W        W 5267   1.169  29.717  27.606  0.0383 -0.4735 -0.0537
62355W        W 5268   3.558  25.460  22.478 -0.2167  0.0797  0.0891
62356W        W 5269   0.824  16.716   4.133  0.0828  0.0525 -0.0707
62357W        W 5270   1.783  13.733  23.683  0.1277  0.0231  0.2370
62358W        W 5271  33.876  16.462   3.217 -0.1244  0.4189  0.2210
62359W        W 5272   2.470  25.758   5.848  0.0426 -0.3510  0.1958
62360W        W 5273  31.018  31.384   5.966 -0.1325  0.1350 -0.0649
62361W        W 5274   4.654  26.200   9.047  0.1655  0.2442 -0.2068
62362W        W 5275   4.409  17.617   8.817 -0.2072  0.2171 -0.5277
62363W        W 5276   3.109  18.345  28.659  0.0852  0.2693  0.2352
62364W        W 5277   4.450  17.060  22.460  0.0205  0.2421  0.1217
62365W        W 5278  29.476  26.440  17.015  0.0225  0.1067  0.0210
62366W        W 5279  17.587  21.895  25.173 -0.0305  0.0517 -0.1753
62367W        W 5280   6.523  13.716  28.743 -0.3038 -0.0641 -0.0945
62368W        W 5281   6.403  21.369  29.520 -0.1871  0.2484  0.0227
62369W        W 5282  31.261  20.979   5.820  0.2293  0.0592 -0.3298
62370W        W 5283  24.176  28.627   7.460 -0.1101  0.2512 -0.0430
62371W        W 5284   3.580  28.369   1.138  0.2346 -0.1731  0.1119
62372W        W 5285  28.042  16.682   0.773 -0.1246 -0.1011  0.3893
62373W        W 5286  31.700   0.052  17.712 -0.1914 -0.0503  0.0151
62374W        W 5287   0.688  14.989   2.571 -0.3195  0.0203  0.0897
62375W        W 5288  32.374  21.730   0.466  0.2275 -0.1863 -0.1342
62376W        W 5289  22.939  31.019   0.516  0.0439  0.1301  0.0306
62377W        W 5290   5.343  20.769  24.093  0.0038  0.4321 -0.0012
62378W        W 5291  30.765  32.092  19.322 -0.1164 -0.1284  0.0540
62379W        W 5292  31.934  23.788   6.303  0.0807 -0.1109 -0.3399
62380W        W 5293  31.414  32.202   1.284  0.0250  0.1659  0.2326
62381W        W 5294  31.063  28.621  16.432 -0.0298 -0.0109 -0.1472
62382W        W 5295   8.718  20.854   5.088  0.0493  0.2121  0.1187
62383W        W 5296   0.347  23.003   0.607 -0.0816 -0.0848 -0.2781
62384W        W 5297   4.448  16.444  27.223 -0.0213  0.1791 -0.0940
62385W        W 5298  31.438  11.952   5.415  0.1750 -0.3460  0.0560
62386W        W 5299  23.626  19.674  26.217  0.3311 -0.1575  0.1737
62387W        W 5300   3.857   3.261   5.784  0.1647 -0.4127  0.0216
62388W        W 5301  32.861  24.762   3.089  0.0913  0.2173  0.1618
62389W        W 5302  12.986  32.643   5.529  0.1399  0.0016 -0.2866
62390W        W 5303   4.285  26.924  25.757 -0.0320  0.1716 -0.1676
62391W        W 5304  28.390  16.817  25.334 -0.1225 -0.3066 -0.3125
62392W        W 5305  30.116  16.507   2.493 -0.2815 -0.0845  0.2971
62393W        W 5306  10.672  17.160   6.773  0.1532  0.1283  0.0350
62394W        W 5307  12.357  27.398   4.403 -0.0565  0.0342 -0.0239
62395W        W 5308   1.511  23.725  23.374  0.1699  0.0693  0.0609
62396W        W 5309   3.757  20.157  28.987 -0.3563  0.1111 -0.1732
62397W        W 5310   0.397  29.677   8.633  0.1566  0.0233 -0.0470
62398W        W 5311  15.100  19.841   8.837 -0.0411  0.1134  0.2246
62399W        W 5312   2.926  23.504  24.616  0.0530  0.1247 -0.1824
62400W        W 5313  30.246  24.898  18.968  0.0028  0.1923 -0.0591
62401W        W 5314  33.685  20.658  29.622  0.0709  0.1196  0.2618
62402W        W 5315  34.334  14.930   5.603 -0.2123 -0.1255 -0.2591
62403W        W 5316  21.734  15.929   7.315  0.2601 -0.3027  0.1458
62404W        W 5317   5.832  20.245   4.032 -0.1929 -0.0048 -0.1412
62405W        W 5318   0.559  28.519  19.506  0.0387 -0.1511 -0.3933
62406W        W 5319   5.193  23.710   9.199  0.1594 -0.2123 -0.0682
62407W        W 5320   8.506   9.043   3.170  0.4096  0.0685  0.0468
62408W        W 5321   1.735  17.992   7.484 -0.1911 -0.0923 -0.1233
62409W        W 5322   3.849  29.181   5.024 -0.1139 -0.0507  0.2162
62410W        W 5323  13.726  31.990  27.685 -0.1102  0.2013  0.0335
62411W        W 5324   5.677  28.999   4.129  0.0267  0.2215 -0.2570
62412W        W 5325  21.187   6.343   5.189 -0.0053  0.1806 -0.0054
62413W        W 5326  25.767  24.574  26.892 -0.1575 -0.0736 -0.1965
62414W        W 5327  11.537  19.249   2.228 -0.1136  0.1183  0.1346
62415W        W 5328   3.540  28.996   4.223 -0.0592 -0.1675 -0.0872
62416W        W 5329  10.143  25.766   2.675 -0.0688  0.3530  0.2798
62417W        W 5330   1.849  31.154  28.072  0.1091  0.1985 -0.1202
62418W        W 5331   1.550  27.985   2.166 -0.5054 -0.1770 -0.2309
62419W        W 5332   5.633  27.602   9.090  0.2747  0.1456 -0.1394
62420W        W 5333  27.225  19.786  26.861 -0.3065 -0.1168  0.1075
62421W        W 5334   2.256  15.692   0.230 -0.2136  0.0668  0.3164
62422W        W 5335   1.055  24.942   3.600  0.2110  0.1218  0.0734
62423W        W 5336  32.652   4.946  18.991  0.1418  0.2823  0.2085
62424W        W 5337  29.643  10.544   3.300  0.3562  0.2830  0.3068
62425W        W 5338  32.681   0.396   4.638  0.0364 -0.1548 -0.0073
62426W        W 5339  20.921  15.915   0.909  0.0440  0.0239  0.1419
62427W        W 5340   5.421  22.150   4.238 -0.2282  0.4285 -0.0004
62428W        W 5341  33.473  31.374  28.099 -0.0868 -0.0767 -0.2002
62429W        W 5342  33.045  22.465  29.089 -0.0469  0.1415  0.1405
62430W        W 5343  13.020  32.963   8.522  0.2826  0.0986  0.0638
62431W        W 5344  32.423  27.325   0.761  0.0908 -0.1245  0.1434
62432W        W 5345  28.704  25.958  29.633 -0.0676  0.0799 -0.0824
62433W        W 5346  25.974  25.131  24.283  0.3164 -0.0201  0.1221
62434W        W 5347  32.729  26.428   3.422  0.0499 -0.0574  0.1299
62435W        W 5348  26.700  25.800   3.282  0.5181 -0.0798  0.3967
62436W        W 5349  26.921  30.448   8.939 -0.0672  0.1525  0.1457
62437W        W 5350   9.186  26.640   5.972  0.0188  0.0418 -0.1066
62438W        W 5351  27.370  23.569   6.422  0.0829  0.1152  0.2140
62439W        W 5352   3.076  18.752   5.281  0.1717  0.2115  0.0265
62440W        W 5353  10.517  21.545   6.857 -0.3340  0.1610  0.1464
62441W        W 5354   8.722  28.408  10.425 -0.1443 -0.0802  0.0651
62442W        W 5355  32.584  14.161   4.573 -0.0263  0.2433 -0.2404
62443W        W 5356   6.447   9.869   2.180  0.0413 -0.0705  0.2814
62444W        W 5357  27.105   9.214   5.107 -0.5170  0.2037  0.3513
62445W        W 5358   0.002  14.887   3.750  0.2098  0.0909 -0.2455
62446W        W 5359  32.314  22.061  16.097  0.0060 -0.2353 -0.0628
62447W        W 5360  30.512  24.156   3.847  0.0797 -0.3259 -0.0065
62448W        W 5361  27.393  23.543   1.111 -0.2770 -0.2349  0.0137
62449W        W 5362   1.000  14.598  24.999  0.0498  0.0459  0.0378
62450W        W 5363   0.507  18.080  25.032 -0.2473  0.0679  0.3582
62451W        W 5364   1.518  33.975   4.100  0.0352 -0.0317  0.1336
62452W        W 5365   7.114  22.287   7.257 -0.0410 -0.0756  0.1400
62453W        W 5366   2.618  22.831  25.834 -0.2234  0.1775 -0.0727
62454W        W 5367  16.153  20.646  17.229  0.1530  0.0068  0.2853
62455W        W 5368   8.819  32.686   4.623  0.2215  0.0244 -0.1903
62456W        W 5369   0.015  27.021  26.021 -0.3160 -0.0495 -0.0058
62457W        W 5370  27.202  23.832   8.006 -0.1543 -0.0027 -0.3014
62458W        W 5371  28.244  27.937  19.995  0.3177  0.0441  0.0869
62459W        W 5372  31.224  16.490   1.304 -0.1455  0.1675 -0.1957
62460W        W 5373  31.642  33.778   8.798 -0.0311  0.1976 -0.2953
62461W        W 5374  32.714  22.750  27.563 -0.0334 -0.0010  0.2038
62462W        W 5375   2.785  29.992  26.537 -0.0057  0.3592  0.2139
62463W        W 5376  31.757  20.545  28.514 -0.0430 -0.1119 -0.0320
62464W        W 5377   5.738  24.785  24.313  0.2138  0.0957 -0.1937
62465W        W 5378  30.214  12.884  23.418  0.0801  0.1984 -0.3261
62466W        W 5379   8.486  29.254   1.172  0.3501 -0.3073  0.0335
62467W        W 5380   1.956  12.605  26.894 -0.0181  0.2066 -0.1387
62468W        W 5381   2.652  12.959  10.581 -0.0274 -0.0688  0.1468
62469W        W 5382  26.864  23.152  23.310 -0.1504  0.0806  0.0746
62470W        W 5383  12.660  29.265  23.647  0.2720 -0.2617  0.1417
62471W        W 5384  11.082  12.600   1.018 -0.0606  0.2347 -0.1998
62472W        W 5385  33.369  20.757  25.402 -0.3592 -0.2788 -0.3473
62473W        W 5386   1.541  20.812  26.571 -0.4157  0.3399  0.1692
62474W        W 5387   8.634  26.653   3.562 -0.0432 -0.0815  0.1516
62475W        W 5388   2.165  29.203   1.034 -0.1367  0.1146  0.4631
62476W        W 5389   4.181  30.957   1.958  0.0101 -0.0103  0.3920
62477W        W 5390   2.098  29.400   1.490  0.1708  0.0307 -0.0553
62478W        W 5391   7.500  11.730  23.987  0.0272 -0.2566 -0.0604
62479W        W 5392   4.984  21.697   6.602 -0.2451  0.2692  0.1352
62480W        W 5393  24.523  21.695  26.866 -0.3167 -0.1063 -0.1425
62481W        W 5394  32.295  22.748   2.778  0.0494 -0.1237  0.3824
62482W        W 5395  13.325  28.421   4.273 -0.1877  0.0456 -0.2296
62483W        W 5396   7.041  24.049   5.537  0.1797  0.0713 -0.1366
62484W        W 5397  14.890  13.080  26.974 -0.2113  0.1685 -0.1349
62485W        W 5398  32.666  23.017   7.991 -0.0404  0.2239  0.0818
62486W        W 5399  31.052  28.394  21.102 -0.2886  0.0398 -0.1492
62487W        W 5400   2.278  24.993  18.933  0.0169 -0.0050 -0.0153
62488W        W 5401  31.787  27.667   6.869  0.2581 -0.0850 -0.0159
62489W        W 5402  33.141  25.462  26.742 -0.0006  0.2531  0.1206
62490W        W 5403   4.568  18.417  28.634 -0.0398 -0.0608 -0.0670
62491W        W 5404  11.551  16.014  26.281  0.0124  0.2638 -0.0186
62492W        W 5405  33.706  23.938  22.175  0.1294  0.1204 -0.0675
62493W        W 5406   1.577  28.915  29.582 -0.3932 -0.0652  0.1812
62494W        W 5407  20.546  16.835  21.756  0.1817 -0.0239 -0.2733
62495W        W 5408   3.789  30.331   2.546  0.1019 -0.0403 -0.0168
62496W        W 5409   5.036  19.771   0.893  0.1288 -0.1331 -0.0253
62497W        W 5410  30.105  33.019   3.952  0.0154  0.0440  0.0927
62498W        W 5411  27.260  31.274   3.676  0.0786 -0.1112 -0.2646
62499W        W 5412  33.749  21.196   8.448  0.0255 -0.1035  0.0214
62500W        W 5413   6.516  12.214   5.903 -0.3508  0.2671 -0.0070
62501W        W 5414   2.596  14.087   8.078  0.1058  0.1086  0.0018
62502W        W 5415   9.846  16.810   8.151 -0.1611  0.3344 -0.1547
62503W        W 5416  20.245  18.980  22.542  0.2632  0.1073 -0.1304
62504W        W 5417  29.209  19.927   1.881  0.4501  0.0780  0.0625
62505W        W 5418  21.589  15.331  19.124  0.0744  0.2074  0.0363
62506W        W 5419  26.089  21.140   3.313  0.0485  0.1727  0.1325
62507W        W 5420   1.188  26.319  18.467 -0.1981 -0.0393 -0.3225
62508W        W 5421   6.325  28.982   7.695 -0.0604  0.5714 -0.2179
62509W        W 5422  29.588  21.267   8.661 -0.1491  0.0869  0.3762
62510W        W 5423   5.990  16.628   4.210  0.1243  0.0375  0.1843
62511W        W 5424   5.653  29.911  28.378 -0.0597  0.1622 -0.0295
62512W        W 5425  25.782  18.984  18.344  0.0526  0.1508  0.1431
62513W        W 5426   1.544  18.475   9.005  0.2603 -0.1852 -0.4270
62514W        W 5427  33.504   6.545   7.806  0.0508 -0.0432 -0.0955
62515W        W 5428  18.360  22.026  27.441  0.1472  0.2207  0.1903
62516W        W 5429   4.434  32.479  22.747  0.3097  0.1041 -0.3489
62517W        W 5430   3.890  21.894   8.581  0.0257 -0.1072 -0.2149
62518W        W 5431   0.112  23.750   5.674  0.1434  0.1779  0.2737
62519W        W 5432  28.484   5.514   6.536  0.3582 -0.1824  0.4289
62520W        W 5433   5.511  17.442   1.783  0.2473 -0.2244  0.1294
62521W        W 5434   2.960  24.647  10.247  0.3650 -0.2431  0.3550
62522W        W 5435   3.875  17.898   8.479  0.0551  0.0124  0.1312
62523W        W 5436   8.792  17.248   1.084 -0.1563  0.2040  0.2062
62524W        W 5437  31.161  31.776   4.347  0.2620 -0.2108 -0.0805
62525W        W 5438  28.509  19.266   1.288  0.1541  0.2939 -0.0383
62526W        W 5439  31.648  28.242   6.167  0.0290  0.1656 -0.2667
62527W        W 5440   4.589  29.333   9.904 -0.0331  0.1813  0.0491
62528W        W 5441   7.815  20.517   3.626  0.3108  0.0764  0.0586
62529W        W 5442  12.542  27.663   6.470 -0.0902 -0.2437 -0.0277
62530W        W 5443   1.916   7.857  27.828  0.3654  0.0284  0.0668
62531W        W 5444  33.766  13.569  19.746 -0.0727 -0.1004 -0.0945
62532W        W 5445  30.780   4.428  10.289 -0.0658  0.3839  0.1122
62533W        W 5446   6.080  22.688   9.933  0.1238 -0.3326 -0.1298
62534W        W 5447   8.881  29.575   5.039 -0.2764 -0.0266  0.0884
62535W        W 5448   3.906  21.514   2.763 -0.0612  0.0544 -0.1031
62536W        W 5449  10.043  24.364   8.256  0.2936  0.2937  0.0503
62537W        W 5450  32.389  22.377   5.537 -0.1209  0.2297 -0.1297
62538W        W 5451  31.288  24.830   7.590  0.2505 -0.0346  0.0269
62539W        W 5452   9.680  13.533   2.517 -0.0777 -0.0689  0.0571
62540W        W 5453  25.540  20.815   6.445 -0.1349  0.1255  0.1065
62541W        W 5454   2.129  28.297   3.407  0.3385 -0.0514 -0.0430
62542W        W 5455  34.025  23.847   0.568 -0.0353  0.4477  0.2148
62543W        W 5456  32.187  29.699   4.251  0.3339 -0.1866 -0.1627
62544W        W 5457   4.250   0.410   7.976  0.1517 -0.0386 -0.0679
62545W        W 5458   3.786  19.523   3.572 -0.1552 -0.1810 -0.1560
62546W        W 5459  33.607  16.733   6.203  0.2312 -0.1508 -0.2191
62547W        W 5460   1.477  21.106   2.278 -0.1595 -0.1127  0.1380
62548W        W 5461  29.201  11.134   1.755  0.1609  0.0534  0.0761
62549W        W 5462   3.331  19.479   7.494 -0.0077  0.1605  0.0020
62550W        W 5463   7.418  19.385   3.627  0.1165  0.0871 -0.3496
62551W        W 5464   1.537  16.937   0.124 -0.1667 -0.1816  0.1530
62552W        W 5465  33.511  22.209  29.122 -0.0440 -0.2555  0.1450
62553W        W 5466  27.871  34.218   0.250 -0.0463 -0.3935 -0.3897
62554W        W 5467   4.874  19.337   9.603 -0.2438 -0.3001  0.3177
62555W        W 5468  29.147  13.678   8.986  0.2154 -0.2223  0.0761
62556W        W 5469  29.279  17.340  29.168 -0.1721 -0.1326  0.2369
62557W        W 5470   7.240  30.312   1.056  0.0203 -0.2663 -0.2502
62558W        W 5471   4.475  33.348   4.727 -0.0650 -0.1033 -0.1085
62559W        W 5472   6.458  28.456   2.128  0.2123 -0.0470 -0.0261
62560W        W 5473  16.807  20.369  28.317 -0.0116 -0.1586 -0.0493
62561W        W 5474  29.059  27.728  24.765  0.1505  0.2004 -0.1836
62562W        W 5475   1.672  17.884   9.899 -0.1301 -0.0859 -0.0897
62563W        W 5476   2.256   0.812   9.039  0.0009 -0.0196  0.2349
62564W        W 5477   2.867  26.104   6.027  0.0326 -0.0371  0.1124
62565W        W 5478  29.709  26.605   1.048  0.1030  0.1257 -0.2283
62566W        W 5479   1.706  22.179   9.928 -0.1446 -0.0302 -0.1241
62567W        W 5480  34.010  17.031  26.237  0.1528  0.1090 -0.1759
62568W        W 5481   0.906  16.375   6.804 -0.0155  0.0276 -0.0596
62569W        W 5482  10.649  26.576  10.668 -0.1100  0.2571 -0.0045
62570W        W 5483   0.749  19.943   9.610 -0.0067 -0.0577 -0.1478
62571W        W 5484   0.345  24.552   6.397 -0.0177  0.1772  0.1051
62572W        W 5485  15.745  22.137   3.543 -0.1851  0.0576  0.1342
62573W        W 5486  28.658  24.448   9.525  0.0268  0.1044  0.0820
62574W        W 5487  32.807  23.858   0.190 -0.0072 -0.0719 -0.3093
62575W        W 5488  29.790  31.496  24.299  0.3426  0.1639  0.1600
62576W        W 5489  25.723  21.453   0.516  0.2129  0.1407 -0.0922
62577W        W 5490  25.902  17.794   9.076 -0.1677 -0.2274  0.2007
62578W        W 5491   7.289  25.905   3.999  0.1178  0.0785 -0.2615
62579W        W 5492   1.266  29.606   2.481 -0.1512 -0.3290 -0.1217
62580W        W 5493  32.441  32.923   0.378  0.3729 -0.1462  0.1622
62581W        W 5494  32.240  21.218  25.782  0.0070  0.0025  0.0475
62582W        W 5495   8.600  19.605   7.113 -0.0109 -0.0600 -0.0121
62583W        W 5496   3.273  12.146   3.957 -0.1379 -0.1060  0.2491
62584W        W 5497   5.266  19.671   4.905  0.1575  0.4749 -0.0245
62585W        W 5498   9.442  20.462  26.614  0.0774  0.0138 -0.1203
62586W        W 5499  14.736  27.159   4.636 -0.0442 -0.3818 -0.2379
62587W        W 5500  10.436  25.286   1.866  0.0304  0.2622 -0.0479
62588W        W 5501  23.959  28.317   3.665 -0.3690  0.2548  0.0698
62589W        W 5502   2.463   8.338   9.340  0.2170 -0.1389  0.0364
62590W        W 5503   7.400  13.712   4.665 -0.1699  0.0596  0.3136
62591W        W 5504   5.372  18.999   3.214  0.1223  0.1229  0.1160
62592W        W 5505  33.038   9.387  28.355 -0.1487 -0.2377  0.3468
62593W        W 5506   6.849  18.356  10.191  0.0167  0.2055  0.1309
62594W        W 5507  28.821   0.948   2.957 -0.2499  0.0160  0.0313
62595W        W 5508   4.470  20.630   2.772 -0.4103 -0.1372  0.2433
62596W        W 5509   6.851  20.766   2.001 -0.0832 -0.1219 -0.1180
62597W        W 5510   1.803  17.663  25.901  0.1027  0.4225 -0.2916
62598W        W 5511  28.130  18.005  19.215 -0.0646  0.2538 -0.0040
62599W        W 5512   7.056  27.338   0.649 -0.0785 -0.0093 -0.1129
62600W        W 5513  23.286  27.509  27.152 -0.0911  0.0033  0.1543
62601W        W 5514   0.398  20.509  25.834 -0.2282 -0.1713  0.0833
62602W        W 5515  29.905  27.346   3.911  0.0706  0.4697 -0.1512
62603W        W 5516  14.667  15.499   1.765  0.1663  0.2213 -0.1619
62604W        W 5517  27.240  31.296   0.601 -0.0115  0.1130 -0.1156
62605W        W 5518   7.557  31.493   2.128  0.1677  0.3337  0.2762
62606W        W 5519  23.805  14.904  28.017 -0.1769 -0.0955  0.4432
62607W        W 5520  30.796  22.384   4.959 -0.0025  0.1042 -0.2138
62608W        W 5521   0.188  20.844  29.401 -0.0519  0.1510 -0.4438
62609W        W 5522  21.765  25.782   7.819  0.0169  0.2002 -0.0990
62610W        W 5523   1.597  20.042   6.467  0.2092 -0.2901  0.1106
62611W        W 5524  20.142  17.317  27.514  0.1122 -0.1213 -0.0426
62612W        W 5525   5.809  27.113  10.123  0.1869  0.1368  0.0520
62613W        W 5526   2.920  31.645   3.514 -0.0486  0.1540  0.0351
62614W        W 5527  31.159  15.198   5.858  0.1408 -0.2482 -0.2083
62615W        W 5528  34.131  28.133   8.122 -0.3324 -0.2689 -0.0683
62616W        W 5529   5.911  15.327   6.619 -0.0390 -0.0444  0.2226
62617W        W 5530  22.232  18.822  27.211  0.0344  0.1618  0.0966
62618W        W 5531  15.088  15.284   1.494 -0.3406 -0.0783 -0.0017
62619W        W 5532   4.177  25.570   0.408 -0.2776  0.0599  0.0844
62620W        W 5533  31.445  33.313  11.169  0.0861  0.1268 -0.1370
62621W        W 5534  10.851   4.214   1.247 -0.0149 -0.2499  0.0364
62622W        W 5535   1.361   9.199   3.835  0.0852 -0.1818 -0.0868
62623W        W 5536   3.620  12.795   6.427  0.1515 -0.0928  0.1582
62624W        W 5537  29.035  23.553   2.244 -0.2139 -0.2210  0.3629
62625W        W 5538   1.327  23.786   2.850 -0.2243  0.1169  0.0697
62626W        W 5539   1.559  25.307   8.727  0.0167 -0.0148 -0.2534
62627W        W 5540   0.354  24.720   0.160  0.1203  0.0966  0.0655
62628W        W 5541  10.613  21.764   0.684 -0.1088  0.1799  0.0257
62629W        W 5542   9.559  24.433   3.668 -0.2448 -0.0654  0.2614
62630W        W 5543   7.664  21.563   8.945 -0.1666  0.2899  0.1888
62631W        W 5544  29.547  29.428  29.315 -0.0995 -0.0321 -0.0975
62632W        W 5545   8.824  28.052   3.998 -0.0178  0.0272 -0.2123
62633W        W 5546  31.567  20.609   5.894 -0.3197 -0.1254 -0.2678
62634W        W 5547  27.651  24.976  28.154  0.1701 -0.0332  0.3996
62635W        W 5548   3.957  28.906   8.248  0.2621  0.0656 -0.1184
62636W        W 5549   5.784   4.220  25.792  0.1845 -0.0068 -0.2047
62637W        W 5550   9.284  15.037   5.602 -0.1210 -0.2738 -0.4103
62638W        W 5551  14.181  29.973  10.407  0.0848 -0.1021 -0.2673
62639W        W 5552   2.753  16.733   4.409 -0.2224  0.1658  0.0110
62640W        W 5553  29.812  25.451   5.576  0.2227  0.3735 -0.1296
62641W        W 5554   0.765  19.465   3.839 -0.1494 -0.2123 -0.0130
62642W        W 5555   9.146  28.331  22.869  0.0274 -0.1865  0.2000
62643W        W 5556  31.055  27.855   7.649  0.0526 -0.0868 -0.1712
62644W        W 5557   8.446  22.670   3.089 -0.2279 -0.1324  0.2406
62645W        W 5558  14.892  33.906   3.481  0.0546 -0.2811  0.0135
62646W        W 5559   5.025  17.061   6.253  0.0473  0.2576 -0.1330
62647W        W 5560   1.274  22.693  10.450 -0.0143 -0.0405  0.0148
62648W        W 5561   8.218  17.911   4.681 -0.2043  0.3904 -0.1582
62649W        W 5562  27.475  20.148   1.350  0.0659 -0.3084 -0.1945
62650W        W 5563   7.012  17.878   1.599 -0.1244  0.0697 -0.2740
62651W        W 5564   8.671  20.933   1.286  0.1251 -0.1819 -0.1117
62652W        W 5565   6.921  21.604   3.363 -0.0986  0.0707 -0.0162
62653W        W 5566   4.910  11.773   6.578  0.4510 -0.1416  0.2921
62654W        W 5567   2.088  27.912   6.944 -0.0534 -0.1463 -0.1742
62655W        W 5568   2.677  18.806   1.872 -0.3402 -0.0271 -0.0842
62656W        W 5569   3.743  29.091  25.589  0.2607 -0.0850 -0.5402
62657W        W 5570   4.416  29.892  19.169  0.1103  0.0056  0.0514
62658W        W 5571   6.681  18.393   1.331 -0.0756  0.1974  0.1913
62659W        W 5572   8.881  19.929   9.120  0.1596  0.1405  0.0354
62660W        W 5573  31.275  20.258   8.047 -0.1662  0.1148  0.3816
62661W        W 5574  31.412  24.143  27.100  0.0769 -0.0407  0.0990
62662W        W 5575   6.331  23.530   0.735  0.1437 -0.1245  0.1000
62663W        W 5576   1.000  20.955   3.529 -0.0190  0.0223  0.1168
62664W        W 5577   5.865  21.848   8.921  0.2061 -0.1524 -0.2874
62665W        W 5578  24.452  30.078  19.382  0.0637  0.1295 -0.1135
62666W        W 5579   8.267  29.130   2.185 -0.0747 -0.3940 -0.2688
62667W        W 5580   5.292  28.432   6.828 -0.1617 -0.0122  0.1499
62668W        W 5581   9.021  28.070   7.012 -0.0493 -0.0186 -0.2588
62669W        W 5582   6.935  27.111  27.686  0.2834  0.0183 -0.2160
62670W        W 5583   1.579  18.349  27.120 -0.2017  0.2182 -0.0659
62671W        W 5584   0.392  33.081   7.846  0.0047 -0.3333 -0.2728
62672W        W 5585  29.325  18.669   3.756 -0.0779  0.0850 -0.0566
62673W        W 5586   6.165  19.297   6.657 -0.2296 -0.1890 -0.4261
62674W        W 5587   2.238  16.322   1.644 -0.0207 -0.0233  0.3638
62675W        W 5588   7.627  27.244   6.448 -0.0957 -0.0433  0.0638
62676W        W 5589   3.524  11.928   1.690 -0.1126 -0.0211 -0.2923
62677W        W 5590  27.792  14.834   1.394  0.2508  0.0813 -0.1006
62678W        W 5591   4.617  30.770   7.866  0.1263 -0.0229  0.0774
62679W        W 5592   2.120  33.173   9.881 -0.0347  0.1557 -0.1066
62680W        W 5593   5.603  26.635   0.430  0.2596 -0.0074 -0.0581
62681W        W 5594  25.952  26.749   7.481 -0.0495  0.2482  0.0369
62682W        W 5595  25.840  17.189  24.744  0.2418  0.5484 -0.1957
62683W        W 5596  11.773  22.612   1.868 -0.1008 -0.0391  0.0995
62684W        W 5597  28.237  26.090   8.040  0.0376 -0.3137 -0.1264
62685W        W 5598  32.521  24.473   6.652  0.0589  0.0759 -0.1339
62686W        W 5599  31.510  31.947   3.498  0.0074 -0.0963  0.2998
62687W        W 5600   5.527  24.963   8.603 -0.0787 -0.3265 -0.1531
62688W        W 5601  14.868  23.157   7.951  0.2938 -0.2528 -0.1149
62689W        W 5602   5.323  16.314   5.739 -0.3179  0.0458 -0.0177
62690W        W 5603  32.574  24.842   8.308  0.1773 -0.0650 -0.0297
62691W        W 5604  10.571  21.317   3.525 -0.3684 -0.1087 -0.2091
62692W        W 5605  14.082  22.939   8.427  0.4695  0.3050  0.0645
62693W        W 5606  33.787  27.072   8.262 -0.1875 -0.0216 -0.1615
62694W        W 5607  32.928  29.180   5.983 -0.2928  0.2414 -0.0573
62695W        W 5608  32.545  23.476  28.319 -0.2174  0.1913  0.0932
62696W        W 5609  31.103  33.199  22.197  0.0575  0.0913  0.0022
62697W        W 5610   7.948  19.069   9.446 -0.0451  0.4271 -0.2487
62698W        W 5611   7.771  29.139  27.247  0.3167  0.0988  0.0751
62699W        W 5612  27.240  33.969  24.915  0.1246 -0.1972  0.1390
62700W        W 5613  10.785  33.729   2.186 -0.1356 -0.1806  0.3323
62701W        W 5614  34.167  24.423   2.587  0.0411  0.0866  0.1183
62702W        W 5615   3.709  15.038   0.528  0.1400  0.2057 -0.1265
62703W        W 5616   6.777  12.130   2.167  0.3409 -0.1606 -0.2917
62704W        W 5617   1.557  28.013   8.564  0.3174 -0.0452 -0.1403
62705W        W 5618  11.071  14.800  28.780  0.0906  0.0186 -0.0859
62706W        W 5619   7.077  19.715  25.382 -0.3277  0.3188 -0.0743
62707W        W 5620  29.815  25.715   1.329  0.5827 -0.1682 -0.5166
62708W        W 5621   3.157  23.072   7.599  0.1414 -0.1092 -0.3477
62709W        W 5622   3.163  23.428   0.994  0.0583  0.2027  0.1027
62710W        W 5623   0.116  24.254   9.631  0.1056 -0.1714 -0.0223
62711W        W 5624  11.307  16.013  29.236  0.3508  0.1697  0.0018
62712W        W 5625   1.011  26.304   7.497  0.0382 -0.0920 -0.0134
62713W        W 5626   9.882  28.048   2.601 -0.1785 -0.2808  0.0851
62714W        W 5627  25.703  28.160   8.379 -0.0450 -0.1697  0.1135
62715W        W 5628   4.182  24.909   3.611  0.0439 -0.0912  0.2577
62716W        W 5629   5.597  16.526   1.431  0.0218  0.0004 -0.2871
62717W        W 5630  10.248  25.777   1.639  0.1173  0.1010  0.0441
62718W        W 5631  18.403  29.573  20.418  0.2145  0.0775 -0.0485
62719W        W 5632   4.245  21.141   4.193  0.0875 -0.0869 -0.3771
62720W        W 5633   1.836  18.113   3.495 -0.0758 -0.2603  0.0228
62721W        W 5634  11.882  24.527   8.003 -0.1362  0.0233 -0.0667
62722W        W 5635   4.712  15.541  29.181 -0.2739 -0.2784  0.2048
62723W        W 5636  23.336  15.354   5.021  0.0712  0.1034  0.0937
62724W        W 5637   7.575  25.173   7.862  0.0318 -0.1447  0.0014
62725W        W 5638  32.273  19.007   1.516 -0.0269  0.1530 -0.1122
62726W        W 5639   5.397  17.692   1.396  0.1773 -0.3081  0.0937
62727W        W 5640  27.575  26.371  26.966  0.2942  0.2188  0.1497
62728W        W 5641   8.398  23.126   0.110  0.0700 -0.0291 -0.0938
62729W        W 5642   4.256  26.301   3.973  0.1939 -0.0595 -0.0614
62730W        W 5643   3.319  22.647  28.451 -0.1146  0.0347  0.1249
62731W        W 5644  10.982   4.116  29.695 -0.3377 -0.2027 -0.0103
62732W        W 5645   1.362  15.963  27.858  0.0751 -0.6880  0.3322
62733W        W 5646   2.981  24.148   9.334  0.0439  0.2062  0.1446
62734W        W 5647   2.436  18.371   6.179 -0.0541 -0.0794  0.0629
62735W        W 5648   1.486  27.847   5.269 -0.1731 -0.0134  0.0243
62736W        W 5649   3.274  32.398   4.803 -0.3317  0.2677  0.3251
62737W        W 5650   0.721  21.965   5.826 -0.1029  0.1887 -0.0632
62738W        W 5651  33.342  27.455   9.287  0.3463 -0.1563 -0.1461
62739W        W 5652   8.807  20.327  29.092 -0.1450 -0.0169  0.0533
62740W        W 5653  28.030  15.404   5.010  0.3932  0.1926 -0.0561
62741W        W 5654  28.734  17.991   7.633 -0.0022 -0.0100  0.1593
62742W        W 5655   7.595   9.922  10.288 -0.0826  0.2318  0.0638
62743W        W 5656   2.760  26.567  10.732  0.1331  0.0917  0.2059
62744W        W 5657  29.108  26.117  28.249 -0.2624 -0.0477 -0.2116
62745W        W 5658  34.342  20.665   2.788 -0.1539  0.0231 -0.0483
62746W        W 5659  29.606  10.281  25.047 -0.0680 -0.0850  0.1911
62747W        W 5660   4.564  29.548   6.643 -0.1277 -0.0028  0.1795
62748W        W 5661  22.580  31.506   5.080  0.1651 -0.0364 -0.0927
62749W        W 5662  32.795  16.417   6.913 -0.1087  0.1412  0.0147
62750W        W 5663  24.873  22.350   7.501  0.1204 -0.0018  0.0128
62751W        W 5664  12.330  23.236   5.710 -0.1150  0.0483  0.2410
62752W        W 5665  33.093  30.151   5.710 -0.1120 -0.0239 -0.3119
62753W        W 5666  28.647  22.840   7.944 -0.0752 -0.0569 -0.0122
62754W        W 5667   0.898  20.453   0.689 -0.2300  0.2367 -0.2597
62755W        W 5668  11.593  20.201   6.469 -0.0415  0.0460 -0.0965
62756W        W 5669  30.932   2.619  11.769  0.1795  0.0456  0.3633
62757W        W 5670   5.931  28.808   2.257  0.4950  0.1902 -0.1252
62758W        W 5671   8.241  30.200   7.967  0.0097 -0.3130 -0.1608
62759W        W 5672  34.019  29.650   3.194 -0.0744  0.1870 -0.6354
62760W        W 5673   6.812  20.347  29.774  0.0165 -0.0423  0.1122
62761W        W 5674  18.604  17.485   5.818 -0.4174 -0.0405  0.3519
62762W        W 5675   3.905  25.676   1.339  0.1878 -0.1769  0.1580
62763W        W 5676  34.475  23.899  26.845  0.0478  0.0991 -0.1996
62764W        W 5677  25.812  15.031   5.575 -0.2060 -0.1392 -0.1891
62765W        W 5678   8.404   9.765  11.939 -0.2372 -0.1669  0.1855
62766W        W 5679  32.332  19.667  24.119 -0.2252 -0.0747  0.4065
62767W        W 5680   7.155  16.011   7.239 -0.3426  0.1554  0.0318
62768W        W 5681  27.441  18.479  28.209 -0.2731  0.3299  0.2517
62769W        W 5682  32.708  17.706   3.772 -0.0862  0.1299 -0.1409
62770W        W 5683   4.363   8.116   9.638  0.0522  0.2377  0.1228
62771W        W 5684  32.747  25.619   9.344 -0.3150 -0.0185 -0.2803
62772W        W 5685   2.745  16.612   3.458  0.0209  0.0355 -0.0480
62773W        W 5686  28.235  32.052  29.456 -0.3452 -0.1097  0.0942
62774W        W 5687   4.396  19.302  27.682 -0.0261  0.0472 -0.1033
62775W        W 5688   2.396  31.938   8.732  0.1043  0.1545 -0.0001
62776W        W 5689   7.632  31.386  11.829 -0.3097  0.0713  0.0697
62777W        W 5690   2.863  26.425   0.907 -0.1210  0.3386 -0.0392
62778W        W 5691  12.982  28.592   0.317  0.2078  0.2781  0.1680
62779W        W 5692  30.781  31.249   0.372 -0.0305 -0.0379  0.0148
62780W        W 5693  33.251  21.590  25.888 -0.0236 -0.0451  0.2659
62781W        W 5694  11.829  13.235   5.941  0.1373 -0.0103  0.0435
62782W        W 5695   6.306  12.958  10.975  0.0041  0.0454 -0.0347
62783W        W 5696   6.489  17.371   9.064  0.0290 -0.1764 -0.1113
62784W        W 5697   1.429  24.541   9.723 -0.2298 -0.1473  0.0694
62785W        W 5698   3.730  24.432   7.488 -0.0551  0.0016  0.2143
62786W        W 5699   5.093   0.935   5.663 -0.0973  0.0372  0.1941
62787W        W 5700   4.751  20.495   6.625  0.0192  0.0654  0.4525
62788W        W 5701   7.396  26.699   6.394  0.3577  0.1750  0.0021
62789W        W 5702  31.763  10.832   8.634 -0.2352  0.0176  0.4437
62790W        W 5703  10.076  14.489  29.441  0.1852 -0.0294  0.0865
62791W        W 5704   4.750  15.585   6.391 -0.2058  0.1377  0.0145
62792W        W 5705   4.678  17.136   4.894 -0.0502 -0.1781 -0.2882
62793W        W 5706   7.483  25.321  10.059  0.1634  0.1656  0.0670
62794W        W 5707   6.849  20.124   6.010  0.0447 -0.0570  0.2096
62795W        W 5708   9.609  13.643   9.790  0.3180 -0.2854 -0.3433
62796W        W 5709   0.990  20.682   5.129 -0.3142  0.0350  0.1135
62797W        W 5710   2.610  25.681  27.799  0.0585 -0.1039 -0.1539
62798W        W 5711   5.095  23.043   4.653 -0.4156 -0.0104 -0.0324
62799W        W 5712  34.129  18.225   4.117  0.0205 -0.1161 -0.0292
62800W        W 5713  33.119  30.334  29.349  0.0637  0.0967  0.0982
62801W        W 5714   8.435  18.310  29.415 -0.0915 -0.0785 -0.2688
62802W        W 5715   1.540  22.039   6.524 -0.1251 -0.2122  0.0697
62803W        W 5716   2.393  31.128   7.181  0.0676 -0.0187 -0.0345
62804W        W 5717  33.854  24.248   9.237  0.2347 -0.1091 -0.2226
62805W        W 5718   9.832  13.596   9.353 -0.3892 -0.1906  0.3263
62806W        W 5719   0.774  24.572   9.193 -0.0017  0.2803 -0.1233
62807W        W 5720   3.214  20.855   6.759 -0.2112 -0.4105  0.0358
62808W        W 5721   9.393   2.061   2.708  0.2780  0.3225  0.1099
62809W        W 5722  29.975  24.574  29.050 -0.1264  0.3137  0.1956
62810W        W 5723  18.515  17.820   6.911  0.1098  0.0598 -0.1565
62811W        W 5724  34.391  17.852   7.128  0.4590  0.0458 -0.1052
62812W        W 5725   5.026  21.927   8.347  0.1813  0.1717  0.0718
62813W        W 5726   5.079  11.779   2.883 -0.0367 -0.0511  0.1183
62814W        W 5727  22.939  23.212   3.034  0.1425  0.2597  0.0663
62815W        W 5728   5.942  20.212   6.191 -0.3161  0.0222 -0.2822
62816W        W 5729  12.398  25.492   2.911  0.0372 -0.0702 -0.0193
62817W        W 5730  28.122  22.734   5.770  0.1915  0.3033  0.0548
62818W        W 5731   0.424  17.763   9.240  0.0698  0.0548  0.1728
62819W        W 5732   8.188  23.356   7.114 -0.1524  0.1323 -0.0893
62820W        W 5733   1.221  23.038  10.077 -0.0046  0.0142 -0.1572
62821W        W 5734  23.638  23.004  23.643  0.0457 -0.0480  0.0506
62822W        W 5735  12.768  18.047  21.448 -0.0362  0.2134  0.0325
62823W        W 5736  30.325  18.073  27.150  0.0630  0.0007 -0.0076
62824W        W 5737   1.274  33.048  29.675  0.0324  0.0313  0.1631
62825W        W 5738  14.238  14.375  28.035 -0.1727  0.1399 -0.1358
62826W        W 5739   0.489  25.532   1.302 -0.0980 -0.0514  0.0472
62827W        W 5740  11.345  23.958   7.808 -0.0478 -0.2489 -0.1457
62828W        W 5741  34.138  18.542   0.387 -0.1104 -0.1198 -0.0000
62829W        W 5742  14.287  20.829   4.721 -0.0607 -0.0249  0.4075
62830W        W 5743  32.428  16.586   9.155  0.2141  0.1166 -0.1290
62831W        W 5744   5.367  20.080   4.301  0.3411  0.1313 -0.1486
62832W        W 5745  14.052  24.642   5.582 -0.1913 -0.0255 -0.0905
62833W        W 5746   3.461  15.746   3.559 -0.1523 -0.1012 -0.3749
62834W        W 5747  28.919  12.939   7.204  0.2412  0.1077 -0.0587
62835W        W 5748   3.174  18.232   5.343  0.1502  0.2069 -0.0941
62836W        W 5749   9.273  17.888   9.754  0.0248  0.0910  0.2882
62837W        W 5750   0.217  29.811   3.086  0.1668  0.1319 -0.2715
62838W        W 5751  12.513  15.352   4.968 -0.2168  0.0478 -0.0239
62839W        W 5752   4.090  20.766  10.033 -0.1215  0.3289 -0.0127
62840W        W 5753  27.559  24.181   8.669 -0.1776 -0.0072 -0.3130
62841W        W 5754   0.881  20.488   6.201  0.0444 -0.3782 -0.4656
62842W        W 5755  16.001   4.401   3.284  0.1793 -0.3091  0.3744
62843W        W 5756   5.061  19.161   8.689 -0.1098  0.1268  0.0225
62844W        W 5757   0.373  12.763  21.519 -0.1326 -0.4606 -0.3208
62845W        W 5758  33.498  23.089   5.270 -0.2414 -0.1750  0.1086
62846W        W 5759   3.495  27.392   2.255  0.0767  0.3527  0.0655
62847W        W 5760   5.362  27.036   5.763  0.0497 -0.0063 -0.2758
62848W        W 5761   4.196  15.451   3.714 -0.2065 -0.2301  0.1829
62849W        W 5762   6.475  24.576   0.770 -0.1458  0.4711  0.0215
62850W        W 5763  26.266  23.535   3.610  0.0365 -0.2418  0.0547
62851W        W 5764   0.176  22.358  29.244  0.0562  0.1391 -0.2892
62852W        W 5765  20.801  18.256   2.615  0.1192 -0.0586  0.1246
62853W        W 5766  30.502  25.544   0.625  0.1110 -0.0468 -0.1450
62854W        W 5767  34.130  32.328   6.939  0.2594  0.1241  0.0596
62855W        W 5768   0.081  18.231   6.766  0.0023  0.4090 -0.1706
62856W        W 5769   1.285  28.127   9.740  0.0375  0.4053  0.3293
62857W        W 5770  11.409  17.508   6.385  0.1100  0.0007 -0.0874
62858W        W 5771  12.785  23.903   5.272 -0.2104 -0.2757 -0.1806
62859W        W 5772  32.696  21.914  28.703  0.1509 -0.2026 -0.0619
62860W        W 5773  19.383  18.601   2.014 -0.2191  0.1441 -0.1173
62861W        W 5774  30.894  25.339  25.050  0.0745  0.0037 -0.1922
62862W        W 5775   1.007  18.323   5.609 -0.3034 -0.2478 -0.3410
62863W        W 5776   8.778  13.837  23.167  0.1482 -0.4807  0.0582
62864W        W 5777  29.459  29.465   3.414  0.0082  0.0475 -0.1025
62865W        W 5778   7.284  13.388  29.241  0.3596  0.3542 -0.3857
62866W        W 5779  23.796  20.819   7.839  0.1087  0.0839  0.3223
62867W        W 5780   6.867  29.825   7.544  0.1821  0.1730  0.0118
62868W        W 5781   1.588  19.566   6.129  0.1511  0.0907  0.1317
62869W        W 5782   4.661   2.919  26.550  0.3540 -0.0200 -0.1354
62870W        W 5783  12.848  19.987   5.488 -0.0460 -0.3971 -0.1157
62871W        W 5784   9.296  19.683   3.640  0.0930  0.0634  0.2096
62872W        W 5785  29.689  22.484   6.733 -0.0069  0.2490  0.0860
62873W        W 5786  13.130  17.937   7.389  0.1104  0.4588  0.0811
62874W        W 5787   3.970  26.130  21.347  0.2807  0.3974 -0.2710
62875W        W 5788  33.858  26.630   5.344 -0.0688 -0.0121 -0.1612
62876W        W 5789   5.977  23.816   7.894  0.0399  0.0962  0.1190
62877W        W 5790  13.186  17.663   6.931 -0.0366  0.0089 -0.0026
62878W        W 5791  32.902  27.901   6.943  0.0926  0.3112 -0.2788
62879W        W 5792   9.634  20.654   5.574  0.2057  0.2864  0.1490
62880W        W 5793   5.731  15.789   6.427 -0.2658 -0.2519 -0.1540
62881W        W 5794   3.263  19.984  25.770  0.0396  0.1422  0.1707
62882W        W 5795  16.478  27.030   6.556 -0.1314 -0.1991 -0.0981
62883W        W 5796  10.989  20.156  27.286 -0.0810 -0.3582  0.0249
62884W        W 5797  31.340  20.119  22.526 -0.0511  0.0528  0.3859
62885W        W 5798   9.757  24.963   7.017  0.0970  0.1216 -0.1059
62886W        W 5799  34.068  33.650  27.248 -0.0867 -0.0250 -0.1313
62887W        W 5800   7.874  16.155   0.696  0.0878 -0.1798  0.1058
62888W        W 5801  28.722  25.058   8.952 -0.0281  0.1295  0.0103
62889W        W 5802   2.927  21.614  29.427  0.1337 -0.2223 -0.0762
62890W        W 5803  33.634  27.711   6.616 -0.0230  0.1370 -0.0185
62891W        W 5804  10.981  26.069   6.806  0.1135  0.0993 -0.0332
62892W        W 5805  16.985   9.289  25.098  0.1823  0.1504  0.0234
62893W        W 5806   4.114  25.584  10.338  0.0850 -0.2631  0.1683
62894W        W 5807  10.088  19.520  27.784  0.0483  0.3860  0.0128
62895W        W 5808   8.461  10.415   7.052  0.0014 -0.0959  0.0697
62896W        W 5809  16.249  18.176   7.273  0.2273  0.0063 -0.1979
62897W        W 5810   5.723  28.606  29.020  0.0213  0.3624 -0.2675
62898W        W 5811   6.538  32.888  29.055  0.2388 -0.1280  0.0043
62899W        W 5812   1.795  11.421   1.238  0.1700 -0.0366  0.3098
62900W        W 5813   1.168  23.041   2.097 -0.1258 -0.1926 -0.2444
62901W        W 5814   4.769  19.541   8.423 -0.1763  0.0164 -0.2864
62902W        W 5815   7.407   6.909  29.004  0.0010 -0.5600  0.1728
62903W        W 5816   7.322  22.499   9.431  0.0074 -0.4595  0.0411
62904W        W 5817   0.797  14.238  27.446  0.3756  0.2528  0.0307
62905W        W 5818   1.915  22.369   9.469  0.0037 -0.2765  0.1380
62906W        W 5819   3.399  33.009   0.679  0.2476  0.2007  0.2367
62907W        W 5820   8.903  27.079  28.964  0.1143 -0.0625  0.0523
62908W        W 5821   5.938  19.782   4.327 -0.2335 -0.0951  0.0569
62909W        W 5822  10.908  19.200   9.359  0.0034 -0.1234  0.2132
62910W        W 5823   0.770  18.906   7.952  0.0033 -0.0335  0.1471
62911W        W 5824   0.637  20.332  22.195  0.3942 -0.1889  0.1247
62912W        W 5825   1.496  17.654   9.488 -0.1750  0.0065  0.0548
62913W        W 5826  29.211  18.515   1.163  0.1363 -0.0010 -0.0591
62914W        W 5827   9.538  21.666   6.542  0.0393 -0.0611 -0.3387
62915W        W 5828   4.036  17.231   4.082 -0.0109  0.1705  0.1290
62916W        W 5829  31.483  22.823   3.728 -0.1359 -0.0026  0.1221
62917W        W 5830   4.937  25.404   7.907  0.0818 -0.0538  0.1576
62918W        W 5831   6.900  10.425   2.894  0.0514 -0.0458 -0.2803
62919W        W 5832  29.783  15.763  29.676  0.4616 -0.1237  0.0352
62920W        W 5833   7.773  21.457   9.949 -0.1072 -0.1286 -0.0602
62921W        W 5834  28.927  16.795   8.566  0.0576  0.1045 -0.0255
62922W        W 5835   6.054  27.247  18.396 -0.2071 -0.1578  0.2026
62923W        W 5836   1.104  14.042   2.459  0.2518 -0.2705 -0.2444
62924W        W 5837   8.858  12.812   5.593  0.0837 -0.0498  0.2034
62925W        W 5838  29.892  27.007   5.703 -0.4248  0.0384 -0.1185
62926W        W 5839   6.025  32.729   9.641 -0.0842  0.0532 -0.1679
62927W        W 5840   9.382  23.410   5.971 -0.1836  0.0012 -0.1949
62928W        W 5841   7.399  21.273   5.779  0.1090 -0.3354  0.1667
62929W        W 5842  34.343  30.359   4.992  0.0891 -0.3276  0.0007
62930W        W 5843  10.730  23.096  22.340 -0.2756  0.0137  0.0859
62931W        W 5844  30.140  11.586  29.236 -0.4316  0.0489 -0.1443
62932W        W 5845   4.115  25.850   5.584 -0.1310 -0.4122  0.0361
62933W        W 5846  30.217  28.549   2.653  0.0408  0.1529  0.1432
62934W        W 5847   5.685  22.904  29.640 -0.2500 -0.0552 -0.0337
62935W        W 5848   6.772  30.475  26.914  0.1073 -0.2437  0.1198
62936W        W 5849   5.864  26.481   3.064  0.1132 -0.1269 -0.1791
62937W        W 5850   0.540  26.239   8.119  0.1632  0.0780 -0.0464
62938W        W 5851  13.741  19.043  28.828 -0.7772  0.2188 -0.1199
62939W        W 5852  25.234   7.116  26.902  0.1433 -0.1999 -0.1374
62940W        W 5853   5.978  21.316   5.868 -0.3485  0.0322 -0.1272
62941W        W 5854   6.583  31.993   8.048 -0.1186 -0.2125 -0.1952
62942W        W 5855   4.628  21.798   5.478 -0.2964 -0.0097 -0.1318
62943W        W 5856   6.555  26.237   7.808 -0.2060 -0.1986 -0.0824
62944W        W 5857  30.851  22.923   7.502 -0.0727 -0.0171 -0.2745
62945W        W 5858   6.521  15.860   1.413  0.1684  0.0598  0.0736
62946W        W 5859  31.190  17.273   9.426 -0.0480 -0.1227  0.0866
62947W        W 5860   0.921  26.519  10.046 -0.1732 -0.0536  0.2179
62948W        W 5861   6.818  21.504   7.501 -0.1715  0.1712  0.0272
62949W        W 5862  33.747  20.134   7.558  0.1506  0.0658 -0.0732
62950W        W 5863   8.275  18.843   3.214 -0.0595 -0.1243  0.0116
62951W        W 5864   4.222  27.276   1.834  0.0911 -0.0680  0.0762
62952W        W 5865  24.113  21.112  28.437  0.0483  0.2987 -0.4732
62953W        W 5866  32.323  25.522   9.108  0.0441 -0.1679  0.1812
62954W        W 5867   5.540  20.612   4.273 -0.1257 -0.1196  0.3838
62955W        W 5868   5.704  25.986  28.824  0.3542 -0.0071 -0.1101
62956W        W 5869  12.189  15.732   2.988  0.3390 -0.0714  0.0688
62957W        W 5870   1.770  24.788  10.750  0.0092 -0.2639  0.1481
62958W        W 5871   9.904  17.595  28.315  0.0766 -0.0734  0.0029
62959W        W 5872   9.046  29.755   4.224 -0.1536  0.1547 -0.4128
62960W        W 5873   3.008  25.481   3.213  0.1850  0.4150 -0.1721
62961W        W 5874   0.698  12.330   6.473  0.2249 -0.6193 -0.0762
62962W        W 5875  32.675  25.229   4.018  0.0856  0.0545  0.3462
62963W        W 5876  10.757  17.276   7.868  0.1173  0.0253  0.3844
62964W        W 5877   5.811  27.549   3.359 -0.0818  0.0414  0.2595
62965W        W 5878  30.635  18.061   3.109 -0.1472 -0.0097  0.1020
62966W        W 5879   1.360  20.922   7.472 -0.0062 -0.3736 -0.3214
62967W        W 5880  24.770  32.747   8.373 -0.0520  0.0398 -0.4667
62968W        W 5881   9.106  15.270   6.300  0.3103 -0.0449 -0.2724
62969W        W 5882   6.351  17.965   2.831  0.1027  0.1098 -0.2068
62970W        W 5883   7.927  27.434  22.341  0.1338 -0.0246  0.3415
62971W        W 5884  32.934  25.940   3.752 -0.3012 -0.0160  0.0738
62972W        W 5885  22.372  21.498  29.205  0.2252 -0.3413  0.0064
62973W        W 5886   6.477  15.156  29.087 -0.0210 -0.3522 -0.0262
62974W        W 5887   6.580  26.281   8.339  0.1649  0.1436 -0.1972
62975W        W 5888   1.045  32.874  28.272  0.2675 -0.1279 -0.0479
62976W        W 5889   0.533  33.086  27.343  0.0593  0.0655 -0.2141
62977W        W 5890   0.483  15.279   8.659 -0.0686  0.2605 -0.0418
62978W        W 5891  16.225  24.210   6.831  0.0750 -0.1329 -0.0848
62979W        W 5892  17.181   3.609  25.632 -0.3742 -0.2002  0.0915
62980W        W 5893   5.529  28.425   0.185  0.2539  0.0013  0.2099
62981W        W 5894  31.846  20.627   6.987  0.1207  0.2131  0.1084
62982W        W 5895  32.280  29.752   8.845  0.1738 -0.2503 -0.0937
62983W        W 5896  10.467  30.630   6.558  0.1224  0.0060 -0.1911
62984W        W 5897   1.036  27.360   5.430 -0.2022  0.0009  0.0914
62985W        W 5898  21.907  18.925  19.870  0.3088  0.0392 -0.1099
62986W        W 5899   1.914  20.095   7.419 -0.1284  0.0942 -0.2269
62987W        W 5900   5.391  22.286   3.332  0.0747  0.3406 -0.1104
62988W        W 5901   3.344  33.448   8.009  0.2157  0.2390 -0.0369
62989W        W 5902  33.114  27.946   5.403  0.2484  0.1105  0.1633
62990W        W 5903  11.161  29.550  11.273 -0.0371 -0.2004 -0.1176
62991W        W 5904  31.732  29.085   7.950 -0.1477  0.1221 -0.1776
62992W        W 5905  31.724  30.660  24.883  0.2746 -0.2894 -0.1877
62993W        W 5906   4.420   5.166  13.098 -0.2680 -0.0369 -0.1163
62994W        W 5907   9.640  13.692   5.907  0.1959  0.1733  0.0748
62995W        W 5908   2.814  19.323   1.970  0.0300 -0.0873  0.1134
62996W        W 5909  33.037  28.511  10.330 -0.2495 -0.1708  0.2032
62997W        W 5910  30.817  22.020   7.989 -0.3640 -0.0686  0.1596
62998W        W 5911  32.602  26.529   9.077  0.1174  0.0753 -0.0064
62999W        W 5912  31.361  23.730  26.001 -0.2095  0.0834 -0.0854
63000W        W 5913  27.344  28.519   6.748  0.1595 -0.2052  0.0441
63001W        W 5914  28.918  31.571   7.705 -0.1109  0.1914  0.0033
63002W        W 5915   4.721  14.545  29.127  0.0359 -0.1701  0.2173
63003W        W 5916  10.408  21.751   6.415  0.0829  0.2148  0.0789
63004W        W 5917  31.023  27.266   6.336 -0.1025 -0.2402 -0.0841
63005W        W 5918  27.611  30.370   5.218 -0.0032 -0.2370  0.2624
63006W        W 5919   2.450  13.505   0.669  0.0857  0.1787  0.2554
63007W        W 5920   6.855  23.496  10.324  0.2201 -0.3981  0.1090
63008W        W 5921  32.578  19.537  22.766  0.0105  0.0746 -0.2624
63009W        W 5922  30.636  27.146   7.930  0.2793  0.0503 -0.0389
63010W        W 5923   2.946  30.947   3.195  0.2041 -0.0993 -0.1711
63011W        W 5924   1.396  20.139   7.307  0.4192 -0.0461 -0.0983
63012W        W 5925  28.171   6.725   8.562 -0.0887  0.1645  0.1303
63013W        W 5926   4.643   9.526  19.076 -0.2768  0.0135 -0.0660
63014W        W 5927   2.947  22.425   4.706 -0.3894 -0.2943 -0.0512
63015W        W 5928   7.899  25.833  10.922  0.3189  0.0417 -0.2527
63016W        W 5929  29.344  25.653   1.483 -0.2605 -0.0233  0.2646
63017W        W 5930  33.554  27.014  10.298 -0.3442 -0.2218  0.1868
63018W        W 5931  16.380  17.690   7.124  0.0604 -0.0779 -0.0686
63019W        W 5932  31.705  20.828   4.765 -0.0538  0.1821 -0.1381
63020W        W 5933   1.469  18.385   3.394 -0.0891  0.0440  0.1250
63021W        W 5934  34.266  17.235   5.362 -0.4042  0.0709 -0.1560
63022W        W 5935  28.565  16.725   6.453 -0.1838 -0.1054  0.1329
63023W        W 5936   1.027  28.743   9.124  0.0872 -0.1869 -0.0195
63024W        W 5937   5.477  20.954   5.305  0.2526 -0.3282 -0.1059
63025W        W 5938   0.855  27.508   6.581  0.0097 -0.1094 -0.5299
63026W        W 5939  26.306  19.393   0.742  0.1964  0.1241 -0.0193
63027W        W 5940  11.098  24.249   8.105  0.0247 -0.0920 -0.0807
63028W        W 5941   8.546  27.110  10.130 -0.1226  0.2304  0.0961
63029W        W 5942  11.465  30.144  11.998 -0.0376 -0.0155 -0.0220
63030W        W 5943   0.719   2.016   5.111 -0.2374  0.1470 -0.2483
63031W        W 5944  32.861  20.548   6.547 -0.1417 -0.1245 -0.2862
63032W        W 5945  30.630  29.540   6.171  0.1187 -0.2754  0.0753
63033W        W 5946  31.647  25.852   1.679  0.1229  0.2293 -0.4019
63034W        W 5947  33.299  26.562   8.710 -0.1189 -0.3122  0.1133
63035W        W 5948   7.269  22.972   4.318 -0.0066 -0.1302 -0.3948
63036W        W 5949  31.932  26.549   6.288  0.0919  0.2922 -0.1502
63037W        W 5950   7.484   3.549   9.848 -0.2328 -0.3996 -0.0440
63038W        W 5951   6.919   2.364   7.237 -0.0270 -0.1735  0.1329
63039W        W 5952  25.067  26.205   7.492  0.3565 -0.0683  0.2377
63040W        W 5953   0.183  14.005   3.426  0.1956 -0.0679 -0.3372
63041W        W 5954   9.750  27.215   5.374 -0.0827  0.0035  0.2239
63042W        W 5955  33.933  15.536   8.539  0.4058  0.0669 -0.2136
63043W        W 5956   1.102  21.322   9.708  0.1944 -0.1006  0.2527
63044W        W 5957  30.544  21.834   6.702 -0.0571  0.1985 -0.2146
63045W        W 5958  30.522  21.263  28.354  0.0523  0.3378 -0.1502
63046W        W 5959  34.363  26.428   4.865 -0.0610  0.0413 -0.1724
63047W        W 5960  28.800  20.652   7.376  0.0137 -0.1185 -0.0276
63048W        W 5961   7.531  22.780   5.855  0.0944  0.4396 -0.1434
63049W        W 5962   9.399  25.645   8.541 -0.1349  0.0194  0.2671
63050W        W 5963   4.275  22.851  10.106  0.1266 -0.0412  0.1835
63051W        W 5964  15.536  25.704   7.597 -0.3839  0.1727 -0.3987
63052W        W 5965  30.986  29.384  10.354  0.0816 -0.1848 -0.0654
63053W        W 5966  13.585  23.008   5.462  0.0530 -0.2135 -0.2672
63054W        W 5967  27.500  22.359   5.109  0.0604  0.1621 -0.1759
63055W        W 5968  10.907  26.242   7.285 -0.2360  0.0828 -0.0539
63056W        W 5969  21.400  24.532   3.170 -0.1735  0.4784  0.1827
63057W        W 5970  14.258  32.050  11.218 -0.1414 -0.1420 -0.0311
63058W        W 5971   1.256  21.285   4.448  0.1020 -0.3031 -0.3020
63059W        W 5972   0.236  27.029   6.334 -0.1321  0.0191 -0.0137
63060W        W 5973   4.463  25.032   9.313  0.0392 -0.0251 -0.0036
63061W        W 5974  28.969  21.343  29.657  0.0879 -0.0802  0.3089
63062W        W 5975   7.660  24.577   6.128  0.3831 -0.1883  0.1082
63063W        W 5976  30.880  30.781  29.360 -0.0038  0.1083  0.2464
63064W        W 5977   7.898  18.272   8.903 -0.2763  0.3936  0.4059
63065W        W 5978   4.667  21.272   5.729  0.3277 -0.3248  0.2584
63066W        W 5979  33.545  20.105   8.557 -0.0905  0.0880  0.1901
63067W        W 5980   5.553  24.018   5.560  0.2750  0.1489 -0.1947
63068W        W 5981   6.004   0.587   7.768  0.0295  0.1958  0.3251
63069W        W 5982  25.079  24.999  20.843 -0.2083  0.0047 -0.0510
63070W        W 5983   4.893  27.054  29.660  0.0137 -0.0164  0.2256
63071W        W 5984   0.060  18.522   8.965  0.3882  0.1229 -0.0168
63072W        W 5985  33.468  21.496   8.827 -0.0343  0.2065  0.0733
63073W        W 5986  29.952  28.091   6.406 -0.1055 -0.2197 -0.0994
63074W        W 5987   9.501   4.756   5.469 -0.0692 -0.1751  0.1307
63075W        W 5988  33.585   9.495   6.533 -0.2155  0.0444  0.2905
63076W        W 5989   8.512  24.097   7.903 -0.0003  0.0068  0.3891
63077W        W 5990   5.054  22.428   5.661  0.0837  0.1494 -0.1721
63078W        W 5991   6.270  24.577   5.498  0.0408 -0.5320 -0.0439
63079W        W 5992   1.141  15.956   0.608  0.0594 -0.0417 -0.3381
63080W        W 5993   7.158  22.473   6.722 -0.0630  0.1774 -0.1327
63081W        W 5994   9.883  24.105   2.108 -0.1410  0.0805 -0.1003
63082W        W 5995   5.356  18.576   7.610  0.1273 -0.1360 -0.0997
63083W        W 5996   3.721  32.174   4.538  0.0119 -0.0151  0.1473
63084W        W 5997  29.665  30.370   9.600 -0.2962  0.1043  0.1299
63085W        W 5998   0.126  26.785   5.886  0.1184 -0.0332  0.0576
63086W        W 5999  33.002  33.250   8.556  0.3625  0.2030  0.0100
63087W        W 6000   9.143  28.126  28.154  0.2109 -0.2794  0.0585
63088W        W 6001  30.563  23.161   9.120  0.4124 -0.0831 -0.1665
63089W        W 6002  15.801  24.000   6.657  0.1378 -0.3154  0.1280
63090W        W 6003  31.841  29.686  28.149  0.2525 -0.0687 -0.1397
63091W        W 6004   2.111  28.230   7.779  0.4115 -0.2643 -0.0528
63092W        W 6005   5.145  23.727   0.585  0.3380  0.1246 -0.0675
63093W        W 6006   4.787  19.620  10.093  0.0557  0.0148  0.4539
63094W        W 6007  29.939  22.876   8.289 -0.2358  0.2299  0.1759
63095W        W 6008  30.185  18.547   4.794  0.2791  0.0033 -0.1003
63096W        W 6009   4.839  24.975  10.293 -0.1407  0.1515 -0.0138
63097W        W 6010  27.974  21.808   3.729  0.0986 -0.0524 -0.5631
63098W        W 6011   8.835  30.928   9.193 -0.2468 -0.0479 -0.0809
63099W        W 6012  12.966  27.342   5.515  0.3426 -0.0977 -0.0854
63100W        W 6013   1.400   1.084   9.735  0.0397 -0.3458 -0.1026
63101W        W 6014   0.382  32.418   9.197 -0.1962 -0.0789  0.0434
63102W        W 6015   1.747  30.067   1.128  0.0012  0.0575  0.0633
63103W        W 6016  17.232  33.116   5.204  0.1736 -0.2848 -0.1130
63104W        W 6017  18.966  20.038  27.280 -0.1755 -0.2374 -0.0829
63105W        W 6018  19.145  18.704   5.471 -0.1304  0.0084  0.1160
63106W        W 6019   8.990  16.386   5.257  0.4076  0.1605 -0.2414
63107W        W 6020  33.535  19.948   6.713  0.0588  0.2054  0.0732
63108W        W 6021   7.821  20.298   4.868  0.1583  0.1423  0.1485
63109W        W 6022   5.351  19.616   5.471  0.1481  0.0259  0.0427
63110W        W 6023   3.254  24.246   6.672  0.1251  0.1144 -0.1509
63111W        W 6024  14.397  25.656  28.720  0.3074 -0.0581  0.2415
63112W        W 6025  30.297  24.993   7.441  0.1236 -0.2080  0.0016
63113W        W 6026   2.451  25.432  28.799  0.0882  0.0192 -0.1258
63114W        W 6027  32.215  23.431   8.907 -0.0747 -0.0868  0.1130
63115W        W 6028  31.471  29.291   8.818 -0.3549 -0.2051  0.1177
63116W        W 6029  31.451  18.193   6.333 -0.4157 -0.1070  0.1464
63117W        W 6030   2.038  21.954   8.291  0.1713  0.1365  0.0292
63118W        W 6031   2.410  14.341   4.304 -0.2920  0.1536  0.0040
63119W        W 6032  10.093  23.152   8.938 -0.1835  0.0384 -0.1296
63120W        W 6033  29.807  29.044   7.237  0.2313  0.0959  0.0061
63121W        W 6034   0.466  21.742   1.029  0.0866 -0.0163 -0.2730
63122W        W 6035   8.883  21.297   8.605  0.0101  0.3659 -0.0086
63123W        W 6036  33.343  24.448   5.060  0.0236 -0.2082  0.1461
63124W        W 6037   2.348   0.215   9.078 -0.2416  0.1080 -0.0279
63125W        W 6038  32.717  16.256   6.267  0.1044  0.0914 -0.0216
63126W        W 6039  33.508  23.426   9.721 -0.3609 -0.0590 -0.2711
63127W        W 6040  34.243  27.243   8.515  0.0515  0.1366  0.0927
63128W        W 6041   6.777   0.013  12.064 -0.1722  0.0881  0.2936
63129W        W 6042  10.781  23.676   7.909  0.1453 -0.0809  0.0464
63130W        W 6043   6.291  15.541   7.205  0.1489  0.0203  0.0786
63131W        W 6044  26.499  16.085  28.324  0.0780 -0.2984  0.1498
63132W        W 6045   5.168  24.745   1.892  0.1360  0.0313  0.1110
63133W        W 6046  29.507  23.973  29.708 -0.2411 -0.0527 -0.3738
63134W        W 6047   4.700  20.163   7.062  0.0876  0.1672  0.1796
63135W        W 6048   7.874  31.914   6.745  0.0781 -0.4167 -0.2738
63136W        W 6049  30.624  33.756   8.119  0.2830 -0.0359  0.2068
63137W        W 6050  32.983  20.685   4.178 -0.0314  0.1039  0.1119
63138W        W 6051   5.530  29.679  11.095 -0.0024 -0.1277  0.2010
63139W        W 6052   6.407  21.254   8.788 -0.4908 -0.0193  0.0092
63140W        W 6053   6.534  27.736   5.188 -0.1432  0.1959 -0.1809
63141W        W 6054   8.538  17.591   7.315  0.1434  0.2749 -0.5046
63142W        W 6055   3.117  19.243   6.840  0.0336  0.1656 -0.0304
63143W        W 6056   5.991  21.281   9.674  0.1483 -0.3785 -0.1534
63144W        W 6057   2.450  29.605   4.184  0.0997  0.1503 -0.1905
63145W        W 6058  10.160  20.926   5.496 -0.0135  0.0122 -0.2526
63146W        W 6059   6.011  21.913   8.345  0.2700  0.0329 -0.3485
63147W        W 6060  10.514  26.193   7.009 -0.0774 -0.0274  0.1322
63148W        W 6061   0.888  28.127   8.979  0.3486  0.2232  0.2150
63149W        W 6062   4.979  32.463   4.458 -0.0059  0.0860  0.2573
63150W        W 6063   6.163  23.511   9.127  0.1736  0.1124  0.0202
63151W        W 6064   0.388  23.089   7.939  0.0433 -0.0583  0.1766
63152W        W 6065  32.263  25.748   5.688 -0.3102  0.4286  0.1185
63153W        W 6066   0.634  27.066   5.821 -0.0893  0.0771 -0.3378
63154W        W 6067   8.344  13.883   8.759 -0.1110  0.0451 -0.0520
63155W        W 6068   0.006  32.439   9.581 -0.1980 -0.0247  0.0649
63156W        W 6069  31.873  20.377   2.020  0.0174 -0.2725  0.0662
63157W        W 6070   3.808   9.571   3.935 -0.0621  0.1384  0.2946
63158W        W 6071  13.750  22.796   9.464  0.2921  0.1393  0.1741
63159W        W 6072   1.768  23.303   2.720 -0.0959  0.1490  0.0920
63160W        W 6073   5.734  26.650   6.016  0.0786 -0.0879 -0.2536
63161W        W 6074   1.318  24.806   8.388 -0.1052 -0.1333  0.1817
63162W        W 6075   5.476  26.732  10.061  0.3472 -0.3779 -0.3269
63163W        W 6076  33.529  28.057   7.009  0.2774 -0.0507 -0.0616
63164W        W 6077   1.086  23.423  28.562 -0.2772  0.0496  0.0255
63165W        W 6078   7.821  25.950   4.302 -0.3777 -0.4046 -0.1511
63166W        W 6079   1.302  16.679   3.514 -0.0614 -0.1828 -0.1986
63167W        W 6080  27.345  21.416   7.508  0.0039  0.2265  0.0416
63168W        W 6081   1.014  11.822   4.149 -0.1753 -0.0241 -0.4787
63169W        W 6082  32.697  20.060   6.638  0.0101 -0.0777 -0.0314
63170W        W 6083  10.879  24.544   9.450 -0.0847 -0.1144 -0.0956
63171W        W 6084   4.375  26.661   2.939  0.1174  0.0682 -0.4659
63172W        W 6085   1.848   0.120  10.527  0.0569  0.2470 -0.2803
63173W        W 6086   2.548   4.697   4.027  0.2844  0.0036  0.0637
63174W        W 6087  23.824  22.696   1.792 -0.1430  0.1627  0.1472
63175W        W 6088   4.136  22.390   8.483  0.1517  0.1825  0.2166
63176W        W 6089   1.151  21.725   6.857 -0.2222  0.0572  0.1961
63177W        W 6090   1.081  18.426   9.183  0.1456 -0.1006 -0.0561
63178W        W 6091   8.567  29.876   6.874 -0.3223 -0.1742 -0.0232
63179W        W 6092   2.414  17.854   1.231  0.2459  0.1335 -0.0211
63180W        W 6093  13.420  33.910   5.394 -0.2536  0.1797  0.2267
63181W        W 6094  26.296  27.845   4.918 -0.1059  0.0899 -0.1456
63182W        W 6095   8.807  21.613   0.067 -0.0375  0.2428  0.2310
63183W        W 6096  31.962  29.290   4.756 -0.1356  0.0313  0.0332
63184W        W 6097   6.032  21.511   0.930 -0.0852 -0.0121  0.3013
63185W        W 6098   7.280  18.017   6.167  0.2422 -0.0778  0.4903
63186W        W 6099  27.764  28.212   7.799  0.0542 -0.2026 -0.0798
63187W        W 6100  27.264  18.211   9.720  0.0687 -0.0826 -0.1442
63188W        W 6101  10.554  23.260   9.081 -0.1243  0.0821 -0.1515
63189W        W 6102   6.626  16.949   1.544  0.0389  0.0632  0.0838
63190W        W 6103   8.000  31.017  10.978  0.1134 -0.0078  0.1306
63191W        W 6104   9.242  28.736   8.257 -0.1506  0.2127  0.0044
63192W        W 6105   6.448  32.232   3.256  0.1258 -0.1513  0.0353
63193W        W 6106   7.765  22.684   1.851  0.0923 -0.2672 -0.1752
63194W        W 6107   4.943  31.291  26.623  0.0358 -0.2685  0.3194
63195W        W 6108  33.849  13.864   2.313  0.0561  0.0627  0.1356
63196W        W 6109  32.090  22.072   8.325 -0.2094  0.2262 -0.0843
63197W        W 6110  32.682  16.859   5.780 -0.2665  0.0732 -0.0122
63198W        W 6111  11.009   1.753   0.488  0.0518  0.2626  0.4526
63199W        W 6112   1.089  22.396  29.629 -0.1255 -0.1429 -0.1804
63200W        W 6113   2.311  31.131   7.848  0.0672 -0.3252  0.3309
63201W        W 6114   0.124  22.384   6.201 -0.0575 -0.1495 -0.0001
63202W        W 6115  11.492   4.557   1.901  0.1040 -0.0486  0.2351
63203W        W 6116  10.603  30.422   6.032  0.1225  0.1201 -0.1461
63204W        W 6117  33.254  25.621   6.133 -0.0860 -0.0958 -0.1823
63205W        W 6118   4.447  27.195   3.686 -0.0375 -0.0697  0.1198
63206W        W 6119  13.970  25.149   4.804 -0.1467  0.2055  0.1527
63207W        W 6120  19.982  29.679   6.366 -0.0953 -0.2949  0.2869
63208W        W 6121   1.252   6.239   5.672  0.2088  0.1693 -0.0160
63209W        W 6122  31.408  20.327   7.169  0.1250  0.2058 -0.1726
63210W        W 6123  31.547  23.764   8.196  0.1503  0.1396  0.2083
63211W        W 6124  27.022  17.892   1.206 -0.3142  0.0190 -0.1004
63212W        W 6125   8.049  22.521   7.521  0.1234 -0.0936  0.2556
63213W        W 6126   1.648   0.062  10.081  0.1875  0.4411 -0.0884
63214W        W 6127   4.455  19.698   8.783 -0.0509 -0.0240 -0.1388
63215W        W 6128  22.596  28.152   4.218 -0.3270  0.1797  0.0384
63216W        W 6129  34.081  17.469  28.873  0.1147 -0.1339 -0.3048
63217W        W 6130   6.513  23.015   5.062 -0.2209 -0.1565  0.2378
63218W        W 6131   0.113  20.760   9.756 -0.1281  0.2150 -0.0373
63219W        W 6132   0.682  24.872   7.389  0.0671 -0.0479  0.0077
63220W        W 6133   7.235  29.859   0.885  0.1219 -0.3226 -0.1570
63221W        W 6134   5.566  16.333  25.690  0.0340 -0.0153 -0.2002
63222W        W 6135  34.383  20.932   6.390  0.1258 -0.2239  0.3694
63223W        W 6136   4.269  18.622   8.940 -0.0616 -0.2036 -0.0403
63224W        W 6137   1.058   1.750   6.169 -0.1204 -0.0095 -0.1484
63225W        W 6138  25.147  17.317  28.350  0.1963  0.0522  0.2727
63226W        W 6139  12.962  26.064   9.092  0.2353 -0.2041  0.0532
63227W        W 6140  17.243  17.208  22.764  0.1305  0.1117 -0.0511
63228W        W 6141   5.238  24.725  10.101  0.0163 -0.0871 -0.0484
63229W        W 6142   0.261  29.729  29.503 -0.0630 -0.0318 -0.0669
63230W        W 6143   9.979  30.060  10.848  0.0516  0.0623  0.1853
63231W        W 6144  32.576  20.308   4.114 -0.0830  0.0357 -0.1861
63232W        W 6145  27.055   2.314   6.416  0.2569 -0.0859  0.3474
63233W        W 6146  25.355  22.406  28.074  0.2896  0.0293 -0.0779
63234W        W 6147   3.966  14.750   4.558 -0.2252  0.4744 -0.3619
63235W        W 6148   4.379  25.675   6.713  0.0120  0.0135 -0.0149
63236W        W 6149  11.590  25.640   6.319 -0.0563  0.1966 -0.3964
63237W        W 6150   1.206  27.416   9.258 -0.3045  0.0351  0.2371
63238W        W 6151   6.849  26.540   9.796 -0.1580  0.0681  0.3147
63239W        W 6152  13.709  28.307   6.672  0.2769 -0.1725 -0.2424
63240W        W 6153  30.592  28.460   7.213 -0.0010 -0.2067 -0.1238
63241W        W 6154   2.880  33.808   7.086 -0.2023  0.2420 -0.4475
63242W        W 6155   1.218  21.283   9.229  0.1613 -0.1607 -0.1904
63243W        W 6156  24.500  16.094   6.935 -0.0507 -0.1692  0.1358
63244W        W 6157   5.682  10.080  24.557  0.1304 -0.2914  0.0779
63245W        W 6158  31.149  20.927   0.274 -0.2847  0.1292  0.0552
63246W        W 6159   0.699  14.336   8.766 -0.2561  0.0744  0.3555
63247W        W 6160   4.928  18.220   7.633  0.1453 -0.2418  0.0752
63248W        W 6161  28.255  24.317  28.175 -0.0686  0.0079  0.3215
63249W        W 6162  32.663  11.170   7.421 -0.2476  0.0623  0.0286
63250W        W 6163   3.893  21.138   4.651 -0.2246  0.0552 -0.0726
63251W        W 6164   8.261  30.620  11.837  0.1951 -0.1708 -0.2575
63252W        W 6165  17.743  17.366   1.710  0.3317  0.2297 -0.1990
63253W        W 6166  11.387  32.988   2.748 -0.2050 -0.1972  0.3609
63254W        W 6167  21.391  20.504   5.834 -0.0601 -0.3330  0.1508
63255W        W 6168   5.250  22.737   4.079 -0.2042  0.1029 -0.2853
63256W        W 6169   5.424  32.720   4.232 -0.4538 -0.0758 -0.2563
63257W        W 6170   3.202  19.923   1.356  0.0893 -0.1264  0.0705
63258W        W 6171   1.281  34.034  28.688 -0.0257 -0.0030 -0.0937
63259W        W 6172  29.500  22.508   9.075  0.2454  0.3452 -0.0802
63260W        W 6173  10.721  18.360   7.206  0.0746  0.1638 -0.0325
63261W        W 6174   7.509  30.275   7.001  0.0696 -0.1305 -0.3948
63262W        W 6175   4.716   3.621   3.000  0.2507  0.0011 -0.1354
63263W        W 6176  33.695  18.288   5.260 -0.0931 -0.1081 -0.2282
63264W        W 6177  15.977  13.433   7.991 -0.0034  0.2527 -0.1701
63265W        W 6178   1.410  30.543   6.768 -0.1017  0.1298  0.0197
63266W        W 6179   0.184  12.387   6.231 -0.3538  0.2322 -0.0868
63267W        W 6180  33.114  25.602   5.584 -0.0195 -0.3551  0.0011
63268W        W 6181  11.530  23.330   7.486  0.1355 -0.0279  0.3714
63269W        W 6182   7.561  30.096   5.946 -0.2132  0.0565  0.3080
63270W        W 6183  33.604  20.312   7.080  0.1168  0.0482 -0.1284
63271W        W 6184   1.405  26.127   8.737  0.0967 -0.1847 -0.0792
63272W        W 6185   6.470  30.051   6.783 -0.3207 -0.0223  0.1697
63273W        W 6186  34.411  14.368   0.621  0.1102 -0.0191 -0.1592
63274W        W 6187  30.619  12.383   0.483  0.1066 -0.2545 -0.0397
63275W        W 6188  28.992  24.158   8.710 -0.3026 -0.3931  0.2709
63276W        W 6189  26.334   4.013   8.700 -0.3458 -0.3033 -0.1034
63277W        W 6190   7.948  21.445   5.641 -0.2692  0.0303 -0.1309
63278W        W 6191  29.735   1.153   8.729  0.3210  0.0510 -0.2856
63279W        W 6192  34.212  25.482   2.206 -0.3681 -0.3434  0.0466
63280W        W 6193   5.137  12.116  29.375 -0.1484  0.1973 -0.1258
63281W        W 6194  30.125  24.851   6.142  0.0803  0.3230  0.0160
63282W        W 6195  17.264  22.066   7.523 -0.2211 -0.1100  0.3717
63283W        W 6196   8.036   5.033  10.086 -0.1958 -0.0047  0.0658
63284W        W 6197   4.957  22.498   7.121 -0.1034 -0.1790  0.2103
63285W        W 6198   3.436  21.959   9.592 -0.3839 -0.0588  0.3144
63286W        W 6199   1.806  20.659   3.454  0.0446 -0.1146 -0.0696
63287W        W 6200   9.916  26.838  25.582 -0.2490 -0.2061  0.1171
63288W        W 6201  32.958   2.758   0.554  0.1783 -0.0719 -0.2472
63289W        W 6202  28.859   0.769   7.935  0.2575  0.0570 -0.0268
63290W        W 6203  28.529  31.284  28.940 -0.1453 -0.1274  0.2553
63291W        W 6204   7.689  27.734   2.821  0.0116 -0.4029 -0.2516
63292W        W 6205  33.183  27.355   3.612 -0.0823 -0.0059  0.2587
63293W        W 6206   6.330  30.336   9.372  0.3321  0.2726 -0.1957
63294W        W 6207  27.613  22.037   4.776 -0.1947  0.0322 -0.4818
63295W        W 6208   3.351  19.434  26.015 -0.2929  0.1486 -0.0795
63296W        W 6209  29.436  16.924   0.325 -0.0588  0.2846 -0.0894
63297W        W 6210  33.621  29.038  27.684  0.1310 -0.0204  0.1033
63298W        W 6211   6.604  20.301   7.762 -0.2069  0.0394 -0.0625
63299W        W 6212  32.708  28.718   3.347 -0.1499  0.2257  0.2124
63300W        W 6213  29.004  20.766   3.610  0.0324  0.3078 -0.0482
63301W        W 6214  18.924  16.457   1.134 -0.1015  0.0360  0.3692
63302W        W 6215   6.558  28.398   3.980  0.0061  0.2920 -0.1691
63303W        W 6216   7.579  17.064   9.033 -0.0617  0.2348 -0.5035
63304W        W 6217   6.983  18.541  29.321  0.0457  0.3987  0.2162
63305W        W 6218   9.107  21.847  24.230  0.1509 -0.0812 -0.2133
63306W        W 6219   4.747  20.639   4.904 -0.3113  0.0883 -0.2015
63307W        W 6220   4.989  31.501   1.190  0.2220  0.0234  0.0575
63308W        W 6221  32.660   0.295   5.396  0.1960  0.0190  0.0252
63309W        W 6222   0.178  23.400   5.360 -0.1591 -0.1393  0.0673
63310W        W 6223  27.463  26.946   6.885  0.1157 -0.1225 -0.1213
63311W        W 6224   3.090  29.285   4.188  0.1324 -0.0458 -0.2652
63312W        W 6225  27.344  24.793   6.019  0.0724  0.3649  0.0540
63313W        W 6226   6.955  30.334   8.557 -0.2064  0.0098  0.0848
63314W        W 6227   2.909  19.313   3.217 -0.0994 -0.0549  0.0988
63315W        W 6228   1.891   0.489   7.832 -0.0805 -0.0621  0.1084
63316W        W 6229   0.083  22.028   2.842  0.0183  0.1530  0.0646
63317W        W 6230  28.085  28.439  22.048  0.3043  0.2174 -0.2277
63318W        W 6231  27.140  26.161  23.426 -0.0295  0.0068 -0.0714
63319W        W 6232   6.290  33.015   8.510 -0.1557 -0.0463  0.0650
63320W        W 6233  33.885  31.372   8.614  0.0335 -0.2608 -0.1762
63321W        W 6234   7.936  30.231  17.979  0.2063  0.2276 -0.2221
63322W        W 6235  29.310  26.191   9.041 -0.2466  0.0574  0.1068
63323W        W 6236   2.986  32.325   2.993  0.0495 -0.1753 -0.2873
63324W        W 6237  22.820   4.112   3.442  0.0150 -0.0211  0.1398
63325W        W 6238   7.423  28.950   8.271  0.0848  0.0949  0.1079
63326W        W 6239   3.643   0.183   7.424 -0.0029 -0.1025 -0.1569
63327W        W 6240   0.114  24.488  22.194  0.2333  0.1063 -0.0036
63328W        W 6241  12.438  22.496  25.678  0.1401 -0.0193 -0.1240
63329W        W 6242   3.321   3.148   1.695 -0.2104 -0.1655  0.0085
63330W        W 6243   5.551  21.830   2.223  0.1292 -0.2962  0.2854
63331W        W 6244  29.886  28.222  26.976 -0.1175 -0.0409 -0.0939
63332W        W 6245   7.722  17.059  28.311  0.1332  0.1810 -0.1125
63333W        W 6246   8.848  29.303   5.781  0.1513  0.0173  0.0573
63334W        W 6247  11.712  26.995  25.665  0.2324 -0.0903  0.2597
63335W        W 6248   7.420  27.502   5.111  0.1708 -0.1854  0.1650
63336W        W 6249  31.843  28.078  25.673 -0.0117 -0.1606 -0.1445
63337W        W 6250   0.626   0.432   1.742 -0.3143  0.1534  0.0107
63338W        W 6251  10.725  16.861  29.348  0.2748  0.0706  0.0155
63339W        W 6252   1.003  13.126   0.367 -0.0741 -0.1762 -0.2081
63340W        W 6253  34.372  17.856   3.319  0.3608  0.1850 -0.1283
63341W        W 6254   5.290  28.881   2.002  0.2067  0.1441 -0.1270
63342W        W 6255   0.773  34.053   4.638 -0.0143 -0.2924  0.0006
63343W        W 6256  34.358  15.382  26.670 -0.1519  0.0648  0.0282
63344W        W 6257   1.300  20.077   6.023  0.1078 -0.0274 -0.0782
63345W        W 6258  33.434  22.170   9.507 -0.0265 -0.3836 -0.2556
63346W        W 6259  32.019  21.193   6.267  0.1946  0.1109  0.0706
63347W        W 6260  33.995  27.895   7.102 -0.2004  0.0794 -0.1340
63348W        W 6261   3.955  20.650  23.619  0.5254  0.1005 -0.3567
63349W        W 6262  30.801  30.456  28.373  0.2131  0.1033  0.0830
63350W        W 6263   4.515  18.755   9.879  0.0193  0.0623 -0.0345
63351W        W 6264   4.673  16.497   5.593 -0.1683  0.0062 -0.1573
63352W        W 6265   1.676  21.608   8.137 -0.1554  0.0791  0.1728
63353W        W 6266   5.080  30.549   3.961 -0.1187  0.2377 -0.1925
63354W        W 6267   7.607  24.110  10.622  0.1188 -0.1479 -0.0433
63355W        W 6268   5.427  30.402  27.295 -0.0665 -0.0165  0.1149
63356W        W 6269  25.509  21.696   6.563 -0.0934 -0.4068  0.0478
63357W        W 6270   4.886  29.955   2.871 -0.1665 -0.0480  0.0299
63358W        W 6271   8.695  21.244   9.368  0.1634  0.0864 -0.1195
63359W        W 6272  32.191  29.398   1.289  0.2469 -0.0343  0.1714
63360W        W 6273  15.589  26.140   8.735 -0.2084  0.0404  0.2202
63361W        W 6274   1.858  31.159  16.213  0.0622  0.1938 -0.0300
63362W        W 6275   1.067  19.328  25.252  0.0610 -0.1315  0.2496
63363W        W 6276  15.521   1.867  24.402  0.0496 -0.3225  0.1772
63364W        W 6277  12.918  22.832  22.208  0.0480  0.0899  0.0838
63365W        W 6278  31.549  22.708   1.878  0.0594  0.3113  0.1379
63366W        W 6279  30.523  19.211   0.999 -0.0831  0.0138  0.0888
63367W        W 6280  32.722  20.509  26.402 -0.0585 -0.1218 -0.3034
63368W        W 6281  33.571  25.311   4.128 -0.0474  0.0212 -0.0371
63369W        W 6282  10.989  30.001   4.544  0.0983 -0.0955  0.0260
63370W        W 6283  30.160  23.801   6.079 -0.1213  0.0816 -0.2627
63371W        W 6284  32.809   1.838  21.576  0.3240  0.1118 -0.4253
63372W        W 6285   1.252  24.425   4.468  0.0270  0.0782 -0.1008
63373W        W 6286   1.334  18.882   2.124  0.2613  0.1455  0.1484
63374W        W 6287  25.677  18.059   4.381  0.1132 -0.0243 -0.1095
63375W        W 6288  28.179  25.577   9.530  0.3095  0.1684  0.1751
63376W        W 6289   3.030  29.001   0.483 -0.0196  0.2297  0.2500
63377W        W 6290  17.142   6.487   3.651  0.1448 -0.2204 -0.1371
63378W        W 6291   6.406  24.291  28.783  0.4055 -0.1308 -0.0490
63379W        W 6292   5.256  23.448  15.686 -0.1557  0.1375  0.2117
63380W        W 6293  33.121  24.077   3.498  0.0869 -0.2277 -0.1231
63381W        W 6294   1.289  14.171   7.683  0.3438 -0.0838 -0.0938
63382W        W 6295   6.822  28.072  10.183 -0.1476 -0.0241 -0.1954
63383W        W 6296  12.531  20.465  28.040 -0.3398  0.2424  0.2492
63384W        W 6297   4.206  26.413   9.218  0.1002 -0.2403 -0.0239
63385W        W 6298  32.831  31.299   4.803  0.0803 -0.1176  0.1121
63386W        W 6299   3.337  25.976   0.639 -0.0611  0.1412 -0.0947
63387W        W 6300   7.417   1.894   6.426 -0.2000  0.1566 -0.0236
63388W        W 6301  30.424  19.275  28.447  0.0530  0.1067 -0.1478
63389W        W 6302   4.390   4.379   2.367  0.1089  0.0117 -0.1300
63390W        W 6303  34.288  32.182   8.328 -0.3778  0.0113  0.0221
63391W        W 6304  16.009  29.243  24.828  0.0317 -0.3094  0.1055
63392W        W 6305   4.903   4.368  26.289 -0.1775  0.2539  0.1355
63393W        W 6306   7.434  17.234   4.661  0.4514  0.4129 -0.1106
63394W        W 6307  30.929  23.194  25.666 -0.2634  0.0375 -0.1342
63395W        W 6308  30.649  20.300   3.783 -0.1951  0.1450  0.3033
63396W        W 6309  28.802  21.098  26.603  0.0497  0.2483 -0.0175
63397W        W 6310   9.233   1.688  27.055 -0.3634 -0.0368  0.3354
63398W        W 6311  23.218  25.372   3.940 -0.2154 -0.0478  0.0164
63399W        W 6312   9.237  28.277  23.770 -0.0862 -0.2952  0.2442
63400W        W 6313   6.203  19.842   5.945  0.1263 -0.0555  0.2142
63401W        W 6314   6.293  18.161  19.568 -0.0789  0.1444  0.1746
63402W        W 6315   3.183  21.437   8.335 -0.0480 -0.0517 -0.2979
63403W        W 6316   4.007  27.298   2.287  0.1881 -0.0146  0.1435
63404W        W 6317  27.844  27.502  29.564 -0.2091  0.0172  0.2045
63405W        W 6318   5.175  20.178  27.250 -0.0274 -0.0378  0.0321
63406W        W 6319  30.363  14.888  18.976  0.0484 -0.4755  0.2213
63407W        W 6320   4.525  24.711   8.551 -0.1328  0.0294  0.3957
63408W        W 6321   5.924   6.770  22.110 -0.0928 -0.0433  0.0904
63409W        W 6322  14.388  20.125   3.917 -0.0746  0.2926 -0.0372
63410W        W 6323  15.008  26.317   4.858  0.0032  0.0002 -0.0969
63411W        W 6324   7.325  19.682  29.096 -0.2315  0.2058  0.2411
63412W        W 6325  32.107  24.234  17.493  0.0546  0.1399 -0.1785
63413W        W 6326  33.933  24.410   8.708 -0.1672  0.0003 -0.2294
63414W        W 6327   3.987  23.701  18.776 -0.0064  0.1612 -0.3565
63415W        W 6328   0.410  33.779  24.776  0.1367  0.1993 -0.0347
63416W        W 6329  34.210  33.236   6.631 -0.1262  0.0751  0.0852
63417W        W 6330  12.553  33.138  10.968  0.1045  0.0898  0.3849
63418W        W 6331   0.519  31.342   4.379  0.1254 -0.1260 -0.0931
63419W        W 6332   8.290   9.280  28.135 -0.0078 -0.3540 -0.3424
63420W        W 6333   1.562   0.117   7.980  0.3287  0.0348  0.1720
63421W        W 6334   9.847  25.516   4.148 -0.0503  0.1301 -0.0839
63422W        W 6335  33.536  20.504   0.676  0.0014  0.1054  0.1160
63423W        W 6336  18.541  23.238   5.920  0.0782 -0.1670 -0.1097
63424W        W 6337  11.093  25.723   9.091 -0.2031 -0.1381 -0.2546
63425W        W 6338  10.389  19.562   2.652  0.1017 -0.2802  0.3834
63426W        W 6339   1.558  27.778  10.022 -0.1760 -0.0902  0.3311
63427W        W 6340   2.245  12.636   2.766 -0.2620 -0.0353 -0.1151
63428W        W 6341  29.694  26.703  22.502 -0.1144  0.1301 -0.2881
63429W        W 6342   7.910  17.006   3.485  0.0351 -0.1392 -0.1002
63430W        W 6343   7.422  31.503  10.146  0.2763  0.1740 -0.0657
63431W        W 6344   1.557  18.427  26.170 -0.0924 -0.0590  0.0035
63432W        W 6345   3.253  22.663   7.038  0.0547 -0.0577  0.1229
63433W        W 6346   3.580  22.490   1.380  0.0758  0.2193  0.0459
63434W        W 6347  24.490  22.780  25.323  0.4597  0.0885 -0.1439
63435W        W 6348   9.560  16.863   1.985  0.3615 -0.0732 -0.1748
63436W        W 6349   8.396  18.194   2.999  0.2113 -0.0648 -0.0407
63437W        W 6350   8.724   1.159  28.546  0.1054  0.1039 -0.1348
63438W        W 6351   6.253  21.989  26.962 -0.0994  0.2130  0.4261
63439W        W 6352  11.375  26.621   2.896 -0.0339 -0.0373  0.1778
63440W        W 6353   4.385  27.781   6.656  0.2323 -0.0226 -0.1588
63441W        W 6354   5.002  16.331   0.593 -0.1353 -0.0726  0.0121
63442W        W 6355  15.778  28.580  15.911 -0.0996  0.2071  0.0762
63443W        W 6356   9.119  21.526  28.345 -0.0060 -0.0099  0.0199
63444W        W 6357   6.403  26.998  27.781  0.4213  0.3559  0.1673
63445W        W 6358   1.246  29.114   0.841 -0.0072  0.2084  0.0816
63446W        W 6359  14.537  28.545  26.176  0.1140 -0.3018  0.0551
63447W        W 6360   4.111  15.945  16.199  0.1297  0.2001 -0.0181
63448W        W 6361   3.692  22.611   7.870  0.4113  0.1629 -0.0617
63449W        W 6362   7.206  29.357  10.033  0.1455  0.0919  0.1468
63450W        W 6363   0.359  24.560   3.488 -0.3227  0.0434  0.1766
63451W        W 6364  25.162  20.057   4.950  0.0599  0.0978 -0.2148
63452W        W 6365  32.052  33.167   7.284  0.0960  0.4163 -0.1166
63453W        W 6366   3.928   4.551  22.997  0.3402 -0.0138 -0.1102
63454W        W 6367   2.004  16.941  27.992 -0.0283 -0.0959  0.2044
63455W        W 6368   0.061  29.651   2.446 -0.0273  0.3847  0.1128
63456W        W 6369  30.047  28.718  26.196  0.0085  0.2872 -0.1433
63457W        W 6370   6.297  19.577   0.873  0.0048  0.2344 -0.2688
63458W        W 6371  33.823   5.105   0.184  0.0221 -0.0439 -0.0431
63459W        W 6372  26.162  32.209   7.627 -0.2684  0.1215 -0.1765
63460W        W 6373  21.693  13.256  24.846 -0.2417  0.1013  0.1040
63461W        W 6374  24.729   0.199   1.402 -0.0382 -0.1042 -0.3060
63462W        W 6375   3.772  23.503   5.035 -0.0782 -0.1502 -0.0710
63463W        W 6376   2.346  28.102   4.820 -0.2232 -0.1484  0.0029
63464W        W 6377  15.543  31.665  10.466 -0.0229 -0.0994 -0.1209
63465W        W 6378  29.246  23.867   1.758 -0.2626 -0.1632 -0.2384
63466W        W 6379  29.832  33.428   0.304 -0.0197 -0.1031  0.0581
63467W        W 6380   5.522  21.452  25.821 -0.2048 -0.0490  0.1768
63468W        W 6381  30.664  26.944   7.063 -0.0896  0.1136  0.2265
63469W        W 6382  13.614   1.080   0.147  0.0638 -0.0149  0.2250
63470W        W 6383   3.240  31.858   2.226 -0.2953 -0.0927 -0.0719
63471W        W 6384   2.968  21.097  26.483 -0.0049 -0.0843  0.2445
63472W        W 6385   0.825  25.110  25.887  0.0137 -0.0188 -0.2654
63473W        W 6386  30.671   5.320  26.059  0.0736 -0.0531  0.0528
63474W        W 6387   4.269  24.306  24.046 -0.1536 -0.1215 -0.0020
63475W        W 6388   2.520  29.143   3.979  0.1625  0.3043 -0.0962
63476W        W 6389   8.584  29.065  22.778 -0.1141 -0.1256 -0.0167
63477W        W 6390  23.634  13.606   2.785  0.2862  0.0115  0.1237
63478W        W 6391   3.881  27.360  10.443  0.2196 -0.1008 -0.0191
63479W        W 6392   6.693  26.040   4.040  0.1967  0.0199 -0.0225
63480W        W 6393  33.517  17.880   4.473  0.0525 -0.0339 -0.0950
63481W        W 6394  32.856  16.115  19.852  0.2603  0.2560 -0.0148
63482W        W 6395  26.138  10.213  23.001 -0.1609 -0.1452 -0.0601
63483W        W 6396   9.209  32.931   8.477 -0.0681 -0.1665  0.1256
63484W        W 6397   0.700  23.526   7.058  0.1373 -0.4452 -0.0649
63485W        W 6398   5.937  26.305   9.191  0.1872 -0.3142 -0.0625
63486W        W 6399  33.768  26.929  27.405 -0.2321  0.0928 -0.1480
63487W        W 6400   0.084  33.423  24.930 -0.0125 -0.3855  0.0822
63488W        W 6401  18.988  25.732  27.655 -0.0212  0.1162  0.1090
63489W        W 6402  31.300   5.675   6.823  0.2454 -0.1390 -0.0611
63490W        W 6403   4.582  16.132   0.187  0.1680  0.0149  0.1552
63491W        W 6404   5.558  25.181  28.308 -0.1157  0.1023  0.2204
63492W        W 6405  31.379  29.184   3.792  0.0249  0.2335 -0.1215
63493W        W 6406  31.100  29.860   4.107 -0.1595  0.0060  0.2554
63494W        W 6407  33.570  21.950   6.165  0.0899 -0.2104 -0.0730
63495W        W 6408  20.914  26.492  29.470 -0.0070  0.0861 -0.2028
63496W        W 6409  28.504   0.067   5.113  0.3542  0.1718 -0.2021
63497W        W 6410   5.061  21.250   1.135  0.3555  0.1484  0.3073
63498W        W 6411   5.500  33.806   7.545 -0.3584  0.1549 -0.1884
63499W        W 6412  31.716  20.332  10.321  0.1757 -0.1514  0.0102
63500W        W 6413  15.957  29.800   5.652 -0.2336 -0.0190  0.1219
63501W        W 6414   3.093  33.077  22.314  0.1415  0.0735 -0.1856
63502W        W 6415  10.953  25.015  10.273 -0.1318  0.0087 -0.1914
63503W        W 6416   3.034  19.696  23.706 -0.1624 -0.2114 -0.0102
63504W        W 6417   9.318  24.363   7.194  0.0686 -0.0392 -0.1095
63505W        W 6418   5.387  27.170   1.503 -0.0876  0.3648 -0.2503
63506W        W 6419   0.105  27.169  19.191 -0.0473  0.1319 -0.2582
63507W        W 6420  30.779  24.732   1.003  0.2883  0.0843  0.0658
63508W        W 6421  31.758  27.143   3.790 -0.1671  0.3855 -0.0350
63509W        W 6422  31.704  31.972  18.928 -0.2030 -0.0774 -0.2636
63510W        W 6423  32.821  33.092  23.390  0.1407 -0.1726  0.1487
63511W        W 6424   7.147  31.658  11.049 -0.1269 -0.1926 -0.2266
63512W        W 6425   1.663  22.743   1.084  0.3791 -0.3956 -0.5361
63513W        W 6426  33.329  19.896   7.217 -0.0389 -0.1010 -0.3667
63514W        W 6427  10.461  17.719   5.326  0.0378  0.1290 -0.2833
63515W        W 6428  32.532  15.395  22.896  0.1232  0.3046 -0.1088
63516W        W 6429   6.672  23.933   9.574  0.0287  0.0420 -0.1853
63517W        W 6430  34.182  25.761  23.626 -0.2308  0.1714  0.1865
63518W        W 6431   1.208  21.489   3.984  0.5986  0.1825  0.0301
63519W        W 6432   7.357   3.037  27.978  0.2249 -0.3710  0.1896
63520W        W 6433  33.005  11.652  24.772  0.1557  0.1557 -0.0140
63521W        W 6434  32.564  30.182   1.229  0.1060 -0.6489  0.0519
63522W        W 6435   2.899  23.713  26.456  0.3500 -0.2154  0.2399
63523W        W 6436   1.273  22.515   1.934 -0.0385  0.2296  0.0387
63524W        W 6437  28.664  18.614  24.513  0.1053  0.0914 -0.0422
63525W        W 6438  10.785  20.769   4.937 -0.1973 -0.1851  0.0996
63526W        W 6439  30.427  27.134   6.532 -0.0880  0.4267 -0.0746
63527W        W 6440  11.132   3.479   2.528 -0.2431 -0.1661  0.1477
63528W        W 6441  33.536  32.068  21.007  0.2458  0.1615 -0.2310
63529W        W 6442  20.489   5.111  29.186 -0.0711 -0.2357 -0.0152
63530W        W 6443  27.591  30.036   1.240  0.0483 -0.0229 -0.0571
63531W        W 6444   3.327  25.841   6.783 -0.3570  0.1079  0.0513
63532W        W 6445  31.304   0.847  27.433  0.1264 -0.0292  0.0400
63533W        W 6446  26.001  19.258   3.525  0.1104 -0.0061 -0.0544
63534W        W 6447  29.744  33.400   2.404 -0.1425  0.2990 -0.0374
63535W        W 6448   6.676  27.414   3.382 -0.1730  0.0919  0.0701
63536W        W 6449   2.452  26.957   8.994 -0.1212 -0.0503 -0.2998
63537W        W 6450  33.371  31.724  26.752 -0.0109 -0.0738  0.3836
63538W        W 6451   6.959  17.706  26.877 -0.0413 -0.0304  0.3989
63539W        W 6452   1.294  22.756  26.783 -0.0213  0.0601 -0.2052
63540W        W 6453  31.527   3.284   1.802 -0.1218 -0.2019  0.2100
63541W        W 6454   9.904  30.741  27.456 -0.1276  0.0322 -0.1805
63542W        W 6455   6.254  33.067   7.657 -0.0190  0.0530  0.0268
63543W        W 6456   0.563   1.427   1.551  0.0271 -0.0176  0.0512
63544W        W 6457  32.509   1.495  10.704  0.2924 -0.0347 -0.2693
63545W        W 6458  32.268   4.436   3.446  0.0361  0.1064  0.1242
63546W        W 6459   3.801  30.645   6.752 -0.1767 -0.1877  0.1622
63547W        W 6460  26.741  19.669   1.928 -0.2021  0.0431 -0.1159
63548W        W 6461   4.580  25.912  18.195  0.5707  0.0747 -0.0196
63549W        W 6462  31.465  21.470  27.964 -0.1333  0.3056  0.0780
63550W        W 6463   5.080  25.656   0.246  0.2953  0.0530 -0.0033
63551W        W 6464  30.490  28.450   1.406 -0.2788  0.0516 -0.2382
63552W        W 6465   6.660  24.938  25.639  0.2785 -0.2249 -0.1032
63553W        W 6466  10.593  19.331  24.459  0.2320  0.0101  0.0388
63554W        W 6467   5.605  32.224   5.537 -0.0831 -0.1834  0.0385
63555W        W 6468   5.280  23.717   4.458  0.0808 -0.1677 -0.0012
63556W        W 6469  28.945  21.640   9.753  0.1305 -0.0073 -0.0393
63557W        W 6470   7.698  25.313   4.817 -0.2568 -0.0109  0.2638
63558W        W 6471   4.253   3.026  11.012 -0.2784  0.2164 -0.0726
63559W        W 6472  32.633  29.592  27.253  0.3203  0.0967 -0.0205
63560W        W 6473   5.112  25.180   2.105 -0.1568 -0.0919 -0.2869
63561W        W 6474   5.523   0.811  21.018  0.0043 -0.0300  0.1112
63562W        W 6475  31.213  30.060   3.005  0.1589 -0.3543  0.3201
63563W        W 6476  30.843  29.968   5.897 -0.0326  0.0498 -0.3915
63564W        W 6477  13.202  22.351  24.147  0.1069  0.4561 -0.2178
63565W        W 6478  34.268  33.387  28.491  0.0775 -0.0121  0.1720
63566W        W 6479  26.104  22.919   2.077 -0.1109  0.2898  0.3464
63567W        W 6480   4.095  11.574   6.301 -0.1714  0.1210 -0.1924
63568W        W 6481   0.697   4.207   4.588 -0.3573 -0.2468 -0.0067
63569W        W 6482   6.107   0.879  29.522 -0.1013  0.3028 -0.0228
63570W        W 6483  32.640  26.126   1.615  0.1531  0.0841  0.0574
63571W        W 6484   1.864  16.803   6.220 -0.1101  0.0572 -0.2247
63572W        W 6485  33.791  25.689   7.784  0.0383 -0.0088  0.3507
63573W        W 6486   5.732  17.594   5.262  0.1802 -0.2547  0.0325
63574W        W 6487   4.304  30.952  23.529  0.2075 -0.0080 -0.3003
63575W        W 6488  15.102  31.690   8.411  0.2331  0.0777 -0.0042
63576W        W 6489   2.890  23.049   6.594 -0.1980  0.3472 -0.1337
63577W        W 6490   0.916  19.256   8.272 -0.1777  0.2857 -0.1981
63578W        W 6491  19.340  25.246   4.973 -0.0856  0.1549  0.2689
63579W        W 6492   1.344   1.986  24.921 -0.1666 -0.2155  0.3718
63580W        W 6493  30.909   6.613  26.361  0.1552 -0.4142 -0.0308
63581W        W 6494  34.347  19.847   0.091  0.2641 -0.1087 -0.3651
63582W        W 6495   2.351  33.427   3.382 -0.3075 -0.0183  0.0740
63583W        W 6496   2.275  30.237  15.672  0.0013  0.0426  0.2367
63584W        W 6497  11.512  32.587   3.122  0.1999 -0.1045 -0.3046
63585W        W 6498  31.116  33.792   7.189 -0.0346  0.2036  0.0409
63586W        W 6499   1.818  21.607   2.790 -0.0733 -0.0266  0.2128
63587W        W 6500  31.100  26.898   5.431  0.0177  0.1245 -0.0923
63588W        W 6501  30.163   7.434   9.294 -0.1282 -0.0391 -0.3593
63589W        W 6502   5.435  20.534  29.436 -0.0199  0.0625  0.0492
63590W        W 6503   1.026  17.987  25.539 -0.0594  0.1602  0.0326
63591W        W 6504  14.266  27.588   8.821 -0.3090 -0.3451 -0.1249
63592W        W 6505  28.928  17.755   3.677 -0.0904 -0.0394  0.0766
63593W        W 6506  28.656  33.488  26.128  0.3542  0.2910  0.1190
63594W        W 6507   5.428  30.387   9.264  0.0041  0.2108  0.0153
63595W        W 6508  29.298  28.916   6.131 -0.2016  0.1814  0.0261
63596W        W 6509  29.310  33.152   7.033 -0.0562 -0.0187  0.0279
63597W        W 6510   0.248  27.832   0.597  0.1205 -0.0604 -0.2531
63598W        W 6511   4.057  23.670   8.352  0.3116  0.0351  0.4421
63599W        W 6512  10.364  32.903  28.837  0.0220 -0.0727 -0.0255
63600W        W 6513  27.448  21.072  26.194 -0.2832  0.0399 -0.0408
63601W        W 6514   1.963  32.571  25.642 -0.0358  0.0200 -0.0896
63602W        W 6515  10.910  22.782  27.639  0.0981 -0.0168  0.1037
63603W        W 6516   0.213  27.966   2.427  0.0817 -0.0371 -0.1012
63604W        W 6517   4.913  26.400   7.034 -0.1538  0.0585 -0.1824
63605W        W 6518  30.674  23.019   5.735  0.1057  0.0046 -0.1445
63606W        W 6519   7.159  23.591  22.412  0.4252  0.0554  0.1338
63607W        W 6520   1.721   4.554   1.639 -0.1970 -0.1681  0.2498
63608W        W 6521   8.353  20.226  25.593 -0.1533  0.0613  0.1218
63609W        W 6522  11.106  31.287  27.832  0.0555 -0.1119  0.4758
63610W        W 6523  31.885  23.387   5.062  0.2679 -0.0999  0.1928
63611W        W 6524  23.898  19.115   1.027 -0.0680 -0.1686 -0.2684
63612W        W 6525   0.381   3.877  10.447 -0.2244  0.2002 -0.3420
63613W        W 6526   0.295   1.650  27.353  0.0094 -0.1359  0.2228
63614W        W 6527   2.720  23.390  28.809 -0.0120  0.0166 -0.1502
63615W        W 6528   0.215  21.847   3.670 -0.2160 -0.1519  0.1483
63616W        W 6529   0.052  11.552  25.482 -0.0545  0.2151 -0.1938
63617W        W 6530  32.576  32.472  22.917 -0.2086  0.1567  0.3260
63618W        W 6531   7.249   4.796   2.146 -0.0736  0.0278  0.0235
63619W        W 6532   4.130  28.893   4.205 -0.0905  0.0544  0.1933
63620W        W 6533   4.671  29.043   9.461  0.0936 -0.0367  0.1497
63621W        W 6534  33.182  34.089  19.770 -0.0027 -0.1261 -0.1085
63622W        W 6535   2.985  27.734   8.721 -0.3158  0.2254  0.0507
63623W        W 6536  27.303  19.737   8.063 -0.0504 -0.3318 -0.0522
63624W        W 6537   9.366  24.270  28.670 -0.0745 -0.0359  0.0567
63625W        W 6538  33.486  28.402  21.124  0.1825  0.1959 -0.0143
63626W        W 6539   3.783   0.161   8.009 -0.3482  0.2437 -0.0023
63627W        W 6540  10.255  31.079  27.289 -0.0297 -0.1585  0.1197
63628W        W 6541   6.959  34.052   6.064  0.0496  0.1048  0.1148
63629W        W 6542  32.481  22.808  24.721 -0.2403 -0.2244 -0.1701
63630W        W 6543  28.877  24.297  27.397 -0.1079  0.0607  0.0747
63631W        W 6544  32.088  28.021   7.048 -0.2351  0.1818  0.1215
63632W        W 6545  11.066  28.849  28.841  0.2987  0.3287 -0.3195
63633W        W 6546  25.877   0.727   9.550 -0.2259  0.1675  0.2155
63634W        W 6547  29.323  24.179  28.934 -0.1273 -0.2170 -0.2406
63635W        W 6548  33.151  25.431  27.262  0.0619 -0.0625 -0.2003
63636W        W 6549   0.247  21.862  25.974 -0.3073  0.1893 -0.0297
63637W        W 6550   6.389  30.135  26.641 -0.1138 -0.0433 -0.0754
63638W        W 6551  33.327  24.429  28.799 -0.1445  0.2425  0.1220
63639W        W 6552  33.420  29.415   2.864 -0.4191 -0.0606  0.0091
63640W        W 6553  32.331  26.575   5.898 -0.0009  0.0715 -0.0414
63641W        W 6554   1.942  14.934   0.555  0.0340  0.1173  0.0966
63642W        W 6555  32.232  27.353  26.229  0.0723 -0.0647  0.1561
63643W        W 6556  12.095  21.315  22.137  0.0190  0.0201  0.0224
63644W        W 6557  28.432   2.520  26.072 -0.2320 -0.0884 -0.3443
63645W        W 6558   3.824  28.243  24.170  0.0474  0.1095  0.0237
63646W        W 6559  13.270  28.191  25.275  0.1479  0.0559 -0.1217
63647W        W 6560   1.323   1.373   7.843  0.0177 -0.1123  0.1083
63648W        W 6561  32.499   3.288  29.003  0.0568  0.1369  0.1257
63649W        W 6562   2.755  28.200  29.669  0.0887  0.1295  0.2581
63650W        W 6563  29.558  26.295   7.305  0.0731  0.1395 -0.0400
63651W        W 6564  31.816  28.445  27.590 -0.1614 -0.2159  0.2997
63652W        W 6565   7.595  31.823  11.351 -0.1904  0.1565  0.2897
63653W        W 6566   0.937   7.489   5.842  0.3008 -0.0303  0.2548
63654W        W 6567   9.919  23.599  25.697 -0.1127  0.2314  0.1720
63655W        W 6568  24.566  21.995  29.245  0.1381 -0.2072  0.0406
63656W        W 6569  11.845  33.609   0.206  0.3496 -0.0534  0.0517
63657W        W 6570  27.947  29.011   2.355 -0.2352  0.1656  0.1480
63658W        W 6571   9.079  10.528   5.806 -0.2178  0.2687  0.2569
63659W        W 6572   4.733  30.313   8.084  0.3324  0.1373 -0.1436
63660W        W 6573   5.677  28.611  29.527  0.1299 -0.0644  0.2856
63661W        W 6574  32.560  17.086  26.274  0.1110 -0.0554 -0.0450
63662W        W 6575  30.084  29.956   4.377  0.0892  0.1674  0.1650
63663W        W 6576  26.530  25.913   0.699  0.0677 -0.0483 -0.2564
63664W        W 6577  32.038  24.056  27.038 -0.2975  0.2377 -0.2742
63665W        W 6578  16.820  16.606  28.714 -0.0312 -0.2391 -0.3644
63666W        W 6579  29.878   3.016   5.990 -0.2928  0.1630  0.0996
63667W        W 6580  31.791  26.589   8.257  0.2226  0.0277  0.2327
63668W        W 6581  32.411   5.032   7.151  0.0267  0.0636  0.0238
63669W        W 6582   2.840  34.220   0.430  0.2865  0.0749  0.1576
63670W        W 6583  24.282  22.705  20.212 -0.0106  0.2198 -0.0255
63671W        W 6584   3.724  32.759   3.906 -0.2208  0.1333  0.1795
63672W        W 6585   0.195  20.324  26.915  0.3005  0.2496 -0.2947
63673W        W 6586   6.392  24.375   2.615 -0.2236  0.0576  0.1025
63674W        W 6587  33.429  29.913  15.581 -0.2869  0.0618  0.1069
63675W        W 6588   0.179   6.366   2.741  0.0572  0.1155  0.1075
63676W        W 6589   6.704   1.383   4.140  0.1438 -0.2803  0.0465
63677W        W 6590   7.074  29.938   1.914 -0.3470  0.2228 -0.0928
63678W        W 6591  10.252  21.246   6.222 -0.1838  0.1170  0.3456
63679W        W 6592   8.596  23.893   1.352  0.0007  0.0696 -0.0145
63680W        W 6593  27.582  29.741   8.757 -0.1114 -0.0414  0.2729
63681W        W 6594   5.550  18.122   3.284 -0.1259 -0.2170 -0.1551
63682W        W 6595   0.363  24.541  23.190  0.1118  0.1284 -0.0647
63683W        W 6596  32.879  24.658   7.543  0.2279 -0.1115  0.1257
63684W        W 6597  28.187  24.165   9.455 -0.2819  0.0122  0.3351
63685W        W 6598  28.954  29.345   4.085  0.3783 -0.0957  0.2490
63686W        W 6599  33.211  31.710   7.378 -0.1375 -0.0063  0.0538
63687W        W 6600   2.709   3.844   4.838  0.0231  0.0018 -0.0916
63688W        W 6601  29.228   3.246   9.032  0.1059  0.0499  0.0410
63689W        W 6602  29.968  19.222   9.238  0.1500 -0.0101  0.1819
63690W        W 6603  14.657  17.709   3.163 -0.1676  0.2029 -0.0515
63691W        W 6604  30.460  21.667   2.296  0.1330 -0.2548 -0.0306
63692W        W 6605   5.931  11.201   0.585 -0.0557 -0.0391  0.0553
63693W        W 6606   5.697   2.006  10.051  0.2027 -0.0165 -0.0321
63694W        W 6607  34.118   0.288   3.993 -0.0921  0.1117 -0.1419
63695W        W 6608   4.948   0.972   1.127  0.0869  0.1384 -0.1341
63696W        W 6609  32.031   2.715   4.807  0.2368  0.2020 -0.1726
63697W        W 6610   4.271  27.757   7.732 -0.0775  0.0877  0.0658
63698W        W 6611  30.407  26.562   4.396  0.2426 -0.1504 -0.2979
63699W        W 6612  31.192  17.867   1.995 -0.0509  0.0449 -0.1864
63700W        W 6613  11.859  16.004  29.668  0.0004 -0.1792  0.0835
63701W        W 6614  33.323  27.043   8.013  0.0140  0.2465  0.1464
63702W        W 6615  14.479  25.238   8.446 -0.1465 -0.0331  0.0556
63703W        W 6616   7.967  10.147  11.414 -0.0066 -0.0555 -0.0376
63704W        W 6617   4.737  20.954   2.441  0.1632  0.0756  0.0459
63705W        W 6618   3.577  18.936   2.906 -0.4890  0.0087 -0.0044
63706W        W 6619  33.435  27.450   5.325 -0.0950  0.0365  0.2689
63707W        W 6620  30.286  24.157   2.000 -0.0568  0.0971  0.1556
63708W        W 6621   4.650  18.642   8.433  0.0363 -0.0853 -0.2181
63709W        W 6622  12.423  20.256   0.825  0.2773 -0.0032  0.2184
63710W        W 6623   1.341   6.567   8.125  0.1469  0.0408  0.1734
63711W        W 6624   8.369  14.569   0.629 -0.2534  0.0769  0.0891
63712W        W 6625   6.308  33.363   1.672 -0.1642  0.0937 -0.0574
63713W        W 6626  11.125  16.820   0.097 -0.4769 -0.4998  0.2272
63714W        W 6627   0.272  26.279   6.839 -0.1955 -0.4750  0.1558
63715W        W 6628  26.860  27.034  28.091 -0.0071 -0.1830  0.2282
63716W        W 6629   4.831   1.435  27.459 -0.1211 -0.0308 -0.1854
63717W        W 6630   1.323  31.421   0.004  0.1267  0.0113  0.0076
63718W        W 6631  27.982   1.819   4.404  0.0620 -0.0922 -0.2022
63719W        W 6632   4.722  29.148  20.811 -0.2090 -0.0753  0.2371
63720W        W 6633   7.346   4.818   7.697  0.1839  0.3297 -0.1408
63721W        W 6634  31.426  27.947   5.795 -0.1625  0.0044 -0.0411
63722W        W 6635   2.739  31.999   5.838 -0.1609  0.0244  0.3503
63723W        W 6636  15.406   9.735  22.535  0.1430 -0.0322 -0.0282
63724W        W 6637  31.936   3.082  29.192  0.0522 -0.2065  0.2265
63725W        W 6638   6.005  32.322   2.888 -0.0443  0.0089  0.1776
63726W        W 6639   4.824   0.779   6.743  0.2602  0.3143  0.1458
63727W        W 6640   4.233  31.652   9.639  0.0690  0.1485 -0.0875
63728W        W 6641  10.243  24.363   7.490 -0.2547  0.4053  0.1062
63729W        W 6642  26.018  28.663   6.091 -0.0979  0.0247 -0.0649
63730W        W 6643  33.573  24.319   3.562 -0.2386 -0.1632 -0.1303
63731W        W 6644   8.308  28.509   2.481 -0.2124 -0.0239  0.1782
63732W        W 6645   0.228  24.773   8.911  0.0124  0.0181  0.2224
63733W        W 6646   2.584  18.357  22.704  0.0662 -0.3424 -0.0527
63734W        W 6647  31.790  32.885   8.222 -0.1114 -0.4888  0.0776
63735W        W 6648  10.463  23.574  22.897  0.0676  0.0320 -0.1654
63736W        W 6649  12.891  22.414  27.551 -0.3029  0.1121  0.0235
63737W        W 6650   5.222  24.847  27.371  0.1039  0.1816 -0.0644
63738W        W 6651  12.870  17.932   0.549 -0.1085 -0.0822  0.0988
63739W        W 6652  31.200  16.971   2.572  0.0480  0.1592 -0.2186
63740W        W 6653  21.388  30.852   5.015  0.0525  0.0750  0.0611
63741W        W 6654  30.391  30.637   7.792  0.1656  0.2156 -0.3639
63742W        W 6655   6.140  25.114   9.867  0.1706  0.2949 -0.1936
63743W        W 6656  12.437  24.479  10.637  0.2429 -0.0099 -0.1239
63744W        W 6657   5.261  17.561  27.355  0.1781 -0.0968  0.2899
63745W        W 6658   8.302   8.760   6.548 -0.0122 -0.0504  0.3319
63746W        W 6659   3.526  19.479   6.621  0.0800  0.2485 -0.0132
63747W        W 6660  33.298  32.554   2.838 -0.0672  0.1512 -0.1641
63748W        W 6661  31.030  32.898   0.015  0.0144 -0.1582  0.1150
63749W        W 6662  34.159  21.645  28.698 -0.0028 -0.1285  0.2335
63750W        W 6663  16.309  28.943   0.770 -0.0993 -0.1799 -0.1415
63751W        W 6664   1.467  29.733   5.085  0.1730 -0.2292  0.0094
63752W        W 6665   5.998  23.282   6.343 -0.1487  0.0336 -0.0683
63753W        W 6666   8.747  24.013   6.683  0.0177 -0.0230  0.0012
63754W        W 6667  33.967  24.158  28.130 -0.1344  0.2367 -0.2306
63755W        W 6668   7.797  26.762   0.569  0.0909 -0.0040 -0.0619
63756W        W 6669   3.767  24.035  29.522  0.2069 -0.3361 -0.2826
63757W        W 6670   0.955  31.283   8.246  0.1251 -0.0362  0.0027
63758W        W 6671   4.736  29.512   1.762 -0.1766  0.0782  0.3691
63759W        W 6672   2.137  20.716   8.875 -0.0555  0.0119 -0.0549
63760W        W 6673  30.602  30.155   9.165 -0.1159 -0.1062  0.1871
63761W        W 6674  31.336  21.676   9.311  0.1030 -0.5590  0.0485
63762W        W 6675  33.712  31.281   8.069  0.3660 -0.0105  0.1553
63763W        W 6676  26.353   0.064   4.711 -0.0798  0.0228  0.1767
63764W        W 6677  12.996  30.433   6.669 -0.0860  0.1817  0.2721
63765W        W 6678   0.662   2.981   3.877 -0.1008 -0.1800  0.0740
63766W        W 6679  15.885  22.555   5.934  0.0469  0.0147  0.3177
63767W        W 6680   6.141  32.335   4.274  0.1087  0.0453  0.2300
63768W        W 6681   5.854  33.410   6.431 -0.1103 -0.1738  0.2664
63769W        W 6682   8.623  32.278  11.093  0.1069 -0.1122  0.1911
63770W        W 6683  12.544  26.804   6.917 -0.2015 -0.2240 -0.1776
63771W        W 6684   1.383   9.544   8.109  0.1023  0.0909  0.0126
63772W        W 6685  32.746  19.697   2.424  0.1333 -0.1019  0.2464
63773W        W 6686   1.728  22.012  26.604  0.1021  0.0545 -0.2601
63774W        W 6687  28.083   0.660   8.875 -0.1121  0.1319 -0.2226
63775W        W 6688   4.894  21.458   1.561 -0.0117  0.0828 -0.0387
63776W        W 6689  30.795   3.908   9.614  0.4413  0.3034 -0.0483
63777W        W 6690  30.289  20.994   7.681  0.1839 -0.2559 -0.1298
63778W        W 6691  31.089  26.988   0.014 -0.0624  0.0833  0.0172
63779W        W 6692   3.556  27.549  28.163 -0.0025 -0.0007  0.4809
63780W        W 6693  27.019  29.955   5.188  0.0542 -0.0487  0.1895
63781W        W 6694   2.142  33.283   2.630 -0.0131  0.0267 -0.4075
63782W        W 6695  31.659  25.882   3.607 -0.1758  0.0290 -0.0046
63783W        W 6696   3.318   0.839  10.615  0.0612 -0.1658  0.3703
63784W        W 6697   3.938   3.942   8.092 -0.4378 -0.0670  0.0593
63785W        W 6698   7.639  22.801   9.177 -0.0664  0.2571  0.0439
63786W        W 6699  13.221  28.385   7.375  0.2732 -0.1158 -0.2223
63787W        W 6700  32.285  33.762  10.268  0.3508  0.1500  0.1937
63788W        W 6701   5.280  25.209   0.953  0.2107  0.4231  0.1655
63789W        W 6702   9.951  24.119   5.892 -0.2702  0.0603  0.1617
63790W        W 6703   2.843  23.429   8.568  0.0546 -0.1098  0.0176
63791W        W 6704  13.805  29.846   1.095 -0.2460 -0.2296  0.3353
63792W        W 6705  10.034  22.418   1.626  0.0747  0.1239 -0.0166
63793W        W 6706  10.046  19.829  28.910  0.1009 -0.0929 -0.2074
63794W        W 6707   4.884  25.905   3.287  0.4018 -0.0415  0.0957
63795W        W 6708   3.736  28.947   9.726 -0.3108  0.2633  0.1287
63796W        W 6709   5.710  23.203   9.151 -0.1022  0.1047 -0.2369
63797W        W 6710  28.172  25.042   5.490 -0.1791  0.1019  0.0177
63798W        W 6711  10.963  28.126   6.991  0.0998 -0.1100  0.1051
63799W        W 6712  29.999  25.383   1.003 -0.1217  0.4829 -0.3301
63800W        W 6713  31.952  27.458  25.421  0.1555 -0.0136 -0.1535
63801W        W 6714   4.951  30.141   9.373  0.0887 -0.3010  0.1640
63802W        W 6715   7.488  23.179   4.751  0.0916  0.2244  0.2923
63803W        W 6716  29.767  22.761   5.984  0.1033 -0.0600 -0.0558
63804W        W 6717  30.550  18.747   4.351 -0.0158  0.2063 -0.2811
63805W        W 6718  32.935  15.915   1.222  0.0234  0.0211 -0.0926
63806W        W 6719  28.000   2.197   2.824 -0.0610  0.1895  0.0036
63807W        W 6720  34.338  19.696   4.131 -0.1716  0.0405  0.0598
63808W        W 6721  34.099   1.119  12.115 -0.0679 -0.1043 -0.0821
63809W        W 6722   1.515  32.740   3.779  0.0961 -0.2425  0.1480
63810W        W 6723   6.047  28.699   3.475 -0.4088  0.2357 -0.1452
63811W        W 6724   7.272   7.603   9.580  0.0655  0.1757  0.3318
63812W        W 6725  10.631  21.935   5.619 -0.1270  0.1738  0.3535
63813W        W 6726   3.532  30.422   9.378 -0.0792 -0.1116  0.2100
63814W        W 6727  30.744  20.047   8.116 -0.2722 -0.4783  0.1677
63815W        W 6728  32.575  24.151   1.840 -0.1736 -0.0895  0.0810
63816W        W 6729   0.989   1.931   7.715  0.0118 -0.1129 -0.0732
63817W        W 6730  13.023  26.327   7.762  0.1418  0.0252  0.0993
63818W        W 6731   0.068   1.219   6.105 -0.0064 -0.1362 -0.2850
63819W        W 6732  10.798  21.835  27.456  0.1085 -0.2255 -0.1871
63820W        W 6733   7.788  31.644  25.855  0.0152 -0.0913 -0.0977
63821W        W 6734   3.703  24.462  26.703  0.2846  0.1226 -0.1065
63822W        W 6735   4.713  32.591   0.168  0.2170 -0.3144 -0.2162
63823W        W 6736   9.467  22.363  27.015 -0.1143 -0.0838  0.1331
63824W        W 6737   4.992  23.062   5.231 -0.0538  0.0862 -0.0718
63825W        W 6738  30.415  33.565   7.741  0.0648 -0.0687  0.2050
63826W        W 6739  14.321  18.928   8.250 -0.0152 -0.2005 -0.0155
63827W        W 6740   1.779  31.727   4.965  0.1904 -0.2134 -0.0034
63828W        W 6741   5.089  21.901   1.635  0.2101 -0.0885 -0.0493
63829W        W 6742   6.304  31.049  29.472  0.0197 -0.0721 -0.0098
63830W        W 6743  13.518   8.612   2.565  0.1635  0.1066  0.4249
63831W        W 6744  25.858  27.267  24.702  0.0860 -0.0206  0.3235
63832W        W 6745   3.814  27.701   2.497  0.1831 -0.4113  0.0970
63833W        W 6746   0.513  17.996   2.579  0.1236 -0.0818  0.0327
63834W        W 6747  22.651  24.338   5.653  0.1355  0.1426 -0.0176
63835W        W 6748   6.266  22.890   6.355 -0.1174 -0.3360  0.0451
63836W        W 6749  26.534  22.252   8.290  0.2322 -0.5261  0.1693
63837W        W 6750   0.310  29.249   1.181 -0.0056 -0.2795 -0.2018
63838W        W 6751   8.589  16.496   6.212 -0.0781  0.0230  0.0310
63839W        W 6752  32.303  15.859   3.749  0.3741 -0.1068 -0.2885
63840W        W 6753  30.990  26.555   7.026 -0.1429  0.2466 -0.3103
63841W        W 6754   6.265  28.396   1.628  0.0434 -0.3425  0.0560
63842W        W 6755   9.877   3.780   8.826 -0.0998  0.1032  0.0760
63843W        W 6756   0.589  20.442   2.369 -0.1848  0.0801  0.1241
63844W        W 6757   7.240  33.925   4.313  0.0924  0.0004 -0.4289
63845W        W 6758  13.986  20.637   8.689  0.0578  0.0847 -0.2639
63846W        W 6759   4.185  32.753  10.496  0.1363  0.2149 -0.0308
63847W        W 6760   1.057  16.743  21.936 -0.1587 -0.2616  0.4383
63848W        W 6761  23.505  20.308   1.325  0.2393 -0.2034 -0.0131
63849W        W 6762   4.711   2.167   7.078 -0.1154  0.0987 -0.0882
63850W        W 6763  30.514  33.015  27.058  0.1337  0.0126 -0.0594
63851W        W 6764   5.035  25.820   7.620 -0.1948 -0.3086 -0.0435
63852W        W 6765   6.681  22.357  27.648  0.1974 -0.0732  0.0446
63853W        W 6766   1.469  22.614   6.266  0.1674 -0.1564  0.0962
63854W        W 6767   2.613  30.940   5.938 -0.0337  0.0268  0.1439
63855W        W 6768   3.090  31.157   5.143 -0.0851  0.3267  0.1254
63856W        W 6769   9.151   0.105  24.364  0.1461 -0.0070  0.0659
63857W        W 6770  30.528  30.800  29.059 -0.1210  0.2214  0.0695
63858W        W 6771  12.974  10.558  27.245  0.0473 -0.0669  0.0620
63859W        W 6772  26.694  31.934   3.159  0.0752  0.3378  0.2326
63860W        W 6773   8.706  27.289   5.403  0.0292  0.0798  0.0562
63861W        W 6774   1.657   3.255   6.221 -0.2333 -0.2234  0.4873
63862W        W 6775   5.882  29.677   4.111  0.2594 -0.0418 -0.2529
63863W        W 6776  32.391  31.164   5.075 -0.0586  0.1349  0.0265
63864W        W 6777   2.485  15.886   8.788 -0.0253  0.1408  0.1119
63865W        W 6778  33.095  27.597   8.848 -0.0636 -0.3388 -0.0729
63866W        W 6779  31.751   0.211   2.110  0.0686 -0.1442  0.2801
63867W        W 6780  11.356  18.817   5.443 -0.2099  0.0597  0.1660
63868W        W 6781   4.133  23.674   3.067  0.2459  0.2845  0.3191
63869W        W 6782  31.463  17.297   3.928 -0.0349  0.1291 -0.1446
63870W        W 6783   1.051  21.927   8.655 -0.0617 -0.0966  0.0418
63871W        W 6784   2.847  17.407   1.142 -0.3629 -0.1816  0.0689
63872W        W 6785   3.112  29.457   8.152  0.0001  0.0873  0.1218
63873W        W 6786  12.970  23.992   4.813 -0.0695  0.1981 -0.1045
63874W        W 6787   5.008  23.808   6.430 -0.0781  0.2559  0.3260
63875W        W 6788  12.344   4.420  23.079  0.1306 -0.2503 -0.0137
63876W        W 6789   9.725  23.045   7.041 -0.0917 -0.1777  0.1201
63877W        W 6790   0.182  23.875   1.514 -0.1013 -0.0716 -0.1476
63878W        W 6791  30.124  22.319   5.743  0.0302 -0.1914 -0.2687
63879W        W 6792   0.155  21.174   0.132  0.3617 -0.0021  0.0563
63880W        W 6793  26.806   0.736   0.403  0.2071  0.1973 -0.1319
63881W        W 6794   8.589  24.692  29.203  0.1688 -0.4380  0.0854
63882W        W 6795   1.401   9.358  26.333  0.1665 -0.2290  0.0861
63883W        W 6796  29.551  24.948   9.500  0.2244 -0.0316  0.0713
63884W        W 6797  32.590   2.248   1.867  0.2344  0.3561 -0.0980
63885W        W 6798   7.849   4.396   1.928 -0.1936  0.1356  0.1118
63886W        W 6799   4.479  22.177   1.028 -0.0010  0.2279 -0.0610
63887W        W 6800  30.805  24.167   8.099  0.0052  0.1271 -0.0135
63888W        W 6801  29.671  26.542   6.476 -0.0740  0.0521 -0.1574
63889W        W 6802   3.349   3.087   3.039  0.0951 -0.1570  0.0050
63890W        W 6803  31.420  30.085   3.544  0.0948 -0.2028 -0.0637
63891W        W 6804   3.607  18.701   7.647  0.2121  0.0822  0.3287
63892W        W 6805  13.152  29.306  27.620 -0.2776 -0.0757  0.2539
63893W        W 6806   2.808  15.646   8.431  0.2587  0.1667  0.2693
63894W        W 6807  32.773  32.352   8.264  0.0536 -0.0167  0.0059
63895W        W 6808   7.613  18.103   6.562  0.1771  0.0996  0.0811
63896W        W 6809   0.986  29.580   7.996  0.0584  0.1324 -0.1456
63897W        W 6810   7.236  11.574   9.253 -0.0161 -0.1313 -0.2848
63898W        W 6811  11.383   6.068  29.280  0.3018  0.1264 -0.1346
63899W        W 6812  29.940  30.470   6.136 -0.0787 -0.1250 -0.1508
63900W        W 6813   7.710  15.511   6.613 -0.1119  0.2613  0.1055
63901W        W 6814  32.166  34.212  11.486  0.0027  0.1802  0.1781
63902W        W 6815  30.725  23.569   0.129 -0.0742 -0.0072  0.2253
63903W        W 6816   9.670  17.677   2.748 -0.0934 -0.1585  0.2796
63904W        W 6817   3.165   1.145   3.027  0.0328  0.0790  0.0778
63905W        W 6818   4.325  29.142   8.524  0.2121  0.2270 -0.0496
63906W        W 6819   5.632  31.845   3.731  0.3116 -0.0369  0.2262
63907W        W 6820  16.899   0.902   3.538 -0.0147  0.1192  0.0546
63908W        W 6821   0.326  31.565   2.094 -0.0359  0.0944 -0.2718
63909W        W 6822  17.801  27.532   0.332  0.2227 -0.0088  0.1920
63910W        W 6823   9.327  22.939   4.718  0.0223 -0.1061 -0.0841
63911W        W 6824  32.684   8.582   5.800 -0.0727  0.3031  0.2149
63912W        W 6825   3.308  29.119  23.923 -0.0845  0.2896  0.2885
63913W        W 6826   5.150  31.314  27.402  0.3356  0.1062  0.4020
63914W        W 6827  30.688  30.194   2.332 -0.0437  0.1299  0.1341
63915W        W 6828   2.662  22.386   7.694  0.1334  0.1171 -0.0708
63916W        W 6829   9.523  16.630   1.488 -0.2529  0.0189  0.1993
63917W        W 6830   7.010  25.452   8.834 -0.0413 -0.1520  0.1838
63918W        W 6831  29.315  23.364   7.273 -0.2423  0.1311 -0.1330
63919W        W 6832   5.580  19.820   7.953  0.1747 -0.0813  0.2391
63920W        W 6833  11.832  14.755   6.224  0.0561 -0.5359 -0.2021
63921W        W 6834  21.568  15.352  29.495 -0.0669  0.1044 -0.0896
63922W        W 6835  11.781  32.888   6.908  0.0840 -0.0533 -0.1733
63923W        W 6836  24.249  30.150  25.863 -0.2517  0.0973 -0.1396
63924W        W 6837   3.005  34.093   1.295  0.0478 -0.0270 -0.1293
63925W        W 6838   8.323  30.777  11.309 -0.1471  0.0777  0.0761
63926W        W 6839  34.220  20.273   2.223  0.1518  0.1294 -0.0573
63927W        W 6840  30.371  31.773  24.892  0.1518 -0.2076  0.0509
63928W        W 6841   4.318  30.936   7.392  0.2053  0.0261 -0.3600
63929W        W 6842   4.723  34.232  11.049 -0.0926  0.0124  0.2036
63930W        W 6843   4.864  29.787   1.011 -0.2656  0.2876 -0.0804
63931W        W 6844  29.614  20.291   1.492  0.1922 -0.0173  0.1816
63932W        W 6845  24.393  28.636   7.908 -0.0711 -0.2236  0.4305
63933W        W 6846  32.091  28.846   1.350  0.0397  0.2585  0.1893
63934W        W 6847   1.341  31.157   2.822  0.0279  0.1487 -0.1134
63935W        W 6848   9.279  31.683   0.270  0.2005 -0.1372 -0.0975
63936W        W 6849   5.936  25.667  26.167  0.0602  0.1393  0.0601
63937W        W 6850   9.609  25.615  29.022 -0.1890  0.0311 -0.1830
63938W        W 6851   8.606  18.338   6.666 -0.2298  0.2353  0.0522
63939W        W 6852  32.301   1.465   4.554  0.1881  0.0806  0.0672
63940W        W 6853   0.426   2.157  25.990 -0.2089 -0.0274 -0.2113
63941W        W 6854  25.440  30.447   7.846 -0.1432 -0.0879  0.0986
63942W        W 6855   5.188  22.736   3.317  0.1158 -0.1445  0.2335
63943W        W 6856   5.497  31.070   7.524 -0.1943  0.0025 -0.1579
63944W        W 6857   9.805  27.708  24.855  0.0741 -0.4726  0.2444
63945W        W 6858  10.652  24.453   7.853  0.0598  0.0378  0.0937
63946W        W 6859   4.578  16.254   7.572  0.3119  0.0776 -0.2263
63947W        W 6860   6.486  20.068   9.121  0.1482 -0.1847  0.2213
63948W        W 6861  33.349  31.269   7.094  0.1338 -0.0215  0.1009
63949W        W 6862   5.693  24.929   1.491  0.1734  0.0637 -0.2403
63950W        W 6863  14.992  16.349  22.829  0.0882  0.3222 -0.0046
63951W        W 6864  31.880   0.799   6.309 -0.3171  0.1338  0.1475
63952W        W 6865  30.325  24.188  27.692  0.6078  0.2481  0.2879
63953W        W 6866  29.228  27.708  27.463 -0.3666  0.1825 -0.0066
63954W        W 6867   3.989  28.961   2.297 -0.2286  0.0122 -0.3128
63955W        W 6868   6.204  32.588   6.809  0.0268 -0.1357  0.0511
63956W        W 6869   7.787  26.511   2.741  0.2436 -0.2712 -0.0189
63957W        W 6870   2.650  15.049   2.140 -0.0306 -0.2307  0.3208
63958W        W 6871   0.281   3.385   0.038 -0.1820 -0.2079  0.0039
63959W        W 6872   6.703  21.658   9.069  0.0827 -0.0274 -0.0000
63960W        W 6873  11.597   7.097   3.942  0.0268  0.3725  0.0384
63961W        W 6874  28.820  30.860   0.923 -0.2545 -0.1920 -0.0430
63962W        W 6875   3.033   0.860  23.659 -0.0338  0.0101  0.2502
63963W        W 6876   7.903  15.397   7.744 -0.0388  0.0365  0.0937
63964W        W 6877  29.879   1.276   7.227  0.0683  0.0548  0.0203
63965W        W 6878   7.017  16.649   3.015 -0.0497 -0.0744 -0.0703
63966W        W 6879   3.374  32.442   3.828 -0.4970  0.0205  0.3076
63967W        W 6880   5.219  24.902   1.351 -0.0867 -0.1995  0.2460
63968W        W 6881   1.254  28.993  10.733 -0.1599 -0.5025  0.0019
63969W        W 6882  28.182  28.532   3.284  0.1049 -0.0725 -0.0447
63970W        W 6883  12.399  15.556   1.175 -0.3898 -0.1239  0.0946
63971W        W 6884   7.320  20.055   5.285  0.0344 -0.1485  0.3060
63972W        W 6885   5.898   0.598   6.731 -0.5364  0.0029  0.1293
63973W        W 6886   5.107  31.601  10.449 -0.0546 -0.1356 -0.2364
63974W        W 6887  30.809  24.821   1.545 -0.1239 -0.1911  0.1722
63975W        W 6888  26.786  17.928  29.588 -0.1038  0.1583 -0.0766
63976W        W 6889  27.129  24.302   0.923  0.2664 -0.1162 -0.2972
63977W        W 6890  13.075  32.188   8.090 -0.2246  0.1340  0.1661
63978W        W 6891  33.118  27.009   4.433 -0.1378  0.0183  0.0975
63979W        W 6892  24.324  30.325   5.342  0.1130  0.3507  0.0575
63980W        W 6893   1.830  22.689   4.909  0.1449  0.1407  0.1539
63981W        W 6894  27.573   4.746   4.159 -0.0162  0.0981 -0.2920
63982W        W 6895   3.050  23.007   9.458 -0.1484  0.1486  0.1151
63983W        W 6896   7.320  24.476   0.133  0.1425  0.0759 -0.1593
63984W        W 6897   2.931  32.494  10.008 -0.2361  0.0622  0.0001
63985W        W 6898  24.217  30.802   2.357 -0.0660  0.3282 -0.2111
63986W        W 6899  27.556  28.134   4.468  0.1853  0.1003  0.1425
63987W        W 6900  34.365  32.087   6.115 -0.1247 -0.0553  0.0315
63988W        W 6901  31.189  23.910  29.295  0.1307 -0.1830  0.1229
63989W        W 6902  30.529  21.662   8.876  0.0835 -0.1333  0.1504
63990W        W 6903  23.302  24.369   7.409 -0.1584 -0.0794 -0.0816
63991W        W 6904  33.130  22.135  28.057  0.3756 -0.0623  0.1627
63992W        W 6905  11.368   3.911  27.306  0.0733 -0.2859  0.1228
63993W        W 6906  13.497  17.437  26.384 -0.4933 -0.4506 -0.3701
63994W        W 6907  34.393  20.900  27.415 -0.1130  0.1250  0.4160
63995W        W 6908   6.812  24.896   8.129 -0.1526  0.4926  0.3804
63996W        W 6909   9.390  26.230   4.049  0.1771  0.1201  0.0617
63997W        W 6910  34.392  23.165   0.849 -0.3710  0.0777  0.0658
63998W        W 6911   3.788  23.276   8.564 -0.0511  0.0382 -0.1904
63999W        W 6912  12.727  30.015  12.176  0.2467  0.3531  0.1931
64000W        W 6913   3.746  13.570   6.014 -0.0158  0.0242 -0.1019
64001W        W 6914   6.707  27.124   5.920 -0.0504  0.2433  0.0168
64002W        W 6915  21.990  20.917   3.941 -0.2277  0.2584 -0.0439
64003W        W 6916  30.801  30.708   8.725  0.1873  0.1693  0.2828
64004W        W 6917   3.301  30.826  28.315  0.0430 -0.0087 -0.0140
64005W        W 6918  30.788  16.747   2.860  0.0493  0.0241  0.1992
64006W        W 6919   8.548  33.552  28.531  0.1044  0.1838  0.0522
64007W        W 6920   9.997  14.115  24.195  0.0690 -0.0140 -0.1133
64008W        W 6921   2.957  18.341   8.552 -0.2416 -0.3443 -0.0203
64009W        W 6922   9.795  28.767  27.068  0.2385  0.0928 -0.0696
64010W        W 6923  32.130  30.657   4.180 -0.1713  0.0844 -0.0066
64011W        W 6924   4.302  27.841  26.847  0.2112  0.3050 -0.0656
64012W        W 6925  33.824  34.366   9.067  0.0562 -0.1093 -0.3647
64013W        W 6926  11.598  32.093   8.744  0.3183 -0.1078  0.0852
64014W        W 6927  34.169  20.630   9.687  0.0997  0.2130  0.1812
64015W        W 6928  13.027  25.426   6.553 -0.4181 -0.2406  0.1536
64016W        W 6929   7.419  14.101   7.416  0.3657 -0.0387 -0.1407
64017W        W 6930   6.329   1.374   3.068  0.2166 -0.3087 -0.0557
64018W        W 6931   0.776  20.590   4.276 -0.1591  0.0883  0.1638
64019W        W 6932  27.172   1.079   1.579  0.5383 -0.2214 -0.1654
64020W        W 6933   4.536  25.894   5.193 -0.1154  0.2733 -0.1162
64021W        W 6934   0.763   5.009   2.494 -0.1208  0.1937 -0.0140
64022W        W 6935   5.036  30.512   8.460 -0.0416 -0.0558  0.3895
64023W        W 6936  25.731  27.903  27.759  0.2473  0.1141 -0.0024
64024W        W 6937  13.806   1.999   8.883  0.1143  0.1537  0.2933
64025W        W 6938   1.465  26.581   5.634 -0.0913  0.1556 -0.0230
64026W        W 6939   2.295  30.736   6.336 -0.0907  0.2118 -0.1803
64027W        W 6940   3.318  32.587   7.106  0.2046  0.1223 -0.1283
64028W        W 6941   1.821  26.092   3.064 -0.4628 -0.1942 -0.1954
64029W        W 6942   6.157  19.117  24.953  0.0562  0.2622 -0.0565
64030W        W 6943  34.291  28.762   4.408 -0.3496  0.0777 -0.0608
64031W        W 6944   2.089  27.081  10.656 -0.1691 -0.1322 -0.2317
64032W        W 6945  29.836  23.329   8.933  0.2825 -0.0787 -0.1729
64033W        W 6946   2.847   0.990  25.586 -0.0377 -0.2319 -0.0611
64034W        W 6947  29.811  27.125   9.105 -0.1121 -0.1332  0.1303
64035W        W 6948   2.824  17.093   3.963  0.1021 -0.0594  0.1881
64036W        W 6949  28.050  27.729   0.365  0.0570 -0.3056  0.2195
64037W        W 6950   1.767  24.273   9.907 -0.0917  0.0289  0.1391
64038W        W 6951   0.591  20.606   4.778 -0.1739  0.0903  0.0295
64039W        W 6952  30.087   6.936   8.402 -0.1310  0.2131 -0.0870
64040W        W 6953  32.562  13.970   7.707  0.1722  0.0877  0.2040
64041W        W 6954   1.659  24.030  29.504  0.2215 -0.0091 -0.4669
64042W        W 6955   0.907  30.849   7.361  0.0614  0.2539  0.1035
64043W        W 6956   6.594  28.064   1.879 -0.2392  0.1557 -0.3278
64044W        W 6957   7.728  20.741   1.764  0.1626 -0.0414 -0.0438
64045W        W 6958  33.524  16.151  25.313 -0.2839  0.1295  0.0409
64046W        W 6959  33.182  28.762   9.370  0.1394 -0.0381 -0.0305
64047W        W 6960  27.499  23.646   5.200  0.0868  0.1075  0.3170
64048W        W 6961  20.335  24.179   1.608 -0.3298 -0.0552 -0.2011
64049W        W 6962  32.423  29.789   0.942  0.2575  0.2439 -0.2196
64050W        W 6963   5.568  20.740   0.090  0.4390  0.2047  0.3210
64051W        W 6964  31.632  16.504  26.371 -0.2444 -0.0498 -0.0421
64052W        W 6965   6.863  18.693   1.757 -0.1130  0.2052 -0.1295
64053W        W 6966  32.505  19.414   2.985  0.0021  0.3057  0.0096
64054W        W 6967   1.223  25.335   1.533 -0.0106  0.2705  0.2381
64055W        W 6968   5.908  27.515  23.150  0.1393  0.0770  0.2540
64056W        W 6969   4.471  24.525  17.871  0.1012  0.1027 -0.1773
64057W        W 6970   0.064  24.143   7.598  0.1422 -0.1396 -0.2922
64058W        W 6971   0.806  16.817  25.202  0.0193 -0.2507  0.0187
64059W        W 6972  32.931   9.627  25.143 -0.3392 -0.0917  0.0754
64060W        W 6973   2.801  25.851   6.949  0.1659 -0.2176  0.1818
64061W        W 6974  12.989  15.017   6.379  0.2131  0.0604 -0.1204
64062W        W 6975   2.219   2.394   3.321  0.0665 -0.0751  0.0439
64063W        W 6976   1.570  26.945  10.403  0.2147 -0.1742 -0.0268
64064W        W 6977  32.206  26.858   5.441 -0.0374 -0.1984 -0.0514
64065W        W 6978   3.955  19.168  23.334  0.0647  0.4106  0.1069
64066W        W 6979  24.743  23.210   0.798 -0.0216  0.2770  0.0753
64067W        W 6980   5.200  33.736   3.438  0.3513 -0.4765  0.0307
64068W        W 6981   5.595  31.013   1.899  0.0086 -0.1538  0.0248
64069W        W 6982  22.777  24.086  19.711 -0.1074  0.0334  0.0737
64070W        W 6983   2.410  32.317   4.611 -0.3865  0.0484 -0.1482
64071W        W 6984   8.013   6.554  28.889 -0.0349 -0.1305  0.2512
64072W        W 6985   1.788  29.220   9.255 -0.2496  0.1905 -0.0848
64073W        W 6986  33.386  10.640   2.079  0.1133 -0.0048 -0.0516
64074W        W 6987  33.744  31.456   3.788 -0.0719  0.0465 -0.1668
64075W        W 6988   0.374  16.186  25.147 -0.1658  0.0021 -0.0408
64076W        W 6989  29.811  27.069   2.428 -0.0870 -0.1378  0.0934
64077W        W 6990  31.896  23.783   2.881  0.0602 -0.0287 -0.2452
64078W        W 6991   7.008  15.494   7.133 -0.0689 -0.1788 -0.1343
64079W        W 6992   3.108  34.360   5.920 -0.2087  0.0600 -0.0653
64080W        W 6993   2.171  21.831   1.875 -0.5280  0.0856  0.1883
64081W        W 6994   4.120  20.226   0.673  0.0687 -0.0022  0.0933
64082W        W 6995  15.319  28.898   6.820  0.0442  0.0698 -0.1747
64083W        W 6996   8.232  32.527  21.858 -0.1288  0.1148 -0.2422
64084W        W 6997   3.655  13.049   2.923  0.0337  0.1043 -0.0529
64085W        W 6998  34.338  28.026   9.544  0.0620  0.1080  0.1189
64086W        W 6999  33.336  23.620   4.461 -0.3095 -0.3333 -0.1320
64087W        W 7000   8.314  32.887   0.296  0.3323 -0.0913 -0.2184
64088W        W 7001   2.237  33.884  10.540  0.1924  0.1970  0.1154
64089W        W 7002  31.020  23.877   6.157 -0.0415  0.2120  0.1490
64090W        W 7003  25.410  26.702   5.115  0.0095  0.1358 -0.3611
64091W        W 7004   3.347  31.970   3.523  0.1312  0.1443  0.2996
64092W        W 7005   0.902  31.032   2.146  0.0950 -0.2406  0.0292
64093W        W 7006   6.814  33.212  11.302 -0.2244  0.2395 -0.3545
64094W        W 7007   6.708   0.804   1.855  0.0534  0.1262  0.2096
64095W        W 7008   3.193  32.793   7.557 -0.0432  0.1890  0.2787
64096W        W 7009  28.455  29.511   8.041  0.1131  0.2331  0.3785
64097W        W 7010  11.096  32.075   4.633  0.0762 -0.0989 -0.0353
64098W        W 7011   2.566  22.947   4.308  0.0178  0.2395  0.0884
64099W        W 7012  30.674  23.632   3.737  0.0013  0.0756 -0.0155
64100W        W 7013  30.533  25.155   3.611  0.1177  0.1664 -0.0681
64101W        W 7014  15.224   1.493   1.228 -0.1235 -0.1240  0.3972
64102W        W 7015  24.991  29.757  29.725  0.1810 -0.2479  0.3655
64103W        W 7016  34.486  31.295   2.622  0.0389  0.0604  0.2604
64104W        W 7017  26.460  31.605   8.467  0.1974  0.0902 -0.1018
64105W        W 7018  25.700  14.270  28.337 -0.3876 -0.0940 -0.1042
64106W        W 7019   9.750  34.109   6.843  0.3556 -0.1330 -0.3259
64107W        W 7020   6.889  29.528   5.826 -0.3105  0.0364 -0.2756
64108W        W 7021  32.375   7.243   7.083 -0.4168  0.0723 -0.0106
64109W        W 7022  15.861  28.836   6.852 -0.1588 -0.1576 -0.1749
64110W        W 7023   1.950   3.103  11.312 -0.0587 -0.0903 -0.1096
64111W        W 7024   4.849  30.696   0.234 -0.5192  0.1331  0.0340
64112W        W 7025  26.798   0.993   3.328  0.1908  0.2450 -0.3450
64113W        W 7026  27.657  31.278   4.925  0.2600  0.1650  0.0378
64114W        W 7027   0.573  24.103   9.505 -0.0797  0.0011 -0.2839
64115W        W 7028   1.328  13.848   1.961  0.0751  0.2120  0.0773
64116W        W 7029   3.733  28.275   8.528  0.0338 -0.0324  0.3436
64117W        W 7030  33.054  33.283   5.779 -0.0962 -0.1585 -0.0190
64118W        W 7031  27.968  29.480   6.987  0.2096  0.0556 -0.0184
64119W        W 7032   2.794  30.823   2.505 -0.1437 -0.0431  0.0961
64120W        W 7033   7.958   0.950   5.029 -0.1995 -0.1267 -0.0753
64121W        W 7034  23.682  21.265  28.565 -0.3168  0.2387 -0.4212
64122W        W 7035   0.638  18.182   3.544 -0.0788 -0.0246 -0.0267
64123W        W 7036   1.650  31.689   2.698  0.0758 -0.0476 -0.0477
64124W        W 7037   3.500   0.899   8.668  0.0169  0.1893 -0.1093
64125W        W 7038   4.494  31.330   8.713 -0.2361  0.1600 -0.2076
64126W        W 7039  21.542  22.603   4.636 -0.0396 -0.1054 -0.1933
64127W        W 7040   4.307  30.076   3.844 -0.1779 -0.0917 -0.1541
64128W        W 7041   2.824  20.786   6.281  0.0744 -0.0414 -0.0102
64129W        W 7042  33.232  31.381   3.723 -0.0827  0.0789 -0.0044
64130W        W 7043   2.348  31.801   9.856 -0.0379 -0.1769 -0.2648
64131W        W 7044   3.575  27.130   9.253  0.1481 -0.0697  0.1902
64132W        W 7045  15.409  18.644   0.716 -0.2806  0.1191  0.1836
64133W        W 7046  31.103   1.700   8.159  0.0490  0.1854  0.0618
64134W        W 7047   3.584  29.383   7.374 -0.0375 -0.2351  0.0121
64135W        W 7048   6.392   4.076   2.823  0.2261 -0.1500 -0.0219
64136W        W 7049   0.783   3.240   7.932 -0.2609  0.2135  0.1973
64137W        W 7050   4.118  28.777   9.452  0.2437 -0.0820  0.0888
64138W        W 7051   0.518   2.863   4.829  0.0917 -0.3152  0.1254
64139W        W 7052  26.676  33.894   7.669  0.1263 -0.1482 -0.0092
64140W        W 7053  33.192  32.272   6.747  0.1979  0.1175 -0.1914
64141W        W 7054  32.841  28.200   9.984 -0.1329 -0.2096 -0.1965
64142W        W 7055  31.091  25.756   2.910  0.0745 -0.3682  0.0794
64143W        W 7056  26.285   0.949   3.405  0.0969  0.0079  0.2028
64144W        W 7057   1.719  29.779   7.137  0.1506 -0.1409 -0.1273
64145W        W 7058  10.086  27.489   9.641  0.3789 -0.0449  0.0908
64146W        W 7059  31.206  19.503   5.157  0.1121 -0.0231  0.1334
64147W        W 7060  32.656   1.146   6.165 -0.1546  0.2108  0.1765
64148W        W 7061   8.059  27.438  27.403 -0.2454 -0.0345 -0.0235
64149W        W 7062  13.862  23.914   8.858  0.1706 -0.0384  0.0711
64150W        W 7063   4.481   7.786   9.155  0.0967 -0.0894 -0.1330
64151W        W 7064   0.133   5.698   6.629 -0.0794 -0.0682 -0.0448
64152W        W 7065  31.664  29.900   3.173  0.4594 -0.1041 -0.0872
64153W        W 7066   3.994  17.169   6.666  0.0743  0.2604  0.0896
64154W        W 7067   4.130  29.661   7.912  0.1081 -0.1677 -0.0957
64155W        W 7068   5.795   0.925  12.838 -0.3161 -0.0334 -0.1266
64156W        W 7069  32.530   3.418   6.322  0.0525  0.3489 -0.0116
64157W        W 7070  23.218  21.809  27.206 -0.3253 -0.0823 -0.2071
64158W        W 7071   9.631  12.456   5.071 -0.1210 -0.0142  0.2386
64159W        W 7072   3.662   6.597   1.801 -0.3691  0.0531  0.1471
64160W        W 7073   0.871   2.557   8.614 -0.1338 -0.1374 -0.2175
64161W        W 7074  31.487   1.801   4.822  0.1775  0.2130 -0.0647
64162W        W 7075   2.391  21.004   8.196  0.0008 -0.1051  0.1072
64163W        W 7076   2.379  25.390   4.143  0.0291  0.1892 -0.2562
64164W        W 7077   0.226  13.247   8.418 -0.2511 -0.2037  0.0172
64165W        W 7078  24.177  24.286  26.341  0.0871 -0.1738  0.0946
64166W        W 7079  16.048  24.636   6.573 -0.0339 -0.0258 -0.0053
64167W        W 7080  22.801  32.225   3.881  0.0474 -0.0784 -0.2661
64168W        W 7081  32.522  31.928   5.307 -0.2119  0.1389 -0.0601
64169W        W 7082   9.117  28.747   0.164 -0.2170 -0.0197 -0.5069
64170W        W 7083  34.373   8.531  10.920 -0.1377 -0.2897 -0.2475
64171W        W 7084  33.082  32.087   9.608  0.0826 -0.0978 -0.0118
64172W        W 7085  33.469   1.942  11.509  0.1459 -0.0028  0.2090
64173W        W 7086  32.292  30.901   7.994 -0.1184 -0.0191 -0.1652
64174W        W 7087  30.616   1.671  10.479  0.0210 -0.0376  0.1298
64175W        W 7088  33.540  26.875   7.580 -0.0473  0.0992 -0.0103
64176W        W 7089   5.763  26.345  29.128 -0.1480  0.6254  0.0656
64177W        W 7090   9.309  27.217  29.192  0.1000  0.4279  0.0146
64178W        W 7091   2.657   5.703   6.436 -0.1821  0.1770 -0.2546
64179W        W 7092   0.179  28.051   5.012  0.1181  0.0548  0.3285
64180W        W 7093   7.763  24.250   6.817 -0.1027  0.0514  0.1509
64181W        W 7094   5.814  30.694   7.723  0.1219  0.2047 -0.0450
64182W        W 7095  29.040  24.735   7.966  0.2898  0.0282  0.0592
64183W        W 7096  30.531  25.138   5.912  0.1142  0.0815  0.0077
64184W        W 7097  20.016  30.090   4.197 -0.1569  0.0989  0.1123
64185W        W 7098  29.037  22.498   4.226  0.0364 -0.2412 -0.0347
64186W        W 7099   5.288   1.655  10.064  0.2783  0.3673 -0.1745
64187W        W 7100   2.871  25.570  10.609  0.1544 -0.0342 -0.0930
64188W        W 7101   9.157  22.547   4.023 -0.0329 -0.0478 -0.2257
64189W        W 7102  30.691  31.609   5.726 -0.1732 -0.0885 -0.1543
64190W        W 7103   5.729  10.762   3.402  0.1566  0.0938  0.3572
64191W        W 7104  15.125  26.251   8.134 -0.0452 -0.1490  0.0989
64192W        W 7105   3.212  28.046   4.765 -0.2104 -0.0376 -0.2613
64193W        W 7106   7.617  24.101   4.908 -0.0608  0.1738  0.1154
64194W        W 7107   3.259   6.166   4.082 -0.3270 -0.2219 -0.1967
64195W        W 7108   4.396  19.410   0.507 -0.0294  0.3270  0.0297
64196W        W 7109   2.619  30.296   5.836  0.0891 -0.3644 -0.1150
64197W        W 7110   6.181  26.926   2.728  0.1199 -0.0406  0.0909
64198W        W 7111  11.905  33.019   7.821 -0.0927 -0.1750  0.0411
64199W        W 7112   2.825  30.761  29.351  0.2933  0.2251 -0.0116
64200W        W 7113  33.220  18.894   8.703  0.0164  0.1437  0.2089
64201W        W 7114  22.979  18.631  23.199 -0.2421  0.0854 -0.3441
64202W        W 7115  30.026   3.587  28.949  0.2419  0.0988  0.1296
64203W        W 7116  10.944  23.833   9.149  0.0499  0.1098  0.2891
64204W        W 7117  33.064   3.202  11.688 -0.0937  0.0709 -0.0723
64205W        W 7118   4.486  26.847  27.404  0.2200  0.0072 -0.1182
64206W        W 7119   6.997   4.181   4.014  0.0787 -0.0406  0.0859
64207W        W 7120  32.138  30.264   7.263  0.0870  0.0696  0.0240
64208W        W 7121   7.601  29.392   2.742 -0.3127 -0.0779  0.0896
64209W        W 7122   4.893  30.573   4.542 -0.1925 -0.2690  0.1830
64210W        W 7123   1.403  29.859   4.525  0.1301  0.1133  0.4272
64211W        W 7124   1.571  34.032   5.960  0.0853  0.2773 -0.1524
64212W        W 7125  31.257  31.116  29.477 -0.0954  0.0605 -0.0366
64213W        W 7126   1.245  23.268  10.630  0.1076 -0.0356 -0.2505
64214W        W 7127   4.062  30.347  10.457 -0.0667 -0.1168 -0.1329
64215W        W 7128   0.344  24.666   9.480 -0.2213  0.0513  0.1205
64216W        W 7129   9.128  24.774   3.478 -0.1108  0.2803  0.0923
64217W        W 7130  11.439   0.321  13.232 -0.2782 -0.0016 -0.2151
64218W        W 7131  31.702   4.897  25.259 -0.2696 -0.2561 -0.2183
64219W        W 7132  19.447  27.063   8.880 -0.1417 -0.0732 -0.1658
64220W        W 7133  27.831  21.564   3.329 -0.0494 -0.0201  0.0961
64221W        W 7134   2.555  24.701  11.082 -0.0494  0.0732  0.0770
64222W        W 7135   8.524  28.697   7.491 -0.2916 -0.0248  0.1129
64223W        W 7136   1.359  26.317   8.268  0.1825 -0.0425 -0.2074
64224W        W 7137   7.222  31.140   9.861  0.2787  0.0624 -0.0687
64225W        W 7138  34.144  19.399   1.606 -0.2374 -0.1958  0.0663
64226W        W 7139  29.491  30.521   8.366 -0.0833 -0.0620 -0.1817
64227W        W 7140  33.563  25.204   9.657  0.0273  0.0259  0.0831
64228W        W 7141  12.193  26.801   2.435  0.2614  0.2157 -0.0992
64229W        W 7142  24.567  27.726   3.580 -0.4092  0.0377 -0.0249
64230W        W 7143   2.556  20.456   6.508  0.3130  0.1048 -0.0213
64231W        W 7144  29.869  23.505   4.575  0.2292  0.2375 -0.3880
64232W        W 7145   6.401  21.895   4.535  0.1249 -0.1202 -0.0166
64233W        W 7146  31.268  20.650   7.651 -0.0022 -0.0661  0.3481
64234W        W 7147  21.517  17.362   7.417 -0.2476  0.0504 -0.1429
64235W        W 7148   0.428  16.150  28.551  0.0983 -0.2357 -0.0689
64236W        W 7149  10.255  23.738   9.642 -0.0785  0.3439 -0.0649
64237W        W 7150  27.716  31.128   5.477  0.2129 -0.0258 -0.0961
64238W        W 7151  27.095  23.754   8.558  0.1276 -0.2761  0.2354
64239W        W 7152   7.827  31.548   7.385 -0.1942 -0.3145 -0.0920
64240W        W 7153   3.652  29.541   4.331  0.1780  0.2128  0.2471
64241W        W 7154   8.835  25.174   5.939  0.2415  0.3603 -0.1168
64242W        W 7155   8.075  32.510   1.886  0.0478  0.2609  0.1274
64243W        W 7156   8.332   4.183   5.396 -0.1876  0.0938 -0.5146
64244W        W 7157  33.221  29.269   4.507  0.1299 -0.0901 -0.0440
64245W        W 7158   5.287  22.312   5.135  0.1246  0.1089 -0.1163
64246W        W 7159   6.978  29.731  10.465 -0.0358  0.0417 -0.0724
64247W        W 7160   3.929  22.675   9.745  0.0468  0.0330 -0.0160
64248W        W 7161   8.032  23.720  10.499  0.0653 -0.1042 -0.1194
64249W        W 7162  32.648  29.067   9.121  0.1146 -0.1374 -0.0149
64250W        W 7163   6.059  30.521  29.243 -0.3125  0.3000  0.2864
64251W        W 7164  28.281  27.441   7.137  0.1681 -0.2412  0.2233
64252W        W 7165  33.897  30.544   5.024  0.1000  0.0223 -0.0557
64253W        W 7166   4.122   2.221   8.448  0.0408 -0.3648 -0.1747
64254W        W 7167  33.725  31.551   5.569  0.2807 -0.0786 -0.2086
64255W        W 7168   6.049  28.936  10.045  0.1043 -0.1594  0.0966
64256W        W 7169  32.829  29.646   9.084 -0.1258  0.0109  0.2104
64257W        W 7170   6.406  19.498   6.200 -0.2921 -0.0276  0.0337
64258W        W 7171  28.724  20.826  28.764 -0.1281  0.1177  0.2463
64259W        W 7172   3.716   4.548  10.015  0.0637 -0.2835 -0.1467
64260W        W 7173   4.425  32.984   3.241  0.2181 -0.0364  0.2178
64261W        W 7174   9.286  23.098   6.322 -0.0901 -0.2157 -0.0653
64262W        W 7175   4.040  31.293  10.033 -0.0419  0.0079  0.0666
64263W        W 7176  25.660   1.580   8.402 -0.1381  0.2208 -0.0078
64264W        W 7177   4.642  31.041   3.144 -0.1903 -0.0023 -0.0466
64265W        W 7178   3.687  33.681   7.707  0.0588 -0.0822 -0.1164
64266W        W 7179  23.404  29.426   6.945  0.1516 -0.3303  0.0242
64267W        W 7180   5.899  25.188   8.946  0.2240  0.0483 -0.2709
64268W        W 7181   1.997  27.136   6.427  0.0849 -0.3775  0.1274
64269W        W 7182  31.033  27.870   6.659  0.1717 -0.4372 -0.2586
64270W        W 7183   5.334  27.457   0.030 -0.0979  0.1489 -0.2787
64271W        W 7184  10.898  23.170   5.293 -0.2325 -0.0376 -0.0577
64272W        W 7185  32.589   0.858   7.056  0.0240 -0.3154  0.0002
64273W        W 7186  33.201  20.143   8.914 -0.3075 -0.0658  0.0249
64274W        W 7187   0.002  22.798   2.458  0.2241  0.0414 -0.1811
64275W        W 7188   0.457  25.315   8.273 -0.1170  0.0829  0.3097
64276W        W 7189  34.304  33.209   9.490  0.2036 -0.3445  0.1166
64277W        W 7190   3.437  23.922   3.099  0.3086  0.0203 -0.2411
64278W        W 7191   6.921   2.590  13.815 -0.0851 -0.3192 -0.1775
64279W        W 7192   4.556   4.751   5.020  0.0703 -0.1071 -0.0375
64280W        W 7193  13.010  21.316   8.113 -0.1816 -0.3092 -0.1726
64281W        W 7194  33.929   0.693   6.297  0.0380 -0.4877 -0.1322
64282W        W 7195  33.905  23.575   7.374 -0.0326  0.0057  0.0382
64283W        W 7196   7.428  15.937   2.477 -0.2691  0.0069 -0.2105
64284W        W 7197   2.264  17.000   0.515  0.1272 -0.1340  0.0568
64285W        W 7198   4.195  28.029   8.627 -0.1521 -0.0860  0.2316
64286W        W 7199  33.192  22.759   6.564  0.0359  0.1468 -0.0481
64287W        W 7200   2.957   2.969   8.038  0.1961 -0.0115  0.1919
64288W        W 7201   0.511  29.013   6.613 -0.1778 -0.3436 -0.2396
64289W        W 7202   8.852   3.637  12.729  0.1309 -0.0995 -0.2124
64290W        W 7203  30.025  32.920   4.914  0.2813 -0.0587 -0.1105
64291W        W 7204  16.267  28.760   4.668  0.0123 -0.0545  0.0924
64292W        W 7205   7.332   3.291   5.902  0.0718  0.1612  0.2181
64293W        W 7206   1.582  25.216   9.931 -0.1000 -0.0083  0.0519
64294W        W 7207   5.001  26.703  10.883 -0.0108 -0.3147 -0.1802
64295W        W 7208   3.520  11.096  10.965  0.0190 -0.2044 -0.0993
64296W        W 7209   1.161  23.520   8.787  0.2454 -0.2091  0.0796
64297W        W 7210  21.581  29.770   7.651  0.3014  0.0576  0.0562
64298W        W 7211   0.510  24.469   5.802  0.0803  0.0546 -0.3386
64299W        W 7212   7.849  20.469   9.936  0.0448  0.1432  0.0551
64300W        W 7213   8.353  24.519   6.426  0.0853  0.1256 -0.1399
64301W        W 7214  33.632  28.329  25.569 -0.1125 -0.5202  0.0091
64302W        W 7215  25.589   2.470   5.694  0.1395  0.0721 -0.2308
64303W        W 7216  30.502  26.162   6.007 -0.0177 -0.1626  0.0224
64304W        W 7217   6.386  32.472  11.715  0.0850  0.0838  0.0361
64305W        W 7218   1.683   1.678   4.963  0.0244 -0.0764 -0.0303
64306W        W 7219   2.923  28.357   9.775  0.1050  0.0949  0.3866
64307W        W 7220   5.238  26.009   6.976 -0.1645  0.3086  0.0256
64308W        W 7221   9.398  27.105   0.344 -0.0703  0.3045  0.0252
64309W        W 7222   5.096   0.087   8.503 -0.1671 -0.0123  0.1220
64310W        W 7223   7.090  27.403   1.138 -0.3269  0.2151 -0.0703
64311W        W 7224   7.041  18.280   5.824  0.1153  0.0535  0.4229
64312W        W 7225   2.238   5.205   9.564 -0.0169 -0.1751  0.0960
64313W        W 7226  31.297  29.765   8.321 -0.1822  0.1042  0.2092
64314W        W 7227   3.025  28.515  25.251 -0.2028 -0.2578  0.1715
64315W        W 7228  30.294   8.805   7.137  0.0259  0.1231 -0.0583
64316W        W 7229  11.177  29.310   0.160 -0.1858 -0.1688 -0.1251
64317W        W 7230   1.549  31.622   9.296 -0.1876  0.1188 -0.1522
64318W        W 7231   3.269   1.527   6.296 -0.3370 -0.2079 -0.3452
64319W        W 7232  30.088  26.109   5.200 -0.1055 -0.1753  0.2888
64320W        W 7233   1.789   3.882   9.954 -0.0846  0.2189 -0.0956
64321W        W 7234  29.446  17.499   7.364  0.0889  0.1020  0.1026
64322W        W 7235   2.409  23.839   7.172  0.0254 -0.1199  0.1297
64323W        W 7236   0.248  32.483   4.887 -0.0065  0.1475  0.2319
64324W        W 7237  29.622   4.027   1.474 -0.0504 -0.1786 -0.3535
64325W        W 7238   8.939  17.728   1.008  0.0458  0.2638 -0.1668
64326W        W 7239   3.254  12.357   5.158  0.3537 -0.1293  0.1549
64327W        W 7240   1.311  24.913   4.394 -0.2157  0.1111 -0.1095
64328W        W 7241   8.439  22.663   7.944  0.1173 -0.0432  0.1297
64329W        W 7242  25.339  32.525   4.859 -0.1436 -0.1359 -0.2684
64330W        W 7243  33.836  23.289  25.305  0.0960  0.1573  0.3492
64331W        W 7244  32.600  29.120   8.129 -0.0763 -0.0608 -0.2771
64332W        W 7245   3.170  20.053   9.287  0.2020  0.2076 -0.0130
64333W        W 7246   3.454  20.913  25.448  0.0179 -0.1525 -0.3139
64334W        W 7247  28.160  26.457   6.659 -0.2326 -0.1036 -0.0509
64335W        W 7248  10.763  33.885   0.218  0.0223  0.2323 -0.1616
64336W        W 7249  14.190  26.327  27.516 -0.0958 -0.3161  0.1119
64337W        W 7250  32.511  29.494   5.991  0.3169  0.3345 -0.0527
64338W        W 7251   3.004  11.828   6.965 -0.0371 -0.1872 -0.0804
64339W        W 7252  22.672  28.011   5.997  0.1402  0.4633  0.0484
64340W        W 7253  32.929  20.486  10.194  0.1134 -0.1018  0.0948
64341W        W 7254   3.831  28.017   9.417  0.2725 -0.0330 -0.3491
64342W        W 7255  17.759  29.831  29.388  0.5038  0.0317  0.0046
64343W        W 7256   1.084  24.369   7.047 -0.0513 -0.0174  0.1477
64344W        W 7257  11.425   0.821   7.597  0.0489 -0.2550  0.1052
64345W        W 7258   7.687  29.651  10.865 -0.0965  0.0217  0.2675
64346W        W 7259   2.848  29.570   1.793 -0.0817  0.0252  0.1612
64347W        W 7260   3.589   9.280   5.313 -0.1744  0.0699 -0.2491
64348W        W 7261  11.680  28.806   3.456  0.2515  0.0901 -0.0798
64349W        W 7262   0.007  19.336   5.418  0.0224 -0.2761 -0.0869
64350W        W 7263  29.902  32.633   4.518 -0.0777 -0.1459  0.1537
64351W        W 7264   3.875  28.871   6.596  0.0970 -0.1818  0.2070
64352W        W 7265   5.676  30.417   1.160  0.3987 -0.1023  0.0025
64353W        W 7266   8.588  23.118   9.390 -0.1916 -0.1203  0.0516
64354W        W 7267   6.604   2.485   9.937 -0.0825  0.1552 -0.2937
64355W        W 7268   4.741  29.067   8.934 -0.0715 -0.1776 -0.0536
64356W        W 7269   6.445  30.625   6.450 -0.1669 -0.5134 -0.1506
64357W        W 7270  32.903  21.079   2.398  0.0836 -0.0883 -0.1035
64358W        W 7271   7.004   3.578   9.552 -0.0428 -0.1214  0.0134
64359W        W 7272  27.579  29.321   7.622  0.2709  0.1163  0.1985
64360W        W 7273  33.300  21.131   5.361 -0.2908  0.0302 -0.0612
64361W        W 7274  13.867   8.230   5.796  0.3159 -0.1271  0.0075
64362W        W 7275  33.123  30.786   7.192 -0.1216 -0.2112  0.3376
64363W        W 7276  20.476  20.510   8.206 -0.1583 -0.2316  0.0980
64364W        W 7277  31.814  31.680   2.854 -0.0673 -0.5022  0.0304
64365W        W 7278  33.015   1.173   7.977  0.1468  0.0381 -0.1602
64366W        W 7279  32.509  34.114   6.427 -0.0094 -0.2210 -0.0757
64367W        W 7280   3.765  31.586  29.474  0.0267 -0.2353 -0.2387
64368W        W 7281   5.960  10.354   6.733  0.0426 -0.1249 -0.0924
64369W        W 7282  13.439  18.486  29.491  0.1792  0.2456  0.0187
64370W        W 7283  24.882  27.035   5.853 -0.2932 -0.0336  0.2607
64371W        W 7284   0.565  10.080  27.024  0.1775 -0.3244  0.1208
64372W        W 7285   9.561  32.278   6.818 -0.2685  0.3783 -0.4170
64373W        W 7286   8.588  32.672  29.296  0.0106  0.0493 -0.0960
64374W        W 7287  34.366  14.378   6.679  0.1520  0.2175 -0.1021
64375W        W 7288   0.408  27.939   4.538 -0.0586 -0.0610 -0.0363
64376W        W 7289  22.504   3.903  26.313  0.2270 -0.0802  0.0700
64377W        W 7290   9.263  20.991   3.816 -0.2517 -0.2230 -0.0521
64378W        W 7291  15.517  32.341  27.753  0.0108 -0.1185  0.1467
64379W        W 7292   1.232  27.749   4.152  0.1525 -0.0833 -0.3726
64380W        W 7293   3.183  25.491   7.200  0.0897 -0.1046  0.2807
64381W        W 7294  26.963  33.310   7.133  0.2155 -0.0915  0.0425
64382W        W 7295   5.291  27.298   3.902 -0.2032  0.0115  0.0875
64383W        W 7296   2.914   0.642   1.110 -0.0040 -0.1889 -0.1213
64384W        W 7297  10.180  27.505   9.097 -0.1972  0.1454 -0.2281
64385W        W 7298  13.289  31.531  10.255 -0.4412 -0.0176  0.3678
64386W        W 7299  33.410  30.588   6.557  0.1674  0.0148 -0.2449
64387W        W 7300   6.043  33.186   5.944  0.0909  0.1591  0.2959
64388W        W 7301   3.572  10.077  10.756 -0.1151  0.1222  0.0551
64389W        W 7302   5.551  28.841   8.981  0.1697 -0.2513  0.0955
64390W        W 7303  10.903   1.810  11.663 -0.1095  0.0273 -0.1868
64391W        W 7304   4.369   6.146   5.513  0.1689  0.1729 -0.0455
64392W        W 7305  25.104   1.404   7.678  0.1729 -0.1678  0.2696
64393W        W 7306   1.469  27.465   1.779 -0.3638  0.0729  0.0126
64394W        W 7307   4.866  29.241   7.279  0.0411 -0.0879 -0.1546
64395W        W 7308   7.270   4.810  10.252  0.1048  0.3590  0.1259
64396W        W 7309   8.928  22.243   6.289 -0.4243 -0.0853 -0.2032
64397W        W 7310   5.454  23.520   6.545  0.0989  0.0781  0.0081
64398W        W 7311  27.465   7.625   6.183  0.2758  0.3166  0.1207
64399W        W 7312   7.223  23.039   6.677 -0.0502  0.1172 -0.2299
64400W        W 7313   9.795  34.364   5.263  0.2551  0.1466 -0.1273
64401W        W 7314  31.871  19.801  20.591  0.2231  0.0034  0.1005
64402W        W 7315   2.088  23.998   3.115 -0.1772 -0.2707  0.1671
64403W        W 7316   5.812  27.467  25.609 -0.0544 -0.0338  0.0513
64404W        W 7317  29.267  30.844   2.738  0.1017 -0.2279 -0.1319
64405W        W 7318  32.391   1.318  22.269 -0.4401  0.2976  0.0867
64406W        W 7319   2.955  12.629  28.251  0.0136 -0.1264 -0.0882
64407W        W 7320   3.877   0.896  18.344 -0.1222  0.1226 -0.0734
64408W        W 7321  33.811   4.607   5.817 -0.0943 -0.1135  0.0738
64409W        W 7322  25.319  32.723  23.199  0.0633  0.0369  0.1132
64410W        W 7323   3.382   0.781   6.879 -0.0980  0.3416  0.0883
64411W        W 7324  29.572   7.955  28.703 -0.3019  0.1717 -0.1775
64412W        W 7325  29.201  32.883  25.793  0.2326  0.1658  0.3474
64413W        W 7326   3.399   9.728  29.300  0.0546  0.0337 -0.1252
64414W        W 7327   1.300  26.701  26.732 -0.1363 -0.0503  0.1824
64415W        W 7328   4.684  31.788   9.441  0.0744  0.1806  0.2649
64416W        W 7329  28.016   1.782   8.390  0.0093  0.0912  0.1587
64417W        W 7330   0.940  29.309   2.821 -0.1756 -0.1298  0.0624
64418W        W 7331   1.194   5.368   0.641  0.0526  0.0441 -0.2455
64419W        W 7332  29.302  31.778   5.301  0.0579  0.1416  0.1714
64420W        W 7333  34.364  30.245   6.513  0.2958  0.2872 -0.0566
64421W        W 7334  32.248   0.647   1.611 -0.0675 -0.0343  0.0833
64422W        W 7335   0.276   3.501  27.872  0.5270  0.4528 -0.0822
64423W        W 7336  25.799  29.520  28.365 -0.0709 -0.1912  0.1684
64424W        W 7337   7.069  15.002  24.139 -0.2029 -0.0805 -0.0125
64425W        W 7338   7.926  29.586   5.693 -0.5104  0.0607 -0.0284
64426W        W 7339   7.555  20.897  27.966  0.0191  0.1141 -0.2389
64427W        W 7340  24.261  31.342   1.486 -0.1755 -0.2441  0.0515
64428W        W 7341  15.763  22.330   6.321 -0.1490 -0.2660  0.1075
64429W        W 7342  33.891  33.153  25.523 -0.1692  0.0629 -0.1400
64430W        W 7343   5.601   2.714   6.967 -0.1743  0.1023 -0.0934
64431W        W 7344  28.327  27.722  29.619 -0.0285 -0.4216 -0.2286
64432W        W 7345  31.810  20.052   6.026  0.2759  0.2828 -0.1485
64433W        W 7346  29.736   7.375   4.145  0.4046 -0.2777 -0.4546
64434W        W 7347  33.440  34.467   5.510  0.0375 -0.3818 -0.0714
64435W        W 7348   0.010   0.719  10.972  0.1355 -0.0319  0.0227
64436W        W 7349  31.870  34.078   5.486 -0.1765 -0.1453  0.0063
64437W        W 7350   5.530  33.503   1.043  0.0871 -0.3873 -0.2428
64438W        W 7351  28.980   6.116   9.078 -0.2290  0.2685 -0.1225
64439W        W 7352   4.084  21.114  26.755 -0.0939 -0.1781  0.1687
64440W        W 7353   2.405  21.722   9.477 -0.3089 -0.1322  0.2083
64441W        W 7354  28.355  29.247   0.094 -0.1878  0.0516 -0.2282
64442W        W 7355   3.471   6.779  11.318  0.4241  0.1503  0.0835
64443W        W 7356   3.146   5.248  25.561 -0.0942  0.0414  0.2331
64444W        W 7357   2.329  30.122   7.850 -0.2255 -0.0521 -0.2382
64445W        W 7358  33.519   1.359   8.875 -0.5312  0.2477 -0.1962
64446W        W 7359  30.980  27.127  20.629  0.0072 -0.0877  0.1935
64447W        W 7360  27.241  27.789   8.263 -0.3833  0.1084 -0.1018
64448W        W 7361  10.338  13.552   3.283 -0.2650  0.0387  0.0317
64449W        W 7362   5.814  26.712  29.582  0.0913 -0.0376 -0.0066
64450W        W 7363  31.953  24.472  27.286  0.0855  0.2572  0.3539
64451W        W 7364   1.619   2.774  27.406 -0.0895 -0.0593  0.1293
64452W        W 7365   8.269  25.414   3.656 -0.1882  0.0466 -0.3362
64453W        W 7366   6.636  25.055   3.932 -0.1026  0.0595 -0.1762
64454W        W 7367   9.004  24.587  21.979  0.0221 -0.0390  0.0521
64455W        W 7368  21.151  25.776   8.462 -0.0056  0.1497 -0.3239
64456W        W 7369  33.680   1.301   4.856  0.4405  0.3086  0.1312
64457W        W 7370  33.566  26.390  22.242 -0.1459 -0.2513  0.0399
64458W        W 7371   3.679  30.001   4.567 -0.0394  0.4512 -0.0931
64459W        W 7372  27.951  21.457   4.100 -0.1358 -0.1420 -0.0519
64460W        W 7373  10.065  20.575  29.343 -0.0413  0.2321  0.0085
64461W        W 7374   1.705   5.697  12.510  0.2218  0.0528 -0.2214
64462W        W 7375   5.458  24.876   7.956  0.1861  0.2359 -0.0767
64463W        W 7376  29.472  17.468   6.162  0.1130 -0.1102  0.2063
64464W        W 7377  33.640  26.543  26.126 -0.1017 -0.5021 -0.0846
64465W        W 7378   6.586   2.561  13.078  0.0256 -0.1593  0.1240
64466W        W 7379   9.547  28.695   4.248 -0.0706  0.1992  0.0364
64467W        W 7380   1.577  29.443   1.570 -0.2169  0.1908  0.0258
64468W        W 7381  12.315  34.410   8.817 -0.0744  0.1728  0.2430
64469W        W 7382  31.225   1.995   2.594  0.0342 -0.2082  0.0751
64470W        W 7383   1.197  28.210  15.797 -0.2721 -0.0149 -0.0477
64471W        W 7384   1.154  30.809  10.277 -0.0305 -0.3888 -0.1214
64472W        W 7385   0.007  23.427   9.642 -0.0554 -0.1666  0.1638
64473W        W 7386   8.652  17.399  27.707 -0.1483  0.2669 -0.1639
64474W        W 7387   7.636   3.517   2.374 -0.1522 -0.1705 -0.1449
64475W        W 7388   8.369  23.595   9.576  0.3206  0.3538  0.2635
64476W        W 7389   0.705  29.854  29.659 -0.0871 -0.0385 -0.1016
64477W        W 7390  26.068   2.485   5.866 -0.0747  0.2836 -0.0345
64478W        W 7391   5.947  22.505  24.820 -0.0119 -0.0404  0.1384
64479W        W 7392   4.582  27.679   8.859 -0.0585 -0.1231 -0.2847
64480W        W 7393   7.411   1.091  29.017  0.1542 -0.3394 -0.4747
64481W        W 7394   3.613  33.550   4.194  0.1563 -0.2476  0.2054
64482W        W 7395  26.808   4.143  28.104  0.2953 -0.2109  0.1388
64483W        W 7396   9.342  28.336   5.229  0.0119  0.0100  0.1123
64484W        W 7397   6.044  23.086   7.250 -0.0078  0.1002  0.2119
64485W        W 7398   9.718  19.960   1.988 -0.1798 -0.0675 -0.0280
64486W        W 7399  28.437  21.423   0.041 -0.1094 -0.1380  0.1932
64487W        W 7400   0.738  27.052   0.649  0.0215 -0.1752 -0.1368
64488W        W 7401  30.364  22.124  28.046 -0.3039 -0.2627 -0.0154
64489W        W 7402   3.575   0.485  17.876  0.0454 -0.0930 -0.2082
64490W        W 7403   5.902  20.732  29.316 -0.1475 -0.0089 -0.0537
64491W        W 7404   4.713  27.057   5.766  0.2779 -0.2615 -0.1019
64492W        W 7405   9.447  33.900   1.579  0.1408  0.0413  0.1454
64493W        W 7406   0.359  30.159  27.946  0.1375 -0.1856 -0.0480
64494W        W 7407   1.601  30.714   9.829  0.0252  0.1682  0.1421
64495W        W 7408   2.416   2.144   1.693  0.1527 -0.0091 -0.1411
64496W        W 7409  12.848  28.248  26.977 -0.0465 -0.4674  0.1044
64497W        W 7410   0.091   5.481   6.120  0.1303 -0.2530  0.1744
64498W        W 7411  30.703  28.777   1.723  0.0517 -0.3408  0.2343
64499W        W 7412   1.508   1.000  27.508 -0.0716 -0.1492  0.1848
64500W        W 7413   9.363  26.044  10.705  0.1396  0.2882  0.1078
64501W        W 7414  32.890   5.851   3.311 -0.0682  0.2292 -0.1850
64502W        W 7415   1.654  21.366  23.418  0.0666  0.0612 -0.1037
64503W        W 7416   1.193  29.146   4.756  0.2373 -0.1980  0.1040
64504W        W 7417  33.600  27.954  28.067  0.0384  0.4000 -0.2503
64505W        W 7418   7.656  28.856  25.961  0.1589  0.1340  0.3706
64506W        W 7419   8.983   2.223  28.437 -0.0454  0.1100 -0.2602
64507W        W 7420  11.863   6.029  29.250  0.0581  0.0980  0.0272
64508W        W 7421   5.648  22.353   6.864 -0.0348  0.2297 -0.0733
64509W        W 7422  26.702   4.002  10.046  0.1761 -0.0252  0.2425
64510W        W 7423   0.565  29.869   8.168 -0.1139 -0.1410  0.1170
64511W        W 7424   8.020   6.707   7.772 -0.2724 -0.0492 -0.1056
64512W        W 7425  10.801  26.054  10.388  0.1711 -0.1154  0.0460
64513W        W 7426   5.822  27.937   9.912  0.0987 -0.3355 -0.2179
64514W        W 7427  30.883  26.469  27.179 -0.2713  0.2388  0.1201
64515W        W 7428   4.998   1.504  21.067 -0.2566 -0.0852  0.0025
64516W        W 7429   6.824  25.437   1.456 -0.0325  0.2060  0.1106
64517W        W 7430  27.808   5.616   2.304 -0.0416 -0.1003  0.1164
64518W        W 7431   0.976   7.431  17.848 -0.1499  0.0685  0.2505
64519W        W 7432  22.214  31.624  18.215 -0.2554  0.1612 -0.0948
64520W        W 7433   6.140  27.240  28.724 -0.0016 -0.0796 -0.5394
64521W        W 7434  30.598  19.887  24.181  0.1623 -0.0641  0.2404
64522W        W 7435  34.024  28.538   0.742  0.2911  0.1732  0.1218
64523W        W 7436   4.119  31.863   0.773  0.2582 -0.0451  0.3206
64524W        W 7437  32.761   1.847  29.383  0.1009  0.1181  0.2388
64525W        W 7438   3.627  32.274   6.612  0.0376  0.2534 -0.0905
64526W        W 7439   4.380  23.191   4.502 -0.1291 -0.0597 -0.0135
64527W        W 7440   6.514  33.694  26.951 -0.1207  0.0069  0.2350
64528W        W 7441  30.310   2.496  23.757 -0.0844 -0.1952 -0.0691
64529W        W 7442   2.131  31.412   5.212  0.0040 -0.1247 -0.0772
64530W        W 7443  24.721  19.605  19.880 -0.2004  0.1216 -0.0424
64531W        W 7444  24.798  30.639   2.619  0.2915 -0.0446  0.1963
64532W        W 7445  23.292   0.536   2.244 -0.3748 -0.1381  0.1432
64533W        W 7446   4.996  22.884  25.429  0.0590 -0.0935 -0.3853
64534W        W 7447  10.633  27.418  29.166  0.0906  0.3430  0.0891
64535W        W 7448  31.768  30.225  25.382 -0.3972  0.2190 -0.2304
64536W        W 7449   7.061  20.598  18.421 -0.0343  0.1324 -0.2489
64537W        W 7450   5.079  29.453   6.770 -0.0756 -0.0505  0.2848
64538W        W 7451   3.364  30.363   5.403 -0.1086  0.0905 -0.2975
64539W        W 7452  27.870  32.973  29.494 -0.1570  0.0402 -0.0280
64540W        W 7453  30.772   1.923   0.281 -0.0960 -0.0919  0.1155
64541W        W 7454   3.738  30.702   3.488  0.3741 -0.0646  0.1538
64542W        W 7455   5.694  30.169   6.787 -0.0078  0.0825  0.0478
64543W        W 7456  24.766  32.702  18.662  0.0678  0.0855 -0.1634
64544W        W 7457   9.243  33.363   7.285 -0.1836  0.1805 -0.2393
64545W        W 7458   1.771  20.913  27.843  0.0988  0.1052 -0.1162
64546W        W 7459  12.172  32.935  11.246 -0.0483  0.1045  0.3079
64547W        W 7460   4.120  13.701   5.663  0.3129  0.1939  0.2409
64548W        W 7461   2.268  27.232  27.710  0.0101  0.0178  0.1304
64549W        W 7462  33.811  26.072  28.058  0.1554  0.3238 -0.3486
64550W        W 7463  22.216  30.669  26.073 -0.1996 -0.1286 -0.1052
64551W        W 7464   5.605   4.439  13.064 -0.2258  0.1924 -0.4419
64552W        W 7465  33.606  33.779   0.420  0.2415  0.3310  0.0360
64553W        W 7466   0.674  31.635  26.552 -0.3409 -0.1208 -0.3503
64554W        W 7467  33.305  29.384   5.310  0.1163 -0.2206  0.1284
64555W        W 7468  34.019  21.372   3.061 -0.2205 -0.1161  0.0237
64556W        W 7469   0.684  33.835  11.556 -0.6214  0.1230 -0.1152
64557W        W 7470   2.049  16.974  29.711 -0.2496 -0.2941  0.2466
64558W        W 7471  29.825  28.257  29.212  0.2165  0.2773 -0.2199
64559W        W 7472   7.717  28.640   3.444  0.1178  0.0097  0.2473
64560W        W 7473  33.730  29.133   2.305  0.0855 -0.1446 -0.2512
64561W        W 7474   2.253   9.259   2.444  0.1060  0.0846 -0.0006
64562W        W 7475   6.396  30.389  10.894  0.0838  0.2202  0.1374
64563W        W 7476  12.796  26.990   8.796  0.1744  0.2500  0.1326
64564W        W 7477   3.771  32.751   1.983  0.0429  0.2494  0.4118
64565W        W 7478   0.192  15.042   5.932  0.0389  0.1891 -0.1269
64566W        W 7479   2.087   1.766   4.491  0.2026  0.1981  0.0526
64567W        W 7480  31.706  27.175  19.872 -0.0772  0.1957  0.0899
64568W        W 7481   2.075  32.826  28.566  0.0016  0.0166 -0.2346
64569W        W 7482  33.614  22.825  25.160 -0.2438 -0.1382 -0.1529
64570W        W 7483   8.893  30.626   7.307 -0.3657 -0.0521 -0.1125
64571W        W 7484   8.230  33.721  28.231  0.3585 -0.0115 -0.1356
64572W        W 7485   3.801  30.403   3.884 -0.3375 -0.1512  0.2319
64573W        W 7486  23.322  28.529   7.296 -0.3014  0.1105 -0.2184
64574W        W 7487  12.669   7.468  24.141 -0.2148 -0.0683  0.2562
64575W        W 7488   0.155  28.486   5.262 -0.2283 -0.0358  0.1092
64576W        W 7489   6.527  28.989   4.474  0.2844 -0.0776  0.2754
64577W        W 7490   2.211  28.761  25.319  0.2532 -0.6720  0.3492
64578W        W 7491   3.168   1.527  21.451  0.2387  0.0566  0.2348
64579W        W 7492  10.180  22.054  14.744 -0.0881 -0.1739  0.0121
64580W        W 7493  15.914  33.616   0.266 -0.0786 -0.2539 -0.0312
64581W        W 7494   8.100  26.003  26.727 -0.0981  0.0171  0.0244
64582W        W 7495  30.492   0.349   5.240 -0.2628 -0.1426  0.1818
64583W        W 7496  29.161  20.463  23.974  0.0099 -0.1378 -0.1121
64584W        W 7497   1.263  11.070  10.629 -0.0428  0.0111 -0.0565
64585W        W 7498  31.499   4.926   5.897  0.0855  0.0273 -0.2809
64586W        W 7499  10.081  20.771   0.056  0.1198 -0.2612 -0.1420
64587W        W 7500   5.651  30.687   5.230  0.1102  0.1066 -0.3018
64588W        W 7501  33.185  27.053  23.133 -0.4940 -0.1882  0.0566
64589W        W 7502   8.191  27.122  14.988  0.3251 -0.0778  0.0590
64590W        W 7503   8.613   5.619   9.466  0.3383  0.2122 -0.0577
64591W        W 7504   1.862  30.757   1.824 -0.1464 -0.0160 -0.3718
64592W        W 7505  28.953  33.980   1.697 -0.1192  0.1234  0.1101
64593W        W 7506  18.297  23.806   8.212  0.0768  0.0536 -0.1827
64594W        W 7507  14.712  21.252   6.608 -0.3323 -0.2784  0.2148
64595W        W 7508   4.568  21.915   8.587 -0.1340  0.0658 -0.1041
64596W        W 7509  33.797   5.334   7.058 -0.1817 -0.0034 -0.0251
64597W        W 7510  30.186   5.614   3.576 -0.2310 -0.1359  0.5725
64598W        W 7511  25.827  30.968  29.351  0.2015 -0.0169  0.2153
64599W        W 7512  28.182   6.078   5.787 -0.1925 -0.1336  0.1233
64600W        W 7513  32.170  33.374   3.476 -0.3362 -0.2607 -0.0222
64601W        W 7514   0.848  19.042  29.667 -0.0251 -0.1279  0.0630
64602W        W 7515  24.849  31.285   5.278  0.3339  0.0509 -0.0463
64603W        W 7516  23.438   1.323   1.851 -0.0646 -0.1716 -0.1975
64604W        W 7517   6.169  22.670  26.869  0.2038 -0.1155 -0.1434
64605W        W 7518  15.581  30.229   4.736  0.0727  0.2812  0.0987
64606W        W 7519   0.222  25.489   5.857  0.1792  0.2753 -0.4223
64607W        W 7520  27.426  25.216  22.987 -0.1678  0.1812  0.1875
64608W        W 7521   9.615  31.485   3.143 -0.1061  0.4800  0.0615
64609W        W 7522  27.171  25.885   5.732  0.0464 -0.0473  0.0498
64610W        W 7523   6.583  28.112   7.417  0.0977 -0.2259 -0.0657
64611W        W 7524   5.447  28.922   9.937  0.0674 -0.1227  0.1909
64612W        W 7525   0.559  28.298   8.241 -0.2140 -0.0314  0.2021
64613W        W 7526   5.098  24.064  22.089  0.2144 -0.1239 -0.2327
64614W        W 7527  10.061  33.690  11.384  0.1022  0.1631  0.1833
64615W        W 7528  33.375  20.439  21.235  0.1347 -0.1909 -0.1140
64616W        W 7529  32.511  31.475   2.333 -0.0743  0.0250  0.1148
64617W        W 7530   0.944   2.899   0.551  0.0871 -0.1097  0.1156
64618W        W 7531   9.628  29.462   4.317  0.2566  0.0447  0.1517
64619W        W 7532   2.424  22.577   5.940  0.1112  0.1662 -0.0909
64620W        W 7533   7.332   2.886   6.360  0.1335  0.1935  0.1897
64621W        W 7534   7.429  19.706  25.964 -0.0831 -0.2001 -0.0834
64622W        W 7535  30.912  30.051  22.444  0.0590  0.0271  0.3534
64623W        W 7536  26.596  32.798   8.649 -0.3303  0.2408  0.1837
64624W        W 7537  23.105   0.194   4.025 -0.1959  0.0865 -0.2711
64625W        W 7538  33.751  27.825  28.522 -0.4824  0.0539 -0.2083
64626W        W 7539  28.375  23.213   6.124 -0.0011  0.1019  0.2026
64627W        W 7540  27.443  21.224  28.740  0.2651  0.2532 -0.0057
64628W        W 7541   4.987   3.606  28.919 -0.0027  0.3631 -0.1406
64629W        W 7542   5.980  30.496  28.662  0.0663 -0.1701 -0.1249
64630W        W 7543   4.685  33.754  10.191 -0.1308  0.1044  0.2411
64631W        W 7544   4.426   4.527   8.244  0.2673 -0.2084  0.0374
64632W        W 7545   3.519  33.674  27.191 -0.2038 -0.5194 -0.2502
64633W        W 7546   4.442  34.094   5.236  0.1886 -0.2809 -0.1053
64634W        W 7547  27.502  29.878   5.000 -0.0558  0.1565 -0.0348
64635W        W 7548   5.045  16.873  28.459  0.1884  0.2046  0.2683
64636W        W 7549  31.677   0.845  27.941  0.1364  0.3631 -0.0398
64637W        W 7550   5.295   0.292   1.979 -0.2440 -0.0582  0.2867
64638W        W 7551  30.102  26.658   0.163  0.1673  0.1125 -0.1588
64639W        W 7552  32.810  31.706   9.977  0.2257  0.1477  0.3247
64640W        W 7553   2.071  28.560   6.960 -0.1569  0.1044  0.0060
64641W        W 7554   0.021  28.426   9.252 -0.0354 -0.0560  0.0269
64642W        W 7555   5.935   4.670  28.967  0.0187  0.1984 -0.0944
64643W        W 7556   2.438   3.143  26.157 -0.1897  0.3922  0.0652
64644W        W 7557   2.724  18.070  25.715  0.0425 -0.0390  0.0353
64645W        W 7558  30.303  21.015  22.259 -0.2846 -0.4185  0.1673
64646W        W 7559   0.509  31.012  23.429 -0.0850 -0.0660  0.2057
64647W        W 7560   0.249  24.131   2.963 -0.0115  0.0323  0.1147
64648W        W 7561  33.113  27.063   9.093 -0.2290  0.0950 -0.0267
64649W        W 7562  29.804   4.422   1.904 -0.2365  0.0317 -0.0115
64650W        W 7563   7.435  31.512  24.754 -0.0164  0.0647 -0.0665
64651W        W 7564  15.476  29.772   6.616  0.2186 -0.0436 -0.1285
64652W        W 7565  30.136   6.943   9.221 -0.0470 -0.4101  0.3303
64653W        W 7566   7.595  33.488   3.284  0.1509  0.0684  0.4481
64654W        W 7567  25.979   8.842  21.006 -0.0058  0.0307  0.1101
64655W        W 7568  29.593  33.680   3.910 -0.3783  0.0342  0.3875
64656W        W 7569  34.339  29.128   8.545 -0.0791 -0.1526  0.0311
64657W        W 7570   3.617  22.815   0.199 -0.1535 -0.0438 -0.0154
64658W        W 7571   0.479  32.028   0.120  0.0099  0.1948 -0.3823
64659W        W 7572   4.516  25.809   0.169 -0.0336 -0.0226  0.1317
64660W        W 7573   4.231  33.733   7.637 -0.1343 -0.0183  0.0831
64661W        W 7574  31.109   2.429   9.294  0.2014 -0.1368 -0.2602
64662W        W 7575  26.794   3.602   7.356 -0.0850 -0.2383 -0.4128
64663W        W 7576   7.282   0.584  28.964  0.2417 -0.2955  0.0100
64664W        W 7577  27.553  28.527   1.573  0.1550 -0.1699 -0.0898
64665W        W 7578   2.628  21.294   9.330 -0.4479 -0.1004  0.0905
64666W        W 7579  25.939   4.307   7.699  0.0373 -0.0787 -0.0370
64667W        W 7580   2.374   2.119   7.571  0.1433 -0.0752 -0.1492
64668W        W 7581   2.668  31.449   1.181 -0.0504  0.3538 -0.0450
64669W        W 7582  16.113   5.418   3.147 -0.0060  0.1006  0.1978
64670W        W 7583   1.985   6.277   9.285 -0.0200  0.1186  0.0434
64671W        W 7584   9.584  28.643   1.953 -0.0434  0.2441  0.1666
64672W        W 7585   1.020  33.278  21.855 -0.1453  0.1928 -0.1927
64673W        W 7586  18.533  22.535  28.515 -0.3953 -0.2019 -0.0261
64674W        W 7587   3.068  31.366  27.081 -0.2576 -0.0258  0.0832
64675W        W 7588   4.990  33.382  21.965 -0.0591  0.0191 -0.6049
64676W        W 7589   7.031  33.162  27.978 -0.0775 -0.0818 -0.0918
64677W        W 7590   3.204  22.672  29.356  0.1328  0.0933 -0.0511
64678W        W 7591   4.690  20.130  29.206  0.0079 -0.0241 -0.2518
64679W        W 7592   1.243  33.311   8.655  0.0925 -0.0940  0.0806
64680W        W 7593  32.419  28.519  26.678  0.2316 -0.1811 -0.2263
64681W        W 7594   1.252  33.695   3.788 -0.0426  0.0646 -0.1727
64682W        W 7595   8.167  34.389   2.426  0.1220  0.3337  0.0276
64683W        W 7596   4.884  28.417   5.478  0.0250 -0.3274 -0.1130
64684W        W 7597   4.984  22.558   2.810  0.0387 -0.2609  0.2256
64685W        W 7598   4.595  34.193  10.203  0.2870 -0.0650 -0.2082
64686W        W 7599   7.625  22.380   7.269 -0.1227 -0.0054  0.5120
64687W        W 7600  28.355  10.144  27.485  0.0388  0.2149  0.1701
64688W        W 7601   1.111  24.285  28.566  0.3408 -0.2877 -0.0183
64689W        W 7602   6.974  30.681   7.203  0.0264  0.2532  0.3820
64690W        W 7603  34.470  29.907  28.105  0.0480  0.3315 -0.2534
64691W        W 7604  30.523   3.794   4.840  0.0309  0.1916  0.1513
64692W        W 7605  30.059  31.721   2.615 -0.2628 -0.2228  0.1894
64693W        W 7606   9.330  24.016   6.828  0.0815  0.1523  0.0993
64694W        W 7607   3.296  28.633   8.610 -0.1467  0.0624  0.0079
64695W        W 7608  32.782  30.808   4.878  0.0222 -0.2162 -0.1513
64696W        W 7609   2.775  15.005  27.618  0.1360 -0.3385  0.1383
64697W        W 7610   9.168  20.520   7.966  0.3391  0.1333 -0.2114
64698W        W 7611   6.698  31.998  25.345  0.0117  0.0159  0.1477
64699W        W 7612  32.835  29.268   9.634  0.1255 -0.4730 -0.2313
64700W        W 7613  17.221  28.215   0.611 -0.0887 -0.3315  0.2811
64701W        W 7614   0.524   4.486   8.111 -0.0064 -0.5687  0.0980
64702W        W 7615   7.801  32.753   8.541 -0.0596  0.1707 -0.2994
64703W        W 7616   9.605  21.822   0.225 -0.1033  0.3329 -0.2798
64704W        W 7617  34.108  29.682   2.255  0.5121 -0.0436 -0.3642
64705W        W 7618   7.300  24.584  26.626 -0.1076 -0.0444 -0.0201
64706W        W 7619  31.419   3.678   6.161  0.1321  0.3643  0.0218
64707W        W 7620   3.400  14.583   5.704 -0.0351  0.3785 -0.0661
64708W        W 7621  31.467  19.838  26.689  0.2664  0.0467  0.3185
64709W        W 7622  31.156   8.321   3.748 -0.0879  0.0711 -0.2159
64710W        W 7623  28.228  27.790  27.126 -0.4157  0.2678 -0.4258
64711W        W 7624   3.899  30.124   3.472 -0.0288 -0.2877 -0.0181
64712W        W 7625  27.024  30.935   0.278  0.0736  0.4037  0.0453
64713W        W 7626  30.810   7.568   2.436 -0.2947  0.0481  0.0184
64714W        W 7627  32.849  26.848   8.709 -0.0189 -0.0681 -0.0483
64715W        W 7628  31.156   1.010   6.910 -0.2824  0.0094 -0.0674
64716W        W 7629  10.273   3.265  21.896  0.1092 -0.0782 -0.2392
64717W        W 7630   4.301  27.716   2.013 -0.1403  0.0016  0.2097
64718W        W 7631   3.717   5.813   0.346  0.1350  0.0475 -0.1368
64719W        W 7632   9.641  31.359   5.005  0.0782 -0.2748  0.2780
64720W        W 7633   2.696   1.891   6.222  0.2289 -0.1974  0.1072
64721W        W 7634  31.900  31.690   6.806 -0.0705 -0.0573 -0.0558
64722W        W 7635  33.526  30.423   5.340  0.3736 -0.1538 -0.3455
64723W        W 7636   2.255  27.588  28.055  0.0973  0.0115  0.2554
64724W        W 7637   0.756   4.035  22.386 -0.1954  0.4269 -0.0929
64725W        W 7638   6.562   2.634  22.253 -0.2989 -0.0433  0.0525
64726W        W 7639  27.507  28.750   7.172  0.2712 -0.0234  0.1956
64727W        W 7640   3.865  25.709   5.996  0.2584  0.1792  0.0753
64728W        W 7641  27.452  13.223   2.324  0.1100 -0.0447  0.0946
64729W        W 7642  32.017   5.020   6.675 -0.0950  0.1575 -0.1758
64730W        W 7643   2.822  27.163   5.178  0.0960  0.0643 -0.1421
64731W        W 7644  34.433   4.249  28.990  0.3750 -0.3581 -0.0957
64732W        W 7645   5.608  24.642  10.499  0.0939  0.1602  0.0347
64733W        W 7646  33.319   4.274   7.961  0.0729  0.1217  0.2547
64734W        W 7647  10.935  31.254  29.379  0.0802  0.2407  0.2021
64735W        W 7648  31.029  17.085   5.844  0.2834 -0.0546 -0.2010
64736W        W 7649  11.656  28.356   9.869 -0.2754  0.0699  0.1490
64737W        W 7650  32.351  21.100  27.064 -0.2811  0.2524  0.1453
64738W        W 7651   0.841   6.705  24.214  0.2196  0.3008 -0.2047
64739W        W 7652  30.587   6.661  27.590  0.4469  0.2161  0.0636
64740W        W 7653  27.652  32.870   8.792  0.0853 -0.0274 -0.2901
64741W        W 7654  29.033  30.761   8.075 -0.1716  0.1321 -0.2348
64742W        W 7655   9.898  34.032   6.321  0.1160 -0.4048 -0.2886
64743W        W 7656  31.351  25.108  24.834  0.0847  0.0564  0.1071
64744W        W 7657   0.599  31.218   9.616 -0.0727 -0.1016 -0.1292
64745W        W 7658  33.421  30.714  22.674 -0.1079 -0.2335  0.1549
64746W        W 7659  32.070  32.469   5.365 -0.1510 -0.1513  0.2534
64747W        W 7660   3.433  27.047   1.567 -0.3321 -0.0875  0.0939
64748W        W 7661   0.364  25.677  28.707 -0.0170 -0.1936  0.1873
64749W        W 7662  31.873  19.918   1.840  0.1446  0.2441 -0.0852
64750W        W 7663  30.715   7.349  28.514 -0.2746 -0.0677  0.3393
64751W        W 7664  30.402  24.876  25.840  0.4002 -0.1179 -0.1118
64752W        W 7665  28.967  20.859   2.568 -0.2622  0.0232  0.0078
64753W        W 7666   8.883  31.005   1.347  0.1002  0.1271  0.0677
64754W        W 7667  34.276  28.629  22.797  0.4527  0.0356 -0.4113
64755W        W 7668  29.356  33.654   2.134  0.1222 -0.0624 -0.0148
64756W        W 7669  11.053  25.753  26.688 -0.0234 -0.1427  0.0810
64757W        W 7670   7.715  23.315   6.601 -0.1301  0.2168 -0.0351
64758W        W 7671   0.926  33.208  25.091  0.0657 -0.0036 -0.2199
64759W        W 7672   6.314  28.359  12.079  0.4871 -0.2724  0.0290
64760W        W 7673  32.582  30.021  16.531 -0.2825 -0.2929  0.3572
64761W        W 7674   8.330  29.927  28.671  0.3884 -0.3101  0.4165
64762W        W 7675  32.534  29.979   4.490  0.2193 -0.1142  0.1200
64763W        W 7676  26.494  26.053  26.671  0.3326  0.2059  0.2998
64764W        W 7677  32.232  32.356  10.531 -0.0160  0.0064 -0.2288
64765W        W 7678   0.637  30.912   2.852  0.0347  0.1357  0.0658
64766W        W 7679   4.514   3.949   3.349 -0.0625 -0.1343  0.1689
64767W        W 7680   3.747   3.721   5.508 -0.1047 -0.6462  0.1399
64768W        W 7681   8.420  31.695  11.948 -0.1490  0.2222 -0.2548
64769W        W 7682   9.416  27.905   7.392  0.2817 -0.3796 -0.1454
64770W        W 7683  29.934   2.273   6.566 -0.0665  0.3250  0.0024
64771W        W 7684   6.431  27.606   8.054  0.2775 -0.0666  0.0883
64772W        W 7685  20.644   5.110   4.006  0.0122 -0.0393 -0.0077
64773W        W 7686  15.980  22.812   4.273 -0.2018 -0.3569  0.3378
64774W        W 7687   1.907  29.834   4.357 -0.2081 -0.2002  0.0947
64775W        W 7688   4.005  22.988   3.573 -0.2321  0.0722  0.1407
64776W        W 7689   0.696  16.082  29.312 -0.0609  0.0874 -0.0884
64777W        W 7690  31.689  32.539  29.548 -0.0467  0.1306  0.3353
64778W        W 7691   0.031  33.597  26.380 -0.0121  0.0283  0.1434
64779W        W 7692  33.999  31.403  29.689  0.1748  0.2204 -0.0969
64780W        W 7693  11.646  25.325   1.130  0.2335 -0.3070  0.0494
64781W        W 7694   1.548  30.663  25.549 -0.0175 -0.0820 -0.4535
64782W        W 7695   2.004  30.701   7.931 -0.0960  0.0666 -0.0691
64783W        W 7696   6.307   1.870   6.321 -0.1892  0.2087  0.2131
64784W        W 7697  27.349  25.724   1.792  0.2582 -0.1136  0.0928
64785W        W 7698   1.734  29.136  22.022  0.2618  0.1888  0.0142
64786W        W 7699  12.835  26.786  10.088  0.3421 -0.1250 -0.3197
64787W        W 7700   1.601  17.136  24.072  0.1024  0.2394  0.0853
64788W        W 7701   2.573   3.670  21.002  0.0535  0.2426 -0.2359
64789W        W 7702  31.000   6.385   4.868 -0.1148 -0.2036  0.0138
64790W        W 7703   2.106   1.107   6.279 -0.0710  0.0068 -0.0209
64791W        W 7704   8.637  16.561  28.540  0.0683  0.3056  0.1625
64792W        W 7705   3.253  30.253   0.025 -0.1425 -0.2453 -0.0700
64793W        W 7706   3.726  24.755  18.060 -0.0931  0.0395 -0.0964
64794W        W 7707  34.162  31.465  24.404 -0.1100  0.2279  0.0641
64795W        W 7708  26.737  28.752  19.813  0.0834 -0.1084  0.1121
64796W        W 7709   3.236  27.495  26.774  0.2128  0.0203  0.0943
64797W        W 7710  25.650   4.395  24.880  0.2170 -0.0212  0.0367
64798W        W 7711  27.762  32.245   7.947 -0.1491 -0.2033  0.3459
64799W        W 7712  12.218   3.773  27.937 -0.3402  0.0679 -0.2149
64800W        W 7713  33.752  31.307   4.389  0.0102 -0.0147  0.0493
64801W        W 7714   8.457   0.303  26.147 -0.1698  0.1159 -0.0851
64802W        W 7715  33.493  26.465  28.654 -0.1427 -0.2019  0.1635
64803W        W 7716  32.649   7.320   6.371 -0.2004  0.3744 -0.1678
64804W        W 7717  34.383  27.588   9.689  0.1722 -0.0184  0.2276
64805W        W 7718  30.255  20.305   5.088  0.2175  0.3221  0.1695
64806W        W 7719  31.030  29.091   4.801 -0.3104 -0.0124 -0.0541
64807W        W 7720   7.411  25.817   9.924  0.3388 -0.2024  0.0216
64808W        W 7721  13.728   0.650  28.584 -0.2961 -0.2087 -0.1955
64809W        W 7722   3.047   3.515   5.090 -0.0221  0.0477 -0.2113
64810W        W 7723  24.183   3.391   3.455 -0.3591 -0.1847 -0.1954
64811W        W 7724  33.065  28.755   9.908 -0.1601  0.1993  0.0038
64812W        W 7725   9.480  22.865   9.366  0.0033 -0.0017 -0.1927
64813W        W 7726   2.391  18.125   4.893  0.0966 -0.0661 -0.2427
64814W        W 7727   3.597  31.759   4.891 -0.0646  0.4683 -0.0380
64815W        W 7728  33.120  33.022  11.259  0.1804  0.2570 -0.0670
64816W        W 7729  28.420   8.604   8.886 -0.0943 -0.1130 -0.1820
64817W        W 7730  33.719   8.046   6.190  0.1140  0.3492 -0.2281
64818W        W 7731   2.285  32.367   9.146  0.4120 -0.0081 -0.1038
64819W        W 7732   8.852   4.283   9.722 -0.1710  0.1668  0.0780
64820W        W 7733   3.653  32.839   8.482  0.1346  0.1824 -0.1735
64821W        W 7734   2.382  30.461   2.329  0.0208 -0.3479  0.1212
64822W        W 7735   5.649  22.462   5.484 -0.0909 -0.0157 -0.1752
64823W        W 7736  27.134  29.052   6.771 -0.4228 -0.0328 -0.1544
64824W        W 7737   3.102  17.291   3.126 -0.1532 -0.1371 -0.1820
64825W        W 7738  28.898   4.807  10.657  0.0013  0.0645 -0.2514
64826W        W 7739   4.706  33.927   6.749 -0.3272  0.1728 -0.2668
64827W        W 7740  27.263   8.896   2.194 -0.4437 -0.0509  0.0492
64828W        W 7741   8.612   2.218  10.304 -0.2451 -0.0300  0.3319
64829W        W 7742  33.424  24.831   8.281 -0.0656 -0.0810 -0.0141
64830W        W 7743   5.390   1.050   0.833  0.4640  0.0278 -0.0371
64831W        W 7744  31.777  29.630   9.130 -0.0999  0.0589 -0.0004
64832W        W 7745  11.041   0.779   9.623  0.1780 -0.2281 -0.4444
64833W        W 7746   6.492   2.753   3.774 -0.1402 -0.0918 -0.0086
64834W        W 7747  33.859   1.435   3.057 -0.2395 -0.1256 -0.1068
64835W        W 7748  33.025   8.712  10.295  0.0120  0.1250 -0.3049
64836W        W 7749  19.511  34.452   5.301  0.3849 -0.3528 -0.2884
64837W        W 7750   7.794  29.335   4.357  0.1059  0.1040 -0.0608
64838W        W 7751   1.783  21.519   5.745  0.0005  0.2841 -0.0713
64839W        W 7752   6.675  29.148   7.122 -0.2045  0.1295  0.0316
64840W        W 7753   0.679   1.807   4.621 -0.0301  0.0445 -0.2162
64841W        W 7754  33.184  27.417  28.938  0.1585  0.0569 -0.1610
64842W        W 7755  32.211   3.259  10.012 -0.2245 -0.2054 -0.0148
64843W        W 7756   3.911  26.827   2.926 -0.1321  0.0531 -0.1067
64844W        W 7757  17.268  31.969   1.339 -0.0381  0.1069 -0.1457
64845W        W 7758  34.353   5.931  11.988  0.2877 -0.0842  0.2551
64846W        W 7759   3.103   1.731  29.128 -0.0499  0.1263  0.0885
64847W        W 7760  31.144  29.907   7.841  0.2297 -0.0350 -0.3927
64848W        W 7761  28.599  32.445   5.880 -0.0467  0.0692 -0.1324
64849W        W 7762   1.847  33.107  10.297  0.0696  0.1500 -0.0771
64850W        W 7763  33.146  26.098   8.164 -0.0827 -0.1267 -0.1444
64851W        W 7764  11.610   2.768  28.901  0.2481  0.1301  0.2090
64852W        W 7765   0.349   1.136   8.606 -0.2192  0.1313  0.0311
64853W        W 7766   3.007   1.025   7.938 -0.1447 -0.1089  0.0363
64854W        W 7767   3.724   0.595   9.251 -0.2079 -0.2209 -0.1776
64855W        W 7768  32.437   2.139   6.552  0.0455  0.1751 -0.2205
64856W        W 7769  34.062  33.673   9.510  0.0349  0.2450  0.4077
64857W        W 7770  14.458  26.894   3.271 -0.2736  0.0966 -0.1833
64858W        W 7771   2.886   3.010   7.006  0.1776 -0.0940 -0.2967
64859W        W 7772   7.938   3.360   1.875  0.1442  0.0308 -0.1845
64860W        W 7773  33.910   3.473  12.200 -0.2037  0.1454 -0.2800
64861W        W 7774   6.820   4.693   5.155 -0.0274 -0.2266  0.0887
64862W        W 7775   5.338   0.102  11.936  0.0671  0.3552 -0.1324
64863W        W 7776   6.782  27.947  25.419  0.1904  0.3144  0.0505
64864W        W 7777  28.737   1.955   4.990 -0.0704 -0.1421 -0.2082
64865W        W 7778  33.263  29.000   8.313  0.1685  0.1801  0.1812
64866W        W 7779   1.696  22.663   2.082 -0.0306  0.1248 -0.0634
64867W        W 7780   5.852  28.098   7.714 -0.0949 -0.0449 -0.0033
64868W        W 7781   9.161   4.067   3.226 -0.1968 -0.2310  0.1002
64869W        W 7782  32.823  25.044  20.195  0.0180 -0.1188  0.1085
64870W        W 7783  34.216  29.660   6.276  0.0400 -0.0071 -0.1497
64871W        W 7784  11.929  26.991   5.200  0.0439  0.0946 -0.3318
64872W        W 7785   1.336  26.673   3.034  0.4642 -0.0704 -0.0207
64873W        W 7786  29.833  33.038  25.164  0.0774 -0.0853  0.2464
64874W        W 7787  10.084   2.209   8.888 -0.0243 -0.1654  0.1091
64875W        W 7788  31.054   7.494   1.218  0.0668 -0.0656  0.0425
64876W        W 7789  29.706   0.503  10.496 -0.0757  0.1260  0.4228
64877W        W 7790   1.604  27.629   9.543 -0.3023 -0.1062  0.1057
64878W        W 7791  29.276   0.115   9.270 -0.0502  0.1859  0.0063
64879W        W 7792  25.705  25.278   0.407  0.3518 -0.1032 -0.2456
64880W        W 7793   3.277   7.657  12.844 -0.2302 -0.3074 -0.1526
64881W        W 7794  24.336  23.446   2.163 -0.2829  0.0487  0.0281
64882W        W 7795  30.848  31.661  10.985  0.0074 -0.0428  0.0891
64883W        W 7796   8.227  27.304   4.568 -0.2387 -0.1771 -0.1402
64884W        W 7797   1.182  31.555  26.655 -0.2032  0.2149 -0.0269
64885W        W 7798  21.756  19.321   1.491 -0.1831  0.0385 -0.0187
64886W        W 7799  12.597  21.761   7.646  0.0933  0.0343  0.0173
64887W        W 7800   1.402   7.545   8.890 -0.1959  0.0446 -0.1262
64888W        W 7801  26.740  29.957   2.686  0.0174 -0.0714  0.1587
64889W        W 7802   9.573  18.120   3.382 -0.0979 -0.0006 -0.3556
64890W        W 7803  28.593  32.136   1.711 -0.3990 -0.1865  0.0948
64891W        W 7804   5.587  25.349   3.782  0.0140  0.1857  0.0662
64892W        W 7805   0.211  31.653   9.921 -0.3531  0.1089 -0.0434
64893W        W 7806   6.287  17.157   5.643 -0.1532 -0.0790  0.0737
64894W        W 7807   2.582   6.669   9.776 -0.1771  0.3335  0.1336
64895W        W 7808  24.494  32.973   4.659  0.2978 -0.1852 -0.0646
64896W        W 7809   4.257   3.937  10.567  0.1082 -0.0281  0.1951
64897W        W 7810  33.967   6.282   6.412 -0.0689  0.2715 -0.0040
64898W        W 7811   5.664  31.352   3.909 -0.0720 -0.0241 -0.0026
64899W        W 7812   6.655  30.709  29.420 -0.0020 -0.0287  0.0573
64900W        W 7813  32.886  26.304   4.978 -0.2053  0.2985  0.2483
64901W        W 7814  26.432  15.551   7.186 -0.1985 -0.1540 -0.0260
64902W        W 7815   4.432   1.203   8.490  0.1239  0.1856  0.1729
64903W        W 7816   2.698   8.525   4.810 -0.0947 -0.0599  0.1384
64904W        W 7817  11.647   0.821   7.043  0.2644 -0.1677 -0.0167
64905W        W 7818   6.556  24.147   5.360  0.1290 -0.1618 -0.0365
64906W        W 7819  31.575   0.518   8.448  0.2247  0.0382  0.3804
64907W        W 7820   8.876  32.305   9.804  0.4390 -0.1514 -0.0405
64908W        W 7821  24.566   2.929   0.786  0.1030  0.0877  0.0382
64909W        W 7822   3.812  32.200   4.035  0.1580  0.0010 -0.0694
64910W        W 7823   1.371  30.099   2.620 -0.2711 -0.3293 -0.4352
64911W        W 7824   3.401  32.463  10.180 -0.0800  0.0172 -0.1188
64912W        W 7825   4.076  12.971   1.640 -0.0459 -0.0786  0.2709
64913W        W 7826  22.812  33.292  27.893  0.1318 -0.2572 -0.0133
64914W        W 7827  23.554   1.792   0.346  0.3017 -0.2771  0.0821
64915W        W 7828   6.114  28.555  10.343  0.1803  0.2644  0.0017
64916W        W 7829   1.031  28.873  26.527 -0.2978 -0.3184  0.0103
64917W        W 7830   0.409  33.355   7.409  0.4198  0.3929  0.2161
64918W        W 7831  32.626  24.251   7.208 -0.0445 -0.2610  0.0882
64919W        W 7832  29.048   0.651   9.257 -0.2009 -0.0800  0.2747
64920W        W 7833  32.270  24.137   9.631  0.4296  0.1816 -0.1497
64921W        W 7834  33.613  31.464  10.002  0.0239 -0.0955 -0.2366
64922W        W 7835  30.053  33.438   0.713  0.2796  0.0637 -0.1630
64923W        W 7836   2.763  22.744   5.597  0.0572 -0.1349 -0.3276
64924W        W 7837  29.452  12.352   8.973  0.1315 -0.0687  0.0110
64925W        W 7838   5.290   0.930   4.218 -0.1128  0.0467 -0.2215
64926W        W 7839  24.846  24.894   7.144 -0.0691  0.0368  0.1374
64927W        W 7840   9.767   5.141   4.019  0.1059  0.0772  0.1697
64928W        W 7841   1.903  33.851   1.401  0.1346 -0.1080 -0.4856
64929W        W 7842  31.658  31.689   9.535 -0.2723  0.0167  0.1712
64930W        W 7843   1.814  20.258  24.424 -0.1694 -0.2807 -0.0662
64931W        W 7844   5.651  27.870   0.893  0.0864 -0.1092 -0.0290
64932W        W 7845   3.404  29.876   7.166 -0.3144  0.0681  0.0569
64933W        W 7846  32.242  33.665  10.877 -0.2259  0.0585 -0.0129
64934W        W 7847  14.491  34.044   8.853  0.0298  0.0131  0.1244
64935W        W 7848  31.215   0.229  26.470 -0.2422 -0.0243  0.0154
64936W        W 7849  12.482   6.950   8.758 -0.0799 -0.1146 -0.0789
64937W        W 7850  33.185  25.725   0.697  0.3984  0.0370 -0.1247
64938W        W 7851   2.103   1.116   7.619  0.0236  0.0579  0.0750
64939W        W 7852  24.240  27.101   1.480 -0.3763 -0.0102 -0.2927
64940W        W 7853   4.157  29.780   5.746  0.0049  0.1013  0.1438
64941W        W 7854  12.033  34.058  11.747  0.4084 -0.1295 -0.1647
64942W        W 7855   7.617  26.630  24.576  0.3139 -0.0201 -0.1778
64943W        W 7856   4.484  28.620   9.722  0.0058  0.1237  0.0680
64944W        W 7857  12.648   3.720  11.002 -0.1604 -0.0718  0.3149
64945W        W 7858   0.686  23.789   9.102 -0.0573 -0.1509 -0.0816
64946W        W 7859   8.749  25.620   1.991  0.0200  0.0338  0.1276
64947W        W 7860  25.830   9.690   0.785  0.2129 -0.1064 -0.3634
64948W        W 7861   3.299  30.486   7.942 -0.0246  0.0632 -0.1609
64949W        W 7862  34.424  28.738  27.251  0.0023  0.1708 -0.1146
64950W        W 7863  23.371  26.796   8.246  0.2809  0.1969 -0.0625
64951W        W 7864  28.371   3.217  10.463  0.0526 -0.2013 -0.3911
64952W        W 7865   8.585  12.248   6.172  0.0665  0.0490 -0.0306
64953W        W 7866  32.487  29.471   5.500  0.1020 -0.1268  0.2741
64954W        W 7867   7.578  25.833   1.269 -0.1997 -0.0096  0.0929
64955W        W 7868   3.783   4.235  12.430  0.5312 -0.0140 -0.1445
64956W        W 7869  32.265   5.098   6.202  0.1161  0.1188 -0.3163
64957W        W 7870   5.223   7.998  29.762 -0.1625  0.1868  0.2653
64958W        W 7871  10.786   6.704  19.471 -0.1567 -0.1771  0.3268
64959W        W 7872  34.327   4.943  11.247 -0.0175  0.0191 -0.3347
64960W        W 7873  14.978   0.340  29.553  0.3330 -0.0410 -0.0069
64961W        W 7874  30.919   3.765  25.385  0.0061 -0.2130 -0.0322
64962W        W 7875   7.627   0.995   1.154 -0.0974 -0.2546 -0.3049
64963W        W 7876   2.467  31.075  24.837 -0.2620  0.0514 -0.0059
64964W        W 7877   1.445  30.085   7.586 -0.0868 -0.1426 -0.1337
64965W        W 7878   6.401  29.087   4.956 -0.1802 -0.0764  0.2691
64966W        W 7879   6.657  28.465  26.802 -0.4371 -0.2316 -0.1140
64967W        W 7880  25.129  24.244   3.340  0.0991 -0.0069 -0.4133
64968W        W 7881   1.867  25.155   0.459 -0.1452 -0.1589 -0.5341
64969W        W 7882  32.641  33.237   2.284  0.3528 -0.0953 -0.0396
64970W        W 7883  32.500  32.045   3.579  0.2415 -0.1888 -0.3266
64971W        W 7884  28.201  29.205   4.968  0.3279  0.2212  0.0977
64972W        W 7885   3.294  28.878   6.603 -0.1117 -0.1284 -0.0143
64973W        W 7886   1.094  28.156   2.140 -0.1376  0.1539 -0.1207
64974W        W 7887  33.368   0.112   9.951  0.0286 -0.3246 -0.1058
64975W        W 7888   8.708  32.089  27.372 -0.2966 -0.1594 -0.0749
64976W        W 7889  31.866  33.541   5.388  0.1826  0.1616  0.1751
64977W        W 7890   0.569   0.105   7.428 -0.4409  0.0465  0.1920
64978W        W 7891   2.496  31.501   9.061  0.1203 -0.0751 -0.4153
64979W        W 7892  27.394  31.411   5.784  0.0526 -0.1747  0.2179
64980W        W 7893   0.348   1.681  21.016 -0.2910 -0.1224  0.0208
64981W        W 7894   6.255   3.629   1.139 -0.0705 -0.0738  0.0201
64982W        W 7895  34.454  22.650   5.847 -0.1302  0.1941 -0.0333
64983W        W 7896  31.432  20.641   6.660 -0.1103 -0.1163 -0.0144
64984W        W 7897   9.554  31.014  28.778 -0.0468  0.0932  0.2762
64985W        W 7898   2.445   6.320  11.508 -0.2277 -0.0857  0.1296
64986W        W 7899   2.654  26.096   4.332  0.1746 -0.0987  0.0826
64987W        W 7900   5.934  26.626  10.366  0.0585  0.3661 -0.1819
64988W        W 7901   4.204  28.379  10.680 -0.1517  0.0085  0.0811
64989W        W 7902   1.437  28.142   0.367 -0.0096  0.2367  0.0152
64990W        W 7903   8.141  33.037   6.300 -0.1516 -0.0790 -0.0502
64991W        W 7904   7.420   2.300   6.072  0.0707 -0.0046  0.0491
64992W        W 7905  30.700  32.635   6.047 -0.0407  0.0056  0.0932
64993W        W 7906   8.716   1.563  26.877  0.3003  0.0756 -0.1168
64994W        W 7907  10.134  26.101  28.985  0.0747  0.0075  0.0716
64995W        W 7908   2.766   1.322   9.702  0.0120 -0.0993 -0.1616
64996W        W 7909   2.999   0.523   1.816  0.1394  0.3338 -0.1159
64997W        W 7910  29.418   3.741  20.931 -0.5401 -0.1909  0.2167
64998W        W 7911   1.532  30.210   5.193  0.0343  0.0798  0.0529
64999W        W 7912  31.773   0.052   6.854  0.2306  0.0376 -0.1598
65000W        W 7913  27.116   7.034  26.945 -0.2699  0.1914 -0.2563
65001W        W 7914   5.549  34.296  25.013 -0.1195  0.0421 -0.2426
65002W        W 7915   3.937  27.288   6.355  0.0090 -0.1164  0.1629
65003W        W 7916   3.876  28.621   3.802 -0.2063  0.1222  0.0027
65004W        W 7917   5.916   7.321  12.542 -0.1704 -0.2090 -0.0882
65005W        W 7918   9.050  30.706  10.275 -0.0333 -0.1838 -0.2102
65006W        W 7919  33.636  34.097  28.905 -0.0256 -0.1130  0.3552
65007W        W 7920  11.680  21.845   9.232 -0.0351  0.0234 -0.3110
65008W        W 7921  26.023   0.899   7.615 -0.3188  0.3383 -0.0632
65009W        W 7922  33.952   0.492   3.364  0.3835 -0.1582 -0.0478
65010W        W 7923  28.951   4.639   1.558 -0.1093  0.1855  0.0904
65011W        W 7924   0.511  28.037   3.311  0.0787 -0.2490 -0.0925
65012W        W 7925   3.290  29.235   3.387  0.1174 -0.1148  0.1597
65013W        W 7926  10.649  28.739   8.050  0.1448 -0.0419 -0.0774
65014W        W 7927  10.052  22.516   2.318  0.1165 -0.2030  0.0526
65015W        W 7928  11.709  26.713   6.986  0.0622  0.1603  0.1933
65016W        W 7929   0.343  26.871  29.312 -0.0674  0.1552  0.0283
65017W        W 7930   3.168   0.035   0.321 -0.1399 -0.1323 -0.0171
65018W        W 7931  13.077  30.860  10.763 -0.0910 -0.1495  0.1640
65019W        W 7932  29.534  32.616   6.913 -0.2410  0.2520  0.1038
65020W        W 7933   4.562   9.016  28.829 -0.0821 -0.0558  0.2756
65021W        W 7934  33.412  29.832   7.760 -0.1516  0.0512 -0.3417
65022W        W 7935   3.812  18.803   7.128  0.3163  0.1066  0.2660
65023W        W 7936   0.059  23.473   7.827  0.1203 -0.3178  0.1092
65024W        W 7937   6.029   3.381   9.877  0.0028 -0.1175  0.2212
65025W        W 7938   6.488  26.637   2.452 -0.1665  0.0987 -0.0549
65026W        W 7939   0.685  30.485  10.414  0.0610  0.1574 -0.0550
65027W        W 7940   7.281   1.722   8.491  0.2358  0.3443  0.3312
65028W        W 7941   1.863  29.763   9.944  0.1139  0.4291  0.2252
65029W        W 7942  14.617  27.922   1.710 -0.0737 -0.2108  0.2886
65030W        W 7943   3.829   5.842   9.619 -0.0958  0.0683 -0.0722
65031W        W 7944  30.994   6.482  29.628  0.0133 -0.1380  0.2122
65032W        W 7945   5.149  34.434   6.284  0.1111  0.1103 -0.0059
65033W        W 7946  24.558  32.985   2.011  0.0725 -0.1563 -0.0925
65034W        W 7947   0.493  27.458  28.100  0.0949 -0.0714  0.2655
65035W        W 7948  11.113   5.163   9.118  0.4659  0.1604  0.0879
65036W        W 7949   1.426  31.056   5.569  0.0383  0.1503 -0.2191
65037W        W 7950  26.137  32.289   5.970  0.2037 -0.0521  0.1912
65038W        W 7951  10.153   1.984  10.398  0.3550 -0.0684  0.2168
65039W        W 7952   5.250   4.008  10.755 -0.1605  0.3015 -0.2837
65040W        W 7953   3.933  30.795   5.669 -0.0128 -0.1100 -0.4906
65041W        W 7954  30.729  34.193   6.469  0.2558  0.2349  0.0112
65042W        W 7955  31.295   0.840   8.689 -0.0655 -0.2954  0.0535
65043W        W 7956   5.397  30.294   7.945 -0.1124 -0.0872  0.1524
65044W        W 7957  32.720  12.364   8.477  0.1804  0.1618  0.2434
65045W        W 7958   7.076  31.059  11.443  0.0350  0.2044  0.4161
65046W        W 7959  34.494  27.440   7.732  0.0513 -0.1742 -0.4384
65047W        W 7960  11.157  30.155   8.696 -0.0970  0.2132  0.0510
65048W        W 7961   1.109  27.559   7.839 -0.0291  0.1761  0.0177
65049W        W 7962   9.292   8.413  11.548  0.1233 -0.1126  0.0676
65050W        W 7963  33.562  29.796  22.211  0.2474  0.1051  0.3117
65051W        W 7964   6.591   8.778  10.163  0.2075 -0.0920  0.0768
65052W        W 7965   4.418  13.587   0.756 -0.1368  0.2052  0.1338
65053W        W 7966  11.433   1.950   5.829  0.3279  0.3403 -0.1366
65054W        W 7967  33.696   9.545   1.328  0.1926  0.2442  0.0109
65055W        W 7968   2.783  13.438  10.178 -0.0989  0.0363  0.3510
65056W        W 7969   6.739  19.586   9.807  0.1975 -0.0085  0.1800
65057W        W 7970  27.975  28.289   5.449 -0.1000  0.0887 -0.1136
65058W        W 7971   0.801  25.342   7.653  0.1446 -0.1364  0.1431
65059W        W 7972  27.794  29.123   6.127 -0.2863  0.1199  0.0201
65060W        W 7973  33.609  32.421  10.412  0.3421  0.1275 -0.0567
65061W        W 7974  33.522  33.532   4.936  0.0059 -0.2224  0.3143
65062W        W 7975  24.454  31.112   4.329 -0.1482 -0.1310 -0.0546
65063W        W 7976   1.921   4.233   5.150 -0.0302 -0.2430  0.0174
65064W        W 7977  19.682   0.006   7.459  0.0400  0.0390 -0.0731
65065W        W 7978   4.545   1.285  28.826 -0.0661  0.3465  0.0616
65066W        W 7979  32.926   4.218   5.374 -0.0242  0.0230 -0.0106
65067W        W 7980  27.359  30.391   9.164  0.1434 -0.0511  0.2621
65068W        W 7981   4.707  31.058   1.011 -0.1523 -0.2382 -0.0651
65069W        W 7982  29.232  18.810   4.901 -0.0452  0.0044 -0.0428
65070W        W 7983   3.053  29.625   9.973 -0.2016  0.2176  0.1249
65071W        W 7984   0.062   6.527  11.377 -0.1693  0.2770 -0.0187
65072W        W 7985  32.989   4.612  22.524 -0.0461  0.1313 -0.0083
65073W        W 7986   1.144  27.132   7.291 -0.1282 -0.0519 -0.4733
65074W        W 7987  31.935   0.645  24.270  0.2050  0.2322 -0.1432
65075W        W 7988  32.289   5.191   4.651  0.2724 -0.0464 -0.0670
65076W        W 7989  31.254   4.428   1.188 -0.0271  0.0614 -0.1585
65077W        W 7990  10.552  24.535   0.687  0.2812  0.0155  0.4432
65078W        W 7991   0.001  33.404  11.203  0.0448  0.4430 -0.2751
65079W        W 7992   6.680  23.024  28.683 -0.0250 -0.0741  0.0803
65080W        W 7993   8.177  27.951   9.030 -0.0618  0.0306 -0.0223
65081W        W 7994   3.174  31.040   3.647  0.2725 -0.0189 -0.1226
65082W        W 7995   3.348  30.919   5.556  0.2581 -0.1480 -0.2712
65083W        W 7996   6.511  34.046   7.125  0.2141  0.0567  0.0606
65084W        W 7997   1.227  31.445   7.783 -0.0440 -0.0363 -0.0288
65085W        W 7998  29.017  16.582   7.161  0.1657  0.2482  0.0166
65086W        W 7999   4.386   3.183   4.587  0.1288 -0.1497 -0.0043
65087W        W 8000  28.864  27.947  28.235 -0.0875 -0.0205  0.2053
65088W        W 8001   3.275  31.189   7.817 -0.0305 -0.1137 -0.3503
65089W        W 8002   4.524   0.333   1.558  0.0878  0.0221  0.1918
65090W        W 8003   6.587  27.337  10.819  0.1228 -0.0358 -0.1658
65091W        W 8004  31.201  31.443   2.833 -0.2393 -0.0365 -0.1359
65092W        W 8005   9.093  28.103  27.465 -0.0219 -0.0334  0.0478
65093W        W 8006  32.053  32.062   8.634 -0.0567  0.0859 -0.0664
65094W        W 8007   1.034  28.997  29.447  0.4001  0.0447  0.1500
65095W        W 8008  20.421  30.191  26.634 -0.0239 -0.1722 -0.0348
65096W        W 8009  10.156  19.654   8.860 -0.1895 -0.3648 -0.0225
65097W        W 8010   4.481   1.477  10.319 -0.1874  0.0326  0.0545
65098W        W 8011  29.186   1.838  29.468  0.0082  0.0209  0.1718
65099W        W 8012  30.930   2.883   7.525  0.0682 -0.0030  0.0128
65100W        W 8013   1.629   9.982  11.210  0.1034 -0.2319 -0.0270
65101W        W 8014   2.971  27.868  28.850  0.2235  0.2565  0.2158
65102W        W 8015  29.856   3.285   0.916  0.1928  0.0424 -0.2585
65103W        W 8016   8.402  22.754   9.116  0.1162  0.1336 -0.0169
65104W        W 8017   3.835   5.025  12.725  0.2813 -0.4382 -0.1672
65105W        W 8018  28.382  31.804   6.497  0.0403 -0.1182  0.3290
65106W        W 8019  13.394  16.539  28.241  0.2888 -0.5033  0.1167
65107W        W 8020  14.131   3.072   1.010  0.0773  0.2431  0.0524
65108W        W 8021  10.443  28.410  10.125 -0.3552 -0.0450  0.0482
65109W        W 8022  16.470  32.925   5.684 -0.1658  0.0327  0.2699
65110W        W 8023   7.231  26.956   7.271 -0.0713  0.0477  0.0145
65111W        W 8024   6.914  31.701   8.340  0.1669 -0.2178 -0.0577
65112W        W 8025   2.556  29.205   2.546  0.2444 -0.0736  0.0557
65113W        W 8026   7.012  34.333   4.159 -0.0159  0.0399  0.1081
65114W        W 8027  28.365   5.449   8.847 -0.0133 -0.1690 -0.1950
65115W        W 8028  30.096   1.686   6.901 -0.1618 -0.1693  0.0551
65116W        W 8029  11.039  34.374  11.694 -0.3450 -0.0849 -0.0285
65117W        W 8030   9.787   5.898   8.835  0.2765 -0.1116 -0.0128
65118W        W 8031   8.675  32.549  25.949 -0.0532  0.2203 -0.1789
65119W        W 8032   7.492  25.638  27.023 -0.0362  0.3293 -0.0960
65120W        W 8033   3.426  20.806   2.328  0.1042  0.2128  0.0079
65121W        W 8034  33.017  32.286   1.454  0.1639 -0.1258 -0.0791
65122W        W 8035  28.772  31.181   8.001 -0.1973 -0.2075 -0.2069
65123W        W 8036  34.124   1.590   6.023 -0.2046  0.2445 -0.0523
65124W        W 8037  32.037   1.116  10.732  0.1546 -0.0332  0.1920
65125W        W 8038   0.454  28.425   4.757  0.0987  0.1748 -0.0836
65126W        W 8039   5.410  32.005  10.075 -0.3081 -0.0772  0.3020
65127W        W 8040  27.796  26.788   1.006 -0.0572  0.0065 -0.0835
65128W        W 8041   7.666  22.114  24.941 -0.2164 -0.2505  0.2709
65129W        W 8042   1.987  30.092   8.443 -0.0304 -0.1368 -0.1165
65130W        W 8043   1.939  26.938   9.709  0.5973 -0.2062 -0.3469
65131W        W 8044   8.212  32.733  29.614  0.3605 -0.0651 -0.1340
65132W        W 8045  30.853   3.066  27.300 -0.1603  0.1055  0.1881
65133W        W 8046  14.828  33.860  25.854  0.0494 -0.0122  0.0416
65134W        W 8047  21.731   1.447   9.154 -0.2524 -0.3307  0.4788
65135W        W 8048  32.340  23.726   2.069 -0.1275 -0.0949 -0.0350
65136W        W 8049  32.028   4.645   7.105 -0.2486  0.0874  0.0181
65137W        W 8050  28.933   9.276   8.018 -0.0386 -0.1856  0.2198
65138W        W 8051   0.388  29.154   8.507  0.1271 -0.2446 -0.5848
65139W        W 8052   1.583   0.533  10.221 -0.2239  0.1153 -0.0841
65140W        W 8053  33.306  32.187   7.288  0.0183 -0.3066  0.0705
65141W        W 8054   9.933  26.248   4.833  0.0123  0.2071  0.1676
65142W        W 8055   9.969  32.521  27.520 -0.0003 -0.2026 -0.0958
65143W        W 8056   0.800  32.396   9.821  0.1904 -0.1144 -0.0240
65144W        W 8057   0.015  28.222   8.435  0.1140 -0.0528  0.0998
65145W        W 8058   2.498  29.632  27.095  0.0437 -0.1783 -0.0608
65146W        W 8059   1.971   2.160   7.806  0.2694  0.1318 -0.0239
65147W        W 8060   9.977  17.469   5.764  0.0669 -0.4918  0.1351
65148W        W 8061   4.370   0.482   2.936  0.2153 -0.3984 -0.3275
65149W        W 8062   2.642   3.230  10.295  0.2773 -0.2417 -0.1983
65150W        W 8063   2.954   7.149  25.371 -0.1530 -0.1995  0.1214
65151W        W 8064   3.827  33.707  22.186  0.0667  0.1577 -0.0456
65152W        W 8065   3.426  19.362   0.565  0.1593  0.0477 -0.1258
65153W        W 8066  31.538   1.769  10.995 -0.4354  0.0159  0.0025
65154W        W 8067  30.885  26.053   5.700  0.2792  0.0682  0.1606
65155W        W 8068   1.430  19.523   4.369 -0.2702 -0.4174  0.3504
65156W        W 8069   0.739  30.084   6.733  0.2478 -0.0594 -0.1191
65157W        W 8070  11.869  24.692   7.019 -0.3259  0.3598 -0.2702
65158W        W 8071  29.345  21.188   2.294  0.0835 -0.1648  0.0515
65159W        W 8072  32.972  11.869  29.061  0.2606  0.0228 -0.2666
65160W        W 8073  30.921   8.020   8.900  0.1935  0.1006 -0.0435
65161W        W 8074   2.668  23.566   3.591  0.2905  0.0501 -0.0058
65162W        W 8075   4.701  13.402   9.820 -0.0172  0.2076  0.1523
65163W        W 8076   2.209   9.869   6.192 -0.0050 -0.5164  0.3286
65164W        W 8077   3.983  25.187   7.747  0.3694  0.1028  0.2099
65165W        W 8078  33.810   4.595  23.696 -0.1350 -0.5053 -0.4017
65166W        W 8079  32.806  10.425  10.136  0.2724  0.1959  0.1073
65167W        W 8080  29.304  21.417   9.395  0.1329 -0.3030 -0.0907
65168W        W 8081  29.829   3.556   7.284 -0.1130 -0.1623  0.1276
65169W        W 8082   0.054  21.298   1.509  0.0731 -0.1010 -0.0035
65170W        W 8083   9.196  29.056   5.488 -0.1212  0.3007 -0.0427
65171W        W 8084  18.911  32.326   3.604 -0.0871 -0.0354 -0.3250
65172W        W 8085   3.060   7.988  29.065  0.2675 -0.1782  0.0039
65173W        W 8086   1.280   3.042  11.825 -0.1196  0.2063 -0.0029
65174W        W 8087   1.296   0.469   8.347 -0.1790 -0.1531 -0.1392
65175W        W 8088   3.269   6.616   1.264  0.0719 -0.1512 -0.0508
65176W        W 8089   1.870   2.014   9.485 -0.3716 -0.1320  0.0308
65177W        W 8090  32.651  26.430   8.037 -0.0963 -0.2144 -0.1247
65178W        W 8091   7.120  30.486  29.484 -0.2362  0.1685 -0.1425
65179W        W 8092   7.003   0.452   6.902  0.0766  0.0329  0.2896
65180W        W 8093  34.422  28.949   7.993  0.1524 -0.0528  0.3950
65181W        W 8094  28.344  25.146  28.552 -0.2541 -0.1341 -0.0356
65182W        W 8095  32.895  17.801   2.924  0.1168  0.2181  0.0746
65183W        W 8096  13.208  28.701   2.090 -0.4933 -0.0011  0.0377
65184W        W 8097   1.864  18.946   7.171  0.1395  0.1168  0.0375
65185W        W 8098   5.269  34.336   1.835 -0.0005 -0.0084 -0.1485
65186W        W 8099  11.486   9.348   5.841 -0.0046  0.2929 -0.4573
65187W        W 8100   2.472   6.156  10.982 -0.1495  0.0952  0.0059
65188W        W 8101   5.241   2.263  10.196 -0.1211 -0.0923  0.0338
65189W        W 8102   1.084  33.671  10.584 -0.0818  0.0033  0.1999
65190W        W 8103   6.416  24.657   8.145  0.3973 -0.0533  0.3419
65191W        W 8104   6.298  20.892  29.583  0.2629 -0.0109 -0.0561
65192W        W 8105  31.407  29.486   7.734 -0.1940  0.1611  0.0184
65193W        W 8106  29.314  21.754   7.351  0.5615 -0.0898 -0.0514
65194W        W 8107   9.870  31.637   3.649  0.1513 -0.0254  0.2767
65195W        W 8108  12.486  29.491  29.508  0.4049 -0.0656 -0.1425
65196W        W 8109  16.523   0.066   3.166  0.2949  0.1243 -0.2213
65197W        W 8110   4.707   6.570   1.709  0.1936  0.0215 -0.1728
65198W        W 8111   4.518  33.760   8.051  0.0578 -0.1744  0.0679
65199W        W 8112   5.552   9.683   6.168 -0.1759  0.0247  0.2378
65200W        W 8113   4.153   0.160   6.616  0.0512  0.0187  0.1332
65201W        W 8114   1.234  27.379   8.390  0.2685 -0.1177 -0.1472
65202W        W 8115   4.578  25.700   5.673 -0.0600  0.3038  0.1279
65203W        W 8116   2.425  34.251   6.330 -0.1820  0.0216 -0.0700
65204W        W 8117   4.756   6.859  12.773 -0.3396  0.1779  0.0611
65205W        W 8118   6.010  31.590   8.162 -0.1794 -0.0267 -0.0034
65206W        W 8119   7.346  26.000  29.191 -0.0188 -0.2115 -0.1748
65207W        W 8120   6.910  31.244   1.497 -0.3577 -0.0806 -0.0761
65208W        W 8121  25.654  29.789   5.705 -0.2029  0.1153  0.2616
65209W        W 8122   5.600  10.522  10.521  0.0933 -0.0618  0.3361
65210W        W 8123  28.226   9.070  10.167 -0.2919 -0.5381  0.1116
65211W        W 8124   1.498   8.763   5.828 -0.0710  0.1577 -0.2541
65212W        W 8125  32.983  28.222   8.163  0.4243  0.0125 -0.2207
65213W        W 8126   2.620  29.971   0.821 -0.1027 -0.0580 -0.1687
65214W        W 8127  14.065   0.106   8.641 -0.0127 -0.1893  0.2325
65215W        W 8128  19.508   5.027   9.738  0.0452  0.2082 -0.0870
65216W        W 8129   5.420   8.005  27.995 -0.1691 -0.2383  0.1042
65217W        W 8130   1.813   1.169   3.388 -0.0338 -0.0626  0.1009
65218W        W 8131  12.930  31.816   2.778 -0.0842  0.1275  0.1121
65219W        W 8132  33.567  17.426   7.651 -0.1470  0.0172  0.2754
65220W        W 8133   3.074  26.288   4.563 -0.1599 -0.1673 -0.2107
65221W        W 8134   0.163   9.025  28.805  0.1450  0.2878  0.0760
65222W        W 8135  10.396  33.424   6.279 -0.2185  0.1505  0.3994
65223W        W 8136  30.542   0.626   4.474 -0.0406 -0.0121  0.1479
65224W        W 8137  31.237   8.005   4.090 -0.0068 -0.1770 -0.0593
65225W        W 8138   7.097   0.278  12.351 -0.1106  0.2851 -0.3452
65226W        W 8139  32.047   2.749   3.209  0.2420  0.0138 -0.0617
65227W        W 8140   4.358   5.440  12.082  0.0900  0.0989 -0.1731
65228W        W 8141   6.463  23.408   3.750  0.3224 -0.2789  0.0146
65229W        W 8142  29.946  32.069   7.332 -0.1693 -0.0891 -0.1825
65230W        W 8143  30.201   4.261   7.757 -0.1032  0.0301  0.0333
65231W        W 8144   5.220   7.744   8.625 -0.0637  0.0170 -0.1254
65232W        W 8145  10.408  30.895   8.773 -0.0480 -0.0401  0.0158
65233W        W 8146   5.972   0.159   7.059 -0.1997  0.2560  0.0023
65234W        W 8147   3.278  25.390   9.862 -0.2200  0.1143  0.1937
65235W        W 8148  30.416   3.200  28.991  0.0349 -0.0685 -0.3114
65236W        W 8149   2.014  14.713   7.653  0.2830  0.2081 -0.0885
65237W        W 8150  10.040  27.418   8.034  0.0589 -0.1563  0.0278
65238W        W 8151   0.149  27.609   3.004  0.2942  0.2089  0.0583
65239W        W 8152   7.992  29.283  10.905 -0.4525  0.0905 -0.0755
65240W        W 8153   5.677  32.897   3.396 -0.2135 -0.0379 -0.0418
65241W        W 8154  15.641  20.989  27.902 -0.2868  0.1649 -0.1033
65242W        W 8155   7.052  29.089   4.463 -0.3925 -0.3143  0.2125
65243W        W 8156  27.907  31.382   0.299 -0.2788 -0.3950  0.0750
65244W        W 8157  30.213  31.981   7.753 -0.1091 -0.0175 -0.1971
65245W        W 8158  29.712  27.528   9.399 -0.0988  0.0495  0.0319
65246W        W 8159  29.567  23.466   8.229 -0.2108  0.2638 -0.1942
65247W        W 8160  29.373   8.261   4.264  0.0127 -0.0612 -0.0513
65248W        W 8161  10.098  25.808   5.102 -0.1445 -0.3578 -0.2298
65249W        W 8162  28.501  32.781   8.045  0.2003 -0.5268  0.0315
65250W        W 8163   9.511  24.430  29.239  0.2043 -0.1670 -0.0382
65251W        W 8164   9.037  33.861   7.870 -0.1239  0.1060  0.1425
65252W        W 8165   3.756   4.508  11.015  0.1613  0.2485  0.4240
65253W        W 8166  32.251  26.093   8.097 -0.0940 -0.0083 -0.3034
65254W        W 8167   6.237  32.146   0.901  0.2490 -0.0836  0.1440
65255W        W 8168   3.481   6.480   7.355 -0.3287 -0.0952  0.0413
65256W        W 8169   8.282  31.179   7.475 -0.0870  0.1001 -0.0487
65257W        W 8170  29.750  27.175   8.461 -0.1434  0.0459 -0.3241
65258W        W 8171   7.306  28.108  10.180 -0.3659  0.1787  0.1508
65259W        W 8172   4.100   4.558  11.507 -0.1727 -0.1961 -0.0346
65260W        W 8173  29.906   1.286   6.057 -0.2319 -0.1983 -0.0204
65261W        W 8174   7.773  23.895  27.595 -0.2038 -0.1253 -0.1274
65262W        W 8175  10.727  32.033   2.839  0.0497 -0.0583 -0.1519
65263W        W 8176   8.747   1.571   4.672  0.3167 -0.1877 -0.4607
65264W        W 8177   2.461   4.185   9.022  0.1952 -0.0480 -0.0662
65265W        W 8178   3.726  31.711   9.955  0.1521  0.0031 -0.2065
65266W        W 8179   6.896   0.529   5.578  0.2144 -0.1024 -0.0801
65267W        W 8180  31.315  33.936   4.409  0.3736  0.0841 -0.2907
65268W        W 8181  31.263  34.294   0.850 -0.0006 -0.1029 -0.3161
65269W        W 8182  33.688   4.131   9.020 -0.1044  0.0171 -0.0780
65270W        W 8183   6.390   2.229   5.860  0.0647 -0.2715  0.2668
65271W        W 8184   8.648  27.982  27.317  0.0718 -0.2344  0.0842
65272W        W 8185   3.120   4.608  13.019 -0.0247  0.2145 -0.0512
65273W        W 8186   1.308   1.295   5.178 -0.0542 -0.1661  0.1426
65274W        W 8187   5.903   1.184   2.545 -0.3148  0.1226  0.2910
65275W        W 8188  30.881  27.879   9.932  0.0441  0.3871 -0.0019
65276W        W 8189   6.982   1.569  12.700  0.0303  0.1041 -0.0122
65277W        W 8190  32.601  33.182   6.002  0.0272 -0.2832 -0.0256
65278W        W 8191  33.001  32.911   9.851 -0.0778  0.5081  0.0618
65279W        W 8192   4.780  32.463   6.006  0.0940 -0.0421 -0.0828
65280W        W 8193  30.423   2.909  27.555 -0.0183  0.0606 -0.3279
65281W        W 8194  31.593   1.303   4.199  0.1680 -0.0094 -0.0657
65282W        W 8195  30.887   2.466  10.728 -0.2787 -0.2179 -0.2290
65283W        W 8196  31.559  30.276   2.638 -0.0019  0.3333  0.1178
65284W        W 8197  30.670   2.942   8.002  0.0612  0.2310  0.2738
65285W        W 8198  25.237  33.853   9.605 -0.2245 -0.2267  0.1289
65286W        W 8199  12.897  33.838  10.697 -0.1759  0.1315 -0.1699
65287W        W 8200   0.977  33.708  11.057  0.0493 -0.0092  0.1155
65288W        W 8201  29.944   7.489   9.789 -0.1212  0.2326 -0.1745
65289W        W 8202   7.394   5.643   4.687 -0.1020 -0.2740  0.0827
65290W        W 8203  25.536  26.845   3.763 -0.2309  0.0468 -0.0718
65291W        W 8204   7.642   1.060   6.182  0.1773  0.0526  0.0394
65292W        W 8205  33.827   3.846  10.182  0.1063 -0.3048 -0.1009
65293W        W 8206  28.967   6.990  10.579 -0.0364  0.1374 -0.2466
65294W        W 8207   1.309  33.286   1.976 -0.3793  0.1465  0.1016
65295W        W 8208   6.783   4.075  13.475 -0.1132  0.3431 -0.3124
65296W        W 8209   0.869  34.205   3.123 -0.2622 -0.1202 -0.1121
65297W        W 8210  31.450  11.288   9.522  0.2549  0.3114  0.4151
65298W        W 8211   0.107  29.349   4.798  0.3062  0.3293 -0.1862
65299W        W 8212  10.802  34.430   9.888 -0.0568 -0.0452 -0.2389
65300W        W 8213  30.593  25.778   7.028  0.0626  0.0789  0.1132
65301W        W 8214   4.274  31.868   7.554  0.2782  0.0666 -0.3749
65302W        W 8215   2.912  27.010   9.758 -0.1596 -0.2881 -0.1077
65303W        W 8216  33.001  27.647   3.213  0.1785  0.1551 -0.0612
65304W        W 8217  31.361  22.707   8.304  0.0315 -0.1001 -0.0900
65305W        W 8218  30.879  28.113   8.212 -0.0140  0.3101  0.2490
65306W        W 8219   7.549  16.398  18.179 -0.0250 -0.0286 -0.3674
65307W        W 8220  27.260   1.372   7.174 -0.0793  0.4633 -0.1315
65308W        W 8221   2.794  33.542   6.185 -0.1407  0.0701 -0.1455
65309W        W 8222  29.269   5.189   6.015 -0.3634  0.1232 -0.0578
65310W        W 8223   0.433  28.021   6.363 -0.1281 -0.0715 -0.0663
65311W        W 8224   5.238  24.418   7.877 -0.2635  0.3393 -0.0213
65312W        W 8225  30.327   7.346   7.033 -0.1408  0.3163  0.2190
65313W        W 8226   7.548  24.743   1.893 -0.0207  0.1661  0.1579
65314W        W 8227   5.727   5.195  13.438  0.1553 -0.3222 -0.1497
65315W        W 8228  13.087  32.904  10.198 -0.2815  0.0524 -0.1913
65316W        W 8229  10.222  25.791   7.092  0.1133  0.0809  0.1576
65317W        W 8230   0.223   1.619  11.849  0.1493 -0.3209 -0.1124
65318W        W 8231   2.327  10.877   8.937 -0.1475 -0.2778  0.1073
65319W        W 8232  31.487   0.125   9.378  0.1192  0.0337  0.0904
65320W        W 8233  33.192  33.343   1.629 -0.5276  0.0499 -0.3013
65321W        W 8234   1.014  28.394   9.418 -0.1984 -0.0536  0.2234
65322W        W 8235   0.135   4.705   9.908  0.1132 -0.2221  0.0890
65323W        W 8236  31.564  25.119   7.957 -0.3024 -0.3267  0.0438
65324W        W 8237  27.361  27.593   6.849  0.0196  0.1220  0.0282
65325W        W 8238   3.140  14.985   2.279 -0.1547 -0.0173  0.2573
65326W        W 8239   0.793  28.582   3.922 -0.1021  0.0735 -0.0730
65327W        W 8240  27.871   1.400   5.149 -0.1056 -0.1919 -0.1371
65328W        W 8241   9.453   3.988   8.272  0.1951  0.1171  0.0662
65329W        W 8242   0.914  27.881   6.144 -0.1442  0.2497  0.2246
65330W        W 8243   7.711  26.933   6.986  0.0854  0.0107  0.0421
65331W        W 8244   8.017   3.609  10.008  0.3291 -0.1952  0.2726
65332W        W 8245   0.474  28.096   9.286 -0.4843  0.2472  0.0126
65333W        W 8246   4.745   1.774   3.317  0.2787  0.1630 -0.1705
65334W        W 8247   9.041   2.456  13.942  0.3517  0.0646  0.1099
65335W        W 8248   3.703  33.053   2.526 -0.1754  0.2842 -0.0334
65336W        W 8249   6.761  32.412   9.599  0.0063  0.0601 -0.3714
65337W        W 8250   6.375  25.261   4.649 -0.2594 -0.0187  0.0789
65338W        W 8251   9.641  28.341   6.663 -0.2687  0.2439 -0.3871
65339W        W 8252  11.174   6.433  10.698 -0.1985  0.2325  0.2900
65340W        W 8253   5.406  34.256   4.875 -0.0089 -0.0442  0.2681
65341W        W 8254  10.610  17.915   5.972 -0.1164 -0.0914 -0.0186
65342W        W 8255   2.199  29.867  26.699 -0.2285  0.1036 -0.0216
65343W        W 8256   2.817  34.114   3.629  0.0159  0.0032  0.2228
65344W        W 8257  20.927  25.414   1.401  0.0065 -0.1205 -0.2684
65345W        W 8258  13.943  29.236   6.470 -0.0128 -0.2222  0.2974
65346W        W 8259   2.502   6.806   7.954 -0.3674  0.3223  0.4714
65347W        W 8260   8.654  21.961   8.170 -0.4530  0.0342 -0.1539
65348W        W 8261  25.478  25.353   4.080  0.1601 -0.2261 -0.0732
65349W        W 8262   3.420   4.311   7.991  0.0659  0.0764  0.0288
65350W        W 8263  32.190  26.345   7.679  0.1344 -0.0457 -0.1732
65351W        W 8264  14.103  22.135   5.404 -0.0444  0.1589 -0.0368
65352W        W 8265  31.428  33.031   7.753 -0.1541 -0.0674  0.0011
65353W        W 8266  33.198   5.112  23.980 -0.1312 -0.1674 -0.0035
65354W        W 8267   6.590  28.335   9.316  0.1170  0.1212  0.2450
65355W        W 8268   2.501   6.458   5.827 -0.0504  0.2606 -0.0735
65356W        W 8269   4.314   8.987   3.198 -0.0227  0.3708  0.1479
65357W        W 8270  27.859  33.714   3.382 -0.1981 -0.4362 -0.0333
65358W        W 8271   7.624   0.698   9.073 -0.2895  0.0543  0.1013
65359W        W 8272   5.838  24.487   7.310 -0.4951  0.1407 -0.3351
65360W        W 8273   5.128   3.007  12.482  0.0792  0.1278  0.1101
65361W        W 8274   5.356  31.061   6.650  0.0502  0.0668 -0.1901
65362W        W 8275   1.572   6.034   4.766  0.0270  0.0564 -0.2367
65363W        W 8276   5.745  31.015   4.768 -0.1536  0.0378  0.2251
65364W        W 8277   7.315  25.441   1.601  0.1024  0.0395  0.1281
65365W        W 8278   1.835  32.015   7.163  0.0784  0.0047  0.0954
65366W        W 8279  32.190   1.668   3.394 -0.1820 -0.0165  0.1576
65367W        W 8280  30.755  25.497   4.010 -0.0000 -0.0695  0.0593
65368W        W 8281  25.363  23.756   4.550 -0.1670  0.0287 -0.3469
65369W        W 8282   0.444   1.130   9.580 -0.1047 -0.0654  0.1839
65370W        W 8283   9.957   2.864  12.747 -0.1832  0.0913 -0.2579
65371W        W 8284  27.193  33.276   9.152 -0.2578  0.0198 -0.1046
65372W        W 8285  32.850  28.870   2.656 -0.1803  0.0164  0.1841
65373W        W 8286  28.046  34.274   8.714 -0.1948  0.1225 -0.1793
65374W        W 8287   3.384  25.734  22.905 -0.2084  0.2008  0.0318
65375W        W 8288  33.396  24.187   2.741 -0.2991  0.0059 -0.0230
65376W        W 8289   7.189  27.638  11.677  0.1013  0.0018  0.2442
65377W        W 8290   4.908  24.488   9.761  0.0949  0.1854 -0.2705
65378W        W 8291   6.002  29.405   9.757 -0.0693 -0.3242  0.0968
65379W        W 8292  34.452   1.548   6.440 -0.0249 -0.0073 -0.4351
65380W        W 8293  10.453   5.901  10.214 -0.2008  0.0611  0.2173
65381W        W 8294  32.588  32.093   7.910 -0.0266  0.0000  0.0482
65382W        W 8295   3.937  33.735  10.861  0.0334  0.1670  0.0842
65383W        W 8296   0.979  23.580  21.182  0.0701 -0.1155  0.1524
65384W        W 8297   1.795   3.788  27.887  0.1235 -0.1392  0.2040
65385W        W 8298  15.221   4.800   8.094 -0.1640 -0.0522 -0.2224
65386W        W 8299  33.572  27.825  10.705  0.1698 -0.1542  0.0488
65387W        W 8300   9.751  32.505   7.285 -0.0952  0.0557  0.0962
65388W        W 8301   1.791  30.846   6.939  0.2569 -0.0583  0.0193
65389W        W 8302   6.027   1.906  28.978  0.0806 -0.2742 -0.1673
65390W        W 8303   1.184  30.266   8.830 -0.1981  0.0541  0.0609
65391W        W 8304   2.746  25.952  10.307  0.0226 -0.2561 -0.0895
65392W        W 8305   1.117   2.896   9.509  0.1356  0.0319  0.1763
65393W        W 8306   8.913  27.341   9.248  0.2226 -0.5563 -0.1706
65394W        W 8307   2.088  32.459  26.628 -0.2375  0.2459  0.0111
65395W        W 8308   0.589  24.675   1.511 -0.0495  0.0121  0.1364
65396W        W 8309  30.185  27.963   8.737 -0.1687  0.1193  0.2494
65397W        W 8310  11.656  17.384   2.508  0.0733  0.0940 -0.0958
65398W        W 8311  24.162  31.523   8.067 -0.0039  0.0903 -0.0946
65399W        W 8312   7.568  26.226   7.976 -0.1435 -0.0821 -0.0007
65400W        W 8313   9.581  31.176   7.672 -0.0952 -0.3088  0.2483
65401W        W 8314   2.874  23.159   4.813 -0.3116  0.2737  0.0570
65402W        W 8315   4.460  31.720   0.421  0.1109 -0.2582  0.2239
65403W        W 8316   0.668   5.255   5.778 -0.2042 -0.0078 -0.2708
65404W        W 8317   2.068  32.126   6.662 -0.2012  0.1118  0.0391
65405W        W 8318  29.889  30.220   4.774 -0.0485  0.0373  0.1667
65406W        W 8319   0.264  32.224   4.381 -0.4714 -0.4335  0.0082
65407W        W 8320   5.243  28.339   9.156  0.2976 -0.0563  0.0881
65408W        W 8321  32.217  33.801   8.446  0.0565 -0.1457 -0.0109
65409W        W 8322   3.176   5.990  12.767  0.0850 -0.0021 -0.1102
65410W        W 8323   5.293   1.717   5.169  0.0536 -0.0350  0.0721
65411W        W 8324  29.587   2.511   8.567  0.1370 -0.0434  0.0653
65412W        W 8325  33.422  22.249   6.639 -0.1399 -0.2388 -0.0304
65413W        W 8326   9.344  25.629   3.117  0.0713 -0.0436  0.1120
65414W        W 8327  22.193  28.708   7.819  0.0785 -0.0285  0.1284
65415W        W 8328   3.812   0.409   3.009 -0.2445 -0.0371 -0.1289
65416W        W 8329  13.623  34.219   8.599 -0.4284 -0.1004 -0.1056
65417W        W 8330   9.283  32.375   8.985 -0.2808 -0.0919 -0.0342
65418W        W 8331   9.489   4.197   6.887 -0.1645  0.1757 -0.2837
65419W        W 8332   6.076  33.721  10.832 -0.0712 -0.0546  0.1809
65420W        W 8333   0.679  25.097  26.698 -0.0372  0.0345  0.0841
65421W        W 8334  33.276  33.525   1.053 -0.0475  0.2272 -0.3292
65422W        W 8335   9.325  34.394  10.516 -0.0541  0.2114 -0.0885
65423W        W 8336  33.583  33.447   2.661 -0.1912  0.0131 -0.2135
65424W        W 8337  28.635   5.145   7.423  0.0617  0.3923  0.0257
65425W        W 8338  24.293  34.165   7.651 -0.1225 -0.0477  0.1027
65426W        W 8339  32.267  11.420   2.739  0.0258  0.2385  0.0210
65427W        W 8340  12.610  28.202   1.070  0.0470 -0.0993 -0.0705
65428W        W 8341   4.406  33.353   7.377  0.0142  0.1051  0.2119
65429W        W 8342   6.226  33.284  11.319  0.1355  0.0899 -0.4123
65430W        W 8343   0.475   6.129   1.973  0.1240 -0.1194 -0.1722
65431W        W 8344   6.460  19.485  27.411  0.0193 -0.0035  0.1019
65432W        W 8345   9.828  30.832  12.330 -0.1441 -0.3028 -0.0808
65433W        W 8346  34.353  31.215   6.142  0.0494 -0.0062 -0.0074
65434W        W 8347  29.880  13.455   1.965 -0.1886 -0.0753  0.0554
65435W        W 8348  32.229  14.008  29.559  0.1337  0.0087  0.0116
65436W        W 8349   5.442   4.757   7.761 -0.0770 -0.1514  0.0233
65437W        W 8350   8.714  26.814   4.094 -0.1628  0.0627 -0.0589
65438W        W 8351  15.473   0.246   3.155  0.2015 -0.2344 -0.0641
65439W        W 8352  34.122   1.960  24.665  0.3625 -0.2923  0.0888
65440W        W 8353   7.962   7.733   7.353  0.0028 -0.1132 -0.0909
65441W        W 8354  33.628  30.996   1.954 -0.0034 -0.1475 -0.3247
65442W        W 8355   9.940  30.523   3.745 -0.1142 -0.1884  0.0712
65443W        W 8356  30.961   7.231   3.703  0.0421 -0.2677  0.1508
65444W        W 8357  33.979  33.567   7.310 -0.1464 -0.0129 -0.0031
65445W        W 8358  27.459   2.667   3.672 -0.4555  0.0425  0.0087
65446W        W 8359  32.454  27.867   5.908  0.2111  0.0394  0.2350
65447W        W 8360  31.518  11.230   0.970 -0.0364 -0.3142  0.1648
65448W        W 8361   6.930  31.360  10.516  0.0059 -0.0503  0.1958
65449W        W 8362   6.921   2.720   9.603  0.0448  0.3651 -0.0414
65450W        W 8363  28.519  23.235   7.388 -0.1950  0.0057  0.0389
65451W        W 8364   0.129  17.068   4.703 -0.0529  0.2079 -0.1421
65452W        W 8365   5.738   1.248   9.274 -0.0410  0.2636  0.0704
65453W        W 8366   8.957   9.918   3.921  0.2760  0.0775  0.1677
65454W        W 8367   6.855   4.248  12.558 -0.0297  0.0612  0.1671
65455W        W 8368   1.293  24.964  23.349 -0.0567 -0.0245 -0.0906
65456W        W 8369  20.420  22.342   1.141 -0.2019  0.3220  0.0779
65457W        W 8370  21.954   3.118   3.197 -0.0974  0.2635  0.1948
65458W        W 8371  11.346  30.332   7.767 -0.2515 -0.0419  0.2436
65459W        W 8372  32.330   0.522   9.421  0.0553 -0.1180  0.2773
65460W        W 8373  29.055  25.092  29.105 -0.1588 -0.3472 -0.2671
65461W        W 8374  28.294  33.185   2.675  0.2013 -0.1710 -0.4278
65462W        W 8375   6.712  28.204   8.346  0.0857  0.0610 -0.0681
65463W        W 8376   3.097  13.199   8.860 -0.0899  0.2224 -0.0808
65464W        W 8377   9.385   9.830   8.730  0.1061 -0.1274 -0.1710
65465W        W 8378  33.759  20.824   0.323 -0.1164  0.2043  0.0021
65466W        W 8379   0.074  29.262   2.131  0.1418 -0.2625 -0.1329
65467W        W 8380   3.272  33.240   7.056  0.5342  0.4356 -0.2391
65468W        W 8381   2.608  27.044   6.117 -0.0037  0.0770  0.1070
65469W        W 8382  29.595  26.276   2.348 -0.2103 -0.1738  0.3454
65470W        W 8383  28.045  23.862  28.252  0.0921 -0.2255 -0.0362
65471W        W 8384  24.853  20.892   7.967 -0.0701  0.0840 -0.2089
65472W        W 8385   2.762  32.740  28.556 -0.0878 -0.1912 -0.0720
65473W        W 8386   7.969  31.082  21.847  0.0883 -0.0992  0.0599
65474W        W 8387   5.471   4.891  12.940  0.0316  0.0621 -0.1724
65475W        W 8388   6.088   1.763   9.354  0.4829 -0.3602  0.2660
65476W        W 8389  23.443  24.862   3.248  0.0182 -0.1744 -0.2616
65477W        W 8390   5.136  15.253   2.161  0.3847 -0.2763  0.0744
65478W        W 8391   5.419  26.174   4.865 -0.2963  0.0372 -0.2923
65479W        W 8392  31.715  10.971   9.136  0.1615  0.2943  0.2327
65480W        W 8393   2.580  30.356   9.364  0.0811  0.0755  0.0696
65481W        W 8394   4.870  25.787   8.208 -0.0041  0.0041 -0.4459
65482W        W 8395  10.878  20.519   6.420  0.0505  0.1907  0.0865
65483W        W 8396   2.808   1.527   5.322 -0.1745 -0.0903  0.3409
65484W        W 8397  11.023   5.468   3.179  0.1238 -0.2410  0.2722
65485W        W 8398  31.690  27.336   3.078  0.0791  0.0562  0.2305
65486W        W 8399   1.276  28.215   5.008  0.1923 -0.2156  0.0609
65487W        W 8400   7.641  27.264   9.673  0.0996 -0.1106  0.0658
65488W        W 8401  18.264  30.892  10.504 -0.1582 -0.0068  0.2214
65489W        W 8402   7.441   8.880   6.154  0.2800  0.5092 -0.2763
65490W        W 8403  28.746   5.247   9.748 -0.0441  0.2113 -0.0618
65491W        W 8404   2.234  24.149  29.713 -0.2564 -0.1799 -0.1113
65492W        W 8405   3.303  29.813  10.692 -0.0622  0.0268  0.1194
65493W        W 8406  11.453   3.803   5.263 -0.3224  0.2573  0.4786
65494W        W 8407   9.700   3.933   6.546 -0.0048  0.2760  0.0287
65495W        W 8408   8.962  34.477   9.259 -0.1480 -0.1090  0.0396
65496W        W 8409   3.454  30.325   8.896  0.1964 -0.1743 -0.3976
65497W        W 8410   5.106  29.778  27.926 -0.3779 -0.1105  0.0590
65498W        W 8411   9.141   6.246   5.758  0.0743 -0.1553  0.1375
65499W        W 8412   2.990   4.186  25.414 -0.3241 -0.0517  0.2453
65500W        W 8413  11.877  30.180   2.386  0.0626 -0.1545  0.1250
65501W        W 8414  30.485   2.156   2.754  0.0166 -0.1221 -0.0044
65502W        W 8415  23.739   5.020   9.287 -0.0379  0.1760  0.2368
65503W        W 8416  34.090  28.571   7.821  0.1218  0.1176  0.0558
65504W        W 8417  10.803   4.589  10.532 -0.2163 -0.0427 -0.2451
65505W        W 8418   6.728  24.651   4.188 -0.0858  0.1888  0.0872
65506W        W 8419   9.223   6.602  12.284 -0.0799  0.0179 -0.0944
65507W        W 8420   8.328  31.786   6.714 -0.3785 -0.0141 -0.0601
65508W        W 8421   7.653   3.142  13.366 -0.1931  0.1919 -0.1704
65509W        W 8422   4.127  33.787   4.433 -0.0687 -0.0258  0.0494
65510W        W 8423  27.372  10.703   7.489  0.2771 -0.1003  0.0090
65511W        W 8424  12.561   2.261   3.359 -0.0998 -0.2864 -0.4976
65512W        W 8425  13.001  11.775   2.134 -0.3620 -0.0675  0.0895
65513W        W 8426   1.840   2.710  23.941  0.0902 -0.0031 -0.3198
65514W        W 8427  28.868  29.349  27.308 -0.2683  0.0814 -0.0306
65515W        W 8428  29.323  32.560  19.411  0.0971 -0.4767 -0.2675
65516W        W 8429  32.661   6.577  27.559 -0.0474  0.0819 -0.0690
65517W        W 8430   4.306  27.727   0.274 -0.0012 -0.1143  0.0569
65518W        W 8431  30.168  31.393   9.770  0.1355 -0.1505 -0.0899
65519W        W 8432  34.023  33.102   2.574  0.1009 -0.1337  0.0798
65520W        W 8433  25.707   6.930   5.616 -0.1185 -0.0742  0.2029
65521W        W 8434  31.876   2.182   8.247  0.0913 -0.0364 -0.2031
65522W        W 8435   3.329   5.519  11.711 -0.1470 -0.3016 -0.1996
65523W        W 8436  30.131  31.320   8.410 -0.0635 -0.0499 -0.3524
65524W        W 8437  13.123  28.204   8.342  0.1666 -0.2209 -0.2336
65525W        W 8438   5.165  33.046   0.369  0.2532 -0.0172 -0.1741
65526W        W 8439  34.431   1.421   5.599  0.1493 -0.1300 -0.1845
65527W        W 8440   3.580  28.921  26.060  0.1473  0.0189  0.0322
65528W        W 8441   5.482  14.911  15.628 -0.1267 -0.1237  0.1325
65529W        W 8442   3.917  12.483  28.539  0.1741  0.4029 -0.0548
65530W        W 8443   1.530  28.423  25.644 -0.3279 -0.1301  0.2466
65531W        W 8444  13.361  10.235  27.230 -0.4700  0.0225  0.0420
65532W        W 8445   6.429   8.154   0.595  0.1375 -0.0570 -0.1784
65533W        W 8446   0.446   7.524  11.693  0.4423 -0.3127 -0.3313
65534W        W 8447   7.575  23.696  28.768 -0.1271 -0.0792 -0.1332
65535W        W 8448  12.468  23.843  27.391 -0.2400 -0.0848 -0.1037
65536W        W 8449   2.278  31.799   5.899 -0.2122 -0.2899  0.2316
65537W        W 8450   2.260   9.315  23.938  0.0605 -0.0646  0.3162
65538W        W 8451   2.655  26.651   2.457  0.0531  0.3825 -0.0945
65539W        W 8452   6.349   4.507   5.039  0.0038  0.0806 -0.0407
65540W        W 8453   1.128   4.803  26.619  0.1216  0.1366 -0.1464
65541W        W 8454  30.734  30.678  27.850 -0.0349  0.0109  0.3694
65542W        W 8455   2.425  28.636   3.714  0.1987  0.1010  0.1256
65543W        W 8456  23.790   2.469  25.998  0.1101  0.2398  0.1691
65544W        W 8457  33.142   7.309   4.002 -0.2415 -0.0424 -0.1209
65545W        W 8458  29.508  32.714  22.199  0.0607  0.2058  0.1453
65546W        W 8459   8.208  33.152  24.457 -0.1498  0.2517  0.0186
65547W        W 8460  27.607   4.342   4.527  0.0175 -0.1191 -0.3920
65548W        W 8461  24.654   6.746  26.877  0.1295 -0.0583 -0.1624
65549W        W 8462  26.771   7.564  18.077  0.0048  0.2667  0.1241
65550W        W 8463  15.618  31.807  29.307  0.4997  0.2048  0.1371
65551W        W 8464  34.250   1.511  27.928 -0.1578 -0.2575  0.1344
65552W        W 8465   3.023  26.836   1.204 -0.4384  0.0850  0.1015
65553W        W 8466  12.606  26.761  27.536  0.4051  0.0779 -0.1609
65554W        W 8467   3.347   0.490   1.392 -0.0721  0.2152 -0.0551
65555W        W 8468  28.631  33.627   5.910 -0.2624  0.3106  0.1446
65556W        W 8469   3.446  10.505  10.977  0.0592  0.2751 -0.0001
65557W        W 8470  31.616  12.789  24.063  0.1823  0.0868  0.0191
65558W        W 8471   6.289  27.825   1.555  0.3924 -0.2365 -0.0723
65559W        W 8472  26.107  34.146   0.781  0.1507  0.1383 -0.0361
65560W        W 8473   3.742   2.567   8.307  0.0488  0.3641  0.1833
65561W        W 8474  19.658  31.074  29.334 -0.3512 -0.0190  0.2580
65562W        W 8475  33.111  30.879  16.359  0.1156  0.0493  0.1447
65563W        W 8476  24.644  30.973  24.264 -0.2809  0.0359 -0.2378
65564W        W 8477   3.384  21.967   8.466  0.3389  0.0162  0.3641
65565W        W 8478   3.311  14.167   9.572 -0.1205  0.0399 -0.1457
65566W        W 8479   2.477  31.520   0.269 -0.1967  0.1740 -0.1353
65567W        W 8480  29.938  23.205   6.655 -0.0620 -0.0385 -0.2118
65568W        W 8481  34.030   1.289   8.880  0.0488 -0.1970 -0.1039
65569W        W 8482  32.124   3.807   0.482  0.0974  0.1777  0.2074
65570W        W 8483  29.854  30.133  26.958 -0.0731  0.3716 -0.2863
65571W        W 8484   1.147   4.372   2.369  0.0032 -0.1207  0.3429
65572W        W 8485  30.580  30.635  25.105 -0.0425 -0.0666  0.1396
65573W        W 8486  27.490   1.297  10.054 -0.2243 -0.2380  0.0702
65574W        W 8487  11.572   5.769  11.730  0.5815 -0.2374 -0.1977
65575W        W 8488  31.448   1.820  21.750  0.1576  0.0586  0.1970
65576W        W 8489   3.484  26.281   5.388  0.0428  0.1080  0.2660
65577W        W 8490   9.022   2.927  28.199 -0.3479 -0.1659 -0.0839
65578W        W 8491   2.593  28.435   4.205  0.0036 -0.1951  0.1525
65579W        W 8492   4.361   9.574   3.957  0.1151 -0.1209  0.2803
65580W        W 8493  31.901  28.790   0.873  0.0151  0.0600  0.2918
65581W        W 8494   3.730  21.816   3.938  0.1383 -0.1862 -0.5081
65582W        W 8495   1.080  24.023  26.360  0.0528  0.0344  0.1168
65583W        W 8496   0.263  31.532   6.137  0.0277  0.1043 -0.0862
65584W        W 8497   6.664  29.871   0.275 -0.0416 -0.2397  0.2133
65585W        W 8498  33.649  12.313   5.604 -0.0719 -0.4005  0.2547
65586W        W 8499   9.754  33.037   4.153  0.0955 -0.4302 -0.0361
65587W        W 8500  11.675  32.824   6.074 -0.2417  0.0422  0.0018
65588W        W 8501   0.393  33.011  25.094  0.3494  0.2252 -0.2444
65589W        W 8502   4.735  33.368   7.836 -0.0856  0.0060  0.1375
65590W        W 8503  26.272   5.592  28.753  0.1231 -0.2764  0.0047
65591W        W 8504  34.426  30.484  26.367  0.3011  0.0931 -0.1438
65592W        W 8505  12.051   3.733  28.440 -0.0033  0.1707  0.3834
65593W        W 8506   6.520   3.114   6.832  0.1377  0.0721  0.3890
65594W        W 8507   2.053   1.057  10.868 -0.1427  0.0154  0.0833
65595W        W 8508   3.914   3.295  19.978  0.5595 -0.3244 -0.1320
65596W        W 8509   7.807   8.886  10.230 -0.3172  0.2914  0.1100
65597W        W 8510  28.234  31.586  25.202 -0.2500 -0.1299 -0.1899
65598W        W 8511   6.452  30.844   9.782 -0.2102  0.1857 -0.1200
65599W        W 8512  33.571  18.027   4.008  0.0179  0.3365  0.1252
65600W        W 8513  15.577  24.006  23.352  0.0374  0.3424 -0.0998
65601W        W 8514  33.288  13.248   4.743 -0.0222 -0.1502  0.3436
65602W        W 8515  12.868  26.406  25.667  0.2046 -0.1272  0.3223
65603W        W 8516   7.573   0.611  25.563  0.1488  0.2708 -0.1502
65604W        W 8517   1.295  28.944  23.793 -0.0210  0.0773 -0.2446
65605W        W 8518  33.648  13.078   2.324 -0.1084 -0.0692  0.0762
65606W        W 8519   4.351  27.599   6.173  0.0094  0.0413  0.0241
65607W        W 8520   1.984   8.661  10.111  0.2857 -0.2277 -0.1183
65608W        W 8521   0.555  34.413  27.556 -0.0272  0.1145 -0.3131
65609W        W 8522   1.290  33.878   0.664 -0.0233 -0.0454 -0.0847
65610W        W 8523  32.315   2.848  28.262  0.0772  0.3175  0.0710
65611W        W 8524   8.355   5.014  28.609  0.2518 -0.0706  0.3445
65612W        W 8525   1.336  25.156   9.158 -0.0489 -0.0981  0.3869
65613W        W 8526  10.493  33.664  20.885  0.1027 -0.0624 -0.3264
65614W        W 8527  29.636  31.300  27.922  0.1168 -0.0686  0.0474
65615W        W 8528   5.239  30.789  28.239  0.0666  0.0350 -0.2319
65616W        W 8529   1.871  33.615   3.586 -0.0556 -0.0688 -0.1135
65617W        W 8530  28.319  29.741   6.749 -0.0582  0.4299 -0.3108
65618W        W 8531  31.608   4.695   4.761  0.0079  0.1595 -0.0646
65619W        W 8532   0.553   7.100   7.156  0.1871 -0.1480  0.2318
65620W        W 8533  31.015  33.295  28.269  0.0365 -0.0717  0.2133
65621W        W 8534   2.453  26.608   0.692 -0.1722 -0.1589 -0.2135
65622W        W 8535   3.903  26.421  22.349 -0.2414  0.1257 -0.1507
65623W        W 8536   0.656   5.850  11.584 -0.0686 -0.1116 -0.5139
65624W        W 8537   3.303   4.722  26.123  0.0357 -0.1644 -0.0738
65625W        W 8538  33.919  10.401  25.314 -0.1424  0.1770  0.3362
65626W        W 8539   9.265  27.752   8.349 -0.0959  0.0845  0.3127
65627W        W 8540   5.758   7.739  19.921 -0.1899 -0.2291 -0.0690
65628W        W 8541   7.144   1.510   4.216  0.3016 -0.2511  0.2153
65629W        W 8542  31.160   3.448  21.398  0.1002  0.1159 -0.1644
65630W        W 8543  33.742   5.638  11.377 -0.1434 -0.2244 -0.2279
65631W        W 8544   3.458  25.771   9.034 -0.0893  0.3901  0.1187
65632W        W 8545   8.619   8.007   0.185 -0.0158  0.3229 -0.3274
65633W        W 8546  28.537  10.016   3.275 -0.2277  0.0956 -0.1950
65634W        W 8547  30.614  27.297   5.044  0.0639  0.1523  0.0215
65635W        W 8548  27.799   2.826   1.009 -0.2448 -0.3449 -0.4262
65636W        W 8549   3.551   2.469  29.744 -0.1481 -0.1031  0.0693
65637W        W 8550  13.693   0.066   1.598 -0.0913  0.0613 -0.4081
65638W        W 8551   3.093  20.751   9.300  0.1029  0.1052 -0.1437
65639W        W 8552  12.044  30.014  27.974  0.0018  0.1885  0.1377
65640W        W 8553   3.117  13.080  23.096 -0.2603  0.1004 -0.1108
65641W        W 8554  34.326   2.890  23.654  0.1524 -0.1213  0.1102
65642W        W 8555  31.012   1.092   6.271  0.1875 -0.2701 -0.2334
65643W        W 8556   4.420  22.662   0.792  0.2193  0.2447  0.0302
65644W        W 8557  33.638  27.065  27.936 -0.4064  0.0023  0.0749
65645W        W 8558  12.307  28.085   3.851 -0.2611  0.1813 -0.1402
65646W        W 8559   6.781   9.926  27.506 -0.0556 -0.0055 -0.0022
65647W        W 8560   2.991  32.672  24.247  0.1622  0.0825  0.1458
65648W        W 8561   0.171  32.944   4.161  0.0814  0.0007 -0.1142
65649W        W 8562   9.296  33.173   5.842 -0.1462 -0.1194 -0.1159
65650W        W 8563   0.111  11.952   6.042 -0.0044 -0.0310  0.1042
65651W        W 8564   3.220  30.543   6.725 -0.1910 -0.0005  0.0439
65652W        W 8565   1.342   3.052   9.999 -0.3268 -0.0965  0.0897
65653W        W 8566   3.629  25.911   8.001 -0.0250 -0.0809  0.0178
65654W        W 8567   2.026  33.362   4.412  0.1151  0.0065  0.0132
65655W        W 8568   2.746  27.270   0.922 -0.1049  0.4439 -0.1751
65656W        W 8569   1.599   9.169  29.750 -0.1200  0.2110  0.0740
65657W        W 8570   7.445  24.571   0.763  0.2913 -0.0512  0.3791
65658W        W 8571   1.961   0.907  25.578 -0.1632  0.0675  0.0117
65659W        W 8572   0.232  30.522   0.440  0.0486  0.0082 -0.0692
65660W        W 8573  33.555  10.096   7.588 -0.2085  0.5956 -0.3854
65661W        W 8574   8.884   4.390  27.909 -0.0993 -0.1420 -0.4610
65662W        W 8575   3.046   5.772   6.700  0.3963  0.1949 -0.4084
65663W        W 8576  32.778   3.599   1.092  0.0092  0.1357 -0.0544
65664W        W 8577   0.222   1.552   2.299 -0.1410  0.3262 -0.1539
65665W        W 8578  31.530   1.466   6.783 -0.0571 -0.0961  0.2000
65666W        W 8579  33.747   7.336   0.461  0.4946  0.1545  0.0432
65667W        W 8580  12.081  26.763  26.475  0.1891  0.0270  0.0210
65668W        W 8581   8.565  26.062   7.525  0.0705 -0.0480 -0.1068
65669W        W 8582   8.395  26.385   4.122  0.0586 -0.0069 -0.1269
65670W        W 8583  30.191   5.622   7.516 -0.0539  0.0116 -0.2689
65671W        W 8584  14.380  31.718  26.699  0.1997  0.0268 -0.0849
65672W        W 8585  23.311  25.301   4.413 -0.2728  0.0501 -0.3597
65673W        W 8586   4.016  25.708   7.696 -0.0307  0.0553 -0.1413
65674W        W 8587  32.973  33.905  15.257 -0.0155 -0.2101  0.0514
65675W        W 8588   0.557  19.077  10.448 -0.1382  0.1909 -0.1179
65676W        W 8589  34.201   0.186  10.355 -0.0901  0.3412  0.1277
65677W        W 8590  16.815  33.210  19.768  0.1028  0.2041  0.0227
65678W        W 8591   1.902  30.304   9.988  0.0507  0.2361  0.3267
65679W        W 8592   4.048   4.513  19.301 -0.1969 -0.0263  0.0107
65680W        W 8593  13.301  28.027  26.059 -0.3962 -0.3474 -0.0153
65681W        W 8594  10.240  30.232   5.699  0.0652  0.2084 -0.5223
65682W        W 8595  23.204  30.181   3.749 -0.1049  0.2516 -0.1797
65683W        W 8596   6.163  30.154  25.320  0.3429  0.0234  0.0658
65684W        W 8597  33.470  24.890   1.778 -0.0045  0.0381  0.2161
65685W        W 8598   2.446  24.825   2.735 -0.1177  0.0151 -0.1994
65686W        W 8599   3.238  27.957   9.825 -0.0391 -0.2304  0.2431
65687W        W 8600  14.230  30.741   9.591 -0.2858 -0.0831  0.2582
65688W        W 8601  31.528  28.897   2.150  0.0852  0.0929 -0.0064
65689W        W 8602   0.994   1.240   5.885  0.2131 -0.0127  0.1830
65690W        W 8603   3.097  10.462   2.413 -0.3362 -0.1793 -0.1886
65691W        W 8604   5.400   0.848  11.146 -0.0080 -0.1275  0.2690
65692W        W 8605  33.434  27.012   9.490 -0.1772 -0.1305  0.0856
65693W        W 8606   8.708  33.469  12.871 -0.1651 -0.1459 -0.0823
65694W        W 8607   1.084   2.756  24.497 -0.2846 -0.0734 -0.0963
65695W        W 8608  33.507  31.791   3.514  0.0098  0.0887 -0.1439
65696W        W 8609  11.864  24.214  28.485 -0.2418 -0.0843  0.0263
65697W        W 8610   1.811  27.739  22.967 -0.3602 -0.2201  0.2290
65698W        W 8611  30.306  31.301   5.584 -0.0246 -0.2740  0.2052
65699W        W 8612   0.807  30.383   2.543  0.2093 -0.0813 -0.0343
65700W        W 8613   2.134   7.703  10.451  0.0689 -0.3659 -0.0692
65701W        W 8614  23.058  12.237   7.074  0.2427  0.0240 -0.2546
65702W        W 8615  32.267  30.424   6.020  0.3065 -0.0711 -0.1737
65703W        W 8616  31.457  27.453   4.086  0.0432 -0.1567 -0.0251
65704W        W 8617  31.510   0.024  29.064  0.1401 -0.1326  0.2542
65705W        W 8618  31.831  23.848   8.629  0.1795 -0.0393  0.0726
65706W        W 8619  33.391   5.915   3.479  0.4054 -0.0939 -0.0397
65707W        W 8620  32.364   2.809  12.265 -0.1287  0.4105 -0.1089
65708W        W 8621   2.786  21.200   2.135  0.0217 -0.1188  0.1912
65709W        W 8622   7.419  12.290   9.409  0.0801 -0.2738  0.4700
65710W        W 8623   7.765  33.822  28.473 -0.2990  0.1213  0.2640
65711W        W 8624   9.912  25.857   8.587 -0.3487 -0.0303  0.1784
65712W        W 8625   1.374  28.583   9.857  0.0726 -0.1060 -0.2357
65713W        W 8626   7.133  31.636   2.878  0.1661 -0.0364  0.0265
65714W        W 8627   6.704  29.186   1.764  0.0164  0.3910 -0.0237
65715W        W 8628   3.353   5.719   2.719 -0.1094 -0.2186  0.0633
65716W        W 8629   4.563  34.119   7.657  0.0538 -0.0445 -0.1849
65717W        W 8630  15.828   4.764   4.227 -0.0253  0.1423  0.1807
65718W        W 8631   1.539   3.112  19.563 -0.1076 -0.0133  0.2509
65719W        W 8632  30.485  31.519   1.734  0.0782  0.1182  0.1571
65720W        W 8633   2.950   7.318  25.870 -0.0446  0.1267  0.2899
65721W        W 8634  26.395   1.771   3.985 -0.0453 -0.1177  0.1000
65722W        W 8635  32.121  33.124  26.766  0.1121 -0.2653 -0.1442
65723W        W 8636  34.125  28.106  20.054  0.0369  0.2022 -0.1526
65724W        W 8637   2.352   8.886  29.772 -0.0984  0.1505  0.3586
65725W        W 8638  29.719  34.360   8.173  0.1598  0.0898 -0.1255
65726W        W 8639  26.458  28.168   7.786  0.3203  0.0696 -0.1414
65727W        W 8640  31.148   1.467   9.936  0.0450 -0.1588 -0.0372
65728W        W 8641   3.976   7.114   4.940  0.1202  0.2751 -0.0126
65729W        W 8642  31.048  29.812   6.369  0.0139 -0.2679 -0.0710
65730W        W 8643   4.055   3.742   1.379  0.2588  0.0278  0.0470
65731W        W 8644   2.092  10.542  10.325 -0.2168  0.1747 -0.0435
65732W        W 8645  33.925  24.887  23.324 -0.1235 -0.2683  0.2291
65733W        W 8646   8.947   0.849   8.212 -0.1424 -0.0197 -0.3300
65734W        W 8647   2.280  31.099   8.844  0.5295  0.0185  0.1414
65735W        W 8648  30.022  33.985   4.070 -0.1623  0.2348 -0.1442
65736W        W 8649  30.161   0.937  18.055 -0.2300 -0.4735  0.0514
65737W        W 8650   5.071   7.111   4.281 -0.0904  0.0756 -0.0487
65738W        W 8651  32.746   2.214   6.135 -0.0525 -0.3141  0.3147
65739W        W 8652  27.221   0.842   3.648  0.0207 -0.0306  0.2346
65740W        W 8653   8.257  26.782   3.847 -0.1200  0.0419 -0.2036
65741W        W 8654   6.979   3.794  13.079  0.0020  0.0658  0.0428
65742W        W 8655   3.365  25.042   4.933  0.0484  0.0622 -0.1951
65743W        W 8656   2.541  10.068  28.278 -0.3146  0.0118  0.1521
65744W        W 8657   5.187  34.333  10.103 -0.0961 -0.0993 -0.1202
65745W        W 8658   9.923   3.821   3.857  0.0296  0.1357  0.0850
65746W        W 8659   8.512  27.359   0.377  0.0815 -0.0399  0.0972
65747W        W 8660   2.721   2.833  12.050  0.0028 -0.5442 -0.3479
65748W        W 8661   1.328  34.473   5.897  0.3676  0.4147  0.1104
65749W        W 8662  27.800   1.991   3.933  0.1760  0.0816  0.0587
65750W        W 8663  29.534   6.948   3.810 -0.0931 -0.1900 -0.0658
65751W        W 8664  26.936  23.639   5.009 -0.1799 -0.2793 -0.1413
65752W        W 8665  31.742   4.699   2.489  0.1340  0.3212 -0.3452
65753W        W 8666   1.263   9.345  10.175  0.1066  0.0803 -0.0308
65754W        W 8667   5.476   5.950   5.923  0.0704 -0.2034 -0.0086
65755W        W 8668  32.280   5.037   0.991 -0.1277  0.3342 -0.1234
65756W        W 8669   1.315   3.164   0.131  0.2925 -0.1424  0.2400
65757W        W 8670   2.237   2.577   7.696  0.0568  0.0330  0.0909
65758W        W 8671   8.419  25.894   8.664 -0.2441  0.1691  0.0832
65759W        W 8672   1.211  34.054   2.790 -0.2475  0.0592  0.3190
65760W        W 8673  25.576  29.316  26.642 -0.0570 -0.3473 -0.2077
65761W        W 8674  27.421   5.026   8.546 -0.4864 -0.1412 -0.0408
65762W        W 8675  29.468  26.127   1.151 -0.0139 -0.3484 -0.0378
65763W        W 8676   0.334   2.583   7.201 -0.2794 -0.0288  0.3407
65764W        W 8677   1.454  14.012   8.611 -0.0059 -0.1123 -0.1548
65765W        W 8678   6.957  30.320   3.846 -0.0887  0.0488 -0.0273
65766W        W 8679  26.616  25.990   6.589  0.1098  0.1381  0.1180
65767W        W 8680   0.148   0.162   9.829  0.0375  0.1266  0.2555
65768W        W 8681  32.048   7.754   4.562  0.2693  0.1754 -0.1486
65769W        W 8682  31.718  24.629  23.901 -0.1141  0.4106 -0.0146
65770W        W 8683   1.907   4.674  10.363 -0.0126  0.0627 -0.3293
65771W        W 8684  29.611  11.038   7.856  0.0194  0.3003 -0.4306
65772W        W 8685  34.375  28.074   3.770 -0.4161  0.3774  0.0129
65773W        W 8686  29.547  29.244   9.717  0.0526  0.0389 -0.0611
65774W        W 8687   0.703  33.887   8.995 -0.1356  0.0585 -0.3758
65775W        W 8688   3.994   1.099   8.820 -0.0355 -0.3443  0.1371
65776W        W 8689  27.531  22.170   0.709 -0.0632  0.0495  0.0509
65777W        W 8690  31.990   3.695   5.213 -0.1752 -0.2735 -0.2824
65778W        W 8691  29.842  10.564  10.794  0.0220  0.2503  0.1344
65779W        W 8692   6.318  19.533   1.400  0.1234 -0.0246 -0.1352
65780W        W 8693  29.751  12.332   6.128 -0.1036 -0.0703 -0.0760
65781W        W 8694   6.844   7.474   4.894 -0.2007  0.0151 -0.1311
65782W        W 8695   4.871   8.362   7.287  0.0347  0.1565  0.0588
65783W        W 8696   9.248   3.429  21.988 -0.3466  0.1310 -0.0411
65784W        W 8697  11.824  31.685   1.445  0.1089  0.4261 -0.0022
65785W        W 8698  10.323   2.722  11.785  0.2255 -0.2232  0.0478
65786W        W 8699  32.146   0.986   1.916 -0.2611 -0.0696 -0.0309
65787W        W 8700  27.371  28.274   2.892 -0.1846  0.0776  0.2360
65788W        W 8701   6.084   4.658   8.256  0.0302 -0.0367  0.0868
65789W        W 8702  32.549   3.939  11.245  0.3389  0.2774  0.1372
65790W        W 8703   1.273   3.536  12.090  0.0263  0.2207 -0.0012
65791W        W 8704   8.759   2.661   3.126  0.2349  0.2799  0.0301
65792W        W 8705  34.077   4.598   8.839 -0.0121 -0.3886 -0.0536
65793W        W 8706   6.511   0.550  13.103 -0.0075  0.0010 -0.0361
65794W        W 8707   5.827   0.378  23.767  0.1051  0.4499  0.3385
65795W        W 8708   0.999   2.996   2.326 -0.1632 -0.0611 -0.3142
65796W        W 8709   4.752  18.596   6.826  0.2818 -0.2351 -0.0594
65797W        W 8710   3.599   4.987   4.784  0.1330  0.2819 -0.1061
65798W        W 8711   0.279  33.400   4.117 -0.1672 -0.1432 -0.2935
65799W        W 8712  17.693  12.562  27.287  0.1195  0.2404 -0.2672
65800W        W 8713  31.308  31.563   6.860 -0.2389  0.1243  0.0798
65801W        W 8714   6.120   9.375   6.317 -0.3228  0.0142  0.1430
65802W        W 8715  31.414   4.408  11.588 -0.0801  0.1272 -0.1275
65803W        W 8716   0.934   0.266   9.203  0.1884 -0.1803 -0.0298
65804W        W 8717   1.474  33.961  10.956 -0.0928  0.1001 -0.2034
65805W        W 8718  31.948   5.702   7.896  0.0072 -0.0445  0.0014
65806W        W 8719   1.028   4.309   7.663  0.3415  0.0517 -0.1742
65807W        W 8720   2.440   9.967   1.932  0.1860  0.3900 -0.0680
65808W        W 8721   1.153   0.285   4.342  0.4391 -0.0330  0.1318
65809W        W 8722   8.285   2.005  12.039  0.2295  0.1669 -0.1762
65810W        W 8723   8.074   3.742  28.507 -0.1404 -0.1629  0.3299
65811W        W 8724  28.260  10.057   6.815 -0.1734  0.2081  0.0271
65812W        W 8725  33.417  29.900   6.006 -0.1403 -0.0062  0.4277
65813W        W 8726   9.930   7.024   2.836  0.2038  0.0449  0.0151
65814W        W 8727   1.826   6.053   7.787  0.0299 -0.1422  0.0794
65815W        W 8728  32.972   6.638   3.407 -0.1488 -0.2706 -0.1032
65816W        W 8729   3.690  31.132  10.486  0.2575 -0.0068  0.0505
65817W        W 8730   2.097  29.645   9.361 -0.0662  0.1917 -0.1538
65818W        W 8731  25.358  29.134   6.943 -0.0237 -0.0900  0.2931
65819W        W 8732   4.065  31.405   1.782  0.0439  0.2947  0.0133
65820W        W 8733   4.187   2.927  12.526  0.0119  0.4243  0.0505
65821W        W 8734   6.325   0.498   3.772  0.1215 -0.1447  0.0340
65822W        W 8735   2.253   7.802   8.214 -0.1525 -0.1463 -0.0710
65823W        W 8736   6.027  20.699   5.965 -0.0559  0.0972 -0.1449
65824W        W 8737   8.947   1.516  12.461  0.0244 -0.0910  0.0918
65825W        W 8738   3.605   1.833   1.715 -0.0478  0.3904  0.1503
65826W        W 8739   1.696  32.643   1.612  0.0592 -0.4601 -0.1843
65827W        W 8740   0.743   2.580   6.912  0.1709  0.3495  0.0924
65828W        W 8741   1.364  10.378  11.343 -0.1539  0.1878  0.2209
65829W        W 8742   4.779   5.602  27.575 -0.0868 -0.2289 -0.1517
65830W        W 8743   5.828  25.763  10.849 -0.0397 -0.0735 -0.0036
65831W        W 8744  33.114  32.033   7.744  0.1748 -0.2447 -0.3775
65832W        W 8745   2.445  11.672  28.257 -0.2242 -0.0365  0.2049
65833W        W 8746   5.584  34.436   2.278 -0.0730 -0.4748  0.0724
65834W        W 8747   2.511   3.536   0.885 -0.2565 -0.1163 -0.0483
65835W        W 8748   7.887  30.502  11.146  0.2804 -0.0929 -0.1923
65836W        W 8749   2.595   1.151   0.350 -0.2390 -0.1216  0.4310
65837W        W 8750  30.321   0.935   9.667 -0.1160 -0.1007 -0.1056
65838W        W 8751   1.825   3.948   3.694 -0.1635  0.0215 -0.1844
65839W        W 8752  24.078  33.368   6.441 -0.1129  0.0183 -0.2527
65840W        W 8753  30.477  32.620  10.245 -0.0701 -0.2335 -0.0147
65841W        W 8754  34.036  11.062   4.009  0.2444  0.1823 -0.1112
65842W        W 8755  28.733   7.563   3.958 -0.3416  0.2187 -0.1219
65843W        W 8756   0.017  12.241   8.763 -0.0902 -0.1543 -0.2437
65844W        W 8757  25.788   0.144  27.401 -0.2496  0.0928  0.0981
65845W        W 8758   1.706   6.125   5.359 -0.0716 -0.0136 -0.1009
65846W        W 8759  32.984   6.752  25.867  0.1274  0.2658 -0.0028
65847W        W 8760   3.149   4.656   6.534  0.1175  0.2064 -0.1543
65848W        W 8761   2.559  30.524   5.140  0.0793 -0.0364 -0.0773
65849W        W 8762   6.921  33.590  28.924 -0.1061 -0.1077 -0.0932
65850W        W 8763  30.047   1.822   5.338 -0.2401 -0.1956  0.2545
65851W        W 8764   0.524   4.817   6.645 -0.0136 -0.0104 -0.0504
65852W        W 8765   9.283   6.244   7.067  0.2942  0.1948  0.1627
65853W        W 8766  21.570   3.207   6.665  0.1406 -0.0809 -0.1574
65854W        W 8767  32.520  22.153  25.377  0.4928  0.1460 -0.0404
65855W        W 8768   5.916   7.144  13.677 -0.0530 -0.1596  0.1343
65856W        W 8769   0.230  13.970  29.278  0.0713  0.1265 -0.2435
65857W        W 8770  34.095   2.955  10.305  0.2572 -0.0393  0.0303
65858W        W 8771   0.942  12.451   8.548  0.0191 -0.0217  0.2416
65859W        W 8772  33.286  28.880   5.610 -0.1770  0.1320 -0.0026
65860W        W 8773  32.378  28.536   1.775  0.0337 -0.3473 -0.0369
65861W        W 8774  34.390   8.004  28.684  0.1011  0.2754 -0.2564
65862W        W 8775   2.379  11.874  25.888 -0.0259  0.1485  0.1732
65863W        W 8776   1.568  33.041   9.580  0.2858 -0.1711  0.1414
65864W        W 8777   6.073  32.421   5.535 -0.0747 -0.1946 -0.1592
65865W        W 8778   5.655  25.149  28.803  0.0866  0.1277 -0.1876
65866W        W 8779   9.708   7.424   6.140 -0.0857 -0.2215  0.1340
65867W        W 8780   1.309  27.814   0.780 -0.1594  0.2064  0.0680
65868W        W 8781   5.620   3.976  11.113  0.3323  0.0332  0.1455
65869W        W 8782  31.655   4.441  10.366 -0.1144  0.3016 -0.1409
65870W        W 8783   4.293  33.519   1.834  0.2314  0.2089  0.2727
65871W        W 8784  32.591  32.353  23.917  0.0971  0.0310  0.1025
65872W        W 8785   9.751  33.388  11.770  0.1235  0.1314  0.1721
65873W        W 8786   7.912   4.840   6.849  0.2852 -0.1084 -0.0807
65874W        W 8787   0.580   0.049   2.780  0.1537 -0.0053  0.2386
65875W        W 8788  33.697  34.083   6.297 -0.0642 -0.0679  0.1944
65876W        W 8789  12.600   2.034   2.216 -0.0403 -0.1700 -0.0079
65877W        W 8790   0.518  30.454   7.220 -0.0196 -0.1295  0.0606
65878W        W 8791   1.921   5.393  11.500  0.2096 -0.1502  0.1850
65879W        W 8792  11.427  27.349   1.528  0.2167  0.1513  0.3712
65880W        W 8793   2.178  32.036  20.129  0.1446  0.1625  0.1245
65881W        W 8794   5.711  15.255   1.830  0.3137 -0.2012  0.2599
65882W        W 8795   6.948  32.879  11.765 -0.0119  0.0387  0.2056
65883W        W 8796   1.913  25.190   8.997 -0.0316  0.1352  0.0572
65884W        W 8797  11.318  28.329   1.782 -0.2170 -0.2096 -0.2492
65885W        W 8798   4.161   7.913  27.139  0.2367 -0.1002  0.1849
65886W        W 8799  15.035  29.663   9.219  0.3236  0.0365  0.2110
65887W        W 8800   9.561  23.285  28.712 -0.2166 -0.0630  0.1966
65888W        W 8801   3.328   8.735  29.389 -0.2960 -0.0137  0.0635
65889W        W 8802  27.976   2.377   6.737 -0.1555  0.0974 -0.1490
65890W        W 8803  11.431  12.776   9.837  0.1047  0.1541  0.1022
65891W        W 8804   5.350  34.413  25.926  0.1052  0.1523 -0.2346
65892W        W 8805   6.036  29.819   6.651 -0.0296  0.0587  0.1600
65893W        W 8806   1.123  26.955   9.131 -0.1267  0.0906 -0.0966
65894W        W 8807   6.331   0.621  10.634  0.1663 -0.1183 -0.1435
65895W        W 8808   6.435   8.587   2.563 -0.1302  0.3431  0.1133
65896W        W 8809   8.808   3.937  10.598  0.4690 -0.0892  0.2203
65897W        W 8810   2.257  32.817   3.943 -0.2612 -0.0343  0.3619
65898W        W 8811  10.847  29.325  29.493  0.3577  0.0059 -0.1183
65899W        W 8812  34.373   6.094   6.641  0.0157 -0.0845 -0.2954
65900W        W 8813  28.201  32.423   6.808 -0.0674 -0.0526 -0.1169
65901W        W 8814  28.912  33.281  26.570 -0.3897 -0.0671 -0.2286
65902W        W 8815  10.324   1.176  28.291  0.0388  0.1110  0.0626
65903W        W 8816   6.815  31.424  24.243  0.0290  0.0057  0.2820
65904W        W 8817   4.502  24.822   5.497  0.1182  0.3118  0.1177
65905W        W 8818  33.318  32.243   3.800  0.0055  0.1649  0.2099
65906W        W 8819   1.463   3.840   5.153  0.3172  0.0985 -0.2003
65907W        W 8820   3.000  31.330   4.645 -0.0481  0.0641  0.0859
65908W        W 8821   5.805   2.783   6.346 -0.0684 -0.4666 -0.0607
65909W        W 8822   5.583  11.223  28.593  0.3343 -0.0733 -0.0751
65910W        W 8823  34.357  33.069   8.880 -0.0496  0.2405 -0.0475
65911W        W 8824  12.619  28.318  10.884  0.1246 -0.1035 -0.0345
65912W        W 8825  32.747  24.333   6.248  0.0105  0.4562  0.2761
65913W        W 8826   2.714  20.819   7.266  0.0236  0.0427  0.1116
65914W        W 8827   0.280  32.100   2.986  0.0281  0.1507  0.1500
65915W        W 8828   2.368  22.276   0.627  0.1110 -0.1295  0.1916
65916W        W 8829  30.750   6.572   9.328  0.0481  0.0999 -0.4631
65917W        W 8830  32.885  13.167   6.897  0.0991 -0.0125 -0.0836
65918W        W 8831   4.369   1.778  11.240  0.2894 -0.0398 -0.5455
65919W        W 8832   2.851  27.731   6.274  0.0593  0.1954 -0.4313
65920W        W 8833   0.139   2.678  22.642 -0.1577  0.0619 -0.0837
65921W        W 8834   0.520   5.493  22.171 -0.0909  0.3493  0.0019
65922W        W 8835   4.340  31.916  11.169  0.1407  0.0301  0.1895
65923W        W 8836   4.656  22.098   4.620  0.0949 -0.0373  0.1403
65924W        W 8837   2.486  27.303   7.502  0.1758 -0.0617  0.0181
65925W        W 8838   7.219  16.707   5.934 -0.1605  0.1858 -0.3369
65926W        W 8839   1.343  29.332  23.401 -0.4124  0.0378 -0.3588
65927W        W 8840   6.314   5.606   6.305 -0.0522  0.1189  0.1594
65928W        W 8841  10.183  27.996   9.397 -0.0255 -0.1175 -0.0661
65929W        W 8842  29.457  34.235   3.367  0.1765  0.2817  0.2609
65930W        W 8843   3.202  10.353   1.905  0.3511 -0.1921 -0.0341
65931W        W 8844   5.909  34.338  12.671  0.0071 -0.1658  0.2532
65932W        W 8845  27.037   0.085  29.529  0.3836  0.2010  0.0384
65933W        W 8846   4.426   2.443  28.271 -0.0184  0.0399 -0.0572
65934W        W 8847  30.623  28.414   8.616  0.0384  0.0926  0.1412
65935W        W 8848   2.217  32.354   3.131  0.3912  0.1588  0.4165
65936W        W 8849   6.806   7.170   3.681  0.0850 -0.3812  0.3107
65937W        W 8850  32.363  10.005   2.046  0.0614 -0.2480  0.1349
65938W        W 8851   8.704   5.502  10.925  0.5514  0.1569 -0.0268
65939W        W 8852   2.711  29.952   3.990  0.1680 -0.0833 -0.0058
65940W        W 8853   8.592   8.473   1.470  0.1088 -0.3039  0.0055
65941W        W 8854   6.850   6.995  12.719 -0.1184 -0.2087 -0.0561
65942W        W 8855  34.393   0.842   7.564 -0.0493 -0.2470  0.1326
65943W        W 8856  28.195  32.778   9.720 -0.0899 -0.0227 -0.0711
65944W        W 8857  11.955  27.448   0.818  0.0722  0.3099 -0.2014
65945W        W 8858  10.733   5.365  12.168 -0.0230  0.3215 -0.1615
65946W        W 8859  31.720  30.299   5.857 -0.0075 -0.2489 -0.1092
65947W        W 8860  31.704  21.545   6.355 -0.2144  0.0174 -0.0220
65948W        W 8861  25.607  32.414   3.998  0.0981  0.1088  0.0652
65949W        W 8862  30.942  21.767   2.702 -0.1732  0.3419  0.0327
65950W        W 8863  33.235  24.473   9.998 -0.3496  0.1252  0.0176
65951W        W 8864   6.655  30.979   4.608 -0.0879 -0.1994  0.2084
65952W        W 8865   5.573   4.126   6.966 -0.2009 -0.1312  0.0458
65953W        W 8866  34.167   3.865   7.732  0.2853 -0.1359 -0.1463
65954W        W 8867   2.972  33.334   9.248 -0.0881  0.2915 -0.0809
65955W        W 8868   4.860   3.030  10.765  0.0853 -0.0433  0.0534
65956W        W 8869   7.599  32.228  11.124 -0.1967  0.1115 -0.0139
65957W        W 8870   3.937   0.036   1.046  0.0959 -0.0760  0.0302
65958W        W 8871   8.333  32.286  29.427  0.0197 -0.0389  0.0474
65959W        W 8872   1.003  32.419  10.311  0.1375  0.0084 -0.1278
65960W        W 8873   6.815   4.042   5.021 -0.0284 -0.1475  0.2459
65961W        W 8874   9.585   1.000  10.403  0.0880  0.2206 -0.0789
65962W        W 8875  32.899   6.681   2.917  0.1233  0.0637 -0.0457
65963W        W 8876  10.582  32.667  12.278 -0.1535  0.2162 -0.2089
65964W        W 8877   3.275  12.725   6.846 -0.1890 -0.2223 -0.0674
65965W        W 8878  10.511   7.817   3.751 -0.1581  0.1769  0.0456
65966W        W 8879   4.609  34.479   8.474 -0.0509 -0.2444  0.2247
65967W        W 8880   9.150  27.850   8.932  0.1892  0.3456  0.1064
65968W        W 8881   7.370  11.496  10.572 -0.4157 -0.2938 -0.1860
65969W        W 8882  29.049  31.650   7.046 -0.0232 -0.0610  0.0253
65970W        W 8883  33.933   4.160  11.427  0.0197  0.2032 -0.1498
65971W        W 8884  34.277  11.153  10.724  0.0846  0.0816  0.1235
65972W        W 8885   4.424   9.953   5.179 -0.3158 -0.2117  0.1220
65973W        W 8886  32.362  10.745  10.316  0.3854  0.0863 -0.3390
65974W        W 8887   4.305  25.276   5.735  0.0132  0.0455 -0.2261
65975W        W 8888   2.829  30.392  28.528 -0.0889 -0.2792  0.0645
65976W        W 8889  30.445   9.222  10.543  0.1310 -0.1521 -0.1741
65977W        W 8890   4.155  33.092   8.929 -0.0520  0.0456 -0.0047
65978W        W 8891   5.874  33.885   0.886  0.0283  0.1698 -0.1200
65979W        W 8892  30.828  32.898   6.450  0.2206 -0.1490  0.1951
65980W        W 8893   8.352   5.324   2.550  0.1144  0.2288 -0.1121
65981W        W 8894   2.818   6.694  24.509  0.1317 -0.1097  0.0058
65982W        W 8895   7.792   4.912   4.940 -0.0656 -0.2669 -0.1570
65983W        W 8896  33.199   6.252   9.160 -0.2173 -0.1259  0.3252
65984W        W 8897  26.778  27.406   2.132  0.3399 -0.3556  0.1193
65985W        W 8898   4.619   1.327   6.581  0.1034 -0.2600 -0.0126
65986W        W 8899   4.591   2.049   2.932 -0.1207 -0.1021 -0.1030
65987W        W 8900   3.721   1.998  11.797 -0.0737 -0.2273  0.1438
65988W        W 8901  26.405  27.390  24.731 -0.1107  0.0665  0.0810
65989W        W 8902   1.570   8.999   6.260  0.0400  0.1546  0.5721
65990W        W 8903   7.493   7.097   9.664 -0.0188  0.0647 -0.1559
65991W        W 8904   4.907   0.896   6.218  0.0090 -0.0589  0.0546
65992W        W 8905   9.099  31.358   8.983  0.2201 -0.3451  0.2340
65993W        W 8906   6.662   7.390   9.242 -0.3477  0.0855 -0.1122
65994W        W 8907   9.791  30.187  10.010 -0.0771 -0.1146  0.1982
65995W        W 8908   4.250   4.121  12.316  0.0353  0.0828 -0.3249
65996W        W 8909  21.856  27.144   4.705 -0.0430 -0.0946 -0.0227
65997W        W 8910  24.032  28.055  29.058 -0.0645 -0.0033 -0.0662
65998W        W 8911   7.661  23.305   3.501  0.1156 -0.1329 -0.0706
65999W        W 8912   8.759  25.703   4.946  0.1723  0.1515  0.1489
66000W        W 8913   3.694  27.307   0.528  0.1009 -0.1506  0.0408
66001W        W 8914  32.104  22.025   3.815  0.1275 -0.1292 -0.0067
66002W        W 8915   8.985   8.546   4.076 -0.0121 -0.0204  0.2554
66003W        W 8916   4.824  16.720   7.735 -0.2720 -0.0970  0.3583
66004W        W 8917  33.230   2.715   8.934 -0.3047 -0.0705  0.2394
66005W        W 8918   0.295   2.964   6.765 -0.0431 -0.0695 -0.0995
66006W        W 8919   9.862   4.875   6.754  0.0466  0.0836  0.1289
66007W        W 8920   7.459  34.328   9.938  0.1020 -0.2397 -0.3154
66008W        W 8921  30.014  33.507   9.748 -0.4147 -0.0802  0.1330
66009W        W 8922   0.851   8.881   8.083 -0.1710 -0.0517  0.0855
66010W        W 8923  10.680  30.301   8.566 -0.5073  0.1877 -0.0588
66011W        W 8924   2.534   5.108   8.535 -0.2064 -0.0584  0.3323
66012W        W 8925   4.897  34.062   7.163  0.0146  0.2060 -0.0705
66013W        W 8926   1.069  26.294  26.616  0.0250 -0.0454 -0.2057
66014W        W 8927   7.586   2.205  11.061  0.2838  0.2961 -0.1737
66015W        W 8928   2.748  27.868   3.468  0.1264 -0.0104 -0.0049
66016W        W 8929  11.688  28.855   7.821  0.0930 -0.0514  0.1176
66017W        W 8930   1.911   7.682  25.967  0.2337  0.0292 -0.0343
66018W        W 8931  28.770   7.683   7.854  0.2493  0.0466 -0.2176
66019W        W 8932  10.414  32.968  10.588  0.1204  0.2865  0.0262
66020W        W 8933  34.222   1.412  11.650  0.1779 -0.2975  0.1948
66021W        W 8934   0.720   1.152  29.327 -0.2127 -0.0250  0.0815
66022W        W 8935  12.409  14.614   5.058 -0.1878  0.1795  0.1807
66023W        W 8936   0.002   3.881  10.779  0.1565  0.2461  0.1189
66024W        W 8937   0.324   8.566   0.389  0.2326 -0.2259  0.0247
66025W        W 8938   6.425  29.655   7.293  0.2656 -0.1819 -0.1711
66026W        W 8939  13.974   0.609   8.897  0.2785 -0.0754 -0.2103
66027W        W 8940  29.077  24.168   7.284  0.0210  0.2761  0.0722
66028W        W 8941  12.976   2.099   6.464  0.3006  0.3548 -0.1673
66029W        W 8942   5.371   3.357   9.044  0.0466 -0.1194  0.2237
66030W        W 8943  26.486   0.928   6.498 -0.1088  0.0171 -0.1602
66031W        W 8944   6.647   6.712  11.322  0.2178 -0.2268 -0.0637
66032W        W 8945   5.307  32.406   8.621  0.0589  0.3943  0.0120
66033W        W 8946  33.525   3.015   7.737 -0.3192 -0.1005  0.1694
66034W        W 8947  33.823  22.349   2.529  0.3550 -0.0684 -0.1290
66035W        W 8948  32.282  11.679   5.650 -0.1738  0.0075 -0.2175
66036W        W 8949   6.348   0.096  11.795 -0.1053  0.0821 -0.2203
66037W        W 8950   2.087   1.635  29.475 -0.1326 -0.0792 -0.1491
66038W        W 8951   9.543   2.390   5.442 -0.0369  0.0224  0.2612
66039W        W 8952   5.707  10.865  10.890 -0.0912 -0.1388 -0.2405
66040W        W 8953   7.631   2.892   6.830  0.0513 -0.0044 -0.1478
66041W        W 8954   0.623  30.865   8.568 -0.2660  0.0843 -0.0816
66042W        W 8955   6.811   1.950   6.215 -0.0476  0.1689 -0.2385
66043W        W 8956  13.737  30.692   7.457 -0.2253 -0.1527 -0.1481
66044W        W 8957   4.898  30.854   6.441  0.0263  0.0108 -0.0763
66045W        W 8958   5.265  12.448   7.940 -0.1220 -0.0962  0.0421
66046W        W 8959   5.987  29.028   4.545  0.1364  0.1178  0.1363
66047W        W 8960   7.327  25.101  26.107 -0.0408  0.0761 -0.2124
66048W        W 8961   2.737   7.833  11.539 -0.0720 -0.2098  0.0151
66049W        W 8962   3.252   2.633   9.663  0.1347  0.3689  0.4779
66050W        W 8963  13.333   4.717  10.636 -0.0802  0.1262 -0.2980
66051W        W 8964  30.945  28.446  10.473  0.1553 -0.0718 -0.0695
66052W        W 8965  33.407   1.299  10.593  0.2335 -0.0470 -0.0788
66053W        W 8966   2.307   2.040  10.610 -0.2063 -0.2687 -0.3204
66054W        W 8967  34.176   6.756   9.745  0.1394 -0.2566 -0.2276
66055W        W 8968   6.037  33.118  29.055 -0.0454  0.3068 -0.2098
66056W        W 8969   5.439   2.737   9.076  0.0292 -0.0007 -0.3032
66057W        W 8970   6.280   0.187  12.805  0.1865  0.2856  0.0724
66058W        W 8971   0.171  33.348   2.755  0.0278 -0.1332  0.0036
66059W        W 8972   9.469  15.872   9.187  0.0573 -0.2623  0.2629
66060W        W 8973   2.060   4.118  10.957  0.2014  0.2215 -0.1118
66061W        W 8974   2.669  32.607  29.406  0.0314 -0.0953 -0.0769
66062W        W 8975   3.419  28.428   4.017  0.0665  0.0230  0.1887
66063W        W 8976   3.696   0.253   0.102 -0.0571  0.5051  0.0992
66064W        W 8977   2.827  30.885   6.467 -0.0003 -0.1263 -0.0620
66065W        W 8978  34.396   2.230   4.578  0.1606 -0.1718  0.2811
66066W        W 8979   8.077  30.735  12.285  0.0481 -0.1115  0.1174
66067W        W 8980  23.132   3.360   3.757 -0.0236  0.1864 -0.0652
66068W        W 8981   6.740   9.387  11.903  0.0336  0.0151  0.0596
66069W        W 8982   9.547  32.312  26.367 -0.1405  0.3188  0.0008
66070W        W 8983   4.187  31.467   5.653 -0.1397  0.1840 -0.2034
66071W        W 8984  24.130  25.713   4.001  0.0033  0.2632 -0.3025
66072W        W 8985  33.519  30.079   4.912  0.0218  0.0392 -0.1334
66073W        W 8986  13.807   2.990   3.085  0.1374  0.5073  0.3228
66074W        W 8987  14.066  33.061   9.739 -0.1634 -0.3531  0.0995
66075W        W 8988  17.402  11.404   7.238  0.0178  0.2549  0.1452
66076W        W 8989  30.965  32.522   9.300 -0.0462  0.1055  0.2691
66077W        W 8990   0.044   2.921   5.473  0.1319 -0.0463  0.0737
66078W        W 8991   3.776  34.183   7.770 -0.0621  0.3707  0.0592
66079W        W 8992   8.902   0.156  10.749  0.5356 -0.0066  0.2103
66080W        W 8993   7.916  30.238   3.163  0.0306  0.1266  0.3462
66081W        W 8994   9.374   9.654  12.109 -0.3464 -0.1186 -0.1139
66082W        W 8995   4.437  29.160  10.350  0.0417 -0.2352  0.1652
66083W        W 8996  29.590  29.621   6.504 -0.2559 -0.2719 -0.1893
66084W        W 8997   9.545  28.834  28.826  0.0310 -0.1977 -0.4345
66085W        W 8998  20.438  34.320   8.106  0.0127 -0.3154 -0.1948
66086W        W 8999   5.161  12.117   3.631  0.1622  0.3191 -0.2715
66087W        W 9000   6.365   3.360   8.001  0.0677  0.0736 -0.0013
66088W        W 9001   4.443   3.398   1.328 -0.0454 -0.0659 -0.0239
66089W        W 9002  28.956  12.336   7.145 -0.0363  0.0148  0.1195
66090W        W 9003  28.320  34.414   8.122  0.1098 -0.1186  0.4349
66091W        W 9004   5.382  32.407   7.862  0.2918 -0.2825 -0.2847
66092W        W 9005  30.134   8.866   0.773 -0.1936  0.2906  0.0356
66093W        W 9006   3.622  10.362  28.807  0.1526 -0.1276 -0.2994
66094W        W 9007   4.731  27.013   8.016  0.1284  0.0745  0.0875
66095W        W 9008  30.756  33.454  27.452 -0.0675  0.1664 -0.2267
66096W        W 9009   2.228  10.381  27.709 -0.1246  0.0116 -0.2697
66097W        W 9010  28.242  25.160   3.998  0.0071  0.0192 -0.2338
66098W        W 9011  32.771  28.776   6.707  0.1128  0.0686 -0.2885
66099W        W 9012   2.896  31.995   5.082  0.1945  0.1124 -0.0102
66100W        W 9013   7.695   7.895   8.414 -0.0823 -0.2183 -0.1013
66101W        W 9014  10.846  29.053   4.631 -0.0742  0.0008 -0.0463
66102W        W 9015  11.170  33.669   7.927  0.0601 -0.0948  0.0143
66103W        W 9016   3.266  33.886  22.928  0.0381 -0.1236 -0.0995
66104W        W 9017   4.523   4.259   0.719 -0.1299 -0.0476  0.0290
66105W        W 9018   2.275  12.073   6.029 -0.0793  0.3883  0.4508
66106W        W 9019   7.508  31.412   4.137 -0.3475 -0.0630 -0.1050
66107W        W 9020   8.720  33.856  11.762 -0.2105 -0.1615 -0.1358
66108W        W 9021  33.959   3.007  10.800  0.3456 -0.2100  0.1931
66109W        W 9022   7.366  26.575   4.509  0.3793 -0.0196 -0.3775
66110W        W 9023  11.911  27.336  11.294 -0.4140  0.3344  0.2093
66111W        W 9024  30.769  11.068  29.654  0.1309  0.0751  0.0543
66112W        W 9025  13.119   4.302   2.119  0.0380  0.3548 -0.5346
66113W        W 9026   0.411   3.654  23.593  0.1363 -0.1084 -0.1595
66114W        W 9027   7.649  34.188  19.536 -0.2899 -0.0313  0.3177
66115W        W 9028  13.335   1.151  25.544 -0.4836 -0.0208 -0.2363
66116W        W 9029  10.390   5.972  17.987  0.0273 -0.1058 -0.1746
66117W        W 9030  31.133  13.400   9.992 -0.0894  0.1015 -0.1108
66118W        W 9031  12.853  12.284  18.891 -0.0753 -0.2115 -0.0115
66119W        W 9032  31.745  26.465   8.760 -0.1842  0.0863 -0.3356
66120W        W 9033   4.966   0.778   3.303 -0.0067 -0.1297  0.2237
66121W        W 9034   0.514  11.304   6.809 -0.0633  0.1633  0.1077
66122W        W 9035  33.235  28.304  23.470  0.2393 -0.0393 -0.1120
66123W        W 9036  34.362   0.361  27.973  0.0141 -0.1873  0.1612
66124W        W 9037  13.217  33.461   0.299  0.1510  0.3847  0.1216
66125W        W 9038   2.828  26.994  26.191 -0.0092  0.3941  0.3781
66126W        W 9039   2.504   6.360   0.013 -0.0865 -0.1001 -0.1719
66127W        W 9040   7.561   7.304  27.744  0.6167  0.1147  0.0920
66128W        W 9041  28.200   5.891   4.439 -0.1467 -0.2790  0.2170
66129W        W 9042   2.381   2.898   8.602  0.0879 -0.0761  0.0168
66130W        W 9043  10.489   2.609  28.129 -0.4039 -0.1610  0.0245
66131W        W 9044  33.945   3.067  26.221  0.3539  0.1374  0.2231
66132W        W 9045  11.302  33.761   1.634 -0.3320 -0.1833  0.1861
66133W        W 9046  13.583   1.593  27.077  0.0686 -0.3016 -0.1392
66134W        W 9047  16.102   3.067   9.783  0.0616 -0.1739  0.1381
66135W        W 9048   5.772   0.701  24.637  0.0987  0.1097  0.1096
66136W        W 9049   0.029   7.376  19.673  0.0368 -0.1612  0.0531
66137W        W 9050   6.813  29.659  25.225  0.0062 -0.0582 -0.0319
66138W        W 9051  33.503  30.350  19.503  0.2330 -0.1130 -0.1667
66139W        W 9052   0.655  14.280  16.190 -0.2218  0.2180 -0.1109
66140W        W 9053  33.275   8.254   2.899 -0.0292  0.0499  0.2868
66141W        W 9054  15.081   2.108   1.729  0.2391 -0.1911  0.2806
66142W        W 9055   7.501   3.102   1.751  0.0824 -0.0644 -0.2608
66143W        W 9056  32.920   5.800  22.093 -0.0443  0.0503 -0.1946
66144W        W 9057  14.743   2.300  25.232 -0.1606  0.2490  0.3610
66145W        W 9058   5.689   0.064  26.487 -0.1912  0.3704 -0.1376
66146W        W 9059   5.945   3.063  23.884  0.3096  0.0632 -0.1470
66147W        W 9060   1.537  12.473  21.586  0.0750 -0.0964  0.1120
66148W        W 9061  28.803  15.814  20.606 -0.1241 -0.2317 -0.1891
66149W        W 9062   3.625   0.177   1.709  0.3550  0.0890 -0.1325
66150W        W 9063  30.634   3.357   4.539  0.0055  0.1248 -0.1049
66151W        W 9064   7.395  11.505   4.960 -0.2146  0.0796 -0.0941
66152W        W 9065  12.784  25.535   1.257 -0.0244 -0.0596  0.1440
66153W        W 9066   3.779  31.456  24.044 -0.0477 -0.0369  0.3264
66154W        W 9067  30.455  24.412   4.743 -0.2253  0.4240  0.1562
66155W        W 9068  10.728  32.567  28.630  0.0079 -0.3746  0.0539
66156W        W 9069   5.679  14.600   8.627 -0.2278  0.2060  0.3422
66157W        W 9070  29.837   9.036  26.941  0.1143 -0.1316 -0.1354
66158W        W 9071  13.406  33.260   7.972 -0.0422  0.1057 -0.2076
66159W        W 9072  10.668  31.600   8.351  0.0554  0.1947 -0.0210
66160W        W 9073  31.495   9.281  24.535 -0.2366  0.1318 -0.2080
66161W        W 9074   6.602  32.550  28.436 -0.1142  0.2990 -0.2489
66162W        W 9075   9.536   2.206   4.508 -0.0751 -0.0614 -0.2129
66163W        W 9076   7.469  22.678  24.319 -0.1165 -0.0036 -0.4110
66164W        W 9077   0.753   4.678   5.869  0.2546  0.1016 -0.1496
66165W        W 9078   2.890  22.482  25.620  0.1640 -0.2409 -0.1242
66166W        W 9079  22.529   6.536   0.864  0.2536  0.1733  0.2183
66167W        W 9080  10.791   2.256  25.298 -0.0349  0.2114  0.0188
66168W        W 9081  33.575   1.123  11.442 -0.1094  0.3758 -0.1173
66169W        W 9082  12.184   1.997   2.781 -0.0247 -0.2664  0.1231
66170W        W 9083   0.928  13.041   1.431  0.1802 -0.0036  0.2143
66171W        W 9084  31.435  26.502   4.155 -0.2944  0.0091 -0.1803
66172W        W 9085   0.256  10.890   2.043  0.0684 -0.1168 -0.3021
66173W        W 9086  10.898  11.357  27.537  0.0207  0.0552 -0.1939
66174W        W 9087  29.853   9.638   8.096 -0.2502  0.2397  0.0207
66175W        W 9088   3.922  27.252   9.636 -0.1050  0.1219 -0.1306
66176W        W 9089   2.232   1.532  26.760  0.3389  0.3843  0.2062
66177W        W 9090  31.379  30.598   6.190 -0.2511 -0.1829  0.1205
66178W        W 9091   9.468   8.560   3.909 -0.4384  0.1948  0.0906
66179W        W 9092   4.136   2.163   1.602 -0.1433 -0.4112 -0.2564
66180W        W 9093  16.713  29.515   0.752  0.3277 -0.0852 -0.0561
66181W        W 9094   9.255  27.192  10.145 -0.3416  0.0454 -0.1261
66182W        W 9095   4.322  18.685   0.976 -0.1471 -0.0247 -0.0781
66183W        W 9096  16.932  33.139  24.893 -0.0498  0.0316  0.0760
66184W        W 9097  10.174  29.739   0.457 -0.0406  0.1089  0.2868
66185W        W 9098   9.523   5.785  12.822 -0.0170 -0.0420  0.0757
66186W        W 9099  31.818   8.489  24.570  0.1036  0.0559  0.0826
66187W        W 9100  29.365  33.618  25.688  0.1601 -0.2951  0.1917
66188W        W 9101   5.165   6.638   9.999  0.0984  0.0640  0.0214
66189W        W 9102   9.507   2.509  29.633  0.2357 -0.1106 -0.2068
66190W        W 9103   0.452   5.403   2.561  0.2592  0.0674 -0.0469
66191W        W 9104  32.367   6.512   6.217  0.1485  0.0995  0.0074
66192W        W 9105  28.901   7.754   6.163 -0.1294  0.2224 -0.3449
66193W        W 9106   2.146  31.575   8.501 -0.2732 -0.4577  0.2426
66194W        W 9107   5.947   4.137   0.465  0.0812  0.1896 -0.1349
66195W        W 9108   8.512  13.665   2.034 -0.1616  0.3335 -0.1527
66196W        W 9109  31.314   4.609  28.426  0.1313 -0.1688 -0.0609
66197W        W 9110  34.075   6.418  17.410  0.0805  0.3433  0.2843
66198W        W 9111  14.422  25.318  28.289  0.0539 -0.1838 -0.3350
66199W        W 9112   4.527   1.567  26.964  0.1687 -0.0437  0.1392
66200W        W 9113  29.937  23.838   9.564 -0.2090 -0.0465  0.1011
66201W        W 9114   5.059   8.451  26.352  0.0619  0.0081  0.1576
66202W        W 9115  11.020   1.296   2.916  0.1058  0.2762 -0.0293
66203W        W 9116  10.772   5.724  11.092 -0.1063 -0.1107  0.0749
66204W        W 9117   4.922  32.942   4.121 -0.3222 -0.0778  0.0131
66205W        W 9118   1.961   7.361  28.147  0.0252 -0.0326 -0.0562
66206W        W 9119   9.324   1.762  29.084 -0.2083  0.0549 -0.1358
66207W        W 9120  10.780   5.881   1.983  0.0738  0.0625  0.1572
66208W        W 9121   5.345   0.517   5.577 -0.0910  0.0492  0.2640
66209W        W 9122   5.640  11.072   5.804 -0.2910  0.1418 -0.0824
66210W        W 9123  12.004   4.186  28.695 -0.0425 -0.0984  0.0558
66211W        W 9124  10.333   1.848   7.287 -0.0324  0.0550 -0.0918
66212W        W 9125   2.159   6.916  24.286  0.0558 -0.2484  0.1218
66213W        W 9126  16.139  31.784  19.531  0.3498  0.2580  0.0873
66214W        W 9127   1.301  29.110  28.360  0.0437  0.0091  0.0231
66215W        W 9128   9.546  28.342  28.537  0.1935 -0.1461  0.0375
66216W        W 9129  14.354  30.301  24.937  0.1958  0.2504  0.2424
66217W        W 9130   7.231   4.981   0.280 -0.2240 -0.2511  0.3292
66218W        W 9131   1.396   1.123  11.273  0.0912 -0.0762  0.1115
66219W        W 9132   3.704  27.134  28.559  0.1916 -0.1346 -0.0902
66220W        W 9133  33.852  10.871   2.938 -0.0381  0.2045 -0.1028
66221W        W 9134   3.429  24.969  22.215  0.1174 -0.1051  0.2084
66222W        W 9135  30.096   9.760   9.140  0.1342  0.1755  0.1031
66223W        W 9136   5.624   4.144   2.985  0.2907  0.0598  0.0265
66224W        W 9137   3.812  26.364  18.577 -0.0445 -0.4180  0.3718
66225W        W 9138   7.727  25.860   6.725  0.1784  0.3045  0.2322
66226W        W 9139  14.253  26.332   9.931 -0.1282  0.0039 -0.3569
66227W        W 9140   7.634  28.236  27.129 -0.1338 -0.0993 -0.1039
66228W        W 9141   7.097   5.445   0.740 -0.3318  0.0313 -0.2870
66229W        W 9142   9.910  31.494   2.616 -0.2078 -0.3707 -0.3206
66230W        W 9143   2.760   4.910  11.344  0.0557 -0.3488 -0.0944
66231W        W 9144   4.894   1.765   6.788 -0.1440 -0.0132 -0.1134
66232W        W 9145   9.892  33.337   3.030 -0.0770  0.4291 -0.1106
66233W        W 9146  15.870   1.552   5.836  0.0257 -0.0711  0.2575
66234W        W 9147  34.183   3.277   5.507  0.2062  0.2764 -0.0853
66235W        W 9148   0.335   2.822  26.184  0.1241 -0.1322 -0.0584
66236W        W 9149   9.959   0.234  23.195 -0.0927 -0.1126 -0.1985
66237W        W 9150  34.122  28.151  29.476 -0.2154  0.1430 -0.2174
66238W        W 9151  28.096   4.222   4.768  0.2534  0.0735  0.0365
66239W        W 9152  14.463   4.157   9.060 -0.0487  0.1547  0.1408
66240W        W 9153   5.938  30.490   5.571  0.0984  0.1416  0.0020
66241W        W 9154   4.913   3.964   3.604 -0.3266 -0.0830 -0.0733
66242W        W 9155  13.695  31.781   3.094 -0.0198 -0.1774 -0.0545
66243W        W 9156  33.001   4.197   6.771  0.1174 -0.1168 -0.1664
66244W        W 9157   4.067   0.442   0.775  0.2374  0.1919 -0.1377
66245W        W 9158   5.200  13.279  28.133  0.1171 -0.3099  0.2773
66246W        W 9159  16.769   7.582   7.430  0.0433  0.1901 -0.0227
66247W        W 9160   6.509   6.384   0.575  0.4202  0.1140  0.3070
66248W        W 9161  12.809   2.500   7.364 -0.0257  0.0402  0.1026
66249W        W 9162  33.683  13.126   0.103  0.1334 -0.1437 -0.0105
66250W        W 9163  32.680  15.228   5.406  0.1030 -0.0303 -0.1247
66251W        W 9164   8.902   1.910   2.724 -0.0235 -0.1865  0.1501
66252W        W 9165   6.163   3.533  12.474  0.0625  0.0597  0.0924
66253W        W 9166   8.742   4.059  26.618 -0.1837  0.2688  0.1544
66254W        W 9167  33.756   3.560   3.436  0.0013 -0.1410  0.0308
66255W        W 9168  15.216   5.877   3.736 -0.4725  0.1418  0.0468
66256W        W 9169  27.352   7.589  23.935 -0.1142  0.0555 -0.1088
66257W        W 9170  12.048  13.095   1.314 -0.2682  0.1437 -0.2711
66258W        W 9171   2.189   2.558  26.314 -0.2126 -0.0985  0.0307
66259W        W 9172   0.518  30.117   7.599  0.2391  0.0879  0.4065
66260W        W 9173  24.636   1.293   5.633  0.1108  0.0980  0.2175
66261W        W 9174   1.723  31.335  27.010  0.1526 -0.2678  0.0119
66262W        W 9175  33.492  24.538  23.628 -0.3839  0.3499 -0.1048
66263W        W 9176   7.912   4.889  27.536  0.1625 -0.1145 -0.2174
66264W        W 9177   7.006   2.555   3.024  0.0403 -0.2744 -0.2488
66265W        W 9178   0.411  31.798   4.631 -0.0108 -0.2382 -0.1760
66266W        W 9179   5.171  10.274  21.456  0.1398  0.1550 -0.3240
66267W        W 9180  30.659  33.783   8.593  0.2016  0.0963  0.0912
66268W        W 9181   0.616   7.794   7.199  0.0508 -0.1811 -0.0216
66269W        W 9182   6.770   6.928   9.051  0.0076  0.1330  0.3392
66270W        W 9183  12.418  26.883  22.608 -0.1471  0.1287 -0.0794
66271W        W 9184   4.021   1.204   1.508  0.1105  0.0295  0.0825
66272W        W 9185   8.369   6.588  27.272 -0.0279  0.0689 -0.2073
66273W        W 9186  10.667  22.820   4.168  0.0295 -0.0625 -0.1121
66274W        W 9187   4.892  33.526  27.143  0.0436 -0.1949 -0.1371
66275W        W 9188  14.526   7.726   9.270 -0.1416  0.2353 -0.0835
66276W        W 9189  14.904  26.461  27.724 -0.0215 -0.0071 -0.3909
66277W        W 9190   5.024  14.123  25.856  0.5134 -0.0518  0.0913
66278W        W 9191  11.125  31.802   2.670  0.0395 -0.1749 -0.2585
66279W        W 9192  29.688   3.178  27.716 -0.1716  0.0897 -0.2330
66280W        W 9193   2.343   3.270  24.352 -0.1313 -0.0265  0.1024
66281W        W 9194  12.791  33.526  28.105 -0.2093 -0.1544 -0.1797
66282W        W 9195   2.241  26.730  19.391 -0.0065 -0.0466 -0.0026
66283W        W 9196  14.451  11.890  19.457 -0.0161  0.0967 -0.2203
66284W        W 9197   4.529   2.679  23.062  0.1651  0.0185  0.2785
66285W        W 9198   6.627  34.473  23.105  0.2706 -0.1501 -0.0888
66286W        W 9199   0.457   9.882   2.583 -0.0356 -0.1625 -0.4149
66287W        W 9200  11.633   3.480   4.670 -0.0454 -0.0448 -0.2182
66288W        W 9201   1.479   2.444  29.737  0.0894  0.2116 -0.0616
66289W        W 9202   3.339  33.611  25.715  0.1872  0.0395 -0.1376
66290W        W 9203   3.127  15.647   7.795 -0.0020 -0.1670  0.2044
66291W        W 9204   9.985  32.970  24.265  0.1021 -0.0350 -0.0919
66292W        W 9205   2.193  26.446   1.338  0.0400 -0.1688 -0.1995
66293W        W 9206   2.170   2.381  10.268 -0.0029  0.1836 -0.2503
66294W        W 9207  34.059   1.180   7.945  0.3481 -0.0078 -0.0780
66295W        W 9208   4.132   9.961   3.720 -0.1834  0.0030  0.0484
66296W        W 9209  32.631   5.174  28.332  0.1965 -0.2742  0.1045
66297W        W 9210   1.459   7.596   2.923 -0.1813  0.0364 -0.2290
66298W        W 9211   0.613  30.815   6.391 -0.0738 -0.2748  0.1521
66299W        W 9212   7.670   1.612  26.571  0.2656 -0.2796  0.3860
66300W        W 9213   4.874   3.448   4.949  0.2080 -0.2200 -0.2442
66301W        W 9214  32.092   0.149   3.952  0.1581 -0.4501  0.2920
66302W        W 9215  12.119   1.072   1.236 -0.2849 -0.1129  0.1516
66303W        W 9216  32.494   9.072   5.519  0.0112  0.2762  0.3135
66304W        W 9217   6.634  33.133  23.463  0.1429  0.1530  0.0860
66305W        W 9218  12.578   2.359  27.593  0.0340 -0.1652  0.2818
66306W        W 9219  33.467   4.108   6.523  0.3104  0.0981  0.0866
66307W        W 9220  15.834   3.809  10.552  0.1245 -0.0770  0.1526
66308W        W 9221  13.332  30.511  29.740 -0.0857 -0.0276  0.2976
66309W        W 9222   0.028   1.478  21.825  0.2622 -0.3858  0.1541
66310W        W 9223   2.315   5.447  18.464 -0.1275 -0.1499 -0.0494
66311W        W 9224  33.575   2.099   1.323 -0.0186  0.0284 -0.0892
66312W        W 9225   0.921  27.902   6.858 -0.1569  0.1181 -0.0026
66313W        W 9226  33.750   9.319   8.386  0.0441  0.0349 -0.0118
66314W        W 9227  28.415  12.021   2.277 -0.1400 -0.0587  0.2824
66315W        W 9228   6.579  33.892   0.195 -0.2172  0.0149  0.2848
66316W        W 9229  31.369   9.257  29.147  0.2559 -0.3175 -0.1348
66317W        W 9230  17.865   6.553   0.990 -0.0288  0.2754 -0.1586
66318W        W 9231  18.691  11.676   0.028 -0.2001 -0.1433  0.1913
66319W        W 9232  12.074  32.561   8.194 -0.1410  0.0151  0.2963
66320W        W 9233  11.635   0.498   6.465  0.0391  0.0467 -0.2801
66321W        W 9234  13.864  32.201  23.061 -0.2971 -0.1231  0.2660
66322W        W 9235   7.848  13.852   5.331 -0.2604 -0.3189 -0.0732
66323W        W 9236   5.977   5.984   6.733 -0.0948  0.1937 -0.1792
66324W        W 9237  26.878   3.509   2.913 -0.0340 -0.2249  0.1784
66325W        W 9238   7.012   4.879   0.695  0.0002  0.3500 -0.0396
66326W        W 9239   4.496  32.910   4.448 -0.0905 -0.2127  0.0112
66327W        W 9240   4.415  19.511   9.230 -0.1264  0.1684  0.0404
66328W        W 9241  10.561  30.443  26.783  0.0493  0.1205  0.0725
66329W        W 9242   9.116  30.977   3.867 -0.0389 -0.0040 -0.1774
66330W        W 9243  22.064   0.855   0.063 -0.0954 -0.1275 -0.4350
66331W        W 9244  14.597  26.933   1.658  0.0600 -0.2996  0.0239
66332W        W 9245  34.220   6.523   1.690  0.0468 -0.1373 -0.0218
66333W        W 9246   3.728   2.501   2.332  0.1630 -0.3103  0.1869
66334W        W 9247  24.250  33.828  29.501 -0.0110  0.1739  0.2955
66335W        W 9248   1.320  30.791   0.562  0.1238 -0.1140 -0.2229
66336W        W 9249   1.874   5.490   0.558 -0.0974  0.0467  0.1547
66337W        W 9250   6.548  33.006   8.045  0.0067  0.1210  0.1651
66338W        W 9251   3.727  23.754  25.572  0.3191  0.0752 -0.3188
66339W        W 9252   9.056  31.263  18.734 -0.5255  0.0353  0.0074
66340W        W 9253  27.178  31.746   6.069 -0.1728 -0.1670  0.2422
66341W        W 9254   9.137   4.785  12.830  0.0125 -0.2079  0.0648
66342W        W 9255  28.399  11.706  24.147 -0.2023  0.1038  0.0973
66343W        W 9256   3.181  30.974   1.818 -0.0036  0.0486 -0.5031
66344W        W 9257  32.263   6.965   6.002  0.2515  0.1849  0.2544
66345W        W 9258   4.484   2.656   6.176  0.1692 -0.1907  0.0473
66346W        W 9259   5.441   5.023   6.114 -0.0558 -0.0133  0.1692
66347W        W 9260   5.281   6.768  27.124 -0.0217 -0.2568 -0.3021
66348W        W 9261   4.975  31.506   4.646  0.3387  0.0596  0.2574
66349W        W 9262   4.576   2.997   7.495  0.0597 -0.1497  0.0238
66350W        W 9263   7.022  25.720   9.508  0.0110  0.1511 -0.1262
66351W        W 9264  13.330   0.694  27.356 -0.0650  0.0377 -0.3586
66352W        W 9265   5.409   3.390   1.676 -0.0332 -0.2860 -0.2978
66353W        W 9266   6.165   5.918   4.844  0.5921 -0.3019 -0.2309
66354W        W 9267  33.873   5.624  26.968 -0.0625  0.0698  0.0938
66355W        W 9268  14.378  31.315  18.179  0.1712  0.0274  0.0341
66356W        W 9269   8.458  26.827   8.202  0.0738 -0.0412  0.2518
66357W        W 9270  10.505  11.460   8.250 -0.0744  0.5187  0.2528
66358W        W 9271  10.944   2.958  28.002 -0.2666 -0.6031 -0.0777
66359W        W 9272   9.419   8.818   5.475 -0.1937 -0.2919  0.0821
66360W        W 9273  16.442  31.253   4.432 -0.1068 -0.0242 -0.1213
66361W        W 9274  12.363  32.628   4.541  0.0328 -0.1651 -0.2360
66362W        W 9275   3.339   3.243  28.954 -0.1280  0.1065 -0.1675
66363W        W 9276   7.501   7.997  27.285  0.0148  0.0996  0.0365
66364W        W 9277   4.151  10.521  27.358 -0.1547 -0.1504  0.1558
66365W        W 9278  30.665  30.167   3.072 -0.2661  0.3264 -0.0442
66366W        W 9279   2.936   1.365  12.063  0.1440 -0.2066 -0.1022
66367W        W 9280   5.851   7.909   1.301 -0.0804  0.0591  0.2196
66368W        W 9281  10.411  14.213   9.978 -0.2430 -0.3333 -0.3719
66369W        W 9282  33.416   4.948   2.077 -0.0491 -0.2096 -0.0446
66370W        W 9283   1.410  14.724  28.173 -0.2716 -0.0705 -0.0175
66371W        W 9284   6.070  30.999   3.775  0.0319 -0.3337  0.3700
66372W        W 9285  10.602  33.787  12.929  0.3175 -0.1903  0.1478
66373W        W 9286   4.247   4.744  11.086 -0.0761  0.0993  0.1779
66374W        W 9287   9.027  28.740  26.422 -0.0552 -0.0663 -0.0415
66375W        W 9288   5.252  10.100   4.993  0.2201 -0.1603 -0.0824
66376W        W 9289  10.960   2.027   1.374 -0.1580 -0.0868  0.0422
66377W        W 9290   7.445   5.110   2.511 -0.1336 -0.1429 -0.1395
66378W        W 9291   2.951   1.307   2.605 -0.0965 -0.2904  0.6670
66379W        W 9292   5.997  33.702  11.494 -0.3454  0.0023 -0.2233
66380W        W 9293  13.136  33.703   1.053 -0.0384 -0.1760  0.0365
66381W        W 9294  13.255  33.175  25.928  0.0037  0.0117  0.0472
66382W        W 9295   4.507   3.610  27.682 -0.0610 -0.0771 -0.2608
66383W        W 9296   3.776   8.137  10.880 -0.0502  0.2543 -0.0959
66384W        W 9297   4.934  26.697  25.742  0.3324 -0.0674  0.1949
66385W        W 9298   4.778  16.143  25.448 -0.2425  0.2490 -0.0672
66386W        W 9299   3.166   0.509   3.137 -0.1351 -0.0719  0.1079
66387W        W 9300  15.010  14.140   2.633 -0.1015 -0.2499 -0.0419
66388W        W 9301  11.458   0.245  10.731  0.0726 -0.0471  0.1840
66389W        W 9302   7.601   2.114  11.661  0.1980  0.1202 -0.3479
66390W        W 9303   4.200  30.857   9.612 -0.2418  0.1007 -0.1359
66391W        W 9304  13.902   9.724   1.717 -0.2862 -0.0041 -0.6565
66392W        W 9305   5.914   3.678   2.083 -0.0792 -0.0447 -0.2757
66393W        W 9306  11.266   1.497   8.217 -0.3730 -0.0715 -0.1686
66394W        W 9307  13.936  32.841   5.234 -0.0620  0.1330  0.0924
66395W        W 9308   3.982   2.918  22.805 -0.1529  0.0805  0.0474
66396W        W 9309   3.721  14.942   3.937 -0.0024 -0.2504 -0.1202
66397W        W 9310   1.791  28.253   9.115  0.0194  0.0771  0.2079
66398W        W 9311   8.202  10.180  25.738  0.0362  0.0394 -0.0803
66399W        W 9312   8.292   0.971  29.452 -0.0351 -0.1961  0.2802
66400W        W 9313  25.222   1.613  23.263 -0.0109  0.2438  0.3611
66401W        W 9314  12.233   8.593  10.101  0.1732  0.1759  0.0270
66402W        W 9315  13.203   5.766  27.466 -0.0581 -0.0679 -0.1798
66403W        W 9316   4.606  32.750  27.545  0.1180  0.2994 -0.0574
66404W        W 9317   0.575  26.548   5.927 -0.2272  0.2400 -0.0554
66405W        W 9318   7.808   5.758  24.725  0.3109  0.1463  0.1640
66406W        W 9319  16.492   0.777   0.490 -0.0202  0.0556 -0.0271
66407W        W 9320   6.424   4.574  25.243  0.0004  0.0408 -0.1229
66408W        W 9321  11.539  18.719  23.898 -0.4642  0.0545 -0.0894
66409W        W 9322  10.710  12.924   6.847  0.0184 -0.2063  0.0958
66410W        W 9323   5.820  12.141  10.767  0.2057  0.2538  0.0352
66411W        W 9324   4.877   8.762  19.649 -0.2325  0.1372 -0.2744
66412W        W 9325   7.300   3.533   5.119  0.0602 -0.0304 -0.2446
66413W        W 9326  32.919   4.885   4.173 -0.2201  0.4681 -0.3143
66414W        W 9327  12.388  13.405   9.102  0.2302  0.1136 -0.0695
66415W        W 9328  31.712  10.957  29.397  0.2858  0.2625 -0.2568
66416W        W 9329   4.175   6.137  11.609  0.2652  0.0309 -0.1099
66417W        W 9330   0.482  10.507   7.336  0.2835  0.2092 -0.1268
66418W        W 9331  14.465  33.090   1.619 -0.3258  0.2159 -0.1982
66419W        W 9332   4.614   5.861  10.422 -0.2848 -0.0675 -0.1536
66420W        W 9333  11.769   6.892  28.633 -0.0176  0.0010  0.2270
66421W        W 9334   7.747   6.020   2.566 -0.3084 -0.0561  0.0708
66422W        W 9335   9.839  30.606   2.607  0.3135 -0.5284 -0.1440
66423W        W 9336  31.477  10.889  17.558  0.1282 -0.1199 -0.2291
66424W        W 9337   8.623   1.660  23.965 -0.2201  0.1322  0.0040
66425W        W 9338   5.967   2.163   5.407 -0.3831 -0.3170 -0.1132
66426W        W 9339  12.858  32.596  24.703  0.0267 -0.1302  0.2302
66427W        W 9340  31.518  11.755   0.327  0.0403  0.0697  0.0119
66428W        W 9341   7.795  23.720  26.618 -0.2372 -0.2170 -0.1697
66429W        W 9342   0.941  30.834  21.616  0.0244  0.0352  0.0583
66430W        W 9343  31.954   7.298  22.837 -0.1143 -0.2810  0.1166
66431W        W 9344   8.848   5.816  18.688  0.0491 -0.2381 -0.1597
66432W        W 9345   9.746  15.233   8.837 -0.2169  0.3951  0.0400
66433W        W 9346   3.243   3.606   7.351  0.0634  0.2143  0.2671
66434W        W 9347  12.042  32.242   4.868 -0.2781  0.2179  0.2072
66435W        W 9348  11.733  22.125  25.424 -0.0287 -0.1150  0.1906
66436W        W 9349   2.562   7.925   5.552  0.1925  0.2816  0.0884
66437W        W 9350   1.314   6.795   4.673  0.3680  0.0601  0.2610
66438W        W 9351  13.138   8.159  26.240 -0.2584  0.1918 -0.0889
66439W        W 9352   4.774   7.455   0.675  0.0524  0.1709  0.2810
66440W        W 9353   7.514   2.808  25.629 -0.0028 -0.2700 -0.0107
66441W        W 9354   5.069   8.900   3.764 -0.2184 -0.0708 -0.0411
66442W        W 9355  25.945  23.185  21.817  0.2213  0.0916 -0.0364
66443W        W 9356  12.235  32.799   9.064  0.2300  0.2348  0.4364
66444W        W 9357   5.729  29.387  28.498  0.1580 -0.0777  0.1029
66445W        W 9358   0.071  34.401   2.817 -0.0596  0.1219  0.5066
66446W        W 9359   5.680   0.970   7.009  0.0049 -0.0609 -0.0007
66447W        W 9360   4.217  14.495  29.151  0.2753  0.2865  0.3366
66448W        W 9361   3.634  33.292   4.960  0.0942  0.0066 -0.0722
66449W        W 9362  14.017   9.562   3.358  0.2545  0.2185 -0.2097
66450W        W 9363  33.150  31.345   4.249 -0.1047  0.0668 -0.3290
66451W        W 9364   2.720   3.191   3.512  0.1803 -0.2611  0.0013
66452W        W 9365   3.869   2.824  28.551  0.0888 -0.2443  0.2809
66453W        W 9366   7.951  33.975  24.138  0.0324  0.1014 -0.0196
66454W        W 9367  10.487   3.567   0.758  0.1335  0.0212  0.1303
66455W        W 9368  32.232   4.017   3.144  0.1568 -0.0752 -0.0835
66456W        W 9369  12.558  24.390  19.389 -0.0615 -0.1931 -0.3818
66457W        W 9370   0.522  28.858   3.474  0.1929 -0.0089 -0.1120
66458W        W 9371  30.035  28.590  29.532 -0.0737  0.0826 -0.3347
66459W        W 9372  30.261   6.996  10.673 -0.3412  0.0991 -0.3262
66460W        W 9373  32.697   0.696  29.485  0.1049 -0.2492 -0.0593
66461W        W 9374   3.019   9.569   2.958 -0.0986  0.1471  0.0666
66462W        W 9375   5.951   1.077  26.356 -0.4146  0.1456  0.0346
66463W        W 9376   6.919   0.611   8.409  0.0660 -0.2365  0.0718
66464W        W 9377   5.992  31.101  26.914 -0.1849 -0.0533  0.1531
66465W        W 9378   0.737   6.230   0.897  0.1100  0.0228  0.1791
66466W        W 9379   1.700  14.085  21.588  0.0046 -0.2072 -0.2494
66467W        W 9380   2.581   3.026   0.566 -0.0402  0.0839  0.0329
66468W        W 9381   2.297  32.207   5.564  0.1318 -0.2874  0.0737
66469W        W 9382  17.386  32.833   2.670 -0.0523  0.1345  0.2398
66470W        W 9383   9.662   5.421  29.450  0.2980  0.2669  0.1652
66471W        W 9384  29.301  33.838  28.488 -0.3782  0.1221  0.4278
66472W        W 9385   4.470   0.512   7.550  0.2232 -0.1056  0.3429
66473W        W 9386  14.666   4.086  18.755  0.0577  0.0049  0.4605
66474W        W 9387   4.771   6.662  28.620 -0.1447 -0.0455  0.3111
66475W        W 9388   7.153  32.494   9.226 -0.0334 -0.1926  0.0111
66476W        W 9389  10.763  18.426   8.641 -0.0383  0.1599 -0.1846
66477W        W 9390   0.125   1.772   5.905  0.0605 -0.1539  0.1734
66478W        W 9391   0.335  30.485   2.920 -0.1070 -0.0140  0.4122
66479W        W 9392  11.184   2.761   8.617 -0.1727 -0.4849  0.0039
66480W        W 9393   2.954   3.279  20.862  0.2248  0.1698 -0.0970
66481W        W 9394   3.983  32.877   1.573 -0.3030  0.1010  0.0932
66482W        W 9395   2.610   0.803   5.653  0.0980  0.4119  0.2668
66483W        W 9396   4.272   6.601   6.981 -0.0045  0.2327 -0.0555
66484W        W 9397   9.348  10.499   1.475 -0.0652 -0.0122 -0.2139
66485W        W 9398  16.618   4.159   6.275  0.0668 -0.0042  0.0799
66486W        W 9399  10.701  23.979  18.150 -0.3165  0.3547 -0.3106
66487W        W 9400   6.150   9.158   1.125  0.1127  0.0328 -0.1229
66488W        W 9401   6.101   5.253   4.459  0.0504 -0.0078  0.0679
66489W        W 9402   9.609   5.030  26.741 -0.0795 -0.1494  0.1493
66490W        W 9403  17.782  32.736   8.990 -0.0233  0.0731 -0.2847
66491W        W 9404  26.857  31.663  29.582 -0.1258 -0.1044 -0.1130
66492W        W 9405  17.509  14.372  21.748 -0.3874  0.3347 -0.0429
66493W        W 9406   7.645   1.101  10.540  0.1026 -0.4275 -0.1119
66494W        W 9407   7.353  29.303  27.581  0.0075  0.3431  0.0897
66495W        W 9408   9.373   4.508  21.838 -0.0328 -0.1817  0.0187
66496W        W 9409   4.849  30.086  11.312  0.1892  0.3932  0.0592
66497W        W 9410  13.015   1.246  28.368  0.2077 -0.1528  0.0380
66498W        W 9411  11.497   1.267   0.450 -0.0918  0.0374  0.3035
66499W        W 9412  34.333  34.213   5.065 -0.1854  0.0467 -0.1223
66500W        W 9413   5.033   7.776   0.354  0.0408  0.2124  0.0878
66501W        W 9414   8.231  33.452  26.045  0.1935  0.2484  0.1549
66502W        W 9415   9.155  14.989   3.751 -0.1173 -0.2288 -0.1465
66503W        W 9416  10.155   9.607   4.121  0.2924  0.3883  0.0485
66504W        W 9417   1.367   8.168  11.613  0.1655  0.0834 -0.1536
66505W        W 9418   7.572  22.077  28.602 -0.1297  0.1210 -0.0670
66506W        W 9419   2.697  32.308  23.454 -0.0097 -0.1903  0.0451
66507W        W 9420   3.760  23.935   2.018  0.0377  0.1630 -0.1594
66508W        W 9421   0.871   4.514   3.342 -0.2568  0.0547  0.1129
66509W        W 9422  15.828   6.805  16.773  0.2998  0.1586  0.0835
66510W        W 9423   0.719  34.136   3.702 -0.3606  0.2352  0.5115
66511W        W 9424   8.128   4.432   4.935 -0.4694  0.1298 -0.0491
66512W        W 9425   2.868   1.639   4.832  0.0616 -0.0904 -0.2481
66513W        W 9426  25.389   0.585  24.372 -0.1302  0.2823  0.1352
66514W        W 9427  30.674  26.970   6.135  0.0505  0.2656 -0.0857
66515W        W 9428  33.434  32.983   5.632 -0.1269 -0.0156 -0.1401
66516W        W 9429  13.010  31.945  10.464  0.2994  0.0481  0.0030
66517W        W 9430   0.602   6.789   6.327  0.1053  0.1145  0.1560
66518W        W 9431   3.164   6.006   9.927 -0.2562  0.1385  0.0970
66519W        W 9432   3.878   1.573  11.004 -0.1974  0.0790 -0.1119
66520W        W 9433  33.571   5.444   5.944  0.1195  0.0493 -0.0067
66521W        W 9434   5.090   4.133  28.986 -0.0339  0.1415 -0.1118
66522W        W 9435  14.148   0.069   0.882  0.0794  0.0382  0.0227
66523W        W 9436   2.774   7.745  12.973  0.2133  0.0582  0.2080
66524W        W 9437   5.885  30.004  27.336  0.3037  0.1132 -0.1436
66525W        W 9438  14.667   3.504   3.427  0.0821 -0.2381 -0.0702
66526W        W 9439   6.663   5.747  27.390 -0.2213  0.0131 -0.1172
66527W        W 9440   4.666   5.528  10.834 -0.2535 -0.0397  0.1847
66528W        W 9441   0.405   6.738   0.198  0.2300  0.0634  0.0728
66529W        W 9442   4.571  32.849  28.690 -0.1395 -0.0077 -0.1715
66530W        W 9443  11.285  34.379   5.723 -0.1618 -0.2846  0.2278
66531W        W 9444   2.872   3.768   3.985  0.0171  0.0495  0.1777
66532W        W 9445   8.356   8.885   1.471 -0.0384 -0.0819  0.0590
66533W        W 9446   4.163  29.802   4.624  0.0976 -0.2104 -0.1057
66534W        W 9447  10.672  28.601  23.347 -0.0726 -0.0709 -0.3745
66535W        W 9448   4.116  31.993  25.143 -0.0188  0.0356  0.0714
66536W        W 9449   6.625  33.295  12.729 -0.0128  0.1826 -0.2044
66537W        W 9450   0.818  29.325  26.796  0.0622 -0.2312  0.2450
66538W        W 9451   9.931   1.925   6.103 -0.1806 -0.3422  0.1306
66539W        W 9452  12.084  16.727  20.361  0.2474  0.0132  0.1088
66540W        W 9453   1.791   9.242   7.242  0.1180  0.0063  0.1795
66541W        W 9454  26.626  33.843   0.067  0.1347 -0.1174  0.1384
66542W        W 9455   1.802   9.770   8.251  0.1975 -0.1402 -0.0296
66543W        W 9456  30.102  33.072  10.383  0.3165  0.1056  0.1373
66544W        W 9457  13.246  12.370   5.685  0.2811 -0.2442 -0.1255
66545W        W 9458   6.668   2.275   2.755  0.0227  0.0846 -0.0183
66546W        W 9459   5.791  11.534   2.473  0.1165 -0.1312 -0.0394
66547W        W 9460   7.311  28.452  10.696  0.1046 -0.0762  0.1276
66548W        W 9461  12.584  34.065  27.782 -0.1140 -0.0710 -0.0722
66549W        W 9462  12.703  33.859   3.992 -0.2068  0.1216  0.0380
66550W        W 9463   1.109  30.652  28.518 -0.0540 -0.4170 -0.1802
66551W        W 9464   1.731  30.850  20.158 -0.2722  0.2793 -0.0600
66552W        W 9465   7.352   8.312  10.229  0.1407  0.2016 -0.1761
66553W        W 9466   1.225  33.216   6.864  0.1977 -0.3286 -0.2923
66554W        W 9467   3.702   7.898   6.697  0.0580 -0.1426 -0.0159
66555W        W 9468   5.851   5.069   3.201 -0.0154 -0.0279 -0.4860
66556W        W 9469  14.472   4.985   4.402 -0.3972 -0.2208  0.0492
66557W        W 9470   9.694   7.140   9.278  0.1206 -0.2624  0.0467
66558W        W 9471   4.735  10.084  11.424 -0.0017 -0.0320 -0.0959
66559W        W 9472  12.616  10.481   7.914  0.3854 -0.0718  0.1183
66560W        W 9473   4.518   8.430  29.571 -0.2429  0.1054 -0.2080
66561W        W 9474   8.628  12.600  20.909  0.2361  0.2403 -0.1410
66562W        W 9475   4.242   3.675  10.112 -0.1719 -0.0960  0.3458
66563W        W 9476  11.680  27.403   6.563 -0.0922 -0.0004 -0.1228
66564W        W 9477   1.976   2.628   5.559  0.1155 -0.0902 -0.0758
66565W        W 9478  10.563   0.701   2.023 -0.1277 -0.1969  0.2370
66566W        W 9479   5.618  31.590   7.802  0.0354  0.0328  0.0009
66567W        W 9480   5.084  12.896   4.611  0.1202  0.4077 -0.3109
66568W        W 9481  34.081   2.994   7.790 -0.4646 -0.2204  0.2492
66569W        W 9482   5.825   0.411  13.513 -0.0638  0.2269  0.2288
66570W        W 9483  11.410   1.537  23.125  0.0062 -0.2151  0.0200
66571W        W 9484  14.771   3.097  25.383  0.2815  0.2319 -0.1726
66572W        W 9485   8.124  32.434  12.170  0.0527  0.1699 -0.2749
66573W        W 9486  14.951  32.573   0.887 -0.3873  0.1244 -0.2293
66574W        W 9487   7.569  32.768  20.683  0.3921 -0.0883 -0.1235
66575W        W 9488   4.054   3.796  12.666 -0.1032  0.1105 -0.1500
66576W        W 9489  10.776  13.486   2.368  0.1576 -0.1277  0.1291
66577W        W 9490  15.537   3.011  10.711 -0.1858 -0.0517 -0.3143
66578W        W 9491   8.245   4.603   9.889 -0.0237 -0.2583 -0.1546
66579W        W 9492   4.299  31.819  26.510  0.2388  0.3962  0.4568
66580W        W 9493   1.868   2.221   9.015  0.1783  0.1593 -0.0433
66581W        W 9494   5.217  22.166   0.853  0.2616  0.1831 -0.2321
66582W        W 9495  14.607   1.585   9.525  0.1308  0.0986  0.0380
66583W        W 9496   4.278  26.930   4.643  0.0651  0.0174 -0.1140
66584W        W 9497   5.671   2.335  12.732  0.1446  0.1814  0.0489
66585W        W 9498  34.095   7.967   0.416  0.0647 -0.3072  0.0115
66586W        W 9499   8.347   2.527   3.485 -0.2139 -0.4526 -0.1729
66587W        W 9500  16.621   1.126   5.379  0.2781  0.1489 -0.2816
66588W        W 9501   1.369  34.329   7.443  0.1180  0.2565 -0.0764
66589W        W 9502   0.311   6.567  10.931 -0.2898 -0.2841  0.0015
66590W        W 9503  29.978  28.127   0.455  0.2239  0.0594 -0.3929
66591W        W 9504   4.062  28.821   1.789  0.2438 -0.2628  0.0271
66592W        W 9505   5.337   0.644   6.082  0.0853  0.3966 -0.1370
66593W        W 9506  10.699  16.543  15.067 -0.0127  0.0096 -0.1897
66594W        W 9507   6.806   0.742   2.864 -0.3036  0.2173  0.3568
66595W        W 9508   6.797   7.526   0.044 -0.1310 -0.0667  0.0828
66596W        W 9509   7.739   2.972  10.572  0.1453 -0.0178  0.2101
66597W        W 9510   5.642  30.860  28.524 -0.1952  0.4335  0.0069
66598W        W 9511  14.222   5.466   9.626 -0.2856  0.3538  0.2990
66599W        W 9512  32.411  12.998   7.053  0.2864  0.0375 -0.0003
66600W        W 9513   0.593  32.545  24.228  0.3144 -0.0997 -0.1087
66601W        W 9514  34.001  29.215   4.655  0.0712  0.0488  0.5010
66602W        W 9515   2.218   1.437   1.232  0.3233 -0.0872  0.1185
66603W        W 9516   1.501  32.495  28.072 -0.1125 -0.2532  0.1479
66604W        W 9517  32.612  25.412   8.592 -0.1945 -0.3946  0.2341
66605W        W 9518  16.917   7.956   2.087 -0.0373  0.0310 -0.1178
66606W        W 9519  11.318  24.309  26.706 -0.1181 -0.1071 -0.1666
66607W        W 9520   2.367  27.920  10.443 -0.1362  0.1335  0.0849
66608W        W 9521   2.880  32.607   3.955  0.0315  0.0481 -0.0058
66609W        W 9522  33.947   4.701  19.888 -0.0233  0.0088 -0.2003
66610W        W 9523   3.756  33.170   9.791 -0.1203  0.1076 -0.0655
66611W        W 9524   6.866   3.599  29.209  0.1050  0.4185  0.5090
66612W        W 9525  10.744  27.976  11.138  0.2754 -0.1716  0.1199
66613W        W 9526  27.545  31.776   0.581  0.1308  0.0981  0.0613
66614W        W 9527   4.044   8.740   9.874 -0.0902 -0.1595 -0.0561
66615W        W 9528   8.803  26.909   8.559  0.0926 -0.0082  0.2906
66616W        W 9529   8.791   2.043   8.939  0.1318  0.0129  0.1188
66617W        W 9530   2.139   6.651  13.069  0.2082  0.1469  0.1483
66618W        W 9531   2.285   6.888   6.065 -0.0749  0.1284 -0.0318
66619W        W 9532  31.085   1.162   4.189 -0.0787  0.0845 -0.0383
66620W        W 9533   6.916   0.028   7.178  0.0427 -0.1982  0.0114
66621W        W 9534   7.252   6.185  10.101 -0.1023  0.0909 -0.1865
66622W        W 9535  10.721   3.018   0.759  0.1111 -0.3628 -0.1105
66623W        W 9536   8.010  12.709   9.880 -0.1184  0.1091 -0.0415
66624W        W 9537   3.027   7.740   5.410  0.1846 -0.0217  0.3702
66625W        W 9538   4.508  33.425   2.574 -0.0297 -0.0672  0.2269
66626W        W 9539   3.176   5.668   3.888  0.1938 -0.0574 -0.1396
66627W        W 9540   3.805   9.200  26.486 -0.2652  0.0352 -0.0905
66628W        W 9541  33.872  33.100  28.325 -0.1221  0.0786 -0.1927
66629W        W 9542   6.898  17.202   6.426  0.2107 -0.1153 -0.2493
66630W        W 9543  13.106   4.953   4.345 -0.0725 -0.1322  0.0420
66631W        W 9544  28.944   7.053  29.081 -0.0430  0.2609 -0.1472
66632W        W 9545   8.015  12.469   8.380 -0.0860 -0.0063 -0.1954
66633W        W 9546  17.901   2.192   7.425 -0.0416 -0.0521 -0.2752
66634W        W 9547   8.636   3.663   6.502 -0.0743  0.2204 -0.1488
66635W        W 9548   6.979   5.446   6.089  0.0290 -0.0866 -0.4318
66636W        W 9549   8.714   0.603  11.424  0.3520  0.0123  0.2658
66637W        W 9550   8.528  11.005  25.657  0.0380  0.3431  0.4632
66638W        W 9551  20.419   3.387   9.386  0.0993 -0.0989 -0.2301
66639W        W 9552   3.322   0.132   2.061  0.3071  0.0619  0.1040
66640W        W 9553   8.963  29.094  10.233 -0.0626  0.1498  0.3746
66641W        W 9554  12.755   2.077   7.718 -0.1175 -0.0093  0.0487
66642W        W 9555  13.724  14.695  23.211 -0.0204  0.0389 -0.0665
66643W        W 9556   3.728  34.029   5.940 -0.1118  0.1198  0.0060
66644W        W 9557   8.662   4.749   1.500 -0.1237 -0.0213  0.2542
66645W        W 9558  31.143   1.161   7.577 -0.3320 -0.1347  0.0937
66646W        W 9559  32.390   7.429  10.519 -0.0049  0.0546  0.1641
66647W        W 9560   1.190   0.799   6.371 -0.1186  0.0010  0.0955
66648W        W 9561   8.052  31.438  22.336 -0.0554 -0.1878 -0.0852
66649W        W 9562  10.105   5.698   3.258  0.0629 -0.3511  0.1332
66650W        W 9563  28.006  34.366   9.489  0.5300  0.0334  0.1722
66651W        W 9564   9.082  33.657   3.788  0.0859 -0.0476 -0.0309
66652W        W 9565   5.678  10.179   9.860  0.1201  0.0069  0.0537
66653W        W 9566  10.552   4.349   9.079  0.1653 -0.1756  0.1465
66654W        W 9567  32.853  26.431  27.682  0.0216 -0.1919 -0.1259
66655W        W 9568   7.454  32.307  25.816 -0.1889 -0.3285 -0.1249
66656W        W 9569   2.662  33.268   2.895  0.2489  0.1053  0.1447
66657W        W 9570   4.165  32.604  28.346 -0.2250  0.1438  0.0111
66658W        W 9571   4.535  30.655   5.556  0.2453 -0.0664 -0.0346
66659W        W 9572   9.104   0.282  11.469 -0.1374 -0.0598 -0.1631
66660W        W 9573   7.008  33.828   7.884 -0.0386  0.3480  0.2991
66661W        W 9574  30.974   5.538  23.733 -0.1057  0.2397 -0.1812
66662W        W 9575   5.256   5.536  20.076 -0.1115 -0.0475  0.1428
66663W        W 9576   6.680   2.129   8.686 -0.1413  0.0457  0.2457
66664W        W 9577   7.203   3.443   6.352  0.0354 -0.3563 -0.2023
66665W        W 9578   9.322   7.564   4.676 -0.0209 -0.1820 -0.0075
66666W        W 9579   7.436   9.113  10.580  0.0482  0.0858  0.0535
66667W        W 9580   0.666  14.535   2.316  0.2047 -0.0059 -0.2160
66668W        W 9581  15.854  31.450   5.786  0.0936 -0.0827  0.2445
66669W        W 9582   7.506   9.879   1.520  0.0423 -0.0491 -0.0417
66670W        W 9583   6.719  34.463  29.150  0.0381 -0.0106  0.0977
66671W        W 9584  11.783   3.480   7.213 -0.1038 -0.2764  0.3752
66672W        W 9585   0.381  26.925   2.044  0.2371 -0.0678 -0.1453
66673W        W 9586   4.357   7.247  11.019  0.0903 -0.1559 -0.3038
66674W        W 9587   7.551  33.269   4.732 -0.3749 -0.0625  0.2860
66675W        W 9588  10.544  14.793  26.141 -0.2126 -0.1275 -0.4604
66676W        W 9589  11.448   3.733  26.693  0.2533 -0.3295 -0.0656
66677W        W 9590  32.585  30.841  10.011  0.0701  0.3352  0.3710
66678W        W 9591   8.122   8.074   2.864 -0.1211 -0.0496  0.0594
66679W        W 9592   7.823   0.335   4.052  0.1024 -0.0373  0.1241
66680W        W 9593   2.198   0.200   7.493 -0.1601  0.0765  0.0148
66681W        W 9594   1.255  25.648  25.030 -0.1472 -0.1958  0.3340
66682W        W 9595   7.381   0.716  10.354 -0.3331  0.1115 -0.1209
66683W        W 9596  12.134   0.893  11.119  0.3254 -0.3017 -0.0953
66684W        W 9597   3.276   4.040  10.701  0.0688 -0.0304 -0.0675
66685W        W 9598   3.192   2.585  24.736 -0.0524 -0.0239  0.1471
66686W        W 9599   4.951   0.335   5.930 -0.0702 -0.0375 -0.1994
66687W        W 9600  10.923  10.106   8.141 -0.0571  0.1470  0.2845
66688W        W 9601   4.897  31.670   7.064 -0.3657  0.0848 -0.0808
66689W        W 9602   2.585   1.789   1.293  0.1325 -0.0078 -0.0397
66690W        W 9603   4.833  24.672   9.088  0.2706  0.1047 -0.1224
66691W        W 9604  11.051  28.965   2.318  0.2381  0.1450  0.0338
66692W        W 9605  33.867   8.980   5.478 -0.0250 -0.2202 -0.1935
66693W        W 9606   7.202   1.744   5.895  0.3067 -0.5038 -0.2014
66694W        W 9607   5.795   2.029   2.461 -0.1585 -0.2181  0.2437
66695W        W 9608   3.442   3.283   4.579 -0.3960  0.3023  0.0646
66696W        W 9609   0.546  14.537   8.207  0.0879 -0.1337  0.1619
66697W        W 9610   8.736   9.365   4.816 -0.3240  0.1823 -0.1482
66698W        W 9611  11.917   3.219  11.910 -0.2979 -0.0505 -0.1237
66699W        W 9612   0.381   4.966  11.394 -0.1465 -0.0586  0.1943
66700W        W 9613  26.312  29.259   4.729 -0.2911 -0.1309 -0.0621
66701W        W 9614   7.575  27.385  24.770 -0.2904 -0.3467 -0.1805
66702W        W 9615   3.145  32.471   2.057 -0.1867  0.3465  0.0421
66703W        W 9616   4.025  21.867  10.023 -0.2334  0.1873 -0.0003
66704W        W 9617  10.746   2.280  10.048  0.0030 -0.3651 -0.0474
66705W        W 9618  15.308   4.974   8.672 -0.0537  0.4869 -0.0227
66706W        W 9619  12.453   7.001  11.478 -0.1213 -0.0198  0.2648
66707W        W 9620   1.958   1.623  11.896  0.1133 -0.0314  0.0327
66708W        W 9621  20.555  24.525   3.708  0.0529  0.0086 -0.0114
66709W        W 9622  12.505   1.852  10.511 -0.0814  0.0088  0.0751
66710W        W 9623   9.619  26.852   3.396  0.2976 -0.1379 -0.1868
66711W        W 9624  34.088  32.359   7.847 -0.2475 -0.0448 -0.0247
66712W        W 9625  17.506  31.422  10.803 -0.1717 -0.1426 -0.0417
66713W        W 9626   4.729   5.229  29.654  0.0060 -0.0967  0.1064
66714W        W 9627  11.838  33.011   2.506 -0.3134  0.0688  0.0842
66715W        W 9628  13.271  32.673  28.973 -0.1522 -0.0034  0.1948
66716W        W 9629  11.269   7.851   4.120 -0.1677  0.0626 -0.1127
66717W        W 9630   8.339  31.551   3.574 -0.1430 -0.2199  0.0136
66718W        W 9631  14.351   0.002   4.795 -0.0662  0.3529 -0.0335
66719W        W 9632   7.333  28.485   8.832 -0.1344  0.0727 -0.1251
66720W        W 9633  15.497   9.799   4.893 -0.1196  0.1074 -0.0458
66721W        W 9634   7.601   4.752  11.740  0.2366 -0.2028  0.0305
66722W        W 9635  11.691  32.870  24.906  0.0993 -0.1529 -0.1661
66723W        W 9636   3.878   6.321   4.419  0.2318  0.0139  0.0066
66724W        W 9637  15.158   3.878  29.575  0.2073 -0.2334  0.2181
66725W        W 9638   6.303   6.829   6.278 -0.3017  0.1155  0.0150
66726W        W 9639   5.955  21.120   7.356 -0.1148  0.1585 -0.1238
66727W        W 9640   4.179  11.315   6.920 -0.1117 -0.2242  0.0598
66728W        W 9641   5.300  13.082   3.712  0.1624  0.2144 -0.4838
66729W        W 9642   7.303   9.941   9.302 -0.3300  0.2856 -0.1297
66730W        W 9643  17.088  31.859  11.388  0.1729  0.1205  0.1743
66731W        W 9644   3.540  12.352  10.557 -0.1446 -0.2297  0.0063
66732W        W 9645   0.529  29.005   1.594 -0.0731  0.0179 -0.1799
66733W        W 9646   9.301   9.015   4.157  0.1338 -0.4136  0.2162
66734W        W 9647   5.289  31.217  27.942  0.0296 -0.2353  0.0170
66735W        W 9648  31.252   5.737  11.551 -0.0396 -0.1420  0.0496
66736W        W 9649  16.289  32.292   7.843 -0.3548 -0.2117  0.0915
66737W        W 9650   9.531  32.016  11.224  0.3904 -0.0324 -0.0623
66738W        W 9651   3.546  32.431   5.616  0.1138  0.3108  0.0195
66739W        W 9652   7.756  25.816   0.231  0.1055  0.0300 -0.2415
66740W        W 9653   5.919   6.469   9.701  0.0511  0.1835  0.1234
66741W        W 9654  27.833   5.041   8.128  0.2268  0.0994  0.1830
66742W        W 9655   2.806   4.590   7.263  0.2390  0.2058  0.0057
66743W        W 9656  17.185   3.704   3.393  0.0084  0.1658 -0.2772
66744W        W 9657   0.493  33.137   1.568 -0.2499 -0.3261 -0.0424
66745W        W 9658  33.722  16.914   7.801  0.3097  0.0703 -0.2856
66746W        W 9659   1.486   0.168   9.592  0.4278  0.1466 -0.2888
66747W        W 9660   9.129   0.861  13.540  0.1917  0.1406  0.0693
66748W        W 9661   7.666  29.105  29.099 -0.3428 -0.0778  0.1313
66749W        W 9662  27.049   3.078  29.309 -0.0286  0.4665  0.3068
66750W        W 9663  13.452  10.432   2.697 -0.1081  0.3217  0.2969
66751W        W 9664  32.421  29.463  28.994 -0.1138 -0.1189 -0.0058
66752W        W 9665   7.890  30.111   8.449  0.1502 -0.0872 -0.0266
66753W        W 9666   6.775  30.646   5.567 -0.0921 -0.0212 -0.2892
66754W        W 9667  28.978   3.870  29.107  0.3693  0.0741 -0.1168
66755W        W 9668  22.568  32.623   9.229  0.0723  0.1650  0.0678
66756W        W 9669   8.775  31.488  11.713  0.1307  0.1461 -0.1768
66757W        W 9670   3.414  30.961   4.689  0.0052  0.2846  0.1276
66758W        W 9671   8.448   9.818   9.900 -0.1761  0.2966 -0.1071
66759W        W 9672  14.607   3.188  10.295 -0.1375 -0.1641 -0.2212
66760W        W 9673   7.299  34.152   7.018 -0.2603  0.4982  0.1030
66761W        W 9674   5.795   3.545  12.055 -0.0549 -0.0808 -0.0305
66762W        W 9675   2.101  34.078  28.625 -0.0366 -0.0802 -0.1143
66763W        W 9676   4.644  32.046  22.144  0.0326  0.2599  0.0492
66764W        W 9677   7.115  15.833   3.485  0.1577 -0.1142  0.0663
66765W        W 9678   3.172   3.379   9.401  0.0456  0.0512 -0.2097
66766W        W 9679   3.080  33.494   4.177  0.2263  0.1211 -0.0962
66767W        W 9680  10.707  28.884  11.051  0.1034  0.0321  0.2314
66768W        W 9681   0.325   3.617  11.906 -0.0479  0.1680  0.0257
66769W        W 9682  30.873   4.004  29.058 -0.0008 -0.4389 -0.0215
66770W        W 9683   9.176   2.527  10.203  0.1029  0.2043  0.1270
66771W        W 9684   6.641  30.843   0.646  0.0568 -0.1223 -0.0214
66772W        W 9685   4.786  31.279   8.089  0.0599  0.1896  0.1449
66773W        W 9686   8.117  19.234   4.444  0.0296 -0.1017 -0.2564
66774W        W 9687   4.163  10.283   2.287 -0.2680 -0.0594 -0.2947
66775W        W 9688   7.189  30.835   3.493 -0.1237 -0.0385  0.2098
66776W        W 9689   2.876  11.969   5.720 -0.1160  0.2040 -0.0546
66777W        W 9690   6.439   5.480  11.019 -0.4234  0.1184  0.2893
66778W        W 9691   3.834  10.414   1.730 -0.3158  0.1195 -0.2772
66779W        W 9692   4.139  27.810   1.525 -0.0316 -0.3257 -0.0326
66780W        W 9693  33.796   3.192  10.007  0.0017  0.2568 -0.0224
66781W        W 9694  33.116   3.911   5.678 -0.4359  0.0240  0.1575
66782W        W 9695  10.483  13.406   6.248  0.0751 -0.0945 -0.0371
66783W        W 9696   0.054  31.868   7.227  0.0828  0.1900 -0.0887
66784W        W 9697  34.216   4.275   2.576 -0.0787  0.1616  0.0230
66785W        W 9698   0.343   6.162   4.565  0.0426 -0.1577  0.2374
66786W        W 9699  12.383  25.470   7.077 -0.1544 -0.3293 -0.1032
66787W        W 9700  33.366   5.876  25.009 -0.2599  0.0482 -0.1601
66788W        W 9701  31.711  11.398   4.720 -0.1606 -0.1478  0.0242
66789W        W 9702  10.091  31.036   7.723  0.0200 -0.0335 -0.3228
66790W        W 9703   8.284   7.662   9.468  0.2825  0.2931 -0.2882
66791W        W 9704   7.218   4.697   3.949 -0.0217 -0.2402 -0.0718
66792W        W 9705   1.679   1.012   6.507  0.0108  0.2711 -0.1899
66793W        W 9706  11.618   2.337  28.068 -0.0304  0.1101 -0.1565
66794W        W 9707  12.844   5.069   7.790  0.1068  0.0075  0.1462
66795W        W 9708   8.441   2.720   1.776 -0.0482 -0.1093  0.0939
66796W        W 9709   9.613  16.346   8.240  0.0331  0.3658 -0.0368
66797W        W 9710   6.828  33.629  10.458 -0.3896  0.1129 -0.0067
66798W        W 9711  11.554   0.146  28.783  0.3492  0.3222 -0.2451
66799W        W 9712   9.341  33.723   9.057 -0.0934  0.0153 -0.1299
66800W        W 9713  16.234  33.385   3.630 -0.2347 -0.0496 -0.0850
66801W        W 9714   4.382   8.689   6.722 -0.0192  0.0063 -0.0620
66802W        W 9715  17.065   7.940  27.376  0.1704  0.0315  0.3829
66803W        W 9716   8.224   9.401  11.568 -0.1575 -0.3149  0.2827
66804W        W 9717   4.850   7.469   1.836 -0.1807  0.2099  0.4112
66805W        W 9718   4.163   4.184   5.606  0.3119  0.1999 -0.0577
66806W        W 9719   8.367  33.507   2.806 -0.0911 -0.1195 -0.1453
66807W        W 9720   7.376  30.127   5.266  0.2594  0.0441  0.2933
66808W        W 9721  34.415   9.565   5.917 -0.0621  0.1577  0.0903
66809W        W 9722   9.904   1.503  26.347  0.1876  0.0047  0.1694
66810W        W 9723   1.847   1.729   3.390  0.0437 -0.0877  0.3533
66811W        W 9724  27.858   7.683   2.132  0.0517 -0.1259 -0.2860
66812W        W 9725   3.749   7.470  29.400 -0.3241 -0.2990  0.0591
66813W        W 9726   8.492   5.153   6.981 -0.0927 -0.0840 -0.1362
66814W        W 9727  32.135   1.698  19.443 -0.0622 -0.2123  0.0324
66815W        W 9728   7.642   8.879   8.068 -0.1468 -0.3104  0.3267
66816W        W 9729   8.880   7.900   4.466 -0.3310  0.1602  0.3223
66817W        W 9730  17.874   3.979   9.083  0.1648 -0.0595 -0.2126
66818W        W 9731  14.373  31.564  10.379  0.1706  0.0095  0.2366
66819W        W 9732   3.839   0.919   9.641 -0.4729 -0.0435  0.1529
66820W        W 9733   1.387  28.716  10.350  0.2857  0.0987 -0.2566
66821W        W 9734   2.392  32.197  29.357 -0.3825 -0.0459 -0.2967
66822W        W 9735   7.446   4.083  10.854  0.1163 -0.3537  0.5169
66823W        W 9736   5.043   1.027  22.878  0.1315  0.2030 -0.2065
66824W        W 9737   2.956  32.365   9.099  0.0575  0.0883  0.3010
66825W        W 9738   7.550   6.246   9.052  0.0535 -0.0592 -0.3840
66826W        W 9739   7.511   2.709  11.904  0.1542  0.1470 -0.1628
66827W        W 9740   5.262  31.696   7.496 -0.1411 -0.2697  0.1610
66828W        W 9741   4.207   5.870  11.128  0.2078  0.0895 -0.3672
66829W        W 9742   5.968   3.399   8.592  0.0328  0.1629 -0.4053
66830W        W 9743   1.374  31.063   1.900  0.1335 -0.2535  0.1907
66831W        W 9744  32.083   9.231   0.611  0.0111 -0.4426 -0.1926
66832W        W 9745   5.357  32.849   7.547 -0.2635  0.0273  0.0220
66833W        W 9746   6.849   3.447  12.648  0.2181  0.1291  0.0167
66834W        W 9747  33.671   2.666  10.572  0.0012 -0.2120 -0.1566
66835W        W 9748   6.531   5.532  11.508 -0.1294  0.1332 -0.2064
66836W        W 9749   4.742  29.862  26.303 -0.0915 -0.0291 -0.0057
66837W        W 9750   3.329  33.266   5.422 -0.1551 -0.0392 -0.0345
66838W        W 9751  34.344  12.868   8.662 -0.3742  0.0305 -0.0130
66839W        W 9752   3.289   6.127   1.514  0.1563 -0.0319  0.0230
66840W        W 9753   1.339  28.845   7.948 -0.0292 -0.0846 -0.1068
66841W        W 9754  32.744  12.241  25.481  0.2134 -0.2459 -0.0259
66842W        W 9755  33.045   6.689   5.703 -0.1284  0.0470  0.1243
66843W        W 9756  32.353  14.397  29.151 -0.1879  0.0930 -0.0353
66844W        W 9757   4.295   3.384  12.270 -0.1234 -0.0738  0.0552
66845W        W 9758  10.283  16.424   9.270 -0.0430  0.0217  0.2055
66846W        W 9759   2.973  29.894   0.163  0.1661 -0.0711 -0.4042
66847W        W 9760   8.262  11.537   5.131 -0.1234  0.0483  0.2900
66848W        W 9761   6.417   7.352   6.313 -0.2208  0.3545 -0.3328
66849W        W 9762  10.515  24.219   6.689  0.1533 -0.0751  0.1820
66850W        W 9763   7.306   4.913  11.194 -0.0879  0.3397  0.1645
66851W        W 9764  31.396  19.612   4.683  0.1072  0.0728  0.0765
66852W        W 9765  23.666  29.013  22.640  0.0000 -0.0383 -0.0348
66853W        W 9766   7.992  33.452   9.745 -0.3658  0.0201 -0.0592
66854W        W 9767  32.864  28.229   2.108  0.1076  0.1915 -0.1210
66855W        W 9768  15.606   1.391   8.373  0.2983 -0.1312  0.1731
66856W        W 9769  10.847   9.654   6.847  0.0770 -0.1322 -0.0076
66857W        W 9770   1.880   4.122   5.916 -0.0902  0.0167  0.3484
66858W        W 9771  11.880   3.084  28.164  0.1383 -0.1471 -0.1314
66859W        W 9772   2.987   5.451  10.734  0.1820 -0.1379 -0.0712
66860W        W 9773   6.313   4.326   2.362 -0.3221  0.1725  0.1266
66861W        W 9774   0.392  31.725   7.652  0.0022  0.4693  0.3223
66862W        W 9775   9.731  33.444  28.562 -0.1060  0.0624  0.3228
66863W        W 9776   4.251  27.921  24.312  0.1014 -0.0699  0.2838
66864W        W 9777  30.998  13.429   8.071  0.0124  0.0727 -0.0588
66865W        W 9778  11.984   3.109   6.923 -0.1199  0.1176 -0.0641
66866W        W 9779   1.378  12.144  19.149  0.1218 -0.1138  0.1296
66867W        W 9780  14.646  33.681   7.342  0.0283  0.3572 -0.2465
66868W        W 9781  20.127  10.660   7.734 -0.2751 -0.0135 -0.1526
66869W        W 9782  20.562  10.301   4.674  0.1208  0.0311  0.1174
66870W        W 9783   5.035   1.594  11.857  0.0131  0.3122  0.0572
66871W        W 9784   6.042  31.987   3.324 -0.1901 -0.1761 -0.0414
66872W        W 9785   3.854  32.116   8.924 -0.1168 -0.1743  0.0066
66873W        W 9786   6.795   8.316   6.966 -0.3519 -0.1712  0.3147
66874W        W 9787  13.252   4.164   9.265 -0.1789  0.0241  0.0114
66875W        W 9788  12.386   6.625   2.596 -0.0938 -0.0145  0.0884
66876W        W 9789  15.922  30.490   9.346 -0.0071  0.2590  0.2491
66877W        W 9790   5.283  31.916   8.425 -0.0392  0.3966  0.1115
66878W        W 9791  12.068   5.060   8.995 -0.2396  0.0097 -0.3448
66879W        W 9792   6.771   8.738   0.864  0.0633  0.0369 -0.3087
66880W        W 9793   2.324   7.692   6.570 -0.0045  0.1758 -0.0938
66881W        W 9794   0.781   7.048   1.506 -0.3374  0.0480  0.0296
66882W        W 9795  11.859   4.623   0.361  0.0695 -0.0532 -0.2715
66883W        W 9796   0.441  31.687   1.203 -0.1239 -0.1326  0.1343
66884W        W 9797  16.814   8.991   5.482 -0.0447  0.2506 -0.2365
66885W        W 9798   6.663   4.640   8.892  0.3703 -0.0826  0.3350
66886W        W 9799   5.621  10.416  11.039  0.1935  0.4043  0.1201
66887W        W 9800  14.883  31.648   2.025 -0.1572 -0.1574 -0.0970
66888W        W 9801   3.635   0.439   3.464 -0.3569 -0.0670 -0.3833
66889W        W 9802   0.889  10.249   0.950  0.1570  0.0624 -0.0433
66890W        W 9803  23.808   0.427  27.650 -0.1408  0.0611 -0.0118
66891W        W 9804  11.513  26.466   1.603 -0.0464  0.0859 -0.2102
66892W        W 9805  28.868   5.605   1.539 -0.2792 -0.3100  0.0104
66893W        W 9806   5.357   2.871   8.034  0.0251  0.0963 -0.0625
66894W        W 9807   9.214   4.153  10.731 -0.3800 -0.2955  0.2751
66895W        W 9808  10.935   1.240   0.501 -0.0250 -0.2181 -0.1003
66896W        W 9809   6.610  28.636  27.818 -0.1535  0.2543  0.0700
66897W        W 9810   9.018   3.090  10.825 -0.1531 -0.1533 -0.0721
66898W        W 9811  12.720  23.563   7.043 -0.0608  0.0651 -0.0872
66899W        W 9812   8.777  32.884  10.224  0.0671 -0.1871 -0.2777
66900W        W 9813  12.712  28.201   6.657 -0.5558 -0.0166 -0.0470
66901W        W 9814  16.514  34.426   8.989 -0.0238 -0.0979  0.1908
66902W        W 9815  12.345   3.364  11.168 -0.0826 -0.0189 -0.1625
66903W        W 9816   5.969  31.098  10.532  0.2503 -0.0564  0.0851
66904W        W 9817   0.334  30.571  27.243 -0.0768 -0.1691  0.0515
66905W        W 9818   2.071  13.110   1.796 -0.0418 -0.0551 -0.1306
66906W        W 9819  13.157  11.382   0.634  0.0804 -0.0030 -0.2022
66907W        W 9820   2.744  12.024   3.974 -0.0184  0.2776 -0.0335
66908W        W 9821   0.995   3.084  12.213 -0.1635  0.0667  0.0679
66909W        W 9822  31.240   2.501  10.323 -0.0236  0.0551  0.4445
66910W        W 9823   2.787  29.295   9.667 -0.0885  0.1460 -0.0573
66911W        W 9824  10.149   1.697  13.081  0.0339  0.0047  0.1472
66912W        W 9825  28.966   5.034   8.212  0.1146 -0.1310 -0.2657
66913W        W 9826  11.508  31.389  11.836  0.0681 -0.0651 -0.4858
66914W        W 9827  14.730  31.441   7.164  0.0475  0.0061  0.1226
66915W        W 9828   7.245   8.396   8.782  0.2397  0.0006 -0.2010
66916W        W 9829  14.057   7.155   0.199 -0.0604  0.1291 -0.0373
66917W        W 9830   2.063   4.863   8.337  0.2495 -0.0930  0.2178
66918W        W 9831  28.042  11.487  24.593  0.1976  0.0729  0.1339
66919W        W 9832   9.244   8.124   4.179  0.0834  0.2025  0.2477
66920W        W 9833  34.141   6.453  26.879 -0.0108  0.0943 -0.2014
66921W        W 9834   3.853   5.441   4.563 -0.0997 -0.0850 -0.1261
66922W        W 9835   3.507  25.032   5.423  0.0199  0.1324 -0.0282
66923W        W 9836   3.385  26.665   9.575 -0.2540 -0.0500  0.1043
66924W        W 9837  34.333  33.401   7.603  0.1449 -0.1882 -0.1169
66925W        W 9838  11.854  31.867  22.668  0.2273  0.0686  0.0108
66926W        W 9839   2.303   0.903  10.323  0.1731  0.1378  0.1576
66927W        W 9840  18.837  10.162   4.707 -0.0901 -0.0105 -0.1036
66928W        W 9841   1.856  20.787   1.090  0.0666  0.1833 -0.0118
66929W        W 9842  18.028  30.945  29.214 -0.1342 -0.3902 -0.1832
66930W        W 9843   5.191  14.403  26.775 -0.0102 -0.2098  0.0989
66931W        W 9844   8.204  14.303  27.033  0.2354 -0.0484  0.1265
66932W        W 9845  10.401   8.878  10.088  0.0607  0.0302  0.2533
66933W        W 9846  28.577  28.022  26.938 -0.0518  0.1149 -0.0066
66934W        W 9847  29.204   1.630   3.644  0.0413  0.0773  0.2677
66935W        W 9848  26.492   3.436   6.088  0.0558 -0.0700  0.0856
66936W        W 9849   3.964  27.001   8.784  0.2395  0.2030  0.3938
66937W        W 9850   6.776   7.579   5.717  0.0513 -0.0821  0.1193
66938W        W 9851   9.533   3.153   8.176 -0.0954 -0.0735 -0.0895
66939W        W 9852   3.973  32.317   3.012 -0.0960 -0.3113  0.1713
66940W        W 9853  34.063  18.218   2.661 -0.0765  0.1712 -0.0928
66941W        W 9854   5.807   8.111  11.228  0.2747  0.0255  0.0206
66942W        W 9855   2.777   4.795  10.130 -0.1773  0.2245 -0.0400
66943W        W 9856   5.860  34.082  11.130 -0.2064 -0.0802 -0.1685
66944W        W 9857  33.247   6.628   4.531 -0.1213 -0.3542 -0.0553
66945W        W 9858  15.283   3.371   4.641  0.0385 -0.0432  0.0528
66946W        W 9859   6.721   5.045  10.918 -0.1459  0.3253 -0.0214
66947W        W 9860   8.214   4.352  14.080  0.2143  0.1716 -0.2846
66948W        W 9861  13.962   9.829   7.364  0.2850 -0.1436  0.2028
66949W        W 9862   8.207  32.354   8.662  0.0244  0.0146 -0.5046
66950W        W 9863   8.041  24.678   2.243 -0.0573  0.1077  0.2612
66951W        W 9864   5.801  18.724   6.426 -0.0016  0.0478 -0.1895
66952W        W 9865   7.481   8.178  12.119  0.2141  0.2774 -0.0332
66953W        W 9866   8.380   4.746   5.249  0.1658 -0.3555  0.0803
66954W        W 9867   0.498   3.464   4.015  0.2187  0.2059  0.2485
66955W        W 9868   3.516   5.007   6.523 -0.0058  0.1697 -0.0175
66956W        W 9869  34.108  18.007   6.052  0.3905  0.3103  0.3882
66957W        W 9870  18.653  12.985   0.607 -0.2341  0.0262 -0.1997
66958W        W 9871  11.075   9.320  10.281 -0.0540  0.0307  0.0610
66959W        W 9872   6.151   5.094   9.327 -0.1593 -0.0745 -0.1245
66960W        W 9873  10.920   2.697   3.626  0.0236 -0.2466 -0.1193
66961W        W 9874  30.631  33.775   7.028  0.0260  0.3712 -0.0476
66962W        W 9875   2.201   6.389  11.980  0.1879 -0.0155 -0.3012
66963W        W 9876   4.182   4.946   8.441 -0.1923 -0.0324 -0.0172
66964W        W 9877  31.907   6.488  24.171 -0.0431  0.1823 -0.2285
66965W        W 9878  31.628  34.258   5.954  0.1574  0.1758 -0.0505
66966W        W 9879   0.511  32.623   4.362 -0.4285 -0.0872  0.0541
66967W        W 9880   5.048   3.415  11.476 -0.1047  0.0935  0.1537
66968W        W 9881   8.409   4.101   9.957 -0.1111  0.2030  0.1219
66969W        W 9882  13.804   7.136  10.268  0.0687 -0.2114 -0.0037
66970W        W 9883  14.454   0.165  10.993 -0.4227  0.0273  0.1718
66971W        W 9884   3.803   6.326   7.794 -0.0661 -0.1835 -0.0095
66972W        W 9885   1.567   8.117   9.088  0.2459  0.0012  0.0323
66973W        W 9886  20.254   1.266  21.592 -0.0483 -0.1384 -0.0532
66974W        W 9887   1.377   6.758   6.422  0.1097 -0.0659 -0.1621
66975W        W 9888  29.193   3.434  20.168 -0.0762  0.2007  0.0635
66976W        W 9889  11.053  31.766  26.564  0.0626  0.3031  0.0538
66977W        W 9890   8.766  32.131   9.320 -0.0703 -0.1087 -0.0323
66978W        W 9891   2.032   3.474  11.736 -0.0341 -0.0231 -0.0413
66979W        W 9892   9.944   5.653   8.057  0.0269 -0.1289 -0.1233
66980W        W 9893   5.706   7.330  10.815  0.0393  0.1991 -0.0024
66981W        W 9894  13.448  32.884   5.356  0.1828  0.0283  0.1617
66982W        W 9895  34.304   7.801   7.852 -0.0492 -0.3264  0.1883
66983W        W 9896  34.067  31.243   2.378  0.2129  0.0580 -0.0889
66984W        W 9897   6.486   3.494   8.495 -0.4073  0.0472  0.1281
66985W        W 9898   8.376  29.646   8.822  0.0342 -0.0390  0.2599
66986W        W 9899   2.422  31.832   0.735  0.0753  0.0231 -0.3484
66987W        W 9900  28.146   7.796   2.687 -0.0149  0.1191  0.1234
66988W        W 9901   5.230   5.089  28.379  0.1892 -0.0181 -0.2077
66989W        W 9902   9.256   1.706  10.748  0.1955 -0.3374  0.1335
66990W        W 9903   9.409   4.711   7.006 -0.1354  0.0511  0.4833
66991W        W 9904   0.925   1.458  11.959  0.2510 -0.1254  0.0219
66992W        W 9905   3.834   2.299  10.035 -0.1262 -0.1800  0.1333
66993W        W 9906   8.422   5.439   0.280 -0.2871  0.1204 -0.0689
66994W        W 9907  31.241   7.044   4.148 -0.1012  0.1203 -0.0767
66995W        W 9908  10.919  31.233   8.861  0.1477 -0.0313 -0.0079
66996W        W 9909   3.318   6.262   8.679 -0.1593 -0.2731 -0.0673
66997W        W 9910  33.306  27.371   7.555  0.0039  0.1449 -0.1864
66998W        W 9911   8.718   7.483  29.679 -0.1162  0.1415  0.0682
66999W        W 9912   0.034  33.785   4.220 -0.2006 -0.0459 -0.3737
67000W        W 9913  14.456   8.021   7.356  0.3084  0.0556 -0.4393
67001W        W 9914   5.074   2.108  13.059  0.1648 -0.2404  0.0910
67002W        W 9915  13.754  10.920   3.367 -0.2580  0.0672  0.2620
67003W        W 9916   6.025   4.819   4.813  0.3372 -0.0206  0.2308
67004W        W 9917   9.141  32.944   9.895  0.0036  0.2443  0.0497
67005W        W 9918  11.175   5.658   9.462  0.0716  0.2431 -0.1975
67006W        W 9919   9.071   1.724   5.941  0.0390 -0.1541  0.3116
67007W        W 9920   6.255  11.275   9.461 -0.0048  0.0716  0.1359
67008W        W 9921   5.650  13.370   3.991 -0.1410  0.1912 -0.1258
67009W        W 9922   7.707   0.020  12.248 -0.1436  0.0468  0.0648
67010W        W 9923  31.071   4.080   7.818 -0.1472 -0.3043  0.2926
67011W        W 9924  34.401  26.746   9.318  0.0354  0.0894  0.0659
67012W        W 9925   0.534   1.502  11.494  0.0073 -0.2646  0.2662
67013W        W 9926   1.036  33.335   9.562 -0.0202 -0.1512 -0.0421
67014W        W 9927  10.547  30.501   9.075  0.2230  0.0827  0.0722
67015W        W 9928   2.424   1.145   5.390  0.2728  0.1625 -0.0805
67016W        W 9929   6.506   5.730   9.481 -0.1539 -0.1579 -0.1165
67017W        W 9930   6.246   2.716   8.906 -0.1558  0.1059  0.0462
67018W        W 9931   9.182   0.285   5.183  0.3118  0.1066  0.0832
67019W        W 9932  34.335  19.479   7.198  0.1614 -0.0432  0.4515
67020W        W 9933  33.677   0.606   9.528  0.3350 -0.1156 -0.2728
67021W        W 9934   3.551  30.283  10.468 -0.1835 -0.0546  0.5071
67022W        W 9935   6.470   1.713  12.431 -0.4778 -0.3589  0.1498
67023W        W 9936   9.166  26.324   9.244  0.0335  0.2030  0.1020
67024W        W 9937   6.565   4.213   9.222  0.4434 -0.1042 -0.4569
67025W        W 9938  28.381  31.870  27.760  0.2407  0.1418 -0.3980
67026W        W 9939   5.278   7.387  11.102 -0.0499  0.0583 -0.3796
67027W        W 9940   3.000  13.853   9.057 -0.0098 -0.0446 -0.0907
67028W        W 9941   6.483   2.331   6.407  0.0697 -0.2773  0.2108
67029W        W 9942  11.482   8.073  11.537 -0.0255  0.0068 -0.0387
67030W        W 9943   6.196  34.399   5.955 -0.2780  0.0702  0.2429
67031W        W 9944   4.330  31.810   3.440 -0.0516  0.1272  0.0218
67032W        W 9945  34.140   0.651  29.538  0.4030  0.4222 -0.1112
67033W        W 9946   6.165   2.471   2.664  0.1613  0.0555 -0.1382
67034W        W 9947  13.483  31.877   6.024 -0.0218 -0.0751  0.1085
67035W        W 9948   5.188   6.430   5.945 -0.2964  0.3799 -0.0830
67036W        W 9949  10.610   1.213   4.771  0.0591 -0.0596 -0.1026
67037W        W 9950  32.847  10.368   4.140  0.1572 -0.2666  0.0083
67038W        W 9951  33.245  16.140  26.657 -0.2781  0.2765  0.2497
67039W        W 9952   9.579   2.612  12.182  0.4199  0.1088 -0.4037
67040W        W 9953  14.942  32.941   8.161  0.1972 -0.4808 -0.0518
67041W        W 9954   9.872  32.446  11.156 -0.0245 -0.1005  0.1695
67042W        W 9955   6.037   4.065   9.130  0.1297  0.1445  0.1704
67043W        W 9956   8.115   0.886   6.016  0.1826  0.1763  0.0045
67044W        W 9957   2.192   9.361   9.869  0.2074  0.3399 -0.0217
67045W        W 9958   8.020   0.129   8.759 -0.0553  0.1455 -0.1572
67046W        W 9959  10.529   1.045   5.201 -0.0527  0.0198 -0.3638
67047W        W 9960   8.257   3.330   9.682 -0.3664 -0.0403 -0.0314
67048W        W 9961   2.162   7.740   9.911  0.2679  0.0336  0.2510
67049W        W 9962   6.902   2.537   6.038 -0.3249  0.0917  0.3461
67050W        W 9963   1.472   0.252   7.031  0.2071 -0.0005  0.2022
67051W        W 9964  25.628  15.324   8.397 -0.0238  0.0998  0.0214
67052W        W 9965   8.900   8.809  11.656 -0.0503 -0.1288  0.2262
67053W        W 9966  11.655   7.746   5.106 -0.0199 -0.0970 -0.2347
67054W        W 9967   9.740   0.751  12.687 -0.0952  0.1398  0.0363
67055W        W 9968  10.022  10.461  11.131 -0.0332 -0.0792  0.3315
67056W        W 9969  12.369   8.697   6.710 -0.0342 -0.1772 -0.4858
67057W        W 9970  29.737  12.215   5.624 -0.1079  0.0206 -0.0194
67058W        W 9971  10.601  29.355  10.672  0.1414 -0.0301 -0.3025
67059W        W 9972   1.194   0.203  10.111 -0.2192  0.3023  0.0122
67060W        W 9973   8.123  10.710   8.262 -0.0490 -0.0831 -0.0466
67061W        W 9974   6.509  33.534  11.628  0.3703 -0.1332  0.2443
67062W        W 9975   6.496   5.727  13.285 -0.1525 -0.0128 -0.0559
67063W        W 9976   1.297   7.930  11.094 -0.1996  0.5312  0.1740
67064W        W 9977   2.896  34.281   4.510  0.1538 -0.2817 -0.0711
67065W        W 9978  31.822   3.935   0.889  0.1662  0.1489 -0.1623
67066W        W 9979   4.473  27.768   9.387  0.2219 -0.3699 -0.1232
67067W        W 9980   1.815  32.520   9.544  0.2497 -0.1562 -0.0931
67068W        W 9981  11.590   6.977  12.195  0.0776  0.1821  0.0176
67069W        W 9982   7.459   8.429   9.222  0.2508 -0.1500 -0.2127
67070W        W 9983  32.241  31.893   3.972  0.0980  0.0900 -0.0048
67071W        W 9984  30.354  11.602   2.838  0.0402  0.1535  0.0782
67072W        W 9985  11.734   9.269   9.368  0.0057  0.0255 -0.1804
67073W        W 9986   5.355  34.056   5.944 -0.0132  0.0361 -0.1799
67074W        W 9987   6.987  32.654   6.186 -0.1840 -0.1131  0.1966
67075W        W 9988   8.101   3.145   8.229 -0.0311 -0.1077 -0.2731
67076W        W 9989   5.501  33.363  10.174  0.0599  0.1387 -0.0396
67077W        W 9990   7.478  29.638   3.279  0.0180  0.1630 -0.0385
67078W        W 9991  12.011   0.365  28.981 -0.2390  0.1476  0.1003
67079W        W 9992   6.798  10.856   9.509  0.0761  0.0905  0.2156
67080W        W 9993  32.399  34.137  10.805 -0.2038 -0.1207 -0.0572
67081W        W 9994   7.192  29.859   9.794  0.1100 -0.2215  0.2785
67082W        W 9995   8.655   4.518   7.532 -0.1887 -0.1718 -0.1463
67083W        W 9996   5.478   9.331   9.137  0.3067 -0.2703 -0.0735
67084W        W 9997   6.986   3.236  11.303  0.2274  0.1607 -0.0543
67085W        W 9998   4.883  30.805   5.905 -0.0712 -0.1779 -0.0389
67086W        W 9999  11.743  32.139   2.417 -0.2161 -0.3785  0.0866
67087W        W10000   4.427   1.863   2.127 -0.2457  0.1268  0.1547
67088W        W10001   8.711   1.806  11.992  0.0495 -0.0702  0.2601
67089W        W10002   9.053   5.383  11.270  0.0284  0.1515  0.0296
67090W        W10003   8.407  33.130   4.855  0.0089 -0.1432  0.1587
67091W        W10004  10.557  32.359  26.114 -0.0127  0.0976  0.4898
67092W        W10005  23.018  33.117   4.230  0.1661 -0.2298  0.2650
67093W        W10006  34.390  12.159   7.740 -0.3644 -0.0816  0.1329
67094W        W10007   3.987   4.019   9.532 -0.1216 -0.1485  0.0444
67095W        W10008   8.503   9.119   7.502  0.1103 -0.4362 -0.0925
67096W        W10009  33.510   1.538   7.920  0.3919 -0.0451  0.2466
67097W        W10010  13.117  32.559  11.542  0.3602  0.1061  0.1844
67098W        W10011   3.741  28.974   7.606 -0.1148  0.0898  0.0363
67099W        W10012  11.368   8.952   6.426 -0.0154 -0.0573 -0.1147
67100W        W10013   4.123   1.858  10.165 -0.1645 -0.1437 -0.1593
67101W        W10014  33.552  12.252   3.168 -0.3278 -0.2888  0.0932
67102W        W10015   0.659   5.768   5.385  0.1912 -0.0091 -0.1080
67103W        W10016  11.623   7.332   9.357 -0.0609  0.2248  0.0796
67104W        W10017   6.207   4.524  25.803 -0.3168 -0.4461 -0.2970
67105W        W10018  12.461   3.467   1.864  0.1442  0.4904  0.4858
67106W        W10019   9.314  30.159   0.322 -0.2645  0.1454 -0.2180
67107W        W10020   6.483  30.916   2.932 -0.0204  0.3621 -0.1718
67108W        W10021  31.934  32.771   9.214  0.2831 -0.0514  0.0775
67109W        W10022  13.125   0.217  10.443 -0.0464  0.2119 -0.0723
67110W        W10023   9.956   3.343  12.918 -0.0347  0.1180 -0.2597
67111W        W10024   6.459   6.718  13.661 -0.0430 -0.0715  0.2274
67112W        W10025   9.760  33.465   5.646 -0.4118  0.1165 -0.1599
67113W        W10026  32.198   5.616  11.334 -0.0521 -0.2198  0.0085
67114W        W10027  13.284   7.528   7.108  0.0153  0.1111  0.1383
67115W        W10028  17.964   2.925   9.940 -0.0086 -0.0189 -0.1217
67116W        W10029  12.193  14.745   4.605 -0.0184 -0.1018  0.2153
67117W        W10030  13.120  16.083   7.128  0.1907 -0.0111 -0.1130
67118W        W10031   7.930  16.047   9.917 -0.1317  0.0172  0.1077
67119W        W10032  29.892   1.861  27.517 -0.0605  0.0120  0.2941
67120W        W10033  11.289  14.803   8.081 -0.0728  0.0948 -0.1456
67121W        W10034   0.898   3.884  11.974  0.4084  0.2075 -0.1459
67122W        W10035   6.692  10.559   5.543 -0.3379 -0.1155 -0.2417
67123W        W10036  13.081   0.964  10.883 -0.2490  0.1566  0.2445
67124W        W10037   2.998   1.433  28.258  0.1659 -0.2461  0.0103
67125W        W10038   5.279  25.005  10.556  0.2208 -0.0422  0.0076
67126W        W10039   4.820  28.611   3.821  0.2676 -0.5072  0.0239
67127W        W10040   4.555   9.171  11.710 -0.2315 -0.3737 -0.1261
67128W        W10041   9.834  14.416   1.980 -0.0769  0.0234 -0.0663
67129W        W10042   5.916  28.238   8.492  0.2389 -0.0771  0.2792
67130W        W10043   6.312   8.341   7.207 -0.0644  0.0868  0.0753
67131W        W10044   8.496   7.528   9.885  0.0009  0.2075  0.0426
67132W        W10045   4.800  10.662   7.402 -0.0918 -0.0055 -0.1369
67133W        W10046   2.205  12.994  10.401 -0.0342  0.0956  0.2550
67134W        W10047  15.142  32.850   7.451  0.0116  0.0810 -0.1646
67135W        W10048   6.363   7.008   7.103 -0.2769  0.1771  0.0269
67136W        W10049   4.634   0.110   7.766  0.0488  0.2270 -0.2581
67137W        W10050   8.615  31.709  10.249  0.0843 -0.0050 -0.1857
67138W        W10051  11.722   1.703  10.050  0.1451 -0.0265  0.0056
67139W        W10052   8.867   8.961   1.415 -0.0606  0.0747 -0.1406
67140W        W10053  10.770  30.516  11.344  0.5657 -0.0126  0.1871
67141W        W10054   5.103   5.905  29.228 -0.0204  0.1457 -0.3226
67142W        W10055  31.898  14.364   7.136  0.0533  0.1077  0.3440
67143W        W10056  33.117   7.568   8.674  0.2313 -0.0032 -0.0654
67144W        W10057   4.764  15.716   5.040 -0.0930 -0.0305 -0.1762
67145W        W10058   5.705  33.885  11.836  0.1552 -0.3993  0.0522
67146W        W10059   0.542  10.638   6.082  0.0156 -0.3383  0.1543
67147W        W10060   4.456   0.794   2.421  0.1209  0.0130  0.4574
67148W        W10061   1.638  34.081   4.551 -0.3085  0.1273  0.3558
67149W        W10062  11.704   8.942   7.490  0.0973 -0.2397 -0.1218
67150W        W10063   3.036   7.456   6.395 -0.1786 -0.0511  0.0239
67151W        W10064  32.137   5.714  27.191  0.0457  0.1240  0.2359
67152W        W10065  19.773   2.524   8.033  0.2951 -0.0682  0.0567
67153W        W10066  14.577   2.078  27.064 -0.1159  0.2415  0.1540
67154W        W10067   5.792   2.061  11.688 -0.3193 -0.1697  0.0715
67155W        W10068  15.390   8.861   3.147  0.0191 -0.1389  0.1362
67156W        W10069   9.771   3.765  12.598  0.4231  0.2032  0.2498
67157W        W10070   4.904  34.147   8.642 -0.0580  0.0549 -0.1714
67158W        W10071  14.752  32.903  24.779  0.3528  0.0075  0.0761
67159W        W10072  17.114  24.497   6.723 -0.0274  0.0706 -0.1482
67160W        W10073   8.543  11.046  10.595  0.0606 -0.2193 -0.0806
67161W        W10074   5.825  34.174  10.641 -0.0721  0.0735 -0.0526
67162W        W10075   3.859   2.874   6.064  0.1295  0.0062  0.0986
67163W        W10076  34.230  31.193   4.279  0.1545 -0.3724  0.2863
67164W        W10077   6.202   4.496  13.853  0.0895 -0.0487 -0.1575
67165W        W10078  31.794   9.294   8.673 -0.0271 -0.1146 -0.4113
67166W        W10079   3.818   6.407  12.079  0.2660 -0.0112 -0.1380
67167W        W10080   6.391  33.947   5.846 -0.1640  0.0591  0.0573
67168W        W10081   5.921  31.967   4.090 -0.1733  0.0396  0.2990
67169W        W10082   1.936   6.181   1.648  0.1115 -0.3545 -0.1566
67170W        W10083   4.012   5.002  10.715 -0.1100 -0.1845 -0.1428
67171W        W10084  31.272   7.442  10.634  0.1647  0.2911 -0.1342
67172W        W10085   9.003  27.384   0.113 -0.1661  0.0820  0.1684
67173W        W10086   5.846   3.015  10.327 -0.0479 -0.5622 -0.2653
67174W        W10087  11.136  25.283   9.878 -0.1031  0.0733 -0.1993
67175W        W10088   2.421  31.226   6.316 -0.3235 -0.1863  0.1153
67176W        W10089   9.291   6.106   3.778  0.0417 -0.1703 -0.0631
67177W        W10090   3.001  34.278   7.304 -0.0824 -0.1017  0.1117
67178W        W10091   5.921  25.752   9.050 -0.1657  0.0964  0.0077
67179W        W10092   8.509  34.264   9.084  0.4306  0.0331 -0.1689
67180W        W10093   6.111   4.056   6.951 -0.2529 -0.2508 -0.1015
67181W        W10094  26.374  32.451   5.016 -0.0007 -0.1635 -0.1186
67182W        W10095   0.086   1.597   6.922  0.1566 -0.0560  0.2752
67183W        W10096  30.613  29.013   8.000  0.3180 -0.0563 -0.3392
67184W        W10097   6.214  29.674  10.235 -0.1013 -0.0930 -0.0130
67185W        W10098   8.888  12.252   5.748  0.4527 -0.0565  0.1439
67186W        W10099   5.383   2.834  10.086  0.1283 -0.0770  0.1405
67187W        W10100  18.096   0.431  10.423 -0.0717  0.2901  0.4314
67188W        W10101  22.626   0.837   3.610 -0.3151  0.1445  0.1277
67189W        W10102  11.246   6.852  28.680  0.0943 -0.2989 -0.0790
67190W        W10103  32.993   7.843  10.130 -0.0802  0.1076 -0.2389
67191W        W10104   8.202  31.254  11.423  0.1726  0.0676 -0.0421
67192W        W10105   1.221   4.522  11.198  0.0676  0.1961 -0.1377
67193W        W10106  28.430   7.098   6.890  0.2072 -0.0444  0.0062
67194W        W10107   5.244  11.993   5.050 -0.0292 -0.0503 -0.2947
67195W        W10108   2.783   8.403   6.502  0.1138 -0.2946  0.0585
67196W        W10109   9.234   1.597   2.903 -0.0944 -0.1039  0.1205
67197W        W10110  27.428  32.116   9.696  0.3607 -0.2383 -0.3043
67198W        W10111  13.539   7.889   6.108  0.2471 -0.2609 -0.1760
67199W        W10112   8.573  31.368   9.097  0.1545 -0.0683 -0.0344
67200W        W10113  16.078   3.905  11.067 -0.1756  0.2545  0.0926
67201W        W10114   6.086   1.626  10.795  0.1105 -0.1007 -0.1833
67202W        W10115   0.714   5.458  10.120 -0.1028  0.0326  0.3967
67203W        W10116   7.312   8.013   5.502  0.0073  0.1453 -0.1113
67204W        W10117  32.881  31.538   8.726 -0.0264 -0.4162 -0.1613
67205W        W10118  10.721   6.012   7.012  0.3148  0.1665 -0.0008
67206W        W10119   2.192  33.658   0.984 -0.0517  0.0191  0.0804
67207W        W10120  14.261   0.639   9.814 -0.2584 -0.3775  0.1977
67208W        W10121   9.748  32.280   5.461 -0.1086  0.0065 -0.0411
67209W        W10122   9.562  31.317   4.470  0.2159 -0.0173 -0.0396
67210W        W10123   3.575   2.418   7.852 -0.1066 -0.1551  0.1893
67211W        W10124   3.184  11.771   6.221  0.2168  0.0478 -0.0266
67212W        W10125   2.220   8.255   3.059  0.0993 -0.1700 -0.2337
67213W        W10126   4.371  14.162   8.636 -0.1682 -0.0173 -0.1400
67214W        W10127   5.995   2.027   0.108 -0.1318  0.1550  0.3036
67215W        W10128  31.913  26.322   4.467 -0.1005  0.0365  0.1216
67216W        W10129   0.122   1.381  11.324  0.2954 -0.1152  0.2040
67217W        W10130  10.387  30.635   3.995  0.3030  0.2632  0.3251
67218W        W10131   5.259  32.925  25.722 -0.0033 -0.0845 -0.1128
67219W        W10132   0.409   3.626   6.019  0.3009  0.1496  0.3617
67220W        W10133   2.049   8.162   3.732 -0.1825 -0.1058 -0.1166
67221W        W10134   6.903   3.548  11.864  0.2237  0.1686 -0.1159
67222W        W10135  14.952  22.861   1.528 -0.2130 -0.0869  0.0184
67223W        W10136   1.107   6.903  26.193  0.1393 -0.1412  0.2907
67224W        W10137   2.184   5.284  28.415 -0.2448 -0.1499  0.0685
67225W        W10138   8.780   5.224  13.519  0.1619 -0.2691  0.2037
67226W        W10139  13.164   6.854   2.260  0.1123  0.2722 -0.0353
67227W        W10140  32.994  12.034  28.172 -0.1191 -0.0492 -0.2224
67228W        W10141  16.613   9.572   2.411 -0.0041  0.0153 -0.0628
67229W        W10142  26.334   9.362   8.506 -0.1751 -0.1378  0.0199
67230W        W10143  11.513  18.088  23.962  0.0096 -0.2679  0.0480
67231W        W10144   7.607  10.131  11.125  0.0667 -0.1360 -0.2615
67232W        W10145   7.421   8.224  19.897 -0.1526 -0.1138 -0.1191
67233W        W10146  10.297   5.152   2.090 -0.0632  0.2393  0.1542
67234W        W10147  28.488   2.139  22.549 -0.0781 -0.1811  0.1087
67235W        W10148  33.878  10.441  29.556 -0.2011 -0.1563 -0.1063
67236W        W10149   0.016  29.304  29.584 -0.1595 -0.0060  0.0721
67237W        W10150   8.911  33.347   0.778 -0.2451 -0.4469  0.1890
67238W        W10151  27.703   1.446   4.625  0.2141  0.0266  0.1631
67239W        W10152   5.673   6.774  23.841  0.1347 -0.0328 -0.1056
67240W        W10153  10.285   7.803  22.253 -0.3013 -0.2758  0.0879
67241W        W10154  10.412   9.515   3.692 -0.1674 -0.0398 -0.1194
67242W        W10155   4.860  30.755  23.606 -0.0047 -0.0901 -0.0415
67243W        W10156  34.078  17.806  27.079  0.0039 -0.2602 -0.1221
67244W        W10157  32.572   9.454   4.188 -0.0255  0.1074 -0.0047
67245W        W10158   6.128   1.841  26.809 -0.1863  0.2009 -0.0595
67246W        W10159   5.822  12.875   4.874 -0.0570  0.0636  0.0388
67247W        W10160   6.647  13.136   3.843  0.1433 -0.0480 -0.1366
67248W        W10161   8.414  12.268  28.513  0.1072  0.0387  0.4083
67249W        W10162   2.637   9.194  28.382 -0.3022  0.1648  0.1685
67250W        W10163   5.638  10.376   8.899  0.1154  0.0679  0.0276
67251W        W10164   6.362   6.350   4.943  0.0933 -0.2561 -0.3471
67252W        W10165   3.392   3.315   8.918 -0.1957  0.0483 -0.3004
67253W        W10166   5.413  28.917  28.810 -0.2343 -0.2951 -0.1942
67254W        W10167  16.051   0.029   0.218  0.1836  0.0840  0.1258
67255W        W10168  14.819   3.542   5.001 -0.4165 -0.3029 -0.1169
67256W        W10169  15.834  11.090   2.768  0.1857 -0.5126  0.0534
67257W        W10170  12.944   7.786  27.526 -0.0880  0.0161  0.0360
67258W        W10171   8.919   6.275  10.705 -0.0398 -0.1261 -0.1472
67259W        W10172   0.098  16.138  22.265  0.0690  0.1273  0.1149
67260W        W10173   1.355   5.871  25.228 -0.2854  0.0450 -0.0339
67261W        W10174   9.253   2.450   8.859 -0.2691 -0.2970  0.0026
67262W        W10175   4.733   4.696  27.748 -0.0179 -0.1233 -0.2614
67263W        W10176   5.947  28.883   5.091  0.4339  0.0113 -0.0333
67264W        W10177   2.581  31.729  26.548  0.1068 -0.0535 -0.2241
67265W        W10178   3.516   1.490  24.630 -0.0371 -0.2846  0.0718
67266W        W10179   1.702   4.227  22.479  0.4974  0.0280 -0.1138
67267W        W10180  24.487  33.639   9.270 -0.1192  0.4682  0.1675
67268W        W10181   4.016  33.988  28.694 -0.4774 -0.0405  0.3402
67269W        W10182   1.463   6.031   2.482  0.0489 -0.0262  0.0196
67270W        W10183  10.515   8.005  20.091 -0.1214  0.2687 -0.3432
67271W        W10184  11.765   2.345   4.731 -0.0584  0.1491 -0.1079
67272W        W10185   9.353  33.353   1.668  0.1455  0.0095 -0.1070
67273W        W10186   3.790   1.059  28.838 -0.0897  0.2159 -0.0883
67274W        W10187   1.746   6.230  23.475 -0.1208  0.1203 -0.4174
67275W        W10188   1.865  10.640   4.143  0.1146  0.2631 -0.0871
67276W        W10189   4.171   6.727   1.615 -0.2968 -0.2183 -0.1310
67277W        W10190   6.451   1.935  24.584  0.1276 -0.0827  0.0328
67278W        W10191   5.034   5.659   4.093 -0.1023  0.0251  0.2334
67279W        W10192  18.086  12.380  20.540 -0.4335  0.1641 -0.1096
67280W        W10193   3.405   2.138   2.104 -0.1339  0.3274  0.0652
67281W        W10194  11.546  15.299  23.160 -0.3703 -0.0262  0.1031
67282W        W10195   7.317   2.647  10.590  0.1142  0.1376 -0.0285
67283W        W10196   3.161  16.077  26.751  0.0632 -0.1899  0.1162
67284W        W10197   9.839   6.795   7.809  0.2612  0.0630  0.1057
67285W        W10198  31.007   4.799  20.839  0.1301  0.1580  0.2597
67286W        W10199   2.186   8.841  21.045 -0.0243 -0.3614 -0.1222
67287W        W10200  10.529  30.763  24.027  0.0055  0.0007  0.0261
67288W        W10201   0.623   2.922  11.640  0.0578  0.0180 -0.1465
67289W        W10202   2.074   7.404   1.426  0.1689  0.0563 -0.1710
67290W        W10203  12.806  33.763   6.601  0.1765  0.3056 -0.0732
67291W        W10204  15.444   5.945  26.425 -0.0450 -0.4599  0.1313
67292W        W10205   2.626  30.180   7.386 -0.1752 -0.2616  0.0538
67293W        W10206   4.337   4.839  21.248  0.0581 -0.0729  0.0470
67294W        W10207  12.967  15.269  29.302 -0.1076  0.0962  0.1112
67295W        W10208   1.549  24.484   2.058  0.0614  0.0491 -0.1618
67296W        W10209  34.414   6.811  22.358 -0.2612  0.1659  0.0288
67297W        W10210  12.900   2.081   4.624 -0.2546  0.1687 -0.1270
67298W        W10211  32.462  10.975  26.431 -0.0474  0.1149  0.2967
67299W        W10212  13.452   1.952   3.342 -0.0168  0.0198  0.1347
67300W        W10213   2.300  18.425   5.330  0.1819  0.1462 -0.1288
67301W        W10214  32.873   5.900  25.020  0.2503 -0.0942  0.0351
67302W        W10215   0.541  11.038  26.819 -0.2652 -0.1623 -0.2062
67303W        W10216  10.590   6.908  21.905  0.1101  0.3999  0.1074
67304W        W10217  11.873   0.270  26.553  0.0357  0.3845  0.0722
67305W        W10218  12.104   5.839   1.140 -0.0259  0.3343 -0.0018
67306W        W10219   3.661  26.513   2.650 -0.1958  0.0451  0.0123
67307W        W10220   6.042  32.721   1.997 -0.2361 -0.2967 -0.0672
67308W        W10221   8.510  10.280   8.225 -0.2899  0.0035  0.3366
67309W        W10222   6.320  32.157   0.404  0.0966  0.1585 -0.0600
67310W        W10223   6.524  34.297  28.567 -0.1835 -0.1412 -0.2690
67311W        W10224   5.644  12.168   3.711 -0.0377 -0.1146 -0.1021
67312W        W10225   5.981   0.892   3.883 -0.0161 -0.0268 -0.1082
67313W        W10226  34.481  10.444   7.397  0.1159 -0.0815  0.0917
67314W        W10227  18.384   7.556   5.674 -0.1397 -0.3897  0.0769
67315W        W10228  33.902  23.372   0.803 -0.0117 -0.0416 -0.2372
67316W        W10229  32.013   1.222   9.797 -0.2854  0.0918  0.2521
67317W        W10230   6.766  32.921   7.638  0.1672  0.0851  0.0013
67318W        W10231   3.817   4.721   6.783  0.0823 -0.2233  0.0953
67319W        W10232   5.107   1.860  10.866  0.0907  0.2818 -0.1390
67320W        W10233   2.330  11.015  21.374 -0.1358 -0.0663 -0.1007
67321W        W10234   7.697  10.984  27.576  0.1981  0.0094 -0.1881
67322W        W10235  15.138   4.548  20.688  0.1703  0.1779 -0.0861
67323W        W10236  31.908  12.307   1.707  0.0325 -0.1413 -0.1792
67324W        W10237   5.997   6.830  29.483  0.1011 -0.1974  0.1717
67325W        W10238   7.547   0.374  25.138 -0.0985 -0.0070 -0.3901
67326W        W10239   8.503   8.356  26.602 -0.2590 -0.0726 -0.0936
67327W        W10240   3.591  33.855  25.339  0.2367  0.0218  0.2580
67328W        W10241   6.893  13.862  10.418 -0.0304  0.4093  0.1792
67329W        W10242  33.888  13.260  28.378  0.2291  0.0120 -0.1957
67330W        W10243   0.736   9.522  11.377 -0.0602  0.1066  0.1105
67331W        W10244   7.074  27.726  26.459  0.1529  0.0088 -0.3659
67332W        W10245  33.476   7.109  28.678  0.2826  0.1393 -0.0338
67333W        W10246  12.699   8.327   2.740 -0.3095  0.1982 -0.4098
67334W        W10247   1.150   6.627   5.252  0.0126  0.3714 -0.1398
67335W        W10248  34.347  14.924  27.979 -0.3561 -0.0770 -0.4380
67336W        W10249  33.002  30.141   6.352 -0.1514  0.0439 -0.1188
67337W        W10250   5.078   1.800   7.241  0.1482  0.0283  0.1727
67338W        W10251  15.349  29.864  26.006  0.0290  0.1348 -0.2261
67339W        W10252  13.893  26.043  23.987 -0.0775 -0.0087 -0.1314
67340W        W10253   6.857   5.435  10.549 -0.1448 -0.0820 -0.0825
67341W        W10254  33.503   5.484  28.148  0.2795  0.0083  0.0048
67342W        W10255   6.182   1.204  24.674  0.4306  0.0273  0.1753
67343W        W10256  15.150  10.045  28.779  0.2618  0.0922 -0.2530
67344W        W10257  10.886  11.533  25.520 -0.1750  0.0513 -0.2601
67345W        W10258  18.217  31.669   3.954  0.0283  0.0952  0.1113
67346W        W10259   9.606   7.420  29.458 -0.0004 -0.5296  0.2185
67347W        W10260   6.915  11.688   0.083 -0.0635 -0.1256 -0.1138
67348W        W10261   9.757   7.018  23.591 -0.0920  0.1235  0.0783
67349W        W10262  34.030   9.811  23.336 -0.0951 -0.2796  0.1155
67350W        W10263   7.919   2.577   3.758  0.0508  0.1358  0.0341
67351W        W10264   8.054   4.054   7.951 -0.3131  0.0403 -0.1722
67352W        W10265   2.806   9.334  27.105 -0.3306  0.1356  0.1638
67353W        W10266  29.016  33.067   1.418  0.2758 -0.2207 -0.1305
67354W        W10267  32.239   8.100   1.489 -0.0260  0.3403  0.1823
67355W        W10268  13.225  29.427  29.118  0.0451  0.1339  0.0937
67356W        W10269   9.179  14.618   1.395 -0.2819 -0.0969  0.0171
67357W        W10270   4.273   2.207   2.522 -0.1244  0.1911 -0.5103
67358W        W10271  16.340   9.207   0.599  0.0137 -0.0328 -0.1860
67359W        W10272  11.438   1.970  26.571 -0.0875 -0.0085  0.1836
67360W        W10273   6.216   1.156   0.398 -0.0007  0.3139 -0.0031
67361W        W10274  28.949  16.353   5.173 -0.2634 -0.3041  0.0908
67362W        W10275   7.712  31.782  10.830  0.2289 -0.1023  0.1989
67363W        W10276  10.655  30.488  29.445 -0.2023 -0.1335 -0.0075
67364W        W10277   3.767   1.578  16.856 -0.1195  0.0023  0.2255
67365W        W10278   8.200   8.522  29.478  0.3971  0.0712 -0.1460
67366W        W10279  12.985  17.287  26.327  0.0857 -0.1246  0.4004
67367W        W10280   9.996   9.261   8.711  0.2186 -0.2672  0.2943
67368W        W10281  14.759  22.644  27.312 -0.0395  0.1925 -0.0250
67369W        W10282   4.089   9.143  26.029 -0.1273  0.0505 -0.0044
67370W        W10283  19.952  13.987  26.685  0.0385 -0.0921 -0.0180
67371W        W10284   8.178  30.318   5.850 -0.0414 -0.2141  0.0253
67372W        W10285  10.383  33.418   6.824  0.0414  0.1853  0.1136
67373W        W10286  16.252  10.776   2.364 -0.2287  0.3436  0.0416
67374W        W10287  34.333  31.685   2.318  0.0762 -0.0984  0.1817
67375W        W10288   7.108  33.729  27.088  0.0428 -0.1643  0.0554
67376W        W10289   4.381  11.568  11.736 -0.0330  0.1350  0.0518
67377W        W10290   5.049   9.340   2.121  0.1789  0.3829  0.0905
67378W        W10291   3.353  26.662  25.549 -0.3258 -0.1836  0.1673
67379W        W10292   4.492  14.677   3.314 -0.2410 -0.0219 -0.0011
67380W        W10293   5.732   6.822  20.490  0.0138 -0.2925 -0.1443
67381W        W10294   2.488   5.371  25.159  0.1129  0.2396 -0.1549
67382W        W10295   6.100   1.867   7.737  0.0341 -0.0112 -0.0951
67383W        W10296   3.411  11.354  22.293  0.0144 -0.1369  0.1521
67384W        W10297   5.059  13.344  24.708 -0.1066  0.1995  0.0806
67385W        W10298   3.659  28.130   5.365  0.0485  0.3725  0.1904
67386W        W10299   6.413   4.244   0.454 -0.0509 -0.3658 -0.1615
67387W        W10300  13.420   6.826   1.677  0.1123 -0.1518  0.1202
67388W        W10301  11.571   9.497  23.904 -0.0656  0.1203  0.0055
67389W        W10302   3.273   3.843   7.837  0.1556 -0.0152 -0.0279
67390W        W10303   3.992   1.993   5.617 -0.0609 -0.0080 -0.1377
67391W        W10304   5.323   1.200   9.821 -0.0881 -0.4572 -0.1218
67392W        W10305  34.379   8.884   2.338  0.0040  0.2120  0.0826
67393W        W10306  13.474  12.884  26.685  0.2420  0.0326  0.0520
67394W        W10307  16.726  12.464  25.870  0.2008  0.0044  0.3414
67395W        W10308   8.295   3.511   4.968  0.2767  0.0341  0.2638
67396W        W10309  12.123   0.888   3.174 -0.0943  0.3324  0.3917
67397W        W10310  34.137   0.525  11.220  0.1730  0.1577  0.1498
67398W        W10311  33.017   6.632  29.138 -0.1487 -0.3089  0.3012
67399W        W10312  12.460   5.703   8.549  0.1108 -0.0041 -0.4059
67400W        W10313  11.619  16.035   2.155 -0.0640 -0.2357  0.0611
67401W        W10314   6.687   1.376   8.269 -0.2341  0.1370  0.0069
67402W        W10315  30.750  12.399  29.263 -0.1370  0.0352 -0.0018
67403W        W10316  34.127   5.730   6.373 -0.1057  0.3056 -0.1646
67404W        W10317  29.350   9.107  10.937  0.2095  0.0962  0.1190
67405W        W10318  31.441   8.689   7.531  0.3099 -0.2904 -0.2793
67406W        W10319   0.331   6.459  21.990  0.1488 -0.0060 -0.1135
67407W        W10320  10.719   2.479  10.913 -0.2546  0.2937  0.0415
67408W        W10321  12.469  26.397   7.824  0.2152 -0.2380  0.0464
67409W        W10322  11.536  12.437  10.460  0.2251  0.0445 -0.3975
67410W        W10323   3.357  31.255  29.589 -0.2624 -0.0458  0.1420
67411W        W10324  18.650  30.090  29.709 -0.3105  0.0089  0.1620
67412W        W10325  10.005  29.232   2.681  0.1945  0.2243  0.0651
67413W        W10326  12.182   5.451  28.760  0.2195  0.5334 -0.0254
67414W        W10327  33.202   7.219   9.895  0.1053 -0.4739 -0.0417
67415W        W10328  30.448  14.002   0.909 -0.1579 -0.1987  0.0986
67416W        W10329   4.663  11.147  17.397 -0.1536 -0.0459  0.0613
67417W        W10330   7.371  17.061   0.463  0.0029 -0.1431 -0.3917
67418W        W10331   4.459   3.755  17.977  0.0327  0.0215 -0.2358
67419W        W10332   0.108   1.699   3.924 -0.0664 -0.1015  0.0767
67420W        W10333   7.374  11.555  16.235 -0.2367  0.0755 -0.2694
67421W        W10334  32.230   6.816   1.392  0.2410  0.1521  0.1648
67422W        W10335   9.130  27.179   3.294 -0.0189 -0.0781  0.0201
67423W        W10336  16.280  14.579  24.680 -0.0063  0.1375 -0.0679
67424W        W10337   2.737   0.636   4.016  0.0245  0.2443 -0.3656
67425W        W10338   3.091   2.861  28.670 -0.1498 -0.0967  0.0637
67426W        W10339  14.832  32.862  10.839  0.0792 -0.0094  0.1410
67427W        W10340  18.649   3.934   5.236  0.0147 -0.0270  0.0278
67428W        W10341   2.126   7.256  27.028 -0.0659 -0.1013  0.0540
67429W        W10342  14.867  31.795   4.906 -0.0283  0.0743 -0.0401
67430W        W10343  26.388  10.760   2.990  0.1137  0.2352  0.3463
67431W        W10344   9.840   0.626  10.828  0.2461  0.0216 -0.1691
67432W        W10345   0.666   0.514   1.208 -0.1552 -0.0981 -0.0482
67433W        W10346  10.162   1.771  24.171  0.1704  0.2365  0.3447
67434W        W10347  34.449   1.923   2.360 -0.1157 -0.0237 -0.1627
67435W        W10348   0.010  12.491  10.355 -0.0773  0.0522 -0.0707
67436W        W10349   1.902  13.518   2.512 -0.1625  0.3815  0.0643
67437W        W10350   4.734   5.898  22.572 -0.1390 -0.3622  0.3230
67438W        W10351   0.708   3.986  12.742 -0.1363  0.2802  0.1415
67439W        W10352  26.207  14.276   6.741 -0.0501  0.2517  0.0801
67440W        W10353  12.630  23.914  25.833  0.2099  0.0620  0.3340
67441W        W10354   1.251  12.827   1.851  0.2792 -0.0134 -0.1605
67442W        W10355   9.406   8.294   7.473  0.0645  0.0626  0.0456
67443W        W10356  23.506   9.986   3.817 -0.2657  0.3031 -0.0419
67444W        W10357  33.078   5.276   0.629  0.1668  0.2018  0.0087
67445W        W10358   4.907   1.470   8.960  0.2652  0.1175  0.0128
67446W        W10359   5.028   4.674  28.873 -0.1864  0.1272 -0.1330
67447W        W10360   2.128  11.585   9.701  0.1622  0.0455  0.2958
67448W        W10361  12.456  14.166   6.233 -0.2409  0.1453  0.0776
67449W        W10362   0.771   5.364  28.384 -0.1907 -0.1601 -0.5345
67450W        W10363  10.964  22.552   3.575  0.0488 -0.1017  0.0844
67451W        W10364   7.008  28.037  10.648  0.3250  0.1676  0.2363
67452W        W10365  30.184  26.852   4.053  0.1696  0.0047 -0.0524
67453W        W10366   7.720  31.930   1.851  0.0241 -0.0815  0.1282
67454W        W10367   5.700  10.786   7.657  0.1355 -0.1248 -0.1143
67455W        W10368   4.502  30.561   2.063 -0.1568 -0.3719 -0.0382
67456W        W10369  17.638   5.798  26.186  0.1721  0.1700 -0.2775
67457W        W10370   4.676   5.126  11.806 -0.3423 -0.0053 -0.1723
67458W        W10371  11.559  12.013  24.364  0.1207  0.2636 -0.0850
67459W        W10372   3.284   4.850   7.519 -0.2123 -0.1246 -0.0715
67460W        W10373   1.775   1.111   3.924 -0.2300  0.2482 -0.2460
67461W        W10374  26.034  13.490  26.550  0.4793  0.0783 -0.3946
67462W        W10375  33.430  32.639  11.354  0.0851 -0.2182  0.4603
67463W        W10376   7.403   6.211   1.063 -0.0209 -0.0257  0.2785
67464W        W10377   8.611  10.185   3.092 -0.2807  0.0445  0.2494
67465W        W10378  28.156   0.481   0.650 -0.4898 -0.1196 -0.0882
67466W        W10379   7.570  10.825   2.163 -0.1702 -0.2668 -0.0472
67467W        W10380   6.898  15.079  20.484 -0.2341  0.2798 -0.4061
67468W        W10381   5.027   9.124   5.122 -0.2844  0.2295 -0.2643
67469W        W10382   6.745   4.258  23.088  0.1667  0.3290 -0.0875
67470W        W10383  31.818   4.564  24.250  0.3886  0.0296 -0.2266
67471W        W10384   9.693   2.267  29.196 -0.2427  0.0613  0.2260
67472W        W10385  17.458   9.457   3.761 -0.0585  0.0601  0.0186
67473W        W10386  10.025  31.629  11.609  0.1600 -0.0919  0.2062
67474W        W10387   2.736   6.812  29.251  0.0336 -0.2024 -0.0080
67475W        W10388  10.249   5.503  22.629 -0.3211  0.1814 -0.4464
67476W        W10389  28.470   6.761  25.713 -0.1769 -0.0209 -0.2038
67477W        W10390   0.710   4.081   2.019 -0.1186 -0.3196  0.3382
67478W        W10391   6.771   6.658   4.776 -0.1724  0.1960 -0.0614
67479W        W10392   7.943  27.978  20.585  0.0596 -0.0304  0.0482
67480W        W10393  14.795   0.437  11.872 -0.0843  0.1559 -0.1758
67481W        W10394  11.545   1.572  26.824  0.2300 -0.1485  0.1239
67482W        W10395  11.387   6.331   7.268  0.2701 -0.0981 -0.2551
67483W        W10396   8.991   9.398   2.247  0.1407 -0.2919 -0.1346
67484W        W10397   8.116  15.654  26.069  0.0698 -0.0510 -0.3636
67485W        W10398   2.503  10.883   4.978  0.3262  0.2383 -0.0291
67486W        W10399  33.404   6.880  23.840  0.0451  0.2414  0.0300
67487W        W10400  11.036  11.791  28.859 -0.2500  0.4269  0.0796
67488W        W10401   6.431   5.409   8.746  0.0102  0.0930  0.1366
67489W        W10402   6.026   8.540   6.833 -0.2834 -0.1499  0.0325
67490W        W10403   9.374  11.252  21.699  0.1396 -0.1867  0.1975
67491W        W10404  10.824   6.260  27.443 -0.1700  0.4390  0.1254
67492W        W10405   7.432   7.110   6.944 -0.2538  0.2337 -0.1209
67493W        W10406  10.615   7.620   2.391 -0.2980  0.3819  0.2114
67494W        W10407   1.466   9.939  23.094  0.0780  0.1919 -0.3018
67495W        W10408   6.909   5.839   0.483  0.1947  0.1016  0.2018
67496W        W10409   3.444  33.489  28.571 -0.1091  0.0164  0.0349
67497W        W10410  30.709   7.868   1.328  0.4328 -0.3647 -0.1150
67498W        W10411  10.755   8.360  10.324 -0.1342  0.0245 -0.2011
67499W        W10412   3.071   4.368   9.537 -0.0985  0.1449  0.2188
67500W        W10413  33.794  10.137   8.912  0.1052  0.0479  0.2120
67501W        W10414  29.824   4.905  28.509 -0.1058 -0.0018 -0.0290
67502W        W10415   5.753   5.469   8.594 -0.1656 -0.0308  0.0897
67503W        W10416  19.364  13.181  20.159  0.1471 -0.5683  0.0810
67504W        W10417  34.082   0.965  27.925  0.1234  0.0450 -0.0083
67505W        W10418   8.780   4.620  24.925 -0.0472  0.0146  0.0441
67506W        W10419   4.443   3.224   9.382 -0.2391 -0.1432 -0.0238
67507W        W10420  13.712   7.181   6.809  0.0964 -0.4152  0.2469
67508W        W10421  14.995   8.999   6.950  0.0794 -0.1166 -0.2780
67509W        W10422   7.897  13.849   7.370 -0.0891  0.0237  0.0174
67510W        W10423  11.241   6.907  27.038  0.2021 -0.0614 -0.0857
67511W        W10424   2.904   0.923  10.946 -0.1215 -0.0093 -0.0146
67512W        W10425   0.231   6.875  28.980 -0.1576 -0.1814  0.3059
67513W        W10426  32.969  13.844   1.911  0.0644 -0.1522  0.1550
67514W        W10427   8.221   3.063  23.441  0.2959  0.0433 -0.0927
67515W        W10428  32.304   8.681  11.470 -0.0142 -0.0033 -0.2240
67516W        W10429  14.925   5.443  29.700 -0.3535  0.0053  0.0296
67517W        W10430  10.516   5.081   4.439 -0.1389  0.2165 -0.2176
67518W        W10431   3.400  14.819  27.041  0.0859 -0.1873  0.0286
67519W        W10432   7.819   6.242  24.977 -0.0888 -0.1818 -0.0397
67520W        W10433  11.275  13.043  21.676  0.1902 -0.1118  0.2244
67521W        W10434  25.174  33.757   1.144 -0.0904  0.0804  0.5937
67522W        W10435   5.662  31.971   9.649 -0.1756 -0.2451  0.0110
67523W        W10436   7.046  32.341  25.445  0.1655  0.0323 -0.1302
67524W        W10437   4.707  30.080  28.201 -0.0285  0.1155 -0.0329
67525W        W10438  29.445  10.719  18.682  0.0617  0.0438 -0.1177
67526W        W10439   2.204  30.092   9.602  0.0469  0.0430 -0.2853
67527W        W10440   8.067   1.500  29.196  0.2055 -0.1236  0.3007
67528W        W10441   9.721  33.575   4.280  0.2532 -0.0455 -0.1643
67529W        W10442   7.233   5.610   1.763  0.0499  0.0068  0.3460
67530W        W10443  26.095  26.891  29.419 -0.2573  0.0013  0.1032
67531W        W10444   5.804   2.500   0.775 -0.0590 -0.0033  0.0418
67532W        W10445   6.807   8.854   0.276  0.0542 -0.1402  0.0853
67533W        W10446   3.496  19.799  22.053  0.0380 -0.2069  0.0169
67534W        W10447   6.389   3.781   9.470 -0.1116  0.0212  0.0504
67535W        W10448  31.939   3.792   6.222 -0.3255 -0.2555 -0.2263
67536W        W10449   1.672  10.956  25.246 -0.0635 -0.0054  0.1771
67537W        W10450  24.138  15.085   7.881  0.0802 -0.1235  0.0486
67538W        W10451   5.793   9.232  17.238 -0.0745  0.3154  0.0232
67539W        W10452  16.478  16.723   6.925  0.0094  0.2934 -0.1724
67540W        W10453  17.343   2.959   9.302  0.3882 -0.1411 -0.0603
67541W        W10454   0.586   6.382  26.385 -0.0896 -0.3974  0.2287
67542W        W10455  10.877   6.880  28.069  0.4952 -0.1182 -0.3915
67543W        W10456   9.766   7.229  26.436 -0.1440 -0.2587  0.1048
67544W        W10457   8.376  32.987   3.649 -0.1413 -0.1900 -0.3110
67545W        W10458  29.666   9.077   0.920  0.1245 -0.2081  0.3167
67546W        W10459   6.009   7.606  21.720 -0.4357 -0.4643 -0.1422
67547W        W10460  30.801  10.360   9.569  0.1033  0.1788 -0.1070
67548W        W10461   3.436  11.084   6.870  0.1828  0.2312  0.1664
67549W        W10462   6.742   3.989  28.570 -0.3802  0.2272 -0.0223
67550W        W10463   9.130  34.478  25.134 -0.2936 -0.3738  0.1679
67551W        W10464   6.231   7.169   4.449  0.3018  0.1054  0.2364
67552W        W10465   6.260   3.330  28.904  0.1099  0.0362 -0.3707
67553W        W10466   2.920   8.849  26.860 -0.2182 -0.3836  0.1164
67554W        W10467  33.648  16.354   8.550  0.0377 -0.0108  0.0409
67555W        W10468  18.558  31.388   8.334 -0.1118 -0.2303  0.1389
67556W        W10469  14.417  16.913   0.259  0.1374 -0.0699 -0.0934
67557W        W10470   2.896  10.479  23.562 -0.0747 -0.0853 -0.1941
67558W        W10471   9.359   9.290  28.432  0.2300  0.3672  0.1345
67559W        W10472   2.549   3.726  23.604 -0.2974  0.2524  0.1045
67560W        W10473   7.056  12.878   1.471 -0.3106  0.1592 -0.0380
67561W        W10474   1.250  14.957  29.067  0.3713 -0.0141 -0.1479
67562W        W10475  11.844   9.005  28.453  0.0578  0.3453  0.2660
67563W        W10476  24.921   9.435   4.065  0.0794  0.4239 -0.0658
67564W        W10477  28.244   8.592   4.820  0.2854  0.2216 -0.1604
67565W        W10478  18.057  10.568  21.998  0.0821  0.0484  0.0029
67566W        W10479  10.901   2.607   9.147  0.1843 -0.0825 -0.0189
67567W        W10480  12.572  33.569  27.677 -0.3129 -0.1415 -0.3717
67568W        W10481  30.791  33.789   1.874 -0.1668 -0.1890 -0.2210
67569W        W10482   5.303  21.357  20.652  0.1095  0.0005  0.0068
67570W        W10483  27.420  16.551   7.752  0.1161  0.1080  0.0837
67571W        W10484   7.865   5.893   0.916  0.0441  0.1170  0.0461
67572W        W10485   6.557   9.199  11.028 -0.2235  0.0843 -0.1824
67573W        W10486   8.584   0.887  20.709  0.1547  0.0200  0.0825
67574W        W10487   3.039  14.043  22.756  0.2203 -0.0041 -0.0859
67575W        W10488  25.691   2.163   8.295  0.0913 -0.2383  0.1567
67576W        W10489   0.808  34.030  27.321  0.1283  0.0606 -0.0045
67577W        W10490   8.039   2.421  28.609 -0.1991  0.0562 -0.0658
67578W        W10491   0.164  15.240   1.351 -0.0458 -0.0663  0.0315
67579W        W10492   9.734   1.976  13.070 -0.0389 -0.4694 -0.2524
67580W        W10493   6.834  34.110  23.519 -0.0594  0.1990 -0.1128
67581W        W10494  34.383   3.581  24.122  0.2113 -0.0904  0.3924
67582W        W10495   4.132   2.877  12.056 -0.4691 -0.0442 -0.0385
67583W        W10496   5.870   6.376  29.326 -0.1151  0.0349 -0.2623
67584W        W10497   8.161   2.671  10.211  0.1900 -0.0200 -0.1092
67585W        W10498   8.934   6.343   6.175  0.1262  0.0633  0.1352
67586W        W10499  27.890   5.105   3.805  0.1071  0.3304  0.0058
67587W        W10500  31.271   9.921  19.698  0.1806  0.1975 -0.3151
67588W        W10501   4.908   8.088  10.797 -0.4906  0.3123  0.2054
67589W        W10502   0.940  10.456  24.860  0.2599 -0.1684  0.0811
67590W        W10503   9.185   7.529   0.340  0.0884  0.2011 -0.0554
67591W        W10504   2.213   3.181   2.353 -0.2587  0.0027 -0.1132
67592W        W10505   6.514  25.714   9.536  0.0867  0.3492 -0.0639
67593W        W10506   8.429   4.564  29.455 -0.2619 -0.1569  0.1194
67594W        W10507   9.792   3.236   2.305  0.0830 -0.3597 -0.0641
67595W        W10508  14.397  18.995  25.758 -0.1534 -0.1124  0.0845
67596W        W10509   9.036   4.385   0.216 -0.0514 -0.0628 -0.1507
67597W        W10510   6.007  34.143   0.347 -0.4393 -0.1192 -0.2993
67598W        W10511  27.579   3.503   0.142 -0.0981  0.0936 -0.0210
67599W        W10512   8.442   2.782   3.896 -0.0429  0.1612 -0.1734
67600W        W10513  18.561   4.923  27.557 -0.0019  0.0151  0.1529
67601W        W10514   5.762   5.748   2.283  0.1724  0.2068  0.0436
67602W        W10515  18.048  28.980  20.949  0.3704 -0.0986  0.1326
67603W        W10516  33.392   8.515   6.608 -0.1097 -0.2895  0.0482
67604W        W10517  31.744   0.935  20.311 -0.2186 -0.0747 -0.2631
67605W        W10518  32.230  13.415   0.143  0.1882  0.0397  0.1582
67606W        W10519   8.061  33.776  21.165 -0.1535  0.0802  0.1522
67607W        W10520   9.225  17.342  16.018 -0.1631 -0.1013  0.1189
67608W        W10521   2.739   5.658   4.193 -0.2466 -0.2695 -0.2898
67609W        W10522  11.283   9.088  25.267 -0.0070 -0.3587 -0.3090
67610W        W10523   5.972   0.285   8.995  0.1952  0.0885 -0.0569
67611W        W10524   2.394   1.689   0.808 -0.0565 -0.1199  0.2703
67612W        W10525   0.529   4.177  21.113  0.1862  0.2291 -0.2813
67613W        W10526   5.721   3.926   7.705  0.0061  0.0470  0.1596
67614W        W10527   4.368   5.244   3.467 -0.0709 -0.1325 -0.1283
67615W        W10528   8.449   6.323  10.293  0.5255 -0.0682 -0.2506
67616W        W10529  34.484   9.062   8.791  0.2606  0.0756  0.0025
67617W        W10530  13.202  33.745  25.979 -0.2510 -0.2870 -0.1110
67618W        W10531  33.641  11.524   8.632  0.0478  0.0551 -0.1709
67619W        W10532   8.060  12.766   2.202  0.2347 -0.0282 -0.1646
67620W        W10533   5.363   2.424   1.723 -0.0422  0.2802 -0.1555
67621W        W10534   1.193  11.909  28.341 -0.3246  0.1313 -0.0887
67622W        W10535   8.842  13.771   8.950 -0.2305  0.0031 -0.1911
67623W        W10536  31.068   6.941  28.383  0.1081 -0.0315  0.2586
67624W        W10537   0.037  16.597  24.354  0.1245 -0.0649  0.0390
67625W        W10538  12.412   5.564  10.677 -0.1084  0.3417  0.1147
67626W        W10539   9.170  13.350   6.526  0.0593 -0.0768  0.3062
67627W        W10540  33.746   7.618  12.217  0.2029 -0.2203 -0.0875
67628W        W10541  13.744  14.574   2.818  0.0548  0.2621 -0.1453
67629W        W10542  32.847  17.886  29.155  0.0301  0.0184  0.0707
67630W        W10543   7.527  14.552   4.560  0.2410  0.0292 -0.1004
67631W        W10544  32.277  10.859  27.863 -0.0968 -0.2683 -0.0080
67632W        W10545  13.481   9.197   6.281  0.2327 -0.1340  0.1901
67633W        W10546   6.502   9.123   0.757 -0.0550 -0.1074 -0.1787
67634W        W10547  12.708   0.490  24.518  0.0287 -0.3639  0.0988
67635W        W10548  13.037  15.720  29.082  0.0662  0.0387 -0.1737
67636W        W10549   2.050   0.719   7.369  0.0508  0.0936  0.4313
67637W        W10550   8.363   2.636   8.191  0.3480 -0.1285 -0.2312
67638W        W10551   9.735  10.206   6.826  0.3968  0.0165  0.2406
67639W        W10552   3.288   0.731  26.305  0.0648 -0.0799  0.0225
67640W        W10553  10.187   3.065   1.487 -0.0328 -0.0492 -0.4181
67641W        W10554  15.024   7.462  26.144 -0.3441  0.1694  0.4674
67642W        W10555   9.591   2.250   3.175  0.0134 -0.0088  0.1770
67643W        W10556  10.230   2.856  12.281 -0.1511  0.3004 -0.0801
67644W        W10557   9.404   4.801   0.330  0.2887 -0.0739 -0.0649
67645W        W10558  30.131   6.420  27.609 -0.0160 -0.2776 -0.2993
67646W        W10559   4.148   4.261  12.799 -0.0849 -0.0539 -0.4801
67647W        W10560  11.070   4.468   9.134  0.1335 -0.1431  0.2849
67648W        W10561   4.040   1.249  10.214  0.1748  0.2442 -0.0337
67649W        W10562   2.316  24.745  28.163 -0.0430 -0.2481 -0.0607
67650W        W10563  31.539  12.729  25.919  0.0531 -0.2117  0.1353
67651W        W10564   5.415   1.366   5.549  0.0051  0.0436  0.2770
67652W        W10565   6.331  27.942   8.498 -0.0287  0.3349 -0.1607
67653W        W10566   0.686   3.074   7.105  0.3443  0.2258  0.1378
67654W        W10567  16.353  11.347   8.211 -0.1466  0.0041 -0.2447
67655W        W10568  33.155  33.781  25.684  0.2686  0.1900  0.1005
67656W        W10569  14.099   4.501   0.105  0.0996  0.1268 -0.2133
67657W        W10570  29.509   5.802   6.081  0.1282 -0.0666  0.0623
67658W        W10571   9.063   3.838   1.218  0.3673  0.0615 -0.1644
67659W        W10572  10.012   2.174  11.663  0.0064 -0.1722  0.0985
67660W        W10573  21.644  31.039   3.758  0.0330  0.3476  0.3504
67661W        W10574  12.148   7.877  28.603  0.4024 -0.2887  0.0431
67662W        W10575  10.792   9.727  26.405  0.1215 -0.4446 -0.0267
67663W        W10576   3.694  13.401  29.646 -0.1783  0.2359  0.3584
67664W        W10577   1.186   6.156  11.793 -0.0198  0.1584 -0.1811
67665W        W10578   3.195   3.767  22.749  0.1871  0.1088  0.0768
67666W        W10579  30.319   7.375   5.029 -0.2731 -0.2742  0.0985
67667W        W10580   1.784   4.598   1.057  0.2649 -0.0234 -0.1150
67668W        W10581   7.652  34.057  11.988 -0.1594  0.2878  0.0679
67669W        W10582   6.581   7.403   2.775 -0.1387 -0.1549 -0.0885
67670W        W10583   7.461  13.307   4.217 -0.1098  0.0358  0.2636
67671W        W10584   1.126   8.699  23.737 -0.2450 -0.1916  0.1141
67672W        W10585   7.608   1.879  26.129 -0.2814  0.3249 -0.0494
67673W        W10586   9.014   2.289   4.547  0.1108  0.0237  0.0231
67674W        W10587   2.414   5.532  10.248  0.1775  0.1417 -0.0641
67675W        W10588  13.397   6.266   7.257  0.1637  0.5705  0.0428
67676W        W10589  14.039   5.490  10.832  0.2556  0.2127  0.1648
67677W        W10590   6.611   6.557   6.778  0.2400  0.0658 -0.3732
67678W        W10591  10.343   6.820   7.633 -0.0800  0.1939  0.1451
67679W        W10592   6.666  11.199  27.456  0.1712  0.2568  0.2941
67680W        W10593   3.732  30.396   7.604 -0.2022 -0.0210 -0.0615
67681W        W10594  16.000  30.963   0.572  0.0148 -0.0931 -0.2740
67682W        W10595   7.991  15.372   7.022  0.1101 -0.1246 -0.0706
67683W        W10596  17.478  12.259   0.380 -0.0862 -0.0218 -0.0968
67684W        W10597  29.624   9.529  10.768 -0.0108  0.2400 -0.5827
67685W        W10598  15.791  11.075   6.124 -0.1626  0.1982 -0.1932
67686W        W10599   7.615   1.654   6.798 -0.1230 -0.1593 -0.0640
67687W        W10600  14.352   4.052  10.408 -0.2092  0.1343 -0.1048
67688W        W10601   2.986   5.743   2.110 -0.0850  0.2535 -0.1027
67689W        W10602   7.998  13.052   9.115  0.3712  0.3529  0.3862
67690W        W10603   8.451  33.806   9.173 -0.3183  0.0497  0.0556
67691W        W10604   8.896  34.253   2.763 -0.2464  0.1710 -0.0395
67692W        W10605  32.231  12.695   2.111  0.0758  0.0667 -0.3001
67693W        W10606   3.688   9.130  10.451  0.1733 -0.0641 -0.3280
67694W        W10607  11.050  33.977  11.428  0.1524 -0.2291 -0.3275
67695W        W10608  16.610  27.312  23.907 -0.1631  0.1709  0.0699
67696W        W10609   4.778  33.891  27.616 -0.0624 -0.2212 -0.0291
67697W        W10610   3.386   4.936   3.403  0.2367 -0.4780  0.0976
67698W        W10611  11.896   0.762   4.909 -0.1125  0.0100 -0.0052
67699W        W10612   5.166   4.954   5.620  0.1066  0.1194  0.2009
67700W        W10613   2.361   7.078  27.757 -0.0216  0.0194 -0.6762
67701W        W10614  27.960   9.473   7.861  0.1378 -0.3050  0.3075
67702W        W10615  15.058  16.538  23.307 -0.0458 -0.1689  0.2388
67703W        W10616   0.890   5.508  27.777 -0.3790 -0.0346  0.3174
67704W        W10617  32.352  14.555  29.757 -0.0425 -0.4497 -0.1359
67705W        W10618   4.801  26.978   0.591  0.0165 -0.2564  0.2097
67706W        W10619   5.504  33.236   4.880 -0.0968  0.1213 -0.1808
67707W        W10620  12.401  16.295   7.717 -0.1041  0.0610 -0.1036
67708W        W10621  31.765   5.234  26.044  0.0842  0.0869  0.1090
67709W        W10622  32.912   7.393   9.257 -0.1739  0.0921 -0.4159
67710W        W10623  29.755  13.179  28.455 -0.3657  0.3399  0.1991
67711W        W10624   9.941  30.430  29.500 -0.1114  0.0861 -0.0396
67712W        W10625  28.201   4.661   8.206 -0.0354  0.2415  0.1120
67713W        W10626   5.792   2.134  25.366 -0.1419 -0.1523  0.0543
67714W        W10627   8.366  30.876   9.122  0.1281  0.2847 -0.2113
67715W        W10628   5.376   3.798  26.536 -0.0232  0.1604  0.0972
67716W        W10629  33.271  12.372   2.705 -0.0966  0.4919 -0.2343
67717W        W10630  12.115  26.722   1.950  0.1580 -0.1888  0.2134
67718W        W10631  33.904   8.244   8.541  0.0741  0.1970 -0.1378
67719W        W10632  15.528   3.039   4.356  0.1819 -0.0843 -0.0325
67720W        W10633   5.763   7.960  29.674 -0.0555  0.3057  0.1904
67721W        W10634   7.913   2.103   8.026 -0.0338  0.0235 -0.0614
67722W        W10635  11.722   4.478   6.325 -0.2685  0.2199  0.2140
67723W        W10636  33.976  27.193  26.403  0.2886  0.1538 -0.1144
67724W        W10637   4.073   4.537   3.983  0.0466  0.0634  0.0317
67725W        W10638   7.346  14.643   7.026  0.0072  0.1909 -0.1001
67726W        W10639   9.717  15.119  29.737 -0.1206  0.2067 -0.2943
67727W        W10640   3.260  10.080  29.699 -0.2261 -0.0969 -0.0182
67728W        W10641   6.901  28.946  10.011 -0.2406 -0.0625  0.0571
67729W        W10642   2.696  30.399   6.760  0.0592  0.1712  0.0517
67730W        W10643   3.757   5.443  11.919  0.2234 -0.0571  0.0880
67731W        W10644   9.869  15.061  29.232 -0.1362  0.2896  0.1352
67732W        W10645  16.042  32.564   0.542  0.2775 -0.2372 -0.1244
67733W        W10646  33.978   6.624   7.947 -0.1523 -0.0877  0.1880
67734W        W10647  13.453  33.618   5.772  0.1549 -0.0688  0.1781
67735W        W10648   5.715   3.568   3.753  0.2067 -0.0194  0.2873
67736W        W10649  17.232   0.812   9.672 -0.0316  0.0696  0.0838
67737W        W10650   5.747  25.373   7.004 -0.0759  0.2623  0.1224
67738W        W10651   7.426   9.084  27.266  0.2298  0.3066 -0.1348
67739W        W10652  10.930  27.874   4.435  0.2813  0.0090 -0.1030
67740W        W10653  13.559  33.765   6.235 -0.0199  0.4196  0.1752
67741W        W10654  28.514   4.283   9.173  0.0270 -0.2233  0.0093
67742W        W10655  30.060   8.561   3.286  0.2580  0.1839  0.1580
67743W        W10656  16.515  28.763  29.665  0.2294 -0.0717  0.0581
67744W        W10657  20.199   6.224   6.750 -0.1201  0.2046  0.1622
67745W        W10658   1.367  11.325   1.911  0.0057 -0.2629 -0.0300
67746W        W10659  10.349   1.674   6.302  0.4014 -0.2254 -0.3043
67747W        W10660   8.339   4.686   7.220 -0.0195  0.0807 -0.0003
67748W        W10661  33.694  32.534   7.185 -0.0756 -0.1630  0.0323
67749W        W10662  13.148  18.507   7.074 -0.0973 -0.0200  0.1290
67750W        W10663   8.114   0.111  28.838  0.0288  0.0771 -0.1406
67751W        W10664   2.746   4.353  13.336  0.0448 -0.2835 -0.0497
67752W        W10665  12.021  17.128   2.934 -0.2563  0.1907  0.2158
67753W        W10666  23.228   7.048   4.854 -0.0177  0.1496  0.0959
67754W        W10667   0.644  10.555  22.776 -0.0872  0.0816  0.0512
67755W        W10668   6.131  14.023   7.488 -0.0284  0.0480  0.2214
67756W        W10669   4.665   1.357   1.207 -0.0044  0.1763 -0.0665
67757W        W10670  11.854  12.785  20.086 -0.4315  0.3520 -0.1182
67758W        W10671  17.353  25.763   5.682  0.1142 -0.0530  0.2577
67759W        W10672   0.504   6.131   8.120 -0.1309 -0.1719 -0.2587
67760W        W10673   8.379   9.447   0.604 -0.0508  0.2061 -0.1107
67761W        W10674   6.013   4.306   9.561  0.1056 -0.2406 -0.1661
67762W        W10675   5.814   4.548   9.132 -0.0308  0.1399 -0.1767
67763W        W10676   4.318   1.273  25.863 -0.3877 -0.0654 -0.3506
67764W        W10677  33.112   3.561   4.666 -0.0297 -0.1765  0.1227
67765W        W10678  10.945   3.885   6.048 -0.2419  0.4524 -0.2521
67766W        W10679   6.551   5.106   2.864  0.0411 -0.1995 -0.1020
67767W        W10680  33.870  15.996   8.875 -0.0274  0.0734 -0.2147
67768W        W10681  32.847  12.308  29.665 -0.1749  0.0108 -0.1991
67769W        W10682   8.981  30.236  22.173 -0.2675 -0.1622 -0.2040
67770W        W10683  20.979  34.368   8.923 -0.1001  0.0310 -0.3412
67771W        W10684  13.678  10.391  25.027 -0.0311  0.3724 -0.0512
67772W        W10685  17.962  10.193   8.652  0.2396 -0.0339  0.2827
67773W        W10686  32.004  14.580   8.639 -0.1885 -0.4642  0.3462
67774W        W10687  12.384   2.275  29.526  0.1045  0.0210 -0.0449
67775W        W10688   3.179  31.260   0.810 -0.2839 -0.0240  0.1527
67776W        W10689   6.300   2.326   3.893 -0.0118 -0.2481 -0.3434
67777W        W10690   3.216   7.236  11.589 -0.0742 -0.2157  0.0555
67778W        W10691   2.845   9.676  11.945 -0.0820 -0.0320  0.3332
67779W        W10692   3.300  32.779   0.257  0.0278 -0.2457  0.1721
67780W        W10693   8.072  31.996  11.227 -0.3404 -0.0817  0.0555
67781W        W10694  33.271   6.392   2.704  0.1055  0.1110  0.1138
67782W        W10695  34.395   3.984   6.050 -0.1625  0.2647  0.0880
67783W        W10696  12.444  15.674   6.644  0.2535 -0.1059 -0.5080
67784W        W10697   4.447  11.846  10.521 -0.2076  0.0074  0.1423
67785W        W10698   7.498   9.390   6.051  0.0634 -0.1740 -0.0065
67786W        W10699   7.684  33.689   4.453 -0.0127 -0.1048 -0.2816
67787W        W10700   1.554  28.883  26.133 -0.0053  0.1493 -0.1177
67788W        W10701  24.338   3.286  21.283  0.0449  0.0328 -0.0911
67789W        W10702  14.060   3.792  28.714 -0.0869  0.0095 -0.2466
67790W        W10703  10.512  17.441   6.191 -0.3296 -0.2796  0.1474
67791W        W10704   8.407   2.401  28.979 -0.1192  0.3688  0.3533
67792W        W10705  10.800  31.650  27.629 -0.2884 -0.0939 -0.0267
67793W        W10706  24.084   7.615   8.546  0.1721 -0.0591  0.1606
67794W        W10707   9.607  19.473   9.031  0.0965  0.0603  0.0557
67795W        W10708   1.981   4.707  24.400  0.0759  0.1457 -0.0763
67796W        W10709   2.546   8.303  11.705  0.0801 -0.5333 -0.1674
67797W        W10710  18.544   4.359   6.457 -0.0289  0.0773  0.0277
67798W        W10711   5.860   0.488  10.004  0.3520 -0.1196 -0.0349
67799W        W10712  20.505   1.863   6.249  0.1057  0.5759  0.0044
67800W        W10713   0.057   3.143   8.663  0.1404 -0.2675 -0.1436
67801W        W10714   5.367   6.220  28.949  0.3133 -0.0865  0.1855
67802W        W10715   5.509  34.449   7.544  0.0344 -0.2813 -0.2348
67803W        W10716  31.127  26.942   3.981  0.0913  0.2330 -0.2659
67804W        W10717   6.196   3.288   9.385 -0.2711  0.1130 -0.1022
67805W        W10718   8.292  34.255  24.885 -0.1670  0.2949 -0.0907
67806W        W10719   6.444  27.681   9.555  0.1440 -0.0003 -0.0474
67807W        W10720   1.433   5.050   6.678 -0.2475 -0.1648 -0.1314
67808W        W10721   6.689   2.542   5.556 -0.2189 -0.0435  0.0158
67809W        W10722   3.714  12.011  24.202  0.0483 -0.0970 -0.2136
67810W        W10723   4.675   4.892  11.335 -0.0125  0.2490 -0.3617
67811W        W10724   3.480   6.614   0.123 -0.0415  0.5323  0.0210
67812W        W10725  33.404   8.700  25.850  0.2056  0.1508  0.0288
67813W        W10726   6.053   6.840   4.956  0.1370 -0.1344 -0.2036
67814W        W10727   8.549   0.264   8.938 -0.4375  0.1428 -0.0864
67815W        W10728   5.835  10.443   2.588 -0.2660 -0.2719 -0.0815
67816W        W10729   6.793   6.800  28.293  0.1251 -0.0483  0.2524
67817W        W10730   5.584   8.630  12.464  0.1420 -0.0707 -0.0767
67818W        W10731  32.802   0.817   6.559  0.1806  0.0526 -0.0725
67819W        W10732   4.300   6.070  20.968 -0.2066  0.2666  0.0851
67820W        W10733  10.209   4.594  28.352 -0.1430  0.1283 -0.0189
67821W        W10734   4.680   5.248   9.504 -0.1022  0.0619  0.0901
67822W        W10735  12.155   5.370  26.819 -0.1577  0.0293 -0.2625
67823W        W10736   0.148   3.825  28.821  0.1302 -0.0836  0.2849
67824W        W10737   9.811   0.439   7.607  0.2583 -0.3693 -0.0605
67825W        W10738   5.690   9.314   4.355 -0.0666 -0.1498 -0.1425
67826W        W10739  10.875   2.895  12.293  0.2298  0.0662  0.1714
67827W        W10740   6.819   4.639   4.316 -0.0959  0.1108  0.1117
67828W        W10741   4.335  32.377   7.096 -0.1180 -0.0096 -0.0261
67829W        W10742  13.478   5.622   1.764  0.1572  0.0073 -0.1690
67830W        W10743  12.912  33.633  11.746  0.1741  0.2712 -0.0663
67831W        W10744   5.068  31.831  26.165 -0.0873  0.2275  0.1085
67832W        W10745   5.047   3.175   8.694 -0.1331  0.1297 -0.0540
67833W        W10746  13.202   2.807   2.963 -0.1947  0.0620  0.0205
67834W        W10747   0.264   4.135   6.390 -0.4734  0.0277  0.0664
67835W        W10748   8.807  17.121  29.652 -0.5135  0.2832  0.1280
67836W        W10749  30.285   7.870   9.582  0.0801  0.1992 -0.2436
67837W        W10750  30.557  16.063   8.961  0.1193 -0.0310  0.1614
67838W        W10751  18.550  27.744   0.945 -0.0593  0.0792  0.2400
67839W        W10752   7.683   0.868  11.507 -0.0023  0.1783  0.1007
67840W        W10753   5.995  10.552  29.483 -0.0567 -0.0430  0.3400
67841W        W10754   4.678  13.492   6.736  0.0541 -0.2771 -0.1009
67842W        W10755   6.982   3.085   3.393  0.0932 -0.4156  0.0719
67843W        W10756  29.533  16.551  29.629  0.0148 -0.0619  0.3267
67844W        W10757  32.686  13.211   0.078  0.1985 -0.4117  0.1264
67845W        W10758   2.111   0.589  28.545  0.1232  0.0175  0.1530
67846W        W10759   7.885  32.116   5.114  0.1833  0.1555 -0.1995
67847W        W10760   8.773   1.085  12.648 -0.2644  0.0903 -0.0422
67848W        W10761  10.761   0.963  11.084 -0.1310  0.3145 -0.2906
67849W        W10762  12.857  17.022   0.081 -0.0350 -0.0754  0.0402
67850W        W10763  31.246  15.737   7.387  0.1371  0.2761  0.1524
67851W        W10764  33.719   0.619   2.017 -0.1051  0.4575  0.0345
67852W        W10765   5.900   6.024   5.668  0.2815 -0.1642 -0.4480
67853W        W10766  32.798  33.724   4.770 -0.1966  0.2840 -0.1680
67854W        W10767   3.076  14.148   3.743 -0.0258 -0.0982  0.2053
67855W        W10768   1.560  30.207   4.238  0.0541 -0.0956  0.0549
67856W        W10769   5.389   3.083  11.044 -0.0184 -0.3996  0.2053
67857W        W10770   6.683   5.972   8.477 -0.1239 -0.0460 -0.2597
67858W        W10771   5.515   7.671  24.983 -0.4962  0.3994 -0.0947
67859W        W10772   3.527  19.186   7.931  0.1430  0.2069 -0.2262
67860W        W10773   6.886   9.531   3.698  0.5497 -0.3765 -0.3253
67861W        W10774   9.809  11.622   4.163 -0.2276 -0.4252  0.1466
67862W        W10775   3.753   4.874   3.771  0.2504 -0.1204 -0.2260
67863W        W10776   7.521   4.240   7.902 -0.0850 -0.1017  0.1727
67864W        W10777   8.083   2.150  10.258  0.1985  0.0021 -0.1924
67865W        W10778  10.033   5.452   7.088 -0.0125  0.0517  0.2913
67866W        W10779   2.385  31.305   5.685 -0.0393 -0.3487  0.0581
67867W        W10780   3.007  31.410   3.066 -0.0550 -0.0874 -0.1959
67868W        W10781   2.393  27.205  17.370 -0.2578 -0.0659 -0.2057
67869W        W10782  15.912   9.472   9.197  0.1824  0.0630 -0.4851
67870W        W10783   3.471  10.681   7.214  0.3503  0.1398 -0.2757
67871W        W10784  33.450   4.955   6.823  0.2512 -0.1541 -0.1519
67872W        W10785   4.299   7.445  12.168 -0.2721 -0.2585  0.0573
67873W        W10786   4.087  10.742   0.204 -0.0136 -0.2967 -0.0751
67874W        W10787  10.348  15.146   2.702 -0.2443 -0.1684 -0.2485
67875W        W10788   3.033   8.540  12.430 -0.1713  0.1417  0.0489
67876W        W10789  10.375   8.251   3.630  0.1921 -0.3162 -0.2842
67877W        W10790  14.154   6.323   6.924 -0.0332  0.0753  0.0447
67878W        W10791   4.975   6.911   8.282  0.2053 -0.0893  0.1695
67879W        W10792  13.338   0.560   4.583  0.0676  0.3738 -0.0994
67880W        W10793   8.661  10.953   6.451 -0.4938 -0.1054 -0.3993
67881W        W10794  25.757   8.521   9.141 -0.0961 -0.1331 -0.2084
67882W        W10795  31.479  25.205   5.009 -0.1493  0.0845  0.1259
67883W        W10796  33.663  15.095  27.446  0.2477  0.1464  0.3311
67884W        W10797  20.850   1.676   9.405 -0.3464  0.2617  0.3290
67885W        W10798   7.704  14.612   5.075 -0.1966  0.0764  0.1200
67886W        W10799   4.848   2.657   1.659 -0.1598  0.0301 -0.1595
67887W        W10800   5.972   7.316   9.102 -0.0220  0.0834  0.2506
67888W        W10801   4.168  13.317   6.084 -0.1525 -0.1341  0.2658
67889W        W10802   5.990  11.367  10.421  0.5805 -0.0352 -0.3659
67890W        W10803   2.666  10.471  21.706  0.0171  0.0696 -0.4724
67891W        W10804   6.197   4.045  17.800  0.0386  0.0194 -0.0760
67892W        W10805   3.290   2.843   2.536  0.3430 -0.0775 -0.0762
67893W        W10806  32.862  12.151   6.646  0.3329 -0.1534 -0.0056
67894W        W10807  11.838   2.943  12.436 -0.4497  0.4232  0.0271
67895W        W10808   1.145   8.276   9.360 -0.1370  0.0225 -0.0387
67896W        W10809   3.824   1.360   8.368 -0.0557 -0.0982 -0.1585
67897W        W10810   1.428  33.533  29.422 -0.0767 -0.1679 -0.4866
67898W        W10811   9.917  10.549   7.615 -0.1514 -0.0986  0.0013
67899W        W10812  10.154   2.304   7.533  0.0307  0.1927 -0.0011
67900W        W10813   1.729  15.495   9.135  0.3272 -0.0559  0.3855
67901W        W10814   2.009  11.720  27.919 -0.0327  0.2312 -0.0805
67902W        W10815   8.338   6.780   5.315  0.1324 -0.1496  0.0751
67903W        W10816  10.917   7.756   5.676 -0.2020  0.2202  0.2106
67904W        W10817  10.100   6.410   9.768 -0.4730  0.1885 -0.3709
67905W        W10818  31.866   4.397  11.376 -0.1054  0.0213 -0.1151
67906W        W10819  11.341   4.329   6.692  0.1295  0.2517  0.1466
67907W        W10820  34.210   7.490   2.906 -0.1177 -0.0035  0.1506
67908W        W10821   9.061   5.291  13.136  0.0525  0.0130 -0.2163
67909W        W10822   4.988  33.174   7.397  0.2312  0.1866 -0.1339
67910W        W10823  33.243  28.017  10.282  0.1117  0.1642 -0.1148
67911W        W10824  14.079  30.086  28.748 -0.1581  0.0298 -0.1204
67912W        W10825  33.231   0.046   0.600 -0.0407  0.2954  0.1679
67913W        W10826   3.239   8.201   6.359 -0.0313  0.2204 -0.0497
67914W        W10827  10.142   1.395   7.454 -0.0429 -0.2469  0.1061
67915W        W10828   1.138  32.629   6.859  0.0096 -0.1108 -0.0006
67916W        W10829   8.284   4.842  10.461 -0.1628 -0.0578 -0.1607
67917W        W10830   3.854  29.780  10.399  0.1648 -0.0305 -0.0186
67918W        W10831   3.238  11.264  27.164 -0.1182 -0.0170  0.0769
67919W        W10832  10.841  23.766   4.095  0.1794 -0.2557 -0.1492
67920W        W10833   4.720   0.897   0.180  0.0007  0.1455 -0.1046
67921W        W10834   3.173  11.707   9.841 -0.1351  0.0545 -0.1219
67922W        W10835   8.023   2.920   5.751  0.1889 -0.0621  0.0745
67923W        W10836  21.949   3.715   4.899  0.2983 -0.0145 -0.0671
67924W        W10837  18.556  28.902   1.153 -0.0933 -0.2103 -0.0119
67925W        W10838  33.429   1.344   1.243  0.0588  0.4598  0.2362
67926W        W10839  20.236   1.224   5.072 -0.2300 -0.1431  0.0836
67927W        W10840   9.891  11.137   0.928 -0.0471  0.1360  0.0241
67928W        W10841  34.352  31.916   4.611  0.0202  0.2638  0.1035
67929W        W10842   6.482  34.296   8.078  0.0093  0.0220  0.0538
67930W        W10843   4.788   7.562  12.021  0.2802  0.1798  0.0661
67931W        W10844  31.770   7.989   6.832 -0.2737 -0.0033 -0.5943
67932W        W10845  17.817   2.654   5.451  0.0461  0.2808  0.3078
67933W        W10846  10.824   7.115  10.764  0.1755 -0.2140 -0.3804
67934W        W10847  10.038   0.385   9.391  0.2132 -0.1150 -0.1003
67935W        W10848   2.527   6.580   3.838 -0.0438  0.1624  0.1058
67936W        W10849   8.587  34.439   8.573  0.0109 -0.0346  0.0451
67937W        W10850   6.508   4.158  29.235 -0.2021 -0.0046 -0.5026
67938W        W10851   4.945   1.197  28.346  0.1590 -0.0835  0.1733
67939W        W10852   1.818   3.616   2.338 -0.2145 -0.0192  0.0673
67940W        W10853  31.231  11.578   0.694 -0.1018 -0.0140  0.2269
67941W        W10854   7.882  26.812   1.030  0.2255  0.0173  0.0535
67942W        W10855   0.671   8.029   3.019  0.0861  0.1919  0.0392
67943W        W10856   5.733   9.169   5.789 -0.0011 -0.3758  0.0617
67944W        W10857   6.168   7.509   7.148 -0.0639 -0.2891  0.1843
67945W        W10858  13.122   4.494  29.053  0.0082  0.2874 -0.0045
67946W        W10859  30.041  11.982   5.881  0.1144 -0.1366  0.3774
67947W        W10860   7.098   5.351   7.405 -0.3466 -0.1380 -0.1147
67948W        W10861  12.477  32.104  23.356  0.1338 -0.1181 -0.1052
67949W        W10862  27.609  11.977   0.399  0.0396  0.1765  0.0772
67950W        W10863   8.572   1.936  20.694 -0.0058 -0.1536 -0.0615
67951W        W10864   2.406   4.051  25.648  0.3487  0.2205 -0.2963
67952W        W10865  23.533  13.351   1.819 -0.3924 -0.0803 -0.0484
67953W        W10866   0.065   9.882   0.176 -0.0597 -0.0039 -0.1574
67954W        W10867   9.577   4.351  24.535  0.2449  0.2852  0.3038
67955W        W10868  11.089   4.454   9.673 -0.1090 -0.0943  0.3796
67956W        W10869   0.688   3.468  29.419  0.4094  0.1640 -0.2555
67957W        W10870   4.137  11.219   3.229 -0.0289 -0.0411 -0.1507
67958W        W10871  10.674  13.626   3.754  0.1707 -0.0198 -0.0320
67959W        W10872   6.352   6.608   7.844 -0.0731 -0.0809 -0.0360
67960W        W10873  17.464   6.976  29.483  0.3998  0.2354 -0.0940
67961W        W10874  33.769  34.228   9.679  0.0992  0.0373  0.1968
67962W        W10875  11.409   5.787   3.835  0.2353  0.0551  0.4702
67963W        W10876   3.802  20.459  29.436  0.0698  0.0163  0.0977
67964W        W10877   5.497   7.666  11.464  0.2071  0.0378  0.0899
67965W        W10878  10.682  30.590   1.437 -0.0518  0.2848 -0.5189
67966W        W10879   0.346  12.767   7.620  0.0238  0.1540  0.3293
67967W        W10880   3.065   7.955  10.614  0.0737  0.2091 -0.1967
67968W        W10881   2.075   7.284  10.766 -0.3999  0.0890  0.1368
67969W        W10882   5.766   8.770  19.386 -0.0855  0.0824  0.0371
67970W        W10883   6.284   4.017   8.391 -0.1060  0.1730  0.3013
67971W        W10884   6.957   4.021   1.666 -0.2691 -0.0336  0.1170
67972W        W10885   1.888  27.113   5.944  0.2005 -0.1479  0.0957
67973W        W10886  30.554   6.142   7.871 -0.3458 -0.0517  0.5207
67974W        W10887   5.495   7.878   7.587  0.3094 -0.0692 -0.3651
67975W        W10888   0.268  33.261  10.729  0.0643  0.0049  0.3512
67976W        W10889  12.858   1.668   1.885 -0.3264 -0.1011 -0.0399
67977W        W10890  15.877   9.275   0.747  0.0378  0.3511 -0.1893
67978W        W10891   1.087   8.458  26.699  0.1382  0.3510 -0.1602
67979W        W10892   9.845  33.491  10.138 -0.2050 -0.1062  0.1640
67980W        W10893   3.965  18.003   1.153  0.1141  0.2085  0.3198
67981W        W10894  13.666   3.487  28.876 -0.0602  0.3082 -0.0351
67982W        W10895   1.510  11.678   9.701  0.1243 -0.0758 -0.2299
67983W        W10896  33.320   5.483  23.572  0.3261 -0.1678 -0.1537
67984W        W10897   7.986   6.934  11.752 -0.2894  0.1474  0.1090
67985W        W10898  15.430   4.760   5.763 -0.0659 -0.2015  0.0402
67986W        W10899  33.502   7.046   6.022 -0.1723  0.3242 -0.1491
67987W        W10900  31.879   5.237  10.285  0.1205  0.1543 -0.2831
67988W        W10901   9.025  33.995   2.324 -0.2129  0.1015  0.1376
67989W        W10902  12.482   2.300   3.958  0.1499 -0.1020  0.1608
67990W        W10903   7.173   3.186   6.772 -0.0724  0.0989  0.1816
67991W        W10904   7.932   6.978   0.915 -0.0762 -0.0388 -0.1049
67992W        W10905  11.188  30.727   9.586  0.2158 -0.2391 -0.2528
67993W        W10906   5.710   7.215  12.102  0.1747 -0.0555 -0.1230
67994W        W10907  32.022  33.221   9.993  0.1826 -0.0279 -0.1071
67995W        W10908   9.709   2.495  10.441 -0.0593  0.3031 -0.1231
67996W        W10909  11.221  28.102   5.579  0.2406  0.2111 -0.1836
67997W        W10910   1.948   5.983   0.360  0.3273  0.2259  0.1292
67998W        W10911  14.411   0.088   8.026  0.1886 -0.0407  0.0625
67999W        W10912  33.371  32.495   9.060 -0.0983 -0.0487 -0.3078
68000W        W10913   6.093   9.167  29.387 -0.0967  0.1803 -0.2515
68001W        W10914  23.780  15.257   3.175  0.0958 -0.1019 -0.3560
68002W        W10915  33.090  31.160   7.540 -0.2907  0.2863 -0.0612
68003W        W10916   5.888   2.565  28.438  0.2483  0.2642 -0.2885
68004W        W10917  14.235  20.120   7.802  0.1107 -0.2013  0.0487
68005W        W10918   2.872  10.970   5.590  0.1839 -0.2441 -0.2219
68006W        W10919   0.955   9.637   6.000 -0.1673 -0.0559 -0.2031
68007W        W10920   8.212   7.795  11.244  0.2139 -0.2532 -0.0860
68008W        W10921   3.956   2.003  11.338 -0.2603  0.1989 -0.0584
68009W        W10922   8.764   8.784  18.103 -0.0655 -0.0638 -0.0822
68010W        W10923   3.495   4.107   4.740 -0.1026 -0.0989 -0.0321
68011W        W10924  12.341  31.962   9.271  0.0371 -0.1965 -0.0241
68012W        W10925   8.518   6.572   5.914  0.2107  0.0429  0.1795
68013W        W10926  12.829  11.597   5.749  0.1736 -0.0033  0.1696
68014W        W10927  10.766   2.492   7.394  0.3708  0.2224  0.1033
68015W        W10928   5.610   1.277   4.076 -0.1331  0.0011  0.0134
68016W        W10929  12.022  27.468   5.750 -0.2747 -0.1662 -0.2050
68017W        W10930  34.113   6.244  27.804 -0.0045  0.1485 -0.5600
68018W        W10931  10.932  11.675  28.027 -0.1832  0.1455  0.0184
68019W        W10932   9.531   1.122   8.774  0.0905  0.0337 -0.0250
68020W        W10933  31.912   6.457   0.331  0.2976 -0.0787 -0.0574
68021W        W10934  15.520  26.536   1.012  0.2181  0.0480 -0.1655
68022W        W10935   4.934  12.094   8.616 -0.1354  0.0389  0.0310
68023W        W10936   6.898   0.011   5.955  0.0427  0.0507  0.1681
68024W        W10937   2.412   6.548  27.709 -0.1936  0.3306  0.0006
68025W        W10938   6.582  31.147   3.922 -0.1054 -0.0184 -0.0479
68026W        W10939   4.744  30.723   7.350 -0.2108  0.3890  0.1682
68027W        W10940   7.935   4.636   9.066 -0.0326 -0.0005  0.5015
68028W        W10941  16.975   3.119   7.808 -0.2333  0.0579  0.1065
68029W        W10942   9.065  32.435  10.239 -0.2849  0.1589  0.1403
68030W        W10943   9.346   2.280  10.938  0.0841  0.2598 -0.1456
68031W        W10944   5.829  34.191   1.886 -0.0215  0.1575  0.0125
68032W        W10945  32.901   6.363   9.701  0.0987  0.0730 -0.0183
68033W        W10946   6.104  34.195  11.522 -0.0894 -0.0018  0.1738
68034W        W10947  12.360  18.057  29.484  0.0045  0.2078  0.2518
68035W        W10948  10.740  12.016   5.773 -0.0779 -0.1888  0.0886
68036W        W10949   7.894   2.477  10.633  0.2011 -0.2134 -0.1954
68037W        W10950   3.211  10.262   6.617  0.2540  0.0475 -0.1124
68038W        W10951  26.894   2.246  20.998 -0.2676  0.3433 -0.2276
68039W        W10952  34.000   6.353   7.510  0.3993  0.1052  0.0953
68040W        W10953   6.733  24.488  29.247 -0.2555  0.2416 -0.0203
68041W        W10954   4.036  11.073   9.819  0.1763  0.2298  0.1917
68042W        W10955  28.368  15.719   8.824 -0.0214  0.2585 -0.4018
68043W        W10956   0.309  17.917   8.799 -0.2659 -0.1354 -0.2630
68044W        W10957  14.450   7.766   4.834  0.0049  0.1655  0.1224
68045W        W10958   7.521  15.076   5.964  0.1771 -0.1878  0.0744
68046W        W10959  13.049   2.374  10.190 -0.0403  0.0843 -0.2760
68047W        W10960   6.124  33.859  27.272  0.0367  0.2450  0.0728
68048W        W10961  13.295  15.719   3.802 -0.1216 -0.0489  0.0192
68049W        W10962  11.864   6.992   9.713 -0.1451  0.2473 -0.0612
68050W        W10963   9.247   7.865   9.722 -0.1873 -0.0186  0.2365
68051W        W10964  33.116  14.846   7.653  0.0195 -0.1411 -0.1968
68052W        W10965  10.311  30.592  10.212 -0.1232 -0.5794 -0.1323
68053W        W10966   6.618   0.071   6.776 -0.2278  0.0318  0.0003
68054W        W10967  16.858   5.842   9.271 -0.1057 -0.0817 -0.0409
68055W        W10968  15.297  11.251   3.891 -0.4214 -0.1361 -0.1762
68056W        W10969   3.800   0.339   5.208 -0.0826  0.0664  0.0038
68057W        W10970   2.724  16.957   0.457  0.5299  0.3516 -0.0016
68058W        W10971  24.158   7.852   0.242  0.0082  0.2560  0.3252
68059W        W10972   0.654   4.511   2.598  0.1575  0.1331 -0.2623
68060W        W10973   9.465   0.728   3.246  0.4181 -0.0897 -0.0401
68061W        W10974   5.360  34.144   7.961  0.0323 -0.1897  0.0577
68062W        W10975   5.209  28.376   6.280  0.1346 -0.2098 -0.1499
68063W        W10976  10.150   9.514   0.870  0.1207 -0.2382  0.0316
68064W        W10977  33.513   7.413   3.597 -0.0504 -0.1272 -0.1220
68065W        W10978   7.243   1.347  12.037  0.0526 -0.1435  0.2230
68066W        W10979  10.331  33.573  10.940 -0.3060  0.0424  0.1628
68067W        W10980  10.712  13.863   8.380  0.2149  0.1474  0.1085
68068W        W10981   5.510  27.211   3.123  0.2561  0.0900 -0.0721
68069W        W10982   4.188  32.818   9.916 -0.2227 -0.1889  0.4137
68070W        W10983   6.552  11.947   6.916 -0.5712  0.1201 -0.1567
68071W        W10984   3.622   8.507   2.053 -0.0825  0.0501 -0.0234
68072W        W10985   0.971   8.611   7.313  0.2543  0.1082  0.1663
68073W        W10986  15.406  13.776   2.704  0.2032 -0.0220  0.0176
68074W        W10987  33.716   2.853   9.641 -0.2597  0.0098  0.1439
68075W        W10988   3.506  14.976   5.449 -0.0021 -0.0314  0.0328
68076W        W10989  32.153   1.784   8.341  0.0066 -0.2832 -0.1427
68077W        W10990  18.591  10.938   8.173 -0.1263  0.2238  0.1016
68078W        W10991  32.715  13.238  10.023 -0.0206 -0.0230  0.3480
68079W        W10992  13.216   3.691   6.255 -0.0466 -0.1467  0.0267
68080W        W10993   7.770  33.240   8.798 -0.0777  0.0780 -0.0261
68081W        W10994  34.227   6.846   3.806  0.1745  0.0490 -0.1872
68082W        W10995  10.217   3.797   8.239  0.2679 -0.4991  0.1457
68083W        W10996   5.262   3.777   4.073 -0.0664 -0.0539  0.1571
68084W        W10997  12.214   0.274  10.156 -0.0675  0.0960  0.1524
68085W        W10998  11.014   7.829  11.593 -0.1785 -0.0102 -0.0360
68086W        W10999  12.650   3.272   3.651  0.2640  0.1373  0.1401
68087W        W11000  27.100   1.856   7.234 -0.0894 -0.2142 -0.1799
68088W        W11001  14.619   0.749  10.750 -0.1082  0.4478 -0.0655
68089W        W11002  17.636  12.331   6.690 -0.0245  0.0220  0.1070
68090W        W11003   8.337  12.279   9.092 -0.1236 -0.0643  0.1799
68091W        W11004   3.354  31.394   9.369  0.2275  0.0029  0.1797
68092W        W11005   0.672   3.758   9.916  0.0223  0.1180 -0.3409
68093W        W11006   8.184  29.454   3.954  0.2715  0.0209 -0.1094
68094W        W11007   9.022   1.973  11.187  0.0701 -0.0675  0.0633
68095W        W11008  10.039  10.493   3.985 -0.0295  0.0204  0.1280
68096W        W11009   0.475   8.799   4.282  0.2049  0.2040 -0.1753
68097W        W11010   8.388   2.361  10.697 -0.1894 -0.1067  0.1268
68098W        W11011  31.056   6.169   9.159 -0.1880 -0.2570 -0.2159
68099W        W11012   6.507  33.386  29.045  0.3650 -0.1101 -0.2644
68100W        W11013   4.196   6.667   9.589 -0.1079 -0.2551  0.0932
68101W        W11014   5.246   1.061   9.246  0.0146  0.3329  0.2007
68102W        W11015  12.835  33.517   9.631  0.0774  0.0557 -0.0117
68103W        W11016   7.099  16.746  10.196  0.0613 -0.1313  0.2803
68104W        W11017   8.265  13.145   5.040  0.1185  0.1797  0.2679
68105W        W11018   7.423  32.996  12.532 -0.1577 -0.2224  0.0679
68106W        W11019   3.699  28.645  29.657 -0.1606 -0.0040 -0.1118
68107W        W11020   8.052   4.521  13.355  0.0404  0.0774  0.1538
68108W        W11021   7.641   8.771  10.955 -0.4615  0.0693 -0.0212
68109W        W11022   6.316  13.157   7.401  0.0744 -0.2504 -0.4671
68110W        W11023  30.018   3.833   8.605 -0.3398 -0.0222  0.2546
68111W        W11024   3.900   9.197   6.124 -0.1717  0.1016  0.0748
68112W        W11025   6.697   5.410   3.371 -0.1294 -0.6721  0.0055
68113W        W11026  14.383   2.768   7.931 -0.3642  0.0452  0.1744
68114W        W11027  19.523   7.396   4.200 -0.0675  0.0345  0.0410
68115W        W11028  15.571  13.949   9.014 -0.0470  0.1480 -0.0252
68116W        W11029  34.349  26.091   6.610  0.0911  0.0816 -0.0847
68117W        W11030   2.576  34.478   1.235  0.4338 -0.2049 -0.1423
68118W        W11031   3.443   7.849   4.337 -0.1799 -0.1652  0.0487
68119W        W11032   3.813  13.738   4.773 -0.4651  0.3095  0.1609
68120W        W11033  12.719  32.857   6.827  0.1529 -0.2062 -0.0106
68121W        W11034   5.454   5.874   6.519  0.3198  0.2272 -0.2733
68122W        W11035  10.357  33.171   2.913 -0.2010 -0.1314  0.0020
68123W        W11036  31.262   9.825   3.242 -0.0427  0.5070 -0.2273
68124W        W11037   0.770  32.599   7.220 -0.3763 -0.0145  0.0591
68125W        W11038   6.497  10.180  11.033 -0.0496  0.1919  0.3034
68126W        W11039  10.618   2.980   8.653 -0.0810  0.1223 -0.2289
68127W        W11040   6.947  33.480  11.737 -0.0229  0.0855  0.5451
68128W        W11041   2.771  11.081  24.454  0.5723 -0.0009 -0.2676
68129W        W11042   6.689   6.866   2.142  0.1918  0.1506 -0.3018
68130W        W11043  33.158  29.017   7.809  0.0612 -0.2325  0.1624
68131W        W11044   4.198   5.498   7.128 -0.0206  0.1679 -0.0363
68132W        W11045  10.676   3.326   9.143 -0.1340 -0.0067 -0.0111
68133W        W11046  15.465   6.328   6.375 -0.0596  0.3993  0.0656
68134W        W11047  10.292   3.933   4.156  0.1702 -0.2181  0.0054
68135W        W11048   3.103  28.931   9.981 -0.0502 -0.0307  0.1355
68136W        W11049  30.285  32.852   7.215  0.2199 -0.1193 -0.1309
68137W        W11050   1.108  15.300  29.537 -0.1190  0.2210 -0.0074
68138W        W11051  11.673  14.936  23.559  0.1489  0.3058  0.0621
68139W        W11052   2.430  33.648   9.917 -0.1633 -0.1843 -0.0987
68140W        W11053  11.877  12.645   7.117  0.1209  0.1640 -0.0451
68141W        W11054   1.976   9.240   2.940 -0.1507  0.0572  0.3612
68142W        W11055  32.809  14.826   1.488  0.0835 -0.3859 -0.0434
68143W        W11056  16.756   6.349   2.883  0.1475  0.1879  0.0265
68144W        W11057   5.873  11.016   9.645 -0.1125  0.0409  0.0483
68145W        W11058   3.533  33.436  10.132 -0.0573  0.1611 -0.0696
68146W        W11059  12.446   7.545   1.166  0.0536  0.0884 -0.0517
68147W        W11060   7.124  15.576   9.956  0.1375  0.4425  0.0381
68148W        W11061   3.628   7.304   4.402 -0.1435 -0.0946 -0.1400
68149W        W11062   8.768   4.872   8.544  0.0234 -0.1437  0.2499
68150W        W11063   8.406   2.001   1.861 -0.0720  0.0743  0.0505
68151W        W11064  14.692  10.520   0.733 -0.1271 -0.0351 -0.1809
68152W        W11065   5.491  16.257   3.898  0.0698  0.3813  0.0882
68153W        W11066   9.022   7.052  12.123  0.1441  0.1618 -0.2689
68154W        W11067  13.287  34.206  10.495  0.0736 -0.0972  0.0237
68155W        W11068  23.182   8.772   1.669 -0.0829 -0.1705 -0.0515
68156W        W11069   2.071   8.265  10.401 -0.0804 -0.4946  0.2321
68157W        W11070   3.806   3.059  28.091 -0.2772 -0.1736 -0.0124
68158W        W11071   6.291   6.139   1.019 -0.0197 -0.1255  0.1267
68159W        W11072   9.101  10.612   7.663 -0.0241 -0.0894 -0.0964
68160W        W11073   6.774  10.269   1.951 -0.0529  0.1051 -0.1112
68161W        W11074   9.816  30.103   6.085  0.0566 -0.0755 -0.2399
68162W        W11075   2.280  10.561   6.093 -0.0098 -0.2721  0.2486
68163W        W11076  32.035   1.394   2.240 -0.0045 -0.0080  0.2443
68164W        W11077   8.245   0.112  23.585  0.0494  0.3247 -0.1633
68165W        W11078   8.098   3.125  27.450 -0.1701 -0.3292 -0.3324
68166W        W11079   5.998   5.527   4.092  0.0238 -0.0749  0.3223
68167W        W11080  13.221  13.643   0.063 -0.0019  0.1631  0.2871
68168W        W11081   9.959   8.084   0.248  0.1124 -0.1364 -0.0531
68169W        W11082  22.899   5.364  15.653  0.1629  0.0086  0.1199
68170W        W11083   1.160  24.134   8.122  0.0620 -0.5015 -0.1097
68171W        W11084   9.817   6.166   0.993 -0.0271 -0.1958  0.0489
68172W        W11085   9.052  32.829   8.928  0.1871  0.1992 -0.2080
68173W        W11086  15.179   6.188   7.266 -0.1229 -0.2926  0.1413
68174W        W11087  30.380  32.980   5.846  0.0490  0.1805  0.0902
68175W        W11088   6.850   1.211  12.318  0.0588  0.2931  0.1259
68176W        W11089  15.203   1.733   8.206  0.1010 -0.1313 -0.0866
68177W        W11090   9.801   4.867  12.379  0.2456  0.1001  0.0207
68178W        W11091  13.172   8.805   4.368  0.1935 -0.1374  0.2214
68179W        W11092   0.617  31.519   9.054 -0.3205  0.1632 -0.0271
68180W        W11093  30.803  16.780   8.271 -0.0971 -0.1856  0.3022
68181W        W11094   7.230  22.180   8.722 -0.0162 -0.1851  0.2354
68182W        W11095  16.628   8.739   9.031  0.1270 -0.1809  0.1441
68183W        W11096  33.447   3.893  10.545 -0.0815  0.0282 -0.3103
68184W        W11097   0.819   4.866   4.376 -0.1846 -0.1379 -0.4915
68185W        W11098   2.972   0.832   5.350 -0.2632  0.1131  0.3262
68186W        W11099   5.794   0.255   5.888  0.2246  0.0335  0.1689
68187W        W11100   4.577   3.946  11.254  0.0798  0.2381  0.0845
68188W        W11101   8.240   9.494   9.540  0.0188 -0.0704  0.0821
68189W        W11102   1.832  10.135   4.279 -0.3005 -0.3033  0.2689
68190W        W11103   0.913   8.149  11.378  0.0066  0.1387 -0.0904
68191W        W11104  29.558  12.293   8.462 -0.0728  0.0579  0.3736
68192W        W11105  31.998  11.367   5.927  0.2489 -0.0033  0.3696
68193W        W11106  19.678  11.449   7.455 -0.0089 -0.3446  0.2222
68194W        W11107   6.207  11.357   8.959  0.4758 -0.3782  0.1813
68195W        W11108   2.709  31.090  25.743  0.1641 -0.0024  0.0873
68196W        W11109   6.559  33.479  10.964 -0.0264  0.3980 -0.0093
68197W        W11110   3.136   7.503   7.456 -0.2373 -0.3609 -0.2821
68198W        W11111   7.829  13.507   4.531 -0.2090 -0.0381  0.1662
68199W        W11112   7.508  27.633  10.453 -0.0889  0.4265 -0.0194
68200W        W11113  27.639  34.055   5.573  0.1924 -0.1016 -0.1288
68201W        W11114  34.422   4.657  23.709 -0.1633 -0.1553 -0.2542
68202W        W11115   0.642  15.705   9.194 -0.1497  0.0390 -0.3079
68203W        W11116   8.958   3.376   6.832  0.1684 -0.1755  0.0855
68204W        W11117  34.085  13.998   3.509 -0.0281  0.1350 -0.0134
68205W        W11118   1.758   3.824  26.637  0.0786 -0.0175  0.0993
68206W        W11119  14.030   9.178   1.761  0.3930  0.2371 -0.0744
68207W        W11120  34.459  11.809   4.606  0.0325 -0.1453  0.1390
68208W        W11121   5.997  11.344   7.946 -0.0547  0.1080  0.0497
68209W        W11122  12.525   2.584   7.796 -0.2644 -0.1063  0.2435
68210W        W11123   2.217   7.569   5.563 -0.0616 -0.2471  0.0586
68211W        W11124  26.449  10.575   4.613 -0.4146 -0.1942 -0.1186
68212W        W11125   0.814  14.165  29.160  0.0212  0.2894 -0.0247
68213W        W11126   7.914   9.198  10.834 -0.0854 -0.3241 -0.1245
68214W        W11127  10.454   8.916  28.346 -0.1990 -0.0237  0.1695
68215W        W11128   5.111   7.474   7.712 -0.0858 -0.2977 -0.1428
68216W        W11129  33.813  17.772   0.206  0.4140  0.0715  0.1028
68217W        W11130   7.818  15.316   8.753 -0.0082 -0.1992  0.1499
68218W        W11131   0.564   8.931   5.652 -0.1116 -0.4594 -0.0558
68219W        W11132  32.169   5.740   4.794  0.0011  0.1346  0.0428
68220W        W11133   5.463  31.285  28.882  0.1316 -0.0263  0.1106
68221W        W11134   9.646   1.614  20.581 -0.0588 -0.1339 -0.0075
68222W        W11135   9.790  17.066   8.692  0.0270  0.0055  0.0289
68223W        W11136   7.970   0.374   5.842 -0.1816  0.1361  0.1256
68224W        W11137   0.285  13.357   4.720  0.0481 -0.0408  0.4334
68225W        W11138   3.295  10.588   1.348 -0.2037  0.3692  0.0057
68226W        W11139  11.965   9.022  10.172  0.3809 -0.0258 -0.2634
68227W        W11140   8.237   2.863   8.636 -0.5917  0.1327 -0.0676
68228W        W11141   8.906  11.865  23.042 -0.1676  0.4642 -0.2786
68229W        W11142  10.102  30.199  11.863 -0.3398  0.1007 -0.2041
68230W        W11143   7.533  22.633   3.318  0.2503 -0.1244  0.2281
68231W        W11144   4.801   7.687   4.019 -0.1366 -0.0699  0.0437
68232W        W11145   7.624   6.381  10.344 -0.2291  0.1670 -0.0124
68233W        W11146   2.217   6.101   6.705 -0.0451 -0.1336  0.0825
68234W        W11147   6.444   9.760   4.548 -0.1704 -0.1530 -0.1723
68235W        W11148   5.754   7.870   9.046  0.0960 -0.1487 -0.1182
68236W        W11149  15.478   5.279  11.197  0.0182  0.1304  0.2202
68237W        W11150   5.021   8.365   3.648  0.2662  0.0316 -0.0478
68238W        W11151  30.131  32.759   1.097  0.0828 -0.1139  0.1275
68239W        W11152  34.117   7.486  11.478 -0.2043 -0.1277  0.0799
68240W        W11153   0.478   8.872  28.299 -0.1315 -0.3274 -0.0809
68241W        W11154   5.007  31.924   2.280  0.1414  0.4044 -0.1159
68242W        W11155  10.758   2.801   3.074 -0.2031 -0.1101 -0.0915
68243W        W11156   6.158   5.508   3.180  0.2827  0.1313 -0.1275
68244W        W11157   4.742  27.873   1.100 -0.0683  0.0283 -0.0668
68245W        W11158  10.163  29.636  11.166 -0.0562  0.0746  0.3557
68246W        W11159   6.609  31.772  10.822 -0.0725  0.2691  0.0556
68247W        W11160  18.438   1.656  21.002 -0.1347  0.0859 -0.1303
68248W        W11161  11.964   2.021   6.541 -0.1156  0.0724 -0.3386
68249W        W11162   4.453  31.766  28.800  0.0496  0.0023  0.1289
68250W        W11163   6.040  33.715   8.960 -0.0905 -0.1101  0.2039
68251W        W11164  10.468   9.083   6.216  0.4863 -0.3164  0.2149
68252W        W11165   4.636   3.548   6.057 -0.1931 -0.1103 -0.1234
68253W        W11166   3.812  13.052   7.360  0.1103 -0.0786  0.1092
68254W        W11167   3.519   3.675  11.289  0.0173  0.0939 -0.1481
68255W        W11168   0.056   7.842   2.986 -0.0407 -0.1738 -0.0808
68256W        W11169  24.003   9.015   9.267 -0.0721  0.1042  0.0280
68257W        W11170  22.058   5.993   9.616 -0.0960  0.2080 -0.2604
68258W        W11171  10.969   4.908  10.198 -0.0354  0.0774  0.1254
68259W        W11172   4.903   9.934  10.502  0.1712 -0.1287 -0.1984
68260W        W11173  22.129  10.907   3.590  0.3530 -0.0306  0.1273
68261W        W11174  30.280  13.611   7.110 -0.0296 -0.2219  0.0265
68262W        W11175  29.291   7.744   7.850  0.1181 -0.1037  0.2715
68263W        W11176  14.262   5.083   4.961  0.1711 -0.1700  0.0900
68264W        W11177  10.755  18.014   6.901 -0.0382  0.0881 -0.1481
68265W        W11178   6.405   5.589   6.879  0.1932 -0.0813 -0.0056
68266W        W11179  20.730   7.856   4.457  0.2057  0.0768  0.2891
68267W        W11180   1.309   1.351   4.632  0.1975 -0.1094 -0.2834
68268W        W11181  10.241  34.257   5.450  0.4905 -0.1763  0.0198
68269W        W11182   1.598  12.519   2.030  0.0911 -0.1116  0.3357
68270W        W11183   5.068   4.447  10.343 -0.4511  0.3040  0.1255
68271W        W11184   6.932   1.019   5.654  0.1343 -0.0358 -0.1429
68272W        W11185  11.065  10.398  11.021  0.1960 -0.2964  0.0251
68273W        W11186   5.422   5.754  29.695 -0.0362  0.2461 -0.0027
68274W        W11187   7.859   5.322   9.487  0.2068  0.0137  0.0281
68275W        W11188   7.373   0.387   6.197  0.0138  0.1878  0.0564
68276W        W11189   5.651   2.404   9.741 -0.0707  0.1875  0.0123
68277W        W11190  32.486  14.427   8.468 -0.0506 -0.1223 -0.2479
68278W        W11191  12.692   7.792   4.693 -0.0053  0.0356  0.0831
68279W        W11192   7.462  20.941   5.009 -0.2766 -0.1342 -0.0718
68280W        W11193  12.407   5.895   6.807  0.5693  0.3918 -0.2358
68281W        W11194   9.592   5.889   5.617  0.0254 -0.0664 -0.1907
68282W        W11195  14.782   9.280  28.818  0.0976 -0.1736  0.0858
68283W        W11196  33.730   6.800  10.788  0.1967 -0.0883 -0.1321
68284W        W11197  14.131  30.023   3.127  0.1957  0.3795 -0.0078
68285W        W11198   6.827  10.927   1.269  0.0292  0.0342  0.0509
68286W        W11199   8.044  14.195  28.495 -0.1047  0.2253 -0.2438
68287W        W11200  10.760  15.224   2.975  0.2866 -0.0952 -0.0610
68288W        W11201   7.827   4.998   7.920  0.0230 -0.0089 -0.1044
68289W        W11202   7.771   1.650   9.264 -0.2419  0.1837  0.0490
68290W        W11203   0.621  31.377   4.925 -0.1933 -0.0352 -0.1535
68291W        W11204   6.232   8.804  11.318 -0.0077  0.3198 -0.2641
68292W        W11205  13.961   7.489   4.880 -0.1386 -0.2460 -0.0504
68293W        W11206   3.969   1.018  10.933  0.4256  0.2337 -0.2243
68294W        W11207   7.817  32.670  11.783  0.0043  0.4422 -0.2401
68295W        W11208  27.716   1.097   9.594  0.0034 -0.0343  0.0558
68296W        W11209   6.690  32.281  10.145  0.0602  0.0337  0.0049
68297W        W11210  13.373  32.865   1.492  0.1652  0.0512  0.4236
68298W        W11211  11.315  28.923   5.325 -0.0806  0.1921  0.1600
68299W        W11212   8.058  34.344   2.919  0.0068  0.0473 -0.0773
68300W        W11213   4.507  34.312  11.539 -0.1331  0.2994  0.0845
68301W        W11214  31.491   6.721   8.691  0.1670 -0.1012 -0.0324
68302W        W11215   4.144  34.190  10.500  0.0274 -0.0437  0.0290
68303W        W11216  10.546   5.663  27.415  0.1185  0.2335 -0.1609
68304W        W11217  33.791   7.853   7.807 -0.0124  0.3265  0.0145
68305W        W11218   1.301  12.518   7.095 -0.3350  0.6022  0.4074
68306W        W11219  30.503   3.960   8.333  0.4223 -0.3001 -0.1780
68307W        W11220  14.275  33.491   8.618  0.1679  0.0513  0.3932
68308W        W11221   4.480   4.879  12.214 -0.1445 -0.0563  0.1220
68309W        W11222   7.254   5.115  11.667 -0.1108  0.1993 -0.1724
68310W        W11223   4.746   6.054  12.376 -0.3963  0.0843 -0.1893
68311W        W11224   6.289   9.563   8.552  0.1064  0.0288 -0.1557
68312W        W11225   4.357   8.699  12.920 -0.0824 -0.0430 -0.0655
68313W        W11226  34.211   6.889  11.574 -0.2797  0.0138  0.0880
68314W        W11227  30.817  10.335   3.686  0.0066  0.1741  0.4981
68315W        W11228   4.624   0.294  12.284 -0.1090  0.0873  0.3893
68316W        W11229   4.966   4.478  12.331  0.1184  0.0859 -0.2169
68317W        W11230  10.828  12.754   4.004  0.0178 -0.0845 -0.0665
68318W        W11231   7.003   1.732   6.830 -0.2205  0.0930  0.4020
68319W        W11232   7.320   1.338   1.864  0.1260  0.1748  0.1965
68320W        W11233   8.780   3.327  22.639 -0.2085 -0.1271  0.0312
68321W        W11234   8.643   2.258  11.625 -0.0036 -0.1096  0.0932
68322W        W11235   9.501   7.499  10.427  0.2208  0.2953 -0.1536
68323W        W11236  34.419  28.345  26.935  0.4998 -0.2207  0.3324
68324W        W11237   6.985   8.140  10.835 -0.1881 -0.0262 -0.2186
68325W        W11238   7.257   7.774  29.559  0.1041 -0.0728  0.4916
68326W        W11239  18.396   3.166   7.274  0.0214  0.1017 -0.0498
68327W        W11240  33.785   9.635   2.742  0.0524 -0.1841 -0.1163
68328W        W11241  15.338   3.456   5.549 -0.1058 -0.1749 -0.0855
68329W        W11242   1.242   5.047  11.017 -0.0089  0.1465 -0.4113
68330W        W11243   6.765   8.259   1.716 -0.1283  0.2269 -0.0191
68331W        W11244   7.185   9.059  11.862 -0.0158 -0.1412 -0.2663
68332W        W11245  14.294   0.077  25.838  0.1855 -0.0005  0.3316
68333W        W11246   6.673  11.084   9.119 -0.0900 -0.0980 -0.0304
68334W        W11247   7.296   7.013  10.118 -0.0382  0.0204 -0.3379
68335W        W11248   5.906  13.463   5.709  0.1988  0.4586  0.2054
68336W        W11249  33.275   7.878   3.895  0.0542 -0.3127 -0.2715
68337W        W11250  14.501   2.537  29.081  0.1992  0.0652  0.0985
68338W        W11251  33.880  17.232  15.426 -0.1629 -0.0925  0.0632
68339W        W11252  24.533   2.327  29.364 -0.0632  0.0194 -0.4519
68340W        W11253   5.819   9.243   1.486  0.0685 -0.1394 -0.4535
68341W        W11254  16.647   9.928   3.409 -0.1678  0.0818  0.0695
68342W        W11255  31.272  10.787   0.674 -0.2963 -0.0215  0.3099
68343W        W11256  17.836  14.495  29.174 -0.1753  0.5973 -0.1393
68344W        W11257   6.863  14.895  23.277 -0.6333  0.0076 -0.2286
68345W        W11258   5.900  10.555   3.793  0.1323  0.0242 -0.3964
68346W        W11259   9.062  13.855  24.446  0.0310  0.0226 -0.0170
68347W        W11260   0.672   9.379  28.454 -0.1006 -0.0028  0.0357
68348W        W11261  10.457   4.069   3.189 -0.0155  0.2103  0.0330
68349W        W11262  32.860   9.930  16.970  0.1372  0.0710 -0.1423
68350W        W11263   9.297   2.337  13.492  0.1342  0.1815  0.3590
68351W        W11264  32.349  11.119   9.206  0.1290  0.1204  0.3437
68352W        W11265   3.358   4.352  24.041  0.0995 -0.1056  0.2362
68353W        W11266   5.699  14.965  28.626 -0.1029  0.1661 -0.0084
68354W        W11267  29.827   1.242   4.390  0.0352 -0.1035 -0.0806
68355W        W11268   9.905  10.008   3.884 -0.0077  0.0131  0.2210
68356W        W11269  11.031  17.596   7.578  0.0681 -0.1723 -0.1518
68357W        W11270  32.236  14.538   1.540  0.2569  0.0743 -0.0418
68358W        W11271   6.657   6.418  26.924  0.0620  0.0611 -0.1600
68359W        W11272   0.850   4.479  29.155  0.2917  0.3063  0.2756
68360W        W11273   8.452  27.349   8.204 -0.2992  0.0675 -0.0971
68361W        W11274   2.148  10.683  11.539  0.2729 -0.0680  0.2958
68362W        W11275   6.791  10.185  25.330  0.0422 -0.1708 -0.1915
68363W        W11276   4.095  10.849  28.307  0.1475  0.0076  0.0468
68364W        W11277   4.648  10.127   5.923 -0.1705  0.0366  0.2440
68365W        W11278   3.436  12.834   3.335  0.0482 -0.2134  0.2776
68366W        W11279   1.532   6.014  28.145 -0.2404  0.0840 -0.0131
68367W        W11280  10.716  10.117  28.060  0.0443  0.3943  0.1660
68368W        W11281   2.802  14.444  29.077 -0.0901  0.0968  0.5821
68369W        W11282  34.472  13.642  25.049  0.0219 -0.0398 -0.0667
68370W        W11283  10.612  18.442   3.611  0.0695  0.0023 -0.1208
68371W        W11284   8.743  19.434   0.882 -0.0317 -0.0255 -0.0481
68372W        W11285   7.484   9.612  12.264 -0.3819  0.1575 -0.0207
68373W        W11286  30.408  13.468  25.757  0.1671  0.0211 -0.0038
68374W        W11287   3.544  12.794  17.475  0.0665 -0.1059 -0.3207
68375W        W11288   6.669  10.701   2.300  0.0476  0.1509  0.1799
68376W        W11289   7.583  13.663   0.023  0.0772 -0.0354 -0.0100
68377W        W11290   6.369  14.140  29.373 -0.0448 -0.0250 -0.0363
68378W        W11291   2.877  21.755  27.134 -0.0666 -0.0101  0.1438
68379W        W11292  11.327  13.400  24.358  0.0539 -0.0760  0.0829
68380W        W11293  13.073   2.692  28.359  0.1307  0.0013  0.0279
68381W        W11294  29.885  19.713   7.922  0.3728  0.2983 -0.1934
68382W        W11295   4.799   4.662  24.876  0.3840  0.1656 -0.0451
68383W        W11296   1.071  14.310   5.219 -0.1358  0.0511 -0.1111
68384W        W11297  13.368   0.399  18.704 -0.2274 -0.0247  0.2609
68385W        W11298  25.751  14.902  28.734 -0.0921  0.0173  0.1827
68386W        W11299  10.013   6.760   6.661 -0.0384  0.3135 -0.0837
68387W        W11300   2.372   4.546  27.499 -0.2294  0.4206 -0.0782
68388W        W11301   7.199   6.573  12.669 -0.0210  0.0771 -0.0064
68389W        W11302   7.425  10.949  29.432 -0.1685 -0.0726 -0.2538
68390W        W11303  13.501  13.140  27.854 -0.2492 -0.0330  0.2406
68391W        W11304   9.852  14.319  25.736  0.0872 -0.1114 -0.0228
68392W        W11305  10.736  17.149   1.768  0.0336  0.2734  0.2438
68393W        W11306  12.596   8.682  11.325  0.0479 -0.3164 -0.1917
68394W        W11307  31.826   8.918   6.517  0.1513  0.1148  0.2240
68395W        W11308  21.003  10.546  15.447 -0.1198  0.2293 -0.0249
68396W        W11309   3.237  15.634   4.892 -0.1495  0.0340  0.1287
68397W        W11310   4.815   7.931   1.463 -0.2686 -0.0255 -0.1022
68398W        W11311   8.287  11.048   2.352  0.0769  0.1999 -0.0097
68399W        W11312  11.516   4.634   0.759  0.0970  0.2621  0.4744
68400W        W11313   9.015  14.394   5.585 -0.1170  0.3121 -0.0854
68401W        W11314   0.084  14.839  25.688  0.0694  0.2612 -0.0757
68402W        W11315   4.246  10.548   8.153  0.0336 -0.2966 -0.0874
68403W        W11316   6.623   4.841   9.848  0.1784  0.1074  0.0603
68404W        W11317   3.826   5.386   8.353  0.1703 -0.2726  0.4447
68405W        W11318  17.393  12.352  28.681 -0.0774  0.2469  0.1472
68406W        W11319  10.566   8.176  29.389 -0.1045  0.0008  0.2790
68407W        W11320   5.768   8.229   1.674  0.2840 -0.0173 -0.2432
68408W        W11321   7.579   2.424   6.610  0.0607  0.2744  0.0433
68409W        W11322   3.547  12.839   1.778  0.0261 -0.0299 -0.2547
68410W        W11323   7.813   9.005   2.699 -0.1647 -0.1469  0.0347
68411W        W11324  12.793   7.284   2.705 -0.0646 -0.1831 -0.2319
68412W        W11325  28.572  14.779  26.791  0.3637 -0.1123  0.3041
68413W        W11326  26.016   9.875  28.990 -0.3320 -0.0918 -0.1166
68414W        W11327   8.363   4.949  24.040  0.0761 -0.3058  0.2193
68415W        W11328  10.087   8.593   3.837  0.2069  0.0143  0.3968
68416W        W11329  27.213   3.440  21.859  0.0830  0.2636 -0.3642
68417W        W11330   2.248   8.985   8.069 -0.0235  0.1744 -0.0818
68418W        W11331   7.421   5.979  23.685  0.2122  0.6739  0.1760
68419W        W11332   1.511  11.387  28.232 -0.1161  0.5099  0.1429
68420W        W11333   7.541   9.865  26.990  0.3866 -0.1283 -0.0726
68421W        W11334   6.725  12.120   4.652 -0.2183 -0.0167 -0.2745
68422W        W11335   9.748   9.393   4.659  0.2916 -0.2713 -0.2556
68423W        W11336   4.723   4.888   2.787  0.0789 -0.4000  0.1542
68424W        W11337  19.485  22.612  18.413 -0.0684 -0.1135  0.2061
68425W        W11338  18.307   8.415  22.644 -0.1302 -0.1237  0.2088
68426W        W11339   5.000   8.304   5.455  0.0903 -0.0378 -0.1332
68427W        W11340   7.779   7.591  21.624 -0.1422 -0.0061 -0.0661
68428W        W11341  10.927  10.080   7.186 -0.0420  0.1295 -0.0909
68429W        W11342  11.464  34.249   0.773 -0.0071 -0.0955  0.1327
68430W        W11343   5.142  15.269   8.410  0.1573 -0.0224  0.0701
68431W        W11344   1.755   8.654  28.495  0.0303 -0.2668 -0.1012
68432W        W11345  15.056  13.368  25.955  0.2567 -0.0581  0.0618
68433W        W11346   6.949   9.737   0.523  0.1497 -0.1442  0.2914
68434W        W11347   3.853   3.951  28.401  0.2118  0.0646 -0.1606
68435W        W11348   8.213  10.858  26.138  0.1426  0.2624  0.3102
68436W        W11349   1.661   5.550  11.955 -0.1040 -0.0212 -0.2533
68437W        W11350   7.270  12.652  10.151  0.3040  0.1907 -0.3126
68438W        W11351   6.150   9.543   4.214 -0.1238 -0.0906 -0.0850
68439W        W11352   0.855  11.514  27.314 -0.1393 -0.2067 -0.0497
68440W        W11353   7.927  18.942   1.849  0.1086  0.1745 -0.1548
68441W        W11354   0.831  16.669   2.828  0.1924  0.2597  0.0770
68442W        W11355  16.433  18.883  22.313 -0.0725  0.0194  0.1511
68443W        W11356  11.638  23.776   6.778  0.1514 -0.0198  0.0219
68444W        W11357   6.232   4.721  21.392  0.0461  0.0636  0.3774
68445W        W11358   5.482  17.669   0.381 -0.0692 -0.1176 -0.3932
68446W        W11359   4.838   4.047   4.244 -0.2236 -0.1693 -0.3303
68447W        W11360   9.605  17.237  22.884 -0.1524  0.1057 -0.0711
68448W        W11361   3.149   6.382   5.166 -0.2687 -0.1384  0.1605
68449W        W11362  19.141   9.808   3.781 -0.3248 -0.1268  0.0786
68450W        W11363   3.225   8.315  24.867 -0.3969 -0.0891 -0.0727
68451W        W11364   0.605  10.057  22.912 -0.0034 -0.1066 -0.1282
68452W        W11365   4.018  16.353   0.819  0.0733  0.0836  0.0098
68453W        W11366  33.099   9.059  27.877  0.0566 -0.0516 -0.1615
68454W        W11367  18.001   1.552   3.961 -0.1788 -0.2705 -0.1272
68455W        W11368  33.124   0.708  28.127 -0.1623 -0.0188  0.1149
68456W        W11369  11.941   0.437  28.005  0.0978 -0.0071 -0.0523
68457W        W11370  12.464  13.195   3.384 -0.2785  0.1224 -0.2410
68458W        W11371  12.772  13.607  29.591  0.3343 -0.0376  0.0000
68459W        W11372  22.944  18.624   1.186  0.0492  0.3066  0.2483
68460W        W11373  13.549   5.487   8.922 -0.1937 -0.2809  0.0507
68461W        W11374  11.702  10.468  26.748 -0.3233  0.1637  0.1288
68462W        W11375   3.815  13.729   8.739 -0.4434 -0.0478  0.2841
68463W        W11376   4.280   4.409   5.188  0.0153  0.0668 -0.0915
68464W        W11377   3.779  10.925   0.618 -0.1506  0.0750  0.1641
68465W        W11378  11.732  31.529   4.171  0.0898 -0.1532  0.0503
68466W        W11379   6.063   0.084   8.425  0.0136 -0.1910 -0.2257
68467W        W11380   3.705  32.669  25.543  0.1906  0.0404 -0.0070
68468W        W11381  15.914  18.757   3.445  0.1462 -0.0125  0.1390
68469W        W11382   4.225   2.403   3.057  0.0299 -0.1790  0.0007
68470W        W11383   5.719   8.857  20.339  0.4906 -0.1612 -0.2600
68471W        W11384   2.086   4.001  25.002 -0.1560  0.0843  0.0965
68472W        W11385  10.373   6.771   3.054 -0.0713  0.1827 -0.0857
68473W        W11386  34.073   5.860  28.760 -0.2082  0.0715  0.2405
68474W        W11387   0.297   7.170   6.696 -0.0613  0.2456 -0.0314
68475W        W11388   6.107  16.788  27.701 -0.0634  0.1601  0.0315
68476W        W11389   4.335  10.693   7.689  0.3099  0.2379  0.0461
68477W        W11390   1.866  14.094  23.326  0.1096 -0.3657  0.2527
68478W        W11391   1.042  11.512  16.201 -0.1329  0.0203 -0.0707
68479W        W11392  10.677   2.207   2.199 -0.0764 -0.0454  0.0941
68480W        W11393  30.785   3.142   1.190  0.0168  0.0872  0.3908
68481W        W11394  31.625  14.252   3.679  0.2729 -0.2197  0.1384
68482W        W11395   4.587  10.314  28.694  0.0721 -0.0280  0.0105
68483W        W11396   2.282   1.336   9.979  0.0911  0.0724 -0.0939
68484W        W11397   5.720   8.897   9.336  0.4489 -0.0643  0.2452
68485W        W11398  27.988  19.264  26.823 -0.1653 -0.0070 -0.1128
68486W        W11399   6.611  19.961  28.230 -0.4159  0.0963 -0.0848
68487W        W11400   8.224  34.120   1.999 -0.0130  0.1103 -0.3578
68488W        W11401  20.657  13.618   5.310  0.0224 -0.1471 -0.0999
68489W        W11402  28.843   4.220   0.763 -0.0661  0.0836 -0.0141
68490W        W11403   3.305  11.962   9.114 -0.2693 -0.1734 -0.1124
68491W        W11404  11.077   4.983  17.321 -0.1020 -0.1873 -0.1517
68492W        W11405   6.997  13.056   3.535 -0.2293  0.4295  0.0901
68493W        W11406  30.929   7.133   2.007 -0.0281 -0.2348 -0.0168
68494W        W11407   9.865   8.531  25.341 -0.2244 -0.2252 -0.1010
68495W        W11408  27.356   7.818   2.882 -0.1072 -0.2141  0.1750
68496W        W11409   5.032  12.726   2.694  0.3607 -0.3657 -0.0945
68497W        W11410   5.634   5.001   8.322 -0.0590  0.2604  0.1128
68498W        W11411   9.025  14.091  27.541  0.1874  0.0968 -0.1160
68499W        W11412  14.530  14.672  26.242 -0.0904  0.2882 -0.0210
68500W        W11413  16.119  18.636   7.477  0.1016  0.2333 -0.0723
68501W        W11414  14.579  13.740  21.907 -0.1294 -0.3416  0.0204
68502W        W11415   0.839   6.811   3.229  0.2183  0.2071 -0.3198
68503W        W11416   8.486  16.975   0.269 -0.0684  0.1957  0.1187
68504W        W11417  29.101   6.422   7.497 -0.2892 -0.0688  0.0876
68505W        W11418  27.122  14.578  23.231  0.2127 -0.1235 -0.0252
68506W        W11419   5.501  15.988  29.751 -0.0921  0.1201 -0.0326
68507W        W11420   8.973  14.320  28.874 -0.4104 -0.1853  0.0004
68508W        W11421  33.742  13.922  29.274 -0.1593 -0.0174 -0.2657
68509W        W11422   1.833   6.759  18.370 -0.2078 -0.1213  0.0075
68510W        W11423  19.182  24.344   1.195 -0.1791  0.1982 -0.4615
68511W        W11424  32.016  15.805   2.091 -0.0310 -0.5205 -0.3532
68512W        W11425  34.258   1.000   6.712 -0.0479  0.0822  0.1675
68513W        W11426  32.342  20.796  28.836 -0.4765  0.1240 -0.0060
68514W        W11427   5.755   8.023  28.400  0.1312  0.1231 -0.1674
68515W        W11428   6.845  20.192   8.149 -0.1868 -0.0623  0.1657
68516W        W11429   4.170  24.864   9.767 -0.0554  0.1131 -0.3312
68517W        W11430  30.910  12.803   5.348  0.1220  0.0993  0.0429
68518W        W11431  32.010  15.453   1.231 -0.3044 -0.2318  0.0277
68519W        W11432   2.898  13.133  11.080 -0.0906  0.1932  0.1575
68520W        W11433   4.383   1.213   2.629  0.1853  0.1114 -0.2896
68521W        W11434  32.223  15.624  21.029  0.0475 -0.0691 -0.0043
68522W        W11435   9.810   7.571   1.259 -0.1088 -0.1992  0.0357
68523W        W11436   7.937  19.399  24.492 -0.0840 -0.0670 -0.3026
68524W        W11437   4.310  17.776   2.947 -0.1336  0.1684 -0.0060
68525W        W11438   8.126   6.519  23.511 -0.0641  0.1712  0.0515
68526W        W11439  27.536   8.195   9.192 -0.0292 -0.1724 -0.4252
68527W        W11440  30.695  16.176  10.040  0.1761  0.3570  0.0136
68528W        W11441  13.997   0.390   1.288 -0.0246 -0.3975 -0.0881
68529W        W11442  15.261  16.257  26.036  0.1088  0.1976  0.1041
68530W        W11443   5.155  14.112   9.865  0.0449 -0.0729  0.1256
68531W        W11444   4.859  13.012   8.386 -0.2182 -0.1651  0.0108
68532W        W11445  34.088  14.397  23.767 -0.2214 -0.1296  0.0250
68533W        W11446   4.501   6.771   8.060  0.0204 -0.0863  0.0084
68534W        W11447  12.817  15.868   1.402 -0.0757 -0.0572  0.0779
68535W        W11448   1.164  18.526   0.634 -0.1128 -0.1850 -0.0891
68536W        W11449   9.158   8.470   7.039 -0.0996 -0.0883  0.0865
68537W        W11450   8.368  16.537  26.240  0.1993  0.1449  0.0032
68538W        W11451  14.668   3.292   7.964 -0.0616  0.0396 -0.0709
68539W        W11452   1.038   6.284  29.412  0.1578 -0.2539  0.2305
68540W        W11453   8.911   5.966   9.111 -0.3036 -0.0380 -0.0517
68541W        W11454  31.613  17.652  27.750  0.1118  0.2889 -0.0198
68542W        W11455   1.658  10.492  25.062  0.1488 -0.2031 -0.1589
68543W        W11456  11.970   9.179   3.457  0.1759  0.0880  0.2951
68544W        W11457  12.845   7.753  18.648  0.2804 -0.2853  0.0816
68545W        W11458   6.807   4.013  22.662 -0.3231 -0.1435 -0.0066
68546W        W11459   4.382  11.681   1.900 -0.0489 -0.1183 -0.1426
68547W        W11460   5.312  14.911   9.428  0.2495  0.0108 -0.3233
68548W        W11461   1.414   5.700  27.755 -0.0839 -0.1572  0.0555
68549W        W11462  34.325  11.542   4.126 -0.0303 -0.3090  0.0516
68550W        W11463   1.323  12.173  28.981  0.1133 -0.1286  0.2074
68551W        W11464   5.518  21.630   8.696 -0.0107 -0.1093 -0.1058
68552W        W11465  11.019  16.877   0.635  0.2794 -0.1974 -0.1560
68553W        W11466   2.766  10.568  28.551 -0.0915 -0.4481  0.1355
68554W        W11467   2.877  13.527   6.396 -0.1695  0.1793  0.2259
68555W        W11468   5.508   5.791  11.645  0.1772  0.0787 -0.2190
68556W        W11469   1.331   3.898  25.641  0.1423 -0.0064  0.2182
68557W        W11470  10.010   5.797  29.287 -0.1172  0.5141  0.0939
68558W        W11471  27.577   8.352   2.957  0.0897 -0.2532 -0.0287
68559W        W11472  12.314   3.029  11.562 -0.1136 -0.1476 -0.3512
68560W        W11473   6.935  23.179   4.656  0.0518  0.0336 -0.1350
68561W        W11474   6.864  32.662   1.292 -0.0069  0.0526 -0.1906
68562W        W11475   9.696   3.238   0.691 -0.1119  0.1789 -0.1480
68563W        W11476   8.204   7.282   5.340  0.2020  0.0992 -0.2021
68564W        W11477  13.079  26.155   8.250  0.1277  0.2327  0.1730
68565W        W11478   5.171  10.557   9.303  0.1634 -0.1865 -0.2953
68566W        W11479  32.500  15.505  25.099 -0.1188 -0.2842 -0.2406
68567W        W11480   9.506  34.150  25.506  0.2336  0.2727 -0.2938
68568W        W11481  10.894  17.437   4.630 -0.3158  0.1869 -0.0086
68569W        W11482  33.496  14.562   0.777 -0.1144 -0.0426 -0.2034
68570W        W11483   8.979  13.518  23.610 -0.0904  0.1341 -0.1740
68571W        W11484   2.340  33.819   3.655  0.1459  0.2275 -0.2172
68572W        W11485   3.462  10.426  25.152 -0.4234 -0.0282 -0.1246
68573W        W11486   2.190  18.183   6.723 -0.0887  0.0764 -0.0031
68574W        W11487  31.179  10.489  25.896 -0.1816  0.1516 -0.2882
68575W        W11488  15.061  10.654  28.083 -0.0084 -0.1311  0.0038
68576W        W11489   2.390  12.397   3.922  0.2509 -0.2305 -0.0576
68577W        W11490  12.336   1.757  25.473  0.3207 -0.1790 -0.1749
68578W        W11491   8.154  16.677  29.146 -0.0469 -0.3999  0.1108
68579W        W11492  31.508  32.133   5.901 -0.0953  0.0059 -0.1775
68580W        W11493   2.426  16.088   2.131  0.0810  0.0766  0.0872
68581W        W11494   7.250  13.584   9.911 -0.1479 -0.2850  0.2905
68582W        W11495   9.694  14.106   9.367 -0.0705 -0.0845  0.0411
68583W        W11496  11.702  11.162  23.457 -0.2114  0.0984  0.0185
68584W        W11497   4.518  13.339   3.612  0.1345  0.0082  0.0615
68585W        W11498   7.337  13.968  28.399 -0.1212 -0.0831 -0.3785
68586W        W11499  11.200  10.211  24.166  0.1051 -0.5127  0.0658
68587W        W11500   8.875  12.302  10.078  0.3534  0.2110  0.3194
68588W        W11501  18.147   5.347  24.375 -0.1951  0.0861 -0.3400
68589W        W11502  11.494   4.713   0.022  0.3569 -0.2231  0.0646
68590W        W11503   1.161  32.809   2.172  0.1730  0.4837  0.1728
68591W        W11504  10.846   7.791  25.395 -0.0269  0.0887 -0.0250
68592W        W11505  33.410  13.591   3.268 -0.0162 -0.2622 -0.1181
68593W        W11506  10.131   7.500   4.100  0.2897  0.2757 -0.1224
68594W        W11507   7.252  24.052   2.107  0.1180 -0.2771  0.2518
68595W        W11508   3.663  10.179   3.184  0.5990 -0.2361  0.2664
68596W        W11509  29.611   5.051   9.825  0.3200 -0.2725  0.3355
68597W        W11510  28.316   8.135  28.885  0.0317  0.0471  0.2971
68598W        W11511  33.942   9.014   2.169  0.2440 -0.1231 -0.1003
68599W        W11512   8.219  18.866   9.048  0.0189  0.0040  0.0481
68600W        W11513   8.338   6.845  10.077 -0.2737 -0.1296  0.1221
68601W        W11514  11.712  10.263   1.780  0.0637  0.0073 -0.2067
68602W        W11515  14.227  32.633  16.518  0.1100 -0.2470  0.1864
68603W        W11516   7.428   4.262   4.228  0.0864 -0.1915  0.0647
68604W        W11517   4.632  14.233   9.057 -0.1544 -0.1081 -0.0650
68605W        W11518   8.717   1.144  10.674 -0.1952  0.0484 -0.2931
68606W        W11519  23.417   9.051  21.288 -0.0267 -0.1099  0.2248
68607W        W11520  33.439  10.009   2.894 -0.1137  0.2864  0.1990
68608W        W11521  11.202   9.875  23.826  0.0158 -0.1242 -0.1859
68609W        W11522   6.680  11.890  26.008  0.1965 -0.1141  0.0664
68610W        W11523  16.200  11.275   1.528 -0.0030 -0.1800  0.2567
68611W        W11524   2.434   3.382   6.512 -0.1682 -0.0180  0.0655
68612W        W11525  32.749   7.993   1.643 -0.4701 -0.1656  0.2256
68613W        W11526   5.331  15.909   0.833  0.3310  0.1722  0.2897
68614W        W11527   9.644  12.447  29.625 -0.0800 -0.0395 -0.0310
68615W        W11528   0.133  23.303   3.370 -0.1769 -0.1295 -0.0086
68616W        W11529   7.471   3.574   8.864  0.2870 -0.1036 -0.2428
68617W        W11530   3.005  17.715  25.303 -0.4637 -0.0920  0.3967
68618W        W11531   4.255   3.699   5.483  0.1697 -0.1697  0.1237
68619W        W11532  15.359   7.108  19.136 -0.0364  0.0676  0.0174
68620W        W11533   8.674   6.567   7.035 -0.0353  0.2880  0.2684
68621W        W11534  34.345   9.301  29.149  0.1173  0.0260  0.0376
68622W        W11535   5.722   4.072   4.200 -0.2174 -0.1394  0.1217
68623W        W11536  11.697   0.425   9.302  0.3965 -0.0280  0.0404
68624W        W11537   0.540   7.488  11.130 -0.1919 -0.3263 -0.0247
68625W        W11538  30.918  18.026  25.796 -0.1826  0.2354  0.3202
68626W        W11539  33.761   8.437  28.162  0.0789  0.0011  0.4227
68627W        W11540  32.063  12.736  23.597  0.0364  0.0279 -0.1066
68628W        W11541  14.181   8.087   4.075 -0.0479 -0.1289  0.2735
68629W        W11542   6.328  12.525  29.445  0.1105  0.0348  0.1955
68630W        W11543  31.251  16.783   9.651  0.1384  0.0392  0.3873
68631W        W11544   1.145   3.292   7.041  0.0549 -0.1702 -0.0614
68632W        W11545   0.685  14.107   4.969 -0.0293 -0.0656  0.0065
68633W        W11546   7.790  14.608  27.161  0.2941 -0.0474 -0.0942
68634W        W11547   1.142  13.744  27.379 -0.0409  0.3616 -0.2672
68635W        W11548   8.366   9.844  11.275  0.0874 -0.0298  0.1908
68636W        W11549  10.879   8.216   1.102  0.0219  0.0314 -0.0989
68637W        W11550  11.718   2.516  11.862  0.1236 -0.0105 -0.0697
68638W        W11551  34.039   0.853  23.366 -0.0328 -0.1842 -0.3157
68639W        W11552  13.626  10.418   1.021 -0.0444  0.1181  0.0081
68640W        W11553   9.905  12.969  10.216  0.3055  0.0308 -0.0668
68641W        W11554   1.574   4.713  12.171 -0.1209  0.0265  0.1597
68642W        W11555  11.212  13.383  29.416  0.3542 -0.0920 -0.1285
68643W        W11556   9.816   4.505   5.147 -0.0280  0.1334 -0.4231
68644W        W11557   4.666   3.841  21.486 -0.1212 -0.3941  0.4021
68645W        W11558  10.105  15.599   9.000 -0.1357  0.0393 -0.1946
68646W        W11559  13.452   6.563  19.448 -0.4357 -0.0816  0.0881
68647W        W11560   7.924   9.452   4.031 -0.1145  0.1216  0.0371
68648W        W11561  34.201  14.783   2.170 -0.3897 -0.0086  0.0788
68649W        W11562   7.084  12.403   7.976 -0.1352 -0.0308  0.0340
68650W        W11563  14.154  16.848  26.704 -0.4703  0.0376 -0.0126
68651W        W11564   5.537   6.012   2.638  0.0132  0.0175  0.0286
68652W        W11565   8.644  13.141  27.329  0.0982  0.0597  0.0016
68653W        W11566  18.788   6.442   2.942  0.1242 -0.1123 -0.1137
68654W        W11567   5.439  23.780  22.772 -0.2183  0.1617  0.2215
68655W        W11568   6.098   1.437  28.248 -0.0769 -0.0001 -0.0068
68656W        W11569  14.616  14.927   7.498  0.0628 -0.4175  0.0150
68657W        W11570   5.301  20.265  17.406 -0.4104  0.1784  0.2560
68658W        W11571   5.874  26.406   1.193  0.3091  0.1487 -0.1794
68659W        W11572   7.752  12.891   4.155  0.0742  0.0056 -0.2720
68660W        W11573  32.361  34.324  21.610 -0.0710  0.0383  0.2334
68661W        W11574   6.192  12.147  29.171  0.2404  0.2439 -0.0373
68662W        W11575   8.249  14.407   6.056 -0.0521  0.2701 -0.0025
68663W        W11576   7.965   8.427   3.903 -0.0624  0.0896 -0.0765
68664W        W11577   4.469   9.672   6.462  0.2384 -0.1909 -0.1368
68665W        W11578   1.711   9.304   6.762  0.0159 -0.0052  0.0388
68666W        W11579   2.682   8.254   8.051  0.1853 -0.1349  0.0141
68667W        W11580   5.078  13.684   6.491 -0.1811 -0.2452  0.1286
68668W        W11581   4.795   6.919  20.715  0.2384 -0.1292 -0.0813
68669W        W11582   3.814   8.746   4.312  0.0202  0.0885  0.1202
68670W        W11583  30.795   2.330  22.383  0.2157 -0.2948 -0.2232
68671W        W11584  28.728  13.359   2.641 -0.0569  0.0246 -0.2038
68672W        W11585   5.350  20.320   8.098  0.0351 -0.0353  0.1619
68673W        W11586   6.128  11.403  25.439  0.0016  0.0591 -0.2959
68674W        W11587   6.238  12.263  23.429 -0.0190 -0.0195 -0.0231
68675W        W11588   3.839  20.934   6.584  0.0436 -0.3121  0.1043
68676W        W11589  10.080  21.701   0.037  0.2069  0.0671 -0.0900
68677W        W11590   3.432   7.509  18.630 -0.3188 -0.0465 -0.0794
68678W        W11591   0.998   9.567  21.681 -0.0143 -0.0330  0.1567
68679W        W11592   3.674   9.390  28.729 -0.0788  0.2056 -0.1321
68680W        W11593  32.030   6.708  28.259 -0.1377  0.0550  0.1036
68681W        W11594  12.304   8.622  26.503 -0.1069  0.0517  0.0327
68682W        W11595   6.281   6.771  28.535  0.0206  0.1948  0.0703
68683W        W11596  33.428  14.988  10.170 -0.0853 -0.0810 -0.0112
68684W        W11597  19.010   9.587   3.366 -0.0862  0.3936 -0.5738
68685W        W11598   8.955  16.322  26.368 -0.1509 -0.1036 -0.1521
68686W        W11599   6.061   8.894   6.144 -0.1705 -0.0968  0.1290
68687W        W11600  18.262   9.796   2.281 -0.1066 -0.2205 -0.1695
68688W        W11601   2.421   4.413   7.870 -0.4170 -0.2815  0.1765
68689W        W11602   3.790   5.619  10.905  0.1480 -0.2206 -0.2817
68690W        W11603   6.957  16.414  22.568 -0.2107  0.0440  0.1182
68691W        W11604   8.217   8.446  11.383  0.1690  0.0075  0.5046
68692W        W11605   5.346  19.396   7.049 -0.2798 -0.1253  0.1252
68693W        W11606   5.668  32.211  27.194  0.0248 -0.1188  0.1964
68694W        W11607   5.620  10.875  21.516  0.0673  0.1668 -0.2124
68695W        W11608   2.001   5.663   1.093  0.0367  0.2218 -0.2361
68696W        W11609  15.246   2.160  26.262  0.0054 -0.2452 -0.2163
68697W        W11610  33.954   7.342  27.206  0.0028 -0.3088  0.0089
68698W        W11611   6.088  11.450  22.062 -0.2216 -0.1247 -0.0551
68699W        W11612  12.205  17.707  19.175 -0.0996 -0.1318  0.0273
68700W        W11613  33.633   6.227  29.708  0.3661 -0.0005 -0.0349
68701W        W11614  11.048  17.300   0.843 -0.1810  0.4242  0.0037
68702W        W11615   3.927   7.686   4.401  0.1754 -0.0695  0.2407
68703W        W11616  30.315  33.506  10.209 -0.1806 -0.3043  0.0167
68704W        W11617  33.537   8.197  29.583  0.3090 -0.0075  0.3692
68705W        W11618   8.062  29.076   1.385 -0.0661  0.2330  0.1269
68706W        W11619  14.384  19.541  19.925  0.0048  0.1073  0.0208
68707W        W11620  28.931  10.093   0.377 -0.0317 -0.3256  0.0924
68708W        W11621  34.322  10.674  25.286  0.2119 -0.1949 -0.1670
68709W        W11622   5.053  16.780   1.421  0.0303  0.1434 -0.0966
68710W        W11623   2.496  24.685   1.720  0.2054  0.0187  0.0540
68711W        W11624   4.048  32.341   1.555 -0.1129 -0.1768 -0.2377
68712W        W11625   6.016   3.968  27.960  0.2481  0.0989 -0.2065
68713W        W11626  10.330  13.795   0.162 -0.0609  0.0852 -0.1377
68714W        W11627   4.655  18.258   8.051 -0.0642 -0.3241  0.1806
68715W        W11628   1.962  13.510   8.381 -0.2422 -0.2584  0.0989
68716W        W11629  13.476   7.084   6.382  0.0099 -0.0657 -0.1107
68717W        W11630   5.154   5.571  11.181  0.1554 -0.3644 -0.0107
68718W        W11631   4.136  16.512   8.505  0.1108 -0.2473 -0.1775
68719W        W11632   9.613  16.651   0.845 -0.2739 -0.3721 -0.0358
68720W        W11633   3.038   9.567  24.267 -0.1150 -0.1187  0.1970
68721W        W11634   2.526  32.673   6.957  0.2600  0.0084 -0.0161
68722W        W11635  11.891   4.235   4.993 -0.1075  0.1307  0.2672
68723W        W11636   8.681   5.146   5.261  0.0301  0.1099  0.3348
68724W        W11637  26.066  14.624  25.821 -0.3809  0.1969 -0.3486
68725W        W11638  34.434  10.215   6.738 -0.1143 -0.1035  0.0507
68726W        W11639   1.428  13.635   5.848 -0.2896 -0.1276 -0.0234
68727W        W11640  22.649  10.688  22.431  0.0565 -0.3783  0.0759
68728W        W11641   3.981  12.285  21.127 -0.2619 -0.0760  0.1783
68729W        W11642   7.571   6.520   6.356  0.0285 -0.0380  0.0078
68730W        W11643  31.718  15.987  24.779 -0.2322 -0.0194 -0.2687
68731W        W11644   1.441  29.837   2.057 -0.1653 -0.1829 -0.1280
68732W        W11645   1.657   7.717  26.417  0.0005 -0.3101  0.3851
68733W        W11646   1.471  24.751   8.864  0.1542  0.2356  0.0118
68734W        W11647   3.334   4.645   4.419  0.0190  0.0617  0.3482
68735W        W11648  32.230  10.068   1.278  0.2438  0.1372  0.2214
68736W        W11649   2.533  11.108  26.762  0.2109  0.3818 -0.1563
68737W        W11650   2.013  19.867   1.371  0.2254 -0.2905 -0.1593
68738W        W11651  25.250   6.817   8.090  0.1331 -0.3288 -0.1015
68739W        W11652   6.041   4.601  24.157  0.2167 -0.0993  0.0393
68740W        W11653  32.254   3.496  11.289  0.0938 -0.0029 -0.0202
68741W        W11654  14.308  20.608   1.918  0.1115 -0.0294  0.2039
68742W        W11655   5.224  10.184  10.746  0.0056  0.2269  0.0775
68743W        W11656  12.787  14.225  25.052  0.1428 -0.1275  0.0992
68744W        W11657   2.000  13.409   5.785  0.0869  0.3478 -0.1640
68745W        W11658  10.022  14.797   4.516 -0.1442 -0.2341 -0.2877
68746W        W11659  10.034   1.553  10.507  0.0088 -0.1191  0.1079
68747W        W11660   7.275  15.711   9.451  0.0031 -0.1617  0.0155
68748W        W11661   3.913  20.700   0.883  0.0350  0.2098 -0.1920
68749W        W11662  33.164   6.258  28.864  0.0570 -0.0631 -0.2636
68750W        W11663  10.772  19.239  28.817 -0.4133 -0.3306 -0.1294
68751W        W11664   2.418   2.122   9.852  0.1891  0.2188 -0.1384
68752W        W11665   3.533   9.996  28.480 -0.1859 -0.0483  0.2328
68753W        W11666   8.933   8.333   2.774  0.1075 -0.1946  0.2017
68754W        W11667   0.231  20.972  10.199  0.1902  0.1420 -0.0414
68755W        W11668   5.110   8.401  22.415 -0.2580 -0.0732  0.0292
68756W        W11669   6.770  23.711   4.638  0.0887  0.2848  0.2407
68757W        W11670  29.986  17.565   4.960 -0.1128  0.0255 -0.0608
68758W        W11671   3.568  15.814   6.008  0.0233 -0.1302 -0.0491
68759W        W11672   7.131  13.220   3.037  0.1052 -0.0350  0.0671
68760W        W11673   2.865  32.577  27.003  0.2440  0.3556 -0.1750
68761W        W11674   5.140   4.354   3.341 -0.4262  0.1388  0.1512
68762W        W11675  28.396  12.420  28.919 -0.1792 -0.0781  0.2727
68763W        W11676  16.477  10.267   7.505  0.1841  0.0374 -0.3080
68764W        W11677   0.779  12.290   7.848 -0.0487  0.0567 -0.3619
68765W        W11678   6.311  14.211   6.015 -0.1450 -0.1825  0.0000
68766W        W11679   0.209  11.828   7.202 -0.0021 -0.1393  0.1906
68767W        W11680  16.696   0.607   5.730 -0.0117  0.0040  0.4752
68768W        W11681  33.217  14.431   7.336 -0.2182  0.0222  0.1777
68769W        W11682   4.227  26.905   8.254 -0.1379 -0.1494  0.1471
68770W        W11683   8.007  12.593   8.875 -0.1694 -0.0711  0.0760
68771W        W11684   7.285  11.826  28.239 -0.0678 -0.0865 -0.0476
68772W        W11685  28.736  11.827   5.879 -0.0189 -0.1524 -0.0354
68773W        W11686   9.754   9.417  11.234  0.2794  0.1290 -0.0135
68774W        W11687   7.664   5.828  10.405  0.0012  0.1406 -0.2123
68775W        W11688  33.999   4.682  19.341  0.3109  0.3324  0.0970
68776W        W11689   3.586  18.437   3.026 -0.0640  0.0681 -0.0020
68777W        W11690  13.207  20.875   6.374 -0.0433  0.2581  0.2002
68778W        W11691  11.131   6.797  23.118  0.1714 -0.2405 -0.1649
68779W        W11692   5.335   5.363   8.898  0.0387 -0.1719 -0.1928
68780W        W11693   8.132   9.312   7.275  0.1988 -0.0197 -0.0963
68781W        W11694   1.886  21.015   8.440  0.0486  0.0827  0.0452
68782W        W11695   9.390   3.671   9.030 -0.3350 -0.2446 -0.0309
68783W        W11696   3.230  16.377  10.224  0.0167  0.3265  0.3818
68784W        W11697   5.015   5.907   6.127  0.1015  0.1625  0.1564
68785W        W11698   2.193  10.748  26.674 -0.0746  0.1676 -0.0119
68786W        W11699   9.057   7.535  11.316  0.1123  0.0925  0.3525
68787W        W11700  10.092  13.589   7.192 -0.0836  0.1917 -0.0427
68788W        W11701   7.990   8.346   8.243 -0.1169 -0.0162 -0.3327
68789W        W11702   9.781  11.696   9.850  0.4401 -0.0732 -0.1403
68790W        W11703  34.165   9.633   8.311 -0.1012 -0.1704  0.2739
68791W        W11704   3.381   2.413   0.439 -0.0137  0.0583 -0.0992
68792W        W11705   5.574  19.220  28.512 -0.0694  0.2288 -0.0427
68793W        W11706   3.688   6.681   5.802 -0.1693 -0.0238  0.0863
68794W        W11707   9.091   3.542   9.496  0.0813 -0.1000 -0.0594
68795W        W11708  34.144   5.690  24.068 -0.1096 -0.0439  0.1051
68796W        W11709   9.594  31.714  10.280  0.0645  0.3599 -0.4275
68797W        W11710   7.221   5.536   5.104  0.3309  0.3395  0.1116
68798W        W11711   0.533   7.751  24.243 -0.0244 -0.0551  0.2040
68799W        W11712   6.420   1.798   8.450  0.1633  0.0849 -0.1870
68800W        W11713   9.507  15.183   9.775  0.2319 -0.0761  0.1586
68801W        W11714  33.049   5.183  11.092 -0.2629  0.1878 -0.0238
68802W        W11715   1.346   5.822   6.175  0.1436 -0.0204  0.0275
68803W        W11716   9.016  11.004   7.159  0.0873  0.2173  0.1083
68804W        W11717   9.056  28.211   1.296  0.1767 -0.0677  0.3233
68805W        W11718   9.143   2.746   3.364 -0.0561  0.1285 -0.0708
68806W        W11719  20.403   5.746   7.334 -0.1640  0.0983 -0.4081
68807W        W11720  27.573   2.972  29.110 -0.0970 -0.2811  0.0238
68808W        W11721   3.329   9.982  11.896  0.0659 -0.1558  0.4648
68809W        W11722  15.317   9.440   7.804  0.2521 -0.2124  0.4403
68810W        W11723  15.514   0.135   9.874  0.0640 -0.0980 -0.1303
68811W        W11724   6.550  11.182  28.284 -0.0704  0.1250  0.3655
68812W        W11725   6.745   5.375  13.774  0.0123 -0.1558  0.0597
68813W        W11726   5.522   7.033  12.522 -0.1615  0.4439 -0.0510
68814W        W11727   5.466   8.670  23.685 -0.2779 -0.1914 -0.1125
68815W        W11728  15.583   2.427   7.489  0.5370 -0.0612  0.0681
68816W        W11729   6.308  15.590   3.733 -0.4099 -0.0686 -0.0229
68817W        W11730   0.284   8.350   3.062 -0.1369  0.0010 -0.0262
68818W        W11731   0.723  28.350   6.618  0.2443  0.1956  0.1957
68819W        W11732   9.648  11.041   2.481  0.1025  0.2542 -0.0517
68820W        W11733   9.016  33.460   8.150 -0.0239 -0.1599  0.0008
68821W        W11734  18.878   0.680   8.428  0.1599 -0.2626 -0.0733
68822W        W11735  34.261  10.271   5.340 -0.1933  0.1723 -0.0588
68823W        W11736   6.752   8.948  22.974 -0.0799  0.2841  0.0889
68824W        W11737   8.557   9.196  25.590  0.0800 -0.0413 -0.2974
68825W        W11738  13.171  12.924  24.208 -0.0645 -0.1715  0.0411
68826W        W11739   4.465  14.959   2.809 -0.1013 -0.1227  0.0680
68827W        W11740  28.454  10.095   1.113  0.1075 -0.1348 -0.5010
68828W        W11741  13.008   7.685   7.506 -0.0805  0.0100 -0.0561
68829W        W11742   1.792   7.063   6.031  0.0241 -0.1660 -0.2133
68830W        W11743   8.389  10.706   4.660 -0.3781 -0.2910 -0.2654
68831W        W11744   0.944   8.441   7.817  0.0737  0.0604  0.3711
68832W        W11745   8.786  11.977  29.377  0.1977  0.3037 -0.0413
68833W        W11746   1.831   9.679  22.044  0.1791  0.0835 -0.2186
68834W        W11747   7.428  12.078   7.212  0.2258 -0.1570 -0.1916
68835W        W11748  12.297  11.264   0.291 -0.2512  0.2251  0.2039
68836W        W11749   0.434  11.868   8.178 -0.0403 -0.2138 -0.0645
68837W        W11750   5.086  18.327   8.377  0.3444  0.1094 -0.1624
68838W        W11751   9.990  21.240  28.560 -0.2668  0.2454  0.1690
68839W        W11752   7.177  12.055   1.907 -0.2624  0.1226 -0.0366
68840W        W11753   5.521   9.350   4.830 -0.0335  0.1766  0.0320
68841W        W11754   8.256   9.258   6.709 -0.0069  0.2347  0.0794
68842W        W11755   1.896  11.245  26.651 -0.0803 -0.1994 -0.1224
68843W        W11756   3.429  19.577  24.021 -0.0788 -0.2092  0.0466
68844W        W11757  16.527  27.465   7.833  0.1002 -0.1661  0.0476
68845W        W11758   6.039   9.969   2.494  0.2057  0.3664  0.0907
68846W        W11759  24.705  19.546  29.699  0.3582 -0.1277 -0.0841
68847W        W11760  10.703   6.482  11.261 -0.2373  0.1018  0.2051
68848W        W11761  11.348  15.722   3.903  0.2390 -0.0356  0.0334
68849W        W11762  12.816   6.572   2.116  0.1305  0.1017  0.0561
68850W        W11763   0.251   7.028   7.736 -0.0358 -0.1432 -0.0165
68851W        W11764  13.737   8.288  24.202 -0.3068 -0.1111  0.2031
68852W        W11765  32.626  16.794   1.855 -0.0473  0.0855  0.3867
68853W        W11766  33.696  20.641   8.351 -0.1431  0.1112 -0.0799
68854W        W11767  30.738  12.660   8.924  0.0473  0.0318 -0.0006
68855W        W11768  33.381   9.476  27.935 -0.0120 -0.6432  0.0100
68856W        W11769   3.647  34.366   8.427 -0.1928  0.1461 -0.1181
68857W        W11770   8.747   5.653  13.263 -0.0285 -0.4296  0.0473
68858W        W11771   0.598   4.412  11.296 -0.0353 -0.0330  0.0233
68859W        W11772   3.666   3.893   6.208  0.1652 -0.0453  0.0590
68860W        W11773   2.150   8.397   7.229  0.1305 -0.3450  0.0444
68861W        W11774   3.793   0.487   1.183  0.1049 -0.0537 -0.0772
68862W        W11775  10.521  21.354   1.458 -0.1194 -0.2181 -0.1761
68863W        W11776  25.103  13.580   1.863 -0.0635  0.0898 -0.3018
68864W        W11777  12.052   7.513   7.810 -0.0634  0.1110 -0.3172
68865W        W11778  27.648  16.406   1.862 -0.1002 -0.3321  0.0324
68866W        W11779  32.396  23.048  29.597  0.0464  0.0807 -0.2395
68867W        W11780  32.173  12.174   5.811 -0.1789 -0.0474  0.3305
68868W        W11781   0.700   6.493  26.933 -0.0960 -0.0242  0.0481
68869W        W11782   7.516   2.536   4.147 -0.0048 -0.0836  0.2552
68870W        W11783   0.737  19.505   9.373  0.0663 -0.2711 -0.2465
68871W        W11784   9.024   8.131  10.877  0.2240  0.0113 -0.0429
68872W        W11785   4.252  19.942   9.494  0.2825  0.3309 -0.0079
68873W        W11786   8.874  12.451   7.732  0.0346  0.1719 -0.0715
68874W        W11787   8.199  10.557  24.389  0.3438  0.1044  0.1723
68875W        W11788   0.489   8.562   7.794  0.0024 -0.1644  0.0597
68876W        W11789  24.755  23.112   3.838 -0.1604 -0.2606 -0.1031
68877W        W11790  13.649  11.552   5.840  0.2661 -0.0022 -0.0447
68878W        W11791  13.787  32.751   9.448  0.0709 -0.1700 -0.1257
68879W        W11792   0.592  12.694  28.136 -0.0871 -0.3280 -0.0946
68880W        W11793  34.236   4.760  10.265 -0.0771  0.2097 -0.5284
68881W        W11794  24.167   5.596   6.378  0.0152  0.0324  0.0615
68882W        W11795   8.396   5.224  23.613  0.0161  0.2507 -0.0804
68883W        W11796   8.098   8.632   1.798 -0.0076  0.3375 -0.2747
68884W        W11797  11.837  10.350   8.382 -0.3084  0.0645 -0.0523
68885W        W11798   0.989   5.993  10.698  0.1476 -0.1002 -0.3514
68886W        W11799   2.600   6.923   4.215  0.4118  0.1065 -0.2165
68887W        W11800  27.787  13.293  27.571 -0.1973 -0.0127  0.1858
68888W        W11801  31.431   7.185   4.951 -0.0449  0.4003 -0.0954
68889W        W11802  27.860  26.525  27.513  0.1826  0.1047 -0.0834
68890W        W11803  32.180  13.272   3.563  0.0768 -0.1586  0.0590
68891W        W11804   3.807  12.811  27.232  0.1550 -0.2913  0.4427
68892W        W11805  34.186  14.921   6.100  0.2742  0.2200 -0.0905
68893W        W11806   2.353  10.970   2.606 -0.1202  0.4593 -0.1709
68894W        W11807   5.950   6.136  11.899 -0.1419  0.3053  0.1755
68895W        W11808   6.174  20.643   6.453  0.3072  0.0952  0.1459
68896W        W11809   4.244   1.336  27.352 -0.0577 -0.0012  0.1652
68897W        W11810  14.612   5.085   3.949  0.2161  0.0368 -0.1331
68898W        W11811   1.095   2.104  11.677  0.2229  0.2629  0.1846
68899W        W11812   8.543  32.765  23.092  0.1098  0.2920 -0.2126
68900W        W11813  10.253  12.850   5.559 -0.0273  0.3582 -0.2693
68901W        W11814   5.713   6.037   9.538  0.1139 -0.1704 -0.1765
68902W        W11815   7.954   6.050   6.645  0.0044 -0.1288  0.1474
68903W        W11816  11.057  11.973   0.006  0.2589  0.0834  0.0685
68904W        W11817   4.159   7.514  27.427  0.2249 -0.0508 -0.1577
68905W        W11818   8.090  14.835   1.981  0.0958  0.3015 -0.0609
68906W        W11819   4.972  17.402   1.570  0.4035 -0.1201  0.0848
68907W        W11820   0.595  10.116   8.553  0.2586 -0.0137  0.0207
68908W        W11821  23.974   7.953  27.224 -0.1350  0.0515  0.2476
68909W        W11822  13.324  18.645   2.846 -0.0526 -0.2585 -0.1814
68910W        W11823  15.122  12.213   4.764 -0.0765 -0.2506 -0.1395
68911W        W11824  31.355  33.180  10.653  0.0735 -0.1728 -0.0046
68912W        W11825  26.619  19.458  21.560 -0.0061  0.0201  0.1397
68913W        W11826   1.414   5.605   7.899 -0.1164 -0.0431  0.4188
68914W        W11827   6.445   8.587  28.501 -0.1373  0.0387  0.3262
68915W        W11828  26.955  12.445   2.234 -0.0782  0.1096 -0.0726
68916W        W11829  11.970  12.310  29.406 -0.1314 -0.0909  0.2150
68917W        W11830  13.767   6.276  24.835 -0.0098  0.1335 -0.0063
68918W        W11831   7.995   8.917   4.371  0.0547  0.5086  0.1375
68919W        W11832   7.109   4.351   5.886 -0.0804 -0.2524 -0.1504
68920W        W11833  23.165  16.664   7.723  0.2199  0.2613  0.2997
68921W        W11834   8.238   5.250   5.114  0.0608  0.1319  0.1557
68922W        W11835  28.202  10.455  28.807 -0.0056  0.3517 -0.0201
68923W        W11836  10.268  15.769  29.654  0.1384  0.0063 -0.5613
68924W        W11837   0.741  11.306  29.167  0.1636 -0.1877 -0.3199
68925W        W11838   2.482  11.079   5.873 -0.2765  0.0604 -0.0226
68926W        W11839  12.172  12.871   9.530 -0.2071  0.0680 -0.0812
68927W        W11840  12.198   3.879  11.306  0.0489 -0.0907  0.0224
68928W        W11841  17.796  22.984   3.731  0.1020 -0.0543  0.1755
68929W        W11842   4.343   6.336  12.127 -0.0910  0.2114  0.1039
68930W        W11843   4.197  13.042   0.973 -0.1987 -0.0226  0.2932
68931W        W11844   8.981  11.064   7.727 -0.0436  0.0781 -0.2242
68932W        W11845  33.448  15.585   7.225 -0.1129 -0.0571  0.0531
68933W        W11846   8.674  14.564   7.283  0.1789  0.3134  0.0136
68934W        W11847   7.658  28.636   6.931 -0.3921  0.1082 -0.0489
68935W        W11848   5.228   7.671   2.781  0.1672 -0.1917  0.0464
68936W        W11849  11.623   9.711   4.144  0.0478 -0.2652  0.1891
68937W        W11850   1.844  13.445   9.635  0.2141 -0.0974  0.1825
68938W        W11851  29.091   8.795   6.179 -0.1224 -0.1113 -0.0841
68939W        W11852  16.313   6.094   6.353 -0.1353 -0.2177 -0.2318
68940W        W11853   7.177   7.094   1.411  0.2833 -0.2296  0.0661
68941W        W11854   1.644  28.459   1.703  0.1824  0.1319 -0.0865
68942W        W11855  27.285   7.833   1.783  0.0944  0.0987 -0.1180
68943W        W11856  21.780   7.812   9.720 -0.1073 -0.0995 -0.1805
68944W        W11857   7.313  11.017   8.332  0.0669 -0.5436  0.3475
68945W        W11858   4.514  16.052   8.500  0.2115  0.3520 -0.0204
68946W        W11859   7.291  10.001  10.672  0.0485 -0.1406  0.1510
68947W        W11860  30.969  32.852   1.431 -0.3036  0.2105 -0.2237
68948W        W11861   5.902   3.187   3.996  0.1824  0.3784  0.2019
68949W        W11862   2.995   6.090  13.279 -0.2041 -0.0764 -0.2139
68950W        W11863  10.682  14.108  27.492 -0.1933  0.2033  0.2206
68951W        W11864   0.916  10.285  28.461  0.2260 -0.3141  0.2562
68952W        W11865   3.230   8.501   4.803  0.3039 -0.0412 -0.0399
68953W        W11866  12.744   9.711   5.689  0.1016 -0.0601 -0.0485
68954W        W11867   4.571  19.449   7.034 -0.1045 -0.2557  0.2433
68955W        W11868   5.017   7.358  11.585  0.0402  0.1476 -0.0598
68956W        W11869  31.108   3.786   1.563 -0.1652  0.1019 -0.1322
68957W        W11870   0.777   3.359  11.849 -0.2447 -0.0124 -0.2688
68958W        W11871   2.534  30.967   9.989  0.1705  0.1427  0.1079
68959W        W11872  29.068  11.566   2.061  0.1590  0.2169  0.1429
68960W        W11873   8.981  13.401   3.541  0.2094 -0.1492 -0.0103
68961W        W11874  32.809  33.062  29.305  0.2409 -0.2352  0.1150
68962W        W11875  15.376  11.840   0.931  0.2237  0.3829  0.0927
68963W        W11876  11.463   1.940  10.408 -0.1169 -0.2280 -0.0194
68964W        W11877   4.107  11.554   2.816 -0.3652  0.0640  0.0878
68965W        W11878   9.105  11.149   6.170  0.2971 -0.0280 -0.0955
68966W        W11879   8.670   9.907  27.511 -0.0263 -0.1733  0.1178
68967W        W11880   3.629  33.621   2.819  0.0962  0.0266  0.0470
68968W        W11881  31.973  10.572  29.192 -0.1435  0.2614  0.0121
68969W        W11882  33.612  34.255   1.534  0.0268 -0.0058 -0.3678
68970W        W11883   7.927  32.813   3.343 -0.2398  0.1492 -0.0660
68971W        W11884  10.492   3.230   8.168  0.2787  0.1326  0.0006
68972W        W11885  32.954  20.340   8.009 -0.1753 -0.1792  0.0495
68973W        W11886  10.709   3.410  11.073  0.0196 -0.0845 -0.0806
68974W        W11887  13.559  25.010  18.246 -0.0015 -0.0768 -0.0522
68975W        W11888   9.648  11.184   5.124 -0.0040 -0.0308  0.1329
68976W        W11889   7.611   7.124   8.950 -0.4575  0.0504 -0.0440
68977W        W11890  10.300  17.307   3.337 -0.1575  0.0301  0.0048
68978W        W11891   9.277   9.746   6.738 -0.0496 -0.0132  0.2643
68979W        W11892  28.722   9.906  26.245 -0.2106 -0.0883 -0.4728
68980W        W11893   7.262   6.010  11.158  0.1271 -0.1248 -0.1492
68981W        W11894  32.187  13.974   4.904 -0.1924  0.0172  0.2395
68982W        W11895  10.056   6.558  13.122 -0.0694 -0.0158  0.3284
68983W        W11896   2.328  15.131   1.772  0.0077  0.2128  0.1686
68984W        W11897  31.152   8.923   5.166 -0.2557  0.0272 -0.3319
68985W        W11898  15.233   9.083  25.625 -0.3672 -0.0912 -0.2317
68986W        W11899  11.688   0.481  11.152 -0.0459  0.0560  0.0552
68987W        W11900  11.360   7.367   9.998  0.2007 -0.1544  0.2044
68988W        W11901  12.451  33.388   4.200  0.1588 -0.0677 -0.0591
68989W        W11902  31.111  11.426   2.404  0.1721 -0.0666  0.2058
68990W        W11903   5.337  33.944   0.933  0.1418  0.3376 -0.0652
68991W        W11904   9.828   1.028   4.332  0.1309  0.1188 -0.1941
68992W        W11905  32.115   4.934   7.562 -0.2711  0.2095  0.1443
68993W        W11906   0.808   5.781  21.806 -0.2114 -0.1364 -0.1560
68994W        W11907   4.373  31.384  10.449 -0.1470 -0.1661  0.3011
68995W        W11908  12.675  33.986   4.460 -0.0043 -0.0387  0.4415
68996W        W11909  13.299   6.991   5.496 -0.1586  0.5441 -0.1016
68997W        W11910   9.408  15.141   1.805  0.1936 -0.3904  0.3693
68998W        W11911  32.406  11.234   3.941 -0.1534  0.2797 -0.1744
68999W        W11912   5.653   0.864   9.616 -0.0008 -0.3275 -0.1063
69000W        W11913   6.107   9.335  10.092 -0.2861  0.1109 -0.0687
69001W        W11914  32.858   4.194  28.736 -0.1176  0.1152 -0.0004
69002W        W11915  16.375   6.498   8.376  0.1171 -0.0413  0.1706
69003W        W11916   2.143   9.655   8.796 -0.0527 -0.1959  0.2236
69004W        W11917   6.735   0.280   5.140  0.1401  0.1685  0.0499
69005W        W11918   5.745   7.777   6.073  0.0629  0.0287 -0.0682
69006W        W11919   4.138   6.778   2.685  0.1503 -0.1551 -0.1320
69007W        W11920   8.404   8.465   8.595  0.3410 -0.1279 -0.1253
69008W        W11921  14.668  18.721   8.501 -0.1605 -0.0400  0.1820
69009W        W11922   7.262   1.419   6.530 -0.2787 -0.2385 -0.1052
69010W        W11923  28.385  12.831   9.515  0.1467  0.1540 -0.0433
69011W        W11924  17.982   9.363   8.102  0.2036  0.2026  0.0756
69012W        W11925   4.209   7.111  29.067  0.1993  0.1342 -0.1289
69013W        W11926  31.780   4.276  27.046  0.0610 -0.0925  0.0573
69014W        W11927   3.347   8.363  26.859  0.3492  0.0950 -0.2703
69015W        W11928   6.341   8.263  11.366  0.0625 -0.1103 -0.1589
69016W        W11929  14.555   8.102   0.831  0.0202  0.2051 -0.0576
69017W        W11930   2.195  15.757  26.583 -0.0919  0.0885  0.0391
69018W        W11931   3.837  15.939   8.220  0.3267  0.0481  0.0943
69019W        W11932  19.354  14.067   8.430 -0.1147 -0.1812  0.2198
69020W        W11933   3.276  15.839   4.444  0.1929  0.1371 -0.1903
69021W        W11934  16.481  12.358   1.005  0.2645  0.5245 -0.2601
69022W        W11935  10.930   7.362  11.713 -0.2540  0.0924  0.0884
69023W        W11936  14.242   4.224   5.336  0.2606  0.0778 -0.2236
69024W        W11937   9.312  32.689   7.962  0.0110 -0.1452 -0.1952
69025W        W11938   8.136  13.432   6.274  0.0328  0.0210 -0.1570
69026W        W11939   7.585  13.550   3.057 -0.1831 -0.3167 -0.0364
69027W        W11940   7.648  16.485  10.005 -0.0384 -0.2479  0.0975
69028W        W11941   5.444   4.379  25.015 -0.3436 -0.0770 -0.1881
69029W        W11942   0.598   7.805   1.713 -0.0230 -0.0365 -0.0691
69030W        W11943   7.188   7.069   9.239  0.2376 -0.1890 -0.1788
69031W        W11944   7.636   5.125  10.928 -0.0189 -0.2119 -0.0913
69032W        W11945   4.618   9.044   1.913  0.0124 -0.0449 -0.0676
69033W        W11946  29.627   8.283   4.766 -0.3026 -0.0738  0.2750
69034W        W11947  32.428   6.677   6.901  0.2576 -0.2910  0.3526
69035W        W11948  17.941   8.938   5.781  0.2907  0.0597 -0.0372
69036W        W11949  27.669   2.736   9.976 -0.1658  0.0768 -0.0592
69037W        W11950  34.033   9.792  28.215 -0.2885 -0.1286  0.0376
69038W        W11951   2.357  19.002   8.394  0.5560 -0.0975  0.1654
69039W        W11952  10.573   5.582   8.368  0.0185  0.0804  0.2196
69040W        W11953   4.011   0.610   8.805  0.0717  0.2417  0.0611
69041W        W11954  30.338  11.385   2.117  0.0598 -0.2109  0.0899
69042W        W11955   2.283  10.238   5.653 -0.0863  0.0952  0.1382
69043W        W11956   4.527   5.723   2.695  0.0390 -0.0406 -0.1318
69044W        W11957   1.175  11.031  27.148  0.5519  0.0228 -0.1289
69045W        W11958  15.918  10.364   6.826 -0.0984  0.0590 -0.1433
69046W        W11959   0.880  11.983   2.318  0.0190  0.2391 -0.1221
69047W        W11960   2.353  19.042   7.189  0.1858 -0.2452  0.3646
69048W        W11961   8.521   9.128  12.038 -0.0061  0.1481 -0.2161
69049W        W11962  10.805  18.963   5.239 -0.3078  0.2063  0.3583
69050W        W11963   5.185  10.979   1.017  0.1111 -0.0232  0.0844
69051W        W11964   5.987  11.215   6.730  0.0969 -0.1278 -0.0490
69052W        W11965  11.699   7.008  27.759  0.2422 -0.0232  0.0323
69053W        W11966   9.956   5.723   0.021 -0.0355 -0.2280  0.2472
69054W        W11967  12.421   6.133  17.936 -0.1481 -0.2991 -0.1124
69055W        W11968   3.687   8.754  26.743 -0.1109 -0.0731 -0.0397
69056W        W11969  33.037   6.252   4.208 -0.0218 -0.1168 -0.1961
69057W        W11970   7.319  32.981   8.701 -0.3471 -0.0445 -0.2730
69058W        W11971   9.812  12.166   3.271 -0.0343  0.1503 -0.1197
69059W        W11972  10.372  34.056  11.084 -0.0968 -0.0638 -0.3013
69060W        W11973   0.192   4.060   9.253  0.0417 -0.0490 -0.1954
69061W        W11974   9.144   5.613   2.884  0.2263  0.2925  0.0649
69062W        W11975  12.079  17.560   0.618 -0.1326  0.1038 -0.4340
69063W        W11976  13.229  12.155   1.969  0.0378  0.0391  0.2651
69064W        W11977  33.483  10.035  10.834 -0.1054 -0.1950 -0.2150
69065W        W11978   7.914  11.464  23.754  0.1389 -0.0107  0.0101
69066W        W11979  15.964   7.866   6.051 -0.0342  0.2175 -0.0184
69067W        W11980  33.112   9.463  24.624  0.1952  0.1504 -0.2189
69068W        W11981   6.895   7.383  11.283 -0.0118  0.1485 -0.1145
69069W        W11982  13.626  14.794   0.830 -0.0807 -0.1262  0.1752
69070W        W11983  11.183   7.441  29.567  0.1026 -0.1565  0.0511
69071W        W11984  34.337   2.637  26.842 -0.1339  0.0101 -0.0295
69072W        W11985   6.926  17.071   5.809  0.3423 -0.2049 -0.4274
69073W        W11986  14.861  10.389   2.638 -0.0181  0.2502 -0.0305
69074W        W11987   9.458  16.702   2.534 -0.2623  0.1704  0.0056
69075W        W11988   7.841   3.113  10.082 -0.0490 -0.0723  0.0989
69076W        W11989  10.063   1.589   5.228  0.0537 -0.3186  0.1022
69077W        W11990   6.803   8.136  11.375 -0.1006 -0.1448 -0.1038
69078W        W11991   6.576  13.693   6.553 -0.0137  0.1213 -0.0852
69079W        W11992  19.060  15.159   4.045 -0.0144  0.3244 -0.2046
69080W        W11993  13.519   8.290   1.992 -0.2410 -0.2512  0.3656
69081W        W11994   5.850  11.860  27.675  0.1343  0.0360 -0.0150
69082W        W11995   7.796  12.959   8.529  0.0504  0.1442 -0.0243
69083W        W11996   4.199   0.860   7.388  0.0005 -0.1116  0.4196
69084W        W11997  14.096   0.529  23.516 -0.3554 -0.3360  0.0291
69085W        W11998   7.603   0.414  12.683 -0.1447  0.1207 -0.0295
69086W        W11999   7.677  15.715   9.077  0.1900  0.3860 -0.0554
69087W        W12000  15.801   6.993   1.490  0.3306 -0.0348  0.2927
69088W        W12001  13.412   3.102   5.887  0.0928 -0.0381  0.3455
69089W        W12002   9.168  10.062  11.644 -0.1402 -0.1405  0.0687
69090W        W12003   9.225   9.327   5.006 -0.0934 -0.1345 -0.1550
69091W        W12004   0.904   3.654   3.198 -0.2948  0.0164  0.2082
69092W        W12005  32.789  10.223   8.821 -0.1498  0.2139  0.0663
69093W        W12006  14.067  12.681   2.251 -0.2892  0.2228  0.0412
69094W        W12007  26.802   6.963  24.493 -0.2943  0.1246  0.2836
69095W        W12008   2.711   6.167   6.826  0.0867  0.1361 -0.3738
69096W        W12009   5.213  10.265  11.315 -0.0852 -0.0005  0.1219
69097W        W12010   5.045  10.358  16.643 -0.0934 -0.2842  0.0222
69098W        W12011   8.916  15.642   7.184  0.1341 -0.0354  0.2272
69099W        W12012  16.992  11.097   7.035 -0.3360 -0.1624  0.1702
69100W        W12013   8.068  11.084   9.888  0.0205  0.0170  0.0296
69101W        W12014  15.881  27.086   9.896  0.1757  0.2800  0.1585
69102W        W12015   4.739  12.438   2.400  0.3698 -0.1528  0.2599
69103W        W12016   2.265  12.178  26.792 -0.0076 -0.2641  0.0449
69104W        W12017   7.086  13.737   8.901  0.1347 -0.1259  0.0341
69105W        W12018   2.483   7.334  10.414  0.0478  0.0001 -0.0632
69106W        W12019   6.342  12.407  24.026 -0.0986 -0.2249 -0.0840
69107W        W12020   6.846   0.718   6.080 -0.1285  0.3348 -0.0197
69108W        W12021   2.867   2.127   2.101 -0.2149 -0.2493  0.2283
69109W        W12022   8.289  14.921  10.094  0.0710  0.0296  0.0364
69110W        W12023   7.999   2.074   8.915  0.0742 -0.0831 -0.1628
69111W        W12024  12.015  12.385   2.706  0.0115 -0.0480  0.0245
69112W        W12025   7.328   1.374   8.136  0.1914  0.0457 -0.1806
69113W        W12026   1.476   9.496   4.943 -0.1420  0.0971  0.1020
69114W        W12027   2.407   4.350  11.812 -0.0991  0.3025  0.2105
69115W        W12028   5.371   7.933   6.441  0.2610 -0.0471  0.3328
69116W        W12029  29.537   8.156  29.601 -0.1291  0.0566  0.0597
69117W        W12030  33.034  14.174   4.931  0.1012 -0.1730 -0.1124
69118W        W12031   2.046  11.114  27.097  0.4509  0.1995 -0.3046
69119W        W12032   9.410   7.331   9.674  0.0841  0.0629 -0.2159
69120W        W12033   6.926   7.227   6.168 -0.0366 -0.4709 -0.1141
69121W        W12034  14.527   3.657  28.056 -0.0308  0.0956  0.0978
69122W        W12035   1.659   8.425   3.893 -0.4999  0.0940  0.0667
69123W        W12036  25.522  14.251  29.438  0.0340 -0.1883  0.2965
69124W        W12037   5.801  14.466  10.256  0.2722  0.0449 -0.2725
69125W        W12038   0.625  13.443  22.577 -0.0019  0.2545 -0.1840
69126W        W12039  32.813   7.443   2.868 -0.1400  0.0312  0.0483
69127W        W12040   4.790  17.844   2.825  0.0490  0.0090 -0.5501
69128W        W12041   3.389  33.954   8.733  0.0500 -0.1986 -0.0424
69129W        W12042   0.172   7.281  26.360  0.2185  0.1875 -0.3418
69130W        W12043  33.958   8.131  11.060 -0.0472 -0.2547  0.2969
69131W        W12044   8.261   4.788  26.970 -0.1622 -0.1292  0.1523
69132W        W12045  13.212   9.191   9.392 -0.0845  0.2307  0.2603
69133W        W12046  25.000   4.138   3.899  0.0341 -0.0523  0.1722
69134W        W12047   0.663  27.230   9.022 -0.1743  0.1321  0.0458
69135W        W12048  31.214   8.435   5.039  0.0260 -0.1062 -0.2674
69136W        W12049   3.388   7.806  10.988 -0.3696 -0.3287  0.0532
69137W        W12050  10.754   6.397   6.488  0.1253 -0.1161 -0.2033
69138W        W12051  30.736  15.333   3.984  0.0126  0.0403  0.1418
69139W        W12052   5.949   9.188   9.598 -0.1192 -0.3152 -0.2535
69140W        W12053  26.657  16.071   5.575 -0.2059 -0.1226  0.0490
69141W        W12054  17.376  17.424   5.340 -0.1599 -0.0850 -0.0239
69142W        W12055   2.004  16.048   6.178  0.0218  0.4033 -0.1572
69143W        W12056   6.844  10.751  25.268  0.3169 -0.4619 -0.0725
69144W        W12057  13.138   4.455   2.849  0.1321 -0.2556  0.0227
69145W        W12058   9.487   4.118   8.821 -0.2330  0.1756 -0.3395
69146W        W12059   0.065  13.548   9.750 -0.0338 -0.1454 -0.1568
69147W        W12060  11.427   5.465   7.130  0.3881 -0.3093  0.4316
69148W        W12061   4.058   5.814   6.533 -0.0126  0.1075  0.1144
69149W        W12062   8.838   6.868   3.153 -0.0359 -0.2888  0.0822
69150W        W12063  31.554   6.571  27.717 -0.0353  0.2318 -0.0068
69151W        W12064  13.487  16.988   5.232  0.0646 -0.3217  0.1063
69152W        W12065   5.822   9.624   9.788  0.1557  0.2329  0.1518
69153W        W12066  16.761   4.109   7.929 -0.0840 -0.2255 -0.0396
69154W        W12067  12.811  10.513  26.393  0.2498 -0.1121  0.0580
69155W        W12068   9.357  10.126   2.976 -0.1191 -0.0137  0.1011
69156W        W12069   2.047   9.116  10.713  0.0239 -0.2846  0.4120
69157W        W12070  31.719   8.942   4.427 -0.1760  0.0794  0.0430
69158W        W12071   5.471  32.679  10.894 -0.0800  0.0377 -0.2934
69159W        W12072   2.314   7.137   8.274 -0.0748  0.2093 -0.1715
69160W        W12073   7.141   7.160   8.314  0.0535 -0.0984  0.1233
69161W        W12074   6.231   4.916   8.743  0.0842  0.0214  0.1025
69162W        W12075   0.991  12.765  26.786  0.4013 -0.0976  0.1391
69163W        W12076  18.197  19.145   2.871  0.2426 -0.0578 -0.0045
69164W        W12077   0.001   2.709   8.204  0.0897  0.1655  0.0905
69165W        W12078   5.906  32.433  11.646  0.1326 -0.2074 -0.1603
69166W        W12079  26.621   5.177   6.204  0.2679 -0.1647  0.0715
69167W        W12080  11.784  30.779  23.275 -0.2392 -0.0903 -0.0525
69168W        W12081   3.509  11.678   9.494  0.1862 -0.0703 -0.0974
69169W        W12082  12.809   9.843  10.014  0.1153 -0.1189  0.2861
69170W        W12083   0.376  13.963   7.452 -0.1399  0.2750  0.0209
69171W        W12084   9.584  17.421   0.049  0.0206 -0.1910 -0.1859
69172W        W12085  10.126  15.036   8.047  0.0689 -0.4097  0.1808
69173W        W12086  11.334  15.311   8.663  0.1679 -0.1261  0.0577
69174W        W12087  12.520   4.584   7.624 -0.0807 -0.0633  0.0037
69175W        W12088   8.150  15.753   0.858  0.0516 -0.0168 -0.1357
69176W        W12089   2.216   6.190   6.137 -0.0364  0.1605  0.0844
69177W        W12090  14.021   8.528   3.405 -0.1459 -0.3491  0.3397
69178W        W12091  15.472   2.447   9.065 -0.1372 -0.1507  0.4102
69179W        W12092  29.558  15.990   6.113  0.1725 -0.2939 -0.0825
69180W        W12093   4.005  10.382  10.744 -0.1552  0.2829  0.1194
69181W        W12094  33.500  20.118   1.103 -0.1686 -0.1786  0.2429
69182W        W12095   2.630   2.015   2.709 -0.0996 -0.0837  0.1287
69183W        W12096   3.713  10.522   8.613  0.1039 -0.2692  0.1354
69184W        W12097  27.187  20.344   2.650  0.1376  0.0253 -0.1359
69185W        W12098   8.409   3.764  13.331 -0.1445  0.3008 -0.1763
69186W        W12099  16.165  25.138   5.191 -0.2915  0.1047  0.3420
69187W        W12100  11.550  12.085   6.456 -0.1937 -0.1239 -0.2154
69188W        W12101   9.346   9.315   9.838  0.0708  0.1961 -0.0356
69189W        W12102  15.854  15.239   3.218  0.1661  0.0634  0.0938
69190W        W12103  15.140  13.652   5.788 -0.0448  0.1903 -0.3863
69191W        W12104   2.860  11.209   1.406 -0.2936  0.1007 -0.1287
69192W        W12105  14.407  14.033   7.178 -0.1313 -0.0903 -0.0893
69193W        W12106   3.923   8.435   8.047  0.2912  0.0376 -0.1126
69194W        W12107  12.344   2.993   8.098 -0.2915 -0.1244  0.0452
69195W        W12108  28.256  14.471  28.122  0.3795  0.0271  0.3404
69196W        W12109   8.315  15.186   8.021 -0.0979  0.1377 -0.3452
69197W        W12110   2.227  12.283  10.136 -0.0228  0.2488 -0.3801
69198W        W12111   6.965   5.910  12.628 -0.1586  0.0593 -0.1667
69199W        W12112   8.115   7.568   8.523 -0.4408 -0.0749  0.0587
69200W        W12113  13.371   5.174   3.089  0.0566 -0.0108 -0.1337
69201W        W12114   1.597   9.970   3.463 -0.2072  0.1185 -0.3328
69202W        W12115   2.250   6.492  10.088  0.3157 -0.0750 -0.4092
69203W        W12116  12.671  10.605   4.275  0.0010 -0.0771 -0.0940
69204W        W12117  34.006   6.813  27.199  0.0559 -0.1611 -0.0250
69205W        W12118   4.144  32.790  11.263 -0.1205  0.0895 -0.2237
69206W        W12119   3.467  17.980   9.362  0.0588  0.0533 -0.3591
69207W        W12120   5.314  15.990   8.114 -0.1240  0.0117  0.1223
69208W        W12121  32.208   8.728   2.827 -0.1784 -0.0149 -0.0570
69209W        W12122  12.978   7.900   6.202  0.0661 -0.1836 -0.1317
69210W        W12123  15.950   5.265   7.666  0.2618 -0.2201 -0.1341
69211W        W12124   4.947   9.994   9.467 -0.0351 -0.1627  0.1829
69212W        W12125   0.319   5.182  11.997 -0.0038 -0.0252 -0.1091
69213W        W12126   5.398   9.315   3.840 -0.1123 -0.1285 -0.0810
69214W        W12127   3.477   8.801  11.256 -0.0892 -0.0260 -0.1923
69215W        W12128   9.052  32.182  11.389  0.0791 -0.0525  0.0299
69216W        W12129  18.727  12.420   5.997 -0.0855 -0.1551  0.0074
69217W        W12130   8.830   5.391   8.042 -0.0194  0.1383 -0.0893
69218W        W12131  32.898  30.563   8.816 -0.3180 -0.0910 -0.2578
69219W        W12132   0.175  16.978   8.125  0.1421  0.0131  0.0987
69220W        W12133   6.609   4.836  12.434 -0.1643  0.2630 -0.3641
69221W        W12134   7.436   9.050   9.534 -0.0744  0.0075  0.1083
69222W        W12135   7.946   6.810   9.591  0.2448 -0.1201 -0.0165
69223W        W12136  16.409   3.841  22.917  0.0613 -0.1943  0.2383
69224W        W12137   1.027  13.362  29.109 -0.1864  0.0925 -0.1071
69225W        W12138   6.546  16.901   0.825 -0.2420  0.3473  0.0259
69226W        W12139   2.253   4.490   3.549 -0.0295  0.2404 -0.1411
69227W        W12140  29.552  16.417   9.121 -0.2467 -0.0611 -0.0700
69228W        W12141   8.705   8.428   8.218 -0.0514 -0.1423  0.0825
69229W        W12142  25.329  12.374   1.359  0.1352 -0.0899  0.0504
69230W        W12143  27.284   6.244   4.242 -0.2855  0.2287 -0.1053
69231W        W12144   3.485  14.196   7.876  0.3035  0.2490 -0.3313
69232W        W12145   1.651   8.804   2.942 -0.1171 -0.1944 -0.0311
69233W        W12146   7.925   8.729   4.912  0.3877 -0.2151 -0.2119
69234W        W12147   3.328  16.536   1.775  0.0550 -0.1889  0.0404
69235W        W12148  10.053   5.207   9.569  0.0809 -0.0128  0.1518
69236W        W12149   3.778  11.826  10.899  0.0815  0.0286  0.1994
69237W        W12150   6.180   2.572   1.246 -0.0686 -0.3523  0.2214
69238W        W12151  14.798  17.109   5.929  0.1135  0.0895  0.3414
69239W        W12152   4.921  11.740   0.133  0.1984  0.1566 -0.2376
69240W        W12153   5.699  14.127   5.287 -0.1357  0.0415  0.0787
69241W        W12154  14.452  15.780  28.920  0.3219 -0.1329 -0.0756
69242W        W12155  10.085  15.782   6.305 -0.5202  0.0678 -0.1395
69243W        W12156  10.002  14.079   7.683  0.0812  0.0523 -0.2219
69244W        W12157  16.201  18.157   4.394  0.0442 -0.0461 -0.0427
69245W        W12158   6.482   5.560  12.437 -0.2213 -0.1100 -0.2950
69246W        W12159   6.728  14.779   1.390 -0.1069 -0.0767  0.0087
69247W        W12160   3.576  13.595   4.372 -0.1199 -0.3368  0.0670
69248W        W12161   8.269   6.683   8.840 -0.1804  0.0013  0.5297
69249W        W12162   7.449   1.514   4.585 -0.0663 -0.1561  0.3110
69250W        W12163   2.784   6.492  11.210 -0.1079  0.2380 -0.0344
69251W        W12164   8.455  10.524  10.093  0.1942  0.0847 -0.2006
69252W        W12165  32.712   5.626  29.234  0.1401 -0.1823 -0.1222
69253W        W12166  10.020  10.319   3.511 -0.0181  0.0522 -0.2811
69254W        W12167  10.861   7.339   7.353 -0.3386  0.0554  0.1947
69255W        W12168  32.412  33.600   9.159 -0.4070  0.0902  0.0174
69256W        W12169   5.802   8.166   9.494 -0.0384  0.2555 -0.0076
69257W        W12170  29.279  13.854   9.867 -0.0795 -0.1095 -0.2418
69258W        W12171  31.868   7.208   4.151 -0.1148 -0.0500  0.2199
69259W        W12172   1.272   9.935  10.289 -0.0613 -0.1264  0.0458
69260W        W12173   5.346   0.440  10.735 -0.0249  0.2119 -0.4053
69261W        W12174   6.971   6.240  13.083 -0.1501  0.2912 -0.0063
69262W        W12175  16.871  13.473   5.826  0.1369  0.0669 -0.2898
69263W        W12176   6.822   3.315  10.561 -0.0700 -0.2563 -0.1096
69264W        W12177  33.257  14.672   9.215  0.1977 -0.2386 -0.0592
69265W        W12178  15.848   5.111  10.377  0.5282  0.0163  0.3630
69266W        W12179   6.383  30.431   8.885  0.0406 -0.0664  0.0756
69267W        W12180   9.657  10.950   3.082  0.3262  0.1437 -0.2256
69268W        W12181   3.041  12.377   8.922  0.0989  0.3840  0.0453
69269W        W12182   9.500   5.158   7.628  0.0103 -0.1390  0.1389
69270W        W12183   5.710  19.671   9.944  0.2189  0.2100  0.2317
69271W        W12184  10.889   5.059   3.466  0.2413 -0.0393  0.0872
69272W        W12185  13.763   1.492   9.117  0.0763  0.1588 -0.2108
69273W        W12186  29.357   5.643  10.936  0.1668  0.0076  0.2890
69274W        W12187  10.075  15.878   2.683  0.0509 -0.1497  0.2868
69275W        W12188  16.474  14.620   0.564 -0.1995 -0.0643  0.1227
69276W        W12189  13.806   4.924   7.473 -0.1218  0.1942 -0.1941
69277W        W12190   6.564  17.536   7.703  0.1069  0.0886 -0.1875
69278W        W12191  27.884  17.857   1.597  0.1069 -0.0491  0.0454
69279W        W12192  32.706   0.728   5.132  0.0021  0.1084 -0.2644
69280W        W12193  17.540  13.629   4.749 -0.0165 -0.1561 -0.1668
69281W        W12194  32.490  14.650   4.243  0.0569 -0.1711 -0.0484
69282W        W12195  32.827  18.523   3.139  0.1592 -0.0900  0.0066
69283W        W12196  15.188   8.761   0.502  0.1265 -0.3778  0.0160
69284W        W12197   7.252   4.076  12.154  0.0677  0.0291 -0.0159
69285W        W12198   5.148  18.905   6.968 -0.1559 -0.0141  0.1779
69286W        W12199  27.366   8.947   1.702  0.2947 -0.3618  0.1390
69287W        W12200   8.701  30.478  11.555  0.0487  0.1322  0.2098
69288W        W12201   2.729  11.694  27.834 -0.0618  0.2367  0.2358
69289W        W12202   6.110  13.896   5.611  0.1173  0.0761 -0.0940
69290W        W12203  25.580   5.448  29.663  0.0353  0.3846 -0.0344
69291W        W12204   9.366   9.475   6.309 -0.1758  0.1406  0.1655
69292W        W12205   3.141   7.777   8.698  0.1544  0.1934 -0.3057
69293W        W12206  31.460   9.653   5.488  0.2718  0.2659  0.0555
69294W        W12207   2.801   9.456   6.396  0.1143  0.1105  0.1436
69295W        W12208  30.740   8.818  10.483 -0.0767 -0.0205  0.1809
69296W        W12209  33.274   4.504   1.881  0.0387 -0.1673 -0.0009
69297W        W12210   6.885  10.593  11.012  0.1237 -0.1504 -0.1813
69298W        W12211  26.497   8.789   7.690  0.1516 -0.2033 -0.1777
69299W        W12212  13.129  16.041   6.480  0.0151 -0.1713  0.2619
69300W        W12213   9.952   4.573   4.230  0.0697 -0.3085 -0.0702
69301W        W12214  30.522   9.986   5.455 -0.2597  0.4515 -0.1703
69302W        W12215  13.289  10.185   4.216 -0.1495  0.0422  0.0020
69303W        W12216  15.353  13.563   6.244  0.3290  0.0752  0.1919
69304W        W12217   3.494   1.148  12.381  0.0998  0.1357 -0.0799
69305W        W12218  14.243   7.564   3.926 -0.1540 -0.0077 -0.0200
69306W        W12219   6.247  18.699   3.220  0.2395 -0.3015  0.3522
69307W        W12220   4.975  30.917   9.277 -0.0920 -0.0325  0.2132
69308W        W12221  33.860  18.709   5.545  0.3633 -0.1616  0.0018
69309W        W12222  21.198   8.001   7.163 -0.0808 -0.0037 -0.1913
69310W        W12223   7.232  11.462  10.084 -0.0730 -0.4260 -0.3978
69311W        W12224   1.937  11.741   8.436  0.3119 -0.0122  0.0009
69312W        W12225   4.143   6.743   9.048 -0.2049 -0.1450 -0.0602
69313W        W12226   6.762  23.998   5.983  0.4312  0.0605 -0.0931
69314W        W12227   8.473  15.957   9.205 -0.1222 -0.0891 -0.0189
69315W        W12228   3.156   6.153   7.596  0.1244 -0.0613 -0.2394
69316W        W12229   9.008   8.178   6.612  0.0794 -0.0065 -0.0871
69317W        W12230  16.547   3.191   4.714 -0.3756  0.3610 -0.2514
69318W        W12231  10.363   5.168   4.880  0.0745  0.2397  0.3173
69319W        W12232  32.696  15.768  29.492 -0.1485 -0.3020  0.2589
69320W        W12233  34.315   9.166  10.095 -0.1082  0.0571 -0.0319
69321W        W12234  14.179   1.973  10.927 -0.0186 -0.2611  0.2863
69322W        W12235   0.446   8.609  20.366  0.0283  0.1718  0.1916
69323W        W12236   2.404   7.587  29.386  0.0690 -0.0221 -0.4173
69324W        W12237  11.740  30.413  11.032 -0.1441 -0.0396 -0.2179
69325W        W12238  10.787   5.116   2.128 -0.0639 -0.0505  0.0342
69326W        W12239   0.019   7.549   9.812  0.1691 -0.2638 -0.0793
69327W        W12240  31.364  19.161   7.864  0.1656  0.1492 -0.0281
69328W        W12241   5.771  16.883   3.716  0.0412 -0.2161  0.3198
69329W        W12242   8.724   3.073   7.702 -0.1439  0.2557  0.3221
69330W        W12243  31.201   4.976   3.308  0.0458 -0.0779  0.0863
69331W        W12244   7.095  32.090   6.146 -0.1120  0.0188  0.1221
69332W        W12245   8.153   1.616  10.087 -0.2286  0.1869 -0.2131
69333W        W12246  27.632  11.573   8.895 -0.1726  0.1946  0.3291
69334W        W12247   7.293   6.693  13.182  0.2195  0.1117 -0.1357
69335W        W12248  12.939   1.164   7.460  0.0360 -0.1538 -0.0062
69336W        W12249   2.375  15.936   9.623 -0.0322  0.1143  0.4466
69337W        W12250   7.562   9.423   1.243  0.0843 -0.1383  0.1121
69338W        W12251   7.697   7.990  11.277 -0.0917  0.0726  0.3136
69339W        W12252   7.308  17.397   3.458  0.0538 -0.2353 -0.4503
69340W        W12253   3.070  21.813   7.113 -0.2265 -0.0389  0.0820
69341W        W12254  31.216  13.176   2.469 -0.1041 -0.0169 -0.1118
69342W        W12255   5.048   4.036   5.596  0.2940 -0.0557  0.0412
69343W        W12256   8.001   1.141   8.959  0.0678  0.0175 -0.0201
69344W        W12257   0.326   4.878   4.191 -0.0094  0.1588  0.0361
69345W        W12258  12.444   4.998  10.358  0.0087  0.3001 -0.0772
69346W        W12259   3.094  10.919  11.031 -0.3023 -0.1437 -0.3032
69347W        W12260   5.215  15.412   4.926  0.1365 -0.0238 -0.1367
69348W        W12261  12.540  11.002   6.069  0.2265  0.3699  0.0891
69349W        W12262   0.786   6.375  28.219  0.0262  0.0287 -0.0743
69350W        W12263  26.476   9.819   8.269 -0.2200  0.2113 -0.0916
69351W        W12264   6.480   9.322   7.045 -0.1099 -0.0463 -0.0089
69352W        W12265   1.028   0.624   0.722 -0.0115 -0.1174  0.0309
69353W        W12266  34.154   9.097   7.842  0.2969  0.0187 -0.2284
69354W        W12267  11.132   3.552   9.257 -0.1771 -0.0669 -0.0225
69355W        W12268   9.233  11.553  24.445  0.1011  0.1312 -0.0975
69356W        W12269  18.025   1.330   9.388  0.2985  0.0383  0.1479
69357W        W12270   3.472  12.227   7.483  0.0003  0.1667 -0.0625
69358W        W12271  10.435  15.792   6.821 -0.0566 -0.0399  0.0422
69359W        W12272   2.315  34.170   9.254 -0.1495 -0.0101  0.2589
69360W        W12273  13.264   9.358   8.788  0.2014 -0.1070 -0.0388
69361W        W12274  12.404   7.088   6.157 -0.1913  0.1902  0.2633
69362W        W12275   9.132  28.640  10.031 -0.0266 -0.0280 -0.3538
69363W        W12276  31.874  28.134   5.768 -0.1977 -0.1786  0.4824
69364W        W12277  29.349  34.361  10.519  0.2664 -0.0259 -0.0111
69365W        W12278   8.576   9.155  29.171  0.0683 -0.0822  0.1867
69366W        W12279   1.484  33.430  11.059  0.0925 -0.1994 -0.0276
69367W        W12280   9.389   5.485   4.203 -0.0327 -0.1398 -0.0287
69368W        W12281   0.916   8.584   4.320 -0.0085  0.1975 -0.0061
69369W        W12282  34.283  10.044   3.936 -0.1723  0.0337 -0.0778
69370W        W12283  32.219   8.239   9.610 -0.0893 -0.2337  0.0917
69371W        W12284  13.955   7.580   2.969  0.3319 -0.0936 -0.0840
69372W        W12285   8.914  34.051   9.035 -0.0132 -0.1124 -0.3115
69373W        W12286  15.312   7.183   1.643 -0.0473 -0.0433  0.2738
69374W        W12287  19.013  15.634   1.673  0.2033  0.3187 -0.0090
69375W        W12288   9.297  30.906   4.295  0.0829 -0.0968  0.2959
69376W        W12289   5.638  11.336  10.020 -0.1722  0.1649  0.2487
69377W        W12290  17.808   3.442  10.065 -0.0796 -0.0979 -0.0413
69378W        W12291   3.164   5.068   9.912 -0.0776 -0.1205  0.1361
69379W        W12292   7.459   9.215  10.014 -0.2208  0.0767  0.3624
69380W        W12293   5.917   8.322  12.002 -0.1571 -0.1293 -0.2245
69381W        W12294   9.594   4.265   7.393  0.0107 -0.0831 -0.3895
69382W        W12295  16.912  13.516   7.815  0.0251  0.0959 -0.1925
69383W        W12296  27.434  23.184   5.540  0.1190 -0.0454 -0.0680
69384W        W12297   1.686  12.038   3.296  0.1072  0.1703 -0.2543
69385W        W12298  31.361   3.350  12.033  0.1810  0.2701  0.0770
69386W        W12299   0.435  15.734  29.164 -0.4281  0.3733  0.0878
69387W        W12300   3.806  14.330   9.393  0.1554  0.1668  0.4606
69388W        W12301   5.365  12.666   7.525  0.1724  0.1961 -0.2073
69389W        W12302   0.169  17.295   2.803  0.0587  0.1264  0.0208
69390W        W12303   0.052   9.353  11.199  0.3009  0.2521 -0.3997
69391W        W12304  15.661  12.055   4.529 -0.1875 -0.1694 -0.2412
69392W        W12305  30.671  30.785  10.340 -0.0599  0.1397  0.1607
69393W        W12306   5.597   7.645  10.357 -0.1791 -0.6012  0.1264
69394W        W12307  18.974   6.579   0.136 -0.2258 -0.1915 -0.2249
69395W        W12308  31.094   6.338   5.349  0.1593  0.2812 -0.3124
69396W        W12309   2.235   4.362  25.297 -0.2241  0.0111  0.0922
69397W        W12310   6.261   6.425   9.057 -0.1194  0.0162 -0.0927
69398W        W12311  15.098   5.959   6.760 -0.1354  0.0021 -0.2120
69399W        W12312   7.723  11.931   3.555  0.5410 -0.0683 -0.1063
69400W        W12313   8.905   3.570   3.355 -0.1258 -0.1202  0.0664
69401W        W12314  14.991  11.823   0.586 -0.1687  0.2310 -0.0076
69402W        W12315   6.280  11.904  11.056  0.2122 -0.1295 -0.1864
69403W        W12316   6.517   3.171   4.751  0.1189 -0.0038 -0.1657
69404W        W12317   3.253   6.178   7.009  0.0520  0.1230 -0.0986
69405W        W12318   4.534   9.825   2.240 -0.1280  0.1050  0.0668
69406W        W12319   0.247  15.715   7.719 -0.2675  0.1120 -0.0630
69407W        W12320   3.511  11.490   4.611 -0.2108 -0.1721 -0.1746
69408W        W12321   0.704   5.380  25.767 -0.0460  0.1160 -0.4065
69409W        W12322   4.051   3.902   6.523 -0.1308  0.0777  0.1161
69410W        W12323   0.867  12.839   3.265  0.2997 -0.4773 -0.1118
69411W        W12324   9.467  31.123  25.312 -0.1092 -0.1283  0.1203
69412W        W12325  30.546   0.208   6.816  0.0811  0.1322  0.1649
69413W        W12326   6.036  13.819   9.890 -0.3022 -0.0420 -0.4034
69414W        W12327   0.751  17.053   7.576  0.0382 -0.1638 -0.0620
69415W        W12328  33.957   4.190   4.093  0.1277  0.1373 -0.1000
69416W        W12329  31.592  12.284  28.846  0.3085  0.2133  0.2554
69417W        W12330   1.234   9.449   9.680  0.3075  0.0498  0.2745
69418W        W12331   8.631  33.618  27.954  0.1279  0.0570  0.2063
69419W        W12332  34.348  17.524   4.802  0.1175 -0.4901  0.1909
69420W        W12333   3.778  11.118   2.898 -0.0913 -0.1502  0.1296
69421W        W12334  28.988  13.471   2.128 -0.0051 -0.0225 -0.0598
69422W        W12335   7.447   0.204   1.295 -0.1405  0.0476  0.1644
69423W        W12336   8.129   3.608   6.570  0.1790  0.1301 -0.1184
69424W        W12337   2.351   0.130   6.703  0.2353 -0.0290 -0.1866
69425W        W12338  16.548   9.211   5.825  0.1396  0.1502 -0.1046
69426W        W12339  11.094   8.792  29.031 -0.0525  0.2653 -0.2784
69427W        W12340   6.406   5.660   4.410 -0.0197 -0.4720  0.1749
69428W        W12341   6.883   9.350  10.101  0.1713 -0.0207 -0.1386
69429W        W12342   4.578   2.323   8.528 -0.0113  0.0089 -0.2877
69430W        W12343   5.353  14.251   8.776  0.0098 -0.1428 -0.1522
69431W        W12344  29.084   7.699   8.299  0.2175 -0.1533 -0.0684
69432W        W12345  13.292  14.673   3.286 -0.2454  0.1226 -0.0483
69433W        W12346   5.454  12.561   3.915 -0.0286 -0.2603  0.2023
69434W        W12347   9.430   7.909   1.186 -0.0745 -0.0290 -0.0434
69435W        W12348   2.339  15.280   0.957  0.3089  0.1555 -0.0743
69436W        W12349  12.624  10.869   7.037 -0.1744 -0.0943 -0.0894
69437W        W12350   6.802  10.524  10.020 -0.1603  0.0105 -0.1972
69438W        W12351   9.856  32.986  11.359  0.3725 -0.0068  0.1496
69439W        W12352   0.657   5.835  26.245 -0.0109 -0.1185 -0.0705
69440W        W12353  12.871  18.269   5.292 -0.2961  0.1009  0.0502
69441W        W12354   3.362   8.501  21.236 -0.0640  0.0690  0.1495
69442W        W12355   8.124  15.392  10.073 -0.1428 -0.0875 -0.1367
69443W        W12356  14.408  31.668  11.480  0.1761  0.2951 -0.1790
69444W        W12357  12.937  13.847   7.846  0.1136  0.0786 -0.1194
69445W        W12358   7.744   8.465   3.442 -0.1499  0.0929  0.2536
69446W        W12359   0.401  12.938  24.866 -0.3371  0.1097 -0.1584
69447W        W12360  26.509  22.721   1.103  0.3511  0.0679 -0.3777
69448W        W12361   8.400   9.511  26.485  0.0569 -0.1831 -0.0093
69449W        W12362   2.272   8.042  23.279 -0.1948 -0.0632  0.3614
69450W        W12363   7.936  15.140   5.004  0.0283  0.0164  0.0842
69451W        W12364  32.905  15.290   8.421  0.1640 -0.0880 -0.0475
69452W        W12365   7.660   8.410  29.590 -0.1132 -0.0176 -0.0666
69453W        W12366  12.336   1.022   7.702 -0.0358 -0.1559  0.1015
69454W        W12367   8.217   4.538  26.475 -0.0699  0.2653 -0.2164
69455W        W12368   9.992  19.908  29.422  0.0700  0.0719  0.3185
69456W        W12369  23.880  11.276  27.798  0.2423  0.0328 -0.1261
69457W        W12370  34.418  27.249   9.273  0.0743 -0.2626  0.1070
69458W        W12371  12.248  17.977  21.583  0.0470 -0.0980 -0.2117
69459W        W12372   7.862  27.293  10.679 -0.4942 -0.1589  0.0228
69460W        W12373   9.998  13.986  10.215  0.0687  0.0388  0.1816
69461W        W12374  33.829  12.341   1.700  0.1338  0.1874  0.1017
69462W        W12375   2.608  15.677  29.673  0.3358 -0.1529 -0.1356
69463W        W12376   7.134  14.607   8.795 -0.2806 -0.3991  0.0049
69464W        W12377   2.052  18.189  27.134 -0.3775 -0.2281 -0.3373
69465W        W12378   8.956   8.883   4.544  0.0008 -0.2372 -0.1623
69466W        W12379  34.423  13.239   2.439  0.2181 -0.1669  0.1367
69467W        W12380  12.236   7.791   8.918  0.0076 -0.0814  0.0803
69468W        W12381   2.158  11.892   2.463 -0.0342  0.2575  0.1643
69469W        W12382  26.042  13.359   0.201 -0.2058  0.0971  0.0615
69470W        W12383   7.895   3.325  11.501  0.1370 -0.1477  0.1927
69471W        W12384   6.240   9.580  26.335 -0.2825  0.0113  0.1702
69472W        W12385  33.849   4.588   2.867 -0.3050  0.3560  0.2058
69473W        W12386   8.184  13.123  29.195  0.0292  0.1155 -0.2162
69474W        W12387  10.809  14.229   7.106 -0.1124  0.0102  0.3108
69475W        W12388  14.036   4.710   5.187  0.2942 -0.1123  0.0654
69476W        W12389  33.146  14.627  29.676 -0.0555 -0.1915  0.2373
69477W        W12390  29.603  15.984   7.146 -0.0588 -0.1432  0.1217
69478W        W12391   7.911  14.595  23.356  0.0830  0.2198  0.0058
69479W        W12392  13.129  10.765  26.134  0.0327 -0.2593 -0.2290
69480W        W12393  11.763  11.593   9.386 -0.0517  0.0446 -0.4201
69481W        W12394   4.990  16.012   8.848 -0.1560  0.2249  0.1473
69482W        W12395   6.889  18.623  20.092 -0.0785 -0.0673  0.0904
69483W        W12396  27.906   2.150  29.011 -0.1945 -0.0098  0.0980
69484W        W12397   9.067  18.897  23.695  0.0340  0.0649 -0.1384
69485W        W12398   3.351   4.661  28.624  0.1788  0.1373  0.1232
69486W        W12399  33.129   8.282   7.319  0.4462  0.1394 -0.1034
69487W        W12400  10.147  11.244  28.257 -0.1351  0.3300  0.0080
69488W        W12401  20.960  10.340  29.691  0.0710 -0.1562 -0.0936
69489W        W12402   2.978  22.773  28.088  0.1553  0.1193 -0.0746
69490W        W12403   7.896  14.873   0.582  0.2290 -0.0160 -0.2046
69491W        W12404   6.154  10.933  10.629 -0.0945  0.1075 -0.0883
69492W        W12405  16.217  18.671   0.252 -0.1457  0.3175  0.1918
69493W        W12406  11.352  12.342   0.704  0.0307 -0.0100  0.0230
69494W        W12407   8.825   7.956   3.931  0.2257  0.0438  0.0669
69495W        W12408  10.070  10.171  24.169  0.2462  0.3810  0.0757
69496W        W12409   1.359  17.981   5.548 -0.0711 -0.1508  0.1212
69497W        W12410   8.203   6.990  17.751 -0.3639 -0.5139 -0.0545
69498W        W12411   9.656   9.405   4.134  0.0259 -0.0907  0.3077
69499W        W12412  11.509  22.476  19.827 -0.0417 -0.1176 -0.0374
69500W        W12413   8.965   9.513  24.684 -0.0784 -0.2070 -0.3617
69501W        W12414  25.126  14.293   5.078  0.1435  0.0894  0.2128
69502W        W12415  10.380  16.278  29.475  0.0664 -0.1916 -0.0861
69503W        W12416   7.783  16.071  22.268 -0.1946 -0.1738 -0.0166
69504W        W12417  13.372  21.581  17.946  0.3368 -0.4061  0.1236
69505W        W12418   7.966   8.921  11.460  0.6583 -0.2933  0.4006
69506W        W12419   2.406  15.187  29.629  0.3596  0.2709  0.0941
69507W        W12420   0.920  11.518  28.586 -0.1027  0.0691 -0.1763
69508W        W12421  13.895  16.311   3.863 -0.0210 -0.2143 -0.1132
69509W        W12422   5.609  24.997   5.538  0.0780  0.2134 -0.1283
69510W        W12423   6.866   8.557   2.792  0.0540  0.3278  0.2530
69511W        W12424   3.580  15.483   8.982 -0.1411  0.1898 -0.0928
69512W        W12425  10.707  18.388  29.611 -0.0809  0.1651 -0.1542
69513W        W12426  32.528   3.833  27.261 -0.3301  0.3704 -0.0319
69514W        W12427   4.143   9.494  10.520  0.2191  0.1407  0.3946
69515W        W12428  18.614   5.849  27.481  0.4748  0.0818  0.1030
69516W        W12429   2.489  27.798   0.299  0.0041 -0.2526  0.1714
69517W        W12430  26.212  17.137  29.627 -0.1674 -0.1669  0.3634
69518W        W12431  26.800   4.303   6.090  0.0398  0.1957 -0.1164
69519W        W12432  16.703  15.277  24.296  0.2271  0.3552 -0.0582
69520W        W12433  34.040   9.507   2.214  0.2661  0.0441 -0.0352
69521W        W12434  10.046  16.671   5.798  0.1640  0.2290 -0.1698
69522W        W12435   8.048  10.141  24.073  0.2602 -0.1885  0.0546
69523W        W12436  33.376   6.100  11.064 -0.0969 -0.0285 -0.2352
69524W        W12437   4.533  14.794   9.290  0.2768  0.2954 -0.0587
69525W        W12438  33.689  17.854  26.741  0.2935  0.3888  0.0550
69526W        W12439   6.981  26.644   6.158 -0.2737 -0.4377 -0.2228
69527W        W12440  33.645  12.002   0.955 -0.0660  0.0228 -0.0106
69528W        W12441  12.349  11.228   2.269 -0.1004  0.1606 -0.1556
69529W        W12442   6.915  13.901   3.599  0.1970 -0.2633  0.4480
69530W        W12443   4.845  20.547   8.276  0.0542 -0.1023  0.0452
69531W        W12444  33.611  10.799   0.526 -0.0692  0.3314  0.0642
69532W        W12445  25.249  18.763  28.896  0.4939  0.0678 -0.0242
69533W        W12446  23.332   5.823   7.529  0.0980  0.1181 -0.0648
69534W        W12447  25.168  13.343  24.732 -0.1282  0.3443  0.5290
69535W        W12448   6.378   9.507  28.744  0.1903  0.0808 -0.1135
69536W        W12449  12.281   7.225   0.054 -0.2516 -0.4625 -0.1083
69537W        W12450   2.162  14.401  27.682  0.0819 -0.0035 -0.0433
69538W        W12451  13.542   9.439   3.038  0.2706 -0.0412  0.0865
69539W        W12452   3.810  27.410  29.462 -0.1118  0.0390  0.2335
69540W        W12453  32.321  30.729   6.592 -0.1661 -0.0648 -0.0121
69541W        W12454  34.321   3.660   1.211 -0.0934  0.3655 -0.0102
69542W        W12455  18.595  18.653   3.838  0.0293  0.0830  0.1997
69543W        W12456  29.578  10.605   0.567  0.0702 -0.1363  0.1794
69544W        W12457   7.433   7.879  28.812 -0.1638  0.0124 -0.1091
69545W        W12458  14.236   4.233   9.943  0.1913 -0.1485 -0.0521
69546W        W12459   3.826  10.945  27.475 -0.0638  0.0628  0.1048
69547W        W12460   5.657   9.117  12.647  0.2954  0.0133 -0.0767
69548W        W12461   8.560  15.563   4.276 -0.1913  0.2059 -0.0613
69549W        W12462   8.114  10.638   7.488  0.0404  0.0394 -0.2394
69550W        W12463   1.294  10.058   0.320  0.1646 -0.0431  0.2337
69551W        W12464   9.578  12.028   4.705  0.0673  0.0866  0.3233
69552W        W12465  12.079   7.180   3.126  0.1035  0.1926  0.3025
69553W        W12466  34.110  11.363  27.814  0.0344  0.2100 -0.1374
69554W        W12467  33.136  14.685  25.216  0.0986 -0.3645 -0.1564
69555W        W12468   7.182  17.281   8.318 -0.2734 -0.0889 -0.0774
69556W        W12469  16.168   7.886   5.596 -0.0914  0.2436 -0.0026
69557W        W12470  28.375  12.560   4.490  0.1767  0.1824 -0.0425
69558W        W12471   1.654  21.035   9.657  0.0513 -0.2672 -0.1246
69559W        W12472   4.487  13.098  21.937  0.2089  0.1994 -0.5217
69560W        W12473   5.933  12.053  22.704 -0.0280 -0.0331 -0.0784
69561W        W12474   6.901   9.925   3.046 -0.2536  0.0368 -0.3787
69562W        W12475   9.571  13.815  24.439  0.2637  0.2381  0.2132
69563W        W12476   3.315  15.213  29.301  0.1826  0.1158 -0.0037
69564W        W12477   8.889  28.335   7.480  0.0753  0.2238  0.1212
69565W        W12478  15.166  15.500  26.971 -0.0854 -0.1329 -0.2825
69566W        W12479   4.624  22.476   8.644 -0.2192 -0.1269  0.1528
69567W        W12480   7.173   8.374  29.761 -0.0198  0.2353 -0.2364
69568W        W12481  10.384   8.019  26.779 -0.0179  0.2847  0.1381
69569W        W12482   0.495   1.649   6.277  0.0010  0.0052  0.3909
69570W        W12483  27.918  17.839   6.012  0.1309  0.0330  0.0573
69571W        W12484   0.143  21.372  29.501  0.1230 -0.1956  0.2946
69572W        W12485   8.248  22.737  28.252  0.1286 -0.0334  0.0042
69573W        W12486   9.303   8.068   2.145  0.0782 -0.2127 -0.3426
69574W        W12487   4.487  21.816  23.752 -0.0425 -0.1032 -0.1584
69575W        W12488   9.441  30.148  22.253 -0.2204 -0.1286  0.1562
69576W        W12489  11.456  18.335  26.787 -0.0345  0.1414 -0.2366
69577W        W12490  33.108  13.106   6.304  0.0120  0.0411  0.1266
69578W        W12491  32.924  12.704  10.071 -0.1946 -0.2669 -0.0705
69579W        W12492   9.510   4.502  21.162 -0.0288 -0.2011  0.0329
69580W        W12493  15.339   8.516  23.362 -0.0010 -0.2908  0.0601
69581W        W12494  12.955   5.877  10.023  0.3036  0.0195 -0.1194
69582W        W12495  13.818  19.496   4.331 -0.1110 -0.0911 -0.0845
69583W        W12496   7.804   3.567   4.143 -0.0168  0.1968  0.0294
69584W        W12497   5.000   8.098  18.823  0.0424  0.1527 -0.0343
69585W        W12498   1.379  11.778   1.037  0.1178 -0.1043  0.1410
69586W        W12499   4.008  16.289   3.955 -0.2469 -0.2895  0.0730
69587W        W12500  29.507  17.335   2.458  0.0293 -0.0233  0.0700
69588W        W12501  25.418   6.960   3.690 -0.0588  0.0832 -0.2079
69589W        W12502   2.775  11.300  28.122 -0.1057 -0.2023  0.1773
69590W        W12503   0.810  12.529   9.356 -0.2446  0.0005 -0.0161
69591W        W12504  10.608  13.196  29.508 -0.0475 -0.3438 -0.0778
69592W        W12505  17.543  14.072   7.155 -0.1309 -0.0421 -0.1340
69593W        W12506   7.936  10.546  11.047 -0.4917 -0.1716 -0.0187
69594W        W12507   3.891  15.280   6.802 -0.2515 -0.1340  0.0517
69595W        W12508   4.117  13.507  24.481  0.1390  0.1800  0.0068
69596W        W12509  30.898  18.689  20.892 -0.1383 -0.0581 -0.0686
69597W        W12510   0.041  17.126   6.502  0.1986 -0.2789 -0.1847
69598W        W12511  30.020  15.388  27.570 -0.1539 -0.2205  0.2663
69599W        W12512   1.823  21.910   4.359  0.1893 -0.4160  0.0079
69600W        W12513   0.664   5.928  10.302 -0.0877 -0.1923  0.1451
69601W        W12514   3.050  14.986   3.934  0.0056 -0.2902  0.0058
69602W        W12515  34.248  15.996   0.566  0.2460 -0.3588 -0.1207
69603W        W12516   9.943   8.730   9.561 -0.0487 -0.5062  0.2641
69604W        W12517   6.552   5.352  27.077 -0.3538  0.4082  0.1958
69605W        W12518   2.236  11.423  29.562 -0.0781 -0.2207 -0.1616
69606W        W12519  10.525  11.247   4.557  0.0067 -0.0156 -0.0697
69607W        W12520  10.725  22.450  22.909  0.4068 -0.0291 -0.2979
69608W        W12521   1.387  14.677  27.262 -0.3473 -0.2837  0.3971
69609W        W12522   8.207  23.008  23.786 -0.1707 -0.0201 -0.2224
69610W        W12523  15.694  14.169  27.934  0.1204  0.0154  0.2887
69611W        W12524   4.488  19.519  20.856 -0.1348 -0.4120  0.1323
69612W        W12525  29.701   7.949  19.577 -0.0542 -0.1706  0.3567
69613W        W12526   0.933  13.813   5.342  0.0312 -0.0929  0.4474
69614W        W12527  15.400  14.406   3.521 -0.2577  0.2065  0.3227
69615W        W12528  33.176  33.923   6.277 -0.0046  0.1175  0.1097
69616W        W12529   5.895  21.098  26.567 -0.1287  0.0815  0.1987
69617W        W12530  14.466  13.168  21.885 -0.3130 -0.3222  0.2424
69618W        W12531   4.366  12.641   6.743 -0.0431  0.1249 -0.0048
69619W        W12532   2.340  15.199   0.344 -0.2406 -0.0260  0.0829
69620W        W12533  28.593   6.489   0.727 -0.1832  0.1448 -0.3154
69621W        W12534  10.454   9.885  23.513 -0.0272 -0.0388 -0.1041
69622W        W12535   4.731  33.731   9.338 -0.0024  0.4565  0.0086
69623W        W12536   2.820  21.469   7.455  0.0555 -0.0118  0.0984
69624W        W12537  10.008  13.387   4.358 -0.3253  0.1810 -0.3343
69625W        W12538  10.393   8.611  28.760  0.0361  0.0051  0.1588
69626W        W12539  33.154  19.623  27.097  0.2528  0.0133 -0.2596
69627W        W12540   7.300  22.688  21.969  0.0668 -0.0689  0.0943
69628W        W12541   6.359  22.651   0.571 -0.0472 -0.1803  0.2720
69629W        W12542   9.013  15.419  27.172  0.0226 -0.1665  0.0303
69630W        W12543   9.305  25.280   6.150  0.2691  0.0047  0.1295
69631W        W12544   6.126   9.014   4.995  0.1976  0.4355  0.0053
69632W        W12545  13.789  14.357  29.684 -0.2186 -0.1494 -0.1643
69633W        W12546  33.915   5.575  24.974  0.1980 -0.2429 -0.2130
69634W        W12547   7.029  15.727   8.266  0.1995  0.2611 -0.0590
69635W        W12548   5.528  14.972   2.264  0.4994  0.1452  0.0797
69636W        W12549   8.437  10.964  24.920  0.0859 -0.1524 -0.1007
69637W        W12550   0.027   8.173  11.265 -0.2203 -0.1039 -0.3339
69638W        W12551   3.585  17.122   4.990  0.0387 -0.0059  0.1129
69639W        W12552  16.211  10.181   0.853 -0.1928  0.0559 -0.2406
69640W        W12553  33.420  13.846  24.378 -0.0525 -0.2184  0.0913
69641W        W12554  19.622   0.995  29.765  0.0327 -0.0627  0.0443
69642W        W12555   8.136   3.781   3.771 -0.0275  0.2425  0.0294
69643W        W12556   7.173  14.184   5.783  0.2443  0.0849 -0.0772
69644W        W12557  11.156  15.308   6.223 -0.1153 -0.0661 -0.1327
69645W        W12558   5.847  23.605   9.722 -0.1739  0.1848 -0.1726
69646W        W12559  27.290  10.315  24.684 -0.1611  0.1982 -0.1602
69647W        W12560   9.029   8.436  27.300  0.1919  0.3160 -0.0883
69648W        W12561   8.454  15.522   1.857 -0.3605  0.1003 -0.0292
69649W        W12562   7.885  19.964   2.506  0.2663 -0.0847 -0.4811
69650W        W12563  17.283  21.183  25.779 -0.3175 -0.1598  0.1053
69651W        W12564   1.354  17.706  27.417  0.0320  0.1424 -0.3599
69652W        W12565  15.985  10.366   7.487  0.1694 -0.2549 -0.1081
69653W        W12566  33.150  22.149   8.292 -0.0795 -0.1318  0.2177
69654W        W12567  32.019   4.660  29.577  0.1495 -0.0885  0.3509
69655W        W12568  15.365  14.545   4.079  0.1087 -0.0270 -0.0109
69656W        W12569   4.319   9.947  27.920 -0.2046 -0.1733 -0.0522
69657W        W12570   0.011  31.348   3.383  0.1828 -0.1997  0.2028
69658W        W12571   5.366  11.358  23.247 -0.0290 -0.0137 -0.0046
69659W        W12572  31.269  18.740  23.747 -0.0441 -0.3491 -0.0151
69660W        W12573   9.664  13.104   1.918 -0.2866 -0.1068 -0.0674
69661W        W12574  15.478  13.150  29.336  0.3793  0.1867 -0.0274
69662W        W12575   9.681  17.917  22.381  0.2125  0.0518  0.0195
69663W        W12576   5.933   5.630  28.849 -0.1986  0.1946 -0.0446
69664W        W12577   3.288  17.622   5.114  0.3918  0.1732 -0.1417
69665W        W12578   7.977   9.541   0.243 -0.0014 -0.0875  0.4362
69666W        W12579   5.152  13.672  10.219 -0.1021 -0.0937 -0.0529
69667W        W12580  19.010  12.784  23.520 -0.1660 -0.3412  0.3047
69668W        W12581  33.913  11.760  23.184  0.2685  0.1923 -0.0243
69669W        W12582   4.754  14.485  20.991  0.1801 -0.4240  0.4523
69670W        W12583  11.857   7.241   0.677 -0.0765 -0.1831 -0.0310
69671W        W12584   0.369  11.337   2.297 -0.0187 -0.0796  0.2267
69672W        W12585  19.117  16.690   7.373  0.0359  0.2305 -0.0238
69673W        W12586  10.539  17.127   2.739 -0.1552  0.2577  0.0806
69674W        W12587   9.067  24.314   3.444 -0.2367 -0.0719 -0.1995
69675W        W12588   0.213  11.378   8.851  0.1628 -0.2653  0.0667
69676W        W12589   4.652  14.830   0.174 -0.1482 -0.3456  0.1775
69677W        W12590  13.511  13.087   4.386 -0.0442  0.0170 -0.0895
69678W        W12591   6.223   1.731  26.335 -0.1815 -0.0600 -0.0121
69679W        W12592  28.610  11.736   6.452  0.2513 -0.0265  0.0571
69680W        W12593  24.949   7.987   8.237  0.2431  0.0774 -0.0206
69681W        W12594   4.626  21.112   8.551 -0.2278 -0.0992  0.1163
69682W        W12595  28.610  18.947   6.148  0.2709 -0.2760 -0.0159
69683W        W12596   8.030   5.865   3.658 -0.0927 -0.0403  0.0140
69684W        W12597   3.982   8.768   6.371  0.0840  0.1438 -0.0928
69685W        W12598  31.572   1.320  10.799 -0.1286  0.1121 -0.3279
69686W        W12599  32.924  13.489  20.257 -0.0290  0.0085  0.0571
69687W        W12600  29.669  22.089   8.866 -0.2305 -0.2498 -0.2489
69688W        W12601   3.280  18.763  25.125  0.0028  0.1844  0.2972
69689W        W12602   7.628  10.664   4.286  0.0511 -0.1484  0.0265
69690W        W12603   2.998  16.239   7.793 -0.1935 -0.1672  0.2299
69691W        W12604  18.646   6.554  25.937  0.0662  0.1006  0.1795
69692W        W12605  33.686  12.874  24.497  0.1731 -0.1871 -0.0574
69693W        W12606   9.702  12.125  27.938  0.1938 -0.1473  0.0389
69694W        W12607   6.169  10.645  24.655  0.1782  0.3857  0.4390
69695W        W12608  31.387  12.418   2.830 -0.0476 -0.3261 -0.1578
69696W        W12609  11.285  14.939   5.397 -0.2826 -0.0081  0.1714
69697W        W12610  14.353  14.717  29.017 -0.2605  0.0276  0.0543
69698W        W12611   4.242  16.729   7.664  0.0365  0.1937  0.2654
69699W        W12612  17.589  15.438   2.316 -0.2690 -0.0383  0.0921
69700W        W12613   7.212  12.812   4.967 -0.0747 -0.1167  0.1872
69701W        W12614   8.034  18.422   6.317  0.0423  0.2049  0.0389
69702W        W12615   2.335  12.512   5.017  0.1213 -0.0184  0.0297
69703W        W12616   3.013   8.963   4.892 -0.2459 -0.0851  0.3362
69704W        W12617   0.654   8.226   7.438 -0.2334  0.1427  0.0065
69705W        W12618  17.350  12.550   5.274  0.1689  0.1495 -0.1919
69706W        W12619   5.926  24.643   4.320  0.0855 -0.1502 -0.3000
69707W        W12620  29.990   5.126  25.329  0.0568  0.2053  0.0143
69708W        W12621   4.315  15.364  24.445 -0.0273  0.0690  0.0740
69709W        W12622   0.667  18.934   3.868 -0.4639  0.2380  0.1085
69710W        W12623   6.937  12.717   3.174  0.2143  0.2391  0.1399
69711W        W12624  12.573  15.665  27.086 -0.0376 -0.0042  0.1634
69712W        W12625   4.947   7.856   3.369  0.2295 -0.0884  0.1048
69713W        W12626   3.968  12.637  22.046 -0.0489 -0.0222 -0.0533
69714W        W12627  11.245  15.029  26.353  0.1477  0.1557  0.1012
69715W        W12628   1.197  12.618  17.708  0.2486  0.0490  0.1339
69716W        W12629   0.539  12.688  26.606  0.0906  0.0255  0.1102
69717W        W12630  10.011   8.585   1.500  0.1529  0.0145 -0.1271
69718W        W12631  29.794  10.449   6.016  0.0528  0.0430 -0.1958
69719W        W12632  18.053   8.949  27.766  0.1709 -0.0637 -0.0792
69720W        W12633   4.260  10.176  26.252  0.1849 -0.0825  0.1844
69721W        W12634  30.774   9.100   7.182  0.0393 -0.0702  0.0226
69722W        W12635  14.971   0.161   2.056 -0.1110 -0.2019 -0.0747
69723W        W12636  26.098  13.401   4.909  0.1883  0.0400 -0.2272
69724W        W12637   6.987  20.737   5.763 -0.1540  0.1908 -0.2928
69725W        W12638   1.928  14.512   4.648 -0.0438  0.1324 -0.0668
69726W        W12639   1.238  18.148   8.221 -0.4511 -0.1006 -0.1581
69727W        W12640   4.968  12.349   0.805  0.2273  0.1511 -0.0202
69728W        W12641   6.639  12.903  18.444 -0.0367 -0.2224  0.3294
69729W        W12642  20.209   5.925  27.317 -0.2608  0.0475 -0.1281
69730W        W12643  10.627  19.502   2.224 -0.0003 -0.1542  0.2519
69731W        W12644  11.185  13.542   5.556 -0.0583 -0.0124  0.0854
69732W        W12645   4.739   4.277  28.654 -0.0473 -0.3634 -0.0730
69733W        W12646   8.601  11.933  25.259 -0.0777 -0.0992 -0.0220
69734W        W12647  11.810  10.583  29.066  0.1750  0.0102  0.0501
69735W        W12648  17.998  13.555   4.548 -0.2719 -0.4167 -0.3497
69736W        W12649   7.527   9.130   4.759  0.1395  0.0855 -0.0063
69737W        W12650  31.897   8.696   0.827  0.1917  0.3966 -0.0824
69738W        W12651   9.862  11.290  21.535  0.1737  0.2346 -0.1420
69739W        W12652   0.994  30.753   8.935  0.1176 -0.1009  0.0064
69740W        W12653  11.630  14.065  25.862  0.2139  0.0433 -0.0505
69741W        W12654  12.694  13.021  24.024 -0.1404  0.3251 -0.1214
69742W        W12655   4.179  14.729  23.216  0.0833  0.1607  0.2627
69743W        W12656   9.462  18.927   4.840 -0.0565 -0.2255  0.1849
69744W        W12657   3.551   2.093  12.341 -0.0496  0.0190  0.1742
69745W        W12658   0.613   2.150  23.773 -0.0285 -0.1799 -0.0599
69746W        W12659   1.033  13.705   4.833  0.3162 -0.3107  0.0717
69747W        W12660  33.900  12.197  28.402  0.2310 -0.0398 -0.4730
69748W        W12661   3.096   6.585   1.709  0.0197  0.2774  0.2902
69749W        W12662   6.081  16.025   9.123 -0.1389  0.1240  0.4314
69750W        W12663   5.880  14.773   7.570  0.1180 -0.4467 -0.2456
69751W        W12664   3.875  14.520   5.429 -0.1146  0.1469  0.0819
69752W        W12665  31.501   6.195  28.945 -0.1307 -0.0318 -0.1974
69753W        W12666   2.595  20.142  22.306  0.1670  0.0427 -0.1340
69754W        W12667  16.695  25.730   8.120 -0.1043  0.1145  0.1235
69755W        W12668  31.655  24.868  19.839 -0.1704 -0.1248 -0.0160
69756W        W12669  11.380   6.678  24.940  0.0174 -0.0099 -0.4088
69757W        W12670   1.443  18.859  27.257 -0.1163 -0.0106 -0.0575
69758W        W12671   8.672  18.339   3.923  0.1315  0.1075 -0.0229
69759W        W12672   8.267  26.917   5.526 -0.3328 -0.1970 -0.0514
69760W        W12673   7.269  12.841  26.280 -0.1635 -0.1760  0.0072
69761W        W12674   2.252  14.489   9.064 -0.0422 -0.2034  0.0686
69762W        W12675   1.729   9.754   7.705  0.4019  0.0062  0.2344
69763W        W12676   6.874   7.959   5.284  0.1590 -0.0683  0.3565
69764W        W12677  18.288  18.485  26.427  0.0676 -0.0709 -0.1974
69765W        W12678   6.772  19.623   0.098  0.1070  0.0255  0.0970
69766W        W12679  27.450  12.873   1.441  0.0544  0.0001  0.0875
69767W        W12680  16.808  29.378   7.696  0.0757  0.0637  0.0027
69768W        W12681   0.355   8.962   2.425 -0.2059 -0.2141 -0.1602
69769W        W12682  32.136   2.059  28.352  0.1243  0.0547 -0.1705
69770W        W12683   5.116   4.839   0.543 -0.1624 -0.0155  0.1121
69771W        W12684   0.772  10.713  24.190  0.0462  0.1606  0.0560
69772W        W12685  32.187  15.976   4.795 -0.1269 -0.1980  0.3291
69773W        W12686   1.791  14.145  24.592  0.1937  0.0407  0.0834
69774W        W12687   6.562  10.597   0.812 -0.1735  0.0318 -0.1728
69775W        W12688  31.878   9.962   1.632  0.2160 -0.3432  0.1767
69776W        W12689  34.433  12.943   0.538 -0.2881 -0.1861 -0.1752
69777W        W12690  31.135  24.098  27.977 -0.1267 -0.1450 -0.0001
69778W        W12691  15.039  15.211  28.802  0.2244 -0.0061 -0.0766
69779W        W12692  24.898  14.544   5.780  0.2274  0.0248 -0.1110
69780W        W12693   4.731  24.604   7.659 -0.1822  0.1100  0.2282
69781W        W12694  31.679  15.240   5.092 -0.1041  0.3545  0.2972
69782W        W12695   3.924  13.390  28.420 -0.2449 -0.2437  0.0134
69783W        W12696   6.016   1.621  18.508  0.0180  0.1808 -0.0281
69784W        W12697   1.162  11.443  29.743  0.0674 -0.1101 -0.0730
69785W        W12698   6.521   6.850  11.847  0.3479  0.0955 -0.1476
69786W        W12699   6.169  27.353   7.130 -0.1271 -0.1608  0.2126
69787W        W12700   3.734  22.428  25.743 -0.1372 -0.1230  0.1325
69788W        W12701  34.355  12.759  26.254  0.4959 -0.2610  0.0561
69789W        W12702   7.752  12.405   5.232  0.2416  0.1219 -0.0714
69790W        W12703   9.150  11.278   5.081 -0.2808  0.0009  0.3132
69791W        W12704   2.021   8.782  23.957  0.4290 -0.0950  0.3142
69792W        W12705   6.141  30.570  24.462  0.0528  0.2099  0.0418
69793W        W12706   3.368   9.633  11.393  0.1842  0.0952 -0.0332
69794W        W12707   9.965   5.688   2.082 -0.0788 -0.2414 -0.0666
69795W        W12708  11.903  11.228  27.143  0.3927  0.0427 -0.0384
69796W        W12709  13.296  14.941   5.499  0.0291 -0.0083 -0.0023
69797W        W12710   1.510   9.993   5.176 -0.0025 -0.2156 -0.1785
69798W        W12711   7.070   7.680  25.612 -0.1021 -0.3169  0.1424
69799W        W12712  28.130  10.371   0.811  0.1416 -0.0879  0.0306
69800W        W12713   9.514  14.764  23.255  0.1159 -0.0350  0.3056
69801W        W12714   4.452  17.764  26.693  0.1936  0.1061 -0.1238
69802W        W12715  34.191  23.300   2.795 -0.0322 -0.2789 -0.2130
69803W        W12716   0.887  22.147   6.856 -0.0285 -0.2944  0.0158
69804W        W12717  33.435  14.823   9.650 -0.0952  0.1041 -0.2472
69805W        W12718  32.260  19.380   0.634  0.1117 -0.0993  0.2193
69806W        W12719   6.776  14.448  28.375  0.5001 -0.0595  0.2396
69807W        W12720   8.849   3.997   5.643 -0.0323 -0.0120 -0.1782
69808W        W12721  11.575  15.313  14.666 -0.0048 -0.0489  0.2052
69809W        W12722   8.567  20.735  27.033 -0.1216  0.0008  0.0458
69810W        W12723   3.875  14.898  22.732 -0.3792  0.0436  0.0269
69811W        W12724   4.781  17.058  21.537  0.0028 -0.1289  0.4210
69812W        W12725  28.705   9.672   0.227  0.0307 -0.0357  0.2849
69813W        W12726  14.674  18.708  28.797 -0.0093 -0.0059 -0.2340
69814W        W12727   2.343  18.360  23.684 -0.0743 -0.0068  0.0260
69815W        W12728   0.595   9.227   3.209  0.3747  0.0788 -0.2100
69816W        W12729  34.187   6.742  12.134 -0.0291  0.1705 -0.0147
69817W        W12730   8.831  11.831   2.815 -0.2708  0.0661  0.0201
69818W        W12731   7.173   1.471  25.756 -0.0911 -0.1160  0.0994
69819W        W12732   3.263  13.795   5.824  0.2243 -0.3200  0.1472
69820W        W12733   5.959  11.798  25.142  0.1925  0.1507 -0.3537
69821W        W12734  30.430  21.700  27.158 -0.0532  0.1153 -0.2278
69822W        W12735  12.959  14.426   0.044 -0.1070  0.3350  0.1360
69823W        W12736  33.248  17.394  20.530  0.0783  0.3266 -0.1012
69824W        W12737  27.772  19.215  29.309 -0.0266  0.2275  0.0896
69825W        W12738  13.208   5.944  24.201  0.0964 -0.1893 -0.0740
69826W        W12739   2.225  14.315  15.336  0.0824  0.1159  0.1793
69827W        W12740  29.408  17.048  28.788 -0.0899  0.0985 -0.0770
69828W        W12741  31.894   6.491   2.724  0.2156  0.2094 -0.0298
69829W        W12742  13.324  10.422   5.025  0.0992 -0.1582 -0.1363
69830W        W12743  14.021  17.747   7.348  0.0941 -0.1182 -0.0696
69831W        W12744   7.872  12.436  25.765 -0.1389 -0.0215  0.0529
69832W        W12745   9.114  20.526   5.791 -0.1132  0.2637 -0.0438
69833W        W12746  14.192  27.586   6.763 -0.0529  0.3805 -0.3011
69834W        W12747   8.506  27.760   3.604 -0.0728 -0.2162 -0.1156
69835W        W12748   6.543  19.664  20.744 -0.2396 -0.1860 -0.0696
69836W        W12749  21.406  17.123  23.481  0.1869  0.1884  0.0922
69837W        W12750  33.878  19.285   7.151  0.0119 -0.1332 -0.3122
69838W        W12751  30.310  23.091  28.462 -0.1499 -0.0500  0.0205
69839W        W12752   6.931  17.036  24.807  0.1295  0.0518  0.2866
69840W        W12753   8.505  14.020   8.139 -0.0704  0.1356  0.1792
69841W        W12754  34.162   6.383  28.548  0.0313 -0.1499  0.2875
69842W        W12755  12.143   9.335  22.296 -0.4014 -0.0573  0.2188
69843W        W12756   5.022   7.937   4.503 -0.0188  0.0144  0.4860
69844W        W12757  13.438   7.556   1.091  0.2824 -0.0165 -0.2139
69845W        W12758   7.744  13.684  10.023 -0.0576  0.2299 -0.2755
69846W        W12759  27.233   9.917  29.284  0.3915 -0.2303 -0.2587
69847W        W12760  11.196   4.249   5.638  0.3234  0.1402 -0.3363
69848W        W12761  14.904  11.868  28.965 -0.1103 -0.0150  0.1655
69849W        W12762  12.837  12.357  24.797 -0.1533 -0.1465 -0.3834
69850W        W12763   1.210  18.654   0.140 -0.0388 -0.0262 -0.2057
69851W        W12764   2.517   5.815   4.656 -0.3710 -0.1038  0.0972
69852W        W12765  12.040  18.727  28.742  0.2222 -0.0265  0.1374
69853W        W12766  14.696  13.055   3.033  0.2363  0.0368  0.0267
69854W        W12767  33.355  11.484   9.881 -0.0305  0.3042 -0.0324
69855W        W12768   7.346   6.587  11.149 -0.1890  0.2413 -0.1721
69856W        W12769  10.379   3.171   7.355 -0.1953  0.4078 -0.2762
69857W        W12770   5.264   6.062   1.400 -0.2595  0.0236  0.1678
69858W        W12771   4.183  18.526   4.968  0.1396  0.1307 -0.1275
69859W        W12772   5.838  17.421   4.754  0.0314  0.0308  0.0536
69860W        W12773   1.427   8.117   1.115  0.0684 -0.2534 -0.1049
69861W        W12774   5.251  11.725   2.392 -0.0194 -0.1966  0.0486
69862W        W12775   7.963  11.417   4.236 -0.2116 -0.1736 -0.1678
69863W        W12776  30.347  16.046   2.683 -0.0631  0.0229  0.0219
69864W        W12777  31.640  19.948   2.908 -0.0215 -0.0299 -0.1387
69865W        W12778   3.587   8.866   9.720  0.2888  0.0720 -0.0148
69866W        W12779  33.482  11.208   0.275  0.0937  0.1690 -0.0560
69867W        W12780   1.201   8.191   5.409 -0.1383 -0.4487 -0.0673
69868W        W12781   6.520  28.824   5.307  0.2125  0.1424 -0.0276
69869W        W12782   6.002   9.993   7.063  0.0883  0.0713  0.0898
69870W        W12783  11.369   9.826   6.057 -0.2302  0.1141 -0.3474
69871W        W12784  13.323  17.663   1.242  0.0635 -0.3835  0.0734
69872W        W12785   2.594   8.055   3.400 -0.0258  0.0214  0.1479
69873W        W12786  11.374  14.140  26.366  0.0696 -0.0539 -0.1960
69874W        W12787  24.603  14.889  26.167 -0.3298  0.2312  0.0168
69875W        W12788  32.537   2.533   5.365 -0.0608  0.0484  0.0279
69876W        W12789  11.367  15.097   7.219 -0.2071 -0.0111  0.3014
69877W        W12790  14.068   6.584  24.495 -0.0508 -0.0014  0.0750
69878W        W12791   0.759  21.550   7.841  0.1621  0.0890  0.0425
69879W        W12792  18.766  17.296   8.052 -0.2643  0.0981 -0.0128
69880W        W12793   9.359  10.314   0.912 -0.0243  0.2044  0.4064
69881W        W12794   4.498  19.271   6.128  0.0006  0.0980  0.1788
69882W        W12795   6.204  17.858   9.833 -0.1099  0.0812 -0.0505
69883W        W12796   6.447   3.723   7.064 -0.1372 -0.0736  0.3276
69884W        W12797  32.433  13.715   6.069  0.2847  0.3282 -0.1800
69885W        W12798   3.329  27.583   7.873 -0.0516  0.1461  0.4177
69886W        W12799  20.822  23.613   6.560  0.0764 -0.1089 -0.2312
69887W        W12800   6.029   9.087   7.165 -0.1275 -0.0236 -0.0087
69888W        W12801   5.616   3.935  28.740  0.0737  0.2495 -0.1829
69889W        W12802   6.353  11.252   7.078 -0.1612  0.1826  0.0018
69890W        W12803  11.610  18.761   3.939 -0.0446  0.3086 -0.0619
69891W        W12804   7.780  15.684   8.373  0.0311  0.0299  0.1907
69892W        W12805   7.451  22.653   6.357 -0.0679  0.1403 -0.0923
69893W        W12806  34.268  10.678   3.804 -0.3589 -0.1402 -0.1346
69894W        W12807   4.222   6.602  22.642  0.0324  0.1668  0.0003
69895W        W12808  10.824  20.459   1.350 -0.1258 -0.0921 -0.0931
69896W        W12809   0.507  18.751   9.293 -0.1868 -0.1041 -0.1394
69897W        W12810  28.243  11.870   9.705  0.1866  0.0138  0.0586
69898W        W12811   6.502  17.705  29.302  0.1937  0.1516 -0.0067
69899W        W12812   7.524   8.117  10.815 -0.3299 -0.0530 -0.0418
69900W        W12813   0.013   9.042   4.284 -0.2263 -0.2461 -0.1808
69901W        W12814   3.384  11.178   5.545 -0.1272  0.2039 -0.1964
69902W        W12815   9.759   3.257   9.833 -0.2982  0.1597 -0.1393
69903W        W12816   2.208  34.094  27.603 -0.2571  0.0155  0.4929
69904W        W12817   3.081  18.565   7.504  0.1498 -0.0225 -0.0340
69905W        W12818   7.854  18.269   3.581  0.3609  0.0023  0.3368
69906W        W12819  23.441   9.179   4.907 -0.0581  0.3608  0.1314
69907W        W12820   5.502  15.658   1.991  0.0742 -0.0175 -0.2487
69908W        W12821  29.225  11.554   3.972 -0.1746 -0.0115  0.0201
69909W        W12822  15.973  23.088  26.410  0.1472  0.2311  0.0631
69910W        W12823   1.595   5.865   9.612 -0.1237  0.1887 -0.2838
69911W        W12824   3.166  11.508  29.054 -0.0045 -0.0095 -0.2804
69912W        W12825  16.376  15.017   5.399  0.2987 -0.0265 -0.4735
69913W        W12826   1.021   9.617   4.657  0.0994  0.0255  0.0643
69914W        W12827   4.724  24.312   8.290  0.1577 -0.0065 -0.1523
69915W        W12828  22.083  15.985   7.632  0.1741  0.4052 -0.1312
69916W        W12829  30.014   4.925  25.774  0.0784 -0.1934 -0.0307
69917W        W12830   9.336   2.996   1.002 -0.2232  0.1255 -0.0610
69918W        W12831  31.753   6.010   4.710  0.5004  0.3368 -0.2565
69919W        W12832  33.475  13.648   8.510  0.3033  0.4112  0.0959
69920W        W12833  14.088  13.050   7.666  0.0553  0.0777 -0.3329
69921W        W12834   6.086  15.495  24.633 -0.1226  0.0241 -0.2646
69922W        W12835  33.344  20.989   8.089  0.2638  0.0772 -0.0683
69923W        W12836  31.690  15.818  27.619 -0.0526  0.0720 -0.1665
69924W        W12837   5.743  12.562   1.141 -0.0086  0.0297  0.0366
69925W        W12838   8.987   5.143  27.417  0.2313  0.0383 -0.0653
69926W        W12839   3.045  14.353   8.206  0.2587  0.2836  0.1106
69927W        W12840  22.719  27.077   0.941  0.1248 -0.0157 -0.1780
69928W        W12841  32.442  21.849   4.729 -0.3527  0.0109  0.3365
69929W        W12842   6.831  13.417  10.175 -0.0358 -0.0780  0.2316
69930W        W12843  29.047  17.788   6.236 -0.0942 -0.2022 -0.0339
69931W        W12844  32.906   3.570  11.415  0.1869 -0.0277 -0.1559
69932W        W12845  11.853   8.721   0.103 -0.0336  0.1177 -0.0867
69933W        W12846   4.710  10.275   8.249  0.2582 -0.0075  0.0985
69934W        W12847  12.588  11.544  26.072 -0.2411  0.0396  0.2048
69935W        W12848   7.920   1.395   5.833 -0.0065 -0.3726 -0.1605
69936W        W12849  33.839  19.074  23.452  0.2146 -0.2246 -0.2313
69937W        W12850   3.281  18.416   4.262  0.1261 -0.1404  0.0590
69938W        W12851   9.920   6.857  11.644  0.2547  0.2631  0.1109
69939W        W12852   7.448  32.274  28.187  0.1247  0.0628 -0.0010
69940W        W12853  32.347  10.064   9.142  0.0849  0.0325 -0.0822
69941W        W12854   6.669  17.866   5.399  0.2920  0.1796  0.1097
69942W        W12855   4.243   2.278  21.871 -0.1311  0.2587 -0.3587
69943W        W12856  28.754  18.044   5.939  0.0356 -0.3239  0.0807
69944W        W12857   7.375  18.180   8.093 -0.0308  0.1872  0.1102
69945W        W12858   2.131   7.570   0.596  0.2286 -0.2204 -0.1613
69946W        W12859   1.146   4.824  23.379  0.0557 -0.2879  0.2873
69947W        W12860  31.008  20.402   8.939 -0.0573  0.0016  0.1399
69948W        W12861  11.160  14.119   7.472 -0.0036 -0.1999  0.1909
69949W        W12862   1.419  21.549   6.165 -0.3334  0.4231  0.2397
69950W        W12863  33.618  11.175   2.168 -0.1839  0.1700  0.0507
69951W        W12864   2.693  13.096   2.036 -0.1472  0.0993 -0.0766
69952W        W12865  33.445   2.513   3.024 -0.1520 -0.2091  0.0124
69953W        W12866   5.408   9.681  10.535 -0.0309 -0.2388 -0.0033
69954W        W12867  23.100  13.404  29.289  0.0404  0.0039 -0.4749
69955W        W12868   4.695  11.684  10.007  0.2365 -0.0523  0.0623
69956W        W12869   3.506  15.819   6.961 -0.2338 -0.2200 -0.1944
69957W        W12870  33.190  13.190   3.599 -0.1963  0.2942  0.0221
69958W        W12871  27.898   6.380  27.905 -0.2212  0.1063  0.0033
69959W        W12872   4.201   9.182  12.059 -0.1603 -0.2128 -0.0698
69960W        W12873  12.415   5.486   2.628  0.2634  0.1006 -0.1232
69961W        W12874  10.506   3.414  26.656 -0.0318  0.0515  0.0949
69962W        W12875  32.730  17.238   7.808  0.2213  0.1115 -0.0254
69963W        W12876   6.793  21.200   4.393 -0.3783 -0.0312  0.1251
69964W        W12877   1.679  13.043  21.545  0.2247  0.1477  0.3735
69965W        W12878   3.440  23.210  10.067 -0.1437 -0.2921 -0.0301
69966W        W12879  10.593  17.698   2.430  0.2169 -0.0834 -0.2814
69967W        W12880   4.134   4.979  13.888 -0.2001 -0.4483 -0.1235
69968W        W12881   7.579  16.803   3.807  0.2882 -0.2346 -0.0754
69969W        W12882   1.618   8.689  26.722  0.1907  0.1125 -0.0097
69970W        W12883   0.479   4.567   7.573 -0.1260  0.2106 -0.2758
69971W        W12884  11.131  14.034  22.301 -0.2805 -0.5554 -0.0423
69972W        W12885  34.371   6.575   4.194  0.1793  0.0551  0.0214
69973W        W12886   4.816  10.426   1.475  0.0143 -0.2102  0.1855
69974W        W12887  18.163   4.924  23.736 -0.0045 -0.0240 -0.1205
69975W        W12888   8.888   6.377  17.320  0.1085  0.4211  0.0646
69976W        W12889  14.840  13.786   4.712 -0.2275 -0.1286 -0.2866
69977W        W12890   8.246  14.197   0.256  0.0388  0.0487 -0.1259
69978W        W12891  31.346  18.746   1.491  0.0403  0.2691 -0.1032
69979W        W12892  14.588   6.190   5.152 -0.0578  0.2891  0.1755
69980W        W12893   9.908   3.114  28.640 -0.1444  0.0935 -0.1090
69981W        W12894  19.017  12.646  26.107  0.2048 -0.0623  0.3072
69982W        W12895   4.275   5.805  10.109  0.1570 -0.1016 -0.0291
69983W        W12896   3.804  12.002   2.874 -0.1616 -0.3055 -0.1772
69984W        W12897  32.993  16.326   9.306 -0.0208 -0.2744 -0.1514
69985W        W12898   3.717  15.315   3.657  0.0768  0.0967 -0.2358
69986W        W12899   3.105   9.196  24.744 -0.0110 -0.0227 -0.2073
69987W        W12900   0.969   5.214   8.228  0.1418 -0.1200  0.0449
69988W        W12901  33.522  15.653   6.134 -0.2704 -0.1364  0.1036
69989W        W12902  14.357  20.216   3.307  0.3243  0.0050 -0.2409
69990W        W12903   6.553   7.757   7.552 -0.1294 -0.2766  0.1744
69991W        W12904  29.210  26.872   4.535 -0.1190 -0.2395  0.0912
69992W        W12905  12.085  21.887   6.258 -0.1430 -0.2464  0.0988
69993W        W12906   5.253   7.240   8.584 -0.0913  0.1406 -0.0667
69994W        W12907  32.673   2.064  25.288 -0.1733  0.1453  0.2912
69995W        W12908  34.140  12.785  24.510 -0.0079 -0.0823 -0.3385
69996W        W12909  17.891  15.952   7.068  0.1155  0.0854  0.0787
69997W        W12910  15.726  14.458   7.563  0.3394 -0.2077 -0.2387
69998W        W12911   7.686   8.546  10.535 -0.0936  0.0650  0.4012
69999W        W12912  10.751   7.675  26.451  0.1217 -0.1862 -0.0169
70000W        W12913  28.340  13.556   5.405 -0.0230  0.1128 -0.1020
70001W        W12914  29.934  17.730   6.399  0.0933 -0.3773 -0.0515
70002W        W12915   2.069   7.978   2.636 -0.1351 -0.2365 -0.1424
70003W        W12916   5.657   3.353   9.492 -0.2755 -0.4094 -0.2939
70004W        W12917   8.075  11.554   7.719  0.0837  0.0637  0.0832
70005W        W12918   7.303  20.364   7.780 -0.1234  0.2608  0.0133
70006W        W12919   4.271   5.848  25.732  0.0667 -0.3386 -0.0276
70007W        W12920  11.376  11.197   8.035 -0.2438 -0.2263  0.0854
70008W        W12921  16.244  18.833   3.914 -0.0421 -0.1237 -0.1073
70009W        W12922   9.588   7.708  27.540 -0.1134 -0.0410  0.0926
70010W        W12923   5.803   2.144  11.055  0.0525 -0.0036  0.1140
70011W        W12924   3.551  12.512   1.030 -0.0803 -0.0670  0.0347
70012W        W12925  26.501   2.353   1.513  0.1092  0.3291  0.0687
70013W        W12926   1.378   3.178   4.300 -0.0465  0.1084 -0.2524
70014W        W12927  10.847  17.193   0.301  0.1363  0.0272  0.1902
70015W        W12928   4.059  31.152  19.402  0.0365 -0.0936 -0.1466
70016W        W12929   7.203   7.316   0.357  0.2601 -0.1073 -0.1538
70017W        W12930  32.412  12.096   0.046 -0.0285  0.0508 -0.0225
70018W        W12931   5.651   3.665  12.589 -0.0151 -0.1990  0.0733
70019W        W12932  11.622   1.727  21.648 -0.1497  0.3829  0.0432
70020W        W12933  12.596  12.897   6.275  0.0647  0.1938 -0.2902
70021W        W12934   4.715  23.928   1.267 -0.2368 -0.0655 -0.2109
70022W        W12935  33.467   0.332   6.887 -0.0243  0.0285 -0.3488
70023W        W12936  34.018  21.691   0.643 -0.0462  0.2256  0.4034
70024W        W12937   2.889   5.899  28.098 -0.0391 -0.0425  0.0122
70025W        W12938  12.094   9.513   5.271  0.0980 -0.1284  0.0239
70026W        W12939   6.145  16.464  29.135 -0.1076  0.1462  0.1913
70027W        W12940   5.442   3.916   2.058  0.1702 -0.1623 -0.1237
70028W        W12941  29.030  16.831   9.684 -0.1807  0.1223 -0.3968
70029W        W12942   3.945  10.693   2.486 -0.0534  0.1112  0.0887
70030W        W12943  33.727   7.996   4.930 -0.2798 -0.1572 -0.0566
70031W        W12944  15.118  11.800   7.563  0.1457  0.3853 -0.0617
70032W        W12945   6.469   2.786  27.663  0.0141  0.0590  0.1427
70033W        W12946   3.916  12.812  10.552  0.0715  0.0873 -0.0922
70034W        W12947   6.548  20.395   2.183  0.2612 -0.2151  0.1305
70035W        W12948  15.109  15.522  24.663  0.2145 -0.0606  0.0820
70036W        W12949   7.469   1.603   5.072 -0.0902 -0.1311  0.0491
70037W        W12950   7.348  14.357  28.102 -0.3591 -0.0532  0.2200
70038W        W12951   6.236   2.954   1.687 -0.2548 -0.1057  0.2430
70039W        W12952  14.170  15.998   6.899 -0.0047 -0.1804 -0.1505
70040W        W12953   9.888  11.178   6.300 -0.0278  0.2508  0.0937
70041W        W12954   5.238  13.876  10.688 -0.1825 -0.0093 -0.0395
70042W        W12955  10.889  14.681  23.356  0.0141  0.3372  0.0356
70043W        W12956   5.488   8.788  28.674 -0.0357  0.1461  0.3291
70044W        W12957  33.527   6.818   5.500 -0.1426  0.0831  0.0002
70045W        W12958   2.439  10.725   1.382  0.1423 -0.3455  0.0085
70046W        W12959  18.447  14.947  25.045 -0.0310  0.0728  0.1359
70047W        W12960   6.388  20.850   8.492  0.0446  0.2422  0.2458
70048W        W12961   1.152  24.023   9.072  0.0438  0.0354 -0.0499
70049W        W12962   0.044   6.969   9.021  0.2067 -0.0109 -0.2114
70050W        W12963   9.250  13.982  29.362 -0.1969 -0.1421  0.1367
70051W        W12964   3.768   6.006  13.837  0.1940  0.1977 -0.0061
70052W        W12965  10.249  14.559  20.397 -0.2376  0.2948 -0.2640
70053W        W12966   6.701   6.412   4.305 -0.1723  0.1027  0.3020
70054W        W12967   7.135  12.854   6.881 -0.0470 -0.1836 -0.3739
70055W        W12968   7.462  12.885   2.188 -0.0277 -0.1169 -0.1093
70056W        W12969   6.172  14.221  27.617 -0.1086 -0.0938  0.1764
70057W        W12970  13.639   5.871   8.030 -0.0471  0.2378 -0.0501
70058W        W12971  10.234   0.839   7.701 -0.2345 -0.1196  0.2394
70059W        W12972   4.238  13.516  10.042 -0.1732 -0.1525 -0.4834
70060W        W12973  21.564   9.919   3.767 -0.3641  0.3395  0.1956
70061W        W12974  29.781  13.877  20.097  0.0587  0.0243 -0.0890
70062W        W12975  10.077  34.324  11.773  0.0930  0.1704  0.0905
70063W        W12976   4.492   8.221   2.323 -0.0004 -0.0407  0.0154
70064W        W12977   2.419  13.356   1.436  0.0247  0.0324 -0.1382
70065W        W12978   3.486  11.712   3.650  0.1551  0.3366  0.1824
70066W        W12979   4.702   7.164  10.401 -0.4740  0.1109  0.2288
70067W        W12980   6.286   9.241   9.181 -0.3475  0.2699  0.2118
70068W        W12981   6.434   5.565  23.388  0.1543 -0.0572  0.1269
70069W        W12982   6.928   7.790  11.642  0.1110 -0.2242  0.1227
70070W        W12983  10.267   8.809   4.708  0.0578 -0.1432 -0.1611
70071W        W12984   6.509   9.865   7.762 -0.2197  0.1591 -0.3054
70072W        W12985  13.516   8.161  10.237  0.3381 -0.4015 -0.1620
70073W        W12986   2.718  11.149   3.878  0.1024  0.0176 -0.1500
70074W        W12987   2.622  11.445  11.398 -0.1951  0.0526  0.1939
70075W        W12988   6.800   3.524   6.698  0.1630  0.1223  0.0373
70076W        W12989   2.862  13.061   6.002 -0.0360  0.2875  0.0946
70077W        W12990  11.984   3.334   8.704  0.2571 -0.1217 -0.1717
70078W        W12991  14.539   4.650   2.553 -0.0907 -0.1668 -0.2599
70079W        W12992  13.396   8.834  22.228  0.0109 -0.0495  0.1279
70080W        W12993  32.395   9.586   6.585 -0.0247  0.1714 -0.0911
70081W        W12994   7.637  10.754   5.855 -0.0388  0.0779  0.1642
70082W        W12995  14.026  12.323   5.587  0.1546  0.1427  0.0100
70083W        W12996  33.774   5.839  27.838 -0.2464  0.1935 -0.0055
70084W        W12997   5.029  33.538   4.825  0.0234 -0.3018  0.1044
70085W        W12998   5.492   8.947   4.142 -0.1661 -0.2454  0.1878
70086W        W12999  13.432  15.819  26.987  0.1365  0.1464 -0.1150
70087W        W13000   3.458  27.167   9.836 -0.3407 -0.2945 -0.1471
70088W        W13001   1.807   7.370   0.960  0.2152  0.1697  0.2801
70089W        W13002   0.067   4.015  12.724  0.0676  0.0438  0.0010
70090W        W13003   4.264  21.218   7.779  0.1891  0.0808  0.1673
70091W        W13004  32.549   8.488  28.012 -0.1274  0.2940 -0.0550
70092W        W13005   6.858  25.579  10.223 -0.1062 -0.1123 -0.2445
70093W        W13006   0.953  12.475  26.215 -0.0803 -0.2296  0.1179
70094W        W13007   3.708   7.630  25.001 -0.4034  0.2590 -0.1950
70095W        W13008   3.312   5.492   8.135  0.0336 -0.0609  0.1979
70096W        W13009  23.467  16.210  21.500  0.0346  0.0133 -0.3085
70097W        W13010  27.324   8.708   5.909  0.2249 -0.0533 -0.1395
70098W        W13011   2.930   7.729   9.811 -0.3763  0.0740  0.1947
70099W        W13012  33.882  12.255  25.858 -0.0237  0.3323  0.0914
70100W        W13013   1.408  10.613   1.647 -0.2887 -0.2778 -0.0553
70101W        W13014   7.145   8.754  24.620 -0.2929  0.0321 -0.3158
70102W        W13015   3.801  12.136   1.262  0.1739  0.3247  0.0325
70103W        W13016  16.195   5.001  27.116  0.0962  0.1696  0.0141
70104W        W13017  14.727   8.837   2.960  0.0751 -0.1673  0.2514
70105W        W13018  10.564  30.952   3.697  0.1944 -0.1453 -0.0456
70106W        W13019   9.929  13.439  10.105  0.1485  0.1552 -0.0445
70107W        W13020   8.192   6.718  13.611  0.0886 -0.1765  0.0376
70108W        W13021  13.478  14.112   5.220 -0.1716 -0.0817  0.1101
70109W        W13022   8.256   9.544   9.008  0.3143  0.2141 -0.1876
70110W        W13023  34.192  12.914  10.018 -0.2452  0.2653  0.3173
70111W        W13024   2.125  12.094   7.851 -0.1685  0.2487  0.2137
70112W        W13025  10.475  17.600   0.228  0.0407 -0.0794  0.2600
70113W        W13026   6.241   8.692  11.947 -0.0340 -0.2140  0.2113
70114W        W13027  28.503   9.636   8.793 -0.1111  0.1637 -0.0121
70115W        W13028   5.875  14.774   1.940 -0.1707 -0.0146  0.1210
70116W        W13029   4.399   9.054   9.899 -0.3346 -0.1842 -0.0912
70117W        W13030  33.758   4.482  26.689 -0.2155 -0.0138  0.0315
70118W        W13031   3.466  14.481   4.538 -0.2015 -0.0142  0.1836
70119W        W13032  33.461  21.242   1.644 -0.0755  0.2062  0.1593
70120W        W13033  12.324   5.129   7.877 -0.2336 -0.2101 -0.2558
70121W        W13034   3.503  22.134   2.061 -0.1944  0.0703 -0.0946
70122W        W13035  30.499   7.055   7.479 -0.1859  0.0743  0.0632
70123W        W13036   5.147   9.690   8.920 -0.0829 -0.0648 -0.2722
70124W        W13037   4.443  19.341   3.966 -0.2127 -0.1078  0.0434
70125W        W13038   7.506  13.763   5.705  0.0530 -0.0727 -0.1562
70126W        W13039  16.065   7.814   6.758  0.1647 -0.5062  0.2106
70127W        W13040   3.943   5.093  22.965 -0.0720  0.0136  0.6103
70128W        W13041  12.019  16.526   0.736  0.0835 -0.1502  0.0689
70129W        W13042   2.464  16.473   1.150 -0.0556  0.1388  0.1912
70130W        W13043   4.798  19.912   9.632  0.0984 -0.2595  0.0501
70131W        W13044   1.910   7.771  10.891  0.0986 -0.0855 -0.0864
70132W        W13045   8.280   7.964  27.949 -0.1955 -0.1816 -0.1870
70133W        W13046   1.799  10.680  24.133  0.0848 -0.1640 -0.1852
70134W        W13047   6.031  12.761   9.810 -0.0526  0.3574 -0.0726
70135W        W13048  33.074  15.518   9.806  0.3601 -0.0362  0.2090
70136W        W13049  23.555  24.882   4.242  0.2036  0.0707 -0.0094
70137W        W13050  29.879  16.352   5.969 -0.0258 -0.1916 -0.1792
70138W        W13051   1.759   0.935   9.076 -0.1861 -0.0033 -0.1689
70139W        W13052  12.248   5.820   5.849  0.1162  0.0900  0.0777
70140W        W13053   2.996  12.784   4.506 -0.1460  0.0837  0.0169
70141W        W13054   6.520   6.224  12.364 -0.3254  0.1038 -0.1613
70142W        W13055   5.925  23.616   5.627 -0.0383 -0.1652 -0.0851
70143W        W13056  29.583  18.615  16.554 -0.2068  0.1022 -0.0034
70144W        W13057  11.344  14.886   5.872 -0.1306 -0.1667 -0.0935
70145W        W13058  29.691  14.730  20.760 -0.0769  0.0982  0.2216
70146W        W13059   5.520  15.200   9.122  0.2797  0.2043 -0.0909
70147W        W13060  10.298   6.145  11.087 -0.1816  0.3534  0.2780
70148W        W13061  29.419   9.556   1.519  0.0674 -0.1456  0.4033
70149W        W13062   6.366  17.152   2.515  0.1712 -0.1829  0.2813
70150W        W13063  14.129  12.871   1.172 -0.1045 -0.0492 -0.1153
70151W        W13064   8.634   6.663   9.721  0.1555 -0.1710  0.2902
70152W        W13065   1.484   5.354   8.307 -0.0998 -0.0111  0.1268
70153W        W13066  33.717  16.208   2.002 -0.0581  0.0744  0.3376
70154W        W13067   7.588  14.693   7.511  0.5499  0.1932  0.1534
70155W        W13068  22.212  19.478  25.264  0.1932  0.2234 -0.4210
70156W        W13069   2.885  18.065   7.656 -0.1156 -0.1013  0.1024
70157W        W13070  33.593  22.359  20.375  0.0947  0.1740 -0.2364
70158W        W13071  10.983  16.761   8.867  0.0687 -0.0282 -0.0144
70159W        W13072   1.857   9.282   1.117 -0.1544 -0.0588 -0.0550
70160W        W13073   1.186  22.553   7.187 -0.3919 -0.0826 -0.3784
70161W        W13074   5.026   8.208   8.324 -0.2413  0.1557 -0.0964
70162W        W13075   6.652  13.874   2.597  0.0462 -0.0226 -0.1817
70163W        W13076   2.239  16.830   3.206  0.0920 -0.1295 -0.0348
70164W        W13077   5.352  16.002  10.220 -0.0650 -0.1901 -0.1231
70165W        W13078  33.974  19.596   6.030 -0.1901 -0.2614 -0.1400
70166W        W13079  12.645  13.222  28.419 -0.1104  0.1990  0.0133
70167W        W13080  33.544   6.731  22.445 -0.2660  0.0939  0.2626
70168W        W13081   9.833  10.627   7.137  0.0259 -0.0477 -0.2485
70169W        W13082   1.463   4.057   3.996 -0.1198 -0.0806 -0.2380
70170W        W13083  10.280  12.815   2.733 -0.0105 -0.1722  0.2371
70171W        W13084  16.880   9.519   7.666  0.0200 -0.3134  0.0746
70172W        W13085  12.737   9.047   7.480  0.2036 -0.2988  0.2048
70173W        W13086   2.029  21.318   7.994  0.0961  0.3084  0.0403
70174W        W13087   3.641  13.402   8.206  0.2627 -0.1291 -0.1941
70175W        W13088   4.038  12.798   4.696 -0.0075 -0.1479  0.0711
70176W        W13089   4.554   7.885  11.658  0.3881  0.0882 -0.1387
70177W        W13090   1.152  14.306   2.072 -0.2535 -0.1459 -0.0329
70178W        W13091   2.661   5.198   6.342  0.0401  0.1895 -0.2927
70179W        W13092   2.963  12.644   2.136  0.2056  0.0661 -0.2602
70180W        W13093   7.657  30.009   0.461  0.1589  0.1205 -0.0662
70181W        W13094  26.090   8.284  10.230 -0.3628  0.2854 -0.0767
70182W        W13095  10.610  15.740   8.380  0.0083 -0.0664  0.1244
70183W        W13096   5.117   9.538   3.394 -0.1264  0.0745  0.1870
70184W        W13097  33.266   9.572  25.541  0.1421  0.3894 -0.2512
70185W        W13098   0.924  22.792   5.295  0.1697  0.0179 -0.0073
70186W        W13099   7.420   7.547  11.383  0.1173  0.0382  0.6774
70187W        W13100   9.417  20.466  28.796  0.2230 -0.2277 -0.0335
70188W        W13101   2.855   2.822  29.105 -0.6795  0.2246  0.1642
70189W        W13102   1.012   9.010   2.899  0.0438 -0.0518 -0.0890
70190W        W13103   1.392   3.518   4.744 -0.1952  0.0592  0.4354
70191W        W13104  14.961  18.179  23.849 -0.0694 -0.1710  0.0194
70192W        W13105  33.687  14.810   6.292  0.0869 -0.1610 -0.3613
70193W        W13106  29.845   8.805   0.355  0.2568  0.0186 -0.2671
70194W        W13107   1.205  12.477   8.130 -0.0554  0.2884  0.0080
70195W        W13108   7.287  10.614   3.889 -0.0278 -0.2143 -0.0594
70196W        W13109   5.234   7.023   7.463  0.0460  0.4532 -0.1519
70197W        W13110  11.392   5.831   1.859 -0.2078 -0.0202  0.4053
70198W        W13111  21.103  11.238  23.733 -0.0156 -0.2060 -0.2142
70199W        W13112  11.908  13.822   4.342 -0.4783 -0.1976  0.1229
70200W        W13113   4.089   0.609   1.585 -0.2745 -0.0992  0.1152
70201W        W13114  33.272  17.322  27.486  0.3090 -0.0018 -0.2279
70202W        W13115  26.182  17.325   9.743  0.1051 -0.1159 -0.0561
70203W        W13116   1.971  11.111   0.152  0.0810  0.1671  0.0462
70204W        W13117   6.639   5.356   8.281  0.0421  0.0199  0.0157
70205W        W13118   9.112   7.057   9.315  0.0967 -0.1662 -0.0894
70206W        W13119  31.978   8.289   0.433  0.1829 -0.0311 -0.2200
70207W        W13120   0.913  17.495   8.240 -0.0250  0.2176 -0.0227
70208W        W13121   6.417   2.345   0.015  0.1214 -0.3044 -0.0143
70209W        W13122  26.712  16.437  27.030 -0.1147 -0.0516 -0.0912
70210W        W13123  12.033   9.452   3.904 -0.2350  0.3497 -0.1541
70211W        W13124  32.291  10.291  20.953 -0.2184 -0.1038 -0.2511
70212W        W13125   0.326   6.666   4.408  0.3612 -0.2819  0.2678
70213W        W13126  10.882  12.967   5.147 -0.0480 -0.2223  0.1781
70214W        W13127   3.754   2.207   0.714 -0.1426  0.1338  0.1353
70215W        W13128   5.517  14.928  28.087  0.1834 -0.2908  0.1266
70216W        W13129   6.655  15.530   4.971 -0.0789 -0.0322 -0.2755
70217W        W13130   7.777  11.007   8.550 -0.3548  0.1697 -0.3214
70218W        W13131  13.749  13.868   6.361  0.0691  0.0543  0.0635
70219W        W13132   6.742  10.267   7.904  0.3786  0.1011 -0.0492
70220W        W13133   4.590  24.207   5.102 -0.0206 -0.0649 -0.1366
70221W        W13134   3.673  14.610  10.254 -0.0202 -0.1348 -0.2623
70222W        W13135   6.467  12.607   3.137 -0.2221 -0.3396 -0.0730
70223W        W13136  32.781  11.641   4.647  0.2279 -0.0763 -0.1558
70224W        W13137  25.997  14.615   4.610  0.3445 -0.0734  0.2430
70225W        W13138   2.620   7.723  20.148  0.0360 -0.1405 -0.1812
70226W        W13139   1.617  25.008   1.480  0.2567  0.2380  0.0838
70227W        W13140  33.583  16.270   3.738  0.2236 -0.3409 -0.0898
70228W        W13141   2.223  10.066  28.780 -0.1010  0.1845 -0.0055
70229W        W13142   8.816  10.958   5.330  0.0483 -0.3915 -0.1388
70230W        W13143  13.573  23.370   9.959  0.1726 -0.3782  0.1632
70231W        W13144  30.366  15.466  17.704 -0.0213 -0.1191  0.2694
70232W        W13145   0.940  14.978   6.092 -0.2290  0.0041 -0.2531
70233W        W13146  10.804  10.387   2.819 -0.2798 -0.1916  0.0052
70234W        W13147   0.568  12.308   8.981  0.0223  0.1864 -0.0570
70235W        W13148   7.030  20.289  22.759 -0.0694 -0.2607 -0.3677
70236W        W13149  12.725  24.425   4.951  0.0634 -0.1149  0.1173
70237W        W13150   9.721   6.361   8.907  0.1695 -0.1587  0.3967
70238W        W13151   5.334   6.597   8.848  0.2097 -0.2740 -0.1189
70239W        W13152   2.920   8.149   1.718 -0.0098  0.0780 -0.1355
70240W        W13153  10.039  20.262   4.760 -0.0279 -0.1236  0.0507
70241W        W13154   6.899  11.849   8.843 -0.1051  0.0519 -0.0162
70242W        W13155  28.693  19.791   5.339 -0.1189  0.2625  0.2569
70243W        W13156   5.215   3.803  28.447  0.1176  0.0778  0.0846
70244W        W13157  15.045  12.240  27.961  0.1851  0.2702  0.0403
70245W        W13158  26.933   5.918   4.308  0.2844  0.2543  0.1347
70246W        W13159  13.074  11.383  28.272 -0.0365  0.2327 -0.3571
70247W        W13160   1.530   2.847   9.010  0.0358 -0.2709 -0.0353
70248W        W13161  32.136  13.201   5.560  0.0078 -0.0780 -0.1864
70249W        W13162   4.500  10.515   6.425  0.2670 -0.1419  0.1457
70250W        W13163  10.169  12.018   4.032  0.1854  0.0961  0.2240
70251W        W13164   3.621   4.868  10.399 -0.0397  0.2623 -0.1213
70252W        W13165   8.125  11.028  27.151  0.3908  0.0121 -0.1959
70253W        W13166  11.589  22.287   3.227 -0.0468 -0.0263 -0.1655
70254W        W13167   9.357  14.464   9.040 -0.3897 -0.1460  0.1357
70255W        W13168  34.038   1.506   9.896 -0.0462  0.0069 -0.0288
70256W        W13169   1.605  14.561  27.749  0.1691  0.0533  0.1088
70257W        W13170  12.891  11.619   7.624  0.0794  0.3187 -0.0931
70258W        W13171   8.817  32.542   7.701  0.2276  0.0601 -0.0800
70259W        W13172  25.391   8.075   1.562  0.1903  0.1203  0.0282
70260W        W13173   0.782  15.068   8.340 -0.0724 -0.3364 -0.1455
70261W        W13174   0.800   5.953   4.603 -0.1034  0.0572 -0.1687
70262W        W13175   2.881   2.164  11.733 -0.2564  0.0426  0.2282
70263W        W13176  13.387   8.588   8.791  0.0163  0.2870  0.1480
70264W        W13177   0.599  24.564   6.867 -0.1528 -0.0105  0.1477
70265W        W13178  34.003  15.219  15.442 -0.0564  0.0711 -0.0392
70266W        W13179  11.603   7.253   6.981  0.2327  0.0546  0.0453
70267W        W13180  13.485  17.915   3.425 -0.2983 -0.2897 -0.2073
70268W        W13181  17.786   5.965   9.483 -0.2462  0.0462  0.0847
70269W        W13182   9.736   6.650   8.324 -0.1152 -0.1997 -0.2103
70270W        W13183   8.089  25.494   9.541 -0.0817 -0.0716 -0.0458
70271W        W13184   7.877  11.493   3.711 -0.0597  0.1467 -0.0285
70272W        W13185   6.600  12.901   5.065  0.0110 -0.1177 -0.0623
70273W        W13186   1.775   2.761  10.030  0.3598  0.2240 -0.1402
70274W        W13187   0.650  18.720   8.807 -0.2856 -0.0686 -0.1765
70275W        W13188   6.338  19.895   5.443 -0.0543 -0.1607 -0.3163
70276W        W13189   8.078  14.866   7.152  0.2159 -0.1736 -0.0752
70277W        W13190   6.219   6.523  11.625 -0.0929  0.2201  0.0916
70278W        W13191  34.070  14.819  17.592  0.2912  0.0293 -0.1221
70279W        W13192   5.743   6.927   3.041  0.1586  0.0425  0.0890
70280W        W13193   1.649   4.886  11.328 -0.0809  0.0176 -0.0801
70281W        W13194   0.599   4.822  12.295  0.2567 -0.0039 -0.0320
70282W        W13195   8.503   1.994  11.124 -0.2384 -0.1972  0.0203
70283W        W13196   8.641  24.207   0.385  0.0318 -0.0208 -0.1455
70284W        W13197   2.451   5.457   4.997 -0.0105 -0.1320 -0.0638
70285W        W13198  30.867   2.921   4.351 -0.0181 -0.0290 -0.0469
70286W        W13199   3.962  21.324  29.499  0.2264 -0.0181 -0.2086
70287W        W13200   7.177   5.067  10.704 -0.2082 -0.0733  0.0013
70288W        W13201   6.024   7.057   9.741  0.1237 -0.1346  0.0818
70289W        W13202   7.093   4.133  11.285  0.1173 -0.2411  0.0195
70290W        W13203   7.891  11.213   5.167  0.0466  0.0861 -0.0022
70291W        W13204   1.824  17.034   6.654 -0.2256  0.1790 -0.3069
70292W        W13205  18.793   8.247   6.335  0.0801  0.3145  0.0967
70293W        W13206  13.366  20.139   8.344 -0.0237  0.1989  0.0843
70294W        W13207   6.818  13.895  26.954 -0.0316 -0.1330  0.0428
70295W        W13208  31.611  18.078   1.207  0.2792 -0.1361 -0.2131
70296W        W13209  14.178  16.810   7.144  0.1430 -0.1902  0.0385
70297W        W13210   3.393   9.426   7.147  0.4051  0.1404 -0.0597
70298W        W13211   0.765   7.971   8.519 -0.1554  0.2587  0.0031
70299W        W13212   1.411  16.717   9.779 -0.1111 -0.1634  0.1173
70300W        W13213   2.333  14.272  10.211 -0.0316 -0.0742 -0.0866
70301W        W13214   2.982  10.310   7.767 -0.1553 -0.0162  0.0087
70302W        W13215   9.653   6.918   5.652 -0.3976  0.0669  0.1721
70303W        W13216   8.469   8.903  11.444 -0.1709 -0.3820  0.0917
70304W        W13217   4.144   7.216   4.484  0.0342  0.0617  0.0387
70305W        W13218  17.157  19.792   8.203 -0.0266  0.2205 -0.2946
70306W        W13219   3.828  14.738   6.788 -0.1675  0.2974  0.3974
70307W        W13220  11.718  21.195   6.449  0.0423 -0.2297 -0.1812
70308W        W13221   0.363  23.039   9.253 -0.1097  0.0864 -0.0760
70309W        W13222   9.923  21.749   4.048  0.0598  0.1083 -0.0550
70310W        W13223  11.011  10.436   3.725 -0.1259  0.1028 -0.0590
70311W        W13224  33.152  10.073  23.995 -0.0758  0.0328  0.2805
70312W        W13225   8.102   6.014  11.245  0.0800 -0.2914  0.1852
70313W        W13226  10.410   8.849   9.583 -0.1141  0.1996 -0.0890
70314W        W13227   0.029  11.699   5.628 -0.1874 -0.2488 -0.0403
70315W        W13228  17.348  23.176   2.922 -0.2282 -0.0621  0.0352
70316W        W13229   3.139  16.098   1.436 -0.3541 -0.0315 -0.1299
70317W        W13230  33.118   7.751  10.749  0.0020 -0.2026  0.3944
70318W        W13231   8.272  11.742  10.949 -0.1504 -0.0442  0.2472
70319W        W13232  12.735  22.373   8.868  0.0826  0.1773 -0.1350
70320W        W13233   5.703  14.290   7.367 -0.0669  0.2803  0.1938
70321W        W13234   4.843   9.915  29.471  0.4042  0.0159  0.1498
70322W        W13235  10.158   9.816   4.656  0.0294 -0.0038  0.0904
70323W        W13236   7.253   5.858   7.238 -0.3349  0.0486  0.0871
70324W        W13237  18.156  13.261   4.903  0.1438  0.1575 -0.2506
70325W        W13238  32.928  24.991   1.741  0.1145  0.2286 -0.1525
70326W        W13239   9.987   7.878   6.158  0.1821  0.4276 -0.1608
70327W        W13240   1.356   8.268   2.131  0.2690 -0.2147 -0.1416
70328W        W13241   1.184  18.595   6.061 -0.2315 -0.1135  0.0552
70329W        W13242  33.008   3.811   8.063 -0.1396 -0.1763 -0.0641
70330W        W13243  29.991   5.281   5.009  0.0588 -0.0843  0.1019
70331W        W13244   9.425  12.126   8.541 -0.1415 -0.0973  0.0284
70332W        W13245   2.310  10.702   6.847  0.3415 -0.1355 -0.0450
70333W        W13246  11.209  12.176   1.215 -0.0322 -0.0957 -0.1085
70334W        W13247  25.335  14.329   2.062  0.2078  0.0821 -0.3449
70335W        W13248   5.401   0.336  10.239 -0.1133 -0.1059  0.3047
70336W        W13249   6.984  17.002   4.636  0.1163  0.1143 -0.0215
70337W        W13250   6.761  11.746   8.338 -0.2481  0.0088  0.1435
70338W        W13251   3.660  31.811   7.450 -0.1153  0.0976 -0.1532
70339W        W13252  11.017   7.711   5.127  0.1861 -0.3782 -0.0319
70340W        W13253   4.099   8.172  29.689 -0.0082  0.1945 -0.2697
70341W        W13254   0.306  16.908   4.011 -0.3162 -0.4095 -0.1201
70342W        W13255  23.027   7.516   7.538 -0.0734  0.4642  0.2869
70343W        W13256  26.183  10.598  28.771  0.0985 -0.3065  0.5200
70344W        W13257   0.618   8.761  10.634  0.1923  0.1636 -0.2171
70345W        W13258  30.338   8.875   4.804 -0.1022 -0.0967  0.4316
70346W        W13259   1.582  12.082  24.281  0.1096 -0.2239 -0.1472
70347W        W13260   1.084   5.831   9.289 -0.0341 -0.0663  0.1697
70348W        W13261  33.500   3.710   8.391 -0.1353  0.3528  0.2329
70349W        W13262   5.454  13.569   9.175  0.3716  0.2627  0.0798
70350W        W13263  13.070  18.724   6.502 -0.1449  0.0737 -0.1578
70351W        W13264   2.376   7.506   6.006  0.3174 -0.0098 -0.1146
70352W        W13265   2.135  10.696   7.743 -0.1284  0.2471 -0.0509
70353W        W13266   2.539  19.624   7.915  0.2756  0.0513 -0.2481
70354W        W13267  32.717  19.970   7.625 -0.0179  0.0008 -0.2410
70355W        W13268  14.681  12.978   2.489  0.4132  0.1164 -0.2024
70356W        W13269  29.320   8.867   9.162 -0.1759 -0.1501  0.0498
70357W        W13270   4.933  12.164  26.669 -0.3409  0.0378 -0.1365
70358W        W13271   8.024  33.510   9.235  0.1552  0.0222 -0.0298
70359W        W13272   0.705   3.076  10.732 -0.0173  0.1454 -0.0718
70360W        W13273  30.968   8.262  11.532  0.3889 -0.1757  0.0364
70361W        W13274   3.332   5.657   1.637 -0.0582 -0.0465 -0.1317
70362W        W13275   7.753   4.087   9.818  0.0853  0.0455  0.2439
70363W        W13276  10.109  11.654   7.502 -0.0354 -0.2264 -0.1789
70364W        W13277  12.935  12.107   0.235 -0.2575 -0.1052  0.5302
70365W        W13278   9.282   0.821   9.218 -0.3446 -0.1392 -0.1181
70366W        W13279   7.149  33.490  10.870  0.3270  0.2301  0.1767
70367W        W13280   5.129  17.808   1.892 -0.2468 -0.0391 -0.1458
70368W        W13281   8.773   7.159  10.948  0.0952 -0.0148 -0.3953
70369W        W13282   3.270  12.299   5.674  0.1164  0.1864 -0.1306
70370W        W13283  13.871   3.045   4.613  0.3452  0.0909 -0.1457
70371W        W13284  34.401  14.449   1.750  0.1103  0.1667  0.1354
70372W        W13285   8.137  13.430   5.634 -0.1879  0.2472  0.0421
70373W        W13286  13.229   2.899  12.077  0.1459 -0.1986 -0.1117
70374W        W13287   0.251  12.535   0.502 -0.2461  0.1953  0.0374
70375W        W13288   1.494  18.017   9.131  0.4134  0.1962 -0.0377
70376W        W13289  14.850   9.640   3.094  0.2933  0.4763 -0.1388
70377W        W13290   2.196  16.403   7.109 -0.0033 -0.1305  0.0254
70378W        W13291   4.396   5.570  13.353 -0.2898  0.3700 -0.1606
70379W        W13292   2.671   8.444   7.123  0.2170 -0.0097 -0.0971
70380W        W13293   4.866   8.533  10.946  0.0179  0.4167  0.2663
70381W        W13294   7.448   3.942  13.966  0.2891  0.1179 -0.0288
70382W        W13295   6.597  12.624  10.757  0.0442  0.1370 -0.1541
70383W        W13296  31.854  14.138  26.064 -0.0243  0.3607  0.0081
70384W        W13297   2.715   5.058  11.807 -0.0375  0.5226  0.3084
70385W        W13298   5.050  15.400   5.975 -0.1324 -0.0115  0.2675
70386W        W13299   5.724  22.391   4.860 -0.1708  0.2110 -0.1606
70387W        W13300  10.253  11.074   8.442 -0.1339 -0.5473  0.1885
70388W        W13301   0.545   1.586  10.976  0.0697 -0.2691  0.3877
70389W        W13302  33.886  12.570   9.751  0.1918 -0.0314 -0.2449
70390W        W13303   1.718   7.014   2.458 -0.2616 -0.1290  0.1743
70391W        W13304   4.998  18.018   5.277 -0.0600  0.0905 -0.0788
70392W        W13305   2.822  24.076   6.941  0.0609  0.2452 -0.2969
70393W        W13306   7.738  16.411   3.132  0.1332 -0.1397 -0.2426
70394W        W13307  33.834  15.828  22.151 -0.1786  0.3228  0.0390
70395W        W13308   3.973   8.139  27.943 -0.0662 -0.1963  0.1194
70396W        W13309  29.041  15.929   5.519  0.3250 -0.3250  0.0628
70397W        W13310   2.443  22.988   7.686 -0.5499 -0.1580 -0.3130
70398W        W13311  25.425  13.315   5.479 -0.3555  0.1415 -0.1383
70399W        W13312   8.845  13.263   9.068 -0.0873 -0.1121  0.0407
70400W        W13313  16.480  17.959   1.960 -0.2353  0.6089  0.3313
70401W        W13314   6.038  18.215   3.435  0.2225  0.0481  0.1456
70402W        W13315   4.888  14.309   8.622 -0.1752 -0.0446 -0.3212
70403W        W13316   7.040  16.606   5.389  0.0141 -0.1147  0.0496
70404W        W13317  32.995  19.205  29.469 -0.3960  0.2715  0.3411
70405W        W13318   1.088  15.939   6.571 -0.1257  0.2364  0.3078
70406W        W13319  30.824  15.606   9.357 -0.0834  0.1230 -0.0624
70407W        W13320  10.570  30.265  11.867 -0.0272 -0.0696 -0.0174
70408W        W13321  10.418   5.045   8.594  0.2150 -0.1094 -0.2086
70409W        W13322  30.035   9.066   3.140  0.2771 -0.2778  0.0219
70410W        W13323  10.403  11.265   7.604  0.1357  0.0203 -0.0450
70411W        W13324   1.415   7.588  10.272 -0.1158 -0.0961 -0.1715
70412W        W13325   2.742  15.311  26.095 -0.0296  0.4273 -0.2210
70413W        W13326   0.034  10.853  29.340 -0.0323  0.0933 -0.3737
70414W        W13327   7.004  11.419   4.644 -0.1277 -0.0046  0.1010
70415W        W13328   9.494  13.251  27.840 -0.0733 -0.2690 -0.1475
70416W        W13329   4.185  19.558   5.835 -0.0611  0.0070  0.0135
70417W        W13330  26.870  10.837   3.156 -0.2031 -0.3163 -0.0693
70418W        W13331  32.296  12.395   9.607  0.1912  0.0579 -0.0122
70419W        W13332   1.857   4.353   3.193 -0.0421 -0.2515 -0.0832
70420W        W13333   5.343   0.614  29.164  0.1260 -0.2830 -0.1807
70421W        W13334  14.077  18.128   0.592  0.1746  0.2996 -0.2164
70422W        W13335  11.700   7.592  10.282 -0.1782 -0.3462  0.0503
70423W        W13336  30.737  18.952   8.914 -0.2411  0.0422 -0.2198
70424W        W13337  10.318  19.862   6.274 -0.1203  0.2110 -0.0468
70425W        W13338   6.610  30.213   7.205 -0.0226 -0.2049 -0.0487
70426W        W13339   3.150   2.387   9.000 -0.1207 -0.2325 -0.1656
70427W        W13340   2.928   0.237   5.267  0.0740  0.0921  0.0152
70428W        W13341  18.604  14.652   8.178 -0.0289  0.0414 -0.0682
70429W        W13342   7.429  10.626  28.839 -0.0359  0.0625  0.1498
70430W        W13343   6.197  15.067   8.520  0.2117 -0.0992 -0.0295
70431W        W13344   3.352   9.281  12.490 -0.0073 -0.1581 -0.1049
70432W        W13345  30.498   0.676  29.045  0.1630 -0.0976  0.1357
70433W        W13346  34.069   9.359   6.374 -0.0432  0.1566  0.1109
70434W        W13347   8.108  14.088   2.607  0.1954  0.2981  0.1600
70435W        W13348  33.970  19.824   3.335  0.1676 -0.2594 -0.0347
70436W        W13349  33.356   9.296   8.063 -0.0956  0.0917  0.3572
70437W        W13350  31.947  11.637   7.099  0.1106 -0.1959 -0.1788
70438W        W13351   1.905   8.928   0.302 -0.4083  0.0889  0.0797
70439W        W13352  33.074  32.404   9.987  0.0781  0.1323  0.0795
70440W        W13353  26.641   3.888   5.699  0.1650 -0.1765  0.1373
70441W        W13354   2.034  15.146   4.838  0.0667  0.0041  0.0515
70442W        W13355  30.049  14.226   7.177  0.1153  0.3999  0.0008
70443W        W13356   6.768  11.375   2.846  0.2890  0.1363 -0.2698
70444W        W13357  11.831  12.943   4.056 -0.0614  0.7295  0.0500
70445W        W13358   7.030  24.684   3.150  0.0884  0.0108  0.1482
70446W        W13359  10.407  16.774   6.969 -0.1963  0.1517 -0.1268
70447W        W13360   7.563  12.314   9.911 -0.2398  0.0554 -0.0854
70448W        W13361   8.381   9.796   8.416 -0.0593 -0.0878  0.3463
70449W        W13362  14.310  12.229   4.043 -0.2621  0.2408  0.0172
70450W        W13363   9.622   6.416  11.806 -0.3682 -0.2118  0.0766
70451W        W13364   1.632  22.308   6.995  0.0985  0.4288  0.2980
70452W        W13365   6.142   5.534  10.031  0.1777  0.0102  0.0017
70453W        W13366   1.582   2.527   1.884  0.1959 -0.2373 -0.2295
70454W        W13367  10.801  10.573   9.575 -0.2783 -0.2268  0.2677
70455W        W13368  24.397  12.814  25.869 -0.0070 -0.3597 -0.0657
70456W        W13369  29.003   7.887   2.782 -0.0807 -0.1291 -0.3250
70457W        W13370   4.349  16.082  10.210 -0.1416  0.0335 -0.0457
70458W        W13371  13.173  19.587   5.431 -0.0117 -0.1656  0.0957
70459W        W13372  12.313  10.459   0.507  0.2031 -0.1300  0.2597
70460W        W13373   3.233   4.474   5.997  0.1862  0.1447  0.2613
70461W        W13374   4.310  10.967   3.627 -0.5867 -0.1632 -0.0010
70462W        W13375  12.961  19.583   8.324 -0.0307 -0.1408 -0.2100
70463W        W13376   1.437   2.544   4.934  0.4309 -0.1184 -0.0987
70464W        W13377   1.555  11.490  10.510  0.0089  0.0027 -0.3481
70465W        W13378  27.450  10.190   7.028  0.1723 -0.0656  0.2935
70466W        W13379   8.155   8.741  10.512 -0.0059 -0.0161 -0.0091
70467W        W13380   2.069  21.760   7.790 -0.1075  0.2297 -0.1962
70468W        W13381   8.447   6.262   6.345  0.2085  0.3489  0.2232
70469W        W13382   1.364   7.750   9.370 -0.0832  0.0053 -0.1794
70470W        W13383   4.688   6.407   6.329  0.1110 -0.0168 -0.1052
70471W        W13384   6.586  10.854   2.777 -0.0856 -0.1688 -0.0121
70472W        W13385   3.718  17.103   5.899 -0.2121 -0.0494 -0.1533
70473W        W13386   2.494  12.676   6.962 -0.1537  0.1827 -0.3360
70474W        W13387   2.351   0.555  11.321  0.2290  0.1280  0.1139
70475W        W13388   8.967  14.071   6.480 -0.2998  0.2995 -0.1337
70476W        W13389   9.073  20.842  28.788 -0.1222 -0.1347 -0.2735
70477W        W13390  32.491   2.687  25.165 -0.1571  0.0710  0.3001
70478W        W13391  14.536   5.207  26.414 -0.0319  0.1473 -0.1255
70479W        W13392   5.415  16.056   7.381  0.1201 -0.2020  0.1163
70480W        W13393  28.347  11.234  24.227  0.1472  0.0501  0.3186
70481W        W13394  27.121  10.859   7.065  0.0439  0.2222 -0.0603
70482W        W13395  10.962  14.312   1.364  0.0668  0.6192  0.0680
70483W        W13396   8.593  14.388   6.445  0.4243 -0.0526  0.0364
70484W        W13397   0.471  33.210   4.516  0.1531  0.1076  0.0206
70485W        W13398   1.034  20.305   9.627  0.0637  0.2493  0.0161
70486W        W13399  27.657  13.831  29.734 -0.0188 -0.0413  0.2011
70487W        W13400   3.363   9.747   9.371 -0.0614  0.3146 -0.0197
70488W        W13401   2.431   8.584   8.459  0.0066  0.1334  0.1960
70489W        W13402  31.918  13.811   9.111  0.2880  0.0544 -0.1844
70490W        W13403   7.469  10.778   7.869  0.1223 -0.0657  0.2439
70491W        W13404   5.595  11.858   9.407  0.1004 -0.2492  0.1657
70492W        W13405   6.150  13.261  10.656  0.0971 -0.1170  0.1962
70493W        W13406   5.594  10.784   8.505  0.0004 -0.0751 -0.1147
70494W        W13407   3.874   1.569  29.688  0.2606 -0.0465 -0.2487
70495W        W13408   8.288   7.415  10.855  0.0365  0.2732  0.0412
70496W        W13409  17.472  12.507   7.756  0.2151  0.3036  0.1175
70497W        W13410  29.395   1.066  28.375  0.2171  0.3026 -0.0610
70498W        W13411   6.605  13.457   2.916  0.2236 -0.1959 -0.0318
70499W        W13412  10.363  16.758   2.474  0.2955 -0.1988 -0.1379
70500W        W13413  16.024  12.398   6.800  0.1781 -0.1460 -0.3632
70501W        W13414  28.076   3.573   5.341  0.1892  0.2366 -0.1284
70502W        W13415   7.947  18.425   4.433 -0.1885  0.0479 -0.1888
70503W        W13416   8.853  19.431   8.272 -0.0684  0.1451  0.1877
70504W        W13417   2.849   1.623  11.586  0.0016 -0.0744  0.0793
70505W        W13418  33.430  18.975   9.868  0.1135  0.0438 -0.2010
70506W        W13419   1.049   6.176   7.414 -0.2430 -0.1005  0.0359
70507W        W13420  29.297   6.715  29.299 -0.1013 -0.1478  0.1729
70508W        W13421   8.827  11.791   5.066  0.1338  0.1750  0.0250
70509W        W13422   9.242  15.154   8.434 -0.4239  0.3051 -0.0608
70510W        W13423  10.267   7.613  12.057  0.1587 -0.1385  0.1021
70511W        W13424  10.382  15.246   9.557  0.0581  0.2666 -0.1149
70512W        W13425   5.843   5.194  12.929  0.1248  0.0606 -0.4002
70513W        W13426   5.514   1.865   4.025  0.2109 -0.2496 -0.0146
70514W        W13427  18.413  20.648   3.911 -0.3105  0.2819 -0.1133
70515W        W13428   4.330  11.265  11.343 -0.0099  0.1786  0.2491
70516W        W13429  29.706   3.145   9.137 -0.1108  0.1743  0.2026
70517W        W13430   1.768  24.430  22.688 -0.2670  0.2282 -0.0549
70518W        W13431  30.953   6.766   4.556 -0.0048 -0.0336  0.0504
70519W        W13432  31.471  17.363   2.742 -0.0437  0.0649  0.3285
70520W        W13433   4.746  16.423   8.979 -0.0525 -0.0995 -0.1488
70521W        W13434   9.689   8.734   1.114 -0.2946  0.0668  0.2038
70522W        W13435   2.993  19.857   8.878  0.2212  0.1100  0.0808
70523W        W13436   0.409   3.116  12.117 -0.0872  0.0652 -0.1099
70524W        W13437   5.395  12.234   3.059 -0.0832  0.4715 -0.0628
70525W        W13438  30.532  12.261   5.662  0.1012 -0.0541 -0.1580
70526W        W13439  15.256  21.031   1.511  0.1274 -0.1678 -0.3005
70527W        W13440  11.740  23.005   7.861  0.0364  0.1710 -0.1560
70528W        W13441   3.451  23.440   9.023  0.2251  0.0745  0.2354
70529W        W13442   3.978   5.309   8.808 -0.2871  0.2756  0.0814
70530W        W13443  23.946  15.095   2.740  0.0272 -0.0325 -0.2598
70531W        W13444   5.425  10.519   2.802 -0.1652  0.1044  0.1290
70532W        W13445   1.130  14.789  29.771 -0.2930 -0.0131 -0.0320
70533W        W13446  12.909  11.591   3.522 -0.0734  0.1095  0.0390
70534W        W13447   9.595  20.506   7.303 -0.1289  0.1164  0.0044
70535W        W13448  31.707  13.554   6.147  0.0325  0.0216  0.1732
70536W        W13449   7.417   9.833   5.787  0.1522 -0.1254 -0.0167
70537W        W13450   4.294   2.506  12.779 -0.2708 -0.0757  0.1201
70538W        W13451   6.439  30.832  10.791 -0.1723  0.0776  0.0637
70539W        W13452  30.583  11.662   8.256  0.1476  0.1156 -0.1163
70540W        W13453  33.754  14.529   8.129 -0.0670 -0.0559 -0.0122
70541W        W13454   1.505  15.429   3.977 -0.2001  0.0573  0.0434
70542W        W13455   6.295   6.644   4.548 -0.0697  0.2050 -0.0825
70543W        W13456  30.830  15.869   7.085  0.1111  0.0159 -0.2064
70544W        W13457  33.802  20.511   8.846  0.4067  0.0509 -0.2205
70545W        W13458  18.639  15.010   7.040 -0.0422 -0.0164 -0.3267
70546W        W13459   4.698   8.594   8.137  0.1252  0.1133 -0.1971
70547W        W13460  12.714  17.420   6.921 -0.1163  0.0277  0.0742
70548W        W13461   5.023  17.341   7.290  0.0447 -0.1870 -0.0480
70549W        W13462  31.779   1.629   0.284 -0.0570 -0.1212  0.3252
70550W        W13463  11.441  14.417  28.971  0.1865  0.0207  0.2269
70551W        W13464   2.107   6.269  26.064  0.0613 -0.3471  0.0656
70552W        W13465   3.748  14.208  29.177  0.0939 -0.0291 -0.1869
70553W        W13466  32.467  12.697   9.267  0.1859 -0.5473 -0.2429
70554W        W13467   5.766   7.445   6.793  0.3322  0.2464 -0.0552
70555W        W13468  12.355   9.092   9.864 -0.0020  0.2082  0.0827
70556W        W13469   5.285   5.555   8.426  0.0279 -0.2420  0.2707
70557W        W13470  25.594  10.482   2.702 -0.1258 -0.1237  0.0759
70558W        W13471   8.971  16.576  21.613 -0.0525 -0.3982  0.3706
70559W        W13472  34.162  11.732  26.059 -0.1152 -0.0307  0.1628
70560W        W13473   2.946  24.463  25.454 -0.1608 -0.3982 -0.0325
70561W        W13474   4.050  10.107   4.704 -0.1656 -0.2836  0.1936
70562W        W13475   7.488  13.731  28.905  0.1222  0.0940  0.1377
70563W        W13476  26.447   4.323   7.758  0.0660 -0.1320  0.0911
70564W        W13477  25.083  29.928  21.664 -0.0833 -0.1290  0.1187
70565W        W13478   0.452  15.300   5.412  0.0906  0.1224  0.0051
70566W        W13479  32.729  15.120  27.965 -0.0101  0.0989 -0.0535
70567W        W13480   7.874  11.582   4.739 -0.0180  0.2386  0.2231
70568W        W13481   6.170  19.472   7.343  0.2187  0.0138 -0.1116
70569W        W13482   9.957  20.128  24.665 -0.2735 -0.4412 -0.1894
70570W        W13483   9.753   9.331  27.477  0.0820  0.3468  0.0561
70571W        W13484   8.493   5.851   8.893  0.0578  0.0415 -0.0898
70572W        W13485  33.757  17.699   0.769 -0.0725 -0.2743  0.2274
70573W        W13486   5.639   5.452   6.272  0.1413  0.1356 -0.0276
70574W        W13487  16.522  34.465   0.112 -0.0633 -0.4243  0.0694
70575W        W13488   9.714   6.891   7.320  0.2707 -0.0175 -0.1244
70576W        W13489  14.537  19.600  26.484 -0.2423  0.3689  0.1180
70577W        W13490   0.088  17.576   2.419  0.1822 -0.1398 -0.2950
70578W        W13491   0.576  19.571  27.387 -0.0634  0.0793 -0.1285
70579W        W13492   7.883  11.935  10.669 -0.1654 -0.1991 -0.2931
70580W        W13493   0.913  20.770   1.526  0.1732 -0.0384  0.2793
70581W        W13494  13.741  18.756   1.062 -0.0235 -0.0664  0.3459
70582W        W13495  12.343   9.305   7.940 -0.0272 -0.0435 -0.3250
70583W        W13496  31.982   5.072  26.795  0.0705  0.0466 -0.0485
70584W        W13497   8.553  17.241   5.604 -0.1317 -0.3540  0.0177
70585W        W13498  31.183   8.533  10.562  0.3197 -0.2642  0.0637
70586W        W13499   4.296   9.682  29.570 -0.0131  0.4825 -0.0042
70587W        W13500  33.991   4.965   7.962 -0.3015  0.3844 -0.1662
70588W        W13501  32.139  24.242   2.122 -0.2058 -0.1203 -0.0124
70589W        W13502   1.532  27.937   7.708 -0.3548  0.3269  0.3056
70590W        W13503  12.777  11.607   5.179  0.2853  0.0074  0.3698
70591W        W13504   3.735   4.440  24.881 -0.1621 -0.1047 -0.1011
70592W        W13505   8.827  22.644  24.711 -0.2697 -0.3099 -0.2818
70593W        W13506  29.045  16.702  24.169 -0.1754 -0.1153 -0.3650
70594W        W13507  33.708  27.141   8.992 -0.0536 -0.1739 -0.1300
70595W        W13508   6.912   8.093   4.171  0.3084  0.0049  0.0089
70596W        W13509   3.284  21.787   0.909  0.1517  0.0148  0.2077
70597W        W13510   7.154  10.009   3.944 -0.0064  0.1403 -0.0237
70598W        W13511   5.322  25.716   9.022  0.2161 -0.2938 -0.1830
70599W        W13512   5.741  16.466  22.428  0.0065 -0.1541  0.3636
70600W        W13513  12.407  16.309   6.660  0.4227  0.1044 -0.0177
70601W        W13514  26.397  22.211   0.585 -0.1154 -0.0601 -0.0066
70602W        W13515  30.745  14.093  24.326  0.0506 -0.0808 -0.0854
70603W        W13516   2.821   7.435  23.872 -0.0302  0.0582 -0.2872
70604W        W13517  12.442   3.095  23.221 -0.1956  0.3495  0.0648
70605W        W13518   2.929  18.783   4.131  0.2131  0.0438  0.0398
70606W        W13519   4.943  15.061   9.118 -0.2246 -0.0619 -0.1200
70607W        W13520   6.729  21.479  28.549 -0.1277  0.0112 -0.0890
70608W        W13521   8.184  14.750  16.931  0.3898  0.3619  0.1303
70609W        W13522   7.536   3.790   7.655  0.0709 -0.0183 -0.0611
70610W        W13523  32.544  14.646   2.465  0.3614  0.0575 -0.5153
70611W        W13524  24.174  10.254   2.250 -0.1226  0.0971  0.1356
70612W        W13525  34.066  11.205   5.028 -0.1979 -0.4267  0.3084
70613W        W13526   1.642   9.197  24.581  0.1009 -0.0504 -0.4672
70614W        W13527  12.550  16.056   3.228 -0.0069 -0.0286 -0.1215
70615W        W13528   6.536  20.882  20.445  0.1169  0.0852  0.1577
70616W        W13529  15.726  21.545  22.312 -0.1475 -0.0124  0.0210
70617W        W13530  13.423  19.375  19.843  0.0709  0.1534  0.0860
70618W        W13531  27.492   9.368   1.439 -0.2743  0.1958  0.1237
70619W        W13532  27.202   8.598  27.750  0.2051  0.3958  0.1534
70620W        W13533   9.896  23.016   9.673 -0.3008 -0.0779  0.0143
70621W        W13534  11.520  27.596  25.504  0.1302  0.1476  0.3648
70622W        W13535  15.176  17.283  25.012 -0.4284 -0.1130  0.3126
70623W        W13536   4.188  25.287   8.471  0.2511  0.0828 -0.1283
70624W        W13537   0.749   7.553  22.018 -0.2347  0.0599 -0.1366
70625W        W13538  32.041   9.453   7.354 -0.3146 -0.0119  0.0885
70626W        W13539  13.098  23.639  28.380 -0.2333  0.1419  0.3592
70627W        W13540  29.073   3.018  23.001 -0.2253 -0.0452  0.0768
70628W        W13541   7.672  10.820   7.405  0.0223 -0.0320  0.1865
70629W        W13542   6.515  13.569   0.757  0.1118  0.0431  0.0886
70630W        W13543  13.129  12.841   5.816 -0.2283 -0.4115  0.2401
70631W        W13544   4.493  23.279  10.287 -0.3934 -0.0393 -0.1124
70632W        W13545   5.025   8.628   2.823  0.1888  0.0682 -0.0032
70633W        W13546   3.216  17.252   6.023 -0.0278  0.0582 -0.0960
70634W        W13547   7.870  17.394   0.692 -0.0274  0.0811  0.0623
70635W        W13548  28.086   9.689   3.066  0.2140 -0.2220 -0.0781
70636W        W13549   6.687   3.691   3.985 -0.0703  0.0669 -0.0824
70637W        W13550  33.907  16.564  26.414 -0.0203  0.3183  0.0072
70638W        W13551  32.970  23.157  28.593 -0.1071 -0.1354 -0.1320
70639W        W13552   1.925  21.352   6.410  0.2532 -0.3100  0.1497
70640W        W13553   1.250  20.403   4.353  0.2886 -0.1370 -0.3288
70641W        W13554   4.515   4.867   2.334  0.3820  0.1653 -0.5160
70642W        W13555  11.766  12.081   4.339 -0.1743 -0.2610 -0.1625
70643W        W13556   9.537   8.739   6.081 -0.1560 -0.1186  0.1591
70644W        W13557  13.206  16.827  19.620  0.0275  0.0330  0.0005
70645W        W13558  11.028   7.457  28.605  0.0389 -0.2686 -0.2265
70646W        W13559  14.877  19.982  19.895 -0.0680 -0.0389 -0.0217
70647W        W13560  11.960  12.575   4.366 -0.0087 -0.0330 -0.0496
70648W        W13561   4.748  10.196  25.421 -0.2047 -0.0351 -0.0903
70649W        W13562   1.007  21.206  27.760 -0.0354 -0.0715  0.1584
70650W        W13563   6.939   8.953   9.815 -0.1619 -0.0215 -0.0681
70651W        W13564   1.367  12.846   7.759 -0.1608 -0.0983  0.0834
70652W        W13565   7.937  21.179  29.102  0.0635  0.0842  0.0550
70653W        W13566   5.224  10.528   7.037 -0.3378 -0.2494  0.0213
70654W        W13567   0.769  13.510  21.126  0.1997 -0.1618  0.0260
70655W        W13568   1.470  11.322  22.631  0.1420  0.2346  0.2059
70656W        W13569  33.621  19.686  26.249 -0.0844 -0.2292 -0.1077
70657W        W13570   1.891  19.642   6.620 -0.0853  0.0848 -0.2055
70658W        W13571   4.011   7.622  24.301  0.0425  0.0349  0.0520
70659W        W13572   2.098  21.613   1.430 -0.0269  0.1257 -0.2552
70660W        W13573  21.246  19.877   6.703  0.0653 -0.0910  0.1303
70661W        W13574  13.512  33.417  29.593 -0.2071  0.1686 -0.1607
70662W        W13575  15.010   7.825  28.753  0.4925 -0.0085 -0.3257
70663W        W13576  10.915  13.601   0.039 -0.0258 -0.0463 -0.1664
70664W        W13577  15.576  16.987   5.646  0.0643 -0.0250 -0.4636
70665W        W13578  31.126  21.668  21.913  0.0995 -0.0450 -0.3512
70666W        W13579  11.337  26.729  28.411 -0.4052 -0.0656 -0.1892
70667W        W13580  13.402  27.992  23.758 -0.0212  0.0695  0.2203
70668W        W13581   6.629  22.613  26.517 -0.0874 -0.0593 -0.2502
70669W        W13582  28.288  17.386   8.521 -0.0260  0.1298  0.6315
70670W        W13583   5.626   6.293   0.856  0.0098  0.1691 -0.0519
70671W        W13584  13.359  15.937  26.526  0.0388 -0.2965  0.3427
70672W        W13585  34.322  16.374   0.896 -0.4738 -0.0843 -0.0267
70673W        W13586  32.841  13.383  27.270  0.2170 -0.1520 -0.2314
70674W        W13587   8.862  27.142   2.245  0.1560 -0.2551  0.0396
70675W        W13588   7.170  25.961  10.365 -0.2319  0.0760 -0.2736
70676W        W13589  13.465  28.448   5.332  0.3144  0.0990  0.2776
70677W        W13590   8.059  19.141   0.860  0.1545 -0.0474 -0.3181
70678W        W13591  33.652  22.231   0.451 -0.0113  0.1232  0.0487
70679W        W13592   3.658   0.100  21.830  0.1432 -0.0440 -0.1013
70680W        W13593   0.648  21.614  23.428  0.0630  0.0180  0.0832
70681W        W13594  15.150   5.712  26.001  0.0618  0.0037 -0.1096
70682W        W13595   0.564  18.629   2.420  0.2861 -0.0141 -0.2597
70683W        W13596  11.642  24.033  26.052 -0.0563 -0.1114  0.2519
70684W        W13597  15.943  14.490   4.885  0.3860  0.2799 -0.0661
70685W        W13598   1.615  29.309   5.562 -0.0942 -0.0898  0.0246
70686W        W13599   2.035  11.557  29.117  0.3122  0.1063 -0.3382
70687W        W13600   0.278  19.369   4.054  0.0365  0.1847  0.2013
70688W        W13601   0.725  17.234   2.962 -0.4382 -0.0920 -0.2491
70689W        W13602  11.098   9.294  28.547 -0.4222 -0.0746  0.0563
70690W        W13603  15.028  21.377   0.070  0.3936 -0.2376 -0.0354
70691W        W13604  34.439  24.550   3.132  0.1189 -0.0070 -0.1630
70692W        W13605   6.437  10.883   5.993 -0.1628 -0.2401  0.0335
70693W        W13606   4.937  19.234   6.706 -0.3013  0.1512  0.0201
70694W        W13607   1.149  19.038  21.012 -0.0297 -0.0701  0.2025
70695W        W13608   2.837  16.569   0.182  0.2307  0.0615 -0.1559
70696W        W13609   0.919  10.571   1.473  0.0017  0.0625 -0.3221
70697W        W13610   4.604  14.317   6.912  0.0972 -0.1273 -0.4472
70698W        W13611   2.467  14.723   0.172 -0.0361 -0.0135  0.0515
70699W        W13612  13.942  16.052   2.880 -0.0346  0.0688 -0.0329
70700W        W13613   0.304  32.376  25.980  0.1830  0.1947 -0.1422
70701W        W13614   6.521  14.285   9.562 -0.1072  0.1693  0.2559
70702W        W13615   0.927  22.453   5.703  0.1244 -0.0539 -0.0891
70703W        W13616  34.411   8.580   8.526 -0.0536  0.2074 -0.0157
70704W        W13617   3.807  14.161   7.005 -0.0571  0.1754 -0.3372
70705W        W13618  20.312  20.187   3.216  0.1802  0.0294  0.3207
70706W        W13619   0.740  18.294  27.487  0.4370 -0.0364  0.2050
70707W        W13620  16.270  17.650  14.519  0.1149 -0.2456  0.0579
70708W        W13621  13.938  20.498  26.105 -0.1858  0.0849  0.0409
70709W        W13622  32.804  12.291   2.537  0.0892 -0.2341 -0.0497
70710W        W13623   2.135  13.617   0.198  0.1917  0.1618  0.0156
70711W        W13624  10.199   4.819  25.037 -0.1727  0.0467 -0.2618
70712W        W13625  11.215   7.582   6.965 -0.6408 -0.0227  0.1998
70713W        W13626   8.606  13.255  17.556 -0.3402 -0.1684 -0.2854
70714W        W13627   8.560  20.945   8.125 -0.4294 -0.2200 -0.1840
70715W        W13628  33.451  17.968   8.907  0.3149  0.0925 -0.0279
70716W        W13629   4.782  12.879   8.962 -0.0656  0.1879 -0.1088
70717W        W13630   3.745   8.420   5.480  0.0326 -0.1635  0.2527
70718W        W13631  12.864   7.232   5.668  0.1558 -0.1452 -0.3060
70719W        W13632   0.028  11.273  22.555  0.1155  0.0221  0.3328
70720W        W13633   5.714  14.242   2.857  0.1659 -0.1010  0.5504
70721W        W13634  18.592  23.990   6.250 -0.0312  0.3916 -0.2874
70722W        W13635   4.996  19.384   5.151 -0.0140  0.4499 -0.2188
70723W        W13636   6.137  18.558   4.949  0.1522 -0.0650  0.1888
70724W        W13637   5.106  18.685   4.678  0.1175  0.0707  0.1245
70725W        W13638   7.168  13.634   2.633 -0.3873 -0.0528 -0.0966
70726W        W13639   7.996  20.290  22.160 -0.0331 -0.2965 -0.1372
70727W        W13640   1.153  20.567  26.686 -0.1370  0.6152 -0.0011
70728W        W13641  30.582  11.398   0.927 -0.0588 -0.0233 -0.1251
70729W        W13642   6.331   8.462  19.102  0.1468 -0.1639  0.0450
70730W        W13643  10.433  19.054   6.398  0.3513 -0.0487  0.2516
70731W        W13644  34.223  17.994  24.165  0.0605 -0.0677 -0.1824
70732W        W13645   7.680  19.067  24.213 -0.1586 -0.0709  0.0417
70733W        W13646  10.454  21.201   3.082  0.2055  0.2842  0.0634
70734W        W13647  14.770  18.289   4.210 -0.0933 -0.2076  0.2349
70735W        W13648  11.578   8.942  26.865  0.0441  0.0672 -0.0345
70736W        W13649  15.254  23.051   0.076  0.2931  0.1261 -0.0573
70737W        W13650  31.546  16.983   3.587 -0.1754  0.1539 -0.3076
70738W        W13651   9.929  13.796   6.779  0.1991 -0.0945 -0.1280
70739W        W13652   7.396   9.433  24.208  0.2058  0.1683  0.3059
70740W        W13653   1.151   4.139  27.759 -0.3125  0.0061 -0.2041
70741W        W13654  10.844  22.821   7.873 -0.0341 -0.2395 -0.1052
70742W        W13655   5.458  23.365   6.029 -0.0694  0.1201  0.0998
70743W        W13656   9.705  34.481   2.435  0.1852  0.2594  0.0209
70744W        W13657   9.619   2.215   8.613  0.1179 -0.3110  0.2763
70745W        W13658   8.934  13.998  10.745 -0.2749 -0.2608 -0.1393
70746W        W13659  32.560  22.311   4.637  0.0565 -0.1202 -0.1929
70747W        W13660   5.270  13.743  27.677 -0.0371  0.0018 -0.1710
70748W        W13661  12.870  16.354   5.883  0.2805 -0.0887 -0.0917
70749W        W13662   3.185  12.259   6.215  0.0522  0.0080 -0.2797
70750W        W13663   9.445  22.960   3.646  0.0169 -0.2200  0.0180
70751W        W13664   6.889  16.040   8.717  0.0055 -0.1416  0.0325
70752W        W13665   3.729   5.384  11.388  0.0115 -0.0646  0.0682
70753W        W13666  34.105   1.160   7.185  0.0487 -0.0720  0.0769
70754W        W13667  11.189  17.757  19.530  0.0884 -0.1834 -0.0790
70755W        W13668   1.702   0.135   4.458  0.2683  0.0134 -0.2772
70756W        W13669  29.319  26.816  25.730  0.1353 -0.3605 -0.1737
70757W        W13670  27.374  14.271  28.725  0.2715 -0.2467 -0.0623
70758W        W13671   3.462  30.143  15.496 -0.0713 -0.0158  0.3173
70759W        W13672  30.756  10.061   3.119  0.1389 -0.0187  0.1585
70760W        W13673  32.817  21.325  25.839 -0.3922 -0.0655  0.0465
70761W        W13674  22.534  23.150   3.362 -0.0675 -0.2435 -0.2536
70762W        W13675  33.743   4.386  11.964 -0.2197  0.3068  0.3337
70763W        W13676  15.639  17.561   2.083  0.0467  0.2812  0.0025
70764W        W13677   3.453  14.603   0.362 -0.0231  0.0302  0.0139
70765W        W13678  23.039   9.283  26.482 -0.0475  0.2658  0.5970
70766W        W13679   4.624   7.684   9.989  0.0358 -0.0916  0.3289
70767W        W13680  14.669  19.065   5.813  0.0985  0.0890  0.0506
70768W        W13681  31.521   2.786   6.650 -0.1154  0.0090 -0.0377
70769W        W13682  10.650  13.710  24.618  0.1229  0.0738  0.2498
70770W        W13683  32.897  18.832   4.792  0.1082  0.3067 -0.0577
70771W        W13684  10.778  14.801  22.868 -0.0299  0.2223 -0.1222
70772W        W13685   4.141  15.699   4.925 -0.0654  0.1102  0.1280
70773W        W13686  27.526  20.823   8.683 -0.2903 -0.0508  0.0739
70774W        W13687  10.877  22.398   9.831 -0.2393 -0.1692  0.3230
70775W        W13688  10.002  29.733  22.506 -0.0076 -0.4898  0.0828
70776W        W13689   8.987  25.972   2.985  0.4192 -0.1440  0.2991
70777W        W13690  11.833  28.859  10.908 -0.0916  0.1550  0.3270
70778W        W13691   6.283  11.684   2.923  0.0374 -0.2596 -0.1443
70779W        W13692  10.097   8.921   7.331  0.1020 -0.2262 -0.2946
70780W        W13693  10.239  21.723  22.271 -0.0383  0.2609  0.0986
70781W        W13694   2.237  34.097   8.613 -0.2339 -0.2623 -0.3396
70782W        W13695  12.824  14.508   4.692 -0.2158 -0.2025  0.0674
70783W        W13696  10.346  20.874  23.172  0.1137  0.2393  0.2710
70784W        W13697  34.407  24.920   9.330 -0.0815  0.0313 -0.0541
70785W        W13698   5.695   2.551   4.671 -0.1963  0.2051 -0.1244
70786W        W13699  10.251  18.257  29.719  0.1115  0.0542  0.2581
70787W        W13700   2.380  23.476   7.648 -0.1020 -0.3260  0.0787
70788W        W13701  18.597  17.590  24.109 -0.2055  0.0611 -0.3115
70789W        W13702   7.151  27.680   6.755  0.3073  0.2609  0.0072
70790W        W13703   8.937  17.005  28.494  0.0158 -0.2652  0.2244
70791W        W13704  31.001  16.751  28.041  0.3449  0.0412  0.0616
70792W        W13705  11.458  24.856  25.267 -0.2234  0.0485 -0.0838
70793W        W13706  26.262  13.052   0.560 -0.1347  0.1790  0.0462
70794W        W13707   4.273  15.754  25.165  0.2284 -0.0723  0.0836
70795W        W13708   7.892  17.152  24.559 -0.0564  0.0238  0.1196
70796W        W13709   8.168  11.150   1.822  0.1399 -0.2007  0.0401
70797W        W13710   5.898  18.657   3.764 -0.1067  0.0206  0.0989
70798W        W13711  34.290  10.151   1.703  0.1401 -0.0422 -0.1240
70799W        W13712  11.772  16.503  26.195 -0.1287  0.3897 -0.1535
70800W        W13713   7.378  21.320   0.940 -0.4460 -0.0797  0.0524
70801W        W13714  14.219  20.327   4.694  0.4720  0.3225 -0.0211
70802W        W13715  13.959  28.741   0.374 -0.1478 -0.1357 -0.0556
70803W        W13716  14.917  15.114   0.399  0.0999  0.0273  0.1999
70804W        W13717  11.119   8.272   3.489 -0.5049  0.0784 -0.3056
70805W        W13718   5.534  18.542   4.920 -0.1146 -0.0876 -0.1141
70806W        W13719  33.367  17.345   4.693  0.2019 -0.0895  0.0640
70807W        W13720  17.442  21.264   5.383  0.3043  0.1188 -0.2067
70808W        W13721  11.708  20.115   1.246  0.3786 -0.0303  0.2688
70809W        W13722  12.662   8.525  10.333  0.3029  0.3860 -0.1257
70810W        W13723  29.364  17.909   8.840  0.3097  0.0351 -0.0252
70811W        W13724   3.804  10.856   8.235  0.0686  0.0624  0.1531
70812W        W13725   9.276  12.411   4.419  0.1974 -0.1448  0.0517
70813W        W13726  18.021  29.232   5.754 -0.0064  0.0145  0.1242
70814W        W13727   4.568  20.233  27.015 -0.0254 -0.3513  0.0757
70815W        W13728   0.477  19.740   5.920  0.1549 -0.4147  0.4709
70816W        W13729  10.083  11.375   7.948 -0.0506  0.1041 -0.0376
70817W        W13730   8.273  15.349   7.456  0.1034 -0.0900  0.3243
70818W        W13731   7.302   9.670   9.962  0.1885  0.0800 -0.1683
70819W        W13732   8.319  14.093  29.278  0.1101 -0.1199  0.0530
70820W        W13733   7.337  18.832  29.428  0.0459 -0.2381  0.1858
70821W        W13734   0.628  20.676   7.513  0.2216 -0.0284 -0.0174
70822W        W13735   4.935  10.624  28.483  0.0758  0.0433 -0.1967
70823W        W13736   0.791  17.272   9.894 -0.1320 -0.1936  0.3470
70824W        W13737   3.804  13.175  24.265 -0.0175  0.1053 -0.2000
70825W        W13738  11.363   5.362   7.974 -0.0732 -0.1461  0.1792
70826W        W13739   8.694  14.493  25.490 -0.3473  0.2667 -0.0291
70827W        W13740  28.055  28.036   7.040  0.1994  0.1930  0.1330
70828W        W13741   0.258  11.666   3.667 -0.0533 -0.2711  0.0853
70829W        W13742  15.713  15.007  23.748  0.1399  0.0443  0.0552
70830W        W13743   9.511  26.190   7.860 -0.0301  0.0788  0.3249
70831W        W13744  11.441   9.050  11.513  0.0969 -0.0888  0.2764
70832W        W13745   9.098  16.610  18.997  0.4541  0.2480  0.2026
70833W        W13746   2.991   9.349   2.477 -0.0341 -0.0454  0.2170
70834W        W13747  33.095  22.774   1.052  0.2052 -0.0542  0.1129
70835W        W13748   8.768   7.847   2.912 -0.2498  0.0716  0.2324
70836W        W13749   3.726  13.272  19.822 -0.1663 -0.0654 -0.0643
70837W        W13750   6.519  22.924   4.577 -0.4238  0.4502  0.2548
70838W        W13751   1.380  16.814   6.851  0.0186  0.3714 -0.0711
70839W        W13752  19.633  15.848  25.653 -0.1491 -0.1584  0.0401
70840W        W13753  11.006   6.023  22.183  0.1457  0.2426  0.0138
70841W        W13754  12.241  31.053  23.137 -0.1676 -0.0441  0.0651
70842W        W13755   8.150  18.513   3.971 -0.2874 -0.0804 -0.0148
70843W        W13756   1.272  22.812   3.387 -0.0193 -0.2236  0.1589
70844W        W13757  33.882  19.955   1.382 -0.1491  0.2498 -0.0427
70845W        W13758  28.389  13.847   4.029  0.0437 -0.3534 -0.0395
70846W        W13759   0.367  25.174   5.303  0.1459 -0.0396 -0.1000
70847W        W13760  28.970  10.696   0.508 -0.0764  0.1934 -0.2586
70848W        W13761   9.791  20.456   2.784 -0.0724  0.1831  0.0221
70849W        W13762   7.185  27.154  28.335  0.2579  0.5901  0.1652
70850W        W13763  29.117  14.459   4.419 -0.0909 -0.3836  0.0833
70851W        W13764   3.662  14.026   5.686  0.2772 -0.0937 -0.1025
70852W        W13765   5.148   5.350  23.381  0.2364 -0.2946 -0.3148
70853W        W13766   8.836   1.393  25.464 -0.0670 -0.0874  0.3552
70854W        W13767   5.552   5.868   5.379  0.1219 -0.0174 -0.2753
70855W        W13768  12.354  13.455   6.131 -0.0081  0.2747 -0.1552
70856W        W13769   2.718  20.659   5.580 -0.2154  0.0195  0.4000
70857W        W13770   5.478  13.267  26.198  0.1888  0.2089 -0.2892
70858W        W13771   6.673  18.126  25.784  0.0701 -0.1123 -0.0445
70859W        W13772  31.001  15.119  28.011  0.0219 -0.2790  0.1274
70860W        W13773   1.842  30.081   2.896  0.2104 -0.2109  0.1697
70861W        W13774   3.094  12.166   0.657  0.0243 -0.1698 -0.2741
70862W        W13775   5.643  17.892  22.607 -0.0317  0.0809 -0.1473
70863W        W13776   6.718  16.798  25.174  0.0746  0.4088  0.1058
70864W        W13777   4.891  10.050   0.618  0.2410 -0.0547 -0.0458
70865W        W13778   5.412  14.295   6.016  0.0234  0.1553 -0.0611
70866W        W13779  13.576  14.379  21.721 -0.1065  0.5037 -0.1637
70867W        W13780  34.314  21.702  25.215  0.0599  0.3570 -0.4564
70868W        W13781   7.336  18.738   7.406 -0.1576  0.0702  0.0204
70869W        W13782   6.170   4.232   7.414 -0.0059  0.1755  0.0541
70870W        W13783   3.685  16.848   2.109  0.0856 -0.0038 -0.0549
70871W        W13784  32.005  11.912  28.122 -0.0959 -0.0313 -0.0323
70872W        W13785  27.976  18.088   8.842 -0.0124  0.3198  0.2269
70873W        W13786  11.218  12.919   3.404 -0.0287  0.0779 -0.0714
70874W        W13787   2.163  22.165   2.248 -0.1670  0.2965 -0.5273
70875W        W13788  20.167  24.833   4.842  0.1104 -0.1329  0.0701
70876W        W13789   8.585  12.867  26.492  0.0486  0.0513 -0.0621
70877W        W13790   8.119  10.571  26.616  0.4848  0.0899  0.2040
70878W        W13791   4.497   1.992   4.850 -0.1107 -0.3518  0.1929
70879W        W13792   5.875  16.901  24.790 -0.1903  0.0688  0.1385
70880W        W13793   2.263  21.893  29.733 -0.1518  0.0491  0.1291
70881W        W13794  32.004  11.268   3.633  0.1290 -0.0464  0.1106
70882W        W13795   8.284  25.308  29.355 -0.1379 -0.0421  0.3178
70883W        W13796  11.616  15.682  27.157  0.0017  0.1613 -0.0671
70884W        W13797   0.638  22.337   8.759 -0.0805 -0.0506 -0.2232
70885W        W13798   5.972  15.086  26.746 -0.0609 -0.0431 -0.0856
70886W        W13799  31.346  22.722  15.386  0.1704 -0.0823 -0.2506
70887W        W13800   2.567   9.000  25.729  0.0596 -0.2679  0.2362
70888W        W13801   0.147  18.949  20.651 -0.0694  0.1782 -0.0399
70889W        W13802   6.891  13.649  24.088 -0.1598 -0.2132  0.0045
70890W        W13803   9.421  24.539  18.715 -0.0251  0.0707 -0.0060
70891W        W13804   1.902  23.872  22.733 -0.1202 -0.2226  0.3096
70892W        W13805  11.110  21.634   2.120  0.1032 -0.2558  0.2289
70893W        W13806   1.820  26.738   3.147 -0.0124 -0.0063  0.1501
70894W        W13807   7.794   7.262   5.676 -0.0250 -0.1692  0.0063
70895W        W13808  31.807  15.221   0.340 -0.1250 -0.2225  0.1950
70896W        W13809   5.740  12.172  26.043  0.0621 -0.0841 -0.1059
70897W        W13810   8.649  12.037   7.590  0.0200 -0.2290 -0.0928
70898W        W13811  12.052  22.659   4.465 -0.0969  0.2006 -0.0999
70899W        W13812   6.616  20.689   2.598 -0.0338 -0.0753 -0.2138
70900W        W13813   9.986   6.017   7.586  0.1142  0.0292 -0.0356
70901W        W13814   6.553  24.913  28.924  0.3867  0.1683  0.1375
70902W        W13815  11.808  12.649  28.514 -0.1048 -0.0378  0.0124
70903W        W13816  14.691  18.088  26.157 -0.1122  0.1288  0.1698
70904W        W13817   7.216  13.390  24.509 -0.1731 -0.4120 -0.2234
70905W        W13818   8.785  13.676   1.617  0.1968 -0.1903  0.1137
70906W        W13819   2.056   6.928  12.111  0.0046 -0.1269 -0.3706
70907W        W13820  18.383  23.011  24.758 -0.0953 -0.2804 -0.0294
70908W        W13821   0.650  24.697  21.646 -0.3358  0.1178  0.0181
70909W        W13822  15.698  17.703  23.486 -0.0645 -0.2355 -0.0428
70910W        W13823   1.905   5.135   1.137  0.0134 -0.2840 -0.3960
70911W        W13824  27.438  12.415  28.304  0.2512  0.2608 -0.1108
70912W        W13825   1.688   6.998  27.864  0.0411  0.1206 -0.0632
70913W        W13826  34.357  12.350  28.599  0.0793 -0.1898  0.2323
70914W        W13827   8.149  25.096  26.382  0.3322  0.1429  0.1753
70915W        W13828  13.326  16.582  16.846 -0.1541  0.1434 -0.2499
70916W        W13829   5.805  17.574  29.695 -0.2998  0.1095 -0.2214
70917W        W13830  31.483  26.827  23.962  0.0888 -0.1346 -0.2269
70918W        W13831  26.419  17.073   2.001 -0.0293 -0.1835 -0.0355
70919W        W13832   4.183   8.683  12.073  0.2811 -0.2773 -0.0705
70920W        W13833  15.460  25.735   9.723  0.1967 -0.2315 -0.0296
70921W        W13834  32.294  17.218   8.949  0.1348  0.3169 -0.0178
70922W        W13835   6.462  26.150   7.289  0.0426  0.1667  0.2922
70923W        W13836  31.614  26.653   3.741 -0.3154  0.0669 -0.0562
70924W        W13837   6.419  11.420   6.094  0.0594  0.0307 -0.3302
70925W        W13838  30.482   6.441   4.026 -0.6339 -0.2376 -0.0469
70926W        W13839  33.600  16.883   2.926 -0.1536 -0.1867 -0.3751
70927W        W13840  30.440  15.117   7.054  0.0431  0.2050  0.1936
70928W        W13841   6.841  17.818   4.065 -0.0362  0.2047 -0.0241
70929W        W13842  31.446  20.186  29.754  0.1266 -0.0214 -0.1042
70930W        W13843  11.067  24.646   6.685 -0.4877  0.1604  0.0971
70931W        W13844   0.362  31.291  25.835 -0.2999 -0.1661 -0.1844
70932W        W13845   2.658  12.530  27.101  0.4252 -0.1220 -0.1402
70933W        W13846  28.795  20.455  29.721  0.1044  0.1389  0.0963
70934W        W13847  27.526  17.745  29.334  0.1836 -0.0924  0.0492
70935W        W13848  27.193  21.665   8.851 -0.0256 -0.0918  0.1199
70936W        W13849  20.020  15.508  27.719 -0.0080 -0.1109  0.2795
70937W        W13850   8.758  13.102   4.060 -0.1658 -0.1509 -0.0855
70938W        W13851   2.029  12.552  28.591  0.0009  0.3428  0.0218
70939W        W13852  10.779  15.117  24.572  0.0419  0.0082 -0.1498
70940W        W13853  34.321  13.946  25.965 -0.1340 -0.2769 -0.0348
70941W        W13854   9.219  11.156  26.229 -0.2078 -0.0840  0.2080
70942W        W13855  16.653  17.780  29.037  0.1680  0.0127 -0.0877
70943W        W13856   8.231  14.762   4.199  0.1536  0.0700  0.1132
70944W        W13857  10.257  19.773   4.846 -0.1777 -0.1359  0.0557
70945W        W13858   3.085   8.303   6.872 -0.0061 -0.0985  0.1075
70946W        W13859   5.644  27.162   7.277 -0.2863  0.0030  0.0461
70947W        W13860  10.099  25.243   5.895 -0.3032  0.0864 -0.0379
70948W        W13861  17.610  20.364   7.070 -0.2070  0.0226  0.4147
70949W        W13862   5.287  10.925   3.171  0.1348  0.0006 -0.2011
70950W        W13863   8.824   1.048  26.723 -0.1082 -0.0510  0.3105
70951W        W13864   7.845  20.693   1.288  0.1621  0.2929 -0.2344
70952W        W13865   7.276  23.026   0.105  0.1356  0.0747  0.0810
70953W        W13866   1.098  16.837   7.870  0.0728  0.3373  0.0193
70954W        W13867   0.428  16.407   4.056 -0.0835 -0.1532 -0.0698
70955W        W13868   3.857   7.836  12.139  0.2163 -0.2828 -0.0850
70956W        W13869   7.434  17.307   9.475  0.0214 -0.0657 -0.1004
70957W        W13870   7.419  15.669   4.460  0.0621  0.2544 -0.1086
70958W        W13871   2.229   9.435   7.492 -0.2539  0.0872  0.0811
70959W        W13872  13.938  19.280   8.122  0.2022 -0.2207 -0.2080
70960W        W13873  15.524  18.462  26.935  0.2896 -0.0130  0.1597
70961W        W13874   1.198  27.396  23.349  0.1880 -0.0560 -0.0196
70962W        W13875  11.969  15.741   1.056  0.3227  0.1013  0.0852
70963W        W13876  29.282  27.230   2.221 -0.2271 -0.1006 -0.0192
70964W        W13877  33.958   5.488   1.463  0.5168  0.0061 -0.2708
70965W        W13878  13.723  10.385   3.300  0.0244 -0.1064 -0.1921
70966W        W13879  10.696  15.676  27.544 -0.0823 -0.0846  0.4306
70967W        W13880   3.857  27.811   0.531 -0.2275 -0.1363 -0.2522
70968W        W13881   6.460   7.762  28.466 -0.0072  0.0314 -0.1733
70969W        W13882  13.013  15.954   0.106  0.2041  0.2994  0.0630
70970W        W13883   1.836  18.605   7.552 -0.0470  0.3852  0.1676
70971W        W13884   5.667  13.772   7.583 -0.3163  0.1182 -0.0881
70972W        W13885  26.490  31.889  21.213 -0.1433  0.0288 -0.3225
70973W        W13886   2.829  20.010   8.041 -0.1340 -0.0560  0.0611
70974W        W13887   1.350   2.635  25.657 -0.0406  0.3385  0.0671
70975W        W13888  31.845  14.325   6.622 -0.1904  0.2695  0.0070
70976W        W13889   0.019  13.160   1.026  0.0418 -0.1761  0.0840
70977W        W13890   6.120  10.001   8.584  0.1320 -0.2631  0.0111
70978W        W13891   8.621  29.691  16.864 -0.0304  0.4934  0.1356
70979W        W13892   4.581  11.649   1.060  0.1842 -0.2095 -0.3194
70980W        W13893   4.010  20.794  29.702 -0.0073  0.0237 -0.1762
70981W        W13894  10.750   4.399   2.972 -0.0208 -0.2239  0.0270
70982W        W13895   4.527  24.162   4.342  0.0800  0.1582 -0.1572
70983W        W13896   3.365  11.601   5.718  0.0541 -0.0133 -0.0150
70984W        W13897  11.850  12.028   7.260  0.0382 -0.3204  0.2482
70985W        W13898  10.989  15.664   8.625  0.3088  0.1149 -0.2165
70986W        W13899   0.343  25.782   5.279  0.3146 -0.1586 -0.3755
70987W        W13900   2.723  10.737   0.685 -0.1986  0.1344  0.2755
70988W        W13901   6.728  12.709   1.141 -0.0878  0.0221 -0.1751
70989W        W13902   4.429   7.131  27.242 -0.0967  0.1368  0.2311
70990W        W13903  12.785  21.751   0.139 -0.1357 -0.3483  0.0071
70991W        W13904  32.914   8.019   4.269 -0.1551  0.1797  0.0032
70992W        W13905   6.859  14.776   7.886  0.0347 -0.2242 -0.0248
70993W        W13906   5.603  15.378   2.949  0.0940 -0.1450 -0.1848
70994W        W13907  18.736  16.462  24.962  0.0777  0.2503  0.0005
70995W        W13908  32.540  25.061   2.294 -0.3744 -0.5172  0.0777
70996W        W13909  10.605  13.124   2.098 -0.0545  0.1419  0.0504
70997W        W13910   5.489  17.262   7.631 -0.1713 -0.2685 -0.0868
70998W        W13911  27.651  21.411  21.639  0.2446 -0.0738 -0.1936
70999W        W13912   6.307   6.259   7.062 -0.1102  0.1966  0.1778
71000W        W13913   6.955  20.113   8.808  0.1112  0.1528 -0.1168
71001W        W13914  32.298   8.340   3.789  0.2328  0.2358  0.2463
71002W        W13915  11.214  16.159   3.592 -0.0207 -0.1751 -0.1920
71003W        W13916   4.569  28.572   2.927  0.0137 -0.0347  0.1092
71004W        W13917  33.246  11.927  25.682 -0.0185  0.1589  0.0021
71005W        W13918   6.003  16.538   8.287  0.1389 -0.1150  0.0620
71006W        W13919   6.587  16.824   2.844  0.1560 -0.0045 -0.0955
71007W        W13920   6.402   9.481  29.649 -0.0689  0.2603 -0.1341
71008W        W13921  11.577  17.069   5.505  0.0785  0.1448  0.1091
71009W        W13922   2.576  20.007   1.424  0.1501  0.0221 -0.1670
71010W        W13923  32.144  18.681   4.480 -0.1532 -0.2016 -0.2595
71011W        W13924   9.766  18.592   1.669  0.1102  0.3828  0.0003
71012W        W13925   3.618  17.615   4.136 -0.1483 -0.0358 -0.1860
71013W        W13926  33.844  16.322   0.069  0.1089  0.2353 -0.1555
71014W        W13927   9.645  10.712   6.508  0.3897  0.1262  0.0157
71015W        W13928  31.398  16.182  26.098  0.1278  0.0737  0.0615
71016W        W13929  29.450  15.918  10.257 -0.1153  0.0823 -0.1326
71017W        W13930  31.371  10.265  24.681  0.1107 -0.0697 -0.0505
71018W        W13931   1.067  23.009  27.267  0.2533  0.0605  0.0617
71019W        W13932  17.935  14.468   3.944 -0.2365  0.0358 -0.0345
71020W        W13933   1.969  26.069  26.033  0.0366  0.1460 -0.0367
71021W        W13934   5.296   9.798   4.040 -0.0523 -0.2438  0.1247
71022W        W13935   8.399  22.485   5.592  0.1235 -0.1554 -0.0944
71023W        W13936   5.733  11.790   7.451 -0.2534 -0.0001 -0.1059
71024W        W13937  14.280  19.931  28.781 -0.1289  0.3078  0.1641
71025W        W13938  13.501  19.203  26.455 -0.0253 -0.1043  0.2400
71026W        W13939   3.981  21.071  23.262 -0.1768 -0.0839 -0.2307
71027W        W13940   1.612   8.010   4.548 -0.3245 -0.0515  0.0414
71028W        W13941  11.165  11.993   6.002 -0.0867 -0.2299 -0.1199
71029W        W13942   3.907  13.258   5.645 -0.3484 -0.0574  0.1585
71030W        W13943  34.358  12.578  29.613 -0.1201  0.0069 -0.1380
71031W        W13944   9.174  10.187  29.006 -0.2316 -0.3942  0.0128
71032W        W13945  15.315  23.274   5.720 -0.1487  0.1253 -0.2325
71033W        W13946   5.574  23.098   7.392 -0.1613 -0.1376 -0.2990
71034W        W13947   9.373  19.405   4.692 -0.1235 -0.0637  0.2029
71035W        W13948   1.008  16.527   9.176  0.0965 -0.0275  0.0335
71036W        W13949   2.801  17.071  26.127  0.4132  0.2528  0.4342
71037W        W13950  32.673  15.253   9.568 -0.0628 -0.3522  0.1655
71038W        W13951  33.588   4.417  25.146 -0.0544 -0.2114 -0.0271
71039W        W13952   6.043  21.567  14.772  0.0619 -0.2269  0.2782
71040W        W13953  14.100  13.087  28.452 -0.1853  0.1238 -0.1735
71041W        W13954   0.868  17.761  29.095  0.1518  0.1166  0.1859
71042W        W13955  16.121  13.637   6.988  0.0492 -0.0492  0.4408
71043W        W13956   5.277  16.122   1.669 -0.2497  0.2407 -0.0123
71044W        W13957  14.145  20.164   5.204  0.3301 -0.0053  0.0313
71045W        W13958  14.014  13.917  22.645 -0.1085 -0.1260 -0.2452
71046W        W13959   1.923  14.137   6.493 -0.3371 -0.1985  0.1188
71047W        W13960  19.057  19.959   1.540  0.0433  0.0503 -0.1646
71048W        W13961   6.302  15.716   1.835  0.1359  0.1152 -0.1391
71049W        W13962  28.042  20.214  27.449 -0.0022  0.0434  0.1442
71050W        W13963   6.991   4.453  28.788  0.3067 -0.0772  0.0824
71051W        W13964  32.354  10.443   8.732 -0.1431 -0.0563 -0.3368
71052W        W13965  17.453  20.512   2.352 -0.0424  0.1372  0.0714
71053W        W13966  13.659  18.385   3.149 -0.3136  0.0365  0.1724
71054W        W13967  32.723  10.366   5.422  0.0317  0.1113 -0.0213
71055W        W13968   1.766   5.203  19.950  0.2585  0.1833  0.2440
71056W        W13969  29.018   8.794   2.617 -0.2918 -0.2127  0.2158
71057W        W13970  31.725  15.430   1.747  0.0940  0.0990  0.2328
71058W        W13971   4.582   5.674  24.886 -0.0805  0.1067 -0.1537
71059W        W13972  11.712  23.473   6.277  0.0828 -0.2661  0.1038
71060W        W13973  33.067  23.101   8.285 -0.2639  0.1633 -0.1770
71061W        W13974  18.634  20.374   7.889  0.0571  0.0153 -0.1841
71062W        W13975  34.172  23.292  26.669  0.0196  0.1506 -0.1074
71063W        W13976  25.717   9.769   4.875 -0.1123 -0.6154  0.2695
71064W        W13977  13.728  24.740   8.681 -0.1370 -0.3486  0.2712
71065W        W13978  11.271  11.406   9.675 -0.0126 -0.0419  0.0917
71066W        W13979   4.129  21.410   5.729 -0.1816  0.1363  0.1051
71067W        W13980  33.140   9.332   6.319  0.2245  0.1416  0.0402
71068W        W13981   5.559  13.526   6.609 -0.1360  0.3043  0.1342
71069W        W13982  26.409  17.944   7.348  0.3035 -0.1041 -0.0622
71070W        W13983   5.957  19.943   6.613  0.2155  0.0874  0.1721
71071W        W13984   8.599  23.565  28.584  0.3692 -0.1748  0.1214
71072W        W13985  10.010  25.212   0.894 -0.0326  0.0210 -0.0115
71073W        W13986   0.569   8.241  22.048 -0.0049 -0.0065  0.2098
71074W        W13987   6.865  10.868   3.159 -0.0042  0.2348  0.3635
71075W        W13988   2.412   8.442   6.162  0.1743  0.1158 -0.2022
71076W        W13989  27.071  21.077   3.807 -0.2159  0.2829 -0.1145
71077W        W13990   0.499  13.705   6.051 -0.2919  0.1396 -0.0979
71078W        W13991   6.704  15.824   7.371  0.0773  0.0647 -0.1302
71079W        W13992  34.196  14.298   9.552 -0.1381 -0.1274 -0.3316
71080W        W13993  28.363  17.917   4.894  0.2203  0.1050  0.1393
71081W        W13994   3.218   4.152   8.749 -0.0615 -0.0008  0.0813
71082W        W13995  29.513  27.660   8.360 -0.1689  0.4259  0.1481
71083W        W13996   7.944  12.384  28.766  0.5348 -0.0436  0.0364
71084W        W13997  30.494  19.580  27.501  0.0523  0.0672  0.0042
71085W        W13998   3.028  11.587   9.357  0.4012  0.2572 -0.2690
71086W        W13999  32.162  22.774   4.755 -0.1349  0.1475 -0.0308
71087W        W14000   9.969   2.666   4.126  0.0646  0.0266 -0.1442
71088W        W14001  10.328  23.141  26.867 -0.4461  0.3115 -0.4192
71089W        W14002   4.010  26.130   2.624  0.1292  0.2659 -0.1571
71090W        W14003   7.847  11.540   8.580 -0.0679  0.4799  0.2339
71091W        W14004   5.517  16.617  26.377  0.0984  0.0979  0.2837
71092W        W14005  10.497  18.261   1.099 -0.1258  0.3287 -0.3475
71093W        W14006   5.172  20.228   8.544 -0.1619 -0.0871  0.0279
71094W        W14007  16.851  15.286   2.994 -0.0224 -0.1881  0.1105
71095W        W14008   5.990   9.215   2.084  0.1122 -0.0245  0.1290
71096W        W14009  11.209  24.964  27.645  0.2195 -0.0908  0.0975
71097W        W14010   0.697   5.937   8.528  0.0405  0.0640  0.0308
71098W        W14011   6.585  25.318   9.844  0.2519 -0.1107 -0.0039
71099W        W14012   5.749  23.761   6.178  0.0345 -0.1405 -0.1887
71100W        W14013  32.676  21.000   3.620 -0.3132 -0.0235  0.3296
71101W        W14014   6.924  29.270   4.991  0.2003  0.4804 -0.2096
71102W        W14015  12.045  15.572   4.837 -0.1010  0.1933  0.0345
71103W        W14016  10.059   5.324   4.462 -0.3044  0.1549  0.1017
71104W        W14017   5.858  24.810   2.496 -0.1558 -0.2135  0.0376
71105W        W14018  33.412  16.016   9.013 -0.3427  0.1085  0.2254
71106W        W14019   6.462   8.972   2.187 -0.0031  0.0176 -0.0985
71107W        W14020   0.019  17.393   7.828  0.1760  0.1561 -0.1094
71108W        W14021   6.975  18.753   4.438 -0.1596  0.0293 -0.2243
71109W        W14022   3.558  10.064   4.832  0.0141 -0.0576 -0.1555
71110W        W14023   8.477  12.353   3.441 -0.0865 -0.0206 -0.1078
71111W        W14024  29.173  22.028   3.035  0.0022  0.0600 -0.1206
71112W        W14025  33.463  16.939   7.075 -0.1924 -0.0335  0.2926
71113W        W14026   0.641   6.569   2.295 -0.0323  0.0785 -0.1176
71114W        W14027   7.653  13.824  24.645 -0.1198 -0.0932 -0.1055
71115W        W14028  34.341  18.280   4.675 -0.1479  0.2082 -0.0795
71116W        W14029   1.927  10.614   1.422  0.0266  0.0986  0.1158
71117W        W14030  11.519  17.241  22.992 -0.2606 -0.1346 -0.0212
71118W        W14031  12.508  33.136   9.479 -0.2015  0.0043 -0.4532
71119W        W14032  12.859  13.235   3.067 -0.3841 -0.2237 -0.1237
71120W        W14033   3.036  16.843  25.311 -0.1966  0.0402  0.1721
71121W        W14034   0.627  21.891   5.181 -0.1385 -0.0572 -0.3041
71122W        W14035   7.311  10.623  27.547  0.0856  0.3468 -0.1061
71123W        W14036  31.381   5.503  29.648 -0.0284  0.0616  0.1204
71124W        W14037  11.119   3.565  21.670  0.0597 -0.2878  0.1624
71125W        W14038  12.002  14.927  26.871  0.0535 -0.1713 -0.1209
71126W        W14039   5.819  15.282   5.930  0.0005  0.0967  0.1526
71127W        W14040  11.023  14.506   6.741  0.1964 -0.0676  0.1537
71128W        W14041   1.792  13.330  10.709  0.1280 -0.2470 -0.0324
71129W        W14042   0.937  18.880   9.231 -0.3760 -0.1482  0.0298
71130W        W14043   3.644   7.398   1.405 -0.4065 -0.3032  0.1714
71131W        W14044  10.004  17.449   5.103  0.0488  0.0322  0.0356
71132W        W14045  18.009  25.404  28.491 -0.0814 -0.2072  0.0007
71133W        W14046  12.036  20.475  29.012 -0.1578  0.2170  0.0868
71134W        W14047  18.138   9.230   2.352 -0.3577  0.0411  0.3705
71135W        W14048   4.484   4.469   6.089 -0.1938  0.0976  0.2105
71136W        W14049  11.003  22.538   8.855  0.2189 -0.3296 -0.0267
71137W        W14050   3.800  26.126   8.923  0.0329 -0.3113  0.2886
71138W        W14051   0.166  22.713   8.946  0.2409 -0.0473 -0.1141
71139W        W14052   2.450  10.934   8.145 -0.0483 -0.0484 -0.0901
71140W        W14053  17.405  12.329   4.033 -0.1870 -0.0176 -0.1487
71141W        W14054   5.772  17.197  27.453  0.0371  0.2227  0.1950
71142W        W14055   9.394  18.350   5.144  0.1324 -0.2894  0.3572
71143W        W14056   1.163  12.014   9.642 -0.0372 -0.1130 -0.0752
71144W        W14057  13.167  20.526  17.520 -0.0670  0.1054  0.0949
71145W        W14058   5.106   9.163  13.003 -0.2802  0.4376 -0.1704
71146W        W14059   4.216  11.424  28.933 -0.2123  0.0284 -0.1053
71147W        W14060   8.386  33.135   9.845  0.2253 -0.0106  0.0663
71148W        W14061  30.277  12.771   8.676 -0.0118 -0.2735 -0.0922
71149W        W14062  18.824  21.729   8.355 -0.2112  0.3800  0.0879
71150W        W14063  29.815  16.156   4.157  0.0825 -0.0812  0.2852
71151W        W14064   1.590  26.927   5.267  0.3953 -0.4420 -0.1163
71152W        W14065  33.619   8.826   3.528 -0.0945  0.3014 -0.0804
71153W        W14066   0.556  17.013  25.675  0.0032  0.0490 -0.0485
71154W        W14067   6.144  15.486   5.050 -0.3169  0.2544 -0.1603
71155W        W14068  29.620   8.672   6.225 -0.1025 -0.0851  0.1530
71156W        W14069  10.268   4.195   5.957 -0.1157  0.0197 -0.0831
71157W        W14070  31.222  14.442   2.765 -0.1994  0.3096 -0.0098
71158W        W14071  28.887  32.113   6.177 -0.1460  0.2976  0.2553
71159W        W14072   1.645  12.022   0.585  0.1154 -0.2739 -0.1801
71160W        W14073  33.241  11.298   1.328 -0.2019 -0.0053 -0.1695
71161W        W14074   3.106  11.893  26.525 -0.0349 -0.0425 -0.0700
71162W        W14075  10.595   6.438  24.200 -0.2124  0.0269 -0.0464
71163W        W14076  16.008  16.022   3.739  0.0949  0.0293 -0.1988
71164W        W14077   9.070  13.430  16.685  0.2914  0.2412  0.0768
71165W        W14078  11.286   2.517  11.033 -0.2564 -0.1939  0.1399
71166W        W14079   5.700  12.556   2.020 -0.0059  0.2167 -0.0041
71167W        W14080  30.371   1.447   3.825  0.1264  0.1793  0.0003
71168W        W14081   2.760  18.010  29.217  0.0145  0.0082 -0.1008
71169W        W14082   3.247  22.436   8.746 -0.0055 -0.0250  0.1762
71170W        W14083  16.205  17.691   5.298  0.2762 -0.0592  0.0685
71171W        W14084  11.974  16.901   1.090  0.0291  0.0690  0.3142
71172W        W14085  31.434  19.643   3.794  0.1623 -0.1864 -0.0636
71173W        W14086  12.780  15.116   7.206  0.0809  0.1309  0.1375
71174W        W14087   2.300  11.706  27.415 -0.1454  0.2136 -0.1155
71175W        W14088   4.609  22.844   9.684  0.1375  0.0996  0.2111
71176W        W14089   6.962  17.652   6.912  0.1113  0.2683  0.1372
71177W        W14090   4.493   5.623  27.992 -0.0167  0.0297 -0.0890
71178W        W14091   8.895  17.083   8.735 -0.2854 -0.1156 -0.1245
71179W        W14092   3.184  15.261   8.679 -0.2765  0.1652  0.2587
71180W        W14093   1.683   5.723   1.541 -0.1940  0.0003  0.0976
71181W        W14094  32.122   8.731   4.682 -0.0421  0.4134  0.3214
71182W        W14095  18.609  21.101   2.741 -0.3199  0.1359  0.0243
71183W        W14096   3.218  30.148   5.859  0.0218 -0.0842  0.0693
71184W        W14097  34.376  20.858   1.829  0.0310 -0.0771  0.4327
71185W        W14098  11.104  13.193   2.170 -0.1139 -0.0665  0.3740
71186W        W14099  10.604  26.374   4.937 -0.1491 -0.3199  0.0296
71187W        W14100  12.663  15.395  24.721 -0.0257 -0.0146 -0.2322
71188W        W14101  31.547  17.317   7.028  0.1454  0.0787 -0.2603
71189W        W14102   2.278  30.525   8.735 -0.0948 -0.1980  0.2740
71190W        W14103  17.801  18.334  26.873  0.1679  0.3457 -0.0447
71191W        W14104  10.330  18.747   1.606 -0.0323  0.1528  0.0124
71192W        W14105  34.176  15.669  24.557 -0.1212  0.0434 -0.4240
71193W        W14106  34.404  22.265   1.736 -0.1060 -0.1800  0.2523
71194W        W14107   4.302  15.154   9.656 -0.1136 -0.1071  0.1337
71195W        W14108   5.626   4.388   3.400 -0.2363  0.0851  0.2945
71196W        W14109  12.159  29.968   6.563 -0.6046 -0.1818 -0.1882
71197W        W14110  11.351  19.359   7.960  0.4630 -0.3410 -0.2620
71198W        W14111  31.675  15.978   3.030 -0.0018  0.0700  0.2012
71199W        W14112   3.134  15.138  21.489 -0.0352  0.0796 -0.3506
71200W        W14113  14.506  15.065  22.315  0.0514  0.1794 -0.0665
71201W        W14114  31.556   5.754   8.353  0.2308  0.0035 -0.0056
71202W        W14115  33.218  20.236   6.421 -0.3367  0.0494  0.0413
71203W        W14116  10.693  24.440   7.073  0.1768  0.1598 -0.1559
71204W        W14117  11.946   9.006   6.592 -0.0399  0.0523 -0.1132
71205W        W14118   2.068   4.618  26.590  0.2458  0.0089 -0.0066
71206W        W14119   1.841  12.993   7.666 -0.1848  0.1596  0.0961
71207W        W14120   3.748  17.861   8.984 -0.2928  0.0280 -0.6105
71208W        W14121  13.049  13.149  26.213  0.1116 -0.1906  0.0902
71209W        W14122  32.333  15.557   4.680  0.3270  0.1443  0.1902
71210W        W14123  11.905  13.594   2.501 -0.2473  0.2537 -0.2213
71211W        W14124   4.961  10.898   1.941 -0.1435 -0.0911 -0.5484
71212W        W14125   5.617  17.876   5.926  0.1816  0.1876 -0.0519
71213W        W14126   6.708  12.172  10.315  0.0900 -0.0670  0.0291
71214W        W14127   5.614   3.506   6.044  0.1973  0.1392  0.3445
71215W        W14128   7.111  14.510   2.000  0.1771  0.2312  0.3125
71216W        W14129   2.249   8.003   6.012  0.1221  0.0199  0.1547
71217W        W14130  26.718  17.291   2.957  0.0239 -0.0026 -0.1509
71218W        W14131   3.602   9.502   5.814  0.2552  0.2017  0.3563
71219W        W14132   4.323  15.895   8.012  0.2631 -0.1656  0.1071
71220W        W14133  11.046  24.587   4.926 -0.0710 -0.0683 -0.0725
71221W        W14134   5.799  16.409   9.335  0.0273 -0.0987 -0.1815
71222W        W14135  13.685  23.431   3.172  0.0689 -0.2830  0.1214
71223W        W14136   7.559  28.835   4.335 -0.0417  0.1015  0.0086
71224W        W14137   4.141   5.984  28.070  0.0691  0.1686 -0.3181
71225W        W14138  13.152  20.200  29.323  0.0731 -0.0017 -0.5076
71226W        W14139   0.522   8.311  23.642 -0.0286  0.1729 -0.1133
71227W        W14140  24.065  15.068   5.664 -0.0795  0.2734 -0.1739
71228W        W14141   2.936  23.899   8.369 -0.2757  0.4073  0.1456
71229W        W14142   2.479  18.936  19.619  0.1717  0.2746  0.2818
71230W        W14143  11.306  10.335   6.783 -0.2630  0.1217 -0.2541
71231W        W14144  34.461  24.250   5.000 -0.1266  0.1179  0.3808
71232W        W14145  12.901  11.059   5.568  0.2102  0.0397  0.0388
71233W        W14146   1.110  10.313   5.429  0.1635  0.0204 -0.0857
71234W        W14147   5.384   8.757  26.758 -0.0956  0.2554  0.1435
71235W        W14148  26.930  33.537  23.218  0.3982  0.0816  0.2498
71236W        W14149   7.143  20.967   9.196 -0.0160  0.1075 -0.0432
71237W        W14150   3.223  14.130  27.692 -0.2091  0.0375  0.1289
71238W        W14151  33.895   5.912  10.952 -0.0542  0.0040 -0.3030
71239W        W14152   5.864  16.924   1.160  0.1693  0.0892 -0.0980
71240W        W14153   4.312  15.992   7.280  0.1175  0.2579  0.1561
71241W        W14154  10.166  30.052   3.420 -0.0682  0.2189 -0.1646
71242W        W14155   1.556  10.528   3.332  0.2999 -0.5246 -0.3422
71243W        W14156   3.878  10.045  11.147 -0.0069 -0.0120  0.0326
71244W        W14157   5.707  21.499   8.244 -0.0641  0.2559  0.0209
71245W        W14158  10.011  13.443   8.346  0.1692 -0.5988  0.1119
71246W        W14159   3.820   5.339   5.081  0.0473  0.0615 -0.3302
71247W        W14160  29.149  16.228   9.933 -0.1826 -0.0516  0.1401
71248W        W14161   2.492   8.553  19.671  0.0012  0.1977  0.1092
71249W        W14162  30.784  11.798  27.127 -0.0040 -0.0439 -0.1240
71250W        W14163   5.121  18.598  25.784  0.2016 -0.0586  0.0637
71251W        W14164   4.052  11.092   8.576 -0.1669  0.1209  0.2532
71252W        W14165  31.253   6.689  22.478 -0.2409  0.1807  0.1223
71253W        W14166   0.656  12.551   3.635 -0.1046 -0.2752 -0.1947
71254W        W14167   1.475  12.760   2.549  0.0483 -0.1435  0.0048
71255W        W14168  32.225  31.743   9.475 -0.1110 -0.0943  0.2953
71256W        W14169  30.596  10.207   4.697  0.1031 -0.0172 -0.1980
71257W        W14170  14.619  18.523   5.737 -0.0167 -0.2021  0.1543
71258W        W14171   5.209  15.559  28.241  0.0751  0.1562  0.0344
71259W        W14172   9.672  14.870   8.481  0.2439  0.1970  0.2313
71260W        W14173  15.029  14.656  27.409 -0.0672 -0.0856 -0.2887
71261W        W14174  10.854   0.344   8.931 -0.1232  0.2901 -0.1927
71262W        W14175   8.456   7.149   2.766  0.1993 -0.0537 -0.2061
71263W        W14176  12.477  11.897   3.049  0.2176 -0.3793 -0.1247
71264W        W14177  32.080  10.176   2.487 -0.2228  0.0986 -0.0293
71265W        W14178   0.377   6.140  28.159 -0.0307 -0.1884  0.1704
71266W        W14179  12.686   8.058   7.376 -0.1317 -0.0797  0.1413
71267W        W14180   9.723  27.580   8.823  0.5063  0.2972 -0.0390
71268W        W14181   5.670  20.338   0.471 -0.2796 -0.0982 -0.1980
71269W        W14182   4.860   9.717   3.802  0.1196 -0.1993 -0.0016
71270W        W14183   8.453   4.399   6.242  0.0261 -0.1019 -0.2804
71271W        W14184   1.418  17.868   3.646 -0.2501 -0.0158  0.0892
71272W        W14185  10.630  14.310   5.002 -0.1694  0.1844 -0.2439
71273W        W14186  28.100  17.437   9.022  0.1724  0.2247  0.0572
71274W        W14187   8.616   6.750  11.248  0.0255 -0.4029 -0.2012
71275W        W14188  12.817  10.193   0.943 -0.1002 -0.1092 -0.2072
71276W        W14189   9.162  19.512   9.337 -0.4479  0.1589  0.1046
71277W        W14190   7.558  18.871   3.290 -0.2875 -0.0548  0.0421
71278W        W14191  12.285  28.236   5.700 -0.0854  0.2226  0.0626
71279W        W14192   6.688  18.590   5.650 -0.2473 -0.3142 -0.0116
71280W        W14193   2.808  24.806   7.473 -0.1375 -0.0126 -0.3398
71281W        W14194  33.408  18.350   4.349 -0.3126  0.1312 -0.0414
71282W        W14195   3.131  11.280  10.131  0.2753  0.4321  0.4172
71283W        W14196  30.046  14.448   9.822 -0.0071 -0.3031  0.2615
71284W        W14197   3.501  12.906   9.655  0.3536 -0.2468 -0.0552
71285W        W14198  10.665  14.555  27.059  0.0887  0.0440  0.0247
71286W        W14199  16.492  13.811  27.450  0.1520 -0.1464 -0.0131
71287W        W14200   0.809  15.798   7.929 -0.2900  0.0088 -0.1990
71288W        W14201   3.238  20.937   7.942 -0.0528  0.2255  0.1669
71289W        W14202   5.663   8.748  27.770 -0.0537 -0.0453  0.1488
71290W        W14203  29.608  11.510   8.323  0.0705  0.0823 -0.2691
71291W        W14204   1.284  21.079  28.613  0.1867 -0.0562 -0.1819
71292W        W14205   1.829  19.426   8.548  0.0544  0.0522  0.1636
71293W        W14206   2.714  18.378   3.938  0.0139 -0.0028 -0.0786
71294W        W14207  14.582  19.134  26.279  0.0198  0.0149  0.1622
71295W        W14208  12.765  17.682   1.902  0.3115  0.0011  0.1898
71296W        W14209   4.539  14.918   7.962  0.4348  0.1489  0.1435
71297W        W14210   9.558  25.179   2.136 -0.0209  0.1255 -0.2579
71298W        W14211   8.904   9.253  11.353 -0.1396  0.1162 -0.1442
71299W        W14212   6.826   7.696  12.247 -0.1510  0.0861  0.1089
71300W        W14213   5.507  17.043   7.053 -0.0134 -0.1797  0.4294
71301W        W14214   7.768  16.121   2.115 -0.2635 -0.0377 -0.3464
71302W        W14215   4.231   4.712   3.524 -0.0926 -0.0038  0.0144
71303W        W14216  11.521   6.718  25.465  0.0412  0.4055 -0.0444
71304W        W14217  10.150  15.473   7.494 -0.1975 -0.0812 -0.1244
71305W        W14218  32.845  14.984   9.034 -0.1244 -0.0129 -0.0771
71306W        W14219  26.262  16.779   6.498  0.3529 -0.1092  0.0743
71307W        W14220   6.333   5.904   3.322 -0.1535 -0.1588  0.2749
71308W        W14221  14.337  14.132  29.015  0.0222 -0.2294 -0.0733
71309W        W14222   3.111  13.149  21.756 -0.3476  0.1111  0.1606
71310W        W14223  10.040  18.491   3.613  0.2939  0.0490  0.1815
71311W        W14224   6.736   9.515  29.292  0.1876 -0.1227 -0.1753
71312W        W14225  33.437  11.767  17.382 -0.2310 -0.1979 -0.1200
71313W        W14226  11.222  13.983   0.269  0.4199 -0.0135 -0.0250
71314W        W14227  15.810  17.681   5.039  0.2284  0.1057 -0.1764
71315W        W14228   2.780  21.906   7.718  0.1565 -0.1083  0.0987
71316W        W14229  14.358   9.148   5.347  0.1646 -0.1403  0.1992
71317W        W14230   9.743  18.110   7.988 -0.0688  0.3260 -0.0160
71318W        W14231  11.592  13.883   3.179 -0.0960  0.2972 -0.1246
71319W        W14232   5.625  11.481   7.116  0.0034  0.1907 -0.1377
71320W        W14233   3.560  14.354  26.841  0.0659  0.0267  0.1865
71321W        W14234  30.582  15.695  27.714 -0.2499  0.0019  0.1965
71322W        W14235   1.211  21.097   1.211  0.0026  0.2293  0.0539
71323W        W14236  16.407  18.173   0.450 -0.0908 -0.1956  0.2547
71324W        W14237   4.754  12.607   9.691  0.0803  0.1478  0.0766
71325W        W14238   0.150   6.845  10.152  0.1814 -0.0392  0.0983
71326W        W14239  25.413   4.130   5.035  0.3336 -0.1183  0.0455
71327W        W14240   9.771  20.011   0.444 -0.1498 -0.1828 -0.0104
71328W        W14241  11.959  19.540   3.423 -0.3913  0.0892  0.3393
71329W        W14242   4.534  15.846   1.510  0.0341  0.0887 -0.1650
71330W        W14243   1.441  18.008  25.901  0.0509  0.1545 -0.2861
71331W        W14244  13.018  17.063   3.227 -0.2449  0.0958 -0.1551
71332W        W14245  33.455  12.799  27.947  0.2343 -0.0634  0.0009
71333W        W14246  14.638  20.947   5.686 -0.3285 -0.0112  0.0582
71334W        W14247   9.341  20.729   9.258 -0.5648 -0.1856  0.0459
71335W        W14248  27.863   9.810   7.260 -0.4571  0.2592  0.0946
71336W        W14249  32.782  20.677   7.112 -0.3415  0.1924 -0.0648
71337W        W14250  34.171  16.330  29.516  0.0872 -0.0738 -0.2428
71338W        W14251   7.820  12.129   2.783  0.0030 -0.3103  0.0233
71339W        W14252   8.581  14.109   9.772 -0.0846 -0.0601 -0.0866
71340W        W14253  10.557  12.673   0.981  0.0641 -0.1375 -0.0389
71341W        W14254  31.737   9.704   5.041  0.2042 -0.0464  0.1496
71342W        W14255   0.826  10.422   6.867 -0.0986  0.1799  0.0061
71343W        W14256  32.932  14.470   4.507  0.0693 -0.0447  0.1876
71344W        W14257  16.979  22.257  22.207  0.2164  0.0483 -0.0417
71345W        W14258   2.430   9.039   4.856 -0.1043  0.1319  0.1637
71346W        W14259  18.077  22.635   7.553  0.5091 -0.0678 -0.2386
71347W        W14260  11.609  21.212  29.551  0.2454  0.0751 -0.0793
71348W        W14261  11.928  23.597   9.106 -0.1084 -0.0377 -0.0114
71349W        W14262   1.849  16.991   7.197 -0.1316  0.2448 -0.0430
71350W        W14263  12.814  17.963   3.288 -0.1301  0.1355 -0.0176
71351W        W14264   9.121   5.203  10.685  0.0381 -0.2469 -0.1068
71352W        W14265   8.245  16.206   5.852  0.1042 -0.0678  0.0863
71353W        W14266   6.481  11.355  25.951  0.1041 -0.1551  0.0859
71354W        W14267  20.015  12.869  25.776 -0.0291 -0.1367 -0.3039
71355W        W14268   8.310  13.027   7.155  0.0930  0.2973  0.0228
71356W        W14269   3.800  19.469   6.197 -0.0727 -0.0284 -0.2736
71357W        W14270   6.788   9.342   0.148  0.5462  0.0377  0.0449
71358W        W14271  26.383  19.381   6.258  0.0543 -0.2618  0.0393
71359W        W14272  34.192   4.780   2.473  0.0459  0.2432  0.2024
71360W        W14273   2.812  19.409  10.498 -0.3937 -0.3347 -0.0994
71361W        W14274   1.531  26.386   3.929 -0.1378 -0.1186 -0.0938
71362W        W14275  17.869  23.008   3.155 -0.3194  0.0759  0.3346
71363W        W14276   3.329  29.950   8.002 -0.2082  0.2338 -0.2353
71364W        W14277  10.094  21.849   5.517 -0.0485  0.0787  0.1007
71365W        W14278   2.025  22.352   7.753  0.0643  0.1087  0.4458
71366W        W14279   2.485  12.112   4.384 -0.0083  0.1504 -0.0506
71367W        W14280   5.049  14.664   6.832 -0.2651 -0.1362 -0.0429
71368W        W14281  34.143   8.894   9.217 -0.0225 -0.0131  0.1211
71369W        W14282   0.353   8.346   0.920  0.2145  0.0551 -0.1389
71370W        W14283   0.468  20.207   9.293 -0.0667  0.1292 -0.2157
71371W        W14284  11.215  13.591   4.491 -0.4841  0.0126 -0.0314
71372W        W14285  14.356  17.168   8.333  0.0541  0.0535 -0.1174
71373W        W14286  33.210  17.513  29.070  0.0849 -0.0269 -0.0604
71374W        W14287   6.520   3.807  12.671  0.0168 -0.1581 -0.1088
71375W        W14288   2.541   0.976   7.305  0.2569  0.2736  0.1642
71376W        W14289  33.809  11.796   7.143  0.0463  0.2834 -0.0972
71377W        W14290  11.484  12.950  10.285 -0.0123 -0.0718 -0.0868
71378W        W14291   3.953  11.797  10.414 -0.1274  0.2936 -0.0901
71379W        W14292   1.470  17.151   8.082 -0.1779  0.2904 -0.1175
71380W        W14293   6.584  12.669   3.596  0.1323  0.0619 -0.1494
71381W        W14294   3.059  18.584   3.567  0.0758 -0.0670  0.0229
71382W        W14295   3.248  27.237   6.753  0.2387  0.3065  0.1864
71383W        W14296  13.856  16.454  28.231  0.1113  0.0013 -0.0128
71384W        W14297  28.553  15.405   9.839 -0.0108  0.0315  0.3545
71385W        W14298  30.952  19.524   8.842  0.0038  0.0617 -0.0238
71386W        W14299  14.701  19.993  22.550  0.4301 -0.0770 -0.1138
71387W        W14300  18.065  15.721   5.300  0.4916 -0.1436 -0.0318
71388W        W14301  32.744  31.057  25.994 -0.2490  0.0136  0.2617
71389W        W14302   7.742  12.522  27.361 -0.0164  0.2610  0.0476
71390W        W14303  30.485   8.899   1.247  0.0280 -0.1125  0.2427
71391W        W14304  16.736  26.574   6.519 -0.0264  0.1069 -0.1324
71392W        W14305  13.566  25.150   8.354 -0.0333  0.0528 -0.0198
71393W        W14306  28.620  24.238   8.237 -0.1604 -0.2054 -0.1747
71394W        W14307  15.712  17.228   2.411  0.1118 -0.1962  0.1283
71395W        W14308  33.135   9.200   9.649 -0.1162  0.2653  0.0500
71396W        W14309  15.446  16.334  23.022  0.0781  0.0428  0.0295
71397W        W14310  12.082  23.339   7.558 -0.1890 -0.1819 -0.1616
71398W        W14311  11.493  22.635   2.873 -0.1818  0.0267  0.0210
71399W        W14312  30.409  23.095   7.238 -0.2232 -0.1561  0.2613
71400W        W14313   6.629   5.432   2.470 -0.2553  0.1643 -0.0957
71401W        W14314   0.436   9.966   4.724  0.3339 -0.1887  0.3773
71402W        W14315   9.516  20.663   8.329 -0.1155 -0.0194 -0.0766
71403W        W14316  26.824  14.624   8.681  0.1110 -0.2051 -0.0234
71404W        W14317   9.725  10.420   9.448  0.1080 -0.0818 -0.0850
71405W        W14318  22.764  21.611   1.223  0.0515 -0.0296  0.1524
71406W        W14319   1.306  23.735   3.859  0.3033  0.3511  0.2036
71407W        W14320  30.158  15.071   9.216 -0.0551 -0.0827  0.0813
71408W        W14321  30.020  15.215   2.358  0.0033  0.0802 -0.0558
71409W        W14322  26.882   5.894   0.067 -0.1441 -0.0089 -0.2215
71410W        W14323  31.082   9.584   1.486  0.0883 -0.1970  0.2158
71411W        W14324  12.575  16.285   1.531  0.0529 -0.0694 -0.0108
71412W        W14325   3.406  18.601   9.393  0.1596 -0.0784  0.0572
71413W        W14326  11.323  16.051  18.856 -0.1114 -0.2286  0.0266
71414W        W14327  10.157   8.440   4.347  0.1190  0.0482  0.1649
71415W        W14328   8.420  11.566   8.498  0.0503 -0.0321 -0.1556
71416W        W14329   8.090   9.969   8.885  0.1839  0.2120 -0.2211
71417W        W14330  32.470  16.797   6.902 -0.1155  0.1886 -0.0260
71418W        W14331   4.923   7.690   5.335  0.0256  0.0980 -0.0348
71419W        W14332  34.388  21.045   6.919 -0.0567  0.1469 -0.0113
71420W        W14333   6.556   9.882   2.682  0.0038  0.0748  0.0145
71421W        W14334   0.507  15.902   2.400 -0.1869  0.1659  0.1204
71422W        W14335   3.589   5.413  13.234 -0.1952  0.0872  0.1616
71423W        W14336  33.524  20.679  10.110  0.2199  0.1870 -0.1048
71424W        W14337   6.218   3.064   5.194 -0.3485  0.0434 -0.0080
71425W        W14338  15.279   2.762   7.054 -0.0157  0.1161  0.0359
71426W        W14339  34.390  10.798   7.790  0.3994  0.1785  0.1873
71427W        W14340  29.632  20.735  26.628 -0.0141  0.0464 -0.0529
71428W        W14341   2.909  11.346   6.844  0.3842  0.1180 -0.2100
71429W        W14342   9.262  14.398   9.509  0.2820 -0.3793 -0.0690
71430W        W14343  34.115  12.935   3.621  0.0566 -0.2331  0.2653
71431W        W14344  29.925  12.582   1.022 -0.2380  0.0675  0.2098
71432W        W14345   9.698  13.343   6.666 -0.0433  0.0141  0.0388
71433W        W14346  10.991   6.227   7.479 -0.3061 -0.1077  0.1608
71434W        W14347   1.690  12.999   9.383  0.1071 -0.3028  0.0980
71435W        W14348   7.653  13.651   6.540 -0.1271  0.1937  0.1622
71436W        W14349   0.621  17.302   9.350 -0.1352 -0.0762 -0.1013
71437W        W14350   2.727  14.722   9.918  0.0167 -0.1979 -0.2448
71438W        W14351   5.237  18.925   5.072  0.0411 -0.0099 -0.2324
71439W        W14352   4.804   8.022  12.767 -0.1585 -0.1622 -0.0490
71440W        W14353  11.781  25.357   5.154  0.0789  0.3066 -0.0872
71441W        W14354  18.757  17.456   3.356  0.3121  0.0710 -0.1945
71442W        W14355   1.495   2.675   1.356 -0.2903  0.0991 -0.0961
71443W        W14356  12.255  19.121   6.923 -0.3015  0.3557 -0.0526
71444W        W14357  30.589   7.122  10.243  0.2682  0.2128  0.1179
71445W        W14358   6.175   0.890  10.996 -0.1574 -0.5058  0.2760
71446W        W14359  33.888  26.773   9.383 -0.1061  0.1268 -0.1205
71447W        W14360   7.391  19.602   1.615 -0.0106 -0.2393  0.0777
71448W        W14361   6.349  18.382   6.270 -0.0689  0.3436 -0.2152
71449W        W14362  34.474   9.944   4.414 -0.0487  0.0434  0.3728
71450W        W14363  33.569   8.052  10.171 -0.2668 -0.0591  0.1799
71451W        W14364   6.933   9.796   8.016 -0.2310 -0.1902  0.0895
71452W        W14365   2.949   4.991  10.890  0.1233  0.4674 -0.0036
71453W        W14366   5.496  10.833   1.882  0.3669  0.2119 -0.2969
71454W        W14367   9.947  13.344   0.149  0.1377 -0.0681 -0.0959
71455W        W14368   8.420  13.093   9.399 -0.0457 -0.0311  0.0240
71456W        W14369   6.840  21.931   7.691  0.0199  0.0848  0.1211
71457W        W14370   5.025  17.269   7.782 -0.0976 -0.0215 -0.3418
71458W        W14371  12.115  32.057   1.140 -0.2378  0.2968 -0.1597
71459W        W14372   7.790  18.603   6.754 -0.1935 -0.1434  0.1435
71460W        W14373  32.126  18.643   6.685  0.0297  0.2840 -0.0639
71461W        W14374   9.851  11.676   5.121 -0.0484  0.0257 -0.1757
71462W        W14375  14.945  21.919   5.304  0.0477 -0.0576  0.1040
71463W        W14376  10.455  14.767   4.767  0.1207 -0.1666  0.1435
71464W        W14377   5.002  12.315   7.442 -0.1930 -0.0513  0.1996
71465W        W14378  11.844  21.436   7.757 -0.0759 -0.0350  0.3193
71466W        W14379   9.977  21.981   9.565  0.1397 -0.0937  0.1594
71467W        W14380   2.986  14.735   8.479 -0.1479  0.1775 -0.0691
71468W        W14381  17.111  10.939   5.881 -0.0226  0.0249  0.3304
71469W        W14382  33.146  11.067   4.621 -0.3927 -0.0255 -0.3992
71470W        W14383   9.881  19.064   8.799 -0.3483  0.1521 -0.0848
71471W        W14384  29.476  12.686   6.581 -0.1098  0.0760 -0.2620
71472W        W14385   0.954  26.744   5.575  0.1462  0.1029 -0.3070
71473W        W14386   4.148   8.165  11.882 -0.1288 -0.0768  0.0803
71474W        W14387  12.311  10.390   9.781 -0.2587  0.1651 -0.0173
71475W        W14388   7.655   6.931   7.338  0.1142  0.2144  0.3073
71476W        W14389  15.067  33.967  11.597  0.1357  0.1101 -0.0121
71477W        W14390  13.058  12.303   8.221 -0.1984 -0.3781  0.0056
71478W        W14391   5.514  11.156   6.417 -0.0271  0.0898 -0.2279
71479W        W14392   4.940  16.976   6.857  0.0784 -0.1481  0.0342
71480W        W14393   7.296  24.389   5.272  0.0011 -0.1264 -0.0576
71481W        W14394   5.365  11.867  10.833 -0.0341  0.3451  0.0325
71482W        W14395  29.559   3.875   1.966 -0.2803  0.2069  0.3966
71483W        W14396   6.892  12.582  19.908 -0.3813  0.0416 -0.0448
71484W        W14397   0.925   7.002  24.672 -0.1017 -0.0380  0.0409
71485W        W14398  10.483  24.395  29.598 -0.0996  0.2851 -0.2694
71486W        W14399   2.510  17.338   7.016  0.0388 -0.2237 -0.0711
71487W        W14400   4.350  17.280   1.380 -0.4060 -0.0805 -0.1153
71488W        W14401  11.831  19.134   8.028  0.1447  0.0184  0.0750
71489W        W14402   0.108  14.714   7.052  0.0618  0.1317 -0.1327
71490W        W14403  15.328  17.144  22.371  0.0336  0.0760 -0.1389
71491W        W14404   5.679   1.910   7.412 -0.0159  0.0378  0.0209
71492W        W14405   9.046   1.713   1.149  0.2113 -0.3591 -0.0781
71493W        W14406   2.511  18.620   2.677 -0.2367 -0.1240  0.1033
71494W        W14407  34.164   7.414   8.169  0.0509  0.0936  0.0385
71495W        W14408  10.026  28.599  10.228 -0.0265  0.0192  0.0281
71496W        W14409   9.137  20.350   8.643 -0.1692 -0.2262 -0.2563
71497W        W14410  10.844  12.785   1.436 -0.2134 -0.2557  0.1855
71498W        W14411  12.199   1.180   9.354 -0.0867 -0.3303 -0.0457
71499W        W14412   4.892  15.228   3.034  0.2311 -0.2755 -0.1294
71500W        W14413   4.183  10.000   8.814 -0.1873 -0.1601 -0.4648
71501W        W14414  30.139  11.140   2.864 -0.0284  0.1016  0.1168
71502W        W14415  31.174  24.639   7.077 -0.1656 -0.0706  0.0375
71503W        W14416   6.248  16.804   5.297  0.3294  0.1437  0.2176
71504W        W14417  28.861   9.473   5.061 -0.2223  0.0835 -0.2251
71505W        W14418  31.326  15.493   5.411  0.1036  0.1773  0.1306
71506W        W14419   9.295   1.778   7.080 -0.0084 -0.3284 -0.0743
71507W        W14420   4.503  15.780   6.848 -0.0930  0.0335 -0.1284
71508W        W14421   4.973  18.618   7.951  0.1491  0.4596  0.2407
71509W        W14422   0.118  11.407   3.239 -0.3237 -0.0514  0.0799
71510W        W14423   6.380  17.140   4.753 -0.0212  0.3838 -0.0480
71511W        W14424   5.351  16.939   6.611  0.3745  0.1240 -0.3426
71512W        W14425  18.360  18.404   6.949 -0.2502  0.0649 -0.1792
71513W        W14426   5.535  13.739   7.082  0.1420  0.3027 -0.4017
71514W        W14427   3.663  19.341   7.108  0.0120  0.0744 -0.0302
71515W        W14428  13.945  14.029   2.354  0.2294  0.0893  0.1224
71516W        W14429  10.179  13.471  26.332  0.2364 -0.0291  0.0544
71517W        W14430  30.017   8.863  10.492  0.1636  0.0242 -0.1836
71518W        W14431  31.644  17.056   2.347 -0.0397 -0.0427  0.2704
71519W        W14432   2.674  14.710   1.105 -0.3704 -0.1796 -0.1292
71520W        W14433   2.284   9.069   1.704 -0.0157  0.3495 -0.1639
71521W        W14434  17.699  24.699   9.766  0.0799  0.0991 -0.3808
71522W        W14435  25.009  30.600   8.218 -0.0905 -0.1154  0.0172
71523W        W14436  16.670  17.113   4.664 -0.1419 -0.0807  0.1557
71524W        W14437  25.245   9.271   6.651  0.1813 -0.2194 -0.0099
71525W        W14438   2.317  12.361  29.692  0.1553  0.2069  0.1642
71526W        W14439   3.689  16.433   8.639  0.0383  0.1425  0.1257
71527W        W14440   2.315  16.912   3.711 -0.2232  0.3060 -0.0895
71528W        W14441   4.121   7.745  12.573  0.2078 -0.0066  0.2792
71529W        W14442   7.416  11.387   8.813 -0.0196 -0.0513  0.0761
71530W        W14443   6.231  21.552  28.761 -0.4397  0.3930  0.2467
71531W        W14444   6.618  11.967   7.916 -0.1913 -0.2908 -0.3473
71532W        W14445  32.241  12.093   4.800 -0.2648  0.1274  0.1577
71533W        W14446   2.960  31.509  10.766 -0.0083  0.0474 -0.1510
71534W        W14447  31.165   8.028   0.425 -0.0743  0.0287 -0.3236
71535W        W14448   8.222  12.756   3.337 -0.1203 -0.2338 -0.1322
71536W        W14449   6.727  17.996   1.040  0.2447  0.1706  0.0420
71537W        W14450   4.008   9.585   5.486  0.2825 -0.1564 -0.0120
71538W        W14451  34.104  15.039   7.036  0.1188 -0.1421  0.0968
71539W        W14452   7.144  18.352   2.148  0.0987 -0.0050 -0.2126
71540W        W14453  28.278  19.685  29.030  0.1014  0.0355  0.1257
71541W        W14454   9.769  14.065   3.773 -0.0269  0.0813  0.1031
71542W        W14455  34.307  18.951   5.821  0.2898  0.1197 -0.5132
71543W        W14456   0.403   9.866   3.914  0.0183  0.2463 -0.0296
71544W        W14457   9.585  24.426   9.703 -0.0862 -0.0136  0.0478
71545W        W14458  33.333  18.557   0.477  0.1538 -0.0857 -0.3371
71546W        W14459  10.069  12.626   4.985 -0.0923 -0.4322 -0.1870
71547W        W14460   6.214   6.718   3.936 -0.1532  0.3467  0.0647
71548W        W14461   2.818  17.719   6.808  0.0039  0.2060 -0.0444
71549W        W14462   3.770   6.468   8.776  0.2715  0.4456 -0.2603
71550W        W14463  10.067  12.148   5.836 -0.0072 -0.1205  0.0012
71551W        W14464   9.458   6.743  11.416 -0.3297 -0.2157  0.1187
71552W        W14465   9.588   5.758  11.974 -0.2778 -0.3499  0.0823
71553W        W14466  32.922   4.047  11.666  0.1327  0.2476 -0.2480
71554W        W14467   8.851  13.173   9.728 -0.1974 -0.0221  0.0916
71555W        W14468  23.365  19.312   5.893 -0.0464  0.3892 -0.0238
71556W        W14469  12.835  14.256   5.917  0.0294  0.0047  0.0688
71557W        W14470   0.885  17.423   4.758  0.1626 -0.2558 -0.0817
71558W        W14471  16.405   9.763   6.737 -0.2174  0.0815 -0.0053
71559W        W14472  10.133  22.442  28.612 -0.0830  0.0695  0.2881
71560W        W14473   8.008   7.529  12.760  0.0439  0.0427 -0.2730
71561W        W14474  11.878  16.434   6.717  0.0455  0.4272 -0.0173
71562W        W14475   1.966  16.084   7.479 -0.1658 -0.1113 -0.0884
71563W        W14476   2.280   7.046   9.985 -0.1709  0.0151 -0.2206
71564W        W14477   2.230   6.603   0.924 -0.1669 -0.1665 -0.1029
71565W        W14478   8.859   9.337  10.026  0.2243 -0.0539  0.2746
71566W        W14479  31.912  11.654   8.434 -0.1325  0.0371 -0.1694
71567W        W14480  11.633   4.432   8.841  0.1701 -0.3617 -0.2219
71568W        W14481  10.328   8.585   5.466 -0.0554 -0.3268  0.0750
71569W        W14482  13.799  25.263  22.613  0.2617 -0.0152  0.1587
71570W        W14483   2.501  13.472   8.189  0.1182  0.0186 -0.0102
71571W        W14484   4.780  16.243   2.385  0.0444 -0.1848 -0.2317
71572W        W14485   1.577  12.713   6.194  0.1058  0.1665  0.2877
71573W        W14486   2.344  24.371   5.628  0.1534 -0.0604 -0.2521
71574W        W14487  29.912  15.294   8.183  0.1730 -0.5334 -0.0971
71575W        W14488  33.667  26.207   6.083  0.2807  0.3054  0.0514
71576W        W14489   3.304   4.208   7.485 -0.0291 -0.0016  0.6422
71577W        W14490  22.528  18.368   8.421 -0.3677  0.1734 -0.1475
71578W        W14491  33.455   3.952   9.494 -0.0484 -0.1608  0.2581
71579W        W14492   4.057   7.645  11.687 -0.2801 -0.1486 -0.3370
71580W        W14493   2.184  15.815  10.082  0.1793  0.4024  0.5193
71581W        W14494  14.320  17.283   7.292 -0.1865 -0.0142 -0.0256
71582W        W14495  33.843  16.297   9.701  0.1325  0.0578 -0.0195
71583W        W14496   2.173  19.500   9.140  0.0307  0.1368 -0.1151
71584W        W14497   7.442  23.237   9.545 -0.2428  0.0012  0.1057
71585W        W14498  33.599  21.853   7.445 -0.1046 -0.1836 -0.0715
71586W        W14499  11.731  17.267   5.074  0.1562  0.0827 -0.0707
71587W        W14500   0.450  19.461   8.111 -0.1947 -0.3425 -0.1805
71588W        W14501  26.340  21.031   6.591 -0.0416  0.1213  0.1134
71589W        W14502   3.709  13.933   3.931  0.0531 -0.3808  0.3147
71590W        W14503   5.567  24.150   7.645 -0.0632  0.1193 -0.2770
71591W        W14504   3.901  23.431   0.493 -0.5143  0.0638 -0.1358
71592W        W14505  10.394  17.401   2.014 -0.3244  0.2699  0.1257
71593W        W14506   2.351  25.898   7.171 -0.1659  0.0378  0.2367
71594W        W14507  13.676  20.402   5.667  0.1638  0.2115  0.0268
71595W        W14508  33.508   4.604   8.917  0.5017  0.1224 -0.1056
71596W        W14509   7.047  15.883   5.797 -0.1167 -0.0727  0.2681
71597W        W14510   1.501  13.751  29.016  0.0193 -0.0276 -0.1813
71598W        W14511  32.202  11.899   1.911  0.1543  0.4549  0.0211
71599W        W14512   3.649  18.321   4.553 -0.3670  0.3073  0.0339
71600W        W14513  34.259  25.480   6.519  0.0508  0.1728  0.0610
71601W        W14514   3.774  14.649   7.598 -0.0094 -0.3540 -0.1785
71602W        W14515   7.422  17.254   0.931  0.1356  0.1195 -0.0939
71603W        W14516   7.208  12.323   5.376 -0.1709  0.0123 -0.3369
71604W        W14517  11.058  22.413   9.312 -0.0702  0.0105 -0.2377
71605W        W14518   3.495   5.181  12.327  0.1919 -0.0682  0.1568
71606W        W14519  25.927  25.157   5.657  0.0989 -0.0279 -0.2140
71607W        W14520   7.755  20.377   8.550  0.0138  0.0793 -0.0902
71608W        W14521  34.292  23.709   6.133  0.2070 -0.1331  0.2497
71609W        W14522   7.512  11.967   5.019  0.1408 -0.2266  0.1950
71610W        W14523   5.529  10.996  10.408  0.1186  0.1602 -0.0137
71611W        W14524  10.882  12.051   7.916 -0.2328  0.1925  0.2014
71612W        W14525  13.744  12.828  28.729  0.1716 -0.0615 -0.1374
71613W        W14526  18.016  11.402   4.680  0.0744  0.0034  0.0448
71614W        W14527  10.107   9.056   6.589  0.1435 -0.1312  0.0828
71615W        W14528  17.200  12.022   7.443 -0.2487 -0.3315 -0.2241
71616W        W14529   1.117   9.811  11.350 -0.0619  0.2535  0.2714
71617W        W14530  33.904  20.070   4.321 -0.1979  0.1867  0.1717
71618W        W14531   2.208  25.290   9.921  0.1124 -0.0218 -0.0647
71619W        W14532   3.940  13.459   3.010  0.3148 -0.4025  0.0759
71620W        W14533  27.123  13.034   5.926 -0.1764 -0.2551  0.5154
71621W        W14534   0.564  16.335   9.935 -0.0963  0.0047  0.2046
71622W        W14535   6.675  19.253   8.404  0.1778 -0.1538  0.0937
71623W        W14536   3.323  19.183   5.503  0.2491 -0.1834  0.1066
71624W        W14537  14.900  25.852   6.357  0.0785  0.0858 -0.3822
71625W        W14538  13.191  17.628   7.737 -0.2437  0.0014  0.0308
71626W        W14539  13.892  11.207   6.683 -0.2644  0.3005  0.1592
71627W        W14540  29.616  14.617   9.513  0.2623  0.2760  0.0848
71628W        W14541   4.951  24.736   5.701 -0.2504 -0.0871 -0.1876
71629W        W14542   7.258  15.438   7.554 -0.4886  0.2750 -0.0134
71630W        W14543   5.683   7.634   2.336  0.0343  0.1070 -0.3281
71631W        W14544   0.577   1.621   6.740 -0.1214  0.0622 -0.3513
71632W        W14545   9.366  24.941   2.689  0.3314 -0.1035 -0.1972
71633W        W14546  11.212  24.234   9.245 -0.0679  0.1642  0.3315
71634W        W14547  14.980  16.720   1.317 -0.0506 -0.3343 -0.2052
71635W        W14548  32.421  11.909   6.716  0.0527 -0.2226  0.3028
71636W        W14549  16.127  11.465   5.537 -0.0926  0.0373  0.0321
71637W        W14550   8.973   6.481   9.385  0.0470 -0.0343  0.2617
71638W        W14551   7.721  14.239   5.919  0.0288  0.0023  0.1511
71639W        W14552  11.481   0.340   1.566  0.0372  0.0229  0.1726
71640W        W14553   1.076  19.277   9.647  0.0387  0.4351  0.1317
71641W        W14554   9.006   5.791   1.876 -0.0638 -0.0822  0.1261
71642W        W14555  31.481  19.598   6.131 -0.0272 -0.2098  0.0061
71643W        W14556   2.384  18.687   9.624 -0.0559  0.1548 -0.0423
71644W        W14557  15.429   7.842  28.907 -0.0113  0.0377  0.0803
71645W        W14558  33.562   5.435   3.246 -0.0747 -0.1954  0.0897
71646W        W14559  34.109   1.910  10.520 -0.0654  0.2465 -0.2819
71647W        W14560   3.092   9.492   3.662  0.1757 -0.0357 -0.0456
71648W        W14561   7.353  11.233   7.764 -0.1266  0.0750 -0.0019
71649W        W14562   1.724  10.896  22.745 -0.0867  0.0164  0.0086
71650W        W14563  31.856  11.843  22.380  0.2131  0.1580 -0.1396
71651W        W14564  34.153  19.171   4.773 -0.1008 -0.0429  0.1034
71652W        W14565   9.287  23.148   8.121 -0.2690 -0.2381  0.0240
71653W        W14566   6.094  25.468  29.482 -0.1392 -0.1485  0.3709
71654W        W14567  30.024  16.289   8.359  0.0499  0.3711 -0.0990
71655W        W14568   3.745  10.749  21.100  0.1200 -0.2681  0.0685
71656W        W14569  31.854  16.010  25.589  0.0275  0.0377  0.0991
71657W        W14570  28.806  13.892   7.283  0.1055 -0.0479 -0.1001
71658W        W14571   2.128  14.134   9.474 -0.1444  0.0093  0.1316
71659W        W14572   4.606  19.571   6.495 -0.0533  0.0795 -0.0187
71660W        W14573  10.760  30.635  22.200  0.0453  0.1159  0.3206
71661W        W14574   4.192   9.493  11.649 -0.3115  0.1654  0.0335
71662W        W14575  12.501  13.472   0.822  0.0390  0.0121 -0.1237
71663W        W14576  13.694   6.105   9.313  0.3200 -0.0468 -0.2143
71664W        W14577  17.201   7.398   6.454 -0.1427 -0.2269  0.0166
71665W        W14578   5.863   8.002   2.749 -0.2280 -0.1099 -0.1762
71666W        W14579   5.247  13.631   7.864 -0.2195  0.2801  0.1593
71667W        W14580  21.555  19.431   6.590  0.1598  0.1994 -0.1544
71668W        W14581   5.499  27.999   6.846 -0.0732  0.3500 -0.4764
71669W        W14582   8.518  20.346  27.838 -0.0702  0.1954  0.2049
71670W        W14583   8.187  20.322  18.832 -0.2272  0.0523  0.0495
71671W        W14584  11.070  16.262   0.205  0.2286  0.2180 -0.2295
71672W        W14585  10.456  20.830  29.524  0.0734  0.0023 -0.0586
71673W        W14586   5.149  32.054   5.512  0.0093 -0.1867  0.1837
71674W        W14587   7.146  21.917   6.950  0.0372 -0.4053  0.0652
71675W        W14588  12.599  17.404  28.757 -0.0537 -0.2725  0.4322
71676W        W14589   4.908  22.209   1.314  0.3731 -0.1589  0.3066
71677W        W14590  13.732  14.065  29.290  0.2556 -0.1100  0.0829
71678W        W14591   9.166  21.411  10.262  0.0375 -0.2407  0.0642
71679W        W14592   6.049  19.108  28.390 -0.0436  0.1641  0.0241
71680W        W14593   9.977  11.116  27.618  0.1891  0.1471 -0.0688
71681W        W14594   7.536  14.196  28.767  0.0806 -0.0030 -0.1274
71682W        W14595  10.129  19.505   6.562  0.0748 -0.2596  0.0977
71683W        W14596   2.163  19.182   4.047 -0.1965  0.0537  0.1795
71684W        W14597   3.593  16.568   3.189 -0.0466 -0.0935  0.1048
71685W        W14598  14.254  27.979   7.542  0.0870 -0.1320 -0.1767
71686W        W14599   5.028  24.356   4.633 -0.0607  0.1396 -0.3949
71687W        W14600   4.422   9.203   6.190  0.1990 -0.2554  0.1539
71688W        W14601  10.485   6.097   4.614 -0.2224  0.1259 -0.0201
71689W        W14602   5.322   5.315  12.101  0.1180 -0.0373 -0.5598
71690W        W14603   8.200  22.759   4.161 -0.1560 -0.0746  0.1341
71691W        W14604   7.030  17.039   1.200  0.1855 -0.2388 -0.0894
71692W        W14605   9.896  20.872   8.734 -0.0115  0.2403  0.1192
71693W        W14606  10.987  16.196   6.172  0.0283 -0.4787 -0.0844
71694W        W14607   8.770  15.665  29.658  0.1294 -0.2312 -0.1454
71695W        W14608   9.160  15.960   3.899  0.3093  0.0647  0.0601
71696W        W14609   7.068  18.753  27.273 -0.0574 -0.1874 -0.0036
71697W        W14610   7.774  17.053  26.045 -0.2062 -0.0935 -0.0744
71698W        W14611  18.587  16.014  23.280 -0.0067 -0.0372 -0.1518
71699W        W14612  31.916  20.071  21.428 -0.1300 -0.1128 -0.0025
71700W        W14613   5.859   9.714  29.744 -0.0715  0.1482  0.4048
71701W        W14614   3.453  23.097   3.450 -0.0485 -0.1173 -0.2930
71702W        W14615  31.082   4.207   6.071  0.0141  0.0142 -0.0647
71703W        W14616   3.672  25.949   9.975 -0.0164  0.1115  0.2946
71704W        W14617   4.829  22.002   7.372 -0.1772  0.2881  0.1117
71705W        W14618   5.813  16.426  23.415  0.0335  0.2268  0.2206
71706W        W14619   4.929  10.771  27.699 -0.1028  0.3384  0.1436
71707W        W14620  29.731  26.255  29.274  0.0388 -0.1985 -0.0113
71708W        W14621  23.756  21.467  25.304  0.2709  0.2639  0.1912
71709W        W14622  12.432  23.685   2.556  0.1994  0.1739  0.2280
71710W        W14623   4.424  16.518   2.560 -0.2822 -0.2533 -0.2162
71711W        W14624   7.336  19.795   2.635  0.2413  0.1115  0.1576
71712W        W14625  11.529  13.915   2.102 -0.0736  0.0458 -0.1272
71713W        W14626  21.434  19.490   1.781  0.0985 -0.0971 -0.1473
71714W        W14627   5.753  16.869   9.562 -0.2916  0.4127  0.0929
71715W        W14628  29.454  15.849   9.738 -0.0699  0.1037 -0.1281
71716W        W14629  14.277  15.831   0.511 -0.1260 -0.3429  0.1239
71717W        W14630   1.148  15.544  28.601  0.1995  0.2794  0.0534
71718W        W14631   6.533  11.098  24.906 -0.1363  0.2738  0.1356
71719W        W14632  13.290  17.965  20.271  0.2337  0.2125 -0.2279
71720W        W14633   7.012  26.932  21.336  0.1122 -0.3265 -0.2093
71721W        W14634  28.536  20.465  28.153 -0.0167  0.2973  0.0682
71722W        W14635  12.380  17.820   5.137  0.1796  0.1291  0.2817
71723W        W14636   4.901  16.445   6.128 -0.3174 -0.0758 -0.2977
71724W        W14637   7.029  19.221   1.611 -0.0352 -0.1213  0.3041
71725W        W14638  15.356  22.157   4.603 -0.1202  0.1620 -0.0883
71726W        W14639   8.380  24.822  27.337  0.1485  0.1539 -0.1849
71727W        W14640   3.589  27.669  25.445  0.0111 -0.3603 -0.0410
71728W        W14641  34.391  19.022   1.312 -0.1740  0.2932  0.1723
71729W        W14642  16.356  14.108  23.914  0.2609  0.0808  0.0450
71730W        W14643   8.872  19.546  22.918 -0.1900 -0.2966 -0.3550
71731W        W14644   5.881  12.719  27.553  0.0649 -0.2114 -0.4487
71732W        W14645  31.558  15.847  10.042 -0.1804  0.0136 -0.1471
71733W        W14646   1.940  20.606  26.885 -0.2848 -0.0051  0.0605
71734W        W14647  32.445  25.112   5.403 -0.0035 -0.1526  0.2950
71735W        W14648  32.015  28.205  18.506 -0.1615  0.0199 -0.0020
71736W        W14649  31.775  19.165   0.573  0.1385 -0.1675 -0.0441
71737W        W14650  29.953  25.099  29.000  0.1235  0.1046 -0.3148
71738W        W14651   8.104  25.079  10.127 -0.1330  0.0669 -0.2460
71739W        W14652   6.794  23.120  29.237 -0.4253 -0.0869 -0.1543
71740W        W14653   2.952  16.241   9.036  0.2427 -0.4948  0.0283
71741W        W14654   8.181  16.511   0.822  0.0294 -0.0359 -0.2015
71742W        W14655   8.456  25.724   2.837 -0.1074  0.0187 -0.0370
71743W        W14656   6.447  22.586   9.025  0.2372  0.0009 -0.0159
71744W        W14657  12.719  28.558  28.471 -0.1796  0.0286 -0.1952
71745W        W14658   2.518  21.570   3.408  0.0408 -0.2247  0.0625
71746W        W14659   4.220  14.493   0.310  0.1169  0.1321 -0.2463
71747W        W14660   2.198  16.714   6.735 -0.1229 -0.0184 -0.2665
71748W        W14661   1.807  14.258   4.222  0.0442  0.1147 -0.2561
71749W        W14662  24.034  19.441  28.983  0.0314  0.0024 -0.0988
71750W        W14663   7.235  11.313   2.969 -0.2403  0.0681  0.2202
71751W        W14664   6.207  22.027   4.005 -0.1967 -0.1904  0.1033
71752W        W14665   4.042  13.294  25.651 -0.1498  0.1394  0.0598
71753W        W14666   7.602  25.379   1.141  0.1235 -0.1512 -0.1307
71754W        W14667  33.694  11.424   1.189 -0.0069  0.1944 -0.0049
71755W        W14668   1.213  19.689   8.301 -0.1882 -0.0995  0.3220
71756W        W14669  34.284  25.874   8.727  0.2116 -0.1753  0.0151
71757W        W14670  34.474  33.828  25.871  0.1554 -0.1077  0.0588
71758W        W14671   7.306  24.471   3.557 -0.2024  0.0729 -0.1650
71759W        W14672   5.813   5.407  20.761  0.0703  0.3181  0.0335
71760W        W14673  15.219  11.831  17.165  0.1641  0.1731 -0.0856
71761W        W14674  30.844  20.345   2.556  0.5178  0.2557  0.1470
71762W        W14675  10.553  14.502  29.558 -0.0112  0.2248  0.0083
71763W        W14676   2.102  17.165   4.919 -0.2626 -0.0976  0.1126
71764W        W14677  12.620  11.913  25.630 -0.2230 -0.1046 -0.4563
71765W        W14678   5.948  19.881   1.714 -0.1221  0.0936 -0.0137
71766W        W14679   5.841  15.207   1.208  0.0651  0.4024 -0.1653
71767W        W14680   3.448  34.462   1.043 -0.0427  0.2007  0.2062
71768W        W14681  32.676  18.821   2.282  0.2100  0.0141 -0.1269
71769W        W14682  30.330  18.680   0.969 -0.3045 -0.0079 -0.0471
71770W        W14683  16.851  18.009  25.752 -0.1880  0.0593 -0.1947
71771W        W14684   3.904  17.446   9.932  0.1055 -0.1619  0.1711
71772W        W14685  27.877  21.829  26.499  0.0366  0.1168 -0.1695
71773W        W14686   2.846  28.480   0.682  0.2132 -0.0425 -0.0994
71774W        W14687  34.281  26.425   7.487 -0.1108 -0.0916 -0.3345
71775W        W14688   5.148  19.095   1.991 -0.1988  0.4278 -0.0318
71776W        W14689   5.877  24.476   5.847 -0.1138  0.1411  0.2498
71777W        W14690   8.870  24.938  29.632 -0.0113 -0.0092 -0.0568
71778W        W14691  11.132  14.693  29.469  0.3040  0.1802 -0.0321
71779W        W14692  13.672  11.208  24.666 -0.1285 -0.0608  0.0403
71780W        W14693  25.263  21.201   0.159  0.1394  0.0681  0.0639
71781W        W14694   5.948  25.386   7.663 -0.3708 -0.1636 -0.3313
71782W        W14695  10.072  18.527   5.750 -0.1186  0.0509 -0.2436
71783W        W14696  11.386  15.170   0.666  0.0014 -0.0603  0.5964
71784W        W14697   5.305  26.565  27.635  0.1109  0.0075 -0.1443
71785W        W14698  33.016  30.653   4.434  0.1271  0.2340  0.5561
71786W        W14699   8.702  19.824   3.845 -0.0335  0.0261 -0.0741
71787W        W14700   9.613  15.655   0.840 -0.3458 -0.0607 -0.1061
71788W        W14701   7.813  20.991   3.318 -0.0972 -0.0944  0.0644
71789W        W14702  14.250  18.733  24.801 -0.0980 -0.1446  0.0378
71790W        W14703  12.300  19.905   3.370  0.2015  0.1069 -0.2422
71791W        W14704   0.076  16.701   5.087  0.0389  0.1025  0.1493
71792W        W14705  10.561   7.714  11.506 -0.1744  0.2237  0.2480
71793W        W14706   2.084  17.615   2.947  0.1445  0.1024 -0.0501
71794W        W14707   6.846  20.992   5.347 -0.0057  0.1411 -0.0346
71795W        W14708   7.910  30.604   1.748 -0.0589  0.2511  0.0252
71796W        W14709   3.975  19.080   0.657 -0.1842 -0.1196 -0.0392
71797W        W14710   4.035  10.869   4.050 -0.1339  0.0820 -0.0995
71798W        W14711   8.680  20.803  27.551  0.0502  0.0131  0.2189
71799W        W14712  28.700  15.450   6.931  0.0307 -0.1536  0.0996
71800W        W14713   3.958  18.617  28.873 -0.1984  0.1367 -0.0335
71801W        W14714   4.170  14.867   0.691  0.3488 -0.0208 -0.0267
71802W        W14715   3.855  13.215   3.386 -0.1137  0.1184  0.0310
71803W        W14716  16.618  14.997   2.517  0.2372  0.0959 -0.4111
71804W        W14717   0.170  16.831  18.945  0.2864 -0.2858  0.2246
71805W        W14718  15.582  19.564   0.638  0.2837  0.2277  0.0601
71806W        W14719   1.372  18.133  25.153  0.0136 -0.2791 -0.2949
71807W        W14720  32.507  17.004   3.858  0.1674  0.1070 -0.2831
71808W        W14721  13.130  19.430  28.126  0.0209  0.0529 -0.1985
71809W        W14722   4.104  24.085   5.620 -0.1434 -0.0915  0.2275
71810W        W14723   4.714  27.476  28.928  0.1846 -0.0286 -0.1126
71811W        W14724   7.927  16.420   4.552 -0.3420 -0.0749 -0.0507
71812W        W14725   6.828  14.781   2.387 -0.1400 -0.2801 -0.0029
71813W        W14726  31.352   5.858   4.213 -0.0418  0.0979  0.1352
71814W        W14727   8.192  28.934  27.498 -0.0145  0.2952  0.1029
71815W        W14728   4.752  13.607   5.208  0.1726  0.0710 -0.1317
71816W        W14729   2.342  29.167   9.448 -0.0417 -0.1249  0.0871
71817W        W14730  23.290  21.213  28.223  0.2308  0.0786  0.0464
71818W        W14731  11.318  30.790   7.435  0.2087  0.0174  0.1202
71819W        W14732   0.806  33.365  20.051 -0.1134  0.0368 -0.2000
71820W        W14733   9.082  26.463   4.398  0.1377  0.1379 -0.0569
71821W        W14734   5.535  20.959   8.080  0.2202  0.0933 -0.1447
71822W        W14735  11.661  16.290   8.123 -0.1090  0.1131 -0.2464
71823W        W14736   4.199  19.878  27.052  0.2795 -0.1719 -0.2148
71824W        W14737   3.246  16.676  20.319  0.2309 -0.2394  0.1785
71825W        W14738  33.240  19.436   8.701 -0.0595 -0.0658  0.0368
71826W        W14739  17.880  19.063  23.332 -0.0615  0.2360  0.1461
71827W        W14740  33.371  16.831  25.896  0.0737 -0.0922  0.2943
71828W        W14741   6.961  26.864  27.276 -0.3290  0.0865  0.0699
71829W        W14742  31.627  16.117   1.297  0.1131 -0.1566 -0.1631
71830W        W14743   9.794  15.790   1.689  0.0619  0.1375 -0.0698
71831W        W14744   2.565  18.512  26.135  0.1867 -0.2829 -0.1555
71832W        W14745   2.948  22.012   8.716  0.1286 -0.1104 -0.0562
71833W        W14746  30.303  13.424  27.737 -0.0613  0.1218 -0.1932
71834W        W14747   6.760  20.706   9.174 -0.0480  0.0387  0.1696
71835W        W14748  10.855  20.335   8.659 -0.1360  0.0391  0.2536
71836W        W14749  10.664  28.449   3.728  0.0170 -0.0681 -0.0580
71837W        W14750   7.269  14.145  26.837 -0.3756  0.0534  0.0040
71838W        W14751  32.514  16.095   9.737  0.5620 -0.1699  0.1944
71839W        W14752   6.601  18.728   0.831  0.0414  0.2880  0.0611
71840W        W14753   7.321  23.983  23.123  0.0197 -0.0514  0.0996
71841W        W14754  13.151  14.614  23.814  0.0269  0.2355 -0.0753
71842W        W14755   2.426  32.579  25.805 -0.0544 -0.1200  0.1607
71843W        W14756   8.724  24.572   8.290 -0.1982 -0.0607 -0.2272
71844W        W14757  31.758  12.132   8.482 -0.0202  0.3498  0.1021
71845W        W14758   2.178  11.826   3.298  0.1667 -0.3368 -0.0691
71846W        W14759  15.375  23.641   4.689  0.5557  0.3436 -0.0617
71847W        W14760  30.188  14.781  10.161  0.0805  0.0878 -0.1270
71848W        W14761   4.692  12.213  10.150 -0.3244 -0.1413 -0.1071
71849W        W14762  13.412   9.591   4.398  0.2096  0.1591  0.1613
71850W        W14763  27.430  28.899  21.471  0.1646 -0.2516  0.0762
71851W        W14764   7.388  26.961   5.209 -0.0129  0.0331  0.1224
71852W        W14765  15.418  25.865   8.254 -0.0785  0.0971 -0.2539
71853W        W14766  11.331   8.285   1.953  0.2948 -0.1353  0.1447
71854W        W14767   1.942  12.244   0.266  0.0450 -0.2914  0.1039
71855W        W14768   8.264  12.413  26.376  0.1461  0.0496  0.1110
71856W        W14769   7.649  24.232   1.792  0.1547  0.1285 -0.0445
71857W        W14770   5.130  20.267   6.756 -0.0831 -0.0078 -0.1105
71858W        W14771  26.519  27.301  27.398 -0.1000 -0.2173 -0.0363
71859W        W14772   4.610  19.646   3.105 -0.1738  0.0041  0.0104
71860W        W14773   2.713  18.389   5.607 -0.1028 -0.2714  0.1395
71861W        W14774  10.901  13.968   4.343 -0.1524  0.1930  0.4000
71862W        W14775  12.185  16.278   8.206  0.2864  0.1738  0.4072
71863W        W14776   4.398  24.223   1.648 -0.1079 -0.0804  0.1124
71864W        W14777   3.817  17.835   7.437  0.1255 -0.1781  0.1438
71865W        W14778   9.933  16.518   3.900 -0.3248  0.2627 -0.1357
71866W        W14779  22.926  17.956  27.188  0.0145 -0.0062 -0.1950
71867W        W14780  24.535  22.898  21.093  0.0895  0.1247  0.1290
71868W        W14781  11.289  18.774  23.131  0.2677  0.1275 -0.2035
71869W        W14782  16.106  18.318  27.232  0.1171 -0.0149  0.1987
71870W        W14783   1.683  18.495   8.065 -0.0431  0.1357 -0.2743
71871W        W14784  27.697  12.540  21.556  0.1257  0.1308 -0.0979
71872W        W14785  16.641  26.169   3.938  0.0272  0.4114  0.0688
71873W        W14786  10.943  17.955   4.598  0.2017 -0.0528 -0.0031
71874W        W14787   7.609  20.067  27.669  0.1739 -0.3095 -0.0691
71875W        W14788  28.754  17.245  22.016 -0.1737  0.0991  0.1129
71876W        W14789  11.504  22.510   9.053  0.2907  0.3585  0.0704
71877W        W14790   1.832  17.702   8.948 -0.0904 -0.1852  0.0652
71878W        W14791   1.719  20.129  25.446  0.0730 -0.0198 -0.0838
71879W        W14792  10.857  21.393  21.674 -0.2126  0.2093  0.0138
71880W        W14793  31.926  24.315  24.687 -0.0142 -0.0732  0.0334
71881W        W14794  34.195  21.974   2.409 -0.0889  0.0018 -0.0522
71882W        W14795  28.798  21.848  28.550  0.2090  0.1199  0.1301
71883W        W14796  11.871  17.364  22.654 -0.1531  0.2752  0.0227
71884W        W14797   8.816  15.261   2.389  0.2172 -0.0098  0.0006
71885W        W14798  10.370  11.660   5.969  0.3457  0.3175 -0.4587
71886W        W14799   8.063   6.532   1.268 -0.0776  0.1317 -0.2649
71887W        W14800  14.283  32.081  10.470  0.1905  0.2187  0.0778
71888W        W14801   8.149  18.116  28.496  0.2889  0.3223 -0.1333
71889W        W14802   2.189  12.034  29.253  0.1145  0.2214 -0.1069
71890W        W14803  31.309  21.352  23.274  0.0603  0.1847  0.0308
71891W        W14804   9.900  27.079   7.011 -0.0041 -0.0931 -0.0474
71892W        W14805   3.877  14.717  27.089 -0.0536  0.0929  0.2060
71893W        W14806  12.112  18.043   4.588 -0.3952 -0.0014  0.0254
71894W        W14807   8.657  13.462   2.532 -0.0816 -0.0352 -0.1253
71895W        W14808   1.876  23.774  28.930  0.3824 -0.0060 -0.2645
71896W        W14809   1.144  19.052   6.516  0.4118 -0.1375  0.1429
71897W        W14810  10.479  18.786  24.474 -0.3480  0.3413 -0.0238
71898W        W14811   9.584  11.410  29.005 -0.2560 -0.1847  0.0589
71899W        W14812  12.569  23.730  19.066  0.1029 -0.0930  0.0226
71900W        W14813   0.844  21.257   7.454  0.0053  0.3816  0.3814
71901W        W14814   0.758  21.085   5.023 -0.2124  0.0168  0.0483
71902W        W14815  12.788  22.667   6.637 -0.1424  0.0139  0.0105
71903W        W14816   0.822  12.992  19.972  0.1498 -0.0228  0.1464
71904W        W14817   2.091  21.501   6.893 -0.0639 -0.3060 -0.0686
71905W        W14818   7.247  17.886   3.361 -0.1050 -0.2567 -0.1814
71906W        W14819   4.170  22.914   7.168 -0.1836  0.0632  0.0324
71907W        W14820  34.383  28.424   3.419  0.1546  0.0892  0.1748
71908W        W14821  11.522  26.867   1.274  0.1588 -0.2041  0.1409
71909W        W14822   9.650  17.866   1.663 -0.0890  0.0465  0.0435
71910W        W14823   0.864  10.706  26.940 -0.3330  0.1953  0.2071
71911W        W14824   7.068  27.695  19.302  0.0667  0.3404 -0.2089
71912W        W14825   3.140  19.487   9.443 -0.1705  0.4055  0.3351
71913W        W14826  32.563  23.985  28.420  0.1106  0.0787  0.0577
71914W        W14827   1.438  29.447  10.588  0.1146  0.2523  0.0575
71915W        W14828  25.785  22.754  29.613 -0.1485  0.1089  0.1529
71916W        W14829   4.829  17.622  29.033  0.1949 -0.0973 -0.1643
71917W        W14830   2.110  21.985  22.463  0.2064 -0.1842  0.0478
71918W        W14831   9.593   6.889   1.544  0.4944 -0.0961  0.2693
71919W        W14832  19.891  27.100   6.805 -0.0063  0.1929 -0.1780
71920W        W14833   8.128  16.983   8.307  0.0071  0.0866 -0.1276
71921W        W14834  31.787  20.579  26.019  0.2501  0.1245 -0.1882
71922W        W14835   8.897  20.875  26.057 -0.2696 -0.0361 -0.0576
71923W        W14836   1.249  12.256   4.969  0.0166  0.1887 -0.1312
71924W        W14837   5.966   7.880  25.153  0.1360 -0.3481  0.0303
71925W        W14838   1.740  26.994  28.750 -0.0473 -0.2401  0.1830
71926W        W14839   2.257  25.822   4.496  0.7792 -0.1337 -0.0183
71927W        W14840   5.310  19.296   9.107 -0.3583  0.1791  0.0670
71928W        W14841   5.701  14.033  10.805  0.0481  0.0774 -0.0904
71929W        W14842   4.384  19.391   2.226  0.3151 -0.2094 -0.0423
71930W        W14843  25.285  23.173   2.063  0.0324  0.2293  0.1889
71931W        W14844   0.951  27.306   4.074 -0.1250 -0.0928  0.2567
71932W        W14845   9.226  27.184   3.832  0.1642  0.3394  0.2367
71933W        W14846  28.827  28.272   6.643 -0.0055  0.1583 -0.1592
71934W        W14847  12.483  17.177   4.126  0.1613  0.1006  0.0878
71935W        W14848   2.772  21.508   8.718  0.0732 -0.0679  0.1960
71936W        W14849   2.887  15.181   4.948 -0.1969 -0.1090 -0.2260
71937W        W14850   4.924  21.143  21.854 -0.0304  0.0651 -0.2479
71938W        W14851   4.215   8.540  24.140 -0.0248  0.0504  0.2427
71939W        W14852  28.013  20.082   6.171  0.0518 -0.2610 -0.0344
71940W        W14853  12.578  18.449  28.236  0.0896  0.2523  0.3048
71941W        W14854   3.140  17.551   4.091 -0.0984 -0.1784  0.0685
71942W        W14855   1.511  23.018   7.231 -0.0140  0.0031  0.0062
71943W        W14856   5.144  17.057  22.734 -0.0927  0.1206  0.0218
71944W        W14857   7.430  13.937  29.377  0.2126  0.0770 -0.0414
71945W        W14858  10.765  17.098   1.192  0.0991 -0.2812 -0.0942
71946W        W14859   2.581  16.854   9.579 -0.1997  0.4084 -0.0018
71947W        W14860  25.781  22.967  21.425  0.2418  0.0063  0.3097
71948W        W14861  27.991  32.573   9.209 -0.3101 -0.2189  0.0981
71949W        W14862  12.960   9.641   1.194  0.2061  0.4418  0.2296
71950W        W14863   4.854  27.295   1.204  0.3754  0.1295 -0.2186
71951W        W14864  33.106  12.467  27.827 -0.0667  0.0558 -0.0851
71952W        W14865   1.148  29.353   3.308 -0.5744 -0.0475 -0.0501
71953W        W14866  17.571  15.086   4.180 -0.1882  0.0583  0.2465
71954W        W14867  14.093  28.319  29.264  0.1488 -0.1099  0.1581
71955W        W14868   4.157  22.993  29.765  0.0034  0.0037  0.0633
71956W        W14869   1.647  11.408  27.019  0.2197 -0.2977  0.0610
71957W        W14870   3.650   9.552   4.522 -0.0824  0.1888  0.1562
71958W        W14871  30.468  22.677   7.713  0.0731 -0.1002 -0.0866
71959W        W14872  12.562  24.534   1.995  0.0328  0.0998  0.4365
71960W        W14873  14.248  19.967  20.141 -0.0090  0.0347  0.4185
71961W        W14874  28.681  24.851   1.678  0.1636  0.0140  0.0990
71962W        W14875   4.432  13.514   1.779 -0.0194  0.1128  0.1922
71963W        W14876  12.882  31.396  24.695  0.1755 -0.0896 -0.2518
71964W        W14877  17.058   7.554  29.720 -0.2117 -0.1732 -0.0407
71965W        W14878  19.026  14.522   0.546 -0.0062 -0.2813  0.1061
71966W        W14879   4.988  31.617  27.014 -0.1654  0.1078 -0.0333
71967W        W14880   6.597  20.952  28.572 -0.1301 -0.2565  0.1488
71968W        W14881   4.296  13.663   8.804 -0.2221  0.4939  0.1200
71969W        W14882   4.846  10.687   9.932 -0.0716 -0.0706 -0.1209
71970W        W14883  32.117  23.017  27.008  0.1197 -0.4392 -0.0854
71971W        W14884   3.552   6.406   2.537 -0.2897  0.1688  0.3824
71972W        W14885  12.278  11.820   8.187  0.2611 -0.1964  0.2048
71973W        W14886  15.162  10.878   3.405 -0.2703 -0.4269 -0.0535
71974W        W14887  13.736  23.858  26.508  0.2388 -0.0284  0.1774
71975W        W14888   9.122  22.643  29.541 -0.0137  0.0432  0.0998
71976W        W14889   4.627  17.041  25.146  0.1285 -0.0085  0.1225
71977W        W14890  15.489  22.968   7.236 -0.0720 -0.2846  0.0296
71978W        W14891   7.747  10.444   9.262  0.1198  0.0619 -0.1649
71979W        W14892   6.276  13.282   2.391 -0.2140  0.1922  0.4105
71980W        W14893  29.003  23.158  26.533 -0.0079  0.3126  0.1619
71981W        W14894   2.774  13.909  25.504  0.0892  0.1071 -0.2434
71982W        W14895   1.156   0.619  23.753  0.0250  0.1457 -0.2682
71983W        W14896   5.797  16.716  28.048  0.1446  0.2133  0.2849
71984W        W14897  14.302  13.178   8.155 -0.2316 -0.0293  0.1850
71985W        W14898  11.160  19.025   1.592  0.2398 -0.0433 -0.2901
71986W        W14899  25.978  18.813   4.043 -0.1502  0.3061  0.1402
71987W        W14900   4.866  19.103  24.030 -0.1328 -0.1057 -0.0590
71988W        W14901   4.165  16.605   4.689 -0.0560 -0.1728  0.0120
71989W        W14902   9.429  21.820  27.043  0.2307  0.2540  0.1793
71990W        W14903   3.889  21.603   9.442 -0.1537  0.0013 -0.2611
71991W        W14904   3.870   8.536  11.726  0.0210  0.2038 -0.0513
71992W        W14905   7.406  26.638  22.367 -0.0621 -0.1314  0.1901
71993W        W14906   2.193   1.297   9.181  0.0201 -0.0556 -0.3983
71994W        W14907  22.624  18.662   6.655 -0.2572 -0.3897 -0.0380
71995W        W14908   9.367  17.598  23.124  0.0795  0.3191  0.1816
71996W        W14909  11.279  13.070  28.036 -0.4267  0.1922  0.0808
71997W        W14910  32.532  28.996  29.686  0.1230  0.1720 -0.0837
71998W        W14911   8.233  31.361   8.411  0.0545 -0.0594 -0.1769
71999W        W14912  12.729  21.647   4.980 -0.0968 -0.0367 -0.2602
72000W        W14913  28.007  24.721  25.196 -0.1184  0.1809  0.1372
72001W        W14914  29.125  17.122   5.328  0.0905 -0.2876  0.1539
72002W        W14915   0.305  17.966   1.607 -0.2151 -0.0873 -0.1151
72003W        W14916   5.554  15.166  29.078 -0.0922  0.0867  0.0653
72004W        W14917   3.338   0.838   3.435 -0.3387 -0.1299 -0.1579
72005W        W14918   9.442  15.385   9.234  0.2351 -0.0668  0.1409
72006W        W14919   8.919  31.944  11.845  0.0561 -0.0661  0.1240
72007W        W14920  26.245  23.394  26.661 -0.1160  0.0737  0.1400
72008W        W14921   9.428  29.089  11.939  0.2398  0.1178 -0.1543
72009W        W14922  33.985  13.528  29.201  0.0076  0.2169  0.3798
72010W        W14923  16.385  21.020   3.756 -0.4659  0.0270  0.2717
72011W        W14924  14.423  13.276  25.710 -0.0249  0.1420  0.1807
72012W        W14925   6.705   9.027  29.533 -0.4119  0.2044 -0.0088
72013W        W14926  18.494   7.654  28.141 -0.0772 -0.1484 -0.1423
72014W        W14927  32.672  21.832  21.989  0.1927  0.0896 -0.2173
72015W        W14928   1.850   7.642  22.148  0.2718  0.1751 -0.2044
72016W        W14929  11.316  32.205   1.014  0.2952 -0.0811 -0.1117
72017W        W14930   3.154  32.912   6.252 -0.1066  0.0456  0.2048
72018W        W14931   4.948  17.914   9.494  0.2518  0.2640  0.0285
72019W        W14932   5.209  34.125   5.466  0.1371 -0.1834  0.1791
72020W        W14933   1.756  15.052  28.997 -0.1428  0.0818  0.2999
72021W        W14934   6.315  24.359   4.274 -0.1059 -0.0377 -0.1846
72022W        W14935  14.180  29.877   0.756  0.3290  0.1016  0.3670
72023W        W14936   7.765  13.530  26.212 -0.3409 -0.1487  0.0615
72024W        W14937   2.103  13.554   5.034  0.0315 -0.0622  0.0361
72025W        W14938   6.603  11.760  24.549  0.0864  0.1858 -0.0231
72026W        W14939  10.311   7.417  23.136 -0.2199  0.4054  0.2274
72027W        W14940  19.427  18.430   4.468 -0.1648  0.1837  0.3196
72028W        W14941   2.887  24.149   4.308  0.0567  0.0644 -0.2166
72029W        W14942  11.722  13.587  26.863  0.0546 -0.2096  0.1616
72030W        W14943   5.569   9.227  10.729  0.1651 -0.0171 -0.0915
72031W        W14944   4.594  31.637   1.980 -0.1456  0.0641 -0.2779
72032W        W14945  33.003  15.525  14.518 -0.1174  0.0022 -0.1285
72033W        W14946   0.282  21.007   4.801  0.1028  0.2676 -0.2435
72034W        W14947  34.096  21.714   5.132 -0.0063  0.2986 -0.1140
72035W        W14948  16.411  21.543  24.653 -0.0057  0.0390  0.3952
72036W        W14949   1.659  24.292   3.107  0.0487  0.0113  0.2464
72037W        W14950  12.383  17.765  20.366  0.1066  0.2279 -0.0479
72038W        W14951  33.003   4.213  20.515  0.1704 -0.2537 -0.0271
72039W        W14952  17.083  11.961   0.444  0.2680  0.0799 -0.1420
72040W        W14953  31.238  21.567   5.866  0.0738  0.0006  0.1136
72041W        W14954  15.333  13.263  28.861  0.2813 -0.2040  0.3850
72042W        W14955   9.136  14.158   3.114  0.0501 -0.2638  0.0037
72043W        W14956   3.339  26.734   4.589 -0.1612 -0.4292  0.0190
72044W        W14957   0.095  14.411  21.530 -0.2275 -0.1260 -0.0184
72045W        W14958   8.285  14.303  22.513 -0.0394  0.2056 -0.3582
72046W        W14959   8.718  18.228   9.424  0.0981 -0.3369 -0.0825
72047W        W14960  21.536  22.919   6.879 -0.0406  0.0521  0.1554
72048W        W14961   7.597  21.350  15.288  0.0606  0.0900 -0.0867
72049W        W14962  33.536  27.430  25.812 -0.1328 -0.3510  0.2070
72050W        W14963   4.564   8.550   5.024  0.1093  0.2246 -0.5112
72051W        W14964  13.009  19.066   4.152 -0.3778 -0.0748 -0.3297
72052W        W14965  12.652  15.164  28.840  0.2763 -0.1202  0.0876
72053W        W14966  16.668  20.417   3.146  0.2547  0.0585 -0.0442
72054W        W14967   8.699  13.083   0.895 -0.2467  0.0471 -0.2840
72055W        W14968   8.196  26.260   5.507  0.0240  0.0109 -0.1260
72056W        W14969   8.774  17.988  29.158 -0.0042 -0.0039  0.0595
72057W        W14970  32.778  12.224   2.997  0.1293  0.1314 -0.0508
72058W        W14971  19.877  11.766   0.526  0.0009  0.3958  0.1195
72059W        W14972   1.285  15.667   5.006  0.3208 -0.0247 -0.2297
72060W        W14973   9.914  21.869   8.959 -0.2745  0.0739  0.3047
72061W        W14974  30.446  22.187   0.380  0.0715 -0.3528 -0.1222
72062W        W14975  32.890  12.503   6.332  0.0770 -0.0344  0.0948
72063W        W14976   2.320  21.396   9.988  0.0048 -0.0136 -0.1754
72064W        W14977   7.819  13.280  10.596  0.3426  0.0626 -0.2402
72065W        W14978   9.659  14.176  27.629  0.0794 -0.0620  0.0767
72066W        W14979  33.114  14.367   1.133  0.2199  0.1484  0.0130
72067W        W14980   8.518  28.828   9.501 -0.1805  0.0854  0.1343
72068W        W14981  13.734  14.045   5.754  0.2296 -0.1772 -0.0571
72069W        W14982   7.054  25.858  27.182 -0.1719  0.1424 -0.3378
72070W        W14983   0.646  14.089  28.073 -0.1699 -0.2750 -0.1365
72071W        W14984   5.328  19.375   0.667  0.1100  0.1356  0.0801
72072W        W14985  19.691  18.230   0.614 -0.2228 -0.1434  0.0267
72073W        W14986  30.094  18.715   2.683 -0.1997  0.2213  0.1387
72074W        W14987  12.301  24.051  29.204  0.0332 -0.0657 -0.1219
72075W        W14988  34.393   9.688   1.896  0.2486  0.3586  0.2847
72076W        W14989   8.791  29.901   6.400 -0.0878  0.2593  0.0491
72077W        W14990   2.397  22.976   8.773 -0.3342  0.0390  0.0306
72078W        W14991   8.208  16.171   9.555 -0.1636 -0.1597 -0.0541
72079W        W14992   1.380   3.960   4.514 -0.2550  0.0382  0.0651
72080W        W14993  33.246   9.614  10.652 -0.0448  0.3035 -0.3336
72081W        W14994   9.353  28.397   7.600  0.1097  0.1717  0.0048
72082W        W14995  32.366  13.217   1.564  0.1631  0.0304  0.0524
72083W        W14996   2.517  32.244   6.673  0.0071 -0.2235  0.1021
72084W        W14997   6.722  14.913   4.553 -0.1740 -0.0219  0.3157
72085W        W14998   4.544  23.550   9.180 -0.2631 -0.1490  0.0538
72086W        W14999   8.742  20.908   0.787 -0.4570  0.0665  0.0076
72087W        W15000  17.027  25.042   2.043  0.2505 -0.1166  0.0593
72088W        W15001   4.575  24.301   5.581  0.2066  0.0450  0.2089
72089W        W15002  27.500   1.736   8.470 -0.2691 -0.0679  0.1600
72090W        W15003  33.613   0.331   5.184  0.0337  0.1530 -0.3206
72091W        W15004   1.427  16.249   9.512 -0.3715 -0.0885 -0.0205
72092W        W15005  33.184  20.234   5.918  0.0446 -0.0622 -0.2285
72093W        W15006   1.156  21.734   5.193 -0.1135  0.0001 -0.1567
72094W        W15007   4.719  23.937   0.781  0.1895 -0.2223 -0.2894
72095W        W15008   7.883  33.129   7.546 -0.0577  0.0432  0.3349
72096W        W15009  15.636  27.547   1.089  0.2618 -0.0413  0.2661
72097W        W15010  15.122  11.309   3.114  0.1480  0.0559 -0.1522
72098W        W15011   8.475  31.225   5.011  0.2593 -0.1984  0.2346
72099W        W15012   0.503  13.245   1.230 -0.4708  0.0785  0.0845
72100W        W15013  26.797  21.376   1.742 -0.3026  0.1902  0.0086
72101W        W15014  33.313  19.125   6.003 -0.2341  0.0930 -0.0021
72102W        W15015  11.705  20.984   5.194 -0.2076  0.1920  0.3213
72103W        W15016   4.207  17.540   5.778  0.1860 -0.0851 -0.0666
72104W        W15017   2.045  22.055   7.138 -0.1405  0.1816  0.0125
72105W        W15018  12.881  19.604   1.045 -0.1339 -0.1197 -0.1557
72106W        W15019  11.136  32.764   7.747 -0.0536  0.0380  0.2592
72107W        W15020   2.091  28.656   8.202 -0.0183 -0.4489 -0.4202
72108W        W15021  31.801  20.376   9.508 -0.1592 -0.2828  0.3389
72109W        W15022   6.250  15.534   1.074  0.1518  0.1693  0.0169
72110W        W15023   6.016  24.000   7.395 -0.2018  0.0322  0.0406
72111W        W15024  12.267  20.233   8.158 -0.0672 -0.0786  0.1367
72112W        W15025  13.193  10.429  26.785  0.0571  0.2861 -0.1147
72113W        W15026   6.003   1.352   4.844  0.1108  0.1283  0.2304
72114W        W15027   2.004  16.690   5.641  0.0018  0.0464 -0.0597
72115W        W15028   5.405  31.475   6.302 -0.1454 -0.2334  0.0663
72116W        W15029   4.002  22.940   0.535  0.2095 -0.0359  0.0834
72117W        W15030  12.688  16.301  26.355  0.0262  0.0811 -0.0812
72118W        W15031   9.691  12.653   9.472 -0.0541 -0.1312 -0.0639
72119W        W15032   7.786  13.675   4.050  0.1054 -0.3131  0.0435
72120W        W15033  31.525  25.729   4.990  0.0340 -0.3957 -0.1484
72121W        W15034  28.800  16.552   3.222 -0.2835  0.0713 -0.1035
72122W        W15035   6.218  30.520  29.735 -0.0353 -0.1856 -0.1501
72123W        W15036   2.952  10.539  24.451 -0.1466 -0.1724 -0.1739
72124W        W15037   6.386   7.369   8.848 -0.0775 -0.1332 -0.2100
72125W        W15038   8.820  24.422   7.062 -0.0795 -0.0427  0.0038
72126W        W15039  11.717  15.581   8.509 -0.3462  0.2435 -0.1778
72127W        W15040  10.823  24.516  25.904  0.2214 -0.1132  0.2662
72128W        W15041  16.351  19.387  26.143  0.0790  0.0722 -0.0388
72129W        W15042   1.419  29.348  29.295  0.0466 -0.0896 -0.2499
72130W        W15043   9.027  25.698   4.415 -0.0185 -0.2272 -0.1510
72131W        W15044  34.083  18.606   6.170  0.3425  0.0190 -0.5464
72132W        W15045   0.964  31.358   0.326 -0.1608 -0.0635  0.1287
72133W        W15046  33.038   7.836  28.408 -0.0265 -0.0115  0.2165
72134W        W15047   8.454  17.763   4.221 -0.2627 -0.3351  0.0741
72135W        W15048   3.303  15.888  28.676  0.3677 -0.2212 -0.0133
72136W        W15049   1.556  12.264   3.908  0.0634  0.1266 -0.0764
72137W        W15050  33.071  20.810   9.302 -0.0265 -0.1778 -0.0263
72138W        W15051   3.056  28.196   1.023 -0.0492  0.1477 -0.5014
72139W        W15052   2.456  20.464  26.183 -0.2354  0.2071 -0.1452
72140W        W15053   2.700  18.306   9.933 -0.2050 -0.0946  0.0601
72141W        W15054  13.885  17.869   6.104  0.0394  0.0693 -0.1760
72142W        W15055  20.762  17.178   0.876  0.4821 -0.0200  0.2907
72143W        W15056  12.559   8.372   0.208 -0.1248 -0.0283  0.1483
72144W        W15057   5.914   6.779  12.445 -0.1887 -0.1289  0.0922
72145W        W15058  12.255  23.410  27.466 -0.0782  0.2114  0.0377
72146W        W15059   1.789  28.956   7.028  0.0051 -0.1812 -0.0306
72147W        W15060  10.814  21.135  27.442 -0.1551 -0.1634 -0.4014
72148W        W15061  25.468  15.564   7.716  0.0825  0.1401 -0.1222
72149W        W15062   6.732  16.801  28.279  0.2086 -0.3236  0.1509
72150W        W15063   1.267  27.816   3.631 -0.2127 -0.2638  0.0164
72151W        W15064  33.462  26.129   6.649  0.0605 -0.0821  0.1508
72152W        W15065  30.822  10.484   0.510  0.0300  0.4255  0.1603
72153W        W15066  33.555  24.640   6.876 -0.3339 -0.1528  0.2361
72154W        W15067  13.394   6.366   5.728  0.2431 -0.1997  0.1581
72155W        W15068   9.787  10.939   4.628  0.2760  0.0352 -0.2334
72156W        W15069   9.463  18.497   7.703 -0.2480  0.0512 -0.0289
72157W        W15070   8.882   4.778  13.259 -0.0735 -0.1586 -0.0187
72158W        W15071   7.438  23.411   6.228  0.4179 -0.2329  0.0029
72159W        W15072  16.244   8.995   1.677 -0.2770 -0.2048  0.1220
72160W        W15073   8.070  29.281   7.902  0.2021 -0.3065  0.2921
72161W        W15074   8.116  17.171  29.179  0.0518  0.0170  0.1314
72162W        W15075  25.474  22.790   0.212  0.1499 -0.1024 -0.0752
72163W        W15076   0.506  17.312   7.258  0.2557 -0.2363 -0.3236
72164W        W15077  26.331  17.119   3.290 -0.0314  0.0260  0.0141
72165W        W15078   4.947   8.753   4.233  0.2070  0.4924  0.0780
72166W        W15079   9.016   8.416   5.306 -0.3322 -0.1431 -0.0001
72167W        W15080   7.209  28.864   6.410 -0.2344 -0.2936  0.2288
72168W        W15081   7.901  18.220   2.693 -0.1507  0.0228  0.0140
72169W        W15082  12.568  31.854   3.935  0.0791 -0.2282  0.2024
72170W        W15083  33.908  16.740   7.303 -0.3706 -0.3922  0.0827
72171W        W15084   6.613  16.740   6.223 -0.3958 -0.1036  0.0477
72172W        W15085  31.962  23.455   0.573 -0.0523 -0.1107  0.0135
72173W        W15086   5.953  14.216   8.860 -0.3147 -0.1898 -0.0600
72174W        W15087  11.793  16.418   7.596 -0.1598  0.1590  0.0625
72175W        W15088  12.082  17.662  26.621  0.3538  0.4207 -0.1819
72176W        W15089   5.731  31.181   5.307  0.1021 -0.1952  0.1105
72177W        W15090   8.524   5.538   3.817 -0.1590 -0.0270  0.1070
72178W        W15091  29.387  22.824   2.587 -0.2242  0.2165  0.0963
72179W        W15092   3.050  17.459   5.554 -0.0761  0.3493  0.3209
72180W        W15093   8.223  24.962   3.520 -0.1083  0.2400  0.0035
72181W        W15094  11.080  21.320   7.609  0.0363  0.2006 -0.0964
72182W        W15095   6.914  26.432   7.465  0.0599  0.1767 -0.0668
72183W        W15096   2.963  16.741   8.010  0.0396  0.2635  0.3676
72184W        W15097   9.570  31.851   8.333  0.2395 -0.0944 -0.1481
72185W        W15098   6.240   8.682   4.362 -0.1103  0.1245  0.2193
72186W        W15099  27.634   6.204   1.024 -0.1318 -0.4333 -0.0716
72187W        W15100   0.512  29.889   9.473 -0.3671  0.0113 -0.0859
72188W        W15101   5.065  20.187   1.798 -0.3017  0.0926 -0.0458
72189W        W15102   4.472  22.001   7.743  0.0408 -0.0493  0.1025
72190W        W15103   3.979  17.290  28.014  0.1294  0.0526  0.2135
72191W        W15104   0.573  25.374   6.786 -0.0310 -0.1191  0.1874
72192W        W15105   2.099  14.587  26.501  0.0693 -0.1928  0.0438
72193W        W15106   9.233  16.549  27.802 -0.1095  0.2259 -0.0254
72194W        W15107  34.246  31.067   7.151  0.1943  0.2044 -0.0059
72195W        W15108   2.404  11.542   8.082 -0.0108 -0.1186 -0.0028
72196W        W15109   1.294  12.025   8.585 -0.0396 -0.1042  0.0137
72197W        W15110  11.203  18.334  21.222  0.1065 -0.1461  0.2156
72198W        W15111   4.022   5.775   7.945 -0.0185 -0.0819 -0.0438
72199W        W15112  11.691  17.653   5.947  0.0389  0.5440 -0.2785
72200W        W15113  25.654   9.173   7.939 -0.0014  0.0809 -0.4318
72201W        W15114   3.876  25.942  28.573  0.1066 -0.1012  0.0989
72202W        W15115   9.470  25.726   7.707 -0.1340  0.3054 -0.0437
72203W        W15116  29.930  24.500   2.063  0.1697 -0.0441  0.3102
72204W        W15117  30.679  27.513   5.465 -0.0958 -0.3325  0.2096
72205W        W15118   7.722  22.423  27.384 -0.2648 -0.3186  0.1666
72206W        W15119   4.447  14.799   4.637  0.0743  0.1736  0.0856
72207W        W15120   3.654  22.115   6.355 -0.1009 -0.0690  0.1912
72208W        W15121  18.002  22.071  23.971 -0.1882  0.1481  0.0735
72209W        W15122  33.263  11.400   8.226  0.3701  0.2334 -0.1720
72210W        W15123   8.607  31.032  24.504 -0.2257 -0.1655 -0.3622
72211W        W15124   9.529  24.203   5.449  0.2444 -0.1516  0.1727
72212W        W15125   6.746   4.097   2.506  0.1323  0.0047  0.0907
72213W        W15126  33.608  24.900   0.133 -0.2166 -0.1797 -0.1671
72214W        W15127   1.169  18.008   9.556  0.3960  0.5340 -0.4657
72215W        W15128   0.515  18.953   6.663  0.0846  0.1389 -0.0578
72216W        W15129  15.909  17.684   4.517  0.3076  0.0210  0.1088
72217W        W15130  25.853   9.775   3.201 -0.2824  0.0752  0.0406
72218W        W15131   7.838  18.010   6.058  0.0450 -0.1557 -0.1697
72219W        W15132  12.622  17.576   5.501  0.1824 -0.0750 -0.0135
72220W        W15133   4.370  34.274  25.937  0.0693  0.2523  0.0362
72221W        W15134   7.919  15.479   4.613  0.0007 -0.1271  0.0598
72222W        W15135  10.840  18.965   8.529 -0.0833  0.0674  0.1285
72223W        W15136  31.869  16.452   7.501 -0.3183  0.1486 -0.0563
72224W        W15137   8.723  31.341   3.417 -0.1110 -0.0133 -0.1719
72225W        W15138   7.288  23.035   3.794  0.0409 -0.1539  0.0202
72226W        W15139   3.948  21.559   6.739  0.1360 -0.0047  0.1031
72227W        W15140  25.903  20.639   2.333 -0.2878 -0.0253  0.0936
72228W        W15141   3.867  11.907  25.937  0.0771 -0.2170 -0.0216
72229W        W15142  32.966  23.226   8.741  0.0151  0.1393 -0.2300
72230W        W15143   3.050  19.016   7.722 -0.0825 -0.1005 -0.0884
72231W        W15144  11.233  17.941  26.210 -0.1469  0.3384  0.0062
72232W        W15145  30.849  15.316   4.901  0.0381  0.2496  0.1194
72233W        W15146  34.447  19.917   3.373  0.1139 -0.0713 -0.3922
72234W        W15147   2.993  17.862  28.730  0.1951  0.0428  0.6008
72235W        W15148   5.811  21.511   3.335  0.0262  0.3955  0.1757
72236W        W15149  16.907  10.415   8.889 -0.1891 -0.1891 -0.1818
72237W        W15150  29.178  15.712  28.751  0.1273  0.1649 -0.0854
72238W        W15151   6.532  17.426   3.931  0.1129 -0.1993 -0.0167
72239W        W15152   3.830  25.459   8.151 -0.0840 -0.1031 -0.0364
72240W        W15153   8.509  16.477   2.836  0.1432  0.0116  0.2545
72241W        W15154   1.688   4.581   5.846  0.3318 -0.0004 -0.0690
72242W        W15155   4.791  25.886  29.126  0.0986 -0.3797  0.0658
72243W        W15156  22.815  20.456   1.921 -0.2335 -0.0043 -0.2447
72244W        W15157  11.584  10.715   7.226  0.1961  0.0572  0.0837
72245W        W15158  11.948  26.863   8.514 -0.3777  0.0059 -0.1036
72246W        W15159  27.628  12.299   4.932 -0.0640  0.0269  0.1488
72247W        W15160  14.795  18.443  29.240 -0.0842  0.0810  0.2228
72248W        W15161   4.632   8.780  12.090 -0.0336 -0.2123 -0.5044
72249W        W15162   4.012  11.340  11.015 -0.2178 -0.1170  0.3071
72250W        W15163  33.361  27.673  27.640  0.1163  0.0356  0.0126
72251W        W15164   5.050  18.453   9.392  0.0983  0.1443 -0.1492
72252W        W15165  28.103  22.558  28.257 -0.0207 -0.1872  0.0223
72253W        W15166  33.935  21.024   7.225  0.0484 -0.2715 -0.3463
72254W        W15167   4.046  17.551   9.200  0.0159 -0.0054 -0.2115
72255W        W15168  33.422   9.863   9.820 -0.1838  0.0471  0.3378
72256W        W15169  14.346  12.764  24.175  0.2128 -0.2650  0.2027
72257W        W15170   0.502  20.900   8.996  0.1305 -0.1829 -0.0643
72258W        W15171  33.720  14.002   6.256  0.1562  0.1667 -0.0020
72259W        W15172  10.511   9.944  28.686 -0.0978  0.1686 -0.2419
72260W        W15173  11.205  17.051   6.486 -0.1176  0.0181 -0.1697
72261W        W15174   6.670  19.200   4.246 -0.1287  0.0394  0.2630
72262W        W15175   8.204  22.217   2.781  0.0664 -0.1109 -0.0470
72263W        W15176   0.058  28.743   7.569  0.0044  0.1555  0.1076
72264W        W15177  30.521  20.391  27.328  0.0991 -0.1637 -0.1720
72265W        W15178  14.160  14.867   0.566  0.4678 -0.0105  0.0532
72266W        W15179   4.507  15.076  10.443 -0.3348 -0.1897  0.0439
72267W        W15180  31.834   6.938  26.177  0.2812 -0.0179 -0.1021
72268W        W15181  32.326  20.118   1.760 -0.0325  0.2445  0.1532
72269W        W15182   5.128   8.665   1.270  0.3445 -0.1320  0.0343
72270W        W15183   6.732  21.628   8.109  0.3461 -0.1480 -0.1941
72271W        W15184   9.909  33.872  10.895  0.1348 -0.0751  0.1781
72272W        W15185  34.397  17.010   9.744 -0.3523  0.2304  0.0023
72273W        W15186  10.921  27.658   5.899  0.0920 -0.0295  0.0645
72274W        W15187  14.073  22.407   8.309  0.2298  0.1388 -0.2186
72275W        W15188   7.564  14.869   8.651 -0.0385 -0.0921 -0.1743
72276W        W15189  13.330  24.428   8.256 -0.4450  0.0193 -0.0401
72277W        W15190   7.210  14.659  10.122  0.1410 -0.1033  0.1444
72278W        W15191   0.444  22.480   9.313 -0.2220 -0.1606  0.1537
72279W        W15192  14.510  26.603  10.452  0.0972  0.0532 -0.0204
72280W        W15193   4.111  26.843   6.491 -0.0770 -0.1161 -0.0438
72281W        W15194   4.349  32.975   5.441  0.3030 -0.0269  0.2203
72282W        W15195   7.259  24.048   3.139  0.0122 -0.1821  0.2159
72283W        W15196  13.893  12.979   4.088  0.3312 -0.0442 -0.2032
72284W        W15197  33.059  13.165   0.730 -0.0669  0.0968 -0.0321
72285W        W15198   2.076  24.715   8.179 -0.2180 -0.1313  0.0443
72286W        W15199  10.620  13.787   2.891  0.0728 -0.2855  0.2126
72287W        W15200   5.393   8.435   0.821  0.1692  0.1107  0.2366
72288W        W15201   2.914  19.005   5.765  0.1883  0.0692 -0.1005
72289W        W15202  31.501  17.657   6.180 -0.5247 -0.0511 -0.1019
72290W        W15203  29.958  20.055   3.362  0.2420 -0.4384  0.1065
72291W        W15204  34.421  28.486  29.562 -0.0143 -0.1245 -0.4136
72292W        W15205   0.160  22.728   9.670  0.0646  0.3063 -0.0975
72293W        W15206   1.483  15.585   8.660  0.1281 -0.1993 -0.0406
72294W        W15207   4.319  23.637   7.311  0.2683  0.0542  0.1052
72295W        W15208   5.083  11.879   6.134 -0.0550 -0.1873  0.1724
72296W        W15209  11.439  23.191   3.716 -0.3519 -0.1823 -0.0342
72297W        W15210   7.801  14.210  22.618  0.0344 -0.0358  0.0756
72298W        W15211   8.236  25.779  11.421 -0.0523  0.1528 -0.1656
72299W        W15212   7.975  26.851   6.383  0.1315 -0.1195 -0.2384
72300W        W15213  31.987  27.512  24.359  0.2497 -0.2325 -0.2295
72301W        W15214  33.452  28.513   3.379  0.0119  0.1262  0.1027
72302W        W15215  14.542  16.146   8.548  0.1391 -0.1521  0.0661
72303W        W15216   3.283  26.866   8.506 -0.1762  0.1747  0.1054
72304W        W15217  25.969   8.615   6.449 -0.0968 -0.2190 -0.0018
72305W        W15218  10.277  29.861   1.375  0.0347 -0.0942  0.0689
72306W        W15219  11.861   5.116   5.019 -0.0683 -0.2753 -0.1079
72307W        W15220  30.548   7.526  26.012  0.1649 -0.0050 -0.3043
72308W        W15221  17.727  18.880   4.134 -0.2713  0.0850 -0.1510
72309W        W15222   7.442  17.708  29.697 -0.1087 -0.1481 -0.2234
72310W        W15223   9.854  18.401  18.737 -0.0734  0.1924 -0.1622
72311W        W15224  11.244  16.561   7.780  0.1072  0.1481  0.3083
72312W        W15225   2.837  18.467   3.001 -0.0243 -0.0003  0.0969
72313W        W15226  32.805  20.557  24.917  0.2694  0.0606 -0.1634
72314W        W15227  14.741  19.534  25.016  0.0979  0.1809  0.1490
72315W        W15228   7.852   9.623  24.601  0.2058  0.1160  0.3320
72316W        W15229   5.781  22.933  10.264 -0.0601  0.0506  0.1702
72317W        W15230   8.835  16.952   7.761  0.1191 -0.1335  0.1002
72318W        W15231  12.088   1.500  12.372 -0.0222 -0.2241  0.1858
72319W        W15232  11.273  14.431   5.344 -0.0309  0.2807 -0.2113
72320W        W15233   6.829  19.761   1.611  0.1764 -0.2786 -0.0179
72321W        W15234  11.660  13.290   7.604  0.2353  0.3147 -0.1481
72322W        W15235  13.830  11.642   2.659 -0.1754 -0.0642  0.0793
72323W        W15236  13.293   8.427   3.915 -0.1019 -0.0887  0.2182
72324W        W15237  34.412  18.896  29.087  0.3095 -0.2137  0.2532
72325W        W15238  10.424  16.472   4.024 -0.2364  0.2196 -0.2507
72326W        W15239   5.682  21.225   6.247 -0.1979  0.0357  0.2016
72327W        W15240  33.593  11.940   5.215 -0.0644  0.0326 -0.0961
72328W        W15241   0.839  21.575   8.986 -0.4966 -0.2136 -0.2959
72329W        W15242   2.069  15.198  27.011  0.0732 -0.2964  0.2055
72330W        W15243   0.965  23.061   7.113  0.3121 -0.3659 -0.1428
72331W        W15244  31.790  15.896   4.545  0.1375  0.2983 -0.4187
72332W        W15245   8.796  20.434   6.195  0.0442 -0.1270  0.1193
72333W        W15246   1.692   5.145  10.102  0.1056  0.2693 -0.1572
72334W        W15247   8.810  14.723   9.002 -0.0892  0.0520  0.0939
72335W        W15248   9.094   1.152   6.494  0.1199  0.0010  0.2070
72336W        W15249   6.498  12.337  26.783  0.3412  0.2672  0.0063
72337W        W15250  32.743  20.022   6.088  0.1455 -0.0941 -0.0160
72338W        W15251  10.097  19.427   3.669  0.1581 -0.0186  0.1068
72339W        W15252   6.416  11.684   9.686  0.0698  0.3094 -0.0502
72340W        W15253   5.327  26.858   6.338  0.2743  0.0467  0.0307
72341W        W15254   5.138  18.501  29.361 -0.0157 -0.0712 -0.0308
72342W        W15255   8.875  19.492   6.651  0.1019  0.0543 -0.3523
72343W        W15256  14.172  21.606   2.961 -0.0210 -0.0583  0.3535
72344W        W15257   2.537  10.254   9.473 -0.0263  0.0973 -0.0216
72345W        W15258   1.697  17.752   6.470  0.3064  0.3697  0.0922
72346W        W15259  31.675  24.600   2.970 -0.1730  0.0615 -0.1127
72347W        W15260   3.851  28.054   3.905 -0.0193 -0.2449 -0.2233
72348W        W15261  31.330  26.410   8.137 -0.3624  0.0991 -0.2329
72349W        W15262   2.678  25.866  29.574 -0.2419  0.1083  0.1076
72350W        W15263   5.292  11.714   8.782  0.0638  0.1506 -0.0439
72351W        W15264  12.912  26.477   6.495  0.0592 -0.1663 -0.2440
72352W        W15265  11.716  13.424  27.303 -0.1544  0.1099 -0.2634
72353W        W15266  12.179  24.142  27.034  0.4054  0.1371 -0.3466
72354W        W15267  11.839  16.051   5.876 -0.0523  0.1729  0.1075
72355W        W15268   2.328  17.800   8.675 -0.0570 -0.2835  0.1234
72356W        W15269   7.671  21.114   9.148 -0.1500 -0.2036 -0.1717
72357W        W15270   0.598  21.109   8.256  0.1673 -0.4044 -0.0414
72358W        W15271   7.811  18.064   9.409  0.3979  0.1136 -0.0249
72359W        W15272   6.624  20.555   5.477 -0.1376  0.1313 -0.0873
72360W        W15273  10.825  16.395  28.991  0.1137 -0.0872  0.0282
72361W        W15274   2.426  12.292   2.484  0.0464 -0.1202  0.0342
72362W        W15275   0.627  12.050   9.748  0.2198  0.1134 -0.2048
72363W        W15276   6.428  17.465   2.935  0.0757 -0.2526  0.0599
72364W        W15277   9.080  12.158  23.569  0.1457  0.1225 -0.0137
72365W        W15278  14.173  15.504  28.498 -0.1627  0.2188  0.0251
72366W        W15279  33.972  23.935   6.537 -0.1699 -0.0903  0.0154
72367W        W15280   3.337  19.112   1.134  0.4572  0.2416 -0.5209
72368W        W15281   5.909  24.430  29.602 -0.1761 -0.1002  0.1430
72369W        W15282  30.092  21.755   6.332  0.1466  0.0363  0.0597
72370W        W15283  13.206  28.206   6.690  0.2242 -0.0315  0.4156
72371W        W15284  11.992  18.194   5.209 -0.0291 -0.0301  0.1498
72372W        W15285  11.189   8.524   8.814 -0.0593 -0.0330  0.0053
72373W        W15286   3.649   9.152   6.556 -0.0809 -0.1036 -0.0737
72374W        W15287   2.154  26.849   4.004 -0.1511 -0.1550 -0.0520
72375W        W15288   3.402  18.942   3.765  0.1010 -0.1177 -0.0905
72376W        W15289   5.594  16.798   9.102 -0.4358 -0.1969 -0.0916
72377W        W15290  14.195  14.503  28.594 -0.1373 -0.1971 -0.0328
72378W        W15291   5.300  13.444   2.405  0.0996  0.2022 -0.1597
72379W        W15292  12.737  15.668   0.430 -0.1474 -0.0296  0.0955
72380W        W15293   5.105  16.478   5.305 -0.0006  0.0518 -0.0672
72381W        W15294   2.956  21.919   4.569  0.3256  0.2686 -0.0622
72382W        W15295   9.804  24.890  23.302 -0.0819  0.0552  0.2166
72383W        W15296  32.169  19.824   0.481 -0.2743  0.0742 -0.1466
72384W        W15297   7.700  24.275   7.877 -0.0448  0.1849  0.2608
72385W        W15298  30.655  19.172   8.529  0.1683 -0.1548 -0.0790
72386W        W15299   1.837  17.864   2.029 -0.0444 -0.0408  0.3866
72387W        W15300   3.889  27.925   1.148  0.1711  0.0052 -0.1306
72388W        W15301   1.765  25.754   4.682 -0.1675  0.3261 -0.3634
72389W        W15302   8.067  27.199   0.438  0.0415 -0.0262 -0.3531
72390W        W15303  15.484  14.891  28.741  0.0933 -0.1415 -0.1788
72391W        W15304  14.817  31.663   6.707 -0.3075 -0.0363  0.1597
72392W        W15305   0.629  25.418  10.562  0.0457  0.0509  0.1355
72393W        W15306  13.063  15.951   7.626  0.0385 -0.0092 -0.0696
72394W        W15307  10.433  28.357   8.361 -0.2410 -0.2533 -0.1412
72395W        W15308   7.409  11.511   3.462 -0.1765  0.0154 -0.1134
72396W        W15309   8.307  12.610   7.540 -0.0353  0.1320 -0.0344
72397W        W15310  16.722  20.690   0.602  0.0540  0.0367 -0.0550
72398W        W15311  16.451  33.914   7.037  0.0592 -0.0255  0.0679
72399W        W15312   7.542  14.720   0.227  0.2207 -0.0977  0.0330
72400W        W15313   6.154  26.037   8.630 -0.2234  0.0088 -0.0089
72401W        W15314  13.443  23.174   3.519  0.0818  0.1492 -0.1385
72402W        W15315   8.642  15.983   3.972  0.0598 -0.0580  0.0553
72403W        W15316   0.535  27.891   2.810 -0.0758  0.1686  0.1171
72404W        W15317  17.699  11.005   2.966  0.3415 -0.0458  0.1635
72405W        W15318  10.470  16.072  28.813 -0.2518  0.0810  0.0983
72406W        W15319  14.583  10.605  26.428 -0.4036  0.2474 -0.1575
72407W        W15320  15.885  27.344   1.849 -0.0545 -0.1214 -0.0812
72408W        W15321  11.979  21.125   6.886 -0.2097 -0.0352  0.2723
72409W        W15322   8.410  23.710   7.586  0.1550 -0.0809 -0.0063
72410W        W15323  16.693  28.382   3.384  0.0046  0.2469 -0.0178
72411W        W15324  10.511  18.586   6.807 -0.2051  0.1700  0.2408
72412W        W15325  21.122  15.219   7.293  0.3081  0.1420 -0.2447
72413W        W15326  15.318  18.186   7.086  0.1366  0.1135  0.1094
72414W        W15327  14.672  22.907  28.974 -0.4104  0.1710  0.0181
72415W        W15328   4.990  12.637   3.534 -0.1840 -0.1808  0.2970
72416W        W15329  19.542  14.551  25.788  0.2387  0.0475 -0.0132
72417W        W15330  12.993   7.442   3.139  0.0235  0.0633 -0.2142
72418W        W15331  15.496  18.087  28.559  0.1715  0.2008 -0.0716
72419W        W15332  30.013  10.504   1.818 -0.2155  0.0782  0.2535
72420W        W15333  11.260  19.402   0.843  0.0214 -0.1094  0.0665
72421W        W15334   8.319   8.237   6.555 -0.3034  0.0474  0.2064
72422W        W15335  31.927  21.559   5.550 -0.1562  0.0770 -0.0554
72423W        W15336   9.673  15.897  18.008  0.2056 -0.0090 -0.1050
72424W        W15337  10.789  11.009   9.860  0.1316  0.0646 -0.1830
72425W        W15338   5.669  22.213   8.578 -0.1775  0.0851 -0.0453
72426W        W15339   5.144  24.283   9.293  0.0426 -0.0126 -0.0815
72427W        W15340  13.751   1.198  11.255  0.0397  0.0397  0.1126
72428W        W15341   7.707  33.237   6.517 -0.1166  0.1967  0.0386
72429W        W15342  18.964  22.494   5.158 -0.1092  0.1599  0.1785
72430W        W15343  16.776  25.269   4.695  0.1066 -0.0791 -0.1311
72431W        W15344   8.370  15.817   8.358 -0.0571 -0.0297 -0.0742
72432W        W15345   8.925  18.937   1.327  0.3993 -0.0303 -0.2242
72433W        W15346   5.195  21.238   5.542  0.0227  0.1521 -0.0823
72434W        W15347   3.791  30.666  10.708 -0.0725 -0.4268  0.1963
72435W        W15348  33.186  17.069   8.989 -0.2047  0.1951  0.2218
72436W        W15349  13.337  16.077   4.137  0.0418 -0.3163  0.0282
72437W        W15350   2.431  26.769   6.675  0.2089  0.1240 -0.0031
72438W        W15351  34.016  21.874   4.374 -0.1784 -0.0697  0.0999
72439W        W15352  12.004  30.927  29.551 -0.0325 -0.1309 -0.3795
72440W        W15353  32.350  29.692   1.712 -0.1475 -0.0816  0.2728
72441W        W15354  13.101  13.879  20.595 -0.1448 -0.0014  0.1235
72442W        W15355  12.188  16.030   6.314  0.1095 -0.1983 -0.0287
72443W        W15356  31.942  28.614   7.928  0.1773 -0.2133  0.1192
72444W        W15357  23.305  17.516  23.969  0.4856  0.0780 -0.1295
72445W        W15358  33.016  22.879   5.035  0.0304 -0.2828  0.0537
72446W        W15359   8.344  16.146   7.153  0.0337  0.1507 -0.2147
72447W        W15360  34.201  20.163  27.761 -0.2180 -0.1166 -0.0573
72448W        W15361  12.378  17.915   1.256 -0.2864  0.2392 -0.4625
72449W        W15362  13.694  11.751   7.374  0.2048  0.0665 -0.1138
72450W        W15363  30.086   2.959  11.380  0.4397  0.0354 -0.1546
72451W        W15364  17.902  21.325   1.619  0.0503 -0.2170  0.3005
72452W        W15365   7.228  24.050  10.927 -0.0358 -0.1283  0.1380
72453W        W15366  31.001  32.591   4.945  0.1416  0.2478  0.0904
72454W        W15367   6.360   7.487   0.423  0.0032  0.0343  0.0435
72455W        W15368   8.464  14.354  28.786  0.0054  0.0483 -0.1478
72456W        W15369  11.907  15.700  28.510 -0.0121 -0.0025 -0.3572
72457W        W15370   2.349  33.622   7.756  0.2166 -0.1536 -0.1223
72458W        W15371  12.406  27.917   8.330 -0.1646 -0.1549 -0.1715
72459W        W15372   1.008  29.190   7.317  0.1001 -0.2871 -0.0049
72460W        W15373   9.782  15.736   5.855  0.1503  0.1416  0.2485
72461W        W15374  30.152  15.645   3.317 -0.3017  0.3252  0.1683
72462W        W15375   7.468  19.111   0.624 -0.0088  0.0832 -0.3508
72463W        W15376  33.015  23.396   7.885 -0.1257 -0.0974  0.0367
72464W        W15377  20.777  16.400   3.260  0.0510 -0.1649  0.0015
72465W        W15378   4.337  19.171  22.314 -0.2538  0.0877  0.1177
72466W        W15379   9.632   1.747   3.153  0.0750  0.0934 -0.2426
72467W        W15380   6.994  16.213   3.720 -0.1014  0.3054 -0.2601
72468W        W15381   7.660  27.751   3.486 -0.3058 -0.2094 -0.0993
72469W        W15382  33.572  12.325   3.642 -0.1021 -0.2711 -0.1237
72470W        W15383   1.408  24.164   5.366  0.1337  0.1092 -0.1759
72471W        W15384   0.739  15.564   6.474 -0.1830 -0.2516 -0.2052
72472W        W15385  31.422  20.880   7.098 -0.1097  0.1711  0.1653
72473W        W15386  25.491  26.064   0.998 -0.2571 -0.0969 -0.3320
72474W        W15387   0.080  25.023   8.472 -0.1353  0.1173  0.0463
72475W        W15388   8.211  21.554   4.630  0.4697 -0.2639 -0.0560
72476W        W15389   6.221  31.090   4.882 -0.1788 -0.0658 -0.1893
72477W        W15390  11.693  18.029  26.424  0.1875  0.2302  0.2369
72478W        W15391  31.189  16.504   8.536 -0.1497 -0.0065  0.3066
72479W        W15392   1.203  14.801   5.330  0.3493 -0.0691 -0.3854
72480W        W15393  20.107  19.150   6.290  0.4179  0.0420  0.0934
72481W        W15394   8.167  15.478   9.116 -0.0996 -0.1860 -0.2696
72482W        W15395   6.769  19.498   7.097 -0.0009  0.0867 -0.0746
72483W        W15396   6.120  19.198   9.277  0.0220 -0.1703 -0.0864
72484W        W15397   6.337  24.972   5.158 -0.1820 -0.1783 -0.2101
72485W        W15398   1.804  20.010  10.523  0.0462  0.1709  0.1098
72486W        W15399  33.811  18.290   6.460  0.1640 -0.1542  0.0198
72487W        W15400  17.551  23.918   7.503 -0.0184 -0.1456 -0.0992
72488W        W15401   0.934  23.312   6.017  0.0145  0.2144 -0.2712
72489W        W15402   1.563  23.488   8.405  0.0556  0.3331  0.0409
72490W        W15403  27.521  20.617   2.037 -0.0534 -0.2781  0.1050
72491W        W15404  11.107  21.191   3.765  0.3666  0.1104  0.0428
72492W        W15405  10.043  20.010   3.071  0.2463  0.0779 -0.0210
72493W        W15406   4.444  22.258  28.612 -0.1362 -0.2884  0.1770
72494W        W15407   4.782  20.640  29.167 -0.0313 -0.1274 -0.0958
72495W        W15408   5.831  14.023   2.419 -0.0399 -0.0084 -0.0071
72496W        W15409   2.415  27.381   5.412 -0.3027  0.4003  0.2094
72497W        W15410  31.945  19.496   2.246 -0.0598 -0.0929  0.1738
72498W        W15411   4.348  16.940   4.445  0.0599  0.1478  0.1188
72499W        W15412   9.897   4.444  10.506 -0.0289 -0.1774 -0.3088
72500W        W15413  13.478  12.155   0.230  0.0509 -0.0906  0.4211
72501W        W15414  12.314   8.882  28.699  0.2072  0.2054  0.1754
72502W        W15415  29.824  16.884   6.961 -0.1939 -0.0771  0.4113
72503W        W15416   5.452  15.644   4.236 -0.1115  0.1616 -0.1701
72504W        W15417  32.376  26.316   4.682 -0.0974  0.1873 -0.1858
72505W        W15418  14.220  21.322   6.152 -0.0199  0.1300 -0.0841
72506W        W15419   7.268  22.687  10.398  0.3904  0.1834  0.2869
72507W        W15420  15.653  14.262  24.515  0.0410  0.1023 -0.2416
72508W        W15421   0.596  15.521   1.715  0.3207  0.1589  0.2745
72509W        W15422   7.424  16.835   0.023 -0.2399  0.1604 -0.0633
72510W        W15423   0.632  24.436   2.015 -0.1513  0.0552  0.2245
72511W        W15424  34.194   2.798  11.854 -0.1229 -0.0171  0.2181
72512W        W15425   3.239  19.556   9.945 -0.1781  0.0043  0.1677
72513W        W15426  11.477  20.098   4.738 -0.0883 -0.0602 -0.0424
72514W        W15427  29.075  20.308   7.603  0.3492 -0.1045 -0.0429
72515W        W15428  33.143  20.752  28.394  0.0974 -0.0533  0.0517
72516W        W15429   8.226  14.804   6.346  0.1078 -0.1624  0.0889
72517W        W15430  15.181  14.950  26.880  0.0538  0.0456  0.0582
72518W        W15431  33.324  11.778   8.885  0.0513  0.0597 -0.3402
72519W        W15432   5.772  19.206   7.291  0.0299  0.1854 -0.1936
72520W        W15433   4.980   6.937   1.980  0.2133 -0.2418 -0.0444
72521W        W15434  12.460  22.222   6.343  0.0145 -0.1323  0.0162
72522W        W15435  10.156  14.850   7.144 -0.2107  0.1801  0.1913
72523W        W15436  15.464   6.482   9.086  0.0558  0.2962  0.0845
72524W        W15437  13.045  23.343   6.747  0.1191 -0.2236 -0.1000
72525W        W15438   0.166  14.471   9.504  0.0096 -0.3113 -0.1589
72526W        W15439  10.590   9.493   5.302 -0.2292 -0.2547 -0.2309
72527W        W15440  29.524  24.420   0.159  0.1416 -0.1976  0.0285
72528W        W15441  31.433  22.366   4.236  0.0631 -0.0622 -0.1383
72529W        W15442   4.711  30.854   4.028  0.2932 -0.2286 -0.0141
72530W        W15443   7.970   9.561   6.328  0.0809 -0.2339 -0.0356
72531W        W15444   8.641  28.268   8.444 -0.1722 -0.2053 -0.2729
72532W        W15445   0.843  23.734   3.585  0.2525 -0.2292  0.0536
72533W        W15446  16.787  19.519  22.607 -0.4085 -0.0720  0.2473
72534W        W15447  33.542  23.378  10.207  0.4748  0.1320  0.0462
72535W        W15448   7.579  17.644   6.256  0.1912  0.3005 -0.3566
72536W        W15449   8.801  23.448   9.792  0.0950 -0.1645  0.1884
72537W        W15450   7.568   5.834  29.411  0.2303  0.0593  0.0031
72538W        W15451   7.574  33.079   4.244  0.1940  0.1238 -0.0712
72539W        W15452   0.518  17.078   8.549  0.0034  0.1357 -0.2487
72540W        W15453  27.070  21.421   6.696  0.0167  0.1994 -0.0781
72541W        W15454  15.362  16.107   4.924 -0.0141  0.0779  0.2293
72542W        W15455  32.259  18.626   7.561  0.0190  0.4190 -0.1623
72543W        W15456   0.277  27.422   3.505 -0.1342 -0.1886 -0.1784
72544W        W15457   3.337  20.419   4.471  0.1265 -0.0872 -0.3009
72545W        W15458   0.793  14.267   4.104 -0.2074  0.3746 -0.1208
72546W        W15459   2.444  20.560   8.052  0.1111  0.2775 -0.1572
72547W        W15460   4.276  10.416  28.169 -0.0237 -0.0989  0.0520
72548W        W15461  11.743  16.701   6.273  0.0407  0.1233 -0.1946
72549W        W15462  29.152  23.816   6.303  0.2128 -0.3146 -0.0930
72550W        W15463   6.361  15.026   7.802 -0.0310 -0.0727 -0.0117
72551W        W15464   2.166   9.569  28.283  0.0425  0.1952  0.1680
72552W        W15465   2.097  24.033   9.594 -0.1053  0.1011 -0.3249
72553W        W15466  31.683  34.208   9.605  0.0704 -0.1884 -0.0261
72554W        W15467  11.205  10.462   5.150  0.1340  0.0670 -0.0966
72555W        W15468   0.395  12.632   3.209 -0.2590  0.3897  0.1740
72556W        W15469   4.654  23.625   6.917  0.0729 -0.0957  0.1814
72557W        W15470   5.631  19.232   5.078 -0.0234  0.1542  0.0122
72558W        W15471  14.743  17.892   3.774 -0.3480  0.0770  0.1026
72559W        W15472   7.856  27.352   3.121 -0.0578 -0.0605  0.4766
72560W        W15473   0.158  30.716   5.606 -0.0530  0.1043 -0.1295
72561W        W15474   2.060  11.363   2.626 -0.0239  0.0978  0.1326
72562W        W15475   5.430   4.242   8.953  0.2292  0.0718  0.1768
72563W        W15476   0.130   8.698   5.729  0.1122  0.0029 -0.1119
72564W        W15477   6.003  14.648   0.615 -0.0137 -0.0858 -0.1332
72565W        W15478   2.875  21.812   8.219 -0.1683 -0.4128 -0.2054
72566W        W15479  10.918  16.211   7.521 -0.0505 -0.3985 -0.2525
72567W        W15480  16.617  22.308   5.351  0.1017 -0.2052 -0.2778
72568W        W15481  22.919  15.043   8.188  0.1496  0.1726 -0.4024
72569W        W15482  11.816  23.281   7.063 -0.0126 -0.4131  0.0348
72570W        W15483   6.688  16.217   4.534  0.1627  0.1832  0.0939
72571W        W15484  15.787   6.494   5.835 -0.0670 -0.0023 -0.0449
72572W        W15485   8.546  19.129   7.481 -0.2711 -0.2216  0.0146
72573W        W15486  10.150  24.365  25.042  0.0557  0.0100  0.0434
72574W        W15487   9.619  24.477   6.018 -0.3764  0.2004 -0.0333
72575W        W15488   9.230  21.253   1.446  0.3701 -0.3914  0.1139
72576W        W15489   3.901  23.165   9.713 -0.1924  0.1068  0.4759
72577W        W15490  31.514  16.122   7.618 -0.2883 -0.0495 -0.3407
72578W        W15491  31.523   7.406   4.450  0.0478 -0.3028  0.0558
72579W        W15492  13.235  19.356   2.927 -0.2112  0.0663  0.4862
72580W        W15493  10.872   8.530  28.614 -0.2639 -0.0290  0.0247
72581W        W15494  12.051  14.190   1.383 -0.3652 -0.1539  0.1017
72582W        W15495  30.173  17.996   4.653  0.2213  0.0339  0.0780
72583W        W15496   7.093  16.685   3.908 -0.1531  0.0571  0.1934
72584W        W15497  26.017  20.333   4.995  0.0360 -0.1623  0.2399
72585W        W15498   5.006  22.059   7.862 -0.1794 -0.0198 -0.1105
72586W        W15499  11.977  32.018  27.159 -0.0327  0.0850 -0.2963
72587W        W15500  30.585  23.477   6.752  0.0465  0.3096 -0.0878
72588W        W15501   9.492  11.907  25.296  0.2605 -0.1339 -0.3196
72589W        W15502   7.639  10.514  11.486 -0.1597  0.0393 -0.0501
72590W        W15503   9.519  18.605  24.394 -0.1329  0.1819  0.5570
72591W        W15504   5.957  12.731   6.176  0.2914 -0.3664  0.1048
72592W        W15505   4.507  16.147   6.358 -0.0481  0.0821 -0.1175
72593W        W15506  10.742  20.219   5.969  0.0079 -0.0133 -0.1744
72594W        W15507  33.685  24.812   9.885  0.0828  0.0424 -0.0711
72595W        W15508  33.060  13.598   9.938  0.1143  0.1281  0.0615
72596W        W15509   0.037  19.233   8.397  0.0176  0.0154  0.0488
72597W        W15510  23.901  25.212   8.180  0.4846  0.0215  0.2366
72598W        W15511  27.153  25.122   8.012  0.3007  0.1892  0.0524
72599W        W15512  33.275  13.278   7.752  0.0376  0.0462  0.0602
72600W        W15513   3.883  21.317   5.289 -0.1277 -0.1695 -0.0336
72601W        W15514  21.930  23.974   2.381 -0.0998  0.1066  0.0249
72602W        W15515  30.515  20.477  27.897 -0.2192 -0.3897 -0.0406
72603W        W15516   4.117  16.879   8.206 -0.1218  0.1653 -0.0656
72604W        W15517   7.788  17.592   9.686 -0.1950  0.0154  0.0169
72605W        W15518  12.223  20.639   2.840  0.0342 -0.1606  0.0512
72606W        W15519  28.014  17.471  26.880 -0.2025 -0.4104  0.1426
72607W        W15520  27.231  18.785   1.277 -0.4274 -0.0646 -0.0193
72608W        W15521   5.651  11.331   0.194  0.0992 -0.1777 -0.1154
72609W        W15522   7.344  14.938   4.933 -0.0258  0.0223  0.3810
72610W        W15523   0.961  14.513   9.513 -0.0846  0.1631 -0.2613
72611W        W15524   9.944  22.181   0.164 -0.1336 -0.0154  0.1550
72612W        W15525   2.067  16.697   0.859 -0.0594 -0.1159 -0.2306
72613W        W15526   6.614  10.112   6.136  0.0475  0.2814  0.0548
72614W        W15527  13.089  12.986   8.626  0.4225 -0.2896 -0.0256
72615W        W15528   6.496  18.022   1.577  0.4010 -0.3986 -0.1312
72616W        W15529   5.395  16.621   6.159  0.2503  0.2351 -0.0336
72617W        W15530  31.678  20.769   2.275 -0.0774 -0.0525 -0.1640
72618W        W15531   6.817  10.257   2.428  0.1070  0.2267  0.1061
72619W        W15532  11.460  12.405   7.315 -0.2517  0.2275  0.0697
72620W        W15533   8.077  23.921   9.158  0.1749 -0.1025 -0.0946
72621W        W15534  23.566  15.293   0.467 -0.2550 -0.3213  0.0225
72622W        W15535   5.492  23.537   8.261  0.1232 -0.0321 -0.1549
72623W        W15536  34.107  15.624   9.141  0.0991 -0.1576  0.1699
72624W        W15537   3.851  30.067   9.071 -0.1586 -0.0783  0.1517
72625W        W15538   4.390  10.567   7.105  0.2318  0.2625 -0.2384
72626W        W15539  33.272   7.415   1.403 -0.1273 -0.3892 -0.1713
72627W        W15540   7.169  19.278   6.834 -0.0627 -0.3335 -0.0381
72628W        W15541   6.416  17.093   3.369  0.0120 -0.0982  0.0961
72629W        W15542   3.251  20.982   6.305 -0.3059 -0.2749  0.0063
72630W        W15543   1.989  20.851   7.852  0.0683 -0.2017 -0.1069
72631W        W15544  14.404  19.439  27.723  0.1589  0.1258 -0.3774
72632W        W15545   7.570  18.048   9.870 -0.0181  0.0663 -0.0734
72633W        W15546   6.894  10.715   6.535  0.0927  0.5336 -0.1033
72634W        W15547   7.609  16.565   6.269  0.1923 -0.0614  0.0654
72635W        W15548  15.164  28.769   9.634  0.0044  0.1223 -0.3193
72636W        W15549  15.159  19.218   5.695  0.2937  0.3392  0.0224
72637W        W15550  10.340  23.555   8.496 -0.2411  0.0527  0.1620
72638W        W15551   4.908  22.334   4.183 -0.1646  0.1232  0.1669
72639W        W15552  32.227  18.066   6.734  0.0452 -0.0079  0.0799
72640W        W15553   4.970  19.531  24.335 -0.0648  0.2212  0.0168
72641W        W15554  12.295  20.785  25.285  0.3615  0.1386 -0.0422
72642W        W15555   5.166  32.000   4.671  0.3013 -0.1240  0.0042
72643W        W15556   5.761  21.855   4.571 -0.0654 -0.3365  0.0958
72644W        W15557  11.104   0.312  10.075 -0.1254 -0.0586 -0.1726
72645W        W15558   3.315  18.935  29.593  0.0816 -0.1895 -0.1682
72646W        W15559  12.025  11.055   9.182  0.1836 -0.0996  0.0369
72647W        W15560   9.266  23.063   2.127  0.5013  0.0007  0.4033
72648W        W15561   1.002  29.700   6.333 -0.1033  0.1493 -0.0317
72649W        W15562   2.806  20.442   7.696  0.1972  0.2354  0.0946
72650W        W15563   3.229  19.059   9.729  0.2239 -0.1883  0.0946
72651W        W15564   0.933   8.664   4.788 -0.0949  0.0283 -0.3320
72652W        W15565   9.391  13.781   3.337  0.2130  0.0493 -0.0948
72653W        W15566   5.220   8.802   5.514  0.2213 -0.2793  0.0418
72654W        W15567   5.442   1.146   6.044 -0.3059 -0.1375 -0.0657
72655W        W15568  10.630  15.755   5.184  0.1744 -0.0510 -0.1608
72656W        W15569  28.676  13.419   7.403 -0.3066 -0.0659 -0.0622
72657W        W15570   6.173  31.150   8.266 -0.0383  0.1504 -0.0409
72658W        W15571  13.646  23.209   4.125 -0.1088  0.2621 -0.0940
72659W        W15572   6.147  20.054   0.751  0.0227 -0.1335 -0.3228
72660W        W15573   8.538  19.792   8.149  0.2550 -0.0433  0.2137
72661W        W15574   5.237  19.794   9.936 -0.2025  0.0237 -0.0167
72662W        W15575  10.141  11.831   8.094  0.0846 -0.1678 -0.1433
72663W        W15576  13.296   0.029   8.441 -0.2772  0.0263  0.4184
72664W        W15577  16.423  14.467   0.088 -0.0594  0.0739  0.1898
72665W        W15578   5.001  28.109   5.923 -0.0885  0.0435  0.3245
72666W        W15579  10.116  18.675   9.284 -0.5926 -0.3539  0.1472
72667W        W15580   5.247  18.984   0.917 -0.0069 -0.1962 -0.0928
72668W        W15581   4.101  24.738   6.322  0.0835 -0.1496 -0.1409
72669W        W15582   3.541  17.471   9.359  0.1187  0.1149 -0.1757
72670W        W15583   5.545  15.815   9.805 -0.1545  0.0009  0.0381
72671W        W15584  28.963  13.839   9.428 -0.0420 -0.1080  0.2069
72672W        W15585  32.616   3.367   9.558 -0.2927 -0.1501 -0.1235
72673W        W15586  14.708  15.126  21.823 -0.2848  0.0120  0.0224
72674W        W15587  14.026  17.507   6.439  0.0413  0.1109 -0.2547
72675W        W15588  10.355  13.281   9.070 -0.1019 -0.0622 -0.2307
72676W        W15589   8.352   4.100  12.113 -0.2700 -0.1702 -0.2557
72677W        W15590   0.771  25.215   1.709 -0.2164 -0.0576  0.2085
72678W        W15591   1.659  24.801   7.632  0.2706  0.0331  0.0394
72679W        W15592  31.383  23.853   7.124 -0.5601 -0.0509 -0.2338
72680W        W15593  32.862  15.464   9.026  0.3230  0.0791  0.2537
72681W        W15594  30.075  31.082   3.847 -0.0341 -0.0350  0.1414
72682W        W15595   7.444  27.701   6.356  0.0228 -0.0339  0.0210
72683W        W15596   3.393  26.924   1.996 -0.0612  0.2119  0.1242
72684W        W15597   9.615  15.562   2.084  0.4286 -0.0176  0.1440
72685W        W15598   3.478  21.276   6.632  0.0846  0.0270 -0.0599
72686W        W15599   8.748  15.439   8.378  0.2591  0.0494 -0.2486
72687W        W15600  13.426  16.377   8.385 -0.2229 -0.0531 -0.1497
72688W        W15601  12.272  17.470   5.920  0.0691  0.3361  0.1448
72689W        W15602   1.300  15.182   8.450 -0.5784 -0.0341  0.0524
72690W        W15603  13.009  22.474   2.615  0.2487  0.6172 -0.0266
72691W        W15604   1.174  28.204   7.507 -0.1759 -0.2379 -0.1684
72692W        W15605  11.599  18.660   8.423  0.0765  0.1097 -0.0403
72693W        W15606   3.090  16.434   6.409  0.0895  0.0707  0.0528
72694W        W15607  12.034  11.414   0.918  0.0466  0.0589 -0.1301
72695W        W15608  12.973  10.133   7.694 -0.1781 -0.1871  0.0212
72696W        W15609  16.760  14.586   7.179 -0.0928  0.1897  0.1078
72697W        W15610   8.090  17.396   1.661  0.2189  0.2109 -0.1789
72698W        W15611   6.958   2.217   9.633 -0.0917 -0.0385 -0.1632
72699W        W15612   9.085  17.554   2.943 -0.1133 -0.2315  0.1377
72700W        W15613  34.030   8.884   9.685 -0.2281 -0.2648  0.1432
72701W        W15614   1.795  27.324   4.563 -0.2369  0.0569  0.0547
72702W        W15615  27.701  29.168   3.851  0.2334 -0.0750 -0.0777
72703W        W15616   8.382  24.479   2.754 -0.0129  0.1058 -0.1536
72704W        W15617   8.651   5.926   4.198  0.2201  0.0519  0.2400
72705W        W15618  33.067  23.671   9.514 -0.2106 -0.1382  0.0416
72706W        W15619   5.972  10.257  10.222 -0.1364 -0.0725 -0.1110
72707W        W15620  10.211  28.456   7.871 -0.1818  0.1054  0.0652
72708W        W15621  14.213   9.789   6.052  0.0345  0.0234  0.3614
72709W        W15622  11.317  20.420  26.227  0.2068 -0.0867 -0.3155
72710W        W15623  34.353  21.411   7.276 -0.2719 -0.2102  0.1210
72711W        W15624   2.405  22.285  10.575  0.2625 -0.3075  0.0744
72712W        W15625   8.085  27.976   5.641 -0.1121 -0.0481 -0.1339
72713W        W15626  12.039  17.649   2.776 -0.0077 -0.0997  0.3607
72714W        W15627  15.435  19.731   4.563 -0.0444 -0.1561 -0.3021
72715W        W15628   0.621  23.639   6.605 -0.1100  0.1772 -0.0374
72716W        W15629  11.296  21.121   8.069 -0.2082  0.0886  0.2123
72717W        W15630  14.217  28.611   8.717  0.1276 -0.0986  0.1236
72718W        W15631   6.859  27.518   8.912  0.0020 -0.1010 -0.0002
72719W        W15632   3.201  21.728   2.214 -0.0093 -0.2186  0.3590
72720W        W15633  17.598  16.714   3.214  0.2086 -0.1242  0.2160
72721W        W15634   1.894  18.101   4.054 -0.0498  0.0620  0.1970
72722W        W15635  30.190  10.699   1.388 -0.0101 -0.0770  0.1938
72723W        W15636  33.761  10.619   7.954  0.1835  0.3459 -0.2480
72724W        W15637  10.861  16.793   7.942  0.0651  0.0252  0.0053
72725W        W15638  13.235  13.895  28.862  0.0924  0.0911  0.0433
72726W        W15639  30.738  20.736   7.647 -0.0712 -0.0348 -0.0467
72727W        W15640  12.013  18.818  29.288  0.2949 -0.2389  0.2297
72728W        W15641   3.727  22.246   8.256 -0.0196 -0.0946  0.0602
72729W        W15642   9.894   7.154  11.167 -0.2429 -0.2842 -0.1064
72730W        W15643   2.812  18.855   9.881 -0.1358 -0.1316 -0.0461
72731W        W15644   6.104  24.007   8.785  0.0327  0.0561 -0.1584
72732W        W15645  34.175  15.188   9.438 -0.3448  0.0631 -0.0881
72733W        W15646   2.004  25.378   4.541  0.3129 -0.0371 -0.1114
72734W        W15647   5.881  21.987   6.612 -0.0304  0.2844 -0.2116
72735W        W15648   4.363  26.787   9.713 -0.2197  0.2042  0.2597
72736W        W15649   6.538  13.946   4.445 -0.1171 -0.0011 -0.1831
72737W        W15650  12.994  16.863  26.662  0.2112  0.0482  0.1538
72738W        W15651  30.986  18.221   4.759 -0.3882 -0.1196 -0.1677
72739W        W15652   0.758  29.142   5.002 -0.1436  0.0645  0.0603
72740W        W15653  29.495  17.588   1.228  0.3669 -0.2827 -0.1515
72741W        W15654   6.517  13.008   4.450 -0.1141 -0.2637 -0.0822
72742W        W15655  12.962  15.579   1.835 -0.3687 -0.1717 -0.1032
72743W        W15656  11.103  15.310   8.141  0.1527 -0.1103 -0.1732
72744W        W15657   5.556  13.122  29.603  0.0153 -0.0664  0.0643
72745W        W15658   3.370  18.644   8.538 -0.0923  0.2162  0.1057
72746W        W15659   5.514  30.470  10.809 -0.1702  0.3604 -0.3542
72747W        W15660   7.537  12.827   9.007 -0.2040  0.3445  0.1717
72748W        W15661  23.019  15.838   4.989 -0.1591  0.2961  0.1119
72749W        W15662   4.525  26.406   2.560  0.2863  0.2158  0.1030
72750W        W15663   8.539  21.462   8.230  0.0529  0.3734 -0.1809
72751W        W15664   5.243  13.027   9.183 -0.2630 -0.4315 -0.0691
72752W        W15665   5.281  17.904   4.274  0.1964  0.0523 -0.2496
72753W        W15666  29.029  24.035   6.724  0.0736  0.0572  0.0293
72754W        W15667  30.082  23.674  29.306  0.0196  0.2653  0.1036
72755W        W15668  30.075  31.804   8.234  0.3506  0.2345 -0.1271
72756W        W15669   8.376  11.777  27.055  0.2108  0.3183 -0.1332
72757W        W15670  10.671  13.260   1.589 -0.1396 -0.1576  0.2418
72758W        W15671   4.448  22.277   4.135 -0.2756 -0.1521  0.0975
72759W        W15672  12.085  15.992   6.870 -0.0374  0.0589 -0.2051
72760W        W15673  29.129  12.262   0.919 -0.0245 -0.3153 -0.1868
72761W        W15674   9.709  25.413   1.240  0.2219 -0.1426 -0.0487
72762W        W15675   0.145   6.732   8.570  0.0607 -0.0255  0.1909
72763W        W15676   1.071  25.518   9.339 -0.0521 -0.0832 -0.3138
72764W        W15677   2.533  21.013   4.000  0.1171 -0.3430 -0.2066
72765W        W15678  11.759  15.059   5.676  0.1680  0.1538  0.0185
72766W        W15679   2.808  24.774   8.077  0.1726  0.0030 -0.0010
72767W        W15680   7.209  24.150   8.670  0.1806  0.0626 -0.2967
72768W        W15681   4.601  22.675   9.181 -0.0859 -0.1538  0.1408
72769W        W15682   7.803  24.777   7.660 -0.0426  0.2329 -0.0502
72770W        W15683  13.088  18.577  29.153  0.1306 -0.0332  0.1064
72771W        W15684   4.116  34.042   4.867  0.3147  0.4016  0.2545
72772W        W15685   5.587  14.984  10.217 -0.2785  0.0024  0.3008
72773W        W15686   5.779  23.927   0.742 -0.0460 -0.1164 -0.0900
72774W        W15687   6.170  19.282   8.526  0.1565  0.1668 -0.0892
72775W        W15688  26.317  21.542   3.971  0.1412  0.0479  0.0649
72776W        W15689   4.160  24.289   8.150  0.1730 -0.2124 -0.2196
72777W        W15690   5.945   8.040   5.336  0.0603 -0.0119 -0.0470
72778W        W15691   8.751   8.126   1.922 -0.0047 -0.1252  0.0784
72779W        W15692   1.468  15.499   2.928  0.1692 -0.0977  0.0019
72780W        W15693  31.649  14.152   5.020  0.0917  0.0112 -0.1146
72781W        W15694   2.272  26.311   4.612 -0.0186 -0.2146  0.1106
72782W        W15695  27.269  19.452   3.112  0.1511 -0.1259 -0.1928
72783W        W15696  17.109  17.647  23.066  0.1462  0.3588  0.1449
72784W        W15697  33.875  14.169   4.139  0.1942 -0.3237  0.0416
72785W        W15698   2.243  17.327   2.580 -0.1726 -0.1164  0.1356
72786W        W15699   7.401  24.966   3.337  0.0443 -0.0606 -0.0567
72787W        W15700   5.153  14.977   7.305 -0.1517 -0.0443 -0.0264
72788W        W15701   7.432  29.860   7.437 -0.1664  0.2029 -0.0934
72789W        W15702  18.823   0.901  24.359  0.2523  0.0755 -0.1663
72790W        W15703  14.276  24.359   7.313 -0.0159  0.0843  0.1687
72791W        W15704   6.827  19.347   5.035 -0.0071  0.0405  0.1306
72792W        W15705   7.107  11.379  26.809  0.0703  0.0344  0.1767
72793W        W15706   9.944  22.467   6.105 -0.1910  0.2269  0.1716
72794W        W15707   6.964  17.404   4.952 -0.1515 -0.2381 -0.4200
72795W        W15708   5.491  21.518   5.820 -0.2142 -0.2437  0.3277
72796W        W15709  23.570  32.994  21.995  0.1152  0.2217  0.0294
72797W        W15710   8.850  18.911  26.777 -0.0339 -0.3712  0.3469
72798W        W15711   3.215  24.565   4.505 -0.0522 -0.0647  0.0561
72799W        W15712  13.970  30.368   6.442  0.0473 -0.2801 -0.4732
72800W        W15713   3.509  27.578   6.423 -0.0451 -0.3038  0.0498
72801W        W15714  17.869  24.916   8.838 -0.1609  0.3028  0.0694
72802W        W15715  33.622  16.776  25.359  0.2330  0.2342  0.0108
72803W        W15716   0.434  33.538   3.143 -0.1473 -0.3094  0.0759
72804W        W15717   0.975  22.928  25.371  0.0225 -0.0125 -0.0698
72805W        W15718   1.835  26.980   2.699 -0.3478 -0.2359 -0.1542
72806W        W15719   1.309  20.945  14.813 -0.0967  0.2202 -0.1978
72807W        W15720   6.130  28.066   4.938  0.0978  0.3744 -0.0686
72808W        W15721   3.285  19.289  19.860 -0.1633  0.0285  0.1272
72809W        W15722   3.453  25.211  28.645  0.1466  0.2499 -0.1435
72810W        W15723  17.675  28.930   6.340  0.2413 -0.1930 -0.0862
72811W        W15724   2.380  29.050   5.484  0.0258  0.0966 -0.0037
72812W        W15725  29.888  27.512  26.099  0.1340 -0.1793  0.2078
72813W        W15726  33.188  24.977  29.588 -0.0134 -0.2212 -0.0410
72814W        W15727   6.376  27.833  28.776  0.1009  0.1464 -0.0067
72815W        W15728   5.129  25.409   3.646  0.0809  0.0495 -0.2394
72816W        W15729  30.239   0.178  27.006 -0.2733 -0.0504 -0.3501
72817W        W15730   3.469  22.095   7.122 -0.0026  0.0900 -0.1175
72818W        W15731   6.688  21.765   7.038  0.1648 -0.3277  0.1401
72819W        W15732   1.435  29.709   0.132 -0.3390  0.0026 -0.2053
72820W        W15733   3.564  20.635   5.365 -0.1659  0.2309 -0.0532
72821W        W15734   6.435  20.421  27.858  0.2133 -0.0209  0.1398
72822W        W15735   1.201  19.385  29.494 -0.1659  0.1764  0.0349
72823W        W15736   1.923  26.097   7.963  0.1019  0.0646  0.3040
72824W        W15737  29.052  29.478   4.575  0.2296  0.1472  0.0868
72825W        W15738  29.196  25.629   2.347 -0.0260  0.1008 -0.4215
72826W        W15739   3.266  24.909   9.969 -0.0915 -0.2854 -0.0049
72827W        W15740  22.874  33.371   7.271  0.0786  0.0922 -0.2610
72828W        W15741   6.271  23.760  28.260  0.1184  0.2423  0.0333
72829W        W15742  13.321  15.107   5.024  0.1581  0.0703 -0.1107
72830W        W15743   7.611  20.782   2.911 -0.0411  0.0456  0.4059
72831W        W15744   9.257  16.471   7.048  0.0394  0.1993 -0.1102
72832W        W15745  31.501  28.387   0.300 -0.1418  0.1476 -0.2049
72833W        W15746  33.456  28.085   7.510  0.0457  0.0628  0.0921
72834W        W15747   1.542  21.135  19.016 -0.0887  0.0438  0.2631
72835W        W15748   2.242  17.143  20.706  0.2444 -0.3167  0.1397
72836W        W15749   4.469  16.308   6.860  0.4363  0.1526 -0.1728
72837W        W15750  10.877  23.860  21.973  0.5061  0.2823 -0.0713
72838W        W15751  16.107  22.648  23.181  0.0209  0.4941 -0.0769
72839W        W15752   6.276  31.557  26.599 -0.0721 -0.4945 -0.0493
72840W        W15753  11.143  26.217  10.000 -0.0084  0.0021  0.2242
72841W        W15754  32.078  20.265   8.532 -0.2211  0.1903 -0.1250
72842W        W15755  34.162  24.744  29.290 -0.2003  0.4159 -0.0969
72843W        W15756   8.503   3.552  12.199 -0.2375 -0.1629  0.2092
72844W        W15757   6.498  25.913  10.359 -0.0688  0.3097  0.2145
72845W        W15758   6.917  18.917  21.524 -0.0185 -0.0355  0.0277
72846W        W15759  25.263  28.045   6.168  0.0447  0.0373 -0.0298
72847W        W15760   9.130  30.274   7.617 -0.1374  0.1940 -0.1143
72848W        W15761   7.265  25.107  23.608 -0.0287 -0.1022 -0.1364
72849W        W15762   4.481  28.847   2.550 -0.0377 -0.1341 -0.0978
72850W        W15763   7.069  17.391   3.965 -0.0664  0.0393  0.1003
72851W        W15764   3.564  24.167   0.657 -0.3666 -0.4759  0.0345
72852W        W15765   4.480  31.371   1.494  0.1648 -0.0151  0.0362
72853W        W15766  13.275  17.929   8.379  0.1694  0.0333  0.2781
72854W        W15767  26.967  18.718   6.903  0.1486  0.1587  0.1296
72855W        W15768   0.947  19.953   3.900  0.0437 -0.0560  0.1075
72856W        W15769  11.850  25.737   7.178  0.0666  0.1888  0.0164
72857W        W15770   2.225  25.234  27.895  0.0157  0.2056  0.2375
72858W        W15771   8.016  13.614   1.254 -0.0531 -0.1033 -0.1646
72859W        W15772  12.674  28.783   1.940  0.1017 -0.4025 -0.0943
72860W        W15773  34.106  16.246   3.638 -0.0354  0.0620  0.3043
72861W        W15774   6.216  23.034   0.802 -0.1906 -0.0108  0.3962
72862W        W15775  34.234  16.957   0.745  0.2092  0.3858 -0.2269
72863W        W15776  28.090   0.200   4.347 -0.3723  0.0531  0.4506
72864W        W15777  12.674  33.928   1.843  0.0034  0.2768  0.0835
72865W        W15778   9.738  29.834  27.432  0.0481  0.0192  0.0740
72866W        W15779  12.118  23.656   3.541  0.1085 -0.1432 -0.0642
72867W        W15780  11.555  31.621   8.100  0.0717  0.3653  0.1433
72868W        W15781   3.891  12.100  27.542 -0.0801 -0.0526  0.0991
72869W        W15782   7.639  32.589   2.986 -0.1316  0.0035 -0.1691
72870W        W15783  32.377  29.611  23.330  0.0874  0.2715  0.2546
72871W        W15784   1.104   9.836  24.723 -0.1777 -0.0472  0.1226
72872W        W15785  12.657  18.577  22.899  0.3138 -0.1059 -0.1366
72873W        W15786   9.961  18.645   3.086  0.0480  0.1255  0.3755
72874W        W15787  32.985  28.238  28.712  0.1561 -0.1877  0.0679
72875W        W15788   5.408  24.166   0.554  0.0924 -0.0926  0.0605
72876W        W15789   8.245  17.321   3.275 -0.0214  0.0393 -0.1199
72877W        W15790  11.878  20.747   2.455 -0.4679  0.1678  0.1722
72878W        W15791   6.249  21.589  22.224 -0.1678  0.2141  0.2490
72879W        W15792   9.182  14.028   1.718 -0.2146  0.2260  0.3726
72880W        W15793   4.136  22.844  27.901  0.0575 -0.2686  0.1520
72881W        W15794  29.735  33.118  24.556  0.0560  0.2916 -0.0157
72882W        W15795  16.655  27.046   2.553  0.1686 -0.1240  0.2128
72883W        W15796   1.162  32.041  26.880 -0.3344  0.4162  0.1938
72884W        W15797  14.648   2.013   0.466  0.4496  0.2164  0.3944
72885W        W15798  14.313  18.632  22.362 -0.2175 -0.2322 -0.0006
72886W        W15799  32.156  23.890   9.208 -0.1728 -0.0334 -0.2722
72887W        W15800  19.420  19.930   5.388 -0.1135  0.2637 -0.1540
72888W        W15801  10.138  23.412   9.334  0.2533  0.1672 -0.0594
72889W        W15802  31.916  25.117   2.143  0.2361  0.0548 -0.1290
72890W        W15803  34.469  30.372  17.064 -0.2832 -0.2607  0.1947
72891W        W15804  14.308  13.199   3.894 -0.3022 -0.4358 -0.1840
72892W        W15805  13.916  21.547  27.600 -0.0330 -0.1589 -0.1271
72893W        W15806   2.812  19.461   7.189  0.1796  0.2805  0.1445
72894W        W15807   8.707  17.836   0.610  0.3562 -0.2215  0.0699
72895W        W15808   8.140  24.650   5.447 -0.2416 -0.1498  0.7693
72896W        W15809   1.075  18.874   3.432  0.0096  0.0374 -0.3017
72897W        W15810   5.409  15.930   8.628  0.0844  0.2556 -0.0497
72898W        W15811  18.368  20.675   1.970 -0.1798 -0.0935 -0.1122
72899W        W15812   2.362   8.439  24.115  0.2750 -0.0569  0.2176
72900W        W15813  32.743  22.006   2.901 -0.0185 -0.1941  0.0015
72901W        W15814   8.382  24.420   9.403 -0.2187  0.0638  0.1517
72902W        W15815  10.512  12.551  25.164 -0.0456 -0.0244 -0.2623
72903W        W15816  13.615  25.688  20.069  0.1703 -0.2140  0.1465
72904W        W15817  10.037  23.553  26.637  0.2902  0.3223  0.2431
72905W        W15818  34.385   8.510  29.769 -0.0457  0.1842  0.0959
72906W        W15819   2.283  22.005  25.037  0.0330 -0.1232 -0.1648
72907W        W15820  30.208  20.788  29.486  0.2063 -0.0137  0.0754
72908W        W15821  10.444  22.061   3.285  0.2000  0.0824  0.0539
72909W        W15822  29.702  17.500  29.404 -0.0699  0.1959  0.0809
72910W        W15823   8.510  23.338  24.449  0.1586 -0.0936 -0.2355
72911W        W15824  29.516   2.841  19.210 -0.0827 -0.0925  0.0124
72912W        W15825  27.083  27.273   3.422 -0.2001 -0.0006  0.1844
72913W        W15826   2.459  27.167   4.775 -0.0093  0.2389 -0.2363
72914W        W15827  11.865  24.252   9.787  0.2122  0.0115 -0.1343
72915W        W15828   5.085  26.322  24.164  0.1781  0.0708 -0.0730
72916W        W15829   7.919  15.765   2.546  0.0874 -0.1382  0.0367
72917W        W15830  28.049  20.402   1.106 -0.3528  0.0798  0.1854
72918W        W15831  33.709  25.240   3.546 -0.0781  0.0428 -0.0299
72919W        W15832  14.092  27.690  16.240  0.2301  0.0740  0.1168
72920W        W15833  27.878  32.953   2.384 -0.1005 -0.0833  0.0842
72921W        W15834  12.390  23.529   8.914  0.2851 -0.2325  0.0746
72922W        W15835  19.369  20.084  23.489 -0.1443  0.1057 -0.3278
72923W        W15836   2.447  27.453  10.339 -0.2351  0.1647 -0.0282
72924W        W15837  32.090  22.503  27.250  0.5061  0.0586  0.1862
72925W        W15838  10.902   5.681   0.355 -0.4499 -0.0204 -0.0488
72926W        W15839   9.053  25.092   9.858 -0.3090  0.0986  0.2770
72927W        W15840  10.415  24.871   3.135  0.1999 -0.0012  0.0865
72928W        W15841   6.822  17.816  28.163  0.3585  0.1826  0.0114
72929W        W15842   7.572  18.527  26.481 -0.2383 -0.1181 -0.2035
72930W        W15843   9.201  21.300  28.987  0.0866  0.1836 -0.1463
72931W        W15844   7.768  12.836  24.579 -0.1600  0.3608 -0.2136
72932W        W15845  33.549  25.697   1.675 -0.0161  0.0732  0.0115
72933W        W15846  34.250  28.044   1.439  0.0095 -0.1882  0.4606
72934W        W15847  13.883  21.109   8.273  0.1129  0.0055 -0.2206
72935W        W15848   3.516  24.700   8.423 -0.1316  0.1176 -0.0831
72936W        W15849  11.127  32.042   3.144  0.0061 -0.2158 -0.1769
72937W        W15850  11.478  18.479   0.099  0.1254 -0.0724 -0.1379
72938W        W15851   5.338  21.266  24.737 -0.0858 -0.0999 -0.3069
72939W        W15852  30.576  17.892   6.489  0.0812  0.2376 -0.1679
72940W        W15853   8.652  19.699  28.567  0.2281  0.2430  0.2733
72941W        W15854  14.899  31.208   8.428  0.1803 -0.0873 -0.2320
72942W        W15855   1.829  22.554   6.619 -0.1012  0.2301 -0.2254
72943W        W15856   4.250  26.994  15.558 -0.2545  0.0244 -0.2188
72944W        W15857   3.646  32.621   9.710  0.3058  0.2530 -0.0422
72945W        W15858   5.164  27.982   2.448  0.0375 -0.0609 -0.2025
72946W        W15859  32.019  25.747   3.980  0.0681  0.0071  0.0020
72947W        W15860   3.252  24.174   5.331  0.4867  0.0464 -0.1386
72948W        W15861   2.763  28.386  29.176  0.0702  0.0175 -0.0191
72949W        W15862  29.268  24.768  26.612 -0.0130 -0.2713 -0.0310
72950W        W15863  16.320  21.485   0.680  0.1264 -0.1678  0.4522
72951W        W15864  27.937  25.944  24.069  0.0387 -0.1581 -0.2740
72952W        W15865   4.927  23.073  24.842 -0.0612  0.0850 -0.0268
72953W        W15866  10.148  18.649  22.848 -0.0232  0.2601  0.1858
72954W        W15867   7.653  26.057   5.725 -0.0929 -0.2306 -0.1392
72955W        W15868   7.540  15.210   0.500 -0.0292 -0.4192  0.0180
72956W        W15869   3.280   8.781   4.397  0.1591 -0.3959 -0.1398
72957W        W15870   4.189  23.883  25.883  0.1975  0.0248  0.0035
72958W        W15871  30.772  30.677  18.508 -0.0023 -0.0148  0.1216
72959W        W15872  12.994  16.106  21.619  0.0197 -0.0947 -0.1047
72960W        W15873  28.744  31.753  25.124  0.2318  0.0347  0.0103
72961W        W15874   4.286  31.340   8.254  0.3317  0.1192 -0.1480
72962W        W15875  32.507  23.678  25.611 -0.0885 -0.1934  0.0512
72963W        W15876   5.879  23.447  27.392  0.0556 -0.1566  0.0275
72964W        W15877   5.343  24.643   7.410  0.0941 -0.0400 -0.1871
72965W        W15878   8.213  27.240   8.594  0.0643 -0.2276 -0.1924
72966W        W15879   5.175  19.363   8.185  0.3404  0.1816 -0.0698
72967W        W15880  33.460  25.280   0.833  0.0883  0.0536 -0.4416
72968W        W15881   9.053  30.453   1.132 -0.0761 -0.1286  0.0878
72969W        W15882   1.233  17.421   3.566 -0.0062  0.0566  0.1242
72970W        W15883   5.332  28.363  28.825 -0.0286 -0.3622 -0.2330
72971W        W15884  33.277  20.895  21.610  0.1819 -0.1741  0.1362
72972W        W15885  13.239  19.774   0.244  0.2265 -0.0585  0.1180
72973W        W15886  30.680  26.796   3.695 -0.0909  0.0114 -0.1159
72974W        W15887   2.478  16.533   0.626  0.0237  0.0499 -0.0090
72975W        W15888   3.293  27.677   5.930 -0.0292 -0.1298 -0.2057
72976W        W15889   1.822  24.228   0.829 -0.2570 -0.0223  0.0940
72977W        W15890   5.771  12.558  25.634 -0.1712 -0.0647 -0.0664
72978W        W15891   5.742  12.422  17.212  0.2643  0.1172  0.0544
72979W        W15892   3.799  26.205   5.915 -0.0498 -0.1271 -0.3812
72980W        W15893  27.273  19.605   0.046  0.0593 -0.1723 -0.0720
72981W        W15894   6.828   3.160  24.223 -0.1498 -0.5681  0.0702
72982W        W15895  31.501  12.847   3.281  0.0838 -0.0765 -0.0454
72983W        W15896  15.949  18.328   6.310 -0.2383  0.1475 -0.1188
72984W        W15897   3.831  15.523   4.094  0.3316 -0.1205  0.1044
72985W        W15898   3.922  27.355   7.405  0.2814  0.0868 -0.0184
72986W        W15899  13.623  17.131   3.298 -0.0710 -0.2659  0.3007
72987W        W15900  19.006  17.901   1.232  0.0491  0.2670  0.1185
72988W        W15901   0.591  21.264  29.283 -0.2325  0.1731 -0.1057
72989W        W15902  14.630  22.450   6.393  0.0783 -0.1286  0.2709
72990W        W15903   2.345  19.989   3.544  0.0580 -0.1147  0.2536
72991W        W15904   5.186  28.184   3.708  0.3069 -0.2002  0.3455
72992W        W15905  28.611   1.681   4.329  0.0422  0.0308  0.0042
72993W        W15906  33.382  22.654   5.653 -0.1493 -0.0429  0.1033
72994W        W15907   5.087  26.298   3.111  0.3346 -0.1971  0.0583
72995W        W15908  34.276  22.654  26.416  0.3238 -0.1156  0.3280
72996W        W15909  14.499  16.400  21.728 -0.1863  0.0469  0.1685
72997W        W15910  21.590  29.552  29.760  0.1766  0.2100 -0.3590
72998W        W15911   1.381  28.910   7.415  0.0584 -0.0474 -0.0860
72999W        W15912   8.624  16.601  28.056  0.0592  0.1773  0.0799
73000W        W15913  32.353  27.717   5.059 -0.0716 -0.1477  0.0265
73001W        W15914   4.866  25.367   0.620  0.0455 -0.1810 -0.0087
73002W        W15915   0.206  22.868  26.093 -0.1338  0.0853 -0.1509
73003W        W15916   7.319  24.158  25.593 -0.1885 -0.3165  0.2218
73004W        W15917  33.659  17.965  24.321 -0.0241 -0.2529 -0.5808
73005W        W15918  13.762  20.720  23.262  0.1406  0.2594  0.0729
73006W        W15919   8.439   1.175   3.258  0.1405  0.0520 -0.1200
73007W        W15920  11.250  19.307   5.117  0.0982  0.0290 -0.2573
73008W        W15921   9.047  32.260  27.885 -0.0311 -0.1280  0.1453
73009W        W15922   5.811  25.825   1.817 -0.0797  0.1130 -0.0701
73010W        W15923   4.628  32.144   7.391  0.3172 -0.1499 -0.1475
73011W        W15924  14.156  15.016   7.291  0.0548  0.2007  0.0062
73012W        W15925   3.890  17.468   7.040 -0.1567 -0.0580  0.0848
73013W        W15926  32.133  30.783  18.229 -0.2845  0.0989  0.1201
73014W        W15927   3.183  22.640   2.635 -0.2658 -0.0268  0.2012
73015W        W15928   3.044  28.568   6.321 -0.1678 -0.0442 -0.0996
73016W        W15929   4.809   5.633   4.550 -0.0256 -0.1701 -0.0987
73017W        W15930  12.179  18.635   0.259 -0.2136  0.1005  0.1641
73018W        W15931   9.063  31.306   7.585 -0.0292  0.0049  0.0301
73019W        W15932   3.362  12.384   2.044 -0.3652 -0.0712 -0.1981
73020W        W15933  34.492  17.021  26.720 -0.3251 -0.6308 -0.0888
73021W        W15934   2.519  21.823  23.288  0.1880  0.0188 -0.0296
73022W        W15935   9.732  16.381   7.631  0.0381 -0.1034 -0.0452
73023W        W15936   4.190  13.219  28.034  0.1374  0.1770  0.0367
73024W        W15937   6.012  24.013   2.572  0.0221  0.1329 -0.4728
73025W        W15938   4.000   4.128   4.604 -0.0743  0.1643  0.2068
73026W        W15939  28.894  24.319  24.845 -0.0118  0.1843  0.0622
73027W        W15940  33.947  33.037   1.070 -0.1032  0.1803  0.0516
73028W        W15941  11.329  28.085   7.313 -0.2187  0.1047  0.1822
73029W        W15942   2.733  31.827   1.533  0.0062  0.0837  0.1501
73030W        W15943   5.980  17.468   0.385 -0.0073 -0.0196  0.0565
73031W        W15944   3.996  22.054  26.733  0.1233  0.0187  0.1531
73032W        W15945  31.024  31.545   0.738 -0.1427  0.1844 -0.0715
73033W        W15946   4.506  13.855  22.601  0.1784  0.1930 -0.0775
73034W        W15947  10.266  22.083  27.724 -0.1476 -0.0916 -0.0538
73035W        W15948  18.340  31.174   7.076 -0.0305 -0.1586  0.0508
73036W        W15949  31.408  24.018  25.297  0.0378 -0.1961  0.0671
73037W        W15950  14.979  25.201   8.959  0.0317  0.0481 -0.2664
73038W        W15951  31.978  20.399   1.498  0.0508 -0.0927 -0.0394
73039W        W15952   8.569  21.187   2.588 -0.0983  0.4083  0.0550
73040W        W15953  18.649  22.575   2.631 -0.1084 -0.0136  0.3015
73041W        W15954  13.381  29.721   5.313  0.0127  0.0819 -0.1805
73042W        W15955   8.452  24.741   8.856 -0.1337 -0.0642 -0.1219
73043W        W15956   6.589  27.025   6.386 -0.2384  0.3330 -0.2500
73044W        W15957   2.707  30.743  20.390  0.3760  0.0109  0.2292
73045W        W15958  10.000  15.257  26.819  0.2697 -0.1520  0.1238
73046W        W15959  31.553  17.633  28.715  0.0694  0.0118  0.2926
73047W        W15960  23.116  26.526  20.902 -0.1545 -0.1574  0.0629
73048W        W15961  30.122  24.692  23.428  0.0529  0.0944 -0.0474
73049W        W15962   7.752  19.035   2.322  0.1284 -0.0910 -0.2592
73050W        W15963   7.581  22.724  26.823  0.1360 -0.1773  0.1295
73051W        W15964   5.718  32.177   7.593  0.0961 -0.2897 -0.0989
73052W        W15965   8.811  26.645   2.033  0.1106 -0.0033  0.2108
73053W        W15966  12.381  22.230  28.176  0.2779  0.1993 -0.2607
73054W        W15967  23.118  18.364   2.601  0.3976 -0.0096  0.0886
73055W        W15968   3.353  21.297  18.726 -0.3795  0.2792 -0.2134
73056W        W15969  12.890  31.812  26.806  0.0750  0.0406 -0.1295
73057W        W15970  12.057  13.563   2.030 -0.0042  0.2598 -0.0021
73058W        W15971  32.870  17.230  22.005  0.0687  0.3006  0.1404
73059W        W15972  15.086  24.574  28.456 -0.0099  0.2023 -0.4389
73060W        W15973   3.728  26.112   3.529  0.0315  0.2228  0.1276
73061W        W15974   3.412  25.221  28.128 -0.1116  0.0477 -0.0156
73062W        W15975   3.570  20.587   9.636  0.0312  0.1691 -0.0654
73063W        W15976  13.278  22.220  28.153 -0.1987 -0.0164  0.1012
73064W        W15977   6.658  16.436   3.998  0.0169  0.1760 -0.3124
73065W        W15978  33.316  18.403   3.849 -0.2438 -0.2720  0.2221
73066W        W15979   0.472  32.131   0.623 -0.4335 -0.0147  0.0203
73067W        W15980  30.408  30.289   3.451  0.0054 -0.3457  0.0311
73068W        W15981  31.356  20.012   4.340 -0.1107  0.3489  0.0101
73069W        W15982   4.380  16.203   1.061  0.0838  0.1976 -0.0269
73070W        W15983  33.067  31.494   0.424 -0.0214 -0.1186  0.0026
73071W        W15984   2.510  20.891   4.582  0.1661  0.0621 -0.3414
73072W        W15985   4.476  21.030  23.329 -0.0771 -0.0102 -0.0287
73073W        W15986  33.809  23.721   0.130  0.0132 -0.2116  0.1527
73074W        W15987  29.742  26.997  26.463 -0.0320 -0.0064 -0.2885
73075W        W15988   6.768  26.186   9.410  0.1420 -0.2115 -0.1852
73076W        W15989   0.208  29.764   2.002  0.2997  0.0667  0.1053
73077W        W15990   6.406  20.024   6.451  0.1449 -0.3070 -0.1271
73078W        W15991   7.801  33.786   1.063  0.2129  0.0021  0.1256
73079W        W15992   1.965  28.767   9.196 -0.0434 -0.4131 -0.0302
73080W        W15993   2.312  30.849   6.805  0.1799 -0.1837 -0.0110
73081W        W15994   5.024  20.695  17.830  0.0050 -0.0027 -0.0115
73082W        W15995   2.454  34.238   3.996  0.2223 -0.0984 -0.1618
73083W        W15996   7.060   2.705  25.438 -0.0844  0.0978  0.0655
73084W        W15997  11.938  15.368   3.790 -0.0001  0.0701 -0.0769
73085W        W15998  29.353  21.682   6.784  0.1372  0.0081 -0.1870
73086W        W15999  10.237  16.947   3.945  0.0212  0.0354  0.6635
73087W        W16000   7.814  28.763   0.934  0.1343  0.2445 -0.1053
73088W        W16001  14.570  19.672  29.740  0.0681  0.3737 -0.2214
73089W        W16002  31.959  26.839   6.774  0.1145 -0.0584 -0.0547
73090W        W16003  34.443  19.465   5.868 -0.0459  0.0560  0.2307
73091W        W16004   5.462  23.652   8.737  0.0516 -0.1607 -0.0057
73092W        W16005   9.194  10.779   1.838  0.0624  0.3514  0.1336
73093W        W16006  12.808  16.470  26.981 -0.0105 -0.0740 -0.0935
73094W        W16007  17.491  25.822  22.391  0.0206  0.1005  0.5286
73095W        W16008   2.415  27.598   3.694 -0.1739 -0.1573 -0.3120
73096W        W16009   0.167   1.043   2.750  0.0217 -0.1494  0.0812
73097W        W16010  13.286  25.483   3.592  0.1185 -0.0337 -0.0256
73098W        W16011  33.742   4.791  21.459  0.1870  0.0078  0.0061
73099W        W16012   4.015  12.487   8.275 -0.0626 -0.1677  0.0167
73100W        W16013  27.211  15.760   8.708  0.1562  0.2024  0.0651
73101W        W16014  24.542  22.064  23.341  0.1343 -0.1931 -0.0306
73102W        W16015  12.260  27.816   1.752  0.2971  0.2098  0.0465
73103W        W16016  31.502  31.061   3.505 -0.0337  0.1487 -0.1994
73104W        W16017   2.942  27.622  19.040  0.0872 -0.0384  0.2355
73105W        W16018   9.119  29.648  10.303 -0.3345 -0.4969 -0.0435
73106W        W16019  10.666  19.756   8.477  0.1441  0.0317  0.0746
73107W        W16020   8.188  28.274   7.639  0.0832  0.1229 -0.0020
73108W        W16021   0.608  24.482  25.179  0.0313 -0.3706  0.1043
73109W        W16022   5.706  30.130  19.467 -0.2512 -0.1972 -0.3668
73110W        W16023  15.964  20.576  29.493  0.0594  0.0427 -0.1084
73111W        W16024  19.361  32.395  20.198  0.0162 -0.3127 -0.2141
73112W        W16025   1.668  16.706   2.683  0.2011 -0.0294  0.2080
73113W        W16026  32.367  12.851   8.331  0.2057 -0.0052  0.2169
73114W        W16027   4.519  25.433  29.040  0.4441  0.2445 -0.0931
73115W        W16028   0.548  19.699  26.937 -0.0878  0.0920 -0.0512
73116W        W16029  19.669  16.463   8.605 -0.0106  0.1872 -0.1189
73117W        W16030   4.168  18.264  26.977 -0.1113 -0.1387  0.3594
73118W        W16031  12.980  25.918   3.447  0.1737 -0.0661 -0.1125
73119W        W16032  31.938   4.687   0.564  0.2912  0.1414  0.5223
73120W        W16033   7.035  23.116   6.246  0.0509  0.0603 -0.1628
73121W        W16034  28.370   5.270   5.405 -0.1471 -0.1164  0.0944
73122W        W16035   9.827  31.084  13.269 -0.1375  0.1205  0.2962
73123W        W16036  10.240  23.980   3.254 -0.0785 -0.3143 -0.1588
73124W        W16037   5.559  23.825   3.446  0.0455 -0.3500  0.1291
73125W        W16038   4.458  18.581   9.357 -0.2569  0.0104  0.5009
73126W        W16039   3.071  18.478   1.626  0.4110  0.1110 -0.1064
73127W        W16040  32.599  24.345  28.086 -0.2559  0.0708 -0.3600
73128W        W16041  34.315  21.802   3.290  0.1176 -0.0189  0.0465
73129W        W16042   9.079  16.604  28.758  0.1281  0.1232  0.0958
73130W        W16043   3.992  16.761   4.142 -0.1214 -0.5273 -0.1144
73131W        W16044   8.867  29.229   1.952 -0.0126 -0.0389 -0.0423
73132W        W16045  32.323  31.832   2.034  0.0218  0.2123 -0.2172
73133W        W16046  16.829  18.229  24.496  0.0701  0.1989  0.1649
73134W        W16047  10.484  27.512   6.388  0.0515 -0.0412  0.0770
73135W        W16048   5.058  30.849  25.602 -0.0477 -0.0933 -0.0096
73136W        W16049   3.783  10.359  24.175 -0.0961 -0.0460  0.1522
73137W        W16050   3.187   9.959  27.460 -0.0224 -0.1022  0.1133
73138W        W16051  12.273  24.096   0.046 -0.2380  0.1328 -0.0176
73139W        W16052  11.051  23.088   0.012  0.0337  0.1854  0.1276
73140W        W16053  17.733  25.742  24.148  0.0484 -0.0567 -0.3208
73141W        W16054   0.797  33.829   5.686  0.0941  0.2345 -0.0390
73142W        W16055   1.109  17.099   8.416 -0.0959 -0.2799  0.0676
73143W        W16056   3.637  26.453   1.796  0.0403 -0.0323 -0.1818
73144W        W16057   5.251   8.454   1.808 -0.1909  0.1656 -0.0206
73145W        W16058   8.058  22.452   8.866  0.1252  0.4503 -0.0248
73146W        W16059  10.163  31.266  12.494  0.3296  0.0076  0.1964
73147W        W16060  34.386  19.020  27.212  0.0994  0.0727  0.1142
73148W        W16061  12.382   0.060   9.692 -0.3107 -0.1124  0.1708
73149W        W16062   7.682  32.686  11.287 -0.0471 -0.0621 -0.0425
73150W        W16063  23.330  24.611  28.837  0.3377 -0.3248 -0.2169
73151W        W16064   6.169  19.196   2.975  0.1116  0.0060  0.3315
73152W        W16065  33.841  27.900   3.585 -0.1476 -0.0242 -0.1794
73153W        W16066   0.145  17.811   5.129  0.0823  0.0993 -0.1781
73154W        W16067  10.083  20.506   2.347 -0.4347 -0.1584  0.1474
73155W        W16068  32.310  26.207   5.461 -0.3620  0.0478 -0.3007
73156W        W16069  22.553  19.529   6.582 -0.1167  0.1454 -0.1575
73157W        W16070   3.951  25.809   3.054  0.0535  0.1613  0.1254
73158W        W16071   7.056  29.084   3.123 -0.1868  0.3120  0.0128
73159W        W16072  34.104  25.711  26.877  0.0567 -0.0071 -0.0321
73160W        W16073   8.068  21.569   8.502  0.4481  0.0097 -0.1396
73161W        W16074   3.249  30.287  25.219 -0.1664  0.0858  0.1662
73162W        W16075   5.713  32.763   8.518  0.2228  0.0857 -0.1128
73163W        W16076  26.414  29.309   7.700  0.1852 -0.1510  0.3266
73164W        W16077  33.357  25.383   2.757  0.3046  0.3571 -0.0496
73165W        W16078  10.174  23.175   2.814 -0.2294 -0.3622  0.1082
73166W        W16079   5.476  26.454   6.775  0.1149  0.3149  0.1589
73167W        W16080   8.093  17.898  28.021  0.0056 -0.1803  0.1070
73168W        W16081   5.377  26.682  23.782 -0.0943 -0.0025  0.3907
73169W        W16082  16.974  26.761   6.977 -0.0920 -0.0438  0.1699
73170W        W16083   2.335  29.769   6.069  0.2702  0.1755 -0.0245
73171W        W16084  14.356  22.606   5.244  0.4470  0.1082  0.4130
73172W        W16085  13.079  23.576  10.011  0.0305  0.0870  0.0363
73173W        W16086  11.084  28.279  10.922 -0.0624 -0.2664  0.3417
73174W        W16087   8.928  28.771  23.082  0.0214  0.1313  0.0696
73175W        W16088   2.442  26.200  10.646  0.0573 -0.1990  0.1337
73176W        W16089  15.554  18.807  22.958 -0.1034  0.3727  0.0808
73177W        W16090  33.747  20.484   3.984  0.0573 -0.0439 -0.2204
73178W        W16091   4.560  21.090   7.371  0.1681  0.0385  0.1654
73179W        W16092   7.407  27.066   1.323  0.2649  0.2460  0.1950
73180W        W16093  29.001  25.299  23.194  0.4190  0.8031 -0.0707
73181W        W16094   8.135  32.135   4.670  0.3687  0.1344 -0.2022
73182W        W16095  12.173  32.921   0.868  0.0324 -0.0281 -0.0154
73183W        W16096   6.322  26.460   1.972  0.1003  0.1274 -0.2126
73184W        W16097  17.050  20.492   4.065 -0.1330  0.2254 -0.4785
73185W        W16098   8.113  11.903   4.421 -0.0435 -0.0635 -0.1647
73186W        W16099  11.564  32.219   4.830 -0.1185  0.2351  0.0284
73187W        W16100  24.001  18.700   6.898  0.1442  0.1150  0.3350
73188W        W16101   5.219  25.987   8.525 -0.0410 -0.1675 -0.0838
73189W        W16102  10.834  24.693   1.619  0.1725  0.4914 -0.2301
73190W        W16103   7.826  25.668   2.207 -0.0813  0.2389  0.0843
73191W        W16104   4.528  21.740   4.079  0.1596 -0.2101  0.0835
73192W        W16105  11.404  31.109   3.907 -0.1143 -0.1518  0.4192
73193W        W16106  11.441  17.681   8.541  0.1077  0.3160 -0.0396
73194W        W16107   5.481  28.870   4.595 -0.2499 -0.0719  0.1498
73195W        W16108  13.879  27.481   9.611 -0.0983 -0.2296 -0.2080
73196W        W16109   4.342   6.484   3.102 -0.1375 -0.3044  0.1514
73197W        W16110   0.964  23.536   3.064  0.0487 -0.0368 -0.2749
73198W        W16111   3.005  11.565  22.765 -0.0029  0.1587  0.0394
73199W        W16112   1.464  28.995   6.532 -0.1821  0.0716 -0.5253
73200W        W16113   7.841  24.729   3.301  0.2564 -0.3464 -0.1865
73201W        W16114   8.734  16.308   5.730 -0.1053  0.3207  0.0914
73202W        W16115  11.505  17.064   3.895 -0.1451 -0.1539 -0.3193
73203W        W16116  15.958  15.801   1.885 -0.0454 -0.1680  0.3080
73204W        W16117  33.007   8.991   4.724  0.1174 -0.0282 -0.0994
73205W        W16118  23.650  28.145   7.651 -0.1930 -0.5383 -0.1238
73206W        W16119  15.535  18.023   4.480 -0.0837 -0.2220  0.3042
73207W        W16120  18.659  32.989   4.809  0.1681 -0.1528  0.1565
73208W        W16121  15.653  27.999  10.334 -0.2338  0.2304 -0.3713
73209W        W16122   5.228  21.498   8.158 -0.0194  0.0604 -0.0652
73210W        W16123   0.497  19.795   5.388  0.0902 -0.1117 -0.1039
73211W        W16124   3.686  29.506   7.988 -0.0983 -0.0609  0.1788
73212W        W16125   6.502  14.006   3.085 -0.1649  0.4077  0.1597
73213W        W16126  11.937   0.145   1.658  0.3992 -0.1677 -0.1606
73214W        W16127  33.868  12.057   4.019 -0.2226 -0.2479  0.4112
73215W        W16128   5.325  22.223   2.524 -0.4032  0.1353 -0.0572
73216W        W16129  13.280  26.475   9.324  0.1131  0.0950 -0.1486
73217W        W16130  33.088  30.801   1.246  0.0292  0.1959 -0.0029
73218W        W16131  18.695  30.044   3.176 -0.0171  0.1413 -0.1283
73219W        W16132  31.477  20.132  26.224 -0.0061  0.4824  0.0596
73220W        W16133  12.516  28.807   9.747 -0.2373  0.0077  0.0376
73221W        W16134   6.213  17.318   9.460 -0.1300  0.3210 -0.1032
73222W        W16135  12.158  20.507   7.328 -0.1419  0.0027  0.1747
73223W        W16136   2.381  26.373   7.464  0.1810  0.0009  0.3687
73224W        W16137   9.929  30.727  24.278  0.0143 -0.2836 -0.0659
73225W        W16138  31.788  30.331   4.420  0.2542  0.2571 -0.2332
73226W        W16139   6.858  21.826  23.954  0.2371  0.0321 -0.1809
73227W        W16140   2.184  26.852  27.145  0.0760  0.0724  0.1091
73228W        W16141   0.392  23.850   7.456 -0.1539 -0.0133 -0.0357
73229W        W16142   3.386  13.853   2.523 -0.0571 -0.1159 -0.2247
73230W        W16143  17.783  22.957   7.159 -0.5085  0.1476 -0.1386
73231W        W16144   2.310  17.896   8.173  0.2301  0.2073 -0.0905
73232W        W16145   9.010  24.745  10.639 -0.0302 -0.1703  0.0904
73233W        W16146   9.278  20.879   8.745  0.0623 -0.3330 -0.1128
73234W        W16147   5.551  17.628  28.280  0.3753 -0.0940 -0.3358
73235W        W16148  34.013  23.164   6.557  0.2517  0.0698 -0.1240
73236W        W16149   1.195  24.952   6.204  0.1004 -0.1804  0.0748
73237W        W16150   9.281  13.524   7.998 -0.3113  0.2593 -0.0466
73238W        W16151  32.772  14.034   5.892  0.2294  0.0457  0.0150
73239W        W16152  12.207  31.223   6.710 -0.1325  0.0882  0.0880
73240W        W16153  33.394  21.755  24.933 -0.1717 -0.0442  0.1319
73241W        W16154  10.830  27.006  28.941 -0.0057 -0.0206  0.2362
73242W        W16155  11.451  33.540   8.364 -0.1364 -0.1669  0.1196
73243W        W16156   9.577  13.711   0.218  0.1922 -0.0631 -0.2042
73244W        W16157  10.720   8.725   8.966 -0.1918 -0.1283 -0.0421
73245W        W16158  30.934  33.311  10.407  0.0579 -0.0102  0.1563
73246W        W16159  12.792  29.402   7.031 -0.0853  0.0561 -0.1765
73247W        W16160   1.998  19.041  10.256  0.0389 -0.2115  0.1721
73248W        W16161  33.966   8.851   8.683 -0.0373  0.0699 -0.1378
73249W        W16162   6.796  26.323   1.650 -0.1436 -0.0981  0.5288
73250W        W16163  12.265  32.804  23.481  0.2646  0.3031  0.0781
73251W        W16164  12.222  31.232  10.538 -0.1009 -0.2975  0.1612
73252W        W16165  13.248  28.502  29.631 -0.2226 -0.4645 -0.0253
73253W        W16166   1.600  24.362   6.727  0.1166  0.0135  0.0979
73254W        W16167  32.453  33.788  22.341  0.0251 -0.1684  0.3266
73255W        W16168   5.388  34.459   1.104 -0.3239 -0.1139  0.1547
73256W        W16169   5.335  28.270   5.259 -0.1084 -0.0071 -0.1209
73257W        W16170   7.050  31.644   7.204 -0.1404 -0.0808 -0.2498
73258W        W16171  14.011  28.031   4.146 -0.2438 -0.2051  0.2445
73259W        W16172   4.957  21.534   7.138 -0.1689 -0.3983  0.3589
73260W        W16173   9.828  28.305   4.387  0.0150  0.1820  0.0045
73261W        W16174  30.311  23.686   9.919 -0.1701 -0.0743  0.1279
73262W        W16175   2.446  10.210   0.214 -0.2683  0.3263  0.0005
73263W        W16176  12.034  22.822   1.273  0.0037 -0.1695  0.4166
73264W        W16177  27.944  29.276   4.374  0.2795  0.1002 -0.1731
73265W        W16178   9.740  22.028   4.627  0.3366 -0.0728  0.4614
73266W        W16179  33.959  22.035   4.819  0.4139  0.1654  0.2605
73267W        W16180  31.267  24.036   0.600  0.1118  0.2130  0.2386
73268W        W16181   5.656  16.965   2.684 -0.3489  0.0219  0.2212
73269W        W16182   1.921  16.259   7.967  0.0249 -0.1892 -0.2729
73270W        W16183  16.118  33.111  10.348  0.2218  0.1797 -0.0154
73271W        W16184  15.020  28.567  10.144 -0.2228  0.0560 -0.0303
73272W        W16185   3.866  12.317   1.802  0.0544  0.2147 -0.1509
73273W        W16186   1.957  28.791   6.452 -0.2213  0.4568 -0.0291
73274W        W16187  10.975  27.299   2.548  0.0806 -0.1703 -0.2377
73275W        W16188  27.263  19.523   9.189 -0.1030 -0.0889  0.1596
73276W        W16189   6.687  16.028   4.999 -0.0670 -0.0586 -0.0558
73277W        W16190   2.346  19.975   6.942  0.0733 -0.0433 -0.3378
73278W        W16191   8.501   9.846   3.579  0.1929 -0.1300  0.0435
73279W        W16192   7.469  23.918   9.048 -0.0216 -0.1601 -0.1097
73280W        W16193  28.949  13.137   5.839  0.2033 -0.0705 -0.0906
73281W        W16194  10.007  26.614   9.146  0.2648 -0.1145 -0.0668
73282W        W16195  31.528  27.436   6.187 -0.1110  0.0716 -0.0293
73283W        W16196   5.799  26.693   7.052 -0.0857 -0.0562 -0.0563
73284W        W16197  13.086  30.072  10.805  0.0943 -0.2952 -0.1468
73285W        W16198  10.858  24.765  29.481  0.1878 -0.0427 -0.1107
73286W        W16199   2.740  29.377   7.732 -0.4128  0.0321  0.0989
73287W        W16200  32.540  22.720  23.017 -0.1732  0.1300  0.0667
73288W        W16201   6.108  29.077   8.336  0.1764 -0.1379  0.1434
73289W        W16202  31.623  20.061   9.919 -0.1482 -0.2712 -0.0999
73290W        W16203  12.385  25.271   5.326  0.0339 -0.1772  0.1127
73291W        W16204   6.438  28.959   2.150 -0.0751  0.1577  0.1654
73292W        W16205   8.858  17.537  21.891  0.1250 -0.0721 -0.3794
73293W        W16206  14.465  29.539  10.083 -0.0355 -0.1343  0.0118
73294W        W16207   0.842  23.046   9.333  0.2930  0.0232 -0.2080
73295W        W16208  10.013  28.874   4.335 -0.0235 -0.0816 -0.1191
73296W        W16209   7.518  11.877   9.758 -0.1383  0.1940  0.1651
73297W        W16210  24.478  29.390  25.299 -0.2585 -0.2249  0.0108
73298W        W16211   2.026  33.869   4.083 -0.1024 -0.0517 -0.2043
73299W        W16212  13.689  17.395  29.332  0.4018  0.0985 -0.1332
73300W        W16213   2.093  26.919   4.509 -0.2914  0.1645 -0.1182
73301W        W16214  32.952  24.148   7.622  0.0201  0.0408 -0.1231
73302W        W16215  12.557  18.119   0.179  0.2686  0.0215 -0.3272
73303W        W16216   4.250  28.939   9.006  0.1893 -0.0883 -0.0036
73304W        W16217   9.497  22.695   8.124 -0.0662  0.2539 -0.2444
73305W        W16218   9.721  25.543   5.863 -0.2099 -0.0728 -0.1731
73306W        W16219   5.364  23.829   9.637  0.4084 -0.0272 -0.1218
73307W        W16220   1.933  27.122  21.309  0.2435  0.1630 -0.1818
73308W        W16221   2.453  20.721   2.264 -0.0343  0.0582  0.0956
73309W        W16222  34.422  30.641   7.405 -0.1172 -0.0850  0.2100
73310W        W16223   7.904  29.465   2.312 -0.1747  0.1353 -0.0452
73311W        W16224   9.583  29.534  29.598 -0.3446  0.0471  0.1438
73312W        W16225  10.421   4.531   8.620  0.0156  0.0761  0.2873
73313W        W16226  11.102  20.429   5.083 -0.1179  0.1062  0.2838
73314W        W16227  15.374  17.203  26.278 -0.0952  0.0909 -0.3787
73315W        W16228   6.106  16.572   3.542  0.0211 -0.3859  0.0842
73316W        W16229   6.499  18.602   7.268 -0.1153 -0.0537  0.2049
73317W        W16230   4.536  19.888   2.248  0.0810  0.0254  0.0273
73318W        W16231   8.756  21.337   3.091 -0.1497  0.0259 -0.0150
73319W        W16232   5.416  30.943  11.631  0.1108  0.3931 -0.0669
73320W        W16233   8.413  26.312  28.441 -0.2826  0.0489 -0.1806
73321W        W16234   0.903  22.287   9.547 -0.1817  0.0133 -0.1300
73322W        W16235  15.658  20.928   0.190  0.0361 -0.0673 -0.0978
73323W        W16236  12.215  11.316   3.270 -0.1164 -0.0464  0.1770
73324W        W16237   0.726   1.888   5.874  0.0909 -0.0364 -0.1842
73325W        W16238   9.982  20.355   8.803  0.1340  0.1327  0.3481
73326W        W16239   8.175  21.810   8.083  0.0585  0.0866  0.1685
73327W        W16240  14.838  21.690  27.490  0.3591  0.4064  0.1246
73328W        W16241  10.744  30.477   9.564  0.3316 -0.0823  0.1272
73329W        W16242   5.658  27.745   7.382  0.0594 -0.1039  0.2820
73330W        W16243   1.698  19.210  24.560 -0.1986  0.1825  0.0705
73331W        W16244  34.362  20.507   8.434  0.0049  0.0943 -0.3069
73332W        W16245   1.687  20.385   5.712  0.3896 -0.1532  0.2412
73333W        W16246   7.743  20.878  23.804  0.1208 -0.2537  0.1312
73334W        W16247   6.609  29.549   9.664  0.0463  0.1283 -0.2107
73335W        W16248   5.817  25.767   8.240  0.1505  0.3647 -0.2043
73336W        W16249  23.521  28.335   0.726  0.1243 -0.1180  0.4305
73337W        W16250  27.784  17.409  28.830  0.1779  0.1718  0.1180
73338W        W16251   0.478  27.833   1.887 -0.0423 -0.1069 -0.2272
73339W        W16252   7.300  19.826   7.951 -0.1845  0.0053  0.0377
73340W        W16253   6.607  29.761   7.969  0.0512  0.1971 -0.0974
73341W        W16254   5.228  27.237   2.715 -0.0282 -0.1026  0.2993
73342W        W16255  18.445  18.593  23.807  0.1789  0.1448 -0.4828
73343W        W16256  13.443  15.858   3.197 -0.0696 -0.1887  0.1175
73344W        W16257  24.589  18.959  17.388 -0.0491  0.0500  0.0604
73345W        W16258   8.952  19.807   9.703  0.1353 -0.0724  0.2575
73346W        W16259   2.797  15.415   1.721  0.1061  0.2973 -0.0448
73347W        W16260  14.402  22.034   6.138  0.2848  0.1655  0.0906
73348W        W16261  30.782  17.132   6.845  0.2199 -0.3458  0.1666
73349W        W16262   5.407  13.016   5.118 -0.2558  0.3086  0.0795
73350W        W16263   9.993  24.064   9.071  0.2244 -0.0690 -0.2399
73351W        W16264   7.589  14.824  24.583  0.3275 -0.1316 -0.1709
73352W        W16265  33.907  12.055   2.205 -0.0939  0.2173  0.1713
73353W        W16266   8.117  33.993  11.766  0.0778  0.0717 -0.0084
73354W        W16267   3.394  15.445   9.851  0.0597 -0.1498 -0.0812
73355W        W16268  12.727  21.680   3.563  0.2780 -0.2401 -0.0528
73356W        W16269  10.691  29.743   3.326 -0.0070 -0.1849 -0.1041
73357W        W16270   8.014  22.061   1.119  0.0641  0.1017  0.2146
73358W        W16271  30.618  30.051   9.659 -0.1133 -0.4864 -0.1267
73359W        W16272   1.810  33.095   8.472 -0.0124  0.1678 -0.0599
73360W        W16273  14.985  25.378   8.461  0.2983 -0.0548  0.3893
73361W        W16274   5.863  27.644   4.871  0.3603 -0.0090 -0.0456
73362W        W16275   9.804  31.717   4.195 -0.0060  0.0146 -0.3524
73363W        W16276  10.201  15.313   6.672  0.0655 -0.0121  0.0935
73364W        W16277   8.793   1.900   9.476 -0.3340  0.0951 -0.0390
73365W        W16278  30.814  13.896   8.684  0.1657  0.1621  0.0496
73366W        W16279   0.378  25.148   9.287  0.2159 -0.2485  0.1022
73367W        W16280   4.973  24.947  29.545  0.1740 -0.1052  0.0859
73368W        W16281  18.452  18.622   7.957  0.1437  0.0993 -0.1634
73369W        W16282   9.851  20.591   3.921 -0.1132  0.1442 -0.1014
73370W        W16283   8.815  25.121   2.315  0.0902 -0.0944  0.5458
73371W        W16284  29.509  14.783   4.524  0.2735  0.2629  0.0181
73372W        W16285   8.413  30.096  10.742  0.0626  0.2622  0.3652
73373W        W16286   2.922  29.009   8.205 -0.0300 -0.0543 -0.0510
73374W        W16287   8.247  33.988  28.637 -0.3540  0.1552  0.1064
73375W        W16288   6.022  29.650   8.815 -0.1272  0.2577 -0.2078
73376W        W16289   3.841   4.149  11.955 -0.0133 -0.1894  0.0295
73377W        W16290   3.105  19.043   0.698 -0.1233 -0.2752 -0.0923
73378W        W16291   6.056  10.336  27.619  0.3139 -0.1131  0.3523
73379W        W16292   4.752  21.645  26.499 -0.2921  0.3673  0.0833
73380W        W16293  30.612   1.530   1.397 -0.0497 -0.1036  0.1816
73381W        W16294   5.563  17.319   9.221  0.0116  0.0187 -0.1021
73382W        W16295   7.471  12.735   5.431  0.0587  0.2801  0.0130
73383W        W16296   6.367  29.890   9.154  0.1804 -0.0155 -0.3544
73384W        W16297  15.128  21.860  29.153  0.3000  0.3515  0.2888
73385W        W16298  34.249  26.941   5.103 -0.1765 -0.0240 -0.0005
73386W        W16299   3.362  27.095   8.070  0.3486 -0.0875  0.1766
73387W        W16300   5.623  22.652   7.798  0.2314 -0.2701  0.1372
73388W        W16301   9.666  19.318   6.662  0.0625  0.0168 -0.2664
73389W        W16302   6.984  28.593  28.665  0.1302  0.1705  0.0414
73390W        W16303   2.690  22.787   9.173 -0.1671 -0.1173  0.4318
73391W        W16304   4.977  11.924  10.436  0.3321 -0.0926  0.0111
73392W        W16305   3.815  28.380   6.624  0.2040 -0.0954  0.1526
73393W        W16306   0.710  28.673   8.746  0.1950  0.1467 -0.1239
73394W        W16307   6.689  26.785   9.385 -0.0579  0.1109 -0.0930
73395W        W16308   3.818   3.392   6.273  0.3255 -0.1341  0.0236
73396W        W16309  11.323  20.536   7.412  0.0999  0.0284 -0.2917
73397W        W16310   8.651  28.650   8.999 -0.1802  0.0090  0.3589
73398W        W16311   1.894  14.001   8.336  0.0591  0.1661 -0.2636
73399W        W16312  11.242   6.830   4.217  0.0387 -0.0890 -0.0521
73400W        W16313   4.776  25.612   1.888  0.1414 -0.1927 -0.2393
73401W        W16314  14.213  21.131   6.640 -0.2512 -0.2656  0.2966
73402W        W16315  11.536  22.494   7.946  0.2421 -0.1024 -0.1638
73403W        W16316   5.044  31.071   1.511 -0.0555 -0.0087 -0.0779
73404W        W16317  31.510  17.732  25.482  0.1801 -0.0062 -0.0029
73405W        W16318  13.949  14.093   4.903  0.3015 -0.1895 -0.1995
73406W        W16319  30.992  27.651   4.283  0.0246  0.0285 -0.1421
73407W        W16320   4.386  33.690  27.219 -0.0058  0.0349 -0.3991
73408W        W16321   2.475  30.194   8.348 -0.1359 -0.0595  0.1181
73409W        W16322   5.296  25.536   6.815  0.2735 -0.1322 -0.2392
73410W        W16323   4.920  17.827   9.999 -0.0419  0.1264 -0.2752
73411W        W16324  34.149  26.719   8.382 -0.0844  0.0987 -0.1865
73412W        W16325  15.266  31.465   3.423 -0.0537 -0.0183  0.0062
73413W        W16326   4.870  23.098  29.058  0.1433  0.2461  0.1603
73414W        W16327  11.419  18.325   7.958  0.1722  0.0243 -0.0221
73415W        W16328   6.861  31.586  25.131 -0.0238  0.1113  0.1255
73416W        W16329   1.298  17.083  24.933 -0.0511 -0.3080  0.0454
73417W        W16330   0.642  17.114   8.071 -0.1337  0.3734  0.2691
73418W        W16331  25.372   2.922  29.095  0.4199  0.0097 -0.1352
73419W        W16332   6.643  22.548   9.981 -0.0475  0.0713  0.0914
73420W        W16333   0.019  31.358  28.762  0.1651 -0.0436 -0.1724
73421W        W16334   8.711  30.366   4.677 -0.1196  0.2621 -0.2817
73422W        W16335  33.774  23.822  10.067 -0.0260 -0.3824  0.1295
73423W        W16336   9.878  13.207   5.746 -0.2180 -0.1353 -0.2929
73424W        W16337   6.919  14.923   8.482  0.2822 -0.3144 -0.3625
73425W        W16338   6.385  20.274   5.840  0.1343  0.1037  0.1936
73426W        W16339   8.807  30.187  26.440  0.0518  0.0655 -0.0190
73427W        W16340   9.077  18.681   5.281  0.1364  0.3201 -0.1502
73428W        W16341  31.575   2.092   7.529 -0.1613 -0.3339  0.1681
73429W        W16342  30.661  21.820   0.664  0.0439  0.0996  0.0015
73430W        W16343   4.108   0.215   8.436 -0.2019 -0.2679 -0.2028
73431W        W16344  24.954  28.677   3.305  0.4558 -0.0182  0.0879
73432W        W16345   5.489  13.243   9.580  0.0239 -0.2543 -0.1327
73433W        W16346  33.031  26.817   5.878 -0.1517  0.0854  0.0603
73434W        W16347  31.567  17.697   1.572  0.2019 -0.0869  0.2918
73435W        W16348  27.719  26.256   7.961 -0.2428  0.0364 -0.1355
73436W        W16349   9.363  28.214   9.615  0.1565  0.1405  0.0905
73437W        W16350  33.586  18.667   9.533 -0.0943 -0.1104  0.0008
73438W        W16351  32.563  25.492   7.099 -0.0221  0.2436 -0.0826
73439W        W16352   8.018  17.206   9.370  0.0557  0.0381 -0.0787
73440W        W16353   5.633  29.453  10.144 -0.0029  0.2512  0.1636
73441W        W16354   5.102  22.858  28.714 -0.4523 -0.0249  0.0072
73442W        W16355  12.352  16.180   5.015  0.1946 -0.2641  0.1183
73443W        W16356   7.457  34.019   7.653  0.0830 -0.0860 -0.1772
73444W        W16357   3.840  22.805   8.387 -0.1280 -0.0093 -0.3965
73445W        W16358  25.764  24.993  27.903  0.2075  0.3098 -0.0734
73446W        W16359   2.204  29.959  10.289 -0.0025 -0.1718  0.0621
73447W        W16360  34.314  21.364   8.868  0.1100  0.0795  0.0173
73448W        W16361   6.783  15.436   6.143 -0.0882  0.2309  0.1253
73449W        W16362  10.069  19.339   4.185 -0.1346 -0.2099  0.4215
73450W        W16363  11.868  19.751   6.431 -0.1806 -0.1243 -0.0778
73451W        W16364   6.758  24.457   5.727 -0.2116  0.1711 -0.0337
73452W        W16365   5.094  24.466   6.811 -0.6203 -0.2090  0.2621
73453W        W16366   6.243  26.736  26.785 -0.2201  0.1278 -0.2630
73454W        W16367  33.712  29.215  25.314 -0.0890  0.0392  0.0235
73455W        W16368  15.356  26.126   7.390 -0.1083 -0.0404 -0.1242
73456W        W16369  31.981  28.792   6.012  0.4208 -0.3692 -0.0956
73457W        W16370   3.308  23.267   2.594 -0.1450  0.1880 -0.2849
73458W        W16371  33.480  23.749   7.240  0.0284  0.1501  0.1925
73459W        W16372   8.758  33.712   6.838  0.0150  0.2254  0.3067
73460W        W16373   3.079   1.273  10.662  0.2367  0.1701 -0.0213
73461W        W16374   7.039  27.152   8.111 -0.1119 -0.1636  0.3174
73462W        W16375   7.997  29.071   5.794  0.0930  0.3060  0.0576
73463W        W16376  10.087  11.993   0.385 -0.1675  0.3562  0.5151
73464W        W16377   0.809  17.655   9.612  0.1051  0.0281 -0.2085
73465W        W16378  12.051  26.696  10.585 -0.0681  0.0343  0.2423
73466W        W16379   4.370  18.740  26.683  0.2500  0.1748 -0.1080
73467W        W16380   4.121  20.465   9.647 -0.0555  0.1910 -0.0419
73468W        W16381  34.326  24.753  26.786 -0.2539  0.1530  0.0021
73469W        W16382   2.021  15.635   0.920  0.0691  0.0349 -0.1272
73470W        W16383  33.879  26.343   9.488 -0.3827 -0.0475  0.1439
73471W        W16384  13.665  31.178  10.105 -0.0991 -0.0137 -0.0754
73472W        W16385   1.902  25.817   0.989  0.0518 -0.1094 -0.0913
73473W        W16386   6.350  32.553   7.884  0.1396 -0.3771  0.1413
73474W        W16387  11.693  13.850   0.135  0.0548  0.2458 -0.0919
73475W        W16388   1.916  29.817   8.943  0.0666  0.1392 -0.2230
73476W        W16389   0.159  13.080   2.893 -0.1317 -0.3062  0.3337
73477W        W16390   2.606   9.650   8.532  0.0164 -0.1731  0.0876
73478W        W16391  10.260  26.618   2.656  0.0187  0.3457 -0.2207
73479W        W16392   8.964  14.093  25.316  0.1084 -0.0277  0.1086
73480W        W16393   4.142  12.591   0.823 -0.0781 -0.0592 -0.0604
73481W        W16394  12.619  20.638   7.547  0.1519 -0.0135  0.0897
73482W        W16395  10.650  17.322  29.640 -0.2321  0.0861 -0.3437
73483W        W16396   5.123  22.787   9.555  0.1016  0.1908 -0.2412
73484W        W16397  31.909  25.722   0.371 -0.1238  0.1705  0.3139
73485W        W16398   9.105  12.662   3.058  0.0815  0.0594  0.0184
73486W        W16399  13.535   2.660   6.038 -0.3446  0.0729  0.4740
73487W        W16400   2.016  17.162   7.596  0.0299  0.0712 -0.1654
73488W        W16401  12.811  26.519   9.621  0.0712 -0.1193  0.0122
73489W        W16402   1.269  24.917  10.154  0.1804 -0.4536  0.1147
73490W        W16403  13.835  19.057  27.395 -0.4796 -0.0891 -0.1805
73491W        W16404  20.929  26.633   8.213  0.4169 -0.1789 -0.0785
73492W        W16405  33.860  13.769   1.846 -0.1169 -0.1079  0.2314
73493W        W16406  14.194   0.290   6.515 -0.4553 -0.1928 -0.1889
73494W        W16407   0.771  26.949   6.272  0.0527  0.1412 -0.0396
73495W        W16408   4.073  15.815   9.201 -0.2224  0.0686  0.0439
73496W        W16409  14.315  26.905   7.617  0.4367 -0.1244  0.1423
73497W        W16410   2.198  33.529   2.189  0.1166 -0.2044  0.3174
73498W        W16411   2.828   9.882  27.108 -0.1296  0.2570  0.1968
73499W        W16412   5.228  21.589   6.221 -0.1009 -0.0309 -0.3468
73500W        W16413   9.401  26.162   7.419 -0.2129  0.1071 -0.1142
73501W        W16414  11.723  23.654   8.636  0.1533  0.0609  0.0384
73502W        W16415  18.601  29.943   5.230  0.0164  0.0440 -0.0591
73503W        W16416  10.407  20.624   8.600  0.2225 -0.1645 -0.0110
73504W        W16417  20.319  17.979  23.468  0.1684  0.2002 -0.3145
73505W        W16418  14.031  22.630   7.089  0.2339 -0.0666  0.1609
73506W        W16419  31.561  18.831   3.058 -0.2115 -0.0922 -0.0490
73507W        W16420   6.190  12.089   7.382  0.1557 -0.2792 -0.1764
73508W        W16421   3.994  33.716   9.394  0.1359  0.1958  0.1166
73509W        W16422  18.897  16.232  29.065 -0.0362 -0.3575 -0.0200
73510W        W16423   2.505  14.559   3.360  0.0283 -0.0621 -0.0421
73511W        W16424   3.493  20.416   0.042  0.0989  0.1044 -0.1211
73512W        W16425  15.101  31.119   7.892 -0.2966 -0.1374  0.1561
73513W        W16426  12.524  16.906   7.035 -0.4824  0.0777 -0.1880
73514W        W16427   1.798  31.761  28.794  0.4376 -0.1147 -0.1263
73515W        W16428   4.617  22.214   8.139 -0.0199  0.1461 -0.0165
73516W        W16429   4.740   1.116  10.692 -0.0021 -0.0148  0.0894
73517W        W16430   9.691  23.935   9.560 -0.2730 -0.0266 -0.0697
73518W        W16431   1.426  30.132   3.703  0.0163 -0.4794 -0.0493
73519W        W16432   2.131  20.889   4.278 -0.0259  0.2568  0.1333
73520W        W16433  33.552  30.448   9.170 -0.0039 -0.0241  0.1550
73521W        W16434  15.780  23.339   6.627 -0.1390 -0.2366  0.1287
73522W        W16435  33.651  31.160  24.479 -0.2945  0.1143  0.2908
73523W        W16436   2.865  18.922   8.572 -0.0190 -0.0565 -0.1577
73524W        W16437   7.379  27.737   9.019 -0.1085 -0.1499  0.0147
73525W        W16438   7.348  15.337   9.016  0.0400  0.0060  0.1265
73526W        W16439   8.245  22.598   1.666  0.2293  0.3690 -0.1932
73527W        W16440   5.187  19.100   4.228  0.1672 -0.0469  0.0468
73528W        W16441  18.369  26.745   9.631  0.1263 -0.1116  0.0201
73529W        W16442  15.546  24.906   6.339 -0.2510 -0.0270 -0.0573
73530W        W16443   0.979  21.012   5.520  0.1524  0.0544 -0.1216
73531W        W16444  31.535  32.498   3.564  0.0256 -0.4893  0.0646
73532W        W16445   2.491  16.869  10.115  0.2671  0.1098  0.1774
73533W        W16446  14.299  19.903   8.491 -0.1013 -0.2594  0.0362
73534W        W16447  13.032  22.589  26.743  0.0444 -0.1952  0.1334
73535W        W16448  31.891  19.327   6.234  0.0277 -0.2946 -0.1200
73536W        W16449   2.886  16.950   5.301 -0.1416 -0.0124  0.0359
73537W        W16450  13.888  21.257  28.996  0.3962  0.0836 -0.0272
73538W        W16451  30.457  15.510   9.035 -0.2382  0.1061  0.1819
73539W        W16452   2.855   0.671   4.516 -0.1827  0.0963  0.1686
73540W        W16453  12.245  13.744   8.781 -0.2321  0.2283 -0.0277
73541W        W16454   9.357  25.546   1.783  0.0076  0.0473 -0.0145
73542W        W16455  34.134  13.805   9.620  0.3986  0.0533 -0.0794
73543W        W16456   7.436  25.071   5.869 -0.2301  0.0288  0.1755
73544W        W16457   4.713  16.662   7.216  0.1543 -0.0126  0.0134
73545W        W16458  30.933   1.519  28.925 -0.0846 -0.2116  0.0477
73546W        W16459   0.298  28.364  29.191 -0.0301 -0.2200  0.0958
73547W        W16460  32.010  21.205  28.619 -0.0294  0.1928 -0.1191
73548W        W16461  10.703  31.220   9.659  0.1722  0.0875  0.3063
73549W        W16462   8.812  32.006   8.318 -0.1791  0.0350  0.1895
73550W        W16463   5.437  28.515  24.080  0.1760  0.0930 -0.1074
73551W        W16464   7.304  20.452  28.263  0.1412 -0.0107 -0.0922
73552W        W16465  13.695  14.653   6.902 -0.1452  0.0331  0.2623
73553W        W16466   8.590  15.159   5.064  0.1951  0.3193 -0.2607
73554W        W16467   7.998  25.870   8.123 -0.1882  0.0636 -0.2303
73555W        W16468  16.521  14.673  28.364  0.0275 -0.1312 -0.2182
73556W        W16469   6.550   0.350  12.410  0.2768  0.1954 -0.2348
73557W        W16470  13.131  29.586  10.096 -0.2438 -0.0505  0.0990
73558W        W16471  19.511  26.439   8.153  0.1986  0.1124  0.4557
73559W        W16472  27.380  22.433   2.109  0.0538  0.1465 -0.0531
73560W        W16473  13.193  28.756  10.163 -0.2202 -0.1411  0.0179
73561W        W16474   0.462  24.434   7.794 -0.2399 -0.0380 -0.0828
73562W        W16475   4.097  30.579  29.664  0.0262  0.0211  0.2978
73563W        W16476  29.232  15.168   7.650  0.0223 -0.3217  0.2381
73564W        W16477   3.288   7.657   0.193  0.0990 -0.1546  0.1984
73565W        W16478   4.051  23.117  29.210  0.0463 -0.1414 -0.3262
73566W        W16479   4.100   0.097   7.610  0.1831  0.4048 -0.0617
73567W        W16480   9.176  19.063  22.976 -0.0292  0.0732  0.0245
73568W        W16481   5.064  27.711   4.036 -0.1056 -0.0292  0.0276
73569W        W16482  32.491  25.344   9.660  0.2733  0.2812 -0.0247
73570W        W16483   9.006  20.580  26.477  0.0476  0.0138  0.2279
73571W        W16484   4.926   4.139   2.150 -0.0890  0.3503  0.0682
73572W        W16485   6.578   2.102  28.455  0.0541  0.0279  0.1521
73573W        W16486  14.351  32.933  10.790 -0.0799  0.0271 -0.1841
73574W        W16487  33.505  12.459  28.791 -0.0234 -0.0058  0.0835
73575W        W16488  32.298   0.671   3.408  0.0354  0.0429 -0.0190
73576W        W16489   2.766  25.119   0.671 -0.1447 -0.0649 -0.0579
73577W        W16490   8.486  24.233   4.207  0.1640  0.0568  0.3369
73578W        W16491   7.431  27.120   4.751  0.3225  0.1831 -0.3299
73579W        W16492   3.817  28.799   4.671  0.2462 -0.2235  0.0646
73580W        W16493   8.991  24.145   8.069 -0.0117 -0.0285  0.0773
73581W        W16494   9.029   9.983   7.567  0.1469  0.1840 -0.2937
73582W        W16495  14.899  30.889  10.988 -0.0261 -0.0434  0.4346
73583W        W16496   0.796  21.486   5.430  0.1283  0.0492 -0.1984
73584W        W16497   3.104  10.996  28.478  0.0479  0.1109 -0.0800
73585W        W16498   1.323   1.594   8.609 -0.1100 -0.0240  0.2609
73586W        W16499  11.182  20.137   6.690  0.1986 -0.0853 -0.0626
73587W        W16500  34.258  26.798   6.259  0.0481 -0.0502  0.3295
73588W        W16501   9.485  24.009   2.407  0.2427  0.1233 -0.1805
73589W        W16502  13.461  27.675   2.965  0.1773  0.0350  0.4260
73590W        W16503  14.487  24.419   5.713 -0.0173  0.1020 -0.0536
73591W        W16504   7.229  25.744   6.713  0.0254 -0.0319  0.2663
73592W        W16505  12.474   0.160  11.340  0.1408 -0.1264 -0.2538
73593W        W16506  27.736  11.037   8.522  0.1437 -0.0095  0.0282
73594W        W16507  29.572   1.062   5.296 -0.4626 -0.2045 -0.0075
73595W        W16508   8.770  27.956   6.315  0.1559 -0.1729 -0.1120
73596W        W16509   7.958  34.281  10.627  0.4455 -0.3437  0.3296
73597W        W16510  29.073  22.901   8.429  0.1063 -0.1051  0.2167
73598W        W16511  11.297  28.602   8.690  0.1779  0.5860  0.3100
73599W        W16512   6.061  23.184  26.528  0.0749 -0.2832 -0.1497
73600W        W16513  12.786  28.215   7.433 -0.0805 -0.0774 -0.2473
73601W        W16514   5.048  27.355   3.212 -0.1072  0.0109 -0.1359
73602W        W16515  33.528  29.554   9.856  0.0731  0.1802  0.0625
73603W        W16516   5.874  22.126   7.330  0.0987  0.1512  0.0118
73604W        W16517  15.065  18.421  28.697  0.1188  0.0519  0.2403
73605W        W16518  15.349  24.365  27.573 -0.0059 -0.0941  0.0507
73606W        W16519   3.513  30.863   8.183 -0.0400  0.0596  0.3033
73607W        W16520  13.654  27.150   7.940 -0.1620  0.1293 -0.0118
73608W        W16521   1.443   1.545   9.476  0.0361 -0.2033  0.4391
73609W        W16522  32.546  28.380   8.645 -0.0449  0.1353 -0.4005
73610W        W16523   8.235  13.802   1.662  0.0467  0.5469 -0.1834
73611W        W16524  32.829  32.277   9.193 -0.0399 -0.0664  0.2386
73612W        W16525   7.453  24.307  10.099  0.1919  0.1489 -0.2460
73613W        W16526  23.746  26.692   2.655  0.4257  0.1772  0.0831
73614W        W16527   8.842  25.332   5.474  0.2166 -0.0713 -0.0850
73615W        W16528  29.509  25.288   5.002  0.0198 -0.0305  0.1771
73616W        W16529  11.315  25.582   7.997  0.1222 -0.3039  0.0404
73617W        W16530  13.045  24.173  24.719  0.4569  0.2451 -0.2579
73618W        W16531   6.437  20.156   8.569  0.0338 -0.1288 -0.2367
73619W        W16532  31.811  24.322   7.702  0.0471 -0.1494 -0.0626
73620W        W16533  22.160  18.042   4.675 -0.2552 -0.1585 -0.2497
73621W        W16534  10.650  15.374   6.106  0.0128  0.2048 -0.0250
73622W        W16535  19.554  13.125  18.439 -0.0983  0.3206  0.0292
73623W        W16536  10.494  21.409   8.581  0.1789  0.1252 -0.0635
73624W        W16537  32.019  34.320   0.497 -0.2100  0.3693  0.2686
73625W        W16538   2.220  24.602   6.547 -0.0247  0.0737 -0.0522
73626W        W16539  14.172  32.070  11.717  0.3165 -0.2103  0.0288
73627W        W16540   1.169  28.193   6.479  0.2997  0.0134 -0.1737
73628W        W16541  33.729  25.240   3.045  0.0270  0.3836 -0.1652
73629W        W16542   7.184  16.732   8.265 -0.0290 -0.0972  0.1643
73630W        W16543  10.919  22.346   5.703 -0.3559 -0.3818 -0.0261
73631W        W16544   3.758  21.143   2.133 -0.2714  0.2807  0.2234
73632W        W16545  12.281  21.407  26.525  0.2100  0.1162 -0.0103
73633W        W16546  34.060  22.836   9.056 -0.0204 -0.1110 -0.0356
73634W        W16547   0.890  33.543   4.672  0.1746 -0.1142  0.1816
73635W        W16548   1.963   1.967   3.987 -0.4341  0.1632 -0.1182
73636W        W16549   4.626  21.628   9.005  0.1771 -0.1867  0.1725
73637W        W16550   7.674  20.378   4.124 -0.1810 -0.1628  0.1821
73638W        W16551   5.654  23.871   3.938  0.0942 -0.0114  0.2150
73639W        W16552   6.792  18.801   6.872  0.2490 -0.1310  0.1038
73640W        W16553   7.589  31.246   8.891 -0.3517 -0.0740  0.1262
73641W        W16554  13.121  29.085   3.481 -0.0204  0.0074 -0.2932
73642W        W16555  12.921  29.084   5.769  0.4041  0.0843 -0.2273
73643W        W16556  28.453  28.484   7.699 -0.4754 -0.1210 -0.0394
73644W        W16557  29.969  26.363   6.149  0.2695 -0.0495 -0.0222
73645W        W16558   9.921  26.362   8.715 -0.1669 -0.1200  0.0943
73646W        W16559  10.637  32.405   9.052  0.0928  0.0048 -0.1181
73647W        W16560  11.650  26.466   5.725  0.4138  0.0239 -0.0693
73648W        W16561   2.455  24.833   8.535 -0.0950  0.1889  0.1626
73649W        W16562   1.933  20.163   3.255 -0.0665 -0.2146  0.0679
73650W        W16563  31.837  21.129  25.439  0.0190  0.3849  0.1312
73651W        W16564  11.330  19.869   9.250 -0.3125  0.0862  0.0161
73652W        W16565   1.934  19.586   5.736  0.0053  0.0279  0.1432
73653W        W16566   5.471  24.313  29.278 -0.1678 -0.0023 -0.2883
73654W        W16567   4.828  31.915  11.227  0.0638 -0.1013  0.1823
73655W        W16568   1.540  16.970   7.600 -0.1578 -0.1931  0.2394
73656W        W16569  28.409  16.797   6.912 -0.0014  0.4646 -0.1885
73657W        W16570  32.578  25.456  28.512  0.0626  0.2475 -0.0923
73658W        W16571   8.619  32.217  10.212  0.1651 -0.1196 -0.3802
73659W        W16572  28.006  28.333   0.430 -0.3342 -0.2174 -0.1649
73660W        W16573   9.526  14.885   2.188 -0.0324  0.1618 -0.1639
73661W        W16574   7.500  31.326   7.062 -0.0507  0.5600 -0.1070
73662W        W16575  27.806  24.424   2.063  0.1216 -0.2509  0.1241
73663W        W16576   9.643  20.799   2.368 -0.1843 -0.0291  0.0041
73664W        W16577  33.519  27.142   6.641 -0.0395 -0.1525 -0.2062
73665W        W16578  34.173  16.735   9.239 -0.0591  0.1153  0.1435
73666W        W16579   9.291  22.228  10.074 -0.1162 -0.0388 -0.0204
73667W        W16580  11.125  28.680   9.185 -0.1598  0.0573 -0.1258
73668W        W16581  14.644  22.345   5.671  0.1009 -0.1302 -0.1434
73669W        W16582   7.432  23.673   8.598 -0.1019 -0.1058  0.1903
73670W        W16583  32.754  23.544   3.625 -0.0898 -0.0402 -0.0463
73671W        W16584   7.157  29.377   7.866 -0.1268  0.0257  0.2802
73672W        W16585   5.143  17.988   2.415 -0.5523 -0.0458 -0.2371
73673W        W16586  13.647  18.356  27.721  0.2932 -0.1394 -0.0948
73674W        W16587  11.303  32.590  11.198  0.1218 -0.3392  0.1566
73675W        W16588  14.538   0.856   4.088 -0.2115 -0.0686  0.2058
73676W        W16589  15.894  27.751   9.347  0.1094 -0.1820 -0.1679
73677W        W16590  13.857  34.362  10.244  0.3649 -0.1162 -0.1425
73678W        W16591   4.424  27.197   7.630 -0.1068  0.0373 -0.0251
73679W        W16592   5.320  10.424  26.201  0.2190 -0.1812 -0.2170
73680W        W16593   5.931   7.995   7.025 -0.1998 -0.1029  0.0187
73681W        W16594   6.927  32.615   7.240 -0.1751  0.1792  0.0319
73682W        W16595   0.310  31.448   8.080  0.2196 -0.2471 -0.1760
73683W        W16596   5.685  20.040   3.553  0.3307  0.0363 -0.0241
73684W        W16597   5.996  18.511   5.386  0.0539 -0.0629 -0.0010
73685W        W16598  15.389  22.634   8.284 -0.0290  0.0350  0.0447
73686W        W16599   2.144  22.318  20.121 -0.0068 -0.6867 -0.0109
73687W        W16600   6.857  22.518   8.588  0.2119  0.0166 -0.0216
73688W        W16601   3.920  27.885   5.028  0.3795 -0.0695  0.0608
73689W        W16602  10.325  29.541   7.134  0.0244  0.1384  0.0208
73690W        W16603   2.779  22.833   7.234 -0.3225  0.0938  0.0552
73691W        W16604   4.391  16.073   5.862  0.1957  0.0003 -0.0575
73692W        W16605   2.119  14.879   8.519 -0.0079 -0.3362  0.0751
73693W        W16606  17.993  20.434   4.140 -0.0397 -0.0774 -0.0759
73694W        W16607  33.989  26.857   6.694  0.1154  0.0442 -0.1349
73695W        W16608  11.193  16.404   2.380 -0.0196 -0.0471  0.1446
73696W        W16609  11.143  17.077   7.567  0.2195 -0.1364 -0.0665
73697W        W16610   4.281  28.964   4.984  0.0094 -0.1722 -0.0048
73698W        W16611  10.465  24.108   9.944 -0.5281 -0.0850  0.1901
73699W        W16612   4.339  15.958   5.353 -0.0048 -0.1036  0.2056
73700W        W16613   4.599  25.111   4.522  0.3463 -0.3961  0.1059
73701W        W16614  10.995  31.610   9.749  0.2559  0.1180 -0.0803
73702W        W16615   8.535  28.188   6.661 -0.1599 -0.0696 -0.2599
73703W        W16616   4.385  23.745  10.659 -0.0556 -0.0466 -0.2258
73704W        W16617  33.467  25.236   6.337  0.0653 -0.2179 -0.3338
73705W        W16618  32.533  14.638   1.120 -0.0874  0.5078  0.3222
73706W        W16619   6.579   0.353   0.449  0.2160 -0.1002 -0.1083
73707W        W16620  28.966  17.087   6.301  0.0516  0.0017 -0.0055
73708W        W16621   2.985   3.678  25.096 -0.0423 -0.1828  0.3341
73709W        W16622  11.137  25.676  10.198  0.2655  0.1383 -0.1862
73710W        W16623  27.163  27.810   0.800 -0.0426  0.1979  0.1053
73711W        W16624  33.087  22.353   1.407 -0.1158 -0.1687  0.1446
73712W        W16625  22.836  25.269   5.245  0.0708  0.1775  0.1624
73713W        W16626  27.565  20.857  29.009  0.1116  0.0566 -0.1295
73714W        W16627  34.464  19.895   1.641  0.1166  0.1049 -0.2789
73715W        W16628  22.601  14.653   0.380 -0.1065 -0.2027 -0.0532
73716W        W16629   9.282  29.079   3.487  0.0666 -0.2148 -0.0121
73717W        W16630   1.533   7.609  28.400 -0.0290  0.0342 -0.1096
73718W        W16631   2.490  23.933   6.444 -0.0806  0.2617 -0.0080
73719W        W16632  30.240  26.069   3.470  0.1201  0.0828  0.1385
73720W        W16633  17.069  28.402   8.222 -0.0697  0.0816 -0.3246
73721W        W16634   6.629  25.458   7.738  0.0506 -0.3072  0.0130
73722W        W16635  14.538  11.843   4.834  0.0168 -0.1252 -0.2031
73723W        W16636   6.783  22.887   8.890 -0.3287 -0.1296 -0.3234
73724W        W16637  32.393  23.983   3.428  0.2785  0.1850  0.1918
73725W        W16638   6.081   0.656   2.441 -0.1805  0.0351 -0.3654
73726W        W16639  31.877  33.563   6.601 -0.2160 -0.0320  0.4154
73727W        W16640  29.748  29.702   9.616  0.1305 -0.1266  0.2759
73728W        W16641  14.439  28.540  19.438  0.0070  0.1745 -0.1058
73729W        W16642   0.848  18.612   7.525 -0.1639  0.0624 -0.1819
73730W        W16643  17.652  15.225  28.534  0.0218  0.0542 -0.1111
73731W        W16644  11.301  30.746   8.461  0.3508 -0.0084  0.3077
73732W        W16645   4.189  29.739  10.783 -0.0325 -0.4293 -0.1119
73733W        W16646   5.503  27.714   2.870 -0.0446 -0.2997 -0.4204
73734W        W16647   9.578  23.360   4.511  0.0445 -0.0800 -0.0569
73735W        W16648  10.032  22.857   8.057  0.5600  0.0455  0.1086
73736W        W16649   9.834  28.353  12.058 -0.0850 -0.2013  0.0664
73737W        W16650   9.245  24.403   2.558  0.1400 -0.1749  0.2979
73738W        W16651   7.455  27.984   9.431 -0.0937 -0.0538 -0.1676
73739W        W16652   1.286  21.908  24.720 -0.0664  0.2712  0.0199
73740W        W16653  12.266   6.700  11.097 -0.0813 -0.1900 -0.2814
73741W        W16654   8.189  26.360  10.182 -0.2235  0.0384 -0.2420
73742W        W16655  24.724  31.798   8.821  0.2543 -0.1839 -0.0800
73743W        W16656   5.351   5.654  28.892 -0.1216 -0.0569 -0.1247
73744W        W16657  16.185  29.305   4.193  0.0711 -0.0201  0.3649
73745W        W16658   8.324   8.814   8.313 -0.1506 -0.3216  0.2001
73746W        W16659   0.831  25.131  10.214  0.0358  0.1080 -0.0833
73747W        W16660  15.328  32.993   6.383  0.4891  0.1054 -0.1473
73748W        W16661   1.289  32.027   9.341 -0.0865  0.2761  0.0561
73749W        W16662   7.731  11.088   4.600  0.1846  0.0165 -0.3086
73750W        W16663  29.766  27.714   7.567 -0.2492  0.1018  0.1646
73751W        W16664   2.146  34.188   6.825 -0.0115  0.1464 -0.1986
73752W        W16665  13.947  14.494   9.145 -0.1010 -0.1829 -0.0295
73753W        W16666   0.038  28.148   2.899  0.2558 -0.1690  0.3484
73754W        W16667   9.979  18.516   5.177  0.0344  0.0609 -0.0543
73755W        W16668  13.665   3.469   6.175  0.3710 -0.3565 -0.0272
73756W        W16669   3.345  23.803  10.239  0.2385  0.2048 -0.1348
73757W        W16670  12.193  33.943   4.493 -0.1692  0.1749  0.2300
73758W        W16671   3.638  29.640  27.614 -0.1665 -0.3023 -0.1764
73759W        W16672  33.575  28.899   1.105 -0.1262 -0.2545 -0.2515
73760W        W16673  10.634  27.234   5.953  0.0872  0.3070  0.2678
73761W        W16674   4.997  25.542   8.609 -0.0084 -0.0590  0.0686
73762W        W16675  11.906  26.490  11.036 -0.1122 -0.3477  0.0281
73763W        W16676   0.900  33.414   9.063  0.0108 -0.0236  0.2697
73764W        W16677   9.829  24.287   7.181 -0.0874  0.2318 -0.1460
73765W        W16678  11.635   8.563  11.351 -0.0676 -0.0735 -0.1001
73766W        W16679   1.749  23.749   9.841  0.0656 -0.2668  0.1011
73767W        W16680   3.748  31.163   3.818  0.0769 -0.1388 -0.2769
73768W        W16681   3.020  28.198   7.753 -0.0161  0.0986 -0.1799
73769W        W16682  31.895  22.555   8.393  0.3716  0.0088 -0.0848
73770W        W16683  14.665  30.175  10.737  0.0161  0.1413 -0.1049
73771W        W16684  33.485  19.807   6.197  0.1394 -0.1474 -0.1397
73772W        W16685   8.685  28.240   3.508  0.3442 -0.2456  0.1611
73773W        W16686   8.432   5.790   6.752  0.0358 -0.0852 -0.3642
73774W        W16687  30.378  13.540   3.375  0.0573 -0.2393 -0.0583
73775W        W16688   1.386  23.951  10.080 -0.0673  0.1625 -0.0514
73776W        W16689   2.277  17.142   1.823 -0.0359 -0.0811  0.0807
73777W        W16690   1.620  23.753   0.517 -0.0883  0.2582 -0.2189
73778W        W16691   5.069   2.565   3.201 -0.0135  0.0630 -0.2203
73779W        W16692  32.597  27.852   8.763  0.2134  0.0920  0.3398
73780W        W16693  13.408  25.188   5.239  0.1891  0.1464 -0.0717
73781W        W16694   3.620  15.717   9.454 -0.2807  0.0593  0.1374
73782W        W16695   8.615  31.688   3.027 -0.1240  0.3610  0.0625
73783W        W16696  10.933  22.648  10.280 -0.1277  0.0685 -0.1137
73784W        W16697  13.011  31.982   9.987 -0.2339 -0.1298  0.0946
73785W        W16698   7.310   3.506   0.199  0.0675  0.1084 -0.0403
73786W        W16699   2.716  20.874   9.603 -0.2807  0.1040  0.1176
73787W        W16700   5.336  14.374   9.524  0.0239  0.0800 -0.0366
73788W        W16701   4.350  23.356   8.058 -0.2016  0.0241  0.1092
73789W        W16702   0.170  26.758   7.210  0.0569 -0.1015 -0.0787
73790W        W16703   3.215  29.766   4.077  0.1610 -0.0645  0.3605
73791W        W16704   9.308  19.567   9.943  0.0038 -0.0771  0.0012
73792W        W16705   5.823  29.261   5.963  0.1320 -0.1604  0.1173
73793W        W16706   1.582  18.350   5.857  0.0548 -0.0471  0.5273
73794W        W16707   5.204   3.202   0.337 -0.3495  0.5709  0.0651
73795W        W16708   3.494  26.341   8.218 -0.0036  0.0065 -0.1533
73796W        W16709   1.137  30.979   9.807 -0.0720 -0.1142  0.0558
73797W        W16710  17.750  14.124   8.320  0.1918 -0.0570  0.1975
73798W        W16711   0.782  26.502   8.943 -0.1618 -0.1890  0.1893
73799W        W16712  33.552  21.527   4.999 -0.1347 -0.0094 -0.1716
73800W        W16713   5.782   2.966   1.345 -0.1603 -0.1222 -0.2316
73801W        W16714  13.655  19.107   1.795 -0.3786 -0.1632  0.1736
73802W        W16715   5.608  14.499   3.298  0.0915 -0.1994  0.0093
73803W        W16716  14.377  26.937   6.626  0.2256 -0.3116  0.0481
73804W        W16717   6.070  22.947   3.506  0.0013  0.2851 -0.2225
73805W        W16718  31.902  32.245   4.566  0.1086 -0.2265 -0.2645
73806W        W16719  14.000  19.552   6.049  0.0261 -0.0423 -0.1265
73807W        W16720  12.271  14.311   0.149 -0.2613  0.2133 -0.5420
73808W        W16721   9.036  30.773  12.649 -0.2050  0.1461 -0.0060
73809W        W16722  33.411   0.539   6.151 -0.0935  0.1340 -0.0211
73810W        W16723   3.061  31.199   8.280 -0.1050  0.0943 -0.0233
73811W        W16724  32.996  17.096   8.177  0.0222  0.1880 -0.0274
73812W        W16725   0.158  19.434   7.586  0.3144 -0.0153 -0.2519
73813W        W16726  10.889  14.637   7.557  0.1334  0.0648  0.3812
73814W        W16727  13.376  23.923   8.413  0.0637 -0.3112  0.1131
73815W        W16728   5.941  26.943   3.224  0.1824  0.2216 -0.0972
73816W        W16729   0.650  22.745   9.706 -0.0695 -0.1652 -0.1739
73817W        W16730  18.362   8.772   5.597  0.2335 -0.2213  0.1739
73818W        W16731  13.277  13.660  27.959 -0.4251 -0.4513  0.3765
73819W        W16732   9.448  34.033  10.844  0.0085 -0.0368  0.1014
73820W        W16733  20.189  29.628   7.702  0.1851 -0.2285 -0.0560
73821W        W16734   4.905  24.203   2.355  0.2337 -0.0230  0.0437
73822W        W16735   9.212  12.505   5.407 -0.1555  0.2893  0.1822
73823W        W16736   2.373  16.068   4.754  0.0210  0.0219  0.1257
73824W        W16737   2.701  22.571   2.420  0.3261 -0.1447  0.2858
73825W        W16738  31.547  30.697   5.567  0.1647 -0.2604  0.3307
73826W        W16739   9.252  12.178   0.199 -0.4197 -0.0540 -0.1269
73827W        W16740   4.264  24.406  10.594 -0.1590 -0.0366  0.0964
73828W        W16741  12.782  31.223   2.947 -0.0046  0.0227 -0.0880
73829W        W16742  12.544  33.296  11.447 -0.2497 -0.3248  0.0529
73830W        W16743   3.394  27.541  28.653  0.2940 -0.0058  0.0270
73831W        W16744   5.786  16.932   5.430  0.3629  0.2167 -0.3631
73832W        W16745   4.334  24.006   9.380 -0.0796  0.0079  0.1909
73833W        W16746   8.641  32.422  28.407  0.0092  0.0339 -0.1711
73834W        W16747  27.980  30.584   6.040 -0.2903  0.2024  0.0734
73835W        W16748   1.605  18.985   7.797 -0.3184 -0.0827 -0.3348
73836W        W16749   6.523  17.948   6.891 -0.1806 -0.2720 -0.0323
73837W        W16750   9.305  30.681   4.921  0.1446 -0.1318  0.3044
73838W        W16751   3.708  27.775  10.160 -0.2911  0.3394 -0.0441
73839W        W16752  30.719  26.319   3.555 -0.1028  0.1128  0.0090
73840W        W16753  27.031  26.666   2.040  0.0631  0.0403 -0.1199
73841W        W16754   7.382  24.540   8.986 -0.3812 -0.1242 -0.1961
73842W        W16755  10.643  24.721   8.875  0.1047  0.3185 -0.0201
73843W        W16756   4.974  17.574   3.786 -0.1599  0.1690 -0.1793
73844W        W16757   9.115  24.468   5.297 -0.0020 -0.0651 -0.1197
73845W        W16758  29.966   6.382   2.524  0.0925 -0.1691 -0.1624
73846W        W16759   9.631  27.278   8.353  0.1895  0.0928  0.3803
73847W        W16760  34.057  14.533   5.133  0.1461 -0.1709  0.2813
73848W        W16761   1.200  17.797   4.105  0.2262  0.4242  0.0686
73849W        W16762  12.638  10.966   1.747 -0.0653 -0.0295  0.1877
73850W        W16763  31.896  23.979  26.171  0.0742 -0.1171 -0.0414
73851W        W16764   1.969  23.178   6.824 -0.2385 -0.3447  0.1903
73852W        W16765  10.011  21.597   6.645  0.0888 -0.2354 -0.1453
73853W        W16766  27.545   0.816   8.949  0.0003  0.3534 -0.0571
73854W        W16767  25.545  22.623   6.446 -0.0143  0.1223 -0.0372
73855W        W16768   0.882  20.194   4.897 -0.1745 -0.0272  0.1524
73856W        W16769  32.617  27.034   9.160  0.0636 -0.1269 -0.0078
73857W        W16770  10.920  17.694   6.481 -0.0490  0.2433  0.1707
73858W        W16771   2.107  20.413  25.758  0.1751  0.1381 -0.0034
73859W        W16772  10.367  27.128   6.744  0.1451  0.1530 -0.0833
73860W        W16773   3.779  24.318   9.161 -0.2629  0.1821 -0.0887
73861W        W16774  12.274  32.359  11.463  0.0827 -0.1758 -0.1085
73862W        W16775   5.056  17.350  10.210 -0.2839  0.0995  0.0613
73863W        W16776   2.601  28.215   7.458 -0.1673 -0.0590 -0.0072
73864W        W16777   7.558  16.525   4.237  0.3284 -0.1704 -0.0713
73865W        W16778  30.752  29.792   2.712  0.1152  0.0125 -0.2867
73866W        W16779   2.948  20.429   6.813 -0.0296 -0.1945 -0.1081
73867W        W16780   9.028  22.432   4.974  0.2063  0.2113 -0.0674
73868W        W16781   5.361  22.802   7.038  0.2200 -0.2617  0.1645
73869W        W16782   7.087  24.051   9.831  0.0491 -0.1952  0.1252
73870W        W16783  31.224   0.160   4.089  0.0569  0.0591 -0.0045
73871W        W16784   4.279  19.228   5.234 -0.2529  0.1928 -0.1609
73872W        W16785   0.739  27.527   7.110  0.2500  0.0463  0.2939
73873W        W16786   3.377  26.392   6.076  0.2606  0.0826  0.1444
73874W        W16787   1.046  16.550   4.976  0.0692 -0.4542 -0.0701
73875W        W16788   2.405  28.865   7.824 -0.0405 -0.0788 -0.0890
73876W        W16789   9.442  28.842   9.640 -0.1116  0.0619 -0.0757
73877W        W16790   0.152  26.892   8.362 -0.1256 -0.0526 -0.1560
73878W        W16791  31.498  22.042   5.876  0.3199 -0.2762  0.2374
73879W        W16792   8.363  21.361   7.205  0.0809  0.2081  0.1534
73880W        W16793   6.867  21.789   5.858 -0.3979 -0.2389 -0.1472
73881W        W16794  14.579   6.851  27.125 -0.1334 -0.1286  0.0203
73882W        W16795  17.968  26.835   3.960 -0.4083 -0.3916  0.2654
73883W        W16796   1.392  29.312   7.733 -0.1018  0.1617 -0.1174
73884W        W16797  12.707  19.028  23.672 -0.1161 -0.0362 -0.3166
73885W        W16798   8.696  23.105   8.853 -0.1009 -0.0891  0.0930
73886W        W16799   7.019  31.140   7.077  0.0639 -0.0493 -0.1661
73887W        W16800  26.388  28.976   6.055  0.2385  0.2922 -0.1386
73888W        W16801   9.684  20.961   5.184  0.0279 -0.1023  0.0745
73889W        W16802   5.692  16.740   3.201 -0.0984 -0.1292  0.0283
73890W        W16803   9.087  27.217   8.230  0.1670 -0.0717 -0.2063
73891W        W16804  14.905  31.238   3.677 -0.3937 -0.1484 -0.0861
73892W        W16805  34.086  31.033   7.705  0.1411  0.2739 -0.0281
73893W        W16806   3.409  28.912   5.123 -0.1769 -0.0650  0.1588
73894W        W16807   3.921  21.183  26.316  0.2688  0.0822  0.1450
73895W        W16808   4.666  22.284   2.492 -0.1197 -0.2802  0.1863
73896W        W16809   9.448  19.911  26.048  0.0105 -0.0712 -0.4400
73897W        W16810   4.767  19.072   8.186  0.0203 -0.0931  0.0803
73898W        W16811   1.320  28.203  25.250 -0.0463  0.2139  0.2979
73899W        W16812   9.261  22.798  24.106  0.1864 -0.0994 -0.2819
73900W        W16813   3.823  28.213  21.585 -0.3146 -0.0936  0.0798
73901W        W16814  10.940   1.445   3.520  0.1480  0.1609  0.3928
73902W        W16815   4.585  22.937   4.899 -0.1505 -0.0485 -0.1711
73903W        W16816  10.320   3.654  12.891  0.0206  0.3554 -0.1331
73904W        W16817  14.230  20.326  18.530 -0.3874 -0.0667  0.0363
73905W        W16818   2.155  11.178   0.692 -0.1453 -0.0512 -0.2009
73906W        W16819   2.752  20.528   5.101  0.1254 -0.0171  0.0738
73907W        W16820  34.383   1.280   0.831  0.0674  0.2778  0.1413
73908W        W16821  34.111  27.712   3.127  0.1557 -0.0283  0.0367
73909W        W16822   7.373  14.937  27.229  0.3730  0.0516 -0.5074
73910W        W16823  10.541  29.835   2.342 -0.0879  0.1961 -0.0530
73911W        W16824   7.205  25.256   6.871 -0.0846 -0.2336  0.0474
73912W        W16825   4.917   3.742   9.868  0.1226  0.3643  0.2890
73913W        W16826  32.674   2.401   0.242 -0.3587  0.3296  0.0312
73914W        W16827  32.831  24.547   5.493  0.1827 -0.0152  0.1056
73915W        W16828  10.786   9.170   6.556  0.1413  0.1289 -0.3870
73916W        W16829  14.188  33.065   7.786  0.5322  0.1502 -0.0778
73917W        W16830   1.165  33.190  29.129  0.0584  0.0477  0.0422
73918W        W16831   6.598  22.655  29.464  0.1015 -0.0971  0.0791
73919W        W16832   3.199   1.269   7.557  0.0454 -0.1555  0.1539
73920W        W16833   3.807  21.118  10.519 -0.2449  0.5149 -0.3198
73921W        W16834   8.576  32.516   7.153 -0.1398 -0.0056  0.1983
73922W        W16835   9.715  28.472  19.309  0.0929  0.1305 -0.2215
73923W        W16836   1.586  27.484   2.611  0.3120 -0.2006  0.1096
73924W        W16837   1.152  30.162  25.537  0.1354 -0.0436 -0.1077
73925W        W16838  11.773  26.634  28.638 -0.0622 -0.2125 -0.0187
73926W        W16839  10.324  29.322  24.866 -0.2561  0.0316  0.0154
73927W        W16840   2.488  21.254  26.555  0.0753 -0.2394 -0.1554
73928W        W16841   9.078  22.459   1.650 -0.2800  0.2331 -0.0814
73929W        W16842  32.793  23.712   1.819 -0.3006  0.0102 -0.2808
73930W        W16843   6.732   6.713  24.694 -0.6320  0.0003  0.2026
73931W        W16844   4.530  29.931  27.269  0.0275 -0.1289 -0.0165
73932W        W16845   7.422  12.497   1.106 -0.0054 -0.0829  0.2527
73933W        W16846   2.603  29.204  26.300  0.0469 -0.1044  0.2359
73934W        W16847   1.921  29.000   7.834 -0.2198 -0.2936  0.1117
73935W        W16848   8.976   7.690   8.846 -0.0667  0.0381  0.1703
73936W        W16849   1.572  30.747   5.922 -0.1289  0.1540 -0.1952
73937W        W16850  12.823  29.798  27.686  0.1846  0.0551  0.0329
73938W        W16851   0.946  33.729  26.001 -0.1529 -0.0488 -0.0607
73939W        W16852  11.701  20.675  21.432 -0.0185 -0.2726 -0.1497
73940W        W16853   8.232  28.563   0.047 -0.1041  0.4659  0.2382
73941W        W16854   2.457  24.391  26.884 -0.1732  0.0938  0.1295
73942W        W16855   6.886  24.837   2.183  0.0080 -0.0025 -0.1215
73943W        W16856  12.095  18.094  24.137  0.0447 -0.1727 -0.0079
73944W        W16857   1.236  19.694   6.460  0.2636 -0.0396  0.1303
73945W        W16858   9.940  18.238  23.134  0.2186 -0.2779  0.2127
73946W        W16859   3.514   1.105   9.205  0.0944 -0.0537  0.0867
73947W        W16860   8.551  27.326  28.202 -0.4018 -0.2216 -0.4715
73948W        W16861   4.419  24.990   4.088 -0.0745  0.3761 -0.2303
73949W        W16862  29.037  28.205   5.231 -0.1342  0.2043 -0.0977
73950W        W16863   6.799  29.335  20.186 -0.0136  0.0885  0.1422
73951W        W16864   2.917   1.379   1.739  0.0217  0.0640 -0.0479
73952W        W16865   5.794  18.790   2.863  0.3447  0.3250  0.1477
73953W        W16866   3.007  23.567   9.861  0.1692  0.3377 -0.1344
73954W        W16867   8.799  24.546   2.455  0.0658  0.0796 -0.1169
73955W        W16868   6.327  27.461   2.554  0.0858 -0.1792  0.1419
73956W        W16869  30.512  29.022  29.279  0.1288  0.2207 -0.0314
73957W        W16870   0.425  28.312   4.176  0.3113 -0.1355  0.3933
73958W        W16871   8.355  26.943  11.555  0.0116 -0.1784  0.0893
73959W        W16872  11.489  17.247   4.419  0.3377  0.0272  0.0712
73960W        W16873   0.949   3.723   1.634 -0.0790  0.1498 -0.1007
73961W        W16874   9.732  19.148   8.075 -0.3550  0.2077  0.1537
73962W        W16875  12.666  16.611   1.867  0.0019 -0.1646  0.4114
73963W        W16876  32.190   1.271   1.234 -0.0660  0.1477 -0.2185
73964W        W16877   2.048  28.398   0.684 -0.1304 -0.5184  0.3261
73965W        W16878   3.240  28.828   2.122 -0.1949 -0.3426 -0.2649
73966W        W16879  17.000  32.321   1.011  0.0027  0.1704  0.2574
73967W        W16880  29.703  32.625   0.851  0.0115 -0.0165 -0.3811
73968W        W16881   7.126  25.854   2.827 -0.0518 -0.0716  0.0170
73969W        W16882   1.934  24.548  25.427  0.4018 -0.0302 -0.0611
73970W        W16883   2.793  15.789   5.152 -0.0236 -0.0925  0.2068
73971W        W16884  11.806   2.205   8.033 -0.0324 -0.2262  0.3266
73972W        W16885   7.215  24.900  28.667  0.1542 -0.1520 -0.0905
73973W        W16886   5.154  26.624   0.734 -0.1033 -0.0103 -0.1394
73974W        W16887   4.293  28.783   1.266 -0.1650  0.3096 -0.0156
73975W        W16888  12.995  13.820  28.349  0.1834  0.0258  0.0698
73976W        W16889   6.351  28.156  26.082 -0.3708 -0.1973  0.0762
73977W        W16890  13.323  17.078  24.691  0.0495 -0.2492 -0.1365
73978W        W16891   1.811  27.027   7.873 -0.0538  0.2500  0.1142
73979W        W16892   5.200  26.996   1.042  0.0622 -0.2217  0.1082
73980W        W16893  26.601  28.313   1.855 -0.2429  0.1183 -0.3148
73981W        W16894   2.595  25.507   1.976 -0.0826  0.1795  0.0590
73982W        W16895   1.145  22.977  26.352 -0.2462  0.1939  0.1014
73983W        W16896  32.433  16.166   5.753  0.2885  0.0654 -0.0256
73984W        W16897   8.316  23.178   2.957  0.0525  0.1915 -0.0224
73985W        W16898  27.773   3.370   0.855  0.1668 -0.0462  0.0716
73986W        W16899   8.545  19.309   6.172 -0.3945 -0.3817  0.0952
73987W        W16900  10.381   2.096  27.553  0.2038 -0.2203  0.3694
73988W        W16901  12.105  29.476  23.116  0.1267  0.0733  0.0295
73989W        W16902   0.254  18.684  28.781  0.2266 -0.0897 -0.1151
73990W        W16903   4.250  20.282  28.967 -0.0192  0.0977 -0.0095
73991W        W16904   4.318  19.204   1.118  0.1155 -0.1948  0.0273
73992W        W16905   3.686  32.979  20.539  0.0041  0.2284  0.0865
73993W        W16906   6.485  15.158   6.407  0.0298  0.2655 -0.1771
73994W        W16907   7.851  27.144  25.332 -0.3234 -0.0585  0.0569
73995W        W16908   8.545  26.537   5.348 -0.3793  0.2777  0.0385
73996W        W16909   7.299  16.339   2.759 -0.0117  0.2275 -0.2560
73997W        W16910  33.221  16.481  27.722  0.3756 -0.1689 -0.0081
73998W        W16911   9.078  26.602  21.482  0.0166  0.1848  0.0369
73999W        W16912   8.444  29.079  10.996 -0.0857 -0.0378 -0.1078
74000W        W16913   0.602  24.173   3.767  0.0499 -0.0383  0.3037
74001W        W16914   5.853  27.698   6.385 -0.1574 -0.1829 -0.2396
74002W        W16915   6.224  29.166   2.693 -0.1037  0.3590  0.0207
74003W        W16916  10.507  18.071   8.395 -0.2411  0.1576 -0.0652
74004W        W16917  15.684  26.341  29.697 -0.1055  0.2105 -0.1081
74005W        W16918   3.941  24.754   4.850  0.0633 -0.0052  0.0297
74006W        W16919  10.422  22.124   9.865 -0.1269  0.3648 -0.0909
74007W        W16920  14.473  32.857   2.039 -0.0119  0.3395  0.0967
74008W        W16921   7.615   2.228  28.744 -0.0091  0.0052  0.0531
74009W        W16922  18.648  16.246  24.133 -0.1056 -0.1295 -0.0197
74010W        W16923   3.520   1.888  23.709  0.1424  0.3320 -0.0526
74011W        W16924   4.062  30.731  10.063 -0.1309  0.0180  0.3314
74012W        W16925   0.457  22.308   4.379  0.0072 -0.1454  0.2137
74013W        W16926   0.702  19.383  25.569 -0.0267 -0.0126  0.1426
74014W        W16927   8.425  19.827   8.934 -0.3434  0.0603 -0.3194
74015W        W16928   6.978  27.348   4.909  0.1195 -0.2132  0.1350
74016W        W16929  33.105  27.463  23.502  0.0786  0.0526 -0.2644
74017W        W16930   5.048  22.215   2.102  0.1516  0.0351  0.4892
74018W        W16931  13.882  21.603  26.273 -0.4308  0.1388  0.1120
74019W        W16932   2.698  27.467  28.147 -0.0582 -0.2021 -0.2998
74020W        W16933   2.205   7.982  26.402 -0.0333 -0.0142 -0.0433
74021W        W16934   2.937  32.814  29.058  0.1163  0.0171  0.3721
74022W        W16935   8.454  16.572   7.564  0.2232 -0.1791 -0.1173
74023W        W16936   0.026  27.413  21.178  0.1176 -0.0456  0.2782
74024W        W16937   4.653  23.967   7.364 -0.1154 -0.1208 -0.0668
74025W        W16938  14.925  27.206   5.390  0.1721 -0.1495  0.1007
74026W        W16939  14.814   3.354   8.787  0.0704  0.0502 -0.1440
74027W        W16940  34.388  21.455   6.483 -0.1429 -0.0177  0.0622
74028W        W16941   5.766   3.616  23.961 -0.1032  0.0314  0.3240
74029W        W16942   5.467  32.001   2.081 -0.1427  0.0573 -0.3309
74030W        W16943  14.026  20.906  24.243  0.1315  0.0090  0.1936
74031W        W16944   7.720  29.984   3.557  0.2519 -0.0433 -0.0720
74032W        W16945  17.904  25.305   7.536  0.0667 -0.1780 -0.2790
74033W        W16946  25.934   2.840   5.563  0.0986  0.2274 -0.0673
74034W        W16947  29.887  16.275   6.830 -0.1709 -0.2285  0.0160
74035W        W16948   6.300   0.290  25.606  0.2744 -0.2706 -0.1087
74036W        W16949   5.316  27.441   1.889  0.1266  0.0294  0.0763
74037W        W16950   5.037  32.742   1.663 -0.0921 -0.1903  0.1622
74038W        W16951  28.385  22.137   3.792  0.1330  0.0876  0.1033
74039W        W16952   5.040  29.527   8.295  0.0517 -0.1038 -0.0365
74040W        W16953   4.566  28.296  24.465 -0.0464 -0.1127 -0.0438
74041W        W16954  16.828  26.789  24.645 -0.0052  0.0524 -0.1122
74042W        W16955  32.827   1.513   7.479  0.0341  0.0764 -0.1805
74043W        W16956   9.368  29.529   0.577 -0.0221  0.1543 -0.2743
74044W        W16957   5.770   2.364   7.289 -0.1581  0.0094  0.4075
74045W        W16958   6.815   0.330   9.629 -0.3254  0.0722 -0.1528
74046W        W16959  10.551  29.435  23.119 -0.1603  0.1898  0.1248
74047W        W16960   1.220  25.885   1.597 -0.0321 -0.5723  0.2580
74048W        W16961  34.337  27.312   2.750 -0.1562  0.3599 -0.1170
74049W        W16962   7.043  13.156   0.259 -0.0725  0.0169 -0.1431
74050W        W16963   3.351  30.017  27.337  0.0827 -0.1008 -0.3326
74051W        W16964   5.515  31.690   5.382  0.1226 -0.0955 -0.0216
74052W        W16965  10.747  16.155  18.827  0.0757  0.0834  0.3587
74053W        W16966  15.387  25.258  24.342  0.0564 -0.1311  0.2435
74054W        W16967   0.017  32.143   0.880 -0.2897  0.1421 -0.1276
74055W        W16968   5.326   4.733   4.116  0.0966 -0.3215 -0.0827
74056W        W16969   8.259  23.177  25.925 -0.0414 -0.0332  0.0784
74057W        W16970  12.083   1.895   8.450 -0.2138 -0.2119  0.0117
74058W        W16971   6.702  28.709   3.528 -0.1546  0.0544 -0.1254
74059W        W16972   6.543  30.837  25.964  0.3972 -0.0629 -0.1455
74060W        W16973  33.216  26.191   0.944 -0.5463  0.2909  0.2184
74061W        W16974  30.472  22.288   4.504 -0.0632 -0.1659  0.0756
74062W        W16975  33.723  31.550   6.760  0.3337  0.3318  0.1424
74063W        W16976   0.863  27.177   3.564  0.0032 -0.0106 -0.0724
74064W        W16977   5.107  16.849  26.684 -0.0241 -0.0852  0.0585
74065W        W16978   7.579  18.707   3.877 -0.0130  0.1175  0.2957
74066W        W16979   3.629  21.511   5.663  0.1789 -0.0139  0.2883
74067W        W16980   4.571  29.943  19.669 -0.2508  0.2166  0.0514
74068W        W16981  10.340  14.179   5.364  0.1523 -0.2415  0.0207
74069W        W16982  10.490   2.279  11.378 -0.0409 -0.2072  0.1005
74070W        W16983  30.013  25.451  28.656  0.1280  0.3786  0.1040
74071W        W16984  12.397  27.783   5.929 -0.3412  0.0424 -0.0169
74072W        W16985   3.866  15.999  28.854  0.1532 -0.0033 -0.0469
74073W        W16986   0.540  29.306  29.696  0.0468 -0.3828 -0.1896
74074W        W16987   4.270  29.068  22.969 -0.1108  0.0274  0.0081
74075W        W16988  24.923  33.190  26.679  0.1563  0.0335  0.1221
74076W        W16989  16.510  23.787  29.762  0.2259 -0.0005  0.0986
74077W        W16990   8.923  27.347   0.736  0.2759 -0.3568 -0.0631
74078W        W16991  32.994  27.324  28.341 -0.2255 -0.1588 -0.1475
74079W        W16992   5.108  24.911   3.266 -0.1466  0.0346 -0.1713
74080W        W16993   6.930  25.165   3.505 -0.1678 -0.0107 -0.1163
74081W        W16994  10.699  24.152   4.390 -0.1641 -0.1047 -0.0066
74082W        W16995   9.411  30.127  12.209 -0.1979 -0.0752  0.5072
74083W        W16996   7.194  29.152  11.790 -0.2302 -0.0037 -0.3792
74084W        W16997  28.886  22.390  28.425 -0.0807  0.3085  0.0658
74085W        W16998  10.094   0.851   9.664 -0.1202  0.0348  0.3625
74086W        W16999  12.301  32.578   3.136 -0.0488 -0.0941 -0.1918
74087W        W17000   8.290  24.269   6.878 -0.1338  0.1018  0.3555
74088W        W17001   7.707  18.078   3.178  0.3533  0.2138  0.1146
74089W        W17002   4.346   2.248  25.951 -0.4401 -0.1809 -0.0638
74090W        W17003  31.244  10.464   4.483  0.3382  0.3684 -0.1914
74091W        W17004   3.373  19.727  26.507  0.3190  0.1321  0.0634
74092W        W17005   4.078   3.438   6.709  0.0002 -0.0039 -0.0210
74093W        W17006   7.473  23.670   7.604  0.0544 -0.2550  0.1789
74094W        W17007  13.677  21.073   1.484  0.0889 -0.3316 -0.0182
74095W        W17008  13.783  25.571  24.224 -0.0578  0.0615  0.2675
74096W        W17009   6.344  24.875  26.564  0.0394  0.0630 -0.0414
74097W        W17010   1.591  28.523  16.306  0.1519  0.1675  0.0612
74098W        W17011   3.402   6.316  11.386  0.0135  0.0278 -0.0785
74099W        W17012   0.797  19.357   0.766  0.0241 -0.3579  0.0019
74100W        W17013   0.364  23.551  10.845  0.0873 -0.0415 -0.1664
74101W        W17014   4.004  24.813  26.934 -0.1779 -0.1608 -0.3682
74102W        W17015   9.131  18.098   4.779  0.0123  0.1810 -0.2516
74103W        W17016  28.765  24.744  29.207 -0.3829 -0.2054 -0.0622
74104W        W17017  13.777  27.468   2.132 -0.1013  0.1587 -0.0734
74105W        W17018   7.350  20.923   7.820 -0.2338  0.3575 -0.1816
74106W        W17019  32.322  25.761  16.544 -0.0948  0.1388 -0.2512
74107W        W17020  16.690  19.051  14.023 -0.1626  0.2258 -0.2968
74108W        W17021   0.835  31.099  25.791 -0.1491 -0.3269 -0.1333
74109W        W17022  18.585  22.946   6.401 -0.1307 -0.0532  0.1140
74110W        W17023   6.814  22.896  17.041 -0.0672  0.2120 -0.0746
74111W        W17024  34.329  14.068  26.779  0.0535 -0.0231  0.0048
74112W        W17025  13.843  18.936   5.387 -0.1303 -0.1383  0.2393
74113W        W17026   7.653  23.433   0.934  0.0808 -0.0278  0.2805
74114W        W17027   2.694  31.111   1.655  0.0293 -0.0309  0.1950
74115W        W17028  11.843  33.592   0.798  0.0807  0.0795 -0.0573
74116W        W17029  14.042  28.366   6.310  0.1775  0.1136  0.1697
74117W        W17030   9.742  19.128   0.878  0.0029  0.0627 -0.0872
74118W        W17031  32.273  21.778  28.923  0.1396 -0.3308 -0.0065
74119W        W17032   8.503  20.481  22.138  0.0068  0.2732 -0.0743
74120W        W17033  20.832  14.901  28.534 -0.0998 -0.2142 -0.0660
74121W        W17034   3.548  33.884  28.172  0.0203  0.1010 -0.0070
74122W        W17035   5.937  15.830   7.466  0.4181 -0.1969  0.0266
74123W        W17036  14.685  21.314  26.343 -0.1630  0.1958  0.1251
74124W        W17037  32.237  25.994   4.361  0.0083  0.0279 -0.1838
74125W        W17038  15.243  21.734   6.096 -0.4083  0.2093  0.0393
74126W        W17039   0.954  29.621  24.988  0.0168 -0.0941  0.0302
74127W        W17040  32.999  20.579   2.849  0.0163  0.0134  0.0764
74128W        W17041   3.255  15.972   7.441  0.3579 -0.1570  0.1601
74129W        W17042   6.205  20.678   7.630  0.0529 -0.0697  0.0072
74130W        W17043   0.718  21.865  19.921  0.1499 -0.1918  0.1526
74131W        W17044  31.205  28.783   0.364  0.3991 -0.0965 -0.1898
74132W        W17045   3.597  29.205   0.504  0.1932 -0.0062  0.0285
74133W        W17046  19.996  27.484   3.741  0.1433 -0.4016  0.0668
74134W        W17047  13.405   5.030   6.609 -0.2589 -0.0493 -0.2058
74135W        W17048  30.432  23.879   7.919 -0.1234 -0.0315  0.1348
74136W        W17049   5.422  26.069   2.326  0.2268  0.1042  0.1947
74137W        W17050  28.334  19.907   1.170 -0.2187  0.0238  0.0847
74138W        W17051  30.827  31.608   3.997 -0.1330  0.0536 -0.0268
74139W        W17052  31.124   6.883  10.387  0.1316  0.4030 -0.2465
74140W        W17053  31.887  32.429   3.935 -0.1453 -0.0992  0.2329
74141W        W17054   2.921  20.229  25.367 -0.0771  0.2245 -0.1103
74142W        W17055   3.885  29.148   8.702 -0.0510  0.0670  0.1287
74143W        W17056  34.082   2.089  22.005  0.1980  0.2018 -0.2245
74144W        W17057  11.839  10.870   3.235  0.0922 -0.0031  0.1192
74145W        W17058   0.802   8.266   5.031  0.1124  0.1654 -0.0158
74146W        W17059   4.463  34.495   3.761 -0.3914 -0.0169  0.5667
74147W        W17060   4.970  19.449   7.364 -0.3647  0.0236  0.1003
74148W        W17061  19.352  26.263   2.285  0.1313 -0.2529 -0.3268
74149W        W17062   4.865  22.556   6.215  0.1327  0.3216 -0.0237
74150W        W17063  31.831   5.137   7.126  0.1026 -0.0213 -0.2271
74151W        W17064   5.461  20.044  29.490  0.0508 -0.2789  0.1151
74152W        W17065  13.666   0.372  29.714 -0.3223 -0.1828 -0.2594
74153W        W17066   9.794  30.923  26.380 -0.3042 -0.4689  0.1329
74154W        W17067  33.342  33.169  29.314 -0.1368  0.1845 -0.1974
74155W        W17068   8.587   3.701  28.634 -0.0952  0.2487 -0.1901
74156W        W17069   1.934   0.970   8.076 -0.0909  0.2259  0.2782
74157W        W17070   3.393  22.479   4.935 -0.1067  0.0114 -0.2131
74158W        W17071  34.176  33.844   6.196  0.0812  0.1090 -0.0855
74159W        W17072   3.058   2.977   7.495  0.2998 -0.1634  0.3912
74160W        W17073  32.475  34.011  24.413  0.3357 -0.0043  0.2574
74161W        W17074  10.422  22.126   5.186  0.0689  0.2947 -0.2652
74162W        W17075   6.532  24.471  29.753  0.0423  0.1800  0.1564
74163W        W17076  33.561   1.605   2.703  0.0971  0.1884  0.1615
74164W        W17077  33.977  19.719  27.652 -0.0854 -0.0555 -0.3012
74165W        W17078  32.331   1.754  17.017 -0.0247 -0.3520 -0.0743
74166W        W17079   4.516  29.317   2.320  0.0491 -0.1457 -0.1466
74167W        W17080   5.293  25.564  28.795  0.0355  0.2203 -0.0865
74168W        W17081  11.709  26.912   1.736 -0.0269  0.3239 -0.2147
74169W        W17082   2.630  31.358   6.762 -0.3234  0.3461 -0.0333
74170W        W17083   6.172  23.994   9.350  0.1286  0.3644 -0.1916
74171W        W17084   8.556  23.879  24.388 -0.3472 -0.0405  0.0727
74172W        W17085  34.093  26.458   3.440 -0.1731 -0.0428 -0.0273
74173W        W17086   9.962  32.067  27.265  0.2278 -0.0473  0.1325
74174W        W17087  11.780  30.889   9.628  0.0641  0.1256 -0.1242
74175W        W17088   6.473  24.336   1.747 -0.1183 -0.5199 -0.1731
74176W        W17089  28.837  13.137   1.073 -0.0291  0.1247 -0.0747
74177W        W17090  32.789   3.236   1.917  0.0020 -0.2466  0.0798
74178W        W17091   1.599  16.139   8.607  0.1389 -0.0871  0.0149
74179W        W17092   3.954  18.348   7.266 -0.0389 -0.3461 -0.1572
74180W        W17093  16.394  23.637   2.833 -0.0470 -0.0849  0.0111
74181W        W17094   3.122  16.348  24.741  0.1473  0.1453  0.2057
74182W        W17095   4.932  32.711   6.511 -0.1372 -0.1656 -0.1478
74183W        W17096   9.883   1.863  29.352 -0.0242 -0.0388  0.3389
74184W        W17097   4.683  30.673  25.200 -0.3767  0.0565 -0.2050
74185W        W17098   0.808  33.390   0.626  0.3097 -0.3489  0.3690
74186W        W17099   3.205  27.538  29.188  0.4619  0.2638 -0.0989
74187W        W17100  32.871  28.633   4.810 -0.1510 -0.1068 -0.1297
74188W        W17101   4.145  23.860   5.180 -0.1311  0.0187  0.0022
74189W        W17102   6.377  28.824   9.139  0.0984 -0.1140 -0.1704
74190W        W17103   8.551  23.546   5.698 -0.0442 -0.0268  0.0774
74191W        W17104   2.210  30.734  26.570 -0.1687  0.1246 -0.1892
74192W        W17105  33.493  28.076   3.076 -0.0732  0.2394  0.2862
74193W        W17106   3.793  24.237  22.980  0.1158  0.1337  0.0055
74194W        W17107  34.127  31.371   5.415  0.0694  0.1712  0.1771
74195W        W17108  12.986  30.459   1.139  0.0678  0.2042  0.1438
74196W        W17109  32.367  26.499   4.219 -0.2411 -0.2591  0.0896
74197W        W17110   6.900  26.980  25.526  0.0626  0.0434 -0.1142
74198W        W17111  32.461  18.232   7.927  0.0704 -0.1897 -0.2785
74199W        W17112   9.610  22.823   8.639  0.0195 -0.1753  0.0488
74200W        W17113  30.583  33.872   2.462 -0.1626  0.2768 -0.1587
74201W        W17114  10.214  27.370  18.865  0.0055 -0.0247  0.0795
74202W        W17115  13.339  22.463  28.692 -0.0960  0.1495 -0.2229
74203W        W17116   7.416  29.560  11.496 -0.2264  0.0356 -0.0665
74204W        W17117  32.996  26.236  22.292  0.2332  0.0178  0.1167
74205W        W17118  31.559  23.138   4.736  0.1962  0.1607 -0.2999
74206W        W17119   6.634  16.229   1.018 -0.0840  0.0705  0.0055
74207W        W17120  18.558  27.246   0.790  0.1170  0.2159  0.2591
74208W        W17121   9.996  22.928  27.273 -0.1970 -0.1397 -0.0530
74209W        W17122   3.504  32.541   0.823  0.0509 -0.0843 -0.0662
74210W        W17123   5.756  29.103  26.671  0.1552 -0.4561 -0.3178
74211W        W17124  33.297  34.123   5.832  0.0842 -0.2079  0.1518
74212W        W17125   6.868  16.191   0.138  0.2425  0.1471  0.0642
74213W        W17126   1.711   3.200   0.444 -0.0644  0.1287 -0.0126
74214W        W17127   4.185  26.618   7.644 -0.0602  0.4333 -0.0055
74215W        W17128  33.944  26.601  28.401 -0.0989  0.0250  0.3419
74216W        W17129  12.640   1.965   9.602 -0.3976  0.4991 -0.0245
74217W        W17130   9.642   5.331   2.713  0.1069  0.1489 -0.2354
74218W        W17131  28.545  27.896   6.860  0.0687  0.3453  0.0084
74219W        W17132   6.038  32.967   0.158 -0.2998  0.0693 -0.1627
74220W        W17133  31.016  26.258  26.396  0.1333 -0.0354 -0.1264
74221W        W17134   1.532  26.472   6.091  0.1365  0.4495 -0.2372
74222W        W17135  23.019  13.840  26.100 -0.0738 -0.4729 -0.2100
74223W        W17136   6.695  26.873  23.041  0.1393  0.1334 -0.1152
74224W        W17137  16.663  33.318   2.437 -0.0509 -0.0671  0.0746
74225W        W17138   6.290  29.395   1.525 -0.0658  0.2215  0.2756
74226W        W17139   0.207  26.670   9.697  0.0548  0.0096  0.1054
74227W        W17140  33.367  19.947  24.774 -0.2598 -0.1699  0.1461
74228W        W17141  11.768  28.981   3.021 -0.0935 -0.1700 -0.1793
74229W        W17142  31.745  20.192   6.731  0.0814  0.4256  0.1386
74230W        W17143   2.994   4.498   4.077  0.0030 -0.0323 -0.2084
74231W        W17144  13.716  16.720  27.836  0.1734 -0.2943 -0.3392
74232W        W17145   1.571  18.501  22.724  0.1028  0.1459  0.1321
74233W        W17146  32.002  31.064   7.590  0.2528  0.0019  0.2320
74234W        W17147  33.076  32.336   0.336 -0.0504  0.0726 -0.2286
74235W        W17148  31.694  25.178   0.387  0.0924  0.1244  0.2472
74236W        W17149  14.360  30.946  27.434  0.0005 -0.0086  0.1642
74237W        W17150   8.898  22.988   4.271  0.0967 -0.2224  0.2243
74238W        W17151   1.794  15.379   5.675  0.0024  0.1030 -0.0145
74239W        W17152   4.756  26.974  26.968 -0.1159 -0.4301  0.2786
74240W        W17153  14.574  24.253   6.977  0.0796  0.0284  0.0891
74241W        W17154  33.008  19.829  27.953 -0.0716 -0.2401  0.0489
74242W        W17155   5.994  29.329  21.851 -0.2232 -0.0568  0.2313
74243W        W17156   0.971  18.922   2.473 -0.1900  0.0637  0.0693
74244W        W17157   1.678  21.240  26.203  0.0010  0.0784  0.2154
74245W        W17158   1.724  33.103   5.180  0.1890  0.1322 -0.0239
74246W        W17159   8.762  23.408   7.745  0.0608  0.0345  0.1160
74247W        W17160  30.021  24.616  21.127  0.4584  0.1109 -0.0625
74248W        W17161  14.293  17.047  24.318  0.1574  0.2800 -0.0676
74249W        W17162  30.704  34.248   2.055  0.2503 -0.3723 -0.2495
74250W        W17163   5.245  33.075   2.722 -0.2120  0.2908  0.0053
74251W        W17164   3.538  29.501   3.803 -0.0189  0.2843 -0.1166
74252W        W17165   0.867  26.811  20.053  0.0201  0.1314  0.2927
74253W        W17166   8.490  24.391   4.708  0.2804  0.0320  0.0758
74254W        W17167  18.635  20.615   4.852  0.3368  0.0201  0.1598
74255W        W17168   4.776  16.898   0.579 -0.3374 -0.3404 -0.2142
74256W        W17169   3.177  28.561  29.453 -0.0568 -0.0537 -0.1125
74257W        W17170   6.629  27.184   2.832 -0.1931 -0.1684 -0.0942
74258W        W17171   9.503   0.566   8.744 -0.0931 -0.1132 -0.0168
74259W        W17172   1.120  31.958  24.896  0.1253  0.0472  0.0845
74260W        W17173   5.165  29.589  27.432  0.1762 -0.2058 -0.1109
74261W        W17174  11.378  15.374   5.806 -0.1704  0.2331  0.0276
74262W        W17175  28.929  31.914   2.135  0.1440 -0.1190 -0.0251
74263W        W17176   7.243  32.862   0.990  0.0407  0.1096  0.0494
74264W        W17177  30.895  34.055   1.017 -0.1407 -0.2192  0.1193
74265W        W17178   0.953  16.923  26.747 -0.3025 -0.2966 -0.1065
74266W        W17179   8.063  25.312  28.817 -0.3801 -0.2624  0.0426
74267W        W17180  11.760  14.171   7.553 -0.1366 -0.0502  0.1088
74268W        W17181  20.429  33.445   5.888 -0.1036 -0.2638  0.3658
74269W        W17182  12.832  26.100  24.368 -0.0628 -0.0844  0.2679
74270W        W17183   6.157  31.123  24.855 -0.0566  0.0527 -0.5206
74271W        W17184   3.264   4.561  10.707  0.0669  0.2256  0.1944
74272W        W17185  31.736  32.827  22.420  0.3836  0.1489  0.1320
74273W        W17186   6.293  31.043  26.443  0.0877  0.2446  0.0231
74274W        W17187   6.126  26.699  29.207  0.2716 -0.0529  0.0851
74275W        W17188   3.756  26.342   9.533  0.0212  0.0524 -0.1844
74276W        W17189  12.666  31.620   1.117  0.0590 -0.2474 -0.0582
74277W        W17190   2.668  20.323   5.931  0.1112  0.1115  0.1440
74278W        W17191   1.607  32.744  28.491 -0.1326  0.2126 -0.1169
74279W        W17192   4.919  21.137   8.984 -0.2397 -0.0975 -0.0602
74280W        W17193   8.650  33.786   1.066  0.1856 -0.2537 -0.1813
74281W        W17194   1.608  27.395   6.214 -0.0610 -0.3281  0.0249
74282W        W17195   4.455  20.297  21.698 -0.0669 -0.0002  0.3094
74283W        W17196   1.334  31.866   6.997 -0.2308 -0.0025  0.0224
74284W        W17197   0.945  14.571   0.784  0.1949 -0.1813  0.2659
74285W        W17198  11.869  19.071  21.553  0.0130  0.0145  0.1294
74286W        W17199  29.833  21.263   1.022  0.1282  0.0900  0.2926
74287W        W17200   7.885  30.849   5.169  0.0301 -0.0238 -0.2454
74288W        W17201  34.398  19.877   0.571  0.1713  0.1041  0.1478
74289W        W17202   5.720  19.617   9.383  0.2688  0.2047  0.0343
74290W        W17203   6.551  26.529  28.128 -0.1779 -0.4322  0.0523
74291W        W17204  13.220  31.209   3.449 -0.1930  0.1576 -0.1383
74292W        W17205   6.144  22.939   2.365 -0.1450 -0.1094 -0.4821
74293W        W17206  34.092  30.887   1.789  0.0867  0.0986 -0.2474
74294W        W17207  28.813  14.611   8.687 -0.1569  0.2820  0.2522
74295W        W17208   6.544   0.827   8.240 -0.0903  0.0269 -0.1702
74296W        W17209   1.822  27.117   0.516 -0.1101 -0.2215 -0.2525
74297W        W17210   7.724  31.860   4.060 -0.1370  0.0943  0.0785
74298W        W17211   7.636  22.487   2.543  0.0661  0.3280  0.0579
74299W        W17212  11.339  28.478   3.108  0.0411 -0.1706  0.0380
74300W        W17213   6.071  29.571   2.900 -0.2911  0.0455  0.1068
74301W        W17214   3.558  26.608  28.965 -0.1264  0.0627 -0.0168
74302W        W17215  34.342  16.563   8.388 -0.2733  0.0287 -0.2778
74303W        W17216   5.042  17.510   2.325 -0.2484  0.0283  0.2018
74304W        W17217   6.080  24.680  21.404 -0.3984  0.0151  0.1881
74305W        W17218  26.679  19.793   1.420  0.0400  0.0558  0.0121
74306W        W17219  29.965   7.419   0.324  0.0158 -0.1009  0.0392
74307W        W17220  34.286  33.234   3.908 -0.0881 -0.0904 -0.2041
74308W        W17221   2.473   3.348  11.947 -0.2964 -0.0351 -0.1150
74309W        W17222  33.814  24.874  23.949 -0.0312 -0.1396 -0.0086
74310W        W17223  34.214  27.589   3.620 -0.1949  0.1829 -0.0795
74311W        W17224  14.465  15.398   7.535 -0.0143  0.1753  0.1590
74312W        W17225   8.423  25.549   8.329 -0.0692 -0.2178 -0.0294
74313W        W17226   8.183  28.419   3.308 -0.2433  0.3537  0.0324
74314W        W17227  10.836  26.563   2.900 -0.0870  0.0708 -0.1007
74315W        W17228  10.739  21.493   7.280 -0.1882 -0.1013 -0.0896
74316W        W17229  30.101  29.569   6.371  0.1246  0.2221  0.1423
74317W        W17230   8.633  24.905   0.327 -0.0423 -0.2563  0.2672
74318W        W17231  19.866  26.516   9.509 -0.0884 -0.0387 -0.2597
74319W        W17232   5.494   4.507  10.935  0.1976 -0.0344  0.0240
74320W        W17233   7.656  24.059   9.731  0.2569 -0.0663  0.0016
74321W        W17234  10.059  25.191   0.082 -0.2014  0.0165 -0.2411
74322W        W17235   3.303   3.401   5.529  0.1382 -0.0938 -0.1170
74323W        W17236  32.235  28.681   4.161 -0.1923  0.1257 -0.2612
74324W        W17237   1.035  26.236   3.710 -0.0112  0.0495 -0.0091
74325W        W17238   8.863  33.544  11.338  0.2125  0.3448 -0.3088
74326W        W17239   5.897  30.830   7.245 -0.0768  0.0451 -0.1406
74327W        W17240  14.619  28.229  23.970 -0.0159  0.1378  0.1662
74328W        W17241  13.740  15.891   0.605 -0.0420 -0.0566  0.1263
74329W        W17242   3.266   2.387   7.403 -0.0615 -0.2217 -0.1224
74330W        W17243   6.586   0.732   1.335  0.4195  0.0783  0.2507
74331W        W17244   7.775  21.296   6.170 -0.2229  0.1664  0.1410
74332W        W17245   1.917  18.121   5.264 -0.0442  0.0679  0.0588
74333W        W17246  33.600  29.357   3.354  0.2328  0.2783  0.0665
74334W        W17247  28.977   1.005   7.484  0.3141  0.1138  0.0683
74335W        W17248  33.795   1.889   6.797 -0.1112  0.1357 -0.0889
74336W        W17249   2.122   3.707   2.829  0.0368 -0.0751  0.0852
74337W        W17250   4.051  27.162   3.264 -0.0714  0.3037 -0.0122
74338W        W17251  30.907  32.116   4.667 -0.0233  0.1836 -0.1855
74339W        W17252  14.536  22.332   8.013 -0.3877  0.2124 -0.1306
74340W        W17253   0.344   2.009   2.061 -0.1349  0.0076  0.0908
74341W        W17254   8.583  34.488   8.031 -0.2178  0.1984 -0.3622
74342W        W17255   8.162  29.690   0.045 -0.0749  0.3353 -0.0588
74343W        W17256  31.310  22.916   6.168  0.1371  0.1372 -0.1927
74344W        W17257  11.733  30.007   3.250 -0.1923 -0.0596 -0.1140
74345W        W17258  29.894  32.446   7.818  0.4529  0.1727 -0.2315
74346W        W17259   7.606  24.296   2.370 -0.0118 -0.0165  0.0271
74347W        W17260  14.101   0.908   1.258  0.1203 -0.5149  0.3600
74348W        W17261   0.983   2.496  29.388 -0.0083  0.0271  0.0472
74349W        W17262  32.401   0.122   6.214 -0.1442  0.0832 -0.0146
74350W        W17263   3.647  18.415   3.615 -0.0538  0.1712 -0.0306
74351W        W17264   3.329  29.066   9.472  0.2700 -0.1541 -0.2226
74352W        W17265   6.657  19.657   5.819  0.1261 -0.0492 -0.5138
74353W        W17266  33.119   8.822   1.723 -0.2027  0.1353  0.2584
74354W        W17267   4.896  26.432   1.984  0.0803 -0.0196  0.1582
74355W        W17268  16.707   3.051   5.277  0.0736  0.0940 -0.2867
74356W        W17269  33.798  25.283   4.898 -0.1375 -0.4238 -0.1119
74357W        W17270   8.376  21.850  21.079 -0.0084  0.2768  0.0528
74358W        W17271   9.814   3.524  11.598 -0.1876  0.0403  0.1756
74359W        W17272   3.706  20.755   4.259  0.0990 -0.1473 -0.1370
74360W        W17273  34.449  26.377   4.407  0.1970 -0.0504 -0.2487
74361W        W17274  17.865   4.840   5.647  0.1684  0.0056  0.0554
74362W        W17275   5.476  29.544  28.077 -0.1109 -0.2033 -0.0127
74363W        W17276  32.021  19.411   8.077 -0.0198  0.0512 -0.2108
74364W        W17277   8.287  24.418   0.146 -0.0341  0.0907  0.2671
74365W        W17278   3.058   3.176   3.877  0.1186 -0.1599  0.1926
74366W        W17279  11.435  15.732   4.934 -0.0241  0.1132 -0.0663
74367W        W17280  18.246   2.628  10.423  0.1290 -0.1949  0.1549
74368W        W17281  13.849  18.151   3.639 -0.2346  0.0889  0.0983
74369W        W17282  30.437  33.095   0.871  0.0223  0.3415  0.2027
74370W        W17283   5.660  23.169   9.767 -0.1513 -0.2108  0.0558
74371W        W17284   1.398  26.144   2.290  0.2923  0.1006  0.3556
74372W        W17285   5.016  31.415   8.617 -0.0545 -0.1590 -0.2473
74373W        W17286   4.282  18.677   6.499  0.1630 -0.1843 -0.0705
74374W        W17287  18.778  23.429   0.199 -0.1838 -0.0137  0.1607
74375W        W17288   8.820  13.659   7.026 -0.1129  0.3058 -0.0552
74376W        W17289   7.550  29.703   1.654 -0.4479  0.0763 -0.2768
74377W        W17290  15.709  24.698  26.365 -0.0879 -0.1036  0.0402
74378W        W17291  18.651  23.901   3.275 -0.1745  0.1327  0.0037
74379W        W17292   7.216  30.292   7.430  0.1369  0.1603 -0.1005
74380W        W17293   5.208  23.818   2.151  0.1659  0.7554 -0.0606
74381W        W17294  12.045  23.340   3.926  0.2019 -0.1683 -0.1893
74382W        W17295  12.035  10.523   9.400  0.0286  0.1330 -0.1411
74383W        W17296  10.582  22.965   0.167 -0.1327 -0.0753  0.1490
74384W        W17297  13.892  22.330  28.699  0.0097 -0.0839 -0.2300
74385W        W17298   7.555  30.356   8.853  0.3295 -0.1262 -0.1303
74386W        W17299   3.629  28.172   8.996 -0.2460 -0.0178 -0.1473
74387W        W17300  32.190  29.255   7.259  0.2074  0.2096 -0.2872
74388W        W17301   2.664  18.333   8.135 -0.1084 -0.2086  0.1804
74389W        W17302   5.588  26.902  29.035 -0.0720  0.0167 -0.0839
74390W        W17303   5.849  18.309  25.519  0.0405  0.0054 -0.0479
74391W        W17304   7.471  30.584   6.610  0.1882 -0.2173 -0.1601
74392W        W17305   2.220  24.966   3.831  0.1632 -0.1203  0.0338
74393W        W17306   3.184  26.615   1.583 -0.1922  0.0630  0.1876
74394W        W17307  12.146  31.946  10.667  0.3258 -0.2387 -0.2161
74395W        W17308  12.536  27.695   7.366  0.0235 -0.1620  0.0104
74396W        W17309   6.883   7.506  13.494  0.1698 -0.0135  0.0321
74397W        W17310   6.398  29.728   2.566 -0.1355 -0.0530  0.0451
74398W        W17311   5.574  13.725   9.912  0.0626  0.1178  0.0927
74399W        W17312   8.033  15.195   4.194  0.2019 -0.0511  0.0930
74400W        W17313   4.960  34.028  10.521  0.0527  0.0064  0.0145
74401W        W17314   3.548  20.750   4.842  0.0902  0.1352  0.0431
74402W        W17315  12.437  32.454   7.372  0.3691 -0.1313  0.1293
74403W        W17316   2.842  28.005  10.128  0.3115 -0.4568 -0.0968
74404W        W17317   4.826  23.340   0.432 -0.0611 -0.0095 -0.1874
74405W        W17318  10.082   0.152  26.374  0.2135 -0.0959  0.1962
74406W        W17319  12.462  27.822  28.821  0.0086  0.1432  0.2858
74407W        W17320  32.225  30.803   7.103 -0.1882  0.1118  0.1066
74408W        W17321  10.229  12.947  25.047 -0.0733  0.0153  0.0059
74409W        W17322  33.536  30.092   6.539  0.2950  0.2902  0.1685
74410W        W17323   5.864  27.625  28.577 -0.1219  0.0623 -0.0587
74411W        W17324   7.618  27.075   4.305  0.3204 -0.2509 -0.1577
74412W        W17325  16.132  28.061  10.687  0.0568  0.2315  0.2181
74413W        W17326   5.948  20.934   8.882  0.0548 -0.0162  0.0725
74414W        W17327  13.517  17.565   7.282  0.1424 -0.0111 -0.0229
74415W        W17328   6.450  29.367   9.216  0.1408 -0.1224 -0.1108
74416W        W17329   1.050  26.352   6.066  0.0254  0.0811 -0.2303
74417W        W17330   4.707   6.932   9.851  0.0794  0.2134  0.1057
74418W        W17331   4.006  25.685  28.048  0.1782 -0.0912 -0.2089
74419W        W17332   1.405  23.654   7.843 -0.2221 -0.1926  0.1795
74420W        W17333   0.165   2.618  12.017 -0.1247 -0.0522  0.1329
74421W        W17334   9.348  30.733   2.633  0.0136  0.1124  0.4146
74422W        W17335   1.147  18.557  27.532 -0.0929  0.1356  0.2155
74423W        W17336   4.489  24.482   2.635  0.0804 -0.2585  0.0737
74424W        W17337   1.783  17.986   7.987  0.2716  0.1660 -0.1251
74425W        W17338   6.384  30.917   9.118  0.2590  0.0729  0.0311
74426W        W17339  19.926   2.999   8.588 -0.0581 -0.0333  0.0694
74427W        W17340   8.966  27.743   3.124  0.0919  0.0831  0.0737
74428W        W17341  32.271   0.528   7.079 -0.1972 -0.1813  0.0284
74429W        W17342  14.858  30.283  26.992 -0.1209  0.0426  0.1989
74430W        W17343  34.290  20.098   7.774 -0.1192  0.2559 -0.1808
74431W        W17344   6.782   1.586   8.735 -0.2316  0.0158  0.3610
74432W        W17345  12.459  27.083   2.058 -0.0486  0.0207  0.1511
74433W        W17346   2.037  16.182   3.976 -0.0060 -0.0375  0.1538
74434W        W17347  13.542  16.320   7.384  0.0793 -0.0286 -0.0461
74435W        W17348  33.776  34.395   5.872 -0.2547 -0.2432  0.0162
74436W        W17349   1.315  33.084  10.012 -0.0202 -0.1109 -0.0481
74437W        W17350   5.149  22.086   4.721  0.0695 -0.2646  0.1314
74438W        W17351  31.030  18.667   4.409  0.3745 -0.0313 -0.3244
74439W        W17352   1.195  22.067   1.683  0.0321 -0.3431 -0.1063
74440W        W17353   5.234  28.539   1.646 -0.2147 -0.1165 -0.0627
74441W        W17354  10.888  18.337   3.095  0.0650 -0.2195  0.4559
74442W        W17355  12.041  14.762   2.891  0.2257 -0.4449 -0.1300
74443W        W17356  17.834  27.664   5.883 -0.1113 -0.0238  0.0318
74444W        W17357  28.133   4.391   7.283  0.0451 -0.1803 -0.3189
74445W        W17358   4.400   0.695  12.472  0.2202  0.1139 -0.1697
74446W        W17359  17.457   4.532   3.732  0.2457 -0.3527  0.0717
74447W        W17360   3.795  25.453   7.220 -0.1970 -0.3097  0.2118
74448W        W17361   4.790  26.596   1.100 -0.0801 -0.1646  0.0626
74449W        W17362   1.966  26.086   7.444 -0.0127 -0.1731  0.0611
74450W        W17363  34.235   1.667  12.044  0.1826  0.1464 -0.0277
74451W        W17364   5.137  21.118   6.052  0.2028  0.5365  0.0648
74452W        W17365   0.380  34.224   5.542  0.1628  0.0288  0.2421
74453W        W17366  14.328   1.658   7.406 -0.2011 -0.2291 -0.0632
74454W        W17367   1.697  33.795  27.034  0.0229 -0.4748  0.0101
74455W        W17368  30.821  18.270   7.703  0.0243 -0.0222 -0.0029
74456W        W17369   2.451   1.166   2.486 -0.2423 -0.0389 -0.1087
74457W        W17370  31.269  23.663   8.732  0.1877 -0.1020 -0.0211
74458W        W17371  17.448  19.630   6.727  0.1577 -0.0411  0.2390
74459W        W17372   8.743   2.528   2.658 -0.1733 -0.0750 -0.0643
74460W        W17373  26.184  23.526  29.764  0.0578 -0.1220  0.0475
74461W        W17374  12.499  22.259   7.530  0.2063 -0.0621  0.5114
74462W        W17375  22.156  28.067  27.461  0.0079 -0.0471 -0.0766
74463W        W17376  29.305  21.402   5.543 -0.0467  0.3780  0.3880
74464W        W17377  31.256  25.969   9.095 -0.3234  0.2782  0.1783
74465W        W17378   1.860  23.588   4.572  0.5181  0.1376  0.0996
74466W        W17379  14.483  18.507  27.868 -0.3467  0.2003  0.0607
74467W        W17380   9.421  33.824   8.272  0.0815 -0.2423  0.3684
74468W        W17381  12.024  27.232  10.411 -0.3559  0.2100 -0.2273
74469W        W17382   7.482  26.587   2.222  0.0197 -0.1739  0.0530
74470W        W17383   7.077  23.987   3.636  0.0001  0.4159  0.0744
74471W        W17384  12.844  27.584  10.716  0.0102  0.0526 -0.0129
74472W        W17385   0.741   3.583   8.790 -0.1694  0.0277  0.1988
74473W        W17386   1.689  26.623   8.796 -0.1752 -0.0354 -0.2300
74474W        W17387  16.806  30.432   3.054  0.1432  0.1392  0.0876
74475W        W17388   5.311  19.503   2.525  0.1016  0.0921  0.0513
74476W        W17389   2.090  22.652   8.938 -0.1117 -0.0417  0.0355
74477W        W17390   2.526  32.277  26.685 -0.0503 -0.1946  0.1444
74478W        W17391   9.873  27.736  29.479 -0.1403 -0.1593  0.3175
74479W        W17392  28.317  24.057   2.025 -0.2064  0.1965  0.0350
74480W        W17393   9.819  32.875   8.362  0.0249  0.2188  0.1547
74481W        W17394   9.036  25.627   1.028  0.2418  0.4144  0.3546
74482W        W17395  12.232  25.903   4.250  0.0225 -0.0439 -0.1726
74483W        W17396  14.749  31.720   9.545  0.4707  0.2937 -0.0202
74484W        W17397  33.485  23.762   3.589  0.0154 -0.1530  0.0565
74485W        W17398   6.645  29.673   1.982  0.4492  0.1444 -0.2700
74486W        W17399  12.168  28.374   4.703 -0.0413  0.5850 -0.0793
74487W        W17400   8.476   7.510   6.947  0.0090 -0.3094 -0.1437
74488W        W17401   7.353  30.662   5.135 -0.4203  0.0184  0.2303
74489W        W17402   8.146   0.275   7.499  0.1863  0.4826  0.0496
74490W        W17403   6.023  33.292  11.859  0.1014  0.1491  0.0119
74491W        W17404   4.290  24.889   1.775 -0.2235  0.0784  0.1840
74492W        W17405   9.239  31.727   7.755  0.0254  0.3032 -0.0524
74493W        W17406   7.631  25.942   6.186  0.0486 -0.1628 -0.0130
74494W        W17407  32.446   6.477   0.456  0.0120  0.0234 -0.3669
74495W        W17408  13.916  15.324   5.683 -0.0349 -0.1783 -0.2322
74496W        W17409  33.312   1.047   9.636  0.0305 -0.1884  0.1784
74497W        W17410   5.068  18.715   2.882  0.3948  0.2316 -0.2036
74498W        W17411  11.389  25.540   7.463 -0.1628 -0.0062  0.0021
74499W        W17412  32.093   1.925   7.292  0.1503 -0.1500 -0.0994
74500W        W17413  16.618  23.997   6.594  0.4099  0.1087 -0.0661
74501W        W17414  31.198  30.355   5.776 -0.1522 -0.1053 -0.0073
74502W        W17415   6.830  22.086   4.278 -0.6697  0.2885 -0.3003
74503W        W17416   6.425  32.656   2.951  0.2088 -0.1552  0.0003
74504W        W17417   4.877   1.414  12.400  0.1734  0.2634  0.3013
74505W        W17418   6.208  32.845  22.276  0.4315  0.1348  0.1710
74506W        W17419   2.758  13.228  29.608  0.0368 -0.1835 -0.2184
74507W        W17420   3.271  19.104   8.343  0.1559  0.0855 -0.0762
74508W        W17421  19.603  22.653  17.172  0.0324  0.4576  0.1892
74509W        W17422   1.638  34.062   9.922  0.0568  0.0485 -0.1865
74510W        W17423   7.428  29.799  23.486  0.0640  0.0187  0.0468
74511W        W17424  11.975  28.000   9.586 -0.0757  0.1905  0.1658
74512W        W17425   2.305  27.748   7.363 -0.1774  0.1287 -0.1459
74513W        W17426  33.593   3.874   4.892 -0.1339  0.1458  0.2977
74514W        W17427  34.255  34.237   8.069 -0.0888 -0.1358 -0.0401
74515W        W17428   7.512  30.047   6.460  0.1539  0.0574  0.0378
74516W        W17429  16.008  30.174  28.847  0.2050 -0.0763  0.1315
74517W        W17430   7.887  19.515   6.786  0.2093 -0.1983  0.1511
74518W        W17431   7.883  25.147   2.402 -0.2796 -0.1650 -0.2230
74519W        W17432   8.061  20.232  28.861 -0.3498 -0.4064  0.0491
74520W        W17433   9.870  34.011   4.482  0.1687 -0.5679 -0.1073
74521W        W17434  11.310   2.630   2.313  0.1242  0.0862 -0.0883
74522W        W17435   4.257  25.666   7.185 -0.1396  0.1647  0.1641
74523W        W17436  33.650  28.712   8.385  0.0192  0.0480 -0.2637
74524W        W17437   3.312  21.068   8.660 -0.0462  0.1575  0.1167
74525W        W17438  16.505  30.471   5.054 -0.1490 -0.1151 -0.0726
74526W        W17439   7.422   3.357   7.878 -0.2317  0.2021 -0.1844
74527W        W17440   7.970  28.929   8.288 -0.5268 -0.2695  0.1167
74528W        W17441   7.577  26.056   2.777  0.2097  0.0801 -0.2401
74529W        W17442   9.372  21.061   4.492  0.1646 -0.1922  0.2943
74530W        W17443  15.611  32.342   9.118 -0.1130  0.2564  0.2142
74531W        W17444  13.893  25.963   8.644  0.0960  0.0099 -0.1620
74532W        W17445  10.559  31.682   5.230 -0.1070 -0.1788 -0.0692
74533W        W17446  13.855  23.064   7.037  0.2070 -0.2263 -0.0215
74534W        W17447  12.007  30.294   8.260  0.3809 -0.2533 -0.2071
74535W        W17448   4.288  32.090   4.392 -0.0935 -0.2774  0.4123
74536W        W17449  30.621  31.245   2.201  0.2129 -0.1697 -0.0757
74537W        W17450   8.983  25.111  25.267 -0.0923 -0.0677  0.3272
74538W        W17451   0.265   7.756   8.323 -0.2337 -0.1811 -0.0400
74539W        W17452   3.014  28.034   7.084 -0.0572  0.0166 -0.2338
74540W        W17453   0.897  27.810  10.272  0.1105  0.3349  0.1840
74541W        W17454   8.168  22.958  23.021 -0.4131 -0.1782 -0.1389
74542W        W17455  29.421   2.343  10.572  0.0751 -0.0912  0.0218
74543W        W17456   7.869  31.453   3.760 -0.0781  0.2045 -0.0637
74544W        W17457   7.017   2.032   9.106 -0.0821 -0.7445  0.0952
74545W        W17458  22.657  28.923   3.536 -0.1170 -0.1241 -0.1378
74546W        W17459   6.424  26.535   9.048 -0.0221  0.0919  0.2717
74547W        W17460   0.932  31.846   0.279 -0.0363  0.0062 -0.1382
74548W        W17461   5.646  33.284   8.255  0.0950 -0.2244  0.1659
74549W        W17462   3.766  26.743   8.171 -0.0634  0.1375  0.2833
74550W        W17463   0.994   4.407  26.997 -0.1076  0.4798 -0.2191
74551W        W17464  33.207  15.667   8.741 -0.4055 -0.3036  0.1745
74552W        W17465  20.266  22.444   6.615  0.0300  0.0214 -0.1733
74553W        W17466   7.615  18.552  27.675  0.1377 -0.2682  0.1026
74554W        W17467   7.243  27.220  10.053  0.0514  0.4034 -0.2865
74555W        W17468  19.077  29.612   9.989  0.0361  0.1175  0.0783
74556W        W17469   2.838  27.647   1.723  0.2223 -0.1613  0.1008
74557W        W17470  32.692  11.716  21.301  0.1757 -0.1421  0.0826
74558W        W17471  14.580  21.773   4.671 -0.1880 -0.0366  0.3522
74559W        W17472  27.647  28.276   5.892  0.0264  0.0063 -0.1141
74560W        W17473   1.127  19.160  27.581 -0.0063 -0.0011 -0.0481
74561W        W17474   0.644   1.990  11.321  0.1563  0.0508  0.1910
74562W        W17475   7.736  27.012  27.476 -0.1895  0.1991  0.0380
74563W        W17476  10.037  21.291   2.774  0.2463  0.0814  0.1608
74564W        W17477  33.344  26.117   3.983 -0.0076  0.1151  0.1906
74565W        W17478   4.059  28.014   4.411 -0.1781 -0.0438  0.0298
74566W        W17479  10.303  21.026   8.355 -0.0016  0.0144  0.1066
74567W        W17480   3.171  34.471   2.509  0.2488  0.0569  0.1424
74568W        W17481  12.870  19.405   5.085  0.1280 -0.3541  0.2610
74569W        W17482  28.065  33.912   6.823  0.2295 -0.0100  0.3425
74570W        W17483   6.152  24.686  10.151  0.0448  0.2134 -0.0940
74571W        W17484  15.802  18.974   2.980  0.3667 -0.1148 -0.1174
74572W        W17485   3.155  27.535   9.437  0.1406  0.0880  0.0116
74573W        W17486   2.668  25.443   0.056  0.0265  0.0207 -0.0043
74574W        W17487   2.422  29.530   7.028  0.2798  0.2120 -0.1862
74575W        W17488  15.743   1.516   5.290  0.1810 -0.1611 -0.0689
74576W        W17489   6.199  30.896   5.401  0.0690  0.2299  0.2500
74577W        W17490   5.124   4.481  12.857  0.0191 -0.0242 -0.1206
74578W        W17491  12.895  26.545  28.009 -0.1221  0.2167  0.2532
74579W        W17492   9.251  33.441   8.608 -0.2277 -0.3807 -0.0625
74580W        W17493   2.548   9.055   7.655  0.1726  0.0455 -0.0124
74581W        W17494  10.694  24.689  10.617  0.0616 -0.0102 -0.1283
74582W        W17495   5.851  23.456   3.685 -0.0660  0.3095  0.1381
74583W        W17496  34.037   0.500   8.420 -0.1856 -0.0674  0.1034
74584W        W17497   6.591  29.463   3.717  0.1870 -0.3251  0.0305
74585W        W17498   9.422  30.857  11.181  0.0986  0.3151 -0.1430
74586W        W17499  10.187  30.820   7.269 -0.1104 -0.2879 -0.1663
74587W        W17500  14.341  29.231   6.085  0.0433  0.1668  0.1642
74588W        W17501  16.026  21.661  19.747  0.1141 -0.0771 -0.2141
74589W        W17502   7.116  33.508   9.512 -0.0286  0.1356 -0.0901
74590W        W17503   4.019  20.744   1.368  0.1546 -0.3757 -0.2055
74591W        W17504   4.325  10.981  24.043 -0.1668 -0.0976  0.0842
74592W        W17505   4.547  29.825   5.343 -0.3125  0.0598  0.0004
74593W        W17506   9.673  25.015   0.506  0.0330  0.3833  0.1821
74594W        W17507   9.815  18.734  29.094 -0.0107 -0.0290 -0.1917
74595W        W17508   0.838  19.996   6.280  0.2946  0.1190  0.4067
74596W        W17509   9.890  31.137   6.728 -0.4635  0.1773 -0.0398
74597W        W17510   1.798  30.433   1.437 -0.1951  0.0087  0.0591
74598W        W17511   9.415   0.968  13.114  0.0112  0.3578  0.0886
74599W        W17512  15.557  24.571  10.394  0.0248 -0.2746 -0.0967
74600W        W17513  11.722  19.543   4.402  0.1746  0.0048 -0.1037
74601W        W17514   4.017  13.404  26.640 -0.0610  0.1315 -0.1059
74602W        W17515   1.640  29.338   2.543  0.1543  0.1362  0.2548
74603W        W17516   8.656  31.265   8.652  0.0230  0.0045  0.0830
74604W        W17517  33.450  22.919   6.151 -0.0084 -0.2016 -0.3071
74605W        W17518  11.363   1.892  18.420 -0.0339 -0.1741  0.0614
74606W        W17519  28.765  32.087   9.927 -0.3629 -0.1489 -0.0966
74607W        W17520  33.484  27.841   9.826 -0.0964 -0.2003  0.3558
74608W        W17521   6.830   4.459  27.705  0.0052  0.1591  0.3479
74609W        W17522   9.460  20.262   4.705 -0.3175 -0.1023  0.0178
74610W        W17523   7.424  19.002   8.511 -0.0019  0.1067 -0.2987
74611W        W17524  17.998  31.234  29.665  0.3913  0.0998 -0.2777
74612W        W17525  32.954  25.451  25.744  0.2118  0.1216 -0.3297
74613W        W17526   0.913  16.367   2.384  0.2489  0.1679 -0.1177
74614W        W17527  14.966   2.562   9.584  0.0039  0.1263  0.2144
74615W        W17528   0.242  30.706   1.032 -0.0713  0.3414 -0.1702
74616W        W17529  10.310  17.725   8.156 -0.2152 -0.4369  0.3211
74617W        W17530  10.864  32.475   7.224  0.0489  0.0539 -0.0462
74618W        W17531   3.635  19.346   2.081 -0.0383  0.1732 -0.4386
74619W        W17532   8.191  21.047   6.446  0.0629  0.2655 -0.3191
74620W        W17533  28.798   3.771   9.655 -0.0390 -0.0823 -0.0939
74621W        W17534  11.556  29.875  10.384 -0.0151 -0.0890 -0.2199
74622W        W17535  29.670   0.581   5.213 -0.1929 -0.0246 -0.0246
74623W        W17536  33.947  16.927  26.741 -0.0206 -0.2094 -0.0115
74624W        W17537  33.672  32.094   6.948 -0.0602  0.0607 -0.2589
74625W        W17538   8.606  31.128   0.458 -0.0225  0.1872 -0.1474
74626W        W17539  10.838   3.976   8.985 -0.0771  0.1459  0.4402
74627W        W17540   3.984  24.455   0.704 -0.0414  0.2437 -0.0744
74628W        W17541   4.761   2.737  12.817 -0.1912 -0.0542  0.0057
74629W        W17542   1.523   6.319  11.402 -0.0879  0.2914  0.0100
74630W        W17543   8.009   7.440   1.007  0.0892  0.1695  0.1319
74631W        W17544   4.140  33.731  10.333 -0.1489  0.2371  0.1684
74632W        W17545   6.231  30.493  10.340 -0.2468  0.1690 -0.1182
74633W        W17546  34.052  28.220  10.574 -0.2158  0.0053 -0.1880
74634W        W17547  12.540  23.752   1.270  0.1703  0.2379  0.2363
74635W        W17548   1.881  31.775   1.648  0.3350 -0.3451  0.2093
74636W        W17549  26.442  24.063   0.583  0.2026 -0.0650  0.0459
74637W        W17550  13.767  20.628   1.798  0.3726  0.1275 -0.3387
74638W        W17551   1.249  17.360   0.340  0.0083 -0.1111 -0.4297
74639W        W17552  14.973  23.613   1.760 -0.0135  0.3158 -0.0908
74640W        W17553  11.394  17.471  27.162 -0.5102 -0.1177 -0.0094
74641W        W17554   7.487  17.607   2.415  0.1333  0.0377  0.0824
74642W        W17555   9.857  28.599   4.780  0.0707  0.1345  0.1843
74643W        W17556   7.244  13.497  27.533 -0.3627 -0.1193  0.2928
74644W        W17557   7.428  21.920   9.323 -0.1268 -0.3219 -0.2066
74645W        W17558   5.616  18.720   2.185  0.0685  0.1137  0.1118
74646W        W17559  18.979  28.193   6.266  0.1202 -0.2218 -0.1263
74647W        W17560   7.240  27.829  26.947  0.1183 -0.3732 -0.1050
74648W        W17561  13.685  15.203   2.268 -0.0060 -0.0876  0.0248
74649W        W17562  33.488  26.961   0.878  0.0181 -0.0252  0.1903
74650W        W17563  28.684  20.029  19.046  0.2057 -0.1099  0.1428
74651W        W17564   7.377  28.087   8.547  0.0365 -0.0711 -0.1832
74652W        W17565  10.454  27.382  27.310  0.0216 -0.1563 -0.1141
74653W        W17566  11.106   3.463  10.757  0.2234 -0.0104  0.0605
74654W        W17567   2.968  30.387   2.233  0.0981  0.1782  0.1284
74655W        W17568  30.687  17.075   3.787  0.0481 -0.0412 -0.5368
74656W        W17569   3.809  30.494   8.059  0.0076 -0.1052 -0.0832
74657W        W17570   1.641  11.571   8.805  0.0578  0.0025  0.0927
74658W        W17571  18.854  22.976  26.265 -0.0033  0.1942 -0.1076
74659W        W17572  13.238  30.737   4.276 -0.0514 -0.1061  0.2015
74660W        W17573  32.278  28.069   5.366 -0.1293 -0.0463 -0.1401
74661W        W17574   3.707  30.187   5.066 -0.0137 -0.0434  0.0177
74662W        W17575  12.084  25.831   8.436 -0.1905  0.0456 -0.0537
74663W        W17576  29.567  31.216  29.692  0.3994 -0.0408  0.0425
74664W        W17577  14.371  25.249  18.654 -0.1582  0.1679 -0.0648
74665W        W17578   5.478  19.404   5.954  0.2984 -0.2120 -0.0615
74666W        W17579   2.547  31.959   9.265 -0.0492  0.0961  0.2375
74667W        W17580  23.674  22.343   5.253 -0.0028  0.2370 -0.1787
74668W        W17581  28.240  31.015  29.411 -0.1606  0.3112  0.3611
74669W        W17582  12.483  10.974   3.021  0.1342 -0.0304  0.1988
74670W        W17583   5.253  20.644   7.753 -0.1502 -0.0979 -0.1255
74671W        W17584  12.601  26.326   6.896  0.1528  0.0829 -0.2648
74672W        W17585   4.876   2.121  10.497 -0.0816 -0.0089 -0.1566
74673W        W17586  32.559  18.193   9.050 -0.0931  0.0100  0.3764
74674W        W17587   2.965  25.591   5.702 -0.2209 -0.0477 -0.3497
74675W        W17588   3.732  30.726   9.675 -0.2079 -0.1111  0.1379
74676W        W17589  32.758  32.146  10.221  0.1625 -0.1516 -0.0907
74677W        W17590   8.539  30.808   9.943 -0.2426  0.3996  0.0046
74678W        W17591  34.441  26.007  28.955 -0.2231 -0.0776 -0.3169
74679W        W17592  13.121  20.419   2.925 -0.1091  0.0822 -0.0388
74680W        W17593  32.083   2.303   6.879 -0.2078 -0.0885 -0.2873
74681W        W17594   1.235  22.072   7.231 -0.1515  0.1033 -0.1241
74682W        W17595   1.027  26.261   3.104 -0.0993 -0.0970  0.0464
74683W        W17596   0.779  31.765   6.368 -0.0487  0.0193 -0.0843
74684W        W17597   1.965  21.997   8.785  0.0842  0.1153 -0.3735
74685W        W17598   7.142  18.736   5.917 -0.4510  0.0382  0.3011
74686W        W17599   6.298  25.374   6.710 -0.3061  0.0233 -0.3174
74687W        W17600  14.075  20.094   2.827  0.1485 -0.0354 -0.2891
74688W        W17601  13.263  27.641   6.663 -0.0609  0.1988 -0.0683
74689W        W17602   3.953  30.401   4.710  0.2416 -0.2225 -0.0398
74690W        W17603  33.226  17.961   7.583  0.0648 -0.3292 -0.2230
74691W        W17604   3.800  22.897   9.301  0.0033  0.0956 -0.0466
74692W        W17605   4.106  27.399   4.681 -0.0519 -0.1749 -0.0413
74693W        W17606   0.385   1.529   4.977 -0.1250  0.0934 -0.0293
74694W        W17607  33.973  21.976   9.483 -0.2377 -0.0486  0.2719
74695W        W17608   4.206   0.917   8.076 -0.0632  0.1182 -0.1705
74696W        W17609   1.461  18.428   9.642  0.1174  0.2160 -0.0310
74697W        W17610   1.453  27.995   6.880 -0.0541 -0.0212  0.0282
74698W        W17611  31.329  10.931   7.085 -0.1662  0.1081  0.0805
74699W        W17612   7.621  30.792   9.648 -0.0470 -0.0645 -0.2020
74700W        W17613   0.225   0.696   1.940 -0.0697  0.2647 -0.2022
74701W        W17614   4.753  28.937  11.315  0.1416  0.2951  0.1939
74702W        W17615   8.887  18.173  27.839 -0.0059  0.0858 -0.0151
74703W        W17616   2.803   7.312  29.307 -0.1647 -0.3376  0.2171
74704W        W17617   6.730   1.494   3.364  0.1191  0.0729 -0.1929
74705W        W17618  32.734   0.528  10.021 -0.0550 -0.0983  0.1857
74706W        W17619  26.237  17.957   8.182  0.0830 -0.2010 -0.0808
74707W        W17620  34.241  34.396  11.266 -0.1258 -0.0389 -0.1690
74708W        W17621  34.464  33.498   8.592 -0.2278 -0.0341 -0.2642
74709W        W17622  20.837  22.974   4.525 -0.0943  0.0599 -0.0936
74710W        W17623   2.308   1.323   8.158  0.1346 -0.4369  0.4566
74711W        W17624   4.420  27.255   9.559  0.0388  0.4404  0.3096
74712W        W17625   1.564  28.341   5.398  0.0256 -0.1970  0.1901
74713W        W17626   5.258  17.105   3.587  0.1928 -0.0455  0.0978
74714W        W17627  25.881  33.383   2.940 -0.0642  0.2266 -0.1106
74715W        W17628  10.595  26.965   4.546 -0.1432  0.1684 -0.0278
74716W        W17629   9.432   0.206   4.405  0.0172 -0.0186 -0.0384
74717W        W17630   9.228  31.280  10.967  0.4623  0.1430 -0.1136
74718W        W17631   8.592   6.281   5.454  0.0360 -0.1284  0.4816
74719W        W17632   3.615  22.630   3.426 -0.0714  0.0838  0.0573
74720W        W17633   3.515  28.369   3.000 -0.1514 -0.0543 -0.0227
74721W        W17634   6.078  32.165   7.266 -0.4077  0.0031  0.0687
74722W        W17635  32.256  23.443   1.102  0.1017 -0.1243  0.1214
74723W        W17636   8.683  27.706   6.979  0.2145 -0.3018  0.0199
74724W        W17637  15.991  22.569  29.353  0.3675  0.0631  0.1724
74725W        W17638   2.443  28.833   9.070  0.0655  0.4032 -0.1446
74726W        W17639   6.169  33.989   6.331  0.2817  0.0511  0.2015
74727W        W17640  29.562  22.481   2.953 -0.3768  0.0061 -0.1582
74728W        W17641  30.747  28.639   3.496  0.1091  0.2585  0.1924
74729W        W17642  20.213   2.259   9.720  0.1010 -0.1715 -0.0358
74730W        W17643   4.043  16.302  29.261  0.1169 -0.1798  0.2402
74731W        W17644  22.611   3.061   1.103  0.0467  0.2594  0.2422
74732W        W17645  30.908  32.172  29.143  0.3944  0.2332  0.1508
74733W        W17646  31.226  27.016   6.948 -0.2007  0.2571 -0.4045
74734W        W17647   6.154  14.021   9.372  0.1687  0.2289 -0.2783
74735W        W17648  10.550  27.419   8.697 -0.1912 -0.2799 -0.2689
74736W        W17649   1.666  26.240   9.646 -0.2474 -0.0084  0.1720
74737W        W17650  11.465  32.889  10.504  0.2841 -0.1602  0.2223
74738W        W17651   2.921  21.628   5.090 -0.1188  0.1104  0.0933
74739W        W17652   5.248  22.928   7.913 -0.2592  0.1174  0.1583
74740W        W17653   2.578  32.833   0.806  0.0196 -0.0601  0.1558
74741W        W17654   3.714  28.511   9.380 -0.5721  0.1807 -0.2756
74742W        W17655  32.140  31.013   9.000 -0.3500  0.1875  0.0636
74743W        W17656  11.560  34.250  11.839 -0.1502  0.1150  0.1008
74744W        W17657   1.564  32.249   6.693 -0.3046 -0.3325 -0.0815
74745W        W17658   3.301  22.878   4.676 -0.1451 -0.1342  0.0301
74746W        W17659   5.976  20.164   8.938 -0.5559 -0.1329 -0.0709
74747W        W17660   9.186  15.707   6.512 -0.1825 -0.0482  0.1437
74748W        W17661  25.929  27.471   8.863  0.2062  0.1276  0.0650
74749W        W17662  30.457  32.038   4.854  0.0223 -0.1092 -0.0303
74750W        W17663   3.978  31.219   8.669  0.1497 -0.4667 -0.1408
74751W        W17664  10.192  24.018   4.412 -0.1643  0.0791  0.3528
74752W        W17665   3.980   6.884   3.238 -0.1336 -0.2180 -0.0777
74753W        W17666  10.129  29.558  10.543 -0.2152 -0.3031  0.1246
74754W        W17667   8.344  28.699   7.943  0.2486 -0.0105 -0.3934
74755W        W17668  10.116  32.008  10.385 -0.0151  0.1268  0.2963
74756W        W17669   0.212   6.885  11.847 -0.0363 -0.0065 -0.4783
74757W        W17670   5.242  23.225   0.827 -0.2772  0.1136  0.0494
74758W        W17671   0.546  26.240   7.271  0.1738 -0.0931  0.2563
74759W        W17672  18.776   3.283  25.498  0.1559  0.2994 -0.0652
74760W        W17673  17.705  28.460   6.191  0.1403  0.1501 -0.3344
74761W        W17674   9.647  15.135   7.443  0.1207 -0.1634  0.1790
74762W        W17675  15.322   1.684  11.311  0.3273 -0.1855 -0.1389
74763W        W17676   5.323  29.428   5.265 -0.1752  0.2567  0.2828
74764W        W17677  33.338  30.398   6.074 -0.3963  0.0102  0.0603
74765W        W17678   8.021  31.023   2.011 -0.0500 -0.0867 -0.3760
74766W        W17679   9.210  29.893  12.606  0.1370 -0.3533 -0.1928
74767W        W17680   6.658   0.957   8.816 -0.0042  0.0047  0.0125
74768W        W17681  10.498   6.374   1.087  0.4493 -0.2014  0.1045
74769W        W17682  32.751  17.505   9.113 -0.1493 -0.1158 -0.0676
74770W        W17683   1.855  34.379   8.243 -0.0837  0.1100 -0.0251
74771W        W17684   1.736  32.459   7.540 -0.1025  0.1657  0.3051
74772W        W17685  31.099  33.057   2.448  0.0573 -0.1251  0.1593
74773W        W17686   7.913  19.184   7.564  0.2013  0.3320 -0.1215
74774W        W17687   4.517  29.377   8.137 -0.2813 -0.3603 -0.2033
74775W        W17688  14.648  28.697   9.698  0.0751  0.3532  0.2194
74776W        W17689   1.659  29.602  28.957  0.0882  0.2734  0.1958
74777W        W17690   6.779  23.451   5.080 -0.0455  0.3115 -0.1714
74778W        W17691  33.161  31.837   1.215  0.1222  0.0213  0.4041
74779W        W17692   7.373  28.673   7.811 -0.0039  0.1322  0.0662
74780W        W17693  12.043   1.682   5.126 -0.1067  0.1216 -0.0398
74781W        W17694   9.289  32.180  29.769  0.0223  0.3304 -0.1598
74782W        W17695   1.164   5.631  11.845 -0.2320 -0.3163  0.0539
74783W        W17696   4.313  30.543   8.244 -0.0503  0.1271 -0.0534
74784W        W17697  11.251  20.321   9.391  0.0474 -0.1156 -0.1216
74785W        W17698  31.707  32.533   6.158 -0.1255 -0.6140 -0.1588
74786W        W17699  34.438  22.894   5.398 -0.2088  0.3232 -0.0575
74787W        W17700  10.637  19.237   3.418 -0.0952  0.0817  0.0648
74788W        W17701  33.893   7.118  11.219 -0.0053 -0.0739  0.2900
74789W        W17702   6.951  13.452  27.165  0.0225  0.1045  0.0583
74790W        W17703  11.573   4.771  11.682  0.3123  0.0059  0.0419
74791W        W17704  30.757   0.682   9.626  0.0175  0.0679 -0.1491
74792W        W17705   5.697  21.937   5.083 -0.0839  0.0032 -0.1880
74793W        W17706   4.191  31.824  10.707  0.0248  0.0359 -0.0694
74794W        W17707   9.370  25.565   3.956  0.1356 -0.2066  0.1318
74795W        W17708   6.536   0.123  10.710 -0.0178  0.1226  0.0945
74796W        W17709   8.157  23.299   5.870 -0.1964  0.1919 -0.2969
74797W        W17710   2.442   1.006   1.507 -0.2522  0.0577 -0.0734
74798W        W17711  33.651  31.001   6.737 -0.0146  0.2749 -0.2214
74799W        W17712  12.580  25.751  10.292  0.1293 -0.0703 -0.1602
74800W        W17713   8.614  31.144   3.871  0.3176 -0.2435 -0.0951
74801W        W17714   3.267  24.831   9.474 -0.1354 -0.0895 -0.1135
74802W        W17715  11.804  34.464   7.221  0.0379 -0.3033 -0.1669
74803W        W17716  10.895  15.011   7.192  0.1685  0.0642 -0.0429
74804W        W17717  34.382  16.374   4.033 -0.1259  0.0264  0.0066
74805W        W17718   1.068  30.761   4.570 -0.3527  0.0221 -0.0860
74806W        W17719   9.512  26.675   9.980 -0.0658  0.1051 -0.2880
74807W        W17720  16.603  15.364   5.785  0.2329  0.1682  0.0301
74808W        W17721  19.347  24.763   9.133  0.0351  0.4391  0.0406
74809W        W17722   3.594  28.250   9.941 -0.3511 -0.0552  0.3015
74810W        W17723   5.879  21.733   2.589  0.1075 -0.1757  0.0656
74811W        W17724  10.958  14.530   4.015  0.1396  0.1006 -0.1137
74812W        W17725   5.348   6.165   9.170 -0.0449 -0.1518  0.0480
74813W        W17726  33.813   3.302   6.195  0.1807 -0.1666  0.0069
74814W        W17727   2.017  25.084   7.280 -0.0564 -0.3142 -0.2738
74815W        W17728  12.625   4.420  27.919 -0.1667 -0.0441 -0.2299
74816W        W17729   4.185  30.835  26.015 -0.1472 -0.2247  0.1104
74817W        W17730   3.560  30.977   6.017 -0.0786  0.0801  0.0273
74818W        W17731   7.297  19.206   5.590 -0.0743 -0.2356 -0.0236
74819W        W17732   1.953  20.387   9.657 -0.2271 -0.0925 -0.1819
74820W        W17733   7.804   0.111   2.159  0.1487  0.0974  0.1155
74821W        W17734   5.466  20.076   6.420  0.0628 -0.0520  0.0420
74822W        W17735   7.113   9.111   5.822 -0.2230 -0.2579  0.0485
74823W        W17736   7.256  25.601   5.716  0.1336  0.1092  0.3972
74824W        W17737   8.923   7.472   7.201 -0.2223 -0.1432  0.3139
74825W        W17738  11.874  31.291   7.203 -0.1013  0.0640  0.1255
74826W        W17739   3.329  20.232  29.404  0.1790 -0.0835 -0.1351
74827W        W17740   9.525  27.135   7.878  0.2164  0.0149 -0.3823
74828W        W17741   9.814  30.118   8.912  0.0769  0.0554 -0.1901
74829W        W17742  33.607   3.546   9.769  0.0446  0.3165  0.1042
74830W        W17743   6.914  20.526   6.984  0.1576  0.0361  0.0866
74831W        W17744   5.724   5.685  13.138 -0.0130 -0.0043  0.0216
74832W        W17745   8.295  25.593   7.834 -0.1510 -0.0051 -0.1042
74833W        W17746  34.480  33.930   0.987 -0.0357 -0.0500 -0.5512
74834W        W17747   9.444  30.149  11.003 -0.1866 -0.1865  0.0220
74835W        W17748  17.777  24.789   5.243 -0.1060  0.3915 -0.4522
74836W        W17749  24.394  26.783   5.595 -0.1097 -0.0383  0.3293
74837W        W17750  33.120   1.449  11.454 -0.0696  0.0419 -0.0892
74838W        W17751   9.564  20.883  26.764  0.0149  0.0328  0.0176
74839W        W17752  31.037   3.937   6.604  0.0486 -0.2726  0.1315
74840W        W17753  11.506  28.393   5.220  0.4414  0.0641 -0.1720
74841W        W17754   6.578  23.002   7.915 -0.2179  0.0711 -0.1598
74842W        W17755   1.531   1.025  29.648  0.1079  0.0455  0.3461
74843W        W17756   2.719  26.637   4.664  0.1552 -0.0831 -0.1294
74844W        W17757   5.782  18.721   7.413  0.1299  0.1993 -0.0200
74845W        W17758   3.802   6.468  11.601  0.4612 -0.0518 -0.0742
74846W        W17759   0.842   9.634  10.397 -0.0642  0.0477  0.1003
74847W        W17760   5.797  29.138  26.192 -0.2383 -0.0173 -0.1392
74848W        W17761  29.106  26.992   6.000 -0.0514 -0.0266  0.0044
74849W        W17762  33.336  28.514  24.646  0.1461  0.1571  0.0398
74850W        W17763   5.383   0.789  12.643  0.2633  0.1633 -0.1281
74851W        W17764   8.863  31.803   6.733  0.0553 -0.3394 -0.1765
74852W        W17765   5.206  28.170   4.778  0.1302  0.0130  0.2300
74853W        W17766  10.701  33.859   4.055 -0.1256  0.0204  0.3477
74854W        W17767   2.151  23.109   3.567 -0.1128 -0.1224 -0.1421
74855W        W17768   9.266  33.869  13.218  0.1964  0.1062 -0.0519
74856W        W17769  17.393  28.088   7.985 -0.3758 -0.0178  0.2267
74857W        W17770  30.566  17.641   5.117  0.0547  0.2028 -0.1481
74858W        W17771  11.800  20.499  29.456  0.2012 -0.0624 -0.1357
74859W        W17772   4.951   1.254   7.442 -0.0998  0.2985 -0.0495
74860W        W17773  13.358  25.111   2.872 -0.1741 -0.0115 -0.0374
74861W        W17774  15.215  28.485   7.520  0.2533 -0.3389 -0.0572
74862W        W17775   4.882  22.190   6.553  0.3205 -0.0090  0.0558
74863W        W17776   6.269  21.093   6.223 -0.2749 -0.1136 -0.0119
74864W        W17777  18.416  32.382   8.712 -0.2646 -0.0137  0.0141
74865W        W17778   3.254   2.560  27.395 -0.1607 -0.1724 -0.3030
74866W        W17779  15.796   3.288  10.262  0.1344  0.1356  0.0456
74867W        W17780  29.045  30.548  29.228  0.1278 -0.1259 -0.0912
74868W        W17781  33.215  26.620   5.321 -0.0725  0.0233  0.0520
74869W        W17782   5.167  30.193   8.854  0.1386 -0.1448 -0.1056
74870W        W17783   3.461   5.124  10.826  0.0185 -0.1610 -0.0179
74871W        W17784  14.193   7.411   9.401 -0.1838 -0.0613  0.0902
74872W        W17785  10.446  28.840  11.494 -0.0808 -0.4726 -0.1717
74873W        W17786   5.871   3.081   8.982 -0.1662 -0.2684 -0.0453
74874W        W17787   9.156   5.034   4.169  0.2221 -0.0360  0.2155
74875W        W17788   5.307   9.187  11.220  0.1061 -0.0338 -0.2535
74876W        W17789  14.606   3.896   7.024  0.2279  0.2686 -0.3003
74877W        W17790   9.919  30.858   0.398  0.1469 -0.3110 -0.1297
74878W        W17791   9.413  32.838   7.408 -0.0600 -0.0708  0.2938
74879W        W17792  34.400  12.764   4.439  0.1787  0.0868  0.1902
74880W        W17793   0.253  29.581   7.290  0.1900 -0.0287 -0.0043
74881W        W17794  12.218  28.973   7.053  0.2780  0.2145 -0.0985
74882W        W17795   0.745   4.483   3.966 -0.1585 -0.0835  0.0433
74883W        W17796  30.064  15.589   7.214 -0.2774 -0.2345 -0.1262
74884W        W17797  11.779  14.358   3.000  0.2173 -0.2040  0.0344
74885W        W17798   8.187   1.292   7.567 -0.0896  0.0721 -0.1042
74886W        W17799   0.629  25.584   9.116  0.1111 -0.3761  0.1079
74887W        W17800  19.636  25.854   7.378  0.0120  0.0278  0.1034
74888W        W17801   8.885  32.968   7.415 -0.0190 -0.0027  0.3771
74889W        W17802   8.420  28.129   4.851  0.0299  0.1003 -0.0332
74890W        W17803  30.975  11.000   2.772  0.3378  0.0172  0.0133
74891W        W17804  10.918  11.265   1.209 -0.3153 -0.0735  0.1024
74892W        W17805  11.024   6.374   5.603 -0.0012 -0.0614 -0.0424
74893W        W17806   4.638   2.467  13.212 -0.3595  0.2459 -0.0715
74894W        W17807  32.334  31.798   7.084  0.0509 -0.1387 -0.2225
74895W        W17808  11.680   2.216  13.052 -0.1337 -0.0513  0.1826
74896W        W17809   5.520  29.739   6.528  0.0347 -0.0605  0.0775
74897W        W17810   3.513  32.232  28.850 -0.0391  0.0884  0.0456
74898W        W17811  11.097  31.412   8.426 -0.2339  0.4617 -0.0584
74899W        W17812   4.495   1.319   0.367  0.1728  0.1066  0.1587
74900W        W17813   3.699  27.651   3.684 -0.0415  0.2302  0.0097
74901W        W17814  29.318  30.519   9.259 -0.1361  0.2213  0.0966
74902W        W17815  32.002   6.233  25.046  0.0708  0.0890  0.0900
74903W        W17816   4.517  27.766   8.336 -0.2316 -0.0199 -0.0443
74904W        W17817  15.379  28.309   5.429  0.1018  0.1865  0.2429
74905W        W17818  12.039  29.052  10.427  0.2385  0.1918 -0.0549
74906W        W17819  10.191  30.801  29.456  0.1975 -0.1973  0.0298
74907W        W17820  33.732   3.122   3.855  0.1333  0.0222  0.0057
74908W        W17821   6.624   9.903  28.887  0.2875 -0.0932 -0.2619
74909W        W17822   7.869   2.650  13.171  0.1436  0.0029  0.0482
74910W        W17823  13.730  34.381   5.431 -0.0974  0.2150  0.1689
74911W        W17824  33.146  25.640   2.380  0.3313  0.0711 -0.0728
74912W        W17825  10.682  22.011   7.161 -0.1483 -0.3868 -0.0135
74913W        W17826   6.482  19.779   2.594 -0.1681  0.0453 -0.3334
74914W        W17827  15.750  29.796   3.268  0.1304 -0.0501 -0.1882
74915W        W17828   1.875  27.916   4.651  0.4262  0.3050  0.1207
74916W        W17829   7.282  31.262   3.181 -0.1326 -0.0761  0.0245
74917W        W17830  28.801  25.680   4.703  0.0302 -0.1573  0.0956
74918W        W17831  34.342  27.992  10.114  0.0495  0.0518  0.0222
74919W        W17832  29.917  20.027   6.359 -0.0174 -0.0153  0.1631
74920W        W17833  11.541   9.490   0.373 -0.1433 -0.0783  0.2638
74921W        W17834  33.473   1.678   4.148  0.1733 -0.1387 -0.1008
74922W        W17835   1.140  31.280   6.400  0.3037  0.1836  0.1966
74923W        W17836  25.306  24.744   7.132 -0.1703 -0.0812  0.1194
74924W        W17837   6.770  33.436   1.989  0.0719 -0.0148 -0.1119
74925W        W17838   0.622  13.254  25.819  0.0678 -0.2911 -0.1349
74926W        W17839  13.533  27.263   6.863  0.2299 -0.0467 -0.0816
74927W        W17840   4.720  25.210   8.344  0.1071  0.1958  0.1848
74928W        W17841  15.056  26.218   8.653 -0.1123  0.0854  0.1398
74929W        W17842  10.359  29.357  11.674 -0.3298 -0.3407 -0.1233
74930W        W17843   2.067  34.340   4.343  0.0397  0.0910  0.2686
74931W        W17844  34.214  22.418   9.682  0.1969 -0.0833 -0.1494
74932W        W17845  10.353   6.202   4.128 -0.0181  0.3877  0.1155
74933W        W17846   3.471  24.719   1.405 -0.1970  0.1683  0.1157
74934W        W17847   8.326  33.154  28.049 -0.3193  0.0352  0.1107
74935W        W17848   5.315  16.201   4.355 -0.0574  0.1421  0.0823
74936W        W17849  18.247  22.004   6.465  0.1967 -0.1916  0.1383
74937W        W17850   3.509   0.518   9.712  0.0655 -0.2805  0.0507
74938W        W17851  33.521  24.575   5.498  0.0526  0.1685 -0.0243
74939W        W17852   9.907  27.638   5.083 -0.0821  0.1613  0.0878
74940W        W17853  33.126   7.286  23.808 -0.1001  0.1209  0.1710
74941W        W17854   3.348  30.902   6.487 -0.0017  0.3007  0.0565
74942W        W17855   0.956   0.665   3.972  0.1138 -0.1508 -0.0292
74943W        W17856  11.506   2.453   7.717  0.1870  0.2247 -0.0645
74944W        W17857   1.878  31.246   1.735  0.1229 -0.2064 -0.0596
74945W        W17858  30.492  14.893   3.957 -0.0203 -0.3531  0.0440
74946W        W17859   7.949  28.231   9.523 -0.1429  0.1132  0.2120
74947W        W17860  34.180  31.913   8.763  0.1194  0.1559  0.1416
74948W        W17861   2.140  20.934   9.809  0.0369  0.2022 -0.2262
74949W        W17862  11.498  15.687   8.010 -0.2491 -0.1563  0.1972
74950W        W17863   3.839  31.322   9.604 -0.3468  0.4134 -0.1465
74951W        W17864  10.088  14.594   7.731 -0.0385 -0.0306  0.0207
74952W        W17865  16.437   5.786   5.486  0.1794  0.0979 -0.2057
74953W        W17866   8.807  29.837   9.367 -0.1178  0.2305 -0.1341
74954W        W17867   4.392  28.544  10.241 -0.4644 -0.1641  0.0283
74955W        W17868  30.276  26.622   1.047 -0.1152  0.3130  0.1716
74956W        W17869   9.353   1.205   0.288  0.1571 -0.0228 -0.2728
74957W        W17870   5.711  25.445   1.381  0.2395  0.0066 -0.1747
74958W        W17871   9.674  24.692  28.808  0.1109  0.2558 -0.1469
74959W        W17872   0.953  32.753   7.895  0.0501  0.2117  0.1280
74960W        W17873  34.219  17.608   8.737 -0.0867  0.1980  0.1031
74961W        W17874   4.288  20.147   1.985  0.0233 -0.0706  0.1869
74962W        W17875   9.528  34.415  12.024 -0.1823  0.3575  0.2418
74963W        W17876  30.057  29.541  25.348 -0.1277  0.0895 -0.0166
74964W        W17877   5.543  33.137   4.013 -0.1340  0.0764  0.0600
74965W        W17878  30.429  13.068   2.240 -0.3062  0.2018  0.0222
74966W        W17879  11.431  29.051   8.691  0.2446 -0.1762 -0.2031
74967W        W17880   4.977  19.854   4.584 -0.0050  0.0449  0.2930
74968W        W17881   1.790  31.785   7.796  0.1025 -0.1799 -0.1489
74969W        W17882  30.780  28.269   9.552  0.0572 -0.1935  0.3414
74970W        W17883  17.891   2.168   8.349  0.1338 -0.1705 -0.0142
74971W        W17884  14.345  24.416  27.390 -0.0019 -0.0889 -0.3875
74972W        W17885  10.653  32.478   5.486 -0.2046  0.2839  0.1223
74973W        W17886   6.091  19.964   7.155  0.2218 -0.0833  0.4338
74974W        W17887   1.512   8.441  10.212 -0.0999  0.1554  0.0766
74975W        W17888   3.037  32.438  10.837  0.0863  0.2532 -0.0923
74976W        W17889   2.565  27.439   9.048 -0.1972 -0.0666  0.1451
74977W        W17890   8.652   1.488   6.194 -0.0255  0.4501  0.0440
74978W        W17891   3.522  34.322   4.477 -0.0673  0.1888  0.0050
74979W        W17892  13.186  27.119   8.094 -0.0139 -0.0120  0.4787
74980W        W17893   0.633   3.330  11.326  0.1198  0.0073  0.2214
74981W        W17894  16.124  31.912   9.745  0.2060  0.1811  0.0356
74982W        W17895   5.769  24.096   9.638 -0.0641 -0.2564 -0.0812
74983W        W17896  33.051  30.386  10.266  0.4305 -0.2259 -0.2774
74984W        W17897   9.038  31.462   7.093  0.0241 -0.1121  0.3045
74985W        W17898  12.672   6.481   8.567 -0.1916  0.0513 -0.0838
74986W        W17899   2.878  14.104   6.823  0.2066  0.0700  0.0649
74987W        W17900  31.459  12.899   2.074 -0.1850 -0.3721  0.2093
74988W        W17901  10.103  19.774   5.807 -0.0554  0.2496 -0.1152
74989W        W17902   4.624  32.292   9.215  0.1958 -0.2062 -0.0190
74990W        W17903   7.258  33.197   9.896 -0.1210  0.0028 -0.3419
74991W        W17904   1.564   1.018  10.439 -0.0727  0.0289 -0.1129
74992W        W17905  12.792  26.360   6.042  0.0408 -0.3581 -0.0091
74993W        W17906  13.871  32.273   8.663  0.0994  0.0467 -0.1041
74994W        W17907   6.890  13.566  25.844  0.2746 -0.1851 -0.2402
74995W        W17908  18.105  32.819   0.844 -0.0915  0.3074  0.0130
74996W        W17909   4.272  25.398   1.606 -0.3216  0.0579  0.4666
74997W        W17910  11.052  19.189   3.136 -0.0118 -0.0104  0.0714
74998W        W17911  10.794  20.184  27.753  0.0887 -0.2322  0.0175
74999W        W17912   3.727  28.665   8.853  0.0729  0.2864 -0.4302
75000W        W17913  30.154  27.038   5.161 -0.2371  0.2660  0.1895
75001W        W17914  33.751  14.713   9.051 -0.0019  0.5368 -0.1956
75002W        W17915  33.238  34.219   2.003 -0.5278  0.0251  0.3486
75003W        W17916  11.087   2.104   9.224  0.2226  0.2207  0.0362
75004W        W17917   2.138   8.294  28.095  0.0261 -0.0151  0.2570
75005W        W17918   4.578   9.980   0.262 -0.0066 -0.0823 -0.3897
75006W        W17919  24.109  30.413  26.711  0.0953  0.2789 -0.2908
75007W        W17920  12.058  33.497   3.193 -0.0838 -0.2103  0.2780
75008W        W17921  26.478   6.427   2.351 -0.0731 -0.0795 -0.3559
75009W        W17922   1.042   2.917  25.890  0.0812 -0.4010  0.2525
75010W        W17923   3.124   4.960   4.816  0.2492  0.1308 -0.1379
75011W        W17924   2.258  26.914  19.911  0.2494 -0.1301 -0.1127
75012W        W17925   4.325  33.916   9.767  0.2582 -0.0652 -0.0711
75013W        W17926   2.494  19.569  23.415 -0.0983  0.2473  0.3383
75014W        W17927   8.546  25.313  26.108 -0.0527  0.0689  0.0159
75015W        W17928   7.958   2.947   4.808 -0.1246 -0.3103  0.1222
75016W        W17929  34.332  32.532   0.519 -0.2802 -0.0890 -0.0545
75017W        W17930  29.825  33.913  28.570 -0.0093  0.0013 -0.2453
75018W        W17931   4.035   7.985   0.790  0.1098  0.2474 -0.3978
75019W        W17932   8.826  30.333   2.911  0.0622 -0.0804 -0.3391
75020W        W17933   5.660  26.137   2.827 -0.0473  0.2254  0.2042
75021W        W17934   5.178  27.269  24.915 -0.0943  0.0489 -0.1661
75022W        W17935   5.194  24.765   4.346  0.0965  0.0200  0.0483
75023W        W17936  13.907  34.368   4.273 -0.0486 -0.3497 -0.1145
75024W        W17937   5.959  23.334   2.752 -0.1552 -0.2728  0.0946
75025W        W17938   6.620  27.300  27.341 -0.0293 -0.2327 -0.1969
75026W        W17939  27.764  32.592   1.594 -0.2204  0.0392  0.0728
75027W        W17940  33.696  28.693   6.864  0.4986  0.1208  0.2356
75028W        W17941  29.241  31.497   1.992 -0.2629  0.1180  0.0353
75029W        W17942  15.132  30.269   9.862 -0.0751  0.1949 -0.0368
75030W        W17943   9.752  31.553   0.447 -0.0169  0.0974 -0.2835
75031W        W17944  11.534  31.136   8.247 -0.0562  0.0393  0.0026
75032W        W17945  10.298   9.729   3.126  0.0727 -0.3161 -0.4404
75033W        W17946   1.603  28.475   7.229 -0.0365 -0.0152  0.0230
75034W        W17947   4.280   1.964  21.404  0.0263  0.3575 -0.1729
75035W        W17948  11.564  34.240  24.716 -0.0969  0.3405 -0.0346
75036W        W17949  30.027  29.261   4.008  0.3419  0.3106  0.3234
75037W        W17950   7.984  30.667   1.239 -0.3458  0.3574 -0.1401
75038W        W17951   0.959  27.771  22.660  0.4835  0.0224  0.0968
75039W        W17952   4.031   2.050   6.775  0.0933 -0.0513  0.2145
75040W        W17953  34.403   5.943  26.911 -0.2464 -0.2582 -0.3414
75041W        W17954   5.682   0.180  28.844 -0.1678  0.3235  0.0528
75042W        W17955  31.467  25.073  25.397  0.0263  0.2417  0.0376
75043W        W17956   9.537   2.744  11.098 -0.3470 -0.1785 -0.2711
75044W        W17957  20.037  30.342   0.931  0.1340 -0.1946  0.1393
75045W        W17958   9.262  29.616  12.077 -0.0995  0.1041  0.1837
75046W        W17959   2.202  28.589   2.981 -0.0362  0.2328 -0.1197
75047W        W17960  33.857  31.189  10.839  0.0461 -0.2694 -0.0765
75048W        W17961   2.601  27.671  25.899 -0.1176  0.0799 -0.1141
75049W        W17962   7.170  25.803  28.723 -0.2045  0.2021 -0.1358
75050W        W17963   2.176  30.136  22.090 -0.2045 -0.2754 -0.0896
75051W        W17964  10.706  20.442   2.837 -0.1925 -0.0345  0.0586
75052W        W17965   6.647  29.467  26.281 -0.3239  0.2090  0.2291
75053W        W17966   6.340  22.796   5.525 -0.2981 -0.2898  0.0378
75054W        W17967   8.860  17.138   3.280 -0.1470  0.0947  0.2156
75055W        W17968   6.186  24.380   8.501 -0.1437  0.0719  0.2351
75056W        W17969   1.230  33.843   3.246  0.0006 -0.0921 -0.1927
75057W        W17970   8.514  23.751   0.661  0.0109  0.0566 -0.0361
75058W        W17971   7.667  32.005  25.482 -0.0402 -0.0032 -0.0079
75059W        W17972  15.669  29.296  20.355  0.2733  0.0364  0.1796
75060W        W17973   4.465  32.317  10.524  0.2501 -0.0949  0.0895
75061W        W17974  30.263   4.683   6.484 -0.1436 -0.0372  0.1393
75062W        W17975  32.520  30.336   2.732  0.0829 -0.1005 -0.0583
75063W        W17976  33.826   6.666  29.516 -0.0025 -0.1236  0.2201
75064W        W17977   9.961  28.822   9.525 -0.1315 -0.2965  0.3265
75065W        W17978   2.920  29.944   2.549 -0.1072 -0.2217  0.0013
75066W        W17979  13.349   4.697   1.886  0.4581  0.0854 -0.0435
75067W        W17980  21.726  31.985   0.224  0.2477  0.1162  0.0980
75068W        W17981   1.013  26.163   7.038  0.0714 -0.0774  0.1361
75069W        W17982  11.715   5.790  28.069 -0.0877  0.0922 -0.1367
75070W        W17983   2.373  32.052   7.143 -0.3852 -0.0750  0.3456
75071W        W17984  33.423   1.625  11.082  0.1350 -0.0519  0.1373
75072W        W17985   0.676  28.926   2.565  0.0664  0.0542  0.0748
75073W        W17986   5.226   1.593   4.337 -0.3806  0.0911 -0.0953
75074W        W17987   4.683   1.209  24.263  0.0191  0.1017  0.0639
75075W        W17988  13.871   7.010   3.455  0.2801  0.0452 -0.1049
75076W        W17989   9.788  31.209   1.284 -0.0352 -0.1743  0.0800
75077W        W17990   1.262   0.764  28.876  0.1486 -0.1918  0.3287
75078W        W17991   4.218  33.903   3.937  0.3602  0.0335  0.1280
75079W        W17992  34.430  33.063  29.319 -0.0199  0.2427 -0.3982
75080W        W17993  30.346   7.561  27.515  0.1044 -0.0725  0.0388
75081W        W17994   4.572   8.205  26.961 -0.0589 -0.2208 -0.0066
75082W        W17995   1.605  22.334   1.624 -0.1879  0.2928  0.1711
75083W        W17996  12.206  29.288   3.151  0.2492 -0.2273 -0.0510
75084W        W17997  10.632   4.930  13.063 -0.1336  0.1056  0.2375
75085W        W17998   9.367  27.558   0.726  0.0564 -0.0851 -0.2349
75086W        W17999   8.370  29.355   5.671  0.0083 -0.0798 -0.2082
75087W        W18000  31.391   5.419  10.208  0.3593  0.0519  0.0479
75088W        W18001   6.642  34.351  26.869 -0.2545  0.1367 -0.0888
75089W        W18002   6.067  14.624  28.578  0.1278  0.1680 -0.2050
75090W        W18003  33.963  23.584  10.485  0.0678  0.2521  0.1047
75091W        W18004   0.044  31.376   1.616 -0.2394 -0.2013 -0.1300
75092W        W18005  17.976  31.939  29.376 -0.2656  0.0800  0.0213
75093W        W18006  18.840  28.362   2.475 -0.2546 -0.0953  0.2184
75094W        W18007   7.911  26.840   2.343  0.0835  0.1655 -0.3279
75095W        W18008   1.041  31.640  27.140  0.1181  0.0612 -0.1234
75096W        W18009   4.474  31.579   4.475 -0.0114 -0.2437 -0.1103
75097W        W18010  30.843  30.228  21.923  0.0440 -0.1167 -0.4169
75098W        W18011  30.920  31.816   6.598  0.0276 -0.1969  0.1071
75099W        W18012  13.284  22.873   3.902  0.1920  0.0357 -0.2161
75100W        W18013   8.238  28.670   1.954 -0.1087  0.1119 -0.0610
75101W        W18014   4.637  29.885   4.850  0.1207 -0.1451  0.0416
75102W        W18015  11.384   7.288   7.504 -0.0763 -0.3319 -0.1784
75103W        W18016  21.113  30.494   4.498 -0.0463 -0.3227  0.3411
75104W        W18017  33.834  21.067  26.700 -0.1888 -0.0435  0.3131
75105W        W18018   5.362   1.492   1.709 -0.2267 -0.0136  0.2118
75106W        W18019  33.597   0.353  29.417  0.3738  0.0595  0.1058
75107W        W18020  10.932  33.539  11.827 -0.0567 -0.0627  0.1672
75108W        W18021   8.107  32.981   2.101  0.3481 -0.2527  0.0285
75109W        W18022   7.091  28.014  29.636 -0.0525 -0.0411 -0.0688
75110W        W18023   3.746  30.138   6.845  0.0157 -0.2377  0.0984
75111W        W18024  32.881  29.504   0.875 -0.5394  0.0214  0.2456
75112W        W18025   4.012  34.191  10.045  0.3229  0.1328 -0.1366
75113W        W18026  34.024  21.854  29.181  0.1487  0.2384 -0.2159
75114W        W18027   1.810   6.588  20.136  0.0598  0.2471  0.0602
75115W        W18028  12.481  30.971  22.401 -0.2450 -0.0810  0.0116
75116W        W18029   3.468  29.873  29.560 -0.1022 -0.2178  0.1847
75117W        W18030  34.426   3.281  10.135  0.4051 -0.0039  0.2060
75118W        W18031  17.689  11.734   5.956  0.0750  0.1818 -0.1101
75119W        W18032   3.583  27.988   6.902  0.3943 -0.1143  0.1887
75120W        W18033  28.213  30.818  23.519 -0.1935  0.0875  0.2642
75121W        W18034  14.888   0.140   8.207  0.2607 -0.2098  0.1233
75122W        W18035   7.124   3.131  21.944  0.1545  0.1361 -0.0288
75123W        W18036   3.657  33.230  27.692 -0.1917 -0.1189  0.1997
75124W        W18037   1.108   1.625   9.062 -0.3512  0.1390 -0.1530
75125W        W18038   2.648  29.218   7.290  0.0331  0.1723 -0.2441
75126W        W18039  31.901  32.193   6.992 -0.1954  0.3510  0.1902
75127W        W18040   9.445  29.485   7.214  0.3289 -0.0177  0.0492
75128W        W18041   0.877  23.690  10.705 -0.0200 -0.1531  0.1495
75129W        W18042   3.327   1.397   0.962 -0.0572  0.3022  0.2233
75130W        W18043  31.856  24.012  28.663  0.2451  0.1154 -0.1829
75131W        W18044  12.566   6.452  26.317 -0.1806  0.0421 -0.0190
75132W        W18045   8.142  34.351  26.808  0.3208  0.0150  0.3240
75133W        W18046  12.602  30.345  26.824  0.3673  0.3790  0.1397
75134W        W18047  22.426   1.545   0.852 -0.0840  0.1898 -0.0891
75135W        W18048   5.347  19.565  25.593 -0.1909  0.0878 -0.4622
75136W        W18049   0.821  32.779  29.574  0.3782  0.1446 -0.0939
75137W        W18050   2.405  31.427   2.359  0.0077  0.2732 -0.1740
75138W        W18051   1.629  32.409   8.412  0.0571  0.0066 -0.4516
75139W        W18052   5.809  32.092  17.683  0.1031  0.1016 -0.3199
75140W        W18053   7.305   4.533   1.004 -0.1498  0.1468  0.2067
75141W        W18054   5.318   4.592   6.425  0.0918  0.1862  0.1943
75142W        W18055  33.731   5.468   4.573  0.2643  0.0510  0.1498
75143W        W18056  33.456  21.792   0.589 -0.1092 -0.0536 -0.1377
75144W        W18057   7.302  27.818   7.209  0.1012  0.0457 -0.0004
75145W        W18058   1.809   2.677   2.885 -0.0644 -0.2337 -0.1044
75146W        W18059   0.545  29.314  28.330 -0.1498 -0.1893 -0.0723
75147W        W18060   6.416  28.140  21.481 -0.0003  0.0608 -0.1963
75148W        W18061   6.171   2.691   5.522 -0.2813  0.1184  0.0686
75149W        W18062   8.216   0.403   2.371 -0.0733  0.0038 -0.0408
75150W        W18063   9.254  30.951  26.805 -0.0909 -0.1197 -0.1604
75151W        W18064   5.419  30.619   6.322 -0.1937 -0.0891 -0.0985
75152W        W18065  14.764  18.648  23.971 -0.0457 -0.0526  0.2087
75153W        W18066   7.665  30.998   3.893  0.3747  0.2836  0.2963
75154W        W18067  17.521   2.882   7.687  0.1518 -0.0426 -0.0349
75155W        W18068  12.460  30.109   9.347  0.2581 -0.0857  0.0851
75156W        W18069   5.216  33.505   9.382 -0.1003 -0.1141  0.1242
75157W        W18070   2.523   5.666   2.683  0.1944  0.1493 -0.1812
75158W        W18071   6.482   2.853   0.320  0.0323  0.0626  0.0320
75159W        W18072   4.657  29.697   8.539 -0.0501  0.1055  0.0896
75160W        W18073   2.907   2.179   4.156  0.0889 -0.1269  0.0272
75161W        W18074  14.717  26.436  19.418  0.1695 -0.0184  0.1768
75162W        W18075   0.263  28.925   4.458  0.0602  0.1127  0.0223
75163W        W18076   1.924  31.271  27.596  0.0226 -0.0439 -0.3046
75164W        W18077  10.331  28.473   6.223  0.0472  0.2248 -0.1182
75165W        W18078  10.365  21.554   2.027  0.1021  0.1151 -0.4062
75166W        W18079   8.401   0.549   5.783  0.0672 -0.0269 -0.3431
75167W        W18080   1.453  30.687   4.122 -0.0844  0.0345  0.0577
75168W        W18081   3.999  33.459   2.553  0.1465 -0.0147 -0.1614
75169W        W18082  11.615  29.464  24.452  0.3600 -0.0709 -0.0230
75170W        W18083  33.900  33.543  22.023  0.0804 -0.1220 -0.1324
75171W        W18084   6.441  26.944   4.184  0.1404 -0.3832  0.0498
75172W        W18085   2.111   6.315   3.816  0.0476  0.3972 -0.1296
75173W        W18086   0.213  23.933  27.782 -0.1788 -0.0418  0.0869
75174W        W18087   4.285  34.471  26.384  0.0553  0.3339  0.2818
75175W        W18088   4.616  31.468   5.975 -0.1954 -0.4213 -0.2147
75176W        W18089   6.808  19.622  28.910  0.2054 -0.3007  0.0040
75177W        W18090  34.471  32.279  25.625  0.0368 -0.0871  0.0226
75178W        W18091   8.431  22.525   6.626  0.2114 -0.0393 -0.1051
75179W        W18092   7.479  18.516   4.430 -0.2465 -0.0666 -0.1625
75180W        W18093   8.311  32.487  23.463 -0.0521 -0.1453 -0.0802
75181W        W18094  11.694  24.066   8.252 -0.0141  0.0502 -0.1850
75182W        W18095  34.370  26.613   5.515 -0.0974 -0.3171  0.2251
75183W        W18096   9.270  26.944  20.470 -0.1409 -0.3358  0.1506
75184W        W18097   9.114  33.322  11.755  0.0431  0.3353 -0.0709
75185W        W18098   4.692   0.957  27.308  0.1439 -0.0172 -0.2951
75186W        W18099   0.309   4.902   1.236  0.0692 -0.2898 -0.1108
75187W        W18100   2.280   5.749   4.194  0.0609  0.1407 -0.1276
75188W        W18101   6.856   0.469   3.563  0.3851  0.1255 -0.1304
75189W        W18102  15.509  26.845   7.320 -0.0428 -0.0651 -0.2611
75190W        W18103   0.382  25.733   7.218 -0.2840 -0.3123 -0.2739
75191W        W18104   5.801   1.014   8.105  0.0747  0.2171  0.0794
75192W        W18105   4.541  27.106  28.431  0.1008 -0.0431 -0.1408
75193W        W18106   5.698  28.741   5.942  0.3108 -0.3589  0.0761
75194W        W18107  13.565  27.752   5.812  0.0990 -0.0532  0.1013
75195W        W18108   0.367  22.538   2.913  0.2894 -0.0228 -0.3034
75196W        W18109  28.522   3.112   6.986  0.1944 -0.0465 -0.1600
75197W        W18110   0.181  28.696   8.481 -0.1548  0.1187 -0.1099
75198W        W18111  10.674   1.809   3.945 -0.0345  0.1269 -0.0135
75199W        W18112  16.375  32.238   3.500 -0.0852  0.2450  0.1475
75200W        W18113   8.515  24.291  25.793  0.3641 -0.0763 -0.2954
75201W        W18114  31.038  20.785   1.055  0.0308 -0.0386  0.2815
75202W        W18115  30.673  26.995   4.141 -0.1486  0.0618  0.0296
75203W        W18116   4.490  34.217   6.311 -0.2182 -0.1635 -0.0705
75204W        W18117  26.253  20.351   5.490  0.0922  0.2264  0.0593
75205W        W18118  12.066  31.023   1.886  0.2264  0.0156 -0.0190
75206W        W18119   2.116   9.098   6.491  0.0108 -0.0454  0.0867
75207W        W18120   6.679  29.355   7.590  0.0270 -0.3614  0.1888
75208W        W18121  26.219   2.710  29.102 -0.0932 -0.3222  0.0929
75209W        W18122  30.648  27.926  26.438 -0.1494  0.0922  0.2534
75210W        W18123   8.598  25.782  28.306  0.0888  0.0632 -0.2157
75211W        W18124  13.969   2.282   8.465 -0.3194 -0.1417 -0.0472
75212W        W18125   3.277  28.974   6.124  0.1065 -0.2589  0.0860
75213W        W18126   4.976  27.482  10.375 -0.0388 -0.2540 -0.0844
75214W        W18127  19.072   0.181   2.313 -0.1367  0.2457  0.1147
75215W        W18128   5.323  33.575   8.545 -0.4824  0.0404 -0.0239
75216W        W18129  28.606   2.780   3.008  0.0245  0.1276 -0.0160
75217W        W18130   9.483   0.411  10.575 -0.1410 -0.0682  0.1033
75218W        W18131  27.033  28.988  28.804  0.0794  0.3171 -0.1646
75219W        W18132   4.668   1.952   5.732 -0.1653  0.0164 -0.3564
75220W        W18133   6.481   2.406  23.559  0.2478 -0.2034  0.2054
75221W        W18134   9.248  29.687  26.737 -0.0674  0.0478 -0.0037
75222W        W18135  34.493  26.668   6.731 -0.0605 -0.0527  0.0064
75223W        W18136   5.314  13.179  28.688  0.0795  0.0445  0.3662
75224W        W18137   7.168  29.327  29.252  0.0798 -0.1167  0.2539
75225W        W18138  14.002  32.512  10.460 -0.1643  0.0731  0.3279
75226W        W18139   6.733  27.785  28.314  0.0531  0.1340 -0.3813
75227W        W18140   8.708  22.410  10.492 -0.2321  0.2338  0.0631
75228W        W18141  16.642  27.767   6.469 -0.0959 -0.1433  0.2648
75229W        W18142  15.026  31.015  27.351  0.3892  0.0827 -0.0107
75230W        W18143  15.488  23.068   3.415 -0.3481  0.1522  0.0460
75231W        W18144  16.618  27.747   7.096 -0.0031  0.0160 -0.0164
75232W        W18145  15.102  21.447  28.897  0.0123 -0.0149  0.0318
75233W        W18146  10.153  21.573  26.186 -0.1471 -0.0123 -0.1905
75234W        W18147   6.517  33.748  28.558 -0.0974  0.0829  0.2320
75235W        W18148   5.140  22.187  16.092 -0.0748 -0.0569 -0.0530
75236W        W18149   6.645  23.268  27.293  0.1135 -0.0706  0.0701
75237W        W18150  28.250  33.998   5.119 -0.0335  0.0825  0.2816
75238W        W18151  12.904  31.122   7.147 -0.2511  0.0242 -0.1829
75239W        W18152  33.806  33.030   7.278  0.1247 -0.0173 -0.2872
75240W        W18153   5.766  29.770  29.177  0.0983  0.0175  0.1203
75241W        W18154  30.699  26.445   4.835  0.2348  0.0891 -0.1419
75242W        W18155  28.403  27.013  26.186 -0.0038  0.0331 -0.1374
75243W        W18156  13.490   1.785   4.734  0.0959 -0.4249  0.1154
75244W        W18157   5.578   3.508  11.299 -0.2365  0.5042  0.2775
75245W        W18158   5.806  24.351   2.309  0.0204  0.2330  0.0622
75246W        W18159   0.701   1.031  11.846  0.1008  0.2550 -0.0567
75247W        W18160   5.027   0.227   0.754  0.1419  0.0803  0.0891
75248W        W18161  32.078   7.543   1.212 -0.0768 -0.0002 -0.1151
75249W        W18162  12.114  34.419   4.326 -0.1958 -0.3105  0.1072
75250W        W18163  11.452  19.933   5.183  0.1676 -0.3527 -0.1738
75251W        W18164  13.691   1.796  26.607 -0.1020  0.2026  0.1248
75252W        W18165   6.864   4.933   6.698 -0.1100  0.0177  0.1003
75253W        W18166   3.713  17.387   7.617  0.0824  0.0510 -0.3611
75254W        W18167   3.258   2.822   3.479 -0.1140 -0.0639 -0.0174
75255W        W18168   0.640  29.753   1.789 -0.2167 -0.0484  0.0538
75256W        W18169   9.568  22.000   6.189 -0.2710  0.1062  0.0641
75257W        W18170   9.693  22.408   7.187  0.0099  0.2176  0.2547
75258W        W18171  33.835  28.752  28.520 -0.1923  0.0454 -0.0714
75259W        W18172  11.727   4.599  10.840  0.2943 -0.0425  0.2510
75260W        W18173  16.091  25.489   3.999  0.0332  0.0802 -0.2745
75261W        W18174  16.232  20.788   4.517 -0.0972 -0.1087  0.0965
75262W        W18175   8.753  22.475  14.961  0.3524  0.1961 -0.0546
75263W        W18176  33.132  28.449   2.813  0.1226 -0.1847 -0.4121
75264W        W18177  13.048  24.587   6.001  0.1159 -0.0931  0.3075
75265W        W18178   2.872   9.141   7.250  0.0857 -0.1032  0.0612
75266W        W18179   6.541  29.276  25.437 -0.1763  0.0892 -0.0583
75267W        W18180  32.857   3.220  27.240  0.2491 -0.1992  0.0348
75268W        W18181   5.350   3.195  10.451 -0.0163  0.2036 -0.0479
75269W        W18182  29.554  31.852   9.166 -0.0990 -0.0006 -0.0399
75270W        W18183   9.768  30.932   5.734  0.1644 -0.0305 -0.2152
75271W        W18184   0.895  21.749  26.089  0.3143 -0.0455  0.1515
75272W        W18185   1.038  23.811   0.392  0.0579  0.0045  0.0728
75273W        W18186   2.562   7.049   1.042  0.0283  0.0703  0.1428
75274W        W18187  34.306   8.205   1.764  0.1797  0.0549 -0.0876
75275W        W18188  32.553   2.020   3.314 -0.1036  0.1037 -0.2656
75276W        W18189   5.862   4.513   0.099 -0.1518 -0.0990  0.1365
75277W        W18190   9.930  34.095   2.713 -0.0731 -0.4801  0.0238
75278W        W18191  28.312  27.963   5.641 -0.0294  0.0686 -0.0335
75279W        W18192   4.591  22.849   7.367  0.2037 -0.0668 -0.1526
75280W        W18193  27.137  25.478  25.516  0.0624 -0.0943  0.1479
75281W        W18194   6.697   0.255  26.500 -0.4274 -0.2621 -0.1171
75282W        W18195   6.723  28.720   6.683  0.0985 -0.2534 -0.1672
75283W        W18196   4.460   0.971  11.516  0.1113 -0.1786 -0.0729
75284W        W18197   6.746  29.860  10.084  0.1079  0.2203  0.2953
75285W        W18198  11.580  31.910   1.811 -0.0455  0.0279 -0.2395
75286W        W18199   5.720  18.818  24.033  0.0796 -0.0238 -0.1003
75287W        W18200  10.742  22.486   3.114 -0.0648  0.2847  0.1883
75288W        W18201   2.402   2.974   5.461  0.1984 -0.0053  0.2531
75289W        W18202   0.695   0.231   0.592  0.1136  0.2325 -0.3195
75290W        W18203  16.197  34.101   9.261  0.2618 -0.1058  0.4325
75291W        W18204   8.631  28.385   2.887  0.0312 -0.0987 -0.0858
75292W        W18205  31.093   7.007   5.699 -0.3469  0.1692 -0.2427
75293W        W18206  33.754  33.223   9.438  0.3556 -0.0022 -0.2466
75294W        W18207  33.129   2.539   4.160 -0.0664 -0.0914 -0.2991
75295W        W18208  12.605  31.504  29.087  0.1434  0.3506  0.1404
75296W        W18209  34.284  31.261  28.349 -0.0093 -0.4426  0.0122
75297W        W18210   8.454  29.299  27.777  0.0748 -0.2128  0.3087
75298W        W18211   3.740  15.869   4.602 -0.0981 -0.2143 -0.0939
75299W        W18212  34.339  29.463  24.377  0.1308 -0.0020 -0.2947
75300W        W18213  34.067  21.948   1.913 -0.2036  0.0470 -0.0477
75301W        W18214  33.242  12.462  29.303  0.0349 -0.0215  0.2685
75302W        W18215  32.394   2.769   0.019 -0.3091 -0.0347 -0.0375
75303W        W18216  34.230   1.999   6.627  0.1708  0.2203  0.0319
75304W        W18217  16.134  22.024  24.662 -0.0872  0.1882 -0.2567
75305W        W18218   7.740  29.622  25.380  0.3311  0.0874  0.1739
75306W        W18219  14.651  30.256   4.746 -0.3237  0.1075  0.0779
75307W        W18220   6.714  31.546  28.777  0.0218  0.0023  0.0523
75308W        W18221   2.173  23.414  26.717 -0.1801 -0.1057 -0.1962
75309W        W18222  33.101  23.592  24.249  0.1631  0.1974  0.1241
75310W        W18223  14.415  33.463   6.345 -0.1481 -0.0567  0.0027
75311W        W18224   0.457   5.171  25.372 -0.0531  0.0012 -0.0261
75312W        W18225   0.766  18.946   2.943  0.1191 -0.0721 -0.0736
75313W        W18226  12.801  27.316  11.174  0.2448 -0.0692 -0.2713
75314W        W18227  24.767  28.280  27.780 -0.0032  0.0414  0.2333
75315W        W18228  27.971  23.223  23.678  0.3707 -0.0120 -0.1643
75316W        W18229  14.287  19.679   5.261 -0.2860 -0.0635 -0.0512
75317W        W18230   2.747  27.445   4.264  0.1079 -0.0753 -0.0287
75318W        W18231  32.702  29.119  29.239  0.2777  0.0717 -0.1589
75319W        W18232   4.485  27.307   6.537 -0.4325  0.1338 -0.0892
75320W        W18233  33.914   5.456  12.654 -0.1386  0.0454  0.1778
75321W        W18234  15.183  21.930   1.063 -0.1206  0.1489 -0.0288
75322W        W18235   8.661  19.959  21.031 -0.1198 -0.1438 -0.3099
75323W        W18236  32.380  29.399   9.928  0.2304  0.0048  0.2598
75324W        W18237   8.457  26.255   9.662  0.1583 -0.0758  0.1153
75325W        W18238   6.682  31.825  26.778  0.2800  0.1857 -0.2962
75326W        W18239  11.102   0.057   3.477  0.1198 -0.0236  0.1339
75327W        W18240  10.578  14.700   7.960 -0.0784  0.3167 -0.1048
75328W        W18241   1.687  29.660  22.956  0.0390 -0.1514 -0.0018
75329W        W18242  10.939   1.408   1.907  0.1114 -0.0194  0.1027
75330W        W18243   1.341   0.339  29.142  0.1252  0.0138 -0.1356
75331W        W18244  26.896   7.578   2.001  0.1200 -0.0775  0.1934
75332W        W18245  18.969   2.656  26.282 -0.0292 -0.4506  0.0244
75333W        W18246   9.994   3.357  29.106 -0.2637  0.0170  0.0486
75334W        W18247   6.513   1.236  29.209  0.0803  0.0280  0.0749
75335W        W18248   9.483   4.699   4.110  0.1197  0.3364 -0.0819
75336W        W18249  34.135   0.249  11.620  0.1570  0.0458  0.2739
75337W        W18250  13.046  30.691   9.151  0.0994 -0.0760 -0.2652
75338W        W18251   4.932  24.838   8.096 -0.0754  0.3355  0.2332
75339W        W18252   2.323  25.241   2.974  0.0575  0.0877  0.4619
75340W        W18253   6.152  32.974   5.514 -0.3782  0.1339  0.1107
75341W        W18254   7.202  31.491  11.554  0.1613  0.2394  0.0568
75342W        W18255  10.534  28.301   7.487 -0.0402 -0.2383  0.1196
75343W        W18256   5.052  24.390   8.755  0.1083 -0.0659 -0.0858
75344W        W18257   9.515  32.668  27.794  0.1377  0.1532  0.1382
75345W        W18258   6.354   2.706  26.206  0.1876 -0.1798  0.2994
75346W        W18259  11.281  20.962  27.345  0.1776  0.2477 -0.0225
75347W        W18260   1.928   6.376  29.625  0.3361 -0.0485  0.0355
75348W        W18261   7.707  14.743   4.141 -0.0682 -0.1789 -0.0727
75349W        W18262  10.292  32.368   8.722  0.2318 -0.2473 -0.0879
75350W        W18263  11.001  20.014   2.898  0.0725  0.0515 -0.0381
75351W        W18264  32.540  26.533  23.321 -0.0536 -0.0675  0.3057
75352W        W18265   3.152  28.606   5.760  0.1412 -0.4263 -0.2174
75353W        W18266   1.523  24.554   1.595 -0.3041  0.0086  0.1631
75354W        W18267   5.490   1.208  10.345 -0.1692 -0.3715 -0.1655
75355W        W18268   3.808  21.661   4.889 -0.2934 -0.0659  0.2507
75356W        W18269  17.357  29.610  26.733 -0.1983  0.2662  0.1286
75357W        W18270  27.324  22.618   3.074  0.2994 -0.2030  0.1478
75358W        W18271   4.738   1.668   6.158  0.0776  0.1564  0.0165
75359W        W18272   3.957  33.232  10.437  0.0611  0.3351 -0.0443
75360W        W18273   1.584  27.755  26.034 -0.1110  0.1278  0.0723
75361W        W18274  33.817   4.479   5.294  0.2895  0.2233 -0.1410
75362W        W18275   3.882  24.250  28.727  0.0768  0.4187  0.0536
75363W        W18276   1.764  29.226   8.729 -0.0905 -0.2574  0.1178
75364W        W18277   3.567   7.856   3.375  0.2866  0.1028 -0.1072
75365W        W18278   5.366  32.386  10.497  0.3104  0.1755  0.1495
75366W        W18279  30.622   6.212  28.415  0.0144  0.0506  0.4769
75367W        W18280  12.911  25.080  22.148 -0.2170 -0.0490 -0.0273
75368W        W18281   5.302  30.455  10.254 -0.2419 -0.0398 -0.1914
75369W        W18282   6.889  30.370   3.346  0.0264  0.1506 -0.0546
75370W        W18283  32.915   3.057   2.341  0.1003 -0.2244 -0.2769
75371W        W18284  14.043   9.296  27.984  0.1158  0.3349  0.1062
75372W        W18285   0.798  27.759   3.608 -0.1485 -0.4303 -0.1383
75373W        W18286  33.765  29.056   5.562  0.3406 -0.0109  0.1611
75374W        W18287   6.236  24.735   3.861 -0.0801  0.1362 -0.2316
75375W        W18288   4.241   2.007   8.877  0.0025 -0.2266  0.2478
75376W        W18289  21.158  23.836  26.565  0.1959 -0.0716  0.1767
75377W        W18290  12.957  27.298  27.383 -0.0935 -0.0441 -0.0998
75378W        W18291   1.810  32.227  29.703 -0.2863 -0.0434  0.1570
75379W        W18292   3.257  25.332  24.022 -0.0448 -0.2421 -0.0265
75380W        W18293   3.900   4.972  26.789 -0.2476 -0.0458  0.2068
75381W        W18294   2.592  25.534   1.009 -0.2510 -0.1460  0.0059
75382W        W18295   2.005   6.108   4.580 -0.2497 -0.4133 -0.0455
75383W        W18296  33.234  23.636   8.866  0.2639  0.1637  0.1758
75384W        W18297   8.576   2.131  28.060 -0.0499 -0.2175  0.3122
75385W        W18298   3.269  24.874   2.162  0.2255  0.0365 -0.0495
75386W        W18299  33.594  21.195  29.709 -0.1222 -0.0391  0.0729
75387W        W18300  11.805  13.540   1.165 -0.2079 -0.0561 -0.0853
75388W        W18301  15.706   2.554   5.819 -0.0055  0.0836 -0.3953
75389W        W18302  12.982   0.509  11.690  0.1364 -0.2490  0.3020
75390W        W18303  28.765  25.914   1.091 -0.1054  0.1804  0.2334
75391W        W18304   9.083  28.918  28.635 -0.1593 -0.0054  0.0228
75392W        W18305  12.292  21.893   1.326  0.1989  0.0923  0.1945
75393W        W18306   1.794  27.669   4.170  0.1739 -0.0410  0.1515
75394W        W18307  15.213  28.612   2.002 -0.0618 -0.0497  0.0468
75395W        W18308   7.876   5.793   4.852 -0.0385  0.0207 -0.2503
75396W        W18309  10.761   2.083   6.593  0.0910 -0.1365 -0.5498
75397W        W18310  30.570   2.480  27.392 -0.0504 -0.0519 -0.2399
75398W        W18311   7.237  33.213  12.030  0.1068 -0.1675 -0.0523
75399W        W18312  34.162  31.913   3.255  0.2295  0.0980  0.0754
75400W        W18313   1.960  29.261   3.848 -0.0079 -0.1824  0.2912
75401W        W18314  11.673  12.584   8.491 -0.1029  0.0098  0.1805
75402W        W18315  15.478   0.221   4.407 -0.0352  0.0102 -0.0819
75403W        W18316  20.460  29.594   6.062 -0.2411  0.4668 -0.1005
75404W        W18317   6.293   2.807   6.468 -0.2076 -0.0660  0.1624
75405W        W18318  10.748  15.951  29.212 -0.1663 -0.0814  0.2102
75406W        W18319   3.186  26.744   7.723 -0.0006 -0.3957 -0.1215
75407W        W18320   7.924   3.288   2.877  0.1322  0.0370 -0.0200
75408W        W18321  31.804   0.897  29.487 -0.3410  0.1442  0.5631
75409W        W18322   6.580  29.878  11.009 -0.2626  0.2884 -0.0406
75410W        W18323  34.344  25.270   7.017  0.0399 -0.2776  0.1984
75411W        W18324  10.491  31.696  10.107  0.1676  0.2194  0.0953
75412W        W18325   9.430   6.666   9.195 -0.3276  0.0532  0.2780
75413W        W18326   5.400  34.144  24.493 -0.1714  0.0269  0.0818
75414W        W18327   5.522  32.098   6.303  0.0465  0.0187 -0.0737
75415W        W18328   3.315   3.895  27.620 -0.2860  0.2460 -0.0756
75416W        W18329   3.183  28.352   1.994 -0.2775  0.2474 -0.0800
75417W        W18330   8.322  30.240  12.421  0.1349  0.1674 -0.0651
75418W        W18331   7.224   2.532   9.112  0.0358  0.1300  0.0277
75419W        W18332   6.031  27.925   6.783  0.0832 -0.0320 -0.4081
75420W        W18333  12.952  28.198   7.871  0.1396 -0.3030 -0.0113
75421W        W18334   3.436   4.739   9.558 -0.0331 -0.1970  0.1045
75422W        W18335   2.619   1.418   3.444 -0.0964 -0.2627  0.0889
75423W        W18336  33.043  26.711   6.806 -0.0795  0.2821 -0.0628
75424W        W18337   2.849  22.795   7.891  0.2185 -0.1718  0.0167
75425W        W18338   3.012  27.384  25.994  0.1050 -0.1915  0.2562
75426W        W18339   1.100  31.339   5.219  0.0177  0.1259  0.2603
75427W        W18340   0.717  24.364   0.202 -0.0510  0.1655  0.0488
75428W        W18341   7.769  21.844   1.931  0.0207  0.0425 -0.0898
75429W        W18342   3.831  20.596   7.939  0.0107  0.1094  0.2245
75430W        W18343  30.876  33.357   8.743  0.1148 -0.0502  0.3746
75431W        W18344  11.731   3.511   3.116  0.2973 -0.2202 -0.2157
75432W        W18345  33.016  27.526   0.728 -0.1311  0.2342  0.3943
75433W        W18346   2.997  23.208   8.996  0.2665 -0.0546  0.1583
75434W        W18347  32.381  11.522   8.445  0.1159  0.2739 -0.2416
75435W        W18348  29.799  14.332   1.586 -0.0412 -0.0224 -0.0961
75436W        W18349   0.934   0.376  10.883  0.0324  0.2661 -0.0226
75437W        W18350  33.993   1.827   2.594  0.3154 -0.0636 -0.0183
75438W        W18351   4.638   5.209   8.484 -0.1699  0.3408  0.1566
75439W        W18352   3.171   1.652   7.071 -0.0112 -0.1445 -0.4232
75440W        W18353   5.046  23.292  10.427 -0.1871 -0.0237 -0.0712
75441W        W18354  10.377  32.197   9.984  0.2303  0.0252  0.0242
75442W        W18355   7.608  30.847   5.892 -0.1504 -0.2487 -0.0160
75443W        W18356   5.502   0.552  12.143  0.0332  0.1219 -0.3108
75444W        W18357  10.469   3.571   5.433  0.1858 -0.0548  0.1826
75445W        W18358  10.406  30.816   9.653  0.0779 -0.1593 -0.1597
75446W        W18359   7.544  24.374  21.368 -0.1245 -0.0343 -0.0592
75447W        W18360   5.211  32.413   5.047 -0.0664 -0.2235 -0.2687
75448W        W18361   4.617  33.461   9.767 -0.0132 -0.1688  0.1677
75449W        W18362   6.819  33.722  11.320 -0.0678  0.0230 -0.0758
75450W        W18363  24.739  10.764  27.414 -0.0312  0.0187  0.3784
75451W        W18364  34.306   2.208  20.753 -0.4539 -0.6965 -0.0578
75452W        W18365  14.418  29.135  29.452 -0.0154 -0.0999 -0.1397
75453W        W18366  34.414   5.383   7.368 -0.0912 -0.2388  0.0004
75454W        W18367   5.690  28.556   7.628 -0.0557  0.0507 -0.2679
75455W        W18368  32.687   0.420   7.306 -0.2176  0.1725  0.0318
75456W        W18369  27.311   1.683   3.141  0.0789  0.0220 -0.0728
75457W        W18370   5.236   1.585  29.448 -0.2381  0.1311 -0.1264
75458W        W18371   9.553   3.160   2.866  0.4215  0.0186 -0.3977
75459W        W18372  33.946  32.732  10.117 -0.1257  0.0017  0.3204
75460W        W18373   0.447  33.031  29.091  0.1201  0.0206  0.1367
75461W        W18374   5.063   3.712   6.951  0.2774 -0.0340  0.4107
75462W        W18375   1.769  29.978  29.485  0.0151  0.0846 -0.0546
75463W        W18376  12.338  28.525   6.759  0.0356 -0.0330 -0.2562
75464W        W18377   2.490  20.733  28.826  0.1299 -0.2880  0.2980
75465W        W18378  34.189  13.511   9.231  0.1103  0.1078 -0.0507
75466W        W18379  32.784  27.237   3.920 -0.3829  0.5869  0.0766
75467W        W18380  32.682   2.528   8.324  0.1554  0.0272 -0.1713
75468W        W18381  29.451   2.512   1.182 -0.0107 -0.0686  0.1132
75469W        W18382   6.005   2.769   3.155 -0.1176  0.1064 -0.1896
75470W        W18383  32.630  31.695   3.203  0.0912 -0.0904  0.1905
75471W        W18384   3.925  21.505  25.936 -0.1934 -0.1615  0.3120
75472W        W18385  29.067  32.842   4.534  0.0490 -0.2546  0.0469
75473W        W18386   6.874  29.682   9.211 -0.2698 -0.1393 -0.1010
75474W        W18387  33.096  21.148   4.304  0.5244 -0.2105 -0.0276
75475W        W18388  32.972  30.917   3.956  0.2393 -0.3774 -0.2142
75476W        W18389   7.128  33.433   8.452  0.2121 -0.2258 -0.2404
75477W        W18390   5.665  23.016   3.138  0.1831 -0.2038  0.0146
75478W        W18391  32.939  11.166  10.840  0.3289 -0.1092 -0.1098
75479W        W18392  10.142  32.026   5.260 -0.2862 -0.2207 -0.2605
75480W        W18393  10.390  25.927   5.599  0.0632  0.2390 -0.0013
75481W        W18394   6.422  10.663  11.128  0.0118  0.1408  0.1464
75482W        W18395   6.680  29.594   8.674 -0.2203  0.4377  0.0729
75483W        W18396  10.806  33.533  10.199 -0.1009  0.3710  0.0114
75484W        W18397   1.907  31.720  10.163  0.1205 -0.1031  0.2031
75485W        W18398  28.054  14.232   8.302  0.0561 -0.0126 -0.0999
75486W        W18399  10.329  27.371   5.332  0.2636 -0.2503 -0.1835
75487W        W18400  12.146  29.225   7.929 -0.0433  0.1328 -0.1160
75488W        W18401   5.186  25.860   1.862  0.3479  0.1474  0.3803
75489W        W18402  28.109  28.760   6.468  0.1080  0.2744  0.5143
75490W        W18403  30.156  25.160   8.391 -0.2604  0.1114 -0.1974
75491W        W18404  33.602  29.039   7.278  0.1665 -0.3188 -0.1056
75492W        W18405  28.012  31.318   8.472 -0.1192 -0.1304 -0.0434
75493W        W18406  10.225   3.698  28.750 -0.3372  0.0202 -0.0376
75494W        W18407   9.576  28.168   5.663 -0.1560  0.4105  0.1996
75495W        W18408   0.035  27.352  19.651 -0.1350 -0.3621  0.2614
75496W        W18409  10.109   3.347  12.463 -0.0082  0.1684  0.0045
75497W        W18410   6.400  29.113   9.673 -0.0123 -0.1178  0.1324
75498W        W18411   2.954  20.549   8.186 -0.0625 -0.4631  0.1111
75499W        W18412   4.177   1.653  11.746 -0.2540 -0.1850  0.1823
75500W        W18413   1.220   4.684  28.855 -0.2144 -0.2717 -0.0314
75501W        W18414   3.671  25.754  29.173  0.0360  0.1628 -0.0820
75502W        W18415   5.284   2.101  11.312 -0.0221 -0.1749 -0.0186
75503W        W18416  10.017   2.407   7.994 -0.0570  0.1037  0.0270
75504W        W18417  29.514  27.487   2.574  0.1789 -0.0234  0.1128
75505W        W18418   3.315   5.937  29.259 -0.1321 -0.0916 -0.0678
75506W        W18419   9.484   0.477  29.629  0.0077  0.2231  0.0877
75507W        W18420  10.969  23.065   7.049 -0.0349 -0.2082 -0.0565
75508W        W18421  30.077  32.160  10.568  0.2941  0.0168  0.1141
75509W        W18422   6.207  25.304   7.212 -0.0497 -0.1742  0.3045
75510W        W18423  33.124  33.467   4.451 -0.1368  0.2539 -0.0520
75511W        W18424   0.958  31.627   6.823  0.4383  0.3069  0.2328
75512W        W18425  26.361  33.526   2.632  0.1404 -0.1217 -0.0556
75513W        W18426   6.273  31.326   3.368 -0.0881  0.1626 -0.2240
75514W        W18427   6.726  28.549   1.666 -0.1241 -0.4380  0.0480
75515W        W18428  12.107   3.931   6.371 -0.2900  0.0440  0.2296
75516W        W18429  31.153  30.350  10.224  0.3993  0.0513  0.1537
75517W        W18430   5.325   0.577   1.021  0.1597  0.2729  0.1251
75518W        W18431   7.975  30.633  27.460 -0.0980 -0.3501 -0.0402
75519W        W18432   2.389   4.955  29.055  0.0170 -0.3925 -0.0299
75520W        W18433   3.416   1.011  11.077 -0.2445 -0.0151 -0.0651
75521W        W18434  33.407  33.540   6.061 -0.3252 -0.2395  0.1508
75522W        W18435  32.983  32.922   2.505 -0.1200 -0.1330 -0.1484
75523W        W18436   5.052   0.064   2.406 -0.1676  0.0118 -0.0675
75524W        W18437   2.376  32.984   4.459 -0.0183 -0.3433 -0.2041
75525W        W18438   7.674  31.865  10.161  0.0274 -0.0864  0.1055
75526W        W18439   2.904   5.494  10.168 -0.0243 -0.0688  0.0748
75527W        W18440  34.416   6.470  28.121 -0.0802 -0.1299 -0.0485
75528W        W18441  10.070  27.467   4.392 -0.0595 -0.3090  0.1916
75529W        W18442  13.740   4.239   4.977  0.0414  0.0320 -0.0599
75530W        W18443   4.840  23.446   4.471 -0.2431  0.2858 -0.1693
75531W        W18444   6.541  30.592   1.499 -0.1549  0.0377 -0.0423
75532W        W18445  34.250  29.881   7.176 -0.3773  0.0653  0.4387
75533W        W18446   8.157  21.211  26.778  0.0401 -0.0360 -0.1759
75534W        W18447  33.956   0.234   7.107  0.0113 -0.0236  0.1753
75535W        W18448   9.153  25.400  27.999  0.2586 -0.0253 -0.2667
75536W        W18449  33.681  27.833   8.135 -0.2937  0.2014  0.4026
75537W        W18450  34.489   8.063   9.693 -0.1430  0.3843 -0.0099
75538W        W18451   1.459  32.037   7.554 -0.0424 -0.0076  0.0895
75539W        W18452  12.280  22.369  28.621 -0.1707  0.1794  0.1905
75540W        W18453   5.548  31.919  10.564 -0.0261 -0.0033  0.0521
75541W        W18454   7.364  23.382   9.077  0.4163  0.1668  0.3000
75542W        W18455  32.992  33.428  28.291  0.1018  0.2467 -0.2254
75543W        W18456   7.080   7.668   2.708 -0.0524  0.3222  0.0002
75544W        W18457   5.767  28.241  10.947 -0.2584  0.2688  0.1261
75545W        W18458   8.362  31.824   4.973 -0.1915  0.0439 -0.0720
75546W        W18459  11.812  28.479  11.342 -0.2655 -0.0363 -0.0564
75547W        W18460  11.387  12.119   4.651  0.1173 -0.0356  0.0387
75548W        W18461   4.776  24.028   9.079 -0.1476 -0.1536  0.1066
75549W        W18462  25.814  24.501  27.630 -0.0406  0.2222 -0.2141
75550W        W18463   2.958  26.578   4.164 -0.1601  0.0211  0.1603
75551W        W18464  12.705  18.707   0.126 -0.0477  0.0112 -0.0307
75552W        W18465   2.962  11.186   7.458  0.0554  0.0763 -0.0232
75553W        W18466   2.408  13.360  26.299  0.0957  0.0411 -0.3127
75554W        W18467   8.187   1.175  12.646 -0.1623  0.0719 -0.3244
75555W        W18468   7.328   0.189  11.205  0.0066  0.0329  0.0867
75556W        W18469   5.266   3.404  27.558 -0.3394  0.2133  0.0209
75557W        W18470   2.537  33.676   6.563 -0.0260  0.0713 -0.0234
75558W        W18471  13.942  30.907   5.466 -0.0040  0.1601  0.2330
75559W        W18472   8.618   0.043  25.730 -0.0797 -0.1827  0.1461
75560W        W18473  32.724  30.184  29.099 -0.0584 -0.0951  0.0900
75561W        W18474   8.786  25.654   9.080 -0.1414  0.2958 -0.1939
75562W        W18475  34.054  30.035   5.264 -0.0583  0.2161 -0.2084
75563W        W18476   1.991  33.492   9.497  0.4611 -0.1086 -0.2657
75564W        W18477   6.957  25.122   0.330 -0.1915 -0.0456 -0.0078
75565W        W18478   3.059  28.512   1.419  0.2230  0.0771  0.1823
75566W        W18479   6.073  19.095   4.326 -0.0951 -0.0039  0.1208
75567W        W18480   5.348  23.089   0.321 -0.2400 -0.2897 -0.0763
75568W        W18481  33.213  30.970  23.816 -0.0976  0.1996  0.0578
75569W        W18482   8.691  24.983   7.247  0.1438  0.0603 -0.0268
75570W        W18483   3.980  24.785   9.312 -0.2366 -0.0085  0.3016
75571W        W18484  13.644   5.706   5.240  0.2421 -0.0345  0.1479
75572W        W18485   4.495   5.353   2.187 -0.0892  0.0718  0.0765
75573W        W18486   3.887  16.753  28.722  0.0004 -0.3227 -0.1179
75574W        W18487   9.914  32.202   6.490  0.0292 -0.1344 -0.2547
75575W        W18488  11.101  22.892  26.461 -0.4051 -0.0432  0.2641
75576W        W18489  26.028   4.082   2.381 -0.0335  0.1335  0.1852
75577W        W18490   6.285  32.019  10.350  0.1453  0.0864  0.0698
75578W        W18491   8.895  29.007  29.583  0.0040 -0.1551  0.1247
75579W        W18492   8.990  23.307  28.434 -0.2678 -0.2776  0.1736
75580W        W18493   1.032  32.356   3.538 -0.0497 -0.0897  0.3051
75581W        W18494   6.929  20.460  10.107 -0.1290  0.2496 -0.2974
75582W        W18495   2.531   7.039  22.493 -0.3056  0.1299 -0.2014
75583W        W18496  17.266  21.826  28.000 -0.3731 -0.2011  0.0058
75584W        W18497  31.919  19.881  20.040  0.3461  0.0916  0.1257
75585W        W18498   2.858  27.980   8.149 -0.1793 -0.0399 -0.0872
75586W        W18499   6.142   3.307   2.352  0.2310 -0.0396 -0.0724
75587W        W18500   3.184  29.588   7.618 -0.1030  0.1482  0.1137
75588W        W18501   2.400   1.066  12.561 -0.1546  0.2339 -0.0906
75589W        W18502  27.999   1.390   9.912 -0.4806 -0.1010 -0.2047
75590W        W18503  12.005  30.403   0.555  0.0892 -0.0389 -0.1624
75591W        W18504  29.224   6.550  10.899 -0.2932  0.1568 -0.1503
75592W        W18505  30.208  29.855   1.692 -0.2542 -0.0887 -0.0801
75593W        W18506   4.288   9.666   5.924  0.0860  0.0262 -0.3576
75594W        W18507   3.570  11.388   6.139  0.0820 -0.2792  0.2331
75595W        W18508  16.691  34.401  10.529 -0.2345  0.0568 -0.0351
75596W        W18509  31.001  10.618   8.987  0.0592  0.1971  0.0087
75597W        W18510  34.231   5.959   9.163  0.2867 -0.1791  0.0378
75598W        W18511   5.047  33.509  29.101  0.1046  0.1060 -0.2870
75599W        W18512   8.646   8.430   9.973  0.0987  0.1817 -0.0422
75600W        W18513   3.916   3.677   0.357  0.0209 -0.1599  0.1771
75601W        W18514   2.879  29.506   2.294  0.2787 -0.0860 -0.1614
75602W        W18515   5.171  33.574  24.293 -0.2270  0.1966  0.0228
75603W        W18516   6.015  27.294   5.332 -0.1565  0.0310  0.2003
75604W        W18517   9.560  28.151   8.018  0.2840  0.0406  0.0015
75605W        W18518   4.950  34.465   3.886  0.1228  0.4277 -0.0320
75606W        W18519  15.531  33.422   0.495  0.0596  0.0339 -0.0849
75607W        W18520   5.032  20.891   7.354 -0.1529 -0.0698 -0.1149
75608W        W18521  10.067  12.023  19.306 -0.1865  0.1231  0.0886
75609W        W18522   3.766  31.966   8.376 -0.1294  0.1264 -0.0661
75610W        W18523   7.557  31.786   3.133 -0.0318  0.1215  0.0405
75611W        W18524  12.907  23.994  10.164 -0.2087  0.0415 -0.0340
75612W        W18525   5.608  24.868  27.715  0.3984 -0.0259 -0.2293
75613W        W18526   6.341   3.677  11.850 -0.0438 -0.0179  0.0314
75614W        W18527   3.784   1.641   5.332  0.2152 -0.0338 -0.1392
75615W        W18528   4.423   8.659  11.107 -0.0200  0.0358  0.0461
75616W        W18529   8.546  34.330  11.619  0.0354  0.0157  0.0433
75617W        W18530   7.855  10.421   8.733 -0.1156  0.0631  0.0649
75618W        W18531   9.094   9.756   9.947  0.0518  0.0358 -0.1503
75619W        W18532  30.469  28.068   2.583 -0.2316  0.2727  0.2024
75620W        W18533   5.107  31.553  22.918  0.1044  0.2640  0.2438
75621W        W18534   1.805  10.033  10.415 -0.1357 -0.1380  0.1076
75622W        W18535  22.371  31.885   4.755 -0.1523  0.0868 -0.0770
75623W        W18536  12.260   1.485   1.749 -0.2170  0.0518 -0.0036
75624W        W18537   3.280  21.217  10.235 -0.1141 -0.1310 -0.1621
75625W        W18538   4.873  30.638  10.120  0.2693  0.0353  0.1850
75626W        W18539   4.298  22.925  28.822 -0.1927 -0.4347  0.2174
75627W        W18540   8.373  25.582   5.452 -0.2897 -0.2514 -0.1164
75628W        W18541  32.949   2.753  11.484 -0.0574 -0.3398  0.0732
75629W        W18542   3.572  11.946   7.083  0.3176 -0.0218  0.2933
75630W        W18543   8.050  26.876  10.487 -0.0711 -0.0401 -0.0317
75631W        W18544  19.621   6.198  28.319  0.0773 -0.0671  0.1348
75632W        W18545   8.204  20.611   9.428 -0.0659 -0.0290 -0.1160
75633W        W18546  11.494  28.884   2.546  0.3260  0.0526 -0.1856
75634W        W18547   1.553  31.818   5.877  0.0262 -0.0047  0.2527
75635W        W18548   0.823  32.827   2.606  0.0157 -0.1302  0.3580
75636W        W18549  33.761  33.381   6.884  0.0262  0.0089 -0.0410
75637W        W18550   8.496  26.203  10.590  0.1817  0.0864  0.2834
75638W        W18551   0.132  33.549   6.355  0.1236  0.0846 -0.2025
75639W        W18552  12.397  19.493  29.536  0.0469  0.0920 -0.2177
75640W        W18553   5.750  32.999   4.497  0.0486 -0.3061 -0.3209
75641W        W18554  12.252  27.340   8.247 -0.0829  0.3713 -0.1032
75642W        W18555   0.791  24.810   7.997  0.0256  0.0927 -0.0435
75643W        W18556  13.138  13.325   5.223 -0.3989  0.1033 -0.3609
75644W        W18557  10.260  18.118   7.038 -0.2295 -0.3048 -0.5317
75645W        W18558  31.616  32.903  19.236  0.2422 -0.0252 -0.1403
75646W        W18559   5.691  26.127   5.803  0.2981  0.5423  0.1585
75647W        W18560  31.794   8.422  10.273  0.1901 -0.3270 -0.2453
75648W        W18561   5.833   7.436  29.717  0.1381  0.1405 -0.0934
75649W        W18562  33.240  26.081   1.446 -0.2691 -0.4045 -0.2026
75650W        W18563   7.377   4.749   4.518  0.1279  0.1294 -0.0236
75651W        W18564   5.635  29.203   8.527  0.1214 -0.1885 -0.0782
75652W        W18565   5.087  22.035   6.984 -0.1077  0.2344  0.2198
75653W        W18566   7.571   9.556   9.589  0.0367 -0.0177 -0.2272
75654W        W18567   2.380   1.604  11.015  0.0135 -0.2525 -0.3631
75655W        W18568  26.777  31.889  27.264 -0.0711 -0.0690 -0.0386
75656W        W18569   1.415  32.688   4.395  0.1760  0.0588  0.3356
75657W        W18570  12.651   5.093  28.500 -0.0463 -0.1551 -0.0109
75658W        W18571   6.843  10.519  27.186  0.0198 -0.2795  0.1264
75659W        W18572   7.221  33.998  19.337 -0.2201 -0.0017  0.2316
75660W        W18573   4.704  26.348  11.056 -0.0476  0.2524  0.2375
75661W        W18574   5.408  32.619   6.569  0.3596 -0.1394 -0.1119
75662W        W18575  20.534  21.704   2.859 -0.0614  0.2710 -0.1616
75663W        W18576  11.245  21.514   7.170  0.0822  0.0241 -0.0617
75664W        W18577  31.828  32.030   6.351  0.3176 -0.0752  0.2519
75665W        W18578   9.254   6.717   4.903 -0.0276  0.2119 -0.0320
75666W        W18579  10.385  27.756   8.272 -0.1902  0.1962  0.1659
75667W        W18580   8.566  29.655   4.235 -0.0036 -0.0897  0.0765
75668W        W18581   9.993  28.093   6.943 -0.2482  0.1505 -0.1826
75669W        W18582  21.713   7.351   9.044  0.0195 -0.2209 -0.0107
75670W        W18583   4.023  26.952  19.923  0.0891  0.0619  0.1772
75671W        W18584  15.856  24.279  10.018  0.2035 -0.0366  0.1644
75672W        W18585   9.603   5.532  20.929 -0.1427  0.1611  0.3292
75673W        W18586   6.209   0.797  10.235 -0.2560 -0.0790  0.1155
75674W        W18587   6.917  20.151   1.315 -0.0836  0.2968 -0.1826
75675W        W18588  16.792  29.069   9.468 -0.3437  0.0072 -0.0147
75676W        W18589  34.193   8.706   3.669  0.1683  0.0690 -0.0622
75677W        W18590   2.944  15.442   6.250 -0.1922  0.2475 -0.0413
75678W        W18591  30.394  33.745   3.499 -0.1610  0.2282 -0.0951
75679W        W18592   5.147  31.997   9.610  0.2292 -0.0853 -0.0294
75680W        W18593   2.499  33.258   9.570 -0.3464 -0.2980 -0.2906
75681W        W18594  15.670  28.570  26.972  0.1306  0.0424 -0.2311
75682W        W18595  27.232   3.687   8.251  0.0145  0.2897  0.1112
75683W        W18596   2.316  30.057   4.271  0.1880 -0.0610 -0.0867
75684W        W18597   2.619  34.220   8.218  0.0314 -0.0226 -0.0921
75685W        W18598   9.762  27.051  28.575 -0.4495  0.1201 -0.1148
75686W        W18599   3.190  32.083   8.430  0.0203  0.2171  0.1083
75687W        W18600  21.015  23.737   3.898 -0.1624 -0.1910 -0.1636
75688W        W18601  20.082  31.999   4.805  0.1254 -0.2059  0.3397
75689W        W18602   5.692   3.281   8.062 -0.0876  0.0160  0.1423
75690W        W18603   7.493   0.501  12.174 -0.1826 -0.4182 -0.2105
75691W        W18604   4.089  12.349  26.175 -0.3021  0.1763 -0.2386
75692W        W18605   5.673  25.245   1.894  0.0799 -0.5017 -0.1876
75693W        W18606  31.732   0.476   4.086 -0.1099 -0.3738 -0.0609
75694W        W18607   9.788   9.755  22.677  0.0024  0.0882  0.3548
75695W        W18608  10.870   1.185  12.549 -0.0054 -0.0610 -0.1595
75696W        W18609   0.513  13.101   2.303 -0.0406 -0.0334 -0.0270
75697W        W18610  14.525  29.632  10.822  0.0607 -0.0091  0.3003
75698W        W18611   6.823  24.357   8.313  0.1302 -0.0202  0.2949
75699W        W18612   3.991  32.273  28.007 -0.1909 -0.1166  0.2910
75700W        W18613  12.517  27.595   5.451 -0.1874 -0.2238 -0.0364
75701W        W18614  31.518   2.057   0.320 -0.1508 -0.1738  0.0349
75702W        W18615   1.614  28.792   8.876 -0.0693 -0.1794  0.1051
75703W        W18616   8.359  29.660   6.458 -0.3364 -0.2395  0.0449
75704W        W18617  32.163  33.215   4.355  0.0564 -0.0297 -0.1607
75705W        W18618  33.919  29.170   6.132  0.0199 -0.0477  0.3359
75706W        W18619   4.065  29.948  29.699 -0.0853  0.1201 -0.3020
75707W        W18620   1.742   3.297  27.345 -0.2238  0.0546  0.0398
75708W        W18621   5.363  18.764   8.845 -0.3291 -0.1082  0.2115
75709W        W18622  33.923  27.807  23.134 -0.0140 -0.1207 -0.2164
75710W        W18623   9.250  31.128   3.248  0.2953  0.0051  0.0283
75711W        W18624  26.789  29.866   7.268 -0.1301 -0.1250  0.1359
75712W        W18625   6.589   0.111   5.586 -0.2452  0.0096 -0.0347
75713W        W18626   5.353  29.999   7.488  0.2056  0.0118 -0.0737
75714W        W18627  17.307  27.057  23.291  0.0684  0.0702 -0.1916
75715W        W18628   2.781  33.905   7.574 -0.1616  0.1873  0.1132
75716W        W18629  12.388  30.479  28.167 -0.1771  0.2041  0.2326
75717W        W18630  32.376  13.937   1.877 -0.0124 -0.0498 -0.0663
75718W        W18631   7.230   8.362  25.077  0.2906 -0.0516  0.0246
75719W        W18632   0.258   5.961   4.996 -0.0923  0.0027 -0.1948
75720W        W18633  11.412  33.220   7.750 -0.0304 -0.0224  0.4448
75721W        W18634   0.867  23.753   9.605  0.2090 -0.2493  0.0049
75722W        W18635  12.292  29.943  10.285 -0.0254 -0.2747 -0.2325
75723W        W18636   4.091  28.864  26.052 -0.1513 -0.4090  0.3138
75724W        W18637  11.489  33.946  12.229 -0.0636 -0.0051  0.1376
75725W        W18638   9.786  29.446  10.856  0.0951 -0.1646 -0.1753
75726W        W18639  28.881   8.902   8.806  0.1726 -0.1733 -0.0969
75727W        W18640  28.693  18.991   6.660 -0.2871  0.1700  0.0017
75728W        W18641   3.044  30.187   4.856  0.1234  0.2242 -0.2562
75729W        W18642  32.363  32.760   7.371 -0.1691  0.1212  0.0987
75730W        W18643  12.318  30.308  10.635 -0.1224 -0.0362  0.0117
75731W        W18644   1.952   0.074  28.597  0.0605  0.3282  0.3882
75732W        W18645  33.756  22.774   2.089  0.0584  0.0590 -0.1800
75733W        W18646  14.904  32.563   7.821 -0.2249 -0.3800  0.3708
75734W        W18647   7.399  28.794   5.804  0.1777 -0.0046 -0.1305
75735W        W18648  10.286   0.472   8.074  0.0135  0.0659  0.0271
75736W        W18649  31.532  11.116   3.767 -0.1032  0.2531 -0.2673
75737W        W18650  13.373   1.787   9.092  0.3416 -0.1131  0.1189
75738W        W18651   6.906  17.718   6.431 -0.0404  0.1502  0.1583
75739W        W18652  33.259   4.413  11.948  0.0602 -0.1655 -0.2765
75740W        W18653  30.901   7.664   6.838 -0.0895  0.0725  0.1000
75741W        W18654   2.215  32.057   4.977  0.0629 -0.1663 -0.0538
75742W        W18655   5.518   0.764  29.660  0.0761  0.1945  0.0941
75743W        W18656  16.792   6.130   1.407 -0.0851  0.3333  0.2374
75744W        W18657  28.188  34.490  25.730 -0.1752  0.0891 -0.3566
75745W        W18658   2.233  30.318   6.792 -0.1671 -0.2098  0.2914
75746W        W18659  11.064  32.410   5.762  0.0703  0.1456 -0.1715
75747W        W18660   6.423   3.306  11.254  0.2119  0.1528  0.3587
75748W        W18661   2.612   1.197  22.971 -0.1454  0.0129 -0.0753
75749W        W18662  14.790   1.665   5.475 -0.0431 -0.1163 -0.0022
75750W        W18663  29.047   3.828   5.431  0.4331  0.0962  0.0411
75751W        W18664  17.931   2.944   6.479 -0.2505 -0.0721  0.0738
75752W        W18665  34.310  28.913   9.064  0.0679 -0.0659  0.1961
75753W        W18666   4.271  28.369  29.340 -0.0740  0.1936 -0.2951
75754W        W18667   2.393  32.763   9.853 -0.2492 -0.1538 -0.0974
75755W        W18668   7.693   4.163  28.821 -0.0239 -0.2830  0.0859
75756W        W18669   3.201  12.039  10.756 -0.0354  0.0783 -0.0781
75757W        W18670   4.241  10.999   2.776 -0.0470 -0.3194  0.2683
75758W        W18671  11.512  29.822   5.731  0.1211 -0.1649  0.1952
75759W        W18672  32.790  32.645  10.267  0.1107  0.1268  0.0460
75760W        W18673  11.434  32.244   9.276  0.1848  0.2743  0.1543
75761W        W18674   2.914  22.983   0.885  0.0049  0.0320  0.3373
75762W        W18675  33.810   1.153   2.526 -0.3003 -0.3187 -0.0644
75763W        W18676  14.676   7.232  23.237  0.1333 -0.4118  0.3257
75764W        W18677  34.130  27.301   4.746 -0.1180  0.1681  0.3256
75765W        W18678   7.906   1.385   9.701  0.1630  0.0290  0.1394
75766W        W18679  26.729   1.894  26.186 -0.0595 -0.2679 -0.0660
75767W        W18680  33.719  34.143   2.065 -0.2453 -0.5187 -0.0869
75768W        W18681  13.376   6.753   6.034 -0.2987 -0.2084 -0.0105
75769W        W18682   6.438  18.334  24.348  0.1690  0.0104 -0.0168
75770W        W18683  11.132  30.716  29.278 -0.2585 -0.1881  0.2445
75771W        W18684   9.134  22.441   9.556  0.0782  0.3019  0.1457
75772W        W18685   1.824  29.055   0.341 -0.0586 -0.4462 -0.1089
75773W        W18686  13.886  17.135  28.945  0.1548  0.0763  0.0867
75774W        W18687  11.473  19.690  29.692 -0.0239 -0.0101  0.0445
75775W        W18688   1.011  32.583   8.403 -0.1964  0.0383 -0.0931
75776W        W18689  11.736  17.898   3.133 -0.0897  0.1263  0.2305
75777W        W18690   8.407  30.698   7.389  0.1161  0.0897  0.0539
75778W        W18691   3.168   1.148   6.563  0.2821  0.2266 -0.0813
75779W        W18692   3.898  25.662   8.761  0.0307  0.0917 -0.2463
75780W        W18693  16.422  34.077   9.686  0.4811 -0.1337  0.1937
75781W        W18694   3.420  27.746  25.948  0.0861  0.2992  0.0010
75782W        W18695   5.920  26.179   2.329  0.0799  0.0565  0.0392
75783W        W18696   3.844  27.901   2.015  0.0859  0.1345 -0.3993
75784W        W18697  31.025  32.943   8.986  0.2155 -0.2945 -0.0251
75785W        W18698   0.375  27.039   9.366 -0.0002 -0.0264 -0.0050
75786W        W18699  12.879  26.151   4.795 -0.0886  0.2433 -0.1965
75787W        W18700   4.279   1.759   1.277  0.0540 -0.1691  0.1182
75788W        W18701   1.964  19.872   8.833  0.1833 -0.2111 -0.4037
75789W        W18702  14.528  33.835   9.387 -0.1923 -0.4879  0.2836
75790W        W18703   6.475  33.047  11.719  0.3579  0.2483  0.1740
75791W        W18704  23.676  26.130   5.141 -0.2234 -0.2231 -0.3997
75792W        W18705   2.168  34.060   7.939  0.2356  0.3346 -0.3955
75793W        W18706   3.272  33.871   5.813 -0.2999 -0.0283 -0.0271
75794W        W18707   8.214   3.592   5.947 -0.1021  0.0604 -0.2054
75795W        W18708  33.865  28.372   1.223  0.2343 -0.0213 -0.0408
75796W        W18709   6.684  19.165  10.071 -0.0898 -0.1294 -0.1397
75797W        W18710   0.351  30.498   6.667  0.0924 -0.1597 -0.1630
75798W        W18711  15.945  31.849   7.846  0.0119  0.0946 -0.2496
75799W        W18712  10.981  24.529   4.469  0.1417 -0.2356  0.0136
75800W        W18713   1.617   0.551   5.159 -0.0024 -0.0541 -0.0722
75801W        W18714  10.333  32.532  28.212  0.1082 -0.0031  0.1726
75802W        W18715   9.379  34.027   3.999 -0.0680  0.1959 -0.1000
75803W        W18716  33.619  10.857   9.428  0.4100 -0.1310  0.1188
75804W        W18717   3.724  30.228   9.905  0.4518 -0.1798 -0.3801
75805W        W18718  33.788   9.760   6.903  0.1924 -0.1069  0.4508
75806W        W18719   9.327  21.013   3.283  0.2790 -0.2359  0.2099
75807W        W18720   8.027   2.930  11.755 -0.1057  0.4401  0.1734
75808W        W18721   7.193  23.952   2.607 -0.5622  0.1568  0.0671
75809W        W18722   5.149   1.258   2.271 -0.2037 -0.1604 -0.2911
75810W        W18723  26.931   3.812   3.290  0.1624  0.1888 -0.2460
75811W        W18724   8.910  22.525   3.241  0.3497  0.1051 -0.1927
75812W        W18725   8.392   0.973   8.163 -0.0517  0.2329  0.1716
75813W        W18726   3.838  19.816   8.523 -0.0185 -0.0653 -0.0743
75814W        W18727  12.550  28.506   3.825 -0.1744 -0.4191  0.1665
75815W        W18728  17.269   2.673   5.747  0.2543 -0.1847 -0.0813
75816W        W18729  31.059   5.481  10.621  0.4067  0.2989 -0.1944
75817W        W18730  29.762  29.666   3.770 -0.0925  0.1752 -0.0790
75818W        W18731  33.037  33.237  10.425 -0.1929  0.1576 -0.1560
75819W        W18732   7.947  32.597   8.995  0.0526  0.0540  0.1875
75820W        W18733   9.635  11.260   7.073  0.3628  0.1695 -0.4145
75821W        W18734   5.934   3.316  12.871 -0.2311  0.0241  0.0091
75822W        W18735  11.778   2.234   9.935  0.0273  0.2380  0.3255
75823W        W18736   1.150   3.575  27.951  0.3071  0.3421 -0.0039
75824W        W18737  10.164  29.080   1.232  0.0706 -0.1920 -0.0988
75825W        W18738   4.630   6.343   3.523 -0.3693 -0.0143 -0.1244
75826W        W18739   0.527   5.219  23.988  0.0864  0.2682  0.0523
75827W        W18740  34.371  30.593   2.984  0.0091  0.0346 -0.2049
75828W        W18741  11.314   2.084  11.572  0.1120 -0.0173 -0.4105
75829W        W18742  11.466   1.077  11.740  0.2556  0.0392  0.0716
75830W        W18743  31.784  30.553   5.152  0.0675  0.1046  0.0066
75831W        W18744  11.402   6.097   8.607 -0.0408 -0.2383 -0.1812
75832W        W18745  32.510  22.649   5.046 -0.0565  0.0769  0.1907
75833W        W18746   2.448   3.652  10.848  0.0860  0.1357  0.0714
75834W        W18747  30.230  28.576   3.399  0.2815  0.2153  0.0352
75835W        W18748   2.688   0.599  10.027  0.2202 -0.1000 -0.1513
75836W        W18749  34.196   6.730   6.255  0.3478  0.3268 -0.1143
75837W        W18750   6.114  10.186   4.520 -0.2601 -0.0909 -0.1531
75838W        W18751   5.818  29.941   8.095  0.1719  0.2920  0.0502
75839W        W18752  33.106  28.616   2.326 -0.1054  0.0454  0.2159
75840W        W18753   5.142  27.285   9.934  0.2321 -0.0115  0.0944
75841W        W18754   2.740  34.215  27.639  0.3523  0.0810 -0.4036
75842W        W18755   6.787  30.748   3.738 -0.2091 -0.0299 -0.2155
75843W        W18756   2.362  27.427  29.096 -0.3318 -0.0356 -0.0470
75844W        W18757   4.871  13.210  10.247 -0.2156  0.0385  0.0014
75845W        W18758  34.420   4.508   1.594 -0.0823  0.0618 -0.1429
75846W        W18759   6.459  32.989  10.988 -0.0465  0.0688 -0.4997
75847W        W18760   9.589   5.130   8.628  0.2090 -0.1746 -0.1662
75848W        W18761   9.533  22.463   4.946  0.0235  0.0699 -0.0659
75849W        W18762   2.953   1.673   8.704  0.1309 -0.0308 -0.1680
75850W        W18763  29.672  30.511   8.892 -0.3848  0.0035  0.2694
75851W        W18764  30.975  27.860   9.404 -0.1681  0.1438  0.1166
75852W        W18765  13.109   4.757   4.858  0.0104  0.1154 -0.2017
75853W        W18766   2.689   8.379  27.343 -0.3193 -0.3183 -0.0871
75854W        W18767   6.976   2.497   8.168  0.2762 -0.2078 -0.0463
75855W        W18768   6.392   1.784  13.477  0.2607  0.1579 -0.2159
75856W        W18769  11.424   2.763  10.424  0.1940 -0.0555 -0.1746
75857W        W18770   3.661   2.810   9.873  0.0637 -0.0794 -0.3933
75858W        W18771   0.811  27.076   2.919  0.1971  0.3074  0.2826
75859W        W18772   5.496  33.042  28.993 -0.0256  0.1891 -0.0674
75860W        W18773   0.639  27.961   0.956  0.0819  0.3507 -0.0349
75861W        W18774  34.403   0.637   5.072 -0.2712  0.1765  0.0323
75862W        W18775  11.316  32.395  10.706 -0.2174 -0.0916  0.1107
75863W        W18776  30.853   1.609   8.602  0.2986 -0.0231  0.0614
75864W        W18777  34.179   0.537   9.737  0.2026  0.1748  0.0088
75865W        W18778   7.677  26.842  26.286  0.2763  0.2245 -0.1089
75866W        W18779  11.952   8.104   8.647 -0.1285  0.1312 -0.1810
75867W        W18780   2.293  25.937  27.547  0.2296  0.2178 -0.2358
75868W        W18781   5.675   3.037  11.530  0.1091 -0.2212 -0.1592
75869W        W18782   7.415   7.049  12.703 -0.0844 -0.1465 -0.0542
75870W        W18783  34.388  33.176   8.105 -0.0180  0.0337  0.2372
75871W        W18784   5.309   1.377  10.865 -0.0316 -0.1512 -0.0143
75872W        W18785   5.554   0.909   5.317 -0.3892 -0.0039 -0.1496
75873W        W18786   7.416  22.572   4.593 -0.0504  0.0748  0.0658
75874W        W18787   2.869  27.435  10.589  0.3086 -0.0508  0.1006
75875W        W18788   1.407   4.029   1.751  0.1104  0.1394  0.1809
75876W        W18789   6.038   6.655   6.832 -0.1735  0.1505  0.0993
75877W        W18790  34.021  26.081   4.693  0.1193  0.1383 -0.2279
75878W        W18791   1.833  33.247   9.093 -0.2433  0.1195  0.1553
75879W        W18792   6.867  29.066  11.172  0.0154 -0.0476 -0.0744
75880W        W18793  26.738   0.692  10.631 -0.0791  0.1659  0.0244
75881W        W18794   7.606  14.060   4.377 -0.1758 -0.0572  0.0176
75882W        W18795   2.485  28.193  27.253 -0.2444  0.0646  0.1702
75883W        W18796   6.734  29.221  12.132 -0.2007  0.0277 -0.2520
75884W        W18797  32.207   2.554   8.150 -0.0304  0.0723 -0.0720
75885W        W18798   6.803  33.263  24.763 -0.0840 -0.2083 -0.1003
75886W        W18799  12.960   0.464  11.138  0.0585 -0.4405  0.0960
75887W        W18800   2.680   9.759   7.667 -0.1849  0.0756  0.1528
75888W        W18801  10.939  32.424   1.381 -0.1024 -0.1949 -0.0069
75889W        W18802  10.569  23.028   6.218 -0.3677 -0.4128  0.0156
75890W        W18803  33.379  29.055   6.046  0.2421  0.1332  0.2058
75891W        W18804   9.478  12.309   7.070 -0.1525  0.3228 -0.0745
75892W        W18805  14.341  26.459   8.995  0.3041 -0.0419 -0.1387
75893W        W18806  10.548  27.921  10.290  0.0286  0.0254 -0.0217
75894W        W18807   5.289   3.763   8.644 -0.2087  0.3494  0.1594
75895W        W18808   2.609  32.441   9.542  0.0478 -0.0739  0.1457
75896W        W18809  10.951   6.181   8.381  0.1989 -0.0013 -0.0784
75897W        W18810  13.973  14.994   3.694 -0.2521 -0.1151  0.0601
75898W        W18811  11.184  28.902  26.289 -0.1064  0.2833  0.1545
75899W        W18812  31.880  32.872   7.664  0.0230  0.2403  0.0738
75900W        W18813   4.676  33.458   6.997 -0.2452  0.0290 -0.1380
75901W        W18814   9.058  33.289   6.605  0.1926 -0.0972 -0.1876
75902W        W18815  11.328  27.755   2.692 -0.0573 -0.4455 -0.4075
75903W        W18816   9.337  27.252   9.612  0.3300 -0.2909  0.1829
75904W        W18817   7.353   1.520  10.536 -0.2427  0.1334  0.2993
75905W        W18818   6.891  10.624   8.289  0.1604 -0.2648  0.0090
75906W        W18819   1.683  30.772   2.279  0.3262  0.4042 -0.0956
75907W        W18820  10.153  31.133  11.370 -0.1803  0.1999  0.2647
75908W        W18821   9.966  32.827   3.017  0.0870  0.2465  0.1300
75909W        W18822   2.016  34.384   5.399  0.1146  0.2171  0.2422
75910W        W18823   6.012   3.753  10.889 -0.0027  0.2623 -0.1653
75911W        W18824   8.732  32.277   8.801  0.2592  0.1379  0.2045
75912W        W18825  12.538   1.553   9.308 -0.4012  0.1631 -0.1753
75913W        W18826   9.970   0.944   8.637 -0.0412 -0.1584 -0.1238
75914W        W18827  10.467  24.110   9.419  0.3438 -0.0003 -0.0511
75915W        W18828   4.354   1.765   5.298 -0.2389 -0.1760  0.1004
75916W        W18829   8.143   2.560   9.002 -0.3982  0.0612 -0.0234
75917W        W18830   2.005  33.584  25.586  0.0928  0.1631  0.0116
75918W        W18831   3.419  29.242  10.856  0.1013 -0.5674  0.0508
75919W        W18832   7.659  19.500   5.760 -0.0100 -0.1314 -0.0133
75920W        W18833   9.093  27.178   4.717  0.2437  0.0387  0.1727
75921W        W18834   3.496  20.303   1.628  0.2832 -0.0325  0.1504
75922W        W18835   4.928  34.102   4.959 -0.1700 -0.2277  0.2340
75923W        W18836  14.016  27.452  28.273 -0.1918  0.3529  0.1910
75924W        W18837   3.077   1.764   4.357 -0.1639 -0.0416  0.2877
75925W        W18838   3.003  29.489   6.300 -0.0602 -0.1849 -0.0604
75926W        W18839   1.870  30.725   9.280  0.0654  0.1000  0.0401
75927W        W18840   2.798  33.429   8.735 -0.0834 -0.2941 -0.2700
75928W        W18841   0.613  26.348   9.670  0.0957 -0.0783 -0.2168
75929W        W18842   9.250  34.489  11.050 -0.1452 -0.0709 -0.3619
75930W        W18843   6.717   2.815  21.823  0.2967 -0.1437  0.0106
75931W        W18844  10.198  32.056   9.152 -0.0080 -0.2361  0.0127
75932W        W18845   4.609   8.313  11.896  0.0091 -0.0231  0.1155
75933W        W18846   4.804  30.233   3.732 -0.1949  0.1275 -0.1554
75934W        W18847   6.133  26.730   8.138 -0.1551  0.1748  0.0963
75935W        W18848  18.643   4.848   6.698  0.3341  0.2688 -0.0188
75936W        W18849  30.672  28.737   7.604  0.0736  0.1197 -0.0231
75937W        W18850   7.919  28.246  11.390 -0.1226  0.1251 -0.0120
75938W        W18851   2.278  20.491   6.951  0.0623 -0.2300  0.1628
75939W        W18852   1.639  32.671   2.139 -0.2136 -0.1332 -0.1206
75940W        W18853   0.117  32.843   9.343  0.2959  0.0356  0.2261
75941W        W18854   7.446  22.953   8.056 -0.1650  0.1354  0.1223
75942W        W18855   1.445   5.651   5.347 -0.2954  0.1880 -0.0495
75943W        W18856  11.275  29.465   2.698 -0.0778  0.2338  0.1984
75944W        W18857  32.634  32.269  27.653 -0.1034 -0.0001  0.2636
75945W        W18858  33.913  30.122   3.693  0.1988 -0.1239 -0.0886
75946W        W18859  30.131  30.181   9.406 -0.0089  0.2179  0.1234
75947W        W18860   8.972  28.992   9.704  0.1890  0.0645 -0.1221
75948W        W18861   4.762   8.823   4.660 -0.1756 -0.3813 -0.0135
75949W        W18862   6.602   4.247   3.326  0.1121 -0.2173  0.2018
75950W        W18863   8.188  33.050  12.085 -0.1283  0.0379  0.2405
75951W        W18864  17.978   0.574  24.102  0.1437  0.1700  0.1980
75952W        W18865  31.892  24.038  18.021 -0.0980  0.2503  0.2054
75953W        W18866   5.787  29.669   7.527 -0.1638  0.1063 -0.1286
75954W        W18867   6.994  21.831   1.700  0.2682  0.1188  0.2586
75955W        W18868   9.714  33.548   9.603  0.1593 -0.1814 -0.0745
75956W        W18869   1.611  31.127  10.185 -0.0460 -0.0347  0.2326
75957W        W18870  34.464  27.890   9.039  0.0183  0.2310  0.2092
75958W        W18871   0.929   3.593   9.306  0.1496  0.0637 -0.1147
75959W        W18872   8.468  11.572   3.076 -0.2218 -0.0753 -0.1028
75960W        W18873   9.098   8.118  13.184 -0.0534 -0.0065 -0.0819
75961W        W18874   1.978   5.785   3.315  0.0761  0.2086  0.4527
75962W        W18875  12.510  32.683   6.441  0.1610 -0.0472 -0.1630
75963W        W18876   9.933  25.415   9.971 -0.0032  0.2165 -0.3419
75964W        W18877   9.020  29.209   7.002  0.1388  0.0669 -0.1908
75965W        W18878   4.432   1.845   6.576  0.2309  0.0704  0.0357
75966W        W18879  10.115  29.672  22.980 -0.0906 -0.0228 -0.0492
75967W        W18880   2.666  32.568   5.666 -0.0229 -0.0899 -0.1134
75968W        W18881  10.645  28.200   5.805 -0.0839  0.2066 -0.0053
75969W        W18882   9.524  27.149  25.085 -0.1096  0.1516  0.0929
75970W        W18883   4.428  11.686   6.718 -0.2257  0.2237 -0.0838
75971W        W18884  15.333  33.106   5.275 -0.0969 -0.0601  0.0223
75972W        W18885  10.280   2.937   0.444 -0.1128  0.1773 -0.3399
75973W        W18886   8.031  26.423  10.672 -0.0904  0.2880  0.1258
75974W        W18887  33.318  31.069   4.670  0.2357  0.0529 -0.3647
75975W        W18888   9.892   3.868   7.039  0.3423 -0.1811 -0.2338
75976W        W18889   4.260   3.210   8.796 -0.3326  0.0151 -0.1720
75977W        W18890  16.082   0.056   4.475 -0.2394  0.0719  0.1697
75978W        W18891   4.231  34.189  10.984 -0.0551  0.2252  0.1358
75979W        W18892  32.149  29.111   8.294 -0.2651  0.3009 -0.1162
75980W        W18893   2.968  23.069  29.120 -0.0835  0.3972 -0.0948
75981W        W18894  11.816   5.363   6.168  0.0688 -0.2472  0.0683
75982W        W18895   8.669   0.884  29.775  0.1497 -0.0332 -0.1375
75983W        W18896   1.867  34.339   7.666 -0.1079 -0.1822 -0.0622
75984W        W18897   3.240   2.104   3.178 -0.0982  0.6396 -0.3408
75985W        W18898  11.024  21.320   6.693  0.1303  0.1538  0.0599
75986W        W18899  16.523   2.171  28.590  0.2183  0.2702 -0.3948
75987W        W18900  10.370  18.792   8.837  0.0106  0.1820 -0.2857
75988W        W18901  32.980  34.303   7.944  0.0249 -0.0215 -0.1886
75989W        W18902  15.326  33.923   8.345 -0.2629  0.0261 -0.2108
75990W        W18903  11.620  32.634   8.952  0.0172 -0.0629 -0.2880
75991W        W18904   7.739   6.451  29.361  0.1309 -0.3573  0.2819
75992W        W18905   4.653  28.669   9.198  0.1186 -0.0215 -0.3214
75993W        W18906  33.201  33.261   6.661  0.3100  0.0975 -0.2425
75994W        W18907  30.384  28.837   5.246 -0.2072  0.1509 -0.0479
75995W        W18908  34.043  33.021   5.448  0.1559 -0.0443  0.0524
75996W        W18909   1.885  29.985   6.083 -0.1977  0.3232 -0.1523
75997W        W18910  33.920  26.681   7.872 -0.0875  0.1275 -0.0168
75998W        W18911  34.250  20.273   5.358  0.0304 -0.0488 -0.0549
75999W        W18912  29.960  18.476   1.208 -0.1017 -0.0707  0.0205
76000W        W18913   7.837   0.446   9.454 -0.4339  0.1175  0.0296
76001W        W18914  10.343  16.488  23.810  0.1681  0.0980 -0.1289
76002W        W18915  28.919  34.484   8.962  0.1318 -0.1135  0.0169
76003W        W18916  13.587  28.430   9.749 -0.1285  0.2258 -0.1700
76004W        W18917   1.949   4.778  27.714 -0.0241  0.0286 -0.0970
76005W        W18918  10.048  32.804   5.603  0.0896 -0.1214 -0.0398
76006W        W18919   4.551  32.104   6.404 -0.1668  0.0903 -0.2821
76007W        W18920   4.684  27.746  10.017 -0.1861 -0.1590  0.1901
76008W        W18921  10.968   0.028   1.916  0.2880 -0.2653 -0.2234
76009W        W18922   4.322  28.648   8.628  0.1032 -0.4039  0.1910
76010W        W18923   1.240  24.666   2.582  0.2137  0.4315  0.1833
76011W        W18924   8.219  32.655  10.022 -0.2429  0.4443  0.0773
76012W        W18925   9.603   3.050  12.455  0.1827 -0.0763  0.1030
76013W        W18926   6.622   1.359   0.526  0.0475  0.0803 -0.0262
76014W        W18927  20.561  25.684   1.725  0.0412  0.2052  0.0211
76015W        W18928  13.193  31.645   8.234 -0.0358  0.2222 -0.1219
76016W        W18929  31.894  32.839  28.649  0.0896  0.1604 -0.0835
76017W        W18930   5.235  25.229   8.282  0.0899 -0.0083  0.2351
76018W        W18931  32.994  34.386   9.168  0.2116 -0.2047  0.2335
76019W        W18932   8.385  33.896   9.991  0.0250  0.1529 -0.3642
76020W        W18933   1.968   5.506   9.926  0.0897  0.2814  0.0342
76021W        W18934   8.650  23.991   9.600 -0.1260 -0.0508  0.2870
76022W        W18935  11.922  26.425   2.832  0.0682  0.0371  0.1164
76023W        W18936   9.745  30.734   5.252 -0.3609 -0.1530  0.0496
76024W        W18937   3.163   2.599   3.904  0.1383 -0.2644 -0.1385
76025W        W18938   7.859   6.864   6.844 -0.1712  0.1872  0.2374
76026W        W18939  11.527  31.123   4.440 -0.0449  0.1371  0.0938
76027W        W18940  16.228   8.009   5.055 -0.1369  0.0351  0.5054
76028W        W18941   7.396  31.417   3.599 -0.1615 -0.2943 -0.0400
76029W        W18942   2.609  25.208   5.858 -0.1114 -0.1900  0.0274
76030W        W18943  30.237  23.312   5.758 -0.1589 -0.2007  0.0644
76031W        W18944   8.885  30.150   7.168  0.2369 -0.1325  0.4257
76032W        W18945   3.074  28.090   5.500 -0.0839  0.1524  0.0192
76033W        W18946   7.419   1.172   7.725 -0.0558 -0.1550 -0.0517
76034W        W18947   5.139  26.899   3.578  0.0940  0.3525  0.0436
76035W        W18948   5.037  34.317   7.599 -0.0768 -0.3108  0.0947
76036W        W18949  27.773  29.722   7.372  0.0117 -0.2757 -0.1552
76037W        W18950  27.460  32.614  25.553  0.1990 -0.2947 -0.0483
76038W        W18951   7.776   5.640   4.402 -0.0257  0.3881  0.0748
76039W        W18952   3.325  32.271   7.526 -0.2280 -0.0119 -0.0517
76040W        W18953   6.422  26.223   0.532 -0.2143  0.1992 -0.1346
76041W        W18954   7.267   4.820   9.607 -0.2607  0.1525 -0.0829
76042W        W18955   3.225   7.980   1.303  0.4414  0.0995  0.2774
76043W        W18956   8.035   1.570  26.159  0.2524 -0.0188  0.1143
76044W        W18957  12.970   6.175   5.282 -0.3973 -0.1013  0.0524
76045W        W18958  32.814  31.647   7.881 -0.0261 -0.4537 -0.2854
76046W        W18959   5.533  31.596   4.756 -0.2486  0.5802 -0.0349
76047W        W18960  31.889   2.614  29.687  0.1841 -0.0836  0.1484
76048W        W18961   5.778  34.005   4.723  0.0835  0.0253  0.3466
76049W        W18962   5.693  28.685   6.946 -0.2935 -0.2492 -0.0198
76050W        W18963   4.889  34.265   2.953  0.3371  0.2862 -0.2828
76051W        W18964   3.718  28.432  10.425  0.3678  0.1331 -0.0373
76052W        W18965   9.122  15.691   4.364  0.1224 -0.1292  0.0756
76053W        W18966   8.152   2.862  10.795 -0.0401  0.3372 -0.2548
76054W        W18967  33.552  23.863   4.069  0.1383  0.1552 -0.0073
76055W        W18968  14.722  17.584  26.137  0.0947  0.0726 -0.1818
76056W        W18969   0.914  11.987   8.201 -0.1160  0.3799  0.1937
76057W        W18970  11.276  33.979   6.605  0.1310 -0.1507 -0.2204
76058W        W18971  33.462  29.121  22.557  0.0430 -0.6218  0.1900
76059W        W18972   4.737  15.523  25.180  0.0374 -0.0496 -0.1742
76060W        W18973   7.092   1.090   9.351  0.0016  0.2533 -0.0520
76061W        W18974  29.635  25.216   1.619  0.0864  0.0182 -0.2857
76062W        W18975   9.498   4.627  11.482  0.0294  0.0027  0.0144
76063W        W18976   8.672  22.602   4.103  0.1601  0.1100  0.0648
76064W        W18977  32.858  26.339   5.888 -0.1062  0.2292 -0.0355
76065W        W18978   2.203  24.241   1.654  0.1029  0.2204  0.1471
76066W        W18979   6.366  26.011   9.131  0.2491 -0.3851 -0.4077
76067W        W18980   3.396  27.754   9.097 -0.0379  0.1654  0.1733
76068W        W18981   5.078  31.520   5.565 -0.0627 -0.1935 -0.1414
76069W        W18982   2.154  33.928   6.046  0.1249  0.2290  0.2875
76070W        W18983  11.460  31.077  12.349  0.1180  0.0170 -0.0627
76071W        W18984   1.518  26.443   4.867 -0.0573  0.3179 -0.0696
76072W        W18985  14.385   0.425   8.471 -0.2805 -0.0066 -0.0074
76073W        W18986   4.016  32.664   5.237  0.1647  0.2617 -0.0530
76074W        W18987   2.444  25.146   7.453  0.1019  0.3296  0.0203
76075W        W18988   7.164  32.144  10.894  0.3770  0.1596  0.1113
76076W        W18989   8.972  23.908   7.172 -0.0207  0.0147  0.3600
76077W        W18990  34.172  31.832  10.184 -0.4310 -0.0503  0.1980
76078W        W18991  25.366   0.997   8.581 -0.1317 -0.2971 -0.1049
76079W        W18992   7.293  19.400   8.192  0.0210  0.0718 -0.1140
76080W        W18993  30.551  15.902   5.507 -0.0691 -0.2658 -0.1816
76081W        W18994   1.692  23.519   7.235  0.0221 -0.0705 -0.1501
76082W        W18995   2.228  26.969   0.247 -0.0449 -0.2951 -0.0749
76083W        W18996   3.189   2.470   4.484  0.1298  0.1104  0.1841
76084W        W18997  31.066  29.373   7.373  0.1349  0.2578  0.0612
76085W        W18998   5.628  31.858   7.218  0.3756  0.0040  0.0122
76086W        W18999   3.928  30.551   9.120 -0.3028  0.0293 -0.2333
76087W        W19000   8.607  30.454  11.034  0.1327 -0.1306  0.1125
76088W        W19001  10.030  32.865   7.424  0.1076 -0.1753 -0.1131
76089W        W19002   9.599  26.171   8.334 -0.1198 -0.1258  0.0916
76090W        W19003   8.239  31.269  10.530 -0.1460 -0.1177 -0.0992
76091W        W19004  26.293  14.900   5.387 -0.0207  0.3212  0.0006
76092W        W19005   9.961   3.817   5.618  0.2820 -0.2673 -0.0029
76093W        W19006  34.236   7.869   8.392 -0.3987  0.2905  0.0565
76094W        W19007   5.963  31.393   1.516 -0.1497  0.1023  0.4261
76095W        W19008  10.660   4.015  12.798 -0.0072  0.1541 -0.0218
76096W        W19009  15.367  30.931  10.778  0.4453  0.0476 -0.1935
76097W        W19010  10.525   5.525   2.304  0.0166  0.0367 -0.0108
76098W        W19011   3.783   4.389   1.230  0.2207  0.0741  0.1275
76099W        W19012  33.192   5.795  12.206  0.1949 -0.1852 -0.3642
76100W        W19013   2.874   3.537   7.973  0.4646 -0.0560  0.0537
76101W        W19014   9.897   2.943   9.360  0.2807  0.3570 -0.0070
76102W        W19015   4.527   0.460   5.530 -0.4633  0.2494  0.0075
76103W        W19016   6.099  33.796   4.335  0.0466  0.1010 -0.1485
76104W        W19017  13.709  34.182  10.682  0.1474 -0.4045 -0.3113
76105W        W19018  24.942  31.405   6.540  0.0244  0.1093 -0.2421
76106W        W19019   5.140   5.166   4.270  0.2410 -0.1772  0.0370
76107W        W19020   5.221  29.696  28.516  0.4170 -0.1167 -0.1018
76108W        W19021   7.948  32.484   5.634 -0.2133 -0.0509  0.2820
76109W        W19022   6.058  30.221   8.542 -0.3202 -0.1088  0.2292
76110W        W19023   4.096  10.407   3.410  0.2698 -0.0890 -0.2227
76111W        W19024  32.702  22.826   8.595 -0.1030 -0.1413  0.3794
76112W        W19025   3.318  31.824   6.652 -0.1891 -0.1196  0.2623
76113W        W19026   8.921  34.281  10.258 -0.2963  0.1572 -0.1839
76114W        W19027   1.378   4.846  10.370 -0.3095  0.1081  0.1586
76115W        W19028  28.828  29.070  26.088  0.0438  0.2423 -0.6030
76116W        W19029  15.395  32.647   3.062 -0.3252  0.1884 -0.0295
76117W        W19030  15.152   7.920  26.355 -0.0966  0.2931 -0.2390
76118W        W19031   5.701  33.847  26.990 -0.1691  0.2328 -0.2294
76119W        W19032   1.098   5.701   7.004 -0.0999 -0.1104  0.0991
76120W        W19033   2.226   4.260   1.128  0.4934 -0.2602 -0.1522
76121W        W19034  32.497  24.484   0.258  0.3784  0.0434 -0.1342
76122W        W19035  32.584   1.611   5.404 -0.0887 -0.1157 -0.1203
76123W        W19036   5.166  29.198   8.740 -0.4156  0.1361 -0.1001
76124W        W19037   1.342   0.698   7.360 -0.1657 -0.2419  0.1129
76125W        W19038   1.488  29.474   0.552  0.0710  0.1147  0.0277
76126W        W19039  15.106   8.872   1.518 -0.1691 -0.1289 -0.2886
76127W        W19040  17.024   1.401   0.747 -0.3163 -0.2681  0.1612
76128W        W19041  27.631  27.799   5.040 -0.2774  0.0666  0.1681
76129W        W19042   4.633  30.310  11.745  0.0190  0.1987 -0.1325
76130W        W19043   5.055  33.853  23.215 -0.1071  0.1688  0.0155
76131W        W19044   5.250   3.498  26.941  0.1648 -0.1523  0.0314
76132W        W19045   3.535  26.430  27.484 -0.1768  0.0908  0.1494
76133W        W19046   9.613   0.584   1.635 -0.0565  0.3637  0.0323
76134W        W19047  11.640   5.648   8.264  0.1130 -0.1421  0.0512
76135W        W19048   0.626   9.875  11.682 -0.1508  0.3076 -0.0430
76136W        W19049   9.656  29.164   0.816  0.0970  0.1240  0.0175
76137W        W19050  12.223   1.907   0.807  0.2165  0.1751  0.0318
76138W        W19051  14.591  27.367  27.655  0.1751 -0.0227 -0.1237
76139W        W19052   4.775   8.409   1.556 -0.0244 -0.1208  0.0301
76140W        W19053   2.743   7.639   3.614 -0.1417 -0.3395 -0.1886
76141W        W19054   7.269  28.987   8.741  0.3080  0.2093  0.1472
76142W        W19055  32.312  24.861   1.366 -0.1812 -0.0155 -0.2895
76143W        W19056   7.322  33.033   2.024  0.0118  0.1993  0.1023
76144W        W19057   6.932  21.534  28.095 -0.0547 -0.1623  0.2086
76145W        W19058  10.339  10.605   3.140  0.1006 -0.0713 -0.2736
76146W        W19059   4.769   2.287   2.425  0.0535  0.1153  0.2197
76147W        W19060   8.279  31.005  25.406 -0.1868  0.1831 -0.1388
76148W        W19061   3.464  31.766   8.728  0.0286  0.1411 -0.0179
76149W        W19062   5.434  30.347  28.651  0.1869  0.0225  0.3032
76150W        W19063  10.986   2.419  20.682  0.2003  0.1160  0.1644
76151W        W19064   9.117  28.623  20.614  0.4731  0.1179  0.0477
76152W        W19065   4.773  28.527   6.004 -0.2263 -0.2961  0.1115
76153W        W19066   4.601   5.766   5.801  0.2502  0.0935 -0.1685
76154W        W19067   7.837  24.716   6.616  0.2339  0.1643 -0.0939
76155W        W19068  29.236  32.374  18.090 -0.2660 -0.0080 -0.0958
76156W        W19069   8.219  30.701  26.561 -0.0157  0.0923 -0.0526
76157W        W19070  11.189  17.514   4.178 -0.3110 -0.1347  0.0273
76158W        W19071   6.951  28.269  27.690 -0.0450  0.2293 -0.2897
76159W        W19072   6.960  30.512  11.043 -0.0208  0.0704 -0.0766
76160W        W19073  11.629  31.604  21.854  0.0444 -0.0516  0.1129
76161W        W19074   2.792   3.374  22.391  0.0493  0.0564 -0.3076
76162W        W19075   4.934  23.485  27.277  0.0470  0.0619 -0.0095
76163W        W19076   7.374   2.237   9.934 -0.1663  0.1876 -0.1617
76164W        W19077  11.989   8.284   3.766  0.1901  0.0425 -0.1323
76165W        W19078   4.942  25.370  21.548 -0.2725  0.0859 -0.1557
76166W        W19079   6.334  26.469   3.981 -0.0183 -0.0415 -0.0875
76167W        W19080  14.591  30.811  25.707  0.0706  0.1813 -0.1762
76168W        W19081  13.489   9.745  27.381 -0.0353 -0.3435  0.1831
76169W        W19082   0.900  29.998   5.159 -0.0325  0.3395  0.1950
76170W        W19083   5.827  30.616  26.427  0.0457  0.1115 -0.2587
76171W        W19084   1.593   0.134   1.684  0.1609  0.0884 -0.0405
76172W        W19085  25.047  32.283   6.714 -0.3447 -0.0437 -0.0826
76173W        W19086   1.837  11.166  28.737  0.0428  0.1266 -0.2509
76174W        W19087   9.481   5.212  10.068 -0.2326  0.0079  0.2452
76175W        W19088   6.671  32.849   0.878  0.1638  0.0409 -0.1146
76176W        W19089   3.933  18.557  25.489  0.0731  0.2251  0.0743
76177W        W19090  15.478  29.820   7.124 -0.1255 -0.1828 -0.2547
76178W        W19091  33.956   7.318   1.255  0.0788 -0.0599 -0.2918
76179W        W19092  32.912   2.152   5.546  0.1144  0.2538 -0.1330
76180W        W19093   4.859   1.345   0.675  0.3749 -0.0161  0.1238
76181W        W19094   6.659  27.157  29.489 -0.2074 -0.1065 -0.0036
76182W        W19095   5.637   4.614  25.426  0.2075 -0.1459 -0.0513
76183W        W19096   9.372  29.217   9.980  0.0099  0.0872  0.3298
76184W        W19097  14.123  23.135   4.704 -0.0640 -0.0820  0.3343
76185W        W19098  32.066  25.057   3.161  0.1529  0.0458  0.1813
76186W        W19099   5.877   4.174   8.118  0.0143 -0.1419 -0.0797
76187W        W19100  11.530  20.700   0.711  0.1374 -0.2282 -0.1178
76188W        W19101  12.532   0.339   4.353 -0.0286  0.3251  0.2540
76189W        W19102   3.658  32.198   6.065 -0.0100 -0.0486 -0.1680
76190W        W19103   3.332  29.601   2.404  0.1225 -0.0064  0.0715
76191W        W19104  13.975  30.499   3.141  0.1481  0.1755 -0.0181
76192W        W19105   8.117  28.158   2.903 -0.1820  0.2180  0.2081
76193W        W19106  30.759  27.108   2.656 -0.1909 -0.2116 -0.0619
76194W        W19107  32.024  33.077   0.876 -0.0043 -0.4537  0.2778
76195W        W19108  26.039  34.328   6.609 -0.0124  0.4362  0.1823
76196W        W19109   6.993   2.385   4.412  0.0325  0.1288 -0.0791
76197W        W19110   6.464   0.844   7.707  0.0354 -0.0597  0.0553
76198W        W19111   5.321  26.581   0.016  0.0099 -0.0059 -0.0517
76199W        W19112  31.256   0.789  29.464 -0.1771 -0.1083 -0.2351
76200W        W19113   7.261  26.764  11.031  0.1033 -0.0150 -0.1865
76201W        W19114  26.272   5.781   0.510 -0.0623 -0.1420  0.1684
76202W        W19115  33.553  33.202   8.487 -0.1797 -0.1921 -0.3257
76203W        W19116  26.758   5.664   8.663 -0.1019 -0.1400  0.3311
76204W        W19117   4.922   3.027   6.751 -0.1726 -0.0709  0.0580
76205W        W19118   9.696  23.078   1.735 -0.0139 -0.3423  0.0368
76206W        W19119   1.694  20.510   7.616  0.2090  0.1721 -0.1868
76207W        W19120   4.244   2.486   6.840  0.3149  0.2196  0.1129
76208W        W19121   6.941   1.120  11.257  0.3711 -0.0557  0.2935
76209W        W19122  29.233  28.518   5.886  0.0868 -0.2286  0.0729
76210W        W19123  17.379  28.007  22.119 -0.2178  0.2209  0.1726
76211W        W19124   2.681   3.104  19.809 -0.3148  0.0003  0.0189
76212W        W19125   6.427  30.058   7.604 -0.1402  0.1570 -0.1807
76213W        W19126   3.807   5.699  25.906  0.0638 -0.1684  0.0805
76214W        W19127   1.572  32.469   0.403 -0.1261  0.1149 -0.1819
76215W        W19128  30.404  32.609   0.166  0.3028 -0.1451  0.2510
76216W        W19129   9.097   1.189   4.479  0.2796 -0.4477  0.0437
76217W        W19130   7.243   0.421   8.855 -0.5772 -0.0814  0.3055
76218W        W19131   1.892  29.335   9.755 -0.2060  0.1746  0.0083
76219W        W19132   5.695   5.840  12.248 -0.1827 -0.1284  0.1185
76220W        W19133   7.761   3.140   0.122  0.1719  0.0560 -0.1652
76221W        W19134   3.733   3.356  28.494  0.0927 -0.0440  0.1963
76222W        W19135   9.089  33.169  17.283  0.2560 -0.2719 -0.4001
76223W        W19136   5.406   0.366  11.253 -0.4306  0.1121 -0.2430
76224W        W19137  18.460  28.249  21.718  0.1299 -0.2230 -0.0282
76225W        W19138  11.052   9.596   4.373  0.1790  0.2924 -0.0103
76226W        W19139   2.956  33.735   2.940  0.2029 -0.4410  0.0707
76227W        W19140  11.687  25.459  25.950 -0.0940  0.1917 -0.1172
76228W        W19141   1.516   7.898   6.158 -0.2074 -0.0265  0.0801
76229W        W19142  32.478   5.230  10.445  0.0995  0.1338  0.0298
76230W        W19143   8.121  30.829   6.253  0.0175 -0.1127 -0.0267
76231W        W19144   3.512  28.876  28.081  0.0894 -0.2132  0.2413
76232W        W19145  34.110  30.966   2.823 -0.2530  0.1127 -0.0162
76233W        W19146  14.748  11.611  23.448 -0.1897  0.0722  0.1272
76234W        W19147   9.929   4.536  12.011 -0.0667  0.2442 -0.1524
76235W        W19148  10.262  26.891  20.174 -0.1182 -0.0273  0.2403
76236W        W19149   2.141  26.836  21.790  0.2778 -0.0227 -0.4345
76237W        W19150  33.492   1.104   6.253  0.1743  0.1958  0.1983
76238W        W19151   4.233   0.356  29.744  0.0247  0.0173  0.1069
76239W        W19152   0.186   0.546   0.492  0.1963 -0.1770 -0.1045
76240W        W19153   0.231  31.686  29.225  0.1871 -0.0963  0.3428
76241W        W19154   8.041   9.533  29.495  0.2049 -0.2071 -0.1242
76242W        W19155  11.479  18.057  25.682 -0.1377 -0.1349 -0.3348
76243W        W19156  10.680   0.951   3.545  0.1198 -0.2473 -0.0063
76244W        W19157   7.470   7.325  24.757 -0.0130 -0.1611  0.2722
76245W        W19158   5.651  10.335   2.004 -0.1282  0.1232  0.0615
76246W        W19159   9.335   7.000  26.287  0.0547 -0.1911  0.1443
76247W        W19160   1.923  26.082   2.194 -0.1299 -0.2029  0.2767
76248W        W19161   9.615   1.051   9.651  0.3698  0.1865 -0.2176
76249W        W19162   8.805  33.974  26.990  0.0570 -0.0797  0.1443
76250W        W19163   0.908  29.547  28.476 -0.1135 -0.0709 -0.1943
76251W        W19164   6.340  14.138  28.491 -0.1058  0.2169  0.1103
76252W        W19165  13.417   0.821  11.304 -0.0645 -0.0179  0.1577
76253W        W19166  13.645   2.497   7.165  0.1751  0.1780  0.1143
76254W        W19167  14.144   6.961   5.098  0.1677  0.2973 -0.1778
76255W        W19168  30.841  22.854  24.268  0.0167 -0.2381  0.2506
76256W        W19169   6.078   4.589   7.054 -0.5945 -0.1929  0.2102
76257W        W19170  11.961  28.723   5.627 -0.2133  0.0397  0.1960
76258W        W19171   2.525   0.646   6.658  0.1462  0.1534  0.0165
76259W        W19172   5.908   6.220   5.158 -0.1185 -0.1073 -0.1624
76260W        W19173  23.185  33.072  22.914  0.1855  0.2149  0.0624
76261W        W19174   2.096  17.455  25.253  0.0403  0.2014  0.0867
76262W        W19175   7.078  31.116   2.119 -0.3175 -0.0575 -0.3399
76263W        W19176  12.413  33.800  27.267  0.1429  0.0766  0.0836
76264W        W19177   3.569  26.646  23.328 -0.1806  0.1077  0.0830
76265W        W19178   9.569  28.149  10.786  0.0909  0.0716 -0.3710
76266W        W19179   9.847  32.790  26.880  0.0371  0.0608  0.1218
76267W        W19180   2.217   6.195  23.856 -0.1088 -0.1924  0.1222
76268W        W19181   2.383   5.336   1.763 -0.3108  0.0524 -0.1852
76269W        W19182  31.247  31.403   0.199  0.0088 -0.0284  0.1318
76270W        W19183   5.906  29.575  23.559 -0.2290 -0.3100 -0.2064
76271W        W19184   8.400   2.297   1.481  0.0348  0.2231  0.0853
76272W        W19185  10.616  27.756   7.545  0.2199 -0.0351 -0.1520
76273W        W19186  29.400   5.574   9.135 -0.2682 -0.0939  0.0370
76274W        W19187   1.887   3.690   5.415 -0.0852  0.1136  0.0692
76275W        W19188   0.996  30.535   3.993 -0.0203  0.1671  0.0425
76276W        W19189   0.987  34.370   5.473 -0.2023 -0.1209  0.0165
76277W        W19190  10.128   4.351   4.756 -0.1752  0.0523 -0.1087
76278W        W19191   9.075   0.778   0.259 -0.0109 -0.2331 -0.1055
76279W        W19192   5.397   7.602   4.761  0.0577  0.1621 -0.0280
76280W        W19193   7.995  27.946  28.089  0.0365 -0.0293  0.0343
76281W        W19194   6.755   3.401   1.144 -0.1156 -0.0633  0.0448
76282W        W19195  30.839  33.390   6.354  0.0532 -0.0128  0.1027
76283W        W19196  13.470  32.041   7.083 -0.0530  0.2384 -0.0697
76284W        W19197   5.062   2.672   2.582 -0.1255 -0.1909 -0.0793
76285W        W19198   8.206  25.931   4.002  0.0535  0.1729  0.1925
76286W        W19199  10.565  29.131   0.886 -0.0717  0.2152  0.0405
76287W        W19200   1.879  30.570   8.458 -0.0085  0.0605  0.3808
76288W        W19201   8.109   2.052   5.045  0.2911 -0.1791  0.0294
76289W        W19202   9.182  26.235  27.503 -0.3884  0.0683 -0.0387
76290W        W19203  20.702   3.863  27.166  0.4374  0.1939 -0.0425
76291W        W19204   8.836   1.734  17.851 -0.2789  0.3575  0.3565
76292W        W19205  31.400   5.428   0.988 -0.0297  0.4390 -0.1902
76293W        W19206   4.497  29.835  11.530  0.0951 -0.0445 -0.0543
76294W        W19207   7.174  10.485   2.247  0.2434  0.1477 -0.0392
76295W        W19208   6.759  22.016   8.667  0.0486 -0.0991 -0.0100
76296W        W19209  13.392  20.936  22.367  0.3155  0.0906 -0.0042
76297W        W19210  19.712   6.991   5.492 -0.0119  0.0960  0.1812
76298W        W19211   3.276   1.678   5.495 -0.3523  0.4557 -0.1820
76299W        W19212   6.353   0.451  11.135  0.0327 -0.0932  0.1443
76300W        W19213   4.054  13.607   0.363 -0.1354 -0.1765 -0.3766
76301W        W19214   8.188  23.348  28.275  0.1505 -0.0193  0.0217
76302W        W19215   1.483   9.866   9.664 -0.4712  0.0115  0.3005
76303W        W19216   1.666  12.620   6.711 -0.1311 -0.1907 -0.2148
76304W        W19217   2.833   5.379  27.442 -0.2773 -0.2480  0.0538
76305W        W19218  13.309  31.342   4.045  0.2301 -0.3486 -0.1702
76306W        W19219   4.822   2.407  22.746 -0.1537  0.0808 -0.0913
76307W        W19220   9.495   0.233  22.177 -0.0752  0.2416 -0.2292
76308W        W19221  13.337   2.891   8.925 -0.0945 -0.1645 -0.0250
76309W        W19222   4.114  31.380   0.528 -0.2943 -0.1796 -0.0253
76310W        W19223  31.716   5.982   6.583 -0.1959 -0.4670 -0.0679
76311W        W19224   1.146   1.996  18.246 -0.3478  0.1217  0.0764
76312W        W19225   7.307   4.415  12.645  0.1573  0.1370 -0.1878
76313W        W19226   1.639  12.882  20.974  0.0444  0.0512  0.1044
76314W        W19227  33.237   4.011  26.553 -0.1287  0.0413 -0.0602
76315W        W19228   6.868  22.717   4.140  0.3452  0.0093  0.4757
76316W        W19229  10.528  31.964   0.724 -0.1970 -0.1219  0.0372
76317W        W19230  33.048   0.500   2.419 -0.0861  0.2765  0.0957
76318W        W19231   2.326   3.226   8.954  0.2282 -0.0090 -0.0007
76319W        W19232   5.699   0.714  28.649 -0.2051  0.2500  0.0674
76320W        W19233   4.333   2.302   5.405 -0.0062  0.3950 -0.0558
76321W        W19234  20.816  34.253  27.130  0.0087 -0.1426 -0.0164
76322W        W19235  10.354  33.962  28.135 -0.0861 -0.0967  0.2486
76323W        W19236   3.622   0.884  11.517  0.1196  0.2476 -0.2796
76324W        W19237   0.731   0.946   1.767 -0.0521 -0.1988 -0.2314
76325W        W19238  11.222   4.905   2.264  0.0215  0.1530 -0.2834
76326W        W19239   7.000  33.435   4.927  0.1872 -0.0570  0.2610
76327W        W19240  10.277  31.364   8.579  0.1840 -0.1326 -0.0950
76328W        W19241   5.993  27.072   8.848 -0.3346 -0.3157  0.1042
76329W        W19242   5.381   2.918   9.577 -0.0429 -0.0467  0.0909
76330W        W19243  31.362  32.890   1.967 -0.0574  0.0494 -0.4019
76331W        W19244   5.266  32.943  29.608 -0.0094  0.0322  0.1343
76332W        W19245  13.151   4.299  10.404 -0.1452  0.0172 -0.2073
76333W        W19246   2.144  32.683  29.400 -0.0184 -0.1845  0.3602
76334W        W19247   1.224  25.734  28.172  0.2758 -0.3597  0.0358
76335W        W19248  32.129  34.069   7.449 -0.0446 -0.0668  0.1528
76336W        W19249   7.554  30.060  10.550  0.3342 -0.2620  0.0088
76337W        W19250   1.726   0.712  29.323  0.1235 -0.1548  0.0642
76338W        W19251   5.850  27.089  10.623 -0.2019 -0.1360 -0.1270
76339W        W19252   3.112  10.149   8.196  0.1109 -0.1591 -0.1183
76340W        W19253   5.755  31.487  11.064  0.3418 -0.3518  0.0593
76341W        W19254   3.703  24.788  29.148  0.0300 -0.1567 -0.1302
76342W        W19255  34.339   8.615   7.989  0.0801  0.1535  0.2971
76343W        W19256  13.630  31.254   1.205  0.0830  0.0537  0.1242
76344W        W19257   7.533  31.860   9.693 -0.2213 -0.2514  0.0429
76345W        W19258   1.281   3.436  12.614 -0.2568 -0.0978  0.0397
76346W        W19259  22.164  23.866   0.061  0.0401 -0.3542 -0.3102
76347W        W19260   4.150   0.393   3.554 -0.0872  0.1913 -0.1307
76348W        W19261   1.976   8.760   7.690  0.2967 -0.0674 -0.2123
76349W        W19262   6.017  29.146  29.239 -0.0761  0.1096  0.0364
76350W        W19263   0.487  32.396   1.710 -0.1525 -0.0114  0.1202
76351W        W19264  16.649  18.121   5.204  0.2927 -0.0316  0.1274
76352W        W19265   1.771  22.751   3.606 -0.0163 -0.0171  0.2241
76353W        W19266  33.143   6.244   3.125 -0.0155 -0.3617 -0.0224
76354W        W19267  11.859   3.716  24.611  0.0042 -0.1235 -0.0927
76355W        W19268   5.967  24.928  26.802  0.1493  0.1387  0.2761
76356W        W19269  19.866  33.583   8.006  0.3337 -0.0606  0.2497
76357W        W19270  13.161  11.936  28.134 -0.2132 -0.0104  0.3407
76358W        W19271   1.782   7.228   5.586 -0.0495  0.1303  0.3171
76359W        W19272  11.243  28.888   4.385  0.0946  0.0383  0.2358
76360W        W19273   6.337   1.456   1.823 -0.2755 -0.2410  0.1001
76361W        W19274   6.490   6.005   6.647 -0.1188  0.2315  0.2862
76362W        W19275   8.610  24.423   9.842  0.1429 -0.0228 -0.1182
76363W        W19276   9.203   2.422   2.325 -0.3014  0.3378  0.2156
76364W        W19277   7.584  26.629  10.388  0.1386  0.2362 -0.0761
76365W        W19278  30.589  28.985   5.780  0.2207  0.2671  0.1662
76366W        W19279   3.316  29.375  27.965 -0.0833 -0.2506 -0.3321
76367W        W19280  29.808   4.046   3.254 -0.0745  0.0403 -0.2733
76368W        W19281  15.710  22.961   1.966  0.2410  0.0333 -0.2986
76369W        W19282  34.103  33.927   3.297 -0.3680  0.1181 -0.2541
76370W        W19283  16.505   4.335   3.445  0.2311 -0.0624  0.0513
76371W        W19284   4.071  28.438   3.240 -0.2694 -0.2248 -0.1858
76372W        W19285  33.246  30.884   3.545 -0.1977  0.0241 -0.2458
76373W        W19286   6.240   5.283  13.253 -0.0583 -0.1470  0.0446
76374W        W19287  10.960  22.049  27.076  0.3534  0.1291  0.0091
76375W        W19288   2.509  21.161  28.553 -0.2618 -0.0894  0.0503
76376W        W19289   4.505   7.391  11.470  0.4773 -0.0578 -0.0289
76377W        W19290  22.949  25.557   1.514 -0.2909 -0.0575  0.1475
76378W        W19291   5.706   1.761  28.059  0.2447 -0.1045 -0.1587
76379W        W19292   0.881  34.075   7.646 -0.0846  0.0355 -0.0459
76380W        W19293  12.029  29.754  26.732 -0.0542 -0.3736  0.1813
76381W        W19294   7.364  31.062   6.572  0.0324  0.4941  0.0931
76382W        W19295  10.915  32.017   5.470  0.1267 -0.3090  0.2010
76383W        W19296   6.809   2.832   6.499  0.1426 -0.0386  0.0538
76384W        W19297   8.136   6.780  26.184  0.0334  0.0067 -0.0230
76385W        W19298   6.961  27.868   9.293  0.0202 -0.0867  0.0766
76386W        W19299   1.607  28.464   6.724  0.0360 -0.1236 -0.0317
76387W        W19300   8.757  31.892   7.290 -0.0294  0.5881  0.2894
76388W        W19301   5.876   1.041   9.999 -0.0754  0.0666 -0.1059
76389W        W19302  16.082  31.404  25.126 -0.2849 -0.2323  0.1344
76390W        W19303   1.390  33.977  26.633  0.2474 -0.2517  0.0643
76391W        W19304  14.697   1.911   9.920 -0.1405  0.0156  0.1158
76392W        W19305   8.388   9.275   6.211  0.3222 -0.2317 -0.0598
76393W        W19306   9.239   1.138   7.242  0.0710 -0.0683  0.2997
76394W        W19307  33.907   9.709   7.402  0.0468 -0.4120  0.1042
76395W        W19308  14.823  29.024   6.946  0.4913  0.2358  0.1081
76396W        W19309   4.254  30.906   6.863  0.5008 -0.1057 -0.0129
76397W        W19310   5.368  23.484   1.815  0.0816 -0.2377 -0.0872
76398W        W19311  13.846  28.471   7.745 -0.1753  0.0185 -0.2288
76399W        W19312   5.282  31.140   4.636  0.1322  0.1490 -0.0151
76400W        W19313   7.524  27.645   0.829  0.2726 -0.0371 -0.0140
76401W        W19314   5.064  27.235   6.119  0.2239  0.0089  0.1212
76402W        W19315   4.740  15.088   4.311  0.1891 -0.1722 -0.1097
76403W        W19316   6.857  33.894   4.991 -0.2164 -0.0409 -0.1619
76404W        W19317  29.323   1.300   7.328 -0.1479 -0.0102 -0.2057
76405W        W19318  11.309  24.276   9.738  0.2233  0.1909 -0.1024
76406W        W19319  10.501  24.432   1.299 -0.0903 -0.0581  0.3033
76407W        W19320   2.325   0.332   5.611  0.1376 -0.1031 -0.0525
76408W        W19321   5.967   2.609  26.522  0.0943 -0.3336 -0.0052
76409W        W19322   4.545  34.385  29.424 -0.2000 -0.3097 -0.4996
76410W        W19323   5.548   9.287  28.501 -0.0906 -0.0796  0.2777
76411W        W19324  23.073   3.077   4.246  0.0823  0.5193  0.2083
76412W        W19325  11.533  33.782   4.958  0.1681 -0.1002  0.3485
76413W        W19326  10.343   1.077  11.673 -0.1594  0.3259 -0.0512
76414W        W19327   5.587  27.402  28.939 -0.3114  0.1516 -0.0270
76415W        W19328   0.625   2.255   6.253 -0.2024 -0.0904 -0.3147
76416W        W19329   2.222  32.330  21.682  0.1015  0.2463  0.3688
76417W        W19330   5.697  30.438  28.220  0.1900  0.1136 -0.1795
76418W        W19331  29.113   1.613  24.772  0.3183 -0.1885 -0.1831
76419W        W19332   3.243  25.281   3.646  0.0145  0.2261 -0.3441
76420W        W19333  11.512   2.518   5.707 -0.2416  0.2843 -0.2679
76421W        W19334   8.396  28.093  11.203  0.0133 -0.0566  0.0336
76422W        W19335  10.151  33.444   9.766 -0.1573 -0.1163  0.0215
76423W        W19336   8.344  30.908   8.649  0.0073 -0.1179  0.2365
76424W        W19337  34.427  30.369   7.022 -0.0623 -0.0947 -0.2091
76425W        W19338   6.760   7.758   6.654  0.1217  0.4906 -0.0414
76426W        W19339   6.199   5.613  11.919  0.3599 -0.3104 -0.2723
76427W        W19340  16.783  27.945   8.113  0.0819  0.2652 -0.1598
76428W        W19341   2.386   2.089  29.685  0.1474 -0.0730  0.0163
76429W        W19342   9.050   8.493  11.978 -0.1658 -0.0619  0.1470
76430W        W19343   8.719  31.093  12.534  0.0239 -0.1477  0.0363
76431W        W19344   4.824  16.384   2.850  0.0078 -0.3586 -0.1045
76432W        W19345  12.799   1.301  28.914 -0.1083  0.1357 -0.1645
76433W        W19346   7.748  32.659  10.419 -0.0213 -0.0645 -0.2250
76434W        W19347  27.495   3.986   1.026  0.1533  0.0627  0.1328
76435W        W19348   7.538   1.312  26.054  0.2314  0.0022  0.0287
76436W        W19349  10.968  34.209   6.235  0.0914  0.0573  0.1558
76437W        W19350   7.672  29.695   9.989 -0.0582 -0.3222  0.0479
76438W        W19351  11.508  31.884  29.608  0.2652  0.0741  0.2446
76439W        W19352   9.027  24.372   1.136  0.0513 -0.3721  0.0040
76440W        W19353   4.059  34.318   4.313 -0.0202  0.1175  0.0382
76441W        W19354  19.079   2.180   2.547 -0.0781 -0.2756 -0.1358
76442W        W19355   4.060  33.519   4.991  0.0851  0.2631  0.3509
76443W        W19356  10.176  24.413   1.848  0.1538 -0.2580 -0.0342
76444W        W19357  16.307  29.293  11.219  0.0372 -0.1767 -0.1991
76445W        W19358  10.860  26.788   5.215 -0.0544 -0.2864 -0.2527
76446W        W19359   6.231   1.934  11.915 -0.0779  0.5542 -0.3023
76447W        W19360  33.569   7.324  10.831  0.1453 -0.0772  0.1256
76448W        W19361  19.438   8.091  24.340  0.1901  0.0482  0.0102
76449W        W19362  32.431  30.437   8.023 -0.1746 -0.2291  0.5783
76450W        W19363   4.661   0.073  27.374  0.4187  0.0047  0.0088
76451W        W19364   9.979   4.930  10.608 -0.3312 -0.0312  0.2414
76452W        W19365  20.611   5.387   7.616 -0.1751 -0.2436 -0.0736
76453W        W19366  17.549  26.588   2.980 -0.3234 -0.0314 -0.0358
76454W        W19367  21.539   3.971   5.072 -0.1416  0.0640 -0.1453
76455W        W19368   7.965   6.499  12.039 -0.0831 -0.0258  0.0767
76456W        W19369   5.768   0.323  11.699 -0.2471  0.0518 -0.1827
76457W        W19370   7.561   0.641  13.119 -0.1182 -0.0055  0.1132
76458W        W19371   8.398  29.388   3.234 -0.0877  0.3031 -0.0997
76459W        W19372  33.667   4.562   7.057 -0.2239 -0.0183 -0.2629
76460W        W19373  11.832  33.446  12.201  0.0349  0.3855  0.0811
76461W        W19374  13.025  21.520  27.836 -0.1741  0.3014 -0.0259
76462W        W19375  16.751   4.960   8.834  0.0386 -0.0532 -0.0591
76463W        W19376   7.792   3.717  26.816 -0.1732  0.1024  0.2092
76464W        W19377   3.035  10.108   5.018 -0.0205 -0.3538 -0.1212
76465W        W19378   8.437   4.714  27.457 -0.1226  0.0095  0.0786
76466W        W19379   6.745  31.636  11.373 -0.0617 -0.2012 -0.2640
76467W        W19380  33.659  33.977   2.811 -0.0266 -0.1582 -0.0585
76468W        W19381   5.107   2.364   4.174 -0.1925  0.2130  0.2577
76469W        W19382   2.136  32.921   9.429 -0.0304  0.2671 -0.0588
76470W        W19383  33.457   4.979   4.992 -0.2096 -0.1389  0.1394
76471W        W19384  31.258  26.276   8.671  0.1958  0.2205  0.0234
76472W        W19385   8.698  30.126   8.351 -0.1925 -0.0302 -0.0814
76473W        W19386  34.235   2.834   2.392  0.1728  0.0294 -0.0133
76474W        W19387  11.660   4.735   6.790 -0.0950  0.0021  0.0700
76475W        W19388   8.570  20.728   6.517 -0.1356 -0.3163  0.0263
76476W        W19389  31.139   0.096   8.075 -0.3833  0.3677  0.2028
76477W        W19390   3.330  16.488   1.125 -0.2680 -0.0656  0.3562
76478W        W19391   1.223  26.853   9.711 -0.3087  0.2323 -0.1417
76479W        W19392  14.627   4.150   4.418  0.1354  0.2090  0.0715
76480W        W19393  16.281  32.855  28.123  0.1102 -0.0754  0.0134
76481W        W19394   7.023   4.348  29.311  0.0458  0.1936 -0.0288
76482W        W19395   5.874   2.626   5.134 -0.1574  0.2878 -0.1101
76483W        W19396   5.593  22.417  10.011 -0.4125  0.1539  0.2440
76484W        W19397   5.377   2.254   8.144  0.0174  0.1221  0.0389
76485W        W19398   4.403   8.838   2.262 -0.1742 -0.3021 -0.0442
76486W        W19399   1.740  27.316   8.457  0.0755  0.2990  0.3178
76487W        W19400   1.559   2.686   6.369 -0.1123  0.2062 -0.1952
76488W        W19401  33.529   0.653   8.902 -0.0549  0.0280  0.1806
76489W        W19402  30.026  33.023   6.867  0.2464 -0.2514 -0.1601
76490W        W19403   2.364  32.207  20.739 -0.2479  0.2083  0.0568
76491W        W19404   9.314   6.058   7.589  0.2965 -0.1830 -0.1034
76492W        W19405  12.973   6.853   3.867  0.0500  0.0426 -0.2424
76493W        W19406  33.572  34.366   7.118 -0.1334  0.1883 -0.0467
76494W        W19407  10.086  26.592   2.118 -0.0346  0.2640 -0.0696
76495W        W19408   5.026   8.057  11.813 -0.0322 -0.2670 -0.1038
76496W        W19409   4.903   1.698  12.804 -0.0902  0.1166  0.0436
76497W        W19410  11.299   2.599   4.796 -0.4250  0.2334  0.0955
76498W        W19411   6.210   1.194   8.514 -0.2633  0.0693 -0.0682
76499W        W19412  19.669   4.108   0.526 -0.2364 -0.0142  0.0300
76500W        W19413   6.421   5.404   5.386  0.1491  0.2175 -0.4843
76501W        W19414   2.736   2.455   9.475  0.1619 -0.0924  0.1276
76502W        W19415  10.055  31.366   5.756 -0.0591  0.1446  0.2337
76503W        W19416   6.778  31.206  29.399  0.4114  0.0279  0.0373
76504W        W19417   7.464  19.330   7.304  0.0108  0.0782  0.0902
76505W        W19418   0.768  10.648   8.347 -0.4067  0.0134 -0.2216
76506W        W19419   8.450  14.311   7.659  0.0098 -0.0327  0.1790
76507W        W19420   6.009   1.841   4.382 -0.0497 -0.0031 -0.0946
76508W        W19421   1.758  31.788   6.684  0.0754  0.0387 -0.2522
76509W        W19422  11.543  25.784  29.463  0.0883  0.1094  0.2056
76510W        W19423   6.847   6.088   7.521  0.2336 -0.0223 -0.2631
76511W        W19424   8.287  27.508  10.851  0.3502  0.0061 -0.2582
76512W        W19425   9.460  33.768   9.981 -0.0113 -0.2336  0.0623
76513W        W19426   3.452  34.371  29.115 -0.4702 -0.0649  0.2926
76514W        W19427  17.828   4.009   7.539  0.0472 -0.0763  0.0681
76515W        W19428  31.795  26.761   5.867  0.0137  0.1277  0.1394
76516W        W19429  28.253   5.660   0.230 -0.1063 -0.0880  0.1275
76517W        W19430   9.461   9.816  21.655  0.3143  0.0649  0.0639
76518W        W19431  31.470  34.209   8.062 -0.1368 -0.0206 -0.0613
76519W        W19432  15.193   3.516   1.842  0.0740 -0.0531 -0.0147
76520W        W19433   2.789   2.421   6.051 -0.0175 -0.0544  0.3511
76521W        W19434   2.845   1.426  11.111  0.2558  0.0398  0.1504
76522W        W19435   3.531  26.781   5.709  0.1965 -0.1896  0.0407
76523W        W19436  14.304  34.486  11.758 -0.3295 -0.2396  0.2581
76524W        W19437   8.221  33.948   4.260  0.2333 -0.0433  0.1974
76525W        W19438   5.743   7.355   4.360 -0.4355 -0.0478  0.2052
76526W        W19439   1.962  30.767  10.238 -0.1799 -0.1524  0.2959
76527W        W19440  34.061  25.861   9.331  0.1464 -0.2681  0.1589
76528W        W19441   3.362   6.372  26.798 -0.0021  0.0186  0.0241
76529W        W19442  24.199   7.708   5.488 -0.0826 -0.0913 -0.2362
76530W        W19443   6.167   0.768   5.525 -0.0708 -0.0646 -0.1103
76531W        W19444   5.559  33.439   3.537 -0.1460  0.1896 -0.0299
76532W        W19445   7.333   2.887   7.605 -0.1946  0.0683  0.2051
76533W        W19446   3.263  30.858   9.600  0.2289 -0.0718 -0.0315
76534W        W19447  30.449  22.278   7.307 -0.0898  0.1536  0.1452
76535W        W19448  16.493   7.261  29.257 -0.2684  0.1091  0.3082
76536W        W19449   3.555  33.787   3.305  0.0925 -0.2805  0.1964
76537W        W19450   6.222  32.153  12.069  0.4782 -0.1741  0.1799
76538W        W19451  11.000  24.621  23.138 -0.1199  0.1339 -0.0805
76539W        W19452  28.229  32.034   2.698 -0.0853 -0.0112  0.1641
76540W        W19453   0.059   9.244  26.775 -0.2766  0.3270  0.0456
76541W        W19454  14.441   0.095   7.105  0.0100 -0.0499 -0.1834
76542W        W19455   1.655   2.272   5.749 -0.1568 -0.1573  0.0382
76543W        W19456   7.966  28.517   4.270  0.2304  0.2248  0.0510
76544W        W19457  28.752  33.187  28.949 -0.0406 -0.1977 -0.2540
76545W        W19458   8.784  33.408   7.689  0.0094  0.0535  0.1081
76546W        W19459   5.356   0.824  28.308  0.0414  0.1170  0.3529
76547W        W19460  15.928  28.815  27.910  0.5168  0.2063 -0.0564
76548W        W19461   4.145   3.499   8.155 -0.2506 -0.1683  0.4769
76549W        W19462   2.795   0.774  26.359 -0.1219  0.0868  0.0850
76550W        W19463   2.784   0.800   9.623 -0.3545  0.0003  0.0343
76551W        W19464   6.379   1.692  12.919  0.1288 -0.0660  0.0438
76552W        W19465  11.249   5.173  11.688  0.3282 -0.3679  0.1459
76553W        W19466   0.608  33.158   5.453  0.1753 -0.1075 -0.1366
76554W        W19467  14.595   0.608   8.008 -0.3089 -0.0292  0.1329
76555W        W19468  31.136  32.162   8.138 -0.2309 -0.0288  0.2024
76556W        W19469   4.998  29.236  11.640 -0.0904 -0.2808 -0.6015
76557W        W19470   0.027  30.156   7.512  0.0971  0.0620 -0.0149
76558W        W19471   5.194   2.556  12.771  0.2943 -0.3411  0.1111
76559W        W19472   6.237   1.407  12.123 -0.2635 -0.0416  0.0967
76560W        W19473  29.019  13.890  28.293  0.4312 -0.0356 -0.0882
76561W        W19474  14.398   6.012   4.737  0.1686 -0.0025 -0.2997
76562W        W19475   6.976  32.434  19.300  0.1385 -0.0695 -0.2280
76563W        W19476   7.531   2.885   1.251  0.2141  0.1310  0.0491
76564W        W19477  10.218   2.931   3.170  0.3817  0.1824  0.1720
76565W        W19478  17.360  13.501  29.004  0.0000 -0.2035 -0.1587
76566W        W19479   6.050   0.125   7.555 -0.0888  0.0483 -0.1071
76567W        W19480   7.211  33.242   6.346  0.4009 -0.1235  0.0155
76568W        W19481   7.192   6.638   8.250  0.0089 -0.0315 -0.2571
76569W        W19482  34.403   6.533   4.667 -0.0200  0.4045 -0.0833
76570W        W19483   4.232  34.121   3.489  0.0286 -0.1130 -0.1903
76571W        W19484   9.684  10.973   5.631  0.0594 -0.1380 -0.0997
76572W        W19485   2.507  17.338   7.523 -0.2025  0.0158 -0.2469
76573W        W19486  32.694   6.356   9.094  0.0890  0.2690  0.0164
76574W        W19487  32.455  29.292  28.518 -0.3068  0.2770  0.1532
76575W        W19488   4.632  30.282   5.241 -0.2333  0.0690  0.0473
76576W        W19489   5.478   2.016  25.797  0.0905 -0.3596 -0.1291
76577W        W19490   8.974   7.338  12.613 -0.0952 -0.0018 -0.2703
76578W        W19491  34.286   5.488   3.091 -0.2904  0.2939 -0.3403
76579W        W19492  14.733   3.591  11.553 -0.0715 -0.0772  0.1044
76580W        W19493  14.434  24.405  26.391 -0.2505 -0.0382 -0.0976
76581W        W19494   5.250  27.213  10.879 -0.0906 -0.0690 -0.0751
76582W        W19495   5.128   0.384   9.826 -0.4189 -0.1090 -0.2290
76583W        W19496   5.419  29.590  11.821 -0.0224  0.0402 -0.2506
76584W        W19497   8.498   9.944   6.348 -0.1556  0.0389 -0.4493
76585W        W19498  13.585   2.185   9.305 -0.1692  0.2911  0.1210
76586W        W19499   0.133  26.775  10.639  0.0302 -0.0153 -0.2338
76587W        W19500  17.516  32.686   9.584 -0.0178 -0.2648 -0.2282
76588W        W19501   1.229   8.168   7.496 -0.0272  0.1556 -0.0668
76589W        W19502  10.935  32.848  10.693  0.0384 -0.3087 -0.2334
76590W        W19503  11.664  27.359   6.069  0.0202  0.2076  0.0180
76591W        W19504   5.798  31.316  11.589  0.1959 -0.1303  0.3318
76592W        W19505   9.712   0.461   9.787 -0.0011 -0.1580  0.0681
76593W        W19506  34.330  33.968   8.591 -0.2736  0.0041 -0.0068
76594W        W19507   3.919  31.926  28.657 -0.0905 -0.0998 -0.2891
76595W        W19508  11.709  33.198  11.296  0.1253 -0.1341  0.1458
76596W        W19509  31.656  32.473   9.530  0.0078 -0.0491 -0.0589
76597W        W19510   3.385   5.727  12.180 -0.0432 -0.2301 -0.0643
76598W        W19511   1.279  26.076   6.447  0.0175 -0.2321  0.0269
76599W        W19512   6.353  33.178  12.287 -0.4746 -0.0307 -0.0097
76600W        W19513   7.576  32.594  12.261 -0.1734  0.0266 -0.1368
76601W        W19514   6.376   2.960  10.843 -0.2902  0.2751 -0.1185
76602W        W19515  32.140   4.300  10.666  0.0457  0.0503  0.0091
76603W        W19516   6.493  32.261  26.994 -0.1415 -0.1996 -0.3005
76604W        W19517  16.972   2.693   3.067 -0.0604 -0.0803 -0.1950
76605W        W19518   3.981   4.711   8.821 -0.3196 -0.1295 -0.1542
76606W        W19519   3.571   3.919   1.674  0.1082  0.2131  0.1100
76607W        W19520  22.311   3.059  28.874 -0.2812  0.2842 -0.2435
76608W        W19521  15.021  14.144   5.559  0.0564  0.1124 -0.0914
76609W        W19522   9.607  31.394  11.441 -0.0219  0.0367  0.2327
76610W        W19523   5.493  34.126   7.137  0.1463  0.0908  0.0672
76611W        W19524   7.173   7.540   4.530  0.1903  0.2504 -0.2914
76612W        W19525  33.750   1.048   9.233  0.0384  0.0300 -0.1874
76613W        W19526   7.275   0.598   7.635  0.1751 -0.1462 -0.3927
76614W        W19527   2.907  29.144   9.147 -0.0277  0.1704  0.0355
76615W        W19528  11.627  21.739   6.215  0.1312 -0.1407 -0.1819
76616W        W19529   4.214   7.548  13.372  0.1803  0.1765  0.1348
76617W        W19530  33.464  30.241   7.993 -0.2615  0.1394  0.0641
76618W        W19531   1.126  32.625   0.152  0.1807  0.0128 -0.3069
76619W        W19532  11.080   2.495   9.648 -0.2028  0.0306 -0.3056
76620W        W19533  11.234   1.352  12.855 -0.0871 -0.0566 -0.0076
76621W        W19534  10.945  25.057   4.645  0.2801 -0.0137 -0.1044
76622W        W19535   6.965  23.563   5.504  0.0922  0.0327 -0.0188
76623W        W19536   5.801   9.210  12.110  0.0297  0.2395 -0.0871
76624W        W19537  29.118  33.683   5.740 -0.0431 -0.0174  0.3109
76625W        W19538   8.375   0.720   0.353 -0.0519 -0.1885 -0.0106
76626W        W19539  13.290  31.240  24.954  0.1061  0.1064  0.1450
76627W        W19540   1.776   7.321  11.138 -0.0231 -0.1131 -0.2137
76628W        W19541   6.276  20.457   3.644  0.1442  0.0398  0.0498
76629W        W19542  11.945   2.283   9.194  0.1603 -0.1708 -0.2484
76630W        W19543   2.095   5.058   2.631 -0.0529 -0.0193 -0.0355
76631W        W19544   4.188  34.333  11.943 -0.0099  0.1666  0.0657
76632W        W19545   6.946   1.990  22.091  0.0307  0.0285  0.0484
76633W        W19546   7.933  14.003   8.230 -0.0096  0.2204  0.1320
76634W        W19547   7.368   1.689   9.563  0.0633  0.2042 -0.3571
76635W        W19548  12.770  31.780   8.982  0.3594  0.0914 -0.6613
76636W        W19549  33.553  32.894   0.731 -0.0561 -0.1406  0.0393
76637W        W19550   1.374   2.387  10.771 -0.1100  0.0960  0.0592
76638W        W19551   6.712  28.955   2.751 -0.0618 -0.2615 -0.1192
76639W        W19552   4.097   1.049   6.677  0.1319 -0.1705 -0.1853
76640W        W19553  34.201  26.628   9.763  0.2497  0.1542 -0.0042
76641W        W19554   7.367   0.395  10.733 -0.2960  0.2919  0.2275
76642W        W19555  28.365   4.839   2.659 -0.0071 -0.0931 -0.2309
76643W        W19556   3.681   2.322   5.938 -0.1605  0.0594  0.1618
76644W        W19557   8.447  11.837   9.472 -0.1896  0.1711 -0.0833
76645W        W19558   7.431  32.413   6.309 -0.0405  0.0455  0.0702
76646W        W19559  16.355  33.798   8.686 -0.0159  0.0677  0.0962
76647W        W19560  10.267   7.049   8.585 -0.1860 -0.1148  0.1240
76648W        W19561  31.438  30.153   1.671 -0.0264  0.0497  0.3788
76649W        W19562   4.941  20.588   2.024  0.0666 -0.2771  0.1626
76650W        W19563   4.211   3.597   9.611 -0.2027  0.0268 -0.0397
76651W        W19564   5.700  25.362   4.601 -0.4522  0.0616  0.2934
76652W        W19565   6.490  33.490  27.400  0.2336  0.3674 -0.1194
76653W        W19566   7.169  33.740  12.106  0.0963  0.2178 -0.1335
76654W        W19567   7.597   6.549   2.371 -0.2424 -0.0924  0.0780
76655W        W19568  34.440  34.131   6.872  0.3226  0.1858  0.0731
76656W        W19569   3.948  29.371   5.512 -0.2736  0.4323  0.0372
76657W        W19570  10.004  31.606   8.967 -0.1914 -0.2935 -0.1423
76658W        W19571   5.345  32.986   8.700 -0.0254  0.0208 -0.2559
76659W        W19572  11.190  31.996  11.001  0.0421 -0.1466 -0.0449
76660W        W19573   3.271   8.073   7.381 -0.0859  0.0803  0.2432
76661W        W19574   7.627  23.694   0.418  0.0608  0.1270  0.0389
76662W        W19575  13.534   6.817   7.127 -0.0685 -0.1145 -0.1340
76663W        W19576   4.815   9.478   6.013 -0.2765 -0.4053 -0.0333
76664W        W19577   2.704  31.938  10.666  0.0175  0.0705 -0.0791
76665W        W19578   7.949  24.838   4.923 -0.0234 -0.1448  0.0003
76666W        W19579   3.604   3.285   7.302 -0.2247 -0.1481 -0.2902
76667W        W19580   4.304  22.201   3.318  0.1493  0.1804  0.0548
76668W        W19581  32.803  11.831   3.943 -0.0984  0.0895  0.2205
76669W        W19582  10.061  31.040   3.902 -0.1617 -0.2879 -0.1835
76670W        W19583   3.259   5.150   9.328 -0.1566  0.1726  0.0554
76671W        W19584   6.366  33.286   4.707 -0.2795 -0.1664  0.2153
76672W        W19585   4.957  28.447   3.312 -0.0004  0.0889 -0.0506
76673W        W19586  18.437  26.930   6.123  0.2053  0.2742  0.0043
76674W        W19587  11.483  31.705   9.045  0.3521 -0.0255  0.0931
76675W        W19588   0.870   6.540  11.870  0.0731  0.2111 -0.2648
76676W        W19589  12.222  31.675  10.186 -0.2429 -0.3064 -0.0741
76677W        W19590   2.314   4.205   6.100 -0.0115  0.0116 -0.2766
76678W        W19591  12.006  33.628   4.784 -0.1117  0.0792 -0.2240
76679W        W19592   8.522  20.978   5.989 -0.4230  0.2945 -0.0847
76680W        W19593  32.645   0.523   3.070 -0.1907 -0.4358  0.3588
76681W        W19594   1.271   5.070  11.975 -0.2750  0.0983  0.1924
76682W        W19595   3.901  10.923   7.235 -0.1521 -0.0195  0.0328
76683W        W19596  33.539  23.208   8.122 -0.1756 -0.1032  0.0169
76684W        W19597   2.211  27.464   5.877 -0.2120 -0.0268  0.0255
76685W        W19598  13.277   3.056   7.923 -0.2893  0.0185 -0.1399
76686W        W19599   6.535   7.851   7.090  0.1444 -0.0155  0.3340
76687W        W19600   5.239   6.786  11.323 -0.2787  0.0343  0.2620
76688W        W19601  15.515  27.498   5.893 -0.1952  0.3826 -0.1524
76689W        W19602   8.879   2.061  13.656 -0.2870  0.2372 -0.1221
76690W        W19603   8.507   1.597   7.260 -0.2074 -0.3341  0.1533
76691W        W19604   7.723  31.159   7.691  0.2502  0.2581 -0.0129
76692W        W19605  14.002  33.956   9.440  0.1533  0.1263 -0.0019
76693W        W19606   3.959   6.355   2.213 -0.2948 -0.0111  0.2450
76694W        W19607   9.010   5.221  28.856  0.1239  0.0503  0.1178
76695W        W19608   6.817  12.009  28.112  0.1443  0.1320 -0.1707
76696W        W19609  32.908   5.680   6.644  0.2241  0.2421 -0.3111
76697W        W19610  32.773  23.225  25.954 -0.0682  0.0116 -0.0649
76698W        W19611   9.157   4.692   9.997  0.1964  0.0755  0.0007
76699W        W19612   7.697   3.969   8.384  0.4130 -0.0097 -0.0015
76700W        W19613  14.893   2.039   3.468 -0.1177  0.1600 -0.0972
76701W        W19614   4.030  28.057   2.895  0.1080  0.1483 -0.0373
76702W        W19615   3.346  26.639  10.518  0.2700 -0.2273 -0.1445
76703W        W19616   9.605   9.807  10.857 -0.1041  0.4529  0.1050
76704W        W19617   9.704  29.939   3.068 -0.1726 -0.4490  0.3038
76705W        W19618  11.144  33.997   8.702  0.2283 -0.0244 -0.0135
76706W        W19619   7.015   3.861   9.028 -0.0554  0.0016  0.0093
76707W        W19620  17.035   5.538   6.233 -0.1101 -0.1062 -0.1368
76708W        W19621   5.165  33.871   0.082  0.3203 -0.3400 -0.2547
76709W        W19622  33.478   8.263   8.162 -0.0061  0.1083  0.0298
76710W        W19623   3.203  25.773  10.188  0.5115  0.0049 -0.1536
76711W        W19624   5.966  10.824   6.494  0.0455 -0.0018 -0.0593
76712W        W19625   7.563   0.529   6.848  0.2148  0.0044  0.0623
76713W        W19626   1.647   5.368   7.077  0.0595 -0.0589  0.2244
76714W        W19627  32.957   5.863   8.316 -0.3413 -0.1479 -0.1423
76715W        W19628   2.002   0.374   1.997  0.0762 -0.1828  0.1588
76716W        W19629  12.780   1.289   4.824  0.0088  0.1632 -0.2338
76717W        W19630  32.308  32.543   7.807  0.0400  0.0023  0.1577
76718W        W19631   5.879  31.846  11.546  0.0813  0.0801 -0.0964
76719W        W19632  12.988   4.664   8.021  0.0719  0.1872  0.0542
76720W        W19633  13.624   9.103  29.341 -0.1640  0.2230  0.1527
76721W        W19634  17.454   2.842  28.619  0.1394 -0.4422  0.0933
76722W        W19635  17.117  31.267  26.482  0.1765  0.1698  0.0848
76723W        W19636   9.757  29.893   5.636  0.1038  0.1518 -0.3499
76724W        W19637  11.402   6.520  23.614 -0.0566  0.0430  0.1713
76725W        W19638   2.245  29.709   8.210 -0.0983  0.0166  0.2379
76726W        W19639   0.791  16.899   6.884  0.1453  0.0176 -0.0216
76727W        W19640  11.582   3.872   6.586 -0.1109  0.1194  0.0147
76728W        W19641  11.356  22.256  17.620  0.1198  0.0875 -0.0861
76729W        W19642   2.101  21.359   0.117  0.1927  0.0636 -0.1760
76730W        W19643  12.048   9.048   8.934  0.3470  0.1647 -0.1309
76731W        W19644  17.353  28.513  27.009 -0.1265 -0.2918  0.0497
76732W        W19645   4.444   0.948  26.343 -0.0779  0.1709 -0.1205
76733W        W19646  16.036   5.793   5.778  0.1913 -0.1457  0.0781
76734W        W19647   8.219   2.865  28.535  0.1211 -0.2001  0.0142
76735W        W19648   7.048  29.423   1.113  0.2584 -0.0597  0.4224
76736W        W19649   2.217   3.403   0.310 -0.2197 -0.0189 -0.0400
76737W        W19650   2.370   2.587   0.794 -0.1065  0.0628  0.3626
76738W        W19651   9.743  29.806   0.752 -0.1600  0.4751 -0.1667
76739W        W19652  10.671   4.647   5.701  0.0351 -0.1293 -0.0454
76740W        W19653   4.140  29.964   5.136 -0.0357  0.1009 -0.1608
76741W        W19654  16.329  10.394  28.625  0.3849 -0.1483  0.0758
76742W        W19655  11.517  19.872  28.582 -0.0100  0.3535 -0.2518
76743W        W19656   9.457  27.857  26.244  0.0924 -0.1193  0.0502
76744W        W19657   8.025  25.826  29.617  0.4323  0.4071 -0.1193
76745W        W19658  16.312  32.822  10.658 -0.2084 -0.1939 -0.0909
76746W        W19659  32.455   8.354   0.830 -0.2869  0.2414 -0.2067
76747W        W19660  11.137  33.553   6.950 -0.1566  0.2378  0.1742
76748W        W19661   4.393  24.371   0.416 -0.1785 -0.1471  0.0263
76749W        W19662  14.608   9.458   6.888  0.4394 -0.0167  0.1018
76750W        W19663   0.674  28.947   1.101  0.0491  0.0790 -0.1537
76751W        W19664  12.412  29.841   0.587  0.2430 -0.1086  0.3261
76752W        W19665  16.956  30.547   5.316 -0.1024 -0.2457 -0.0781
76753W        W19666   9.014   8.044  29.052  0.1836 -0.0151  0.0028
76754W        W19667  16.842   0.295  27.243 -0.0782 -0.1368  0.0931
76755W        W19668  29.954  10.323  28.713  0.0941  0.0026  0.2664
76756W        W19669  16.315   7.424  10.318  0.2491  0.1371 -0.3785
76757W        W19670   9.289  30.025   9.097  0.0850  0.3065  0.1727
76758W        W19671   8.491   4.366   7.997  0.5146 -0.1440  0.0598
76759W        W19672  11.609  25.107   9.606 -0.0285 -0.0774  0.1746
76760W        W19673  15.787   8.504   3.677  0.1085  0.2778  0.2840
76761W        W19674   5.708  26.779   0.920 -0.0658  0.3080 -0.1110
76762W        W19675   9.292  34.439   3.299  0.1544  0.1537 -0.2031
76763W        W19676   9.133   1.196   2.017 -0.0444 -0.0890  0.0230
76764W        W19677   8.109  16.503  22.270 -0.1282 -0.2744  0.0593
76765W        W19678  10.725   4.011  11.289 -0.2050  0.4099  0.0277
76766W        W19679  33.491  34.291   4.562 -0.1245  0.6019  0.3468
76767W        W19680  15.481  14.601  24.167  0.1145 -0.0354  0.1245
76768W        W19681  23.487  25.117  26.923  0.0485 -0.1893 -0.1253
76769W        W19682  21.891   3.083   8.544 -0.0287  0.4178 -0.2146
76770W        W19683  15.723   1.846  10.983 -0.1093  0.2491  0.1916
76771W        W19684   6.613   3.481  28.308  0.1909  0.1179 -0.3012
76772W        W19685  10.039  33.007   0.277 -0.2376  0.0762  0.1627
76773W        W19686  13.336  33.376  20.645  0.0686  0.0889 -0.2959
76774W        W19687   8.732   2.522   6.384 -0.2827 -0.4086  0.0819
76775W        W19688   7.776   9.604   1.895 -0.0575 -0.0501 -0.2933
76776W        W19689   8.593  32.786   5.151 -0.1043  0.1322 -0.1145
76777W        W19690  11.654   0.121   3.237  0.1582  0.3196  0.2087
76778W        W19691  16.071  12.537   4.675 -0.0733 -0.1183 -0.0677
76779W        W19692  18.739  25.771  25.751 -0.0738 -0.0637 -0.0852
76780W        W19693   5.350  33.864  10.225  0.3662  0.0278  0.3386
76781W        W19694   8.958  23.291   0.788 -0.0220  0.4020  0.1885
76782W        W19695  10.591   1.099   7.959 -0.2283 -0.2453  0.0266
76783W        W19696   7.634   1.305  22.181  0.5483 -0.1571 -0.1042
76784W        W19697   7.225   4.047   0.701 -0.0612 -0.0359  0.2265
76785W        W19698   9.049   3.988   5.192  0.2238  0.3748  0.0281
76786W        W19699  11.019   8.030   8.302  0.1258 -0.0796  0.1865
76787W        W19700   4.551   6.372  10.628  0.4564  0.1497 -0.2188
76788W        W19701  18.294  29.930   7.591 -0.2991 -0.2092  0.4499
76789W        W19702   5.516  30.640   4.554  0.1126 -0.1668 -0.2948
76790W        W19703   7.006  25.792   4.805  0.0361  0.1395 -0.0390
76791W        W19704   6.758   1.508  13.372 -0.2477 -0.0267  0.1504
76792W        W19705   8.313   2.541  26.696  0.1962 -0.1991 -0.1875
76793W        W19706  10.522   8.047  27.758  0.0750 -0.2229  0.4595
76794W        W19707  10.784  29.538   6.904  0.0401  0.0809  0.0233
76795W        W19708   7.227  26.345   2.548  0.2925 -0.0421 -0.4603
76796W        W19709   6.672  12.131   9.808  0.1943 -0.3105 -0.1157
76797W        W19710  18.954  33.143  25.769  0.0043 -0.0255  0.3371
76798W        W19711  17.446  28.438   4.904  0.1445  0.0687  0.3398
76799W        W19712   7.187  10.551   9.295  0.2634  0.1790  0.0995
76800W        W19713  11.592   1.615   2.282  0.0350 -0.0651  0.1521
76801W        W19714  33.890  11.339  27.257  0.0314  0.2800 -0.1892
76802W        W19715   7.479  32.225  29.730 -0.0062  0.3165  0.1548
76803W        W19716   8.957   4.232   4.763 -0.0778 -0.0637 -0.1316
76804W        W19717   1.022   0.858   5.485  0.0711  0.1025 -0.0868
76805W        W19718   2.866   6.059  10.746 -0.0999 -0.0631  0.2243
76806W        W19719  20.914  31.512  24.707  0.0920 -0.0577 -0.2350
76807W        W19720   8.582   2.240  24.715  0.0821 -0.2624 -0.0360
76808W        W19721  10.889  28.838   1.370  0.2932  0.0007  0.2212
76809W        W19722  12.928  33.935   2.295  0.0788  0.1092 -0.2099
76810W        W19723   6.565  32.455  23.101  0.3002  0.0047  0.0401
76811W        W19724   5.367  30.234   0.760  0.1787  0.4267 -0.2448
76812W        W19725  29.470  34.221   7.707  0.2225  0.1446  0.0329
76813W        W19726   9.662  12.585   8.470 -0.1999 -0.0554  0.1083
76814W        W19727   9.567   2.277   9.266 -0.4062 -0.1962 -0.0755
76815W        W19728  28.901   2.404   2.545  0.1429 -0.1402 -0.0689
76816W        W19729  15.365   9.360   1.648  0.1979 -0.0327  0.2146
76817W        W19730  13.557   2.653   4.452  0.0025  0.4181  0.2694
76818W        W19731   5.971   0.470   4.546 -0.0643 -0.0090  0.0895
76819W        W19732  11.395  33.418   0.662 -0.4532 -0.2639  0.0439
76820W        W19733  17.896  26.187  29.223 -0.0357 -0.0709  0.0974
76821W        W19734  15.362   8.505  28.199  0.0279 -0.1796  0.0038
76822W        W19735   6.342  10.747   6.910 -0.0506 -0.3252 -0.1194
76823W        W19736   9.235  13.597  10.651 -0.1489 -0.2481  0.0749
76824W        W19737  14.938  25.251  25.543 -0.1511 -0.1812  0.1483
76825W        W19738  20.337   0.998  27.469 -0.1418 -0.0297 -0.0206
76826W        W19739   2.933  12.134   3.018  0.0873 -0.2476 -0.2463
76827W        W19740   1.117  24.940  27.400  0.0649  0.2040  0.1444
76828W        W19741   9.803   3.678  13.686  0.0336  0.1553 -0.1967
76829W        W19742  22.299   1.470   6.789  0.1081  0.1105  0.1113
76830W        W19743   2.592  18.864   5.202  0.2661 -0.2816 -0.0674
76831W        W19744  10.288  23.202  21.846  0.1444  0.1697 -0.0649
76832W        W19745  19.622  27.811   0.101 -0.0900  0.1094 -0.0960
76833W        W19746   1.223   1.338   6.362  0.3311  0.0547  0.0464
76834W        W19747   2.384   2.575   0.181  0.1238  0.0481  0.1618
76835W        W19748  15.799  30.367   3.277  0.2405  0.0420 -0.3102
76836W        W19749   7.281  34.448  29.395  0.0259  0.2655 -0.1448
76837W        W19750  14.667  32.865  29.316 -0.0286  0.1373 -0.1227
76838W        W19751  33.597  27.552   3.218 -0.1018 -0.0833  0.4263
76839W        W19752   9.935  10.262  25.474 -0.1431  0.0420  0.0919
76840W        W19753   6.064   4.121   3.267 -0.0317  0.0974 -0.0101
76841W        W19754  14.587  12.842   7.823  0.1394  0.0981 -0.3209
76842W        W19755  14.715  32.184   5.902 -0.2010 -0.0680 -0.2845
76843W        W19756  14.078   7.885   6.147 -0.0086  0.0116  0.1156
76844W        W19757   3.613  31.252   1.550 -0.0263  0.0034 -0.1018
76845W        W19758  16.014   3.040  23.810 -0.0287  0.0951  0.1171
76846W        W19759  15.941  15.269  29.544  0.1458 -0.0030  0.0093
76847W        W19760  19.211  33.963   2.041 -0.0999 -0.2994  0.0781
76848W        W19761   7.981   4.848  29.184 -0.2636  0.1030 -0.1942
76849W        W19762   8.565  11.654  27.942  0.1623 -0.1184 -0.1182
76850W        W19763  15.528  28.425  25.654  0.0879  0.1409 -0.0139
76851W        W19764   9.272   6.995   0.530 -0.0094 -0.0586  0.1039
76852W        W19765  14.993   6.293   2.068  0.0852 -0.2034  0.0582
76853W        W19766   2.761   1.557   7.368  0.0751  0.1145  0.0575
76854W        W19767  34.464   0.772  25.891 -0.3055  0.2460  0.3506
76855W        W19768   1.643   9.517   2.026  0.1795 -0.5698  0.2270
76856W        W19769  15.760   2.798   7.168 -0.3257  0.0887 -0.5115
76857W        W19770   7.934   2.765  29.543 -0.0597 -0.1111  0.0252
76858W        W19771   7.249  33.093  27.541 -0.0082 -0.1626 -0.2547
76859W        W19772  17.967  32.186  28.324 -0.0590 -0.0407 -0.1005
76860W        W19773  14.763  32.013  23.261  0.0901  0.4169  0.0991
76861W        W19774  13.361  23.842  24.679 -0.1531  0.0484 -0.0869
76862W        W19775  32.798   2.764  25.821  0.7233  0.0564 -0.2777
76863W        W19776  12.219  33.711   1.083  0.4929 -0.0019 -0.0121
76864W        W19777   5.118   5.259  21.955 -0.1091 -0.0384 -0.5329
76865W        W19778  13.037  27.435   9.433  0.1562  0.0607 -0.2591
76866W        W19779  18.491   9.320  29.660  0.3738  0.0279 -0.3946
76867W        W19780  10.911  31.088  25.847  0.2099  0.2486  0.1391
76868W        W19781  12.661   9.251  28.812 -0.3605  0.0637  0.1543
76869W        W19782  11.596  24.981  25.862 -0.1310  0.1755 -0.0685
76870W        W19783  10.279  28.548  28.305 -0.0576 -0.2297 -0.2101
76871W        W19784  13.864   4.453  10.226  0.1365  0.0356  0.0092
76872W        W19785  32.380  32.350   5.015 -0.4433  0.1480  0.1546
76873W        W19786   3.436   2.845  28.291  0.4995 -0.0891  0.1971
76874W        W19787   6.809   4.468   2.175 -0.2417 -0.1898  0.3149
76875W        W19788  33.429   2.535   2.385  0.1249  0.0134 -0.2706
76876W        W19789   8.935  32.067   0.386  0.1153  0.1265 -0.0284
76877W        W19790   4.893  32.450   0.800 -0.4362 -0.4330 -0.0258
76878W        W19791  16.012   2.328   4.044 -0.0385  0.0075 -0.2411
76879W        W19792  17.478  33.806   2.782 -0.1334 -0.0869  0.0560
76880W        W19793   7.598   6.464  27.815 -0.4742 -0.1167  0.2010
76881W        W19794  10.338   4.165  27.825  0.0614 -0.0527  0.0797
76882W        W19795  15.392   4.125   5.693 -0.0168 -0.3069  0.0607
76883W        W19796   7.691   4.666  26.357 -0.1471 -0.1459 -0.2335
76884W        W19797  14.950  30.337  21.651  0.0379 -0.2440 -0.0578
76885W        W19798  10.551   4.314   0.836  0.1244  0.0892 -0.0892
76886W        W19799  11.364  33.358  12.042 -0.1466  0.0580  0.2268
76887W        W19800  10.162   1.556  27.321  0.0614 -0.0562 -0.0761
76888W        W19801  10.904   5.518   5.373  0.0327  0.2061 -0.1255
76889W        W19802  34.237  27.626  27.594  0.3095  0.1571 -0.0099
76890W        W19803   7.481  27.666   9.915 -0.0035  0.1095  0.3288
76891W        W19804   5.824   6.761   1.774  0.3366  0.1622  0.0330
76892W        W19805   3.910   7.259   2.887  0.0143 -0.1887  0.2641
76893W        W19806   4.401  30.101   2.931 -0.2535  0.0009  0.1488
76894W        W19807  11.206  31.515   1.575 -0.2026 -0.1747 -0.1318
76895W        W19808  10.199  10.200  10.179 -0.3013  0.1820 -0.1480
76896W        W19809  13.210  11.444  28.854 -0.1651  0.0232 -0.1150
76897W        W19810   7.648  34.231   1.167 -0.2164  0.0756  0.2002
76898W        W19811   8.399   0.752  26.594 -0.0587  0.2940 -0.1232
76899W        W19812   6.337  24.191  24.480  0.1392 -0.0157  0.0080
76900W        W19813   2.323   2.630   1.895 -0.1729  0.0318  0.0787
76901W        W19814  21.273   7.790   4.394 -0.0990 -0.2459 -0.3634
76902W        W19815  14.826   3.494   4.423 -0.0290  0.0594  0.1157
76903W        W19816   8.539   3.415  23.876 -0.1159 -0.1288  0.2038
76904W        W19817   6.142  34.339  26.369  0.2248 -0.2553 -0.0348
76905W        W19818  15.234  32.027   9.750  0.2098  0.2117 -0.1522
76906W        W19819  13.694  33.510   2.724 -0.2028 -0.1713 -0.0002
76907W        W19820   5.955   4.671   5.269  0.1372 -0.0878  0.0694
76908W        W19821  14.746   1.508  26.694  0.2343 -0.3911  0.1417
76909W        W19822   7.975   5.720  28.659  0.1827  0.0142  0.1769
76910W        W19823  14.570   2.671   6.215 -0.0950  0.1048 -0.0608
76911W        W19824   2.010  31.065   9.759  0.1109  0.0234  0.0481
76912W        W19825  10.469   7.292  22.232 -0.0877  0.1147 -0.1240
76913W        W19826   9.834   4.648   2.743 -0.0664  0.0247 -0.0476
76914W        W19827  12.596   1.082   3.177  0.0855  0.2252 -0.0664
76915W        W19828  21.470  12.905  27.229 -0.3601 -0.0681  0.0073
76916W        W19829   9.359  29.436   1.737  0.0829 -0.1704  0.2091
76917W        W19830  27.103  32.827  27.307  0.0368  0.1960 -0.2246
76918W        W19831   7.050  32.969   0.479  0.1982  0.0506 -0.3064
76919W        W19832   3.531  28.518   6.261  0.2240  0.1586 -0.0700
76920W        W19833  23.014  11.251  27.553  0.1137  0.0599  0.0866
76921W        W19834   8.296  29.757   9.353 -0.1085 -0.1173  0.1643
76922W        W19835   4.827   1.906  27.651 -0.0294  0.2206  0.1044
76923W        W19836  10.350  34.182   0.051  0.0015  0.1769 -0.0247
76924W        W19837  11.279   4.395  28.204  0.0575  0.1261 -0.0997
76925W        W19838  17.170  20.837  29.654 -0.0359 -0.2764 -0.2717
76926W        W19839  17.500   6.004   7.103  0.0034  0.1631  0.2808
76927W        W19840  29.612   9.188   3.497 -0.2699 -0.3129 -0.0501
76928W        W19841  10.492   8.582  10.918  0.1957 -0.1131 -0.1968
76929W        W19842  14.998  17.192   3.440  0.1006 -0.2601 -0.0127
76930W        W19843   5.853   0.494  29.245  0.0177 -0.1191  0.0939
76931W        W19844  14.390   2.710   3.673  0.2572 -0.2034 -0.0332
76932W        W19845  10.819  30.251   2.865 -0.1166  0.1800  0.0786
76933W        W19846  15.415   7.784  29.648  0.0137 -0.1358  0.1562
76934W        W19847   3.394   2.557  20.476  0.1345 -0.2421 -0.0225
76935W        W19848   9.336   0.405  22.668 -0.2995  0.3373  0.2023
76936W        W19849   5.992   2.093  10.533  0.1857 -0.1571  0.0427
76937W        W19850  11.830  12.073  26.250 -0.2746  0.2165 -0.0905
76938W        W19851  16.009  28.169  24.836 -0.0084 -0.0530 -0.1502
76939W        W19852   1.224   2.220   1.591  0.1880  0.2382 -0.2051
76940W        W19853  17.170   4.403  21.525  0.1951  0.0603 -0.0332
76941W        W19854  14.468  28.376  17.496 -0.0922  0.1731  0.1819
76942W        W19855   4.301   6.857  11.407 -0.1279  0.0892 -0.0405
76943W        W19856  18.376   8.205   1.660  0.1316  0.1838  0.1603
76944W        W19857  17.446  10.643  25.163 -0.0635  0.0047 -0.2580
76945W        W19858   9.121   5.562   1.183  0.1553  0.0369  0.1210
76946W        W19859  14.103  31.549   8.395  0.2282  0.3142  0.1711
76947W        W19860   7.804   9.558   4.983 -0.0939 -0.0584  0.1441
76948W        W19861   4.410  33.905   2.237 -0.3802 -0.1721  0.3074
76949W        W19862   9.160   3.783   6.459 -0.0588  0.2461 -0.4027
76950W        W19863   8.068  31.242  26.677  0.0773 -0.1054  0.1872
76951W        W19864   8.186  25.867  28.602 -0.0498 -0.1783 -0.0452
76952W        W19865  11.237  26.123  15.475  0.1020 -0.0840  0.1066
76953W        W19866   9.624   1.629   8.810 -0.1672 -0.0565 -0.3149
76954W        W19867   8.885  29.029  22.323 -0.0125 -0.3250 -0.1063
76955W        W19868  11.098  26.812   4.330  0.3944  0.0061  0.1969
76956W        W19869  13.509   4.684   3.043  0.0011 -0.1475  0.2178
76957W        W19870  14.850   9.800  23.116  0.2349 -0.2972  0.0293
76958W        W19871  12.170  22.055  25.749 -0.1813  0.2819  0.1738
76959W        W19872   0.862  29.862   2.715 -0.2707  0.0577  0.2255
76960W        W19873   7.845   1.779  11.390  0.0053 -0.0403  0.0942
76961W        W19874  16.629  27.370  25.849  0.0327 -0.0138 -0.3500
76962W        W19875   7.536   3.607   5.585 -0.0450 -0.0884  0.2750
76963W        W19876  15.034   3.933   8.289  0.0132 -0.0051  0.1969
76964W        W19877   8.052   6.160   4.477  0.2851 -0.3356 -0.0153
76965W        W19878  34.322  29.678   1.150 -0.3060 -0.0319 -0.1078
76966W        W19879  10.890   6.384   8.827 -0.0449  0.0641 -0.1385
76967W        W19880  12.785  33.378   3.808 -0.0342  0.1639 -0.1423
76968W        W19881   8.172   6.703   0.436 -0.1424 -0.0510 -0.1627
76969W        W19882   3.514   3.101   5.186  0.1775  0.1201 -0.4934
76970W        W19883   9.881   2.514  19.026  0.1212  0.3231  0.0827
76971W        W19884  30.329   5.141   0.236  0.0958  0.1726 -0.1017
76972W        W19885   6.623  30.236  11.352  0.1293 -0.1335 -0.0589
76973W        W19886  10.961   2.669   0.482  0.2630 -0.0115  0.0227
76974W        W19887  15.189  10.013   0.447  0.1314 -0.3086  0.1071
76975W        W19888  34.046  32.797   9.547 -0.0185 -0.2719  0.2375
76976W        W19889  16.024   4.592  26.805 -0.2457 -0.0186 -0.2509
76977W        W19890  14.479   4.714   9.025  0.4101  0.2369 -0.1739
76978W        W19891  14.461  28.504  10.137 -0.1345  0.0796 -0.2972
76979W        W19892  26.361  15.626  28.546 -0.2294  0.2953 -0.1258
76980W        W19893  12.109   4.290  11.016  0.2310 -0.0387  0.0277
76981W        W19894   7.031  27.821   5.084 -0.0816  0.1678  0.0434
76982W        W19895   9.362   7.211   7.183 -0.2179  0.0223 -0.0560
76983W        W19896   4.523   2.936  24.555  0.1487  0.3750 -0.0377
76984W        W19897   5.543   3.580  13.063 -0.0439 -0.2134  0.2621
76985W        W19898   6.073   5.263  26.098 -0.1361  0.0819 -0.1323
76986W        W19899  14.494   3.332  27.236 -0.2183  0.0008  0.0864
76987W        W19900  13.739  23.070  27.052  0.1267  0.1603  0.0686
76988W        W19901  10.117   9.783   0.249  0.0328  0.3935  0.0387
76989W        W19902  20.513   9.858  22.127  0.2362  0.0404  0.1244
76990W        W19903  33.546   8.355   7.688  0.0705  0.0835  0.2089
76991W        W19904   0.550   5.482  27.162  0.1855  0.0216 -0.0122
76992W        W19905  25.832   0.458   2.766  0.0005 -0.0764 -0.0456
76993W        W19906   3.529   1.630   2.842  0.2125  0.0172  0.0703
76994W        W19907  18.042   3.478   2.721 -0.1369  0.5151 -0.1271
76995W        W19908   1.160  29.693   7.337 -0.1748 -0.1346 -0.1289
76996W        W19909   9.143   2.327   6.675 -0.0314  0.0095 -0.0324
76997W        W19910   0.168   0.906  23.420 -0.2161  0.0660  0.0001
76998W        W19911   6.761   1.605  10.303  0.1884 -0.3394 -0.0595
76999W        W19912   8.462  27.065  10.657 -0.1210 -0.1126 -0.1932
77000W        W19913  32.378  30.907   5.840  0.0599 -0.0541  0.1297
77001W        W19914  17.694   1.686  15.896 -0.0520 -0.3488 -0.1409
77002W        W19915   1.659   6.191   4.091 -0.0823  0.1921 -0.0790
77003W        W19916   9.971  23.247  24.000  0.0920 -0.0488 -0.3505
77004W        W19917   7.951   7.296   7.126 -0.1182 -0.4847 -0.2723
77005W        W19918   3.810  21.731  28.114  0.0467 -0.2250 -0.0119
77006W        W19919  12.893  28.976   4.467  0.4491 -0.2518  0.0275
77007W        W19920   5.759  33.131   7.741 -0.0268  0.0677 -0.1769
77008W        W19921  16.404  12.292  27.284 -0.4691 -0.0033  0.2499
77009W        W19922   4.433  32.544   2.778  0.0595  0.0355  0.1626
77010W        W19923   2.486  16.552   4.902  0.2057  0.2140 -0.1009
77011W        W19924  14.108   6.243   0.293 -0.1292  0.1349  0.5202
77012W        W19925  13.729  11.462   5.286  0.3429 -0.1830  0.2896
77013W        W19926  12.628   5.636   5.442 -0.1277 -0.0831  0.0071
77014W        W19927  12.704   3.463  27.004  0.1286 -0.2386  0.3472
77015W        W19928  19.476   3.663  28.327 -0.1837 -0.0816  0.1279
77016W        W19929   1.618  11.931   4.636 -0.0633 -0.0864  0.1931
77017W        W19930   5.839   9.054  26.694 -0.1171 -0.1797  0.1521
77018W        W19931  15.503   4.328  28.277  0.4744  0.0003  0.0813
77019W        W19932   6.670   5.041   4.639  0.3153  0.0255 -0.0431
77020W        W19933  18.434   3.913   1.430  0.1484 -0.3321 -0.2919
77021W        W19934   2.875  13.882  29.026 -0.1976  0.0910  0.0980
77022W        W19935  20.597  34.152   4.708  0.1054 -0.2782 -0.2647
77023W        W19936   4.346   4.106   7.851 -0.0543 -0.0737  0.2089
77024W        W19937  24.525   0.506   5.123  0.1268 -0.1185 -0.0213
77025W        W19938   0.253  29.679   7.760 -0.1653 -0.1161 -0.2206
77026W        W19939   2.983   5.234  26.068  0.3436 -0.0984 -0.2814
77027W        W19940   7.889  33.287  28.383 -0.2910 -0.1126  0.0538
77028W        W19941  30.751  32.666  26.013  0.2157 -0.5667  0.3443
77029W        W19942  20.678  32.571  20.454  0.1077 -0.1389 -0.3561
77030W        W19943   0.442  27.975  18.299  0.0852  0.3414 -0.2991
77031W        W19944  26.546   8.546   6.606 -0.1364  0.2111  0.3500
77032W        W19945  21.270   4.443  26.008 -0.0475  0.0167  0.0372
77033W        W19946   8.049   2.613   4.212  0.1445 -0.0932 -0.0695
77034W        W19947  12.604   1.166  26.799 -0.0456  0.1617  0.1698
77035W        W19948   5.051   2.076   8.453 -0.3935  0.0189 -0.0543
77036W        W19949  10.748   8.725  22.761 -0.2050  0.0956  0.2681
77037W        W19950  13.598  24.790   1.045 -0.2129  0.2040  0.4350
77038W        W19951  16.952  10.669   1.757 -0.0799  0.0110  0.3471
77039W        W19952  11.233   8.136  17.795 -0.1019 -0.1573 -0.0555
77040W        W19953   7.883  29.538   9.195 -0.0764  0.2655 -0.0086
77041W        W19954  24.258   7.349   4.456 -0.2457 -0.2587  0.1443
77042W        W19955   1.837   4.190   0.785  0.0067  0.2395  0.2275
77043W        W19956  10.197   3.151   0.895 -0.1782  0.1259 -0.1160
77044W        W19957  15.082  32.453  22.485 -0.0978 -0.0750  0.1184
77045W        W19958   8.466  22.079  27.801 -0.0775  0.0504  0.0858
77046W        W19959  13.338   1.498   8.664 -0.2056 -0.2795 -0.2519
77047W        W19960   4.614  33.790   3.131  0.0895  0.2077 -0.0700
77048W        W19961   6.696  31.611  25.648 -0.1099  0.0492 -0.1579
77049W        W19962  16.309   9.858  22.300 -0.2888  0.0091 -0.1098
77050W        W19963   6.071  17.281   3.743 -0.0279 -0.2642 -0.1069
77051W        W19964  12.064   3.276   2.096  0.3590 -0.0640 -0.0115
77052W        W19965  22.625   3.780  25.815 -0.0582  0.0502  0.0178
77053W        W19966  10.245  11.159   2.543 -0.3184  0.0509  0.0942
77054W        W19967   6.677  25.505  18.975  0.3446 -0.0126  0.1004
77055W        W19968   9.552  31.521  28.456 -0.0276 -0.0565  0.0221
77056W        W19969   5.034   4.211   6.906 -0.1553 -0.1733  0.0726
77057W        W19970  23.700   1.248   6.867 -0.1618  0.4624 -0.0051
77058W        W19971   7.650   8.177   3.038  0.0942  0.0922  0.3126
77059W        W19972  12.452  15.949  20.966 -0.3571 -0.2116 -0.0676
77060W        W19973  13.809  11.884  26.428  0.0346 -0.1543 -0.0909
77061W        W19974  12.809   1.885  11.020  0.0492  0.3441 -0.1313
77062W        W19975  19.784  26.552   4.597 -0.1590  0.3874  0.0733
77063W        W19976  18.363   7.204  26.699 -0.2674  0.3145  0.3218
77064W        W19977  23.271  10.028   6.900 -0.3035 -0.3213  0.1858
77065W        W19978  32.235  29.308  10.382 -0.1379 -0.1317 -0.5020
77066W        W19979   4.629  25.710  25.322  0.2717 -0.3193  0.0188
77067W        W19980   7.832   5.639   6.980  0.2738  0.1513 -0.1999
77068W        W19981   4.603  33.633   5.085 -0.0098  0.0573 -0.2055
77069W        W19982  11.446  29.286  26.174  0.2651  0.0941 -0.1485
77070W        W19983  21.854   4.064  19.233  0.1001 -0.1734  0.1750
77071W        W19984   7.269  28.722  11.137  0.0198 -0.2342  0.2287
77072W        W19985  14.743   6.659  10.248  0.0896  0.0920  0.0655
77073W        W19986  33.976   2.888   0.909  0.0714 -0.0655 -0.1243
77074W        W19987   1.603   0.995   7.664 -0.1152 -0.0341 -0.3242
77075W        W19988   8.165  33.728   8.366  0.3091  0.0734 -0.1385
77076W        W19989  13.901   6.232  27.645 -0.1400 -0.0966 -0.2476
77077W        W19990  14.512   6.052   3.650  0.2047 -0.0490  0.0348
77078W        W19991   4.587  34.381   9.385  0.2527  0.0987 -0.3399
77079W        W19992   9.639   2.813   8.493  0.1481 -0.0122  0.1209
77080W        W19993   9.411   4.875  26.209 -0.3439 -0.1199  0.0264
77081W        W19994   0.841   0.474  25.298  0.2044 -0.1402  0.4547
77082W        W19995   5.790  32.736  21.934 -0.0835  0.0197  0.0694
77083W        W19996  15.944   6.068   3.143  0.1577  0.0541 -0.0888
77084W        W19997   8.110  32.569   5.170 -0.2448 -0.0211  0.1549
77085W        W19998  10.722   4.498   1.593  0.0456  0.0117  0.0589
77086W        W19999  12.339   6.828  26.095 -0.0433  0.2690  0.1013
77087W        W20000   3.165  28.728  22.022  0.1435 -0.2494  0.2182
77088W        W20001  14.045  31.088   9.260 -0.3695  0.2348 -0.2388
77089W        W20002  15.701   5.503   4.492 -0.0333 -0.3102  0.0265
77090W        W20003   8.265   0.819   4.581  0.1124  0.1603 -0.0933
77091W        W20004  16.130   0.298  27.898  0.1021 -0.2307 -0.0468
77092W        W20005   7.531   8.936   3.369 -0.0595 -0.0217  0.1921
77093W        W20006  15.620   9.440  25.490 -0.2143  0.2389  0.0237
77094W        W20007   0.076   2.435   6.644 -0.0233  0.1785  0.2195
77095W        W20008  12.383  29.017   9.233  0.4288  0.0273 -0.1919
77096W        W20009  24.024   3.830   3.728 -0.3701 -0.0381  0.5567
77097W        W20010   0.113   4.304   8.371  0.0513  0.0661  0.0973
77098W        W20011   3.448   1.188   6.032 -0.1217 -0.0786  0.0009
77099W        W20012   7.818   2.782   8.116  0.2760  0.0534  0.2814
77100W        W20013   1.339  27.993  25.675  0.3120  0.2618 -0.1069
77101W        W20014   9.977  32.531   1.779 -0.2671 -0.0551 -0.1941
77102W        W20015   4.528  33.217  26.529  0.0570 -0.1217 -0.2266
77103W        W20016   9.013   8.239  26.768  0.1852  0.3650 -0.0387
77104W        W20017  15.055   4.031   6.827  0.0120  0.1483 -0.2832
77105W        W20018  10.512  22.720  28.522  0.0686  0.2645  0.3024
77106W        W20019  12.541   5.356  23.236 -0.1643  0.2227  0.1935
77107W        W20020  12.300  11.469   9.015  0.0120 -0.2259 -0.1825
77108W        W20021  19.160  31.504   9.104  0.2724  0.0117  0.4200
77109W        W20022  30.633  17.532  25.536 -0.4394  0.1709  0.0558
77110W        W20023   9.644  32.074  12.549 -0.0036 -0.2009  0.1038
77111W        W20024   7.577   4.131   2.376  0.2434  0.1611 -0.1959
77112W        W20025  14.154   4.934   0.343  0.2206 -0.2704 -0.1201
77113W        W20026  16.368   6.434   3.259 -0.2611  0.2430  0.0184
77114W        W20027  17.161   2.316   6.076  0.0060 -0.0224  0.0176
77115W        W20028  18.961  30.133   9.815  0.1991  0.0674  0.2546
77116W        W20029   3.186  28.780   3.252 -0.0472 -0.1793  0.0250
77117W        W20030  10.744  34.286   4.282  0.1330  0.3938  0.0927
77118W        W20031   8.700   0.998   1.844  0.0104 -0.1254  0.0104
77119W        W20032  10.574   1.469  11.912  0.0977 -0.2410 -0.0330
77120W        W20033  14.003  32.461  24.369 -0.0970 -0.1172 -0.0588
77121W        W20034   7.448  33.848  18.525  0.0708 -0.0422  0.4295
77122W        W20035   5.954   5.961   2.937 -0.0546 -0.1237  0.0451
77123W        W20036  12.383  30.355   0.833 -0.0953  0.1038 -0.0056
77124W        W20037  14.680   3.967  11.132 -0.1395 -0.3408 -0.2274
77125W        W20038   5.537   1.520   2.228 -0.0570  0.2362 -0.1622
77126W        W20039   8.621  31.823  11.367 -0.1895 -0.1714  0.0537
77127W        W20040  19.718  31.414   7.903  0.0508 -0.1612 -0.2651
77128W        W20041  19.243  23.640   0.410 -0.2712  0.1382 -0.0003
77129W        W20042   1.765  31.140   7.696  0.0384  0.1918  0.0736
77130W        W20043  18.537  25.793   0.298  0.0503  0.1213  0.0477
77131W        W20044  12.084  29.474  28.167 -0.3499 -0.2328 -0.1343
77132W        W20045  14.082   2.355   9.228  0.3696  0.2126  0.2187
77133W        W20046   8.310   0.280  11.482 -0.0777  0.3433  0.2734
77134W        W20047  11.025  24.339   1.322 -0.1610  0.1913  0.0809
77135W        W20048  29.826   1.120   7.996 -0.1054 -0.1670  0.0671
77136W        W20049  10.137  26.980   4.276 -0.0490 -0.0282 -0.1476
77137W        W20050   9.780   2.570   7.155  0.1533 -0.0329  0.2551
77138W        W20051  10.878   3.633   3.409 -0.6736  0.0215  0.3860
77139W        W20052   3.786  28.488   2.115  0.2298  0.2736  0.3316
77140W        W20053   7.530  10.068   8.355 -0.1305  0.4443 -0.0271
77141W        W20054  10.659  31.597  21.726 -0.1132 -0.0544  0.1436
77142W        W20055   6.639  32.128   8.535  0.1057 -0.4362  0.1436
77143W        W20056  15.536  12.613  16.055 -0.3104  0.2754  0.0565
77144W        W20057   9.814   9.796  27.905  0.0446  0.1151  0.1019
77145W        W20058  18.198   7.623   7.268  0.0206  0.0937 -0.0701
77146W        W20059  14.373  27.434  29.581  0.0512 -0.1093  0.1683
77147W        W20060  12.341   0.933  27.816  0.2380 -0.1276  0.1251
77148W        W20061   5.967  27.740   9.480  0.3811 -0.1017  0.0991
77149W        W20062   7.539  29.193   1.965  0.0753 -0.0834 -0.0268
77150W        W20063   4.677   0.508  11.472  0.2806  0.1896 -0.1799
77151W        W20064   2.902   4.413   4.592  0.0783 -0.0385 -0.2027
77152W        W20065   8.536  30.757   3.473  0.0393  0.0872 -0.0216
77153W        W20066  11.091  27.493  11.331 -0.2183 -0.0005 -0.1128
77154W        W20067   8.679   3.769   9.600 -0.0942  0.0033  0.1691
77155W        W20068   4.727   6.062  28.731  0.0626 -0.1178  0.4709
77156W        W20069  12.194  22.740   2.140 -0.2001  0.1064  0.2051
77157W        W20070  13.978  16.996  28.143 -0.1608 -0.2541  0.3178
77158W        W20071  16.271   0.082   7.933 -0.1561  0.1386 -0.2789
77159W        W20072   9.712   2.203   0.433 -0.0046  0.2158  0.0091
77160W        W20073   8.565   0.554   7.316  0.3219  0.1190  0.2473
77161W        W20074  14.178  28.918   7.819 -0.3144  0.0006 -0.0184
77162W        W20075   0.449   6.310  11.719 -0.0607  0.0016 -0.3665
77163W        W20076  10.591   6.419  25.597 -0.0485  0.0408 -0.0065
77164W        W20077  28.544  14.161   5.966 -0.1874  0.1898  0.0904
77165W        W20078  13.148   1.863  11.428  0.1859  0.1258  0.0017
77166W        W20079   6.634  33.865   6.414  0.1129  0.0846 -0.0148
77167W        W20080  29.197   5.029   0.046  0.0270 -0.0736  0.0290
77168W        W20081  12.675   3.154  28.773 -0.3689  0.2724  0.0690
77169W        W20082  12.054  26.757  21.104  0.4510 -0.0410  0.2664
77170W        W20083   5.074   8.808  12.307  0.3131 -0.0603  0.2248
77171W        W20084   6.225  33.236   8.989 -0.0752 -0.2591 -0.1311
77172W        W20085   6.863   4.922   2.486  0.3533 -0.1432 -0.3038
77173W        W20086   8.823   0.652  26.394 -0.0085 -0.2748  0.2320
77174W        W20087  28.059  15.133   1.762 -0.0757 -0.0247  0.1832
77175W        W20088  12.386   4.677   8.066 -0.0581 -0.0095  0.0939
77176W        W20089   2.088   8.616   5.059 -0.0344 -0.0149 -0.2309
77177W        W20090   5.282   4.747   0.031  0.2681  0.2980 -0.1014
77178W        W20091   2.942  32.173  23.826  0.0168  0.0335 -0.0796
77179W        W20092  17.169   8.019  26.450  0.2297  0.1214 -0.0566
77180W        W20093  10.790  33.209   5.990 -0.0813 -0.0451 -0.0999
77181W        W20094   6.300   1.988   2.461 -0.0753  0.0501  0.1785
77182W        W20095   2.776   6.619  10.690  0.1772 -0.0279  0.0617
77183W        W20096  10.223   1.238  27.770  0.0553  0.1918 -0.1271
77184W        W20097  15.186   9.021   6.223 -0.1491  0.2013 -0.1669
77185W        W20098   5.046   2.840   4.070  0.1456  0.3016 -0.2632
77186W        W20099   7.906  29.561   6.565 -0.2549  0.0210 -0.1352
77187W        W20100   9.260  33.112   0.298  0.0557  0.3218  0.0129
77188W        W20101   5.994   2.299   6.400  0.2065  0.3125 -0.1632
77189W        W20102   4.821   7.355   7.363 -0.1433 -0.0652  0.1339
77190W        W20103   7.252  27.053   6.744  0.0849 -0.3386 -0.3867
77191W        W20104  18.233   0.044   5.681  0.0772 -0.0507  0.2793
77192W        W20105   9.117  28.230   3.133  0.3840 -0.1606  0.0010
77193W        W20106  13.883   0.200  11.886 -0.1345  0.0166  0.1025
77194W        W20107   3.947   7.567   7.919 -0.0146  0.1995 -0.1238
77195W        W20108  16.097  30.586  10.257  0.1540  0.2582 -0.2723
77196W        W20109   1.915   8.267  10.851 -0.1847  0.1144  0.0998
77197W        W20110  15.968   9.474   6.615 -0.1362  0.2253  0.1045
77198W        W20111   9.811  31.540   2.063 -0.2870  0.1095 -0.0251
77199W        W20112  14.307  21.609  26.594  0.0870 -0.1993 -0.2516
77200W        W20113   7.777  33.830  27.821  0.0904 -0.3028 -0.2499
77201W        W20114   4.364  26.045   2.946 -0.0961 -0.2735  0.1099
77202W        W20115  13.652  33.302  12.515 -0.0650 -0.2653  0.2945
77203W        W20116  16.692  31.573   2.048 -0.0080  0.0675  0.1484
77204W        W20117  13.526  31.686  29.183 -0.2818  0.4298  0.1230
77205W        W20118   9.708  32.977   7.799  0.1499  0.2302  0.2042
77206W        W20119   5.179   4.529   7.283  0.0009  0.1749  0.0293
77207W        W20120   7.319  33.424  10.384  0.2447  0.1015  0.1232
77208W        W20121  10.086  13.034   7.057 -0.2867 -0.0030  0.1758
77209W        W20122  18.346   3.592   6.951 -0.1717  0.0953  0.0525
77210W        W20123  23.580  28.339   5.881 -0.0660  0.0608  0.0551
77211W        W20124   7.696  30.614  25.795  0.0113  0.0572 -0.2073
77212W        W20125   9.833  32.271  29.663 -0.2838 -0.0904  0.0517
77213W        W20126  17.216   8.608   4.234 -0.1030 -0.1294 -0.0592
77214W        W20127  13.098  31.918  10.940 -0.2816 -0.1195  0.2528
77215W        W20128  16.905   3.609   7.850  0.0451 -0.1021 -0.1153
77216W        W20129  31.825  26.359   6.772 -0.0467 -0.2346  0.1229
77217W        W20130  13.032   1.201   6.544 -0.2329  0.2217  0.1154
77218W        W20131  14.089  27.958   2.361 -0.0588 -0.1123 -0.1505
77219W        W20132   6.690  34.308   3.144  0.0488 -0.0531  0.1227
77220W        W20133   4.762   4.229   7.586 -0.0048 -0.3184 -0.1825
77221W        W20134   9.592   3.745  27.773  0.0105  0.0614  0.2365
77222W        W20135  18.364   2.602   4.214  0.1537  0.0918  0.0970
77223W        W20136  12.812   5.158   0.019 -0.1260 -0.1886 -0.2309
77224W        W20137  11.687  33.386   2.795  0.0249  0.0388 -0.0159
77225W        W20138   5.340   3.265  16.950 -0.0199 -0.0322 -0.1377
77226W        W20139  15.346  13.026   6.216 -0.1825 -0.0031  0.2662
77227W        W20140   4.852  25.844   6.143 -0.2428 -0.0317  0.0108
77228W        W20141   2.938   7.075  13.485  0.1956  0.0638 -0.1871
77229W        W20142   6.255   1.129  26.820 -0.3655  0.0499 -0.0843
77230W        W20143   1.242   4.502   8.399 -0.0839 -0.2869  0.2060
77231W        W20144  17.922   6.028   7.380  0.0764  0.0789  0.2564
77232W        W20145   1.574   3.754   6.343  0.0378  0.3080 -0.0633
77233W        W20146  15.668   8.434   2.481  0.1056 -0.1255  0.0507
77234W        W20147   8.798  25.142   4.960  0.1971 -0.1852 -0.2066
77235W        W20148  11.293   4.672  29.006 -0.0676 -0.1974 -0.0689
77236W        W20149   6.247   1.580  23.712 -0.1060 -0.0404 -0.1792
77237W        W20150   2.834   4.550   5.044 -0.0012  0.1571  0.1021
77238W        W20151  29.496   4.126  29.625 -0.2149  0.0044  0.3205
77239W        W20152   8.467  10.176  11.659 -0.0745 -0.0129 -0.0345
77240W        W20153  10.326  22.150   1.911 -0.1372  0.3437 -0.0596
77241W        W20154  10.156  10.114  10.716 -0.0096  0.0326 -0.0452
77242W        W20155   8.967   2.580  10.673 -0.2616  0.1102  0.1108
77243W        W20156  13.601  32.887   4.179 -0.0001  0.3469 -0.1235
77244W        W20157  10.076   0.993  10.517  0.0823  0.1745  0.0758
77245W        W20158   3.928   0.819  12.831  0.1147 -0.3599 -0.0450
77246W        W20159  16.280  32.473   9.843  0.2883  0.1693  0.1735
77247W        W20160   4.905  27.630  22.837  0.1289 -0.0903  0.1010
77248W        W20161   7.700   5.081  11.403 -0.2739 -0.1295  0.1441
77249W        W20162  16.240  32.066   8.286 -0.1034  0.1215  0.0435
77250W        W20163  17.647   3.383   0.927  0.1379  0.0723  0.0799
77251W        W20164  11.997  31.939   3.995 -0.0288 -0.1993 -0.0431
77252W        W20165   2.621  16.644   9.115  0.0357  0.2926  0.0698
77253W        W20166   6.542   7.047   5.805  0.2389 -0.0827  0.0005
77254W        W20167  10.317  28.563  12.260 -0.0342 -0.0420  0.1713
77255W        W20168  17.539  33.449   9.579 -0.1648 -0.0842  0.0588
77256W        W20169   2.339  27.132   0.673  0.1721  0.0259 -0.0517
77257W        W20170   1.308  11.136  28.607 -0.3061 -0.0814 -0.2824
77258W        W20171   8.537   5.164  27.087  0.0943 -0.0093  0.0592
77259W        W20172   4.385  24.714   8.050 -0.3733  0.1299 -0.1005
77260W        W20173  13.459  29.855   9.384  0.1666  0.2179 -0.4756
77261W        W20174  13.416  25.478  24.552 -0.1790 -0.1037  0.2070
77262W        W20175  16.848   6.725   5.714  0.1443 -0.0401  0.3634
77263W        W20176   8.358  22.251   7.213 -0.1093  0.2250 -0.2111
77264W        W20177   9.799   3.423   6.584  0.0072  0.0481  0.1903
77265W        W20178   3.521  32.330   3.229  0.0591 -0.3962 -0.3313
77266W        W20179  14.396  33.877  27.702  0.0109 -0.0012 -0.3968
77267W        W20180  12.208   0.225   7.091  0.2506 -0.0183 -0.1555
77268W        W20181  16.732  20.854  27.042 -0.0055  0.1582  0.0295
77269W        W20182   9.487   1.046  29.583 -0.0556  0.4008  0.0281
77270W        W20183   6.976  16.592  17.040  0.0073  0.0602  0.1286
77271W        W20184   4.698  11.765   5.140  0.0547 -0.3114  0.1529
77272W        W20185   1.707   6.602   7.820 -0.3244  0.3713 -0.4166
77273W        W20186  29.557   2.789  10.790  0.3077 -0.1268  0.1364
77274W        W20187   5.732  34.076   4.189 -0.1376  0.1677 -0.0752
77275W        W20188   6.457   2.347   4.393  0.2016  0.0870 -0.2547
77276W        W20189  11.827   4.028   1.112  0.1094  0.1921 -0.0919
77277W        W20190  10.524   3.672  29.154  0.0332 -0.2608 -0.0674
77278W        W20191  12.647  33.958  24.739  0.0100  0.3237 -0.1381
77279W        W20192  18.333   1.093   2.206  0.0566 -0.0151  0.0549
77280W        W20193  10.580   4.000   6.362 -0.0149 -0.0376 -0.2053
77281W        W20194  20.947  27.161  26.326 -0.0232 -0.2923 -0.1265
77282W        W20195  13.696  20.812   5.996 -0.2567  0.2454  0.1025
77283W        W20196   2.294   4.158   7.435 -0.2461 -0.1779  0.0694
77284W        W20197  10.933   3.308  27.127 -0.1427 -0.1926 -0.2379
77285W        W20198  11.289   4.862   7.978 -0.3619 -0.0778 -0.0532
77286W        W20199  33.288   6.727  17.605 -0.2903  0.2507  0.1550
77287W        W20200   6.829   3.394   8.122  0.1614  0.1112  0.0401
77288W        W20201   8.716  27.762  25.834  0.1937  0.0954  0.0000
77289W        W20202  14.341  29.492   8.719  0.3710 -0.1784  0.2796
77290W        W20203  21.059  33.410   4.234 -0.3100  0.4441  0.2940
77291W        W20204  34.170  33.518   4.401  0.1480 -0.1447 -0.1999
77292W        W20205  11.682   3.657   9.254 -0.0977 -0.3326 -0.0872
77293W        W20206  18.454   5.443   4.084 -0.1593 -0.0985 -0.1978
77294W        W20207   6.564   5.494   1.449  0.1776  0.1025 -0.1526
77295W        W20208   4.360   0.846  10.104  0.0595  0.0820  0.0170
77296W        W20209   9.077   2.235   9.285  0.4439 -0.1191  0.0377
77297W        W20210  13.255   2.248  25.908  0.2352 -0.0822  0.0335
77298W        W20211  20.163  21.323   3.953 -0.0380  0.0614  0.0530
77299W        W20212   1.653   1.355  24.376 -0.0850  0.1897 -0.1460
77300W        W20213  33.870   6.795   4.655 -0.2268  0.3293 -0.0483
77301W        W20214  13.639   2.197  29.478  0.1098  0.1631  0.0648
77302W        W20215  12.519   0.181   2.970  0.3208 -0.1617 -0.0963
77303W        W20216  13.330  34.076   1.439 -0.1601 -0.3594 -0.2978
77304W        W20217   7.674  30.361   4.932  0.1101  0.0561 -0.1206
77305W        W20218   1.079  28.365  10.224  0.0419 -0.1350 -0.1333
77306W        W20219   4.617  11.165   1.024  0.4028 -0.0209  0.2303
77307W        W20220  27.882  33.889   7.648 -0.0890 -0.0742 -0.1263
77308W        W20221   8.219   3.923   7.073  0.0474 -0.2186  0.0952
77309W        W20222   5.476   7.166  11.668  0.3742  0.1991 -0.1622
77310W        W20223   3.518  30.758   1.481  0.2337  0.2339  0.1803
77311W        W20224   3.474   2.603  10.738  0.0556  0.2097 -0.2292
77312W        W20225   6.870   4.030   8.496  0.2153 -0.0171  0.1336
77313W        W20226  32.778  12.487   4.272 -0.0074  0.0560  0.1350
77314W        W20227   8.279  28.555   9.826  0.1899 -0.0797 -0.2283
77315W        W20228   5.232  28.791   3.013  0.1501 -0.2809 -0.0717
77316W        W20229   5.601   8.534  29.610  0.3147 -0.1348 -0.1332
77317W        W20230  17.444  11.568   8.395  0.0401 -0.2242 -0.1046
77318W        W20231   6.099  29.524   5.617 -0.0945  0.1221  0.1452
77319W        W20232   3.605   0.071  25.647  0.2703 -0.3156  0.1267
77320W        W20233   8.394  32.917   7.772 -0.0127  0.0320  0.1651
77321W        W20234  16.752   2.281   3.574  0.0479  0.0796 -0.1463
77322W        W20235   2.415  33.086   7.719  0.0372 -0.0568 -0.0233
77323W        W20236  12.887   3.783   7.633 -0.0191  0.0418 -0.1787
77324W        W20237   9.922   4.892   4.733  0.2438 -0.0722  0.0707
77325W        W20238   8.965  31.875   6.218  0.1395  0.0989 -0.2377
77326W        W20239   4.347   3.289   5.749  0.0897 -0.3468 -0.0055
77327W        W20240   5.521  32.697   9.575  0.0165 -0.2070  0.0664
77328W        W20241  13.257  29.983   8.946  0.0814 -0.0000 -0.0469
77329W        W20242   3.098  30.314   9.599  0.0595 -0.2068  0.0226
77330W        W20243   5.344  32.346   0.925 -0.0501  0.0592 -0.2382
77331W        W20244  30.142   8.884   9.555  0.3505  0.0781 -0.0112
77332W        W20245  18.879   2.136   9.011 -0.0406  0.1453 -0.1240
77333W        W20246   7.994   5.696   5.344  0.1038  0.0304  0.1474
77334W        W20247  16.606  27.877  27.476  0.5394 -0.0532  0.0274
77335W        W20248   8.251   7.031   1.266 -0.3908 -0.0727 -0.1072
77336W        W20249  12.508  11.552   6.160 -0.0296  0.3098 -0.2183
77337W        W20250  17.200   8.517   3.331 -0.0500  0.3426  0.1936
77338W        W20251  11.718  29.480   3.179  0.0037  0.3528  0.2160
77339W        W20252   4.013   0.154  10.366  0.0072 -0.1763 -0.1377
77340W        W20253  19.346  28.287   7.129  0.1113 -0.1214 -0.1413
77341W        W20254  17.999  29.382   8.317 -0.4721  0.1643 -0.2246
77342W        W20255  13.299  13.018   9.216  0.0881 -0.0903 -0.4162
77343W        W20256  11.406  34.281   5.217 -0.0828  0.1144  0.0356
77344W        W20257   3.160   1.230   5.152 -0.2195  0.0411 -0.3399
77345W        W20258   6.850  26.628  10.656  0.0783  0.0387  0.0468
77346W        W20259  21.251  32.239   4.249  0.0383  0.1541 -0.0632
77347W        W20260  16.720   4.437   7.592 -0.2535 -0.0168  0.0380
77348W        W20261   0.612  30.351   5.372 -0.0909  0.4723 -0.0669
77349W        W20262   8.771   2.889  12.983  0.1342  0.0729  0.3264
77350W        W20263   5.707   7.580   7.236  0.1961  0.2404 -0.1066
77351W        W20264   9.989  26.434   0.441  0.2671 -0.0502  0.4028
77352W        W20265   9.057  20.874   6.126 -0.2015  0.1906  0.2266
77353W        W20266   8.015   3.872   2.176  0.2744 -0.1259  0.0893
77354W        W20267  10.222   2.998  10.435  0.1178  0.0157  0.2716
77355W        W20268  31.973  11.587   0.376 -0.0966 -0.0340  0.1319
77356W        W20269  13.744   8.978   7.464 -0.1182  0.2212 -0.1221
77357W        W20270   3.574  33.766   6.382  0.1534  0.1314  0.1041
77358W        W20271   6.296   5.797   2.583  0.5006  0.1374  0.1912
77359W        W20272   9.730  31.623   7.574  0.0837 -0.0526  0.0091
77360W        W20273   6.948  26.356  21.208 -0.0344  0.3651  0.3384
77361W        W20274  16.436  32.541  18.483 -0.0487 -0.0808  0.2218
77362W        W20275  32.110   2.229   7.770 -0.1481  0.0021 -0.2333
77363W        W20276   5.623  30.730   0.794  0.0817  0.3215 -0.0496
77364W        W20277  21.383  32.662  28.423  0.0806  0.0147  0.1998
77365W        W20278   6.540  23.532  28.656 -0.0141  0.1907  0.0807
77366W        W20279  18.772   1.222   6.162  0.2798  0.0419  0.1885
77367W        W20280  14.060  32.359  27.958  0.0087 -0.0758 -0.0181
77368W        W20281  24.987   1.655   9.634  0.2152 -0.0795  0.1232
77369W        W20282  15.601   2.963   9.886 -0.0258 -0.0555  0.1632
77370W        W20283   9.867   4.118   4.345 -0.0552  0.0794 -0.0531
77371W        W20284   7.873   3.849  10.775 -0.0253  0.1697 -0.0867
77372W        W20285  12.578  27.366   2.419  0.2280 -0.0342  0.0451
77373W        W20286  33.482   6.418   4.088  0.2988  0.0072  0.0544
77374W        W20287  19.131  29.899   5.442 -0.1160  0.2650 -0.0785
77375W        W20288  15.493   5.828  27.235 -0.1185 -0.1528 -0.4852
77376W        W20289  11.699  33.824   3.726  0.0928 -0.0601 -0.1028
77377W        W20290   6.429  29.998  10.486  0.0108  0.3137  0.2449
77378W        W20291   6.152   1.051  11.592  0.1026  0.1925  0.2543
77379W        W20292  12.376   3.458   6.596  0.1748 -0.1516 -0.0423
77380W        W20293   6.678  33.792  12.590  0.0512  0.0620 -0.2899
77381W        W20294   5.335   2.368  25.469 -0.0087 -0.0566  0.0441
77382W        W20295  16.664  30.582  28.121 -0.1434  0.0200 -0.0212
77383W        W20296   0.141  20.535   5.565  0.0236 -0.2822 -0.2779
77384W        W20297   8.553  27.558  10.401  0.2451 -0.0736  0.0193
77385W        W20298   1.875   6.850  10.265  0.1417 -0.1433  0.2534
77386W        W20299  12.303  22.816   7.288  0.3711 -0.0137 -0.0071
77387W        W20300  16.361   4.134  26.886 -0.0877  0.0077  0.1798
77388W        W20301   3.629  17.845   1.984 -0.0106  0.0731 -0.0753
77389W        W20302  26.014   5.561  27.885 -0.0087 -0.0545  0.2351
77390W        W20303  12.519   4.437   9.977  0.3474 -0.0150 -0.1633
77391W        W20304  17.600  32.544   3.563 -0.0173  0.0575 -0.2442
77392W        W20305  19.314   9.089   2.738 -0.1230 -0.1806  0.0770
77393W        W20306  18.793   0.038   9.862 -0.1459 -0.1275  0.0731
77394W        W20307   7.535   2.451   0.975 -0.0051  0.2033  0.0897
77395W        W20308  19.263  32.955  24.894  0.2755 -0.0950  0.2536
77396W        W20309  15.765   8.277   5.222 -0.4650  0.5241 -0.0757
77397W        W20310   6.112  12.477   3.698 -0.0014  0.0801  0.1131
77398W        W20311   2.588   0.508   1.412 -0.0743 -0.3938  0.0373
77399W        W20312  22.210  10.227   1.115 -0.2676  0.1806  0.1847
77400W        W20313   7.863   7.087  26.486  0.0862  0.2420 -0.3009
77401W        W20314  16.069   5.847   9.974 -0.3407  0.0895  0.0541
77402W        W20315   4.354  23.046   2.876  0.1576 -0.1538  0.0736
77403W        W20316  12.235   7.466  11.642 -0.0426 -0.2084 -0.1939
77404W        W20317   5.203  16.478   2.467 -0.2470  0.1579  0.0485
77405W        W20318   9.867   1.093   7.021  0.0741 -0.1625 -0.1036
77406W        W20319   9.234  28.662   6.789  0.0158  0.3694  0.5376
77407W        W20320  10.608  33.978   4.679 -0.1123  0.0870 -0.0867
77408W        W20321  12.831   1.002   6.126 -0.3540 -0.1889  0.1840
77409W        W20322   5.403  18.345   6.235 -0.0162 -0.2403  0.3916
77410W        W20323   7.960  21.390  27.251 -0.0271  0.2895 -0.3444
77411W        W20324   4.546   4.472   7.008  0.2217 -0.2013 -0.0598
77412W        W20325   4.434   6.560  10.205 -0.0028  0.0600 -0.1177
77413W        W20326   6.990  30.910  10.783 -0.1377  0.3895  0.0880
77414W        W20327  16.756  15.339   5.263 -0.0282 -0.0585 -0.0228
77415W        W20328  15.975  33.731   3.374  0.0117  0.2103 -0.1473
77416W        W20329   6.048   4.165   5.373  0.1028  0.2172 -0.0173
77417W        W20330  21.625   4.198  10.162  0.0943 -0.0097  0.3570
77418W        W20331   6.027   4.321  25.378  0.0128 -0.3647  0.0806
77419W        W20332   7.163   1.212  13.134 -0.0080 -0.0822 -0.0304
77420W        W20333   2.830   0.409  11.008 -0.1028 -0.1280  0.0490
77421W        W20334  33.741   7.690   0.051  0.1941 -0.1556  0.2087
77422W        W20335  10.709  31.058   8.383  0.1648  0.1334  0.0260
77423W        W20336  11.743  13.817  26.265  0.0867 -0.1101  0.0826
77424W        W20337  34.453   3.337  26.988  0.0437 -0.0702  0.1107
77425W        W20338   6.093   2.262  10.047  0.2996 -0.1219  0.1599
77426W        W20339   5.052   0.039   9.089 -0.1105 -0.1678  0.1640
77427W        W20340   6.346   6.086   5.985 -0.1649 -0.2508 -0.1446
77428W        W20341  15.954  27.727   7.728  0.1246 -0.0220 -0.0075
77429W        W20342  16.501   7.565  28.014 -0.0795 -0.0566  0.0010
77430W        W20343   3.540  32.780   3.435  0.0032  0.1610  0.1447
77431W        W20344  13.325  30.714  28.782  0.0118 -0.0773 -0.1450
77432W        W20345  11.872  27.285  26.476  0.1470  0.0671 -0.0823
77433W        W20346   5.840   3.173   1.907 -0.0680 -0.1090  0.0127
77434W        W20347  20.776  29.651   6.778  0.1211  0.1486  0.1305
77435W        W20348  17.256  31.284   5.001 -0.4405  0.0941  0.1397
77436W        W20349   6.644   3.143  24.757 -0.0306  0.1252  0.0599
77437W        W20350  10.037  31.286   0.057 -0.0036 -0.0965 -0.3060
77438W        W20351   1.809   7.669   5.838  0.0469  0.0569  0.0113
77439W        W20352   8.232   9.312  10.062 -0.1910  0.1650 -0.0128
77440W        W20353  13.120   4.851  29.442 -0.1859 -0.0541 -0.1670
77441W        W20354   1.664  10.388   9.398  0.1029  0.1324 -0.1381
77442W        W20355  12.524   9.803  18.703 -0.1853  0.0338 -0.0200
77443W        W20356   8.250   2.060  25.463 -0.2529  0.3865 -0.0143
77444W        W20357   5.326  28.923  26.211 -0.1536 -0.4126 -0.1588
77445W        W20358  19.098   4.783   9.448 -0.2076 -0.0837 -0.0611
77446W        W20359   1.377   9.278   5.872 -0.1540 -0.1494  0.4585
77447W        W20360  31.562   3.753   6.653 -0.1802  0.1241 -0.1226
77448W        W20361   4.278   2.887  10.488  0.0649 -0.1085  0.1216
77449W        W20362   9.110  31.645   8.242 -0.0663  0.0820 -0.0805
77450W        W20363  10.241   2.903  29.709 -0.0137  0.0674  0.1181
77451W        W20364  15.327  25.001   1.818  0.3298 -0.2657 -0.2443
77452W        W20365  13.691  31.435   9.117 -0.0136  0.1113 -0.3181
77453W        W20366  11.638  30.913  11.330  0.1321 -0.4157 -0.0238
77454W        W20367  29.831  32.008   5.295 -0.0307 -0.1500  0.0440
77455W        W20368  14.362   2.432  10.974  0.0153 -0.0779  0.3549
77456W        W20369   8.690   1.799   8.508  0.0652 -0.1308 -0.1869
77457W        W20370   8.435   2.710  11.511 -0.2181 -0.1387  0.0420
77458W        W20371  11.054  30.807   2.635  0.2214 -0.1357  0.1314
77459W        W20372   8.030   9.010   3.820  0.0302 -0.2693 -0.0126
77460W        W20373  33.611  28.067  29.724  0.3644  0.0178  0.2094
77461W        W20374   6.717  12.777  25.518 -0.0971 -0.2591 -0.2520
77462W        W20375  16.056   1.488  23.946  0.1884  0.2252  0.1390
77463W        W20376   7.018   1.473   4.844 -0.0893  0.2810  0.4171
77464W        W20377   8.346   8.792   0.605 -0.1077 -0.3397  0.2688
77465W        W20378   6.603  30.149   1.745  0.1259 -0.2070  0.1993
77466W        W20379  33.283  31.947  10.058 -0.3050 -0.1455 -0.0484
77467W        W20380  32.928  32.165   2.952  0.2628 -0.2033  0.1411
77468W        W20381   8.167  34.051   9.505 -0.3023 -0.0662  0.0366
77469W        W20382  10.479   3.108  12.796 -0.1750  0.0368 -0.0720
77470W        W20383   4.046   9.232   0.387 -0.3689 -0.0418  0.3470
77471W        W20384   7.132  27.385   2.087  0.0142 -0.1864  0.1970
77472W        W20385   8.080   5.088   9.081  0.1244 -0.1351 -0.2022
77473W        W20386   5.784   6.323  12.362 -0.0028 -0.2054 -0.2021
77474W        W20387  15.334  31.820   7.987  0.2898  0.1017  0.0691
77475W        W20388   7.523   4.505  11.241 -0.3026  0.2304 -0.2370
77476W        W20389  11.241  20.083   2.443 -0.0268 -0.1028  0.0095
77477W        W20390   7.434  29.558  10.413 -0.2680 -0.2726 -0.0606
77478W        W20391  16.665  15.536  28.174  0.1567 -0.2228 -0.0356
77479W        W20392  15.735  26.372  28.613  0.1383  0.0391 -0.2033
77480W        W20393   2.743  11.392  29.332 -0.0415  0.0774  0.1362
77481W        W20394   5.421  32.431   7.274 -0.0927 -0.1974  0.0073
77482W        W20395  14.950   1.327   2.311 -0.0304  0.1212 -0.2477
77483W        W20396   8.733   4.253  28.708 -0.1049 -0.0311 -0.1191
77484W        W20397  12.059  14.171   9.641  0.1309 -0.2809 -0.1068
77485W        W20398  22.519  32.329   1.736  0.1945  0.2441  0.0117
77486W        W20399   9.907   2.452   6.288  0.0535 -0.2239 -0.0118
77487W        W20400   4.605  32.414   2.329  0.2636  0.0829  0.0530
77488W        W20401   9.812   6.637   4.060  0.0367  0.2118 -0.1346
77489W        W20402   9.537   8.648  27.507 -0.0743  0.2689  0.0478
77490W        W20403  11.978   3.097   9.874  0.0966 -0.0854 -0.0114
77491W        W20404  19.559  13.522   2.301 -0.4821  0.1078  0.1334
77492W        W20405   4.917   8.874  29.147 -0.0882 -0.0285  0.2929
77493W        W20406   8.181   1.509  12.322 -0.0423  0.1505  0.3213
77494W        W20407   1.102   4.773   4.979  0.0203 -0.3722 -0.0546
77495W        W20408   8.967  11.650   8.521 -0.1826  0.2307  0.1540
77496W        W20409  13.231  32.749   3.019 -0.1016 -0.0629 -0.0530
77497W        W20410  17.136   2.736   9.680  0.3748  0.0718 -0.0456
77498W        W20411   9.092  25.431   0.023  0.0512 -0.1075 -0.0642
77499W        W20412  13.597  25.989  28.269  0.1052  0.0143 -0.0226
77500W        W20413  10.992   7.763   2.797 -0.0246  0.1157  0.3331
77501W        W20414  10.832   5.300   2.647 -0.1245  0.1870  0.0600
77502W        W20415   1.465   3.463   2.969  0.0092 -0.1833 -0.0505
77503W        W20416   8.134   9.068   7.880  0.0436  0.0006 -0.0919
77504W        W20417   2.012   5.102  26.357  0.0264  0.1149 -0.0120
77505W        W20418  13.409   6.074   3.274  0.1131  0.0624 -0.0088
77506W        W20419  16.738   5.120  27.782  0.0379 -0.4341 -0.2889
77507W        W20420   9.588   3.982  11.594  0.0529  0.1606 -0.2335
77508W        W20421   9.339   0.015   3.799  0.1306 -0.1004 -0.1311
77509W        W20422  32.498   8.445   7.687 -0.4826  0.1110  0.1780
77510W        W20423   6.377   1.263  10.063  0.0959  0.0925 -0.2020
77511W        W20424   7.050  26.249   7.936 -0.1129  0.0774 -0.1820
77512W        W20425   8.970   0.626  10.416 -0.2275  0.1400 -0.1515
77513W        W20426   7.383  32.011   8.981 -0.0919 -0.0372 -0.2041
77514W        W20427  12.155  31.487   5.386  0.2147  0.3835  0.0623
77515W        W20428  11.069   3.850   6.677  0.4669  0.0512 -0.2130
77516W        W20429  30.194  27.274  26.365  0.4399  0.4412 -0.1061
77517W        W20430   8.468  25.589  19.364  0.1219  0.0283 -0.0513
77518W        W20431  15.404   5.833   6.211 -0.1514  0.1539 -0.0353
77519W        W20432   2.251   0.519  27.985  0.3710 -0.2312 -0.2838
77520W        W20433  12.171  29.466  10.062  0.1484  0.0645  0.2082
77521W        W20434   1.876   9.092  12.015  0.1439 -0.0948 -0.2363
77522W        W20435   3.277   5.655   7.316  0.0225 -0.3041 -0.2211
77523W        W20436   5.421  29.034  11.974 -0.5842 -0.0254  0.1927
77524W        W20437  13.304   3.293   2.768  0.0411  0.1404  0.2690
77525W        W20438  15.386   1.631   5.650 -0.1157 -0.0158 -0.1802
77526W        W20439  16.122   2.665   7.648  0.1585  0.1022  0.2474
77527W        W20440   1.090  33.979  23.818 -0.0120 -0.2312 -0.0355
77528W        W20441   4.550  34.425   0.421  0.2101  0.0305 -0.0558
77529W        W20442  11.685  33.702  12.670 -0.0976 -0.0818 -0.2114
77530W        W20443  18.890  23.290  22.990  0.1623  0.0539  0.0195
77531W        W20444   0.481   7.956  11.432 -0.6096  0.0077  0.1279
77532W        W20445  33.785  33.866   8.976  0.2006  0.0707 -0.0435
77533W        W20446  11.723   0.469   7.349  0.0669 -0.0165 -0.3070
77534W        W20447   6.425   0.673   4.265 -0.2457 -0.1565 -0.0652
77535W        W20448  17.812   7.710   8.894 -0.1892  0.2160  0.2029
77536W        W20449  10.855   3.987   5.125  0.0839 -0.2423 -0.0278
77537W        W20450   7.023   5.644   1.253 -0.1700  0.3733  0.1563
77538W        W20451  15.014  12.314   5.722  0.2176  0.2124 -0.0958
77539W        W20452  12.403  28.509   7.250  0.1199  0.0672  0.2350
77540W        W20453   1.367  31.461  25.077 -0.0989  0.0657  0.0241
77541W        W20454  12.060   2.182   3.382  0.2395 -0.0390  0.0875
77542W        W20455  15.647  16.775  25.218  0.2529 -0.1068 -0.1770
77543W        W20456   5.282   7.416   0.723 -0.1076  0.0982  0.2235
77544W        W20457  11.025  31.410  11.637  0.3743 -0.1886 -0.1550
77545W        W20458   8.443  32.230   7.505  0.4702  0.0744  0.1863
77546W        W20459   3.594   1.662  10.267 -0.4439  0.3055  0.1245
77547W        W20460  29.257   3.093   6.757 -0.0553 -0.2698  0.1798
77548W        W20461  11.715   7.199  10.635  0.1123  0.4951  0.0304
77549W        W20462   4.421  28.129   9.842 -0.0582  0.0107 -0.0187
77550W        W20463  16.679   3.458   9.865 -0.0645 -0.0630 -0.1788
77551W        W20464   0.356   7.349   5.480  0.2027  0.0565  0.1510
77552W        W20465  10.684   4.603   9.494  0.1739 -0.0549  0.0589
77553W        W20466  15.055  22.742   7.070 -0.3622 -0.2853 -0.1315
77554W        W20467   4.575  34.454   7.218 -0.2582  0.0135 -0.1269
77555W        W20468  10.688   0.827  10.589 -0.2979 -0.2729  0.0477
77556W        W20469   5.888  31.319  29.749 -0.2128  0.1622 -0.1072
77557W        W20470  19.442   5.703   0.895  0.1141 -0.0075 -0.2483
77558W        W20471  12.952   5.112   6.263 -0.1642  0.2933  0.1062
77559W        W20472   8.195   0.952   2.038  0.0558  0.2850  0.2418
77560W        W20473  32.531  29.422   8.578  0.0090  0.0071 -0.0456
77561W        W20474  14.204  33.043   5.720  0.4302 -0.2738  0.0561
77562W        W20475  33.863  34.347  10.212 -0.1172  0.3182  0.3855
77563W        W20476   9.992   5.292  12.548 -0.2311 -0.1780  0.0125
77564W        W20477  33.597  11.879   1.450  0.2571 -0.4103 -0.0760
77565W        W20478  14.518  22.308  27.720  0.2535 -0.1747 -0.2666
77566W        W20479   5.360   1.075  12.178  0.1644  0.3301 -0.0568
77567W        W20480   4.544   2.631   4.154 -0.2668  0.1393  0.0009
77568W        W20481   7.141  10.462  10.616 -0.0124  0.2770  0.2585
77569W        W20482  12.145   1.729  10.841  0.1506  0.0979  0.2736
77570W        W20483   3.137   5.978   8.164  0.0909  0.3037 -0.0625
77571W        W20484   9.834  10.124   9.824 -0.2186  0.3908  0.1867
77572W        W20485   7.207   1.013  11.630 -0.3449  0.0548  0.1774
77573W        W20486   5.740  10.087  10.683  0.3089  0.3541 -0.1364
77574W        W20487   8.338   0.260  10.489 -0.0300  0.1760  0.2888
77575W        W20488   7.296  14.428   9.586 -0.2636  0.2579  0.0207
77576W        W20489   6.082   8.025   7.515 -0.0894 -0.2407  0.0223
77577W        W20490  12.590   9.855   1.519  0.2965 -0.0954  0.0736
77578W        W20491   8.435   7.047  10.556 -0.0542  0.2967  0.0517
77579W        W20492   8.657  26.524   8.840 -0.1683  0.1585 -0.1579
77580W        W20493   8.116  12.793  10.402 -0.2724  0.0448  0.0904
77581W        W20494   4.056   8.056   3.115 -0.2282  0.1375  0.2196
77582W        W20495   1.010  26.918  10.647  0.4710 -0.0530  0.1174
77583W        W20496   6.041   2.754  12.320  0.2196  0.0180  0.0577
77584W        W20497  23.564  33.196   4.479  0.0985  0.0489 -0.2862
77585W        W20498   6.653   3.487   2.607 -0.3358 -0.2048  0.3497
77586W        W20499  11.372   7.853  10.038  0.0650  0.0814 -0.3089
77587W        W20500  16.217  24.392   1.548 -0.1618  0.3044  0.0432
77588W        W20501  33.886  31.239   5.903 -0.1456  0.0527  0.2911
77589W        W20502   7.196   2.151   2.405 -0.0396  0.0317  0.0129
77590W        W20503  10.982   0.633   7.508  0.0583 -0.1241 -0.1013
77591W        W20504  10.482   3.752   9.849 -0.1393  0.1055  0.0612
77592W        W20505  15.458   6.615   2.037 -0.1373  0.0417 -0.2557
77593W        W20506  10.080   2.483   9.424  0.1804 -0.4568  0.1433
77594W        W20507  12.401   2.724  12.620  0.3616  0.0696 -0.3397
77595W        W20508  14.020  32.290  29.750 -0.1434 -0.1496  0.0289
77596W        W20509   1.855  21.148   1.499  0.1813  0.0701 -0.1121
77597W        W20510   4.529  29.424   7.649 -0.0141 -0.1585  0.1687
77598W        W20511  32.726   3.227  26.160  0.0458  0.1830  0.0554
77599W        W20512  15.381  28.824   5.194 -0.1065 -0.0448 -0.1742
77600W        W20513  17.814   0.623   0.780 -0.1301  0.0906 -0.1560
77601W        W20514   7.759  10.766  10.120  0.3322 -0.0087  0.2033
77602W        W20515   7.301   7.972   6.067 -0.1429 -0.2995  0.1356
77603W        W20516  12.333  32.095   4.406 -0.3252  0.2041 -0.2383
77604W        W20517  14.807   3.121   4.852 -0.0417  0.0956  0.0162
77605W        W20518   7.874   2.078   4.129  0.4547 -0.0534 -0.2821
77606W        W20519   6.901   4.260  28.181  0.4658 -0.0834 -0.0997
77607W        W20520   8.958   0.723  23.159  0.3910 -0.3868  0.1388
77608W        W20521   7.489  26.024   2.282 -0.0648  0.2264 -0.0094
77609W        W20522   8.919  34.182  10.794  0.2176 -0.0392 -0.0580
77610W        W20523  13.248  11.809   8.239  0.2594  0.2162  0.3398
77611W        W20524  10.124   7.579   5.152  0.1545  0.1456 -0.0470
77612W        W20525  14.455  31.544  25.142  0.1799  0.0742 -0.1341
77613W        W20526  10.253   3.960  12.409  0.1614  0.3524  0.0585
77614W        W20527  14.714   4.869   6.141  0.0090  0.1448  0.2867
77615W        W20528  13.748   2.176  10.987 -0.0159  0.2248  0.0613
77616W        W20529  17.877   1.318   4.404 -0.2151 -0.0220  0.0615
77617W        W20530  12.515  31.030   5.353 -0.1179  0.0946 -0.0714
77618W        W20531   5.091   3.825  11.221  0.0292  0.2602  0.0461
77619W        W20532   6.823   7.972   4.757 -0.0150  0.0473 -0.0551
77620W        W20533   8.842  30.825   1.918 -0.1379 -0.1173  0.2499
77621W        W20534  33.620  29.949   8.414 -0.1937  0.2898  0.0577
77622W        W20535  17.041  27.098   4.189 -0.1793 -0.3580 -0.1288
77623W        W20536  10.226  31.685  12.155 -0.0641  0.0976  0.3679
77624W        W20537   9.043  29.329  11.633  0.0947 -0.0613  0.0824
77625W        W20538  13.822   0.905   4.973 -0.3113  0.3149 -0.1077
77626W        W20539  18.682   2.361   5.904 -0.1185  0.1057  0.0991
77627W        W20540  19.206   2.271   3.762 -0.0677  0.3357 -0.0336
77628W        W20541  13.253   5.575   0.870  0.1795  0.1245 -0.4322
77629W        W20542   5.463  31.690   8.788  0.1424 -0.0501  0.1000
77630W        W20543  34.195   0.728   9.300  0.2773  0.2198 -0.3017
77631W        W20544  13.898  33.914   3.424  0.1226 -0.0316  0.2360
77632W        W20545  12.276  32.960   7.402  0.5629  0.1592  0.1386
77633W        W20546  15.496   9.425  25.984  0.1615 -0.0905 -0.0801
77634W        W20547   4.312  28.575   6.652  0.0128  0.1450  0.2174
77635W        W20548   8.769  31.618   3.868  0.0748  0.2734 -0.0253
77636W        W20549   5.310  31.688  10.933 -0.1769 -0.1311 -0.0750
77637W        W20550   4.790  33.611   8.463  0.0338  0.0735  0.0579
77638W        W20551   6.943  10.568   7.074  0.2066  0.1988  0.0359
77639W        W20552   4.733   9.976   8.754  0.1476 -0.0471  0.1729
77640W        W20553  19.893  34.119   8.219 -0.0760  0.2038 -0.0839
77641W        W20554   4.989  31.619   9.885  0.1692 -0.3915  0.0150
77642W        W20555  17.484  25.009   1.540 -0.0013 -0.3669 -0.0700
77643W        W20556   4.885   9.411  27.227  0.0564  0.0067  0.0070
77644W        W20557  12.270   4.382   6.292  0.1533  0.2816  0.1036
77645W        W20558   5.867   0.449  10.884  0.0782 -0.0359 -0.3576
77646W        W20559   8.812  29.966   8.847 -0.1561  0.3634 -0.0362
77647W        W20560  11.822   4.158   5.477  0.2359  0.0169  0.2230
77648W        W20561   0.418  28.878  29.307  0.1012  0.0202  0.1607
77649W        W20562  14.081  28.660  21.741 -0.0210 -0.2487  0.0815
77650W        W20563   5.994   0.593   8.302  0.0655 -0.0350  0.0566
77651W        W20564   6.515  13.493   4.780 -0.2049  0.1436 -0.1980
77652W        W20565   4.361  32.621   6.645 -0.0744  0.1047  0.0031
77653W        W20566  13.972  10.094   9.117 -0.0039  0.1194  0.1283
77654W        W20567  14.146   1.161   4.214  0.1680  0.0113 -0.2034
77655W        W20568   4.527   1.096   7.694 -0.0698  0.2816  0.0172
77656W        W20569   9.162   2.292   7.307  0.3075 -0.3066 -0.1260
77657W        W20570  12.545  28.963   4.146 -0.0275 -0.2376  0.5790
77658W        W20571   2.257  11.008   4.076  0.0920 -0.0640 -0.3005
77659W        W20572  19.064   7.006   5.708  0.0529  0.2800  0.2546
77660W        W20573   3.473  22.933   2.944 -0.0353  0.0994  0.1647
77661W        W20574   1.243  15.478  26.867 -0.3641 -0.2169 -0.3244
77662W        W20575   9.343   1.719  12.584  0.1276  0.1282 -0.1025
77663W        W20576   7.250   3.459  12.281  0.2797  0.0323  0.2316
77664W        W20577   7.365   3.672  27.213  0.0354 -0.1669  0.3284
77665W        W20578   6.195  11.591   5.217  0.1859  0.0018  0.0620
77666W        W20579  18.191   4.433   5.277  0.0288 -0.2182 -0.2408
77667W        W20580   1.893  10.845  11.081 -0.0813 -0.1384 -0.1166
77668W        W20581  12.745   9.385   0.451  0.2734 -0.0572 -0.0222
77669W        W20582  31.220  31.779   5.660 -0.3226 -0.0479 -0.0249
77670W        W20583  10.430  28.434  11.231  0.3111 -0.2104 -0.2906
77671W        W20584  10.665   4.157  12.317  0.0090 -0.1091 -0.0598
77672W        W20585  15.486  32.952   7.048 -0.2447  0.0891  0.1905
77673W        W20586   8.596   1.234  12.148 -0.1070  0.0096 -0.3586
77674W        W20587  15.195   0.680   9.421  0.2245 -0.3723  0.0043
77675W        W20588  11.914  31.281   7.991 -0.1264 -0.1553 -0.1043
77676W        W20589   8.056   4.070  10.324 -0.2344 -0.2580  0.0166
77677W        W20590  10.936   1.132  12.009 -0.2301  0.3021 -0.0342
77678W        W20591   7.468  32.262   5.825 -0.0869  0.0399  0.0207
77679W        W20592   6.436   7.891   3.909 -0.1873  0.0891 -0.2085
77680W        W20593  10.805   3.426   9.609 -0.4712 -0.2299 -0.3606
77681W        W20594   3.881   1.192   7.119 -0.0047 -0.1977  0.2205
77682W        W20595  14.485  31.611   6.328  0.0817  0.1886  0.4687
77683W        W20596   9.806  29.404   9.455 -0.0407 -0.1472 -0.0420
77684W        W20597  32.737   1.600   2.620 -0.0831  0.1084  0.0862
77685W        W20598  32.892  33.731   6.656 -0.3280  0.1632  0.0302
77686W        W20599   6.359  33.060  10.275 -0.1105  0.2641 -0.0414
77687W        W20600  27.901  32.069   6.609 -0.1663 -0.0769  0.0282
77688W        W20601   8.616   6.356   8.945 -0.2884  0.2103  0.1867
77689W        W20602  33.981  13.428   2.682 -0.2159 -0.0083 -0.2259
77690W        W20603  10.264  29.376   8.452  0.0988 -0.2563  0.1120
77691W        W20604   9.491  26.299   4.655  0.3284  0.1386 -0.2367
77692W        W20605  13.198   6.404   8.569 -0.1762  0.1344 -0.0314
77693W        W20606  14.783   2.621   7.055  0.2754  0.0114  0.2359
77694W        W20607   7.720  19.659   7.665 -0.1318 -0.0219 -0.3324
77695W        W20608  16.721  33.843   5.912 -0.5034 -0.2643  0.2616
77696W        W20609   6.319   4.299  12.620  0.1196 -0.3074 -0.1783
77697W        W20610  33.296   1.408   7.425 -0.0957 -0.0999 -0.1123
77698W        W20611   5.895  34.441  12.029 -0.1155  0.0396 -0.0322
77699W        W20612  32.588  26.061   7.755  0.0362  0.2104  0.0378
77700W        W20613  14.264  32.956  10.291  0.2293 -0.3073 -0.0243
77701W        W20614  10.835  32.683   8.635  0.1727  0.0218 -0.0967
77702W        W20615  15.312  29.793   9.723 -0.0956  0.0442  0.0330
77703W        W20616  13.522   7.400   9.925 -0.1292  0.2489  0.0225
77704W        W20617  15.023  10.262   8.727  0.0975 -0.1025  0.2664
77705W        W20618   5.381  31.513   2.341 -0.2094 -0.2111  0.3009
77706W        W20619   2.396  23.389  20.682 -0.0483 -0.0277  0.4625
77707W        W20620  31.903  29.532   7.682  0.0780 -0.2631  0.1914
77708W        W20621   1.883   3.068   8.689 -0.2680  0.1131  0.2860
77709W        W20622   2.672  32.940   8.668  0.0445  0.1412 -0.2188
77710W        W20623  18.841  30.110   8.874  0.1152 -0.0254  0.4555
77711W        W20624   2.037   8.819   5.920  0.0335 -0.2089 -0.2146
77712W        W20625   4.627   1.798   8.673  0.0239 -0.0276 -0.1075
77713W        W20626   6.876   3.980   6.976  0.1912 -0.0752  0.1190
77714W        W20627   6.461   7.374  12.633  0.0587 -0.1144 -0.3152
77715W        W20628  13.404   3.570  10.993 -0.1794 -0.0995  0.0955
77716W        W20629  11.646   4.555  12.212 -0.1352  0.1808  0.2204
77717W        W20630  31.999   0.152   9.382  0.1976 -0.0148 -0.0089
77718W        W20631   7.446   5.834   8.577 -0.2387  0.0563  0.2193
77719W        W20632  11.634  11.278   4.871  0.0510  0.0625 -0.0754
77720W        W20633  19.945  10.356   4.850 -0.1344  0.2522 -0.0219
77721W        W20634  12.044   0.392  25.504  0.2492  0.3374 -0.1491
77722W        W20635   7.006   4.386   4.736  0.2110 -0.0419  0.4886
77723W        W20636  17.218  34.028   8.795 -0.2379 -0.0794 -0.0921
77724W        W20637   0.006   9.427   7.925  0.3785  0.0050 -0.2369
77725W        W20638   7.523   1.961   8.976 -0.0185 -0.4928 -0.0217
77726W        W20639  10.419  29.718   3.735 -0.0863 -0.2708  0.0568
77727W        W20640  10.915   4.671  28.138  0.2651 -0.0467 -0.2185
77728W        W20641   7.696  29.029  10.612  0.0190 -0.1036  0.1780
77729W        W20642   7.811   9.070  28.544  0.0548 -0.2311 -0.0826
77730W        W20643   4.484  11.254   9.720 -0.2430  0.4570 -0.3745
77731W        W20644  13.389   1.513   2.763  0.0368  0.1229  0.2669
77732W        W20645   4.076   0.719  11.825 -0.0578  0.0226 -0.0104
77733W        W20646   5.158  14.913   5.698  0.2031  0.0397  0.1369
77734W        W20647   4.711   8.373  27.604 -0.2650  0.2604  0.3962
77735W        W20648   7.776   3.069   9.560  0.1782 -0.0399 -0.1025
77736W        W20649  13.157  23.302   5.452  0.0860  0.1299 -0.2774
77737W        W20650   2.071   2.130   0.683  0.2567 -0.3021  0.3818
77738W        W20651   5.049   4.854  11.994 -0.0638 -0.1373  0.1535
77739W        W20652  19.749   0.148   7.978 -0.3318  0.0334  0.2003
77740W        W20653   1.892   6.265  12.971  0.1258 -0.2663  0.0377
77741W        W20654  30.921   2.943   9.475  0.2459 -0.1459  0.3292
77742W        W20655  11.947   6.380  11.210  0.0475 -0.3100  0.0125
77743W        W20656   4.452  10.684  29.148 -0.0057 -0.1343 -0.3208
77744W        W20657   7.919   2.508  12.727  0.4257 -0.1642  0.0450
77745W        W20658   4.563   4.271   3.776  0.1984  0.3495 -0.1856
77746W        W20659  10.681   5.392   8.806 -0.0079 -0.0480  0.0136
77747W        W20660  10.317  32.998   4.841  0.2067  0.3417  0.0690
77748W        W20661   6.372   7.587   4.734 -0.1148 -0.0380 -0.1628
77749W        W20662  17.077  28.065   6.460  0.1348 -0.2589  0.0749
77750W        W20663  14.588   0.330  11.466 -0.3301  0.1637 -0.1225
77751W        W20664   4.574  32.569   4.063 -0.1864 -0.1220 -0.1613
77752W        W20665   8.263   3.829  11.695 -0.0956 -0.2207 -0.2427
77753W        W20666  10.503  30.133   8.033 -0.4986  0.1392 -0.1200
77754W        W20667   4.143   1.495  12.318  0.1382  0.0758  0.1461
77755W        W20668  14.018   3.787   6.860  0.0183 -0.0924 -0.0724
77756W        W20669   4.774   3.229  12.842 -0.0261  0.1560 -0.1091
77757W        W20670   2.004   5.969  12.196 -0.1854  0.0401 -0.1408
77758W        W20671   8.980  32.111  12.513  0.3587 -0.4054 -0.3212
77759W        W20672  19.223  33.858   6.859 -0.0162 -0.2739  0.3154
77760W        W20673   4.422  12.417   7.948 -0.0487 -0.3344  0.2581
77761W        W20674  10.537   9.472   5.905  0.0593  0.2343  0.0241
77762W        W20675  15.320  26.342   1.868 -0.0893 -0.0882  0.0632
77763W        W20676   2.499   6.154   9.097  0.0173  0.0008  0.4712
77764W        W20677   8.423   7.653   4.510 -0.0569 -0.0632  0.1155
77765W        W20678   8.699   2.063   4.846  0.2942 -0.0739  0.0266
77766W        W20679  10.049   1.745   0.853 -0.0329 -0.0723 -0.1954
77767W        W20680  29.937   4.206   5.183  0.0514 -0.1215  0.0059
77768W        W20681   8.351   1.300   9.270 -0.3587 -0.0099  0.0878
77769W        W20682   7.530   7.043   1.735 -0.0641 -0.2926  0.1881
77770W        W20683   5.310  30.777   7.120 -0.0563  0.0990  0.2645
77771W        W20684  17.258   2.536  10.637  0.1636  0.1751 -0.5170
77772W        W20685   6.823   0.566   7.899 -0.0303 -0.1215  0.0452
77773W        W20686  16.795  12.686   4.045  0.2764  0.2103  0.5141
77774W        W20687  14.192  25.907   4.856 -0.0917  0.0254 -0.1928
77775W        W20688   7.348  13.375  10.316  0.0036  0.0929 -0.5119
77776W        W20689   3.780  13.736  27.249  0.3387  0.1882  0.3864
77777W        W20690  10.021  30.149  25.088  0.1832 -0.1186 -0.0288
77778W        W20691   2.239  16.868   2.695  0.5169  0.2639 -0.1248
77779W        W20692   2.437   3.940   0.186 -0.0071  0.3308  0.2888
77780W        W20693   6.010  10.030   8.060  0.1544 -0.2315 -0.0519
77781W        W20694   9.653  29.771  11.274  0.1902 -0.0552 -0.0235
77782W        W20695  14.124  12.949   8.975 -0.0787  0.3011 -0.2078
77783W        W20696   5.665  34.252  10.187  0.1350 -0.1177  0.0481
77784W        W20697   9.004   7.946   0.558 -0.1103 -0.1020  0.2107
77785W        W20698  17.309   5.870   5.973  0.2663  0.0282 -0.2984
77786W        W20699  31.331  33.887   9.915 -0.0088 -0.0171 -0.1543
77787W        W20700  21.754   8.128   7.174 -0.3351 -0.1422  0.2182
77788W        W20701   9.313  31.748  12.728  0.1151  0.1395 -0.0370
77789W        W20702   6.836  29.122   8.529 -0.1445  0.1959 -0.0140
77790W        W20703   1.161  32.062   9.873  0.1616 -0.0466 -0.0028
77791W        W20704  11.030  30.500  11.840 -0.1199  0.2872  0.0765
77792W        W20705  17.473   1.253   9.366  0.2035  0.3403  0.1156
77793W        W20706   2.439  23.880   8.628 -0.1667  0.0683  0.1937
77794W        W20707  11.293   0.298   1.021 -0.2489 -0.0385 -0.0691
77795W        W20708  16.568  33.071   4.898  0.3985  0.2226  0.1609
77796W        W20709   7.815   2.558   7.614 -0.2264  0.0216 -0.1673
77797W        W20710   6.298  33.593   8.550 -0.1340  0.1321 -0.0907
77798W        W20711  13.613  31.394   7.895 -0.0898  0.0946 -0.0252
77799W        W20712  32.818  33.700   8.496 -0.0861  0.2840 -0.1354
77800W        W20713   7.957  32.648   7.013  0.2564 -0.1155 -0.0293
77801W        W20714  15.768  33.950   8.081  0.0238  0.0626 -0.0088
77802W        W20715   6.829  10.803  10.457 -0.0563 -0.0131 -0.0438
77803W        W20716  10.109  10.042   9.427  0.0318  0.1146  0.3387
77804W        W20717  34.137   4.609   9.745  0.1087 -0.1623  0.1239
77805W        W20718  12.163   6.430   3.605  0.1290  0.3075 -0.2355
77806W        W20719   0.650  28.742   5.465 -0.1860  0.2517  0.1566
77807W        W20720   8.455  25.308  27.454 -0.1435  0.1058  0.1660
77808W        W20721  34.168   2.733   8.741  0.2947 -0.1199 -0.0594
77809W        W20722  10.509  12.188   4.809  0.3337 -0.3324 -0.1803
77810W        W20723   5.226  28.081   1.165 -0.2085 -0.0111  0.0450
77811W        W20724   4.680   9.113   6.644 -0.0737 -0.2327 -0.0551
77812W        W20725  31.651  28.607   9.344 -0.3101 -0.0523 -0.0747
77813W        W20726  18.578   6.557   7.855  0.1849  0.3012 -0.1942
77814W        W20727   8.395  32.256   9.709 -0.2002  0.1958  0.1590
77815W        W20728  10.970  31.221  10.753  0.2312 -0.1430 -0.1548
77816W        W20729   6.412  32.375   1.240  0.0533 -0.0453 -0.1939
77817W        W20730  18.356  29.698   6.279  0.3606  0.1710  0.1039
77818W        W20731  11.973   3.731  10.392  0.0858  0.2376 -0.0358
77819W        W20732   9.435   5.321   3.191 -0.2068 -0.3800  0.1060
77820W        W20733   6.865  10.502  11.937  0.4575 -0.1086  0.1813
77821W        W20734   0.637  33.061   9.309  0.4747 -0.1690  0.0860
77822W        W20735  13.106  31.526  11.352 -0.2860  0.0030  0.0658
77823W        W20736   7.644  34.023  10.322 -0.1856  0.1199 -0.3916
77824W        W20737   1.851   4.254  12.365 -0.1679 -0.0697 -0.0256
77825W        W20738   9.130  31.903   9.944  0.0549  0.0087  0.4622
77826W        W20739   8.211  33.482   7.067  0.0541  0.1381 -0.2617
77827W        W20740   3.743   5.162   5.691  0.2777 -0.2488  0.0277
77828W        W20741  11.454   5.073   5.826 -0.2232 -0.1170 -0.0907
77829W        W20742  15.345  33.354   1.139  0.0698 -0.0063  0.2790
77830W        W20743   8.248  31.387   4.088 -0.0375  0.1750 -0.0978
77831W        W20744  33.524   5.607   0.597  0.1361 -0.3999 -0.3357
77832W        W20745   4.001   6.910   8.545 -0.0496  0.2937  0.3355
77833W        W20746  14.077  33.361  11.134  0.2319 -0.2260 -0.1168
77834W        W20747  13.788  34.325   4.818  0.0700 -0.1824 -0.2187
77835W        W20748   8.982  32.517   2.146  0.2484  0.2175 -0.1802
77836W        W20749  16.542   4.028   0.909 -0.1793 -0.0097 -0.0119
77837W        W20750  10.924  14.034  26.548  0.1335  0.0154 -0.0354
77838W        W20751  32.037   2.164  29.243  0.3690 -0.0539  0.0859
77839W        W20752  22.873   3.197   3.346 -0.1953  0.1803 -0.0707
77840W        W20753  11.043  14.369  22.993  0.1817  0.0551  0.0287
77841W        W20754   3.994  12.737   3.399 -0.0192 -0.0473 -0.2157
77842W        W20755   0.273   6.470  22.557  0.0867 -0.1335  0.0134
77843W        W20756  19.559   9.488   4.564 -0.1122 -0.0926 -0.2114
77844W        W20757  14.327   1.396   1.552  0.0240 -0.0706 -0.1501
77845W        W20758  13.955  30.533   2.586  0.1187 -0.0652 -0.1890
77846W        W20759   5.576   2.841  28.681 -0.1396 -0.1429 -0.0156
77847W        W20760   9.801   5.344   4.982 -0.1940 -0.0526  0.2862
77848W        W20761   5.698  17.093   5.945 -0.0920  0.0107 -0.0739
77849W        W20762  17.965   8.355   2.992  0.1753  0.0508 -0.0750
77850W        W20763  14.217  32.372   7.019 -0.0565  0.1439  0.0632
77851W        W20764  17.972   3.667  26.133 -0.0774 -0.1670 -0.0864
77852W        W20765   6.748  31.330   7.473 -0.2160 -0.0342 -0.3750
77853W        W20766  12.573  27.586   2.848 -0.1111  0.2595  0.0789
77854W        W20767   6.179   5.333   0.625  0.2523  0.2322  0.0496
77855W        W20768  12.212   6.400  27.054  0.0594 -0.2187  0.2127
77856W        W20769  15.967  33.732  11.161 -0.1720  0.1775 -0.2147
77857W        W20770  26.011  15.025   6.551  0.0257  0.0478 -0.3396
77858W        W20771  10.584  10.971  22.960  0.0499 -0.0602  0.0039
77859W        W20772  14.502  29.179   3.285  0.1032  0.2077 -0.1537
77860W        W20773   4.489  32.768  10.928  0.2820 -0.0795  0.1483
77861W        W20774   5.785   8.706   0.607 -0.0980  0.3371  0.2357
77862W        W20775   8.845  26.827   5.647  0.1707 -0.0621 -0.3112
77863W        W20776   6.942  15.378   6.670 -0.1652  0.0293  0.1234
77864W        W20777  33.518   4.307   3.866 -0.5278 -0.2432  0.0928
77865W        W20778  11.300  11.768   2.865  0.1415 -0.0381 -0.0201
77866W        W20779  15.811   9.417   4.002 -0.2293  0.0147 -0.0901
77867W        W20780  32.474   6.861  29.253 -0.2435 -0.1695 -0.0369
77868W        W20781   8.572   3.484  13.744  0.2449  0.1311 -0.1941
77869W        W20782   2.915   4.847   9.491 -0.2386 -0.0950  0.0283
77870W        W20783  14.483   7.953   6.519  0.3860 -0.0839 -0.0917
77871W        W20784   5.152   0.562  24.742 -0.2803  0.0130  0.0995
77872W        W20785   7.536   3.420  12.720  0.1462  0.2000 -0.1897
77873W        W20786   5.094  32.067   7.233 -0.3109 -0.0912 -0.1491
77874W        W20787   9.277  33.755   4.393  0.0603 -0.0688 -0.1202
77875W        W20788  24.306   3.972  28.433  0.0755 -0.3208  0.1286
77876W        W20789  16.198  15.177   6.064  0.2427 -0.2676  0.1085
77877W        W20790   9.765   2.935  25.720  0.0625  0.3361  0.0854
77878W        W20791   7.984   2.963   1.465 -0.1518  0.1600 -0.2921
77879W        W20792   9.287   5.458   1.709  0.1577  0.1517  0.1123
77880W        W20793   5.942  19.824   2.827 -0.1232  0.1349 -0.1044
77881W        W20794   3.056   9.849   2.293  0.0611 -0.0690  0.0760
77882W        W20795   6.147   4.071  29.769 -0.2532  0.0849  0.1330
77883W        W20796  17.694  13.266   5.738 -0.0789  0.1195  0.1237
77884W        W20797  12.888   7.557   2.182 -0.2954  0.1053 -0.0632
77885W        W20798   5.505  30.859   9.322 -0.0861  0.1934 -0.1727
77886W        W20799   5.913   5.912  29.747  0.2477  0.2702  0.3107
77887W        W20800   2.283   4.741   3.069  0.0860  0.0677 -0.3995
77888W        W20801   8.234   7.160   6.636  0.0441 -0.1491 -0.1943
77889W        W20802  10.642  32.685   1.761 -0.3233 -0.0362 -0.2148
77890W        W20803  17.268   9.387   0.162  0.2609  0.0479  0.1083
77891W        W20804  11.329   3.203   8.395 -0.1052  0.2566 -0.0643
77892W        W20805  10.536   8.553   6.032 -0.1644 -0.2138 -0.0438
77893W        W20806  19.194  25.173  25.854  0.3122 -0.0506 -0.0573
77894W        W20807   7.129  29.009   6.962  0.0366  0.3322 -0.1056
77895W        W20808   9.780  34.486   6.105 -0.0361  0.2701 -0.1915
77896W        W20809  10.322  28.865   5.123  0.0865 -0.0092 -0.1322
77897W        W20810   7.540  27.685   2.032 -0.0091  0.0057  0.3243
77898W        W20811  10.814   4.206   4.175 -0.0106 -0.3133 -0.1555
77899W        W20812  15.498  10.057   5.821 -0.0478  0.1015 -0.0354
77900W        W20813  22.943  33.211   8.946  0.2056 -0.0377  0.0943
77901W        W20814  13.269  15.647  29.517  0.3093  0.1201 -0.0515
77902W        W20815  14.201   5.563  20.407  0.1660  0.1443  0.3030
77903W        W20816  10.149   7.120  29.339 -0.1072 -0.0071  0.1070
77904W        W20817   6.167  32.075   2.425 -0.0821  0.1564 -0.0499
77905W        W20818   5.115   6.759   2.449  0.1620 -0.2629 -0.0137
77906W        W20819   9.599   0.274  12.380  0.0606  0.3903  0.3323
77907W        W20820   9.135  11.672   8.011  0.4373 -0.0352  0.1861
77908W        W20821   8.360  33.556  12.074  0.0327 -0.1318 -0.0327
77909W        W20822  20.822   5.091   6.673 -0.2831 -0.2693  0.0816
77910W        W20823   3.502   9.028  28.403 -0.2746 -0.0173  0.3338
77911W        W20824  16.922   2.671  27.094 -0.0737  0.0075 -0.2013
77912W        W20825   9.057   9.893  27.176 -0.2035 -0.2553 -0.2729
77913W        W20826  33.443   8.184   5.404 -0.1223  0.2402  0.1661
77914W        W20827   0.703  15.284   1.192  0.1561 -0.1357  0.0880
77915W        W20828  26.787   5.891  29.350  0.4617  0.0647 -0.0414
77916W        W20829   8.464   4.127   9.309  0.0410 -0.0538  0.2932
77917W        W20830   6.481   0.302  10.224 -0.3543  0.3295 -0.1154
77918W        W20831   7.482  28.101  25.665  0.3591 -0.2943  0.0344
77919W        W20832   9.574  10.442  11.537 -0.0031  0.1569 -0.0478
77920W        W20833  14.688  21.942   3.078 -0.0578 -0.1277  0.0435
77921W        W20834   7.226   6.825   0.163 -0.4310  0.0609  0.2105
77922W        W20835  12.843   5.026  20.898  0.4679  0.2555  0.0281
77923W        W20836   2.539   1.555  12.503  0.2926 -0.3663  0.0245
77924W        W20837   8.784  14.983   2.909 -0.0355  0.1139 -0.1232
77925W        W20838   2.753   1.867   9.491 -0.0975 -0.0617 -0.1712
77926W        W20839   9.970   0.472  27.403  0.0655 -0.0457 -0.0044
77927W        W20840  30.371   3.718   9.506 -0.1006  0.1055  0.1703
77928W        W20841  10.902  33.526  28.259  0.4281  0.0594 -0.0506
77929W        W20842  19.900   3.388   4.665 -0.2902  0.0675  0.1227
77930W        W20843   6.272   3.225  29.426  0.0481 -0.0954  0.1311
77931W        W20844   6.881   8.787  28.165  0.0210  0.2966 -0.1830
77932W        W20845  22.684   7.756   9.405 -0.1413  0.0095 -0.0417
77933W        W20846  12.888  33.426   0.758  0.0507 -0.0082 -0.3214
77934W        W20847   0.207  33.857  16.291  0.0474 -0.0713 -0.0525
77935W        W20848  15.426  11.938  28.188  0.0255 -0.2512  0.1551
77936W        W20849  34.009  16.870   0.345 -0.3493 -0.2300 -0.1960
77937W        W20850  16.536   6.930  14.736  0.0309  0.1649  0.0528
77938W        W20851  11.930  10.130   9.086  0.0647  0.1434  0.1892
77939W        W20852   5.716   5.141   1.459 -0.1308 -0.1062  0.3040
77940W        W20853  14.259   7.548  23.808  0.0131 -0.2112  0.0703
77941W        W20854  16.031   5.642   6.285  0.0401  0.2572 -0.0127
77942W        W20855  15.365   1.062   4.216  0.1919 -0.0364 -0.1886
77943W        W20856   1.871   8.653  25.169 -0.0728  0.0853 -0.1078
77944W        W20857  13.956  33.906  24.282 -0.0779 -0.1495  0.2509
77945W        W20858   8.883   6.448  12.965  0.1766  0.2983 -0.1469
77946W        W20859  30.031  10.922   5.916 -0.1503  0.0713 -0.2361
77947W        W20860   6.690   1.219   1.042  0.1650 -0.0904 -0.0725
77948W        W20861   9.160  14.155   0.846  0.1737 -0.0374  0.0825
77949W        W20862  13.787   5.777  23.335  0.0548  0.3337 -0.1286
77950W        W20863   1.723   6.713   3.227  0.0341 -0.0378  0.1924
77951W        W20864   7.792   8.525  12.328 -0.0213 -0.1059 -0.0006
77952W        W20865  13.289   4.139  19.502  0.1759  0.1698  0.3118
77953W        W20866   8.741   4.623   1.997  0.0636  0.1178  0.3340
77954W        W20867  15.223  29.412  21.819  0.1391  0.0991  0.0595
77955W        W20868   9.385  31.547   2.357 -0.0665  0.1462  0.1314
77956W        W20869   7.516  29.189  29.628  0.1212 -0.0827  0.0714
77957W        W20870   7.383   5.283   1.469  0.1750  0.2737  0.3280
77958W        W20871  33.126  10.330   6.178 -0.0282  0.1163 -0.3580
77959W        W20872  14.601  13.071   0.036  0.4646  0.0083  0.2889
77960W        W20873  34.294   0.703  27.609 -0.1492  0.1624  0.0582
77961W        W20874  13.453  11.879  17.665 -0.0042 -0.0001  0.3073
77962W        W20875   2.761   8.515  24.400 -0.1404 -0.1091 -0.2119
77963W        W20876  30.713   0.949  21.164  0.1462 -0.1916  0.0933
77964W        W20877   1.442  14.713   6.005  0.1422 -0.3883 -0.1380
77965W        W20878   7.477   3.719  11.843  0.0577  0.1461 -0.2333
77966W        W20879  33.859   5.759   6.801  0.1121  0.0313  0.4929
77967W        W20880   5.378  11.975  24.289 -0.3435  0.0879  0.0798
77968W        W20881  24.209   9.322   0.062  0.2238 -0.2716  0.2182
77969W        W20882  14.078   4.780   7.884  0.1702 -0.0242  0.1017
77970W        W20883   3.723   5.464  28.328  0.2756  0.2437  0.2500
77971W        W20884  12.511  12.205  23.251 -0.4377 -0.2601  0.0061
77972W        W20885   6.727   4.393  13.845 -0.1688 -0.0993  0.2515
77973W        W20886  14.399   1.020   0.389 -0.3378 -0.1190  0.2744
77974W        W20887   3.857  25.896   0.640 -0.2351  0.0498 -0.0066
77975W        W20888   7.853   3.558   8.008  0.0879 -0.1048 -0.1295
77976W        W20889  13.474  31.810   6.600 -0.1167 -0.2186 -0.1645
77977W        W20890  13.768   2.432  23.651 -0.0301  0.1353 -0.0348
77978W        W20891   2.361   8.696   6.712 -0.0912  0.0374  0.1421
77979W        W20892   2.662   4.734   5.506 -0.0748 -0.0113  0.0654
77980W        W20893  26.340   4.846   5.643  0.2935  0.0097 -0.0806
77981W        W20894  29.421  11.857   7.312 -0.1522  0.1453 -0.1098
77982W        W20895  12.545   5.977   8.061  0.3926  0.2724 -0.2440
77983W        W20896   9.134   9.979   0.671  0.1404  0.0567  0.6066
77984W        W20897   0.621   6.773   7.590  0.0010 -0.1611  0.0945
77985W        W20898  18.027  27.345   3.174  0.0651 -0.0563 -0.2820
77986W        W20899  15.829   7.090  29.484  0.0296 -0.3595 -0.0203
77987W        W20900  17.132   2.206   1.733 -0.1571 -0.0234 -0.1055
77988W        W20901  10.670   2.181  28.017  0.0338  0.0373 -0.0483
77989W        W20902   8.789  11.982  18.489  0.1343 -0.0350 -0.2265
77990W        W20903   8.440   7.763   8.921  0.0746 -0.1956  0.0898
77991W        W20904   7.981  17.068   0.274 -0.1651 -0.1056 -0.2267
77992W        W20905  14.389   7.634  21.491 -0.4610  0.2591  0.1709
77993W        W20906  33.491  14.180  27.358 -0.1306  0.3369  0.0786
77994W        W20907   7.842   5.115  17.601 -0.1405 -0.0880  0.0844
77995W        W20908  12.920   9.096  27.035 -0.2141  0.1297  0.2399
77996W        W20909  11.250  23.055   4.439  0.1836 -0.0443  0.1708
77997W        W20910   2.764  11.466  28.606 -0.2138 -0.0676  0.2149
77998W        W20911  17.635   8.171   7.027  0.0833 -0.2171 -0.0230
77999W        W20912   5.577   8.783  24.527  0.3252  0.1675 -0.1820
78000W        W20913  18.168  13.026  24.112 -0.0735  0.0619 -0.1110
78001W        W20914   2.726   6.478  10.222 -0.1183 -0.1544 -0.3560
78002W        W20915  14.134   8.518   4.384  0.1936  0.2743  0.1869
78003W        W20916   6.451   1.782   0.196 -0.1015 -0.4393 -0.0078
78004W        W20917   3.593  14.431   2.207 -0.2258  0.1519  0.0017
78005W        W20918  11.569   2.150   2.103  0.4011 -0.1635  0.0806
78006W        W20919   9.341  23.965  26.037 -0.2017  0.0969 -0.0263
78007W        W20920   7.019  12.868   7.426 -0.0697  0.0699 -0.3239
78008W        W20921  19.020   7.004   4.418 -0.1027 -0.2372  0.0070
78009W        W20922   5.453   7.121   3.947  0.0447  0.0731  0.1195
78010W        W20923  16.174   3.866   5.537 -0.0772 -0.1487  0.3771
78011W        W20924   8.055   5.232   1.731  0.1392 -0.1947  0.1771
78012W        W20925   3.753   4.655   5.718 -0.0272 -0.1340  0.0088
78013W        W20926  11.299  34.387   2.965  0.4192  0.0909 -0.1897
78014W        W20927   0.911   3.660  25.628  0.0719  0.2267 -0.4762
78015W        W20928  10.409   6.903   6.314 -0.0406 -0.2904 -0.3001
78016W        W20929   7.235   3.221   2.168  0.0111  0.3010  0.2010
78017W        W20930   2.460  13.855  29.622 -0.1666  0.1637  0.1486
78018W        W20931  23.811  27.583  29.469 -0.0103  0.1060 -0.0330
78019W        W20932  10.421  33.863  10.113 -0.2075  0.0532  0.0004
78020W        W20933   3.541  25.415   7.679 -0.3062 -0.1608  0.0774
78021W        W20934   0.072   2.990  10.617 -0.1860 -0.0630 -0.0840
78022W        W20935   8.779   1.410   7.618  0.0121  0.0863  0.2404
78023W        W20936   2.307  13.544   8.790 -0.2073 -0.0560  0.0921
78024W        W20937  10.232  26.270   5.865  0.0976 -0.2340  0.5395
78025W        W20938   7.832  16.487  20.202  0.2533  0.2583 -0.0715
78026W        W20939   7.507  15.380   4.933  0.2536  0.0860  0.0171
78027W        W20940   4.823  11.889  28.983  0.0553 -0.2100 -0.3472
78028W        W20941   4.980  12.739   6.483 -0.1343  0.3863  0.3127
78029W        W20942  14.037   6.020   1.994  0.6627  0.0259 -0.2358
78030W        W20943  14.812   5.422   2.159 -0.1149  0.3687 -0.1765
78031W        W20944   8.052  29.218   0.165  0.3036  0.1152  0.0944
78032W        W20945   8.474   4.583  11.109 -0.2502 -0.0485 -0.1807
78033W        W20946   7.402   8.393   6.392  0.1549 -0.2230  0.0077
78034W        W20947   8.672   3.706  29.647 -0.0692  0.1669 -0.0713
78035W        W20948  15.070  11.389  14.651 -0.0547  0.0083 -0.0786
78036W        W20949  12.194  26.329   7.168  0.3771  0.1316 -0.0758
78037W        W20950  18.959   7.490   4.267  0.2277 -0.4442 -0.0644
78038W        W20951  29.525  15.296   2.389 -0.1711  0.1789 -0.2150
78039W        W20952  12.009  30.591  11.560  0.2341  0.3474 -0.0472
78040W        W20953   9.810   5.500   1.537  0.0534 -0.0426 -0.1238
78041W        W20954  13.496   9.660   2.468  0.1959  0.0019 -0.1989
78042W        W20955  33.192  33.408  10.892 -0.1866  0.1918  0.2229
78043W        W20956   7.843   2.341   9.317  0.2325  0.0162  0.0435
78044W        W20957   1.562  33.238   5.667  0.3839  0.1251 -0.1310
78045W        W20958  16.023  33.461   6.578  0.3166 -0.0609 -0.0506
78046W        W20959  14.634  30.920   0.142  0.1109  0.2361  0.1585
78047W        W20960  12.098  29.731   7.599  0.0881  0.2741  0.0626
78048W        W20961  24.986  32.309  23.067 -0.0377 -0.1126  0.0909
78049W        W20962  13.660  33.671  11.299  0.0346  0.1846 -0.2261
78050W        W20963   5.252  33.061   2.204 -0.0872 -0.0514 -0.6195
78051W        W20964  32.529  12.988   5.231  0.0877  0.0662 -0.0313
78052W        W20965   4.768   2.817   8.020  0.0571 -0.1738  0.0208
78053W        W20966  17.603  30.464   9.511  0.0401 -0.2328  0.0020
78054W        W20967   7.355   6.125  28.543 -0.3786 -0.0202 -0.0287
78055W        W20968   8.792   6.090  29.295  0.0755  0.3597  0.1830
78056W        W20969   5.835   7.840  27.690  0.0305  0.0221 -0.2387
78057W        W20970  11.466   4.505  27.225 -0.2748  0.1467 -0.0849
78058W        W20971  33.948  28.501  24.709  0.1195 -0.1610  0.2251
78059W        W20972  15.008  11.242  27.409 -0.0959 -0.1851 -0.1061
78060W        W20973  11.792   8.188   1.819  0.2426  0.2723 -0.2361
78061W        W20974   4.325   1.293   4.488  0.1182 -0.4807 -0.1898
78062W        W20975   0.362  33.386  18.765 -0.1478  0.0979  0.1558
78063W        W20976  16.208  32.600   4.840  0.0296 -0.3202 -0.0291
78064W        W20977  14.565  11.612  13.739 -0.1121 -0.2242 -0.0134
78065W        W20978   9.307   8.106  24.278  0.1002 -0.2071 -0.2158
78066W        W20979   9.415   6.156   4.794  0.1326  0.2971 -0.1849
78067W        W20980  18.285  33.177  18.054 -0.3073  0.0590 -0.2153
78068W        W20981  33.354   3.479   5.184  0.2483  0.1572  0.1341
78069W        W20982   8.043   0.748   0.895 -0.1346  0.0433  0.0086
78070W        W20983   3.901  34.471  24.081  0.1192  0.4086 -0.0921
78071W        W20984  19.084  10.181  28.010 -0.0075  0.3039 -0.0127
78072W        W20985   5.133   9.690   5.293 -0.0071 -0.2857 -0.0970
78073W        W20986   3.404  14.926   4.325  0.1664  0.0838  0.2386
78074W        W20987  18.505   0.732   7.369 -0.0101 -0.1856  0.2976
78075W        W20988  13.088  11.572  20.157  0.2255  0.1073  0.1412
78076W        W20989   7.263  33.424  11.346 -0.1294  0.2860  0.2767
78077W        W20990  30.757   5.214   8.004  0.1157  0.1596  0.1547
78078W        W20991   1.033   7.542   0.878  0.2129  0.1685 -0.0752
78079W        W20992  16.377  31.864  10.732 -0.0921  0.0297  0.2427
78080W        W20993  12.900   6.844   1.021 -0.0226  0.0834 -0.0987
78081W        W20994   9.352  33.139   9.179  0.1270 -0.0657 -0.1216
78082W        W20995   9.078   4.778  11.034 -0.0071 -0.4306  0.2005
78083W        W20996   1.924  33.921  29.477  0.5898 -0.0675 -0.1351
78084W        W20997   6.112   6.159  24.100 -0.1312  0.3383 -0.2104
78085W        W20998   1.184   5.385  12.791 -0.0663 -0.1924  0.1147
78086W        W20999  10.580   6.346   9.934  0.0712  0.1891 -0.2363
78087W        W21000  15.081   2.494   0.659 -0.2584 -0.3176  0.0898
78088W        W21001  32.935   9.407   1.706 -0.0255 -0.0199  0.0871
78089W        W21002   8.265   9.583  10.890  0.0804  0.1113 -0.1319
78090W        W21003  10.430   3.504   3.090 -0.1251  0.1306  0.2983
78091W        W21004  12.593   9.164   5.443  0.0705 -0.0210  0.1225
78092W        W21005  28.303   8.285  27.076 -0.1006  0.1938 -0.0973
78093W        W21006   8.995  33.945   5.871  0.0326  0.0525 -0.0803
78094W        W21007   3.196  33.483  21.166  0.0770 -0.1787 -0.1653
78095W        W21008  15.768  32.554   1.940  0.3010  0.1722  0.0829
78096W        W21009  10.106  33.977  10.460  0.1223 -0.2550  0.0124
78097W        W21010   2.017   3.696  27.449 -0.0318 -0.0417 -0.3448
78098W        W21011  16.933   3.886   5.251  0.2400  0.2343 -0.3818
78099W        W21012  17.630  12.071  28.193 -0.1421  0.3359  0.2877
78100W        W21013  16.049  19.827  23.760  0.2031 -0.4105 -0.0293
78101W        W21014  11.000   9.927   9.046  0.1071  0.0026  0.2263
78102W        W21015  11.446  29.239   2.133  0.2443 -0.0948 -0.0051
78103W        W21016  10.608   9.423  27.665 -0.3054 -0.0591 -0.1409
78104W        W21017  10.476   3.249  29.399  0.2677  0.0201  0.0222
78105W        W21018   9.264  13.354  19.734  0.2862 -0.0496 -0.4258
78106W        W21019  11.672   6.759   7.325  0.0804 -0.0010  0.1747
78107W        W21020  25.795   7.915   7.160  0.3807 -0.0692  0.0094
78108W        W21021   6.189   2.455  12.754 -0.2602  0.0520  0.0974
78109W        W21022   5.381  21.945  29.568  0.0689 -0.1916 -0.3438
78110W        W21023  19.804  32.928   3.437  0.0775 -0.0925  0.1823
78111W        W21024   2.623  10.007   8.157  0.1902  0.2989  0.0915
78112W        W21025   3.699  12.490   3.751  0.1333 -0.0617 -0.1422
78113W        W21026  13.832   1.638  10.643 -0.2577  0.1501 -0.1132
78114W        W21027  14.628   3.753  29.572  0.1205 -0.2719  0.2356
78115W        W21028  11.346   3.144   9.153 -0.2973  0.2635 -0.1315
78116W        W21029   5.107  15.850   3.834  0.1143 -0.0969 -0.2312
78117W        W21030  12.480  17.035  24.029 -0.2058  0.0302 -0.1180
78118W        W21031  10.758  25.814  23.872  0.1846 -0.3109  0.5406
78119W        W21032  32.024  11.105  27.052  0.3907 -0.2019 -0.0455
78120W        W21033   9.067  32.706   3.040 -0.0761 -0.2925 -0.3687
78121W        W21034   8.790   6.528  22.714  0.1548  0.2096 -0.1428
78122W        W21035   0.098   0.887  28.363  0.1395  0.1401 -0.1160
78123W        W21036  15.149   7.821   8.677 -0.3745 -0.0645  0.1505
78124W        W21037   9.422   5.493  11.560 -0.0124 -0.1307  0.1590
78125W        W21038  19.802   2.415   7.526 -0.1496  0.2561  0.1624
78126W        W21039  15.487  12.994  21.822 -0.1350 -0.1138  0.0745
78127W        W21040   9.082   3.232   9.035  0.2269 -0.1292  0.0660
78128W        W21041  31.440   7.305  26.107 -0.1274  0.0296 -0.1619
78129W        W21042   4.880  27.871  22.372  0.0788  0.4585 -0.3121
78130W        W21043   9.924  12.868  22.222 -0.1456 -0.1942  0.1497
78131W        W21044   1.292   5.653   4.458  0.2578  0.0861  0.3779
78132W        W21045  19.987   3.592  28.966  0.2571  0.1878  0.0373
78133W        W21046  21.254   3.500   6.305  0.3536 -0.1303  0.1997
78134W        W21047  13.832   9.077   3.249  0.0460  0.0612 -0.1145
78135W        W21048  10.926   5.705   3.695  0.1858  0.1146  0.0889
78136W        W21049  16.075   5.554  28.869 -0.0088  0.0292  0.4182
78137W        W21050  32.953  13.625   7.631  0.2847  0.2330  0.1082
78138W        W21051  12.033   6.572   7.920  0.3456  0.1900  0.0187
78139W        W21052   2.064   6.152  28.349 -0.1010 -0.1094  0.0482
78140W        W21053   1.343  12.960  27.473  0.1527 -0.0360 -0.2438
78141W        W21054  12.562  29.525  22.258 -0.0064 -0.2113 -0.0286
78142W        W21055  17.776  31.894   1.580 -0.3649  0.1812  0.0069
78143W        W21056  10.712  11.499   6.597  0.1840  0.0722 -0.0971
78144W        W21057   5.058   5.742   0.615 -0.3245 -0.0155  0.3129
78145W        W21058   5.161   2.177   5.802  0.0035  0.1307  0.2343
78146W        W21059   8.226   9.393   3.460  0.2719 -0.1525 -0.0340
78147W        W21060  32.957  30.148   4.220 -0.0591 -0.0970  0.0551
78148W        W21061  19.376   6.891  26.431 -0.1289 -0.2786 -0.2739
78149W        W21062  14.875  11.496   4.615  0.0184  0.2476 -0.2587
78150W        W21063  20.583   6.186   2.638  0.0301 -0.0776 -0.2115
78151W        W21064   1.356   2.419  28.701 -0.1217  0.0861 -0.1507
78152W        W21065   9.864  14.684  26.940 -0.0186  0.0623  0.1060
78153W        W21066  16.997  12.217  26.919  0.1084  0.0335 -0.2863
78154W        W21067   6.673  30.404   9.989  0.1097 -0.0082 -0.3330
78155W        W21068  33.659  11.801  25.908  0.1741  0.1275 -0.1897
78156W        W21069  14.170   2.262  10.546  0.1374  0.0990 -0.1867
78157W        W21070   2.033   9.259  11.220  0.1785  0.1814  0.1385
78158W        W21071   9.198   4.393   5.743  0.3465 -0.2088 -0.2010
78159W        W21072   9.503   5.641   6.832  0.2304 -0.0471 -0.1329
78160W        W21073   9.995  14.285  25.268  0.2070  0.1124  0.2956
78161W        W21074   1.286   6.585   7.553  0.3045 -0.3112  0.0171
78162W        W21075   6.968  11.243  25.822 -0.1640  0.2000  0.1142
78163W        W21076  13.157   9.655   6.925 -0.0120 -0.0185  0.2844
78164W        W21077   4.910   7.585  10.465 -0.2595 -0.2626  0.0671
78165W        W21078   8.999  17.741   7.323 -0.4315  0.0110 -0.0427
78166W        W21079   9.134  33.708  27.364 -0.3792 -0.1943  0.0477
78167W        W21080  16.084   2.680   1.658  0.1265 -0.2968 -0.0555
78168W        W21081   7.860  11.215  25.976 -0.3573  0.1240  0.0332
78169W        W21082  25.592   3.046  23.472  0.3190  0.3839  0.1396
78170W        W21083  17.350   9.001   1.538  0.1659  0.0576  0.0325
78171W        W21084   7.165   4.238  13.176 -0.0252  0.0052 -0.1582
78172W        W21085  23.039   0.800   3.862  0.0863 -0.0131  0.0804
78173W        W21086  15.360   5.170  29.755  0.1012  0.0733 -0.0732
78174W        W21087   6.897  34.413   3.621  0.0367 -0.0347  0.0895
78175W        W21088  10.441   5.425  26.965  0.1162  0.1412  0.2176
78176W        W21089  11.966  10.576   5.785  0.0281 -0.2011  0.0866
78177W        W21090   0.181   6.024   2.347 -0.1026 -0.0752  0.0625
78178W        W21091   9.871   6.979  29.741  0.1631 -0.1913 -0.1468
78179W        W21092  34.001   7.550   5.002  0.1240 -0.1942  0.0949
78180W        W21093  14.860  31.144   5.818  0.2967 -0.2016  0.3228
78181W        W21094   5.285  30.224  11.147 -0.0374  0.1253 -0.3806
78182W        W21095   7.044  16.462   1.149 -0.0919 -0.0933 -0.0536
78183W        W21096  10.999   4.480   3.723  0.1213  0.0646 -0.0486
78184W        W21097  12.492  10.838   9.226 -0.0194 -0.1969 -0.3883
78185W        W21098  14.668  11.013   8.347  0.0883  0.2735 -0.3540
78186W        W21099  24.315   6.057  26.215 -0.0510 -0.0957  0.4973
78187W        W21100   0.494   8.381  29.775  0.1948  0.0563  0.0958
78188W        W21101  12.537   0.107  29.062  0.0787  0.1576 -0.0933
78189W        W21102  11.350  27.809   1.413 -0.0406 -0.0349 -0.0302
78190W        W21103   8.778   6.712   6.540 -0.0740  0.5020  0.0277
78191W        W21104  22.348   6.870  22.954 -0.3576  0.0815 -0.1665
78192W        W21105   9.313   6.352   1.783  0.0107  0.0232  0.3461
78193W        W21106   8.164   1.781   3.925  0.0477 -0.0368 -0.0118
78194W        W21107  11.387   5.225  25.432 -0.0455 -0.3594 -0.2161
78195W        W21108  18.989  34.325   8.823 -0.1659 -0.2371 -0.2657
78196W        W21109  14.146   4.378   3.717  0.0483  0.2143 -0.0219
78197W        W21110  14.410  18.399   0.376  0.0864  0.0826 -0.0639
78198W        W21111   9.702   5.684   4.579 -0.0511 -0.2815 -0.0843
78199W        W21112   6.924  34.097  28.761 -0.2590  0.1207  0.3420
78200W        W21113   4.697   2.057  12.020 -0.0252 -0.2611 -0.0613
78201W        W21114  14.867   9.081   5.334  0.0116 -0.0403 -0.1575
78202W        W21115   8.372   9.459   1.449 -0.2564  0.1745 -0.2408
78203W        W21116  17.922   1.149  19.299  0.3052  0.0371 -0.3096
78204W        W21117  17.447  32.436   1.377 -0.0515 -0.1108  0.1055
78205W        W21118  11.687  11.074  29.001  0.1613  0.0885  0.2140
78206W        W21119   5.835   5.542  10.714 -0.0832 -0.0440  0.1837
78207W        W21120  12.488   7.017  10.787  0.0853  0.0083 -0.1765
78208W        W21121   8.864  11.547   4.083 -0.2890 -0.3480 -0.0102
78209W        W21122   1.060   9.769  22.124 -0.0915  0.2413 -0.1222
78210W        W21123  12.578  20.287   4.383  0.1063  0.2237 -0.4737
78211W        W21124  12.800   3.953  27.633  0.0075  0.2573 -0.3034
78212W        W21125  26.803   8.564   8.109 -0.3461  0.3385  0.1098
78213W        W21126  17.268   6.264  10.395  0.1627  0.0043  0.0990
78214W        W21127  19.825   1.581  20.732  0.0871 -0.1077  0.3033
78215W        W21128  30.037   6.109   6.806  0.3349 -0.1899 -0.3763
78216W        W21129  12.989   7.108  21.410 -0.0462  0.2986 -0.1951
78217W        W21130   6.953  10.009  10.194  0.2448 -0.0884 -0.1733
78218W        W21131  21.378  11.036   5.996  0.4563  0.0188  0.0065
78219W        W21132  13.417  15.550  23.076  0.1014 -0.0813  0.2343
78220W        W21133  17.307   5.441  24.663 -0.0188  0.2772  0.1331
78221W        W21134   8.747  32.840   6.763 -0.3347 -0.0861  0.0625
78222W        W21135  17.268   8.576  23.424 -0.0697  0.0164 -0.1912
78223W        W21136  19.819   9.211   7.896 -0.2151  0.2528  0.2226
78224W        W21137   9.140   8.876   3.731  0.1384 -0.2477  0.1276
78225W        W21138  31.592   3.769   9.224  0.1758  0.0547 -0.0510
78226W        W21139  14.293  31.100  26.034 -0.0374  0.0456 -0.1497
78227W        W21140   9.255   9.021  10.230 -0.3885  0.3437 -0.0687
78228W        W21141  18.670  30.600  19.604  0.1565  0.0172 -0.1168
78229W        W21142  29.953  17.302   5.884  0.0869 -0.1333  0.0690
78230W        W21143   8.205   9.991   1.817 -0.0618  0.0292  0.2640
78231W        W21144   3.927   7.411   5.389 -0.0058  0.0235 -0.2432
78232W        W21145  13.242  16.858  23.389  0.2671 -0.0295 -0.2498
78233W        W21146  24.198  25.835  28.049 -0.1983  0.0799  0.1278
78234W        W21147   9.563  30.984  11.846 -0.1531  0.0795 -0.0292
78235W        W21148   3.815   8.299   3.524 -0.2187  0.0404  0.0600
78236W        W21149  14.478   7.235   7.933 -0.1667 -0.1807  0.1354
78237W        W21150  16.911   7.162   8.881  0.3111  0.0973 -0.0605
78238W        W21151   4.624   2.467   5.755 -0.2212 -0.0737 -0.0518
78239W        W21152  16.255  24.262   7.314 -0.0395  0.1047  0.2094
78240W        W21153  32.622   7.271   5.254  0.1174 -0.1214  0.1338
78241W        W21154  10.691   6.389   0.616  0.0878  0.0422  0.0185
78242W        W21155   5.888  15.984   4.297 -0.0407 -0.0288  0.3474
78243W        W21156   7.659  30.469   0.944  0.3361  0.2810  0.2415
78244W        W21157  13.970   4.418   4.573  0.0999  0.2063 -0.0135
78245W        W21158  17.626   5.409   6.090 -0.0803 -0.0971  0.0189
78246W        W21159   0.520   2.338   8.870  0.1552 -0.2070 -0.0852
78247W        W21160   2.663   1.077   9.251 -0.2416  0.0535 -0.0482
78248W        W21161   7.787   3.623   0.376 -0.2724 -0.0734  0.0964
78249W        W21162  20.230   7.507   6.054 -0.1955  0.2798 -0.1537
78250W        W21163   2.160   3.573   3.816 -0.1216  0.2299  0.0702
78251W        W21164   5.122   3.520   4.504  0.0445  0.0550 -0.0038
78252W        W21165   9.323   8.782  10.703 -0.2408 -0.1386 -0.0801
78253W        W21166  12.591   2.198  25.282 -0.2649 -0.1317 -0.0817
78254W        W21167  33.812  28.727   4.641 -0.1283 -0.2558  0.1051
78255W        W21168   6.114  15.853   3.214  0.0304  0.0887 -0.4091
78256W        W21169  16.450   4.329   6.770  0.0154  0.1425 -0.4168
78257W        W21170  29.555   6.286   1.069 -0.2443 -0.1915  0.2825
78258W        W21171  10.143   0.014  22.767 -0.0346 -0.5742 -0.1383
78259W        W21172  13.749  27.956   7.519  0.1875 -0.2662 -0.0452
78260W        W21173  14.558  10.201   1.776  0.1102 -0.0059  0.0672
78261W        W21174   6.894   3.057   3.895  0.1789  0.3809  0.3145
78262W        W21175   8.449   6.173   3.807  0.1430  0.3900  0.0827
78263W        W21176  19.567   7.368  18.884  0.1911  0.1937 -0.2311
78264W        W21177  22.517  14.947   8.710 -0.0743 -0.2044 -0.1971
78265W        W21178   7.582   3.786  10.319 -0.0716  0.1916  0.0460
78266W        W21179   9.518   4.489   8.284  0.1394 -0.1309 -0.1213
78267W        W21180   9.793  19.497   8.544 -0.1051 -0.0027 -0.1931
78268W        W21181   6.997   3.597  10.026  0.2730 -0.2683  0.0201
78269W        W21182   2.142   5.901  29.599  0.0293  0.1073  0.0944
78270W        W21183   0.215  12.348   5.603  0.1357  0.1468  0.2030
78271W        W21184  13.733   7.278  29.608 -0.0294 -0.1529  0.0700
78272W        W21185  11.674   1.229   2.681 -0.6870 -0.1146  0.4069
78273W        W21186  31.729   1.238  10.241 -0.0072 -0.3316 -0.1135
78274W        W21187  22.155   3.187   2.419 -0.0589  0.1131  0.0464
78275W        W21188   6.491  23.061  23.556  0.1901  0.1732  0.1321
78276W        W21189  17.890  13.294   3.270  0.0062 -0.1351  0.1733
78277W        W21190  19.584   7.673  18.518  0.0125 -0.0338  0.0532
78278W        W21191  14.617  16.041  26.419  0.0314  0.1813  0.2389
78279W        W21192  16.873   9.894   2.164  0.2665  0.0243 -0.0978
78280W        W21193   5.792   0.420   1.207  0.0021 -0.1867 -0.0545
78281W        W21194  11.229   2.025   6.597  0.0396  0.2916 -0.1200
78282W        W21195   3.903   6.627  29.642  0.1802 -0.1402  0.2404
78283W        W21196   6.077   2.615  25.342  0.0371 -0.1205 -0.2199
78284W        W21197   6.102   5.516  28.336 -0.0063  0.1734  0.2200
78285W        W21198   3.435  13.212   5.772  0.1544  0.3972 -0.3567
78286W        W21199  11.976  28.433  26.994  0.2592  0.0781 -0.0360
78287W        W21200   9.443   7.950   6.507 -0.0518  0.3020 -0.3701
78288W        W21201   5.716   0.678   9.151 -0.1885 -0.0318 -0.4042
78289W        W21202  13.506   3.038  27.393 -0.4023 -0.0937 -0.0932
78290W        W21203   1.006   2.919   5.702  0.1677  0.0678  0.3361
78291W        W21204  18.830  32.543   6.833  0.1355 -0.1647 -0.1166
78292W        W21205  11.631   0.868   8.935 -0.0526  0.5456  0.1512
78293W        W21206  12.921   8.159   3.657 -0.1396 -0.2381  0.2354
78294W        W21207  15.603  10.082   1.768  0.0403 -0.3760 -0.3669
78295W        W21208  17.532   9.914   8.624  0.1813 -0.2606 -0.2804
78296W        W21209  13.472   5.422   6.220 -0.1283  0.2109  0.1775
78297W        W21210   6.061   8.410  25.898 -0.0161 -0.1341  0.0349
78298W        W21211   4.384  30.013   9.740  0.4346  0.1229  0.0441
78299W        W21212  31.730   8.598   2.584 -0.0718 -0.1724 -0.0895
78300W        W21213  10.154  15.894   5.440 -0.1425 -0.0902 -0.2168
78301W        W21214   8.240  11.367  24.233 -0.0212  0.0727  0.1758
78302W        W21215   1.761   2.506  10.556 -0.2181 -0.0506  0.0069
78303W        W21216  11.474   9.813   7.502 -0.0792 -0.0851  0.1628
78304W        W21217  29.358  17.784   8.341  0.0491  0.2307  0.0886
78305W        W21218  18.674  24.770   3.787  0.0327 -0.0701  0.0634
78306W        W21219   0.182  14.200   7.890 -0.1787 -0.1423  0.0973
78307W        W21220  11.787   9.788  10.174 -0.0017  0.1006 -0.1271
78308W        W21221  34.293   6.847  29.241 -0.0432 -0.1188  0.2575
78309W        W21222   8.354  18.037   9.064  0.1826 -0.1797 -0.1086
78310W        W21223  15.767  13.024   8.347 -0.0289 -0.0590  0.0619
78311W        W21224   9.147   3.071  12.728  0.0761 -0.4257  0.1195
78312W        W21225   6.649   0.852  10.909  0.0333  0.1352  0.1418
78313W        W21226  10.664  34.409   6.660 -0.1934  0.0584  0.1340
78314W        W21227   8.797   0.690  12.289  0.3971  0.1045  0.1423
78315W        W21228  31.704  14.002   1.904  0.2153 -0.0816 -0.2401
78316W        W21229   6.986  32.296   2.392 -0.3279  0.1153  0.0252
78317W        W21230  18.267   5.933   4.486  0.2314  0.0129  0.1371
78318W        W21231  13.122   6.047  10.817  0.0513  0.1573  0.2663
78319W        W21232  12.856   6.297  29.014  0.0721  0.2331 -0.1624
78320W        W21233  14.520   5.990   2.228 -0.3665  0.1220  0.0639
78321W        W21234  29.454  12.639  16.320 -0.1478  0.1375  0.1873
78322W        W21235  19.142   3.873  24.006  0.2466  0.0464  0.1079
78323W        W21236   2.888   5.856   3.529 -0.1942 -0.1277 -0.0361
78324W        W21237   2.656   4.448   3.222  0.0307  0.3152 -0.1136
78325W        W21238  11.320   4.411  11.210 -0.0406 -0.3736  0.0305
78326W        W21239   2.835   9.086   9.967 -0.0543 -0.0154  0.0891
78327W        W21240  12.664  26.972   9.570 -0.0208 -0.2240 -0.2245
78328W        W21241  15.828   3.441   9.018 -0.1073  0.0183 -0.0534
78329W        W21242   4.261   6.772   3.681 -0.0254 -0.0220 -0.0971
78330W        W21243  15.900  13.294   4.220 -0.0088 -0.2752 -0.1111
78331W        W21244  32.777  28.818  26.024  0.1381  0.0577  0.0234
78332W        W21245   8.416   3.338  11.563  0.1597 -0.2491 -0.0112
78333W        W21246   2.056   4.271   0.311  0.1356 -0.0246  0.2588
78334W        W21247   3.760  12.110   5.692 -0.1491 -0.1199  0.0875
78335W        W21248   7.333  32.788   9.582 -0.0023  0.1496 -0.0982
78336W        W21249   3.261   1.159   8.301 -0.0774 -0.1036  0.0479
78337W        W21250   9.103   7.194   5.676  0.0706  0.0123  0.1616
78338W        W21251   2.190  32.586   7.896  0.3267 -0.2319  0.1009
78339W        W21252  16.486  33.804   4.295 -0.0839 -0.0784 -0.2656
78340W        W21253   6.384   9.426  10.569  0.1089 -0.0883  0.0028
78341W        W21254  15.224   2.896   9.224  0.0148  0.3732 -0.2639
78342W        W21255   4.233   6.204   9.269  0.0218 -0.1460 -0.0701
78343W        W21256  14.754  16.383   5.769 -0.0356 -0.0034  0.1901
78344W        W21257   4.761   1.103  11.924  0.2786  0.0866 -0.0845
78345W        W21258  10.275   5.008   3.478  0.1628  0.2713  0.0298
78346W        W21259   3.274   8.312  10.932 -0.0126  0.2550 -0.0274
78347W        W21260   8.382  14.516  26.557  0.0212 -0.3873  0.1507
78348W        W21261   8.952   0.373   7.796  0.4249 -0.2635 -0.0968
78349W        W21262  11.492   0.843   9.955 -0.0211 -0.1171  0.5497
78350W        W21263   8.041   0.961  13.376 -0.0600 -0.0618  0.1090
78351W        W21264   5.031   0.705  12.057 -0.1739 -0.4115  0.3313
78352W        W21265   6.998   6.394   9.063 -0.2863 -0.0533  0.0601
78353W        W21266   6.435   8.105   4.329 -0.1351  0.1308  0.1343
78354W        W21267  13.287   2.261   6.042 -0.4543 -0.0158  0.2871
78355W        W21268   4.643   3.354   8.367 -0.1898 -0.1675 -0.2327
78356W        W21269  34.225  15.178   4.634 -0.0330 -0.1820 -0.1835
78357W        W21270  15.356  34.101  10.441 -0.0243 -0.0259  0.1112
78358W        W21271  20.329   3.264   3.706  0.0845 -0.2181  0.1652
78359W        W21272   1.137   1.787   4.884 -0.2377 -0.2406 -0.2984
78360W        W21273   2.010   6.545   4.880  0.0309  0.3566  0.0589
78361W        W21274  15.544  31.536  28.916  0.3040 -0.1794 -0.0207
78362W        W21275  11.997   4.306  11.928  0.3137  0.2068 -0.0568
78363W        W21276   5.743  30.572  10.415 -0.2652  0.0899 -0.2867
78364W        W21277  12.237   5.125  25.933  0.1803 -0.1010 -0.2473
78365W        W21278  13.873  17.566   4.324 -0.1247  0.1236 -0.0129
78366W        W21279   6.479   4.493  10.717 -0.0593  0.7612  0.1687
78367W        W21280  19.990  27.131   4.651 -0.0024  0.2270 -0.0467
78368W        W21281  11.109  16.993   7.038 -0.3962 -0.2575  0.0717
78369W        W21282  16.410  32.792   4.419 -0.0326  0.0562 -0.1290
78370W        W21283  13.379   7.221   5.079  0.0921  0.1589  0.2423
78371W        W21284   6.876   8.097   7.420  0.1045  0.0968  0.1768
78372W        W21285   6.295  34.448   0.582  0.2230  0.0575  0.1737
78373W        W21286  10.621  10.685   8.475 -0.1767 -0.0128  0.0173
78374W        W21287  10.205   2.114   0.463  0.0674  0.0852  0.0459
78375W        W21288  11.595  33.413   6.927  0.0671  0.0498  0.0341
78376W        W21289  17.116  32.353   2.461  0.2281  0.2270  0.0348
78377W        W21290  11.463  13.193   8.463  0.1503  0.2170  0.0494
78378W        W21291   6.046   6.435  10.885  0.3233 -0.0362 -0.1897
78379W        W21292   4.797   6.678  27.287  0.2879  0.3385  0.4005
78380W        W21293  16.778   3.424   4.083 -0.0671  0.1219 -0.0551
78381W        W21294   9.743   7.201   8.572 -0.1897 -0.0651 -0.0603
78382W        W21295   6.626  32.098   6.100  0.4199  0.2082  0.0137
78383W        W21296  10.870  11.286  10.856  0.1738 -0.2785  0.0767
78384W        W21297   6.861   6.739   6.038  0.1232 -0.5305 -0.1907
78385W        W21298   7.066   2.380  11.742 -0.0921  0.0286  0.2746
78386W        W21299   8.108   7.600  10.257 -0.1174 -0.1576  0.3043
78387W        W21300   8.312   3.181   6.176  0.1195  0.0729  0.3055
78388W        W21301  12.403  13.784   2.500  0.0728 -0.0760 -0.3384
78389W        W21302  14.757   7.901   3.257  0.1689  0.0128 -0.0804
78390W        W21303   7.212   6.597  26.623 -0.3845 -0.1043 -0.0443
78391W        W21304   8.649   0.066   7.534 -0.1754  0.0813  0.1309
78392W        W21305  10.625  27.368  26.135 -0.2676  0.1827 -0.2880
78393W        W21306  13.973   1.400   9.628  0.1695 -0.0216  0.3331
78394W        W21307  17.519   7.837  29.747 -0.1553  0.1595 -0.2033
78395W        W21308  30.845   8.165   6.933 -0.3392  0.1590  0.1308
78396W        W21309  12.790   1.061   0.022 -0.2780 -0.3543  0.0352
78397W        W21310  12.241   7.976   2.027 -0.0486 -0.0563 -0.2299
78398W        W21311   4.444   7.413   5.057  0.3986 -0.1170 -0.1190
78399W        W21312  24.285   6.682   4.813 -0.1193  0.2668  0.0027
78400W        W21313  13.548   1.044   7.443 -0.1556 -0.2549 -0.3223
78401W        W21314   3.838   5.210   0.793  0.0290 -0.1945  0.0548
78402W        W21315   6.311   7.946   6.166 -0.1512 -0.1981 -0.2040
78403W        W21316  10.501   3.534   4.452  0.3224  0.0818 -0.4562
78404W        W21317   3.691   7.986   5.251  0.2111  0.2212  0.1505
78405W        W21318   6.375  22.351   2.052 -0.2484  0.1892  0.0500
78406W        W21319   6.774   4.570   7.607 -0.2585  0.1397 -0.4012
78407W        W21320  21.636   0.758   1.806 -0.3297  0.0206  0.0554
78408W        W21321   6.261   7.185   5.382 -0.0584  0.3002  0.1406
78409W        W21322   2.925  10.870   3.450  0.0379  0.3219  0.0957
78410W        W21323   3.999  13.271   7.800 -0.0563 -0.0037 -0.0296
78411W        W21324   9.201  28.937   1.690 -0.1350  0.0530 -0.0333
78412W        W21325   0.234   7.318   2.759  0.2245  0.0250 -0.7110
78413W        W21326  21.274   3.345   3.501 -0.1378  0.0660  0.0566
78414W        W21327   9.204  12.062   7.686 -0.0819  0.2160 -0.3075
78415W        W21328  12.993  12.948  22.122  0.1501 -0.0974  0.0632
78416W        W21329   1.441  30.531  27.397  0.1068 -0.1658 -0.2252
78417W        W21330   7.782  33.859  11.388  0.0290 -0.2848  0.0276
78418W        W21331  13.261  11.419   7.314  0.1553 -0.1643  0.0139
78419W        W21332  12.022  32.357   9.212 -0.1779 -0.1287  0.0962
78420W        W21333   1.221   6.990  11.935  0.0618 -0.2499  0.2594
78421W        W21334   8.799   3.199   6.361 -0.2170 -0.1365 -0.0374
78422W        W21335  10.948   9.035  11.487  0.1758  0.1143 -0.0304
78423W        W21336  28.754  15.117   2.037  0.2847 -0.1124  0.4153
78424W        W21337   3.558   6.917  11.790  0.0727  0.1397  0.1427
78425W        W21338   4.092   8.826   8.981 -0.0353 -0.0862  0.2115
78426W        W21339   7.171  11.838   4.493 -0.3260 -0.0631 -0.2663
78427W        W21340  11.969   4.876   8.518  0.2200 -0.1405 -0.0014
78428W        W21341   3.883   7.106  13.679 -0.2467  0.3901  0.1858
78429W        W21342   4.967   3.430  22.766 -0.2036  0.1179 -0.2506
78430W        W21343  20.135   8.808   8.660  0.3656 -0.2309 -0.0545
78431W        W21344  11.710  12.910   8.823  0.0609 -0.2484 -0.2572
78432W        W21345   3.032   9.731   1.289  0.2607  0.0971  0.1192
78433W        W21346  11.586   6.254  11.582 -0.0443 -0.0784  0.5697
78434W        W21347  14.485  33.164   9.449  0.0565 -0.1917 -0.2720
78435W        W21348   8.210  17.864   5.757 -0.2967  0.0392 -0.0496
78436W        W21349   7.192   0.855   0.517 -0.0042 -0.2013  0.0854
78437W        W21350  15.505  11.272   7.851  0.0512  0.2427 -0.1574
78438W        W21351   6.934  34.187   2.684 -0.2585  0.2643 -0.2432
78439W        W21352   5.334   1.161  11.691  0.0553 -0.0277  0.0677
78440W        W21353  11.769  25.025   1.567 -0.0399 -0.0922 -0.1418
78441W        W21354   9.572  33.932   4.943 -0.1348 -0.0602 -0.1209
78442W        W21355   4.276   7.745   5.943  0.0331 -0.1722 -0.1052
78443W        W21356   6.705   6.933   1.422 -0.4865 -0.2430  0.0502
78444W        W21357  32.762  17.758   8.649 -0.0146 -0.4655 -0.2823
78445W        W21358   4.361  28.281  26.631 -0.1521  0.2074  0.2623
78446W        W21359   8.774  31.968  28.184  0.2695  0.3496 -0.1279
78447W        W21360  20.161  31.948  28.305  0.2824 -0.4238 -0.1847
78448W        W21361  15.943   7.556   1.651  0.0132 -0.0944  0.1467
78449W        W21362   6.185  12.645   7.375 -0.1619 -0.0660  0.0400
78450W        W21363  15.525   4.497  25.371  0.2390 -0.0674 -0.2217
78451W        W21364  10.110   7.833   9.804 -0.2533  0.2526  0.4766
78452W        W21365   0.015   9.989  10.123 -0.0110  0.1145 -0.0515
78453W        W21366  10.806  13.465   6.744 -0.1067  0.0788 -0.1227
78454W        W21367   5.123   9.322  12.523 -0.1475 -0.2274  0.0051
78455W        W21368   7.131   0.095  11.722  0.2098  0.0581 -0.0353
78456W        W21369  23.841   6.299   5.710  0.1610 -0.0811 -0.1228
78457W        W21370  15.204   7.704  23.886  0.1952 -0.2019 -0.0778
78458W        W21371   5.557   4.119   9.397  0.0185 -0.0327  0.2208
78459W        W21372   3.922  29.315  10.121 -0.0531 -0.0492 -0.2724
78460W        W21373  11.436   8.788  27.388  0.0245  0.0121 -0.2174
78461W        W21374  32.849   7.066  27.757 -0.2085 -0.0355  0.1680
78462W        W21375   9.115  30.280   8.610  0.1133  0.1224 -0.1157
78463W        W21376  11.280  13.989   1.083 -0.0079  0.0083  0.0083
78464W        W21377  12.518  28.992  10.719  0.1928 -0.4991  0.4100
78465W        W21378  15.083   9.528   5.308  0.3219  0.1136 -0.1155
78466W        W21379  33.682   5.685  29.207 -0.3051  0.1527 -0.1188
78467W        W21380   9.764   3.964   3.333  0.0374  0.3806 -0.0565
78468W        W21381  13.194   1.951   2.840 -0.1978  0.1336  0.1143
78469W        W21382   9.151   2.398   2.944  0.0492 -0.1192  0.0468
78470W        W21383  10.669   6.740   8.360  0.2179  0.1234  0.1712
78471W        W21384  11.093   5.214  21.973 -0.0484 -0.1717 -0.2860
78472W        W21385  31.976  11.879   2.568  0.2038  0.1556  0.0713
78473W        W21386  12.945  34.041  11.158 -0.0204  0.0480  0.1622
78474W        W21387  22.375  31.158   5.603 -0.1926 -0.1018  0.0563
78475W        W21388  10.240   5.016   7.144  0.2366  0.1299 -0.0078
78476W        W21389   8.322  32.276  28.910  0.0099 -0.0364 -0.2578
78477W        W21390  14.102  33.499   3.736 -0.0858 -0.0138  0.2259
78478W        W21391  12.759  31.882  11.464  0.0277  0.0083  0.1462
78479W        W21392   4.963   4.364   5.956 -0.0647  0.0176  0.0147
78480W        W21393   0.597  30.407  27.614 -0.0795 -0.0302  0.1165
78481W        W21394  14.597  29.630   5.237 -0.1535 -0.0095  0.3200
78482W        W21395   7.827  26.388   4.592 -0.2177 -0.0760 -0.1414
78483W        W21396   5.860  31.045   9.048  0.0668  0.4300  0.0832
78484W        W21397  20.474   9.107   8.129  0.2617  0.0733 -0.1283
78485W        W21398   4.796   3.327  12.344 -0.1199 -0.4186  0.1298
78486W        W21399  19.556   3.578   6.230  0.3201 -0.1718 -0.3664
78487W        W21400  16.328  30.254  27.328  0.0797 -0.1721 -0.0800
78488W        W21401   7.848  28.098   6.119 -0.0223 -0.1552 -0.0381
78489W        W21402   9.883   7.768   0.823 -0.1211  0.0458 -0.4524
78490W        W21403  10.897   7.212   4.379 -0.1148  0.0646  0.2909
78491W        W21404   5.072  29.905  25.583  0.0991 -0.2413  0.1216
78492W        W21405   9.024  13.073  10.523 -0.2086 -0.0326  0.1173
78493W        W21406  13.813  13.305   3.504 -0.2831 -0.0913  0.1363
78494W        W21407   3.065   7.541   2.769  0.0541 -0.0221  0.4404
78495W        W21408   8.905   2.754   4.839 -0.1049 -0.3575 -0.2065
78496W        W21409   0.460   4.830   3.552 -0.2630  0.1114 -0.1667
78497W        W21410   4.882  14.631   7.652 -0.0091  0.0187  0.2727
78498W        W21411   7.848  11.771   9.396 -0.2219 -0.0827  0.2269
78499W        W21412  17.932  29.778  24.040  0.1657  0.0640 -0.1026
78500W        W21413   7.200   4.809   2.867  0.0167  0.1397  0.1218
78501W        W21414  17.614  15.632   8.190  0.1290 -0.1086  0.1238
78502W        W21415   7.675   6.282   8.501  0.7156  0.0441  0.2895
78503W        W21416   9.227   7.652   9.273 -0.1688  0.1061 -0.1658
78504W        W21417  11.510  14.755  19.625  0.1596  0.0376  0.0185
78505W        W21418  34.396   7.762  26.467  0.1300 -0.0595  0.3513
78506W        W21419  15.799  32.743  11.627  0.1283  0.0697  0.1368
78507W        W21420  16.992  27.316   2.770 -0.0550 -0.0181 -0.1027
78508W        W21421   0.652  30.462   4.843 -0.1860 -0.1031 -0.0565
78509W        W21422   8.109   6.450  28.033  0.0429  0.2496 -0.0996
78510W        W21423  11.906  27.598  24.225  0.3775 -0.1926 -0.2493
78511W        W21424   4.692   6.414   8.411 -0.0130 -0.0778 -0.2062
78512W        W21425  24.069   7.041   7.491  0.1941 -0.2125 -0.0349
78513W        W21426   8.125  14.707  23.948  0.0321  0.3181 -0.0016
78514W        W21427   9.383  30.066   1.817  0.0512 -0.0744  0.5129
78515W        W21428  19.221   9.018   5.218  0.3507  0.3556 -0.3004
78516W        W21429  14.707  18.229   8.226  0.0056  0.1281  0.3057
78517W        W21430   3.951  31.079   9.184 -0.6319  0.1274  0.1197
78518W        W21431  14.261  33.090   3.136  0.3392  0.2609  0.0356
78519W        W21432  10.130  19.609   0.507  0.0580 -0.2382 -0.2950
78520W        W21433  14.154   5.963   1.402 -0.0683  0.4967 -0.1180
78521W        W21434   5.846   7.762  12.159 -0.2717 -0.0478 -0.3389
78522W        W21435  10.127  13.585   7.699  0.0598 -0.2864  0.2155
78523W        W21436  10.730  30.070   5.718 -0.2263  0.3374 -0.0480
78524W        W21437   1.523  10.165   7.945  0.2635  0.1079  0.2485
78525W        W21438   2.016  31.549   6.265  0.2759 -0.1662  0.0845
78526W        W21439  15.239  33.054  10.626  0.2820 -0.3699 -0.0256
78527W        W21440  12.414   4.799   5.683  0.1418 -0.1632  0.0229
78528W        W21441  12.896   5.472   3.170 -0.0962  0.1009 -0.0507
78529W        W21442  15.556   8.080   3.821  0.2379 -0.0856  0.3615
78530W        W21443  13.856  15.031  26.822  0.0447  0.0460  0.1974
78531W        W21444   9.249  24.479   1.593 -0.2517  0.2212 -0.1499
78532W        W21445   3.706   7.322   3.558 -0.0877  0.1903  0.0801
78533W        W21446   4.268   5.845  12.468 -0.1813  0.2961  0.0013
78534W        W21447  28.732   0.985   8.371  0.0101  0.0971 -0.2818
78535W        W21448  13.959  13.056   8.537  0.0388 -0.3517 -0.2795
78536W        W21449  11.705  26.379   8.428  0.0867 -0.0920 -0.1008
78537W        W21450   6.439   5.225   6.604 -0.2794  0.2881 -0.2883
78538W        W21451  12.172   9.277   2.972  0.1551  0.0691  0.1944
78539W        W21452   4.403   8.426  10.071  0.0022 -0.4806  0.2329
78540W        W21453   9.162  11.087   5.680 -0.3927 -0.2834  0.2594
78541W        W21454  19.802  34.363   9.393 -0.0246 -0.1465  0.0768
78542W        W21455   3.650  34.083  23.224  0.0096  0.1373 -0.1625
78543W        W21456   6.054   3.463   4.890  0.4054  0.1769  0.2390
78544W        W21457  23.279  11.772  28.613  0.0361 -0.1408 -0.0446
78545W        W21458   8.575   9.968   0.455 -0.1070  0.3257  0.0054
78546W        W21459   4.321   4.803   5.722 -0.0170  0.0970 -0.0066
78547W        W21460   9.770   5.216   8.129 -0.0231 -0.1782 -0.2169
78548W        W21461  10.239   3.446  10.695  0.1810  0.1755 -0.1138
78549W        W21462  30.751   9.957   8.079 -0.2444  0.1074 -0.1063
78550W        W21463  21.056  33.440   6.713  0.0967  0.2232 -0.0105
78551W        W21464   3.166  10.737   7.597 -0.0548  0.0802  0.1378
78552W        W21465   2.145  15.598   7.360 -0.1372 -0.0101  0.0377
78553W        W21466  12.445  18.303   4.936  0.2227  0.2440  0.0126
78554W        W21467   8.034   3.715   7.540  0.1382 -0.2094  0.0336
78555W        W21468  11.501  10.798  22.273 -0.1475  0.1248 -0.2802
78556W        W21469  21.436   9.968  28.339 -0.1016  0.1110 -0.0582
78557W        W21470   4.678   5.778  26.376 -0.2497 -0.1337 -0.2978
78558W        W21471   8.579   0.640   9.895 -0.0571  0.0796  0.0590
78559W        W21472  27.590   7.213   7.998  0.0949  0.0322  0.0663
78560W        W21473   8.384  27.013   2.089 -0.2250 -0.0457  0.2740
78561W        W21474  13.009   1.071   2.841 -0.1711  0.1275  0.1320
78562W        W21475   2.227  13.366  29.565 -0.0059  0.1819  0.0609
78563W        W21476  22.834   6.888   2.541 -0.2353 -0.1339 -0.0849
78564W        W21477  32.544  14.832   7.772 -0.1760  0.3104 -0.1675
78565W        W21478   4.562  23.139   8.927 -0.0264  0.0360 -0.0577
78566W        W21479  10.262   9.941   8.000 -0.2051  0.1765 -0.0369
78567W        W21480   8.588   6.075  11.133 -0.1128 -0.0671 -0.0575
78568W        W21481  12.438  19.199   5.112 -0.2349 -0.1309 -0.0646
78569W        W21482  11.653   0.295  10.247 -0.0866 -0.0726  0.0220
78570W        W21483  10.699   5.337   3.943 -0.2335 -0.2693 -0.0510
78571W        W21484  22.732   7.687   6.169 -0.1648 -0.1258  0.3150
78572W        W21485  10.360   7.339  24.031 -0.1280  0.2324  0.0189
78573W        W21486   8.347   5.026   0.560  0.2779  0.1374  0.0297
78574W        W21487   9.214   4.720   8.706  0.1442  0.0470  0.1690
78575W        W21488   6.856  33.158  10.158 -0.0580  0.4233  0.3318
78576W        W21489  11.611  14.432   0.186 -0.1814 -0.2062 -0.1109
78577W        W21490   5.306  31.301   5.123  0.2992  0.0561  0.3156
78578W        W21491   8.090  12.434   3.703 -0.0715  0.2730 -0.1527
78579W        W21492   6.447  31.766   8.844  0.2346 -0.1356  0.3334
78580W        W21493   5.328  27.868  22.686 -0.1801 -0.0879  0.0936
78581W        W21494   8.926   3.625   4.190  0.1210 -0.1196 -0.2788
78582W        W21495  11.053  28.778  11.785  0.0674 -0.2356 -0.1815
78583W        W21496   3.323   5.707   8.592 -0.2810 -0.2610  0.0543
78584W        W21497  12.162   3.856   9.401  0.0186  0.0598  0.4352
78585W        W21498   0.367   8.308   4.338 -0.4320  0.3051  0.0444
78586W        W21499   5.014   3.871   0.851 -0.1491  0.0652 -0.0701
78587W        W21500  14.181   4.764   6.093 -0.1963 -0.0119 -0.2098
78588W        W21501  31.987   3.036   0.398  0.0378 -0.0872  0.1881
78589W        W21502  17.617  32.293  10.264  0.0577  0.0159  0.0819
78590W        W21503  11.371  11.702   7.268  0.1094 -0.0403  0.0871
78591W        W21504   6.500  33.175  23.998  0.0132 -0.0611 -0.0172
78592W        W21505   7.513  25.373   4.063  0.1279 -0.2178  0.0821
78593W        W21506  10.352  10.804   7.326 -0.1306 -0.1731  0.0346
78594W        W21507   5.530   5.157  29.672 -0.0542 -0.2807  0.0343
78595W        W21508   5.583  33.340   3.050  0.0759 -0.0638 -0.1466
78596W        W21509  20.803   6.286  25.034 -0.1130 -0.5632  0.3112
78597W        W21510  11.453  14.085   5.637 -0.3107  0.2373 -0.2242
78598W        W21511   5.468   2.994   4.455 -0.1198 -0.1469  0.2308
78599W        W21512  13.830  15.116   4.807 -0.0936 -0.0728  0.0988
78600W        W21513   5.796  34.272   5.757  0.1035  0.0434 -0.0590
78601W        W21514   3.627  34.056   9.487  0.1586 -0.0038 -0.0475
78602W        W21515   5.781   8.602   7.247  0.2446  0.1152 -0.0339
78603W        W21516   6.324  31.358   9.751 -0.0554 -0.1211  0.4250
78604W        W21517  26.690   6.146   5.413 -0.0438  0.1466 -0.1838
78605W        W21518  17.569  14.128   0.266  0.2902 -0.1380 -0.0507
78606W        W21519  12.473  24.617   9.637  0.1229 -0.0161 -0.0086
78607W        W21520   5.727  11.324   3.421  0.1165  0.0737 -0.1880
78608W        W21521   4.242   1.918   7.651  0.3013 -0.1584  0.3259
78609W        W21522   8.600  10.025   8.894  0.1865 -0.3306  0.3771
78610W        W21523   7.346  12.313   8.738  0.0743  0.0240 -0.4631
78611W        W21524  10.581  15.023   2.224 -0.1918  0.1779  0.1092
78612W        W21525   8.291  13.499   9.734 -0.1649 -0.1375 -0.3035
78613W        W21526  10.260   9.127  25.511 -0.2808 -0.1961 -0.0282
78614W        W21527   6.345   8.470   5.873  0.1119  0.1576  0.0780
78615W        W21528  15.370  33.423   6.812  0.0709  0.0567 -0.1451
78616W        W21529   9.347   7.731   7.101 -0.0728 -0.1289  0.2625
78617W        W21530   1.213  31.047   3.973 -0.0191 -0.0119  0.1889
78618W        W21531  12.463   9.881   9.037  0.1809  0.1330  0.1311
78619W        W21532  15.797  16.799  22.371 -0.1967  0.2218 -0.1188
78620W        W21533  16.555  17.735  22.852 -0.0700  0.3856  0.0886
78621W        W21534  16.085   8.934   0.274  0.1912  0.3539 -0.1209
78622W        W21535   1.889   5.458  10.449  0.0342  0.3479  0.1678
78623W        W21536   6.959   9.529   9.592 -0.3589  0.0530 -0.3784
78624W        W21537   2.280  11.229   7.665 -0.1948  0.2615  0.1873
78625W        W21538   9.008  26.830  10.773 -0.1794 -0.4101  0.2584
78626W        W21539  18.811  33.004   3.037  0.3537 -0.0697  0.1874
78627W        W21540  14.632  14.374   2.830 -0.0190  0.0384 -0.3208
78628W        W21541   4.346   2.920  28.327 -0.0486 -0.1115  0.1591
78629W        W21542  15.827   1.544  11.364  0.1641 -0.0039  0.2548
78630W        W21543  10.702   5.642   9.273  0.0485  0.2124 -0.0492
78631W        W21544  15.380  12.322   6.182 -0.1917 -0.5219  0.2926
78632W        W21545  22.817  32.736   2.549  0.1113  0.1110 -0.2063
78633W        W21546  14.279  11.355   8.415 -0.1012  0.0051  0.3161
78634W        W21547  12.948  33.013   9.662 -0.3244  0.0584 -0.1736
78635W        W21548  12.012  32.686   5.603  0.1143  0.2867 -0.0356
78636W        W21549  20.958   3.970  10.465  0.0526 -0.3075 -0.0760
78637W        W21550   8.138   9.744  10.460  0.1153  0.1986  0.0603
78638W        W21551   6.913   2.675  12.693 -0.0027 -0.0012  0.2258
78639W        W21552  15.299   2.688   6.111  0.1965 -0.5984 -0.0884
78640W        W21553  17.147   8.354   8.380  0.2852  0.1400 -0.1694
78641W        W21554  27.640   4.103   7.992  0.3479 -0.1058  0.1091
78642W        W21555  10.655  31.715  11.988 -0.0268 -0.2934  0.1438
78643W        W21556   8.933  27.786   7.503  0.1006 -0.2287 -0.2259
78644W        W21557  15.555   9.799   8.473  0.1036  0.0895 -0.2132
78645W        W21558  11.889  31.834   9.462  0.0018  0.2810  0.0582
78646W        W21559  13.168   5.038   9.926  0.1450 -0.1384  0.0275
78647W        W21560  11.140   3.400   6.506  0.0458  0.0524 -0.1228
78648W        W21561  28.914  12.597   4.765  0.1203  0.1310  0.2678
78649W        W21562   2.921   9.132   6.025 -0.1086 -0.0683 -0.0652
78650W        W21563  12.248   5.108   3.650  0.0287 -0.4535 -0.3073
78651W        W21564   0.731  20.087   7.297 -0.1720 -0.0184 -0.1706
78652W        W21565  12.605  32.756  11.517  0.3284 -0.1841 -0.0633
78653W        W21566   7.099   0.504   1.432  0.2182 -0.2082 -0.1995
78654W        W21567   6.173   7.895   9.773  0.0700  0.2196 -0.0230
78655W        W21568   3.415  30.889   3.143 -0.0308  0.0517 -0.0328
78656W        W21569   8.009   6.148  12.902 -0.2928 -0.0908 -0.1135
78657W        W21570   3.710  11.922   9.956 -0.0117 -0.1571  0.0268
78658W        W21571  13.117  16.526  25.584  0.0332  0.3961  0.2187
78659W        W21572   6.930   4.138   6.284  0.0925  0.0035 -0.0266
78660W        W21573  19.811  33.171   4.869  0.0352 -0.2837 -0.1727
78661W        W21574   5.879   7.943   6.502 -0.0970 -0.2111 -0.0903
78662W        W21575  12.812   0.276   8.589 -0.1801  0.0317 -0.2432
78663W        W21576   3.027  11.936   7.488  0.3612 -0.2377 -0.1820
78664W        W21577   7.325   9.624   8.330 -0.1770 -0.0545 -0.2036
78665W        W21578   4.102  33.906  26.717  0.2531  0.1632  0.2408
78666W        W21579   3.562  28.203  27.221 -0.3415 -0.0408  0.2042
78667W        W21580   6.089  34.256   5.018  0.1377 -0.0425 -0.3791
78668W        W21581  16.118   5.409   8.818 -0.1913 -0.0206  0.0680
78669W        W21582  11.218   4.469   4.227 -0.0068 -0.1463 -0.2002
78670W        W21583   6.614   9.017   5.147 -0.1507  0.0086  0.2958
78671W        W21584  12.389  30.169   8.567  0.1023  0.2886  0.4546
78672W        W21585   8.983   6.434   7.416 -0.4173 -0.1473 -0.0370
78673W        W21586   3.607   1.243  10.624  0.2365 -0.3318  0.1425
78674W        W21587   6.332   8.114   2.761  0.0184 -0.5276  0.1855
78675W        W21588  12.288  15.744   8.708  0.0367  0.1653 -0.1086
78676W        W21589   1.355  10.648   4.877  0.1699 -0.5147 -0.0328
78677W        W21590  11.292  10.739   7.628 -0.1107 -0.2584  0.1926
78678W        W21591  11.227   3.524  12.366  0.2765 -0.1767 -0.0888
78679W        W21592  10.180   4.308   8.063  0.0819  0.1346  0.3183
78680W        W21593  21.934  28.521   8.781 -0.2194  0.4050  0.1469
78681W        W21594   8.848   8.557   6.307  0.0792  0.2041  0.2578
78682W        W21595   1.768   5.941   6.467  0.0254  0.2628 -0.2453
78683W        W21596   7.143   6.646   1.052 -0.1377 -0.0536 -0.0021
78684W        W21597  10.043   8.751   6.242 -0.3687  0.1962  0.2061
78685W        W21598  13.090   8.275   9.422  0.0548 -0.2051  0.4676
78686W        W21599   1.944   5.881  29.152  0.0331  0.2506  0.0630
78687W        W21600  10.830   0.655  12.469 -0.0426  0.4600 -0.0959
78688W        W21601   8.123   3.867  12.477 -0.2938  0.1034 -0.0168
78689W        W21602  11.113  12.259   4.061  0.0181  0.0217  0.0983
78690W        W21603  14.408  32.625   6.100 -0.0171 -0.1577  0.1194
78691W        W21604   7.417  12.415   3.124 -0.4235  0.0504 -0.0747
78692W        W21605   5.735   8.885  10.067  0.2593  0.2049 -0.1030
78693W        W21606  15.182  33.264  12.058  0.3632  0.0305 -0.0450
78694W        W21607   7.401   1.260  11.259 -0.0590  0.2146 -0.1445
78695W        W21608   3.207   0.048   7.838 -0.2402 -0.4035 -0.1696
78696W        W21609   9.259   5.571  10.324  0.1167 -0.0750 -0.1158
78697W        W21610   6.565   3.158  11.750  0.1469 -0.1231  0.0656
78698W        W21611  15.661  16.002   6.593 -0.1989 -0.1019 -0.4980
78699W        W21612  17.196  23.063  28.797 -0.3532  0.0778 -0.2524
78700W        W21613   6.871   6.677   9.447 -0.2590  0.1231 -0.2900
78701W        W21614  33.600   4.673   0.416  0.0771 -0.0158 -0.1047
78702W        W21615   9.089  20.017   6.808  0.0958 -0.1736 -0.1580
78703W        W21616  28.759   0.682   8.837  0.1780  0.1113 -0.1758
78704W        W21617   8.855  32.401   5.379 -0.3684 -0.1956  0.0072
78705W        W21618   2.627   8.285  12.274  0.1904 -0.0958 -0.0772
78706W        W21619  15.921  32.418   4.475  0.0282 -0.0128  0.0052
78707W        W21620  31.625   2.540   9.906 -0.1311  0.0532  0.0430
78708W        W21621  11.400   1.302  10.272  0.0379 -0.1375 -0.2282
78709W        W21622  11.302  13.587   2.389  0.1381  0.1976 -0.0207
78710W        W21623  14.123  33.630  11.561 -0.1063  0.3898 -0.4121
78711W        W21624  17.265   3.375  10.777  0.2082 -0.0014  0.0890
78712W        W21625  10.832   9.455  10.796 -0.1619 -0.0791 -0.0134
78713W        W21626  14.788   1.694   7.162  0.2889  0.1356 -0.1574
78714W        W21627   9.335  34.056   9.539 -0.0451 -0.0299  0.4590
78715W        W21628   2.005  14.395   5.921 -0.1518 -0.4283  0.1920
78716W        W21629  14.805   5.112   3.485  0.0982  0.3304 -0.0331
78717W        W21630   9.810   8.894   4.266 -0.0951 -0.3403  0.2770
78718W        W21631   8.859  29.517   0.627 -0.1092 -0.2086  0.1210
78719W        W21632   7.132  33.843   7.357 -0.2472 -0.0111 -0.0322
78720W        W21633   2.308   5.248   8.992  0.0779 -0.1803  0.0846
78721W        W21634   4.025   6.364   7.338 -0.0173  0.2203  0.1447
78722W        W21635  10.258   2.093  10.908  0.2457  0.2010 -0.2903
78723W        W21636  10.941  16.169   8.553  0.0145 -0.0794  0.0885
78724W        W21637   5.149   8.835  29.576 -0.3406  0.1777  0.3660
78725W        W21638   7.692   2.097  12.548  0.1311 -0.3095 -0.0094
78726W        W21639  14.770   8.552   1.164  0.4436 -0.3718  0.0743
78727W        W21640   7.609  15.517   2.285 -0.0016  0.0052  0.0197
78728W        W21641  10.739   6.829  11.678 -0.4798  0.1445 -0.3180
78729W        W21642  15.747  32.257   8.622  0.2907  0.0147  0.0202
78730W        W21643   6.089  33.570   5.659 -0.1207 -0.0343  0.1388
78731W        W21644   5.950   4.721  12.721 -0.3510  0.0010  0.3856
78732W        W21645   8.837   2.781   2.160  0.3082  0.0499  0.1035
78733W        W21646  20.803   0.965   1.174 -0.1829 -0.2425 -0.1463
78734W        W21647   6.356  13.971   8.684  0.0138  0.1759  0.0619
78735W        W21648   8.577   5.198  13.059 -0.2346  0.1277 -0.1491
78736W        W21649  10.840   5.318  12.855  0.0102 -0.0622 -0.0513
78737W        W21650  12.764   3.212  10.247 -0.2360 -0.1416  0.0604
78738W        W21651   9.948  30.266   7.242 -0.1961 -0.0842 -0.6021
78739W        W21652   6.326  12.040   8.356  0.0970 -0.0352  0.0055
78740W        W21653   6.537   3.832  11.407  0.0213 -0.2338  0.0284
78741W        W21654   4.303  13.279   2.702 -0.2578 -0.0431 -0.4525
78742W        W21655  14.043   2.784  29.282  0.5721 -0.0453 -0.3241
78743W        W21656  23.212   1.203   9.410  0.0497 -0.0601  0.1700
78744W        W21657   6.642  14.775   7.445 -0.0860 -0.0533  0.2289
78745W        W21658  23.552   4.687  10.310  0.1738  0.0290  0.0083
78746W        W21659   5.886   2.082   8.261  0.0506 -0.1955  0.1736
78747W        W21660   6.287   5.886   1.562  0.0736 -0.0839  0.1042
78748W        W21661   6.090   7.973  11.700 -0.1347  0.1548  0.0495
78749W        W21662  19.803   7.531  27.579  0.1179 -0.0881  0.1012
78750W        W21663   9.567  12.686   9.933 -0.2342  0.3344 -0.2462
78751W        W21664   4.842   4.595   4.264  0.1549 -0.0311 -0.2729
78752W        W21665  13.682  18.110  29.274  0.0941  0.3745  0.0178
78753W        W21666   8.042   3.262   6.961 -0.2532 -0.1188  0.0077
78754W        W21667  16.241   4.381   4.093  0.1724  0.1743  0.0316
78755W        W21668  14.810   0.385   4.044 -0.0673  0.0134  0.1090
78756W        W21669   8.566   6.620  10.774 -0.0595  0.0429  0.1690
78757W        W21670  15.871  11.247   3.904  0.0784 -0.5045  0.1073
78758W        W21671   9.048   3.505   5.602 -0.2240  0.1254 -0.3532
78759W        W21672   7.272  18.659   7.908  0.0873  0.1115 -0.2200
78760W        W21673  31.483  16.065   4.901 -0.2192  0.2941  0.0170
78761W        W21674   8.993  34.170   3.671  0.1698  0.2753  0.0296
78762W        W21675   7.822   0.390  11.313 -0.1707 -0.1109  0.1850
78763W        W21676   7.068  31.395  11.981  0.1692 -0.1492 -0.1368
78764W        W21677   1.663   9.129  11.552  0.1163 -0.3061  0.0929
78765W        W21678   4.660   4.036  10.268 -0.0032 -0.0609 -0.1461
78766W        W21679  16.660  12.246   5.758 -0.1666 -0.0477 -0.0638
78767W        W21680  24.550   5.638   7.856 -0.0199  0.0432  0.2305
78768W        W21681   6.549  28.517  10.040 -0.1868 -0.0456 -0.0084
78769W        W21682   2.507  33.647   2.621 -0.1316 -0.0092 -0.1844
78770W        W21683  17.673  30.922   0.693 -0.0812  0.0909  0.2331
78771W        W21684  14.101  30.775   8.023  0.1615 -0.1674 -0.0921
78772W        W21685  33.172   4.568   7.166 -0.0939  0.1355  0.0424
78773W        W21686  13.279   5.121  10.386 -0.1812  0.1632 -0.4943
78774W        W21687  14.199  27.451   6.229  0.1223 -0.1390  0.0300
78775W        W21688   2.430   0.590   7.684 -0.0072  0.0316  0.3119
78776W        W21689  12.874  34.216  11.734  0.0076 -0.0858  0.2386
78777W        W21690  21.040  28.080   8.131  0.3851  0.1350 -0.1128
78778W        W21691   4.372  12.685   9.379  0.3145 -0.1521  0.0728
78779W        W21692   9.533   1.331  12.277 -0.0348  0.2248 -0.1436
78780W        W21693   6.327  33.571  10.417  0.2629 -0.5424  0.1786
78781W        W21694  12.537   8.347   9.327 -0.0448 -0.0823 -0.0176
78782W        W21695  12.001   2.284  12.161 -0.2119 -0.1660 -0.1509
78783W        W21696  17.073   5.003   6.197  0.0484  0.1016 -0.1882
78784W        W21697  10.803   1.983  12.225  0.0792 -0.0456 -0.1115
78785W        W21698   2.208   8.470   2.593 -0.1160 -0.2343 -0.0460
78786W        W21699  16.282   6.105   7.644 -0.2745  0.0395 -0.3170
78787W        W21700  19.228   8.133   5.148  0.4404  0.0219  0.0002
78788W        W21701  11.743  11.102   9.601 -0.0508 -0.0347 -0.0760
78789W        W21702   1.218   9.257   2.128 -0.0037  0.3099  0.1447
78790W        W21703  32.590  33.697   2.183 -0.0137 -0.1234  0.0960
78791W        W21704   8.117  12.012   5.995  0.0556  0.0888 -0.3055
78792W        W21705   7.987  10.217  10.161 -0.0819  0.2474 -0.2315
78793W        W21706   6.936   5.808   9.150 -0.0123  0.0796  0.3548
78794W        W21707   5.256  32.941   5.222  0.4223  0.1418 -0.1757
78795W        W21708   9.911   9.784   5.060 -0.2322  0.2018  0.2323
78796W        W21709  33.123   5.627   1.911  0.1556 -0.1356 -0.0412
78797W        W21710  17.049   6.867   3.924 -0.1971  0.0164 -0.1030
78798W        W21711   4.875  15.329   7.507  0.1001  0.0469  0.3201
78799W        W21712  11.370   8.384   8.307  0.3175 -0.1511 -0.1507
78800W        W21713  17.088  32.725   8.542 -0.1056  0.0727 -0.1183
78801W        W21714   6.609   1.121  13.096 -0.1435  0.0201  0.0326
78802W        W21715   2.519   8.432  11.155  0.1545 -0.3309  0.1853
78803W        W21716   6.648   4.191  13.022  0.0979 -0.0067  0.3407
78804W        W21717   4.075   6.322  12.549  0.0150  0.0838 -0.0081
78805W        W21718   9.875   6.144   1.603 -0.0738 -0.0981 -0.0641
78806W        W21719   5.177   0.563   0.271  0.4294  0.1316 -0.0590
78807W        W21720   2.292  11.944  10.544  0.2801  0.0218 -0.0597
78808W        W21721   8.288   2.042   7.373 -0.2377  0.1620  0.1193
78809W        W21722  30.647   4.071   7.475 -0.1505 -0.2364  0.0127
78810W        W21723  16.981  10.732  26.856 -0.3367  0.2877  0.0015
78811W        W21724   5.358   8.601   5.938 -0.0474 -0.0979  0.1226
78812W        W21725  12.261   9.878  10.066  0.0326  0.0023 -0.1337
78813W        W21726  11.176   8.734   0.642  0.0457 -0.1942 -0.1645
78814W        W21727  30.901  32.227   1.293 -0.2745 -0.1551 -0.0032
78815W        W21728   7.156  33.800   8.759  0.1930 -0.2316  0.0598
78816W        W21729   0.577   4.383  29.630  0.2448  0.2009  0.0628
78817W        W21730  10.193   9.103   2.277 -0.1079 -0.0802  0.1717
78818W        W21731  12.160  32.051   5.369 -0.0177  0.1135  0.1565
78819W        W21732   8.289  18.916   2.185 -0.2137  0.0849  0.0164
78820W        W21733   1.773   8.078   2.274  0.0750 -0.1601  0.1429
78821W        W21734  14.814  14.685   2.362  0.0708  0.1367 -0.2797
78822W        W21735  16.698   6.522   8.731  0.1215 -0.0483  0.0265
78823W        W21736  11.544  14.281   8.670  0.0882  0.3456 -0.1034
78824W        W21737   2.689  12.124  10.154  0.1718  0.0581 -0.2048
78825W        W21738  10.195   9.948   6.697  0.2027  0.1424  0.3224
78826W        W21739  15.505   0.334   9.290  0.0321  0.0221  0.0760
78827W        W21740   2.703   6.741   1.974 -0.0640 -0.1930  0.0059
78828W        W21741  18.241   1.917   9.582  0.0439 -0.0735 -0.3823
78829W        W21742  34.408  13.565   3.388  0.1889  0.0664  0.0693
78830W        W21743  11.464  12.104   9.151  0.1047  0.1669 -0.1004
78831W        W21744   7.923   0.727   8.116  0.6189  0.1593 -0.5029
78832W        W21745  10.371  11.766   9.472  0.2484 -0.3016  0.2588
78833W        W21746   7.831  31.471   9.779 -0.2423 -0.3869 -0.0311
78834W        W21747  11.673   3.140   0.910 -0.1002  0.0891  0.0634
78835W        W21748  19.981  33.868   6.053 -0.2689  0.2087 -0.1696
78836W        W21749  15.422  11.927   7.030  0.2920 -0.0512  0.2099
78837W        W21750   8.504  17.276   8.508  0.0806 -0.0219  0.2948
78838W        W21751  13.184  32.067  11.954 -0.0036  0.2906 -0.0634
78839W        W21752  12.778   8.664   4.040 -0.1232 -0.1072  0.2610
78840W        W21753  14.993   4.710   9.938  0.0163 -0.1443 -0.1471
78841W        W21754   7.329   4.594  12.166 -0.3267 -0.0360 -0.5235
78842W        W21755   4.062   7.101  11.853 -0.0912  0.2063  0.1340
78843W        W21756  15.697   4.811   7.733 -0.0689 -0.1720 -0.0077
78844W        W21757   7.332   0.550  11.642  0.2688  0.1608  0.0223
78845W        W21758   9.867   1.756   0.381  0.3027 -0.2999 -0.2219
78846W        W21759   8.210  32.171  11.736 -0.1389 -0.0050 -0.1689
78847W        W21760  30.397   3.368   1.450 -0.2343 -0.0195 -0.3087
78848W        W21761  15.084  33.030   5.731 -0.2080 -0.1574 -0.0896
78849W        W21762  12.122  13.166   2.523 -0.0971  0.0789  0.0765
78850W        W21763   9.918   3.372   8.549  0.1116  0.0690  0.1715
78851W        W21764   2.639   2.835   5.012 -0.1209  0.1382 -0.3522
78852W        W21765  18.565  31.625   7.109 -0.1129  0.1704  0.2538
78853W        W21766  12.669  12.572   5.778 -0.1889 -0.1066 -0.4776
78854W        W21767   2.609  30.936   0.989  0.1114 -0.1876 -0.0457
78855W        W21768  14.727   3.117   6.351 -0.1114  0.2453 -0.1075
78856W        W21769  11.875   2.166   7.455  0.3843  0.2943 -0.0790
78857W        W21770  17.666   7.155   6.334 -0.1199 -0.2782 -0.4024
78858W        W21771   8.096   3.430  11.950  0.0641  0.0945 -0.3209
78859W        W21772  10.254   2.473  10.218  0.2036 -0.2322 -0.1388
78860W        W21773  13.610   2.628   7.726 -0.0535 -0.2016  0.1547
78861W        W21774  33.303   8.791   8.211  0.0342 -0.1507 -0.1398
78862W        W21775   9.409  11.297   8.840  0.3746 -0.0889 -0.2116
78863W        W21776  30.353  12.307   1.023  0.0464  0.0148 -0.0064
78864W        W21777  11.843  11.834   4.848  0.0000 -0.0316  0.0051
78865W        W21778   8.289   2.582  14.214  0.0648  0.2672  0.1628
78866W        W21779   7.555   1.700  10.912  0.0243 -0.0590  0.2985
78867W        W21780  10.075   7.463   3.099  0.1057 -0.2154  0.3063
78868W        W21781   7.769   7.915  13.058  0.0284 -0.3309  0.0573
78869W        W21782  16.334   8.695   1.200 -0.1745 -0.0942 -0.2962
78870W        W21783   3.978  10.572  10.247  0.0241 -0.0132 -0.2339
78871W        W21784  10.871   2.597   4.530 -0.1096 -0.0727  0.1171
78872W        W21785  13.870   1.515   1.823 -0.3621  0.3075  0.0712
78873W        W21786  10.828   1.291   8.966 -0.1250  0.3046  0.3551
78874W        W21787  29.358  11.913   8.096  0.0206 -0.2064 -0.3549
78875W        W21788   9.463  19.507   7.540 -0.0541  0.0356 -0.0757
78876W        W21789  22.547  13.788   7.867 -0.2060 -0.0341  0.2736
78877W        W21790   4.587   5.834  11.924 -0.2730  0.2983  0.2704
78878W        W21791   9.736  29.169  25.757 -0.1305  0.1639 -0.0972
78879W        W21792  14.139  10.650   6.464 -0.1653 -0.2375  0.2472
78880W        W21793   4.680   9.640   0.887  0.0661  0.0009  0.1866
78881W        W21794  17.250   5.709   8.804 -0.2184 -0.0997  0.0813
78882W        W21795  13.290  20.853   5.632  0.0954  0.0251 -0.0847
78883W        W21796  16.755  12.139   8.169  0.1061  0.1890  0.3001
78884W        W21797   6.552  34.363   6.300  0.2440 -0.1825 -0.0623
78885W        W21798  12.087   2.545   3.727 -0.2087 -0.0048 -0.3149
78886W        W21799   5.536   8.066  12.369 -0.3182 -0.2365  0.0621
78887W        W21800   4.766   1.832   1.087 -0.3626  0.1554  0.1461
78888W        W21801   2.298   5.097   0.429 -0.0478  0.2142 -0.1067
78889W        W21802   7.378   8.613   2.891 -0.0126 -0.3497 -0.2732
78890W        W21803   6.610   8.028  13.202  0.3300  0.2664  0.0324
78891W        W21804  16.073   3.053   8.173  0.1113  0.0822  0.2157
78892W        W21805  11.737   3.119   3.440  0.2298 -0.1077 -0.2330
78893W        W21806   5.177  20.371   9.641 -0.0680 -0.1300 -0.3491
78894W        W21807   2.209  33.160   8.161 -0.0012  0.1202  0.0544
78895W        W21808  12.507   5.600  10.198  0.0113 -0.4245 -0.4197
78896W        W21809  14.225  13.876   5.501 -0.1328  0.2083  0.1139
78897W        W21810  12.484   9.178   6.494  0.2969  0.0275  0.2372
78898W        W21811  17.506  29.217  10.677  0.2868 -0.0013 -0.1493
78899W        W21812   3.312  33.257   2.929  0.3805  0.1964  0.2639
78900W        W21813  12.922  29.703   4.950  0.1698  0.0474  0.1291
78901W        W21814  31.351   7.340   5.430 -0.0482 -0.1220  0.0073
78902W        W21815   4.451   5.184  10.289 -0.0275 -0.2512 -0.1394
78903W        W21816  34.141   9.170   4.995  0.1404 -0.1203  0.3211
78904W        W21817   8.701   2.705  26.065  0.0428 -0.0320  0.2106
78905W        W21818   7.985  32.874  10.823  0.2641 -0.0757 -0.0896
78906W        W21819   4.762  12.930  10.644 -0.3881 -0.0057 -0.0033
78907W        W21820  13.955  25.543   0.034  0.1644 -0.0231  0.2018
78908W        W21821   6.949   5.668  23.745 -0.3790  0.3805 -0.0910
78909W        W21822   4.593  15.161   5.628  0.1429  0.0482  0.0117
78910W        W21823   8.073   6.441   2.252  0.0481 -0.1388  0.1791
78911W        W21824   3.154   7.278   9.738  0.0448 -0.2840  0.2785
78912W        W21825   5.515  34.491   6.727  0.1299 -0.3064  0.1299
78913W        W21826  19.715   6.549   5.272 -0.2325  0.1385  0.1437
78914W        W21827   3.878  17.978   6.457 -0.0456  0.0856 -0.1761
78915W        W21828   5.007   2.001   3.727  0.0838  0.2256 -0.0665
78916W        W21829   0.600   8.580   2.730  0.1162 -0.0484 -0.2639
78917W        W21830  33.859  13.098   9.494 -0.0664  0.1643  0.0524
78918W        W21831  12.484  33.954  11.550 -0.0449  0.0578 -0.2047
78919W        W21832   7.039   3.753   7.789 -0.0723  0.0999 -0.2622
78920W        W21833  13.171   8.822   6.058 -0.1465  0.1511 -0.2340
78921W        W21834   8.599   7.985   6.911 -0.0289 -0.0078 -0.3453
78922W        W21835  15.213   6.883   7.677 -0.0623  0.0953  0.1954
78923W        W21836   7.118  10.174  11.116  0.1269  0.0972 -0.1597
78924W        W21837   6.468  11.694   4.811  0.0348  0.0224  0.0788
78925W        W21838   2.418  19.182   9.419 -0.0237  0.5122  0.2024
78926W        W21839  10.286   5.564  11.326 -0.4830  0.0446  0.2200
78927W        W21840   2.003   3.585  11.065 -0.2619  0.2669  0.0282
78928W        W21841   8.932   0.715  13.042 -0.0982 -0.1763  0.0602
78929W        W21842   5.997   0.232  10.419 -0.0597  0.0377  0.0814
78930W        W21843   8.646   2.001   6.282  0.3934  0.2407  0.3165
78931W        W21844   5.849   2.127   3.500  0.1241  0.2002 -0.2524
78932W        W21845   7.591   5.009   9.227  0.0384  0.1169  0.1393
78933W        W21846   9.144  18.375   3.672  0.2945  0.0220  0.0451
78934W        W21847  11.586   5.235   9.398  0.2953 -0.0190  0.1936
78935W        W21848   4.779  33.430   3.395  0.2037  0.2306 -0.1309
78936W        W21849   1.030  15.274   5.287 -0.1290  0.1649 -0.0641
78937W        W21850   4.391   2.393  12.312 -0.0633  0.0441  0.1425
78938W        W21851   6.473   5.281   9.698 -0.0327  0.1162 -0.2270
78939W        W21852  13.400  16.340   6.801  0.3370 -0.0357 -0.0137
78940W        W21853  11.547   7.040   3.231 -0.0449  0.0976 -0.3807
78941W        W21854   8.245  10.401   9.168  0.0506  0.0562  0.3698
78942W        W21855   8.213  33.996   0.756 -0.0337 -0.1331 -0.0075
78943W        W21856  11.738   2.222  18.662  0.1427  0.2670  0.1107
78944W        W21857   7.951   7.212  24.817 -0.0515  0.1641  0.1354
78945W        W21858  13.767   8.076  25.659 -0.0784  0.0569 -0.2371
78946W        W21859  31.674   8.726   3.899 -0.2465  0.1163  0.1266
78947W        W21860   1.575   5.730   8.646  0.0422  0.1333  0.2016
78948W        W21861  12.515   7.233   0.771  0.1058  0.1721 -0.0110
78949W        W21862   8.048  14.649   0.146  0.0949  0.2989  0.1175
78950W        W21863  11.757  14.635   7.236 -0.0282 -0.2402  0.2189
78951W        W21864   6.345   6.482  29.475  0.0476 -0.1248 -0.0352
78952W        W21865  14.706   8.218  19.170  0.2254  0.0621  0.1268
78953W        W21866   5.387  21.288   3.123 -0.2399  0.0423  0.0705
78954W        W21867   7.842   2.918  22.427 -0.0309  0.0031  0.1583
78955W        W21868  11.367  15.997   2.623 -0.2903  0.0419 -0.1733
78956W        W21869  10.156   6.106  28.681 -0.0984  0.0589 -0.2621
78957W        W21870  19.238   4.256   9.637  0.3030  0.0748 -0.0749
78958W        W21871  31.159   3.468   5.362  0.1875  0.1179  0.0243
78959W        W21872   6.452  31.011  10.308  0.0824  0.0967  0.2592
78960W        W21873  16.208  15.324  25.702  0.1233 -0.0078  0.1706
78961W        W21874   9.826   4.257  12.546  0.3555 -0.1065  0.3101
78962W        W21875   8.811   0.455   5.457 -0.1252 -0.3167 -0.1019
78963W        W21876  12.080   4.356   0.831  0.0265  0.1323  0.1539
78964W        W21877   6.293  14.291   5.428 -0.2894  0.0796 -0.0383
78965W        W21878   2.203  10.126  26.022 -0.2001 -0.2773  0.1342
78966W        W21879  10.192   5.514  28.386 -0.0757  0.0840 -0.0688
78967W        W21880  16.452   1.606  26.005  0.0492  0.1331 -0.1450
78968W        W21881  16.467  17.235  27.088 -0.2571  0.1647 -0.0295
78969W        W21882   1.403  16.908  23.259 -0.1126 -0.1825 -0.2128
78970W        W21883   5.559   6.820   8.398 -0.0058 -0.2249 -0.0449
78971W        W21884  10.062   9.000  11.862  0.1289  0.2528  0.3356
78972W        W21885  14.823  14.192  26.199 -0.1356  0.0776 -0.2508
78973W        W21886   7.729  14.148   0.127 -0.1130  0.1432 -0.1047
78974W        W21887   7.165  10.183   9.716 -0.0615  0.0888 -0.3205
78975W        W21888  13.654   9.039  26.406 -0.5119 -0.1663  0.1012
78976W        W21889  10.047  13.834   9.726 -0.2786  0.2937 -0.1794
78977W        W21890   9.169  18.220   0.955  0.0070 -0.0769 -0.0524
78978W        W21891  12.385   4.030  12.342 -0.1432 -0.1345  0.3933
78979W        W21892   9.134  13.614   5.151  0.0739  0.0922 -0.0932
78980W        W21893   6.271  10.416  25.847 -0.0629  0.1074  0.1393
78981W        W21894  12.208   9.977  29.620 -0.0316  0.0872  0.0495
78982W        W21895  34.242  31.180  22.601 -0.1646  0.4108  0.0575
78983W        W21896   9.935  18.880   2.101  0.1487 -0.3077 -0.0202
78984W        W21897   2.019  14.817  27.321  0.0555  0.0234 -0.0154
78985W        W21898  12.223   9.020   7.501  0.2847 -0.0006  0.3633
78986W        W21899  13.649   3.003   6.426 -0.0313 -0.0851 -0.0892
78987W        W21900  12.173   3.035   3.622 -0.1165  0.1323 -0.1296
78988W        W21901  31.337  11.461   5.249 -0.2304 -0.2010 -0.1291
78989W        W21902   6.479   5.394  27.696  0.3400  0.1197  0.0874
78990W        W21903   5.604   6.260   2.223 -0.0792 -0.1436 -0.1750
78991W        W21904  15.269  11.645  26.508 -0.0067 -0.0921  0.0480
78992W        W21905   2.603   5.883   5.944  0.0420  0.1331 -0.0963
78993W        W21906  10.008   4.047  28.248 -0.2046 -0.0535  0.3886
78994W        W21907  11.446   0.102  26.754 -0.1727  0.1006 -0.0186
78995W        W21908  10.932  10.020   3.497  0.1598 -0.2787  0.0083
78996W        W21909   4.510  20.126  28.295 -0.4106 -0.0501 -0.3894
78997W        W21910   5.758   8.939  11.297 -0.2966  0.0465  0.1978
78998W        W21911   0.034   1.185  27.649  0.1367 -0.1097  0.2802
78999W        W21912  34.158   3.959  26.320  0.2722 -0.0500 -0.0730
79000W        W21913  13.195  14.377  25.331 -0.2430  0.0309  0.0780
79001W        W21914  11.884  14.398   4.825  0.2591  0.0546 -0.1094
79002W        W21915   5.955   5.776   0.739  0.1195 -0.0242 -0.3137
79003W        W21916  10.359  12.973  27.109  0.2142  0.0800  0.2818
79004W        W21917   7.719   6.425   8.000  0.2126 -0.0246 -0.2646
79005W        W21918  14.534   5.411  10.980 -0.0505 -0.0339 -0.1012
79006W        W21919  12.453   1.526   6.863  0.2110  0.0247  0.0200
79007W        W21920  17.151  12.468   6.639 -0.0134  0.0858  0.2397
79008W        W21921  16.216  17.575  26.271  0.1912  0.0320 -0.0367
79009W        W21922   5.718   6.635  27.926 -0.3777 -0.0038 -0.0858
79010W        W21923  10.652   4.725   1.158 -0.2878  0.2351 -0.0674
79011W        W21924  15.659  11.895   3.569 -0.1664  0.0430 -0.1282
79012W        W21925  10.160   9.578   9.399 -0.1096  0.0265  0.1175
79013W        W21926  29.227   6.605   2.769 -0.0373  0.0703 -0.0974
79014W        W21927   5.211   6.879  24.719 -0.2266 -0.2695 -0.0914
79015W        W21928   9.078  12.386   6.803 -0.2353 -0.0680 -0.0794
79016W        W21929  11.311  15.199   2.640 -0.1603  0.1115  0.0481
79017W        W21930  17.020  13.195   2.145  0.0197  0.1064 -0.2972
79018W        W21931   3.977   8.984   0.848  0.0155 -0.1681 -0.1194
79019W        W21932  10.832   9.075   4.572 -0.1841 -0.1706  0.2352
79020W        W21933   7.133   7.615   1.058 -0.3298  0.2673  0.1176
79021W        W21934   3.627   9.587  10.218 -0.3573 -0.3120  0.1508
79022W        W21935  14.904  13.938  27.616  0.1088 -0.3240 -0.2374
79023W        W21936   9.636   6.418   7.437  0.0545 -0.0205  0.0618
79024W        W21937  18.589  18.648  24.353 -0.1353  0.2112 -0.1675
79025W        W21938  13.892  28.770   6.566  0.0285 -0.1415 -0.3372
79026W        W21939  14.306   5.805   7.197  0.1972  0.2160  0.1331
79027W        W21940   6.042  31.374   2.912 -0.1419 -0.1696  0.0350
79028W        W21941  11.749   4.253  26.709  0.0069 -0.0123  0.2275
79029W        W21942  15.193  21.279   8.333  0.1017  0.0444 -0.0960
79030W        W21943  13.924  10.796   0.208  0.0777 -0.1327  0.0082
79031W        W21944  21.384  12.084   6.112  0.1324 -0.0864 -0.1446
79032W        W21945  18.063   3.520   1.272 -0.2463 -0.1205  0.0328
79033W        W21946   1.619   1.421  10.843  0.1658  0.2436 -0.0278
79034W        W21947  14.067  10.051   3.283 -0.1191  0.0320 -0.1008
79035W        W21948   5.556  10.638  23.869  0.1807  0.3182  0.1534
79036W        W21949   7.913  14.032  24.253 -0.1196  0.0657 -0.1379
79037W        W21950   7.305   3.520  21.264 -0.0910 -0.0085  0.1731
79038W        W21951   5.871  11.026  29.210 -0.0090  0.3928  0.1665
79039W        W21952   5.739  10.880  11.437 -0.3128  0.0982  0.3428
79040W        W21953   8.752  32.637  20.308 -0.0657 -0.0168 -0.1050
79041W        W21954   4.579  21.984   6.935  0.1076  0.4323 -0.0710
79042W        W21955   3.698  17.308   8.923 -0.2542  0.3271 -0.1073
79043W        W21956   7.440  12.670   0.293 -0.2921  0.2852 -0.1177
79044W        W21957  33.762   6.053   0.995 -0.0963 -0.2873 -0.3603
79045W        W21958   5.739   1.159  11.300 -0.2163 -0.1605 -0.0076
79046W        W21959  13.956   8.699  29.106  0.5559 -0.4032  0.1400
79047W        W21960   0.528   5.910  24.564 -0.0587 -0.3247 -0.0452
79048W        W21961   6.094   1.198   5.288 -0.1042 -0.0929  0.0455
79049W        W21962  31.992  13.251  28.622  0.1197 -0.1993  0.2126
79050W        W21963  18.217  12.862  19.600 -0.0873  0.1092 -0.0723
79051W        W21964   7.946  15.887  23.818  0.1554 -0.0566 -0.0819
79052W        W21965  18.471  14.409   0.497  0.1787  0.4609 -0.2726
79053W        W21966   8.437   7.473   7.949 -0.1596 -0.0813 -0.1395
79054W        W21967   4.334  12.807  27.242 -0.1461 -0.2482  0.4315
79055W        W21968   1.375  11.198   0.841 -0.0064 -0.0918  0.0788
79056W        W21969   9.876  17.239  24.252  0.2471 -0.0777  0.0212
79057W        W21970   8.367  10.345   6.005  0.0564  0.0751 -0.0984
79058W        W21971  21.476   9.396   0.168 -0.0409 -0.0949 -0.1009
79059W        W21972  10.550   7.365   9.119  0.0376  0.0886  0.0728
79060W        W21973  31.596   8.626  21.103 -0.2400  0.3769 -0.0275
79061W        W21974   8.251  11.856  27.593 -0.0917 -0.2676 -0.3217
79062W        W21975  11.118   8.456  25.109  0.2059 -0.0697 -0.0554
79063W        W21976  13.983   9.548   4.482  0.1004 -0.0429  0.1648
79064W        W21977  17.014  11.590  18.934 -0.1029 -0.2220 -0.0807
79065W        W21978   0.767   5.459   9.165  0.0836  0.2748 -0.0446
79066W        W21979  10.474  15.898   4.101  0.2504 -0.2100 -0.2167
79067W        W21980   5.668  24.736   2.000 -0.2016  0.3677  0.2084
79068W        W21981  12.714   5.498   8.088  0.1242 -0.1666  0.0935
79069W        W21982   5.632  32.103   5.061  0.0697  0.0531  0.3630
79070W        W21983   7.330   4.459  29.767  0.0369 -0.1491  0.0569
79071W        W21984  19.203  19.971   7.396 -0.1956 -0.0552  0.0175
79072W        W21985   8.663   8.413   7.283  0.0750 -0.1705  0.0167
79073W        W21986   4.411  19.129   6.720 -0.0576 -0.2005  0.2880
79074W        W21987  26.579  10.309  29.681 -0.1573 -0.1096  0.2145
79075W        W21988   3.289  11.554  28.546  0.1837  0.0006 -0.1932
79076W        W21989  12.208  13.165   1.782 -0.1017  0.0080 -0.0526
79077W        W21990  10.348  33.795   8.157  0.0824  0.0885  0.2284
79078W        W21991  15.787  13.321   1.952  0.0776  0.2498  0.2436
79079W        W21992  11.025   1.133   3.922 -0.0377 -0.1361 -0.2331
79080W        W21993   3.064  33.734  10.237 -0.3504  0.3646 -0.0457
79081W        W21994  11.272   3.579  12.936  0.0849  0.1282 -0.1390
79082W        W21995  18.717  10.463  27.706 -0.0494  0.2737  0.0099
79083W        W21996  10.687  11.137   0.288  0.0681 -0.0940  0.1141
79084W        W21997  16.464   9.733   0.586 -0.0680 -0.0049  0.2173
79085W        W21998   7.968  24.418   4.604 -0.1812  0.0724  0.2361
79086W        W21999   9.208  34.285   1.827 -0.1307 -0.0127 -0.1823
79087W        W22000   7.967   8.221  27.367 -0.1202  0.1829 -0.2513
79088W        W22001   5.614   1.242  28.545  0.1677  0.1788 -0.0374
79089W        W22002   6.343  14.808  10.757  0.0240  0.0232 -0.0823
79090W        W22003   3.305   3.367  26.437 -0.0983 -0.1881 -0.0677
79091W        W22004  25.399   7.600  26.561  0.3811 -0.1373  0.0632
79092W        W22005  10.963   7.296   1.912 -0.2599 -0.0792 -0.0462
79093W        W22006  14.230   4.593   9.474  0.0851 -0.0461  0.2187
79094W        W22007   2.388   5.331  11.273  0.1943  0.0621  0.2553
79095W        W22008  15.967  12.034   2.225  0.1658 -0.0454  0.1991
79096W        W22009  12.967   7.930   6.975  0.2087  0.0573 -0.0752
79097W        W22010  30.845  32.791  25.526  0.0370  0.2132  0.0747
79098W        W22011   9.963  17.177   2.102  0.0166 -0.0366  0.1116
79099W        W22012  20.817  30.805   3.413  0.0759  0.1229 -0.1349
79100W        W22013   9.129  14.464  29.378  0.0431  0.1995  0.2028
79101W        W22014  31.967  20.407   4.947  0.2192 -0.0541  0.3168
79102W        W22015  11.451   8.226   4.456 -0.1190  0.0444 -0.0256
79103W        W22016   8.448   8.404  27.428 -0.0431  0.0731 -0.0443
79104W        W22017   4.242  11.882   4.219 -0.2334  0.2669 -0.0843
79105W        W22018   6.390  11.865  27.877 -0.0794 -0.1206  0.3322
79106W        W22019   0.105  17.274  28.888  0.0974 -0.1863  0.0563
79107W        W22020   8.995   9.684  29.706 -0.1029  0.2502 -0.2806
79108W        W22021  11.946   8.224   0.806  0.1536  0.0478  0.0063
79109W        W22022   6.934   2.659  19.271 -0.1465 -0.2706 -0.1051
79110W        W22023   5.806   1.013   7.443  0.2111 -0.0854 -0.1085
79111W        W22024  26.262   9.213   2.387 -0.2603 -0.1434  0.0857
79112W        W22025  15.655  10.830   3.668 -0.2051  0.0668 -0.3183
79113W        W22026   1.827   2.730  10.993  0.0799 -0.1669 -0.0789
79114W        W22027   2.946   2.305   0.647 -0.1959  0.1627  0.3468
79115W        W22028   7.209  19.656   9.607  0.1828  0.3967 -0.0102
79116W        W22029   6.293  15.843   5.300 -0.1178 -0.0058 -0.2275
79117W        W22030   8.850   6.664   8.387  0.0454 -0.0311  0.0678
79118W        W22031  33.749   8.013   4.087  0.3331 -0.2228  0.1704
79119W        W22032  15.867   7.214  10.107  0.0588  0.5672 -0.1119
79120W        W22033  19.244  16.296  28.595  0.0990 -0.1227  0.1134
79121W        W22034   9.077  13.517  10.106 -0.1438  0.1884  0.1177
79122W        W22035   4.945   1.343  17.910  0.0821  0.0855 -0.3393
79123W        W22036   4.544   3.233   7.042  0.2528 -0.2886 -0.1240
79124W        W22037  28.436  18.599  27.891 -0.5785  0.0854 -0.0574
79125W        W22038   5.049   2.229  26.005  0.1413  0.2562  0.0142
79126W        W22039  12.936  10.563   5.456  0.1863  0.0224  0.1434
79127W        W22040   3.789   2.431   9.545 -0.1913 -0.1736  0.0296
79128W        W22041   8.631  13.601   7.686  0.2544  0.0287 -0.3883
79129W        W22042  11.546   4.000   0.023 -0.1988 -0.2506 -0.3492
79130W        W22043   7.614   5.194   7.115 -0.2591  0.1971 -0.1072
79131W        W22044   9.633   5.349   2.077  0.4386 -0.4468 -0.2518
79132W        W22045   8.524  23.632   2.221  0.0847  0.0217 -0.0976
79133W        W22046  16.508  10.936  29.458 -0.1375  0.0871 -0.0942
79134W        W22047   2.866   2.533  26.955 -0.1671  0.0890  0.1258
79135W        W22048   8.242   8.846  25.272  0.0293 -0.0971  0.2721
79136W        W22049  12.023  11.823   2.459  0.1275  0.2015 -0.2216
79137W        W22050   8.300  15.040  26.708 -0.1366 -0.0536  0.3188
79138W        W22051  11.373   5.774   6.258  0.1309  0.2021  0.0298
79139W        W22052  12.376   7.979   0.486  0.1799  0.2557 -0.1380
79140W        W22053   5.943   7.042  25.712  0.0291 -0.2523  0.1726
79141W        W22054  16.603   9.582   5.367  0.2137  0.2939  0.0464
79142W        W22055   9.382  14.562   1.853  0.0295  0.2701 -0.2251
79143W        W22056   5.252  11.989  19.617  0.1119  0.0910 -0.1129
79144W        W22057  30.303  14.802  26.818 -0.4890  0.1488 -0.1524
79145W        W22058  13.115   4.438  26.097  0.0209 -0.0180 -0.1301
79146W        W22059   6.463   7.939  25.326 -0.0222 -0.3738 -0.0035
79147W        W22060  12.692  13.236  25.856 -0.2947 -0.1800 -0.0874
79148W        W22061   9.139   8.934   2.046 -0.1223 -0.1363  0.2541
79149W        W22062  32.657  19.900   9.385  0.1470 -0.4308 -0.0780
79150W        W22063   6.924  15.835   6.364  0.3300  0.0300 -0.0807
79151W        W22064  13.191  10.643   4.641  0.0332 -0.4575 -0.3688
79152W        W22065  33.187  21.460   9.633 -0.1685 -0.1580 -0.1488
79153W        W22066   1.382   9.478  27.427  0.4123  0.1920  0.1037
79154W        W22067   6.911   4.465  26.237 -0.1724  0.4288  0.0085
79155W        W22068   4.932   5.204   0.876  0.0642 -0.0603  0.0983
79156W        W22069   1.124   6.850  25.309  0.1194  0.2721  0.0109
79157W        W22070   9.175   9.214  29.582 -0.1051 -0.0575 -0.0284
79158W        W22071   6.074   7.783  20.419 -0.1187  0.1732 -0.1157
79159W        W22072  17.045  20.077   2.975 -0.2002 -0.3350  0.0925
79160W        W22073   6.231  10.963   3.588 -0.1856 -0.2589  0.0055
79161W        W22074   6.033   7.097  26.468  0.0963  0.2682 -0.0585
79162W        W22075   0.684  32.322  26.811  0.4910 -0.1938  0.0911
79163W        W22076  17.285  10.099  29.768 -0.1479 -0.0721  0.1660
79164W        W22077  11.794   1.388   0.892  0.1554 -0.0781  0.0999
79165W        W22078   6.939   6.711   0.568 -0.1745  0.2738 -0.0229
79166W        W22079  10.403  20.255   1.279  0.0067  0.4151 -0.1581
79167W        W22080   2.045   8.069   0.333  0.0340  0.1060 -0.0998
79168W        W22081   6.106  16.717   1.610  0.1428 -0.0650  0.0838
79169W        W22082   5.857   9.910   0.536 -0.0240 -0.4756 -0.0815
79170W        W22083  29.604   5.100  23.364  0.0824 -0.1954 -0.0731
79171W        W22084  30.519   3.954  10.526 -0.0328 -0.1620  0.4237
79172W        W22085  17.008  11.485   1.426  0.5419  0.0004  0.0833
79173W        W22086  16.195   8.536   4.231  0.2555 -0.1612  0.0889
79174W        W22087  17.774   8.076  17.978  0.1534 -0.0993 -0.2064
79175W        W22088  11.120  15.715   6.488  0.0030 -0.1987 -0.0981
79176W        W22089  31.676  16.378  21.608 -0.0299 -0.2629  0.1494
79177W        W22090  20.223   6.446  22.278 -0.0122  0.0748  0.0143
79178W        W22091   2.751   7.157   7.668 -0.2118 -0.0529  0.4501
79179W        W22092  11.005   6.185   2.882 -0.0054 -0.1663 -0.1680
79180W        W22093   5.078   7.350  28.972  0.0278 -0.1454 -0.0062
79181W        W22094   5.459  14.357   8.261 -0.1925 -0.0509 -0.0785
79182W        W22095  11.526  20.746  29.048  0.1451 -0.1480 -0.0225
79183W        W22096  10.010  13.854   4.692  0.3189  0.1201 -0.2449
79184W        W22097  13.051  10.657  29.182  0.0156 -0.1007 -0.0340
79185W        W22098   6.744  34.336   9.946  0.2810 -0.4058  0.1749
79186W        W22099   3.894   9.018   7.555  0.0745  0.1499 -0.1540
79187W        W22100   3.363   8.949   0.898 -0.0041  0.0052  0.1323
79188W        W22101   9.818   0.275  18.937 -0.2494  0.2189 -0.4506
79189W        W22102   0.459   7.844   2.200 -0.0992  0.1545  0.3034
79190W        W22103  11.294   3.860   4.783  0.0944  0.1263  0.2800
79191W        W22104   1.334   1.505  26.143  0.1160  0.0812  0.0682
79192W        W22105  11.696   1.997   2.593  0.3084 -0.2972  0.2598
79193W        W22106  10.621   5.331  19.892 -0.1352  0.1943 -0.2348
79194W        W22107   5.696   7.219   1.565 -0.1015  0.1826  0.1631
79195W        W22108  30.818  16.155  27.585  0.1082 -0.0758  0.0762
79196W        W22109   9.159   6.770   7.016  0.2041  0.2702 -0.0786
79197W        W22110   9.320   9.071   1.156  0.2624 -0.0676 -0.0081
79198W        W22111   8.614   1.887   7.774  0.0192 -0.1964 -0.0524
79199W        W22112   5.589  13.717  28.190  0.0002  0.2444  0.0620
79200W        W22113   5.223  16.758   2.856  0.0847  0.0041  0.3216
79201W        W22114  12.917  34.272  29.673 -0.0553  0.3439  0.2432
79202W        W22115  10.642  16.280   7.075  0.0880 -0.0655  0.2035
79203W        W22116   9.189  32.638  21.535  0.0620 -0.0054 -0.2735
79204W        W22117   5.605  12.656  10.124 -0.3039 -0.1039  0.0124
79205W        W22118  13.107   6.058  15.897  0.1503  0.2459  0.1079
79206W        W22119  12.689  10.772   0.702  0.1534  0.3016 -0.2270
79207W        W22120  10.617   7.256   6.926 -0.2534 -0.1462  0.2546
79208W        W22121  13.666   1.395  10.072  0.0896 -0.2361  0.2239
79209W        W22122  22.169  11.688   8.029 -0.2531 -0.0472 -0.3357
79210W        W22123  15.025   3.943  18.389 -0.0337 -0.4319  0.2329
79211W        W22124   1.634   9.691   8.795 -0.2004 -0.1898  0.2638
79212W        W22125   7.182  17.349  18.004  0.2237  0.2115  0.1482
79213W        W22126  30.362  20.324   4.139  0.2327  0.2066  0.0874
79214W        W22127  11.373   2.259   8.838 -0.0084 -0.1082  0.0137
79215W        W22128   1.421   2.789  12.252 -0.0551 -0.0296  0.1702
79216W        W22129  33.432   7.031  27.177  0.2005  0.0264 -0.0197
79217W        W22130  17.198  17.981  23.975 -0.1078  0.0220  0.3784
79218W        W22131  12.407   2.875  11.025 -0.2115 -0.1324 -0.1070
79219W        W22132   7.460  16.837   1.858  0.3752  0.1254  0.2978
79220W        W22133  10.110  18.243   1.399 -0.1814 -0.2576 -0.1618
79221W        W22134  16.456   1.752   2.477  0.0856 -0.2147  0.0193
79222W        W22135   9.618  15.637   3.010  0.2297  0.0037  0.1187
79223W        W22136   1.913   8.424  27.549 -0.3103 -0.0832 -0.1570
79224W        W22137  15.453  29.960  24.735  0.1391  0.2735 -0.2293
79225W        W22138  29.695  31.674  20.941  0.0640  0.2904 -0.1236
79226W        W22139  17.206  15.211   4.607  0.0511  0.4144  0.5226
79227W        W22140  10.431   9.363   6.818 -0.5710  0.0332  0.1973
79228W        W22141  34.183  10.811   8.247 -0.2301  0.1390 -0.0840
79229W        W22142  13.604  13.240  28.449 -0.2205 -0.3848  0.0337
79230W        W22143  33.901   3.735   9.328 -0.1978 -0.0985  0.0698
79231W        W22144  16.417  14.312   0.959 -0.0252  0.1288 -0.0516
79232W        W22145   4.017   8.539   2.324  0.1528  0.1532  0.2079
79233W        W22146   5.846  12.374  24.264  0.1729 -0.3047 -0.2069
79234W        W22147  14.962  33.181   2.038 -0.0738  0.2415 -0.2371
79235W        W22148   8.677   3.166   3.577 -0.0353  0.2742 -0.1502
79236W        W22149   7.228   9.917   1.974  0.0617 -0.1387 -0.1870
79237W        W22150  29.328  11.564   0.246  0.0558  0.0655  0.0990
79238W        W22151  11.205   1.619   5.482 -0.0145 -0.1292 -0.0696
79239W        W22152  11.930  10.827   0.400 -0.0974 -0.1270  0.0158
79240W        W22153  32.902  12.711   2.985  0.0208 -0.1759 -0.0604
79241W        W22154  11.387  14.640   9.084 -0.0560  0.2984 -0.3141
79242W        W22155  11.500  13.033   7.167  0.1655  0.0433 -0.0675
79243W        W22156   9.671   6.528  22.433 -0.1628  0.3348 -0.3274
79244W        W22157  29.234  15.494  25.915  0.1831  0.1635 -0.1114
79245W        W22158  19.989   7.896  18.332  0.0549  0.0107  0.2436
79246W        W22159   7.493   1.842   5.513 -0.1444 -0.3715 -0.0174
79247W        W22160  15.701   3.190   5.253 -0.0396 -0.0246 -0.2055
79248W        W22161   5.230   8.825  10.045 -0.0082 -0.0691  0.0609
79249W        W22162   7.821   4.975   3.505 -0.2318  0.0661  0.0240
79250W        W22163   3.527   6.894  28.403  0.1450  0.0901 -0.0877
79251W        W22164  18.755  11.341   8.503  0.1109 -0.1942  0.2599
79252W        W22165  18.065   8.060  26.073 -0.0988 -0.1204 -0.1611
79253W        W22166   1.708   4.546   0.017 -0.1700 -0.2833  0.3111
79254W        W22167  31.608  12.959  28.648 -0.0784 -0.0792  0.1179
79255W        W22168  11.757   8.576   5.399  0.1448 -0.0300  0.0542
79256W        W22169  10.367   7.679   5.613 -0.0193  0.0293 -0.0047
79257W        W22170   3.032   9.978  28.499  0.0023  0.2667 -0.0246
79258W        W22171  16.898   6.402  18.363 -0.0116  0.1871  0.0469
79259W        W22172   6.476  31.260  28.434  0.1059  0.0303 -0.2339
79260W        W22173  33.558  22.617   1.453  0.1010  0.0261 -0.1263
79261W        W22174   8.055  10.906   4.249 -0.0299 -0.2481  0.1461
79262W        W22175  10.842   9.471   4.855 -0.0023 -0.0055 -0.0606
79263W        W22176  16.731  13.918   5.653 -0.0713  0.2190  0.2153
79264W        W22177   5.140   9.472   0.694  0.0279  0.0126  0.0970
79265W        W22178  10.457  11.954  27.113  0.2042 -0.4348  0.4670
79266W        W22179   1.925   9.165  26.763  0.2968  0.2657 -0.0682
79267W        W22180   3.211  16.015   9.374 -0.3761 -0.1841  0.0433
79268W        W22181   4.334  33.523   5.551  0.0364 -0.2425 -0.0918
79269W        W22182   7.740  10.945  10.694 -0.0775 -0.0616  0.2075
79270W        W22183   1.425  10.329  18.182  0.1108  0.1170  0.2461
79271W        W22184  10.421  13.069   3.655 -0.0292  0.3031  0.4183
79272W        W22185   4.670  11.137   5.964  0.0038 -0.2507 -0.1017
79273W        W22186  17.308  24.483   3.408  0.1523 -0.1907  0.2444
79274W        W22187  30.865   9.294   1.006  0.2423 -0.0884  0.0600
79275W        W22188   2.331  15.338   3.271 -0.0548  0.1985 -0.2199
79276W        W22189   5.172   6.095   4.078 -0.0665 -0.0643 -0.1332
79277W        W22190   2.822   2.361   4.892 -0.3678  0.2639 -0.0997
79278W        W22191   9.708  10.649  26.790 -0.0023  0.1456 -0.0345
79279W        W22192  10.494  14.214   4.148  0.1463  0.1016  0.3317
79280W        W22193   9.267  12.220  28.180 -0.2378 -0.2286  0.1672
79281W        W22194   7.479  26.521  26.599  0.2580 -0.3158  0.1645
79282W        W22195  15.331  33.604  10.619 -0.3180  0.1813 -0.1340
79283W        W22196  14.262   1.230   3.221  0.1157  0.0345  0.1064
79284W        W22197  11.885  11.061   8.266 -0.0140  0.1487 -0.2522
79285W        W22198   7.880  13.468  25.213 -0.0090  0.1149  0.0331
79286W        W22199  30.549  11.892   0.344  0.2180  0.0009  0.1193
79287W        W22200   5.907   7.371   6.289  0.0543  0.0105  0.0930
79288W        W22201   8.880   2.663  29.032 -0.1941 -0.2764  0.2440
79289W        W22202  11.387  13.497  20.849 -0.0982 -0.0142  0.1715
79290W        W22203  13.064  18.259   2.651 -0.1216  0.0530 -0.2385
79291W        W22204   7.876   3.285  28.381 -0.3407  0.1391  0.1036
79292W        W22205   9.261  14.717  22.553  0.0528 -0.2166 -0.1573
79293W        W22206  12.358  17.029  21.715  0.0183 -0.1635 -0.0839
79294W        W22207   7.876  11.564   1.701 -0.1696  0.2683 -0.2024
79295W        W22208   9.777  20.689   4.735 -0.0861 -0.0861 -0.1695
79296W        W22209  13.999   0.082   9.708 -0.1895  0.1647 -0.0104
79297W        W22210  33.647  13.033   7.396 -0.0236  0.0047 -0.1504
79298W        W22211   6.738  12.620   6.676  0.3996  0.1676 -0.0418
79299W        W22212   4.493   7.239  13.015 -0.0528 -0.2807 -0.0825
79300W        W22213  26.895  18.234  24.512 -0.3955  0.0353  0.4713
79301W        W22214  16.172   3.035   3.627  0.0445  0.2618  0.0412
79302W        W22215   6.370   6.113   7.542 -0.0004 -0.0742  0.0945
79303W        W22216  11.707  11.583   6.279 -0.0324  0.1028 -0.1580
79304W        W22217   6.551  17.296   6.094 -0.0485  0.0474 -0.0164
79305W        W22218  20.082   7.432   1.296  0.2795 -0.1559  0.1634
79306W        W22219  12.333  21.265   2.347  0.2479 -0.2781 -0.1556
79307W        W22220  10.593   6.890   4.558 -0.1515 -0.1378  0.2158
79308W        W22221   9.060  19.512  19.782 -0.1901 -0.0525  0.2544
79309W        W22222   6.757  19.568  29.398  0.0608 -0.1362  0.1924
79310W        W22223  11.254  32.808   1.686 -0.2210  0.0505 -0.1782
79311W        W22224  32.499   6.197  20.757  0.3145  0.0463 -0.1634
79312W        W22225  11.019   7.887  19.420 -0.3108  0.4626 -0.3405
79313W        W22226  12.208  20.729   4.178  0.2778 -0.0146  0.2348
79314W        W22227   7.677  13.777   1.669 -0.0634 -0.0303  0.1669
79315W        W22228  34.390   5.761  24.848 -0.1705  0.0905 -0.0847
79316W        W22229   9.286   4.281   4.331 -0.2821  0.0517 -0.0903
79317W        W22230  27.779  16.088   0.166  0.0221 -0.0720 -0.0017
79318W        W22231   6.100  11.736   9.258  0.0847  0.0729  0.1416
79319W        W22232  34.487   4.162   9.738 -0.0566 -0.2859  0.0002
79320W        W22233   6.441   2.980  12.663  0.0331  0.2629  0.1469
79321W        W22234   8.846   3.748   2.235 -0.4798  0.1079  0.1136
79322W        W22235  20.252  11.000   1.083 -0.0284 -0.0909  0.2006
79323W        W22236  27.771  12.026   9.850 -0.0436 -0.1200 -0.1007
79324W        W22237   7.296  10.996   4.850 -0.0337  0.0825  0.0908
79325W        W22238   9.385  18.981   8.453 -0.1047  0.1821  0.4068
79326W        W22239  12.993   1.193   1.069 -0.0602  0.2287  0.2203
79327W        W22240  11.953   6.060   6.259  0.0383  0.0737 -0.0284
79328W        W22241  13.014  12.352  26.660  0.0942  0.2219  0.3101
79329W        W22242   3.904  10.237   0.610 -0.4469 -0.1170  0.2621
79330W        W22243  17.128   6.406   7.413 -0.0306  0.2304  0.1856
79331W        W22244  22.256  13.093  27.659  0.1011 -0.0918  0.0176
79332W        W22245  22.970  12.603   5.652 -0.1763  0.1244 -0.0126
79333W        W22246   5.696  20.230   1.453  0.0900 -0.0705  0.0324
79334W        W22247   1.652  10.581   8.878 -0.1169  0.0597  0.0495
79335W        W22248  18.007   9.306  28.817 -0.2104 -0.0186 -0.1476
79336W        W22249   5.236  30.015  17.961 -0.1122 -0.0440  0.3088
79337W        W22250  13.446   4.557  26.539 -0.1167 -0.1732 -0.0884
79338W        W22251  14.410   0.543   1.012 -0.1663  0.2021  0.0581
79339W        W22252  22.396   5.451   5.224 -0.0377 -0.1165  0.1145
79340W        W22253   8.121  17.501   3.966  0.3356 -0.1056  0.4489
79341W        W22254   3.461   6.163   2.030  0.0138  0.0442 -0.0424
79342W        W22255  27.099  15.306   4.485 -0.2975  0.0823  0.2295
79343W        W22256   5.802   6.311   9.082 -0.1044  0.1007  0.3408
79344W        W22257   3.702   3.831  21.742 -0.0042  0.1559 -0.3034
79345W        W22258  12.058  25.678  26.702  0.0317 -0.2134 -0.2863
79346W        W22259  31.270  10.973  10.165  0.3412  0.0308 -0.0289
79347W        W22260  11.129  14.913  27.892  0.1230  0.0491 -0.0763
79348W        W22261   5.959   9.113   7.709  0.1352  0.1400 -0.0839
79349W        W22262  12.011  18.239   1.374  0.0467  0.3391  0.1684
79350W        W22263  13.998   8.689   9.972 -0.1160  0.1107  0.0707
79351W        W22264  11.511  15.735   5.442  0.3413 -0.2013 -0.0218
79352W        W22265   2.826   5.120   5.193  0.2615  0.1277 -0.1627
79353W        W22266   6.448  11.196  10.332  0.0826  0.0571  0.1820
79354W        W22267   9.268  11.599  28.703  0.4235 -0.0811 -0.0387
79355W        W22268   3.314  33.066   4.156 -0.0833 -0.2470  0.1583
79356W        W22269   5.616  16.359   8.816  0.1494 -0.0342  0.2910
79357W        W22270  16.103   6.258   5.432  0.0269  0.2119  0.3637
79358W        W22271   7.117   9.664  25.212  0.2028 -0.4586  0.4009
79359W        W22272  10.338   5.493   5.261  0.1347 -0.5207  0.1733
79360W        W22273  11.105  18.672   4.920 -0.2473  0.0598  0.0033
79361W        W22274  14.295  10.937   5.948  0.0270 -0.1750  0.0618
79362W        W22275   9.395   7.055   8.019 -0.0446  0.4015  0.0432
79363W        W22276  12.841  12.724  25.906 -0.0078 -0.1903  0.2337
79364W        W22277  10.134  12.400   2.468  0.0264 -0.2026 -0.0771
79365W        W22278  11.627  10.129   5.781  0.0161  0.2591 -0.4344
79366W        W22279   6.653  31.273  27.542 -0.4598 -0.1190 -0.2086
79367W        W22280  10.593  19.740   5.814  0.2856  0.1712 -0.2835
79368W        W22281   9.038  30.466   0.610 -0.0984  0.2323 -0.1599
79369W        W22282  11.705  15.932   3.570 -0.1166  0.2704  0.0651
79370W        W22283   6.989  10.939   7.896  0.4531  0.0337  0.1360
79371W        W22284  11.785  34.210   5.778 -0.1834 -0.3008  0.0654
79372W        W22285  24.707   4.710   8.100  0.4218 -0.5228  0.2265
79373W        W22286   0.857   5.504   2.808  0.1748  0.0945  0.0543
79374W        W22287   5.866  34.470   1.455  0.0703 -0.0635 -0.2377
79375W        W22288  11.094  15.381   9.185 -0.2992 -0.1514 -0.1159
79376W        W22289  10.205   8.937   7.805  0.1267 -0.2228  0.2139
79377W        W22290  26.767  13.592   1.713  0.0209  0.1105 -0.2052
79378W        W22291   2.751  10.848   8.626 -0.1640 -0.4782 -0.1829
79379W        W22292   5.622  13.087  10.695  0.1780  0.1251 -0.1800
79380W        W22293  14.017  11.878  29.478 -0.2995  0.0790 -0.0779
79381W        W22294  12.533  10.825   4.669  0.1333 -0.1127  0.0387
79382W        W22295   6.420   0.857  12.265  0.2974  0.1483  0.1065
79383W        W22296   0.469   8.273   5.925 -0.2161 -0.0185 -0.1720
79384W        W22297   6.217   7.177  12.081  0.0446 -0.2512  0.0241
79385W        W22298  33.418  12.336   5.009  0.1555 -0.0544 -0.0951
79386W        W22299   8.924  14.464   2.686  0.4900 -0.3277  0.0050
79387W        W22300  29.227   9.298   0.992  0.2164 -0.1356 -0.2293
79388W        W22301  15.199   8.603  29.562  0.0902 -0.1668 -0.0593
79389W        W22302   9.458   6.097  10.985 -0.1413  0.2430  0.1251
79390W        W22303  31.388  34.074   3.415  0.4027  0.0696  0.2826
79391W        W22304  11.736   2.683  10.876 -0.1067 -0.1385  0.0856
79392W        W22305   4.103   9.577  11.062 -0.1797  0.1159  0.2664
79393W        W22306   6.905  33.006   9.551 -0.0359  0.0420  0.0415
79394W        W22307   8.140  18.054   7.497  0.0608  0.0848  0.0285
79395W        W22308   1.574  10.525  29.473 -0.0395  0.0669 -0.1131
79396W        W22309   5.211  30.660   4.952  0.3227  0.1132 -0.2797
79397W        W22310   7.619  14.840   9.664 -0.1725  0.3438 -0.0770
79398W        W22311  32.504  11.402   5.988  0.1718  0.0442  0.0233
79399W        W22312  11.759  14.821   3.787 -0.1560  0.2888  0.0758
79400W        W22313   9.187  15.795   0.611  0.1205 -0.1323 -0.1499
79401W        W22314   4.217  11.444  21.420  0.1148  0.3634 -0.2253
79402W        W22315   2.393   8.933  10.994 -0.1264 -0.3733 -0.2118
79403W        W22316   8.126  33.655   1.873  0.0081  0.0197 -0.0828
79404W        W22317   4.978   6.678  10.494  0.1534  0.0244 -0.0542
79405W        W22318   4.758   3.169   4.307 -0.2414  0.1031  0.1000
79406W        W22319  15.581   9.462   5.256 -0.2681 -0.2043 -0.1374
79407W        W22320   0.681   3.311   4.746  0.3045  0.1729 -0.2609
79408W        W22321  12.278  10.029  11.098 -0.0433  0.0817 -0.2174
79409W        W22322   7.215  15.193  25.807  0.3605 -0.3101 -0.1838
79410W        W22323   6.494  17.114   7.046  0.1450  0.3770 -0.3253
79411W        W22324   2.260   9.865  25.548  0.0923 -0.2924 -0.1996
79412W        W22325   6.664   3.927  12.193 -0.1834 -0.0258  0.0144
79413W        W22326   3.210   0.716   9.316 -0.1225  0.2293  0.0874
79414W        W22327   8.012   7.075   8.614  0.0288  0.1511  0.0911
79415W        W22328   5.989   5.838   7.739  0.3191 -0.2094  0.1745
79416W        W22329   7.024  11.737   9.651 -0.1438  0.1431 -0.0191
79417W        W22330   6.039   4.985  14.249  0.2855 -0.2479  0.1654
79418W        W22331  10.763  11.073  10.362 -0.1527  0.0853  0.1548
79419W        W22332  11.698   5.264  26.776  0.1897 -0.2068 -0.2677
79420W        W22333   7.787  10.175  28.298  0.1304  0.0793  0.2161
79421W        W22334  19.266   9.395  28.385 -0.0888  0.0826  0.2008
79422W        W22335   2.424   8.817  28.109 -0.1573  0.1287  0.1417
79423W        W22336  17.516   8.008  16.471  0.4094 -0.0077 -0.2093
79424W        W22337  32.660  30.818   7.414  0.1347 -0.0188 -0.1021
79425W        W22338  16.038   5.722   5.087  0.2634  0.0661  0.1237
79426W        W22339  33.680  12.065  26.325  0.0420 -0.1603 -0.0711
79427W        W22340  13.023   7.711   1.437 -0.0027 -0.1288 -0.1949
79428W        W22341  14.749   5.654   8.610  0.1127  0.2065 -0.1225
79429W        W22342   6.464  20.927   4.795  0.1380 -0.0021 -0.2141
79430W        W22343   8.160   8.613   9.885  0.1781 -0.0974 -0.1528
79431W        W22344  13.380  28.588  26.729  0.0543 -0.3320 -0.0205
79432W        W22345  14.427  14.269  20.527  0.1261  0.0166 -0.1842
79433W        W22346  32.967  30.954   9.687 -0.0334 -0.1555 -0.2051
79434W        W22347   6.804   4.648   9.409 -0.0655  0.1376  0.3946
79435W        W22348  13.474   0.298   7.100 -0.1686 -0.2111 -0.2600
79436W        W22349   9.055  17.024   1.665  0.0818  0.2699 -0.2867
79437W        W22350  17.504  12.557   6.246  0.1328 -0.1057 -0.1238
79438W        W22351  11.324  16.020  18.328 -0.2363 -0.1773 -0.1335
79439W        W22352   4.817  15.144  28.278 -0.0314  0.1092  0.2204
79440W        W22353   8.246   8.484   4.611  0.0239 -0.1293  0.0984
79441W        W22354   9.742  10.982  21.081 -0.3414 -0.0791  0.1299
79442W        W22355  17.470  19.511   4.024 -0.1367 -0.0821 -0.1672
79443W        W22356   8.497   4.323  10.553  0.2182 -0.0085 -0.0648
79444W        W22357   6.283   8.322   8.902 -0.1532  0.1895  0.0807
79445W        W22358   7.333   9.468   1.712  0.0674  0.1406  0.3195
79446W        W22359   3.513   5.312   1.937  0.1779  0.2274  0.1820
79447W        W22360  28.059  12.876  24.494 -0.3212  0.1654  0.5656
79448W        W22361   4.332   1.470   7.963  0.0749 -0.2356 -0.1569
79449W        W22362   8.392   7.096   3.937 -0.0114  0.0169  0.3461
79450W        W22363   9.454   5.562   9.520  0.2277  0.0790  0.1220
79451W        W22364   3.380   8.061  28.631  0.2530 -0.2684  0.2632
79452W        W22365   6.141  12.002   2.552  0.2546 -0.2879 -0.2555
79453W        W22366   2.860  23.207   5.469  0.0378  0.0903  0.1752
79454W        W22367  18.269   7.616   8.580 -0.2522  0.3041  0.4767
79455W        W22368  14.320   6.441  27.980  0.2370  0.3193 -0.2425
79456W        W22369   6.582  33.657  24.518 -0.1251  0.1982 -0.4361
79457W        W22370  27.916  13.012  28.441  0.1316 -0.3584  0.2726
79458W        W22371   0.991  13.430  26.097  0.0651 -0.3013 -0.0090
79459W        W22372   6.070  13.859  29.007 -0.1404 -0.1642  0.0236
79460W        W22373   2.337  18.426   4.309  0.2080  0.0145 -0.2565
79461W        W22374  14.978  16.161   8.054  0.0396 -0.1739  0.1635
79462W        W22375   5.243   4.491   5.364 -0.0997  0.0454 -0.1004
79463W        W22376   4.149   4.442   9.798  0.1318  0.0801  0.2516
79464W        W22377   8.998  30.716   9.792 -0.1482 -0.0190 -0.1037
79465W        W22378  11.472   7.355   0.268  0.2478 -0.1763  0.1008
79466W        W22379  10.901  10.704  28.029  0.0345  0.1217  0.1691
79467W        W22380   6.498   7.900  24.340 -0.3574  0.0377 -0.0511
79468W        W22381  11.271  33.684   0.235  0.2581  0.0552 -0.0601
79469W        W22382  11.831   9.002   8.493  0.0572  0.4624  0.3713
79470W        W22383   9.226   5.404  12.046 -0.1345 -0.0082 -0.2877
79471W        W22384  30.113   5.862   0.016  0.0222 -0.3887 -0.2904
79472W        W22385   8.921   6.249  12.538  0.2005  0.0971 -0.2296
79473W        W22386  10.748  22.042   2.857 -0.2964 -0.0302  0.1123
79474W        W22387   0.305  11.347   2.754 -0.0807 -0.1486 -0.0521
79475W        W22388  31.349   6.252   2.733 -0.2910  0.1829 -0.1343
79476W        W22389  17.061   6.026   2.148  0.3206 -0.0340  0.0083
79477W        W22390   8.751   7.076   1.159 -0.3473  0.1040  0.2169
79478W        W22391   3.789   5.121   7.091  0.1463  0.0869 -0.0117
79479W        W22392   5.060   4.363  11.138  0.2992  0.1991  0.2665
79480W        W22393   0.062  13.979   1.576  0.0837 -0.5097 -0.1010
79481W        W22394   1.084  30.662   6.373  0.0538  0.0059 -0.0369
79482W        W22395  30.145  11.081   8.896  0.1204 -0.0743 -0.0464
79483W        W22396   4.923   8.605   6.782  0.0347 -0.0373  0.0988
79484W        W22397  12.434  12.634   2.371 -0.1302 -0.0117 -0.0038
79485W        W22398  10.890  16.924   5.841 -0.2295  0.4707  0.0193
79486W        W22399   5.412   9.936   8.024  0.1674 -0.1306  0.1629
79487W        W22400  20.185   1.487  25.150  0.3757 -0.0249 -0.2010
79488W        W22401  11.743   7.237  11.676 -0.2475 -0.1417 -0.0952
79489W        W22402  29.330   2.516  25.205  0.0986  0.0959  0.0386
79490W        W22403   4.915   9.220   8.960  0.1539 -0.1889 -0.2481
79491W        W22404   0.673   8.026  22.679 -0.1013  0.4287  0.1104
79492W        W22405  14.841  33.779  26.785 -0.2771  0.0599 -0.1560
79493W        W22406  15.832  14.027   7.230  0.1401  0.0767 -0.2063
79494W        W22407  33.186  10.545   3.833 -0.2358  0.2900  0.1686
79495W        W22408  12.290  17.215  27.246  0.1040  0.0159  0.1517
79496W        W22409  10.350   6.201   2.838  0.0049 -0.0628  0.0367
79497W        W22410   8.292  31.960   2.011 -0.0346 -0.1295 -0.2811
79498W        W22411   5.749  12.824  25.172  0.1157  0.3656  0.3553
79499W        W22412   5.356   7.718  25.940  0.0060  0.0270  0.0227
79500W        W22413   7.689  13.459   6.021 -0.3881 -0.2235  0.1404
79501W        W22414  16.950  12.860   6.937 -0.1443  0.1403 -0.0124
79502W        W22415  13.930  11.808   1.036  0.1710  0.3100  0.4352
79503W        W22416   4.713   4.545  11.831 -0.0907 -0.3578  0.1066
79504W        W22417   3.298  19.724   7.026  0.1128  0.2726 -0.1127
79505W        W22418   1.196   9.220  24.269 -0.0465  0.2351  0.0869
79506W        W22419   4.485   8.717   2.732 -0.1593 -0.1480  0.0191
79507W        W22420  12.323  14.321   0.671  0.1417  0.1254 -0.2379
79508W        W22421   4.154   1.442  29.108  0.2374 -0.0720 -0.0760
79509W        W22422   4.286   7.835  23.292  0.2039 -0.3670 -0.2664
79510W        W22423   8.397   5.214  12.508 -0.0842 -0.2461 -0.2695
79511W        W22424   8.960   3.888   6.910 -0.1108 -0.1113  0.1630
79512W        W22425   9.396   6.504   7.890  0.2916  0.2394 -0.0291
79513W        W22426   5.842   6.336   4.189  0.1154  0.0550 -0.2687
79514W        W22427   2.094  13.854   7.458  0.2703  0.0936  0.1280
79515W        W22428  12.273   9.928   3.960 -0.2423 -0.1572  0.1706
79516W        W22429   7.150   5.375   9.139 -0.0939  0.1322  0.0388
79517W        W22430  13.517  16.534   4.262  0.0527 -0.0099 -0.4280
79518W        W22431   6.966  11.509   7.860 -0.2322 -0.0606  0.2270
79519W        W22432   7.639   8.266   4.861  0.2554  0.1978 -0.2397
79520W        W22433  10.776  34.052  12.536 -0.1405 -0.1086  0.1374
79521W        W22434  17.667  29.465   9.726 -0.0466  0.5208 -0.0415
79522W        W22435   6.064  21.361  19.238  0.1164 -0.3338 -0.1735
79523W        W22436  14.020  14.712   7.696  0.0335 -0.1055  0.1748
79524W        W22437  18.564  32.866  10.644  0.0992  0.3265 -0.1873
79525W        W22438   9.217   5.828  12.398 -0.1499 -0.3431  0.0455
79526W        W22439  16.427   3.010   3.157 -0.0742 -0.0136 -0.0765
79527W        W22440  16.243   7.976   4.484 -0.1652  0.1589  0.2141
79528W        W22441  33.705   4.468   9.441  0.0398 -0.0055  0.0117
79529W        W22442  12.734   4.573   0.148  0.0792 -0.0533  0.1086
79530W        W22443   9.834  17.747   4.520  0.0614  0.1714 -0.3319
79531W        W22444   2.293  15.283  10.009  0.1616  0.2689  0.2142
79532W        W22445   0.122   2.733   7.761  0.2199 -0.0786  0.1120
79533W        W22446   3.380   7.309  11.133 -0.0139 -0.1380  0.3677
79534W        W22447   7.277   3.817   8.243  0.0047 -0.0909 -0.0746
79535W        W22448   9.214  13.891   6.878 -0.0287 -0.0452 -0.2290
79536W        W22449   7.126  31.102  26.287 -0.0122  0.5023 -0.2045
79537W        W22450  13.618   6.161  29.447 -0.0684 -0.0129 -0.2401
79538W        W22451  11.974   6.061   4.978  0.0362 -0.0699  0.1468
79539W        W22452   7.937   5.149  12.067 -0.1745  0.0009  0.2577
79540W        W22453  14.306  10.974   6.832 -0.1626 -0.0854  0.2978
79541W        W22454   7.371  20.290   2.779  0.0815  0.0012  0.0489
79542W        W22455   1.457  16.638  24.221 -0.3113  0.1167 -0.0414
79543W        W22456   4.170  12.485  25.697  0.1328  0.0999  0.0717
79544W        W22457   9.802   9.524   9.930  0.0660 -0.3763 -0.3588
79545W        W22458   0.914  11.412  24.763  0.2818  0.0403 -0.2273
79546W        W22459   4.128   9.933   1.651 -0.2405 -0.4472  0.1352
79547W        W22460  12.254   6.343  10.754  0.0984  0.0886 -0.1695
79548W        W22461  15.026  24.173   7.669 -0.1098  0.0511  0.1696
79549W        W22462  10.532   5.111   9.392  0.1228 -0.0272  0.1912
79550W        W22463  16.748  19.427   2.696  0.0616 -0.2888 -0.2069
79551W        W22464  13.692  12.931  15.770  0.0373 -0.1199 -0.1570
79552W        W22465   6.140   5.978   9.241  0.2141  0.2240  0.2444
79553W        W22466  32.924  14.408   5.507  0.0513 -0.2500  0.0728
79554W        W22467   0.151  10.466  10.104 -0.0095 -0.0291  0.0927
79555W        W22468  15.456   4.821   2.325  0.2252  0.0286 -0.1793
79556W        W22469  11.716   4.785  28.158 -0.3023 -0.1917  0.0562
79557W        W22470  32.260   7.030   6.543 -0.0130 -0.0133 -0.1169
79558W        W22471  13.105  19.547   4.047 -0.0467 -0.0365  0.0241
79559W        W22472   7.676  34.167   8.562  0.0773 -0.2838  0.1384
79560W        W22473  24.150  12.449   6.289 -0.0671  0.1991 -0.3317
79561W        W22474   9.801   4.744   9.301  0.1246  0.0860 -0.0168
79562W        W22475  14.217   8.854  27.631 -0.2550  0.0063 -0.0538
79563W        W22476   0.619   8.824  23.651 -0.0701 -0.0510 -0.0910
79564W        W22477   9.268  12.581   7.473  0.0523 -0.0641 -0.0315
79565W        W22478  16.321   4.867   4.982  0.0580  0.0360 -0.1339
79566W        W22479   2.125  17.300   3.445 -0.2278  0.2444  0.2202
79567W        W22480   6.852   2.821  11.581 -0.0123  0.2763 -0.1587
79568W        W22481   4.204   6.484  28.238  0.0369  0.0840  0.2528
79569W        W22482   2.228  29.287  10.154  0.1434  0.0458 -0.0363
79570W        W22483   9.949  29.260   6.620 -0.0483  0.5174 -0.2078
79571W        W22484  12.152   2.522  10.616 -0.1183  0.1592  0.0311
79572W        W22485   8.751  20.028  22.877 -0.1108  0.1067  0.1999
79573W        W22486  19.315  15.140  27.912 -0.0079 -0.0859  0.1545
79574W        W22487  24.373   9.782   5.313  0.0158  0.1713 -0.0486
79575W        W22488   4.351  17.808  23.721 -0.1586 -0.1453 -0.0026
79576W        W22489  10.395   9.373   7.397  0.1020 -0.1424  0.4132
79577W        W22490  10.438   6.352   7.348 -0.3248 -0.0158  0.0025
79578W        W22491   9.144   9.889   6.221  0.0415  0.0923  0.3214
79579W        W22492   2.232   0.077   8.518 -0.0807 -0.1626 -0.0064
79580W        W22493  13.887  10.287   6.270  0.0132  0.0498 -0.1411
79581W        W22494  14.851   5.287  28.820 -0.2814 -0.1354 -0.1919
79582W        W22495   2.811  13.114  28.270  0.3343  0.0504 -0.1738
79583W        W22496  13.824   8.804  23.102 -0.2500 -0.1878 -0.4491
79584W        W22497  11.448   5.422   2.401  0.1497  0.0128 -0.3665
79585W        W22498   7.448   9.907   4.692 -0.1715 -0.1523  0.1576
79586W        W22499  30.615   7.502  23.823 -0.0418 -0.3487  0.0652
79587W        W22500  17.584  33.216  19.152  0.0368  0.3354  0.1125
79588W        W22501  19.048  33.476   3.006 -0.0953 -0.1947  0.2198
79589W        W22502  14.633  14.210   2.338  0.0636 -0.0462 -0.1079
79590W        W22503  12.513   9.695   6.148  0.0384  0.0982  0.4366
79591W        W22504   8.758   7.118   6.854 -0.5353 -0.0815 -0.1501
79592W        W22505   9.852  12.847   3.585  0.0095 -0.0767  0.0867
79593W        W22506  12.425   4.710   8.798  0.1830 -0.0356 -0.2911
79594W        W22507  13.458   9.072  26.931  0.0592  0.0560  0.0399
79595W        W22508  24.565  15.065   3.241 -0.2689  0.1824  0.2695
79596W        W22509   5.716  13.731  22.171  0.1684 -0.1927 -0.1207
79597W        W22510   2.498  16.920   6.231 -0.0247 -0.1641 -0.0948
79598W        W22511  10.926   4.618   7.038  0.1355  0.2420  0.2206
79599W        W22512  10.357  17.785  28.495 -0.2280 -0.0526  0.1193
79600W        W22513   9.239  11.921  29.113  0.0755  0.0060 -0.1389
79601W        W22514  20.198   4.027  28.934  0.2936 -0.0035 -0.1003
79602W        W22515  10.010   4.709  26.511  0.0661  0.0213 -0.1902
79603W        W22516  31.436   9.042   2.603 -0.1562 -0.1778 -0.4014
79604W        W22517   7.771   8.345   2.007  0.0750  0.0623  0.1679
79605W        W22518  12.610  12.960   9.366 -0.0639  0.4578  0.1026
79606W        W22519  33.833   2.546  10.105 -0.0701  0.0019  0.0721
79607W        W22520   1.546   2.508   9.430 -0.1467  0.1500 -0.2159
79608W        W22521  13.812  32.230  10.871 -0.5225 -0.1626 -0.2515
79609W        W22522  11.228  11.033   2.269  0.1142  0.2029  0.2427
79610W        W22523  30.125   1.854  29.040 -0.1737 -0.0122  0.0046
79611W        W22524   4.371  17.965   2.442  0.2787  0.0417  0.0453
79612W        W22525   6.396  21.800   2.220  0.2181  0.0287  0.1129
79613W        W22526  31.837   9.803  11.143  0.1833  0.0344  0.5211
79614W        W22527   6.436   5.734  24.632 -0.2678 -0.0768  0.0790
79615W        W22528   7.088   6.035   4.868 -0.2390 -0.0610 -0.2764
79616W        W22529  17.922  12.625   7.843 -0.1826 -0.1794 -0.0153
79617W        W22530   5.167  10.283   1.015  0.0274 -0.3992 -0.0566
79618W        W22531   4.784  34.455   1.933 -0.1129 -0.0814  0.0038
79619W        W22532  12.572   8.744   0.586  0.1260  0.0548  0.0640
79620W        W22533   4.878  11.089   9.197 -0.0328 -0.0741 -0.0929
79621W        W22534   8.856   8.712   3.323  0.0426 -0.0420 -0.2466
79622W        W22535   3.612  12.323   8.917  0.3547 -0.4629 -0.0010
79623W        W22536  13.884  14.793   5.934  0.2547  0.3012 -0.2844
79624W        W22537  18.996   3.392  26.886  0.1638  0.1735  0.0051
79625W        W22538  18.253   1.743   9.117  0.1877  0.1551 -0.4876
79626W        W22539   8.004  15.362   2.018 -0.1218 -0.0028  0.0662
79627W        W22540   5.342   7.397   0.182  0.2529 -0.1920 -0.2415
79628W        W22541   6.221   8.744   7.487  0.0501  0.1948  0.2145
79629W        W22542  17.820   5.233   4.031  0.0017  0.2712 -0.0432
79630W        W22543  22.304   4.148   7.125 -0.0156 -0.1940 -0.0885
79631W        W22544   2.170   8.659  24.550 -0.2764 -0.1078 -0.0604
79632W        W22545  33.639   4.250   7.540 -0.2097 -0.2206 -0.0088
79633W        W22546   3.473   9.025   6.057 -0.0019  0.1002  0.0573
79634W        W22547   9.712   3.773   0.606  0.2085 -0.0222  0.0215
79635W        W22548   7.718   5.721  12.992 -0.1703  0.0422 -0.0399
79636W        W22549   7.797   6.162   1.966  0.0586  0.0868 -0.0693
79637W        W22550   8.751  13.612   3.991  0.3128 -0.0418  0.0976
79638W        W22551  26.468   6.561   9.057  0.0621  0.3008  0.1607
79639W        W22552   0.234  16.078   4.442  0.1566 -0.3254  0.2860
79640W        W22553  15.075  21.066  25.393  0.1607  0.0033 -0.2792
79641W        W22554  17.443   0.640   2.032 -0.0398 -0.0962 -0.1060
79642W        W22555  10.474   2.188   9.300 -0.0494  0.2012  0.1100
79643W        W22556   6.092  15.184   0.713  0.2779  0.0411  0.1783
79644W        W22557  24.239  16.419   5.046 -0.4296  0.0705  0.0184
79645W        W22558  10.473  34.297   8.336 -0.1136 -0.1067  0.1760
79646W        W22559  22.830  10.066   9.549  0.0431  0.0383  0.2079
79647W        W22560   5.142   7.413   9.540  0.3256 -0.2353 -0.0449
79648W        W22561  28.196   9.921  26.113 -0.3209 -0.4544  0.0167
79649W        W22562  21.273  18.500   1.301 -0.0641  0.1773 -0.0252
79650W        W22563   9.409   3.608   2.933 -0.1387 -0.2172  0.0646
79651W        W22564   7.589   8.835   3.859 -0.1621  0.0620 -0.0492
79652W        W22565   1.799  19.110   2.700  0.0708  0.0497  0.3118
79653W        W22566   3.315  10.535   5.819 -0.0470 -0.1856  0.0507
79654W        W22567  11.131   2.742   4.099  0.0074 -0.1190  0.0362
79655W        W22568  10.965  21.792   6.806  0.5089  0.5680 -0.0363
79656W        W22569   0.166  11.455  26.955  0.0852 -0.5227  0.1571
79657W        W22570  11.309  19.749   4.161 -0.0390 -0.0053  0.0666
79658W        W22571   4.736  16.657   4.923 -0.1908  0.1218 -0.4354
79659W        W22572  34.328   4.214   2.109  0.2053 -0.2855 -0.0740
79660W        W22573   5.064   4.677  11.521  0.3809 -0.2328  0.0269
79661W        W22574   0.657   7.321   7.717  0.3753  0.1053 -0.0007
79662W        W22575   4.423   8.744   4.260 -0.2751  0.2577 -0.0372
79663W        W22576  11.610   0.269  11.916  0.2589 -0.1628  0.1993
79664W        W22577  23.790   8.340   3.505  0.0734 -0.0147 -0.1257
79665W        W22578   0.231   6.695   7.281 -0.2689  0.2626 -0.4072
79666W        W22579   9.854   5.764  12.415 -0.4174 -0.1201 -0.3810
79667W        W22580  19.425   8.193   1.618 -0.1002  0.1628 -0.0760
79668W        W22581   5.772   8.452   9.087  0.0762 -0.0419 -0.0315
79669W        W22582  11.444  12.604   9.153  0.0399  0.1679  0.0867
79670W        W22583  12.850   2.957   1.029 -0.0792 -0.0722 -0.2306
79671W        W22584  16.199   5.372   6.950 -0.1380  0.1475  0.0722
79672W        W22585   9.242  13.281  25.989  0.1248  0.1373  0.4108
79673W        W22586  14.026  18.064   9.288  0.2741 -0.3001 -0.0176
79674W        W22587   7.874   2.469   4.701 -0.3075 -0.2479 -0.2770
79675W        W22588   8.576   5.551   8.477 -0.2666  0.2033  0.0122
79676W        W22589   2.877  32.691   2.639  0.2313  0.0428 -0.2199
79677W        W22590  10.255   6.011   0.762  0.0488 -0.1347  0.0353
79678W        W22591   0.472   5.584   8.772 -0.1795 -0.1017 -0.0780
79679W        W22592  11.461  12.972   1.205  0.2227 -0.2305 -0.1521
79680W        W22593  12.100  15.527   7.545  0.2244 -0.0436  0.0205
79681W        W22594  11.264  33.483  10.625  0.0978  0.1145  0.1115
79682W        W22595  14.245  16.693  23.960 -0.0597  0.2037 -0.3589
79683W        W22596  11.798  18.536   0.544  0.3518  0.0042 -0.0904
79684W        W22597  13.332  10.601  25.290  0.1716  0.0618 -0.1756
79685W        W22598   4.860  16.048  23.386  0.0433 -0.1979  0.2757
79686W        W22599   9.277   5.318  26.389  0.1738  0.0174 -0.1919
79687W        W22600   3.472   8.252   1.584 -0.1224 -0.1836 -0.0238
79688W        W22601  20.139  10.363   8.520 -0.1112 -0.0829  0.0933
79689W        W22602   1.248   2.245  25.387 -0.0558  0.1869 -0.1352
79690W        W22603   7.971   4.366   6.959  0.2091  0.0094 -0.1424
79691W        W22604  20.686  15.524   8.706  0.3433  0.0479 -0.1178
79692W        W22605  34.234   9.935   8.784 -0.3203  0.3355 -0.1954
79693W        W22606  18.804  10.409   1.789  0.4003 -0.1413 -0.1736
79694W        W22607   9.927   6.766  10.219  0.0645  0.0250 -0.0074
79695W        W22608  18.123   9.759   7.049  0.0097 -0.1503  0.0045
79696W        W22609  32.516  16.787  28.939  0.1410  0.1655  0.3586
79697W        W22610  10.692   1.930  23.317 -0.1090 -0.0015  0.2952
79698W        W22611  17.715   3.735   8.252 -0.0486  0.2750 -0.1906
79699W        W22612  14.349   0.666  11.210 -0.1471 -0.1898 -0.0528
79700W        W22613  12.949  21.369   8.622  0.2778  0.2220  0.5181
79701W        W22614  34.086  18.603   1.394  0.0162 -0.1743  0.1504
79702W        W22615   6.485   1.962   6.782  0.1427  0.0470  0.1189
79703W        W22616   4.014   5.740   9.113 -0.0946  0.1079  0.0915
79704W        W22617  30.585  19.441  21.437  0.0172 -0.0731  0.0419
79705W        W22618   2.457  25.482  28.289 -0.2347  0.1131 -0.2658
79706W        W22619  34.213  13.911   0.632 -0.2135 -0.2471  0.1000
79707W        W22620   5.229  12.030   1.174  0.0146 -0.2967 -0.0727
79708W        W22621  22.129   8.186   8.846 -0.0698 -0.0776  0.0034
79709W        W22622   4.436  19.816   4.415  0.0027  0.3294  0.0009
79710W        W22623   7.388   8.634   0.361  0.1183  0.0386 -0.0765
79711W        W22624  10.177  14.754   9.353 -0.0458  0.1236 -0.1233
79712W        W22625  15.926  22.107   5.802 -0.0509 -0.1894  0.2069
79713W        W22626  15.254   6.941   0.681 -0.0228 -0.0951 -0.0329
79714W        W22627  12.126   4.338   5.814  0.1158  0.1963  0.2035
79715W        W22628   8.233   5.732  10.878 -0.1156 -0.1556  0.2583
79716W        W22629  10.198   2.492   5.153  0.0443  0.2017 -0.1298
79717W        W22630  12.394  10.831   5.132 -0.2376  0.0787  0.2930
79718W        W22631  12.614   9.339   2.621  0.0493  0.1874 -0.1878
79719W        W22632   1.022   0.028  28.166  0.0733 -0.1054 -0.1223
79720W        W22633   5.863  30.054  10.117  0.1341 -0.0805 -0.0062
79721W        W22634   3.351   4.240  11.196 -0.0048 -0.1520 -0.2439
79722W        W22635   9.880   8.721   3.032 -0.1739 -0.0658 -0.0877
79723W        W22636   7.627   5.204  12.940  0.1782 -0.1478 -0.1124
79724W        W22637   7.972  33.370  11.745 -0.0031  0.2559 -0.0512
79725W        W22638  10.398  17.179  29.179 -0.2707  0.2553  0.0254
79726W        W22639  10.667   6.188   5.972 -0.4313  0.1591 -0.0519
79727W        W22640   0.471  17.079   1.126  0.2107  0.2260 -0.1103
79728W        W22641   7.901  26.633   7.349  0.2532 -0.2232  0.2789
79729W        W22642   2.904  11.239   2.963  0.1354  0.0161 -0.1442
79730W        W22643  15.873  25.252   7.377 -0.0566  0.0530  0.0565
79731W        W22644  12.801  19.141   3.599 -0.2183  0.0047 -0.0368
79732W        W22645  20.909  13.922   1.159 -0.0402 -0.0358  0.1414
79733W        W22646   5.923   6.452  13.093 -0.2286 -0.2145 -0.0145
79734W        W22647  13.532   4.623   5.276 -0.0437  0.0211  0.0501
79735W        W22648   9.879  31.957   7.956 -0.3082 -0.0150 -0.0227
79736W        W22649   6.326   2.186   9.615  0.0744 -0.1995 -0.0010
79737W        W22650  16.622  29.996   2.623  0.0661 -0.3656  0.0789
79738W        W22651   2.922   3.328   1.424 -0.2083  0.1048 -0.1212
79739W        W22652   5.434  10.703   4.060 -0.3318  0.2255 -0.0217
79740W        W22653  14.220   9.680   8.996 -0.3462  0.2156 -0.0430
79741W        W22654  30.132  22.975   0.563  0.0023  0.0465  0.0585
79742W        W22655  10.085   7.946  12.385  0.2335 -0.0914  0.1497
79743W        W22656   4.331   9.664   8.504 -0.2034  0.1561  0.1032
79744W        W22657   5.307   9.159  12.096  0.0288 -0.0477 -0.4066
79745W        W22658   5.741   5.515   5.734  0.1089  0.2033 -0.1614
79746W        W22659   6.636  16.650   3.468 -0.0528  0.2836  0.2015
79747W        W22660   2.975   8.386  11.485 -0.0101 -0.1585  0.3023
79748W        W22661  33.096  14.446   2.496  0.1904 -0.3653  0.3070
79749W        W22662  33.806  15.252   6.013 -0.1697 -0.2111 -0.1118
79750W        W22663  14.785  10.668   4.323 -0.1103  0.2134  0.1293
79751W        W22664  21.780  34.245   5.742  0.3734 -0.3384 -0.0087
79752W        W22665   5.861  34.485   4.400  0.0211 -0.1246  0.1174
79753W        W22666   8.827   2.074  10.726 -0.5197 -0.0559 -0.0215
79754W        W22667  31.029   1.095   0.068 -0.2150 -0.0265  0.0658
79755W        W22668   3.086  14.907  28.473  0.1232 -0.2499 -0.1552
79756W        W22669   2.042   0.421  10.099 -0.1851 -0.3126 -0.2491
79757W        W22670  11.177   9.407   9.423 -0.1345  0.1239  0.2312
79758W        W22671  10.168  32.831   7.976  0.0349  0.4291 -0.0434
79759W        W22672  10.049   4.806  28.747  0.2745  0.2033 -0.3086
79760W        W22673   8.305   2.874   7.792 -0.1066  0.0098 -0.1832
79761W        W22674   2.794   2.662   2.616  0.4391 -0.0004 -0.1209
79762W        W22675  13.521   3.811  11.584  0.1171  0.1594  0.0975
79763W        W22676  20.737   1.066   5.273  0.2692 -0.0058  0.0969
79764W        W22677   7.160  10.142   6.188 -0.0068  0.2820 -0.1686
79765W        W22678   8.487   9.850   5.456  0.2452  0.1758 -0.0117
79766W        W22679  13.163   4.099   6.529  0.0158  0.1269 -0.0852
79767W        W22680  23.041  12.214   8.836  0.2457  0.0288  0.0315
79768W        W22681   6.684   5.063  13.185 -0.0466 -0.0690 -0.1136
79769W        W22682   4.220  18.944   8.470  0.1946 -0.0701  0.1717
79770W        W22683   2.949  16.629   0.805 -0.1676  0.2490  0.3854
79771W        W22684  34.440   5.039   3.857 -0.2425 -0.2095 -0.0174
79772W        W22685  11.054   7.537   8.368 -0.1340  0.0457 -0.1123
79773W        W22686   4.760  13.488   8.340  0.0477 -0.1056 -0.2182
79774W        W22687   2.458   8.048  10.741  0.3476 -0.0955  0.1019
79775W        W22688   5.618  16.486   5.164 -0.3704  0.0533  0.2175
79776W        W22689   1.363   6.933   9.040 -0.0917  0.1017 -0.1114
79777W        W22690  13.353  11.966   4.447 -0.3193 -0.0418 -0.1277
79778W        W22691  10.729   2.543  28.560  0.2838  0.0813 -0.0312
79779W        W22692  13.857   7.813   1.213  0.0677 -0.1747  0.1036
79780W        W22693   4.402   6.709  29.471 -0.2895  0.1237  0.0777
79781W        W22694   9.982  12.428   5.471  0.1279  0.3228  0.0055
79782W        W22695  13.864   5.700   6.225  0.1502  0.3855  0.0431
79783W        W22696  18.084  10.637   0.158 -0.0346  0.0978  0.0807
79784W        W22697  31.373  14.442   6.447  0.2189 -0.0784  0.3019
79785W        W22698   0.460  14.923   9.742 -0.1388 -0.0142  0.2524
79786W        W22699  12.216   7.726   5.571 -0.4023  0.2414 -0.0675
79787W        W22700  33.965  17.191  24.663 -0.1175 -0.0217 -0.1073
79788W        W22701   9.764   6.452   6.381  0.2210 -0.0264  0.0103
79789W        W22702  14.277   6.626  29.378 -0.2409 -0.1714 -0.0232
79790W        W22703  12.596   0.365   4.942 -0.1565 -0.1316  0.2246
79791W        W22704   5.998   2.819  11.830  0.0002  0.2657  0.2976
79792W        W22705   4.040   9.132   4.069 -0.1108  0.0989  0.0075
79793W        W22706  21.677  32.928   3.827  0.4889  0.1466 -0.1481
79794W        W22707   4.383  18.075   9.386  0.1514 -0.3616 -0.3660
79795W        W22708   7.259  10.410   0.382 -0.1961  0.1546 -0.2868
79796W        W22709   5.303  14.689  22.340 -0.0515 -0.1054  0.1738
79797W        W22710   4.861  11.611   8.958  0.3451  0.3782 -0.1384
79798W        W22711   4.464   9.026   8.747 -0.1501 -0.0317  0.2954
79799W        W22712   6.410  33.576   3.876 -0.1207  0.1386 -0.2665
79800W        W22713  11.042   8.167   5.933 -0.2160 -0.2379 -0.2935
79801W        W22714  13.916   9.517   8.389  0.2960  0.1593 -0.0504
79802W        W22715  11.362   5.926   6.919  0.3703  0.1473 -0.0958
79803W        W22716   5.252   2.666   8.512 -0.0290 -0.0926 -0.2036
79804W        W22717  24.529  10.235   3.540  0.0776 -0.1746  0.0858
79805W        W22718  30.840  13.374  26.739  0.1445 -0.1557 -0.2868
79806W        W22719   8.567  12.649   6.613  0.2756  0.3064 -0.0846
79807W        W22720   8.852   4.327  11.025  0.0450 -0.1892  0.2814
79808W        W22721  12.700   7.741   8.588 -0.3210  0.2474  0.3427
79809W        W22722  12.722  33.215   7.710 -0.0040  0.0496 -0.1732
79810W        W22723  10.886  10.378   7.717 -0.2915 -0.0111  0.0290
79811W        W22724  10.389  10.500   7.991 -0.0454  0.1080  0.2736
79812W        W22725  19.605  20.331   7.400  0.1887 -0.2016  0.2143
79813W        W22726  23.865  18.208   6.631 -0.4166  0.0024 -0.2170
79814W        W22727  11.104   0.059  11.035  0.1554  0.0801 -0.2240
79815W        W22728  13.356   6.377  11.636  0.1586 -0.0481 -0.2023
79816W        W22729   9.996  10.301   4.835  0.7696  0.1079  0.2820
79817W        W22730   5.952  30.189  10.672  0.1631  0.2731  0.2239
79818W        W22731  29.664  10.226   7.841  0.0651 -0.2219  0.1474
79819W        W22732  30.866  11.971   1.232 -0.0452 -0.1333  0.1588
79820W        W22733  10.523  14.336   7.587  0.0696 -0.0428  0.1526
79821W        W22734  10.007  16.459   8.464 -0.0699 -0.0762  0.2054
79822W        W22735  18.711   8.142   5.051  0.0068  0.0091  0.0459
79823W        W22736   7.245   9.171   8.166 -0.1316 -0.2715  0.1507
79824W        W22737  30.584  22.114   5.636  0.0943 -0.1209  0.1474
79825W        W22738   9.924   1.500   3.444  0.2254 -0.1874 -0.3673
79826W        W22739  11.348  14.979   9.533 -0.0776  0.0857 -0.1843
79827W        W22740  10.225   8.168   5.740 -0.1961  0.1641  0.0124
79828W        W22741  16.879  10.432   5.791 -0.0704  0.0930  0.1741
79829W        W22742   6.675  11.539  10.097 -0.2321 -0.0287  0.1293
79830W        W22743  18.741   9.522   8.393  0.0581 -0.1746 -0.2939
79831W        W22744   9.976  12.091   8.600  0.1231  0.2333  0.3408
79832W        W22745   7.669  11.280  10.234 -0.2875 -0.1552 -0.0996
79833W        W22746   8.696   6.852   9.104 -0.1253 -0.1206 -0.1103
79834W        W22747  34.394  31.357  10.305  0.0138  0.1014  0.2064
79835W        W22748  12.317  16.046   1.948 -0.0130  0.1054  0.1756
79836W        W22749   1.456   9.039   9.478  0.1522 -0.0796  0.0861
79837W        W22750   4.439   0.075  13.054  0.2768  0.0237  0.0581
79838W        W22751  11.678  10.848   6.297  0.1044  0.2760  0.0572
79839W        W22752  16.939  12.929   0.264  0.3004  0.1460  0.1561
79840W        W22753   8.072  14.268   4.578 -0.1677  0.2993  0.2250
79841W        W22754   8.926   8.748  29.021  0.1012 -0.0644 -0.3071
79842W        W22755   1.529   4.897   8.250 -0.1815  0.2113 -0.3064
79843W        W22756  16.086  13.468  27.413  0.0978 -0.1531 -0.0883
79844W        W22757   1.380   2.656   4.467  0.1306  0.3376  0.1397
79845W        W22758  10.670   7.232  17.903  0.1263  0.0059 -0.0656
79846W        W22759   5.476   1.970   1.881  0.0012 -0.0369 -0.1223
79847W        W22760  15.132  33.212  11.250 -0.2186  0.3604  0.0111
79848W        W22761   8.055   7.251   7.617 -0.3174 -0.2226 -0.2793
79849W        W22762   4.292   9.621   4.745 -0.0201 -0.1669 -0.2226
79850W        W22763   6.013  10.631  11.829 -0.1358 -0.2856  0.0178
79851W        W22764   9.563   7.957  10.811  0.0916 -0.1043 -0.1612
79852W        W22765   2.167  30.375   6.060  0.1441 -0.2153  0.2578
79853W        W22766   0.972  10.913  28.886  0.1134 -0.3017 -0.3169
79854W        W22767   9.211   5.406   2.426 -0.1324  0.0394  0.1984
79855W        W22768   7.357   6.389   5.392 -0.1409 -0.1223  0.0918
79856W        W22769   9.544  11.365   5.937  0.1312  0.1352  0.0827
79857W        W22770   4.545  13.786   9.232 -0.1377 -0.1507  0.2697
79858W        W22771   7.800   8.260   9.928  0.0398  0.0137  0.2410
79859W        W22772  14.683  11.848   2.465  0.0024  0.1684 -0.0976
79860W        W22773   7.044   7.344   6.684 -0.0231  0.0697 -0.2596
79861W        W22774  12.615  10.268   8.756 -0.3764  0.0818 -0.1124
79862W        W22775   5.810   0.105   7.981 -0.0909 -0.0399 -0.0983
79863W        W22776   2.711   4.255   5.762  0.1660 -0.1538  0.3444
79864W        W22777   6.300   2.912   9.806 -0.0203 -0.1972 -0.2849
79865W        W22778   5.634   3.672   5.191  0.1588 -0.1476  0.0373
79866W        W22779   4.679   7.184   4.593  0.0984 -0.1103 -0.1555
79867W        W22780   5.428   2.751  10.622 -0.2460  0.0087 -0.2190
79868W        W22781   9.845  25.927   7.429  0.2400 -0.1427 -0.2265
79869W        W22782   8.173  33.986   3.404  0.1655 -0.1433 -0.0874
79870W        W22783  12.394   6.141   8.811 -0.3013 -0.5585 -0.1189
79871W        W22784  10.539  16.822   2.045  0.0862 -0.1771 -0.1446
79872W        W22785   6.318  32.665  27.478 -0.1183 -0.1067 -0.0787
79873W        W22786  32.424   4.450   8.263  0.0760  0.1182 -0.5445
79874W        W22787   8.328  12.129   8.540 -0.1654 -0.0770 -0.1270
79875W        W22788  15.655   1.635   2.744  0.2001  0.0273  0.0176
79876W        W22789  14.756   3.747  10.723  0.2370 -0.3980  0.1152
79877W        W22790  11.108  11.760   1.518  0.0926  0.0519  0.1777
79878W        W22791   9.037  10.785   8.941 -0.1502  0.1296 -0.2503
79879W        W22792  13.783   1.483   6.316  0.2273 -0.0782 -0.0653
79880W        W22793   4.857  10.136   5.366  0.1010 -0.1519 -0.1936
79881W        W22794   0.466   8.651   1.449 -0.3321  0.1510  0.1239
79882W        W22795   7.416  13.094  29.712 -0.2730 -0.2286  0.1783
79883W        W22796  11.991  10.966   6.734  0.0797 -0.1390  0.1622
79884W        W22797   7.056  20.485   5.215  0.0394 -0.0628  0.0853
79885W        W22798   6.654  20.746   9.670 -0.3818 -0.1880  0.0260
79886W        W22799   4.510  18.180   8.520 -0.0178 -0.0210 -0.1117
79887W        W22800   6.782   8.047   2.613 -0.0200 -0.3460 -0.1082
79888W        W22801   1.863  20.747   4.713  0.3379  0.0906  0.2443
79889W        W22802   4.188  30.495   5.144 -0.1027 -0.1778  0.2528
79890W        W22803  14.744   7.036   7.549 -0.3918  0.0972 -0.1774
79891W        W22804  12.575   4.524   3.930  0.0938 -0.2023 -0.1492
79892W        W22805   3.793   4.146  11.431 -0.2277 -0.0986 -0.0197
79893W        W22806  10.238  33.258   5.808 -0.0045 -0.1626 -0.1949
79894W        W22807  12.296   9.532  10.924  0.2910  0.1562 -0.1059
79895W        W22808  13.463   7.979   7.754  0.0616 -0.0486 -0.2996
79896W        W22809  11.373   1.651   2.812  0.1508 -0.1350 -0.1906
79897W        W22810  13.302   9.516   5.452  0.0995  0.0988 -0.1121
79898W        W22811  33.078  13.116  27.754 -0.2948 -0.0405  0.0893
79899W        W22812   9.949   6.364   7.983  0.4704 -0.3520  0.0581
79900W        W22813   6.176   7.794   8.761  0.1403  0.1009 -0.3092
79901W        W22814   7.112   4.895   9.077 -0.0859  0.0634 -0.1619
79902W        W22815  17.199   3.147   4.497 -0.4077 -0.2273  0.1615
79903W        W22816  33.997  20.731   2.247 -0.1829 -0.3304 -0.2020
79904W        W22817  16.071  33.716  28.506 -0.0247  0.3394  0.4036
79905W        W22818   9.231   0.661  12.569 -0.0036  0.0735  0.1469
79906W        W22819   1.157  26.614   8.641  0.0195  0.4607 -0.2373
79907W        W22820  29.099  25.817  26.213 -0.1924  0.2247 -0.2115
79908W        W22821  34.236   5.958   7.735  0.0773 -0.1415  0.0710
79909W        W22822   7.816   1.891   9.775  0.1219  0.3211  0.2024
79910W        W22823   7.258  13.171   2.525 -0.1635  0.3140  0.2742
79911W        W22824   6.963   5.514  13.367  0.4634 -0.1161 -0.0565
79912W        W22825  13.199  16.690  20.636  0.1175 -0.1586  0.0629
79913W        W22826  22.109  13.573   7.101  0.1981 -0.0270  0.1864
79914W        W22827  11.198   4.185   8.320  0.0057  0.2324 -0.4008
79915W        W22828  12.909  17.808   5.147 -0.1110  0.1374 -0.1801
79916W        W22829   0.236  13.557   9.246  0.0805  0.2403 -0.3212
79917W        W22830  13.188  13.372   4.584  0.0540  0.1836  0.0561
79918W        W22831  32.506   6.149   6.541  0.3634 -0.1924  0.1007
79919W        W22832   9.870  33.495   9.084  0.1747 -0.0968  0.1065
79920W        W22833   7.751   3.726   4.994 -0.2662  0.0954 -0.2062
79921W        W22834  10.677   2.383   5.463  0.1334  0.2596  0.0970
79922W        W22835   5.118  33.140  28.742 -0.0735 -0.2129  0.4047
79923W        W22836   1.028   5.355   2.175  0.1958  0.3551 -0.0131
79924W        W22837  13.129   0.991   1.974  0.0462  0.3355  0.0874
79925W        W22838  15.999  11.058   6.879 -0.0512  0.2558 -0.2712
79926W        W22839  18.390  12.063   3.873  0.1173 -0.1126  0.2013
79927W        W22840   1.105   7.453   7.819  0.2689  0.0437 -0.1093
79928W        W22841  10.308   9.137   1.703 -0.3459  0.0965 -0.1690
79929W        W22842   7.843   8.580   6.250 -0.0114 -0.1419 -0.1095
79930W        W22843   3.505   4.137   2.532 -0.0427  0.2468  0.1643
79931W        W22844   3.773   8.581  24.861  0.2934 -0.2546 -0.4645
79932W        W22845   9.481   9.756   9.595 -0.2101  0.1100 -0.0630
79933W        W22846   2.995   9.335   8.488  0.0211 -0.0926 -0.0779
79934W        W22847   7.670  14.006   1.209 -0.2517  0.1211 -0.1989
79935W        W22848   4.163   0.149   8.977  0.4237  0.2769  0.2560
79936W        W22849   9.720   0.127   6.665  0.0585 -0.2405 -0.1019
79937W        W22850  10.315  14.131   1.943 -0.0224  0.3169  0.0557
79938W        W22851   8.618  16.325   8.346  0.3368  0.2971  0.2080
79939W        W22852   8.531  10.925   9.838  0.0889 -0.0334  0.0707
79940W        W22853   9.785  15.377   3.483  0.0854  0.0952  0.0527
79941W        W22854   7.833   7.609   3.774 -0.2470  0.0455  0.1063
79942W        W22855   8.721  12.713   9.360  0.0111 -0.1038 -0.1538
79943W        W22856  10.563  29.656   4.222 -0.2533  0.1410 -0.0561
79944W        W22857   6.265  12.002  29.653 -0.0691  0.2066  0.2332
79945W        W22858  12.567  19.276   8.710 -0.1713  0.0923  0.2634
79946W        W22859   4.725   6.268   5.872 -0.0637  0.1457  0.1745
79947W        W22860   8.891   0.179   1.910 -0.1319 -0.0130 -0.1634
79948W        W22861   9.757  30.388   8.046  0.7351 -0.0860 -0.2678
79949W        W22862  11.131   2.131   7.618  0.0673  0.2223  0.4742
79950W        W22863  26.299   2.076   5.981 -0.0523 -0.0490  0.0446
79951W        W22864  14.950   1.024   9.015  0.2409 -0.1767  0.3020
79952W        W22865   5.016   1.543   8.470 -0.0212  0.1457 -0.1356
79953W        W22866  14.355   2.942  11.041  0.0896 -0.1291  0.1520
79954W        W22867   7.860   6.783   5.589  0.1514  0.0596  0.1558
79955W        W22868   5.451  16.386   6.638  0.0345 -0.1350  0.1264
79956W        W22869   6.712  17.434   1.420  0.0939 -0.0496  0.0218
79957W        W22870   0.342  23.151   9.872 -0.2510  0.1023  0.2553
79958W        W22871   6.659  13.466   4.272 -0.1057  0.0172  0.0251
79959W        W22872   4.637   5.598   0.832 -0.0312 -0.1050 -0.0009
79960W        W22873  16.826  17.049   7.056  0.2049 -0.1300  0.0446
79961W        W22874  13.152   8.733   8.322  0.0091 -0.0221  0.1772
79962W        W22875  32.515   7.496  27.667  0.1951 -0.1894  0.2465
79963W        W22876   3.358  32.046   9.951  0.0249  0.0158 -0.3841
79964W        W22877   8.655  16.074   9.635  0.1191  0.0995 -0.0520
79965W        W22878   8.124  19.587   9.396 -0.1444  0.1245 -0.1212
79966W        W22879   7.633  12.116   0.272 -0.2118  0.0333 -0.2432
79967W        W22880  34.489  30.839  10.182  0.1404  0.0626 -0.0573
79968W        W22881  17.976   4.451   4.330  0.2834  0.1509 -0.1345
79969W        W22882   7.215  18.405   3.965  0.4267 -0.5226  0.0453
79970W        W22883   9.258  17.451   1.348  0.0583 -0.1840 -0.0400
79971W        W22884   3.922  33.959  27.315 -0.2024  0.0961 -0.0289
79972W        W22885  21.365   3.352  25.172  0.1733 -0.0312 -0.1186
79973W        W22886  25.294  11.642   8.981 -0.1598 -0.0290 -0.1071
79974W        W22887  33.188   9.179  29.683 -0.0740 -0.0384 -0.0738
79975W        W22888   7.108   2.134   7.715  0.1230  0.0253  0.1309
79976W        W22889  33.860   3.128  11.704  0.0577 -0.1854  0.2978
79977W        W22890   2.528   7.195   3.672 -0.2916 -0.1026  0.0694
79978W        W22891   9.873   9.703   2.851  0.2258 -0.5714  0.1611
79979W        W22892  20.254   6.472   4.410  0.0939  0.0692  0.0076
79980W        W22893  13.948  16.867  21.971  0.0498 -0.0651  0.0373
79981W        W22894  12.129  14.997   4.126 -0.1731 -0.2098 -0.2426
79982W        W22895  13.973   8.605   8.674  0.0427 -0.1066 -0.1352
79983W        W22896   5.419  11.756  29.704  0.1455 -0.5629  0.3130
79984W        W22897  33.664  24.392   9.698 -0.0581  0.0038 -0.1649
79985W        W22898   6.696  22.476   7.808  0.1014 -0.0581  0.1685
79986W        W22899   6.815  11.019   6.947 -0.0994  0.0932 -0.1907
79987W        W22900  33.546  15.048   6.704  0.0436  0.0989 -0.0001
79988W        W22901   9.914   1.168  11.983  0.1504 -0.0140 -0.1165
79989W        W22902   5.686  15.554   5.113  0.0145 -0.2952  0.2554
79990W        W22903   6.462   0.003  25.993 -0.1558 -0.2041 -0.2785
79991W        W22904  17.274  18.038   1.448  0.1648 -0.0964 -0.2993
79992W        W22905   5.954   6.600   5.512  0.3321  0.3995  0.0560
79993W        W22906   2.490  28.171   9.624 -0.0605 -0.0916 -0.0235
79994W        W22907   8.429   7.939   7.531  0.3628  0.1684 -0.0913
79995W        W22908  11.044  33.608  12.345 -0.1633  0.0980 -0.0645
79996W        W22909  18.768   5.687   6.314  0.3038  0.2855  0.0340
79997W        W22910   2.054   2.167  11.076 -0.3319  0.0233  0.1853
79998W        W22911   0.629  11.650   9.026  0.1580  0.2809 -0.0315
79999W        W22912  13.374  19.098  27.244  0.0005  0.1636  0.0359
80000W        W22913  14.304   2.743   3.123  0.2553 -0.1934 -0.1068
80001W        W22914  28.227   3.287   9.269  0.1763  0.0228 -0.0980
80002W        W22915  12.808   8.949   2.224  0.3468  0.3949  0.1733
80003W        W22916  11.544  16.419   1.094  0.3969 -0.1932  0.0431
80004W        W22917  19.366   7.770   1.418 -0.0757 -0.0489 -0.0706
80005W        W22918   4.614  21.691   5.982 -0.4170  0.2395  0.0451
80006W        W22919  18.078  18.678   4.539  0.0495 -0.0226  0.1311
80007W        W22920   2.524   5.174   3.430  0.1539  0.1026 -0.0478
80008W        W22921  12.268  32.567  10.495 -0.1466  0.0701 -0.1729
80009W        W22922  11.908   7.538   2.047 -0.1037  0.1082 -0.1314
80010W        W22923   5.584  29.339   4.855 -0.2593 -0.0476 -0.3251
80011W        W22924  13.476  13.822   0.437  0.3150 -0.1559  0.0780
80012W        W22925   3.374   7.657  27.569 -0.1811  0.1133  0.1386
80013W        W22926   2.964  13.562   2.293  0.2899  0.3863 -0.1025
80014W        W22927   3.964   5.157   2.135 -0.1633 -0.2257  0.0895
80015W        W22928  30.495  10.470   1.746  0.0815  0.1581  0.1791
80016W        W22929  24.593  17.427   2.485  0.1547 -0.0469  0.0127
80017W        W22930   8.166   8.537   9.041 -0.2132 -0.2566 -0.1370
80018W        W22931   5.449  11.571   7.983  0.0680  0.0700  0.3370
80019W        W22932  34.040   4.661  11.566 -0.2770 -0.0179 -0.4844
80020W        W22933   9.055  12.583  10.599 -0.1256  0.3566 -0.0202
80021W        W22934   8.962   6.270   7.909 -0.3689 -0.1024  0.2597
80022W        W22935   3.133  18.587   6.345  0.0637 -0.0519  0.2565
80023W        W22936   7.368  12.442   6.504 -0.0377 -0.1568  0.1355
80024W        W22937  11.740  18.450   6.324 -0.1305  0.2204  0.0529
80025W        W22938   4.953   7.103  10.822  0.2967  0.0934 -0.2573
80026W        W22939  11.688  17.011   6.714  0.1397  0.1555  0.3924
80027W        W22940   3.894  12.767  11.117  0.1870 -0.3080 -0.0389
80028W        W22941   2.412  32.434  10.222  0.1478 -0.1953  0.0586
80029W        W22942   2.330  15.815   4.346  0.1178  0.1006 -0.1451
80030W        W22943   5.562  33.493   9.017 -0.0832  0.1803 -0.2125
80031W        W22944  14.067  14.025   7.859 -0.3665  0.4690  0.0822
80032W        W22945  19.396  10.060  27.249  0.0141 -0.2135  0.0145
80033W        W22946  32.850  11.369  26.313  0.0543  0.0145  0.1998
80034W        W22947  14.611   5.868   6.666 -0.1933 -0.1758 -0.1496
80035W        W22948  11.198   6.136   1.289 -0.0514  0.0548 -0.1754
80036W        W22949  10.784   5.503   7.172 -0.0845 -0.1289  0.0696
80037W        W22950  13.107  26.446  10.336 -0.0143  0.0202 -0.1278
80038W        W22951   7.573   5.464   0.827  0.0465  0.0436 -0.1997
80039W        W22952  11.406  12.673   5.324  0.0184 -0.1044 -0.0818
80040W        W22953   9.651   9.464   8.949 -0.2343  0.1302  0.0505
80041W        W22954  11.146   9.854   8.571  0.1453  0.0097 -0.3440
80042W        W22955   8.306   1.373  24.944 -0.2735 -0.2615 -0.0359
80043W        W22956   5.838  10.366   9.367 -0.0694  0.0977  0.2981
80044W        W22957   9.297  12.193  10.690  0.2350  0.1127 -0.1771
80045W        W22958   5.918   4.295   4.858 -0.0782 -0.0255  0.2881
80046W        W22959   8.918   0.070   4.110  0.3018  0.0747 -0.2623
80047W        W22960   2.521  10.971   7.216 -0.5762 -0.2094  0.0463
80048W        W22961   7.987   7.323  11.236  0.3085  0.0952  0.5016
80049W        W22962  10.277  13.423   6.693 -0.1701 -0.1488  0.1470
80050W        W22963  14.680   5.468   3.072 -0.1455 -0.0151 -0.0328
80051W        W22964  32.264  32.193  10.023 -0.3145  0.1863  0.1077
80052W        W22965   4.656   5.378  11.391  0.0676  0.1954 -0.4567
80053W        W22966   0.302  17.301   6.137 -0.1349  0.0060 -0.0036
80054W        W22967   7.944  18.231   5.555 -0.2202 -0.0870  0.2010
80055W        W22968  17.738   9.253  20.213  0.1258  0.0313 -0.3787
80056W        W22969   4.518   9.045  27.662 -0.1568  0.4186 -0.0861
80057W        W22970  33.619  10.733   3.940 -0.4455 -0.1734  0.0763
80058W        W22971  13.296  26.576   1.177 -0.2035 -0.0444  0.0676
80059W        W22972   6.229   8.793  24.001  0.2982 -0.2119 -0.0406
80060W        W22973  13.184  12.186   1.397 -0.1467  0.0158  0.3087
80061W        W22974  11.348   9.078   2.039  0.0672  0.1075 -0.0660
80062W        W22975   9.935   8.274   8.451  0.0545  0.1826  0.0772
80063W        W22976  19.179  12.199   1.826  0.3781  0.1871 -0.1285
80064W        W22977   9.879   8.250   3.482  0.0818 -0.0219  0.0796
80065W        W22978   9.982   5.774   6.691  0.3753  0.0029  0.1054
80066W        W22979  10.961  11.540   7.485  0.2027 -0.0496  0.2266
80067W        W22980  13.285  17.107   7.332  0.0138 -0.1752  0.1150
80068W        W22981   3.514  10.134  26.951  0.0451 -0.0634  0.1094
80069W        W22982  13.319  10.710  24.763  0.0995  0.3942  0.2102
80070W        W22983   8.603  17.653  27.275  0.0147  0.2623  0.3087
80071W        W22984  11.857   2.657  13.255 -0.2005  0.0328  0.0466
80072W        W22985  12.246   4.399   9.593  0.4043 -0.1096  0.0026
80073W        W22986   2.867   7.754  27.569  0.2751  0.0692 -0.0558
80074W        W22987   1.855   9.934  19.527 -0.0140  0.2946  0.0131
80075W        W22988  14.717   5.378  10.024 -0.1553 -0.3090  0.1109
80076W        W22989   5.161  14.051   1.028 -0.1668 -0.1007 -0.0862
80077W        W22990  12.330   9.584  25.993  0.2874 -0.0247 -0.1536
80078W        W22991  11.309  21.796   2.874  0.0276  0.0204  0.2205
80079W        W22992  21.391  24.514   5.277  0.1416 -0.1911 -0.2427
80080W        W22993  18.169  11.802   4.968  0.1697  0.2181  0.3017
80081W        W22994  20.184  11.881   1.866 -0.1170 -0.0316 -0.4181
80082W        W22995   6.782  17.900  28.874  0.0833  0.0193  0.0071
80083W        W22996   8.158  21.435  19.224 -0.0010 -0.0771  0.0728
80084W        W22997  14.726  16.285  27.860  0.0563 -0.0569 -0.0402
80085W        W22998  17.044  15.225   4.093  0.1756 -0.2103  0.3133
80086W        W22999   5.205  10.539  28.092  0.0286 -0.0787 -0.0133
80087W        W23000  18.614   2.701   5.442  0.0559 -0.3394 -0.0576
80088W        W23001  18.193   3.419   4.315  0.0894 -0.3467 -0.0490
80089W        W23002  11.898  17.585  20.355  0.0101 -0.0666 -0.1751
80090W        W23003  13.870  10.898  25.087  0.1118 -0.0626  0.1494
80091W        W23004   8.515  13.111  25.773  0.1000  0.2980 -0.1379
80092W        W23005  13.753   8.668  27.634 -0.2664 -0.1731 -0.2052
80093W        W23006  10.608   9.938  23.944  0.0465  0.0717 -0.0666
80094W        W23007  16.931   7.807  19.720 -0.0230 -0.0053 -0.1063
80095W        W23008  12.749   8.364   8.038  0.0644  0.1439 -0.2355
80096W        W23009  14.027  16.280  25.740  0.0247 -0.1816 -0.0389
80097W        W23010   9.800  15.548  28.870 -0.1600  0.2960 -0.0377
80098W        W23011  11.589  13.736   8.913 -0.0675 -0.3145  0.0275
80099W        W23012  20.122   3.255   4.165 -0.0439  0.0572  0.0972
80100W        W23013   7.790  10.025  24.924  0.2534 -0.2648 -0.1457
80101W        W23014   1.059   7.932  24.148  0.2061  0.0281  0.1388
80102W        W23015  32.811  13.340  29.101 -0.1649 -0.0935 -0.1033
80103W        W23016  14.456  10.630  25.526 -0.0059 -0.0812 -0.1493
80104W        W23017  12.763  23.861   9.193  0.0888 -0.1558  0.3059
80105W        W23018  21.660  11.974   7.448  0.1552 -0.1863  0.1725
80106W        W23019  11.160   3.926  11.021 -0.1667  0.2054  0.3935
80107W        W23020   3.577  16.018  29.259 -0.0026  0.4454  0.2197
80108W        W23021   1.983  12.236   4.357  0.1731 -0.3020  0.1430
80109W        W23022  17.499  18.352   2.453  0.0560  0.1359 -0.1950
80110W        W23023   6.486  16.105   0.514 -0.0978 -0.0687  0.1114
80111W        W23024  11.208  17.253  25.003  0.2865 -0.0342 -0.3114
80112W        W23025  17.837   3.267   8.885 -0.0588 -0.3376  0.0860
80113W        W23026  12.081  19.491  22.245  0.2426  0.0210  0.1130
80114W        W23027  17.346  15.372   3.014  0.2120  0.0559  0.1604
80115W        W23028   5.286  14.209   7.823 -0.1635 -0.0091  0.0911
80116W        W23029   7.998  13.092   3.696 -0.0900  0.1567 -0.0974
80117W        W23030   6.792  13.340   5.290  0.1553 -0.0307  0.2122
80118W        W23031  12.110   3.076  23.612  0.1954 -0.1350 -0.0403
80119W        W23032   4.025  21.905   5.444 -0.0259 -0.0517 -0.2413
80120W        W23033   9.015  15.281  23.534  0.1900 -0.0264  0.2275
80121W        W23034  11.599   5.387   4.274 -0.1489 -0.0930  0.4256
80122W        W23035  10.030  16.210   0.157  0.1051  0.0270 -0.1433
80123W        W23036  13.271   5.779  29.497 -0.0304 -0.4702 -0.1948
80124W        W23037   1.121  12.273   9.022  0.3314  0.2330 -0.1957
80125W        W23038   1.762  16.721  23.833 -0.1998 -0.0077  0.0222
80126W        W23039  12.577  21.177   1.302 -0.4228 -0.0279  0.0461
80127W        W23040   4.742  10.385   2.255  0.2392 -0.1184  0.1251
80128W        W23041   6.707   5.477  12.895 -0.2009  0.0137 -0.1627
80129W        W23042  12.372  22.640   9.142  0.2156  0.0594  0.1265
80130W        W23043   9.718   4.801  22.162  0.0690 -0.3068 -0.1647
80131W        W23044   9.840   6.208   2.609  0.2096  0.0292 -0.0120
80132W        W23045   0.165   4.775  28.777 -0.1677  0.1611  0.0016
80133W        W23046   2.709  16.492   6.880  0.0159  0.2774  0.0020
80134W        W23047   6.780  11.180   2.405 -0.2337  0.0754  0.1138
80135W        W23048   7.807  14.104  23.196  0.2028 -0.1602  0.0147
80136W        W23049  29.364  14.597   1.815  0.0516  0.1742 -0.1405
80137W        W23050   0.172  10.930   9.100 -0.1916 -0.2001 -0.2006
80138W        W23051   5.681  13.147  19.948  0.0848  0.3672 -0.1401
80139W        W23052   3.839   6.982   9.325 -0.0637  0.2147 -0.1487
80140W        W23053   9.924   8.372  27.054  0.0772 -0.0480 -0.0024
80141W        W23054  30.303   8.925  10.094 -0.0241 -0.1426  0.4547
80142W        W23055  13.350   0.377   9.602  0.0324  0.0187  0.0457
80143W        W23056   5.499   1.738   8.458 -0.3064 -0.2565  0.2559
80144W        W23057   0.088  15.298  23.863  0.1139 -0.1825  0.2688
80145W        W23058  11.885   8.096   0.201 -0.3134 -0.0789  0.2073
80146W        W23059  15.958  15.233   1.679  0.0608 -0.3019  0.1991
80147W        W23060  16.746  20.480   8.299  0.0117  0.0357 -0.2887
80148W        W23061  10.408  11.503  21.616 -0.1121  0.2064  0.2450
80149W        W23062  10.419  32.227   4.243  0.3187 -0.0712  0.0233
80150W        W23063   0.534   4.004  25.265  0.1135  0.0581  0.4423
80151W        W23064  16.134  19.281  25.532  0.0154  0.0648  0.0037
80152W        W23065  32.399  29.307  22.907 -0.0123 -0.3827 -0.3874
80153W        W23066   4.662  14.804   7.202  0.0086  0.0796  0.0392
80154W        W23067   0.324  12.205  25.496  0.0562 -0.0882  0.3032
80155W        W23068  14.018  16.799   1.154 -0.0921 -0.1732 -0.2601
80156W        W23069   4.760  22.623   5.325  0.0464  0.1750 -0.1363
80157W        W23070  14.318  22.439  29.350  0.0664  0.2271  0.2967
80158W        W23071  13.280   9.273  25.018  0.2308 -0.2939 -0.1970
80159W        W23072  10.277  15.580  28.641  0.2773 -0.0420  0.0383
80160W        W23073   6.292  18.885   2.045  0.0891 -0.1715  0.1695
80161W        W23074   6.917  28.146   8.786 -0.0423 -0.2248 -0.1062
80162W        W23075  11.201  10.296   1.456 -0.4318 -0.2349 -0.1975
80163W        W23076  34.232   4.624   8.325 -0.1030 -0.1538  0.0085
80164W        W23077  10.697  17.597  26.941 -0.1853  0.0168 -0.1265
80165W        W23078  10.110  23.871  24.900  0.2549  0.1205 -0.0741
80166W        W23079  10.002   1.982  25.479 -0.1170 -0.1203 -0.2205
80167W        W23080  14.790  17.651   7.759  0.0401 -0.4616  0.2985
80168W        W23081  13.682  13.513  17.778  0.0758 -0.3549  0.1064
80169W        W23082   9.861  34.240  22.385 -0.0480  0.1901 -0.2178
80170W        W23083  14.424  15.367  25.302 -0.2160  0.1781  0.1676
80171W        W23084   6.985  20.710   0.751 -0.2205  0.0308 -0.1819
80172W        W23085  12.833  17.694  27.788  0.1338 -0.0352 -0.0559
80173W        W23086   5.549  23.543   1.089 -0.0965 -0.2536  0.3823
80174W        W23087  10.414  15.954   0.399 -0.2822  0.0183  0.2093
80175W        W23088  12.705   8.197   1.769  0.1974 -0.0298  0.0318
80176W        W23089  15.271  34.335   3.510  0.0756 -0.1590  0.0847
80177W        W23090  11.681   7.540   3.185  0.2399  0.0483  0.2053
80178W        W23091   8.811   7.425   4.538  0.1413  0.1620 -0.1084
80179W        W23092  12.931  17.279  29.237 -0.2245  0.0118  0.0946
80180W        W23093   2.645   9.610  28.729  0.2831 -0.0603 -0.0468
80181W        W23094   3.731  10.397  28.238  0.2139 -0.2042 -0.3475
80182W        W23095  13.345   8.253   3.386 -0.0496 -0.0116  0.1821
80183W        W23096  12.797  28.180  24.210  0.1292 -0.2402  0.3185
80184W        W23097   1.168   6.296  10.316 -0.0638  0.1708 -0.1663
80185W        W23098   0.657  10.709  27.880  0.0514 -0.0756  0.0720
80186W        W23099  11.176   7.366   2.407 -0.2615 -0.3582  0.1218
80187W        W23100  30.651  22.207   4.037  0.1297 -0.0044 -0.1696
80188W        W23101   8.801  16.086   4.474 -0.1462 -0.1438  0.1647
80189W        W23102   9.800  22.064  27.390  0.0179  0.2103 -0.2198
80190W        W23103   8.148   7.641  18.612  0.1407  0.2695  0.2397
80191W        W23104   9.077   9.872   3.368 -0.0883  0.1766  0.1811
80192W        W23105   0.769   2.055   3.524 -0.1566  0.0442 -0.2721
80193W        W23106  33.777  18.345   3.615 -0.5053 -0.0016  0.0250
80194W        W23107   9.682  17.000   5.671 -0.1119  0.1558  0.0149
80195W        W23108  11.942  16.636  25.018  0.1834  0.3287 -0.1872
80196W        W23109   9.254  22.124   6.761  0.0930  0.3071 -0.2125
80197W        W23110   9.045  14.515   7.715  0.3144  0.1443  0.1251
80198W        W23111  12.736  21.663  29.384  0.2020 -0.0831 -0.2212
80199W        W23112  34.050  19.463   8.392  0.0630 -0.3093 -0.0989
80200W        W23113   1.375   0.652   2.663 -0.1183 -0.0028 -0.1795
80201W        W23114  14.218  13.240   5.312  0.0207 -0.3162 -0.2354
80202W        W23115  15.662  19.403   1.211  0.0067 -0.3417  0.0676
80203W        W23116  30.908   8.898  18.913 -0.1304 -0.0551 -0.0026
80204W        W23117  34.011  17.899   3.659  0.2644  0.1843  0.1200
80205W        W23118   9.421   3.427  12.924  0.0290 -0.0430 -0.0467
80206W        W23119  34.480  12.964  29.306 -0.1065  0.0320  0.5151
80207W        W23120   6.265   4.781  10.381  0.1214  0.0870  0.0032
80208W        W23121  11.854   5.532  24.447 -0.1781  0.4341  0.1139
80209W        W23122  22.018  12.812   3.863  0.0520 -0.1335  0.0148
80210W        W23123   3.960   8.740  11.228  0.2559  0.1054 -0.0101
80211W        W23124  14.185  13.877   6.730 -0.2424 -0.0076 -0.0767
80212W        W23125  31.951   6.328   1.256  0.0788 -0.2809  0.0695
80213W        W23126   0.520   6.520  29.198  0.1212  0.2316  0.0496
80214W        W23127  10.481  19.067   6.937 -0.1207  0.0505 -0.1273
80215W        W23128  13.615   6.635  27.430 -0.1070  0.0607  0.2250
80216W        W23129  13.097   5.489   7.559  0.4785 -0.0374  0.1121
80217W        W23130  11.668   4.893   2.609  0.1863  0.2275 -0.2449
80218W        W23131  16.218   4.489   8.580  0.3964 -0.1262  0.0487
80219W        W23132   2.640   5.515   0.353 -0.1667 -0.0213  0.2770
80220W        W23133  10.064  13.986   2.328  0.0675 -0.1898 -0.0173
80221W        W23134   9.396   6.949  23.225 -0.0651  0.1613 -0.1898
80222W        W23135  11.977  11.249  28.614 -0.1297 -0.0057  0.3561
80223W        W23136   0.591  13.598   5.020 -0.0423 -0.1923 -0.0981
80224W        W23137  11.284  22.090   8.978  0.1977 -0.0889 -0.0820
80225W        W23138  15.638  18.412   1.192  0.2759  0.1338  0.1089
80226W        W23139   9.444  20.294   9.043 -0.0005 -0.1505 -0.0658
80227W        W23140  12.777  23.004   7.062  0.0030 -0.1521  0.1544
80228W        W23141   9.207  19.321  22.542  0.0215  0.1165  0.1180
80229W        W23142  13.070  29.834   3.288  0.0248  0.1530  0.1936
80230W        W23143   4.156   5.074   4.759  0.2241  0.1252  0.2956
80231W        W23144   8.382  11.350  26.052 -0.2058  0.1767 -0.0255
80232W        W23145  10.844  11.779   2.918  0.0570 -0.2693 -0.1844
80233W        W23146  11.092  13.434   8.600 -0.0241 -0.5302  0.0960
80234W        W23147  33.060  19.729  29.614  0.0527 -0.3325  0.0586
80235W        W23148   8.793  20.141  26.373  0.1795  0.0410  0.1096
80236W        W23149  17.120   9.964   4.142  0.0360 -0.1771 -0.1169
80237W        W23150  31.199  18.380   3.599  0.0688  0.0888  0.3182
80238W        W23151  32.524  10.607   9.141 -0.0508  0.2992  0.2315
80239W        W23152  10.842  10.057  22.401 -0.0199  0.2470 -0.0185
80240W        W23153  15.888  19.408   4.642 -0.3228  0.1049  0.0490
80241W        W23154   6.519  17.843   8.538 -0.0175 -0.1803  0.2237
80242W        W23155   7.598   8.051   7.901 -0.2100 -0.2451 -0.0490
80243W        W23156   3.055  13.452  23.425 -0.3516  0.4420 -0.1265
80244W        W23157  10.368  13.774   5.102  0.2246 -0.1124 -0.1618
80245W        W23158  29.743  11.883  26.872  0.4237  0.0898  0.4132
80246W        W23159   4.483  15.568  26.775  0.1000  0.0735  0.0022
80247W        W23160  12.491  11.766   3.667  0.1332 -0.0732 -0.1684
80248W        W23161  17.203   7.844  29.176  0.0402 -0.0795 -0.2024
80249W        W23162  14.421  20.401  25.565 -0.1687 -0.0039  0.0889
80250W        W23163  12.981  14.038   4.503 -0.1892  0.0077 -0.3263
80251W        W23164   6.207   5.183  28.746  0.3660  0.1423  0.1375
80252W        W23165  14.594   7.219   0.143  0.0995 -0.1222 -0.3577
80253W        W23166   4.790  15.542   0.869 -0.0053  0.2779 -0.3279
80254W        W23167  11.080  13.419   9.613  0.1323  0.0625  0.0304
80255W        W23168   5.521  16.450   8.246 -0.1795 -0.1162 -0.2415
80256W        W23169  34.362  13.778   4.347 -0.1519 -0.4226  0.1067
80257W        W23170  10.547  19.370   3.923 -0.0416  0.2580  0.0096
80258W        W23171   1.868   7.185   3.510  0.0443 -0.0163 -0.1778
80259W        W23172  14.872   5.702   7.109  0.1737 -0.2235  0.1622
80260W        W23173  10.759  20.851  15.636  0.2374  0.0447  0.0084
80261W        W23174  32.572   1.992  27.355 -0.2759 -0.2183  0.5357
80262W        W23175  10.254  18.794   0.984 -0.1005 -0.0158  0.3541
80263W        W23176  20.383   8.698  24.866 -0.1584  0.1547 -0.1861
80264W        W23177   7.299   7.870  12.491  0.0865 -0.1041 -0.2322
80265W        W23178  11.780   5.736  27.004 -0.1488  0.0125 -0.0198
80266W        W23179   0.148  11.706   7.747  0.2622  0.0519 -0.0533
80267W        W23180   9.513   8.404  28.335 -0.1764 -0.4101 -0.1694
80268W        W23181  15.581   7.920  25.078  0.3349  0.0132 -0.1077
80269W        W23182  15.859  19.408   7.938  0.3592 -0.1584 -0.1087
80270W        W23183  13.163  15.164   0.756  0.1096  0.0265  0.0151
80271W        W23184  13.850  16.418  21.613 -0.0110  0.1618  0.1910
80272W        W23185  34.017   8.392  10.587  0.0838 -0.3422 -0.0628
80273W        W23186   8.019  22.341  26.249 -0.1608  0.0165  0.1910
80274W        W23187  11.321   6.761   0.239  0.0466  0.1109  0.1649
80275W        W23188  11.822   6.991   0.286  0.2544  0.0733  0.2600
80276W        W23189  23.281   7.229   2.161  0.2816  0.0473 -0.1222
80277W        W23190  15.510  12.038  28.798 -0.1817  0.2761  0.2341
80278W        W23191  11.238  13.447   3.312 -0.2221 -0.0206 -0.2271
80279W        W23192  11.731   7.262   2.712  0.3173 -0.2877 -0.0957
80280W        W23193  14.606   9.537   5.744 -0.0511 -0.2546 -0.2299
80281W        W23194   5.130  11.685  28.633  0.2688  0.1826 -0.1985
80282W        W23195   7.796  13.380   7.563  0.0969 -0.0295 -0.0768
80283W        W23196  34.224   5.989   9.707  0.0825  0.1942  0.1208
80284W        W23197   5.498  13.064  26.892  0.0493 -0.0663  0.0364
80285W        W23198   7.800  13.495   8.148 -0.0582 -0.0964 -0.3043
80286W        W23199  13.188  11.945   7.322  0.4163  0.2025  0.0722
80287W        W23200  14.796   6.350   6.944 -0.1074 -0.2817 -0.4066
80288W        W23201  18.682  18.837  21.444 -0.2200 -0.0338 -0.1823
80289W        W23202   7.280   2.061   0.524  0.1634 -0.0112  0.3770
80290W        W23203  20.623   5.466  26.113  0.0524  0.0886  0.3472
80291W        W23204   7.216  11.480  20.771 -0.1109  0.2548  0.0359
80292W        W23205  12.844   9.201  29.271 -0.1771 -0.3229  0.0050
80293W        W23206  18.717  23.099  20.343 -0.0910 -0.1309 -0.0518
80294W        W23207  13.603  19.942   1.473  0.3362 -0.1954 -0.1590
80295W        W23208   8.352  23.547  29.118 -0.0952 -0.1552  0.2068
80296W        W23209   4.457   0.589  27.104  0.1440 -0.4625  0.2483
80297W        W23210   3.510  17.640   3.050 -0.4726 -0.1689 -0.1023
80298W        W23211   4.606   1.467  11.586  0.0056 -0.2963 -0.0497
80299W        W23212  17.382  16.044   6.034 -0.0295  0.3344  0.0377
80300W        W23213   8.280   4.602  24.939 -0.2048  0.1140 -0.1341
80301W        W23214   6.787  33.833   2.997  0.1203  0.2841  0.1370
80302W        W23215   8.114   5.229   0.966 -0.0061 -0.1662 -0.1376
80303W        W23216   6.252   7.574   1.983 -0.1543 -0.0608  0.1722
80304W        W23217   1.958  14.580   2.506 -0.0127  0.0140 -0.0261
80305W        W23218   7.930  13.129   9.610 -0.0364 -0.2748  0.0040
80306W        W23219   3.934  14.363  17.660  0.0508  0.1770  0.0360
80307W        W23220  18.565  17.131  13.277  0.0325 -0.1327 -0.3485
80308W        W23221   0.315  16.649  22.548  0.1110  0.0337  0.2918
80309W        W23222   0.451  20.519  26.378  0.2120  0.0744  0.0756
80310W        W23223   6.436  11.540   1.673 -0.1126  0.1243  0.1817
80311W        W23224   6.792  11.346  17.670 -0.0381 -0.1649  0.0111
80312W        W23225   5.552  11.898  28.161  0.0037  0.3434  0.0650
80313W        W23226   9.340   1.213   1.020 -0.1305  0.2698 -0.0182
80314W        W23227   7.467  32.777   3.897 -0.2696 -0.4550 -0.1554
80315W        W23228   7.132  13.846   1.670 -0.3517  0.3890 -0.0852
80316W        W23229   5.650   7.640   3.804  0.0128 -0.2169 -0.0432
80317W        W23230   5.093  24.665  17.916 -0.0617  0.1129 -0.3056
80318W        W23231   2.240  18.162  21.032  0.0775 -0.0812  0.0303
80319W        W23232   5.314   9.189  29.195 -0.3639  0.0558 -0.2205
80320W        W23233  32.821  10.116  26.145 -0.1839 -0.1197 -0.0104
80321W        W23234   4.674  14.669   6.503 -0.0041  0.1712 -0.1462
80322W        W23235  14.328  11.073   5.432 -0.0609  0.0632  0.1901
80323W        W23236   2.445  20.023   7.651  0.1277 -0.2658 -0.1829
80324W        W23237  10.307  17.064  23.101 -0.3960 -0.0415  0.2504
80325W        W23238  10.709   9.884  21.410  0.1381 -0.1648  0.0324
80326W        W23239  12.891  17.838   1.435  0.1672 -0.0695 -0.0375
80327W        W23240  15.644  24.508  22.309  0.0438 -0.1283 -0.2535
80328W        W23241  12.308  12.845  25.887 -0.0010 -0.0308  0.4746
80329W        W23242   9.728   3.583   4.767 -0.0613 -0.1846  0.0601
80330W        W23243  14.115   5.245   4.022 -0.1341 -0.0770 -0.2357
80331W        W23244  18.724  14.775  22.147 -0.1079 -0.1230 -0.0594
80332W        W23245   6.835   5.874   1.705  0.0042 -0.4524  0.1471
80333W        W23246  15.597  17.081   4.512 -0.1189 -0.2714  0.0819
80334W        W23247  15.347   5.343  21.933  0.0704 -0.0471  0.1728
80335W        W23248   9.538  14.011   2.288  0.0214 -0.0087 -0.2294
80336W        W23249  17.452  25.201   9.082 -0.0015 -0.0952 -0.1404
80337W        W23250  12.125   3.437   8.239  0.1298  0.1079  0.1162
80338W        W23251  29.461  13.265   5.793  0.0986 -0.2408  0.0545
80339W        W23252  12.854   5.808   4.086 -0.1610  0.0734  0.1763
80340W        W23253  22.453   9.130   2.573  0.2288  0.0142 -0.0711
80341W        W23254   9.538  19.468  28.239 -0.1706 -0.0054  0.0951
80342W        W23255   5.696  21.816   1.220  0.1613 -0.2418  0.1300
80343W        W23256  17.571  21.546   6.296 -0.0862  0.2337 -0.0143
80344W        W23257   2.212  21.340  26.062 -0.0719 -0.1204 -0.0562
80345W        W23258   9.964   8.076   1.712  0.0375  0.1371 -0.0230
80346W        W23259  11.669   7.776   0.674 -0.1337 -0.1507  0.2106
80347W        W23260   0.996   0.215   2.080  0.1383 -0.0187 -0.2648
80348W        W23261  16.029   6.361   8.029 -0.0105 -0.1854  0.1927
80349W        W23262  14.338   3.843  21.461  0.0980 -0.0213 -0.0847
80350W        W23263  18.219  12.093  27.771  0.1995 -0.2669 -0.0403
80351W        W23264  11.495   9.670   1.262  0.0633  0.4046  0.0117
80352W        W23265   8.242   4.376   1.422 -0.1337  0.4081  0.2541
80353W        W23266   6.385  10.377  26.762  0.1336 -0.1932  0.0838
80354W        W23267  20.131  13.498   5.075  0.0475 -0.1880 -0.0927
80355W        W23268   8.822   4.726  25.480  0.0666 -0.0829  0.0358
80356W        W23269  13.284  16.702  29.708 -0.2125 -0.4985 -0.1858
80357W        W23270   8.538  33.160  24.050 -0.1419 -0.2305 -0.0811
80358W        W23271   9.699   9.437   6.694 -0.1507 -0.2472 -0.0277
80359W        W23272   3.773  21.809  28.704  0.2036 -0.0653 -0.0031
80360W        W23273   2.582  18.629  28.509 -0.1156 -0.0140 -0.0775
80361W        W23274   5.900   5.764  21.982  0.2022  0.1136 -0.0408
80362W        W23275  12.178  15.248   3.024  0.3130 -0.0703  0.2398
80363W        W23276  29.571  14.642   0.116  0.1707  0.2292  0.0663
80364W        W23277  10.489  21.371   7.659 -0.1321  0.2883 -0.2043
80365W        W23278   3.096   4.720  24.841 -0.0816 -0.1149  0.1354
80366W        W23279  13.877  26.903  28.128  0.0059  0.3276 -0.1000
80367W        W23280  10.778   9.340  25.245 -0.1185  0.1139  0.1334
80368W        W23281  16.797  14.771   1.798  0.1632 -0.1041 -0.0062
80369W        W23282  20.795  21.352   7.494 -0.2254 -0.0397  0.0002
80370W        W23283  16.212   3.518  25.073  0.3552 -0.0837  0.0102
80371W        W23284  14.897   8.812  26.341 -0.2153 -0.3238 -0.0237
80372W        W23285  20.002  12.620   0.795 -0.1346 -0.3166 -0.0452
80373W        W23286   8.834  14.931   0.981 -0.1304 -0.1485 -0.2717
80374W        W23287  19.585  18.221  27.227 -0.1639  0.1024  0.0105
80375W        W23288   9.363  16.939   9.094  0.1090  0.0450 -0.2025
80376W        W23289  15.631  13.860   5.841  0.4650 -0.2757  0.0557
80377W        W23290  25.373  34.337   2.923  0.2039  0.0014  0.2108
80378W        W23291  15.445  26.784   3.791 -0.0340 -0.1215 -0.4364
80379W        W23292  10.934  12.106  28.408  0.0576 -0.1752  0.3791
80380W        W23293  13.176  10.903  25.640  0.3113  0.2795 -0.0406
80381W        W23294  13.472  12.255  21.153 -0.1282  0.1195  0.2391
80382W        W23295   5.007   5.632   6.636 -0.0352 -0.2007 -0.0807
80383W        W23296   0.953   4.992   1.769 -0.2318 -0.0293 -0.0807
80384W        W23297  14.872  19.629   3.616  0.4210 -0.5766 -0.1481
80385W        W23298  10.306   9.327   4.818 -0.0663  0.1357 -0.1041
80386W        W23299   2.453   8.601   0.493  0.0977  0.2066 -0.2704
80387W        W23300   3.266   2.136  29.463  0.0347  0.1029  0.0746
80388W        W23301  15.996  14.733  22.101 -0.0736 -0.1050  0.0256
80389W        W23302   5.426  12.665  27.244  0.0962  0.0164  0.0954
80390W        W23303  13.815  12.821   6.331 -0.0572  0.0450  0.2132
80391W        W23304   7.982  13.010   4.612 -0.0805  0.0017 -0.0726
80392W        W23305  14.183  10.696   3.243  0.0905  0.4673  0.1905
80393W        W23306   4.153  15.330   8.823  0.3558 -0.3609 -0.0124
80394W        W23307   3.624  20.891   7.581  0.0105 -0.2811 -0.0741
80395W        W23308  32.852  26.019  24.799  0.0834  0.0029 -0.2358
80396W        W23309  14.933  13.982  29.760  0.2616  0.1193  0.0350
80397W        W23310   9.120  12.888  27.983 -0.3832  0.0788 -0.0685
80398W        W23311   2.778   5.910   7.316 -0.1037 -0.1691 -0.0950
80399W        W23312  16.259   8.410   0.113 -0.1316  0.0139  0.0281
80400W        W23313  32.912  16.638   8.938  0.0431 -0.1530 -0.0555
80401W        W23314  10.912  17.883  22.785  0.4053  0.0365  0.1090
80402W        W23315   1.789  14.402  28.462  0.3129  0.1839  0.2179
80403W        W23316   0.975  10.592  20.604  0.0488 -0.0003 -0.1359
80404W        W23317   2.643  14.848   9.384 -0.0598 -0.1592  0.1517
80405W        W23318   3.858   8.787   0.415  0.1548  0.4040 -0.2777
80406W        W23319   8.817  13.108  18.758 -0.2056 -0.1262 -0.0285
80407W        W23320   8.501   6.003   7.624  0.0722  0.0631  0.0590
80408W        W23321   5.052  17.146   9.377  0.2829 -0.0480 -0.0882
80409W        W23322  19.322  15.196   7.772  0.2502  0.1476  0.2680
80410W        W23323   4.868   8.887  11.343  0.0099 -0.0335 -0.0913
80411W        W23324  14.623   6.164  28.333  0.2372 -0.1538 -0.0520
80412W        W23325  19.768   3.814  21.568  0.1467 -0.0991  0.1235
80413W        W23326   3.609   8.330   6.951  0.0779 -0.1984 -0.0069
80414W        W23327   5.388  33.016   9.149 -0.3310  0.1711 -0.0482
80415W        W23328  13.134  16.565   7.176  0.0830  0.0389 -0.0594
80416W        W23329   9.725   4.881   0.910 -0.2688  0.2907  0.1344
80417W        W23330   5.482  28.613   2.522  0.0892  0.1211  0.0128
80418W        W23331  20.713  34.369   6.582 -0.0886 -0.2155 -0.1903
80419W        W23332  12.376  16.743  18.018  0.2271 -0.3302  0.1649
80420W        W23333  12.527  13.704  18.506  0.1880 -0.0626  0.0218
80421W        W23334  21.465   5.592  27.736  0.0130 -0.3076 -0.2501
80422W        W23335   6.462   7.681  11.446  0.0245 -0.2663  0.3181
80423W        W23336  17.291  16.934   0.542 -0.2821  0.3130  0.0737
80424W        W23337   9.177  19.361   3.279  0.0357  0.0817 -0.2557
80425W        W23338   8.730  19.213   5.555 -0.0386 -0.0595  0.1603
80426W        W23339  13.486  18.687  23.996 -0.0989  0.0637  0.1547
80427W        W23340  10.124   2.110   4.853 -0.1006  0.0726  0.2208
80428W        W23341   2.531  14.074  25.051  0.0481  0.2225 -0.2892
80429W        W23342  10.283  12.824  10.536 -0.1382 -0.3140 -0.2822
80430W        W23343  17.466  23.967  24.844 -0.1797 -0.0633 -0.1089
80431W        W23344  13.483  14.112  28.132 -0.0469  0.1991  0.0167
80432W        W23345  10.660   9.952  25.977 -0.0244 -0.1418  0.1073
80433W        W23346  17.890  11.891   6.508 -0.1591  0.2596 -0.1207
80434W        W23347   7.258  10.890  26.495  0.1259  0.1216  0.1829
80435W        W23348  14.805   3.442  27.616 -0.0764 -0.1472 -0.1313
80436W        W23349  17.698  24.425  27.639 -0.1123  0.0221 -0.0795
80437W        W23350  12.154  16.089  27.783  0.1975  0.0509  0.1086
80438W        W23351   9.391  10.563  28.288  0.1194 -0.0762  0.0718
80439W        W23352   7.504  32.527  12.752 -0.0811  0.0284  0.2324
80440W        W23353  13.359  33.508  12.110 -0.2342  0.0498 -0.2080
80441W        W23354  34.302  21.760   1.425  0.0067  0.0666 -0.0090
80442W        W23355  11.839  18.848   9.272 -0.1061  0.0297 -0.2719
80443W        W23356   5.900  22.972  24.876  0.1358  0.0405  0.1671
80444W        W23357  11.364  10.090   0.912 -0.2801  0.1752  0.0108
80445W        W23358  15.417   4.690   1.568  0.2438 -0.0120 -0.1316
80446W        W23359   9.226  25.659  10.420  0.1106  0.2096 -0.1307
80447W        W23360  14.539  19.928  27.622  0.4771 -0.2186  0.0693
80448W        W23361   9.247   4.443   5.083 -0.1622 -0.0177  0.2576
80449W        W23362   6.725  15.471   2.779  0.1075 -0.1613  0.2039
80450W        W23363  13.729   2.137  21.545 -0.3085 -0.0899 -0.1452
80451W        W23364  33.473  13.616  28.476 -0.0497  0.1386  0.2517
80452W        W23365   5.246  23.473   4.895 -0.0815 -0.2554  0.0497
80453W        W23366  11.372  16.917   2.358 -0.0819  0.0381  0.4218
80454W        W23367  11.687  12.111   1.525  0.2404  0.2356 -0.0699
80455W        W23368  18.767  15.461  24.042 -0.2662  0.0506 -0.4531
80456W        W23369   0.167  11.836  29.484  0.0470  0.1424 -0.0980
80457W        W23370   8.634  19.166   4.434 -0.0857 -0.7332  0.0344
80458W        W23371   7.150  17.820   8.520 -0.1527  0.1089 -0.0741
80459W        W23372  32.429   4.065   2.136  0.2073  0.0236 -0.1705
80460W        W23373   9.316  17.881   3.750  0.1210  0.0051 -0.0677
80461W        W23374  12.288  16.165   0.653 -0.1970  0.1971  0.3950
80462W        W23375   8.019   9.100  27.130 -0.2229  0.1084 -0.0481
80463W        W23376   5.480   8.326  10.196 -0.0144  0.0894  0.1197
80464W        W23377  11.500  13.805   6.066  0.1779 -0.1045  0.0238
80465W        W23378  10.803   5.924   4.102 -0.2410 -0.5457 -0.1811
80466W        W23379   0.549   5.593   4.872  0.4476 -0.2782 -0.0950
80467W        W23380  13.387   8.716  25.169 -0.1680  0.3445 -0.1538
80468W        W23381   8.946   5.960  28.297 -0.1863 -0.0708  0.1397
80469W        W23382  12.686  14.260   7.712  0.2189 -0.0271  0.1636
80470W        W23383  34.151  21.265   0.183  0.3460  0.1345 -0.0148
80471W        W23384   5.424   0.767  10.092  0.1368  0.2457 -0.1479
80472W        W23385  21.491   8.496   3.291  0.2594  0.1947  0.0573
80473W        W23386  32.886  11.291   8.949  0.1401 -0.0066 -0.0815
80474W        W23387  24.974  21.462   4.542  0.0948  0.0277  0.1349
80475W        W23388   1.679   5.417   3.167  0.2870  0.1860 -0.0814
80476W        W23389   4.295   6.408  11.087 -0.0620 -0.2086 -0.0353
80477W        W23390   2.974  10.067  11.556 -0.2968  0.1329 -0.1647
80478W        W23391  15.306  22.419   5.038 -0.0373  0.1820  0.0428
80479W        W23392  15.757  13.080  20.858 -0.2854  0.0270 -0.0670
80480W        W23393   8.273  23.748   4.299 -0.0386 -0.0325 -0.1077
80481W        W23394   7.401  12.620   4.378  0.1114  0.1571 -0.0338
80482W        W23395  19.049  15.812  29.332  0.2507  0.2286 -0.2357
80483W        W23396  31.704  11.796  28.519  0.1364 -0.1341 -0.0184
80484W        W23397   1.182  31.520   5.744  0.3413  0.1547 -0.0608
80485W        W23398  34.193   8.831   6.354  0.0622  0.1039  0.2376
80486W        W23399  12.032  17.577  24.676 -0.0893 -0.2987  0.2036
80487W        W23400   5.018   8.998   7.916 -0.1579 -0.1847  0.1265
80488W        W23401  32.436  10.528   2.698  0.2399  0.1553 -0.1069
80489W        W23402   4.648  25.117   8.872  0.3984 -0.0243 -0.0022
80490W        W23403   4.441  16.890   5.386 -0.1919 -0.0359 -0.0764
80491W        W23404  16.373  21.023  29.043  0.1588 -0.1959 -0.1428
80492W        W23405  33.392  13.007   1.392  0.0609 -0.1711 -0.1048
80493W        W23406   7.878  14.552   1.635  0.3288  0.0577  0.1148
80494W        W23407   7.821   6.511   5.098 -0.1280 -0.1465  0.0985
80495W        W23408  11.030   6.725   0.689 -0.1457  0.1993  0.2822
80496W        W23409   4.681  31.978  11.809  0.1846  0.1360  0.0696
80497W        W23410  14.683  17.720   1.134 -0.0141  0.1573 -0.3264
80498W        W23411   5.645   9.878   8.812 -0.0022 -0.0197 -0.3633
80499W        W23412  15.913  15.768  29.320  0.1536  0.0677  0.0376
80500W        W23413   2.967   5.295   5.916 -0.0405  0.1196  0.0057
80501W        W23414  14.998   9.385  29.417  0.2557 -0.1057  0.0249
80502W        W23415   7.604   5.867  11.541 -0.0192 -0.1518  0.0957
80503W        W23416   5.472  19.171   6.526  0.0361 -0.0019 -0.0374
80504W        W23417  12.999  29.411   2.945  0.0073 -0.2362  0.1084
80505W        W23418   8.518  12.200   7.161  0.1307 -0.0642  0.0679
80506W        W23419  18.528  12.545   3.026  0.1619  0.4300 -0.1050
80507W        W23420   5.255  21.842   7.483 -0.1957  0.0390  0.2905
80508W        W23421   9.817  28.450   2.320 -0.0604  0.0510 -0.2535
80509W        W23422   1.774   6.277   8.728 -0.1786 -0.2446  0.0335
80510W        W23423   7.147   9.207   7.325  0.1773 -0.2726  0.0475
80511W        W23424   6.659  17.139   1.981  0.0707  0.1470  0.0564
80512W        W23425   2.101  24.542   5.219  0.1943 -0.2459  0.3296
80513W        W23426   1.507   4.485   8.954 -0.0457  0.1228  0.2846
80514W        W23427   9.069   7.210  17.796 -0.2015 -0.3053  0.1677
80515W        W23428  32.092   1.835   6.830 -0.0201 -0.0521  0.0609
80516W        W23429   8.036  19.869   1.454 -0.0526  0.0105 -0.0019
80517W        W23430   6.898   5.182   5.081  0.1194 -0.1126 -0.1328
80518W        W23431  20.562  15.104   2.570 -0.0816 -0.2702  0.0640
80519W        W23432   6.893  15.993   2.474 -0.3758 -0.1522  0.1058
80520W        W23433  10.126   2.336   5.771  0.1395  0.0628  0.1899
80521W        W23434   7.311  10.480  29.354 -0.1690 -0.2632  0.3082
80522W        W23435   6.968  21.362   6.609 -0.0786 -0.4702  0.2155
80523W        W23436   7.679   9.704  10.794  0.1742 -0.0603  0.0877
80524W        W23437  34.009  15.456   0.092  0.1599  0.2436 -0.0246
80525W        W23438  10.999  15.788   8.029  0.2161  0.0455 -0.2499
80526W        W23439  15.378  12.063   5.337 -0.0970 -0.0271  0.0047
80527W        W23440  10.667  19.520   0.692 -0.2012 -0.1411  0.0854
80528W        W23441  11.857  23.097   2.246  0.1590 -0.1673 -0.1767
80529W        W23442  17.533  13.320  28.526 -0.4303  0.0803 -0.0258
80530W        W23443  12.203  26.934   0.614 -0.2861 -0.0729  0.2418
80531W        W23444   8.068  10.665  27.573  0.0761  0.0738 -0.3992
80532W        W23445  10.616  17.069   8.855  0.0252 -0.2420  0.2392
80533W        W23446   4.145   8.603   7.600  0.2038  0.3261  0.3559
80534W        W23447  17.399  11.933   5.477 -0.0833 -0.1358 -0.0204
80535W        W23448   8.558   8.648   1.964 -0.0382 -0.0780 -0.0603
80536W        W23449   0.359  10.587  27.005  0.1982 -0.0230 -0.2242
80537W        W23450   6.949  19.981   2.315 -0.1119 -0.1976  0.1183
80538W        W23451   9.130   7.990   1.625  0.0275 -0.1623 -0.0372
80539W        W23452   2.588  14.804   2.569  0.0242 -0.1848  0.3240
80540W        W23453  33.946  11.558   6.347 -0.1782  0.1092  0.2358
80541W        W23454  11.215  17.794   7.182  0.1202 -0.1844 -0.1568
80542W        W23455  12.965   4.984   2.909 -0.1971 -0.1476 -0.2120
80543W        W23456  10.061  28.138   6.443 -0.0467 -0.0701 -0.0691
80544W        W23457  16.736   2.639   2.271 -0.1946 -0.1404 -0.4428
80545W        W23458  10.142   4.564   0.844 -0.1657  0.1334 -0.2452
80546W        W23459   8.050  10.203   8.343 -0.2853 -0.1361 -0.1238
80547W        W23460  27.286  12.105   0.765 -0.0002  0.2031 -0.0762
80548W        W23461   4.349  10.951   5.328  0.0768 -0.2840 -0.1372
80549W        W23462  15.016  23.870  29.206  0.2488 -0.0021  0.4319
80550W        W23463  10.800  10.922  26.323  0.0004  0.2565  0.1277
80551W        W23464   2.718  19.552   6.540 -0.0852 -0.0693  0.1629
80552W        W23465  12.628   6.335  27.321  0.0261 -0.3359  0.0805
80553W        W23466   9.922  17.786   7.661  0.0711 -0.2980  0.3796
80554W        W23467   2.189   3.345   8.394 -0.1266  0.0587 -0.0331
80555W        W23468  15.220  12.954  26.594 -0.0143 -0.2095 -0.0486
80556W        W23469   8.467  19.314   0.339  0.0313 -0.2714  0.0631
80557W        W23470   8.155  14.770   5.721 -0.0725  0.2703  0.1413
80558W        W23471  14.786   5.336   7.436 -0.0817  0.1421 -0.0832
80559W        W23472   5.945  18.037  20.959 -0.1920  0.4003 -0.3214
80560W        W23473   4.111   9.708   9.265 -0.0089 -0.0351 -0.2308
80561W        W23474  33.238  24.424   3.147  0.3044 -0.2249 -0.2420
80562W        W23475  10.142  10.997   1.700  0.1396  0.0220  0.3039
80563W        W23476  12.887  12.534   6.453  0.1327  0.2257 -0.0268
80564W        W23477   1.294  13.449   6.568  0.1199  0.1866  0.1316
80565W        W23478  12.113   9.687   4.342 -0.1165  0.2014 -0.0150
80566W        W23479  11.550   8.399   3.208  0.1193 -0.0952  0.5509
80567W        W23480   7.734  15.341   9.351 -0.1640  0.0164 -0.2871
80568W        W23481   9.758  12.962   5.264 -0.0757  0.0949 -0.0055
80569W        W23482   4.161  11.301   4.564 -0.0574  0.0613  0.1840
80570W        W23483  14.133  11.472   5.648 -0.1881 -0.0659 -0.0018
80571W        W23484  10.534   2.584  24.963 -0.2020 -0.1374  0.1518
80572W        W23485   3.489  15.094   8.251 -0.0541 -0.1656 -0.0690
80573W        W23486  16.567   8.722   6.830 -0.2435  0.0798 -0.0925
80574W        W23487  34.232  34.372   9.870  0.0542  0.1056 -0.2375
80575W        W23488   9.149   9.527   7.221  0.0892 -0.0674  0.0274
80576W        W23489  14.147  18.788   5.847  0.1946  0.2193  0.0813
80577W        W23490   9.548  29.285  29.135  0.0540 -0.2788 -0.0866
80578W        W23491   0.778   9.704  10.894  0.1939  0.0016  0.1083
80579W        W23492   0.549  29.322   7.963 -0.0332 -0.1589 -0.0725
80580W        W23493  13.872   4.138   7.830 -0.3613 -0.3772 -0.0677
80581W        W23494  19.594  20.490  18.919  0.0475  0.4082 -0.2202
80582W        W23495   3.360   7.526  10.566 -0.0834  0.2093  0.3005
80583W        W23496  15.369   5.095   7.439 -0.1154  0.3543  0.0084
80584W        W23497  14.776  11.055  28.347  0.1427  0.1356 -0.0199
80585W        W23498  19.269   7.483   6.240  0.3078  0.2618 -0.2598
80586W        W23499   4.489  10.701   3.207  0.1886  0.2891 -0.3125
80587W        W23500  12.147  21.417   8.375 -0.2371 -0.0182  0.2786
80588W        W23501  16.281  16.444   1.205  0.0185  0.2104  0.0329
80589W        W23502  18.256  27.536   5.520  0.0579  0.0881 -0.3389
80590W        W23503  33.943   1.331   5.434 -0.0068  0.1423 -0.5767
80591W        W23504  12.787  17.052   8.466  0.2024  0.0640 -0.0402
80592W        W23505  13.470  15.099   6.580  0.3472 -0.0217 -0.0671
80593W        W23506   8.885   8.421  11.263  0.0474  0.3658  0.3354
80594W        W23507   9.219  14.071   8.751  0.1268 -0.0516  0.0679
80595W        W23508  13.363  22.118   7.110 -0.1260  0.0750 -0.0946
80596W        W23509   4.647  18.448  29.572 -0.0206 -0.1855  0.0927
80597W        W23510   6.644  17.452   5.645  0.2035 -0.1344 -0.2967
80598W        W23511  14.499  16.823   7.531 -0.0671  0.0474 -0.1729
80599W        W23512   5.073   8.336   8.795 -0.3138  0.0436  0.0203
80600W        W23513  31.937  10.556   4.299 -0.0460  0.0271  0.1395
80601W        W23514  20.626  15.932  22.446  0.0469 -0.0071 -0.2516
80602W        W23515   5.658   7.300   7.677  0.0396  0.0010  0.0075
80603W        W23516  16.834  12.161   4.061 -0.2907  0.2785  0.0692
80604W        W23517  34.163  12.503   3.890  0.0504  0.0491  0.0585
80605W        W23518  16.423  11.898   5.474  0.0758  0.1325 -0.3575
80606W        W23519  15.096  12.592   6.575  0.0449  0.1612  0.0989
80607W        W23520   8.338  17.050   5.120  0.2566 -0.1597  0.0914
80608W        W23521   5.292  16.284   3.125 -0.2207 -0.4192  0.0274
80609W        W23522   4.573  15.734   7.601  0.2979  0.1297 -0.0945
80610W        W23523  14.299  12.496   2.693 -0.1626 -0.2000  0.1367
80611W        W23524  14.216   4.277  22.853 -0.0607  0.0754  0.3416
80612W        W23525  11.021  15.876   4.312  0.1121 -0.0358  0.3550
80613W        W23526   3.786  13.246   6.444  0.2936 -0.0459  0.0907
80614W        W23527   5.684   2.149  27.497 -0.0960  0.1137 -0.1193
80615W        W23528   8.979  18.079   6.912  0.0718  0.0335 -0.2339
80616W        W23529  11.093  14.936   2.265 -0.3865  0.0130 -0.1554
80617W        W23530   8.301  26.532   2.789 -0.3439  0.1455  0.0514
80618W        W23531  15.304   6.924   8.843 -0.1638 -0.0397 -0.1178
80619W        W23532   6.809  24.238   3.291  0.1200 -0.3341 -0.0381
80620W        W23533   3.424   7.363   3.124 -0.1516  0.1035  0.0387
80621W        W23534  14.810  13.399   2.303  0.1093 -0.0569  0.0820
80622W        W23535   7.475   3.856  12.969 -0.0784  0.0129 -0.0600
80623W        W23536   0.453  13.673  14.566 -0.0871  0.3276 -0.1433
80624W        W23537   6.306  18.831   6.501  0.2631  0.1310  0.2888
80625W        W23538  11.869  25.226  18.711  0.1247  0.0784 -0.2289
80626W        W23539   5.708  15.115   8.625 -0.2892 -0.0142 -0.1369
80627W        W23540  14.132   1.007  23.566  0.3811  0.2151 -0.2847
80628W        W23541   9.512  14.413  10.280  0.0139  0.0946  0.1803
80629W        W23542  10.465  16.816   4.417 -0.0456 -0.0877 -0.0148
80630W        W23543   7.868   3.282   8.886 -0.0040  0.4019 -0.1765
80631W        W23544   9.488  15.806  10.105  0.1923  0.1006 -0.2392
80632W        W23545  32.303   6.970   4.320  0.1774  0.0838  0.1688
80633W        W23546   1.377  14.418  21.600  0.2436  0.0180 -0.0326
80634W        W23547  10.630  14.711   0.494  0.1527  0.1224 -0.2479
80635W        W23548   7.589  12.479   2.547 -0.1163 -0.0312  0.1209
80636W        W23549  11.161   9.132  23.989  0.0912  0.0215 -0.3272
80637W        W23550  16.991  15.011   7.149  0.1004 -0.2840  0.1106
80638W        W23551  14.863   7.454   4.609 -0.0660  0.0274  0.0823
80639W        W23552   3.282  16.382   8.242 -0.0694 -0.0376 -0.3219
80640W        W23553  10.827  14.053  29.703 -0.0773  0.0847 -0.0033
80641W        W23554   5.937  14.779   8.083 -0.1944 -0.0352 -0.1542
80642W        W23555  14.077   8.004   0.768 -0.3113  0.2561 -0.0330
80643W        W23556   8.842   7.861   6.290 -0.0428  0.1059  0.4456
80644W        W23557  11.566  10.316  10.253 -0.3764 -0.1864 -0.0195
80645W        W23558   9.534  17.990   2.208  0.3941  0.2928 -0.3724
80646W        W23559   1.643  16.121  29.411 -0.0423 -0.2447  0.1558
80647W        W23560   4.202  17.899  28.193 -0.2804 -0.1255  0.1243
80648W        W23561   6.623  15.580  22.322  0.0942 -0.1531 -0.1479
80649W        W23562   6.429  11.156   2.008  0.1603 -0.0949 -0.4557
80650W        W23563   4.417  10.227  29.648 -0.1477 -0.1938 -0.2921
80651W        W23564   3.620  13.084   6.907  0.1562  0.2562 -0.2319
80652W        W23565   0.981  16.989   3.314 -0.1038 -0.1951 -0.1214
80653W        W23566  14.073  16.352  27.782  0.0567  0.3127 -0.1586
80654W        W23567   2.378   6.557   6.483  0.2163 -0.0478 -0.0880
80655W        W23568  17.867  24.348   8.799 -0.4752  0.2047 -0.0734
80656W        W23569  19.742  18.586   2.441 -0.1590  0.0516 -0.2420
80657W        W23570  12.518   9.920   2.013  0.0338 -0.2675 -0.0732
80658W        W23571   6.860  18.294   4.331  0.4837 -0.1991  0.3479
80659W        W23572  24.002  13.823   4.880 -0.2190 -0.2662 -0.2501
80660W        W23573   6.827   4.910  29.711 -0.0071  0.0008  0.0164
80661W        W23574   0.857  12.626  27.254 -0.2506 -0.0968  0.2168
80662W        W23575  13.837  15.756   4.796  0.2098 -0.0015  0.1611
80663W        W23576   1.080   7.567  20.585 -0.2014 -0.3043  0.1497
80664W        W23577  10.564   6.823  22.398  0.2529 -0.1830  0.0104
80665W        W23578   3.640   8.000  25.973 -0.0044 -0.1282  0.1184
80666W        W23579  15.046  14.811   4.589  0.0233 -0.1568  0.3419
80667W        W23580  12.083  17.797   0.055  0.1301 -0.1231 -0.3601
80668W        W23581  34.286   9.338   7.316  0.0668  0.1435 -0.2341
80669W        W23582   3.392  16.339  24.086  0.0724 -0.3262  0.1950
80670W        W23583   7.562  10.548   4.794 -0.0581  0.0780  0.0445
80671W        W23584  12.259  14.592   7.732  0.2676 -0.1672  0.1795
80672W        W23585   2.588  17.500   5.746  0.2547  0.2262  0.0290
80673W        W23586  11.315  11.225   7.404 -0.4461  0.1918 -0.1656
80674W        W23587   5.272   6.622   4.104 -0.2749 -0.0026  0.2170
80675W        W23588  10.535   6.697  29.203 -0.0085 -0.3596  0.0776
80676W        W23589  12.472  18.454   8.841 -0.0365 -0.1320  0.0579
80677W        W23590   8.808  14.245   0.436  0.4164  0.2561  0.0540
80678W        W23591  14.841  10.717   8.763  0.1417  0.0012  0.3420
80679W        W23592  12.553   7.566   7.662 -0.0589  0.1400 -0.1639
80680W        W23593   8.204   8.748   7.421  0.0036  0.0695  0.3837
80681W        W23594  13.621   9.082  28.850 -0.3640 -0.0796 -0.1619
80682W        W23595   0.888  11.304   9.219  0.0192 -0.0167  0.0275
80683W        W23596   8.907  25.620   8.411  0.2721  0.2174 -0.1021
80684W        W23597  17.329   4.398   9.312  0.0754  0.1819  0.0775
80685W        W23598  26.710   3.039   3.269 -0.1366 -0.1228  0.1121
80686W        W23599  11.655  23.106   5.135  0.0258 -0.0893  0.0818
80687W        W23600  16.344  11.988   6.001  0.2219  0.1723  0.0135
80688W        W23601  27.280   7.643   7.109 -0.3772 -0.0628 -0.1439
80689W        W23602  14.933  12.189   7.267  0.0310 -0.0205  0.1037
80690W        W23603   4.731   2.556   6.652 -0.0164  0.2275 -0.0493
80691W        W23604   7.209   1.581   0.321 -0.0195 -0.1235 -0.0596
80692W        W23605  31.935   7.069  25.422 -0.2298  0.3183 -0.2879
80693W        W23606  10.515  24.460   3.878 -0.1406  0.1207  0.1437
80694W        W23607   9.522   8.255   5.177 -0.2928  0.1523 -0.2584
80695W        W23608   0.560   8.292   6.617 -0.0115  0.1478 -0.1130
80696W        W23609   7.440  17.530   7.262  0.2781 -0.0729  0.1205
80697W        W23610   4.787  11.820   3.333  0.2223 -0.0700 -0.0745
80698W        W23611   4.412  26.297   5.463  0.0860  0.0590  0.1897
80699W        W23612   7.344  14.547   6.073 -0.0186  0.2420  0.3819
80700W        W23613   8.591   2.849  10.494  0.2049  0.1634 -0.1051
80701W        W23614  26.291  14.810   3.045 -0.0069 -0.1713 -0.0623
80702W        W23615  14.465   6.344   8.231 -0.3404  0.1392  0.3048
80703W        W23616  18.265  21.357  29.239  0.0507 -0.0018 -0.0247
80704W        W23617  10.060   8.421  22.145 -0.0892 -0.0991  0.7912
80705W        W23618   8.409  11.707   7.307 -0.0155 -0.0439  0.0591
80706W        W23619   8.481  12.890   9.824  0.0597 -0.2081 -0.1364
80707W        W23620  11.773   9.581  27.653  0.5422 -0.0351  0.0666
80708W        W23621   3.555   4.745   2.060  0.1835 -0.2633  0.1270
80709W        W23622   8.523  17.208   8.020 -0.0759  0.0095 -0.0711
80710W        W23623   4.847  34.193   8.136  0.2190  0.3030 -0.0548
80711W        W23624  11.348  10.320   8.351  0.1286  0.2409  0.1358
80712W        W23625   4.677  21.358  26.956  0.1784 -0.0729 -0.2323
80713W        W23626  14.604  18.168  26.928 -0.0919 -0.2656  0.2165
80714W        W23627  13.828   7.767  10.112 -0.0308  0.4128 -0.0366
80715W        W23628  17.111   3.778   2.108  0.0710 -0.1451  0.2164
80716W        W23629   8.987  14.781   6.938  0.0094  0.1032  0.1753
80717W        W23630  10.591   6.884   1.886  0.1143  0.1338 -0.0539
80718W        W23631   8.317   4.621   8.450  0.2112 -0.1720  0.0164
80719W        W23632  12.303   9.097   8.449  0.1614 -0.1060 -0.3053
80720W        W23633  11.365   9.382   6.735  0.0384 -0.2712  0.0294
80721W        W23634   0.965   4.865   3.726  0.0463 -0.0734 -0.3126
80722W        W23635   6.403   8.272  10.104  0.0148 -0.2900 -0.1189
80723W        W23636   5.544  33.333   0.599 -0.0693 -0.1090 -0.0569
80724W        W23637   0.581   9.371   8.709 -0.0483  0.0696  0.1917
80725W        W23638   7.051   3.932  26.371 -0.1583 -0.0322 -0.0161
80726W        W23639  13.733  12.750  22.909 -0.1988  0.0249 -0.2654
80727W        W23640  25.097   8.328   6.773  0.1489  0.2133 -0.0675
80728W        W23641   8.506  18.163  23.697 -0.1236 -0.1502  0.1210
80729W        W23642  29.780  17.022  28.429  0.1382 -0.1376 -0.3618
80730W        W23643   9.096  19.547  18.572  0.1624 -0.0950 -0.1167
80731W        W23644  17.243  23.139   4.560  0.2717 -0.1709 -0.1051
80732W        W23645  10.729  23.150  28.451  0.1976  0.0890  0.2785
80733W        W23646  11.833  24.076   8.851 -0.0819  0.0862  0.1295
80734W        W23647  10.498  11.078   6.805 -0.0719 -0.1358  0.2452
80735W        W23648   9.237  29.733   0.127 -0.0854 -0.0635  0.1122
80736W        W23649   2.050   8.747  29.028 -0.3525  0.0590  0.3068
80737W        W23650  31.518  19.081   1.031 -0.0778  0.2028 -0.0792
80738W        W23651   8.010  11.750   3.107  0.1367  0.4832 -0.0868
80739W        W23652  12.810   9.317   7.030 -0.0328  0.1765  0.0391
80740W        W23653   8.958  15.636   6.047  0.3442 -0.2776  0.1353
80741W        W23654   4.616  16.638   8.506 -0.0100 -0.0015  0.0651
80742W        W23655  15.920  13.457   5.691  0.2720 -0.0720 -0.0539
80743W        W23656   6.441   4.320   1.503  0.0704  0.0500 -0.0983
80744W        W23657   3.375   8.454  26.043 -0.1859  0.0990 -0.2743
80745W        W23658   7.508   7.506  12.920  0.0027  0.0376 -0.0701
80746W        W23659   9.383  19.896   8.786  0.1342  0.2352  0.1697
80747W        W23660  13.596  10.741   8.863 -0.1565  0.3308 -0.2956
80748W        W23661   3.500  19.423  28.280  0.2162  0.4695  0.0876
80749W        W23662  13.408  23.133   9.061  0.1730  0.1324  0.1687
80750W        W23663  10.399  14.499   3.705 -0.1649  0.0869  0.0262
80751W        W23664  15.532  13.901   1.346 -0.1348  0.0172 -0.3000
80752W        W23665   3.980  17.540   4.616 -0.1110 -0.0972 -0.2252
80753W        W23666  10.892  17.720   2.837  0.0082  0.1285  0.3614
80754W        W23667   7.772  18.684   7.618  0.3386 -0.2527 -0.1840
80755W        W23668   3.209  14.604   7.671  0.0129  0.1162 -0.1760
80756W        W23669   2.697   8.295   8.845 -0.1608  0.1301 -0.2215
80757W        W23670   1.543   9.021  27.127 -0.0470 -0.0894 -0.1218
80758W        W23671  30.213  20.281  24.059  0.2450 -0.2534  0.1311
80759W        W23672  14.053  16.800  25.618  0.0785  0.1576  0.2209
80760W        W23673   5.645  21.949   9.958  0.1862 -0.3334 -0.0222
80761W        W23674  11.680  11.760   1.042 -0.0857 -0.0535 -0.0199
80762W        W23675   9.482  14.078  26.600  0.1168 -0.0024 -0.2690
80763W        W23676   9.587  21.030   0.627  0.2651 -0.2590  0.1628
80764W        W23677   0.034  17.434   0.889  0.0099  0.0036 -0.0168
80765W        W23678   8.630  23.611   8.216  0.2271  0.1262  0.0138
80766W        W23679   5.014  15.983   7.647 -0.1237 -0.0819  0.0343
80767W        W23680   5.176   3.897   5.122  0.1674  0.0612  0.2372
80768W        W23681   2.884   9.093  11.775 -0.0697 -0.0104  0.1599
80769W        W23682   5.902  10.596   4.286 -0.2304 -0.0553  0.1349
80770W        W23683  10.275  24.802  29.346 -0.2900  0.2651  0.0174
80771W        W23684   5.452   9.546   2.915  0.0765  0.1102  0.4960
80772W        W23685   5.055   9.374  10.808  0.2668 -0.2736 -0.3406
80773W        W23686   6.466  18.454   1.801  0.1092 -0.3538  0.1757
80774W        W23687   3.134  27.603   1.292  0.1544 -0.2505 -0.6614
80775W        W23688   9.513  32.446   2.024  0.1577  0.0259  0.3012
80776W        W23689  31.557   7.801   6.032  0.1368  0.2963 -0.0311
80777W        W23690  14.566   9.412   3.889 -0.1849 -0.2364 -0.3567
80778W        W23691   8.898   2.164   9.938 -0.1729  0.0764  0.0147
80779W        W23692  12.972  11.106   1.303 -0.1869  0.1629 -0.1689
80780W        W23693   4.474   7.058   1.863  0.0242  0.1610  0.0244
80781W        W23694   5.588   9.332  10.173 -0.0471  0.0002  0.2364
80782W        W23695  12.828   5.448   9.770 -0.0963 -0.2299 -0.0317
80783W        W23696   3.806  12.334  11.364  0.1324  0.0571  0.0414
80784W        W23697  16.140  15.256   4.312 -0.1328 -0.0523  0.1231
80785W        W23698   3.938  16.691  29.607  0.0080  0.1427 -0.1440
80786W        W23699  30.194   8.486  24.194 -0.0452 -0.0109 -0.1595
80787W        W23700   2.972  14.317  21.076  0.1441  0.1975  0.3276
80788W        W23701  14.856  14.026  24.011  0.2523  0.0975 -0.0596
80789W        W23702  10.699  22.792   4.659 -0.0240 -0.1779  0.1232
80790W        W23703  11.236  17.132   8.188  0.1624  0.1329 -0.0026
80791W        W23704   3.855  16.002   2.400 -0.0473 -0.2374 -0.1690
80792W        W23705   7.139  14.220  26.102  0.0509  0.2376  0.0366
80793W        W23706  14.730  15.000   5.341  0.1602  0.1745 -0.0386
80794W        W23707  12.220  14.288   2.655 -0.0871 -0.0338  0.1469
80795W        W23708   9.441   4.635   1.949  0.2951 -0.0364 -0.1780
80796W        W23709   5.682   5.131   2.389 -0.1607  0.0400  0.2519
80797W        W23710   1.887  11.638  20.018  0.0781  0.2549  0.1670
80798W        W23711  16.798  14.069  25.373 -0.1413 -0.2682  0.2640
80799W        W23712   6.810  18.574  25.963 -0.1041 -0.0075  0.2047
80800W        W23713  17.503   9.627   4.215 -0.2681 -0.1489 -0.0002
80801W        W23714  10.195   7.449   3.549 -0.0570 -0.0246  0.1368
80802W        W23715  33.772  27.833  26.433 -0.3031 -0.2221  0.0170
80803W        W23716  13.201  11.122   1.731 -0.0103 -0.0581  0.0599
80804W        W23717   8.197   9.000   9.378 -0.0726  0.1120 -0.2333
80805W        W23718  13.173  18.315  23.132 -0.1310  0.1898 -0.0721
80806W        W23719   8.737   2.512   9.584  0.1784  0.0841 -0.0798
80807W        W23720  26.482  18.263  29.048 -0.2557 -0.1056  0.1171
80808W        W23721  12.375  18.926   7.899  0.1959  0.0765  0.5020
80809W        W23722  15.492  20.306  29.408 -0.0640  0.2092 -0.0703
80810W        W23723   9.481   1.077  25.683  0.0349  0.1555  0.0952
80811W        W23724   6.084  12.015   6.630 -0.0526 -0.0089 -0.0607
80812W        W23725   4.855   4.289   8.095  0.1658 -0.0474  0.0544
80813W        W23726   4.386  15.593   8.422 -0.1432 -0.0884 -0.0793
80814W        W23727   2.250  12.729   7.857  0.0647 -0.0070  0.1283
80815W        W23728  32.806   5.830  23.534 -0.0821 -0.0749 -0.1798
80816W        W23729  11.007   5.849   6.621  0.2242 -0.0095 -0.1752
80817W        W23730   4.380  21.876   2.536 -0.0923  0.0057  0.0741
80818W        W23731   6.530   8.119  21.924 -0.0402 -0.2781  0.2812
80819W        W23732  15.344  20.320  28.194  0.0115  0.3276 -0.1036
80820W        W23733  10.141   9.563   6.393 -0.0559  0.0508  0.0566
80821W        W23734  10.545  13.894   5.725  0.2284  0.2294  0.3266
80822W        W23735  23.672   7.170   2.998 -0.1959  0.3750 -0.1959
80823W        W23736  10.281  15.413  29.121  0.1359 -0.1573 -0.0877
80824W        W23737  12.853  10.969  28.005 -0.2595 -0.0291 -0.0881
80825W        W23738  10.778   6.715  28.721  0.1190  0.0834 -0.2030
80826W        W23739  11.592  21.111   4.683 -0.2398 -0.0673 -0.2333
80827W        W23740  16.619  13.760   3.769  0.0966 -0.0933  0.3368
80828W        W23741   4.518  13.844   7.154  0.2678 -0.1236  0.0599
80829W        W23742   5.858  14.658  24.278  0.0254 -0.0709 -0.1647
80830W        W23743   9.767  14.443   2.553  0.0015 -0.1311 -0.0464
80831W        W23744   8.581  16.094   8.765 -0.1441 -0.0910 -0.4305
80832W        W23745  31.507  18.488   8.148 -0.1216 -0.0397 -0.1837
80833W        W23746  14.829   8.538   5.201 -0.1269 -0.2395  0.1080
80834W        W23747   9.552   9.022   3.249 -0.0032  0.0112 -0.1648
80835W        W23748  18.452  17.190  27.091 -0.1561  0.0660  0.1362
80836W        W23749   7.328   8.224   9.649  0.0913 -0.0540  0.0313
80837W        W23750   4.450  11.356   9.103 -0.0646  0.3114 -0.1483
80838W        W23751   1.657  16.315  22.651  0.0985  0.4131  0.1904
80839W        W23752   4.617   0.495   9.770 -0.0749  0.2945 -0.0695
80840W        W23753   1.683  21.067   0.662 -0.0111 -0.1448 -0.0146
80841W        W23754   8.804  15.126   8.756  0.0835  0.0141  0.2575
80842W        W23755  11.743  21.507   2.990  0.3307 -0.0164  0.2288
80843W        W23756  12.513  16.850   8.012 -0.0681  0.0131 -0.2164
80844W        W23757   8.088  14.318   1.051  0.2167  0.0713 -0.2245
80845W        W23758  13.881  13.263  25.742  0.0571 -0.1699  0.0896
80846W        W23759  15.037  24.130   7.149  0.3397 -0.2690 -0.0441
80847W        W23760   7.032   3.789   1.197 -0.1819  0.2069  0.1030
80848W        W23761   5.727  23.695  10.768 -0.0957  0.5954 -0.0944
80849W        W23762  15.381  13.797  27.695 -0.1121  0.1145 -0.1302
80850W        W23763   3.557  13.384   9.574 -0.0915 -0.0223  0.0122
80851W        W23764   9.519  10.480   5.575 -0.0946  0.1028  0.0325
80852W        W23765   1.521  25.466   9.521  0.4819 -0.1460  0.0253
80853W        W23766   1.427  12.158  10.013  0.0378 -0.0172  0.1282
80854W        W23767   7.420   9.451   5.478 -0.2606 -0.0932  0.0445
80855W        W23768   9.279  15.680   1.681  0.0172 -0.0379 -0.1504
80856W        W23769  15.003   2.910  22.131 -0.2435 -0.1293  0.0632
80857W        W23770  32.991  12.640   9.011 -0.0307 -0.1633  0.0543
80858W        W23771   4.108  32.569   4.277 -0.2221  0.0801 -0.3126
80859W        W23772   3.941  17.864   9.604 -0.0982 -0.1106 -0.4035
80860W        W23773  15.854  13.110   6.664 -0.1297  0.0311 -0.0028
80861W        W23774   7.377  31.311   5.673  0.2822  0.2140 -0.1015
80862W        W23775   0.932   7.329  10.875 -0.0151 -0.2577  0.2132
80863W        W23776   2.668   7.450   8.153  0.1566 -0.2214 -0.0377
80864W        W23777  15.078  33.464   8.338 -0.1876 -0.1139  0.0814
80865W        W23778   5.702   6.849   6.288 -0.0417  0.0673  0.3298
80866W        W23779  17.307  16.594   6.458  0.2155 -0.0363  0.0559
80867W        W23780   6.622   9.207   3.402  0.2141  0.2118 -0.2132
80868W        W23781   7.539   6.921  27.472  0.0931  0.0723  0.1987
80869W        W23782   7.945  14.321   7.551 -0.1873 -0.1887 -0.2540
80870W        W23783  15.248  11.243   1.541  0.0820 -0.3038  0.3570
80871W        W23784   7.269  18.490   8.448  0.0803 -0.2995  0.1445
80872W        W23785   2.212   8.281   4.730 -0.0245  0.0375 -0.1641
80873W        W23786  10.069   4.971   5.199  0.0261  0.1489 -0.0468
80874W        W23787   3.349  12.733   7.354 -0.1744  0.2000  0.1971
80875W        W23788   4.409   5.674   3.807 -0.0628  0.1925  0.1462
80876W        W23789  12.592   4.229  11.102  0.1246  0.1386 -0.1985
80877W        W23790  19.077  23.315   3.759 -0.3645  0.2638 -0.0639
80878W        W23791  29.787  10.998   1.073 -0.4486  0.0170  0.1428
80879W        W23792   6.261  16.765   9.726  0.1052 -0.4780  0.1731
80880W        W23793   3.108  15.730   8.843 -0.1718 -0.0703  0.0951
80881W        W23794  15.101  14.576   0.375  0.0469  0.2050  0.0295
80882W        W23795   2.991   7.655   4.937 -0.1687 -0.1564  0.1756
80883W        W23796   8.345  15.773   4.693  0.1103 -0.2357  0.0647
80884W        W23797   1.781  15.187   8.713  0.1523  0.1724  0.2225
80885W        W23798   8.642  14.936  23.431  0.0113  0.1366 -0.1403
80886W        W23799  13.512  15.500   7.225  0.0845 -0.1123 -0.0767
80887W        W23800  15.773  17.149   5.160 -0.1139  0.0167  0.0074
80888W        W23801   7.264   3.035   8.285 -0.1702 -0.1392  0.0477
80889W        W23802   1.136   3.850  10.531 -0.1432  0.1425  0.1912
80890W        W23803   4.719   7.104  12.363  0.1445 -0.0266 -0.1046
80891W        W23804  31.181  24.959   1.046  0.0037 -0.2302  0.0562
80892W        W23805  32.400   4.002  11.874 -0.2599  0.0814  0.0493
80893W        W23806   7.941  27.006   8.181 -0.0191  0.1189 -0.0045
80894W        W23807  10.942   5.208  11.264 -0.0196  0.2292  0.0685
80895W        W23808  10.642  11.231   5.704  0.1893 -0.1972  0.0096
80896W        W23809   6.983  10.097   8.403 -0.3445  0.2088  0.2269
80897W        W23810   7.560   9.335   6.701 -0.0143 -0.1384 -0.0946
80898W        W23811   8.326   2.859  12.624 -0.1727  0.0958  0.1461
80899W        W23812   8.979  18.466   7.975 -0.1758 -0.0109  0.1223
80900W        W23813  16.539  12.500  27.684  0.0651  0.0790 -0.1498
80901W        W23814   4.538   9.030   8.221  0.0270  0.0005 -0.3228
80902W        W23815  14.708   7.859   3.778 -0.2113 -0.2400 -0.1673
80903W        W23816  11.487   0.118  24.180  0.2159 -0.3863  0.0877
80904W        W23817  10.717  15.947  29.762  0.0275 -0.0578 -0.1162
80905W        W23818  10.905  13.214   4.660 -0.1095  0.0557 -0.3299
80906W        W23819   7.268  33.414   6.903 -0.2047 -0.3825 -0.0502
80907W        W23820   7.286  20.046   6.288  0.2968  0.1097  0.0620
80908W        W23821   6.411   6.974   9.363  0.0131  0.1763  0.0418
80909W        W23822   2.543  14.713   6.454 -0.4258  0.2076  0.0347
80910W        W23823   9.323   8.655   9.036 -0.2306  0.1384  0.2028
80911W        W23824   8.907  15.337   1.730  0.0414  0.2016  0.0714
80912W        W23825  12.703  16.824  27.979 -0.0505 -0.0251 -0.2646
80913W        W23826  17.733  15.840   5.761  0.0006 -0.0384  0.0179
80914W        W23827   4.610   9.345  10.281 -0.2182 -0.2401 -0.2685
80915W        W23828   9.576  18.468   3.954  0.1297 -0.3236  0.5186
80916W        W23829   8.361   5.243  29.288  0.1229 -0.0199 -0.1032
80917W        W23830  10.377  20.468   3.182 -0.1217  0.0941  0.0509
80918W        W23831  11.218  33.904   2.142 -0.0294 -0.0442 -0.3981
80919W        W23832  31.023  17.246   2.035 -0.2622 -0.0522 -0.0927
80920W        W23833   6.206   8.748  28.907 -0.0636  0.1658  0.2322
80921W        W23834   1.758   9.832  27.537 -0.1660 -0.2340  0.1531
80922W        W23835  13.284  33.317  11.581  0.1371 -0.2079 -0.0713
80923W        W23836   4.675  19.939   9.148 -0.1712 -0.0495  0.2122
80924W        W23837  34.421  13.601   3.859 -0.1575  0.1794  0.1169
80925W        W23838   2.571  16.557   3.959  0.2523  0.2569  0.2967
80926W        W23839   2.899   2.967   3.031  0.0765  0.0323 -0.2015
80927W        W23840   5.482   4.662   4.977 -0.4375  0.2889  0.1211
80928W        W23841   2.950   7.678   5.923 -0.0059 -0.2027  0.0381
80929W        W23842   4.190   4.444  10.669 -0.1219  0.1695 -0.0712
80930W        W23843  34.210   7.517   0.245 -0.1182  0.0488  0.2321
80931W        W23844   3.706   9.613  10.744 -0.1580 -0.1309  0.2633
80932W        W23845   3.370   8.330   7.838 -0.0519  0.2496 -0.0024
80933W        W23846   5.611  20.992   5.771  0.0393 -0.2255  0.0311
80934W        W23847   0.749  13.424  28.662  0.0552 -0.0810  0.2551
80935W        W23848   7.444  12.549   7.086 -0.2165 -0.1304  0.2556
80936W        W23849  16.506  34.489  10.984  0.0785  0.0885  0.0437
80937W        W23850  29.667  11.237   4.040 -0.2043  0.0146 -0.0438
80938W        W23851   9.243  26.820   7.645 -0.1679  0.0577  0.1226
80939W        W23852   3.472  17.976  26.324  0.3875  0.4151  0.0764
80940W        W23853   1.827  18.825   5.869  0.1733 -0.0841 -0.0588
80941W        W23854  10.957  20.403   7.087  0.0108 -0.0138 -0.0049
80942W        W23855   9.353   5.433   3.659  0.0777  0.2375 -0.1344
80943W        W23856   3.375   6.374  13.025  0.1484  0.3008 -0.0660
80944W        W23857   2.920   9.056  29.090  0.0973 -0.1583 -0.0335
80945W        W23858  18.506  14.960   2.324 -0.1454 -0.1374  0.1408
80946W        W23859   5.636  23.181   6.902  0.4451  0.0480 -0.0720
80947W        W23860   4.909  19.353   5.713  0.1248  0.2014  0.0798
80948W        W23861  12.326  14.899   7.315  0.2742  0.1157 -0.1892
80949W        W23862   6.332   6.896   8.837 -0.1457  0.3984  0.2058
80950W        W23863  11.178   8.985   9.161  0.2640 -0.0126 -0.0462
80951W        W23864  29.812  10.770   8.743 -0.0993 -0.0232 -0.3480
80952W        W23865  32.033  11.021   0.315  0.0545  0.0517 -0.1952
80953W        W23866  10.625  12.411   7.691  0.0523  0.0338  0.2665
80954W        W23867   5.331  10.629   5.224 -0.3208 -0.1932  0.4222
80955W        W23868   4.859   4.379   5.003 -0.1389 -0.0478 -0.1671
80956W        W23869   6.797  27.713   2.295 -0.1073 -0.3001  0.0260
80957W        W23870   7.932  12.963   1.725  0.1812 -0.1228  0.2097
80958W        W23871   2.872  19.024   9.221  0.2819  0.2259  0.1333
80959W        W23872   8.326   9.270   4.339  0.0285 -0.0806 -0.0695
80960W        W23873   9.033  13.765   5.605 -0.2249 -0.2390 -0.0038
80961W        W23874  23.226  20.048   0.199  0.0931 -0.0095 -0.0387
80962W        W23875  31.603   1.478   8.929  0.0007 -0.1356 -0.0520
80963W        W23876  14.585  13.809   2.631  0.0212 -0.0844 -0.0814
80964W        W23877  15.045  21.654   2.191 -0.1234 -0.0574  0.1187
80965W        W23878   5.928   1.546  10.239 -0.0093  0.0880 -0.1368
80966W        W23879  13.684   9.986   5.290  0.1301 -0.0187  0.4014
80967W        W23880  11.130  15.542  29.197 -0.0574  0.1781  0.0662
80968W        W23881   8.948   3.960   9.205  0.0329 -0.1586 -0.1797
80969W        W23882   7.031  13.733   3.084 -0.1727  0.0801 -0.0805
80970W        W23883  11.033  11.968   8.882  0.0125 -0.2508 -0.0150
80971W        W23884  23.694  14.199   5.565  0.0714 -0.2488  0.0430
80972W        W23885   8.874  22.885   9.757  0.3365  0.0481  0.0833
80973W        W23886  11.031   9.182   7.043  0.0421 -0.1694  0.2136
80974W        W23887   8.162  20.673   8.425  0.1871 -0.3234 -0.0949
80975W        W23888   8.692   8.488   6.780 -0.0429  0.0340  0.2178
80976W        W23889  26.009  34.359   5.124  0.1320  0.0565 -0.2328
80977W        W23890  10.334  19.468  21.994  0.1594  0.2273 -0.3180
80978W        W23891   7.218  15.184   2.175  0.2836  0.1556 -0.1177
80979W        W23892   6.152  25.939   5.617  0.2821  0.2830  0.3099
80980W        W23893  14.803  18.616   2.124  0.1308  0.2047 -0.1783
80981W        W23894  15.850  14.828   3.500  0.0359  0.0730  0.0201
80982W        W23895  33.640  11.357  10.254  0.0482  0.0447  0.2926
80983W        W23896  14.931  31.209   9.021  0.3638 -0.0663 -0.0735
80984W        W23897   7.040   4.580  11.562 -0.0027 -0.2300  0.2586
80985W        W23898   7.840   9.343   9.253 -0.0601 -0.1170 -0.0045
80986W        W23899   3.348  14.575   3.956  0.1894 -0.0428 -0.0129
80987W        W23900  15.760  14.711  29.579 -0.0268  0.2210  0.0531
80988W        W23901  14.292  23.533   6.212  0.3286  0.1206  0.0044
80989W        W23902   7.382   5.172  28.158  0.0420  0.0146  0.2208
80990W        W23903  11.569   1.042   3.854 -0.2795 -0.1039 -0.0753
80991W        W23904  32.159   8.772   6.189 -0.3619  0.3169 -0.0520
80992W        W23905   7.031  15.811   4.717  0.1449  0.0553  0.1006
80993W        W23906   1.603   2.577   8.613 -0.0867 -0.1995 -0.0421
80994W        W23907   8.150   5.787   9.604  0.1009 -0.0686 -0.1436
80995W        W23908   8.256  12.774   4.091  0.1181 -0.0985 -0.4341
80996W        W23909   3.642  13.855   9.352 -0.0062  0.2149  0.1748
80997W        W23910  24.469  14.996   8.270 -0.1702 -0.3283  0.1658
80998W        W23911   6.158  10.771   9.300 -0.1338 -0.0531 -0.2854
80999W        W23912  14.676   4.321  10.693  0.2440 -0.1874 -0.2237
81000W        W23913   5.513   2.415   5.414 -0.1763 -0.0072 -0.0123
81001W        W23914   1.517  15.825   9.978 -0.2408 -0.3627 -0.1216
81002W        W23915   7.153  21.582  10.006 -0.3464  0.1408  0.0620
81003W        W23916   5.209   8.122   5.909  0.3351 -0.0636  0.1836
81004W        W23917   7.409   8.040  11.663 -0.0252 -0.2094  0.1487
81005W        W23918  33.495   0.130  28.960 -0.0677 -0.0699  0.0590
81006W        W23919  19.983   8.562   6.098 -0.1282  0.2823 -0.2499
81007W        W23920   0.321   8.969  10.269  0.0792  0.0639  0.0008
81008W        W23921   3.201  12.108  11.317  0.1158  0.0296 -0.3965
81009W        W23922  15.216  10.185   3.924 -0.1382 -0.3288 -0.2399
81010W        W23923  11.271   9.360   4.032 -0.0034  0.2723 -0.0085
81011W        W23924  11.388  18.822   7.852 -0.1411  0.0653  0.1923
81012W        W23925   5.852  12.133   8.504  0.0265  0.0736  0.1984
81013W        W23926   1.382  13.736   9.772 -0.2418 -0.4069  0.1413
81014W        W23927  17.771   3.650   9.631  0.2250 -0.2220 -0.2031
81015W        W23928   8.017  25.319   8.170  0.3382  0.2141 -0.0748
81016W        W23929   2.793  18.264   6.659 -0.0462  0.1084  0.1408
81017W        W23930   6.928   4.545  10.997 -0.0625 -0.1817  0.0909
81018W        W23931   9.196  12.218   4.926  0.0249 -0.1807 -0.2728
81019W        W23932  11.127  12.956   9.377  0.0437 -0.1620  0.1025
81020W        W23933   6.309  11.586   6.588 -0.3598  0.3469 -0.1076
81021W        W23934   1.944   2.043  11.561  0.1035 -0.0569  0.0242
81022W        W23935  15.577   9.118   6.845 -0.0936 -0.1489 -0.3171
81023W        W23936   7.698   5.830   9.274  0.0786  0.2193  0.1908
81024W        W23937   4.135   3.386  11.776  0.1593  0.1303  0.0177
81025W        W23938   5.848   8.713   1.969 -0.1181  0.1692  0.1349
81026W        W23939   5.955  16.025   9.633 -0.2312 -0.0022  0.0284
81027W        W23940  14.565   8.755   5.574  0.2025 -0.1586  0.2367
81028W        W23941   5.752  18.109   0.808  0.1042 -0.2988  0.0258
81029W        W23942   4.492   2.563  10.750 -0.0667 -0.0446 -0.1955
81030W        W23943   9.789  10.265  10.429 -0.1996  0.4047 -0.1636
81031W        W23944  13.608   1.569   7.396 -0.1516 -0.2708  0.0519
81032W        W23945  14.201   8.551   3.883  0.1156 -0.2107  0.1339
81033W        W23946  11.641   9.410   6.310  0.0747  0.1003  0.1335
81034W        W23947   0.833  12.537   7.259 -0.2718  0.0621  0.2190
81035W        W23948   0.240  11.814   4.181 -0.0862 -0.0340  0.2670
81036W        W23949   8.402  22.514  10.034 -0.3744  0.2483 -0.1258
81037W        W23950  25.618  14.708   3.945 -0.1252  0.0718  0.0188
81038W        W23951   1.451   6.720   5.933  0.0960 -0.5634 -0.0464
81039W        W23952   3.674   3.227   3.422  0.2223 -0.0071 -0.0036
81040W        W23953   1.036  10.015   4.335 -0.5338  0.0082  0.0576
81041W        W23954  34.437   9.831   4.896  0.0136 -0.1075 -0.0465
81042W        W23955   6.113   0.370  28.509  0.3460 -0.2246  0.2305
81043W        W23956  10.398  13.296   8.019 -0.0395  0.2083 -0.0092
81044W        W23957  14.316   4.234   3.190  0.0412 -0.5547  0.4186
81045W        W23958   0.831   9.767   8.303 -0.1832 -0.1322  0.0245
81046W        W23959   8.698   4.982  10.624  0.1020  0.3186 -0.1874
81047W        W23960  10.540  17.452   3.785  0.0303  0.3617 -0.1326
81048W        W23961   7.691  20.420   6.205  0.0132  0.0031  0.0359
81049W        W23962   1.043  11.054   6.095 -0.1736 -0.1343  0.0489
81050W        W23963   9.748  15.245   4.432  0.4227 -0.1327 -0.3284
81051W        W23964  15.800  13.873   2.404 -0.0012 -0.1907 -0.1017
81052W        W23965   2.374   5.100   5.358  0.2859 -0.0329  0.2966
81053W        W23966   3.475   7.893   4.808 -0.1698 -0.0411 -0.3212
81054W        W23967  10.688  11.614   9.083 -0.2805 -0.2231  0.2267
81055W        W23968   8.724  11.218   2.173  0.0234  0.1331 -0.0009
81056W        W23969   9.309   4.616   9.421  0.0450 -0.0554  0.0623
81057W        W23970   1.972  14.374   9.877  0.1932 -0.1656  0.0326
81058W        W23971  11.258  22.141   4.805 -0.0997 -0.0359 -0.0699
81059W        W23972   6.834   9.928  24.869 -0.1352  0.2271 -0.2324
81060W        W23973  13.394  12.941   0.715 -0.1556  0.4107 -0.1970
81061W        W23974  19.222   5.022   3.885  0.0010  0.0598 -0.0861
81062W        W23975  15.941  23.724  29.644 -0.0462  0.0166 -0.1539
81063W        W23976   3.612   9.981   4.176  0.0178 -0.0015  0.0125
81064W        W23977   7.280  14.836   8.162  0.1256 -0.0081 -0.1564
81065W        W23978  11.001  17.844  24.918 -0.0148  0.0622 -0.2975
81066W        W23979   8.050   5.860  11.755 -0.0613  0.0308 -0.0626
81067W        W23980   2.414  12.819   1.659 -0.1300  0.0278  0.3177
81068W        W23981  11.681   6.800   9.238 -0.1317  0.0549  0.0073
81069W        W23982   8.089   8.076   9.227  0.0172 -0.2644  0.0387
81070W        W23983   5.525   8.492   5.004 -0.1056 -0.0567  0.1215
81071W        W23984  11.894   9.681   7.989 -0.0611 -0.0476  0.3008
81072W        W23985   0.486  10.770  11.051 -0.1050 -0.0060  0.1137
81073W        W23986   6.910  21.572   0.765 -0.0905  0.1434 -0.1090
81074W        W23987   6.596  18.891  28.486 -0.2231  0.2198 -0.1578
81075W        W23988  34.225   8.262   7.039  0.2416 -0.1564  0.2418
81076W        W23989  13.823   8.071   8.164 -0.1162  0.2495  0.2806
81077W        W23990   7.718   0.938  12.444 -0.1097  0.0867 -0.0756
81078W        W23991  10.635   7.951   9.650 -0.1148 -0.1254 -0.2957
81079W        W23992  14.584  16.561  22.833  0.1870 -0.2735  0.1800
81080W        W23993  12.255  10.660  27.842  0.0836  0.2098 -0.2414
81081W        W23994   3.525  14.086   8.378 -0.1021  0.1086  0.2214
81082W        W23995   7.699  13.170   6.541  0.1948 -0.0631  0.0408
81083W        W23996  27.880  17.757   4.868 -0.1110  0.0374  0.3105
81084W        W23997   4.522  12.165   6.610  0.1950  0.0398 -0.3567
81085W        W23998   9.064   4.605  10.553  0.1667 -0.0723  0.0249
81086W        W23999   6.399   3.964   3.675 -0.1516  0.0722  0.3607
81087W        W24000  14.995   1.531   9.183  0.1325 -0.0334  0.0761
81088W        W24001  15.368   3.070  29.049 -0.2514  0.1942 -0.0811
81089W        W24002   5.247  16.801   8.546 -0.1781  0.2989 -0.0225
81090W        W24003   6.492  13.616   9.714  0.2265  0.1642 -0.1121
81091W        W24004  31.473  17.555   8.403 -0.5763  0.2393  0.1333
81092W        W24005   4.896  21.853   9.345  0.0663 -0.2475  0.2154
81093W        W24006   3.547   7.606   3.915  0.1260  0.1805  0.2430
81094W        W24007  15.585  13.311   0.910 -0.0858  0.2111  0.3257
81095W        W24008   0.061   5.656  28.181  0.0192 -0.0284  0.0380
81096W        W24009  10.740   6.684  10.353  0.0726  0.1366 -0.4355
81097W        W24010   8.424  12.607   8.593  0.0043  0.0976  0.1388
81098W        W24011  13.747  18.692   8.616  0.1589  0.0113 -0.0277
81099W        W24012   8.230   9.275   8.381  0.1452  0.1490  0.0965
81100W        W24013   3.313   3.965  11.620  0.1821  0.1764  0.0431
81101W        W24014  11.739  15.225   2.849  0.0340 -0.1507  0.1004
81102W        W24015   7.248   8.423  11.186 -0.0735  0.1387 -0.1979
81103W        W24016   0.242   5.967   8.948  0.0817 -0.3577  0.1663
81104W        W24017  14.884  17.403   3.876 -0.0441 -0.1193 -0.1600
81105W        W24018   9.025   5.683   6.676 -0.0476 -0.1802  0.2253
81106W        W24019  10.654  12.264   4.348  0.0298 -0.1356  0.1368
81107W        W24020  12.605   9.439   4.682  0.0031  0.1006 -0.3254
81108W        W24021   7.084  13.805   6.584 -0.4159  0.3917  0.3477
81109W        W24022   4.318  14.069  10.036  0.0486 -0.2416 -0.4610
81110W        W24023  29.496   4.551   9.944  0.1766 -0.1028  0.0568
81111W        W24024   2.643   9.651  29.718 -0.0122 -0.0484 -0.0839
81112W        W24025  16.136  12.411   5.785 -0.1960 -0.0088 -0.0654
81113W        W24026  30.358   7.273   8.846 -0.4727 -0.1542  0.4298
81114W        W24027  14.234   8.391   8.286 -0.0156  0.2200 -0.4659
81115W        W24028   8.643   5.389   4.737  0.1760  0.1692  0.1591
81116W        W24029  11.988  10.550   1.071  0.1936 -0.0944  0.2511
81117W        W24030   9.800   5.948   9.672  0.1892 -0.0383  0.2266
81118W        W24031   7.840   8.358   6.710 -0.2552 -0.1213 -0.1731
81119W        W24032  11.938   8.147   7.404  0.0200 -0.2053 -0.1752
81120W        W24033  15.266   8.653   2.203 -0.0304  0.1827  0.0381
81121W        W24034   9.425   0.923   8.306  0.4665 -0.0947 -0.0371
81122W        W24035   3.681  26.626   4.999  0.2811  0.3594 -0.2281
81123W        W24036   2.848  12.369   9.349  0.1589  0.4650  0.0496
81124W        W24037   1.391  14.615   9.284  0.0547  0.0877 -0.0215
81125W        W24038   0.188   2.160  11.666  0.0176 -0.1127 -0.0040
81126W        W24039  10.833   2.352   8.556  0.2076 -0.0484 -0.1038
81127W        W24040  12.666   0.615   5.701 -0.0024  0.1699  0.1440
81128W        W24041  17.863   9.982   5.638  0.1622  0.1363 -0.4458
81129W        W24042  32.652   7.715   8.327  0.0733  0.1286  0.2078
81130W        W24043   2.283  11.297   8.582  0.1758 -0.0293  0.0626
81131W        W24044   5.636  12.672   0.135  0.3132 -0.4447  0.0508
81132W        W24045   9.205  26.067   0.714 -0.0257  0.3754 -0.1132
81133W        W24046   4.498  11.783   9.286 -0.2524 -0.1958 -0.1714
81134W        W24047  11.032  31.266   7.944 -0.0211  0.0086  0.0598
81135W        W24048  32.210  14.220   9.201  0.2613 -0.1029 -0.1391
81136W        W24049  16.662  16.898   1.461 -0.0827  0.3651 -0.0823
81137W        W24050   2.660  16.572  23.325  0.0326  0.1017 -0.0074
81138W        W24051   9.908  14.538   3.844  0.1299  0.1470  0.1371
81139W        W24052   8.013  33.823   8.863  0.0205  0.0153 -0.1205
81140W        W24053   4.654  14.023  26.136 -0.0082  0.0215  0.0147
81141W        W24054  17.627   8.554   2.016 -0.2919 -0.1073  0.3305
81142W        W24055  15.278   7.946   3.063  0.2163 -0.1613  0.1146
81143W        W24056   4.002  18.603   2.628 -0.3294  0.1473 -0.0070
81144W        W24057  24.668  17.736  26.836 -0.1438 -0.0521  0.0824
81145W        W24058  10.035  12.977  29.559  0.0265 -0.1438  0.5159
81146W        W24059   6.968  32.652  27.800  0.1851 -0.0934  0.1072
81147W        W24060   3.377  10.301   3.930  0.1667 -0.1887 -0.2437
81148W        W24061   7.573  28.076  10.587  0.1299  0.0205 -0.1731
81149W        W24062   7.035  14.035   9.446  0.0788 -0.1719  0.0095
81150W        W24063  10.783  14.517   5.486 -0.3541 -0.0689  0.2153
81151W        W24064  15.902  21.888   5.351 -0.0438 -0.2279  0.3008
81152W        W24065  20.425  18.277   4.274  0.1184 -0.3311 -0.0561
81153W        W24066  12.266  13.068   5.477  0.0430 -0.0858 -0.1071
81154W        W24067  18.535  16.233   1.803 -0.1905 -0.0308 -0.1947
81155W        W24068  13.526  24.058   9.254  0.0040 -0.0297 -0.1584
81156W        W24069  17.828  12.818   5.252  0.1060 -0.1076 -0.0646
81157W        W24070   3.533   9.393   7.625  0.2453 -0.3154  0.1357
81158W        W24071   6.326  17.633  26.660  0.0380 -0.0164  0.1924
81159W        W24072   3.077  15.144   5.779 -0.0064 -0.2825  0.3306
81160W        W24073   0.740   0.608   7.634  0.1846  0.4669 -0.1034
81161W        W24074   5.784   6.250   3.683 -0.0250 -0.1103 -0.0277
81162W        W24075  15.733  18.462   0.194 -0.2240  0.2372 -0.1492
81163W        W24076   7.725  13.015  28.141 -0.2033  0.2419 -0.0333
81164W        W24077   7.642  24.867   9.246  0.1174  0.0051  0.0192
81165W        W24078  14.385  13.289   0.437 -0.0310 -0.0568  0.0309
81166W        W24079  10.469  19.040  21.039  0.2325 -0.0933 -0.0603
81167W        W24080  14.921  13.924  28.527  0.0624  0.1079  0.1001
81168W        W24081   3.567  23.905  22.310  0.0243 -0.2524 -0.0917
81169W        W24082  34.032  23.798  27.015  0.0437  0.1262  0.1065
81170W        W24083   2.725   7.921  28.081 -0.3409  0.3530 -0.1599
81171W        W24084   6.719  23.763   1.695 -0.4621  0.1378 -0.0339
81172W        W24085  21.018  22.093  17.645 -0.1152 -0.2534  0.1501
81173W        W24086   8.301   6.192  27.621 -0.0667  0.0076  0.0926
81174W        W24087  14.446  18.607  26.054  0.0425 -0.2126  0.0188
81175W        W24088   6.995  15.954  10.259  0.2518 -0.1858  0.0483
81176W        W24089   5.530  20.243   2.061 -0.1306  0.0330  0.0146
81177W        W24090   4.420   7.599  10.477  0.0679  0.0783  0.2113
81178W        W24091  13.675  20.870   5.357 -0.0837 -0.0865 -0.1910
81179W        W24092   2.107  10.152  27.309  0.2256  0.1025 -0.2435
81180W        W24093  16.183  10.968   4.353  0.2462 -0.1306  0.2514
81181W        W24094  34.059  18.857   0.969 -0.0496 -0.2289  0.0061
81182W        W24095  25.512  12.369   2.523 -0.0897  0.0219  0.0450
81183W        W24096  12.663  11.678   6.652  0.2347 -0.1239 -0.2109
81184W        W24097  22.649  10.901   2.597 -0.1908 -0.1460 -0.2209
81185W        W24098   4.097  19.109  27.279  0.1081  0.1371 -0.3570
81186W        W24099   2.972  20.344  25.946  0.0080 -0.0563 -0.0328
81187W        W24100  12.793  13.751   4.127 -0.1539 -0.2415 -0.0336
81188W        W24101   6.894   6.447  10.952  0.1906  0.2301  0.0069
81189W        W24102  20.747  10.717   2.442  0.2896 -0.0854 -0.0285
81190W        W24103   7.214  13.546   0.573 -0.3058  0.4179  0.1923
81191W        W24104   6.882  14.333   1.504 -0.0210  0.1401  0.1478
81192W        W24105   2.557  13.876   9.443  0.0839  0.4128  0.3022
81193W        W24106  12.903   3.627  21.784 -0.0323  0.4262  0.0629
81194W        W24107  16.271  11.038  20.566  0.1801  0.0809  0.0218
81195W        W24108  14.079  16.207   7.434  0.0948 -0.1321 -0.0678
81196W        W24109  12.287  20.363  23.696  0.4585 -0.1142  0.2960
81197W        W24110  16.488   3.965   1.593  0.2458  0.1420 -0.0586
81198W        W24111  32.455   7.339   9.446 -0.1851 -0.0130 -0.1986
81199W        W24112  14.972  13.735   7.514 -0.1457  0.1816  0.5214
81200W        W24113   5.586  18.635   8.090 -0.1516 -0.1810  0.0638
81201W        W24114  10.653  22.716   2.255 -0.1140 -0.0090  0.1468
81202W        W24115   2.878  12.966  10.032 -0.2124 -0.3036 -0.1684
81203W        W24116   4.866  21.701  17.198 -0.0293  0.2017 -0.0949
81204W        W24117   4.444  18.441   0.283 -0.5893  0.2237  0.1718
81205W        W24118   5.267  14.731  18.396  0.0929  0.0169  0.0052
81206W        W24119  15.079  12.833  20.586 -0.0519  0.0118  0.1492
81207W        W24120  13.329  11.835  27.484 -0.0776 -0.2828  0.0335
81208W        W24121  16.690   7.631  21.922 -0.0932 -0.2417  0.2690
81209W        W24122   9.917  13.086   8.787  0.2206 -0.0088 -0.1664
81210W        W24123  12.899  14.293  29.286  0.0968  0.0521 -0.0604
81211W        W24124   3.613  28.583  18.528  0.1905  0.0248 -0.1671
81212W        W24125  22.686  13.647   0.121  0.1126  0.2194  0.0330
81213W        W24126  16.457   2.747  24.959  0.2109 -0.2210 -0.3330
81214W        W24127  12.491  21.629   6.032  0.0698  0.1099  0.1299
81215W        W24128  11.327   9.031   9.692  0.0556 -0.0662  0.3455
81216W        W24129   0.801  34.210   8.583 -0.1457 -0.2285 -0.0472
81217W        W24130  10.439   6.410  25.140 -0.0671 -0.0768 -0.0305
81218W        W24131  10.420  18.268  26.313  0.1214 -0.0840  0.1844
81219W        W24132   1.454   9.985   1.993 -0.0007  0.0653  0.0373
81220W        W24133   9.306  22.264  29.251  0.2043  0.0793 -0.0334
81221W        W24134   0.301  20.655   8.102 -0.2973 -0.1837  0.0883
81222W        W24135   7.564  14.809  28.925 -0.1001  0.0754  0.0016
81223W        W24136   6.785  10.118   3.568 -0.2916  0.1718 -0.0621
81224W        W24137  14.502  24.497  28.527 -0.0289  0.1348 -0.1481
81225W        W24138   9.492  15.752   2.534 -0.1250  0.0840 -0.0916
81226W        W24139  23.112   9.993  29.400  0.1144 -0.1695 -0.0668
81227W        W24140   5.494  14.570   5.486 -0.0304 -0.0413  0.3191
81228W        W24141  12.187  22.366  25.315 -0.1418 -0.0735 -0.0139
81229W        W24142   8.146  33.302  28.838  0.2096 -0.1467  0.0673
81230W        W24143  18.187   8.823   1.256  0.1746 -0.2509  0.0295
81231W        W24144   7.401  18.414  28.961 -0.0734  0.1307 -0.2944
81232W        W24145  12.138  15.423  26.991 -0.0098  0.3892 -0.1203
81233W        W24146   3.574  11.830   8.281 -0.2147 -0.0691  0.2223
81234W        W24147  20.565  15.440  26.801  0.4548 -0.0492 -0.2113
81235W        W24148  17.737  16.553  23.184 -0.0120  0.1364  0.0833
81236W        W24149   5.547   9.008  18.978 -0.0994  0.1428 -0.1157
81237W        W24150   9.536  15.249  21.380 -0.0658  0.0481  0.0529
81238W        W24151   9.858  11.733   6.128 -0.2116  0.1012  0.0120
81239W        W24152  15.140   8.086   5.803  0.0803 -0.0449 -0.1621
81240W        W24153  14.808  17.237  24.645  0.1303  0.2470 -0.1322
81241W        W24154   1.675  21.797  27.477  0.0664  0.2153  0.0633
81242W        W24155  13.375   9.173  27.395 -0.0381  0.0677  0.0930
81243W        W24156  23.017  21.395   2.894 -0.2061 -0.4094 -0.3846
81244W        W24157   6.369  14.005  18.845  0.0530  0.0895 -0.2569
81245W        W24158  11.215  25.095  22.563 -0.1653  0.0274  0.3534
81246W        W24159  25.349  15.763   0.393  0.0015 -0.0122 -0.1996
81247W        W24160  31.460  12.112   5.914  0.0930 -0.1227 -0.1267
81248W        W24161  16.267  19.063  29.335  0.0771  0.0387 -0.0121
81249W        W24162   9.020  21.971  29.511 -0.0215 -0.1584 -0.2106
81250W        W24163   7.226  13.507   2.045  0.3085  0.1942 -0.1180
81251W        W24164  25.718  24.262   0.196  0.2149  0.3409 -0.0640
81252W        W24165  17.472  27.204   4.897 -0.4064  0.1362  0.1348
81253W        W24166  10.325  28.106   3.376  0.2311 -0.0589 -0.0105
81254W        W24167  12.427  27.771  25.630  0.1915  0.0879  0.0208
81255W        W24168   2.126  22.977  25.908 -0.2521 -0.1402 -0.2047
81256W        W24169  11.668  10.554   4.402  0.1068 -0.3386 -0.0262
81257W        W24170   9.956  19.076  28.763  0.2708  0.0686  0.1218
81258W        W24171  12.187  15.716   4.116  0.0497  0.3184  0.0554
81259W        W24172   8.211  11.120  19.102  0.1145 -0.1142 -0.0467
81260W        W24173  12.148  21.058   5.463 -0.0460 -0.1732  0.0417
81261W        W24174  16.759  15.822   7.562  0.0207  0.1016  0.0030
81262W        W24175   8.837  16.180   7.315  0.1193  0.0000 -0.3694
81263W        W24176   9.182  20.998  27.472 -0.3962 -0.0499  0.0268
81264W        W24177  32.324  20.517   2.209  0.1801 -0.1894  0.0589
81265W        W24178  14.834  13.405  22.753 -0.0634  0.0870  0.4428
81266W        W24179  10.260  27.279  21.429  0.1242  0.0097 -0.3420
81267W        W24180   2.212  17.322   8.039 -0.1921  0.0628 -0.2578
81268W        W24181   7.572   3.925  25.052  0.0996 -0.2179  0.1338
81269W        W24182  10.188  18.182   6.087 -0.1575  0.0597  0.4314
81270W        W24183  17.929  20.828   3.817 -0.0569 -0.0228 -0.6421
81271W        W24184  12.032  10.379  27.081 -0.1631  0.0925  0.0961
81272W        W24185  10.986  14.456  28.036 -0.0678  0.1013 -0.0487
81273W        W24186   7.728  11.892   7.665 -0.0307 -0.0643 -0.1226
81274W        W24187  13.899  14.865   6.446  0.2755  0.0010 -0.1029
81275W        W24188  20.746  22.262   5.104 -0.2965 -0.1065  0.2059
81276W        W24189  11.692  16.261  24.048  0.1196  0.0488 -0.1245
81277W        W24190  12.633   5.560   7.034  0.0501  0.0776  0.0562
81278W        W24191   7.071  19.776   3.662  0.2727  0.0312  0.3355
81279W        W24192   8.385  14.387   1.474 -0.0319  0.0881 -0.0769
81280W        W24193   4.280  18.277  25.939  0.2055 -0.5996 -0.3776
81281W        W24194   0.821  15.126  26.990 -0.0759 -0.1109 -0.0149
81282W        W24195  14.700  16.201   0.185 -0.3594  0.1350  0.1009
81283W        W24196  11.344  28.844  29.303 -0.2924 -0.0759  0.3403
81284W        W24197   2.664  13.930   3.972  0.0439 -0.2922  0.0029
81285W        W24198  16.328  14.174   5.886  0.2790  0.0103 -0.0176
81286W        W24199  15.597   3.328  16.211 -0.0826  0.1616  0.0363
81287W        W24200   8.361  12.476   4.508 -0.0494 -0.1104 -0.0759
81288W        W24201   5.972  22.664   8.621 -0.1896  0.1128  0.2220
81289W        W24202  17.606  13.454   2.121  0.1000 -0.2103  0.1252
81290W        W24203   7.518  16.311  25.481  0.0601 -0.2278  0.3174
81291W        W24204  21.448  11.181   0.123 -0.2860 -0.3100  0.2263
81292W        W24205  33.933  30.267   9.768  0.1440 -0.0560  0.0180
81293W        W24206   7.213  22.264   2.478 -0.1160 -0.1157  0.0021
81294W        W24207   6.413   7.103  24.566  0.0423  0.1586  0.1771
81295W        W24208  34.137  24.480  26.394  0.0044 -0.0096  0.1365
81296W        W24209   3.891   8.296   0.402  0.1040 -0.0808  0.0085
81297W        W24210   8.408  18.855  25.979  0.0114 -0.1611 -0.2251
81298W        W24211  13.109  17.535   0.340  0.2358  0.1231 -0.0510
81299W        W24212  13.474  21.736   6.138 -0.0629  0.1159 -0.2886
81300W        W24213   2.686  18.300  24.428  0.3975  0.3437  0.4617
81301W        W24214  29.353  21.790  27.258 -0.1050  0.1094 -0.3901
81302W        W24215   0.942  19.186   1.240  0.0048  0.1448  0.0990
81303W        W24216  13.242  16.746   2.879 -0.1549  0.0305  0.0156
81304W        W24217  13.477  14.244   3.209 -0.0123  0.0108  0.1173
81305W        W24218   6.665  26.367   5.844  0.2480 -0.2055 -0.0052
81306W        W24219   5.620  26.107   3.904  0.0565  0.0343 -0.0475
81307W        W24220   5.080  10.342   3.974  0.1801  0.1964  0.1128
81308W        W24221   6.270   7.175   2.407 -0.3983 -0.1921  0.1992
81309W        W24222  14.622  14.108   0.460  0.1106  0.1926 -0.0542
81310W        W24223   5.042  17.739  28.600  0.3345 -0.0350  0.0865
81311W        W24224  32.594  16.227   0.976 -0.1138 -0.5527  0.0977
81312W        W24225  11.685  33.876   1.991  0.1146  0.1587 -0.2116
81313W        W24226  12.391  24.867   9.208  0.0409  0.1274  0.3609
81314W        W24227  15.690  12.503   8.477 -0.1547 -0.1097 -0.1127
81315W        W24228   3.019  15.087   0.951 -0.0076 -0.1132 -0.2610
81316W        W24229  12.887   0.854   2.387 -0.2602  0.0822  0.0283
81317W        W24230  11.793  23.762   4.377  0.2780  0.0748 -0.4106
81318W        W24231   7.072  19.181   9.188 -0.1038  0.1825  0.2539
81319W        W24232  14.981  15.890  25.924 -0.0357 -0.1463 -0.0456
81320W        W24233  11.804  20.195  28.285 -0.0143 -0.0234 -0.1999
81321W        W24234  14.661  13.489   0.844  0.0906 -0.2046 -0.2209
81322W        W24235  13.083  23.937  27.326  0.0624  0.0729 -0.1723
81323W        W24236   7.809  10.994  26.747 -0.0634  0.1790  0.4124
81324W        W24237   9.727  11.871  28.900 -0.1787  0.1048 -0.0446
81325W        W24238  13.562   3.814   9.508  0.1990 -0.1225  0.1396
81326W        W24239   1.278   9.818  26.008 -0.0268  0.0575 -0.0222
81327W        W24240  25.387  23.300   5.045 -0.1760  0.0777 -0.2682
81328W        W24241   0.441  23.860   0.430 -0.1375  0.0180 -0.2179
81329W        W24242   8.990  17.220   2.621 -0.0377 -0.0130  0.2641
81330W        W24243  33.135  24.330   9.470  0.2262  0.0927 -0.0593
81331W        W24244  15.564  11.481   1.279  0.2629 -0.0215 -0.0964
81332W        W24245  28.548  20.294  28.786 -0.3386  0.0026 -0.0462
81333W        W24246  33.237  26.051   5.951 -0.1349 -0.1125  0.1910
81334W        W24247  14.934  19.777  21.139 -0.0084  0.1500  0.2514
81335W        W24248   8.865  17.630   8.699 -0.0890 -0.2526  0.1505
81336W        W24249  15.499  23.408   2.085  0.4639  0.0419  0.0635
81337W        W24250  14.846   7.682   8.251 -0.1357 -0.0046 -0.0852
81338W        W24251   7.847  15.684  28.101 -0.0937 -0.0989  0.2054
81339W        W24252  24.176  20.499  23.855 -0.3983  0.0066  0.0580
81340W        W24253  16.622   5.782  20.636  0.0986 -0.1246 -0.0242
81341W        W24254  11.011  18.269   6.018  0.1388 -0.4584 -0.0936
81342W        W24255  16.138  20.628  21.587 -0.2493  0.1993  0.1934
81343W        W24256  17.523  17.400  14.829 -0.3276 -0.1635 -0.0621
81344W        W24257  21.678  20.412   3.240 -0.1560  0.0793  0.0464
81345W        W24258  33.711  12.102   2.697 -0.1405 -0.0128 -0.0515
81346W        W24259  16.588  22.897  25.822 -0.2130 -0.0502  0.3653
81347W        W24260  15.052  20.282  24.899  0.0375 -0.1992  0.1142
81348W        W24261   4.042   8.930   2.717 -0.0189  0.1636  0.1468
81349W        W24262  11.820  14.976   0.173 -0.1014  0.0809 -0.0923
81350W        W24263  16.549  22.380  25.998  0.1560 -0.1102 -0.0917
81351W        W24264   7.664  18.742  28.651  0.2097 -0.0610  0.1154
81352W        W24265   8.984  11.504  28.292  0.0616  0.0345 -0.1560
81353W        W24266  13.144  10.993  17.549 -0.0051 -0.0374 -0.1586
81354W        W24267  14.640  13.039   7.326  0.1710 -0.1451 -0.0983
81355W        W24268   9.674  12.400   2.285  0.0279 -0.0870  0.3739
81356W        W24269  13.765  11.887  27.112  0.0538 -0.1738  0.1223
81357W        W24270  13.958  17.077   1.613  0.1898  0.2307  0.1301
81358W        W24271  13.273  25.359  28.814 -0.2097 -0.0174 -0.1429
81359W        W24272   3.037  19.058   6.299 -0.0717 -0.4420 -0.0935
81360W        W24273   9.013  18.256  21.284 -0.0766  0.0095  0.1153
81361W        W24274  26.979   7.600   0.117 -0.2011 -0.1858  0.1795
81362W        W24275  13.861  23.773  24.099 -0.1972 -0.2774  0.0405
81363W        W24276  15.420   3.459  29.298 -0.2745 -0.4930 -0.2680
81364W        W24277  10.953  13.779  27.310 -0.1494 -0.2793  0.1379
81365W        W24278   2.802  19.489  15.760  0.0083  0.0927  0.0225
81366W        W24279   6.514  14.742   8.212 -0.1304 -0.1985  0.2717
81367W        W24280   1.717   8.420  24.184  0.2644  0.2638  0.0917
81368W        W24281  18.522  19.293   2.112 -0.2776 -0.2023  0.2735
81369W        W24282  14.384   4.637   1.772 -0.0472  0.0282  0.0010
81370W        W24283   7.245   9.557  10.433 -0.0426  0.4117  0.1986
81371W        W24284   8.834  11.455   5.463 -0.1342 -0.3515  0.0681
81372W        W24285   8.765  12.523   4.832  0.3011 -0.1298  0.1283
81373W        W24286   3.751  12.479   3.019 -0.2452  0.0416 -0.0790
81374W        W24287  19.941  12.593  28.176 -0.0055  0.0421 -0.0118
81375W        W24288  10.138   9.427  11.581  0.2012  0.0240 -0.1364
81376W        W24289  13.151  16.002  25.339 -0.1609 -0.3648  0.5121
81377W        W24290  33.028  16.459   1.885 -0.0787 -0.0447  0.1225
81378W        W24291  18.519   7.215   8.950  0.5836  0.2743 -0.0391
81379W        W24292   5.406   9.559  28.874 -0.1846 -0.2541 -0.0603
81380W        W24293   6.363   9.920   6.454  0.3918  0.2523  0.0111
81381W        W24294   8.266  16.469  10.017 -0.0927  0.3836  0.1316
81382W        W24295   6.336  16.400  27.296 -0.2623  0.1191 -0.0131
81383W        W24296  12.150  33.217  23.115  0.1047 -0.0295 -0.0359
81384W        W24297  20.168  10.230   5.779 -0.0038  0.0073  0.0169
81385W        W24298   2.570  11.930  19.825 -0.0321 -0.3860 -0.0590
81386W        W24299   7.736  11.291   0.431 -0.0425  0.4372  0.0662
81387W        W24300   9.493  13.125  25.009 -0.1294 -0.2669 -0.0873
81388W        W24301  20.766  20.213   1.281  0.1965 -0.0638  0.0390
81389W        W24302   8.994   9.208   3.086 -0.0360 -0.0619  0.0525
81390W        W24303  12.387  30.261   2.255 -0.0111 -0.0717  0.1252
81391W        W24304  32.811  19.078  28.594 -0.2817 -0.3841  0.0308
81392W        W24305  14.921  21.987   1.491  0.5437  0.0225 -0.1562
81393W        W24306   8.086  11.326   6.633  0.3717  0.1910 -0.1157
81394W        W24307   9.829  13.328   0.905  0.0654  0.1256  0.3896
81395W        W24308   6.607  31.692   6.869  0.1214 -0.1880 -0.3139
81396W        W24309  13.816   5.256   5.159  0.3722  0.0948  0.2491
81397W        W24310   8.973  23.779   2.136 -0.0309  0.2409 -0.0519
81398W        W24311  14.976  23.365   3.938  0.1902 -0.1342 -0.0310
81399W        W24312   9.927  11.127  29.570 -0.1226 -0.0099  0.0253
81400W        W24313  10.016  12.645   0.975 -0.0858  0.2254 -0.2683
81401W        W24314  15.965  25.459  20.079 -0.2213 -0.0861  0.1883
81402W        W24315   5.816  20.536   8.122  0.0050 -0.1807  0.0015
81403W        W24316  17.731   5.239  26.789 -0.0207 -0.1865  0.2702
81404W        W24317  10.917  18.628  25.563 -0.0848 -0.2217 -0.3013
81405W        W24318   3.685  26.750   3.419 -0.0635 -0.2520 -0.0479
81406W        W24319  10.432  12.816   1.770 -0.1103 -0.1448  0.4288
81407W        W24320  14.201  15.186  24.727  0.2081 -0.3976  0.1587
81408W        W24321   2.993  22.662   1.639 -0.0807  0.2159  0.0438
81409W        W24322   4.122  23.070  26.834  0.3320 -0.1024 -0.1546
81410W        W24323   4.358   9.871  26.653  0.1913 -0.1200  0.0871
81411W        W24324  18.141  28.964   8.639 -0.1790  0.0891  0.1824
81412W        W24325  12.083  24.958   5.052 -0.0621  0.2924  0.1481
81413W        W24326  20.119  17.709   2.968  0.2239 -0.2412 -0.0502
81414W        W24327   9.081  21.702   8.333 -0.0685 -0.0539  0.0030
81415W        W24328   1.512  25.305  28.381  0.0059  0.1507  0.2076
81416W        W24329  13.903   9.901   1.030  0.1147 -0.1568  0.0821
81417W        W24330   8.031  27.273   9.389  0.0748 -0.2498  0.2141
81418W        W24331   9.993  33.372  25.625  0.0310 -0.0341 -0.3542
81419W        W24332   3.301  19.104   4.625 -0.0097 -0.0241  0.1850
81420W        W24333  22.388   3.566   3.990  0.0791 -0.3809 -0.0383
81421W        W24334  14.704  12.153  21.115 -0.2178 -0.3001 -0.0895
81422W        W24335  19.650  14.197  24.500 -0.2183 -0.1853  0.3897
81423W        W24336   8.655  10.887  19.293  0.0013 -0.1796  0.2319
81424W        W24337   6.068  21.798  21.389 -0.2787  0.0295 -0.1348
81425W        W24338  10.021  17.981   8.433  0.0384 -0.1826 -0.0378
81426W        W24339  16.794  25.010   5.999 -0.2409  0.2584  0.1643
81427W        W24340  20.329  12.138  19.048  0.1733 -0.1012  0.1489
81428W        W24341  31.852  24.005   0.436  0.4174  0.0104  0.1003
81429W        W24342  12.651  14.878  18.157 -0.0076  0.2208 -0.2163
81430W        W24343  25.758   7.648   4.318  0.2882 -0.2092  0.2566
81431W        W24344   5.423  20.655  22.928  0.1378 -0.2865 -0.1697
81432W        W24345   8.535  15.476   2.783  0.1726  0.1334 -0.1190
81433W        W24346  11.397  21.106  28.783 -0.3310 -0.3271 -0.2847
81434W        W24347  11.026  19.206  27.995 -0.0265  0.0426  0.1620
81435W        W24348  10.444  12.140   5.411 -0.2602  0.2032  0.3459
81436W        W24349  11.493  32.914  11.714 -0.2867  0.0815 -0.1658
81437W        W24350   1.467  30.147  26.782 -0.0501  0.4724 -0.1519
81438W        W24351  13.804  22.164  25.441 -0.1656  0.1041  0.0673
81439W        W24352   5.402  21.367   7.321  0.1614 -0.0095 -0.2592
81440W        W24353  11.561  21.150  15.534  0.0050 -0.2068 -0.0829
81441W        W24354   3.406  16.641   7.790  0.0881  0.1485 -0.0316
81442W        W24355  12.715  17.960  22.667  0.1097  0.1467 -0.1474
81443W        W24356   7.307   6.569   4.948  0.0115  0.1440 -0.3051
81444W        W24357   2.628  19.279  26.262  0.0433 -0.0209  0.1063
81445W        W24358  12.056  16.805  24.535  0.4298  0.1275 -0.0895
81446W        W24359   8.942   3.279  18.774  0.2530  0.1991 -0.3695
81447W        W24360  30.885  17.355   4.793 -0.4993 -0.2081 -0.1818
81448W        W24361   9.692  10.807  23.519 -0.3865 -0.1469 -0.0713
81449W        W24362  20.379  13.556   6.032 -0.0793 -0.1133 -0.3171
81450W        W24363  11.876  13.536   0.493  0.0616  0.3195 -0.0174
81451W        W24364   2.661  31.893  27.419  0.0476 -0.4012 -0.1670
81452W        W24365  14.032  14.851  19.076 -0.1088  0.0089 -0.0572
81453W        W24366  11.921  18.549   5.597  0.0286  0.4679 -0.4158
81454W        W24367  16.706  13.946   2.766  0.2531 -0.0546 -0.1455
81455W        W24368   7.851  16.490  22.861  0.0851  0.1331 -0.1903
81456W        W24369   5.759  14.367  20.434 -0.2144 -0.4174  0.1425
81457W        W24370  15.516  10.433   3.390  0.2346  0.1857 -0.3027
81458W        W24371  10.108  28.483   7.212 -0.0673  0.2112  0.1124
81459W        W24372  11.181  24.214   1.779  0.1598  0.0190 -0.0246
81460W        W24373   1.724   9.062  25.524 -0.0790 -0.3196 -0.0544
81461W        W24374   4.489  18.743   4.028  0.0559 -0.3508 -0.2178
81462W        W24375  18.549  21.767   5.353 -0.2342  0.3716 -0.0835
81463W        W24376   4.953  11.149   7.266  0.3893  0.1340  0.1182
81464W        W24377   2.689  15.961  29.232 -0.0173  0.1282  0.0618
81465W        W24378   8.453   9.906  23.991  0.1030 -0.2001  0.0409
81466W        W24379   9.310  11.979   9.415  0.1876  0.2151  0.0282
81467W        W24380   0.460   9.968  29.606  0.1897  0.1948 -0.0903
81468W        W24381  14.579  26.977  23.354  0.1402  0.0786 -0.0481
81469W        W24382   4.549  18.145   4.713 -0.0561  0.0509 -0.1183
81470W        W24383  10.875  19.895   7.100  0.3779  0.2110 -0.3636
81471W        W24384   9.937  17.136  29.391 -0.0051 -0.1317 -0.2721
81472W        W24385   1.535  15.891  26.747  0.0847 -0.0281 -0.3857
81473W        W24386   5.026   0.381  26.458 -0.1677 -0.0931 -0.2536
81474W        W24387  16.957  20.927  21.921 -0.1429 -0.1152  0.0088
81475W        W24388  15.185  16.339   0.476  0.0082 -0.3236 -0.2557
81476W        W24389  10.746  14.637  29.096  0.1456  0.0124  0.2136
81477W        W24390  13.333   8.409  19.341 -0.0858 -0.1079 -0.1125
81478W        W24391   6.764  25.241  15.150  0.3879 -0.0703 -0.0520
81479W        W24392   7.574  21.054   6.612 -0.0792 -0.2614  0.2096
81480W        W24393   9.458   4.242  11.178 -0.0533  0.2348 -0.1547
81481W        W24394   9.695  11.761   1.938 -0.2757  0.0342 -0.3719
81482W        W24395  10.284  10.043  21.243 -0.2243  0.1823 -0.3534
81483W        W24396   5.396  16.144  27.365 -0.2095  0.1493  0.0460
81484W        W24397  34.046  22.233  25.379  0.3261 -0.0720  0.4839
81485W        W24398  15.252  10.685   7.546  0.0068  0.1123 -0.1701
81486W        W24399  15.126  33.248   9.109 -0.1274 -0.1920 -0.2072
81487W        W24400   5.898  13.838   3.208  0.0300  0.1219 -0.0533
81488W        W24401  12.663  10.248   2.396  0.0072 -0.0801  0.0077
81489W        W24402  18.074   2.471  10.006 -0.0679 -0.1618 -0.0089
81490W        W24403  29.984   8.831   1.457  0.3661  0.2180 -0.0075
81491W        W24404  10.390  22.734   7.689 -0.1747 -0.0719 -0.2140
81492W        W24405   7.119  23.541   4.307 -0.0030 -0.5048  0.0965
81493W        W24406   5.991   5.715   5.284 -0.0941  0.2026  0.0735
81494W        W24407  10.294  12.583   3.400  0.0374 -0.1889  0.0293
81495W        W24408   5.888  21.128  29.765  0.2260  0.1246 -0.0450
81496W        W24409   6.480  21.935  28.660 -0.1091  0.3417  0.0168
81497W        W24410   3.648  10.523   0.333  0.0906  0.1386  0.0527
81498W        W24411   5.484  19.929  24.682 -0.0302  0.1694  0.0031
81499W        W24412   1.590  14.469  26.440 -0.0471 -0.0076 -0.1009
81500W        W24413  11.636   9.321   5.079  0.2305  0.1376  0.1423
81501W        W24414   2.779  21.645   4.177  0.1222  0.0361  0.1106
81502W        W24415   2.341  17.832  28.164 -0.1668 -0.1655 -0.4298
81503W        W24416   3.593   8.110  24.596 -0.1603 -0.1681  0.2230
81504W        W24417  32.540  14.232   3.754 -0.1829  0.0834  0.1244
81505W        W24418   7.469  18.974   2.726  0.2882  0.1587 -0.1522
81506W        W24419   1.976  24.717   1.859 -0.0716 -0.0094  0.0965
81507W        W24420   9.983  26.618  10.707 -0.2537  0.2453 -0.0346
81508W        W24421  29.932  15.252  29.031  0.0960  0.1145 -0.0296
81509W        W24422   6.181  11.404  24.318  0.0138  0.0358 -0.1071
81510W        W24423  14.927  24.581   1.046  0.1952 -0.1024 -0.0158
81511W        W24424   0.581  24.173  23.453  0.0545  0.0468  0.0651
81512W        W24425   5.032  29.735   6.288  0.0378  0.1182  0.0612
81513W        W24426   9.354   5.638  13.405  0.0236  0.1462 -0.0361
81514W        W24427   6.612  12.615   5.580  0.1864 -0.0438 -0.0531
81515W        W24428  12.161  20.552   5.306  0.0816  0.2264 -0.2628
81516W        W24429   0.301  32.956   5.056 -0.0717  0.0705  0.2239
81517W        W24430  10.800  28.860  29.255 -0.0483 -0.1283  0.2026
81518W        W24431   8.988  10.319  25.073  0.1686  0.1578  0.1157
81519W        W24432  15.202  14.870  22.824  0.0889  0.0625  0.1373
81520W        W24433  10.552  24.871   3.599 -0.1959 -0.1088 -0.1055
81521W        W24434  30.782  22.852   6.189 -0.1813 -0.0116  0.0722
81522W        W24435   8.911   9.178  18.485  0.0627 -0.0320 -0.0149
81523W        W24436  12.194  18.163  28.093  0.0491 -0.2134  0.3398
81524W        W24437  32.340  24.616   5.370 -0.1418 -0.1173  0.1756
81525W        W24438   8.257  16.421   1.951 -0.1357 -0.0068  0.1736
81526W        W24439  20.133   7.548   3.403 -0.0698 -0.0587 -0.5170
81527W        W24440  16.621  22.937  24.775  0.1835  0.2260  0.2749
81528W        W24441   7.623  19.850  16.253  0.1186  0.2401 -0.0406
81529W        W24442   7.545  29.872  27.853 -0.1480 -0.4956 -0.1409
81530W        W24443  11.089  21.548  27.234 -0.0274  0.1647 -0.1863
81531W        W24444   3.323   7.039   1.539 -0.3901 -0.2375 -0.0893
81532W        W24445   8.839  10.798  10.274 -0.0227  0.0224  0.0925
81533W        W24446  10.383  15.940   1.025  0.0467  0.0993  0.0923
81534W        W24447   6.454  16.699   4.409  0.2594 -0.0173 -0.0833
81535W        W24448  19.270  22.203   3.946 -0.0689 -0.1284 -0.2874
81536W        W24449   9.519   7.381  28.508  0.0315 -0.0414 -0.1235
81537W        W24450   9.453  22.040   8.729 -0.0128 -0.0901  0.2133
81538W        W24451   8.358  19.752  21.379 -0.1154 -0.1244  0.3847
81539W        W24452   7.046   1.731  28.633 -0.1599 -0.0490  0.0345
81540W        W24453   9.312   7.973   2.704 -0.0035 -0.5073 -0.1371
81541W        W24454  10.420  11.581   4.161  0.0604 -0.1643 -0.1207
81542W        W24455   4.562  13.017  15.187  0.1069  0.0239 -0.0818
81543W        W24456   7.286   8.699  26.696  0.0309  0.1384 -0.0330
81544W        W24457  12.651  23.039   5.044  0.3493 -0.1862 -0.0866
81545W        W24458   2.632  14.013  28.491  0.1154 -0.1265 -0.1103
81546W        W24459  33.008  12.553  22.509 -0.1364  0.0989  0.1396
81547W        W24460  11.982  14.753  23.947 -0.3742  0.2298  0.1101
81548W        W24461  10.649   9.984   0.958  0.1060  0.4398 -0.1090
81549W        W24462   3.100  21.854   5.631  0.1692  0.3355  0.2646
81550W        W24463  34.373  17.181   3.621 -0.2427 -0.1715 -0.0722
81551W        W24464   9.201  17.018  20.629 -0.2724  0.0106 -0.3370
81552W        W24465  10.453  13.086  27.614  0.2643  0.1660  0.1704
81553W        W24466  15.355  20.262   2.956  0.1628  0.1624 -0.0041
81554W        W24467  15.213  17.289  29.004  0.0946 -0.1603 -0.0820
81555W        W24468   9.871  14.867   6.654 -0.0686  0.1587  0.1669
81556W        W24469   8.747  12.497   1.476 -0.1161 -0.1857  0.0029
81557W        W24470  15.663  21.603  28.461  0.0915 -0.1531  0.1975
81558W        W24471  12.541  15.084  29.649 -0.1675 -0.1094  0.0144
81559W        W24472   8.392   5.625  11.381 -0.0497 -0.1077 -0.3351
81560W        W24473  10.816  19.472  23.556 -0.1271 -0.0260  0.0035
81561W        W24474   0.095  21.184   8.439  0.2168 -0.1386 -0.4979
81562W        W24475   8.049  10.082   7.705  0.0350  0.1362  0.3095
81563W        W24476  31.460  10.729   3.405  0.2321  0.0764  0.0331
81564W        W24477   5.173  27.721   7.421 -0.2644  0.0627 -0.1106
81565W        W24478  10.052  14.557  10.142  0.0673  0.0534  0.1170
81566W        W24479  13.131  19.599   7.395 -0.0551 -0.3113 -0.5861
81567W        W24480   0.453  18.400   6.526 -0.2067  0.3228  0.0266
81568W        W24481  11.195  25.860   4.053 -0.4567 -0.0055  0.1067
81569W        W24482   9.186  25.345   2.452 -0.0066 -0.2564  0.2243
81570W        W24483   6.708   9.873  11.802 -0.2253 -0.3841 -0.1093
81571W        W24484  13.527  19.114   8.358  0.1896  0.2157  0.1918
81572W        W24485  33.110  10.459   8.417  0.1225 -0.0470  0.0259
81573W        W24486  15.180  14.984  24.886  0.1266  0.5258 -0.1250
81574W        W24487   8.514  13.928   5.643 -0.0260 -0.1323 -0.0161
81575W        W24488   3.624   5.758   5.577  0.0952  0.0067 -0.0761
81576W        W24489   0.432  20.014  10.108  0.2974 -0.0328  0.0555
81577W        W24490   4.688  12.005   7.647 -0.1634  0.0790 -0.0700
81578W        W24491  12.963  19.147  27.479 -0.1965  0.0877 -0.0453
81579W        W24492  11.517  11.639   2.406 -0.0476  0.0388 -0.1396
81580W        W24493   1.651  20.539   8.740 -0.0971 -0.4483 -0.4999
81581W        W24494  12.576  21.325  27.855  0.1706 -0.1589  0.5002
81582W        W24495   8.336  22.743   0.440 -0.1370  0.2466 -0.0789
81583W        W24496   9.273   4.829  12.366  0.0527 -0.1748  0.2054
81584W        W24497  13.271   6.985   9.783 -0.0168 -0.1285 -0.1907
81585W        W24498   7.862  16.603   2.172  0.1138 -0.1529  0.3640
81586W        W24499  11.967  29.925   5.921 -0.0341  0.0508 -0.0619
81587W        W24500  15.951   5.252  10.986  0.1456 -0.2184  0.0611
81588W        W24501  12.891  18.951   5.717  0.0900  0.1688  0.0506
81589W        W24502  13.846  28.263   8.745 -0.0886 -0.1651 -0.3497
81590W        W24503  33.952  23.162   6.009  0.0284 -0.0745  0.0207
81591W        W24504   5.276  11.298   8.373 -0.0728  0.2283 -0.1865
81592W        W24505  32.683  19.607   9.782 -0.3311 -0.1294 -0.0280
81593W        W24506   4.499  11.195  25.870 -0.0932 -0.1093  0.3016
81594W        W24507   5.735   2.361   7.792 -0.0137  0.3026  0.0080
81595W        W24508   7.471   5.164  25.600 -0.2209  0.0434 -0.0438
81596W        W24509  14.434   7.943  10.232 -0.1966 -0.2329  0.1142
81597W        W24510  27.362  26.206  28.233 -0.3296 -0.1453 -0.0447
81598W        W24511   4.386  21.579   7.227  0.0456  0.1342  0.1731
81599W        W24512   4.246  12.417   2.572  0.0486 -0.2813 -0.0248
81600W        W24513  14.668  15.598   4.694 -0.0138 -0.1258 -0.0940
81601W        W24514  11.722  21.358   7.235  0.1636  0.0896 -0.2201
81602W        W24515  33.729  14.732   3.065 -0.1521 -0.0956  0.2149
81603W        W24516  12.140  16.404  25.800 -0.2623 -0.1713  0.2106
81604W        W24517   6.107   6.640   7.354 -0.0020  0.0282 -0.1978
81605W        W24518   8.504  26.724   9.795  0.1775 -0.2026 -0.2097
81606W        W24519   4.581  12.961   5.396  0.2193 -0.1703 -0.1484
81607W        W24520   9.520  20.575   3.177  0.2120  0.3110 -0.3361
81608W        W24521  10.086   2.952   8.791 -0.1731 -0.4933 -0.1013
81609W        W24522   5.329  17.754   5.573 -0.0023 -0.1285 -0.0370
81610W        W24523  13.570  17.176   1.227 -0.2945 -0.1143  0.3156
81611W        W24524   1.352  20.416  26.221 -0.0903 -0.0223  0.3020
81612W        W24525  10.737  10.465  27.644  0.3605  0.0187 -0.3076
81613W        W24526   9.685  21.225   6.856  0.0876  0.2082  0.2001
81614W        W24527   3.613  15.645   2.016  0.2264 -0.1723  0.0858
81615W        W24528   8.777  18.462   8.521 -0.3116 -0.1917  0.1141
81616W        W24529   1.077  17.544   9.213  0.1231 -0.0120 -0.3390
81617W        W24530   1.718   5.641  26.385  0.0534 -0.0297 -0.0990
81618W        W24531   6.071   0.048   9.980 -0.0715  0.3366  0.3467
81619W        W24532  32.200  18.570  29.585  0.0867  0.2095 -0.0138
81620W        W24533  29.713   5.193  21.367 -0.0250 -0.2490 -0.0512
81621W        W24534   8.547  17.372   3.710  0.1266  0.1844  0.3615
81622W        W24535  33.371  18.293   4.864  0.1078 -0.2872  0.1331
81623W        W24536  12.890  19.697  28.514 -0.1409  0.2378 -0.1268
81624W        W24537  10.648  19.289   8.220  0.4395  0.0686  0.3086
81625W        W24538  17.547  20.831   4.927  0.4589 -0.1241  0.3386
81626W        W24539  16.336  21.208   3.032  0.1497  0.1437 -0.0852
81627W        W24540   1.888  10.438   6.879  0.1063 -0.0577 -0.0272
81628W        W24541  15.870  32.178   7.467  0.0675  0.0357 -0.0439
81629W        W24542   3.616  21.745   8.064 -0.3195 -0.1142  0.2481
81630W        W24543  14.636  11.863   6.677 -0.4295  0.0616  0.1378
81631W        W24544  16.700  18.972   8.284  0.0674 -0.0974 -0.2207
81632W        W24545  11.209  15.900  29.706 -0.0619 -0.1148  0.2262
81633W        W24546   9.952   8.619  28.624  0.1107 -0.1060 -0.2142
81634W        W24547   8.749   8.034  27.168 -0.1555  0.0403 -0.2156
81635W        W24548  12.723  18.164  26.489 -0.1188 -0.1133 -0.1414
81636W        W24549  11.105  13.961   6.822 -0.1070  0.0460  0.4410
81637W        W24550  27.872  14.423   4.707 -0.3084  0.3527 -0.0335
81638W        W24551  32.351  15.275   6.071  0.3385 -0.0059  0.2525
81639W        W24552  20.273  10.106   1.876 -0.0755 -0.0188 -0.0380
81640W        W24553  16.895  21.597   8.614 -0.1544  0.1969 -0.0137
81641W        W24554  33.780  10.377   4.514 -0.2290  0.0558  0.2088
81642W        W24555   3.048   7.021   9.034  0.3291  0.0950  0.1106
81643W        W24556   7.694  19.339   4.108  0.0727 -0.0484  0.2134
81644W        W24557   5.833  28.929  27.256  0.0667 -0.1908  0.1041
81645W        W24558   1.647  15.051   3.208  0.0099  0.1397  0.2587
81646W        W24559   4.483  13.182   7.687  0.0299 -0.1040  0.0259
81647W        W24560  19.462  26.240   8.810 -0.0069  0.1570 -0.2436
81648W        W24561   0.521   9.657   0.971 -0.0232 -0.2259 -0.0163
81649W        W24562   5.216  17.213   4.087  0.0972  0.3462  0.2127
81650W        W24563   4.985  12.447  10.517 -0.0961  0.3009  0.1053
81651W        W24564  12.412  17.238  21.207  0.0445 -0.0904 -0.0169
81652W        W24565  12.271   8.641   4.227 -0.1276  0.0858  0.2045
81653W        W24566  14.971   8.332   7.486  0.3147 -0.0845 -0.1001
81654W        W24567   3.034   9.440   1.952  0.2164  0.0075  0.0059
81655W        W24568   9.123  13.290   8.659 -0.1492 -0.2067  0.1760
81656W        W24569  10.311  20.360   0.537 -0.1468  0.1561 -0.1755
81657W        W24570  13.098  13.513   8.887  0.0796 -0.1290  0.1252
81658W        W24571  32.828   9.835   2.906  0.0229 -0.2621 -0.1296
81659W        W24572   7.533  21.631  10.365  0.3008  0.0259 -0.1586
81660W        W24573   7.773  11.757   1.201  0.1642 -0.0836 -0.0867
81661W        W24574   3.393   9.783   5.195  0.2260  0.1563 -0.1412
81662W        W24575  21.660  24.694   0.382 -0.0007 -0.2014 -0.0995
81663W        W24576  10.060  10.204   2.911  0.2545 -0.1787 -0.1210
81664W        W24577   8.365   3.149  10.189 -0.0966  0.1178 -0.4559
81665W        W24578   5.524   0.320   8.344 -0.1735 -0.0516 -0.1541
81666W        W24579   8.617  15.801   2.420  0.1767  0.0895 -0.2710
81667W        W24580  16.887  18.831  27.729  0.3182 -0.2671  0.1919
81668W        W24581  28.133  19.928   3.011 -0.3181 -0.1591  0.1648
81669W        W24582  12.374  16.434  22.944  0.2453  0.3090 -0.1438
81670W        W24583   6.205  23.093   1.777  0.0813 -0.1511  0.1950
81671W        W24584  33.973   9.177  26.908  0.1031  0.2611  0.3721
81672W        W24585   8.504  10.202   7.507 -0.4434 -0.0774 -0.0492
81673W        W24586  16.597  17.282  23.417 -0.1332 -0.1105  0.2330
81674W        W24587   9.209  21.648  25.392  0.2135  0.3057  0.1281
81675W        W24588  11.474  13.819   5.228 -0.4185 -0.1062  0.1970
81676W        W24589   5.189  15.837   5.671  0.0434 -0.1642  0.1290
81677W        W24590   9.965  23.549   3.089 -0.2013  0.2058  0.0378
81678W        W24591   2.384  14.953   8.908 -0.0028 -0.1612  0.2423
81679W        W24592   1.201   6.083   3.319  0.1051  0.1169 -0.2095
81680W        W24593   5.540  20.966   3.410 -0.0388 -0.1306 -0.1392
81681W        W24594  14.404  19.426   8.402  0.0476  0.0142 -0.3970
81682W        W24595   9.570  25.184   8.437 -0.5372  0.3017  0.0753
81683W        W24596  20.953  17.017   7.663  0.4012 -0.0170 -0.2904
81684W        W24597   2.253  11.436  28.650 -0.0562  0.1403  0.0573
81685W        W24598  14.560  17.561   8.777 -0.2150 -0.2260 -0.0966
81686W        W24599  33.642  23.821   7.980  0.1530  0.1507  0.1867
81687W        W24600  14.242  22.619  25.291  0.3218  0.2964 -0.2357
81688W        W24601  12.951  20.902  27.240 -0.1659  0.3107  0.0967
81689W        W24602  11.798  11.380   0.376  0.0659 -0.0284 -0.0490
81690W        W24603   2.913  16.267   5.231 -0.0461 -0.1863  0.0392
81691W        W24604   7.237   5.748   6.395 -0.0318 -0.0005  0.0524
81692W        W24605  16.843  28.732   2.606  0.3431  0.1263 -0.0284
81693W        W24606   1.062   2.374   0.460 -0.0463  0.1598  0.1729
81694W        W24607   7.185  10.993  10.820  0.2198  0.0723  0.3049
81695W        W24608  16.531  16.001  23.023  0.1458  0.0150  0.1937
81696W        W24609  34.230  10.163   9.713  0.1471  0.0180  0.3434
81697W        W24610  12.986  20.622   8.484  0.2502  0.2653 -0.0841
81698W        W24611   8.296  23.933   5.344  0.2101 -0.3101 -0.3896
81699W        W24612   3.557  15.288  28.531 -0.0134 -0.0284 -0.0243
81700W        W24613   5.536  24.576   6.437  0.1918  0.1910 -0.1956
81701W        W24614  14.677  21.840   8.401 -0.0100 -0.2860 -0.1202
81702W        W24615   9.980  20.558   8.335  0.1628 -0.2288 -0.1692
81703W        W24616  11.290  13.493  27.036 -0.1406  0.0144 -0.1294
81704W        W24617   5.809  15.370   2.354 -0.0776  0.0766  0.1101
81705W        W24618   2.758  25.565   7.481  0.1153 -0.1039  0.0743
81706W        W24619   7.320  13.885   3.925  0.3709 -0.2273  0.0066
81707W        W24620  18.124   3.004   4.041 -0.1251 -0.1412 -0.2016
81708W        W24621  17.223  25.973   5.219  0.0889 -0.3311 -0.0295
81709W        W24622  21.568  20.844   6.776  0.1778  0.1277  0.1697
81710W        W24623  16.107  12.715   2.504  0.2739  0.1962 -0.3271
81711W        W24624   1.550  15.862   5.913  0.1884 -0.0352 -0.0488
81712W        W24625   6.951   3.986   2.927 -0.0131 -0.1560 -0.4018
81713W        W24626  14.549   0.397   2.684  0.2777 -0.2814  0.1637
81714W        W24627   6.836  18.724   7.595 -0.1013 -0.3576  0.1163
81715W        W24628   8.495  22.962  27.395  0.3032  0.3094 -0.1046
81716W        W24629   8.262  10.830   9.404  0.1623  0.3245 -0.0107
81717W        W24630  13.269  22.550   0.129 -0.2456  0.0064  0.1124
81718W        W24631   9.794  13.538   8.829 -0.0962 -0.1157 -0.0288
81719W        W24632   9.469  15.029   3.373  0.0336 -0.2852 -0.0994
81720W        W24633  20.278  11.128  27.349  0.2657 -0.0962 -0.0385
81721W        W24634   8.538  19.848   1.470  0.1545 -0.4177 -0.0660
81722W        W24635  14.181  21.914   9.570 -0.1036 -0.2599  0.0680
81723W        W24636  14.845  14.586   3.538 -0.3680 -0.0460  0.1231
81724W        W24637   6.390  22.310   8.518  0.1836  0.2143 -0.0471
81725W        W24638   3.651  13.680   3.427  0.2144 -0.1534 -0.0338
81726W        W24639  30.417  30.488   1.989  0.2407  0.1358  0.3245
81727W        W24640   6.236  13.794   2.267  0.0311 -0.1234 -0.1661
81728W        W24641  11.787  16.326   2.860 -0.1900 -0.0942 -0.0399
81729W        W24642   3.353   7.418  25.373 -0.0258 -0.2035 -0.0817
81730W        W24643  30.707  15.000   7.475  0.0718  0.1838  0.4068
81731W        W24644   4.900  14.107  10.479 -0.1619  0.3400  0.2794
81732W        W24645   6.016   4.747  13.371 -0.2951 -0.1262  0.1108
81733W        W24646  11.664  12.158   8.723  0.2265 -0.1210  0.1398
81734W        W24647  13.081   6.637   6.986 -0.0361  0.0166 -0.0386
81735W        W24648   8.789   6.215   2.607 -0.0357  0.0524  0.1703
81736W        W24649   7.058  27.545  10.705  0.2443 -0.2424 -0.1188
81737W        W24650  11.467  12.291  26.570 -0.2309  0.0207  0.2576
81738W        W24651   1.372  18.988   8.231  0.2097 -0.0082 -0.1917
81739W        W24652  14.124  24.103   4.962  0.2757 -0.3930  0.1075
81740W        W24653  10.652  22.730   5.461 -0.0243 -0.0413 -0.1602
81741W        W24654  33.901  19.707   8.793 -0.0264 -0.1900 -0.3173
81742W        W24655   6.889   2.022  12.298 -0.1303 -0.0666  0.2509
81743W        W24656   2.695   8.882  10.566 -0.0239 -0.0332 -0.5541
81744W        W24657   1.267  23.899   3.380 -0.1834 -0.0924 -0.0093
81745W        W24658  12.753   8.032  10.240 -0.1410 -0.0158 -0.0518
81746W        W24659   7.738   8.966   7.538 -0.0729  0.0335  0.0205
81747W        W24660   4.828  20.041   6.445 -0.0530 -0.1505 -0.3285
81748W        W24661   4.692  13.966   5.605 -0.3014  0.1384 -0.2011
81749W        W24662   9.852   7.817   6.793 -0.1978  0.4060 -0.0187
81750W        W24663  11.789  12.864  27.981 -0.2452 -0.3472  0.0964
81751W        W24664  10.623  14.660   7.052 -0.1141  0.5843 -0.2131
81752W        W24665  30.392  15.201   4.724  0.3326 -0.0607  0.0056
81753W        W24666  21.067  14.132  26.989 -0.0990 -0.2526 -0.0446
81754W        W24667  29.711  23.513   7.009 -0.0031 -0.1781 -0.0817
81755W        W24668   7.797  13.067   5.610 -0.2306  0.3956 -0.0150
81756W        W24669   9.560  19.736   5.436 -0.3166  0.1713 -0.1429
81757W        W24670  17.895  12.136   4.016 -0.1802 -0.0199  0.0664
81758W        W24671   3.364  13.365   4.776 -0.0310 -0.1218 -0.3988
81759W        W24672  14.079  19.794  27.788 -0.0373 -0.0253 -0.0234
81760W        W24673   9.215  22.145   8.181  0.1642  0.0406 -0.0327
81761W        W24674   2.978  21.741   1.352  0.0047  0.2484  0.0378
81762W        W24675  10.248  10.851   1.204  0.0005 -0.0588  0.0416
81763W        W24676   2.917  21.234  23.445 -0.1681  0.1748 -0.0847
81764W        W24677  33.981  14.223   9.107 -0.2004 -0.2093 -0.0611
81765W        W24678   8.050  11.991   7.081 -0.1434 -0.0229  0.0194
81766W        W24679  14.229  19.420   2.421 -0.1455  0.0092  0.0648
81767W        W24680  12.888  25.466   6.006  0.2745 -0.2066 -0.2245
81768W        W24681  12.792  15.185   1.093  0.2302  0.1240  0.0300
81769W        W24682   4.068   9.178   4.541  0.1516  0.1013 -0.4789
81770W        W24683  13.310  18.164   0.900 -0.1977 -0.3956  0.2503
81771W        W24684   0.162  10.885   7.369 -0.0201 -0.3274 -0.1368
81772W        W24685  13.102  22.851   8.758  0.0669 -0.0712 -0.1457
81773W        W24686  13.458  10.190   6.127  0.1835  0.0181 -0.3626
81774W        W24687   8.568  30.507   9.538 -0.0929 -0.1897 -0.1355
81775W        W24688   3.358  17.068   4.035 -0.0972 -0.1598 -0.1773
81776W        W24689  14.995  18.278   4.749 -0.4115  0.1318  0.1390
81777W        W24690   6.695  19.560   9.261 -0.1692  0.1825 -0.0745
81778W        W24691  21.564  22.064   4.622  0.0270  0.2608 -0.1655
81779W        W24692   5.088  16.817   9.033  0.3372  0.0529  0.0652
81780W        W24693  19.937  16.818   3.217  0.2266 -0.2338  0.3515
81781W        W24694  18.406  20.043   7.610 -0.5694  0.1551  0.0749
81782W        W24695   8.393  15.848  10.047  0.2042  0.0391 -0.1745
81783W        W24696   0.697   9.620  20.482 -0.0311 -0.0271 -0.1689
81784W        W24697   7.720  15.494   3.329  0.3938  0.3037  0.0093
81785W        W24698  10.665  20.699   7.331  0.0909 -0.0680 -0.2184
81786W        W24699   8.489  26.957   9.059 -0.0679 -0.2612  0.0632
81787W        W24700   1.540   7.741  20.822  0.1868 -0.0273 -0.0388
81788W        W24701  10.230  22.072   4.686  0.0789  0.2112 -0.0417
81789W        W24702   2.792  12.815   9.014 -0.1264  0.0185  0.1548
81790W        W24703   5.853  18.975   6.852  0.1695 -0.0668  0.0116
81791W        W24704  11.978   4.700   1.612 -0.2006  0.0097 -0.1794
81792W        W24705   6.890  11.003   0.760 -0.1703 -0.2027  0.0357
81793W        W24706   6.672  12.520   7.632 -0.1812 -0.1001  0.0932
81794W        W24707   9.946  16.939  28.909 -0.0787 -0.1449 -0.0173
81795W        W24708  10.403  14.305  16.735  0.1284 -0.0293 -0.1325
81796W        W24709  14.224  14.468   2.561 -0.1963 -0.0190 -0.1996
81797W        W24710   5.900  11.157   1.852 -0.1097  0.0741 -0.3466
81798W        W24711   0.606  23.933   5.652 -0.1117  0.1005 -0.0856
81799W        W24712   8.459  14.700   8.653 -0.0923  0.0533  0.0516
81800W        W24713  15.290  14.184  29.310 -0.0084 -0.2278 -0.2329
81801W        W24714  14.114  13.078  25.295  0.0188 -0.0743 -0.0743
81802W        W24715  10.934  11.896   6.970 -0.0572 -0.0576 -0.0823
81803W        W24716  14.301  21.905   7.160 -0.1068  0.0070 -0.0541
81804W        W24717   8.856  15.881   3.534  0.4794 -0.2241 -0.1114
81805W        W24718  32.884   1.450  26.278  0.2638 -0.1907 -0.1101
81806W        W24719  18.393  17.096   7.674 -0.5048 -0.0397 -0.0551
81807W        W24720   1.731   2.891  21.730  0.0892 -0.2107 -0.3692
81808W        W24721   9.991  19.212   7.009  0.1744 -0.2482 -0.2473
81809W        W24722   4.896   8.471   0.075 -0.1753  0.0506  0.1447
81810W        W24723  11.303  17.484   5.664 -0.0445 -0.0709 -0.0701
81811W        W24724   9.081  11.314  27.189  0.2346 -0.0201 -0.1153
81812W        W24725  15.365  13.329   8.344  0.1054  0.2338 -0.0810
81813W        W24726  13.991  27.224   8.478  0.1478 -0.3423 -0.2361
81814W        W24727  13.513  12.061   2.865 -0.0821  0.0592 -0.4512
81815W        W24728   9.705  26.605   7.029  0.3433 -0.1563 -0.1088
81816W        W24729  12.929  21.413   0.473  0.1008 -0.2017  0.0356
81817W        W24730  29.487  12.051   0.300  0.0227 -0.0927 -0.1012
81818W        W24731   2.682   2.021   4.549  0.0531 -0.1540  0.1379
81819W        W24732   5.981  18.483   9.899  0.0450 -0.1257 -0.1571
81820W        W24733  17.448  28.637   0.715 -0.0010  0.1149  0.1353
81821W        W24734   9.538   7.858   5.892  0.0042  0.1742  0.0409
81822W        W24735   7.035   9.200   8.712  0.0762 -0.4875 -0.2971
81823W        W24736  15.611  17.179   7.325  0.1415  0.0602  0.0827
81824W        W24737   8.657  21.625   4.114 -0.1032 -0.5115  0.6620
81825W        W24738  32.269  15.169   0.096 -0.4714  0.0793  0.2599
81826W        W24739   9.832   5.532   9.879  0.2732  0.5909 -0.1638
81827W        W24740   5.797   9.520   7.330 -0.0499 -0.0617  0.2718
81828W        W24741   7.377  16.081   9.050  0.0832  0.0796 -0.1808
81829W        W24742  11.686  10.032   2.473 -0.1828 -0.3923  0.0403
81830W        W24743  12.639  19.860   4.186 -0.3104 -0.1962 -0.2018
81831W        W24744  15.049  15.111   4.960 -0.3364  0.0592 -0.1452
81832W        W24745   9.773  32.673   8.812  0.1008  0.2729 -0.1620
81833W        W24746   2.295  11.515   2.142  0.2455  0.0901  0.0078
81834W        W24747   8.172  14.627  10.704 -0.0177  0.2047  0.1493
81835W        W24748  10.634   9.895   7.644 -0.1667 -0.1586 -0.2204
81836W        W24749   6.625  11.682   9.253 -0.0398  0.0681 -0.1159
81837W        W24750   0.814  16.991   2.238  0.1353  0.2242 -0.0817
81838W        W24751   2.787   8.819  11.353  0.0799 -0.1273  0.0298
81839W        W24752   4.263   9.821   2.664  0.1573 -0.2584  0.0875
81840W        W24753  12.172  24.120   5.575  0.1699  0.1698  0.4914
81841W        W24754   9.177  21.249   9.227  0.0948  0.0277  0.0265
81842W        W24755  10.036   5.096  22.442 -0.2850  0.1784 -0.0030
81843W        W24756  18.382  16.492   5.509  0.2451  0.0019  0.0993
81844W        W24757  10.066   7.603  10.898  0.1725  0.0618 -0.0986
81845W        W24758   1.880  11.581   1.826  0.3330  0.3079  0.2296
81846W        W24759  17.430   6.344   9.868  0.0184 -0.2941 -0.1497
81847W        W24760  14.550  19.843  26.915  0.0342  0.0562 -0.1078
81848W        W24761  13.930  14.548   3.874 -0.0031 -0.1108  0.1204
81849W        W24762  11.489  18.015   6.860 -0.0547  0.3553 -0.0291
81850W        W24763   7.327  10.987   6.694  0.1329 -0.1039  0.3081
81851W        W24764  26.628   6.011   9.929 -0.0184  0.1753 -0.1298
81852W        W24765   6.148  17.914   7.725 -0.4038  0.0800 -0.3775
81853W        W24766  10.605  23.103  27.853  0.2098  0.2309  0.0875
81854W        W24767  14.298  18.484   8.014  0.0542  0.1316  0.0351
81855W        W24768   4.873  22.663   8.180  0.0326 -0.2188 -0.1410
81856W        W24769  11.364   7.642   5.507  0.4484 -0.2103  0.0041
81857W        W24770  10.820  18.851   7.199  0.0720  0.1534  0.0597
81858W        W24771   8.447  17.153   7.544 -0.1248  0.2538  0.1530
81859W        W24772   4.311  14.321   9.523  0.0738  0.1901 -0.0659
81860W        W24773  20.302  18.008   1.251 -0.1384  0.0162 -0.3376
81861W        W24774  34.052  29.217   3.746  0.1682  0.2568 -0.0688
81862W        W24775   9.040  12.833   0.607 -0.0496  0.0602  0.2579
81863W        W24776  11.453  21.801   5.080 -0.1990  0.4776  0.0696
81864W        W24777   7.619  11.997   1.600 -0.0564 -0.0003  0.0244
81865W        W24778  14.856  32.620  12.282  0.1949  0.0779 -0.2589
81866W        W24779   4.669  23.709   3.079 -0.0849 -0.0780 -0.1395
81867W        W24780   9.129  23.619   6.494  0.1022  0.1843  0.1863
81868W        W24781  12.036  13.085  10.069 -0.0829 -0.1810  0.5295
81869W        W24782   0.079  29.187  28.090  0.1499  0.4362 -0.0942
81870W        W24783   6.122   5.144  23.562  0.1600  0.0187 -0.1081
81871W        W24784  11.837  21.501   5.042 -0.0414 -0.1153 -0.0173
81872W        W24785  19.017  10.762  28.147  0.0169  0.0405  0.2098
81873W        W24786   4.919  18.752  27.629  0.3979 -0.1793 -0.0064
81874W        W24787  34.490  18.987   9.234 -0.2942  0.2840 -0.0117
81875W        W24788  21.936  20.360   5.402  0.0132 -0.0191 -0.2165
81876W        W24789  33.928  14.625   6.683  0.1312  0.1832  0.2114
81877W        W24790  13.877  16.043   3.392 -0.1217 -0.1047  0.4352
81878W        W24791   0.986  14.805   8.884  0.1477  0.3685 -0.3235
81879W        W24792   2.921  25.413   5.027  0.0778 -0.1937  0.0753
81880W        W24793   2.143  16.775   4.584  0.0656  0.0869  0.1560
81881W        W24794   0.658  21.552   4.294 -0.0473 -0.0862  0.0815
81882W        W24795  14.908   8.513  22.286 -0.4021  0.1314  0.0494
81883W        W24796  16.815  14.919  27.622  0.0338 -0.0047 -0.4103
81884W        W24797  12.120  20.385   6.356 -0.0920  0.1516 -0.4498
81885W        W24798  15.078  15.386   8.660 -0.1842  0.0009 -0.1684
81886W        W24799  28.033  18.866   6.928 -0.2223 -0.0224  0.1076
81887W        W24800   3.569  18.430   5.068 -0.0146  0.0317  0.1899
81888W        W24801  33.608   8.587   3.944  0.0346  0.0143  0.2066
81889W        W24802   3.131  14.537  23.475 -0.2488  0.2593 -0.6549
81890W        W24803   8.743  23.469  27.612 -0.2646  0.2907 -0.1246
81891W        W24804  15.599  29.270   5.147 -0.0997  0.2672  0.1332
81892W        W24805   9.880  12.177   0.983 -0.4333  0.0555  0.1586
81893W        W24806  20.701  18.419   0.905  0.1538 -0.2595 -0.1667
81894W        W24807  10.196  11.168  21.889 -0.0880 -0.3129  0.1220
81895W        W24808  12.263  26.669   8.216  0.1946  0.1390  0.0470
81896W        W24809  13.276  18.777   7.950  0.0187 -0.0407 -0.0005
81897W        W24810   1.028  12.831  25.818  0.0083 -0.0182 -0.0161
81898W        W24811   7.593  32.493   4.313 -0.1398  0.0482 -0.0937
81899W        W24812   9.858  17.345   7.329  0.0533 -0.0359 -0.2031
81900W        W24813  33.619  17.888   6.698  0.1169  0.0436 -0.4652
81901W        W24814  14.131  18.757   7.273  0.2258 -0.1042 -0.2665
81902W        W24815   7.422   6.164  25.859  0.2423  0.0936  0.2170
81903W        W24816  15.132  17.929  28.254  0.0830  0.0674 -0.2320
81904W        W24817   9.379  20.150   7.637 -0.1987  0.1457  0.0531
81905W        W24818   5.997  14.963   4.461 -0.0638  0.2579  0.1523
81906W        W24819   3.880  12.355   9.719 -0.0373  0.1327 -0.2203
81907W        W24820  13.000  22.734   5.334  0.4798  0.1339  0.0496
81908W        W24821   1.374   8.368   4.783 -0.0387 -0.1321  0.0792
81909W        W24822  12.446  34.083   5.927  0.0725  0.2175 -0.0320
81910W        W24823   7.836  16.292   2.642 -0.0954  0.2180  0.0131
81911W        W24824  23.239  14.794   5.229 -0.1285  0.2101  0.2151
81912W        W24825   6.745  33.630   6.931  0.1260 -0.1089  0.1142
81913W        W24826  33.714   8.088   6.754  0.1264  0.1886 -0.3339
81914W        W24827  11.219  16.247   1.905 -0.4270 -0.1593 -0.0459
81915W        W24828  12.994  18.722  23.920  0.0934 -0.1346 -0.5085
81916W        W24829   1.858  18.994   8.210 -0.1866 -0.4191  0.2844
81917W        W24830   8.788   9.949   5.032  0.1140  0.0228 -0.2725
81918W        W24831  11.714  15.754   2.898  0.0989 -0.0967 -0.0436
81919W        W24832   6.265  16.329   7.511  0.1391  0.3320  0.0637
81920W        W24833  12.186  16.998   4.821 -0.0838 -0.1691 -0.2373
81921W        W24834   8.784  11.016   4.566  0.0401 -0.1313  0.1768
81922W        W24835   5.385   9.978  26.742 -0.1132 -0.1690  0.1238
81923W        W24836   9.377  15.968   6.062 -0.0649  0.2083  0.2530
81924W        W24837  10.338  14.586  22.962  0.0253 -0.2760  0.2389
81925W        W24838  16.295  12.823   1.565  0.1283  0.2440 -0.1021
81926W        W24839   8.409  17.060   6.208 -0.2463  0.1096 -0.2439
81927W        W24840  12.922  27.462   7.710  0.1163 -0.0075  0.1286
81928W        W24841   7.960  19.268   3.664  0.0125  0.0111  0.1927
81929W        W24842   1.809  14.675  26.904 -0.1362  0.1223 -0.1588
81930W        W24843   5.823   9.771  10.228  0.2618  0.0594  0.1350
81931W        W24844  16.222   9.993  28.362  0.0923 -0.1874 -0.2375
81932W        W24845   6.088   5.911   8.709  0.0745 -0.3161 -0.1145
81933W        W24846   5.964  17.197   9.856 -0.1487 -0.4192  0.3188
81934W        W24847   4.587  18.229   7.124  0.1462 -0.3099  0.1263
81935W        W24848   6.714  11.345   9.621  0.0230  0.1769  0.1051
81936W        W24849  15.719  14.778   3.051  0.1966  0.1486  0.0348
81937W        W24850  20.166   7.125   5.017  0.2719 -0.0779  0.0606
81938W        W24851   2.802  22.314   9.241 -0.0420  0.3038 -0.2983
81939W        W24852   6.816  25.886   7.545 -0.0064  0.1595  0.2066
81940W        W24853   2.041  10.184   1.156  0.0876  0.2446  0.1446
81941W        W24854   9.417  14.600   5.808 -0.0913 -0.1457 -0.2103
81942W        W24855  20.041  24.235   3.218  0.1683 -0.1248 -0.2303
81943W        W24856   3.584  21.669  21.625  0.2162 -0.0130 -0.0357
81944W        W24857   6.998  10.101  28.022 -0.1384  0.0872  0.2366
81945W        W24858   6.737  18.693   9.016  0.3147  0.4032 -0.1230
81946W        W24859  16.179  18.393  25.491  0.1301 -0.0971 -0.1078
81947W        W24860   9.688  18.923  27.044  0.2404 -0.1066 -0.0253
81948W        W24861  11.138  16.990  28.009  0.0553 -0.2212  0.0073
81949W        W24862  10.730  21.312   4.898  0.3223  0.0556 -0.1817
81950W        W24863  11.441  19.682   3.553  0.2485 -0.0393 -0.1524
81951W        W24864   4.555   8.288   4.610  0.0002 -0.2315  0.2388
81952W        W24865  20.590  24.590   5.088 -0.0394 -0.0144  0.0720
81953W        W24866  10.713  18.041   0.230  0.0917  0.0391  0.0680
81954W        W24867  11.916  18.427   8.067 -0.2341 -0.0017  0.0350
81955W        W24868   4.818  18.364   5.556  0.2056  0.0564  0.2299
81956W        W24869  13.612  23.397   6.749  0.0826  0.1687 -0.0652
81957W        W24870   3.858  12.593   9.250 -0.1626  0.1107  0.0597
81958W        W24871  10.625  13.521   4.249  0.1939 -0.2041 -0.2075
81959W        W24872  16.698  20.383   4.521 -0.2594  0.3220 -0.3126
81960W        W24873   5.301  16.736   9.548  0.3240 -0.2641 -0.0306
81961W        W24874  19.703  18.122   6.611  0.3319 -0.0577 -0.1972
81962W        W24875  17.469  11.569  28.102 -0.1023  0.1973  0.0843
81963W        W24876  13.240   6.200   6.780 -0.3975 -0.1986  0.0049
81964W        W24877   8.443   5.914   0.503  0.2506  0.2220 -0.1600
81965W        W24878  12.161  20.115   8.604  0.2820  0.3201 -0.1716
81966W        W24879   8.848  12.378   0.410  0.6022  0.4851 -0.0460
81967W        W24880  33.738  13.269   5.646 -0.1297 -0.0517  0.0327
81968W        W24881   3.103  10.760  10.541  0.0541  0.3555  0.0454
81969W        W24882  14.596  10.148  28.802  0.0129  0.1308  0.0907
81970W        W24883   3.889  10.018  10.342 -0.0147  0.1006  0.0350
81971W        W24884  13.531  13.849   7.726  0.0321  0.1315 -0.0668
81972W        W24885   9.445   6.467   1.221 -0.3270  0.1470  0.3506
81973W        W24886   7.097  15.520   5.200 -0.1427  0.0406 -0.3169
81974W        W24887   5.715  33.010   9.899  0.1944  0.0439 -0.2040
81975W        W24888   8.601  13.434   8.683  0.2953 -0.0224 -0.3895
81976W        W24889  12.064  17.181   7.786  0.4257  0.0711 -0.0072
81977W        W24890  17.186  11.572   6.117  0.0132  0.1711  0.3589
81978W        W24891  29.056   8.650   1.510  0.2187  0.0729 -0.2816
81979W        W24892  32.502   7.014   9.067 -0.1283  0.2478  0.0696
81980W        W24893   4.505  23.184   6.761 -0.0887 -0.0430 -0.0967
81981W        W24894   2.350  21.597   6.406 -0.4502 -0.0655 -0.0794
81982W        W24895  15.060  10.544   5.646  0.0618  0.0375  0.0532
81983W        W24896  10.975  13.498   8.109  0.0333  0.3269 -0.1399
81984W        W24897  33.746   9.899   3.932 -0.1852  0.1487 -0.0341
81985W        W24898  11.484  12.902   0.083 -0.0402 -0.0291  0.0630
81986W        W24899   7.155  12.158   0.064  0.0895  0.0780  0.0908
81987W        W24900   6.088  19.522  25.878  0.2243 -0.0261  0.0496
81988W        W24901   5.017  27.536   5.011 -0.0630  0.4737  0.1316
81989W        W24902  33.348  26.484   9.678  0.0102  0.1364  0.3251
81990W        W24903  12.170  11.451   4.653 -0.1377 -0.0059  0.1005
81991W        W24904  12.355  26.428  10.898  0.1845 -0.2266  0.0292
81992W        W24905   6.643  12.743   6.120  0.1720  0.2316 -0.0560
81993W        W24906   2.348  19.109   4.856  0.1163  0.1905 -0.1556
81994W        W24907   5.106  11.416   5.783  0.1483 -0.1761  0.0038
81995W        W24908   9.423  22.457   6.294 -0.1293 -0.2748 -0.1683
81996W        W24909  12.760  11.207   9.021 -0.2584  0.1979 -0.1508
81997W        W24910  10.127  29.275   3.700  0.2345 -0.2302 -0.0570
81998W        W24911  16.922  19.755  27.873 -0.2369 -0.0241 -0.1734
81999W        W24912   8.624   3.682   3.761 -0.0159  0.1775 -0.3703
82000W        W24913   7.826  15.752   1.754  0.1199 -0.0171  0.1268
82001W        W24914  16.938   6.585   5.121  0.3603 -0.0102  0.0441
82002W        W24915  15.749  15.391  23.400 -0.1035 -0.1644 -0.2290
82003W        W24916   1.049  31.976   5.920 -0.1648 -0.0964 -0.0852
82004W        W24917   4.227  12.365   4.403 -0.2388 -0.1019 -0.1028
82005W        W24918   0.890  14.230   7.409  0.2379 -0.2722  0.3001
82006W        W24919  14.829   9.538   2.568  0.1570 -0.0782 -0.1984
82007W        W24920   3.751   3.258  12.135 -0.2889 -0.0370  0.0589
82008W        W24921   0.566   9.202   5.226 -0.0386  0.2057  0.1656
82009W        W24922  14.686  27.774   9.919 -0.2223 -0.2632 -0.1400
82010W        W24923   0.441  13.614  28.250  0.3036  0.2672  0.0174
82011W        W24924  34.108  21.407   5.864 -0.0979  0.1500  0.1774
82012W        W24925   2.286   6.272   9.654  0.2840  0.1439 -0.1318
82013W        W24926   5.463   6.514   4.531  0.2398 -0.0269  0.4154
82014W        W24927   7.277   0.866   7.200  0.0427  0.0858 -0.0589
82015W        W24928   6.205  23.562   7.136  0.0053  0.1899 -0.0256
82016W        W24929   9.206  12.869   9.579 -0.0664 -0.0242 -0.1822
82017W        W24930  15.545  18.899  27.413  0.0284 -0.2638  0.0052
82018W        W24931  11.602   3.382   6.672  0.2595 -0.1096 -0.0158
82019W        W24932  10.879  20.143  24.481  0.2497 -0.0223 -0.0281
82020W        W24933   6.015  21.487  23.772  0.0542 -0.3161  0.2647
82021W        W24934  12.478  18.319   3.051  0.0221  0.1299  0.1935
82022W        W24935   6.028   5.980  20.133  0.1546  0.3410  0.0382
82023W        W24936  10.094  27.999   4.665 -0.0085  0.1816 -0.1231
82024W        W24937  27.826  25.382   9.110 -0.1898  0.1104  0.1265
82025W        W24938   4.821   2.294   8.029 -0.1109 -0.0153  0.0248
82026W        W24939   6.096  11.019  11.135  0.1384  0.2091  0.0311
82027W        W24940   1.625  13.320   5.426 -0.4024 -0.0221 -0.0072
82028W        W24941   2.375   9.677  11.236 -0.1927  0.0021 -0.0433
82029W        W24942  12.118  23.089   9.122 -0.3328 -0.2804 -0.1396
82030W        W24943  14.528  14.158   5.192  0.0705 -0.0996 -0.0283
82031W        W24944   7.070  11.396   1.058  0.0806  0.1394  0.0055
82032W        W24945   5.367   7.046   3.351 -0.0705  0.1978 -0.1068
82033W        W24946  13.824   4.717   6.923  0.4803  0.1440 -0.0690
82034W        W24947   0.228  12.945   5.665 -0.0156  0.0967 -0.0110
82035W        W24948  10.652  15.385   7.574 -0.2826  0.1736  0.1627
82036W        W24949  10.904  15.999   2.376  0.0810 -0.0043 -0.2136
82037W        W24950   3.865   9.502   2.583 -0.0036  0.1618 -0.3025
82038W        W24951   8.819  21.004   7.707  0.0311  0.2701  0.2793
82039W        W24952   5.426  14.379  24.357  0.0008  0.4261 -0.1224
82040W        W24953  13.771   9.889   8.072 -0.0002 -0.0335 -0.0323
82041W        W24954   7.277  14.904   3.326 -0.1740 -0.1933 -0.0354
82042W        W24955   2.446  22.252   9.694  0.1081 -0.1043  0.2963
82043W        W24956   4.634  24.866   9.848 -0.2152  0.0356 -0.0555
82044W        W24957   5.532  21.876   9.329  0.2496 -0.2174  0.0216
82045W        W24958  13.686  16.595   3.419  0.0671 -0.0968  0.2442
82046W        W24959   5.374  12.572   1.692 -0.2116  0.1461 -0.1532
82047W        W24960  11.675  16.799  29.748 -0.1496  0.0666  0.0067
82048W        W24961   4.870   9.351   8.468 -0.1196  0.0615  0.4390
82049W        W24962  10.493   6.787   4.036 -0.1963  0.2678  0.0587
82050W        W24963  17.285  14.710   4.784  0.1984  0.0130  0.3465
82051W        W24964  13.088  14.604   7.908 -0.2503 -0.2749  0.1695
82052W        W24965   6.459  21.267   0.782  0.1333 -0.0601 -0.2357
82053W        W24966  14.511   9.442  29.204 -0.1821  0.1436 -0.1811
82054W        W24967  12.157  19.107   0.335  0.0447 -0.0945 -0.1183
82055W        W24968  34.394  15.894   8.812 -0.3637 -0.1893 -0.0542
82056W        W24969  10.573  10.302  10.495 -0.4187 -0.3036  0.2579
82057W        W24970   6.439  18.542   4.249  0.1802  0.0490 -0.2752
82058W        W24971   1.545  21.023   7.985  0.4106 -0.0130 -0.0967
82059W        W24972  17.524  23.771   6.253  0.3437 -0.0802 -0.0275
82060W        W24973   7.732  14.767   6.722  0.1137  0.1994  0.1025
82061W        W24974   3.907   6.069  10.762 -0.0913 -0.2117  0.0344
82062W        W24975   7.636  33.239   1.002 -0.1493 -0.1563 -0.0765
82063W        W24976   1.603   9.861   2.457 -0.2258 -0.0981  0.2715
82064W        W24977   4.267  19.854   6.229 -0.0861 -0.3381  0.1519
82065W        W24978   8.323   7.174   0.680 -0.2537 -0.2005  0.2849
82066W        W24979   7.500  15.910   6.324  0.2648 -0.2331 -0.3740
82067W        W24980   5.480  27.256   8.710  0.2298  0.1945  0.0489
82068W        W24981   9.994  13.626   2.839  0.0818 -0.1035 -0.1494
82069W        W24982   7.487  11.833   8.960 -0.1166 -0.0752  0.1432
82070W        W24983  12.091  18.527   4.535 -0.4935  0.0890  0.1073
82071W        W24984   8.151  33.543   3.689 -0.3699  0.1016  0.2399
82072W        W24985   7.477  16.273   7.736  0.0144 -0.0677 -0.1916
82073W        W24986   3.081  14.872   7.033  0.1604  0.3396  0.2065
82074W        W24987  13.881  17.569  26.084 -0.4002  0.1762  0.0365
82075W        W24988   5.288  15.609   7.008  0.2072 -0.3005 -0.4942
82076W        W24989   7.690  16.048   4.206  0.4205 -0.1290 -0.1310
82077W        W24990   0.143  16.417   7.630 -0.1628 -0.2949 -0.1785
82078W        W24991  12.584  12.686   3.592 -0.0174  0.3793  0.4532
82079W        W24992  12.453  17.384   8.600 -0.1829 -0.1016  0.1192
82080W        W24993  14.567  20.270   7.446  0.3054 -0.2184  0.1530
82081W        W24994  34.174   1.115  25.507  0.1448  0.1928  0.2651
82082W        W24995  30.928  26.218   2.746  0.0017  0.1958 -0.0124
82083W        W24996   4.911  24.569   5.251 -0.0287 -0.1580 -0.1588
82084W        W24997  15.193  34.139  12.061 -0.0285  0.1627  0.0485
82085W        W24998   1.031   3.926   5.447 -0.1974  0.0306 -0.0021
82086W        W24999   9.893  20.998   5.909 -0.1447 -0.3042 -0.1921
82087W        W25000  18.513  18.929   2.536 -0.4204 -0.0111 -0.0396
82088W        W25001  13.294  13.593  29.335 -0.0509  0.1046  0.0521
82089W        W25002  10.373  26.006   7.503 -0.0560 -0.1010 -0.0433
82090W        W25003   3.812  11.144   6.524 -0.1056 -0.0301 -0.1903
82091W        W25004  32.845   7.017  29.611 -0.0780  0.0743  0.0923
82092W        W25005   8.148   8.930   5.936 -0.3023  0.0728 -0.0498
82093W        W25006   2.235  10.492   8.180 -0.1634 -0.2075 -0.0519
82094W        W25007  12.714  16.236  25.358 -0.1162  0.2356  0.1090
82095W        W25008  32.006   6.925  11.230 -0.1717 -0.0336 -0.0504
82096W        W25009  14.930  14.523   8.270 -0.0398 -0.1509  0.2014
82097W        W25010   5.900   7.523   5.306  0.0909 -0.2792 -0.2169
82098W        W25011  11.464  30.523   3.461  0.1472  0.0576 -0.0183
82099W        W25012  12.735  10.647   9.679  0.0283 -0.1340  0.1375
82100W        W25013   3.176  17.884   6.521 -0.0688 -0.1147 -0.1350
82101W        W25014   1.213  13.989   9.340 -0.2590 -0.0606  0.1240
82102W        W25015  33.750   3.412   4.729  0.2887  0.1573  0.2923
82103W        W25016  12.759   8.222   5.559 -0.2065  0.2473 -0.1794
82104W        W25017  14.237  12.773   6.696  0.1347  0.0795 -0.2085
82105W        W25018  11.089  14.199   4.844 -0.0092 -0.2770  0.3131
82106W        W25019  14.978  16.014   4.559  0.3135 -0.3397 -0.0082
82107W        W25020   9.099  16.950   3.877 -0.1840  0.2289  0.0957
82108W        W25021   1.571  16.292   4.249  0.5024 -0.0262 -0.0699
82109W        W25022  16.481  11.690   2.641  0.2886 -0.0523  0.0508
82110W        W25023   1.877  15.409   2.701  0.0784  0.1285 -0.1276
82111W        W25024   7.012  24.031   9.116  0.0396  0.0364  0.0230
82112W        W25025   1.793  26.086  10.998  0.0810 -0.0102 -0.1542
82113W        W25026   6.463  12.062   1.817  0.1146  0.2978 -0.3441
82114W        W25027   6.834  19.501   7.958  0.1756  0.0643  0.0978
82115W        W25028  14.614   4.903   8.236  0.1371 -0.0264  0.0814
82116W        W25029  10.009   0.058   8.185  0.1773  0.1728  0.3498
82117W        W25030  11.449  11.479  26.959 -0.0460 -0.1619  0.0462
82118W        W25031   9.740   9.133   6.238  0.0163  0.2189  0.0457
82119W        W25032   3.411   5.537   9.912 -0.0103 -0.0040 -0.1680
82120W        W25033  14.285   6.682  11.150  0.1099  0.2852  0.3156
82121W        W25034   4.694  11.667  11.337  0.0297 -0.0520  0.1168
82122W        W25035   3.496  21.624   1.755 -0.3908 -0.0369 -0.5115
82123W        W25036   8.544   8.691   7.820  0.0079  0.0589 -0.1268
82124W        W25037  10.242  14.483   2.282  0.2956 -0.0001 -0.4979
82125W        W25038  11.410   3.375   5.651 -0.0661 -0.1922 -0.0777
82126W        W25039  31.987   7.572   2.720 -0.0918 -0.1189  0.0309
82127W        W25040  14.347  17.806   2.099 -0.3148 -0.0335  0.0280
82128W        W25041   4.665  14.402   4.767  0.0542 -0.2949  0.0551
82129W        W25042   4.159  13.499   1.184 -0.1202 -0.0042 -0.2098
82130W        W25043  28.530  23.020   6.948 -0.1670  0.0634  0.3302
82131W        W25044  33.132  17.322   7.000  0.0710 -0.0448  0.1528
82132W        W25045   3.673   4.367  10.517  0.1494 -0.1359  0.5876
82133W        W25046   8.452   5.510   6.035  0.2668 -0.1617 -0.0745
82134W        W25047   7.868   9.641  11.288  0.0600 -0.2263 -0.0833
82135W        W25048  13.719  13.348   6.180 -0.1351  0.0969  0.1482
82136W        W25049   3.217  22.750  22.000 -0.0378  0.0277 -0.1416
82137W        W25050  10.428  19.710  23.260 -0.0595 -0.2156 -0.0524
82138W        W25051   0.003  27.145   4.416 -0.0723 -0.1467  0.2011
82139W        W25052   2.777   9.619  28.158  0.1638  0.1786  0.1458
82140W        W25053   6.962  11.770  10.410  0.2091 -0.2696  0.0391
82141W        W25054  11.329  10.298   7.415 -0.0342 -0.0800 -0.0245
82142W        W25055  13.547  13.816   8.242 -0.2793  0.0048 -0.1606
82143W        W25056   3.206  15.043   0.479 -0.0604 -0.0498  0.0643
82144W        W25057  11.559  22.279  29.444  0.0996 -0.2363  0.0469
82145W        W25058   6.727   7.160  12.265 -0.1753 -0.4073 -0.1398
82146W        W25059  33.378  19.349   7.825 -0.1060 -0.1470  0.4156
82147W        W25060  13.049   4.475   4.155 -0.0406 -0.3793  0.1740
82148W        W25061   6.216   2.993  13.107  0.2907  0.2209  0.0366
82149W        W25062   9.876  20.074   7.575  0.2565  0.2572 -0.1510
82150W        W25063  15.139  15.327   6.145  0.0604 -0.2265 -0.0649
82151W        W25064   8.606  19.305   2.140 -0.0760  0.0148 -0.1809
82152W        W25065  33.933   7.777   7.100 -0.1113  0.1540 -0.1884
82153W        W25066   5.607   6.677  10.394 -0.1363  0.1991  0.0493
82154W        W25067  15.512  20.512   4.936 -0.3033  0.0828  0.0564
82155W        W25068   3.121  11.733  25.392 -0.0353  0.2292 -0.2747
82156W        W25069   9.024   2.410  11.940  0.1990  0.1893  0.1260
82157W        W25070  10.647  13.374   5.767  0.1212 -0.0096  0.1093
82158W        W25071   4.564   8.517  10.560 -0.1345 -0.0916  0.0369
82159W        W25072  11.665  23.885   3.895 -0.1834 -0.1325 -0.2191
82160W        W25073   6.604  22.137   2.545 -0.1542  0.4178  0.1591
82161W        W25074  10.948   8.689   9.522 -0.1330  0.0963 -0.2695
82162W        W25075   2.182   1.265   7.133  0.2390  0.0473  0.0928
82163W        W25076   2.616  29.435  21.706 -0.3365  0.1889 -0.0462
82164W        W25077  30.364  18.034   3.900  0.1574 -0.1026 -0.0532
82165W        W25078  18.609  19.850  27.849  0.3176  0.0272 -0.4253
82166W        W25079  33.115  20.673   5.633 -0.3095  0.1797  0.1184
82167W        W25080   9.610  11.444  10.213  0.1954  0.0106 -0.4319
82168W        W25081  21.071  20.559   2.623  0.0591 -0.0962  0.1011
82169W        W25082   6.818  16.820   7.334 -0.2344 -0.1174 -0.0291
82170W        W25083   0.341  11.882   8.734 -0.2355  0.0023 -0.1105
82171W        W25084   9.200  16.256   3.425  0.1118  0.0659 -0.1949
82172W        W25085   4.694  20.711   5.679  0.1743 -0.1184 -0.1765
82173W        W25086  10.588   8.615   7.625  0.1065  0.4838  0.0850
82174W        W25087   2.221  10.162   4.597 -0.0720  0.0001  0.2387
82175W        W25088   1.518   3.941  25.086  0.2417 -0.3417  0.2077
82176W        W25089  11.374   6.673   3.583 -0.0889  0.0856 -0.2096
82177W        W25090   9.474  18.447   5.671  0.0077  0.1609 -0.2285
82178W        W25091  11.956  21.402   5.835 -0.3244 -0.3093 -0.1042
82179W        W25092   9.284  22.851   5.732 -0.1481  0.0732  0.0354
82180W        W25093  11.671  14.474   8.183  0.1423  0.0674 -0.0993
82181W        W25094   4.042  10.131   8.346 -0.0689  0.1142  0.0132
82182W        W25095   8.517  11.456   9.990 -0.0359  0.1517 -0.1880
82183W        W25096   2.158  21.217   1.093  0.0553  0.0746  0.2547
82184W        W25097  33.959  25.508   4.419 -0.0913  0.1622  0.4344
82185W        W25098  11.892  20.028   9.003 -0.3923  0.0070 -0.0327
82186W        W25099   7.030  13.048   4.325  0.1957  0.1430  0.0770
82187W        W25100  11.099  12.411   8.633 -0.3091 -0.0032  0.0767
82188W        W25101   5.430   4.566   0.810  0.0823  0.0199  0.0008
82189W        W25102   1.442  22.520   5.673  0.0652 -0.0219  0.0145
82190W        W25103  17.400  14.688   6.495 -0.4076 -0.0961 -0.0140
82191W        W25104  33.313  12.546   6.072 -0.1744  0.0863 -0.0433
82192W        W25105  11.625  13.171  28.490 -0.0775 -0.0137 -0.1022
82193W        W25106  12.982  17.914   0.015 -0.1310  0.0083 -0.1643
82194W        W25107  10.060   6.128   9.262 -0.2611 -0.2204  0.1564
82195W        W25108   5.885   8.961   0.222 -0.1541 -0.2162 -0.1338
82196W        W25109  29.363  25.505   8.163  0.1337  0.0648 -0.2003
82197W        W25110   5.691  12.073   6.992  0.2592  0.0904  0.2055
82198W        W25111  28.959  11.024   7.195 -0.2326 -0.1877 -0.0337
82199W        W25112   6.417  14.392   1.286  0.0131 -0.0172  0.1445
82200W        W25113   4.845  13.413   7.392  0.3815 -0.1402 -0.0120
82201W        W25114  10.819   7.892   7.063 -0.1887 -0.3268 -0.0742
82202W        W25115  32.540  12.196   6.207  0.3194 -0.0981 -0.2059
82203W        W25116  13.001  17.025   6.112  0.0581 -0.0903 -0.0575
82204W        W25117   9.638  19.309  27.469  0.3509  0.4022  0.1368
82205W        W25118   1.538  11.018   3.695  0.1275 -0.0840  0.0184
82206W        W25119   6.018   4.446  10.069  0.3210  0.1918  0.2025
82207W        W25120   2.434   4.872   8.071 -0.0829  0.0385  0.3359
82208W        W25121   2.607   9.211   6.807 -0.1897 -0.1430 -0.0879
82209W        W25122   6.390  14.458   4.581  0.3548  0.0003  0.0956
82210W        W25123   5.567  26.389   7.841  0.1808  0.3111 -0.1054
82211W        W25124  14.717  20.016   5.245 -0.1104  0.4068  0.0435
82212W        W25125  11.492  13.958   7.140  0.0497 -0.3925  0.0245
82213W        W25126   9.739  15.761   7.372  0.3729 -0.2046  0.0550
82214W        W25127  30.802  15.554   4.483 -0.2911 -0.1338 -0.0040
82215W        W25128   5.024  32.481   7.537 -0.1336 -0.2016  0.3401
82216W        W25129   6.027   6.333   1.392  0.1486  0.0316 -0.2577
82217W        W25130   2.877  20.742   3.693  0.1509  0.2996  0.0960
82218W        W25131   0.984  15.974   9.782  0.0178 -0.2933 -0.0972
82219W        W25132  13.686   8.161   4.350  0.0090  0.0676 -0.2146
82220W        W25133   4.886  11.175   8.715 -0.0759 -0.2623  0.0263
82221W        W25134   7.624  23.167   8.574 -0.1089 -0.1265  0.4714
82222W        W25135   7.423  23.888   6.317 -0.1717 -0.0266  0.2982
82223W        W25136   4.381  15.046   8.435 -0.0157  0.0078 -0.0480
82224W        W25137   1.385  13.944  10.220  0.1111  0.1575 -0.1316
82225W        W25138   3.767   4.243   8.559 -0.0939  0.1189 -0.0767
82226W        W25139  14.922  28.949   3.768  0.3167 -0.2225  0.0541
82227W        W25140  33.787  19.058   4.415 -0.0882 -0.1868  0.0634
82228W        W25141   6.076  10.442  11.374  0.1326 -0.0988 -0.0345
82229W        W25142  21.883  14.709   1.081 -0.2026  0.1295 -0.4404
82230W        W25143  11.985  10.335  28.461  0.0662  0.0359  0.0820
82231W        W25144   5.677  12.458   5.810 -0.0865 -0.3094  0.2798
82232W        W25145   4.093  27.250   4.182 -0.2205  0.1962 -0.1104
82233W        W25146   1.320  26.051  24.581  0.1120 -0.1258 -0.4159
82234W        W25147   6.771   6.646   8.596  0.0816 -0.1516 -0.1516
82235W        W25148  29.578   4.457   7.936 -0.1482  0.0747 -0.0334
82236W        W25149   8.773  19.664   2.881  0.2240  0.1310 -0.1615
82237W        W25150  30.270   8.278   2.665 -0.2372 -0.0332 -0.0479
82238W        W25151  34.119  16.329  27.474 -0.1089 -0.1513  0.2259
82239W        W25152   3.402  13.537   9.047  0.0637 -0.2365 -0.0826
82240W        W25153  15.486  15.766  26.127 -0.2030  0.0890  0.5203
82241W        W25154  11.780  28.581   6.125 -0.0797 -0.0199  0.1078
82242W        W25155   6.092   5.131  10.690  0.0919  0.3536  0.3793
82243W        W25156   8.189  13.837   4.295 -0.1325 -0.1912  0.1172
82244W        W25157   3.355   0.313   6.040  0.3271  0.2988  0.1730
82245W        W25158  10.156  11.068   3.004  0.2045 -0.0999 -0.2065
82246W        W25159  12.100  14.242   8.015 -0.2357  0.1756 -0.2377
82247W        W25160   2.711  22.749   9.696  0.3668  0.0607  0.1060
82248W        W25161   3.095  12.869  29.564 -0.2767 -0.1821 -0.3274
82249W        W25162  32.292  16.033  10.176 -0.0145 -0.0611  0.2985
82250W        W25163   8.933  12.279   9.217 -0.0027  0.1626  0.0911
82251W        W25164   3.726  16.222   9.439  0.1059  0.2473 -0.1092
82252W        W25165  19.183   3.298   3.293  0.1634  0.0050  0.1824
82253W        W25166  12.603   1.088  11.187  0.0804 -0.2362 -0.0357
82254W        W25167   3.566  16.324   5.937  0.0531  0.0455  0.4386
82255W        W25168  27.038   5.829   7.301  0.1464 -0.2567  0.2875
82256W        W25169   7.156  11.473   8.375  0.1297 -0.0295  0.1557
82257W        W25170   7.153   2.051  12.714 -0.1803 -0.0769  0.1123
82258W        W25171   7.025  12.184   6.041 -0.1017 -0.0089  0.0036
82259W        W25172   8.027  14.199   3.997 -0.1335  0.1658 -0.2100
82260W        W25173   9.264  14.388   6.718  0.0613  0.0533  0.1530
82261W        W25174   5.309  11.165  10.871  0.0987  0.2178  0.3093
82262W        W25175  12.536  13.892   5.851  0.1905  0.2441 -0.1308
82263W        W25176   2.320   6.249   7.231 -0.0769  0.3995  0.0458
82264W        W25177   5.209   5.206   2.980  0.3951  0.1035 -0.2391
82265W        W25178  10.073  12.135   5.049 -0.0471  0.3578 -0.0744
82266W        W25179  23.342  18.184   6.312  0.1907  0.0476 -0.1021
82267W        W25180   1.678  17.417   4.783  0.2065  0.0069 -0.4207
82268W        W25181   6.071  10.565   9.791  0.3107  0.3147 -0.0900
82269W        W25182   6.464   8.655   6.395  0.5368  0.3750  0.1544
82270W        W25183   9.302   8.240  12.319  0.0098 -0.2698  0.1215
82271W        W25184  15.587  14.080   4.139  0.0346 -0.1254  0.0041
82272W        W25185   7.483  17.690   8.134 -0.0604 -0.0162 -0.0364
82273W        W25186  11.162  22.067   7.234  0.0713 -0.1367 -0.3005
82274W        W25187   5.843  24.854   5.171 -0.2664  0.1589  0.1666
82275W        W25188   5.982  16.819  27.194 -0.1520 -0.2122 -0.0298
82276W        W25189  13.689  13.583   2.443  0.0597  0.3114  0.1735
82277W        W25190   9.028  25.127  20.161 -0.2515 -0.2720  0.3941
82278W        W25191  22.686  30.034  23.786 -0.0297  0.1196 -0.1430
82279W        W25192   7.366  30.626   3.930 -0.2103  0.1334 -0.0273
82280W        W25193   3.957  15.812  24.539 -0.1873  0.1052 -0.1194
82281W        W25194  12.592  26.575   4.683  0.0951  0.0761 -0.1665
82282W        W25195  21.273  15.668  24.790  0.0581  0.0003  0.0976
82283W        W25196  10.456  13.592  17.298  0.0371 -0.1538  0.1156
82284W        W25197  11.784  25.172   4.072  0.0029 -0.1704 -0.1904
82285W        W25198  12.411  24.281  23.321 -0.0106  0.0047 -0.1234
82286W        W25199  15.748  15.876   1.243  0.0237  0.0449  0.2744
82287W        W25200   8.038  20.815   4.034 -0.0691 -0.1516  0.0363
82288W        W25201   5.946  19.053   6.092  0.0949  0.1360 -0.0873
82289W        W25202  12.172  19.581  26.242  0.2935 -0.1053  0.1217
82290W        W25203  11.939  27.843   5.438  0.1052 -0.0577 -0.3642
82291W        W25204   2.361  23.157   6.483 -0.1296 -0.3561  0.1411
82292W        W25205   8.233  21.277   2.949 -0.0583 -0.1808 -0.0407
82293W        W25206  18.922  11.313  29.502 -0.0777  0.2070  0.0213
82294W        W25207   9.029  27.673   3.661 -0.2215  0.3065  0.2531
82295W        W25208   9.742  19.644   6.166 -0.2129  0.1033 -0.0744
82296W        W25209  10.347  20.180   2.035 -0.0169 -0.0203 -0.0351
82297W        W25210  11.494  11.195   9.166  0.0891 -0.0346 -0.0800
82298W        W25211   5.924  12.315  27.135 -0.0356  0.0590 -0.1036
82299W        W25212  14.109  25.980   1.165  0.1414 -0.1058 -0.0208
82300W        W25213   7.602  13.817   7.771 -0.3845  0.1543  0.0345
82301W        W25214  20.377  15.043   0.332  0.2832  0.0837  0.1940
82302W        W25215  12.663  30.437   8.892 -0.3452  0.0873 -0.0255
82303W        W25216   5.999  26.595  26.068 -0.2250  0.0596 -0.4411
82304W        W25217   5.241  12.191  23.272 -0.1177 -0.1923  0.1731
82305W        W25218   8.967  17.032  27.998 -0.0532  0.2289  0.0552
82306W        W25219   6.542  23.883   2.504  0.2233 -0.0452 -0.0190
82307W        W25220   8.563  22.603   7.470  0.0100 -0.0291 -0.2415
82308W        W25221   8.178  16.686   2.516  0.1470 -0.1389 -0.0317
82309W        W25222  30.490  15.522  28.941 -0.3312 -0.0923 -0.1365
82310W        W25223  10.025  30.032   7.804 -0.1202 -0.0601 -0.0503
82311W        W25224   5.200  25.747   0.724  0.1141 -0.0135  0.2022
82312W        W25225   1.629  22.158   8.036 -0.4177  0.1284  0.1007
82313W        W25226  14.716  10.774  29.574 -0.0708 -0.0730 -0.3619
82314W        W25227  10.651  24.818  25.524 -0.1012 -0.2211  0.3217
82315W        W25228  10.124  24.077  27.722  0.3033 -0.0164 -0.1810
82316W        W25229  13.736  30.692   0.368  0.2628 -0.3812 -0.2400
82317W        W25230   5.531  27.188   4.701  0.0839  0.1724 -0.3955
82318W        W25231   2.643  21.947  28.339  0.0622 -0.1525  0.1926
82319W        W25232  15.401  17.541  27.348  0.2709  0.0338  0.0293
82320W        W25233  10.620  22.852  29.437  0.0532 -0.0099 -0.1257
82321W        W25234   8.630  30.421  25.759  0.2860 -0.1594  0.2227
82322W        W25235  14.643  12.388   6.534  0.1000 -0.0619 -0.0258
82323W        W25236   4.176  17.960   4.456  0.0146 -0.0855 -0.3215
82324W        W25237  13.932  26.900  29.152 -0.0918  0.5074 -0.0935
82325W        W25238   0.313  21.576  10.288 -0.1546  0.0260  0.1509
82326W        W25239  20.242  24.717   6.563  0.2648 -0.1430  0.4149
82327W        W25240   3.544  19.452  21.604 -0.5252 -0.1358  0.0631
82328W        W25241  16.596  34.029  10.248  0.1025 -0.1168  0.1359
82329W        W25242  31.928  27.245   0.585 -0.2615  0.0176 -0.0770
82330W        W25243   4.720  16.989  26.352 -0.2088 -0.1877 -0.0211
82331W        W25244   9.754  16.412   4.364 -0.0415  0.1423  0.0132
82332W        W25245  18.597  18.865   1.479  0.2763 -0.4130 -0.1599
82333W        W25246   7.350  18.001   2.714  0.1656  0.0648  0.1352
82334W        W25247  14.120  23.673   3.579  0.3438  0.0280  0.1073
82335W        W25248  26.367  24.521   6.761  0.0695  0.0434 -0.0355
82336W        W25249  32.329  27.484   8.277 -0.0206 -0.0980  0.0557
82337W        W25250   4.854  19.471   9.073 -0.0931 -0.2356 -0.0421
82338W        W25251  12.396  28.183  28.442 -0.0201 -0.2646  0.1598
82339W        W25252  10.808  28.744   7.550  0.1297 -0.0838  0.3170
82340W        W25253   9.239   3.975   1.664 -0.0196  0.1362  0.0230
82341W        W25254  18.608  22.483  18.279 -0.1612 -0.1397 -0.1145
82342W        W25255  11.225  33.146   4.273  0.1956 -0.3478  0.1441
82343W        W25256  15.034  19.843  23.007  0.2358  0.0769  0.1755
82344W        W25257  22.266  16.588  29.171 -0.2995  0.2216 -0.1272
82345W        W25258  13.369  24.368   8.806 -0.0323  0.0634  0.2911
82346W        W25259   3.411  20.513   2.936  0.3731 -0.1370  0.1115
82347W        W25260   8.225  26.509   1.821  0.1846 -0.0375  0.0386
82348W        W25261  14.227  25.801   4.383 -0.1748  0.1674 -0.3063
82349W        W25262   5.244   7.123   6.074 -0.2077  0.0762  0.1461
82350W        W25263  14.060  15.596  24.993  0.0589  0.0554 -0.0948
82351W        W25264  12.993  21.605  25.401  0.0811 -0.1610  0.1080
82352W        W25265  14.762  21.201  27.386  0.1918  0.2226 -0.1048
82353W        W25266   7.749  27.998  29.117 -0.1960  0.0032  0.4402
82354W        W25267   2.723  16.972   6.786 -0.0330 -0.2375 -0.2626
82355W        W25268   2.947  15.796   2.755 -0.1142  0.0647 -0.0818
82356W        W25269  10.858  18.481   2.397  0.3625  0.1877 -0.1244
82357W        W25270  13.356  20.571   0.807  0.0033  0.3231  0.0246
82358W        W25271  12.220   7.909   9.675 -0.2141 -0.1365  0.1715
82359W        W25272  12.500  17.201  26.283 -0.3757  0.1438 -0.1598
82360W        W25273   4.772  15.935   2.950 -0.0391  0.0170 -0.0235
82361W        W25274  10.442  18.640   2.129  0.2230  0.0572 -0.1452
82362W        W25275   2.451  26.791  18.967  0.2434  0.0156  0.1719
82363W        W25276  19.537  11.624  27.799 -0.3807  0.3336  0.1790
82364W        W25277   8.833  24.702   1.865 -0.1667 -0.0648  0.0067
82365W        W25278   9.871  24.285  28.589 -0.3198  0.0203 -0.0932
82366W        W25279   7.757  25.111   9.671  0.0831  0.2741 -0.0736
82367W        W25280  12.675  18.807   8.506 -0.1714  0.0228  0.4469
82368W        W25281  12.881  33.733   7.260 -0.1592  0.0321  0.3854
82369W        W25282   6.684  30.096   4.833  0.1045  0.1464  0.1287
82370W        W25283   9.774  23.789   3.882  0.0075 -0.0293 -0.0315
82371W        W25284   1.603  22.632  28.451 -0.0843  0.2553  0.0934
82372W        W25285   4.081  22.099  28.952  0.1341  0.2707 -0.1083
82373W        W25286   7.910  23.836   7.751  0.3138  0.1641  0.1460
82374W        W25287  10.398  23.182   2.339  0.0408 -0.0836 -0.0737
82375W        W25288  14.738  15.810   3.383  0.0381 -0.1647 -0.1121
82376W        W25289   7.898  23.269   2.640 -0.1261 -0.2277 -0.5127
82377W        W25290   8.553  22.279   8.712  0.0712 -0.1492  0.2223
82378W        W25291  11.485  12.696  29.353 -0.1883 -0.4218  0.1369
82379W        W25292   9.550  34.440  29.354 -0.1811 -0.2824  0.2621
82380W        W25293   9.112  28.850   7.749 -0.1008  0.2814 -0.1592
82381W        W25294   4.136   4.621   7.198 -0.1969 -0.0865  0.0227
82382W        W25295  21.456  18.438  26.243 -0.2119 -0.1119  0.1326
82383W        W25296   3.717   2.674  24.161  0.1577 -0.0359 -0.0223
82384W        W25297  12.937  16.707   5.410  0.3169 -0.0498  0.2558
82385W        W25298   3.724  14.295   6.523  0.1848  0.1675  0.0991
82386W        W25299  10.337  32.108  28.704  0.4057  0.1507 -0.0518
82387W        W25300  17.524  16.836  24.521  0.0707  0.0777 -0.0458
82388W        W25301   1.776  14.864  26.099  0.2030  0.2014 -0.0100
82389W        W25302  16.300  24.986   5.836  0.0006  0.0725  0.4255
82390W        W25303  33.925  18.690   4.828  0.1923 -0.2679 -0.0817
82391W        W25304   2.400  21.404   1.836 -0.2039 -0.0474 -0.2411
82392W        W25305  17.791  33.013   2.876  0.1668  0.1763 -0.1493
82393W        W25306  19.336  26.186  29.563  0.0208  0.0092  0.3351
82394W        W25307   6.338  33.054   9.532 -0.0651 -0.2373  0.5345
82395W        W25308  11.894  17.465  28.880 -0.2720 -0.0593 -0.1784
82396W        W25309   5.220  11.995   7.846 -0.0266  0.1301 -0.0326
82397W        W25310   3.595  12.981   4.525 -0.1303  0.1930  0.0004
82398W        W25311  10.181  15.552   2.004  0.2152 -0.0320 -0.1321
82399W        W25312  11.032  13.266  26.524 -0.0310 -0.0961 -0.0037
82400W        W25313  11.461  26.274  10.921 -0.1306 -0.0788  0.0367
82401W        W25314  10.283  31.586   4.023  0.1046  0.0124  0.0584
82402W        W25315   2.376  17.907   5.332  0.3217  0.1068 -0.0160
82403W        W25316  13.051  19.616   4.509  0.1821  0.2724  0.2385
82404W        W25317   9.040  14.375   3.717 -0.2593  0.0633  0.0495
82405W        W25318  21.355  19.909   4.168 -0.0293 -0.1597  0.0990
82406W        W25319   3.011  18.487  29.343 -0.0621  0.3606 -0.2523
82407W        W25320  10.044  14.340   9.717 -0.0513 -0.0868  0.0804
82408W        W25321  17.897  30.684  28.121  0.1918  0.0713 -0.2320
82409W        W25322   1.459  19.339   7.181  0.4198 -0.0836 -0.1298
82410W        W25323  10.071  22.734   8.613 -0.1951 -0.1247 -0.0405
82411W        W25324  14.445  25.055   0.637 -0.0624  0.1456 -0.4257
82412W        W25325   0.307  21.813   9.810 -0.0395 -0.2688  0.1946
82413W        W25326  32.727  11.395   2.291  0.1245  0.0231 -0.0721
82414W        W25327  15.429  19.608   3.846 -0.0047  0.1498 -0.0279
82415W        W25328   2.013  14.623   6.412 -0.1481  0.0483  0.4519
82416W        W25329  16.614  29.021   5.073  0.1328 -0.0120  0.1329
82417W        W25330  11.603   8.716  20.309  0.0074 -0.2974 -0.1559
82418W        W25331  17.210  20.562   0.503  0.0925  0.2767 -0.1176
82419W        W25332  12.246  22.222   8.751 -0.0389  0.4911  0.1654
82420W        W25333  10.048  25.353   2.281  0.1784 -0.0828  0.1371
82421W        W25334  17.095  31.727   4.429 -0.1307 -0.2990  0.1080
82422W        W25335   7.039  27.046   9.067  0.0344  0.2279  0.0981
82423W        W25336   8.167  21.721   7.472  0.0350  0.2474 -0.2978
82424W        W25337  10.876  20.596  25.074 -0.1475  0.1767  0.1617
82425W        W25338  13.105  21.876  23.824 -0.2571 -0.1753  0.1061
82426W        W25339  12.717  21.207   6.398 -0.0594  0.0199  0.0818
82427W        W25340  22.449  25.194   5.822  0.1525  0.0059 -0.2605
82428W        W25341  15.555   8.930   4.095 -0.1247 -0.0615  0.3310
82429W        W25342  10.423  14.874   7.544  0.2425 -0.0918 -0.0055
82430W        W25343   7.387  26.431  29.331  0.3457 -0.0653  0.1387
82431W        W25344   7.758   7.788  12.054  0.0416  0.0997  0.0911
82432W        W25345   8.191  12.643   9.437 -0.2223 -0.0019  0.2108
82433W        W25346   5.392   9.663  25.644 -0.2236 -0.2954  0.1862
82434W        W25347  11.821  24.454  25.089  0.0559 -0.0613  0.1067
82435W        W25348  33.766   9.804  28.800  0.1307  0.2504  0.0903
82436W        W25349   7.706  24.137   5.382 -0.1974  0.0479 -0.3151
82437W        W25350   5.603  20.535   8.961 -0.0296  0.0280  0.2854
82438W        W25351  13.507  27.581   7.663  0.1979  0.1410  0.0367
82439W        W25352  17.537  30.787   7.660 -0.0876 -0.0412  0.0128
82440W        W25353  10.568  14.191  24.494  0.1038 -0.0582  0.0890
82441W        W25354  10.294  25.927   8.900 -0.1713  0.3118  0.0242
82442W        W25355   8.018  17.595  18.144 -0.0135  0.0250 -0.0730
82443W        W25356   6.253  25.482   1.035 -0.0310 -0.1402  0.0719
82444W        W25357   0.069  19.413   6.739  0.0337 -0.1880 -0.0987
82445W        W25358   0.323  28.964   9.021  0.3332  0.0797 -0.0791
82446W        W25359  18.246  27.537   9.332  0.0938 -0.0098 -0.1958
82447W        W25360   0.236  21.379  27.104  0.1433 -0.0220 -0.0499
82448W        W25361   9.574   4.312   1.610  0.2143 -0.0557  0.0850
82449W        W25362  12.172  23.068  24.975  0.1560 -0.1703 -0.2987
82450W        W25363   7.232  16.218  26.961  0.1426 -0.0056 -0.1279
82451W        W25364   2.449  27.937  29.067 -0.0579 -0.1503  0.2022
82452W        W25365  33.017  11.990   3.459 -0.1696 -0.0049 -0.3151
82453W        W25366  12.224  24.910   8.203  0.0795 -0.1343 -0.2648
82454W        W25367   9.899  26.593   1.004 -0.0425  0.1420 -0.0734
82455W        W25368  10.638   5.985  11.519 -0.0549 -0.3508  0.3280
82456W        W25369   8.637  18.039   4.934  0.1269  0.0584 -0.0360
82457W        W25370  15.209  20.712   0.590  0.1996  0.0132  0.0270
82458W        W25371  19.163  11.425  20.728 -0.3439 -0.1921  0.0653
82459W        W25372   6.950   9.693   5.458 -0.1042  0.0086 -0.0895
82460W        W25373   9.348  21.701  25.975 -0.0903 -0.3534  0.0239
82461W        W25374  12.748  28.932   7.184  0.1288 -0.3869 -0.1136
82462W        W25375  15.525  20.247   6.886 -0.1906 -0.2008  0.0196
82463W        W25376   4.515  15.654   4.618 -0.1564  0.1350 -0.1346
82464W        W25377  14.497  28.152   5.307  0.2166 -0.0269 -0.2543
82465W        W25378  18.820  19.065   7.130 -0.0694  0.0690 -0.0719
82466W        W25379  34.234  26.545   0.874 -0.0789  0.1284 -0.2508
82467W        W25380  15.477  23.316  22.210 -0.1517  0.3984  0.3022
82468W        W25381   7.470  13.122   4.696 -0.0019  0.0054  0.0910
82469W        W25382  17.175  29.320   5.126 -0.2110  0.2217  0.2588
82470W        W25383   8.087  15.881   6.309  0.0466 -0.3147 -0.1845
82471W        W25384   7.627  29.543   5.187 -0.0292 -0.1568  0.1122
82472W        W25385   6.887  19.607   1.106 -0.1248  0.3137  0.0345
82473W        W25386   9.590  14.542  27.322  0.0648 -0.0189 -0.1387
82474W        W25387   9.472  26.779   5.534 -0.0337  0.1238  0.1209
82475W        W25388   7.120  19.517   2.024  0.1613 -0.1689  0.1996
82476W        W25389  10.472  21.571   5.235 -0.2282 -0.1869  0.2362
82477W        W25390  11.920  21.958   9.691 -0.1880 -0.3738  0.1257
82478W        W25391   5.839  15.623   3.874 -0.1837 -0.0305 -0.0109
82479W        W25392  11.595   9.542   2.147 -0.2090 -0.3519  0.0911
82480W        W25393   8.442  32.156   5.473 -0.3435  0.2006  0.1315
82481W        W25394   9.115   4.935   3.305  0.0750  0.0259  0.3321
82482W        W25395   7.739  20.680   8.978  0.1964  0.0612  0.1299
82483W        W25396   8.780  25.616  25.708 -0.2213  0.0377  0.0883
82484W        W25397  11.969  11.615   7.419 -0.2281  0.0264  0.0596
82485W        W25398   2.945  14.080  26.649 -0.0908  0.2233  0.0530
82486W        W25399  12.805  31.855   0.640  0.1350  0.0351  0.0522
82487W        W25400   1.120  16.722   7.339  0.2402  0.0114 -0.0212
82488W        W25401  11.672  16.224   7.147  0.1954  0.1236  0.0401
82489W        W25402  33.445   9.087  24.132  0.1474  0.1774  0.1715
82490W        W25403   4.964  18.250   4.449 -0.1604  0.1928 -0.1564
82491W        W25404  26.018  25.557   7.743 -0.0660  0.0731 -0.3061
82492W        W25405   5.585   7.174   9.367  0.1850  0.1168 -0.0976
82493W        W25406   9.274   8.752   0.014 -0.2425 -0.1080  0.0823
82494W        W25407  14.261  28.234   9.075  0.0449  0.1138  0.1366
82495W        W25408  19.887  27.842   5.804  0.0795  0.3362  0.2411
82496W        W25409   9.519  15.039  25.136 -0.1140 -0.0963  0.0332
82497W        W25410  22.038  20.602   1.280 -0.1550  0.0823 -0.0427
82498W        W25411  11.989  10.829   4.774  0.0046 -0.2835 -0.0449
82499W        W25412  12.751  20.690   6.474 -0.1196 -0.5161  0.2624
82500W        W25413  11.470  26.157   9.635  0.0465  0.0506 -0.3640
82501W        W25414  16.673  21.241   4.679 -0.3875  0.0347  0.1192
82502W        W25415  21.099  24.782   4.984  0.1901  0.0191 -0.1723
82503W        W25416  22.411  14.542   1.997  0.0394 -0.1924  0.1772
82504W        W25417   2.408  21.293  21.232  0.0359 -0.1986 -0.0117
82505W        W25418  11.765  15.778  22.432  0.0652 -0.0028 -0.1424
82506W        W25419  13.750  14.806  29.405 -0.1656 -0.1382 -0.1021
82507W        W25420   3.666  23.517   7.216 -0.2064 -0.2082  0.0391
82508W        W25421   0.448  22.528   4.831 -0.1025 -0.2106  0.1019
82509W        W25422  12.390  21.710   2.681 -0.1308  0.3119  0.0605
82510W        W25423   9.246  16.726  20.237 -0.1314  0.0373  0.2537
82511W        W25424   6.780  23.481   5.971  0.1833  0.0842 -0.2509
82512W        W25425  11.207  25.775  24.699 -0.0307 -0.0853 -0.0593
82513W        W25426  15.584  29.785  21.375  0.0131  0.1364  0.2807
82514W        W25427  13.855  21.047   3.403 -0.1469  0.1863 -0.0992
82515W        W25428  14.276  13.758   0.521 -0.0769 -0.1510 -0.1056
82516W        W25429  32.338  20.703   1.639  0.2033 -0.1079  0.1035
82517W        W25430  33.488  10.222   0.096  0.4122  0.0340 -0.0117
82518W        W25431   8.755  27.303  23.316 -0.2393  0.2672 -0.2140
82519W        W25432  11.559  19.557   5.486 -0.0725  0.2723  0.3018
82520W        W25433  24.227  32.766   3.344  0.2016  0.2159  0.0028
82521W        W25434  34.131  17.811  26.202 -0.2492  0.1960  0.1923
82522W        W25435   7.363  24.476   2.822  0.1732  0.0903  0.1546
82523W        W25436  12.710  16.651  25.087 -0.1411  0.1937  0.2369
82524W        W25437   2.605  21.920   6.720 -0.2006 -0.0947  0.1095
82525W        W25438  10.997  18.565   6.780 -0.5367  0.2929  0.1371
82526W        W25439   1.213   6.432  23.311 -0.0389  0.0820 -0.0911
82527W        W25440   4.269  31.340   4.940 -0.1391  0.3321 -0.1477
82528W        W25441   4.647  27.311   8.427 -0.1292  0.2918 -0.1130
82529W        W25442  10.592  14.250  21.600  0.2291  0.0731  0.1741
82530W        W25443   2.441  20.112   9.680 -0.0642  0.0758  0.0519
82531W        W25444   4.662  24.030  29.208 -0.3287 -0.0581  0.1559
82532W        W25445   8.808  16.411   7.884  0.1094  0.0373  0.0497
82533W        W25446   4.435  10.454   5.246 -0.1708 -0.0403 -0.3446
82534W        W25447   8.924  28.557   0.848  0.3886  0.0171 -0.0063
82535W        W25448  18.556  26.356   9.823 -0.0662  0.6746  0.2508
82536W        W25449  13.408   8.625   1.154 -0.0624  0.3885 -0.0712
82537W        W25450   9.867  25.313   6.323 -0.0174 -0.0412 -0.1941
82538W        W25451   6.342  19.190   5.844 -0.2142 -0.1585 -0.3015
82539W        W25452   7.212   0.198  27.527 -0.3534 -0.3836  0.1901
82540W        W25453   6.040  14.185   0.827 -0.3445 -0.2731 -0.1050
82541W        W25454  10.178  11.897   1.355 -0.0587  0.4481 -0.2440
82542W        W25455  11.044   2.650  19.223 -0.0516  0.0729 -0.1399
82543W        W25456   7.702  27.092  10.220 -0.0252 -0.0709  0.0740
82544W        W25457  15.467  17.657  27.923 -0.1843 -0.2509  0.4320
82545W        W25458  11.117  22.005  29.359  0.0038  0.2772  0.1633
82546W        W25459   9.722  13.119   9.711  0.1479  0.3828 -0.0633
82547W        W25460  15.679  20.316   1.060  0.0220 -0.3066 -0.0828
82548W        W25461   3.274  21.865   7.611  0.1305  0.3146  0.2417
82549W        W25462  11.217  28.955   3.159  0.0425 -0.0205 -0.1718
82550W        W25463  12.296  19.735  26.756  0.0299  0.2601 -0.3442
82551W        W25464  26.267  28.552  25.619  0.2884  0.0910 -0.2032
82552W        W25465   5.679   9.813   3.337  0.3706  0.1758 -0.1215
82553W        W25466   7.290  20.586   8.728  0.0515 -0.1345 -0.1267
82554W        W25467  13.181  21.755  14.589  0.4316  0.1377  0.0211
82555W        W25468   5.101  20.935   3.678  0.2882 -0.1468 -0.1167
82556W        W25469   9.762  20.985   3.642  0.1409 -0.0304  0.1624
82557W        W25470  16.667  18.030   2.885  0.1277  0.0149 -0.0405
82558W        W25471   9.172  20.677   5.302 -0.1218  0.1073  0.0838
82559W        W25472   3.569  22.427   6.743 -0.1392 -0.0033  0.0263
82560W        W25473   1.299  20.095   0.919  0.1717  0.0002 -0.1849
82561W        W25474  20.703  33.161  26.240 -0.1391 -0.0572 -0.0537
82562W        W25475  10.840  22.224  25.554 -0.0934 -0.1626  0.2178
82563W        W25476   9.794  18.661   1.162 -0.5090  0.0852 -0.0224
82564W        W25477  31.648  27.328   1.005 -0.1987  0.0806 -0.0092
82565W        W25478  12.384  20.792  24.781  0.1033 -0.3086 -0.1710
82566W        W25479   5.105  23.243   4.086  0.2521  0.1909 -0.0427
82567W        W25480  13.453  22.774   0.764  0.1091 -0.1928 -0.1844
82568W        W25481   4.014  14.190   2.435 -0.0567  0.0983  0.0110
82569W        W25482  12.556  27.198  25.882  0.2235  0.0473  0.1465
82570W        W25483  13.161  10.440  28.743  0.0791  0.0886 -0.2680
82571W        W25484   4.582   7.503  27.724  0.1899 -0.1508  0.1045
82572W        W25485   8.062  27.147   4.152 -0.0924 -0.1667 -0.1682
82573W        W25486   7.107   7.064   2.663  0.4968  0.0644  0.2334
82574W        W25487   4.665  28.706  10.573 -0.0808 -0.3912  0.0137
82575W        W25488  21.516   8.424   8.963  0.0698 -0.3270  0.1377
82576W        W25489  12.840  14.895   5.027 -0.2439  0.1419  0.2618
82577W        W25490  15.897  15.465  23.980 -0.0638 -0.0470  0.1920
82578W        W25491  11.894  16.969   8.858  0.0588  0.0228 -0.2590
82579W        W25492  17.780  14.502   1.054  0.2508 -0.1663  0.0468
82580W        W25493  14.452  18.703  26.932  0.0126 -0.0493  0.3992
82581W        W25494   1.922  23.656   1.480 -0.0963  0.0258 -0.2783
82582W        W25495   4.945   8.928  26.313 -0.0241  0.0620  0.0752
82583W        W25496  14.266   8.492  27.249 -0.2335  0.3627  0.1558
82584W        W25497  11.003  22.500   4.339  0.2835  0.1444 -0.0069
82585W        W25498   0.434   7.555  27.660 -0.1151 -0.3960 -0.0530
82586W        W25499   2.975  10.847  18.782 -0.1878 -0.1907 -0.1276
82587W        W25500  10.003  20.320   0.935 -0.0361 -0.1109  0.0026
82588W        W25501  19.156   6.005   0.451  0.1973  0.0666 -0.0825
82589W        W25502  13.738  27.760   6.715  0.1676 -0.0129  0.3831
82590W        W25503   9.779  26.899  23.928  0.3393  0.1570 -0.0722
82591W        W25504  11.665  28.514   8.277 -0.2732 -0.2140 -0.0143
82592W        W25505   4.839  13.961  16.496  0.2710 -0.0538 -0.0708
82593W        W25506  21.198  23.239   8.549 -0.0107 -0.3107 -0.0136
82594W        W25507   8.185  18.654   0.902 -0.0406 -0.0317 -0.0120
82595W        W25508   3.467   8.854   5.561  0.0080  0.0829 -0.1703
82596W        W25509  14.372  22.092   4.379 -0.0752  0.0600 -0.0004
82597W        W25510   8.753  13.313   4.912  0.1212  0.0923  0.0350
82598W        W25511  19.914  21.071   3.054 -0.0333  0.1725  0.0569
82599W        W25512   5.811  22.987  26.117 -0.0921 -0.3650 -0.0272
82600W        W25513   5.693  29.156   5.468  0.0591 -0.2008  0.1569
82601W        W25514   5.974  22.665   1.949 -0.1432 -0.0186 -0.1230
82602W        W25515  18.869  18.447   0.130  0.5196  0.1277  0.0166
82603W        W25516  10.916  22.497  26.727  0.1742 -0.2006 -0.0439
82604W        W25517   1.244  22.226   7.765 -0.0372  0.2411 -0.2832
82605W        W25518  14.196  17.903  24.168  0.1033  0.1297 -0.3355
82606W        W25519   9.568  22.519   4.455  0.0559 -0.0763  0.0680
82607W        W25520   7.908  20.427  29.345 -0.0151  0.1601  0.0059
82608W        W25521  10.157  29.707   5.887 -0.0948  0.2881 -0.0503
82609W        W25522   9.802   8.341  10.538 -0.0478  0.0555 -0.1505
82610W        W25523  18.155  19.669  25.053 -0.2310 -0.2638  0.0607
82611W        W25524  11.933  16.762  28.376  0.1562 -0.0981  0.4307
82612W        W25525   9.763  17.959   5.816 -0.3123 -0.3118  0.2374
82613W        W25526   1.200  23.067   9.018 -0.1204 -0.2176 -0.0013
82614W        W25527  13.986   9.474   3.947  0.0150  0.0608 -0.2525
82615W        W25528   9.724  14.100   0.764  0.0839 -0.1629  0.2922
82616W        W25529   4.702  22.071   3.705 -0.0216  0.0773  0.1183
82617W        W25530  12.532  14.229   5.481  0.0605 -0.2110  0.1325
82618W        W25531  10.300  21.305   3.988  0.2087  0.1479  0.1593
82619W        W25532   6.068  30.101   3.815 -0.1394  0.1352  0.0812
82620W        W25533  31.328  13.021   0.381 -0.0160  0.1007  0.0455
82621W        W25534  15.519  27.567   8.543 -0.1371  0.0957 -0.1716
82622W        W25535  33.766  25.764   6.480  0.2054 -0.0269 -0.0748
82623W        W25536  14.990  13.806   3.003 -0.0588 -0.1876  0.0398
82624W        W25537  17.498  15.535  28.941  0.0025  0.1595  0.2751
82625W        W25538  11.953  15.159  28.163  0.3437  0.1521 -0.3617
82626W        W25539   7.823   6.071  28.150  0.1585  0.0529  0.1458
82627W        W25540  15.396  22.286  26.346  0.0975 -0.5668  0.0787
82628W        W25541  18.060   1.819  26.505  0.2858 -0.3253  0.0964
82629W        W25542  15.841  22.929   8.920 -0.0776 -0.0181  0.0483
82630W        W25543   5.604  10.386   0.566  0.0663  0.1595  0.1246
82631W        W25544  11.776  34.224   2.957  0.1591 -0.0379  0.0320
82632W        W25545   5.617  12.028   2.017 -0.1955 -0.1121  0.2900
82633W        W25546   6.680  25.578   6.322  0.0422 -0.0202 -0.0373
82634W        W25547  18.018  17.682  23.428 -0.1445  0.1974 -0.3262
82635W        W25548  33.404  13.428   9.516  0.1655  0.0657 -0.2590
82636W        W25549   8.801  14.902   5.528  0.3662  0.5957  0.1945
82637W        W25550   6.258  27.501   9.088  0.1474  0.1310 -0.2439
82638W        W25551  10.710   4.937  27.285  0.1463  0.0622 -0.1508
82639W        W25552  11.551  23.802   2.969 -0.0721 -0.0810  0.0612
82640W        W25553  29.614  21.052  29.384 -0.2795 -0.2011  0.0626
82641W        W25554  31.778  14.880  25.705 -0.0707  0.0361 -0.3686
82642W        W25555  11.257  10.457   9.895  0.1271  0.1181  0.0516
82643W        W25556  10.000  26.723  28.264  0.1569 -0.3890  0.2097
82644W        W25557  17.543  26.278  21.749  0.0775  0.1511 -0.1214
82645W        W25558   7.621  19.360  29.305  0.0169 -0.0915 -0.1202
82646W        W25559   3.723  10.712  26.287  0.2510 -0.0116  0.1023
82647W        W25560  15.867  19.829   1.203  0.0461 -0.0210  0.0605
82648W        W25561   5.150  23.945   3.936  0.0229  0.2387 -0.2573
82649W        W25562  18.717  20.436  17.331 -0.1118  0.1953 -0.0653
82650W        W25563   0.575  24.110   6.406  0.1141 -0.2636  0.2946
82651W        W25564  18.311  14.026  27.339 -0.1448 -0.1429 -0.2334
82652W        W25565   1.649  23.346  28.875  0.0547  0.0332 -0.2905
82653W        W25566  20.721   9.448   5.036 -0.1609 -0.2163 -0.3221
82654W        W25567  13.600  11.009   6.244  0.2445 -0.0849  0.1708
82655W        W25568   1.287  18.892   8.932  0.0265 -0.0049  0.1725
82656W        W25569  13.640  18.289  26.848 -0.2895 -0.0720 -0.3454
82657W        W25570  11.653  18.820  20.516  0.0822  0.2579  0.1768
82658W        W25571  13.462  23.156  27.504  0.0068  0.1442 -0.2653
82659W        W25572  12.007  20.350  23.298  0.1330 -0.4881  0.1923
82660W        W25573   5.400  30.211  27.740  0.0987 -0.2736 -0.1884
82661W        W25574  10.073  32.949  11.855 -0.0300 -0.1029 -0.1832
82662W        W25575  10.633  32.402   6.128 -0.1125 -0.1254 -0.2705
82663W        W25576  11.382  16.726   5.105 -0.2298 -0.0234  0.0012
82664W        W25577  13.697  19.413   5.443 -0.1083 -0.0231 -0.2385
82665W        W25578   9.632  16.919   7.563  0.1412 -0.2726  0.0311
82666W        W25579  27.885  30.694   7.299 -0.4577 -0.0630  0.0709
82667W        W25580  18.409  28.957  22.391 -0.0637  0.0392  0.1544
82668W        W25581  15.951  20.205  27.357  0.0048 -0.3552  0.1108
82669W        W25582   5.357  12.477   4.964  0.0162  0.1121  0.0692
82670W        W25583  15.320   1.851   3.123 -0.1064  0.0338  0.0523
82671W        W25584  14.888  18.020  27.365  0.1174  0.1104 -0.0020
82672W        W25585   8.536  17.464   9.001  0.2541  0.0183 -0.2353
82673W        W25586   8.780  22.200   6.914  0.3559  0.2486  0.1910
82674W        W25587  12.542  33.351  29.376 -0.1998  0.3355 -0.1904
82675W        W25588  12.121  26.890   7.190 -0.0936 -0.1034 -0.1804
82676W        W25589  30.523  11.729   5.721 -0.0305 -0.1174 -0.3481
82677W        W25590  12.070  30.813   4.670  0.0155 -0.0886 -0.0779
82678W        W25591   5.568  21.595   7.778  0.1224 -0.1693  0.1482
82679W        W25592  14.553  30.319   8.863 -0.3592 -0.1202 -0.3236
82680W        W25593   7.451  20.130   4.538  0.2299  0.0941  0.1104
82681W        W25594   0.541  24.077   2.463  0.1914 -0.0789  0.1635
82682W        W25595   3.233  10.412  28.307  0.1367  0.1244 -0.1848
82683W        W25596   5.713   8.839   5.302 -0.4350  0.0193  0.0780
82684W        W25597  12.471  11.411   1.569  0.0830 -0.0521 -0.1500
82685W        W25598  11.662  16.908   7.693 -0.0373  0.2637  0.1267
82686W        W25599   9.812  30.126   6.719  0.0250 -0.0471  0.3704
82687W        W25600  13.216   0.550   8.695 -0.0050  0.1103 -0.0928
82688W        W25601  30.000  13.264   7.347 -0.0269 -0.2408 -0.1215
82689W        W25602  18.181  25.425   6.831  0.0621 -0.2889  0.0235
82690W        W25603  17.080  19.039  26.884  0.2769  0.3940 -0.0124
82691W        W25604  14.716  26.813   5.053  0.0036 -0.1600  0.3124
82692W        W25605   4.094  21.131   9.685  0.1360 -0.0981  0.1270
82693W        W25606   6.945  27.574   5.957  0.1096  0.2342  0.0855
82694W        W25607  32.739  26.681   4.589  0.0482 -0.3222 -0.0405
82695W        W25608   5.531  13.196  10.091  0.0357  0.2907  0.1194
82696W        W25609   9.620  16.422   6.129  0.1981  0.1369  0.0557
82697W        W25610   5.508  12.739   9.646  0.3346 -0.0809 -0.0547
82698W        W25611  11.419  18.246   5.185 -0.0725  0.1921 -0.0750
82699W        W25612  15.931  23.753  26.547 -0.4119  0.2200 -0.0152
82700W        W25613  21.444  31.443   5.695 -0.0551 -0.0953 -0.3333
82701W        W25614   9.748  16.563   5.323  0.1158 -0.1166  0.0110
82702W        W25615   0.125  22.644   8.353 -0.0411  0.2526  0.1828
82703W        W25616   6.270  23.831   3.990 -0.1838  0.3218  0.2033
82704W        W25617  13.226   0.801   5.717 -0.0177  0.3260 -0.0816
82705W        W25618  13.469  20.535   7.282 -0.2291 -0.2021  0.0532
82706W        W25619  11.375  20.129   5.677 -0.0254  0.1775 -0.1191
82707W        W25620   7.299  26.716   8.097 -0.1784  0.0286 -0.4396
82708W        W25621   6.681  19.862   5.028  0.0928 -0.0446 -0.0067
82709W        W25622  11.859  30.260  10.421  0.0842 -0.1398  0.1716
82710W        W25623  21.222  19.160  25.554  0.0432 -0.0253  0.0775
82711W        W25624   7.702  19.997   6.786 -0.0373  0.0870  0.0000
82712W        W25625  14.277  15.226   6.008 -0.0458 -0.0623  0.3115
82713W        W25626   9.217  22.600  27.747 -0.2197 -0.0141  0.1037
82714W        W25627  17.692  21.217   7.031  0.0465  0.0559  0.3963
82715W        W25628  10.434  23.728   9.012 -0.2101  0.0425  0.1604
82716W        W25629   3.531  18.633  28.493 -0.3148 -0.1922  0.1132
82717W        W25630  19.129  20.143  29.531  0.1984 -0.1170  0.2701
82718W        W25631   9.473  23.915   5.846 -0.0822  0.1237  0.2128
82719W        W25632   8.885  23.961   3.024 -0.1909  0.2186  0.1774
82720W        W25633   8.356   7.127   2.143 -0.0484 -0.0008  0.2205
82721W        W25634   9.061  21.799   5.009 -0.0080 -0.3000  0.2397
82722W        W25635   8.676  26.337   5.870 -0.1064 -0.1258  0.0097
82723W        W25636  17.046  26.605   9.701  0.1481  0.1030 -0.0239
82724W        W25637   5.065  23.359   8.730  0.1302 -0.0357  0.0108
82725W        W25638   9.030  18.913   3.513  0.2668 -0.0726 -0.1788
82726W        W25639   6.279  30.193   4.270  0.1157 -0.3101 -0.1092
82727W        W25640  16.539  12.670   0.134 -0.1632  0.0348  0.0401
82728W        W25641   3.499  26.147  10.381 -0.1038 -0.3759  0.2479
82729W        W25642   8.467  21.329   9.779  0.1922  0.2197  0.0293
82730W        W25643  17.234  17.912   8.578 -0.0308 -0.1042 -0.1764
82731W        W25644  29.566  32.811   4.194  0.2088 -0.0965 -0.1093
82732W        W25645   7.041  19.558   6.259  0.0305  0.0960  0.0044
82733W        W25646  11.565  16.783   8.177  0.2599  0.0545 -0.1115
82734W        W25647   9.797  19.516   1.791  0.0219  0.0878 -0.1270
82735W        W25648   8.225  21.060   5.037  0.1692  0.0642 -0.1818
82736W        W25649   9.717  21.949   6.932 -0.1854 -0.0875 -0.2601
82737W        W25650   9.304  14.967   8.888 -0.2170  0.0534 -0.0140
82738W        W25651   4.772  22.896   3.079 -0.2505 -0.2390  0.2145
82739W        W25652  16.522  16.817   0.373  0.2604 -0.1170 -0.1121
82740W        W25653   6.950  12.121   9.321  0.0999 -0.0912 -0.0176
82741W        W25654  14.147  26.303   0.134 -0.2099  0.0620 -0.0962
82742W        W25655  11.165  26.536   4.827  0.0136  0.2247  0.0764
82743W        W25656  11.860  21.011   7.967  0.0451  0.2388  0.2123
82744W        W25657  33.645  24.359   6.380  0.1969 -0.0583  0.0381
82745W        W25658  32.928  26.069   9.468 -0.2427  0.1253  0.2527
82746W        W25659   8.530  19.898  29.005  0.1925 -0.1715 -0.2567
82747W        W25660   8.538  13.425   5.946 -0.1434  0.1393 -0.2925
82748W        W25661   7.165   9.443  29.518  0.2199 -0.0108 -0.2535
82749W        W25662  11.148  18.206   6.468  0.0907 -0.2463 -0.0526
82750W        W25663   4.032  23.944  10.910 -0.1687  0.0516  0.3380
82751W        W25664  18.355  25.338   7.344  0.0874 -0.0235  0.0912
82752W        W25665  20.353  24.655   7.071  0.0727  0.0240 -0.2025
82753W        W25666   8.138  18.901   7.900 -0.1346 -0.1777 -0.0485
82754W        W25667  20.770  27.322   1.549 -0.1419 -0.2427  0.1330
82755W        W25668   6.953  13.900  28.063 -0.0739  0.0031 -0.1814
82756W        W25669  13.777   9.588  25.566 -0.4126 -0.0766  0.1753
82757W        W25670   7.617  26.495   8.504  0.0744  0.5305 -0.0376
82758W        W25671   8.412  12.467   5.624  0.3906 -0.1141 -0.1564
82759W        W25672  13.959  19.108  25.081 -0.0647  0.0976  0.2527
82760W        W25673   1.346  15.530   2.482  0.1370 -0.1904 -0.0916
82761W        W25674  17.571  30.363  10.064  0.1199 -0.1451  0.0466
82762W        W25675   7.784   6.511  10.857  0.0473  0.0559  0.5067
82763W        W25676  11.945  24.763   9.756 -0.1423 -0.2694  0.3609
82764W        W25677  16.149   6.882   4.761 -0.3989 -0.0241 -0.2353
82765W        W25678   3.661  24.442   6.094  0.1795 -0.2281 -0.1589
82766W        W25679  17.237   4.555   1.901  0.0298 -0.1330  0.0516
82767W        W25680  32.360  16.700  24.148  0.2854  0.0701  0.1819
82768W        W25681  11.563  26.079   6.070 -0.2537  0.1826 -0.0145
82769W        W25682  14.849  24.352   9.436 -0.0170  0.2179 -0.0122
82770W        W25683   7.181  20.675   8.213 -0.0450 -0.1341  0.2872
82771W        W25684   5.889  22.190  21.647  0.1094 -0.0075 -0.0062
82772W        W25685   8.395  30.332   3.219 -0.0413  0.0048 -0.0579
82773W        W25686   7.335  17.474   8.814 -0.0439 -0.0891 -0.1622
82774W        W25687   6.429  29.091  19.992 -0.0137  0.0008 -0.2660
82775W        W25688  17.669  19.707   5.349  0.1567  0.1933  0.0516
82776W        W25689  12.099  23.734   8.303  0.2581  0.2706 -0.0729
82777W        W25690  32.927  20.571   2.352 -0.0473 -0.1390 -0.0468
82778W        W25691   3.953  16.568   5.584  0.1932  0.1758 -0.1863
82779W        W25692   1.019  17.944   5.155 -0.0748 -0.1898  0.0300
82780W        W25693   1.576  27.569   8.020 -0.3571  0.1843  0.2028
82781W        W25694   5.864  26.910   5.023  0.3073 -0.0626  0.1199
82782W        W25695   8.841  33.362  10.010  0.2576  0.2394 -0.1103
82783W        W25696  16.331  24.260  17.461 -0.0395 -0.4804 -0.2695
82784W        W25697   6.583  25.619   7.226  0.3359 -0.0160  0.2360
82785W        W25698  16.108  14.739   6.186 -0.2199 -0.0783  0.1914
82786W        W25699   9.787  17.931   0.714 -0.1600 -0.0890 -0.0301
82787W        W25700  23.450  16.147  28.543 -0.0281  0.0561  0.1630
82788W        W25701  33.894  15.614  10.195  0.0692  0.0706  0.1704
82789W        W25702   2.795  30.166   1.719 -0.1516  0.1524 -0.3585
82790W        W25703   1.906  23.981   6.935 -0.2855 -0.0136  0.1542
82791W        W25704   9.933   8.775   5.751 -0.2251 -0.1813  0.3439
82792W        W25705  17.753  16.857   0.374  0.0537  0.1976 -0.3924
82793W        W25706  11.443  17.753  27.510 -0.2424 -0.0116  0.1781
82794W        W25707  15.203  21.378   3.940  0.0836  0.0766 -0.1525
82795W        W25708   9.454  22.130   4.133  0.0478  0.2496 -0.0399
82796W        W25709   5.047   7.897  12.327 -0.1812 -0.0409  0.2856
82797W        W25710   6.847  22.585  28.993  0.0112 -0.4051 -0.0905
82798W        W25711   8.369  21.478   5.956  0.3528 -0.2955 -0.0185
82799W        W25712  26.192  22.987   5.256 -0.2547 -0.2436 -0.1047
82800W        W25713   1.758  15.426   6.189  0.1975 -0.2019  0.0222
82801W        W25714  13.842  17.102  26.257 -0.2252 -0.1294 -0.0156
82802W        W25715   3.564  16.141   6.494 -0.3147  0.1791  0.2414
82803W        W25716  15.420  26.969   0.682  0.0432  0.0482 -0.2843
82804W        W25717   4.093  29.985   1.821 -0.3224  0.0755  0.1146
82805W        W25718   7.176  12.584  27.606  0.0682 -0.0680 -0.0217
82806W        W25719  19.347  12.627  29.091  0.0166  0.4143 -0.0717
82807W        W25720  14.772  20.645   8.372  0.1375  0.3274  0.1832
82808W        W25721   5.965  15.386   3.376 -0.0675  0.0832 -0.1267
82809W        W25722   6.143  27.959  10.788 -0.1512 -0.2437  0.2062
82810W        W25723   7.064  25.432   7.356  0.2755  0.0682 -0.1502
82811W        W25724   8.629  20.452   8.064  0.0165 -0.1127 -0.3055
82812W        W25725  15.368  23.740   6.589 -0.1164  0.0666 -0.0554
82813W        W25726  12.068  21.348   4.536  0.2412  0.3238  0.1605
82814W        W25727  13.231  11.352   6.069 -0.1253  0.1492  0.1267
82815W        W25728  21.909  22.995  28.302 -0.4253 -0.1196  0.3301
82816W        W25729  18.368  11.635   2.027  0.0165  0.0538  0.0924
82817W        W25730  12.101  25.015   3.031 -0.0880  0.0338  0.0372
82818W        W25731  29.150  15.670  29.699  0.0939 -0.0169 -0.2144
82819W        W25732   2.446  23.062  21.069 -0.0424 -0.1820  0.0049
82820W        W25733   3.534  16.569   4.039  0.0379 -0.1915  0.1586
82821W        W25734  10.841  13.028   8.091  0.1332 -0.1132 -0.1344
82822W        W25735  12.643  26.656   7.363  0.1705 -0.1210  0.3012
82823W        W25736   5.257  18.161   8.903  0.1747  0.0716  0.0282
82824W        W25737   5.312  21.199   9.440 -0.3028  0.0445  0.0476
82825W        W25738  32.396  31.219  27.569  0.2292 -0.1234 -0.0878
82826W        W25739  15.477  20.366   2.470  0.0791  0.2384  0.0945
82827W        W25740   3.614  21.893   2.974  0.1642  0.2513 -0.2851
82828W        W25741   6.487  24.853   6.731 -0.2456 -0.3135  0.3198
82829W        W25742  19.058  23.846   6.272  0.1063  0.2960  0.1973
82830W        W25743  17.421  21.638   7.290  0.1904  0.0436  0.0555
82831W        W25744   6.769   0.729  11.455 -0.0249 -0.1641  0.0006
82832W        W25745   5.437  30.151   6.234 -0.1164 -0.2338  0.1592
82833W        W25746  12.205  32.054   7.945  0.3758 -0.2157  0.3996
82834W        W25747  32.051  19.116   3.189  0.3874 -0.1768 -0.4030
82835W        W25748   6.551  24.067  29.325  0.1167  0.3302  0.1046
82836W        W25749  34.210  16.219   4.535  0.1715  0.3072 -0.2118
82837W        W25750  12.822  11.311   3.993 -0.0434 -0.0494  0.0212
82838W        W25751   3.574  15.268   2.351 -0.2323 -0.1261  0.2203
82839W        W25752   3.973   9.989  28.253 -0.4307  0.4390 -0.2784
82840W        W25753   7.127  11.757  26.007  0.0191  0.2002 -0.0293
82841W        W25754  12.958  15.297   5.308 -0.0438 -0.0190  0.3677
82842W        W25755  16.058  25.839  28.641 -0.1027  0.0463  0.2457
82843W        W25756  10.110  21.304   8.846  0.1827  0.1788 -0.0238
82844W        W25757   3.114  19.941   5.852 -0.0149 -0.2258  0.1230
82845W        W25758   2.088  20.403   8.402  0.4330  0.0657  0.0158
82846W        W25759   8.418  24.763   6.902  0.0153  0.2032 -0.0146
82847W        W25760  13.418  11.124  25.115  0.0447 -0.0407  0.1573
82848W        W25761   9.680  24.723   8.070 -0.2681  0.0028 -0.0347
82849W        W25762   7.798  25.253   3.520 -0.3295  0.2798  0.0916
82850W        W25763   2.169  21.909  23.690  0.2295  0.1771  0.1243
82851W        W25764  15.132  27.822   6.826  0.3276  0.2320  0.0423
82852W        W25765  14.621  27.171   0.208 -0.0836 -0.0754  0.1139
82853W        W25766   5.928  18.020   5.545 -0.0673 -0.4282 -0.2262
82854W        W25767  20.567  20.674   1.575 -0.0191  0.2292  0.1584
82855W        W25768   0.520  18.157   7.645  0.1472  0.1849 -0.4228
82856W        W25769   9.389  25.734   7.212 -0.1176  0.0536  0.0400
82857W        W25770   5.499   5.178  10.396  0.2098 -0.1007 -0.2127
82858W        W25771   0.675  25.413   5.580  0.2686  0.0453  0.2142
82859W        W25772  33.097  21.116  26.811 -0.1512 -0.1151  0.0827
82860W        W25773  19.114  15.579  27.957 -0.2669  0.0589 -0.0519
82861W        W25774   4.045  23.988   6.810  0.0369  0.1851 -0.2164
82862W        W25775   6.797  27.171  10.416 -0.0068 -0.1941  0.0385
82863W        W25776   1.399  23.048   2.954 -0.2426 -0.2439  0.2356
82864W        W25777  32.298  28.110  25.792 -0.1152  0.0308 -0.0547
82865W        W25778  30.085  14.740  26.128  0.2413 -0.1491 -0.1243
82866W        W25779  12.307  24.665   0.945  0.3073  0.3493 -0.1389
82867W        W25780  14.428  17.780   1.580  0.0842  0.0576 -0.0716
82868W        W25781  12.689  16.934  22.553  0.4442 -0.1835 -0.0606
82869W        W25782  12.224  20.966  27.887  0.0454  0.1011 -0.0946
82870W        W25783  28.801  23.372   9.857  0.2144  0.0278 -0.0197
82871W        W25784  15.607  22.985   3.878 -0.0991 -0.0722 -0.1404
82872W        W25785  15.303  20.726  24.555 -0.0282 -0.0510  0.0215
82873W        W25786  13.237  20.743   5.041 -0.0819 -0.3403  0.0311
82874W        W25787   4.025  14.641   2.769  0.1790  0.0467 -0.2584
82875W        W25788  17.497  27.016   4.448 -0.4209  0.4330  0.2542
82876W        W25789  10.937  13.722  24.141  0.4383 -0.0097  0.2273
82877W        W25790  22.481  19.975   0.893  0.0966 -0.0655 -0.0779
82878W        W25791  11.608   7.476  22.073  0.1947 -0.1018  0.0100
82879W        W25792   5.690  23.625   7.280 -0.1415  0.2755  0.2734
82880W        W25793   8.512  16.559   5.271  0.0159 -0.3014  0.1902
82881W        W25794   0.146  20.317   1.433  0.0498 -0.2229  0.4532
82882W        W25795   0.367  30.301   1.239 -0.3195 -0.0636 -0.0209
82883W        W25796  15.744  11.700   4.831  0.1567 -0.2508  0.1709
82884W        W25797   3.882  25.463  28.815 -0.1290 -0.4280 -0.5125
82885W        W25798   7.629  18.738   5.628  0.1789  0.2158  0.1211
82886W        W25799   3.149   3.595   1.776  0.1273 -0.0056  0.0640
82887W        W25800   7.636  15.234  28.016  0.0987 -0.1080 -0.1742
82888W        W25801   6.891  20.631   1.422  0.0554 -0.2971  0.1066
82889W        W25802  15.641  19.320   5.467  0.0640 -0.1352  0.2667
82890W        W25803   9.135  18.312   2.281 -0.2155 -0.0609 -0.0732
82891W        W25804  11.943  22.114  27.736  0.1649 -0.1732  0.2730
82892W        W25805   4.282  15.258  29.082 -0.3335  0.0020 -0.1660
82893W        W25806   3.631  17.764   2.548  0.0327 -0.2286 -0.0699
82894W        W25807   0.356  31.836   1.669 -0.0551  0.3418  0.0519
82895W        W25808   3.441  21.365   2.450 -0.0580  0.0256 -0.1565
82896W        W25809  10.496  10.452  28.718  0.1440 -0.0555  0.0093
82897W        W25810  10.249  19.396   6.075 -0.1129  0.1164 -0.0719
82898W        W25811   2.358  19.605   9.732 -0.1562  0.0371 -0.2262
82899W        W25812   9.208  21.610   8.831  0.1056  0.2938  0.3116
82900W        W25813   5.214  19.393  27.874 -0.0054  0.1600  0.0288
82901W        W25814  14.919   9.400   8.782  0.1288 -0.3316 -0.1092
82902W        W25815   9.915  14.171   5.114  0.1189 -0.2844 -0.0879
82903W        W25816   3.834   8.133   6.151  0.0529 -0.1267  0.1808
82904W        W25817  13.482  21.268   6.000  0.2642  0.0697  0.2875
82905W        W25818  16.021  25.313   8.649  0.0927  0.0413  0.1138
82906W        W25819   8.301   9.642   4.901 -0.0805  0.0517  0.2249
82907W        W25820   3.463  18.176   6.242  0.5211 -0.2589  0.0776
82908W        W25821  11.284  28.708   7.500 -0.3168 -0.1540  0.2817
82909W        W25822  15.059  19.693   5.826  0.0422  0.0622  0.2465
82910W        W25823  17.439  12.773  26.055 -0.0266 -0.0939  0.3009
82911W        W25824  14.635  13.064   6.339  0.0721  0.1504  0.1386
82912W        W25825   3.710   8.446   4.757  0.1814 -0.0673 -0.1767
82913W        W25826  17.230  17.367   6.986  0.3953  0.2671 -0.1657
82914W        W25827  32.230  21.119   8.540 -0.1026 -0.3271  0.0418
82915W        W25828   4.819  23.128   1.290  0.1994 -0.0506  0.0147
82916W        W25829   7.927  32.082  29.115 -0.2978  0.0548 -0.0447
82917W        W25830   6.810  11.177   5.833  0.0672  0.0233  0.0414
82918W        W25831  12.254  28.619  10.552  0.2479 -0.2983  0.0232
82919W        W25832   5.203  15.872   5.144  0.0375 -0.3313  0.0387
82920W        W25833  15.871   8.772   5.257  0.0343 -0.2439  0.1331
82921W        W25834   6.870  25.751  29.311 -0.2211 -0.1893 -0.1061
82922W        W25835  13.928   4.767   9.836 -0.2377 -0.3104 -0.1933
82923W        W25836   9.866  18.756   7.363  0.1507  0.1416 -0.1973
82924W        W25837  20.044   4.633  21.587  0.1574  0.0270 -0.2946
82925W        W25838  19.710  17.936  24.754  0.1061  0.0527 -0.1772
82926W        W25839   1.530  33.834   1.060 -0.2694  0.1540  0.0398
82927W        W25840  18.615  23.148  26.728 -0.3781 -0.0037 -0.0118
82928W        W25841  13.709  25.810  10.371 -0.0009  0.0763  0.2232
82929W        W25842   4.045  16.501   6.582 -0.2417  0.2305  0.0255
82930W        W25843   2.426  26.802   5.121 -0.2168  0.0528 -0.3156
82931W        W25844  13.203  22.803   4.443  0.0310  0.0698  0.0478
82932W        W25845   9.920   7.103   5.252 -0.1607  0.1814  0.2237
82933W        W25846   6.609   2.214   0.456 -0.0788  0.0628 -0.0941
82934W        W25847   2.170  10.549  21.822  0.1778 -0.0427 -0.1841
82935W        W25848  33.960  21.967   2.920 -0.0511 -0.0526 -0.1234
82936W        W25849  12.997  29.601   9.602  0.0188 -0.0041 -0.1479
82937W        W25850  24.919  12.765   7.660  0.1346  0.0885  0.1235
82938W        W25851  30.192  23.026   8.721  0.1600  0.2280 -0.0429
82939W        W25852   6.535  16.590  22.736 -0.1271  0.0805  0.2131
82940W        W25853   5.335   9.140   1.403 -0.1047 -0.0659  0.2190
82941W        W25854  14.478  19.362  21.456 -0.2809 -0.2194  0.0877
82942W        W25855  14.318   6.444   9.938  0.1926  0.0867 -0.5127
82943W        W25856   6.330  10.697  25.174  0.1085  0.0616  0.1857
82944W        W25857   6.152  18.376   1.387 -0.0291  0.2887  0.0149
82945W        W25858   6.815  32.661  10.863  0.0838  0.0936 -0.2030
82946W        W25859  12.131  21.210  27.309 -0.2722  0.2108  0.1319
82947W        W25860   6.309  10.271   5.344 -0.0861  0.0799  0.0723
82948W        W25861  13.455  21.375   0.248 -0.0176  0.0744  0.2062
82949W        W25862  11.625  10.685   8.043 -0.0757 -0.3862  0.2448
82950W        W25863   3.860  19.649   7.990 -0.0525  0.1074 -0.0162
82951W        W25864   3.529  23.104   8.033  0.2900 -0.1502  0.1562
82952W        W25865  23.384  21.090  29.387 -0.0164 -0.0259  0.0899
82953W        W25866  10.565   9.015  25.873 -0.1507 -0.2228  0.0234
82954W        W25867  12.126  28.953   3.720 -0.1150 -0.0237 -0.2249
82955W        W25868   3.977  17.095   9.470 -0.0902 -0.2216 -0.2005
82956W        W25869   3.667  20.098   8.106 -0.0418  0.0097 -0.1321
82957W        W25870  10.618  28.327  10.606 -0.2089 -0.0141  0.1657
82958W        W25871  20.707  20.356  19.805  0.1506  0.2710  0.5725
82959W        W25872   7.089  31.575   9.571  0.2128 -0.2267 -0.1143
82960W        W25873   8.376  16.781   5.822  0.1943 -0.1832  0.1713
82961W        W25874   9.549  21.750   8.332  0.0098  0.3290 -0.0965
82962W        W25875   2.713  14.373   7.611 -0.0050  0.1321 -0.0764
82963W        W25876  20.519  16.027   2.195  0.0833 -0.0380 -0.1989
82964W        W25877   3.731   6.884  10.407  0.1339 -0.2514  0.3094
82965W        W25878  13.567  16.678  25.358  0.1421 -0.2361 -0.0097
82966W        W25879   2.338  14.872  27.768  0.0499 -0.0431 -0.0609
82967W        W25880   2.993  25.230   7.833  0.3576  0.0934  0.0194
82968W        W25881   2.268  19.990   9.237 -0.0309 -0.0165  0.1903
82969W        W25882  12.221  16.393   2.264  0.1585 -0.0438  0.0504
82970W        W25883  11.154  11.685   6.462 -0.3146  0.1261 -0.2751
82971W        W25884   2.555  19.568  25.798  0.1477 -0.1534 -0.3098
82972W        W25885  13.152  25.608  10.251  0.0647 -0.2646  0.0749
82973W        W25886  19.057  19.333   5.578 -0.1882 -0.0704  0.1552
82974W        W25887  33.734  17.566   8.643 -0.0464  0.1191 -0.1507
82975W        W25888   8.446  16.440   9.146  0.0149  0.1288  0.1958
82976W        W25889   9.224  15.553   5.080  0.3464 -0.0386  0.2006
82977W        W25890  14.921  19.397   0.457 -0.1639 -0.1337  0.1349
82978W        W25891  33.998  26.245   8.433 -0.4199  0.0878 -0.5012
82979W        W25892   7.731  20.471   9.424 -0.1690  0.0209 -0.4040
82980W        W25893  11.528  21.531   6.772 -0.0218 -0.2160  0.1823
82981W        W25894   4.520  26.520   4.411 -0.2195  0.1940 -0.0547
82982W        W25895  13.646  17.933   6.977 -0.0154 -0.1595 -0.3451
82983W        W25896   1.381  15.963   9.012  0.0490 -0.2178 -0.1263
82984W        W25897  10.113  16.251   6.087 -0.0694 -0.4181 -0.2529
82985W        W25898  32.655  15.607  27.987  0.4319 -0.3439  0.0914
82986W        W25899  16.628  12.704   5.897  0.1942  0.0602 -0.3130
82987W        W25900  31.923  33.045  29.408  0.0859  0.0873  0.2886
82988W        W25901   6.577  14.297   7.445  0.3540  0.2985  0.0005
82989W        W25902  10.753   7.246   2.823 -0.1923  0.1288  0.1968
82990W        W25903  10.352  24.942   5.491 -0.0529 -0.1684  0.0096
82991W        W25904  11.731  10.565   6.710 -0.1665 -0.1189 -0.1248
82992W        W25905  16.459  30.085   8.066  0.2327 -0.1946  0.1448
82993W        W25906  12.208  25.213   0.313 -0.0597 -0.0656 -0.3518
82994W        W25907   8.684  32.395  11.627 -0.0114 -0.0089 -0.0679
82995W        W25908  28.709  33.648   7.532  0.1403  0.4306  0.2900
82996W        W25909   1.729  26.451  10.649 -0.2112 -0.0709  0.1052
82997W        W25910   3.221  18.376  29.776  0.0094 -0.0922  0.0054
82998W        W25911   9.295  22.468   3.556 -0.0718 -0.0913 -0.0849
82999W        W25912  26.461  21.225   5.257 -0.2972  0.2174 -0.0259
83000W        W25913  12.382  15.367  18.949  0.0263  0.0424 -0.0372
83001W        W25914  11.904  20.426   3.896 -0.1493  0.0650 -0.1217
83002W        W25915  10.678  26.700   7.010 -0.1189 -0.1369  0.1506
83003W        W25916   1.646  18.943   8.634  0.1201  0.0650 -0.1919
83004W        W25917  34.281   9.629   9.863 -0.1269 -0.1400  0.2750
83005W        W25918   4.891  16.482   3.338 -0.0672  0.1044  0.0667
83006W        W25919   4.236  10.581   9.792  0.1236  0.1528  0.4448
83007W        W25920  10.001  22.860   3.647 -0.1448 -0.0275 -0.0018
83008W        W25921  13.230  20.323   4.331  0.3816  0.1097 -0.2708
83009W        W25922  14.383   8.520   6.513 -0.2263 -0.1075 -0.1944
83010W        W25923  30.926  17.627   6.976 -0.1885  0.0446 -0.2277
83011W        W25924  10.471  20.197   7.175 -0.2899  0.1789  0.0639
83012W        W25925   6.863  24.128   7.338 -0.0296 -0.0590  0.1125
83013W        W25926  15.271  26.102   9.208  0.1331  0.2478 -0.0846
83014W        W25927   7.066  28.480   6.066  0.1132 -0.1312  0.2867
83015W        W25928   7.069  19.328   8.709 -0.1371  0.1383 -0.2424
83016W        W25929  15.718  13.926   3.664  0.0870  0.0475  0.4006
83017W        W25930  20.247  14.867   1.627 -0.0062  0.3562  0.0141
83018W        W25931  10.547  25.080   7.984 -0.3084 -0.1467 -0.3129
83019W        W25932  16.288  19.768   7.620 -0.0088  0.0573  0.0112
83020W        W25933  14.899  26.738  11.250  0.1801  0.0786 -0.1580
83021W        W25934  11.366   7.315   5.994 -0.0886  0.3031 -0.0286
83022W        W25935  15.164  27.561   7.750  0.1505 -0.0388  0.0958
83023W        W25936   8.490  17.863   6.897 -0.0398  0.2489  0.3091
83024W        W25937   6.171  18.692   8.700  0.1283 -0.0578  0.1671
83025W        W25938   3.732  30.758   4.395  0.0348 -0.0410  0.1590
83026W        W25939   8.396  10.430   6.562 -0.2448 -0.1473 -0.2197
83027W        W25940   1.186  25.668   7.485 -0.1279  0.2389  0.0144
83028W        W25941   7.004  22.658  25.072  0.1393  0.3320 -0.3222
83029W        W25942  13.831  20.791   3.915 -0.1040 -0.1321 -0.0181
83030W        W25943   8.638  17.480   6.062  0.3412 -0.0247  0.1775
83031W        W25944  14.752  15.374   3.117 -0.0769 -0.1237  0.4667
83032W        W25945   9.615  10.328   4.233  0.2136 -0.5962  0.3419
83033W        W25946  11.237  23.546   2.262  0.0061  0.1505  0.3133
83034W        W25947   7.856  20.954   5.360  0.1317  0.3313 -0.2369
83035W        W25948   3.271  20.108  26.239 -0.3178  0.0206  0.0690
83036W        W25949   4.288  27.135   2.752  0.1952 -0.1378 -0.1618
83037W        W25950  16.466  22.362   5.916  0.1503 -0.0238  0.1862
83038W        W25951  16.321  16.285   5.334  0.2025 -0.2812 -0.1249
83039W        W25952   3.051  10.445  29.310 -0.2202 -0.0278  0.0844
83040W        W25953   1.908  31.233   9.217 -0.1676  0.3626  0.1306
83041W        W25954   8.634  19.655   5.862  0.0479  0.0522  0.1626
83042W        W25955   4.604  11.573   5.744 -0.0285 -0.0858  0.0620
83043W        W25956  28.625  19.473   8.647 -0.0344  0.3317 -0.0433
83044W        W25957  11.490  22.625   4.284 -0.0198  0.1055 -0.3143
83045W        W25958   6.620  21.333  24.602  0.1049  0.3568 -0.2788
83046W        W25959  32.058  27.304   6.605  0.2815  0.1478  0.2009
83047W        W25960   3.888  22.631   6.251 -0.1409 -0.1091  0.2711
83048W        W25961   7.898  20.440   5.739  0.1288  0.0026 -0.0944
83049W        W25962   8.982  27.376   1.696  0.4418  0.0275  0.3977
83050W        W25963  10.184  25.766  10.319 -0.2045  0.1446  0.0744
83051W        W25964   3.240  22.071   9.156 -0.3864 -0.0382  0.0254
83052W        W25965   6.065  22.128   2.322 -0.0135  0.0036 -0.5247
83053W        W25966   7.076   4.045   2.138 -0.0494 -0.0155  0.0562
83054W        W25967  17.884   9.890   3.068  0.1593  0.1360  0.0909
83055W        W25968   9.742   6.035   7.098  0.0920 -0.3149  0.0781
83056W        W25969  16.338  15.017   6.509  0.0639 -0.4172  0.0593
83057W        W25970   0.263   9.468   4.575  0.0951  0.3284 -0.2085
83058W        W25971   7.605  20.899   8.438  0.0281  0.0515 -0.1865
83059W        W25972  16.055  28.356   9.452  0.2735  0.2132  0.3012
83060W        W25973   2.623   3.747   7.041  0.0625 -0.0152  0.0277
83061W        W25974   3.626  24.106   5.712 -0.0917  0.0969 -0.1342
83062W        W25975   8.920  17.966   4.141  0.2519  0.1341  0.1174
83063W        W25976   8.900  31.850   8.916 -0.0967 -0.1654 -0.3720
83064W        W25977  14.622   3.654   8.388 -0.1340 -0.1156  0.0772
83065W        W25978  21.365  22.643   1.590 -0.0279 -0.1592 -0.2946
83066W        W25979   8.451  23.220   0.661 -0.2679 -0.1195 -0.2233
83067W        W25980   9.145  14.633   0.130  0.2505  0.0571 -0.2202
83068W        W25981   5.706   8.363   1.171 -0.0820  0.0243  0.2352
83069W        W25982  31.021  14.814   3.134 -0.1131 -0.1630  0.1605
83070W        W25983   2.454   1.639   0.205 -0.5355 -0.0454 -0.1393
83071W        W25984  14.654  21.512   2.799  0.0021 -0.0075  0.2843
83072W        W25985  13.702   5.916   5.724 -0.2153  0.0427 -0.1609
83073W        W25986   6.898  19.395   2.531  0.0495  0.4813  0.2704
83074W        W25987   0.768  26.628   7.048  0.2752  0.2215 -0.0726
83075W        W25988  13.997  16.048  21.945  0.0148  0.0544  0.2265
83076W        W25989   8.278  25.900   9.985 -0.1190 -0.1725 -0.2002
83077W        W25990   4.923  32.894   7.848  0.2743 -0.1274  0.0363
83078W        W25991   7.828   7.586   6.184  0.0263  0.3082 -0.1147
83079W        W25992   8.376  23.377  10.732  0.0869 -0.2621  0.0627
83080W        W25993  15.403  18.915   3.322 -0.0733  0.3883 -0.1342
83081W        W25994   9.488  21.962   9.679  0.0282 -0.0275  0.0692
83082W        W25995  11.468  13.934   4.100 -0.0816  0.1650 -0.0804
83083W        W25996   4.336  26.388   6.421 -0.2914 -0.1715  0.1477
83084W        W25997   2.932  12.967   3.866  0.0927  0.0319  0.2815
83085W        W25998   8.858  25.765  27.826  0.0158 -0.2360  0.1559
83086W        W25999   8.919   8.952   7.090 -0.0067  0.1262  0.0920
83087W        W26000  12.502  21.858   7.108  0.3591 -0.4410  0.1771
83088W        W26001  11.184  15.219   1.786 -0.0569  0.0399  0.0986
83089W        W26002   4.807  17.410   9.750  0.3561 -0.1268  0.0919
83090W        W26003  16.583  22.619   1.911  0.0119  0.0868 -0.1340
83091W        W26004  11.255  29.249  11.782 -0.5647 -0.1037 -0.0987
83092W        W26005   1.770  21.128   6.922 -0.0799 -0.0768 -0.0497
83093W        W26006   1.694  13.817   9.346  0.0264 -0.1517  0.0129
83094W        W26007   8.746  18.755   4.203  0.0658 -0.1096  0.0033
83095W        W26008  16.005  34.044  10.155  0.1413 -0.1212  0.0834
83096W        W26009  33.177  30.448   0.355  0.1733 -0.0697 -0.2336
83097W        W26010  17.124   3.921  29.182  0.1728 -0.0273  0.0026
83098W        W26011  12.760  12.097   5.753  0.0727 -0.0728  0.1099
83099W        W26012   3.134  25.718   6.259  0.0144  0.2905  0.2421
83100W        W26013  11.032  31.766   7.195 -0.2738  0.2648 -0.3805
83101W        W26014  13.488  21.324   4.336 -0.1417  0.2774  0.1934
83102W        W26015   9.762   7.251   2.198  0.1357  0.2514 -0.0927
83103W        W26016   6.566   1.128   6.091 -0.0822 -0.3277 -0.0027
83104W        W26017  10.589  14.423   8.355  0.1409  0.0762 -0.0056
83105W        W26018   3.241  30.720   8.724  0.1697  0.0803  0.0681
83106W        W26019   3.189  33.852   4.950  0.1311  0.2214  0.2684
83107W        W26020   6.981   3.533   3.089 -0.2253  0.4300 -0.1177
83108W        W26021   9.781  22.216   8.162  0.0200 -0.0624 -0.1857
83109W        W26022  10.415  17.731   6.629  0.0440  0.2892  0.0046
83110W        W26023   3.330  12.914   4.974 -0.0822 -0.2891 -0.0847
83111W        W26024   5.470  14.475   0.597  0.1255 -0.1761 -0.1135
83112W        W26025  11.762  21.812   4.647  0.1078 -0.3494  0.3055
83113W        W26026   2.463  29.463   6.445 -0.1624  0.1011 -0.1475
83114W        W26027   7.806  14.183   3.554  0.0294 -0.1869  0.0959
83115W        W26028  16.158  16.390  27.401 -0.0514 -0.0400  0.1059
83116W        W26029  33.366  22.326   2.255 -0.4026  0.0497  0.3064
83117W        W26030  10.230  30.239   6.368 -0.5483 -0.1266 -0.1764
83118W        W26031  15.528  14.328   5.677  0.0092 -0.1185  0.3001
83119W        W26032   0.228  15.738   6.359 -0.1304  0.0373  0.2715
83120W        W26033  12.111  30.800  28.781 -0.0647  0.0312 -0.3158
83121W        W26034   7.693  17.620   9.175 -0.1645  0.4548  0.1641
83122W        W26035   8.940   1.785  12.883  0.1246 -0.3387  0.0920
83123W        W26036  10.198  21.328   8.041  0.1615  0.2660  0.4806
83124W        W26037  18.432  15.040   7.888 -0.1116  0.2112  0.3110
83125W        W26038   9.344  16.862   4.656 -0.2113 -0.1754 -0.0390
83126W        W26039   6.034  22.298   8.900 -0.1454  0.0506  0.0290
83127W        W26040  19.273  20.999  23.300 -0.0421  0.1357 -0.0764
83128W        W26041  29.825  25.150   0.464  0.1389  0.0420 -0.2069
83129W        W26042  32.485  19.648   6.324  0.3792  0.0818  0.1085
83130W        W26043   8.183  19.184   7.084 -0.0903  0.1479  0.0965
83131W        W26044  26.256  14.015   7.244  0.2935  0.2434 -0.0556
83132W        W26045   7.229  24.786  10.186  0.3227  0.1103 -0.2047
83133W        W26046   9.859   8.803  11.458  0.1216  0.0132 -0.2935
83134W        W26047   0.736  13.690   9.298  0.3712 -0.1535 -0.0555
83135W        W26048  17.812  22.733  28.164  0.1413 -0.1136 -0.1180
83136W        W26049  13.616  19.380  29.216 -0.3095 -0.0399  0.2055
83137W        W26050  20.964  13.076   5.349  0.0516 -0.2003  0.1380
83138W        W26051  33.937   5.352   2.759 -0.2631 -0.1907 -0.0996
83139W        W26052  11.235  22.865  10.702  0.1039  0.1164  0.0335
83140W        W26053   4.418  15.810   8.911  0.0243 -0.2803 -0.0438
83141W        W26054   5.906  12.297  10.298  0.2473 -0.1036  0.1990
83142W        W26055   5.440  21.472   1.486  0.5386  0.1535 -0.2716
83143W        W26056   7.364  33.984  27.504 -0.1806  0.0368 -0.0509
83144W        W26057  31.117  19.040   7.381 -0.0918 -0.0388 -0.0745
83145W        W26058   1.787   8.086   0.796  0.3106  0.0116 -0.0525
83146W        W26059  21.833  11.221   3.277  0.0016 -0.1544 -0.3139
83147W        W26060   5.620  18.591   5.830  0.1819 -0.0678 -0.0820
83148W        W26061   9.958  16.110   0.692 -0.1519  0.0453  0.2286
83149W        W26062  11.685  21.466   8.221  0.0744  0.0207 -0.1465
83150W        W26063   0.323  10.254   5.187 -0.0079  0.2587  0.0518
83151W        W26064  14.499  13.796   8.663  0.1259 -0.1540 -0.1098
83152W        W26065   6.196  16.494   1.197 -0.1122 -0.0729  0.2293
83153W        W26066   5.460  24.188   6.085  0.1789  0.0898 -0.0917
83154W        W26067  15.068  13.448  29.773 -0.1767  0.2159 -0.2218
83155W        W26068  11.975  17.731   1.527  0.1960  0.6151  0.3833
83156W        W26069   3.542  17.125  10.306  0.1328  0.0394  0.2539
83157W        W26070   1.754   7.968  11.355 -0.1312  0.1005  0.4128
83158W        W26071  10.183  10.605  10.596 -0.1717 -0.2659  0.2474
83159W        W26072  13.614  16.017  22.709  0.1963 -0.1571 -0.1822
83160W        W26073   0.585   5.622   8.092 -0.0173  0.1699 -0.0137
83161W        W26074  10.005  17.969   4.974  0.1045 -0.4933  0.0213
83162W        W26075   5.723  18.192   7.033  0.1889  0.1580 -0.1081
83163W        W26076   8.334   8.206  12.246 -0.0360  0.0322 -0.0406
83164W        W26077  20.114  28.006   9.583 -0.2853  0.0911  0.3386
83165W        W26078  34.398   4.502   4.047  0.1890 -0.0255 -0.1345
83166W        W26079   6.476  12.462   2.393  0.0452 -0.0128 -0.0174
83167W        W26080   8.704  26.083  29.426  0.0944 -0.2395 -0.0924
83168W        W26081  16.500  18.454   6.494 -0.0428 -0.2976  0.2485
83169W        W26082  10.967  18.065   7.595 -0.0093  0.1027 -0.0624
83170W        W26083   8.236   5.278   8.659  0.0111 -0.3527 -0.2570
83171W        W26084   4.741  18.012   9.046  0.1534  0.0647 -0.1050
83172W        W26085   4.415  17.259   3.119 -0.2696 -0.4474  0.0927
83173W        W26086   9.097  13.144   4.594  0.3406 -0.0208  0.0329
83174W        W26087   7.405  24.568  11.022 -0.3634  0.3323 -0.1323
83175W        W26088  17.037  15.897  23.399  0.3696 -0.0097  0.2964
83176W        W26089  19.003  22.402   2.039  0.3170 -0.1014 -0.2159
83177W        W26090  14.688  21.009  29.690 -0.0743 -0.2774 -0.1566
83178W        W26091   4.064  16.860   2.974  0.0795  0.3500  0.1474
83179W        W26092   3.126  21.018   9.797 -0.2259 -0.0938 -0.2003
83180W        W26093  16.420  30.449   8.959  0.0397 -0.1808 -0.1560
83181W        W26094  12.835  12.917   2.648  0.0880 -0.0590  0.2971
83182W        W26095  21.266  19.796   5.773  0.0370  0.0291 -0.0888
83183W        W26096  16.347  17.792   5.741 -0.2402 -0.1686 -0.1277
83184W        W26097   3.009  23.151   8.162 -0.1617 -0.0299  0.1013
83185W        W26098   3.085  22.844  22.736  0.1380 -0.2610 -0.3372
83186W        W26099  33.744   6.497  11.218  0.2212 -0.2499 -0.0858
83187W        W26100  13.897  14.925   8.469  0.0281  0.1916 -0.1529
83188W        W26101   3.615  22.770   3.996 -0.1245 -0.4260 -0.1775
83189W        W26102   4.882  24.814   4.750 -0.1428  0.0377 -0.2344
83190W        W26103   8.134  27.320   6.188  0.0617 -0.0662 -0.2470
83191W        W26104  13.725  13.953   3.974 -0.1334  0.2863  0.3921
83192W        W26105   9.312  15.267   7.056  0.0190  0.2658  0.1551
83193W        W26106   2.284  11.474   6.179 -0.0794 -0.4121  0.1475
83194W        W26107   3.388  16.619  29.720 -0.0061  0.0577  0.4826
83195W        W26108   2.625  10.506   9.016  0.4439 -0.2639 -0.0412
83196W        W26109  15.415  25.981   6.143  0.2457 -0.3402  0.2068
83197W        W26110   6.441  25.613   4.004  0.2053 -0.0071 -0.1465
83198W        W26111  12.124  22.601   6.445 -0.1689 -0.0063 -0.0743
83199W        W26112   3.965  23.543  29.451 -0.2173 -0.1333  0.0781
83200W        W26113  29.024  21.393  26.966 -0.0604 -0.2543 -0.1114
83201W        W26114  28.433  21.062  10.197  0.2951  0.3128 -0.1381
83202W        W26115   3.280  29.133   7.751 -0.0390  0.2439 -0.3301
83203W        W26116  14.387  14.013   0.047  0.6738  0.0402  0.1456
83204W        W26117   7.121  18.233   7.651 -0.1924  0.1281  0.0304
83205W        W26118   8.006  21.489  25.377 -0.2090 -0.3271 -0.3039
83206W        W26119   6.526  16.607   0.177  0.2253 -0.2391  0.1253
83207W        W26120   5.425  14.329   4.803  0.2051 -0.1618  0.0342
83208W        W26121  16.619  16.575   7.373 -0.1199 -0.4133  0.1097
83209W        W26122   9.934  14.892   1.834 -0.0856  0.0856 -0.1434
83210W        W26123  11.709   6.830   4.404  0.2388  0.1036 -0.0572
83211W        W26124   7.627   9.951   6.894  0.0909 -0.1514 -0.1863
83212W        W26125  21.560  17.375   4.297  0.2251  0.0234 -0.1155
83213W        W26126  24.366  13.027   8.759 -0.0234 -0.2656 -0.0272
83214W        W26127   0.334  25.120  10.174 -0.0864 -0.4619 -0.1117
83215W        W26128  12.996  23.846   8.700  0.1704 -0.1256 -0.5188
83216W        W26129   3.633  29.868   8.619  0.0532  0.1790 -0.1055
83217W        W26130   5.187  17.051   1.869  0.1048 -0.2438  0.1884
83218W        W26131   4.095  22.673   7.571  0.1730  0.1295  0.1169
83219W        W26132   1.121  16.172   1.552 -0.0576  0.0238 -0.1435
83220W        W26133   9.224   0.626   3.691  0.2053 -0.0453 -0.1635
83221W        W26134  13.649  15.970   7.012 -0.0203  0.0085 -0.1212
83222W        W26135  32.760  17.553   6.182  0.2818  0.1266  0.1988
83223W        W26136   4.477  20.564   1.771  0.2357  0.2110  0.1238
83224W        W26137   7.261  21.819   5.556 -0.1367  0.1978 -0.3518
83225W        W26138  27.483  17.287   4.944  0.0345  0.0684 -0.1270
83226W        W26139  10.959   1.919  10.569 -0.2095  0.1531  0.0595
83227W        W26140   4.823  24.936   3.711  0.3114 -0.0063  0.2793
83228W        W26141   6.553  19.193   8.968  0.1810  0.0593 -0.2112
83229W        W26142   2.085  24.317   7.231 -0.1495 -0.0883 -0.0878
83230W        W26143  10.542  30.886  12.827  0.4952 -0.0503  0.4767
83231W        W26144  13.667  21.856   2.096 -0.1981  0.0004  0.0677
83232W        W26145  13.468  19.066   1.317 -0.0842  0.0180 -0.1514
83233W        W26146   3.543  23.147   4.306  0.1996  0.0524 -0.2602
83234W        W26147  11.216  24.423   7.192  0.3323 -0.1122  0.1819
83235W        W26148   3.153  15.647   5.774  0.0163 -0.1396 -0.3309
83236W        W26149   9.104   5.875   5.461 -0.0985  0.2543 -0.0859
83237W        W26150  12.251   3.967   8.444 -0.1134 -0.4662 -0.2226
83238W        W26151  17.433  26.882  10.602 -0.0416  0.0095 -0.0483
83239W        W26152   4.558  13.410  10.562  0.0639 -0.0122 -0.0319
83240W        W26153  16.166  25.670   8.980 -0.0114  0.1158  0.0573
83241W        W26154   2.895   5.462  11.481 -0.1687  0.4770 -0.0799
83242W        W26155  15.964   2.474   4.911  0.1452  0.0619 -0.0410
83243W        W26156  11.678  29.675  26.324 -0.0601  0.4154 -0.0880
83244W        W26157   7.452  23.187   7.546  0.0608  0.3038  0.1675
83245W        W26158  14.619  20.930   7.893  0.1802 -0.2536 -0.0669
83246W        W26159  11.915   7.215   7.349 -0.1776 -0.1252  0.0888
83247W        W26160  10.082   5.354   6.297 -0.1893 -0.0776  0.0278
83248W        W26161  15.500  12.373  28.441  0.4217 -0.0621 -0.0879
83249W        W26162  18.368  17.129  28.849 -0.0031  0.0223  0.0281
83250W        W26163   6.313  12.847   6.515 -0.0798 -0.0509  0.0044
83251W        W26164  14.031  18.967   4.487 -0.3171 -0.0453 -0.0172
83252W        W26165   2.584  19.303   8.862 -0.0111 -0.1563 -0.1648
83253W        W26166   6.450  16.653   4.874  0.6049  0.1576  0.1568
83254W        W26167  12.029  16.789   5.345  0.1818 -0.1691 -0.0873
83255W        W26168  30.789  23.031  28.177  0.1820  0.0841 -0.2983
83256W        W26169  12.875  12.344   2.291 -0.0741  0.1395 -0.0045
83257W        W26170   5.290  29.872  10.086 -0.2817  0.1191 -0.3314
83258W        W26171   6.241  16.877   8.582 -0.1042  0.1700  0.0600
83259W        W26172   1.049   9.174   4.932 -0.0661 -0.0014  0.3117
83260W        W26173   1.326  21.515   8.833  0.3166 -0.2578 -0.5229
83261W        W26174  11.726  11.369  22.993 -0.1293 -0.0148  0.0857
83262W        W26175   2.948   5.829  11.174  0.1920  0.0376 -0.0545
83263W        W26176  27.227   7.943   8.262 -0.1001  0.0073 -0.0500
83264W        W26177   3.210  23.395   6.627  0.1108  0.0193 -0.1427
83265W        W26178  13.073  25.717   1.659  0.1127 -0.3126 -0.0126
83266W        W26179   3.345  18.324   6.712  0.2113  0.0933  0.0549
83267W        W26180   0.853  17.766  27.266 -0.0422 -0.3579  0.1378
83268W        W26181   4.171  24.422  10.075  0.0621  0.0180  0.1329
83269W        W26182   5.702  27.543   4.383 -0.0900 -0.0234 -0.0837
83270W        W26183   7.290  12.926   6.355  0.0103  0.2859  0.1446
83271W        W26184   5.695  25.914   6.805  0.2382 -0.2058 -0.0648
83272W        W26185   6.163  17.663   8.224 -0.1669 -0.1456  0.0164
83273W        W26186  13.170  13.508   3.856 -0.0916 -0.4968  0.0902
83274W        W26187  32.131  21.837   6.436  0.1001  0.0339  0.0724
83275W        W26188   7.105  21.419   5.375 -0.1545 -0.0404  0.1266
83276W        W26189  16.987  27.176   8.002 -0.0850 -0.1206 -0.0677
83277W        W26190   9.060  17.338   8.214  0.0430 -0.0042 -0.2830
83278W        W26191   9.355  18.590   7.209 -0.0301  0.0234  0.0709
83279W        W26192   8.466  28.277   9.334  0.1835  0.4981 -0.1650
83280W        W26193  12.642  20.275   2.595  0.2462 -0.1909 -0.2933
83281W        W26194  10.121  15.899   8.499  0.0301 -0.0117  0.0617
83282W        W26195  11.253   5.583  28.275 -0.1712 -0.0585 -0.2257
83283W        W26196  10.251  15.070   8.986 -0.0027  0.1032 -0.1469
83284W        W26197  15.557  21.826   4.968  0.3106  0.0795 -0.1226
83285W        W26198  14.283  27.119   5.589  0.1713  0.0824 -0.2298
83286W        W26199   6.567  15.884   8.296  0.0052  0.0588 -0.2282
83287W        W26200  14.627  15.263   3.871  0.4435 -0.3430  0.1266
83288W        W26201   6.791  27.149   8.549 -0.3238  0.1702 -0.0812
83289W        W26202   3.342  20.045   7.427  0.1311 -0.1728 -0.1111
83290W        W26203  11.305  28.254   6.619  0.1888 -0.2098  0.0367
83291W        W26204  16.208  24.723   0.173  0.3813  0.1230 -0.1393
83292W        W26205   7.628  13.944  27.823  0.3497  0.0546  0.1985
83293W        W26206   7.425  13.721   9.318  0.0067  0.3083 -0.1178
83294W        W26207  15.295  20.084   4.009 -0.3114  0.2911 -0.1261
83295W        W26208  11.916  32.103  29.436  0.0890  0.1013 -0.0585
83296W        W26209   9.532  29.844   3.545 -0.1832  0.1401  0.1870
83297W        W26210   4.550  14.331   7.408 -0.0342 -0.2855  0.0791
83298W        W26211   5.313  19.041   7.407 -0.1398 -0.0919  0.2789
83299W        W26212  34.353  12.516   0.980  0.0955  0.1046 -0.1996
83300W        W26213  12.519  27.563   8.693 -0.0149 -0.1503 -0.2173
83301W        W26214  32.607  15.643   8.009  0.0717 -0.0502 -0.0391
83302W        W26215   8.649  19.768   2.380 -0.0941  0.1873  0.0642
83303W        W26216  12.231  19.971   6.134 -0.0782 -0.4337 -0.0676
83304W        W26217  32.648  30.013   5.511  0.1832  0.4582 -0.2460
83305W        W26218   1.677  23.315   4.946 -0.2088  0.0817  0.1410
83306W        W26219  14.064  22.016   4.817 -0.2684  0.0479 -0.0806
83307W        W26220   9.100  30.096   4.979 -0.1554 -0.1883  0.0767
83308W        W26221   2.046  26.364   1.791  0.0155 -0.1159  0.2654
83309W        W26222  13.271  21.388   6.473  0.0918  0.3425  0.1692
83310W        W26223  12.165  30.927   5.733 -0.0689 -0.2164  0.3063
83311W        W26224  34.173  18.734   4.374  0.0674  0.0424 -0.3420
83312W        W26225   0.896  26.103   8.415 -0.0701  0.1026 -0.4276
83313W        W26226  31.931  20.234   3.480 -0.2566  0.0756 -0.0360
83314W        W26227   7.985  14.153   1.877  0.1029 -0.0395  0.1822
83315W        W26228  12.699  21.808   4.493 -0.2530  0.2016 -0.0156
83316W        W26229   2.660  14.605   7.035  0.0767 -0.2322  0.1256
83317W        W26230   3.187  24.485   5.703 -0.2235 -0.0234  0.2060
83318W        W26231   9.709  11.727   8.920 -0.0092  0.1147 -0.1499
83319W        W26232  11.394  18.807   7.147 -0.1549  0.0489  0.0360
83320W        W26233   6.036  18.040   8.576  0.2497  0.2402  0.4109
83321W        W26234  14.190  27.112   9.679  0.2666  0.1629 -0.4292
83322W        W26235   7.464  21.376  27.419 -0.2645  0.4340  0.0624
83323W        W26236  12.559  17.477   1.465  0.2312 -0.0982  0.3151
83324W        W26237  17.983  17.850   7.670  0.0012 -0.2236 -0.2325
83325W        W26238   8.157  23.515   0.351  0.1481  0.0243  0.1972
83326W        W26239   6.165  17.742   9.009 -0.0369 -0.1453 -0.0402
83327W        W26240  15.213  18.732   5.026 -0.1394  0.3372 -0.3036
83328W        W26241  16.145  11.999   4.595  0.1341 -0.2255 -0.0678
83329W        W26242   0.922  12.414  10.604  0.1613  0.1609 -0.0527
83330W        W26243   4.352  27.431   5.624 -0.0279 -0.1319  0.2006
83331W        W26244  15.491  24.027   6.998 -0.1623  0.0659 -0.2396
83332W        W26245  33.337  29.413   7.368  0.2424  0.0541  0.0266
83333W        W26246  16.841  16.972   0.826  0.0884  0.2981  0.0889
83334W        W26247   4.628  14.782   9.953 -0.3503 -0.0769 -0.1715
83335W        W26248   7.742  20.665   8.007 -0.2218 -0.3964 -0.1886
83336W        W26249   6.309  13.673   6.142  0.0003  0.1746 -0.0571
83337W        W26250  16.625  19.040   8.832 -0.2057  0.1639 -0.4126
83338W        W26251  33.793  20.583   4.576 -0.2890  0.0093 -0.0159
83339W        W26252  30.427   4.906   3.665  0.0814  0.0512 -0.2263
83340W        W26253   6.184  20.830   9.751 -0.2118 -0.1577 -0.0184
83341W        W26254   5.041  10.121   4.449  0.2866  0.1832 -0.1713
83342W        W26255   2.316  14.837   4.522  0.2179  0.1062  0.0439
83343W        W26256   2.301   9.071   5.503 -0.0996 -0.2952  0.5148
83344W        W26257   4.082  26.921  28.297 -0.0514 -0.0084  0.0179
83345W        W26258   1.117  29.859   3.154 -0.1224 -0.3229 -0.0290
83346W        W26259   0.647  21.411   9.970  0.0825 -0.1942  0.1760
83347W        W26260   7.201  15.410   3.147 -0.1866 -0.0719 -0.0072
83348W        W26261   7.539  27.317   8.140 -0.0003  0.1434  0.0721
83349W        W26262   7.220  16.964   5.094  0.1107 -0.1333  0.2098
83350W        W26263   3.135  22.308  28.121 -0.0084  0.3238 -0.1776
83351W        W26264  33.066  26.273   8.980  0.0651 -0.0859 -0.0389
83352W        W26265  12.600  21.510   8.307  0.0807 -0.0190 -0.0446
83353W        W26266   2.865   8.010  11.055 -0.0946  0.1365 -0.1256
83354W        W26267  14.193   7.410   8.301  0.0524  0.0698 -0.0681
83355W        W26268  30.653  16.246   1.413  0.2464  0.0727  0.2601
83356W        W26269  11.623  13.376   1.600  0.0642 -0.1922 -0.1832
83357W        W26270  10.067  22.759   7.301  0.0682  0.2594  0.0881
83358W        W26271  22.062  26.393   6.341  0.0169 -0.1319 -0.0390
83359W        W26272  33.950   9.882  11.581 -0.3189  0.1939  0.0800
83360W        W26273   6.008  16.779   7.800  0.0619 -0.1582  0.0224
83361W        W26274   6.618  16.103   7.816 -0.0925  0.1315  0.0756
83362W        W26275  23.451  18.505  26.619 -0.1020  0.0080 -0.3598
83363W        W26276   2.596  13.532   5.020 -0.0273  0.1285  0.1527
83364W        W26277  12.476  19.519   0.575  0.0124  0.0647 -0.0085
83365W        W26278   1.991   5.576   9.375 -0.3849  0.0831  0.1787
83366W        W26279   3.302  21.676   8.876 -0.1001  0.0417  0.3339
83367W        W26280   9.770  15.895   8.128 -0.1712  0.1746  0.1168
83368W        W26281   7.863  21.082   7.603 -0.1336 -0.2061  0.1213
83369W        W26282   5.600  26.205   7.249  0.0470  0.1951  0.1970
83370W        W26283  13.455   6.466   9.691  0.2679 -0.1176  0.2267
83371W        W26284  15.670  18.764  24.894  0.1699  0.2389  0.2889
83372W        W26285  16.850  24.992   8.625  0.0225 -0.1313 -0.1194
83373W        W26286  19.638  29.982   5.547 -0.0596 -0.1550 -0.1569
83374W        W26287   8.794  24.779  10.142  0.1319 -0.0166  0.0477
83375W        W26288   6.033  14.823   8.971 -0.1682 -0.1088  0.2736
83376W        W26289   5.666  15.736   5.897  0.0775 -0.3259 -0.2387
83377W        W26290  26.270   7.764   9.226  0.3353 -0.1617  0.0339
83378W        W26291   8.805  17.936   2.630  0.0446 -0.0609 -0.1338
83379W        W26292   5.797  26.848   5.587  0.2931 -0.0254 -0.1314
83380W        W26293   2.911   7.179   1.927 -0.0813  0.0032 -0.0889
83381W        W26294   7.779  17.727  28.425  0.0089 -0.1764  0.1258
83382W        W26295   8.975  32.838  11.698  0.1833  0.0537 -0.0348
83383W        W26296   8.056  25.256   7.591 -0.0427  0.2198  0.2189
83384W        W26297  11.854  32.314  12.404  0.2080  0.2374  0.0885
83385W        W26298   8.634  26.651   1.449 -0.1939  0.4051  0.0505
83386W        W26299  12.371  30.873  20.446  0.1936  0.2867 -0.1555
83387W        W26300   7.739  22.020  21.733  0.2595 -0.0069  0.1708
83388W        W26301   9.620  30.057  11.785 -0.0503  0.2808  0.0819
83389W        W26302  19.207  25.744   7.866 -0.0529  0.0510  0.2844
83390W        W26303  33.326  16.574   0.692  0.3519  0.1579  0.2291
83391W        W26304   6.944  23.703   6.418 -0.1917 -0.1131  0.1456
83392W        W26305   2.885  15.439   0.588  0.1299  0.0134 -0.0916
83393W        W26306   6.116  15.460   4.307 -0.0903 -0.1251  0.0302
83394W        W26307   3.908  19.222   7.530  0.2785  0.1819 -0.2606
83395W        W26308   5.683   3.059   3.576  0.2764  0.0289  0.1721
83396W        W26309   9.940  22.422   0.631 -0.0969 -0.0454  0.2371
83397W        W26310   9.823  11.524   2.738  0.0514  0.0418 -0.0590
83398W        W26311  11.682  14.281  23.793 -0.1122  0.0551  0.0033
83399W        W26312   3.904  10.276  23.405  0.2152 -0.0730 -0.0345
83400W        W26313  11.118  25.599   6.669 -0.2538  0.0219 -0.0354
83401W        W26314   3.579   8.376   3.081 -0.2530 -0.3284  0.2066
83402W        W26315   2.572  20.460  16.025  0.3094  0.1224 -0.4798
83403W        W26316  32.727  31.078   4.363 -0.0802 -0.4251 -0.2033
83404W        W26317  13.476  12.972   4.984  0.0221 -0.1022  0.1408
83405W        W26318   7.956  25.596  27.307 -0.2726  0.0409  0.1172
83406W        W26319  11.003  19.913   8.873  0.0070 -0.0856 -0.3822
83407W        W26320   4.653  32.194  28.868  0.1164  0.0516 -0.0981
83408W        W26321  33.825  25.640   9.758 -0.0861  0.0179  0.1121
83409W        W26322   1.388  23.742  29.005 -0.0673 -0.1288 -0.0759
83410W        W26323   5.140  23.607   2.661  0.0358 -0.0462 -0.0559
83411W        W26324   7.776  17.868   7.151 -0.0445 -0.0725 -0.3553
83412W        W26325   9.573  19.518   0.553 -0.0451  0.3333  0.0177
83413W        W26326  12.447  27.254  28.199  0.2102  0.2057  0.2906
83414W        W26327  11.522  14.764   2.831  0.1866 -0.0036  0.0195
83415W        W26328  17.577  24.884   4.352 -0.5822 -0.1599 -0.0353
83416W        W26329  15.488  22.704  21.939 -0.2271 -0.3572  0.3256
83417W        W26330   0.759  25.643  26.727  0.2195 -0.0823 -0.1836
83418W        W26331  13.357  28.803   3.858 -0.0831  0.1016  0.1805
83419W        W26332  31.902  19.540   9.193 -0.3726  0.0808  0.0813
83420W        W26333  33.922  21.636   6.341  0.0692  0.3420 -0.1603
83421W        W26334   1.867  24.784   6.230  0.0571  0.0206 -0.0017
83422W        W26335  27.277   3.524  29.063 -0.0473  0.0529 -0.3479
83423W        W26336   3.914  25.539   6.640  0.0532  0.2918 -0.0038
83424W        W26337   9.584  22.989  27.757 -0.2535 -0.1481 -0.0506
83425W        W26338  15.552  23.964   5.223 -0.0888  0.1352 -0.2173
83426W        W26339   8.543  15.022   1.977 -0.1786  0.1191 -0.3195
83427W        W26340   6.322  22.463  28.085 -0.0314 -0.2347  0.0788
83428W        W26341   1.327   0.266   4.863  0.3508 -0.2026  0.1334
83429W        W26342   9.934  22.418   3.405 -0.0869  0.1551 -0.3765
83430W        W26343  22.189  14.553  27.753 -0.2905  0.1737  0.0459
83431W        W26344  10.007  12.218   1.725 -0.3445  0.0231 -0.1296
83432W        W26345   5.971  12.170   6.127  0.0498 -0.0864  0.2468
83433W        W26346   5.919  28.443   9.854  0.2293 -0.2463 -0.0736
83434W        W26347   8.011  11.928   8.183  0.1958 -0.1159 -0.0068
83435W        W26348   7.275  27.421   8.632  0.0610  0.1120  0.1899
83436W        W26349  26.886   7.209  25.205  0.1484  0.1010  0.3348
83437W        W26350  13.810  30.139  11.579  0.2705  0.1385  0.0528
83438W        W26351  11.285  13.886  24.905 -0.0260 -0.2161 -0.3593
83439W        W26352   9.488  22.618   1.930 -0.2132  0.0733  0.0064
83440W        W26353   1.244  32.697   7.478 -0.1821  0.0506 -0.1173
83441W        W26354  12.513  17.890  24.392 -0.0976 -0.1781  0.2134
83442W        W26355   6.971  22.745   8.117 -0.1234  0.3883  0.0945
83443W        W26356   7.330   1.121   9.822  0.1473  0.3225 -0.0828
83444W        W26357   6.983  31.402  27.919 -0.0778 -0.0959 -0.0144
83445W        W26358   0.157  22.460  25.162 -0.4253  0.1151  0.4003
83446W        W26359  14.324   2.030   7.761  0.0781  0.3254  0.3418
83447W        W26360  10.056  20.082   5.266  0.0489 -0.0455  0.2262
83448W        W26361   3.159  18.100  21.581  0.1988 -0.1046  0.1533
83449W        W26362  14.690  24.033  26.193 -0.0159  0.2837 -0.1534
83450W        W26363   3.074  19.601  28.706 -0.1765  0.1536  0.0385
83451W        W26364  14.211  11.948   2.782 -0.3670 -0.2689  0.1437
83452W        W26365   1.089  25.798   8.939  0.3567  0.0099  0.0040
83453W        W26366  14.345  16.310   3.462  0.0650 -0.1297  0.0414
83454W        W26367   5.124  32.604  19.545 -0.1916 -0.2564  0.1078
83455W        W26368   4.680  21.247   4.054 -0.0741  0.0681 -0.0947
83456W        W26369   4.398  25.687   6.203 -0.1065 -0.1913  0.0434
83457W        W26370   2.449  17.780   2.656 -0.1148  0.0249 -0.2619
83458W        W26371   3.088  17.189   4.909  0.2554  0.0234 -0.1518
83459W        W26372   8.400  31.849   9.152  0.0391 -0.2342 -0.3032
83460W        W26373  10.687  29.389  26.903  0.3255 -0.3283 -0.0203
83461W        W26374   2.623  16.892  29.619 -0.2553  0.0016  0.0331
83462W        W26375  19.686  20.868   3.635  0.2084  0.1310  0.3026
83463W        W26376  10.253   2.280   1.937  0.0514  0.0723 -0.0994
83464W        W26377  16.189  19.161  28.069 -0.1123 -0.1834 -0.1593
83465W        W26378  18.320  19.061  25.585 -0.2589 -0.3155 -0.4100
83466W        W26379  28.604  22.436   8.701  0.4105  0.0583  0.0478
83467W        W26380  11.520  15.910   4.430  0.0591 -0.1529  0.0594
83468W        W26381   5.969  19.488   5.622 -0.1205  0.1189 -0.0798
83469W        W26382  15.521  16.009  26.634  0.1960 -0.1683  0.2609
83470W        W26383  33.505  17.093   9.650 -0.2302  0.1379 -0.1894
83471W        W26384   8.120  31.771  10.465  0.1012 -0.0563  0.0261
83472W        W26385  19.757   1.121  25.212 -0.0164 -0.2450  0.0296
83473W        W26386  13.769  28.384  23.716 -0.0637  0.1469  0.0395
83474W        W26387  14.313  33.156  29.494 -0.2075  0.2310 -0.1731
83475W        W26388   4.618  14.172  27.240 -0.3019  0.0230 -0.0172
83476W        W26389   6.821  10.424   4.008 -0.4711 -0.0283  0.1968
83477W        W26390   8.547  18.626  28.891  0.1369  0.0063  0.0258
83478W        W26391  11.761  25.510   0.210  0.1463  0.4488  0.2318
83479W        W26392   7.731  22.828   6.774  0.1063 -0.0821 -0.2271
83480W        W26393  17.783  23.540   1.079 -0.1478  0.0655  0.3927
83481W        W26394  10.407  19.454   4.553 -0.0474  0.0742  0.1324
83482W        W26395   8.008  20.999   9.792  0.0562 -0.2482  0.1207
83483W        W26396  13.031  24.250   5.663  0.0018 -0.0253  0.4671
83484W        W26397   6.449  23.840   5.002  0.2046  0.2388 -0.2978
83485W        W26398   5.261  28.300  29.512  0.1121  0.0032 -0.2410
83486W        W26399   7.313  33.901   3.113 -0.4383  0.0211  0.0889
83487W        W26400  20.262  32.616   8.282 -0.2197 -0.2021 -0.0626
83488W        W26401  14.562  14.731   4.456  0.4574 -0.0364  0.3414
83489W        W26402  10.187  24.846  25.272  0.1394  0.0879 -0.1123
83490W        W26403  34.113  31.443   4.688  0.0856  0.4575 -0.0815
83491W        W26404   4.837  21.693   4.805 -0.2940  0.1341 -0.0487
83492W        W26405  10.276  33.934  27.083  0.2143 -0.0260  0.0243
83493W        W26406   2.260  19.174   5.892 -0.1979 -0.2206 -0.0077
83494W        W26407   5.187  23.401   5.572 -0.0778  0.0403  0.3396
83495W        W26408  10.077  13.818  20.769  0.1665  0.0497 -0.0762
83496W        W26409   7.132  33.997  21.318  0.0665  0.2663 -0.0892
83497W        W26410  14.330  21.976  26.142 -0.0219  0.1636 -0.1798
83498W        W26411   5.349  25.819  10.721 -0.0274 -0.1878 -0.1392
83499W        W26412  13.966  15.023  28.866  0.1854 -0.0375 -0.1347
83500W        W26413   5.426   3.421   7.110 -0.1273  0.1062 -0.2932
83501W        W26414  33.461  16.993  26.391  0.4006 -0.1735 -0.2992
83502W        W26415  28.538  29.637   8.993  0.1754 -0.0384 -0.0955
83503W        W26416  32.555  27.232   5.249  0.1516 -0.3639  0.0572
83504W        W26417   9.079  29.135   2.702 -0.3391 -0.1091 -0.3925
83505W        W26418  12.004  23.047  22.835 -0.2496  0.3532 -0.3132
83506W        W26419   2.246  16.001  29.092  0.0825  0.0035  0.1041
83507W        W26420  16.260   6.740   2.016 -0.2193 -0.0290  0.2227
83508W        W26421  33.034  32.944   4.395 -0.2914 -0.2723  0.0326
83509W        W26422   7.905   9.201  24.132 -0.2960  0.0529  0.1920
83510W        W26423   1.202  17.775  20.660 -0.2707  0.2371 -0.0506
83511W        W26424  12.943  20.565   2.034 -0.0100  0.1793 -0.2046
83512W        W26425   8.868  18.895   8.259  0.0520 -0.1427 -0.2169
83513W        W26426   3.345  22.000   1.429  0.1933 -0.1422 -0.0826
83514W        W26427  14.965  28.195  27.299 -0.1746 -0.2481  0.0099
83515W        W26428   5.733  21.907   6.165 -0.1675  0.1575 -0.0867
83516W        W26429   5.858  21.151  26.016 -0.0306  0.3832 -0.2218
83517W        W26430  10.753  25.842   2.409  0.0885 -0.1416 -0.2407
83518W        W26431  17.788  31.316   0.429  0.2188  0.0268  0.0915
83519W        W26432   3.122  16.190  25.895  0.2176  0.0489  0.0977
83520W        W26433  16.941  30.253   8.893  0.1870 -0.1810 -0.0509
83521W        W26434  10.261  16.902  24.074  0.2123  0.4231 -0.0179
83522W        W26435   3.183  26.264  24.741  0.1471 -0.1627  0.0905
83523W        W26436  15.551  26.565   6.030 -0.1109 -0.3884  0.1312
83524W        W26437   1.185  25.439  29.096  0.0393 -0.3352 -0.2764
83525W        W26438  10.050  27.561   2.344  0.1390 -0.0309 -0.0866
83526W        W26439  14.949  14.805  22.433 -0.2994 -0.0128  0.1708
83527W        W26440   1.821  11.943  27.492 -0.1899 -0.0881 -0.0893
83528W        W26441  12.838  29.294  25.666 -0.1325  0.0193 -0.0875
83529W        W26442  11.115  22.489   6.923  0.3522  0.0188  0.0275
83530W        W26443   0.211  21.844   4.238  0.6128  0.2487 -0.0433
83531W        W26444  12.129  25.225   9.678  0.1685 -0.0722  0.0030
83532W        W26445  14.456  11.709  24.265  0.3414 -0.0859 -0.0539
83533W        W26446   7.406  20.548  27.672  0.4324 -0.0210  0.0393
83534W        W26447   7.198   4.844  20.094 -0.0351  0.1338 -0.2436
83535W        W26448  33.777  25.453  29.331 -0.3283  0.1239 -0.0819
83536W        W26449  33.673  10.424   3.053 -0.1164 -0.0233  0.0917
83537W        W26450   8.018  20.768   4.675  0.0992 -0.0873  0.0990
83538W        W26451  34.180  22.177  24.295  0.1842  0.0330 -0.0957
83539W        W26452  13.223  30.135   5.125  0.1578 -0.1060 -0.0297
83540W        W26453  13.474  29.835   7.780 -0.0438 -0.0693 -0.0708
83541W        W26454  10.509  19.860  27.476  0.0029 -0.1629 -0.1057
83542W        W26455  33.708  24.800   5.099 -0.1289 -0.0263 -0.0809
83543W        W26456  14.410   1.136   9.745  0.1552  0.0607  0.4204
83544W        W26457  10.523   3.298  12.164 -0.1987 -0.1186 -0.1873
83545W        W26458   5.758  20.915   9.412  0.1440  0.0446 -0.2813
83546W        W26459  12.708  14.453  20.904  0.0234 -0.0944 -0.2409
83547W        W26460  11.457  25.365   9.176  0.0105  0.0835  0.0374
83548W        W26461  16.911  23.262   1.589  0.0785  0.1597 -0.0664
83549W        W26462   6.794  25.870   8.045 -0.0907 -0.0492  0.1428
83550W        W26463  15.077  27.728  10.559 -0.2164 -0.2648 -0.0167
83551W        W26464  11.039  24.887  22.153 -0.2271 -0.0521  0.1511
83552W        W26465  10.101  32.547   9.149  0.0764  0.0757  0.2039
83553W        W26466   9.531  17.979  28.210 -0.2349 -0.0768 -0.4199
83554W        W26467   9.591  27.473  25.896  0.0918 -0.2035  0.0924
83555W        W26468   9.512  19.922  28.931 -0.1104 -0.1172 -0.0801
83556W        W26469  15.345  21.981  26.803  0.1076  0.4222 -0.0336
83557W        W26470  10.959  18.554   0.346  0.0433  0.0755 -0.1967
83558W        W26471   6.060  18.029  26.443  0.2195  0.1067  0.0607
83559W        W26472  31.598  33.948  26.884  0.0047  0.0351  0.0062
83560W        W26473  19.978  30.682   3.172  0.0800  0.0353 -0.0335
83561W        W26474   6.380  19.727   6.846  0.0789 -0.0217  0.2259
83562W        W26475   7.847  21.963  25.382 -0.0362 -0.2777  0.0099
83563W        W26476  14.008  19.488   1.938 -0.4222 -0.0020  0.1939
83564W        W26477   3.309  19.696   6.264 -0.0985 -0.1847  0.0859
83565W        W26478   0.494  23.449   5.764 -0.2340  0.2009  0.1090
83566W        W26479   8.328  31.172   5.885 -0.3652 -0.0759  0.1879
83567W        W26480   4.601  13.822   3.712 -0.0936 -0.2605 -0.0146
83568W        W26481   6.880  19.736   6.665 -0.0260  0.0036  0.1231
83569W        W26482  16.570  13.247  24.186 -0.0182  0.3778 -0.1826
83570W        W26483  11.647  29.796  28.680  0.0596  0.0454  0.0547
83571W        W26484  10.866  22.169   8.538 -0.1184 -0.2621 -0.1113
83572W        W26485   7.314  12.858  20.679  0.2694  0.2222 -0.2266
83573W        W26486  11.765  18.837  25.090 -0.2821 -0.0878 -0.2152
83574W        W26487   4.859  20.319   3.600  0.1132  0.2148 -0.0817
83575W        W26488  10.344  23.676   2.804  0.1069  0.0692 -0.0372
83576W        W26489   6.674  15.759   3.349  0.0307 -0.0111 -0.0066
83577W        W26490   2.664  20.917   6.739  0.1685  0.1511  0.0476
83578W        W26491  15.502  16.102  29.416 -0.1217  0.0013 -0.1313
83579W        W26492   5.006  25.377  29.154  0.2941 -0.0188 -0.1620
83580W        W26493   1.848  24.058  26.178  0.1187  0.0592 -0.0592
83581W        W26494   8.510  18.994   0.980  0.1208 -0.0694  0.0292
83582W        W26495  11.475  21.498  19.637  0.3350 -0.1511  0.1441
83583W        W26496  13.460  12.522   7.852 -0.3462  0.1618  0.1792
83584W        W26497  12.155  22.109   6.751  0.1229  0.0298  0.0736
83585W        W26498   9.805  20.308   4.327  0.0087 -0.0563  0.4331
83586W        W26499   1.693  33.467   4.001  0.1883  0.1011 -0.1876
83587W        W26500   9.300  25.136   5.607 -0.1799 -0.2471  0.0862
83588W        W26501  11.919  11.371  25.808  0.0004 -0.0701 -0.0608
83589W        W26502  30.110  27.452   5.624  0.1493 -0.3322 -0.1466
83590W        W26503  15.824  22.522   3.805 -0.1709 -0.1119  0.0449
83591W        W26504  15.450  28.192   1.762 -0.0029  0.1850 -0.0890
83592W        W26505  33.541  31.164  29.402 -0.0774 -0.3108  0.2978
83593W        W26506   3.770  28.990   9.194  0.1841  0.3622 -0.2790
83594W        W26507  20.262  20.103  27.539 -0.1535 -0.3077  0.1582
83595W        W26508  31.883  26.117  25.783  0.2346  0.0383 -0.0326
83596W        W26509   4.541   3.396  10.963  0.0697 -0.2407  0.2226
83597W        W26510  12.789  27.086   4.594  0.4473 -0.5905 -0.0899
83598W        W26511  29.006  15.968   1.960 -0.2068  0.0371  0.2856
83599W        W26512  13.650  19.194   3.257 -0.1563 -0.1370 -0.4025
83600W        W26513   6.521  18.242  29.298  0.1707 -0.0524 -0.1683
83601W        W26514  33.565  30.634  29.312 -0.2284  0.1613  0.1338
83602W        W26515  11.605  26.070  26.964  0.1497  0.2516  0.2103
83603W        W26516   2.615  24.046   4.848 -0.1051 -0.2342  0.2248
83604W        W26517   7.391  22.697  25.785  0.0334  0.0654  0.4228
83605W        W26518   7.252  32.253   3.374  0.2933  0.6246  0.3104
83606W        W26519  10.057  26.773   5.508  0.2859 -0.0810  0.0568
83607W        W26520   5.460  18.198   5.327  0.0184 -0.0187 -0.2703
83608W        W26521  11.552  17.718  29.683 -0.0072 -0.3766 -0.0752
83609W        W26522   5.791  12.842  28.546 -0.2837 -0.1978 -0.0654
83610W        W26523   6.665  16.848   6.691  0.1555 -0.1494 -0.1312
83611W        W26524  13.149  19.407   7.874 -0.0102  0.0949 -0.2161
83612W        W26525   6.739  18.476  29.723 -0.4147 -0.1641  0.0163
83613W        W26526   1.603  22.972  26.040  0.1136  0.2059  0.1583
83614W        W26527  11.302  17.949   3.272  0.1169  0.0354 -0.0513
83615W        W26528  10.947   2.058   7.173 -0.2051  0.2728 -0.1563
83616W        W26529  16.730  19.158  23.250 -0.1536  0.0352  0.1274
83617W        W26530   9.069  27.269   7.665  0.1860 -0.0362  0.0092
83618W        W26531  12.639  19.039  20.888 -0.0264 -0.3340  0.0164
83619W        W26532   5.581  24.531  21.327  0.3304  0.1345  0.2879
83620W        W26533  27.843  27.847  29.267 -0.4165 -0.0944  0.0881
83621W        W26534  15.146  32.749  10.155 -0.0615  0.1920 -0.1557
83622W        W26535   4.700  12.299   3.794  0.1391  0.0618  0.1092
83623W        W26536  13.445  13.554   1.482 -0.1463 -0.0556 -0.0353
83624W        W26537   2.401  23.880   2.320  0.4358  0.1488 -0.2840
83625W        W26538  34.134  24.030   5.730  0.1814 -0.1134 -0.0220
83626W        W26539  17.585  19.927  23.483 -0.0908 -0.1344 -0.1694
83627W        W26540   2.784  21.677   6.184 -0.0898  0.0437 -0.4172
83628W        W26541   6.696  16.160  24.981 -0.3321  0.1498  0.0188
83629W        W26542   8.213  23.435   5.370  0.0957  0.1272  0.0323
83630W        W26543   3.342  27.949   8.332 -0.2999 -0.0771  0.0030
83631W        W26544   6.319  22.052   3.457  0.1089 -0.0823 -0.2771
83632W        W26545  33.931  17.876  27.594 -0.0466 -0.1487  0.1900
83633W        W26546   8.922  18.878  22.262 -0.0671 -0.1295 -0.0628
83634W        W26547  32.224  28.218  21.347  0.1556 -0.3316 -0.2310
83635W        W26548   6.623  24.761   4.762  0.2071 -0.1441  0.1645
83636W        W26549  12.293  25.350  29.479 -0.0827 -0.2316 -0.1840
83637W        W26550  31.296  18.610   6.596  0.1730  0.2800 -0.0375
83638W        W26551  31.279  24.851  29.035 -0.0741  0.0079  0.2051
83639W        W26552  10.418  14.958  29.336  0.2636  0.5073  0.0767
83640W        W26553  12.457  28.285   3.392  0.1300 -0.0021  0.1388
83641W        W26554   8.748  29.354   6.270 -0.3277  0.1353  0.1308
83642W        W26555  18.081  24.847  29.509  0.1549  0.2142  0.3905
83643W        W26556  20.023  22.385   0.035  0.4354 -0.0831 -0.0608
83644W        W26557  14.333   8.748   1.856  0.1990 -0.2528 -0.3712
83645W        W26558   8.908   3.272  11.356 -0.0411  0.0066  0.1991
83646W        W26559  13.364  23.527  10.438 -0.1351  0.3295  0.2141
83647W        W26560   6.354  22.950   3.970 -0.2862  0.1245 -0.1527
83648W        W26561   3.932  13.783  29.652  0.1121 -0.1178  0.0062
83649W        W26562  15.599  22.523   2.670 -0.2565  0.1005 -0.1078
83650W        W26563  14.432  20.832  26.093 -0.2722 -0.1966  0.0079
83651W        W26564  33.725  16.039  26.644  0.2212 -0.0038 -0.1754
83652W        W26565   3.059  25.440   1.225 -0.1165 -0.1723  0.1359
83653W        W26566   5.135  20.902   4.194  0.0428  0.1280  0.2640
83654W        W26567   9.260  31.039   2.240 -0.0862 -0.2136 -0.1010
83655W        W26568  24.669  32.076   6.975  0.3465  0.0267 -0.1915
83656W        W26569   9.899  20.673   6.911 -0.0675  0.0120  0.3514
83657W        W26570   9.650  16.294   1.838 -0.2194 -0.3861 -0.1297
83658W        W26571  30.510  33.185   2.892  0.0859 -0.0393  0.0819
83659W        W26572   6.986  24.722  29.625  0.3983  0.2119  0.0855
83660W        W26573   4.714  23.750   2.279 -0.0724  0.1495 -0.0704
83661W        W26574   0.769  19.893   0.298 -0.2647  0.2067 -0.0263
83662W        W26575   6.565  24.778   9.609  0.2168  0.0455  0.2578
83663W        W26576   0.098  28.345   6.355 -0.1260 -0.2448  0.1669
83664W        W26577   8.701  34.247  12.215  0.1365  0.1473  0.0237
83665W        W26578  34.374  31.857  27.331  0.0552  0.2498  0.2230
83666W        W26579  15.579  22.205   8.408  0.2139  0.0734  0.0485
83667W        W26580   8.133  12.111  24.804 -0.3232 -0.0151 -0.0427
83668W        W26581  18.838  27.071   7.632 -0.0654  0.2730  0.4334
83669W        W26582   2.708  17.348  27.791  0.1426 -0.2321 -0.1862
83670W        W26583  14.764  12.146   0.258 -0.2015 -0.2042 -0.2448
83671W        W26584   8.768  25.619   3.713  0.0318  0.2088 -0.1267
83672W        W26585  10.783  27.863   8.605  0.1353 -0.1121 -0.3439
83673W        W26586  22.042  30.303  21.620  0.1449  0.3117 -0.2251
83674W        W26587  12.322  23.165   2.405 -0.2455 -0.0778 -0.1719
83675W        W26588   2.268  19.472   3.275 -0.3632  0.2350  0.2563
83676W        W26589  33.992  32.233   9.428  0.0147  0.0959  0.0275
83677W        W26590  18.408  13.300   4.384  0.3168 -0.2786 -0.2722
83678W        W26591   5.899  11.440  21.218  0.0707  0.1145 -0.0650
83679W        W26592  19.507  23.908   8.065  0.2392 -0.1500 -0.0840
83680W        W26593  12.681  12.010   1.406 -0.1842 -0.1784  0.1632
83681W        W26594   7.091  21.883  22.446  0.1589 -0.2280 -0.0906
83682W        W26595   9.625  23.664  23.897 -0.0431  0.2529 -0.3444
83683W        W26596  17.234  32.955  26.437  0.1295 -0.0008  0.1044
83684W        W26597   3.467  17.197  27.585 -0.0092 -0.1878  0.1233
83685W        W26598  19.600  24.779   2.240  0.2577  0.1810  0.1802
83686W        W26599  11.022  13.991   5.322  0.2614  0.1131  0.3131
83687W        W26600  11.760  15.658  29.001 -0.3234  0.3454 -0.0567
83688W        W26601  12.023  23.260  24.244 -0.1746 -0.2177  0.3676
83689W        W26602  18.648  27.687   6.471  0.2157 -0.0331  0.1011
83690W        W26603   9.035  21.337   8.031  0.2024 -0.1749 -0.0696
83691W        W26604   2.276  33.085  29.779  0.0465 -0.3032  0.3663
83692W        W26605   4.647  21.295   6.304 -0.0251  0.0740  0.1158
83693W        W26606   1.857  18.518   0.923 -0.0539  0.0694  0.0806
83694W        W26607   2.892  27.827   2.957  0.3529  0.1153 -0.0551
83695W        W26608  14.103  18.602  25.585 -0.3457 -0.2281  0.1410
83696W        W26609   6.238  18.757   2.630  0.3249  0.3082 -0.0710
83697W        W26610   2.968  30.092   9.159  0.0922  0.0311 -0.2412
83698W        W26611  17.908  15.504  23.559 -0.0118  0.1215  0.0831
83699W        W26612  30.278  30.742   7.340 -0.0378 -0.0415 -0.0448
83700W        W26613   8.080  20.431   5.286  0.1941 -0.1544 -0.0295
83701W        W26614   2.220  29.131   7.389  0.3784 -0.0051  0.0389
83702W        W26615   1.079  32.377   5.303 -0.0075 -0.1100 -0.1607
83703W        W26616   6.933  19.568   5.455  0.0006  0.0632  0.0648
83704W        W26617   4.214  28.704   7.739 -0.3919 -0.1577  0.0159
83705W        W26618  33.924  13.041  29.465 -0.1241 -0.3864  0.0008
83706W        W26619  15.413  22.071   6.615  0.1757 -0.0858 -0.0901
83707W        W26620  11.473  29.731   3.648 -0.0700 -0.0046 -0.0774
83708W        W26621   0.474  23.483   9.424 -0.1545 -0.1412 -0.1233
83709W        W26622   5.132  23.305   3.158 -0.0384 -0.1735 -0.2226
83710W        W26623   9.854   0.645  10.247 -0.2513  0.1909 -0.2204
83711W        W26624  12.767  25.979  27.735  0.1418 -0.1122  0.2113
83712W        W26625   3.807  25.062   0.459 -0.1039 -0.3561  0.0042
83713W        W26626   5.754  32.463   6.929  0.0196 -0.4363  0.0581
83714W        W26627  14.179  20.705  26.548 -0.1532 -0.0950 -0.3089
83715W        W26628  14.940  19.934   2.225 -0.0152  0.5265 -0.0850
83716W        W26629   0.295  27.136   6.830 -0.2430  0.1783  0.0239
83717W        W26630  13.210  21.576   2.150 -0.3572  0.0826  0.1619
83718W        W26631  33.227  19.692  26.619 -0.0602  0.1377 -0.2044
83719W        W26632  13.493  29.616   8.680  0.1826 -0.1052  0.0415
83720W        W26633   3.913  20.092  23.060  0.2553  0.2895  0.0085
83721W        W26634  10.083  22.229  18.511 -0.1729 -0.0892 -0.2127
83722W        W26635   4.178  27.133  10.040 -0.5666 -0.0635  0.0288
83723W        W26636   9.398   0.877  29.073  0.2715  0.1550 -0.1194
83724W        W26637  12.623   3.549  11.539  0.2456  0.0901 -0.0439
83725W        W26638   9.221  22.995   8.857 -0.1160  0.0893 -0.0349
83726W        W26639  16.819  24.844   7.985  0.1323  0.1886 -0.0974
83727W        W26640  31.935  25.973   2.867  0.0001  0.0759 -0.2852
83728W        W26641  32.467  12.593   3.136 -0.1570  0.0931 -0.3312
83729W        W26642   6.537  18.366  23.532  0.0414 -0.0520  0.1618
83730W        W26643  16.482  20.117  21.918 -0.0750 -0.1491 -0.1508
83731W        W26644  33.734  22.383   4.539 -0.2143 -0.1884  0.1223
83732W        W26645  13.624  22.806  23.755  0.1340 -0.1450  0.1648
83733W        W26646  12.251  24.995   7.509 -0.1931  0.1573  0.0744
83734W        W26647   3.190  19.290   2.271 -0.1772  0.0752  0.3133
83735W        W26648  21.375  25.731   4.691 -0.0841  0.2216 -0.0347
83736W        W26649  14.878   3.726   0.851  0.0661  0.0334  0.1560
83737W        W26650  17.968  22.241   8.936  0.0444  0.0401 -0.2713
83738W        W26651  10.696   6.321  29.499 -0.0374  0.3847  0.1374
83739W        W26652  19.529  23.385   4.002 -0.1702 -0.1943  0.2461
83740W        W26653  31.353  26.979  24.644 -0.1931  0.0038  0.1533
83741W        W26654  30.684  22.026  25.042 -0.0220 -0.0994  0.0025
83742W        W26655  10.424  20.388   8.159  0.2321  0.0514 -0.1617
83743W        W26656   7.196  23.896  25.993 -0.1887 -0.1222  0.0630
83744W        W26657   8.745  16.962   6.547  0.0445 -0.1089  0.4872
83745W        W26658  11.475  24.981  29.528  0.1361  0.0219  0.3659
83746W        W26659   4.867  22.291  17.890  0.0669 -0.1303  0.1457
83747W        W26660   8.739   1.737  25.114 -0.0567 -0.0419  0.1202
83748W        W26661   7.354  28.288  28.850  0.0185 -0.1352  0.3690
83749W        W26662   7.905  25.550   9.996 -0.1152  0.0957 -0.0468
83750W        W26663   5.035  25.428   3.124  0.0730 -0.1071  0.0595
83751W        W26664   9.217  20.936   7.238 -0.0666 -0.1614 -0.2870
83752W        W26665   5.941  25.022   0.568 -0.0316  0.0120  0.2588
83753W        W26666   6.919  26.569  26.248 -0.4177 -0.1212 -0.2956
83754W        W26667   9.293  24.764   9.511  0.1556 -0.1562  0.2581
83755W        W26668  21.939  24.458  27.279 -0.1114  0.2336  0.0171
83756W        W26669   9.498  21.418   3.597  0.3630 -0.0496  0.2538
83757W        W26670   5.132  17.906   6.195  0.0095 -0.1581 -0.1636
83758W        W26671  10.226  21.709   1.099  0.2200  0.0513 -0.0506
83759W        W26672   5.920   9.371   8.842  0.0169 -0.0130  0.0460
83760W        W26673  10.736  25.363   7.569  0.0045  0.0042  0.2850
83761W        W26674   5.085  29.621   7.615 -0.1324 -0.0571  0.1374
83762W        W26675   7.618  25.165   7.311  0.0093 -0.0319  0.0876
83763W        W26676   0.016  29.698   9.580  0.0193 -0.1278 -0.2700
83764W        W26677   3.108  15.000   9.073  0.0205  0.2405  0.3240
83765W        W26678  11.765  21.712   1.365 -0.1259  0.1264  0.2035
83766W        W26679   1.971   1.774   0.364  0.0771  0.0152 -0.0918
83767W        W26680   3.544  29.459  26.155  0.1178  0.1962 -0.1347
83768W        W26681  11.598  21.050   5.887 -0.0678 -0.1321 -0.0669
83769W        W26682   3.371  24.945   6.107  0.3107 -0.0191  0.3074
83770W        W26683   9.966  18.572  28.545 -0.2351  0.1288 -0.0615
83771W        W26684   6.078  23.783  28.766 -0.1186 -0.2296 -0.1656
83772W        W26685  16.703  29.830  29.341  0.2030 -0.1304  0.0562
83773W        W26686  11.642  29.512  26.878 -0.1996 -0.0740 -0.1645
83774W        W26687  12.742  22.412   5.611  0.0071 -0.2025  0.0121
83775W        W26688   4.748  23.425   4.963  0.0907 -0.0532 -0.0633
83776W        W26689  16.570  20.395   1.493 -0.1752 -0.0812 -0.1479
83777W        W26690   3.300  25.533   8.203  0.1833  0.3963  0.1239
83778W        W26691   2.530  22.927   5.186 -0.1752 -0.2850 -0.0222
83779W        W26692  34.039  28.233  26.694 -0.3334  0.3338 -0.0579
83780W        W26693  13.544  26.202   6.897  0.0286 -0.1454  0.0653
83781W        W26694   9.573  20.454  27.133 -0.0527 -0.0949 -0.1190
83782W        W26695   2.634  25.691   6.338  0.2146  0.2641  0.1855
83783W        W26696   4.043  23.360   6.961 -0.0479 -0.3721  0.0685
83784W        W26697  20.069  19.330   5.448  0.1107 -0.0196 -0.2073
83785W        W26698  12.469  14.688  25.054 -0.2535  0.1393 -0.0178
83786W        W26699   9.917  26.486   9.722  0.2893 -0.1020  0.1039
83787W        W26700   8.390  15.223   4.577 -0.1146 -0.5195  0.2973
83788W        W26701   9.598  23.993   3.409  0.3402  0.1691  0.3808
83789W        W26702  11.940  24.558   1.781 -0.1011  0.0250  0.2655
83790W        W26703   8.745  29.522   7.871  0.1291  0.1661 -0.2411
83791W        W26704   6.499   2.326  10.551 -0.0143  0.0389  0.3572
83792W        W26705  16.149  25.115  22.083 -0.1846 -0.2272 -0.0487
83793W        W26706  33.279  27.489   6.276  0.0349 -0.3102  0.1033
83794W        W26707  13.716  29.439   9.562  0.0330  0.1349  0.1656
83795W        W26708   8.895  13.673   4.654  0.0935  0.0449 -0.3582
83796W        W26709  13.853  14.999  27.855 -0.2556 -0.1584 -0.0702
83797W        W26710  14.078  23.459   6.830 -0.1690  0.0297  0.0460
83798W        W26711  33.980  24.231   8.010  0.0740 -0.1760 -0.2541
83799W        W26712  14.614  23.352   9.156 -0.2228 -0.1478 -0.0285
83800W        W26713  10.652  18.188   2.074  0.0700  0.2550  0.1408
83801W        W26714  12.334  28.009   2.996  0.1156 -0.0019  0.1280
83802W        W26715  13.778  32.750   5.726 -0.0664 -0.0019  0.4855
83803W        W26716   9.411  31.032   5.333  0.0757  0.3375  0.0529
83804W        W26717   9.783  22.006  26.803 -0.0189 -0.3479  0.1155
83805W        W26718   6.089  12.963   0.080  0.2837  0.0960 -0.2651
83806W        W26719  10.021  28.967  11.806  0.2405  0.0168  0.3616
83807W        W26720   9.654  31.489   5.495 -0.0832 -0.2794 -0.0366
83808W        W26721  13.010  25.540   9.748 -0.0156 -0.0544 -0.2092
83809W        W26722   9.428  30.954  27.599 -0.0185 -0.1279 -0.2541
83810W        W26723  10.479  31.832  10.838 -0.1588  0.2089  0.1510
83811W        W26724  33.996  33.863   0.736  0.0502 -0.1653  0.1249
83812W        W26725   5.079  20.518   6.254 -0.1285  0.0636  0.2774
83813W        W26726   6.621  25.205   8.668  0.3198 -0.1155  0.2460
83814W        W26727  15.088  21.750   4.840 -0.1365 -0.0223 -0.2215
83815W        W26728  17.705  19.149   0.467 -0.0487  0.1819  0.1258
83816W        W26729  13.062  29.560  15.749 -0.1322  0.0841  0.3009
83817W        W26730  24.085   4.437   4.313 -0.0664  0.0864 -0.2879
83818W        W26731   8.049  29.151   5.281 -0.0660  0.1204 -0.0801
83819W        W26732  33.552  27.588   1.983 -0.1340 -0.0228  0.2296
83820W        W26733   8.435  28.013   2.578 -0.1245  0.1195 -0.0199
83821W        W26734  11.141  20.458  29.174  0.1840  0.1426 -0.2238
83822W        W26735   2.614  11.808   8.500  0.1891 -0.2841 -0.2590
83823W        W26736  31.540  30.098   4.042 -0.2121  0.1511  0.2080
83824W        W26737  12.393  17.815   2.223 -0.2711  0.0819  0.0286
83825W        W26738  15.133  27.545   4.941  0.1399  0.1870 -0.0837
83826W        W26739   4.368  25.620   9.064 -0.0298  0.3171  0.1007
83827W        W26740   7.820  19.827   8.220  0.1237 -0.2913 -0.0634
83828W        W26741   8.783  22.868   4.951 -0.0502 -0.0166 -0.2609
83829W        W26742  30.860  30.549  20.695 -0.0430  0.0923  0.1641
83830W        W26743   7.586  15.635   5.588  0.1617  0.1283 -0.1081
83831W        W26744   8.787  16.163  29.602 -0.0412 -0.2409 -0.0774
83832W        W26745  15.255  26.336  10.881  0.0182  0.1765 -0.2629
83833W        W26746   2.299  20.489   7.553  0.0425 -0.2393  0.3146
83834W        W26747   6.035   6.205   0.441  0.1136 -0.1693  0.0610
83835W        W26748  10.948  20.038   0.091 -0.1799  0.0080  0.0931
83836W        W26749   8.105  19.070   1.353  0.0536 -0.0027  0.0349
83837W        W26750   9.376  27.207  10.616  0.1362 -0.1409  0.1579
83838W        W26751   4.467  23.920   6.417 -0.0219 -0.0465  0.4093
83839W        W26752  13.629  30.434   4.130  0.2453 -0.0838  0.4692
83840W        W26753  13.557  23.530   8.729  0.0121  0.1870 -0.0109
83841W        W26754  31.917  26.060   5.085 -0.2532  0.1728 -0.0509
83842W        W26755  22.998  17.234  25.438  0.1487  0.1456 -0.1982
83843W        W26756   7.896   9.892   9.333  0.0519 -0.0920 -0.0136
83844W        W26757  13.159  11.979   5.335 -0.4988 -0.0499 -0.0596
83845W        W26758  13.851  15.468  26.323  0.2527 -0.3441  0.0108
83846W        W26759   9.182  30.458   8.057  0.0691 -0.1507 -0.1500
83847W        W26760  15.362  26.485   8.994  0.0169  0.2889  0.1647
83848W        W26761   7.877  28.747   7.684  0.1274 -0.3380 -0.1133
83849W        W26762  13.770  27.244   4.848  0.1090 -0.2383 -0.3541
83850W        W26763   4.571  27.008   3.220 -0.0871  0.1430 -0.1479
83851W        W26764   7.246  20.676  24.756 -0.1538 -0.0549  0.1723
83852W        W26765   4.775  28.714   0.353  0.1441  0.1511 -0.2852
83853W        W26766  13.162  22.129   1.325 -0.2718  0.0418 -0.0047
83854W        W26767   6.161  27.511   0.631 -0.2849  0.1757 -0.3250
83855W        W26768  28.509  20.507   8.398  0.0875 -0.2747 -0.1433
83856W        W26769  33.046  21.928   8.757 -0.4748  0.1365 -0.4102
83857W        W26770   5.070  21.752   5.681 -0.2182 -0.0758  0.0975
83858W        W26771  32.670  27.338   7.357 -0.0439 -0.0716  0.1008
83859W        W26772  13.716  26.978   9.851 -0.3590 -0.1938  0.0237
83860W        W26773  18.386  24.587   8.027  0.1969  0.0133 -0.2255
83861W        W26774   8.760  27.413   8.740  0.0366 -0.0806  0.1241
83862W        W26775   9.281  16.471   9.117  0.3413 -0.0570  0.2578
83863W        W26776   1.685   6.521   1.411 -0.0712 -0.0160 -0.3012
83864W        W26777   1.918  11.417   7.283  0.4295  0.1448 -0.1018
83865W        W26778   6.905  31.847  11.814  0.3094 -0.2242  0.4652
83866W        W26779  30.309  34.195   3.605  0.2133 -0.0042  0.1572
83867W        W26780   5.644  23.172   7.873 -0.0695  0.4349  0.0679
83868W        W26781  10.276  23.723   5.813  0.1896 -0.0204  0.0925
83869W        W26782  13.097  32.485   9.881 -0.2341 -0.2534  0.0029
83870W        W26783  16.197  22.413  27.135 -0.4138  0.1847 -0.2925
83871W        W26784  10.142  24.199   0.738  0.0678 -0.2876 -0.0333
83872W        W26785  13.183  21.253  28.301  0.2032  0.2548  0.1735
83873W        W26786   0.674  26.264   5.532  0.2235 -0.1351  0.0875
83874W        W26787  32.594  29.420   0.397 -0.0316  0.4375 -0.1943
83875W        W26788  16.737  21.486   5.576  0.0494  0.0591 -0.0087
83876W        W26789   6.543  24.525  21.573 -0.4521 -0.0422  0.0658
83877W        W26790   9.240  30.877   5.901 -0.2365  0.2686  0.0576
83878W        W26791   6.487  29.620   3.252  0.1541 -0.1189 -0.0704
83879W        W26792   1.071  24.292   1.632  0.1151  0.0210  0.0348
83880W        W26793   8.233  11.888   1.012 -0.0856  0.0459 -0.1263
83881W        W26794  16.679  10.738   6.180  0.4506  0.0763 -0.1304
83882W        W26795  11.381  19.736   2.872 -0.2550 -0.2084 -0.0101
83883W        W26796   4.270  16.401   5.179  0.3580 -0.3378  0.0606
83884W        W26797  10.813  23.239  24.354 -0.1850 -0.3484 -0.4033
83885W        W26798   8.547  27.413   7.427  0.1842 -0.2856 -0.3118
83886W        W26799  21.919   7.095   4.485  0.0689 -0.1123 -0.3349
83887W        W26800   5.631  20.830   2.948  0.0382 -0.3294 -0.1562
83888W        W26801   1.782  12.989  23.943  0.1455  0.1637  0.0968
83889W        W26802   3.079   1.138   7.099 -0.0241 -0.2354  0.0178
83890W        W26803  15.247  31.556   7.071 -0.0671 -0.0575 -0.2862
83891W        W26804   3.542  16.127   7.783  0.0907 -0.1928  0.3772
83892W        W26805  17.085  32.019  28.918  0.1714 -0.1665  0.3654
83893W        W26806   7.067  24.641   9.322  0.0080 -0.1758  0.0789
83894W        W26807   7.349  25.431   6.282 -0.0398 -0.3675  0.0539
83895W        W26808  11.972  18.651   7.624 -0.1749  0.0565 -0.1450
83896W        W26809  15.460  19.574   5.055  0.2651 -0.3186 -0.3821
83897W        W26810  10.493  20.323   5.072  0.1824  0.3512  0.0956
83898W        W26811   4.923  17.318   8.507 -0.0273  0.1306  0.2613
83899W        W26812   9.382  21.985   7.282  0.1785  0.1232  0.0283
83900W        W26813   7.528  27.244  11.030 -0.1457  0.0869 -0.1734
83901W        W26814  15.301  24.237   9.181  0.0295  0.0273  0.2610
83902W        W26815   9.028  21.869   7.807  0.3310  0.4043 -0.0557
83903W        W26816   4.395   1.247  11.040  0.1492  0.1770 -0.1115
83904W        W26817  15.109  26.799   3.219  0.2187  0.2974 -0.0391
83905W        W26818  33.247   1.651   6.976 -0.3410  0.1777  0.1590
83906W        W26819  10.178   3.111   4.232  0.0151 -0.0390 -0.0154
83907W        W26820   1.117  23.596   8.200  0.0567 -0.0448  0.0047
83908W        W26821   7.814  18.741   8.700 -0.2542 -0.0662  0.0382
83909W        W26822  27.504  24.523   1.168 -0.2350  0.4553  0.0234
83910W        W26823   4.612  27.036  29.082  0.3660  0.0733 -0.1932
83911W        W26824   9.243  25.457   8.047 -0.1898 -0.1009 -0.3730
83912W        W26825  15.401  18.075  24.431  0.0165  0.2021 -0.1148
83913W        W26826  10.167   9.983   0.681  0.0284 -0.2809  0.0111
83914W        W26827  11.607  34.284   9.318  0.1792 -0.2516 -0.0562
83915W        W26828  18.344  19.954   0.329  0.2193  0.1881  0.0504
83916W        W26829  12.643  28.393   8.512  0.0610  0.0872  0.2661
83917W        W26830   4.769  32.023   4.247 -0.1189  0.2736  0.0293
83918W        W26831  12.930  28.523   6.990  0.0424 -0.0789 -0.1380
83919W        W26832   9.298  29.294   9.504 -0.3198 -0.0286 -0.2602
83920W        W26833  11.339  28.407  11.497 -0.1623 -0.4062 -0.2861
83921W        W26834  10.189  25.500   9.017  0.0329  0.0936 -0.3975
83922W        W26835  32.579  10.232   4.868 -0.1920 -0.0460 -0.0967
83923W        W26836  13.246  17.524  28.237 -0.1864  0.1308 -0.1022
83924W        W26837   5.201  26.695   9.260  0.0068  0.0079 -0.3429
83925W        W26838   6.611  33.430   9.367 -0.0041  0.1385  0.5168
83926W        W26839   1.450  32.167   3.311  0.2323  0.0091  0.3273
83927W        W26840  13.325  22.651  23.038 -0.0344  0.0779 -0.0411
83928W        W26841  15.172  18.315   5.395  0.0271 -0.3266 -0.1288
83929W        W26842   2.690  26.753   1.574 -0.0084 -0.3950  0.1056
83930W        W26843   6.233  26.114   0.995 -0.0464 -0.0080  0.0167
83931W        W26844   5.215  23.236  26.939  0.1668 -0.2392 -0.3647
83932W        W26845   3.878  11.202  22.320  0.1741  0.0643 -0.0863
83933W        W26846   4.336  28.226   5.188 -0.0233 -0.2628  0.0628
83934W        W26847   5.567  30.274   4.065 -0.1251  0.1157  0.2510
83935W        W26848  12.788  16.795   1.393 -0.0570  0.2580  0.0542
83936W        W26849  11.006  24.806   6.181  0.0497 -0.1304 -0.3936
83937W        W26850  15.688  34.174  29.476  0.0294 -0.2249 -0.1964
83938W        W26851  11.623  28.665   6.600 -0.1126 -0.0697  0.3050
83939W        W26852   3.785  32.803  10.169 -0.1298 -0.3054 -0.0203
83940W        W26853  10.187  19.572   8.262  0.0472  0.3552 -0.1904
83941W        W26854  17.568  16.757   2.332  0.1154 -0.0535 -0.2309
83942W        W26855   7.425  11.932   6.297 -0.1800  0.4311  0.4549
83943W        W26856  34.255  22.429   9.212 -0.0225 -0.0374  0.0440
83944W        W26857   0.236  14.003   0.698  0.3169  0.0162 -0.1716
83945W        W26858   8.733  30.500  27.869 -0.0957 -0.2000  0.1013
83946W        W26859   6.371  31.350  10.717 -0.0803  0.2086  0.0228
83947W        W26860   3.023  26.526   8.282 -0.1042  0.0711  0.2943
83948W        W26861  16.846  25.017   7.512 -0.2326  0.0676 -0.1306
83949W        W26862  33.747  18.330   5.941  0.1585 -0.1972 -0.0679
83950W        W26863  13.289  17.301  21.487 -0.0672 -0.0381 -0.1349
83951W        W26864  15.825  21.666   1.177  0.0590  0.2770 -0.1547
83952W        W26865  11.498  28.179   6.119  0.0657  0.0680  0.1326
83953W        W26866   6.640   5.576   0.881  0.1543  0.2786  0.0687
83954W        W26867   4.033  20.484   5.656 -0.0286  0.0107 -0.4019
83955W        W26868  10.007  21.477   7.627  0.1452  0.1040 -0.0111
83956W        W26869  14.359  25.769   9.634 -0.0806  0.0961  0.1367
83957W        W26870  11.107  16.660   8.388  0.1615 -0.0890  0.1556
83958W        W26871   5.467   0.448   3.286  0.0212  0.1363 -0.0871
83959W        W26872  11.687  28.606  10.445 -0.2174  0.1581  0.1489
83960W        W26873  23.033  15.674  27.178  0.0648 -0.0693 -0.3772
83961W        W26874  19.114  33.437   5.990 -0.2555  0.0267 -0.0212
83962W        W26875  11.889  16.272   0.303 -0.1940 -0.1396  0.0168
83963W        W26876   5.340   8.240   7.989  0.1516 -0.0602 -0.0606
83964W        W26877  16.874  24.927   6.483 -0.0290 -0.0129  0.2351
83965W        W26878  11.278  22.914   8.107 -0.2010  0.1981  0.0881
83966W        W26879   2.314  29.587  24.752 -0.4948  0.2669  0.0783
83967W        W26880   6.500  22.110   9.084  0.1759  0.1462 -0.0689
83968W        W26881   3.327  27.775   5.155 -0.0860  0.1584  0.3438
83969W        W26882  14.899  18.638   1.634  0.0345 -0.4471 -0.0942
83970W        W26883   9.476  28.021  11.308  0.0444  0.0900  0.4800
83971W        W26884   4.367  25.229  21.086 -0.0237  0.3356 -0.0901
83972W        W26885   6.324   1.409   3.659  0.1574  0.0371  0.2675
83973W        W26886   0.215  29.268   3.827  0.1795  0.0612 -0.1663
83974W        W26887   7.493  20.211   8.945 -0.0494  0.3193  0.2100
83975W        W26888  12.094  20.249  20.072  0.0447 -0.1385 -0.0779
83976W        W26889  10.894  28.514  11.326 -0.0004  0.0185  0.1399
83977W        W26890  10.977  21.112   3.231 -0.1316 -0.5328  0.1685
83978W        W26891   6.979  25.741   1.842 -0.2242 -0.1688  0.0107
83979W        W26892   4.766  16.345   1.492 -0.2667  0.1055  0.2094
83980W        W26893   4.963  30.128  10.385  0.2609 -0.0964 -0.0133
83981W        W26894  16.042  16.065  23.276  0.1086 -0.1845 -0.2115
83982W        W26895  11.971  29.234   7.429 -0.1200  0.1977  0.4559
83983W        W26896   9.385  25.118  28.848 -0.2092  0.0006 -0.1831
83984W        W26897   1.650  22.672   9.755 -0.3158 -0.1202  0.0925
83985W        W26898   8.390  26.848   3.162 -0.2500  0.0450 -0.0427
83986W        W26899   5.343  24.312   1.998  0.2435  0.1719  0.1767
83987W        W26900  34.240  22.983   9.734 -0.2208  0.1287  0.3359
83988W        W26901  12.523  25.316   8.248  0.3016 -0.0273 -0.0652
83989W        W26902   8.308  20.011   5.505 -0.2144 -0.2216  0.4221
83990W        W26903  17.232  23.371   6.048  0.0125  0.0773 -0.0468
83991W        W26904   6.041  29.620   3.557 -0.2597  0.1426  0.2628
83992W        W26905  13.566   2.430   2.940  0.3044 -0.3326  0.3591
83993W        W26906  10.754  28.614   4.172 -0.0254 -0.0649 -0.1558
83994W        W26907   5.770   0.157   4.906  0.2089  0.2422  0.0640
83995W        W26908  15.449  21.811   5.597  0.2508 -0.2427 -0.2402
83996W        W26909   1.309  28.240   5.885  0.0219 -0.5667  0.2182
83997W        W26910  12.268   1.421   8.200 -0.2834  0.2478 -0.1702
83998W        W26911  11.604  27.828   8.098 -0.4654  0.1566  0.1690
83999W        W26912   6.822  21.898   3.781  0.0602  0.2872 -0.0175
84000W        W26913   6.237  31.213   4.383  0.1340 -0.0957 -0.1772
84001W        W26914  19.234  18.995  27.190  0.3915  0.1265 -0.0836
84002W        W26915   6.907  25.768   5.262  0.2200  0.2993 -0.0766
84003W        W26916  12.239  17.115  15.577 -0.1838 -0.0285  0.0662
84004W        W26917   9.779  18.585  24.782  0.0657  0.0268 -0.0467
84005W        W26918  12.973  28.251   9.040  0.1607 -0.0008 -0.2420
84006W        W26919  11.099  12.794   2.920  0.3709 -0.1116  0.0327
84007W        W26920  11.408  28.020   4.248 -0.0841  0.0635  0.3165
84008W        W26921   8.560  17.557   0.188 -0.0869  0.0046 -0.0352
84009W        W26922   7.092  26.789  10.227 -0.0684 -0.0508 -0.0332
84010W        W26923   6.133  16.142   7.986  0.0376 -0.0402 -0.0771
84011W        W26924   4.650  23.312   7.271 -0.0565  0.0449 -0.1241
84012W        W26925  33.634  27.832   4.061  0.2266 -0.3652 -0.1944
84013W        W26926   8.153   6.536  11.181 -0.0920  0.0873 -0.2476
84014W        W26927  23.563  16.283  25.148 -0.0258 -0.0715  0.1180
84015W        W26928  17.495  26.923   8.037  0.3894 -0.0029  0.2995
84016W        W26929   4.200   2.480  29.184 -0.0177 -0.0817 -0.3259
84017W        W26930  13.575  19.951   5.342 -0.1309  0.0294  0.1177
84018W        W26931   1.030  14.617   8.402 -0.2873  0.0501 -0.3348
84019W        W26932  18.274  21.067  23.581  0.2130  0.1395  0.0872
84020W        W26933   5.136  33.168   5.651 -0.0088  0.2687  0.0590
84021W        W26934  12.489  21.603   0.970  0.1152 -0.1908 -0.2219
84022W        W26935   6.060  18.600  26.172  0.3742 -0.0599  0.1877
84023W        W26936   9.745  17.304   9.165  0.3360 -0.2100 -0.0022
84024W        W26937  13.436  20.056   7.476 -0.0772  0.0036  0.0277
84025W        W26938   3.823  12.293   2.301 -0.1183 -0.2232 -0.0769
84026W        W26939   3.191  33.284   6.540 -0.2760 -0.1458  0.0466
84027W        W26940  33.595  21.915   5.318  0.2663  0.0640 -0.0990
84028W        W26941  11.484  26.953   6.612 -0.2247 -0.0224 -0.1253
84029W        W26942   1.262  25.281   6.665  0.2568  0.1575  0.2231
84030W        W26943   5.439  17.905   8.504 -0.0631 -0.1132 -0.1949
84031W        W26944   5.449  18.069  26.957  0.2951 -0.0466  0.1588
84032W        W26945  18.972  17.735   6.109 -0.0760  0.3604  0.0164
84033W        W26946  11.571  19.487  27.115  0.0945  0.0584 -0.3266
84034W        W26947  20.522   2.975   6.466 -0.3026 -0.1486 -0.0105
84035W        W26948   5.736  23.981   1.972 -0.1533  0.1036 -0.3794
84036W        W26949  11.064  25.564   1.554 -0.1647  0.1091  0.1501
84037W        W26950   8.424  25.789  21.120 -0.3144  0.1182  0.0512
84038W        W26951   6.057  23.400  10.517  0.0490  0.1033  0.1367
84039W        W26952   2.110  29.742   6.665 -0.0464  0.2546 -0.0756
84040W        W26953   4.337  20.536   9.129 -0.0134  0.2839 -0.1973
84041W        W26954  15.194  15.762   1.258 -0.2839  0.1828 -0.2073
84042W        W26955   7.176   2.555   3.466 -0.2305 -0.1491 -0.0231
84043W        W26956  13.697  25.011   9.818  0.0095 -0.0520  0.0364
84044W        W26957  20.828  31.181   9.355 -0.0845 -0.2134 -0.1888
84045W        W26958   3.452  17.237   9.801 -0.0012  0.1234  0.3869
84046W        W26959  18.469  28.433  23.265 -0.2081 -0.0373  0.0246
84047W        W26960   1.337  24.643   5.641 -0.1954  0.1351  0.0068
84048W        W26961   4.678  23.601   7.749  0.2730  0.0880 -0.0033
84049W        W26962   3.895  11.676   3.287  0.0421  0.1626 -0.0207
84050W        W26963  11.394  21.681   0.037 -0.0056  0.0641 -0.2302
84051W        W26964  12.300  31.088  10.056  0.2248 -0.3732  0.2914
84052W        W26965  19.108  20.637   8.126 -0.3134 -0.1303  0.0739
84053W        W26966   5.371   0.342   4.560 -0.1292 -0.0314  0.1884
84054W        W26967   6.580  29.286   5.466 -0.0518 -0.0440  0.2343
84055W        W26968   9.864  21.460  24.961 -0.4280 -0.1321  0.0178
84056W        W26969   6.220  24.024   9.877 -0.0332  0.0802  0.2024
84057W        W26970  10.774  26.760   6.204 -0.2316  0.1964  0.0245
84058W        W26971  16.843  17.944   4.084 -0.2379 -0.1528  0.0127
84059W        W26972   2.212   5.717   6.270 -0.1854 -0.3508  0.0903
84060W        W26973   2.587  28.203   6.229 -0.0893 -0.0002  0.1719
84061W        W26974   5.032  32.262   6.415  0.1174 -0.2390 -0.1546
84062W        W26975   9.979  17.254   9.631 -0.1495  0.0193  0.0083
84063W        W26976  11.450  14.790   1.978  0.2006 -0.0161 -0.3108
84064W        W26977  11.595  33.930   8.061  0.1288 -0.3202  0.0788
84065W        W26978  20.611  27.911   4.858  0.0403 -0.1132 -0.0976
84066W        W26979   5.854  13.650   9.496  0.2091  0.1110  0.0122
84067W        W26980   8.669  20.486   1.538 -0.1893  0.1424  0.0603
84068W        W26981   7.493  27.444   3.926 -0.1378  0.0405 -0.0705
84069W        W26982   0.563  22.416   0.000  0.2851  0.5471 -0.0094
84070W        W26983  12.842  14.773   1.813 -0.2149  0.2676 -0.0708
84071W        W26984  12.951  33.306  10.398 -0.0051 -0.0680  0.1397
84072W        W26985  14.742  26.039   9.112 -0.0304  0.0167  0.0051
84073W        W26986   1.318  17.393   4.473 -0.0396 -0.2159  0.0254
84074W        W26987   5.780  16.590   5.879  0.2042 -0.1983 -0.0574
84075W        W26988   9.341  31.841   6.674 -0.1002  0.2940 -0.1318
84076W        W26989   9.079  32.720   5.051 -0.1414  0.1809  0.0791
84077W        W26990  13.483  25.317   4.692  0.1195 -0.2670 -0.2443
84078W        W26991   7.346  25.661   9.090 -0.0556  0.1341 -0.1141
84079W        W26992  19.471  32.077   6.442  0.1004  0.3794 -0.0957
84080W        W26993   5.351  24.735   9.598  0.0914 -0.1300  0.3417
84081W        W26994   1.463  30.551   2.717  0.0507 -0.1248 -0.3404
84082W        W26995   8.486  17.520   4.912 -0.2746 -0.0456  0.0496
84083W        W26996   7.178  22.308   3.898  0.2747 -0.1853  0.0867
84084W        W26997   7.428  22.813   7.160 -0.0427 -0.4590 -0.0166
84085W        W26998  11.365  19.752   6.352 -0.0478  0.1640 -0.4428
84086W        W26999  31.695   4.353   8.401 -0.0038 -0.2040  0.0845
84087W        W27000  10.790  30.190   3.902 -0.2486 -0.2536  0.4175
84088W        W27001  34.326  24.951   6.626  0.3216 -0.0137  0.0767
84089W        W27002  14.911   3.955   9.235 -0.4610  0.1042 -0.0902
84090W        W27003  16.002  18.497  28.139  0.1050  0.0745  0.2619
84091W        W27004   9.171  29.376  19.523 -0.0030 -0.1439  0.1483
84092W        W27005  17.117  21.789   2.784  0.2060  0.1464  0.1073
84093W        W27006  14.164  20.805   9.119  0.1053  0.2294  0.0842
84094W        W27007  13.436  30.123  11.255 -0.0316 -0.1809  0.0249
84095W        W27008   7.285  18.722   6.881 -0.0886 -0.0272  0.1677
84096W        W27009  10.953  24.509   8.528 -0.0686 -0.1281 -0.0581
84097W        W27010  22.197  21.173   3.403  0.0723 -0.0857  0.1133
84098W        W27011   6.243  24.502   5.039 -0.0966  0.2945  0.1474
84099W        W27012   8.218  27.611   2.878  0.1040  0.1773 -0.1679
84100W        W27013  11.929  26.162   3.847  0.2283 -0.0261 -0.2720
84101W        W27014  23.660  27.248  22.229  0.0093  0.2120 -0.4884
84102W        W27015   2.197  24.033  27.170 -0.1803  0.1940 -0.3118
84103W        W27016   3.564  16.948   0.955  0.2072 -0.0111 -0.1045
84104W        W27017   5.251  22.936   8.425  0.0719  0.0429 -0.1990
84105W        W27018  19.773  27.534   4.534  0.4222 -0.1967 -0.0672
84106W        W27019   3.377  16.716   5.269  0.1019 -0.2880  0.1574
84107W        W27020  11.851  21.268   2.522 -0.3174  0.1005 -0.0729
84108W        W27021   9.060   2.415  11.463  0.2405  0.1047 -0.1042
84109W        W27022   9.571  23.720   7.801  0.0730  0.1586 -0.1745
84110W        W27023  11.127  24.766   8.984  0.1398  0.0665  0.3120
84111W        W27024  10.494  24.292   5.716  0.2077  0.0553 -0.0988
84112W        W27025   8.104  19.926  25.319  0.2073 -0.2043 -0.0763
84113W        W27026   3.157  22.091   5.184 -0.0215 -0.0816  0.2318
84114W        W27027   9.507  15.116  24.264 -0.2841 -0.1587  0.0167
84115W        W27028   6.062  11.951   3.908 -0.0294  0.0060  0.1320
84116W        W27029  12.596  23.286   1.025  0.2116 -0.1251  0.0081
84117W        W27030  10.785  25.654   2.926 -0.1077  0.4089  0.4471
84118W        W27031   9.790  28.906   3.309  0.0745 -0.1381 -0.3004
84119W        W27032  31.189  24.588   8.308  0.0581  0.0717 -0.0494
84120W        W27033  15.049  22.158  24.838  0.1235 -0.2527 -0.0540
84121W        W27034  11.830  23.254   9.539  0.1354  0.0478  0.1663
84122W        W27035  12.022  23.602   4.913 -0.0323  0.0546  0.3809
84123W        W27036  34.117   6.440   0.793  0.0615 -0.0173  0.0911
84124W        W27037  16.536  19.824   0.446 -0.1776  0.0493 -0.4257
84125W        W27038  15.603  30.942   8.738 -0.0953 -0.0140 -0.2898
84126W        W27039  13.001  17.962  24.737 -0.2085 -0.1070 -0.3113
84127W        W27040  29.018  20.766   0.387 -0.0986 -0.1688 -0.0152
84128W        W27041  10.496  30.085  28.558 -0.1684 -0.2949  0.2721
84129W        W27042  12.745  25.097   6.826 -0.2884  0.0671 -0.0729
84130W        W27043  10.082   0.375  12.669  0.0261 -0.0720  0.0017
84131W        W27044  10.095  24.892   8.411  0.3420  0.0593 -0.2853
84132W        W27045   5.508   7.016   6.702  0.2090  0.1294 -0.0258
84133W        W27046   2.510  30.795   9.122 -0.3730 -0.2355 -0.1657
84134W        W27047  15.587  27.631   7.458  0.0022  0.3796  0.0533
84135W        W27048   2.813  17.914   5.617 -0.0092  0.3569  0.0432
84136W        W27049   9.898  19.229   7.520 -0.3821 -0.1044 -0.0563
84137W        W27050   1.005  29.366   9.730  0.1793  0.2366  0.0389
84138W        W27051  14.623   5.841   8.179 -0.1384 -0.0436 -0.0822
84139W        W27052   7.661  22.280   6.731  0.1630  0.1081 -0.1509
84140W        W27053  15.525  28.379   9.841 -0.1004 -0.0341  0.3227
84141W        W27054   1.789  21.224   9.211 -0.0275  0.0383 -0.1051
84142W        W27055   2.319  25.787   6.689 -0.0428 -0.0684 -0.1406
84143W        W27056   9.692  29.148   1.405  0.1128 -0.1741 -0.0407
84144W        W27057  18.308  22.145   7.470  0.2712  0.1565 -0.4298
84145W        W27058   4.376  10.878  27.616  0.2068 -0.0778  0.2116
84146W        W27059  17.623  24.680   6.895  0.1931 -0.2861 -0.1351
84147W        W27060   6.592  22.952   2.585  0.2150  0.0807  0.0699
84148W        W27061   5.804  26.837  27.656 -0.0096  0.0883  0.0238
84149W        W27062   8.883  22.685   5.407  0.0313 -0.4011  0.2579
84150W        W27063   8.262  12.894   5.484  0.1630 -0.0197 -0.1520
84151W        W27064   7.399  26.073   9.516  0.0495 -0.2661 -0.0383
84152W        W27065  12.303  23.458   9.395 -0.1935 -0.2863  0.0095
84153W        W27066  13.760  32.352   2.275  0.2584 -0.1565 -0.1789
84154W        W27067   7.823  13.435  27.807 -0.1775  0.3470  0.1100
84155W        W27068   6.434  23.692   6.684 -0.3140  0.2864 -0.4531
84156W        W27069  32.865  18.357   5.833  0.0336 -0.0408  0.0546
84157W        W27070   8.049  27.845   1.879 -0.2097 -0.0072  0.0134
84158W        W27071   6.403  33.982  10.668  0.1394  0.3856  0.1530
84159W        W27072   6.875  30.767   8.126 -0.3740  0.2366  0.3597
84160W        W27073   3.100  29.555   9.397 -0.1166  0.0756  0.3496
84161W        W27074  33.465  30.223  20.423  0.1941 -0.1639  0.0151
84162W        W27075   4.980  19.902   2.774 -0.2680  0.2427  0.1088
84163W        W27076   7.289  20.134   8.376  0.5014  0.1399  0.0137
84164W        W27077  10.777  25.329   0.173 -0.2586  0.0566 -0.1958
84165W        W27078   6.906  33.942   3.468  0.3784 -0.3361 -0.1572
84166W        W27079  11.231  26.628  29.314  0.1781  0.1146 -0.1159
84167W        W27080   8.568  22.626  27.824 -0.0470 -0.0175  0.1613
84168W        W27081   7.312  26.267   1.858  0.3222 -0.3618  0.1889
84169W        W27082  12.843  30.216  28.205 -0.0310 -0.0239  0.4326
84170W        W27083   8.107  23.614   1.242 -0.2869 -0.0380  0.0936
84171W        W27084   1.814  26.113   6.415 -0.0309  0.4310 -0.2322
84172W        W27085   4.807  19.941  20.975  0.1733 -0.2772 -0.0336
84173W        W27086   0.694  15.180  28.172  0.1121 -0.1853  0.2722
84174W        W27087   3.161  21.669   9.851  0.3927  0.1620 -0.1713
84175W        W27088  16.776  13.886   4.809 -0.0248  0.2042 -0.0478
84176W        W27089  12.374  19.599  28.427 -0.1742  0.1436 -0.1014
84177W        W27090   8.400  23.118   7.534  0.2357  0.0656 -0.1205
84178W        W27091   5.698  20.496   5.621 -0.0205  0.0646  0.1986
84179W        W27092   6.546  31.839   7.344  0.2755  0.0724  0.0341
84180W        W27093  32.219  25.187   8.280  0.3479 -0.0689  0.0639
84181W        W27094   8.681  20.121   1.860 -0.0816 -0.3054 -0.0318
84182W        W27095   3.059  22.214   1.791  0.0378 -0.1085  0.3086
84183W        W27096  34.325  23.832  28.942  0.2617  0.0239 -0.0437
84184W        W27097  11.107  25.331   8.811  0.0350  0.1223  0.1513
84185W        W27098   6.900  13.174   8.460 -0.0805  0.2159 -0.1068
84186W        W27099  11.656  30.216   9.979 -0.0920  0.1517  0.1999
84187W        W27100  12.560  29.556   7.797 -0.2061 -0.2634 -0.2291
84188W        W27101  10.002  31.058   8.221  0.0373 -0.1954 -0.0172
84189W        W27102  18.951  24.400   4.454 -0.0739  0.0720  0.2227
84190W        W27103   9.605   7.454   5.607  0.4447 -0.0196 -0.4597
84191W        W27104   3.189  18.865   2.028  0.2281 -0.1112 -0.0809
84192W        W27105   9.271  29.752   8.607  0.0121  0.1674 -0.1663
84193W        W27106   7.060  26.185   4.387  0.0770  0.1178  0.0392
84194W        W27107   9.146  28.709   4.584  0.0345 -0.0948 -0.0664
84195W        W27108  11.754  27.005   2.680 -0.2963  0.2811 -0.1058
84196W        W27109  17.333  27.743   5.645 -0.3548  0.3629 -0.0888
84197W        W27110   7.618  18.210   7.601 -0.1030 -0.0910  0.0268
84198W        W27111  28.886   6.625  29.669 -0.0021 -0.3486  0.0405
84199W        W27112  30.387  18.988   0.549 -0.1865  0.1361  0.0479
84200W        W27113   7.038  27.188   2.580 -0.4264  0.0747 -0.2549
84201W        W27114   5.281  22.249   9.593 -0.0319  0.1863  0.1758
84202W        W27115  17.076  23.756   7.510 -0.0285 -0.1923  0.0381
84203W        W27116   8.382  21.711   9.460  0.3727 -0.0720 -0.1554
84204W        W27117   3.530  29.378   5.316  0.3340  0.0278  0.1461
84205W        W27118  33.567  28.739  10.133  0.2231 -0.2368 -0.0159
84206W        W27119   0.399  28.763   7.990  0.1324  0.1721 -0.0933
84207W        W27120  31.446  28.755   5.323  0.4751 -0.0517 -0.1923
84208W        W27121   0.387  26.000   5.878 -0.1380  0.2642 -0.1575
84209W        W27122   8.071   6.019  29.542 -0.1917 -0.0998 -0.0086
84210W        W27123  16.384  17.573  26.727 -0.0416 -0.2731 -0.3739
84211W        W27124   1.880  25.529   8.038  0.2399 -0.1552 -0.0867
84212W        W27125  13.122  28.279   9.527 -0.0834 -0.1018  0.1551
84213W        W27126  12.756  22.037   8.374  0.3302  0.1394 -0.1743
84214W        W27127   9.147  22.938   7.355  0.2158 -0.1513 -0.1560
84215W        W27128  12.876  21.898   8.828 -0.0962 -0.1709  0.0509
84216W        W27129  30.548  16.383   8.538 -0.1630 -0.1924  0.1157
84217W        W27130   0.197  28.706   6.809  0.4658 -0.0390 -0.0632
84218W        W27131  22.918  26.381   4.807  0.2913  0.4067  0.0010
84219W        W27132  11.322  23.345   5.536 -0.0924 -0.0478 -0.0991
84220W        W27133   5.586  17.608   4.032 -0.1720  0.2344  0.3245
84221W        W27134   1.857  26.409   8.293 -0.0818 -0.1707 -0.2148
84222W        W27135  14.640  20.598  29.043 -0.1505 -0.0355 -0.3942
84223W        W27136   0.842  15.395   9.640 -0.2416 -0.0269 -0.3475
84224W        W27137   9.485  17.146   8.196 -0.0970 -0.2573 -0.0361
84225W        W27138  12.424  34.236  12.097  0.0931 -0.0337  0.0109
84226W        W27139  31.342  28.768  24.538  0.2376 -0.1398  0.0205
84227W        W27140  10.314  24.538   2.800 -0.1324  0.0189  0.1435
84228W        W27141   2.558  33.527   5.732  0.2300 -0.1545 -0.3953
84229W        W27142  15.750  27.277   7.165 -0.1396 -0.0915  0.1070
84230W        W27143   9.976  27.207   7.539  0.0770 -0.0760  0.0791
84231W        W27144  12.127  28.092  10.680  0.0597 -0.2857  0.0113
84232W        W27145  10.923  16.822  19.738  0.1828 -0.1509 -0.3182
84233W        W27146  21.005  19.025   7.938 -0.0659 -0.1423  0.0261
84234W        W27147  15.582  32.567  27.313  0.1495  0.1075 -0.0487
84235W        W27148   4.755  22.291   9.439 -0.0095 -0.0472  0.0610
84236W        W27149  13.863  20.182   8.533 -0.0042 -0.0241  0.2529
84237W        W27150  23.903  23.975   5.095 -0.2273  0.2244  0.3866
84238W        W27151   9.928  26.853   5.981 -0.0967 -0.0301 -0.2293
84239W        W27152  10.015  15.490   4.019  0.3622  0.0060  0.1000
84240W        W27153   8.938  27.955   2.689  0.2325 -0.0069  0.1755
84241W        W27154  11.311  27.053   0.419 -0.3137 -0.1419  0.0953
84242W        W27155   7.414  25.874   5.262 -0.0651 -0.0124  0.0251
84243W        W27156   1.890  17.841   5.672 -0.1428 -0.1091  0.2462
84244W        W27157   6.965  29.640   4.610  0.2664 -0.2916  0.1753
84245W        W27158  15.631   1.441   7.457  0.0824 -0.2092  0.1803
84246W        W27159   2.898  27.712   7.628 -0.3631  0.0673 -0.0880
84247W        W27160  10.345  22.388   6.430 -0.2118  0.2947  0.1591
84248W        W27161   7.143  26.585   9.388 -0.1417 -0.0274  0.3974
84249W        W27162  18.399  32.137   5.747  0.2045 -0.1045 -0.2905
84250W        W27163  20.567   0.570   4.354  0.0040 -0.2481 -0.1659
84251W        W27164  20.317  15.359   5.669  0.2654 -0.1594 -0.1518
84252W        W27165   7.134  24.440   2.416 -0.1614 -0.0960  0.0560
84253W        W27166   5.355   8.866  11.690  0.2527 -0.0363 -0.0674
84254W        W27167  10.556  25.343   3.343  0.1251 -0.1530  0.2491
84255W        W27168   7.144  10.071   7.653 -0.0901  0.0881 -0.0541
84256W        W27169   0.672  20.853   6.534  0.0859  0.0803 -0.3256
84257W        W27170   8.320   2.889   3.095 -0.1911 -0.1199 -0.0106
84258W        W27171   6.429  24.117   7.014 -0.4589 -0.0131 -0.1025
84259W        W27172   4.975  28.094   6.555 -0.0124  0.2725 -0.1940
84260W        W27173   3.663  25.265   8.585 -0.0164 -0.2353 -0.3383
84261W        W27174   1.134  27.267   4.967  0.1688 -0.0056  0.2212
84262W        W27175  11.112  24.644   2.071  0.3961 -0.0389  0.0327
84263W        W27176  11.996  28.176  10.199  0.0546 -0.0230 -0.0740
84264W        W27177  12.997  28.145  28.621 -0.0993  0.0415  0.1556
84265W        W27178   4.133  13.857   1.971  0.0400 -0.1346  0.0182
84266W        W27179  32.342  31.292   3.100 -0.0835 -0.3202 -0.0232
84267W        W27180   6.000  26.779   9.844 -0.1049  0.2173  0.0328
84268W        W27181   9.706   4.041   6.043 -0.0748  0.3189  0.1687
84269W        W27182  11.050  27.273   7.876 -0.3392 -0.3647  0.1368
84270W        W27183   5.579  30.672   9.925 -0.0522 -0.2342  0.1357
84271W        W27184  19.977  26.591   6.586 -0.0668  0.0745 -0.0480
84272W        W27185  13.243  26.585   9.876 -0.0588  0.2012  0.0403
84273W        W27186  34.031  28.662  10.125 -0.1138 -0.0528  0.0166
84274W        W27187   5.376  26.058  27.868  0.1096 -0.0489  0.4419
84275W        W27188  19.144  25.211   5.856  0.2365  0.2634  0.0664
84276W        W27189  10.763  24.966   9.774  0.1635  0.0470 -0.1019
84277W        W27190   3.513  25.404   6.350  0.1144  0.0605 -0.1136
84278W        W27191   6.329  27.067  10.149 -0.0520  0.2022  0.0554
84279W        W27192  15.097  28.307   6.185  0.2425  0.1468  0.2122
84280W        W27193   2.176  17.915   6.298  0.1364  0.1558 -0.1148
84281W        W27194   5.289  27.256   9.288  0.2992 -0.0545  0.0627
84282W        W27195  12.117  17.156   2.405 -0.0790 -0.1795 -0.2668
84283W        W27196   3.650  34.458  11.907  0.2214  0.0081  0.0180
84284W        W27197  33.857  33.249   5.918  0.1442  0.2943 -0.0026
84285W        W27198  18.163  27.457   4.432 -0.2435  0.5451 -0.1118
84286W        W27199   4.898  21.397   5.235  0.2011 -0.1234  0.1056
84287W        W27200  28.059   9.989   7.813  0.2777  0.0939  0.1093
84288W        W27201  12.494  15.782   4.749 -0.1600 -0.0841 -0.3865
84289W        W27202   4.389  18.674   5.426 -0.1491  0.0584 -0.1011
84290W        W27203   3.675  33.473   6.793 -0.3107  0.0333 -0.0011
84291W        W27204  11.591  26.896  26.209  0.1352  0.1661  0.1478
84292W        W27205   9.789  16.206   5.715  0.0161 -0.1755 -0.0649
84293W        W27206   3.771  23.973   7.974 -0.1713  0.1248 -0.0609
84294W        W27207   9.435  27.844   5.302 -0.1133  0.2767  0.0350
84295W        W27208  14.167  31.469   3.027  0.0283  0.0323  0.1090
84296W        W27209   8.241  23.067   6.722 -0.2857 -0.2367 -0.1201
84297W        W27210   7.716  26.947   3.690 -0.1411 -0.0604  0.0238
84298W        W27211   8.511   4.798   8.985 -0.0230 -0.1520 -0.1528
84299W        W27212  12.072  29.278   4.097  0.2274  0.2401 -0.1334
84300W        W27213   8.458  33.933   8.696 -0.1071 -0.1534  0.1948
84301W        W27214  13.351  27.096   7.560 -0.1428 -0.1680 -0.0091
84302W        W27215  12.237  17.754   7.022  0.2334 -0.0104  0.0431
84303W        W27216  15.103  29.163   9.262 -0.0111 -0.2047  0.0626
84304W        W27217  30.194  32.646  11.464  0.0823 -0.2884  0.0708
84305W        W27218  11.251  21.558   4.141 -0.2166 -0.1401 -0.0144
84306W        W27219   8.593  28.251   5.835  0.2306 -0.1648 -0.1781
84307W        W27220   8.618  31.193  28.135  0.0507 -0.3360 -0.0594
84308W        W27221   6.546  21.497   4.084  0.0932  0.3584 -0.1872
84309W        W27222   5.484  22.388   1.844 -0.1969 -0.0454 -0.3738
84310W        W27223  11.789  32.509  10.487 -0.4841  0.3023  0.0080
84311W        W27224   7.668  29.531   6.106 -0.0682  0.1648 -0.4400
84312W        W27225   8.248  24.222  29.368  0.2677  0.0142 -0.1810
84313W        W27226  34.346  23.527   6.558 -0.2413  0.1201  0.1249
84314W        W27227  14.342  34.261   8.416  0.0775  0.2579  0.2000
84315W        W27228  11.021  14.009   5.841 -0.1077 -0.2358 -0.1088
84316W        W27229   8.689  13.153   6.791  0.1873  0.1425 -0.1717
84317W        W27230  18.775  26.194   7.263 -0.1638 -0.0052 -0.2590
84318W        W27231   7.919  17.246   5.786 -0.0517  0.1262 -0.1858
84319W        W27232  14.366  14.843   4.018 -0.1036  0.0983  0.1587
84320W        W27233   6.706  19.194   6.562 -0.0332  0.2946  0.0813
84321W        W27234  17.572  19.655   7.449  0.2456 -0.2299  0.0857
84322W        W27235  11.373  22.543   6.094 -0.0560 -0.0045  0.1946
84323W        W27236  15.181  31.987  10.289  0.0234 -0.0660 -0.1132
84324W        W27237   2.667  12.102   1.455 -0.1237  0.0378  0.0202
84325W        W27238   9.880  30.546  11.001  0.5749  0.1882 -0.0696
84326W        W27239   4.897  26.320   5.199  0.1540  0.1231  0.0687
84327W        W27240   2.344  22.656   8.033 -0.1841  0.1271 -0.2021
84328W        W27241   8.346   6.195  12.023 -0.0626 -0.0283  0.2826
84329W        W27242  17.202  29.396   8.489  0.1736 -0.0040 -0.1100
84330W        W27243   2.927  29.100   5.564  0.1060  0.2381  0.1197
84331W        W27244   1.116  31.514   4.179  0.0261 -0.1363  0.0011
84332W        W27245   5.520  31.586   6.785  0.1977 -0.0582 -0.0796
84333W        W27246  14.883  19.925   6.980  0.1304 -0.1055  0.2274
84334W        W27247   3.927  26.516   5.482 -0.1733 -0.0381 -0.0756
84335W        W27248   6.386  16.378   3.054  0.1226  0.3047  0.0702
84336W        W27249  13.322  32.426   7.673 -0.1173  0.1028  0.2001
84337W        W27250  14.219  27.883   5.026 -0.1450 -0.1374 -0.0129
84338W        W27251  15.673  25.567   5.226 -0.0363  0.0543 -0.1649
84339W        W27252  33.540  26.969   2.880 -0.1845 -0.0787 -0.2201
84340W        W27253  10.980  34.475   8.462  0.0723  0.0127  0.1488
84341W        W27254  10.051  29.502   9.043 -0.1440 -0.2394  0.1725
84342W        W27255  12.023  24.655   6.536 -0.0507  0.1167  0.1435
84343W        W27256   8.672  29.606  24.510  0.0066  0.0499  0.2068
84344W        W27257  15.032  20.138  27.784 -0.1100  0.2779 -0.1323
84345W        W27258   6.519  26.507   6.503 -0.1620 -0.0583 -0.1661
84346W        W27259  15.755  28.388   5.107  0.1280  0.0804 -0.2723
84347W        W27260   8.826  23.307   4.699  0.3564 -0.0166 -0.0000
84348W        W27261  11.157  10.142  26.253 -0.0685  0.0118  0.2391
84349W        W27262  13.344  23.157   7.224 -0.1796  0.1526 -0.0320
84350W        W27263  10.163  19.295   0.960  0.0161 -0.0511  0.1577
84351W        W27264  17.098  19.736   8.696 -0.4035  0.1523 -0.1571
84352W        W27265  18.975  21.128   0.046 -0.1371 -0.1605  0.0138
84353W        W27266  13.791  25.094   2.476 -0.0374 -0.1307  0.1044
84354W        W27267  14.845  21.521   5.579  0.0496  0.1703  0.0660
84355W        W27268  14.765  30.735   6.608 -0.2359  0.0896  0.1919
84356W        W27269   2.793  21.882   3.682  0.0671  0.1376 -0.2046
84357W        W27270   7.298  20.347   5.714  0.4528  0.0799 -0.1021
84358W        W27271   6.629  28.235   0.207 -0.3543 -0.2654 -0.2521
84359W        W27272   2.609  28.902   4.409  0.2467  0.0552 -0.1484
84360W        W27273  19.037  31.973   9.020  0.1793  0.0438 -0.2733
84361W        W27274   9.663  28.946   9.177  0.1313  0.1110 -0.0735
84362W        W27275  14.571  23.292  28.629  0.3166  0.0333  0.0544
84363W        W27276  22.048  24.566   6.647 -0.2238  0.1505  0.2624
84364W        W27277  10.844   3.015  11.786  0.2241  0.0182 -0.1015
84365W        W27278  15.187  26.534   9.487 -0.0923  0.1729 -0.0407
84366W        W27279   6.160  21.760   6.998  0.1835 -0.1249 -0.0403
84367W        W27280  15.013  28.111   8.523  0.1416  0.0672  0.0667
84368W        W27281   5.136  26.282   3.632 -0.2829  0.0703 -0.3705
84369W        W27282   7.438  24.786   6.930  0.1365  0.1274  0.1020
84370W        W27283  27.819  20.302   4.304 -0.3269 -0.0462 -0.0242
84371W        W27284   4.735  19.067   2.425 -0.0578 -0.1121  0.0614
84372W        W27285   3.587  15.937   4.070  0.2361  0.3028  0.2549
84373W        W27286  12.182  14.766  29.689  0.1449  0.2942  0.0012
84374W        W27287  23.372  25.642   7.343 -0.3745  0.1326 -0.0248
84375W        W27288  10.429  24.405   3.365  0.2278  0.0341 -0.0108
84376W        W27289   8.065  17.406   7.270  0.2370  0.0672  0.1690
84377W        W27290   5.208  29.756   2.082 -0.2790 -0.0045 -0.2357
84378W        W27291   7.044  25.468   4.185 -0.2205  0.0756  0.2370
84379W        W27292   4.432  24.232  27.534 -0.4995 -0.2267  0.0080
84380W        W27293   8.863  25.372  10.883 -0.0446  0.2234 -0.1315
84381W        W27294   7.907   2.422   9.809 -0.1383  0.1025  0.0249
84382W        W27295   9.311   0.246   7.435  0.1750  0.0132 -0.0859
84383W        W27296  11.576  25.891  28.082 -0.1474  0.2806 -0.3373
84384W        W27297   8.243  24.479   8.445 -0.4474 -0.1758  0.3548
84385W        W27298   7.784  26.227   5.213 -0.0610 -0.0812  0.0874
84386W        W27299  14.068  28.370   1.978  0.1980  0.1471  0.0918
84387W        W27300   7.664   2.060   8.470  0.0435 -0.1824  0.0099
84388W        W27301  19.614  28.895   9.220 -0.1957 -0.2375  0.0867
84389W        W27302   2.944  27.051   4.668  0.1966 -0.1678  0.4122
84390W        W27303  12.244  24.619  25.720  0.2558 -0.0487 -0.2136
84391W        W27304   8.707  30.032   9.790 -0.2363 -0.0703 -0.2626
84392W        W27305  12.141  27.171   9.432 -0.0104 -0.0704  0.0152
84393W        W27306  12.164   4.843   9.947 -0.3230  0.1569 -0.0728
84394W        W27307  12.233  19.556   4.355  0.2774  0.1426  0.2094
84395W        W27308   5.961  21.762   9.633 -0.0021 -0.2678  0.0713
84396W        W27309   6.378  21.934   6.574 -0.2304  0.1465 -0.0201
84397W        W27310   5.233   1.630  23.145  0.0669  0.0129 -0.2270
84398W        W27311  10.110  22.516   9.586 -0.2014 -0.1369  0.0137
84399W        W27312  10.272  19.228   7.922 -0.2153 -0.3134  0.1563
84400W        W27313   7.364  28.194  11.112 -0.0662  0.1028 -0.1871
84401W        W27314   9.664  27.037   8.984 -0.4397  0.0590 -0.2194
84402W        W27315   9.758   2.618   8.973  0.0779  0.4236 -0.0694
84403W        W27316  11.183  16.414   7.065 -0.2885  0.2714 -0.0139
84404W        W27317   5.509  24.851   2.907 -0.2508 -0.1274  0.2580
84405W        W27318  13.055  23.017   8.208  0.0167  0.1267 -0.0462
84406W        W27319  26.150   5.083   2.438  0.1965 -0.0144 -0.0171
84407W        W27320   4.120  14.577   4.011  0.1122 -0.0147  0.1452
84408W        W27321   9.496  29.610   6.763  0.0057  0.4982  0.0942
84409W        W27322   9.627  30.787   9.424 -0.3129 -0.0236  0.0197
84410W        W27323  14.633  20.977   6.215 -0.0801 -0.2830 -0.2276
84411W        W27324  20.127  16.182   6.249  0.0624 -0.0761  0.1298
84412W        W27325   5.641  17.840   6.480  0.1864 -0.1120  0.5410
84413W        W27326   8.955  33.880   8.497 -0.1617  0.3044  0.1637
84414W        W27327   7.006   9.110   4.120 -0.1679 -0.1089  0.1946
84415W        W27328   1.461  27.256   5.718  0.1290 -0.1008 -0.2408
84416W        W27329  33.360  27.953   8.542  0.1404  0.2499  0.0932
84417W        W27330  11.089  19.223   0.124  0.1154  0.1040 -0.1920
84418W        W27331   1.351  23.143   6.341 -0.3813  0.1390  0.2766
84419W        W27332   1.034  26.076   7.910 -0.0377  0.1082  0.2618
84420W        W27333   8.684  23.618   8.745  0.0444  0.1075 -0.2209
84421W        W27334  16.447   4.035   4.845  0.0078 -0.3565  0.0461
84422W        W27335   6.455  20.002   9.604 -0.0976 -0.0315  0.0980
84423W        W27336   7.946  20.677   6.612 -0.1317  0.2059 -0.0440
84424W        W27337  12.541  24.073   7.746  0.0637 -0.1055 -0.1459
84425W        W27338   7.519  27.024   7.737 -0.2556 -0.0684  0.1598
84426W        W27339  11.883  17.561   4.436  0.2764  0.5426  0.0212
84427W        W27340   9.550   2.990  13.021 -0.2510 -0.1274 -0.0931
84428W        W27341  14.309   6.967  10.282 -0.3208 -0.1159  0.2380
84429W        W27342  19.173  27.459   7.477 -0.1883 -0.2143  0.2948
84430W        W27343   8.410  19.615   6.618 -0.2341  0.0931 -0.4898
84431W        W27344  15.863  25.730   2.638  0.0992 -0.0618  0.0106
84432W        W27345  11.519  30.655  11.891 -0.0998 -0.0492  0.3631
84433W        W27346  13.373  14.869   1.992 -0.0008  0.0101  0.0553
84434W        W27347   6.975  31.952  28.925  0.0693  0.0337 -0.2465
84435W        W27348   7.654  21.038  26.492 -0.2436  0.3355 -0.1424
84436W        W27349   3.057  26.968  10.757 -0.3356  0.1046 -0.6328
84437W        W27350   7.983  27.718   6.435 -0.1121 -0.0571 -0.2265
84438W        W27351   3.164   3.836   4.567 -0.0222 -0.0026 -0.1278
84439W        W27352  17.470  33.678  10.125  0.1707 -0.0417 -0.1615
84440W        W27353  18.483  25.077   6.595 -0.0179 -0.0700 -0.0659
84441W        W27354  29.566  17.389   8.804 -0.1690  0.1595 -0.0210
84442W        W27355   6.720  17.004   8.408 -0.0317  0.1457 -0.4746
84443W        W27356   8.621  16.734   7.155  0.0451 -0.1567  0.1359
84444W        W27357  13.214  20.317   5.298 -0.0072 -0.1075 -0.1773
84445W        W27358  28.759  31.695   8.681  0.3586  0.0401  0.0012
84446W        W27359   9.702  16.608   8.913 -0.4089 -0.1269 -0.1064
84447W        W27360   4.895  28.980   1.622  0.0923  0.2094 -0.2762
84448W        W27361   7.206  10.331   8.051 -0.3576  0.1505 -0.0417
84449W        W27362  17.474  17.051   1.920  0.3371 -0.3108 -0.2083
84450W        W27363  14.988  31.116   9.638  0.0519  0.0484 -0.0162
84451W        W27364  10.677  28.505   2.538  0.1716 -0.1390  0.0521
84452W        W27365   8.787  16.336  24.939  0.1560 -0.2195 -0.0784
84453W        W27366   8.326  19.131   5.176  0.1872  0.4566  0.1521
84454W        W27367   6.119  20.642   4.965 -0.0097  0.0168  0.0555
84455W        W27368  10.710  21.004  22.052 -0.1414 -0.0073 -0.2391
84456W        W27369   2.215  28.571   5.948 -0.1281 -0.3183  0.0880
84457W        W27370   0.006  30.217   9.544 -0.1141  0.0250  0.0323
84458W        W27371  10.920  22.379   5.224  0.0101 -0.3324  0.0170
84459W        W27372  15.355  21.416   7.274  0.4811  0.0564 -0.0679
84460W        W27373  10.020  23.636   2.291  0.1543  0.0559 -0.0528
84461W        W27374   5.221  14.389   7.362 -0.1254  0.1891 -0.0182
84462W        W27375   9.248  13.938   9.335  0.4790  0.0479 -0.1058
84463W        W27376   9.504  24.796  10.562  0.1300  0.1132 -0.1054
84464W        W27377  11.846  33.504   5.377  0.0367 -0.0869 -0.0354
84465W        W27378  11.937  29.421   6.818  0.0385 -0.4257 -0.0600
84466W        W27379  15.621  22.828  29.533  0.0966 -0.0793 -0.1499
84467W        W27380   3.785  32.293   7.211 -0.0530 -0.1550  0.1555
84468W        W27381   4.675   4.879   1.490 -0.1407 -0.1254 -0.0933
84469W        W27382   4.720  20.462   7.538 -0.1422 -0.4196  0.1082
84470W        W27383   5.250  32.912  10.240  0.2375  0.1259 -0.1102
84471W        W27384  12.010  23.790  10.152  0.0997  0.0564 -0.2345
84472W        W27385   6.314  12.460   8.711  0.1054  0.1841  0.3228
84473W        W27386  19.751  30.892   3.599 -0.2716  0.1092 -0.0897
84474W        W27387   2.689  20.938   8.924  0.4378 -0.0839  0.0700
84475W        W27388   0.884  15.763   4.586 -0.1846  0.0813  0.1507
84476W        W27389  10.337  25.176   9.951  0.2768 -0.2345  0.0861
84477W        W27390   2.950  18.186   6.086 -0.0756 -0.1631  0.0196
84478W        W27391   4.343  29.976   8.237  0.0183  0.0645  0.1198
84479W        W27392   6.320   1.768  10.389 -0.2964 -0.0138 -0.1804
84480W        W27393  12.617  28.909   3.566  0.1096  0.1490 -0.0998
84481W        W27394   6.834   6.878   8.055  0.1804  0.0633  0.3325
84482W        W27395   6.734  25.574   3.193  0.0652  0.0801  0.0349
84483W        W27396   0.969  33.410  10.172 -0.0919 -0.1215 -0.0190
84484W        W27397  13.181  33.101  29.704 -0.0615  0.0528 -0.0474
84485W        W27398   7.102  24.003   6.789 -0.0680  0.0667  0.2879
84486W        W27399  16.279   1.787   3.233  0.4341 -0.2421 -0.0218
84487W        W27400  10.853  27.994  11.669 -0.1158  0.3059 -0.0216
84488W        W27401   6.767  25.128   4.432  0.2808 -0.2423  0.0527
84489W        W27402  31.925  17.156   6.143 -0.0720  0.0429  0.1846
84490W        W27403   9.305  23.041  29.203  0.5093 -0.1313  0.0157
84491W        W27404   5.867  22.313  27.113  0.4349  0.2858  0.0090
84492W        W27405  17.622  19.755   8.514 -0.3153  0.1515 -0.0415
84493W        W27406  31.796  26.591  26.251  0.1107 -0.2964  0.1986
84494W        W27407  32.066  20.685  10.065  0.1400 -0.1415  0.1782
84495W        W27408  33.453   5.062   3.659  0.2854 -0.1505  0.1753
84496W        W27409  11.101  28.595   5.661  0.2122 -0.2605  0.1028
84497W        W27410  11.993  21.703  25.462  0.1621 -0.0573  0.2509
84498W        W27411   8.025  30.242  26.723 -0.0740 -0.2877  0.3188
84499W        W27412  16.612  19.673  25.783 -0.3804 -0.2546 -0.2289
84500W        W27413  31.848   1.152  25.010 -0.0811 -0.0390 -0.1555
84501W        W27414  18.322  21.781   4.807  0.0623 -0.3083  0.0984
84502W        W27415   5.005  33.574   8.948  0.0216 -0.1492  0.1617
84503W        W27416   6.206  23.200   6.774 -0.1568 -0.0613 -0.1147
84504W        W27417   4.571  25.562   7.612  0.3299 -0.0303 -0.1843
84505W        W27418  17.412  25.340   3.974 -0.0506  0.0032  0.1627
84506W        W27419  18.165  23.571   1.597 -0.1607 -0.0396 -0.0218
84507W        W27420   7.691  24.103   5.919  0.0486 -0.1084  0.1234
84508W        W27421   1.911  17.120   2.965  0.2211 -0.1036  0.0772
84509W        W27422  13.086  18.867   0.419  0.3126 -0.3664  0.0175
84510W        W27423  16.477  24.675  29.533  0.3293 -0.0914  0.1816
84511W        W27424  14.394  32.972  25.735 -0.2181  0.3190 -0.1440
84512W        W27425  16.181  24.584  27.094  0.0807 -0.2122 -0.1117
84513W        W27426   6.181  29.172  10.493 -0.1921  0.0574 -0.0498
84514W        W27427  31.832  18.556  27.496 -0.0543 -0.3968 -0.2471
84515W        W27428   3.203  27.701   4.368  0.3405 -0.1857  0.2370
84516W        W27429   9.434   1.351   6.831 -0.2574 -0.0097  0.3978
84517W        W27430  15.236  20.409   8.023  0.1761  0.2002 -0.1861
84518W        W27431  13.887  31.161   3.677  0.2896  0.0483 -0.0161
84519W        W27432  19.364  25.247   0.146 -0.1561  0.1300 -0.0763
84520W        W27433   9.454  34.362  11.537 -0.2723 -0.1748  0.2180
84521W        W27434  11.887  31.466  11.462 -0.1791 -0.0495  0.1346
84522W        W27435   2.143  16.018   6.650  0.2252  0.2160  0.0507
84523W        W27436   6.962  34.018  24.513 -0.0969 -0.0106  0.0801
84524W        W27437   0.169   0.581   9.312  0.5023  0.1576  0.2585
84525W        W27438   6.300   2.387   1.701 -0.2180  0.1048 -0.1533
84526W        W27439  13.086  20.420  22.077  0.3361  0.2767 -0.0444
84527W        W27440   4.101  21.647   7.674 -0.0013 -0.0356 -0.1586
84528W        W27441  13.337  31.164  11.094 -0.2841  0.4331  0.0997
84529W        W27442   2.164  20.197  29.396 -0.1369  0.1270 -0.0186
84530W        W27443   9.095  30.442   6.148  0.2191  0.0527 -0.0883
84531W        W27444  21.983  18.814  29.432  0.0670 -0.0640 -0.1213
84532W        W27445  34.163  31.347   6.700  0.2132 -0.0346 -0.1195
84533W        W27446  32.691   3.209  25.083 -0.1831 -0.0779  0.0585
84534W        W27447  21.543  22.684  28.006 -0.7157  0.0386  0.0298
84535W        W27448  31.621  23.107   0.468  0.1915  0.1401  0.0839
84536W        W27449   2.004  32.502   4.232  0.0457  0.0958  0.2619
84537W        W27450   7.206   2.376   1.490  0.0546  0.0225  0.1159
84538W        W27451  15.089  30.792  18.583  0.2715 -0.2945  0.3265
84539W        W27452   9.695  29.692   2.126 -0.1436 -0.0647  0.1700
84540W        W27453   8.354  14.480  24.682  0.0975  0.2651  0.0589
84541W        W27454   3.698   5.354   9.496 -0.1900  0.1464 -0.0820
84542W        W27455  32.052  21.434   1.289  0.1209 -0.1119  0.1066
84543W        W27456   4.615  28.382   2.469  0.1615  0.0765  0.2036
84544W        W27457   4.206  23.516  19.351  0.0574 -0.3038  0.4750
84545W        W27458  16.448  26.372   1.144 -0.0096 -0.0129 -0.1441
84546W        W27459   6.603   2.309   9.122  0.0830 -0.1232  0.3636
84547W        W27460   3.426  27.330  26.286 -0.2085  0.2685 -0.3686
84548W        W27461  10.478  31.932  27.922  0.0765  0.0387 -0.0428
84549W        W27462  14.808  21.067   0.400 -0.1378 -0.3504 -0.0664
84550W        W27463  11.323  23.888   5.600 -0.3559  0.1093  0.1178
84551W        W27464  30.383  29.768   1.002 -0.1495 -0.2402  0.1125
84552W        W27465   9.001  25.915  21.924 -0.0709  0.1000 -0.1206
84553W        W27466  12.043  27.291  18.385  0.0114 -0.1082  0.0975
84554W        W27467   8.569  24.096   2.463  0.2575  0.1648  0.0426
84555W        W27468  18.029  32.924   7.570  0.0246  0.0586  0.1671
84556W        W27469  12.588  18.354  29.041  0.2815 -0.0501  0.1424
84557W        W27470   5.793  30.290  22.440 -0.1831  0.2100  0.3383
84558W        W27471  14.137  19.425  21.832 -0.0689 -0.3074  0.0868
84559W        W27472  17.274  25.686   9.922 -0.0925 -0.0354 -0.1562
84560W        W27473  16.253  31.359   6.525  0.2476 -0.1851 -0.2009
84561W        W27474   9.122  25.253   8.707  0.4552 -0.1594 -0.0063
84562W        W27475  13.727  31.694  28.481 -0.1244 -0.1452  0.2427
84563W        W27476   5.902  32.386   0.194 -0.0791  0.1312  0.0829
84564W        W27477  12.939  23.474   9.420  0.0685  0.2412  0.3142
84565W        W27478  15.597  32.268   8.061  0.5143  0.0756 -0.1402
84566W        W27479   5.559  17.825   2.152 -0.1176  0.1461  0.3001
84567W        W27480  13.305  29.018  28.014 -0.1659  0.0771  0.0130
84568W        W27481   3.865  33.996   0.443  0.0259  0.2341 -0.1972
84569W        W27482   5.528  34.201  28.649 -0.1413  0.0751  0.0711
84570W        W27483  20.110  31.283   3.476 -0.3479 -0.2618 -0.1838
84571W        W27484  17.930  30.203   2.208  0.0211 -0.3345 -0.2518
84572W        W27485   1.875  31.544  29.615 -0.2071  0.0234 -0.0331
84573W        W27486  32.965  31.501   6.318  0.0121  0.0096 -0.0002
84574W        W27487   1.008  32.190   6.569  0.0744  0.3103  0.1152
84575W        W27488   6.633  33.914   9.675 -0.1916 -0.2252 -0.0578
84576W        W27489   5.310  17.638  22.188 -0.0456 -0.1311  0.3464
84577W        W27490  12.135  28.294   2.601 -0.0284  0.1607 -0.0122
84578W        W27491   3.035  14.088  25.971 -0.1778  0.2653  0.3515
84579W        W27492   7.023  28.602   7.213  0.0222  0.0355  0.0764
84580W        W27493  18.509  21.548  21.294  0.0355 -0.3148 -0.2036
84581W        W27494  10.681  15.467   4.278 -0.2603 -0.0984 -0.1152
84582W        W27495  33.282  24.592  22.872  0.1014  0.0509  0.2172
84583W        W27496   8.370  21.785   3.081 -0.1320  0.0598  0.3435
84584W        W27497   5.227  23.665  23.302 -0.0664  0.1313 -0.1795
84585W        W27498   2.679  29.241  21.154 -0.1452  0.3570  0.1385
84586W        W27499   6.790  30.416   7.690  0.1929  0.0760  0.3744
84587W        W27500  10.218  17.316   9.067  0.1954  0.0957 -0.2927
84588W        W27501  32.300  25.268  23.651  0.1967  0.0096  0.2554
84589W        W27502   5.584  21.844   1.713  0.2995  0.0069 -0.0602
84590W        W27503   6.132   2.188   4.755 -0.0183  0.1842  0.4586
84591W        W27504  14.149  24.461   4.511  0.0314  0.0725 -0.1681
84592W        W27505  31.841  29.599   7.138 -0.1805 -0.0625  0.0536
84593W        W27506   1.433  28.933   3.348  0.2813  0.1504  0.0809
84594W        W27507  21.890  28.607   4.684 -0.1085  0.4531 -0.0524
84595W        W27508   8.961  29.061   1.048 -0.0860  0.0970 -0.0092
84596W        W27509  12.358  29.702   8.740 -0.1754 -0.0405  0.3067
84597W        W27510   4.106  24.566   5.776  0.1443  0.0948 -0.0267
84598W        W27511   0.076  31.174   9.808 -0.2408  0.2748  0.1214
84599W        W27512  26.956  24.719   3.739 -0.0345 -0.0831 -0.0965
84600W        W27513  13.574  20.220   3.057 -0.1219  0.1844 -0.0158
84601W        W27514  13.200  28.410   0.832 -0.1455  0.2946  0.2338
84602W        W27515  12.918  22.188   9.362 -0.0211  0.0197  0.3150
84603W        W27516  15.210  33.084  25.276 -0.0154 -0.0831 -0.1749
84604W        W27517  34.225  26.673  19.152 -0.0965 -0.1117  0.1014
84605W        W27518   1.739  27.208   9.244 -0.1687 -0.1802 -0.1660
84606W        W27519  13.196  23.278   4.558 -0.2675  0.0244  0.1615
84607W        W27520   5.684  21.386   5.314  0.3457 -0.2003 -0.0079
84608W        W27521   8.616  22.510   9.500  0.0798  0.3708  0.1108
84609W        W27522  13.436  26.635  18.954 -0.0366  0.0822 -0.2795
84610W        W27523  11.170  18.410   3.770  0.0631  0.1973  0.0904
84611W        W27524   6.460  23.825   7.492 -0.0370 -0.1269 -0.1009
84612W        W27525   9.838  34.331  11.190 -0.1258  0.0947 -0.1341
84613W        W27526  32.272  24.668  29.453  0.1310 -0.2642  0.1101
84614W        W27527   3.773  31.304  24.642 -0.0095 -0.3377 -0.2537
84615W        W27528   8.358   1.081   9.725 -0.2397 -0.1802  0.1051
84616W        W27529   9.567  26.379  10.925 -0.0532 -0.1036 -0.1885
84617W        W27530   8.388  34.113  24.390  0.1184  0.0794  0.1028
84618W        W27531   2.683  28.084   1.760  0.3191 -0.3119 -0.0902
84619W        W27532  12.259  21.975   0.830  0.0765 -0.1327  0.0103
84620W        W27533   8.759  21.810  21.489 -0.0048 -0.0797 -0.2355
84621W        W27534   9.923  19.462  20.253 -0.2087 -0.0711  0.2752
84622W        W27535   8.556  25.571  23.248 -0.1391  0.3554 -0.0066
84623W        W27536  29.857  21.259   2.332 -0.3428  0.2229 -0.0372
84624W        W27537  18.386  25.494   8.336 -0.1027  0.1537 -0.0940
84625W        W27538  17.135  23.295   7.395 -0.0278 -0.1930 -0.2436
84626W        W27539  16.423  20.703   6.145 -0.2361  0.2016  0.0790
84627W        W27540  18.281  17.767   0.717 -0.1121 -0.0853  0.1189
84628W        W27541   6.693  27.925   0.950  0.0653 -0.0673  0.2042
84629W        W27542   7.188  21.457   9.082  0.5466  0.1737  0.3111
84630W        W27543   6.335  18.256   0.826  0.1969  0.0332  0.0441
84631W        W27544  10.607  27.561   9.898  0.3863 -0.2076  0.0758
84632W        W27545   9.546  32.561  22.879 -0.0891 -0.0644 -0.0217
84633W        W27546   4.329  19.560   2.701 -0.1452  0.3881 -0.0614
84634W        W27547  33.086  33.621  27.807 -0.2201  0.0268  0.0927
84635W        W27548  10.577  25.112   6.029  0.0548 -0.2468  0.0168
84636W        W27549  10.210  32.930  25.509 -0.1307 -0.1316  0.0353
84637W        W27550  23.949  27.810   3.587  0.0485  0.0949  0.1200
84638W        W27551  16.229  33.117   6.113  0.1651  0.3332  0.1325
84639W        W27552  12.437  26.529   9.909 -0.2851 -0.2359 -0.0236
84640W        W27553  11.014  15.929  28.776  0.0457 -0.1084  0.1754
84641W        W27554   8.346  16.468  27.661 -0.1394  0.2313 -0.1314
84642W        W27555  12.297  30.547   9.566 -0.1043 -0.0414  0.3101
84643W        W27556  13.490  24.263   3.069  0.0379 -0.0101 -0.0546
84644W        W27557  11.878  27.361  27.296  0.0921 -0.0628  0.0758
84645W        W27558   7.629  23.719   1.852  0.0138  0.0316  0.2373
84646W        W27559  13.938  23.943  10.209 -0.1002  0.0313 -0.0314
84647W        W27560  10.143  19.684   7.723 -0.0689 -0.2058 -0.1439
84648W        W27561   6.521   2.580   8.526 -0.2341  0.0615  0.1352
84649W        W27562   0.967  15.184   3.699 -0.0038 -0.0942  0.5225
84650W        W27563  14.649  27.433   9.158 -0.2573 -0.0993  0.2753
84651W        W27564  34.141   4.265   1.061  0.0462  0.0057 -0.3098
84652W        W27565  12.907  25.217   5.155  0.1059  0.0481 -0.0139
84653W        W27566  17.570  31.868  24.894 -0.0303  0.3675  0.0306
84654W        W27567  33.932  31.730   5.096  0.3305  0.0305  0.0717
84655W        W27568  33.369  22.505  29.607 -0.0361 -0.3294  0.2111
84656W        W27569  22.470  33.386   2.870 -0.1203  0.0561 -0.1925
84657W        W27570  13.549  12.542   2.261 -0.4164 -0.1463  0.3060
84658W        W27571   8.739  21.757   1.859  0.1250 -0.1306 -0.1766
84659W        W27572   4.124  29.649  18.737  0.0303 -0.5556  0.1180
84660W        W27573   7.234  32.404  22.414 -0.0727  0.3642 -0.2087
84661W        W27574  14.435  22.397   3.360  0.0237 -0.3218 -0.1466
84662W        W27575   6.090  21.311   2.348  0.2199  0.0581  0.3376
84663W        W27576  20.913  30.888   8.792  0.1262 -0.0354 -0.2795
84664W        W27577   7.617  21.628   4.366  0.0464 -0.0033  0.0086
84665W        W27578  20.075  33.568   4.976 -0.0180 -0.1755  0.0610
84666W        W27579   4.713   7.036  21.789  0.4764 -0.4302  0.2568
84667W        W27580   7.476  32.952  29.615 -0.0447 -0.2286 -0.0941
84668W        W27581   4.271  25.857   3.882  0.2622 -0.0375  0.2220
84669W        W27582  13.269  27.679   3.532  0.2195 -0.0977 -0.3042
84670W        W27583  14.420  30.302   9.680 -0.0138 -0.0722  0.0058
84671W        W27584   5.521  24.271   3.670 -0.2104  0.2144 -0.1376
84672W        W27585  11.257  27.307   6.873 -0.0463  0.1645  0.1323
84673W        W27586   7.113  33.380   4.443 -0.3023  0.1964  0.2031
84674W        W27587   4.272  18.677   7.023 -0.0444  0.1782 -0.0910
84675W        W27588  10.403  16.126   2.987  0.1434  0.0954  0.1828
84676W        W27589  31.529  15.164  29.225 -0.1560 -0.0883 -0.3372
84677W        W27590  10.346  30.224  28.064 -0.0907 -0.4105 -0.0144
84678W        W27591   3.526  27.648   0.875  0.2161  0.0908 -0.1000
84679W        W27592  14.932  31.103  25.908  0.2176  0.1542 -0.1170
84680W        W27593   6.327  19.506   0.389 -0.2291  0.0599  0.0551
84681W        W27594  18.426  33.185  29.631  0.1471  0.1455 -0.1975
84682W        W27595   7.969  16.241   9.121  0.2138  0.2430 -0.0616
84683W        W27596   9.228  24.998  18.654  0.0763 -0.1146 -0.1387
84684W        W27597   9.412  31.821   9.168 -0.0328 -0.3901  0.3193
84685W        W27598   3.680  25.250   4.517 -0.0152  0.0788 -0.1285
84686W        W27599   7.581  30.948  26.483 -0.0470 -0.1189  0.2331
84687W        W27600   6.492   9.365   2.940  0.3006 -0.4197 -0.3522
84688W        W27601  34.159  21.854   6.857 -0.3009  0.3103  0.2732
84689W        W27602   7.236  32.424   0.719 -0.1219 -0.0272 -0.0053
84690W        W27603   4.098  26.228  27.754 -0.0732 -0.0950 -0.1596
84691W        W27604  22.799  24.268  26.564  0.0793  0.0797 -0.1901
84692W        W27605  13.173  17.765  27.308 -0.0028  0.1542  0.1813
84693W        W27606   3.508   2.535  28.750 -0.0676  0.3045  0.1216
84694W        W27607  18.239  31.296  27.166  0.1298 -0.0599  0.0236
84695W        W27608   2.152  19.583   6.155 -0.2249 -0.2373  0.0016
84696W        W27609   6.609  20.339   3.305  0.1012 -0.1765  0.2708
84697W        W27610  14.274  18.780  21.368  0.1269  0.1154 -0.2213
84698W        W27611   1.908   1.019  10.008 -0.0510  0.1988 -0.0376
84699W        W27612  11.325  19.779  25.300 -0.0086 -0.0219  0.3245
84700W        W27613  11.414  25.414  27.697  0.0751  0.1895  0.0899
84701W        W27614   6.581  14.211   6.406 -0.0100  0.2280  0.0848
84702W        W27615  34.411  25.993   5.638 -0.2763  0.0869  0.2175
84703W        W27616  11.824  29.521  25.860  0.3551  0.0091  0.0363
84704W        W27617  20.305  31.907  24.532 -0.1723 -0.1827  0.2054
84705W        W27618  10.480   2.611   8.139 -0.1559  0.3245 -0.0235
84706W        W27619   9.337  31.419   3.657 -0.1729 -0.0812 -0.3794
84707W        W27620   0.787  28.831   8.289 -0.0131 -0.0467 -0.2827
84708W        W27621  18.051   5.154   4.473  0.1943  0.1545 -0.0518
84709W        W27622   4.069  15.362  18.851 -0.1284  0.1006 -0.0903
84710W        W27623  14.472  21.588   8.790 -0.2946  0.1117  0.0390
84711W        W27624  10.230  27.991  10.960  0.2038 -0.2104 -0.3605
84712W        W27625   6.428  30.219  29.244 -0.0378 -0.2668 -0.0701
84713W        W27626   6.778  34.215   4.603 -0.2237  0.2268 -0.1292
84714W        W27627  11.739  26.196  14.637  0.0406 -0.1090  0.0575
84715W        W27628  23.441  28.714   6.155  0.0888 -0.3174 -0.0470
84716W        W27629   1.986  25.731   1.761  0.1283 -0.0734  0.0485
84717W        W27630  15.918  31.119   6.808  0.1346  0.0530  0.1414
84718W        W27631  11.267   1.337   0.936  0.0735 -0.1852 -0.1871
84719W        W27632  33.434  22.144   4.886 -0.0465  0.2568  0.1306
84720W        W27633   8.291  21.055  28.034 -0.1295 -0.0838  0.1853
84721W        W27634  14.782  29.768  28.717  0.0538 -0.0809 -0.2746
84722W        W27635   9.002  29.712  22.876 -0.1576  0.3060 -0.0352
84723W        W27636  12.725  24.221   0.217  0.1875 -0.1944  0.2186
84724W        W27637  11.175  30.023   1.394  0.4235 -0.0473 -0.0735
84725W        W27638  13.850  24.842  29.219 -0.3562 -0.2975  0.0019
84726W        W27639  14.350  21.489  25.979 -0.2100  0.1716  0.2028
84727W        W27640   2.514   9.345  26.175 -0.1801 -0.2802 -0.0984
84728W        W27641  32.504  16.968   5.251 -0.0654 -0.2128 -0.0136
84729W        W27642   4.750   8.776  10.159 -0.0478 -0.2316 -0.3827
84730W        W27643   5.441  27.836   7.847  0.0603 -0.1622 -0.3212
84731W        W27644   2.949  22.396  27.470 -0.1305 -0.0501  0.1107
84732W        W27645  17.799  31.516   3.709  0.2090  0.2968  0.2264
84733W        W27646   9.648  21.929   5.653 -0.1761  0.1659  0.2951
84734W        W27647  12.856  30.145   1.950 -0.1009  0.1258  0.1294
84735W        W27648  33.058  21.955   6.946  0.0074 -0.0560 -0.4112
84736W        W27649  28.965   0.694   5.479  0.1991 -0.0469 -0.4411
84737W        W27650   9.790  21.323   0.265 -0.1295  0.1358  0.1223
84738W        W27651   5.343  19.420   1.684 -0.2488  0.0144 -0.0645
84739W        W27652   4.896  20.190   0.384 -0.0762 -0.2561  0.0492
84740W        W27653   7.092  21.312  28.848 -0.0685  0.1511  0.1865
84741W        W27654  21.650  21.574   6.244 -0.0508 -0.0079 -0.0457
84742W        W27655  14.754  15.562  26.767  0.0869  0.0971  0.1129
84743W        W27656  17.341   6.292  28.300 -0.1367  0.0781  0.0318
84744W        W27657  14.713  34.425  22.142  0.0974 -0.0544  0.2235
84745W        W27658   2.936   4.652   0.089 -0.0566  0.2020  0.2318
84746W        W27659   5.854  30.557   9.137  0.0158 -0.3300 -0.0474
84747W        W27660  11.028  28.436  29.191 -0.0037 -0.2691 -0.0551
84748W        W27661  16.623  25.563   3.809  0.0762  0.1961 -0.0908
84749W        W27662  10.204  24.899   0.463  0.1953  0.0503 -0.3091
84750W        W27663  13.721  29.777  21.667  0.1514  0.3467  0.2471
84751W        W27664  12.447  29.808  25.618  0.2139 -0.0028  0.2113
84752W        W27665  14.749  22.537   2.125 -0.1671  0.1118 -0.0087
84753W        W27666  13.897   3.978   2.864  0.1799 -0.2253  0.0928
84754W        W27667  17.597  13.622   3.488  0.1144  0.2598 -0.0381
84755W        W27668   8.198   3.109   9.254  0.0771 -0.0213  0.0720
84756W        W27669   7.087  22.616   1.081  0.4220  0.2111 -0.2946
84757W        W27670   0.883  24.286   4.906 -0.0220  0.1862  0.1601
84758W        W27671   4.994  26.474  22.365 -0.0080 -0.0406  0.1365
84759W        W27672  20.018  30.941  26.099 -0.0304  0.0630 -0.0019
84760W        W27673  34.476  32.722   5.350  0.0274  0.0963 -0.3166
84761W        W27674  18.575  23.604   8.565  0.2819 -0.2285 -0.1504
84762W        W27675   6.915   4.988  22.634 -0.0002  0.0268  0.2712
84763W        W27676  14.344  22.721   0.859 -0.0645 -0.0493  0.1497
84764W        W27677  10.775  31.887   4.249 -0.2008 -0.2846  0.0734
84765W        W27678  25.702  30.420  22.202  0.1585  0.3368 -0.0649
84766W        W27679   8.563  26.108   1.599  0.0142  0.0184  0.1456
84767W        W27680   4.126  25.738  26.396 -0.0774  0.1218  0.2275
84768W        W27681  16.280  18.923  25.908  0.0694 -0.0507  0.1838
84769W        W27682   8.985  22.850   8.394 -0.2109 -0.2180  0.2060
84770W        W27683   7.888  31.572   5.874 -0.1252  0.2038  0.0668
84771W        W27684  10.424  31.831   5.681 -0.1218  0.1356  0.1162
84772W        W27685  12.488  21.186   4.190 -0.1163  0.0595  0.0469
84773W        W27686  13.217  26.301   3.287  0.0550  0.3289 -0.2327
84774W        W27687   9.096  26.100  29.096 -0.0921 -0.1573  0.1323
84775W        W27688  10.431  20.845   7.849 -0.1357 -0.0557 -0.1614
84776W        W27689  11.347   9.688   4.869  0.0064 -0.1722 -0.0110
84777W        W27690  12.282  31.278   4.939 -0.2454 -0.0974 -0.1693
84778W        W27691   1.070  23.351  23.769 -0.2752  0.0554 -0.3364
84779W        W27692   6.001   1.887   5.880  0.1494 -0.0189 -0.1070
84780W        W27693   9.317  20.404  25.089  0.2059  0.0211 -0.1912
84781W        W27694   9.480  14.841   4.808  0.3011 -0.0024  0.1800
84782W        W27695   8.363  28.640   4.550  0.0030  0.5202  0.0407
84783W        W27696   6.740  30.512  23.397  0.0794  0.1309  0.0602
84784W        W27697   5.633   4.951   5.629  0.3820 -0.2249  0.1843
84785W        W27698  12.214  29.501  24.412  0.1460 -0.2739 -0.5245
84786W        W27699  28.772  33.593   4.568  0.3533 -0.3428 -0.1086
84787W        W27700  14.268  22.079  24.595 -0.0423 -0.0063 -0.0211
84788W        W27701  25.610  25.233   1.273 -0.3537  0.0882  0.1162
84789W        W27702   9.678  22.224   9.236 -0.2032  0.1745 -0.1996
84790W        W27703   3.065  11.961  28.780 -0.1843 -0.0449  0.0719
84791W        W27704  15.016  32.926   3.952  0.1065 -0.0091  0.1628
84792W        W27705   6.760   0.126   8.342 -0.0634  0.0112  0.1974
84793W        W27706   8.001  27.823  23.299 -0.2580 -0.2541 -0.0656
84794W        W27707  15.024  27.201   8.824  0.2124 -0.1504  0.2549
84795W        W27708  17.422   3.556  27.473 -0.0549  0.0795 -0.0140
84796W        W27709   5.551  33.736   5.559 -0.0007  0.1167  0.3039
84797W        W27710  26.641  11.535  25.268 -0.2146  0.1350 -0.0767
84798W        W27711  23.604  22.502  26.134  0.1681 -0.1585 -0.2958
84799W        W27712   4.043  26.432  24.274 -0.1748 -0.2359  0.2829
84800W        W27713  13.942  22.121  27.504  0.1109 -0.1255  0.0213
84801W        W27714  17.909  31.224   6.794  0.0149  0.1354 -0.0940
84802W        W27715  17.131  22.614  29.719  0.1008  0.1367 -0.2415
84803W        W27716  11.583  31.335  28.225  0.1314 -0.1925  0.3870
84804W        W27717   4.539  25.599   8.606  0.0627  0.0541 -0.0237
84805W        W27718   9.847  33.806  25.903 -0.0709  0.1171 -0.2381
84806W        W27719   7.435  23.298   2.378  0.1238 -0.2811  0.2012
84807W        W27720   1.344  17.127   1.256  0.1439  0.5994  0.3328
84808W        W27721  30.181  31.568   3.933  0.1063  0.0427 -0.0134
84809W        W27722  12.218  31.880  12.373  0.2846  0.1316 -0.0133
84810W        W27723  11.131  25.399   1.081  0.0443 -0.1201 -0.2935
84811W        W27724   0.594  14.539   5.241  0.4863 -0.0913 -0.2906
84812W        W27725  33.053  17.739  27.665 -0.2285 -0.0515  0.2649
84813W        W27726  11.023  30.617   0.039  0.0861 -0.1544 -0.0137
84814W        W27727  10.512  18.425   5.177  0.4370  0.3001  0.2222
84815W        W27728  10.723  24.076   8.439  0.0817  0.0157  0.1570
84816W        W27729  13.669  30.972   2.749 -0.0384  0.1534  0.1579
84817W        W27730  10.504  19.298   8.695  0.0073  0.0574 -0.6466
84818W        W27731  20.242  29.493   0.983  0.3071  0.1050 -0.1933
84819W        W27732  15.030  24.347  25.273  0.2048  0.1746 -0.0147
84820W        W27733  21.372   9.682  24.465  0.2471  0.0819 -0.0280
84821W        W27734   0.180  23.972  28.284  0.3241  0.0719 -0.0298
84822W        W27735  24.397  25.999   0.418  0.0360 -0.1565  0.1706
84823W        W27736   8.801  29.247   3.484  0.2426  0.0074 -0.1355
84824W        W27737   8.174  23.537   8.057 -0.1918  0.0119  0.2502
84825W        W27738   7.292  25.567   7.820 -0.0920  0.2384  0.1269
84826W        W27739  22.312   9.432  29.470  0.0425  0.0140  0.1227
84827W        W27740   8.459   3.271   6.739  0.1451  0.1227 -0.3443
84828W        W27741  31.754  23.133  28.236 -0.1809 -0.1124  0.1391
84829W        W27742   5.683  23.688  25.481 -0.1730  0.0592  0.3605
84830W        W27743   2.544  31.499  27.040 -0.0327 -0.0873 -0.2178
84831W        W27744   3.913   4.582   4.794 -0.2335  0.4721  0.0903
84832W        W27745  13.460  19.993  20.057  0.2116 -0.1010 -0.3216
84833W        W27746  12.831  21.846  13.889  0.0513 -0.0021 -0.0141
84834W        W27747   7.762  24.010   4.404 -0.3331 -0.1033  0.0344
84835W        W27748  10.423  20.152   8.818 -0.1506 -0.1955 -0.1098
84836W        W27749  15.467  32.317   4.303  0.0162  0.3439 -0.1167
84837W        W27750  17.646   6.849   0.664  0.1808  0.1078  0.2821
84838W        W27751  11.991  28.738   2.638  0.2269 -0.0178 -0.0379
84839W        W27752   9.498  24.434  10.857  0.1275  0.1839 -0.1746
84840W        W27753   7.949  22.992   7.273  0.0180 -0.0189  0.2576
84841W        W27754   3.162  30.555   3.525  0.1562 -0.0675 -0.2684
84842W        W27755   7.616  31.521   6.631  0.2766 -0.1242 -0.1376
84843W        W27756  14.870   0.560   8.590  0.2119  0.1185  0.1491
84844W        W27757  15.229  13.940   4.415 -0.1260  0.1940  0.2127
84845W        W27758  15.891  28.997  16.628  0.3134 -0.1188  0.1061
84846W        W27759  15.666  22.873  29.002  0.0813 -0.0409  0.2662
84847W        W27760  14.032  19.864  21.018  0.2008 -0.0337  0.2108
84848W        W27761   2.228  26.198  28.840 -0.4195 -0.0304 -0.1218
84849W        W27762   7.684  25.710   3.185 -0.0019 -0.2451 -0.0005
84850W        W27763  11.227  22.529   1.638 -0.0640 -0.0449 -0.0634
84851W        W27764   2.007  20.391   2.621  0.2977  0.2139 -0.1537
84852W        W27765   9.115  23.430   1.828 -0.2455  0.1261  0.0241
84853W        W27766  30.091  18.563  17.537  0.0942 -0.2562 -0.3304
84854W        W27767  17.729  19.221   5.529 -0.0631 -0.1172  0.1968
84855W        W27768  21.085   0.661   9.486 -0.0950  0.0120 -0.0964
84856W        W27769   3.889  33.031  25.973  0.2864  0.1855 -0.1387
84857W        W27770  14.656  25.108   6.852 -0.2368  0.0811  0.1771
84858W        W27771  17.966  23.295  24.361 -0.2103 -0.0375  0.1042
84859W        W27772  13.710  32.074   0.440 -0.2289 -0.1015 -0.1476
84860W        W27773   3.246  28.485  28.940 -0.0416  0.1966 -0.0613
84861W        W27774  10.327  33.319   3.465  0.1110 -0.1575 -0.0372
84862W        W27775   9.901  27.853  12.061  0.0904 -0.1741 -0.3277
84863W        W27776  15.398  22.980   6.697 -0.0525  0.0296  0.1656
84864W        W27777  15.079  24.898  20.524 -0.1015  0.2220  0.2847
84865W        W27778  20.849   3.649   7.797  0.0266  0.1149 -0.0146
84866W        W27779   8.788  32.926   6.212 -0.0680  0.4949  0.3679
84867W        W27780   9.153  29.781  11.401  0.2112 -0.2200  0.2330
84868W        W27781   4.151  24.926   8.845  0.1713 -0.2267 -0.1303
84869W        W27782   6.208  18.126   7.267  0.1116 -0.0102 -0.1387
84870W        W27783   9.365  23.644   0.172 -0.0351  0.1970  0.0723
84871W        W27784  28.479  30.184  22.505  0.2571  0.4075  0.1224
84872W        W27785  17.080  26.235   1.315  0.1694  0.0810  0.2176
84873W        W27786  29.975  25.205  29.682  0.2006  0.1918 -0.0154
84874W        W27787   1.577  26.893   6.283 -0.3953 -0.3799  0.1371
84875W        W27788  14.918  17.468  27.957 -0.1524 -0.0586  0.2816
84876W        W27789  20.848  29.171   4.663 -0.0918  0.3812  0.2322
84877W        W27790  14.348   2.913   4.607 -0.1863 -0.2031 -0.1036
84878W        W27791   6.395  22.530   9.520 -0.0145 -0.0704 -0.1128
84879W        W27792   4.627  30.310   4.207  0.0685  0.0133 -0.0932
84880W        W27793   1.829  27.947  10.440  0.0635 -0.1277  0.0611
84881W        W27794  11.107  29.770   0.444 -0.2173 -0.1959  0.0513
84882W        W27795   4.258   0.482   4.557 -0.2917  0.2256 -0.1763
84883W        W27796   9.408  26.737  28.381 -0.0181  0.1018 -0.1321
84884W        W27797  18.608  28.840   3.800 -0.1032  0.2216 -0.1347
84885W        W27798   2.516  34.434  21.721 -0.1686  0.2019 -0.4220
84886W        W27799  29.519  23.876   7.329  0.5687  0.2071 -0.1936
84887W        W27800   1.404  19.142   3.694 -0.3354  0.1267  0.0103
84888W        W27801   4.814  28.358  10.119  0.0262  0.0204 -0.0020
84889W        W27802   8.875  27.810   1.484 -0.1412 -0.2037 -0.1887
84890W        W27803   9.273  23.540  26.765 -0.1352  0.1218 -0.1186
84891W        W27804  13.357  23.551  29.253  0.6521 -0.1580  0.1903
84892W        W27805  28.772  24.307   5.534  0.1865 -0.0559  0.1380
84893W        W27806   6.452  29.485   6.823 -0.0369  0.0533  0.0303
84894W        W27807   3.135  29.262   7.246  0.1505 -0.3246  0.0516
84895W        W27808  20.335  29.548  29.104 -0.1285 -0.2409 -0.0668
84896W        W27809  30.940  25.989   1.989  0.3887  0.0010  0.1896
84897W        W27810  14.332  27.418   4.902  0.1198  0.1867  0.3189
84898W        W27811  12.580  23.032  21.877 -0.1015  0.0975 -0.2467
84899W        W27812   0.079  31.416   6.959  0.1711 -0.3584  0.3375
84900W        W27813   7.146  31.488   0.501  0.0284 -0.0716  0.2597
84901W        W27814  31.508  33.149   5.773  0.1589 -0.1002 -0.1966
84902W        W27815  15.175  17.052   2.752 -0.0466  0.2335 -0.0794
84903W        W27816   9.682  28.688  29.308 -0.3365 -0.2505 -0.0923
84904W        W27817  30.148  20.667  25.069 -0.0446  0.1082 -0.0748
84905W        W27818  13.412  32.326   5.717 -0.2537 -0.2232 -0.1668
84906W        W27819   6.002  26.944   3.945  0.4474 -0.0545 -0.1718
84907W        W27820   6.037  27.212   4.558 -0.0643  0.2384 -0.0702
84908W        W27821   1.493  31.483   4.648  0.2401  0.1111 -0.0695
84909W        W27822  12.177  33.938   0.025  0.1648  0.0606  0.2451
84910W        W27823  11.961  30.090   4.075  0.0750  0.0557 -0.2119
84911W        W27824   4.568  27.190   5.206  0.1605  0.0549 -0.1302
84912W        W27825  12.222  30.572  11.094  0.0500 -0.0173  0.2891
84913W        W27826  16.332  28.176   4.631 -0.1434  0.1112  0.1443
84914W        W27827   8.015   1.392   3.538  0.0684 -0.0124  0.1854
84915W        W27828  11.840  17.065  27.372 -0.1307  0.2257  0.1107
84916W        W27829   5.565  29.141   0.073 -0.2132 -0.1491  0.0312
84917W        W27830   8.462  25.434   7.359 -0.0678  0.0422 -0.2462
84918W        W27831  15.298  21.767  29.677 -0.2505  0.3151 -0.0206
84919W        W27832   7.467  14.749   9.175  0.0785  0.2886  0.0618
84920W        W27833   2.869  19.764   7.592 -0.2577 -0.0354 -0.1890
84921W        W27834   6.473  22.543   3.509 -0.2376 -0.0281  0.4843
84922W        W27835   7.873  26.912  26.740 -0.1606 -0.0778  0.1676
84923W        W27836   2.897  28.975   3.650 -0.4752 -0.1449 -0.0915
84924W        W27837  11.463  26.063   7.504 -0.0540 -0.0608 -0.1160
84925W        W27838  12.192  29.469   5.882  0.2537 -0.1790 -0.1413
84926W        W27839   8.175  19.890   7.807  0.0183  0.1897  0.2616
84927W        W27840  10.567  28.316  29.410  0.2629 -0.0539 -0.0332
84928W        W27841  11.251  34.409   9.659 -0.1386  0.0809 -0.2652
84929W        W27842  14.983  23.206   6.994  0.2261 -0.1911 -0.1602
84930W        W27843   8.147  24.952   9.216  0.4597  0.1246 -0.0091
84931W        W27844  11.997  27.762   8.544 -0.3030 -0.0773  0.0003
84932W        W27845  10.488  30.424   3.551 -0.1968 -0.0734 -0.1190
84933W        W27846   7.229  23.712   9.470 -0.1833  0.1051  0.2105
84934W        W27847   8.868   1.097   2.902  0.1493  0.2995  0.1340
84935W        W27848   6.444   1.956   0.961  0.1189  0.1376 -0.1884
84936W        W27849  33.855  21.597   9.207 -0.2298  0.1817  0.1789
84937W        W27850   5.433  17.504   4.513  0.0371 -0.3040  0.2095
84938W        W27851   3.536  16.663   6.543  0.0161 -0.0675 -0.3875
84939W        W27852   3.497  21.943   0.341 -0.0146  0.0259 -0.2426
84940W        W27853  10.684  21.738   2.408  0.0255  0.1578  0.1870
84941W        W27854  19.227  19.380   3.364 -0.0698 -0.0025 -0.0726
84942W        W27855  14.437  25.548   6.282  0.3262 -0.0919 -0.0197
84943W        W27856   1.505   0.787   3.434  0.1634 -0.6571  0.1121
84944W        W27857  10.906  31.550   9.224  0.1814  0.0779 -0.2762
84945W        W27858  34.204  25.464   5.764 -0.4669  0.0810  0.2623
84946W        W27859   4.290  28.223   9.404 -0.4395  0.0085  0.2385
84947W        W27860   6.303  30.521   7.791  0.1282  0.0368 -0.1777
84948W        W27861  28.791  30.936  10.460  0.3504  0.0061  0.0205
84949W        W27862  10.386  16.708   8.097 -0.2591  0.3075 -0.3194
84950W        W27863   6.128  30.380   1.488  0.2860  0.0522 -0.0990
84951W        W27864   3.751  26.926  10.138  0.3836 -0.0476 -0.2304
84952W        W27865  13.318   2.375   8.943 -0.2368 -0.0921  0.0372
84953W        W27866  14.114   5.018   9.280  0.3804  0.2855  0.0096
84954W        W27867   6.005  30.627  27.103 -0.1622  0.0405 -0.1332
84955W        W27868  10.892  29.033   3.856  0.0074 -0.1078 -0.1355
84956W        W27869   7.597  26.091   3.690  0.3761 -0.1474  0.1362
84957W        W27870  29.735   0.296  19.089 -0.0586  0.1801 -0.3558
84958W        W27871  10.090  28.158  10.462 -0.2113 -0.0681  0.0119
84959W        W27872   3.667  24.811   8.917 -0.3001  0.0836 -0.0380
84960W        W27873  11.364  15.366   4.455  0.0486 -0.0598 -0.0137
84961W        W27874  14.213  19.695   3.049 -0.2287 -0.3186 -0.4281
84962W        W27875  10.237  32.877   9.760  0.2077 -0.2757  0.1698
84963W        W27876  17.891  26.011   9.215 -0.1717 -0.1515  0.1780
84964W        W27877  11.562  14.274   1.453 -0.1165 -0.0978  0.0966
84965W        W27878  34.086  31.567   1.079 -0.2613  0.0407  0.3469
84966W        W27879  17.236  21.627  28.821 -0.0350 -0.2637  0.0693
84967W        W27880  12.161  26.157  25.245  0.1883 -0.2696 -0.3018
84968W        W27881   7.336  25.883  11.003 -0.0758 -0.1242 -0.0883
84969W        W27882  14.948   4.344   8.913 -0.0087  0.1432  0.1260
84970W        W27883   3.029  27.198   7.567 -0.0041 -0.1484  0.0520
84971W        W27884   8.424  18.803   6.360  0.1558 -0.1108 -0.0742
84972W        W27885  11.460   2.675   9.154 -0.2772 -0.2674  0.2511
84973W        W27886  34.476  18.741   6.573 -0.3225  0.0124 -0.0936
84974W        W27887   8.960  21.889   2.299 -0.0501 -0.1311  0.1637
84975W        W27888   9.736  25.425   6.831 -0.1012  0.2785  0.2846
84976W        W27889   3.537  19.626   4.667 -0.3355 -0.1065  0.3109
84977W        W27890   9.470  26.561   8.980 -0.2358  0.3851  0.1596
84978W        W27891  13.889  27.300  29.497  0.2367 -0.3167  0.2080
84979W        W27892   2.784  24.697   9.543  0.0978 -0.0139 -0.4021
84980W        W27893  15.740  27.814   9.854  0.0341 -0.0589 -0.3748
84981W        W27894  10.500  21.250   2.590 -0.2547 -0.3010 -0.1611
84982W        W27895   8.431  34.040  23.849 -0.2626  0.0658 -0.3004
84983W        W27896  20.497  31.283   0.111 -0.1420  0.2540  0.3611
84984W        W27897   9.931   1.587   7.021  0.0984  0.0803 -0.1395
84985W        W27898  27.851  29.504   5.590 -0.1380  0.0469 -0.1435
84986W        W27899   6.933  22.994  10.203  0.2267  0.3680 -0.0704
84987W        W27900   1.128  30.202  10.230  0.3288  0.1577 -0.1105
84988W        W27901  11.009  25.779  27.686 -0.0448 -0.0859  0.3668
84989W        W27902   3.728  17.072   0.210 -0.0290  0.1215 -0.2979
84990W        W27903  16.777  21.328  26.796  0.0425 -0.0292  0.2653
84991W        W27904  12.546   2.283  11.303 -0.1329  0.2381 -0.0334
84992W        W27905  25.238  22.557   1.304 -0.0425 -0.1436 -0.4485
84993W        W27906  33.821  27.162   6.246 -0.0991  0.2721  0.0541
84994W        W27907   5.500   7.774  28.980 -0.0581 -0.2657  0.2115
84995W        W27908  21.874  30.540  28.317  0.0790  0.0094 -0.2265
84996W        W27909  13.775   0.218   2.048  0.0559 -0.0762 -0.0429
84997W        W27910   3.375  31.505   5.312 -0.1707  0.2282 -0.0424
84998W        W27911  13.565  26.797  26.493 -0.4086  0.0443  0.0201
84999W        W27912   4.946  24.350   7.277 -0.2050 -0.0928 -0.0149
85000W        W27913  32.583  29.959   8.168 -0.0202  0.3027  0.1823
85001W        W27914  18.007  23.767   8.952  0.2501 -0.0650 -0.2099
85002W        W27915   6.843  30.595   6.064  0.0688 -0.0132  0.4289
85003W        W27916   9.182   2.099  29.641 -0.1952 -0.0643 -0.2727
85004W        W27917   4.776  32.776   5.639 -0.1106  0.1056  0.0422
85005W        W27918  10.579  24.701   4.822  0.2549  0.1349 -0.1428
85006W        W27919  12.078  20.080  26.451 -0.2711  0.0852 -0.3716
85007W        W27920  12.169  27.354   6.801 -0.0619 -0.1891  0.1035
85008W        W27921  13.284  32.285   4.301 -0.2538 -0.0289  0.0960
85009W        W27922  13.779  26.395   1.194 -0.2747  0.0351 -0.1875
85010W        W27923  15.677  27.077   2.262 -0.3064  0.2129 -0.1018
85011W        W27924   0.980  28.792   9.646  0.0385  0.0886  0.0720
85012W        W27925  10.888  33.144   6.621 -0.0890 -0.3020 -0.0424
85013W        W27926  10.206   0.267  10.483 -0.1786 -0.1391  0.1115
85014W        W27927   2.725  19.922   6.198 -0.2829  0.0657 -0.0868
85015W        W27928   3.392   2.441   6.644  0.0988 -0.0702  0.1613
85016W        W27929   3.841  27.557   7.810 -0.1149 -0.1055  0.0647
85017W        W27930  34.102  27.156  28.887  0.1396  0.0638 -0.1152
85018W        W27931  14.853  28.161   3.620 -0.0840 -0.2672 -0.1714
85019W        W27932   3.688  26.122   1.417  0.0651 -0.1298 -0.0330
85020W        W27933   5.699   4.234   6.150  0.1134 -0.1411 -0.2162
85021W        W27934  25.571  30.884   4.707  0.1102  0.2225  0.1415
85022W        W27935   9.782  27.658  27.805  0.0231  0.1939 -0.1253
85023W        W27936   3.513  32.961   7.974  0.1279 -0.2489 -0.2829
85024W        W27937  16.475  32.464   6.088  0.0834 -0.1130  0.3724
85025W        W27938  12.271   2.049  11.779 -0.1252  0.1881 -0.1103
85026W        W27939   7.488   0.372  29.466 -0.1182  0.0463  0.3979
85027W        W27940  12.467  26.137   9.613 -0.0711  0.1232 -0.0121
85028W        W27941  33.694  25.398   5.428 -0.0515 -0.1322  0.2758
85029W        W27942  14.559   4.025   2.550 -0.3438  0.0646 -0.1727
85030W        W27943  14.006  24.312  28.389 -0.0771 -0.2346 -0.2873
85031W        W27944  14.074   2.538   5.911  0.1227  0.1114 -0.1033
85032W        W27945  20.085  23.083   0.606 -0.0787  0.0139  0.1284
85033W        W27946  12.644  19.847   6.899  0.3650  0.0575  0.1360
85034W        W27947  23.090  19.875   3.635  0.1417  0.2456  0.1394
85035W        W27948   4.691  26.516  10.549 -0.2248 -0.4768  0.1864
85036W        W27949  27.846  33.655   4.189  0.0048 -0.0631 -0.2941
85037W        W27950  10.281  31.409   9.699  0.0619 -0.2661  0.1833
85038W        W27951   7.806  24.525  24.713 -0.0493 -0.0510  0.0664
85039W        W27952  13.960  15.158  17.669 -0.1950 -0.0815 -0.4065
85040W        W27953  15.549  26.536   8.392 -0.0793  0.0488 -0.1102
85041W        W27954   3.997  22.422   4.156 -0.1352 -0.1088  0.4315
85042W        W27955  20.239  20.433   4.200 -0.0908 -0.0662  0.2712
85043W        W27956  11.919  17.943   8.380 -0.2511 -0.1916  0.1555
85044W        W27957   3.998  30.241   9.515 -0.0539 -0.2017 -0.0509
85045W        W27958   6.253  25.679   9.976  0.1408 -0.1607 -0.3427
85046W        W27959   6.782  28.770   9.520  0.2818 -0.0495  0.0909
85047W        W27960   5.674  31.101   7.990 -0.4958  0.4646  0.0529
85048W        W27961   6.753  34.033  12.136 -0.3402  0.0647  0.0288
85049W        W27962  12.074  29.125   9.654 -0.0207 -0.2568 -0.4308
85050W        W27963   6.885  33.212   1.161  0.1883  0.1806 -0.2216
85051W        W27964   3.097  24.384  28.700  0.3399 -0.2076 -0.0233
85052W        W27965   1.499  29.435  10.120 -0.1906  0.1504 -0.1230
85053W        W27966  10.292  27.394   7.145  0.2379  0.1104  0.1108
85054W        W27967   7.437  31.856   6.987 -0.0602  0.2317 -0.0439
85055W        W27968  19.559  23.826   2.121 -0.0751  0.0469 -0.1978
85056W        W27969  19.605  15.143   7.295 -0.1916  0.0121 -0.0064
85057W        W27970  15.664  25.882   4.047  0.0341 -0.1484 -0.2086
85058W        W27971  20.244  29.708   6.900  0.0682 -0.0382 -0.0439
85059W        W27972  12.324  23.861   6.877 -0.1497 -0.0197  0.1823
85060W        W27973   5.623  17.025   4.980 -0.0489  0.0375 -0.2248
85061W        W27974   0.811  32.737  29.099 -0.3968 -0.1891 -0.1225
85062W        W27975   7.087  22.589  27.867 -0.3602 -0.0549  0.0188
85063W        W27976  11.384   2.016  10.897  0.1262 -0.4880 -0.3932
85064W        W27977   8.565   9.046   9.713  0.2145 -0.4435 -0.0234
85065W        W27978  11.820  29.183   5.527  0.1340  0.2369  0.1741
85066W        W27979  10.562  28.986   8.490 -0.2612 -0.1587  0.0160
85067W        W27980   7.207  30.746   9.206 -0.1371 -0.1600  0.1123
85068W        W27981  10.942  24.043   2.217 -0.0782 -0.1723  0.0848
85069W        W27982  13.968  32.626   8.166 -0.2905 -0.0835  0.1184
85070W        W27983  12.252  16.686   1.487 -0.2299 -0.1039  0.1163
85071W        W27984   3.729  28.253  25.172  0.2373  0.0166  0.4544
85072W        W27985   3.637  29.446   9.484 -0.2000 -0.2867  0.3422
85073W        W27986   6.951  29.832   2.370 -0.1127 -0.0746 -0.1051
85074W        W27987  10.757  28.233   5.285  0.0813 -0.3288 -0.1368
85075W        W27988  11.289  32.304  11.657  0.0794 -0.0369  0.0638
85076W        W27989   3.263  25.291  24.882 -0.2553  0.0686  0.0360
85077W        W27990  19.390  28.575   8.938 -0.2807  0.3685 -0.0738
85078W        W27991   1.006  27.912  10.808 -0.0554 -0.2789 -0.1752
85079W        W27992  19.404  28.068   6.637  0.2774 -0.1232  0.0259
85080W        W27993   4.414  30.031   6.242  0.0921  0.2956  0.2521
85081W        W27994  11.579  28.429   2.712 -0.0559 -0.0018  0.3397
85082W        W27995   4.999  22.049   6.112  0.1065  0.0014  0.2291
85083W        W27996  17.357  32.793  10.092 -0.2581  0.1588 -0.0222
85084W        W27997   7.736  26.101  10.179  0.0609 -0.0264  0.2177
85085W        W27998   4.270  28.676   0.583  0.2934  0.1175  0.2530
85086W        W27999  29.119  27.167  28.210  0.1200  0.0364 -0.2598
85087W        W28000  20.315   5.665   6.816 -0.0932  0.0014 -0.1405
85088W        W28001   3.068  23.324   4.374  0.4382 -0.1322 -0.0762
85089W        W28002   7.398   2.871   3.144  0.0605 -0.0517  0.0396
85090W        W28003   8.378   0.439  10.974 -0.1124 -0.1963  0.2347
85091W        W28004   6.392  18.214   8.974 -0.2426 -0.0961  0.1834
85092W        W28005   7.970  27.016   8.978  0.2163  0.3174  0.0240
85093W        W28006   6.795  28.637   8.899 -0.2712 -0.2320  0.2388
85094W        W28007  12.088  10.404   5.332  0.1462  0.0555  0.0235
85095W        W28008   8.944  26.986   7.259 -0.0153  0.1558 -0.0029
85096W        W28009  14.124  22.345   5.852  0.0532  0.2600 -0.3035
85097W        W28010  11.296   2.244  10.022 -0.4387  0.0144  0.0506
85098W        W28011   5.377  27.895   1.987  0.0004  0.0502  0.0217
85099W        W28012  13.778  29.150   7.017  0.1949  0.2898 -0.0546
85100W        W28013   6.034   3.815  12.878 -0.2064  0.0657 -0.3789
85101W        W28014   3.345  12.183   9.628 -0.1158  0.1265 -0.3999
85102W        W28015   8.160  31.023  28.846 -0.2241 -0.2698 -0.1245
85103W        W28016   3.201  20.382   5.594 -0.0062 -0.0289  0.0985
85104W        W28017   7.108  32.154   7.221 -0.0755 -0.2794  0.0045
85105W        W28018  11.513  30.425   8.221 -0.0659 -0.1122 -0.0067
85106W        W28019   0.346  30.983   6.019  0.0175 -0.1696  0.1272
85107W        W28020  10.946  26.523   9.004 -0.0450 -0.2325 -0.1980
85108W        W28021   4.270  31.413   7.043  0.1187  0.0118  0.1077
85109W        W28022   6.625  20.482   4.932 -0.2030 -0.0159 -0.0041
85110W        W28023  17.474  26.099   2.089  0.0118  0.2331  0.0720
85111W        W28024  13.372   1.611  10.869  0.0006  0.1612  0.2575
85112W        W28025   3.874  26.864   6.027  0.3155 -0.1945 -0.0034
85113W        W28026  11.113   4.410   2.135  0.0811 -0.4175  0.1468
85114W        W28027  18.327   0.655   1.966 -0.2368 -0.0395 -0.0498
85115W        W28028  12.600  31.506   9.933  0.2907 -0.1300  0.4028
85116W        W28029   5.448  28.462  19.752 -0.2482 -0.0586  0.0651
85117W        W28030   6.299  20.433   8.174 -0.0104 -0.0666  0.0379
85118W        W28031  10.468  28.887  27.752  0.0605 -0.0431  0.0272
85119W        W28032  14.962  23.619   0.804  0.2260  0.1994  0.1119
85120W        W28033   8.258  27.561   7.807 -0.1231 -0.1253  0.0117
85121W        W28034  10.451   4.758   8.121 -0.0435  0.1040 -0.1575
85122W        W28035   5.941  31.773   5.690  0.3788 -0.1941 -0.3330
85123W        W28036   4.416  24.587   4.710  0.0631  0.2374 -0.0363
85124W        W28037  16.295  34.200   6.168 -0.0081 -0.0268  0.1480
85125W        W28038   8.729  24.855   2.862 -0.2150  0.2472 -0.1292
85126W        W28039  15.179  28.008   8.039 -0.0959  0.0619 -0.0303
85127W        W28040  17.094  18.857  25.336  0.2379  0.1259  0.1449
85128W        W28041  12.418   8.527   7.362  0.3724 -0.2032 -0.1233
85129W        W28042  33.169  29.907   8.201  0.1596  0.0518  0.4119
85130W        W28043  10.591  27.792   9.126 -0.2797 -0.1855 -0.2339
85131W        W28044  12.962   9.229   5.126 -0.1039 -0.1615  0.3741
85132W        W28045  19.823  23.786   3.829  0.3475  0.1516  0.2390
85133W        W28046   2.826  19.527   8.510  0.1390 -0.0123  0.1316
85134W        W28047  13.908  21.586   8.086 -0.1122 -0.0038 -0.0035
85135W        W28048  16.933  19.841   2.139  0.2386  0.0324 -0.0411
85136W        W28049  10.920  25.954   6.316 -0.2146  0.2072  0.0655
85137W        W28050   7.102   0.097   5.494  0.0587 -0.1016 -0.0648
85138W        W28051  16.193  20.126   7.282  0.0144 -0.0442  0.0380
85139W        W28052  15.813  27.139   4.981  0.1227 -0.4232  0.0570
85140W        W28053  12.582  34.104  21.095 -0.0632  0.1813  0.0120
85141W        W28054  33.344   5.816   9.643 -0.1435  0.1445  0.1312
85142W        W28055   8.991  21.522   1.097 -0.0118  0.1834 -0.0022
85143W        W28056   6.512  25.169  10.762  0.2441  0.0849 -0.2054
85144W        W28057   6.376  30.457   5.087 -0.1040  0.0450  0.2972
85145W        W28058  10.109  23.273  26.161  0.1045 -0.0797  0.6052
85146W        W28059   8.346  23.236   9.922  0.1963 -0.1721 -0.1180
85147W        W28060   0.965  28.534  20.855 -0.2228  0.5053  0.0613
85148W        W28061  13.774  31.665   0.743 -0.0160 -0.0550  0.0524
85149W        W28062  19.720  27.364   4.995  0.3734  0.0157  0.1928
85150W        W28063   9.780   1.010   6.400 -0.0802 -0.0200  0.1518
85151W        W28064   1.917  21.776   6.118  0.0332 -0.1969  0.1281
85152W        W28065  14.787  33.764   5.990  0.1692  0.3577  0.2315
85153W        W28066   7.563  34.357   8.042 -0.0071  0.0278 -0.2076
85154W        W28067  10.034  27.268  10.791 -0.1087 -0.0518 -0.0637
85155W        W28068  11.303  27.393   9.369 -0.0573 -0.1251 -0.1105
85156W        W28069   8.936  26.038   9.588 -0.1459 -0.0039 -0.0888
85157W        W28070  11.927  24.151   4.719  0.2631 -0.2986  0.1898
85158W        W28071   5.892  22.988   0.411 -0.3809 -0.2738 -0.3418
85159W        W28072  30.756  22.564   5.406  0.2361  0.0585  0.1185
85160W        W28073  13.050  14.092   1.346 -0.0150 -0.0648  0.1523
85161W        W28074   3.916  11.574  25.041  0.3401  0.0630  0.1878
85162W        W28075  13.376   1.805   4.235 -0.0044  0.1771 -0.3196
85163W        W28076  16.465  29.301  10.378  0.1512 -0.2620  0.0060
85164W        W28077   0.730  19.349   5.765  0.0328  0.1608  0.1111
85165W        W28078   0.938  32.280   7.625  0.0588  0.0201  0.0261
85166W        W28079  17.185  26.942   7.428  0.0895 -0.2136  0.0806
85167W        W28080  18.698   5.655   8.518 -0.0919 -0.1725 -0.0941
85168W        W28081   3.650   2.513  29.249  0.0366 -0.0934 -0.2425
85169W        W28082   0.505  22.928  24.977 -0.2601  0.1346  0.0601
85170W        W28083   0.234   3.767   7.518  0.1691  0.2750 -0.0400
85171W        W28084  29.085  27.453   5.756  0.0169 -0.0304  0.0592
85172W        W28085  16.589  25.981   7.256 -0.0691  0.1291 -0.0558
85173W        W28086  10.927  27.666   8.181 -0.1262 -0.1311  0.1264
85174W        W28087   3.804   0.239   4.485  0.3184  0.1195 -0.0755
85175W        W28088   1.640  33.668   2.027 -0.2118  0.2144 -0.3039
85176W        W28089   5.155  29.680   8.728 -0.1515  0.3139  0.1249
85177W        W28090   9.470  25.408   4.507  0.1518  0.1578 -0.1174
85178W        W28091   3.731  24.708  10.047  0.1011 -0.3317 -0.1290
85179W        W28092   4.702  26.321   0.615 -0.4350  0.1066 -0.0110
85180W        W28093  17.263  23.021   7.885  0.0923  0.2946 -0.1755
85181W        W28094  14.636  28.576   2.516  0.0645 -0.1466 -0.1325
85182W        W28095  11.701  34.042   4.175  0.4583  0.0222  0.2125
85183W        W28096  14.442  26.231   2.737  0.1182 -0.1279  0.0560
85184W        W28097   7.256  30.747  28.660 -0.2719  0.2077 -0.1052
85185W        W28098  16.094  28.752   8.041  0.2109 -0.0241  0.0810
85186W        W28099  14.448  30.254  11.467 -0.1087 -0.1101  0.4403
85187W        W28100   8.039  27.483  10.207  0.1682  0.1140  0.2695
85188W        W28101   9.170  24.797   7.467  0.3197  0.3140 -0.2536
85189W        W28102   6.936  29.845   6.595 -0.2163  0.0043  0.0824
85190W        W28103   7.084  18.203  28.098  0.0128 -0.2986  0.1326
85191W        W28104  34.210  25.314   1.117 -0.3110  0.0888 -0.0405
85192W        W28105   9.597  29.049   8.260 -0.2040  0.3171  0.1202
85193W        W28106   8.672  30.237   3.678 -0.4066 -0.2786  0.1082
85194W        W28107   7.903  28.395   2.217  0.0777 -0.0982  0.1064
85195W        W28108   8.066  31.734   6.311  0.0121  0.0689 -0.4344
85196W        W28109  14.580  32.691   3.195 -0.1421  0.1148  0.4009
85197W        W28110  10.603  26.544  29.736  0.1474  0.2232  0.2433
85198W        W28111   0.477  34.237   0.893 -0.1648  0.2032  0.0157
85199W        W28112  14.095  28.852  23.980 -0.0169 -0.4398 -0.1479
85200W        W28113   3.801  30.066   6.009  0.2819  0.0146  0.0878
85201W        W28114  16.754  20.008  23.685 -0.0329  0.0389  0.2144
85202W        W28115  11.339  27.701   6.286 -0.3958 -0.0735 -0.0020
85203W        W28116   7.295  19.014   4.104  0.1421 -0.3047 -0.0252
85204W        W28117   5.158  27.317   4.427 -0.4436 -0.1155 -0.1520
85205W        W28118   1.723  23.251   0.804 -0.1703 -0.1073  0.3292
85206W        W28119  10.470  25.446   4.490  0.1350  0.1017  0.0971
85207W        W28120   6.543  33.118  29.505 -0.0003  0.2926  0.0679
85208W        W28121  31.852  33.955   9.983  0.0252  0.4069  0.1503
85209W        W28122   3.327  20.107   9.761 -0.4489  0.1578  0.0667
85210W        W28123  13.251  30.392   8.141 -0.2213  0.1655  0.3781
85211W        W28124   8.225  18.002   2.234 -0.1640  0.1050  0.0854
85212W        W28125  14.079  29.022  28.734  0.1183 -0.0609  0.2773
85213W        W28126   8.227  28.788  10.626 -0.1939 -0.1321 -0.2200
85214W        W28127  34.008  27.539   8.992 -0.1126  0.1583  0.0982
85215W        W28128  14.315   0.540   5.799  0.4103 -0.1872 -0.3421
85216W        W28129  18.367  22.754  26.520 -0.3071 -0.0458 -0.3922
85217W        W28130  33.862  16.881   2.382  0.1072 -0.2435  0.0673
85218W        W28131   7.598   2.804  26.972 -0.1156  0.1599  0.1250
85219W        W28132   2.702  26.013   5.460  0.0300  0.1771 -0.1959
85220W        W28133   6.824  28.257  11.117  0.2834  0.0192  0.0935
85221W        W28134   9.022  22.499   7.290  0.0548 -0.1406  0.2594
85222W        W28135   6.986   6.299   0.157  0.2289  0.0207 -0.1033
85223W        W28136  13.349  25.696  10.685  0.0447  0.1024  0.0702
85224W        W28137   3.612   3.914   1.165 -0.1966 -0.1985  0.0143
85225W        W28138   3.436  33.750   5.373  0.1950 -0.4150 -0.2470
85226W        W28139   8.673  30.798  26.147  0.1299  0.1996 -0.0099
85227W        W28140   5.055   3.746   7.829  0.0439  0.2131  0.1712
85228W        W28141  23.106  28.404   0.943 -0.1015  0.1084 -0.1564
85229W        W28142   7.588  29.210   7.772 -0.0729  0.1134  0.0517
85230W        W28143  14.823  22.721  14.318 -0.0890 -0.0053  0.0765
85231W        W28144   7.735  25.986   9.037  0.0717  0.1571 -0.1818
85232W        W28145  13.445  17.157   5.692  0.0226 -0.0616  0.0503
85233W        W28146  13.318  20.223   4.790 -0.2475  0.1461 -0.1392
85234W        W28147   7.092  12.685  29.746 -0.5247  0.0683 -0.3755
85235W        W28148   4.897  18.436   1.738 -0.2565  0.0061 -0.0371
85236W        W28149  12.424   3.592   7.729  0.0582 -0.0427  0.1295
85237W        W28150   7.705  32.417   3.591  0.0669  0.1795  0.0898
85238W        W28151   5.123  26.766   2.438  0.1164  0.1307 -0.2015
85239W        W28152   5.930  30.963   3.223  0.1809  0.2144 -0.0010
85240W        W28153  14.227   6.097   4.096 -0.1054  0.0575 -0.2237
85241W        W28154  14.489  31.683  12.017 -0.1953 -0.0911 -0.4410
85242W        W28155   9.218  31.825  28.870  0.2482  0.2571 -0.1046
85243W        W28156   8.598  33.342  11.731 -0.3372 -0.1526 -0.0181
85244W        W28157   8.074  28.686   6.528  0.3856 -0.4042  0.0221
85245W        W28158   4.264  24.870   3.044  0.0543  0.1045 -0.2269
85246W        W28159  31.848   0.835   8.108 -0.2751  0.0434  0.0947
85247W        W28160  21.625  25.148  26.449  0.0319 -0.0155 -0.0727
85248W        W28161  21.162  15.073   4.061 -0.2562 -0.1847 -0.1180
85249W        W28162  16.563  29.429   9.062 -0.1270 -0.3280 -0.1790
85250W        W28163  16.299  28.510   8.963  0.1936  0.1380  0.1410
85251W        W28164  12.730  25.137  24.861 -0.1020  0.0050  0.2347
85252W        W28165   9.893   5.197   9.034  0.0484 -0.0949  0.1080
85253W        W28166  11.569  15.685   6.118 -0.0573 -0.2991  0.0492
85254W        W28167   1.369  10.757   6.311 -0.0278  0.0926  0.0378
85255W        W28168  13.784  25.016   9.326  0.0359  0.0083  0.2036
85256W        W28169   3.223  22.445   9.673 -0.0339  0.1415  0.0706
85257W        W28170   3.387  25.655  27.247 -0.0960 -0.4035  0.0733
85258W        W28171   3.569  22.367   3.000 -0.2256  0.2383  0.0325
85259W        W28172  11.896   1.026   7.460  0.0112 -0.0656 -0.0744
85260W        W28173  12.145  26.142   5.740  0.0937 -0.1884 -0.0923
85261W        W28174   9.322  23.446   9.872 -0.2511 -0.2150 -0.1238
85262W        W28175   0.947   0.825   8.460 -0.3349 -0.1909 -0.1120
85263W        W28176  12.556  28.375   5.066  0.1890 -0.0676 -0.2203
85264W        W28177   7.028  26.777   4.886 -0.1614  0.2575  0.0605
85265W        W28178  21.862  26.506   3.929 -0.1711 -0.1675  0.1562
85266W        W28179  11.751  22.220   1.562 -0.2821 -0.0456  0.2461
85267W        W28180   9.555  27.072   0.901  0.1034 -0.2717 -0.0681
85268W        W28181  28.275  28.965  26.733  0.2946  0.1147 -0.0630
85269W        W28182   6.895  28.872   5.689  0.2607  0.0721  0.1813
85270W        W28183  14.640   1.601  10.753 -0.0624 -0.0683 -0.0409
85271W        W28184   7.145  27.014   9.614  0.0705  0.1476  0.2522
85272W        W28185   0.666  31.819   4.185 -0.2215  0.0499 -0.1358
85273W        W28186   0.430  26.485   8.558  0.0806  0.0251  0.1070
85274W        W28187  14.676  26.357  28.681 -0.2855 -0.0255  0.1455
85275W        W28188  14.300  30.735   8.807  0.1929 -0.0560 -0.1263
85276W        W28189   9.598  31.486   6.480  0.0334  0.1745 -0.0241
85277W        W28190  33.874  20.820   6.246  0.0673  0.0291  0.2588
85278W        W28191   1.564  28.637  21.523 -0.1235  0.4375  0.1745
85279W        W28192   6.600  26.551  29.370 -0.0271 -0.0820  0.0105
85280W        W28193  14.165  29.768   7.425  0.3576 -0.0061  0.1797
85281W        W28194  10.803  22.943  22.816 -0.1143 -0.2215  0.0313
85282W        W28195   4.928   1.265   6.951  0.0540 -0.2922 -0.6219
85283W        W28196  10.002  12.371   7.161  0.1167 -0.2035 -0.0607
85284W        W28197   2.142  25.715   8.964 -0.1910 -0.0210 -0.1461
85285W        W28198   7.147   4.391   2.569 -0.1132  0.0187  0.0814
85286W        W28199   9.581   5.775  28.956 -0.1497 -0.1910 -0.2882
85287W        W28200   4.063  29.621  23.777 -0.0555 -0.1174  0.2028
85288W        W28201  11.166  22.274   2.973 -0.0576 -0.1170  0.1482
85289W        W28202   1.171   1.814   1.948  0.3286  0.2368 -0.0320
85290W        W28203  18.372  31.918   7.564  0.1721 -0.0020  0.0090
85291W        W28204  19.730  31.905   8.112  0.1672  0.2278 -0.1923
85292W        W28205  12.480  24.864  29.510  0.0634 -0.2649  0.0332
85293W        W28206  17.013   0.421  27.698  0.1516  0.2486  0.0071
85294W        W28207  14.661  33.896   1.188 -0.1128  0.0538  0.1660
85295W        W28208  34.477   1.607   7.922  0.1465  0.0278  0.1346
85296W        W28209  34.383  31.553  10.793  0.2864 -0.1838 -0.2850
85297W        W28210   3.507  30.954   7.001  0.3961 -0.1194 -0.2166
85298W        W28211   3.392  23.290   9.547  0.0570 -0.0692 -0.1738
85299W        W28212  10.563   1.478   4.313 -0.1507 -0.0531 -0.0607
85300W        W28213   6.909  29.687   7.096 -0.1079 -0.0809 -0.1431
85301W        W28214  20.464  17.210   7.872 -0.2200 -0.0672 -0.1907
85302W        W28215   6.373  22.589   1.633  0.0056  0.0882 -0.2838
85303W        W28216   6.418   2.802   8.093 -0.3815 -0.1676  0.1365
85304W        W28217   6.017  28.737   7.333 -0.2073 -0.1952  0.3779
85305W        W28218  30.585  31.666   2.642 -0.0596 -0.0816 -0.0097
85306W        W28219   7.546  31.909   6.324  0.1375 -0.0473  0.1402
85307W        W28220  12.485  29.686   6.238  0.1289  0.0819  0.0743
85308W        W28221   8.329  10.625   2.850 -0.2076 -0.1651 -0.1510
85309W        W28222   2.593  16.886   8.324  0.1298  0.0493 -0.1601
85310W        W28223   9.444  31.010  10.602 -0.5585 -0.1446 -0.3387
85311W        W28224   4.722  25.357   6.080 -0.2959  0.1470  0.1678
85312W        W28225  31.307  23.164  27.474  0.3845 -0.0475  0.3012
85313W        W28226  19.183  28.808   0.177 -0.0635 -0.1661 -0.5662
85314W        W28227   7.932  26.384   3.776 -0.1513 -0.0095  0.1443
85315W        W28228  10.974  25.999   9.588  0.0206 -0.1582  0.2674
85316W        W28229  11.195  29.443   5.455 -0.1449 -0.1497 -0.0622
85317W        W28230   5.040  28.353   2.137  0.2439 -0.1922  0.1636
85318W        W28231  21.198  26.275   6.773 -0.3223 -0.0565  0.0882
85319W        W28232   2.045  21.619   3.318  0.0956 -0.1549  0.0584
85320W        W28233  15.012  34.372  10.037 -0.1625  0.1531  0.0159
85321W        W28234   7.987   5.432   0.527 -0.0721  0.1726 -0.0473
85322W        W28235   6.394   3.032   7.661  0.1448  0.0486  0.1984
85323W        W28236   6.267  10.623   1.192 -0.1071  0.1916 -0.5646
85324W        W28237   1.774  26.104  10.174  0.1429  0.0700  0.1112
85325W        W28238  18.453  31.232   4.071 -0.1535 -0.1176 -0.1988
85326W        W28239  10.638  33.574   7.313 -0.1221 -0.2428  0.2627
85327W        W28240   8.315   1.743   9.489  0.5694  0.1331 -0.2352
85328W        W28241  12.426   8.012   3.302 -0.2803  0.2524 -0.1753
85329W        W28242  16.539  27.896   9.502  0.0537  0.3294  0.0472
85330W        W28243  13.812  24.171   1.503 -0.3120  0.1154  0.3062
85331W        W28244  11.232  26.813   9.977 -0.1784 -0.2860 -0.3920
85332W        W28245   0.963  32.998   6.490  0.0224  0.3828  0.3609
85333W        W28246   3.016  31.185   9.835 -0.0156  0.1419 -0.2293
85334W        W28247  11.767  27.410   8.319 -0.2266  0.0013 -0.0519
85335W        W28248  16.854  29.002   4.575  0.0854  0.1310  0.0866
85336W        W28249   7.356  27.132  10.569 -0.1631  0.1847  0.6079
85337W        W28250   7.591  26.855   0.066 -0.0801  0.1005 -0.1204
85338W        W28251  30.868   1.840   2.993  0.1304 -0.0896 -0.1445
85339W        W28252  11.135  29.845   9.145 -0.0014  0.0869 -0.1721
85340W        W28253   0.724  23.361   7.560 -0.2735 -0.0100  0.1555
85341W        W28254   8.805  32.495  10.666 -0.1681  0.0854  0.0230
85342W        W28255  18.923  27.119   3.853 -0.0857 -0.0358  0.1091
85343W        W28256  11.975  15.903   5.275  0.1556  0.1480 -0.1766
85344W        W28257  10.618  26.984  24.238  0.0141 -0.0226 -0.1064
85345W        W28258  13.415  24.879   7.966 -0.0497 -0.0068  0.0807
85346W        W28259  14.006   1.876   6.433 -0.1955 -0.0615 -0.0553
85347W        W28260  13.334  18.374  24.439  0.2196  0.1481  0.2208
85348W        W28261   5.718   0.809  11.801 -0.3209  0.0805  0.1042
85349W        W28262  18.058  29.617  27.237 -0.0373 -0.1334 -0.0822
85350W        W28263  12.532  23.169   6.583  0.0289 -0.2355 -0.2821
85351W        W28264   7.085  34.046  10.199 -0.0700  0.0699 -0.4320
85352W        W28265  14.430  32.320   0.907 -0.4029  0.1619  0.1035
85353W        W28266   7.605  30.978  12.298  0.0091 -0.0362 -0.3515
85354W        W28267  10.241  31.500  27.637 -0.2230 -0.3671 -0.3101
85355W        W28268   5.596   6.835   9.907 -0.3690 -0.1959 -0.0185
85356W        W28269  13.331  24.342  10.737 -0.2620 -0.0937  0.1504
85357W        W28270   7.429  32.761   5.708  0.1002  0.2689 -0.1708
85358W        W28271   0.086  30.968   7.805  0.1219 -0.0745 -0.1263
85359W        W28272   5.541   3.092   8.565 -0.2367  0.1204  0.0699
85360W        W28273   4.706  24.692  28.635 -0.0705 -0.1394  0.2417
85361W        W28274   8.614  27.328   3.298  0.1091  0.1935 -0.1890
85362W        W28275   1.298  22.520  20.728 -0.2624 -0.1846 -0.1944
85363W        W28276   1.968  32.772   5.577  0.1249 -0.3325  0.1328
85364W        W28277  12.353  24.527   8.837  0.1318 -0.1736 -0.1962
85365W        W28278   7.487  29.493  26.652 -0.0320  0.0051 -0.1190
85366W        W28279   7.292  27.926  27.455  0.1421  0.4132 -0.0216
85367W        W28280   9.983  30.928  12.883  0.2655 -0.0886 -0.0080
85368W        W28281   2.317  27.108   8.030  0.1417  0.1038 -0.3176
85369W        W28282  16.847  26.899  25.969  0.0349  0.1133  0.1137
85370W        W28283  14.550  20.492   6.059 -0.0463 -0.1699  0.2235
85371W        W28284  27.610  24.465   8.154  0.1643  0.0003  0.0318
85372W        W28285   6.478  34.369  11.249  0.0847  0.0020 -0.1439
85373W        W28286   7.805   4.193  28.324  0.1477  0.0025  0.1338
85374W        W28287  14.321  29.686   4.207 -0.1369 -0.1095 -0.1084
85375W        W28288   6.477  19.953   1.171 -0.0899  0.2115  0.1689
85376W        W28289  18.423  27.712  27.597 -0.3181 -0.3207  0.2357
85377W        W28290   5.685   6.077  13.459 -0.3403 -0.0667  0.3432
85378W        W28291  16.474  33.330   8.434  0.3404  0.1546  0.3471
85379W        W28292   5.610  31.044   6.211  0.1474 -0.1954 -0.2568
85380W        W28293   8.240   1.262   6.243  0.0058  0.1397 -0.0059
85381W        W28294  28.898  33.095   7.409 -0.1037  0.1801  0.1158
85382W        W28295   2.989  20.625  10.053 -0.1865  0.3993  0.0264
85383W        W28296   2.365  21.251   2.543 -0.2017 -0.2271  0.0269
85384W        W28297   1.457   0.907   0.735  0.0694 -0.2271  0.1881
85385W        W28298   6.554  29.322  10.134  0.0194  0.0214  0.0331
85386W        W28299   4.273  28.530   6.105  0.1453  0.0448 -0.2741
85387W        W28300   1.177  32.084   8.479 -0.1538 -0.2043 -0.1936
85388W        W28301  12.679   9.665   6.650  0.0665 -0.1701  0.0468
85389W        W28302   1.173  28.970   5.320  0.2737 -0.1430  0.3581
85390W        W28303   2.714  23.480   6.389 -0.0293 -0.3170 -0.0669
85391W        W28304   1.645  22.377   8.497  0.1263  0.0723 -0.1551
85392W        W28305  17.357  22.800   1.374 -0.2511 -0.0097 -0.2258
85393W        W28306   6.371  30.506   3.884  0.1715 -0.0725 -0.1084
85394W        W28307   7.901  22.798  29.130 -0.0524 -0.1667 -0.0424
85395W        W28308  13.529  29.188   1.772  0.3118 -0.0995  0.0064
85396W        W28309   9.241  24.815   8.546  0.2924  0.0594 -0.2320
85397W        W28310  12.271  14.971   8.073  0.0046 -0.1582  0.3502
85398W        W28311  12.222  20.329   1.496  0.0512 -0.0577  0.0598
85399W        W28312   1.755  29.838   2.455  0.4022  0.2232 -0.0786
85400W        W28313   3.881  29.548   9.033 -0.0505  0.0187  0.0305
85401W        W28314  12.751   4.033  10.190  0.2461  0.0894  0.0313
85402W        W28315  10.770  26.502   9.572  0.0500  0.2050 -0.0721
85403W        W28316  14.794  20.749   1.837 -0.3461 -0.0297 -0.2022
85404W        W28317   7.779  20.455   2.452 -0.0838  0.0622  0.0502
85405W        W28318   7.936   5.532  11.192  0.2995 -0.1867  0.0792
85406W        W28319   8.822  29.611   8.408 -0.0179  0.0275 -0.1979
85407W        W28320   7.633  33.657   8.567 -0.4709  0.0239  0.0315
85408W        W28321   3.669  26.353   7.275  0.0230 -0.2816 -0.1755
85409W        W28322  11.611  24.575  10.063  0.1506  0.3586  0.1100
85410W        W28323  34.482   0.711   8.646  0.0577 -0.1596  0.1727
85411W        W28324  13.468   0.355   5.874  0.0386 -0.1568  0.2616
85412W        W28325  11.425  27.188  10.708  0.2155 -0.1346  0.0931
85413W        W28326   8.566  32.423   8.166 -0.2728 -0.0000 -0.0033
85414W        W28327  11.303  26.049   4.570  0.1473 -0.3377 -0.0095
85415W        W28328  15.732  25.206   4.341  0.0055  0.3497  0.2327
85416W        W28329   0.751  14.837   3.040  0.0018 -0.0223 -0.0071
85417W        W28330   4.205  20.750   4.543  0.0314 -0.0002 -0.2043
85418W        W28331   7.829  28.509  10.480 -0.1738  0.0959  0.3196
85419W        W28332  31.537  27.432   8.467 -0.2709 -0.2920  0.0678
85420W        W28333   4.628  31.964   4.749  0.0532 -0.2095  0.1515
85421W        W28334   6.524  23.829   9.027 -0.2830 -0.1179  0.0111
85422W        W28335  11.769  32.537  27.893 -0.0809 -0.1168  0.2172
85423W        W28336  13.377  28.064   8.757  0.1971 -0.1196  0.2115
85424W        W28337   3.698   6.399   3.930 -0.0279 -0.0294 -0.0914
85425W        W28338   5.944  33.533   4.804  0.0424 -0.1139  0.0172
85426W        W28339  10.576  33.735  28.549 -0.0605 -0.0808  0.0817
85427W        W28340   3.234  34.242  10.282 -0.1666  0.0598  0.2959
85428W        W28341  28.603  23.733   5.959 -0.0755  0.1637 -0.0197
85429W        W28342  10.042  27.038   9.378  0.1286 -0.0724 -0.1901
85430W        W28343   1.705  34.026   5.136  0.1336  0.0590  0.2661
85431W        W28344  11.364  26.010   6.531  0.3040 -0.0497  0.1997
85432W        W28345  12.913   1.417   2.477 -0.1750 -0.0177 -0.1672
85433W        W28346   6.969  34.316  11.348 -0.2865 -0.0506  0.1699
85434W        W28347   4.819  14.901   2.181  0.1593 -0.1991  0.1561
85435W        W28348   0.898  30.958   3.608 -0.0307  0.2066  0.0425
85436W        W28349   8.790  29.443  10.713  0.2773  0.1470  0.2902
85437W        W28350  11.553  25.990   8.122 -0.1087 -0.1018  0.1280
85438W        W28351   8.959  20.086   8.234 -0.0110  0.0423  0.0180
85439W        W28352   7.550  31.875  11.869  0.2281  0.3152  0.1982
85440W        W28353   0.707  26.908   8.634 -0.5052 -0.0034 -0.0870
85441W        W28354  11.840  33.809   9.343  0.0733  0.3137  0.0657
85442W        W28355   7.765  24.838   8.184  0.2692 -0.4265 -0.0016
85443W        W28356  23.272  31.174   8.252 -0.2054  0.0980 -0.0558
85444W        W28357  19.729  24.960   4.734  0.0451 -0.0539 -0.2406
85445W        W28358   6.190  31.297   8.785 -0.0339 -0.0556  0.1764
85446W        W28359   8.761  26.891   7.715  0.3047 -0.0822  0.2859
85447W        W28360  14.100  23.424   2.251  0.1112  0.2518  0.3897
85448W        W28361   2.064  25.072  10.372  0.0880 -0.0183  0.0870
85449W        W28362   6.154  32.533   5.027 -0.0001 -0.1689  0.0410
85450W        W28363   0.536  31.540  28.041  0.1276  0.0872  0.2850
85451W        W28364   0.379  32.692   9.757  0.1036 -0.1541  0.2771
85452W        W28365   7.555  27.270   9.113  0.0079  0.1842  0.0045
85453W        W28366  13.174  29.073   8.907 -0.0154  0.4451 -0.2220
85454W        W28367  13.971  25.307   8.554  0.0727  0.0465  0.1405
85455W        W28368  16.030  33.471   8.889 -0.0512 -0.0879  0.0973
85456W        W28369   5.223  21.720   1.088 -0.2607  0.1026  0.0999
85457W        W28370   8.719  29.929  29.050 -0.0436 -0.0195 -0.3965
85458W        W28371   6.424   0.291   9.250  0.2815  0.0761 -0.1117
85459W        W28372  16.559  30.611   9.885  0.2824 -0.1459  0.0545
85460W        W28373   8.072  26.916   1.468  0.0051  0.0483 -0.1648
85461W        W28374   3.034  31.725   0.493  0.0211  0.2371  0.0578
85462W        W28375   5.837   3.560   6.742 -0.0833 -0.1752 -0.3052
85463W        W28376   7.300  31.981   8.156  0.1783 -0.0582  0.1824
85464W        W28377   4.059  23.526   5.875  0.1283 -0.1416 -0.3372
85465W        W28378  12.170  22.152   4.594 -0.0279 -0.2540 -0.0062
85466W        W28379  11.209  29.481   7.460  0.2243 -0.1076  0.1308
85467W        W28380   5.754  32.427  11.177 -0.0735  0.1393 -0.2312
85468W        W28381  11.421   2.282  29.687 -0.1690 -0.4211 -0.0482
85469W        W28382   3.248  33.719   6.774 -0.0835  0.2251  0.1184
85470W        W28383   5.083  22.144  29.179 -0.0592  0.4914 -0.1390
85471W        W28384   4.214   2.485   4.956 -0.1136 -0.0621  0.0528
85472W        W28385  11.673  30.191   6.291 -0.4199 -0.0358  0.0930
85473W        W28386  13.117  25.543   9.213 -0.2963  0.0382 -0.1236
85474W        W28387   8.169   3.843   9.582 -0.0862 -0.3526  0.1763
85475W        W28388   6.126  21.569   6.364  0.0077 -0.0297 -0.2517
85476W        W28389  13.128  28.230  29.193  0.0617 -0.3014 -0.0606
85477W        W28390   3.771  18.871   3.355  0.2876 -0.3498 -0.0052
85478W        W28391   4.441   1.174   7.041  0.3389 -0.0828  0.1704
85479W        W28392   8.563  25.788   6.758 -0.1195  0.3168  0.1310
85480W        W28393  11.833   3.686   5.662  0.1211  0.0321  0.0704
85481W        W28394  14.308  31.914   8.085  0.1328  0.2385  0.0064
85482W        W28395   7.418   9.037   0.722 -0.3318 -0.1263 -0.2459
85483W        W28396  11.205  21.089   8.966 -0.0345  0.0529 -0.1014
85484W        W28397  33.457  22.637   7.421 -0.3155  0.0217  0.0592
85485W        W28398   6.999  34.196   6.542  0.3261 -0.0990 -0.1671
85486W        W28399  11.619  26.335  28.976 -0.1675  0.1962 -0.0728
85487W        W28400  10.001  31.088   9.095  0.1132 -0.0224  0.2038
85488W        W28401  12.739  18.567  27.493 -0.0153 -0.0907  0.0837
85489W        W28402  33.660  25.717   5.881  0.3073  0.0193  0.0316
85490W        W28403  13.058  22.228   5.281 -0.1967  0.0802 -0.2224
85491W        W28404   5.614   7.035   8.850  0.0996 -0.4081 -0.3647
85492W        W28405   0.730  29.376   3.613  0.1961  0.0911  0.1507
85493W        W28406  30.098  30.434   9.835 -0.0228 -0.0537  0.2560
85494W        W28407   3.803  26.009   3.995  0.0003 -0.0739 -0.3784
85495W        W28408  15.827  24.403   7.038  0.0727  0.0767 -0.2686
85496W        W28409   6.198  28.561   1.168 -0.3404  0.4436 -0.0197
85497W        W28410  17.167  22.561   6.622 -0.0241  0.0701 -0.0174
85498W        W28411  10.541  27.785   2.872  0.2377 -0.1363 -0.1217
85499W        W28412   0.617   2.805   5.331  0.2988 -0.1094 -0.2647
85500W        W28413  11.187  16.609   3.760  0.0410  0.0616  0.1012
85501W        W28414   4.961  22.746   0.208  0.1118  0.0774 -0.0528
85502W        W28415  15.629  30.227   6.808 -0.1445  0.1405 -0.2397
85503W        W28416  11.464  19.432   7.107  0.0720  0.1459  0.0552
85504W        W28417   2.687   2.258  10.360  0.2330  0.0592  0.0947
85505W        W28418   7.963  29.502  11.373  0.1295 -0.1364  0.0033
85506W        W28419  11.286  26.584   7.591  0.0746 -0.0917 -0.0533
85507W        W28420  13.485  20.153  29.712 -0.1500  0.3580  0.1043
85508W        W28421  10.921  24.739   8.117  0.1548 -0.2053 -0.0259
85509W        W28422   4.625  29.569  11.147  0.2096  0.0299  0.2436
85510W        W28423   8.722  26.682   6.831  0.2723 -0.1605  0.0393
85511W        W28424  25.296  19.477   6.817  0.2057  0.0278  0.0927
85512W        W28425  20.997  30.737   6.816 -0.0979 -0.0409  0.2397
85513W        W28426  10.170  30.168   9.253 -0.0032  0.4635 -0.2290
85514W        W28427   7.773  32.719   0.150  0.4943  0.0873 -0.0261
85515W        W28428   2.967   2.272   9.913  0.1049  0.1530  0.0592
85516W        W28429  15.000   1.393  11.020  0.1295 -0.0947 -0.1061
85517W        W28430  10.172  28.797   2.537  0.1268 -0.0578  0.0046
85518W        W28431  20.497  20.495  27.288  0.1087  0.1369 -0.1810
85519W        W28432   3.323  26.285   1.174  0.0154  0.0138  0.2749
85520W        W28433  14.808   8.499   6.078  0.1047 -0.0365 -0.2248
85521W        W28434   6.351   4.170  11.678 -0.1848  0.0173  0.0317
85522W        W28435   7.278  29.330   7.394  0.0694 -0.4368 -0.1289
85523W        W28436   6.820  28.689  10.862 -0.2474  0.0779 -0.0049
85524W        W28437  16.681  30.707   6.274  0.0724 -0.0022 -0.0091
85525W        W28438   7.585  24.900   8.634  0.0943 -0.1352 -0.2477
85526W        W28439  29.504  15.720   4.039  0.3809 -0.1616 -0.1483
85527W        W28440   6.523  27.082   9.021 -0.1248 -0.1677 -0.5669
85528W        W28441  19.829  22.198   5.546 -0.2091 -0.0461 -0.0438
85529W        W28442  16.406  27.212   9.761  0.0784  0.0899  0.1177
85530W        W28443   3.886  31.081   0.129 -0.1571  0.0527  0.0208
85531W        W28444   7.542   1.883  13.483 -0.1049  0.1973 -0.0357
85532W        W28445   9.504  32.981  12.831 -0.1162  0.2275  0.2841
85533W        W28446   4.113  34.232   8.629  0.0701  0.2227  0.2092
85534W        W28447  15.109  25.490   1.858  0.2815 -0.3252  0.2941
85535W        W28448   9.828  25.457  29.494  0.0156 -0.3146  0.2360
85536W        W28449  10.714   0.664  11.955 -0.0936  0.1608 -0.2051
85537W        W28450  12.026  24.445   9.199 -0.1801 -0.1745 -0.0643
85538W        W28451  30.149  30.089   5.276  0.2703 -0.0742  0.1414
85539W        W28452  13.408  23.538   1.409 -0.0500  0.1269  0.1822
85540W        W28453   7.872  23.234   1.454 -0.1361  0.1210 -0.3097
85541W        W28454  21.478  32.532   7.427 -0.0105  0.2465  0.1812
85542W        W28455  33.632   3.797   0.423 -0.0911  0.1699 -0.0599
85543W        W28456   2.605  24.483   0.078 -0.2008 -0.2451  0.0751
85544W        W28457  16.602  31.757   8.504  0.0927 -0.2676  0.0590
85545W        W28458   1.817  28.817   9.696  0.3379  0.2182 -0.1609
85546W        W28459   3.325   4.108   6.530 -0.3244  0.0991  0.0535
85547W        W28460   4.582  28.304   8.371  0.1077 -0.2092  0.1534
85548W        W28461   8.368  27.920   7.360 -0.2461 -0.1060 -0.1797
85549W        W28462   5.465  17.562   7.072  0.1348 -0.2956  0.2638
85550W        W28463   6.423  22.481   4.388  0.1538  0.2192 -0.1398
85551W        W28464   6.084  20.776   6.919 -0.2881 -0.2751 -0.1149
85552W        W28465   7.549  29.175   9.687  0.0093  0.0122  0.1985
85553W        W28466   8.340  33.003   7.322  0.0323 -0.0002 -0.0633
85554W        W28467  33.912  27.256   9.479  0.1495 -0.1534  0.0161
85555W        W28468  11.006  29.549   6.474  0.1360 -0.3772  0.1210
85556W        W28469  22.745  20.658   4.220 -0.4207 -0.1817 -0.4452
85557W        W28470  10.207  24.015   8.596  0.1663 -0.1972  0.0409
85558W        W28471  10.330  20.691   4.550  0.1201  0.0052 -0.0726
85559W        W28472   7.445  16.652   1.413 -0.0750  0.2341 -0.0213
85560W        W28473  10.142  30.652   2.114 -0.3455 -0.0242 -0.0703
85561W        W28474   9.547  26.678   8.160  0.1111 -0.0635  0.0795
85562W        W28475   5.073  30.485   5.498 -0.1820  0.1746  0.0144
85563W        W28476  12.242  17.959   3.265 -0.1219  0.0635 -0.0405
85564W        W28477  18.228   7.217   3.262  0.1159 -0.1310  0.3064
85565W        W28478   4.496   1.707   7.163  0.0191  0.1321 -0.0211
85566W        W28479   9.249  19.566   6.931 -0.2984 -0.3694  0.0056
85567W        W28480  31.390   2.218   3.703 -0.0392  0.1662 -0.1079
85568W        W28481  27.725  30.390   1.549  0.3454 -0.0995 -0.0184
85569W        W28482   5.042   8.509  10.441 -0.0721  0.0747  0.1427
85570W        W28483  11.302  31.586  10.626  0.3034  0.0275 -0.0631
85571W        W28484  31.586  30.575   3.411  0.2473  0.1326  0.3861
85572W        W28485  15.670  30.148   9.800  0.0434 -0.0196  0.1616
85573W        W28486  10.603  32.086   4.879  0.2682  0.0704  0.1114
85574W        W28487   8.984  28.075  12.119 -0.4907 -0.0428  0.0434
85575W        W28488  33.754  19.459   1.254  0.2001 -0.3236  0.1626
85576W        W28489  21.237  18.607   7.236  0.1188 -0.1664  0.2344
85577W        W28490  15.886  16.230  26.992  0.1609 -0.2120  0.1816
85578W        W28491   3.465  29.433  10.385  0.0296 -0.0655 -0.1721
85579W        W28492   7.844  28.714   5.475  0.1238 -0.0473 -0.2606
85580W        W28493  14.670  29.224   9.617 -0.0636  0.2578 -0.1169
85581W        W28494   8.067  32.974  11.415  0.1386  0.2787 -0.0202
85582W        W28495   3.438  24.445   1.869 -0.0420  0.0462 -0.0388
85583W        W28496  20.516   2.866   8.500 -0.0807  0.1992  0.0389
85584W        W28497  11.460  21.050   6.825 -0.0933  0.2080  0.0205
85585W        W28498   9.771  33.168   4.759  0.2933 -0.1774 -0.2500
85586W        W28499  15.481  20.105  27.511 -0.0246 -0.0235 -0.3398
85587W        W28500   6.124   9.140  11.683  0.1545 -0.0119 -0.1657
85588W        W28501  19.371  33.565  22.072  0.5047  0.0787  0.0346
85589W        W28502  15.501  28.526   7.091 -0.1968 -0.1600  0.1334
85590W        W28503  20.220   5.537  25.349  0.3483 -0.1910 -0.0406
85591W        W28504  25.368  19.071   4.913  0.1623 -0.3044 -0.0503
85592W        W28505  14.491  32.758   8.093 -0.0401 -0.3763 -0.0814
85593W        W28506  11.268  25.497   5.409  0.0285  0.1350  0.0511
85594W        W28507   1.013  27.756   5.087  0.0830  0.1908  0.0246
85595W        W28508   7.546  31.527   1.468  0.0594 -0.3162  0.4949
85596W        W28509   1.492  21.912  10.289  0.0255 -0.1388  0.0069
85597W        W28510  10.515  31.880   7.982  0.2156  0.1078 -0.1370
85598W        W28511   5.335  27.847  10.160 -0.2372 -0.0732 -0.1169
85599W        W28512   3.386  24.055   9.073  0.1364 -0.2687  0.2362
85600W        W28513  10.150  24.692   7.887  0.1246  0.1607  0.1002
85601W        W28514  10.210  30.736  12.020 -0.0895 -0.0550  0.1845
85602W        W28515   8.865  27.034  11.508 -0.1389  0.0222 -0.1593
85603W        W28516   1.176   3.178   3.302  0.2291 -0.0490 -0.1757
85604W        W28517   2.785  18.335   4.586 -0.0851  0.0866 -0.2304
85605W        W28518  16.293  17.076   2.751  0.0233 -0.1453  0.1036
85606W        W28519   7.543  19.218   8.946  0.1824  0.1462 -0.3100
85607W        W28520   7.806   3.823  25.533 -0.3465 -0.1106 -0.1089
85608W        W28521   9.514   6.010  27.137  0.4786  0.3107 -0.0106
85609W        W28522   4.506  11.889   1.494 -0.0208 -0.0432 -0.0019
85610W        W28523   1.974   5.895   7.318  0.1479 -0.2939 -0.1590
85611W        W28524  11.108   5.027  26.053  0.1156  0.1567 -0.1044
85612W        W28525  11.556  25.063  27.300  0.1185 -0.0359  0.0849
85613W        W28526   8.809  33.196   3.859 -0.0325  0.2065  0.2499
85614W        W28527   6.222  30.549  25.668 -0.0150  0.1142 -0.0093
85615W        W28528  15.945   8.176  26.743  0.3058 -0.0319 -0.2646
85616W        W28529  13.260  30.864   0.351  0.4156  0.2525 -0.0640
85617W        W28530  11.834   2.397   2.979  0.2370 -0.1674  0.0861
85618W        W28531  16.419  22.102   4.490  0.3611  0.1440 -0.0792
85619W        W28532  11.792  25.494  27.093 -0.0230  0.0206 -0.0430
85620W        W28533   3.425  27.280   5.060 -0.0536  0.0416  0.0432
85621W        W28534   4.035  30.222   4.261  0.0924 -0.1613 -0.0420
85622W        W28535   7.611   1.640   7.701  0.1637  0.0114 -0.2147
85623W        W28536  14.799  26.842   3.613  0.0721 -0.1186  0.0534
85624W        W28537   8.348  33.447   8.814 -0.1156  0.0495 -0.0301
85625W        W28538   3.085  26.678  29.664 -0.4369 -0.0313  0.0369
85626W        W28539  12.970  25.006  27.304 -0.0070 -0.2586  0.2917
85627W        W28540  24.792  23.683  27.790  0.0146 -0.1443 -0.0859
85628W        W28541  15.302  22.021  20.514  0.0190 -0.0378 -0.0744
85629W        W28542   8.983  33.391   6.143  0.1779 -0.2611 -0.3307
85630W        W28543   4.279   7.071   5.334 -0.3107  0.2224  0.3795
85631W        W28544  13.913  28.352  26.058 -0.1655 -0.2792 -0.0549
85632W        W28545   9.655  27.196   4.834  0.2963  0.0699  0.0355
85633W        W28546   6.542  24.370   9.919 -0.1021  0.0990 -0.0508
85634W        W28547   7.237   5.153   4.718 -0.0240  0.1284  0.1567
85635W        W28548   5.523   0.224  28.293  0.1959  0.0409 -0.1693
85636W        W28549  13.776   8.657   1.727 -0.0320 -0.1805  0.0235
85637W        W28550  27.942  25.007  21.158  0.1744  0.1750 -0.0419
85638W        W28551  14.913  32.532   8.397 -0.1596  0.2042  0.0709
85639W        W28552  10.530  17.697  28.971 -0.1212 -0.3075 -0.3462
85640W        W28553   8.847  30.573   5.107 -0.1009  0.1077 -0.0078
85641W        W28554  13.702  32.664   1.859 -0.2846  0.0263  0.1115
85642W        W28555  15.190   2.328   6.851 -0.0600  0.0591  0.3641
85643W        W28556   5.390   1.733  24.380  0.0634  0.2042  0.2757
85644W        W28557  32.448  23.750   7.184 -0.1367  0.0073  0.1548
85645W        W28558  11.078  26.533   0.351  0.3741  0.2170  0.0888
85646W        W28559   6.353   0.628   0.093  0.0331 -0.0402  0.2238
85647W        W28560   9.276  29.727   5.364  0.0678  0.1865  0.1357
85648W        W28561   8.056   1.447  13.089  0.4603 -0.0736 -0.1289
85649W        W28562  17.212  27.851   1.962  0.1982 -0.1872 -0.0157
85650W        W28563  12.306  19.507  20.855 -0.0850  0.0542 -0.1578
85651W        W28564   6.694  19.151   2.904  0.0060 -0.1378 -0.2717
85652W        W28565  12.246   5.626  21.297  0.0434  0.5079  0.0428
85653W        W28566  21.774  33.386   6.618  0.0560  0.1939 -0.3209
85654W        W28567  26.156   7.745   4.068 -0.1495 -0.0383 -0.2475
85655W        W28568  13.629  20.550   1.310  0.0124 -0.1031 -0.2640
85656W        W28569  14.488  26.381   0.477 -0.1064  0.1782  0.0194
85657W        W28570   6.791  25.525  19.575 -0.1013 -0.0179 -0.1077
85658W        W28571   4.997   6.361   5.469 -0.0206 -0.0377  0.3339
85659W        W28572  16.563  31.528  10.352 -0.1166 -0.1979 -0.0079
85660W        W28573  30.523  18.467  24.588  0.1576  0.3363  0.2236
85661W        W28574   8.097  33.814   6.406  0.0904  0.0144  0.2473
85662W        W28575  13.316   0.148   3.414 -0.1919  0.0090 -0.0018
85663W        W28576   6.454  22.451  28.653  0.3040 -0.0969  0.0908
85664W        W28577  13.088  26.097   6.770 -0.0183  0.2815  0.1511
85665W        W28578   0.303   0.631   4.625  0.2001  0.0258 -0.0473
85666W        W28579   6.289  24.222   5.920  0.5237 -0.0770 -0.1210
85667W        W28580  11.175   5.246   0.582  0.0805  0.1325 -0.4725
85668W        W28581  26.319  11.742  29.372 -0.0732 -0.1932  0.1138
85669W        W28582   1.799  33.103   1.938 -0.1173 -0.0730 -0.4106
85670W        W28583   9.236   6.298  29.108  0.0142  0.0336 -0.1176
85671W        W28584   6.666   0.603   4.816  0.2539  0.0577 -0.1566
85672W        W28585  33.799  24.268  28.672 -0.0287 -0.2189 -0.0446
85673W        W28586  12.399  32.686   7.821 -0.0636 -0.3175 -0.0474
85674W        W28587  15.283   4.835   0.412  0.1904 -0.2992 -0.1642
85675W        W28588   6.906  20.187   2.869 -0.0860  0.0934 -0.0661
85676W        W28589  13.246  32.024  11.456 -0.0229  0.2112  0.2319
85677W        W28590   2.117  32.192  28.889 -0.4169  0.1231 -0.3315
85678W        W28591  22.556   8.903  25.428  0.0613  0.1761  0.1278
85679W        W28592  17.408  17.055  29.039  0.1464 -0.1612 -0.3358
85680W        W28593   7.431  32.910  28.479  0.0620 -0.1498 -0.0738
85681W        W28594   9.453  32.589   1.055  0.4052 -0.1426 -0.3201
85682W        W28595   8.132  28.454   8.263  0.1880 -0.1076  0.3085
85683W        W28596  27.661  23.480   0.371 -0.0502 -0.1194 -0.0470
85684W        W28597  12.719  31.930  25.997  0.3136 -0.0872 -0.0936
85685W        W28598   6.927  27.224   1.646 -0.0337  0.0184 -0.3141
85686W        W28599  32.845  32.129  29.077 -0.3000  0.1059 -0.0927
85687W        W28600   8.539  33.666   5.945 -0.0299  0.2611 -0.2027
85688W        W28601  15.581  26.188   5.078  0.0434 -0.0637 -0.0815
85689W        W28602   4.123  12.277   3.825 -0.1753  0.0499  0.3368
85690W        W28603  27.498  28.168   1.918 -0.0726  0.3183 -0.1032
85691W        W28604   9.644   0.796  26.053  0.2579 -0.1033 -0.1895
85692W        W28605  31.902  33.100   2.667  0.0991 -0.0590 -0.0256
85693W        W28606  13.538  26.335   8.288 -0.0366  0.0098  0.0173
85694W        W28607   1.224  29.179   1.354  0.0523  0.1753 -0.1487
85695W        W28608  13.198  23.851  25.144  0.2260 -0.1559  0.0641
85696W        W28609   1.827  29.438  21.562  0.0858 -0.4844 -0.1203
85697W        W28610  10.934  30.855   6.148  0.2713 -0.0912  0.2279
85698W        W28611  14.209  29.131   7.346 -0.0424  0.0010  0.3076
85699W        W28612   5.775  25.636   4.110  0.1361 -0.2710  0.1067
85700W        W28613   3.605  32.222   2.237 -0.0953 -0.1600 -0.1776
85701W        W28614   7.275  27.701   2.524  0.1093  0.1336  0.3130
85702W        W28615  16.302  25.524   4.746  0.4193 -0.0687 -0.0751
85703W        W28616  18.431   1.558  25.150 -0.2521 -0.0702  0.0382
85704W        W28617   0.336  30.057   5.025  0.1274 -0.0396 -0.0630
85705W        W28618  30.439  32.114  26.729 -0.1463  0.0287 -0.1685
85706W        W28619   6.501   5.199  10.224  0.2870 -0.1836 -0.3843
85707W        W28620   7.269  29.866  25.087  0.3077  0.2628 -0.5562
85708W        W28621   0.381   3.849   4.482  0.0304 -0.0474 -0.1193
85709W        W28622  26.426  25.595  23.771 -0.0995  0.1068  0.0091
85710W        W28623  13.371   2.469  25.167 -0.1264 -0.0799  0.0209
85711W        W28624   6.619   6.308   3.827  0.0610 -0.1180  0.0105
85712W        W28625   9.165  30.046   3.847  0.2614  0.1527  0.0409
85713W        W28626   4.198  27.518   5.139  0.1308  0.0380  0.1635
85714W        W28627  13.392   4.107   3.925 -0.0246 -0.0007  0.0644
85715W        W28628  33.318  26.168   3.458 -0.0840 -0.1283  0.0913
85716W        W28629  10.015  33.126   5.212 -0.0293  0.4876 -0.3021
85717W        W28630  13.329   4.377   8.261 -0.0114  0.2540  0.2324
85718W        W28631  27.212  29.046   3.611 -0.1953  0.3863  0.0769
85719W        W28632   1.789   6.521  24.598  0.0184 -0.0706 -0.4600
85720W        W28633   3.359  25.066   1.703  0.0392  0.0573 -0.1404
85721W        W28634  16.302  31.121  20.059 -0.2566  0.4041  0.2449
85722W        W28635  10.577   3.276   1.232  0.0124 -0.1623 -0.1848
85723W        W28636   3.016  26.677  25.105  0.2374  0.2686 -0.2026
85724W        W28637   0.171   2.029   4.966 -0.1972  0.0359 -0.1547
85725W        W28638  12.040  27.639   9.880  0.2496  0.1440  0.1147
85726W        W28639  15.139   6.118  28.295  0.1516  0.0280 -0.1173
85727W        W28640  18.907   0.738  26.250 -0.2764 -0.1953 -0.1215
85728W        W28641   7.759  29.809   0.993 -0.2087 -0.0234 -0.1805
85729W        W28642  24.168  33.781  17.920 -0.0855 -0.0896 -0.0473
85730W        W28643  18.029  27.729   6.665  0.1249 -0.1310  0.3055
85731W        W28644  12.506  22.032  29.080  0.0632 -0.2653  0.1338
85732W        W28645  17.113  17.208  26.590 -0.2137  0.1688 -0.2517
85733W        W28646   3.531  25.452   3.209 -0.1581  0.5339  0.2133
85734W        W28647  14.148  21.504   3.619 -0.3644 -0.1862  0.2734
85735W        W28648  34.420  25.772   9.689 -0.1316 -0.1192  0.0402
85736W        W28649   3.424   1.217  29.655  0.0189 -0.3330  0.0990
85737W        W28650  34.003  26.468   2.805 -0.3171  0.3310 -0.0788
85738W        W28651  12.563  27.512  11.620 -0.2163  0.2653 -0.0206
85739W        W28652   1.537   0.366  28.646  0.2577 -0.1084 -0.2517
85740W        W28653  11.987  17.587  25.155 -0.0920 -0.0131 -0.1000
85741W        W28654   4.192  34.365   2.292 -0.1533  0.1879  0.1041
85742W        W28655   9.681  26.513  24.321 -0.1714 -0.0745 -0.1668
85743W        W28656   3.263   0.051  24.676 -0.3329  0.0800  0.1352
85744W        W28657   4.816  29.357  29.560 -0.0922 -0.0268  0.1577
85745W        W28658  10.075   3.395   7.063 -0.0781 -0.0551 -0.1435
85746W        W28659   8.922   3.122   0.648 -0.0196 -0.0973 -0.1470
85747W        W28660   5.593  20.085  26.998  0.2008 -0.1399 -0.4217
85748W        W28661   1.539  32.298   4.887  0.0407  0.1163  0.1501
85749W        W28662  18.157   1.003   0.020 -0.3245  0.1180  0.0198
85750W        W28663  19.094  18.663  23.471 -0.1747 -0.2034  0.1798
85751W        W28664   2.721  29.251  10.139  0.0096  0.1079 -0.0318
85752W        W28665  13.847  19.664  28.667 -0.0517  0.0541 -0.2527
85753W        W28666   7.615  21.755   5.846  0.0889 -0.2726 -0.0127
85754W        W28667   3.914  33.692   7.199 -0.1838 -0.1885  0.0080
85755W        W28668   1.701  11.208   4.220  0.3409 -0.1498 -0.2153
85756W        W28669   8.762  27.759  10.925  0.0026 -0.0448  0.0029
85757W        W28670  11.052  23.965  25.026 -0.1347  0.0923 -0.1584
85758W        W28671   7.249   3.573   7.020 -0.0669  0.0656 -0.2346
85759W        W28672   4.217  30.476  27.412  0.0915 -0.0115 -0.0680
85760W        W28673   5.589  28.509   3.262  0.1963 -0.0112 -0.0613
85761W        W28674   9.228  27.533  23.584  0.1938 -0.1738  0.2207
85762W        W28675   6.818  27.965   3.331  0.1389 -0.0342 -0.3298
85763W        W28676   8.860   7.201   8.186 -0.1337  0.0640 -0.0173
85764W        W28677  16.111   9.599   5.965 -0.2115  0.1541  0.1655
85765W        W28678   4.800  26.618   0.245  0.2178 -0.0447 -0.0504
85766W        W28679   8.673   5.184  29.680  0.1480 -0.1951  0.1392
85767W        W28680   2.236  23.553   3.355  0.0713 -0.2291 -0.2287
85768W        W28681   9.574  29.868   8.037 -0.1382 -0.1141 -0.0972
85769W        W28682  12.058  29.866   7.103 -0.2432 -0.3481  0.2353
85770W        W28683  30.616  26.971  26.058 -0.1970 -0.0813  0.2090
85771W        W28684  13.087  28.603  28.857 -0.0123  0.0612  0.0024
85772W        W28685  26.758  29.998   8.840 -0.0766  0.1452 -0.0993
85773W        W28686   6.095  16.249   5.059 -0.1011  0.4453  0.0957
85774W        W28687   0.572   0.065  29.362 -0.0482  0.0612  0.0864
85775W        W28688   3.199   4.338  27.564  0.0360  0.2341 -0.1337
85776W        W28689   9.044   4.803   1.134 -0.0836 -0.0544 -0.4524
85777W        W28690   7.015  27.528   2.991 -0.0453 -0.0852  0.0174
85778W        W28691   8.967  28.176  24.776 -0.0708  0.0863 -0.2210
85779W        W28692   7.574   0.390   1.760  0.2349 -0.0022  0.1990
85780W        W28693  31.697  32.323   1.717 -0.1150 -0.1084  0.0906
85781W        W28694  32.731  20.283  27.037 -0.0638  0.0712  0.1457
85782W        W28695   4.391  29.846  29.292 -0.0650  0.1616 -0.2259
85783W        W28696   8.032  32.303   4.194 -0.0955 -0.1582  0.0908
85784W        W28697   9.161  21.854  24.908 -0.0046  0.0333 -0.2014
85785W        W28698   5.703  28.011   3.539  0.1234 -0.0230  0.2431
85786W        W28699   9.699   1.698   4.088 -0.0134 -0.0808  0.2179
85787W        W28700   8.878   6.151   3.547 -0.2052  0.1654  0.1763
85788W        W28701  13.078  24.470  23.857 -0.0801 -0.0341 -0.0651
85789W        W28702  20.007  16.474  15.325  0.1453 -0.1696 -0.1348
85790W        W28703   5.747  30.279   4.897  0.1774 -0.0153 -0.2687
85791W        W28704   0.748  29.081   9.353  0.2140 -0.2157 -0.1250
85792W        W28705   6.559  34.071  11.619 -0.2245 -0.2400  0.1633
85793W        W28706   1.444  25.127  10.931  0.2400 -0.1561 -0.0374
85794W        W28707  19.595  27.760   6.175  0.1524  0.0933  0.1044
85795W        W28708  12.073   0.637   6.686 -0.2401 -0.0961 -0.1895
85796W        W28709  11.186  31.855   8.619 -0.1159  0.0162  0.0169
85797W        W28710   8.346  23.325   8.539  0.4118  0.0087 -0.0146
85798W        W28711  29.034  33.852  26.602 -0.3060 -0.0436 -0.1747
85799W        W28712   9.848  32.602   2.392 -0.0440 -0.1704 -0.0011
85800W        W28713   8.841  33.591   3.065  0.0863  0.1011 -0.1794
85801W        W28714  12.561  31.559  27.384  0.1116  0.1324  0.2039
85802W        W28715  14.019  18.446  28.099 -0.0111  0.0463 -0.4718
85803W        W28716   4.916  24.781  26.574  0.2949 -0.1232 -0.3112
85804W        W28717   0.428  30.408   9.371  0.0381 -0.1278 -0.0715
85805W        W28718   9.315  23.318  19.126  0.1835 -0.1793  0.0393
85806W        W28719   4.070   4.172  27.130 -0.2426  0.0297  0.1477
85807W        W28720   4.213   4.560  11.977 -0.3284  0.1284 -0.2207
85808W        W28721  10.861  27.825   2.457 -0.2592  0.0516 -0.3269
85809W        W28722  27.562   0.988   2.963  0.2913  0.3972  0.0154
85810W        W28723   7.530  29.001   1.419 -0.1131  0.4602 -0.0476
85811W        W28724   9.062   0.007   8.778 -0.0235  0.3152  0.1213
85812W        W28725   7.508  32.945  17.274 -0.0520 -0.1224 -0.1471
85813W        W28726   8.799  33.182  20.130  0.1563 -0.2668 -0.2189
85814W        W28727  12.710  22.916  29.324  0.2519 -0.0530 -0.0501
85815W        W28728  11.032   3.470   5.076 -0.1063 -0.1195 -0.1086
85816W        W28729   8.281   0.035   3.379  0.2338  0.0192 -0.2292
85817W        W28730  15.478  29.482  29.137  0.0002  0.0312  0.0817
85818W        W28731   2.525  24.174  25.672 -0.1669 -0.1264  0.0503
85819W        W28732  24.729   0.980  19.599 -0.0011  0.2693  0.0097
85820W        W28733  31.223   5.553   3.831  0.4699 -0.3687 -0.2126
85821W        W28734   3.712   1.586  28.732 -0.2904 -0.1557  0.1763
85822W        W28735  17.847  22.082  21.919 -0.0062 -0.0406 -0.1897
85823W        W28736  14.898  30.589   9.571  0.0697  0.0965 -0.0455
85824W        W28737  10.033  25.113  29.059 -0.2522 -0.0330  0.0993
85825W        W28738   1.012  29.809   3.655  0.0144 -0.0609  0.1440
85826W        W28739   0.175  20.297  29.344  0.2104  0.2146 -0.2387
85827W        W28740   1.996   2.497  11.953  0.0583  0.6002  0.0042
85828W        W28741  11.167  25.744   8.515 -0.1456  0.0652  0.1414
85829W        W28742  20.307  25.138   0.025  0.1320  0.0045  0.0601
85830W        W28743  12.722   2.801   3.262  0.2155  0.3304 -0.1561
85831W        W28744  11.192  19.618   2.327  0.1583  0.2556  0.1046
85832W        W28745   6.531   5.236  29.456 -0.0102 -0.0961 -0.0287
85833W        W28746   6.561  25.425  25.483  0.0889 -0.1345  0.3759
85834W        W28747   9.545  32.939  11.849  0.0318  0.0600  0.0033
85835W        W28748   7.525  31.127   1.817 -0.1531  0.0095  0.0119
85836W        W28749   2.925  25.784  20.428  0.1391  0.2680 -0.0895
85837W        W28750   9.831   9.027  28.410  0.2990 -0.0760 -0.1333
85838W        W28751   5.638  34.491  10.994 -0.4403  0.1096 -0.0319
85839W        W28752   8.023  30.720   4.516 -0.0578  0.1729  0.0112
85840W        W28753   5.199  31.444   1.898 -0.1315  0.0834 -0.1572
85841W        W28754   9.617  25.197   3.050  0.0848 -0.0206 -0.0182
85842W        W28755   2.598   7.004  27.289 -0.1700  0.1343 -0.3159
85843W        W28756   7.866  31.768   0.741  0.1727  0.0146 -0.0980
85844W        W28757   6.432   2.348  26.686  0.0898 -0.1998  0.0807
85845W        W28758   8.127  34.211  27.290  0.0296  0.1798  0.1856
85846W        W28759   5.366  17.191   3.034  0.2403 -0.3678  0.0006
85847W        W28760   6.596  20.442   0.845 -0.3383  0.0039 -0.2902
85848W        W28761   5.605  28.377   2.078 -0.1474 -0.0499 -0.1997
85849W        W28762   5.158   1.404   1.244 -0.0604 -0.1161  0.0915
85850W        W28763  14.173  22.439  26.231  0.0170 -0.1920 -0.1649
85851W        W28764   8.841   0.659   4.285 -0.0228  0.0181  0.0860
85852W        W28765  20.074  32.838   5.140 -0.0584 -0.0105 -0.0642
85853W        W28766   7.730  11.601   7.032  0.0614  0.2076  0.2860
85854W        W28767  34.463  11.741   2.028  0.0728  0.1108  0.0542
85855W        W28768  10.488   1.731  10.711 -0.2254 -0.1591 -0.0309
85856W        W28769   6.675   8.485   5.128  0.0063  0.3240  0.3577
85857W        W28770  21.040   1.272   5.545 -0.1517 -0.1888 -0.1000
85858W        W28771  28.564   2.034   2.519 -0.0010  0.1512  0.1823
85859W        W28772  31.734  30.142  17.569  0.1223  0.0263  0.1277
85860W        W28773   3.619   3.873   3.476  0.3151  0.0752 -0.2062
85861W        W28774  15.061  22.749  26.916  0.1913  0.0003  0.0131
85862W        W28775  15.346  25.964   0.170  0.4166 -0.2377 -0.1781
85863W        W28776   8.105  33.079  10.282 -0.0547  0.0858  0.1359
85864W        W28777   8.317   1.765   2.254  0.2089  0.0664 -0.1821
85865W        W28778   9.437  34.296   2.813 -0.1726  0.3499 -0.0110
85866W        W28779  14.500  34.237  26.132  0.0246 -0.0347  0.0044
85867W        W28780   9.110  20.371   7.305 -0.1731 -0.1782 -0.0724
85868W        W28781   9.574  20.760  29.149  0.3343 -0.0337 -0.2033
85869W        W28782   2.790  20.259   3.480  0.0329  0.1602  0.0324
85870W        W28783   9.665   3.508  12.112  0.0048 -0.0044  0.2094
85871W        W28784  33.736  30.109  28.667  0.1058  0.2405 -0.0585
85872W        W28785  14.038  23.101   6.464  0.2971  0.0192  0.0295
85873W        W28786   6.787  16.976   0.331 -0.1656  0.2510  0.2303
85874W        W28787  19.807   3.907   4.734 -0.3396  0.1401 -0.1699
85875W        W28788  20.218  22.283   8.554  0.0303 -0.2251 -0.2499
85876W        W28789  12.536   3.331   8.469  0.1493 -0.0236  0.0464
85877W        W28790   9.212  21.596   6.998  0.0433  0.0950 -0.0560
85878W        W28791   4.083  24.505  27.904 -0.2480 -0.1022  0.2509
85879W        W28792  17.981  33.526   5.021 -0.0717 -0.0499 -0.1477
85880W        W28793   8.196  30.228  27.181 -0.1985  0.1050 -0.0116
85881W        W28794  21.648  24.035   1.914 -0.2506 -0.2334 -0.1473
85882W        W28795   6.207   2.201  13.659  0.1199 -0.2285  0.1604
85883W        W28796  19.290  25.783  28.684  0.2342  0.0746  0.2020
85884W        W28797  10.235  27.167  10.044 -0.3678  0.0139  0.2902
85885W        W28798  12.957  26.192  26.853 -0.1465 -0.0016 -0.2548
85886W        W28799  18.601   8.464   2.037 -0.0347  0.0823  0.0262
85887W        W28800   1.552   5.025  29.070  0.2486  0.0395 -0.1428
85888W        W28801  16.571  23.889   4.963 -0.0876  0.0346  0.2849
85889W        W28802  10.357   2.083   2.627  0.0192  0.0173  0.0685
85890W        W28803  29.256   5.895   9.527  0.4988  0.1287 -0.1121
85891W        W28804   8.242  33.665   5.314  0.0478  0.2299 -0.0625
85892W        W28805   0.845  26.053  24.035  0.0386 -0.0052  0.1758
85893W        W28806  12.980  29.190   3.985  0.0776  0.2631 -0.0578
85894W        W28807   7.669  27.598  25.275  0.0508  0.0347  0.1488
85895W        W28808   5.051  28.893  27.588  0.2480  0.1321  0.0486
85896W        W28809  10.976  24.982   3.256  0.2064  0.1093  0.2817
85897W        W28810   4.215  28.943   3.225  0.0703 -0.1335 -0.1984
85898W        W28811  12.613  24.672   3.094 -0.0237  0.1920  0.1054
85899W        W28812  11.195  31.011   3.050 -0.0193 -0.2797 -0.1117
85900W        W28813  28.843  24.692   4.729 -0.1085 -0.2384  0.3300
85901W        W28814  12.547  28.354  28.922  0.3390  0.3782  0.0617
85902W        W28815   5.943  24.186   6.335 -0.1983  0.0334  0.0095
85903W        W28816  10.308  25.767   2.184  0.2659  0.2996  0.1557
85904W        W28817  14.715  21.311   3.812  0.1697 -0.0311  0.2310
85905W        W28818  13.984   0.739   0.169  0.2398  0.0822 -0.0413
85906W        W28819  12.111  33.556  22.796  0.0982 -0.1808  0.0267
85907W        W28820  14.513  32.530   8.800 -0.4089 -0.1280 -0.0697
85908W        W28821   3.286  28.428  28.010 -0.0821 -0.1425 -0.3585
85909W        W28822   8.713  29.475   6.719  0.2197  0.3472  0.1779
85910W        W28823  14.687  24.829  20.873 -0.2426 -0.0373  0.1478
85911W        W28824   5.231  26.991  26.577  0.1553 -0.2139 -0.2301
85912W        W28825  30.679  32.548  26.562 -0.3423  0.4455  0.2182
85913W        W28826  34.330   5.221   5.386 -0.1057  0.2039  0.2184
85914W        W28827  32.245  21.138   5.416 -0.1215  0.1195  0.0958
85915W        W28828   3.259  25.806  22.429 -0.1624  0.2243 -0.0639
85916W        W28829   7.177  14.304   0.480  0.1529  0.3109 -0.2342
85917W        W28830   6.305  21.750   8.732  0.4641  0.3003 -0.1492
85918W        W28831   8.664  22.926   6.965  0.0842  0.0864 -0.1646
85919W        W28832  18.754  28.005   0.465 -0.0684 -0.1106 -0.1528
85920W        W28833   6.651  31.429   4.854  0.0988 -0.2469 -0.0037
85921W        W28834  12.369   8.922   3.372  0.0865 -0.1018 -0.2725
85922W        W28835  10.145  19.869   3.526 -0.0012 -0.1467  0.3527
85923W        W28836   2.388  12.713   3.482  0.1643 -0.0053  0.0341
85924W        W28837  10.740  23.345   1.994 -0.1093  0.2074 -0.0928
85925W        W28838  10.694   0.617   6.983  0.0458 -0.0821  0.2729
85926W        W28839  12.747  25.729   8.452  0.1541  0.1246 -0.4368
85927W        W28840  11.972  25.377   1.811  0.0339  0.2054  0.2652
85928W        W28841  11.682  24.227  24.130 -0.0332 -0.0588  0.1260
85929W        W28842  15.869  26.183   8.278  0.1712 -0.1962 -0.1756
85930W        W28843  13.611  33.959   4.440  0.0830 -0.2776 -0.3340
85931W        W28844  10.630  25.778   9.241  0.0669  0.1923 -0.0582
85932W        W28845  17.902  29.687   9.378  0.0283  0.1665  0.1023
85933W        W28846   6.036   2.731   4.258  0.2916 -0.1311 -0.0012
85934W        W28847   0.685  23.324  27.270 -0.0402  0.1337 -0.3133
85935W        W28848  24.401  25.766  19.565  0.2283  0.1967  0.0968
85936W        W28849   3.181  32.278   5.980  0.0769  0.1134  0.0453
85937W        W28850   1.543   1.429   2.036  0.0750 -0.3596  0.3435
85938W        W28851   8.727  28.757   1.888 -0.2423  0.0470 -0.0384
85939W        W28852  15.031  32.355   3.269  0.0767  0.1823  0.1553
85940W        W28853   1.537   3.230   6.708 -0.2212 -0.3769  0.0480
85941W        W28854   4.323  23.085   0.972 -0.1327  0.0204 -0.1909
85942W        W28855  11.128  31.424   2.100 -0.0541  0.4837 -0.1413
85943W        W28856  21.376   3.640   3.933 -0.2263  0.0942 -0.0489
85944W        W28857   4.976   4.381  29.476 -0.2676 -0.0995 -0.1087
85945W        W28858  16.558  33.591   1.772 -0.1975 -0.0624 -0.2151
85946W        W28859   1.427  25.638   1.130 -0.0879  0.2134 -0.1167
85947W        W28860  12.629   1.398   1.380 -0.1699 -0.0117 -0.1204
85948W        W28861  28.383  32.965  29.394  0.0747 -0.2027 -0.1878
85949W        W28862  15.720   0.901  25.808  0.1750  0.3826 -0.0343
85950W        W28863   2.198  27.107   3.244 -0.0632 -0.1204 -0.0013
85951W        W28864  11.309  31.499   3.132  0.0958  0.2322 -0.0532
85952W        W28865  14.572  22.009   2.041 -0.0599  0.1346 -0.1092
85953W        W28866   4.259  31.340   7.689  0.1747 -0.2778 -0.0613
85954W        W28867   5.191  28.362  22.529 -0.1056  0.0582  0.0785
85955W        W28868   8.702  30.292  28.714  0.0319 -0.0399  0.1854
85956W        W28869   3.676  22.166   7.645 -0.3793 -0.1568  0.3471
85957W        W28870   6.433   4.503  26.736  0.1556  0.1051 -0.0932
85958W        W28871  15.010  16.792   3.117 -0.2044  0.1054  0.1828
85959W        W28872   7.027  31.519   5.222 -0.5145  0.1288  0.0655
85960W        W28873   9.846   3.613  28.397 -0.1507 -0.0268  0.2248
85961W        W28874  30.025  31.042  26.327  0.0090 -0.2026 -0.2971
85962W        W28875   5.550   5.902   0.465 -0.0786  0.1510 -0.2008
85963W        W28876   6.179  29.127  11.479 -0.1089  0.1460  0.3276
85964W        W28877   5.902   2.562  10.793 -0.2701 -0.0410  0.1024
85965W        W28878  31.112  26.587  28.647  0.0095 -0.0308  0.4871
85966W        W28879   8.591  16.976  26.310 -0.0280 -0.0222  0.4082
85967W        W28880   6.977  29.597   3.282  0.0153 -0.0908  0.0548
85968W        W28881  10.279  32.210   7.619 -0.0849 -0.1582 -0.2898
85969W        W28882   5.046   0.100   5.516 -0.1781 -0.1908 -0.3269
85970W        W28883  26.150  26.563   7.895 -0.2192 -0.0230 -0.0362
85971W        W28884   5.193  21.014   2.174  0.2105 -0.2791  0.1477
85972W        W28885  12.470   0.841  19.987  0.2502 -0.2949 -0.2348
85973W        W28886  12.199   1.096  10.655 -0.0578 -0.1712 -0.0874
85974W        W28887   8.694  22.414   1.916  0.1827  0.1143  0.0909
85975W        W28888  12.678  26.837   2.425 -0.3519 -0.1016  0.3877
85976W        W28889   4.161  30.600  21.893  0.1708 -0.0721  0.0037
85977W        W28890   9.096  33.285  26.537  0.0607  0.0977 -0.0551
85978W        W28891   0.107  32.895   6.779 -0.1306  0.1685  0.2202
85979W        W28892  15.322  32.776   2.585  0.0729  0.0395 -0.1532
85980W        W28893  10.619   0.056   6.146  0.0601 -0.0646 -0.0489
85981W        W28894   2.152   2.473   6.570 -0.0690 -0.1712 -0.0850
85982W        W28895   1.538  32.240  24.966  0.1103  0.1353  0.0666
85983W        W28896  13.224   0.608   1.525  0.1254 -0.1539 -0.2041
85984W        W28897   9.009  26.003   1.863  0.1366  0.7180  0.1742
85985W        W28898   9.081  32.377   7.297  0.2425 -0.0168 -0.1335
85986W        W28899  11.497   2.069   1.387  0.2252  0.2122  0.0126
85987W        W28900   9.840   3.821  11.175  0.0589 -0.2122 -0.1164
85988W        W28901   9.793  33.151  10.673 -0.0944  0.2844  0.1174
85989W        W28902  13.426  19.220   0.240 -0.0654  0.0209  0.3945
85990W        W28903  18.946  33.122  22.518  0.2265 -0.0894 -0.1676
85991W        W28904  12.340  30.902   6.245 -0.0111 -0.1294 -0.0308
85992W        W28905  19.106  11.060   4.212 -0.2517 -0.2769 -0.1265
85993W        W28906  17.178  30.274   7.761  0.0010  0.0243  0.1109
85994W        W28907   7.764  15.030  27.556  0.5709 -0.1639  0.0336
85995W        W28908   7.252  32.769  25.420  0.0608  0.0823 -0.2597
85996W        W28909   5.130  31.753   9.191 -0.0037  0.1367  0.3575
85997W        W28910  33.014  24.363  29.174 -0.0556 -0.0682  0.0651
85998W        W28911   0.465  27.264   4.476  0.2292  0.1176 -0.0691
85999W        W28912   0.934  25.777  10.567 -0.1868  0.0546 -0.0010
86000W        W28913  10.398   5.809   7.933  0.1566 -0.0202  0.1351
86001W        W28914  11.292   3.131   4.446 -0.2894 -0.0540 -0.1044
86002W        W28915   2.022  27.166   2.026  0.2901  0.1633  0.3117
86003W        W28916  13.310  27.003   9.595  0.1323 -0.1808 -0.1398
86004W        W28917   0.244  32.796   0.429  0.1396 -0.0995 -0.0145
86005W        W28918  10.269   1.649   9.337  0.1845 -0.1685 -0.2690
86006W        W28919   8.708  28.330   9.859  0.0842  0.1376  0.0027
86007W        W28920  22.999   3.950   6.815 -0.1678 -0.1168  0.0844
86008W        W28921  11.245   0.572  27.039  0.1141  0.2684  0.0429
86009W        W28922   8.420   3.736   1.214 -0.4274  0.0846  0.0636
86010W        W28923   9.171   0.269  28.235 -0.0453 -0.0051 -0.2052
86011W        W28924  13.901   6.001   4.647 -0.0771 -0.3773 -0.5080
86012W        W28925   9.154  22.386  25.522  0.2637 -0.2093  0.3674
86013W        W28926  14.013  32.612   0.965  0.0390 -0.2744  0.1526
86014W        W28927   4.421  27.541   3.233  0.1940 -0.2323 -0.2974
86015W        W28928   7.345  26.485   5.467  0.1182 -0.1836 -0.0311
86016W        W28929   9.933  23.621   8.736 -0.1658 -0.0395 -0.0339
86017W        W28930   6.843  24.655   0.349 -0.2465  0.2557 -0.0534
86018W        W28931  16.259   3.516  10.308  0.0619  0.1191  0.0027
86019W        W28932  30.339  19.787   7.167  0.0904  0.0561  0.0812
86020W        W28933   8.830  33.090  10.951 -0.0934 -0.0164  0.0313
86021W        W28934   1.818   7.751  11.884  0.1555 -0.1962  0.1620
86022W        W28935  18.602  33.822   7.140 -0.1901 -0.0690  0.0959
86023W        W28936   6.118   0.950  27.957 -0.0364 -0.1665 -0.0687
86024W        W28937   1.249  10.191   7.063  0.1224  0.0136  0.1025
86025W        W28938   2.531  30.062   0.286  0.1350 -0.2984  0.4782
86026W        W28939  14.508  27.828  10.838 -0.2329  0.2428  0.0353
86027W        W28940  22.937  18.776   8.033 -0.2920 -0.0640  0.0454
86028W        W28941  17.111  33.381   9.898 -0.1152  0.2071  0.2497
86029W        W28942  16.000  27.125  28.757  0.1047 -0.2068  0.0292
86030W        W28943   7.293  31.273   7.503 -0.0410  0.0115  0.0708
86031W        W28944   6.617  32.834   6.636  0.4731 -0.1833  0.1949
86032W        W28945  10.467  31.214   5.465 -0.0556  0.1528 -0.1507
86033W        W28946   6.493  20.722   7.230 -0.2341 -0.1606 -0.0217
86034W        W28947   2.427  33.926   5.396 -0.2145 -0.1139 -0.1108
86035W        W28948  13.580  27.057   1.086  0.1240  0.3289 -0.3531
86036W        W28949  11.434   0.377   8.356 -0.0444  0.1600  0.0897
86037W        W28950  10.871  10.098   4.347  0.1905 -0.1941  0.1636
86038W        W28951   3.546   3.743   9.525  0.0949 -0.0058 -0.0753
86039W        W28952  10.810   8.192   8.784  0.1015  0.0421  0.5360
86040W        W28953   5.884  32.658   7.554  0.1273  0.2187  0.1189
86041W        W28954  14.145  32.001   3.155  0.0025 -0.2610  0.0051
86042W        W28955  11.090  28.211   2.706  0.0999 -0.0263 -0.1149
86043W        W28956  10.576   8.369   9.255 -0.0227 -0.1178  0.4073
86044W        W28957  14.221  20.878  27.633  0.2922  0.1788  0.0411
86045W        W28958   7.340  30.510   5.625  0.2393  0.0197 -0.0155
86046W        W28959   6.777  27.688   8.464 -0.1751 -0.0008  0.3876
86047W        W28960   9.967  29.076  10.567 -0.1519 -0.0966 -0.1213
86048W        W28961  15.245   2.955   8.268  0.0498 -0.2986 -0.0138
86049W        W28962  15.275   1.710  10.761 -0.2588 -0.3497  0.2338
86050W        W28963   1.894  32.505   6.302 -0.0170  0.3478  0.2309
86051W        W28964   9.952  30.662   6.508  0.1082  0.1044  0.1891
86052W        W28965  10.481   1.107  12.209 -0.1508  0.0313  0.1314
86053W        W28966  12.602  28.377   2.309 -0.0241  0.1451  0.2724
86054W        W28967  29.479  28.376   0.290  0.0235  0.1762 -0.0334
86055W        W28968  30.149   0.759   5.356 -0.0761 -0.2258 -0.1077
86056W        W28969   7.789   2.096   7.008 -0.0310 -0.1409 -0.3928
86057W        W28970   6.260  30.431  11.613 -0.0421 -0.0638 -0.0916
86058W        W28971   2.426  23.912   5.872 -0.0311  0.1103  0.2585
86059W        W28972  10.485  27.202  29.719  0.3527  0.0524 -0.1132
86060W        W28973  18.489  26.742  25.303 -0.0812  0.1441  0.0257
86061W        W28974  10.200   0.308  10.956 -0.1008 -0.0888  0.4962
86062W        W28975   5.290  32.831   0.810 -0.2751 -0.0425 -0.0423
86063W        W28976  12.297  29.678   1.702  0.2230  0.0875  0.0721
86064W        W28977   3.361  25.341   9.264 -0.2218  0.0172  0.0787
86065W        W28978   6.344  28.240   4.409  0.0627  0.3755 -0.3360
86066W        W28979  34.329  28.866   4.877 -0.2119 -0.2966  0.1344
86067W        W28980   9.867   4.578   2.202  0.1373  0.0977 -0.3479
86068W        W28981   3.822  26.463   6.351 -0.1462  0.1504  0.3595
86069W        W28982   9.597  16.776  29.431 -0.0289  0.0097  0.2333
86070W        W28983   3.491  22.861   9.711  0.1747  0.0670 -0.1180
86071W        W28984   3.288  11.556   7.259 -0.1313 -0.1769 -0.0731
86072W        W28985  18.858   8.099  26.889 -0.0514 -0.1002 -0.0158
86073W        W28986   8.447  27.029   6.435 -0.2682  0.0891  0.0043
86074W        W28987  30.299   1.459   7.526 -0.0562 -0.5502 -0.0968
86075W        W28988   1.051  27.903   3.168  0.3730 -0.0400  0.0241
86076W        W28989   7.135  23.076   8.637 -0.0339 -0.2528 -0.3114
86077W        W28990   7.044  21.261  25.933 -0.1297  0.2466  0.2173
86078W        W28991   5.701   1.340   0.464  0.0690 -0.0323 -0.2726
86079W        W28992   6.648   6.570   7.293 -0.0126 -0.0248 -0.0048
86080W        W28993  11.869   3.703   1.888  0.1262  0.0554  0.1211
86081W        W28994   7.664  26.728  27.985 -0.0860  0.1368  0.0881
86082W        W28995   9.671  33.541  24.938 -0.0590  0.2363  0.2261
86083W        W28996  31.570   1.686  10.485 -0.2026 -0.3934 -0.0223
86084W        W28997   7.402  25.583   3.576  0.0645  0.1646 -0.0342
86085W        W28998  27.753  27.693   8.952 -0.5059  0.1140  0.0082
86086W        W28999  10.142   1.842   3.113 -0.2969 -0.2498 -0.0613
86087W        W29000   5.911  22.742   9.118 -0.0162 -0.0303  0.0251
86088W        W29001   9.010   1.433  11.931 -0.1633  0.2651  0.2476
86089W        W29002  13.795   1.623   6.838  0.1287  0.0307 -0.1816
86090W        W29003  11.853   2.699   7.218 -0.2452  0.1854 -0.0053
86091W        W29004  10.749  33.177   3.256  0.2957 -0.1449  0.1718
86092W        W29005   8.697  25.085   3.356  0.1013 -0.0241 -0.0458
86093W        W29006  10.087  32.006   0.519 -0.1224 -0.1451 -0.1541
86094W        W29007   6.018  24.264   3.905  0.4202  0.0314  0.0310
86095W        W29008   9.898   2.004   5.520 -0.1683  0.1279 -0.1788
86096W        W29009  15.060   4.122  10.439  0.0388  0.0735  0.1079
86097W        W29010  15.960  27.412   8.219 -0.1381  0.0311  0.0570
86098W        W29011  13.045  19.523  20.145 -0.1215  0.2070 -0.2289
86099W        W29012   3.012  26.985   3.362 -0.0529 -0.2548  0.3416
86100W        W29013   4.941  26.431   4.681  0.1524 -0.2050  0.1116
86101W        W29014  11.463  32.627  12.502 -0.2595  0.2581  0.0750
86102W        W29015  19.722  22.156  23.982 -0.0023  0.3602 -0.1022
86103W        W29016  16.339  23.173   1.203  0.0781  0.0424 -0.0001
86104W        W29017  26.411  29.375   1.381  0.1870 -0.3917 -0.0782
86105W        W29018   9.606  21.613   1.627 -0.1108 -0.0171 -0.0621
86106W        W29019   4.648   1.393   2.201 -0.3045  0.2473 -0.0601
86107W        W29020   3.326  33.406   4.615  0.0367  0.1592 -0.1314
86108W        W29021   4.544  30.944   8.407 -0.1156  0.2065  0.0693
86109W        W29022  10.717  31.144  11.329  0.0900  0.1485 -0.3435
86110W        W29023  10.300  32.599  11.439 -0.1939 -0.0307  0.0907
86111W        W29024  27.205   0.021  10.124  0.0495 -0.0090  0.1694
86112W        W29025   9.921  29.695  10.177  0.0587 -0.0305  0.1585
86113W        W29026   3.783  31.530   9.046 -0.2182 -0.0050 -0.2915
86114W        W29027   1.498   6.304   1.852  0.1379 -0.0837 -0.1749
86115W        W29028  30.572  31.681  26.373  0.1860  0.2470  0.0648
86116W        W29029   9.684  19.670   7.958 -0.1189  0.1940  0.2774
86117W        W29030   7.820   4.003   1.562  0.1927 -0.1098 -0.0414
86118W        W29031  13.827  24.090  28.822 -0.0856 -0.0827  0.0804
86119W        W29032   5.958  27.996   4.215 -0.0122 -0.1792  0.1457
86120W        W29033   3.484   0.437  10.263 -0.3627  0.1314  0.1851
86121W        W29034  14.358  31.508   3.822 -0.0011 -0.1362 -0.1912
86122W        W29035  12.965  31.704  28.184  0.0481 -0.0221  0.1893
86123W        W29036   5.719  20.372   6.740 -0.3725 -0.1288  0.0354
86124W        W29037   7.276   3.928   4.862 -0.0163  0.0017 -0.1904
86125W        W29038   2.282  32.666  27.661 -0.1374 -0.1593 -0.0488
86126W        W29039   6.146  29.957  25.914  0.0487 -0.2950 -0.0268
86127W        W29040   2.353   5.264   6.795 -0.2639  0.2484 -0.2201
86128W        W29041  30.120  30.878   8.180  0.1173  0.0127 -0.3419
86129W        W29042   2.216  25.110   1.091  0.0448  0.1981 -0.1103
86130W        W29043   9.540  29.970   4.166  0.1075  0.0385  0.0887
86131W        W29044   9.180  26.355   8.546  0.0336  0.1665 -0.1157
86132W        W29045  13.249  26.132  27.934  0.0385 -0.1579  0.2474
86133W        W29046  15.645   5.509  27.596 -0.1350 -0.1546 -0.0314
86134W        W29047  30.520   7.291   5.654  0.1093 -0.0093  0.1899
86135W        W29048  16.591  23.176   0.789  0.1445  0.0679 -0.2993
86136W        W29049  24.237  32.885   6.540 -0.0002  0.0499 -0.3674
86137W        W29050   6.206  29.597   7.720 -0.0225 -0.0257 -0.0937
86138W        W29051   9.725  25.734  10.347 -0.3807 -0.0279 -0.1651
86139W        W29052  10.498  28.654   1.667 -0.0246 -0.0590  0.0084
86140W        W29053   2.269  29.359   7.812  0.0161 -0.0970  0.3359
86141W        W29054  10.175  33.237   4.371 -0.0765 -0.0147  0.0740
86142W        W29055   2.736  27.384   5.827  0.0683 -0.1815  0.2617
86143W        W29056  11.602  22.556   6.541  0.1560  0.1621  0.2017
86144W        W29057  10.728  29.688  25.607  0.2030 -0.0799  0.0769
86145W        W29058   2.885  34.313  28.299  0.1741  0.0334  0.1446
86146W        W29059   5.520   3.777   8.152  0.1345  0.1157 -0.8791
86147W        W29060   6.778  25.358   4.904 -0.1186  0.1221 -0.0336
86148W        W29061   6.253  32.124  10.837 -0.0754  0.2107  0.2234
86149W        W29062  12.853  20.610  26.004  0.1005 -0.2220  0.2475
86150W        W29063   8.292  30.632   8.185 -0.4016 -0.0688  0.1065
86151W        W29064   5.647   1.242  29.651  0.1708  0.0956 -0.1073
86152W        W29065  10.545  11.727   4.953  0.2876 -0.1154  0.0851
86153W        W29066   2.995   1.954   7.547 -0.0164 -0.2436 -0.0769
86154W        W29067   4.239   4.061  11.705 -0.1050  0.2760  0.1162
86155W        W29068   3.690  30.822   1.975  0.2497 -0.0942  0.2421
86156W        W29069  10.388  25.302   7.211 -0.0917  0.3232 -0.1519
86157W        W29070  18.673  25.847  28.052  0.2462  0.1209 -0.1946
86158W        W29071  31.217   4.476  10.580  0.0338  0.3155 -0.0881
86159W        W29072   6.034  29.421   5.122  0.1147  0.2004  0.2527
86160W        W29073   1.552   1.812   3.817 -0.0440  0.0493 -0.0736
86161W        W29074   8.581  21.653   7.742 -0.0233 -0.0326  0.1215
86162W        W29075   6.923   0.987   7.507  0.0902 -0.4051 -0.0521
86163W        W29076   4.314   0.642   6.948 -0.0267  0.1554 -0.0229
86164W        W29077   6.282  17.923  28.427 -0.1379  0.0804  0.0856
86165W        W29078   9.225  31.170   4.810 -0.1108 -0.3763  0.0786
86166W        W29079   6.582   6.988  23.128  0.0570 -0.0366 -0.0638
86167W        W29080  14.990   0.745   1.853 -0.2294 -0.0965  0.2323
86168W        W29081  11.984  26.933   6.596  0.0021  0.2772  0.3416
86169W        W29082  10.657  32.516   4.564  0.1731  0.1913 -0.3844
86170W        W29083  30.581  22.826   4.494 -0.1283 -0.1816 -0.3394
86171W        W29084  11.075  33.749  26.634 -0.2043  0.0839  0.1773
86172W        W29085   8.135  23.677   2.559 -0.1264  0.3365  0.3296
86173W        W29086   0.672   2.532   0.755 -0.2670  0.2489 -0.1382
86174W        W29087  10.891   0.319  11.457 -0.0934  0.3200 -0.0557
86175W        W29088   5.382   3.274   1.100  0.2280 -0.3951 -0.2248
86176W        W29089  20.633   1.340   9.684 -0.0699 -0.2920  0.1248
86177W        W29090  21.820  28.604  26.641  0.0303 -0.1526 -0.3516
86178W        W29091  15.157  22.909  29.267 -0.2103  0.1731 -0.0906
86179W        W29092  13.510  32.689  10.354 -0.1450 -0.1101 -0.2920
86180W        W29093  13.339  24.602   9.467 -0.1690 -0.1574 -0.2961
86181W        W29094  14.193   9.387   4.901  0.1074  0.1801 -0.0180
86182W        W29095   8.579  31.271  20.667 -0.3963  0.0614  0.1334
86183W        W29096  17.467   2.530   2.950 -0.1445 -0.1799  0.3182
86184W        W29097   9.369   7.350   8.931 -0.0759 -0.0391 -0.1312
86185W        W29098   4.762  29.084   5.823 -0.0704  0.2565  0.0958
86186W        W29099  12.562  29.542  24.055  0.0867 -0.0523  0.1340
86187W        W29100  14.413  22.226   7.549  0.1032  0.1011  0.0074
86188W        W29101   8.052   0.924   1.489  0.1567 -0.0865 -0.2516
86189W        W29102   7.515  28.498   1.312 -0.1697 -0.0558 -0.3339
86190W        W29103  15.369  28.544   4.774  0.2316  0.1057 -0.3626
86191W        W29104  10.325  33.222  11.287 -0.4637  0.2594  0.0062
86192W        W29105   6.720  28.002   6.011 -0.0645 -0.1281  0.0345
86193W        W29106   7.019  31.124  28.363 -0.0929 -0.1955  0.2236
86194W        W29107  27.709   5.604   3.760  0.0800 -0.1817 -0.1655
86195W        W29108   4.011   3.060   8.331 -0.0177  0.4023  0.0375
86196W        W29109  13.845   1.730   3.978 -0.0407 -0.1507 -0.0597
86197W        W29110  15.265  31.522   9.456  0.0871 -0.0040 -0.1537
86198W        W29111   4.662  23.701  29.684  0.0631  0.0672  0.2476
86199W        W29112   7.783  23.740  28.242  0.0033 -0.3259 -0.5810
86200W        W29113   9.510  26.086   1.832 -0.0162  0.0837 -0.0034
86201W        W29114   2.779  20.039  29.457  0.0056  0.0717 -0.2830
86202W        W29115   8.054  34.043  26.337 -0.0159 -0.2682  0.0971
86203W        W29116   8.000  27.293   2.111 -0.1405 -0.0150 -0.0105
86204W        W29117  11.989   2.470  12.789 -0.1050 -0.2644 -0.0665
86205W        W29118   7.168  14.495   5.179  0.0462 -0.0447  0.1408
86206W        W29119  10.900  22.693   8.347 -0.1507 -0.1441  0.1222
86207W        W29120   3.714  22.414  28.702 -0.2119  0.1445 -0.1193
86208W        W29121  12.749   2.493   4.366 -0.0417  0.0572 -0.3205
86209W        W29122   8.728  20.704   2.504  0.0076 -0.0552 -0.0269
86210W        W29123  12.372  27.200   1.521  0.0534 -0.0409  0.2729
86211W        W29124  23.322  29.679  24.790  0.1866 -0.1155 -0.5394
86212W        W29125  11.928   0.355   3.661  0.1619 -0.0486 -0.3043
86213W        W29126  14.955   9.522   0.176  0.2185  0.1185 -0.2593
86214W        W29127  17.802  32.527   2.647 -0.0874  0.1457  0.1893
86215W        W29128   6.855  32.546   4.804  0.0429 -0.0258  0.1725
86216W        W29129   6.490   1.282  11.152 -0.1763 -0.0046 -0.2694
86217W        W29130   9.663  32.756   6.410 -0.1059  0.4883 -0.0142
86218W        W29131   3.885  32.886   1.050 -0.3016  0.1033 -0.2302
86219W        W29132   3.665  10.471   4.518  0.1974 -0.1915 -0.1309
86220W        W29133   6.579  31.618   4.331  0.0483 -0.0887 -0.0090
86221W        W29134  14.255  26.498   1.337 -0.0673  0.2693  0.1076
86222W        W29135  17.458  29.105  18.220 -0.3274  0.0653 -0.0283
86223W        W29136  18.395  24.118   7.866 -0.1146  0.1240  0.1989
86224W        W29137   4.313  33.001  29.111 -0.1776  0.2008  0.4663
86225W        W29138   8.720  33.295   7.075 -0.1752 -0.0298  0.0160
86226W        W29139  11.594  32.249  19.810  0.0352  0.0708 -0.2138
86227W        W29140   6.312   6.094   8.105  0.1153 -0.1039 -0.0607
86228W        W29141   9.433  31.843   6.175 -0.3044  0.0774 -0.0308
86229W        W29142  10.597  20.419   4.117 -0.0630  0.0358  0.0761
86230W        W29143  10.313  32.812   8.550 -0.0968 -0.0555 -0.1599
86231W        W29144   4.859  25.574   9.184  0.1106  0.0494 -0.1011
86232W        W29145   9.461  23.487   3.619 -0.2142 -0.2182  0.0631
86233W        W29146  32.784   1.777   1.871  0.1007  0.0613 -0.1887
86234W        W29147  15.660  29.522   9.950  0.0423 -0.1134  0.0179
86235W        W29148  12.598  30.974   7.646 -0.0028 -0.1115 -0.1614
86236W        W29149   6.160  31.850  27.839  0.2193  0.2808 -0.0690
86237W        W29150  10.078  22.911   1.427 -0.0808 -0.0436  0.2299
86238W        W29151  15.822  29.557   0.831 -0.0392  0.2746 -0.2223
86239W        W29152   9.605   2.081   6.458  0.0883  0.0853 -0.1590
86240W        W29153  11.906   3.175  11.071  0.5343  0.0148 -0.1424
86241W        W29154  32.023  23.493   8.253 -0.1755  0.2817  0.1075
86242W        W29155   1.406  31.714  10.213 -0.2922 -0.2289 -0.0774
86243W        W29156   2.500  33.730   9.402 -0.1133  0.0622 -0.1365
86244W        W29157   7.046   5.281   2.823  0.2601 -0.0281 -0.0893
86245W        W29158   5.330  26.057   9.827 -0.0239  0.3144  0.0035
86246W        W29159  12.778   1.419  10.310  0.0233  0.1361  0.1436
86247W        W29160   2.228  24.568   2.288  0.2371  0.0646  0.0698
86248W        W29161   7.101   1.597  11.075 -0.1946 -0.5608  0.1946
86249W        W29162  10.461   1.780   3.472 -0.1649 -0.3241 -0.2986
86250W        W29163   6.025  30.510   8.175  0.0599  0.0295 -0.0632
86251W        W29164   5.741  18.994   5.626  0.3417 -0.1245 -0.2294
86252W        W29165  14.297  29.654  28.802  0.2087  0.1627 -0.2631
86253W        W29166   0.910  26.703   3.818 -0.0351  0.1518  0.0350
86254W        W29167   9.738  28.974   5.613  0.0004 -0.0734  0.0592
86255W        W29168   7.382  34.154   5.665 -0.0282 -0.1949  0.1688
86256W        W29169   1.600  27.547   3.332 -0.0078 -0.4213  0.0373
86257W        W29170   3.055   2.223   3.609 -0.2378  0.0250 -0.2379
86258W        W29171  32.195  32.922   3.881  0.2695  0.2695  0.2235
86259W        W29172   5.483  25.554  26.403  0.0217 -0.1158  0.1933
86260W        W29173  31.912   7.839   6.365  0.1728  0.1222 -0.1017
86261W        W29174   8.817   5.798   5.856  0.0288  0.1790  0.1366
86262W        W29175  10.382  26.374   0.817  0.1408 -0.0458 -0.1793
86263W        W29176   5.008  29.889  10.836 -0.0808 -0.0336  0.0245
86264W        W29177  16.008  32.556   8.269  0.1264  0.1289 -0.0221
86265W        W29178  12.128  26.387   6.663 -0.2429 -0.0663 -0.0824
86266W        W29179   2.839  26.335  29.297 -0.0492  0.0824 -0.1153
86267W        W29180   5.556   6.043   8.675 -0.1834  0.1336  0.0441
86268W        W29181  22.833  27.460   0.547  0.0390 -0.1421 -0.1840
86269W        W29182  13.991  29.056   2.692  0.1664  0.0051 -0.2452
86270W        W29183   4.702  23.070   7.842 -0.1258 -0.1338 -0.0140
86271W        W29184   6.871  32.037  29.621  0.1506 -0.0179 -0.3527
86272W        W29185   9.155  25.829   6.692  0.0705 -0.2158 -0.0954
86273W        W29186   4.389  27.024   0.947  0.0320 -0.2800  0.0352
86274W        W29187   5.718  28.398   4.998 -0.1286 -0.0591 -0.1396
86275W        W29188  15.601   5.578   7.886 -0.0410  0.0926  0.0969
86276W        W29189   9.041  29.784   6.903  0.3196  0.1713 -0.1091
86277W        W29190  18.196   1.951   6.600  0.1587  0.1749  0.2527
86278W        W29191  16.025   0.454  22.311 -0.0069  0.1040  0.3691
86279W        W29192   0.800  26.765   9.410  0.1083  0.0777 -0.0839
86280W        W29193  33.452  27.976   5.042  0.1578  0.0222 -0.0398
86281W        W29194  11.963   3.851   8.062 -0.3017  0.2628  0.3031
86282W        W29195   1.275  34.018  28.131 -0.2229  0.1768 -0.2450
86283W        W29196  15.070   3.992   4.197 -0.0676  0.0803 -0.0395
86284W        W29197  14.375  23.368  23.563 -0.0480  0.2370 -0.1758
86285W        W29198   9.116  23.832   5.380 -0.1675  0.1594  0.0270
86286W        W29199  10.468   1.457   7.035  0.0099 -0.1252 -0.1505
86287W        W29200  18.312   5.954  19.006 -0.1030 -0.2776 -0.0788
86288W        W29201   9.789  17.066   3.984  0.2809 -0.0094  0.0304
86289W        W29202  11.988  26.724  25.949 -0.1606  0.0123 -0.1081
86290W        W29203   6.615   5.864   5.202 -0.2326  0.0741  0.0015
86291W        W29204   6.385   0.517   6.812 -0.0488 -0.3250 -0.1718
86292W        W29205   1.203  27.731   7.296 -0.0636  0.0084  0.0744
86293W        W29206  10.053   3.260   2.774  0.2653  0.1984 -0.2642
86294W        W29207  24.491  30.382   2.309 -0.0837  0.1411  0.1050
86295W        W29208   9.269  31.592   4.128 -0.1293  0.1854 -0.2296
86296W        W29209  20.842  31.639  25.944 -0.0127 -0.0455 -0.3071
86297W        W29210  10.866   1.912   2.733 -0.1064 -0.0568 -0.1347
86298W        W29211   2.905   3.873   0.738 -0.0476  0.0313 -0.0995
86299W        W29212   9.448  31.726  10.757  0.0459 -0.1695 -0.1765
86300W        W29213   6.449  26.589  10.105 -0.2943  0.0024 -0.0370
86301W        W29214   4.693  31.653  10.804 -0.3536 -0.1026 -0.1424
86302W        W29215   0.403   1.053   7.594  0.0715 -0.0599  0.1941
86303W        W29216  24.747  24.087  25.904  0.1143 -0.0823  0.0013
86304W        W29217  14.229  33.037   0.255  0.0342  0.1581 -0.3108
86305W        W29218   7.253  19.165   7.729 -0.1516  0.0312 -0.3327
86306W        W29219   5.113  27.152  27.245 -0.2167  0.2494 -0.2888
86307W        W29220  17.273   2.079   5.125 -0.0322 -0.3057  0.1899
86308W        W29221  10.882  20.638   8.253 -0.2673 -0.1087 -0.3866
86309W        W29222   8.145  27.119   9.839  0.1910  0.0472 -0.1094
86310W        W29223   8.608  25.390  27.976 -0.2076  0.1191 -0.0928
86311W        W29224  14.077   0.796   8.413  0.2825  0.0135  0.0785
86312W        W29225  20.543   0.154   5.320 -0.2189 -0.2419  0.1575
86313W        W29226  14.152  26.465   3.170 -0.0531 -0.0199  0.3716
86314W        W29227  10.676  29.477  28.028 -0.0121 -0.1398  0.4636
86315W        W29228  12.920  30.546   2.291 -0.1219 -0.0763 -0.0928
86316W        W29229  11.577   5.098  10.268  0.2079  0.1122 -0.1060
86317W        W29230   9.283   2.768   7.274 -0.2151 -0.1894  0.2180
86318W        W29231   8.741  28.815  10.630 -0.0168  0.1176 -0.0007
86319W        W29232   3.621  22.352   9.383 -0.2133  0.1175  0.2537
86320W        W29233  21.332   7.164  26.511  0.1873 -0.0834 -0.1576
86321W        W29234   6.504  28.105   9.758 -0.3617  0.1242 -0.2262
86322W        W29235   7.521  33.221   0.246  0.0622  0.0223  0.1666
86323W        W29236   4.512  28.414   3.422 -0.2244  0.2155 -0.0030
86324W        W29237   8.281  29.700  12.115  0.0228 -0.3886 -0.0306
86325W        W29238  30.561  27.480   8.411  0.2470 -0.0251  0.1824
86326W        W29239   6.114   7.202   2.944 -0.3303  0.0496 -0.1709
86327W        W29240   4.268  27.312  27.297  0.0262 -0.1508 -0.1995
86328W        W29241   0.195  32.713  24.011 -0.2521  0.0172 -0.0120
86329W        W29242  15.582  22.241  27.778  0.2361  0.0844 -0.2112
86330W        W29243   7.282   0.872  24.437 -0.2222  0.3286  0.2551
86331W        W29244   6.713  27.097   5.271 -0.0012 -0.0791 -0.0408
86332W        W29245   1.466  21.231  28.136  0.1363 -0.2613 -0.0105
86333W        W29246  14.208  23.423  28.242  0.0717  0.2719 -0.0123
86334W        W29247   5.259  29.899   6.965 -0.1106 -0.0778 -0.0051
86335W        W29248  17.400  30.237   5.314 -0.4814  0.0439  0.0223
86336W        W29249   8.607  27.489  26.721  0.0730 -0.2157  0.2020
86337W        W29250   6.414  22.056   8.071 -0.0099  0.0960  0.0530
86338W        W29251  12.632   1.210   2.070  0.0389  0.2872 -0.2888
86339W        W29252  13.823  31.899   4.451  0.0593  0.0502 -0.1972
86340W        W29253   6.792   2.592  28.947 -0.1208 -0.4107  0.3254
86341W        W29254   9.687   2.353  24.201 -0.1120  0.3004  0.0915
86342W        W29255   9.679  31.688  27.403  0.1252  0.0080 -0.2264
86343W        W29256   5.389   1.393   8.894 -0.1127  0.0090 -0.0705
86344W        W29257   4.404  24.235   6.068 -0.1298 -0.0168 -0.1710
86345W        W29258  22.470  25.750   1.497 -0.0292  0.1192  0.3786
86346W        W29259  13.109  23.931   9.575  0.0883 -0.0585 -0.0463
86347W        W29260   6.216   0.971   6.456  0.2801 -0.0111 -0.0106
86348W        W29261   7.217   0.931   3.599  0.1066  0.0085  0.3140
86349W        W29262  15.069  31.542   7.584 -0.2455 -0.0111  0.3213
86350W        W29263  10.687  24.094   2.771  0.2689  0.2329  0.0919
86351W        W29264   2.292  24.257   1.078  0.2581  0.0213  0.1904
86352W        W29265   6.275   4.754   7.511  0.0070 -0.3812  0.0664
86353W        W29266   9.591  31.412   8.126  0.0506  0.1310  0.5071
86354W        W29267  11.158  29.698  26.786 -0.2575  0.0220  0.2100
86355W        W29268   8.978  30.806   6.898  0.3548 -0.4080 -0.1057
86356W        W29269  12.423  33.826   7.499  0.0370 -0.0146 -0.2290
86357W        W29270   4.016  29.383   1.060  0.0135  0.2993 -0.5076
86358W        W29271   7.161  28.904   1.771  0.5638 -0.1111  0.2968
86359W        W29272   7.569   5.293  29.167  0.3595  0.1818 -0.2295
86360W        W29273   3.679  26.633   7.668  0.0962 -0.3947 -0.0359
86361W        W29274  18.334   1.925  27.959  0.5033 -0.0908  0.0071
86362W        W29275   5.719  30.437   2.616  0.0695  0.1759  0.2639
86363W        W29276   1.764  30.650  26.071 -0.2156 -0.2916 -0.0004
86364W        W29277  15.758   1.449   3.968 -0.1392 -0.0985 -0.0044
86365W        W29278  11.513  30.022  25.806  0.0068  0.2850  0.2863
86366W        W29279  32.833   4.698   0.004 -0.2186 -0.0155 -0.2343
86367W        W29280   1.012  27.649   8.893  0.2320 -0.2140 -0.2634
86368W        W29281  24.384  31.040   5.345  0.1117 -0.1133  0.2262
86369W        W29282   8.482  23.442  27.187 -0.1512 -0.1163  0.0922
86370W        W29283   9.852  29.471   8.151 -0.1285 -0.1179  0.3456
86371W        W29284  34.074  25.595  28.922  0.1263 -0.0726 -0.3120
86372W        W29285  12.720  31.458   5.625 -0.1343  0.0548  0.3218
86373W        W29286  12.148  32.987  10.718 -0.0208  0.0718 -0.1559
86374W        W29287  11.836  22.691  25.051  0.0082  0.1731  0.0412
86375W        W29288  12.698  19.357   7.668 -0.0707  0.0148 -0.2362
86376W        W29289   2.855   9.595  11.407 -0.1327 -0.1214  0.2952
86377W        W29290  14.725  18.696   1.078 -0.0958 -0.2222 -0.1720
86378W        W29291  12.094   3.305   1.548 -0.3182  0.0752 -0.1758
86379W        W29292  18.925   3.973  29.754 -0.0694  0.1444  0.4448
86380W        W29293   6.687  11.568  10.967 -0.1563 -0.3166  0.0157
86381W        W29294  14.957  32.020   5.502  0.0781  0.3671  0.1841
86382W        W29295   0.004   5.719   0.288 -0.0172  0.1435  0.0992
86383W        W29296   8.440  23.733   6.915 -0.0997 -0.1482  0.1065
86384W        W29297  14.338  28.031   3.498 -0.0067 -0.2340  0.0898
86385W        W29298   1.585   0.138   9.100  0.0886  0.1941 -0.0405
86386W        W29299   6.693   0.265  29.645  0.0628  0.1875  0.2693
86387W        W29300  34.270  33.683   8.103  0.2609 -0.2440  0.0354
86388W        W29301   8.772  30.872   8.309  0.2697  0.0735 -0.2519
86389W        W29302   4.091  13.281  24.979 -0.1860  0.0268  0.3115
86390W        W29303  11.847   6.407   6.953 -0.3469  0.1359  0.0981
86391W        W29304   0.319  30.003   6.963  0.0637 -0.0440  0.1167
86392W        W29305  12.024  33.578   8.655 -0.2042 -0.2201 -0.1702
86393W        W29306  16.466  17.055   3.666 -0.1542  0.0812  0.4408
86394W        W29307   9.442  27.131   7.197 -0.2173 -0.3274  0.0341
86395W        W29308   6.664  31.287   8.898 -0.2906  0.1967 -0.0193
86396W        W29309   9.896  18.489   8.886 -0.2666 -0.2381  0.3955
86397W        W29310   6.167  34.074   3.272 -0.3539  0.1833  0.3606
86398W        W29311   6.966  23.689   7.539 -0.0411 -0.0241  0.3157
86399W        W29312  19.780  34.049   2.564  0.0220  0.2549  0.2136
86400W        W29313   9.615  23.083  17.302  0.3036 -0.2013 -0.2537
86401W        W29314   5.716  32.975   1.001  0.1256 -0.1668 -0.0005
86402W        W29315   4.340   4.450   8.715 -0.4460  0.0601 -0.2962
86403W        W29316  17.226  29.925  11.270  0.0695  0.2539 -0.0144
86404W        W29317   4.249  32.354   6.139 -0.1866 -0.2096 -0.0614
86405W        W29318   7.431   3.883   9.472 -0.1583  0.1197  0.1681
86406W        W29319   4.083  25.947   8.303 -0.1333  0.1307 -0.1479
86407W        W29320  13.986   5.244   4.579  0.1948 -0.0185  0.2593
86408W        W29321  11.115  30.257  29.381 -0.0435 -0.1693 -0.2302
86409W        W29322  10.017  31.749  24.001  0.1631  0.0205 -0.0595
86410W        W29323   2.074  33.920   7.425 -0.2391  0.1484 -0.0109
86411W        W29324  31.410  27.937   8.040  0.1914  0.1919  0.3813
86412W        W29325   8.711  22.329  29.372 -0.2653 -0.1663 -0.1370
86413W        W29326  31.605  27.179   8.978  0.0935  0.3007  0.4127
86414W        W29327  11.266  21.202  25.938 -0.3626  0.1812 -0.0283
86415W        W29328   3.781  24.113   8.420 -0.2679  0.1061 -0.1070
86416W        W29329  32.653   4.633  28.452  0.3306 -0.0097 -0.2617
86417W        W29330   7.555   3.815   1.939  0.1090 -0.3379  0.1831
86418W        W29331   8.657  29.884   4.700 -0.2322 -0.0508 -0.0450
86419W        W29332  10.425  23.047   8.564  0.0342 -0.0468  0.2228
86420W        W29333  14.863  33.448  10.638 -0.2478 -0.0450 -0.2135
86421W        W29334  10.492  25.276   3.921  0.0193  0.4195  0.1014
86422W        W29335  10.671  27.376   3.376 -0.0831  0.1986 -0.4411
86423W        W29336  29.065   8.579   0.623  0.2154 -0.0007 -0.0547
86424W        W29337   9.316  26.867   6.758  0.0816  0.0562  0.4454
86425W        W29338  11.747  29.627   9.845  0.0351 -0.4691  0.0391
86426W        W29339   1.297   1.622   2.415 -0.1733  0.1160  0.0613
86427W        W29340   6.740   7.496  10.593  0.0232  0.3964  0.2214
86428W        W29341  26.365  16.002  27.751 -0.1271  0.0281 -0.1462
86429W        W29342  14.066   1.156  28.674  0.2775  0.2776 -0.3669
86430W        W29343  11.965  33.610  11.450 -0.2226  0.0944 -0.1613
86431W        W29344  18.874  20.305  20.819 -0.0972 -0.1140  0.0992
86432W        W29345   2.263  29.063  27.306 -0.0576 -0.0829  0.3825
86433W        W29346  11.776  20.134  27.792 -0.1718 -0.1620  0.1666
86434W        W29347  15.389   0.071  29.308  0.3334  0.0443  0.1823
86435W        W29348  10.707  28.674   8.838  0.0910  0.1900  0.0635
86436W        W29349  15.072  30.917   5.243  0.0282  0.2103  0.0910
86437W        W29350  31.800   3.730   9.733  0.3508 -0.0904 -0.1737
86438W        W29351  11.674  26.451   7.895  0.1275 -0.0738  0.1277
86439W        W29352   7.998  28.240  10.932 -0.2305 -0.2136  0.1456
86440W        W29353   7.430  22.323   2.040 -0.0472  0.0555 -0.0654
86441W        W29354  11.905   1.274   4.758  0.0277  0.2225 -0.3036
86442W        W29355  11.015  31.384   6.771 -0.1422  0.3416  0.2137
86443W        W29356   1.316   4.128  22.219 -0.0083 -0.2184 -0.0572
86444W        W29357   3.657   5.054   9.889  0.1685 -0.0003  0.2152
86445W        W29358  11.540   8.335   9.270  0.0861  0.0692  0.0190
86446W        W29359  14.302  22.868   8.938  0.1105 -0.1955  0.1273
86447W        W29360   6.039  32.909   8.065 -0.4035  0.0746  0.1146
86448W        W29361   0.239  29.336   6.834 -0.1528 -0.0151 -0.0814
86449W        W29362   3.276   0.375  10.835 -0.1067  0.2379  0.1477
86450W        W29363  13.710   3.780   9.003 -0.0539 -0.1664 -0.0536
86451W        W29364   4.028  31.728   8.004  0.1216 -0.0321 -0.0638
86452W        W29365  10.079   0.236  11.448 -0.4034 -0.0441  0.0188
86453W        W29366  11.567  31.560   3.688  0.3121  0.1374  0.1253
86454W        W29367  14.474   1.186  10.488  0.1334 -0.0196  0.0755
86455W        W29368   9.105  24.343   5.826  0.1956 -0.2024  0.1796
86456W        W29369  33.110  30.321   9.429  0.2758  0.0218  0.0897
86457W        W29370  10.610   7.510   4.836  0.0559 -0.1052 -0.3142
86458W        W29371  10.651   0.482   9.832 -0.0154  0.0553 -0.1321
86459W        W29372   9.143   2.058   1.658  0.0384 -0.0881  0.2509
86460W        W29373   5.263  13.372   8.283 -0.0727  0.2724  0.2067
86461W        W29374   3.221  27.660   3.425  0.0506 -0.3479  0.2150
86462W        W29375   1.813  11.586   3.017  0.1894  0.0191  0.2496
86463W        W29376   9.051  31.640   0.726  0.2916 -0.1923 -0.0065
86464W        W29377  11.826   0.007  10.961 -0.0413  0.1592 -0.3140
86465W        W29378  10.130   2.324  13.086 -0.0894 -0.0103  0.0703
86466W        W29379   4.889   0.557   5.142 -0.0514  0.1489 -0.1226
86467W        W29380   0.928  26.733   3.276  0.2198 -0.2956  0.1293
86468W        W29381  19.756  24.123   4.226  0.2751 -0.0949 -0.0565
86469W        W29382  12.661  31.943   7.689  0.1560  0.0252  0.1949
86470W        W29383   6.698   1.941   9.920  0.2119 -0.1355  0.0563
86471W        W29384   7.988  32.912   9.438 -0.0291 -0.3243  0.1511
86472W        W29385  11.368  31.069  10.501 -0.0792 -0.3163  0.0499
86473W        W29386   6.836  10.156   6.659 -0.1758 -0.2856  0.1158
86474W        W29387   4.277  23.465  28.786  0.4090 -0.1967  0.1505
86475W        W29388  10.144   4.436  22.914 -0.0461 -0.1212  0.0700
86476W        W29389   3.347  29.846   6.248 -0.0448 -0.4118 -0.3476
86477W        W29390  11.603   1.551  12.560 -0.2267 -0.0385 -0.1793
86478W        W29391   3.319  28.735   9.140 -0.1428  0.2242 -0.0365
86479W        W29392  34.304  31.471   9.458 -0.3566 -0.2895 -0.0880
86480W        W29393  10.493  31.310   7.880 -0.0393  0.2502 -0.1085
86481W        W29394   7.710  31.369  11.228  0.0957 -0.1755  0.0246
86482W        W29395  33.702   1.514   2.196  0.2584  0.0127 -0.0471
86483W        W29396  20.439  31.409  24.726  0.0603  0.0278  0.0060
86484W        W29397   0.853  34.030   7.116  0.1683 -0.2665 -0.2041
86485W        W29398   9.519   0.127   5.651 -0.0618 -0.1857 -0.0802
86486W        W29399   5.821  29.217  11.062  0.0122  0.0645 -0.2297
86487W        W29400   6.453  31.979  11.623  0.0388  0.0995 -0.1255
86488W        W29401  14.140  32.619   7.561  0.3113 -0.2935 -0.0509
86489W        W29402   9.200   4.696   4.562  0.1257 -0.0194 -0.0991
86490W        W29403   7.126  29.305   5.422 -0.1463  0.0527 -0.3799
86491W        W29404  12.769  25.258   9.392  0.0127 -0.0358 -0.0454
86492W        W29405  22.578  26.552  28.516  0.0065 -0.1604  0.0186
86493W        W29406   9.191   7.941   8.333 -0.0226  0.0789  0.2408
86494W        W29407  18.363   1.318   5.892 -0.1753  0.0388 -0.0738
86495W        W29408   2.768   0.396  28.836 -0.1389  0.2711  0.1157
86496W        W29409   7.607  26.151  29.688  0.0734 -0.3907 -0.1338
86497W        W29410   5.696   7.056   5.359  0.0376  0.1351  0.3051
86498W        W29411   2.770  24.323   8.918  0.1432 -0.0332  0.0377
86499W        W29412   0.654  29.093   4.111  0.0903  0.0390 -0.1649
86500W        W29413   7.039   0.751  12.211 -0.0934 -0.1309  0.4712
86501W        W29414   9.590   0.312  11.175  0.0610 -0.2426  0.2736
86502W        W29415  11.259  30.418  11.190  0.0744  0.1365 -0.0101
86503W        W29416   9.015  29.286   7.494 -0.3271 -0.1965  0.0773
86504W        W29417  20.110  20.792   7.724 -0.1957 -0.1301  0.2697
86505W        W29418  10.545   2.247   3.080 -0.2822 -0.0841 -0.2221
86506W        W29419   6.154   5.546  14.169 -0.0141  0.2881 -0.0211
86507W        W29420  13.249  25.657   7.589 -0.4917 -0.1705 -0.1094
86508W        W29421  10.620   1.795  10.215  0.2997  0.2181  0.0598
86509W        W29422  32.746   2.774   1.708 -0.1884  0.1878  0.0624
86510W        W29423  18.366   1.129   4.551 -0.0028 -0.1072 -0.0971
86511W        W29424  13.331   5.048   7.689  0.1872  0.2530  0.0571
86512W        W29425   5.542  30.557   3.103  0.4431  0.0928  0.2180
86513W        W29426   6.438  20.235   7.308  0.0938  0.1345 -0.1782
86514W        W29427   9.939  33.970   9.956  0.1082  0.2249 -0.2531
86515W        W29428  10.935   0.664   3.976 -0.0119 -0.0496 -0.0951
86516W        W29429  11.820  23.071   6.465 -0.0655  0.1611 -0.1575
86517W        W29430   8.678  27.353   3.829  0.0084 -0.2012  0.0045
86518W        W29431   3.373  27.269   4.392  0.0674  0.1267  0.0694
86519W        W29432   9.723  30.697   7.520 -0.1778  0.2529 -0.0639
86520W        W29433  18.640  28.874   9.463  0.3530  0.0278 -0.3970
86521W        W29434  13.851  29.680  28.531  0.1636  0.3724 -0.1986
86522W        W29435   3.641  23.712   5.475  0.1565  0.5574 -0.0381
86523W        W29436  12.849   2.437   9.727  0.1347  0.4586  0.2593
86524W        W29437   4.585   4.930   8.029  0.2387 -0.2338  0.0050
86525W        W29438  18.116  27.457   7.219 -0.0696 -0.2218  0.0553
86526W        W29439   5.437   9.696   6.707  0.1007  0.1621  0.0841
86527W        W29440  15.429   6.525   3.891  0.1527 -0.0572  0.0668
86528W        W29441   9.464  27.096  26.904  0.1604  0.1938 -0.0562
86529W        W29442   7.598  29.933  11.790  0.0662  0.1496 -0.0544
86530W        W29443   9.864  25.999   9.945 -0.0261 -0.2320 -0.2013
86531W        W29444  19.234  21.241   6.907 -0.4109  0.0579  0.0439
86532W        W29445  31.160  32.951   6.821 -0.2216 -0.2875 -0.0242
86533W        W29446  16.693  34.300   4.526 -0.2504  0.1943 -0.1179
86534W        W29447   1.719  23.464   3.708  0.0216  0.3822  0.0646
86535W        W29448   4.509  33.935  10.678 -0.0357  0.0901  0.2698
86536W        W29449  12.760  30.831   9.976  0.1117 -0.1910 -0.2622
86537W        W29450   5.546  32.531  12.004  0.0501 -0.3712  0.0755
86538W        W29451  10.229  29.086  12.428 -0.1956  0.0416  0.1674
86539W        W29452   8.329  27.462   8.968 -0.1926 -0.1861 -0.2108
86540W        W29453   5.251  28.390  10.402 -0.0295  0.1597  0.1229
86541W        W29454  15.898  29.449   7.321  0.1167 -0.3069 -0.0717
86542W        W29455  12.887   5.154   7.110  0.0879  0.1669 -0.1710
86543W        W29456   9.614  28.652  10.838 -0.0861 -0.0909  0.2428
86544W        W29457   8.091   1.715   0.965  0.2405  0.0250  0.0752
86545W        W29458  32.561  30.815  28.853  0.0657  0.1345 -0.2113
86546W        W29459  30.777   8.722   6.870  0.0007 -0.1116  0.2701
86547W        W29460  32.659  26.839   7.131 -0.1216  0.2186 -0.3309
86548W        W29461   4.675   7.674  10.940  0.1819  0.0033  0.0349
86549W        W29462  10.564  34.240   7.804  0.1456 -0.0493 -0.1229
86550W        W29463   9.793  31.056   2.404  0.0024  0.3747  0.3643
86551W        W29464  33.063   1.597   3.398  0.1192  0.0195 -0.0017
86552W        W29465   3.666   1.570  11.467  0.2445  0.3670 -0.1649
86553W        W29466   7.060  19.983   4.193 -0.0716 -0.3789 -0.1031
86554W        W29467  14.639  33.457   9.048 -0.2213  0.1143 -0.1691
86555W        W29468  22.048  32.716   5.284 -0.0649  0.1681  0.0008
86556W        W29469   1.843   3.305   9.998  0.0471 -0.0415  0.3538
86557W        W29470   8.438  32.645   5.622  0.0611  0.2106  0.1681
86558W        W29471   1.256   6.169   9.750 -0.1667 -0.1071  0.2728
86559W        W29472   8.999   3.264  26.905 -0.1336 -0.2961  0.0448
86560W        W29473  11.822   2.404  27.528 -0.2693 -0.3458 -0.2600
86561W        W29474   4.838  12.384  11.407  0.1851 -0.2003  0.1410
86562W        W29475  32.827  27.157  21.408 -0.2167 -0.2144  0.1870
86563W        W29476  11.382  31.807  11.490  0.0417  0.1752 -0.1244
86564W        W29477  14.060  33.871  11.010 -0.2058 -0.4238 -0.0038
86565W        W29478  12.200   2.523   8.193 -0.1615  0.0332 -0.1390
86566W        W29479   2.032  31.054   8.356  0.1438 -0.1748 -0.0193
86567W        W29480  18.595  32.365   7.506  0.0196  0.0376 -0.1452
86568W        W29481   5.626   1.721  10.633 -0.0714 -0.0496  0.2738
86569W        W29482  11.534   4.007  10.104 -0.2139 -0.2053 -0.1058
86570W        W29483  15.302  29.123   5.573  0.1202  0.1453 -0.0098
86571W        W29484  17.468  22.100  22.234  0.2079 -0.0586  0.2839
86572W        W29485   9.652   7.756   4.219 -0.3892 -0.1501  0.0063
86573W        W29486   4.927  26.086   5.617 -0.2232 -0.1467 -0.1848
86574W        W29487   9.030  28.341   8.864 -0.1764 -0.1317  0.0478
86575W        W29488  31.715   0.088   5.545  0.1725 -0.0316  0.2093
86576W        W29489  10.199  31.530   6.607 -0.3162  0.0656  0.2475
86577W        W29490   2.130   0.927   6.733 -0.0818  0.0053  0.3308
86578W        W29491   8.435  21.714   1.369 -0.1542 -0.1631  0.1847
86579W        W29492  17.043  24.938   9.106 -0.0654  0.0717 -0.0235
86580W        W29493   8.641  26.363   4.889  0.0181 -0.1027 -0.0007
86581W        W29494   3.116  17.776   0.893  0.3114 -0.0250 -0.4081
86582W        W29495  34.070   6.321  10.173  0.0167  0.0922 -0.1395
86583W        W29496  11.748  32.154  11.444  0.0929  0.0280 -0.0382
86584W        W29497  32.921   6.350   7.098  0.1052 -0.2484  0.3205
86585W        W29498   6.787   1.618  29.689  0.0015  0.0697  0.0059
86586W        W29499   5.332  30.951  10.237  0.1087  0.0200  0.0875
86587W        W29500  32.121  31.783   4.448  0.3674  0.3558  0.2829
86588W        W29501   7.134  30.217  10.209 -0.0018 -0.1777 -0.0956
86589W        W29502   2.400  32.239   6.164 -0.1642 -0.1195  0.1570
86590W        W29503   8.184   1.847   8.394  0.0265 -0.0698  0.0031
86591W        W29504   5.982  24.490  24.647 -0.1489 -0.2203  0.1188
86592W        W29505  33.235   3.066   4.048  0.1049  0.0078 -0.1240
86593W        W29506  13.408  29.234   5.788  0.1032  0.1833  0.0437
86594W        W29507   8.492  31.748   8.692  0.0388 -0.1254 -0.1560
86595W        W29508  11.771   3.074   6.390 -0.0432  0.0707  0.0374
86596W        W29509   9.062  34.386   7.759  0.1381  0.0936  0.0946
86597W        W29510  21.791  17.013   4.642  0.1319 -0.0542 -0.3273
86598W        W29511  31.503  31.793  10.166 -0.3340  0.0765 -0.1316
86599W        W29512   7.727  31.039  22.341  0.0608 -0.2551  0.1116
86600W        W29513   4.829  28.154   9.351  0.0548  0.0599  0.0350
86601W        W29514  14.904  33.640   4.661 -0.1683 -0.1678 -0.1920
86602W        W29515   6.070  23.409   7.625  0.1717  0.0519  0.2515
86603W        W29516   4.079   0.040   2.799  0.1351  0.0499 -0.0019
86604W        W29517  15.426  14.794  27.688 -0.1261 -0.0928  0.2109
86605W        W29518   4.039   5.492  12.955 -0.1913  0.0055  0.0434
86606W        W29519  14.427  31.101   8.287 -0.5539  0.1293 -0.0744
86607W        W29520   6.827  23.495   9.267 -0.0156 -0.0144 -0.2822
86608W        W29521  14.677   0.064   1.180 -0.3150  0.0367 -0.2228
86609W        W29522  19.452  26.612   9.854  0.1415  0.2408  0.1604
86610W        W29523   9.876  30.388   3.089 -0.0362  0.2200  0.0355
86611W        W29524   7.548  30.426  28.221 -0.0561  0.0651 -0.0011
86612W        W29525  12.780  31.402   5.088  0.0970  0.1482  0.1656
86613W        W29526   9.913  24.782   3.046 -0.0538  0.0410 -0.2837
86614W        W29527  14.992  23.711   5.014  0.0705 -0.3181 -0.5354
86615W        W29528   3.751  29.696   9.878 -0.0597 -0.0485 -0.0681
86616W        W29529   2.888  30.834   7.046  0.0089  0.1148 -0.3430
86617W        W29530  12.222   2.681   3.224  0.1794 -0.0589  0.1985
86618W        W29531  15.077  24.611   8.991 -0.0794  0.0020  0.4122
86619W        W29532   7.961   6.858   4.142  0.0489  0.3725  0.3051
86620W        W29533  11.652   1.743   6.316  0.2090  0.0244  0.3020
86621W        W29534  15.703  25.432   9.447 -0.1932 -0.0763  0.2002
86622W        W29535  12.026  33.589  10.401 -0.2067  0.1494  0.0200
86623W        W29536  11.888  24.975   9.261  0.1620  0.0669  0.2221
86624W        W29537   3.411  33.001   8.953  0.0322  0.0798 -0.0870
86625W        W29538  10.902   1.592   6.935  0.0465  0.1909  0.2632
86626W        W29539   4.285   6.745  12.900  0.0395  0.1807 -0.0292
86627W        W29540   9.179   1.538   5.516 -0.2874  0.1043  0.0937
86628W        W29541  21.458  24.075  25.298  0.0143  0.1835 -0.2995
86629W        W29542   7.445   1.140   4.248  0.0563 -0.0593  0.0421
86630W        W29543   3.804   5.774  29.246  0.0201 -0.1152  0.2883
86631W        W29544   6.999  17.519  28.625 -0.3991  0.3250 -0.1140
86632W        W29545   5.822  32.040   6.667 -0.1264 -0.0721  0.0729
86633W        W29546  16.604  27.019   8.249  0.1418  0.0484  0.3023
86634W        W29547   6.347   0.545   3.288 -0.1464  0.0884  0.2658
86635W        W29548   6.020   3.748   8.051 -0.4139  0.1856 -0.0762
86636W        W29549   7.751   3.669   7.114 -0.2657 -0.2312  0.0275
86637W        W29550   5.224  31.009   0.974 -0.2645  0.0760  0.1382
86638W        W29551  13.797  31.867   8.948  0.1327 -0.2025 -0.0585
86639W        W29552   4.954  28.993   5.262 -0.0302 -0.2739  0.1421
86640W        W29553  10.412  34.147   9.661 -0.1077  0.1532 -0.1890
86641W        W29554   9.697  33.616  10.566  0.1198  0.0980  0.0307
86642W        W29555  10.552  27.686  10.787 -0.1884 -0.1081 -0.0440
86643W        W29556   8.527  25.214  10.498  0.0256 -0.0604 -0.0286
86644W        W29557  10.249  31.960   8.393  0.2366  0.0132 -0.2546
86645W        W29558   3.903  26.571   4.487  0.0874  0.0857 -0.1515
86646W        W29559   9.466  32.180   7.603 -0.2809  0.1010 -0.1789
86647W        W29560  19.132  25.994   6.491 -0.0544  0.5108  0.4837
86648W        W29561   3.339   8.567   0.508 -0.1913  0.0733 -0.1813
86649W        W29562   8.295  26.768   4.492 -0.1517  0.0554 -0.0621
86650W        W29563  10.991  23.250   6.326  0.0504  0.0101  0.1290
86651W        W29564  16.982   6.091   7.869  0.4844  0.3115 -0.0787
86652W        W29565   5.667  25.983   8.707  0.0968  0.1240 -0.0083
86653W        W29566   7.080  34.064   9.734  0.1977  0.0151 -0.1382
86654W        W29567   9.173   2.697  13.159  0.3929 -0.1673 -0.1353
86655W        W29568   6.141  24.926   8.623 -0.0717  0.0613 -0.1210
86656W        W29569  33.422   1.096  10.132  0.0520 -0.1463  0.1425
86657W        W29570   9.892   1.177  13.102  0.0735  0.0123 -0.0655
86658W        W29571   2.849  31.821   6.861 -0.1931 -0.0991 -0.1844
86659W        W29572   8.222  25.834   0.485 -0.0967 -0.0016 -0.0330
86660W        W29573   1.808   3.541   8.749 -0.0298 -0.0118  0.0400
86661W        W29574   7.409   7.734   4.060  0.4335  0.0033 -0.2724
86662W        W29575  10.605  21.318   9.143  0.1663 -0.0109 -0.1899
86663W        W29576   7.738  24.171   2.865  0.0997  0.1093  0.0965
86664W        W29577   4.194   7.900   0.315 -0.3157  0.0234 -0.0492
86665W        W29578  33.615  27.884   6.109 -0.1258 -0.3159 -0.0580
86666W        W29579  13.911   2.632  10.305 -0.1825 -0.1653 -0.2879
86667W        W29580   7.862   0.591   0.472  0.0024 -0.0833  0.0020
86668W        W29581  17.242   2.206   9.840  0.3031  0.1869 -0.0047
86669W        W29582  14.856  33.529   9.589  0.0041 -0.0401 -0.0989
86670W        W29583   2.928  23.890   8.899  0.1713 -0.0871 -0.0832
86671W        W29584  20.300  26.222   6.685  0.0090 -0.1419 -0.5293
86672W        W29585   9.166  32.799   6.469 -0.1417 -0.1054 -0.1518
86673W        W29586   4.223   3.529  28.444 -0.0142 -0.0588  0.4390
86674W        W29587  11.075   1.591  12.227 -0.0084 -0.1707 -0.0001
86675W        W29588   9.987   1.355   6.038  0.2524 -0.1102  0.0374
86676W        W29589   1.608   0.868  10.902 -0.0089 -0.2824 -0.1160
86677W        W29590  27.668  24.939   3.273  0.1509  0.0283  0.2347
86678W        W29591   7.526  28.909   2.776 -0.1036  0.2432 -0.0436
86679W        W29592  15.248  29.053   7.793 -0.0583 -0.3886 -0.4079
86680W        W29593   2.729  32.230   8.250 -0.0685 -0.2402 -0.2625
86681W        W29594   6.967   5.385  11.154 -0.0405 -0.2830  0.0181
86682W        W29595   0.448  33.882   6.609 -0.2302 -0.2219 -0.2163
86683W        W29596   0.660   0.781  10.927  0.0228  0.3007 -0.0680
86684W        W29597  29.601  19.415   8.913  0.0912 -0.0310  0.0579
86685W        W29598   8.891   8.378  29.755  0.1707  0.1139  0.1942
86686W        W29599   2.888  24.500   3.485 -0.1305 -0.5348  0.0120
86687W        W29600  16.813  26.792  10.594 -0.1685 -0.1677  0.2668
86688W        W29601  10.753  23.574   0.835  0.2568  0.0836 -0.1879
86689W        W29602   3.362   1.511  11.024  0.0879  0.3819 -0.3799
86690W        W29603  21.710  31.575   4.539  0.0566  0.0545 -0.2543
86691W        W29604   8.144  20.653   6.144 -0.2542 -0.4081  0.1680
86692W        W29605  11.448   1.867   9.688 -0.0125  0.3358  0.3036
86693W        W29606  17.340  25.462   5.285 -0.2561  0.3165  0.0624
86694W        W29607  15.127  23.803   8.782  0.1594 -0.1131  0.1369
86695W        W29608   9.588   1.540  10.317  0.3118  0.0064 -0.1448
86696W        W29609   9.011  30.854  10.792 -0.2494 -0.3337  0.0608
86697W        W29610   8.895  26.341   3.979 -0.2728 -0.0352 -0.0339
86698W        W29611   9.374  33.487   3.284  0.0903  0.3015 -0.1236
86699W        W29612   3.240   2.173   1.523  0.0289  0.1055  0.1126
86700W        W29613   6.870  21.170   7.855  0.0168 -0.4372  0.4925
86701W        W29614   0.783  27.777   2.304  0.0503  0.0765  0.0368
86702W        W29615   4.098   4.590   0.845 -0.0992 -0.0029  0.2981
86703W        W29616   3.326   9.989   8.979 -0.0867 -0.1286  0.1698
86704W        W29617   8.933  28.839   5.970  0.0375 -0.1881 -0.0940
86705W        W29618   2.472  16.400   6.481  0.0257 -0.0969  0.2715
86706W        W29619  17.469  27.960   9.426 -0.4381  0.0340  0.2487
86707W        W29620   6.496   2.124   5.348 -0.0373 -0.2088  0.0532
86708W        W29621   8.784   0.431   8.566 -0.1604  0.3061  0.1137
86709W        W29622  13.752   3.133   8.459 -0.0614 -0.0876  0.0301
86710W        W29623  30.852   1.313   2.945 -0.0039  0.0893  0.0274
86711W        W29624  32.634   6.143   5.530 -0.0797  0.0858  0.1334
86712W        W29625   9.185  29.725   7.693  0.0857 -0.3070 -0.4960
86713W        W29626   8.574  23.440   1.101  0.1253  0.1146  0.2555
86714W        W29627  17.115  13.996  23.171 -0.3995 -0.3630  0.5313
86715W        W29628   3.264  18.124   2.822 -0.3947 -0.0898  0.1246
86716W        W29629   8.667  29.625   7.314  0.0714 -0.1567  0.0712
86717W        W29630   8.154   0.460   3.662  0.2580 -0.2518  0.0900
86718W        W29631   9.836   0.810  28.869 -0.0478 -0.1180 -0.0682
86719W        W29632   2.792  31.977   9.694 -0.1698 -0.0349 -0.1916
86720W        W29633   6.676   2.504   7.738 -0.2313  0.0620 -0.1471
86721W        W29634   9.437   6.836  27.817  0.1090  0.2079 -0.1465
86722W        W29635   1.327   6.535  19.879  0.2481 -0.2976  0.0412
86723W        W29636  13.651  23.153  22.955 -0.0546 -0.0728 -0.0019
86724W        W29637   4.749   0.396   8.110 -0.0651 -0.0991 -0.2273
86725W        W29638  11.343  31.085  24.511  0.2102 -0.0753  0.1068
86726W        W29639   2.900   2.526   7.005  0.1310 -0.0330  0.3465
86727W        W29640  21.013  33.632   2.230  0.0016  0.3696  0.1311
86728W        W29641  12.224  12.164   1.593 -0.3552 -0.1254  0.1523
86729W        W29642  12.829  33.089   4.414  0.0416 -0.1161 -0.0622
86730W        W29643   1.189  25.007  22.247 -0.0973  0.4445  0.0107
86731W        W29644  10.721   0.017  27.420 -0.2794 -0.0302 -0.0847
86732W        W29645  13.524  24.629  26.468 -0.2106 -0.0365 -0.1081
86733W        W29646   7.033  22.612   3.561 -0.1270 -0.1367 -0.0622
86734W        W29647   1.841   0.041   4.906  0.1988 -0.0112 -0.0451
86735W        W29648   6.506   1.222   5.582 -0.0172  0.1776  0.0746
86736W        W29649   2.462  24.959  28.614 -0.1553  0.1286  0.1041
86737W        W29650  14.354  25.183   3.864  0.1809 -0.2776  0.2022
86738W        W29651   9.767   6.432   0.229  0.1269  0.1357  0.1089
86739W        W29652   8.914  24.543   0.174  0.2276  0.1406  0.1224
86740W        W29653  20.361  29.925   3.899 -0.2228  0.0771  0.0590
86741W        W29654  10.355   7.601   7.203 -0.2277 -0.1502 -0.0978
86742W        W29655  13.608  29.625   3.933  0.0909 -0.0709 -0.2059
86743W        W29656   7.161  26.253  23.206  0.1212  0.3323 -0.3029
86744W        W29657  16.291  13.105  23.691 -0.3570 -0.0825 -0.0439
86745W        W29658   3.307  12.613   4.114  0.0904  0.0576 -0.2876
86746W        W29659   4.393   4.462   1.275  0.1463 -0.0825 -0.2289
86747W        W29660  13.326  30.878  19.316 -0.2163 -0.1915 -0.0472
86748W        W29661   8.687   4.196   1.352  0.3428 -0.0281  0.0502
86749W        W29662  13.123   5.470   5.863 -0.2446  0.0719  0.0732
86750W        W29663  14.979  26.272   0.184 -0.1417  0.2364  0.0059
86751W        W29664  30.926   0.911  29.057  0.0683 -0.0581 -0.0332
86752W        W29665   7.260  24.430  26.114  0.0029 -0.1061 -0.7315
86753W        W29666   5.797  32.494   4.661 -0.3172  0.0271  0.1353
86754W        W29667   9.436   9.883  23.088  0.1610 -0.2898 -0.0918
86755W        W29668  13.405  24.441   1.865 -0.1031 -0.1859 -0.1568
86756W        W29669  19.184   6.511  20.457  0.0548  0.3394  0.1405
86757W        W29670  10.022  34.142  13.161  0.0257 -0.2114  0.1570
86758W        W29671   3.200   3.625  10.161  0.2230  0.0844 -0.0777
86759W        W29672  13.569   9.302  20.838  0.2475 -0.0691 -0.1717
86760W        W29673   8.760   3.546   5.968 -0.2494  0.2563 -0.0459
86761W        W29674  25.770   8.851  24.764 -0.0110 -0.0462  0.2508
86762W        W29675  13.927  25.745  22.783  0.0487  0.0354  0.1917
86763W        W29676  15.260   2.106  25.728  0.0608  0.1812  0.2449
86764W        W29677  32.022  20.409   9.063 -0.3850  0.1372  0.1066
86765W        W29678   7.866  24.666   2.711  0.0524  0.1928  0.1253
86766W        W29679  16.027   3.592   5.079  0.1387  0.0469 -0.5642
86767W        W29680  16.925   4.557   6.110  0.2004  0.2162 -0.1325
86768W        W29681   4.106  33.743  27.713 -0.1122  0.0956  0.0307
86769W        W29682   2.403  34.019   1.353 -0.1811  0.2684  0.0737
86770W        W29683   1.849  29.504   5.945 -0.0965  0.0404 -0.1289
86771W        W29684   6.418  24.683  10.528  0.1852  0.0660  0.1534
86772W        W29685   5.875  28.409   0.734  0.0249  0.1130 -0.1154
86773W        W29686  12.235  32.449  11.001 -0.0789 -0.2633  0.1841
86774W        W29687  10.311  22.694  22.091 -0.0941 -0.0353 -0.0419
86775W        W29688  11.960   0.661  10.670  0.1194 -0.2950 -0.2387
86776W        W29689   1.873   0.952   5.066 -0.0812  0.2989 -0.3468
86777W        W29690   1.591  32.179   2.416  0.0550  0.1873  0.1856
86778W        W29691   6.698   4.989   5.611 -0.0642  0.0254 -0.1722
86779W        W29692  10.784  33.791  22.572  0.0362 -0.0780 -0.1891
86780W        W29693  10.231  30.724   5.482  0.0882 -0.1390 -0.0352
86781W        W29694  15.287  27.757   4.462  0.0079 -0.0570  0.0582
86782W        W29695   0.132  20.162   8.102 -0.0903 -0.0440  0.0308
86783W        W29696   4.838  31.151   5.011 -0.1405  0.3490 -0.0253
86784W        W29697  14.355  33.683  20.758 -0.0450  0.2162 -0.2017
86785W        W29698  32.330  32.615   0.996 -0.0154  0.0149  0.0437
86786W        W29699   9.971  27.159   3.296 -0.0926  0.0793 -0.2642
86787W        W29700  13.911  27.425   5.607  0.0755 -0.2035 -0.1623
86788W        W29701   6.995  23.377  23.628  0.2492 -0.0843 -0.1629
86789W        W29702   9.111  30.793   0.181 -0.1883 -0.2898 -0.1537
86790W        W29703  24.660   6.455   6.161  0.0333 -0.0475 -0.1826
86791W        W29704  29.592  33.738  29.745  0.0570 -0.1935  0.1816
86792W        W29705  14.428  28.226  28.913 -0.1096 -0.0604  0.2467
86793W        W29706  17.364   1.456   3.389  0.0391 -0.3995  0.2670
86794W        W29707  13.886  32.812  11.747 -0.1490  0.0044  0.1057
86795W        W29708  10.155  28.169  29.187  0.1124 -0.0793 -0.1078
86796W        W29709   6.690   3.995   7.481  0.1011 -0.0355 -0.2114
86797W        W29710   8.479  33.975   0.151 -0.0468  0.0582 -0.1203
86798W        W29711  21.335  24.985   2.420 -0.2541 -0.1493 -0.0863
86799W        W29712  30.397  25.262  29.448  0.0245  0.0281  0.2342
86800W        W29713   5.915  30.329   1.984 -0.0554 -0.4474 -0.0459
86801W        W29714   3.923   3.004   2.362 -0.1831  0.2318 -0.2997
86802W        W29715  11.069  28.763   6.694 -0.2650  0.2259  0.2019
86803W        W29716  26.724  30.884   2.640 -0.0826  0.0044 -0.0548
86804W        W29717  19.042   0.004  19.789  0.0167 -0.1195 -0.1811
86805W        W29718   8.273  28.137   4.365 -0.3929 -0.1420  0.1603
86806W        W29719  31.506   3.126  22.536 -0.1442 -0.0190  0.0104
86807W        W29720  13.155   9.587   7.464  0.0390 -0.0145  0.0201
86808W        W29721  33.406   6.973  25.664 -0.2058  0.2703  0.0098
86809W        W29722   4.555  21.914   3.009  0.0621  0.6084  0.2914
86810W        W29723   7.067   9.374  11.463  0.2914  0.1361  0.1265
86811W        W29724  16.195   8.464   3.285 -0.1187  0.4292  0.1879
86812W        W29725  21.950  30.537   0.611 -0.0938  0.0199  0.0963
86813W        W29726  14.020  29.587   0.368 -0.2453 -0.1107 -0.3255
86814W        W29727   4.216  32.190  24.238 -0.0331  0.1879  0.0929
86815W        W29728   8.186  28.251   1.663 -0.0430 -0.4132 -0.0842
86816W        W29729   2.759  30.461   8.830 -0.0832  0.2996 -0.2888
86817W        W29730   9.457  33.166  29.442 -0.1029  0.1258  0.3050
86818W        W29731   7.161   0.231  19.784  0.2175 -0.0071  0.2609
86819W        W29732  10.256  23.090  28.276 -0.0901 -0.0604  0.1405
86820W        W29733  18.495  29.101   2.829 -0.0194  0.1275  0.3334
86821W        W29734   5.069  32.215  29.716 -0.1902  0.0204  0.2553
86822W        W29735   4.342   3.996  25.903  0.0587  0.3386  0.2976
86823W        W29736   7.650  33.702  29.746 -0.0505 -0.0817  0.1521
86824W        W29737   2.589   3.174  27.623  0.2107  0.1706 -0.4245
86825W        W29738  15.622   6.035   5.633 -0.1856  0.4175  0.0019
86826W        W29739  11.396  29.183  23.482  0.3391 -0.2151  0.0558
86827W        W29740   5.326  26.316   4.326  0.1171 -0.1182  0.0848
86828W        W29741  13.307  33.131  28.690  0.2652 -0.1273  0.1240
86829W        W29742   4.116  29.311   0.611 -0.1668  0.0110 -0.0251
86830W        W29743  12.968   0.697   6.570  0.0681  0.0246 -0.1744
86831W        W29744  14.191   1.334   4.863 -0.1311 -0.2441  0.0920
86832W        W29745  33.592  28.738   6.388 -0.2126  0.5671  0.0399
86833W        W29746   3.497   0.841  29.162  0.1818 -0.2880 -0.1942
86834W        W29747   2.366   2.202  27.730 -0.0954 -0.3251 -0.0266
86835W        W29748  15.077  31.056   2.168  0.4001  0.0074 -0.0901
86836W        W29749  10.103  30.606   5.994  0.3384 -0.0099 -0.0914
86837W        W29750  17.524   3.676   8.809  0.1823 -0.1560 -0.1732
86838W        W29751  14.372  27.710  25.383  0.1318  0.1401  0.1630
86839W        W29752  12.853   4.063  28.858  0.0857  0.0025 -0.0609
86840W        W29753  15.452  29.623   8.043 -0.1498  0.1188  0.1824
86841W        W29754   1.449   0.374  26.210 -0.0796 -0.2666  0.2650
86842W        W29755   4.790   1.798   4.105  0.0132 -0.0243  0.0850
86843W        W29756   0.474  33.351  21.750 -0.0495  0.2379 -0.0594
86844W        W29757  18.004  29.139  28.038 -0.1312  0.1200 -0.1358
86845W        W29758  17.763  32.852   5.813 -0.0600  0.0438 -0.0706
86846W        W29759  19.722  23.819  24.728 -0.0512  0.0685 -0.0752
86847W        W29760  31.686  34.155   2.279  0.1027  0.3884  0.2032
86848W        W29761  23.308  29.835  25.320  0.0894 -0.1390  0.4410
86849W        W29762  12.729   8.610  29.493 -0.1078  0.0523  0.1696
86850W        W29763   8.418  30.760   2.084 -0.3887 -0.2161  0.2666
86851W        W29764   2.003   0.384   6.955  0.1788 -0.1620 -0.0615
86852W        W29765  16.183  34.359  26.516 -0.1138  0.1633 -0.1580
86853W        W29766  13.791  20.781   4.813  0.0752  0.0063 -0.0252
86854W        W29767  12.951  34.169  25.652  0.0644  0.2337  0.0567
86855W        W29768  14.251  29.756  29.309 -0.1301 -0.1563 -0.1375
86856W        W29769  12.377   4.823   4.286 -0.2918  0.1429  0.0036
86857W        W29770   4.152  33.507   3.000  0.0142 -0.2275 -0.1131
86858W        W29771   9.791   4.263   9.666 -0.0017 -0.2231  0.0459
86859W        W29772  21.854   2.853  29.587  0.3413  0.0581  0.0936
86860W        W29773   5.356  26.352   1.861  0.0709  0.0525  0.0256
86861W        W29774   8.661  31.086   6.228  0.3112 -0.0889 -0.1464
86862W        W29775  16.857  24.223   3.300 -0.2380  0.2712  0.0293
86863W        W29776  17.689  25.984  25.945 -0.0229  0.4340  0.0673
86864W        W29777  11.580  26.814   8.200  0.2735  0.4205 -0.0984
86865W        W29778  11.275   3.193  25.683 -0.2225 -0.2429 -0.1970
86866W        W29779   8.217   7.293   6.134  0.1034  0.0608 -0.0583
86867W        W29780  10.748   7.964   3.324 -0.0732  0.0590  0.1823
86868W        W29781  11.991  33.822   2.455  0.1151  0.0966 -0.0513
86869W        W29782   7.156   9.679   1.096 -0.2055  0.0609  0.0461
86870W        W29783  14.006  32.450  11.398 -0.2077 -0.0430  0.3837
86871W        W29784   7.050   1.184   8.560 -0.0882  0.2132 -0.1522
86872W        W29785  10.467   2.546   8.850 -0.1018 -0.2033  0.0056
86873W        W29786  10.837  31.654  10.557 -0.3304 -0.0627 -0.0310
86874W        W29787  11.198   7.268  27.721  0.1010 -0.0240 -0.0600
86875W        W29788  16.716  27.715   2.812  0.4010  0.0388  0.2358
86876W        W29789  32.949  10.942   5.272 -0.0410 -0.0463 -0.2184
86877W        W29790   7.067  23.508  28.778  0.2272  0.3300 -0.0803
86878W        W29791  17.332  31.564   7.850 -0.0537  0.1624  0.0398
86879W        W29792   6.138  33.083  24.364  0.2716  0.2959 -0.1167
86880W        W29793   2.417   2.516  28.231  0.1325  0.1313 -0.1333
86881W        W29794  31.024  26.041   6.218  0.2502  0.0961  0.0850
86882W        W29795   8.685   6.051  11.643  0.0416  0.2843 -0.2732
86883W        W29796   8.819  27.808  20.124  0.1834  0.4357 -0.4759
86884W        W29797   1.519   7.574  16.919 -0.1955  0.1418  0.0733
86885W        W29798   4.547  33.537   6.406  0.1668 -0.0857  0.5832
86886W        W29799  14.173  25.675   3.937 -0.0911 -0.0101 -0.1353
86887W        W29800   4.649   1.458  27.923 -0.2818 -0.2433  0.0719
86888W        W29801  12.519  31.530   3.540  0.3602 -0.3011 -0.1478
86889W        W29802  34.352  32.505   9.084  0.3735  0.0005  0.1256
86890W        W29803   2.363  32.562   5.113  0.2449  0.0223 -0.1243
86891W        W29804   9.814  15.140  24.782 -0.0244  0.0764 -0.0572
86892W        W29805  17.794  14.261   1.724 -0.1381  0.2137 -0.2201
86893W        W29806   4.054   0.402  26.467  0.0160  0.0498  0.0036
86894W        W29807  10.296  32.970  26.127 -0.1901  0.3035  0.1770
86895W        W29808   1.598  30.669   5.338 -0.1845 -0.0011  0.1209
86896W        W29809   4.839  28.322   7.461 -0.0406  0.2792  0.1603
86897W        W29810   7.815  12.951   5.113  0.2166 -0.1480 -0.1127
86898W        W29811  15.436  28.038   4.940  0.2538  0.2162 -0.2717
86899W        W29812   8.819   3.274   1.194  0.1673 -0.1108  0.3763
86900W        W29813   9.304   3.183   3.314 -0.1880  0.0717 -0.1513
86901W        W29814  32.237  26.462  25.508  0.1888  0.2804 -0.4186
86902W        W29815  17.613   2.184   3.730  0.0509  0.1225  0.0907
86903W        W29816  14.190  33.857   7.547  0.0209  0.0896  0.0309
86904W        W29817  11.482   1.785  25.949  0.0203 -0.0099  0.0372
86905W        W29818   0.705   1.190   6.280  0.0131 -0.1977 -0.0269
86906W        W29819  14.744   9.303   4.887 -0.1486  0.3716 -0.0865
86907W        W29820  12.919  26.691  23.654  0.0837 -0.0631  0.1073
86908W        W29821   9.822  33.776  25.380  0.1870  0.1029  0.0237
86909W        W29822   5.502  20.643   1.758  0.2062 -0.2878  0.2869
86910W        W29823  31.581  27.704  28.553  0.2430  0.1402  0.1078
86911W        W29824   8.198  28.467  28.175 -0.0672  0.0578  0.1017
86912W        W29825   4.371  28.818  26.487 -0.0969 -0.1731  0.0594
86913W        W29826  16.311  12.986  26.702  0.0713  0.1252 -0.1113
86914W        W29827   8.771  33.596  17.698 -0.1386 -0.1008  0.0808
86915W        W29828  15.205  29.740   2.184  0.1827  0.0687  0.0881
86916W        W29829  15.054  21.703  21.694 -0.0129 -0.1991 -0.1347
86917W        W29830  11.262  19.650   7.493  0.1007  0.0505 -0.0267
86918W        W29831  11.599  27.831   5.824  0.2466 -0.0751 -0.0769
86919W        W29832  15.920   1.366   0.675  0.1921 -0.2463 -0.0163
86920W        W29833  15.960   6.342   7.363  0.0734 -0.0070  0.2031
86921W        W29834   3.941  34.326  28.331 -0.2732 -0.3265 -0.0007
86922W        W29835   6.656  25.895  28.832 -0.4649 -0.0274 -0.0308
86923W        W29836   8.309  31.446   0.724  0.0335  0.0228  0.2960
86924W        W29837  10.244   4.559   1.513 -0.1062 -0.2306 -0.0577
86925W        W29838  25.317   0.916   1.448  0.2866  0.0680 -0.1197
86926W        W29839   4.955  29.469   4.193 -0.0576  0.0952 -0.3701
86927W        W29840   7.738  31.294   8.189  0.0363  0.1496  0.1975
86928W        W29841   5.702  27.936   2.421  0.2575  0.3077  0.1276
86929W        W29842  11.627   1.951   5.014 -0.1321 -0.2330  0.0021
86930W        W29843  20.053  32.648  17.798 -0.0807  0.0291  0.1595
86931W        W29844   2.431  11.424   2.986 -0.0362  0.0018 -0.2375
86932W        W29845  20.666  28.681   3.117 -0.1459  0.0706  0.0404
86933W        W29846  10.688  33.479   9.711 -0.4558 -0.0692  0.1982
86934W        W29847  11.024  32.183   7.670  0.1675  0.0768 -0.0962
86935W        W29848  13.428  30.501   6.191  0.0565  0.0928 -0.0957
86936W        W29849  32.289   0.348   5.781 -0.0776  0.1739  0.1491
86937W        W29850  31.086   1.983   7.066 -0.0102  0.1172  0.0141
86938W        W29851  21.595  32.652  28.882 -0.1919 -0.2846 -0.4702
86939W        W29852  13.824   3.408   7.126 -0.0014  0.0408 -0.2568
86940W        W29853   7.585  33.257   9.497 -0.2014  0.1121  0.2505
86941W        W29854   9.730  27.888   9.663 -0.2371 -0.0944 -0.2208
86942W        W29855  13.484   0.540  11.697  0.4514 -0.1054  0.0041
86943W        W29856  32.936  29.552  10.109 -0.2918  0.2158  0.1861
86944W        W29857  16.026   4.785  29.345  0.1322  0.3256  0.0195
86945W        W29858  10.732   3.641  12.452  0.3345 -0.1496 -0.1641
86946W        W29859   6.583  31.732   5.316  0.0387 -0.0365 -0.2099
86947W        W29860   6.647   7.008   7.557 -0.3274 -0.1419 -0.0640
86948W        W29861   9.410   1.845   0.258 -0.2533 -0.2991 -0.0903
86949W        W29862   5.937   4.518   4.047  0.2450  0.2532 -0.1016
86950W        W29863   7.236  31.940  26.829 -0.1762  0.2211  0.1803
86951W        W29864   5.593   4.269  26.657  0.0095 -0.0173  0.1989
86952W        W29865  12.691   6.643   3.417  0.1084 -0.0117 -0.2286
86953W        W29866   3.865   1.210  19.340 -0.2843 -0.1585 -0.2635
86954W        W29867  33.170  18.748   4.199  0.1652 -0.0704 -0.1930
86955W        W29868  19.910  31.534  28.063 -0.0699  0.3360 -0.2033
86956W        W29869  17.024  33.637   5.489  0.1137 -0.0637  0.2230
86957W        W29870  10.171  25.441   5.404  0.1168 -0.0644 -0.0439
86958W        W29871  15.763   5.930   8.750 -0.1885  0.1836 -0.4181
86959W        W29872   5.577   3.424  13.615  0.2358  0.2628 -0.0709
86960W        W29873  32.910   0.243   3.991  0.1999 -0.1573  0.2625
86961W        W29874   3.182   6.738   5.619 -0.3916  0.0558 -0.0683
86962W        W29875   6.092   5.396   1.722 -0.0717  0.0486 -0.1711
86963W        W29876  10.451   8.190   6.431 -0.0607 -0.1390 -0.0351
86964W        W29877  12.449  18.961  29.170 -0.2595 -0.1988  0.0722
86965W        W29878   7.935   6.099  21.463  0.2308 -0.1674 -0.0136
86966W        W29879  16.488  30.944   7.981  0.0217 -0.0456  0.0054
86967W        W29880   3.359   0.098  11.546 -0.2064 -0.0455  0.0526
86968W        W29881  11.569   4.832   9.793  0.2053  0.3834 -0.4517
86969W        W29882  10.413  21.788   4.166  0.2967  0.3580 -0.2126
86970W        W29883  30.242  17.135   7.481 -0.0271  0.0564 -0.1923
86971W        W29884   3.946  32.421   8.479 -0.2397 -0.4506  0.0187
86972W        W29885   3.796  28.457  27.833 -0.1744 -0.2780 -0.0202
86973W        W29886  18.157  22.223  28.897 -0.0631 -0.0045 -0.1017
86974W        W29887  12.323   0.906   1.827  0.2483  0.1114 -0.4075
86975W        W29888   0.182   1.183   8.000 -0.3352  0.3188 -0.1537
86976W        W29889   9.353  21.022   5.791  0.0823 -0.3719 -0.1030
86977W        W29890   3.757   0.077   6.953 -0.0845 -0.2513 -0.0702
86978W        W29891  14.429  33.514   7.814  0.1959 -0.1130 -0.0282
86979W        W29892  14.339   2.217  10.057 -0.0151 -0.0356 -0.4277
86980W        W29893   4.792  20.897   7.868 -0.0892  0.0885  0.2230
86981W        W29894  12.876  30.791   7.985 -0.0386  0.1242 -0.1736
86982W        W29895  11.197  33.413   2.964 -0.0760  0.6298  0.6190
86983W        W29896  10.667   3.504   6.288  0.2060 -0.1501 -0.0658
86984W        W29897   1.746  30.068   6.720  0.2652 -0.0502  0.0190
86985W        W29898   5.569  31.086  27.214  0.1836 -0.3757 -0.3630
86986W        W29899   9.025   5.530   9.905  0.0853 -0.1690 -0.0828
86987W        W29900  17.265  25.429   7.016 -0.0243  0.1648  0.1334
86988W        W29901   5.322  29.935   3.159  0.3380 -0.0478  0.0956
86989W        W29902   6.946  30.507  29.005  0.3252  0.2946 -0.1121
86990W        W29903  12.133   5.741   9.079  0.0230 -0.2211  0.0051
86991W        W29904   6.370  28.713   3.093 -0.0602 -0.0606 -0.2326
86992W        W29905   6.148   6.798  11.192  0.1355  0.1271  0.2337
86993W        W29906   0.335  26.513  14.624  0.2096 -0.0117  0.2774
86994W        W29907  17.089  29.369  25.388  0.1107 -0.2284 -0.0452
86995W        W29908   1.752   5.741   4.347 -0.0346 -0.0760 -0.3187
86996W        W29909   6.778   0.012   0.835  0.1192 -0.3359 -0.0537
86997W        W29910   6.448  29.548  11.723  0.2825 -0.1952  0.0674
86998W        W29911   3.303  30.388   0.515  0.2676 -0.1370  0.0326
86999W        W29912  10.859   1.214  28.265  0.0579 -0.2105 -0.1162
87000W        W29913   1.926   0.669   3.016  0.1497 -0.2080  0.2500
87001W        W29914  12.175   6.345  25.930  0.3413 -0.0405  0.5455
87002W        W29915   8.181  32.121   1.572 -0.2835 -0.0213 -0.6614
87003W        W29916  16.090   0.375   3.305  0.0086 -0.2448  0.1129
87004W        W29917   3.945  30.101   7.266 -0.1400  0.0666 -0.0337
87005W        W29918  21.617  26.756   7.540  0.3998 -0.1955  0.2426
87006W        W29919  16.996   3.541  27.089 -0.0302  0.0127 -0.1459
87007W        W29920   7.649  32.354   9.355 -0.1637 -0.0678 -0.2225
87008W        W29921   8.143   2.565  23.744  0.1951 -0.1504  0.0577
87009W        W29922   0.181  32.791   1.777  0.0274  0.0140 -0.1034
87010W        W29923   9.926  28.278   8.398  0.3250 -0.1874  0.0293
87011W        W29924  17.725   9.827   1.883 -0.1988  0.0575  0.2328
87012W        W29925   5.480  28.656   9.500  0.0247 -0.5306  0.3428
87013W        W29926  15.064  11.629   2.722  0.3718 -0.1043  0.0874
87014W        W29927  14.396  31.332   5.877  0.2217 -0.0310 -0.4113
87015W        W29928   3.438   4.682  12.628  0.2524 -0.0876  0.0213
87016W        W29929  10.859   0.570   1.243 -0.1916  0.1646  0.0004
87017W        W29930  22.421  33.002  28.003  0.5752  0.1750  0.2524
87018W        W29931   6.147  28.214   9.412  0.0401 -0.0667  0.1873
87019W        W29932  21.492   2.608   4.400 -0.0973  0.1156  0.0410
87020W        W29933  14.082  26.801  25.652 -0.0982  0.0782 -0.0312
87021W        W29934   4.777   3.617   3.984 -0.1837  0.1886 -0.0032
87022W        W29935  11.226  31.819   6.738 -0.1133 -0.0251 -0.0975
87023W        W29936  33.183  27.598   4.026  0.1357 -0.0819 -0.4328
87024W        W29937  12.378   7.706  21.188  0.0704 -0.2952  0.1597
87025W        W29938   8.642  29.933  23.676  0.1712 -0.0034 -0.1487
87026W        W29939   4.353  33.455  25.574 -0.0059 -0.0639 -0.0713
87027W        W29940  12.728  28.245   5.902 -0.0244 -0.1557 -0.0078
87028W        W29941  21.796   0.316   8.146 -0.0112  0.1179  0.2603
87029W        W29942   0.212   7.451   7.323  0.0771 -0.1042  0.1725
87030W        W29943   9.769  30.534   4.751  0.2191 -0.3020  0.0362
87031W        W29944   4.262  24.684   2.271 -0.0276  0.1563  0.2323
87032W        W29945  15.045   0.549   7.327  0.2491 -0.0266  0.1060
87033W        W29946  15.855   3.660  10.000  0.0732 -0.3333  0.1927
87034W        W29947   2.571   1.994  11.328  0.0735  0.0651 -0.0744
87035W        W29948   6.196  29.805   1.805  0.0120  0.2775 -0.0612
87036W        W29949  33.873  32.156  27.458 -0.1102  0.2186 -0.0030
87037W        W29950   0.430   7.455   3.725  0.3776 -0.1805  0.2710
87038W        W29951  13.786  27.154   4.325  0.0976  0.0901 -0.0806
87039W        W29952  10.972  10.641   8.101 -0.0752 -0.0898 -0.3316
87040W        W29953   2.525  26.260   6.890 -0.0111  0.1914  0.3959
87041W        W29954  27.032  28.444  27.944  0.3535 -0.2738 -0.1331
87042W        W29955   8.558   3.973   4.984 -0.0153  0.0980 -0.0291
87043W        W29956  12.963  10.650  28.336  0.1828  0.1395 -0.0536
87044W        W29957   1.215  30.159   6.552 -0.1143  0.1742 -0.3672
87045W        W29958  18.871  19.053   8.615 -0.3497 -0.3444 -0.0860
87046W        W29959   9.192  32.273   5.840 -0.1511 -0.0889 -0.3793
87047W        W29960   2.149   3.266   7.476 -0.3502 -0.0809 -0.0255
87048W        W29961  14.635  29.284   4.180 -0.0380  0.2897 -0.0359
87049W        W29962   0.652   0.430  27.479  0.2035  0.1689 -0.2192
87050W        W29963   8.544   2.554   5.954  0.0986  0.3051  0.1436
87051W        W29964   6.102  25.997   3.823  0.1440 -0.0082 -0.0900
87052W        W29965  14.448  30.571  10.502  0.1698 -0.0048 -0.1544
87053W        W29966  17.098  29.325   1.475 -0.1415  0.0307  0.4396
87054W        W29967   3.129   1.359   3.500  0.1077  0.1295 -0.0090
87055W        W29968   4.480  31.430  19.023 -0.2274 -0.2045 -0.3054
87056W        W29969   7.268  27.538   1.564 -0.2565 -0.0658  0.1204
87057W        W29970  13.140  32.170   3.847 -0.1252 -0.2351 -0.2644
87058W        W29971   3.778  22.444   7.257  0.0098 -0.0364 -0.0343
87059W        W29972  15.830   4.348   2.798  0.0023 -0.3282 -0.2901
87060W        W29973   8.805   2.662   7.956 -0.0693  0.1207  0.4343
87061W        W29974   8.865  26.074  25.508 -0.2488 -0.3554 -0.0425
87062W        W29975  14.238   8.875   7.794 -0.1015  0.1692  0.0722
87063W        W29976   7.910   0.767   8.611  0.2750  0.0049 -0.0560
87064W        W29977  32.485  26.332   9.538  0.1024  0.0190  0.0525
87065W        W29978  16.813  23.564   2.594 -0.0405  0.1859  0.0448
87066W        W29979   7.194   4.700   6.281  0.0080  0.0494  0.0750
87067W        W29980   9.168  31.933  27.148 -0.0091 -0.0627  0.1027
87068W        W29981  15.679  25.509   0.404  0.1474  0.0223  0.0540
87069W        W29982   0.932   7.263   8.931 -0.1511 -0.0030  0.4011
87070W        W29983   7.699   0.359   7.831 -0.1430  0.0518 -0.2286
87071W        W29984  13.446  33.004  11.915 -0.0092  0.0084  0.0980
87072W        W29985  12.685   6.771  28.294  0.0204 -0.0855  0.0503
87073W        W29986   7.069   7.734   7.044  0.0439 -0.1252  0.1290
87074W        W29987   8.984  33.089  12.707  0.0465  0.1622 -0.2155
87075W        W29988   5.952   6.895  10.753 -0.2941  0.0721  0.2500
87076W        W29989  29.477  20.202   5.771 -0.1470  0.2583 -0.0417
87077W        W29990  11.334  30.771  24.949 -0.0718 -0.1372 -0.0090
87078W        W29991  13.703  28.624   7.077 -0.2240 -0.1746  0.0531
87079W        W29992   2.790   0.891   2.191  0.0707 -0.0187  0.2291
87080W        W29993  10.457  33.338   1.844  0.2077 -0.0929  0.1806
87081W        W29994  14.570   9.350   9.113 -0.2800  0.0883  0.1038
87082W        W29995   6.957   3.014   2.872 -0.0606  0.0397 -0.0646
87083W        W29996   5.036  32.715   7.117 -0.0307 -0.0394 -0.0130
87084W        W29997  20.793  30.783   9.795  0.3074 -0.0787  0.0150
87085W        W29998   5.090   5.152  11.519 -0.0115 -0.0739 -0.4288
87086W        W29999   9.264  30.184  26.674 -0.1317 -0.3240 -0.0368
87087W        W30000   2.793   3.064  11.548  0.1586  0.0417  0.1194
87088W        W30001  33.018  10.138   4.525  0.0200 -0.3363  0.1411
87089W        W30002   0.383  32.168   7.809 -0.1152 -0.0997 -0.1305
87090W        W30003  16.263   9.935   2.244 -0.0126  0.4164  0.2882
87091W        W30004  31.319  33.518  29.241  0.0987  0.0114 -0.1786
87092W        W30005  10.149   5.053   1.223  0.3513 -0.0558  0.1541
87093W        W30006  11.653  32.532   5.200  0.0433  0.0924 -0.1278
87094W        W30007   6.623  30.995   1.844 -0.2691  0.0609  0.2097
87095W        W30008   6.366   7.135  10.348  0.2229  0.2548 -0.2720
87096W        W30009   1.042   2.592  11.876  0.1979  0.1244 -0.0713
87097W        W30010   2.559   1.280   4.018  0.2460  0.0501  0.0955
87098W        W30011   9.516  29.530   2.608 -0.1210  0.2989 -0.0619
87099W        W30012   2.526  28.822   8.432 -0.0570  0.0081 -0.0839
87100W        W30013   9.297  33.244   3.946  0.1535 -0.2830  0.3586
87101W        W30014   1.881   2.930  16.825 -0.1576 -0.1178 -0.0205
87102W        W30015  29.746  22.406   7.988 -0.0031 -0.1837  0.5528
87103W        W30016   7.538   1.094   2.289  0.2059  0.0881 -0.1013
87104W        W30017  11.472  31.606   9.580  0.0368  0.0903 -0.1875
87105W        W30018  17.603   0.455   6.157  0.3020  0.0080  0.0871
87106W        W30019  15.166   7.551   0.386 -0.0056  0.1676  0.2812
87107W        W30020   9.386   1.332   9.247  0.2242  0.1698 -0.1784
87108W        W30021   4.400   1.639   0.798 -0.2478  0.2655 -0.1860
87109W        W30022   8.156   8.251   7.792  0.0535 -0.4705  0.0630
87110W        W30023   5.905   6.639   8.725 -0.3320 -0.2226  0.2493
87111W        W30024  19.662  31.387  26.860  0.2938  0.0955  0.2705
87112W        W30025  14.588   6.145   9.618 -0.1460 -0.2949  0.0272
87113W        W30026  10.962   9.933   2.976  0.2798  0.2780 -0.2618
87114W        W30027   9.438  31.928  11.800  0.1808 -0.2046  0.3857
87115W        W30028  12.784  30.704  11.184  0.0015 -0.0576 -0.1007
87116W        W30029   6.383  32.564   0.058  0.2828  0.2084  0.0097
87117W        W30030   1.854  10.317   5.863 -0.2104 -0.3282  0.0072
87118W        W30031   2.983  25.526   2.393 -0.1734 -0.2002  0.0511
87119W        W30032  32.257  11.230   5.449 -0.6501 -0.1316 -0.1782
87120W        W30033   8.478  34.235  10.536  0.0356 -0.0094 -0.1086
87121W        W30034   4.319   0.946  10.564  0.2776 -0.0147  0.0188
87122W        W30035  33.534   1.075   2.895  0.0537  0.1132  0.3185
87123W        W30036   9.155  29.991   8.198 -0.1437 -0.0433  0.2410
87124W        W30037  29.583   7.746   8.304 -0.2448  0.3146 -0.0969
87125W        W30038  16.992   3.007   6.209 -0.1876 -0.1132 -0.2342
87126W        W30039   4.742   1.649   4.574 -0.1032  0.2271 -0.3505
87127W        W30040   3.587   2.038  28.559 -0.1017 -0.0570  0.2675
87128W        W30041  14.493   1.129   4.514  0.2003 -0.2068 -0.0515
87129W        W30042   6.533   4.043   1.101  0.1118 -0.1167 -0.2619
87130W        W30043  16.192  15.153  27.791  0.1468 -0.0526  0.1023
87131W        W30044   9.275  32.522   2.578 -0.0539 -0.0609 -0.1212
87132W        W30045   7.938  33.071   5.073 -0.2461  0.0924 -0.1694
87133W        W30046  10.537  32.194  11.258 -0.0007 -0.0576  0.2856
87134W        W30047   9.087   6.593   3.581 -0.0082 -0.0781  0.2484
87135W        W30048   6.255  29.994   3.034 -0.2238  0.1835  0.3759
87136W        W30049  11.134  33.110  10.171 -0.0335  0.0433 -0.1133
87137W        W30050  11.400   0.355   9.667  0.1923 -0.0867 -0.0090
87138W        W30051  17.147   6.688  25.102  0.3405  0.1045 -0.2417
87139W        W30052   9.042   5.957   9.652  0.2697  0.3009  0.1444
87140W        W30053  14.709  28.836   7.555  0.1407 -0.4416  0.0928
87141W        W30054  20.366   1.210   1.038 -0.1236  0.0440 -0.0316
87142W        W30055  12.281  26.920  19.226  0.0925  0.1991  0.3207
87143W        W30056   5.465  26.222  23.803 -0.0610  0.0166  0.0605
87144W        W30057   6.902   6.013  24.756 -0.1778 -0.1479  0.3260
87145W        W30058  14.546  25.419   2.976 -0.0832 -0.0600 -0.4841
87146W        W30059  31.927  33.183  10.817 -0.2153 -0.1636  0.2037
87147W        W30060   8.737   5.425  12.244 -0.2398  0.2689 -0.3867
87148W        W30061   8.740  30.597   8.748 -0.1182  0.0431 -0.0203
87149W        W30062  12.201   3.214   3.189 -0.0080 -0.0835 -0.0953
87150W        W30063   8.751   4.783  12.427 -0.0297 -0.1974 -0.1172
87151W        W30064   5.463  25.507   7.881 -0.1625  0.1886 -0.0844
87152W        W30065   9.885  34.025  27.782 -0.0272 -0.2929 -0.1136
87153W        W30066   4.767  29.775  10.081 -0.3597 -0.1424 -0.0945
87154W        W30067  10.104   0.181  13.131 -0.0627 -0.0018  0.2505
87155W        W30068   6.626   3.367   3.549  0.1761  0.1265  0.1733
87156W        W30069   6.938  10.769   4.503 -0.1528  0.1988  0.1111
87157W        W30070  14.123   8.229   4.897 -0.0614  0.0744 -0.0704
87158W        W30071   9.276   6.901  28.448  0.0735 -0.2110  0.0297
87159W        W30072   3.487  31.401   6.348 -0.0632  0.1183  0.2207
87160W        W30073   9.908  34.467   9.185 -0.1476  0.4942  0.1207
87161W        W30074  11.042   5.037  10.758  0.0922 -0.1296 -0.3384
87162W        W30075   6.003  31.695  10.706 -0.2969 -0.0818  0.2008
87163W        W30076   4.046  30.313   8.600  0.0212 -0.2845  0.2014
87164W        W30077  15.348   7.412  10.047 -0.0705  0.0038 -0.0393
87165W        W30078   6.966   9.138   2.029  0.1214 -0.3669 -0.2308
87166W        W30079   7.803   6.965   6.062  0.0743  0.1586 -0.0233
87167W        W30080   1.836   8.946  27.551  0.2496  0.0249 -0.2057
87168W        W30081  10.286  24.322  10.400  0.1193  0.2128  0.0522
87169W        W30082   4.573  31.227   9.598 -0.1992 -0.0653  0.1727
87170W        W30083  11.944  23.740   9.646 -0.0030  0.1234 -0.0296
87171W        W30084  18.960  22.953   7.145 -0.0653 -0.1269 -0.0430
87172W        W30085   5.598  33.897   2.388  0.1307  0.0338 -0.5001
87173W        W30086  22.452  33.705  10.246 -0.1688  0.0215 -0.1753
87174W        W30087  30.277   0.938   4.729  0.2322  0.0885 -0.2580
87175W        W30088  10.601   5.844   7.493  0.0414 -0.0121  0.3233
87176W        W30089  11.804  32.273   6.124  0.3703 -0.1231 -0.3769
87177W        W30090   5.177  12.435   6.032  0.4087 -0.3028 -0.1749
87178W        W30091  10.893  24.841   1.062 -0.1081 -0.2207  0.0323
87179W        W30092   1.463  33.074   7.827 -0.1930  0.0879  0.0083
87180W        W30093  33.420   1.871   8.731  0.0069  0.0333  0.0375
87181W        W30094   8.337   4.082   6.572  0.1317 -0.0353  0.1261
87182W        W30095  10.874  30.820   7.270  0.1712 -0.2344  0.1027
87183W        W30096  12.503  33.719   8.898  0.3275 -0.0459  0.0338
87184W        W30097   6.286  28.124   8.049 -0.1840  0.1929  0.0980
87185W        W30098   6.763   6.343   1.956 -0.0342 -0.1156  0.0312
87186W        W30099   9.226   0.245  10.086  0.0930  0.4785 -0.1165
87187W        W30100  17.338  33.059   8.121  0.1931  0.1557  0.1108
87188W        W30101   0.609  32.805   8.206 -0.1249  0.0566  0.2366
87189W        W30102   7.914  22.580   2.982  0.4576  0.0341 -0.1782
87190W        W30103   8.846   7.696   7.677 -0.2608 -0.1783 -0.0071
87191W        W30104  12.978  30.321  28.756 -0.2293 -0.0739 -0.0226
87192W        W30105   9.531  31.398   6.013  0.4018  0.1584 -0.1633
87193W        W30106  11.830  32.097   8.304  0.0832  0.0425 -0.1245
87194W        W30107   5.545  21.245  20.172  0.1697 -0.0112  0.2617
87195W        W30108   6.933   4.730   8.072 -0.0885 -0.0952  0.2317
87196W        W30109   3.194   3.763   9.046 -0.1638 -0.0455 -0.0803
87197W        W30110  34.156   0.772   4.098 -0.1040  0.2618  0.1745
87198W        W30111   9.860  11.838   9.403 -0.5326 -0.5165 -0.2899
87199W        W30112  17.877  22.544  24.090  0.0124 -0.0682  0.0673
87200W        W30113  10.281  26.087   3.789 -0.0501 -0.2726 -0.0687
87201W        W30114   7.819   2.311  12.097  0.3492 -0.1809 -0.0184
87202W        W30115  13.566   1.001  10.852  0.0532  0.0330 -0.0185
87203W        W30116   7.555  32.187  10.522 -0.3777 -0.0754 -0.2185
87204W        W30117  16.747   0.622   0.891  0.0890 -0.0695  0.0731
87205W        W30118   5.241  28.927  10.423  0.0929  0.0701  0.1211
87206W        W30119   5.954   8.280   0.758  0.0754 -0.1068  0.2296
87207W        W30120   6.428  26.850  10.604  0.0609 -0.0148 -0.1743
87208W        W30121   9.699  34.384   7.513  0.0140 -0.1889  0.4077
87209W        W30122  27.427   8.058   8.691  0.2068  0.1572 -0.3009
87210W        W30123   5.884   5.762  24.389  0.2101 -0.1700  0.1320
87211W        W30124   2.149   1.235   0.665  0.0661 -0.0476 -0.1875
87212W        W30125   5.053  30.339   3.256  0.1098  0.1004  0.0224
87213W        W30126   8.970   0.948  11.750 -0.3887 -0.2001  0.2108
87214W        W30127   5.106   6.440   3.696  0.2180 -0.0068 -0.0350
87215W        W30128  10.190   4.139   6.701 -0.1338 -0.0655  0.2605
87216W        W30129  10.101  25.769   6.106  0.0578  0.2978 -0.0659
87217W        W30130   6.907  32.908  28.662 -0.0203 -0.0430  0.1543
87218W        W30131   9.577   0.394   4.929  0.2540  0.1102 -0.3715
87219W        W30132  14.682  23.202   2.303  0.0453 -0.0601 -0.1273
87220W        W30133  12.744  27.892  29.267  0.1410 -0.1509  0.1171
87221W        W30134  15.467  26.554   4.753 -0.1838  0.0950  0.0884
87222W        W30135  12.921  32.008   8.545  0.1095 -0.0748 -0.0924
87223W        W30136  32.084   0.625   8.517  0.0297 -0.1143  0.0135
87224W        W30137  12.844   2.943   8.693  0.0869 -0.0253 -0.2032
87225W        W30138   7.665   0.172  11.804  0.0558  0.0958  0.1438
87226W        W30139  17.092  32.035  10.925 -0.2082 -0.2952 -0.3286
87227W        W30140   9.125  23.912   9.494  0.3589 -0.0301 -0.2417
87228W        W30141   8.660  30.013   7.790 -0.1209  0.0860 -0.2631
87229W        W30142   7.340  14.141   8.614 -0.2962 -0.1168  0.1095
87230W        W30143  12.399  30.193   6.152  0.0763 -0.0967  0.3868
87231W        W30144   8.617  23.429  10.297 -0.2106 -0.0202  0.1823
87232W        W30145   3.422   2.100   4.236  0.2704 -0.3732 -0.0190
87233W        W30146  13.352   0.055  10.007 -0.0782 -0.1537 -0.0777
87234W        W30147  14.178  27.624  10.542 -0.0531  0.1550 -0.0872
87235W        W30148  11.260  30.040   6.629 -0.2037  0.1260  0.2095
87236W        W30149  25.894   7.789   0.323  0.0067  0.3173 -0.1016
87237W        W30150  11.623  31.999  10.560 -0.0656  0.0384  0.1260
87238W        W30151  13.221   2.318   4.271  0.0568  0.0028 -0.0684
87239W        W30152   8.966  24.253   2.024  0.1810  0.2171 -0.2708
87240W        W30153  30.904  33.717   5.546  0.2241 -0.1547 -0.0898
87241W        W30154   6.329  25.688   8.084 -0.0288  0.4404 -0.1006
87242W        W30155   5.468  29.397   1.061 -0.1480  0.1248 -0.1739
87243W        W30156   1.075   1.435  29.672 -0.1299 -0.1675  0.2783
87244W        W30157  18.211   8.119   3.910 -0.0017  0.3860 -0.2520
87245W        W30158   9.147   4.353  13.775 -0.1534  0.2081  0.1281
87246W        W30159  33.786   8.984   6.570 -0.1973  0.1349 -0.0065
87247W        W30160  10.917  32.528  10.326 -0.0795 -0.0248 -0.1474
87248W        W30161  16.925   5.879   7.456  0.3553  0.1557  0.1600
87249W        W30162   1.496   0.511   2.014  0.1728  0.0270 -0.2482
87250W        W30163   2.809   4.203   3.615 -0.1270  0.0852 -0.0408
87251W        W30164   9.133  24.012   8.980  0.0459 -0.0671 -0.1600
87252W        W30165  15.232  10.080  29.303 -0.1667  0.1629 -0.1091
87253W        W30166  12.678   3.790   8.610 -0.4015 -0.0543  0.2327
87254W        W30167  12.995   3.978  11.498  0.1258 -0.0890  0.0147
87255W        W30168   2.415   9.467  10.741 -0.1829 -0.1065 -0.2564
87256W        W30169   4.409   2.951   6.658 -0.1483  0.1760  0.1275
87257W        W30170   8.858   5.314   3.464  0.0745  0.3106  0.2134
87258W        W30171   1.989   2.270   1.950  0.2905 -0.0742 -0.0505
87259W        W30172  33.101  28.945   7.323  0.0934 -0.3384 -0.0628
87260W        W30173  10.755   3.468  13.066 -0.3043 -0.1061  0.0034
87261W        W30174   7.780  17.816   3.777  0.2046  0.2048  0.2295
87262W        W30175   9.365   1.459   1.674 -0.0236  0.0423 -0.0617
87263W        W30176   5.546   7.343  28.721  0.4887  0.3154  0.2826
87264W        W30177   4.927   4.142  11.587  0.1966 -0.2689  0.1788
87265W        W30178  16.050   2.203  10.796  0.1207 -0.1187 -0.0323
87266W        W30179  12.950  33.020  23.743 -0.0191  0.2489  0.1174
87267W        W30180  13.418   9.856   8.584 -0.2864  0.0254  0.0110
87268W        W30181   8.512  33.167   5.877 -0.0176 -0.1693  0.5326
87269W        W30182  12.199  32.594   6.064  0.1273  0.3239  0.2112
87270W        W30183  14.979  29.952   7.840 -0.0891  0.0754 -0.1900
87271W        W30184  12.406  33.742   6.948 -0.4314 -0.0889 -0.0131
87272W        W30185  15.007   2.677   6.558  0.0118  0.2586  0.1354
87273W        W30186   0.141   0.881   4.160  0.0624 -0.1433  0.0066
87274W        W30187   7.049  25.548   0.548  0.2092 -0.0810 -0.1021
87275W        W30188  11.582   3.728  12.035 -0.2270 -0.0557 -0.2897
87276W        W30189   5.056   3.532  26.129  0.1279  0.1621 -0.1030
87277W        W30190   2.820   0.312   9.581 -0.4030  0.0359  0.0811
87278W        W30191   9.856   3.010  11.995  0.1255  0.2318 -0.3279
87279W        W30192  11.420   8.495   9.720 -0.2230 -0.0854 -0.3189
87280W        W30193  13.105  10.933   7.202  0.0636 -0.2583 -0.1733
87281W        W30194  16.797   6.311   9.543  0.1765 -0.1600  0.1249
87282W        W30195  33.864  26.696   0.551  0.1868  0.1293  0.1466
87283W        W30196   4.507  30.073  10.566  0.2949 -0.1445 -0.0430
87284W        W30197  17.037  30.674   8.656  0.2238 -0.1947 -0.1509
87285W        W30198  11.347   1.197  12.308  0.0528 -0.1555  0.1542
87286W        W30199  17.057   3.584   9.048 -0.0049  0.0967 -0.0851
87287W        W30200  19.263  26.501   6.570  0.1899 -0.3525  0.2539
87288W        W30201   7.164  32.038   6.646  0.0734 -0.2257  0.1725
87289W        W30202  14.916  10.268  26.255 -0.0285  0.1677  0.0547
87290W        W30203   7.290  34.219  28.462 -0.0986  0.0915 -0.0764
87291W        W30204  19.677  11.671   0.026 -0.0788 -0.0890  0.0121
87292W        W30205   6.297   4.821  11.092  0.1985  0.0887  0.0363
87293W        W30206  10.083  30.628   9.218  0.0878 -0.0692  0.1748
87294W        W30207   0.156  31.312   7.437 -0.0211 -0.0785  0.1712
87295W        W30208  29.048  33.353   9.543 -0.0158 -0.0565  0.3522
87296W        W30209  12.824   0.972  10.044 -0.0957  0.2239 -0.1308
87297W        W30210   8.267  29.991   4.000 -0.1129  0.0401 -0.1785
87298W        W30211   5.085   8.926   1.805 -0.1888  0.1857  0.1919
87299W        W30212  10.859  23.134   1.084 -0.2123 -0.0476 -0.1718
87300W        W30213   6.859  33.723   2.477  0.0700  0.2909 -0.1791
87301W        W30214  12.989  32.053   2.361 -0.3573 -0.0843 -0.1149
87302W        W30215   5.965  32.726   9.109 -0.1640 -0.1601  0.2224
87303W        W30216   4.807  11.350  10.408 -0.2631  0.0532  0.1499
87304W        W30217   7.576   3.743   6.219  0.2188 -0.2801 -0.0034
87305W        W30218  16.722   3.676   4.584 -0.0765  0.2978 -0.2029
87306W        W30219  11.320  34.129  24.275 -0.0198 -0.1217  0.0667
87307W        W30220   5.299   2.313   7.074  0.2616  0.1650 -0.1776
87308W        W30221   4.579   3.677  11.870 -0.0870 -0.1216  0.0721
87309W        W30222  16.414   6.590   5.184 -0.3060  0.0818  0.4427
87310W        W30223  13.664  32.074   4.909 -0.3065 -0.0767  0.2722
87311W        W30224   8.482  29.200   7.661 -0.1388 -0.2825  0.2952
87312W        W30225   7.337  33.731   0.336 -0.2000  0.0612 -0.1052
87313W        W30226   7.696  29.934   2.680 -0.0526  0.1028  0.2191
87314W        W30227   7.743   3.211  10.984  0.1652  0.2726 -0.1222
87315W        W30228   5.297   2.724   6.527 -0.0389  0.1163  0.1870
87316W        W30229  15.612   2.284  15.504 -0.0448 -0.2325  0.1892
87317W        W30230  23.551   8.448  10.107  0.0494  0.0761 -0.0306
87318W        W30231   4.361   5.164   0.709 -0.0435  0.2756 -0.1880
87319W        W30232  18.056   0.506  25.935  0.1846  0.0790 -0.0856
87320W        W30233   5.602  32.888  23.349 -0.1785 -0.1582  0.2028
87321W        W30234  12.237   6.149  27.524 -0.0321  0.1310 -0.1545
87322W        W30235   5.124   0.398   6.580 -0.0522 -0.0547 -0.0041
87323W        W30236   9.148  24.752  29.247 -0.2809  0.2515  0.0862
87324W        W30237  24.209   0.810  27.327  0.0796 -0.1925  0.0722
87325W        W30238  10.089  31.328   4.438  0.0912  0.4435 -0.1552
87326W        W30239  20.887  33.305   2.603 -0.0215 -0.0034  0.1064
87327W        W30240  16.204  13.158   2.738  0.1311  0.3925 -0.2222
87328W        W30241  15.690  30.635   9.938 -0.1787  0.2740  0.0665
87329W        W30242  15.473  30.642   2.951 -0.1300  0.1736 -0.0311
87330W        W30243  15.687   4.431   6.042  0.1164  0.4761  0.0363
87331W        W30244  19.407   3.487  26.595 -0.0565 -0.0730 -0.0497
87332W        W30245  11.141  31.277  25.099 -0.2147  0.2002 -0.1865
87333W        W30246  12.448  10.683  28.364 -0.0719  0.0053 -0.0913
87334W        W30247  11.401  10.287   4.007  0.2179  0.1375  0.1377
87335W        W30248  10.928   8.438   6.379  0.0378  0.1661  0.0875
87336W        W30249  23.807  27.338  27.061  0.0396 -0.1327  0.1943
87337W        W30250   8.566   3.832   8.773  0.1502 -0.1120  0.1248
87338W        W30251  11.123  33.930  10.485 -0.4724  0.2313  0.1748
87339W        W30252  15.522  28.751  10.855  0.1880  0.0217 -0.0249
87340W        W30253  15.011   5.280   9.563 -0.4143  0.0508  0.1260
87341W        W30254  22.656  32.651  24.713 -0.1880  0.2340  0.3757
87342W        W30255  18.649  26.403   3.158  0.0895  0.0475  0.1674
87343W        W30256  14.205  27.749  28.646  0.4190 -0.0268  0.3361
87344W        W30257  23.669  10.852  29.050  0.0163  0.1906 -0.0898
87345W        W30258  17.847  33.421   7.361 -0.1359  0.0257  0.1025
87346W        W30259   9.511   9.726  28.342  0.0890  0.0584  0.2697
87347W        W30260   9.661  31.736  29.742 -0.2844  0.2325 -0.0564
87348W        W30261  12.403   0.610   3.502  0.0597  0.0318  0.4865
87349W        W30262  24.548  13.244  29.622  0.0710 -0.2462  0.1975
87350W        W30263  17.366   0.014  18.150  0.0388 -0.1155  0.0136
87351W        W30264  10.376   7.044  10.390 -0.1467  0.1375  0.2578
87352W        W30265  18.953   7.153  25.355  0.1646 -0.0317  0.0815
87353W        W30266   7.041   2.841   4.304  0.1031 -0.0967 -0.1168
87354W        W30267  13.312  11.078   8.478  0.2443  0.0189  0.2604
87355W        W30268  26.551   7.279   2.229 -0.1990  0.1139 -0.0277
87356W        W30269  17.947   4.624   1.068 -0.2886 -0.2664 -0.1503
87357W        W30270  13.977  26.528  28.843 -0.0282  0.1670 -0.0198
87358W        W30271  18.809  25.296   3.693 -0.1005 -0.3002  0.1638
87359W        W30272  14.119   8.894   4.776 -0.2327  0.1237  0.2748
87360W        W30273   8.733  28.533   4.880  0.0138 -0.0460 -0.0834
87361W        W30274  18.658   3.320   5.722  0.2767  0.1868  0.1329
87362W        W30275  12.761  24.724  29.130  0.1501 -0.2324  0.3673
87363W        W30276  18.480   5.602   6.840 -0.1778 -0.1775 -0.0847
87364W        W30277  19.476  34.085  26.229 -0.3091 -0.0413  0.3612
87365W        W30278   5.957   1.706  25.888  0.2643  0.0498 -0.0286
87366W        W30279  17.996   1.470  28.582  0.1803  0.0617 -0.0992
87367W        W30280  17.666   1.228   1.633  0.1046  0.0182 -0.0885
87368W        W30281  11.437   6.572  27.825  0.1649 -0.0177 -0.1682
87369W        W30282  21.158  30.624   3.015 -0.2520 -0.0492  0.3020
87370W        W30283  15.585  33.325  25.086  0.1539  0.0906  0.0394
87371W        W30284   9.383   4.309  27.344  0.0215  0.0960 -0.1969
87372W        W30285   8.544  25.198   9.272  0.0394  0.1325 -0.3187
87373W        W30286  10.061   4.289  29.489 -0.1825  0.1296  0.2432
87374W        W30287  17.150  28.471  18.266 -0.1191  0.1843 -0.0347
87375W        W30288   9.620  17.479   0.538  0.1076 -0.2412  0.0266
87376W        W30289  13.754  33.514   4.132  0.1529 -0.1222  0.1101
87377W        W30290  21.411  27.655   0.959 -0.0617 -0.1685 -0.1036
87378W        W30291  14.296  32.840  12.248 -0.0718 -0.3705  0.2607
87379W        W30292  11.510  28.433  19.433  0.2656  0.3305  0.0131
87380W        W30293  15.178  30.034   6.268  0.0475 -0.1405  0.0233
87381W        W30294  12.145   2.825   4.172  0.0829  0.2082 -0.0786
87382W        W30295   8.402   0.613   9.387 -0.2135  0.1605  0.0717
87383W        W30296   9.591  28.810   2.569 -0.2227  0.3799 -0.3522
87384W        W30297  25.447  16.989   2.928 -0.0193  0.1526 -0.3055
87385W        W30298  11.216   1.389   7.317  0.1420 -0.0083 -0.0281
87386W        W30299  16.788   3.466   5.516  0.1353 -0.0396 -0.1653
87387W        W30300  10.722   6.444   3.827 -0.0999  0.0362  0.1067
87388W        W30301  24.407  33.486   9.832 -0.1177  0.0380 -0.0251
87389W        W30302   8.895   0.920   2.402 -0.0294 -0.0320 -0.1340
87390W        W30303  12.420  33.576  12.477 -0.2665  0.1791  0.0348
87391W        W30304  15.956   2.736  10.755  0.3681 -0.1408 -0.3117
87392W        W30305   6.086  31.970  26.907 -0.1215  0.0880 -0.0925
87393W        W30306   4.627  33.297  28.867  0.0699  0.1620 -0.2685
87394W        W30307  33.744  34.322  26.120  0.0180 -0.1459  0.2029
87395W        W30308  21.554   7.853  24.596 -0.1108  0.1939  0.2456
87396W        W30309   7.626  31.645   9.225  0.0768  0.2808 -0.3047
87397W        W30310   9.810   1.840   9.217 -0.0209  0.1654  0.1244
87398W        W30311  11.526   6.020  11.135 -0.1433 -0.2973  0.2589
87399W        W30312  13.123  30.246  29.356  0.0304 -0.2019  0.3005
87400W        W30313   1.019   6.268   1.404  0.1200 -0.0662 -0.1517
87401W        W30314  13.881  29.568   4.385 -0.1578 -0.1574 -0.2481
87402W        W30315   7.314  29.530   4.255 -0.2023 -0.2054  0.1917
87403W        W30316  19.038  13.394   7.008  0.3604 -0.0542 -0.0518
87404W        W30317  32.360  23.524  29.693  0.1084  0.2560 -0.0490
87405W        W30318  16.245  33.434   1.377  0.1395 -0.0547 -0.1638
87406W        W30319   9.672  29.156   3.863 -0.3579  0.0975 -0.0545
87407W        W30320   8.441   2.499   1.017  0.2734 -0.2438 -0.0727
87408W        W30321   4.242   6.196  28.650  0.0652 -0.1686 -0.0885
87409W        W30322  17.600   5.563   9.787 -0.0253 -0.2210  0.1477
87410W        W30323  17.634   1.114   5.540 -0.0371 -0.2213 -0.0996
87411W        W30324   9.286  33.045  28.542  0.0177 -0.1547  0.2109
87412W        W30325  17.797  34.053   3.153  0.2416 -0.1973  0.1477
87413W        W30326   1.659  19.662  20.594  0.2034 -0.1202 -0.1616
87414W        W30327   9.038  24.607  26.601  0.1607  0.0496  0.0541
87415W        W30328  16.520   7.686   3.026  0.2336  0.1618 -0.0258
87416W        W30329   9.424  10.658  28.807  0.2016  0.0253 -0.0380
87417W        W30330   6.065  13.436   6.700  0.2141  0.1553  0.0153
87418W        W30331  16.235  29.195   6.992 -0.0603  0.0506 -0.3437
87419W        W30332  12.765  32.667  10.918  0.2190 -0.1545 -0.3909
87420W        W30333  11.008   4.600  27.135 -0.2475 -0.2891 -0.0559
87421W        W30334  11.148   3.852  10.424 -0.0344  0.1044  0.2090
87422W        W30335   7.650   3.877  29.255  0.0030 -0.1033  0.1027
87423W        W30336  18.894   6.303  29.457 -0.0469 -0.0156  0.0407
87424W        W30337  16.069  27.968   5.088 -0.2566  0.1521  0.0356
87425W        W30338   7.460   2.454   2.791  0.4887 -0.1762 -0.0108
87426W        W30339  21.828  32.569  25.209  0.1154 -0.3382  0.1435
87427W        W30340  32.856   6.183   0.303 -0.2322  0.0544  0.0984
87428W        W30341  13.951  10.663  25.530 -0.2149  0.0046 -0.0255
87429W        W30342   8.240  31.650  23.416 -0.2177 -0.2752 -0.0257
87430W        W30343  14.915  28.964   1.748  0.2077 -0.1111  0.0729
87431W        W30344  19.578  26.700   8.606  0.2913 -0.2218  0.0444
87432W        W30345  12.164  33.490  17.575  0.0105 -0.2359  0.1612
87433W        W30346   8.909  31.877   4.280  0.1492  0.1104 -0.2241
87434W        W30347  21.063  30.656  26.109 -0.2275 -0.2059  0.0498
87435W        W30348   9.258   1.670   6.422 -0.3628  0.3342 -0.2704
87436W        W30349  16.024  17.918   0.750  0.0978 -0.0890 -0.0903
87437W        W30350  12.322   1.690  26.553 -0.0151  0.0456 -0.2899
87438W        W30351  10.228  27.890   7.264 -0.2627 -0.2696 -0.0773
87439W        W30352  15.460  29.908   0.932  0.1518  0.0973  0.0784
87440W        W30353  14.145  33.491   5.513  0.0112  0.0045  0.1319
87441W        W30354   7.934  26.776  29.495  0.1139 -0.1512  0.0723
87442W        W30355  14.229  29.973   0.212  0.0752  0.2145 -0.2635
87443W        W30356   9.238   5.788  29.362  0.1045 -0.0432 -0.3636
87444W        W30357  19.105  32.332  23.148 -0.2349 -0.0774 -0.1808
87445W        W30358  18.568  13.385   3.942 -0.2804  0.2068  0.0807
87446W        W30359  18.299  10.096  29.234 -0.3245 -0.0694 -0.1559
87447W        W30360  16.061  31.597   4.521 -0.1280 -0.0043 -0.2354
87448W        W30361   8.658   3.795  21.954 -0.2096  0.0907  0.1445
87449W        W30362  26.356  20.696   8.612 -0.1400 -0.0136  0.0356
87450W        W30363  11.221   5.512  26.830 -0.2495 -0.1874  0.0832
87451W        W30364  10.870  32.568   6.732  0.1481  0.3633  0.2815
87452W        W30365  18.251   6.888   7.834 -0.1324  0.1469  0.1611
87453W        W30366  26.265   3.585   4.605  0.0946 -0.1024  0.0796
87454W        W30367  14.779  31.392   4.238  0.0355 -0.0201 -0.1878
87455W        W30368  12.665   0.926  20.833 -0.3329  0.1082 -0.1321
87456W        W30369  11.128  33.288   3.801 -0.0998  0.0572 -0.3129
87457W        W30370   7.691   5.554   8.848 -0.0403 -0.3351 -0.1066
87458W        W30371  16.391   8.139   2.802 -0.2708  0.1577 -0.0274
87459W        W30372  11.143   0.993  29.093  0.2491 -0.5506  0.2350
87460W        W30373   6.217   6.052  18.825  0.2896  0.3978  0.0226
87461W        W30374  16.792  28.670   1.232 -0.0848 -0.1838  0.0270
87462W        W30375   7.301  30.810   8.727 -0.0001  0.0226  0.0913
87463W        W30376   8.103  30.729   3.189  0.0761 -0.2072 -0.2255
87464W        W30377  14.433   4.634   9.946  0.1042 -0.1383  0.2585
87465W        W30378  14.620   3.334  26.196  0.2383  0.0656 -0.0605
87466W        W30379  15.626   4.137  27.461  0.0770 -0.1133 -0.0433
87467W        W30380   8.834   3.020  26.451  0.3347  0.1570  0.2439
87468W        W30381  33.012   9.017   7.823 -0.5213  0.2524 -0.0937
87469W        W30382  13.477  11.603   1.791  0.1941 -0.0569  0.3850
87470W        W30383   7.552  10.370  23.985  0.0945 -0.2280 -0.1342
87471W        W30384  14.296   2.996   5.068  0.0780 -0.1173  0.1435
87472W        W30385  33.636  32.135   0.603  0.0112 -0.1246  0.0675
87473W        W30386  12.044  34.137  24.787 -0.0663 -0.0018  0.0274
87474W        W30387  12.494   6.860   5.725  0.1767 -0.0803 -0.2833
87475W        W30388  11.409  31.075  27.421  0.2091  0.1675 -0.3662
87476W        W30389  10.427  25.711  21.001 -0.1279 -0.3153  0.0622
87477W        W30390  16.732  34.120  22.831  0.1189  0.0310 -0.2044
87478W        W30391   4.840   5.237  25.030 -0.0142 -0.0313 -0.1433
87479W        W30392  19.920   0.823   5.400  0.1578  0.0190  0.0934
87480W        W30393  11.147   1.381  28.758 -0.0818  0.0948  0.0761
87481W        W30394  13.082   1.877  10.546 -0.0780 -0.2143 -0.2299
87482W        W30395  22.209   0.600   7.876  0.0743 -0.1006  0.3724
87483W        W30396  11.599  32.376   1.494 -0.0922 -0.0475  0.0970
87484W        W30397   1.817   0.585   0.018 -0.1510  0.1891  0.1697
87485W        W30398  23.494   5.468   1.497  0.0765  0.2160 -0.0742
87486W        W30399  17.125  10.266  29.330 -0.1140  0.0156 -0.1435
87487W        W30400  15.678  29.119   1.062 -0.0382  0.0909 -0.0881
87488W        W30401   4.796   4.396   6.465 -0.2283  0.2117  0.0973
87489W        W30402  30.995   0.642   6.091  0.0318 -0.1104 -0.0424
87490W        W30403  14.250   0.494   0.479 -0.1292  0.1738  0.0242
87491W        W30404   4.968  31.803   6.101  0.1681 -0.1430 -0.0860
87492W        W30405  10.555   5.571   0.683 -0.0691  0.0320 -0.2618
87493W        W30406  15.370   0.455   1.935  0.1516  0.3494  0.0191
87494W        W30407  10.745   3.410  21.943 -0.0356  0.0094  0.3017
87495W        W30408  13.621   9.435   7.245 -0.3684  0.0681 -0.0245
87496W        W30409  13.909   2.332   2.220 -0.0081 -0.1123  0.1129
87497W        W30410   9.397  33.597  25.395 -0.1558 -0.1574 -0.0820
87498W        W30411  21.187   6.227   7.214  0.0316 -0.1214  0.2649
87499W        W30412  12.136  33.049  24.719 -0.0163  0.1229 -0.3137
87500W        W30413  21.186  26.575   7.449 -0.2923  0.1292  0.0527
87501W        W30414  14.263   2.491  27.101  0.1087 -0.0597  0.0797
87502W        W30415  33.657   5.142  28.458 -0.0722  0.1343 -0.2564
87503W        W30416  10.808  25.653  20.660  0.1763  0.0253  0.1310
87504W        W30417  14.157   2.419   7.381 -0.2077 -0.2146 -0.2031
87505W        W30418   9.254   3.546   0.509  0.1841  0.1774  0.1873
87506W        W30419   5.978  33.109   7.209 -0.0982 -0.1624  0.0059
87507W        W30420  14.445  31.193  11.128  0.0134 -0.0847  0.1210
87508W        W30421   7.085  18.841  26.689  0.0478  0.0772 -0.1530
87509W        W30422  10.993   8.806   8.059  0.2150  0.1952 -0.0164
87510W        W30423   4.159  33.655   0.308  0.1363  0.0512  0.1066
87511W        W30424   9.506  25.092   7.742  0.1213 -0.0343 -0.0740
87512W        W30425  12.166   9.428  29.517 -0.0318  0.1115  0.0543
87513W        W30426   5.650   5.765   9.125 -0.1972 -0.0253  0.0082
87514W        W30427  11.576  27.681   3.349  0.6729  0.0772 -0.1623
87515W        W30428  18.335  31.813  10.402  0.0314 -0.0239 -0.3107
87516W        W30429  18.289  28.042   0.660 -0.1395  0.1275  0.3253
87517W        W30430  17.079  31.883   8.352 -0.0446 -0.2557  0.3820
87518W        W30431  11.196   0.434   5.591  0.1336  0.0365  0.0950
87519W        W30432  16.928   1.641  28.635  0.1437 -0.0675  0.0225
87520W        W30433  12.626  28.890   2.448  0.0089  0.0092 -0.1603
87521W        W30434  24.765   2.949  29.131 -0.0660  0.1957 -0.1961
87522W        W30435  16.145  27.561   3.323  0.1072 -0.1815 -0.1312
87523W        W30436   6.491   1.662   5.918  0.1573 -0.1118  0.3547
87524W        W30437  16.178  29.668   4.523  0.1410  0.4197 -0.1928
87525W        W30438  13.974   4.664   3.284 -0.1402 -0.0666  0.2591
87526W        W30439  21.947  32.187   5.248 -0.0806  0.3078 -0.2691
87527W        W30440   8.458   0.454  23.887  0.2589 -0.2042  0.2799
87528W        W30441  10.075  33.145   0.979  0.1564 -0.0999 -0.2461
87529W        W30442   2.627  30.639  23.489  0.4370 -0.1622  0.1602
87530W        W30443  22.227  31.699  22.822 -0.0532 -0.3309 -0.2740
87531W        W30444  12.435  28.627  25.370 -0.3775 -0.3616 -0.1968
87532W        W30445   2.068  32.303   1.414  0.1617  0.0002 -0.3342
87533W        W30446  21.107  10.312  29.177  0.0517  0.1950  0.1611
87534W        W30447  21.315  28.957   0.595  0.0384 -0.1377 -0.0963
87535W        W30448   3.108  24.848  27.910 -0.3189 -0.3188 -0.0152
87536W        W30449   4.927   4.688   7.764  0.2733  0.1560  0.3158
87537W        W30450  22.187  29.580   1.321 -0.0999  0.0269 -0.2178
87538W        W30451  17.093  31.098  27.934 -0.3525 -0.1411 -0.1952
87539W        W30452   3.024  28.510   7.241 -0.4885  0.4339 -0.1182
87540W        W30453  18.526  13.676   5.292 -0.2517  0.1581  0.1384
87541W        W30454  20.905   4.097  25.152 -0.0984  0.1141 -0.2856
87542W        W30455  19.776  26.638   1.373  0.2730  0.0419  0.2337
87543W        W30456  17.186  31.256   9.746  0.3765 -0.1081 -0.2034
87544W        W30457  12.044   6.248   2.625  0.2731 -0.1124  0.0107
87545W        W30458  18.800   6.692   2.432 -0.0880  0.0494  0.0264
87546W        W30459  20.807  32.212   9.362 -0.2052  0.1442  0.0221
87547W        W30460  28.201  29.536  27.990  0.0121  0.0650 -0.2351
87548W        W30461  17.214   0.235   1.125  0.1124  0.0337  0.3284
87549W        W30462  15.904  30.202   8.419  0.0163 -0.1807  0.3435
87550W        W30463  14.737  12.106  22.056 -0.1739  0.0925  0.1600
87551W        W30464  15.273  27.464  29.132 -0.1127 -0.3981  0.1783
87552W        W30465  14.317  12.404  16.088 -0.0125  0.4137 -0.1606
87553W        W30466  12.415   0.342  27.901  0.0322 -0.0956  0.1912
87554W        W30467   3.088   8.256  18.871 -0.0727  0.0203  0.4438
87555W        W30468   6.854   5.853   2.196  0.0521  0.0451 -0.1772
87556W        W30469  18.256  17.157  27.758  0.1672  0.1481  0.0435
87557W        W30470   2.562  32.909  25.448  0.0116  0.1891 -0.1139
87558W        W30471   6.679   2.687   1.808  0.0661  0.1504  0.1495
87559W        W30472  13.668   0.229  10.579 -0.0538 -0.0955  0.1396
87560W        W30473   3.216   1.788   9.716  0.1961  0.2345  0.2927
87561W        W30474   1.573   1.765  11.147 -0.1559  0.1853  0.0675
87562W        W30475   6.540  20.498  24.938  0.2352 -0.2415 -0.1340
87563W        W30476  16.571   4.616  28.619  0.0427  0.0114 -0.0445
87564W        W30477  25.170   6.076   4.266 -0.0640  0.0045  0.3106
87565W        W30478   3.138   4.207  29.740 -0.0536  0.1168  0.2238
87566W        W30479  25.969   3.310  25.590 -0.1225 -0.0081  0.1853
87567W        W30480  33.898  29.201   0.798  0.2076 -0.1279 -0.0613
87568W        W30481  14.146  31.122  29.730  0.0038  0.1573  0.1671
87569W        W30482  13.852   0.731  27.390 -0.2844  0.0228  0.1118
87570W        W30483   2.301  33.614   4.800 -0.0909  0.1560 -0.0890
87571W        W30484   4.448   2.162   3.950 -0.2568  0.0684 -0.2059
87572W        W30485  17.424  13.344  21.285 -0.1495 -0.2306  0.3931
87573W        W30486  12.843  17.135  24.811 -0.1460  0.1723  0.0045
87574W        W30487  14.948  22.843   2.469  0.4339 -0.1797 -0.3954
87575W        W30488  16.936  13.205   4.149 -0.1341  0.2096 -0.1590
87576W        W30489  22.152   8.854  29.606  0.0819  0.0180 -0.3861
87577W        W30490  13.912  28.120   4.659 -0.2245  0.1703  0.2575
87578W        W30491  22.526  28.909  27.236  0.1835 -0.1241 -0.0861
87579W        W30492  17.101   0.001   4.893 -0.3125 -0.0890  0.1605
87580W        W30493  31.847  31.621   3.336  0.2145 -0.0513 -0.1688
87581W        W30494   8.760   5.031   6.062 -0.3283  0.0567  0.2007
87582W        W30495   8.877   4.444  29.174 -0.1304  0.0876 -0.0514
87583W        W30496  10.187   9.010   0.705 -0.0257 -0.1634  0.0200
87584W        W30497   5.972  32.299  26.071 -0.0656 -0.2120 -0.0001
87585W        W30498  14.494   0.266  26.304 -0.1574 -0.2391 -0.1319
87586W        W30499  23.936  24.994  21.969 -0.0751 -0.2048  0.0922
87587W        W30500  15.076   2.420   7.444  0.0035 -0.0218 -0.4422
87588W        W30501   0.401   2.286   1.076 -0.0417  0.1891 -0.0255
87589W        W30502  10.431   9.893   5.046  0.2439  0.0570  0.0290
87590W        W30503   8.259   3.550  27.083 -0.2948  0.2749 -0.0682
87591W        W30504  10.617   6.760  23.453  0.1934 -0.2687 -0.3266
87592W        W30505  17.431  33.197   0.088 -0.3805 -0.0236 -0.2220
87593W        W30506   6.785  32.336   6.565  0.3360  0.1400 -0.0045
87594W        W30507  12.551  15.949   2.589 -0.0164  0.0048 -0.0482
87595W        W30508  30.027  32.542   6.791  0.1469 -0.0131 -0.0844
87596W        W30509  11.494  31.975   3.929  0.0602  0.1207  0.5043
87597W        W30510   1.994   3.028   6.483  0.3054  0.0824  0.0919
87598W        W30511   8.833   0.884   5.683  0.0619  0.1151  0.0150
87599W        W30512  11.401  28.757  11.103 -0.0078  0.1049  0.1015
87600W        W30513  14.900   1.625   0.837  0.2104 -0.1785 -0.0705
87601W        W30514  16.405  28.743  27.588 -0.0686  0.0639  0.1266
87602W        W30515   8.392   3.183  26.018  0.1335 -0.0288  0.2480
87603W        W30516  11.311   5.725  25.489  0.0878 -0.1669 -0.2546
87604W        W30517  18.390  31.878   2.165  0.2193  0.1317 -0.4428
87605W        W30518  16.604   1.724   6.879 -0.1515 -0.0814  0.0009
87606W        W30519  13.139  11.226   2.879  0.0735  0.1183  0.0862
87607W        W30520   7.368  11.665  24.840  0.0900 -0.4289  0.0056
87608W        W30521   9.003   6.552   0.898 -0.1471 -0.0918  0.1021
87609W        W30522  13.771   0.624  11.075  0.1395  0.1472 -0.0225
87610W        W30523  21.296  28.490   1.474 -0.1757  0.0292  0.1370
87611W        W30524   4.121   9.903   7.235  0.3372  0.1494 -0.0406
87612W        W30525  14.193  31.564  28.557  0.0840 -0.2466 -0.3895
87613W        W30526  13.281  33.987  23.161 -0.2394 -0.0080  0.1854
87614W        W30527  21.311  11.387  26.668 -0.0599 -0.0727  0.0369
87615W        W30528   5.679   1.860   0.703 -0.0371  0.1213 -0.1170
87616W        W30529  22.581   0.640  25.623  0.0355 -0.0388  0.0062
87617W        W30530  23.345  29.962  26.867  0.1849  0.1122 -0.0216
87618W        W30531   7.078  23.285   7.205 -0.0994  0.2835 -0.1283
87619W        W30532  15.146  29.501  22.731 -0.0609 -0.1726 -0.4791
87620W        W30533  16.340  10.002   5.700  0.1606 -0.1328 -0.1216
87621W        W30534  30.469  31.182   7.075  0.2127 -0.3298  0.3943
87622W        W30535  14.043  33.846   2.632 -0.2188  0.0942  0.0091
87623W        W30536  12.021  32.606   2.330  0.1425  0.0135 -0.6813
87624W        W30537  14.133   1.960   1.829 -0.2374 -0.0203  0.0072
87625W        W30538  10.533  28.907  11.986  0.1251 -0.2772 -0.4160
87626W        W30539  14.567  32.700   0.007 -0.0115 -0.0692  0.3991
87627W        W30540  16.011  26.676  28.106 -0.1193  0.0205 -0.0292
87628W        W30541  12.412   0.907   4.737  0.1011 -0.3001  0.2240
87629W        W30542  13.578   4.858  29.254 -0.0779  0.2140  0.0576
87630W        W30543  33.342  27.536  21.274  0.1010 -0.2515 -0.0760
87631W        W30544  32.422  31.469  19.584  0.1615  0.0360 -0.1496
87632W        W30545   2.736  30.643   1.876 -0.1370  0.0207  0.1287
87633W        W30546  10.591  32.591   7.688  0.0998 -0.1525  0.0982
87634W        W30547   2.568  34.336  28.877 -0.1518  0.2809  0.1115
87635W        W30548  12.961  27.476   0.812  0.0677  0.0605  0.1251
87636W        W30549  13.214  18.345   1.370 -0.1305 -0.3490  0.0290
87637W        W30550  15.660   4.228  24.342  0.0372  0.2710  0.1322
87638W        W30551  15.933   4.981   0.972 -0.3184 -0.1385  0.0976
87639W        W30552  13.310   6.278  23.893 -0.2521  0.0794  0.1675
87640W        W30553   5.702   8.701   6.490  0.0579  0.3815  0.0651
87641W        W30554  11.334  32.348   6.892  0.0193  0.0256 -0.0486
87642W        W30555  14.737  19.575  21.970  0.0520 -0.0628 -0.2316
87643W        W30556   4.983   5.141  27.559  0.1018 -0.0478  0.0535
87644W        W30557  11.401   4.415   7.837  0.0090  0.5002 -0.2698
87645W        W30558   8.898  34.232  12.800  0.0576  0.1209 -0.4454
87646W        W30559  15.447   4.568  28.856  0.0697  0.0965  0.1028
87647W        W30560  13.734   7.408  27.745 -0.0239 -0.3931 -0.1109
87648W        W30561  19.173   3.376   7.006 -0.0038  0.0296 -0.1725
87649W        W30562  15.180  27.885  10.085  0.0773 -0.1692  0.0296
87650W        W30563   9.585   4.125   2.097  0.0374 -0.0513 -0.0104
87651W        W30564  20.653  34.152   1.755 -0.4907  0.2098 -0.1152
87652W        W30565  19.974  14.884   5.041 -0.1336  0.0871 -0.0154
87653W        W30566   7.031   0.263  25.271 -0.1451  0.3837 -0.0845
87654W        W30567   6.315  14.512  10.388 -0.1476  0.1723  0.2754
87655W        W30568  15.465   2.192   2.785 -0.1315  0.1624 -0.1323
87656W        W30569   6.447   8.347  12.289  0.1562 -0.2872 -0.1581
87657W        W30570  26.625   0.708   0.914 -0.2088  0.2122  0.2652
87658W        W30571  24.492   0.506   2.291  0.3608 -0.1419 -0.2124
87659W        W30572  13.514   4.188  26.896  0.0089  0.1909  0.0990
87660W        W30573  15.507  24.491  25.302  0.1165  0.2823 -0.0225
87661W        W30574  11.820   1.596  19.680  0.1173  0.2619  0.0266
87662W        W30575   2.454   3.770   9.817  0.0103  0.0180  0.1757
87663W        W30576  24.598  33.509  23.894 -0.1908 -0.0609  0.1933
87664W        W30577  11.634   6.991  19.642 -0.1648 -0.2145 -0.4009
87665W        W30578  20.355  34.473  23.676 -0.1354  0.2860  0.0967
87666W        W30579   8.503  32.208   2.980  0.1315  0.1325  0.3174
87667W        W30580   9.694   6.582  18.713  0.2119  0.0122 -0.0445
87668W        W30581  12.070  27.249  25.995  0.1403  0.1487 -0.3383
87669W        W30582  25.544   1.909   0.777  0.3646  0.0291  0.1160
87670W        W30583  12.760  33.055   2.513  0.1471 -0.1908  0.1849
87671W        W30584  11.275   0.440  20.190 -0.1483  0.0453  0.0320
87672W        W30585   8.236   2.387  12.407  0.0435 -0.5191  0.0282
87673W        W30586  24.151   7.504   8.060 -0.1932  0.1543  0.0832
87674W        W30587   8.136   0.517   7.074  0.2397  0.1680 -0.2279
87675W        W30588  30.507   0.763   9.160 -0.1408  0.0422  0.0113
87676W        W30589   1.280   0.878  27.963  0.1370 -0.0125 -0.1360
87677W        W30590   8.530   0.032   5.675  0.0766  0.0415  0.1538
87678W        W30591  13.563   5.463  28.284 -0.0589  0.0767 -0.0541
87679W        W30592  10.176  10.803   5.506  0.1120  0.1401 -0.1839
87680W        W30593   7.739   2.864   8.589 -0.0520  0.0887 -0.0003
87681W        W30594  17.076  29.210  29.321 -0.0865  0.2397  0.0280
87682W        W30595  11.623  30.167   1.193 -0.0210 -0.0312  0.0097
87683W        W30596  12.346  33.652   9.934  0.0378  0.3811  0.2236
87684W        W30597  18.245   5.676   7.332 -0.2959  0.0823 -0.0633
87685W        W30598  15.185  27.876   7.357 -0.3033  0.3575  0.1412
87686W        W30599  16.491   1.769   9.519  0.0527  0.1859  0.1569
87687W        W30600  21.929  32.161   5.826  0.1295 -0.1206 -0.0279
87688W        W30601  19.233  32.828  28.772 -0.0470  0.2499 -0.0448
87689W        W30602  15.772  31.324   3.554  0.0025  0.0893 -0.1855
87690W        W30603  12.403   8.558   5.098  0.0939 -0.1793 -0.4472
87691W        W30604  10.484   5.105  18.898  0.3947 -0.1445 -0.0398
87692W        W30605  13.783  32.982   4.632  0.2013  0.0811  0.2255
87693W        W30606  25.262   5.247  28.937  0.1688  0.0540  0.0653
87694W        W30607   6.556  29.648   5.022 -0.2324 -0.1217 -0.1164
87695W        W30608   4.773   2.521  26.223  0.4098 -0.0959  0.1882
87696W        W30609   9.971  28.659   3.878 -0.0810 -0.0478 -0.1055
87697W        W30610  11.504  24.825   0.267  0.1146 -0.0551  0.0687
87698W        W30611  21.230  31.604  27.303  0.5162  0.0864 -0.0281
87699W        W30612  15.952   3.020   5.622  0.0660 -0.3336 -0.0449
87700W        W30613  18.132  32.577  28.875  0.3518  0.0255  0.0117
87701W        W30614  14.113   7.358   5.942 -0.2183  0.0460  0.2362
87702W        W30615   8.710  27.662  19.375  0.0106  0.2852  0.2296
87703W        W30616  11.185   9.536  11.810  0.1108 -0.2421 -0.1474
87704W        W30617  32.974  10.118   3.664  0.0509  0.0306  0.0630
87705W        W30618   8.600   6.906  11.751 -0.0764 -0.0261 -0.1797
87706W        W30619  13.440  27.342   2.448  0.1222 -0.0285  0.0197
87707W        W30620   8.848   2.134  12.407 -0.0373  0.0831  0.0553
87708W        W30621  12.577   1.887   6.022  0.2456 -0.1904  0.2440
87709W        W30622   4.786   4.384   9.008  0.0944 -0.0329  0.0540
87710W        W30623  12.773   5.502   3.664 -0.0075 -0.1416 -0.3288
87711W        W30624  18.913   2.245  22.095  0.0323 -0.0287  0.4327
87712W        W30625   4.543   1.897   8.188  0.0130 -0.1467  0.0400
87713W        W30626  20.974   0.715   2.433 -0.2002 -0.0491  0.1122
87714W        W30627   3.086   1.354   3.981 -0.1402  0.2608 -0.3102
87715W        W30628   8.139   5.752   6.295 -0.2464  0.0834  0.0503
87716W        W30629   9.885  31.990  10.845 -0.1534 -0.0735 -0.1552
87717W        W30630  10.693  30.036   1.538 -0.0072 -0.3140 -0.2274
87718W        W30631  16.242  28.376   2.066  0.2078 -0.1328 -0.3527
87719W        W30632  16.355  34.437   7.441  0.0934 -0.4436  0.2439
87720W        W30633   2.840  10.917   9.857  0.0959 -0.0959 -0.3067
87721W        W30634   4.709   4.377  10.784 -0.0055 -0.1917 -0.0598
87722W        W30635  17.790  22.133   6.767  0.0813 -0.2687 -0.5970
87723W        W30636  34.383   4.462   0.454 -0.5094  0.0736 -0.1722
87724W        W30637   6.481   6.736   5.307  0.1652  0.0897 -0.0320
87725W        W30638   1.841   1.862   5.452  0.1010 -0.0831 -0.1559
87726W        W30639  11.013   5.287   4.339  0.2362 -0.1534 -0.2289
87727W        W30640   6.857   2.870   7.333  0.2851  0.0360 -0.3396
87728W        W30641  17.438  33.818  23.428 -0.2529 -0.0299 -0.1246
87729W        W30642  15.008   1.488   3.421  0.2091 -0.1541  0.0700
87730W        W30643  10.148  31.583   5.015 -0.2607  0.1553  0.0687
87731W        W30644   0.699  11.890   7.242  0.1686 -0.0115 -0.4690
87732W        W30645  18.061   1.795   5.986  0.2469 -0.1819 -0.0323
87733W        W30646  15.669   1.654   9.072 -0.0117 -0.3787 -0.3168
87734W        W30647  17.049  15.380  27.424 -0.1212  0.1391  0.3416
87735W        W30648  12.981   6.902  20.183  0.4351  0.2442  0.0391
87736W        W30649  17.292  23.217  29.383 -0.2119  0.1216 -0.0292
87737W        W30650  23.645  33.057  27.850  0.0584  0.0899  0.0675
87738W        W30651  13.877   3.922  27.876 -0.1698  0.0032  0.4577
87739W        W30652  16.858  34.252  19.626 -0.0657 -0.2145 -0.0669
87740W        W30653   8.534  30.830   2.839 -0.3270  0.0266 -0.1621
87741W        W30654  11.434   6.988   1.609 -0.2458  0.0226  0.2676
87742W        W30655  13.230  14.562   5.128 -0.0597 -0.0099 -0.1195
87743W        W30656  15.215   8.143   2.562 -0.2341 -0.2748 -0.2009
87744W        W30657   3.425   6.116  22.589  0.0687  0.1660 -0.1128
87745W        W30658   7.324   3.604  11.211 -0.3579  0.2646 -0.2179
87746W        W30659   4.724   9.398  29.710 -0.4944 -0.2774  0.0699
87747W        W30660  31.008  33.877   8.951 -0.0837  0.0814 -0.1146
87748W        W30661   7.497  30.719  22.889 -0.0552  0.1263  0.4572
87749W        W30662  15.045   3.927   5.336 -0.3588  0.2625  0.3124
87750W        W30663   4.080   3.877   8.579 -0.1289 -0.0132 -0.1823
87751W        W30664  18.842   2.463   9.517 -0.2422  0.1636 -0.0788
87752W        W30665   7.059   3.573  24.100  0.1552 -0.2793  0.2259
87753W        W30666  14.490   6.576   8.635  0.3675  0.1111  0.0126
87754W        W30667   6.887  28.641   0.418  0.1732 -0.0653 -0.1013
87755W        W30668  13.569  11.570   4.122 -0.0487 -0.2346  0.2096
87756W        W30669  24.104   4.079   9.559  0.1367  0.1075  0.0144
87757W        W30670   6.884  14.626   3.483  0.0228 -0.1608 -0.1097
87758W        W30671   7.404   4.263  26.072 -0.2555 -0.1360  0.2086
87759W        W30672  19.630  30.977  28.817 -0.0058  0.0018  0.2330
87760W        W30673   6.640   7.848   8.999  0.2838 -0.0603 -0.0067
87761W        W30674  26.993  22.873   6.639 -0.2194  0.0423 -0.1331
87762W        W30675  13.484  34.368   7.951  0.1322  0.1854  0.0550
87763W        W30676  15.390  24.059  21.887  0.0414  0.3536  0.0156
87764W        W30677  14.890  30.581   3.031 -0.2223  0.0400  0.1060
87765W        W30678  20.012   2.319   7.097  0.0918  0.2330 -0.2049
87766W        W30679  11.472   3.565   2.215  0.1558 -0.0896 -0.1838
87767W        W30680   5.474   2.551  26.788 -0.1859  0.0265 -0.1317
87768W        W30681   6.438  31.372   1.578 -0.0122 -0.0568  0.0503
87769W        W30682  13.271   6.896   7.964  0.1242 -0.0814  0.1548
87770W        W30683  14.629  33.737   8.229  0.3456  0.1400 -0.4149
87771W        W30684  24.698   2.159   4.683 -0.0041  0.0261  0.1645
87772W        W30685  10.939  27.005  27.285 -0.0850  0.1601 -0.0059
87773W        W30686  14.147   5.644   6.610  0.3796  0.0413 -0.1538
87774W        W30687  17.804  12.263   7.388 -0.1846  0.1629 -0.0812
87775W        W30688  12.015   9.277   4.745  0.1247 -0.1295 -0.1517
87776W        W30689  26.846  32.320  27.535  0.0468  0.1568  0.0442
87777W        W30690  18.861  31.235   7.446  0.1433  0.0239  0.1042
87778W        W30691   7.801  25.166  29.262  0.2026  0.4138  0.0435
87779W        W30692   8.773  29.445   2.885  0.2824 -0.0779  0.1817
87780W        W30693  12.313  33.852  28.191  0.3817 -0.0098 -0.2934
87781W        W30694  18.501  16.376   5.023  0.1619  0.0608  0.0317
87782W        W30695  19.582  22.422   1.651  0.0880 -0.2946 -0.3702
87783W        W30696   7.383  31.057   1.269  0.0240  0.2116  0.1471
87784W        W30697  14.242  12.184   3.429 -0.3055  0.0854  0.0738
87785W        W30698  14.949   6.658   2.436  0.0095  0.0905  0.0360
87786W        W30699   5.753   5.389   7.173 -0.1292  0.0467  0.2568
87787W        W30700  20.177  14.259   7.815 -0.2411 -0.3177  0.3617
87788W        W30701  20.608   1.351   6.291  0.0678 -0.2800  0.1110
87789W        W30702   7.343  33.470   1.757 -0.0189 -0.2065  0.2866
87790W        W30703  14.919   4.388   8.099 -0.0865 -0.2481  0.1124
87791W        W30704   9.188  34.426   2.324 -0.1032  0.0540  0.2559
87792W        W30705  18.648  31.931  25.414 -0.3435  0.2170  0.0549
87793W        W30706   9.270   0.377   6.892 -0.2168  0.0471  0.2966
87794W        W30707   2.032   1.907  10.140  0.2317  0.2560  0.1210
87795W        W30708  11.941   8.551   7.711  0.2637  0.0057 -0.0397
87796W        W30709  13.844   9.406   1.324  0.2933  0.0221  0.0787
87797W        W30710   2.634  30.475   2.769  0.2261  0.1792  0.2415
87798W        W30711  10.761   3.003   6.199 -0.2091 -0.0417 -0.1653
87799W        W30712   9.596  25.804   6.358 -0.0331  0.0161  0.1692
87800W        W30713  10.906  10.875   3.818  0.2095 -0.1106 -0.0133
87801W        W30714  11.926  33.690   6.711 -0.0877 -0.3028 -0.1554
87802W        W30715  13.730  28.845   6.040  0.1207 -0.0689  0.2169
87803W        W30716  17.677  28.448   9.410  0.1115 -0.0104  0.0064
87804W        W30717   5.393  11.782   0.768  0.2093 -0.0860  0.2535
87805W        W30718   7.249   8.878   9.072  0.2393 -0.1910  0.0246
87806W        W30719  17.411  27.137   3.828  0.1552  0.2618  0.0162
87807W        W30720   9.913   7.706  23.052 -0.4357 -0.0995  0.0362
87808W        W30721  19.162   8.273   3.556 -0.3261  0.0860 -0.4542
87809W        W30722   8.839   0.268   7.032 -0.0407  0.0731 -0.1450
87810W        W30723  34.035   8.529   2.114 -0.2639 -0.3873 -0.0465
87811W        W30724  11.087  34.167   7.285 -0.0327  0.1553 -0.0810
87812W        W30725  15.264   4.922  11.470  0.3673  0.2222 -0.0128
87813W        W30726   4.440  31.093   6.433  0.0931 -0.0456 -0.2000
87814W        W30727   5.650  27.195   6.127  0.0753 -0.0611  0.0897
87815W        W30728  10.842  28.816   3.404  0.1504 -0.2372  0.0655
87816W        W30729  17.035  22.267  26.036  0.2061 -0.1322 -0.1764
87817W        W30730   0.917   7.885  11.844 -0.1567 -0.1494  0.1128
87818W        W30731   6.337   6.004  11.584 -0.0040 -0.0174  0.1497
87819W        W30732   7.835  33.865   3.113  0.2070 -0.0719 -0.2237
87820W        W30733   6.579   2.261  27.611  0.1959 -0.5454  0.0907
87821W        W30734  16.472  31.827   7.915  0.1669  0.4545 -0.1781
87822W        W30735   9.517  26.561   0.677  0.0515  0.3834  0.0667
87823W        W30736  17.770  33.882   8.319 -0.1095 -0.1492  0.0576
87824W        W30737  11.636  12.675  24.856  0.0242 -0.1794  0.5272
87825W        W30738   4.838   4.279   1.145 -0.0612  0.1145  0.0611
87826W        W30739  19.317   3.769   4.817 -0.1728  0.0316  0.1451
87827W        W30740   4.690  28.836   7.566  0.0921  0.1320  0.1153
87828W        W30741  10.347   1.135   9.238  0.1247  0.1812  0.0113
87829W        W30742  15.095  22.826   4.053 -0.0080 -0.0110  0.1969
87830W        W30743  11.384  11.737   4.995 -0.1468  0.0135 -0.3064
87831W        W30744  15.220  32.846   1.259 -0.1968 -0.1282  0.1217
87832W        W30745  11.147  33.690  27.152 -0.0806 -0.6010 -0.0772
87833W        W30746  26.957   1.380   9.915  0.2142 -0.3477 -0.2850
87834W        W30747   9.948  15.183  26.302 -0.1728 -0.0007  0.0862
87835W        W30748   9.846  28.546   5.862 -0.1339 -0.1912 -0.1521
87836W        W30749  17.203  28.426   2.160  0.0655 -0.2518 -0.3638
87837W        W30750  14.601  27.138   6.244 -0.0855  0.3414  0.4830
87838W        W30751  12.441  31.330   8.006 -0.0455  0.1113 -0.1001
87839W        W30752  14.759   8.032   9.596  0.2197  0.1025 -0.1083
87840W        W30753  20.589  31.979   9.796  0.1509  0.3105 -0.1234
87841W        W30754  10.757  33.602   2.861  0.1316  0.0189 -0.2889
87842W        W30755  20.430  11.873  28.105  0.0706  0.3452  0.0261
87843W        W30756  18.368  34.039   9.641 -0.0311  0.0218 -0.0896
87844W        W30757  11.191  30.020   5.425  0.0919 -0.0918 -0.1318
87845W        W30758  17.626   4.754  10.616  0.2448 -0.3421 -0.1043
87846W        W30759  22.658  28.398   7.164  0.0835 -0.0138 -0.1773
87847W        W30760  22.380   5.390  10.117 -0.1804  0.0943  0.1488
87848W        W30761  12.925   8.333   4.941 -0.0809  0.4687  0.2961
87849W        W30762  15.900   8.527   1.478  0.1554 -0.2229 -0.1308
87850W        W30763  11.446  24.919   7.037 -0.1589 -0.0259  0.0362
87851W        W30764  11.164   0.706   9.142 -0.0043  0.0259 -0.0135
87852W        W30765   8.941   7.618   6.737 -0.2728  0.4022  0.1203
87853W        W30766  15.417   1.997   7.741 -0.2826 -0.1355  0.0607
87854W        W30767  19.263   0.968  23.780  0.2185  0.4159  0.3390
87855W        W30768  13.440   6.693  10.171  0.1108 -0.0422  0.0877
87856W        W30769  17.474  33.872   4.331 -0.0470 -0.3029  0.0756
87857W        W30770  17.912   0.528  24.666 -0.2379  0.1286 -0.0860
87858W        W30771  19.463  28.963   0.578 -0.0065 -0.0347  0.0670
87859W        W30772   3.693   1.809   4.621 -0.0103  0.0218 -0.1380
87860W        W30773   7.685   0.728  10.876  0.3231 -0.3588  0.0607
87861W        W30774   6.307   3.427  10.713  0.0149 -0.0595 -0.4001
87862W        W30775  13.817   2.997   7.949 -0.0783  0.2225  0.1760
87863W        W30776   5.847   1.439   9.687  0.1494  0.2560  0.0945
87864W        W30777  19.623  29.509   5.421  0.1564 -0.2198  0.2226
87865W        W30778   4.701  34.210   1.481  0.0770  0.2244  0.1231
87866W        W30779   6.441   9.742  28.261  0.0530 -0.0792  0.2994
87867W        W30780  22.715   5.803  10.229 -0.0733 -0.2390  0.3245
87868W        W30781  17.606   0.120   2.908  0.2951 -0.3237 -0.0006
87869W        W30782  31.947   5.000   5.028 -0.0767  0.1249  0.2639
87870W        W30783   6.084  31.383   6.011  0.1112 -0.1436 -0.0057
87871W        W30784  16.012  15.017  21.615  0.3103  0.0727  0.3064
87872W        W30785  17.306   6.471   7.940 -0.4484 -0.0455 -0.0323
87873W        W30786  15.422   8.604  26.291  0.1010 -0.3766 -0.0058
87874W        W30787  11.311   1.390   6.398 -0.1143 -0.1345  0.2370
87875W        W30788  10.304  29.946   6.834  0.0053  0.4071 -0.1355
87876W        W30789   5.181  26.566   9.759 -0.0617 -0.3248 -0.0115
87877W        W30790   1.282   3.949  10.046 -0.1122  0.2946 -0.1595
87878W        W30791   1.337   4.012   3.237 -0.5426 -0.2066 -0.2735
87879W        W30792   6.525  25.997  29.557  0.0031 -0.1525  0.2583
87880W        W30793   5.301  30.202   1.724 -0.0180  0.4375  0.0558
87881W        W30794   4.270   1.740   4.212  0.0766 -0.1679 -0.1817
87882W        W30795   8.004  31.729   2.345  0.0472  0.0626 -0.2857
87883W        W30796   8.659   0.102   2.496  0.0063  0.3294  0.1205
87884W        W30797  10.042  31.966  27.730  0.6031  0.1947 -0.0530
87885W        W30798  19.480   3.049  22.089 -0.1878  0.0741  0.4666
87886W        W30799  16.549  33.197   4.114  0.0335 -0.0543  0.0816
87887W        W30800  19.463  31.366   2.235 -0.1608  0.1248 -0.2542
87888W        W30801   1.520  31.126   9.526 -0.0219  0.2914 -0.2047
87889W        W30802  11.624  11.257   6.618  0.0485  0.1405  0.3131
87890W        W30803  11.874  33.119  29.638  0.0553  0.2343  0.2339
87891W        W30804  19.381  26.396  25.388 -0.0199 -0.1201  0.2156
87892W        W30805  11.956  32.756  12.683 -0.2710  0.0673  0.0128
87893W        W30806  21.358   0.842   9.876  0.1931  0.0251  0.0619
87894W        W30807  12.426   2.406   6.316  0.2721 -0.1159 -0.2387
87895W        W30808  26.750   2.019   4.882 -0.1667  0.0037  0.0739
87896W        W30809  18.447  30.453   3.264 -0.0945  0.0058 -0.1321
87897W        W30810  12.482  33.242   8.676 -0.0569 -0.0002 -0.4010
87898W        W30811  11.320   0.529   3.220 -0.1019  0.1686  0.1888
87899W        W30812  15.699  26.926   5.669  0.0627  0.0238 -0.5728
87900W        W30813  16.862  31.871   3.400 -0.0106  0.2612 -0.1008
87901W        W30814  19.291   0.522   8.163  0.2461 -0.0123  0.0802
87902W        W30815   9.599  33.109   8.740  0.2003  0.0866  0.1795
87903W        W30816  11.426  28.491   7.023  0.0269  0.2664 -0.2852
87904W        W30817  19.660  23.701  29.719 -0.0370 -0.1114  0.2661
87905W        W30818   9.869  11.310  19.966 -0.3395 -0.1789  0.2277
87906W        W30819  10.741   2.296  12.689  0.0575 -0.0359 -0.1575
87907W        W30820   9.004  11.066  11.264 -0.1421  0.5018 -0.3126
87908W        W30821   7.947   4.265  11.100 -0.1828 -0.1736 -0.0149
87909W        W30822  14.479   4.895  28.342 -0.0246  0.1069 -0.1160
87910W        W30823   7.742   7.678   2.772  0.0858 -0.0365  0.3531
87911W        W30824  10.788   1.700  28.155 -0.2645 -0.0560 -0.2717
87912W        W30825  13.948  31.671   7.726  0.2840 -0.0952 -0.2159
87913W        W30826  11.099   2.630   5.322 -0.3238 -0.1198 -0.1861
87914W        W30827  20.542   4.969   0.863  0.2758 -0.1546 -0.2060
87915W        W30828   7.624  33.101  10.229  0.1302  0.0282 -0.4746
87916W        W30829   3.811   1.285   4.578  0.2429  0.1266 -0.0705
87917W        W30830   8.314   4.874  27.949 -0.0468 -0.2795  0.0290
87918W        W30831  13.298  33.436   5.344 -0.1641  0.3023  0.3344
87919W        W30832  21.347  29.378  23.867 -0.1006  0.0698  0.3292
87920W        W30833  18.147  33.351   7.780  0.2455 -0.1096 -0.2374
87921W        W30834  17.693   4.870   0.684 -0.1594  0.1901 -0.0909
87922W        W30835   7.124  34.014   2.070  0.1494  0.0920  0.0554
87923W        W30836  18.945  31.406   1.489 -0.0744 -0.1923  0.1505
87924W        W30837   3.310   5.412   5.471 -0.2436  0.0373 -0.2057
87925W        W30838  10.778  33.116   7.204  0.1228 -0.0256  0.3140
87926W        W30839  19.188   3.583   5.325  0.1384 -0.4462  0.0098
87927W        W30840   5.283   0.912   6.653  0.0000 -0.0530 -0.4234
87928W        W30841  18.087  10.779   5.622  0.0832 -0.2381  0.0024
87929W        W30842  13.091  27.356   2.797  0.1497  0.2975  0.0151
87930W        W30843  17.450   6.060   7.611  0.2315 -0.2036  0.1817
87931W        W30844  10.639  32.844   8.070  0.0181 -0.1348  0.0647
87932W        W30845  13.094  25.213   0.963 -0.2734  0.1814 -0.0368
87933W        W30846  13.266  13.653  23.280 -0.0720 -0.0310 -0.0198
87934W        W30847   9.452  28.425  27.306 -0.3155 -0.0394 -0.1306
87935W        W30848  14.974  26.789   1.933  0.0398  0.3841  0.0826
87936W        W30849   9.304  10.602  10.333 -0.1309  0.1730 -0.0013
87937W        W30850   4.608  31.438  28.395 -0.0966  0.0106  0.2452
87938W        W30851  17.161   1.282   3.813  0.3080  0.2963 -0.2012
87939W        W30852  31.813  28.763   4.948 -0.2216 -0.2716  0.0582
87940W        W30853  13.535  34.432   7.432  0.1951 -0.1511  0.1791
87941W        W30854  10.818   2.392   0.947 -0.3181  0.5071  0.1121
87942W        W30855  21.761   6.453   0.393  0.0843  0.4090  0.2641
87943W        W30856  17.176  14.178   3.484 -0.1450  0.1722 -0.0040
87944W        W30857   5.869  31.722   2.363 -0.2483 -0.2087 -0.1347
87945W        W30858  11.781  26.358   9.296  0.2167  0.0046  0.1484
87946W        W30859   1.372   3.633   8.451  0.1057 -0.1086  0.1497
87947W        W30860  24.075   0.416   1.325 -0.1872 -0.1979  0.0085
87948W        W30861   9.835   8.010   7.263 -0.3660  0.0106  0.2310
87949W        W30862  19.259  24.328   5.235 -0.1907 -0.1617  0.5380
87950W        W30863   8.179   2.187  11.550 -0.2344  0.3458 -0.0242
87951W        W30864   8.004   0.630  11.815 -0.0710  0.2595 -0.0752
87952W        W30865  14.750   6.701  26.653 -0.1115 -0.0899 -0.2545
87953W        W30866  12.844  26.572   9.078 -0.1192 -0.3060  0.2878
87954W        W30867   5.757  11.779  19.618 -0.1404 -0.0260 -0.1011
87955W        W30868  17.173   0.846   1.657 -0.0460 -0.0994  0.1096
87956W        W30869  18.166  28.942   6.617  0.0485 -0.0090 -0.1652
87957W        W30870  21.790  11.561  29.644  0.0245 -0.0970  0.2820
87958W        W30871  22.640  29.639   5.391 -0.0762 -0.0051 -0.2298
87959W        W30872   9.141   7.655  10.745  0.0330 -0.0101 -0.1996
87960W        W30873  17.714   3.819   5.704 -0.3738  0.1366 -0.1355
87961W        W30874  12.664  24.466  10.207 -0.0420  0.1377 -0.1646
87962W        W30875  13.456   5.317   7.135  0.1587 -0.1296 -0.0971
87963W        W30876  21.231  12.451   0.365  0.1070 -0.2373 -0.1117
87964W        W30877   5.755   8.876   1.101 -0.1359  0.1851  0.0287
87965W        W30878  10.471   3.948   8.667 -0.0747  0.0784 -0.0106
87966W        W30879  25.076  28.435   5.068  0.0371  0.0999 -0.0479
87967W        W30880  13.719   4.025  11.103  0.0862 -0.3033  0.2325
87968W        W30881  12.864   6.905  11.149 -0.1109  0.0671  0.0359
87969W        W30882  11.919  12.125   0.661 -0.3999 -0.1646  0.1521
87970W        W30883  24.959  30.767   7.290 -0.0626 -0.1751  0.1226
87971W        W30884  11.968  29.016   6.029 -0.0770  0.2748  0.0267
87972W        W30885  15.320   0.690   8.950 -0.0028 -0.3292 -0.0661
87973W        W30886   7.627   5.954   6.249 -0.0753 -0.3791  0.0622
87974W        W30887  12.081   5.806   2.207  0.1079 -0.2177  0.1029
87975W        W30888  33.759   2.018  10.004  0.1463  0.3549 -0.2673
87976W        W30889   1.172   5.934  11.370 -0.0260  0.0153  0.2175
87977W        W30890  13.284   4.841   7.207  0.2091  0.0385 -0.2497
87978W        W30891  17.136  17.083   6.592 -0.0137  0.2776  0.1615
87979W        W30892  15.151   0.170   0.985 -0.0007  0.1787 -0.4219
87980W        W30893  11.113  31.707   3.622 -0.0920 -0.0741  0.0200
87981W        W30894  17.466  32.528   0.095 -0.0223 -0.1227 -0.0205
87982W        W30895  14.726  32.038   3.009 -0.4099  0.4245 -0.2412
87983W        W30896   7.745   7.421   2.010 -0.1749  0.0732 -0.3713
87984W        W30897  12.604   2.336   0.229 -0.1167 -0.1614 -0.3291
87985W        W30898  10.787   2.919   7.126  0.3464 -0.3339  0.0950
87986W        W30899  11.755   0.639   5.497  0.0660 -0.2187 -0.1659
87987W        W30900   2.404  33.451  28.550  0.3625  0.0677  0.3422
87988W        W30901  14.952   1.363   8.551 -0.1118  0.1472  0.0094
87989W        W30902   5.112  17.720   8.025  0.1903  0.1986 -0.0668
87990W        W30903  11.198  11.038   5.111 -0.2075  0.4532 -0.1462
87991W        W30904  17.859   6.826   3.542  0.2096 -0.1667  0.1344
87992W        W30905  22.265  30.677   7.135  0.1500  0.0599  0.0851
87993W        W30906  34.316  32.996   5.848 -0.0711  0.0087 -0.1547
87994W        W30907  10.575   5.325   1.341 -0.1509 -0.1507 -0.4715
87995W        W30908   7.994  27.529   8.261  0.0701 -0.0438 -0.1368
87996W        W30909   8.318   5.964  28.090  0.1100  0.2271 -0.0932
87997W        W30910  14.013  16.531   2.969 -0.0535 -0.0844  0.0420
87998W        W30911   5.024  32.717   9.379 -0.1256 -0.0830 -0.1175
87999W        W30912   3.418  26.419   8.713  0.0703 -0.0654  0.0546
88000W        W30913  19.843  25.475   2.944  0.0244  0.3365 -0.0702
88001W        W30914  20.262  21.825  25.130 -0.0155 -0.1545 -0.1709
88002W        W30915  20.674  34.036   9.983  0.2001 -0.0414  0.1066
88003W        W30916  28.238   6.746   3.539  0.0755  0.1654  0.0702
88004W        W30917  10.248  28.516   5.571 -0.1395  0.0178  0.0247
88005W        W30918   8.192  26.753   6.832 -0.2111 -0.0254  0.0031
88006W        W30919   7.186   1.852  11.841 -0.3766 -0.0359  0.0237
88007W        W30920  10.600   4.178   8.250 -0.2240  0.1582  0.2605
88008W        W30921  13.717   1.112  24.276 -0.3036  0.2989  0.4519
88009W        W30922  15.730  28.425  28.231  0.1173 -0.3861 -0.0281
88010W        W30923  10.108   2.576   1.277  0.3238 -0.0303 -0.0510
88011W        W30924  21.755   6.556   2.582 -0.2742  0.2368 -0.0441
88012W        W30925  16.170   1.411  21.964 -0.2531  0.4392  0.4076
88013W        W30926  23.590  32.800   1.097 -0.0719  0.2003 -0.1078
88014W        W30927  13.332  33.292  10.006  0.0787  0.0335 -0.1295
88015W        W30928  14.781  10.439  25.143 -0.0764 -0.0100  0.0108
88016W        W30929  12.696   2.029   7.138 -0.1527 -0.1834  0.0529
88017W        W30930   7.049  32.546  26.231 -0.0101 -0.0788  0.0334
88018W        W30931  15.122   7.556   6.958 -0.0210  0.1401  0.1791
88019W        W30932  13.511  29.533  10.414  0.2381 -0.3037 -0.2113
88020W        W30933   7.245  11.421   7.021  0.1297  0.4907  0.2335
88021W        W30934  21.463   0.320   0.723  0.2778  0.2387 -0.1806
88022W        W30935   9.954  33.504   1.631 -0.2113  0.0234  0.0231
88023W        W30936   7.850   4.753   7.359  0.1141  0.2307  0.2226
88024W        W30937   3.401   5.457  10.429  0.2609  0.3445  0.4069
88025W        W30938  15.023  34.272   7.845 -0.3256  0.0838 -0.4600
88026W        W30939  16.436   3.353  23.644  0.0237  0.2140 -0.0381
88027W        W30940  21.445  31.625   5.111 -0.2565 -0.1165  0.4004
88028W        W30941   4.571  27.477  29.494 -0.3530 -0.0982  0.1168
88029W        W30942  11.963   0.730  24.586 -0.1467 -0.1517 -0.0462
88030W        W30943   3.192   7.404   0.593  0.0323 -0.1483  0.1648
88031W        W30944  12.016  30.569   9.974  0.2116  0.1315  0.0449
88032W        W30945   9.118   1.394  27.596  0.0948  0.1367  0.4461
88033W        W30946  20.013  18.683   0.534  0.1099 -0.4111 -0.0424
88034W        W30947   5.675   1.824   9.048 -0.0138  0.1561  0.1181
88035W        W30948  14.635   3.212   3.939  0.0146 -0.2676  0.2443
88036W        W30949   6.075  30.763  12.133 -0.3107 -0.0127 -0.2622
88037W        W30950  17.169  31.088  10.669  0.4399  0.3512 -0.0239
88038W        W30951   7.891  27.755   5.242  0.2118 -0.1035  0.1080
88039W        W30952  15.389  34.219  24.622  0.3370  0.2327 -0.0158
88040W        W30953  21.684   7.202   4.051 -0.4081 -0.1052  0.0503
88041W        W30954  14.797   2.852  10.013  0.1001 -0.0026 -0.1512
88042W        W30955  20.079  24.672  24.863  0.2389  0.1297 -0.3357
88043W        W30956   6.443   4.038  21.534  0.1695  0.2838  0.0712
88044W        W30957  10.395  32.040  11.739  0.2539 -0.2638  0.1918
88045W        W30958  16.397  28.082   3.009 -0.0548 -0.0940  0.0008
88046W        W30959   9.447  25.257  10.224  0.1798 -0.0438  0.0551
88047W        W30960  14.992   1.907   5.831  0.3804 -0.1626  0.0484
88048W        W30961  10.940   3.306   3.779 -0.0188 -0.2099 -0.0698
88049W        W30962   3.742  21.060   8.087  0.0559 -0.0878  0.1300
88050W        W30963   3.909   6.974   6.204  0.0431  0.1179  0.0835
88051W        W30964  20.445  11.387  29.691  0.0978  0.2283 -0.0466
88052W        W30965   1.625   0.271   7.464 -0.0997 -0.0598  0.0209
88053W        W30966   6.784   2.618   2.325 -0.0874  0.5961  0.1917
88054W        W30967  10.464   5.613   6.803 -0.1243  0.0050  0.2028
88055W        W30968  26.007  29.211  29.701  0.1910  0.1094  0.3795
88056W        W30969   8.980  33.260   2.011 -0.1105  0.0523 -0.0019
88057W        W30970  12.572   7.410   8.944  0.0911  0.0181 -0.1162
88058W        W30971   9.251  31.413  11.898 -0.1402  0.4162  0.0077
88059W        W30972  19.603  26.243   4.151  0.0937 -0.0330 -0.0943
88060W        W30973  11.539  26.359   2.489  0.0688  0.0485  0.0266
88061W        W30974  11.499   6.442   5.465  0.1007  0.0928  0.3139
88062W        W30975  14.095   3.039  10.563  0.1141  0.0826 -0.0027
88063W        W30976  13.662  31.126   5.947  0.3484 -0.0189  0.2822
88064W        W30977  19.906  10.233   6.514 -0.0597 -0.1191 -0.0908
88065W        W30978   8.694   4.442  11.925  0.2235 -0.3076 -0.0600
88066W        W30979  17.077   3.204  24.963  0.1165 -0.1497 -0.0922
88067W        W30980   0.918  28.344  29.175  0.3327  0.2315 -0.2001
88068W        W30981  20.931  34.115   3.552 -0.0318 -0.1197  0.1202
88069W        W30982  10.295   0.460  29.167 -0.1170 -0.1488  0.1379
88070W        W30983  12.448  27.144   3.637 -0.2406 -0.0376 -0.2452
88071W        W30984   9.115  33.745   1.921 -0.0325 -0.4263  0.2731
88072W        W30985  13.389   5.441   7.936  0.2183 -0.0446 -0.1247
88073W        W30986  10.346   2.908   9.208 -0.0618  0.1109  0.0336
88074W        W30987  10.860  31.914  11.523 -0.2579  0.1180 -0.0205
88075W        W30988  13.148   3.075   6.332  0.0628 -0.2280  0.0234
88076W        W30989  20.638  32.373  24.361  0.2709 -0.2981 -0.1513
88077W        W30990   2.816   0.333   2.860  0.0156 -0.0264 -0.1234
88078W        W30991  19.785  34.179   4.402  0.0954  0.0451  0.0526
88079W        W30992  13.097   6.394   3.483 -0.0060 -0.0928 -0.2734
88080W        W30993   4.478  32.549   8.240  0.0782 -0.1402  0.2908
88081W        W30994  16.539   8.487  25.747 -0.2999 -0.0809 -0.2542
88082W        W30995  16.843  32.876  29.154 -0.2687 -0.1629  0.1553
88083W        W30996  25.063   6.354  29.451 -0.1507  0.1603 -0.0005
88084W        W30997   4.243   1.218  11.928 -0.1388 -0.0365  0.0203
88085W        W30998   0.215  29.370   6.307  0.0848  0.1048  0.2199
88086W        W30999  19.501  33.705   5.002 -0.3265  0.0076 -0.1630
88087W        W31000   2.626   5.210   9.839 -0.1907 -0.0244  0.1430
88088W        W31001  24.780   7.175  27.157 -0.0785 -0.2108  0.1823
88089W        W31002  10.036   4.870  11.634  0.2082  0.0079 -0.0691
88090W        W31003  11.026   6.441  26.887  0.1572  0.2328 -0.2697
88091W        W31004  28.335  31.438   5.718 -0.1495  0.3174 -0.0665
88092W        W31005  15.244  33.053  27.149 -0.0592  0.0063 -0.3999
88093W        W31006   7.532   5.231   1.989  0.0533  0.1143 -0.0459
88094W        W31007   0.226  32.540   6.418 -0.0909  0.1568 -0.1269
88095W        W31008  11.807   4.034   2.867 -0.1689 -0.0203  0.4203
88096W        W31009  15.524  17.751   0.416 -0.0382  0.0676  0.1547
88097W        W31010  16.269  30.161   0.421  0.2978  0.1133  0.3007
88098W        W31011   6.015   3.854  26.120  0.3120  0.0542 -0.0907
88099W        W31012  14.237  23.567  28.826 -0.1979  0.2554 -0.0797
88100W        W31013   5.326   2.271  12.317 -0.2556  0.0727  0.2420
88101W        W31014  10.330   5.777  11.915  0.1010  0.1424  0.0979
88102W        W31015  14.119  20.890   2.351 -0.0952 -0.3405  0.1714
88103W        W31016  11.154   4.282  28.671 -0.3063 -0.2386  0.0266
88104W        W31017  20.726  13.434   8.286  0.1901  0.0876  0.0359
88105W        W31018   7.698  27.664   6.845 -0.2630 -0.0414  0.1342
88106W        W31019  14.151  31.029   2.657 -0.0707  0.0284  0.0030
88107W        W31020  16.366   1.978   4.166  0.0536  0.2834  0.0766
88108W        W31021  19.757  30.173   1.355  0.0008 -0.0968 -0.0054
88109W        W31022  15.384  24.510   5.822 -0.1064  0.2983 -0.3947
88110W        W31023  14.741   4.932  10.294 -0.0391  0.0513  0.0827
88111W        W31024  14.891   6.598   3.510  0.2487  0.0258 -0.0079
88112W        W31025  15.040  32.530  25.977  0.2970 -0.1000  0.4490
88113W        W31026   5.855  28.364  25.009  0.1314  0.2553 -0.0564
88114W        W31027   9.795  28.260  29.599  0.1138  0.0227 -0.3957
88115W        W31028  10.891   4.350   6.577 -0.1793  0.2696  0.0202
88116W        W31029   3.948   3.311  29.183 -0.0901 -0.0880  0.2202
88117W        W31030   5.149  26.296   7.508  0.2528  0.3347  0.1961
88118W        W31031  12.390  31.317   9.170  0.0106  0.1937  0.0270
88119W        W31032  19.508   1.940   1.107 -0.1146 -0.0964 -0.1763
88120W        W31033  24.648  33.012  10.637  0.0037 -0.1088 -0.0505
88121W        W31034  16.011  27.845   7.136 -0.1136  0.4451  0.0249
88122W        W31035  19.309  33.958   9.028 -0.0443 -0.0993 -0.0641
88123W        W31036   3.918  34.491   3.883  0.1185  0.2898  0.2901
88124W        W31037  10.897   7.189   8.705 -0.1440 -0.2301 -0.2138
88125W        W31038   6.646   0.096   7.710  0.0477 -0.2678  0.0067
88126W        W31039   0.662  34.347   6.435 -0.1747 -0.2417 -0.2192
88127W        W31040   7.191   6.393   7.745 -0.0375 -0.5033  0.2051
88128W        W31041  21.487  28.049   8.346  0.3092 -0.0548 -0.2401
88129W        W31042  11.869   0.000  12.234  0.2103  0.0097 -0.0836
88130W        W31043   3.290   3.283   8.386 -0.1166  0.0283 -0.0929
88131W        W31044  18.420  22.700   5.947  0.2296  0.1981 -0.0833
88132W        W31045  18.007   9.697   8.851 -0.1287 -0.1767 -0.0628
88133W        W31046   2.434   3.718  11.601  0.2547 -0.1978  0.1207
88134W        W31047  15.985   4.116   8.944  0.3768  0.2836 -0.1663
88135W        W31048  12.993  11.308   6.528 -0.2089  0.0911  0.0268
88136W        W31049   5.504   1.751   3.568  0.1537 -0.2835  0.1940
88137W        W31050  12.522  33.519   4.810  0.1660  0.1454  0.0540
88138W        W31051  14.059  24.633   0.552  0.1807 -0.3055 -0.2948
88139W        W31052   2.260   3.073   3.693 -0.2365 -0.3853 -0.0009
88140W        W31053   5.599  23.394   4.131  0.3836  0.0403 -0.1453
88141W        W31054  19.969   4.904   8.869 -0.1732 -0.0746  0.1471
88142W        W31055  30.889  32.149   7.620  0.0608 -0.1215  0.0135
88143W        W31056   4.715   7.401   5.999  0.3760  0.0125 -0.3701
88144W        W31057   5.877   7.484  11.732  0.0720 -0.1957  0.3683
88145W        W31058  10.435  29.750   9.233  0.1051  0.1641 -0.2414
88146W        W31059   4.598  30.685   4.912 -0.1651  0.1056 -0.1406
88147W        W31060  11.462  10.259   7.893  0.1142  0.1329  0.3281
88148W        W31061  12.942   8.768   1.168 -0.2278 -0.2478  0.0947
88149W        W31062  11.263   6.368   6.569  0.1860 -0.0276  0.1398
88150W        W31063  15.967   4.143   2.205 -0.2160  0.2354 -0.2982
88151W        W31064  10.459   0.690  11.351 -0.0120 -0.1551 -0.0732
88152W        W31065   4.819   1.525   9.536  0.3035  0.0882  0.1463
88153W        W31066  10.820   6.944   2.414  0.0166 -0.1106  0.0805
88154W        W31067   1.809   3.857   3.208  0.1310 -0.0211 -0.2382
88155W        W31068   9.651   2.643   1.128  0.0483  0.0757  0.0841
88156W        W31069  16.505  34.360   5.300  0.3280  0.3470  0.1887
88157W        W31070   7.891  11.797   6.512 -0.3094 -0.0207 -0.0048
88158W        W31071   4.910  31.526  28.809  0.1833 -0.0024 -0.0497
88159W        W31072  17.236   4.256   6.448 -0.0114  0.3697  0.0500
88160W        W31073   5.140   0.676  11.570 -0.0595 -0.2483  0.3720
88161W        W31074  11.660  25.474   8.418  0.3200 -0.2946 -0.1646
88162W        W31075  21.259  11.267   1.182  0.2600  0.0372 -0.2141
88163W        W31076  20.576  12.254  25.958  0.0544  0.1179 -0.1780
88164W        W31077  13.212  33.302   3.089 -0.3890  0.0586  0.0612
88165W        W31078  14.860   2.974   5.885 -0.0113  0.0340 -0.1315
88166W        W31079  13.473  32.396   8.906 -0.2114  0.2155  0.1751
88167W        W31080  12.096   9.738   3.200  0.4451  0.1673 -0.2095
88168W        W31081   6.213   1.332  13.298  0.0246 -0.0213  0.0571
88169W        W31082  18.316  14.859   1.344 -0.0201  0.1387  0.0994
88170W        W31083  20.543   2.768  25.165  0.1960 -0.1933  0.1860
88171W        W31084  17.691  15.409   7.679 -0.1016  0.1097  0.0725
88172W        W31085  10.582   1.694   9.711 -0.0907  0.1693  0.0145
88173W        W31086  12.821  30.001  10.308 -0.2771  0.0010 -0.0218
88174W        W31087  17.770  32.137   6.502 -0.1828  0.2085 -0.0727
88175W        W31088   8.090  32.218  10.298 -0.0742  0.0877 -0.1476
88176W        W31089  20.025   6.167   0.911  0.1165 -0.4220 -0.3434
88177W        W31090  14.563  33.843  24.219  0.0426  0.3721  0.1606
88178W        W31091  18.402  10.555   5.209 -0.0142 -0.1772  0.0221
88179W        W31092  17.771   2.710   3.253  0.3721  0.0993 -0.0064
88180W        W31093  13.000  29.578   8.616  0.0701  0.3589 -0.0658
88181W        W31094  10.186  32.598   6.133  0.1099  0.0040  0.0210
88182W        W31095   9.590  25.033   3.578 -0.0607 -0.3994 -0.0024
88183W        W31096   8.927   5.904  28.824 -0.1479  0.1723 -0.1800
88184W        W31097  18.483   1.712   6.947 -0.2498 -0.0155 -0.1322
88185W        W31098  32.166  33.325   2.318  0.1113 -0.2420  0.0787
88186W        W31099  22.924  22.310  27.387 -0.0216  0.3228 -0.0547
88187W        W31100   8.099  24.682   1.639  0.1805 -0.2558 -0.0425
88188W        W31101  13.432  27.961   9.802  0.3035 -0.0668  0.1718
88189W        W31102   3.804   1.669   8.782 -0.3107  0.0404  0.0565
88190W        W31103   5.002   8.221  24.095  0.0636 -0.1491 -0.3940
88191W        W31104  16.820   8.200   2.500 -0.2061 -0.0676 -0.0152
88192W        W31105  15.844  28.784  10.020 -0.1413 -0.0228 -0.1355
88193W        W31106  22.769  32.281   5.551 -0.0793  0.2354  0.1567
88194W        W31107  11.438   0.057  11.410  0.0632 -0.1768 -0.1608
88195W        W31108   9.926  34.234  29.583 -0.0137  0.0651  0.2953
88196W        W31109  13.300  27.056   0.681 -0.0454  0.0173  0.1280
88197W        W31110   7.082  10.764  23.250 -0.0525  0.0173  0.0746
88198W        W31111  29.477  30.367   7.173 -0.1842  0.3579 -0.1027
88199W        W31112   5.313   0.525   3.772 -0.0177  0.2733  0.2603
88200W        W31113   8.220   5.750  13.157  0.2547 -0.0853 -0.1185
88201W        W31114   7.481  25.989   7.554  0.0412 -0.2893  0.3014
88202W        W31115  14.365   3.341   9.199  0.1253 -0.1227  0.0218
88203W        W31116  11.381   8.853   8.380 -0.1313 -0.1989 -0.4844
88204W        W31117   8.529  10.800   8.973  0.0391  0.0302  0.0399
88205W        W31118  10.049  11.552   8.536  0.0815  0.2728 -0.1883
88206W        W31119   5.242   4.266   4.552  0.0727 -0.0053  0.0647
88207W        W31120  17.024  33.762   0.857  0.1223 -0.0780  0.1869
88208W        W31121  33.010   4.061   9.174 -0.1338 -0.1704 -0.4766
88209W        W31122  16.254  25.596   2.136 -0.2658  0.1435  0.1069
88210W        W31123  19.612   9.340   3.148 -0.1023  0.0108 -0.1712
88211W        W31124  11.686   1.574   5.588  0.0576 -0.1342  0.0225
88212W        W31125  14.578   1.119  28.656 -0.0660  0.1906 -0.0308
88213W        W31126  17.021   7.871   6.432  0.0171  0.0038 -0.0357
88214W        W31127  16.206  32.060   6.015  0.0913  0.0897  0.3461
88215W        W31128   6.306   1.807  29.445  0.0484  0.2378  0.3335
88216W        W31129  18.077  11.175   1.735  0.0228 -0.1465  0.4410
88217W        W31130  25.477   4.986   6.697 -0.1848 -0.1350 -0.3826
88218W        W31131  10.544  31.584  12.534  0.0332  0.0643 -0.4167
88219W        W31132  13.764  33.571   9.863  0.4484 -0.0085 -0.3275
88220W        W31133  17.806  31.997  22.057 -0.2561 -0.0268  0.1133
88221W        W31134   9.324   6.765  10.515  0.1396 -0.4418 -0.0514
88222W        W31135  11.184   8.809  11.141 -0.1305 -0.1562  0.3247
88223W        W31136   4.724   2.896  11.338 -0.2021 -0.1979 -0.1757
88224W        W31137  16.698   5.607   4.975 -0.2132  0.1425  0.0242
88225W        W31138   7.884  28.404   4.766 -0.1103  0.0285  0.2454
88226W        W31139  23.883  31.184   6.106  0.2616  0.2821  0.0884
88227W        W31140   4.192   8.766   0.040 -0.2035 -0.0218 -0.0861
88228W        W31141  12.761  19.114   8.171 -0.1412 -0.0303  0.0612
88229W        W31142   9.877  29.686   8.662  0.1935  0.0175 -0.0486
88230W        W31143   7.102   5.151  12.977  0.4099  0.1069 -0.2055
88231W        W31144  20.041   9.824   8.521 -0.3673  0.4439  0.0080
88232W        W31145  10.756   4.417   6.132  0.0839 -0.1188 -0.0030
88233W        W31146  14.682  14.121   1.433 -0.1845 -0.0865 -0.0758
88234W        W31147  18.666  32.193  10.106 -0.1475  0.0253  0.3173
88235W        W31148  16.045   0.533  10.521  0.0513 -0.2154 -0.0495
88236W        W31149   5.355  13.152   2.802  0.1285  0.0239 -0.0294
88237W        W31150  10.160   7.003   7.038  0.0543  0.1193 -0.2331
88238W        W31151  20.987   0.718   6.936 -0.3815 -0.3767 -0.0466
88239W        W31152   9.176  21.881   3.746  0.1936  0.3641 -0.1034
88240W        W31153   9.740   3.494  10.244 -0.1009 -0.3072 -0.0553
88241W        W31154  10.273   3.204   6.271  0.0817  0.0082 -0.2488
88242W        W31155  14.668   8.996   0.341  0.0257  0.1484 -0.1647
88243W        W31156  11.802   7.620  10.953  0.0247 -0.1780  0.2333
88244W        W31157  10.810  28.380  27.019  0.0147  0.1355  0.1720
88245W        W31158   7.575   1.401  11.686 -0.3042  0.0102 -0.0823
88246W        W31159  19.299   8.638   6.071  0.1273 -0.3983 -0.1436
88247W        W31160   6.283  30.112   8.098  0.0667 -0.0179  0.1432
88248W        W31161  15.022  30.022   3.815  0.0458  0.0107 -0.1198
88249W        W31162  14.764  31.938  11.209 -0.0634 -0.0462 -0.0660
88250W        W31163  10.911  33.996   2.607 -0.0732  0.2790 -0.1119
88251W        W31164   9.857  31.832   1.568 -0.2143  0.4010 -0.1835
88252W        W31165  10.912   2.949   9.519 -0.0526 -0.3728  0.0032
88253W        W31166   8.828  31.434   5.890 -0.3900 -0.2432 -0.1320
88254W        W31167   8.822  23.361   7.245  0.0933  0.3918  0.0999
88255W        W31168   0.968   6.742  10.123  0.2680 -0.2466 -0.2199
88256W        W31169   8.437  32.737  10.980 -0.1900  0.0649  0.2117
88257W        W31170  17.024   0.583   7.601 -0.1598 -0.2602 -0.1761
88258W        W31171   8.794  34.228   7.250  0.2389  0.0803 -0.4313
88259W        W31172  15.613   7.576   1.281  0.0853  0.4726  0.2346
88260W        W31173  30.172  32.196   8.603 -0.2275 -0.1619 -0.1095
88261W        W31174  13.146   1.328   5.749  0.0196  0.0311 -0.0498
88262W        W31175   4.002   9.754   6.711 -0.2337 -0.4306  0.1268
88263W        W31176   8.504   3.330  12.950  0.0214 -0.0883 -0.3946
88264W        W31177  21.866   5.080   2.628 -0.2042 -0.0020  0.0607
88265W        W31178   2.802  23.798  10.326 -0.1955  0.1173 -0.2212
88266W        W31179   4.815  33.173  10.163 -0.1280 -0.1640 -0.0570
88267W        W31180  14.104   5.010   8.354  0.0203 -0.1432 -0.0520
88268W        W31181  16.489   4.340   9.799  0.1861 -0.2403  0.0939
88269W        W31182   8.607   5.345   9.001  0.0762  0.1694  0.1104
88270W        W31183  11.002  18.048   8.386  0.1505  0.1763 -0.1141
88271W        W31184  17.280  10.167   1.768  0.4569  0.0940 -0.0334
88272W        W31185  15.561  33.836   5.424  0.1097  0.1616  0.0754
88273W        W31186   9.260  33.824  11.713 -0.0794 -0.1636  0.2174
88274W        W31187  17.875  31.620   9.392  0.0687 -0.3277 -0.1331
88275W        W31188   7.744   4.863  10.482  0.1450 -0.0628  0.2159
88276W        W31189  10.373   2.242   6.341  0.1982 -0.1806  0.1586
88277W        W31190  32.979   5.006   6.999 -0.0214 -0.3528  0.0432
88278W        W31191  33.987  10.422   9.297  0.1134  0.2486 -0.0447
88279W        W31192   0.623   2.767   9.599 -0.0699 -0.0310 -0.1468
88280W        W31193  12.166   1.407   7.274 -0.4162  0.3502  0.1179
88281W        W31194  12.753  19.536   2.708 -0.1115  0.0929 -0.1027
88282W        W31195  17.732   9.138  29.211  0.0130  0.0703 -0.1147
88283W        W31196   5.759  28.201  10.322  0.3361  0.0680  0.1571
88284W        W31197  23.003   1.103   7.535  0.0793 -0.0810  0.1986
88285W        W31198  17.765  10.106  29.544 -0.0844 -0.0122  0.0099
88286W        W31199   2.083   3.943  28.304  0.3048 -0.2344  0.1507
88287W        W31200  12.076  33.252   9.720  0.2854 -0.0040  0.1761
88288W        W31201  12.301   1.444  10.303  0.1438  0.0575  0.2260
88289W        W31202  19.493  22.237   2.854 -0.1717 -0.2134 -0.0719
88290W        W31203  21.506  12.042  27.892  0.3322 -0.0037 -0.2392
88291W        W31204  17.593  33.206  10.316  0.0470 -0.1278 -0.1024
88292W        W31205   7.348   3.118   8.776  0.1418 -0.0739  0.0130
88293W        W31206  15.611  33.406   9.203 -0.0266 -0.2770  0.2061
88294W        W31207  15.045  10.294   6.036 -0.0412 -0.1647  0.4218
88295W        W31208   5.899   8.428  29.207  0.1562 -0.0031 -0.2766
88296W        W31209  25.656   3.571   8.240  0.0674  0.1464  0.1097
88297W        W31210  13.852  14.377   6.189 -0.1779  0.0556 -0.1362
88298W        W31211  13.664  33.757  11.818 -0.2748 -0.1195  0.0941
88299W        W31212   9.699   4.002  10.133  0.0458 -0.0040  0.0443
88300W        W31213   3.162  33.108   8.475  0.3036 -0.0087  0.0249
88301W        W31214   5.033  28.612   9.715  0.2159  0.0559 -0.4405
88302W        W31215  28.751   6.820   1.418 -0.0426  0.0814 -0.3607
88303W        W31216   5.188   2.022   9.740 -0.0470 -0.1371  0.2300
88304W        W31217  12.491   0.656  11.456  0.0202 -0.0021 -0.0023
88305W        W31218   5.813   5.874   8.274 -0.3686 -0.2272 -0.0938
88306W        W31219  10.846  29.479   9.282  0.5224  0.0677  0.1116
88307W        W31220   6.112   5.909  10.992  0.5913  0.0452  0.0802
88308W        W31221   8.375  32.637  28.007 -0.0862 -0.0697 -0.1488
88309W        W31222   6.510  28.277  10.589 -0.1823  0.3531  0.2565
88310W        W31223  21.149   0.588   1.516  0.0451  0.2051 -0.0261
88311W        W31224   9.582  13.807   7.240  0.0016  0.0025  0.2444
88312W        W31225   2.044   6.716   9.612 -0.2484 -0.1593 -0.1329
88313W        W31226  24.550   2.772   4.006 -0.2127 -0.1743 -0.0557
88314W        W31227  23.755   5.329   7.297  0.1740  0.1295 -0.1249
88315W        W31228  12.514   5.239   8.884 -0.2069 -0.0486  0.0627
88316W        W31229   3.114  34.030   6.326 -0.0156 -0.3024 -0.1405
88317W        W31230  19.817   8.101   7.711 -0.0675  0.1327  0.1719
88318W        W31231  14.318   6.568   5.369 -0.1443 -0.2539 -0.1059
88319W        W31232   2.565   5.029   7.183  0.1752 -0.1399 -0.1603
88320W        W31233   6.194   5.624   5.825  0.1367 -0.0756 -0.0561
88321W        W31234   9.522   6.055   8.154 -0.0886  0.1854  0.0669
88322W        W31235  14.087   5.717   3.787 -0.0713  0.2218  0.0179
88323W        W31236   8.769   4.806   8.053 -0.2977  0.1806  0.0343
88324W        W31237  12.331   3.519   5.808  0.1352 -0.1714  0.2398
88325W        W31238  10.758  30.852  10.445 -0.0510 -0.0263 -0.0114
88326W        W31239  15.278   5.981  10.451 -0.0277  0.0257  0.2624
88327W        W31240  11.402  27.241   3.040 -0.0716 -0.2212  0.3782
88328W        W31241   3.468   7.032  13.024 -0.1914  0.0260 -0.3405
88329W        W31242   9.023  13.904   9.768 -0.0228  0.0058  0.0700
88330W        W31243  12.176   8.271   6.952 -0.3772  0.2498  0.0937
88331W        W31244  12.964  30.249  11.427  0.0016 -0.0925 -0.1757
88332W        W31245  12.034   1.816   8.926 -0.0367  0.2653  0.3966
88333W        W31246  15.987  32.042   7.023 -0.2243 -0.1054 -0.3799
88334W        W31247  21.011   3.866   6.583  0.1387 -0.0876 -0.1181
88335W        W31248  18.414   4.408  29.038  0.0379 -0.0112 -0.1365
88336W        W31249  27.389  11.191   6.134  0.5302 -0.1189 -0.1316
88337W        W31250  16.760   1.463  10.216 -0.1028 -0.0867 -0.2086
88338W        W31251  12.117   1.466   9.822 -0.3025 -0.2160 -0.0729
88339W        W31252   9.709  27.531   1.175  0.1433 -0.0235  0.0451
88340W        W31253   8.029  27.263  21.876  0.0483 -0.1124 -0.2498
88341W        W31254  12.624  31.474   6.903 -0.0489  0.0816 -0.1293
88342W        W31255   7.671   7.091  10.962 -0.1315  0.2592  0.2483
88343W        W31256  24.593   2.368   9.427  0.1739 -0.0283  0.1681
88344W        W31257   9.139  22.818   1.089  0.1416 -0.1250  0.2071
88345W        W31258  18.701   5.640   7.906 -0.0161  0.1759  0.0549
88346W        W31259  13.975   3.640  11.256  0.2272  0.0707 -0.1142
88347W        W31260  27.728   4.490   9.254 -0.0586  0.1867 -0.1821
88348W        W31261  15.869  10.336   8.111 -0.1091 -0.1900  0.0754
88349W        W31262  10.021  13.923   8.409  0.1325 -0.0959  0.1246
88350W        W31263  31.701  24.780   6.755  0.0909  0.2511 -0.1533
88351W        W31264  20.767  31.388   4.039 -0.0045  0.1397  0.4109
88352W        W31265  16.533  29.921   9.003  0.2108  0.0039 -0.1656
88353W        W31266  13.311  31.307   2.931  0.0176  0.5061 -0.1736
88354W        W31267   6.093  34.272   9.188  0.0297  0.1042 -0.0955
88355W        W31268   9.654  21.507  29.601 -0.0927  0.1722 -0.0271
88356W        W31269  15.188  28.895   0.999 -0.1883 -0.0327 -0.2754
88357W        W31270  18.917   5.203  25.787  0.2486 -0.2046  0.0065
88358W        W31271  12.256   8.285   5.629  0.2158 -0.3772 -0.0817
88359W        W31272  10.303  29.947   4.885 -0.1321 -0.0396 -0.0965
88360W        W31273  17.127  33.106  10.440 -0.1449  0.2818 -0.2314
88361W        W31274  12.633   0.837   9.434  0.1007 -0.3173 -0.0708
88362W        W31275  15.830  31.690  10.899 -0.2111  0.4805 -0.2527
88363W        W31276   9.141   1.496   8.660  0.1494 -0.1214 -0.1890
88364W        W31277   6.009  33.876  26.468 -0.1367  0.2343  0.2797
88365W        W31278   6.938  30.512  11.721  0.0950  0.2024  0.0429
88366W        W31279   7.225   0.359   8.098  0.1306  0.0333  0.1219
88367W        W31280   8.485   6.957   7.819 -0.0450  0.0746  0.3810
88368W        W31281  18.621  11.203   0.388  0.0028  0.1700 -0.0552
88369W        W31282  12.189  10.575   4.378  0.3489  0.0136  0.3486
88370W        W31283  20.554   0.846   2.956 -0.1556 -0.2044 -0.1930
88371W        W31284  17.680  21.282  27.230  0.2155 -0.2401  0.1069
88372W        W31285   7.002  33.605  10.027 -0.0173 -0.0236  0.0055
88373W        W31286   8.972   7.592   5.301  0.0682 -0.0442  0.3074
88374W        W31287  19.237  29.356  28.626 -0.1467 -0.0538  0.1575
88375W        W31288  12.872  20.374   1.503 -0.0865  0.1011  0.0564
88376W        W31289   5.660  32.885   5.698  0.1637  0.4426 -0.0699
88377W        W31290  10.830   4.952   7.813  0.1839  0.0126 -0.0949
88378W        W31291   4.049   4.189  10.211 -0.0846 -0.0837 -0.0362
88379W        W31292   7.933   6.142  12.382  0.0796 -0.0603 -0.1661
88380W        W31293   8.035  15.885   6.844  0.0192  0.0655  0.0034
88381W        W31294  13.682   3.582  29.436  0.0756 -0.3225 -0.0938
88382W        W31295  19.624   2.636   7.118  0.2396 -0.1911  0.3305
88383W        W31296  28.847   5.283   5.752 -0.2519 -0.2145 -0.1707
88384W        W31297  10.983  30.975   4.108 -0.1583 -0.0079  0.3561
88385W        W31298  12.166   2.006  11.296 -0.0720  0.1156  0.0099
88386W        W31299  17.198  12.460  27.321 -0.2250  0.1820 -0.1508
88387W        W31300  11.251   4.046   9.391  0.1096 -0.3663 -0.0211
88388W        W31301  18.377  32.796   9.164 -0.2061 -0.4741 -0.0614
88389W        W31302  10.736   4.951   5.317  0.3897  0.0885 -0.2308
88390W        W31303  12.135   7.132   4.136  0.0800 -0.0070  0.2224
88391W        W31304   8.246   2.737   9.616  0.0058  0.0173  0.1784
88392W        W31305  12.800   3.312  12.350 -0.0418 -0.2080  0.3107
88393W        W31306   7.599  30.139   9.963  0.1963 -0.1695  0.1709
88394W        W31307   6.774   7.195   5.328  0.3193 -0.2675  0.0447
88395W        W31308  19.286   4.987  10.278  0.2642 -0.1351  0.3548
88396W        W31309  17.657  16.087  29.763  0.0690 -0.1206 -0.0679
88397W        W31310  16.029  28.272   7.571 -0.1240  0.2103  0.0599
88398W        W31311   9.559  27.812   4.528 -0.0471  0.1716 -0.3041
88399W        W31312  11.347   2.069  12.104  0.2461  0.3011 -0.4155
88400W        W31313  13.324  11.232   3.883 -0.1049 -0.0995 -0.1802
88401W        W31314  20.619  12.336   3.399  0.2010 -0.0213  0.1164
88402W        W31315  12.241  12.070   4.529 -0.1601 -0.2453 -0.4109
88403W        W31316  19.631  29.952   6.539  0.0898 -0.2745 -0.0278
88404W        W31317  18.406   0.306   7.633 -0.0904  0.2141  0.0863
88405W        W31318  16.345  31.686   0.477 -0.3340  0.2000  0.1366
88406W        W31319  16.536   0.529  11.018  0.0937 -0.2202 -0.0607
88407W        W31320  11.807   1.998  11.699 -0.1515 -0.0866 -0.0062
88408W        W31321  22.030  34.298   3.057  0.1577  0.2225  0.1942
88409W        W31322  29.935  29.290   1.564  0.1424  0.1431 -0.2627
88410W        W31323  17.555  24.447   7.949  0.2351  0.3159  0.0517
88411W        W31324  23.246  23.202   0.092 -0.2491 -0.0408  0.2280
88412W        W31325  18.323   8.795   0.074 -0.0107  0.2945 -0.0167
88413W        W31326   7.227   9.570  11.852 -0.0696 -0.1349  0.0166
88414W        W31327  13.347   5.924   7.619  0.0755 -0.0904 -0.0103
88415W        W31328   6.738  31.216  21.765 -0.1474 -0.0613  0.0314
88416W        W31329  19.204  31.050   8.958  0.0829 -0.1300  0.2152
88417W        W31330  14.290   3.698   7.795 -0.1056  0.1534 -0.1121
88418W        W31331  22.561   1.091   6.007  0.1603  0.2289 -0.1343
88419W        W31332  18.186  29.962  29.565 -0.0608 -0.0070 -0.0871
88420W        W31333   0.613  30.415  28.788  0.2581  0.1807 -0.2023
88421W        W31334   9.090  10.352   5.328  0.3301 -0.1293 -0.0980
88422W        W31335   0.071  14.652   6.250  0.2975 -0.1322 -0.0951
88423W        W31336  17.942   5.380  10.144  0.1248  0.2233 -0.4125
88424W        W31337  19.129   3.404   9.231 -0.1167  0.0527  0.0530
88425W        W31338  11.178   0.982  10.773 -0.1299  0.1511  0.0352
88426W        W31339  33.330   1.123  11.870  0.3294 -0.0461 -0.0600
88427W        W31340  19.099   2.614  29.063 -0.0876 -0.0555  0.3473
88428W        W31341  18.330  31.741   6.164 -0.0842  0.0126 -0.1769
88429W        W31342  27.453   3.147   7.884  0.0175  0.0624  0.1406
88430W        W31343  14.935  29.448   5.564  0.0875 -0.0499  0.0338
88431W        W31344  21.363  11.284  25.118 -0.0091 -0.3993  0.0363
88432W        W31345  12.503   6.854  18.344 -0.0686 -0.1946  0.0409
88433W        W31346   9.633   7.293   3.222  0.0424 -0.0822 -0.1923
88434W        W31347  10.695   3.720   8.245  0.3393  0.0215 -0.4857
88435W        W31348  15.759  23.504   8.057 -0.5669  0.1722  0.1116
88436W        W31349  12.439   0.710  25.625  0.1710 -0.1692 -0.0719
88437W        W31350   7.970   5.222  28.882  0.1448  0.1029 -0.0348
88438W        W31351  15.943   7.744   0.903 -0.0639  0.1579  0.1297
88439W        W31352  21.040   7.723   0.385  0.0858  0.1776 -0.2141
88440W        W31353  14.637  15.518   6.110 -0.0085 -0.2677 -0.3242
88441W        W31354   9.769   0.016  10.715 -0.0108 -0.1720  0.0356
88442W        W31355  18.912  10.273   0.562 -0.1582  0.0774  0.0277
88443W        W31356   8.178  12.173  29.442 -0.0872 -0.0072 -0.5551
88444W        W31357   4.261   7.331   1.491  0.1029  0.2808  0.1385
88445W        W31358  17.491   3.780  27.908 -0.1115  0.0228  0.2149
88446W        W31359  12.430  15.538  16.079  0.2011  0.1288  0.0006
88447W        W31360  17.084   0.342   1.823 -0.1774 -0.0035  0.1369
88448W        W31361  12.199  11.395   5.158 -0.0250  0.2054  0.1745
88449W        W31362   6.486   9.525   0.495 -0.1733 -0.1098 -0.1789
88450W        W31363  13.330   1.791  10.128  0.1362  0.0931 -0.4680
88451W        W31364   7.794   0.210   0.051 -0.1594  0.0500 -0.0156
88452W        W31365  12.636   2.301   8.360 -0.1018 -0.0888 -0.1369
88453W        W31366  20.431   5.442   5.971  0.0920 -0.0453  0.0078
88454W        W31367  18.209   7.974   5.545 -0.0125 -0.0416  0.1962
88455W        W31368   6.276   1.889   1.542 -0.1575 -0.1257  0.1926
88456W        W31369  19.261  32.351   5.336  0.0028  0.0662  0.1565
88457W        W31370   2.065  11.049   5.004  0.2003 -0.1278 -0.0978
88458W        W31371  14.131  11.745  28.638  0.0868 -0.4039 -0.3064
88459W        W31372  17.162  31.518  28.685  0.1118 -0.2663  0.0844
88460W        W31373  15.174  33.496   3.026  0.1652 -0.0931  0.0454
88461W        W31374  12.304   2.382   8.731 -0.0727  0.5679  0.1781
88462W        W31375  19.282  11.593  26.007 -0.1227  0.0501  0.0892
88463W        W31376   8.638   4.613  10.183  0.1264 -0.2268 -0.1222
88464W        W31377  14.298   4.425  25.942  0.0131 -0.0596 -0.3470
88465W        W31378  31.317   7.799  25.052 -0.2310 -0.0641  0.0489
88466W        W31379  22.948  34.451   7.571 -0.0244 -0.0048 -0.3009
88467W        W31380   8.831   2.128  24.233 -0.1951  0.1261 -0.1462
88468W        W31381  27.891   5.995   3.458 -0.0566 -0.1442 -0.2842
88469W        W31382  23.767  11.249   3.321 -0.1374 -0.0112 -0.0814
88470W        W31383  13.272   6.424   2.942  0.1767 -0.0975 -0.1320
88471W        W31384  32.502   4.861  26.004  0.4985  0.2791  0.1103
88472W        W31385  30.330   6.816  25.283 -0.3473 -0.4458 -0.3079
88473W        W31386   9.042  31.777  27.629 -0.1460 -0.3453  0.0324
88474W        W31387  21.454   1.184   8.754  0.1463  0.2593  0.2351
88475W        W31388   8.006  10.567   2.070  0.0084 -0.0632 -0.3168
88476W        W31389   9.961  34.307   0.443  0.1891  0.3124  0.1270
88477W        W31390  13.368   3.831  10.531 -0.2383  0.0423 -0.2787
88478W        W31391  13.355   7.152   7.468 -0.0637 -0.0896  0.0044
88479W        W31392   4.596   9.394  23.522 -0.0632  0.2722 -0.3478
88480W        W31393  17.637  10.850   0.184 -0.0405  0.5868 -0.0969
88481W        W31394   8.936  34.121   1.459 -0.0577  0.4735  0.3158
88482W        W31395  16.014  33.938  26.787  0.1329  0.1447  0.0577
88483W        W31396   6.396  29.246   6.004  0.2252  0.0148 -0.0926
88484W        W31397  14.191  32.062   1.334 -0.1180 -0.2986 -0.2986
88485W        W31398  14.383  10.300  26.004 -0.1306 -0.0449 -0.1111
88486W        W31399  24.259   7.070   9.267  0.0635  0.1058  0.1601
88487W        W31400  12.488   2.015   6.654 -0.0008  0.0568  0.0674
88488W        W31401   9.385   1.875  23.222 -0.0453 -0.0872  0.1231
88489W        W31402   5.099   2.241  26.582  0.0084 -0.1118  0.0958
88490W        W31403   6.882  19.551  28.005 -0.1991 -0.2694 -0.1928
88491W        W31404  10.167  15.315   5.808 -0.2239 -0.0602  0.3686
88492W        W31405   7.530  32.382   6.796  0.0354  0.1467 -0.0616
88493W        W31406   6.347  14.624   2.339 -0.1546 -0.2982  0.1981
88494W        W31407   9.990   6.849  24.938 -0.2536 -0.1531  0.3426
88495W        W31408   3.803  28.856   0.822 -0.0438 -0.2278 -0.2204
88496W        W31409  12.080  33.616  25.488  0.0138 -0.0162  0.1725
88497W        W31410  26.988  17.309  23.306 -0.2044 -0.1505 -0.0351
88498W        W31411  16.242  12.436   1.944 -0.0033 -0.0122  0.0316
88499W        W31412  12.703   6.136   2.582 -0.1262  0.0472  0.0636
88500W        W31413  11.594   5.246  10.740 -0.0313 -0.1400 -0.3824
88501W        W31414   5.669  28.609  22.131 -0.0845  0.0416 -0.1328
88502W        W31415  13.047   6.321   6.145  0.0215  0.1035 -0.1213
88503W        W31416  17.730   5.114  18.866 -0.0772  0.1453 -0.1278
88504W        W31417   8.259   2.386  18.261  0.1192 -0.4494  0.1072
88505W        W31418  10.598   1.538   7.590 -0.1574 -0.2192 -0.3850
88506W        W31419  13.592   2.635   8.231 -0.1266  0.0381  0.1231
88507W        W31420  17.324  33.754  24.658  0.2290 -0.1661  0.3004
88508W        W31421  12.514  15.802   7.573  0.0112 -0.0400 -0.2276
88509W        W31422  22.656  34.169  17.961  0.1296  0.1800  0.0645
88510W        W31423   5.959   1.716   3.184  0.0225  0.0539  0.2368
88511W        W31424  11.560  27.563   2.020 -0.0028  0.1375 -0.0130
88512W        W31425  10.087   0.582  26.129  0.0124 -0.2847  0.0239
88513W        W31426   7.183  29.073   0.412  0.2811 -0.2197 -0.0129
88514W        W31427  13.795  32.350   5.397 -0.0878 -0.0196  0.0826
88515W        W31428  16.132   9.785   3.875 -0.3341 -0.0398 -0.3114
88516W        W31429  18.863   9.187   0.294  0.0219 -0.2376 -0.1317
88517W        W31430  13.196   0.245  17.713  0.0468  0.0718  0.2482
88518W        W31431  16.917   9.810  23.633  0.0830 -0.0815 -0.0022
88519W        W31432  15.918   0.529   4.294  0.0462 -0.3551 -0.0137
88520W        W31433  16.543   3.400   2.730 -0.1540  0.0777 -0.0659
88521W        W31434   6.147   3.601   3.454  0.0845 -0.4178  0.3405
88522W        W31435  18.471   8.342   2.966 -0.1241  0.0878  0.3295
88523W        W31436  10.322   8.699   3.359 -0.1213 -0.0230 -0.0600
88524W        W31437   1.299   0.593  29.596 -0.0259  0.2368  0.2408
88525W        W31438   3.801   3.035  10.881  0.0121 -0.0791 -0.1111
88526W        W31439  11.626  16.888   4.707  0.0601  0.1544 -0.0761
88527W        W31440   1.451   6.970  25.822 -0.1890 -0.1276 -0.4642
88528W        W31441  19.317   4.278   8.606 -0.0382  0.3024 -0.0728
88529W        W31442  10.663  12.194   2.443  0.1444 -0.1281 -0.2955
88530W        W31443  24.436  10.300   5.429 -0.0362 -0.2888 -0.1742
88531W        W31444  20.375   6.274  25.659  0.1417  0.1269 -0.2358
88532W        W31445  12.881  30.645  11.845 -0.0118 -0.2766  0.0463
88533W        W31446  22.893  34.123  27.931 -0.2015  0.1295  0.2141
88534W        W31447  11.883   5.511   3.724  0.1620 -0.0639  0.0493
88535W        W31448  32.965  14.847   3.495  0.3147  0.1566 -0.2109
88536W        W31449   5.749  15.618   8.860 -0.1008 -0.2909 -0.1223
88537W        W31450  11.623  32.334   0.068  0.0730 -0.0072 -0.0649
88538W        W31451  15.034   4.882   1.901  0.0364 -0.1919  0.1989
88539W        W31452   8.223  11.613  25.198 -0.1278  0.1571  0.0356
88540W        W31453  12.485  34.215   3.763 -0.5103  0.1403 -0.0047
88541W        W31454  15.327  30.614   3.390  0.1666  0.1790  0.0355
88542W        W31455  18.804  31.162   6.980  0.0200  0.0526  0.2875
88543W        W31456   8.718  12.133  27.357  0.1081  0.0498  0.0769
88544W        W31457   7.978  12.163  10.188  0.1644 -0.0591  0.2342
88545W        W31458  17.623   2.951  25.621 -0.0285  0.1937  0.0893
88546W        W31459   8.494   1.803  12.501 -0.0072 -0.0465 -0.0870
88547W        W31460  34.283  11.532  17.529  0.1214 -0.1134  0.1885
88548W        W31461  10.317   8.943  11.309 -0.2792 -0.4510 -0.2742
88549W        W31462   8.160  30.946   9.645  0.0493 -0.0459  0.1025
88550W        W31463   6.269   9.857   0.228 -0.3003 -0.0466  0.0566
88551W        W31464  21.056   8.679  27.738 -0.2599 -0.2178 -0.4437
88552W        W31465   7.320   5.609   4.197  0.1285  0.2161 -0.1375
88553W        W31466  11.548   1.590  24.149 -0.1077 -0.0086 -0.3630
88554W        W31467  29.344  23.456   1.360  0.0691  0.0141 -0.1944
88555W        W31468  17.236   4.053   3.002  0.3329 -0.0817  0.3508
88556W        W31469  11.097   3.484  11.861  0.0991  0.1837  0.0509
88557W        W31470  10.465   5.656   5.948  0.2887  0.4047 -0.1143
88558W        W31471   8.613  10.899  27.408 -0.3858  0.0451 -0.0440
88559W        W31472   2.955  22.987   2.353  0.1465  0.1025  0.3442
88560W        W31473   7.668  32.643   2.123 -0.2935  0.0884 -0.0681
88561W        W31474  15.651   4.736   5.156  0.1372 -0.2039 -0.0840
88562W        W31475  11.738   9.079   2.455 -0.0884 -0.0695 -0.0926
88563W        W31476  21.495   5.830   4.501 -0.2054  0.2641 -0.3880
88564W        W31477  21.469   1.419  23.569 -0.2856 -0.0732 -0.3305
88565W        W31478   3.205   2.335  16.943  0.2083 -0.1467  0.1227
88566W        W31479  17.174  29.430   0.970  0.1369 -0.2887 -0.0598
88567W        W31480  12.412   3.827  28.776  0.1756 -0.1731  0.2449
88568W        W31481  19.482  33.305   9.767  0.0900  0.1947 -0.0951
88569W        W31482  23.709  12.297   0.375 -0.2422 -0.3235 -0.0858
88570W        W31483  12.943  11.831  23.334  0.3187  0.2704  0.1213
88571W        W31484   9.697  13.345  29.412 -0.0720  0.0106  0.0413
88572W        W31485  16.773   4.944   6.983  0.0854 -0.0588  0.2242
88573W        W31486  15.982   2.244  29.235 -0.0381 -0.0147  0.1582
88574W        W31487   9.455   0.072   9.606 -0.1856 -0.0793  0.0907
88575W        W31488  18.407   7.025  29.037 -0.2628  0.0979 -0.1752
88576W        W31489   1.666   5.205  25.943 -0.0527 -0.1184  0.1869
88577W        W31490  10.373  24.418  26.762  0.2170  0.3068  0.1502
88578W        W31491   9.907   4.160   2.483 -0.0011 -0.1030  0.1249
88579W        W31492  16.096  29.174   8.245  0.2321  0.1364  0.1301
88580W        W31493  20.161   5.690  23.828 -0.1867 -0.1142 -0.0899
88581W        W31494   9.079   2.592  12.599 -0.2831 -0.0313  0.3162
88582W        W31495   9.973   1.392  26.865 -0.2714  0.1799  0.3361
88583W        W31496  10.925  12.431   6.072 -0.1749  0.2006  0.1746
88584W        W31497  18.636  18.468  25.508  0.0913  0.1831 -0.2433
88585W        W31498   7.406   1.827   7.238  0.3053 -0.2302 -0.1391
88586W        W31499   8.751   5.209  22.867  0.1610 -0.0570 -0.1973
88587W        W31500  14.857  29.640  26.056  0.2236  0.1248  0.4780
88588W        W31501  31.846   2.662   8.549 -0.1244  0.0663 -0.2121
88589W        W31502  19.421  11.843   1.214 -0.3426  0.1279 -0.1154
88590W        W31503  17.510  13.573  27.513 -0.0333 -0.0817  0.0826
88591W        W31504  19.163   2.632   6.175  0.0117 -0.2529  0.1238
88592W        W31505   3.462  14.491  27.944 -0.1258  0.0202 -0.2684
88593W        W31506   9.455   9.893   8.167 -0.1567 -0.3591 -0.0405
88594W        W31507   0.360  13.416   3.257  0.1039 -0.0871  0.0024
88595W        W31508  28.219  27.335   8.794  0.1051 -0.0761  0.0337
88596W        W31509  34.491  31.021  27.026  0.2286  0.4061 -0.2223
88597W        W31510   9.235  29.398  25.799 -0.1795  0.2247  0.0658
88598W        W31511  18.179  23.378  27.427  0.3152  0.1222 -0.0139
88599W        W31512  12.783  32.803   7.349  0.0859  0.2060 -0.1887
88600W        W31513   7.127  34.296  13.061 -0.1814 -0.0863 -0.0278
88601W        W31514  11.745  32.872  12.167  0.2091  0.0926 -0.4489
88602W        W31515  17.862  11.439   6.801 -0.2154 -0.2826 -0.4012
88603W        W31516  23.859  25.272   1.842  0.1863 -0.1808  0.1806
88604W        W31517  20.305   5.137  22.299 -0.1881 -0.2330 -0.1782
88605W        W31518  24.194  20.831   6.426  0.0870 -0.1721  0.1397
88606W        W31519  33.601   5.586  25.452  0.2970  0.1977  0.0530
88607W        W31520  11.321  10.901   6.846  0.0944  0.1925 -0.0767
88608W        W31521   7.890  33.571  10.234 -0.1766 -0.2431  0.1257
88609W        W31522   3.562  33.370  29.470 -0.1372 -0.2081  0.0558
88610W        W31523  13.634  14.292   0.829  0.1050 -0.0890  0.2319
88611W        W31524  13.468  29.460   0.207 -0.1979 -0.4102 -0.0611
88612W        W31525  21.699  32.571  23.802 -0.1236  0.2690 -0.1804
88613W        W31526  19.113   6.095   8.239  0.0329  0.0632  0.2347
88614W        W31527  15.488  30.114  10.728 -0.0084  0.0120  0.0151
88615W        W31528  10.424   0.812  27.680  0.1069 -0.1505 -0.2350
88616W        W31529  12.440  13.535   8.180  0.0171  0.0877 -0.1661
88617W        W31530   8.400  33.450  24.794  0.3107  0.0875 -0.0496
88618W        W31531   4.700  28.838  29.332  0.0099 -0.0254  0.0501
88619W        W31532   4.226  10.138   5.666  0.1574 -0.1472  0.0690
88620W        W31533   5.981  20.886   5.459 -0.4467 -0.1038  0.2297
88621W        W31534  12.558   5.602   4.500  0.0523 -0.2657  0.3074
88622W        W31535  18.673  11.971  22.429  0.1487 -0.0110  0.0306
88623W        W31536  34.153   5.534  29.215 -0.1597  0.1983  0.0667
88624W        W31537  10.504   2.763   1.756 -0.0697 -0.4129  0.1203
88625W        W31538   3.766  28.556   0.357 -0.1882  0.2541 -0.1367
88626W        W31539  15.029   9.167   3.963  0.1149 -0.0517  0.1643
88627W        W31540  11.992  24.036   7.854  0.0505  0.2183  0.2352
88628W        W31541  12.605   4.016   9.661  0.0870  0.1027 -0.1485
88629W        W31542   9.204   4.448  26.470 -0.2215  0.2028  0.2496
88630W        W31543  12.239   9.430   2.236  0.3358 -0.2523 -0.0467
88631W        W31544  23.377  14.024  27.621  0.4175  0.0479 -0.1474
88632W        W31545  34.126  32.762  24.031  0.0773  0.2465  0.1223
88633W        W31546   3.857   5.138  25.013 -0.0266  0.0410 -0.3767
88634W        W31547  12.954  34.031   5.380  0.0582 -0.0001 -0.0512
88635W        W31548   5.917   5.193   5.256  0.1741 -0.0220 -0.0695
88636W        W31549  16.859  31.980  10.509  0.1974  0.0611  0.0662
88637W        W31550  16.547  12.442  20.121 -0.1416  0.1411  0.2403
88638W        W31551  17.741  13.866  29.001  0.2240  0.0997  0.1140
88639W        W31552   8.299  14.458  10.173  0.2461 -0.0626  0.2352
88640W        W31553   6.701   5.882   4.093 -0.0243  0.1100 -0.3325
88641W        W31554  13.095  34.084   4.598 -0.0168  0.2695 -0.0179
88642W        W31555   7.916   6.366   4.024 -0.1300 -0.0016  0.3308
88643W        W31556  16.367   7.670  28.906  0.1709  0.0654  0.0318
88644W        W31557   7.647   0.952   1.766  0.1590 -0.0867 -0.4756
88645W        W31558  12.100  27.585  29.102  0.1225  0.0900  0.0858
88646W        W31559  10.451   9.870   7.176  0.0069  0.3574  0.0797
88647W        W31560  12.585   7.323   3.871 -0.4273  0.1151 -0.0756
88648W        W31561   8.225  30.668   0.786  0.2059 -0.0918 -0.2083
88649W        W31562  24.278   2.540   4.629  0.2775 -0.2495 -0.0613
88650W        W31563   9.336   7.539   2.183 -0.0562 -0.0620 -0.1946
88651W        W31564  21.023  12.407  18.284  0.0865  0.0327 -0.3025
88652W        W31565   2.776  24.131   0.823  0.1815 -0.2433 -0.1467
88653W        W31566  13.359  26.918  28.230 -0.0083  0.2230 -0.0931
88654W        W31567  16.197   8.054  29.355 -0.1082 -0.1695  0.1901
88655W        W31568  13.633   6.373   8.888  0.0385  0.0065  0.1668
88656W        W31569   6.412   4.342   7.895  0.1611  0.3148  0.1570
88657W        W31570  17.458  25.658   3.589 -0.3077  0.1754 -0.3033
88658W        W31571   4.492   4.186   4.750 -0.0819  0.1741 -0.1866
88659W        W31572  21.100   5.721   7.631  0.2267  0.1543  0.2851
88660W        W31573  15.899   0.547   5.352  0.2706  0.0510  0.0411
88661W        W31574   9.980  27.732  27.238 -0.2366 -0.2832  0.0766
88662W        W31575  11.716  12.944   8.030  0.1118  0.2910  0.0931
88663W        W31576  13.333  28.277  24.210  0.2609  0.0913  0.3158
88664W        W31577   5.661   7.026   0.883 -0.3311  0.0511 -0.0100
88665W        W31578  16.161   3.559   8.517 -0.0692  0.2094 -0.3300
88666W        W31579  32.532  26.814  21.751  0.0428  0.1155 -0.0609
88667W        W31580   2.284   0.874   3.292  0.1064 -0.0038  0.2296
88668W        W31581   1.841  11.720  28.443  0.1651 -0.0011  0.1812
88669W        W31582   7.315   8.384  12.552  0.1667  0.1123  0.1002
88670W        W31583  11.197   0.280   0.527  0.0017  0.1054 -0.2435
88671W        W31584   5.396  31.750  24.696  0.2567 -0.1434 -0.0837
88672W        W31585  30.988   6.102   6.773  0.1134  0.3062  0.0011
88673W        W31586  15.689  34.160   3.768 -0.0337  0.1376  0.0342
88674W        W31587  10.984  13.969   3.268  0.2224 -0.1006 -0.2492
88675W        W31588  14.739   2.931   9.008 -0.0777 -0.2833  0.1217
88676W        W31589  13.651   6.367  20.715  0.0016  0.0392 -0.0801
88677W        W31590   5.258  31.904   1.199 -0.2105 -0.0468 -0.3586
88678W        W31591   9.085   4.326   7.213  0.1931  0.0597  0.2233
88679W        W31592  17.020  13.123  25.249 -0.0115  0.3503 -0.1377
88680W        W31593   7.062   4.892  27.374 -0.0516  0.0255 -0.1151
88681W        W31594  14.868  14.304   7.673 -0.1890 -0.1187 -0.1636
88682W        W31595  18.417   9.438   0.815  0.1353  0.1210 -0.1712
88683W        W31596  30.370  10.497   0.737 -0.1256 -0.0233  0.1916
88684W        W31597  10.785  29.563  10.208 -0.1546  0.0645 -0.1829
88685W        W31598  16.209   7.236   2.232 -0.2168  0.0228 -0.2263
88686W        W31599  16.066   0.957   6.983 -0.0654 -0.2195 -0.2211
88687W        W31600  19.845   8.562  25.532  0.1469  0.0546  0.0956
88688W        W31601  12.423   6.083  11.936  0.1274 -0.0364  0.0933
88689W        W31602  34.372  31.930   7.834  0.1901  0.1775  0.0060
88690W        W31603   8.201  34.150  12.264 -0.2116 -0.1294 -0.0210
88691W        W31604  21.616  24.325   3.713  0.0322  0.0103  0.1793
88692W        W31605   6.096  12.589   9.250  0.1935  0.0866 -0.0213
88693W        W31606  11.497   1.875   0.190 -0.2596  0.1403 -0.1536
88694W        W31607  18.806  25.055  18.885  0.0536  0.0224 -0.1356
88695W        W31608  13.989   6.229  19.975  0.2599  0.0309 -0.0177
88696W        W31609  15.827   5.228  26.770 -0.2937  0.0517  0.1593
88697W        W31610  16.186  13.457  29.102 -0.3068  0.2687  0.3220
88698W        W31611   9.524  34.465   0.675  0.0732  0.0030  0.2268
88699W        W31612  10.869  11.028   6.441  0.0995 -0.1198 -0.2129
88700W        W31613   3.187   3.299   3.435  0.0903 -0.0501 -0.1222
88701W        W31614   4.793   2.361   4.959 -0.2190  0.0414 -0.3077
88702W        W31615   3.189  20.598   7.350  0.2668  0.1636  0.2400
88703W        W31616   6.874   5.668  24.399  0.1755  0.1400 -0.0967
88704W        W31617   3.883   3.539   3.898 -0.2209  0.0393  0.5082
88705W        W31618  22.355   4.694   1.097 -0.0987  0.0350 -0.0895
88706W        W31619   0.873   8.221   1.634  0.0439 -0.0169 -0.5080
88707W        W31620  24.468  11.481   2.682  0.3204  0.0235  0.4881
88708W        W31621  21.985  12.314   4.003  0.0313 -0.1313  0.0992
88709W        W31622  11.738  14.535   4.302  0.0767  0.0740 -0.1633
88710W        W31623   6.459  13.363   7.831  0.1878 -0.0487  0.0673
88711W        W31624  18.710  30.381  24.248  0.2291 -0.0468 -0.0804
88712W        W31625  22.058  31.000   8.145 -0.2085  0.0660  0.2146
88713W        W31626   9.766  10.824  10.314  0.1322  0.3811 -0.2006
88714W        W31627  14.730  31.056  21.821  0.0037 -0.1002 -0.0537
88715W        W31628   3.042   3.691   5.961 -0.2172  0.0218  0.1583
88716W        W31629   9.186   3.476  12.391  0.0778 -0.0587  0.1801
88717W        W31630  23.559   0.573   9.395  0.2368 -0.0141  0.0439
88718W        W31631  17.020  13.201  25.731 -0.0827 -0.2383 -0.2897
88719W        W31632  20.943   5.506   5.951  0.1978 -0.2172  0.1126
88720W        W31633   1.833   8.540   4.472 -0.2944 -0.1225 -0.2774
88721W        W31634  13.506   1.067   8.310 -0.0539  0.1640 -0.1547
88722W        W31635  17.404  34.026  11.184  0.0669  0.0135  0.4048
88723W        W31636  15.056   5.920   1.424  0.2025  0.0916 -0.3101
88724W        W31637  16.740  11.267   4.930  0.1005  0.1790  0.1291
88725W        W31638  18.830  32.918  29.682 -0.1204  0.4873 -0.0274
88726W        W31639  19.414  11.547   4.142  0.0058  0.1027  0.0863
88727W        W31640   9.875   9.282   7.666  0.0164  0.2622 -0.1151
88728W        W31641   7.685  34.086   0.506 -0.1246 -0.1327 -0.2364
88729W        W31642   3.066   5.243   8.530 -0.2098  0.0888  0.1171
88730W        W31643   3.413   8.084   3.793  0.2209  0.2096 -0.0051
88731W        W31644  13.714   6.106  24.283  0.0350 -0.2018  0.0780
88732W        W31645   8.144   2.475  11.128  0.2295 -0.0886 -0.2811
88733W        W31646  11.057   8.178   9.207 -0.1375  0.0528  0.2746
88734W        W31647  10.790  13.379   3.174  0.1263  0.0757 -0.1052
88735W        W31648  15.823   0.759  28.831  0.0255  0.2566 -0.0425
88736W        W31649   9.627  11.515  23.675  0.1086  0.2166 -0.0701
88737W        W31650  17.134   7.783  10.010 -0.0905  0.2263 -0.1324
88738W        W31651  10.312   6.435  10.329 -0.0335 -0.1739 -0.2205
88739W        W31652  16.356   7.890   0.068  0.1311 -0.3482  0.0179
88740W        W31653   4.068   5.426   0.295 -0.0830  0.1017  0.3549
88741W        W31654  18.983   2.884   1.892  0.4887  0.4928 -0.2739
88742W        W31655  11.324  26.667  25.868 -0.1427 -0.1178  0.1740
88743W        W31656  29.508   6.321   8.455  0.0405  0.3090  0.0729
88744W        W31657  31.236  11.455   7.677 -0.0543  0.3506 -0.0328
88745W        W31658   8.345   2.928   4.446 -0.4474  0.1480 -0.1095
88746W        W31659  13.171   4.222   4.726 -0.0006 -0.1442 -0.0713
88747W        W31660  17.182   5.516   4.764 -0.0621 -0.0408 -0.0291
88748W        W31661  11.946   5.960  26.108  0.2628 -0.0131  0.0407
88749W        W31662  27.278   3.384   7.414 -0.1336  0.2924 -0.2317
88750W        W31663  12.710   3.490   9.461 -0.3717  0.1809  0.1135
88751W        W31664  14.718   6.783   7.991 -0.2620  0.1380  0.3143
88752W        W31665  21.283  31.623  19.631  0.0531  0.2051  0.0203
88753W        W31666  11.162   2.988   5.045  0.1301 -0.0457  0.4925
88754W        W31667  18.253   6.061   0.125 -0.1019 -0.0913  0.2764
88755W        W31668  11.971  33.940  10.769  0.3045  0.0976  0.0179
88756W        W31669  12.686   3.085   0.178 -0.0869 -0.2851  0.2143
88757W        W31670  34.178   1.775   0.819 -0.0221  0.1629 -0.1550
88758W        W31671  34.373   2.422   2.131 -0.1788  0.2837 -0.0842
88759W        W31672   9.949   0.209  29.459 -0.1406  0.1470 -0.1442
88760W        W31673  14.992  13.182  28.424 -0.1634 -0.4550 -0.0193
88761W        W31674  18.144   0.804  27.970  0.1793 -0.3763 -0.1062
88762W        W31675   7.346  30.961   8.040  0.0517  0.1189 -0.5045
88763W        W31676  10.714   6.654  26.480  0.2381 -0.1380  0.2440
88764W        W31677  15.169  15.811   6.845  0.3327 -0.0419 -0.0897
88765W        W31678  12.302  33.228   5.238  0.2487 -0.0725 -0.1118
88766W        W31679  11.928   9.936   0.219  0.0418 -0.0048 -0.2593
88767W        W31680  18.660  10.554   3.370 -0.0846  0.1497  0.2615
88768W        W31681  21.079  33.874   2.654 -0.3021  0.0329 -0.1067
88769W        W31682   2.668   4.270  29.659  0.0985  0.0352  0.0381
88770W        W31683  12.341  19.167  28.687  0.0576 -0.0231 -0.3146
88771W        W31684  12.490  20.401   4.869  0.2979  0.3771  0.2678
88772W        W31685  14.285   4.831  21.132 -0.2670  0.1512  0.1070
88773W        W31686  19.852   1.578   3.766  0.1282 -0.1534 -0.1956
88774W        W31687   9.771  14.501  21.143 -0.1367  0.1196 -0.0553
88775W        W31688  10.356   0.275   2.132 -0.1039 -0.1983  0.0478
88776W        W31689   8.672   9.427  28.356 -0.2435  0.2332 -0.2049
88777W        W31690  13.511  32.804   8.612  0.1128  0.1907  0.2338
88778W        W31691   8.817   1.500   3.154 -0.0102  0.1562  0.1146
88779W        W31692   5.098  13.617   5.718  0.1026 -0.0025 -0.0611
88780W        W31693  14.820   3.041  28.634 -0.2406  0.0796 -0.1698
88781W        W31694  13.742   3.559   2.675 -0.0887  0.2954  0.1694
88782W        W31695   9.514   9.463   5.422 -0.0973  0.0592 -0.0290
88783W        W31696  11.943   1.502   7.689 -0.0158  0.0798 -0.0580
88784W        W31697  24.928   7.471   0.521 -0.2251  0.0764  0.1895
88785W        W31698  19.504   1.470  24.650 -0.1047 -0.2737 -0.1428
88786W        W31699   7.897  29.498  26.970 -0.2966  0.0726  0.1418
88787W        W31700  15.655  32.925  10.275  0.0876  0.1138  0.2155
88788W        W31701  15.899   8.483   1.998  0.1342 -0.0667  0.0839
88789W        W31702  17.969   3.548   7.316 -0.2498 -0.0435  0.0883
88790W        W31703   7.534   6.700   9.291  0.0412  0.0172  0.1708
88791W        W31704  10.525  28.574  28.947  0.0766 -0.0483 -0.0522
88792W        W31705  33.128   7.763  24.244 -0.4398  0.0403  0.1193
88793W        W31706  15.867  15.427  25.306  0.0076  0.1321 -0.3222
88794W        W31707   8.719   0.189   1.130  0.1605 -0.0220 -0.0777
88795W        W31708  20.859  33.790   7.991  0.1623 -0.0708  0.3031
88796W        W31709  13.017  10.464  29.712  0.1479 -0.3332  0.0073
88797W        W31710   4.440   8.386  19.536 -0.1798 -0.6583  0.2372
88798W        W31711   8.719   0.437  24.462 -0.3616 -0.0650 -0.0313
88799W        W31712  19.678  11.188   0.243 -0.1953 -0.1550  0.2752
88800W        W31713  18.307   5.101   7.108 -0.0755  0.5297 -0.1242
88801W        W31714  12.358   5.663   3.956 -0.0932  0.1058 -0.0594
88802W        W31715  13.075   4.336  22.312  0.0948  0.0485 -0.1342
88803W        W31716  24.069   5.440   9.778 -0.1828  0.0491 -0.4067
88804W        W31717   8.102   9.166   1.758 -0.0045  0.0136 -0.1865
88805W        W31718  15.866   3.673   9.494 -0.2432  0.2129  0.1096
88806W        W31719  20.297  29.442   1.591  0.0078  0.2057 -0.1377
88807W        W31720  11.861  12.537  22.636 -0.1397 -0.2768 -0.2216
88808W        W31721  18.148   6.226   5.625 -0.0803 -0.1047  0.0081
88809W        W31722   7.539   4.254   5.737  0.1430  0.1487 -0.0672
88810W        W31723  18.002  33.319  26.448 -0.1720  0.2763 -0.0115
88811W        W31724  11.015   9.881   1.289 -0.0550 -0.0209  0.1519
88812W        W31725  15.232  32.392   9.397  0.2005  0.0651  0.1166
88813W        W31726  20.988   8.130  27.527  0.0209 -0.1176 -0.2704
88814W        W31727   5.007   5.070  13.016 -0.0052 -0.0213 -0.3069
88815W        W31728   3.678  31.725  25.960  0.0631 -0.2381  0.1125
88816W        W31729  17.986   6.895   5.136  0.0662  0.2034  0.0689
88817W        W31730  14.998  13.903   6.295  0.4137  0.2457  0.0446
88818W        W31731  20.741   9.160   2.292 -0.0292 -0.1037 -0.0940
88819W        W31732   8.754   9.539   6.479  0.0797  0.0697 -0.0376
88820W        W31733  18.447   2.178  18.848  0.0313 -0.0483 -0.0989
88821W        W31734  11.957  10.069  29.152 -0.2889 -0.3140 -0.2328
88822W        W31735  12.146  26.450  29.105  0.0551 -0.0601 -0.2479
88823W        W31736  11.259   2.267   0.537 -0.1411  0.1436 -0.0657
88824W        W31737   3.963   9.414  22.265  0.0119 -0.0469 -0.1025
88825W        W31738  17.090  10.652  28.241 -0.0299 -0.1615  0.0768
88826W        W31739   0.369  13.944   8.979  0.0258  0.1275 -0.3784
88827W        W31740  11.029   2.508   6.909 -0.0298 -0.2539  0.0014
88828W        W31741   9.654   1.868   1.735 -0.0925 -0.1933 -0.1349
88829W        W31742  18.598   4.022   6.997  0.5333 -0.1952 -0.0213
88830W        W31743  17.020   2.913   4.862 -0.1223  0.0951 -0.1853
88831W        W31744  12.514  11.397   1.055  0.3220 -0.1057  0.0531
88832W        W31745  12.660   0.266   7.364 -0.1234  0.1305  0.0590
88833W        W31746  23.632   4.786   6.859 -0.3700  0.0160 -0.1410
88834W        W31747  14.705   8.598   0.606  0.1784  0.2267  0.3636
88835W        W31748  12.106   9.023   0.533  0.1358  0.0613  0.0669
88836W        W31749  12.037   7.465   6.824  0.2168 -0.3823  0.0934
88837W        W31750  26.380  11.521   4.162 -0.1893  0.1079 -0.1977
88838W        W31751  23.298   8.043   8.375  0.1558 -0.1942  0.1292
88839W        W31752  22.610   4.418   9.955  0.3089  0.1574  0.2676
88840W        W31753  13.430  13.423  26.881 -0.1888  0.2228 -0.0762
88841W        W31754  18.786  31.656   8.700 -0.1273  0.0854 -0.0131
88842W        W31755   6.938   6.480  13.529  0.0757 -0.0189  0.1309
88843W        W31756   9.167   5.092  24.641  0.0806 -0.0786  0.0574
88844W        W31757  19.526  17.618   0.733  0.2471  0.2787  0.1717
88845W        W31758  20.894  31.804   6.592 -0.0558  0.0530  0.1087
88846W        W31759   6.998   9.432   2.775 -0.2379 -0.4301  0.2128
88847W        W31760  17.631   3.692   3.005  0.1489 -0.2310  0.1822
88848W        W31761  10.611   8.207  11.600 -0.0462 -0.3812 -0.0881
88849W        W31762  15.426   6.494   5.417 -0.0747  0.3208 -0.0113
88850W        W31763  18.041  26.934   4.419  0.0201  0.0021 -0.2094
88851W        W31764   6.594   4.891   8.434 -0.0620  0.0433  0.0112
88852W        W31765  12.644   1.164   8.468  0.2086 -0.1180  0.1376
88853W        W31766   9.505   7.511  11.087  0.0489  0.0085  0.0910
88854W        W31767  34.153  12.066   1.287  0.0119  0.0655 -0.0643
88855W        W31768  12.929   9.797  28.089 -0.2332  0.1035 -0.1214
88856W        W31769  18.870  13.204  26.263  0.4084  0.0670 -0.1401
88857W        W31770   9.987  29.629  25.125  0.2104  0.4034 -0.1801
88858W        W31771  16.467  33.105  28.893  0.0805  0.0272 -0.0440
88859W        W31772  16.537   6.888   7.993 -0.0050  0.0209  0.0111
88860W        W31773  21.110  31.315   7.569  0.0040 -0.1558  0.0053
88861W        W31774   3.361   3.576   3.869 -0.1038  0.2874 -0.1523
88862W        W31775  13.382  33.752   3.210 -0.1828 -0.0690  0.1639
88863W        W31776  10.466   7.017   4.978  0.1081 -0.1033 -0.2396
88864W        W31777   2.542   7.992  25.451 -0.0730  0.1119 -0.0157
88865W        W31778  18.724  17.651   4.657  0.1406  0.2800  0.1830
88866W        W31779  29.307  12.362   3.328  0.0623 -0.1090  0.3294
88867W        W31780  11.496   0.405   8.832  0.3961  0.1806  0.0987
88868W        W31781  19.170   5.310   7.538 -0.0672  0.0918 -0.1280
88869W        W31782   0.257   4.777   5.625  0.1225  0.0553 -0.1495
88870W        W31783  15.002  33.791   7.866 -0.1177 -0.0268 -0.1960
88871W        W31784   4.565   3.700   8.023  0.1264  0.0664  0.4073
88872W        W31785  17.004  10.077   8.496  0.1177  0.2482  0.1111
88873W        W31786  11.439   5.367  27.311  0.0062 -0.1745 -0.0334
88874W        W31787   6.819   4.587   3.651 -0.0325 -0.1988 -0.0076
88875W        W31788  22.892   5.524  10.735  0.2615  0.0335 -0.0515
88876W        W31789  12.820   0.613   3.281 -0.3746  0.0255 -0.0673
88877W        W31790  24.363   6.348   8.158  0.0376  0.0847  0.0962
88878W        W31791  15.590  15.626   3.807 -0.1639 -0.2397  0.2675
88879W        W31792  24.762   3.855   8.265 -0.4744 -0.2002 -0.2007
88880W        W31793  16.140   4.640  22.901 -0.3663  0.1521 -0.1978
88881W        W31794   3.689   4.062   7.225  0.0446  0.3764 -0.0722
88882W        W31795  15.478  34.179   7.573  0.0490  0.2300 -0.1426
88883W        W31796   8.187   4.982   3.859 -0.1245  0.1536 -0.0955
88884W        W31797  26.673  11.782  28.100  0.0498 -0.2428  0.0099
88885W        W31798   3.695   7.635  26.289 -0.1673 -0.2507 -0.0757
88886W        W31799  11.420   2.640  21.805 -0.3448 -0.6101  0.0435
88887W        W31800  16.442   4.033   8.673  0.0138  0.1213 -0.2683
88888W        W31801  10.795  32.347  24.552 -0.2590  0.0458  0.0577
88889W        W31802  14.236  15.508   6.896 -0.3957  0.3821 -0.2360
88890W        W31803  24.615  18.503   3.764  0.3709 -0.0709  0.1201
88891W        W31804   5.763   4.957   4.154  0.2112 -0.0504  0.0520
88892W        W31805  22.144   6.916  23.590  0.1499 -0.1136  0.0063
88893W        W31806   6.595   7.983  27.337 -0.0156  0.2154  0.2482
88894W        W31807  12.045  11.434  29.099 -0.0208  0.0324 -0.0223
88895W        W31808  21.548   6.596   8.368  0.1020  0.0355 -0.1570
88896W        W31809   8.329   6.201   8.520  0.3343  0.1616 -0.1508
88897W        W31810  14.872  16.942  27.536 -0.2235  0.0558 -0.0297
88898W        W31811   8.541   8.598  28.728 -0.0413  0.1657 -0.1962
88899W        W31812  19.635  11.361   7.958  0.0070 -0.1195 -0.1288
88900W        W31813  15.956  10.591   1.507  0.0720  0.3191  0.2829
88901W        W31814   8.672  34.299   4.461  0.0095  0.3288 -0.1742
88902W        W31815  17.223  32.704  25.547 -0.0724  0.0802 -0.1874
88903W        W31816  10.455   4.000   7.771  0.2069  0.1474 -0.1956
88904W        W31817  11.170   6.768   5.216  0.1714  0.3125 -0.0402
88905W        W31818  16.657   2.091   5.496 -0.0349  0.2258 -0.1199
88906W        W31819  12.917  28.476   4.651 -0.2581  0.0405 -0.0082
88907W        W31820  15.768   1.009   2.021 -0.1322  0.2914  0.0896
88908W        W31821   1.200   8.993  27.512 -0.0091 -0.0973  0.2135
88909W        W31822  15.259  27.241   3.706 -0.4314 -0.2638  0.1189
88910W        W31823  14.165  22.965  27.997  0.0899  0.0733 -0.2865
88911W        W31824  14.983   5.762   7.873  0.0522  0.1705 -0.1232
88912W        W31825   2.316  18.686   9.125 -0.0045  0.2981 -0.1602
88913W        W31826  10.083  29.003  27.473  0.0128  0.1869 -0.2868
88914W        W31827   8.088  33.895   2.572 -0.0180 -0.1136  0.1079
88915W        W31828  15.837   2.039   8.742 -0.0149  0.0653  0.0971
88916W        W31829  18.795   0.554   7.786  0.3989 -0.0677  0.0939
88917W        W31830  13.778   5.457   8.407  0.1680  0.1066 -0.3103
88918W        W31831  29.210  28.404   2.711  0.0994  0.0413 -0.2069
88919W        W31832  14.524  29.445   0.921 -0.0939  0.3787 -0.1314
88920W        W31833   8.398  10.895  20.493 -0.0036  0.0799 -0.0337
88921W        W31834  11.108   5.819   9.987  0.0986  0.2530  0.0214
88922W        W31835  11.211   6.999  11.530  0.0722  0.0231 -0.0657
88923W        W31836  13.086   8.026   2.006  0.1164  0.1337 -0.1660
88924W        W31837  15.290  10.765   8.598 -0.0266  0.0519 -0.0335
88925W        W31838  19.201  11.294   8.241  0.0081 -0.1443 -0.1353
88926W        W31839  18.882   4.051   8.712  0.1425  0.0372  0.3707
88927W        W31840  17.606  33.849   6.212  0.0477  0.0303 -0.1254
88928W        W31841  16.285  30.879   8.533  0.1787  0.1743  0.2821
88929W        W31842  18.779   1.366  15.710 -0.3608  0.2541 -0.1189
88930W        W31843   2.449   0.944   4.359  0.0374  0.1161  0.1230
88931W        W31844   9.187  11.902   8.921 -0.0960  0.1210  0.1373
88932W        W31845   5.936   8.450  10.465  0.1226 -0.2181 -0.0153
88933W        W31846   4.980  27.042   8.802  0.1998 -0.2446  0.0662
88934W        W31847   7.055   8.684   6.617 -0.0839  0.0645 -0.0143
88935W        W31848   0.303   6.782   2.956 -0.0715 -0.1910  0.0089
88936W        W31849   6.786  32.618   8.685 -0.1314  0.0642 -0.0407
88937W        W31850  18.645  26.367   8.376  0.2693 -0.2173 -0.0618
88938W        W31851   4.606  31.192  11.305  0.0755  0.2113  0.1515
88939W        W31852   7.599  12.068   4.463 -0.0876 -0.0407  0.1041
88940W        W31853   9.884   7.381  11.724  0.1583  0.1802 -0.1827
88941W        W31854  20.167   4.299   6.095  0.0588  0.0554 -0.1677
88942W        W31855  12.798  15.449  16.391  0.1767  0.1529 -0.0642
88943W        W31856   8.259   6.960   5.793  0.1737  0.3474 -0.3105
88944W        W31857  22.720  11.744   4.091  0.1675 -0.0794  0.0996
88945W        W31858   6.051  10.751  23.778  0.0355 -0.1190  0.0264
88946W        W31859   7.316   6.539   2.794  0.0091  0.3102  0.2571
88947W        W31860  10.608   0.742   8.313 -0.0616 -0.1816  0.2011
88948W        W31861   8.294  33.444   7.641 -0.0804  0.2407 -0.0913
88949W        W31862   8.357   3.351   8.728  0.3535 -0.3429  0.1869
88950W        W31863  11.513   1.267   7.771  0.2747 -0.0623  0.2590
88951W        W31864  11.621   7.565   6.383 -0.3226 -0.0607  0.1047
88952W        W31865  18.587   5.150   2.421 -0.0386  0.2357  0.2577
88953W        W31866  13.141   7.305   3.928 -0.4327 -0.0958  0.1405
88954W        W31867  11.421  15.989   8.461 -0.3823  0.0376  0.0393
88955W        W31868  20.315   8.746   4.488 -0.1252 -0.0761  0.1619
88956W        W31869  21.200   5.523   4.193 -0.0290  0.2418 -0.2613
88957W        W31870  10.513   0.285   8.530 -0.0170  0.0601 -0.1580
88958W        W31871  22.841   2.491   6.136 -0.1333  0.1659  0.0125
88959W        W31872  11.581   4.525   8.308  0.0784 -0.1990  0.1292
88960W        W31873   3.938   7.750   3.622  0.1513 -0.0535  0.1813
88961W        W31874   2.708   2.304   7.963  0.0978  0.0157  0.3431
88962W        W31875   0.820   7.350  11.991 -0.1681 -0.2432 -0.0430
88963W        W31876  11.341   5.502  24.587  0.1650  0.0695 -0.1517
88964W        W31877  24.145   7.739   3.277  0.0809 -0.2194  0.0222
88965W        W31878  14.046  13.322   7.253 -0.2261  0.0116  0.1356
88966W        W31879  11.267   5.367   9.844 -0.0274  0.0657  0.0468
88967W        W31880  21.233   4.738  26.577  0.1021  0.0274 -0.1940
88968W        W31881  10.931   2.091   8.153  0.2074  0.0594  0.0979
88969W        W31882  11.178  29.879  10.017  0.0873  0.0975  0.0110
88970W        W31883  18.445  10.329   6.881 -0.0031 -0.0166 -0.2348
88971W        W31884  21.515   7.801   7.550  0.0413 -0.2401  0.2453
88972W        W31885  12.863   5.230  11.350  0.1945 -0.3617  0.1133
88973W        W31886   7.771   2.838   9.140 -0.1529 -0.1342  0.1901
88974W        W31887   9.181   5.265   5.236 -0.2683 -0.2974  0.0324
88975W        W31888  15.947  18.039   5.829 -0.1288 -0.2386 -0.0177
88976W        W31889   6.627   7.170   8.433 -0.0872 -0.0633  0.0276
88977W        W31890   6.584   3.783   7.979  0.0845 -0.3500  0.1898
88978W        W31891  10.511  32.435  12.703  0.1132  0.0937 -0.1379
88979W        W31892  22.529   7.758   4.031  0.2165 -0.0463 -0.0968
88980W        W31893   9.035   8.650   7.581  0.0021  0.0978 -0.0983
88981W        W31894   5.833   4.019  13.276  0.0185 -0.2154 -0.2675
88982W        W31895   6.761   1.606  12.008  0.3242 -0.1448 -0.1091
88983W        W31896   7.172  33.047   7.367  0.0097  0.1091 -0.2807
88984W        W31897  26.127   4.212   1.394  0.1103  0.1472  0.0301
88985W        W31898   7.967   1.234  11.455  0.1717 -0.0303 -0.4816
88986W        W31899  17.652  32.182   4.837  0.0643 -0.0891 -0.0345
88987W        W31900  11.876  30.456   4.877 -0.1975  0.4088  0.1181
88988W        W31901  16.335   3.371  23.132  0.3305 -0.2838 -0.0546
88989W        W31902  13.700   0.472   3.084  0.0223  0.1303 -0.3766
88990W        W31903   8.184   5.914  10.301  0.1301  0.0328 -0.0906
88991W        W31904  15.352   5.164   6.544 -0.0655 -0.3772  0.1893
88992W        W31905   6.409  19.313  26.279 -0.1752  0.0161 -0.3734
88993W        W31906  11.578   3.740  10.648 -0.0566  0.1217  0.0945
88994W        W31907   8.208   8.416   7.009 -0.4086 -0.3248  0.1697
88995W        W31908  15.820  29.933   0.556 -0.0942 -0.2746  0.1213
88996W        W31909   7.478  34.486  10.440 -0.1373  0.3730  0.1781
88997W        W31910   3.780   4.312   7.597  0.2901  0.3102 -0.3067
88998W        W31911  11.789  17.107   3.458  0.1255  0.1248 -0.2297
88999W        W31912  20.701   4.474   7.932  0.3132 -0.0112  0.0261
89000W        W31913  14.389  34.282   9.607 -0.0454 -0.2942 -0.2316
89001W        W31914  16.425  14.847  21.833 -0.0950 -0.1359 -0.1390
89002W        W31915  14.617  34.119   7.040 -0.1020  0.3100 -0.3935
89003W        W31916  15.329   6.352   2.685  0.0276  0.2479 -0.0504
89004W        W31917   8.420   6.647  12.258 -0.1126  0.2675 -0.1309
89005W        W31918   1.051  32.827   9.546 -0.2614 -0.0388 -0.0567
89006W        W31919  33.939   8.982   3.992 -0.3640 -0.1488 -0.1967
89007W        W31920  16.811  11.834   7.793 -0.3335  0.2605 -0.2415
89008W        W31921   6.415  10.200   6.880 -0.1974 -0.1733 -0.3343
89009W        W31922  29.684   7.185   0.739 -0.0092 -0.0657 -0.0121
89010W        W31923  10.563  28.550   0.097 -0.2966 -0.0040  0.1772
89011W        W31924  11.368   6.514   8.907 -0.1083 -0.0906  0.2197
89012W        W31925  14.606  14.531   6.568 -0.1767  0.1062  0.0503
89013W        W31926  10.553  14.474   9.534 -0.1702  0.0341 -0.1293
89014W        W31927   5.889   7.443   1.121  0.0878 -0.1865 -0.1880
89015W        W31928  20.682   2.495   8.928  0.3523 -0.0658  0.1023
89016W        W31929  12.892   8.420   8.885  0.0468  0.3026 -0.1312
89017W        W31930   8.006  10.342   0.820  0.0323  0.1870  0.0843
89018W        W31931  19.290   8.168   9.277  0.0129  0.2276 -0.2290
89019W        W31932  27.357  10.883   5.021  0.2256  0.1416  0.0211
89020W        W31933  16.628   9.658   5.979  0.2202 -0.0603  0.3688
89021W        W31934  15.307   2.970  11.571 -0.2544 -0.0437 -0.3341
89022W        W31935  15.548   6.744   5.018  0.1999  0.5539  0.0313
89023W        W31936  29.447   4.870   9.405  0.0217  0.0989 -0.0161
89024W        W31937  10.043  30.178  27.676  0.3308 -0.1155 -0.0577
89025W        W31938   3.151  34.111   8.333 -0.0706 -0.2237  0.1232
89026W        W31939  11.002  33.075  11.623 -0.2023 -0.1066 -0.4425
89027W        W31940   7.823  33.653   7.547 -0.2623 -0.1109 -0.2927
89028W        W31941  22.218  10.014  29.558  0.1591 -0.0443  0.2672
89029W        W31942   9.377   3.269  28.085  0.0651  0.0276 -0.1813
89030W        W31943  10.451  12.628  10.091 -0.0344  0.2958 -0.0550
89031W        W31944  17.076  18.694   0.650  0.1000  0.0054 -0.0078
89032W        W31945   6.767   2.618  26.935  0.0718 -0.1223  0.1334
89033W        W31946  13.140  10.492   6.883 -0.0724 -0.0247  0.4543
89034W        W31947   9.726   2.352   4.980  0.2735  0.0456  0.1771
89035W        W31948  10.830   6.349   5.162 -0.1007 -0.1145  0.0869
89036W        W31949   0.587  33.467  10.477 -0.1647 -0.1826 -0.1133
89037W        W31950  16.668  13.166   1.489 -0.0825  0.1496 -0.3836
89038W        W31951   7.276  32.628   1.728  0.3645  0.0983 -0.0055
89039W        W31952   3.952  10.171   2.729 -0.1958  0.0532 -0.2001
89040W        W31953  20.243  26.298   5.123 -0.0078 -0.0276 -0.0452
89041W        W31954   9.395  12.889   5.775  0.0233 -0.1619  0.0147
89042W        W31955  17.443  12.875   6.677 -0.0616  0.5080  0.1295
89043W        W31956  12.366   6.360   7.106 -0.4444  0.0300 -0.0244
89044W        W31957  16.592   6.961  25.601 -0.0142  0.1395 -0.0702
89045W        W31958  18.030   4.899   9.128 -0.3172  0.1522  0.2990
89046W        W31959   9.111   0.666   1.895  0.1755  0.0800  0.1448
89047W        W31960  17.193   1.485   5.984  0.0883 -0.0827 -0.2348
89048W        W31961  15.199   2.783  11.059  0.0919 -0.3057  0.0054
89049W        W31962  11.017   1.423  26.957 -0.3435  0.2499  0.0233
89050W        W31963  17.957  15.520  25.757 -0.1969  0.0781  0.1105
89051W        W31964   8.879   7.396  28.778 -0.0101  0.1012  0.0173
89052W        W31965   5.810  27.256   9.454  0.2053  0.0606  0.1889
89053W        W31966   8.862   5.628   5.124  0.2217  0.1044 -0.0553
89054W        W31967   9.523  33.167  23.483  0.0497  0.2964 -0.0626
89055W        W31968  18.562   8.305   5.537 -0.0959 -0.2313  0.0799
89056W        W31969   7.657  34.277  26.579 -0.1690 -0.2217  0.0954
89057W        W31970  18.469  33.757   9.185 -0.1023 -0.1303  0.0796
89058W        W31971   5.025   1.738   2.937  0.0708  0.2082 -0.0323
89059W        W31972   7.364  10.483   6.469 -0.0128 -0.0484 -0.1997
89060W        W31973  17.533  15.156  22.466 -0.0768  0.0573 -0.2132
89061W        W31974  23.630  34.055   6.315  0.0263  0.0052 -0.1475
89062W        W31975   9.454   4.860  10.392  0.0488 -0.1841 -0.2130
89063W        W31976  12.236  34.395   7.500 -0.3088  0.2191 -0.3479
89064W        W31977  10.159   1.683   8.782  0.1272 -0.1409  0.2663
89065W        W31978  13.835   3.876   3.863  0.1584  0.1496 -0.0147
89066W        W31979  17.290   1.256   6.437  0.0055  0.0384 -0.0327
89067W        W31980  18.475  14.523   6.383 -0.1563  0.1807 -0.2086
89068W        W31981  26.323  14.725   8.753  0.0117  0.3147  0.1097
89069W        W31982  15.057  13.120  25.390  0.1955  0.0511  0.2753
89070W        W31983  13.875   6.008  21.562 -0.1951  0.1592 -0.1784
89071W        W31984  11.670   4.019  11.099 -0.0392 -0.0018  0.2548
89072W        W31985  11.647   8.070   6.412 -0.0420 -0.2352  0.1313
89073W        W31986  19.065   5.490  25.328 -0.2561  0.5083 -0.2845
89074W        W31987  15.149  32.955  18.463  0.2438  0.2464  0.2398
89075W        W31988  11.165   1.753  10.064 -0.0841  0.0223 -0.0098
89076W        W31989   4.368   1.237   3.393 -0.1464  0.0930  0.1757
89077W        W31990  15.063   6.466   1.098 -0.0513 -0.0265 -0.0688
89078W        W31991   0.228   9.271   5.709  0.1369  0.0296 -0.4914
89079W        W31992   1.579  32.866   7.030  0.0337 -0.1400  0.0003
89080W        W31993   7.464   4.807  13.185 -0.0498  0.2165  0.1249
89081W        W31994  10.294  19.788   1.798  0.1196  0.1647 -0.2344
89082W        W31995  12.754  32.344  11.267 -0.0296 -0.0970  0.0126
89083W        W31996   6.544  30.037   8.642 -0.2572  0.0108  0.1963
89084W        W31997  15.820   9.350   8.603 -0.1827 -0.1199  0.1598
89085W        W31998  17.812   1.245   6.405  0.3761  0.0288  0.2232
89086W        W31999   1.030   3.961   8.616  0.0136 -0.2347  0.0394
89087W        W32000  12.970  31.357   0.179  0.0017 -0.2877 -0.2878
89088W        W32001  12.491   6.846   6.886  0.1933  0.1312  0.0908
89089W        W32002   9.428   1.881   7.614 -0.1289  0.0058 -0.0848
89090W        W32003   9.615  18.435   9.276 -0.3411 -0.0481 -0.0480
89091W        W32004  16.352  10.367   6.619  0.0853 -0.2464  0.1414
89092W        W32005  14.645   7.915   8.765  0.1829  0.0572  0.1753
89093W        W32006  11.865  15.484   4.367  0.1146 -0.1760 -0.1780
89094W        W32007   4.848   2.912  13.313  0.0642  0.0714 -0.0132
89095W        W32008   9.358   8.617   4.936 -0.1496  0.1288  0.1323
89096W        W32009  11.501   3.512  11.092  0.0557 -0.2251 -0.1125
89097W        W32010  22.568  34.406   2.287  0.2342  0.2907  0.1011
89098W        W32011   7.890   9.710   9.935  0.3363 -0.1562 -0.1117
89099W        W32012  12.093   4.398   8.643 -0.1172  0.0330 -0.2097
89100W        W32013  20.047  15.283  28.187 -0.1316  0.2707 -0.1632
89101W        W32014  19.958   9.214   5.986 -0.2957 -0.0114  0.1328
89102W        W32015  15.616   7.385   3.473 -0.2408 -0.0105 -0.0393
89103W        W32016  14.713  11.208   1.300  0.1651  0.0885  0.4430
89104W        W32017  18.215  34.145   4.155  0.0267  0.0285 -0.3182
89105W        W32018   9.278  29.884  27.695  0.0031  0.1130  0.1056
89106W        W32019  16.437  13.514   7.955 -0.0592 -0.1326  0.2566
89107W        W32020   5.026   2.989   9.214  0.2740 -0.1363  0.0670
89108W        W32021  18.845   4.195   8.177  0.0029  0.1819 -0.3906
89109W        W32022  11.071   0.931   7.087 -0.0538  0.1717 -0.0360
89110W        W32023  13.438  30.408   4.590  0.0145  0.0498 -0.2416
89111W        W32024  12.943   0.363   8.065 -0.1186  0.1254  0.1038
89112W        W32025  11.752  33.551  20.648 -0.0672 -0.3986 -0.3088
89113W        W32026  10.624  29.190   4.223 -0.3578 -0.1542  0.1128
89114W        W32027  13.496  34.167  11.151 -0.0958 -0.0136  0.3145
89115W        W32028   9.318   3.935  12.961  0.0998  0.0423 -0.1135
89116W        W32029   2.967   2.823   8.632  0.0674 -0.1851  0.1422
89117W        W32030  11.151   4.158   1.642 -0.4639 -0.1999 -0.2158
89118W        W32031  13.601  18.303   2.604  0.2196 -0.3552 -0.2020
89119W        W32032   9.494   8.003  18.292  0.2723 -0.1902 -0.1116
89120W        W32033  20.599   9.737   0.973  0.0378  0.4108 -0.0203
89121W        W32034   4.146   9.226  29.047 -0.0860 -0.3194 -0.0219
89122W        W32035   8.896  27.398   9.860  0.1659 -0.1275 -0.0873
89123W        W32036  33.113  10.896   9.276 -0.0779  0.2723  0.1997
89124W        W32037  10.200   3.167   2.002  0.2911  0.1983 -0.1067
89125W        W32038  11.160   5.580  11.986  0.0804 -0.2096 -0.2350
89126W        W32039   2.941   7.316   4.061 -0.1647  0.0801  0.0070
89127W        W32040   7.425   8.705   9.932 -0.1654 -0.0173  0.0615
89128W        W32041   8.101  10.297   2.466 -0.3818  0.0526 -0.2010
89129W        W32042   8.855   3.414   8.597  0.0439 -0.2378  0.2079
89130W        W32043   9.937   7.266  28.923 -0.1838  0.2191  0.0700
89131W        W32044  14.635   3.654   5.452  0.1058 -0.1887  0.0024
89132W        W32045  12.990   2.477  27.284  0.1724  0.2528 -0.0829
89133W        W32046  11.021  12.720   7.275  0.0143  0.2211  0.0199
89134W        W32047   8.519   2.714  29.420 -0.0464  0.0294  0.0759
89135W        W32048  11.675   1.065  10.773  0.3270 -0.3347  0.0175
89136W        W32049  16.167  10.794   3.805 -0.0064 -0.0196 -0.0530
89137W        W32050  12.039   2.808   1.766  0.0348 -0.3045 -0.4581
89138W        W32051  14.073  31.873  12.182 -0.0794 -0.0005  0.3221
89139W        W32052   7.321  11.629   1.426  0.2191 -0.2320  0.1243
89140W        W32053  11.154   4.410  12.315 -0.0116  0.3696 -0.2178
89141W        W32054  17.158  11.932  26.509 -0.0382  0.0608  0.1129
89142W        W32055  27.424   6.619   8.972  0.1111  0.0412 -0.2738
89143W        W32056  14.339   6.782   3.513 -0.0210 -0.2158  0.2299
89144W        W32057   6.441  11.676  10.538  0.1428  0.1768  0.3128
89145W        W32058   8.663   8.939   5.978 -0.0035  0.0401 -0.0826
89146W        W32059   6.878   4.453  12.110 -0.0778 -0.1014 -0.2740
89147W        W32060  11.097   7.288   9.277 -0.0434 -0.0576  0.3317
89148W        W32061  12.929   7.072   7.240  0.0743 -0.2047 -0.1512
89149W        W32062  13.293  28.937   3.063  0.1886  0.3658  0.1373
89150W        W32063  15.891  28.504  10.701  0.3054  0.1931 -0.2501
89151W        W32064  13.696   0.471   8.525 -0.0515 -0.2051 -0.1463
89152W        W32065   9.342  14.127   8.229 -0.2652  0.1728  0.2477
89153W        W32066  12.081  16.016   7.353  0.0337  0.0092  0.1890
89154W        W32067  17.834   6.728  23.204  0.0269  0.1817  0.2634
89155W        W32068   7.249   0.724   3.165  0.0361 -0.0783  0.1134
89156W        W32069  17.039   1.840   1.397 -0.3456  0.1525 -0.1257
89157W        W32070   7.443   4.628  10.776  0.1669 -0.3745  0.2794
89158W        W32071  16.789  10.485   8.330 -0.0336 -0.2906  0.2792
89159W        W32072   7.176  30.138   4.812 -0.2651  0.0683  0.0291
89160W        W32073  10.252   9.812   1.896 -0.0764 -0.0276 -0.0727
89161W        W32074  19.497   6.965   5.021  0.1204 -0.0041 -0.2446
89162W        W32075   8.414  11.949   9.977  0.1306  0.1065  0.3101
89163W        W32076  15.184  26.283   2.937 -0.2455 -0.0023  0.1081
89164W        W32077  12.983   4.766   8.529  0.0315 -0.0062  0.3860
89165W        W32078   9.230   6.934   1.064  0.0002 -0.4097 -0.2484
89166W        W32079  19.138   2.019   9.606  0.2584 -0.1392  0.2641
89167W        W32080   6.432   9.962   0.718  0.0374  0.0500  0.1702
89168W        W32081   8.472   3.970  12.848  0.1074 -0.0397 -0.0913
89169W        W32082  15.134   3.532   3.967  0.0244  0.0871  0.0619
89170W        W32083  13.312   2.179   9.698 -0.1688 -0.2993 -0.3633
89171W        W32084   8.903   4.860   0.505 -0.0159  0.1126  0.1241
89172W        W32085  13.677  34.220   6.634  0.2579 -0.1375 -0.0872
89173W        W32086  11.546   9.310   8.867  0.0508 -0.2177 -0.0117
89174W        W32087  14.181  19.246   5.601  0.0187  0.0611 -0.1906
89175W        W32088   6.465  10.884   7.989  0.2854 -0.0726 -0.0983
89176W        W32089  10.487   0.611   5.936  0.0174 -0.1141  0.1696
89177W        W32090  15.610  12.760   3.386  0.0489  0.0075 -0.1581
89178W        W32091  10.562   4.955   9.854  0.0009  0.0464 -0.0329
89179W        W32092  13.906   1.070   0.768  0.0520 -0.0443  0.0983
89180W        W32093  13.328  13.580  19.142 -0.3855  0.1694 -0.0830
89181W        W32094  16.816  31.828  28.513  0.1102 -0.2519  0.1627
89182W        W32095  15.398   7.608   5.461 -0.0662  0.0054  0.0170
89183W        W32096   5.282  10.122   2.481  0.0824 -0.2807 -0.1900
89184W        W32097   4.022  33.941  21.130  0.0869  0.4328 -0.0704
89185W        W32098   6.623   6.297   1.429  0.1536 -0.0280 -0.1085
89186W        W32099  11.669   2.935  23.609  0.3269 -0.1186  0.1450
89187W        W32100   3.904  11.589   5.772 -0.2944 -0.1958  0.2397
89188W        W32101  17.325  16.170  25.645  0.2056  0.1104  0.1488
89189W        W32102  17.844  29.735   7.918  0.0300 -0.2990 -0.1708
89190W        W32103   8.884  33.162   9.510 -0.0963  0.2613  0.1204
89191W        W32104   5.661  13.347   1.533 -0.0164 -0.0905  0.3027
89192W        W32105  12.645  27.228  10.422  0.2455  0.3048 -0.1818
89193W        W32106   8.852  13.512  17.179 -0.0364  0.1328  0.2145
89194W        W32107  13.219   9.463   0.199  0.0626 -0.0324  0.2123
89195W        W32108  15.937   6.556   6.365 -0.0980  0.0450  0.0456
89196W        W32109  10.928   8.150   4.381 -0.0195  0.1923 -0.0321
89197W        W32110  14.743   2.114   5.285  0.0416  0.0393 -0.0151
89198W        W32111   4.892  11.608   8.375  0.2640 -0.1374 -0.1140
89199W        W32112   9.867  11.155   9.008 -0.0834 -0.1775 -0.0096
89200W        W32113  13.420  21.876   4.133  0.1823 -0.0710 -0.1435
89201W        W32114  17.686  11.797   3.510  0.1346 -0.2778  0.1651
89202W        W32115  20.193   1.688   5.336 -0.1072  0.5320 -0.1189
89203W        W32116   1.803  32.627   9.027  0.3130 -0.2241  0.0101
89204W        W32117   8.725   5.458   0.696 -0.0167 -0.4730 -0.0188
89205W        W32118  16.141  19.454  28.493 -0.3985  0.1732 -0.1223
89206W        W32119   7.752   4.849   1.722  0.0978 -0.1689 -0.1671
89207W        W32120  22.360  33.204   7.284  0.0077  0.2503 -0.0983
89208W        W32121  22.811  10.861   7.421 -0.0208  0.1419 -0.2529
89209W        W32122  18.368  31.293   5.795 -0.1694 -0.1059  0.0616
89210W        W32123  16.042  12.600  23.861 -0.1838  0.1269  0.0096
89211W        W32124  12.864   5.502  29.386 -0.0041 -0.0445 -0.0878
89212W        W32125  13.872  15.647   2.491 -0.0992  0.0448 -0.0395
89213W        W32126   1.826  13.475   7.860 -0.0691  0.1133  0.1437
89214W        W32127  15.397  28.261   0.456  0.1425  0.1000 -0.0387
89215W        W32128  20.854   1.958   4.881  0.0624  0.0202 -0.1251
89216W        W32129  18.565  30.356   8.305 -0.2104  0.1821 -0.1694
89217W        W32130  15.811   3.484  10.876 -0.0127 -0.2049 -0.0977
89218W        W32131   9.152   7.671  12.286 -0.2963 -0.1762 -0.2168
89219W        W32132  19.340   7.258   8.706 -0.0086  0.1002 -0.0065
89220W        W32133   7.739  32.265   0.882  0.3417 -0.0908 -0.0928
89221W        W32134  18.901  24.347   7.484 -0.3110 -0.0116  0.0162
89222W        W32135  32.997  12.202  10.074 -0.2449 -0.1010  0.1278
89223W        W32136   8.197   6.366   1.697  0.4019 -0.3369  0.2544
89224W        W32137  12.994  10.441   9.291  0.0365 -0.2971 -0.6603
89225W        W32138  18.880  11.547  26.898  0.5217  0.2164 -0.5187
89226W        W32139  14.492  10.186   8.901 -0.0219 -0.0394  0.1325
89227W        W32140  11.178  12.928  23.498 -0.0727 -0.0527  0.0508
89228W        W32141   8.622   8.677   5.465  0.3858  0.0196  0.0165
89229W        W32142   3.455   0.146   9.251 -0.3038 -0.0676 -0.2494
89230W        W32143  21.291   7.682   8.598 -0.1433 -0.0317  0.2533
89231W        W32144   8.668  20.541   7.525  0.0670 -0.0724  0.4070
89232W        W32145  12.887  10.088   8.307  0.3412 -0.2222 -0.1718
89233W        W32146  14.784   4.212   3.036 -0.1528 -0.1414  0.1763
89234W        W32147   8.654   7.779  10.912  0.2109 -0.2089  0.1827
89235W        W32148  22.417   8.155   8.485 -0.1756 -0.0632  0.0378
89236W        W32149  16.419  16.529  29.616  0.1289 -0.3580 -0.2415
89237W        W32150  31.292  10.164   5.946  0.3511 -0.2927 -0.1235
89238W        W32151   7.676  34.041  29.365 -0.0921 -0.1263  0.3597
89239W        W32152   5.164   3.297   9.904  0.0836  0.1450 -0.1907
89240W        W32153  26.764  10.049   4.887 -0.0909 -0.0503  0.2450
89241W        W32154  14.357   6.085   8.657  0.1599 -0.1469 -0.0285
89242W        W32155  14.002   7.627   6.667  0.1724 -0.0835 -0.2830
89243W        W32156  17.020   0.531   8.414 -0.1686 -0.4436  0.0671
89244W        W32157   9.863   9.471   1.942 -0.1373  0.1043  0.1638
89245W        W32158   9.475   6.984  11.966 -0.1560 -0.3140  0.1006
89246W        W32159   9.935   7.808  10.426 -0.1782  0.1385 -0.0127
89247W        W32160  13.751  16.190  26.235  0.0754  0.2289  0.2663
89248W        W32161   2.736   6.586   9.295 -0.0860 -0.2568  0.0020
89249W        W32162  13.731   0.438  10.045 -0.0508  0.4183 -0.0705
89250W        W32163  15.377  33.799   3.381  0.3349  0.0000 -0.0916
89251W        W32164  18.418   2.957   8.221 -0.0576 -0.0972  0.1979
89252W        W32165   9.468  32.730  11.039  0.2053 -0.1709  0.0383
89253W        W32166   3.609  29.288   6.412 -0.0299 -0.2894 -0.1112
89254W        W32167   6.542  31.160   6.795  0.2145 -0.0248 -0.0158
89255W        W32168  19.646   7.593  24.575 -0.2386  0.0742  0.1179
89256W        W32169  11.386   0.326  12.413  0.0835 -0.0350 -0.0351
89257W        W32170  25.009  11.800   6.202  0.0056  0.1099  0.0977
89258W        W32171   9.331   9.404   0.369 -0.1052 -0.0306 -0.2224
89259W        W32172  12.159   0.685   9.408 -0.1487  0.0106  0.3807
89260W        W32173  11.188   6.530  11.596  0.1382  0.0643 -0.1436
89261W        W32174   5.315   3.376   3.354 -0.0548  0.1657 -0.4538
89262W        W32175  14.209   5.927  10.660  0.0005 -0.1495 -0.0651
89263W        W32176  21.681  27.440   6.196 -0.5490 -0.1657  0.0630
89264W        W32177   6.905   7.266  11.813  0.2851  0.0791  0.2146
89265W        W32178   0.421   2.418  11.267 -0.1472 -0.3675  0.0303
89266W        W32179  11.960  12.670   9.179 -0.1366  0.0271 -0.1092
89267W        W32180  17.478   0.942   7.208 -0.1827 -0.1295  0.1891
89268W        W32181  16.632  12.426  28.795 -0.2499  0.1172  0.0526
89269W        W32182  15.148   9.616   2.158  0.1008  0.0005 -0.2207
89270W        W32183   5.955   1.694   3.930  0.0059 -0.2128  0.0781
89271W        W32184  22.458  26.571   2.241 -0.0182 -0.1620 -0.2140
89272W        W32185  11.859  12.041   8.239 -0.2882  0.3133 -0.1008
89273W        W32186   6.621  32.328   7.557  0.5026 -0.3730  0.1808
89274W        W32187  18.161   5.867   8.280 -0.2704  0.2437 -0.1807
89275W        W32188  22.040  10.825   2.825 -0.2100  0.1120 -0.1196
89276W        W32189  21.505   3.841  10.465  0.0260  0.2064  0.1205
89277W        W32190  28.429   6.293   6.138  0.2216  0.2835  0.3595
89278W        W32191   7.964   8.525   5.692 -0.3087 -0.1924 -0.1843
89279W        W32192  15.260  29.328   7.074 -0.1462  0.0997  0.1048
89280W        W32193  16.684  33.163   1.480  0.2100 -0.1094 -0.1135
89281W        W32194  15.371   6.394   8.638 -0.1656 -0.2724  0.1678
89282W        W32195  18.562  29.271   6.426 -0.1125  0.0185  0.2690
89283W        W32196  15.755   8.430  29.500  0.2126  0.2827  0.1586
89284W        W32197  17.587  28.080   6.799  0.2527  0.1333 -0.2435
89285W        W32198  22.656  33.430   6.225  0.1337 -0.0344 -0.0691
89286W        W32199   8.851   5.047   9.653 -0.2582 -0.1746  0.1623
89287W        W32200   4.303   9.867  11.375 -0.2499 -0.1356 -0.0044
89288W        W32201  17.471  10.238   6.623  0.5829  0.0860  0.2821
89289W        W32202   6.798   9.103   9.234 -0.0660 -0.0255 -0.0327
89290W        W32203   9.460   8.534  10.084  0.2516 -0.0642 -0.1439
89291W        W32204   9.005  31.981  10.963  0.1116  0.0783 -0.0312
89292W        W32205   4.954   8.611  11.763 -0.0046  0.3559 -0.1851
89293W        W32206   7.997   3.448   5.429  0.1458 -0.0431 -0.1638
89294W        W32207   9.532  22.167   0.539  0.0839  0.1971  0.0288
89295W        W32208  15.918  13.977   7.760  0.2868  0.0627 -0.0934
89296W        W32209  13.868   0.059   6.963  0.0053  0.1313  0.1857
89297W        W32210  13.023  31.776   4.226 -0.3532  0.0332  0.1825
89298W        W32211  17.729   5.254   8.923  0.0983  0.2144  0.1506
89299W        W32212  14.520   1.477  11.830  0.0406  0.0972  0.1024
89300W        W32213  17.475   5.494   6.719 -0.2278  0.1920 -0.0993
89301W        W32214  10.117  11.155  10.491  0.2564  0.1711  0.0206
89302W        W32215  11.093   4.840   6.638  0.0196 -0.2647  0.0479
89303W        W32216   9.150   3.583  27.678 -0.2206  0.0462  0.2992
89304W        W32217   7.359  27.072  23.652 -0.0474  0.0597  0.0330
89305W        W32218  13.577   4.274   2.733 -0.1850 -0.0086  0.1073
89306W        W32219  15.527   6.419  10.576  0.0709 -0.1640 -0.1714
89307W        W32220  10.701   9.107   9.239  0.1929 -0.1267  0.1621
89308W        W32221  15.489  31.134   9.905  0.1276  0.2858 -0.0152
89309W        W32222  16.397   3.791  10.669  0.0659 -0.0551  0.2257
89310W        W32223   4.240  16.291  28.696 -0.2133  0.0059 -0.1181
89311W        W32224  19.482  31.760   4.544  0.0426  0.1155 -0.3502
89312W        W32225  15.129  31.735  29.110 -0.1843  0.0593 -0.2377
89313W        W32226  10.551   5.274  10.867 -0.3393  0.2277 -0.0046
89314W        W32227  13.722   2.719   9.188 -0.1278 -0.1625  0.0835
89315W        W32228  14.580  12.214  27.646 -0.2037  0.1342 -0.1503
89316W        W32229  31.045  10.482   2.610  0.0859 -0.2090 -0.1271
89317W        W32230  28.298   2.786   7.496  0.2443 -0.0578  0.1671
89318W        W32231  16.609  29.743   5.503  0.1954  0.0071 -0.0347
89319W        W32232   7.699   7.847   6.620 -0.1942  0.0345  0.0474
89320W        W32233  11.148   3.465   7.617  0.0594  0.0704 -0.1188
89321W        W32234  18.851  14.735   2.636  0.1442  0.2776 -0.1811
89322W        W32235   4.223   0.472  10.690 -0.0558  0.2136 -0.1732
89323W        W32236  21.748  32.484   9.113 -0.2368  0.2988 -0.0833
89324W        W32237  13.913   4.752   8.918 -0.1376 -0.0860 -0.0917
89325W        W32238   8.953   9.104   7.676  0.0214 -0.1984  0.1143
89326W        W32239   7.538   1.746  12.941 -0.0821  0.0457 -0.2143
89327W        W32240  20.048   7.287   9.132  0.0997 -0.0734  0.0084
89328W        W32241  17.441  10.529   1.382 -0.2352 -0.0326  0.0572
89329W        W32242  21.439   7.831   6.765  0.2082 -0.0350  0.1144
89330W        W32243   7.399  34.263   9.437  0.0031 -0.0463  0.0614
89331W        W32244  15.484   8.811   4.611  0.0073 -0.0404  0.1016
89332W        W32245  11.496  32.306  10.100 -0.0844  0.0668  0.3418
89333W        W32246  10.746   0.411  10.971  0.2117  0.1166 -0.0443
89334W        W32247  14.274  32.179   6.203  0.1835 -0.1888  0.1485
89335W        W32248   5.134  26.704   7.805 -0.2020  0.0609  0.0919
89336W        W32249  33.943  27.248   5.413 -0.0106 -0.0856  0.1563
89337W        W32250  33.090  34.413   2.453 -0.0829 -0.0345 -0.1801
89338W        W32251  10.273   3.397  10.151  0.0268  0.1166 -0.1252
89339W        W32252   8.261   6.254   4.966  0.0344  0.2888  0.1574
89340W        W32253   3.336  31.901   5.601  0.1526  0.0001 -0.2442
89341W        W32254  12.187   0.335   5.237  0.1751  0.1486 -0.0351
89342W        W32255   9.052  30.130  11.739 -0.1902  0.0696 -0.3618
89343W        W32256  17.025  13.607  23.521 -0.1936 -0.1768  0.2018
89344W        W32257  20.045   2.965   9.354 -0.0600 -0.0776  0.1804
89345W        W32258  10.942  15.719   5.990  0.1020  0.2405  0.3168
89346W        W32259  16.727   2.558   9.303  0.0116 -0.3006  0.1760
89347W        W32260  29.253   6.027   6.497  0.0509  0.1504 -0.2025
89348W        W32261   7.633   7.368  10.082  0.1753 -0.3844  0.2220
89349W        W32262  13.492   0.118   2.443 -0.0581 -0.0188  0.1711
89350W        W32263   3.782  31.214   7.366  0.1019 -0.1229 -0.0306
89351W        W32264  15.721   0.822   8.007  0.1254  0.0534  0.0817
89352W        W32265   2.970  23.169   3.390  0.2256  0.1117  0.1133
89353W        W32266   7.658   2.592  10.194 -0.2999 -0.1484 -0.0589
89354W        W32267   8.256  29.888   5.499 -0.3489 -0.1666  0.1453
89355W        W32268   6.760   3.920   4.400 -0.1789  0.3848 -0.0900
89356W        W32269  18.139  16.560   7.911  0.0726  0.0014  0.0184
89357W        W32270  26.647   0.509   9.023 -0.1750  0.0982 -0.2116
89358W        W32271  12.840   9.783   3.674 -0.0238  0.2139 -0.0905
89359W        W32272  12.458  14.882   8.492 -0.1442 -0.2648  0.0457
89360W        W32273   9.335  31.132   6.694 -0.0194 -0.0659  0.3284
89361W        W32274   6.587  14.219   2.256 -0.0820 -0.3183 -0.3303
89362W        W32275  13.299   3.849  29.695 -0.0397  0.0481  0.0344
89363W        W32276  10.741  12.966  10.336 -0.2870 -0.0510  0.2579
89364W        W32277  16.803  15.804   1.707 -0.3271 -0.1557 -0.0493
89365W        W32278   5.469   6.034  13.983  0.1114 -0.0075 -0.0966
89366W        W32279  14.954   9.439   3.571  0.2261 -0.0035  0.0574
89367W        W32280  13.872   5.702   9.871  0.0783 -0.0336  0.2549
89368W        W32281   3.582   5.257   2.452 -0.0208  0.0231  0.2347
89369W        W32282   9.596  30.129   8.468 -0.1655 -0.3502  0.0621
89370W        W32283   7.667   1.527  14.001 -0.0375 -0.1575  0.1874
89371W        W32284  10.522  34.454  10.777 -0.0937  0.6237 -0.0942
89372W        W32285   6.988  32.907  29.706  0.2116 -0.0704 -0.5820
89373W        W32286  10.673   8.209   5.590  0.2811 -0.1790  0.1033
89374W        W32287   9.615  11.404   9.327  0.1074 -0.1706  0.1080
89375W        W32288  12.176  32.958  10.118 -0.0963 -0.0381  0.4380
89376W        W32289  33.093  30.104   8.973  0.0752 -0.1999  0.5195
89377W        W32290  17.342   2.644  10.157  0.2124  0.1141  0.1318
89378W        W32291  15.047   6.253   9.272 -0.0950 -0.0027 -0.3150
89379W        W32292  28.908   5.332  29.461 -0.0732 -0.1326  0.1812
89380W        W32293  13.522   9.396   3.590 -0.3545  0.1930 -0.0621
89381W        W32294   5.272   4.359  11.985 -0.2398 -0.2585  0.1065
89382W        W32295  12.745  16.549   4.195  0.1120  0.2692 -0.0658
89383W        W32296  13.649   7.597   7.490 -0.3672 -0.0982 -0.1458
89384W        W32297  12.337   8.813   6.182  0.2718 -0.1771  0.4861
89385W        W32298   9.002   5.917  12.916  0.0295 -0.1941 -0.0608
89386W        W32299   6.122   2.228   8.782  0.2892 -0.0601 -0.0242
89387W        W32300   2.900   4.457  11.119  0.0399 -0.0543 -0.0048
89388W        W32301  12.461   2.303   9.289  0.1868 -0.0620  0.2049
89389W        W32302   1.289   4.809   5.652 -0.0562 -0.1504  0.3488
89390W        W32303  25.848   3.483   3.771  0.3334  0.2401  0.2051
89391W        W32304   6.649  14.023   5.670  0.1024 -0.2419  0.2605
89392W        W32305   5.794   4.500   8.598  0.2400  0.1948 -0.1248
89393W        W32306   5.750  11.788   8.887  0.1079  0.2770  0.1914
89394W        W32307  12.697   8.727   5.807 -0.1522  0.0829 -0.0838
89395W        W32308  19.839   0.589   8.323 -0.0885 -0.2269  0.0253
89396W        W32309  10.301   7.154  10.873  0.0092 -0.2422  0.1505
89397W        W32310   7.769  33.136   7.006 -0.0956 -0.0530 -0.2318
89398W        W32311   9.465   8.339   8.577 -0.0151  0.1388 -0.3409
89399W        W32312   7.830  28.781  11.159 -0.2759  0.2978  0.0252
89400W        W32313   5.411   8.714   6.941  0.1484 -0.2309 -0.1210
89401W        W32314  11.719   6.447   6.509  0.0461  0.0907 -0.1070
89402W        W32315   6.071   7.158   8.488 -0.0753 -0.0735  0.0204
89403W        W32316  10.775  26.982   8.737 -0.1251 -0.0148  0.2954
89404W        W32317  17.166  33.395  29.169 -0.1229 -0.3258 -0.0425
89405W        W32318  16.782  32.132   6.057  0.1146 -0.0520  0.1308
89406W        W32319  17.112   3.654   1.603  0.3958  0.0061  0.2361
89407W        W32320   9.958  12.424   8.051 -0.1196 -0.3167 -0.1036
89408W        W32321  12.371  11.791   9.378 -0.2128  0.1057 -0.0375
89409W        W32322  15.141  28.907   7.314  0.1258 -0.3207 -0.0648
89410W        W32323  14.069  32.411   4.940 -0.0745  0.2142  0.0273
89411W        W32324   1.365  16.015   4.646 -0.0258  0.1445  0.1936
89412W        W32325  13.107   1.663   6.196  0.1451  0.2743  0.2066
89413W        W32326  14.767   3.702   2.929  0.0576 -0.0367  0.2496
89414W        W32327  15.088   3.467  28.091 -0.3101 -0.0485  0.1710
89415W        W32328  10.837  32.288  11.896  0.0991 -0.0521  0.1104
89416W        W32329   8.299  29.280   8.345  0.2236 -0.2521  0.0495
89417W        W32330  13.725   8.988   5.097  0.1378 -0.3457  0.0283
89418W        W32331  11.750  20.221  23.726 -0.3386 -0.0007 -0.1153
89419W        W32332   5.385   3.782   9.653  0.0338 -0.3434  0.0142
89420W        W32333   7.179   3.442   7.480 -0.2098 -0.3480 -0.1683
89421W        W32334  18.321  14.050   6.209 -0.0765  0.3403  0.2261
89422W        W32335   2.988   8.007   0.836 -0.0570  0.0289  0.2481
89423W        W32336  12.656   1.460   6.393 -0.0785 -0.3052 -0.3573
89424W        W32337   8.601   9.263   9.234  0.2744  0.0228 -0.2787
89425W        W32338   5.117   0.577   8.441 -0.4303  0.0126  0.1976
89426W        W32339  10.269   2.715   7.202  0.0512  0.0947  0.1969
89427W        W32340  16.240   5.915   8.526 -0.1436  0.1295  0.0287
89428W        W32341   8.956  27.958   1.917  0.2299  0.1535 -0.0246
89429W        W32342  15.149   0.978  10.819  0.1421  0.1867 -0.1492
89430W        W32343   9.636   7.040   6.849  0.0823  0.0958  0.1405
89431W        W32344  11.029   7.641   6.238 -0.3895 -0.1295  0.1138
89432W        W32345   6.249   8.771   9.338 -0.1940  0.0475  0.1812
89433W        W32346  21.502   8.220   5.451  0.1576 -0.0308 -0.2303
89434W        W32347   9.257  30.785   8.514 -0.0832 -0.0908  0.0279
89435W        W32348   4.939   7.199   6.416 -0.0957  0.0336  0.0782
89436W        W32349   8.588  33.003  11.382  0.0765  0.0060  0.1249
89437W        W32350  29.863   1.696   8.775  0.1111  0.1791  0.0256
89438W        W32351  24.087  20.110   3.762 -0.0797 -0.3763 -0.2178
89439W        W32352   5.969  31.528   5.007 -0.4278 -0.2124  0.1358
89440W        W32353  18.689   6.672   5.845  0.2222  0.1905 -0.2344
89441W        W32354  28.562  17.965   9.423 -0.1453  0.0913  0.1519
89442W        W32355   6.123   4.382  13.066  0.0598  0.4565 -0.2668
89443W        W32356   4.518  31.522  10.009 -0.0480 -0.0472  0.3510
89444W        W32357   5.542  10.459   4.731 -0.3373  0.1679  0.2020
89445W        W32358  15.142   5.266   7.895 -0.3176 -0.2244 -0.0547
89446W        W32359  11.098  33.691   7.435  0.0808 -0.3273 -0.3679
89447W        W32360  12.722   2.207  19.578  0.2963  0.3446 -0.1539
89448W        W32361  14.709  28.067  10.387 -0.2090 -0.2916  0.1447
89449W        W32362  15.079   8.444   4.520 -0.3442  0.2846  0.0428
89450W        W32363   6.549   2.837   4.309 -0.0321 -0.2094  0.1018
89451W        W32364   2.888   6.523   4.141  0.2955  0.1789 -0.2814
89452W        W32365  10.452   0.134   9.579 -0.1909  0.2899  0.0915
89453W        W32366  17.821  33.567   9.175 -0.1258  0.0516 -0.0681
89454W        W32367   8.224   4.550   4.123  0.0230 -0.0366 -0.1419
89455W        W32368  10.228  14.344  26.187  0.2038 -0.1004 -0.1407
89456W        W32369  24.535   8.874   8.601  0.1595 -0.2313 -0.1706
89457W        W32370  11.764  11.328  10.472  0.0501 -0.1286  0.2793
89458W        W32371   6.905   9.657   7.384 -0.2657 -0.1536 -0.0983
89459W        W32372  25.299  12.126   8.772 -0.1408  0.1792 -0.0091
89460W        W32373  11.894   7.301   3.622  0.3941  0.4368  0.0155
89461W        W32374  24.828   8.058   8.745  0.0078  0.0713 -0.0860
89462W        W32375   6.506  27.128   8.139  0.1286 -0.1245 -0.3005
89463W        W32376  21.669   3.322   7.147  0.0187  0.0292  0.2510
89464W        W32377  18.332   2.796   7.747  0.0532 -0.0619 -0.3296
89465W        W32378  17.853  33.262   9.913  0.3586 -0.0001  0.0075
89466W        W32379  33.138   4.814   4.652  0.3269 -0.1176  0.2962
89467W        W32380   5.834  19.512   8.250  0.1379  0.1143  0.1873
89468W        W32381  12.939   8.175   8.482 -0.2142  0.2344 -0.1538
89469W        W32382  16.582  30.895   9.012 -0.2765 -0.1891 -0.3641
89470W        W32383  15.467  34.228   7.053  0.1745  0.0644 -0.2586
89471W        W32384   4.705   4.379   1.667  0.1151  0.0016  0.0529
89472W        W32385   8.457   8.579   9.440  0.1873 -0.0728 -0.4462
89473W        W32386   7.768   5.728   1.696 -0.3055 -0.2176 -0.0384
89474W        W32387  11.816  31.298   5.676 -0.0135  0.0482 -0.0157
89475W        W32388  20.181  29.837   5.717 -0.2559  0.0279 -0.3261
89476W        W32389  21.967   7.852   1.930 -0.2511 -0.2839  0.0562
89477W        W32390  13.978  16.322   8.429 -0.0502 -0.2893 -0.3813
89478W        W32391  11.952  26.833   4.500  0.1955  0.4957 -0.0861
89479W        W32392  14.720   0.736   9.551  0.1525 -0.0478  0.1229
89480W        W32393   8.780  32.914   8.097 -0.0324 -0.3009 -0.0956
89481W        W32394  12.563   3.086   6.924  0.1082 -0.1035 -0.0709
89482W        W32395   8.570  28.790   6.729  0.0611 -0.0218 -0.2261
89483W        W32396   8.406   6.789  28.939  0.1272 -0.2294  0.0348
89484W        W32397  12.931   7.430   7.962 -0.2081  0.3169  0.3958
89485W        W32398  24.174  10.095   7.942  0.3011 -0.0444  0.1174
89486W        W32399   2.690  13.435   9.636  0.1287 -0.1080  0.4540
89487W        W32400   4.846  34.198   3.461  0.0409 -0.0536  0.0476
89488W        W32401   9.570   5.198   4.547  0.1170 -0.2583  0.0685
89489W        W32402  14.499   8.928   6.968  0.0739 -0.0430 -0.3241
89490W        W32403  10.722   8.649  11.382  0.0954 -0.1309  0.4757
89491W        W32404   5.806  12.955   7.463  0.4606  0.2925 -0.2240
89492W        W32405   2.915  31.110   5.599  0.1327  0.0507  0.1168
89493W        W32406   5.894   6.182  11.348  0.1739 -0.2590  0.0193
89494W        W32407  12.008   7.841   4.696  0.1469 -0.1824 -0.1404
89495W        W32408  16.063   2.263  10.270  0.1191  0.0663  0.1297
89496W        W32409  12.146   1.724   5.726  0.2303  0.1733 -0.4413
89497W        W32410  10.378   4.354  10.648 -0.3715 -0.5934 -0.1783
89498W        W32411   8.569   4.661   1.014 -0.0692  0.0787 -0.2302
89499W        W32412  11.004  28.961  12.217  0.2881 -0.0293  0.4486
89500W        W32413  15.103   3.583  23.472 -0.0601  0.0441 -0.1494
89501W        W32414  24.587   4.208   4.244  0.0922 -0.1030 -0.0472
89502W        W32415   8.492   7.362  11.340  0.1783 -0.2484  0.4495
89503W        W32416  14.330   6.628   1.250 -0.1549 -0.0560  0.0783
89504W        W32417  13.008  29.501   6.125  0.0341 -0.1249 -0.3027
89505W        W32418   5.487  29.302  11.455 -0.1128  0.0917 -0.0552
89506W        W32419   8.893   5.312   5.700 -0.0064 -0.0769  0.2085
89507W        W32420  15.654   9.021   7.754 -0.0993 -0.1535 -0.2037
89508W        W32421  12.171   2.540  11.626  0.1315 -0.0988 -0.0048
89509W        W32422   6.954   8.790   7.085  0.2099 -0.1669 -0.0815
89510W        W32423  12.821   5.967   8.510 -0.2192  0.3069 -0.1354
89511W        W32424  14.470  11.411   7.003  0.3309  0.0865  0.2372
89512W        W32425  12.720   7.668  11.532  0.0281 -0.1302  0.1942
89513W        W32426   7.491   2.798   5.871  0.1574 -0.1922 -0.1905
89514W        W32427  19.423   3.455   7.897  0.1014  0.4506 -0.1866
89515W        W32428  14.717  32.362   6.401 -0.0551 -0.4275  0.0868
89516W        W32429  12.445   9.121   4.972 -0.1655 -0.1891  0.1102
89517W        W32430   8.370  25.529   2.332 -0.5155  0.4118 -0.1003
89518W        W32431  11.737  11.683   6.887 -0.2218 -0.3720  0.3787
89519W        W32432  15.259   4.983   3.285  0.2232  0.1978 -0.4856
89520W        W32433   6.685  32.325   0.745 -0.1018 -0.0704 -0.0140
89521W        W32434  23.692   4.648  29.299 -0.3917  0.0926 -0.2746
89522W        W32435  12.895  33.864   9.254  0.2003 -0.0950 -0.0626
89523W        W32436   2.670  11.234   0.900  0.1481  0.1942 -0.0264
89524W        W32437  21.014   3.685   0.732 -0.2010  0.0681 -0.2048
89525W        W32438  18.624  33.453   5.066  0.0701  0.1791  0.1597
89526W        W32439  13.350   0.507  10.881  0.1348 -0.2928  0.2249
89527W        W32440  20.285  19.041   5.836  0.1669 -0.2643  0.2064
89528W        W32441   3.087   5.546  13.081  0.1189 -0.0237 -0.2276
89529W        W32442  13.369  12.438  28.781 -0.1485  0.0308  0.1896
89530W        W32443   9.596   4.102   5.562 -0.1935  0.2313  0.0942
89531W        W32444   7.830  28.041  10.125 -0.2779  0.2097  0.0795
89532W        W32445  19.912   0.331   5.251  0.0212  0.1187  0.1003
89533W        W32446  17.588  34.421   7.356 -0.0468  0.0627 -0.1385
89534W        W32447   8.161  10.682  10.557 -0.0401  0.0166  0.2977
89535W        W32448   8.618   2.434  12.707 -0.0632 -0.0853  0.1249
89536W        W32449   9.411  30.510   6.654 -0.2805 -0.1632 -0.1335
89537W        W32450  16.100   9.080   6.040  0.2259 -0.2419  0.2467
89538W        W32451   7.905   7.226  10.573  0.2015 -0.2076  0.0460
89539W        W32452   9.838   8.453   9.051  0.1722 -0.0975 -0.1753
89540W        W32453   7.962   3.483  22.710 -0.1185  0.2351 -0.3249
89541W        W32454  17.660   2.591   7.235  0.1186 -0.1032 -0.2623
89542W        W32455  12.853  20.404   5.938 -0.0469 -0.0353 -0.1967
89543W        W32456  10.552  11.635   7.160 -0.3757 -0.1645  0.4901
89544W        W32457  11.129  11.428   4.732 -0.3186 -0.1821  0.1636
89545W        W32458  18.066   7.638  28.406  0.2399  0.1105  0.0385
89546W        W32459   9.946   7.432  12.495 -0.2195 -0.1817 -0.1952
89547W        W32460  13.346  13.000  25.828 -0.3666  0.1144 -0.0624
89548W        W32461   9.063  13.187   0.130 -0.0971 -0.3329 -0.2964
89549W        W32462  13.594  12.367  15.665 -0.1045  0.3039  0.2980
89550W        W32463  19.253   2.558   2.251  0.2139 -0.4463 -0.1582
89551W        W32464  23.223   8.226  25.302  0.0293 -0.1249  0.1163
89552W        W32465  10.378  11.336  11.021 -0.0108 -0.1534 -0.0722
89553W        W32466  16.270  20.195   4.311 -0.0090  0.1765  0.2516
89554W        W32467   9.835  10.652   0.800  0.1951 -0.0830 -0.5258
89555W        W32468   6.205  20.468  28.698  0.1202  0.2657 -0.0628
89556W        W32469  13.751  15.209  23.135 -0.0689  0.0694  0.0260
89557W        W32470  12.393  19.109   1.671 -0.0274 -0.0039  0.1025
89558W        W32471  14.513   6.784  24.614  0.0890  0.1250  0.0009
89559W        W32472   7.358  28.588   0.514  0.3311  0.1502 -0.0604
89560W        W32473  17.428  14.219  26.368  0.3226  0.3092  0.0372
89561W        W32474   2.956  16.989  26.953  0.0322 -0.1499 -0.3919
89562W        W32475   7.744   7.890  29.321 -0.0243  0.0575 -0.1246
89563W        W32476   6.785  33.217  27.070  0.0759  0.0495  0.0861
89564W        W32477   5.999   2.934   2.646  0.4404 -0.0420 -0.3299
89565W        W32478   2.433   5.682  28.327  0.2193  0.0022  0.1300
89566W        W32479   4.127   8.271  11.383 -0.0341  0.2640  0.1202
89567W        W32480  13.855   9.050   7.983 -0.1943 -0.0541 -0.1299
89568W        W32481   0.756   9.623   3.499  0.1234  0.0636  0.2441
89569W        W32482  16.214   8.533  26.954 -0.1725 -0.0631  0.0186
89570W        W32483  10.484   5.109  24.814  0.2321  0.0980 -0.0761
89571W        W32484  11.234   8.848   3.756 -0.1066  0.0954 -0.0782
89572W        W32485   2.505   5.804   9.419  0.1655 -0.1751  0.2037
89573W        W32486   9.472   6.263   3.346  0.0549 -0.0351  0.2378
89574W        W32487  22.641  14.710   6.582 -0.0740  0.4854 -0.3366
89575W        W32488  14.150   8.302  27.700  0.1379 -0.1586  0.0445
89576W        W32489  33.889   5.961   3.618  0.2066  0.2539 -0.0212
89577W        W32490  12.766  19.915  28.073 -0.0152  0.3552  0.3216
89578W        W32491  28.533  17.333   0.116  0.1559 -0.1969 -0.3222
89579W        W32492   9.409  16.235   8.689  0.1073 -0.0764  0.0317
89580W        W32493  17.433   6.348  21.590 -0.0908  0.1552 -0.0871
89581W        W32494  14.108   7.417   0.721  0.3379  0.1192 -0.1793
89582W        W32495   4.583   8.180   6.652  0.2585 -0.1984 -0.3453
89583W        W32496  13.659   4.115  28.758  0.1974 -0.1252 -0.1232
89584W        W32497   8.130  11.343   2.703 -0.0976 -0.0900  0.0273
89585W        W32498   8.407  13.616   5.215 -0.1835 -0.2924  0.1013
89586W        W32499  16.165   9.010   7.847 -0.0055  0.1188  0.1426
89587W        W32500  13.543   2.376  24.527  0.2664 -0.3097  0.2910
89588W        W32501   7.026  13.972   2.253 -0.0761 -0.2304  0.0800
89589W        W32502  22.425   4.625  23.080  0.0005 -0.0342  0.1036
89590W        W32503  14.047   9.913   3.745 -0.1142 -0.2588 -0.1173
89591W        W32504  12.115   6.469   9.297 -0.5160  0.2688 -0.0623
89592W        W32505  15.487  16.239   0.090 -0.0667 -0.2243  0.1164
89593W        W32506   7.738  30.763   9.130  0.0388 -0.1592 -0.0778
89594W        W32507  10.530   3.884   0.344  0.0595 -0.2268  0.2138
89595W        W32508  17.293  12.512  26.442  0.0207 -0.0462 -0.1058
89596W        W32509  13.555  15.049   1.221  0.1105  0.0419 -0.4041
89597W        W32510   3.465   8.008   2.151  0.2913  0.0156  0.2130
89598W        W32511  20.146   9.998  26.366 -0.1186  0.0740 -0.1117
89599W        W32512   9.125  15.882   3.118  0.0246 -0.1727 -0.2823
89600W        W32513  16.772   9.469   4.864  0.2292  0.1723  0.1518
89601W        W32514   8.192   4.976  29.717 -0.2557 -0.0536  0.1582
89602W        W32515   6.095  17.611   4.177 -0.0198 -0.3280  0.1462
89603W        W32516   7.710  14.418  26.673 -0.1259 -0.1326  0.2682
89604W        W32517  18.805   3.397  29.622  0.1084 -0.0434  0.3469
89605W        W32518  15.834  13.795   6.264  0.1054  0.0304  0.4076
89606W        W32519  10.924  22.474   2.592 -0.0184 -0.2263 -0.1014
89607W        W32520  15.848   8.051   0.095 -0.4776 -0.0064  0.1840
89608W        W32521  15.407  14.579   8.047 -0.0367 -0.1004  0.1468
89609W        W32522  18.058   8.876  20.419  0.0015 -0.0125  0.3729
89610W        W32523  18.779   4.651   4.101 -0.0691  0.0101  0.0339
89611W        W32524  13.396   4.979   5.988  0.0159  0.0734 -0.0156
89612W        W32525   3.329  10.672  29.646  0.0936  0.1128  0.1823
89613W        W32526   6.690   7.469   2.304  0.0476  0.1217  0.1570
89614W        W32527  16.827  15.295   1.702 -0.0398 -0.2621 -0.0233
89615W        W32528  20.621   7.793  28.690 -0.3043  0.1888 -0.1601
89616W        W32529   1.191  13.218  29.620  0.0900  0.2241  0.0551
89617W        W32530  18.655   7.514   6.187  0.2783 -0.1424 -0.3861
89618W        W32531   6.181  26.524  27.710 -0.2036 -0.0153 -0.0643
89619W        W32532  14.388  13.861   1.072 -0.1765 -0.0922  0.0710
89620W        W32533  14.586   8.360   4.254 -0.2104  0.0921 -0.2140
89621W        W32534  18.261  14.666   6.833  0.1388  0.1958 -0.0310
89622W        W32535  15.653  17.172  28.565  0.0015 -0.3750 -0.2108
89623W        W32536  13.381   7.698  25.528 -0.0043 -0.1199 -0.0470
89624W        W32537  26.839   8.662   0.967  0.1062  0.2367  0.1085
89625W        W32538   9.845   7.858   2.914  0.2724 -0.7165 -0.0352
89626W        W32539  15.689   8.101  28.331 -0.1235  0.1492 -0.2936
89627W        W32540  12.970  20.242   1.027  0.2990 -0.2884 -0.0143
89628W        W32541  20.871  33.242  18.496  0.0001 -0.2662  0.3036
89629W        W32542  13.892  31.659   0.045 -0.2785  0.1451 -0.1096
89630W        W32543   9.948  12.779  26.951 -0.0014  0.1679  0.1941
89631W        W32544   9.869  15.922  27.550  0.0219 -0.1065  0.3474
89632W        W32545  18.909  21.514   2.743  0.0672  0.0250 -0.0180
89633W        W32546  18.968   6.535   4.589  0.1842 -0.1576 -0.2412
89634W        W32547  16.087  12.927   2.020 -0.2906 -0.1337 -0.1587
89635W        W32548   8.154  33.533   4.691 -0.1216  0.1073  0.0177
89636W        W32549  19.058   1.122   8.294  0.0961  0.2550 -0.1790
89637W        W32550  19.230   9.732  26.223 -0.1808 -0.0674 -0.1755
89638W        W32551  11.101  18.135   1.290 -0.1239 -0.0513  0.0895
89639W        W32552  32.791  17.602  24.151 -0.3215  0.0252  0.0756
89640W        W32553   5.912   9.721   1.311 -0.0845  0.0751 -0.0767
89641W        W32554  13.651   7.437   0.285 -0.0504  0.0689 -0.1214
89642W        W32555   9.971   2.572   0.209  0.1071  0.1536 -0.0812
89643W        W32556  16.673  13.277  28.328  0.1089  0.3468  0.1410
89644W        W32557  17.882   0.885   6.915 -0.0918 -0.1662 -0.4472
89645W        W32558  14.792  10.407  21.452 -0.0430 -0.1466 -0.1120
89646W        W32559   5.336  30.579  24.861  0.0846  0.1453 -0.2779
89647W        W32560  15.617   2.309  17.693 -0.3333 -0.3707 -0.1564
89648W        W32561   6.377  14.711   6.136 -0.1174 -0.0601 -0.0949
89649W        W32562  16.778  10.764   5.176  0.0930  0.0943  0.2066
89650W        W32563  15.650   8.755   9.396  0.0034 -0.0470 -0.0876
89651W        W32564  17.271  17.158  28.103  0.1776 -0.0517 -0.1869
89652W        W32565   5.231  11.511   7.484 -0.0124 -0.3194 -0.0035
89653W        W32566  11.212   6.043  23.727 -0.1146 -0.1069  0.0835
89654W        W32567  21.096  11.073   2.524 -0.2653  0.1948 -0.2622
89655W        W32568  16.654  23.190   6.039  0.2065 -0.0276 -0.1572
89656W        W32569  11.757   3.484  27.473 -0.1044 -0.0975 -0.4180
89657W        W32570  13.620  12.798  24.405 -0.1001 -0.0646  0.1332
89658W        W32571  14.048  12.333   1.203  0.3256 -0.2701  0.1491
89659W        W32572  16.254   6.756   0.122  0.0410 -0.1470 -0.2811
89660W        W32573  15.290  30.605   2.314  0.1391  0.2180 -0.1216
89661W        W32574   4.475  12.741   3.467 -0.0825  0.0027  0.0994
89662W        W32575  18.893   8.560  28.007  0.0415 -0.1890 -0.0227
89663W        W32576  10.274  15.721  27.834 -0.1592 -0.1353 -0.0230
89664W        W32577  17.406  20.462  28.341 -0.1192 -0.2912 -0.2318
89665W        W32578  24.672  15.565  26.996  0.0540 -0.2105  0.0222
89666W        W32579  11.686  12.803   5.783 -0.3320  0.0141  0.0740
89667W        W32580  12.514  19.022  27.743  0.1292  0.0210 -0.1642
89668W        W32581  21.160  16.344  28.321  0.0347 -0.2400 -0.2161
89669W        W32582  13.334   0.196  22.100 -0.3005  0.2852 -0.0758
89670W        W32583  17.642   8.309  23.831 -0.2995  0.2610  0.1831
89671W        W32584   7.555   2.126  10.548 -0.0870 -0.0592  0.0755
89672W        W32585  14.868   2.284   0.107 -0.2381  0.0582 -0.0326
89673W        W32586   2.485  11.176   1.752 -0.2032  0.0392  0.0061
89674W        W32587  15.741   2.631   5.304 -0.3351 -0.1742  0.1442
89675W        W32588  15.684  11.590  24.560 -0.2615  0.3432  0.1621
89676W        W32589  12.147  33.389   7.167  0.1034 -0.0148 -0.0308
89677W        W32590  18.698  11.193   4.414  0.3154 -0.0601  0.0543
89678W        W32591  14.018   9.125  26.764 -0.0203  0.2552 -0.1795
89679W        W32592  15.039  10.232   0.988  0.0414 -0.1227 -0.1442
89680W        W32593  11.485  13.618  22.514  0.0771 -0.0080  0.2475
89681W        W32594  19.619  13.630   6.524  0.1067 -0.1374 -0.0142
89682W        W32595  14.041  12.310  27.747 -0.0509  0.0378 -0.1389
89683W        W32596  14.283  13.610   2.205 -0.1324  0.2345 -0.1121
89684W        W32597  29.194   5.867  16.906 -0.0252  0.3003 -0.0440
89685W        W32598   9.980   9.332   5.792  0.1304 -0.1205  0.0943
89686W        W32599   2.231   3.298  27.219  0.0358 -0.0688  0.2057
89687W        W32600  10.392   1.225   8.589 -0.1523 -0.1869 -0.4519
89688W        W32601  13.030  21.253  29.219  0.3026 -0.2174 -0.0360
89689W        W32602  13.819   9.508   5.487 -0.5465 -0.1623 -0.1879
89690W        W32603   1.666   9.714  28.368 -0.4211  0.1312  0.1033
89691W        W32604  12.463   3.774  25.632  0.0986  0.2212  0.0289
89692W        W32605   8.569  25.274   6.847  0.2159  0.0729 -0.2253
89693W        W32606  16.479  10.599   4.231 -0.0834 -0.1275 -0.1082
89694W        W32607  10.560  12.245  27.941 -0.3002 -0.0689  0.1825
89695W        W32608  12.068  18.868   8.335  0.1239 -0.0146 -0.1166
89696W        W32609   4.376   7.235   7.683 -0.0383 -0.1001  0.2425
89697W        W32610   1.199  19.467  20.072 -0.1672 -0.2735  0.0179
89698W        W32611  18.352  14.509   1.790 -0.2577  0.0150  0.2185
89699W        W32612  17.469   1.875   7.173 -0.2857 -0.0043 -0.0376
89700W        W32613  11.365  12.174   7.731  0.1133 -0.1266 -0.0330
89701W        W32614  13.025  17.743  28.732 -0.1477  0.0468  0.2261
89702W        W32615   2.115  13.998   2.386  0.0512  0.0710 -0.2283
89703W        W32616   3.527   9.244   9.288  0.3652 -0.0390 -0.1752
89704W        W32617  10.576  33.688  11.359 -0.1421  0.0233  0.1415
89705W        W32618   6.964   8.153  25.928  0.0064 -0.2028 -0.1992
89706W        W32619  15.989   9.028   4.358 -0.0275 -0.2119  0.0620
89707W        W32620  14.647  11.314   5.751  0.0946  0.2576 -0.0905
89708W        W32621  12.061  15.915   2.490 -0.0628 -0.0643 -0.1910
89709W        W32622   1.177   5.752   1.466 -0.1526  0.1695 -0.0390
89710W        W32623   9.525  15.085   7.952  0.1309 -0.2050  0.1240
89711W        W32624  11.250  26.201   9.156 -0.1478 -0.2413 -0.2157
89712W        W32625  11.606   9.288   4.467 -0.0499  0.1211 -0.2742
89713W        W32626   9.576  12.942   2.364  0.3719  0.2441 -0.2107
89714W        W32627  10.400  26.892  10.957 -0.1245  0.1995  0.1611
89715W        W32628  15.741  12.482  18.705  0.0870  0.2082  0.4151
89716W        W32629  22.989   2.658   1.635  0.1761 -0.0284 -0.1901
89717W        W32630  13.191  12.551  25.589 -0.2991  0.1695  0.1713
89718W        W32631  17.252  15.795   1.328 -0.0177  0.2672  0.0804
89719W        W32632  13.084   8.634   0.658 -0.1104 -0.0781 -0.0194
89720W        W32633   6.774  13.170  28.399  0.2183  0.0625 -0.2471
89721W        W32634  21.136  14.205   2.817  0.3202  0.3541  0.0521
89722W        W32635  12.205   5.475   0.776  0.3598  0.1500 -0.0457
89723W        W32636  33.428  18.325   8.144  0.0935  0.0689 -0.5994
89724W        W32637   3.650  22.037   5.182 -0.0419  0.0181  0.1205
89725W        W32638  15.853  17.006  24.454  0.1104 -0.0876 -0.0885
89726W        W32639  13.910  16.411  26.958  0.0760  0.1847 -0.0116
89727W        W32640   1.713   5.536  28.241  0.0367  0.1588 -0.0692
89728W        W32641  10.542   8.616   2.437  0.1233 -0.1012  0.0683
89729W        W32642   8.369   7.970  21.513 -0.0303 -0.0533  0.0658
89730W        W32643  14.354   4.541   4.163 -0.2232  0.1864  0.0196
89731W        W32644  13.035   8.296   9.912 -0.1550 -0.3204  0.1063
89732W        W32645   3.170  13.670   9.496  0.0813 -0.0236 -0.2306
89733W        W32646   1.131   3.752   2.107  0.0968 -0.0595 -0.1484
89734W        W32647   8.798  11.003   4.065  0.0562  0.1383 -0.1031
89735W        W32648  18.679  11.347   7.493  0.0509  0.0499  0.0459
89736W        W32649   7.637   2.714   5.075  0.0102 -0.1355 -0.0817
89737W        W32650   3.035   7.239  26.900 -0.1293 -0.1163 -0.0211
89738W        W32651  12.387  10.971   8.779 -0.1752 -0.1682 -0.0885
89739W        W32652   9.733   8.102  10.059  0.3266 -0.0178  0.0551
89740W        W32653  11.109  18.635   8.285  0.0804  0.1610  0.0187
89741W        W32654  12.584   7.898  24.460  0.2674  0.0030  0.4039
89742W        W32655   7.078   9.116   5.318 -0.0833  0.1881 -0.0995
89743W        W32656   5.704   3.461  26.758  0.2089  0.1957 -0.3721
89744W        W32657  23.891  19.210  23.469 -0.4103  0.2056 -0.1801
89745W        W32658  19.842   9.411   8.805  0.1947  0.4543  0.1393
89746W        W32659  14.777   3.903   0.254 -0.0009  0.1866  0.0179
89747W        W32660   4.623   3.345   9.838  0.3386 -0.0243  0.0566
89748W        W32661  12.202  32.695   3.626 -0.1243  0.1887  0.1734
89749W        W32662  16.581  15.262  23.111  0.1600 -0.0165  0.1743
89750W        W32663   7.815   6.250   0.433  0.0116 -0.0472  0.2720
89751W        W32664  16.027  14.006  17.955  0.1243 -0.0743  0.1497
89752W        W32665   6.891   4.723  25.215  0.0297  0.0994  0.0463
89753W        W32666   4.738  32.944  19.841  0.0531  0.3392  0.0215
89754W        W32667  17.934   3.471  23.320  0.3888 -0.2054 -0.2073
89755W        W32668  18.353  21.688   2.740  0.2019  0.1484 -0.1166
89756W        W32669  12.299  11.318   8.412 -0.0548 -0.0680  0.0172
89757W        W32670  14.483   2.389  25.662  0.0252 -0.0824  0.3734
89758W        W32671   7.525   7.581   0.662 -0.2036  0.2065 -0.1802
89759W        W32672  22.166   2.325   1.612 -0.1464 -0.1314  0.0583
89760W        W32673  21.605   5.472   0.445 -0.0194  0.0582 -0.1254
89761W        W32674   9.241   8.791  28.574  0.1610  0.0002  0.0799
89762W        W32675  13.679  14.964   7.951 -0.0298  0.1480  0.0998
89763W        W32676  16.291   2.141   3.704 -0.0585  0.1594  0.0144
89764W        W32677  16.808  12.054  28.014  0.2497  0.0212 -0.0584
89765W        W32678   2.476   6.801   4.746 -0.2440  0.0526 -0.2770
89766W        W32679  13.500   2.108   2.494 -0.0562  0.0563 -0.0938
89767W        W32680   7.777   8.595   0.631 -0.0267 -0.0917  0.2631
89768W        W32681  10.221   5.189   0.701  0.1625 -0.2750 -0.0041
89769W        W32682  21.826   9.551   5.431  0.1406 -0.0526 -0.1749
89770W        W32683  10.610   6.188   9.226  0.1915  0.2102  0.2409
89771W        W32684  13.846   8.165   3.724  0.1450  0.1508  0.2422
89772W        W32685  11.481  10.465  27.660  0.0551  0.3374  0.0688
89773W        W32686  13.146  15.461  28.277  0.0980  0.1620  0.2039
89774W        W32687  13.962  16.339  23.691  0.0775  0.0867  0.1233
89775W        W32688  20.526   7.444  28.295  0.2521 -0.0105  0.4382
89776W        W32689   5.845   7.752   4.683  0.0759 -0.3156 -0.0666
89777W        W32690  18.146   7.389   2.569 -0.3753 -0.0505  0.2189
89778W        W32691  26.194   2.982   0.027  0.1104 -0.0537 -0.0835
89779W        W32692  16.700  10.709  28.768  0.2597 -0.0698 -0.4369
89780W        W32693   6.623   8.744  25.540  0.1904  0.0901 -0.2073
89781W        W32694   1.919   7.973  27.348  0.2027  0.1736 -0.1110
89782W        W32695   2.216  11.904   6.475  0.1036  0.0081 -0.0396
89783W        W32696   9.630   6.511   6.877  0.3144  0.2308  0.1280
89784W        W32697  11.947  12.922  23.007  0.2278 -0.0487  0.0936
89785W        W32698   8.726   0.391   0.330 -0.2477 -0.2089 -0.0423
89786W        W32699  26.523  14.931   6.453 -0.0721 -0.0071 -0.1498
89787W        W32700  21.856  13.914   1.291 -0.2022 -0.0527  0.2071
89788W        W32701   5.289  29.474  26.845  0.0478 -0.5839 -0.3728
89789W        W32702   8.565  17.671   9.785  0.1279 -0.0783  0.0081
89790W        W32703  14.254  13.872  28.017 -0.0559  0.1145  0.2818
89791W        W32704  14.957   2.615   5.138  0.1115 -0.2685 -0.0321
89792W        W32705  10.507  16.539   5.952 -0.3769 -0.0806 -0.1114
89793W        W32706   1.902   5.410   5.277 -0.1735  0.1933  0.2300
89794W        W32707  12.947  12.754   3.154  0.1923 -0.0511 -0.1210
89795W        W32708  16.321   4.489   4.658  0.3440  0.0423 -0.1822
89796W        W32709  11.877   2.169  29.476 -0.1795  0.2020 -0.2594
89797W        W32710  13.012  11.580   1.046  0.2043  0.0012 -0.1559
89798W        W32711  18.563   8.019  29.142 -0.3184 -0.0995  0.1603
89799W        W32712   2.390   6.846  10.448  0.1041 -0.0482 -0.0223
89800W        W32713  11.404   5.214   4.779  0.0416 -0.1666 -0.2203
89801W        W32714  33.157  13.102   9.803  0.1256  0.0634  0.0460
89802W        W32715  19.736  10.568   8.869 -0.1401 -0.1340 -0.1118
89803W        W32716   9.659  12.971  22.625  0.1128 -0.0663  0.2151
89804W        W32717   7.844   8.305  29.108  0.1004 -0.1593 -0.1434
89805W        W32718  17.022   5.533   0.420  0.1101 -0.1699 -0.1851
89806W        W32719  20.999  28.176   3.044 -0.1883  0.1629 -0.2948
89807W        W32720  10.839  12.141  24.811 -0.1394 -0.1658 -0.0335
89808W        W32721   4.298  16.051  27.548 -0.0959 -0.4959 -0.0667
89809W        W32722  14.682  15.184  28.162 -0.1162  0.2107  0.2336
89810W        W32723   0.110   4.758   7.976  0.0297 -0.2319  0.0225
89811W        W32724   4.001  23.912  22.082  0.0279  0.0667  0.0790
89812W        W32725  13.224   8.890  29.212 -0.3147  0.2030 -0.2305
89813W        W32726   8.642  14.511  19.316 -0.1473  0.0580 -0.0112
89814W        W32727  14.852  11.275   6.666  0.0871 -0.0083 -0.0514
89815W        W32728  19.936   9.811  27.720  0.1666 -0.5812 -0.4937
89816W        W32729   5.729   5.011   6.557 -0.2957  0.0579  0.1406
89817W        W32730   4.659   6.878   7.175 -0.2756  0.0023  0.2236
89818W        W32731  13.865  13.490   5.710 -0.3141  0.1787 -0.1678
89819W        W32732  23.638  33.628   2.326  0.0121 -0.1413  0.0549
89820W        W32733  11.434  12.639   6.781 -0.1207  0.1774  0.0246
89821W        W32734  26.568   3.563  27.776 -0.1821 -0.2075  0.0314
89822W        W32735  19.800  19.789   2.074  0.2716  0.1117 -0.2284
89823W        W32736   8.076   8.048   8.665  0.0317  0.1582  0.2412
89824W        W32737   1.289   4.082  23.535 -0.0409  0.2531 -0.0264
89825W        W32738  17.479   2.344  29.251  0.3913 -0.4571 -0.0545
89826W        W32739  13.553   5.596   0.450  0.1781 -0.0719 -0.0798
89827W        W32740  14.747   4.335   5.359  0.1112 -0.2668 -0.0244
89828W        W32741  23.436  15.254  28.986 -0.3232 -0.0807 -0.3296
89829W        W32742  19.969  12.340   2.966 -0.2337  0.0351  0.0767
89830W        W32743   0.510  32.583   2.184  0.1239  0.1987 -0.0938
89831W        W32744  10.273   4.487  12.331  0.2786 -0.2163 -0.0634
89832W        W32745   6.691   4.421  25.819 -0.0365 -0.1311  0.0791
89833W        W32746  25.768  33.709   2.412  0.2153 -0.0008  0.0100
89834W        W32747  11.313  16.961   3.365 -0.2089 -0.2108 -0.0184
89835W        W32748  15.282  13.118   7.412 -0.0951  0.1626 -0.2700
89836W        W32749  13.102  16.921  22.924 -0.1367  0.0833  0.1063
89837W        W32750  11.196   7.438   1.452 -0.1260 -0.2036 -0.1820
89838W        W32751   6.314  31.487  11.618  0.0190 -0.1328  0.0332
89839W        W32752  21.396   9.762   0.452 -0.0579 -0.0766  0.1191
89840W        W32753  18.810  11.133  23.804  0.3908  0.0727  0.1382
89841W        W32754  10.231   8.369   4.980 -0.2342  0.0965 -0.1226
89842W        W32755   9.187   1.370   9.870 -0.1759 -0.1330  0.1641
89843W        W32756   9.055   3.037  21.603  0.0934  0.0609  0.1627
89844W        W32757   6.268  23.152  26.019 -0.1594  0.3159 -0.0297
89845W        W32758  22.901   7.364   3.984 -0.2998 -0.0036  0.0501
89846W        W32759   7.930  29.067  28.685  0.3505  0.0914  0.3785
89847W        W32760  22.995  16.538   3.921  0.1568 -0.0059 -0.2084
89848W        W32761  16.797   7.934  18.095  0.0905 -0.0848  0.1742
89849W        W32762   7.362   8.827   8.526  0.3839  0.0245 -0.2541
89850W        W32763  10.833  13.614  26.861  0.1072  0.1874  0.2238
89851W        W32764   2.731   1.443   6.345 -0.3369 -0.0982  0.1465
89852W        W32765  11.081   6.247  21.100  0.1584 -0.0358 -0.0359
89853W        W32766  14.616  15.576  25.784 -0.4256 -0.1910  0.1049
89854W        W32767  11.407  11.546   5.886 -0.1437 -0.0773  0.0845
89855W        W32768  12.665  32.704   9.974  0.1190 -0.1540  0.0396
89856W        W32769  23.390  19.018  26.069 -0.2099  0.2405 -0.1778
89857W        W32770  13.186   8.375   7.060  0.1629 -0.0451 -0.2454
89858W        W32771  17.535  12.222  24.364  0.0734  0.1198 -0.1651
89859W        W32772  13.622   9.587  28.069  0.0816 -0.1308  0.0218
89860W        W32773  22.041   2.802   8.963  0.1348 -0.2934 -0.4048
89861W        W32774  10.888   8.609  27.493 -0.0985  0.2558 -0.2399
89862W        W32775  12.697   9.889   4.792  0.0099 -0.1776 -0.2062
89863W        W32776  10.087   7.314   6.618  0.0836  0.2559  0.2211
89864W        W32777  10.432  13.665   1.947 -0.1055 -0.3239 -0.1328
89865W        W32778  15.817   5.770  29.257 -0.0968  0.1029 -0.0410
89866W        W32779  13.505   0.504   4.140  0.1834 -0.2192  0.3945
89867W        W32780  12.996   2.302  24.875  0.0437 -0.0303 -0.1485
89868W        W32781   7.853  25.932   9.722 -0.1102  0.0724  0.1820
89869W        W32782  14.498   2.260   3.193 -0.0275  0.2315  0.1030
89870W        W32783   8.981   1.248  13.050 -0.1876 -0.0901  0.2037
89871W        W32784  13.678   9.120   2.584  0.2420 -0.2312  0.0180
89872W        W32785  20.290  17.421  28.297 -0.1374  0.0325  0.0870
89873W        W32786   7.761  11.325   3.056 -0.2065  0.0919  0.1833
89874W        W32787   1.462   5.605   6.608  0.1834  0.2869  0.2291
89875W        W32788  17.378   9.491  24.163 -0.0180 -0.1160  0.2021
89876W        W32789  25.055  26.329   6.426 -0.1432 -0.0224  0.1815
89877W        W32790  14.308  11.551   2.320 -0.1714 -0.0439 -0.1449
89878W        W32791  19.937  13.258   6.129  0.0628  0.3325 -0.2373
89879W        W32792   3.719  15.230  25.773 -0.1291  0.0616  0.0369
89880W        W32793   7.575  11.694  11.040 -0.0661  0.0873  0.1440
89881W        W32794  23.070  13.173   4.003  0.2337 -0.0294  0.1347
89882W        W32795  15.062   0.244   5.403 -0.1889 -0.0654 -0.0130
89883W        W32796  22.946   0.313   8.729 -0.0446  0.2973 -0.1394
89884W        W32797   5.133   5.286   4.822  0.1182  0.3272  0.2599
89885W        W32798  17.194  13.058   1.331  0.2567  0.0632 -0.0707
89886W        W32799   8.694   0.821  24.145 -0.3216 -0.0657  0.0278
89887W        W32800   6.101  10.691  21.766 -0.2293 -0.1275 -0.2368
89888W        W32801   4.686   3.280  28.464 -0.1556 -0.1243 -0.0385
89889W        W32802  12.239   2.204  25.673 -0.0276 -0.0517 -0.0698
89890W        W32803  17.628  15.561  26.109 -0.1007  0.0095 -0.1542
89891W        W32804  15.277   9.689   2.746  0.1322  0.0681  0.0251
89892W        W32805  17.478   5.857   4.509  0.0744 -0.1850  0.0955
89893W        W32806  20.634   5.617  28.115  0.1177  0.3169 -0.3775
89894W        W32807   4.159   8.660  26.922 -0.0336  0.0544 -0.2081
89895W        W32808   5.138  19.924  24.058 -0.3575 -0.0648  0.4114
89896W        W32809  21.468  14.607   4.415  0.0769 -0.2355  0.1828
89897W        W32810  11.965  15.573   6.582 -0.1345  0.2242  0.1084
89898W        W32811  18.195   0.995   5.547 -0.1785  0.1387  0.1178
89899W        W32812   6.382  16.301   2.317 -0.0369  0.0498 -0.2323
89900W        W32813  15.550  11.456   2.921  0.1181 -0.1490  0.1525
89901W        W32814   7.388   6.476  12.225 -0.0579  0.1641  0.2030
89902W        W32815  18.878  12.889   6.753  0.0667 -0.1911 -0.0266
89903W        W32816   9.748  15.403   8.294  0.2685  0.1270  0.1328
89904W        W32817  16.719   9.916   7.941  0.3108 -0.0619 -0.2212
89905W        W32818  12.840  18.115  27.243 -0.0569  0.1578  0.2651
89906W        W32819  24.541   6.286  23.156  0.0492 -0.3367 -0.1226
89907W        W32820  18.038  11.649   4.050  0.3247  0.0143  0.0370
89908W        W32821  15.666  18.458  27.573 -0.1133 -0.0440 -0.1313
89909W        W32822   9.091  11.811  27.878  0.2070 -0.1807  0.2548
89910W        W32823   7.372  23.634   4.801  0.0798 -0.0627 -0.4399
89911W        W32824  14.023   7.708   7.156 -0.1819 -0.1403 -0.1142
89912W        W32825  19.857   6.824   9.156 -0.0003  0.1935 -0.2262
89913W        W32826   8.072   3.860  28.952 -0.4152 -0.1299 -0.2310
89914W        W32827   8.911  33.423  10.574 -0.1330 -0.3047  0.2288
89915W        W32828   2.411   1.739   4.102 -0.3086 -0.0698  0.1194
89916W        W32829  11.968  16.517   4.929 -0.2270 -0.0008 -0.0145
89917W        W32830  10.993   3.612  22.434  0.5124 -0.1025  0.2995
89918W        W32831   9.521  17.600   8.047 -0.2667 -0.0004  0.2791
89919W        W32832  30.974  31.914   3.550 -0.0748 -0.5542  0.0671
89920W        W32833   2.524  33.430   7.322 -0.2415  0.1100 -0.1251
89921W        W32834   3.916   5.564  23.893  0.0499  0.2383 -0.0919
89922W        W32835   6.887  12.631   4.606  0.1237 -0.1462 -0.0745
89923W        W32836  13.354   7.795  27.834  0.1043  0.1426 -0.1352
89924W        W32837  14.184   7.059  23.097  0.1331 -0.0067  0.1061
89925W        W32838  12.441  29.298   6.640  0.0831  0.1047  0.3239
89926W        W32839   9.677   4.526   5.928  0.2060 -0.1457  0.2040
89927W        W32840  19.263   3.820  27.785  0.2721  0.0799 -0.1267
89928W        W32841  20.678  19.265   6.175  0.0727 -0.0895  0.2822
89929W        W32842  17.836  10.475  24.575  0.2932  0.0234  0.0800
89930W        W32843  19.154   7.631  18.945  0.3842  0.1756 -0.0594
89931W        W32844  13.032   8.081   4.139 -0.0037  0.4971  0.4058
89932W        W32845  15.140  33.207  10.042  0.0372 -0.1293  0.1675
89933W        W32846   4.470   7.971   5.007  0.1009  0.0389  0.1227
89934W        W32847   8.478   9.332  27.120  0.1332  0.0774 -0.0334
89935W        W32848  10.368  32.564  10.318 -0.3016 -0.1420  0.1788
89936W        W32849  17.456   1.353   0.420  0.1319 -0.2084 -0.4410
89937W        W32850  17.407   8.072   6.171  0.0115  0.2468  0.4154
89938W        W32851  19.752  15.456   4.193 -0.1045 -0.2069  0.3168
89939W        W32852   3.398   6.185   4.569 -0.0715  0.1429  0.3783
89940W        W32853  12.699   0.323   1.572 -0.1182  0.1366 -0.0614
89941W        W32854  10.649  18.720   7.635  0.2896 -0.1673 -0.2865
89942W        W32855   9.490   7.705   5.189  0.2975 -0.2204 -0.1034
89943W        W32856  15.868  14.254   2.054 -0.0327 -0.0040 -0.1394
89944W        W32857  30.259   2.662   7.895 -0.3336  0.0404  0.1776
89945W        W32858  17.419  21.118   4.550  0.0680 -0.0659  0.1097
89946W        W32859  11.072   7.180   5.531 -0.1539  0.1143  0.0570
89947W        W32860   4.429   5.146   6.088  0.1156  0.1790 -0.0211
89948W        W32861   1.897  34.217   6.299  0.0583 -0.5222 -0.1257
89949W        W32862   7.513  11.446  29.304  0.0156 -0.0442 -0.0148
89950W        W32863  10.849   8.757   5.655  0.0097 -0.0588  0.1161
89951W        W32864   8.992  32.471   8.389  0.0464  0.0084 -0.3044
89952W        W32865  15.921  12.363   3.621  0.0285 -0.3260 -0.0643
89953W        W32866  12.205   6.718   7.435 -0.0240 -0.0338 -0.2924
89954W        W32867  14.426   6.472   5.969 -0.0741 -0.1427  0.0830
89955W        W32868  16.053   3.585  28.394 -0.0017  0.0422 -0.4094
89956W        W32869   7.321   5.096   1.022 -0.1090 -0.0322  0.0058
89957W        W32870  10.168  33.339   8.353 -0.0368 -0.1549  0.2288
89958W        W32871  16.278  18.718   8.249 -0.1986  0.0726  0.1672
89959W        W32872   0.167   3.110   3.770  0.1246  0.3631 -0.1724
89960W        W32873  15.571  28.738   1.368 -0.2305 -0.1524 -0.3832
89961W        W32874  17.388  13.990   2.027 -0.0525 -0.0765 -0.1791
89962W        W32875   6.190  21.100  10.210 -0.1614  0.2339  0.3152
89963W        W32876   8.580   3.637  10.088 -0.1727 -0.0646 -0.2304
89964W        W32877  10.314   9.092  10.801  0.0439  0.4907  0.0228
89965W        W32878  14.110   1.080  11.982 -0.1607 -0.0137 -0.3198
89966W        W32879  12.030   7.857   8.228 -0.0272  0.0291  0.0496
89967W        W32880  10.385  12.166   8.227  0.0758  0.2333 -0.0514
89968W        W32881   6.248   1.177  12.638 -0.1484  0.1087  0.0000
89969W        W32882  21.122  16.165   8.113 -0.1542 -0.1770 -0.3605
89970W        W32883  14.348  11.419   6.526 -0.5627  0.2909  0.1182
89971W        W32884  13.435  24.751   6.728 -0.4678  0.0318 -0.0850
89972W        W32885   4.294   7.565   0.679  0.0105 -0.0438 -0.1799
89973W        W32886   5.799   7.818  12.738  0.2574 -0.3387  0.3178
89974W        W32887  13.660  18.581   5.721  0.0562 -0.0230  0.4741
89975W        W32888   8.971  17.670   5.055  0.1398 -0.1315  0.1438
89976W        W32889  12.554  11.776   7.207 -0.1639 -0.1341 -0.0069
89977W        W32890   8.095  11.469  29.482 -0.0249  0.0550 -0.1187
89978W        W32891   9.765  11.976   2.516 -0.1207  0.3435 -0.0413
89979W        W32892   8.324   0.562   6.304  0.1242 -0.0216  0.0087
89980W        W32893   9.045  11.447   2.461 -0.1395  0.1001  0.0888
89981W        W32894  12.939  12.346  29.101  0.0783  0.0399  0.4681
89982W        W32895  10.595  32.743   3.103 -0.1950 -0.1104  0.1152
89983W        W32896  14.935  12.084   6.237 -0.3530  0.2042 -0.0390
89984W        W32897  18.264  17.163  28.336 -0.1119  0.3301 -0.0459
89985W        W32898  15.095  15.630   4.855 -0.2410 -0.1365 -0.0454
89986W        W32899  12.270  10.116  24.748 -0.0836 -0.0277  0.2762
89987W        W32900  11.025  20.624   5.863  0.3133  0.1730  0.0225
89988W        W32901  15.437   9.538   8.862 -0.0391 -0.1164 -0.2604
89989W        W32902  12.153  10.554   1.648  0.1316  0.5346  0.1288
89990W        W32903  14.827  11.493   8.455  0.0184  0.1815 -0.0143
89991W        W32904   9.697  33.830   3.029 -0.0396 -0.0753 -0.0752
89992W        W32905  15.713   5.995   7.659 -0.3937 -0.2656 -0.1590
89993W        W32906   6.156  20.142  28.274  0.1969 -0.2121  0.1305
89994W        W32907  11.127  13.331  22.590  0.1208 -0.1620 -0.0955
89995W        W32908   9.983   9.785   5.551 -0.1555 -0.0845 -0.2129
89996W        W32909  19.397   2.498   1.766 -0.0335 -0.1758  0.3868
89997W        W32910  17.406  17.262  26.228 -0.0787 -0.3028  0.0558
89998W        W32911  15.232   5.082  10.229  0.1193 -0.1292  0.2153
89999W        W32912   9.129   2.058   8.417 -0.0212  0.1112 -0.0101
90000W        W32913  12.560  21.962   4.027 -0.1360  0.0389  0.1318
90001W        W32914  15.078   5.172  21.501  0.0401 -0.0236  0.0764
90002W        W32915  15.726   6.782   7.760  0.2534  0.2604 -0.0190
90003W        W32916   7.058   4.466   6.794  0.2164  0.0234  0.1235
90004W        W32917  17.457   2.966   6.111 -0.0128  0.0426  0.0443
90005W        W32918  11.263  11.745   8.084 -0.0428 -0.1961 -0.1856
90006W        W32919  10.115  13.367   5.326 -0.1918  0.3693 -0.0461
90007W        W32920  17.824  21.670   5.311  0.2178 -0.1476 -0.0155
90008W        W32921   2.937  30.620   5.547 -0.2757  0.1704  0.1978
90009W        W32922  15.215  11.154   7.408 -0.0837  0.0486 -0.2188
90010W        W32923  18.494  34.492   9.315 -0.0270 -0.2301 -0.1081
90011W        W32924  17.583  14.894  29.475  0.1237  0.0414  0.2344
90012W        W32925  13.588  14.472   4.207  0.0707 -0.2941 -0.0127
90013W        W32926  13.229   1.368  12.179  0.0449  0.0178 -0.1203
90014W        W32927  17.505   3.007  10.549  0.1746  0.1145  0.0718
90015W        W32928   8.425   4.014   5.863  0.0607  0.0084 -0.1708
90016W        W32929   7.813   4.235   7.460 -0.0146 -0.3769  0.1062
90017W        W32930  13.778  18.066  20.439  0.0555 -0.1815  0.0423
90018W        W32931  21.422  12.480  22.506  0.0212 -0.0636 -0.0992
90019W        W32932   7.115  11.492   2.503 -0.3462  0.0551 -0.2523
90020W        W32933  13.093   5.972   2.839 -0.1826  0.1875  0.0898
90021W        W32934   2.113  15.623  24.154 -0.1282 -0.1855 -0.0836
90022W        W32935   7.510   8.473   8.244 -0.2138 -0.0371 -0.0100
90023W        W32936   7.180   4.244   7.526  0.1979 -0.0316 -0.2907
90024W        W32937  16.026   9.554   0.346  0.0557  0.0541  0.1767
90025W        W32938  12.716  12.143   6.709 -0.1714 -0.3236 -0.4364
90026W        W32939  20.031   9.355   6.666  0.0724  0.0202 -0.0256
90027W        W32940  16.731  12.165  26.348  0.1593  0.0108 -0.2481
90028W        W32941  11.326  11.946   5.450  0.1547  0.0167  0.0875
90029W        W32942  11.477   6.652  29.110  0.0014 -0.1610  0.0483
90030W        W32943  22.843  14.400  29.218 -0.2537  0.0243 -0.0558
90031W        W32944  17.360  10.083   2.985 -0.0505  0.0020  0.2093
90032W        W32945   6.152   5.133   8.292 -0.1818  0.0090 -0.4292
90033W        W32946   1.182  11.861   7.728  0.2243  0.2106 -0.3771
90034W        W32947   8.843   3.880  12.213  0.0266  0.1979 -0.3098
90035W        W32948  15.618   7.768   2.429  0.1652 -0.0398  0.2794
90036W        W32949   6.320  31.403   7.204 -0.2281 -0.1387 -0.1867
90037W        W32950   4.021  19.787   9.011  0.0851 -0.1279  0.2396
90038W        W32951  24.071   6.919   1.218 -0.0123 -0.0763  0.1600
90039W        W32952   4.833   3.734   8.575 -0.1204  0.0970 -0.2464
90040W        W32953  15.297   8.674   2.676 -0.0538 -0.2596  0.1398
90041W        W32954  15.765  20.125   4.086  0.0036 -0.4200  0.1623
90042W        W32955   8.573   1.394  29.327  0.1077  0.2486 -0.1216
90043W        W32956  16.242   3.626   4.628 -0.1255  0.0852 -0.1370
90044W        W32957   6.770   7.815   1.364 -0.0626  0.1410  0.0424
90045W        W32958   9.089  32.860  29.610 -0.1772 -0.2063  0.1902
90046W        W32959  14.665  17.676   0.621 -0.0856 -0.1043  0.1977
90047W        W32960  10.945   4.863   4.584  0.3849 -0.0012 -0.2217
90048W        W32961  15.045  18.749   8.881  0.0462 -0.0364  0.4287
90049W        W32962  23.315   0.085   0.933  0.0859  0.1746  0.0627
90050W        W32963  13.829  12.463   6.986  0.0773 -0.3662 -0.0463
90051W        W32964  12.006   8.955   5.183 -0.2465 -0.0857 -0.1179
90052W        W32965   8.410   6.089  12.548  0.0568 -0.0188  0.1461
90053W        W32966   5.935   9.709   9.334 -0.0780  0.4752 -0.1880
90054W        W32967  12.493   7.907   5.170  0.1606 -0.1601 -0.1290
90055W        W32968  13.117  33.226  24.170  0.2671  0.1115  0.0237
90056W        W32969  11.883   6.399  10.045  0.0076 -0.1387 -0.1047
90057W        W32970  11.572   9.917  24.870  0.2107 -0.1666  0.1472
90058W        W32971  16.055  14.036  29.049 -0.0349 -0.3676  0.0919
90059W        W32972  16.263  18.731   3.054 -0.0539 -0.0180  0.0447
90060W        W32973  13.285   9.958   5.727 -0.0212  0.3647 -0.1238
90061W        W32974  16.174   7.736   7.703  0.2570  0.0623 -0.0045
90062W        W32975   4.071   0.828  26.976  0.0458 -0.1475 -0.0478
90063W        W32976  11.552   5.005   0.425  0.1945  0.1133  0.3899
90064W        W32977   2.641  17.824   9.714  0.0396  0.1197  0.1466
90065W        W32978   9.791  10.256   8.099  0.0741 -0.0338  0.4709
90066W        W32979  26.054   9.313   1.280 -0.1636  0.2469 -0.0166
90067W        W32980  13.736   7.454   6.234 -0.0132  0.0219  0.1776
90068W        W32981  19.241   7.093  19.234 -0.1076  0.0079  0.3203
90069W        W32982  12.930  11.598   1.566  0.2792 -0.2318 -0.3516
90070W        W32983  13.498  25.713   6.584  0.0194 -0.0477 -0.0962
90071W        W32984   0.549   8.927   9.650 -0.2056  0.1720 -0.0079
90072W        W32985  13.252  21.981  27.620 -0.1278  0.0049  0.0262
90073W        W32986  24.683  12.536  27.977 -0.0919 -0.0256 -0.0311
90074W        W32987   3.656   4.630  12.162  0.2062  0.1394 -0.1189
90075W        W32988  13.046   0.138   6.630  0.4295 -0.2978 -0.0278
90076W        W32989  10.150   8.665  10.574  0.1072 -0.3738 -0.1364
90077W        W32990   7.774  14.381   9.339 -0.4449  0.0894  0.3862
90078W        W32991  11.852   6.400   4.668  0.1400  0.2607  0.1276
90079W        W32992  15.347   4.677  10.954 -0.1250  0.2209 -0.0680
90080W        W32993  11.952  11.769   3.518  0.5882  0.1827  0.0256
90081W        W32994  19.004   5.178   9.765 -0.0228  0.1259  0.4110
90082W        W32995  12.114  15.991   4.532  0.2211  0.0177 -0.1216
90083W        W32996  16.048  29.310  10.730 -0.2200 -0.2202 -0.1406
90084W        W32997  14.943  28.241   7.059  0.2187  0.1025 -0.1082
90085W        W32998  11.348  15.908   1.184 -0.1801 -0.0448  0.3299
90086W        W32999  15.716  17.107  27.548 -0.3913  0.0866 -0.1210
90087W        W33000   8.134  10.200   1.314  0.0896 -0.0593 -0.0632
90088W        W33001  15.570  20.089   7.504 -0.1270 -0.2586  0.5436
90089W        W33002  16.477  14.110   5.137  0.2011 -0.3792 -0.2242
90090W        W33003  14.075   4.139   8.706 -0.0603 -0.0308  0.2868
90091W        W33004   6.911  14.776   9.595  0.1619  0.0069  0.1987
90092W        W33005   8.571  14.793   7.814 -0.1402  0.2955  0.0565
90093W        W33006   8.451  14.398   5.523  0.1849  0.0514  0.0352
90094W        W33007  12.928   4.847  26.383  0.1340 -0.1748  0.0268
90095W        W33008   9.359  10.125   7.120  0.1172  0.2122  0.0675
90096W        W33009   9.407  10.215  11.075  0.3765  0.0867  0.4945
90097W        W33010  12.331  15.497   3.427 -0.0329  0.0479  0.1848
90098W        W33011  12.603  14.407   1.322  0.2323  0.1020 -0.0611
90099W        W33012  15.696   1.907   7.309 -0.1832 -0.1931  0.1130
90100W        W33013  12.226  15.382   7.003 -0.1833 -0.0862 -0.0014
90101W        W33014  19.914  14.433   8.194  0.2735 -0.3079 -0.2365
90102W        W33015  23.575   3.017  27.515  0.1350  0.0591 -0.0182
90103W        W33016  18.870  10.556   4.404  0.2455  0.1159 -0.2876
90104W        W33017  17.089   8.414   1.955  0.0390 -0.1429 -0.2602
90105W        W33018  14.927  17.897   6.358 -0.0796 -0.3682 -0.0282
90106W        W33019   8.290  33.263  11.068 -0.2077  0.1643 -0.1471
90107W        W33020   3.800  13.345  10.198 -0.1829 -0.0622 -0.1666
90108W        W33021  32.178   8.596  10.547 -0.1571  0.1716  0.3398
90109W        W33022   9.308  15.477   5.785  0.0583  0.1703 -0.0227
90110W        W33023  14.084  14.382  22.411  0.3133  0.0940 -0.2390
90111W        W33024   8.206   7.716  12.344  0.1494 -0.1935  0.2604
90112W        W33025  28.512  15.470  29.726  0.0825 -0.2862 -0.2191
90113W        W33026   8.991  32.200   4.644  0.1932 -0.2522  0.0636
90114W        W33027  14.445   0.003   6.143 -0.1347 -0.2993 -0.1315
90115W        W33028  13.782  14.447  19.329  0.1636 -0.1825 -0.0353
90116W        W33029   6.865  13.879   9.936  0.3355 -0.0949 -0.1377
90117W        W33030  15.423  16.733  22.720 -0.2777 -0.0435  0.0319
90118W        W33031   8.678   4.278  13.965  0.2046  0.3037  0.1609
90119W        W33032   2.117   6.790  27.079  0.1273 -0.0737 -0.0271
90120W        W33033   5.272   8.204   1.328  0.1658 -0.2090 -0.2007
90121W        W33034  17.634  13.563   7.861 -0.2616 -0.4495 -0.4550
90122W        W33035  13.718  11.929   6.738 -0.0831 -0.0200  0.1597
90123W        W33036  12.647  14.011   0.129  0.0871 -0.2186  0.2118
90124W        W33037   9.727   6.936   0.986 -0.1800 -0.2000 -0.0132
90125W        W33038  13.511  14.725   7.433  0.0762  0.0360 -0.0921
90126W        W33039  13.679  16.747   8.043  0.1820 -0.0759  0.1525
90127W        W33040  10.528   3.673   4.956 -0.0338  0.1475  0.2451
90128W        W33041  14.163   9.960  27.304 -0.0257  0.0476  0.2716
90129W        W33042   7.705   9.870   3.438  0.0845  0.2154  0.3717
90130W        W33043  10.470  33.468  27.969  0.1929  0.2030  0.1844
90131W        W33044   8.116  18.680   2.719 -0.0813  0.2604  0.1885
90132W        W33045  14.155  11.575  27.258  0.2594 -0.0015  0.4492
90133W        W33046  21.674  14.580   0.605  0.0495  0.1296  0.2035
90134W        W33047  18.216  12.631   2.120 -0.2748  0.0366  0.5392
90135W        W33048   2.144  32.197   9.612  0.1552 -0.0921  0.3031
90136W        W33049   3.212   3.771   2.752  0.1113 -0.1724 -0.2308
90137W        W33050  14.659  18.237   3.405 -0.5396 -0.0929  0.2277
90138W        W33051   5.067  30.013   8.262 -0.1216 -0.1958  0.0376
90139W        W33052  11.676  11.531  10.001 -0.1942 -0.0244 -0.1825
90140W        W33053  12.504   9.588   8.336  0.2003  0.1455  0.2786
90141W        W33054  17.835   2.460   0.473  0.1533  0.0809  0.3725
90142W        W33055  15.788  13.498   8.534 -0.2150  0.2561 -0.0990
90143W        W33056   6.482  17.812   9.400 -0.0673  0.3518  0.0133
90144W        W33057  19.580   3.775   0.976 -0.1798  0.1741 -0.2660
90145W        W33058  20.399  30.470   5.490 -0.3134  0.0882 -0.2522
90146W        W33059   4.566   6.147  27.743  0.1546  0.0476 -0.1717
90147W        W33060   7.671   8.783  11.857 -0.1787  0.0222 -0.0461
90148W        W33061   7.697  33.836  10.813 -0.2151  0.1912 -0.0745
90149W        W33062  10.761  20.916   8.807  0.0510 -0.0891 -0.1066
90150W        W33063  13.624   7.720   4.577  0.0690  0.2144 -0.2357
90151W        W33064   5.748   7.142  10.345 -0.0933 -0.1144 -0.1088
90152W        W33065  10.274   4.949   3.986  0.0387  0.0576  0.0535
90153W        W33066   4.769  33.784   3.771  0.0019 -0.0822  0.1242
90154W        W33067   7.036  33.448  26.695 -0.2099  0.1611  0.4165
90155W        W33068   9.072   9.326   8.345  0.1778 -0.0597  0.0792
90156W        W33069   5.653   8.998   8.539 -0.3341  0.2371 -0.0998
90157W        W33070  11.332  29.281   3.997  0.1353  0.1638  0.1024
90158W        W33071  19.619   3.215   8.941 -0.1116  0.0108  0.0192
90159W        W33072   2.955   9.319   0.971  0.0564  0.0743  0.2481
90160W        W33073  13.462  10.384   5.521 -0.2079 -0.0871 -0.2099
90161W        W33074  18.956   1.916  28.920 -0.1823  0.0099  0.3930
90162W        W33075  17.538  13.625   8.506  0.0080  0.1586 -0.2389
90163W        W33076   6.529  28.665  11.253  0.1524 -0.2716  0.2454
90164W        W33077  18.243   7.210   6.903  0.0935 -0.3129 -0.0432
90165W        W33078  17.265  33.793   8.353  0.1562  0.1490 -0.1363
90166W        W33079   8.978   9.223  28.740 -0.0085  0.1778 -0.1290
90167W        W33080  16.060  20.457   3.835 -0.0723  0.0478 -0.1669
90168W        W33081  15.993   9.604  29.263 -0.0685  0.0538 -0.1682
90169W        W33082   3.485   3.651   4.936 -0.3080 -0.1830 -0.3750
90170W        W33083  12.248  10.903   9.682 -0.0055  0.2411  0.0093
90171W        W33084   8.397  14.834   3.221 -0.1582 -0.1469 -0.1161
90172W        W33085  13.807   7.091   8.256 -0.1677 -0.0621 -0.0714
90173W        W33086   6.257   1.049   2.180  0.0453  0.1529 -0.3808
90174W        W33087  15.111  16.518  28.611  0.4020  0.1569  0.2549
90175W        W33088   5.437   7.410   6.450  0.3765 -0.2567 -0.0213
90176W        W33089  13.944   9.193  25.822 -0.0122  0.0161  0.2561
90177W        W33090   6.455   7.125  11.419 -0.0210  0.1673 -0.0152
90178W        W33091   7.881   0.034   1.580 -0.0375 -0.1502 -0.0741
90179W        W33092  14.346   4.943   7.090 -0.1599 -0.4600 -0.0929
90180W        W33093  13.517  15.434  29.117  0.0568 -0.0114 -0.1547
90181W        W33094  12.669   7.762   2.802  0.1146 -0.2697 -0.0925
90182W        W33095  30.408  15.068   6.086 -0.2311  0.2815 -0.1362
90183W        W33096  13.102  12.021   3.648 -0.1688 -0.1350  0.1324
90184W        W33097   3.776   5.944   4.805  0.0943 -0.2728 -0.0700
90185W        W33098  10.693  15.851   7.291 -0.1548  0.2403  0.0482
90186W        W33099  16.054  11.725   1.442  0.3609  0.1322 -0.4586
90187W        W33100  18.529   3.986   2.944  0.0505  0.0157  0.0804
90188W        W33101  16.129   6.829  10.334 -0.1036 -0.0191 -0.3201
90189W        W33102   5.473   3.985  11.623  0.4133  0.1039 -0.0007
90190W        W33103   2.470   2.859  27.133  0.1766  0.1782  0.0457
90191W        W33104  13.561  29.534   6.161 -0.1767  0.0223 -0.4557
90192W        W33105   9.676   8.996   9.112  0.0475  0.3370 -0.1004
90193W        W33106  14.480   7.502   7.434 -0.0898 -0.0165  0.0280
90194W        W33107   4.067   0.885   2.969 -0.3312  0.0086 -0.1687
90195W        W33108   9.400   5.975   9.221  0.2442 -0.0815 -0.0667
90196W        W33109   5.609  15.896   2.890 -0.1887 -0.2249  0.2455
90197W        W33110  11.837  33.707   9.965 -0.0171  0.0221  0.0835
90198W        W33111   4.830   6.866   6.001  0.1138 -0.0525 -0.1467
90199W        W33112   1.085  12.501   9.832  0.0250  0.1893 -0.0137
90200W        W33113   9.467  10.424  24.683  0.2624 -0.0691 -0.2054
90201W        W33114  12.127  11.409   9.756 -0.0506  0.0509  0.2273
90202W        W33115   8.675   4.820   3.982  0.1728  0.0080 -0.1787
90203W        W33116   7.299  17.836   3.874 -0.1752 -0.0827  0.0321
90204W        W33117  17.162  16.328   5.062  0.2027 -0.2600 -0.1969
90205W        W33118  32.189   7.480  28.906  0.0104  0.0609 -0.2958
90206W        W33119  15.355  10.702   5.055  0.1611  0.2167 -0.1971
90207W        W33120  11.919  18.822   6.607  0.2070  0.1593 -0.0105
90208W        W33121  23.261  26.426   6.420 -0.1724  0.2010 -0.0311
90209W        W33122  14.085  12.541  24.511 -0.0827  0.1675  0.2676
90210W        W33123   5.961  12.218   8.990  0.4779  0.0111 -0.0544
90211W        W33124  19.418   5.822   8.662 -0.2381 -0.0816  0.2775
90212W        W33125   9.293   6.838   7.513 -0.4586  0.3597 -0.2954
90213W        W33126  18.905  17.538   7.085  0.3655  0.0183 -0.2143
90214W        W33127   5.792   8.479  25.457  0.0785 -0.2379  0.2182
90215W        W33128   9.365  14.949   4.328  0.1005  0.0415 -0.1415
90216W        W33129  18.869  21.908   7.849  0.0110  0.2866  0.1312
90217W        W33130  15.907  33.634   4.743 -0.1608 -0.0062 -0.2321
90218W        W33131  13.740  13.211   5.322  0.3768 -0.1128 -0.1890
90219W        W33132   8.646   5.114   1.045 -0.0316  0.1889  0.1911
90220W        W33133  25.692  12.722   8.231  0.0034  0.0320  0.0463
90221W        W33134   5.636   1.917   9.550 -0.0535 -0.2166  0.0946
90222W        W33135   9.795  11.873  26.202 -0.1234  0.0102 -0.1481
90223W        W33136  29.816   6.706   0.994 -0.0713 -0.0311 -0.0956
90224W        W33137  20.047   4.041   9.855 -0.1064  0.3350  0.3463
90225W        W33138   2.670  27.759   1.232 -0.0379 -0.2820 -0.0293
90226W        W33139  13.233  12.870  28.480  0.0531 -0.2330  0.0962
90227W        W33140  12.409  13.350   7.239  0.0550  0.2036  0.0281
90228W        W33141   8.436  16.781   8.672 -0.2381 -0.1406  0.0702
90229W        W33142  17.058  12.694   7.435 -0.0433 -0.0663  0.2277
90230W        W33143  10.665   7.351   6.424 -0.2701  0.3701  0.1315
90231W        W33144  21.788   6.099   9.134 -0.0169 -0.0792 -0.0867
90232W        W33145  15.932  14.152   1.102 -0.0096 -0.1017 -0.0929
90233W        W33146   9.173  14.119  27.987 -0.2442 -0.0781 -0.0739
90234W        W33147  10.223   7.389   6.145 -0.2673 -0.4159  0.0068
90235W        W33148   2.793  17.911   2.196  0.2524 -0.0088 -0.1103
90236W        W33149  13.951  19.908   3.512 -0.3084 -0.0695  0.1613
90237W        W33150   8.401   9.201  10.493  0.1497  0.0750  0.1250
90238W        W33151   3.097   8.676   9.769  0.0605  0.1376  0.1354
90239W        W33152  18.769   2.746  18.363  0.1632  0.1380  0.1387
90240W        W33153   5.176   9.533   7.234 -0.2121  0.1287  0.1985
90241W        W33154   9.830   5.838   5.087 -0.1185 -0.4432  0.1912
90242W        W33155  19.107  17.788   3.596  0.3774 -0.0298  0.0699
90243W        W33156  13.338  13.844   3.506 -0.0514 -0.1722  0.0005
90244W        W33157  18.292  16.889   4.480  0.1585 -0.3856  0.2001
90245W        W33158   2.459   2.798   6.832 -0.0007 -0.1278 -0.2413
90246W        W33159  13.362  11.890  24.183 -0.1870  0.3087 -0.0973
90247W        W33160  11.370   3.190   2.890 -0.0303 -0.0886 -0.2721
90248W        W33161  15.247   7.890   9.773  0.1791 -0.0442 -0.0995
90249W        W33162  11.405  20.609   5.488 -0.1590 -0.1518  0.0239
90250W        W33163  14.943  33.700   6.953  0.3649 -0.1115  0.2730
90251W        W33164  14.192   1.048   3.717 -0.2687  0.1892 -0.0986
90252W        W33165   2.510  18.287   9.354 -0.0781  0.1361  0.0168
90253W        W33166  10.691   5.780   1.141  0.1182 -0.0061 -0.0620
90254W        W33167  24.121  11.845   9.120 -0.0834  0.0181  0.0726
90255W        W33168  12.444  12.682  26.716  0.0922  0.1052 -0.4623
90256W        W33169   7.353  30.093   4.144 -0.2401  0.1634  0.0150
90257W        W33170  13.555  30.921   3.924 -0.0610 -0.1130  0.0885
90258W        W33171  16.022  11.693   3.076 -0.1770 -0.1653  0.1204
90259W        W33172   2.566  25.539   5.333  0.1739 -0.2246 -0.2610
90260W        W33173  13.573   1.297   4.138 -0.1863 -0.0543  0.0153
90261W        W33174  23.149   5.587   9.624 -0.2846 -0.0591 -0.3991
90262W        W33175  11.116   7.853   2.326  0.2253 -0.1644  0.0056
90263W        W33176  20.422  12.993   8.133 -0.0147  0.0366 -0.2149
90264W        W33177  11.942   4.900   0.788  0.1388  0.2619  0.1424
90265W        W33178  12.933  20.569   4.671  0.4328  0.3257 -0.1659
90266W        W33179  13.790  31.243  11.066  0.0334 -0.5203  0.1517
90267W        W33180   8.429  34.362   9.928 -0.1203 -0.3371  0.4580
90268W        W33181  17.222   8.270   8.835  0.0299  0.0688 -0.0608
90269W        W33182  22.611  12.882   1.574  0.3427  0.0478 -0.2534
90270W        W33183  13.884   1.501   8.593 -0.0646  0.2250  0.1410
90271W        W33184  13.194  11.523   8.698  0.0732  0.1186  0.0980
90272W        W33185  20.164  14.561   6.113 -0.2781 -0.0738 -0.3489
90273W        W33186  17.549   7.267   8.704  0.0656  0.0081 -0.3839
90274W        W33187  10.276  13.153  29.110 -0.0375 -0.0063 -0.2148
90275W        W33188  11.715   9.772   3.615 -0.1244  0.2504 -0.1910
90276W        W33189  12.294   6.746   4.385 -0.2875 -0.0033  0.0118
90277W        W33190   7.099   5.362   2.251 -0.3066  0.1122  0.0512
90278W        W33191  15.363  17.011   1.304 -0.0732 -0.0319 -0.1517
90279W        W33192  12.421  21.241   1.776 -0.2989 -0.0847 -0.0937
90280W        W33193  13.289   1.350   7.055  0.3714 -0.0123  0.2306
90281W        W33194  11.665   8.695   2.155 -0.0352  0.1748  0.1071
90282W        W33195  12.825   8.744   5.209 -0.2745  0.2093  0.3834
90283W        W33196   4.910  32.228  10.192 -0.0750  0.1055 -0.0296
90284W        W33197  12.806   7.145   3.463 -0.0133 -0.2100 -0.1448
90285W        W33198   1.172  20.339   8.659  0.2544  0.2476 -0.0548
90286W        W33199   7.229   1.645   3.407  0.1024  0.1507 -0.0012
90287W        W33200  17.414  31.707   9.608  0.1874 -0.1834 -0.1502
90288W        W33201  22.354   9.705   2.152  0.1476  0.1539 -0.1495
90289W        W33202   9.493   3.839  18.431 -0.1921 -0.1983  0.1129
90290W        W33203  20.733   4.731   2.629  0.1036 -0.0325  0.0373
90291W        W33204   3.692   1.223   1.998 -0.0061 -0.0180 -0.1835
90292W        W33205   9.235  31.114   9.509 -0.0871 -0.1892 -0.1079
90293W        W33206  11.428  13.077   6.281 -0.0648 -0.1533  0.1297
90294W        W33207  10.121  12.025  28.687 -0.0031 -0.0329  0.1859
90295W        W33208   5.605  10.879   9.247 -0.0721  0.2470 -0.0378
90296W        W33209   9.923   9.473   3.591 -0.0100 -0.3226 -0.0413
90297W        W33210   4.819  18.919   5.521  0.2168 -0.0896  0.0124
90298W        W33211  13.653   1.019   8.804 -0.1038 -0.0062  0.2847
90299W        W33212  21.762   7.942   8.529  0.0791 -0.1664 -0.1328
90300W        W33213   0.460   8.380  11.007  0.1964 -0.0249  0.3960
90301W        W33214   4.380  17.744   4.912 -0.4198 -0.2085 -0.2471
90302W        W33215   3.421   6.861  10.043  0.3004  0.5384  0.3012
90303W        W33216   7.928  11.630   9.874 -0.0077 -0.2459 -0.0401
90304W        W33217   9.678   7.473   8.126  0.0228  0.1658  0.2845
90305W        W33218   7.713   0.663   7.393 -0.1518 -0.4176 -0.0234
90306W        W33219  11.555  12.774   7.619 -0.1243  0.0686  0.2825
90307W        W33220  10.804   0.363   6.513 -0.0822 -0.0574 -0.2335
90308W        W33221  18.248  13.965   3.870 -0.0996  0.2153 -0.1554
90309W        W33222  13.951  11.948   5.926 -0.2470 -0.0378  0.0978
90310W        W33223   0.693  11.052   9.655  0.1299 -0.1292  0.0905
90311W        W33224  10.338  17.550  24.233  0.3335  0.0607  0.0695
90312W        W33225   7.616   5.767   9.776 -0.0561 -0.1260 -0.0488
90313W        W33226  14.693   2.140  10.641 -0.4133 -0.0587  0.0161
90314W        W33227   9.727  32.109   8.744 -0.1322 -0.3542  0.0704
90315W        W33228  11.670   6.114   4.116 -0.0003  0.1857  0.3518
90316W        W33229   1.324   9.891   2.876  0.0724 -0.2507 -0.0436
90317W        W33230  13.559   5.367   5.615  0.1175 -0.1004 -0.1488
90318W        W33231   9.409   3.503   8.517  0.2518  0.2964  0.0728
90319W        W33232  12.157  12.790   7.894  0.0033 -0.1049 -0.0224
90320W        W33233   8.240   0.353   2.870  0.0265 -0.4279 -0.0504
90321W        W33234  17.952  17.509   6.915 -0.2555 -0.0396  0.0956
90322W        W33235   2.231   9.155   8.934 -0.3406 -0.1359 -0.0935
90323W        W33236  13.947   4.849   4.309 -0.0157 -0.2559  0.3204
90324W        W33237   6.580   3.101  28.619  0.4848  0.0799  0.0381
90325W        W33238  11.048  17.975   4.073  0.1472 -0.3029  0.1176
90326W        W33239   2.424   4.573  11.030 -0.2640 -0.0133 -0.1472
90327W        W33240  17.833   5.406   3.054 -0.0299  0.0542 -0.0798
90328W        W33241  22.365  16.045   5.095  0.0263  0.2973 -0.2496
90329W        W33242  11.867  15.789   0.378 -0.2344  0.1009 -0.1643
90330W        W33243   4.138  11.805   1.068  0.0400 -0.1737  0.1578
90331W        W33244  24.621   8.853   0.998 -0.1263  0.0737  0.1899
90332W        W33245  14.094  10.039   4.539 -0.0274 -0.0501 -0.2288
90333W        W33246   8.684   6.074   4.987 -0.0831  0.1861 -0.1990
90334W        W33247  16.238  10.972   5.902  0.0521 -0.2829  0.0608
90335W        W33248  10.353   1.959   5.349  0.0802 -0.0798 -0.2389
90336W        W33249   9.923  13.591   2.038 -0.2859  0.1778 -0.0424
90337W        W33250   8.569  32.317   4.953 -0.2242  0.0924 -0.3698
90338W        W33251   8.235  15.326   6.582  0.0674 -0.0919  0.0858
90339W        W33252   5.019   1.447  10.442 -0.2069 -0.0111 -0.1653
90340W        W33253  10.917   5.156   8.409 -0.1583 -0.2200  0.0403
90341W        W33254  19.123   5.865   7.652  0.1094  0.0864 -0.0794
90342W        W33255   5.593  34.386   9.245  0.0850  0.1913  0.1290
90343W        W33256   9.497   8.525   3.412 -0.2319 -0.2650  0.0268
90344W        W33257   7.423  13.395  28.126 -0.0361  0.1236 -0.1024
90345W        W33258  20.240  15.887  22.001  0.3265 -0.0243  0.2121
90346W        W33259   8.715  12.049   6.683  0.2219 -0.0911  0.2465
90347W        W33260  13.250   2.600   9.453 -0.1533 -0.2513 -0.1995
90348W        W33261  15.148   9.264   5.762  0.0329  0.2899  0.3383
90349W        W33262   9.331   2.260   9.730  0.0678 -0.1182  0.0119
90350W        W33263   8.410   4.147   0.818 -0.1248  0.0807  0.0783
90351W        W33264   8.103  16.772   9.203 -0.1285  0.3304  0.1762
90352W        W33265  14.240  15.830   8.833  0.2215 -0.2327 -0.1684
90353W        W33266  13.688  32.300  28.401  0.0972  0.0895 -0.0161
90354W        W33267  17.880   4.569   8.247  0.1603 -0.3416 -0.2054
90355W        W33268  10.559   4.980  12.496 -0.3289 -0.1017 -0.2427
90356W        W33269  13.019  15.361   5.992  0.0332  0.2033  0.1840
90357W        W33270  32.633   9.589   6.163 -0.0407  0.0175  0.0574
90358W        W33271   7.100   5.937   5.493  0.1424  0.2018  0.0350
90359W        W33272  13.197   5.537  26.932  0.0741  0.4506 -0.2052
90360W        W33273  24.685  17.654   6.241  0.0932 -0.3398 -0.3144
90361W        W33274   9.923   2.992  10.819 -0.1646  0.0098  0.2179
90362W        W33275  31.215   3.148   4.942 -0.1223  0.3610 -0.1376
90363W        W33276  13.837   1.022   9.312  0.1798  0.3398  0.0717
90364W        W33277   3.770  18.887   8.705  0.1150 -0.0203 -0.2582
90365W        W33278  15.840  16.595   8.161 -0.1065 -0.0332 -0.0649
90366W        W33279  12.918   9.701   8.639  0.0071  0.1368  0.0122
90367W        W33280  19.696  10.921   1.113  0.2467 -0.1794  0.1017
90368W        W33281   3.460  15.059   6.621  0.4332  0.1634 -0.1134
90369W        W33282  15.427   8.737   9.891  0.0246 -0.0446  0.2847
90370W        W33283  19.574   6.051   9.539 -0.0056 -0.0512 -0.1762
90371W        W33284   8.051  22.564   6.966 -0.1628 -0.0053  0.0988
90372W        W33285  30.658   6.887   4.983  0.2478  0.2109 -0.1627
90373W        W33286  10.321   4.530  13.275 -0.1315 -0.1299 -0.0187
90374W        W33287  32.714  13.169   2.880  0.0410 -0.4886  0.0514
90375W        W33288   5.554   1.769   4.730 -0.1678  0.0294 -0.1560
90376W        W33289  21.453  19.368   4.452 -0.3650 -0.0026 -0.0186
90377W        W33290  15.595  13.849   1.870 -0.2454 -0.0443 -0.1207
90378W        W33291  11.226   5.290   3.922 -0.0845  0.0200 -0.1832
90379W        W33292   2.883   7.798  29.573  0.1844  0.1296 -0.0574
90380W        W33293  20.441  16.110   3.640  0.2045  0.0931  0.0394
90381W        W33294  10.742   4.892   8.924  0.2425  0.1892 -0.3014
90382W        W33295   8.232   7.944   8.157 -0.0622  0.0571 -0.0096
90383W        W33296   1.362  28.490   8.291 -0.2230 -0.3893  0.3056
90384W        W33297  17.295   1.735   9.113 -0.0147 -0.2474 -0.3690
90385W        W33298  15.130   5.563  11.429  0.0571  0.0655  0.1124
90386W        W33299  11.358  13.392   0.889 -0.0704  0.1642 -0.3321
90387W        W33300  13.061  19.004   7.239  0.0411  0.0112  0.0624
90388W        W33301   4.479  11.537   7.298  0.1057  0.0144  0.1928
90389W        W33302  18.393  14.429   3.668 -0.1322  0.3047 -0.0624
90390W        W33303  16.453  32.632   3.139 -0.1962 -0.0068 -0.0132
90391W        W33304   8.890   1.880   3.778 -0.0876  0.2092 -0.2125
90392W        W33305  15.531   8.398   3.242  0.0772 -0.0354  0.2292
90393W        W33306  10.523  23.572  26.913  0.1768 -0.0304  0.3474
90394W        W33307  17.649  28.856   8.943 -0.1974  0.2681 -0.1077
90395W        W33308   4.477  30.943   9.199  0.0802 -0.0289  0.1233
90396W        W33309   6.083   6.687  24.376  0.0522  0.0624  0.0472
90397W        W33310  11.074  31.776   8.082 -0.1375 -0.0436 -0.2127
90398W        W33311  17.581  11.461   5.355 -0.2874  0.2098  0.2522
90399W        W33312  24.535   8.716   8.117 -0.2878 -0.0326  0.3724
90400W        W33313   5.491  12.137   4.640 -0.3648 -0.2846  0.0445
90401W        W33314  26.975  10.650   8.465  0.3178 -0.0846 -0.0496
90402W        W33315  28.779  10.733   7.815 -0.0445  0.5232 -0.1098
90403W        W33316   4.213   7.901  10.124  0.1671  0.0181 -0.1419
90404W        W33317   9.568  17.118   1.576  0.1475  0.2306  0.1031
90405W        W33318  10.501  28.792  10.503 -0.1603  0.3526 -0.2440
90406W        W33319   0.125   3.411  12.952  0.1355 -0.3035 -0.4865
90407W        W33320  19.713  26.408   6.955 -0.0331  0.0325 -0.1042
90408W        W33321  11.519  18.523   6.771  0.0110 -0.0466 -0.5163
90409W        W33322  22.148  12.385   4.559 -0.5444  0.0276  0.4207
90410W        W33323  19.748   9.755   2.138 -0.1559 -0.1571 -0.1637
90411W        W33324  13.855   8.360   1.091 -0.1159 -0.1772  0.0586
90412W        W33325  10.919   7.920  10.662  0.1029 -0.2001 -0.1136
90413W        W33326  33.677  10.774  29.016 -0.0172  0.1890 -0.1346
90414W        W33327  14.211   8.389   5.480  0.0248  0.0546  0.0111
90415W        W33328  16.637  14.924   0.126 -0.0580 -0.1319 -0.2805
90416W        W33329  12.357   5.307   9.801 -0.2459 -0.2556 -0.0775
90417W        W33330  14.226  16.401  22.192  0.1398 -0.0543 -0.0263
90418W        W33331  25.980   5.080   5.918  0.1571  0.2772  0.1528
90419W        W33332  10.654  11.281   0.738  0.3442  0.0456  0.0415
90420W        W33333   6.858   8.589  12.517 -0.0778  0.0662 -0.1492
90421W        W33334  12.367  10.482   3.021  0.1563 -0.2135  0.2704
90422W        W33335  13.408   7.887   9.769  0.0495  0.0697  0.1065
90423W        W33336  15.185   5.015  26.334 -0.2016  0.2781  0.0921
90424W        W33337  11.167  13.788   9.296  0.0679 -0.2692  0.1156
90425W        W33338  10.749   5.542  28.142 -0.0418 -0.0222 -0.0994
90426W        W33339  12.585   3.893   5.093  0.2156  0.0282 -0.0772
90427W        W33340   3.206  11.240   6.446  0.1855 -0.1191  0.0257
90428W        W33341   3.880  12.093   8.568 -0.3095  0.4083  0.2780
90429W        W33342  13.489   8.603  27.251  0.3550  0.2076  0.1569
90430W        W33343   8.737  11.295   8.179 -0.0838  0.1527  0.0216
90431W        W33344   3.565   3.890  13.483  0.1246  0.2099  0.0743
90432W        W33345   1.876   2.802   6.893  0.2306  0.3298  0.1978
90433W        W33346  13.352   8.053  28.713  0.0283  0.1814 -0.0659
90434W        W33347  17.507  13.331  28.024 -0.1571  0.0658  0.1260
90435W        W33348   3.756   0.118   5.767 -0.1456  0.1036  0.0452
90436W        W33349   5.814   4.426   6.549  0.0335 -0.2209 -0.2348
90437W        W33350  18.674  11.816   7.586 -0.1702 -0.1620  0.0221
90438W        W33351   8.747  27.969  10.214 -0.2251 -0.1272 -0.2193
90439W        W33352  20.083  11.665   7.273  0.1774 -0.1440  0.0465
90440W        W33353   5.661   6.763   3.649 -0.1097 -0.0348  0.0414
90441W        W33354   7.597   2.713  10.988 -0.1282 -0.0633 -0.0847
90442W        W33355  16.357   6.899  26.037  0.4067  0.2207 -0.2164
90443W        W33356   6.833  11.074   4.093 -0.1896  0.0096  0.4951
90444W        W33357   4.214   9.348  26.750  0.0522 -0.0152 -0.1668
90445W        W33358   7.417   9.188   2.941 -0.0732 -0.0431  0.0805
90446W        W33359  19.329  13.933   6.914 -0.2323 -0.1601 -0.1002
90447W        W33360  10.057   8.823  29.357 -0.0976  0.2126 -0.1063
90448W        W33361  14.322  12.620   0.107 -0.0067  0.0707  0.1720
90449W        W33362   9.916   6.407  11.319  0.0734 -0.1474 -0.4041
90450W        W33363   9.202   4.316   7.833 -0.1050 -0.0056 -0.0114
90451W        W33364  14.465   3.772  10.002  0.3688  0.0763 -0.2272
90452W        W33365  20.769  14.222   1.864 -0.3145  0.0518  0.2167
90453W        W33366   9.321  29.900   0.975  0.0015 -0.3224 -0.3968
90454W        W33367   6.085   7.559  10.586  0.0932  0.1316  0.2243
90455W        W33368  13.335   8.853   5.468 -0.2396  0.0777  0.0248
90456W        W33369  10.306  34.393  10.129 -0.1637  0.0031 -0.2599
90457W        W33370  14.476   3.253   7.514  0.0006 -0.0997  0.0423
90458W        W33371   6.231  13.842  11.417  0.2577 -0.0909 -0.1897
90459W        W33372  12.191  14.226  28.605 -0.1934 -0.1887 -0.3265
90460W        W33373   7.098   4.743  13.992 -0.0205 -0.0903 -0.0058
90461W        W33374  19.536  13.085   8.066  0.2306  0.1363  0.3705
90462W        W33375   8.518   5.321   3.096 -0.1011 -0.0777 -0.0076
90463W        W33376   7.361   7.043   4.444  0.1204  0.1948 -0.3048
90464W        W33377  15.831  11.088  27.462 -0.2065  0.1105  0.0678
90465W        W33378   1.989  18.253   8.994 -0.0479  0.2330  0.1804
90466W        W33379  18.749  15.174   4.475  0.0965  0.3487  0.1632
90467W        W33380  11.563   2.414  12.330 -0.1949 -0.2649 -0.0764
90468W        W33381   5.360  22.569   4.554 -0.1218  0.0711  0.3469
90469W        W33382  14.100   6.811   3.009 -0.0322 -0.1918  0.1432
90470W        W33383  10.182  14.299   5.844  0.0175 -0.0385  0.0797
90471W        W33384  17.284  10.140   5.654 -0.1821  0.3036  0.0787
90472W        W33385  14.845  10.956   3.890 -0.1903 -0.3388 -0.1503
90473W        W33386   6.058  17.047   0.682 -0.1971  0.1136 -0.1537
90474W        W33387  12.043   6.006   3.789  0.0755 -0.0747  0.1773
90475W        W33388  11.877   2.184  10.881  0.2155 -0.0764  0.0803
90476W        W33389   7.185   7.653  26.251 -0.1736  0.2658  0.5147
90477W        W33390  18.442   8.540   6.536  0.1834  0.2177 -0.1951
90478W        W33391  14.920   1.055   6.248 -0.0604 -0.1411 -0.1178
90479W        W33392  29.440  10.562   5.674  0.0773  0.0125 -0.0323
90480W        W33393  10.421   8.946   8.595  0.1590 -0.0498  0.2883
90481W        W33394  10.701  17.030   8.349  0.2125 -0.1021  0.0809
90482W        W33395  13.502  12.226   0.958 -0.0888  0.3284  0.1321
90483W        W33396   8.453   8.011  10.167 -0.1451 -0.1540  0.1739
90484W        W33397   5.970  32.998   4.924  0.4777 -0.0910  0.0166
90485W        W33398  34.147  19.569   5.158 -0.0399  0.2566  0.3376
90486W        W33399  23.759   7.865   3.830  0.0218  0.1833  0.4292
90487W        W33400   1.424  15.750   9.474 -0.0692  0.1640  0.1942
90488W        W33401   7.824  34.447   9.560  0.0489  0.0341  0.0561
90489W        W33402  13.746  18.267   1.131 -0.0352 -0.1781  0.2889
90490W        W33403   7.818   8.067   5.349 -0.1089  0.1701  0.0132
90491W        W33404  18.335  14.823   4.267  0.2766 -0.1649  0.1491
90492W        W33405   3.375   1.785   3.834 -0.1042  0.1825 -0.1000
90493W        W33406  11.856   6.819   3.545 -0.1607  0.2818  0.1529
90494W        W33407  13.864  14.426   1.840  0.0765  0.0426 -0.0637
90495W        W33408  12.179   6.390   1.247 -0.1739 -0.0115  0.0434
90496W        W33409   4.777   6.472  11.151  0.2366 -0.0116 -0.0264
90497W        W33410   6.261   8.360   7.858 -0.1107  0.1962 -0.3656
90498W        W33411  10.190   6.583   4.449  0.0099 -0.1131  0.2652
90499W        W33412  13.318  13.667   5.979  0.0350  0.2187  0.1240
90500W        W33413  17.409   3.902  26.877  0.0773  0.0007  0.0032
90501W        W33414  11.846   5.867   7.324  0.0679  0.0521 -0.0517
90502W        W33415   7.238   0.673   2.417 -0.2451 -0.0096  0.0550
90503W        W33416  18.409  11.322   5.130  0.1183 -0.0710  0.0643
90504W        W33417  15.336  18.648   6.848  0.2867  0.0035  0.0575
90505W        W33418   6.205  30.468  28.148 -0.3221 -0.2434 -0.2338
90506W        W33419  11.104  32.629   8.234  0.0317  0.3517 -0.0460
90507W        W33420  13.695   5.933  10.768 -0.0024  0.0033 -0.2468
90508W        W33421  12.207   4.559  10.399  0.1265 -0.1502  0.2865
90509W        W33422  27.166  10.020   7.421 -0.1095 -0.0640 -0.1860
90510W        W33423  17.068  34.458   3.444 -0.0807 -0.0256  0.0698
90511W        W33424   5.931  10.944   8.872 -0.1233  0.2824 -0.2975
90512W        W33425  22.914   1.312   5.316 -0.1222  0.0554 -0.0026
90513W        W33426  34.006  14.330   3.050 -0.2603 -0.1509  0.2253
90514W        W33427   8.341  18.379   3.505 -0.4469 -0.0039 -0.0596
90515W        W33428  12.281   8.759   9.448 -0.2039  0.7403 -0.0929
90516W        W33429   6.677  11.436   8.750 -0.0121 -0.2487 -0.2152
90517W        W33430  13.365  16.206   5.993  0.0483 -0.0973  0.0491
90518W        W33431   2.418   8.375  13.216 -0.0635 -0.0332  0.3734
90519W        W33432   8.762   7.812   9.384  0.2450  0.3163 -0.1473
90520W        W33433  14.025  33.857   6.538  0.2690 -0.0122  0.1836
90521W        W33434   8.838  30.865  11.218 -0.1077 -0.1763 -0.1676
90522W        W33435   6.566   1.394   6.514  0.1839 -0.3776  0.0543
90523W        W33436  14.255  14.373   4.198 -0.1363 -0.0480 -0.0047
90524W        W33437  10.082   7.896   8.137  0.2166  0.3456 -0.0741
90525W        W33438   4.855   7.443   1.230  0.0225 -0.1708 -0.1446
90526W        W33439   8.186   7.720  13.208 -0.3565  0.0265 -0.2198
90527W        W33440   2.486  13.315  11.391 -0.0451  0.4131 -0.0203
90528W        W33441   0.858   1.646  10.413  0.1000 -0.3040 -0.0327
90529W        W33442   6.673  33.773   8.282 -0.0954 -0.1867  0.1477
90530W        W33443  23.157   2.703   5.821 -0.0405  0.0089  0.0230
90531W        W33444   8.252   1.741   3.193 -0.0265 -0.1384 -0.0561
90532W        W33445   6.674  11.769  11.391  0.1939  0.3657  0.0890
90533W        W33446   3.601  23.326  15.701  0.1842 -0.0065  0.2008
90534W        W33447  15.766  12.314   8.951  0.2293 -0.1427 -0.0581
90535W        W33448  23.668   3.823   7.317  0.0243 -0.1269  0.3414
90536W        W33449   4.666  13.955   9.716 -0.1209 -0.1979 -0.1900
90537W        W33450   9.379   4.383  12.688 -0.1112  0.3317 -0.0248
90538W        W33451  12.121   5.298   4.137 -0.0198  0.2770 -0.1405
90539W        W33452  10.425  29.294   5.586  0.1413  0.2731  0.2754
90540W        W33453   4.507  10.990  10.155 -0.1379  0.1229  0.1943
90541W        W33454   6.903  10.553   6.046 -0.0873  0.1304  0.0051
90542W        W33455   4.142  18.746   7.518 -0.0705  0.0100  0.0118
90543W        W33456  10.758   5.588   9.758 -0.1504  0.0525  0.4257
90544W        W33457  12.059   1.101   6.884  0.3069 -0.0104  0.1747
90545W        W33458   4.834  19.609   7.874 -0.0145  0.0098 -0.2852
90546W        W33459  14.653   7.384  29.425  0.1289  0.0879  0.2270
90547W        W33460  18.284  12.660  28.663 -0.1195  0.0554 -0.0693
90548W        W33461   8.748  12.696   6.065  0.1129  0.0601  0.0927
90549W        W33462   7.700   4.540   3.908  0.0814 -0.1315  0.1359
90550W        W33463  25.601  27.548   2.563 -0.1416 -0.0445  0.0792
90551W        W33464   7.138   6.351   7.206  0.4036 -0.2449  0.0165
90552W        W33465   0.653   8.739   6.160  0.3785 -0.0151  0.1072
90553W        W33466  16.016  20.342   6.831 -0.1348  0.1980 -0.1186
90554W        W33467   3.257  13.304   3.530  0.1574  0.5140 -0.1015
90555W        W33468  14.085   7.338   9.901  0.0435 -0.0171  0.0625
90556W        W33469  11.087   6.400   7.898  0.2113  0.0617 -0.0546
90557W        W33470   8.578  33.057   1.262 -0.0021 -0.1626 -0.0974
90558W        W33471   2.550   3.675   6.083 -0.3878 -0.2027 -0.1460
90559W        W33472   8.333  18.446   1.867 -0.0432  0.2232 -0.0806
90560W        W33473  13.592   3.964   8.389 -0.2273  0.3120  0.0172
90561W        W33474  11.680  20.562  27.578  0.0054 -0.1901 -0.3441
90562W        W33475  11.284   6.009   5.820 -0.0673  0.0102  0.0112
90563W        W33476   8.774   1.644  10.497 -0.0322  0.0871 -0.1182
90564W        W33477  26.641  10.527   1.178 -0.2401 -0.0979 -0.4690
90565W        W33478  20.059  17.151   8.088  0.0897  0.0654 -0.0891
90566W        W33479   5.204  17.505   6.648 -0.0421 -0.0186 -0.0865
90567W        W33480   0.970  11.501   8.041  0.1156 -0.1732 -0.1421
90568W        W33481   5.480   6.781   2.147 -0.1009  0.0856  0.1630
90569W        W33482  11.338   7.884   7.872  0.2987 -0.1283  0.2237
90570W        W33483  31.556   8.959   9.938 -0.0094 -0.1127  0.0935
90571W        W33484  14.935   3.324   9.289 -0.3050  0.0355 -0.4582
90572W        W33485  11.510  33.307   1.812 -0.2048  0.0335  0.1615
90573W        W33486   8.833   5.998   0.955  0.1183  0.0937 -0.1465
90574W        W33487   6.771  33.131   7.068  0.0017  0.1643  0.0368
90575W        W33488  15.868   4.365   5.552  0.0606 -0.1786 -0.0039
90576W        W33489  13.745   1.524  28.868 -0.0324 -0.1095  0.0021
90577W        W33490  18.816  10.846   6.784  0.2054  0.2232 -0.0357
90578W        W33491   9.170  28.974  29.176  0.0554 -0.1238  0.0276
90579W        W33492  10.882   6.408  12.000  0.0500 -0.2264  0.0001
90580W        W33493  16.730  16.552   1.115  0.3234 -0.0624 -0.2787
90581W        W33494  12.290  28.707  11.092 -0.2881  0.0915  0.0410
90582W        W33495  23.324  32.246   3.892 -0.1063 -0.0953  0.2102
90583W        W33496  33.682  31.489   9.303  0.0278  0.0090  0.0494
90584W        W33497  11.272  14.586   7.190 -0.1965 -0.1708  0.1106
90585W        W33498  15.980   0.401   9.533 -0.2000 -0.0200 -0.1588
90586W        W33499   2.654  17.705   7.849  0.2057 -0.0477 -0.3244
90587W        W33500   0.443   3.602   7.073 -0.1948  0.1446 -0.2095
90588W        W33501  27.840  33.815   9.634  0.2189 -0.0299  0.0086
90589W        W33502   9.296   7.068   4.436 -0.1273  0.0466  0.1605
90590W        W33503  25.087   5.180   9.315 -0.1013 -0.1214  0.2437
90591W        W33504  14.329   3.970   5.797 -0.0968 -0.1782  0.1414
90592W        W33505  20.151  13.340  25.565 -0.1911  0.2319  0.0635
90593W        W33506  10.207   0.709   5.389 -0.0628  0.0178 -0.4172
90594W        W33507  13.370  10.991   7.626  0.0807 -0.2526 -0.0437
90595W        W33508   6.864  24.540  28.741 -0.4211  0.2294 -0.0438
90596W        W33509  18.000  33.608   6.382 -0.1975 -0.0300  0.1143
90597W        W33510   2.394   5.954   7.631  0.0842  0.0655 -0.2767
90598W        W33511   9.842  17.468   3.638 -0.1287 -0.3659 -0.3798
90599W        W33512  12.892  17.452   7.405 -0.1160 -0.3907  0.1813
90600W        W33513  14.178   3.420   9.772  0.2610  0.2549 -0.2304
90601W        W33514   8.840  15.326  29.354  0.2976 -0.1732 -0.1663
90602W        W33515  12.367  15.208   1.971 -0.0785  0.0846 -0.0694
90603W        W33516   9.234   8.214   6.120 -0.0517 -0.1605  0.0786
90604W        W33517   2.189  11.918   4.037  0.1579  0.1444 -0.0124
90605W        W33518  15.728  11.165   7.348  0.0720 -0.0457  0.1529
90606W        W33519  10.752   3.732   3.990 -0.1807  0.0274 -0.0092
90607W        W33520   8.507   5.190   9.981 -0.0816 -0.1582 -0.1629
90608W        W33521   8.997   4.255  24.016 -0.0330 -0.1373 -0.1182
90609W        W33522   9.830  17.116  28.275 -0.0717 -0.3261  0.3075
90610W        W33523   9.830  10.120   7.346  0.1982  0.0123 -0.4027
90611W        W33524   4.723  10.754   8.464 -0.2435  0.0816  0.1890
90612W        W33525  20.416   7.095   1.267  0.0269 -0.1148  0.1495
90613W        W33526  12.060  15.224   8.532 -0.1231  0.1039 -0.1215
90614W        W33527   7.223  15.942  28.136  0.1177  0.1467 -0.0150
90615W        W33528   6.341   7.420  11.027  0.0346 -0.2618  0.0498
90616W        W33529   9.486   6.262  10.513 -0.0093 -0.2771  0.0380
90617W        W33530  10.826   7.913  10.114 -0.1355  0.0987 -0.2994
90618W        W33531  12.792   7.484  10.290  0.1207 -0.2496 -0.0804
90619W        W33532   5.574  13.985  27.232 -0.0180 -0.1145  0.2438
90620W        W33533  12.983  29.145  10.416 -0.0861 -0.4178  0.2504
90621W        W33534  17.201   2.457   9.238 -0.2474 -0.0591  0.1782
90622W        W33535  14.234   6.832   8.116 -0.0845 -0.0116  0.0987
90623W        W33536  19.443   7.119   2.784  0.0675 -0.2517 -0.2943
90624W        W33537   2.827   1.742   3.841 -0.0750 -0.0695 -0.5062
90625W        W33538   2.860   0.131   9.170 -0.2237 -0.1081 -0.1030
90626W        W33539  11.082  29.329   3.510 -0.3036 -0.2420  0.2051
90627W        W33540  11.209   6.583  10.096 -0.0222 -0.0669 -0.1090
90628W        W33541  11.418  10.591   5.899  0.2240  0.0506 -0.3454
90629W        W33542   2.955   4.115   8.184  0.2253  0.2220  0.0384
90630W        W33543   1.108   4.296   5.798 -0.0447 -0.0514 -0.0764
90631W        W33544   8.949  10.230  10.196  0.1909 -0.3691  0.0587
90632W        W33545  13.508   8.510   7.492  0.6322 -0.1930  0.3893
90633W        W33546  14.919   6.534   2.949 -0.1608 -0.3057  0.3223
90634W        W33547  34.397   3.909  11.653  0.1250  0.1630 -0.0822
90635W        W33548  11.949  15.664   1.996  0.1338  0.3723  0.1308
90636W        W33549  15.247  18.961   7.859  0.0314 -0.1700 -0.0134
90637W        W33550  12.249  11.735   0.605  0.2442  0.2234 -0.1508
90638W        W33551  29.073   3.273  29.116  0.3127 -0.1851 -0.0371
90639W        W33552  10.616  18.738   8.144  0.0722 -0.1884 -0.0370
90640W        W33553  14.058  18.195   5.748 -0.0977 -0.1859  0.0725
90641W        W33554  19.021  12.695   0.857  0.0986 -0.3734  0.3450
90642W        W33555   3.507   1.540   4.218 -0.0505 -0.3552  0.4004
90643W        W33556   6.826  17.310   2.596 -0.1862  0.2282 -0.0758
90644W        W33557  18.262  12.807   1.242 -0.0145 -0.0136  0.1240
90645W        W33558   8.423  14.970   9.158  0.1277 -0.2776 -0.0209
90646W        W33559   8.042  28.852  10.172 -0.3576  0.1190 -0.1710
90647W        W33560   2.132  13.963  10.680 -0.4863  0.0412 -0.0597
90648W        W33561   8.095   5.312  12.957  0.3774 -0.2404 -0.1822
90649W        W33562  10.673   4.794  29.303  0.0429  0.0681 -0.6004
90650W        W33563  16.726  15.385   0.446 -0.2161  0.1063  0.2133
90651W        W33564  17.105  12.466   0.250  0.2954  0.1415 -0.2469
90652W        W33565  15.685  19.199  25.191 -0.1638  0.2493 -0.3830
90653W        W33566   3.069   7.238  27.415  0.4040 -0.5035  0.3157
90654W        W33567  26.000   6.987   0.194 -0.0542  0.2476 -0.1372
90655W        W33568  15.860   5.186  29.682 -0.0162 -0.1224  0.1351
90656W        W33569  10.161  15.734   4.967  0.0451 -0.0756  0.0239
90657W        W33570   4.657  12.915  11.202 -0.1917  0.3613  0.0694
90658W        W33571  13.797  12.977  26.209 -0.1918 -0.0451  0.0751
90659W        W33572  10.204   2.620  11.168 -0.0355  0.0077  0.1932
90660W        W33573  11.242  14.703   1.538  0.1091 -0.0879  0.2661
90661W        W33574   1.612   5.459  16.913 -0.1944 -0.0114 -0.1136
90662W        W33575   1.715  18.614   5.405  0.1308  0.1930 -0.2344
90663W        W33576   7.998  13.508  26.684  0.1611  0.2541 -0.1714
90664W        W33577   3.422  32.679  24.413 -0.1477 -0.1786  0.2004
90665W        W33578  14.963  18.918   2.950 -0.2140 -0.0699 -0.1514
90666W        W33579  10.556  10.445  29.368 -0.0140 -0.1155 -0.2735
90667W        W33580  33.359  13.180   6.863  0.1973 -0.0087 -0.1964
90668W        W33581  15.333   4.582   4.229  0.3441 -0.0558 -0.4503
90669W        W33582   3.279  13.746   8.629 -0.0476  0.0513 -0.1113
90670W        W33583  10.960  19.679  24.538  0.1140 -0.0330  0.0051
90671W        W33584  13.566   4.146   1.876 -0.2950 -0.2307  0.1376
90672W        W33585   8.734  26.094   4.414  0.0099 -0.0817  0.0690
90673W        W33586  14.143   4.027   9.471 -0.2681  0.1475  0.0262
90674W        W33587  33.705   3.974   0.994  0.1410 -0.1897  0.0858
90675W        W33588  10.049   9.215   8.209  0.1944  0.0844  0.0819
90676W        W33589  12.800  18.314  24.202  0.0461  0.1449 -0.1038
90677W        W33590  10.962   5.540  27.706 -0.0358  0.1472  0.0202
90678W        W33591  15.254  10.676   3.993 -0.0640 -0.2924 -0.1650
90679W        W33592  15.446  15.964  22.212  0.0268  0.0275 -0.0652
90680W        W33593  12.945  24.343   9.808 -0.1489  0.1091 -0.0177
90681W        W33594   4.530   7.142  28.684  0.2210  0.1315  0.0438
90682W        W33595  16.388  17.980   1.429 -0.1408 -0.0171  0.1611
90683W        W33596   8.016  14.567  28.990 -0.3819  0.0339 -0.2969
90684W        W33597  19.355  16.637  23.210  0.2129 -0.0903  0.0179
90685W        W33598   6.965  28.112   7.017  0.3278  0.1334 -0.1057
90686W        W33599  18.930   9.824  21.625  0.0382  0.0250 -0.1405
90687W        W33600  21.101   1.148   9.663  0.1520 -0.1677 -0.3046
90688W        W33601   8.490   5.493   7.729  0.1656 -0.1888  0.0664
90689W        W33602  18.909   4.257   7.461 -0.0248 -0.2494  0.0056
90690W        W33603   9.221  12.343   2.430 -0.0985 -0.0244 -0.0300
90691W        W33604  15.748  14.993  28.013 -0.1440 -0.1614 -0.1928
90692W        W33605  17.450  24.983  22.190  0.0762  0.0232  0.1966
90693W        W33606   4.156  12.454  25.207  0.0067 -0.0271 -0.2355
90694W        W33607   9.523   9.680  22.126  0.0700 -0.1085  0.0911
90695W        W33608  22.119  18.425  26.803  0.0744 -0.1013 -0.3413
90696W        W33609   4.650  27.254   4.732  0.4125  0.1715  0.1962
90697W        W33610  14.966  18.535  26.923  0.3957 -0.0755  0.4047
90698W        W33611  10.828  17.525   7.001 -0.0900  0.0408 -0.1041
90699W        W33612  10.567  18.437  27.213  0.1297  0.2606 -0.0811
90700W        W33613  14.687  13.535   3.301  0.1180  0.1289  0.2481
90701W        W33614  10.034  19.621   2.227  0.0131  0.1384 -0.2220
90702W        W33615  14.543   5.316  27.932 -0.0716 -0.1031  0.1899
90703W        W33616   4.439   8.734  28.339 -0.1173  0.0475  0.3501
90704W        W33617   5.375   0.315   1.519 -0.1748 -0.0749  0.0829
90705W        W33618   7.667  21.444  21.099 -0.0852 -0.1788 -0.4507
90706W        W33619  14.823  17.280  26.535 -0.1967 -0.0021  0.0098
90707W        W33620  20.057  19.975   3.995  0.1870 -0.0480 -0.2171
90708W        W33621   3.672  21.837  27.058 -0.2430 -0.0271 -0.1710
90709W        W33622  12.596  27.131   6.493 -0.1070  0.1453  0.1791
90710W        W33623   7.435  16.955   3.250  0.3852  0.0170 -0.1771
90711W        W33624  13.074  17.909  26.799 -0.1188 -0.0295 -0.0185
90712W        W33625  17.884  13.551   3.894  0.0110 -0.0592 -0.1255
90713W        W33626  11.723   6.255   1.385  0.0362  0.0084  0.0303
90714W        W33627   4.385  10.693  26.944 -0.4043 -0.0537 -0.0451
90715W        W33628  15.186  19.230  29.178  0.0026  0.0998  0.2191
90716W        W33629  17.688   6.017  25.721  0.2625  0.0391 -0.0404
90717W        W33630  16.090  16.186  27.939  0.2797 -0.0128 -0.0325
90718W        W33631  15.039  21.209  21.865  0.1323  0.1029  0.2932
90719W        W33632  16.123  16.864  25.604  0.0897  0.0960  0.2553
90720W        W33633  14.536   7.398   8.869 -0.1689  0.0789 -0.3866
90721W        W33634  11.044   9.521  26.776 -0.0555  0.1871  0.0065
90722W        W33635   8.242  16.138  21.050  0.0268  0.0707 -0.0652
90723W        W33636   8.697   2.973  25.615  0.0197 -0.1634 -0.0056
90724W        W33637  12.806   6.263  25.125  0.3168  0.1186 -0.1687
90725W        W33638  21.004  18.413  22.762  0.2311 -0.0370 -0.0449
90726W        W33639   2.920  21.951  29.001 -0.1721  0.1376  0.0509
90727W        W33640  13.225   3.640   7.215 -0.3750  0.0270  0.1560
90728W        W33641   6.698  11.460   0.740 -0.1367 -0.1101 -0.1393
90729W        W33642   7.320  20.503  23.848 -0.1520  0.2515 -0.2547
90730W        W33643   4.483  13.165   4.163 -0.2225 -0.1421 -0.1095
90731W        W33644  31.429  14.948   1.630  0.0731 -0.1951  0.0947
90732W        W33645  12.682  19.643  26.265  0.0255  0.0067 -0.2214
90733W        W33646   8.963  18.517  27.057 -0.0711 -0.1620 -0.0637
90734W        W33647  13.049  14.791  29.399 -0.0194  0.0913  0.2032
90735W        W33648  12.802  11.659  20.694 -0.1701  0.1229  0.2196
90736W        W33649  11.592   6.583   2.009 -0.2379  0.2015 -0.2047
90737W        W33650   5.407  18.691  10.142  0.0336 -0.2109 -0.0367
90738W        W33651  10.243  18.625  28.124  0.3760  0.0146  0.0635
90739W        W33652  13.123  13.328  28.347 -0.2011  0.1042  0.0404
90740W        W33653   5.855  24.406  25.901  0.3169  0.1108  0.1120
90741W        W33654  16.701   8.002  21.640  0.2585  0.0426  0.1564
90742W        W33655  11.422   8.487   6.255  0.0461 -0.2356  0.1080
90743W        W33656  24.579   3.275   3.798 -0.0351  0.0479 -0.1422
90744W        W33657  15.789  12.611   7.244 -0.1105  0.0746 -0.1369
90745W        W33658  13.120  16.580   3.379 -0.0132 -0.0451 -0.2602
90746W        W33659  18.594  10.388  28.181  0.2238 -0.2835 -0.1927
90747W        W33660   3.772  12.576   6.900  0.1399 -0.1379 -0.2021
90748W        W33661   9.262  10.812  25.289 -0.1724 -0.3111  0.1583
90749W        W33662  33.905  12.447  29.331  0.2976 -0.0671  0.1533
90750W        W33663  14.935  16.078   7.177 -0.3300 -0.0765 -0.1103
90751W        W33664   6.990  11.806   7.144  0.0433  0.4007 -0.0109
90752W        W33665  26.313  13.639  27.466 -0.2172  0.2040  0.0691
90753W        W33666  10.427  18.845  28.563  0.4391 -0.4723 -0.0303
90754W        W33667  30.734   8.138  28.698 -0.2945  0.1115  0.2564
90755W        W33668  17.718   4.057  28.376  0.0217  0.0605  0.3708
90756W        W33669  20.895  13.449   5.741 -0.1796 -0.0017 -0.0874
90757W        W33670  21.526  18.271  29.127 -0.3443 -0.0025  0.0674
90758W        W33671  18.268  11.574  27.723  0.1771  0.3647 -0.2096
90759W        W33672  22.371  14.729   6.988  0.2434 -0.0448 -0.0383
90760W        W33673  15.200  24.174  29.567  0.2659  0.0106 -0.2262
90761W        W33674  14.115  25.431   9.038 -0.2485  0.2116  0.3130
90762W        W33675  14.087  13.549   7.798  0.1717 -0.3095  0.2438
90763W        W33676  12.487  18.400   6.809  0.0578 -0.0658 -0.1177
90764W        W33677  17.845   7.731   3.687  0.3508  0.4065 -0.0811
90765W        W33678  11.636  19.976  26.168 -0.0676  0.1797 -0.1615
90766W        W33679   6.944  19.103  21.070  0.1242  0.0918  0.2502
90767W        W33680   8.620  16.068  26.735 -0.0211  0.3416 -0.0103
90768W        W33681  15.865   4.549  28.012  0.0895  0.0077  0.1600
90769W        W33682  16.426  23.606   1.456 -0.0625  0.3820  0.0361
90770W        W33683  30.061  11.989  28.073  0.1444  0.0836 -0.0334
90771W        W33684  12.174  21.861   8.457 -0.1467 -0.3818 -0.0632
90772W        W33685  11.037   7.440   3.976  0.0390  0.2980  0.2540
90773W        W33686   5.374   2.686  28.267 -0.1031  0.2262  0.0757
90774W        W33687  16.369  11.057  27.511 -0.0081  0.0001  0.2498
90775W        W33688  20.573  14.256   2.968  0.0237 -0.2770  0.2586
90776W        W33689  10.347   8.431   8.734  0.1310  0.2663  0.0476
90777W        W33690  14.694  19.211   0.008 -0.0383  0.3442 -0.3273
90778W        W33691   9.778   4.835   7.406  0.3277 -0.1111  0.1224
90779W        W33692  19.365   7.464  22.383 -0.1401 -0.1566 -0.0956
90780W        W33693   9.960  14.232   6.388 -0.2147 -0.0888  0.2172
90781W        W33694  14.485  11.887   7.181 -0.1780 -0.2374  0.1133
90782W        W33695   9.426  12.083  27.521  0.1660 -0.0545 -0.2929
90783W        W33696  14.958  12.975   5.000  0.2428  0.2374  0.0206
90784W        W33697  11.425  20.257   8.898  0.1730 -0.0764 -0.0799
90785W        W33698  15.289  15.711   5.833 -0.0233  0.4790  0.2350
90786W        W33699   9.464   7.018  24.827  0.2055  0.2871  0.1090
90787W        W33700   5.764  11.839  10.329 -0.1427 -0.2513 -0.0886
90788W        W33701  17.262  13.184  23.614  0.0205 -0.0687 -0.1284
90789W        W33702  20.937  11.296   6.054  0.0082  0.3948  0.0252
90790W        W33703   8.936  23.108  20.842 -0.2884  0.1222 -0.1642
90791W        W33704  13.906  14.122  28.422 -0.0200  0.1039  0.0825
90792W        W33705   7.178  11.180  27.559 -0.0578  0.0609 -0.1108
90793W        W33706  13.617   7.726   5.189  0.1566  0.1073 -0.3162
90794W        W33707  22.056   4.086   2.711 -0.1707 -0.1045  0.1753
90795W        W33708   8.864  20.889   1.811 -0.0158  0.0588 -0.0623
90796W        W33709  10.140   3.560  22.581  0.0858 -0.1427  0.0904
90797W        W33710  17.408  13.121  24.285  0.1762  0.1853  0.2899
90798W        W33711   8.954  19.266  16.180  0.1256 -0.0921 -0.1212
90799W        W33712   8.104   7.868  21.927  0.0033 -0.1344 -0.0765
90800W        W33713  16.334   6.463  29.416  0.1120 -0.1528  0.1398
90801W        W33714   2.345   8.728  27.605 -0.0164  0.0124  0.2835
90802W        W33715  16.686  11.598  23.528 -0.0798 -0.0777 -0.7115
90803W        W33716  16.041  19.313   5.853  0.2080  0.3204  0.1352
90804W        W33717  12.232   9.925   9.488  0.2805  0.0627  0.0363
90805W        W33718  13.604   5.082   9.147 -0.1415 -0.2693 -0.1424
90806W        W33719   8.181   6.628  25.561 -0.0400 -0.2149 -0.2452
90807W        W33720  11.767  17.301  26.282  0.0584  0.2726  0.2291
90808W        W33721  13.266  16.260   2.571  0.0119 -0.1360  0.0616
90809W        W33722  10.987   6.750   1.647 -0.2260  0.0722  0.0974
90810W        W33723  18.014   6.736   3.044  0.1575 -0.1862 -0.2224
90811W        W33724   6.946   9.247   0.638 -0.3285  0.2100 -0.2210
90812W        W33725  11.022   3.351   8.077  0.1384  0.1648  0.1918
90813W        W33726   7.504  14.197   5.421  0.2745  0.1694  0.3959
90814W        W33727  18.723   4.576  25.354  0.1603  0.0927  0.2446
90815W        W33728  18.957  13.518  21.139  0.1071  0.0963  0.2919
90816W        W33729   5.445   9.409   7.719 -0.1163 -0.2081  0.0209
90817W        W33730  12.082  10.782  28.674  0.2470 -0.2673 -0.1279
90818W        W33731  12.707   9.015  25.848 -0.1263  0.5868  0.3896
90819W        W33732  20.872   4.468  24.178 -0.1857  0.0972  0.4598
90820W        W33733  12.525  17.041   3.321 -0.1337  0.0668 -0.0329
90821W        W33734  24.894   4.129   6.861  0.1259 -0.3004 -0.1453
90822W        W33735   8.556  14.956  28.981 -0.0571 -0.0356 -0.4075
90823W        W33736  16.178  14.001  21.550  0.0945  0.0938 -0.2618
90824W        W33737  12.955   2.986   9.230 -0.0395  0.4160  0.1747
90825W        W33738  15.375  12.313   3.536 -0.2221 -0.0367  0.1341
90826W        W33739  15.228  18.454  28.229 -0.0074  0.1071  0.1690
90827W        W33740  14.355   4.982   5.593 -0.2842  0.0370  0.2090
90828W        W33741  12.868  24.006  23.662  0.0785  0.3066 -0.2976
90829W        W33742   7.151  11.111   2.104  0.1075 -0.0576 -0.0303
90830W        W33743   8.277  25.130   2.028 -0.0023  0.1306 -0.3410
90831W        W33744  14.314  21.882   1.362  0.1014  0.1647 -0.0120
90832W        W33745  12.961   9.960  27.143 -0.0647 -0.2956 -0.2283
90833W        W33746  15.237   2.435  21.514 -0.3166  0.0779  0.0180
90834W        W33747  31.656   8.727   8.716 -0.2184  0.0388 -0.0245
90835W        W33748   6.468  25.565   5.366 -0.2850  0.0106 -0.0182
90836W        W33749   8.299   3.698   4.252  0.0369  0.0875  0.0366
90837W        W33750  14.067  24.291   6.843  0.1709 -0.1120 -0.0899
90838W        W33751  15.146  12.781   3.615 -0.0555 -0.2014 -0.0939
90839W        W33752   9.819  13.499   1.479  0.0956  0.2096 -0.4476
90840W        W33753  15.204  14.420  26.970 -0.0945  0.3366  0.2349
90841W        W33754  14.357  14.596   2.108 -0.3051  0.1770  0.0433
90842W        W33755  12.626  10.246   5.713 -0.3899 -0.2615 -0.1670
90843W        W33756   8.771  11.995   0.956  0.2209  0.1376  0.0866
90844W        W33757  18.526  10.867  27.948  0.2423 -0.0562 -0.2703
90845W        W33758  10.357  19.067  29.072  0.2284 -0.1628  0.1321
90846W        W33759   7.869  10.277   2.932 -0.0154 -0.0308 -0.3439
90847W        W33760  14.369  17.541  24.519  0.3504  0.1199 -0.0189
90848W        W33761   8.213  11.211  28.987 -0.2773 -0.1209  0.0970
90849W        W33762  10.353  11.278  26.335  0.0193  0.1134  0.0795
90850W        W33763  15.115   4.851  27.385 -0.0036 -0.1528 -0.0893
90851W        W33764  20.662  10.177   4.125  0.0945  0.2092 -0.1400
90852W        W33765  12.647   4.383   8.416 -0.4956 -0.0106 -0.0468
90853W        W33766  14.778   5.628   3.781 -0.0797  0.0915  0.2196
90854W        W33767  13.175  16.528  29.157  0.1764  0.0571 -0.0948
90855W        W33768  18.172  19.582   5.271 -0.0241  0.1018 -0.1329
90856W        W33769  12.629   2.959  26.881 -0.1333  0.0250  0.0508
90857W        W33770  15.569   4.915  23.193  0.2649 -0.1236  0.2160
90858W        W33771  14.465  17.633  27.817  0.1041  0.2107  0.0494
90859W        W33772  14.658  10.104   5.681  0.1743 -0.0825 -0.0207
90860W        W33773   9.320   6.626   0.018  0.0016 -0.0229 -0.4680
90861W        W33774  12.697   4.455   9.364 -0.1566  0.1506  0.0828
90862W        W33775   5.723   9.318  24.510  0.0941  0.0336  0.3854
90863W        W33776  14.975   1.787  26.027  0.2345 -0.1397  0.1130
90864W        W33777  31.411   9.428  28.445 -0.1209 -0.0088 -0.1512
90865W        W33778  15.709   8.051  15.618 -0.2490  0.1207 -0.2159
90866W        W33779  23.146  15.165  28.501  0.2343  0.0024 -0.3026
90867W        W33780  10.592   9.838  29.206 -0.3311  0.0061  0.0015
90868W        W33781  12.790  11.132  25.826 -0.1626  0.2432  0.0638
90869W        W33782  12.797   6.130   7.153 -0.3838  0.0969 -0.0957
90870W        W33783  12.872   3.509  29.695  0.1767 -0.0749 -0.2093
90871W        W33784  12.785  28.072   3.743  0.1162  0.1297 -0.0144
90872W        W33785   4.452   8.341   0.314  0.0628 -0.0790 -0.0964
90873W        W33786  11.238  12.777   8.235 -0.2867  0.0169  0.1772
90874W        W33787  13.802  15.532  27.537 -0.2597  0.3501 -0.4599
90875W        W33788  13.227  14.506  21.441  0.3593 -0.1542  0.0787
90876W        W33789  10.583  10.004   0.364 -0.2045  0.0710  0.3594
90877W        W33790   1.353  11.590  27.429  0.2288  0.0228 -0.1704
90878W        W33791   5.863  26.921   7.639  0.2005  0.0655 -0.1599
90879W        W33792   4.200  14.439   6.401 -0.0128  0.1426 -0.0700
90880W        W33793   7.892  21.019  28.314  0.3670  0.3057 -0.0734
90881W        W33794  19.884  17.662   8.003 -0.0916  0.0805  0.1733
90882W        W33795  16.296  15.998  28.908  0.1270  0.1225 -0.0487
90883W        W33796   6.069  13.693  28.534  0.1127  0.2207 -0.0902
90884W        W33797  21.962  18.842   1.320  0.0385 -0.2080 -0.1332
90885W        W33798   8.827   8.993   0.428  0.1740 -0.0667  0.1903
90886W        W33799  10.162   3.832  10.308 -0.1676  0.1394 -0.0800
90887W        W33800  18.531  13.288  25.097 -0.1461  0.3414  0.0233
90888W        W33801  11.276  15.205  29.588  0.2483  0.4208  0.1578
90889W        W33802  10.828  13.952  15.618 -0.1660  0.2579 -0.0875
90890W        W33803  19.943  30.381   5.801 -0.0464  0.1060 -0.2706
90891W        W33804   3.748   3.704   7.599  0.3187  0.1073 -0.2527
90892W        W33805  14.129  24.173   9.796  0.4178 -0.2965  0.1324
90893W        W33806  16.235  21.542  25.519 -0.2583  0.0613  0.1134
90894W        W33807   7.358  13.070   1.000  0.1038  0.1837 -0.1685
90895W        W33808  14.491  17.825  26.544  0.0903  0.1865  0.2039
90896W        W33809  16.540  14.259  26.543 -0.2163 -0.3390  0.2389
90897W        W33810  16.705  12.979   2.853 -0.1540 -0.1386 -0.1351
90898W        W33811  20.630   8.626  29.150  0.0974 -0.2266 -0.0038
90899W        W33812  13.914  20.288   0.891  0.1221  0.4702 -0.0873
90900W        W33813  10.102   9.925   2.454  0.1909 -0.1207 -0.0279
90901W        W33814   0.781   3.637  26.598 -0.0856 -0.0731 -0.4883
90902W        W33815   1.241  22.167  26.065  0.1007 -0.1672 -0.1066
90903W        W33816   9.391  17.374   3.786  0.1742 -0.0905 -0.2089
90904W        W33817   2.206   9.789   0.401 -0.2900  0.1295  0.1031
90905W        W33818   1.847   7.475   4.870 -0.1240 -0.0359 -0.0841
90906W        W33819   9.688   2.204   2.180 -0.1041  0.1365 -0.3063
90907W        W33820  16.165  22.455   5.489 -0.2339  0.2993  0.0702
90908W        W33821   7.887  18.521  28.118  0.0931 -0.0910  0.0482
90909W        W33822   4.503   6.885   4.933  0.1543 -0.0346  0.4898
90910W        W33823   9.325  13.102   3.355 -0.2836 -0.2628  0.0696
90911W        W33824   8.775  20.251   2.818  0.0952  0.1575 -0.0813
90912W        W33825  23.782   8.740   3.166 -0.0735 -0.3176 -0.1533
90913W        W33826   7.888  25.887  18.243  0.1159 -0.4488 -0.1038
90914W        W33827  23.394  11.289  24.961  0.0092 -0.0689  0.1468
90915W        W33828   3.841  16.455   8.119  0.1228  0.0304 -0.3534
90916W        W33829   7.204   3.913  25.419  0.0218  0.6620  0.0009
90917W        W33830  20.354  14.425  14.301  0.0225 -0.0366  0.0776
90918W        W33831   5.846  19.562   0.671 -0.0471 -0.1003  0.0980
90919W        W33832  13.371  27.423   1.875  0.2039  0.0588 -0.1152
90920W        W33833   8.553   7.803   1.524 -0.0119 -0.0251  0.0924
90921W        W33834  11.575   2.578  27.119 -0.0827  0.1251  0.2551
90922W        W33835   9.788  13.244  23.672  0.0417 -0.2013  0.2673
90923W        W33836  11.563  17.884  26.945  0.1896 -0.0419 -0.0403
90924W        W33837  10.629   2.253   1.606 -0.4021 -0.0500  0.2111
90925W        W33838  12.934  13.741   0.476  0.2471 -0.1852  0.0601
90926W        W33839  20.124  20.617  27.570  0.0363 -0.2033 -0.1262
90927W        W33840  11.618  17.432   0.732 -0.0938 -0.1220  0.1936
90928W        W33841  12.475  19.513   7.216 -0.0815  0.2704  0.1490
90929W        W33842  21.674  20.304  17.871 -0.2758 -0.0355  0.3986
90930W        W33843  14.744   5.222   1.670 -0.3116 -0.0984  0.3192
90931W        W33844  10.823  33.430  26.382  0.1531 -0.3258  0.0524
90932W        W33845  23.529  16.208  20.318  0.2505 -0.0384  0.1977
90933W        W33846  19.044  25.464  26.774 -0.2887  0.0931 -0.0567
90934W        W33847  14.695   8.343  24.067  0.1529  0.0629 -0.1454
90935W        W33848  11.690  12.396  27.108  0.0020 -0.1154  0.1367
90936W        W33849  12.427  16.705   0.476  0.1565 -0.2311 -0.3717
90937W        W33850   9.383  10.846   0.050  0.0353 -0.0980 -0.1611
90938W        W33851  23.603  25.289  22.690 -0.0836 -0.0446 -0.1602
90939W        W33852  15.378  11.109   5.500  0.1821 -0.2641 -0.3078
90940W        W33853  15.627  13.672  27.247 -0.3047  0.2673  0.3112
90941W        W33854   9.152  19.057   6.777 -0.3756 -0.1377 -0.2680
90942W        W33855  32.806  16.201  10.157 -0.0525  0.0479 -0.0026
90943W        W33856  27.310  14.166   2.400 -0.2641  0.0105 -0.0455
90944W        W33857   7.177   6.972  27.973 -0.3149  0.0537  0.0707
90945W        W33858  13.266  14.594  28.103 -0.3213 -0.0002 -0.1215
90946W        W33859   7.683   4.736  25.759 -0.0684 -0.0029 -0.1859
90947W        W33860  19.223  18.273  26.108  0.1562  0.2891 -0.0209
90948W        W33861   8.481   6.574   2.661 -0.1358 -0.4477  0.1446
90949W        W33862  15.151   8.181  27.164 -0.0892  0.1690 -0.2705
90950W        W33863  11.507  16.524  22.421  0.1143 -0.1243  0.0287
90951W        W33864   7.418  20.630  13.551  0.2021  0.0220  0.0850
90952W        W33865   7.968  12.105   4.855  0.1660  0.1773  0.0149
90953W        W33866   6.587  15.397  18.216  0.0426 -0.0889  0.2193
90954W        W33867  21.665  12.986   5.978 -0.1497 -0.0815 -0.0101
90955W        W33868   1.203  10.987   0.375  0.0976  0.1269 -0.2141
90956W        W33869  10.266  10.602  26.746 -0.0246 -0.0728  0.1329
90957W        W33870   8.143  25.694   5.936 -0.0466  0.5851  0.3126
90958W        W33871   6.277  15.060  27.708  0.0645 -0.3645 -0.0103
90959W        W33872  10.334  12.234  21.144  0.3072  0.3998 -0.0540
90960W        W33873   9.609   8.072   8.127 -0.1167 -0.2476 -0.0246
90961W        W33874  18.969  16.802  29.514  0.0611  0.1822  0.4497
90962W        W33875   7.161  17.847   5.634 -0.2840  0.0843  0.0132
90963W        W33876   9.489  10.665   8.054  0.0900 -0.1772  0.0508
90964W        W33877  27.953   9.850   5.223  0.0068 -0.1689  0.2260
90965W        W33878   7.205  20.481   9.332  0.0002  0.1260  0.0185
90966W        W33879  20.586   6.146   4.522 -0.1349 -0.0499 -0.2846
90967W        W33880   8.175  13.402  21.784 -0.0683  0.0554 -0.1076
90968W        W33881  19.984  10.175   0.225  0.1556  0.2172 -0.1679
90969W        W33882  22.838   9.553  22.972 -0.0158 -0.0584 -0.1426
90970W        W33883  17.751  16.551  28.816  0.1696  0.1296 -0.3328
90971W        W33884  16.898  15.576   4.767  0.1066 -0.0078 -0.4108
90972W        W33885  13.602  17.390   9.018 -0.2718  0.2016  0.2934
90973W        W33886   8.757   4.947  29.258 -0.1237  0.0771 -0.1669
90974W        W33887  13.428  16.238  29.548 -0.1902 -0.1470  0.0823
90975W        W33888  11.194   2.826   0.890  0.2803 -0.1973 -0.2337
90976W        W33889  24.006  12.359   2.750  0.1392  0.0722 -0.0418
90977W        W33890   7.266   3.385  13.177  0.1739  0.3145  0.0940
90978W        W33891  22.507   6.462   0.375  0.3157  0.1535 -0.0575
90979W        W33892  18.714  21.984  20.116 -0.0049  0.1101 -0.0141
90980W        W33893  23.865  10.497   1.709  0.1662  0.1420  0.0572
90981W        W33894   3.876  12.165   3.365  0.0230  0.2448 -0.2091
90982W        W33895  16.592  14.789   1.003 -0.1115  0.2906  0.1646
90983W        W33896  12.213  18.328   0.961 -0.4741 -0.2839  0.0734
90984W        W33897  13.996   8.851  25.471 -0.1395  0.0404  0.1398
90985W        W33898  17.664  15.950   7.793 -0.2686  0.0588  0.0538
90986W        W33899   5.901   2.256  24.748 -0.1013 -0.0588 -0.2260
90987W        W33900   5.096  13.995   9.261  0.2356  0.0836 -0.1662
90988W        W33901   7.809  10.805   6.502 -0.0954 -0.0164 -0.0643
90989W        W33902  22.239  13.652  19.758 -0.0385  0.1551 -0.2617
90990W        W33903  13.700   5.757   1.136  0.0490 -0.3037  0.3179
90991W        W33904  13.733   5.422   7.516 -0.5138  0.0140  0.0451
90992W        W33905  10.866  15.483   2.528 -0.0907 -0.2963  0.0251
90993W        W33906  15.121   9.957   1.826 -0.0542 -0.2056  0.2817
90994W        W33907  15.769  19.113   0.858  0.0742  0.0830 -0.0636
90995W        W33908  32.359  24.185  16.529 -0.1453  0.5066 -0.1020
90996W        W33909   7.554   7.992   2.244 -0.1776  0.1237  0.0567
90997W        W33910   6.048  12.678  10.634 -0.1499  0.0103 -0.2473
90998W        W33911   1.329   5.502  26.782 -0.0421  0.2055  0.1576
90999W        W33912  14.610  16.693  24.670 -0.0406 -0.1090  0.0694
91000W        W33913  12.288   4.029   4.613  0.4171  0.0338  0.1381
91001W        W33914  14.174  15.383  25.752  0.3372  0.1166 -0.2304
91002W        W33915  14.174  22.984  28.501  0.1160  0.3457  0.0019
91003W        W33916   7.985  14.049   9.641 -0.1088  0.3033 -0.4134
91004W        W33917   7.703  17.177  23.487  0.0894  0.2183 -0.0818
91005W        W33918   5.289  10.596   3.565  0.0780 -0.1347  0.0771
91006W        W33919  11.418  12.622  27.744  0.0581  0.0104  0.1202
91007W        W33920  20.473  22.559  28.256  0.2677 -0.1022  0.0697
91008W        W33921  10.321  13.509   9.548 -0.2550  0.1464 -0.0039
91009W        W33922  14.726   7.140   7.037 -0.0563 -0.2531  0.0418
91010W        W33923   4.906   3.930   4.726 -0.1104 -0.0158 -0.1735
91011W        W33924  12.516   6.432   1.610  0.2318 -0.2261 -0.1546
91012W        W33925  11.113  12.031   2.459 -0.0352  0.2099  0.0630
91013W        W33926   4.986   8.516   7.748 -0.5643  0.0959  0.1007
91014W        W33927  16.849  20.133   3.494 -0.0457  0.2454  0.1763
91015W        W33928  16.670  16.096   8.891  0.0964 -0.2001 -0.1876
91016W        W33929   8.358  12.727   7.993 -0.0736 -0.0109  0.1200
91017W        W33930   1.091  12.362   1.872 -0.0038 -0.1542 -0.0806
91018W        W33931  16.955  11.863   1.724 -0.0528 -0.0544  0.1098
91019W        W33932  14.950  34.091   5.598  0.2598 -0.2945  0.1936
91020W        W33933  16.083  15.811  25.502 -0.2647 -0.0406 -0.2249
91021W        W33934  11.088  13.171   4.198 -0.1877  0.0019  0.0304
91022W        W33935   8.438   9.724   5.934  0.0141  0.1829  0.1435
91023W        W33936  25.395  17.349   6.440 -0.2068 -0.4273  0.1453
91024W        W33937  12.611  17.097   1.782  0.2666  0.1011 -0.0012
91025W        W33938   7.559  20.809   4.004  0.1827 -0.1416 -0.0256
91026W        W33939  11.843  11.556   4.163 -0.1211  0.0831 -0.0773
91027W        W33940  11.874   9.464  28.146 -0.2115  0.1071 -0.0652
91028W        W33941   6.916   5.201   1.698  0.1779  0.2582  0.1124
91029W        W33942  11.355  12.525   1.648  0.4539 -0.1771 -0.3994
91030W        W33943  12.656  12.390   4.758  0.1592 -0.3383  0.2820
91031W        W33944  23.561  11.600  28.173 -0.0643 -0.2269  0.1577
91032W        W33945  25.555   7.534   1.792  0.0454 -0.1132  0.1960
91033W        W33946  13.681   6.007   0.183  0.0562 -0.1806 -0.1602
91034W        W33947   7.057  32.180   7.759 -0.0731 -0.3161  0.0776
91035W        W33948  12.898   4.833  27.047  0.0001 -0.2046  0.1506
91036W        W33949   4.237  17.729  20.071 -0.4419 -0.0903 -0.1936
91037W        W33950  10.640  20.954   3.884 -0.5396  0.1241  0.2246
91038W        W33951   6.881  11.165   6.348  0.1797 -0.2010  0.1446
91039W        W33952  12.362  22.107   5.263  0.0628 -0.1425  0.1807
91040W        W33953   3.467   5.592  28.895  0.0630 -0.2114  0.1032
91041W        W33954   9.569   2.521   5.953  0.3187  0.0786  0.2256
91042W        W33955  14.322  14.514   1.633 -0.2086 -0.0180  0.0587
91043W        W33956  11.601   6.528  26.851 -0.0105 -0.1058 -0.1750
91044W        W33957   0.927  12.173   6.907  0.2573 -0.2861  0.0647
91045W        W33958   8.814  10.435   0.504 -0.0811  0.2128  0.1807
91046W        W33959  19.059  11.056   1.370  0.1137 -0.0533  0.1323
91047W        W33960  10.844  10.599  23.971 -0.0628  0.1373 -0.1223
91048W        W33961   1.515  19.855   5.570  0.3565 -0.1130 -0.1700
91049W        W33962  14.941  11.450   7.886  0.0693 -0.0698  0.2671
91050W        W33963   8.619  16.296  27.186 -0.0630 -0.2658 -0.2009
91051W        W33964  19.240  13.151   2.180  0.0223 -0.0481  0.2604
91052W        W33965  24.064  10.401   5.726  0.1036  0.0851 -0.3757
91053W        W33966  10.521  19.452   9.556 -0.1765 -0.2582  0.1116
91054W        W33967  15.586  20.164  22.430 -0.1895 -0.0256  0.0093
91055W        W33968   7.336  21.170  29.688 -0.0442 -0.1879 -0.0455
91056W        W33969  12.931   8.762  10.644 -0.0671 -0.1111  0.2088
91057W        W33970  16.948  12.552   4.967  0.0546 -0.1633  0.1427
91058W        W33971   5.819  13.296   6.200 -0.0700 -0.0844  0.2397
91059W        W33972   8.597  10.783   7.400  0.1412 -0.0142 -0.1373
91060W        W33973  10.596  15.440   9.088  0.0655 -0.0631 -0.0392
91061W        W33974   9.107  15.017   0.436  0.0734 -0.2251 -0.2848
91062W        W33975  13.460   9.517  29.142  0.4444 -0.1489  0.0929
91063W        W33976   4.585   6.691   5.451  0.3558 -0.0295  0.2508
91064W        W33977  15.702  16.451   6.238 -0.0394  0.0844 -0.1856
91065W        W33978   8.768  11.377   3.599 -0.1579 -0.1433  0.1691
91066W        W33979  14.504   1.291   6.340  0.0403  0.1525 -0.0786
91067W        W33980   4.864   0.611  10.232  0.0334  0.2973 -0.0755
91068W        W33981  12.274   2.154   7.927 -0.1617  0.1896  0.1180
91069W        W33982   7.920  15.173   3.660 -0.0981  0.0254 -0.2703
91070W        W33983  16.664   7.036   1.453  0.1250  0.1193  0.0148
91071W        W33984  16.558  24.357   0.124 -0.0285 -0.2176 -0.1093
91072W        W33985   1.174  19.378   9.115 -0.0195  0.0597  0.0448
91073W        W33986   5.707   9.649   8.415  0.1310  0.3045  0.3579
91074W        W33987  27.968   6.036  23.516  0.3417 -0.1007 -0.0716
91075W        W33988   9.284  12.989   8.002 -0.2513  0.0584 -0.0338
91076W        W33989  17.020  27.737   6.082 -0.1415  0.5049 -0.2094
91077W        W33990  11.424  11.063  10.004  0.0151  0.1798  0.0170
91078W        W33991  11.666   6.331  10.673  0.3174 -0.0951  0.1009
91079W        W33992  10.019   5.345  10.950 -0.0028  0.2949  0.1668
91080W        W33993   5.061   9.674  12.123  0.0116 -0.0156 -0.3399
91081W        W33994  12.422  19.476   6.101  0.2230  0.1254  0.0100
91082W        W33995  15.602  11.539  27.391  0.1001 -0.2492 -0.0376
91083W        W33996  10.010  13.072   3.985  0.0240 -0.0259 -0.0750
91084W        W33997  14.976  15.733  28.872  0.0375  0.2185 -0.3828
91085W        W33998  17.779  12.480   3.010  0.0607  0.0736 -0.1798
91086W        W33999  21.036  18.143  23.572 -0.1561 -0.2349 -0.2396
91087W        W34000   6.047  13.587  29.530 -0.0614  0.3082  0.1287
91088W        W34001  17.577   7.580   6.145  0.0269 -0.0120 -0.0545
91089W        W34002  15.017   1.825  21.069 -0.0394 -0.0763  0.0609
91090W        W34003  16.108  12.870   6.951  0.2836 -0.0136  0.3294
91091W        W34004   8.216  15.649   9.584 -0.0820  0.0307  0.3252
91092W        W34005   8.754   1.500  11.061  0.1600 -0.1949 -0.0903
91093W        W34006  13.179  18.379  26.648  0.1947  0.0949 -0.0107
91094W        W34007  10.838  12.386   6.946  0.3070 -0.1539  0.3482
91095W        W34008  19.170  13.760   7.555  0.0661  0.1014 -0.1382
91096W        W34009  11.893  17.013   9.363  0.1159 -0.2355  0.2325
91097W        W34010  16.863  17.362  25.388  0.0255 -0.3350  0.1365
91098W        W34011  12.479   5.124  27.610  0.1126 -0.0659 -0.2240
91099W        W34012  12.883  20.048   4.830 -0.3086 -0.2115 -0.2695
91100W        W34013  16.336  14.687   5.762 -0.0678 -0.2516 -0.0444
91101W        W34014   4.906   8.366  12.292 -0.0720  0.1648  0.1627
91102W        W34015  12.450  12.467   4.303  0.3247  0.0023  0.0796
91103W        W34016  20.109  18.578   7.991  0.1675  0.0389  0.4291
91104W        W34017   4.945  31.892   1.664 -0.2017  0.3196  0.0075
91105W        W34018   4.064  13.234   8.568  0.0132  0.0788 -0.1639
91106W        W34019  25.799  10.013   8.360  0.1593  0.0686  0.1719
91107W        W34020  15.778  12.951  28.603  0.2545  0.0828  0.1301
91108W        W34021  16.324  20.273   0.227  0.1467  0.1083 -0.1021
91109W        W34022  34.047  19.383   2.124 -0.1518 -0.0626 -0.2679
91110W        W34023   4.321  10.103   7.622 -0.1192  0.0808  0.2240
91111W        W34024   7.211   7.470  10.953  0.1930 -0.2623 -0.0061
91112W        W34025   8.007   3.996   6.188  0.0418 -0.1884 -0.1644
91113W        W34026  21.488  14.375   3.095  0.0792 -0.0071 -0.0420
91114W        W34027   9.186  13.119   1.052 -0.0307  0.1223  0.2880
91115W        W34028  13.344  13.814   6.738 -0.0626  0.0760  0.2062
91116W        W34029  12.736  22.057   5.940  0.2903  0.0356 -0.1913
91117W        W34030  11.029  13.352   6.046 -0.4489  0.0966 -0.2945
91118W        W34031  19.594  10.079  23.397  0.2809 -0.3979  0.2960
91119W        W34032  13.436  30.550   2.291 -0.0833  0.0389  0.0521
91120W        W34033   6.808  14.799   3.961  0.2557  0.1596 -0.0346
91121W        W34034  30.434   7.082  27.313  0.2663 -0.0590  0.2861
91122W        W34035   6.830  12.276  28.918  0.1745  0.1851  0.0773
91123W        W34036  11.199  16.046  21.692  0.1190  0.2355  0.0038
91124W        W34037   3.875  12.028   4.763 -0.4996 -0.0599  0.1120
91125W        W34038  16.934  16.183   4.129 -0.0933  0.2178 -0.1689
91126W        W34039  12.092  21.068   7.556  0.0461 -0.0540  0.3176
91127W        W34040  12.238  19.091   3.776 -0.1364  0.1943  0.0294
91128W        W34041  10.595  20.770   2.391 -0.2995 -0.2528  0.4797
91129W        W34042   3.527  13.100   7.755  0.0993  0.0213 -0.4138
91130W        W34043  11.886   9.158   5.604 -0.0909 -0.1651 -0.1117
91131W        W34044  10.381   1.700  27.849 -0.3026  0.1259 -0.1482
91132W        W34045  11.296   8.109   6.835  0.1792 -0.1023 -0.0214
91133W        W34046  11.739  20.208   8.092 -0.1204  0.1205 -0.0327
91134W        W34047   1.225   6.687  28.274  0.0462 -0.0345 -0.4630
91135W        W34048   3.657  20.614  29.001 -0.1204 -0.1372  0.2167
91136W        W34049  33.969  22.130   6.382 -0.0830 -0.2812 -0.1701
91137W        W34050  22.009  15.467  27.315  0.2406 -0.1000  0.0845
91138W        W34051  14.278  10.170   7.192 -0.0048  0.3724  0.2856
91139W        W34052   7.088   8.710   8.160 -0.2508 -0.0604 -0.1771
91140W        W34053  15.710  13.554   0.499 -0.0092 -0.1294 -0.0280
91141W        W34054  12.583  13.460   0.241  0.1945 -0.0989 -0.0502
91142W        W34055  12.370  17.332   7.303  0.2364 -0.0508 -0.1021
91143W        W34056   4.699  32.935   9.790  0.2452  0.1431 -0.0846
91144W        W34057   0.287   9.701  10.971 -0.0384 -0.0469 -0.0039
91145W        W34058  22.908  16.048   1.120 -0.3389  0.3918  0.0916
91146W        W34059  16.385  11.384   0.241  0.3698 -0.2362  0.0652
91147W        W34060  18.566  19.713   1.408 -0.0745  0.0089 -0.4535
91148W        W34061  14.663  19.623   3.156 -0.1754 -0.1059  0.0235
91149W        W34062   3.283   9.238   3.200  0.0227 -0.0233  0.1096
91150W        W34063  11.951   4.875   9.449 -0.0525 -0.0398  0.0567
91151W        W34064  13.252  15.684   0.641  0.1461  0.0102 -0.2962
91152W        W34065  20.539  10.199  29.194 -0.2127 -0.1269 -0.0501
91153W        W34066  18.623  12.291   3.429  0.2253 -0.2148 -0.0459
91154W        W34067  12.848  18.311  29.527 -0.0057 -0.0985  0.0526
91155W        W34068  15.923  12.288  24.237 -0.1020  0.2496  0.1082
91156W        W34069  13.053  11.802   6.842 -0.2100  0.0396 -0.0139
91157W        W34070  13.362   4.275  11.395 -0.2509  0.2363 -0.1285
91158W        W34071  15.939  11.558   4.390 -0.1520  0.1590  0.2252
91159W        W34072  17.715   7.321   4.402 -0.0461  0.0368 -0.5799
91160W        W34073   7.465   2.485   8.401  0.2957 -0.1406  0.0246
91161W        W34074   0.721  13.969   7.878  0.2209 -0.1571 -0.2517
91162W        W34075   5.538  10.410  11.607 -0.2787  0.2472 -0.1575
91163W        W34076  11.120  10.291   5.665  0.0869 -0.0516  0.0860
91164W        W34077  10.421   3.651   7.226 -0.2893  0.0462 -0.2861
91165W        W34078   4.326  31.014   5.968  0.0270  0.2638  0.5336
91166W        W34079  10.375  26.746   9.720  0.0287 -0.3794 -0.1411
91167W        W34080  15.546  21.614   8.509  0.0904  0.1985 -0.0070
91168W        W34081   5.175   4.856  10.611 -0.0442  0.2695  0.3568
91169W        W34082   8.496  14.559   4.801 -0.3545 -0.1310 -0.1107
91170W        W34083  17.701  16.569  24.055 -0.2570  0.1035  0.2355
91171W        W34084   1.746   8.925  26.302  0.3027  0.0334 -0.0188
91172W        W34085  11.925   4.172  10.517  0.2578  0.0240  0.0992
91173W        W34086  20.540  18.136  23.906 -0.3465  0.1400 -0.0473
91174W        W34087  12.004  21.053   2.046  0.2330  0.2196  0.2348
91175W        W34088   8.113   7.935   6.934 -0.0597  0.0522  0.1470
91176W        W34089   9.537  20.376  27.592  0.2013  0.1330 -0.0577
91177W        W34090  15.725  15.216  28.439 -0.4733  0.0666  0.0207
91178W        W34091  13.155   7.803  28.338 -0.0107 -0.1010 -0.1132
91179W        W34092  16.091  17.421  27.602  0.1003  0.4037  0.1503
91180W        W34093   4.237  14.275   4.530  0.0164  0.0831  0.2095
91181W        W34094   8.922   4.580   6.115  0.2162  0.2537  0.4003
91182W        W34095  17.320  22.815   7.437  0.1073  0.2077  0.5189
91183W        W34096   8.712   0.224   9.616 -0.1424 -0.1750  0.2412
91184W        W34097  13.482   8.008   7.240  0.2978 -0.3284  0.1467
91185W        W34098   7.426  15.567  28.373  0.0189  0.2717 -0.1468
91186W        W34099  11.478  10.533   1.109  0.0187  0.1713 -0.0636
91187W        W34100   6.894  21.463   2.062 -0.0696  0.0550 -0.0056
91188W        W34101   8.827   9.484   3.628 -0.0172 -0.1707  0.4190
91189W        W34102  11.646  10.731   5.295  0.1325  0.3261 -0.0137
91190W        W34103   1.158   7.827  26.969 -0.0207 -0.2889  0.3415
91191W        W34104  10.096   9.751   7.564  0.4456  0.0509  0.1237
91192W        W34105  15.519  12.636   5.262 -0.2232 -0.1686  0.0466
91193W        W34106  10.195  23.089   6.696  0.2217  0.1400  0.3263
91194W        W34107  18.596  12.038   4.493 -0.1639 -0.1071  0.0261
91195W        W34108  19.612  17.584   2.876  0.2251 -0.3107 -0.2389
91196W        W34109  13.421  13.078   3.813  0.0190 -0.2122 -0.0300
91197W        W34110  13.152  19.544  28.976 -0.4925 -0.0153  0.2284
91198W        W34111   4.068   0.657  11.267  0.0296  0.1112 -0.1630
91199W        W34112  14.378  16.559  28.186  0.0579 -0.1075  0.0643
91200W        W34113  16.069  11.528  26.353  0.1840  0.0214  0.1785
91201W        W34114   6.312  10.402   2.743 -0.5005  0.1462 -0.3488
91202W        W34115  18.771  16.131  26.710 -0.1449  0.0207  0.1576
91203W        W34116  18.576   9.249   9.499 -0.1280  0.2089 -0.2968
91204W        W34117  10.995  12.553  24.508  0.1894  0.5440  0.0280
91205W        W34118  10.464  16.619   4.845 -0.2863  0.0652  0.0682
91206W        W34119  14.241  11.354   1.075  0.0927  0.3277  0.1186
91207W        W34120  13.088  10.513   1.220  0.1945  0.0912  0.2910
91208W        W34121  10.192   6.573  19.563 -0.1406  0.0035 -0.2288
91209W        W34122  15.612  15.568   2.218 -0.0219  0.0635  0.0421
91210W        W34123  10.211  16.106   7.228 -0.0280 -0.0375 -0.0975
91211W        W34124  13.024  10.957   9.394  0.0187  0.1884 -0.2136
91212W        W34125  32.568   8.812   8.587  0.2759  0.1769  0.3241
91213W        W34126   8.415   9.980   9.337  0.2548 -0.0199  0.2558
91214W        W34127   6.474   4.728  12.910 -0.1230  0.4325  0.0296
91215W        W34128  12.815  22.628   3.314 -0.2579 -0.2514  0.0313
91216W        W34129   3.889   1.792   0.902 -0.1648  0.3294  0.0731
91217W        W34130  10.183   3.417   7.788  0.3379  0.0942  0.4365
91218W        W34131  13.223  11.263   2.239  0.1219 -0.0500 -0.1917
91219W        W34132  15.229   8.016   6.828  0.2436 -0.2623  0.2189
91220W        W34133  11.119  21.011   5.591 -0.0829 -0.1914  0.0305
91221W        W34134   8.050  15.145   9.647 -0.0331 -0.1284  0.1614
91222W        W34135   2.495  14.478   8.634  0.2069 -0.2002  0.3055
91223W        W34136   2.087  15.103   6.445 -0.0552  0.0035 -0.1009
91224W        W34137  15.676  25.602   8.979  0.2611 -0.0568 -0.0045
91225W        W34138  17.467   8.982   3.338 -0.1662  0.1181 -0.1435
91226W        W34139  11.798  33.935   6.283  0.1651  0.4043  0.1309
91227W        W34140  16.614  21.784   1.759  0.2672  0.1117 -0.1249
91228W        W34141  15.849   0.526   2.881 -0.2190  0.0157 -0.4257
91229W        W34142  14.899   4.810   2.965 -0.0408 -0.1447 -0.2432
91230W        W34143  12.469  15.042   2.685  0.0467 -0.0018  0.1064
91231W        W34144  19.755  13.240   4.299 -0.1171  0.1263  0.0103
91232W        W34145  10.425   8.114  11.174 -0.0812 -0.1153 -0.1000
91233W        W34146  10.926  15.138   5.733 -0.0349  0.4408  0.0242
91234W        W34147   7.810   6.326  11.564 -0.1450 -0.1530 -0.2768
91235W        W34148  15.743  15.184  25.840  0.0864 -0.0253  0.4678
91236W        W34149  18.748   3.454   9.727  0.0174  0.2680  0.1627
91237W        W34150  13.428  19.024   2.566 -0.0234 -0.0296  0.1140
91238W        W34151  24.582  12.982   3.093 -0.0840 -0.1100  0.1118
91239W        W34152   7.744  17.958   8.488 -0.3150 -0.0543  0.0957
91240W        W34153   7.079   9.426  22.079  0.4105  0.2570 -0.2307
91241W        W34154   3.599  10.251   6.940 -0.0913  0.3260 -0.3087
91242W        W34155  10.912  24.582  26.674  0.2631 -0.1969  0.0712
91243W        W34156  10.235  13.432   2.395  0.1661  0.0463 -0.0168
91244W        W34157  13.662   7.297   1.764 -0.0346 -0.0686 -0.1792
91245W        W34158  10.368   3.442   3.887  0.3168 -0.2267 -0.2567
91246W        W34159  13.484  17.245   6.913  0.1973 -0.2311  0.0454
91247W        W34160  25.070  20.554   5.068  0.2391  0.0705  0.0828
91248W        W34161  20.526   5.703   2.383 -0.2198 -0.2186 -0.0690
91249W        W34162   7.677  14.722   5.571 -0.0467  0.0785 -0.1165
91250W        W34163   8.527  14.176  26.150 -0.1483  0.3414  0.0731
91251W        W34164  17.277   7.611  24.894  0.0237  0.2946  0.0579
91252W        W34165  22.005  14.078   6.190 -0.0877  0.1112 -0.0481
91253W        W34166   6.722   6.351  11.752  0.1459 -0.1987  0.0461
91254W        W34167  11.338  13.823   3.595 -0.0148 -0.4411 -0.1027
91255W        W34168  24.249  17.430   6.152 -0.1497  0.2043 -0.1173
91256W        W34169  11.529   8.325   5.017 -0.0352 -0.0310 -0.0657
91257W        W34170  12.688   3.189   0.639 -0.2634  0.0718  0.3470
91258W        W34171  11.269  15.696   3.410 -0.1837  0.1780 -0.2066
91259W        W34172   5.849  31.545   0.519 -0.1120  0.0040 -0.3704
91260W        W34173   4.431  11.525   8.117  0.0915  0.1072 -0.0646
91261W        W34174  11.624   2.973   5.918  0.0531  0.0331  0.2716
91262W        W34175   3.072   2.099  26.650  0.0116 -0.2513 -0.2956
91263W        W34176  12.211   7.448  10.615  0.1035  0.0826 -0.0017
91264W        W34177  12.675   9.049   4.298  0.2322  0.0753 -0.1130
91265W        W34178  16.226   6.667   7.606 -0.1914 -0.1245 -0.0493
91266W        W34179  16.648  16.468   6.160 -0.3613 -0.0670 -0.1689
91267W        W34180   9.636  19.302   5.254  0.0374 -0.3370 -0.0092
91268W        W34181  14.561  10.626   5.596  0.1797 -0.1768 -0.1652
91269W        W34182   9.563   6.209  29.452  0.3422 -0.2978  0.0463
91270W        W34183   7.821   5.418   2.623 -0.1370  0.2534  0.0925
91271W        W34184  13.836  22.583   5.485 -0.0926 -0.1087 -0.5201
91272W        W34185   7.930  25.018   5.696  0.0182 -0.1503 -0.1466
91273W        W34186  13.247  12.428   0.603 -0.1638 -0.0445  0.1963
91274W        W34187   4.440  15.263   7.101 -0.1883  0.0728  0.1754
91275W        W34188   6.323   9.999  11.459  0.1780  0.0556 -0.1661
91276W        W34189  10.995  14.684   5.061  0.1074  0.0518  0.1867
91277W        W34190  11.975  18.183   5.973 -0.3295 -0.0407  0.1912
91278W        W34191  25.249  13.750   5.490  0.4957 -0.3480 -0.1295
91279W        W34192  15.117  19.459   6.960 -0.1126  0.5178  0.0025
91280W        W34193  12.059  20.045   7.744 -0.1608 -0.2148  0.0232
91281W        W34194  13.351  18.010   5.132  0.0796  0.0520 -0.0222
91282W        W34195  15.727  16.759   2.056  0.0510  0.2447  0.1398
91283W        W34196  30.725   6.412   6.053 -0.0234 -0.1727 -0.0632
91284W        W34197  13.094  23.354   2.670  0.0101  0.0210  0.1571
91285W        W34198   9.140   6.623  11.789 -0.1078  0.0272  0.0323
91286W        W34199  17.391  13.115   5.104 -0.2226 -0.1827  0.5580
91287W        W34200  20.402  13.161  29.095 -0.1013  0.2703  0.2544
91288W        W34201   9.141   6.296  11.370  0.0055  0.0461  0.2417
91289W        W34202  13.852  21.382  25.845  0.1219  0.1314  0.0878
91290W        W34203  10.695   8.845  10.452  0.0083 -0.0680  0.0071
91291W        W34204  19.700  15.137   4.755  0.5174 -0.0068  0.0720
91292W        W34205  25.727  21.987  29.233  0.0574  0.4087  0.1856
91293W        W34206   6.036  24.519   1.300 -0.0765 -0.0831 -0.0905
91294W        W34207  10.061  23.954  16.660  0.1423  0.0925 -0.2647
91295W        W34208  16.505   1.691   4.634 -0.0101 -0.2762 -0.1953
91296W        W34209  14.298  25.652   8.268 -0.0008  0.0201 -0.2725
91297W        W34210  18.832   7.511   8.631 -0.1686  0.1451 -0.1098
91298W        W34211  16.964   9.374   6.180 -0.1426  0.1101 -0.2015
91299W        W34212  17.954  12.292  25.371 -0.1374  0.1132 -0.2008
91300W        W34213   1.636  11.919   7.596 -0.0980  0.1513  0.4127
91301W        W34214  14.838  25.848  29.152  0.0581 -0.0949 -0.2802
91302W        W34215   5.038  13.862   3.383 -0.3148  0.0477  0.0379
91303W        W34216  18.532   7.128   5.925  0.0524  0.3569 -0.3187
91304W        W34217   7.645   2.419   8.866  0.0801  0.2806  0.0283
91305W        W34218  18.913   5.928  27.892 -0.0251  0.0150  0.1403
91306W        W34219  14.733  13.771   1.949  0.2880  0.1618 -0.0951
91307W        W34220  15.685  12.149   3.089  0.0891  0.0614 -0.1485
91308W        W34221  17.509   8.162   1.754  0.0867  0.1800 -0.1465
91309W        W34222  12.387   9.629   0.178  0.1386 -0.0077  0.1916
91310W        W34223  16.273  18.464   4.865  0.1355 -0.0231 -0.2744
91311W        W34224   5.747   9.096  29.009 -0.0211  0.2587 -0.0752
91312W        W34225   8.406  15.207   5.590  0.4074  0.3542 -0.0252
91313W        W34226   5.766   7.322   3.388  0.0360 -0.0637 -0.2118
91314W        W34227  16.480  12.334   4.440 -0.0565  0.1043  0.2839
91315W        W34228  13.994  32.243  24.903 -0.0030 -0.1360 -0.2230
91316W        W34229  10.846   4.650  11.062  0.0778 -0.3670 -0.3777
91317W        W34230  16.579   0.978  25.685 -0.2034 -0.2125 -0.0073
91318W        W34231  17.238  25.445   0.609  0.3948 -0.0006  0.1656
91319W        W34232   2.830  16.206   4.704 -0.2163  0.1366 -0.2564
91320W        W34233   5.208   4.473   9.399  0.2370  0.1519  0.1555
91321W        W34234  11.071  20.652   2.452  0.0721 -0.0282  0.1834
91322W        W34235  18.081  30.525   8.525 -0.0092  0.0078  0.1233
91323W        W34236  16.412  13.577   4.439 -0.1049  0.0752  0.1221
91324W        W34237  12.729  19.748  18.970 -0.3285 -0.1441 -0.0316
91325W        W34238  15.942  22.150   1.390  0.0001  0.1522 -0.2863
91326W        W34239  10.571  18.829  23.575  0.3015  0.0033  0.0406
91327W        W34240  15.463  21.835   7.532 -0.3221 -0.2481 -0.0267
91328W        W34241  22.816  13.525  28.885  0.1700 -0.1067  0.0296
91329W        W34242  11.129   9.778  29.379  0.2771 -0.2246 -0.0086
91330W        W34243  28.031   8.988   6.619 -0.0353  0.0932  0.1033
91331W        W34244   1.182   4.023   9.089 -0.2350  0.1002  0.2560
91332W        W34245   8.311  14.195   5.077 -0.2878 -0.0818 -0.0803
91333W        W34246   7.885   9.789  29.023 -0.1185  0.0082  0.3271
91334W        W34247  14.173  23.056   2.704  0.1785  0.1760  0.1479
91335W        W34248   6.106  12.457   2.859  0.2269  0.1313 -0.0591
91336W        W34249  10.404  21.722   8.956  0.0813 -0.2969  0.1809
91337W        W34250   8.928   5.956  10.197 -0.3209  0.1737  0.3799
91338W        W34251  18.214  13.608  24.887 -0.0513 -0.1267 -0.2256
91339W        W34252   9.853  12.332   3.743  0.1368 -0.1445 -0.1117
91340W        W34253  26.072   7.463  28.491 -0.1234  0.0564 -0.1966
91341W        W34254  17.650  22.504   6.419 -0.0156 -0.0172 -0.1458
91342W        W34255   3.853  12.289  29.400 -0.1218  0.2559  0.1504
91343W        W34256  10.788  31.380   3.909 -0.0760 -0.1160 -0.2602
91344W        W34257   3.110  14.702   4.755  0.1980  0.1144  0.1940
91345W        W34258  16.107  14.392   2.731 -0.0334  0.1003 -0.1799
91346W        W34259   8.429  23.552   4.847  0.3122  0.1297 -0.0543
91347W        W34260   8.022   4.807  13.819  0.0315  0.2437  0.1084
91348W        W34261  11.174   5.497  10.916  0.1780 -0.1404 -0.0276
91349W        W34262   1.388  13.034   1.439 -0.2109  0.1548  0.2087
91350W        W34263  13.562   9.978  25.903  0.3911 -0.1365 -0.3078
91351W        W34264  15.560  18.370   5.941  0.0461 -0.1040  0.0495
91352W        W34265   5.305   5.000   7.310 -0.2356 -0.1037 -0.2658
91353W        W34266  25.255  26.004   6.884 -0.2967 -0.0093 -0.0294
91354W        W34267  18.931  16.048   3.433  0.0070  0.0666  0.0327
91355W        W34268   9.186  21.314   6.385  0.0791 -0.0502 -0.0855
91356W        W34269  13.199  14.370   2.714 -0.2120 -0.1789 -0.1202
91357W        W34270  12.212  11.451  24.922 -0.2339 -0.1048 -0.1220
91358W        W34271  11.369  17.751   5.281  0.0890 -0.1670  0.2102
91359W        W34272  16.054  10.059  24.984  0.0033 -0.1821  0.1015
91360W        W34273  14.713   7.900   2.267 -0.2544 -0.0495 -0.1866
91361W        W34274   7.797  16.806   8.623 -0.4548  0.4014  0.0050
91362W        W34275   8.186   0.892  10.740 -0.2228 -0.0486  0.1555
91363W        W34276   5.631   8.857   3.624 -0.0084 -0.1997  0.1168
91364W        W34277  10.752   9.006  11.047  0.0480 -0.0086  0.1713
91365W        W34278  16.918  18.257   6.292 -0.1246  0.0914  0.1413
91366W        W34279  27.422  15.914   1.871  0.1046  0.1812 -0.0935
91367W        W34280   5.151  17.652   9.123  0.1648 -0.4355 -0.2147
91368W        W34281  24.013  20.063   3.252  0.1345  0.0883  0.1496
91369W        W34282   1.547   4.958   1.396  0.3483  0.0532 -0.0186
91370W        W34283   9.139  15.623  28.771  0.2198 -0.2415  0.3580
91371W        W34284  11.642  25.179   7.766  0.0942  0.2883  0.0759
91372W        W34285   2.320  12.559   9.274  0.0974 -0.1854 -0.0960
91373W        W34286  14.206   6.085   5.570  0.0630  0.2379  0.1069
91374W        W34287  10.435  14.874   8.519 -0.2401  0.0166 -0.0670
91375W        W34288  12.563  17.345   7.768 -0.0156 -0.1202 -0.0458
91376W        W34289  13.485  11.889  29.628 -0.3460  0.1196 -0.0475
91377W        W34290  11.282  13.911  29.584  0.2474  0.0907  0.2027
91378W        W34291  12.383   6.457  28.055 -0.1001 -0.0818  0.1905
91379W        W34292  20.736   9.342   7.282 -0.1526 -0.2466 -0.0859
91380W        W34293  33.099   6.125   2.295  0.0507  0.0206  0.1824
91381W        W34294  12.995  10.640   7.599 -0.2605 -0.2429 -0.0891
91382W        W34295  13.764  20.561   8.246  0.3081 -0.0005 -0.0062
91383W        W34296   9.355   3.265  11.642 -0.0920 -0.1043 -0.0740
91384W        W34297  33.432  10.141   1.974  0.3073 -0.1691  0.1756
91385W        W34298   8.321  11.310   9.484 -0.1268 -0.0833 -0.3013
91386W        W34299  23.094  14.293   2.565 -0.1395  0.0426  0.1434
91387W        W34300  12.504  13.001   4.010  0.2138  0.3615  0.1512
91388W        W34301   6.137  13.303   1.360  0.0553  0.1306 -0.1733
91389W        W34302   7.019  13.666   5.604  0.0361 -0.0269  0.2175
91390W        W34303  20.415  13.854   2.591  0.2394 -0.0520  0.1916
91391W        W34304   4.850   5.393   6.111 -0.1572 -0.1304  0.1412
91392W        W34305  17.172   6.115  27.656 -0.1246  0.1868 -0.1241
91393W        W34306  16.380  15.761   0.383 -0.3999 -0.1761 -0.2843
91394W        W34307   6.090  12.510   8.291  0.0730  0.3139  0.0944
91395W        W34308  29.123  14.297   7.270 -0.0242 -0.0936 -0.0922
91396W        W34309  10.174   6.767   8.177  0.1879 -0.2058 -0.1201
91397W        W34310   1.043   4.262   2.844  0.0116 -0.1411  0.2220
91398W        W34311  19.482  16.911   4.139 -0.3366 -0.1489  0.1410
91399W        W34312   8.356   5.732   4.558 -0.0660 -0.3133  0.2095
91400W        W34313   9.519  10.342   1.905  0.1818 -0.3677 -0.2226
91401W        W34314  15.875  17.847   6.956 -0.4593  0.0096 -0.0512
91402W        W34315  17.301   5.980   9.524 -0.2001 -0.1043  0.0540
91403W        W34316  16.417  20.235   7.832 -0.0355 -0.1640 -0.0659
91404W        W34317  12.369  14.266   9.107 -0.1629 -0.2026 -0.0499
91405W        W34318  17.526   3.391   9.297  0.2044  0.1049 -0.0635
91406W        W34319   9.643  20.386   5.174 -0.1511 -0.0834  0.0021
91407W        W34320   9.749  11.158   8.390  0.0463 -0.1939 -0.3133
91408W        W34321   9.200  16.375   7.574 -0.0303  0.1996 -0.1988
91409W        W34322   9.627   8.644   7.194 -0.0904  0.1561 -0.0783
91410W        W34323  18.478  11.559   5.573  0.3326 -0.1993 -0.3591
91411W        W34324  14.616  14.189  18.623 -0.1414 -0.0661 -0.1480
91412W        W34325  10.108  13.740  24.557  0.5803 -0.2362 -0.0514
91413W        W34326  11.338   9.905   1.736 -0.0947  0.0733 -0.1767
91414W        W34327  22.806  16.479  29.231  0.0917 -0.0074 -0.1632
91415W        W34328  19.232   8.377  26.748  0.3496  0.1145 -0.0195
91416W        W34329   7.183  12.751   5.917  0.1523  0.1032  0.2056
91417W        W34330   6.263   5.624   0.232  0.3901  0.1891 -0.1692
91418W        W34331  21.418  10.562  29.578 -0.1626 -0.2932  0.0718
91419W        W34332  13.457   9.516   0.968  0.3372 -0.0701 -0.3511
91420W        W34333  14.311  10.686   4.546  0.1732 -0.0490 -0.0039
91421W        W34334  14.493  13.567   7.272 -0.1817  0.4740 -0.1452
91422W        W34335  18.571  14.431   7.089 -0.4176  0.0464 -0.3367
91423W        W34336  12.833   7.672   4.112  0.0468  0.0268 -0.0551
91424W        W34337   6.290  10.418   5.857 -0.0990  0.3590  0.3299
91425W        W34338   7.082   4.710   8.577 -0.1926 -0.0575 -0.2833
91426W        W34339  11.582  17.425   7.601  0.2582  0.3947  0.0552
91427W        W34340   8.731   8.996   6.583 -0.1402  0.0671  0.2110
91428W        W34341  32.276   9.004   3.202 -0.0292 -0.0602  0.1366
91429W        W34342  16.786  10.145   5.096 -0.0735 -0.0684 -0.1491
91430W        W34343   9.603  13.137   9.257 -0.0220  0.2018  0.1192
91431W        W34344  13.908  13.885  29.705 -0.0532 -0.0281  0.2524
91432W        W34345   8.805  13.289   5.457  0.1648 -0.0738  0.0253
91433W        W34346   9.225   9.541   4.495  0.0593 -0.0816  0.3659
91434W        W34347  10.500   1.942   4.523  0.2161  0.0344  0.0054
91435W        W34348   9.889   0.417   5.772  0.2632  0.0275 -0.0702
91436W        W34349  12.037  14.300  29.454 -0.3434 -0.0569 -0.0023
91437W        W34350   2.964  20.175   2.982  0.1324 -0.1124  0.1487
91438W        W34351  20.662   0.932  29.690 -0.2091  0.1196  0.0484
91439W        W34352  13.151  24.844   4.904 -0.0441  0.0805 -0.1976
91440W        W34353   6.635  13.465   8.861  0.1497 -0.0769  0.1478
91441W        W34354   8.656  31.817   9.735 -0.0859  0.0866  0.2748
91442W        W34355  16.963  12.305   2.505  0.1975  0.0081  0.2005
91443W        W34356  14.376   1.359   0.767 -0.0372 -0.0544 -0.3955
91444W        W34357  19.158  13.415  20.631 -0.2091 -0.0640  0.3083
91445W        W34358  15.233  12.239   8.522 -0.1051  0.1407 -0.1411
91446W        W34359  15.333  17.649   6.561  0.2141  0.2402  0.0353
91447W        W34360   7.290   7.817   3.151 -0.0607 -0.2309  0.0065
91448W        W34361  28.394  17.984  28.183 -0.1747  0.0347 -0.4576
91449W        W34362   5.286   9.323   5.925  0.0188 -0.2788 -0.3691
91450W        W34363   7.523   7.420   8.121 -0.1423  0.1410  0.2580
91451W        W34364  11.154   7.861   0.804 -0.2857  0.1825 -0.1389
91452W        W34365  10.514  11.746   7.800 -0.0142  0.0628  0.6221
91453W        W34366  16.566  14.315  21.769 -0.1554  0.1146 -0.1221
91454W        W34367   7.293   5.684  12.052 -0.1105 -0.0376  0.2417
91455W        W34368  21.814  21.202   6.612 -0.1958 -0.0719 -0.1548
91456W        W34369   9.736  16.312   9.342  0.0311  0.0957 -0.2919
91457W        W34370  13.469  10.416   1.781 -0.0712  0.0286 -0.0019
91458W        W34371   2.838  12.435   4.190  0.0431  0.3334 -0.6110
91459W        W34372  14.235  16.443   8.874 -0.1848 -0.0207 -0.0370
91460W        W34373  14.060  16.980   6.100 -0.1368 -0.0524  0.1310
91461W        W34374   9.861   4.983   1.803  0.1874 -0.0477 -0.0182
91462W        W34375  10.036   6.526   7.160 -0.0616  0.1637 -0.1938
91463W        W34376  16.856  18.147   8.321  0.2239 -0.1235  0.0113
91464W        W34377   9.067   5.781  10.750  0.1903 -0.0893  0.1593
91465W        W34378   0.402   6.958   3.861  0.1053 -0.4559  0.1884
91466W        W34379  18.974   6.975   6.188  0.0350 -0.0486 -0.0786
91467W        W34380  15.658  11.443   5.781  0.0806  0.0536  0.2348
91468W        W34381   9.835  17.841   7.152 -0.3125 -0.0033  0.0883
91469W        W34382   3.571  32.553  10.631  0.0582 -0.2753  0.0226
91470W        W34383   8.723  13.666   9.442  0.2164 -0.1081  0.0480
91471W        W34384   7.355   3.482   4.537  0.1565 -0.0778 -0.3032
91472W        W34385  14.179   3.530   5.870 -0.0816 -0.2197  0.0460
91473W        W34386   9.262   6.615   6.526  0.1588  0.0251  0.1065
91474W        W34387   9.837  17.657   8.818 -0.0581  0.2395 -0.1360
91475W        W34388   6.435  10.783   4.410 -0.1662 -0.2290 -0.0880
91476W        W34389  11.071  13.620   4.021 -0.2418  0.0484 -0.1401
91477W        W34390   9.670   0.358  13.436  0.0770 -0.1824  0.2961
91478W        W34391   7.113  30.828   1.734 -0.0316 -0.0590  0.2151
91479W        W34392  13.901  10.457   4.240  0.0104  0.2050  0.3174
91480W        W34393  14.763  12.559   2.788  0.0229 -0.0570 -0.1040
91481W        W34394  11.441   8.667   7.883  0.2254 -0.0970 -0.3817
91482W        W34395   5.934  23.728  10.197 -0.2223 -0.0517 -0.2146
91483W        W34396   9.991   6.163   3.218  0.0083 -0.0901 -0.0860
91484W        W34397  16.392  15.307  26.815  0.0844  0.1749 -0.0272
91485W        W34398   8.450  10.101  10.383  0.0998  0.0266 -0.0176
91486W        W34399   4.890  12.096  10.876  0.0712  0.2625  0.1898
91487W        W34400  16.979   9.379   5.682  0.4141  0.1250  0.1959
91488W        W34401  16.198  10.031   7.162  0.2570 -0.0614 -0.1148
91489W        W34402  10.035   7.349  10.175 -0.0907 -0.1927  0.0196
91490W        W34403  10.443   3.023  10.911  0.0032 -0.2979 -0.0071
91491W        W34404  16.469  10.427   9.272 -0.1505  0.0761 -0.0912
91492W        W34405  10.215   7.038   9.256 -0.0772  0.3046  0.1274
91493W        W34406   8.849  21.063   4.124 -0.1088  0.1871  0.1159
91494W        W34407   0.857  11.607   9.809 -0.5364  0.1293  0.2987
91495W        W34408  17.907  13.086   6.925 -0.0772  0.4381  0.2737
91496W        W34409  21.992  14.948   8.958 -0.1240 -0.0593  0.0830
91497W        W34410  20.437  10.925   7.452 -0.0220  0.1335  0.0148
91498W        W34411   2.726  22.978   6.102  0.3449  0.2598 -0.1652
91499W        W34412   8.360   3.718  10.574 -0.1922 -0.1193  0.1968
91500W        W34413  14.657  14.163  27.175 -0.1845  0.2884  0.1881
91501W        W34414  16.605  18.487  27.463  0.1081 -0.1266  0.2015
91502W        W34415   7.948   5.091   2.284  0.0764  0.1497  0.0129
91503W        W34416  10.577  34.092   7.300 -0.0963  0.0757  0.2374
91504W        W34417  14.493  11.885   1.940 -0.2620  0.2881  0.0713
91505W        W34418   6.044  18.779   8.143  0.0184 -0.2113 -0.0516
91506W        W34419  11.776  11.210   7.161  0.1265 -0.0357  0.1414
91507W        W34420   8.917  15.872   7.734 -0.4936  0.1071 -0.1179
91508W        W34421   8.904  10.890   0.406 -0.1793  0.1000 -0.0467
91509W        W34422  14.895   9.074   8.427 -0.0673 -0.5296 -0.1428
91510W        W34423  13.593  18.245   4.787 -0.2124  0.0258 -0.0926
91511W        W34424   7.490  13.935   0.731  0.1602  0.0468 -0.3612
91512W        W34425   6.575  15.396   8.186  0.1878 -0.2099  0.0787
91513W        W34426  11.713  16.537  27.086 -0.2333 -0.0430  0.1653
91514W        W34427   5.895   4.564   7.800 -0.0172 -0.1813  0.3561
91515W        W34428   3.926  12.844  10.016 -0.0682 -0.4661 -0.2046
91516W        W34429  13.224   5.911   5.612 -0.1329  0.3039 -0.4287
91517W        W34430  13.760   6.671   9.313  0.0709 -0.0745  0.2989
91518W        W34431  12.774   4.190   2.575 -0.2377 -0.0516 -0.3994
91519W        W34432  28.235   1.284   9.481 -0.1940  0.1144  0.1992
91520W        W34433   2.905  12.239   6.683 -0.0079  0.2586  0.0235
91521W        W34434  14.608   5.662   2.612  0.0268  0.2513  0.2405
91522W        W34435  15.019  11.687   8.914  0.1634 -0.2596  0.0030
91523W        W34436   8.253  28.377   8.814 -0.0059  0.1962  0.0567
91524W        W34437   8.217  14.299   7.088  0.1449  0.0859  0.1008
91525W        W34438  14.467  10.277   4.258 -0.0770 -0.3405 -0.2662
91526W        W34439   9.563  31.026   6.256 -0.2542 -0.2707 -0.1548
91527W        W34440  19.681   3.401   9.453 -0.1051  0.0904  0.0879
91528W        W34441   6.750   4.828  10.433  0.1866 -0.0182 -0.1255
91529W        W34442   3.000   8.887   3.563 -0.0941  0.0485  0.1102
91530W        W34443   9.980  10.872   8.028  0.0069  0.0468 -0.2404
91531W        W34444   8.449   1.738   5.202  0.1203  0.1716 -0.1172
91532W        W34445  19.678  15.249  27.089  0.1222  0.2545  0.3966
91533W        W34446  11.859  30.741   3.247 -0.5065 -0.1312 -0.0517
91534W        W34447   9.050   2.985  10.338 -0.1772  0.3810 -0.0009
91535W        W34448  11.240   7.231   6.521  0.0974 -0.1243 -0.0734
91536W        W34449  33.522   5.020  10.957 -0.1137  0.5610 -0.3972
91537W        W34450  13.791  15.020   4.293  0.3214 -0.2922  0.0984
91538W        W34451   6.347  14.737   9.407  0.0768  0.2503 -0.2161
91539W        W34452  15.981  13.081  27.661 -0.0183 -0.1573  0.1113
91540W        W34453  16.546  29.682   2.256  0.3259  0.1205 -0.0198
91541W        W34454  12.176   0.186   6.538 -0.0473  0.1192  0.1989
91542W        W34455  29.322  10.316   6.962  0.1464  0.0541 -0.0888
91543W        W34456   6.921  11.264  10.498 -0.3710  0.0751 -0.1347
91544W        W34457   6.761   7.876   3.072 -0.2718 -0.1665 -0.0571
91545W        W34458  11.433  20.798   1.641  0.0740 -0.1911 -0.0331
91546W        W34459  13.343  10.903   5.781 -0.4139 -0.2746  0.0555
91547W        W34460  10.080  10.258   6.318  0.2498 -0.1379  0.1061
91548W        W34461  19.602  13.565   1.306  0.0221 -0.0647 -0.0014
91549W        W34462   2.672  18.306   7.207 -0.2084 -0.0067  0.3083
91550W        W34463  14.014  20.367   6.007 -0.2828 -0.2815  0.2418
91551W        W34464  12.585  16.908   2.387 -0.2709  0.2471  0.1649
91552W        W34465   6.862  15.545   2.282  0.0240 -0.0964  0.0167
91553W        W34466   8.077  12.985   0.341  0.0054 -0.3152  0.2059
91554W        W34467  19.442   9.522   7.811 -0.0604  0.1233 -0.2532
91555W        W34468   5.202  16.344   9.215  0.2019  0.1911  0.2612
91556W        W34469  14.239  14.587  25.854 -0.1845  0.0364  0.0220
91557W        W34470  16.250   7.843   7.233 -0.1594  0.0946  0.0707
91558W        W34471  13.108   8.495   2.956 -0.1047 -0.2535 -0.0862
91559W        W34472  14.120   2.797   8.323  0.2036 -0.0089 -0.1248
91560W        W34473   6.953   4.911  12.001 -0.0855  0.0729 -0.0455
91561W        W34474  10.630   5.175  27.733 -0.1684 -0.3266 -0.0305
91562W        W34475  33.392   8.826   7.599 -0.0333 -0.0123  0.1040
91563W        W34476  11.883  13.879   8.387 -0.2488  0.1504 -0.0712
91564W        W34477  14.265   1.805   9.794 -0.0532  0.1631 -0.1146
91565W        W34478  14.778  20.113   8.479 -0.0809  0.0240  0.1679
91566W        W34479   8.289   9.030   8.808  0.1080 -0.2472  0.2227
91567W        W34480  13.882  12.011   3.799  0.1830 -0.1213  0.1376
91568W        W34481  10.436  16.211   8.257 -0.1961 -0.0178 -0.0951
91569W        W34482   6.146  10.621   8.345 -0.2481  0.1018 -0.1921
91570W        W34483  10.477  12.815   9.004  0.2765  0.0451  0.0487
91571W        W34484  12.927  12.884  26.672 -0.1769 -0.1079  0.1503
91572W        W34485   3.304   7.956   9.548 -0.1233  0.1465  0.0568
91573W        W34486  10.423   8.105   8.406 -0.0057 -0.2375 -0.1685
91574W        W34487  12.441  15.478   8.029 -0.0651 -0.1707  0.0157
91575W        W34488   9.230   3.279   7.374 -0.2428  0.2456 -0.0830
91576W        W34489  11.069  11.539   5.484 -0.1043 -0.0723  0.1310
91577W        W34490  11.272  16.253   4.104  0.1921  0.1612 -0.0379
91578W        W34491   7.879   5.498  10.057 -0.0346 -0.0645 -0.0322
91579W        W34492   8.854  15.420   4.742  0.0736 -0.2261  0.1064
91580W        W34493  10.954   1.421  10.456  0.1268  0.0599 -0.3065
91581W        W34494  16.581  23.681   7.550 -0.2199 -0.0090 -0.0487
91582W        W34495  17.778  11.824   7.085  0.2461  0.1916  0.2073
91583W        W34496  11.917  17.006   4.288 -0.0127  0.1749 -0.0416
91584W        W34497  12.901   9.442   7.933 -0.1397  0.0178 -0.1840
91585W        W34498   9.079   1.742   7.955 -0.0067  0.2204  0.1123
91586W        W34499   8.855   1.906   6.731  0.0957 -0.0271 -0.2523
91587W        W34500   7.808  22.430   7.997 -0.0715 -0.2147  0.2478
91588W        W34501  15.670  15.833  22.902 -0.0092  0.0680 -0.4311
91589W        W34502  10.530  29.817   6.178 -0.0758  0.3045  0.2088
91590W        W34503   5.879  17.488   5.744  0.0792 -0.3895 -0.1656
91591W        W34504  17.160   4.750   6.639  0.0123  0.1287  0.2115
91592W        W34505  14.860  15.005   8.342  0.1006  0.0479 -0.0773
91593W        W34506   6.963   7.396   3.176  0.0503 -0.1174 -0.1490
91594W        W34507   9.613   5.827   2.382  0.1802 -0.0131 -0.0444
91595W        W34508   8.795  15.299   7.546 -0.0803  0.1849  0.3380
91596W        W34509   0.797  13.580   8.234 -0.1529  0.2915  0.2704
91597W        W34510  16.107  10.910  29.757  0.0816 -0.1514 -0.0511
91598W        W34511  13.434   9.513   9.696  0.1315 -0.0416  0.0942
91599W        W34512  33.298  13.056   9.262 -0.1633 -0.1341 -0.0888
91600W        W34513  12.693  13.372   4.420  0.0205  0.0686 -0.1110
91601W        W34514  25.548  34.275   9.210 -0.0910 -0.0393  0.4276
91602W        W34515   7.165   6.950  12.191 -0.0726  0.0895 -0.1110
91603W        W34516  11.748  11.717   8.905 -0.2128  0.0014 -0.2949
91604W        W34517  17.473  16.877  28.518  0.0512  0.1866 -0.0323
91605W        W34518  12.566   7.030  10.289 -0.2657  0.1380  0.0077
91606W        W34519  22.537  13.791   6.810 -0.0424 -0.0846  0.1325
91607W        W34520   8.733   8.069   8.591  0.0624  0.2887 -0.1484
91608W        W34521  13.965   6.831   6.082 -0.0475 -0.3510  0.1851
91609W        W34522   8.503  13.241   3.677  0.3315  0.4344  0.0398
91610W        W34523   7.984   9.046   3.192 -0.2292 -0.0581  0.0982
91611W        W34524  16.931  13.940  26.343  0.0076  0.3022 -0.0242
91612W        W34525  11.984   9.981   7.406  0.2247  0.1078 -0.2151
91613W        W34526  22.465  14.245   6.988  0.2122  0.0995 -0.0854
91614W        W34527  16.285   8.781   5.645 -0.1101  0.2760  0.2711
91615W        W34528  11.817   1.680  29.144  0.0334  0.0621 -0.2039
91616W        W34529  13.225   8.878   7.769 -0.1073 -0.0717  0.3073
91617W        W34530  20.570  13.199   0.659  0.3088 -0.5802  0.1785
91618W        W34531   5.318   1.423  12.654 -0.0354 -0.2278 -0.2221
91619W        W34532   2.184   5.079   7.654  0.0676 -0.2301 -0.0657
91620W        W34533  12.865  16.409   7.622  0.2817 -0.1564 -0.2617
91621W        W34534  17.957  19.233   7.679 -0.2722  0.0234  0.0171
91622W        W34535  13.999  17.870  27.670  0.0581  0.1424  0.1162
91623W        W34536  23.869  13.584   7.724  0.1315  0.2573  0.2629
91624W        W34537   0.130  10.545   8.295 -0.3431 -0.1894  0.1288
91625W        W34538  12.533  12.674   8.204  0.3337 -0.0051 -0.3088
91626W        W34539  14.818   8.761   2.018 -0.0476  0.1897  0.0525
91627W        W34540  34.155   7.710  11.918 -0.1440 -0.0038  0.0335
91628W        W34541  11.986  14.678   1.437  0.1893 -0.1009  0.0629
91629W        W34542  18.424  25.870   7.082  0.3510 -0.0561  0.0365
91630W        W34543  13.629  10.327   8.353  0.2754 -0.0870 -0.0574
91631W        W34544  21.125   9.594   3.801  0.1020  0.1905  0.3839
91632W        W34545  12.938  14.741   8.450  0.2926 -0.2813 -0.0706
91633W        W34546   8.798   5.463  10.418  0.1889  0.1129  0.1061
91634W        W34547  14.943   5.222   8.441 -0.1740  0.3629 -0.2662
91635W        W34548  34.493   1.821   3.452  0.0478  0.0683 -0.3017
91636W        W34549   1.846  12.517  10.325  0.0168  0.2377  0.3830
91637W        W34550   4.058   7.633   6.920 -0.0975  0.0901  0.0014
91638W        W34551   8.744  12.557   8.242 -0.0211 -0.1728  0.2120
91639W        W34552   9.108   4.584   3.786 -0.0913  0.2379  0.1414
91640W        W34553  11.803   5.137   7.084  0.0064  0.3096 -0.1202
91641W        W34554   9.332  22.531   9.022 -0.0755  0.0437  0.5420
91642W        W34555  29.578  16.544   3.857 -0.2421  0.0321  0.0164
91643W        W34556  17.805   2.338   4.916 -0.1130 -0.1146  0.2744
91644W        W34557   5.690  13.832   4.913 -0.0172 -0.1933 -0.1460
91645W        W34558  14.230   9.125  25.057  0.1088 -0.0462  0.0713
91646W        W34559   5.987   2.299   9.287  0.1660 -0.0913  0.1456
91647W        W34560  24.912  14.478   1.258 -0.0570  0.3103 -0.0542
91648W        W34561  21.372  14.337   7.396  0.2959  0.2171 -0.1988
91649W        W34562   9.214   3.040   5.424 -0.2139  0.1155 -0.1254
91650W        W34563  15.630   2.949   8.924 -0.1060 -0.0844  0.0031
91651W        W34564   8.117  16.807  29.612  0.2420  0.0558 -0.2125
91652W        W34565  12.169  11.932   6.760 -0.4178  0.1255  0.0268
91653W        W34566  16.170  12.718   1.068  0.3851  0.2201 -0.1247
91654W        W34567   1.856  10.156   8.812 -0.0869 -0.1150 -0.1856
91655W        W34568  24.117  18.254   7.170  0.1693 -0.0864  0.0894
91656W        W34569   9.263  11.469   9.706  0.3235  0.3758  0.1538
91657W        W34570  21.344  12.784   6.798  0.0280  0.1222  0.0056
91658W        W34571  14.553  13.385   7.723 -0.0992  0.2328 -0.1251
91659W        W34572  19.857  22.268  23.084 -0.3333  0.1233  0.1314
91660W        W34573   9.656   8.185  27.841 -0.2127  0.1397 -0.1625
91661W        W34574  15.151  15.962   2.957 -0.2024 -0.2449 -0.0878
91662W        W34575   2.939  10.361  26.280 -0.2843  0.1064  0.2621
91663W        W34576  11.632  10.346   6.276  0.0430  0.2885 -0.1131
91664W        W34577   1.177  23.189   5.507 -0.0116  0.0166  0.0403
91665W        W34578  30.061  24.293   3.047 -0.2931  0.0788  0.1286
91666W        W34579  19.912   7.148   8.705 -0.2494 -0.2296 -0.0080
91667W        W34580   2.392   7.930   7.261 -0.2311 -0.1495 -0.1355
91668W        W34581   0.501   6.225  10.678 -0.0972  0.0507  0.0781
91669W        W34582  16.845  17.340   3.369 -0.0935  0.1190 -0.0803
91670W        W34583  20.798  11.845   8.692 -0.1392  0.1567  0.1374
91671W        W34584   5.732  20.779   7.657 -0.0744  0.2969 -0.1590
91672W        W34585  18.410  32.324  10.535 -0.0427 -0.0528 -0.3115
91673W        W34586  16.789  11.943   9.006 -0.2172 -0.1015  0.1899
91674W        W34587  11.287  12.331   2.072 -0.1585 -0.3777 -0.3656
91675W        W34588  13.470  10.765   1.435 -0.2603 -0.1435  0.2625
91676W        W34589  11.996  33.965   7.794  0.2922 -0.0738  0.1217
91677W        W34590   4.921   9.725   6.839 -0.2889  0.0346 -0.0105
91678W        W34591  13.911  13.550   0.274 -0.0278  0.0191  0.2721
91679W        W34592  13.528  11.978   6.249 -0.0042  0.0188  0.0279
91680W        W34593   5.461  10.616   5.698  0.2735 -0.1041  0.0696
91681W        W34594   6.337  17.333   8.542  0.2397  0.0130  0.2657
91682W        W34595   3.667   5.838   8.277  0.0026 -0.1171 -0.1789
91683W        W34596   7.975   4.743  11.096 -0.1160  0.2228  0.2183
91684W        W34597   4.154  15.015   5.377 -0.3971  0.0633  0.2176
91685W        W34598  11.267  17.245  29.722 -0.2383  0.2080 -0.0086
91686W        W34599   7.602   4.561   9.950  0.1468  0.1939 -0.0337
91687W        W34600  17.635  20.834  26.954 -0.3898 -0.1584  0.6052
91688W        W34601  32.853  11.703   5.223  0.3080  0.4955 -0.1031
91689W        W34602   9.266   0.489   5.854  0.2535 -0.2394  0.1171
91690W        W34603  11.481   4.751   9.211 -0.2117  0.1122  0.1478
91691W        W34604   7.049  14.449   7.420 -0.3640 -0.0980  0.1272
91692W        W34605  22.912  13.159   8.124 -0.1283 -0.2225  0.1659
91693W        W34606   9.747  13.246   7.925  0.2643  0.0406 -0.4110
91694W        W34607   7.096   3.893  10.442 -0.0245  0.1029  0.2492
91695W        W34608  18.270  21.650   7.656 -0.1538 -0.0208 -0.2790
91696W        W34609  11.789   1.487   9.414  0.2215  0.1148 -0.2765
91697W        W34610  10.494  10.980   8.042  0.3524 -0.1114 -0.1574
91698W        W34611  16.009  16.735   4.609  0.0776 -0.1690  0.1835
91699W        W34612  18.749   1.622   5.882 -0.1496  0.0982  0.1588
91700W        W34613  22.015   9.516   4.356 -0.2965  0.0380  0.1182
91701W        W34614  11.522   1.231  24.600 -0.3869 -0.2134  0.2950
91702W        W34615   6.844  13.075   5.844 -0.0321  0.4071  0.1744
91703W        W34616   6.883  13.834   8.455  0.2443 -0.2142 -0.0356
91704W        W34617   5.730   8.541  11.579 -0.2008 -0.0481  0.1013
91705W        W34618  10.739  17.794   7.942  0.1451  0.1504 -0.1611
91706W        W34619   8.553   7.210  12.181 -0.0582  0.2213 -0.0446
91707W        W34620  12.808   2.534   5.475  0.1017 -0.0739 -0.0471
91708W        W34621   1.118  16.483   4.456  0.1965  0.1679 -0.0370
91709W        W34622  12.501  12.037   8.979  0.1839 -0.0144  0.1640
91710W        W34623   5.444  11.759   3.284  0.1851  0.2743  0.1314
91711W        W34624   6.810  16.256   3.222 -0.0307 -0.2107 -0.0550
91712W        W34625  12.968   6.857   8.358  0.2359  0.3748  0.1600
91713W        W34626  16.253  10.762  28.973  0.1141  0.1445 -0.2536
91714W        W34627  14.948  12.260   7.760 -0.2271  0.2073  0.3422
91715W        W34628  20.066   8.840   7.521  0.0354 -0.0904  0.0674
91716W        W34629   2.763  13.041   3.357  0.2058  0.0307  0.1779
91717W        W34630   7.939  29.911   4.966  0.0204 -0.0655  0.0693
91718W        W34631  22.527   6.357   7.184  0.0323  0.0737  0.3274
91719W        W34632  10.246   8.052   6.975 -0.0448 -0.3375 -0.0749
91720W        W34633   6.124  10.501   4.906  0.1678  0.3683 -0.3815
91721W        W34634   7.416  32.603  10.821  0.0959  0.0955  0.1266
91722W        W34635   3.165   2.072   8.022  0.0894  0.4206 -0.0745
91723W        W34636  16.522   6.160   9.103  0.1512 -0.1082 -0.0956
91724W        W34637   0.418  11.525   5.256 -0.3234  0.0874 -0.3904
91725W        W34638  19.285  14.396  27.548  0.3168 -0.2790  0.0403
91726W        W34639   7.791   1.771  12.126 -0.3676  0.2772 -0.1225
91727W        W34640   7.906  31.147   5.549 -0.0670 -0.0989 -0.2030
91728W        W34641  10.545  16.383   6.473  0.0862 -0.0211 -0.0552
91729W        W34642   8.106  19.635   7.341 -0.0573  0.0878  0.5030
91730W        W34643  15.868  24.938   6.977 -0.3308  0.0769 -0.0354
91731W        W34644   2.783  15.672   4.628 -0.2171 -0.0114  0.0911
91732W        W34645   4.217   7.824   8.266  0.0471 -0.1851  0.0305
91733W        W34646  21.238  13.818   7.428 -0.2001  0.0947  0.0470
91734W        W34647   9.786   3.575   8.065 -0.2282  0.0174 -0.0945
91735W        W34648   9.360  21.253   4.951 -0.4454 -0.1673 -0.2605
91736W        W34649  15.555   7.067   5.377 -0.2017  0.3735  0.0779
91737W        W34650  14.808  13.983  29.071 -0.0232 -0.0522 -0.1364
91738W        W34651  13.674   2.127  11.541  0.1336  0.0739  0.4396
91739W        W34652  12.645   4.376  10.565 -0.2184 -0.1845  0.0581
91740W        W34653  12.270   9.188   6.942 -0.2035  0.0998 -0.0923
91741W        W34654   8.027   8.007   4.600 -0.1822 -0.0714  0.0281
91742W        W34655   2.384  10.146  10.583 -0.3146  0.4093  0.0417
91743W        W34656  15.708  15.437   7.610  0.1133 -0.1224  0.1688
91744W        W34657   9.782  18.248  25.419 -0.1920 -0.1015  0.0030
91745W        W34658   6.412   4.974   5.139  0.0785 -0.0796 -0.2241
91746W        W34659  10.234   8.165  10.202 -0.3801  0.1204 -0.0068
91747W        W34660   4.703   8.838   7.163 -0.2987 -0.3375 -0.0425
91748W        W34661  15.007   5.136  10.980 -0.2104  0.0130 -0.2109
91749W        W34662   5.581   5.532  12.656  0.0456 -0.2134  0.1235
91750W        W34663   9.147   6.399  10.103 -0.1572 -0.4353  0.1583
91751W        W34664  22.249  21.838   6.974 -0.1356  0.3912  0.1658
91752W        W34665  19.534  10.912   7.135 -0.5607 -0.4202  0.1223
91753W        W34666   1.376   0.618   9.335 -0.0247  0.0439  0.3356
91754W        W34667  14.501  10.538   8.409  0.0340 -0.1345 -0.0918
91755W        W34668   8.088   6.010   1.335  0.1052  0.1116 -0.4066
91756W        W34669   6.475   9.555   5.238  0.0731  0.1634 -0.1662
91757W        W34670   1.699  20.641   7.135 -0.3839  0.1597 -0.2908
91758W        W34671   8.118  13.807   4.812 -0.1222  0.0279 -0.0668
91759W        W34672   8.190  31.429   2.786 -0.4256 -0.1489 -0.1910
91760W        W34673  16.644  14.463  25.137 -0.1945 -0.1948 -0.2273
91761W        W34674  14.228  21.135   8.717  0.1086  0.1083 -0.2598
91762W        W34675  12.633   9.214   5.996  0.1332 -0.5146 -0.1050
91763W        W34676  18.187  21.346  28.460  0.0652 -0.3193 -0.0182
91764W        W34677  13.517  12.337   5.185  0.1842  0.1098 -0.0901
91765W        W34678  10.159  11.308   7.186 -0.0758  0.4731  0.1836
91766W        W34679  18.643  21.837   3.129  0.1937 -0.1145  0.2911
91767W        W34680   1.970  10.278  26.649  0.1248  0.1871  0.0289
91768W        W34681  25.331  33.268   7.384  0.3566 -0.0287 -0.2667
91769W        W34682   9.864  22.643   9.047  0.3003 -0.0601 -0.0872
91770W        W34683  19.233  24.423  27.853 -0.0300 -0.2509 -0.1012
91771W        W34684   9.422  19.035   7.641 -0.0663  0.1042 -0.4993
91772W        W34685  13.622   9.533  26.043  0.2884 -0.2837 -0.0153
91773W        W34686  12.733   5.331  25.789 -0.0879  0.2724  0.1029
91774W        W34687  14.063  19.630  23.572 -0.2005 -0.1010  0.2763
91775W        W34688  13.704  20.379   5.200  0.0092  0.3282  0.1968
91776W        W34689   9.752  17.623  24.961 -0.0148  0.0010  0.2002
91777W        W34690   4.738  11.163  18.317  0.1792 -0.1542 -0.1554
91778W        W34691  18.109  13.165   6.476  0.0708 -0.0328 -0.0203
91779W        W34692  12.906  11.167  29.153  0.2536  0.5454  0.0993
91780W        W34693  32.814  15.247  24.808 -0.3558  0.1701 -0.4229
91781W        W34694   7.278  13.230   5.720 -0.2067  0.1384 -0.0498
91782W        W34695   4.710  11.002  27.213 -0.0423 -0.1400 -0.2119
91783W        W34696  18.375   9.269   5.780  0.3302 -0.0876  0.3020
91784W        W34697   5.440   9.939   0.062 -0.4487  0.0392  0.1868
91785W        W34698  11.642   9.856   8.397 -0.0716 -0.0960 -0.1640
91786W        W34699  14.680  18.156   7.741  0.1620  0.0030 -0.3669
91787W        W34700   7.025  33.249  25.232  0.2816  0.1110 -0.0536
91788W        W34701  12.199  10.997   0.766 -0.0472  0.2501 -0.2409
91789W        W34702   9.646  23.783   5.004 -0.0337 -0.1589 -0.0382
91790W        W34703  16.711  29.178   1.162 -0.0542  0.0315  0.2055
91791W        W34704  11.966   5.330  28.001 -0.2432 -0.3579  0.2921
91792W        W34705  10.620  17.274  28.692 -0.1647 -0.1931 -0.0075
91793W        W34706   8.106  19.809  24.774  0.0554 -0.1561 -0.1989
91794W        W34707  15.084  19.642  28.784 -0.0297 -0.1726  0.3306
91795W        W34708   7.905  27.017   5.923 -0.0395 -0.3001 -0.2666
91796W        W34709   9.877   8.969  10.990  0.3767 -0.0271  0.4157
91797W        W34710  18.150  10.132   0.106  0.2389  0.3995 -0.3073
91798W        W34711  13.967  28.392   5.203 -0.0081  0.1196 -0.3423
91799W        W34712  16.079  20.816  28.693 -0.1401  0.1723 -0.1028
91800W        W34713   9.770  13.356   3.526  0.0977 -0.0036 -0.0726
91801W        W34714  15.872  10.655  22.430  0.0755  0.0856  0.0651
91802W        W34715   5.759  26.361   9.761 -0.2668  0.1476 -0.0736
91803W        W34716   5.659  18.178   7.611 -0.2188  0.1322 -0.2771
91804W        W34717  20.167  18.984   7.638  0.0970 -0.1081 -0.0216
91805W        W34718  19.085  23.494   7.215  0.2015  0.2562 -0.0947
91806W        W34719  15.927   4.390   7.421  0.0807 -0.0284  0.4613
91807W        W34720  10.154   8.646  25.912  0.2212 -0.0024 -0.0707
91808W        W34721  17.322   9.638  20.548  0.0083  0.0047 -0.1379
91809W        W34722  10.957  17.176   9.217  0.0248 -0.1636 -0.0385
91810W        W34723  13.560   8.718   6.481 -0.1964 -0.1111  0.0179
91811W        W34724  15.583  10.770  14.587 -0.2206  0.1616 -0.1731
91812W        W34725   7.224  14.888  27.947  0.0381 -0.1407 -0.1005
91813W        W34726   7.343  20.388   9.873 -0.1051 -0.0010 -0.0090
91814W        W34727   9.947  16.632   2.246 -0.2388  0.0142 -0.1169
91815W        W34728   9.591  21.855   2.820 -0.1003 -0.4058  0.3591
91816W        W34729  10.330  18.962   7.392 -0.1819 -0.1661  0.1398
91817W        W34730  18.717  22.743   5.550 -0.1286  0.1243  0.1483
91818W        W34731  18.353  20.158  27.538 -0.0127 -0.1229 -0.1634
91819W        W34732   4.554   5.394  26.833  0.2300 -0.1596  0.0725
91820W        W34733  12.235  17.942   5.634  0.0561  0.1403  0.1098
91821W        W34734   3.292  25.176  27.405 -0.1591  0.1719  0.1082
91822W        W34735  17.274  15.396  25.299 -0.0196  0.2797  0.1140
91823W        W34736   5.244  23.009   9.978 -0.2679  0.1118  0.3612
91824W        W34737  17.410  10.596   3.159 -0.1737 -0.0381  0.1161
91825W        W34738  20.839   4.113   6.985  0.1114 -0.0264  0.3119
91826W        W34739  11.138  11.676   0.905 -0.1367 -0.4508 -0.2154
91827W        W34740  19.005  19.790   5.866 -0.1442  0.1909 -0.1425
91828W        W34741   7.063  12.252   1.441 -0.1465 -0.0862  0.0219
91829W        W34742  14.725  25.625  23.606 -0.2658 -0.2042 -0.1791
91830W        W34743  13.136  12.650   1.608  0.2286  0.1492  0.3240
91831W        W34744   9.867   2.083  22.968  0.0118  0.0849 -0.0235
91832W        W34745   5.963  11.862   3.415  0.1944 -0.0928 -0.2282
91833W        W34746   8.361  20.855  23.321  0.1527 -0.3880  0.2257
91834W        W34747   3.615  33.524  26.123 -0.2142  0.2153  0.0874
91835W        W34748  11.096  13.183  20.581  0.0004  0.1860 -0.1370
91836W        W34749   6.319  18.923   5.325  0.1522  0.0631  0.1710
91837W        W34750   6.329  26.564  24.533  0.0544 -0.0824 -0.1065
91838W        W34751   4.897  15.083   9.626 -0.0770  0.2217  0.0861
91839W        W34752   1.810  25.403  21.529 -0.2092 -0.0382 -0.0819
91840W        W34753  14.777  17.211   0.483  0.1621  0.2885  0.0588
91841W        W34754  14.606  20.792   3.978  0.0509  0.1508 -0.0394
91842W        W34755  17.371   6.048   5.017  0.0385  0.1611  0.3463
91843W        W34756   5.850  20.758   2.231  0.0574 -0.0721 -0.2142
91844W        W34757   7.843  17.842   1.862 -0.0593  0.4894 -0.1275
91845W        W34758  13.994  23.376   5.399  0.1743 -0.0101  0.0797
91846W        W34759  13.669  17.799  14.449 -0.0333  0.1381 -0.0117
91847W        W34760  15.161   1.381   5.211  0.1689  0.2148  0.0619
91848W        W34761  13.688  15.662  14.668 -0.1704  0.1891  0.0692
91849W        W34762  34.311  22.335   6.647  0.3534  0.2518  0.0240
91850W        W34763  16.820  29.931  21.207 -0.1393  0.0029 -0.0032
91851W        W34764   8.332   7.347  28.871  0.0129 -0.3601  0.0156
91852W        W34765   6.346   2.410  28.057  0.3311  0.0003  0.2037
91853W        W34766  15.435  21.518   2.567  0.1633  0.1058 -0.2068
91854W        W34767   0.274  12.474   1.778 -0.0581 -0.1082  0.2194
91855W        W34768  33.992   5.938   0.142  0.0642  0.0307 -0.0812
91856W        W34769  16.417  13.474  26.972  0.0019  0.2926  0.1190
91857W        W34770  21.141  12.609   5.135  0.1504  0.4254 -0.3498
91858W        W34771   8.552  13.823   0.272  0.0570 -0.1985 -0.0006
91859W        W34772   7.835  22.785   4.892  0.1287 -0.0961  0.0411
91860W        W34773  34.117  10.713   4.471 -0.0167 -0.1863 -0.0866
91861W        W34774  25.125  22.468   5.809 -0.1048 -0.0267  0.0870
91862W        W34775   9.315   7.526  26.278  0.1003 -0.0477 -0.0183
91863W        W34776  15.481  17.140   1.814  0.0765 -0.0529  0.1212
91864W        W34777   6.339  18.411   2.264 -0.2300  0.4509 -0.0113
91865W        W34778  10.812  18.574   1.402  0.0189  0.4573 -0.3542
91866W        W34779   7.756  18.546   8.138 -0.0862 -0.0211 -0.0171
91867W        W34780   7.921  14.329  27.928 -0.2339 -0.0776  0.0485
91868W        W34781  13.240  23.678   9.094 -0.0632  0.1911 -0.1395
91869W        W34782  33.305  10.393  29.361  0.0642 -0.2081  0.1741
91870W        W34783  24.144  25.599  28.574 -0.1040 -0.0791  0.1318
91871W        W34784  15.804  23.400   5.605  0.1517 -0.1014 -0.1366
91872W        W34785  15.345  16.400   4.432  0.0928 -0.1528  0.1006
91873W        W34786  11.513  10.053   0.430 -0.1880 -0.6049 -0.1820
91874W        W34787   6.877  19.190   5.968 -0.0870 -0.3333 -0.0489
91875W        W34788  18.489  18.184   0.266 -0.1729  0.0473  0.1234
91876W        W34789  19.825  34.190  19.871  0.4193  0.0074  0.1062
91877W        W34790  32.836   2.638  29.038  0.0678 -0.2120 -0.0623
91878W        W34791   3.301  13.709   6.283 -0.1117 -0.0528  0.1250
91879W        W34792   8.242  15.588   1.310 -0.0562  0.1967  0.1777
91880W        W34793   9.595  19.641  24.116  0.1108  0.0066  0.0545
91881W        W34794  16.685  19.036   1.038  0.0725 -0.2973  0.5116
91882W        W34795   8.787  31.208   6.691  0.0974  0.1176  0.0719
91883W        W34796  12.052  12.509  19.408 -0.1806 -0.0793 -0.0274
91884W        W34797  12.016  20.526  27.995 -0.2867  0.1404 -0.0225
91885W        W34798  12.256  18.903  25.234  0.1228  0.0613 -0.3698
91886W        W34799  11.359   3.193  23.983 -0.0835  0.2016 -0.2733
91887W        W34800  33.392  14.601  27.637 -0.0440 -0.1316  0.2196
91888W        W34801  17.779  10.659  25.593 -0.2986 -0.0175 -0.1300
91889W        W34802   6.700   2.364   3.537 -0.0493  0.0664 -0.1686
91890W        W34803  14.966  13.573   4.150 -0.0109 -0.0606  0.0130
91891W        W34804   3.991  24.908  19.999  0.1086  0.1011  0.2802
91892W        W34805  24.604  10.821   5.439  0.5360  0.0489 -0.2307
91893W        W34806   9.322  23.522   7.121 -0.3059  0.0161 -0.2031
91894W        W34807  19.784  16.516   7.321 -0.0267 -0.3489  0.0530
91895W        W34808  13.830  17.906  24.563 -0.0097 -0.1786 -0.1704
91896W        W34809  15.749  24.875   5.829 -0.0843 -0.0232 -0.1045
91897W        W34810  15.907  28.178  23.177  0.0471 -0.0541 -0.2681
91898W        W34811   6.397  13.412  11.126 -0.3000 -0.0184 -0.1854
91899W        W34812  16.699  23.754   3.279  0.0615  0.1085  0.0403
91900W        W34813  12.169  15.346  21.812  0.3255  0.0342  0.1165
91901W        W34814  20.408  20.821  24.023  0.1411  0.0546  0.1653
91902W        W34815   9.405  13.751  27.742 -0.0583  0.0593 -0.0614
91903W        W34816   5.338  20.497  27.623 -0.0266  0.1070 -0.1514
91904W        W34817  11.695  20.567   3.311 -0.3434 -0.0610 -0.3262
91905W        W34818   7.049   9.091   6.352  0.2401 -0.0714 -0.0657
91906W        W34819  18.032  23.115   5.129  0.1412  0.2452  0.1990
91907W        W34820  13.539   4.639   7.890  0.3261  0.3603 -0.1511
91908W        W34821  10.496  13.292   7.237 -0.2094  0.1165 -0.0136
91909W        W34822  15.257   0.541   3.578 -0.0571  0.0898  0.0578
91910W        W34823   6.176  10.010   9.708  0.0265 -0.0575  0.0431
91911W        W34824  11.693  18.954   6.204  0.1310  0.4064 -0.1989
91912W        W34825  19.893   1.594  19.193 -0.1911  0.1032  0.1735
91913W        W34826   6.573  16.418   8.458 -0.0868  0.0497 -0.1047
91914W        W34827  11.130   1.699   8.821 -0.0777  0.0830  0.0059
91915W        W34828  13.341  14.392  27.653  0.2410  0.0812 -0.0606
91916W        W34829  15.992  19.916  24.901 -0.4961 -0.0722 -0.2184
91917W        W34830  15.221  19.702   1.409 -0.0294  0.1898 -0.0892
91918W        W34831   8.339  23.441   9.051  0.0855 -0.0371  0.3066
91919W        W34832  15.631  20.806   8.096  0.0885 -0.1736  0.2417
91920W        W34833   5.138  23.381   7.745 -0.2418  0.1145 -0.0735
91921W        W34834  18.460   5.195   0.329 -0.1520 -0.1046  0.3247
91922W        W34835   7.997   5.304   6.128 -0.2215 -0.1036  0.0837
91923W        W34836  13.620   8.659   5.866 -0.0354 -0.3200  0.1185
91924W        W34837  15.286  25.592  23.719  0.4614 -0.1432 -0.3133
91925W        W34838  22.450  10.196   6.905  0.2457  0.0985  0.0551
91926W        W34839  11.907  14.321   6.527 -0.2588 -0.1612 -0.1155
91927W        W34840   6.316  17.190   1.198  0.1826 -0.2915 -0.1368
91928W        W34841   3.270  10.528  21.873  0.0034  0.1159 -0.0339
91929W        W34842   6.796  17.923   4.709 -0.1190  0.1819 -0.1308
91930W        W34843   8.922   3.781  19.743  0.0693 -0.2994 -0.1721
91931W        W34844   9.708  20.483  22.837  0.0817 -0.0193 -0.1175
91932W        W34845  19.684  17.179   7.198  0.0560 -0.0963  0.1040
91933W        W34846   9.215   7.593  18.311  0.2559 -0.0493  0.3933
91934W        W34847  12.376  22.704  14.433 -0.1458 -0.0404  0.0565
91935W        W34848   6.116  13.725  10.876 -0.0160 -0.0749  0.0195
91936W        W34849   0.908  13.532  28.146 -0.1116  0.1442 -0.0782
91937W        W34850   8.633  33.211  29.062 -0.1203  0.3398 -0.0690
91938W        W34851   7.477  27.064   2.386 -0.2211  0.1562  0.2817
91939W        W34852  34.469  16.141  23.337  0.1656 -0.0800 -0.2393
91940W        W34853   0.704  20.644   5.695  0.1580  0.4482 -0.0938
91941W        W34854  19.370   9.818   5.484  0.1278 -0.0356  0.0355
91942W        W34855  15.908  10.019   1.276 -0.4515 -0.2030 -0.0835
91943W        W34856   1.801  18.230  25.486  0.0769  0.0495 -0.2527
91944W        W34857   6.289  11.086   4.059 -0.1216  0.1265 -0.0387
91945W        W34858  11.877  18.404  27.656  0.0914 -0.1953  0.2496
91946W        W34859   2.241   6.422   8.790 -0.1432 -0.0463 -0.0707
91947W        W34860  18.745   4.454   4.978  0.1027 -0.0292 -0.3653
91948W        W34861  24.681  18.041  29.392 -0.3093 -0.1088  0.3338
91949W        W34862  14.621  11.769  26.736 -0.1574 -0.0224  0.0956
91950W        W34863   5.475  12.569   6.482  0.1713 -0.0485 -0.0641
91951W        W34864   0.972  18.640   4.926  0.1637  0.2937  0.1264
91952W        W34865  18.275  18.175  23.352  0.1252  0.0600  0.3346
91953W        W34866  17.373  22.980  27.517 -0.0223 -0.1395  0.3098
91954W        W34867   9.162  17.261   4.846 -0.1264  0.3388  0.2020
91955W        W34868  22.460  14.031   7.453  0.1096  0.0778  0.0237
91956W        W34869  14.651  13.478  25.253 -0.1272  0.2367  0.3733
91957W        W34870  18.426  21.263   1.242  0.2794 -0.2698  0.1441
91958W        W34871   3.716  11.654  28.837  0.2666 -0.0395 -0.2484
91959W        W34872  14.545  23.796   4.780 -0.2390 -0.3618 -0.0462
91960W        W34873  12.808  15.733  25.053 -0.0640  0.0275  0.0894
91961W        W34874  14.175  22.486   1.937 -0.2209  0.1022 -0.0897
91962W        W34875   2.426  14.594   1.728  0.1175  0.0864 -0.0494
91963W        W34876  12.975  21.432  22.884 -0.1846  0.5451 -0.0172
91964W        W34877   6.061   6.294   1.873 -0.0735  0.0601  0.0870
91965W        W34878  15.302  16.048  28.668 -0.1855 -0.0234  0.2042
91966W        W34879   5.566  16.212  18.672  0.0029 -0.0386 -0.0165
91967W        W34880   5.110   7.531  22.873  0.1122 -0.0863 -0.0649
91968W        W34881  15.077   7.316  29.691  0.0619 -0.0707  0.1416
91969W        W34882   9.097  14.815   6.132  0.2006  0.1003  0.0334
91970W        W34883  13.055  15.773   5.098 -0.0043  0.3849 -0.1876
91971W        W34884  25.090  13.176   7.270 -0.1495  0.1191 -0.1423
91972W        W34885  17.064  14.859   5.293 -0.0991 -0.1542 -0.0054
91973W        W34886  15.064  19.398  23.780 -0.0121 -0.1096  0.2329
91974W        W34887  16.036  31.398  28.086  0.3749 -0.4654  0.0348
91975W        W34888  21.980  22.896   8.168 -0.0329 -0.2165  0.2752
91976W        W34889   2.746  25.140  27.625 -0.0214 -0.1802 -0.1502
91977W        W34890   9.526  16.318  26.895  0.2349 -0.4692  0.0181
91978W        W34891  13.508  22.678  26.768 -0.3011 -0.0894 -0.0676
91979W        W34892  11.291  13.614  28.295  0.4732  0.0922  0.2209
91980W        W34893  18.775   4.771  24.274  0.3393 -0.1518  0.1232
91981W        W34894   9.457   8.834  22.323  0.1561  0.2123  0.1048
91982W        W34895  27.752  30.702  25.298  0.1233 -0.4928 -0.1506
91983W        W34896  10.608  20.980  22.714  0.1972 -0.3082  0.4089
91984W        W34897  14.006  15.131  22.309  0.1660  0.2616 -0.0801
91985W        W34898   3.767   7.911  28.342 -0.1591 -0.3189  0.0344
91986W        W34899  15.430  17.295  23.519  0.1245  0.4244  0.3280
91987W        W34900  17.124  18.597   2.547  0.1916 -0.2436 -0.1924
91988W        W34901  14.749  14.385   6.118  0.2028 -0.1335  0.2793
91989W        W34902  11.568  15.067   4.138  0.1207  0.1624 -0.2204
91990W        W34903  13.707  20.291  27.814 -0.3034 -0.1193 -0.2132
91991W        W34904   6.125  10.286   1.620  0.0830 -0.1196 -0.1177
91992W        W34905  14.847  24.903   4.340  0.0809  0.1556  0.2254
91993W        W34906  21.120  13.282  19.517 -0.0097  0.0688  0.1700
91994W        W34907  14.087  13.671  23.712 -0.1138 -0.0448  0.1285
91995W        W34908  23.701  13.725   5.753 -0.2053  0.2537 -0.0750
91996W        W34909   8.391  18.146  28.872 -0.0567  0.0498 -0.1551
91997W        W34910   9.982   2.697   1.903 -0.0948  0.3449  0.0448
91998W        W34911  14.515  22.560   0.398  0.1575  0.2236 -0.1506
91999W        W34912  14.712  20.530   1.341 -0.1570 -0.3852 -0.1724
92000W        W34913  14.110   8.834  18.693  0.0866  0.1511 -0.0051
92001W        W34914  19.554  15.466  22.426  0.3947 -0.0838  0.0905
92002W        W34915   7.564  26.020  26.601 -0.1650 -0.0626 -0.2642
92003W        W34916   9.119  11.434  10.985  0.0402 -0.0357  0.1867
92004W        W34917   3.096  14.405  25.576 -0.0808  0.0680 -0.2535
92005W        W34918   6.830  21.467   2.932 -0.2393 -0.2132  0.2219
92006W        W34919   7.640   4.384   4.789 -0.0507 -0.0595 -0.3110
92007W        W34920   5.084  13.533  21.407  0.2508 -0.2473 -0.2059
92008W        W34921  14.861  21.041  16.654  0.2534 -0.1190 -0.0835
92009W        W34922  25.339  21.169   6.791 -0.2088 -0.1938 -0.3381
92010W        W34923  26.207   1.556  26.986  0.3488  0.1262  0.2083
92011W        W34924  21.594   7.865   2.375 -0.2506  0.3089  0.3612
92012W        W34925   8.721  16.175  19.932  0.0210  0.2074 -0.3184
92013W        W34926   9.463  11.472   5.495 -0.0233  0.1259 -0.0446
92014W        W34927   3.034  13.763   7.287 -0.3553  0.0271 -0.0429
92015W        W34928   4.598  27.731   5.336  0.1840  0.2745  0.1666
92016W        W34929  23.359  12.197   5.797 -0.0704 -0.1149 -0.0442
92017W        W34930  17.181  14.483  23.091 -0.1444 -0.2867 -0.1411
92018W        W34931   9.410  22.002   1.979  0.3047 -0.1131 -0.2196
92019W        W34932  17.610  17.664   3.790  0.3284 -0.1607  0.2805
92020W        W34933  17.591  26.930   8.998  0.0722  0.2094  0.4448
92021W        W34934   6.156  19.928   3.831  0.1225 -0.1447 -0.0716
92022W        W34935  14.475  22.313   4.829  0.2629 -0.3644 -0.0416
92023W        W34936  11.151  11.428   6.919  0.4221 -0.4087  0.0860
92024W        W34937   8.790  17.520   7.763 -0.0175  0.0441 -0.0239
92025W        W34938   9.536  15.438  26.399  0.0124  0.2967 -0.0901
92026W        W34939  11.601  19.350   3.096  0.1562 -0.1937  0.0621
92027W        W34940  34.494  13.777   2.418 -0.0449  0.0821  0.1113
92028W        W34941   9.890  23.485  29.010  0.3151  0.0771 -0.4197
92029W        W34942  11.276  17.215   1.450  0.1670 -0.1355  0.1249
92030W        W34943  22.882  34.440  22.823 -0.3976  0.0599 -0.1359
92031W        W34944  10.180  15.324   8.541  0.2152 -0.3089  0.1989
92032W        W34945  11.425  19.618  20.261 -0.0665  0.1215 -0.1712
92033W        W34946  12.901  17.107  25.756 -0.2641  0.2205  0.0931
92034W        W34947  16.667  17.936  14.727 -0.1685 -0.2159  0.1764
92035W        W34948  10.519  19.202  21.550  0.1057  0.1446 -0.1703
92036W        W34949  16.323  17.196   0.644 -0.0786 -0.0228  0.1769
92037W        W34950  11.548   5.542   5.086 -0.1280 -0.1794 -0.1730
92038W        W34951  21.471  16.096   6.188 -0.2113  0.1802 -0.0287
92039W        W34952   2.937  19.692  26.756 -0.0051 -0.4948  0.0333
92040W        W34953  12.871   5.819  26.013 -0.2054  0.0581  0.1225
92041W        W34954  22.226  16.574   7.917  0.0611  0.0921 -0.2233
92042W        W34955  12.675  15.664   4.272  0.0887 -0.1819 -0.0728
92043W        W34956  11.362   8.926   0.075  0.2853 -0.2174  0.3657
92044W        W34957  10.094  26.388   7.743 -0.3680  0.1242  0.2307
92045W        W34958   4.954   6.463  29.015 -0.0459  0.2390  0.0967
92046W        W34959   4.876  20.329   3.048 -0.1461 -0.0262  0.0499
92047W        W34960   8.622  11.095   2.841  0.0869 -0.1974  0.0225
92048W        W34961  15.810  18.440   2.985  0.3662 -0.1453  0.1571
92049W        W34962   7.929  20.381   0.655  0.0689  0.1598  0.0519
92050W        W34963  18.518  15.470   7.290 -0.0573 -0.1884 -0.1143
92051W        W34964  18.295  25.648   9.163 -0.1623  0.2603 -0.2484
92052W        W34965   9.752  22.950  20.445 -0.2132 -0.0325 -0.1525
92053W        W34966  10.201  18.286   2.364 -0.0334 -0.2275  0.0717
92054W        W34967  18.338  19.739   2.221 -0.1737  0.0532 -0.0682
92055W        W34968  12.033  15.371   1.452  0.1470 -0.0237 -0.0687
92056W        W34969  15.040  12.210   2.540  0.0127  0.0997 -0.2517
92057W        W34970  10.684  21.011   6.458 -0.1206 -0.0143 -0.5005
92058W        W34971   8.090  11.813   2.360 -0.0624 -0.0637 -0.0369
92059W        W34972  12.640  27.954   2.019 -0.2466 -0.0632 -0.1062
92060W        W34973  32.536  26.218  25.141  0.3932  0.2586 -0.3777
92061W        W34974  12.947  11.885  17.756 -0.0688 -0.1161  0.0697
92062W        W34975   9.720  25.247  26.653 -0.0647 -0.1507  0.0324
92063W        W34976  17.904  21.985   3.565 -0.2876  0.0094  0.1200
92064W        W34977  13.833   9.757   6.433 -0.0334  0.0994 -0.1669
92065W        W34978  14.103  17.253   3.877 -0.2106  0.2982 -0.4819
92066W        W34979  16.419  26.193   0.521  0.0653  0.1331 -0.0272
92067W        W34980  23.461  19.694   3.918  0.0391  0.2700  0.5500
92068W        W34981  12.502  11.192  27.194 -0.0224 -0.1291 -0.3329
92069W        W34982  14.589  11.426  29.109  0.0600 -0.0554 -0.1845
92070W        W34983  22.624  25.580   6.786  0.0681  0.1448 -0.0699
92071W        W34984  17.520  18.854   0.823  0.0422 -0.1483 -0.1642
92072W        W34985  14.452  19.161   7.299 -0.0743 -0.0205  0.1069
92073W        W34986   6.574   8.384  26.345 -0.0509  0.0184 -0.0929
92074W        W34987   7.366  29.483  24.606  0.0618 -0.0176  0.0182
92075W        W34988  11.404  16.014   0.424  0.0131  0.1904  0.1646
92076W        W34989  11.908  11.718   5.381 -0.0244 -0.0491 -0.0508
92077W        W34990   9.485   8.422  28.851 -0.0629 -0.0898 -0.1917
92078W        W34991   9.527   9.958   5.335 -0.0919 -0.0439  0.0494
92079W        W34992  17.629  20.830   1.813 -0.0035 -0.2337 -0.3662
92080W        W34993  15.987  18.476   0.655 -0.0403  0.1848  0.0723
92081W        W34994   9.154  20.543   2.825 -0.0575 -0.1650 -0.1338
92082W        W34995  16.517  21.833  25.964  0.0644  0.0865 -0.1005
92083W        W34996  14.389  18.239   6.163 -0.0902 -0.2558  0.1640
92084W        W34997   7.334   8.802   4.449  0.2458 -0.0254 -0.0991
92085W        W34998  20.808  13.095  24.968 -0.2742  0.3665 -0.1201
92086W        W34999   7.595  21.422   5.338  0.0628  0.4672  0.1027
92087W        W35000  24.956  15.139   1.229 -0.0474 -0.0965 -0.0797
92088W        W35001  30.871   9.563   3.353 -0.0147  0.1614  0.2057
92089W        W35002  11.587  18.366   9.170  0.2115  0.0321 -0.1600
92090W        W35003  13.261  12.369   2.595  0.0381 -0.1623  0.2084
92091W        W35004  33.635  18.804  28.809  0.4689 -0.3518  0.1357
92092W        W35005  20.607  17.751   3.889  0.2139  0.3432  0.3707
92093W        W35006  33.270  10.623   4.391  0.1330 -0.2729 -0.1763
92094W        W35007   3.216  29.845   1.561 -0.0729  0.2791  0.1907
92095W        W35008   8.089  33.029   1.132  0.2292 -0.0926  0.0385
92096W        W35009  19.978   0.202  27.818  0.1156 -0.0473  0.2033
92097W        W35010  17.301  16.438  28.593  0.1697 -0.3764 -0.3030
92098W        W35011  14.658  19.908   0.360 -0.0228 -0.2053 -0.2633
92099W        W35012   8.023  23.954   2.090  0.0458  0.1442 -0.0610
92100W        W35013  15.606  11.997   6.587 -0.1236 -0.1846  0.3556
92101W        W35014   7.513  17.834  25.959 -0.2304  0.1477  0.0011
92102W        W35015  21.029  21.925  28.211  0.2454  0.0110 -0.2176
92103W        W35016   6.465  11.849   4.124  0.0036 -0.1037  0.0907
92104W        W35017  11.430  11.632  21.751  0.2297 -0.1329 -0.1015
92105W        W35018  27.672  11.048  17.738  0.0576 -0.0874  0.3363
92106W        W35019   1.194  18.693   4.400  0.1267 -0.1308 -0.3133
92107W        W35020   2.105  24.270  23.007 -0.1003 -0.2425 -0.5058
92108W        W35021   8.945  14.372   2.102 -0.1119  0.0037  0.0106
92109W        W35022  12.241  12.131   5.785  0.0095 -0.0844  0.1711
92110W        W35023   5.295   7.814  23.238  0.1579 -0.0958  0.0871
92111W        W35024  15.685   7.944   5.611 -0.0134  0.3481 -0.2323
92112W        W35025  18.073  23.357   0.694  0.1379  0.1252 -0.0006
92113W        W35026  10.686   6.871   7.259 -0.0165  0.0658 -0.1160
92114W        W35027  12.460  13.453  24.376  0.3127  0.1772 -0.2976
92115W        W35028  16.044  15.240  24.631  0.1389  0.0917 -0.1220
92116W        W35029   6.311   0.357   1.459  0.0795  0.0905  0.0187
92117W        W35030   6.473  21.548  27.014  0.0600  0.0641 -0.0592
92118W        W35031   3.744  10.273  26.506  0.0192  0.2945 -0.1971
92119W        W35032  15.968  17.978   0.302 -0.1356 -0.0956  0.2182
92120W        W35033   9.233  32.098   9.519 -0.1999 -0.1580 -0.1276
92121W        W35034  11.907  14.156   0.475 -0.0696  0.2148  0.1645
92122W        W35035  31.956  16.949   8.224  0.1289  0.0004 -0.1500
92123W        W35036  17.879  17.724   8.168 -0.1207 -0.1093 -0.1664
92124W        W35037  11.984   8.648  18.098 -0.0082  0.0861 -0.0069
92125W        W35038  13.053  19.163   8.671 -0.4539  0.1295 -0.0173
92126W        W35039  19.124  17.255   1.585 -0.2518 -0.1197 -0.0038
92127W        W35040  17.882  19.849   2.688 -0.2605 -0.0027 -0.1081
92128W        W35041  15.316   6.869  28.907  0.2954 -0.0243 -0.1711
92129W        W35042  12.740  18.806   7.597 -0.0963 -0.0753  0.0777
92130W        W35043  10.877  24.899   2.483 -0.0973  0.0899  0.1696
92131W        W35044  13.778  16.295   5.517 -0.2092 -0.1513 -0.1212
92132W        W35045  11.226  26.077   1.600 -0.0738  0.1870 -0.0825
92133W        W35046  16.957  17.833   1.939  0.1010 -0.0548  0.1075
92134W        W35047  14.068  18.120  28.992 -0.1095  0.2442  0.1790
92135W        W35048  23.776  12.312   1.239  0.1718 -0.1645  0.0178
92136W        W35049  10.800   9.531   2.756  0.1469  0.0302 -0.0782
92137W        W35050  20.971  13.018   1.463 -0.1751  0.0415 -0.2441
92138W        W35051   7.104  27.898   1.872 -0.0427 -0.1600 -0.2493
92139W        W35052   6.124  14.509   9.776 -0.1324  0.0943  0.0481
92140W        W35053   9.128  20.054   3.165  0.0330 -0.0442 -0.3852
92141W        W35054  15.853  11.178   2.261 -0.1391 -0.0430 -0.2154
92142W        W35055   6.212  14.950  25.768 -0.1128 -0.0712  0.1201
92143W        W35056  15.613  15.634   2.890 -0.2291  0.2523  0.1497
92144W        W35057  23.259  16.384   6.383 -0.0211 -0.0763  0.2752
92145W        W35058  10.138  18.246  24.969 -0.1582 -0.1255 -0.0207
92146W        W35059  13.322  13.376   6.567 -0.0783  0.0009  0.1997
92147W        W35060   9.838  21.679  25.736  0.0355  0.1038 -0.4893
92148W        W35061  18.884   8.164   1.646  0.3272  0.0216 -0.0407
92149W        W35062  13.466  23.869  10.015 -0.0803 -0.2298 -0.1222
92150W        W35063   6.705  19.995  19.664 -0.1780  0.0963 -0.1570
92151W        W35064   5.193  13.176   6.446 -0.3984 -0.1317 -0.1137
92152W        W35065  12.657  14.487   7.161 -0.1259  0.0259  0.1055
92153W        W35066   4.764  13.058  24.237  0.1062 -0.2567  0.0547
92154W        W35067  14.907  20.441  29.487 -0.0827  0.1381  0.2004
92155W        W35068  15.183  11.432  20.696 -0.0351 -0.1239 -0.0232
92156W        W35069   9.978  27.405   0.775  0.2258 -0.4946 -0.0371
92157W        W35070   8.800  18.988   4.878 -0.3515  0.0190 -0.1089
92158W        W35071  13.512   9.332   7.759 -0.1110  0.0420 -0.1454
92159W        W35072   9.021  10.847  25.815  0.0226  0.1059 -0.2895
92160W        W35073  13.971  18.657  26.555 -0.1338  0.1286  0.0321
92161W        W35074  15.573  17.979   5.436  0.0496  0.0142 -0.0584
92162W        W35075  13.331   7.526   5.552 -0.0255 -0.0791  0.0840
92163W        W35076   7.798   9.334  20.598 -0.0767  0.2864  0.0782
92164W        W35077  15.030   8.580  24.912 -0.2890  0.0410  0.3028
92165W        W35078   3.205  12.240   7.922 -0.2504 -0.5674  0.1146
92166W        W35079  14.528  18.708   6.153 -0.3175  0.0093 -0.4709
92167W        W35080  17.897  14.913   7.797 -0.1032 -0.1820  0.0692
92168W        W35081  16.454   2.253   7.633 -0.0279  0.0800 -0.1419
92169W        W35082  18.877  22.716  24.673  0.0468  0.0176  0.1061
92170W        W35083  14.769  11.397  26.415 -0.4783 -0.0974 -0.0386
92171W        W35084   2.639   2.365  10.963 -0.3271 -0.1985 -0.2785
92172W        W35085   7.780  27.471   7.697  0.1600 -0.1668 -0.2163
92173W        W35086  16.448  16.278   6.579  0.0826 -0.2525  0.0121
92174W        W35087  17.139  25.211  10.047 -0.2138  0.2427 -0.0783
92175W        W35088  16.537  15.160   3.934  0.0052 -0.2201  0.3259
92176W        W35089  10.226  30.702  26.480  0.0062  0.0599  0.0028
92177W        W35090   7.231   2.969  12.375  0.1016 -0.1098  0.1635
92178W        W35091  12.802  13.618   4.874 -0.3251  0.0363  0.0645
92179W        W35092   6.219  25.027   9.273 -0.2028 -0.0857  0.1005
92180W        W35093   5.729  10.425   7.192 -0.1181 -0.1055 -0.0448
92181W        W35094  14.212  14.043   3.811  0.0709  0.1567 -0.0253
92182W        W35095  11.344  17.957  28.824 -0.0611  0.1355 -0.0178
92183W        W35096  18.240  25.297   5.334 -0.0214  0.0290  0.1667
92184W        W35097   0.457   8.992   6.548  0.0702 -0.0411  0.0391
92185W        W35098  15.998  11.646  27.073 -0.1217 -0.1422 -0.0661
92186W        W35099  12.925  23.994   2.464  0.1999  0.0881  0.1089
92187W        W35100  18.053   8.215   7.339 -0.1330 -0.3665 -0.2803
92188W        W35101  14.004  14.132   0.399  0.1093 -0.2482 -0.2703
92189W        W35102  16.845  10.582   6.617  0.3618  0.0744 -0.2624
92190W        W35103   9.006  18.921   8.760 -0.2481  0.1071 -0.6029
92191W        W35104   7.064  17.447   2.144  0.6837 -0.0869  0.2562
92192W        W35105  12.619  18.225   2.500 -0.2224 -0.0233 -0.0976
92193W        W35106   2.232  14.170   3.826 -0.0643  0.1409  0.0746
92194W        W35107   7.734  22.774   9.743  0.2185  0.1015 -0.0097
92195W        W35108  17.985  13.027   7.401  0.0813  0.2541 -0.0198
92196W        W35109  16.267  17.528   2.881  0.1517 -0.1107  0.0605
92197W        W35110   6.968   5.543   3.847 -0.2177 -0.1168 -0.0969
92198W        W35111  12.085  14.722   5.485 -0.2618 -0.3343 -0.1029
92199W        W35112   6.812   6.644  12.305  0.0110  0.2089  0.1804
92200W        W35113  17.055  16.679   4.196  0.4853  0.2420  0.2528
92201W        W35114  10.112  16.222   6.745  0.4022  0.0455 -0.1308
92202W        W35115   3.779  18.222   1.609  0.2728  0.2576  0.2063
92203W        W35116  24.173  17.720   4.606 -0.1855  0.0274 -0.1750
92204W        W35117  33.309   7.343   0.063  0.0143 -0.3677  0.1251
92205W        W35118   3.797   5.773  10.278 -0.1349  0.1259 -0.0126
92206W        W35119  11.011  24.167   6.668 -0.0647 -0.1071 -0.1050
92207W        W35120   9.674  21.548   7.230 -0.1320  0.1016 -0.1112
92208W        W35121  13.946   2.221   0.499 -0.0578 -0.1252 -0.2194
92209W        W35122   3.955  15.755   7.684  0.0804 -0.2055  0.2481
92210W        W35123  18.558  13.006  23.314  0.2134 -0.2740  0.1549
92211W        W35124  11.371   9.775   7.062  0.2645  0.2722  0.2192
92212W        W35125  12.073  12.834   8.421 -0.1673  0.2021 -0.2018
92213W        W35126  10.721  29.648   7.756  0.0722  0.1157 -0.1892
92214W        W35127  20.620  11.540   8.250 -0.3584 -0.0280  0.0051
92215W        W35128  18.349  23.628   5.065 -0.0872  0.2007 -0.0697
92216W        W35129  13.915  18.203   8.030  0.3702 -0.0118 -0.2565
92217W        W35130  17.623  12.662   8.626  0.1705 -0.1240  0.2028
92218W        W35131   6.178  22.346   7.647 -0.2056  0.0768 -0.1199
92219W        W35132  13.627  15.370   3.927 -0.2466 -0.1029 -0.1753
92220W        W35133  15.371  19.803  27.994  0.3646 -0.1170 -0.1922
92221W        W35134  11.499  17.591  26.556 -0.0747 -0.1027  0.1419
92222W        W35135   4.180  25.303   4.823  0.2632 -0.0662  0.2495
92223W        W35136  14.460  22.821   1.760 -0.2107  0.2062  0.3407
92224W        W35137  11.344  13.951   8.384  0.1140 -0.2051 -0.0482
92225W        W35138  10.900  11.786   9.537 -0.2763 -0.1385  0.0337
92226W        W35139  28.324   6.868  27.177 -0.1340  0.0252 -0.0826
92227W        W35140  12.844  12.860  28.811  0.1751 -0.1505 -0.0642
92228W        W35141   4.000  14.950   2.383 -0.0400 -0.1010  0.2961
92229W        W35142   6.018  14.890   6.862 -0.1066 -0.0816 -0.0729
92230W        W35143  16.816  10.432   7.853  0.1676 -0.3261  0.2206
92231W        W35144  20.636  26.375   2.571  0.5051 -0.2125  0.3445
92232W        W35145   0.085  19.456   1.401  0.1367 -0.2827 -0.1220
92233W        W35146  11.731   9.886  28.730  0.0925  0.3236  0.3259
92234W        W35147  12.054  11.139   6.150  0.2100 -0.2964  0.1894
92235W        W35148  16.017   5.095   2.158  0.1624  0.1617  0.3992
92236W        W35149  17.421  22.154   4.514  0.3622  0.0793  0.1092
92237W        W35150  10.255  17.116   6.501  0.2235 -0.0845  0.1951
92238W        W35151  17.414  13.929  28.504 -0.1037  0.0488  0.1559
92239W        W35152  15.048  10.017   7.094 -0.2041 -0.1157  0.5637
92240W        W35153  11.047  15.877   5.499 -0.1700  0.2721 -0.3971
92241W        W35154  10.159  34.071   3.214  0.0717  0.3049  0.1307
92242W        W35155  12.474  14.916  21.669  0.0804  0.3539  0.0031
92243W        W35156  11.228  29.836   4.180  0.1312 -0.0883 -0.1885
92244W        W35157  33.812  11.327   9.439  0.0343  0.1339  0.0495
92245W        W35158   6.116  11.854   7.838  0.2137 -0.5636  0.4219
92246W        W35159  11.103   2.125   4.750 -0.1368 -0.3613  0.1918
92247W        W35160  20.371  19.323  29.750 -0.1760  0.1006  0.2242
92248W        W35161   6.928  22.052  29.070  0.2044 -0.1433  0.1736
92249W        W35162   7.958  12.437   7.842 -0.1742  0.1279  0.0807
92250W        W35163  31.158  17.484   2.414 -0.0131 -0.1050  0.1861
92251W        W35164  16.436   9.064   2.514 -0.0276  0.0921  0.0229
92252W        W35165  15.535  10.476   8.884 -0.0291 -0.1118 -0.2401
92253W        W35166  25.134  19.765   8.575  0.1942 -0.0843  0.3627
92254W        W35167  31.843  15.169   8.868  0.0692  0.1938  0.0006
92255W        W35168  19.809  15.843  28.963  0.1826  0.3051 -0.1476
92256W        W35169   1.365  10.121  29.409 -0.1290 -0.2874  0.0373
92257W        W35170  15.963  15.732  28.608 -0.0540  0.1056  0.0379
92258W        W35171  14.768  16.796   2.600  0.0094  0.0090 -0.0388
92259W        W35172  13.608   6.208   5.079 -0.2079 -0.1782 -0.1017
92260W        W35173  14.580  18.581   7.495  0.2237 -0.1700 -0.2291
92261W        W35174  17.212  16.729   1.055  0.2154 -0.0855 -0.1555
92262W        W35175   8.125  27.162  25.893  0.2511 -0.1973  0.4082
92263W        W35176  21.082  20.823   6.849  0.0246 -0.2385  0.1112
92264W        W35177  17.337  16.092  22.924  0.5126  0.1605  0.0683
92265W        W35178  20.464   3.744   1.425  0.0465 -0.0737 -0.1369
92266W        W35179   7.274  11.696   7.479 -0.1465 -0.0866 -0.2786
92267W        W35180  16.828  13.281   7.288 -0.0283  0.1342 -0.1372
92268W        W35181  11.449  22.147   2.076  0.1894 -0.0942  0.1515
92269W        W35182   7.839  22.057  10.388 -0.1261 -0.0701 -0.1415
92270W        W35183  32.887  10.221   0.034  0.2662  0.1509  0.0325
92271W        W35184   7.221  24.435   4.054  0.0269  0.0049  0.1494
92272W        W35185  12.626  12.901   7.673  0.1270 -0.3799  0.0098
92273W        W35186   4.295  12.511   9.907 -0.3052 -0.3004  0.1205
92274W        W35187  10.427   6.231  12.086  0.0814  0.0587 -0.0279
92275W        W35188   4.198   7.807   5.391 -0.2021  0.1334  0.0535
92276W        W35189  18.496  21.412   8.056 -0.0206  0.0561  0.3596
92277W        W35190  33.769   9.907  26.388 -0.1013 -0.0184 -0.0659
92278W        W35191   5.391   0.959   3.133 -0.0159 -0.0557  0.1634
92279W        W35192   7.859  17.526   4.759  0.1351 -0.3592 -0.0565
92280W        W35193   0.766   3.185  26.303 -0.0547  0.0270 -0.0776
92281W        W35194   7.630  16.584   9.029  0.0279  0.3537  0.0496
92282W        W35195  11.233  25.112   6.614  0.2609  0.3238 -0.0773
92283W        W35196  12.741  22.163  25.386  0.2688 -0.0904 -0.1565
92284W        W35197  16.301  13.747   5.469 -0.3837 -0.0120 -0.0747
92285W        W35198  20.508   0.838   8.074 -0.0354  0.3270 -0.1498
92286W        W35199   5.876  13.040   5.360  0.0682 -0.4004 -0.2404
92287W        W35200  10.945   1.087   5.564 -0.1099  0.2100  0.0747
92288W        W35201  10.261  20.380   9.260 -0.1020  0.2794  0.1683
92289W        W35202   9.163  24.219   6.358 -0.1593  0.1335  0.2438
92290W        W35203   5.125  13.857   7.378 -0.0673 -0.0239 -0.2458
92291W        W35204  34.454  13.709   8.803  0.0222  0.2082 -0.0829
92292W        W35205   8.405   2.985   1.138 -0.3918 -0.0019  0.2584
92293W        W35206  12.387  10.771  10.121 -0.1766 -0.0496 -0.4879
92294W        W35207  13.262  17.221   3.721 -0.0697 -0.0263 -0.0444
92295W        W35208  18.576   9.482   2.093 -0.1756 -0.1215 -0.0780
92296W        W35209  34.186  14.086   2.605  0.1509 -0.2381  0.2294
92297W        W35210  18.799  11.471   6.906  0.1996 -0.1672  0.0712
92298W        W35211  19.971  12.512   8.837  0.0989 -0.0461  0.0814
92299W        W35212  25.259  10.579   8.168  0.1286 -0.3313  0.0163
92300W        W35213  14.859  16.907   0.856 -0.2186 -0.1924  0.1670
92301W        W35214  13.454  12.155   4.001 -0.2966 -0.1714  0.1448
92302W        W35215   9.796   1.927  12.486 -0.1779  0.1284  0.0636
92303W        W35216  22.165   0.367  28.956 -0.1270  0.0722 -0.1077
92304W        W35217   9.113  14.736   3.159  0.0920 -0.0112  0.1470
92305W        W35218  13.861  12.794   3.247 -0.0419  0.2840  0.2946
92306W        W35219   8.353  11.676   3.974  0.1882 -0.2491 -0.2171
92307W        W35220   4.593   1.559  12.057 -0.0103 -0.0233 -0.1000
92308W        W35221  17.271  17.765  28.280  0.0978  0.1886  0.2648
92309W        W35222  16.024  16.687  24.003 -0.3485  0.1967  0.0331
92310W        W35223  19.603  22.745   8.457  0.1471  0.0141  0.2109
92311W        W35224   1.962  29.146  29.249 -0.3188 -0.0743  0.2593
92312W        W35225   4.365  12.437   1.503  0.0742 -0.2154  0.2695
92313W        W35226  13.482  11.495   6.874  0.0539 -0.2295 -0.1210
92314W        W35227  15.315  19.258   2.926 -0.5245 -0.0647 -0.1351
92315W        W35228  13.046  17.463  18.038 -0.0472  0.0165 -0.0744
92316W        W35229  12.327  20.849   6.617 -0.0043  0.1696 -0.1030
92317W        W35230  13.584  12.414   6.509 -0.0719  0.2154  0.1093
92318W        W35231  10.876  11.090   1.893 -0.1250  0.0997  0.0513
92319W        W35232  15.356  25.436   2.758  0.0075 -0.1022  0.1309
92320W        W35233  18.015  15.679  29.608 -0.0886 -0.2831 -0.1655
92321W        W35234   9.314   9.641  11.290 -0.1367 -0.0808  0.1165
92322W        W35235  17.163  20.970   0.759  0.0228  0.1429 -0.0484
92323W        W35236   9.833  25.221   4.980 -0.1141 -0.0776 -0.1841
92324W        W35237  15.913  22.103   7.698  0.0110 -0.1867 -0.0315
92325W        W35238   7.869  16.199   0.072  0.1663  0.1006 -0.0403
92326W        W35239  12.075  10.912   2.777  0.0898  0.0580  0.3060
92327W        W35240   6.646   7.472   8.046 -0.1951 -0.3063 -0.3268
92328W        W35241   7.822   9.808   5.442 -0.0749  0.1133 -0.1661
92329W        W35242   3.021  28.170   6.008 -0.4651  0.1778  0.1101
92330W        W35243  16.626  22.245   4.000 -0.0447 -0.2923 -0.0411
92331W        W35244  32.805  23.200   3.264  0.0059  0.1637 -0.1585
92332W        W35245   8.747  13.024  28.979  0.1275  0.1760  0.2769
92333W        W35246   7.085  11.776  28.986 -0.3097 -0.0035 -0.0136
92334W        W35247  10.922  16.564   5.171  0.2108 -0.0378  0.1006
92335W        W35248  11.878  16.058   8.719  0.1428 -0.0614  0.1046
92336W        W35249  22.055  23.020   4.853  0.1829  0.1370  0.0103
92337W        W35250  10.987  24.113   3.210  0.2143  0.0347 -0.1468
92338W        W35251  10.344  17.849  27.892 -0.4396  0.1743  0.2802
92339W        W35252  13.635  14.238   7.948  0.2064  0.1234 -0.1505
92340W        W35253  19.295  19.638   7.931  0.1824 -0.1087 -0.0612
92341W        W35254  10.387  25.470   6.387  0.1754 -0.0499 -0.2622
92342W        W35255   6.949  19.786   8.444 -0.1452  0.1195 -0.1981
92343W        W35256  13.660  15.915   8.150 -0.2279  0.1507  0.1973
92344W        W35257   8.005  21.096   8.128  0.0330 -0.0980 -0.0006
92345W        W35258  15.503  24.700   9.934 -0.0045 -0.1366  0.1430
92346W        W35259   6.775   8.258   6.469 -0.0089  0.2362  0.0292
92347W        W35260  17.380  12.700   3.265  0.1782 -0.3071  0.2687
92348W        W35261  15.133  17.446   8.091 -0.1734 -0.1404  0.1184
92349W        W35262  19.438  21.935  25.700  0.1115 -0.3583  0.1176
92350W        W35263  13.166  27.891   7.535 -0.0542 -0.0840 -0.1179
92351W        W35264  15.253  16.284   6.681  0.2498 -0.0235  0.2170
92352W        W35265  13.220   6.691   7.507 -0.2324  0.0322 -0.0771
92353W        W35266  14.177  14.405  27.194 -0.0975 -0.0982 -0.1963
92354W        W35267  10.300  22.353   2.853  0.0721  0.0873  0.0313
92355W        W35268  15.062  16.809  23.774  0.1732  0.0580 -0.1467
92356W        W35269  14.929  18.326   6.707 -0.2084  0.1820  0.0326
92357W        W35270  14.975  24.563   0.131 -0.1962 -0.2895  0.0759
92358W        W35271   2.828  22.623   6.802 -0.0383  0.2984  0.0672
92359W        W35272  11.508  18.708   1.964 -0.2680 -0.1229  0.1915
92360W        W35273   4.285  21.567   9.757  0.1881  0.2565  0.1782
92361W        W35274  11.305  20.387   2.878  0.1408 -0.0481 -0.0837
92362W        W35275  10.691   8.895   3.640 -0.1377  0.3318 -0.0254
92363W        W35276  15.702  15.334   4.536 -0.2071 -0.0609  0.0403
92364W        W35277   4.906  10.763   3.844  0.3742  0.0004  0.0055
92365W        W35278  25.570  17.528   0.587  0.2127 -0.4579 -0.0024
92366W        W35279  15.076  17.617  24.571 -0.2030 -0.1406 -0.0157
92367W        W35280  18.163   0.448   9.251  0.0997 -0.0844  0.0539
92368W        W35281  11.316  27.056   5.371 -0.0599 -0.0753  0.0080
92369W        W35282  15.426  10.318   8.328 -0.1130 -0.2805 -0.1135
92370W        W35283  10.366  24.596   9.303 -0.1889  0.2805  0.2738
92371W        W35284   5.896  28.201  28.309 -0.0555  0.0253  0.1651
92372W        W35285  19.212  11.817  28.947  0.2794  0.1417  0.0021
92373W        W35286  16.816  29.673  10.370  0.1291  0.1255  0.1289
92374W        W35287   1.545  19.614   7.579 -0.1134 -0.0769 -0.4046
92375W        W35288   5.227  15.964  25.627 -0.0648  0.2034 -0.0663
92376W        W35289   7.620   1.661   2.325 -0.0884  0.1919  0.1864
92377W        W35290  15.288  11.622  25.304  0.1602 -0.3577 -0.0213
92378W        W35291  14.881   4.856   5.532 -0.0887  0.1819  0.0191
92379W        W35292   4.323  13.167   3.218 -0.0938 -0.0151  0.1809
92380W        W35293  13.857  15.685  28.899  0.0325 -0.2287  0.1283
92381W        W35294   8.538  31.600   7.612  0.1322  0.0965 -0.0895
92382W        W35295  14.669  19.315   3.945  0.0108 -0.0601  0.3456
92383W        W35296   8.937   6.835   4.047  0.3496  0.2706  0.0536
92384W        W35297  19.035  21.185   7.441  0.0203 -0.2027 -0.1652
92385W        W35298  15.220  14.456  24.906  0.0066 -0.2215 -0.1346
92386W        W35299  12.208  18.463   1.784  0.2072 -0.0672  0.1542
92387W        W35300   4.052  13.305  27.156  0.0253 -0.3026  0.1836
92388W        W35301  15.667  27.089   3.512  0.0632  0.0210 -0.3622
92389W        W35302   9.487  10.309   7.639  0.3337  0.0488 -0.0270
92390W        W35303  12.853  19.592   3.231  0.1370 -0.0930 -0.0498
92391W        W35304   4.955  11.461  27.290 -0.1683 -0.1770 -0.0036
92392W        W35305   8.141  17.906   5.155  0.0606  0.0968  0.1012
92393W        W35306  13.368   5.441   9.436 -0.3979 -0.0121  0.0805
92394W        W35307  16.291  21.291   5.504  0.1825  0.0580  0.4968
92395W        W35308  10.435   5.092  28.892 -0.3766  0.0474  0.1088
92396W        W35309   7.229  19.888   0.153 -0.1247 -0.0075 -0.0455
92397W        W35310   0.229  10.012   2.097 -0.4921  0.0150  0.1222
92398W        W35311  13.221   0.036   5.462  0.0107 -0.0124  0.1741
92399W        W35312   0.805   7.015   0.501  0.2001 -0.1177  0.2663
92400W        W35313  25.628   4.185  27.283 -0.1635  0.2074 -0.3648
92401W        W35314   8.893  15.421   5.475  0.0436 -0.0688 -0.0121
92402W        W35315  20.466  14.756   3.862  0.2027 -0.1990 -0.1995
92403W        W35316  16.854  20.809   7.071 -0.4171  0.0660 -0.0201
92404W        W35317  14.599   7.388   5.960 -0.2096  0.0845 -0.1248
92405W        W35318  15.189  20.197   5.175  0.0234 -0.3229 -0.1268
92406W        W35319   7.990  18.618   1.532  0.1668 -0.0274 -0.0322
92407W        W35320  13.584   2.392   0.154  0.0001  0.1699  0.2136
92408W        W35321  17.171  14.863   6.071  0.0048  0.2640  0.1392
92409W        W35322  16.356   9.718   1.224 -0.0612 -0.1104  0.1834
92410W        W35323  19.035   7.627   2.068 -0.2923 -0.1493  0.1186
92411W        W35324  22.437  10.611  27.140  0.2343 -0.3684 -0.2189
92412W        W35325  13.175  23.554  25.623 -0.2195  0.0145 -0.0606
92413W        W35326   4.966  21.747  10.316 -0.0277 -0.1315 -0.3370
92414W        W35327  16.537  13.896  29.234 -0.2111  0.1081 -0.1483
92415W        W35328  10.991  15.055   3.998  0.0727  0.3624  0.1406
92416W        W35329   7.945  18.873  10.167 -0.0140  0.1638 -0.1157
92417W        W35330  15.910   8.497   4.763 -0.3571  0.1091  0.1348
92418W        W35331   7.026  20.810  28.934 -0.1055  0.1287 -0.2057
92419W        W35332  11.649  24.271   4.244  0.0643  0.0829  0.1995
92420W        W35333   4.598   7.517   0.212 -0.0552 -0.1090 -0.3664
92421W        W35334  28.202  30.558   3.976 -0.0131 -0.0632  0.1109
92422W        W35335  13.080  10.461   5.956  0.1791 -0.2016 -0.2919
92423W        W35336  15.466  12.728   7.640 -0.4562  0.1790 -0.0134
92424W        W35337  22.377  12.532  29.751  0.1559 -0.1429 -0.0792
92425W        W35338  23.789  20.522   3.232 -0.3515  0.0144  0.1085
92426W        W35339  15.152  25.594   9.316 -0.0164 -0.0038 -0.2495
92427W        W35340   3.029   5.555  12.524  0.1510  0.2861  0.0297
92428W        W35341  12.486  14.662   5.777  0.0760 -0.0782 -0.0376
92429W        W35342   1.771  11.519   0.775  0.0424 -0.0216 -0.0675
92430W        W35343  15.525  22.008   3.993  0.0718 -0.0660  0.1478
92431W        W35344  12.702  16.466   8.309 -0.2184 -0.1270  0.0025
92432W        W35345   6.323  26.777   6.055 -0.3578  0.0717  0.2791
92433W        W35346   5.412  24.231   0.057 -0.2902 -0.0442  0.3313
92434W        W35347   4.093   8.140  26.679 -0.3217  0.1062 -0.2689
92435W        W35348  15.031  32.032  28.729  0.2191 -0.3016 -0.0437
92436W        W35349   7.349  18.378   9.258 -0.1701 -0.1107 -0.0013
92437W        W35350  18.940  15.819   7.123 -0.2431  0.0931 -0.1553
92438W        W35351  15.542   7.759   6.388  0.0887 -0.1080 -0.2232
92439W        W35352  18.193  21.105   6.712  0.0916 -0.0985  0.2015
92440W        W35353  14.291  21.396  25.443  0.0042  0.1830 -0.4005
92441W        W35354   4.777  11.052   3.405  0.3084  0.1196  0.3000
92442W        W35355  17.574  21.402   4.942 -0.1775 -0.3007 -0.1248
92443W        W35356   6.539  10.387   8.524  0.0319  0.0004 -0.2795
92444W        W35357  10.907  12.414   5.517  0.3677  0.0333  0.3218
92445W        W35358   9.672   9.672  29.653  0.4476  0.2325 -0.1797
92446W        W35359   6.822  11.833   1.620 -0.1401  0.0057 -0.2106
92447W        W35360  13.781  29.697   5.630 -0.0026 -0.0589  0.3590
92448W        W35361   2.384  20.302   8.804 -0.3730  0.0228  0.1348
92449W        W35362   0.269  14.769  24.370 -0.0759  0.1533  0.2174
92450W        W35363  17.635  17.366  23.589 -0.3095  0.3013  0.3099
92451W        W35364  11.499  26.586   8.978  0.2337 -0.0956 -0.0501
92452W        W35365  15.110  19.172   5.212  0.1584  0.0433 -0.3555
92453W        W35366  11.417  16.905   8.694 -0.0550 -0.1393 -0.0773
92454W        W35367   7.375  11.979   1.005  0.3292 -0.1436 -0.2483
92455W        W35368   7.348  17.541   1.406  0.0497  0.2016  0.2428
92456W        W35369  27.472   4.869   3.714 -0.1501 -0.2164  0.3719
92457W        W35370  13.924  27.936   6.091 -0.1386 -0.1413 -0.1141
92458W        W35371   1.756  13.509   1.980  0.2676 -0.2158  0.0391
92459W        W35372   0.633  21.139   3.118 -0.4256 -0.1536  0.0435
92460W        W35373  20.992  13.853   8.399 -0.0909  0.0794  0.0687
92461W        W35374  20.689  20.077   8.201  0.2507  0.1050 -0.0007
92462W        W35375  20.500  16.601   7.248 -0.3729 -0.0491 -0.0373
92463W        W35376  14.945  14.540   9.178  0.2800  0.2430 -0.1268
92464W        W35377  17.185  13.121   4.569  0.0492  0.2748  0.3022
92465W        W35378  21.296  20.834   4.273  0.0729 -0.1068  0.1540
92466W        W35379   8.966   9.183   0.830 -0.0997  0.2471 -0.0356
92467W        W35380   3.297  11.858  25.868  0.4967  0.1056  0.4187
92468W        W35381  13.642  15.762  25.939 -0.0240 -0.1032 -0.2122
92469W        W35382   4.599  13.250   8.733  0.1200 -0.2056 -0.1820
92470W        W35383  26.848   7.247   9.566  0.1176  0.2124 -0.1998
92471W        W35384  27.701  18.262   2.403  0.3535  0.2812 -0.4631
92472W        W35385   8.112  14.425   8.007  0.1167  0.0561  0.1492
92473W        W35386   5.127  12.514  10.029 -0.2629 -0.0215  0.0262
92474W        W35387  17.048  18.191   7.795  0.0753 -0.1217 -0.0188
92475W        W35388   6.936   7.549  20.259 -0.1486  0.3240 -0.2036
92476W        W35389   7.345   9.468   7.775 -0.0951  0.1848  0.1353
92477W        W35390  19.336  12.226   6.681  0.0314 -0.2066  0.1306
92478W        W35391   6.972   5.880  27.759  0.0921  0.3621  0.0530
92479W        W35392  15.401  16.986  25.803  0.3723  0.2491 -0.1340
92480W        W35393  14.746  13.966   5.855 -0.1682  0.1980  0.0429
92481W        W35394   6.684  23.893  10.110 -0.2342 -0.5812 -0.1015
92482W        W35395  10.121   1.531   4.521 -0.3160 -0.0637 -0.0010
92483W        W35396   6.208  25.752   3.210  0.4296  0.0051 -0.1891
92484W        W35397   3.125  11.407   1.103 -0.0849  0.0073 -0.2563
92485W        W35398   4.404  11.724  28.567 -0.0675  0.1748 -0.2260
92486W        W35399  15.452  26.814   4.298  0.2046  0.1650 -0.2183
92487W        W35400  19.894   6.219  24.650  0.1114 -0.4472 -0.3359
92488W        W35401   3.899  10.617   3.025 -0.0587 -0.0350  0.1756
92489W        W35402   5.361  20.107   5.437  0.1533 -0.0619  0.0711
92490W        W35403  12.723  17.490  29.723  0.1253  0.0948 -0.0055
92491W        W35404  10.706   8.154   2.632  0.2581 -0.0253 -0.2185
92492W        W35405  15.609  23.377  26.068 -0.2173 -0.3028 -0.0652
92493W        W35406  13.556  12.158   3.451 -0.2180 -0.1128  0.1320
92494W        W35407  21.036  16.042   5.441 -0.0744  0.3238 -0.1784
92495W        W35408   2.157  24.349   4.248 -0.4706 -0.0721 -0.4383
92496W        W35409  33.947  15.512   4.290  0.4030 -0.1374 -0.4487
92497W        W35410  16.249  22.408   1.079 -0.2232 -0.1417  0.1537
92498W        W35411  17.018  17.606  28.723  0.2796 -0.0963 -0.2696
92499W        W35412  17.560  18.561   3.206 -0.1494  0.2431 -0.0876
92500W        W35413  24.104  16.556   3.196 -0.0173  0.2413  0.2311
92501W        W35414  10.650   8.394   6.875  0.1946 -0.0542  0.0873
92502W        W35415  13.071  15.282   6.784  0.0274  0.0269 -0.0079
92503W        W35416  30.955  13.076  28.507 -0.0491 -0.1418  0.0578
92504W        W35417  11.034  17.998   2.384  0.0131  0.2206 -0.0540
92505W        W35418  15.041  17.646   0.162  0.1799  0.1530 -0.0848
92506W        W35419  14.178  13.635   4.077  0.0282  0.2449 -0.1413
92507W        W35420  10.446  16.720  21.770 -0.6081 -0.1626 -0.0161
92508W        W35421  24.955  18.810   7.257  0.0229  0.0598 -0.1575
92509W        W35422  18.166  17.137  26.630 -0.2108  0.3101  0.1605
92510W        W35423  13.421   9.915   1.936 -0.1697  0.1658  0.0858
92511W        W35424  12.178   2.447   6.908 -0.2912  0.1131  0.0316
92512W        W35425   2.160  20.426   5.739 -0.2037  0.4195 -0.2197
92513W        W35426  12.953  13.504   6.947  0.2349  0.1595 -0.1550
92514W        W35427  13.329  20.771   6.888 -0.0852 -0.1489  0.1106
92515W        W35428   3.796   4.449  28.398  0.2306 -0.2796  0.1934
92516W        W35429  16.288  22.122   5.005 -0.0389 -0.0693  0.0029
92517W        W35430  10.693  12.937   7.637 -0.1985  0.0996  0.1487
92518W        W35431  15.536  14.939   7.628 -0.2171  0.0104 -0.0189
92519W        W35432  24.433  19.076   2.930  0.1201  0.2037 -0.2249
92520W        W35433   5.146  13.459   6.954 -0.3310  0.0799 -0.0528
92521W        W35434   7.936   3.900   5.640 -0.1684 -0.2627  0.0855
92522W        W35435  15.146  13.310   3.277  0.0869 -0.3555 -0.1655
92523W        W35436   1.531   8.285   6.473  0.1236 -0.2405 -0.2178
92524W        W35437  11.022   8.780  10.050 -0.1597 -0.3089  0.1175
92525W        W35438  11.024  20.799   6.783  0.3408 -0.0742  0.1368
92526W        W35439  10.463  27.414   2.539  0.2993 -0.1443  0.1153
92527W        W35440   6.369   0.000   8.835 -0.2143  0.0226  0.0814
92528W        W35441  14.842  16.250   1.239 -0.2545 -0.3432 -0.0492
92529W        W35442  29.127  16.409   9.463  0.0463  0.0199  0.1584
92530W        W35443  10.763  14.519   2.193  0.0611  0.2497  0.0601
92531W        W35444  13.751  17.465   5.275 -0.2418  0.0193 -0.3619
92532W        W35445  16.335  19.288   4.784  0.0257 -0.1887 -0.0508
92533W        W35446  14.699  17.459   5.506  0.1125  0.0828  0.1586
92534W        W35447  13.216  17.992  22.640 -0.0652  0.1023  0.2858
92535W        W35448   0.121   3.564   5.549 -0.1678  0.1874 -0.2256
92536W        W35449  10.401  16.803   3.470 -0.1507  0.1982  0.0470
92537W        W35450  20.422  14.404   7.400 -0.0291  0.1162  0.2857
92538W        W35451  16.989  16.177   7.268  0.3277  0.0037 -0.1866
92539W        W35452  17.460   9.637   5.656 -0.1709  0.3288  0.3905
92540W        W35453  34.421  32.115  28.314  0.2734  0.0387 -0.2301
92541W        W35454  16.715  31.363   7.817 -0.1745  0.1547 -0.2049
92542W        W35455  11.331   9.163   7.888  0.2357 -0.3792 -0.0286
92543W        W35456  18.438  11.623   1.045  0.0764  0.1529 -0.0089
92544W        W35457  10.270  21.096   9.580  0.0869 -0.0596  0.1918
92545W        W35458  11.731  12.410  28.044  0.1368  0.1778 -0.1632
92546W        W35459   8.052  17.966   8.049  0.3226 -0.1615  0.4335
92547W        W35460  10.784  23.172   7.562  0.3701  0.0553  0.1582
92548W        W35461  16.465  21.015  17.032  0.1852  0.1044  0.1653
92549W        W35462  12.316  34.079   9.278 -0.0509 -0.0917  0.0892
92550W        W35463  12.670  11.712  28.255  0.4221  0.1877 -0.1807
92551W        W35464  10.607   9.051   8.063  0.0391 -0.2246 -0.1716
92552W        W35465  13.068  13.239  25.020  0.4580  0.1304 -0.3460
92553W        W35466   2.386  20.762   6.073  0.0735 -0.0041  0.0333
92554W        W35467   5.320  11.325   9.124  0.2484 -0.2070 -0.1432
92555W        W35468  14.178  16.669  25.085 -0.1117 -0.0893  0.0799
92556W        W35469   3.166  16.327   3.388 -0.0868  0.0064  0.0689
92557W        W35470   8.893  16.986   6.015 -0.0672  0.0598 -0.2945
92558W        W35471  19.691  14.119   1.212 -0.2296 -0.1626  0.1577
92559W        W35472   3.401  26.215   9.196 -0.1893 -0.3453  0.0137
92560W        W35473  11.988  12.475   7.544 -0.1164 -0.0830  0.1149
92561W        W35474  11.387   8.675  24.221 -0.1955 -0.1525  0.1287
92562W        W35475   8.219  16.022  26.976 -0.0963  0.0116  0.1508
92563W        W35476  23.148  32.230   9.056  0.3662  0.0487 -0.1837
92564W        W35477  14.765  12.087  27.163  0.1523  0.1720 -0.3612
92565W        W35478   4.890  22.961   6.988 -0.0906  0.2143 -0.1152
92566W        W35479  25.655  20.203   5.338  0.0604 -0.0164 -0.2720
92567W        W35480  10.517   6.782   6.813  0.1901 -0.1266  0.3039
92568W        W35481  11.713   6.783   5.176 -0.0535 -0.4085 -0.2745
92569W        W35482  21.012  18.204   2.143  0.3057 -0.3323  0.0390
92570W        W35483   6.329  11.273   2.534  0.1654 -0.3149 -0.0889
92571W        W35484   6.251  22.361   6.952 -0.0112  0.1233  0.3344
92572W        W35485  10.678  13.598   9.203  0.2109  0.2488  0.0932
92573W        W35486  17.042  14.809  23.502 -0.1981  0.2117 -0.0081
92574W        W35487   8.448  22.878   6.219  0.0006 -0.1129 -0.0753
92575W        W35488  17.510   9.777   3.354  0.2791  0.1282 -0.1430
92576W        W35489  18.459   7.596   6.676  0.1594  0.2778  0.1109
92577W        W35490  10.572  14.611   8.969  0.1059 -0.0350 -0.2089
92578W        W35491   4.284  12.209   9.445 -0.2009  0.0907  0.2092
92579W        W35492   5.676  17.797   8.081  0.0341 -0.2505  0.1217
92580W        W35493  12.730   6.615   7.361  0.1457  0.0838  0.0975
92581W        W35494  20.680  15.935   5.811 -0.2737  0.2882  0.1532
92582W        W35495   5.148  11.269  10.000  0.1789 -0.2157  0.0336
92583W        W35496  16.454   8.317   9.221 -0.1489  0.0382  0.1908
92584W        W35497  20.513  21.793   7.759 -0.1330 -0.0733  0.3432
92585W        W35498  15.188  20.356   7.281 -0.0876 -0.1531  0.1299
92586W        W35499   3.187  18.526   9.840 -0.0735  0.1962 -0.1285
92587W        W35500  11.024   6.869   9.086  0.3588  0.4324  0.1866
92588W        W35501  12.901  16.158  27.974  0.2272  0.1443 -0.0025
92589W        W35502  32.807  13.099   9.123  0.1843 -0.4182 -0.0159
92590W        W35503   4.916   7.806  11.317  0.1359  0.1926  0.1068
92591W        W35504   4.238  23.968   3.438  0.1585  0.2339 -0.0139
92592W        W35505  10.710  16.475  26.130  0.1247 -0.0628  0.0280
92593W        W35506   6.083   9.035   3.246  0.1013  0.1193 -0.2284
92594W        W35507  15.366  11.544   8.218  0.1904 -0.0458  0.1852
92595W        W35508  14.942  13.351   7.065  0.0675 -0.3487  0.2407
92596W        W35509   4.611   2.614  11.914  0.0983 -0.1910  0.0857
92597W        W35510  20.400  11.662   2.374 -0.0596 -0.0850 -0.0483
92598W        W35511  21.248  14.520   3.539  0.3321 -0.0611  0.1169
92599W        W35512   5.507   0.574  13.141  0.0094 -0.1996 -0.3722
92600W        W35513   9.458  17.248   2.834 -0.0182  0.3796 -0.0584
92601W        W35514  17.068  20.736   8.615  0.2240 -0.0181  0.1229
92602W        W35515  20.141  19.936   6.610  0.0098  0.0936  0.1467
92603W        W35516  13.352  12.739   6.994 -0.0513 -0.2891 -0.0475
92604W        W35517   6.310  11.929  10.143 -0.2126  0.0484  0.3397
92605W        W35518  10.372  10.242   9.018  0.1647  0.1256  0.2858
92606W        W35519  12.196  12.554   4.837 -0.3117  0.1816  0.0525
92607W        W35520   9.439  14.714   9.912 -0.0897 -0.0121 -0.1798
92608W        W35521  11.417   6.644   1.149 -0.2328  0.0826  0.1942
92609W        W35522  14.496   9.698   7.356 -0.0482  0.1318 -0.2726
92610W        W35523  17.011  15.629   0.969  0.4706 -0.4867  0.1179
92611W        W35524  27.343  18.582   2.640 -0.1074 -0.2542 -0.1197
92612W        W35525  21.469  23.124   3.423 -0.1306 -0.0366  0.2195
92613W        W35526  13.230  13.995   1.903 -0.0099 -0.1166  0.3448
92614W        W35527  21.365   9.606   5.461  0.3030  0.0079  0.0267
92615W        W35528   1.787  29.039  10.158  0.1802  0.0017  0.0851
92616W        W35529   9.317  13.495  29.148  0.0413  0.2965  0.1569
92617W        W35530   9.950   1.919   7.865 -0.2250 -0.3598 -0.1129
92618W        W35531   9.635   2.360   7.581 -0.1158 -0.0352 -0.1000
92619W        W35532   0.509  28.259   2.221 -0.1661  0.1800  0.1523
92620W        W35533  32.640   8.230   2.336 -0.0934 -0.2071  0.1605
92621W        W35534  13.356  17.982   2.952  0.1854 -0.4641  0.3460
92622W        W35535  14.753  12.096   8.463  0.0907 -0.0069 -0.0488
92623W        W35536   2.934   5.587   7.726 -0.0734  0.0980 -0.0283
92624W        W35537   7.707  16.005   9.473  0.1231  0.0591 -0.1838
92625W        W35538   7.238  23.008   3.273 -0.0747 -0.0644 -0.2657
92626W        W35539  33.760   6.964   3.233 -0.0074 -0.2947 -0.1437
92627W        W35540   0.693  25.614   8.614 -0.0416  0.1264 -0.1859
92628W        W35541  13.662  25.996   0.932 -0.0171  0.1577  0.0657
92629W        W35542   4.348  16.941   6.993 -0.1838  0.0972  0.0524
92630W        W35543  13.595  16.672   0.332  0.2301  0.0753 -0.4275
92631W        W35544   8.537  24.103   7.346 -0.3082 -0.0150 -0.0257
92632W        W35545  11.747  17.306  26.945  0.1361 -0.1365 -0.0851
92633W        W35546  12.063  11.351  29.634 -0.0338 -0.1020  0.0822
92634W        W35547  29.904   0.868  11.470 -0.2743  0.0579 -0.1390
92635W        W35548   6.333  13.143   6.026  0.0524 -0.2935 -0.0477
92636W        W35549   2.679  18.123  28.447  0.0614  0.2328 -0.1059
92637W        W35550   6.437  13.611   7.205  0.1978 -0.1463 -0.1896
92638W        W35551  13.733  16.635   6.322  0.0084  0.1376 -0.1827
92639W        W35552   7.718  11.633   5.987  0.3023 -0.5247  0.2585
92640W        W35553   8.771  15.428   3.793 -0.1279  0.1505  0.6283
92641W        W35554   5.769   1.363  13.046 -0.1140  0.0941 -0.2698
92642W        W35555   8.261  17.646   7.708 -0.0262 -0.2284  0.0214
92643W        W35556   4.497  15.605   1.957 -0.1291 -0.1740 -0.2046
92644W        W35557  15.144  17.888   4.098 -0.2006  0.2057  0.2829
92645W        W35558  12.729  19.771   3.707  0.1437  0.2786  0.1231
92646W        W35559   9.541   5.983  11.509  0.0154 -0.0250  0.0965
92647W        W35560   6.633  27.334   4.422  0.0191 -0.0902 -0.2879
92648W        W35561  19.409  22.351   8.728  0.1389  0.4064 -0.1778
92649W        W35562   6.554  13.812   7.662  0.0122 -0.2588 -0.0768
92650W        W35563  13.903   8.133   9.756 -0.0610  0.1271 -0.2834
92651W        W35564  10.332   5.963   8.841 -0.2249  0.0827 -0.0713
92652W        W35565  19.231  15.906   5.084  0.0754 -0.1062 -0.0068
92653W        W35566   4.026  18.626   5.813 -0.0999 -0.0602 -0.1748
92654W        W35567   7.673  14.547   8.249  0.0437 -0.0107  0.3736
92655W        W35568   9.690  22.385   6.710 -0.0484  0.0137  0.0717
92656W        W35569  10.884  10.042   4.833 -0.1885  0.0018 -0.2229
92657W        W35570  13.265  17.396   4.962 -0.3442 -0.0791  0.0831
92658W        W35571  28.519  20.911   9.475  0.0970  0.2210  0.0296
92659W        W35572  12.264   8.082   7.768  0.2017 -0.0358 -0.0353
92660W        W35573  17.511  16.955   8.632  0.0242  0.1570 -0.2088
92661W        W35574  12.940  28.286  10.068  0.2091 -0.2304 -0.1816
92662W        W35575  11.619  10.441  29.498 -0.1061  0.1509 -0.0090
92663W        W35576  14.284  11.423   4.645  0.1655  0.1282 -0.0925
92664W        W35577  14.482  19.360  17.255  0.2127 -0.0688  0.2062
92665W        W35578   8.556  22.895  10.261  0.1827  0.2981 -0.0544
92666W        W35579  16.654  15.071   4.405  0.0433 -0.1393 -0.1757
92667W        W35580  15.498  14.371   1.098 -0.3177  0.3370 -0.0249
92668W        W35581  26.364  18.845   0.895  0.1816  0.0689 -0.1356
92669W        W35582  30.247  13.817  27.447 -0.1684 -0.1514 -0.2021
92670W        W35583   1.884   7.257  25.742  0.0273  0.3993 -0.3364
92671W        W35584   9.652  13.062   4.450  0.0975  0.2355  0.0649
92672W        W35585  12.908  13.093   6.651 -0.0981 -0.1965  0.0370
92673W        W35586   9.503   5.094  11.161  0.1488 -0.1259 -0.3435
92674W        W35587  12.494  15.355   3.921 -0.1863  0.1356  0.1757
92675W        W35588   2.594   7.384   9.905 -0.0739  0.0763  0.0275
92676W        W35589  18.287  11.056   7.747  0.0744  0.2552 -0.0894
92677W        W35590  33.287  10.139   8.753 -0.4407  0.2629  0.1741
92678W        W35591   3.269  18.161   3.354  0.0752 -0.0754  0.2230
92679W        W35592  10.483  12.332   1.949 -0.0412  0.1877  0.2834
92680W        W35593  12.550  20.214   7.754  0.1394  0.1714  0.0561
92681W        W35594   4.930  16.920   8.190 -0.2558 -0.1335  0.2711
92682W        W35595   8.758  18.034   7.713  0.1229  0.0198 -0.0221
92683W        W35596   9.202  17.239   0.804 -0.1465 -0.2923  0.1431
92684W        W35597  11.152  22.629   4.792 -0.1471  0.0151 -0.1347
92685W        W35598   2.805  24.000   3.765 -0.1437 -0.0799 -0.0422
92686W        W35599   1.447  19.135   4.625 -0.0783 -0.3136  0.2199
92687W        W35600  11.107  23.584   5.085 -0.1702  0.0589 -0.0501
92688W        W35601   8.696   6.966  28.543  0.0377  0.0186  0.0881
92689W        W35602  17.858  11.820   2.055  0.0098 -0.0138 -0.0711
92690W        W35603  17.266  24.729   6.099 -0.0439 -0.1227 -0.0322
92691W        W35604   8.151  21.743   4.161  0.0530  0.3197  0.0778
92692W        W35605   6.115   4.868  12.252 -0.1499  0.3918  0.1645
92693W        W35606   2.965   7.257  13.011  0.0096 -0.0599  0.2948
92694W        W35607  10.329  17.470   7.028 -0.1530  0.1058 -0.1783
92695W        W35608  29.276  27.203   9.304 -0.0105 -0.0862  0.1422
92696W        W35609  27.267   8.568   3.324 -0.0899 -0.3559 -0.3374
92697W        W35610  13.885  21.328   4.647  0.1644 -0.2506  0.2281
92698W        W35611  18.018  15.240   4.319 -0.4303 -0.0888  0.0059
92699W        W35612  13.243  18.700   4.913  0.0051 -0.1025  0.2153
92700W        W35613  20.890  11.009   7.025  0.1606 -0.1095 -0.2925
92701W        W35614  15.114  21.062   5.537 -0.1968  0.0264  0.0940
92702W        W35615  14.507  19.812   5.754  0.1862 -0.1109  0.1018
92703W        W35616   7.921   8.066   6.145  0.1861 -0.0916  0.1838
92704W        W35617  12.125  30.306   3.316  0.0937 -0.3179 -0.1459
92705W        W35618  14.239  21.073   3.778  0.1144  0.0946  0.1672
92706W        W35619   7.640  12.093  22.995 -0.1802  0.1662 -0.0729
92707W        W35620  14.187  27.838   9.896 -0.4909 -0.1096  0.0388
92708W        W35621  10.438  21.170   4.518  0.0074  0.2457  0.1961
92709W        W35622   5.968  15.357   7.625  0.2283  0.1084  0.2389
92710W        W35623  16.469  16.612   4.486 -0.0918 -0.3114  0.0594
92711W        W35624   8.784  23.600   9.299 -0.3958  0.0400 -0.3930
92712W        W35625   9.991   6.219  10.650 -0.0460  0.1281 -0.1822
92713W        W35626   9.123  16.417   8.268  0.0519  0.1509  0.2774
92714W        W35627   7.099  15.964   7.729 -0.0388  0.2053  0.1170
92715W        W35628   7.120  17.705  25.074 -0.3478  0.1759 -0.2197
92716W        W35629  20.371  25.355   4.926  0.0423  0.0752  0.1413
92717W        W35630  12.985  11.851   4.095 -0.0466 -0.0778 -0.0102
92718W        W35631  15.630  20.456   1.997  0.1410 -0.4766 -0.1763
92719W        W35632   4.979  17.802   7.041 -0.0542 -0.0674 -0.1550
92720W        W35633  14.040  10.440   8.741  0.0149 -0.0793  0.0886
92721W        W35634   7.034   6.749   5.376 -0.0605 -0.2692 -0.0512
92722W        W35635   7.848  17.013   4.999  0.2084  0.1902 -0.3293
92723W        W35636  15.128  17.383   0.881  0.1816  0.1810 -0.1135
92724W        W35637   6.359   6.320   8.560 -0.0298  0.3922  0.0362
92725W        W35638  22.964  16.964   7.257  0.0810 -0.0091  0.0785
92726W        W35639   6.709  13.082   9.313  0.0851  0.2024 -0.1290
92727W        W35640  20.597  13.083   7.247 -0.0825 -0.3594  0.0015
92728W        W35641  10.096  21.605  29.335 -0.0079 -0.1008 -0.0344
92729W        W35642  16.036  24.729   7.369  0.0204  0.0019 -0.0547
92730W        W35643   2.343  13.076   9.300  0.1091  0.0134  0.0367
92731W        W35644   6.730   7.717   1.840 -0.0142 -0.1563 -0.4166
92732W        W35645   7.793  10.338   6.320 -0.0222  0.0658  0.2752
92733W        W35646  19.565  13.866  25.947  0.0339 -0.2066 -0.4282
92734W        W35647   6.687  26.210   4.806  0.4396  0.0794 -0.2426
92735W        W35648   1.748   6.340  10.334 -0.1600 -0.1570  0.0619
92736W        W35649  33.383  14.538   8.713  0.0605 -0.1477 -0.1927
92737W        W35650  15.177   3.855   3.260 -0.0863  0.1544 -0.1941
92738W        W35651  10.079  16.266   9.718  0.1002 -0.0031 -0.0759
92739W        W35652  15.321  10.692   4.546 -0.2008  0.1174  0.0017
92740W        W35653  11.789   7.574   4.060  0.0559  0.1519  0.2285
92741W        W35654  31.635  14.049   7.997 -0.0142  0.1801 -0.0818
92742W        W35655  16.510  22.306   8.554  0.2809 -0.1971 -0.0038
92743W        W35656   3.436  15.797  10.269  0.3988 -0.0530 -0.0647
92744W        W35657  17.874  25.560   8.875  0.1530 -0.2736 -0.1811
92745W        W35658   6.593  12.890   8.859 -0.1854 -0.0883 -0.3959
92746W        W35659  15.845  10.726   8.561  0.0162  0.1810 -0.1137
92747W        W35660   0.184   8.978   7.917 -0.2709  0.0740 -0.4321
92748W        W35661  12.218   1.392  11.193  0.1563 -0.2759  0.1689
92749W        W35662  15.695  15.510   6.021  0.0257 -0.1599  0.0865
92750W        W35663  10.469  28.084   1.681 -0.2948  0.2384 -0.0283
92751W        W35664   5.382  13.075   0.290 -0.0743 -0.0249  0.1457
92752W        W35665   2.451  11.967   2.904 -0.2757  0.1789  0.1901
92753W        W35666  15.053  20.716   5.019  0.0261  0.1118 -0.0588
92754W        W35667  17.809  23.971   6.774  0.3764 -0.0461 -0.1493
92755W        W35668  33.214   7.992   7.753 -0.4027  0.5124 -0.0093
92756W        W35669   2.147   5.854   8.904  0.1269  0.0756 -0.2661
92757W        W35670   4.091  16.004   9.658  0.1480 -0.1649  0.1125
92758W        W35671   6.379   7.663  12.028  0.0335 -0.2923  0.1491
92759W        W35672  18.424  20.931   5.158 -0.0693  0.2829 -0.0823
92760W        W35673  10.155  27.605  28.975 -0.0465 -0.1133  0.4585
92761W        W35674  11.759  14.817   7.790  0.1340 -0.0155 -0.1486
92762W        W35675  11.304  13.519   7.065 -0.0197 -0.0978  0.0374
92763W        W35676  20.253  14.286   6.589  0.4745  0.1561 -0.2375
92764W        W35677   7.591   3.941   4.531 -0.0107 -0.1683  0.0238
92765W        W35678  11.635  11.152  29.677  0.2048  0.0306  0.0657
92766W        W35679   7.754   8.212   7.186 -0.1813 -0.0898 -0.0729
92767W        W35680  18.549   6.154   5.286 -0.2950  0.2374 -0.0797
92768W        W35681  12.464   8.621  10.850  0.0834 -0.1032 -0.0075
92769W        W35682  12.047  19.567   1.631  0.0030 -0.1242 -0.0240
92770W        W35683  11.300  18.311   4.479 -0.0936 -0.0620 -0.0139
92771W        W35684  18.691  12.658  27.214  0.0033 -0.0912 -0.4552
92772W        W35685  21.795  19.020  26.267 -0.0388 -0.1278 -0.2066
92773W        W35686  11.487  32.482   1.995 -0.0249  0.0246 -0.0488
92774W        W35687  11.512  15.222   7.700 -0.1086 -0.0498 -0.1082
92775W        W35688  21.410  15.907   0.591  0.2406  0.1422 -0.0286
92776W        W35689   7.433  16.036   8.222 -0.1831  0.1740 -0.0864
92777W        W35690   7.121  17.370   5.455 -0.1924 -0.1384  0.0962
92778W        W35691  27.786  18.446   7.322  0.0050  0.0397 -0.0345
92779W        W35692  16.125  12.793   0.525  0.2832  0.1823  0.1782
92780W        W35693  17.973  15.927   4.869  0.4195 -0.5177  0.2494
92781W        W35694  17.573   4.330   0.872 -0.0479 -0.3612 -0.1791
92782W        W35695  16.061  16.871  29.418  0.1664 -0.4172 -0.0911
92783W        W35696  23.470  22.894   6.765 -0.2375  0.0624  0.0601
92784W        W35697  19.904  16.694  28.690  0.1398 -0.1616  0.0849
92785W        W35698  17.612  18.087   7.003  0.1981 -0.1447  0.3209
92786W        W35699  12.876  20.637   7.133 -0.1369  0.2512  0.0917
92787W        W35700  15.110  11.681  24.785  0.3233 -0.3291 -0.3259
92788W        W35701  12.073  11.413   7.957  0.1767  0.0471  0.0572
92789W        W35702   4.227  29.667   4.138  0.2748  0.2052 -0.1382
92790W        W35703   1.887  14.929   5.966  0.0437 -0.1597  0.1388
92791W        W35704  12.725   3.895   9.193 -0.0324 -0.2134  0.0629
92792W        W35705   5.473   5.811   0.959 -0.2383 -0.0526  0.2026
92793W        W35706   3.982  10.172   5.251 -0.0917  0.1648  0.0232
92794W        W35707   8.706  11.055  23.335  0.0650  0.0913  0.1239
92795W        W35708   5.395  12.782   5.545 -0.1386  0.1963 -0.1077
92796W        W35709  12.975  18.058   7.980 -0.1098  0.0338  0.0632
92797W        W35710  10.249  16.709  29.252  0.0858 -0.0900  0.1546
92798W        W35711  13.959  25.536   2.384  0.0514  0.2173  0.0899
92799W        W35712   5.238   4.865  29.312  0.5465  0.1098  0.0917
92800W        W35713  10.692   1.518   5.932 -0.2282  0.1617 -0.0416
92801W        W35714  13.319   5.714  10.500  0.2600 -0.3549 -0.0366
92802W        W35715  23.401  13.776   6.177 -0.2993  0.2098  0.0203
92803W        W35716  21.612   9.684   0.929 -0.0061 -0.2968  0.1098
92804W        W35717  19.041  12.015  26.140  0.1929 -0.3855  0.0859
92805W        W35718   7.792  13.486   7.019  0.1380  0.1060 -0.1598
92806W        W35719  10.921  11.468  10.012  0.4352 -0.1004  0.1146
92807W        W35720  20.881  18.776  23.300 -0.1609 -0.1777 -0.1581
92808W        W35721  14.610  10.475   7.894  0.3025  0.0592 -0.2368
92809W        W35722  19.027   4.796   1.529  0.0761 -0.0568 -0.1279
92810W        W35723   7.666  18.555   5.060  0.1831  0.0247 -0.0621
92811W        W35724  15.714   2.058  11.457  0.1495  0.1745 -0.0779
92812W        W35725  11.778  10.115   7.024  0.5106  0.0578 -0.1949
92813W        W35726  16.953  25.200   3.761 -0.0099  0.1072 -0.2530
92814W        W35727   3.753  29.675   4.946 -0.1871  0.2104  0.3371
92815W        W35728   8.773   8.939   8.521 -0.3015 -0.0966 -0.0629
92816W        W35729   6.695  17.512   8.201  0.2488  0.0679 -0.1234
92817W        W35730  20.437  13.544   3.463 -0.3126 -0.1234  0.0925
92818W        W35731   6.644  16.306  23.569 -0.0884 -0.1809  0.1869
92819W        W35732   6.699  16.770   8.926  0.1661 -0.1704 -0.0232
92820W        W35733   3.656  15.521   7.977  0.0538 -0.0191 -0.0004
92821W        W35734  13.112   2.537   8.531 -0.0140 -0.0587 -0.0508
92822W        W35735   5.543   8.272   5.468  0.1691  0.0077 -0.0707
92823W        W35736  18.953  18.829   3.572 -0.1917  0.1286 -0.1833
92824W        W35737  14.297  28.056   8.630 -0.0992 -0.0750  0.0323
92825W        W35738  18.558  15.430   3.570 -0.0432 -0.0341  0.2359
92826W        W35739   9.296  11.057   9.388 -0.2123  0.0395 -0.3098
92827W        W35740   5.406  14.656   6.405 -0.0292  0.1089 -0.1448
92828W        W35741  14.933  17.798   5.166  0.0256  0.0530  0.1518
92829W        W35742   9.845  16.963   2.645 -0.0059 -0.0324 -0.1654
92830W        W35743  17.438   7.388   9.181  0.1306 -0.1824  0.0730
92831W        W35744   3.449   4.464  13.485  0.0885 -0.2409 -0.0556
92832W        W35745   8.324  26.494   7.753 -0.1123  0.0990 -0.0052
92833W        W35746  11.572  25.492   1.561  0.1796 -0.1087  0.0645
92834W        W35747  23.274  13.389   3.206  0.3792 -0.0839  0.1094
92835W        W35748  15.859  16.939   0.465 -0.0242  0.0060 -0.1345
92836W        W35749   7.129  20.931   6.657 -0.0911 -0.2749 -0.0227
92837W        W35750  16.798  16.235   5.404 -0.0994  0.0057  0.2186
92838W        W35751  16.470   5.093   2.362  0.0864  0.2425 -0.1736
92839W        W35752   9.001  12.173   7.241 -0.2563  0.1009 -0.3073
92840W        W35753   0.143  19.421   4.898 -0.1178  0.0692  0.0711
92841W        W35754   9.458  24.233   9.228 -0.0827  0.1269  0.2877
92842W        W35755  16.371  17.607   4.329 -0.2283  0.2666 -0.0733
92843W        W35756   3.681  31.101   1.031 -0.0400 -0.2582  0.2299
92844W        W35757   5.839  14.410   6.750  0.0264 -0.2014  0.0183
92845W        W35758   9.284  15.773  29.771 -0.3509  0.0698  0.0306
92846W        W35759   4.262  12.015   8.242  0.2569 -0.2901 -0.0323
92847W        W35760  15.152  12.393  20.867 -0.1541 -0.1138 -0.0467
92848W        W35761   9.852   2.794   5.488  0.2401 -0.2771 -0.0860
92849W        W35762  13.980  23.712   5.792  0.2231 -0.0391  0.0990
92850W        W35763  10.323  24.443  25.651 -0.0581 -0.1223  0.2559
92851W        W35764   8.076   4.614  11.987 -0.0546  0.0103  0.2451
92852W        W35765   6.879  14.194   8.825  0.0583 -0.2373  0.1934
92853W        W35766  10.312  10.061   4.234  0.0744 -0.2570 -0.2168
92854W        W35767   2.188  11.266   9.292  0.0765 -0.3412  0.0967
92855W        W35768  11.282   6.866   2.683 -0.1313  0.0617 -0.1131
92856W        W35769   1.843  21.159  10.113  0.2186 -0.1881  0.3029
92857W        W35770  11.870  25.538   8.902  0.3158 -0.0944  0.0436
92858W        W35771  20.329  23.599   6.790 -0.1711 -0.0198 -0.2276
92859W        W35772   8.992  12.205   1.852 -0.0074  0.0316 -0.3352
92860W        W35773  22.546  24.232   8.168  0.1987  0.0599  0.1174
92861W        W35774  14.893   9.514   4.361  0.0197  0.2564 -0.0159
92862W        W35775  14.686  14.243   0.934  0.0917 -0.0816  0.0219
92863W        W35776  17.483   7.227   8.047  0.2763  0.1204  0.0195
92864W        W35777   5.531  12.666   9.037  0.1812 -0.1525 -0.1792
92865W        W35778   5.020  14.795   4.611  0.1672 -0.4248 -0.0894
92866W        W35779  18.154  21.858   5.673  0.1268  0.3367 -0.0735
92867W        W35780   5.748  15.695   7.895  0.1763 -0.1514 -0.2463
92868W        W35781  14.644   4.815  10.810  0.2385 -0.1113  0.2594
92869W        W35782   4.827   8.300  11.417 -0.0436 -0.2933 -0.2047
92870W        W35783  13.351  15.455   5.585  0.0397 -0.1779 -0.3609
92871W        W35784  20.618  25.034   5.250  0.0580  0.0637 -0.1092
92872W        W35785  16.295  10.631   7.763 -0.0532  0.0939 -0.0027
92873W        W35786   8.830  22.025   9.558  0.1804 -0.0886  0.0823
92874W        W35787   9.607  21.324  28.255  0.2717 -0.2678 -0.2658
92875W        W35788  17.250  15.915  28.795 -0.1180 -0.0672  0.1506
92876W        W35789   8.411  15.625   5.187 -0.0659  0.2706 -0.0610
92877W        W35790  18.534  21.618  28.221 -0.1184  0.2751  0.1278
92878W        W35791  13.469  25.317   4.165  0.1458 -0.1540  0.1593
92879W        W35792  11.211  16.615   5.543 -0.2734  0.1022 -0.2605
92880W        W35793  22.126  21.604   2.034 -0.1964 -0.1584  0.1450
92881W        W35794  17.731  20.950  29.254 -0.3509 -0.0498 -0.2371
92882W        W35795  12.653  11.291   4.826  0.0974 -0.2300  0.0394
92883W        W35796   9.909   7.882  26.863 -0.0160  0.2007  0.4048
92884W        W35797  23.022  27.871   4.364 -0.2797  0.0388  0.1040
92885W        W35798   6.631  13.369  17.587 -0.2431 -0.0137  0.2411
92886W        W35799   7.355  13.675   3.466 -0.2051  0.2703 -0.0819
92887W        W35800  16.115  16.454   7.207  0.0307  0.0849 -0.1588
92888W        W35801  12.161  10.927  29.211  0.0416  0.0380 -0.0610
92889W        W35802  10.295  18.028   3.615  0.0209 -0.0532 -0.2954
92890W        W35803  10.488  12.434   5.849  0.0091  0.1059  0.0840
92891W        W35804   8.138  32.528   2.781 -0.1158  0.2664  0.1822
92892W        W35805   1.428  16.030   7.247 -0.1200  0.1590 -0.2985
92893W        W35806  22.689  24.282  27.870  0.3738 -0.0493 -0.0461
92894W        W35807  17.116  25.129   2.981 -0.1261  0.5453 -0.0739
92895W        W35808  34.387   3.237  25.068  0.1045 -0.1796  0.1752
92896W        W35809  12.272   0.566  11.897  0.0078  0.0020  0.0500
92897W        W35810  11.911  32.259   3.243  0.1463 -0.1007 -0.2327
92898W        W35811  12.131  14.327   5.890  0.0648  0.3824 -0.0080
92899W        W35812   7.037  14.317  15.942  0.2101  0.4115  0.0091
92900W        W35813  13.613  15.137   3.095  0.4081  0.2132  0.0320
92901W        W35814  13.896  24.287  25.916  0.0406 -0.0736  0.0724
92902W        W35815   8.320  27.597   4.135 -0.0770  0.1749 -0.1417
92903W        W35816   1.849  32.332  28.493  0.1169  0.5064  0.1769
92904W        W35817   5.358  20.583   2.352 -0.0788  0.2028 -0.0176
92905W        W35818  14.277  17.922  15.657 -0.0364 -0.0689  0.1400
92906W        W35819  21.658  15.383   5.515  0.1026 -0.2823  0.0911
92907W        W35820   9.996   1.358   1.406 -0.2723  0.2255  0.2707
92908W        W35821  22.231  20.465   4.016 -0.1557 -0.1925 -0.2130
92909W        W35822  14.456  26.189  29.529 -0.0127 -0.0721 -0.0245
92910W        W35823  16.696  16.301  27.426  0.1106  0.0189  0.2774
92911W        W35824  13.244  28.941   5.392 -0.0388  0.0185 -0.1235
92912W        W35825  18.190  14.129  29.093 -0.1212 -0.4298  0.1048
92913W        W35826  13.512  14.216  24.137  0.0186 -0.4059 -0.1087
92914W        W35827  21.114  15.670   5.776 -0.1000  0.0112  0.2599
92915W        W35828  14.936  12.599   1.716 -0.0118 -0.1285  0.0208
92916W        W35829  10.449  17.164   9.454 -0.2762  0.0500  0.0398
92917W        W35830   8.375  18.806   9.719  0.1211  0.0755 -0.0554
92918W        W35831  18.987  15.855  21.571  0.0759 -0.0653 -0.0954
92919W        W35832  18.551   0.933   3.886 -0.1900 -0.1179 -0.1323
92920W        W35833   6.155  23.679  29.256  0.1137 -0.1152 -0.1504
92921W        W35834  17.212   8.271   7.859  0.0646 -0.0906 -0.2094
92922W        W35835   1.624   8.292  28.005 -0.1023 -0.0798 -0.1690
92923W        W35836  12.332   7.754  22.281  0.1189  0.0304  0.0630
92924W        W35837  12.570  20.468   0.230  0.0254  0.2287  0.4000
92925W        W35838  15.874  23.075  22.898 -0.1003 -0.1408 -0.1575
92926W        W35839  22.829  22.744   2.807 -0.2764  0.1042 -0.1930
92927W        W35840   9.261  12.538  29.016 -0.2288 -0.2834 -0.1503
92928W        W35841  19.480  20.888   8.343 -0.0475  0.0952  0.2727
92929W        W35842  14.637  23.234   6.518 -0.1510 -0.0872 -0.2813
92930W        W35843  16.964  23.622   6.871  0.2214 -0.0828  0.0781
92931W        W35844   5.193  15.342   3.914 -0.0360 -0.0282  0.1619
92932W        W35845   9.983  31.266  26.685  0.1885  0.2462  0.0896
92933W        W35846   9.730  19.841   6.688 -0.0854 -0.0245 -0.1729
92934W        W35847  15.522  32.701   9.710 -0.0935 -0.0633 -0.2704
92935W        W35848   7.834  13.441  29.386  0.0825  0.2688  0.0694
92936W        W35849  14.235   2.229  27.681  0.1003 -0.0994  0.0048
92937W        W35850  10.510  14.531   0.988 -0.2644 -0.1252  0.0013
92938W        W35851  21.983  24.710   5.346 -0.4053 -0.1819  0.0518
92939W        W35852  19.514  23.511   7.759 -0.2564 -0.0349  0.0775
92940W        W35853   9.648  30.407   5.688 -0.1350  0.0683 -0.0121
92941W        W35854  25.576  24.155   4.821  0.2368 -0.0367  0.3652
92942W        W35855   0.718  32.148   5.580 -0.0616 -0.0502 -0.1374
92943W        W35856  13.072  19.946   1.437  0.1848  0.1360 -0.1350
92944W        W35857  18.799  18.407   6.758 -0.1517  0.2012  0.1236
92945W        W35858  18.625  18.968  24.780 -0.0419  0.2118  0.0331
92946W        W35859   7.365  27.157  25.254 -0.1127 -0.2879 -0.0592
92947W        W35860  24.714   9.346   0.089 -0.1433  0.3124  0.0068
92948W        W35861   6.531  15.903   2.885  0.1355  0.3346  0.1502
92949W        W35862  22.570  15.278  23.562  0.2620  0.0607 -0.0608
92950W        W35863  18.341  23.688   1.034 -0.0762  0.1149 -0.0901
92951W        W35864   6.486  31.773   3.470 -0.3695 -0.0024 -0.1482
92952W        W35865  13.768  22.668   7.988  0.2403  0.0085 -0.0190
92953W        W35866  14.711  18.114  25.207  0.1787 -0.3078  0.3010
92954W        W35867  14.320  18.040  28.029  0.3999  0.0152  0.1598
92955W        W35868  10.012  16.091  18.765  0.1053  0.3566  0.1106
92956W        W35869  12.836  24.629   6.776 -0.3273 -0.1020 -0.2345
92957W        W35870  19.651  15.960   4.198  0.0717  0.1214 -0.1895
92958W        W35871  13.466  13.555   9.197  0.2606 -0.0351  0.2184
92959W        W35872  11.750   4.334  26.239 -0.0549  0.1891 -0.0040
92960W        W35873  19.809  26.027   2.965  0.0600 -0.3485  0.3924
92961W        W35874  18.039  20.564  29.264  0.1842 -0.0693 -0.1895
92962W        W35875  12.677  14.870  16.606 -0.0841  0.1140  0.3992
92963W        W35876   8.605  28.755  27.796  0.0148 -0.0391 -0.0204
92964W        W35877  14.052   6.913   4.631  0.1538 -0.0787 -0.0162
92965W        W35878  10.874  12.011   8.408 -0.0903 -0.1398 -0.2497
92966W        W35879  16.709  16.872   5.182 -0.2074 -0.2326  0.1979
92967W        W35880   5.940   1.286   5.816 -0.2830  0.0763  0.1884
92968W        W35881   4.777  11.280   3.860 -0.2050 -0.0437  0.2919
92969W        W35882  16.691  11.240   3.410 -0.0827  0.0606  0.3137
92970W        W35883   8.302  20.822   7.340 -0.0920 -0.0940  0.2397
92971W        W35884  14.602   6.917   5.587 -0.1540 -0.2023  0.2141
92972W        W35885   3.886  18.064   2.827  0.0514  0.0726  0.0016
92973W        W35886  14.214  28.459   3.910 -0.2728 -0.0119  0.0183
92974W        W35887  14.193  10.011   2.096  0.0168 -0.0729 -0.0470
92975W        W35888   8.363  15.620  23.823  0.0706  0.0623  0.1316
92976W        W35889  21.105  21.470   3.771 -0.3127  0.0537 -0.1248
92977W        W35890   8.090  25.861  24.995  0.2877  0.1544  0.0396
92978W        W35891  12.366  18.728   7.200  0.2019 -0.1841  0.1903
92979W        W35892  14.669  27.588   6.491 -0.0269  0.0286 -0.0847
92980W        W35893  11.973  14.102   3.394 -0.0246 -0.2484 -0.1037
92981W        W35894  34.105  24.703   6.201  0.1971  0.1340  0.1502
92982W        W35895  13.258  11.660   0.170 -0.0458 -0.1728 -0.2007
92983W        W35896   2.986  17.035   7.597 -0.1921  0.1235  0.1176
92984W        W35897  34.321  18.574  27.581  0.1282 -0.1657  0.1597
92985W        W35898   9.954  27.641   0.189  0.2985 -0.3184 -0.1214
92986W        W35899  13.801  27.874  26.014  0.0832  0.0342 -0.0702
92987W        W35900   8.321  22.557  28.934  0.2469 -0.1855  0.2631
92988W        W35901   9.019  14.071   4.330 -0.2578 -0.2098 -0.0182
92989W        W35902  14.006  16.221   5.031 -0.3518 -0.2081  0.0595
92990W        W35903  12.537  19.465   5.623 -0.1885 -0.2803 -0.0865
92991W        W35904  13.277  20.596  26.291 -0.2194 -0.5286 -0.0897
92992W        W35905   4.105  25.971  24.127 -0.3485  0.0577  0.2986
92993W        W35906  17.673  27.574   7.018  0.0927  0.1258  0.0554
92994W        W35907  17.906  19.876   1.299 -0.0807 -0.0894  0.1462
92995W        W35908  16.163  25.667   3.449 -0.0216 -0.1776  0.0663
92996W        W35909  19.766  15.913  25.141 -0.0788 -0.1474  0.0782
92997W        W35910   9.569  25.327   0.135  0.0321 -0.0367  0.2184
92998W        W35911   9.832  30.684   6.988  0.2247 -0.2397  0.3168
92999W        W35912  16.012  10.845   8.133  0.0353  0.3107 -0.2172
93000W        W35913  23.292  11.128   3.456 -0.1694 -0.1965  0.0278
93001W        W35914  20.037  23.351   3.648  0.0144 -0.2899  0.2211
93002W        W35915  23.861  14.373  29.464  0.2293 -0.2117 -0.2658
93003W        W35916  14.269  25.360  23.541  0.0466 -0.0423 -0.3991
93004W        W35917  15.484  12.129   2.251  0.3091  0.1028  0.0575
93005W        W35918  18.821  23.513   5.215 -0.1404  0.2649 -0.0839
93006W        W35919   5.858  30.708   4.088 -0.2303 -0.0331 -0.0566
93007W        W35920  11.845  20.980  28.360 -0.1252 -0.1084  0.0705
93008W        W35921  12.435  17.760   4.230 -0.0415 -0.0330 -0.1027
93009W        W35922  20.263  27.814   5.199  0.3568 -0.0203  0.0064
93010W        W35923  12.161  17.047   8.361 -0.3470  0.2899  0.0422
93011W        W35924  14.850  23.305   5.309  0.0722 -0.0352  0.0983
93012W        W35925  18.846  21.587   1.761 -0.0172 -0.0637 -0.1787
93013W        W35926   7.077  27.667   3.593  0.3109  0.2243 -0.1966
93014W        W35927  10.017  19.006   3.465 -0.0633  0.4041  0.0539
93015W        W35928   9.786  11.613   0.183 -0.1210 -0.0385  0.0034
93016W        W35929   4.280  16.942  25.546  0.0534  0.0826  0.2704
93017W        W35930  14.019  20.881   7.110 -0.0381  0.1595  0.0073
93018W        W35931  15.817  14.988   7.196 -0.0914 -0.1783  0.0958
93019W        W35932  21.943  25.792   4.251 -0.2204  0.1987 -0.4123
93020W        W35933  16.039  16.689   2.768 -0.1573  0.1884  0.3592
93021W        W35934  14.826  21.938   8.863 -0.1418  0.0667  0.1505
93022W        W35935   7.486  11.552  27.234  0.0879  0.2684 -0.2123
93023W        W35936  11.275  20.312   1.573  0.0141 -0.0272 -0.2420
93024W        W35937   8.845  21.512  29.361 -0.4427 -0.2154  0.2481
93025W        W35938  14.181  24.155   3.499  0.2872 -0.1266 -0.0573
93026W        W35939   9.501  26.842  11.039 -0.0427 -0.7033 -0.0709
93027W        W35940   8.955  18.383   2.757 -0.0748 -0.0407 -0.0236
93028W        W35941   3.320  15.225   1.337  0.0188  0.1991 -0.3599
93029W        W35942  14.411  17.412   7.839  0.0077  0.0095  0.1478
93030W        W35943   1.630  23.645  23.862 -0.0683  0.2581  0.1162
93031W        W35944   9.630  17.370   2.363 -0.2297 -0.3390  0.0420
93032W        W35945  18.039  17.067   4.079 -0.0725  0.1864  0.3409
93033W        W35946  10.450  12.081   0.042 -0.1945  0.0682 -0.0251
93034W        W35947  10.571  31.214   1.757  0.3005 -0.3864  0.0685
93035W        W35948  17.865  18.671   0.394  0.1341 -0.0536 -0.0880
93036W        W35949  10.509  25.833  27.511 -0.0108  0.0735  0.1615
93037W        W35950  24.716  17.577  28.461  0.0853 -0.0152  0.1369
93038W        W35951  17.503  18.337   4.769 -0.2287  0.3454  0.0184
93039W        W35952   5.078  24.608   0.187  0.0848  0.0241 -0.0670
93040W        W35953  20.169  20.574  24.404 -0.5565  0.2308  0.0490
93041W        W35954   8.390  29.075   4.859 -0.1944  0.3841 -0.0541
93042W        W35955  19.558   8.634   4.019 -0.1895 -0.1237  0.2293
93043W        W35956   0.835  25.409   2.614  0.1032 -0.4750  0.3142
93044W        W35957  13.730  30.134  10.223 -0.2762 -0.0949 -0.2281
93045W        W35958  16.295  13.669   5.972  0.0306 -0.2229 -0.1321
93046W        W35959   9.410  19.188  24.395 -0.3605  0.0538 -0.0776
93047W        W35960   4.429  20.177  22.766 -0.0344  0.0128  0.0645
93048W        W35961  13.300  10.467  27.692 -0.1932 -0.1811  0.2648
93049W        W35962   1.599  16.690   4.566 -0.0483 -0.1080  0.2041
93050W        W35963   4.926  29.180   6.358  0.0791 -0.0128 -0.0875
93051W        W35964  15.969  27.141   2.675 -0.1789 -0.1185  0.0662
93052W        W35965  15.126  24.419  24.804 -0.1526 -0.1599 -0.2385
93053W        W35966  18.703  13.503  23.375 -0.1300 -0.0633  0.1238
93054W        W35967   2.309  13.503  24.741 -0.5440  0.1126  0.2249
93055W        W35968  18.689  22.957   3.862  0.0962 -0.0303 -0.2100
93056W        W35969   2.793   8.171   7.562 -0.1874  0.2798 -0.2622
93057W        W35970  25.103  31.026   4.960 -0.1220 -0.0727  0.3140
93058W        W35971   7.736  12.602   4.745 -0.0445  0.2397  0.1473
93059W        W35972   7.775  14.848  29.381  0.1739  0.0942  0.0538
93060W        W35973   5.030  22.507   1.671 -0.2320 -0.4238 -0.3741
93061W        W35974   9.271  16.014  20.606  0.2338  0.0495 -0.1123
93062W        W35975  13.220  30.947   6.113  0.2756 -0.3198  0.0324
93063W        W35976   6.516  23.443   4.268  0.1422 -0.0817  0.0741
93064W        W35977  15.662  19.702   8.323  0.0813  0.2386 -0.0926
93065W        W35978   4.740  26.897   6.270 -0.0975 -0.1753 -0.3394
93066W        W35979  13.799   7.272  26.676 -0.0830 -0.2881  0.0243
93067W        W35980   8.500  23.592  23.969  0.0320  0.0499 -0.2413
93068W        W35981   5.825  11.945   1.123 -0.1391 -0.0720 -0.2001
93069W        W35982  13.953  19.659   0.662  0.3781 -0.0704 -0.0345
93070W        W35983   4.405  16.906  26.704 -0.0762  0.0527  0.0929
93071W        W35984   8.947  20.297   4.810 -0.1620 -0.2889  0.2667
93072W        W35985  14.434  13.245   1.375 -0.1299 -0.1464  0.1294
93073W        W35986  26.431  26.124   4.872 -0.2098 -0.0896 -0.0758
93074W        W35987  12.896  25.583  22.197 -0.0579 -0.0908  0.0314
93075W        W35988   9.572  18.094   8.834 -0.0981  0.1895  0.1489
93076W        W35989  13.990   1.238   7.576 -0.1092 -0.1523  0.1026
93077W        W35990  23.505  16.766   1.781 -0.0199  0.2673  0.2725
93078W        W35991   9.333  18.472   8.362 -0.2742 -0.1142  0.3539
93079W        W35992   9.847  16.859   1.230 -0.1341  0.0982  0.0467
93080W        W35993  31.945  29.009  28.899 -0.2785 -0.0375 -0.0513
93081W        W35994   3.531  21.059   7.091  0.3228  0.0221  0.2399
93082W        W35995  19.472  14.085  28.088 -0.3078 -0.0004 -0.1260
93083W        W35996   6.393  18.445   7.767  0.0766  0.0812 -0.0377
93084W        W35997   9.995  12.925  28.369 -0.0064 -0.0521 -0.2228
93085W        W35998  17.354  23.467  25.629  0.3404  0.2282 -0.1581
93086W        W35999  13.294  19.194  28.551 -0.0781 -0.4506 -0.1392
93087W        W36000  18.371   8.541  27.740  0.1069  0.1141  0.4281
93088W        W36001  13.653  26.037  24.569  0.2243 -0.0869 -0.2612
93089W        W36002  12.858  11.273  29.776  0.2734 -0.3135 -0.1221
93090W        W36003  16.777  25.922  10.140  0.0923  0.1092  0.2543
93091W        W36004  15.005   9.518  20.963 -0.2595 -0.0223 -0.0365
93092W        W36005  19.771  18.692  24.084 -0.1235 -0.0862  0.0224
93093W        W36006  14.534  23.583   3.919  0.0618 -0.1168 -0.0981
93094W        W36007  13.576  23.629   3.703 -0.0266  0.1422  0.2651
93095W        W36008   2.812  18.384  28.028  0.0950  0.0324  0.1530
93096W        W36009  12.018  28.681  10.081  0.2619 -0.2027  0.3888
93097W        W36010   5.660  11.319  11.260  0.1402  0.0700 -0.0493
93098W        W36011  17.549  16.929  25.542 -0.0850 -0.3492  0.1653
93099W        W36012   9.878  32.871  29.564 -0.3000  0.0458 -0.1868
93100W        W36013  15.973  23.082  16.149 -0.0423  0.2833 -0.0301
93101W        W36014  12.809  14.251   1.855  0.0814  0.1667  0.0020
93102W        W36015  12.346  24.609   0.148  0.2551  0.1338  0.3274
93103W        W36016  10.562  19.351   0.209 -0.2168  0.1814 -0.1469
93104W        W36017  10.588  18.845   4.822  0.2668  0.2913  0.1034
93105W        W36018  14.355  28.277   3.000  0.1890 -0.0395 -0.0428
93106W        W36019   9.962  30.142  11.356 -0.0533 -0.1887  0.1907
93107W        W36020   9.214  10.018  26.070 -0.2317  0.0765 -0.0274
93108W        W36021  13.692  22.941  24.744  0.3037  0.0388 -0.1723
93109W        W36022  12.111   2.884  28.639  0.1062  0.0223 -0.0986
93110W        W36023  11.326  18.516  22.099 -0.1308 -0.0898 -0.1000
93111W        W36024   5.014  15.015  20.972  0.0904 -0.0514  0.0208
93112W        W36025  17.414  28.617   9.888  0.1645  0.0710 -0.0449
93113W        W36026   5.458  16.832  23.483 -0.0103  0.4355  0.3741
93114W        W36027  11.647  12.917  27.314 -0.2698 -0.2128  0.1240
93115W        W36028   5.492  19.583  27.247  0.1228  0.2344  0.2531
93116W        W36029  11.338  14.325   0.615 -0.2343  0.0437  0.0396
93117W        W36030   7.316   0.345   2.859  0.1457  0.0428  0.0217
93118W        W36031   4.556  15.591   9.602  0.0652  0.0337  0.0312
93119W        W36032  16.928   8.629   6.513 -0.1132  0.3151  0.3817
93120W        W36033   6.624  12.049   0.301 -0.0988 -0.0430  0.0199
93121W        W36034   9.348  25.771   2.248 -0.0371  0.3585 -0.2038
93122W        W36035   6.698  15.309  28.575  0.0431  0.1354  0.1722
93123W        W36036  15.647  18.512  22.555  0.3418  0.1821  0.0604
93124W        W36037  12.597  21.740  26.317 -0.0993  0.3617 -0.2596
93125W        W36038  16.411  15.877  22.519 -0.0882 -0.2401  0.2427
93126W        W36039   9.060  17.396   5.688 -0.0281 -0.0537 -0.2452
93127W        W36040  13.848  28.004  10.623 -0.0593  0.1281  0.0495
93128W        W36041   8.402   5.697   0.974  0.3906 -0.2383 -0.0527
93129W        W36042  20.125  20.125  27.021  0.1561  0.0933  0.3090
93130W        W36043  11.737  24.956   8.328  0.3084 -0.0129  0.1425
93131W        W36044  24.086  17.621  23.472  0.2071  0.0881  0.1617
93132W        W36045  12.348  19.142   2.673 -0.0360 -0.0883  0.1589
93133W        W36046   9.625  25.875   4.961  0.1649 -0.2787 -0.0493
93134W        W36047   9.571  15.093   5.232 -0.1915 -0.0289 -0.2108
93135W        W36048  18.861  30.058   6.282  0.0198 -0.1525 -0.0899
93136W        W36049   7.050   0.085  28.764  0.0578 -0.0562 -0.0210
93137W        W36050   5.866  12.625  28.993 -0.2694 -0.0838 -0.2304
93138W        W36051  10.579   0.916   0.727  0.0166  0.1502 -0.3980
93139W        W36052  17.785  21.257   8.691  0.0325  0.0748  0.0777
93140W        W36053  18.774  18.855  25.733  0.4057 -0.1761 -0.0845
93141W        W36054   5.794  32.193   8.688  0.1490 -0.3847 -0.0709
93142W        W36055   0.746  14.532  26.841  0.1199 -0.1779  0.0492
93143W        W36056  14.876  22.038   2.469  0.0107 -0.2489  0.1382
93144W        W36057  31.415  10.775   5.316  0.0461  0.2646 -0.2390
93145W        W36058  12.226  23.304  28.487 -0.1769 -0.0781  0.1052
93146W        W36059  11.773  22.456  10.122 -0.0816  0.0481  0.1551
93147W        W36060  13.845  16.307   6.003  0.0515  0.2647  0.0215
93148W        W36061  14.480  18.644   2.616 -0.2001  0.1166  0.0775
93149W        W36062  15.683  16.121   2.853  0.2707  0.0193  0.1333
93150W        W36063   8.653  20.601  23.648  0.0294 -0.2565 -0.2673
93151W        W36064   5.839  30.630  19.579 -0.0715  0.0082 -0.0855
93152W        W36065   8.055  17.821  23.893  0.1143 -0.0491 -0.0202
93153W        W36066  23.674  21.108   2.315  0.0214 -0.2190 -0.0554
93154W        W36067  14.750  30.796   2.442  0.0446  0.1076 -0.0166
93155W        W36068  13.184  18.141  27.645 -0.0220  0.2274 -0.0733
93156W        W36069   9.003  24.862   1.338  0.0987  0.0887 -0.1042
93157W        W36070  14.886  13.668  24.687 -0.0835  0.0294 -0.1445
93158W        W36071  19.158  23.421  24.626  0.1606  0.3116  0.1099
93159W        W36072   8.284  11.645   1.948  0.0007 -0.1659 -0.3170
93160W        W36073  15.880  18.759  25.344  0.1443 -0.0661 -0.1913
93161W        W36074  16.236   8.608   0.662 -0.1504  0.2804 -0.2346
93162W        W36075   9.157  21.900   5.891 -0.2156  0.2606 -0.0867
93163W        W36076  17.488  15.876   0.750 -0.0770  0.1225  0.1257
93164W        W36077  13.922  21.689   5.202  0.0803 -0.2043 -0.3478
93165W        W36078  24.116  25.245   3.741  0.0023 -0.2791 -0.2140
93166W        W36079  10.796  22.056   6.222 -0.1226  0.2901  0.1166
93167W        W36080  16.940  10.439  21.245 -0.3114  0.0526  0.1126
93168W        W36081  17.674  26.235   8.546 -0.0952  0.1204 -0.0446
93169W        W36082   9.098   3.818  28.655 -0.2057 -0.1238 -0.4053
93170W        W36083  12.305  12.944   4.561  0.2582  0.0252 -0.0415
93171W        W36084  11.704  15.175  27.175 -0.0843  0.2243  0.2912
93172W        W36085  12.427  26.973   1.076  0.0140 -0.1975 -0.2428
93173W        W36086  13.996  20.434   7.379 -0.0352  0.0553 -0.3047
93174W        W36087  10.653   6.382   3.269 -0.3106  0.1122 -0.0759
93175W        W36088  11.015  26.301   4.270  0.0221  0.1333  0.1829
93176W        W36089   8.120  23.054  26.934  0.4476 -0.2301  0.0747
93177W        W36090  14.080  25.863  27.695  0.0773  0.0177  0.2302
93178W        W36091  13.328  20.817  28.008 -0.2545  0.1147 -0.1011
93179W        W36092  15.047  18.484   7.685 -0.2256  0.2269  0.0387
93180W        W36093  31.399  19.912  29.349  0.1828 -0.0232  0.0197
93181W        W36094  34.213  14.595   3.972  0.0676  0.3263  0.1956
93182W        W36095  24.062  10.032  29.351  0.0546  0.0266 -0.0208
93183W        W36096   7.197  28.411   1.872 -0.4171 -0.2566 -0.1896
93184W        W36097   2.996  11.300  27.627  0.2561 -0.3597  0.2231
93185W        W36098   7.686  13.598  24.091  0.2031 -0.0130 -0.0117
93186W        W36099   8.075  25.815  28.102 -0.0252 -0.1069 -0.1868
93187W        W36100  13.427  13.168  18.181  0.0978 -0.1188  0.1261
93188W        W36101  19.339  28.394   2.174  0.0015 -0.0472 -0.0907
93189W        W36102  13.518  18.664   3.564 -0.0861  0.1860  0.0435
93190W        W36103   4.802  10.884   6.374  0.0141 -0.0652  0.3457
93191W        W36104  19.056  28.164  28.309  0.0384 -0.0356  0.1317
93192W        W36105  19.925  25.092   6.202 -0.1296 -0.0947  0.0839
93193W        W36106  11.425  30.484   0.869 -0.0760  0.0500 -0.2544
93194W        W36107  11.700  25.927   2.286 -0.0872 -0.1467 -0.0367
93195W        W36108  12.226  22.404   1.652  0.2642  0.0324  0.1514
93196W        W36109  31.886  15.178   6.019  0.0677 -0.0770  0.0051
93197W        W36110   8.145  18.747  21.695 -0.1329  0.1121 -0.0639
93198W        W36111  12.671  34.172   3.227  0.0451  0.0110 -0.3927
93199W        W36112  14.746  22.820   0.008 -0.0747 -0.1095 -0.4443
93200W        W36113  14.496  23.474   8.171  0.0571 -0.2652  0.0147
93201W        W36114  15.578  23.988   5.766 -0.1245  0.1350  0.0334
93202W        W36115  21.723  20.914   7.260  0.0982  0.0088  0.1404
93203W        W36116  12.039  18.126   6.793 -0.0684  0.1796 -0.2552
93204W        W36117  19.621  22.044   7.282 -0.4095 -0.0430 -0.0947
93205W        W36118   9.258  14.455   4.541 -0.0109  0.0390 -0.0650
93206W        W36119   6.804  22.784   6.505  0.1377  0.1131  0.1204
93207W        W36120  12.995  22.117  29.506  0.2167 -0.2197  0.1637
93208W        W36121   7.864  18.862   4.239 -0.2830 -0.3227 -0.1566
93209W        W36122   3.715  18.107  29.686  0.1902  0.0414  0.0083
93210W        W36123  14.189  18.616  23.973 -0.1220  0.0189 -0.0389
93211W        W36124   5.126  29.658   4.824  0.2118  0.1249  0.2438
93212W        W36125  12.416  22.436  26.846  0.1247  0.0796  0.4149
93213W        W36126  21.620  23.590   7.353 -0.0145  0.2959  0.1393
93214W        W36127  16.553  20.033  25.142  0.0688  0.0164  0.1922
93215W        W36128   8.066  17.000  26.469  0.0001 -0.2431  0.1116
93216W        W36129  10.403  26.946  21.090 -0.3154  0.0093 -0.1633
93217W        W36130  11.082  18.701  29.655 -0.4256  0.0302 -0.1422
93218W        W36131  12.728  26.191   8.655  0.1024 -0.2646 -0.2143
93219W        W36132   4.477  19.045  29.496  0.3695  0.2756 -0.2912
93220W        W36133  18.843  17.477  26.300 -0.1074 -0.4438 -0.2295
93221W        W36134   9.574  28.005   1.111 -0.1259 -0.0412 -0.1902
93222W        W36135  14.131  14.811  21.121  0.1299  0.1773  0.1501
93223W        W36136  23.361  25.956   1.442 -0.0667  0.0758  0.1773
93224W        W36137   6.665  33.371   6.456 -0.0624  0.2028  0.2855
93225W        W36138   1.059  19.362   6.889  0.1564 -0.0267  0.0336
93226W        W36139   8.455  20.178   9.321 -0.1841 -0.1381  0.1310
93227W        W36140   8.133  21.922   3.502 -0.3028 -0.0684 -0.2712
93228W        W36141   6.650  16.047   1.951  0.1314 -0.0017 -0.1199
93229W        W36142   9.410  23.533  22.272  0.0028 -0.1588  0.1530
93230W        W36143  17.287  19.970  26.508 -0.3949  0.3050 -0.3886
93231W        W36144  12.201  17.012  19.854 -0.0012 -0.0462  0.2463
93232W        W36145  26.058  28.798   4.897  0.2005  0.0609  0.2543
93233W        W36146   6.917  16.387   2.167  0.1493 -0.0785 -0.0031
93234W        W36147  12.863  16.435   0.245  0.1079  0.1694 -0.1509
93235W        W36148  16.458  18.955   6.699 -0.1370 -0.0460  0.2481
93236W        W36149  19.099   6.606  15.674 -0.0490 -0.0499  0.0807
93237W        W36150  11.324   7.859  25.884 -0.1877 -0.3085 -0.0068
93238W        W36151  10.724  25.290  22.647  0.3620  0.3450 -0.1396
93239W        W36152   6.202  19.440   3.923 -0.1508  0.0280  0.1667
93240W        W36153  13.967  17.288  29.763 -0.1453 -0.1249  0.1270
93241W        W36154   7.493  16.278   3.812 -0.3930 -0.0178  0.0457
93242W        W36155   5.898   7.350   0.532 -0.1307  0.4426  0.1773
93243W        W36156   9.491  13.236  24.079  0.0063  0.1468 -0.0147
93244W        W36157  13.427  21.562   8.936  0.0226  0.1354 -0.1086
93245W        W36158  19.887  23.609   1.520 -0.0264  0.0582 -0.1721
93246W        W36159  13.302   7.229   9.088  0.1707  0.3720  0.1832
93247W        W36160  24.045  24.059  28.917  0.0645  0.2166  0.2268
93248W        W36161  12.404  21.580   0.447  0.0834  0.2393  0.0951
93249W        W36162  16.674  13.032  29.026  0.2186  0.0710  0.0032
93250W        W36163   9.148  27.660  10.418 -0.0263  0.0930  0.0939
93251W        W36164   0.163  12.905  28.041  0.2392  0.2305  0.1578
93252W        W36165  25.485  17.380   3.260 -0.0994  0.0568  0.2372
93253W        W36166   6.347  21.020   4.241 -0.0674 -0.1144 -0.1799
93254W        W36167  19.819  12.816   2.866  0.1177  0.0079  0.0249
93255W        W36168  18.002  17.297  29.158  0.2228 -0.0651 -0.1292
93256W        W36169   8.264  20.133  29.377  0.0298  0.0672  0.2448
93257W        W36170  11.027  17.253   8.644 -0.0304  0.1354 -0.0173
93258W        W36171  18.130  23.370   4.689 -0.1607 -0.0950  0.0519
93259W        W36172  15.745  21.754   3.187  0.5943  0.2623  0.0836
93260W        W36173  14.782  22.688  20.151 -0.0739  0.3030 -0.0570
93261W        W36174  15.279  24.461   1.580 -0.0175 -0.2350 -0.1248
93262W        W36175  11.593   5.068   7.538  0.1207  0.4871 -0.1573
93263W        W36176  18.709  19.754  29.543  0.0921 -0.2228  0.3084
93264W        W36177  15.459  20.576   3.819 -0.2224 -0.0034  0.0351
93265W        W36178  11.230  21.836   8.441  0.0882  0.0841 -0.0608
93266W        W36179  10.182  22.301   9.136  0.2077 -0.0833 -0.0283
93267W        W36180  11.757  30.286  26.806  0.2776  0.1296  0.2475
93268W        W36181  12.124  12.683  24.796  0.1524 -0.1141 -0.0330
93269W        W36182   7.359  15.109   1.026  0.0513  0.1512  0.0411
93270W        W36183  19.128  13.079   8.348  0.0761  0.0039  0.1550
93271W        W36184   7.789  11.358   2.175 -0.1137 -0.1250  0.1388
93272W        W36185  26.612  25.664   0.076 -0.1477  0.3025  0.0784
93273W        W36186  22.360  25.318   7.230 -0.1396 -0.0689  0.0130
93274W        W36187   9.879  21.465  14.010  0.0082  0.0311 -0.1043
93275W        W36188  16.908  19.285   2.225  0.1751  0.1111 -0.0727
93276W        W36189  13.334  16.160  25.879  0.0577 -0.0223  0.3205
93277W        W36190  16.145  17.103  23.292  0.0402  0.1254  0.3016
93278W        W36191  13.374  18.817   4.422 -0.0668 -0.0115 -0.4997
93279W        W36192  12.748  26.526   8.280  0.0762  0.1801 -0.0874
93280W        W36193  15.418  18.034  27.144 -0.0181  0.1421  0.4563
93281W        W36194  12.699  28.041  10.515 -0.0222  0.2881  0.1257
93282W        W36195  27.623  26.635   4.988 -0.0041  0.2397 -0.0270
93283W        W36196  15.236  21.537   6.534  0.0009  0.2432  0.1942
93284W        W36197  16.627  26.936   8.722 -0.0318 -0.1032  0.3550
93285W        W36198  26.608  27.191   8.043  0.0025 -0.1215  0.1368
93286W        W36199  13.014  20.416  27.345  0.1823  0.0160 -0.1564
93287W        W36200   8.168  25.231   8.735  0.0338  0.1312 -0.3122
93288W        W36201   3.993  30.907   8.349 -0.3360  0.0828 -0.1652
93289W        W36202  17.786  24.146   9.245  0.0984  0.0751 -0.1124
93290W        W36203   8.432  16.671   8.064 -0.0468 -0.0620  0.1170
93291W        W36204  15.543  28.037   8.308  0.1771 -0.0443  0.3404
93292W        W36205  19.412  13.668   4.906  0.0459  0.0455 -0.1181
93293W        W36206  34.077  12.267   2.989 -0.2470  0.4661  0.0617
93294W        W36207  10.898  18.767   3.355  0.1708 -0.1089  0.0425
93295W        W36208  32.560  11.600   0.240 -0.0732  0.3541  0.0119
93296W        W36209   4.146  17.010   2.342  0.1150  0.0102 -0.2278
93297W        W36210  12.795  15.157   3.423  0.1116  0.0004 -0.1059
93298W        W36211  16.283  19.794   8.129 -0.2848 -0.1071 -0.0129
93299W        W36212  12.968  21.107   4.405  0.1892  0.0558  0.2127
93300W        W36213  19.031  14.903   3.574  0.4239 -0.1874 -0.2375
93301W        W36214  11.665  28.091   8.549 -0.0180  0.0962 -0.1259
93302W        W36215  20.741  15.349   4.911 -0.1170  0.0552  0.3939
93303W        W36216  11.235  23.688   3.680  0.0041 -0.3044 -0.0279
93304W        W36217   8.064  22.741   5.882 -0.1365 -0.4514 -0.1248
93305W        W36218   9.618  28.224   3.947 -0.0425  0.0835  0.0339
93306W        W36219  18.143  13.659   6.544  0.0816 -0.0368  0.0824
93307W        W36220  13.954  28.168   9.531  0.0928 -0.3238  0.0882
93308W        W36221  14.483  12.378   7.528 -0.0522  0.1604 -0.0987
93309W        W36222   2.373  15.018   4.029 -0.0790  0.0645 -0.2306
93310W        W36223  14.503  14.727  24.505 -0.3026 -0.0984  0.0914
93311W        W36224  16.767  12.832   4.536 -0.2200  0.0335  0.0243
93312W        W36225  16.726  18.527   7.481  0.1942  0.1733 -0.2677
93313W        W36226   2.919  33.003   5.381 -0.1262 -0.2154  0.2474
93314W        W36227  20.179  11.776   5.750  0.0038  0.1250 -0.1026
93315W        W36228  15.306  13.086   4.122 -0.1316 -0.0344  0.1234
93316W        W36229   7.857  21.694   1.440 -0.0537 -0.0367 -0.1661
93317W        W36230  19.919  21.582  23.673  0.1101  0.3008 -0.3605
93318W        W36231  11.924  17.190   1.610  0.0671  0.0238  0.0062
93319W        W36232  10.302  17.178   8.088 -0.1554  0.1531 -0.0112
93320W        W36233  13.313  22.496   3.410 -0.1428 -0.1317 -0.0431
93321W        W36234  13.561  25.981   9.558  0.0847  0.0498  0.1312
93322W        W36235  21.650  20.894  20.107  0.0357  0.3526 -0.1600
93323W        W36236   8.847   2.862  11.737  0.2324  0.0443  0.1406
93324W        W36237  17.114  15.729   4.280  0.2164  0.1721  0.1535
93325W        W36238  11.876  19.180   5.267  0.1019  0.0471  0.1774
93326W        W36239  14.947  25.315   6.311 -0.0316 -0.0722 -0.5366
93327W        W36240   8.561  16.551   4.256  0.0467 -0.1396  0.1795
93328W        W36241  13.271  18.313  27.164 -0.2586  0.2104  0.3352
93329W        W36242  11.429  19.058   6.687 -0.2080 -0.1668  0.1677
93330W        W36243   8.428  25.036   5.656 -0.1465 -0.0767 -0.0777
93331W        W36244  10.779  20.814   4.335 -0.0068 -0.0307 -0.1102
93332W        W36245  23.437  26.621   7.302  0.0325  0.1654  0.1253
93333W        W36246  25.842  19.238   8.321 -0.3225 -0.1648 -0.0856
93334W        W36247  10.608  19.866   4.046 -0.1968  0.0049 -0.0801
93335W        W36248   8.889  24.809   5.577 -0.0150  0.0811  0.5218
93336W        W36249  13.178  25.725   4.710 -0.1259  0.0351  0.3197
93337W        W36250  19.152  32.410   9.231 -0.2089  0.0366  0.2685
93338W        W36251  20.715  19.025   4.786 -0.0512 -0.2915 -0.0265
93339W        W36252  12.435  25.918   5.348  0.0294  0.0876  0.0552
93340W        W36253  16.674  16.591   3.911  0.0295  0.4272  0.2561
93341W        W36254  20.949  17.231   7.208  0.0059 -0.0475 -0.4640
93342W        W36255  18.117  22.577   6.372 -0.2606 -0.2450  0.0635
93343W        W36256   5.536  20.900   9.882 -0.3034 -0.0446  0.0436
93344W        W36257  15.768  18.908   0.401  0.0955 -0.1106  0.1035
93345W        W36258  13.130  18.446   7.580 -0.0500  0.0723  0.1776
93346W        W36259  17.985  10.026  23.992 -0.2380  0.1168  0.1484
93347W        W36260  13.680  12.854   7.324  0.1004  0.2859  0.1034
93348W        W36261   7.785  15.199   8.255 -0.4394 -0.0905 -0.1152
93349W        W36262   4.199  21.813  25.107  0.1773 -0.0941 -0.3305
93350W        W36263  13.651  10.103   1.445  0.1856  0.0484 -0.0154
93351W        W36264  12.810   1.468  27.357  0.5657  0.1233  0.4036
93352W        W36265  10.443  31.680  11.373  0.3321  0.0115  0.1041
93353W        W36266   5.741  19.689   6.263 -0.0530 -0.1552 -0.0997
93354W        W36267   7.873  15.929  25.605  0.4193  0.0921  0.0761
93355W        W36268   8.758  17.740   9.347  0.0796 -0.1430  0.1773
93356W        W36269   8.135  28.967   8.772 -0.1792 -0.2254  0.2120
93357W        W36270  15.571  20.951   2.503 -0.0305  0.1360 -0.0195
93358W        W36271  22.797  17.993   1.779 -0.0851 -0.2069  0.0120
93359W        W36272  10.340  30.857   4.446  0.1006 -0.2959 -0.4263
93360W        W36273  11.675  19.560  29.246  0.1820  0.2497 -0.2939
93361W        W36274   9.991   0.384   8.627 -0.1575 -0.1335  0.2704
93362W        W36275   2.785  28.499   4.720 -0.1693  0.1866  0.4380
93363W        W36276   0.704  26.455  24.407 -0.0917  0.0810  0.0292
93364W        W36277   8.967  19.201   7.841 -0.1997 -0.1209  0.3978
93365W        W36278  15.731  17.840   4.059  0.1939 -0.3291 -0.1454
93366W        W36279  17.702   9.348   4.944 -0.0418 -0.2129  0.1041
93367W        W36280  17.332  22.739   8.303  0.2821  0.0866  0.2103
93368W        W36281   9.453  10.244   3.553  0.1682 -0.2191  0.0504
93369W        W36282   5.684  20.344   5.106  0.3362  0.1173 -0.2437
93370W        W36283  12.075  15.814   8.216  0.1857 -0.0237 -0.2863
93371W        W36284  13.766  13.679   4.706 -0.0790 -0.0231 -0.0546
93372W        W36285  15.527  16.601   5.327  0.1575 -0.1422  0.0009
93373W        W36286   9.389  28.610   3.234  0.0993 -0.2185  0.1460
93374W        W36287  18.712  20.152   6.079 -0.2851 -0.1388  0.2150
93375W        W36288  13.533  16.705  24.465  0.3921 -0.3284  0.2640
93376W        W36289   1.829  29.261   6.381 -0.1825 -0.2866  0.2358
93377W        W36290  15.990  21.380   7.065  0.0783  0.0112 -0.2605
93378W        W36291  18.848  22.549  21.162  0.0237  0.0893  0.1668
93379W        W36292  15.926  26.631   2.530 -0.0652  0.0565  0.0888
93380W        W36293  25.213  20.884   0.605 -0.1107  0.0083 -0.0180
93381W        W36294  15.531  22.945   7.758 -0.0901 -0.2630 -0.1364
93382W        W36295   4.887  25.455  27.161 -0.1650  0.1420  0.1118
93383W        W36296   6.326  26.490   9.553  0.0128  0.2668 -0.1376
93384W        W36297  11.498  25.405   2.051  0.1262  0.1822  0.2042
93385W        W36298  13.968   7.992   7.710  0.2766 -0.3056 -0.2201
93386W        W36299  14.156  15.780  24.360  0.3751  0.1068  0.0818
93387W        W36300  14.628  25.355  26.851 -0.2355  0.3722  0.0219
93388W        W36301  11.114  17.773   6.019 -0.3042 -0.1354  0.2623
93389W        W36302  28.084   6.868   1.569 -0.3893 -0.3383  0.1322
93390W        W36303  17.699  19.872   7.026 -0.2017 -0.0092 -0.1227
93391W        W36304  13.782  30.580   6.960  0.1034 -0.0505  0.0292
93392W        W36305  20.024  24.071   8.737 -0.0621 -0.0599 -0.1643
93393W        W36306   8.178  12.385   0.717  0.1141 -0.2110  0.0595
93394W        W36307   0.384  20.216   6.925 -0.2762  0.0153 -0.0820
93395W        W36308   6.054  18.542   7.018  0.2939  0.0027  0.3964
93396W        W36309   5.809  14.213   7.838 -0.1512 -0.5064 -0.0881
93397W        W36310   9.305  16.768   8.606 -0.0063  0.0724 -0.1145
93398W        W36311   3.002  14.201  29.434 -0.0512 -0.1481 -0.0559
93399W        W36312  11.925  17.789   3.633 -0.0628 -0.0447 -0.0914
93400W        W36313  11.361  18.848   9.169 -0.0719 -0.2634  0.0504
93401W        W36314   7.786  14.764   1.038 -0.1522  0.0162  0.2269
93402W        W36315  10.894  21.983   7.641  0.0215  0.0064 -0.1158
93403W        W36316  14.278  27.560   3.843  0.1161 -0.2011  0.0836
93404W        W36317  17.927  20.233   6.721 -0.0609 -0.0056  0.0766
93405W        W36318  12.882  25.021   6.255  0.0129  0.2058  0.1098
93406W        W36319  21.155  23.636   1.460  0.1750 -0.1125  0.0217
93407W        W36320  15.854  24.773   8.539 -0.3429  0.0241  0.0994
93408W        W36321  20.851  14.439  26.093 -0.2365  0.0122  0.1387
93409W        W36322  15.241  18.510  27.347 -0.1085  0.1336  0.1484
93410W        W36323  10.319   8.423  12.551 -0.3807  0.0097 -0.1892
93411W        W36324  18.951  13.262  23.037 -0.0046  0.1026  0.0789
93412W        W36325  21.651  21.973   1.006  0.1789 -0.1308  0.1038
93413W        W36326   6.696  18.883   3.378  0.0020 -0.0500 -0.1375
93414W        W36327  14.536  16.857   4.511 -0.0376 -0.1705  0.1042
93415W        W36328  20.976  15.592  24.326 -0.1484 -0.2302 -0.3158
93416W        W36329  12.316  22.779  28.313  0.1076 -0.1880 -0.1467
93417W        W36330  14.996  25.617   1.009 -0.1571 -0.3496  0.0161
93418W        W36331  12.077  23.275   4.402 -0.2060  0.3693 -0.1421
93419W        W36332   8.388  14.021   9.231  0.0009  0.0054 -0.1442
93420W        W36333   3.569  17.609   6.709 -0.0132 -0.0693 -0.2571
93421W        W36334   1.145  33.467   0.293 -0.0962  0.1555  0.0134
93422W        W36335  12.310  28.665   6.242 -0.0767 -0.0397 -0.0198
93423W        W36336   9.673  13.345  22.147 -0.0746 -0.0417 -0.5179
93424W        W36337   8.015  22.358   2.174  0.2535  0.0915 -0.0122
93425W        W36338  21.277  25.525   5.405 -0.0735  0.4061 -0.1123
93426W        W36339  18.077  17.311   4.624 -0.1796  0.0935 -0.2082
93427W        W36340  11.857  24.989  10.144  0.0295  0.1215 -0.3461
93428W        W36341  18.808  23.891   3.882 -0.1732  0.0007 -0.1994
93429W        W36342  15.172  16.892  25.336 -0.0490 -0.2731  0.0309
93430W        W36343  21.681  17.745   8.488  0.1250  0.2183  0.2084
93431W        W36344  20.594  22.860   1.824  0.0579 -0.1316 -0.0314
93432W        W36345  15.724  18.328   6.804 -0.2811 -0.3667  0.4421
93433W        W36346  14.304  27.780   9.397  0.0567 -0.0175  0.2474
93434W        W36347  13.475  19.202   4.130  0.1970  0.2605 -0.0841
93435W        W36348  11.667  16.537   3.952  0.0594  0.0233  0.1752
93436W        W36349  21.848  14.961   5.796  0.2637  0.1093 -0.3057
93437W        W36350  14.928  26.669   6.698 -0.0137  0.0566  0.0853
93438W        W36351  21.830  25.359   2.996 -0.2963  0.0404  0.1684
93439W        W36352   8.789  19.637   3.395  0.2380 -0.2119  0.0394
93440W        W36353  16.936  14.499   1.288  0.2810  0.1424 -0.0125
93441W        W36354   8.104  21.822   2.284 -0.1612 -0.1156  0.0218
93442W        W36355  10.199  17.435  27.030 -0.2503  0.0239  0.2308
93443W        W36356  24.580  24.198   3.623 -0.2162 -0.2490  0.0752
93444W        W36357   5.200  20.254   9.099  0.2245 -0.0997 -0.1419
93445W        W36358  26.494  27.524   8.597  0.2449 -0.0931 -0.0805
93446W        W36359  11.987  14.694   8.460 -0.3479  0.0913 -0.0284
93447W        W36360  13.406  26.111  10.047 -0.0094  0.2652  0.0853
93448W        W36361   2.328  22.927  23.492 -0.1410  0.0755 -0.1731
93449W        W36362  15.139  17.090   7.246  0.1435 -0.2358 -0.0856
93450W        W36363  17.944  26.798   6.530  0.0319 -0.1182 -0.0850
93451W        W36364   7.701  21.142   1.404  0.2419  0.1904  0.0034
93452W        W36365  14.467  15.866   7.351  0.2511  0.0736  0.1882
93453W        W36366  17.318  21.862   6.063 -0.1465 -0.0169  0.0677
93454W        W36367  12.407  17.104   5.415 -0.0364  0.0674  0.1309
93455W        W36368  20.254  21.758   4.364  0.0105 -0.2230 -0.0506
93456W        W36369  12.229  21.438  28.760  0.0165 -0.1518  0.0988
93457W        W36370  17.590  13.981  26.780 -0.0262 -0.1201 -0.3742
93458W        W36371  12.133   9.606   6.539  0.2066  0.0278 -0.0185
93459W        W36372  17.044  30.980   9.088 -0.3149 -0.0294  0.3798
93460W        W36373   9.267  19.071   9.563  0.4162  0.0058 -0.2406
93461W        W36374  10.870  22.553   6.255  0.0289 -0.2603 -0.1611
93462W        W36375   6.282  17.441  22.089 -0.0073 -0.1765  0.1814
93463W        W36376  12.201  21.270   9.193 -0.0550 -0.0567  0.1306
93464W        W36377  13.961  11.112   4.985 -0.3004  0.2072 -0.2791
93465W        W36378   9.394  12.281   0.942  0.0280 -0.2328 -0.0444
93466W        W36379  12.905  18.099   4.240  0.0108 -0.1515 -0.2705
93467W        W36380  26.598  18.790  29.260 -0.0743 -0.0985  0.2916
93468W        W36381  15.119  21.743   6.982  0.1712  0.2306  0.2529
93469W        W36382  13.928  25.006   1.426  0.2322 -0.2183  0.0611
93470W        W36383  15.290  17.420   4.334 -0.3239  0.2256  0.0237
93471W        W36384   3.368  25.617   4.866 -0.2694  0.2046  0.3318
93472W        W36385  23.193  13.264   0.000 -0.0794  0.0975  0.3082
93473W        W36386   8.502  22.585   3.616  0.0441  0.1871  0.0100
93474W        W36387  10.398  18.743   3.257 -0.3406  0.4781 -0.0118
93475W        W36388  12.434  19.438   3.461 -0.2124 -0.1814 -0.0159
93476W        W36389  19.542  16.606  26.016 -0.0317  0.4269 -0.1865
93477W        W36390  11.161   3.897   2.278  0.2406  0.1869  0.1433
93478W        W36391   4.757  26.614   5.603 -0.0220  0.1359  0.2576
93479W        W36392  13.301  21.525  27.397  0.0414 -0.0100  0.1610
93480W        W36393  17.943  21.536  29.677 -0.3555  0.2713  0.1946
93481W        W36394   8.391   0.230  12.305 -0.0677 -0.0910 -0.1658
93482W        W36395   6.625   4.420  11.354 -0.0048 -0.1228  0.1450
93483W        W36396  15.980  17.928   2.198 -0.3772  0.3688  0.0319
93484W        W36397  17.059  26.388   9.262  0.3112  0.1056  0.1207
93485W        W36398  24.291   2.070   8.755 -0.0358  0.3237  0.3482
93486W        W36399  16.229  17.277   1.541 -0.0584 -0.3962 -0.2539
93487W        W36400  10.020  18.275   0.906  0.1197  0.0849 -0.0584
93488W        W36401   7.705  28.996  12.026 -0.0076  0.2576  0.0229
93489W        W36402  18.124  20.395   7.242  0.1274 -0.2237 -0.2170
93490W        W36403  22.174  28.412   5.264  0.1339  0.0461  0.1048
93491W        W36404  12.643  28.023   4.719 -0.0520  0.1248 -0.0615
93492W        W36405  16.787  22.333  29.451 -0.1940 -0.2561 -0.4342
93493W        W36406   5.792  17.637   9.611 -0.1743  0.0945 -0.3505
93494W        W36407  10.490  22.599   8.882 -0.1575 -0.0385  0.1952
93495W        W36408  21.817  20.875   4.419 -0.0225  0.0186  0.1155
93496W        W36409  12.038  26.908   6.053  0.0522 -0.0247 -0.0374
93497W        W36410  10.334  19.454   7.268 -0.1254  0.1537  0.2367
93498W        W36411   2.892  20.358   9.652 -0.0055 -0.1312  0.0806
93499W        W36412   4.550  19.085   8.815  0.0006  0.0304  0.0869
93500W        W36413  15.004  32.510   5.575  0.1161  0.0533 -0.5085
93501W        W36414  10.046  20.944   4.290  0.0133  0.1168 -0.0023
93502W        W36415  18.049  21.439   6.219  0.5601 -0.1271 -0.0154
93503W        W36416  13.224  17.507   3.285 -0.0226 -0.1409  0.0157
93504W        W36417  15.797  23.841   2.822  0.0497  0.1359  0.0571
93505W        W36418   7.390  19.308   4.969 -0.0220 -0.1777  0.0047
93506W        W36419  17.099   6.270   2.561  0.3558  0.0600  0.0520
93507W        W36420   6.728  13.400  25.354  0.4319  0.4657  0.1202
93508W        W36421  16.127  19.215   4.300 -0.0858  0.2111 -0.2102
93509W        W36422   0.379  20.823   3.957  0.0339 -0.0492  0.1937
93510W        W36423  11.102  12.645  10.235  0.0678 -0.1036  0.0768
93511W        W36424   4.938  26.288   8.028 -0.0872 -0.0070  0.1307
93512W        W36425  32.861  27.470   4.455  0.0098 -0.2290 -0.0606
93513W        W36426  19.078  28.692   3.497  0.0786  0.1835  0.2386
93514W        W36427   4.663   1.441   5.077 -0.0818 -0.0354  0.0232
93515W        W36428  15.795  14.899   8.120 -0.1652  0.1888 -0.2802
93516W        W36429  14.431  26.031   8.621  0.1329 -0.2773  0.0864
93517W        W36430  14.712  15.780   1.371 -0.5382  0.1871  0.1241
93518W        W36431  13.154  26.013  10.997 -0.1603 -0.0603 -0.1354
93519W        W36432  14.806  10.972  26.681  0.2707 -0.0451  0.0649
93520W        W36433  16.230  17.272   5.555  0.1592  0.0822  0.1074
93521W        W36434  18.321  24.462   6.314 -0.1953  0.0794 -0.0655
93522W        W36435  21.009  10.485   5.491  0.1517 -0.1685 -0.2243
93523W        W36436  11.740  22.832   9.794  0.0950  0.0342 -0.0751
93524W        W36437  13.538  18.468   0.603 -0.0799 -0.1678  0.1629
93525W        W36438  14.304   9.180   2.576 -0.1910  0.1973 -0.1231
93526W        W36439  14.239  15.536   2.803  0.0078  0.2283  0.0214
93527W        W36440  13.521  16.330   2.990 -0.2215 -0.0707 -0.0217
93528W        W36441  13.516  28.456   0.314  0.3559 -0.2236  0.2147
93529W        W36442   4.533  28.171   5.763 -0.1024 -0.2263 -0.0683
93530W        W36443  24.441  19.003  27.333  0.1161 -0.0227  0.1904
93531W        W36444   9.697  26.714   7.551 -0.0943  0.1613 -0.1236
93532W        W36445  13.147  25.077   7.115 -0.0262 -0.1487  0.1717
93533W        W36446   8.536   5.393   1.973  0.1533  0.0825  0.1327
93534W        W36447  18.027  20.168   7.918 -0.2442 -0.0361 -0.2242
93535W        W36448  11.776  12.578  26.350  0.4892 -0.3111  0.3006
93536W        W36449  16.395  28.190   4.039  0.1098 -0.1479 -0.1460
93537W        W36450   6.280   9.421   7.474 -0.2443 -0.1734  0.1580
93538W        W36451  10.334  10.851   9.733  0.0116  0.0720  0.2190
93539W        W36452   5.366  34.055  27.807  0.1584  0.1809 -0.0519
93540W        W36453   4.854  18.493   5.056  0.2741 -0.2497  0.0052
93541W        W36454  20.029  25.398   8.272  0.2860  0.3597  0.2529
93542W        W36455  23.846  26.126   6.215 -0.2811 -0.0155  0.1764
93543W        W36456  10.550  29.014  26.407  0.0334 -0.1108  0.1143
93544W        W36457   3.523  14.839   2.609  0.0787  0.2889 -0.4514
93545W        W36458   3.743  24.099   5.256 -0.1467  0.2857 -0.2296
93546W        W36459   7.169  18.490  17.337 -0.1645 -0.0532  0.1066
93547W        W36460  10.769  20.252  26.468  0.3398 -0.0922  0.1907
93548W        W36461  11.852  30.765   8.292  0.0240  0.0456  0.2122
93549W        W36462  21.571  18.835   7.551 -0.2263 -0.0152 -0.4029
93550W        W36463  17.207  13.672   2.482 -0.0372 -0.0826  0.2006
93551W        W36464  14.648  16.846   3.499  0.1130 -0.1212  0.6928
93552W        W36465   8.885  14.242   9.213  0.2679 -0.0773  0.0769
93553W        W36466   8.069  18.697   5.293 -0.2589 -0.1426  0.0266
93554W        W36467  32.903  22.605   8.235 -0.1960 -0.3446  0.1497
93555W        W36468  10.394  22.690  10.548  0.1574  0.0039 -0.1359
93556W        W36469  10.016  19.549  24.333 -0.1033 -0.0351 -0.0101
93557W        W36470  16.944  22.417   5.819 -0.1466 -0.0912  0.0623
93558W        W36471   8.427  14.456   9.422  0.0171  0.2306 -0.5905
93559W        W36472  14.109  22.476   6.396  0.0920  0.3818  0.3098
93560W        W36473  17.315  15.576  23.060 -0.0190 -0.1044  0.0446
93561W        W36474   0.545  26.750   8.137 -0.2833 -0.0504 -0.1821
93562W        W36475  14.037  14.968  28.365  0.2431  0.0091 -0.0778
93563W        W36476   1.650   4.411   3.767 -0.0113 -0.2873 -0.1575
93564W        W36477   8.446  25.694  10.904  0.0542 -0.1590 -0.0940
93565W        W36478  15.583  27.413   9.086  0.0235 -0.2601  0.0911
93566W        W36479   0.734  17.461   6.319 -0.1149  0.0116  0.1299
93567W        W36480  24.638  22.303   8.345 -0.4109  0.0366 -0.2059
93568W        W36481  15.998  17.581  25.188 -0.0781 -0.2444 -0.1319
93569W        W36482  13.032  27.099   1.149  0.0756 -0.3227  0.1165
93570W        W36483   6.604   9.033   7.450  0.0527 -0.0743  0.2589
93571W        W36484   9.292  18.973   3.977 -0.1070 -0.0395 -0.0806
93572W        W36485  13.012  17.552   0.820  0.0827 -0.0646 -0.0582
93573W        W36486  33.628  27.351   4.201 -0.0755  0.3354 -0.3518
93574W        W36487  15.987  25.106  27.924 -0.0114  0.1029 -0.0425
93575W        W36488  18.602  12.137  23.925  0.0927 -0.0293  0.0680
93576W        W36489  16.391  26.878  10.180 -0.2659  0.3408  0.0178
93577W        W36490  22.400  28.306   2.831 -0.0972  0.2276  0.0457
93578W        W36491  18.540  24.537   9.502 -0.0655 -0.2520  0.0811
93579W        W36492   4.739  27.221  10.873 -0.1220  0.0531 -0.2857
93580W        W36493  31.995  19.499   8.621 -0.1654 -0.1854 -0.0792
93581W        W36494  11.297  20.275   8.368  0.2056  0.2010 -0.2120
93582W        W36495  21.365  21.897   7.045 -0.1334 -0.1481 -0.0038
93583W        W36496  20.273  14.688   1.132 -0.2787  0.4065 -0.0690
93584W        W36497   6.121  13.697   4.697  0.0063 -0.3101 -0.0256
93585W        W36498   6.411  14.109  10.034  0.2819 -0.1661  0.0995
93586W        W36499   3.312  23.711   8.080  0.0239  0.1693 -0.1593
93587W        W36500   6.977  21.675   9.495  0.2300 -0.2702  0.4082
93588W        W36501  14.184  24.343   8.223  0.1280 -0.0053 -0.1353
93589W        W36502  14.063  12.346   6.356  0.1508  0.1651 -0.3066
93590W        W36503  12.018  10.384   3.355 -0.0719 -0.0303 -0.0243
93591W        W36504  12.754  23.404   2.281 -0.2207  0.0780  0.2441
93592W        W36505  12.976  18.155   6.707 -0.3020  0.0034 -0.0775
93593W        W36506  16.411  11.232  26.120  0.1315  0.1629  0.2691
93594W        W36507  13.706  20.943   6.544  0.0978  0.0144  0.3487
93595W        W36508  11.396  22.260   5.282  0.3182 -0.0530  0.1632
93596W        W36509   9.878  14.683   5.063 -0.1095  0.0737  0.1497
93597W        W36510  20.132  23.865   4.333  0.6143 -0.1101  0.0591
93598W        W36511  23.354  18.621  25.210 -0.0331  0.0569 -0.0699
93599W        W36512  19.543  23.949   1.637  0.1277 -0.1621  0.1681
93600W        W36513   7.798  13.053   2.665 -0.0585  0.3834  0.0326
93601W        W36514   0.991  15.706   3.688  0.0098 -0.1917  0.1574
93602W        W36515   9.074  19.460   5.979  0.2047 -0.1113 -0.2710
93603W        W36516  17.373  27.074   9.465  0.0617  0.3534  0.0773
93604W        W36517  13.594   1.553   0.865 -0.1042 -0.1806 -0.2398
93605W        W36518  17.636  19.058   2.299 -0.0965  0.4444  0.0872
93606W        W36519   3.101  17.714   9.524  0.2518  0.1320  0.1667
93607W        W36520  14.136  25.975   9.091 -0.0735 -0.0818  0.0546
93608W        W36521   6.153   9.110   8.316  0.1706 -0.1097 -0.2769
93609W        W36522   8.060  30.007  29.427 -0.1572 -0.0872 -0.0623
93610W        W36523  16.380  22.859   7.208 -0.7350  0.1008 -0.2177
93611W        W36524   9.258  25.868   3.591 -0.1240  0.0386 -0.0513
93612W        W36525   8.312  18.746   4.494  0.0297 -0.3332  0.4551
93613W        W36526  11.096  21.872   5.557 -0.0126 -0.0853  0.1283
93614W        W36527  17.661  18.196   7.991  0.0417  0.1701  0.2637
93615W        W36528   7.909  11.190   5.708 -0.2233  0.0823 -0.0578
93616W        W36529  19.149  29.523   2.128 -0.0700  0.1424 -0.1656
93617W        W36530  19.881  15.379  25.154 -0.3241 -0.0064  0.0053
93618W        W36531  14.192  11.327   0.502  0.0686 -0.0150 -0.2135
93619W        W36532   8.218  13.846  10.053  0.2536  0.1629 -0.0348
93620W        W36533  10.529  20.245   3.637 -0.0386 -0.3914  0.0084
93621W        W36534  13.745  21.741   9.283 -0.0543  0.1659  0.2070
93622W        W36535   9.560   8.249   6.925  0.3100  0.0389 -0.0401
93623W        W36536   7.118   9.696  27.077  0.0009  0.0846 -0.0500
93624W        W36537  17.195  16.831   5.357  0.0740 -0.1041  0.0708
93625W        W36538  13.855  25.611   6.982  0.3195  0.0639  0.2525
93626W        W36539   4.942  13.113   3.283  0.0358  0.1467  0.5111
93627W        W36540  12.412  32.295   0.314  0.3939 -0.1297  0.1338
93628W        W36541   7.424  10.391  10.182 -0.2615 -0.0944  0.1498
93629W        W36542   0.320  28.914   5.065 -0.0090 -0.2161 -0.2442
93630W        W36543  10.976  22.686  25.158 -0.3207  0.1039 -0.0682
93631W        W36544  16.724  14.017   1.285  0.3447  0.0441  0.0813
93632W        W36545  14.504  24.912   7.592 -0.0344 -0.0048  0.1518
93633W        W36546   8.158  16.894   7.262 -0.0049 -0.0928  0.2887
93634W        W36547  16.228  16.813   5.550  0.1807  0.0196  0.3261
93635W        W36548  10.065  17.356   4.307 -0.3126  0.0413 -0.0895
93636W        W36549  12.515  16.124  26.827  0.2294  0.2130 -0.3182
93637W        W36550  15.102  17.670  25.852 -0.1054 -0.2290  0.2184
93638W        W36551  17.048  24.431   8.667 -0.0361  0.1704  0.0626
93639W        W36552  17.610  15.848   3.555  0.3333 -0.0394 -0.2258
93640W        W36553   7.988  26.637   3.323  0.0779  0.1132 -0.1399
93641W        W36554  12.504  17.092   1.179 -0.3089  0.1539 -0.0369
93642W        W36555   7.957  21.001   6.975 -0.2509 -0.0664 -0.1790
93643W        W36556  20.357   6.848   8.994  0.1262  0.0388 -0.2976
93644W        W36557  11.063   8.686   6.795  0.1055 -0.2145 -0.0686
93645W        W36558  18.181  22.365  28.184  0.0136 -0.0837 -0.3992
93646W        W36559  10.118  18.232  23.627  0.4569  0.1000 -0.0282
93647W        W36560  16.299  20.680   7.138 -0.4117 -0.2625  0.0164
93648W        W36561   7.200  14.956   1.674  0.5924 -0.4044  0.5145
93649W        W36562  11.748  30.782   7.255 -0.0270  0.0651  0.0131
93650W        W36563  15.103  14.374   1.389 -0.2127 -0.2729  0.0251
93651W        W36564  13.984  25.550   0.947 -0.1376  0.2065 -0.0508
93652W        W36565  16.401  13.672  26.517  0.3709  0.0067  0.0174
93653W        W36566  33.126  16.943   1.581 -0.0129 -0.2046 -0.0116
93654W        W36567  10.829  12.794   9.836  0.1988  0.1186 -0.2273
93655W        W36568  19.203  15.783   4.256  0.0339  0.0593  0.2380
93656W        W36569  14.326  15.645   3.263  0.0687 -0.1128 -0.2808
93657W        W36570  13.119  21.029  26.079 -0.0075  0.2600 -0.0493
93658W        W36571  21.542  21.815   2.830  0.2330  0.0950  0.0327
93659W        W36572  16.653  18.886   0.351  0.0631  0.1218  0.0335
93660W        W36573  13.105  20.056   7.096  0.1593  0.0626 -0.1135
93661W        W36574   2.427  33.189  27.821 -0.1571  0.0661  0.1988
93662W        W36575   6.201  33.890   8.055  0.3081  0.1250 -0.3202
93663W        W36576  11.149  21.604   4.736  0.2150 -0.1812  0.1331
93664W        W36577  13.236  12.669  26.253  0.0006 -0.3242  0.1306
93665W        W36578   7.543  20.323   3.241 -0.0490  0.0926  0.0800
93666W        W36579   8.763  23.826  10.576  0.1540 -0.3958  0.0086
93667W        W36580  14.837  21.177   7.523  0.0321 -0.2308  0.1615
93668W        W36581  14.063  14.199   3.034 -0.1300 -0.3054 -0.5168
93669W        W36582   8.598  17.839  28.191 -0.2961  0.1010  0.0367
93670W        W36583  19.582  12.361   3.812  0.2107 -0.2707 -0.3147
93671W        W36584  14.535  32.589  10.429 -0.0438 -0.0628 -0.0267
93672W        W36585  17.388  22.365   6.053 -0.1166  0.1357 -0.2509
93673W        W36586  11.382  26.028   3.610 -0.1495  0.1702 -0.1084
93674W        W36587  11.538  28.384   3.887 -0.1645  0.0123 -0.1037
93675W        W36588   9.879  23.705   6.134 -0.0212  0.0980 -0.2876
93676W        W36589  13.740  24.492   9.112  0.2410  0.1978 -0.0890
93677W        W36590  11.617  12.229   5.153 -0.1819  0.1416 -0.2555
93678W        W36591  32.683   6.641   1.614 -0.2251 -0.2704  0.3338
93679W        W36592  19.760  27.516   9.599  0.1263 -0.0427 -0.2225
93680W        W36593   6.137  30.372   6.774 -0.0322  0.1141 -0.1256
93681W        W36594  18.893  10.332   3.862  0.1013  0.0641  0.0349
93682W        W36595  11.323  20.697   6.379 -0.2315  0.0842  0.1714
93683W        W36596  11.109  13.430   5.087  0.1297 -0.0156 -0.0900
93684W        W36597  12.121  34.430   6.104 -0.0260 -0.2792  0.2307
93685W        W36598   3.428  16.804  28.492 -0.1458  0.0122  0.0444
93686W        W36599   4.785  17.787   4.190  0.0910  0.0652  0.5284
93687W        W36600  14.409  23.647   5.313 -0.0556  0.1815  0.0359
93688W        W36601   8.465  16.087   7.823 -0.2932  0.2337  0.0008
93689W        W36602  24.277  25.113   7.236  0.0662  0.1323  0.0912
93690W        W36603   9.478  13.264   0.475 -0.1119 -0.0375  0.0868
93691W        W36604  14.187  18.497   2.187  0.2510 -0.0648 -0.1607
93692W        W36605  19.005  23.224   6.153  0.1453 -0.0771  0.1445
93693W        W36606   8.931   7.374   9.657 -0.1390  0.1118 -0.0018
93694W        W36607  11.287  10.267   2.687 -0.0070 -0.0525 -0.0834
93695W        W36608  14.780  17.476   7.224  0.0676  0.2608 -0.0286
93696W        W36609  12.830  19.511  22.728 -0.3694  0.0725 -0.0650
93697W        W36610  27.482  20.253   6.236 -0.1549  0.2130 -0.2085
93698W        W36611   7.288  23.498   6.832  0.0817  0.1470 -0.2958
93699W        W36612   8.740  31.089  10.315 -0.0139  0.2975  0.0206
93700W        W36613  10.722  27.051   9.987 -0.1102  0.1712 -0.3432
93701W        W36614   8.452  10.762   0.673 -0.1493 -0.1381  0.1336
93702W        W36615   7.917  18.083   0.515 -0.1520 -0.5242 -0.1015
93703W        W36616  14.045  10.877  29.164 -0.0749  0.3794  0.0896
93704W        W36617   2.121  24.105   8.204 -0.2332 -0.1650 -0.0213
93705W        W36618  13.074  17.992  28.224 -0.0386 -0.1943 -0.2780
93706W        W36619   6.930  29.806   4.041 -0.0041 -0.2430  0.2910
93707W        W36620  16.662   7.509   9.729  0.3264  0.0021  0.0719
93708W        W36621  14.388  17.677  28.917  0.2300  0.3270 -0.0082
93709W        W36622  16.175  24.981   9.557  0.1601  0.1783 -0.0545
93710W        W36623   3.578  21.203   9.510 -0.0377 -0.4476 -0.3347
93711W        W36624  13.831  14.073   3.487 -0.0065 -0.0979  0.2235
93712W        W36625  19.789  14.958  22.822 -0.0835 -0.0286  0.1371
93713W        W36626  30.397  28.907   3.791  0.2234  0.1330  0.0716
93714W        W36627  12.601  32.520  27.013  0.0043  0.0265 -0.0131
93715W        W36628  27.971  18.286   5.762  0.0144 -0.1010 -0.3575
93716W        W36629  15.475   9.665   9.327  0.1334 -0.2011  0.3165
93717W        W36630   8.939  10.439  26.141  0.0683 -0.2586 -0.1297
93718W        W36631  12.998  31.358   7.821  0.0182  0.1658  0.0315
93719W        W36632  12.301  26.827  27.950  0.3575 -0.1609  0.2701
93720W        W36633  19.838  33.402   6.141 -0.1590 -0.1057 -0.2982
93721W        W36634  11.509  10.653   3.588 -0.4556  0.1642 -0.2821
93722W        W36635  11.538  24.061   3.375 -0.1416  0.3973 -0.1664
93723W        W36636   9.754  15.515   7.801  0.0075 -0.3602 -0.0375
93724W        W36637   9.830  21.262   8.381 -0.2018 -0.1247  0.0224
93725W        W36638  12.593  14.733   0.823 -0.1891 -0.0361 -0.2892
93726W        W36639  15.747  25.153   9.843 -0.3908 -0.2144 -0.1727
93727W        W36640   8.765  29.545   2.333 -0.0130 -0.0752  0.0698
93728W        W36641  12.072  22.752  25.972 -0.2867 -0.2124  0.3504
93729W        W36642   4.214  26.243   0.733 -0.2706  0.0949  0.0061
93730W        W36643  15.090  19.719  27.591  0.0407 -0.1281 -0.1289
93731W        W36644  19.678  12.113   6.347 -0.0710  0.0846 -0.0042
93732W        W36645  14.145  15.746   7.801  0.0077 -0.2756 -0.0875
93733W        W36646  18.547  20.053   3.285 -0.2527 -0.2252  0.0600
93734W        W36647  18.453  16.051   5.645  0.1084  0.0183  0.0631
93735W        W36648   3.167  25.517   8.715  0.0215 -0.1570  0.2506
93736W        W36649   9.052  28.311   6.019  0.1749  0.3358 -0.0355
93737W        W36650  13.694  27.903   1.978 -0.1550 -0.1991  0.1177
93738W        W36651  12.651  29.825   8.289 -0.4003  0.1532 -0.0805
93739W        W36652   1.728  16.662  28.626  0.2831  0.0160 -0.2143
93740W        W36653  12.929  20.873   1.624  0.0174  0.2036 -0.0192
93741W        W36654  12.301  22.781   8.285  0.0764  0.0512  0.1833
93742W        W36655  19.284  10.996  25.372 -0.1372  0.2501  0.0157
93743W        W36656  11.102  19.837  29.223 -0.3551 -0.1451 -0.1488
93744W        W36657  19.402  19.527   7.222 -0.2008 -0.1118 -0.1669
93745W        W36658  11.743  12.462   7.985 -0.1668 -0.0366 -0.1022
93746W        W36659  22.571  17.835   7.961 -0.3218 -0.1727  0.1402
93747W        W36660   7.520  21.734   3.034 -0.0182  0.0296  0.4932
93748W        W36661  20.683  25.605   4.063  0.0482  0.5714  0.0711
93749W        W36662   2.697  26.018   4.907 -0.0353 -0.1159 -0.3905
93750W        W36663  34.340  23.242   5.016 -0.6432 -0.1964 -0.0854
93751W        W36664  26.152   0.951   7.137  0.1661  0.0172  0.2906
93752W        W36665   1.762  10.177   3.027  0.1116 -0.0222 -0.0590
93753W        W36666  33.741  14.895   8.537  0.1443  0.0127  0.1417
93754W        W36667   9.295  16.715   7.882  0.0200 -0.1712  0.2197
93755W        W36668  25.483  25.569   9.097  0.0363 -0.0483  0.5255
93756W        W36669   5.396  12.250  10.368 -0.0731  0.2701 -0.0782
93757W        W36670   0.313  17.909   4.049 -0.2012  0.2196 -0.1744
93758W        W36671  32.303   8.757   9.611  0.0146  0.2043  0.0627
93759W        W36672  14.159  21.639   2.076  0.0997 -0.2202 -0.1116
93760W        W36673  13.768  21.059  27.541  0.1326 -0.0207 -0.0878
93761W        W36674  15.814  17.211   2.897 -0.0577 -0.1660  0.1311
93762W        W36675  22.588  29.216   6.758 -0.1903 -0.0617 -0.0476
93763W        W36676  15.122  11.048  25.979  0.0841 -0.1572 -0.0289
93764W        W36677  11.717  16.102   4.857 -0.1672 -0.2715  0.4384
93765W        W36678   9.932  24.245   4.961 -0.0956 -0.2802  0.3245
93766W        W36679  10.853  10.562  10.160  0.0043  0.3025  0.1427
93767W        W36680  13.238  26.425   5.534  0.0551 -0.2543  0.0977
93768W        W36681   6.554  14.893   8.894  0.0587  0.3055  0.0407
93769W        W36682   7.574   3.008  28.873  0.3006  0.2141 -0.3356
93770W        W36683   6.160  32.005  25.228 -0.5000  0.2174  0.3127
93771W        W36684  11.288  27.762   8.524 -0.3346 -0.2980 -0.0321
93772W        W36685  10.853  20.240  21.585  0.1657 -0.0913 -0.0568
93773W        W36686  20.436   6.101   9.314 -0.5318 -0.1846  0.1458
93774W        W36687  16.148  19.495   1.800  0.0502  0.2757 -0.2115
93775W        W36688   7.865  22.308   5.809 -0.2349  0.0256 -0.3373
93776W        W36689  23.381  25.174   7.057 -0.1288  0.1948  0.3370
93777W        W36690   8.221   3.641   9.112 -0.0569  0.0065 -0.2224
93778W        W36691   7.617  19.556   2.124  0.1366 -0.0320 -0.3317
93779W        W36692   3.881  13.473   9.190 -0.0511 -0.2269 -0.0463
93780W        W36693   8.706  23.676   6.247  0.0682  0.2723 -0.0926
93781W        W36694  12.706  19.978  29.326 -0.1325  0.1648 -0.1352
93782W        W36695  20.484  13.463   1.962 -0.1227  0.0345  0.0665
93783W        W36696   1.675  17.470   3.309 -0.2137 -0.0769 -0.0496
93784W        W36697  15.473  26.728   6.547 -0.1838  0.3342 -0.0870
93785W        W36698  18.891  17.288  23.074 -0.1705 -0.0958 -0.0083
93786W        W36699  10.714   9.640   3.259 -0.1292  0.2461 -0.3151
93787W        W36700  11.119  25.998   0.520 -0.0394  0.1853 -0.0049
93788W        W36701  11.766  22.619   2.336 -0.0045  0.0187  0.1029
93789W        W36702  13.384  20.944   8.135 -0.1043 -0.2524  0.0760
93790W        W36703  23.912  20.615   5.336  0.2353 -0.2968  0.2236
93791W        W36704   7.308  16.416   3.393 -0.0744 -0.1633  0.0401
93792W        W36705   4.467  11.870   8.614  0.1792 -0.1529 -0.0203
93793W        W36706  16.829  17.671   4.577 -0.2137 -0.1723 -0.0323
93794W        W36707  23.851  20.991   3.445 -0.1587 -0.2651  0.0192
93795W        W36708   1.505   9.533  11.304 -0.1747 -0.0990 -0.0354
93796W        W36709  12.766  22.300   4.399  0.0463 -0.0917  0.1374
93797W        W36710   5.990  22.315   5.889 -0.0935 -0.1117 -0.3077
93798W        W36711  13.946  26.596   4.106  0.0851 -0.1558 -0.0109
93799W        W36712  15.521   7.031   8.218 -0.1795  0.0913  0.1292
93800W        W36713  21.045  20.776   5.589 -0.2158  0.0778 -0.0734
93801W        W36714  14.462  17.944   7.375  0.2489  0.1634  0.1411
93802W        W36715  13.216   0.769   7.837 -0.0603 -0.0436 -0.4692
93803W        W36716   5.603  15.128   4.177  0.3699 -0.2798  0.3002
93804W        W36717  10.923  12.520   3.339  0.0082 -0.2851 -0.0054
93805W        W36718  16.495  25.992   9.232 -0.0384  0.0474  0.0206
93806W        W36719   0.274  27.618   9.355  0.3263  0.2296 -0.3121
93807W        W36720   8.676  24.159   6.083  0.1499 -0.0091 -0.0704
93808W        W36721  10.217  13.520   5.806 -0.0376  0.1175  0.0361
93809W        W36722  13.360  16.477   5.081  0.0612  0.4187  0.0357
93810W        W36723   7.347   9.797  28.135  0.0713  0.0879  0.2039
93811W        W36724  25.494   8.679   4.444  0.1183 -0.1844  0.1734
93812W        W36725  16.604  19.442   6.986 -0.0257 -0.2531 -0.0733
93813W        W36726   7.359  13.354   6.894  0.0436 -0.1500 -0.0442
93814W        W36727  13.933  17.189   0.921  0.1153 -0.1545 -0.0759
93815W        W36728   7.155   4.646   5.478  0.1609  0.1194 -0.1830
93816W        W36729   6.797   8.125   5.894 -0.0842 -0.1567  0.0654
93817W        W36730  18.551  21.350   8.548  0.1584  0.2270  0.1231
93818W        W36731   3.438  20.006   6.635  0.0626 -0.1855 -0.2692
93819W        W36732  15.450  25.043   9.169 -0.0006  0.0582  0.0057
93820W        W36733  32.549  30.469   7.031 -0.0606 -0.1435  0.3470
93821W        W36734   1.137   7.828  29.563  0.2827  0.1009 -0.1016
93822W        W36735   7.863  31.119   4.321  0.0614  0.1052 -0.0973
93823W        W36736  20.286  17.547   2.527 -0.1430 -0.0863  0.0684
93824W        W36737   3.435  14.479   5.061 -0.2710  0.0833 -0.0271
93825W        W36738   8.899   0.817   6.949 -0.0359 -0.0512 -0.0015
93826W        W36739  10.967  15.616   4.800 -0.2572  0.0546 -0.4513
93827W        W36740   2.980   7.903  20.474  0.1397 -0.0777 -0.2484
93828W        W36741   2.274  21.512   8.395  0.1882 -0.2532 -0.1116
93829W        W36742  14.842  17.026   8.357  0.0994  0.0624 -0.5316
93830W        W36743  15.855  19.874   7.025 -0.0114  0.3218  0.1073
93831W        W36744  22.995  17.667   3.674 -0.0028 -0.2029  0.0534
93832W        W36745   8.131  19.704   5.894 -0.0569  0.2440 -0.4174
93833W        W36746   8.727  27.449   6.182  0.1710  0.1067 -0.4420
93834W        W36747  32.616   9.931   4.341 -0.0010  0.0570 -0.0679
93835W        W36748  13.977  15.662   7.272 -0.1355 -0.2958  0.0088
93836W        W36749  21.223  12.679   7.785  0.3285  0.1074 -0.3212
93837W        W36750   6.342  12.548  10.194  0.1015  0.2011  0.2111
93838W        W36751  18.377  23.301   6.740 -0.0525  0.0499 -0.0024
93839W        W36752  24.886  17.429   8.253  0.1872 -0.3200  0.0998
93840W        W36753  10.497   1.226   1.597 -0.0580  0.0330  0.0661
93841W        W36754  12.532  20.730  29.055 -0.0074  0.0318 -0.0923
93842W        W36755  14.774  22.062   0.766  0.1778  0.0315 -0.3608
93843W        W36756  12.822  13.456  27.870 -0.0302  0.2088 -0.1244
93844W        W36757  19.454   5.252   7.115  0.0479 -0.0685  0.2832
93845W        W36758   6.968   3.303   5.531 -0.1029  0.0720 -0.1698
93846W        W36759  15.171  11.550   5.361  0.1846 -0.1053  0.1668
93847W        W36760  15.056   7.826   9.277  0.1078  0.0091  0.1260
93848W        W36761  19.377  15.986   3.729  0.1521 -0.1559 -0.0957
93849W        W36762  16.964  12.373   3.100 -0.2509 -0.1084 -0.3263
93850W        W36763  17.903   1.329   2.183 -0.1816 -0.0920  0.0150
93851W        W36764   3.056  16.826   9.088  0.2252 -0.3074 -0.0480
93852W        W36765  13.142  20.464   7.978 -0.0114 -0.2619 -0.0145
93853W        W36766  12.420  30.020  23.022 -0.2312  0.2504 -0.1415
93854W        W36767  13.936  30.524   1.866  0.0260 -0.2606 -0.1993
93855W        W36768  15.101  23.668   2.243  0.3013 -0.1307 -0.0913
93856W        W36769   6.617  23.357   3.225  0.1829  0.1568  0.3353
93857W        W36770  12.408  13.076   6.742 -0.0574 -0.1744  0.1716
93858W        W36771   6.891  17.388   7.333 -0.0893  0.1779 -0.0341
93859W        W36772  10.325  22.130   5.973  0.2552 -0.0732  0.0717
93860W        W36773   8.235  14.381   8.962  0.1038  0.0582  0.1234
93861W        W36774  16.788  19.854   7.782 -0.0706 -0.0375 -0.2343
93862W        W36775   8.258  15.349   3.298  0.1351 -0.1132 -0.1954
93863W        W36776  12.689  25.451   8.881  0.0748 -0.2160 -0.0415
93864W        W36777  13.769  15.964  28.409 -0.2789 -0.0587 -0.1742
93865W        W36778  12.657  11.151   3.472 -0.0557  0.0245 -0.1000
93866W        W36779  13.974  17.460   2.552  0.0509  0.3291  0.0319
93867W        W36780  17.321  21.274  29.261  0.0825  0.1188 -0.0013
93868W        W36781   6.869  17.379   8.726  0.0591 -0.0985 -0.0890
93869W        W36782  15.885  16.777   3.247 -0.2228 -0.2475 -0.0172
93870W        W36783   6.432  16.994   7.548 -0.0643  0.0112 -0.2928
93871W        W36784  12.974   0.061  11.334  0.2371 -0.2835  0.0994
93872W        W36785  11.378  24.750   5.868 -0.1149  0.0668 -0.0151
93873W        W36786   4.680  22.617   1.238 -0.0072 -0.0336  0.0604
93874W        W36787   9.202  18.971   5.692 -0.0566 -0.1531  0.2306
93875W        W36788  12.200   8.842   1.470  0.1188 -0.2646  0.1542
93876W        W36789  19.125  24.291   8.291 -0.0772 -0.1830  0.5252
93877W        W36790  18.746  25.777   7.488  0.1377 -0.0308 -0.2898
93878W        W36791  10.077  20.594   7.425  0.0498  0.2695  0.0764
93879W        W36792   8.433  12.637   1.975  0.1143 -0.0252 -0.2117
93880W        W36793   9.227  23.507   4.953 -0.3450  0.2735  0.1512
93881W        W36794   9.368  24.314  25.444  0.0171 -0.0475 -0.0523
93882W        W36795  20.092  18.574   5.396 -0.3485  0.0432  0.0541
93883W        W36796  15.339  33.558  11.632  0.0094  0.3753  0.1532
93884W        W36797   3.468  14.379  29.670  0.0881  0.0835  0.0793
93885W        W36798  17.949  17.513  29.635  0.3001  0.2402  0.0330
93886W        W36799  10.338  20.872   1.441  0.1696  0.0526  0.0403
93887W        W36800   9.496  30.968   8.929 -0.2999  0.0446  0.0546
93888W        W36801   6.079  20.248   7.790  0.2243  0.2308 -0.0716
93889W        W36802  16.508  23.573   6.247 -0.0219 -0.0185 -0.2671
93890W        W36803   9.531  24.019   8.182 -0.2505  0.3556 -0.1207
93891W        W36804   0.486  10.221   4.262  0.1039 -0.0881 -0.0656
93892W        W36805   5.835  19.548   6.893  0.0594 -0.1569  0.2830
93893W        W36806  14.302  15.749   2.003  0.0321 -0.1044  0.2129
93894W        W36807  16.628  18.581   8.611  0.1422  0.3254  0.1152
93895W        W36808   7.729  33.535  28.968  0.2882 -0.0821  0.2872
93896W        W36809   1.366  13.024  10.026 -0.0361  0.0603 -0.2925
93897W        W36810   9.774  23.277   3.996 -0.1653 -0.1112  0.0780
93898W        W36811  34.089  16.283   2.289 -0.0681 -0.0741 -0.2054
93899W        W36812  18.873   7.991   2.566 -0.4735  0.0010  0.0902
93900W        W36813  19.452  11.838  26.443 -0.1794 -0.3443  0.3007
93901W        W36814  12.859  19.310   1.524 -0.3220 -0.0452  0.0393
93902W        W36815   3.557   9.146   4.228 -0.0510 -0.0909  0.0877
93903W        W36816   0.983  25.626   6.356 -0.3816  0.1282  0.2500
93904W        W36817  33.855  17.523   5.476 -0.0681  0.1512  0.0180
93905W        W36818   6.092  21.281   6.866  0.1328  0.0910  0.1522
93906W        W36819  14.541   9.255   3.190  0.0871 -0.0313 -0.0777
93907W        W36820   8.180  29.122  29.092 -0.2500  0.1025  0.1344
93908W        W36821   1.803   8.437   8.559  0.2081  0.2712 -0.0480
93909W        W36822  14.384  15.955   2.479  0.0823  0.0962 -0.2403
93910W        W36823   6.419  21.057   5.680  0.1062  0.1405  0.0415
93911W        W36824  17.355  26.587   8.728 -0.0507 -0.1785  0.1842
93912W        W36825  10.286  19.796   6.936  0.0327  0.3853 -0.3745
93913W        W36826  14.856  13.020   0.472  0.0778  0.1528  0.2081
93914W        W36827  17.313  21.113   6.594 -0.0281 -0.2586  0.1842
93915W        W36828  24.672   8.872   4.976  0.1843  0.0298 -0.1290
93916W        W36829   8.521   8.377  10.525  0.0286  0.1795 -0.0024
93917W        W36830  12.484  12.949   1.015  0.0841 -0.2700 -0.0360
93918W        W36831   7.639  17.076   8.142  0.0772 -0.0517 -0.0050
93919W        W36832  16.131  16.751   8.512  0.1235  0.0259 -0.3438
93920W        W36833  15.532  20.752   6.002  0.1175  0.0618 -0.0363
93921W        W36834  13.194   2.373  11.428 -0.4214  0.1283 -0.3856
93922W        W36835  17.061  20.459  26.605  0.2400  0.1825 -0.3584
93923W        W36836  10.295   4.301   9.517 -0.2086  0.2710  0.0093
93924W        W36837   4.786  19.674  26.318  0.1897  0.0638 -0.3377
93925W        W36838  16.197  17.462  28.418  0.4299 -0.1565 -0.0995
93926W        W36839  21.724  21.803   6.711 -0.0001 -0.1705 -0.2293
93927W        W36840  13.910  21.498   8.661 -0.0796  0.0499 -0.1258
93928W        W36841  23.085  24.413   5.360 -0.0213 -0.0033 -0.2388
93929W        W36842   7.299  18.477   6.434 -0.1499  0.1640  0.0416
93930W        W36843  10.641  17.215   4.186  0.0699  0.1249  0.1427
93931W        W36844  24.165  11.236   7.763  0.0393 -0.0010 -0.1367
93932W        W36845  14.758  27.723   7.071  0.0832 -0.0897 -0.3680
93933W        W36846  12.634  13.060   5.841  0.0888  0.0551  0.0513
93934W        W36847  12.291  18.552  27.818 -0.2248  0.0790  0.2734
93935W        W36848  17.117  11.382   5.611 -0.0985 -0.0466 -0.0741
93936W        W36849  17.589  25.229   5.730 -0.0354  0.1258 -0.0782
93937W        W36850  12.406  26.711   6.357  0.4310  0.0190 -0.0333
93938W        W36851   4.858  19.878   5.128 -0.0017  0.0538  0.2870
93939W        W36852  33.881  24.106   4.370  0.0911  0.0304 -0.2206
93940W        W36853  10.922  14.273   9.856  0.1451  0.2003 -0.3343
93941W        W36854  18.864  24.839   9.307 -0.0736  0.0769  0.3814
93942W        W36855  24.342  23.131   7.130  0.4705  0.2320  0.2399
93943W        W36856   2.407  26.959   5.618 -0.0531 -0.0787  0.1658
93944W        W36857  19.515  18.820  28.356 -0.2100 -0.1286  0.0359
93945W        W36858  10.153  15.050   6.262 -0.0842 -0.2498  0.2446
93946W        W36859   9.923  29.425  24.557 -0.0930  0.0743  0.1223
93947W        W36860  11.654  15.982   1.633 -0.3550 -0.0370  0.1329
93948W        W36861   9.932  17.055   6.093  0.0668 -0.1048 -0.2912
93949W        W36862  11.793  32.651  11.399 -0.2015 -0.3070 -0.1798
93950W        W36863   8.017  24.587   9.763 -0.6018 -0.1172 -0.2406
93951W        W36864  13.750  15.466   1.410  0.3649 -0.0801 -0.2190
93952W        W36865   5.675  16.869  10.026  0.0343  0.1413 -0.1354
93953W        W36866   3.452  24.397   9.567  0.0819 -0.0124  0.1015
93954W        W36867  10.656  24.003   3.693  0.0023  0.0382  0.5486
93955W        W36868  14.961  23.113   9.383  0.1688  0.0125 -0.1125
93956W        W36869  11.344  12.516   6.287  0.1076 -0.3745 -0.2135
93957W        W36870   8.986  19.299   3.854  0.2171 -0.1595  0.2366
93958W        W36871   8.975  25.505   9.507 -0.0554  0.1000 -0.0004
93959W        W36872  25.694  16.656   4.408  0.1090  0.0863  0.1838
93960W        W36873  14.878  19.629   8.355  0.0360  0.2678  0.0516
93961W        W36874  13.946  18.455   4.440  0.3241  0.1306 -0.1564
93962W        W36875   5.617   9.958  11.454  0.0765 -0.2040 -0.2233
93963W        W36876   2.753  11.595  27.308 -0.1388  0.0099  0.1123
93964W        W36877  33.946  26.882   0.038  0.2793  0.0472  0.0539
93965W        W36878  11.639  22.845   4.708  0.0369  0.2057  0.1995
93966W        W36879  17.229  13.971   5.852 -0.0180 -0.0733  0.0677
93967W        W36880  17.410  11.353   3.489 -0.1611 -0.1691  0.0186
93968W        W36881  12.386  24.021   4.983  0.1053 -0.0285 -0.0570
93969W        W36882   7.078  13.203   8.989  0.0547  0.2096  0.1154
93970W        W36883   6.460  13.052  10.292  0.3412 -0.1141  0.2029
93971W        W36884  21.796  22.711   7.687 -0.0033  0.0341 -0.2297
93972W        W36885   3.342  17.888   5.754  0.1916 -0.1079  0.3023
93973W        W36886  21.589  22.226   1.774  0.2075  0.1177  0.0750
93974W        W36887   3.041  28.763   4.147 -0.3132 -0.0741  0.1341
93975W        W36888  16.566  30.604  10.404 -0.0092 -0.0444  0.2553
93976W        W36889  14.476  16.683  27.673  0.1534  0.1909  0.0002
93977W        W36890   8.798  10.384   9.129  0.2097 -0.1785  0.4684
93978W        W36891   8.311  16.695   6.637  0.0873  0.0497 -0.3078
93979W        W36892   8.796  18.528   3.266 -0.0502 -0.1097  0.0555
93980W        W36893  22.127  10.967   2.341 -0.1692 -0.1161 -0.2098
93981W        W36894  17.553  15.130   0.533  0.0913 -0.0400  0.2067
93982W        W36895   5.699   9.466  11.182 -0.0917 -0.1580 -0.0472
93983W        W36896   8.573  15.958   2.908 -0.3291 -0.2031  0.0608
93984W        W36897   5.564  18.084   2.756 -0.0258 -0.2247  0.0381
93985W        W36898   5.768  17.078  29.652 -0.1235  0.0001  0.1918
93986W        W36899  12.233  17.236   0.259  0.0215 -0.1225  0.2294
93987W        W36900  12.707  33.430   1.183 -0.0947 -0.0083 -0.0783
93988W        W36901  13.349  22.673   6.239 -0.0220  0.1288 -0.1289
93989W        W36902  19.049  24.934   5.293  0.2797  0.0165 -0.2298
93990W        W36903   9.286  21.495   7.542  0.2934  0.1355 -0.1018
93991W        W36904   5.384  27.685   9.591 -0.1460 -0.5012  0.1351
93992W        W36905  21.118  28.765   2.188  0.0887 -0.0520  0.4162
93993W        W36906  17.100  24.748   4.755  0.1677 -0.0540 -0.0105
93994W        W36907  16.969  28.942   0.014 -0.0206  0.0228 -0.0957
93995W        W36908  11.992  24.737   0.517  0.2764 -0.0188  0.0314
93996W        W36909  16.255  16.280  25.627 -0.2525 -0.2379 -0.3169
93997W        W36910   1.545   8.255   0.341 -0.0107  0.1279  0.0474
93998W        W36911  11.533  18.173   0.786  0.2190  0.0863  0.3048
93999W        W36912  15.601  27.484  10.280 -0.1081  0.1668  0.0991
94000W        W36913  11.371  31.735  27.742  0.3422 -0.0534  0.0711
94001W        W36914  13.767  24.241   2.623  0.0049 -0.0058  0.0557
94002W        W36915  15.352  25.082  23.639 -0.1233  0.0982 -0.1258
94003W        W36916  15.251   2.253  28.232 -0.0688 -0.1208  0.2027
94004W        W36917  24.202  15.895   1.622 -0.0025  0.1648  0.1010
94005W        W36918  22.832  17.961  25.409  0.1057 -0.2388  0.2666
94006W        W36919  10.623  27.269   0.563  0.2231 -0.0012 -0.0626
94007W        W36920   2.670  24.877  26.345  0.3012  0.1782 -0.2129
94008W        W36921   2.029  26.116  25.089  0.0250 -0.0413  0.0449
94009W        W36922  16.607  17.268   8.097  0.2036 -0.2266 -0.2102
94010W        W36923  11.693  29.316   9.438 -0.0990 -0.1015  0.4553
94011W        W36924  17.124  25.355  29.066 -0.1077 -0.2358 -0.0658
94012W        W36925   3.088  23.043   1.894  0.0959  0.0894  0.0179
94013W        W36926  10.392  26.858   5.043  0.2139 -0.1307  0.0142
94014W        W36927   7.576  31.941   4.522 -0.1485  0.0724  0.0873
94015W        W36928  17.980  18.954   1.231  0.1602 -0.3747 -0.1205
94016W        W36929  11.756  30.425  27.887  0.1231 -0.2217  0.0047
94017W        W36930  13.911  24.780   6.664 -0.0280 -0.2182  0.2128
94018W        W36931  10.630  28.823   5.544 -0.2099 -0.1500  0.0283
94019W        W36932   1.621  28.100   3.362 -0.2599  0.2526  0.0863
94020W        W36933  12.893  18.473  24.689 -0.2413  0.1297 -0.0709
94021W        W36934  11.491  28.283  28.402  0.2704 -0.2504 -0.0328
94022W        W36935  15.791  26.103   3.531 -0.0726 -0.0881 -0.1482
94023W        W36936   0.584  31.788   5.882  0.2872  0.1598  0.2519
94024W        W36937  20.108  29.459   5.315  0.3403  0.1641  0.2153
94025W        W36938  16.647  24.125   8.512 -0.1716 -0.0516 -0.2523
94026W        W36939  14.422  29.571   6.583  0.0693  0.1543  0.1600
94027W        W36940  16.026  31.215  28.962 -0.0131 -0.2037 -0.2022
94028W        W36941  13.154  17.089  16.857 -0.0889 -0.2447  0.0809
94029W        W36942  18.458  29.403   1.783 -0.1113  0.2380  0.1011
94030W        W36943  15.429  23.873   7.782  0.0270  0.2709  0.2229
94031W        W36944  13.259  26.338   6.114 -0.2725  0.0844 -0.0510
94032W        W36945   9.433  30.274   5.260 -0.0979  0.1702  0.2006
94033W        W36946  13.565  23.143   7.960 -0.0379  0.3549 -0.3887
94034W        W36947  19.368  14.682   8.553  0.0697 -0.0240 -0.0739
94035W        W36948   9.538  21.476   5.953  0.0458  0.0526  0.1135
94036W        W36949  20.532   1.189  25.411 -0.0068 -0.3981 -0.1205
94037W        W36950  16.776  29.359  24.595  0.0432  0.1358 -0.0413
94038W        W36951  27.728  16.866   6.893 -0.3350  0.5203 -0.0290
94039W        W36952  22.703  27.832  25.196  0.1943 -0.0893  0.0665
94040W        W36953  28.177  25.885   4.389  0.0082 -0.0994  0.0809
94041W        W36954   6.585  34.289   5.101  0.2323  0.1444 -0.1579
94042W        W36955  12.719  29.527   4.480 -0.3619  0.0882 -0.0243
94043W        W36956  10.240  14.587  25.544  0.0817  0.3098  0.1179
94044W        W36957  19.179  22.581  26.142  0.1344 -0.4749  0.0293
94045W        W36958  10.374  27.571  11.245  0.2134 -0.0969  0.1219
94046W        W36959  13.327  21.232  24.088 -0.1414  0.0338 -0.0777
94047W        W36960   9.735  21.698  28.553  0.1022  0.0169  0.0563
94048W        W36961  32.465  26.210   3.829  0.3094 -0.2864  0.0537
94049W        W36962   7.989  28.970   4.081  0.1303 -0.1914  0.0092
94050W        W36963  14.941  24.476   8.181  0.0553 -0.1086 -0.1279
94051W        W36964  13.373  32.204  10.245 -0.0311 -0.2166  0.3932
94052W        W36965  13.619  29.291   5.353 -0.1142  0.2362  0.2922
94053W        W36966  11.663  33.964   8.519 -0.2992 -0.0116 -0.0331
94054W        W36967  18.197  24.964  19.225  0.3902 -0.2022 -0.0010
94055W        W36968  14.947   1.109  27.596 -0.0721 -0.0508 -0.1255
94056W        W36969  15.439  20.804  29.468 -0.0334  0.0035  0.1662
94057W        W36970   7.591  19.528   0.816 -0.0009  0.1410 -0.1156
94058W        W36971  23.030  33.166   0.775 -0.0166  0.3723 -0.1731
94059W        W36972   8.363  24.582   0.598 -0.0579 -0.1011  0.0525
94060W        W36973   6.253   0.293   5.041  0.0134  0.2067 -0.1785
94061W        W36974   5.210  17.757   7.502 -0.0326  0.1660  0.3970
94062W        W36975   3.918  24.730  10.502  0.1542  0.3159  0.2814
94063W        W36976   3.435  27.252   3.846  0.0970 -0.0951  0.1315
94064W        W36977  17.121  25.603   6.480 -0.1201  0.0420  0.2436
94065W        W36978   7.618  31.344  29.388 -0.0056 -0.2512 -0.2931
94066W        W36979  11.577  24.371   2.136  0.1708 -0.0729  0.1974
94067W        W36980  16.308  24.395   4.013  0.2284 -0.1626 -0.1301
94068W        W36981   2.544  29.282  29.495  0.0007  0.1375  0.1330
94069W        W36982  12.451  26.407   3.963 -0.1012  0.0306 -0.1130
94070W        W36983   8.214  11.153   3.842 -0.1116 -0.1118 -0.1645
94071W        W36984  19.320  21.488  25.543  0.2336 -0.0605 -0.0216
94072W        W36985  23.214  25.589   8.088 -0.1837 -0.1886  0.0442
94073W        W36986   8.315  19.421  28.166  0.0117  0.1953 -0.2004
94074W        W36987   7.960   6.945  29.180 -0.3057 -0.0196 -0.0380
94075W        W36988  32.649  13.494   7.201  0.3459 -0.0271 -0.1940
94076W        W36989   3.708  23.789  26.167 -0.1037 -0.1860 -0.0640
94077W        W36990   6.789  32.184   4.126  0.2170  0.1536  0.1308
94078W        W36991  16.379  26.688   4.547 -0.1250 -0.1306 -0.0107
94079W        W36992   8.468  27.580   6.563 -0.0127 -0.3455  0.1049
94080W        W36993  13.820  14.897   5.441  0.0383  0.0809 -0.0501
94081W        W36994  18.956  16.642   4.897 -0.1546 -0.0831  0.0849
94082W        W36995  12.533  25.297  26.081 -0.2890  0.2417  0.1785
94083W        W36996  14.363  25.515   5.358 -0.0717 -0.0265  0.2763
94084W        W36997   5.089  32.409   9.818 -0.3317  0.0784  0.0848
94085W        W36998   9.355  15.138   0.892  0.1128 -0.0442 -0.0965
94086W        W36999  11.206  26.720   8.579 -0.2183 -0.1550  0.2288
94087W        W37000  10.832  19.888  25.909 -0.2601 -0.1728  0.1592
94088W        W37001  19.542  19.631  25.820 -0.0751  0.1289  0.0437
94089W        W37002  12.978  22.544   4.840  0.0200  0.0908  0.0148
94090W        W37003   1.763  30.186   7.971 -0.2457  0.1894  0.0825
94091W        W37004   9.669  31.144  27.114  0.1744  0.0035  0.0646
94092W        W37005   9.954  23.736   8.184 -0.0704 -0.1364 -0.1772
94093W        W37006  19.188  18.922   2.338  0.0325  0.2540  0.3894
94094W        W37007   5.932  30.566   3.573 -0.0103  0.1073 -0.1815
94095W        W37008  13.143  34.120  23.642  0.1527 -0.1295 -0.2069
94096W        W37009  13.325  27.088  10.131  0.1012 -0.1504  0.2268
94097W        W37010  12.544   0.176   7.875 -0.1069 -0.1369 -0.1440
94098W        W37011  12.800  18.219   3.732 -0.1576 -0.3186  0.1934
94099W        W37012   1.023  16.444   9.652  0.1498 -0.2844  0.4203
94100W        W37013  33.946  20.985  27.687 -0.0485 -0.0898 -0.1576
94101W        W37014  18.944  20.478   1.343 -0.0303  0.0233  0.0654
94102W        W37015  15.646  23.028  19.739  0.4309  0.1764  0.0270
94103W        W37016  11.145  24.930  29.132  0.0586 -0.1583 -0.0045
94104W        W37017  16.604   1.267   3.829 -0.3480 -0.0975 -0.0845
94105W        W37018   9.565  21.628   9.304 -0.0218  0.0608  0.0499
94106W        W37019  16.172  15.247  28.571  0.3497 -0.1091  0.1155
94107W        W37020  14.061   8.124  29.230  0.0226 -0.1448 -0.0356
94108W        W37021   9.709  24.250  29.672 -0.0623  0.2038  0.0590
94109W        W37022   4.065  32.095   0.037 -0.0502  0.1511 -0.1726
94110W        W37023  22.737  29.420  25.553 -0.1670 -0.0133  0.1400
94111W        W37024  14.115  29.097   8.871 -0.4144  0.2486 -0.3616
94112W        W37025   4.584  26.160   1.080 -0.2098  0.3690  0.1492
94113W        W37026  16.656  15.376  27.708 -0.1384 -0.3906 -0.0236
94114W        W37027  11.226  29.005   0.606  0.0378 -0.0098  0.0308
94115W        W37028  12.313  25.539  10.730  0.0530 -0.0194  0.0487
94116W        W37029  11.400  24.584   8.402  0.0215  0.0740  0.0266
94117W        W37030  12.289  23.777   6.211 -0.2652  0.0602  0.1807
94118W        W37031  22.988  13.060   1.265  0.1859 -0.0214 -0.2372
94119W        W37032   3.425  28.606   4.491  0.4680  0.2669  0.1032
94120W        W37033   2.876  27.910   3.933 -0.1799  0.1700 -0.1942
94121W        W37034  21.227  32.476   0.613  0.3122 -0.2190 -0.1941
94122W        W37035   4.084  18.499  24.551 -0.0930  0.2012 -0.2175
94123W        W37036  13.142   0.113  28.158  0.1722  0.3416  0.0136
94124W        W37037   2.317  22.091   6.236  0.0693 -0.0813 -0.0670
94125W        W37038   0.622  28.074  28.824  0.0475  0.0253 -0.0040
94126W        W37039  11.018  27.620   0.340 -0.1123 -0.1420  0.0438
94127W        W37040   0.570  27.747  10.675 -0.2429  0.0823  0.3134
94128W        W37041  23.553  30.941   7.761 -0.3101 -0.0825 -0.3098
94129W        W37042   8.743  14.282   6.004  0.1182 -0.1247  0.0543
94130W        W37043   6.266   7.649  29.639  0.1203  0.0751 -0.1606
94131W        W37044  14.479  22.140  27.253  0.3036  0.1007 -0.1618
94132W        W37045  18.097  25.769   7.511 -0.3660 -0.0082 -0.1678
94133W        W37046  12.337  18.487   8.264  0.1074  0.3744 -0.1889
94134W        W37047  14.834  33.683   8.695  0.0872 -0.1307 -0.1722
94135W        W37048  17.538  23.713   8.387 -0.0592  0.2684  0.2194
94136W        W37049  14.201  30.352   7.782 -0.0505  0.0686 -0.1299
94137W        W37050  18.820  27.866   3.449 -0.3006 -0.0972  0.0426
94138W        W37051  14.051  23.286   8.804  0.0719  0.1260  0.2772
94139W        W37052   5.702  21.419   9.169  0.0140  0.1340  0.0680
94140W        W37053  12.952  25.643  29.626 -0.1342 -0.3170  0.0565
94141W        W37054   8.153  29.964  24.162 -0.0252  0.2954 -0.1876
94142W        W37055  13.502  31.958   2.632  0.1287  0.2045  0.2102
94143W        W37056  14.820  15.184   4.358  0.0875  0.0748  0.0868
94144W        W37057   5.574  25.342   2.835  0.1057 -0.1985  0.1540
94145W        W37058   7.245  31.005  23.399  0.1197  0.2950  0.0109
94146W        W37059  13.960  12.582   8.668 -0.0857 -0.0556 -0.1788
94147W        W37060  33.975  31.920   3.754 -0.3872  0.2634 -0.0282
94148W        W37061   5.546  28.301   7.252 -0.0626  0.0517  0.1154
94149W        W37062  13.599  31.992  25.537 -0.0284  0.2238  0.1789
94150W        W37063  17.291  12.253  23.380  0.5182 -0.0973  0.3207
94151W        W37064   9.837  20.604   9.263  0.1242 -0.1367 -0.0124
94152W        W37065  14.188  23.922  26.214  0.2197 -0.1836 -0.2045
94153W        W37066  14.857  25.267   2.567 -0.1934  0.1340 -0.1233
94154W        W37067   5.083  30.774  10.588 -0.1018  0.1496 -0.1317
94155W        W37068  12.822  15.908  18.264  0.0246 -0.1767  0.1117
94156W        W37069   9.067  26.510   9.769  0.2008  0.0087 -0.0739
94157W        W37070   7.044  24.745   6.695  0.1546  0.0354  0.0947
94158W        W37071  27.309  30.911  20.453  0.0281 -0.1029  0.2948
94159W        W37072  21.863  25.755   4.733  0.0440 -0.0099  0.3368
94160W        W37073  21.068  32.304   9.783 -0.1488  0.0566 -0.2630
94161W        W37074  14.573  34.350   2.176  0.3105  0.0618 -0.1192
94162W        W37075  15.379   0.929   7.189  0.1951 -0.3218 -0.2200
94163W        W37076  15.284  23.893  27.432  0.2685  0.2347  0.1712
94164W        W37077  16.811  15.476   6.808 -0.2579  0.2203 -0.0097
94165W        W37078  21.087  31.492   8.042 -0.2980  0.0547 -0.0402
94166W        W37079   8.641  20.544  29.519  0.0109 -0.0433 -0.1446
94167W        W37080   2.758  22.064  29.498  0.0094 -0.0452 -0.0536
94168W        W37081  19.033  20.735   6.682  0.3204 -0.0051 -0.1210
94169W        W37082   4.147  28.015   5.998  0.1077  0.1522  0.3185
94170W        W37083   6.704   0.415  24.644 -0.0510 -0.1985  0.1487
94171W        W37084   7.337   4.704   5.030 -0.2528 -0.0569 -0.0662
94172W        W37085  18.196  15.837   3.411 -0.3095 -0.1120  0.1783
94173W        W37086  14.973  24.823  24.615 -0.1812  0.2177 -0.0606
94174W        W37087  16.491  27.148   4.082 -0.2600  0.0480 -0.0985
94175W        W37088  20.726  34.275   2.802 -0.0052 -0.0938  0.1627
94176W        W37089   3.922  12.286  10.234  0.1004 -0.1515  0.0738
94177W        W37090  28.073  31.559   4.868  0.2379 -0.1494 -0.0834
94178W        W37091   9.168  19.375   8.723  0.2201  0.2417  0.0071
94179W        W37092   8.642  22.300  25.589 -0.1955 -0.0084 -0.4205
94180W        W37093  18.129  26.811   2.361 -0.0731  0.2547  0.1344
94181W        W37094  14.521  26.157  20.130  0.1324 -0.1358 -0.4931
94182W        W37095  18.234  21.037   3.404 -0.0132  0.0315  0.0025
94183W        W37096   3.331  31.250   8.867 -0.1638  0.0230 -0.1154
94184W        W37097  13.482  17.165   2.799  0.2096  0.1801 -0.1146
94185W        W37098  18.150   2.394   6.352  0.0543  0.2100 -0.1312
94186W        W37099   3.019  19.604  25.605 -0.3520  0.2666 -0.5267
94187W        W37100   6.849  32.329   1.679 -0.1372 -0.0617 -0.1223
94188W        W37101   9.310  25.588  27.583  0.1610 -0.3970  0.1082
94189W        W37102  19.142  20.520   7.653 -0.1035  0.0158 -0.0327
94190W        W37103  33.368  16.596   4.626 -0.3035  0.1450  0.2141
94191W        W37104   7.956  25.699   7.299 -0.1302 -0.0257  0.1390
94192W        W37105   5.816  29.448  27.165  0.1213  0.2801  0.1364
94193W        W37106  11.305  23.742   6.446  0.1053  0.3781 -0.1641
94194W        W37107  12.107  23.820   0.498  0.2010 -0.2082 -0.1124
94195W        W37108  14.584  24.398  26.964 -0.1514  0.1259  0.0353
94196W        W37109  15.981   5.864   1.672  0.1883  0.1717  0.1785
94197W        W37110  18.218  32.906   4.624 -0.0740  0.0800 -0.4541
94198W        W37111  34.271  23.026  10.585 -0.1031 -0.0306  0.1098
94199W        W37112  10.442  33.418   0.199  0.1075  0.0434 -0.2071
94200W        W37113  17.646  20.560  28.819  0.1768  0.1125  0.0719
94201W        W37114  33.273  15.388   4.232  0.0000  0.2598 -0.2215
94202W        W37115   6.007  15.731  29.547 -0.1894 -0.0849 -0.1344
94203W        W37116   9.090  29.100   4.948 -0.0003  0.1368 -0.1846
94204W        W37117   6.894  27.154  24.959  0.0781 -0.0229  0.2618
94205W        W37118   5.019  19.776   3.243 -0.0194 -0.2269 -0.2400
94206W        W37119  13.754   3.517  10.584 -0.0805 -0.1367  0.1040
94207W        W37120  14.029  26.447   8.517  0.1654  0.0264 -0.1161
94208W        W37121  14.543  26.622   0.047  0.1269  0.0758 -0.2772
94209W        W37122  16.491  24.075   3.605 -0.0353  0.0008 -0.1480
94210W        W37123  10.983  19.029   7.982 -0.0006 -0.0373  0.0130
94211W        W37124  24.545  20.776   2.920  0.4245 -0.0531 -0.2512
94212W        W37125   8.288  19.102  22.775  0.1616  0.0968  0.3847
94213W        W37126   5.148  32.483   3.876 -0.0731 -0.2836 -0.0345
94214W        W37127  19.095  24.742  26.596  0.3075  0.3509  0.3871
94215W        W37128   1.687  25.373  17.806 -0.0224 -0.4992 -0.1555
94216W        W37129  10.694  24.407   6.145  0.0372  0.0712  0.1560
94217W        W37130  16.192  29.950  20.373 -0.1492 -0.2865  0.1221
94218W        W37131  10.316  23.996   5.309  0.0937 -0.3100 -0.0656
94219W        W37132   4.691  29.850   3.987  0.0923  0.2212 -0.0258
94220W        W37133  12.990  20.506  28.927 -0.0195 -0.1865 -0.1437
94221W        W37134  22.833  18.204  28.470 -0.0752 -0.0443  0.2322
94222W        W37135  25.606  24.039   3.377 -0.0720  0.1447  0.1408
94223W        W37136  20.955  11.953  29.351 -0.1622  0.1090 -0.3227
94224W        W37137  12.797  15.636   3.513 -0.0468  0.1065 -0.3174
94225W        W37138  12.120  14.662   6.794 -0.0565  0.1968 -0.2296
94226W        W37139   5.422  18.828   9.335  0.0455  0.4641  0.0761
94227W        W37140  23.038  21.022   3.635 -0.1019  0.1959 -0.1404
94228W        W37141   5.915  11.433  28.918  0.4482  0.0892  0.1830
94229W        W37142  14.809  23.682   6.891 -0.2128 -0.2333 -0.0039
94230W        W37143  14.914  20.823  27.065  0.0188  0.1094 -0.1412
94231W        W37144  21.293  27.522   2.368 -0.2162  0.5222 -0.1215
94232W        W37145  17.285  24.798  29.227 -0.1015  0.2189  0.1064
94233W        W37146  16.729  20.873   1.963  0.2647 -0.0840 -0.2974
94234W        W37147   2.854   3.023   1.823 -0.1489  0.0494 -0.2057
94235W        W37148   6.722  26.557  27.659 -0.2699  0.1780 -0.2012
94236W        W37149  16.299  26.516   4.066 -0.0073 -0.1331 -0.3758
94237W        W37150  10.171  31.370   3.051  0.1019  0.0415 -0.0923
94238W        W37151   6.225  23.286   5.887  0.5105  0.1172  0.1369
94239W        W37152  13.848  24.757   3.839  0.0081  0.1944  0.1464
94240W        W37153  15.056  14.388   3.047 -0.0179  0.3559  0.0396
94241W        W37154  19.475  22.834   1.358 -0.0806  0.1793 -0.0975
94242W        W37155  16.017  27.936   3.916  0.0318  0.0855  0.2286
94243W        W37156  16.057  16.365   4.204 -0.5465  0.2760 -0.2956
94244W        W37157  10.108  14.877   1.329 -0.2792 -0.1764  0.0993
94245W        W37158   3.895  20.961   5.657 -0.3027  0.4438 -0.1446
94246W        W37159   6.317  30.595  26.732  0.0998  0.2489 -0.0753
94247W        W37160  18.131  16.169   2.696 -0.0081  0.3552  0.3267
94248W        W37161  33.144  16.495   6.516 -0.1289  0.1681 -0.1553
94249W        W37162  11.958  14.902   1.922  0.0764 -0.0201 -0.1466
94250W        W37163   9.937  20.597  26.865 -0.1167 -0.4781  0.2572
94251W        W37164  19.593  20.686   7.796 -0.2885 -0.0028 -0.0686
94252W        W37165  33.056  18.409  29.103 -0.1706  0.4669  0.1455
94253W        W37166  33.606  30.049   4.038 -0.0173 -0.1639  0.2063
94254W        W37167   0.773  17.886   8.532 -0.1289  0.0257 -0.1450
94255W        W37168   8.739  26.458   3.008  0.2205  0.3158 -0.3295
94256W        W37169  21.301  31.072   0.000  0.2292  0.1941 -0.0678
94257W        W37170   8.852  29.980  26.941 -0.2168 -0.1453 -0.2193
94258W        W37171  13.768  29.866  26.292  0.1853  0.1331  0.1030
94259W        W37172   8.567  30.694  19.812 -0.0678 -0.1502 -0.1477
94260W        W37173   3.081  24.154   2.785  0.0563 -0.3874 -0.1088
94261W        W37174   6.292  18.949   3.911  0.1107  0.0374 -0.0114
94262W        W37175  14.885  27.569  11.003 -0.0844  0.0973 -0.0862
94263W        W37176   5.862  26.529  24.480 -0.2376  0.1045 -0.2071
94264W        W37177  16.264  20.918   0.686 -0.1612  0.1480 -0.1016
94265W        W37178  12.816  27.802   9.119 -0.4043  0.0358 -0.1512
94266W        W37179  10.219  30.383   8.753 -0.0871  0.2230 -0.3700
94267W        W37180  17.602  25.423   6.626 -0.3240 -0.0627  0.1006
94268W        W37181  13.626  29.212   3.581  0.1144 -0.0547 -0.3626
94269W        W37182   5.358  24.018   8.171  0.0001 -0.0541 -0.2248
94270W        W37183  16.719  23.203   4.505 -0.1853  0.1586 -0.1322
94271W        W37184  29.028  24.039   5.116 -0.1811  0.0537 -0.4590
94272W        W37185  14.942  12.978   2.041 -0.2919 -0.0844 -0.1765
94273W        W37186  11.283  27.829   0.791  0.1709 -0.0982 -0.0668
94274W        W37187  16.899  22.265   1.739  0.1808 -0.1527 -0.1068
94275W        W37188   6.855  22.214   5.615  0.2314 -0.1269 -0.0402
94276W        W37189   5.191  28.853   6.101 -0.4064 -0.0456  0.0685
94277W        W37190  11.439  22.928  28.856 -0.0722 -0.0800 -0.1396
94278W        W37191  13.214  20.863  25.014 -0.2545  0.0983  0.3489
94279W        W37192   9.356  13.389   5.590  0.2646  0.2989 -0.0315
94280W        W37193  28.753  33.076   1.849  0.0048 -0.1629 -0.1302
94281W        W37194   5.650  29.139  10.580 -0.1960  0.0939 -0.2514
94282W        W37195  28.603  23.888   7.818 -0.1837 -0.0609 -0.1262
94283W        W37196   9.327  25.904   1.385 -0.0824  0.1303 -0.1085
94284W        W37197  11.378  25.390  29.200 -0.4139 -0.1142 -0.1823
94285W        W37198   1.355  18.714   7.364  0.0482  0.0771 -0.0321
94286W        W37199  10.330   0.868   6.812 -0.0810 -0.3906  0.0312
94287W        W37200   3.554  17.917  10.256 -0.3038 -0.4002 -0.3198
94288W        W37201   7.507  19.037  25.604 -0.1787  0.0376 -0.2440
94289W        W37202  29.371  22.457   6.318 -0.0552  0.0645  0.0560
94290W        W37203   2.006  25.020  26.721 -0.2624  0.0256 -0.5148
94291W        W37204   4.573  32.869   7.014  0.0021  0.1909 -0.3946
94292W        W37205  17.960  26.672   0.439 -0.2646 -0.1441  0.3308
94293W        W37206  13.359  28.606   7.845  0.1150 -0.2215  0.1911
94294W        W37207  13.894  26.040   3.144  0.0655  0.1459  0.1352
94295W        W37208   5.532  20.118  28.019 -0.3223 -0.0300 -0.0925
94296W        W37209  26.829  22.533   3.753  0.0915 -0.4062  0.2327
94297W        W37210   6.780  25.934   0.314 -0.3561  0.1589 -0.1412
94298W        W37211  19.939  23.329   6.781 -0.3355 -0.0853 -0.1346
94299W        W37212  21.110  12.612   4.384  0.0458  0.3118  0.3736
94300W        W37213  10.877  19.386   4.302  0.1486 -0.2304  0.0332
94301W        W37214   5.102  29.551  16.883 -0.0987  0.2401  0.1821
94302W        W37215  13.971   0.797  25.087  0.1418  0.0857 -0.0855
94303W        W37216  15.592  18.452  14.648 -0.0607  0.2963  0.1587
94304W        W37217  18.577  22.037   1.651 -0.1991 -0.1605  0.0029
94305W        W37218  18.031  24.858   6.573 -0.1638 -0.0236 -0.1901
94306W        W37219   8.113  25.487  23.556 -0.0461  0.2539 -0.2118
94307W        W37220  21.748  29.352   2.045 -0.1516 -0.0107  0.1144
94308W        W37221  11.742  26.151   6.887  0.1104 -0.1070 -0.3218
94309W        W37222  24.094   1.794   4.119 -0.0212 -0.2332 -0.0491
94310W        W37223   8.044   8.224  28.306  0.1498  0.2850 -0.2049
94311W        W37224   8.117  24.334   3.178 -0.2962  0.2895  0.0835
94312W        W37225  14.069  22.442   8.858 -0.1325 -0.5223  0.2447
94313W        W37226  14.908  20.100   1.388  0.1456  0.1671 -0.1359
94314W        W37227  10.002  20.005  24.132  0.2107 -0.0180  0.4882
94315W        W37228  16.526  17.715  29.538 -0.1776 -0.0978 -0.0576
94316W        W37229   2.541  29.728   3.580 -0.0216  0.2923 -0.0148
94317W        W37230  10.347  27.684   3.833  0.1751  0.0432  0.0757
94318W        W37231  15.254  23.825  23.724  0.0459 -0.2398  0.2916
94319W        W37232  13.219  22.317  19.230  0.0454 -0.0170  0.1758
94320W        W37233  15.268  21.477   5.260  0.2009  0.0601  0.1354
94321W        W37234  16.570  18.376   3.953 -0.1742 -0.1707 -0.0025
94322W        W37235  14.464  26.450   6.857 -0.4455 -0.0444  0.2295
94323W        W37236  11.011  21.325   8.574 -0.0578  0.0209  0.1526
94324W        W37237  21.439  26.929  27.739  0.0448  0.3544 -0.1489
94325W        W37238   3.770  27.044   6.821  0.3712 -0.0583 -0.1583
94326W        W37239  12.635  25.736   9.286  0.2254 -0.1326 -0.0593
94327W        W37240  14.244  26.246  28.545  0.0223  0.0286 -0.0947
94328W        W37241  14.079   8.797   5.770  0.4072  0.0705 -0.1856
94329W        W37242  15.738  15.070  24.283  0.2352  0.1870 -0.0491
94330W        W37243  16.586  25.706   7.656 -0.0153 -0.4496  0.0229
94331W        W37244   7.461  27.954   3.933  0.0207 -0.2647 -0.2247
94332W        W37245  11.351  31.180   6.424  0.1212 -0.0004  0.0553
94333W        W37246  28.159  19.947   6.972  0.1222 -0.0699 -0.3156
94334W        W37247  20.890  18.940  20.788 -0.1049  0.0796 -0.0448
94335W        W37248   8.426   2.352   8.669  0.1921  0.3014 -0.2194
94336W        W37249  19.508  20.692  17.515 -0.0825 -0.0242 -0.1309
94337W        W37250  18.353  31.633   9.505 -0.1753 -0.0787  0.3521
94338W        W37251  10.411  14.629   1.794 -0.2480 -0.0829 -0.4977
94339W        W37252  15.182  26.968  27.725  0.0707 -0.3186  0.0309
94340W        W37253  14.251  25.982  26.796 -0.2366  0.0376 -0.1338
94341W        W37254  19.509  27.164   3.693 -0.0212 -0.0147 -0.1212
94342W        W37255  19.106  17.017  22.145  0.3074  0.0407  0.1009
94343W        W37256   7.270  10.136  29.742  0.0050  0.2951 -0.3022
94344W        W37257  11.256  28.590   6.235 -0.0208  0.0397  0.1073
94345W        W37258   3.203   1.757  28.661  0.0338 -0.2166 -0.2392
94346W        W37259  27.218  28.444   8.458 -0.0595 -0.3644 -0.2796
94347W        W37260  33.465  16.632  26.715  0.0772  0.0615 -0.1537
94348W        W37261  21.304  22.438  27.175  0.0623 -0.0255  0.0757
94349W        W37262  10.954  31.229   3.420 -0.2034 -0.1105  0.0469
94350W        W37263   8.319  26.760  29.207  0.2869 -0.1194 -0.1331
94351W        W37264   6.069  28.262   7.209 -0.1143 -0.2066  0.0435
94352W        W37265  12.610  23.825  29.624  0.1040 -0.4046  0.1091
94353W        W37266   9.611  30.532   6.160  0.2210  0.2580  0.0265
94354W        W37267  10.957  15.437   7.015 -0.3239 -0.2923 -0.0257
94355W        W37268  19.154  18.616   1.508  0.1819 -0.1322  0.1934
94356W        W37269  16.651  21.666   4.401 -0.0073 -0.3455 -0.2187
94357W        W37270  17.455  25.683   9.138 -0.0037 -0.0288  0.1934
94358W        W37271   4.515  18.153   5.198 -0.2158  0.1002  0.0758
94359W        W37272  19.768  25.976  19.336  0.0413  0.1814 -0.1929
94360W        W37273  12.931  17.802   2.353  0.2087  0.0474  0.0056
94361W        W37274   5.742  28.784  11.667 -0.1546 -0.1152  0.1809
94362W        W37275  12.666  23.658   8.392 -0.1334  0.0571 -0.0723
94363W        W37276   7.770  31.434  19.207  0.1732  0.1070  0.0315
94364W        W37277  16.546  25.971   9.719 -0.3071  0.2220 -0.0022
94365W        W37278  25.859  23.261  23.684 -0.1856 -0.0946  0.0542
94366W        W37279   9.787  28.584   5.302  0.0690  0.2323 -0.3557
94367W        W37280   6.676  29.320   2.371  0.0828 -0.1435  0.1481
94368W        W37281  18.797  32.956  25.084  0.1222  0.0519  0.1770
94369W        W37282  14.314  28.049   6.560 -0.0187 -0.0353 -0.0789
94370W        W37283  15.593  24.237   2.549 -0.0950 -0.1426  0.1650
94371W        W37284   8.925  24.978  27.997 -0.1694 -0.3816  0.1529
94372W        W37285  16.757  24.397   4.676  0.0251 -0.2615  0.0444
94373W        W37286  12.108  21.950   7.593  0.0798  0.0028  0.3085
94374W        W37287   6.332  23.469   1.475 -0.0111  0.1465 -0.0796
94375W        W37288   1.490  23.326   6.843  0.6044 -0.0853  0.2014
94376W        W37289  10.541  20.404  28.145  0.3685  0.2598  0.2244
94377W        W37290  11.157  15.668   2.917 -0.0170  0.1093 -0.1294
94378W        W37291  15.519  18.525   4.694 -0.0682  0.1246  0.2372
94379W        W37292  14.517  28.471   8.276 -0.0570  0.2945  0.1581
94380W        W37293  12.340  21.796  20.530 -0.0088  0.1435  0.0263
94381W        W37294   7.799  24.295   9.310  0.2227  0.0850 -0.1956
94382W        W37295   8.093  25.939   3.474 -0.1473  0.2540 -0.1311
94383W        W37296   1.623  23.397   9.292 -0.2651  0.0583 -0.2454
94384W        W37297  29.783  28.831   7.661  0.4575  0.1392 -0.3364
94385W        W37298  16.531  21.397   8.244 -0.1538 -0.4655 -0.0791
94386W        W37299  21.930  15.295   6.183  0.1803  0.1201 -0.3629
94387W        W37300   7.099  31.017   5.421  0.0064  0.1380  0.2334
94388W        W37301  12.467  32.454   0.881  0.0366 -0.0574  0.1785
94389W        W37302  10.003  23.823  26.139  0.2314 -0.0383 -0.1148
94390W        W37303  15.796  28.721   4.594  0.3196  0.0676  0.2403
94391W        W37304   9.176  30.605   5.491 -0.1232  0.2872 -0.1560
94392W        W37305  11.354  26.356   7.047  0.5761 -0.0512  0.1371
94393W        W37306  10.969  24.769   3.948 -0.1052 -0.0813 -0.0981
94394W        W37307  16.658  19.910   7.265 -0.0545 -0.3396  0.3252
94395W        W37308  14.569   4.620  29.702 -0.2232  0.2457 -0.3770
94396W        W37309   1.462  30.237   3.180  0.0880 -0.0900 -0.1460
94397W        W37310  18.704  22.736   3.404  0.0804  0.0453  0.3172
94398W        W37311  14.455  17.165  27.399  0.2754  0.1129 -0.1235
94399W        W37312  11.864  20.967   2.941  0.0449  0.3093  0.1451
94400W        W37313   3.517  25.040   7.973  0.0625 -0.5422  0.1089
94401W        W37314   9.202  30.255   4.493 -0.1812 -0.0832  0.0332
94402W        W37315   2.866  22.341   3.495  0.1458 -0.2568  0.2773
94403W        W37316  15.271   1.981   9.117 -0.1032  0.1690  0.0636
94404W        W37317   8.112  27.421   5.643 -0.1238  0.2770 -0.2810
94405W        W37318  24.404  31.218   0.318 -0.3210 -0.0946 -0.0665
94406W        W37319  12.962  20.766   3.277 -0.1883  0.0643 -0.0670
94407W        W37320  10.146  30.544   7.737  0.1304 -0.3060 -0.1982
94408W        W37321   2.478  27.930   7.827 -0.2341 -0.0313 -0.0081
94409W        W37322  19.152  24.963   3.597  0.0181 -0.2827 -0.1219
94410W        W37323  32.793  25.925   6.862 -0.4084 -0.1067 -0.1633
94411W        W37324  12.960   0.205   4.540 -0.2518 -0.1290  0.2540
94412W        W37325  25.693  21.006   2.589  0.2521 -0.4344 -0.0399
94413W        W37326   7.332  31.381  27.231 -0.0604 -0.1079 -0.0700
94414W        W37327   5.906  20.351   4.601 -0.0417  0.3731 -0.1727
94415W        W37328  14.317  26.875   4.656  0.1958  0.0273 -0.1478
94416W        W37329   7.477  26.160  27.173  0.0347 -0.2921 -0.1341
94417W        W37330  12.160   1.317   2.936 -0.1587 -0.0990  0.0396
94418W        W37331   5.253  27.008   0.248 -0.0850 -0.0005  0.0568
94419W        W37332   7.137   6.046   4.332 -0.0400  0.0463 -0.1022
94420W        W37333   6.341  30.329   3.427  0.2641  0.0366 -0.0700
94421W        W37334   6.924  20.677  27.886  0.1787  0.1031  0.2603
94422W        W37335  21.350  32.073  10.197 -0.1529  0.1249  0.3588
94423W        W37336   9.747  28.138   5.013 -0.1234 -0.0229 -0.1214
94424W        W37337   1.530  27.244  27.406  0.2084 -0.0734 -0.2362
94425W        W37338  17.653  24.085   4.476  0.0371 -0.1902  0.0835
94426W        W37339   8.206  17.656   9.331 -0.2166 -0.5476 -0.1167
94427W        W37340  18.475  22.271   3.476 -0.2506  0.1434  0.0757
94428W        W37341  18.213  13.153   5.392 -0.1980  0.1615 -0.1354
94429W        W37342   5.464  25.611   2.227 -0.5241  0.1155 -0.0566
94430W        W37343  13.847  19.467   1.484  0.1525  0.0058  0.1242
94431W        W37344  11.773  28.118   7.191  0.0958 -0.1433 -0.1456
94432W        W37345  15.436  18.805   5.461 -0.1267  0.0926  0.0821
94433W        W37346   9.980  20.374   9.688 -0.4792  0.1039 -0.1040
94434W        W37347  11.978  17.851   6.355 -0.2081  0.2868 -0.2243
94435W        W37348   1.197   0.617   1.618  0.4009  0.0696  0.4248
94436W        W37349  14.915  25.600   6.808 -0.0335 -0.1956 -0.0471
94437W        W37350   9.997  15.880   9.401 -0.2069  0.0208  0.1533
94438W        W37351  22.742  27.287   4.386  0.4039 -0.3218  0.0750
94439W        W37352  10.701  25.772   9.940  0.1293  0.1444 -0.1957
94440W        W37353   5.968  24.914   7.668 -0.1540 -0.0383 -0.3270
94441W        W37354  23.792  28.544   1.072  0.0202  0.0362 -0.1066
94442W        W37355  14.128  24.676   2.404  0.1568  0.2372  0.0775
94443W        W37356  15.106  33.841   6.363  0.0014 -0.0952  0.1380
94444W        W37357  10.976  28.165   9.361  0.0350 -0.2425  0.3249
94445W        W37358  12.696  28.861   8.858 -0.2261  0.1135 -0.1181
94446W        W37359   6.356  20.516   8.931 -0.0097  0.1038  0.0665
94447W        W37360  17.458  19.925   5.836  0.0818 -0.0644  0.0697
94448W        W37361  11.669  26.356  29.497  0.0557 -0.3588 -0.2330
94449W        W37362  16.291  33.874   8.091 -0.5441  0.2318 -0.1008
94450W        W37363   8.556  21.920   6.593  0.1026 -0.3444  0.1089
94451W        W37364  17.548  33.022   1.083  0.0054 -0.1272  0.1529
94452W        W37365  17.031  32.447   3.010 -0.0471  0.2093  0.1778
94453W        W37366  14.977  18.209   5.985  0.0762 -0.1021 -0.0850
94454W        W37367  11.398  16.964  28.426  0.0439  0.4001 -0.2770
94455W        W37368  15.500  19.881   0.060  0.3431  0.0881  0.1428
94456W        W37369  13.960  19.273  27.794  0.0070  0.1379  0.2047
94457W        W37370   8.984  27.517  29.388 -0.1496 -0.2554  0.0747
94458W        W37371  22.509  33.979   4.459 -0.1867 -0.0985 -0.0244
94459W        W37372  11.098  32.957  28.466  0.0003 -0.2770  0.0641
94460W        W37373   2.006  33.533   5.250 -0.0324 -0.4067  0.1309
94461W        W37374   5.719  27.410   7.771  0.1072  0.3631  0.2612
94462W        W37375  14.595  34.090   4.663 -0.1010  0.2408 -0.0419
94463W        W37376   5.813  34.183   8.257  0.1738 -0.3854 -0.0003
94464W        W37377  17.186  18.076   6.710  0.0133  0.0075 -0.0183
94465W        W37378  10.390  30.254  11.118  0.1575 -0.2979  0.0320
94466W        W37379  14.869  21.526  25.561  0.2909 -0.2962 -0.2516
94467W        W37380  19.418  30.389   8.419 -0.0536 -0.1001  0.0289
94468W        W37381  13.667  17.752   8.112 -0.2552 -0.1537 -0.0383
94469W        W37382  33.920  31.476  10.400  0.4534  0.4125  0.3997
94470W        W37383   3.422  17.863  26.830  0.1168 -0.1620  0.1525
94471W        W37384   5.536  26.183   3.298 -0.0349 -0.2623 -0.1587
94472W        W37385  19.646  28.119   8.884 -0.0222  0.3878  0.0429
94473W        W37386  14.377  16.340   4.092  0.1195  0.0303  0.3677
94474W        W37387   4.485  23.205   3.348  0.4304 -0.0908 -0.1093
94475W        W37388  16.169  17.390   6.025 -0.3436  0.1386  0.0199
94476W        W37389  14.021  29.299   3.911 -0.0947  0.0518  0.0522
94477W        W37390   7.683  26.242  28.786 -0.1372  0.2306 -0.0087
94478W        W37391  21.397  28.855   7.321 -0.2870  0.3059  0.3498
94479W        W37392  14.831  22.578   0.754  0.1387 -0.0699 -0.0340
94480W        W37393   1.633  25.448   7.653  0.0974  0.1725 -0.0775
94481W        W37394  19.623  11.674  29.308 -0.0162 -0.1307 -0.3621
94482W        W37395  19.543  23.229   2.972  0.0894  0.2261  0.1106
94483W        W37396  15.209  28.582   4.116 -0.0244  0.1482 -0.0104
94484W        W37397  10.867  19.389   7.148  0.0835  0.2530 -0.0750
94485W        W37398   6.916  18.889  25.585  0.5032  0.0819  0.1797
94486W        W37399  10.548  24.766   2.004  0.1230  0.0800  0.0546
94487W        W37400  14.492  22.835   4.751 -0.1610  0.1083 -0.0815
94488W        W37401   8.818  29.866  10.989 -0.0996  0.0002  0.0116
94489W        W37402   4.155  21.173  29.055  0.2653 -0.1001  0.2822
94490W        W37403  15.076  20.393   2.155  0.1698 -0.2442 -0.1277
94491W        W37404  16.011  29.024   4.989 -0.0434  0.2543  0.2348
94492W        W37405   5.462  31.286  29.513  0.3645  0.0615 -0.0255
94493W        W37406   3.687  22.531   5.395 -0.0447  0.1830 -0.0665
94494W        W37407  23.645  22.074   5.742  0.1127  0.0871 -0.0489
94495W        W37408   7.506  19.511   4.531  0.2824  0.1474 -0.2562
94496W        W37409  17.176  24.755   5.603 -0.3318 -0.2088 -0.1053
94497W        W37410  24.281  15.732   7.424 -0.1910  0.0971  0.1728
94498W        W37411   4.152  26.602   5.037  0.2684  0.1620  0.0186
94499W        W37412   8.385  22.120   9.130  0.1825 -0.2546 -0.1131
94500W        W37413  10.928  23.005   8.706  0.2807  0.0914  0.0273
94501W        W37414   7.811  22.990   4.414  0.0704  0.0372 -0.2904
94502W        W37415   7.853  21.182   1.951 -0.2448 -0.2741 -0.3262
94503W        W37416  16.203  20.918   2.117  0.2198  0.0721  0.1672
94504W        W37417  15.019  21.430   3.404  0.0735 -0.1096 -0.0680
94505W        W37418  16.423  22.452   0.097 -0.0631  0.2516  0.3523
94506W        W37419  10.151  28.679   8.638 -0.2702 -0.4622  0.2614
94507W        W37420   5.765  25.822   4.840 -0.2419  0.1095  0.2440
94508W        W37421   7.223   0.724   6.488 -0.1926  0.2301 -0.0194
94509W        W37422  10.384  19.152   9.168  0.1019  0.0224  0.0538
94510W        W37423   5.771  16.869   6.416 -0.1328  0.1219 -0.1272
94511W        W37424  15.375  26.520  10.004  0.2426 -0.1764  0.0151
94512W        W37425  19.108  25.188   2.365  0.0506 -0.1055  0.2311
94513W        W37426  11.241  33.504   9.240  0.3696 -0.1057  0.0079
94514W        W37427   8.316  21.468   3.746 -0.2600 -0.0909 -0.1469
94515W        W37428  13.855  27.844   9.132  0.0202 -0.1448 -0.1247
94516W        W37429  14.005  24.133  25.433  0.1713  0.1289 -0.1804
94517W        W37430  23.282  21.919  29.444 -0.2324  0.3101 -0.0211
94518W        W37431  20.529  30.526   6.397  0.0530  0.1582 -0.1136
94519W        W37432  19.914  24.398   7.197  0.1941 -0.2792  0.0157
94520W        W37433  16.859  19.659   4.794  0.2551  0.1427  0.1353
94521W        W37434  13.458  25.900   9.050 -0.0713 -0.1508 -0.1581
94522W        W37435  16.877  34.306   7.980  0.3183 -0.2075  0.1624
94523W        W37436  10.328  24.828   1.521  0.0364 -0.1023  0.1510
94524W        W37437  10.608  16.787   5.457  0.1996  0.0288  0.1637
94525W        W37438  10.293  30.624   0.171  0.3468  0.2914 -0.2000
94526W        W37439   8.795  31.158  20.083 -0.1404 -0.1220  0.4261
94527W        W37440   7.674  17.311   3.851 -0.0389 -0.0979  0.2156
94528W        W37441   4.673  27.328   7.031 -0.0678 -0.4683  0.0957
94529W        W37442  23.150  11.782   8.616 -0.0304  0.0224 -0.2858
94530W        W37443   7.092  27.314   6.383 -0.0642  0.0027  0.2270
94531W        W37444  18.861  24.662   7.935 -0.1834  0.2369 -0.0221
94532W        W37445   3.289  24.118   3.636 -0.0362 -0.0690 -0.1961
94533W        W37446   1.907  23.265   7.600  0.0805 -0.2486  0.0331
94534W        W37447  19.102  19.313   7.548 -0.0041 -0.2655  0.0767
94535W        W37448  12.097  25.341   8.021  0.3262 -0.4360 -0.1910
94536W        W37449   7.397  29.369   9.241 -0.1529 -0.2797 -0.1390
94537W        W37450  13.034  23.746   5.689  0.0452  0.2486  0.2384
94538W        W37451   9.148  25.972   6.183 -0.2802 -0.0348  0.1145
94539W        W37452  18.940  30.622   3.648  0.1052 -0.0813 -0.1929
94540W        W37453  31.812  23.716  27.995  0.1443  0.2095 -0.0001
94541W        W37454   8.809  31.951  22.573 -0.0007 -0.2694  0.1569
94542W        W37455  17.550  20.298  22.970 -0.1620  0.0946 -0.2090
94543W        W37456  14.621  28.317   7.538 -0.2347  0.1863  0.2138
94544W        W37457   4.901  25.912   4.836 -0.1014 -0.2177 -0.1319
94545W        W37458  17.906  27.174   6.154  0.1122  0.0891  0.0568
94546W        W37459  19.004  28.440   5.531  0.0534 -0.0886  0.2960
94547W        W37460  16.829   5.621   2.377  0.2021  0.0902  0.1087
94548W        W37461   9.078  22.955   1.689 -0.3694  0.0414  0.0900
94549W        W37462  15.491  23.501   8.618  0.0958  0.2347  0.0805
94550W        W37463   8.797   1.046   9.096  0.1974 -0.0022  0.1816
94551W        W37464  18.179  14.205   7.384 -0.3434  0.2342  0.0441
94552W        W37465  11.145  31.755  29.303 -0.2100 -0.2851  0.0405
94553W        W37466  14.379  29.019   5.577  0.0259  0.1383 -0.2318
94554W        W37467   5.793  20.562   3.408 -0.1123 -0.1292 -0.0505
94555W        W37468  10.667  24.199   8.947  0.1719  0.0343  0.1268
94556W        W37469   2.407  27.619   2.665  0.0081 -0.0824 -0.0560
94557W        W37470  13.755  23.711   7.999  0.2049  0.0075 -0.1863
94558W        W37471  25.403  26.114   5.076  0.0080  0.2366 -0.0132
94559W        W37472  14.614  14.411  17.240 -0.1400 -0.0310 -0.1804
94560W        W37473  10.918  18.558   4.152 -0.3471  0.0312 -0.0029
94561W        W37474  13.967  15.455   9.076  0.4379  0.0112 -0.2320
94562W        W37475  15.433  24.412   6.657 -0.0264  0.1761  0.1479
94563W        W37476  13.747  22.443  28.155 -0.1834  0.2099  0.0998
94564W        W37477  14.129  12.882   1.757 -0.1622  0.1173 -0.2096
94565W        W37478  24.416  18.930  22.595  0.2089  0.1068  0.3227
94566W        W37479  11.960  22.644  20.985 -0.0204 -0.0377 -0.0824
94567W        W37480  15.744  30.866  20.315 -0.3778 -0.1369  0.4742
94568W        W37481   9.288  22.079   5.379  0.0799 -0.0597  0.1028
94569W        W37482   7.201   2.553   0.468 -0.0013 -0.1109 -0.0980
94570W        W37483   9.166  26.937   4.281  0.1417 -0.2601  0.0427
94571W        W37484   7.673  22.319   4.936  0.0743  0.0022  0.1911
94572W        W37485  10.182  20.171   3.991 -0.1282  0.2631 -0.1988
94573W        W37486  16.188  25.566   9.551 -0.0159  0.2539  0.1712
94574W        W37487  13.655  33.256   0.277  0.1386 -0.1975 -0.0567
94575W        W37488  18.514  19.253   1.194 -0.1544 -0.2698 -0.1611
94576W        W37489   1.155  24.710   7.411 -0.2483 -0.0308 -0.0780
94577W        W37490   9.960  29.289   6.092  0.2242 -0.0185  0.0230
94578W        W37491  12.617  33.182   5.676  0.0928 -0.1639  0.3662
94579W        W37492  33.218   1.555   9.277 -0.0405 -0.2256  0.0488
94580W        W37493   3.493  17.498   4.631  0.5194  0.2136 -0.1031
94581W        W37494  25.777  25.360   8.654 -0.0404  0.1128  0.0631
94582W        W37495  18.270  26.823   8.774  0.3206  0.2636  0.1711
94583W        W37496  12.685  17.776  21.929 -0.1121 -0.1459  0.0755
94584W        W37497  10.995  31.025   1.523  0.0360 -0.0503 -0.2474
94585W        W37498  14.462  27.085   8.871  0.2550  0.1329  0.1997
94586W        W37499  16.317  28.082   6.302 -0.0940  0.0006  0.1014
94587W        W37500   6.068  32.143   6.007 -0.0166  0.2028 -0.1083
94588W        W37501  23.481  11.435   4.319 -0.2636 -0.0832  0.0556
94589W        W37502   6.819  31.666   6.203  0.1521  0.0651 -0.3688
94590W        W37503  23.579  25.913   2.726 -0.0141 -0.1503 -0.2134
94591W        W37504  18.778  17.019   1.906 -0.1782 -0.2837  0.0166
94592W        W37505   9.867  24.399   0.383 -0.3141  0.5271  0.0403
94593W        W37506   8.716  24.310  29.508 -0.2017 -0.3348 -0.1509
94594W        W37507   7.476  30.672   1.986  0.1127 -0.0202  0.1320
94595W        W37508  15.666  23.915   8.341 -0.3064  0.1595  0.0163
94596W        W37509  18.032  28.494   8.636  0.1139 -0.3103 -0.0841
94597W        W37510  17.694  19.689  27.411  0.2515  0.3194  0.1009
94598W        W37511  15.667  24.298   8.679 -0.0968 -0.0401  0.0734
94599W        W37512   3.114  31.252   6.803 -0.3796 -0.1144 -0.0900
94600W        W37513  18.365  19.264   7.220  0.1923  0.0059 -0.2127
94601W        W37514  27.157  33.675   7.698 -0.0405 -0.1364 -0.1126
94602W        W37515  20.299  16.979   3.635 -0.0045  0.1160 -0.1398
94603W        W37516  17.220  20.237   2.066 -0.1996  0.1256 -0.1029
94604W        W37517   7.370  28.047  27.911 -0.0439 -0.2058  0.0210
94605W        W37518  15.431  24.699   7.071  0.0733 -0.1808  0.0077
94606W        W37519  11.743  30.871   6.678 -0.0134  0.1722 -0.1804
94607W        W37520  15.353   7.565   8.297  0.1053 -0.0240 -0.2487
94608W        W37521  17.601  16.242   2.859 -0.1411  0.0313  0.0283
94609W        W37522   4.209  25.791   0.972 -0.1415 -0.0961 -0.0781
94610W        W37523  17.680  24.781   5.764 -0.1055  0.1138 -0.1528
94611W        W37524  10.069  18.137  28.239 -0.1497  0.2639  0.1087
94612W        W37525   2.829  24.065   5.561  0.1113  0.2496  0.0836
94613W        W37526  21.693  28.721   1.279 -0.0688 -0.1362 -0.0221
94614W        W37527  11.446  29.733   6.274  0.1090 -0.2394  0.1330
94615W        W37528   2.350  26.359   5.354  0.0412 -0.0510 -0.0239
94616W        W37529  17.105  17.270   7.934  0.1118  0.0297 -0.0725
94617W        W37530  16.323  20.336  28.484  0.2538 -0.1240  0.1223
94618W        W37531   9.479  16.644   4.069 -0.2663  0.1180 -0.1650
94619W        W37532  33.808  21.248   9.645 -0.1664  0.2919  0.2243
94620W        W37533   9.982  29.254  11.417 -0.2150 -0.1824  0.1230
94621W        W37534  14.843  20.079   3.324 -0.0321  0.3127  0.0911
94622W        W37535  32.310  31.290   7.223  0.0999 -0.1891 -0.0041
94623W        W37536  14.613  22.595   4.268 -0.0146 -0.5015  0.1032
94624W        W37537  24.497  33.536   8.738 -0.2601  0.0512 -0.2019
94625W        W37538  22.448  32.499   3.145 -0.0816 -0.0637 -0.1959
94626W        W37539   7.875  23.537   8.939 -0.1188 -0.0181  0.3698
94627W        W37540  12.645  24.502   2.506 -0.1165  0.1884  0.0076
94628W        W37541   8.825  21.715   5.544 -0.1445  0.1027  0.3095
94629W        W37542  19.430  22.719   3.266  0.1388  0.0328  0.0082
94630W        W37543  20.489  32.661   9.330  0.1111 -0.1520 -0.3754
94631W        W37544  14.757  32.630   6.867  0.1493 -0.0026  0.1692
94632W        W37545  10.332  31.626   1.973  0.1561  0.2068 -0.2838
94633W        W37546  16.527  13.190   5.637  0.0616  0.0734  0.4249
94634W        W37547  18.709  14.179   3.990  0.0281 -0.3384 -0.0314
94635W        W37548   7.466  21.058  28.660  0.0823  0.1146 -0.1232
94636W        W37549   6.865  22.239   1.421  0.2761 -0.2408  0.2204
94637W        W37550  11.478  23.614  27.308  0.1113  0.1123  0.2188
94638W        W37551  14.984  30.455   6.078 -0.2181 -0.3717  0.3090
94639W        W37552  14.461  25.333   4.383  0.0898  0.1055  0.0237
94640W        W37553  12.868  21.339   3.110 -0.0552 -0.0828 -0.2259
94641W        W37554  17.836  22.668  20.115 -0.0544  0.2068  0.0288
94642W        W37555  17.593  23.429   4.377 -0.1692  0.0270 -0.0126
94643W        W37556  21.444  34.092  10.135 -0.1340 -0.0580 -0.1450
94644W        W37557  14.215   1.281  11.421 -0.0587  0.0886 -0.2838
94645W        W37558  14.532  23.991   9.049 -0.1778 -0.2013  0.1002
94646W        W37559  20.207  14.915  24.143 -0.0379  0.2984  0.0237
94647W        W37560   1.002  30.868   5.472 -0.0904  0.2436 -0.2038
94648W        W37561  10.906  18.843   8.975 -0.2888  0.1736 -0.1372
94649W        W37562  20.259  15.805   4.925 -0.1187 -0.0350  0.0376
94650W        W37563  12.450  30.499   6.597 -0.0488 -0.1384  0.2789
94651W        W37564  22.934   1.242   2.042  0.0754 -0.1584  0.2591
94652W        W37565  16.724  20.201   2.601 -0.0694  0.1607  0.2509
94653W        W37566   2.265  26.634   3.442 -0.1025  0.0955 -0.1610
94654W        W37567  11.773  22.106   8.709 -0.2382  0.1998 -0.1973
94655W        W37568  11.436  31.748   1.163 -0.0311 -0.0662 -0.2568
94656W        W37569  16.685  17.165   2.461 -0.2765  0.0388  0.0153
94657W        W37570  18.323  26.819   3.241  0.4100  0.2997  0.3668
94658W        W37571  14.720  25.424   7.313 -0.2572 -0.0041 -0.2892
94659W        W37572   3.714  28.044   3.369 -0.2001  0.1314  0.4201
94660W        W37573  33.973   0.676   4.855 -0.0295  0.1474 -0.2243
94661W        W37574  22.732  16.420   2.072  0.1344  0.0907 -0.5307
94662W        W37575  15.070  33.743  10.054  0.3272 -0.0840  0.1019
94663W        W37576   9.657  22.621  29.603 -0.0371 -0.1269 -0.0853
94664W        W37577  16.789  20.926  29.350 -0.1066 -0.2896 -0.2033
94665W        W37578  14.933  22.350  28.610  0.0433 -0.0874 -0.2097
94666W        W37579  15.362  14.999   6.665  0.2476  0.4346  0.0149
94667W        W37580  15.578  33.205   8.778 -0.1029  0.1090  0.2440
94668W        W37581  11.819  17.014   0.442 -0.4077  0.0950  0.2662
94669W        W37582   6.786  24.055   7.831  0.0546  0.0191  0.0428
94670W        W37583   9.739  30.457   0.284  0.0339  0.1857 -0.0941
94671W        W37584  10.528  27.405  28.156  0.0043  0.0330 -0.0208
94672W        W37585  15.124  19.776  23.480  0.0585  0.3358 -0.2567
94673W        W37586  13.590  24.386   4.566  0.0514 -0.1304  0.3028
94674W        W37587  22.083  29.145   8.082  0.0577 -0.1122  0.0139
94675W        W37588   4.780  20.334   8.851 -0.1250 -0.0068  0.0411
94676W        W37589  18.337  15.431  29.189 -0.0055  0.0553 -0.1827
94677W        W37590  25.905  15.738   2.497 -0.0813 -0.1597 -0.2419
94678W        W37591  18.007  17.064  25.718 -0.0832  0.0732 -0.1015
94679W        W37592  18.891  14.323   1.387 -0.0450 -0.1244  0.1092
94680W        W37593   8.725  28.893   4.351  0.0445 -0.2152 -0.2711
94681W        W37594   8.952  24.413   9.337  0.0825 -0.0730  0.0465
94682W        W37595  17.009  28.254  28.993 -0.1256  0.0299  0.1535
94683W        W37596  13.787  30.867  11.391 -0.2427 -0.1207  0.1624
94684W        W37597  23.357  20.904   6.105 -0.1413 -0.0210  0.2330
94685W        W37598  13.392  28.971  10.708  0.0179  0.2213  0.0944
94686W        W37599  15.929  19.811  26.483  0.1385 -0.0992 -0.0262
94687W        W37600  13.788  21.068   0.159 -0.1950  0.0704 -0.2075
94688W        W37601   9.091  30.703   3.111 -0.0558 -0.2513 -0.0364
94689W        W37602  16.221  29.721  10.471  0.0715 -0.4385  0.0132
94690W        W37603  16.457  15.918   8.500  0.1786  0.1776 -0.4312
94691W        W37604   7.232  26.859  26.043  0.0332 -0.0289 -0.4003
94692W        W37605   7.933  13.941   3.112 -0.1918  0.1185  0.1492
94693W        W37606  28.394   3.541   3.539 -0.3483  0.0218  0.0494
94694W        W37607  17.866  11.330  29.514 -0.0167 -0.0319 -0.2895
94695W        W37608   5.914  17.177   7.280  0.0807  0.3406 -0.0577
94696W        W37609  19.665  25.861   8.331 -0.2183 -0.5417  0.0586
94697W        W37610  14.643  26.546   8.530  0.1224  0.0559 -0.0100
94698W        W37611  17.571  29.844   5.014 -0.1272 -0.1405 -0.0738
94699W        W37612  16.616  22.726   6.747 -0.2571 -0.1837 -0.0117
94700W        W37613   8.370  24.945   8.342 -0.0822  0.2551  0.0727
94701W        W37614   8.937  26.296  10.520 -0.0472  0.3372 -0.0822
94702W        W37615  15.561  22.632   4.670 -0.2286 -0.0169  0.1269
94703W        W37616  11.677  20.925  17.594 -0.0588 -0.3602  0.0132
94704W        W37617  15.861  16.303  25.326  0.1396  0.1075 -0.1452
94705W        W37618  16.616  26.238   7.708 -0.1822 -0.1763  0.0585
94706W        W37619  11.749  27.923   1.750  0.0217  0.1268  0.2077
94707W        W37620  17.709  28.734   7.595 -0.0031  0.1470 -0.0809
94708W        W37621  19.315  34.286   8.235 -0.2614 -0.3255 -0.1330
94709W        W37622  15.816  14.627   8.503  0.1599  0.1896  0.0143
94710W        W37623   8.282  26.357  29.549  0.1772  0.0594  0.0916
94711W        W37624  12.720  22.696  25.221 -0.0932 -0.1776  0.0825
94712W        W37625   8.592   3.259   4.065 -0.3961 -0.0562  0.0376
94713W        W37626  12.120  25.323   8.546 -0.2924  0.0982  0.0638
94714W        W37627   2.602  16.526   5.488 -0.1700 -0.0056  0.2280
94715W        W37628  14.224  25.073   9.438  0.2319  0.1535  0.1814
94716W        W37629  11.548  27.578   8.916  0.1254 -0.1483 -0.1424
94717W        W37630  10.242  23.152   4.656  0.0668  0.1441 -0.0853
94718W        W37631   5.287  12.883  10.419  0.1008 -0.0058  0.1027
94719W        W37632   5.037  29.920   5.315  0.1696 -0.0766 -0.0510
94720W        W37633  15.611  19.968   6.061  0.0973 -0.2083  0.0462
94721W        W37634  16.579  23.598  19.501  0.0316  0.3409  0.3336
94722W        W37635  18.895  23.925   0.202 -0.0296 -0.1343  0.0250
94723W        W37636   8.668  26.577   9.337 -0.1325 -0.2063 -0.0921
94724W        W37637  10.322  20.178   7.673 -0.0777  0.2004  0.1184
94725W        W37638  12.835  25.651   5.475  0.0287  0.2057 -0.0177
94726W        W37639   8.540  26.004   3.193  0.1488 -0.4772 -0.1262
94727W        W37640  13.164  29.036   2.610 -0.1857 -0.1973 -0.0532
94728W        W37641  11.034  19.506   3.846 -0.2923  0.1871  0.0250
94729W        W37642   9.577  31.527  29.043 -0.0679  0.1317 -0.2435
94730W        W37643   8.580  26.648  10.326  0.1841 -0.1292 -0.2691
94731W        W37644   1.786   7.826   8.746 -0.0707  0.1249 -0.0404
94732W        W37645  19.793  24.930   3.138 -0.1423  0.0417 -0.0329
94733W        W37646   8.690  20.585   8.524  0.2105  0.1138 -0.4916
94734W        W37647   1.646  19.736   9.178 -0.3355 -0.0416 -0.1711
94735W        W37648  18.409  31.843   2.678 -0.1737 -0.0945 -0.2237
94736W        W37649  17.882  30.678   8.044  0.0739  0.1139 -0.1141
94737W        W37650  33.119  21.578   4.611 -0.1436 -0.0548 -0.3133
94738W        W37651  16.550  28.529   9.406 -0.0418 -0.1551 -0.1976
94739W        W37652  14.911  28.897  25.950  0.1020 -0.0746  0.1619
94740W        W37653  19.594  25.118   2.605 -0.2047  0.1567 -0.0167
94741W        W37654  14.628  24.753  29.034  0.2200  0.0300  0.0371
94742W        W37655  23.234  32.778   4.924 -0.0597  0.2357 -0.3060
94743W        W37656  30.429  32.198   1.366 -0.2085 -0.1638  0.3925
94744W        W37657  14.878  15.615  27.468  0.1511  0.1763  0.0041
94745W        W37658   8.360  14.533   2.280 -0.0552  0.3609 -0.2298
94746W        W37659   2.103  18.623  27.694 -0.2039  0.1106  0.2580
94747W        W37660  12.040  29.910   9.124  0.1625 -0.0712 -0.0615
94748W        W37661  21.910   1.764   8.764  0.1017  0.0565 -0.0439
94749W        W37662  16.874  22.370   7.667 -0.0184  0.1198  0.0721
94750W        W37663   9.672  22.901   6.530 -0.0889  0.0319  0.0193
94751W        W37664   6.016  21.570   1.891 -0.0886 -0.0767  0.4689
94752W        W37665   0.511  21.220   7.038  0.2115  0.1134 -0.1182
94753W        W37666   7.928  22.338   3.924  0.0996 -0.0012 -0.0242
94754W        W37667  12.913  25.514   7.096  0.0455  0.3786 -0.1719
94755W        W37668  18.366  15.794   1.764 -0.1213  0.1667  0.1692
94756W        W37669   7.436  20.612   0.677 -0.0140 -0.2105  0.1015
94757W        W37670   4.734  15.488  23.583 -0.2302 -0.0038 -0.1383
94758W        W37671  13.266  22.748   7.722  0.1937  0.0948 -0.1029
94759W        W37672  12.622  29.301   8.877 -0.4283  0.1518  0.2062
94760W        W37673  21.962  27.553   2.498  0.1233  0.3375  0.3169
94761W        W37674  15.481   6.982  27.860 -0.0939  0.2064 -0.1224
94762W        W37675   2.758  31.815  23.455  0.0483  0.4046 -0.0043
94763W        W37676  23.199  19.205  27.911 -0.2880 -0.1618  0.3447
94764W        W37677  17.490  25.747   8.631  0.0426 -0.1438 -0.4390
94765W        W37678  12.943   6.443   0.543  0.0412  0.1117  0.0754
94766W        W37679   7.682  26.301   3.215  0.1495 -0.1817 -0.0168
94767W        W37680   4.549  28.216   8.937 -0.1463 -0.2026 -0.0103
94768W        W37681   6.360  15.137  10.357  0.0363 -0.1414  0.2851
94769W        W37682   6.996  24.578   9.803 -0.0480 -0.1452 -0.0793
94770W        W37683  10.013  28.914  28.010 -0.1271  0.0590 -0.2410
94771W        W37684  12.052  25.731   5.002  0.0487  0.0090 -0.2072
94772W        W37685  21.990  21.867  28.306 -0.0233 -0.1378 -0.0329
94773W        W37686  13.242  23.075   2.311  0.4410  0.0451  0.4045
94774W        W37687   9.455  27.478  27.294  0.0587  0.0882 -0.1458
94775W        W37688  15.680  34.244   8.483 -0.0382  0.1049  0.3384
94776W        W37689   7.466  29.736   6.869 -0.1273  0.0042 -0.0604
94777W        W37690   7.282   0.634   9.480  0.0365 -0.1878  0.1678
94778W        W37691  10.617  25.531   8.704  0.1114  0.2290  0.0675
94779W        W37692   8.531  22.195   3.235  0.1359 -0.3685  0.0662
94780W        W37693   6.190  20.593  21.739  0.0859  0.0573 -0.0299
94781W        W37694  13.065  21.544  18.357 -0.2154 -0.0562  0.0774
94782W        W37695  18.097   1.203   8.279 -0.2713 -0.0248  0.2446
94783W        W37696  11.019  14.462   8.761  0.1809  0.2680 -0.0138
94784W        W37697   4.936  16.939   9.822  0.2673 -0.3483 -0.1000
94785W        W37698  10.786  27.991  12.230  0.2230 -0.3322  0.0889
94786W        W37699  16.238  17.594  23.322 -0.0974 -0.1957  0.4407
94787W        W37700  12.143  34.251  11.217 -0.3831 -0.0122 -0.0098
94788W        W37701  15.283   1.519   7.081 -0.0887 -0.0676 -0.1195
94789W        W37702  18.011  24.449   6.787  0.0883 -0.1767 -0.0600
94790W        W37703   9.364  21.291   8.467  0.0957  0.1677  0.2312
94791W        W37704  15.954  21.365   2.370  0.3825 -0.2674 -0.1710
94792W        W37705  12.580  29.780   2.149 -0.0885 -0.0673  0.0314
94793W        W37706  13.729  17.732  23.975  0.2289 -0.2573  0.1735
94794W        W37707   9.182  21.466   4.106 -0.0756 -0.1465 -0.0541
94795W        W37708  12.075  23.607   5.407 -0.1084 -0.3300  0.0439
94796W        W37709   8.560  10.150   4.573  0.1691 -0.0922 -0.0857
94797W        W37710  18.500  15.521  29.654 -0.0191 -0.0309 -0.1758
94798W        W37711  13.752   9.557   8.879  0.0187  0.0212  0.2318
94799W        W37712  19.936  16.567  24.281 -0.2061  0.0887  0.3186
94800W        W37713  16.368  15.414   8.374 -0.2036 -0.0427  0.0020
94801W        W37714  21.720  20.461   3.829 -0.0098  0.2548 -0.1117
94802W        W37715  16.419  21.939   5.631 -0.1974 -0.1270 -0.0754
94803W        W37716   5.670  31.325   5.785 -0.0703  0.0192  0.3855
94804W        W37717  12.406  33.642   9.450 -0.3265  0.0870  0.2096
94805W        W37718   9.571  12.753   8.914  0.1369 -0.1210 -0.0587
94806W        W37719  13.059  22.287   7.542 -0.0339  0.0631 -0.1242
94807W        W37720  12.159  30.690   6.974 -0.1660 -0.0754 -0.1476
94808W        W37721   8.645  32.754   9.755  0.1392  0.0450 -0.0752
94809W        W37722   1.010  19.083   7.460 -0.1809 -0.1745 -0.4916
94810W        W37723  18.851  28.738   3.013  0.1907 -0.0395  0.0449
94811W        W37724  11.415  25.449   4.236  0.0757 -0.2350  0.2055
94812W        W37725  13.767  24.648   8.159  0.3339  0.2631  0.1605
94813W        W37726  13.384  13.301   7.099  0.0335 -0.2024  0.0707
94814W        W37727  15.853  18.155  28.968  0.0139 -0.6200 -0.2195
94815W        W37728  16.608  11.809   0.257 -0.0989 -0.1653 -0.0673
94816W        W37729  15.645  14.872   4.787 -0.0657 -0.3380 -0.0153
94817W        W37730  24.351  24.476   5.540 -0.0260  0.0759 -0.0142
94818W        W37731   2.150  34.082   4.951 -0.2926 -0.0592 -0.0634
94819W        W37732  10.598  28.149   9.734 -0.1061 -0.1918 -0.2338
94820W        W37733  15.660  31.788   8.346  0.0049 -0.2374 -0.1566
94821W        W37734   6.125  26.027   9.631 -0.1161 -0.1060 -0.3611
94822W        W37735  12.732   1.811  29.295 -0.1175  0.1631  0.0962
94823W        W37736   3.041  26.523   2.759  0.2673 -0.0590 -0.0467
94824W        W37737  20.066  23.766   5.243  0.2743  0.2955 -0.3849
94825W        W37738  14.734  23.603  27.428  0.4382 -0.0797 -0.1266
94826W        W37739  16.434  30.611   9.416 -0.0812  0.0784 -0.2266
94827W        W37740  25.368  20.525   3.452 -0.0305  0.0878  0.0932
94828W        W37741  11.776  20.612   1.144  0.0067  0.2396  0.4051
94829W        W37742   4.999   3.589   2.521 -0.1507  0.0616 -0.0974
94830W        W37743   6.446  19.852  21.543 -0.1021  0.1166 -0.4416
94831W        W37744  14.597  18.153  28.766  0.0711  0.2665 -0.2247
94832W        W37745   9.665  24.977   6.007 -0.0698 -0.2065 -0.0091
94833W        W37746   7.849  33.384   1.468  0.0727 -0.2757 -0.3515
94834W        W37747  10.250  28.932   5.936 -0.0182 -0.1472  0.0621
94835W        W37748  11.176  33.660   4.129  0.0141 -0.3422 -0.0219
94836W        W37749   7.351  29.716   5.627 -0.2311  0.2198 -0.2843
94837W        W37750  34.292  23.822  27.489 -0.0134  0.1870  0.4010
94838W        W37751  12.196  23.284   9.869  0.1967 -0.2903  0.0368
94839W        W37752  14.147  20.669   5.195  0.3336  0.3133 -0.0301
94840W        W37753  17.048  31.674   8.831  0.1707  0.2466 -0.2374
94841W        W37754   6.714  24.659   3.553  0.0836  0.0648 -0.0763
94842W        W37755  15.082  12.930   7.905  0.0545  0.0469 -0.1317
94843W        W37756  21.015  22.535   1.972 -0.4322  0.0326 -0.0878
94844W        W37757  11.519  20.665   8.180  0.1394  0.0424 -0.0917
94845W        W37758  12.687   7.156   4.336 -0.0019 -0.3267  0.1228
94846W        W37759  22.182  29.088   7.391  0.1414  0.0391  0.3135
94847W        W37760   0.199  19.093   7.111 -0.2977  0.0565 -0.0330
94848W        W37761  11.166  28.923   8.332  0.1214  0.2994  0.5946
94849W        W37762   6.121   9.125   4.476  0.3281 -0.0296  0.3682
94850W        W37763   7.046  23.225   7.868  0.3104  0.1972  0.0854
94851W        W37764   6.669  22.312   0.856 -0.0829 -0.0632 -0.0337
94852W        W37765   8.023  34.410   5.605  0.2570 -0.0706  0.0466
94853W        W37766  10.237  25.111   6.757  0.0160  0.0932 -0.0619
94854W        W37767  30.201  28.730   5.782  0.1280  0.0402 -0.1190
94855W        W37768  16.348  22.930   4.680 -0.3970 -0.2776  0.1757
94856W        W37769   0.421  26.723   5.470  0.0714 -0.1053 -0.2568
94857W        W37770   9.087   8.684   5.860  0.1498 -0.0922 -0.2965
94858W        W37771  28.122  30.056   6.386  0.1151 -0.0660  0.0796
94859W        W37772   9.585  26.038   6.910  0.1964  0.1509  0.3613
94860W        W37773   8.466  26.201   3.660 -0.1553  0.3252  0.3276
94861W        W37774   4.106  33.242   6.491  0.1407 -0.0764  0.1043
94862W        W37775   2.179  24.168  10.709 -0.1559  0.1501  0.1158
94863W        W37776  17.463  33.056   7.106 -0.0285  0.0132 -0.0669
94864W        W37777  11.992  24.096   6.573  0.1340 -0.0072 -0.1450
94865W        W37778  13.678  30.328   7.954  0.1326  0.0656 -0.1520
94866W        W37779  17.469  17.484   2.163 -0.0251 -0.0351  0.3341
94867W        W37780  13.976  17.897  29.611  0.3551  0.0183 -0.2094
94868W        W37781  15.541  28.067   7.656  0.2133 -0.0836  0.0007
94869W        W37782   9.550  25.106   9.744  0.1186  0.2223 -0.0198
94870W        W37783   3.226  24.474   7.394 -0.0922 -0.0331  0.2328
94871W        W37784  11.038  27.596   4.097  0.2217 -0.3229  0.2872
94872W        W37785  16.866  19.869   6.731  0.2451  0.0913  0.1786
94873W        W37786  15.750  28.989   4.076  0.2003  0.0573  0.1255
94874W        W37787   3.843  32.075   1.127  0.0483  0.2903  0.2142
94875W        W37788   2.980  26.078   8.667 -0.2276 -0.2377 -0.1236
94876W        W37789  19.295  32.607   5.756  0.0479 -0.0673 -0.0088
94877W        W37790  11.239  29.096   7.118 -0.0910  0.2330  0.1089
94878W        W37791   1.566  29.237   5.063  0.0100  0.2574  0.2801
94879W        W37792  13.979  33.602  27.917 -0.0263 -0.1309 -0.4272
94880W        W37793  14.827  26.769   7.620 -0.3492  0.0901  0.1373
94881W        W37794   9.562  26.693   9.437 -0.0595 -0.1030  0.1428
94882W        W37795   8.322  28.317   6.214 -0.1624 -0.0293 -0.0294
94883W        W37796   6.703   0.832   6.581 -0.2296  0.0199 -0.2605
94884W        W37797  13.634  16.608   2.594  0.1127 -0.0197 -0.0511
94885W        W37798   9.677  24.654   7.447  0.0570  0.4782  0.1740
94886W        W37799   6.771  14.197   7.898  0.0047  0.2162  0.2774
94887W        W37800  13.754  18.221   0.172 -0.1274  0.0100  0.3157
94888W        W37801   7.363  22.501   1.519  0.1488 -0.0731  0.1039
94889W        W37802  12.710  25.046  28.289 -0.1360 -0.1675  0.0779
94890W        W37803  17.779  18.579   8.248  0.0534  0.0150  0.0793
94891W        W37804  13.824  26.238   7.738  0.1977  0.0232  0.1215
94892W        W37805  10.479  26.002   6.506  0.0827 -0.0358  0.0078
94893W        W37806  11.291  23.424   8.737  0.3851 -0.1530  0.1763
94894W        W37807  13.145  22.476   8.399 -0.0911  0.3329  0.0713
94895W        W37808  18.279  21.967   6.979  0.2687 -0.3276 -0.3263
94896W        W37809  12.498  28.368   7.959  0.0905  0.0662 -0.0060
94897W        W37810   9.607  22.917   7.640 -0.1341  0.2250 -0.1591
94898W        W37811  30.261  26.286   9.086 -0.1012  0.1111 -0.1082
94899W        W37812  19.281  24.338   7.817  0.0323 -0.0699 -0.1475
94900W        W37813  13.415  31.987   8.532 -0.2279 -0.1878  0.2421
94901W        W37814  12.471  32.960   1.908  0.0417  0.0483 -0.0800
94902W        W37815  17.385  33.932   7.504  0.0960 -0.1938 -0.0233
94903W        W37816   9.359  28.242   2.350 -0.0375 -0.5637  0.0049
94904W        W37817  10.123  27.710   6.157 -0.1502  0.0074 -0.1741
94905W        W37818  13.936  24.534   7.662 -0.1504 -0.1627 -0.1949
94906W        W37819  12.982  29.693  23.738 -0.1448  0.1323  0.2493
94907W        W37820  16.130  19.770   2.750 -0.0857 -0.1437  0.3383
94908W        W37821  12.397  22.910   4.219  0.0044  0.1700  0.0368
94909W        W37822   6.972  19.054   7.269  0.1393 -0.1007  0.3262
94910W        W37823  14.002   4.255   7.107  0.0451 -0.0936  0.0965
94911W        W37824  14.549  33.843   9.877 -0.3169  0.0552  0.0591
94912W        W37825  14.955  25.438  29.478 -0.2427 -0.1847  0.2756
94913W        W37826  13.736  23.438   7.337 -0.0628 -0.4286  0.1800
94914W        W37827  17.730  23.273   6.137  0.4515 -0.2264  0.3377
94915W        W37828  22.864  28.873   5.274  0.0950  0.1050 -0.0550
94916W        W37829   9.741  19.781   4.888  0.1835 -0.1209  0.5087
94917W        W37830  14.429  19.786  28.118  0.2093 -0.0049  0.1417
94918W        W37831  11.672  23.121   4.162 -0.0511  0.0638  0.0545
94919W        W37832   2.449   2.447  11.655 -0.0282 -0.0632 -0.1214
94920W        W37833   2.540  23.912   9.931 -0.3518  0.1348 -0.4797
94921W        W37834  10.891  30.725   8.772  0.3140 -0.0773  0.0564
94922W        W37835  10.022  25.635  28.742 -0.0949  0.2992  0.1558
94923W        W37836  25.293  17.564   4.098  0.2470  0.1068  0.2283
94924W        W37837   7.256  27.523   9.449 -0.0062 -0.2870  0.0230
94925W        W37838  13.281  27.867   5.411 -0.2395 -0.1686 -0.1085
94926W        W37839   8.661  21.807   6.028  0.0532  0.0073  0.2276
94927W        W37840   9.237  22.662   6.837 -0.2911 -0.1492 -0.1249
94928W        W37841   7.613  25.575   8.214  0.0688 -0.1444  0.1685
94929W        W37842  16.319  22.781   5.144 -0.2732  0.3967 -0.0090
94930W        W37843   8.214  21.649   0.270 -0.0650 -0.2056 -0.3001
94931W        W37844   8.855  20.901   5.613 -0.2477 -0.0848 -0.1323
94932W        W37845  15.046  12.702  29.284 -0.2984  0.2192  0.1757
94933W        W37846  10.363  23.746   4.035 -0.1861  0.1344 -0.0746
94934W        W37847   2.751  19.332   9.782 -0.1353  0.0514 -0.0029
94935W        W37848  33.523  18.795   6.327 -0.1745 -0.0319  0.0260
94936W        W37849  15.501  21.330   2.123  0.0426  0.1432 -0.3788
94937W        W37850  10.369  13.035   5.055  0.1181  0.0565 -0.1323
94938W        W37851  16.232  21.223   1.111  0.3220 -0.0701 -0.0354
94939W        W37852  16.883  22.587  25.066 -0.2546 -0.0003  0.0139
94940W        W37853   7.293  21.814   7.389 -0.0399 -0.1862 -0.0456
94941W        W37854  15.262  34.261   5.199 -0.2160  0.0086 -0.0670
94942W        W37855  10.677  31.709   3.218 -0.2993  0.0041  0.1038
94943W        W37856   9.615  21.326   8.934 -0.0045 -0.1253  0.0726
94944W        W37857  10.612  28.993   2.633 -0.0183 -0.1920  0.1010
94945W        W37858  11.277  23.985   4.379  0.1963 -0.0070 -0.3516
94946W        W37859   7.162  29.773   2.855  0.1064 -0.2018  0.0028
94947W        W37860   0.355  25.877   9.421 -0.1222  0.0428  0.2478
94948W        W37861   5.078  30.344   7.236 -0.0910  0.0396  0.1803
94949W        W37862  17.174  20.744   8.022  0.1374  0.3339 -0.0445
94950W        W37863  29.175  21.137   4.029 -0.0293 -0.2333 -0.0826
94951W        W37864   3.527  31.313   2.832  0.0284 -0.1703 -0.1041
94952W        W37865   8.867  17.248   7.293 -0.1179 -0.2158 -0.1182
94953W        W37866  14.328  21.449   8.335  0.0259  0.0807  0.1028
94954W        W37867   9.841  25.190   9.384 -0.1914  0.0633 -0.2219
94955W        W37868  16.492  18.369  25.916  0.0344  0.3128 -0.1230
94956W        W37869   7.398  29.963   8.525  0.0767 -0.0985  0.2186
94957W        W37870  10.213  20.280   6.561 -0.0721  0.1491  0.0975
94958W        W37871  19.919  22.542   1.123 -0.1151  0.2383 -0.1966
94959W        W37872  11.079  30.138   3.392 -0.3366 -0.0602  0.2583
94960W        W37873   5.263  25.961   6.482 -0.1783  0.0659 -0.1084
94961W        W37874  13.195  23.463   8.442  0.1229 -0.1872  0.0100
94962W        W37875  12.166  23.150   5.280 -0.1148  0.2475 -0.2836
94963W        W37876   7.722  19.943   9.301 -0.1465  0.2489 -0.2272
94964W        W37877  25.569  31.175   2.768 -0.1903  0.1023  0.0186
94965W        W37878  11.006  25.532   3.351  0.1713  0.3303 -0.1655
94966W        W37879  15.388  27.082  10.133  0.1181 -0.3122  0.1484
94967W        W37880   8.862  14.355   8.248  0.2195 -0.6207 -0.0836
94968W        W37881  18.655  27.678   4.719  0.0828  0.2774  0.2105
94969W        W37882  12.156  32.591   1.334 -0.3375 -0.0349 -0.1888
94970W        W37883   2.334  19.486   6.902 -0.3623  0.6589  0.0609
94971W        W37884  22.037  18.454   5.464 -0.0260  0.0936 -0.0485
94972W        W37885  17.860  29.023   0.031  0.2928 -0.2109  0.1688
94973W        W37886  14.278  23.808  23.374  0.1032 -0.0124 -0.1081
94974W        W37887  12.341   2.283   7.423  0.0377 -0.1229 -0.0164
94975W        W37888   7.445  15.571   8.018  0.0838  0.0001  0.0116
94976W        W37889  10.645  23.106  25.154  0.3515  0.0460  0.1358
94977W        W37890  10.524  19.861   7.992  0.2571 -0.1057 -0.0717
94978W        W37891   3.442  16.829   8.781 -0.0295 -0.0791 -0.1268
94979W        W37892  12.807   0.340   9.548 -0.0397 -0.1140 -0.0007
94980W        W37893  14.216  23.884   8.399 -0.2317  0.0474  0.1504
94981W        W37894   2.936  19.422   8.021  0.0506 -0.0316  0.0083
94982W        W37895   8.242  29.974   3.481 -0.1917  0.0446 -0.0272
94983W        W37896  12.663  19.463  27.898 -0.0322 -0.1968  0.1474
94984W        W37897   8.014  23.557   3.080  0.0832 -0.0822 -0.0775
94985W        W37898   4.424  22.465   4.987  0.0802  0.2175 -0.1573
94986W        W37899  17.281  29.608   3.038 -0.2952  0.1035  0.0843
94987W        W37900   3.848  31.264   7.955  0.0646 -0.1694  0.0041
94988W        W37901  15.787  24.708   9.462  0.0952  0.1612 -0.3183
94989W        W37902  13.476  14.407   3.718 -0.0006  0.0101 -0.2337
94990W        W37903  10.274  18.457   7.378  0.2756 -0.0635 -0.0645
94991W        W37904  14.728  29.116  10.137 -0.0450 -0.0075 -0.1360
94992W        W37905  11.061  33.695  12.865  0.1895  0.0873 -0.2001
94993W        W37906  10.827  32.330  10.805 -0.4436 -0.0138  0.1619
94994W        W37907   7.711  23.477  29.205 -0.0105 -0.1448  0.0582
94995W        W37908  16.871  23.315   7.814 -0.2845 -0.3030 -0.0857
94996W        W37909  13.404  27.558   4.806 -0.0232  0.0433  0.2522
94997W        W37910   3.587  11.595  12.086 -0.4080  0.0180  0.6573
94998W        W37911  13.021  29.310   6.589 -0.0822 -0.2067  0.0359
94999W        W37912   9.012   0.176  12.356 -0.3321  0.4278  0.1025
95000W        W37913  19.520  32.617   4.970 -0.4682  0.1809  0.3944
95001W        W37914   6.190  20.106   5.031  0.1107 -0.2075  0.1018
95002W        W37915  26.512  32.184  29.181 -0.1387 -0.0815  0.2154
95003W        W37916  12.587  20.716   3.713  0.2810 -0.0107 -0.0986
95004W        W37917  26.247  22.868   3.413  0.0632 -0.1610 -0.3107
95005W        W37918   6.759  23.243   6.833  0.4152 -0.2085  0.0879
95006W        W37919  13.973  16.234   7.941 -0.0965  0.3795 -0.2529
95007W        W37920  19.120  19.051  21.413 -0.1931 -0.0375  0.1637
95008W        W37921   6.713  23.883   8.436 -0.0047 -0.2188 -0.1731
95009W        W37922   8.761  19.908   6.284  0.1511 -0.0038 -0.2436
95010W        W37923  10.336  29.668   8.033  0.3629  0.1859 -0.2983
95011W        W37924  16.731  16.551   3.392 -0.1729 -0.1617  0.0357
95012W        W37925   0.162  19.064   7.924  0.0482 -0.0740  0.1135
95013W        W37926  13.623   4.829   8.348  0.4309  0.1254  0.1274
95014W        W37927  10.331  26.780  10.279 -0.2102 -0.1349 -0.0215
95015W        W37928  23.224   0.259   4.980  0.0601 -0.1523  0.1258
95016W        W37929  17.745  20.305  27.115  0.1935  0.0705  0.0899
95017W        W37930  20.553  29.565   5.431 -0.0572  0.5457  0.0956
95018W        W37931   2.313  27.898   4.154 -0.1083 -0.2190  0.0042
95019W        W37932   7.650  21.906   8.218 -0.0654 -0.1349 -0.1505
95020W        W37933  16.733  29.925   7.678 -0.1355 -0.0045  0.2090
95021W        W37934  17.965  22.029  29.748  0.1838  0.2215  0.1709
95022W        W37935   9.129   9.283   6.757 -0.1274 -0.0065  0.0761
95023W        W37936  10.947  22.073   3.402  0.0433  0.0181 -0.0219
95024W        W37937  13.520  14.432   1.290 -0.4484 -0.1352 -0.1619
95025W        W37938   4.673  12.184   5.355  0.3295  0.1203 -0.1559
95026W        W37939  16.860  20.226   0.369  0.0858  0.1841 -0.0336
95027W        W37940   5.110  22.537   9.141  0.0258  0.1547 -0.3452
95028W        W37941  16.718  26.487   1.591  0.0270  0.2641 -0.2435
95029W        W37942   6.351  23.256   0.299  0.1175 -0.1214 -0.0409
95030W        W37943  18.769   9.641   1.168 -0.2459  0.5886  0.3568
95031W        W37944  11.234  27.496   4.990 -0.5279 -0.2173 -0.3361
95032W        W37945  13.721  26.470   3.641 -0.0449 -0.0111  0.0092
95033W        W37946  22.282  21.654   4.776 -0.1459 -0.1580 -0.0962
95034W        W37947  13.083  26.874  10.541 -0.0456 -0.1569 -0.1628
95035W        W37948   2.582   7.125  10.868 -0.0563  0.1280 -0.2261
95036W        W37949  17.991  25.367   2.195 -0.0813  0.0458  0.0609
95037W        W37950  16.871  28.324   7.778 -0.1163  0.1042 -0.0087
95038W        W37951   5.015   4.751   1.046  0.1208 -0.0037  0.2215
95039W        W37952  12.649  30.612   7.065  0.2718  0.0012  0.0242
95040W        W37953  22.033  30.391   6.331  0.0918  0.1577  0.0510
95041W        W37954  33.147  26.475   4.377  0.0655  0.1857 -0.0983
95042W        W37955  19.048  26.201   3.520 -0.1541 -0.1638  0.1684
95043W        W37956   7.934  23.365   7.543 -0.0354  0.0476  0.0624
95044W        W37957  13.938  29.343   7.863 -0.2644  0.0718 -0.3067
95045W        W37958  12.643  25.000   7.856  0.1525 -0.0287 -0.0059
95046W        W37959   5.648  28.663  10.289 -0.1179 -0.1611 -0.0672
95047W        W37960  22.339  26.785   1.249  0.0175 -0.1393 -0.0658
95048W        W37961   0.063  33.629   9.703 -0.0440 -0.1474 -0.0477
95049W        W37962  15.694  24.653   4.449  0.0040  0.1770 -0.0793
95050W        W37963  12.731  22.475   8.038  0.0232 -0.2663 -0.0356
95051W        W37964  16.215   5.284   3.600 -0.1894  0.0293 -0.2187
95052W        W37965  13.333  22.082   8.822  0.0442  0.2096 -0.1117
95053W        W37966  10.887  20.123   5.458 -0.2060  0.4403 -0.0378
95054W        W37967   7.721  23.657   9.421 -0.1694 -0.1042 -0.0151
95055W        W37968  13.374  20.865   4.544 -0.2044  0.2695 -0.6247
95056W        W37969  15.052  29.281  25.699 -0.0114  0.0324  0.2289
95057W        W37970  19.779  22.976   3.929  0.1337  0.1282  0.1358
95058W        W37971   8.218  23.904  28.640  0.0081  0.0299  0.0671
95059W        W37972   6.445  21.264   7.240  0.1569  0.1589  0.1216
95060W        W37973  14.296   3.483   4.893  0.0518 -0.2408  0.2993
95061W        W37974   1.550  30.940   6.417  0.0745 -0.1433 -0.0634
95062W        W37975   1.061  18.970  10.175 -0.0639 -0.1396 -0.0299
95063W        W37976  16.068  28.050   8.509  0.1091  0.1942  0.2164
95064W        W37977  13.108  30.887   7.545 -0.0580 -0.2675 -0.0046
95065W        W37978  14.182  20.094   0.259 -0.2514  0.1802  0.0167
95066W        W37979   8.073  27.290   6.725  0.1819  0.3396 -0.2040
95067W        W37980   8.978  26.953   9.527 -0.1372 -0.0851  0.2238
95068W        W37981  12.112  27.804   2.628 -0.1550 -0.1971 -0.2101
95069W        W37982   5.275  32.025   4.168  0.2572  0.0558  0.1824
95070W        W37983  17.981  26.456   3.149  0.2649  0.0306 -0.2100
95071W        W37984  13.139  26.740   2.091  0.2100 -0.1801  0.2676
95072W        W37985  19.994  21.297   4.443 -0.2499 -0.0429 -0.2460
95073W        W37986  18.058  21.037   2.114  0.2119  0.0113  0.0214
95074W        W37987   7.977  15.265   1.029 -0.0941 -0.1291 -0.0496
95075W        W37988  17.308  22.507   7.829  0.1945 -0.1392 -0.3416
95076W        W37989   9.127  27.546   6.823  0.0392 -0.1245 -0.2131
95077W        W37990  15.969  34.291   7.734 -0.1302 -0.3138  0.1465
95078W        W37991   7.830  19.799   6.260 -0.4071  0.2250  0.0711
95079W        W37992   7.937  31.305  29.720 -0.2620 -0.2633  0.2189
95080W        W37993  10.104  25.321   2.930 -0.2408  0.0772  0.2961
95081W        W37994  10.745  32.741   4.990  0.0329  0.2585 -0.1445
95082W        W37995  14.150  23.403  29.529 -0.4566  0.3287  0.2158
95083W        W37996  19.306  16.560   2.369  0.2542  0.0028 -0.1131
95084W        W37997  17.090  25.362  23.677  0.1117 -0.0539  0.2129
95085W        W37998  14.177  21.911   3.338  0.3832  0.2046 -0.2097
95086W        W37999   8.379  26.934   7.328 -0.0577  0.0360  0.2627
95087W        W38000   5.922  17.241   8.186  0.0309 -0.2278 -0.1707
95088W        W38001   9.649  26.345   3.644  0.1522 -0.2628  0.0858
95089W        W38002  12.975  27.434   6.287 -0.0573 -0.0179  0.3055
95090W        W38003   7.649  19.977   5.878 -0.0119 -0.0183  0.3819
95091W        W38004  19.532  32.220   5.814  0.2229 -0.1296 -0.1880
95092W        W38005  15.549  33.952   9.174  0.0783  0.2978 -0.3108
95093W        W38006   6.831  26.277  10.221 -0.0984 -0.0192 -0.0724
95094W        W38007  13.896  22.780   6.099  0.5236  0.3160  0.3456
95095W        W38008  14.174   0.806   5.431 -0.2021  0.1342  0.2790
95096W        W38009   6.215  29.374   2.024 -0.0152  0.4074 -0.0452
95097W        W38010   5.384  10.875  20.720 -0.0218 -0.0974 -0.5963
95098W        W38011  20.310  22.257  27.267 -0.1181  0.1241 -0.4107
95099W        W38012  11.976   7.991   6.035  0.1973  0.0181  0.4581
95100W        W38013   3.530  31.287  26.079 -0.1836  0.3926 -0.1920
95101W        W38014  12.087  25.438  24.664  0.1084  0.2642  0.0842
95102W        W38015  14.561   4.749   5.183  0.2754  0.3133  0.0109
95103W        W38016  32.013  30.156   0.300  0.0734  0.5811 -0.2949
95104W        W38017  13.993  31.886  29.337  0.0919  0.2078  0.1376
95105W        W38018  12.349   4.914   5.131 -0.3009 -0.0194 -0.0717
95106W        W38019  13.348  32.003  26.977 -0.0503  0.0243 -0.0472
95107W        W38020   3.242  22.941  20.785  0.0278 -0.3845  0.0537
95108W        W38021  16.360  23.615   0.975  0.0449  0.0417 -0.2919
95109W        W38022  21.089  31.907   9.000  0.0359  0.0631 -0.0364
95110W        W38023   8.157  25.071   6.585  0.0665  0.0860 -0.0684
95111W        W38024  26.369  18.934   1.445 -0.0567  0.2049 -0.0597
95112W        W38025  13.829  14.694   2.309 -0.1439  0.1768 -0.1766
95113W        W38026  17.118  21.513   4.707  0.0815 -0.4128  0.1228
95114W        W38027  32.065  30.004   6.777  0.1673  0.0041 -0.0080
95115W        W38028   9.282   4.716   6.476  0.2021 -0.1903  0.0238
95116W        W38029  17.969  19.305  28.601 -0.0274 -0.2078  0.1744
95117W        W38030   7.862  20.300   1.626  0.2903  0.2079  0.0453
95118W        W38031  13.048  27.324  18.859  0.3949 -0.3227 -0.0861
95119W        W38032   8.720  24.710   4.381  0.0661  0.3268  0.0412
95120W        W38033  16.507   5.494   9.104 -0.1032  0.3274  0.3719
95121W        W38034  29.023  32.720   7.128  0.2676 -0.4405  0.2745
95122W        W38035   5.290  25.487   4.112 -0.1759  0.0521 -0.4566
95123W        W38036  21.536   1.055   0.025 -0.2852  0.3477 -0.0725
95124W        W38037  16.625   1.346   7.554  0.0909 -0.0942  0.0686
95125W        W38038  19.409  22.591  19.089  0.0996  0.2256  0.2043
95126W        W38039  11.263   9.846  10.096  0.0164 -0.0874  0.0135
95127W        W38040  17.497  17.444  26.965 -0.0388 -0.0856 -0.1960
95128W        W38041  26.235  25.336  24.760  0.2244  0.0552 -0.0416
95129W        W38042  14.645  20.164  23.223 -0.2966 -0.1801  0.0589
95130W        W38043   8.632  24.090   8.482 -0.2092  0.1471 -0.1514
95131W        W38044  10.335  25.645  27.067 -0.0750  0.0848 -0.1278
95132W        W38045   8.850  27.307  10.674  0.2831 -0.3368  0.3344
95133W        W38046   5.568  25.268   9.784  0.1667  0.3829 -0.0203
95134W        W38047   8.187  29.800   4.485  0.1292  0.0470  0.0926
95135W        W38048  12.807   1.930  10.124 -0.1520 -0.0981 -0.1063
95136W        W38049   4.659  26.663  29.489 -0.0723 -0.2165  0.3777
95137W        W38050  16.838  11.316   2.321  0.2801 -0.2441 -0.0142
95138W        W38051   8.238  29.964  22.608  0.0353  0.1333 -0.0280
95139W        W38052  11.972   3.744   6.822 -0.2109  0.0760 -0.3546
95140W        W38053  13.498  31.882  10.597  0.0354  0.1584 -0.0454
95141W        W38054  19.562  16.140   5.548  0.0730  0.1257  0.0790
95142W        W38055  13.825  17.414  25.191 -0.0801 -0.0462  0.0931
95143W        W38056  15.503   1.339  18.039 -0.0024 -0.1144  0.3837
95144W        W38057  14.850   0.173  28.008  0.1861  0.0253  0.2613
95145W        W38058  23.606  21.089  27.558 -0.1512 -0.0487  0.1211
95146W        W38059   9.855  31.785   9.417 -0.0842 -0.0300  0.1642
95147W        W38060  31.609  28.965  14.955 -0.3267  0.0615 -0.1001
95148W        W38061  17.041  27.295   9.160 -0.1654 -0.1163 -0.3874
95149W        W38062  23.782  17.125   1.271  0.0088  0.0634 -0.2641
95150W        W38063  22.149  30.095   1.359 -0.1856  0.4319 -0.0070
95151W        W38064  24.973  14.008   2.476  0.1509 -0.1924 -0.0613
95152W        W38065   2.323  30.849  23.921  0.2524 -0.0978  0.1624
95153W        W38066  15.742  21.952  26.459 -0.0720 -0.2665  0.1253
95154W        W38067  12.982  29.715   4.043  0.2097 -0.1623  0.1746
95155W        W38068   5.132  21.420   0.683  0.1891 -0.3265 -0.2824
95156W        W38069   7.341  21.758   2.178  0.2008 -0.0058 -0.0518
95157W        W38070   6.339  26.115   4.448 -0.4503  0.2233  0.1227
95158W        W38071   1.621  32.003   9.698 -0.0373 -0.0704 -0.0787
95159W        W38072  11.220  34.244   4.298 -0.1560 -0.1581 -0.0651
95160W        W38073  22.012  26.376  25.397  0.0625 -0.1578 -0.4188
95161W        W38074  16.954  25.638   1.226  0.0229  0.2406  0.1127
95162W        W38075  22.424   2.702   4.434 -0.0358  0.0581 -0.1750
95163W        W38076   8.531  28.886   6.252 -0.0635  0.1525 -0.1535
95164W        W38077  19.959  33.183  27.999  0.2715 -0.1001  0.0020
95165W        W38078   5.878  31.489  20.633  0.0023  0.0725 -0.3198
95166W        W38079  15.360  24.736   0.746  0.2343  0.2932  0.0132
95167W        W38080   9.605   1.446   0.664  0.4183  0.3310  0.2847
95168W        W38081   4.850  32.184   2.691 -0.1569  0.0095 -0.0171
95169W        W38082  14.924  24.899   1.442 -0.1186  0.2913  0.0254
95170W        W38083  10.051  31.254   1.683 -0.1528 -0.0094  0.1695
95171W        W38084  15.193   9.580   6.197 -0.3026  0.1234  0.2229
95172W        W38085  17.739  29.014  19.588  0.1737  0.0015  0.1588
95173W        W38086   9.402  16.967   0.435  0.0218 -0.0457  0.0191
95174W        W38087   8.324  22.524   1.172  0.0992 -0.0641  0.0801
95175W        W38088  11.084  19.313  23.213 -0.1745 -0.2414 -0.2011
95176W        W38089  23.035  29.914   7.045 -0.1304 -0.4264  0.1637
95177W        W38090   6.254  28.529   0.427 -0.0780 -0.1545 -0.1044
95178W        W38091   4.183  24.696  22.756 -0.4314 -0.0110 -0.2017
95179W        W38092  13.939   1.885   4.457 -0.0054  0.2982 -0.1326
95180W        W38093   7.924  23.253  24.691 -0.0030 -0.1138  0.5884
95181W        W38094  17.073  17.857   7.108  0.0262  0.2775 -0.3130
95182W        W38095  14.834  19.440   7.384  0.0309 -0.3052  0.1424
95183W        W38096   9.914  26.134   0.825 -0.1734 -0.0325  0.2292
95184W        W38097  14.276  28.440  17.048 -0.1592  0.0268  0.0873
95185W        W38098  19.430   1.867   0.573  0.2859 -0.1585 -0.4744
95186W        W38099  16.342  31.671   9.339  0.0581  0.1391 -0.2915
95187W        W38100  18.370  21.876   8.095  0.0878 -0.0665  0.1523
95188W        W38101  13.798  26.330   9.121 -0.1786  0.4756  0.0065
95189W        W38102   9.747  32.883   0.701  0.3213  0.0935  0.0519
95190W        W38103  19.573  27.886  27.035 -0.0560  0.1370 -0.0218
95191W        W38104  15.071  18.952   0.267 -0.0783  0.0083 -0.0337
95192W        W38105  11.669  21.751   2.563  0.3868 -0.1508 -0.0011
95193W        W38106  16.268  11.911   0.693  0.1698  0.1017 -0.2025
95194W        W38107  22.354  18.452   4.281  0.0326  0.2780 -0.1304
95195W        W38108  23.363   0.232  28.597 -0.2716 -0.2885  0.0368
95196W        W38109  20.140  24.146   0.634  0.0081  0.3608  0.2263
95197W        W38110  11.767  33.971   1.506 -0.1718  0.0530 -0.0924
95198W        W38111  14.000  15.497  26.964 -0.0533 -0.1183 -0.2790
95199W        W38112  10.489  23.490   4.422 -0.0007 -0.2146 -0.1580
95200W        W38113   8.669  23.529   1.665 -0.2877  0.2668  0.0318
95201W        W38114   2.901  29.766  16.844 -0.1151  0.0102 -0.0698
95202W        W38115  16.687  21.990   0.083 -0.0344 -0.1366 -0.0432
95203W        W38116  27.561  23.620   7.773  0.1130  0.0419  0.3069
95204W        W38117  24.345  20.242   1.348 -0.1852 -0.5390 -0.1190
95205W        W38118  22.976  23.441   5.236  0.0251  0.1523 -0.0471
95206W        W38119   9.728   1.827   4.781  0.0980 -0.0287 -0.1022
95207W        W38120   7.445  18.335   7.114 -0.0129  0.2230  0.2176
95208W        W38121   9.581  21.388   1.110  0.0320 -0.1993  0.1578
95209W        W38122  19.110  28.590   8.524  0.2418  0.3007 -0.0979
95210W        W38123   7.151  24.220  29.468  0.0163 -0.0446  0.2331
95211W        W38124  10.428  27.489   0.918  0.0683 -0.0179 -0.0885
95212W        W38125  33.832   5.482   5.336 -0.1408  0.1819  0.2721
95213W        W38126   1.623  31.566   2.070  0.0110 -0.3283  0.0807
95214W        W38127  11.578  33.443   9.594  0.0098  0.5773 -0.0985
95215W        W38128  19.406   3.279   1.597 -0.0502 -0.1029  0.1555
95216W        W38129   8.634  29.699   3.666  0.2992  0.2472  0.1796
95217W        W38130  23.289  26.914   4.603  0.0999 -0.1097  0.1904
95218W        W38131  19.142  23.756  29.530 -0.1328 -0.1626 -0.4958
95219W        W38132  20.417  25.200   3.434  0.1030  0.2857 -0.2727
95220W        W38133   3.373   2.503  12.595  0.0810  0.0229 -0.1091
95221W        W38134  22.120  28.835   5.994 -0.0846 -0.1700 -0.1075
95222W        W38135  26.132  22.581  21.465 -0.2478 -0.2101 -0.1265
95223W        W38136  12.996   0.763   9.140  0.3530  0.0928 -0.1934
95224W        W38137  15.952   1.974   6.190  0.0117  0.0289  0.0521
95225W        W38138  15.264  30.501   6.628 -0.0710  0.0502  0.0528
95226W        W38139  12.843  32.413  29.055 -0.0549  0.1391  0.0363
95227W        W38140  13.704  16.734   4.760 -0.0809  0.1867 -0.2237
95228W        W38141  10.750   5.848   4.989  0.0887 -0.1876  0.0968
95229W        W38142   4.819  20.399  28.699 -0.1121  0.0015  0.2130
95230W        W38143  12.974  33.187   9.129 -0.2303  0.2656 -0.0373
95231W        W38144  15.675   1.233   9.759 -0.0730 -0.1335 -0.1263
95232W        W38145   4.275  23.439   4.936  0.3086  0.0963  0.0758
95233W        W38146  25.621  25.596   7.288  0.2663 -0.1554  0.1313
95234W        W38147  21.966  26.672   4.824 -0.3126 -0.0108  0.3465
95235W        W38148  19.649  29.273  25.581 -0.0044 -0.0452  0.1785
95236W        W38149  14.290  21.299  18.517 -0.1938  0.0642 -0.1519
95237W        W38150  12.018  30.095   1.904  0.0538  0.2657 -0.0235
95238W        W38151  13.514   7.763   6.646  0.0562 -0.0878  0.3904
95239W        W38152   6.598  28.490   2.591  0.2081  0.0487 -0.1490
95240W        W38153   9.232  28.967  20.996 -0.1827  0.1384  0.0820
95241W        W38154   6.727  32.953   9.103  0.1133 -0.3606  0.0742
95242W        W38155   9.169  29.365   8.078 -0.3319 -0.0163 -0.3187
95243W        W38156  15.269  23.104  25.835 -0.2483  0.1668  0.0564
95244W        W38157  17.930  24.708   3.003  0.1022  0.0955  0.1049
95245W        W38158   9.258  21.029  24.393 -0.0681 -0.0877 -0.2280
95246W        W38159  18.338  12.501   1.670 -0.1210 -0.2631 -0.0613
95247W        W38160  19.133  21.811   6.172 -0.0628 -0.2021  0.1201
95248W        W38161  24.902   3.723  26.261 -0.1686 -0.0548 -0.0593
95249W        W38162   8.795  22.567  28.590  0.1625 -0.0512 -0.5471
95250W        W38163  20.630   5.623   1.578 -0.0860 -0.2009  0.1870
95251W        W38164  34.053  26.233   5.171 -0.1292  0.1338  0.0832
95252W        W38165  14.315  28.340  23.000 -0.2601  0.1566  0.2086
95253W        W38166  13.990  26.222  24.918 -0.2560 -0.0160 -0.0684
95254W        W38167   7.308  30.451   6.170 -0.1251  0.0013  0.0530
95255W        W38168  16.969  26.351  23.790 -0.1485  0.0437  0.1803
95256W        W38169  15.547  32.977  11.162 -0.2220 -0.1216 -0.1769
95257W        W38170   7.063  28.910  25.016 -0.1846 -0.1326 -0.1429
95258W        W38171  33.403   3.060   4.895 -0.0645 -0.0311  0.0016
95259W        W38172  15.880  22.603  21.033 -0.0237  0.0172 -0.1812
95260W        W38173   5.341  22.143  26.801  0.2039  0.1016  0.2133
95261W        W38174  13.959  30.633   1.367  0.1489  0.1382  0.1692
95262W        W38175   6.624  19.672   8.784  0.0959 -0.1619  0.1572
95263W        W38176   1.972  21.471  27.262 -0.0550 -0.0563 -0.3644
95264W        W38177  24.412  24.678  21.024 -0.0450 -0.1530  0.0482
95265W        W38178   0.830  25.043   9.247 -0.0876 -0.2818  0.1018
95266W        W38179  15.209   3.046   2.577 -0.0722  0.0665  0.0040
95267W        W38180  20.500  21.447  25.836 -0.0062  0.0268  0.0560
95268W        W38181   7.350  23.568   9.988  0.2184  0.0662 -0.0100
95269W        W38182  11.752  25.111   6.622 -0.2994 -0.0954 -0.2612
95270W        W38183  15.608  17.342   7.911 -0.0150 -0.1374 -0.1782
95271W        W38184   5.856  19.263  27.131 -0.3287 -0.0328  0.0402
95272W        W38185  16.196  20.679   3.019 -0.3523 -0.0486 -0.2370
95273W        W38186  18.152  30.982  27.633  0.0288  0.2797  0.0674
95274W        W38187  25.142  23.716   3.368 -0.0620 -0.0242 -0.1181
95275W        W38188  16.533  22.699   1.381 -0.1157 -0.1777  0.2744
95276W        W38189  17.432  23.479  19.110  0.3143  0.1237 -0.3623
95277W        W38190   4.234  24.799  28.991 -0.2228  0.3016 -0.1016
95278W        W38191  19.238  28.044   7.580  0.1267  0.4908  0.1846
95279W        W38192   9.016  23.876  28.635  0.0961  0.1102 -0.0930
95280W        W38193  17.890   6.388  25.393 -0.1948 -0.1332  0.1898
95281W        W38194  14.004  23.775   1.207 -0.0374 -0.3961  0.2089
95282W        W38195   0.745  16.257   0.653  0.1820 -0.7027 -0.3406
95283W        W38196  11.198  23.186  25.100  0.0053  0.1442 -0.3844
95284W        W38197  11.735  22.923   0.672  0.0150 -0.0059  0.1382
95285W        W38198  13.368  19.177   5.176 -0.0872  0.0346 -0.1702
95286W        W38199  11.982  21.872  28.803  0.0317  0.1021 -0.2817
95287W        W38200  11.289  33.186   6.074 -0.2297  0.0634 -0.0027
95288W        W38201  13.813  11.083   5.705 -0.1417 -0.1739  0.0976
95289W        W38202  14.719  20.428  18.677  0.1339 -0.3516 -0.2436
95290W        W38203  12.795  29.509   1.778  0.2644  0.3275 -0.1424
95291W        W38204  17.355  28.543   2.854  0.1529  0.0748 -0.1781
95292W        W38205  10.938  32.607   2.688  0.1590  0.1289  0.0458
95293W        W38206  17.821  30.405  29.412 -0.1716  0.1533  0.0156
95294W        W38207  10.392   1.157   5.723 -0.1243  0.1295 -0.0575
95295W        W38208   3.588  29.902   1.907  0.1205  0.2175  0.4353
95296W        W38209  13.083  32.695  27.757 -0.2959 -0.0580  0.2272
95297W        W38210   8.046  23.953   7.222  0.3405  0.2546 -0.0190
95298W        W38211   4.045  19.694  28.923 -0.4531 -0.2722  0.3476
95299W        W38212  21.338  25.237  27.597  0.0646 -0.0059 -0.2204
95300W        W38213  13.305  24.658  25.458 -0.1633  0.0247  0.1163
95301W        W38214  12.547  27.463   4.867  0.0898  0.2576  0.5601
95302W        W38215  11.529  31.831  28.219 -0.0803  0.2704 -0.0420
95303W        W38216  17.419  32.037  28.529  0.1872 -0.0615 -0.0345
95304W        W38217  20.481  26.201  28.802  0.0319 -0.1192  0.1485
95305W        W38218  18.201  34.121  19.198 -0.3309 -0.1768 -0.1239
95306W        W38219   5.656  21.066  17.828 -0.1506  0.2628 -0.1338
95307W        W38220  11.347  33.906   5.989 -0.1601 -0.3052 -0.2097
95308W        W38221  21.217  29.230   2.042 -0.3180 -0.0625 -0.1958
95309W        W38222  11.736  28.337  10.882  0.2472 -0.3310 -0.1458
95310W        W38223   4.712  29.832   7.948 -0.3205  0.0099  0.1206
95311W        W38224   7.213  18.549   0.009  0.1434  0.2872  0.2050
95312W        W38225  10.992  25.150  28.604 -0.1501 -0.1015  0.0073
95313W        W38226   5.458  22.005  21.798 -0.0706  0.0496  0.0347
95314W        W38227   5.203  27.479  22.409 -0.0306  0.1882 -0.0867
95315W        W38228   9.461  30.794   0.590  0.0534  0.1241  0.1225
95316W        W38229   4.787   3.539   5.561 -0.0487 -0.0454 -0.2594
95317W        W38230   9.625  23.662   5.470 -0.2631  0.1472 -0.0135
95318W        W38231   8.766   8.190  21.754 -0.1370  0.1192 -0.0060
95319W        W38232  11.390  21.232   0.728 -0.0814  0.4144 -0.0610
95320W        W38233   9.249  21.561  27.456 -0.0606 -0.0488 -0.0007
95321W        W38234   9.244  25.422   4.953  0.4616  0.0669 -0.2388
95322W        W38235  10.819  20.451   0.642 -0.0572 -0.1437  0.1738
95323W        W38236   3.092  20.260   6.263 -0.0658  0.0706 -0.1240
95324W        W38237  18.323  22.486  23.803 -0.3177 -0.0264 -0.2589
95325W        W38238   2.865  25.005   1.889 -0.1178  0.2756 -0.2286
95326W        W38239  26.250  28.146   2.423 -0.1413  0.1667  0.2271
95327W        W38240   1.379  21.720  26.360  0.2172 -0.1165  0.0643
95328W        W38241  26.119  17.622   7.648 -0.0081 -0.3124  0.0875
95329W        W38242  15.464  15.815   4.464 -0.0236  0.0371  0.2318
95330W        W38243   9.364   6.109   2.800 -0.1506  0.2655 -0.0479
95331W        W38244  13.934  26.216   2.654  0.0040 -0.2105 -0.1409
95332W        W38245  14.628  19.435   6.897 -0.0719  0.2368 -0.0991
95333W        W38246  18.684  24.580   6.675 -0.4924  0.3150  0.3643
95334W        W38247  28.860   7.896  20.768  0.2815 -0.0905 -0.1991
95335W        W38248  10.671  21.108   5.352 -0.1500  0.1432 -0.1123
95336W        W38249   9.273  19.778   6.372  0.1059 -0.0379  0.2648
95337W        W38250  13.074  20.117  23.413 -0.0054 -0.2382  0.1633
95338W        W38251  21.502  20.593   0.147 -0.0268 -0.1670  0.0183
95339W        W38252   6.816  32.984   4.608 -0.1122 -0.4553  0.0401
95340W        W38253  16.824  18.924   3.451  0.0839  0.0652  0.0074
95341W        W38254  31.163  23.556  26.389 -0.1094  0.0601  0.0923
95342W        W38255  12.240  21.611  17.117 -0.4568 -0.0142 -0.1007
95343W        W38256  18.332  25.021   2.813 -0.0776  0.0843 -0.1406
95344W        W38257  20.894  25.846   8.918  0.4400  0.0968 -0.1810
95345W        W38258  11.358  18.336   2.761 -0.1139 -0.1254  0.1919
95346W        W38259  12.397  25.545  27.542 -0.1839  0.0706 -0.2313
95347W        W38260  12.080  31.042  11.043 -0.1007 -0.0387  0.1211
95348W        W38261  20.118  27.160   8.034  0.0885 -0.2879  0.0127
95349W        W38262  25.394  29.326  27.466 -0.1069  0.2812 -0.1583
95350W        W38263   9.358  18.958  24.869  0.1603 -0.0063 -0.3028
95351W        W38264  13.547  31.136   7.068  0.0942 -0.2667  0.1184
95352W        W38265  13.678  20.587  26.602 -0.0004  0.1480  0.0323
95353W        W38266  18.767  25.345   8.691  0.2095  0.0612  0.1540
95354W        W38267  15.691  16.020   5.988  0.3032 -0.4055 -0.2578
95355W        W38268  12.700   2.664  11.597 -0.0934  0.0480 -0.2459
95356W        W38269   4.888  26.408   4.058 -0.1213  0.1145  0.1063
95357W        W38270  17.392  28.912   1.653 -0.1980  0.0699 -0.0485
95358W        W38271  22.134  22.462   1.068  0.0637  0.0140 -0.0759
95359W        W38272  11.787  32.425   7.069 -0.2864  0.0304  0.0110
95360W        W38273  18.441  27.970   2.372  0.0394 -0.0338  0.2091
95361W        W38274   2.984  24.648   1.525 -0.2697 -0.0921  0.0701
95362W        W38275  14.307  12.293   0.615  0.1103 -0.1621  0.3779
95363W        W38276  17.646  34.217  10.250  0.0440  0.2089  0.2109
95364W        W38277  19.071  33.639   0.257  0.0102  0.1193  0.0111
95365W        W38278  19.196  30.184   5.808 -0.0275  0.2578  0.1118
95366W        W38279   0.371  28.158  29.737  0.0977  0.1088  0.0533
95367W        W38280   7.825  30.425   6.292  0.1610 -0.0331 -0.0292
95368W        W38281   2.425  32.790   2.650 -0.1062  0.1730 -0.4712
95369W        W38282  29.566  13.826   5.063 -0.1179 -0.1513  0.3147
95370W        W38283   6.545  26.549   4.489  0.0351  0.0203 -0.2685
95371W        W38284  15.366   1.154  11.433 -0.1552 -0.0827 -0.3051
95372W        W38285   5.640  28.114  29.193 -0.3208  0.2315  0.2187
95373W        W38286  11.646  33.534  27.526 -0.3344  0.0467  0.0267
95374W        W38287   4.560  31.674  25.854  0.2075  0.0748 -0.1162
95375W        W38288  25.088  26.657  27.937  0.1385 -0.2188 -0.2972
95376W        W38289  14.482  24.034   4.222 -0.0099 -0.1232 -0.0709
95377W        W38290   4.157  22.025   4.942  0.1422  0.3034 -0.1532
95378W        W38291  10.419   7.313   4.443  0.2934  0.0233  0.1167
95379W        W38292  33.815  23.748  28.487  0.1976  0.1997 -0.2753
95380W        W38293  22.369  18.058   5.220  0.2181  0.0905 -0.1597
95381W        W38294  21.824  14.524   3.996 -0.1816  0.2339 -0.2863
95382W        W38295   8.142  26.520  28.017 -0.1662 -0.0635 -0.2479
95383W        W38296  12.377   1.618  27.113 -0.1345  0.3000  0.0739
95384W        W38297  28.503  28.845   7.220  0.1363  0.0052  0.0714
95385W        W38298  10.021  32.981  10.277  0.1148 -0.0783  0.5089
95386W        W38299   8.794  29.975  21.584 -0.1098  0.0764  0.2638
95387W        W38300  12.266  32.794  27.804  0.0718  0.0604 -0.3933
95388W        W38301  11.263  23.060  28.402 -0.1297 -0.1204 -0.1289
95389W        W38302  15.258  18.941  20.282  0.1183 -0.0865  0.1293
95390W        W38303   9.703   0.189  28.459 -0.1875 -0.1438  0.2428
95391W        W38304  16.645  18.977  26.596  0.2249  0.3354  0.0089
95392W        W38305  17.320  14.332   6.157  0.2392 -0.4387  0.0584
95393W        W38306  10.479  26.032   8.399 -0.2566 -0.2634  0.2317
95394W        W38307  22.140  30.974   3.751 -0.0610  0.1774 -0.0896
95395W        W38308   6.970  28.053   4.388  0.0078  0.1764 -0.3053
95396W        W38309  10.184  23.299  29.335  0.2037  0.0186  0.1253
95397W        W38310  14.928  22.833   6.609 -0.0805 -0.1510  0.0929
95398W        W38311  28.613  28.067   8.770  0.0505 -0.0318 -0.0763
95399W        W38312  21.525  30.201   7.918 -0.2151  0.1276 -0.1352
95400W        W38313   7.086   0.455   2.007  0.0065  0.1969 -0.2728
95401W        W38314   6.098  22.513   3.879  0.1959 -0.2422  0.0771
95402W        W38315   8.925  22.155   4.213 -0.2580 -0.0990 -0.0422
95403W        W38316   9.444  27.621   7.882 -0.0677  0.2208 -0.0765
95404W        W38317  16.915  20.468   6.591 -0.2370 -0.1463 -0.0492
95405W        W38318  16.767  21.495  24.196 -0.1885 -0.0719  0.1454
95406W        W38319  16.344  29.977  23.969  0.4444  0.1343 -0.0392
95407W        W38320   7.262  18.854  28.957 -0.3416 -0.3121 -0.0849
95408W        W38321  18.860  24.420   2.839  0.1168 -0.3161 -0.1138
95409W        W38322   9.685  25.688   8.127 -0.1371  0.1231 -0.1456
95410W        W38323  15.629  22.177  25.449 -0.2074  0.1022 -0.0981
95411W        W38324   7.726  25.151  10.494 -0.3352  0.2462 -0.1926
95412W        W38325   8.851  34.029   4.115 -0.2193  0.1558 -0.2257
95413W        W38326   9.611   1.395   4.535 -0.0705 -0.2369 -0.1427
95414W        W38327  14.357  25.894   0.731  0.2698 -0.2204 -0.0429
95415W        W38328  13.349  29.934  24.788  0.2235  0.1871 -0.0481
95416W        W38329  11.165  30.717   2.146 -0.1291  0.0420  0.1960
95417W        W38330  15.495  30.148   2.449 -0.2250 -0.0429 -0.0803
95418W        W38331   6.515  30.401   2.964 -0.0687  0.0243 -0.1349
95419W        W38332  23.005  27.220   3.739  0.1304 -0.0869  0.0744
95420W        W38333  18.638  25.001   8.289  0.2721 -0.0116  0.2623
95421W        W38334  33.346  22.353   7.854  0.1818  0.1514  0.1572
95422W        W38335  18.287  29.370   6.787 -0.0396 -0.1606  0.3045
95423W        W38336  13.515  22.963   1.263 -0.0250  0.0523 -0.2521
95424W        W38337   7.561  25.439  10.859 -0.1200  0.0485  0.0512
95425W        W38338  20.818  26.548   5.578 -0.0231  0.0375  0.0785
95426W        W38339  14.980  20.883  29.262 -0.0837  0.0555 -0.0350
95427W        W38340  12.065  33.471   3.765  0.0210 -0.0953 -0.1281
95428W        W38341  17.409  32.834  27.123 -0.0232  0.0389  0.4343
95429W        W38342   9.405  33.817  28.780  0.2406 -0.1721 -0.2701
95430W        W38343  13.586  12.843   8.807  0.2423 -0.2283 -0.1660
95431W        W38344   2.087  20.503  28.180 -0.2810  0.2285 -0.3203
95432W        W38345   0.394  26.603  28.359 -0.2926  0.1182  0.1626
95433W        W38346   7.776  24.717  29.722 -0.0571 -0.2199  0.0276
95434W        W38347  19.536  31.681   5.544 -0.0425 -0.1056 -0.0650
95435W        W38348  20.803  17.797  25.287 -0.0085  0.0184  0.0759
95436W        W38349  16.488   3.056  10.229  0.1238 -0.0518  0.3102
95437W        W38350  14.374  29.644   2.847  0.0819  0.1413 -0.2730
95438W        W38351  17.936  19.419  26.995  0.0134 -0.5114  0.2692
95439W        W38352  15.392  25.932   2.619 -0.4144 -0.1162  0.1043
95440W        W38353  14.083  31.412   9.635  0.2974  0.1043  0.0556
95441W        W38354   7.694  18.248   4.064  0.2977  0.1855 -0.2443
95442W        W38355   6.043  29.009   1.299  0.1346  0.0935 -0.3371
95443W        W38356  16.467  23.320  29.512  0.1259 -0.2269  0.2410
95444W        W38357   9.156  19.937   4.462  0.0521  0.1678 -0.1720
95445W        W38358   8.842  31.475   4.765  0.0495  0.2049  0.3122
95446W        W38359  10.065  28.013   5.350 -0.2407  0.5352 -0.0650
95447W        W38360  17.802  23.233   2.638 -0.0713  0.0106  0.1232
95448W        W38361   3.354  29.368   6.800  0.2888  0.0872  0.2885
95449W        W38362   5.340  29.939   1.214 -0.4291 -0.1486  0.2576
95450W        W38363  14.067  21.884  19.589  0.0737 -0.0071 -0.0335
95451W        W38364  20.865  28.330  20.693 -0.0473 -0.0839 -0.2440
95452W        W38365  14.910  28.485   5.136 -0.3725  0.1901  0.1339
95453W        W38366  14.228  23.694  21.666 -0.0527  0.0694  0.2304
95454W        W38367  16.051   3.209  29.753 -0.0812  0.0041  0.0391
95455W        W38368  22.337   9.374   1.657  0.0475 -0.1292  0.0410
95456W        W38369  13.175  24.344   2.653  0.1021 -0.1661  0.0633
95457W        W38370  22.213  25.313   4.558 -0.2836  0.1652 -0.0276
95458W        W38371  33.158  25.224  28.135 -0.0812 -0.3333  0.2465
95459W        W38372  22.483  25.357  28.689  0.1484 -0.1105  0.2357
95460W        W38373   8.398  31.123   4.506 -0.2519 -0.0276  0.1725
95461W        W38374  13.573  28.004   4.326 -0.0739  0.2614 -0.0915
95462W        W38375  19.797  31.696  10.262 -0.0252 -0.3581 -0.0984
95463W        W38376  16.255   5.128  24.718  0.1619  0.2779  0.1230
95464W        W38377  14.973  25.387   4.372  0.0319  0.4913 -0.0999
95465W        W38378   1.377  31.986  27.897 -0.0709  0.1706 -0.0281
95466W        W38379  32.895  30.651   6.626 -0.1104 -0.1803 -0.0052
95467W        W38380  13.327   3.340   6.750  0.2693  0.0781 -0.0946
95468W        W38381  15.495  26.840  21.090  0.0436  0.3038  0.1327
95469W        W38382  17.817  25.635   9.528  0.1374 -0.2461  0.1990
95470W        W38383  29.832  29.049   4.405 -0.0639  0.2068 -0.0555
95471W        W38384   6.721  21.737   1.325 -0.2842 -0.1905 -0.0122
95472W        W38385  18.455  28.109   8.421  0.0021  0.1025  0.2057
95473W        W38386  14.982  26.730   4.514  0.1195  0.0628 -0.0149
95474W        W38387   7.215  24.995   8.978 -0.2883  0.0261 -0.3143
95475W        W38388  18.450  24.936  21.250 -0.1171 -0.1531  0.1995
95476W        W38389  15.550   4.263   3.328 -0.3561 -0.0665  0.0593
95477W        W38390   5.448  27.993  10.656  0.4209 -0.0623 -0.2103
95478W        W38391  13.640  27.373   3.411  0.0820 -0.2324  0.1438
95479W        W38392   6.930  33.412   3.252 -0.1411 -0.3000 -0.0691
95480W        W38393  21.945  30.902   1.862 -0.0491 -0.3029  0.0661
95481W        W38394  10.506  22.177  28.248  0.0205  0.4088  0.0585
95482W        W38395  13.420  30.599  29.272  0.0977  0.0981  0.2411
95483W        W38396  15.694  32.299   0.969 -0.0963  0.1388  0.3824
95484W        W38397   8.622  23.109  27.929 -0.0510 -0.3283 -0.3518
95485W        W38398  18.928  21.648   6.612 -0.0204  0.1265  0.1782
95486W        W38399  17.774  22.286  29.264 -0.2014  0.0614  0.3171
95487W        W38400  15.482  24.761   4.922 -0.0551  0.0329 -0.1617
95488W        W38401  19.097  24.426   9.383  0.0096  0.0273  0.1051
95489W        W38402  17.568  33.783  22.357 -0.0559 -0.2392  0.0537
95490W        W38403  27.473   0.922   6.872  0.3684  0.0319  0.0704
95491W        W38404   8.202  16.763   4.732 -0.1175 -0.2131  0.1481
95492W        W38405   7.601  19.517  25.456 -0.1068 -0.1377 -0.1569
95493W        W38406  10.938  30.088   7.672 -0.0774 -0.1901  0.1074
95494W        W38407  13.451  22.123   1.717  0.0546  0.0892 -0.0226
95495W        W38408  12.511   2.720  10.005 -0.1470 -0.3228  0.0523
95496W        W38409   4.532  22.359   1.598  0.1081 -0.0929  0.1304
95497W        W38410  17.133  18.393  25.822  0.2012  0.2159 -0.2182
95498W        W38411  15.726  24.631   2.159  0.2048 -0.0753 -0.2543
95499W        W38412   9.922   6.121   8.436 -0.1439 -0.0263  0.2735
95500W        W38413   0.731  31.323   5.635 -0.2751  0.1561 -0.1113
95501W        W38414   7.833  19.171   5.317  0.2978  0.2047  0.2882
95502W        W38415   9.773  27.766   8.323  0.2106 -0.3198  0.0524
95503W        W38416  15.207  33.905   3.836 -0.1870  0.2532 -0.3414
95504W        W38417  10.335  31.909   2.500  0.1322  0.0096 -0.0474
95505W        W38418  10.439  21.884   7.622  0.1873 -0.0701  0.2097
95506W        W38419   6.297  20.966  23.299 -0.0908  0.2399  0.1578
95507W        W38420  13.339  21.239  23.211 -0.3052 -0.1331 -0.4538
95508W        W38421   7.076   0.347  12.812 -0.0724  0.3712  0.0416
95509W        W38422   7.913  24.229   6.337 -0.2770  0.1652 -0.3406
95510W        W38423   8.574  30.663   6.485 -0.2017  0.0503 -0.3891
95511W        W38424  17.466  30.037  25.899  0.1319  0.3368 -0.0489
95512W        W38425  14.426  23.540   2.629  0.0057 -0.1392  0.0487
95513W        W38426  11.148   9.389  11.189 -0.1028  0.0476 -0.1162
95514W        W38427  14.083  19.680   0.019 -0.1050  0.1247 -0.1257
95515W        W38428   1.805  28.462   8.535 -0.1718 -0.0555 -0.1409
95516W        W38429  12.471  23.660  10.170 -0.2603 -0.1091  0.0955
95517W        W38430   8.644  26.351   8.331  0.3430 -0.2606  0.2918
95518W        W38431  12.636  29.125   2.898  0.0854  0.2757  0.1065
95519W        W38432  10.279  29.045   6.973 -0.0702 -0.1868 -0.0480
95520W        W38433  13.527  16.003  17.808  0.0029  0.1709  0.3016
95521W        W38434  13.056  24.998   8.254 -0.2169 -0.0873  0.3360
95522W        W38435  14.362  27.537   7.816  0.1718 -0.2612  0.2931
95523W        W38436   0.243  19.865   9.549  0.0051  0.0904  0.0352
95524W        W38437   2.387  30.973   5.280 -0.0486  0.2515 -0.2816
95525W        W38438   4.783   0.931   8.190 -0.2050  0.1492 -0.0340
95526W        W38439  17.486  31.559   8.617  0.2534 -0.0699  0.0371
95527W        W38440   8.224  20.522  28.270 -0.4885 -0.1971 -0.0555
95528W        W38441  34.478  30.101   3.686  0.0191  0.1083  0.0005
95529W        W38442  10.692  23.161  10.163  0.0362  0.2936  0.2022
95530W        W38443  11.420  29.044  10.554  0.0632  0.0593  0.0066
95531W        W38444   6.477  30.546   8.388 -0.2665  0.1115 -0.3130
95532W        W38445  20.713  29.057   1.518 -0.1513  0.0474  0.1398
95533W        W38446   6.302   2.048  10.909 -0.0305  0.1207 -0.3968
95534W        W38447  18.693  23.072   2.373 -0.0334  0.0489  0.1008
95535W        W38448   8.430  23.178   2.429  0.2268 -0.1287 -0.0741
95536W        W38449  11.793  17.948  28.301  0.2213 -0.1560 -0.2690
95537W        W38450  15.729  26.623   1.525  0.3491 -0.0162 -0.0849
95538W        W38451  18.459   2.226   7.115 -0.1122 -0.2448  0.0057
95539W        W38452   8.962  33.962   5.353  0.2881 -0.1187 -0.1076
95540W        W38453  15.583  21.502   0.231 -0.0825 -0.1312 -0.1255
95541W        W38454  11.077  21.074  28.391  0.1574 -0.0757 -0.2060
95542W        W38455  12.446   2.733   5.798 -0.0835 -0.1239  0.4599
95543W        W38456   9.155   5.950   2.351 -0.0439  0.1717  0.0122
95544W        W38457  16.811  23.788   1.863  0.0281  0.2265 -0.1240
95545W        W38458  18.426  23.250   5.402 -0.0752 -0.0153  0.0356
95546W        W38459  14.983  22.878  22.100 -0.2109  0.0565  0.0427
95547W        W38460  13.638  22.628   4.175  0.2660 -0.0690 -0.1006
95548W        W38461   7.401   1.972   1.084  0.0044 -0.0346  0.2265
95549W        W38462  32.258  32.482   8.358 -0.1295 -0.2817  0.2205
95550W        W38463   4.017  29.542   8.388 -0.1497 -0.1901  0.0251
95551W        W38464   8.218  31.280   6.474  0.0076 -0.4534  0.2071
95552W        W38465   5.509  30.435  29.520 -0.2001  0.0659  0.2425
95553W        W38466  26.116  27.515   5.678 -0.0475  0.3018 -0.1242
95554W        W38467   6.015  30.027   2.430  0.0676 -0.1141 -0.0503
95555W        W38468  11.320  27.572  10.332  0.2296 -0.0184 -0.0561
95556W        W38469  13.485   1.065   2.928 -0.4424 -0.0333  0.4564
95557W        W38470   8.699  32.300   5.926  0.0259  0.1256 -0.2476
95558W        W38471  14.712  28.529   3.983 -0.2021 -0.0908  0.1125
95559W        W38472   9.624  21.890  22.314  0.1598  0.2837  0.0801
95560W        W38473  13.867  23.383  27.851 -0.0516  0.1418  0.1871
95561W        W38474  10.754  33.664   1.614 -0.0801 -0.0049  0.2920
95562W        W38475  17.658   2.311  10.868 -0.1302  0.2710 -0.0231
95563W        W38476  16.800  27.539   4.312 -0.3027 -0.0499  0.0246
95564W        W38477  16.806  16.440   2.600  0.2412 -0.1201 -0.0480
95565W        W38478  28.313  16.691   4.663  0.1327  0.0098  0.1018
95566W        W38479  20.529  28.167   5.531 -0.2220  0.0836 -0.0486
95567W        W38480  16.271  27.223  11.008 -0.4956 -0.0817  0.0980
95568W        W38481   6.690   5.240  28.589  0.1990 -0.1999  0.1212
95569W        W38482   5.783  26.410   5.287  0.0622  0.0492 -0.0880
95570W        W38483   9.237   2.934   7.820 -0.1089  0.0522  0.1318
95571W        W38484  18.072  21.649  23.746 -0.0407 -0.1331  0.1073
95572W        W38485   7.813   0.591   6.336 -0.2543 -0.0858  0.0169
95573W        W38486  17.504  26.524  29.236  0.0906 -0.0780  0.1245
95574W        W38487  18.011  28.055   8.235  0.0594 -0.1321  0.0443
95575W        W38488  33.026  28.291   7.607  0.3575 -0.1384  0.1918
95576W        W38489  34.480  29.440   8.114  0.0509  0.0550  0.2260
95577W        W38490  18.395  20.067  24.149 -0.1910  0.4394  0.2265
95578W        W38491   4.422   3.396   2.615  0.0145  0.1619  0.0009
95579W        W38492   4.278  30.925   3.505 -0.0048 -0.1089  0.0270
95580W        W38493  11.312  22.061   5.994  0.4428  0.0939 -0.4103
95581W        W38494   5.490  24.911  26.685 -0.0652 -0.0028 -0.3397
95582W        W38495  21.213  24.525   7.409 -0.2884 -0.0263  0.0085
95583W        W38496  16.133  30.103   3.542  0.0045 -0.0832  0.1498
95584W        W38497  21.634   2.748   9.254 -0.2837 -0.1372 -0.2681
95585W        W38498  18.184   0.907   9.829  0.3120 -0.0846  0.3007
95586W        W38499  11.917  28.929   9.198  0.0443 -0.0883  0.0307
95587W        W38500   0.152  21.983   6.593  0.4291 -0.0385  0.0819
95588W        W38501   8.824  28.558   8.047  0.1598  0.0549 -0.0382
95589W        W38502  13.864  29.789   6.507  0.1960  0.1889 -0.0204
95590W        W38503  13.032  19.916  19.801 -0.1826 -0.1463 -0.5935
95591W        W38504  15.487  32.270   2.309 -0.1197  0.0503  0.2571
95592W        W38505  13.707  26.964   5.486 -0.1643  0.0503  0.0900
95593W        W38506  12.253  26.569   9.431  0.1010 -0.0469  0.0261
95594W        W38507  12.812  24.477   8.000 -0.0547  0.1820  0.0199
95595W        W38508  12.560  28.990  11.332  0.1827  0.2372 -0.0872
95596W        W38509  12.603  16.419  29.051 -0.0997  0.3044  0.1988
95597W        W38510  12.626  29.557  26.697  0.2189  0.1432  0.2540
95598W        W38511  21.078  32.869   7.265 -0.0405 -0.0495  0.0736
95599W        W38512   9.938  18.890   4.008  0.2494 -0.0555  0.2732
95600W        W38513  11.437  33.803   5.463  0.2788 -0.1654  0.2730
95601W        W38514  21.026  31.956   2.768 -0.4940  0.0477  0.0341
95602W        W38515   7.666  33.856   1.588  0.4676 -0.1289  0.0179
95603W        W38516   6.956  31.909   5.634  0.1122  0.0587 -0.0015
95604W        W38517   1.878  23.616   7.970 -0.1265 -0.1306  0.0370
95605W        W38518  19.823  24.363   7.726 -0.2285 -0.4085 -0.3066
95606W        W38519  10.170  26.994   8.895  0.1493 -0.0075  0.2654
95607W        W38520   6.202   1.187  10.508  0.0613  0.4365 -0.2790
95608W        W38521  10.414  33.411   2.461  0.2470 -0.0185  0.1469
95609W        W38522  19.536  27.179   8.082  0.1523 -0.0213 -0.1271
95610W        W38523  14.415  18.159  27.490 -0.0349  0.0209 -0.0242
95611W        W38524  15.384  24.392   8.000 -0.0462 -0.0589 -0.0998
95612W        W38525  13.085  31.478   8.716  0.1690  0.0114 -0.1457
95613W        W38526  20.400  30.163   6.038  0.2333  0.1724 -0.0131
95614W        W38527  10.383  26.784   0.377 -0.2764 -0.0582 -0.3719
95615W        W38528  10.069  33.145   8.831  0.2909  0.2807 -0.0544
95616W        W38529  17.441  20.880  23.441 -0.0044  0.1604 -0.0227
95617W        W38530   7.600  27.247   1.797 -0.1292 -0.1887 -0.3752
95618W        W38531  16.840  22.320  28.412 -0.1010 -0.0160 -0.0006
95619W        W38532  14.182  15.278   5.168  0.0233  0.0875  0.1550
95620W        W38533   6.152  32.071   8.292 -0.0768  0.0665  0.0222
95621W        W38534  17.637  18.985   8.015  0.1212 -0.1316  0.1122
95622W        W38535  21.285  26.586  26.910 -0.0597  0.2551  0.1503
95623W        W38536  16.903   1.897   5.860  0.1837 -0.4757 -0.0439
95624W        W38537  19.007  24.188   6.677  0.1040  0.0044 -0.0338
95625W        W38538  20.590  30.754   4.021  0.2853 -0.0703 -0.0524
95626W        W38539   4.342  30.399   3.393 -0.0695  0.2652  0.0927
95627W        W38540   2.019  33.048   6.352 -0.2995 -0.1549 -0.2246
95628W        W38541  18.687  22.094  29.367 -0.1043  0.1115  0.2271
95629W        W38542  13.626  30.225  27.491  0.1199  0.2458  0.0541
95630W        W38543  11.875  33.109  26.619 -0.0907  0.2127  0.2462
95631W        W38544  19.693  28.605   6.879  0.0489 -0.1007 -0.0177
95632W        W38545   2.990  22.157   4.118 -0.0480 -0.1501 -0.0635
95633W        W38546  19.573  25.888   1.864 -0.1019  0.1318  0.1360
95634W        W38547  11.793  27.651   4.285  0.2544 -0.3474 -0.1691
95635W        W38548  33.837  20.895   7.846 -0.1168 -0.1699  0.0418
95636W        W38549  17.233  31.676  23.985 -0.2144 -0.3406  0.0535
95637W        W38550  14.893  26.700  27.104  0.0690  0.0231 -0.1208
95638W        W38551   9.947  20.146   7.005  0.0549  0.1282 -0.0432
95639W        W38552  10.528  21.739  23.477 -0.2257 -0.1222 -0.2062
95640W        W38553  16.288  28.411   5.086  0.0950  0.2901 -0.3655
95641W        W38554  18.119  18.603   4.047 -0.0299  0.0584  0.0378
95642W        W38555  14.113   0.296  11.396 -0.0397 -0.2497 -0.0991
95643W        W38556  22.011  26.879  26.121  0.0671  0.3631 -0.0989
95644W        W38557  30.354  30.908   1.480  0.0582 -0.1959  0.2639
95645W        W38558  19.662  24.723  29.111 -0.3214  0.1616 -0.2208
95646W        W38559   8.912  28.806   3.097  0.1861  0.0473  0.0963
95647W        W38560  11.113  26.601  10.977  0.1353  0.0871  0.0566
95648W        W38561  16.733  26.730   5.707  0.0209 -0.0289 -0.0930
95649W        W38562  21.827  33.765   6.140  0.1805  0.0133 -0.2052
95650W        W38563  11.219  29.298  27.862  0.0211 -0.3776  0.3418
95651W        W38564   6.778  27.334   6.771  0.0219 -0.1212 -0.0627
95652W        W38565  12.829  29.172  24.213  0.3007  0.0293 -0.1919
95653W        W38566  10.901  32.884   0.878 -0.0432 -0.2051 -0.2393
95654W        W38567  20.517  32.918   5.417  0.6076 -0.0912  0.2428
95655W        W38568  17.283  30.233   4.243  0.1754 -0.1343  0.1385
95656W        W38569  17.653  29.063  26.805  0.1443 -0.0709  0.0292
95657W        W38570  19.534  31.757   6.052 -0.1775  0.1496  0.2430
95658W        W38571  14.692  32.570   3.633  0.1275 -0.0152  0.0950
95659W        W38572   9.318  28.450  29.533 -0.0484  0.0975  0.2022
95660W        W38573  28.318   0.520   7.143  0.0338 -0.0098 -0.1234
95661W        W38574  19.960  33.844  28.469  0.2459  0.1454 -0.1383
95662W        W38575  16.987  19.288  27.418  0.0883  0.0275 -0.2917
95663W        W38576   6.545  23.174   7.407 -0.1001 -0.3730 -0.0181
95664W        W38577   2.568  24.133  28.822 -0.0306 -0.0114  0.0583
95665W        W38578  24.604   2.867   9.311 -0.2156  0.0205  0.1190
95666W        W38579  11.584  31.907   2.917 -0.1746 -0.0517  0.1446
95667W        W38580  15.463  23.488   3.074  0.0434  0.0256 -0.0839
95668W        W38581   9.839  27.712   5.714  0.1428  0.0161 -0.2276
95669W        W38582  11.746  29.320   2.541 -0.4680  0.0345  0.0092
95670W        W38583  13.269  25.373  27.019 -0.0815 -0.1421  0.1206
95671W        W38584  20.538  28.347   7.381 -0.0825  0.4282  0.0908
95672W        W38585  29.349  25.222   0.704  0.1166 -0.0702 -0.1913
95673W        W38586  18.578  18.231   2.473  0.3630 -0.0285 -0.5113
95674W        W38587  16.642   4.182   3.896 -0.2070 -0.0094  0.1583
95675W        W38588  11.250  24.469  29.581 -0.2426  0.0463  0.0290
95676W        W38589  13.265  27.347  10.554 -0.2076 -0.0420  0.0133
95677W        W38590   8.786   6.937   7.435 -0.3082  0.1272  0.0090
95678W        W38591  20.696  15.589   1.864 -0.1492 -0.0856 -0.0531
95679W        W38592  13.236  22.294   0.720  0.2444  0.3869  0.1502
95680W        W38593  12.819  27.525   3.728 -0.0235 -0.0840 -0.1322
95681W        W38594  23.397  26.977   7.660 -0.0135 -0.3003 -0.1045
95682W        W38595  17.437  30.236   6.957 -0.2364 -0.1317  0.1871
95683W        W38596   9.709  29.188   1.942 -0.3222  0.0126  0.0846
95684W        W38597  12.638  29.377   3.319 -0.0709 -0.2485  0.1716
95685W        W38598  12.113  19.394  28.000 -0.0389  0.0280 -0.2329
95686W        W38599  17.144  27.835   6.917 -0.2902  0.1827 -0.0836
95687W        W38600  13.399   0.037  12.265 -0.0689  0.1511  0.0904
95688W        W38601   6.653  24.793   9.080  0.3051  0.0841 -0.1435
95689W        W38602  12.431   0.800   4.221 -0.0906  0.1181 -0.1902
95690W        W38603   6.320  15.987  29.164  0.4149  0.2930  0.0860
95691W        W38604   1.483  26.836   8.318 -0.0874 -0.0330 -0.2283
95692W        W38605  10.029  32.064  11.427 -0.3450  0.2150 -0.2039
95693W        W38606   9.684  25.098   8.906  0.1181  0.1734 -0.0864
95694W        W38607  10.198  27.062   2.302  0.0284 -0.1016  0.1852
95695W        W38608   8.115  20.313   4.490 -0.1307 -0.0711  0.0779
95696W        W38609  16.658  26.656  28.680  0.1678 -0.2618  0.2420
95697W        W38610   8.042  28.790  25.697  0.1897 -0.0394 -0.1156
95698W        W38611  20.097  20.088   0.586 -0.1525  0.1342 -0.1693
95699W        W38612   8.223  31.956   1.119 -0.0401 -0.2077  0.5363
95700W        W38613  18.662  18.516   4.811 -0.1269 -0.0642 -0.1996
95701W        W38614   2.384  30.226   3.673  0.0829 -0.2514  0.1324
95702W        W38615  14.325  20.013   6.199  0.1612  0.0268 -0.1822
95703W        W38616   9.390  20.960   1.807  0.0029 -0.1777 -0.0841
95704W        W38617  14.188  15.838   8.292  0.1546  0.2393  0.0918
95705W        W38618  12.829  23.058  27.438  0.0736  0.2315  0.2793
95706W        W38619   1.668  30.792   0.186  0.0576 -0.4946  0.2143
95707W        W38620  10.310   4.966  12.110 -0.1245  0.0120  0.0447
95708W        W38621   1.297  30.968   4.992  0.3124  0.0358 -0.1514
95709W        W38622  25.583  32.572   8.464 -0.1848 -0.0775 -0.0155
95710W        W38623  13.816  23.828   9.634  0.0220 -0.0886  0.2855
95711W        W38624  12.389  21.161  23.122  0.1654  0.0819 -0.2517
95712W        W38625  22.196  25.446   3.448 -0.4133 -0.2846  0.1742
95713W        W38626  15.947  30.803   2.982  0.0455  0.1339  0.0037
95714W        W38627  19.278  27.364   4.191  0.0394 -0.4267 -0.0391
95715W        W38628   6.755   5.868   7.033  0.0325 -0.2415 -0.0360
95716W        W38629  10.322  19.242   4.987 -0.1628 -0.1939 -0.4551
95717W        W38630  13.121   0.554   3.664 -0.0004 -0.3626 -0.2075
95718W        W38631  13.742  26.364   5.393  0.0703 -0.2001 -0.1581
95719W        W38632   5.031  22.490   7.668  0.3529 -0.0630  0.0409
95720W        W38633   7.718   3.071  13.882 -0.1263 -0.2186  0.1412
95721W        W38634  15.257  21.373  28.372  0.1666  0.2595 -0.0290
95722W        W38635  17.715  28.939   9.555 -0.2208 -0.0764 -0.0008
95723W        W38636  16.434  23.146   8.524  0.1265 -0.1745  0.1846
95724W        W38637  17.343  22.054   3.599  0.0584 -0.1835 -0.1219
95725W        W38638  10.417  26.454   8.798  0.3346  0.1174 -0.0027
95726W        W38639   8.092  24.065   8.174 -0.1781 -0.1601 -0.1916
95727W        W38640   6.473  32.219   4.595  0.0121 -0.4489  0.0368
95728W        W38641  21.142  31.178   5.284  0.2779  0.2353  0.0732
95729W        W38642  14.933  21.386   8.764  0.1673  0.0714 -0.1769
95730W        W38643   1.732  29.807   5.462 -0.3049  0.0762 -0.0319
95731W        W38644  12.967  29.456   8.095 -0.0531 -0.1273  0.0747
95732W        W38645  12.078  25.782  10.162 -0.0370  0.4408  0.0002
95733W        W38646  32.469  25.763  29.335  0.0924 -0.1012 -0.2503
95734W        W38647  18.243  32.670   9.652 -0.3332  0.0007  0.0774
95735W        W38648  17.571  26.419   6.386 -0.0670  0.1886 -0.2494
95736W        W38649   6.099  25.839   7.111  0.3298  0.0577 -0.0896
95737W        W38650  15.328  18.906  26.930  0.0886 -0.1945  0.0168
95738W        W38651  11.848  27.190  23.336  0.0036  0.1038  0.0292
95739W        W38652  10.853   6.476   4.297  0.1081  0.0227  0.3204
95740W        W38653  17.341  19.184  23.353 -0.0419 -0.1699 -0.1313
95741W        W38654  19.900  31.061   9.639  0.0660 -0.1360  0.3246
95742W        W38655  10.245  27.611   3.315  0.1266 -0.1478 -0.1082
95743W        W38656  10.660   2.701  10.487 -0.2545 -0.1568  0.4407
95744W        W38657  22.022  22.734   8.835  0.2934 -0.2070 -0.0680
95745W        W38658   9.629  26.827   1.404 -0.1158  0.1427 -0.2765
95746W        W38659  21.117   4.132   8.185 -0.1819  0.0383  0.0580
95747W        W38660  16.760  19.477   8.079  0.3041  0.0246 -0.2592
95748W        W38661  12.466  24.114   2.731 -0.0421 -0.3330 -0.0536
95749W        W38662  10.004  20.842   1.015  0.4771  0.0712 -0.1698
95750W        W38663   6.082  23.917   3.539  0.2391  0.1729 -0.3321
95751W        W38664  12.124  28.302   8.598  0.3054 -0.3348  0.0866
95752W        W38665  13.564   3.727   6.635 -0.0590  0.0165 -0.2331
95753W        W38666  13.680  20.240  24.174 -0.0331  0.0325 -0.0772
95754W        W38667   8.009  31.561   1.848 -0.0774  0.0128  0.0323
95755W        W38668  11.005   0.260  11.978 -0.2067 -0.0418  0.2310
95756W        W38669  32.749  22.666   9.534 -0.5502  0.0867 -0.0111
95757W        W38670  17.066  26.779  27.862  0.2752  0.2965  0.1549
95758W        W38671  12.570  29.621   9.320 -0.2592 -0.0808 -0.1431
95759W        W38672  10.652  28.366  27.782  0.2484 -0.3335 -0.0437
95760W        W38673  16.576  26.352   6.043 -0.1272  0.2234  0.1142
95761W        W38674   7.871   1.167   7.899 -0.2135  0.2750  0.3519
95762W        W38675  16.757  26.054  20.378  0.0544  0.1754 -0.0101
95763W        W38676   0.936  23.918   7.293 -0.0870 -0.0128 -0.1336
95764W        W38677  15.251  25.070  28.539 -0.2155  0.2715 -0.3815
95765W        W38678  12.749  17.919   7.087  0.2171 -0.2145 -0.0158
95766W        W38679   6.815  33.121  10.667  0.0041  0.2449 -0.1947
95767W        W38680   7.766  33.575   5.640 -0.1226 -0.0466  0.1828
95768W        W38681  20.072  14.927   5.733 -0.1427  0.0847  0.2704
95769W        W38682   9.848   0.721  29.382  0.1971  0.1047 -0.0832
95770W        W38683  21.560   2.658  22.023  0.2134  0.2662 -0.0321
95771W        W38684  12.370  22.149   0.290 -0.0854  0.0880 -0.0029
95772W        W38685   2.258  27.375   6.883 -0.0812  0.2430  0.2130
95773W        W38686  24.732  33.910  21.969 -0.2285  0.2010 -0.0531
95774W        W38687  15.657   7.823   8.867 -0.3479  0.0104 -0.0944
95775W        W38688  11.739   1.091   6.501 -0.2682 -0.0159 -0.0373
95776W        W38689  32.509  29.499   6.929  0.0317 -0.0606  0.2148
95777W        W38690  12.610  18.993   0.574 -0.0613 -0.1064  0.2274
95778W        W38691  16.757  26.231   8.252 -0.0504 -0.2454 -0.0643
95779W        W38692   7.348  15.316   8.515  0.5718  0.1486 -0.0320
95780W        W38693   5.735  28.762   8.234  0.0566 -0.2004  0.1707
95781W        W38694   8.157  25.502   6.888 -0.2552  0.3484  0.0499
95782W        W38695  24.588  31.812   6.543 -0.1482  0.1865 -0.0265
95783W        W38696  16.781   0.264  11.320 -0.1804  0.0046  0.1715
95784W        W38697  14.035  31.557  11.752 -0.0989  0.1357  0.0112
95785W        W38698   4.953   0.088  10.394  0.3329 -0.3355  0.2110
95786W        W38699  17.713  27.519  29.046  0.0821  0.0443 -0.2287
95787W        W38700   5.091  25.910   3.966  0.0220  0.1245  0.1689
95788W        W38701  22.012  28.228   8.348  0.1446  0.0702  0.0034
95789W        W38702   9.791  25.020   5.503  0.0939 -0.1276  0.1838
95790W        W38703  16.598   3.860  10.157  0.0744  0.0186 -0.0868
95791W        W38704   4.423  32.263   0.627 -0.1418  0.1508  0.0679
95792W        W38705  12.460  31.675   2.725 -0.0340 -0.0857 -0.1497
95793W        W38706  17.565  26.993   2.648 -0.0326  0.1054 -0.2587
95794W        W38707   6.262  32.243   8.871 -0.1444 -0.1703 -0.0240
95795W        W38708   2.892  19.936   6.921 -0.1020 -0.3106  0.1007
95796W        W38709  15.993  25.705  25.156  0.0946  0.2369  0.2467
95797W        W38710  13.435  20.336  28.849 -0.4087 -0.0676 -0.1403
95798W        W38711   8.996  23.822   1.057 -0.2428  0.3142  0.1759
95799W        W38712  13.509  17.660  27.624  0.0754 -0.5476  0.3193
95800W        W38713   7.249  24.053   4.450  0.0738  0.0820  0.2593
95801W        W38714  16.726  21.558   0.411 -0.0501 -0.0718  0.0033
95802W        W38715   2.654  23.475   5.764  0.0080  0.2925 -0.0444
95803W        W38716  16.045  29.434   9.191  0.0508 -0.1114 -0.1733
95804W        W38717  13.337  31.270   4.950  0.2639 -0.3055 -0.0324
95805W        W38718  14.924  28.550   7.915 -0.1309  0.1621  0.2227
95806W        W38719  14.681  27.761   4.855  0.0363 -0.1001  0.2455
95807W        W38720   9.442   1.167  27.290 -0.1421 -0.0271  0.0057
95808W        W38721  14.132  28.603   9.682  0.0688  0.2599 -0.2452
95809W        W38722  14.665  27.494  10.457 -0.0342 -0.3297 -0.0527
95810W        W38723   5.273  26.220  28.901  0.2710  0.1125  0.0703
95811W        W38724  27.380   4.019   0.239 -0.1649  0.4877 -0.0994
95812W        W38725  11.007  27.081   3.946 -0.1037  0.2086  0.3081
95813W        W38726  13.819  31.723  26.684  0.4258 -0.0359  0.1696
95814W        W38727  15.673   2.325   6.937 -0.0203 -0.0749  0.0918
95815W        W38728   8.657  33.844   3.549  0.0614  0.0479 -0.3055
95816W        W38729  25.199  21.204   2.524  0.1161 -0.2239  0.3020
95817W        W38730  11.998  26.605   0.926 -0.3474  0.0235 -0.2364
95818W        W38731  11.401  31.578   4.690  0.0667  0.0525  0.1246
95819W        W38732  19.011   2.969   8.987  0.2073 -0.2661  0.1400
95820W        W38733  11.946  33.575   8.101  0.0025  0.2023 -0.0095
95821W        W38734  11.186  20.805  23.587 -0.0419  0.1219 -0.0347
95822W        W38735  22.644  32.253   8.963  0.2682  0.2225  0.2035
95823W        W38736  12.159  31.134   8.437 -0.0553 -0.0642 -0.3119
95824W        W38737   9.218  25.641   5.795  0.0360  0.0104  0.1788
95825W        W38738  12.068  26.339  10.193  0.1127 -0.2218  0.0401
95826W        W38739  11.172  26.978   1.815  0.3527 -0.1849  0.0356
95827W        W38740   7.741  27.584  23.809  0.3089 -0.1699  0.0155
95828W        W38741  10.144  18.214  27.522  0.0423  0.1555  0.0516
95829W        W38742   4.980  26.969   4.016  0.1020 -0.0085  0.0658
95830W        W38743   7.335  21.761   0.530 -0.5190 -0.2305 -0.2843
95831W        W38744  20.222  26.541   9.174 -0.0630 -0.0255 -0.1830
95832W        W38745  16.789  30.935   8.352  0.2075 -0.0300 -0.1917
95833W        W38746  13.231  27.673   8.079  0.0794 -0.2980  0.0922
95834W        W38747  14.094  27.310  28.974 -0.0507  0.1123  0.0180
95835W        W38748  18.850  25.952   6.846  0.0643  0.1194 -0.1712
95836W        W38749   6.238  31.739  28.304 -0.0167 -0.0944 -0.0223
95837W        W38750  17.892  22.001  27.212 -0.0846  0.0230 -0.2742
95838W        W38751  13.359   3.767   0.442  0.1340  0.1403  0.0480
95839W        W38752   6.182  26.418   5.556 -0.0883 -0.1160  0.2427
95840W        W38753  21.299  33.345   7.273 -0.1068  0.1435 -0.0434
95841W        W38754  13.776  17.180   7.402  0.1611  0.0701 -0.1144
95842W        W38755  10.602  29.264   3.476  0.2902 -0.4051  0.2066
95843W        W38756  13.770  23.561   6.302 -0.3398 -0.0465 -0.0867
95844W        W38757   7.919  29.759   3.063 -0.0136 -0.1788 -0.0032
95845W        W38758  17.417  30.314   0.068 -0.1786  0.1789 -0.2473
95846W        W38759  11.265  30.815   7.938 -0.3150 -0.1224 -0.4472
95847W        W38760   8.393   2.051  13.003  0.0095 -0.1994 -0.0701
95848W        W38761  17.779   1.717   9.048 -0.1230  0.0549  0.2027
95849W        W38762   5.464  25.766   3.599  0.2987 -0.0081  0.1196
95850W        W38763   1.939  30.875   4.134  0.2275 -0.0997 -0.1308
95851W        W38764  20.904  29.364   8.623 -0.0596  0.6352  0.0988
95852W        W38765  11.051   0.015  28.798 -0.0591 -0.0999  0.1866
95853W        W38766  13.253  33.942  11.540 -0.2230 -0.1562 -0.1148
95854W        W38767  16.085  22.334   4.197  0.3363 -0.0301  0.1644
95855W        W38768  17.963   5.769  28.615  0.0311  0.0772 -0.0680
95856W        W38769  11.670  25.083   8.808 -0.4016 -0.2230 -0.0412
95857W        W38770   5.854  15.042   4.980  0.0289 -0.3985  0.1382
95858W        W38771  16.212  18.193   3.174  0.3499  0.0587  0.2130
95859W        W38772   6.698  21.029  27.008  0.4245  0.1101  0.3703
95860W        W38773  19.266   5.589  10.161 -0.3090 -0.0692  0.3384
95861W        W38774   9.329  24.635   0.453 -0.2829  0.2415 -0.0363
95862W        W38775  25.323  21.749   2.437  0.0713  0.2852 -0.0600
95863W        W38776   4.262  23.021   9.386  0.0840 -0.1141 -0.0016
95864W        W38777  15.977  25.708   4.418  0.4008 -0.1551  0.1353
95865W        W38778  14.174  16.090  24.734  0.2574 -0.1561  0.0035
95866W        W38779  14.709  24.510  20.465 -0.1244  0.2389 -0.2938
95867W        W38780  17.189  27.553   6.483  0.0216 -0.1254  0.0360
95868W        W38781  29.837   6.833   7.124 -0.2972 -0.1552  0.4686
95869W        W38782  13.954  25.032   7.635 -0.0908  0.0232 -0.1771
95870W        W38783   7.204  24.252   5.941 -0.1079  0.3808 -0.1322
95871W        W38784  18.553  15.883   2.375  0.0781 -0.1409 -0.2085
95872W        W38785   3.498  33.067  10.501  0.1007 -0.2688  0.2254
95873W        W38786   8.890  25.559   6.257  0.1757 -0.1853  0.0723
95874W        W38787  11.778  32.214  10.970  0.0991  0.3018  0.0753
95875W        W38788   6.805  20.231  24.586  0.0187 -0.1341  0.1566
95876W        W38789  17.989  15.397  24.084 -0.1343 -0.0612 -0.2340
95877W        W38790   2.732  19.633   3.591  0.0769 -0.2695  0.0022
95878W        W38791  13.724   2.659   9.795 -0.0285 -0.2234  0.0962
95879W        W38792  13.140  31.068   6.652  0.1223 -0.0357 -0.1244
95880W        W38793   5.191  31.032   8.347  0.0311  0.1614  0.1495
95881W        W38794  12.071  34.075   9.726 -0.1538  0.1730 -0.1482
95882W        W38795  16.420  27.119   1.082 -0.2124 -0.1763 -0.1466
95883W        W38796  17.048   2.135  10.354  0.2173 -0.1538 -0.1025
95884W        W38797  14.573  25.006  27.239  0.0276 -0.0996 -0.1366
95885W        W38798  18.501  29.832   4.655  0.0384 -0.1155 -0.0680
95886W        W38799   3.323   5.373   6.885 -0.2916  0.3153 -0.2904
95887W        W38800   5.341  20.696   9.323  0.1934 -0.0231  0.0080
95888W        W38801  16.678  25.760  28.969 -0.3241  0.1421 -0.1404
95889W        W38802  18.656  13.093   1.559  0.0361 -0.3894 -0.1947
95890W        W38803  16.337  23.602   3.624  0.1880 -0.1040  0.0577
95891W        W38804  15.713   4.473   4.644 -0.0709  0.2326  0.2573
95892W        W38805   3.191   6.479   9.150 -0.0000 -0.0669 -0.5041
95893W        W38806   7.156   3.865   5.939  0.3228  0.2249 -0.1903
95894W        W38807  10.354  30.014  12.838  0.0887 -0.2448  0.0351
95895W        W38808  11.193  27.656  29.230  0.0997  0.2311  0.4071
95896W        W38809  15.534  27.419   9.632 -0.1759 -0.0289 -0.0433
95897W        W38810  19.716  20.805   5.776  0.0759 -0.1238  0.1390
95898W        W38811   7.142  27.664   8.123 -0.0019  0.1544  0.0138
95899W        W38812  12.080   1.420  13.403  0.1332  0.1110  0.0142
95900W        W38813  13.036  29.588  10.668 -0.0112 -0.2715  0.0987
95901W        W38814  18.032  30.236   9.367  0.0370 -0.0935  0.0486
95902W        W38815  12.301  31.384   5.890  0.0381 -0.0989  0.0400
95903W        W38816  11.692  29.611   4.068  0.2670  0.0472 -0.0234
95904W        W38817  13.151  21.587   4.597 -0.2276 -0.0824 -0.0162
95905W        W38818  10.383  30.781  11.082  0.0735 -0.1122  0.1275
95906W        W38819  12.756   0.136  10.078  0.2834 -0.0755 -0.0567
95907W        W38820   2.713  29.536   0.461  0.2325  0.0761  0.1513
95908W        W38821  17.835   0.798   9.070 -0.0311  0.2431  0.5226
95909W        W38822  12.164  19.970   7.244  0.1555  0.4020  0.1109
95910W        W38823  15.357  32.564  10.972  0.1032  0.1748 -0.1100
95911W        W38824  20.369  19.709   5.316 -0.0436  0.2532 -0.2116
95912W        W38825  11.382  33.059   6.535  0.1589  0.5010 -0.1969
95913W        W38826  14.404   2.211   8.216 -0.1213 -0.4775  0.2639
95914W        W38827   8.781  28.250   4.457  0.1990 -0.3186 -0.1079
95915W        W38828  10.085  24.724   5.847  0.0255 -0.2410  0.0581
95916W        W38829  34.120  10.543   2.530  0.0522 -0.2714 -0.1283
95917W        W38830  15.736  16.914  29.774  0.0886  0.0773  0.0004
95918W        W38831  28.534  27.137   0.672 -0.1542 -0.1377 -0.0898
95919W        W38832  11.193   7.020  10.380 -0.0016 -0.2618  0.0079
95920W        W38833   4.774  29.845   8.969 -0.1003 -0.2424  0.2066
95921W        W38834  11.871   0.468  12.248  0.3549  0.2020  0.2926
95922W        W38835   4.563  27.658  10.756 -0.1268 -0.0362  0.0786
95923W        W38836   9.285  24.667   9.018 -0.1628 -0.4967 -0.2878
95924W        W38837  10.148  27.250   5.784  0.1711 -0.2810  0.0495
95925W        W38838  16.168  26.244   4.440  0.1185  0.0315  0.0189
95926W        W38839  14.326  32.456  10.918 -0.2392 -0.0008 -0.1532
95927W        W38840  11.504  31.297   5.313  0.1003 -0.1227  0.2410
95928W        W38841  17.602  21.212   0.727  0.0010 -0.1473  0.1072
95929W        W38842   3.821  27.301   8.327 -0.1225 -0.0902 -0.0437
95930W        W38843  10.262  27.969  24.849 -0.1581  0.1775 -0.2920
95931W        W38844  16.222  26.660   9.103 -0.0208 -0.3061  0.2284
95932W        W38845  12.474  22.442   7.012  0.1453  0.0882 -0.1159
95933W        W38846   4.084  22.511  29.652  0.0526  0.1904 -0.0985
95934W        W38847  27.626  29.799   7.861  0.1672  0.0108  0.1757
95935W        W38848  32.639  33.135   7.661 -0.1511 -0.2424  0.1508
95936W        W38849  23.087  20.583   3.887  0.0112  0.2153 -0.0226
95937W        W38850  17.064  30.161   6.673 -0.1099 -0.1862  0.2069
95938W        W38851  10.955   1.091   7.603 -0.4804  0.1193 -0.0996
95939W        W38852   2.556   2.091   0.408 -0.0153  0.2225  0.0991
95940W        W38853  16.895  34.184   7.398 -0.0988 -0.0051  0.1654
95941W        W38854  10.434  31.095   6.854 -0.2333  0.2627  0.0799
95942W        W38855  12.016  34.332   8.209  0.3005 -0.0501  0.0613
95943W        W38856   3.663  32.211  27.111  0.1854 -0.1223 -0.2499
95944W        W38857   7.839  24.106   8.755  0.1537 -0.0309  0.3269
95945W        W38858  20.126  21.768   7.319 -0.0588 -0.1283 -0.1113
95946W        W38859  14.609   1.012   0.961  0.2399 -0.2119  0.0732
95947W        W38860   6.339  27.039   1.777  0.0197  0.0307 -0.0588
95948W        W38861  16.975  24.625  28.416  0.0306  0.0017  0.3441
95949W        W38862  18.725  25.446   6.912  0.2102  0.1375  0.2545
95950W        W38863  16.526  18.992   7.294 -0.1560 -0.1109  0.0677
95951W        W38864  10.477   4.602   7.631  0.0024  0.2996  0.1023
95952W        W38865  10.946  33.925   9.900 -0.0146  0.0060  0.1493
95953W        W38866  12.333  24.235   3.274 -0.0565  0.0859  0.2882
95954W        W38867   7.676  27.108  28.319 -0.3294 -0.2003 -0.1144
95955W        W38868  21.139  31.287   7.024 -0.0767 -0.2396  0.0665
95956W        W38869  13.833  26.448  10.922 -0.1088  0.2477 -0.1635
95957W        W38870  13.517   2.026  10.536 -0.0791  0.1851  0.3390
95958W        W38871   8.330   0.770  12.380 -0.3417 -0.3302 -0.2473
95959W        W38872   9.215  31.313   5.639 -0.1382  0.1579 -0.2294
95960W        W38873   4.439  26.568   8.793 -0.4160 -0.3037 -0.0399
95961W        W38874  18.480  27.969   7.970 -0.0092  0.2271  0.1778
95962W        W38875   5.331  28.004  22.205 -0.1322  0.0954  0.1184
95963W        W38876  14.307  22.210   0.911 -0.0956 -0.2796  0.0185
95964W        W38877  11.853   1.297   8.460 -0.0490 -0.2990  0.1765
95965W        W38878   5.866   1.878  12.864 -0.0820 -0.0050  0.0956
95966W        W38879  10.507  26.885   3.137 -0.1438  0.0484 -0.1252
95967W        W38880  21.685  25.854   5.592  0.1616  0.1123 -0.1015
95968W        W38881  11.241  23.734   9.537  0.3104 -0.0157 -0.0349
95969W        W38882   6.378  27.499   6.146 -0.0901 -0.0017  0.0494
95970W        W38883  14.297  27.568   8.327  0.1983 -0.1476  0.1613
95971W        W38884  10.931  31.855   0.979 -0.1312 -0.0091  0.2314
95972W        W38885  13.309  26.717   3.611  0.4019  0.1154 -0.2113
95973W        W38886  13.559  29.093  10.013 -0.0007 -0.0870  0.0252
95974W        W38887  10.898  28.574   9.671 -0.0263  0.1722  0.1271
95975W        W38888  10.711  29.089   6.694 -0.2891  0.2077  0.2613
95976W        W38889   9.383  10.059  22.471 -0.0195  0.0681 -0.0324
95977W        W38890   9.669  29.058   4.681  0.2164  0.0152 -0.1599
95978W        W38891  14.144  25.444   0.517  0.0275 -0.2349 -0.0467
95979W        W38892  15.525  26.330  10.467  0.0351  0.2422 -0.0839
95980W        W38893   7.680  30.273   7.910  0.1756  0.1653  0.0034
95981W        W38894   8.830   4.085   6.171  0.0761 -0.2072  0.1401
95982W        W38895  11.471  28.146  10.326  0.0984  0.0644  0.0050
95983W        W38896   2.876  34.258   5.493  0.2052 -0.4321 -0.1547
95984W        W38897  20.440   1.018   5.666  0.0097 -0.1425  0.0921
95985W        W38898  14.471  22.407  28.883 -0.3069 -0.2114  0.0975
95986W        W38899  14.251  23.080   4.177 -0.0970  0.0759  0.1958
95987W        W38900   9.045  34.457   5.601  0.0794 -0.2891 -0.0479
95988W        W38901  15.301  34.351   9.437  0.2316 -0.2533  0.1693
95989W        W38902   7.757   3.558  12.304  0.2360 -0.1225  0.1039
95990W        W38903   7.647  28.991   0.484 -0.1797  0.1348 -0.3158
95991W        W38904   9.890  22.470   7.723  0.1259 -0.0523  0.0062
95992W        W38905  16.223   2.427   5.723  0.1038 -0.0328 -0.1261
95993W        W38906  25.829  31.938   7.869 -0.1287 -0.2325  0.0688
95994W        W38907   9.104  26.707   3.263  0.1053 -0.2921 -0.1933
95995W        W38908   4.026  24.989   5.253  0.3904 -0.1772  0.0209
95996W        W38909  12.375  29.868  27.083 -0.2659  0.0186  0.0431
95997W        W38910  15.616  28.666   6.455  0.0062  0.3003 -0.0224
95998W        W38911  17.608  28.794   3.169 -0.2067  0.1735  0.3037
95999W        W38912  11.949  25.732   5.988 -0.1342 -0.0748  0.3457
96000W        W38913   3.882  28.491   5.148 -0.3135  0.1720 -0.0614
96001W        W38914  13.933  19.942  28.252  0.1262  0.0385  0.4465
96002W        W38915  30.151   0.049   7.948  0.1231  0.0339  0.1753
96003W        W38916  11.538  33.717   8.919  0.1401  0.0689 -0.1047
96004W        W38917  11.006  27.957  10.536 -0.1676  0.2121 -0.1355
96005W        W38918   3.637  20.073   4.860 -0.0232 -0.0867 -0.2158
96006W        W38919  18.148  22.262   2.527 -0.4608  0.3549  0.0425
96007W        W38920   6.478  32.890   5.015 -0.1077  0.2177 -0.1545
96008W        W38921   9.706  32.775   9.418  0.3198  0.0238  0.0155
96009W        W38922  15.406  28.433   8.609 -0.1588 -0.0125 -0.4742
96010W        W38923  33.880  31.766   9.678 -0.0260  0.5386  0.0355
96011W        W38924  10.236   0.703   9.000  0.2813 -0.0238 -0.0900
96012W        W38925  14.855  12.313   3.386  0.0063  0.1221 -0.1793
96013W        W38926  14.216   0.097   1.794  0.2620 -0.1253 -0.4334
96014W        W38927   6.588  30.501   4.562  0.1326  0.3439  0.1323
96015W        W38928   5.622  32.300   3.314 -0.4819 -0.4622  0.3469
96016W        W38929  14.826  28.521  29.618 -0.1133  0.1966 -0.5309
96017W        W38930  16.369  29.726   6.825 -0.4558  0.0073 -0.1434
96018W        W38931  14.655   2.238   4.201 -0.0101 -0.0216 -0.0004
96019W        W38932  17.283  10.965   1.545 -0.2129  0.2480  0.2009
96020W        W38933  11.159  20.314  24.117 -0.2004 -0.2488 -0.1192
96021W        W38934   3.669   3.475   8.062 -0.0010  0.1072 -0.4046
96022W        W38935  10.056  33.479   2.133  0.3447 -0.1970 -0.1248
96023W        W38936   6.923  25.146   6.379 -0.2468 -0.2153  0.1714
96024W        W38937  10.706  34.335   8.799 -0.2482  0.0947 -0.3716
96025W        W38938  18.628  27.314   8.478 -0.3091 -0.1223  0.1645
96026W        W38939   8.490   1.497   8.057  0.2173  0.1366  0.0405
96027W        W38940   5.969  28.303   5.811  0.2453 -0.0181 -0.3731
96028W        W38941  10.426  32.507   9.502  0.0799  0.0814 -0.1348
96029W        W38942  11.964  31.053  11.734 -0.0041  0.0634 -0.0493
96030W        W38943  10.199  28.222   3.859 -0.1885  0.1033  0.0234
96031W        W38944  19.967   0.680   9.684 -0.1825  0.0869  0.2441
96032W        W38945  16.468  27.068   7.065 -0.1873 -0.0994 -0.1504
96033W        W38946   8.565   2.988  11.089 -0.0546 -0.0643 -0.0185
96034W        W38947  21.443  24.921   6.195 -0.0101 -0.0663  0.0913
96035W        W38948   4.758  27.293   9.185 -0.0576  0.1173  0.1169
96036W        W38949  14.601  33.799  10.378  0.1130 -0.1589 -0.0330
96037W        W38950   7.972  32.343   8.148  0.0082 -0.1805  0.1254
96038W        W38951   7.713  28.469   9.877 -0.1767  0.0443 -0.1229
96039W        W38952   2.802   1.604   2.262 -0.1560 -0.2649  0.2251
96040W        W38953  15.294  24.442   3.034 -0.0891 -0.1436 -0.0464
96041W        W38954  16.172  20.374  24.926 -0.0272 -0.1654  0.0747
96042W        W38955  10.483  27.234   9.567  0.1018 -0.0460 -0.2060
96043W        W38956   6.187  24.898   1.721  0.0947  0.2201 -0.1911
96044W        W38957  10.336  17.070   5.795 -0.2087  0.0281  0.0779
96045W        W38958   6.219  31.399   5.496  0.1377 -0.1377  0.1719
96046W        W38959  20.842  33.285   7.163 -0.1752 -0.1802 -0.1079
96047W        W38960  11.217  29.709   7.916  0.0558  0.3197 -0.2403
96048W        W38961  24.668  21.757   3.636 -0.2036 -0.0673  0.0051
96049W        W38962  26.640   6.822   8.312  0.1410 -0.0601  0.2926
96050W        W38963   8.273  34.032   1.344  0.0514  0.0124 -0.2858
96051W        W38964  11.377  21.501   5.909 -0.4239 -0.1025 -0.0365
96052W        W38965  12.655  31.881   7.192  0.0491  0.0700 -0.1377
96053W        W38966   6.361  33.901  11.205  0.1842 -0.1053 -0.1495
96054W        W38967  19.748  34.476  29.710 -0.0309  0.1894 -0.2489
96055W        W38968  11.309   1.594  11.380 -0.2404 -0.0205 -0.4034
96056W        W38969  18.402  26.269   0.333  0.1763 -0.1849 -0.1020
96057W        W38970  14.243  31.298   7.856  0.1384 -0.0011  0.1608
96058W        W38971  10.364  26.380   4.377 -0.2026 -0.0890  0.3728
96059W        W38972  16.123  21.118  27.551 -0.2403  0.1977  0.2368
96060W        W38973  10.284  30.427   6.928 -0.1578 -0.1628  0.2584
96061W        W38974  16.133  27.782  10.233  0.0488 -0.0440  0.3627
96062W        W38975   9.221  31.757  12.275  0.0754  0.0615  0.2317
96063W        W38976   6.259  31.594   3.903  0.0141 -0.0824 -0.3401
96064W        W38977   9.910  13.831   3.331  0.3465 -0.0523  0.1913
96065W        W38978   7.002   7.843   7.850 -0.3169 -0.0378 -0.0709
96066W        W38979  16.187   7.160   5.174 -0.0764  0.0926 -0.0046
96067W        W38980  26.652  34.290   5.710 -0.1669  0.0098 -0.1269
96068W        W38981  15.064  28.719   9.076  0.0225  0.1157  0.1705
96069W        W38982  10.889  22.093   1.980 -0.0723 -0.1778 -0.2600
96070W        W38983  10.302  28.462   4.264  0.0642 -0.4753  0.2967
96071W        W38984   9.186   0.448  11.956  0.1129  0.2593  0.1184
96072W        W38985  17.620  28.432   1.789 -0.1120  0.0741  0.1138
96073W        W38986   8.005  10.265   5.584 -0.2869  0.0319  0.0883
96074W        W38987  13.944  31.379   6.884  0.0844  0.0885 -0.0518
96075W        W38988  15.797  29.598   0.104  0.0594 -0.0366 -0.4344
96076W        W38989  32.954  29.455   8.310  0.2580  0.0451  0.2410
96077W        W38990  13.040  27.393   8.500  0.0763 -0.1859  0.0622
96078W        W38991  10.388  30.189  12.373 -0.1429 -0.0318 -0.0899
96079W        W38992   9.759  33.047   9.823 -0.5194 -0.0731  0.1064
96080W        W38993   6.264  24.036   0.917  0.1038  0.1870  0.1654
96081W        W38994  15.126   0.110   6.548 -0.0627  0.2644  0.1578
96082W        W38995  19.142  24.754  21.709  0.1007 -0.1177 -0.1557
96083W        W38996  13.385  30.589   0.782 -0.4465  0.2389 -0.2223
96084W        W38997   7.252  32.621   0.205  0.0993 -0.1818 -0.0745
96085W        W38998  11.859  26.047   4.599  0.4814 -0.0403  0.0208
96086W        W38999  17.152  16.701   7.985  0.3177 -0.1133 -0.2557
96087W        W39000   3.353   0.952   4.780 -0.0514 -0.2146 -0.0712
96088W        W39001  15.460  27.079   8.578  0.1913 -0.3482 -0.0776
96089W        W39002  22.232  21.052   8.076 -0.3054  0.4320  0.1875
96090W        W39003   0.964  31.654  28.295 -0.0870  0.0789 -0.3075
96091W        W39004  16.691  23.950   8.057  0.2328 -0.2526 -0.0432
96092W        W39005   9.738  28.734   7.481 -0.3476 -0.2797 -0.1788
96093W        W39006  20.708  27.162   7.861 -0.0808 -0.1471 -0.1772
96094W        W39007   8.532  32.173   4.429 -0.1761  0.2346 -0.0696
96095W        W39008  15.353  33.759   9.591 -0.1756 -0.2437 -0.1063
96096W        W39009   6.482  27.786   7.062 -0.1346  0.1905 -0.0191
96097W        W39010  10.427   5.656   0.207  0.1225  0.1850  0.4951
96098W        W39011   9.668  27.254   2.551 -0.1334 -0.2565  0.2175
96099W        W39012  33.465  31.704   8.391 -0.0814  0.1029  0.1131
96100W        W39013  21.706  31.753   9.504 -0.0838 -0.1995 -0.0848
96101W        W39014  10.660  32.599   9.902 -0.3768 -0.0560 -0.2401
96102W        W39015  12.219   8.792   5.626 -0.2906 -0.0092  0.0647
96103W        W39016   5.713  29.133   7.322  0.0074  0.4498 -0.1128
96104W        W39017  13.876   1.304   8.080 -0.0470  0.0025  0.0301
96105W        W39018  13.651  27.445  28.716  0.0278 -0.2447 -0.0378
96106W        W39019  15.639  28.474   3.328 -0.1779  0.1357  0.0275
96107W        W39020   1.090  31.023   6.007  0.1350  0.1001  0.0673
96108W        W39021  15.981   0.131   8.503 -0.1088 -0.2803  0.0479
96109W        W39022  12.276   2.434   2.715  0.1002 -0.0017  0.2826
96110W        W39023  13.654  27.550   6.245 -0.1885 -0.2099  0.0739
96111W        W39024  18.962  32.546   3.046 -0.4704  0.0568  0.0196
96112W        W39025  13.033  24.802   7.527  0.1345  0.0905 -0.0969
96113W        W39026  24.129   0.001   9.276 -0.2126  0.0540 -0.3231
96114W        W39027   8.346  32.702  11.759 -0.0784  0.1942 -0.2243
96115W        W39028  18.656  10.432   8.544  0.0153  0.0002 -0.1547
96116W        W39029  14.821  32.015   8.590 -0.1466  0.2357  0.5651
96117W        W39030  15.261  23.733   1.162  0.4158  0.1400  0.1379
96118W        W39031   3.378  29.812   9.025 -0.1026 -0.0891 -0.0299
96119W        W39032  33.555  28.719   0.077 -0.2701  0.0345 -0.1846
96120W        W39033   9.503  24.805   4.597 -0.1766  0.1366 -0.2638
96121W        W39034   9.905  24.961   2.577 -0.1745 -0.2417 -0.0427
96122W        W39035   6.807  32.466   8.174 -0.0433 -0.2884 -0.0635
96123W        W39036   4.584  30.109   1.689 -0.3000  0.0697  0.1043
96124W        W39037   0.995   2.378   9.586  0.1031 -0.0814 -0.1403
96125W        W39038   1.609  23.623   8.866  0.0726 -0.0391  0.0363
96126W        W39039   7.930  21.913   9.212  0.0575  0.4097 -0.2893
96127W        W39040  17.556  21.302   1.971 -0.2668  0.0269  0.3520
96128W        W39041   6.596  27.864  11.009 -0.1929 -0.1939  0.2761
96129W        W39042  17.998  21.195   8.200 -0.2437 -0.0521 -0.1822
96130W        W39043  17.886  29.011   4.548 -0.0972  0.1780  0.1202
96131W        W39044  13.153  23.130   1.506  0.0357  0.2670 -0.0328
96132W        W39045  14.515   2.735   4.149  0.2735  0.0023 -0.0119
96133W        W39046  16.090  26.463   3.113 -0.1413  0.0802  0.0401
96134W        W39047  19.152  25.756   7.197  0.1039  0.1352 -0.2467
96135W        W39048   3.954  20.746   7.130 -0.2489  0.1326  0.2246
96136W        W39049   4.934  21.734  29.398 -0.2929 -0.0808 -0.2115
96137W        W39050   9.334  32.328  10.794 -0.0778 -0.1536  0.0784
96138W        W39051  30.736   2.286   7.191 -0.0276  0.0904  0.0378
96139W        W39052  13.185  23.516   6.197  0.3713  0.0837  0.1843
96140W        W39053   5.409  18.943   6.107 -0.3456 -0.1604  0.0976
96141W        W39054  14.762  23.788  29.630  0.0432  0.1353  0.3092
96142W        W39055   3.845  23.927   9.499  0.1828  0.1538 -0.1685
96143W        W39056  11.410  27.257   4.364  0.0008  0.1392  0.0499
96144W        W39057  20.953  30.233   6.641  0.1345  0.3176  0.0671
96145W        W39058  17.145   0.634   6.004 -0.1988 -0.2988 -0.1082
96146W        W39059  26.625  25.404   2.415 -0.1742 -0.0069  0.0943
96147W        W39060  21.493  26.051  28.167  0.3641 -0.0113 -0.2736
96148W        W39061  18.153  17.608   5.033  0.2159 -0.4334 -0.2836
96149W        W39062  10.584   2.523  29.484  0.0919 -0.1696  0.1887
96150W        W39063  16.137  32.022  11.202  0.0636 -0.2934 -0.0798
96151W        W39064   8.382  23.025   4.514 -0.2308  0.0308  0.1661
96152W        W39065  18.467  27.135   4.621  0.1310  0.2770 -0.1290
96153W        W39066   3.958  32.849   9.403 -0.0511  0.0238 -0.3031
96154W        W39067  10.713  25.168   9.026 -0.0392  0.0376 -0.1212
96155W        W39068  17.693  27.074   7.392  0.1861 -0.4007 -0.0722
96156W        W39069   0.677  32.205   3.236  0.0617  0.0409 -0.0469
96157W        W39070  13.614   6.322   7.782 -0.1928  0.2387 -0.0316
96158W        W39071  10.061  29.727  11.662  0.2088 -0.0344 -0.1154
96159W        W39072  11.032  27.702   7.254 -0.0885 -0.0196  0.1965
96160W        W39073   6.267  32.318   9.768 -0.0792 -0.2920 -0.0400
96161W        W39074  15.451  31.964  11.729 -0.0606 -0.0624 -0.0796
96162W        W39075  12.789  29.502   2.510 -0.0207 -0.2333  0.4055
96163W        W39076   7.055  27.404   7.165  0.0547  0.0394  0.2460
96164W        W39077   5.821  24.045   3.093  0.2633  0.0067 -0.1576
96165W        W39078  14.881  31.854  11.721 -0.0644 -0.0862 -0.0997
96166W        W39079   7.004  26.785  29.126  0.3123 -0.1590 -0.1902
96167W        W39080   5.597  30.302   8.573  0.0692 -0.1789 -0.1613
96168W        W39081  32.798  19.503   8.546 -0.0170 -0.0389 -0.2573
96169W        W39082  13.043  25.128   3.293  0.3912  0.1256 -0.0137
96170W        W39083  11.519  33.682  11.015 -0.1187  0.2460  0.0105
96171W        W39084  12.248  25.327  10.174  0.3374 -0.0439  0.0896
96172W        W39085  13.569  25.490   8.824  0.0138 -0.1590 -0.0771
96173W        W39086  14.453  30.581   6.233  0.0281 -0.2062 -0.1047
96174W        W39087  20.795  14.153  29.293 -0.0775  0.2305  0.3511
96175W        W39088   2.398  27.651   0.811  0.1740  0.1211 -0.0210
96176W        W39089  31.672  21.015  28.208  0.5112  0.1659 -0.3518
96177W        W39090   8.153   3.248  12.448  0.4521  0.1114  0.0082
96178W        W39091   6.941   5.322  29.108 -0.1399 -0.1380  0.4393
96179W        W39092  15.736   5.093   5.545  0.0943 -0.3140  0.1483
96180W        W39093  15.577  10.175  21.295  0.1512 -0.0120  0.1421
96181W        W39094  19.180  32.359  29.009 -0.0726 -0.0425 -0.2035
96182W        W39095  10.227  25.012   8.924 -0.1142 -0.2461  0.2458
96183W        W39096  15.660  23.830   3.288 -0.2856 -0.0030 -0.1305
96184W        W39097  13.272  33.557   7.558  0.3164 -0.0264 -0.2320
96185W        W39098  27.195  24.439   5.156 -0.1891 -0.1815  0.0498
96186W        W39099  18.736  29.835   5.762 -0.2786 -0.1405  0.1385
96187W        W39100   5.108   4.791   4.638  0.0017  0.2543 -0.3438
96188W        W39101  16.398   2.296   6.699 -0.1852 -0.0894 -0.0351
96189W        W39102  20.537  14.948   5.396  0.0706 -0.1549  0.0544
96190W        W39103  12.803  30.683   6.279 -0.3548  0.2616 -0.0543
96191W        W39104  11.351  27.813   6.867 -0.2556 -0.0993  0.2124
96192W        W39105  17.771  27.769   9.065  0.0872 -0.0969 -0.2082
96193W        W39106  10.727  23.263  26.029  0.2092  0.0395  0.0416
96194W        W39107  14.924  30.087   0.248 -0.1177 -0.0587  0.0659
96195W        W39108  12.699  31.143  10.387 -0.3164  0.1251  0.0649
96196W        W39109  10.002   4.838  11.158 -0.1985 -0.1744  0.0004
96197W        W39110   9.863  34.060   9.465 -0.2274 -0.1538 -0.1725
96198W        W39111  10.519   2.428  12.235 -0.3968  0.3909  0.1435
96199W        W39112   6.506  33.475   7.860  0.0915  0.4306 -0.1757
96200W        W39113  12.968  22.433  29.070  0.1342 -0.0106  0.0734
96201W        W39114   8.690  31.471   5.395 -0.2228  0.1396 -0.3918
96202W        W39115  18.624   6.402   3.752 -0.1342  0.0725  0.1674
96203W        W39116   7.248   2.602  11.325 -0.0217 -0.1102  0.1725
96204W        W39117  10.468  32.879   9.013 -0.0989  0.0593 -0.4284
96205W        W39118  13.990   3.428   7.588  0.0125 -0.0978  0.2285
96206W        W39119  16.231  17.934  29.256 -0.0214 -0.1433  0.0923
96207W        W39120   9.197   0.455   9.524 -0.1596  0.1421  0.2447
96208W        W39121  21.441   6.381   9.430  0.1538 -0.1427  0.0035
96209W        W39122   4.187   1.279  26.622  0.1840  0.1047 -0.0398
96210W        W39123  16.663  30.927   5.369 -0.1651 -0.1036  0.1391
96211W        W39124  33.538   5.285   7.907  0.1385  0.0906  0.0910
96212W        W39125  16.374  29.538   8.474  0.1885 -0.1655 -0.2793
96213W        W39126  19.110  30.349   3.304  0.0406 -0.0165 -0.1383
96214W        W39127  21.962  24.877   4.449  0.4141 -0.1936  0.0510
96215W        W39128   3.988  27.644  25.107  0.0908 -0.1708  0.1653
96216W        W39129  10.980  24.340  23.557 -0.1983 -0.1600 -0.1459
96217W        W39130   8.719  29.641  26.554  0.1173  0.0895 -0.0176
96218W        W39131  14.605  30.687  28.081 -0.1068 -0.0148 -0.1701
96219W        W39132   4.735  28.439  29.667 -0.3494  0.1684 -0.0600
96220W        W39133  13.344  28.587   6.356 -0.1219 -0.2991 -0.2237
96221W        W39134  14.196  33.619   3.062 -0.1155  0.2804  0.1706
96222W        W39135   0.690   7.720  27.227 -0.1203  0.2004 -0.0199
96223W        W39136  32.211  28.126  26.454 -0.0867  0.1002  0.0629
96224W        W39137  18.105  24.247   8.252  0.2203  0.0349 -0.2663
96225W        W39138  14.083  25.006   0.951 -0.0460  0.0970 -0.2509
96226W        W39139   9.681   2.235   3.981 -0.0094  0.1105  0.0374
96227W        W39140  15.963  30.320   5.737  0.1574 -0.6572  0.2472
96228W        W39141   4.946  25.273  28.662  0.0262  0.0508  0.2150
96229W        W39142  15.842  27.818  24.138 -0.0456 -0.0784 -0.0935
96230W        W39143  22.122  33.571   2.404  0.1799  0.1994  0.2129
96231W        W39144  23.785  24.618  16.615  0.1664  0.1131  0.1582
96232W        W39145  14.074  27.733  11.030 -0.3608  0.3827 -0.0096
96233W        W39146  18.287  31.099  26.274 -0.0619  0.0525  0.0903
96234W        W39147  17.945  20.131  24.315  0.0171 -0.0676 -0.0088
96235W        W39148  19.888  32.345  28.336  0.2846  0.3448  0.1004
96236W        W39149   9.793   0.575   8.119 -0.1326  0.3734  0.0259
96237W        W39150  31.318  28.773   6.167 -0.2699 -0.2542 -0.0594
96238W        W39151   9.995  32.433  28.652 -0.1172  0.0564 -0.0363
96239W        W39152   8.989  33.033   2.522  0.0953  0.1501 -0.0193
96240W        W39153  16.729  30.026  11.088  0.2186  0.0249  0.0449
96241W        W39154  13.061  21.905  18.756 -0.4769  0.0246  0.2364
96242W        W39155  19.544  11.567   5.507  0.2989  0.1891  0.2385
96243W        W39156   8.376  31.425   1.402  0.2013 -0.1537 -0.0665
96244W        W39157   9.611  14.582   3.106 -0.1389 -0.0144 -0.0727
96245W        W39158  11.239  23.102   4.919  0.2136  0.0489 -0.2103
96246W        W39159  10.603  26.270   7.956 -0.0786 -0.1983 -0.2520
96247W        W39160   8.508  30.794  29.136 -0.2602  0.1974  0.2509
96248W        W39161   3.926  30.153  10.852 -0.1044 -0.0877  0.0686
96249W        W39162  17.487  31.531   1.381 -0.2592  0.0784 -0.2033
96250W        W39163  17.095   0.400   2.333  0.0599 -0.0317 -0.0332
96251W        W39164   8.825  27.607   7.986  0.1638 -0.3739  0.3214
96252W        W39165  17.429   4.488   6.008  0.1815  0.0767  0.1022
96253W        W39166  32.018  31.647  27.248  0.2435  0.2159  0.0240
96254W        W39167  11.077  24.454  19.826 -0.3194 -0.2032  0.2961
96255W        W39168  16.756  24.210  28.861 -0.0539 -0.1151  0.2210
96256W        W39169  15.298  32.355   1.751  0.2702 -0.1376  0.0762
96257W        W39170  31.354  26.483   3.056  0.1063  0.1830  0.0895
96258W        W39171   5.236  33.924  27.234 -0.2609  0.1634 -0.2003
96259W        W39172   8.846  34.402  29.096  0.3740 -0.2576  0.0143
96260W        W39173   7.904  26.381  26.435 -0.2256  0.0511  0.0400
96261W        W39174  15.520  27.475   2.507  0.0488  0.1647  0.1559
96262W        W39175  17.969   0.388   9.719 -0.0741  0.1416  0.1748
96263W        W39176  13.905  31.132  23.038 -0.0287  0.0443 -0.1606
96264W        W39177   2.573  24.771   9.071 -0.1850 -0.2191 -0.0483
96265W        W39178  15.500   1.178  28.609  0.1189 -0.0977  0.0264
96266W        W39179  11.159  29.920  27.271  0.2234  0.0128  0.0827
96267W        W39180  12.681  31.817   8.145 -0.2066 -0.0758 -0.0034
96268W        W39181  32.705  32.575  25.334  0.0349 -0.0069 -0.4966
96269W        W39182  10.161  33.676  23.100 -0.1629 -0.2219  0.1612
96270W        W39183   9.532   4.000  26.810  0.3598 -0.1482  0.4276
96271W        W39184   4.863  33.673  10.843 -0.1743 -0.1403 -0.2258
96272W        W39185  16.991  31.569  10.690 -0.0503 -0.1915 -0.0300
96273W        W39186   5.915  31.724   8.669 -0.0191  0.0706 -0.3563
96274W        W39187  12.827  24.887  20.029 -0.0915 -0.2859 -0.0835
96275W        W39188  14.653  22.309  29.657  0.0416  0.1801  0.1296
96276W        W39189  22.276  30.109   0.449 -0.0754  0.3252 -0.0375
96277W        W39190  20.792  30.596   5.025 -0.0979 -0.1508 -0.2566
96278W        W39191   8.129  14.689  25.345  0.1946  0.2762  0.0227
96279W        W39192  11.244  32.788   3.938 -0.3370  0.1185  0.2819
96280W        W39193   5.164  34.392  26.588  0.2058 -0.3276 -0.1112
96281W        W39194  18.610   2.235   6.584 -0.1811 -0.0570  0.3583
96282W        W39195  16.149  24.001   6.254 -0.0799 -0.0257  0.1997
96283W        W39196  13.567  29.401   2.997  0.1880  0.2529  0.0089
96284W        W39197   8.668  28.527   0.325  0.1796  0.0986  0.2755
96285W        W39198  21.114  26.304  28.382 -0.3565 -0.0112 -0.0918
96286W        W39199   7.759  33.979   7.163  0.1389  0.0973 -0.1708
96287W        W39200  10.167   0.288   6.145 -0.0350 -0.0975 -0.0178
96288W        W39201  19.475  25.617   0.582 -0.3361  0.1698  0.2882
96289W        W39202  13.073   2.338   3.162  0.1700  0.0442  0.1220
96290W        W39203  21.391  28.943   2.562 -0.1683  0.1665  0.1501
96291W        W39204  14.923  25.303  24.263 -0.0137 -0.0397 -0.0980
96292W        W39205  22.290  33.440   6.806  0.3211  0.0445 -0.0547
96293W        W39206  18.563  24.191   4.181  0.0425 -0.2310  0.2375
96294W        W39207  14.632  18.409  14.628 -0.1932 -0.0638 -0.2132
96295W        W39208  24.627  27.220   5.321  0.2132  0.1355  0.2001
96296W        W39209   7.125  30.972   5.982 -0.0076 -0.0704  0.0622
96297W        W39210  14.701  16.829   4.029  0.0847  0.1187 -0.1294
96298W        W39211  17.393  28.693   7.139 -0.0436  0.1713 -0.0380
96299W        W39212  18.749  29.116   0.099 -0.1544 -0.1276 -0.0293
96300W        W39213  12.891  27.345  24.447  0.0426 -0.4335 -0.1450
96301W        W39214   4.514   1.286   3.997 -0.4694  0.1186  0.1914
96302W        W39215   2.720  23.174  27.221  0.0323  0.1487  0.3343
96303W        W39216   9.299   3.843   7.327  0.1222  0.0899 -0.0944
96304W        W39217  22.394  30.006   4.579 -0.3992  0.1675 -0.1288
96305W        W39218   3.477  25.801  16.588  0.0478  0.0390  0.2265
96306W        W39219  16.000  27.614   8.842  0.1504 -0.0048 -0.2403
96307W        W39220   6.620   2.812  20.563 -0.0731 -0.0875  0.0109
96308W        W39221  19.877  23.877   7.039 -0.1241  0.0172  0.3618
96309W        W39222  12.117   1.594   6.201  0.3085 -0.3614 -0.0516
96310W        W39223   5.283  29.296   3.372 -0.0295 -0.1239 -0.0893
96311W        W39224   6.701  27.720  29.776  0.2323  0.0127  0.1852
96312W        W39225  18.106  22.432   7.086 -0.0601 -0.2308  0.1062
96313W        W39226  19.194  34.192   6.053 -0.2677  0.0428 -0.0026
96314W        W39227  12.461  22.180  21.648 -0.1467  0.0898 -0.1487
96315W        W39228  18.377  28.302   3.304 -0.1709 -0.3917 -0.2077
96316W        W39229   1.987  29.786  27.113  0.2056 -0.0314 -0.0702
96317W        W39230   0.200  28.312  28.599  0.0155 -0.0569 -0.2172
96318W        W39231  13.929  26.612   6.724 -0.1095 -0.0252  0.0186
96319W        W39232   3.842  26.992   0.079 -0.1616  0.1195  0.1062
96320W        W39233  10.620  20.063   6.689 -0.0501  0.0929 -0.3317
96321W        W39234  11.534  29.951   8.368  0.1651  0.0754 -0.1070
96322W        W39235   8.104  20.198  27.598 -0.0108 -0.1041  0.0940
96323W        W39236  28.022  27.090   3.312 -0.1228 -0.0069  0.2595
96324W        W39237   7.195  34.450   1.770 -0.0009  0.2126 -0.0974
96325W        W39238   5.732   5.659  10.241  0.3091  0.0463  0.3831
96326W        W39239  19.603  26.031   7.847 -0.1775  0.0052  0.1177
96327W        W39240  19.079   7.833   3.398  0.0392 -0.0865 -0.1018
96328W        W39241  12.065   5.425  10.343  0.0402 -0.1381 -0.1364
96329W        W39242  12.206  29.156   2.628  0.0686 -0.1133  0.0886
96330W        W39243   4.671  29.606   9.423 -0.1389 -0.0178  0.1758
96331W        W39244  12.548  32.110   1.340  0.0138 -0.0376 -0.1625
96332W        W39245   7.045  21.371  25.411 -0.1703 -0.0053  0.1494
96333W        W39246  15.443  31.897  25.866  0.0850 -0.0637  0.3450
96334W        W39247  23.772  24.029  26.241 -0.0633 -0.1116  0.0959
96335W        W39248  16.535  28.791   0.359 -0.0007 -0.2167  0.0825
96336W        W39249  13.659  22.802   0.276  0.1997  0.2897  0.0150
96337W        W39250  10.427  27.688   0.216  0.1929 -0.2135  0.2360
96338W        W39251  15.983  28.384   6.102 -0.0224 -0.0275  0.2029
96339W        W39252  12.573   7.298  26.254  0.0415 -0.0249 -0.1379
96340W        W39253  31.007   1.294   0.973 -0.3384  0.1684  0.1562
96341W        W39254  12.752  27.730  28.412  0.1458  0.0212  0.0588
96342W        W39255  23.016   4.847  28.681  0.3267 -0.0102  0.3040
96343W        W39256   9.527  29.766  23.806 -0.0009  0.0172 -0.0125
96344W        W39257   3.825   2.604   1.045 -0.2838 -0.0262 -0.4486
96345W        W39258  20.580  23.435   5.044  0.0067  0.4332 -0.0712
96346W        W39259  17.014  26.017   7.541  0.3965  0.0435 -0.0330
96347W        W39260   7.267   0.064   2.330  0.2910 -0.0815  0.1038
96348W        W39261  17.765   1.486  26.867 -0.3568 -0.0602 -0.2233
96349W        W39262  11.923  29.273  11.738 -0.0127 -0.3499 -0.2001
96350W        W39263   0.355   2.255  24.202 -0.2232 -0.0104 -0.0090
96351W        W39264  27.087  27.375   5.635 -0.2115  0.1042  0.0599
96352W        W39265   7.207  23.970   1.518  0.0509 -0.1966 -0.0205
96353W        W39266   7.719   0.628   2.210 -0.2315 -0.1432  0.0274
96354W        W39267  14.852   5.691   1.784  0.0459  0.1373  0.3751
96355W        W39268  11.231  28.705  18.205  0.1593 -0.2921  0.1593
96356W        W39269  12.548  24.672  28.598  0.1692  0.2619 -0.2117
96357W        W39270  17.186  31.176   0.381 -0.2018 -0.0353 -0.0671
96358W        W39271  33.270   2.536  28.826  0.2070  0.2313  0.0520
96359W        W39272  27.077  34.411  28.977 -0.1155  0.1234  0.2254
96360W        W39273   8.191  33.304  29.318 -0.0167  0.1100  0.1395
96361W        W39274  18.981   1.699  16.731 -0.1195 -0.2599  0.0209
96362W        W39275  16.258  29.379   1.023 -0.0521 -0.0781 -0.1741
96363W        W39276   9.962  29.024  29.048 -0.0291 -0.1202  0.0698
96364W        W39277  18.034   1.535   1.208  0.0906 -0.0306  0.1666
96365W        W39278   6.840  33.533   6.024  0.0116 -0.2188  0.1103
96366W        W39279  13.673  25.183   0.578 -0.2218  0.0208 -0.1422
96367W        W39280  12.366   3.504   4.716  0.0851  0.0086  0.3713
96368W        W39281  15.003  19.300   3.270  0.2254 -0.1327  0.1218
96369W        W39282  17.668  29.844  27.054  0.2312  0.2520  0.0334
96370W        W39283  14.902   0.496   3.091  0.2539 -0.3851  0.0977
96371W        W39284  17.646  33.608   0.227 -0.1661 -0.0014  0.2615
96372W        W39285  33.871  27.477  24.074 -0.5033  0.0468 -0.1675
96373W        W39286  13.250  29.281  28.584  0.1274 -0.1359  0.1760
96374W        W39287  11.596  33.373   3.956 -0.1918  0.0842  0.0654
96375W        W39288   8.839  26.283  16.339 -0.0045  0.0169 -0.1041
96376W        W39289  11.153  22.174  24.782  0.0926 -0.0426  0.0862
96377W        W39290  12.638  32.187   4.776  0.0852  0.1330 -0.0578
96378W        W39291  13.309  31.622  23.157 -0.0512  0.2247  0.1750
96379W        W39292   9.711  34.237   1.947 -0.0328 -0.1290  0.1178
96380W        W39293  14.583   0.700   3.542 -0.1271  0.3297  0.2560
96381W        W39294   7.408   4.113   1.245 -0.0793 -0.0454 -0.1369
96382W        W39295  17.752  29.510   0.332  0.0625 -0.1678 -0.0494
96383W        W39296  33.790  27.879  19.063 -0.0770 -0.2170 -0.1010
96384W        W39297  11.657  30.486   8.687  0.1241  0.0863 -0.3452
96385W        W39298  16.922   1.721  24.918 -0.2507  0.1617 -0.1218
96386W        W39299  17.188  33.046   2.236  0.1374 -0.1121  0.2027
96387W        W39300   4.674   0.404  24.727 -0.6353 -0.0877  0.2221
96388W        W39301  11.100  26.046   2.987  0.2018 -0.0401  0.1499
96389W        W39302  14.761  22.069   7.192 -0.0427  0.0251  0.1615
96390W        W39303  16.151   2.352   8.460  0.2074 -0.1530 -0.3234
96391W        W39304  20.103  10.542   0.999 -0.0871 -0.1422 -0.0351
96392W        W39305  10.285  29.442   5.088 -0.0231 -0.2204  0.3203
96393W        W39306  13.642  10.838   4.766  0.0489 -0.1197 -0.2485
96394W        W39307  18.983  34.392  24.976  0.1234  0.0196 -0.2400
96395W        W39308   0.636   2.331  29.741 -0.1101 -0.0505 -0.2626
96396W        W39309  14.658   1.785   1.994  0.0995 -0.0665 -0.2081
96397W        W39310   9.483  31.228  24.555  0.4062 -0.2280  0.3526
96398W        W39311  11.021  17.390  29.278 -0.0245 -0.2064  0.2430
96399W        W39312  14.383   2.818  21.598 -0.0694  0.0039  0.0636
96400W        W39313   6.356  24.785   7.212 -0.1365 -0.0646  0.0083
96401W        W39314  14.777   0.291  23.513  0.1410  0.0576 -0.1515
96402W        W39315   9.547  30.346   3.500 -0.2065  0.1280 -0.0387
96403W        W39316  10.306  33.019   3.912  0.4082  0.2168 -0.1211
96404W        W39317  11.970  24.278  27.446 -0.1132  0.0326  0.1779
96405W        W39318  16.783   1.819   0.836 -0.1733 -0.2229  0.0687
96406W        W39319  12.679   0.579  27.539  0.0659 -0.1807 -0.2993
96407W        W39320  11.265  29.724   3.191  0.1298 -0.0068 -0.0737
96408W        W39321  14.003  30.762   4.254 -0.0237  0.2048  0.1546
96409W        W39322  15.523  31.124   0.201  0.0581  0.1131 -0.1015
96410W        W39323  13.473   2.156   8.483 -0.3750 -0.1057  0.1793
96411W        W39324  13.896  32.295   6.544  0.1480  0.2097 -0.1900
96412W        W39325  11.187   4.784   5.559 -0.2766  0.0993  0.2101
96413W        W39326  28.970  20.219  21.374  0.3409 -0.0502  0.1164
96414W        W39327  11.461  30.942  22.951 -0.0444 -0.0203  0.0493
96415W        W39328  19.612  30.996   4.311  0.1773 -0.3507 -0.0416
96416W        W39329  13.761   0.650   7.227  0.0395  0.0226 -0.1674
96417W        W39330  13.615  28.150  29.362  0.1423 -0.3692 -0.0848
96418W        W39331   6.808   0.160   8.893 -0.1369 -0.0232  0.3421
96419W        W39332  11.105  34.484  10.497 -0.1111  0.0651 -0.0850
96420W        W39333   6.515  15.129   5.303  0.4061  0.0163  0.1291
96421W        W39334   2.886  32.009   3.900  0.0333 -0.2306  0.0391
96422W        W39335  14.110  22.190  24.064 -0.1341  0.4365  0.1406
96423W        W39336   8.192  30.794  10.289  0.0173  0.3653  0.1240
96424W        W39337  23.550  29.818   6.129  0.0793 -0.1171  0.0754
96425W        W39338   2.811  29.032   6.472 -0.1149  0.0462 -0.1555
96426W        W39339  13.143  27.725  24.162  0.1737 -0.3413  0.2457
96427W        W39340   3.515  32.085  27.589 -0.0664  0.0767  0.3873
96428W        W39341  19.808   8.197   6.882 -0.2294  0.0562  0.1631
96429W        W39342  13.827  22.010   8.805  0.2891  0.2185 -0.0021
96430W        W39343  15.446   4.038  29.195 -0.2212 -0.1754 -0.3082
96431W        W39344   9.537   5.341  12.449  0.0652 -0.1871  0.1028
96432W        W39345  10.874   7.550  23.912 -0.2023 -0.1146  0.2994
96433W        W39346  17.969  28.705   3.794  0.2207  0.0109 -0.1116
96434W        W39347   3.240  26.060  27.466 -0.0356 -0.0638  0.1641
96435W        W39348  24.960  26.662   8.185 -0.1146 -0.1907 -0.1378
96436W        W39349  13.269   0.416  28.526  0.2931  0.3797  0.2002
96437W        W39350  33.377  25.557  29.612 -0.3505  0.0054  0.1310
96438W        W39351  10.536  28.829  27.263 -0.0831  0.2366 -0.2087
96439W        W39352  17.286   5.028  26.595 -0.3172  0.1794  0.1277
96440W        W39353  23.677   2.179   4.490 -0.5059 -0.0716  0.0791
96441W        W39354  33.959  26.141   5.658  0.0508  0.4074  0.2093
96442W        W39355   8.886  22.270   3.690  0.3258 -0.0608 -0.1413
96443W        W39356  19.379  30.741   7.962  0.1352 -0.0244  0.2490
96444W        W39357  22.375  33.648  23.147 -0.0563  0.1031 -0.0690
96445W        W39358  11.780  28.415  29.402  0.3096 -0.0631  0.1899
96446W        W39359  15.941  24.443  23.254 -0.1288 -0.2982 -0.0818
96447W        W39360  13.921  20.615   2.807  0.2477  0.0477 -0.1812
96448W        W39361  31.720   7.606   4.907 -0.0274  0.0773 -0.2921
96449W        W39362  10.982  28.869  27.554  0.2122 -0.0794  0.2328
96450W        W39363   9.798   5.778  28.481 -0.2920  0.1846 -0.0347
96451W        W39364   9.241  19.299  26.450  0.2058 -0.0552  0.0755
96452W        W39365  17.526   1.349   8.844  0.1755  0.0650 -0.0848
96453W        W39366   5.954   6.348   7.776  0.2290  0.1335 -0.0783
96454W        W39367  18.441  33.652   0.675 -0.0058 -0.0296 -0.2247
96455W        W39368  17.023  21.763   3.298 -0.2583  0.1513  0.0092
96456W        W39369  24.234   0.053   7.893  0.2105 -0.0515  0.1952
96457W        W39370  15.207  20.966  28.122 -0.1193 -0.0473 -0.0849
96458W        W39371  13.951  25.354   4.322 -0.3906 -0.2491 -0.0284
96459W        W39372  11.802  22.609  29.136  0.0197 -0.0719 -0.0712
96460W        W39373   5.588  14.950  22.034  0.0916 -0.0576 -0.0413
96461W        W39374   2.403   7.613  10.922  0.1787  0.0166 -0.5379
96462W        W39375  16.162  26.695  27.633 -0.0541  0.0859 -0.6629
96463W        W39376   4.095  32.350  10.915 -0.1119 -0.2923  0.1135
96464W        W39377  25.261   1.756   8.540  0.0055  0.0024 -0.0872
96465W        W39378  28.800  27.412   6.196  0.3861 -0.0922 -0.4855
96466W        W39379  14.398  33.406  27.651 -0.1004 -0.2723  0.0884
96467W        W39380  25.259   3.355   2.536  0.0659  0.1127  0.0239
96468W        W39381  22.260   0.828  22.122 -0.0639  0.0804 -0.0696
96469W        W39382   4.238   1.747   3.280  0.0057 -0.1756 -0.0529
96470W        W39383   3.052   5.918   6.221 -0.0662 -0.0133 -0.1531
96471W        W39384  14.435  32.364   8.319 -0.2289  0.0863  0.0045
96472W        W39385  28.167  25.343   2.634  0.3376  0.0359 -0.1089
96473W        W39386   9.960  22.178  25.104  0.3557 -0.0984  0.3156
96474W        W39387  14.041   8.581   2.609  0.1209 -0.3363 -0.2509
96475W        W39388  15.623  32.554   1.422  0.1899  0.0781  0.0699
96476W        W39389   7.792  32.160   2.774  0.0267 -0.3521  0.2050
96477W        W39390  12.455   0.845  26.231 -0.1685  0.0509  0.0923
96478W        W39391  17.654   0.192   7.853  0.1943 -0.0091  0.0861
96479W        W39392   7.055  27.035   3.213  0.1838  0.0038  0.0724
96480W        W39393   6.992   6.425  28.608 -0.2407  0.0544 -0.2154
96481W        W39394  18.713  29.357  28.250  0.2346 -0.0785  0.0799
96482W        W39395   5.194  21.114  18.157 -0.3887 -0.2003  0.1286
96483W        W39396   0.348  33.884   7.186  0.1409 -0.0235  0.4198
96484W        W39397  24.888   0.630   9.266  0.0712  0.1300  0.1231
96485W        W39398   7.753   4.876   6.326  0.1340 -0.0768 -0.2830
96486W        W39399  12.280  24.973   6.951  0.1265  0.0980  0.0617
96487W        W39400  32.682  22.798   6.428  0.1440  0.0694 -0.1441
96488W        W39401   4.002  29.403  26.016  0.3000  0.0354  0.0248
96489W        W39402   8.405  33.455  10.200  0.1107  0.1729  0.1342
96490W        W39403   7.664  33.000   2.443 -0.2490  0.3406 -0.0510
96491W        W39404  24.835  17.214   4.099  0.1647 -0.0819  0.1622
96492W        W39405  10.479  33.048   7.564  0.1352 -0.2271  0.1056
96493W        W39406  18.706  27.053   1.205 -0.1981  0.0399 -0.0244
96494W        W39407   8.233  33.021   6.800  0.0659 -0.0139  0.1467
96495W        W39408  10.762  27.629  22.321 -0.0229 -0.1270  0.1218
96496W        W39409  14.135  26.993   0.040 -0.0954  0.2550  0.0786
96497W        W39410  15.975  19.135   1.460 -0.0932  0.3510  0.2174
96498W        W39411   7.190  29.198   6.094  0.0979 -0.4562  0.0162
96499W        W39412  23.251  24.340  24.395 -0.2984 -0.0605  0.0837
96500W        W39413   9.389  22.558  28.246  0.0190  0.0367 -0.3701
96501W        W39414  16.495   1.805  26.554  0.0219 -0.0662 -0.0412
96502W        W39415  16.582   1.690  29.755 -0.0300 -0.0687 -0.0333
96503W        W39416  12.019  30.362   5.630 -0.0769  0.2995  0.0847
96504W        W39417   4.003  32.441   0.848  0.1883 -0.1785  0.0402
96505W        W39418   3.443  29.300   0.949  0.2062  0.1068  0.1580
96506W        W39419  23.839  31.302   1.130 -0.3537  0.0130  0.2685
96507W        W39420  16.053  26.871   1.823 -0.0389  0.0193  0.1581
96508W        W39421   5.787   3.388   5.569  0.1134 -0.3271  0.2188
96509W        W39422  15.537  29.534  23.656 -0.0711 -0.4717 -0.1778
96510W        W39423  15.921   1.816   4.236  0.0867 -0.0453  0.0650
96511W        W39424   6.215  31.691  28.839 -0.2134  0.0825  0.2383
96512W        W39425  11.305   7.716   9.342 -0.0189  0.1988 -0.0643
96513W        W39426   6.660  11.294  21.723  0.1502 -0.1015  0.1236
96514W        W39427  15.841  33.485   0.991 -0.1169  0.0985  0.0128
96515W        W39428  10.793  21.374   4.177  0.0936 -0.2763 -0.0690
96516W        W39429  15.171   0.675   4.406 -0.2061 -0.1155 -0.3010
96517W        W39430  15.102  34.240   1.278  0.0653  0.0154 -0.0742
96518W        W39431   9.956  28.579  26.609  0.1124 -0.0143 -0.0392
96519W        W39432  13.621  33.103  25.063 -0.0445  0.2274 -0.2120
96520W        W39433   5.166  10.855  29.474 -0.0537 -0.1436 -0.1498
96521W        W39434  11.797  27.592   9.303  0.1443 -0.1738 -0.1695
96522W        W39435   9.624  33.996  12.349  0.2628 -0.1050 -0.3248
96523W        W39436  17.755  13.252  13.578  0.0779 -0.2898 -0.1483
96524W        W39437  17.994   0.808   5.984  0.0961 -0.3317 -0.0667
96525W        W39438  24.955   0.003   4.901 -0.0305 -0.1465  0.3052
96526W        W39439  15.156  32.269  21.655  0.0907 -0.1280  0.2844
96527W        W39440  21.436   4.917   7.329  0.2353 -0.2751 -0.1307
96528W        W39441   7.021  30.320   2.699  0.1428 -0.0593  0.4240
96529W        W39442  12.974  26.627  24.225 -0.2676 -0.1636  0.0681
96530W        W39443  18.659  32.012  28.258 -0.1743  0.1386 -0.1707
96531W        W39444  11.834  19.540  23.505 -0.1650  0.0410 -0.0187
96532W        W39445  31.170  29.304   4.242 -0.1350  0.1982  0.1334
96533W        W39446  13.793  26.854   7.508  0.3619  0.1457 -0.1965
96534W        W39447   7.971  33.556   0.597  0.1904  0.0077  0.0846
96535W        W39448  14.529  19.242   4.569  0.2721 -0.0578 -0.0571
96536W        W39449  14.049   1.976   7.171 -0.2400 -0.3711 -0.0218
96537W        W39450  18.536  27.395   7.971 -0.0307  0.3497 -0.1098
96538W        W39451   7.225   1.014  10.777 -0.2201  0.2409  0.3260
96539W        W39452  11.948   5.534   0.274 -0.0323  0.2856 -0.5426
96540W        W39453  26.300  24.050   3.728 -0.1444  0.3787  0.1249
96541W        W39454  20.860   9.549  21.845 -0.1634 -0.0326  0.1857
96542W        W39455  12.865   5.366  10.577 -0.0974  0.3197  0.1408
96543W        W39456  15.330   0.972  19.973  0.1850  0.0116  0.2522
96544W        W39457  15.872  27.009  23.487  0.0651  0.2314  0.1649
96545W        W39458  18.200  20.171  24.847 -0.2262  0.1844 -0.4439
96546W        W39459  20.878   1.414   3.243 -0.2782 -0.2160  0.3847
96547W        W39460   3.730  21.586   4.427  0.0152  0.0347  0.0830
96548W        W39461  16.390  25.770   1.087 -0.2763  0.1002  0.1501
96549W        W39462  23.596  31.439   4.856  0.0459 -0.1145 -0.0264
96550W        W39463   3.833   6.882   7.004 -0.1602  0.3712 -0.0687
96551W        W39464  17.594  23.087  20.116 -0.3388 -0.1969  0.2151
96552W        W39465  16.935  21.341   4.161  0.0170  0.0755  0.1038
96553W        W39466  11.341  31.675   5.559 -0.1738  0.0988  0.4381
96554W        W39467  23.378   0.128   4.439 -0.2802 -0.0371  0.1664
96555W        W39468   9.433  20.313   1.294 -0.1051 -0.0162 -0.0220
96556W        W39469   0.850  27.070   6.803 -0.1469  0.2466 -0.0870
96557W        W39470   4.312  33.966   2.760  0.0024  0.1906 -0.1400
96558W        W39471   9.312  29.392  11.157 -0.1220 -0.0530 -0.0107
96559W        W39472  18.998  15.798  28.597 -0.0099  0.0835  0.0674
96560W        W39473  15.233  32.223   2.805 -0.1244  0.0704  0.3181
96561W        W39474  17.220   5.588   7.144 -0.2433  0.0454  0.2284
96562W        W39475   5.202  30.170  28.250  0.1371  0.0190 -0.3027
96563W        W39476  30.619  30.929  22.548 -0.1989  0.0660  0.0538
96564W        W39477  11.303   6.977   7.859  0.1332  0.2846 -0.0720
96565W        W39478  10.004  33.150   6.484 -0.1801  0.1388  0.2655
96566W        W39479  17.823  33.806   7.799  0.2227 -0.0464 -0.1307
96567W        W39480  11.585  24.471  25.640  0.1412  0.2859 -0.0589
96568W        W39481  11.610  27.401   5.242 -0.1108  0.2224 -0.0008
96569W        W39482  33.710  26.093  20.228  0.2158  0.0312 -0.2716
96570W        W39483   3.166   3.796  26.746  0.3841  0.2819 -0.0946
96571W        W39484  20.128   4.382   8.124 -0.1487 -0.0102 -0.0496
96572W        W39485  18.570   8.954   9.071 -0.0510  0.1211  0.2600
96573W        W39486   4.728   2.192   4.393  0.3221  0.3070  0.3034
96574W        W39487  19.341   4.992   6.118  0.1591  0.0138 -0.0691
96575W        W39488  10.018  24.321   9.509  0.0273  0.1261 -0.3364
96576W        W39489   8.372  33.835  27.126 -0.2824 -0.1606 -0.1512
96577W        W39490   3.798  29.280  27.905 -0.0415 -0.0741  0.1587
96578W        W39491  10.859  26.256  19.077 -0.1369 -0.0878  0.0736
96579W        W39492  22.450   0.045  26.806  0.0618 -0.0393  0.1621
96580W        W39493   9.159   1.741  10.244 -0.0419 -0.0315 -0.1631
96581W        W39494  24.169  34.354   8.395 -0.1647 -0.2004  0.2716
96582W        W39495  18.275  34.302   1.209 -0.1424  0.0636 -0.3904
96583W        W39496  10.333   6.143   1.892  0.1115 -0.0210 -0.0475
96584W        W39497  16.062   8.870   3.835 -0.1178 -0.0421  0.2578
96585W        W39498   7.426   2.283  23.229  0.1031  0.0156  0.1475
96586W        W39499  14.679  14.405  28.743  0.0525 -0.1479  0.0140
96587W        W39500  16.441  30.775  25.281 -0.2270  0.0061  0.0954
96588W        W39501  15.639  22.344   5.480 -0.0506 -0.1190 -0.0230
96589W        W39502  11.525   2.590   3.459 -0.2023 -0.6252  0.2184
96590W        W39503   4.977  21.435  25.598  0.0071 -0.0319 -0.1286
96591W        W39504   8.168  22.456  24.908 -0.0270  0.1692 -0.1558
96592W        W39505  21.100   0.172   9.269  0.0658  0.0359 -0.1943
96593W        W39506  13.083  34.063  28.139 -0.1589  0.0398  0.0215
96594W        W39507  10.075  31.201  11.982 -0.3120  0.3003  0.3378
96595W        W39508   2.144  27.942   1.211  0.0971 -0.0600 -0.0352
96596W        W39509  10.321  26.643  25.029 -0.1585 -0.1127  0.0123
96597W        W39510  12.896  28.734  10.950 -0.1201 -0.0945  0.1407
96598W        W39511   8.119  26.786   0.165 -0.2880 -0.1587 -0.4200
96599W        W39512  25.958  29.580   2.117  0.2245 -0.0359  0.3789
96600W        W39513  28.897   7.738   0.385 -0.2438 -0.3449  0.4840
96601W        W39514   5.734  32.765  29.539 -0.0644  0.1726  0.2074
96602W        W39515  11.141  32.333  26.877 -0.0330 -0.1720  0.0510
96603W        W39516  12.215  31.643  23.061  0.1703 -0.2450  0.0385
96604W        W39517  22.449   2.485   8.953 -0.0372  0.0256  0.0958
96605W        W39518  30.843   1.385  11.912 -0.0184  0.1962  0.2165
96606W        W39519   5.392  29.207   7.699 -0.2266 -0.1229 -0.0760
96607W        W39520  13.093   6.308  25.532 -0.0092  0.1430  0.0828
96608W        W39521   6.532   0.987   3.390 -0.0891  0.0243 -0.1051
96609W        W39522   2.639   3.795  26.853 -0.0755 -0.1249  0.4610
96610W        W39523  17.348  31.336   6.999  0.0127 -0.2115 -0.2723
96611W        W39524  17.600  31.874   9.999 -0.3861 -0.2939 -0.0705
96612W        W39525  25.040  28.296   3.021  0.1908  0.0973 -0.2528
96613W        W39526  19.456   2.676   5.731 -0.3163  0.0192 -0.2277
96614W        W39527   7.192   2.192   8.697  0.0908 -0.2894 -0.2562
96615W        W39528  11.454   7.382   1.919 -0.1111 -0.3268 -0.0563
96616W        W39529  24.319  30.319   8.780 -0.1376 -0.2310  0.1808
96617W        W39530  25.376   1.116  27.911  0.0949  0.1771 -0.1092
96618W        W39531   8.453  28.020  10.705 -0.0254 -0.2301  0.0960
96619W        W39532  10.802  25.734   7.260  0.2198 -0.0381  0.0815
96620W        W39533  25.105  29.255   2.592  0.0870 -0.0939  0.0669
96621W        W39534  15.981  28.392   7.055  0.3259  0.1947  0.0996
96622W        W39535   9.959  25.170  22.919 -0.0544 -0.0661 -0.2170
96623W        W39536  16.202  27.959  24.442  0.3390 -0.2820 -0.2168
96624W        W39537  15.114  27.647  26.085 -0.3262 -0.0540  0.0616
96625W        W39538  19.371  24.852   7.863 -0.0512 -0.1356  0.0099
96626W        W39539  13.577  32.615   2.676 -0.3405 -0.2116  0.3730
96627W        W39540   1.591  24.111  24.630 -0.0846 -0.2250 -0.2423
96628W        W39541   6.617  27.835   6.600 -0.0377 -0.1241 -0.0174
96629W        W39542  11.499  34.347   1.802 -0.0604  0.0002 -0.2857
96630W        W39543  15.466   7.043   9.294 -0.0438 -0.2681  0.0946
96631W        W39544  26.144  31.678   1.390  0.0422 -0.5208 -0.2632
96632W        W39545  11.670  24.977  10.595  0.0514 -0.0013 -0.1862
96633W        W39546   3.153  31.763  28.050  0.2492  0.0577  0.0291
96634W        W39547  10.656  30.747   1.939 -0.1974  0.0432  0.5049
96635W        W39548  22.922  10.555   7.830 -0.2117  0.1265 -0.1077
96636W        W39549  23.223  22.543   3.710  0.1865 -0.2818  0.0456
96637W        W39550   6.529  28.020  24.069  0.1594 -0.1591  0.2243
96638W        W39551  15.288  24.420   2.053 -0.2211  0.0104  0.0016
96639W        W39552  11.265   6.933   9.731  0.2226 -0.2862 -0.2074
96640W        W39553   6.685   5.078   7.567 -0.0664  0.0258  0.0959
96641W        W39554  10.258  27.003   0.863  0.2013 -0.4181 -0.0596
96642W        W39555  17.488   6.340   0.424  0.2956 -0.0543 -0.0408
96643W        W39556  14.774  29.238   4.674 -0.0269 -0.4872 -0.0197
96644W        W39557  10.734  33.779   7.794  0.0647 -0.3937  0.0881
96645W        W39558  12.106   3.507  11.589 -0.1793 -0.4826 -0.1641
96646W        W39559   9.696  32.458  11.830  0.1201  0.3130  0.0701
96647W        W39560  11.437  31.196   0.281 -0.1963  0.2761 -0.0308
96648W        W39561  11.777  30.357   9.540  0.3801 -0.0719  0.1491
96649W        W39562   1.560   4.218   5.499 -0.0689 -0.1739  0.1842
96650W        W39563   1.213  32.333   8.894 -0.1471 -0.2994  0.2567
96651W        W39564  20.907  21.131  25.591 -0.0540  0.1842 -0.1196
96652W        W39565  15.879   9.043  29.284  0.0225  0.1039 -0.2053
96653W        W39566   3.839  19.290   5.469  0.3779 -0.1548 -0.1240
96654W        W39567  20.941  26.046  25.472 -0.0690 -0.2378  0.1377
96655W        W39568  27.926  22.917   2.344 -0.2967  0.0704  0.0428
96656W        W39569  24.281  21.033  21.506 -0.1311  0.0845 -0.3900
96657W        W39570   5.296  28.861   5.596  0.0496  0.2026 -0.2853
96658W        W39571  10.482   0.187  11.777  0.1061  0.0150  0.0417
96659W        W39572  14.218  32.378   5.634  0.2055  0.5201  0.2505
96660W        W39573  18.358  26.378  27.808  0.0206 -0.0121 -0.0043
96661W        W39574   8.433  34.199   3.768  0.2035  0.3873  0.2822
96662W        W39575  14.028  26.153   9.522  0.2184 -0.2833  0.2955
96663W        W39576  23.903   8.573   4.691 -0.0231  0.0913  0.0982
96664W        W39577  11.760  24.054  17.171 -0.1410  0.2154 -0.0174
96665W        W39578   9.087  30.174  10.204 -0.3834 -0.4590  0.2319
96666W        W39579  16.373   8.305   2.108 -0.1418  0.3209 -0.3101
96667W        W39580  34.308   1.890  11.570 -0.0480  0.2073 -0.0853
96668W        W39581   7.903  29.525  28.683  0.3510  0.0435 -0.1018
96669W        W39582  19.887  24.980   6.776 -0.0815 -0.3049  0.4491
96670W        W39583  10.876   1.369   9.962  0.3017  0.1071  0.0153
96671W        W39584  13.730  29.149  27.823  0.1606 -0.0759 -0.1656
96672W        W39585  21.733   4.000   5.697 -0.2915  0.2335 -0.1210
96673W        W39586   4.487  30.435   9.530 -0.1296  0.0274  0.0308
96674W        W39587  12.906  24.896   9.844  0.1888  0.1869 -0.1332
96675W        W39588  10.559   2.615   6.769  0.2345  0.0238  0.0564
96676W        W39589  12.289  30.200   7.760 -0.1002 -0.0349  0.0684
96677W        W39590  24.587  24.303   1.670 -0.2787 -0.3153 -0.0244
96678W        W39591   0.506   5.242   5.234 -0.1259  0.1712  0.0285
96679W        W39592   7.753   0.081   6.301  0.0795  0.3402 -0.1260
96680W        W39593  18.692  34.368   6.153  0.1597 -0.0707  0.0932
96681W        W39594  10.771  33.312  10.620 -0.1527  0.1102 -0.1632
96682W        W39595  13.586  31.243   9.546  0.0762 -0.0385 -0.0045
96683W        W39596   8.446  30.198   6.358 -0.1462 -0.0363  0.4542
96684W        W39597  12.796  34.073  27.351 -0.1300  0.3229 -0.0378
96685W        W39598  26.511   1.577   8.751  0.0365 -0.0881 -0.4864
96686W        W39599   5.371  33.960   9.015 -0.1035 -0.3432 -0.0327
96687W        W39600  18.157  25.458   2.653  0.0686 -0.0445 -0.1355
96688W        W39601   7.422   2.174   3.183  0.4037 -0.0151  0.2082
96689W        W39602  11.574  30.362   5.309 -0.0445 -0.1326  0.0230
96690W        W39603  20.483  32.647   6.128  0.0643 -0.1622 -0.1081
96691W        W39604  14.581  27.640  11.352  0.3397 -0.0609  0.2265
96692W        W39605   6.474  27.498   5.632  0.1737  0.0246 -0.0378
96693W        W39606   5.928   6.923  11.742 -0.2708  0.0140 -0.1356
96694W        W39607  20.140  30.291   3.401  0.2656 -0.1632  0.0032
96695W        W39608  18.704  10.514   6.449 -0.2136  0.1433  0.0915
96696W        W39609   8.002  25.149   3.995 -0.0477 -0.0238 -0.0311
96697W        W39610  13.600  31.869   5.525  0.0534  0.0029  0.1263
96698W        W39611  10.954  27.494   2.981  0.3526  0.0537 -0.0238
96699W        W39612  13.931  34.197   0.643  0.0967 -0.0418 -0.1628
96700W        W39613  19.097  32.727   1.961  0.2097  0.2600 -0.1525
96701W        W39614  14.549  24.282   3.807  0.0183 -0.1486 -0.2811
96702W        W39615   8.062  32.134   6.040  0.0921 -0.0696  0.0129
96703W        W39616   7.086   1.878   5.219 -0.0911 -0.0814  0.2177
96704W        W39617   7.273   6.166   2.399  0.2851  0.3345 -0.0455
96705W        W39618   6.841  27.893  11.969  0.0442  0.4506  0.0829
96706W        W39619   8.757  21.357   2.157 -0.1649  0.3368  0.1216
96707W        W39620  16.605   3.359   5.970 -0.0107  0.0017 -0.2402
96708W        W39621  20.882  24.915   8.538  0.1026  0.0623  0.0246
96709W        W39622  12.525   1.077   7.158  0.2371  0.2901 -0.0974
96710W        W39623   5.730  26.311  27.427  0.1306 -0.1568 -0.0400
96711W        W39624   6.328  27.629   2.029  0.2308  0.0252 -0.0687
96712W        W39625  19.334  30.648   9.283  0.2444  0.0574  0.1223
96713W        W39626   7.721  32.377   1.526  0.0970  0.1157 -0.0262
96714W        W39627  18.056  25.180  24.725  0.1190 -0.1432  0.0069
96715W        W39628  14.355  25.055   6.454 -0.3352  0.0515  0.0238
96716W        W39629  13.364  31.333  24.403  0.0896  0.0846  0.2155
96717W        W39630   5.272  33.172   4.456 -0.1255 -0.0276 -0.0235
96718W        W39631   8.892  32.838   5.665 -0.0527 -0.2728 -0.1424
96719W        W39632  13.952  28.605  25.643 -0.0926  0.1236 -0.1815
96720W        W39633   2.564  28.388  10.170  0.0291 -0.0278 -0.1189
96721W        W39634  12.202  33.707   6.318  0.0212 -0.2422 -0.0727
96722W        W39635  18.492   4.848  28.294  0.2833 -0.1650 -0.2298
96723W        W39636   6.636   1.051  24.374 -0.2505  0.4064 -0.1830
96724W        W39637   8.319  32.559  26.377  0.1464  0.1472 -0.0633
96725W        W39638   9.922  32.517  10.082 -0.2367  0.1451 -0.3949
96726W        W39639   3.840  25.505   9.867  0.0049  0.1392 -0.1773
96727W        W39640  11.104  27.736   9.031  0.0738  0.1644 -0.1069
96728W        W39641  11.250  25.900   2.529  0.0041  0.3813  0.1077
96729W        W39642  23.694   8.264   5.706  0.0777 -0.0352  0.3568
96730W        W39643   2.837  31.451   7.228 -0.0620 -0.0778 -0.0549
96731W        W39644  16.276  24.138  27.773 -0.1283  0.1080  0.1200
96732W        W39645   4.942  30.607   2.353 -0.1898  0.5013 -0.0789
96733W        W39646   6.864  24.574   7.665  0.3665 -0.0084  0.0557
96734W        W39647   2.923  32.332   6.936 -0.1144 -0.0832  0.1810
96735W        W39648  17.309  17.300   3.582 -0.1283  0.0848  0.2431
96736W        W39649  14.487  28.094  29.594  0.0033 -0.3273  0.1354
96737W        W39650  10.965  30.461  10.808  0.1705  0.2674  0.1128
96738W        W39651   8.120  24.627   5.965  0.0105  0.0941  0.0678
96739W        W39652  10.441   5.936   9.607  0.4377 -0.1587  0.0925
96740W        W39653   9.189  33.990   6.922  0.0860  0.1942 -0.0443
96741W        W39654  20.938  30.193  29.486 -0.0347 -0.2213  0.1400
96742W        W39655   5.250   5.675   7.961 -0.4237  0.4197  0.1068
96743W        W39656   3.800  33.996  26.319  0.4228 -0.0530 -0.1421
96744W        W39657  21.688  33.829  29.779  0.1895 -0.0023 -0.3062
96745W        W39658  25.543  26.135   6.447  0.0675 -0.5711  0.1945
96746W        W39659   5.590  26.075   1.443  0.0800 -0.0327 -0.2314
96747W        W39660  22.052   3.591   5.831  0.0061  0.1189 -0.2110
96748W        W39661  12.754  34.270  10.487  0.1090 -0.0872  0.0629
96749W        W39662  13.790  27.097   5.945  0.3042 -0.1314  0.0526
96750W        W39663  10.978   6.115   9.606  0.1532  0.1973  0.2278
96751W        W39664  11.009  24.568   0.631  0.1908 -0.3299  0.1168
96752W        W39665  17.028  19.321   7.259  0.1018 -0.2115  0.0125
96753W        W39666  15.543  29.490   1.831  0.3143  0.0266 -0.0449
96754W        W39667  16.178   1.370   9.706  0.2822  0.0983 -0.1620
96755W        W39668  14.826  33.977   1.928  0.0430  0.1650 -0.1329
96756W        W39669  11.339  31.403  11.260  0.4365  0.3047  0.0482
96757W        W39670  14.457   6.222  10.367 -0.4662 -0.1213 -0.1793
96758W        W39671  12.150  31.493  10.960 -0.0868 -0.1945  0.0760
96759W        W39672  17.767   0.119  26.193 -0.1572 -0.2869  0.3162
96760W        W39673   4.586  30.413  29.551  0.0974  0.2420  0.1079
96761W        W39674  19.158  22.381   7.005  0.0305 -0.2101  0.3262
96762W        W39675  14.687  29.777   2.521 -0.0289  0.2971 -0.0931
96763W        W39676  20.676  23.993   3.625  0.2598 -0.1098  0.0005
96764W        W39677   5.931   3.678  29.061 -0.1997 -0.2667  0.2965
96765W        W39678  18.263  30.703   4.257  0.1790 -0.4898  0.1209
96766W        W39679  16.023  29.282  10.144  0.2463 -0.2477 -0.0315
96767W        W39680  19.560   4.034  27.424 -0.1332  0.0839 -0.1153
96768W        W39681   8.332  31.029   6.957  0.1331 -0.1158  0.2625
96769W        W39682   6.749  23.993  27.375 -0.0771 -0.2292 -0.3731
96770W        W39683  20.735  23.855   1.738 -0.3580 -0.4329 -0.1108
96771W        W39684   3.146  33.648   8.399 -0.0650  0.1269  0.1044
96772W        W39685  12.203  21.350  28.237 -0.2777 -0.0190 -0.0013
96773W        W39686  34.245  21.885   9.057  0.3857 -0.0056 -0.2456
96774W        W39687  18.277   3.839  24.886 -0.4195 -0.1859  0.0384
96775W        W39688  15.471  20.123  21.810  0.1622 -0.0257  0.4733
96776W        W39689   9.928   1.843  28.766  0.1464 -0.1011  0.0653
96777W        W39690  19.564  30.503  10.308 -0.0025  0.1715 -0.3058
96778W        W39691  15.324  31.446   2.890  0.1432 -0.2082 -0.0664
96779W        W39692  12.378  25.146   6.501 -0.1427  0.1781 -0.0295
96780W        W39693  11.716   4.046   6.028  0.0601 -0.2049  0.1749
96781W        W39694  27.837  27.052   7.296  0.2337  0.0427 -0.2124
96782W        W39695   8.948  22.783   9.229 -0.2719  0.0691  0.0794
96783W        W39696   5.335   4.021  12.917 -0.2853 -0.3627  0.1826
96784W        W39697  11.378  22.963  19.881 -0.3495 -0.2105  0.0281
96785W        W39698  12.968  24.756   5.389  0.0118  0.1290  0.0204
96786W        W39699  10.495  29.657  29.063 -0.5463 -0.0676  0.1511
96787W        W39700  29.658   1.169   3.543 -0.2361 -0.0919  0.1574
96788W        W39701   1.995  32.231  10.093 -0.0164  0.0473 -0.2437
96789W        W39702   5.242  10.640   1.450 -0.1157  0.3784 -0.2566
96790W        W39703   0.139  27.446   8.804  0.1591 -0.0178 -0.0818
96791W        W39704   7.500  30.526  11.519  0.1111  0.1124 -0.1504
96792W        W39705  15.744  26.734  28.986  0.0644 -0.1207 -0.0089
96793W        W39706  15.683   0.848   9.423 -0.1029  0.0977  0.0099
96794W        W39707  11.633  31.083   3.490  0.0910 -0.3626 -0.0685
96795W        W39708  13.044   2.568   6.445  0.1441 -0.0207  0.0934
96796W        W39709   9.642  28.567  11.556  0.0233 -0.0579  0.1710
96797W        W39710  13.029  33.177   6.620  0.2362  0.1460 -0.0890
96798W        W39711  15.871  32.847   7.794 -0.3422 -0.0065 -0.0822
96799W        W39712   6.639  32.238  11.174 -0.0536 -0.0069 -0.0548
96800W        W39713  11.931  18.905  27.813 -0.0616  0.0621 -0.2624
96801W        W39714  16.752  31.014   9.611 -0.2307 -0.0855 -0.2538
96802W        W39715   4.292  26.129   5.984  0.0739  0.0272  0.2148
96803W        W39716  13.366  30.289   3.318 -0.0810 -0.0668 -0.0157
96804W        W39717  23.446  25.815   6.456 -0.1189 -0.1097 -0.2422
96805W        W39718  10.704  29.760   8.434  0.1719  0.0630 -0.3241
96806W        W39719  12.302  30.728  10.386  0.3702 -0.1496 -0.1017
96807W        W39720  12.869  30.395   5.475 -0.0572 -0.0322 -0.1851
96808W        W39721  29.233   0.600   4.946 -0.0451  0.2592 -0.2096
96809W        W39722   2.787   2.477  28.725 -0.1463 -0.2447  0.0662
96810W        W39723  15.744  29.601  10.438  0.2949 -0.3008 -0.2459
96811W        W39724  15.187  34.191   8.854  0.0054 -0.5566  0.2507
96812W        W39725   9.360   3.751  28.229 -0.0422  0.2509 -0.0011
96813W        W39726  17.039  27.160  29.012 -0.2330  0.2838 -0.2904
96814W        W39727  15.093  30.781   8.277 -0.1532  0.0522  0.0284
96815W        W39728  23.429  30.744  27.800  0.1658  0.3469 -0.1899
96816W        W39729  11.899  31.477  27.832 -0.0511 -0.1906 -0.0920
96817W        W39730   8.974  25.208  10.393  0.0497  0.0534  0.0444
96818W        W39731   4.146  26.642  10.145  0.0696 -0.0398  0.2129
96819W        W39732   1.402  28.618  28.616 -0.0044 -0.1689 -0.0379
96820W        W39733   8.481   1.776  29.694 -0.0790  0.0535 -0.0127
96821W        W39734   7.224  24.373   7.128  0.1779 -0.1355  0.2562
96822W        W39735  17.982  33.761   4.431  0.1957  0.2044  0.1126
96823W        W39736   7.693  33.490   2.718  0.0539 -0.2042  0.1827
96824W        W39737  14.707   4.241   3.907  0.1049 -0.0644  0.1352
96825W        W39738  12.545   8.260   9.838 -0.0683 -0.1405  0.2278
96826W        W39739  13.532   1.562   0.357 -0.0123  0.1891 -0.2636
96827W        W39740  28.125   4.798   9.428 -0.0538 -0.2742  0.5263
96828W        W39741  10.285  26.298  10.450  0.0530  0.0980 -0.5473
96829W        W39742  15.190   2.305  10.630  0.0159  0.0390 -0.2634
96830W        W39743   9.682  27.979   9.150 -0.0553  0.0335 -0.1830
96831W        W39744  31.977  20.342  25.605 -0.0789  0.0644  0.1727
96832W        W39745  12.457   2.931   2.871 -0.2597  0.2239  0.1833
96833W        W39746   8.870  20.253   4.131 -0.0744 -0.1160 -0.0535
96834W        W39747  11.134  33.087   8.168  0.3126  0.1339  0.0547
96835W        W39748   8.230  26.694   9.378  0.0902  0.1848  0.0810
96836W        W39749   7.175  33.917  29.705  0.1957 -0.0904 -0.0586
96837W        W39750  13.543  19.728  24.159  0.2743  0.0340  0.3229
96838W        W39751  12.958  27.951   6.313 -0.3198 -0.0418  0.2337
96839W        W39752  26.405  29.333   0.854 -0.1053 -0.2097 -0.1681
96840W        W39753  16.467  16.908   3.152 -0.3908 -0.1741  0.1387
96841W        W39754   9.529  25.106   4.096  0.0394  0.2014 -0.2899
96842W        W39755  33.499  29.689  25.710 -0.1251 -0.1145  0.0827
96843W        W39756   0.981  26.847  24.378 -0.0426 -0.2855  0.2378
96844W        W39757   4.023  32.772   5.748  0.3137 -0.2362  0.2858
96845W        W39758   4.390  23.341  19.819  0.1485 -0.1844  0.0732
96846W        W39759  20.793   1.774   3.557 -0.0883  0.0280  0.0828
96847W        W39760  16.178  27.069   7.921  0.0250  0.0696 -0.0101
96848W        W39761  10.257  29.237   9.507  0.1565 -0.0791  0.1692
96849W        W39762  10.324  30.569  11.547  0.1129 -0.0912 -0.2735
96850W        W39763   4.494   3.258   0.860 -0.2269  0.1376  0.0805
96851W        W39764  29.240  33.594  28.021 -0.3155  0.0904  0.0055
96852W        W39765  17.055   6.502  28.732  0.3338 -0.1272 -0.0919
96853W        W39766  19.518  22.072   5.944 -0.1772 -0.0717 -0.1570
96854W        W39767  21.838  29.780  28.538  0.1975 -0.1575  0.0459
96855W        W39768  11.771  29.467  10.400  0.0623  0.0737 -0.2552
96856W        W39769  11.157  32.340   8.795  0.3461 -0.0868  0.1043
96857W        W39770  12.377  25.646   6.257 -0.2937  0.1390  0.1069
96858W        W39771   9.110  24.379   9.833  0.1717 -0.0527 -0.3092
96859W        W39772  23.151  33.602   4.302  0.1109  0.1982  0.1502
96860W        W39773  20.564  10.582   8.171 -0.1038  0.0161 -0.0671
96861W        W39774  18.226   7.367   7.997 -0.1223 -0.2466 -0.0106
96862W        W39775  16.291  31.098  10.363  0.0548 -0.0589 -0.0867
96863W        W39776  13.669  29.991  23.214 -0.1307  0.0785  0.3358
96864W        W39777   1.031   8.930   5.886  0.2455 -0.2054  0.2232
96865W        W39778  20.184   9.253   7.156 -0.1606 -0.2384  0.3963
96866W        W39779  10.298  31.482  10.478  0.3452  0.1021  0.1098
96867W        W39780  12.674   4.520   3.050 -0.1776 -0.0165 -0.1230
96868W        W39781   9.793   8.982  10.490 -0.0813 -0.3021 -0.0955
96869W        W39782  24.524  23.957   6.287  0.1129 -0.0011  0.1551
96870W        W39783   4.063  29.781   9.432  0.0770 -0.0282 -0.1406
96871W        W39784  21.916  27.155   7.488  0.2913 -0.0868 -0.2498
96872W        W39785  18.031  34.227  10.619  0.1438 -0.0305 -0.0595
96873W        W39786   8.860  29.435  11.194 -0.2129 -0.0893 -0.0627
96874W        W39787  10.128  29.610   3.062  0.1949 -0.2632 -0.1332
96875W        W39788   9.314  29.727  10.758 -0.2037  0.1601 -0.0136
96876W        W39789   9.489  32.498   8.464  0.1102 -0.0808 -0.0497
96877W        W39790   9.927  29.183  29.529  0.0745  0.1499  0.3247
96878W        W39791   1.969  28.678  29.331  0.1380 -0.1417 -0.3951
96879W        W39792   4.229  29.497   7.098 -0.3991 -0.1360  0.2409
96880W        W39793  10.910  21.186   2.337 -0.1761 -0.4157 -0.1773
96881W        W39794  20.059  28.579   7.347  0.4001 -0.0547  0.0423
96882W        W39795  14.975  34.019   2.522  0.0763  0.2539 -0.0705
96883W        W39796  10.569  25.885   0.808  0.1043  0.2524 -0.2057
96884W        W39797   9.250  30.824   7.646  0.1036 -0.0681  0.0001
96885W        W39798  13.943   4.954   0.885 -0.0853  0.0472 -0.0985
96886W        W39799   3.996   1.341  12.777  0.1830 -0.1637 -0.1623
96887W        W39800  10.959  25.104   1.964  0.2905  0.1299 -0.3117
96888W        W39801  23.135  30.783  21.208  0.3475 -0.2509  0.0723
96889W        W39802  16.943  29.707   6.843 -0.0885  0.1563 -0.2770
96890W        W39803  13.948  21.830   0.859  0.0931  0.2140  0.3406
96891W        W39804  11.061  26.747   2.337 -0.2818 -0.3736  0.1283
96892W        W39805   9.675  17.585   4.117 -0.0614 -0.3964  0.1036
96893W        W39806  14.556  31.079   6.284  0.0032  0.0078 -0.2716
96894W        W39807  18.084  29.680   9.946  0.2172 -0.1106  0.1000
96895W        W39808   8.544  27.623  29.643  0.1228 -0.1190 -0.0613
96896W        W39809  18.313  29.641   8.056 -0.1383 -0.1082 -0.3462
96897W        W39810  14.557  30.322   2.396 -0.1177 -0.3296  0.2409
96898W        W39811  18.202  22.958  27.105  0.2785  0.0566 -0.2020
96899W        W39812  12.868  30.513   9.612 -0.1907 -0.0473 -0.0565
96900W        W39813  12.876  32.375   0.560  0.3398 -0.0110  0.1909
96901W        W39814  10.308  26.191   2.439  0.1977 -0.1349 -0.0134
96902W        W39815   7.494   5.201   9.832 -0.0883  0.1894 -0.2251
96903W        W39816  10.775  27.911   3.565  0.2695  0.0102  0.1176
96904W        W39817   7.750  30.161   1.341 -0.1632 -0.0829  0.1891
96905W        W39818  11.424  26.995   4.837 -0.2536  0.0738  0.0449
96906W        W39819  16.534  34.351   8.364  0.2038  0.1145 -0.1605
96907W        W39820   1.729  27.138  27.985 -0.1027 -0.0863  0.0337
96908W        W39821  11.156  11.181  27.996  0.1938 -0.1524 -0.0421
96909W        W39822  15.794  32.776   5.421  0.0473 -0.0748  0.3288
96910W        W39823  21.166  32.954  25.592  0.3448 -0.0712 -0.0496
96911W        W39824  19.506  30.056   4.278 -0.4116 -0.0770 -0.1192
96912W        W39825  12.234   0.466   7.559 -0.0448 -0.1586 -0.2320
96913W        W39826  14.957  29.742   7.220  0.1095 -0.1824  0.2243
96914W        W39827  18.224  14.834  29.255 -0.0432 -0.2737  0.1009
96915W        W39828  14.508   0.843   8.887 -0.3002 -0.1308 -0.0077
96916W        W39829   9.433  28.768   5.014 -0.0277  0.2227  0.1558
96917W        W39830   8.335  33.648  11.484 -0.2068  0.0328  0.1121
96918W        W39831  18.425   5.306  10.003 -0.0497  0.2126 -0.1117
96919W        W39832   8.996  34.390   8.263  0.1337  0.0535  0.1282
96920W        W39833  14.247  21.145  26.763  0.1861 -0.1031 -0.0985
96921W        W39834   5.212   0.778   1.965 -0.0130  0.1723  0.1929
96922W        W39835  15.699   0.237  10.384  0.0374 -0.2455  0.3768
96923W        W39836  10.518  28.012   6.892  0.0137 -0.0448 -0.1392
96924W        W39837  18.004  18.591   2.444  0.0703  0.2611  0.0569
96925W        W39838   5.471  31.481   8.315 -0.1079  0.1872  0.0705
96926W        W39839  16.388  32.267   4.322 -0.0688 -0.1940 -0.0723
96927W        W39840   8.039  28.461  26.843 -0.0126 -0.0585 -0.3310
96928W        W39841  18.828  20.829   4.179  0.1133 -0.1885 -0.0331
96929W        W39842  25.642  27.349  27.317 -0.0594 -0.2061 -0.2112
96930W        W39843  11.762  22.597  24.093  0.1193 -0.1641  0.2792
96931W        W39844   5.355  26.611   5.069  0.0647  0.1265 -0.2635
96932W        W39845   3.075  30.152   8.582  0.1228 -0.1045 -0.0569
96933W        W39846   9.359  28.562  12.030 -0.1751 -0.1420  0.1289
96934W        W39847  21.721   4.833   6.868 -0.1155  0.0420 -0.2368
96935W        W39848   4.878  28.601   7.062  0.1441  0.1330  0.1061
96936W        W39849  19.137   0.303   6.728  0.0073 -0.2362  0.0126
96937W        W39850  29.280  26.653   5.503  0.0952  0.0424 -0.0211
96938W        W39851  16.112   4.390   1.663  0.1735  0.0279  0.3250
96939W        W39852  34.464  31.817   1.300  0.0678  0.1705 -0.0195
96940W        W39853   8.058  15.704   4.187  0.1175 -0.0710 -0.0489
96941W        W39854  23.520  32.652   2.925 -0.0180 -0.1912  0.1033
96942W        W39855  14.665  21.897  24.898  0.2960 -0.0881 -0.0749
96943W        W39856   7.875  27.349   2.568 -0.0972  0.0904  0.1352
96944W        W39857   8.795  26.985   2.929 -0.1587 -0.0225  0.1568
96945W        W39858  11.693  27.281  27.800 -0.2072 -0.2690 -0.0561
96946W        W39859   8.682  27.721   4.510 -0.1385 -0.2681  0.2268
96947W        W39860   2.024   0.020   3.857  0.0633  0.3825 -0.1826
96948W        W39861  15.759   7.205   4.921 -0.0683 -0.0200  0.0890
96949W        W39862  15.029  20.409   6.798  0.2780  0.1967  0.0709
96950W        W39863   4.008  29.513   7.498  0.2880  0.1795 -0.0493
96951W        W39864  11.737  28.005   2.907  0.0153 -0.0632  0.2578
96952W        W39865  19.094  32.014   4.370 -0.3032 -0.1326  0.0509
96953W        W39866   5.491  32.511  29.093  0.2324  0.0011  0.0732
96954W        W39867  22.241  29.656   9.360  0.0783 -0.0549  0.0998
96955W        W39868  10.348   3.648   6.678  0.4933  0.3228  0.0594
96956W        W39869  10.860   7.065  10.001 -0.3021 -0.2696  0.3463
96957W        W39870  10.869  26.164  10.900 -0.0063  0.3303  0.3604
96958W        W39871   9.131  34.106  24.571  0.0517  0.2214  0.2896
96959W        W39872   9.036  24.096  21.748 -0.3773  0.1680  0.2693
96960W        W39873  16.160  20.974   8.650 -0.1951 -0.1329 -0.1263
96961W        W39874   3.792  33.349   3.317 -0.4159  0.0647 -0.1960
96962W        W39875   7.743  28.186   9.020  0.0708  0.1267 -0.1696
96963W        W39876   1.713  32.055  10.641  0.2201  0.4343  0.3046
96964W        W39877  12.026  32.878   4.028  0.3039 -0.0347  0.1419
96965W        W39878  24.996   4.906   8.433 -0.0575  0.1006  0.3531
96966W        W39879   5.194   1.483   3.829  0.1180 -0.0599  0.1279
96967W        W39880   5.867  32.480   6.454 -0.1602 -0.0751  0.2000
96968W        W39881   9.251  31.830   1.299 -0.3525  0.1234  0.0509
96969W        W39882   6.394   4.818   2.473  0.0079  0.0626  0.1592
96970W        W39883  19.728  29.725   7.041  0.1016 -0.0129  0.0870
96971W        W39884  16.551  18.594   0.727  0.2312 -0.0274 -0.0734
96972W        W39885  17.066  23.809   3.649  0.0794 -0.0693  0.0237
96973W        W39886  19.092  23.896   4.399 -0.1129  0.4886  0.0984
96974W        W39887   9.113  27.488   5.689  0.1661 -0.5034 -0.0893
96975W        W39888  24.365   9.979   3.121 -0.3184 -0.1292 -0.1804
96976W        W39889  15.323  13.569   7.795  0.4322 -0.2116  0.2758
96977W        W39890  20.398   6.237   7.974 -0.1133  0.1734 -0.2073
96978W        W39891  11.206  21.514  28.511 -0.0182 -0.3180  0.0015
96979W        W39892  12.647  27.997   1.495  0.1278 -0.0624 -0.1058
96980W        W39893  13.037  25.249   7.762 -0.1222  0.3837  0.2052
96981W        W39894   0.407   0.891  11.405  0.0419  0.0774  0.1188
96982W        W39895   6.582  33.592   1.331 -0.1876  0.0285  0.0759
96983W        W39896  13.162  29.644  24.378 -0.4268 -0.0740  0.0160
96984W        W39897   8.104  34.116   6.784  0.0875  0.0999  0.1304
96985W        W39898  14.063  13.574  27.522 -0.1171 -0.0635  0.2222
96986W        W39899  20.253  29.696  28.244  0.0779 -0.2925  0.3123
96987W        W39900  15.980   2.799   4.025  0.2326  0.0808 -0.2663
96988W        W39901  16.880   2.714  25.332  0.0597 -0.1700  0.1506
96989W        W39902  17.019  25.989   1.852 -0.0651  0.1790  0.1320
96990W        W39903  22.270  27.920  29.275  0.1284  0.1824  0.0196
96991W        W39904  13.954   0.940  10.007  0.1940 -0.1599  0.1816
96992W        W39905  17.369  26.515   4.497  0.2880 -0.3499 -0.0777
96993W        W39906  25.538  30.885   5.233  0.0184 -0.2754 -0.1793
96994W        W39907  13.029  31.989   6.797 -0.2971  0.0710  0.1061
96995W        W39908  16.663  30.123   7.151 -0.3972 -0.2514 -0.4082
96996W        W39909  20.022   7.035   6.080  0.0445 -0.0720 -0.2462
96997W        W39910   4.921  32.635   8.840  0.0051 -0.2167 -0.0722
96998W        W39911  17.796  21.904  20.469  0.3320  0.3342  0.0835
96999W        W39912  18.737  31.546   5.014 -0.3054  0.4492  0.3979
97000W        W39913  15.200   0.422  28.920 -0.1590 -0.0064  0.0965
97001W        W39914   3.498  22.317   3.926 -0.2174 -0.1617  0.0225
97002W        W39915   7.402  18.879   9.447  0.0801  0.0324  0.0701
97003W        W39916  13.988   0.372   7.990 -0.1276  0.2843 -0.1870
97004W        W39917  18.448  10.021   6.008  0.0250  0.3680  0.0853
97005W        W39918  10.891  25.398   8.254  0.0828  0.1061  0.0343
97006W        W39919  21.624   4.062   4.354 -0.1307  0.1419  0.0771
97007W        W39920   8.446   0.858   8.751  0.2171  0.1610  0.0174
97008W        W39921  11.524  34.383   8.251 -0.0117  0.0704 -0.1180
97009W        W39922  34.443   6.048   0.663  0.1592 -0.0816 -0.3501
97010W        W39923  10.790  29.857  12.419  0.2231 -0.0987  0.5343
97011W        W39924  14.629   3.263   0.911  0.3450  0.2942  0.0046
97012W        W39925   9.248   2.530   8.181  0.1188 -0.0335 -0.0051
97013W        W39926  20.086  18.445   8.688 -0.0218  0.0904 -0.0238
97014W        W39927  33.105   5.730   5.773  0.0424  0.0355 -0.1438
97015W        W39928  17.342  31.520   3.068  0.2212 -0.0709  0.3590
97016W        W39929   8.464  28.758   8.475 -0.1743  0.0923  0.0206
97017W        W39930   7.660  19.105   9.821 -0.2402 -0.3137  0.2846
97018W        W39931  20.486   0.778   0.768  0.0038  0.1819 -0.0684
97019W        W39932  15.620   2.046  10.509 -0.1149  0.0783  0.2107
97020W        W39933  11.914  30.852   9.139 -0.0290  0.4158 -0.3083
97021W        W39934  16.073  21.076   5.984  0.1402  0.0481 -0.1584
97022W        W39935   9.078  30.492   9.350 -0.1457  0.2549 -0.1456
97023W        W39936  19.458   5.532   9.598  0.0802  0.3788  0.1657
97024W        W39937  13.846  33.687   5.203 -0.1738  0.2149 -0.2466
97025W        W39938   2.593  29.207   8.736  0.0097 -0.1786  0.2160
97026W        W39939  22.362  31.510   3.068 -0.3606 -0.0571 -0.1499
97027W        W39940   5.071  32.623  28.771  0.0543  0.0338 -0.0678
97028W        W39941  13.081  31.731   7.444  0.1658 -0.1347  0.1463
97029W        W39942  13.104  32.909  10.685 -0.3104 -0.1331  0.0016
97030W        W39943  19.460  28.928   8.620 -0.2934  0.1010 -0.0732
97031W        W39944   6.133  30.718   0.443 -0.2908 -0.0958  0.1125
97032W        W39945  14.376  30.082   5.484  0.1122  0.1535  0.3039
97033W        W39946  17.712  28.260   8.925 -0.0513 -0.2091 -0.2170
97034W        W39947  16.268  29.774   3.991 -0.1337  0.3834 -0.0934
97035W        W39948   9.240  33.432   9.733 -0.1210 -0.0999 -0.0710
97036W        W39949  12.344  26.554   5.887 -0.1389 -0.3476  0.2600
97037W        W39950  13.597   1.668   5.333 -0.0151 -0.2750  0.3756
97038W        W39951  11.427   9.045   5.456  0.0697 -0.0265  0.2466
97039W        W39952   6.682  12.140   5.444 -0.0267 -0.1679 -0.2916
97040W        W39953   0.965  33.503   6.482 -0.4077 -0.1926  0.1379
97041W        W39954  30.687  23.300   8.674 -0.0948 -0.1679 -0.3955
97042W        W39955  13.549   4.017   5.411  0.3848 -0.1734  0.0317
97043W        W39956  17.955   7.813   4.319  0.1219  0.2746 -0.2605
97044W        W39957   4.447   9.206   5.659  0.0454 -0.0588 -0.3500
97045W        W39958  21.266  27.723   6.414 -0.0552 -0.1210 -0.2445
97046W        W39959  23.659  33.623   3.632  0.0600 -0.2193 -0.2764
97047W        W39960  16.450   5.136   0.974  0.2014 -0.2828  0.2076
97048W        W39961   8.990   0.982  11.264  0.2455  0.2885 -0.1590
97049W        W39962   4.601   4.718   0.613  0.1476  0.0179  0.3036
97050W        W39963  12.501  27.262   0.306 -0.3069 -0.3311 -0.0454
97051W        W39964  10.129  34.028   4.980  0.2310 -0.2521 -0.0834
97052W        W39965  25.303   3.767   2.953  0.0677 -0.0885 -0.0908
97053W        W39966  14.155  26.661   9.462 -0.1931 -0.4264  0.2980
97054W        W39967  14.462  26.178   8.157  0.0215 -0.3953  0.2857
97055W        W39968   0.913  29.944   9.774  0.0140 -0.0656 -0.3370
97056W        W39969   7.351   7.295  10.542 -0.1410  0.0651  0.2256
97057W        W39970   8.516   3.065  13.388  0.0439  0.0815  0.0888
97058W        W39971  11.109   4.738  11.506  0.0293  0.0623 -0.0040
97059W        W39972  15.144  29.510   4.533 -0.5020  0.0106  0.4344
97060W        W39973   4.515   4.059   8.427 -0.0004 -0.0937 -0.1478
97061W        W39974  20.686  29.452   0.199 -0.2312 -0.1052  0.2298
97062W        W39975   8.285   2.490  11.927 -0.0076 -0.1383 -0.1593
97063W        W39976  13.058  32.121  29.477 -0.0355 -0.3633  0.0015
97064W        W39977   5.866  32.265  10.593 -0.0859 -0.1712  0.3197
97065W        W39978  17.282   0.574  10.362  0.1778  0.0942 -0.0329
97066W        W39979  14.627   4.321   9.614 -0.2262  0.0466 -0.0707
97067W        W39980  14.319  34.342  12.264  0.0692 -0.2457 -0.2413
97068W        W39981  10.911  34.073  10.966 -0.2720  0.2490 -0.0401
97069W        W39982   2.432   2.919   3.223  0.1636  0.0292 -0.2122
97070W        W39983  12.217  26.737  29.527  0.1838 -0.2510 -0.1990
97071W        W39984  14.346   5.931   9.953  0.0303 -0.2138 -0.0052
97072W        W39985  12.732  29.944   8.881  0.2865  0.3702 -0.3680
97073W        W39986   8.911  23.014  26.425  0.1911  0.2175  0.0038
97074W        W39987   6.564  31.689   1.119 -0.0268  0.1457 -0.0079
97075W        W39988  11.402  29.743  11.687 -0.2466  0.1746  0.0741
97076W        W39989  16.566  33.128  11.044 -0.0098  0.0347 -0.1598
97077W        W39990  15.828  29.313   4.575  0.1289  0.1005 -0.0602
97078W        W39991   5.947  29.548   2.426  0.0924 -0.2337  0.1918
97079W        W39992  12.095  28.151  29.735  0.0318  0.0721  0.0411
97080W        W39993   8.023   6.609   8.343 -0.2063 -0.0497 -0.3100
97081W        W39994  17.344   2.178   6.542  0.2406 -0.0789  0.1908
97082W        W39995  22.446  27.805   9.087  0.0456 -0.0310 -0.3256
97083W        W39996  11.065   6.499   6.116 -0.3379  0.1140  0.2371
97084W        W39997  10.874  30.789   9.961 -0.0230 -0.0051 -0.1011
97085W        W39998   9.603   8.974   6.770  0.1012  0.0368  0.0252
97086W        W39999   1.022  30.051   8.294  0.0434  0.0328  0.1053
97087W        W40000  32.627   1.723   9.374  0.1158  0.3132  0.2943
97088W        W40001  20.759  29.070   6.041  0.3920  0.0580  0.0792
97089W        W40002   6.740  30.494  12.348 -0.0602  0.1886 -0.0099
97090W        W40003  12.832  34.162   6.942  0.1040  0.0599 -0.0973
97091W        W40004  13.393   0.756   3.309  0.0486  0.0721 -0.0257
97092W        W40005   7.141  24.721   8.515  0.2925  0.0412 -0.1050
97093W        W40006  13.694  30.040   6.010  0.1841 -0.0125 -0.1677
97094W        W40007  11.342  31.187   9.932  0.2184  0.1843  0.0244
97095W        W40008  11.353  34.406   6.955 -0.0290 -0.1599 -0.1643
97096W        W40009  16.003   3.043   9.257 -0.2229 -0.1943 -0.1837
97097W        W40010   6.699  28.542   7.937 -0.0269 -0.2157  0.2687
97098W        W40011   5.491   3.435   7.617 -0.0777 -0.1374  0.2303
97099W        W40012   7.677  20.750  29.058  0.0123  0.0932 -0.1014
97100W        W40013  27.536  30.541   8.219 -0.1977  0.2490  0.0766
97101W        W40014  15.198  32.200   7.591  0.0379  0.0130 -0.1519
97102W        W40015   3.179  30.286   1.177 -0.1888 -0.2922  0.3044
97103W        W40016   3.125   3.613  13.405 -0.0839 -0.3517 -0.1441
97104W        W40017  33.347  27.070   8.561  0.2653 -0.0112 -0.1980
97105W        W40018  17.023  29.740   7.308 -0.2453 -0.0043 -0.0650
97106W        W40019  11.067   2.823   5.774  0.0911  0.1041  0.0524
97107W        W40020   9.530  28.985  11.250 -0.0236  0.0865 -0.0081
97108W        W40021   9.878   5.317  11.443 -0.1397 -0.0777 -0.1019
97109W        W40022   8.562   2.447  27.192 -0.0428 -0.1886 -0.1018
97110W        W40023  17.994  30.039   7.088 -0.0617 -0.1401  0.1401
97111W        W40024  11.421  22.833   9.405  0.1154  0.1288 -0.0032
97112W        W40025  15.204   0.463   0.256  0.0750 -0.1190  0.0174
97113W        W40026   8.807  26.877   5.139 -0.0075  0.1137  0.1453
97114W        W40027   3.070  22.056  25.142 -0.0703  0.2010  0.0825
97115W        W40028   6.923  26.108  10.761  0.2630 -0.2089 -0.0239
97116W        W40029  17.887  32.644  10.032 -0.2630 -0.0879 -0.1824
97117W        W40030  20.481  27.772   9.756  0.2139  0.3001 -0.1446
97118W        W40031  11.307  22.030   7.930  0.1063  0.0696 -0.2676
97119W        W40032  17.559  24.267   7.145  0.0630  0.0301  0.1740
97120W        W40033  16.612   4.812   6.480 -0.2587 -0.1871  0.1147
97121W        W40034  15.454  32.342   5.427  0.3867 -0.2633 -0.0724
97122W        W40035  11.669  20.469  25.117  0.0295  0.0646 -0.3073
97123W        W40036  13.255   1.393  10.417 -0.0524 -0.2694 -0.1327
97124W        W40037  11.003  28.263   7.638  0.2078  0.0550  0.0623
97125W        W40038   6.686  33.520  12.159  0.2647 -0.0011 -0.1191
97126W        W40039  19.315  31.982   9.544  0.0200 -0.2551  0.2787
97127W        W40040  13.694  31.831   8.132  0.1291 -0.0717 -0.1142
97128W        W40041   8.093   3.069  13.142 -0.2431 -0.0708 -0.1253
97129W        W40042   4.608   0.795   4.334 -0.0326  0.1092  0.1358
97130W        W40043   7.879  34.330  12.646  0.1315 -0.1867  0.1366
97131W        W40044   9.337  32.561   5.513  0.1347  0.1817 -0.0007
97132W        W40045   4.995   4.253   8.587 -0.0266 -0.1574 -0.1192
97133W        W40046   5.721  24.986  10.155  0.2281 -0.0244 -0.2528
97134W        W40047   5.036  27.721   9.194  0.1003 -0.2170  0.0365
97135W        W40048   9.214  31.273   8.489 -0.0704 -0.1224 -0.1454
97136W        W40049  13.231   6.468   4.191 -0.0502  0.0317  0.1472
97137W        W40050   5.568   4.791  11.925  0.1284 -0.1119  0.3033
97138W        W40051   7.190  34.300  12.152 -0.4652 -0.0352 -0.3815
97139W        W40052  11.479  21.711   7.534 -0.2303  0.4573  0.1526
97140W        W40053  15.972   0.621   3.792 -0.0383  0.0050 -0.1438
97141W        W40054  16.588  34.100   6.527 -0.1531  0.2385  0.1020
97142W        W40055   4.379  26.443   8.208  0.0171  0.2129 -0.2702
97143W        W40056  10.595  31.405   4.410 -0.1372  0.0001  0.0818
97144W        W40057  14.899  24.212   8.746  0.0765  0.1698  0.3101
97145W        W40058  14.784  20.900   3.519 -0.1018  0.0116 -0.0851
97146W        W40059  17.897  31.612   4.905  0.0046  0.2344  0.0237
97147W        W40060   9.757   1.843  10.802  0.1858  0.0143  0.3418
97148W        W40061  11.610  28.201   0.035 -0.0594  0.1393  0.0477
97149W        W40062   3.107  29.074   8.652 -0.0097 -0.2426 -0.0576
97150W        W40063   2.334   3.603  29.527  0.0114  0.1751  0.1451
97151W        W40064  10.490   0.313   3.803 -0.0092  0.1258 -0.3542
97152W        W40065   8.788  31.730   1.145  0.2323  0.0153  0.0255
97153W        W40066   7.254  21.836   4.046 -0.0180 -0.3747  0.1119
97154W        W40067  12.425   2.150   5.601 -0.0447  0.0255  0.1820
97155W        W40068   4.641  27.346   4.122  0.0837  0.0548  0.0183
97156W        W40069  11.407  25.882   5.079  0.1913  0.0003  0.0222
97157W        W40070  16.035  31.757   5.144  0.1890 -0.1933  0.0252
97158W        W40071   3.486  18.877   6.749  0.1414  0.1109  0.0601
97159W        W40072  17.029  29.620   3.568  0.0128  0.1296  0.0715
97160W        W40073  14.774  30.807   8.777  0.2047  0.3338 -0.0621
97161W        W40074  13.152   1.337   9.908 -0.1939 -0.2072  0.1313
97162W        W40075   2.760   2.484   1.740 -0.1943  0.1034  0.1907
97163W        W40076  20.068  25.700  25.004  0.1953  0.0055  0.0229
97164W        W40077  14.741  30.550   7.462  0.0810  0.1498  0.1941
97165W        W40078  10.801  26.169   5.846 -0.5945  0.1415 -0.0258
97166W        W40079   6.050  22.892   7.712 -0.0568 -0.0371 -0.0314
97167W        W40080  27.642   7.479   2.593  0.2342  0.3267  0.1424
97168W        W40081  21.116  20.812   5.080 -0.1126 -0.0230  0.0521
97169W        W40082  20.456  25.522   7.413  0.1505 -0.1367 -0.2162
97170W        W40083  17.035  29.227   7.171 -0.1912  0.1259 -0.1799
97171W        W40084  18.135  23.141   6.332 -0.0622  0.0665  0.7378
97172W        W40085  11.189  23.723   8.281 -0.2025  0.0765 -0.2105
97173W        W40086  14.402  30.691   1.059 -0.2071 -0.0599 -0.2052
97174W        W40087  14.378  26.537   3.647 -0.0687  0.3293  0.1660
97175W        W40088   8.653  33.830  12.449  0.1801 -0.2182 -0.1089
97176W        W40089  12.571  26.735   1.590  0.0935  0.0219  0.2002
97177W        W40090  30.423  31.023   9.357  0.0352 -0.0654  0.0918
97178W        W40091   8.005  34.166  28.118  0.0643  0.1816  0.0232
97179W        W40092   3.567   6.024   9.011 -0.2528  0.1112  0.2053
97180W        W40093  19.131  31.787   3.754  0.0414  0.0872  0.1519
97181W        W40094  14.270  26.463   5.375  0.4899 -0.1187  0.0715
97182W        W40095   2.962   0.929   6.161  0.1676  0.3221  0.0963
97183W        W40096  20.283  31.512   8.784 -0.2157  0.5242 -0.0580
97184W        W40097  26.302   4.422   4.511  0.2469 -0.0829 -0.2769
97185W        W40098  12.281  33.110   2.346 -0.1910 -0.1712  0.0668
97186W        W40099   9.430  28.973   7.123 -0.2610  0.3491 -0.0437
97187W        W40100  12.770  30.740   4.382 -0.1466 -0.0360  0.0860
97188W        W40101  17.363  31.863  10.450  0.1798 -0.1205 -0.1205
97189W        W40102  15.468  23.216   9.184  0.1579 -0.1902  0.4227
97190W        W40103   9.855  28.021   3.172 -0.0536  0.2500 -0.0436
97191W        W40104  15.065  25.120   9.500 -0.1163  0.1170  0.1375
97192W        W40105  10.123  31.947   1.121  0.2135  0.3307  0.1112
97193W        W40106   8.362  26.730   6.010  0.0831  0.0976 -0.1061
97194W        W40107  13.181  16.612   6.415  0.0902  0.1969  0.1266
97195W        W40108  11.259   0.161   9.193  0.0582  0.1113 -0.1030
97196W        W40109   4.693  30.094   6.644 -0.2615 -0.0984  0.2652
97197W        W40110  33.982   3.950   6.852  0.1078  0.2198 -0.2017
97198W        W40111   8.393   5.077   5.673  0.0402 -0.3463 -0.0508
97199W        W40112  16.727  24.847  26.867 -0.1960  0.0321 -0.0137
97200W        W40113  18.162  26.398   6.511  0.1799  0.0601 -0.1061
97201W        W40114  15.963  19.417   3.169  0.0103 -0.0151 -0.2681
97202W        W40115  24.639  29.906   4.128  0.0365 -0.0895  0.2938
97203W        W40116  13.956   3.035   9.578  0.0404  0.1886 -0.0866
97204W        W40117  15.786  30.701   2.509 -0.0818  0.3891 -0.2131
97205W        W40118   8.015  33.429  10.686  0.0476  0.0232  0.0441
97206W        W40119  14.647  30.491  26.585  0.1022 -0.2233  0.2305
97207W        W40120  19.609   9.852   8.710  0.0055 -0.0355  0.1718
97208W        W40121  10.149   0.413  28.119 -0.3085  0.0175 -0.1810
97209W        W40122   8.562  23.036  28.534  0.1220  0.2964  0.1088
97210W        W40123   7.657  29.696   0.063  0.2696  0.2560 -0.1324
97211W        W40124  22.281  29.995   7.304 -0.1775 -0.1841  0.1566
97212W        W40125   9.452  31.908   0.780 -0.2494  0.2679  0.0637
97213W        W40126   5.541  34.031  26.549  0.1358  0.0698  0.0619
97214W        W40127   7.642  32.149   8.528  0.0956  0.1471  0.2144
97215W        W40128  12.980  28.471   5.504  0.1669  0.1040  0.0031
97216W        W40129  15.229  33.338  28.893 -0.1228  0.0390 -0.0039
97217W        W40130  24.882  26.149   9.231 -0.0738  0.0236  0.0704
97218W        W40131   9.449   2.885  10.636 -0.2648  0.0192  0.0863
97219W        W40132   3.255  34.057   0.816  0.0737  0.2110  0.1442
97220W        W40133   8.207   0.799  13.807 -0.2527 -0.2237 -0.2020
97221W        W40134   8.388  27.991   9.819  0.0045  0.4750  0.2055
97222W        W40135  18.794  32.044  10.700  0.3744 -0.0105 -0.0916
97223W        W40136   9.656   1.340  10.853  0.0558 -0.2715  0.3187
97224W        W40137  13.343  33.343   9.498 -0.2321 -0.1429 -0.0021
97225W        W40138  15.922  29.702   8.265  0.1053  0.1416 -0.0052
97226W        W40139   1.213   3.208  10.647 -0.1754  0.2127 -0.1137
97227W        W40140   9.732  30.076   4.622  0.1063 -0.1028  0.0816
97228W        W40141  23.855  10.660   8.639 -0.0083  0.1444 -0.0115
97229W        W40142   9.856  26.134  10.576 -0.2445 -0.1220 -0.1066
97230W        W40143   5.246   4.221   7.800  0.2070  0.0898 -0.0254
97231W        W40144  12.072   2.084   0.128  0.1743  0.1203  0.0592
97232W        W40145  15.449  30.614   9.050 -0.0078  0.1200 -0.2247
97233W        W40146  21.741   2.790   9.773 -0.1060 -0.2666  0.0940
97234W        W40147  23.696  27.452   0.203 -0.0750 -0.0218  0.2963
97235W        W40148   9.150  21.920   0.894 -0.0851  0.1034  0.2392
97236W        W40149  29.793   1.286  26.294  0.0338 -0.2824 -0.1278
97237W        W40150  11.050   4.985   9.628  0.1430  0.1708  0.0053
97238W        W40151  13.472  27.115   8.758  0.1225  0.0273  0.1092
97239W        W40152   9.731   1.538   2.635  0.2945  0.1495 -0.1451
97240W        W40153   6.335  31.255  29.013 -0.1472  0.3881 -0.0765
97241W        W40154  16.807  31.634   9.612 -0.4560 -0.0665 -0.0928
97242W        W40155  14.125  28.608   7.330  0.0182  0.0431 -0.0768
97243W        W40156   3.236   4.608  10.040 -0.0238  0.1057 -0.0129
97244W        W40157   8.997  22.546   4.504  0.5234 -0.1640  0.0512
97245W        W40158  15.262  29.219   8.324  0.3306 -0.2083 -0.0454
97246W        W40159   5.934   3.050  11.065 -0.0103  0.2641 -0.0776
97247W        W40160  12.144  32.784   9.570  0.2193 -0.0325  0.3036
97248W        W40161  21.772   9.218  29.471 -0.2932  0.0483 -0.0761
97249W        W40162   0.527  31.452  25.438  0.3236 -0.1169  0.2859
97250W        W40163  14.342  30.474   6.764  0.0102 -0.0624  0.0476
97251W        W40164  15.236   2.608   4.337 -0.0193  0.0159 -0.1974
97252W        W40165  23.744  28.976   8.135 -0.3100 -0.0412  0.0041
97253W        W40166   2.174  33.166   4.889  0.1676 -0.0669  0.3003
97254W        W40167   9.273   3.833  10.366  0.0112  0.1305  0.0228
97255W        W40168   9.769  26.961  10.390 -0.1093 -0.1401  0.1200
97256W        W40169   4.086   0.469   9.915 -0.1435  0.0335 -0.2360
97257W        W40170   4.109   8.182   9.113 -0.1692  0.0705  0.1421
97258W        W40171  11.066  32.248  28.983  0.0525  0.1731 -0.3369
97259W        W40172  14.945  29.480   7.914  0.1918 -0.2647 -0.0485
97260W        W40173  13.378  26.705   7.905 -0.0299 -0.3145  0.2288
97261W        W40174   8.947  31.040   5.204  0.0822 -0.1088 -0.1622
97262W        W40175  12.490  29.339   9.716  0.0667 -0.0340  0.2103
97263W        W40176   4.568   9.588   9.082  0.1753  0.0206  0.4837
97264W        W40177  10.131  22.620   6.820 -0.2062  0.0334 -0.0186
97265W        W40178  14.766   5.327   0.888  0.1116  0.0159 -0.2174
97266W        W40179  18.627   3.274   9.215  0.0749 -0.0325 -0.2292
97267W        W40180   5.647  29.062   3.178  0.2093  0.1631  0.0223
97268W        W40181   4.196   1.326   5.429  0.3602 -0.1481  0.0712
97269W        W40182  11.578  23.896   0.501 -0.2304  0.0212  0.1060
97270W        W40183  21.143   0.057   6.583 -0.0775 -0.0093  0.0418
97271W        W40184   9.782  33.210   3.560 -0.1255 -0.2366 -0.1916
97272W        W40185   3.150   5.318  23.752 -0.1497 -0.1840 -0.0466
97273W        W40186   9.141  28.593  10.597 -0.0735  0.0766 -0.0558
97274W        W40187  10.968  29.089   5.769  0.0225 -0.0328 -0.2800
97275W        W40188  10.494  31.322  11.760  0.2877  0.0439 -0.0716
97276W        W40189  13.527  31.577   3.603 -0.0654 -0.2271  0.0451
97277W        W40190   7.753   1.455  12.567 -0.1001  0.1044 -0.0597
97278W        W40191   6.277  27.923   3.791  0.1046  0.3749 -0.0776
97279W        W40192  15.542  24.419   7.490 -0.1690  0.0958  0.0835
97280W        W40193  16.388  24.692   2.768  0.1583 -0.2898  0.3130
97281W        W40194  14.283  29.511   8.226 -0.4650 -0.1783 -0.0049
97282W        W40195  10.004  25.336   8.607 -0.0193  0.0148 -0.2274
97283W        W40196  21.905  30.455   6.805  0.0014 -0.0149 -0.1416
97284W        W40197  15.596   3.172   5.939  0.0267 -0.2684 -0.0644
97285W        W40198  28.538   7.190   2.819 -0.0945 -0.0961  0.0473
97286W        W40199  13.964  32.856  11.136  0.0488 -0.2782 -0.2125
97287W        W40200   6.380  33.075   3.285  0.3842 -0.1023 -0.0616
97288W        W40201   3.879   3.361   9.330 -0.1738  0.2203 -0.0615
97289W        W40202   7.386   4.226  11.701  0.0437  0.1898 -0.0423
97290W        W40203   9.705  27.696  10.676 -0.4432 -0.3600 -0.0522
97291W        W40204  10.997  30.342  10.245  0.0884  0.2290 -0.0712
97292W        W40205  19.635  26.656   9.090  0.0021  0.1097  0.0793
97293W        W40206  12.174  26.059   0.763  0.1567  0.0189  0.0764
97294W        W40207  15.674  31.831   9.464  0.1177  0.0023  0.1070
97295W        W40208  18.400  32.177   9.672 -0.1553 -0.3155  0.0087
97296W        W40209  15.871  31.741  24.364 -0.0286  0.0157  0.0736
97297W        W40210   8.748  32.949  12.256  0.3159  0.1722 -0.0801
97298W        W40211  21.498  32.962   1.911 -0.0650  0.0192 -0.1984
97299W        W40212  10.168   4.167   1.158 -0.0556 -0.1066  0.2579
97300W        W40213   8.537  23.597   3.207 -0.1597 -0.0710  0.3940
97301W        W40214   3.525   1.662   7.423 -0.2297  0.1356 -0.1175
97302W        W40215   2.247   1.697   9.566 -0.0162 -0.0649  0.0728
97303W        W40216   9.516  27.738   2.339 -0.2403 -0.1346 -0.2474
97304W        W40217  13.731  28.889   8.058  0.0494  0.2562  0.1072
97305W        W40218  10.701   0.197   8.005  0.0301 -0.0313 -0.2048
97306W        W40219  10.972   2.748  10.083 -0.0749 -0.0663  0.0082
97307W        W40220  12.884   8.497   7.541 -0.1181 -0.1030  0.0226
97308W        W40221   5.112   0.584   8.937  0.0467 -0.1951  0.0825
97309W        W40222  31.770  31.371   7.190  0.1095 -0.1302  0.2454
97310W        W40223  11.893  10.132   9.824  0.0857 -0.0806 -0.1723
97311W        W40224  14.041   9.167   7.064  0.0277  0.3516  0.0257
97312W        W40225  17.003  30.225  10.196 -0.0029 -0.0689  0.0590
97313W        W40226  11.486   3.907   8.036 -0.0219  0.0013 -0.3106
97314W        W40227  12.421   3.306  11.961  0.0284 -0.2130 -0.0563
97315W        W40228   4.446  25.814   4.677 -0.0148  0.0305  0.3288
97316W        W40229  12.064   4.305  18.873 -0.1146 -0.0489  0.2714
97317W        W40230   5.903   0.520   3.024 -0.1436  0.1493 -0.0564
97318W        W40231  20.360  31.373  26.128 -0.1323  0.1587  0.1175
97319W        W40232   9.265  30.257  28.953  0.0501 -0.0588 -0.0209
97320W        W40233  20.337  33.982  27.188 -0.0165  0.3476  0.0266
97321W        W40234  16.073  32.454  25.448  0.0913  0.1504 -0.1711
97322W        W40235   9.936   6.692   2.405  0.1905 -0.0622  0.1867
97323W        W40236   0.426   0.779   8.290  0.0880 -0.0692 -0.1043
97324W        W40237  14.114  25.827   7.330  0.1530 -0.0956 -0.0624
97325W        W40238  12.613  26.548  24.628 -0.1269  0.2727  0.1728
97326W        W40239  14.309  10.750  27.946 -0.0585  0.0680 -0.0559
97327W        W40240  19.011  31.763   0.987  0.1434  0.0468 -0.3798
97328W        W40241  28.014  26.478   5.297 -0.2888  0.2325 -0.1664
97329W        W40242   2.962   6.509   4.661  0.0250 -0.0385  0.1916
97330W        W40243  25.956  31.193   7.336 -0.0112  0.3018 -0.3592
97331W        W40244  16.692   0.340   5.011  0.1403  0.2076 -0.0061
97332W        W40245  12.476   0.587  29.298 -0.1628  0.0853  0.2630
97333W        W40246   2.046  11.434  10.597 -0.0730 -0.1236  0.1641
97334W        W40247   7.053   2.842  29.330  0.2247 -0.2403  0.3632
97335W        W40248  16.445  24.865   3.238 -0.0164 -0.1217  0.1305
97336W        W40249  20.252   8.583   1.709  0.0264  0.2370  0.2222
97337W        W40250   6.769  31.414  27.073  0.0459  0.2248 -0.4575
97338W        W40251  16.429  24.747  25.400  0.2373  0.0658  0.0927
97339W        W40252  21.503  13.282   5.639  0.0432 -0.0529  0.1563
97340W        W40253   9.568  30.890   8.062  0.0536 -0.0496  0.1362
97341W        W40254   8.983   7.316  28.325  0.1397  0.2560  0.2897
97342W        W40255  10.676  33.567  27.081 -0.2242 -0.0838  0.0869
97343W        W40256   1.331  34.254  20.904  0.0971 -0.1437 -0.2271
97344W        W40257  16.586  31.504   0.029 -0.3555 -0.1548  0.1721
97345W        W40258  10.175  29.982  18.860  0.0595  0.1440 -0.0947
97346W        W40259   5.288  25.922  29.711 -0.0170  0.0028 -0.3131
97347W        W40260  10.568  27.179   1.294  0.0753 -0.1211  0.1971
97348W        W40261  12.316  11.596  21.788 -0.3721 -0.0516  0.3641
97349W        W40262  30.802   4.198  27.033 -0.1130  0.2173 -0.1389
97350W        W40263  18.589  27.973   4.109 -0.0415  0.0120  0.0046
97351W        W40264   7.390   1.964   8.051  0.0110 -0.2326 -0.2698
97352W        W40265  15.644  21.218  27.493 -0.0362  0.0452  0.0558
97353W        W40266   2.565   2.151   0.935  0.0402  0.1668  0.1269
97354W        W40267  17.262   4.178  28.231  0.0660  0.0423 -0.3341
97355W        W40268   8.105   0.101   8.029 -0.2473  0.0418 -0.0656
97356W        W40269  16.788  29.873   6.401 -0.1004 -0.0849 -0.2383
97357W        W40270   8.021  32.897   4.100 -0.3615 -0.0476 -0.0080
97358W        W40271  15.019  27.073  28.944 -0.1413 -0.2728  0.0330
97359W        W40272  17.208  33.604   9.114 -0.2016 -0.4748 -0.0502
97360W        W40273  12.749  30.501  23.837  0.0717  0.0258  0.0729
97361W        W40274  17.516  29.849   3.465 -0.3117 -0.2148  0.1400
97362W        W40275  19.938  21.996   1.021 -0.1387  0.2859  0.0133
97363W        W40276   9.843  32.277  23.154  0.3745  0.4839  0.0843
97364W        W40277   6.428   2.469   0.809  0.0273 -0.2922  0.0124
97365W        W40278  16.177   5.064   0.470 -0.0360  0.1182 -0.1047
97366W        W40279   0.789   7.125  28.515  0.1872 -0.1899 -0.2670
97367W        W40280  21.402  33.197   9.465  0.2510 -0.1809  0.2443
97368W        W40281   7.875   7.658   8.943  0.1963  0.1302 -0.0152
97369W        W40282   8.411  32.107   3.497  0.0428  0.1980 -0.0418
97370W        W40283   8.870  29.682   1.115  0.2130  0.1084 -0.0689
97371W        W40284  13.884   4.475  26.752  0.1683 -0.0927 -0.0231
97372W        W40285  18.779  10.204  29.274 -0.3727  0.1049  0.1328
97373W        W40286  24.616   0.466  22.926 -0.0789 -0.1712 -0.2916
97374W        W40287  24.587   3.298   4.328 -0.1298 -0.1134 -0.0715
97375W        W40288   8.558  31.916  25.446 -0.1281  0.0054  0.0158
97376W        W40289  15.780  33.950   1.596 -0.2062  0.0629 -0.0655
97377W        W40290  12.557   3.981   4.029  0.0148 -0.3453 -0.3098
97378W        W40291  14.777  33.139   7.768 -0.3762 -0.1873 -0.2369
97379W        W40292   4.923  26.827  28.715  0.0010  0.0208  0.1461
97380W        W40293   6.581  30.736  11.370  0.2133 -0.0996 -0.0420
97381W        W40294   7.689   1.341   5.381  0.0163 -0.1016 -0.1690
97382W        W40295  12.696  26.529  19.006  0.1106  0.2039 -0.0581
97383W        W40296  14.411  27.901   6.091 -0.1993  0.2918 -0.0954
97384W        W40297  19.334  32.138  26.043  0.0000 -0.2958 -0.0097
97385W        W40298  31.537   0.381  20.844 -0.2065 -0.0388 -0.0209
97386W        W40299   8.823  30.912  23.026  0.0506 -0.1943 -0.1684
97387W        W40300  21.428   0.768  21.438 -0.0423 -0.1786  0.3810
97388W        W40301  11.478  33.953  21.625  0.0847 -0.1808 -0.2212
97389W        W40302   8.906   5.849   0.413  0.4263 -0.1432  0.2901
97390W        W40303  24.481   2.261   9.907 -0.3107  0.1134 -0.1087
97391W        W40304   5.056  30.349  29.755  0.0675 -0.2278 -0.0222
97392W        W40305   4.826   0.287  11.831 -0.1838 -0.0082  0.0232
97393W        W40306   4.913   5.043  10.159  0.0722  0.0978  0.0027
97394W        W40307  14.472   5.708  29.756 -0.2873 -0.2272  0.0640
97395W        W40308   9.953  26.761  29.109  0.2097  0.1015 -0.2011
97396W        W40309  13.620  29.487  24.763  0.0268  0.1040 -0.1391
97397W        W40310   9.065   1.443   3.576 -0.1351  0.1856 -0.1018
97398W        W40311  11.949   3.151   4.475  0.1844 -0.1559  0.3143
97399W        W40312  12.712  27.219   4.104  0.2852  0.1229  0.1218
97400W        W40313  20.113  24.529  28.308  0.4228 -0.0028 -0.3200
97401W        W40314  12.115  27.426   5.208  0.1990 -0.0687 -0.4707
97402W        W40315   8.584  31.849  23.120 -0.0897  0.0936 -0.0421
97403W        W40316   8.448  29.572  24.066  0.2821  0.0409 -0.4152
97404W        W40317  14.721  31.331  26.840  0.1455 -0.2425 -0.0228
97405W        W40318  14.586  25.396  29.164  0.1314  0.0243 -0.0745
97406W        W40319  20.411  23.691  29.050  0.0633 -0.1419  0.1096
97407W        W40320  11.103  34.084   3.804  0.2041  0.0668  0.1170
97408W        W40321  23.432  26.920   5.687  0.0980 -0.1517 -0.2445
97409W        W40322   9.439   2.195  28.738  0.0132 -0.0746  0.1310
97410W        W40323  12.370  32.483  28.420  0.2236 -0.3236 -0.0232
97411W        W40324  19.278   0.973   9.397 -0.0161 -0.1837  0.2233
97412W        W40325  18.506  27.181  27.219 -0.2742  0.0563 -0.1143
97413W        W40326  11.075  27.566  10.844  0.1492  0.0847  0.1553
97414W        W40327   5.224  29.358   2.886 -0.1442 -0.0528  0.0796
97415W        W40328  11.881   1.572  26.345 -0.2387  0.2513 -0.1709
97416W        W40329   5.019  28.117   8.747 -0.0716  0.0473 -0.0032
97417W        W40330  14.938  29.564   6.751 -0.1593  0.2353  0.0254
97418W        W40331  20.110  30.748  28.473  0.3048 -0.1451  0.1816
97419W        W40332  12.738  32.522   2.734 -0.1232 -0.1527  0.1352
97420W        W40333  13.602   4.608  28.682  0.1297  0.2122 -0.0623
97421W        W40334   8.340  30.138   8.691  0.1776  0.0527 -0.1040
97422W        W40335   6.390   2.394   2.182  0.1911 -0.0875 -0.0737
97423W        W40336  17.950  25.861  19.836  0.1227  0.0317  0.0752
97424W        W40337  17.174   0.645   6.878  0.0405 -0.0677 -0.0340
97425W        W40338   8.411  33.442   0.826 -0.1558 -0.2674 -0.1178
97426W        W40339  20.687   7.345   0.518 -0.0368  0.1061  0.0186
97427W        W40340   9.645  27.862  23.640  0.0119 -0.0171  0.2338
97428W        W40341  11.120  30.145   8.173 -0.2350 -0.2733 -0.1008
97429W        W40342   5.373  30.197   9.700  0.0712  0.2596 -0.1430
97430W        W40343  10.317   1.205   2.077 -0.0909  0.0808  0.1057
97431W        W40344  20.590  27.296  26.686  0.1807  0.0616  0.3787
97432W        W40345  21.249  25.953   0.262  0.0287  0.3126 -0.0205
97433W        W40346  14.581   4.833   7.726  0.0151 -0.2051  0.2264
97434W        W40347  21.202  33.745  27.694  0.1223  0.0155  0.0763
97435W        W40348  21.705  29.427   8.516 -0.0044 -0.0630  0.2814
97436W        W40349  12.192  30.471  24.404 -0.5849  0.2254  0.0254
97437W        W40350  10.833  29.191   5.164 -0.2486  0.1686 -0.0596
97438W        W40351  11.257  22.358  28.935  0.1895 -0.1530  0.2176
97439W        W40352  14.130   0.643   3.371  0.2881  0.1939  0.2014
97440W        W40353   6.299   1.239   7.993 -0.1714  0.0302  0.2883
97441W        W40354   3.914  34.415  28.837 -0.0390  0.0383 -0.2249
97442W        W40355  12.480  25.357  22.394 -0.0669  0.0106 -0.0743
97443W        W40356  18.564   4.403  22.696  0.2238  0.1843 -0.2893
97444W        W40357  11.998  31.747   2.218  0.0903  0.0264  0.2620
97445W        W40358  19.267   1.314   6.582 -0.0005  0.0050  0.0579
97446W        W40359  28.968  33.710   9.079  0.3724  0.0979  0.0116
97447W        W40360  19.048  25.669  26.158 -0.2441  0.0415  0.2622
97448W        W40361   4.602  31.577   5.341  0.1829 -0.2403 -0.2411
97449W        W40362  10.759  31.700   2.307 -0.0857 -0.0579 -0.3940
97450W        W40363  20.019  27.075  25.314  0.1604  0.1077 -0.0812
97451W        W40364   4.020  24.606   1.378 -0.1664 -0.2204  0.0610
97452W        W40365  21.236  29.178   4.111  0.2453  0.4387 -0.0199
97453W        W40366  28.187  30.775   1.485  0.0442 -0.0494  0.2147
97454W        W40367  10.392  32.389  24.063  0.2479  0.0214  0.3299
97455W        W40368   6.872  25.806   2.311  0.0431 -0.0681 -0.0241
97456W        W40369  11.787  31.641  28.608  0.0750  0.0877 -0.1872
97457W        W40370  23.013  28.782   4.696 -0.0249 -0.1662  0.2402
97458W        W40371  19.306   9.911  23.004 -0.0467  0.1521 -0.0822
97459W        W40372  18.569  33.699   6.128  0.0431  0.3684  0.1201
97460W        W40373  20.522  24.114   8.385 -0.0428 -0.2806 -0.1159
97461W        W40374  12.390  32.103  29.658  0.0322  0.2739  0.1922
97462W        W40375  16.519   3.433   0.006 -0.2915 -0.0607  0.1657
97463W        W40376  14.470  17.308   1.782 -0.4190 -0.1231 -0.0421
97464W        W40377  11.889  30.787  24.209 -0.2552 -0.2116  0.0368
97465W        W40378  10.409  29.419   6.559 -0.0393  0.0541  0.1256
97466W        W40379  14.420  30.460   2.897  0.3389  0.0043 -0.2075
97467W        W40380  23.533   2.561  24.466  0.0641 -0.0675  0.1308
97468W        W40381  12.283  27.925   5.042 -0.4944 -0.1914 -0.0898
97469W        W40382  14.434  21.347  15.161 -0.1378  0.0517  0.0433
97470W        W40383  13.179   6.769  29.714 -0.2162  0.0642 -0.3154
97471W        W40384  18.275  27.568  29.511 -0.2064  0.3457 -0.1820
97472W        W40385  11.188   4.891  20.075 -0.0417  0.1878 -0.3543
97473W        W40386  11.732   1.720   8.107 -0.0100 -0.2173  0.1896
97474W        W40387  12.018   0.009   9.238 -0.2362  0.0386  0.2371
97475W        W40388  13.057  31.868   1.521  0.1513 -0.1277 -0.1385
97476W        W40389   7.671  28.255   7.811  0.0232 -0.1030  0.0404
97477W        W40390  19.244  32.669  27.602 -0.1189  0.3908 -0.3474
97478W        W40391  14.784   5.649  29.216  0.0020  0.1777  0.1374
97479W        W40392  23.756  10.238   8.289  0.0762  0.1411  0.0687
97480W        W40393   7.490  31.151  24.408 -0.0603 -0.1998  0.0802
97481W        W40394  18.009  28.294  24.989 -0.3309 -0.1300 -0.0953
97482W        W40395  16.456  26.774   2.981  0.0894 -0.0094  0.0228
97483W        W40396  23.770  29.858   7.750 -0.3167  0.0686 -0.1672
97484W        W40397  12.202   5.561   8.079  0.2664 -0.0211  0.1285
97485W        W40398  12.340   1.550  19.726 -0.1353 -0.0116  0.0287
97486W        W40399   7.022   1.466  11.558 -0.0565 -0.2335  0.0323
97487W        W40400  23.725  30.206  17.371 -0.1055 -0.2533 -0.0284
97488W        W40401   9.414   7.242  21.372 -0.0950  0.0522 -0.3974
97489W        W40402   0.761   2.588   7.985 -0.0281 -0.0591  0.0334
97490W        W40403  10.268  29.247  28.296  0.0434  0.0691 -0.0658
97491W        W40404  14.940   7.213   0.988 -0.0215 -0.1429  0.2432
97492W        W40405  27.870  10.002   9.389 -0.1564 -0.2860 -0.0345
97493W        W40406   6.396  26.863  27.330  0.0073 -0.0367 -0.0603
97494W        W40407   7.987  32.627  20.061 -0.1075  0.2897  0.2918
97495W        W40408  17.216  32.010  27.419 -0.2957  0.4803 -0.0312
97496W        W40409  21.549   5.805   0.117 -0.1139 -0.3215  0.1114
97497W        W40410   9.446   1.105  11.823  0.2171  0.0378  0.0710
97498W        W40411  10.373  34.110   9.077 -0.1397 -0.0022 -0.0019
97499W        W40412  13.685  23.583  21.613 -0.1109  0.1523 -0.2409
97500W        W40413  14.974  33.902  18.411  0.3473 -0.3053  0.1870
97501W        W40414  24.871  31.148  25.525  0.4258  0.1802  0.2400
97502W        W40415   3.092   5.252   0.034  0.0568 -0.2119 -0.0700
97503W        W40416   8.726  24.677   6.074  0.2075  0.0986  0.3526
97504W        W40417   0.154  30.391  22.151  0.2965 -0.1541 -0.0620
97505W        W40418   8.956   7.090   0.110 -0.0617 -0.0408 -0.0073
97506W        W40419  19.682  29.362   3.210 -0.0664 -0.1577  0.2365
97507W        W40420  17.802  33.918   3.966  0.0802  0.0426  0.3050
97508W        W40421  10.486  31.503  24.289 -0.2617 -0.2433 -0.1094
97509W        W40422  11.124  31.435  27.155 -0.0744  0.1209  0.0425
97510W        W40423  10.358  31.620   1.452  0.2475 -0.1653  0.0180
97511W        W40424   3.745   1.390   0.734 -0.0760  0.0847  0.2348
97512W        W40425  25.877  19.608   4.432  0.1192 -0.1800 -0.2655
97513W        W40426  16.808  31.946   4.831  0.1526 -0.1026  0.2539
97514W        W40427  18.384   3.423  29.374  0.1118  0.1033 -0.0261
97515W        W40428  13.537  23.840   1.000  0.2249 -0.1316  0.0693
97516W        W40429  16.827  26.648   4.136 -0.0300  0.1006 -0.0733
97517W        W40430  10.205  30.838   3.305 -0.0100 -0.0343  0.1306
97518W        W40431  22.230  31.944  23.297  0.0008  0.3323 -0.1744
97519W        W40432  12.777   2.832   8.215  0.1248 -0.0779 -0.0934
97520W        W40433  10.508  28.778  20.741  0.0292  0.0327  0.1308
97521W        W40434  10.425   8.850  27.695 -0.0927  0.0889  0.2738
97522W        W40435  16.568  28.442  24.276  0.1826 -0.0107  0.1597
97523W        W40436  10.238  30.253   1.776 -0.1756  0.0232  0.1393
97524W        W40437   5.764  27.576  27.260  0.1638  0.1208  0.1716
97525W        W40438   7.891  22.944   3.865  0.0093  0.0546 -0.0247
97526W        W40439  21.308  22.374  29.350 -0.1717  0.4278  0.0840
97527W        W40440   9.505  30.572  29.657  0.0126 -0.2510  0.1761
97528W        W40441  13.494   0.649   0.483 -0.0782 -0.1422 -0.3629
97529W        W40442  11.476  11.445  29.266 -0.0354  0.3366  0.0483
97530W        W40443  19.305  24.718   4.897  0.0604  0.0664 -0.2689
97531W        W40444  11.321   3.431   4.061 -0.1979 -0.0865 -0.0748
97532W        W40445   8.043  27.571  28.927  0.0894  0.4331 -0.0992
97533W        W40446   8.250  28.728  26.487  0.1721 -0.0791 -0.1929
97534W        W40447  18.163   7.843   5.992  0.1137 -0.0597 -0.0145
97535W        W40448  11.216  24.121   0.780 -0.0183 -0.2894 -0.1072
97536W        W40449  11.827  33.196   0.488 -0.0702 -0.1049 -0.0523
97537W        W40450   4.147   4.148   0.987  0.1930  0.1991 -0.0756
97538W        W40451   0.358  18.181   2.042  0.1923 -0.0566  0.1215
97539W        W40452   2.599   7.113  24.372  0.0832  0.1529 -0.0252
97540W        W40453   8.535   6.672   2.064 -0.2995  0.0551 -0.0863
97541W        W40454   7.218  32.960   5.121  0.0386  0.0384  0.0010
97542W        W40455  20.061   5.566   3.250  0.1479 -0.1411  0.1447
97543W        W40456  17.256  33.318  19.955 -0.0673  0.0133 -0.2100
97544W        W40457   7.254   0.357  13.554 -0.0517  0.0565 -0.0973
97545W        W40458  17.694   2.450   2.048 -0.0545  0.0178  0.1823
97546W        W40459  21.608  33.158   7.704 -0.1814 -0.1073 -0.2274
97547W        W40460  11.649  31.774   5.168  0.0148 -0.2801 -0.0053
97548W        W40461  11.935  32.981   3.088 -0.2195  0.0801 -0.2628
97549W        W40462  12.960  22.556   1.083  0.1512 -0.1973  0.3447
97550W        W40463   8.854   6.101   8.531 -0.2569 -0.1284 -0.0470
97551W        W40464  10.506  29.596  26.283  0.1060 -0.0359 -0.0636
97552W        W40465  14.037  26.858   5.125 -0.3407 -0.0251  0.1145
97553W        W40466  10.252  29.617   0.962  0.0004  0.1592  0.2364
97554W        W40467  13.856  30.109   4.625  0.1980 -0.0515 -0.0382
97555W        W40468   9.463   4.444   2.463  0.0828 -0.0674 -0.1484
97556W        W40469  11.904  30.927  12.217 -0.2140 -0.0525 -0.4760
97557W        W40470  10.027  28.770  11.274  0.1636 -0.3609 -0.0387
97558W        W40471  18.526  30.860   7.399 -0.2560 -0.0272  0.2070
97559W        W40472  22.859  31.696   6.708  0.0507  0.3363 -0.1284
97560W        W40473  14.514   2.542  11.463 -0.0422  0.2644  0.2578
97561W        W40474   5.494  32.876   6.999 -0.1228  0.1177 -0.1095
97562W        W40475  14.206   3.531  10.286  0.1928 -0.1275 -0.0984
97563W        W40476   0.259   6.746   1.587  0.0385  0.0393  0.1182
97564W        W40477  12.707  27.224  26.899  0.3145 -0.2963  0.0063
97565W        W40478   9.322  29.565   3.870  0.1515 -0.1836  0.0706
97566W        W40479   9.878  29.148   8.755  0.1318  0.1417 -0.3958
97567W        W40480  13.531  33.950   0.926 -0.0015 -0.3133 -0.2031
97568W        W40481   5.804  29.511  29.564  0.0416  0.2095  0.2852
97569W        W40482   8.915  33.901   9.953 -0.4414  0.0696 -0.0295
97570W        W40483   7.082  27.671  10.231  0.2162  0.4049  0.0632
97571W        W40484  15.142  32.584  26.954  0.4159 -0.1744  0.0529
97572W        W40485  10.205   5.930   7.157 -0.2878 -0.0870  0.0031
97573W        W40486  17.278   0.312  28.292  0.2173 -0.2720  0.1704
97574W        W40487  17.547  26.913  26.602 -0.2043 -0.1670 -0.3054
97575W        W40488  12.217   2.562   4.667  0.2720 -0.0735  0.1939
97576W        W40489  13.991  30.410  11.134 -0.0452  0.0879 -0.1556
97577W        W40490  17.952   5.874  28.115 -0.0244  0.2778  0.0224
97578W        W40491  15.322  19.154  24.745  0.3351  0.0163  0.1208
97579W        W40492  25.590   6.031   7.034  0.2169 -0.1080  0.1476
97580W        W40493   6.118   8.492   5.301  0.0428 -0.2560 -0.1076
97581W        W40494   4.659  30.209   8.633 -0.0952 -0.1150 -0.4234
97582W        W40495  14.341   1.517   3.937 -0.0213  0.2039  0.2338
97583W        W40496  11.133  24.455   2.521  0.1191 -0.2750  0.4067
97584W        W40497   9.983  23.971  10.002  0.1777 -0.1649 -0.0465
97585W        W40498  18.140   1.533   4.819  0.0554  0.1386  0.2158
97586W        W40499  20.601   5.651   8.552 -0.0796  0.1256 -0.3645
97587W        W40500  29.701   1.732  28.144  0.0604 -0.2166  0.0331
97588W        W40501   6.328   9.441   2.432  0.3158  0.2018  0.0337
97589W        W40502  11.593  25.975  22.269  0.0290 -0.3153  0.1864
97590W        W40503  15.090  26.756   8.653  0.2679 -0.1130 -0.0378
97591W        W40504   3.008  30.671  17.837 -0.2305 -0.1650  0.1450
97592W        W40505  21.912  27.602   7.345  0.0879 -0.2129 -0.1979
97593W        W40506  11.487   8.182   0.500 -0.0841  0.1187  0.0309
97594W        W40507   3.954   2.025   2.046  0.0319  0.1223  0.0958
97595W        W40508  13.797   4.456  11.576  0.3381  0.0060 -0.0381
97596W        W40509  26.639   1.493   0.987  0.1936  0.0158  0.0459
97597W        W40510  16.945  31.915  29.449  0.1114  0.3411 -0.0686
97598W        W40511  18.942  27.621  20.030  0.1296  0.0631 -0.1822
97599W        W40512  31.882   2.626  26.841  0.2629 -0.1227  0.1136
97600W        W40513   6.353  27.331   4.931 -0.2805 -0.1197 -0.1197
97601W        W40514   2.862   0.666  10.516  0.0070  0.0811  0.2469
97602W        W40515  12.447  29.162  18.329  0.2364 -0.0142  0.1459
97603W        W40516   8.245  25.460   4.920  0.1245 -0.0529 -0.1200
97604W        W40517  17.014   0.184   5.412 -0.0686 -0.0984 -0.0077
97605W        W40518   7.747  27.294  29.702 -0.1710 -0.0430  0.0345
97606W        W40519   4.212  33.320  10.023  0.1180 -0.1096 -0.0260
97607W        W40520  16.193  29.261   3.296  0.0990 -0.1539  0.0348
97608W        W40521  10.472  29.878  10.791 -0.1455 -0.1100  0.3394
97609W        W40522   2.465   2.944   9.429  0.2012 -0.2761  0.2156
97610W        W40523  18.638   2.132   9.783  0.2108  0.3135  0.1921
97611W        W40524  14.450  32.045   6.632  0.0336 -0.2214 -0.0590
97612W        W40525  14.405  31.221   3.400 -0.3003  0.0108  0.0085
97613W        W40526   3.709  29.650  10.920 -0.1192 -0.0419 -0.0316
97614W        W40527  19.505  33.588   8.546  0.2298  0.0784  0.1892
97615W        W40528  12.850  34.400   5.862 -0.0909  0.0758  0.2572
97616W        W40529  19.840   2.582   1.872  0.1601  0.1062  0.2741
97617W        W40530  10.500  32.349   0.419 -0.1410 -0.2094  0.1816
97618W        W40531  21.565  29.443   2.555  0.2813  0.0148 -0.0078
97619W        W40532  25.418   8.824   4.935  0.0498  0.0749 -0.2222
97620W        W40533   4.696   3.849  10.725 -0.1623 -0.0598 -0.3160
97621W        W40534  13.967  30.404  10.630 -0.2963  0.0486 -0.1297
97622W        W40535  19.970  34.214   3.922 -0.1297  0.2065  0.0774
97623W        W40536  22.520  11.402   7.817  0.0779 -0.1496 -0.1369
97624W        W40537  12.749  28.212  28.057 -0.2961  0.0258 -0.1572
97625W        W40538  17.906  10.891   4.611  0.0960 -0.0633  0.1411
97626W        W40539  32.995  10.863  26.361  0.1052  0.0008 -0.0626
97627W        W40540   5.694   4.615   4.493 -0.2054  0.0413 -0.0334
97628W        W40541  11.355  25.364  10.506 -0.0517 -0.0585  0.3516
97629W        W40542  15.155  29.310  11.488 -0.1816 -0.0359 -0.1403
97630W        W40543  18.923  33.144   9.036 -0.0342  0.0193  0.0973
97631W        W40544   4.095   1.611   0.444  0.2742  0.3229  0.0312
97632W        W40545   8.546   4.393  13.214  0.3154 -0.0859  0.0986
97633W        W40546  17.049   4.328  27.735  0.1154 -0.1092 -0.0375
97634W        W40547   9.901  26.493  10.193 -0.2153  0.0261  0.0937
97635W        W40548   5.937  33.605   3.258  0.2741 -0.0942 -0.1569
97636W        W40549  17.772  32.323   8.720  0.3900 -0.0925 -0.2766
97637W        W40550  10.509  29.813  12.022  0.0663  0.1208 -0.1846
97638W        W40551  20.749   5.664   3.949 -0.3182  0.0099 -0.0734
97639W        W40552  14.675  25.054  29.581  0.1654  0.0700 -0.4222
97640W        W40553  18.610  32.954   5.295  0.1414 -0.0477  0.0089
97641W        W40554  21.867  29.948   3.878 -0.0880 -0.2211 -0.0597
97642W        W40555  10.894   4.656   8.395  0.1340 -0.0717  0.1327
97643W        W40556  12.931   1.034   0.638  0.0469 -0.0555 -0.2312
97644W        W40557  25.008  31.525   5.678  0.4618  0.2566  0.1054
97645W        W40558   9.011  31.030  12.129 -0.1152 -0.0396  0.1354
97646W        W40559   9.391   3.428  25.859 -0.0286 -0.0731  0.0775
97647W        W40560  12.999   0.833   8.322  0.2904 -0.2207  0.2184
97648W        W40561  14.683  34.346   3.292  0.0299 -0.0842  0.0785
97649W        W40562  29.161   8.144   4.726 -0.1292  0.1716 -0.3629
97650W        W40563  12.258   9.671   7.129  0.1437 -0.0011 -0.1236
97651W        W40564  12.259  30.648   8.710  0.0802 -0.1794  0.3105
97652W        W40565  17.277  10.423  24.713  0.1851 -0.1013 -0.1556
97653W        W40566  18.624  31.079  27.375  0.0373 -0.0348  0.1470
97654W        W40567  14.412   2.158  24.396 -0.1387  0.3181 -0.0591
97655W        W40568   9.281  27.352   8.750  0.0878 -0.1134  0.0946
97656W        W40569   3.463   2.899  11.228 -0.0978  0.1268 -0.0060
97657W        W40570  14.548   1.142  11.076  0.2439 -0.0067 -0.0569
97658W        W40571  17.031  27.047   5.947 -0.1044 -0.2958 -0.1022
97659W        W40572   7.451  30.448   4.424  0.1123  0.0461  0.1448
97660W        W40573   2.303  29.545   0.135 -0.1367 -0.0969 -0.0248
97661W        W40574  26.061  26.817   2.770  0.2917 -0.1321 -0.0233
97662W        W40575   7.713  32.865   7.980  0.2442 -0.1679  0.1366
97663W        W40576   1.555  27.484  23.889 -0.2121  0.2001  0.1173
97664W        W40577  16.740   4.091   3.093 -0.0623 -0.1238  0.0858
97665W        W40578  15.458   5.664   1.948 -0.1100 -0.4348  0.0091
97666W        W40579   8.995  30.267  10.710  0.2564  0.0985  0.1624
97667W        W40580  11.374  24.996   2.442 -0.0876 -0.2311 -0.1300
97668W        W40581  10.078  31.561   8.203 -0.3531  0.1246  0.0374
97669W        W40582  18.232   5.410   5.995  0.3153 -0.1779 -0.0129
97670W        W40583  15.174  27.720   3.425  0.0461 -0.1018 -0.4615
97671W        W40584  15.496  28.384   0.959  0.0625  0.3156 -0.0820
97672W        W40585  27.887  27.852   6.617  0.0361 -0.0060 -0.1349
97673W        W40586  28.811  31.655   9.665 -0.4791  0.1397 -0.1177
97674W        W40587  15.810  28.908   5.540  0.1235 -0.1343 -0.0990
97675W        W40588  14.362   3.175   2.220 -0.1148  0.3831 -0.1203
97676W        W40589   7.379  26.143  28.374 -0.2010 -0.0437  0.3211
97677W        W40590  10.358   7.095  12.443  0.2428  0.2806  0.0774
97678W        W40591  11.927  30.450   6.615  0.1871 -0.0146 -0.2367
97679W        W40592   7.851   1.405   1.571  0.0155  0.3458 -0.4347
97680W        W40593  13.226  23.998  27.864  0.1615  0.0779  0.2724
97681W        W40594  12.480   4.136   6.676 -0.2906 -0.0142  0.1066
97682W        W40595   7.350   4.231   5.280 -0.0787 -0.2429 -0.0362
97683W        W40596  20.665   1.440   0.080  0.0805 -0.2403  0.2886
97684W        W40597  19.624  31.385   3.667 -0.0323 -0.0165 -0.2926
97685W        W40598  12.559   6.604   6.316  0.0436 -0.3674  0.1023
97686W        W40599  29.021   3.078   6.175  0.2546  0.1514 -0.3579
97687W        W40600   9.437  31.252   2.757  0.3059 -0.1712 -0.0110
97688W        W40601  16.021  10.437   5.476  0.2340 -0.0304  0.0086
97689W        W40602  11.674   1.561   1.406 -0.0141  0.0094  0.3371
97690W        W40603  15.454  26.090  26.636  0.0895  0.2546  0.2002
97691W        W40604  13.983   3.723   0.838  0.1653  0.0997 -0.0789
97692W        W40605   7.763   5.641  12.207  0.0853 -0.1928  0.0201
97693W        W40606   7.711  29.428  28.205 -0.3474  0.1580  0.3650
97694W        W40607  12.224  31.608   4.242  0.3127  0.0264  0.0057
97695W        W40608  27.082  17.898   5.898  0.4272 -0.2488 -0.0434
97696W        W40609  11.566  25.926  10.095  0.2185 -0.0172  0.1042
97697W        W40610  11.637   6.209   8.186  0.4319 -0.0038 -0.0404
97698W        W40611   8.417   0.186   3.966 -0.0609 -0.1537  0.0787
97699W        W40612  26.333   3.129  23.093 -0.0738  0.0911  0.4534
97700W        W40613  10.486   7.908  27.264  0.1967  0.1408  0.1974
97701W        W40614  13.845   3.537   4.539  0.1418 -0.2919 -0.2289
97702W        W40615   5.736  13.147   0.589 -0.4084 -0.0638 -0.1236
97703W        W40616  17.173  21.526  23.943  0.2956 -0.3686 -0.1739
97704W        W40617  24.323  32.518   7.031 -0.0971  0.1610  0.2346
97705W        W40618   9.121  28.035   7.864  0.1609 -0.4654  0.1065
97706W        W40619  23.867  30.872   2.721  0.1287 -0.0278 -0.0837
97707W        W40620  16.491  32.599   8.340 -0.0015 -0.1161  0.2695
97708W        W40621  12.938  25.480   2.113 -0.0880 -0.0566 -0.1479
97709W        W40622  12.212  29.399  23.644 -0.3392 -0.2044  0.0022
97710W        W40623   6.288  30.154  27.647  0.1256 -0.2194 -0.0352
97711W        W40624   9.579   2.243  11.388  0.0889 -0.1169 -0.1381
97712W        W40625  10.221  30.615  12.575 -0.0593  0.2184  0.3510
97713W        W40626  14.377  34.037  29.753  0.2812  0.0863  0.0477
97714W        W40627   5.532  32.639   1.330 -0.0154 -0.0590 -0.1320
97715W        W40628  23.926  28.583   0.535 -0.0186 -0.0306  0.2215
97716W        W40629  17.179  28.548   6.422 -0.0897  0.0820 -0.2964
97717W        W40630  16.235   2.627   9.501  0.0142 -0.3401  0.2422
97718W        W40631  15.102  31.531  27.103  0.4021  0.1755 -0.0917
97719W        W40632  15.667  33.434   2.175  0.0917  0.0121 -0.1195
97720W        W40633  13.564  32.386   9.783  0.0998  0.0004 -0.0844
97721W        W40634  18.109  32.531   6.829 -0.1182  0.1900 -0.0022
97722W        W40635  28.726   8.333  29.108 -0.1836 -0.2562  0.4418
97723W        W40636  12.948  31.848   0.141  0.1733  0.1369 -0.2065
97724W        W40637  13.393   0.742   6.897  0.0008 -0.1433  0.0681
97725W        W40638   6.069   4.613  11.750  0.0111 -0.5812 -0.3020
97726W        W40639  12.119   5.873  10.975  0.0331  0.0475  0.2595
97727W        W40640   7.045  32.690   9.997  0.0488 -0.0453 -0.0703
97728W        W40641   1.623   5.236   4.453  0.2081 -0.3218  0.0781
97729W        W40642   8.662  26.256  27.912  0.1249 -0.0311  0.0084
97730W        W40643   5.610  20.868   0.624  0.0616 -0.0841  0.1781
97731W        W40644  14.158  28.480   6.867  0.0882  0.2096 -0.1151
97732W        W40645  11.406  29.576   1.188 -0.0106 -0.3591 -0.5275
97733W        W40646  10.719  25.658   1.945  0.1050  0.1366 -0.0248
97734W        W40647  18.970  28.584   4.598  0.0002 -0.4402  0.0491
97735W        W40648  20.306  26.072   1.827  0.2019  0.1125  0.0743
97736W        W40649   7.137  31.622  26.361 -0.0699  0.0028  0.0926
97737W        W40650   9.197   1.881  12.130  0.1283 -0.1850  0.0863
97738W        W40651  10.057   2.471  28.451 -0.1942 -0.3524 -0.3129
97739W        W40652   7.752   6.088   7.167  0.0304 -0.0762  0.0064
97740W        W40653   8.461   0.495   7.862 -0.1216  0.1820 -0.1777
97741W        W40654   7.334  32.418  28.671  0.1559 -0.0191  0.1558
97742W        W40655  13.245  26.553  26.102 -0.2114 -0.0626  0.0774
97743W        W40656  13.516  25.341   7.874  0.1087  0.1809  0.0739
97744W        W40657   9.820   1.091  22.826 -0.0185  0.2676 -0.2014
97745W        W40658  10.935  27.854   6.555  0.0021 -0.0918  0.2973
97746W        W40659  21.866  24.714   3.964  0.0540 -0.1311  0.0203
97747W        W40660  14.524   5.427   6.912 -0.1231  0.0535 -0.4898
97748W        W40661   7.669   7.132  29.504  0.2689  0.0570 -0.2118
97749W        W40662  11.818  31.514  10.465  0.0726 -0.1224 -0.1406
97750W        W40663  11.579   5.123   8.897 -0.2710 -0.0741  0.0497
97751W        W40664  18.431  33.889   1.562 -0.1551  0.1259  0.2886
97752W        W40665  20.132   2.307  27.275  0.1615 -0.0535 -0.1369
97753W        W40666  12.340   1.031   9.846 -0.1736 -0.4205  0.1883
97754W        W40667   5.152  27.350   7.822  0.2374  0.0921  0.0793
97755W        W40668  10.125   3.352   9.104 -0.0451 -0.4783  0.0765
97756W        W40669  20.028  28.862   6.583 -0.2135  0.1144  0.1122
97757W        W40670   6.377   6.886  12.497  0.1442 -0.0132  0.1296
97758W        W40671   6.222  28.598  10.814  0.0158  0.0184 -0.0682
97759W        W40672  16.205   0.797   7.979  0.1055  0.2300 -0.1452
97760W        W40673   9.261   8.857  11.270 -0.0388  0.0963 -0.3309
97761W        W40674  27.887   1.338  28.145 -0.2699  0.0367  0.1251
97762W        W40675  16.165  30.306   1.683 -0.0357 -0.2459  0.0350
97763W        W40676  12.201   3.517   5.325 -0.2694  0.4067  0.2539
97764W        W40677   7.862   6.124   9.959 -0.0174  0.3079 -0.3223
97765W        W40678  18.226   0.400   6.935 -0.3386 -0.2638 -0.0483
97766W        W40679   8.438  20.569   4.196 -0.1231  0.2818  0.2668
97767W        W40680  24.511  25.212   2.250  0.0825  0.1180  0.1810
97768W        W40681  11.193   2.504   1.294 -0.2649 -0.1611 -0.2312
97769W        W40682   9.388   2.897   0.503 -0.0649 -0.2135 -0.1077
97770W        W40683  15.258   6.103  11.261 -0.2895  0.0390  0.2518
97771W        W40684  15.369  31.336   1.751 -0.0372 -0.1183 -0.1613
97772W        W40685   0.478   9.304  10.555  0.4108 -0.1565  0.2653
97773W        W40686  16.834  34.049   1.917  0.1777  0.0783 -0.2673
97774W        W40687   5.276  34.025  10.976  0.4746  0.1089 -0.0502
97775W        W40688  18.928  32.581   8.335  0.1643  0.2216  0.3344
97776W        W40689   2.438   9.668  27.268  0.4957 -0.0968  0.0371
97777W        W40690  10.223   4.221  10.020  0.1535 -0.4984 -0.1963
97778W        W40691   8.806   1.535   9.052  0.0950  0.0588  0.1577
97779W        W40692   9.159   7.081   6.559  0.2910  0.2979 -0.1425
97780W        W40693  16.250   0.546   4.670  0.0788  0.1060  0.0564
97781W        W40694   9.314   7.899  10.273  0.0931 -0.0435  0.2773
97782W        W40695  10.979   7.072   6.147  0.2626 -0.2406  0.1423
97783W        W40696   5.013  31.270  10.927 -0.1207  0.2126 -0.0223
97784W        W40697   2.927  28.831   7.680  0.2570 -0.0108  0.1331
97785W        W40698  13.830   4.330   9.206 -0.2487  0.3833 -0.0069
97786W        W40699  14.509  31.684   3.375 -0.1088  0.1200  0.1489
97787W        W40700  15.007  31.600   5.824  0.1890 -0.1620  0.0301
97788W        W40701  11.675   2.905   8.731 -0.1864  0.2490 -0.0474
97789W        W40702   6.643   5.800   5.695 -0.2358 -0.1945  0.1708
97790W        W40703   9.055  29.661   3.453  0.0480  0.2308  0.1620
97791W        W40704  18.390  34.069   5.828  0.1726  0.2180  0.0742
97792W        W40705  10.364  26.899   7.349  0.0203 -0.1190 -0.0773
97793W        W40706   7.444   5.906   0.628  0.1049  0.2877 -0.0660
97794W        W40707  27.882   1.286   8.529  0.3806  0.1577  0.1941
97795W        W40708  15.890   1.478  10.180 -0.0178 -0.0590  0.0918
97796W        W40709   8.855   8.361  26.299 -0.0274 -0.3081  0.2046
97797W        W40710  10.467  29.473   2.726  0.1366  0.1628 -0.1732
97798W        W40711  18.724  28.276   3.669  0.2846 -0.4647  0.0587
97799W        W40712   4.080  29.409   6.613 -0.0651  0.3811  0.0529
97800W        W40713  15.919  33.986   7.068  0.0897 -0.1034 -0.1231
97801W        W40714  25.278   6.279   3.403 -0.0385  0.1884 -0.1056
97802W        W40715  16.058  28.465   5.529  0.0825 -0.0818  0.1711
97803W        W40716   7.487  33.660   8.091 -0.2714  0.1209 -0.1877
97804W        W40717  12.593  25.936   5.941 -0.0547 -0.0624 -0.0042
97805W        W40718  17.116   7.686   5.978 -0.2837  0.0033 -0.1446
97806W        W40719   8.910   5.676  11.790 -0.1872  0.1031 -0.1519
97807W        W40720  10.118   6.549   3.584  0.2129 -0.3822 -0.3628
97808W        W40721   8.987  26.800   0.677 -0.0637  0.3106  0.3758
97809W        W40722   7.159  25.279  11.114 -0.1017 -0.2234  0.0685
97810W        W40723  17.910  26.509   2.660 -0.2622  0.1185  0.1748
97811W        W40724  11.634   6.584   9.706  0.0756 -0.2358 -0.2788
97812W        W40725  18.805   4.003   2.419  0.0280 -0.0308 -0.1351
97813W        W40726  15.286  31.805   0.971 -0.0862 -0.3873  0.1214
97814W        W40727  13.923  26.292  26.974  0.0107  0.0124  0.2334
97815W        W40728   3.899  32.263   7.749  0.1350 -0.1053  0.3107
97816W        W40729  14.702  29.086   8.749  0.0717  0.1186 -0.1239
97817W        W40730  14.512   2.584   5.463 -0.0544  0.2742 -0.1996
97818W        W40731   8.668   6.224   9.863  0.0665 -0.1093  0.1673
97819W        W40732  17.982  32.996   7.052 -0.1207  0.0088 -0.0768
97820W        W40733  20.084   1.551   6.173 -0.0057  0.4838  0.1266
97821W        W40734  10.048   4.181   8.592 -0.1706 -0.2563 -0.1428
97822W        W40735  23.280   3.149   7.048  0.0011  0.2950  0.1287
97823W        W40736   7.217  28.239   8.117  0.0120  0.3943  0.1404
97824W        W40737   2.014  28.019   8.743 -0.0407  0.2870 -0.5526
97825W        W40738   6.800  24.863  27.189  0.1088 -0.0662 -0.4743
97826W        W40739   4.185   2.863   2.763 -0.0055 -0.0289  0.2760
97827W        W40740  20.808  10.057   8.790  0.1715  0.3169  0.2282
97828W        W40741  15.900   8.176   6.488  0.1757 -0.2147  0.0234
97829W        W40742  14.543  30.175  10.155 -0.2043 -0.4742 -0.1002
97830W        W40743  13.255  30.347   7.624  0.2856 -0.1281 -0.0281
97831W        W40744  17.189   5.296   9.597 -0.1228 -0.0931 -0.1520
97832W        W40745  11.900   4.329   7.631 -0.0058 -0.0025  0.0037
97833W        W40746   8.716   7.881   8.133 -0.3242  0.2269  0.0627
97834W        W40747  17.397  33.436   2.477  0.0702  0.2549 -0.0021
97835W        W40748  13.280  27.871   9.314 -0.3386 -0.2102 -0.3968
97836W        W40749  12.234  33.329   2.750  0.0739 -0.2589  0.2159
97837W        W40750  13.418   7.979   5.663 -0.0340 -0.1328  0.0188
97838W        W40751   6.866   1.946  29.343  0.1418  0.0098 -0.0473
97839W        W40752  16.169  30.400   2.620  0.1117 -0.2753 -0.0539
97840W        W40753   7.814   1.935   5.879  0.1823  0.2131  0.0584
97841W        W40754  10.178  11.969   6.388 -0.2313 -0.2295  0.1958
97842W        W40755  20.376   0.026   7.237  0.4213  0.2638  0.0455
97843W        W40756  16.371  25.818   6.245 -0.1142 -0.2526  0.2951
97844W        W40757  12.509  34.083  12.530  0.0530 -0.0954  0.3371
97845W        W40758  15.485   6.963   5.873 -0.1621  0.1013  0.0900
97846W        W40759  14.122   4.783  11.376  0.1182  0.0684  0.0153
97847W        W40760  10.468   4.176  29.211 -0.4295 -0.1594  0.0534
97848W        W40761   5.847  32.354   9.432  0.3456 -0.0473 -0.2325
97849W        W40762  16.028  33.250   3.115  0.0879 -0.1273 -0.0518
97850W        W40763  16.653   9.236   1.485 -0.3314 -0.2423  0.2644
97851W        W40764   3.921   0.814   4.376 -0.1981  0.2993  0.0272
97852W        W40765   4.269  30.273   0.250 -0.0842  0.2523 -0.0820
97853W        W40766   6.090  33.386   8.109  0.0504 -0.1767 -0.0197
97854W        W40767   7.955  32.238   2.312 -0.1843  0.2446  0.0592
97855W        W40768  11.327   0.304   2.101 -0.1389  0.2736 -0.0484
97856W        W40769  11.401   2.024   8.293 -0.4651  0.0040  0.1359
97857W        W40770  13.220   2.188   7.556  0.1216 -0.2985 -0.4189
97858W        W40771   8.444  27.519   9.883  0.0470 -0.0886 -0.0837
97859W        W40772   0.661  27.581   1.449  0.4702  0.1146 -0.0487
97860W        W40773  22.281   0.656   9.866 -0.3094  0.2543  0.0755
97861W        W40774  10.144  27.952   9.925  0.1067  0.0010 -0.3251
97862W        W40775  28.798  34.136   7.312 -0.1227 -0.0353  0.0014
97863W        W40776  11.826   7.967   9.187 -0.0180  0.1270  0.2043
97864W        W40777  14.967  12.374   3.916  0.1229 -0.2798 -0.0477
97865W        W40778  16.020  33.070   8.604  0.4038  0.0116 -0.3763
97866W        W40779  11.326   1.246   9.635 -0.2878  0.3592  0.1133
97867W        W40780  15.950   0.966  10.255 -0.0087  0.0666 -0.1386
97868W        W40781   2.287   1.439   6.688  0.1398 -0.0258  0.1157
97869W        W40782  13.246  33.769   9.898 -0.3543 -0.0362 -0.0231
97870W        W40783  10.219  33.697   2.897  0.3703  0.0875  0.2099
97871W        W40784   4.846   0.851  12.560  0.1161  0.1901 -0.0733
97872W        W40785   9.737  33.875  11.837 -0.1328 -0.1085 -0.1447
97873W        W40786   5.319   2.977  13.547  0.1718 -0.3666  0.0180
97874W        W40787   4.047  31.605   0.103 -0.2932 -0.0191  0.0510
97875W        W40788   7.349  32.590  11.795  0.2144 -0.1877  0.1113
97876W        W40789   6.792   3.601   2.120 -0.1337  0.1570  0.2438
97877W        W40790  16.528  10.396   5.447  0.0276 -0.0728 -0.0966
97878W        W40791  14.191   7.279   6.945 -0.1718 -0.0081 -0.3581
97879W        W40792   9.803  31.757   6.832 -0.3436  0.1098  0.0474
97880W        W40793  30.029   0.645   8.965 -0.0759  0.0517  0.1883
97881W        W40794  15.324   2.390   5.492 -0.0921 -0.1659  0.2159
97882W        W40795   2.437  10.033   3.676  0.0134 -0.0538  0.0930
97883W        W40796   4.656   4.289  12.740 -0.1631 -0.1079 -0.1868
97884W        W40797  16.151  30.608   6.691  0.1207  0.0167 -0.0151
97885W        W40798  13.017  34.181  10.072 -0.1443 -0.0797 -0.2711
97886W        W40799  17.719  22.773   5.968 -0.0325 -0.0307 -0.0306
97887W        W40800   8.069  30.043   6.662 -0.1372  0.2962 -0.1537
97888W        W40801   4.122  34.473   6.102  0.1488  0.2504 -0.4393
97889W        W40802   5.470  27.951   8.456 -0.0068 -0.1262 -0.1563
97890W        W40803  11.437   3.664   9.707  0.1448  0.1431 -0.2042
97891W        W40804   4.930  30.041   4.425  0.0101 -0.0384  0.1193
97892W        W40805  12.234  33.823  28.752  0.1927  0.2717 -0.0314
97893W        W40806  11.160  27.003   9.064 -0.0899 -0.0435 -0.2342
97894W        W40807  10.997  28.297   8.835 -0.0837 -0.0846 -0.0635
97895W        W40808   8.956  32.639  11.187  0.0787  0.1719  0.0641
97896W        W40809  11.695   1.376   7.211 -0.0769 -0.1439 -0.0963
97897W        W40810   6.390  32.711   8.865  0.0421 -0.0101  0.0908
97898W        W40811   8.986  30.532  26.957 -0.3255  0.2553  0.1355
97899W        W40812   1.200   8.030  10.176 -0.0208 -0.1756  0.1093
97900W        W40813  11.269   2.154   5.377  0.1887  0.3235  0.0540
97901W        W40814  10.367   0.748  10.226  0.2493 -0.0309  0.2671
97902W        W40815   7.790  30.824  27.824  0.2409 -0.2174  0.2475
97903W        W40816   5.308   4.292   3.888 -0.0555  0.1395 -0.0712
97904W        W40817   7.230   2.150   6.882 -0.0659 -0.0573  0.0778
97905W        W40818  12.132  32.044   7.439  0.3165  0.2824  0.0110
97906W        W40819   8.619   5.897  10.591  0.1098  0.1450 -0.0445
97907W        W40820  20.637  33.686  26.845 -0.1266 -0.1647 -0.0537
97908W        W40821  24.352   5.249   7.106 -0.2307 -0.0652  0.0365
97909W        W40822   9.909  29.088   7.741 -0.1356 -0.3545 -0.0180
97910W        W40823   6.349   3.217  10.272  0.2103  0.0247  0.2527
97911W        W40824   7.673   6.859  12.285 -0.0960 -0.1227 -0.0348
97912W        W40825  14.795   1.348   2.910 -0.0057  0.2883 -0.0580
97913W        W40826  22.218  31.972   6.415  0.0379  0.0199 -0.1983
97914W        W40827  14.197  17.646   5.697 -0.1813  0.4447  0.0381
97915W        W40828  13.052  32.471   8.527  0.3757  0.0045 -0.1171
97916W        W40829  13.344  28.730  11.164 -0.1275 -0.0110  0.0552
97917W        W40830  34.207  28.521   2.941 -0.4382 -0.1087  0.4140
97918W        W40831   9.043   0.237  12.831 -0.0518  0.1043  0.1984
97919W        W40832  23.282   2.392  24.004  0.1272  0.0154 -0.1511
97920W        W40833  14.927   8.766  20.454 -0.1594  0.0414  0.1408
97921W        W40834  22.477  33.125  26.618  0.0304  0.0981  0.1092
97922W        W40835  14.250  29.257   4.636 -0.1367 -0.1720 -0.0253
97923W        W40836  12.342  15.411   0.212  0.3752  0.0685  0.1736
97924W        W40837  13.451  33.018   9.138 -0.0648  0.0598  0.3527
97925W        W40838  21.647  28.891   6.302 -0.0670  0.0218 -0.1883
97926W        W40839  16.614   2.000   2.923 -0.0776  0.2046  0.0364
97927W        W40840  18.790   1.097  23.844  0.1669  0.0735 -0.0025
97928W        W40841  13.312   9.925  21.991  0.2670  0.0199 -0.1226
97929W        W40842  14.016  31.209   8.740  0.3047  0.0392 -0.2908
97930W        W40843   9.364  33.243   4.440  0.0352 -0.0201 -0.1646
97931W        W40844  22.566  33.028   4.048 -0.0420  0.0923  0.3481
97932W        W40845  14.204  32.876   8.539 -0.0406 -0.1058  0.0695
97933W        W40846  11.012   5.068   1.406  0.2084  0.0819 -0.2584
97934W        W40847  17.055   2.009  28.380 -0.2058 -0.1469 -0.2326
97935W        W40848   9.429  24.163   0.343  0.0760  0.0343 -0.2117
97936W        W40849  13.820   0.975   3.323 -0.0832  0.1753 -0.2256
97937W        W40850  20.013   8.866  23.931 -0.2769  0.0924 -0.0981
97938W        W40851  17.047  30.151  19.513 -0.0868 -0.0300  0.3257
97939W        W40852  26.785  31.381  27.567 -0.1994  0.1175 -0.0486
97940W        W40853  18.239   3.431  17.895  0.0407 -0.2182 -0.0417
97941W        W40854  10.919  26.839  23.763  0.0580  0.1607  0.0344
97942W        W40855  24.377  33.675   7.901  0.1881 -0.1486 -0.1973
97943W        W40856  15.655  29.661  25.046  0.0054 -0.0464  0.0724
97944W        W40857  13.045   4.050   5.830  0.0838 -0.0544 -0.3622
97945W        W40858  26.072  25.417   6.027 -0.0086 -0.1907 -0.1286
97946W        W40859  17.904   2.273  28.051  0.2016  0.1385  0.5244
97947W        W40860  26.190  12.163   2.060 -0.1019  0.1068  0.0427
97948W        W40861  22.657   8.021   6.709 -0.2742 -0.2891 -0.0459
97949W        W40862  19.919  10.786  25.988 -0.0802  0.2417  0.1437
97950W        W40863   5.787   3.639   9.014 -0.1989 -0.2349  0.0825
97951W        W40864  24.107  30.608   7.950 -0.1036 -0.0284 -0.0947
97952W        W40865   3.586  31.422   8.420 -0.2599  0.2691 -0.1452
97953W        W40866  17.794   8.068   5.281 -0.1927 -0.0797  0.2983
97954W        W40867   9.068   4.428   1.617  0.1529 -0.3559 -0.2797
97955W        W40868  16.080   9.194  24.538 -0.0031  0.2156 -0.1491
97956W        W40869  14.063   2.540   4.297 -0.1371 -0.1216 -0.2189
97957W        W40870   8.540  30.324   9.075  0.0075 -0.2285  0.0483
97958W        W40871  19.008  14.842  27.752  0.0722 -0.1014  0.2290
97959W        W40872   8.196   1.247   0.693  0.3960 -0.2386  0.1654
97960W        W40873  21.720  12.456   0.235  0.0103 -0.2804 -0.1079
97961W        W40874  12.791  32.481   3.237  0.0936  0.2173 -0.1536
97962W        W40875  13.197   9.625  24.095 -0.1901  0.2866  0.3247
97963W        W40876  10.969   8.269  29.064  0.1990  0.0754 -0.0346
97964W        W40877  22.104   5.316   6.191 -0.1467 -0.1822 -0.1072
97965W        W40878  12.924   1.705   5.046  0.1663 -0.2011  0.2091
97966W        W40879  23.925   7.562   7.495  0.2160  0.1105  0.0268
97967W        W40880  12.967  30.018   9.343 -0.3031 -0.1453  0.0722
97968W        W40881  27.025   6.924  23.478 -0.0748  0.3148  0.0384
97969W        W40882  14.391   5.631   8.985  0.2073 -0.1276 -0.1002
97970W        W40883   6.564   6.146  13.563  0.1238 -0.2374  0.0092
97971W        W40884  17.182   6.918   5.428  0.0187 -0.2689  0.1716
97972W        W40885   0.694   1.650   1.995 -0.1487  0.2771 -0.2652
97973W        W40886  21.226  33.759  22.392  0.2036  0.0500  0.2621
97974W        W40887   7.958  24.526   7.182 -0.1131  0.0353  0.0124
97975W        W40888  10.591   5.974  24.954  0.0299 -0.2079  0.1868
97976W        W40889   9.624  28.202  29.067 -0.2678  0.2751  0.0679
97977W        W40890  21.435   6.014  29.431 -0.1858 -0.1182 -0.1288
97978W        W40891  19.618   5.580  14.637  0.0703 -0.1499  0.0276
97979W        W40892  16.647  31.448   6.759  0.0857 -0.2187  0.2060
97980W        W40893   6.317   1.020   4.620  0.1833 -0.0674  0.1332
97981W        W40894  30.794   2.594   5.661  0.0173  0.1516  0.1000
97982W        W40895  12.543  34.209  10.905  0.0645 -0.0242  0.1124
97983W        W40896  12.813  28.780  23.847 -0.1648 -0.1680  0.0383
97984W        W40897  20.446  10.616   3.192 -0.0652  0.2385  0.0156
97985W        W40898  30.079   4.576   3.416  0.1042  0.0091  0.2316
97986W        W40899  22.945  14.662   1.050 -0.0219  0.0027 -0.2610
97987W        W40900  20.045   7.896   5.614 -0.1304  0.2878 -0.2037
97988W        W40901  16.098  33.985   6.616 -0.0176 -0.1921 -0.2182
97989W        W40902  16.485  13.827  25.648  0.0329 -0.1223  0.2386
97990W        W40903  23.331   6.941   9.809 -0.1262  0.0712  0.1921
97991W        W40904  24.534  19.446   7.935 -0.1668 -0.2131  0.1209
97992W        W40905  14.551   0.279  10.492 -0.0211  0.3041 -0.0731
97993W        W40906  13.539  33.994  26.454  0.2604 -0.1655  0.1004
97994W        W40907   7.439  30.782   7.028 -0.0372 -0.2161  0.0022
97995W        W40908  19.496   8.671  19.994  0.3637  0.1530  0.1099
97996W        W40909  23.109  10.399   1.391  0.2415  0.3134  0.0407
97997W        W40910  16.998   1.500   5.490  0.2064 -0.0134  0.3454
97998W        W40911  23.735   2.400   4.029  0.1828  0.1954  0.0495
97999W        W40912  13.841   5.828  25.760 -0.0384 -0.2252 -0.0119
98000W        W40913  13.019   4.374   6.979  0.1469  0.0249 -0.0537
98001W        W40914  14.041  24.098   9.278  0.2631 -0.1939  0.0600
98002W        W40915  11.543   7.124  11.178  0.0618 -0.2847 -0.1652
98003W        W40916   4.935   6.691   4.472  0.2398  0.0517 -0.0703
98004W        W40917  18.659  34.025   2.010 -0.0405  0.0958 -0.1301
98005W        W40918  11.880  11.050   3.818  0.1133  0.1959  0.4340
98006W        W40919  23.362   2.918  27.049 -0.0656 -0.2776 -0.1863
98007W        W40920  24.720  12.601  20.647  0.0078  0.0089 -0.0078
98008W        W40921  24.164   6.857  28.095 -0.1887  0.0807  0.0905
98009W        W40922  22.082   7.300   6.391  0.0757  0.1522  0.1090
98010W        W40923  10.263  10.272  28.368 -0.2123  0.3319 -0.3282
98011W        W40924  13.953   0.050  23.291 -0.1066 -0.1066  0.0085
98012W        W40925   8.516   7.078   9.533 -0.1807  0.1410  0.0034
98013W        W40926  22.075   5.899   8.707 -0.0620  0.0741 -0.2136
98014W        W40927   7.642  10.799   3.048  0.0488  0.0052  0.0355
98015W        W40928  29.878   6.051   8.185 -0.0678 -0.2876 -0.1734
98016W        W40929  15.524  32.374  24.899 -0.2066  0.0751  0.1764
98017W        W40930  14.123   3.467  29.122  0.2543  0.2034  0.2831
98018W        W40931  17.354   6.873   4.422  0.0850  0.0011 -0.1408
98019W        W40932  10.623  13.070   9.488 -0.0930 -0.2374  0.0065
98020W        W40933  12.002  28.955  11.419 -0.3917  0.1973 -0.1943
98021W        W40934  33.708   7.736   1.360 -0.0807 -0.0975 -0.1277
98022W        W40935  17.220   1.145  24.229 -0.1054 -0.1007  0.0306
98023W        W40936  12.457   4.056  28.258  0.1501 -0.1602  0.1011
98024W        W40937  19.205   4.936   6.808  0.1846  0.3159 -0.2530
98025W        W40938  14.937  34.495  25.421 -0.0057 -0.1976  0.3670
98026W        W40939  16.533   6.239   6.844  0.0430  0.2193 -0.2335
98027W        W40940  14.287   9.577   9.886 -0.1000  0.1677  0.0622
98028W        W40941  23.480  34.326   4.907 -0.0743 -0.1273  0.2051
98029W        W40942  15.171  32.050  10.917  0.2799  0.1216  0.0624
98030W        W40943  15.899   4.995   7.216 -0.0753 -0.3471 -0.2352
98031W        W40944  19.941   6.232   5.608 -0.2424 -0.0588 -0.0931
98032W        W40945  18.388   1.521   8.073 -0.0026  0.2023 -0.2023
98033W        W40946  19.847   5.051   0.233  0.1142 -0.1498  0.1411
98034W        W40947  13.773  33.890  29.599  0.2302  0.0068  0.2598
98035W        W40948  13.208  33.828   1.890  0.1284 -0.1627  0.2371
98036W        W40949  24.149  26.193   3.785  0.0989 -0.0671  0.0489
98037W        W40950  18.031  10.934   2.622 -0.2379 -0.0333 -0.2716
98038W        W40951  13.170   9.316  27.888  0.0115 -0.0853  0.1970
98039W        W40952   6.312  13.414   9.281 -0.1115 -0.1948 -0.0098
98040W        W40953  16.504   1.143   4.586 -0.0843 -0.0352 -0.0222
98041W        W40954  14.709  31.975   4.447 -0.1158  0.3671 -0.3001
98042W        W40955  14.771  26.192   6.015 -0.0686 -0.0688  0.0704
98043W        W40956  20.564  33.567  25.941  0.0692  0.3432 -0.1320
98044W        W40957  17.699  16.197  25.952  0.1329 -0.0467 -0.0202
98045W        W40958  16.504   2.264   2.506 -0.1855 -0.4096  0.0809
98046W        W40959  21.561  30.711  17.800  0.0516 -0.0889  0.1629
98047W        W40960  18.185  10.172  22.989  0.2006 -0.0200 -0.0192
98048W        W40961  24.665   1.455   9.258  0.1473  0.1768 -0.0755
98049W        W40962  18.027  29.086   2.558 -0.1877 -0.1029 -0.0009
98050W        W40963  22.119  31.262   4.521 -0.1556 -0.2265  0.1917
98051W        W40964  18.505   7.430   2.895 -0.0946 -0.1736  0.1046
98052W        W40965  22.258  30.257   8.615  0.0674 -0.0695  0.0153
98053W        W40966   6.367   4.535   5.548 -0.0568  0.0009 -0.1633
98054W        W40967   6.913   6.335  22.344 -0.1505  0.1062 -0.0184
98055W        W40968  14.268  13.884  21.175 -0.0459 -0.4330  0.1534
98056W        W40969  16.597   7.228  26.897  0.1286  0.1606 -0.1219
98057W        W40970  21.814  31.806   8.527  0.1767  0.0790  0.1173
98058W        W40971  26.380   6.506   6.257 -0.0679  0.0465 -0.1171
98059W        W40972  18.136  30.850   5.298 -0.0553 -0.1979 -0.0580
98060W        W40973  15.578   2.675   2.893 -0.0315  0.0488 -0.5127
98061W        W40974   8.740   0.234  10.170  0.0701  0.0226 -0.1776
98062W        W40975  16.962  33.773   6.390 -0.1370 -0.0968 -0.1714
98063W        W40976  12.327  18.397  21.164  0.1754  0.2385  0.1706
98064W        W40977  21.363   0.486   7.268  0.1079  0.1342 -0.0661
98065W        W40978  12.298   3.834  25.096 -0.0133  0.0851  0.0130
98066W        W40979   4.168  33.007  27.687  0.0790 -0.1158 -0.0411
98067W        W40980  25.297  15.213  25.747  0.1689  0.2896 -0.0126
98068W        W40981  19.406  26.755   4.177 -0.3208  0.1394  0.0759
98069W        W40982  17.396  30.846  25.347 -0.0787 -0.1991  0.4714
98070W        W40983  16.521  11.434  28.531  0.0564 -0.2408  0.0575
98071W        W40984  16.019  24.118  26.835  0.1693  0.2858 -0.2962
98072W        W40985  11.708   0.749   3.448  0.1428  0.0966 -0.1939
98073W        W40986  19.693  31.279  25.916 -0.1655  0.0050  0.1033
98074W        W40987  13.346   5.524   9.984  0.3579  0.5345 -0.2782
98075W        W40988   3.305  28.141   9.370  0.1566  0.1070  0.1106
98076W        W40989  10.310   5.735  10.740  0.0629  0.0446 -0.3182
98077W        W40990   7.484   2.729   0.045  0.1725  0.1863 -0.1304
98078W        W40991  32.074   6.063   6.187 -0.2452  0.2059 -0.0355
98079W        W40992  12.225  30.744   7.948  0.3282 -0.1876 -0.0910
98080W        W40993   7.082   3.489   3.688  0.0815  0.0069 -0.1481
98081W        W40994  17.771   0.855   9.527  0.0215  0.1224 -0.1991
98082W        W40995  22.601   8.034   4.429 -0.0503 -0.0928 -0.4522
98083W        W40996  23.933  30.295   5.648 -0.1111 -0.1881  0.0695
98084W        W40997  10.182   9.117  28.805 -0.0855 -0.3114 -0.1162
98085W        W40998   7.364   7.014   2.226 -0.2580  0.1841 -0.0291
98086W        W40999  18.918   4.298  28.860 -0.0987 -0.1567 -0.0005
98087W        W41000  12.898   0.419   1.048  0.3419 -0.1815 -0.0884
98088W        W41001  12.026  32.369   8.725  0.0522  0.1416 -0.0912
98089W        W41002  10.964   1.383   5.114  0.1149 -0.1561 -0.0418
98090W        W41003  21.681   3.984   0.356  0.0117 -0.2461 -0.1137
98091W        W41004  17.984  32.733   2.180 -0.1145  0.1595  0.0969
98092W        W41005  18.153   2.265   0.904  0.1838 -0.0824 -0.1200
98093W        W41006  16.446   2.441  23.054  0.1483  0.0547  0.1802
98094W        W41007  22.610  29.104   7.982  0.1725  0.1485 -0.2683
98095W        W41008  12.456   2.084   4.439 -0.0066 -0.0712 -0.1844
98096W        W41009  21.291   4.009  19.446  0.0992  0.3921 -0.1575
98097W        W41010  22.951   4.474  27.887  0.6684 -0.0993  0.1746
98098W        W41011  26.904   0.350   0.739  0.1840  0.1679  0.0246
98099W        W41012   5.062   7.838  29.243 -0.0341 -0.2925 -0.1743
98100W        W41013  11.810   1.726  17.408  0.1465  0.1634 -0.3162
98101W        W41014  22.613   0.468   5.248 -0.3294  0.0817  0.0805
98102W        W41015  12.412   0.866  27.245  0.0999 -0.0656  0.0345
98103W        W41016  13.169  31.368  23.631  0.0760 -0.1004  0.1651
98104W        W41017  12.461   1.621   2.612 -0.3171  0.1059 -0.1256
98105W        W41018   1.701   0.157   3.514  0.3273 -0.0368  0.2176
98106W        W41019   9.220   5.614  27.323  0.2993 -0.4330 -0.1141
98107W        W41020  20.018  14.785  20.527  0.0955  0.2887  0.2447
98108W        W41021  17.866  29.989   0.184 -0.2796 -0.3083  0.0788
98109W        W41022  20.390  31.472  26.868 -0.1097  0.1487 -0.1533
98110W        W41023  16.443  21.532  27.713 -0.2393  0.5549 -0.0058
98111W        W41024  14.313  12.691   4.227  0.1179  0.3159 -0.0524
98112W        W41025  30.302  12.865   8.129  0.0974  0.1184  0.1647
98113W        W41026  24.768   9.403  19.468  0.1245  0.1934  0.1100
98114W        W41027  16.527  14.454  27.676 -0.3685  0.1453  0.0090
98115W        W41028  23.441  26.865   6.348  0.2134  0.0667  0.3483
98116W        W41029  21.334   3.167   0.449  0.0585 -0.0080  0.0396
98117W        W41030  23.240   6.718   2.165  0.0508  0.0455  0.0154
98118W        W41031  21.428  10.898   5.535  0.0420 -0.0216 -0.3109
98119W        W41032  19.411  32.439   8.398 -0.0616  0.0602 -0.0857
98120W        W41033  17.185  32.192   7.286  0.2694  0.0504 -0.2377
98121W        W41034  10.027  25.734   6.615  0.4239  0.0060  0.1817
98122W        W41035  13.470   1.271   3.488  0.1998  0.1112  0.1170
98123W        W41036  15.924   4.846  27.511  0.1618 -0.2199  0.0386
98124W        W41037  22.801  10.438  24.027 -0.0163 -0.0106  0.2350
98125W        W41038   7.722   8.271   1.068 -0.2060 -0.0046 -0.0916
98126W        W41039  15.590  33.302   4.574 -0.1110  0.3285 -0.0864
98127W        W41040  15.658  27.962   0.830 -0.3000 -0.0879 -0.2823
98128W        W41041  16.279   2.451  28.932 -0.2807  0.3761 -0.0796
98129W        W41042   9.510  33.374  29.015  0.2229  0.2909 -0.1063
98130W        W41043  22.145   0.453   5.432  0.1144 -0.0792  0.0245
98131W        W41044  10.915  28.699   0.895  0.3428 -0.0239  0.2070
98132W        W41045  14.955  32.650  11.471 -0.0425 -0.4015 -0.2338
98133W        W41046   5.825  31.442  28.583  0.0607  0.3332  0.2303
98134W        W41047  21.228   5.390   5.271  0.1149  0.1639 -0.0249
98135W        W41048   4.090   6.584  10.618 -0.1513  0.0303 -0.0484
98136W        W41049  21.970   6.045   2.150 -0.1508  0.2342  0.0456
98137W        W41050   6.345  14.069   3.530  0.1319 -0.2508  0.1952
98138W        W41051  27.082  33.216   7.705 -0.2101 -0.1132  0.3115
98139W        W41052  33.045   0.093  28.183 -0.0654  0.3911 -0.0102
98140W        W41053  26.972   3.444   7.901 -0.0288  0.3521 -0.0147
98141W        W41054  11.841  27.138  24.249 -0.1844 -0.2665  0.0926
98142W        W41055  17.786   4.234   4.815  0.0742 -0.1125 -0.2071
98143W        W41056  16.495  27.147  28.706  0.0795  0.0421 -0.2283
98144W        W41057  25.737  10.424   7.138  0.3015 -0.0790  0.1141
98145W        W41058  22.341  32.222  29.237 -0.0414  0.1165  0.2524
98146W        W41059  16.732   8.349   8.735  0.2835  0.0452  0.0141
98147W        W41060  10.459  34.080  24.116  0.0386  0.1142  0.0286
98148W        W41061  15.711   2.351  24.346 -0.1916 -0.4795 -0.1462
98149W        W41062  14.055  32.098  26.450 -0.2467 -0.3428  0.0906
98150W        W41063  18.846  34.072   9.262  0.2191 -0.3602 -0.1814
98151W        W41064   9.814  24.741  27.918 -0.1287 -0.0881 -0.0058
98152W        W41065  13.029  28.676  11.583  0.3587 -0.2557  0.1346
98153W        W41066   9.205   0.611   4.674 -0.0147  0.0659  0.3566
98154W        W41067  21.582   1.158  27.515  0.2165 -0.0292 -0.1087
98155W        W41068  28.462  29.212   6.429  0.0564 -0.0315 -0.1091
98156W        W41069  19.424   4.851   8.793 -0.0561  0.1900 -0.0713
98157W        W41070  20.253  34.122   8.649 -0.1838 -0.0187 -0.1204
98158W        W41071  11.894  30.508  20.537 -0.3384 -0.0694 -0.4147
98159W        W41072  21.151   7.631  26.401  0.1223  0.1269  0.2909
98160W        W41073  11.085   3.370   1.425  0.0100 -0.2041 -0.2382
98161W        W41074  15.813  28.989   9.045 -0.1265  0.0608  0.2471
98162W        W41075  12.379  32.138  18.094 -0.1197 -0.1869  0.0342
98163W        W41076  10.830   2.454  11.808  0.2749  0.4639 -0.1349
98164W        W41077   7.076  30.969   0.325  0.0929 -0.1063  0.0054
98165W        W41078  22.999   3.191   5.146  0.2039 -0.1971  0.0208
98166W        W41079  19.596   5.049   9.256  0.2153 -0.0124  0.2548
98167W        W41080  18.292   8.520   3.469  0.2701 -0.0234  0.4369
98168W        W41081  18.320   1.843  10.053  0.2466 -0.1547 -0.1082
98169W        W41082  24.476  33.980   4.719  0.1887  0.1447 -0.0007
98170W        W41083  12.728  26.789   5.649  0.0414 -0.1207 -0.0805
98171W        W41084  17.799  31.975   4.020  0.3261  0.1071  0.0371
98172W        W41085  17.610   6.783   0.200 -0.1325  0.0715  0.1084
98173W        W41086  12.981  14.207   3.530  0.2637 -0.3065 -0.0424
98174W        W41087  14.434   8.935  27.002  0.2368  0.0567  0.2949
98175W        W41088  27.422   5.102   0.071  0.2466  0.1071  0.0817
98176W        W41089   9.927  11.443  27.223 -0.1677 -0.1592  0.3911
98177W        W41090  17.085   4.561  28.985 -0.1875 -0.1053  0.0813
98178W        W41091  33.151  31.457  10.233 -0.0211  0.0948 -0.2654
98179W        W41092  15.013  11.118  27.935 -0.2355  0.2174 -0.0161
98180W        W41093  13.209  27.962   1.059  0.0566 -0.1579  0.4299
98181W        W41094  14.563  33.305   9.964  0.5095 -0.0643  0.1291
98182W        W41095   6.758  33.095   3.611  0.0515 -0.2934  0.1801
98183W        W41096  12.198   5.302   3.027  0.0764  0.0576  0.2669
98184W        W41097   9.190   3.118   1.481  0.0930  0.0865 -0.2036
98185W        W41098  19.647   7.317   0.127 -0.0006 -0.2977  0.0671
98186W        W41099  15.678  13.286  25.737  0.2084  0.1537 -0.0436
98187W        W41100  15.932  34.495   4.019 -0.0269 -0.4467 -0.1505
98188W        W41101  11.017  21.612   8.043  0.0570 -0.2150  0.2101
98189W        W41102   5.543   4.695  28.234  0.2256  0.1919  0.1238
98190W        W41103  10.591  33.845  10.652 -0.3449  0.4877  0.1253
98191W        W41104  14.382  10.696   5.101 -0.2394 -0.1499 -0.2514
98192W        W41105  16.477  12.123   7.599 -0.0487 -0.1093 -0.1559
98193W        W41106  18.493   2.369   8.620  0.0986 -0.1720 -0.0952
98194W        W41107  24.395  34.249   6.724 -0.0526 -0.2614  0.0805
98195W        W41108  28.593  31.664  10.147 -0.1164  0.1345 -0.1600
98196W        W41109  27.745   2.884   0.366 -0.1548 -0.0550  0.1842
98197W        W41110   9.911  26.782  24.638 -0.1595 -0.1063  0.1755
98198W        W41111  14.633   5.116  29.378 -0.0080 -0.0280 -0.4609
98199W        W41112  16.695  29.290   3.232  0.0923  0.2197  0.0888
98200W        W41113   6.709  31.311   9.990  0.0851 -0.1608 -0.1456
98201W        W41114  20.534   6.300  27.440  0.3068 -0.1877 -0.2147
98202W        W41115  15.942  33.651  27.577 -0.1168  0.1935 -0.1366
98203W        W41116  17.507  29.080   2.784  0.2181  0.1236 -0.2120
98204W        W41117  13.852   2.991   0.234 -0.5115  0.0111  0.5477
98205W        W41118   6.845  25.226  21.742 -0.3422  0.3476 -0.2234
98206W        W41119  17.671  29.837   1.474  0.0051 -0.2790  0.0850
98207W        W41120   3.061  33.394   3.335 -0.0422 -0.2885  0.2018
98208W        W41121  16.691  28.211  26.183 -0.1052  0.0796  0.4645
98209W        W41122  15.621   5.570  10.793  0.0872 -0.0208 -0.0100
98210W        W41123  21.566   5.009  27.824  0.0279 -0.2705 -0.3530
98211W        W41124  17.384  29.561   7.030 -0.1310 -0.0752 -0.1483
98212W        W41125  17.667   3.245  27.859  0.2444  0.0613  0.3491
98213W        W41126  15.792  28.870   3.583 -0.1675  0.0287 -0.0448
98214W        W41127  19.403  29.817   1.574  0.0639  0.1083  0.0616
98215W        W41128  10.697  26.078   1.556  0.4275  0.0291 -0.0355
98216W        W41129  14.450   3.885  29.122  0.3811 -0.2806  0.1996
98217W        W41130  13.911   5.475   2.086  0.2488 -0.0251  0.3924
98218W        W41131  33.407   2.892   6.094 -0.1313 -0.1326  0.0800
98219W        W41132  17.902   9.106  25.641  0.1464  0.4144 -0.3119
98220W        W41133  21.381  16.014   2.426 -0.4395 -0.0694  0.4005
98221W        W41134  29.997   4.853  29.563 -0.1094  0.1103  0.5297
98222W        W41135  31.185   4.486   4.625  0.1012 -0.5937 -0.1149
98223W        W41136  22.951   1.323  28.880  0.1365  0.2252  0.1070
98224W        W41137  25.798   2.442   2.827  0.4161  0.2520 -0.0196
98225W        W41138  13.056   7.231   1.786  0.1988 -0.1691  0.1133
98226W        W41139  18.832  31.872   9.459 -0.2883 -0.0158  0.3261
98227W        W41140   9.083  29.482  29.527 -0.1580  0.0219  0.0901
98228W        W41141  19.198   4.658   9.924 -0.3436  0.3840  0.1907
98229W        W41142  22.731   5.032  23.035  0.0384 -0.1231  0.0877
98230W        W41143  14.760   6.119   2.619  0.0109  0.1536  0.0963
98231W        W41144   5.174   3.302  25.642  0.1269 -0.0919 -0.2583
98232W        W41145  26.701  30.138   9.332  0.1562 -0.2966 -0.1210
98233W        W41146  18.304   6.528  26.324  0.1224  0.0336  0.0367
98234W        W41147  23.608   4.590   5.555  0.0841  0.0045  0.1500
98235W        W41148  27.081   7.475   9.977  0.2312  0.5441  0.0531
98236W        W41149   8.757  10.478  29.274 -0.1218  0.3251 -0.1661
98237W        W41150  14.290  28.909   2.274  0.0541 -0.0268  0.1233
98238W        W41151  17.489  25.206  23.433  0.1073 -0.0315  0.3928
98239W        W41152  20.262  32.345   4.391  0.1879 -0.0882  0.0962
98240W        W41153  15.732  33.117   6.078 -0.1246  0.1569 -0.1116
98241W        W41154  22.677   1.813  25.990 -0.0680  0.0180 -0.0296
98242W        W41155  10.613  26.499   3.558  0.2925 -0.0905  0.1589
98243W        W41156  26.019  14.946   8.319  0.1094  0.1342  0.1297
98244W        W41157  26.019   9.431   6.919 -0.0777 -0.1449 -0.2853
98245W        W41158  16.159  24.975  28.726  0.2375 -0.1072  0.0528
98246W        W41159   4.984   3.145   5.337  0.1148 -0.2716  0.0605
98247W        W41160  17.742  26.815  29.711 -0.0983  0.0401 -0.1257
98248W        W41161  25.380   6.746  29.776  0.1206  0.2371 -0.2206
98249W        W41162  16.756  27.867  28.099  0.1221 -0.0422 -0.1493
98250W        W41163   2.678   1.082   3.057 -0.0928  0.1458  0.3664
98251W        W41164  18.460   4.313   2.610  0.1474 -0.2221  0.1949
98252W        W41165   6.491   1.471  11.588  0.1492  0.4395 -0.0808
98253W        W41166  11.714  31.046  28.567  0.1286  0.1794 -0.0360
98254W        W41167  19.407  27.661   3.438  0.0611 -0.1286 -0.3437
98255W        W41168  17.035  14.167   2.396 -0.0498 -0.3777 -0.3940
98256W        W41169  20.621   5.934  23.434 -0.3405 -0.1932  0.0421
98257W        W41170  27.098   6.324   4.926 -0.0257  0.2341  0.0300
98258W        W41171  16.160   6.553   8.881  0.0330  0.1948 -0.2296
98259W        W41172  15.422   5.514   4.978  0.1798  0.1918 -0.0702
98260W        W41173  25.512   9.814  27.296 -0.0105  0.2286 -0.1320
98261W        W41174   3.079   0.362  28.384 -0.2439 -0.0790  0.1526
98262W        W41175  18.956  32.195   0.093  0.0022 -0.0636 -0.0376
98263W        W41176  10.664   9.450  23.269 -0.0567  0.0782 -0.4587
98264W        W41177   5.840  34.101   7.740 -0.0505 -0.2126 -0.2741
98265W        W41178   6.625  33.002   6.089 -0.2057 -0.2485 -0.0558
98266W        W41179  19.248  31.922   6.919  0.0122  0.3394 -0.0563
98267W        W41180  20.052   5.936   7.688 -0.1610 -0.2159 -0.3648
98268W        W41181  18.917   6.444   5.123  0.0120 -0.1922  0.1485
98269W        W41182  17.473   3.056   7.056  0.2846  0.1812 -0.0268
98270W        W41183   7.174   3.446   0.745  0.2178 -0.3729 -0.1767
98271W        W41184  15.379   0.299  28.157 -0.3323 -0.0025  0.0912
98272W        W41185  23.648  31.125   3.160  0.0009  0.0848 -0.2671
98273W        W41186  17.887   6.882  28.302 -0.2116  0.0197  0.1147
98274W        W41187  18.650  29.066  23.297 -0.0033 -0.1169  0.1311
98275W        W41188  17.857   1.330  25.765 -0.4227 -0.0547 -0.1185
98276W        W41189  18.249  30.277  29.179 -0.2022  0.0584  0.0532
98277W        W41190  14.562   2.782   1.045  0.0412 -0.3309 -0.0784
98278W        W41191  18.145   9.673  28.298 -0.2712 -0.1830 -0.0524
98279W        W41192  20.631   5.720  10.331 -0.2730  0.0594 -0.1991
98280W        W41193   9.672   9.019   5.097  0.2323 -0.2961 -0.0291
98281W        W41194   2.739  25.005  28.219  0.0682 -0.0641 -0.1234
98282W        W41195  13.337  34.267  21.728 -0.0750  0.1551 -0.0172
98283W        W41196   9.072   2.816   9.778  0.0470  0.2093  0.1620
98284W        W41197  24.409  29.805   1.509 -0.0206 -0.0925 -0.1269
98285W        W41198  12.661   5.377  28.919 -0.3342 -0.3509  0.2590
98286W        W41199  11.444   3.655   6.116  0.0906  0.0356  0.0057
98287W        W41200  18.980   9.244   7.386 -0.1410  0.0986  0.3398
98288W        W41201   1.437  25.040  29.334 -0.1303  0.0392  0.2256
98289W        W41202   9.588   7.063  27.195 -0.0948 -0.2041 -0.1197
98290W        W41203  13.822  33.980   1.425 -0.0756 -0.0748 -0.0861
98291W        W41204  21.395   7.205   4.512  0.2073 -0.2652 -0.2509
98292W        W41205  21.300   2.191  18.640 -0.0842 -0.1329  0.1839
98293W        W41206  18.822   9.796   0.716 -0.0442 -0.4328 -0.0301
98294W        W41207  13.028   1.106   3.416 -0.1348 -0.0625  0.0553
98295W        W41208  16.410  33.691  10.971  0.1080 -0.1038 -0.1874
98296W        W41209  14.629  33.227  11.126  0.0376  0.0151 -0.1699
98297W        W41210  13.880   3.076   5.933 -0.3232  0.0464  0.0581
98298W        W41211  21.940   7.349   2.659  0.2492 -0.0122 -0.2030
98299W        W41212   8.638   7.330  21.290 -0.3389 -0.0021  0.1151
98300W        W41213  13.633   7.186   9.454 -0.1172  0.1634  0.2398
98301W        W41214  13.214   0.043  27.206  0.2404 -0.0934  0.0516
98302W        W41215  24.546   3.105   1.931  0.0969 -0.0069 -0.1193
98303W        W41216  19.478   7.361  28.372 -0.1141  0.2762 -0.0689
98304W        W41217  31.955   5.238  25.490 -0.4522 -0.2330 -0.3062
98305W        W41218  31.073  31.652  21.458 -0.2478  0.0971 -0.0863
98306W        W41219  22.539   5.991   5.167  0.0141  0.1090 -0.4843
98307W        W41220  21.561  10.548  29.096 -0.1624 -0.0334 -0.2689
98308W        W41221  29.924   7.730   2.006  0.1023 -0.2596  0.2550
98309W        W41222  18.729  33.103   1.639  0.0236  0.1059  0.2629
98310W        W41223  20.681  18.505  28.847  0.0509  0.3209 -0.0744
98311W        W41224  19.582  33.130  29.612 -0.0061  0.1844 -0.5107
98312W        W41225  16.356  27.847   2.113 -0.1817 -0.0636 -0.1245
98313W        W41226  11.008  26.721  24.804 -0.1535 -0.0568 -0.2754
98314W        W41227   7.494   2.887   4.525  0.0926 -0.1166 -0.1297
98315W        W41228  16.690  33.517  29.064 -0.1083  0.0958  0.0182
98316W        W41229  22.079   6.213   0.896 -0.2231  0.1434  0.1659
98317W        W41230  18.144  28.149   2.911 -0.2184  0.3031 -0.0614
98318W        W41231  11.154   3.689   8.525  0.4264  0.0318 -0.1034
98319W        W41232  14.220  31.339  27.984  0.0206  0.2267  0.0765
98320W        W41233  24.814  33.196   6.400  0.2198 -0.2331  0.3759
98321W        W41234  17.277  32.370   8.261  0.1661  0.1565 -0.1865
98322W        W41235  14.067  31.516  23.551 -0.2392  0.2885 -0.2103
98323W        W41236   8.730  23.404   5.194  0.0249 -0.3456  0.0632
98324W        W41237  11.534   8.495   7.276 -0.2715 -0.3294 -0.1390
98325W        W41238  11.353  30.572  27.610  0.1001  0.0639  0.0434
98326W        W41239  29.806  31.344   0.346 -0.2646  0.1222  0.0204
98327W        W41240  12.201   6.755   9.978 -0.1292 -0.0762 -0.0865
98328W        W41241  20.098   3.460   2.239 -0.0533  0.0750 -0.1119
98329W        W41242  16.346   4.274  29.240  0.1765 -0.1882 -0.1796
98330W        W41243  20.982   5.704   2.782 -0.1410 -0.2586  0.2185
98331W        W41244  14.565  31.499   4.668 -0.0922  0.0568 -0.1135
98332W        W41245  33.542  32.136   1.133  0.1315 -0.0541  0.2238
98333W        W41246  13.459  33.991  24.034  0.2308 -0.1871 -0.1588
98334W        W41247  17.419  31.159   1.807  0.2435 -0.0729 -0.1704
98335W        W41248  17.350   4.391  29.369 -0.1719 -0.0893 -0.2530
98336W        W41249  15.771  31.519   1.991  0.2133  0.0367 -0.2387
98337W        W41250  23.000   3.109   8.512 -0.1118  0.0933  0.0572
98338W        W41251  14.996  16.453   5.312  0.3395 -0.0695 -0.1481
98339W        W41252  10.886  31.270  10.164  0.0163  0.2721  0.1283
98340W        W41253  15.705   8.210   6.937 -0.3786 -0.1019  0.0420
98341W        W41254  21.067   6.357   0.945  0.0526 -0.3175  0.4848
98342W        W41255  12.126   7.082   2.314  0.1650  0.0710  0.1547
98343W        W41256   9.486   2.193  11.870  0.2585  0.0196  0.0951
98344W        W41257  15.978  30.014   7.863 -0.0330 -0.1545 -0.1282
98345W        W41258  25.629   0.643   2.288 -0.3946  0.0690  0.0776
98346W        W41259  21.897   5.785   8.235 -0.0659  0.0086  0.0214
98347W        W41260  17.345  13.102  22.078  0.0083  0.0885  0.1656
98348W        W41261  12.676   0.141   6.296 -0.0823 -0.1016  0.0825
98349W        W41262   3.955  32.604   6.883  0.3807 -0.0490 -0.1023
98350W        W41263   8.766  12.925   7.808 -0.1031  0.0617 -0.2642
98351W        W41264  16.825   9.358   0.440  0.1538 -0.1001 -0.1508
98352W        W41265  28.629  26.321   0.850  0.0436  0.0893  0.0072
98353W        W41266  17.691  15.401   5.424  0.0113  0.3731  0.1029
98354W        W41267  10.990  30.023  11.028 -0.0091  0.0815 -0.1624
98355W        W41268   3.884   1.480   5.891 -0.2497  0.0349 -0.0986
98356W        W41269  11.839  32.375   9.694 -0.2957 -0.0058 -0.4051
98357W        W41270   0.659   1.353  10.030 -0.0047 -0.0168 -0.5118
98358W        W41271  13.196  31.105  22.515  0.0612 -0.0198  0.1809
98359W        W41272   9.790  31.292  27.677 -0.0286 -0.2432  0.1190
98360W        W41273  19.213  28.712  27.595  0.3139 -0.1948 -0.0552
98361W        W41274  17.776   2.535  10.410 -0.3759 -0.0519  0.1504
98362W        W41275   3.729   3.966  10.941 -0.0456 -0.2394 -0.0497
98363W        W41276  18.428   6.742   8.289  0.0435 -0.0943  0.1201
98364W        W41277  21.707   0.872   0.910  0.3657  0.2250 -0.0711
98365W        W41278   5.049   5.410  10.455  0.0777  0.0778  0.0571
98366W        W41279  27.052   3.998   2.773 -0.0929 -0.0696 -0.1097
98367W        W41280   8.183   1.278   8.423  0.2682 -0.0521  0.2404
98368W        W41281  17.078  23.629   2.959 -0.0207 -0.1754  0.2036
98369W        W41282  20.465  11.754   6.714 -0.1874  0.2160 -0.1084
98370W        W41283  22.178  32.451   7.210 -0.0511  0.0999  0.1813
98371W        W41284  12.218   7.705   3.771  0.1412 -0.0921  0.0601
98372W        W41285  18.120   6.923   4.557 -0.0152  0.0776  0.0773
98373W        W41286   0.046   3.463   4.138  0.2643 -0.2681 -0.1864
98374W        W41287  15.643   9.734   6.233 -0.3124 -0.2078  0.0598
98375W        W41288  16.511   7.403   8.796  0.0188 -0.3597 -0.0334
98376W        W41289   6.961  31.988   5.043  0.3107  0.0022 -0.0362
98377W        W41290   4.409  31.572  11.573  0.1926 -0.3628  0.1733
98378W        W41291  26.592  31.837   4.586  0.1009  0.1276 -0.0630
98379W        W41292  16.921   1.610   7.256  0.1558  0.0207  0.1531
98380W        W41293  13.323  19.709   3.505 -0.0359 -0.3558  0.1092
98381W        W41294  15.218   5.048   5.143  0.1166  0.3447 -0.0089
98382W        W41295  17.583  20.906  17.142 -0.0065 -0.0213  0.1268
98383W        W41296  26.882  32.933   1.386  0.0386  0.1912 -0.3396
98384W        W41297  14.971   1.576   6.275 -0.1000  0.0805  0.0449
98385W        W41298  20.149  30.625   6.790  0.0100 -0.0678  0.0883
98386W        W41299  24.285  21.807   6.604  0.2332  0.2881  0.1372
98387W        W41300  22.198  24.379  29.271  0.2286  0.1555  0.0932
98388W        W41301  12.041  33.164   5.721  0.2244  0.0559  0.3275
98389W        W41302  18.911   7.768   4.839  0.1343 -0.0663  0.3573
98390W        W41303  11.811  31.423   9.857 -0.0416  0.0858  0.1729
98391W        W41304  18.174   3.722  10.845 -0.1362 -0.3578 -0.2163
98392W        W41305  12.655  23.435   5.382 -0.0083  0.2419  0.1780
98393W        W41306  21.841  34.372  28.983  0.0307  0.1147  0.0187
98394W        W41307  16.305  31.359   8.193  0.2830 -0.0501  0.3747
98395W        W41308  17.045   1.720   8.518 -0.2414  0.2529 -0.1149
98396W        W41309  21.215   3.185   4.631 -0.0536 -0.2344  0.2384
98397W        W41310  28.575  27.513   7.615 -0.4594 -0.1184  0.1157
98398W        W41311  14.632   1.874  27.601 -0.3994 -0.0928  0.0131
98399W        W41312   3.618   7.365   9.541  0.0666 -0.1190 -0.1728
98400W        W41313   8.507  24.992   1.634  0.1389 -0.0967 -0.2961
98401W        W41314  17.677  31.210   5.779 -0.1490  0.0229  0.2664
98402W        W41315  14.613   9.797  27.202  0.1329  0.2959 -0.0587
98403W        W41316  17.896   4.338   1.920  0.2255 -0.4069  0.1749
98404W        W41317  18.018  28.086   6.251  0.1711  0.0875  0.0407
98405W        W41318  11.074  32.653   2.245 -0.2492  0.0308  0.2279
98406W        W41319  17.145  30.258   9.654 -0.0191 -0.1200 -0.3080
98407W        W41320  14.872  19.024  25.033  0.3232  0.1456  0.2132
98408W        W41321  13.266   6.358   9.274  0.0737 -0.0788 -0.0178
98409W        W41322   7.067   4.893   7.182  0.2104 -0.1297 -0.0604
98410W        W41323  16.483  33.336   8.964  0.0890 -0.0258  0.2592
98411W        W41324   8.914   7.048   8.677 -0.0895 -0.1201 -0.1931
98412W        W41325  17.612  32.019   5.425 -0.1440 -0.0273  0.0223
98413W        W41326  23.305   3.881   7.648  0.4531  0.1263 -0.4790
98414W        W41327  10.752   2.880   0.016 -0.1384 -0.0316 -0.0375
98415W        W41328  29.492  34.066   1.926 -0.0255  0.4379 -0.1063
98416W        W41329  17.666   2.344  26.780  0.0367 -0.1662  0.1024
98417W        W41330  27.219  11.555   6.472  0.3690 -0.0332 -0.1777
98418W        W41331  14.093   4.556  28.471  0.1994  0.0432 -0.0616
98419W        W41332  12.435   0.333   9.148  0.1105  0.0553  0.1175
98420W        W41333  19.584   3.196  10.690  0.0257  0.4005 -0.1166
98421W        W41334  19.539  30.178  29.419  0.2393 -0.3289 -0.0318
98422W        W41335  23.866  30.974   4.801 -0.0821  0.0741 -0.0389
98423W        W41336  16.693  17.223  29.625  0.1041  0.1603  0.2072
98424W        W41337  15.645  20.438  24.794 -0.2061 -0.2782 -0.0320
98425W        W41338   7.957   5.297  23.929  0.2745  0.0524  0.4030
98426W        W41339  19.451   8.957   9.024 -0.0885 -0.4716  0.0301
98427W        W41340  15.272   6.054   8.123 -0.0133  0.1181 -0.0309
98428W        W41341  10.301   5.985   5.191 -0.0561 -0.0241 -0.1639
98429W        W41342  19.790  13.804  29.434 -0.3535  0.0128  0.2208
98430W        W41343  16.617   1.185   9.830  0.0507  0.0831 -0.1653
98431W        W41344   9.213   7.729  28.113 -0.0484  0.0370  0.2074
98432W        W41345   7.683  34.442   7.561  0.0424  0.3814 -0.1717
98433W        W41346  23.963  33.684   0.124  0.0860  0.2830  0.0966
98434W        W41347  24.971   6.425   8.903  0.1191  0.3340 -0.1680
98435W        W41348  14.976  30.326   4.233 -0.0005 -0.4779  0.0527
98436W        W41349  16.989   1.456   7.892 -0.0189  0.1655  0.1212
98437W        W41350  13.140   4.870  11.513 -0.2867 -0.0906  0.0562
98438W        W41351  15.245   0.417  11.663  0.0157 -0.1299 -0.0049
98439W        W41352  16.170   5.172   6.181  0.0711  0.0975 -0.2674
98440W        W41353  15.786   7.987   7.871 -0.0696 -0.2464 -0.0350
98441W        W41354  11.147  34.367   7.869 -0.3932  0.2435  0.1190
98442W        W41355   9.100   6.779   1.524 -0.0869  0.2077 -0.1082
98443W        W41356  14.221   2.571   9.735  0.0018 -0.3253  0.3713
98444W        W41357  10.182   1.759   4.040 -0.1528  0.2622  0.1309
98445W        W41358  14.341   4.572  10.450 -0.1673  0.1496 -0.0123
98446W        W41359  31.455   0.138   3.238 -0.1583 -0.1388  0.1094
98447W        W41360  25.117   0.093   3.310  0.4207 -0.0242  0.0024
98448W        W41361  11.747  14.034  28.456  0.1007  0.0536 -0.1579
98449W        W41362  22.188  28.454   1.954  0.1832 -0.0709  0.2893
98450W        W41363   2.978  31.296   0.247  0.1922 -0.2672 -0.1258
98451W        W41364   6.447   4.856   7.956  0.0027 -0.1740 -0.1586
98452W        W41365  15.695   0.717   3.344 -0.2056  0.0592  0.1569
98453W        W41366  25.786   9.640   2.264  0.1146 -0.3186  0.1737
98454W        W41367  14.186  31.560   9.008 -0.2658  0.0661  0.0400
98455W        W41368   8.962  29.336   1.451 -0.1686  0.0852  0.0971
98456W        W41369   3.195   1.700   1.328  0.2585  0.1824 -0.1168
98457W        W41370  15.181   4.706   9.078  0.0446  0.0091 -0.0408
98458W        W41371  14.044   0.432  26.175  0.1179 -0.1078 -0.2152
98459W        W41372  19.240  30.644  25.705 -0.1110  0.2214  0.2253
98460W        W41373  10.548  11.002  27.589 -0.1906 -0.1591 -0.2460
98461W        W41374  10.889   4.313   8.667  0.2298 -0.0416 -0.0640
98462W        W41375   6.897  33.943   0.597  0.0491  0.0517  0.1887
98463W        W41376  23.483  30.628   6.371  0.1375 -0.2709  0.2744
98464W        W41377  29.664  28.111   2.067  0.1748 -0.1615 -0.2411
98465W        W41378  23.436  24.260   6.913 -0.0223  0.1117  0.0356
98466W        W41379  17.041  31.997   9.285  0.2499  0.3522  0.3860
98467W        W41380  17.475  12.310  26.897  0.6514 -0.2923  0.1332
98468W        W41381  17.971   5.790  29.504 -0.2647  0.0036  0.4206
98469W        W41382  18.389  28.763   3.209 -0.3543 -0.0682  0.3520
98470W        W41383  17.345  29.882   0.985  0.3102  0.1316 -0.0603
98471W        W41384  17.245  31.921  24.428  0.0748  0.0480 -0.0739
98472W        W41385  26.184   8.689  23.945  0.2758  0.0441  0.2933
98473W        W41386   4.966   0.417   7.458 -0.1372  0.0735 -0.2317
98474W        W41387  10.943  26.884   8.136  0.0476 -0.3986 -0.1065
98475W        W41388  10.095  28.905   8.183 -0.1073 -0.0580 -0.4829
98476W        W41389  16.408   2.625  22.580  0.0289 -0.2242  0.1427
98477W        W41390  22.457   6.794   9.357 -0.1815 -0.2117 -0.0556
98478W        W41391  11.839   1.488  11.594  0.0742  0.0257 -0.1570
98479W        W41392  10.226  10.280   5.301  0.1869 -0.3886 -0.0404
98480W        W41393  10.783   1.964  11.035 -0.0463 -0.1958 -0.3383
98481W        W41394   7.052  12.657   9.281 -0.0562 -0.1192  0.1286
98482W        W41395  21.330   2.834   3.793 -0.3279 -0.3996  0.0900
98483W        W41396  15.900  33.004  29.164  0.1204 -0.2371 -0.1309
98484W        W41397  13.916   3.458   9.345  0.0226 -0.0041 -0.1040
98485W        W41398  12.705   6.459  10.933  0.0835  0.0081 -0.1535
98486W        W41399  11.634   5.516   6.633  0.1711  0.0397 -0.1604
98487W        W41400  19.302   7.637   0.565 -0.1850  0.0543  0.1014
98488W        W41401   9.322   3.936  12.476 -0.1609  0.2263 -0.0982
98489W        W41402  25.176  16.539   1.511 -0.0697 -0.0939  0.0693
98490W        W41403  32.725  28.067   3.996 -0.0826 -0.0912 -0.2047
98491W        W41404  10.670   3.199  10.534  0.0133 -0.1558  0.0940
98492W        W41405  14.969  32.150   6.777  0.2564  0.1324 -0.2286
98493W        W41406   6.565   4.042   5.445  0.0246 -0.2385  0.0492
98494W        W41407   8.485  31.516   7.096 -0.1976 -0.1318  0.0956
98495W        W41408  17.606  21.249  26.694 -0.2464  0.2252  0.1179
98496W        W41409  18.058  23.064   5.749 -0.1433  0.0625  0.1265
98497W        W41410  11.609   0.602   2.419 -0.3547  0.2796  0.1286
98498W        W41411  16.979  28.145   2.892 -0.1743 -0.2286 -0.1351
98499W        W41412  15.019   5.230   0.402  0.2840 -0.1410 -0.0359
98500W        W41413  10.090  25.946   9.421  0.0276 -0.1261 -0.0789
98501W        W41414  15.522   7.752  25.575  0.0301  0.0596 -0.0190
98502W        W41415   5.530  33.035  12.035 -0.1055  0.0053 -0.3298
98503W        W41416  29.809  14.821   8.493  0.1397  0.0865 -0.2025
98504W        W41417   9.253   3.267   9.969  0.0497  0.3304  0.0844
98505W        W41418  21.220   4.842  28.790 -0.1686  0.2117  0.0283
98506W        W41419  18.700   0.476   9.039 -0.0675 -0.0795  0.1528
98507W        W41420   2.196  25.808  20.064 -0.0718 -0.4927  0.1294
98508W        W41421  10.095  23.473   5.361 -0.2104  0.1372  0.0797
98509W        W41422   9.346   8.494   8.062 -0.0409 -0.2406 -0.2077
98510W        W41423  20.002   4.830   9.611 -0.0243  0.0312 -0.0888
98511W        W41424   8.916  34.367   6.745 -0.2922 -0.0736 -0.0381
98512W        W41425  23.370  30.356   0.264 -0.0407  0.1164  0.2829
98513W        W41426  18.694   5.637  27.015  0.2620  0.1554  0.0111
98514W        W41427  19.623  26.607  28.542  0.1775  0.1677  0.5018
98515W        W41428  15.423   2.880  21.792 -0.0692 -0.1402  0.0225
98516W        W41429  11.470   9.460   9.845  0.1208  0.0691 -0.1880
98517W        W41430  12.247  34.447  12.823 -0.2123  0.0604 -0.0703
98518W        W41431  10.318  30.826   2.550 -0.1047  0.1859 -0.0182
98519W        W41432  17.499   0.942   2.423 -0.3388  0.3099 -0.0697
98520W        W41433  24.321   9.692   4.618 -0.0085 -0.1243 -0.0672
98521W        W41434  18.288   6.842  25.685 -0.0643 -0.0385 -0.0087
98522W        W41435  19.432   6.369   1.786  0.0888  0.0430 -0.0477
98523W        W41436  20.553  31.837   8.994 -0.0228  0.3938 -0.2227
98524W        W41437  27.748  15.658   7.931 -0.6771  0.1341  0.2447
98525W        W41438   9.741   4.485  28.441  0.0469 -0.2052  0.0797
98526W        W41439  17.504  26.373   9.875  0.0413  0.1045 -0.2470
98527W        W41440  16.974  32.582  28.046 -0.0772  0.4337  0.0349
98528W        W41441  14.350  31.442   2.542  0.2923  0.3645  0.0415
98529W        W41442  17.237   5.024   7.909 -0.0155  0.0262 -0.1173
98530W        W41443  22.412  29.166   5.213  0.2712  0.1734  0.3407
98531W        W41444  18.919  25.404   4.534  0.2541 -0.0264 -0.0792
98532W        W41445   9.013  29.007   6.502 -0.1818  0.0326  0.0442
98533W        W41446  14.456   2.767  29.484 -0.1917  0.0301 -0.1010
98534W        W41447  11.631   2.766   4.443 -0.0707 -0.0937 -0.1284
98535W        W41448  10.172   9.381  23.400 -0.0480 -0.1032  0.0468
98536W        W41449  23.737  29.199   4.830  0.1185 -0.0978  0.0890
98537W        W41450  10.658  12.122   9.216 -0.0144  0.3921 -0.0775
98538W        W41451  14.707   5.477   4.253 -0.0268  0.0229 -0.2819
98539W        W41452   9.363   1.126  12.672  0.1245 -0.0628 -0.2829
98540W        W41453  19.087   5.214   3.440 -0.2046  0.1434  0.0091
98541W        W41454  14.617   6.580   1.788  0.2395 -0.2603  0.1093
98542W        W41455  23.953  34.098   4.805 -0.0741 -0.3614 -0.1672
98543W        W41456  10.572  30.249   5.257 -0.0927 -0.2062 -0.0078
98544W        W41457  11.293  29.331  22.012 -0.2485  0.1743 -0.0414
98545W        W41458  20.180   3.386  10.302  0.5687  0.2755  0.2634
98546W        W41459   6.184  27.555  11.207 -0.1268 -0.1767  0.0337
98547W        W41460  11.901   6.762   1.043  0.1750 -0.2300  0.2843
98548W        W41461  23.364   2.098   8.611 -0.0573  0.0246 -0.0212
98549W        W41462  25.048   5.803   6.891 -0.1367  0.0766  0.2558
98550W        W41463  16.899  27.362   8.655 -0.0600 -0.1718  0.0720
98551W        W41464  13.683   1.568   2.375 -0.1923 -0.2351  0.2007
98552W        W41465  10.022  33.104   2.560 -0.1640 -0.0895 -0.0492
98553W        W41466  10.403   0.200   7.168 -0.0030  0.0662 -0.0009
98554W        W41467  12.667   2.124   0.791 -0.2548 -0.0090 -0.0204
98555W        W41468  24.248  33.639   3.917  0.2599 -0.3271 -0.1672
98556W        W41469  18.029  34.009   9.197  0.0794  0.0869 -0.0233
98557W        W41470   3.992   4.433  26.681  0.0606 -0.1607  0.0994
98558W        W41471  14.480   2.141   5.892 -0.1338 -0.0365 -0.3749
98559W        W41472  11.646  27.687  28.960  0.3375  0.1950  0.2439
98560W        W41473   8.980   2.208  27.036  0.0155  0.0933 -0.1217
98561W        W41474  11.401   9.995   5.319 -0.2952 -0.1876  0.1870
98562W        W41475   5.280  31.941   0.696 -0.1899 -0.0284 -0.2086
98563W        W41476  10.697  23.314   2.845 -0.4192  0.1885  0.1060
98564W        W41477  20.816   2.080  29.229 -0.4203 -0.1914 -0.1156
98565W        W41478  13.625  31.037   4.405 -0.2201  0.0308 -0.2721
98566W        W41479   5.417   6.186   5.032  0.0729 -0.0334  0.3104
98567W        W41480  11.853   0.117   8.583  0.0182 -0.0013  0.1368
98568W        W41481   9.616  22.480   9.651  0.1957  0.2023  0.0170
98569W        W41482  19.842   3.393   8.187  0.0927 -0.0695 -0.2226
98570W        W41483  29.487   2.643   5.265 -0.3897 -0.2567 -0.2288
98571W        W41484   6.910   0.465  10.521  0.3050 -0.2294 -0.1873
98572W        W41485  18.440  33.951   3.109 -0.1833 -0.0678  0.3065
98573W        W41486  29.855   8.298   5.803 -0.1608 -0.1882  0.2884
98574W        W41487  27.648   8.089   4.000 -0.3518 -0.2431  0.0297
98575W        W41488  20.255  24.642  25.387 -0.1002 -0.3886 -0.0737
98576W        W41489  29.818   2.606  11.194 -0.5325  0.0994  0.3230
98577W        W41490  20.343  26.973   6.637  0.1281  0.3361  0.0858
98578W        W41491  18.825   4.969   5.445 -0.1417  0.1824  0.0148
98579W        W41492  25.598   2.373   9.343  0.1001 -0.0898  0.1439
98580W        W41493  32.258   0.910  25.933 -0.0997 -0.0709  0.0112
98581W        W41494  14.540   0.908   1.562  0.3427  0.1198  0.2285
98582W        W41495  17.988   4.271   0.646 -0.0208 -0.2035  0.0333
98583W        W41496   6.683   8.325  27.858  0.1504  0.1281  0.0464
98584W        W41497  29.641   1.693   1.081 -0.0568 -0.0287  0.1850
98585W        W41498  19.001  33.462   8.075 -0.0352  0.2340 -0.0542
98586W        W41499  10.813   9.699   9.757 -0.0032  0.1143 -0.0656
98587W        W41500  18.387  11.158   2.122 -0.1382  0.0218  0.0054
98588W        W41501  12.857   2.384  10.669 -0.0889 -0.1859 -0.1564
98589W        W41502  21.117  28.331   2.426  0.0143 -0.0725 -0.1667
98590W        W41503   6.859  11.078  10.059 -0.3542 -0.2506 -0.3450
98591W        W41504  13.710   0.869   5.826 -0.1125  0.1634  0.1487
98592W        W41505  23.671   9.326   5.332  0.0939 -0.0861 -0.2022
98593W        W41506  18.085  12.253   6.242  0.0526 -0.0992 -0.0264
98594W        W41507  15.321  25.620   6.530 -0.2390 -0.3666 -0.1254
98595W        W41508  22.358   6.875   3.501  0.3137  0.1950 -0.1246
98596W        W41509  14.992  30.222   2.580 -0.0070  0.0514  0.1477
98597W        W41510  21.449  28.983  27.626  0.0970  0.0588  0.0691
98598W        W41511  20.695   6.963   6.710  0.0119 -0.0713 -0.2861
98599W        W41512  22.129   8.137   1.516 -0.1757  0.0084 -0.1307
98600W        W41513  12.249   1.927   9.996  0.2427  0.1453 -0.0083
98601W        W41514  16.638   2.873   9.725  0.0206 -0.1243  0.2553
98602W        W41515  21.505  31.178  27.254  0.0193  0.0384 -0.1390
98603W        W41516  10.983  29.169  10.461  0.2180  0.3832 -0.2943
98604W        W41517  34.375   1.659  25.007 -0.0263 -0.0597  0.0950
98605W        W41518  16.431  17.879   4.797 -0.0454  0.1696  0.1615
98606W        W41519  16.038   9.022   9.105  0.0535  0.0834 -0.2685
98607W        W41520   9.079   0.873   8.694  0.0732 -0.1199  0.1060
98608W        W41521  22.180   2.099   7.740 -0.5922 -0.1266 -0.1296
98609W        W41522  14.563   3.797   6.262  0.0031 -0.0992 -0.0416
98610W        W41523  19.713   0.649   4.477 -0.2034  0.1090  0.0279
98611W        W41524  19.843  31.433   4.301  0.1991 -0.0946  0.1230
98612W        W41525  16.720   3.378   0.497 -0.0576  0.0123  0.1531
98613W        W41526  22.497  30.711   8.733  0.0836  0.0049  0.0243
98614W        W41527   8.189  33.850  10.503 -0.2036 -0.0199 -0.5026
98615W        W41528  27.139  20.782   4.540 -0.1804  0.0306 -0.3174
98616W        W41529  17.429  10.785   6.934  0.1364  0.1170 -0.0191
98617W        W41530  31.114  22.691   3.315  0.1441 -0.0947 -0.1245
98618W        W41531  32.327  28.853   8.730  0.0179 -0.0188 -0.4105
98619W        W41532  20.879  33.243   7.827  0.3525  0.0782 -0.1232
98620W        W41533  24.389  34.358  28.953  0.3131  0.0811 -0.0362
98621W        W41534  14.139   0.969  10.863  0.0059  0.2957 -0.1638
98622W        W41535  23.711  29.857  29.615 -0.0775 -0.0181 -0.0785
98623W        W41536  24.340   1.550  29.523 -0.1824 -0.1636  0.2350
98624W        W41537   3.276  33.385   5.974 -0.0745  0.2292 -0.1575
98625W        W41538  18.516  34.140   7.527  0.2375 -0.0352 -0.0838
98626W        W41539   4.733   5.389   3.055  0.0883  0.0494 -0.1036
98627W        W41540   6.912   1.322  26.682  0.0495 -0.1382 -0.2819
98628W        W41541  23.245   1.014  24.106  0.5809 -0.0892 -0.0344
98629W        W41542  23.145  31.666  28.931 -0.0342 -0.2936  0.2268
98630W        W41543  25.326   4.904   8.017 -0.1093  0.2207  0.0569
98631W        W41544  11.264  29.373  23.999 -0.3029 -0.0633 -0.1739
98632W        W41545  12.491   2.422  12.068 -0.2276 -0.0529  0.0868
98633W        W41546  13.896   4.412   8.282  0.0524 -0.0354 -0.1719
98634W        W41547  14.491  27.816  26.241 -0.4666  0.4223 -0.0946
98635W        W41548  23.732   4.265   1.062 -0.2231 -0.1582 -0.1364
98636W        W41549  13.482   2.557  10.576  0.0837  0.2344 -0.2127
98637W        W41550  13.489   6.738   3.260  0.0131  0.0038  0.0009
98638W        W41551  21.624  32.605   5.093 -0.0454  0.0946 -0.0993
98639W        W41552  22.267  34.248   4.085 -0.0389  0.0292 -0.1369
98640W        W41553  15.501  30.040   7.659  0.1449  0.0321 -0.1546
98641W        W41554  21.148  28.792   5.248  0.4813 -0.0893  0.2596
98642W        W41555  19.987  30.311   8.479  0.0467 -0.0133 -0.3951
98643W        W41556  10.991  33.604  10.985  0.1978 -0.2624  0.0676
98644W        W41557  14.769  27.758   0.075  0.0835  0.1934  0.1194
98645W        W41558  13.172   2.336   7.019  0.1115 -0.1594  0.1148
98646W        W41559  24.320   3.198   2.555 -0.3462 -0.1056  0.1758
98647W        W41560  13.111  32.589   2.424  0.3017 -0.1241 -0.0310
98648W        W41561  10.690   0.228  10.317  0.0154  0.3407 -0.0038
98649W        W41562  26.184  27.371   4.109 -0.0899  0.1223  0.3097
98650W        W41563  15.183   3.671   2.592 -0.0237  0.0404 -0.1147
98651W        W41564   7.199   1.013   1.460  0.0659  0.0370 -0.1924
98652W        W41565  16.055   2.837   6.731  0.0341  0.0015  0.2533
98653W        W41566   8.816  28.664   1.302 -0.0516 -0.0273  0.1076
98654W        W41567  17.451  11.629  29.384  0.1469 -0.1613  0.4538
98655W        W41568  17.120   8.333  29.206  0.0746  0.2564 -0.1989
98656W        W41569  23.670  10.213   2.688  0.1264  0.0493  0.0976
98657W        W41570  15.032  29.901   8.322  0.4336 -0.4264 -0.1667
98658W        W41571  10.795   2.493   6.311  0.1482  0.1897  0.0650
98659W        W41572  16.869   7.466  28.962 -0.2073  0.3104  0.2099
98660W        W41573  23.537  26.877   5.182  0.0193  0.1804 -0.0775
98661W        W41574  16.908   0.158  28.715 -0.0846 -0.1310 -0.1740
98662W        W41575  14.532   7.346   4.271  0.0601  0.3994 -0.0438
98663W        W41576  11.627  32.296  27.364  0.2227  0.1028 -0.1058
98664W        W41577  10.360  33.591  22.581 -0.1528 -0.0115 -0.1943
98665W        W41578  18.740  18.440  26.104 -0.0230 -0.0306 -0.1229
98666W        W41579  12.844   4.165   7.908 -0.0821 -0.1407 -0.1598
98667W        W41580  11.072   5.219   6.220 -0.1608 -0.3184 -0.0765
98668W        W41581  19.197   6.900   7.794  0.2302  0.0493  0.1895
98669W        W41582   6.604   1.852   9.398  0.2586 -0.0726  0.2845
98670W        W41583  13.863  25.403   6.016 -0.1455 -0.1233 -0.3872
98671W        W41584  17.621  31.723   6.751  0.2162  0.1772 -0.2262
98672W        W41585  19.579  30.580   6.604  0.2548  0.0549  0.0072
98673W        W41586  11.495  11.746   0.528 -0.0625  0.1911  0.0231
98674W        W41587   5.067  27.387   5.531  0.4597  0.0931 -0.4411
98675W        W41588  13.976  28.476   8.256 -0.3703  0.0088  0.1467
98676W        W41589  13.465   4.156   6.950 -0.0357 -0.3211 -0.0251
98677W        W41590  26.514  26.050   4.301  0.3752 -0.2365 -0.1404
98678W        W41591  21.603   6.004   8.539 -0.3147  0.1733  0.2601
98679W        W41592  10.956   6.144  10.321  0.4643  0.0928 -0.4850
98680W        W41593   9.367  28.601   6.301  0.1019 -0.0862 -0.2014
98681W        W41594  22.341   0.867   8.812  0.1333  0.5512  0.0687
98682W        W41595  24.461   5.834   7.362 -0.1744  0.0211  0.1480
98683W        W41596  32.724   0.135   8.738 -0.0265 -0.0961  0.0527
98684W        W41597  23.408  30.204   4.792  0.1984 -0.2700  0.0185
98685W        W41598  23.136  28.468   5.118 -0.0158 -0.1584 -0.1573
98686W        W41599  20.215  21.985   0.551 -0.0254  0.1658  0.0280
98687W        W41600  32.893   7.081   7.861  0.1341  0.1571 -0.0312
98688W        W41601   9.344   0.719   9.964 -0.1910 -0.1214 -0.1408
98689W        W41602  29.515   1.014   6.218 -0.3078 -0.1453  0.0563
98690W        W41603   5.478   1.744   6.873  0.0030  0.0147 -0.1371
98691W        W41604  22.543  33.245   3.346 -0.3151 -0.0808  0.0507
98692W        W41605  19.758  33.689   8.949  0.2980  0.0906 -0.2680
98693W        W41606  19.966   2.862   6.842  0.2112  0.0970  0.2114
98694W        W41607  21.937  10.423   4.265 -0.1110  0.1651  0.0628
98695W        W41608  12.741  11.371   2.545  0.0148 -0.0818 -0.0373
98696W        W41609  21.360  10.298   7.470 -0.0712  0.2163 -0.1309
98697W        W41610  17.874  32.044   2.059  0.2666  0.2804 -0.0381
98698W        W41611   9.520  32.796  10.295  0.1952  0.0830  0.2503
98699W        W41612  18.141  31.918  23.963 -0.0431 -0.0931 -0.3452
98700W        W41613  12.435   1.126  12.614  0.0854 -0.0117  0.0974
98701W        W41614   9.815   4.974   6.225 -0.1277 -0.2314  0.2056
98702W        W41615   8.247   8.655   3.478  0.3850  0.2047 -0.1224
98703W        W41616  23.316  13.378   0.866  0.0196  0.1196  0.1823
98704W        W41617  18.378  30.600   0.674  0.1433  0.0035 -0.2006
98705W        W41618  13.997  32.187   9.662 -0.3018 -0.0594  0.0271
98706W        W41619   3.383  11.377   9.022 -0.3790  0.3012 -0.0866
98707W        W41620  26.893   1.409   1.909 -0.0699  0.1469  0.1647
98708W        W41621  16.459  32.013   7.421  0.0850 -0.0035  0.0402
98709W        W41622  20.642  26.712   7.480 -0.0326 -0.0892 -0.2640
98710W        W41623  10.412   0.587   3.313  0.1430 -0.0190 -0.0054
98711W        W41624   8.695  25.995   0.595  0.0254 -0.2341  0.1564
98712W        W41625  18.860   4.894   7.578  0.0356  0.2091 -0.0976
98713W        W41626  12.443  32.681   8.593  0.1833 -0.0960  0.1678
98714W        W41627  14.706   0.292   5.037 -0.0672 -0.1291 -0.3036
98715W        W41628   2.204  30.002   7.136 -0.0626 -0.0532  0.3518
98716W        W41629  15.002  30.936  29.543 -0.2950 -0.1146 -0.2477
98717W        W41630  15.579  29.591   1.309 -0.1137  0.0806 -0.4039
98718W        W41631   9.875  30.295  12.320 -0.0288  0.0582  0.1823
98719W        W41632  16.505  27.976   7.709  0.1306 -0.0442  0.0677
98720W        W41633  15.414  28.986  10.050 -0.2647  0.0049  0.0976
98721W        W41634   7.484  25.599   7.142 -0.0579  0.0494 -0.1638
98722W        W41635  17.575   2.248   8.900 -0.1295  0.1731  0.0287
98723W        W41636  15.640   7.498   5.931 -0.0863 -0.1405 -0.1043
98724W        W41637  29.383  28.494   1.405  0.1983  0.2029 -0.0212
98725W        W41638  31.224   9.376   2.965  0.1054  0.1151 -0.0137
98726W        W41639  21.112  32.458   7.014  0.1671 -0.0541 -0.0347
98727W        W41640  22.112  12.359   9.174 -0.1891  0.2005  0.0019
98728W        W41641   2.197   0.368   5.092  0.4711 -0.4068  0.2637
98729W        W41642   5.846   1.459   7.149  0.0832 -0.0696 -0.0087
98730W        W41643  20.954  11.753  26.553 -0.1510 -0.5901  0.0174
98731W        W41644  23.886   5.578   8.522 -0.1183  0.0838 -0.0958
98732W        W41645   4.947  31.653   0.385 -0.3922 -0.0309 -0.3111
98733W        W41646  20.137  32.174   8.012  0.0051 -0.0709  0.1858
98734W        W41647  10.391  25.234   9.403 -0.4338  0.2431 -0.0437
98735W        W41648   9.521  29.548  11.675 -0.2354  0.2582  0.1086
98736W        W41649   9.097  33.988  12.162  0.3100  0.3082  0.1107
98737W        W41650  12.280  32.667   6.907 -0.3106 -0.5253  0.1372
98738W        W41651  21.303   3.753   7.895 -0.1837  0.1342  0.0661
98739W        W41652  17.518  33.133   9.096  0.0251 -0.2737  0.1581
98740W        W41653  12.937   6.834   8.820 -0.1539 -0.0849 -0.2763
98741W        W41654  18.312  30.430  25.756  0.2569  0.4339 -0.2871
98742W        W41655  10.725   2.189   3.577 -0.0901 -0.1446  0.2866
98743W        W41656  13.926   9.337   6.164  0.2980  0.1289  0.1862
98744W        W41657  10.057   4.377   7.613 -0.1859  0.2345  0.2218
98745W        W41658   0.493   3.505   2.955 -0.0865 -0.0672 -0.4168
98746W        W41659  17.365   4.775   1.031  0.1808  0.1418 -0.2738
98747W        W41660  18.006  12.740   0.152  0.4027 -0.1889  0.2918
98748W        W41661  23.904  24.430   6.885  0.0909  0.0832  0.0957
98749W        W41662   9.309   1.568  28.106  0.1183 -0.4459  0.2353
98750W        W41663  11.962   4.996  11.286 -0.3317 -0.0714 -0.0563
98751W        W41664  27.115  25.125   2.474 -0.0288  0.0193 -0.2471
98752W        W41665  17.766  30.549   1.766 -0.0892 -0.0564 -0.3631
98753W        W41666  13.053  29.589   9.136 -0.1724  0.1407  0.1533
98754W        W41667  13.016  26.192   1.998 -0.1704 -0.0332  0.0358
98755W        W41668  16.867  34.187   9.883 -0.1899  0.1363 -0.4064
98756W        W41669  22.373   3.315   6.172 -0.1684 -0.2054 -0.2675
98757W        W41670   6.797  12.678  10.157 -0.1335  0.0902  0.0467
98758W        W41671  20.561  24.617   8.275 -0.1179  0.2304 -0.1513
98759W        W41672  12.402   3.266  10.707 -0.4479  0.2940 -0.1666
98760W        W41673  18.114  34.062  10.145 -0.1188 -0.2167 -0.4956
98761W        W41674  11.140  23.254  29.277 -0.1397  0.0696 -0.1172
98762W        W41675  15.492   3.802   6.454  0.0809  0.3421  0.0483
98763W        W41676  11.645   8.941  11.027 -0.4008  0.2122  0.1858
98764W        W41677  22.900   3.903   8.096 -0.3299 -0.2798  0.3178
98765W        W41678  19.539   0.555   0.730  0.2434  0.1228  0.0785
98766W        W41679  14.999   0.206   9.652  0.0694 -0.2151 -0.0147
98767W        W41680   7.080  31.590   2.370 -0.1843  0.0367  0.0877
98768W        W41681  12.063  31.853  11.788  0.1995 -0.1024 -0.0173
98769W        W41682  12.140   4.804   3.073  0.0805  0.1548  0.0825
98770W        W41683  16.510   0.368  28.513  0.0992 -0.1342  0.0468
98771W        W41684  26.934   7.659   5.264  0.1308 -0.0446  0.3635
98772W        W41685  26.333  25.044   5.889 -0.3350 -0.2547 -0.0597
98773W        W41686   9.152  23.506   9.001 -0.2139  0.0904  0.0437
98774W        W41687  16.019   4.663   9.833  0.3742  0.0409 -0.1513
98775W        W41688  20.051   3.140   5.107  0.3404 -0.1076 -0.3522
98776W        W41689  20.922   4.711   4.153  0.1716 -0.3942 -0.1057
98777W        W41690  14.135  29.962   9.400  0.0410 -0.2473 -0.0716
98778W        W41691  18.929   4.388   6.824  0.0121 -0.1040  0.0045
98779W        W41692  19.736   6.754   2.365  0.3324  0.0202 -0.2335
98780W        W41693   9.806  31.716   4.644 -0.0635  0.0761  0.2162
98781W        W41694  15.072  27.736   5.559  0.0062 -0.1232  0.0748
98782W        W41695  14.594   5.391  25.439  0.1039  0.2883 -0.1072
98783W        W41696   4.384  25.426   8.035 -0.1912 -0.3156  0.1984
98784W        W41697   9.093   5.225   4.736  0.2099 -0.0022 -0.0215
98785W        W41698  32.941  30.700   2.874 -0.1380 -0.1283 -0.0751
98786W        W41699  16.674   9.100   7.755  0.0078 -0.0515 -0.1811
98787W        W41700  21.120   4.693   4.780  0.1675  0.1307 -0.0355
98788W        W41701  16.625   6.356   7.400 -0.0451 -0.2260 -0.0712
98789W        W41702  27.216   1.308   4.453  0.0759 -0.2586  0.1701
98790W        W41703  21.247   8.175   8.485 -0.1212  0.1273  0.0247
98791W        W41704  12.531  29.820   9.832 -0.0825 -0.1291  0.2711
98792W        W41705  13.553  33.912   2.319  0.1113  0.0423 -0.2749
98793W        W41706  12.451  18.704   5.442 -0.1068  0.1634  0.0926
98794W        W41707   1.949  32.513   3.706 -0.3843  0.2137  0.0465
98795W        W41708  32.013   9.449   9.841  0.1171 -0.2768  0.0908
98796W        W41709  20.224  28.735   4.929 -0.0530  0.1503 -0.0812
98797W        W41710   6.575   6.057   8.939  0.2487  0.1451  0.0585
98798W        W41711  26.250  12.786   1.002 -0.0194 -0.0916 -0.1534
98799W        W41712  14.101  33.114   4.230  0.3336  0.1887  0.0707
98800W        W41713  20.933   0.269   7.288 -0.0048  0.3516 -0.1613
98801W        W41714  17.485   3.080   9.775 -0.0834 -0.1506  0.0025
98802W        W41715  33.525  32.905   2.526 -0.2046  0.2445  0.0750
98803W        W41716   6.882   0.071   1.322  0.1142 -0.0984  0.1088
98804W        W41717   8.125  31.269  25.782  0.2232  0.0147  0.0447
98805W        W41718  16.232   0.644   6.153 -0.1921  0.1659  0.2164
98806W        W41719  11.133  33.901   4.641  0.3416  0.0473  0.0456
98807W        W41720   9.865   2.142   9.994  0.1693  0.2233 -0.1005
98808W        W41721  16.078  32.622   6.412  0.2382  0.2979 -0.1149
98809W        W41722  17.819   3.944  10.135  0.3164 -0.0778  0.0431
98810W        W41723  21.630  29.409   7.969  0.2017  0.0428 -0.1675
98811W        W41724  16.132  28.738  23.926  0.0429 -0.2800 -0.3567
98812W        W41725  17.424  34.301   5.485  0.3268  0.1328  0.1173
98813W        W41726  12.788  31.110   8.963 -0.1614 -0.1192  0.2145
98814W        W41727  17.093   1.176   7.468 -0.1857 -0.2590 -0.0713
98815W        W41728  27.898  27.142  29.257  0.3694  0.3907  0.1959
98816W        W41729  29.298  25.575   5.507 -0.1033 -0.1330 -0.0535
98817W        W41730  19.035  33.031   5.541 -0.0128 -0.1156  0.2418
98818W        W41731   7.283   8.853   7.698 -0.5291 -0.3243 -0.4310
98819W        W41732  23.241   0.314   9.745 -0.2272 -0.2010 -0.2316
98820W        W41733  17.405  33.590   5.195 -0.1651  0.0521 -0.3353
98821W        W41734  11.537  33.153   9.079  0.1223  0.1356  0.2021
98822W        W41735  13.088  19.112   2.000  0.4304 -0.0308 -0.1425
98823W        W41736   3.497   1.058   4.288 -0.3662 -0.1591 -0.0294
98824W        W41737   9.483   2.762   5.067  0.1521  0.3472  0.2606
98825W        W41738  15.730   5.161   2.600 -0.0075  0.2787 -0.1156
98826W        W41739  16.896   6.077   5.183  0.2010 -0.2471 -0.3302
98827W        W41740  15.396  32.668   7.877  0.0052 -0.2872  0.2542
98828W        W41741   1.078  30.818   3.124  0.0799 -0.3788  0.2563
98829W        W41742  20.387  13.158   4.747  0.0761 -0.0132 -0.1074
98830W        W41743  12.711   2.588   6.878 -0.2683  0.2135 -0.0220
98831W        W41744  10.389   5.898   6.358  0.1497 -0.0729  0.1014
98832W        W41745  16.052  26.909   7.402  0.1004 -0.0604  0.2065
98833W        W41746  15.386   1.660  10.185 -0.1428 -0.1258  0.2899
98834W        W41747  17.148   1.253   9.909  0.1519 -0.0152  0.2061
98835W        W41748   9.555  12.237   9.004  0.0341  0.4023 -0.2243
98836W        W41749  11.292  33.611   9.956 -0.1186  0.0505 -0.0084
98837W        W41750  11.700  29.383  10.934  0.1708 -0.2049  0.5833
98838W        W41751  19.547  25.622   4.724  0.1815  0.1006  0.3916
98839W        W41752  14.001  28.633   9.213  0.1849  0.0567 -0.3122
98840W        W41753  26.570   9.282   9.256  0.1722 -0.2638 -0.0769
98841W        W41754   8.939   7.543   1.797 -0.1916  0.0364 -0.0446
98842W        W41755  31.266   3.675   8.789  0.4474  0.1450  0.0070
98843W        W41756  22.108  31.388   1.501  0.2881  0.2525  0.0899
98844W        W41757   8.820   6.713  10.365  0.0941 -0.2780 -0.2227
98845W        W41758  15.299  12.675  18.944 -0.1394 -0.0291 -0.0197
98846W        W41759  22.438  26.035   8.124 -0.0746  0.0466  0.2760
98847W        W41760  19.641   4.599   9.426  0.1225  0.2952 -0.0052
98848W        W41761   2.598   0.452   6.214 -0.1685 -0.0912 -0.0589
98849W        W41762  21.674  34.053   7.663  0.0294 -0.2578 -0.1645
98850W        W41763  10.352  33.914   6.706 -0.2685  0.1407  0.2181
98851W        W41764  20.556   0.101   8.535  0.3467  0.2919 -0.1615
98852W        W41765  20.792   1.189   6.802 -0.3451  0.1396  0.1051
98853W        W41766  19.529   8.420   2.082 -0.0204  0.2988 -0.3017
98854W        W41767  20.126  26.125  25.321  0.1274 -0.3016  0.1201
98855W        W41768  16.418  31.496  27.759  0.1652 -0.1851 -0.0737
98856W        W41769  22.096   4.090  10.031 -0.0704  0.0299  0.1716
98857W        W41770  10.818  30.221   1.041  0.1304  0.3233 -0.0780
98858W        W41771  23.205   6.051   7.960  0.3266  0.2011  0.3293
98859W        W41772  10.529   7.483   9.994  0.2290 -0.1062  0.0136
98860W        W41773   9.880   2.045   2.736 -0.0043 -0.0784 -0.1159
98861W        W41774  22.191   3.224   7.306 -0.2056 -0.0899 -0.1359
98862W        W41775  13.513   4.046  10.030  0.3609 -0.0701  0.1705
98863W        W41776   3.829   6.916   3.779  0.1230 -0.2688  0.1542
98864W        W41777  16.942  30.641   3.558 -0.1645 -0.0136 -0.0662
98865W        W41778  27.961   0.716   9.353  0.1447 -0.0192 -0.1372
98866W        W41779  18.231  29.716   2.180  0.1151  0.1270  0.0825
98867W        W41780  23.524   3.784   6.819  0.2865 -0.2877 -0.2556
98868W        W41781  22.849   1.389  27.868 -0.2752 -0.5116  0.0572
98869W        W41782  19.306   4.077   6.184  0.4750 -0.0735  0.1579
98870W        W41783  23.709  32.627   4.742 -0.2159 -0.1879 -0.2018
98871W        W41784  21.254  29.975   9.153 -0.1495 -0.2099  0.0742
98872W        W41785  12.713   2.240  12.465 -0.0385  0.2103  0.0550
98873W        W41786  15.861  32.635  10.676 -0.2871  0.0007 -0.0455
98874W        W41787  21.122  11.427   7.039  0.3585 -0.2438  0.1187
98875W        W41788  18.597  14.545   8.684  0.0147  0.2189 -0.2008
98876W        W41789  17.023  23.344   0.710 -0.0584 -0.0508 -0.0314
98877W        W41790  16.988  33.372   8.249  0.3244  0.0528 -0.1856
98878W        W41791  13.105   4.012  10.913  0.0826  0.0914 -0.1704
98879W        W41792  12.132   8.478   3.249 -0.1990  0.4412  0.1873
98880W        W41793  21.072  20.240  20.699 -0.1662 -0.1174 -0.4342
98881W        W41794  15.059   4.748   7.577 -0.1140  0.0531  0.1053
98882W        W41795  18.620  31.377   6.198  0.1587 -0.0974 -0.0809
98883W        W41796  23.859   2.436   6.638 -0.1870  0.0286 -0.1818
98884W        W41797  13.925   9.380  28.469  0.2455 -0.3720 -0.1591
98885W        W41798  16.226  10.109   7.900 -0.0097 -0.0633 -0.0369
98886W        W41799   4.021   8.603   3.865  0.0629 -0.3590  0.0229
98887W        W41800  13.128   1.506   0.647 -0.1006 -0.4247 -0.0795
98888W        W41801  14.629   1.446   1.179 -0.1406  0.0865  0.1258
98889W        W41802  20.607   0.337   1.124 -0.0488  0.1469  0.0284
98890W        W41803  12.403  33.220   3.366  0.0201  0.1495 -0.1447
98891W        W41804   8.284  28.327  10.277  0.0620  0.2054  0.1921
98892W        W41805   8.858  33.524   8.937 -0.0264 -0.0533 -0.3670
98893W        W41806   3.254  29.684   4.612 -0.1514 -0.0657 -0.0216
98894W        W41807  21.519  30.117   6.854  0.0553 -0.2231 -0.0356
98895W        W41808  10.697  33.665   3.451 -0.0595 -0.4450 -0.2360
98896W        W41809  19.423   6.885   4.018  0.2042  0.0498  0.0453
98897W        W41810  27.052  27.230   6.725 -0.0819  0.4111  0.2328
98898W        W41811  27.608  20.435   9.160 -0.0638 -0.4524  0.0554
98899W        W41812  14.053   0.256   7.404  0.1147  0.2419 -0.1839
98900W        W41813  15.959   4.120  11.527 -0.2318 -0.3925 -0.0549
98901W        W41814  20.572  11.393   7.104  0.1065 -0.2352 -0.1228
98902W        W41815  11.159  27.938   3.131 -0.0534  0.2738  0.0970
98903W        W41816  21.928   9.222   9.326 -0.0119  0.2135 -0.1692
98904W        W41817  15.620   2.727   9.450 -0.1122  0.1702 -0.1049
98905W        W41818  20.253  32.625   3.822 -0.1630  0.0451 -0.0476
98906W        W41819   9.962   9.645   7.075 -0.0310  0.3596  0.2513
98907W        W41820  23.902   6.326   6.967  0.0637  0.0607 -0.4387
98908W        W41821  13.175  31.261   9.255 -0.1166 -0.2228 -0.1451
98909W        W41822  12.856   2.534   8.978 -0.0044  0.1167 -0.2365
98910W        W41823  20.200  34.136   9.246  0.1747  0.4108  0.0863
98911W        W41824  13.024  12.806   8.102 -0.2882 -0.0331 -0.1411
98912W        W41825  18.183  33.523   9.561 -0.1564  0.1603  0.0270
98913W        W41826  14.261   0.591   1.846  0.1386  0.0394 -0.0364
98914W        W41827  13.816   4.990  26.492  0.1982  0.1327 -0.2460
98915W        W41828  25.535   6.514   1.194 -0.0465 -0.0737  0.0938
98916W        W41829  15.100  26.889   7.097 -0.1366 -0.3726 -0.0591
98917W        W41830  18.994  29.558   8.698 -0.1642 -0.2991  0.0128
98918W        W41831  30.278  27.581   7.811  0.2178 -0.0017  0.0545
98919W        W41832  21.611  31.008   5.475 -0.2373 -0.1630  0.3745
98920W        W41833  14.472   2.217   9.494 -0.0428  0.4179 -0.2412
98921W        W41834  17.806  20.037  26.267  0.1527  0.0801 -0.3472
98922W        W41835  15.109  22.413   8.860  0.1207 -0.1244  0.3403
98923W        W41836  18.468   9.793   7.476 -0.0948 -0.1648  0.2893
98924W        W41837  20.534  22.454   0.200  0.0517 -0.3112 -0.2875
98925W        W41838  28.053  31.738   7.973  0.1101  0.2759 -0.2843
98926W        W41839  13.630   5.297   3.807  0.2746  0.0359  0.3257
98927W        W41840   6.773   8.479  10.519  0.1956  0.2311 -0.0721
98928W        W41841  14.510   4.392   7.040 -0.1594  0.1514 -0.0873
98929W        W41842  19.046  12.517   6.384  0.2774  0.0095 -0.0434
98930W        W41843  20.459  25.700  27.507  0.0076  0.4636 -0.2701
98931W        W41844  18.460   7.753   4.182  0.1455  0.3019  0.0329
98932W        W41845   8.718  28.842   2.374  0.1178  0.0177 -0.1899
98933W        W41846  13.536  22.042  26.186 -0.2836 -0.0258  0.2583
98934W        W41847   5.216  33.153  27.975  0.0661 -0.1707 -0.1753
98935W        W41848  11.059  30.479   5.681  0.0220  0.0326 -0.2513
98936W        W41849  11.017  27.093  11.624 -0.1758  0.1095  0.2534
98937W        W41850   4.651   2.207  11.105 -0.1361 -0.1290 -0.0940
98938W        W41851  20.511   6.082   0.100 -0.2806 -0.0118 -0.0251
98939W        W41852   7.294   0.735  11.184  0.1942  0.1943 -0.2031
98940W        W41853  23.653  26.485   8.667 -0.1626  0.2536 -0.2360
98941W        W41854  12.126  28.149   2.116  0.1474 -0.1394  0.3132
98942W        W41855  16.583  27.608  29.682  0.0329  0.0161 -0.1042
98943W        W41856  22.582  14.193   6.535  0.1460  0.0275 -0.4897
98944W        W41857  14.445   7.113   1.128 -0.0754 -0.0843  0.1288
98945W        W41858  17.511  28.962   5.034 -0.0892 -0.1761  0.1139
98946W        W41859  21.331  29.371   4.560 -0.1578 -0.0301 -0.0457
98947W        W41860  10.624   5.810  12.918  0.2495  0.0694 -0.1230
98948W        W41861  20.688   5.357   9.906 -0.0281  0.0865 -0.0228
98949W        W41862   3.690   1.300   0.260 -0.1701  0.1019 -0.1523
98950W        W41863  17.609  32.712   8.404  0.0217 -0.0972 -0.1830
98951W        W41864  24.838  34.384   9.694  0.3537 -0.3647  0.2140
98952W        W41865  15.637   1.913   8.326  0.2005 -0.0052  0.0272
98953W        W41866  10.545   5.291   3.044 -0.0389 -0.1155 -0.3346
98954W        W41867  10.385  29.213  10.224 -0.3073 -0.1884  0.1648
98955W        W41868  17.967  25.249   9.253  0.1402 -0.0817  0.1590
98956W        W41869  13.041   4.695   0.985  0.1063 -0.0650  0.1562
98957W        W41870  20.722  32.278   1.660 -0.0976 -0.0799  0.1824
98958W        W41871  16.909   8.968   7.188  0.0076 -0.1575 -0.1069
98959W        W41872   7.286   3.129   9.728 -0.1099  0.0850 -0.0846
98960W        W41873  11.483   8.500  10.779  0.0249 -0.2029 -0.1553
98961W        W41874  11.336  31.269   1.171 -0.1725  0.2157 -0.3463
98962W        W41875  14.901   1.205   9.590  0.0517  0.1779  0.3406
98963W        W41876   8.172  31.834   9.938  0.0866 -0.1631  0.2583
98964W        W41877  15.579   6.716  11.522 -0.2498 -0.1256  0.0798
98965W        W41878  13.192   3.854   8.815  0.0187 -0.1232 -0.0978
98966W        W41879  13.355   2.800  10.136  0.0428 -0.1040  0.1987
98967W        W41880  14.572   5.056   0.120  0.1833 -0.2129 -0.1452
98968W        W41881  24.853   5.024   3.883  0.0808  0.0374  0.0225
98969W        W41882  27.658   5.900   8.617 -0.1527 -0.0122  0.0139
98970W        W41883  19.176  10.065   8.598  0.1072  0.0564  0.0621
98971W        W41884  14.843   3.199  10.766  0.1465  0.0278  0.0429
98972W        W41885   6.228  33.039  27.826  0.4004 -0.2363 -0.1135
98973W        W41886   7.823   6.264   9.500  0.3186  0.0477  0.1388
98974W        W41887   8.972  25.589  27.222 -0.0477  0.0687 -0.1001
98975W        W41888   8.946   0.969  10.102 -0.1201 -0.0230 -0.0279
98976W        W41889   7.143  26.641  25.259  0.0247 -0.1817 -0.0220
98977W        W41890  12.660  30.943   6.718  0.3102  0.0135 -0.0769
98978W        W41891  12.897   3.256  11.824 -0.0482 -0.1668  0.0520
98979W        W41892  17.652   3.187   4.042  0.0108 -0.0349  0.2841
98980W        W41893  15.940   5.280   4.105 -0.2414  0.1060 -0.3043
98981W        W41894  19.445  33.802  10.112 -0.2983  0.0240  0.0136
98982W        W41895  13.470   0.392   8.072 -0.1354 -0.1839 -0.2101
98983W        W41896   7.422  29.288   4.799  0.1140 -0.2313 -0.0655
98984W        W41897   0.701  34.041   8.089 -0.1172  0.1273  0.2749
98985W        W41898  22.412   6.356   7.773 -0.0338 -0.0011 -0.0540
98986W        W41899   3.021  32.336  28.638 -0.2939  0.0031 -0.0141
98987W        W41900   7.821   8.674   9.573 -0.2561  0.2103 -0.1303
98988W        W41901   5.972  34.357  28.510 -0.0719 -0.2309  0.1232
98989W        W41902  18.108   1.427  10.065  0.0716  0.1624  0.0965
98990W        W41903   7.856  34.227   9.095 -0.0577  0.1401 -0.2486
98991W        W41904   8.821  30.912   5.678  0.0181 -0.0525 -0.1076
98992W        W41905  16.583   0.419   9.291 -0.0494  0.0191 -0.2158
98993W        W41906  13.651   6.689   2.774  0.0633  0.2534 -0.1357
98994W        W41907  10.636  25.052   8.504 -0.0560 -0.0331  0.0670
98995W        W41908  23.017   4.887  10.695 -0.1773 -0.1784  0.1910
98996W        W41909  16.189  27.853   0.586 -0.2380 -0.1188  0.1497
98997W        W41910   3.060   2.023  12.444  0.0279 -0.0630 -0.0481
98998W        W41911   8.702   2.972   8.828  0.1292  0.1055  0.3105
98999W        W41912  33.504  24.256   8.917  0.0639  0.0230  0.0896
99000W        W41913   4.390  20.907   6.560 -0.1451  0.1895  0.2262
99001W        W41914  19.765  27.921   8.456 -0.0520 -0.0014 -0.0143
99002W        W41915  15.605  29.329   3.332 -0.2986 -0.0416 -0.2284
99003W        W41916  24.291   3.534   8.744 -0.2098 -0.2195  0.0744
99004W        W41917   6.750   9.762  11.301  0.0208 -0.0261 -0.0062
99005W        W41918  14.339  29.226  10.467 -0.0086 -0.0191 -0.0685
99006W        W41919  24.046   3.550   6.069 -0.0198  0.3542  0.3383
99007W        W41920   9.989   2.363   6.766 -0.1824 -0.0952 -0.0365
99008W        W41921  26.557   9.376  25.067 -0.1989 -0.0718 -0.1329
99009W        W41922  13.099   5.378   3.976 -0.0287  0.0631 -0.1175
99010W        W41923  15.429   0.609   7.652  0.0615  0.0178  0.0924
99011W        W41924   8.823   4.689   7.066  0.1597  0.0331  0.2424
99012W        W41925  13.973   0.359  27.812  0.2450 -0.2843  0.0582
99013W        W41926  14.102   7.865   4.509 -0.3572  0.2246  0.1048
99014W        W41927   8.424   5.146   8.144  0.1554  0.0462  0.0328
99015W        W41928  18.793   5.134  25.167  0.1041  0.0627  0.1132
99016W        W41929  21.970  29.958   8.081 -0.0610  0.1415 -0.0497
99017W        W41930  23.806   4.932   9.898  0.1759  0.0810 -0.0011
99018W        W41931  24.402   0.568   9.098 -0.2002  0.0446  0.1541
99019W        W41932  10.983  29.788  28.849 -0.1180 -0.3105  0.1201
99020W        W41933  16.882  26.849   4.595  0.1570  0.0025 -0.2996
99021W        W41934  14.482   6.669   4.896  0.0763 -0.1725 -0.0453
99022W        W41935   5.181   5.738  12.256 -0.2165 -0.2146  0.2191
99023W        W41936   4.271  23.227   7.589 -0.1210 -0.1281 -0.0340
99024W        W41937  23.260   2.183   7.157  0.0860 -0.1089  0.1290
99025W        W41938  32.519  10.047   5.771  0.2087  0.3160  0.2516
99026W        W41939  17.261   5.888  10.033  0.0539 -0.0568  0.2436
99027W        W41940  11.070   2.693  25.308 -0.2827 -0.2249  0.0938
99028W        W41941  12.675   0.222   5.445 -0.1160  0.2648 -0.0458
99029W        W41942  21.010   1.784   5.708  0.0308  0.0897  0.5682
99030W        W41943  22.326  28.302   6.802 -0.2609 -0.3343  0.1673
99031W        W41944  12.191  33.446   7.684  0.0157  0.0931  0.2519
99032W        W41945  13.338   7.588  22.634  0.1535  0.2149  0.1220
99033W        W41946   9.402   0.689   1.144 -0.0251  0.4262  0.2222
99034W        W41947  15.757   9.165  27.636  0.0219 -0.1018  0.0726
99035W        W41948  23.060  29.868   1.909  0.1601 -0.1738 -0.0890
99036W        W41949  18.253  14.568  28.814 -0.1458 -0.0424  0.1064
99037W        W41950  25.225  30.503   5.006 -0.0377  0.0426  0.0215
99038W        W41951  11.446  12.530   2.533  0.0091 -0.0854 -0.0549
99039W        W41952  15.180   8.480   7.025 -0.0522  0.1872  0.0017
99040W        W41953  17.695  15.476   4.925 -0.3175  0.0849  0.1022
99041W        W41954  15.854  31.147   1.613  0.1873 -0.2187 -0.1009
99042W        W41955  18.508  28.359   2.095 -0.1624 -0.0780 -0.1524
99043W        W41956  13.119  12.629   1.064  0.4045 -0.0581 -0.0041
99044W        W41957  10.990  19.919  23.255 -0.1642  0.1713 -0.1291
99045W        W41958  11.637   3.933   4.012 -0.0486  0.1666 -0.1229
99046W        W41959  14.967   7.179   8.119 -0.1474  0.2682  0.2158
99047W        W41960  15.565  15.725   0.374 -0.5591 -0.1846 -0.2074
99048W        W41961  22.821   5.694  19.910  0.3468 -0.1479 -0.1479
99049W        W41962   9.353   5.440   5.788 -0.1295  0.0414 -0.2385
99050W        W41963  13.288  11.659   4.973 -0.1282 -0.2459 -0.0993
99051W        W41964  11.201  33.578  20.662 -0.0831  0.1745 -0.0055
99052W        W41965  15.649  12.154  24.621 -0.1677 -0.2335  0.0185
99053W        W41966  13.530  10.705   7.285  0.0382 -0.3517  0.0166
99054W        W41967  18.499  26.422   6.049 -0.0256  0.0576  0.0225
99055W        W41968  17.556  32.435   2.208 -0.0208 -0.2416  0.1561
99056W        W41969  15.497   6.154   9.929 -0.1743  0.0665 -0.1244
99057W        W41970  11.300   4.915  28.406  0.3524 -0.1087  0.3486
99058W        W41971  18.726   5.139   1.215  0.0289 -0.0600  0.3009
99059W        W41972   7.230  13.023  15.444 -0.0981 -0.1054  0.1455
99060W        W41973  33.400  17.909   1.078 -0.2254  0.0119 -0.0396
99061W        W41974  20.021  32.372  24.281 -0.1478 -0.1858  0.1335
99062W        W41975  14.990  12.134   6.769 -0.0307 -0.1118 -0.0368
99063W        W41976  23.995  15.616  26.570 -0.1980 -0.2301 -0.3711
99064W        W41977  30.439  15.082   1.167  0.0003  0.1050  0.0234
99065W        W41978  20.909   3.182   7.576  0.0097  0.0159 -0.1531
99066W        W41979  13.007   2.462  12.011  0.1376 -0.1647  0.0854
99067W        W41980  10.840  28.362   3.207  0.0341  0.2655  0.0079
99068W        W41981  10.186  14.048  27.496 -0.2367 -0.2336  0.1648
99069W        W41982  12.835  11.346   7.058 -0.0365  0.0655 -0.0777
99070W        W41983  10.928   3.820   7.311  0.0409  0.0887  0.0162
99071W        W41984  10.751  10.159   9.898  0.2323  0.0665  0.1336
99072W        W41985   3.741   0.627   4.823  0.2168  0.0962  0.1271
99073W        W41986  12.527   5.983  28.010 -0.1938  0.1187  0.0715
99074W        W41987   9.204  33.123   7.793 -0.3125 -0.1564 -0.0932
99075W        W41988  13.333   0.143  29.382 -0.1267  0.2585  0.1294
99076W        W41989   6.251   1.320  25.996  0.0443 -0.0619  0.0323
99077W        W41990  22.646   8.458  24.881  0.1779 -0.0526 -0.1043
99078W        W41991   4.887   9.046   2.426 -0.2310 -0.0973 -0.1085
99079W        W41992  23.511   8.829   5.840 -0.4320  0.0256 -0.0058
99080W        W41993  13.244  32.178   5.256 -0.2524 -0.1304 -0.2250
99081W        W41994   0.428  22.153   3.959  0.1572 -0.1728  0.2421
99082W        W41995  21.604   8.908   2.992 -0.2344 -0.0259  0.1245
99083W        W41996  13.186  19.568  27.181  0.1307 -0.2153  0.1405
99084W        W41997  22.548   1.836   8.015  0.0191  0.0193 -0.0696
99085W        W41998  14.772  16.395   3.717 -0.0329 -0.3019  0.0020
99086W        W41999   3.590   0.285  26.354  0.0510  0.0943 -0.1990
99087W        W42000   8.530   5.750   9.959 -0.0106 -0.4597  0.1867
99088W        W42001  17.805   7.995   6.374  0.1544 -0.0098 -0.3507
99089W        W42002  22.926   1.343  21.402 -0.2263  0.1418  0.2206
99090W        W42003  16.904   2.116  25.265  0.2377  0.2124  0.3301
99091W        W42004   2.035   4.841  28.214 -0.1593  0.1363  0.4598
99092W        W42005  10.954   7.506   9.771 -0.2416 -0.1891 -0.1108
99093W        W42006   8.389   3.991   2.487  0.0347  0.0444 -0.1632
99094W        W42007  18.708   1.537  21.489 -0.2306 -0.0820  0.1925
99095W        W42008  28.264   8.153   5.110  0.1250  0.1726 -0.0639
99096W        W42009   6.498   2.451  18.731 -0.2322 -0.0536 -0.1427
99097W        W42010  14.230  27.118   2.009 -0.1943 -0.2087  0.0638
99098W        W42011   8.590  31.890  23.743  0.2283  0.2230  0.3883
99099W        W42012  14.821  34.317   3.768  0.1012  0.0715 -0.0475
99100W        W42013  17.104  30.295   2.687 -0.0181 -0.1090  0.0929
99101W        W42014  17.493  12.077  29.111 -0.0165 -0.0152 -0.0296
99102W        W42015  27.496  29.344   8.461 -0.1689  0.1118 -0.0588
99103W        W42016  16.765   1.895   9.913 -0.0660 -0.2144  0.3226
99104W        W42017  18.201   3.320  25.842  0.1248  0.1971 -0.1229
99105W        W42018  16.322   9.479  28.532 -0.1884  0.0041 -0.2038
99106W        W42019  17.372   3.813   2.531 -0.1003 -0.1602  0.0196
99107W        W42020  15.826   0.957   7.500 -0.3459 -0.1140  0.1253
99108W        W42021  13.290   4.512  24.550 -0.1111  0.1616  0.1876
99109W        W42022   7.140   0.290   3.940  0.1012  0.2577 -0.4960
99110W        W42023  34.451   4.963  25.447 -0.3315  0.0525 -0.0958
99111W        W42024  17.435  32.115  26.857  0.2209  0.0451  0.1379
99112W        W42025  10.878  33.258   5.152 -0.0096  0.0103 -0.0280
99113W        W42026  21.353  14.154   0.357  0.0056  0.1772  0.2526
99114W        W42027  13.943  14.294  26.585 -0.2190 -0.1777  0.1254
99115W        W42028  20.018   7.404  28.117  0.0923 -0.1834  0.3178
99116W        W42029  20.789   1.095   7.831 -0.1053 -0.1556  0.0118
99117W        W42030  24.633  11.152   6.815 -0.0786 -0.2783 -0.2295
99118W        W42031   7.886  20.396  25.523  0.2652 -0.1020  0.1371
99119W        W42032  12.380   7.634  25.458 -0.1075  0.0278 -0.0950
99120W        W42033  20.692   6.518  20.792  0.3307  0.1914 -0.0428
99121W        W42034  30.094   7.783   7.248  0.2529 -0.0882  0.0391
99122W        W42035  16.837   2.958   8.387  0.1040 -0.1999  0.2889
99123W        W42036   7.297   8.046   1.718  0.1636 -0.3637 -0.2699
99124W        W42037  14.213   2.260   0.965  0.2464 -0.1655 -0.0262
99125W        W42038  10.332  19.108  25.829 -0.0224 -0.0986 -0.0881
99126W        W42039  20.802   8.309  21.002  0.1355 -0.0517 -0.2143
99127W        W42040  12.925   4.817  23.009  0.1014  0.2769 -0.1671
99128W        W42041  19.444   0.903  22.040 -0.0085  0.4693  0.0210
99129W        W42042   4.449   0.502  28.092 -0.2906 -0.1668  0.1435
99130W        W42043  24.114  12.108   0.668  0.1876 -0.0918  0.1200
99131W        W42044  12.688   6.468   8.087 -0.1364  0.0435  0.0550
99132W        W42045   7.613   4.188   3.066  0.0897  0.2242  0.4615
99133W        W42046  27.944   9.564  22.413 -0.1722 -0.3404  0.1800
99134W        W42047   8.712   2.877  13.996 -0.2434  0.1807  0.0549
99135W        W42048   1.286  26.582  18.873  0.3073  0.1878 -0.1524
99136W        W42049  13.375  14.441   1.743 -0.0194 -0.1966 -0.2356
99137W        W42050  29.204   5.042   5.457  0.0196  0.0936  0.0999
99138W        W42051   9.816   2.319   1.638  0.1116 -0.1081  0.1113
99139W        W42052  18.928  13.803   4.786  0.3412  0.1881  0.1354
99140W        W42053   6.815  16.328   5.782 -0.0685  0.1100 -0.1622
99141W        W42054  20.857  12.883   4.666 -0.1414  0.0306 -0.0853
99142W        W42055  22.728   0.904   4.528 -0.1835  0.2533 -0.2764
99143W        W42056  14.811  31.500   3.062  0.2683 -0.1450 -0.3465
99144W        W42057  25.233   0.872   0.876 -0.3422  0.1301  0.0282
99145W        W42058  21.563  19.621  14.058 -0.3165  0.2588 -0.1787
99146W        W42059  13.014  32.363   9.058 -0.2180  0.4112 -0.0602
99147W        W42060  22.032   2.359   4.717 -0.0703  0.0577  0.0635
99148W        W42061   7.802   2.463  24.086  0.0553 -0.1702  0.3397
99149W        W42062  17.103   1.009   5.629  0.3506 -0.0262 -0.1371
99150W        W42063  14.712   1.765   8.157 -0.2281  0.1137 -0.2097
99151W        W42064  16.418   4.220   2.058 -0.2423 -0.0012 -0.1897
99152W        W42065  16.804  33.903  10.691  0.1356  0.2036  0.3660
99153W        W42066  12.969  28.594  23.266  0.2245  0.4272  0.5465
99154W        W42067  23.746   7.348   4.672  0.2058  0.0393 -0.1163
99155W        W42068  16.714  29.267  26.252 -0.0098 -0.0777 -0.0461
99156W        W42069  24.093   1.305  21.877 -0.0886  0.0898 -0.1602
99157W        W42070  26.810  27.805  22.840 -0.1747 -0.0481 -0.2639
99158W        W42071  14.844   1.868  28.061  0.0759  0.1532  0.1804
99159W        W42072  10.019   4.259   2.973 -0.1423 -0.0477 -0.0054
99160W        W42073   7.049  32.604   4.307  0.3688  0.0323 -0.0274
99161W        W42074  20.551  14.862  21.725 -0.4147  0.1402 -0.1131
99162W        W42075  22.294   7.650   2.948 -0.0482 -0.0371  0.1167
99163W        W42076  23.240   9.564  18.514 -0.1328 -0.0029 -0.0385
99164W        W42077  10.316  23.006  22.732 -0.0279 -0.0615  0.0932
99165W        W42078   3.195  31.199   1.308  0.0622  0.0758 -0.2829
99166W        W42079  15.648   4.769  23.946 -0.0072 -0.0666  0.0332
99167W        W42080  12.697  25.659   4.971  0.1835 -0.2448  0.1597
99168W        W42081  12.373   3.978  29.264 -0.0645 -0.1208 -0.0740
99169W        W42082  13.987  33.411  25.275  0.0900 -0.2135  0.1284
99170W        W42083  17.122  15.483  22.640  0.1229  0.0852  0.2860
99171W        W42084  15.917  15.825  22.346  0.3492 -0.2154 -0.0499
99172W        W42085  16.305  11.389   4.042 -0.0098  0.0320  0.1283
99173W        W42086  18.746   2.272   5.307 -0.0930 -0.1156  0.1007
99174W        W42087  20.374   0.472  23.409  0.1451  0.0798 -0.0864
99175W        W42088  18.482  28.005   9.204 -0.2177 -0.2053  0.0314
99176W        W42089   6.840   3.510   4.873  0.2286 -0.0571 -0.2270
99177W        W42090  15.576   7.586  28.414  0.0760  0.2829  0.0153
99178W        W42091   8.405  14.071  15.588 -0.1717  0.1276 -0.2058
99179W        W42092  15.518   9.536   7.217 -0.1827 -0.3054 -0.1885
99180W        W42093   6.823  29.878  22.054  0.0188  0.1976  0.0321
99181W        W42094  17.031   6.963   6.167  0.1532 -0.0433  0.3343
99182W        W42095  17.045   6.165   8.914  0.1402  0.3590 -0.0859
99183W        W42096  24.085   4.460   6.639  0.1318  0.1456  0.2366
99184W        W42097   5.168  32.081   3.473  0.0092 -0.1607 -0.3503
99185W        W42098  24.401   7.484  24.188 -0.0961 -0.0014 -0.2820
99186W        W42099  16.465  10.506  25.683  0.2673  0.0193 -0.1997
99187W        W42100  16.367  11.005  25.643 -0.0577  0.0906  0.0823
99188W        W42101  17.966   5.409   6.470 -0.1392  0.1393  0.0467
99189W        W42102   6.767   6.127   2.576 -0.2163  0.1430 -0.2150
99190W        W42103  14.100   5.718   0.332 -0.1961  0.2179 -0.3734
99191W        W42104  18.455   7.288   0.674 -0.4162 -0.0507 -0.1963
99192W        W42105  22.657   9.687  26.374 -0.5981 -0.3653 -0.5614
99193W        W42106  17.178   1.360   1.505  0.1341 -0.0546 -0.0364
99194W        W42107  11.459   8.316   1.464  0.1248  0.1196 -0.0372
99195W        W42108  15.288  10.823  27.594 -0.1980 -0.2516 -0.0816
99196W        W42109   4.022   7.149   0.748 -0.5614 -0.0187 -0.2401
99197W        W42110  20.815   7.817   1.254 -0.0371  0.2945 -0.0393
99198W        W42111  16.598   7.743   7.856 -0.2677 -0.2629 -0.1506
99199W        W42112   9.525  33.988  28.223  0.0169  0.0260  0.3183
99200W        W42113  16.576   7.883  21.081 -0.0802 -0.2251 -0.1500
99201W        W42114   8.474  11.114  28.240 -0.3057 -0.2142  0.2137
99202W        W42115  14.766   2.097   6.769 -0.3932 -0.2065 -0.1431
99203W        W42116  16.846   5.189  24.647  0.0261  0.0115 -0.0542
99204W        W42117  19.156   4.415   1.792  0.1411 -0.2219  0.3488
99205W        W42118   8.921   4.774  28.702 -0.1325  0.0988 -0.1028
99206W        W42119  13.097  22.022  23.328  0.0076  0.0960  0.0340
99207W        W42120  25.218   3.318   7.581 -0.2861  0.0073 -0.1176
99208W        W42121  16.922   0.638  28.431 -0.0005 -0.2086 -0.1442
99209W        W42122  13.459  31.666  18.823  0.2141 -0.3043 -0.0899
99210W        W42123  12.306   4.166   2.892 -0.0792 -0.2704  0.0852
99211W        W42124  18.154   0.910  10.800 -0.1648 -0.1550 -0.0409
99212W        W42125  25.378  13.690   0.807  0.1941  0.0884  0.2793
99213W        W42126  20.530   8.114   2.209  0.0160  0.2918 -0.0626
99214W        W42127  28.457   4.262   7.750 -0.1524  0.3466 -0.0852
99215W        W42128  12.434  25.632   0.831 -0.0035  0.2028 -0.1285
99216W        W42129   3.147  32.935  21.206 -0.1482  0.0444 -0.1384
99217W        W42130  15.506  10.198   7.252 -0.2357 -0.1509 -0.1081
99218W        W42131  17.341   4.630   4.221 -0.0201  0.1144 -0.2136
99219W        W42132  16.953   6.261   0.348  0.1890 -0.0407  0.2262
99220W        W42133  19.507   3.638   7.400 -0.2818 -0.1243 -0.1008
99221W        W42134   3.310  10.923  27.570 -0.0716 -0.2742  0.0485
99222W        W42135  11.192  29.934  20.551 -0.2997  0.0947 -0.1717
99223W        W42136  29.820  12.101   7.473  0.0894  0.2018 -0.1122
99224W        W42137   4.445   0.818  18.315 -0.1313 -0.1233 -0.0222
99225W        W42138  14.658  33.853   3.015 -0.1925  0.0574  0.2364
99226W        W42139  15.052  34.138   6.765 -0.0040  0.0138 -0.0344
99227W        W42140  19.311   8.937   7.906 -0.1814 -0.1078 -0.2257
99228W        W42141  11.669   5.514  11.149 -0.0960 -0.0710  0.2293
99229W        W42142   9.266   5.581  28.598 -0.1759  0.1100 -0.1887
99230W        W42143  25.318   6.344  27.265  0.1089  0.2617  0.0346
99231W        W42144   9.186   0.720   2.818 -0.0881 -0.1533  0.0958
99232W        W42145  16.626  10.992  27.064 -0.2626 -0.0689 -0.0697
99233W        W42146  18.363   0.329   1.597 -0.0560  0.1021  0.2649
99234W        W42147  19.475  20.311   1.261 -0.0211  0.1755  0.0107
99235W        W42148  33.950  31.254  18.866  0.0184  0.1431  0.2264
99236W        W42149  33.844   1.315  10.330 -0.2438 -0.0764 -0.0234
99237W        W42150  12.644  27.091   2.829  0.4659 -0.2007 -0.0185
99238W        W42151  15.383   4.346   0.512 -0.0020 -0.0340  0.0124
99239W        W42152  17.390  12.695   4.782  0.0457 -0.2819 -0.0240
99240W        W42153  24.015   9.978  19.028  0.1223 -0.0323  0.1522
99241W        W42154  13.292  31.537   7.019  0.1381  0.0950 -0.0000
99242W        W42155  14.889  34.281   0.800  0.1882  0.0496 -0.0923
99243W        W42156   7.897   0.859   5.566  0.0822  0.0284 -0.1338
99244W        W42157  17.367   7.223   0.150 -0.1495 -0.1228  0.1868
99245W        W42158  11.182   0.803   6.636  0.1552 -0.0645  0.1940
99246W        W42159  31.084   3.149  29.690  0.3154 -0.2327 -0.3970
99247W        W42160  30.734   7.038   1.543 -0.0844 -0.0682 -0.0835
99248W        W42161  12.140   3.700   4.259 -0.0380 -0.0771 -0.0085
99249W        W42162  11.857   6.369  17.899  0.1588 -0.4384 -0.1627
99250W        W42163  17.429  32.789  22.999 -0.1078  0.1551  0.0178
99251W        W42164  22.821   0.457   9.550 -0.1238 -0.0140  0.2083
99252W        W42165   6.868   9.320   7.767 -0.4927 -0.1654 -0.1766
99253W        W42166  17.562   7.062  19.735 -0.0939  0.3017 -0.2171
99254W        W42167   9.299  33.839   2.750  0.3705 -0.0861 -0.1347
99255W        W42168   5.376   3.021  12.955 -0.1072 -0.3148 -0.0236
99256W        W42169  24.906  13.431   3.493 -0.1041 -0.0129 -0.1479
99257W        W42170   6.457  12.140   9.323 -0.2282  0.0857  0.1941
99258W        W42171   5.583  31.140  23.054 -0.1266 -0.0830  0.0404
99259W        W42172  21.265  14.809  20.353  0.1627  0.0659 -0.1424
99260W        W42173  14.504  32.119   5.213 -0.0804 -0.0619  0.3433
99261W        W42174  27.270   6.227   5.866  0.2425 -0.0109 -0.1402
99262W        W42175  11.481   2.741   1.742  0.0348 -0.4159  0.3465
99263W        W42176  22.575   2.057   1.618 -0.0965 -0.0925  0.3859
99264W        W42177  10.891  11.536   6.054  0.1144  0.1862 -0.1988
99265W        W42178  21.366   1.010   5.885 -0.0671  0.4058 -0.0296
99266W        W42179  21.098   3.674  27.443 -0.0691 -0.1820 -0.0550
99267W        W42180  27.361   7.376   5.121 -0.0196 -0.2379  0.0121
99268W        W42181  18.095  31.655  17.200  0.1892  0.1170 -0.3695
99269W        W42182  27.664   9.720   1.167 -0.1039 -0.2136  0.0522
99270W        W42183   7.591  11.563  26.718 -0.1472  0.0287  0.2230
99271W        W42184  14.156  12.711   3.720 -0.2131 -0.0946 -0.0199
99272W        W42185  13.957   2.722  23.220  0.1262 -0.0242 -0.2783
99273W        W42186   1.669   3.958  21.882 -0.1430 -0.0626  0.2205
99274W        W42187  31.437   2.371   6.952 -0.2700  0.0248  0.0575
99275W        W42188  24.007  29.604   6.440  0.0430  0.0042 -0.1245
99276W        W42189  21.661   1.599   7.778 -0.1572  0.0230 -0.3441
99277W        W42190  24.835  32.753   2.440 -0.2143 -0.2081  0.0948
99278W        W42191  13.486  12.057  21.634  0.1935  0.0235 -0.2609
99279W        W42192  28.352  11.816  25.602 -0.1291  0.1950  0.1787
99280W        W42193  17.996   3.454   6.521  0.0415 -0.1075  0.1425
99281W        W42194   9.885   5.065   5.637  0.1531 -0.0917  0.1572
99282W        W42195  12.610   0.854  18.118 -0.1418 -0.0263  0.1385
99283W        W42196  18.681  30.667  27.751  0.2435  0.4973  0.0934
99284W        W42197   6.533   2.160  26.215 -0.1405  0.3514 -0.0420
99285W        W42198  16.534   0.922  25.184  0.1083 -0.3247 -0.0389
99286W        W42199  23.114  10.570   2.685 -0.1225 -0.1736 -0.3039
99287W        W42200  26.200  24.182   1.068  0.0543 -0.1442  0.0387
99288W        W42201  13.997   7.330   2.109 -0.1885  0.1903  0.3252
99289W        W42202  32.624   4.023   5.926 -0.0338  0.0514 -0.3664
99290W        W42203  21.620   6.835  25.029  0.1263  0.1012 -0.0446
99291W        W42204  18.328   0.051   9.789  0.1983  0.2048 -0.3144
99292W        W42205   3.901   2.401   4.049  0.1540  0.2549  0.0483
99293W        W42206   5.769   0.413  12.662  0.1196 -0.0613  0.0880
99294W        W42207  14.020   1.454  28.252 -0.0986  0.1685  0.0497
99295W        W42208  14.869   2.472  11.034  0.2093  0.3117 -0.0882
99296W        W42209  12.551   6.771  28.809 -0.2186 -0.2068  0.1650
99297W        W42210  24.392   6.036   6.295 -0.0998  0.0719  0.1552
99298W        W42211  15.123   5.967  20.803  0.1279  0.0565 -0.1864
99299W        W42212   8.450   4.567  28.376 -0.0629 -0.0468 -0.0254
99300W        W42213  19.120   8.616   1.835  0.0216  0.0898  0.0565
99301W        W42214  17.716  34.169   8.807 -0.1699 -0.2083 -0.1666
99302W        W42215  12.539  30.921  25.566  0.2152 -0.0849  0.0946
99303W        W42216  18.186   1.852  26.973 -0.0634 -0.2614 -0.0832
99304W        W42217   7.589   9.255  29.490 -0.1817 -0.0005 -0.4064
99305W        W42218  15.289   7.892  28.116 -0.0867 -0.2462 -0.4470
99306W        W42219  25.615  13.031   4.695  0.1624  0.0146  0.1441
99307W        W42220  17.420   9.658   7.722  0.0188  0.0022 -0.1523
99308W        W42221  14.456  11.800   8.168  0.4294  0.1479 -0.0222
99309W        W42222  18.598  12.886   1.997 -0.1476  0.3887 -0.1062
99310W        W42223   1.942   1.206   1.700  0.1202  0.0160 -0.1113
99311W        W42224  11.746   2.461  28.518  0.0484  0.1863 -0.1111
99312W        W42225  17.341  30.738  10.332 -0.0645  0.2806  0.0152
99313W        W42226   9.528  14.664   7.621 -0.0580 -0.2187 -0.0367
99314W        W42227  10.814   2.898  25.770  0.1975 -0.0563 -0.1530
99315W        W42228  10.269   8.627   1.047  0.1417 -0.2126 -0.0081
99316W        W42229  24.354  31.175   5.835  0.0321  0.0662 -0.0115
99317W        W42230   7.615   6.802  26.879  0.0228  0.0686  0.0256
99318W        W42231  30.197   6.332   7.295  0.1532  0.0853 -0.0723
99319W        W42232   9.108   2.230   6.209 -0.1306  0.0921  0.3462
99320W        W42233  23.816   5.223  23.678  0.0518 -0.1092 -0.0720
99321W        W42234  25.164  13.904   3.495  0.1333  0.3867 -0.0201
99322W        W42235  11.619   5.929   4.671 -0.0377 -0.2022  0.0370
99323W        W42236  12.526   0.688   8.007  0.0852 -0.0703  0.0885
99324W        W42237  11.908  18.594  26.397  0.4842 -0.0538 -0.0258
99325W        W42238  18.739   7.691   0.579 -0.2491  0.0860 -0.3336
99326W        W42239  16.475   5.380  28.601 -0.0958 -0.0298  0.0761
99327W        W42240  11.834   5.261  18.863  0.0825 -0.0342 -0.1942
99328W        W42241  29.158  10.332  28.581  0.0818 -0.0206 -0.1841
99329W        W42242   6.135   3.712  28.518 -0.3100  0.1003 -0.0489
99330W        W42243  24.782   3.553   8.832  0.4122  0.0338  0.0676
99331W        W42244   1.948   4.339  27.948  0.2345  0.0726  0.4025
99332W        W42245  14.004  31.392   5.473  0.1601  0.1375  0.2421
99333W        W42246  12.441  11.173   4.286  0.1359 -0.1170  0.0289
99334W        W42247  12.777  34.447  23.822  0.0032 -0.1503  0.0076
99335W        W42248  10.663  32.782  25.753  0.1064  0.1602 -0.2687
99336W        W42249  20.629  33.924   3.124  0.2421 -0.0184  0.4106
99337W        W42250  13.023  10.642   1.682 -0.0463 -0.0849  0.0239
99338W        W42251  29.261  11.340  18.129 -0.0501  0.0854  0.0562
99339W        W42252  21.678  10.901   6.657 -0.0566 -0.0640  0.1593
99340W        W42253  15.683  10.061   0.449  0.0184 -0.2830 -0.3280
99341W        W42254  10.962  10.684  16.014 -0.0922 -0.3091 -0.2268
99342W        W42255   6.300  31.071   6.345  0.0459  0.2197 -0.0087
99343W        W42256   8.838   9.876   7.107 -0.2726 -0.1237 -0.2238
99344W        W42257  10.748  32.836  27.518  0.1834 -0.1253 -0.1464
99345W        W42258  20.179   3.059   8.112  0.1979  0.2915 -0.2503
99346W        W42259  15.442  13.585   7.174 -0.1528 -0.1548  0.2549
99347W        W42260  13.545  14.275  24.979  0.0898 -0.0512 -0.3118
99348W        W42261  11.949   2.484  24.405 -0.0507 -0.3879  0.0398
99349W        W42262  12.866   3.025  25.896  0.3057 -0.2222 -0.2779
99350W        W42263  13.968   6.623   3.808 -0.1194  0.0508 -0.0331
99351W        W42264  21.210   5.800   3.787  0.1339  0.0408 -0.2816
99352W        W42265  16.002   2.176   0.308  0.3046  0.1186 -0.2234
99353W        W42266  18.227  10.454  28.571  0.0352 -0.2453 -0.0733
99354W        W42267  12.520  34.443   8.364 -0.0131  0.0768 -0.2656
99355W        W42268   9.439   5.893   9.981 -0.1513  0.0003  0.4761
99356W        W42269  16.415   8.493   3.783  0.0494  0.2600 -0.1466
99357W        W42270  18.711   3.376   8.370 -0.1040  0.0496 -0.1405
99358W        W42271   6.915   3.109  28.203  0.1609  0.0040 -0.2526
99359W        W42272  19.601   3.104   7.208 -0.2349  0.2328 -0.1510
99360W        W42273   7.430   5.289  10.354  0.4501  0.0271 -0.0056
99361W        W42274  24.801  25.476   3.692 -0.1049  0.2194 -0.0840
99362W        W42275  28.416   8.583   3.886  0.0132 -0.0105  0.0894
99363W        W42276  15.056  13.149   6.621 -0.0870 -0.2866  0.1376
99364W        W42277  20.363  33.037  27.180 -0.0444  0.0347  0.0718
99365W        W42278  14.362   8.228   3.618 -0.2793 -0.1401 -0.1109
99366W        W42279  16.817   1.071  10.985  0.2184  0.2892  0.0906
99367W        W42280  21.346   9.103  21.894  0.1589  0.0491  0.4765
99368W        W42281   2.044   2.019  25.523 -0.1550  0.0213 -0.2584
99369W        W42282  14.259  33.153   9.002  0.0250  0.0927  0.0290
99370W        W42283  15.931   5.020   8.540 -0.0151  0.1903 -0.2769
99371W        W42284  17.226   1.163   5.166 -0.2617 -0.0127  0.2564
99372W        W42285  10.205   3.733   3.481  0.1124  0.2552  0.1035
99373W        W42286   7.739   8.481   2.588  0.3410 -0.2712 -0.0224
99374W        W42287  16.269  13.196  28.715 -0.1412  0.1555 -0.0992
99375W        W42288  17.348  34.098   7.025 -0.2025  0.1439  0.0828
99376W        W42289   2.809  30.933  10.887 -0.4200 -0.2829 -0.2222
99377W        W42290  17.740  32.507   5.452 -0.0395 -0.0481 -0.0722
99378W        W42291   4.698   4.416   5.498 -0.0597  0.1921 -0.1899
99379W        W42292  14.641  17.721  23.721  0.1723  0.4761  0.0212
99380W        W42293   6.374   2.229   7.272  0.3620 -0.2446  0.4254
99381W        W42294  14.836   1.949   8.630  0.0013  0.0160 -0.0321
99382W        W42295  11.894   5.943   7.875 -0.4657  0.2665  0.0407
99383W        W42296  23.926   4.192   3.382  0.1373  0.2481 -0.0614
99384W        W42297  20.586  13.826   1.623 -0.0575 -0.0707  0.1416
99385W        W42298  28.270  22.530   8.309 -0.1873 -0.0901 -0.1523
99386W        W42299  20.171   0.001  26.508  0.1880 -0.2770 -0.1079
99387W        W42300  11.179   8.608   5.274  0.0086  0.0491  0.1076
99388W        W42301  15.652   5.538   5.455 -0.0254 -0.0281 -0.3561
99389W        W42302   4.277  27.427  25.578  0.1206  0.0528  0.1319
99390W        W42303  18.784   8.499   2.507  0.0329  0.0767 -0.0761
99391W        W42304  25.969   3.379  26.640 -0.2243  0.2190  0.0245
99392W        W42305  13.456  10.352  29.510 -0.0107 -0.0097  0.2511
99393W        W42306  14.982   7.159  16.831 -0.3000  0.4804  0.3605
99394W        W42307   6.925   5.308  12.497 -0.2322  0.3153 -0.0476
99395W        W42308   6.169   0.429   0.882 -0.2173  0.0798 -0.0138
99396W        W42309  23.800   4.538   6.043  0.0874  0.1320  0.3017
99397W        W42310  18.574   2.919   0.783 -0.0403 -0.0927 -0.2361
99398W        W42311  11.928   9.069  17.539  0.1342 -0.1711 -0.0985
99399W        W42312  11.103  11.493   2.031  0.2272 -0.1883 -0.1142
99400W        W42313  11.057   6.165  11.144  0.1912  0.0100 -0.3294
99401W        W42314   5.614  29.756   9.765 -0.1744 -0.1787 -0.1018
99402W        W42315  15.729   7.917   3.337 -0.0920 -0.0173 -0.2230
99403W        W42316   6.875   8.026  10.250  0.0237  0.0920 -0.2389
99404W        W42317  16.275  31.682   3.400 -0.1418 -0.2570  0.2763
99405W        W42318  27.705  10.125   4.811 -0.3305 -0.0867 -0.0178
99406W        W42319  15.754  34.156  20.364  0.1344  0.0054 -0.4002
99407W        W42320  16.201   7.977  27.127 -0.1207  0.0724  0.1677
99408W        W42321  18.620   5.518   0.899  0.1368  0.2851 -0.2867
99409W        W42322  24.886  30.069  28.214  0.0211  0.1219  0.0550
99410W        W42323  12.690   6.867   9.797 -0.0013  0.0762 -0.0607
99411W        W42324  15.488  15.774  29.032  0.1578  0.0532  0.1988
99412W        W42325  26.670   3.522  10.186 -0.2926 -0.0681 -0.2257
99413W        W42326  13.017   8.591  25.761 -0.0192 -0.1194  0.0761
99414W        W42327  22.045  30.017   0.882 -0.0884 -0.1498  0.2199
99415W        W42328  15.699  10.395   3.912  0.0905 -0.2967  0.2573
99416W        W42329   6.482   9.102   6.051  0.1299 -0.2219  0.3117
99417W        W42330  28.006   7.160   1.199  0.0559  0.1214 -0.1168
99418W        W42331  14.280   7.821   9.761 -0.0572  0.3172 -0.4456
99419W        W42332  20.977   7.600  21.207 -0.2217  0.0349 -0.0237
99420W        W42333  23.143  32.956  23.920  0.3233  0.0131 -0.0658
99421W        W42334  17.546  16.902   6.164  0.3571  0.1148  0.0914
99422W        W42335   9.312   3.043  12.062 -0.2408  0.2354  0.1034
99423W        W42336  12.436  29.153  28.365  0.0182  0.0189  0.0190
99424W        W42337  17.769   6.866  25.603  0.1579  0.1028  0.3417
99425W        W42338   7.023   3.571   8.571 -0.1252  0.0061  0.0036
99426W        W42339  16.650   5.062  27.267  0.0488  0.0780  0.1276
99427W        W42340  10.023   7.418   8.996  0.1086 -0.1083  0.0541
99428W        W42341   8.783   0.117   3.601 -0.3092  0.0862 -0.1241
99429W        W42342  20.267  23.592   8.487  0.1743 -0.1108 -0.2675
99430W        W42343  34.429   6.419   3.650  0.2424  0.0026  0.0117
99431W        W42344  15.084   5.654   9.197  0.4011  0.1199  0.1020
99432W        W42345  21.875   7.701   8.070 -0.0539 -0.4106 -0.0730
99433W        W42346  12.460  29.619   2.821  0.2455  0.3517  0.0351
99434W        W42347   9.363  33.569  12.132 -0.4525 -0.2161 -0.0232
99435W        W42348   6.139   4.524   3.578  0.0571 -0.2694 -0.1254
99436W        W42349  25.363   7.826  23.218 -0.1688 -0.0330 -0.2766
99437W        W42350  11.504  32.966   2.180  0.1666  0.0574 -0.0413
99438W        W42351  19.314  31.797  18.404 -0.1279 -0.4299  0.0378
99439W        W42352  14.987  28.084   1.349  0.0631 -0.1892  0.0130
99440W        W42353  11.717   0.000   7.770 -0.1588 -0.4669  0.0288
99441W        W42354  17.757   8.499   2.449  0.1785 -0.1134 -0.2569
99442W        W42355  21.071   4.778   8.892  0.2532 -0.2440 -0.0915
99443W        W42356  18.912  13.708   4.280  0.0208  0.1437 -0.0041
99444W        W42357  12.542  30.210  11.074  0.0457  0.5747  0.1226
99445W        W42358  26.203   8.060   7.836 -0.2635 -0.2057  0.1245
99446W        W42359  20.234  31.907   8.431  0.2472 -0.2184  0.1321
99447W        W42360   7.918   3.865   2.752  0.1055 -0.1155 -0.1389
99448W        W42361  11.354  34.224  10.132  0.2147  0.3386 -0.0516
99449W        W42362   7.521   3.969   0.234 -0.2394  0.4372 -0.0806
99450W        W42363  18.610   3.732   7.981 -0.1603  0.2609 -0.0783
99451W        W42364  10.527   8.426   9.870 -0.4560 -0.1885 -0.1745
99452W        W42365  12.094   5.784   5.391 -0.0343 -0.1122  0.0780
99453W        W42366  11.675  33.623   7.611  0.3069 -0.3548 -0.1268
99454W        W42367  23.150  12.535   6.135  0.2961 -0.0871  0.2790
99455W        W42368   5.947   7.343  27.842  0.0676 -0.2317  0.1773
99456W        W42369   8.940   7.997  11.853 -0.2313 -0.0118  0.3635
99457W        W42370  13.544  10.446   7.700  0.0560 -0.3716 -0.1220
99458W        W42371  10.960   0.287   9.504  0.1149  0.4883 -0.1551
99459W        W42372  20.109  33.135   6.767  0.0919 -0.2304  0.3316
99460W        W42373  13.631  10.076  28.421 -0.1231  0.2917 -0.4962
99461W        W42374  11.243  34.368  12.204 -0.2220 -0.0485  0.0952
99462W        W42375  17.639  10.314   4.718  0.3373  0.3491 -0.3999
99463W        W42376  19.480  32.695   3.840 -0.0399  0.1738  0.4088
99464W        W42377  14.336   9.570   8.135 -0.2013  0.0228 -0.0470
99465W        W42378   8.861  27.983   9.553 -0.1657  0.0914 -0.2635
99466W        W42379  18.991   1.715  29.697  0.0580 -0.2910 -0.1422
99467W        W42380  12.956   5.787   9.386 -0.1516 -0.0001  0.0956
99468W        W42381  19.791  15.466   6.705  0.2686 -0.0698  0.1950
99469W        W42382  19.023   8.697   8.887 -0.2559  0.2324 -0.3215
99470W        W42383  21.557   4.607   8.319  0.3705 -0.1135  0.3720
99471W        W42384   8.917   6.079   3.088 -0.1793  0.1550  0.1055
99472W        W42385  23.812   5.672   5.003  0.2055  0.0725 -0.0589
99473W        W42386   2.252   4.416  13.448  0.0289 -0.2717 -0.0622
99474W        W42387  21.609   0.468   5.314  0.0296  0.0932 -0.0325
99475W        W42388   7.531   2.697  29.250  0.0225  0.1221  0.0225
99476W        W42389   7.750  23.372   7.985  0.2570 -0.1131  0.0568
99477W        W42390  11.181  10.801   8.936  0.0334  0.0816  0.0674
99478W        W42391  20.203   3.720   3.448 -0.0968 -0.0477 -0.2170
99479W        W42392  12.985   3.029   4.726 -0.0960 -0.0012 -0.1457
99480W        W42393  11.201   6.105  12.374  0.1869  0.3388  0.1772
99481W        W42394  15.571   2.555  10.405  0.0672  0.2136 -0.1810
99482W        W42395  15.576  17.449  29.776  0.0928  0.2108  0.1170
99483W        W42396  21.189  29.882   7.065 -0.1176  0.2819  0.1239
99484W        W42397   1.371   4.545   3.151  0.1758  0.2405  0.1450
99485W        W42398  19.702  28.536   3.439 -0.2432 -0.1305  0.1130
99486W        W42399  10.334   6.187  29.169 -0.3222  0.0078 -0.2956
99487W        W42400  15.836  12.672   1.501  0.0873 -0.0556 -0.1004
99488W        W42401  19.566  12.539   4.354  0.3494 -0.3000 -0.2695
99489W        W42402   4.607   5.352   7.463 -0.2542 -0.0697  0.2161
99490W        W42403  17.495   3.274  29.735  0.1557  0.1851  0.0288
99491W        W42404  16.408  11.654   9.045 -0.1426  0.1183  0.0504
99492W        W42405  15.458   2.310   0.316 -0.0646  0.2543 -0.1423
99493W        W42406   9.306  12.479   8.001  0.1722 -0.1030 -0.0253
99494W        W42407   3.788   6.035  11.297  0.0557 -0.0847 -0.0086
99495W        W42408  18.130   8.972   9.401  0.3684  0.0743  0.3030
99496W        W42409  12.466   6.643   0.705  0.1030 -0.0499  0.0384
99497W        W42410  13.105   4.394  29.618 -0.2716 -0.4448 -0.0071
99498W        W42411   4.808   3.605  20.722 -0.0703  0.1014  0.3848
99499W        W42412  14.808   4.367  26.014 -0.1244 -0.0540 -0.1515
99500W        W42413   6.565   0.788   5.303 -0.0763  0.0418 -0.0160
99501W        W42414  22.921   9.105  28.758 -0.2455 -0.0331  0.0716
99502W        W42415  12.704   2.875  12.137 -0.0720  0.2812 -0.0005
99503W        W42416  19.265  15.925  25.325  0.1204 -0.2365 -0.1268
99504W        W42417  19.390   1.434   0.281  0.0178  0.0198 -0.0419
99505W        W42418  12.950   0.470   6.069  0.1294  0.0251 -0.1473
99506W        W42419  15.409   5.133  10.708 -0.2059  0.2756 -0.0265
99507W        W42420   9.018   8.758   9.829  0.0825 -0.2892 -0.2889
99508W        W42421  10.449   2.199  25.635 -0.2424 -0.0320  0.0181
99509W        W42422   9.875   6.257  12.646 -0.0232  0.0799 -0.2970
99510W        W42423  33.014   4.535   8.917 -0.3219  0.0481 -0.2397
99511W        W42424   5.964   7.029   5.888 -0.2134  0.2203 -0.1967
99512W        W42425  14.972   6.648  27.635  0.2962  0.0037 -0.1364
99513W        W42426  11.405   4.906  11.072 -0.2993  0.2094 -0.2019
99514W        W42427  13.348  28.968   1.100 -0.3646 -0.2601 -0.2339
99515W        W42428   7.371   0.778   5.843 -0.2336  0.0228  0.1054
99516W        W42429  12.682   4.706   7.198 -0.4100 -0.1388  0.3672
99517W        W42430  15.886   4.630   9.266 -0.1693 -0.0124  0.0944
99518W        W42431  32.211   8.112  10.427 -0.1230 -0.0127 -0.1279
99519W        W42432  19.383   5.361   4.209  0.2200  0.0488  0.1693
99520W        W42433  18.749  33.865  10.128 -0.1921 -0.1984  0.1717
99521W        W42434  10.857  33.132  12.165  0.4421 -0.3454 -0.1325
99522W        W42435  11.605   5.752   9.723  0.2603 -0.0200 -0.1184
99523W        W42436   7.753   6.813  11.345  0.1196 -0.1686  0.0512
99524W        W42437   5.233   0.471  28.703 -0.0051  0.0772  0.1407
99525W        W42438  23.408   1.864   8.120 -0.2539 -0.1343 -0.1070
99526W        W42439  15.428  34.482  29.772  0.2867  0.0055  0.0800
99527W        W42440   9.654  11.460   4.696  0.0657 -0.0044  0.3687
99528W        W42441  12.805  29.118  11.787  0.3326  0.1523 -0.0123
99529W        W42442  11.573   5.580   7.590  0.1072  0.3382  0.0280
99530W        W42443  13.052   1.952   8.733 -0.1208 -0.2362  0.2372
99531W        W42444  14.057   2.717   6.370  0.1126  0.1882  0.0062
99532W        W42445  18.459   5.040  29.594  0.0528  0.1604  0.0283
99533W        W42446   9.089   1.062  12.218 -0.0718  0.3151  0.1599
99534W        W42447  14.529   6.761   7.132  0.1803 -0.0855 -0.5522
99535W        W42448  12.747   1.640  29.735 -0.1752 -0.0625  0.0377
99536W        W42449  11.722   7.688   7.460  0.0834  0.0266  0.1338
99537W        W42450  16.483   1.703   1.975 -0.3098 -0.0256 -0.1137
99538W        W42451  16.252   2.637   7.159 -0.0018  0.1775 -0.3159
99539W        W42452   8.017  14.486   3.191 -0.3117  0.0435  0.2321
99540W        W42453  13.871   6.373   3.128 -0.3142 -0.2321  0.1817
99541W        W42454  26.849   2.839   4.325 -0.1554 -0.3934 -0.1522
99542W        W42455  15.961  14.003   4.900  0.1462 -0.0493  0.3541
99543W        W42456   2.261   1.600   7.564 -0.3442  0.1062  0.2173
99544W        W42457   6.686   7.583   4.349  0.0588  0.2553 -0.1118
99545W        W42458  10.536   3.126  22.897 -0.1305 -0.0828 -0.0213
99546W        W42459  12.043   3.342   2.660 -0.0741 -0.1426 -0.4788
99547W        W42460  12.167   5.262  12.009  0.1036  0.1507 -0.1990
99548W        W42461  11.785   2.901  11.460  0.0760  0.1604 -0.2813
99549W        W42462   7.040   1.441   7.275  0.3145  0.2508  0.2890
99550W        W42463  10.357   1.217  12.860 -0.0268 -0.2330 -0.1044
99551W        W42464  12.106  31.102   7.564  0.0146  0.0099 -0.1763
99552W        W42465  10.633  31.830   8.934 -0.0963 -0.1448 -0.2971
99553W        W42466  18.663  31.936  27.686 -0.3347  0.1050 -0.0046
99554W        W42467  26.642   3.296  29.700 -0.0730  0.1180  0.4073
99555W        W42468   9.999   2.911   4.963  0.2023 -0.0142 -0.3345
99556W        W42469  19.950  14.063   7.395 -0.1114 -0.1063  0.0280
99557W        W42470  12.613  30.226   4.387  0.0236 -0.3606  0.2170
99558W        W42471  15.627   5.473   5.942  0.0705 -0.0422  0.1768
99559W        W42472  17.347  24.239  29.047 -0.0102 -0.2711 -0.1600
99560W        W42473  20.257   4.852   6.292  0.2294  0.0286  0.2249
99561W        W42474  11.496  10.423  10.794  0.3801 -0.0127  0.2665
99562W        W42475  11.561   6.668   8.370 -0.0177  0.2762 -0.4887
99563W        W42476  17.086  14.356   8.612 -0.0658  0.2113  0.0359
99564W        W42477  14.164  10.261   5.435 -0.1161 -0.1658 -0.1353
99565W        W42478  19.892   8.074   9.178 -0.3991 -0.0421 -0.3220
99566W        W42479  22.061   2.516   8.552 -0.0331 -0.2782  0.1102
99567W        W42480  14.376   2.833  28.435 -0.1087 -0.0320 -0.4640
99568W        W42481  14.109   1.198   6.655 -0.0478  0.1934 -0.0588
99569W        W42482  18.285   6.151   0.723 -0.1759  0.0838  0.1934
99570W        W42483   3.948   5.554   1.739 -0.1849  0.0379 -0.0491
99571W        W42484  24.217  32.687   1.808 -0.1253  0.0420 -0.0717
99572W        W42485   8.679   1.255   8.515 -0.2728  0.2906  0.0441
99573W        W42486   9.805   2.342  10.927  0.2188  0.0240 -0.2897
99574W        W42487  16.331   0.760   5.109  0.0492 -0.1531 -0.0629
99575W        W42488  22.512  18.217   6.418 -0.1221  0.0661  0.1297
99576W        W42489  16.439   4.200   9.167 -0.0789  0.2737 -0.0841
99577W        W42490  16.201  33.099   8.108  0.3217 -0.1780  0.0246
99578W        W42491  20.941  27.223   2.179  0.0995  0.1805  0.1832
99579W        W42492  14.220   0.533   7.004  0.0850 -0.0661  0.2918
99580W        W42493  12.545  10.002   2.968  0.0707 -0.0974 -0.4221
99581W        W42494   4.142  33.211   5.930  0.2739  0.0217  0.0788
99582W        W42495  13.092  23.930   0.412 -0.0517 -0.1597 -0.1424
99583W        W42496   7.372  30.353  12.036 -0.2874 -0.4170  0.1222
99584W        W42497  12.492   6.142  10.164 -0.0083  0.0061 -0.0129
99585W        W42498  18.516   6.673   7.361 -0.1502  0.0607  0.0305
99586W        W42499   8.021  14.610   9.807  0.1859 -0.0219 -0.0039
99587W        W42500  21.626  30.771   7.691  0.2444  0.0580 -0.0010
99588W        W42501  22.551   6.478   5.083  0.1415 -0.1010  0.0699
99589W        W42502  21.301   4.233   6.775 -0.3214  0.2461  0.0967
99590W        W42503  18.880   6.957   8.665 -0.1870 -0.0179  0.1737
99591W        W42504   9.429   4.301  12.161  0.2351  0.1184  0.2464
99592W        W42505   4.068   3.652   3.349  0.1165  0.0368 -0.2352
99593W        W42506   0.165   8.875   5.255 -0.1926 -0.3246 -0.0069
99594W        W42507   6.433   2.775  29.547  0.2134 -0.1475 -0.1069
99595W        W42508  18.243   5.150   8.712 -0.3899  0.1254 -0.2177
99596W        W42509  18.569   3.232   4.037  0.0956  0.0781  0.2178
99597W        W42510  17.105  16.204   0.937 -0.0466 -0.1469 -0.0643
99598W        W42511  11.715   9.750   9.452 -0.2239  0.1774  0.1338
99599W        W42512  24.015   4.902   4.233 -0.0849  0.1847  0.1086
99600W        W42513  12.859   3.392   6.590  0.0736  0.0932 -0.1244
99601W        W42514   4.808   3.093   6.262  0.0245  0.0443 -0.0796
99602W        W42515  22.232  33.239   2.033 -0.0658  0.3015  0.0541
99603W        W42516   2.431  15.630  25.840 -0.0401 -0.4989  0.1136
99604W        W42517  16.479  16.597   2.169 -0.0302 -0.0462 -0.2612
99605W        W42518  33.329   1.999   9.561  0.0393  0.0010 -0.1123
99606W        W42519  12.832  10.753   6.594  0.1306 -0.1722 -0.2477
99607W        W42520  15.979   6.522   1.572  0.1326 -0.3264 -0.2855
99608W        W42521  17.526   9.973   3.822  0.1172 -0.1738 -0.1061
99609W        W42522  17.732   2.721  29.025 -0.0148 -0.4696  0.0747
99610W        W42523   2.023  23.070   5.289 -0.0551 -0.1035 -0.1814
99611W        W42524  33.355   2.615  10.911  0.0021  0.2672  0.1767
99612W        W42525  13.317   8.121  11.060 -0.2768 -0.3651 -0.2319
99613W        W42526  25.804   6.053   7.999 -0.0522 -0.4573  0.3411
99614W        W42527   5.349  34.405   4.172  0.0095  0.0811 -0.2267
99615W        W42528  13.256   1.063   4.625  0.0344  0.3134  0.0836
99616W        W42529  13.200   7.731   9.336  0.1725  0.0911 -0.1453
99617W        W42530  18.846  32.836  23.115  0.1659  0.2340  0.0989
99618W        W42531  15.768   7.721  10.126  0.0736 -0.1924 -0.3522
99619W        W42532  16.293  16.317   2.527 -0.1489 -0.1285 -0.4565
99620W        W42533  19.854   7.203   4.622 -0.1632 -0.5630  0.0002
99621W        W42534  13.221  11.120   4.799 -0.1471 -0.1724  0.1762
99622W        W42535  13.045  31.012   0.841  0.0928 -0.2100  0.0352
99623W        W42536  19.153   8.477   7.898 -0.1283  0.2094 -0.0095
99624W        W42537  10.707  33.800   8.526 -0.0028 -0.1026 -0.0005
99625W        W42538  20.446   8.543   7.612  0.2962  0.3458  0.3254
99626W        W42539   9.951   2.388  12.630 -0.0920  0.2285 -0.1926
99627W        W42540  21.163   7.424   3.148  0.2563 -0.0652  0.0647
99628W        W42541  31.676  12.058   2.146 -0.3160  0.2818 -0.1256
99629W        W42542   7.971   8.282  10.962  0.1044 -0.0713 -0.0468
99630W        W42543  17.806  33.842   1.418 -0.0550  0.0810 -0.0783
99631W        W42544  13.092   2.727   5.871  0.1238 -0.1331 -0.1248
99632W        W42545  13.970   8.575   6.862  0.1104 -0.2161  0.1672
99633W        W42546  19.283   8.348  25.031  0.0169  0.2546  0.4495
99634W        W42547   2.500  31.263   8.350 -0.1165 -0.0354  0.2228
99635W        W42548  14.794  13.517  24.119 -0.3506 -0.2433 -0.1560
99636W        W42549  21.796   3.057  28.747 -0.1409 -0.1091  0.0040
99637W        W42550  14.457   7.024  29.069  0.0991 -0.2537  0.1844
99638W        W42551  23.803  30.827   6.873  0.0652  0.2135 -0.0318
99639W        W42552  12.249   7.025   7.833 -0.2797 -0.0957  0.0133
99640W        W42553  10.961  34.243   4.957 -0.0020 -0.0454  0.1295
99641W        W42554  12.117  12.788   3.347  0.4251 -0.3649  0.0643
99642W        W42555  23.411   0.694  21.698  0.3012  0.1435 -0.0627
99643W        W42556   7.746  20.875  29.552 -0.1102 -0.0617 -0.2362
99644W        W42557  29.036  16.884  28.474  0.1747 -0.0985 -0.2946
99645W        W42558  15.198   8.120   8.277 -0.2090  0.3585  0.4255
99646W        W42559  18.068  30.957   5.832  0.0063  0.2760  0.3446
99647W        W42560  12.027   8.436   9.078  0.3693 -0.0274 -0.2458
99648W        W42561  17.818  29.665  28.324 -0.3440 -0.0252  0.0283
99649W        W42562  20.010   5.096   8.216 -0.0166 -0.1917  0.1879
99650W        W42563  13.762  12.049  24.955  0.1337  0.0156 -0.0880
99651W        W42564  14.989   6.503   4.814 -0.4484 -0.3721  0.1193
99652W        W42565  20.605   8.601   3.058 -0.1739 -0.2479  0.3305
99653W        W42566  10.124  33.517   3.899  0.2418  0.0161  0.0755
99654W        W42567  18.774  32.453  27.529 -0.2471 -0.1438 -0.0389
99655W        W42568   9.814   9.879   8.499  0.0783 -0.0265 -0.0222
99656W        W42569  12.487   6.909   8.231  0.0277 -0.4503 -0.1496
99657W        W42570  16.674  33.688   0.387  0.0709  0.3252  0.1113
99658W        W42571   7.336  14.211   3.509 -0.0272  0.0946  0.4380
99659W        W42572  22.170  10.737   8.550  0.0225  0.1946  0.0040
99660W        W42573  24.947  33.586  27.174  0.1069 -0.0544  0.0530
99661W        W42574  14.128   4.285   6.169  0.0045 -0.0618  0.0451
99662W        W42575  11.820   0.738  11.833  0.0947  0.0597 -0.2812
99663W        W42576  24.998   9.229   1.815  0.1841 -0.1525  0.1629
99664W        W42577   6.411  31.481  29.733  0.0947 -0.0685  0.0581
99665W        W42578  17.558   1.665   6.429 -0.0386  0.0436 -0.0785
99666W        W42579  11.275  12.968   4.875  0.1631 -0.0816  0.3476
99667W        W42580  26.248   8.512   8.056 -0.0047 -0.2357  0.0861
99668W        W42581  23.412   1.497  18.436 -0.1237  0.0230  0.2134
99669W        W42582  16.034  14.299   5.404 -0.1282  0.0423 -0.1508
99670W        W42583  16.548   8.626   7.912  0.1355 -0.2031  0.0402
99671W        W42584  19.701  11.370   3.102  0.0398  0.3277 -0.1259
99672W        W42585  26.056   6.879   2.455  0.0283 -0.2106  0.0985
99673W        W42586   4.697   2.151   6.218  0.2373 -0.4294  0.0086
99674W        W42587  29.038   9.695   7.644 -0.1959  0.1110  0.0558
99675W        W42588  21.826   7.026   5.456 -0.2141  0.0613  0.0287
99676W        W42589   2.966   2.026   5.280 -0.2658 -0.1591  0.2223
99677W        W42590  24.507   1.049  26.602 -0.1995 -0.3060 -0.1672
99678W        W42591  14.015   2.460  11.319  0.0558  0.4097  0.1224
99679W        W42592  17.990  31.536   2.252  0.0933  0.0559  0.1740
99680W        W42593   4.722   6.438   6.822  0.2337  0.0568 -0.0166
99681W        W42594  14.389   5.482  26.979 -0.1199  0.3244 -0.2467
99682W        W42595  13.850   3.717   5.019  0.2007  0.2323 -0.0575
99683W        W42596  15.959   6.136  29.569  0.0320 -0.1175 -0.1951
99684W        W42597  15.529   8.009   9.339 -0.0268  0.0600  0.0166
99685W        W42598   4.212   5.618  10.595  0.0936 -0.1146  0.3258
99686W        W42599  10.941  30.986  27.205 -0.3534  0.1104  0.1491
99687W        W42600  17.704   4.482   8.967 -0.2611  0.1125  0.1642
99688W        W42601  25.013  31.398   3.572 -0.0499 -0.3271 -0.1275
99689W        W42602  10.720   6.713   5.869 -0.0327 -0.1027 -0.1366
99690W        W42603  13.147   3.682   9.427  0.3735  0.0259  0.1983
99691W        W42604   7.203   5.494   6.862 -0.1644 -0.2515 -0.2442
99692W        W42605   5.454  31.806   5.874  0.0183 -0.2434 -0.0202
99693W        W42606  16.715   0.281   6.667  0.2063  0.0373  0.0518
99694W        W42607  26.492   1.348   1.472 -0.1394 -0.0909  0.1652
99695W        W42608  18.282  11.047   6.837  0.0200  0.0298  0.1281
99696W        W42609  10.397   2.603  12.702 -0.1705 -0.0082  0.1394
99697W        W42610  16.440  10.298   1.338 -0.1023  0.0599 -0.0021
99698W        W42611  19.727   5.513  28.763  0.0422 -0.3675  0.2703
99699W        W42612  19.837  12.237   7.462 -0.0792 -0.1237 -0.1131
99700W        W42613  19.569   9.276   1.174 -0.1671  0.2814 -0.1240
99701W        W42614  11.267  11.809   4.309 -0.0201 -0.0292 -0.2598
99702W        W42615  18.988  34.280   3.820 -0.0673  0.2986  0.3905
99703W        W42616  12.943  22.155   3.788 -0.0552 -0.1860 -0.1320
99704W        W42617  17.045   0.518  26.364  0.0720 -0.2278  0.1630
99705W        W42618  24.759   6.783  29.250 -0.1980  0.0307 -0.3618
99706W        W42619  12.508  11.710   4.203  0.0387  0.1216 -0.2736
99707W        W42620  13.861   5.870   8.817 -0.0433  0.0291 -0.1245
99708W        W42621   8.697   0.590   3.801  0.3060  0.0590  0.1659
99709W        W42622  25.173  10.645   4.655  0.1179 -0.1517 -0.1542
99710W        W42623  14.018   5.544   7.947 -0.2519 -0.2644 -0.2573
99711W        W42624  26.428   4.216   9.622 -0.1054  0.1176  0.4562
99712W        W42625  13.800   5.355   2.669 -0.1546 -0.2031  0.0918
99713W        W42626  18.984   5.379   9.315  0.1876 -0.2224  0.2169
99714W        W42627  11.744   0.925  23.369  0.1401 -0.0968 -0.0985
99715W        W42628  10.467   1.013  13.375 -0.0530  0.1573  0.2624
99716W        W42629  23.598  13.491   6.527 -0.1225  0.1318 -0.1902
99717W        W42630  17.852   2.649   1.576  0.2491 -0.1095 -0.0939
99718W        W42631  16.112   3.993  27.363 -0.0069 -0.1294 -0.1346
99719W        W42632  30.402  34.297   4.305 -0.2541  0.3883 -0.3663
99720W        W42633  23.147   3.878   3.762 -0.1866 -0.0965 -0.1518
99721W        W42634  25.557  29.799   3.101  0.1877 -0.1054 -0.0629
99722W        W42635   7.811   3.286   6.139  0.0875  0.0442  0.0723
99723W        W42636  16.438   9.472   6.352 -0.1064 -0.1030 -0.0482
99724W        W42637   5.362   6.486   6.902  0.0612  0.1086 -0.0941
99725W        W42638  16.513  13.120   6.761 -0.0010  0.2798 -0.0381
99726W        W42639  16.692  13.288   4.778  0.1198 -0.3310 -0.2516
99727W        W42640   3.418  26.324   6.576 -0.0891  0.0152  0.1554
99728W        W42641  21.487  31.596   7.646 -0.2179  0.2190 -0.1279
99729W        W42642  18.525   5.279   7.553  0.3347 -0.4513  0.2514
99730W        W42643   5.654  29.974  11.537  0.1472  0.1683  0.1251
99731W        W42644  23.693  24.342   7.742 -0.1085 -0.1601 -0.0894
99732W        W42645  17.013   4.596   7.952 -0.1351  0.1474  0.0123
99733W        W42646  27.233   4.568   5.895  0.0704 -0.0371 -0.0176
99734W        W42647  15.252   5.762   4.220  0.0648  0.2630  0.3223
99735W        W42648  13.203   6.382   8.106  0.1659  0.0791  0.1725
99736W        W42649  24.045  13.540   1.926 -0.0240  0.1374  0.0216
99737W        W42650   9.379   3.208  11.151 -0.0154  0.0471 -0.1187
99738W        W42651  20.940   7.074   4.715  0.0409  0.1123  0.2108
99739W        W42652   9.308  21.545   5.517 -0.2437 -0.1059 -0.0626
99740W        W42653  21.600  12.931   7.547  0.1202  0.0396  0.2719
99741W        W42654  23.065   9.660   6.065  0.1405  0.3237 -0.1614
99742W        W42655   8.919  29.488   9.885 -0.3183 -0.0347  0.2174
99743W        W42656   7.622   0.142   9.105 -0.0341 -0.1589  0.0536
99744W        W42657   6.376  33.853   4.770 -0.0398  0.1371 -0.2303
99745W        W42658  18.471   2.314  27.235 -0.1520  0.1734  0.2278
99746W        W42659  25.775   5.385   9.122 -0.1194  0.0362  0.1493
99747W        W42660  17.062   9.856   5.974  0.3222  0.0374 -0.1663
99748W        W42661  10.720   0.850   8.799  0.0992  0.0104  0.2266
99749W        W42662  11.627   4.576   5.372 -0.2049 -0.2142 -0.0475
99750W        W42663  16.861   7.509   9.218  0.0659 -0.0975 -0.0358
99751W        W42664  18.029   3.098   3.528  0.0319 -0.0948 -0.0708
99752W        W42665  22.601  15.855   4.595 -0.0488 -0.1554  0.2083
99753W        W42666  11.105   4.325  10.275  0.1729 -0.0526 -0.0290
99754W        W42667  21.671   0.660  28.898  0.0099  0.2337 -0.1259
99755W        W42668  16.493  34.483  10.051 -0.0209 -0.2287  0.0533
99756W        W42669  18.577  34.017   8.763  0.1081  0.2156 -0.1853
99757W        W42670  17.991   5.278  29.471  0.1412  0.1351  0.0740
99758W        W42671  11.715   2.465   6.542 -0.3179 -0.2286 -0.2321
99759W        W42672  16.124   1.682   8.483  0.0142 -0.1957  0.0446
99760W        W42673  16.507   1.658   5.379 -0.1944  0.0547  0.2213
99761W        W42674  12.464   4.208   8.896  0.0375  0.0465  0.0110
99762W        W42675  10.478   3.115   6.744 -0.0543 -0.2162  0.0501
99763W        W42676  17.554  18.290  27.341 -0.0593 -0.0434 -0.1695
99764W        W42677  20.831   0.037   4.372  0.1470  0.2637 -0.0673
99765W        W42678  25.926   4.752  25.225  0.1090  0.0815 -0.0971
99766W        W42679  18.601   5.942   1.297 -0.0284  0.1643 -0.0282
99767W        W42680  16.599   2.897   7.471 -0.0270 -0.2336  0.2756
99768W        W42681  13.093   3.839   4.405 -0.0425  0.0734 -0.1483
99769W        W42682  15.289   1.315   6.550  0.2570  0.0745  0.1001
99770W        W42683  27.174   3.198   6.734  0.2240  0.0611 -0.2881
99771W        W42684  13.370  29.345   4.930  0.4433  0.1292 -0.0185
99772W        W42685  19.706   6.234   8.983  0.1142  0.3050  0.0729
99773W        W42686  13.885  29.948   5.152 -0.0968  0.4687 -0.1913
99774W        W42687  13.987   4.833   3.752 -0.2897 -0.0526  0.1744
99775W        W42688   8.971   4.074   3.718  0.0104 -0.1953  0.1685
99776W        W42689  10.123   0.999   8.169 -0.1338  0.3225 -0.0598
99777W        W42690   2.377  18.811   5.647  0.1258 -0.1039  0.2645
99778W        W42691   6.503  13.091   9.775 -0.1419  0.1745 -0.0719
99779W        W42692  12.679   3.202  19.497 -0.2905 -0.0532  0.1569
99780W        W42693  11.834  10.662   9.867 -0.1176 -0.1405 -0.0316
99781W        W42694  27.843  33.437   6.195  0.1549 -0.3804 -0.0204
99782W        W42695  17.123   9.967   4.703 -0.0748 -0.1011 -0.2936
99783W        W42696  12.543  25.865   0.024  0.3822  0.1433  0.0197
99784W        W42697  14.045  11.644   6.975 -0.0280 -0.4048  0.1432
99785W        W42698  20.111   1.732   9.602 -0.2426  0.0513 -0.3490
99786W        W42699  20.834  14.132   7.390 -0.0079 -0.2027  0.0710
99787W        W42700  17.569  30.999   9.008  0.2681  0.1596 -0.0801
99788W        W42701  16.085  32.576   2.450  0.3009 -0.2778 -0.0396
99789W        W42702  11.442   0.859   6.173  0.0358  0.3932 -0.1582
99790W        W42703  21.702   7.716   6.232 -0.1790  0.1271  0.1345
99791W        W42704  12.870   1.882   3.268  0.3773  0.1869 -0.1752
99792W        W42705  18.077  13.952   7.906 -0.1826  0.2465 -0.0828
99793W        W42706  18.655   6.892   1.537  0.0117  0.1110  0.0981
99794W        W42707   6.867  33.396   7.490  0.0902 -0.0535  0.1954
99795W        W42708  19.708   4.482   8.933  0.0172  0.0183  0.1487
99796W        W42709  16.747  29.691   8.185  0.0445  0.0481  0.2746
99797W        W42710  24.519  28.348   6.135 -0.0340 -0.1270 -0.2701
99798W        W42711  21.772  33.459   3.673 -0.1753 -0.0703  0.1697
99799W        W42712  16.333   2.601   9.986 -0.0360  0.0450 -0.1995
99800W        W42713  14.944   7.866   7.299 -0.0683 -0.1543  0.0688
99801W        W42714   9.357   3.486   1.031  0.3491  0.1744 -0.2681
99802W        W42715  22.237   6.377   9.047  0.1880  0.3598  0.1036
99803W        W42716  19.878  13.386  29.092 -0.3121 -0.0984  0.1083
99804W        W42717  23.437   5.262   6.676 -0.1426 -0.0982  0.1286
99805W        W42718  32.434  33.627   9.667  0.1016 -0.1972  0.0527
99806W        W42719  26.697   2.670   7.211 -0.1374  0.0104 -0.4686
99807W        W42720  12.707   7.559  25.839 -0.0301 -0.0821 -0.1994
99808W        W42721   5.971  30.761   9.589  0.0042  0.0759  0.0813
99809W        W42722  21.501   7.203  26.972 -0.3362 -0.1745  0.1139
99810W        W42723   5.806  32.272   1.128 -0.3070  0.2970  0.2077
99811W        W42724  25.425   9.032   5.863  0.0187 -0.0001  0.0534
99812W        W42725   6.263   7.598   1.501  0.0857  0.0157  0.1731
99813W        W42726   9.614  25.892   4.407 -0.0759 -0.1218 -0.0064
99814W        W42727  18.164  32.453   4.083 -0.1232 -0.1455 -0.0009
99815W        W42728  22.774   4.031   2.468 -0.0481 -0.0265  0.4587
99816W        W42729  23.183  10.638   9.719 -0.3538  0.2478 -0.0579
99817W        W42730  19.327   9.960   6.556  0.0135  0.0809 -0.3343
99818W        W42731  11.565  27.124   8.745  0.2431  0.3438  0.3893
99819W        W42732  15.727   6.140   3.654  0.0392 -0.1664  0.1039
99820W        W42733   9.725  20.294  29.140 -0.0865 -0.0815  0.3016
99821W        W42734  10.232  29.079   3.170  0.0826  0.3136  0.0688
99822W        W42735  26.729   6.674   7.849  0.4842  0.0003 -0.2632
99823W        W42736  14.490  29.662   5.749 -0.0494 -0.3864  0.0340
99824W        W42737  14.133   0.489  10.816 -0.2258  0.0671  0.1057
99825W        W42738  12.016  16.283  18.089 -0.0070  0.1481  0.1132
99826W        W42739   7.317  33.644   5.807  0.3862 -0.0653 -0.2617
99827W        W42740  17.097  30.882  28.354 -0.0689 -0.0568  0.1455
99828W        W42741  11.703   4.027   7.140  0.0726  0.1116 -0.1631
99829W        W42742  22.465   4.060   6.663  0.0789  0.5526  0.1339
99830W        W42743  10.862  14.897   8.299  0.2989 -0.0290  0.0689
99831W        W42744   8.147  13.284   4.154  0.3315 -0.0494 -0.3308
99832W        W42745  20.689   8.093   5.419  0.1909  0.1261  0.1421
99833W        W42746  11.935  33.345   1.209 -0.0918  0.0402 -0.1656
99834W        W42747  19.788   1.884   7.392 -0.0312  0.2351  0.0101
99835W        W42748  25.982  10.431   9.188  0.4025 -0.1661 -0.0488
99836W        W42749   8.149  28.589   3.787 -0.0099 -0.0723  0.0744
99837W        W42750  12.223  34.189   6.996  0.1314 -0.0801 -0.1883
99838W        W42751   9.033   2.808  11.194 -0.2084 -0.0537  0.1133
99839W        W42752   7.676  32.253  11.624 -0.0764  0.3888 -0.0386
99840W        W42753  11.936   8.373  10.495  0.1811  0.0780 -0.0800
99841W        W42754   6.993   5.401   5.567 -0.1282 -0.2952  0.0005
99842W        W42755   2.109   2.081   5.797  0.0765 -0.1022  0.2764
99843W        W42756  24.200   9.233   2.257  0.1517 -0.2180  0.1966
99844W        W42757  15.802  13.364   9.130 -0.0016  0.2245 -0.1546
99845W        W42758   9.378   6.287  12.720 -0.2119 -0.0918 -0.1230
99846W        W42759  16.994  17.172   7.483 -0.0888  0.0965  0.0737
99847W        W42760  20.923   7.381   4.286 -0.2593 -0.3060 -0.2155
99848W        W42761  14.898  33.977  10.750 -0.1339 -0.1971 -0.1375
99849W        W42762   7.893   5.070   5.467 -0.1648  0.0353  0.0741
99850W        W42763  17.440  32.643   5.065  0.0874  0.1121 -0.0380
99851W        W42764  26.531   7.726   0.289 -0.0565 -0.0583  0.1297
99852W        W42765   7.924   5.271  12.541  0.0222  0.0319 -0.1626
99853W        W42766  15.819  29.947   3.984 -0.2878 -0.1949  0.1577
99854W        W42767  12.696  27.486   8.168  0.1359  0.1358 -0.3621
99855W        W42768  15.265   7.442   9.571 -0.0869 -0.0468  0.0472
99856W        W42769  26.115  32.281  29.722 -0.3271  0.0772  0.0097
99857W        W42770   9.788   1.508  12.702 -0.0452 -0.0420  0.0829
99858W        W42771  25.183  33.502   8.705  0.0326  0.2222  0.1666
99859W        W42772   2.706   8.792  28.688 -0.1336 -0.0840  0.2029
99860W        W42773  11.766   2.362   8.564  0.1488  0.0559 -0.1061
99861W        W42774  16.708   5.019  28.310 -0.0691  0.0049  0.1069
99862W        W42775   7.189   7.815   0.276  0.3498  0.2150  0.1762
99863W        W42776   6.811   3.342   4.346  0.1900 -0.0081  0.0473
99864W        W42777  17.958   8.624   6.201 -0.0709 -0.3171  0.0597
99865W        W42778  17.878   0.362   4.898  0.0821 -0.1792 -0.2481
99866W        W42779  18.903   4.027   4.677 -0.0997  0.0148 -0.2529
99867W        W42780  23.338  13.061   8.358  0.2392 -0.0521 -0.1361
99868W        W42781  12.639   3.014   7.590 -0.1953  0.0285  0.1058
99869W        W42782   5.356  31.391   3.366  0.0905 -0.1708 -0.0526
99870W        W42783  13.270   6.665  28.133 -0.0909 -0.4452  0.1699
99871W        W42784  16.564   6.410   7.890 -0.0877  0.0663 -0.0665
99872W        W42785  19.772  32.673   7.991 -0.0976 -0.2428 -0.1756
99873W        W42786  24.473  29.481   7.602  0.0227  0.0986 -0.2184
99874W        W42787  16.036   3.445   6.887  0.2136 -0.1805 -0.1864
99875W        W42788  14.567  13.391   4.272  0.1213  0.2146 -0.0170
99876W        W42789  23.890   6.859   6.900 -0.2964  0.2969 -0.1554
99877W        W42790  12.809  33.753  10.200 -0.3835 -0.1235  0.2062
99878W        W42791  19.094  31.404   5.327 -0.1475  0.2326  0.1952
99879W        W42792  18.190  10.118   7.753 -0.0968 -0.2037  0.2859
99880W        W42793  15.679  32.036  29.777  0.0493  0.2560  0.0995
99881W        W42794   8.304  31.895   3.959  0.1516 -0.3858  0.1247
99882W        W42795  10.590  29.549  28.564 -0.2374 -0.2051 -0.0852
99883W        W42796  14.656   0.896  10.112 -0.1012  0.2029 -0.1918
99884W        W42797  25.071   2.042   0.649 -0.1918  0.0742  0.0240
99885W        W42798  15.555  13.292  28.123 -0.0300  0.2042  0.3077
99886W        W42799   1.530   1.045  28.387 -0.1210 -0.0026 -0.0504
99887W        W42800  24.428  14.314   1.893 -0.1597 -0.1812 -0.2530
99888W        W42801  19.008  32.508   7.724  0.1740 -0.0612 -0.1721
99889W        W42802  12.324   4.303   2.403 -0.3333 -0.0155  0.1357
99890W        W42803  13.445  14.595   8.278 -0.0161 -0.0490 -0.0286
99891W        W42804  11.671  28.375   7.644 -0.1503 -0.1983  0.1919
99892W        W42805  10.706   4.266   7.396  0.0391  0.2829 -0.0737
99893W        W42806  16.025   5.242  25.490  0.3413  0.0332 -0.0056
99894W        W42807  13.643   8.348  29.048  0.1691 -0.1743  0.2331
99895W        W42808  22.875   7.867   8.537 -0.1797  0.1145  0.2492
99896W        W42809  12.764  10.464   4.901  0.2127  0.1125  0.0440
99897W        W42810  19.318   2.156   5.239  0.1017 -0.3028 -0.0328
99898W        W42811  16.958  31.736  25.436  0.0202  0.1878 -0.1121
99899W        W42812  18.775   1.684   7.441  0.1065  0.2938 -0.2305
99900W        W42813  18.395   0.148   0.302 -0.1218  0.4575 -0.0167
99901W        W42814   6.663   1.126   4.915  0.0381  0.0345  0.1445
99902W        W42815  13.210  32.690   9.371 -0.0464 -0.1393 -0.1244
99903W        W42816  11.304   1.258   9.124  0.0510 -0.2695  0.1668
99904W        W42817  23.196   7.298   9.159  0.0528  0.0260  0.0121
99905W        W42818  28.123   6.145   9.899 -0.0614  0.3465  0.1212
99906W        W42819   8.214   6.589   6.698  0.0118  0.1036 -0.1248
99907W        W42820  11.130   3.187  10.338  0.0565 -0.0704 -0.0329
99908W        W42821  18.227   6.483   4.362 -0.1935 -0.3769  0.3302
99909W        W42822  21.444   5.508  10.108 -0.1833 -0.0092 -0.3386
99910W        W42823  12.532  13.993   9.564 -0.0073 -0.1859 -0.0490
99911W        W42824   9.575   0.914   2.055  0.2873  0.1161 -0.0316
99912W        W42825  12.570   0.062   6.842  0.0351  0.0004 -0.1015
99913W        W42826  11.086   8.124   4.851 -0.1646 -0.0818 -0.2897
99914W        W42827   0.847   0.477   7.121 -0.1010 -0.0246  0.0750
99915W        W42828  15.823   4.765  10.792 -0.0002  0.6494  0.0042
99916W        W42829  14.280  34.093  11.447 -0.2128  0.2823  0.2585
99917W        W42830  22.076   2.775  10.295 -0.2869  0.4093 -0.2394
99918W        W42831  19.307   6.281   3.037  0.0873 -0.0096  0.0417
99919W        W42832  19.290   2.820   3.036 -0.0034 -0.2518 -0.1201
99920W        W42833  13.969   7.433   7.828  0.2020 -0.0210 -0.0603
99921W        W42834  17.304   6.923   6.579  0.0281 -0.0251 -0.0659
99922W        W42835   9.488  15.703   6.899  0.1621 -0.2048  0.0300
99923W        W42836  23.572   3.907  27.797 -0.1417 -0.2646 -0.2106
99924W        W42837  22.207  28.137   6.252  0.0840 -0.0381  0.2543
99925W        W42838  15.762  26.412   4.185 -0.2395  0.0108 -0.0220
99926W        W42839  20.347   0.884   6.154 -0.0364  0.1735  0.0433
99927W        W42840  22.036  25.194   2.118  0.4680 -0.1475  0.1680
99928W        W42841  16.158   7.571   4.841 -0.0753  0.1510  0.1799
99929W        W42842  17.022  10.221   0.429  0.0170 -0.1878  0.1999
99930W        W42843  16.609   2.189   4.550  0.0219 -0.0557 -0.0855
99931W        W42844   7.501  31.482  12.340  0.2746  0.4191 -0.0748
99932W        W42845  12.700  12.292   7.898 -0.2818  0.2107  0.1252
99933W        W42846  13.507   3.505   9.934  0.0865  0.1041  0.2943
99934W        W42847  20.352  13.275  21.740 -0.1762  0.0130  0.3271
99935W        W42848  15.807   9.586   2.639  0.2420 -0.0536 -0.0598
99936W        W42849  26.563   6.584   6.862  0.0258  0.3058  0.0045
99937W        W42850  15.512  13.151   3.654  0.2125 -0.5468 -0.1142
99938W        W42851  13.810  33.358   9.356  0.1889  0.1904 -0.1198
99939W        W42852  18.949  32.637   8.827  0.2638  0.2784 -0.4037
99940W        W42853  15.785  12.952   5.603 -0.2786 -0.0779  0.0007
99941W        W42854  31.216  15.219   3.318 -0.2305  0.0158 -0.1953
99942W        W42855  24.391  30.584   0.782  0.3164  0.1712  0.1426
99943W        W42856  22.108  10.890   6.933 -0.1185 -0.1711  0.0020
99944W        W42857  13.115   3.552  11.383  0.0232 -0.0174 -0.1473
99945W        W42858  22.332   3.730   5.297  0.1492  0.0815 -0.0745
99946W        W42859   9.267   4.866   8.027 -0.2665 -0.3999  0.0664
99947W        W42860  15.998   9.609   5.049 -0.1203 -0.0170 -0.1140
99948W        W42861   4.292   0.636   6.467 -0.2238  0.4158 -0.0986
99949W        W42862   5.067  29.226   9.737  0.2671 -0.3127  0.3444
99950W        W42863  19.229   7.468   6.898 -0.1508  0.0911 -0.0800
99951W        W42864  14.346   7.267  24.222 -0.2368  0.0931  0.2150
99952W        W42865  15.701   4.996   8.996 -0.1457  0.2123  0.1661
99953W        W42866  16.066  22.772  25.395 -0.0854  0.0682  0.5023
99954W        W42867  18.195   4.433   6.868  0.1193 -0.1546 -0.0379
99955W        W42868  16.001   6.333  10.686 -0.1335 -0.0271  0.0468
99956W        W42869  24.356   5.057   9.609  0.1007 -0.2989 -0.0620
99957W        W42870  25.035   7.234   3.112  0.0476  0.2992 -0.1155
99958W        W42871  12.689   5.964   4.937 -0.2486  0.0518 -0.3756
99959W        W42872  16.634  30.390   7.714  0.1104  0.1205  0.4167
99960W        W42873  19.881  28.098   7.093  0.1838 -0.0618 -0.0387
99961W        W42874  23.055   8.763   6.175 -0.0194  0.0781 -0.0143
99962W        W42875  26.532   2.250   6.413  0.0539 -0.1617  0.1182
99963W        W42876  22.056  32.523   4.836 -0.0332  0.0103  0.1543
99964W        W42877  17.593   6.454  27.895 -0.0147 -0.2807  0.1475
99965W        W42878  25.694   7.983   7.626  0.0389  0.1180  0.1572
99966W        W42879  21.564  31.973   8.967 -0.0021  0.0190  0.1889
99967W        W42880   9.346   3.352  10.513 -0.2525  0.0313  0.3490
99968W        W42881   8.360  14.092  10.590 -0.3726  0.0962  0.3576
99969W        W42882  26.922  32.943   4.370 -0.0084 -0.1382  0.4035
99970W        W42883  23.390  11.714   7.635  0.0859  0.0416 -0.1045
99971W        W42884  19.120   7.764   9.019  0.3179  0.1389  0.0374
99972W        W42885  19.712   5.437   8.976  0.0854 -0.1877  0.0582
99973W        W42886  17.610  10.804   2.493  0.1162 -0.0359 -0.0377
99974W        W42887  16.529   2.398   8.808 -0.1070  0.0625 -0.0317
99975W        W42888  17.591   4.588  19.914 -0.1079 -0.1351 -0.1969
99976W        W42889  11.480   5.143   5.345  0.1986  0.1662  0.0777
99977W        W42890  17.491  33.651   6.957  0.1062  0.0924 -0.0142
99978W        W42891   6.701  32.687  10.400  0.2008 -0.1298 -0.0530
99979W        W42892  21.183  27.026   9.108  0.2488 -0.1350 -0.0602
99980W        W42893  10.663  28.917   9.326  0.0201  0.0186  0.0244
99981W        W42894  17.327   5.467   8.220  0.0628  0.1799 -0.0246
99982W        W42895  11.812  25.631   9.550 -0.0849  0.1693 -0.0838
99983W        W42896  24.457  13.259   4.350 -0.1173 -0.1413 -0.0866
99984W        W42897  28.049   7.631   9.805  0.0907  0.1019 -0.0156
99985W        W42898   6.412  33.582   3.391 -0.2872  0.0110  0.1398
99986W        W42899  10.507   3.333  11.625  0.0270  0.0328  0.1506
99987W        W42900  17.480   6.863   7.612 -0.2344  0.0948  0.5114
99988W        W42901  23.452   1.129  21.303  0.1633  0.1413  0.0836
99989W        W42902  27.086  32.968  28.239  0.0834 -0.0503  0.0636
99990W        W42903  14.079   5.719   4.998  0.0176 -0.0582  0.1892
99991W        W42904  21.719   4.659   7.640 -0.0526 -0.0174 -0.1779
99992W        W42905  20.902   6.229   9.487  0.2246  0.2797  0.2273
99993W        W42906  18.681   6.332   9.166 -0.5071  0.1910  0.2130
99994W        W42907  12.344   4.951  28.921 -0.0841 -0.3855 -0.2280
99995W        W42908  13.548  31.320  10.611 -0.1006 -0.3356  0.0518
99996W        W42909  25.409   5.026   6.174  0.0265  0.1743 -0.0545
99997W        W42910  22.843   6.913  26.876 -0.0303  0.1171 -0.1350
99998W        W42911  29.484  34.352   8.634  0.0266  0.0031  0.0764
99999W        W42912  13.783  33.890   7.222 -0.1667  0.2608 -0.2128
    0W        W42913  15.861   4.434   7.946  0.0739  0.2580 -0.2443
    1W        W42914   4.007   8.135   1.999 -0.0366 -0.0498 -0.0394
    2W        W42915  12.640  31.069  10.886  0.0851 -0.0999 -0.2885
    3W        W42916  17.255   2.281   8.431  0.0913  0.0505 -0.1382
    4W        W42917  10.289  34.357   3.981 -0.1346 -0.0390  0.4048
    5W        W42918   9.401   3.478   7.807 -0.0720 -0.0991  0.1533
    6W        W42919  15.800  33.697  10.669  0.0678  0.2948  0.0792
    7W        W42920  11.089  10.081   6.388 -0.0021 -0.1270 -0.0760
    8W        W42921  13.866   1.094   2.570 -0.0760 -0.1042  0.1994
    9W        W42922  17.024   7.268   7.041 -0.0924 -0.0375 -0.2071
   10W        W42923  12.851   7.937   9.057  0.4293 -0.0264 -0.1255
   11W        W42924  29.092   6.736   5.769  0.1820  0.1499 -0.2448
   12W        W42925  19.523  14.227  29.487  0.2526 -0.0335  0.2438
   13W        W42926  14.502  11.609   1.436  0.0930 -0.0670  0.2547
   14W        W42927  23.440   8.522   6.564  0.1800  0.0730  0.1305
   15W        W42928  28.388  34.054   7.800 -0.1314 -0.1154  0.0568
   16W        W42929  14.883  31.414  11.029  0.0243  0.2029  0.2623
   17W        W42930   9.780   3.758  13.149  0.4199 -0.3366 -0.0437
   18W        W42931  15.672   5.601  10.200  0.1133  0.0356  0.2959
   19W        W42932  27.014   0.141   7.703  0.0058  0.1077 -0.0282
   20W        W42933  13.957  19.130   8.642 -0.2234 -0.3464  0.0950
   21W        W42934  15.255   3.609  10.643  0.2493  0.0908  0.0409
   22W        W42935  25.875  17.622   4.145 -0.1588 -0.0632 -0.1658
   23W        W42936  11.427   1.588  11.906 -0.0673  0.0693  0.0013
   24W        W42937  15.646  11.649   6.222 -0.1026 -0.1157 -0.2176
   25W        W42938  18.200  18.017   1.515 -0.1120  0.2420  0.1310
   26W        W42939  18.788  14.756   1.639 -0.1065 -0.3086  0.0321
   27W        W42940   4.666  10.492   4.252 -0.1017  0.1012 -0.0360
   28W        W42941  15.508   1.137  29.145 -0.0293 -0.1560  0.4954
   29W        W42942  19.021   1.232  29.287  0.1694 -0.0975 -0.4724
   30W        W42943  15.199   1.974   7.240  0.2103 -0.1631  0.3273
   31W        W42944  23.019   1.563   3.289  0.0444 -0.0058 -0.1639
   32W        W42945   3.191  10.454   8.994  0.0530  0.0616 -0.3340
   33W        W42946  11.264  32.871   6.990 -0.2323  0.0596  0.1472
   34W        W42947  21.863   1.478   9.649 -0.0050 -0.2524  0.1242
   35W        W42948  15.008   0.694  10.410 -0.2121 -0.1005  0.0989
   36W        W42949  10.727   0.355   0.748  0.0619  0.2028 -0.0871
   37W        W42950  20.643   7.088   2.155 -0.1370  0.2420 -0.1703
   38W        W42951  14.425   2.502   1.395 -0.1005 -0.2765 -0.3760
   39W        W42952  17.876   6.193  29.127  0.1105 -0.1046 -0.0825
   40W        W42953  20.882   2.105   6.456  0.1199 -0.1310 -0.0750
   41W        W42954  33.204   4.451   9.443 -0.0030 -0.0402  0.2300
   42W        W42955  13.910  21.570   0.092 -0.2862  0.0623  0.1327
   43W        W42956  14.728  18.799   3.933  0.0395 -0.3530  0.1943
   44W        W42957  15.970   7.200   7.863  0.3308  0.3901  0.1734
   45W        W42958  17.271   1.927   0.934 -0.3644  0.0719  0.1243
   46W        W42959  28.723  11.872  26.548  0.0886  0.0967  0.0144
   47W        W42960   8.920   9.507   5.940 -0.0466  0.0336  0.2396
   48W        W42961   6.941  28.514  10.350 -0.0298  0.0573  0.1020
   49W        W42962  21.782  29.010   9.215  0.0814 -0.3943 -0.4705
   50W        W42963  16.430   8.164   6.104 -0.1729  0.0831 -0.2107
   51W        W42964  23.180  34.432   6.353  0.3269 -0.1468 -0.3237
   52W        W42965  21.018  10.825   1.693  0.1722  0.1937 -0.1873
   53W        W42966  16.136  21.094   8.215  0.0575  0.4620 -0.1355
   54W        W42967  13.256  33.769   4.098 -0.3359 -0.0918  0.4744
   55W        W42968  21.476  12.324   5.406  0.1595 -0.2004  0.0767
   56W        W42969  13.373  32.509  25.680  0.0201 -0.3604 -0.0710
   57W        W42970  31.800   4.971   8.928  0.2076 -0.0533  0.0127
   58W        W42971  14.327   1.546   7.867  0.2473 -0.1631 -0.3330
   59W        W42972  22.062  31.046   7.415 -0.0530  0.0684  0.1035
   60W        W42973  19.686   5.264   4.708 -0.0242 -0.3573 -0.0161
   61W        W42974  30.010   6.357   3.906  0.2878 -0.1900  0.2305
   62W        W42975  18.813   1.341   7.869 -0.0719  0.0599 -0.1568
   63W        W42976   6.217   5.258   7.290 -0.0965 -0.0984 -0.1517
   64W        W42977  21.551  31.083   0.510 -0.1564  0.0353 -0.3269
   65W        W42978  14.239   5.691   4.310  0.0008 -0.1842  0.2632
   66W        W42979  10.954   1.478  11.079  0.1909  0.1787  0.0964
   67W        W42980  14.262  33.149  11.658  0.0516 -0.0271  0.1591
   68W        W42981  23.220  32.465   3.442  0.2341  0.2534 -0.1391
   69W        W42982  14.273   0.655  10.363  0.2795  0.1438  0.2859
   70W        W42983  28.265   0.325   5.796 -0.0430 -0.1108 -0.3645
   71W        W42984  12.252   8.780   2.925  0.2701  0.1519 -0.1062
   72W        W42985  17.389   5.021   3.887  0.0442  0.1730  0.0415
   73W        W42986  17.890   8.978   1.599 -0.2765  0.1317  0.1003
   74W        W42987  24.758   1.941   9.214  0.1495 -0.2032 -0.2680
   75W        W42988   4.180   8.359  27.334  0.0858  0.0822 -0.1856
   76W        W42989  21.692   2.104  27.003  0.2024  0.0099  0.0767
   77W        W42990  14.055   1.880   2.386  0.0122  0.3058 -0.0809
   78W        W42991  18.609   6.178   6.122 -0.1952  0.0076  0.1324
   79W        W42992  15.168   3.466   7.920  0.1368 -0.0728 -0.0059
   80W        W42993  15.463  20.988   5.091 -0.5545 -0.1183 -0.0665
   81W        W42994  21.784   3.643   6.508 -0.3063 -0.1925 -0.0781
   82W        W42995   8.604  12.912   4.612  0.3696 -0.1169 -0.0646
   83W        W42996  12.497  33.409  10.540 -0.2282  0.1686  0.0786
   84W        W42997  18.209   2.638   7.268  0.1640  0.0294 -0.3473
   85W        W42998  21.231  16.822   0.891 -0.2015  0.2159 -0.0027
   86W        W42999   6.208  32.595  10.725 -0.2204 -0.4557  0.0998
   87W        W43000   5.604  13.344   7.923 -0.4816  0.0747  0.0192
   88W        W43001  18.955   5.243   6.437 -0.1340  0.2249  0.1663
   89W        W43002  19.719   1.232   4.473 -0.1101  0.1329  0.0392
   90W        W43003  12.526   5.329   6.527 -0.2089  0.1080 -0.2717
   91W        W43004  14.277  14.899   5.622 -0.1676  0.1678  0.0258
   92W        W43005  21.223   3.742   8.506  0.0944  0.0667  0.0642
   93W        W43006   5.489   8.743  10.467 -0.1039  0.0238  0.0747
   94W        W43007   5.613  26.584   2.264 -0.1347  0.0603  0.1881
   95W        W43008  21.088  30.163   1.697 -0.0176 -0.3069  0.1181
   96W        W43009   6.304   7.135   7.989  0.2364  0.1867  0.1969
   97W        W43010  28.709  27.669  23.810  0.2109  0.0136 -0.0524
   98W        W43011   6.031   3.698  11.375 -0.2078 -0.1667 -0.0176
   99W        W43012  24.227  32.538   6.075  0.2648 -0.1453 -0.1202
  100W        W43013  13.078   9.311   4.597 -0.4474 -0.2577  0.0890
  101W        W43014   7.570   1.041   6.803 -0.0899  0.0716  0.1234
  102W        W43015  19.514  19.688   3.683 -0.1638 -0.2505  0.0733
  103W        W43016   8.632  31.450   8.142  0.4030 -0.0805 -0.0305
  104W        W43017   7.672  34.235   4.277  0.0105 -0.6540 -0.1047
  105W        W43018  22.815  18.329  21.869 -0.0601  0.2406 -0.0751
  106W        W43019  22.123  32.528   9.474 -0.0476 -0.4064 -0.0385
  107W        W43020  15.082  11.189  24.807  0.1292 -0.0947  0.2276
  108W        W43021  14.917   8.178  10.081  0.0566  0.3453 -0.0684
  109W        W43022  21.639   2.082   4.983  0.3771  0.1495 -0.1240
  110W        W43023  25.441   5.938   6.600 -0.1070 -0.0461 -0.1802
  111W        W43024  12.619   1.493   9.806 -0.1687 -0.3720  0.1934
  112W        W43025  19.824   1.339  26.835  0.0232 -0.0093 -0.3244
  113W        W43026   7.081   0.842   0.988  0.2077 -0.1519  0.1596
  114W        W43027   9.829   2.642  11.621 -0.1263 -0.0869 -0.0429
  115W        W43028  27.405   8.199  10.154 -0.2471  0.0258 -0.0416
  116W        W43029   7.075   1.914  10.692 -0.4135 -0.2898  0.1769
  117W        W43030   8.814   6.927   6.093  0.0936 -0.0596  0.2592
  118W        W43031  18.201   7.621   9.691  0.0662 -0.3536 -0.1315
  119W        W43032   9.419  10.783   8.529 -0.4293 -0.1990 -0.2838
  120W        W43033   1.878   5.800   3.820 -0.2059 -0.3237 -0.1174
  121W        W43034  21.440  10.423  28.625  0.2035 -0.3894  0.1031
  122W        W43035  16.084  24.715   4.913 -0.0653  0.1695  0.1003
  123W        W43036  19.579   2.003   9.276 -0.0312  0.1574  0.0755
  124W        W43037   5.920   4.008  11.861  0.0528  0.1118  0.1978
  125W        W43038  13.468  31.226  28.674  0.1229 -0.0672 -0.0025
  126W        W43039  22.318  31.832   8.521  0.0986  0.4026 -0.2318
  127W        W43040  20.233  21.401   5.385 -0.1143  0.0263 -0.2218
  128W        W43041  20.738  11.181   3.094  0.0379 -0.1824 -0.1919
  129W        W43042  20.002   3.127   6.386 -0.4211  0.0293  0.0370
  130W        W43043  15.575  25.828  29.500 -0.2360  0.2106 -0.0488
  131W        W43044   8.612  30.534  10.440 -0.0872 -0.0749  0.0108
  132W        W43045  20.620  16.034  27.333  0.3497  0.0412  0.2226
  133W        W43046  21.110   8.261   0.390  0.2027  0.0799  0.0199
  134W        W43047   7.886  30.978   7.236  0.1770 -0.2103  0.0084
  135W        W43048  30.963  28.347   7.776  0.2525 -0.3042  0.0885
  136W        W43049  17.351  28.149   5.303 -0.0853  0.0480 -0.2537
  137W        W43050  12.621  24.179   4.483  0.0858  0.4076  0.1345
  138W        W43051  14.368   7.014   1.602  0.1077  0.0235 -0.0816
  139W        W43052  13.692   4.856   4.769  0.0314 -0.1455 -0.2047
  140W        W43053  21.157  11.744  17.537  0.1829 -0.0486  0.0625
  141W        W43054  20.636   3.239   4.127  0.2468  0.1383 -0.0298
  142W        W43055  25.994  13.133   4.058  0.3462  0.0446  0.0723
  143W        W43056  19.798   8.462   7.382  0.0458 -0.0065 -0.3690
  144W        W43057  12.408  14.266   6.754  0.0592 -0.0560 -0.0172
  145W        W43058  20.404   5.518  10.782 -0.4356 -0.1382  0.2252
  146W        W43059  16.742   7.595   6.780  0.2603  0.0824 -0.0136
  147W        W43060  20.271  34.401   3.522 -0.0178 -0.2392  0.1883
  148W        W43061  17.953  10.738   1.548  0.2204 -0.1869  0.0919
  149W        W43062  17.497  10.594  29.097  0.4110 -0.2118 -0.0584
  150W        W43063  12.572  32.230  26.613  0.2866  0.1649  0.0579
  151W        W43064  11.607   3.499  11.588 -0.1058  0.2137  0.0095
  152W        W43065  18.855   3.614  10.234  0.2194  0.3262 -0.0144
  153W        W43066  23.959   7.703  29.255 -0.4048  0.0709  0.1739
  154W        W43067  21.573  16.000  28.786 -0.2486 -0.1327  0.2996
  155W        W43068  14.117   0.493   4.919 -0.1827 -0.1712  0.1276
  156W        W43069  14.714  15.318  23.238  0.1178 -0.0751 -0.2466
  157W        W43070  17.569   8.349  25.167  0.2148 -0.0166  0.0902
  158W        W43071  10.158   4.053   0.682  0.2100 -0.0218 -0.3623
  159W        W43072  13.798   8.490   5.173  0.1936 -0.0854  0.0058
  160W        W43073  18.777   9.387   6.953  0.0787 -0.2055 -0.0554
  161W        W43074  18.156   8.339  20.317  0.0441  0.0426  0.1547
  162W        W43075  12.739  31.527   9.441  0.0633  0.2069  0.1598
  163W        W43076  33.340   4.933   5.784 -0.0218 -0.2849 -0.2141
  164W        W43077   4.439   0.996   6.112  0.2772  0.2277  0.0352
  165W        W43078  18.568   2.650   2.682  0.3482  0.3305 -0.0956
  166W        W43079  13.843   7.821  24.030  0.0062  0.0556  0.2383
  167W        W43080  17.016  10.037   2.622  0.0885  0.2205 -0.3376
  168W        W43081  12.649   5.524  20.680 -0.2062  0.2501 -0.0192
  169W        W43082  22.318  12.392   7.585 -0.2080  0.0426 -0.1546
  170W        W43083   8.195   9.736   4.413  0.1684  0.2138 -0.0393
  171W        W43084   6.664  24.180   3.819  0.0868 -0.0257 -0.0776
  172W        W43085  25.841  16.061   2.905  0.1120  0.0307  0.0612
  173W        W43086  20.264   8.893   5.697  0.0939  0.2213  0.1148
  174W        W43087   6.547  10.216  22.415 -0.2511 -0.0327  0.3418
  175W        W43088  11.010  33.972  11.984 -0.1925  0.1051  0.0443
  176W        W43089  15.395  33.335  23.802 -0.1143  0.1638  0.0615
  177W        W43090  23.407  13.425   3.706  0.0709 -0.0765 -0.1808
  178W        W43091  19.892  13.547  26.276  0.1120 -0.0414  0.0676
  179W        W43092  12.464  32.159   2.517  0.0774  0.2486  0.0474
  180W        W43093  13.512  20.145   3.528  0.1062  0.0137 -0.5198
  181W        W43094   8.184  12.063   5.309  0.0925  0.2336  0.1569
  182W        W43095  19.533  13.786  24.087 -0.3067 -0.0992 -0.0026
  183W        W43096  14.148   1.955  21.175  0.1551 -0.0844  0.1212
  184W        W43097  19.166  18.142  23.427 -0.6681  0.1554 -0.0221
  185W        W43098  19.186  14.758   3.138 -0.1880 -0.1416  0.2448
  186W        W43099  21.862  17.203   6.421  0.0829  0.0616  0.1299
  187W        W43100  15.249   8.611   3.676 -0.0154  0.3773  0.1960
  188W        W43101   6.750  34.238   1.778  0.1249 -0.2312 -0.1218
  189W        W43102  10.463  14.123   8.758  0.0019  0.1468 -0.1381
  190W        W43103  21.632   4.858   9.611  0.1290  0.3234 -0.0502
  191W        W43104  13.557  12.230   7.334  0.0162  0.3347 -0.2017
  192W        W43105  18.217  32.571   6.119  0.0017 -0.2634 -0.0063
  193W        W43106  24.105   3.870  24.711  0.4286  0.3794 -0.3270
  194W        W43107  14.721   4.947   6.681  0.0713  0.0249 -0.2764
  195W        W43108  11.362   2.391   6.185 -0.0851  0.1156 -0.0563
  196W        W43109  17.024  13.773  27.456  0.0624  0.1336 -0.0566
  197W        W43110  21.514   9.894   8.518 -0.0706 -0.0149  0.1082
  198W        W43111  13.747  13.864  26.224 -0.0193  0.1850  0.4709
  199W        W43112  18.734   5.194   5.894  0.1646 -0.1595  0.1857
  200W        W43113  12.940  12.005   8.644  0.1810  0.1632 -0.0184
  201W        W43114   3.778  12.922   5.970  0.1165 -0.4222  0.1469
  202W        W43115  17.692   4.632  28.656 -0.0539 -0.2573 -0.4355
  203W        W43116  10.518   1.147  26.684 -0.3396 -0.0606 -0.2690
  204W        W43117   4.549   9.044  18.876  0.1376 -0.1903 -0.0555
  205W        W43118  15.750  32.795  25.627 -0.0899  0.2614 -0.1274
  206W        W43119  12.356   7.371   8.394 -0.0825  0.2150 -0.0666
  207W        W43120  12.742   9.424  26.364  0.1422 -0.1639 -0.2030
  208W        W43121  25.483   8.098   5.232 -0.0277 -0.0281 -0.0646
  209W        W43122  18.702   8.145   4.338 -0.0618  0.3436  0.0680
  210W        W43123  16.166  32.105  26.325  0.1738  0.0966  0.0067
  211W        W43124  30.183  14.004   4.306  0.0874 -0.1278 -0.0241
  212W        W43125  22.942   4.235   7.763  0.0755 -0.0060  0.1102
  213W        W43126  28.711  30.832  29.071 -0.2106  0.0502 -0.0940
  214W        W43127  10.188   3.012  28.153 -0.0522  0.2094 -0.1305
  215W        W43128   8.282  19.574   8.493 -0.1616  0.1191  0.2031
  216W        W43129  12.818   9.505   9.139  0.0049 -0.1177 -0.2257
  217W        W43130  21.854   7.385   5.865 -0.3417  0.0370  0.1860
  218W        W43131  28.681  22.963  14.160  0.1386  0.2973  0.1129
  219W        W43132   2.909   4.551  23.982 -0.4559  0.1307 -0.3435
  220W        W43133  20.863  11.356   9.153 -0.0221 -0.0360 -0.3429
  221W        W43134  15.696   6.045  27.646 -0.0317  0.0209  0.0267
  222W        W43135  11.363  32.303   4.295  0.0591 -0.2048  0.1087
  223W        W43136  10.477   9.415   8.809 -0.0084  0.2212  0.0921
  224W        W43137  15.195  20.510   3.356 -0.2301 -0.0357  0.0997
  225W        W43138   4.052   4.845   6.203  0.0403 -0.1351  0.0548
  226W        W43139   2.754   7.470   0.828  0.1130 -0.2722  0.1047
  227W        W43140   9.747   9.841  20.680 -0.3215 -0.0014 -0.3548
  228W        W43141  18.865   8.832  19.854 -0.2771 -0.1581 -0.0205
  229W        W43142  14.763   6.551   7.534 -0.1827 -0.3137  0.2915
  230W        W43143   6.769   3.441  13.354 -0.1064  0.2425 -0.3055
  231W        W43144  12.127   7.614  29.060 -0.2260 -0.1093 -0.0190
  232W        W43145   8.683   7.923  11.401 -0.0458 -0.2684 -0.0739
  233W        W43146  12.192  15.521   6.134 -0.1399 -0.3519  0.0136
  234W        W43147  22.159   4.452   8.487 -0.2190  0.1530  0.0375
  235W        W43148   1.353   2.030   3.311  0.1483 -0.0888 -0.3165
  236W        W43149  20.816  13.452  23.383 -0.4785  0.0905  0.1161
  237W        W43150  10.805   1.268   9.435  0.0441 -0.1296 -0.2232
  238W        W43151  12.659  16.539   6.267 -0.4128  0.0307  0.0677
  239W        W43152  10.697  10.069   6.060 -0.0639  0.0827  0.3545
  240W        W43153  23.003   8.508   5.055  0.1449 -0.1337  0.2357
  241W        W43154  12.276   6.981   9.263  0.2752  0.0704  0.1443
  242W        W43155  26.722   7.184  27.902  0.0791  0.2193  0.1417
  243W        W43156   7.116  32.503   5.308  0.0744 -0.2066  0.1224
  244W        W43157   1.596   3.758  11.803 -0.2168  0.0352  0.1668
  245W        W43158  15.925  15.163   8.595  0.2805 -0.0733  0.1069
  246W        W43159  14.605   0.860   6.656  0.0290  0.3442  0.0197
  247W        W43160   2.900   8.650   0.751 -0.0989  0.1141 -0.0677
  248W        W43161  20.049  15.440  22.034 -0.1589 -0.1464  0.3005
  249W        W43162  21.895   4.028  28.184  0.0711  0.2491  0.1776
  250W        W43163  11.087   1.656   7.736 -0.0967  0.2096  0.4142
  251W        W43164  33.626   9.500  28.373 -0.0346  0.0726  0.0662
  252W        W43165  24.341   1.404  28.224  0.1185 -0.0663  0.0677
  253W        W43166  19.635  32.694  25.042  0.2094 -0.1629  0.2791
  254W        W43167  10.981  12.603   2.469 -0.1423 -0.5984  0.0131
  255W        W43168  17.540  13.490  26.929 -0.0651  0.2761 -0.0830
  256W        W43169   7.250   8.144  29.253 -0.0017  0.2476 -0.1201
  257W        W43170  16.332  10.233   3.889 -0.1635 -0.1920 -0.0517
  258W        W43171  10.632  10.054   9.430  0.2271  0.1786  0.0410
  259W        W43172   9.002   6.359   4.595 -0.2565 -0.0684  0.2719
  260W        W43173  16.586  16.126  27.924 -0.0800  0.1407  0.0264
  261W        W43174  14.435   9.413  22.959  0.1232 -0.1831  0.0500
  262W        W43175  22.610   8.341   4.018 -0.2824 -0.1291 -0.0200
  263W        W43176   9.410   4.819  27.240 -0.2222 -0.0028  0.0408
  264W        W43177  14.716  13.679  15.676  0.3072 -0.0347 -0.2801
  265W        W43178   7.251   8.186  17.284 -0.4052 -0.2733  0.2566
  266W        W43179  13.338   1.681  29.292  0.1627 -0.1974  0.0275
  267W        W43180   6.132   0.790   4.998 -0.4772  0.0139  0.1075
  268W        W43181  17.277  10.032  23.304  0.0476 -0.0243  0.2260
  269W        W43182  13.402  20.225   9.508  0.0870  0.3691  0.0623
  270W        W43183  19.786  13.940   5.129 -0.4506 -0.3995 -0.1060
  271W        W43184  27.464  13.157   1.840  0.2182  0.0900  0.2539
  272W        W43185  17.201  15.910  24.655 -0.0750 -0.2716 -0.0031
  273W        W43186  22.278   7.211   8.298 -0.1399 -0.1583  0.1894
  274W        W43187  25.282  13.192   6.270  0.0589  0.0007  0.2948
  275W        W43188  10.319  11.105   9.280  0.2923 -0.0956 -0.3095
  276W        W43189   6.825   1.352  27.446  0.0396 -0.1905 -0.1701
  277W        W43190  10.023  19.197   5.676 -0.2278 -0.2446  0.2979
  278W        W43191  16.278   5.442  25.119 -0.1475  0.1466  0.0529
  279W        W43192   6.961   2.207  10.267  0.2229 -0.0267 -0.1872
  280W        W43193  17.476   3.663  28.903 -0.0940  0.2203  0.1450
  281W        W43194  15.071   7.541   1.353  0.2285 -0.0281  0.3354
  282W        W43195  17.651  29.919   6.549 -0.2614 -0.4784 -0.0749
  283W        W43196  15.338   2.895   2.004 -0.3357 -0.2901 -0.1579
  284W        W43197   4.736  30.591  24.377 -0.0532 -0.2143 -0.0123
  285W        W43198  14.548   5.419   4.723 -0.0907 -0.0300 -0.1531
  286W        W43199  23.175  12.214   2.259 -0.0019 -0.0870  0.0486
  287W        W43200  20.114   9.597   4.113 -0.2060 -0.1764 -0.2360
  288W        W43201   8.582  28.654  20.630  0.0655  0.0946 -0.0420
  289W        W43202  16.099  10.849   9.056  0.0642 -0.0891 -0.2028
  290W        W43203  19.583   8.258   6.014  0.1560  0.0067 -0.1356
  291W        W43204  21.519   8.195   1.962 -0.2723  0.0047  0.2049
  292W        W43205  14.316  12.218  26.500  0.0974  0.2373  0.0465
  293W        W43206  19.028  14.719  28.252 -0.0988 -0.2239  0.3295
  294W        W43207  16.194  12.226  25.728  0.1741  0.2443 -0.1814
  295W        W43208  26.770   5.680   2.791 -0.1221 -0.4059 -0.2681
  296W        W43209  15.934  11.573   2.546  0.1547 -0.1286  0.1044
  297W        W43210  16.570   3.594   5.110  0.0572  0.2207  0.2952
  298W        W43211   7.947   6.182  23.850 -0.0232 -0.0649 -0.1153
  299W        W43212  10.858   4.475   5.217 -0.0628 -0.1366 -0.2816
  300W        W43213   9.634   6.410  10.029 -0.0844  0.0347  0.1349
  301W        W43214   4.221   2.226   4.448  0.2390 -0.1254 -0.0700
  302W        W43215  17.844  14.377  29.683  0.2145  0.3475  0.6109
  303W        W43216  17.027  13.404  29.777 -0.0133  0.2506  0.0811
  304W        W43217   9.029  29.377  25.003 -0.0212 -0.0061  0.0186
  305W        W43218  15.562  12.565  24.424  0.0975 -0.2598 -0.0321
  306W        W43219  14.853  10.309   6.531 -0.1092  0.0428  0.1175
  307W        W43220  17.309   0.606  23.367 -0.3073 -0.1497  0.1576
  308W        W43221  16.033   5.705   7.404  0.0736 -0.0293  0.0036
  309W        W43222  11.056   9.249   3.135 -0.0840 -0.1853 -0.0964
  310W        W43223  14.780  31.540  29.456  0.0730 -0.3458 -0.0747
  311W        W43224  10.983  19.050   0.601  0.4368  0.0815 -0.0382
  312W        W43225  11.641  13.375  29.730 -0.1696  0.0382 -0.2129
  313W        W43226  17.126  12.663  25.511  0.0663 -0.0480 -0.0727
  314W        W43227  15.631   5.123   8.175 -0.0411 -0.0260  0.1497
  315W        W43228   8.432  33.844  25.140 -0.0354 -0.0182  0.0678
  316W        W43229  15.142  13.463   4.969 -0.2523 -0.0135  0.0412
  317W        W43230  12.320  11.988  21.452 -0.0333 -0.3553  0.0024
  318W        W43231  20.934   5.685   3.403 -0.0181  0.0594  0.2430
  319W        W43232  11.422  11.556  27.822  0.2618 -0.0973  0.1140
  320W        W43233  18.322   7.610  25.778 -0.1396 -0.0917  0.4409
  321W        W43234   6.405   4.043  25.102  0.2167  0.3031  0.3206
  322W        W43235  17.390   3.890   9.841  0.1231 -0.1552 -0.1507
  323W        W43236   6.506   9.163   9.643  0.0231  0.0226  0.0824
  324W        W43237  29.514  19.190   0.773  0.1928  0.0984  0.1515
  325W        W43238  18.227  30.560   2.350  0.0595  0.2394  0.1400
  326W        W43239   4.397   7.351  21.620 -0.0320  0.1060  0.1980
  327W        W43240  15.957   6.755   2.440 -0.1044 -0.1781  0.1533
  328W        W43241  14.762  13.058   8.283  0.0272  0.0940 -0.1341
  329W        W43242  19.868  14.169  26.238  0.0303 -0.2585 -0.2914
  330W        W43243  16.604  19.218   3.899 -0.0820  0.1612  0.1510
  331W        W43244  23.608   8.719   3.857 -0.0383 -0.0753 -0.4149
  332W        W43245  18.772  11.210  28.340  0.2111  0.3989 -0.2370
  333W        W43246  16.695   6.787  27.066  0.0561 -0.3117 -0.2791
  334W        W43247  13.925   3.396  25.547 -0.0359 -0.1677  0.1935
  335W        W43248  20.824   1.052   5.987 -0.3643 -0.0332  0.1484
  336W        W43249  14.524   6.723   2.716  0.1408  0.0494  0.2872
  337W        W43250  15.786   9.096   4.835 -0.1036  0.4264 -0.0642
  338W        W43251  19.326  12.265   5.944  0.1000  0.0126  0.0228
  339W        W43252  14.999   9.071   4.482 -0.1728 -0.3066  0.0331
  340W        W43253   8.546   9.118   5.223 -0.0617 -0.0753 -0.0045
  341W        W43254  23.386  32.613  27.910  0.3504  0.1620 -0.1366
  342W        W43255  16.638  25.935  27.440 -0.2417 -0.2363  0.1618
  343W        W43256   4.587   2.769   5.295 -0.3536  0.1107 -0.0601
  344W        W43257  18.415   7.522  27.651  0.2527  0.1622  0.2625
  345W        W43258  21.798  32.652   7.780 -0.0719  0.1475 -0.3578
  346W        W43259  12.012   1.963   1.435 -0.2270 -0.0242  0.3805
  347W        W43260  29.808  11.350  23.132 -0.0451  0.1743  0.0670
  348W        W43261  10.949   7.553  25.805  0.1748  0.2392  0.1083
  349W        W43262  12.389  31.465  11.543  0.3714 -0.1520  0.1685
  350W        W43263  20.973  12.955   6.514  0.1320  0.0365 -0.1138
  351W        W43264  10.185   6.083  26.282  0.0291  0.1298  0.1186
  352W        W43265  17.398   3.593   5.388  0.1246 -0.1946 -0.2154
  353W        W43266  24.309  16.806  28.995  0.1746  0.0023 -0.0749
  354W        W43267  10.539  15.852   7.781 -0.0785 -0.2224 -0.3282
  355W        W43268  15.235   6.089   0.485  0.1800  0.2398 -0.0740
  356W        W43269  11.033   2.998   2.581 -0.0599  0.1211 -0.1714
  357W        W43270   5.219   8.425   6.397 -0.0249  0.1032 -0.1947
  358W        W43271  18.342   9.995   0.552 -0.0368 -0.2884  0.1651
  359W        W43272   9.667   5.494  27.818  0.1476 -0.0727 -0.0329
  360W        W43273  23.955   9.499  29.417 -0.0165 -0.1706 -0.2539
  361W        W43274  13.306  16.944  25.974  0.0363  0.0513 -0.1610
  362W        W43275  15.969   1.902  24.186  0.0715 -0.1648 -0.1977
  363W        W43276  13.835  12.539   0.293  0.2378 -0.4750  0.2162
  364W        W43277   9.543   3.514   5.623  0.2429  0.2448  0.2443
  365W        W43278  29.236   2.249   0.372 -0.1571 -0.1191  0.1236
  366W        W43279  22.773  34.315   5.899  0.0412 -0.2388 -0.0660
  367W        W43280  24.073   6.706   8.335  0.0023  0.1415  0.0062
  368W        W43281  12.188  10.810  10.639 -0.2387 -0.0852 -0.1628
  369W        W43282   3.398   1.773  27.282 -0.0108 -0.1763  0.2405
  370W        W43283  13.087   5.898  23.719  0.0009  0.0617 -0.2030
  371W        W43284  23.483   4.452  25.591  0.1262  0.0546 -0.3631
  372W        W43285  13.208  12.655  18.940 -0.1599  0.2093  0.1955
  373W        W43286   8.240  12.692   4.924 -0.1013  0.0035  0.0221
  374W        W43287  14.642  17.839   5.898 -0.4049  0.1340  0.1600
  375W        W43288   9.587   7.320  16.787 -0.0537  0.2424  0.1311
  376W        W43289  20.043   8.053  27.052  0.0270 -0.2686 -0.2911
  377W        W43290  23.474   7.783   4.811 -0.0585 -0.0469  0.0079
  378W        W43291  22.416  15.353  18.867  0.1995  0.5615 -0.0861
  379W        W43292  13.955   7.215   8.729 -0.1558 -0.0481  0.0352
  380W        W43293   8.565   9.025  26.752  0.1406 -0.0855  0.4187
  381W        W43294  19.297   4.663   0.642 -0.1618 -0.2825  0.1872
  382W        W43295  15.008   9.828   6.616  0.0610  0.0584 -0.0156
  383W        W43296   5.906  10.401   3.084  0.1592  0.2833  0.2181
  384W        W43297   2.853   4.289  28.558 -0.2564 -0.1070  0.0820
  385W        W43298  17.474   3.982   1.220 -0.2149 -0.1723 -0.0442
  386W        W43299  21.791  16.299   4.773  0.0678 -0.0356  0.0227
  387W        W43300   9.605  10.749   8.978 -0.2653 -0.1497  0.2325
  388W        W43301  30.088   8.523   4.578  0.0437  0.0799 -0.0630
  389W        W43302   9.008   9.390  26.939 -0.1091  0.0742  0.2386
  390W        W43303  22.198   4.935   7.704 -0.0838 -0.0105 -0.0787
  391W        W43304  16.124   3.769  23.592  0.0313  0.3360  0.0119
  392W        W43305  21.680  12.635  27.658  0.0810  0.0780 -0.4525
  393W        W43306  12.442  15.972  28.211 -0.1925  0.0011 -0.0144
  394W        W43307  20.046   9.521   1.131  0.0948 -0.0543  0.4913
  395W        W43308  20.316   6.856   7.963  0.1012 -0.3328  0.0339
  396W        W43309  13.468   6.829   3.832 -0.1773  0.1451  0.1846
  397W        W43310  18.138  12.852   3.151 -0.4164  0.0139  0.0756
  398W        W43311  15.188   1.525   7.684  0.0643 -0.3398 -0.0663
  399W        W43312   5.865   0.604  11.339 -0.2627  0.0916 -0.3104
  400W        W43313  25.686   5.671  25.502 -0.1753 -0.2869  0.1477
  401W        W43314  24.619  23.744   4.495 -0.0809 -0.0680 -0.0189
  402W        W43315  12.204   7.489  25.913 -0.0153  0.0909 -0.0914
  403W        W43316   7.701   4.303  12.984  0.1526 -0.1740 -0.0563
  404W        W43317  15.872   0.439   2.090  0.2172 -0.0717 -0.0830
  405W        W43318  11.578  15.617   0.796 -0.0667 -0.0530  0.1368
  406W        W43319  18.627  33.893   3.672 -0.0529  0.1914  0.1200
  407W        W43320   6.272  11.072   1.513 -0.2697 -0.1339 -0.2662
  408W        W43321   7.516   6.922   7.945 -0.1875 -0.1984 -0.0892
  409W        W43322  11.260  10.128   0.008  0.1823  0.1158  0.0202
  410W        W43323  15.352  18.438   1.652 -0.0797  0.3156 -0.2471
  411W        W43324  25.063  12.526  29.030  0.0275 -0.3901 -0.2806
  412W        W43325  26.788   5.106   4.389  0.0315 -0.1494 -0.0134
  413W        W43326  12.908  18.659  23.331  0.0205  0.1469  0.0734
  414W        W43327   7.120   2.067  27.530 -0.4973  0.0039 -0.3368
  415W        W43328   7.332  11.931   5.760  0.0016 -0.1113  0.1107
  416W        W43329  14.146  16.760   8.246 -0.0556  0.1481 -0.1391
  417W        W43330  23.093   4.354   4.301 -0.0424 -0.0229 -0.0528
  418W        W43331  14.069  19.724   8.104  0.3459 -0.1448  0.0509
  419W        W43332  15.217   7.381  28.795  0.0237  0.0077 -0.1256
  420W        W43333   6.343   7.040  26.997 -0.4673 -0.1530 -0.1517
  421W        W43334  23.824  21.885   6.246  0.1219 -0.0598  0.0198
  422W        W43335  24.324   8.468   0.203 -0.0688  0.0332  0.0667
  423W        W43336   8.754  17.800   8.230 -0.1161  0.0267  0.0190
  424W        W43337  21.798   5.978   5.946  0.1552 -0.2436 -0.0435
  425W        W43338  13.581  30.943  17.067 -0.1731  0.2827 -0.0668
  426W        W43339   9.457   4.058   4.766  0.2237 -0.2312 -0.3015
  427W        W43340  22.525   5.517   6.974  0.1631  0.0385  0.2948
  428W        W43341  12.777   3.289   8.020 -0.1672  0.3593  0.3550
  429W        W43342   5.674  29.739   0.616  0.2889  0.2268  0.2459
  430W        W43343  26.522   6.355   4.089  0.1462  0.3133  0.1791
  431W        W43344  20.083   8.297   2.285 -0.3261  0.2253  0.1047
  432W        W43345  14.646  10.604   6.167 -0.0919 -0.6073 -0.1864
  433W        W43346  14.719  31.103  27.731 -0.3037  0.3707 -0.1545
  434W        W43347  25.809   9.797  20.837 -0.0686 -0.4038 -0.1109
  435W        W43348  11.505  19.625   8.863 -0.0754  0.3618  0.3063
  436W        W43349   9.498   3.619   6.896 -0.2124  0.0711 -0.1134
  437W        W43350  14.987  10.492  29.061  0.0867  0.3204  0.1023
  438W        W43351  18.663   0.118   8.595 -0.1366  0.2300 -0.0742
  439W        W43352  16.782   1.267  16.596 -0.2097 -0.0321  0.0864
  440W        W43353  28.812   6.774   7.880 -0.0205 -0.0657 -0.1021
  441W        W43354  15.592   1.570  24.798 -0.0615 -0.1202  0.3153
  442W        W43355  17.834   6.238   4.282  0.0120  0.1661 -0.0218
  443W        W43356   3.363  12.317   3.354 -0.2399  0.2624 -0.3126
  444W        W43357  13.468   0.134   8.867 -0.0840 -0.1565  0.0079
  445W        W43358  14.258  31.507   5.069 -0.1317 -0.0808 -0.0336
  446W        W43359   2.051   5.026  11.146  0.2434 -0.1367 -0.2644
  447W        W43360  19.317   7.490  28.842 -0.1212  0.3007  0.2942
  448W        W43361   4.046   0.802  28.451  0.0737  0.3254  0.1468
  449W        W43362  19.537  15.287  24.782 -0.0716  0.0904  0.2548
  450W        W43363  14.851   7.161   6.368  0.0861  0.0082 -0.0697
  451W        W43364  25.146  13.968   8.595 -0.0872  0.0706  0.0759
  452W        W43365  11.532  21.178   4.235  0.1730  0.0481 -0.0134
  453W        W43366  10.066   7.282   5.677 -0.0334  0.2130  0.0683
  454W        W43367  23.117  27.724  25.600  0.5329 -0.3084  0.1623
  455W        W43368   8.570   3.307  10.660 -0.2871 -0.1208  0.0346
  456W        W43369  15.688  26.087   4.621  0.0172 -0.0405  0.0045
  457W        W43370  19.811   8.834   5.313 -0.3732  0.0720  0.0471
  458W        W43371  27.218   9.443   4.164  0.3227  0.1072  0.1584
  459W        W43372  15.270   0.094   3.937  0.2108 -0.2000  0.0775
  460W        W43373  22.520  24.913  29.125  0.0019 -0.0697 -0.0551
  461W        W43374  11.980  34.475  25.897  0.4240  0.1791 -0.2465
  462W        W43375  19.433   4.811  22.135 -0.0891  0.0522  0.1480
  463W        W43376  19.444   9.522   1.658 -0.2956  0.2090 -0.0725
  464W        W43377  17.816   5.405  22.794 -0.2080 -0.1254  0.1425
  465W        W43378  13.965  10.417   1.895  0.0422  0.0745 -0.3146
  466W        W43379  15.933  11.806  25.966 -0.1587  0.0076  0.2406
  467W        W43380  16.523   1.476  10.650 -0.1613 -0.0115 -0.0845
  468W        W43381  17.398   7.654   2.407 -0.2120  0.0478  0.1772
  469W        W43382  22.152  16.496   2.726  0.2200 -0.1839 -0.1380
  470W        W43383  19.400   4.152   4.516 -0.1078 -0.1954 -0.0008
  471W        W43384  15.897   6.376   9.713 -0.1852 -0.0518  0.4073
  472W        W43385  13.450   2.112   8.015 -0.2686  0.2744 -0.0612
  473W        W43386  13.567  13.235  22.967  0.0969 -0.1630 -0.0371
  474W        W43387  17.933   3.566   3.882  0.2005  0.1867 -0.2697
  475W        W43388  12.390  21.320   5.120  0.0770  0.2079 -0.5184
  476W        W43389  22.201   1.311   9.029 -0.1707 -0.0998 -0.3092
  477W        W43390  14.135  18.396   3.266  0.0406 -0.1067 -0.0578
  478W        W43391   5.211  10.670   6.555 -0.0106  0.0528  0.3239
  479W        W43392  13.431   4.415  27.600 -0.2032 -0.1470  0.0675
  480W        W43393  14.147   0.159  29.741  0.0225  0.1756 -0.1601
  481W        W43394  15.507   8.003   0.578 -0.0251 -0.1160  0.2624
  482W        W43395  22.442  19.634  22.580 -0.3436  0.1197  0.2009
  483W        W43396  17.456   3.824   6.191 -0.0862  0.0741 -0.1464
  484W        W43397   1.292  34.009   5.553 -0.0233 -0.0435 -0.2222
  485W        W43398  17.720  17.762  26.196 -0.4503  0.3986 -0.0087
  486W        W43399  14.066  32.444   0.542  0.0190  0.0814  0.2657
  487W        W43400  19.106  15.364  28.398  0.2611 -0.1704 -0.1448
  488W        W43401   3.805  13.796   6.548  0.0697  0.0597 -0.2626
  489W        W43402   8.872  10.433   8.579 -0.0152 -0.0851 -0.0457
  490W        W43403  26.561   2.535  28.671  0.2282 -0.1461  0.1388
  491W        W43404  15.052  32.763   9.608 -0.0440 -0.0569  0.2194
  492W        W43405  21.697   4.128   1.840  0.3464 -0.0541 -0.0701
  493W        W43406  29.261  13.271   0.826  0.1663  0.0104 -0.0204
  494W        W43407  18.685  11.391   7.975 -0.0637  0.3185 -0.1214
  495W        W43408   9.463   6.851   2.672  0.1700  0.0407 -0.1392
  496W        W43409   5.367  13.483  26.657 -0.0249 -0.2938  0.0932
  497W        W43410  18.662   9.987  23.172 -0.0374  0.2345  0.0146
  498W        W43411  16.394   8.438  26.327  0.0851  0.1777  0.1662
  499W        W43412  13.279  20.809   4.058 -0.1225 -0.2208 -0.0881
  500W        W43413   3.912  14.307   4.950 -0.2162 -0.0332  0.2087
  501W        W43414   6.026  14.037  25.655 -0.3210 -0.3433 -0.0164
  502W        W43415  21.589  33.990   5.372  0.0803  0.1258  0.0285
  503W        W43416  33.423  13.542   2.697  0.0501 -0.0267  0.1713
  504W        W43417  16.903   7.766   2.746 -0.1617 -0.1057  0.1368
  505W        W43418  13.094   2.931   6.822  0.2624 -0.2856  0.1109
  506W        W43419   5.699  31.221   0.948  0.0499 -0.1568 -0.2870
  507W        W43420  12.462   4.575   3.470  0.0613  0.1906 -0.2193
  508W        W43421  16.067   1.605  20.139  0.1185 -0.0185 -0.1398
  509W        W43422  14.304  14.148   6.335  0.1578  0.4673 -0.0152
  510W        W43423  13.592   9.506  23.298 -0.2541 -0.1036 -0.3493
  511W        W43424  11.733   6.422  28.718  0.2078 -0.2479  0.3109
  512W        W43425  18.886   3.615   3.921 -0.0987 -0.3544  0.0943
  513W        W43426  22.176   1.080   3.698  0.0909 -0.2845 -0.1763
  514W        W43427  13.999   7.933  19.148  0.0223 -0.0885 -0.2382
  515W        W43428  16.881  16.277  24.453 -0.2854  0.1941 -0.0318
  516W        W43429  16.412   3.291  28.579 -0.1630 -0.2594 -0.3703
  517W        W43430  18.920   6.405   1.441 -0.1178 -0.2458 -0.0733
  518W        W43431  20.813  12.627   8.228 -0.0412 -0.2792 -0.1950
  519W        W43432  17.972   9.054  26.936  0.1887 -0.4156  0.3388
  520W        W43433  14.280  33.772   5.903  0.0491  0.1893 -0.3377
  521W        W43434  10.557  12.572   5.167  0.1871  0.1748  0.1468
  522W        W43435  19.324   6.077   6.656  0.2258  0.2563 -0.0454
  523W        W43436  18.343   2.274  25.526 -0.0600 -0.0573 -0.0876
  524W        W43437  10.305  12.063  27.535 -0.0691  0.1341  0.0433
  525W        W43438  20.603  11.170  26.324  0.0833 -0.3269 -0.1342
  526W        W43439   7.943  18.521   3.139 -0.2467  0.1671  0.0269
  527W        W43440  22.001   8.382  29.489 -0.5268 -0.1733 -0.0474
  528W        W43441  13.788   5.569   4.182  0.0039 -0.0023 -0.2647
  529W        W43442  17.528  10.315   7.132 -0.1489 -0.0141  0.3476
  530W        W43443  18.932  28.564   4.089 -0.1464  0.1333  0.3329
  531W        W43444  11.366   8.471   5.728 -0.1341 -0.2326  0.0686
  532W        W43445   4.819   2.647  10.375  0.1547  0.0202 -0.0335
  533W        W43446  21.236  10.863   4.247  0.0146 -0.1949 -0.0812
  534W        W43447  15.486   5.483  28.059 -0.5604 -0.3388 -0.0586
  535W        W43448  20.000   3.470   1.077 -0.0727  0.2786  0.3748
  536W        W43449  20.405  18.043  28.955 -0.0317 -0.0381  0.0368
  537W        W43450  12.079   5.323  10.929  0.1644  0.2534 -0.2289
  538W        W43451   8.988   4.345  12.335  0.0268  0.1327 -0.1959
  539W        W43452  20.325   0.426   8.242 -0.0538 -0.1266  0.1559
  540W        W43453  32.845  17.198   6.570  0.0866  0.0519  0.0282
  541W        W43454  12.582  32.418   8.183 -0.2098 -0.0134  0.1620
  542W        W43455  33.008  13.917  25.637  0.0466 -0.1307  0.1675
  543W        W43456  19.877  16.707   3.704 -0.1309  0.1560 -0.0061
  544W        W43457   6.746   2.778  11.124 -0.0124 -0.2502  0.2720
  545W        W43458   4.972   0.603  11.102  0.3026 -0.0001  0.2592
  546W        W43459  15.944  20.041  29.596 -0.1603 -0.0387 -0.1568
  547W        W43460  19.865   5.152   5.393 -0.1182  0.2482 -0.3351
  548W        W43461  14.390  14.736   1.008 -0.1223 -0.0689  0.1642
  549W        W43462   5.152  34.109  11.421  0.2125  0.0589  0.3616
  550W        W43463   5.119  29.284  25.229  0.0753 -0.0956 -0.0867
  551W        W43464  10.474  13.518  27.184 -0.1756 -0.1298  0.0340
  552W        W43465   8.559   4.181  11.442  0.1047 -0.0581  0.2604
  553W        W43466   0.946   0.780   3.491  0.0033  0.0750  0.1571
  554W        W43467  14.906  13.970   8.441  0.1427  0.0695  0.4094
  555W        W43468  15.890   5.194  27.976 -0.1311  0.0747 -0.3110
  556W        W43469  25.740  16.508   7.261  0.1441  0.1372  0.2864
  557W        W43470  15.840   3.499   5.586 -0.2575 -0.3095 -0.0515
  558W        W43471  14.070   9.423   7.663  0.2311 -0.0883 -0.3351
  559W        W43472   6.099   5.527   9.049  0.1202  0.4237 -0.2302
  560W        W43473  14.223  13.573   3.571  0.2241  0.1018  0.0429
  561W        W43474  16.585   6.887   2.918  0.0605  0.1570 -0.1687
  562W        W43475  22.710   3.376   9.019 -0.1594  0.0142  0.0593
  563W        W43476  11.720   1.443  27.776 -0.1283 -0.3255  0.2561
  564W        W43477  13.165   6.701   6.483  0.2091  0.1034 -0.2263
  565W        W43478  17.873  15.588   1.848 -0.2111 -0.1295  0.0184
  566W        W43479  18.319  14.135   6.752 -0.2196  0.1876 -0.0574
  567W        W43480  22.980   3.642  10.449 -0.0062  0.0352  0.4259
  568W        W43481  15.968  24.560   2.565 -0.1195  0.1098 -0.0732
  569W        W43482  20.962  10.805   4.707  0.0428 -0.0477  0.0140
  570W        W43483  15.916  18.156  23.703  0.0447 -0.1168 -0.0529
  571W        W43484  22.767  11.846   2.485 -0.0138  0.0989 -0.0295
  572W        W43485  15.959   7.821   9.255 -0.3424 -0.2760 -0.1037
  573W        W43486  19.888   6.877   2.874 -0.4470 -0.2040 -0.0021
  574W        W43487  13.437  13.024   8.264 -0.4101  0.1915 -0.3088
  575W        W43488  14.669   5.829  10.820 -0.0114  0.1217 -0.0737
  576W        W43489  18.633   4.980   8.465 -0.0193  0.0307  0.2749
  577W        W43490  17.435  10.576   0.639  0.0610 -0.2438 -0.2352
  578W        W43491  14.907   2.848   7.917  0.1665 -0.0684 -0.0761
  579W        W43492  16.190  19.524   3.696  0.0366  0.0410 -0.3261
  580W        W43493  13.577   2.675  11.300  0.1590  0.0331 -0.3043
  581W        W43494  32.925   5.030   2.143 -0.2885  0.0600 -0.2509
  582W        W43495   1.254  11.964  10.482  0.4931  0.0583 -0.0573
  583W        W43496   5.913   5.855   6.217  0.1010 -0.0629  0.0900
  584W        W43497  10.795   8.965  29.630 -0.3444 -0.0641 -0.1376
  585W        W43498  20.030  26.720   8.750  0.3314 -0.0542  0.0207
  586W        W43499  17.059  11.686   6.572 -0.0836 -0.1028 -0.3597
  587W        W43500  26.970   9.923   2.759  0.1413  0.2409 -0.1119
  588W        W43501  18.767   8.940   7.793 -0.0274  0.1605 -0.1603
  589W        W43502  15.558  12.515   4.743  0.1468  0.3227  0.1131
  590W        W43503  23.923  11.683   7.793 -0.2417  0.3135 -0.1732
  591W        W43504  14.151  12.122   6.811 -0.1634  0.0124  0.3563
  592W        W43505  13.247  11.087   8.945  0.2575  0.1056 -0.0173
  593W        W43506   8.475   4.438   4.647  0.5475  0.1953 -0.1206
  594W        W43507  16.854  16.525   0.604 -0.1438 -0.2090  0.3586
  595W        W43508   8.789  13.003   8.457 -0.0149 -0.0574  0.1544
  596W        W43509  16.361  12.613   7.734 -0.1299  0.0238  0.0196
  597W        W43510  30.176   5.274  26.016 -0.2894  0.0998 -0.2399
  598W        W43511   9.298   7.107   2.320 -0.0750  0.2099 -0.3213
  599W        W43512  11.817  12.375   6.087  0.0216  0.1913  0.2448
  600W        W43513   9.995   7.685   7.704 -0.1472  0.0161  0.2060
  601W        W43514  12.351   3.473   7.217 -0.1710  0.1252  0.0947
  602W        W43515  11.833   5.259   7.955  0.1567  0.1296  0.0332
  603W        W43516  22.817  33.424   5.262  0.0912  0.0886  0.1622
  604W        W43517  11.543  12.946   4.433 -0.1070  0.1362 -0.1443
  605W        W43518  23.882   9.757  23.334 -0.0863 -0.1144  0.0718
  606W        W43519  12.319  33.091   1.386  0.0555 -0.1637  0.1705
  607W        W43520  22.878   7.870  24.982  0.4679 -0.1261  0.0529
  608W        W43521  23.121  10.565   6.236  0.1457  0.1818  0.3567
  609W        W43522  17.647  28.054  27.114 -0.1094  0.0328 -0.3731
  610W        W43523  23.280  13.366   4.943  0.1851 -0.1691 -0.2134
  611W        W43524  13.364  15.158   4.363  0.0752  0.1173  0.1830
  612W        W43525   2.627   2.701  27.797  0.0117  0.2074  0.1021
  613W        W43526  15.627  18.509   2.523  0.0861 -0.0562  0.1052
  614W        W43527   8.662  10.242  27.879 -0.0484  0.1776 -0.2791
  615W        W43528   9.694  11.632   7.811  0.3776  0.2721 -0.0220
  616W        W43529   9.925  15.793   1.196 -0.5029 -0.1722  0.0890
  617W        W43530   5.478   5.297   3.408 -0.1579  0.4339  0.0445
  618W        W43531  14.399   3.886   1.115 -0.0372  0.1952  0.1776
  619W        W43532  20.347   3.917   8.697  0.0419 -0.0619  0.2298
  620W        W43533  34.489  24.022   2.499  0.1218 -0.0737  0.1199
  621W        W43534  17.896  11.045   7.197  0.0892 -0.1226 -0.0666
  622W        W43535  19.130   6.346   7.792  0.0055  0.0445 -0.3218
  623W        W43536  10.422  14.131   3.262  0.0125 -0.1728 -0.0014
  624W        W43537   9.863  30.456  10.455  0.2163  0.1385  0.0787
  625W        W43538  27.430   9.685   7.047 -0.1217  0.1005 -0.0536
  626W        W43539  13.540  17.033   6.143  0.0026  0.2918 -0.3527
  627W        W43540  32.224  12.152   2.986  0.0893 -0.2023 -0.0018
  628W        W43541  21.038  12.298   5.863  0.0703 -0.1559 -0.5977
  629W        W43542  24.136   8.686   5.453 -0.2905  0.3153  0.1645
  630W        W43543   9.875   4.431   6.376 -0.1858 -0.1296  0.0093
  631W        W43544  20.996   8.409   3.384  0.5526  0.0126 -0.2400
  632W        W43545  16.912   5.261   3.708 -0.2647 -0.1144  0.1863
  633W        W43546  12.041   5.431   7.463  0.3691  0.1313  0.1395
  634W        W43547   1.716   7.496   9.623 -0.1102 -0.1957 -0.1645
  635W        W43548  28.734   3.116   4.860 -0.1852  0.1080 -0.0274
  636W        W43549  28.008  32.613   2.056 -0.0853 -0.1821 -0.2322
  637W        W43550  19.271  18.077   1.608  0.0797 -0.4216 -0.1830
  638W        W43551  17.792   9.334   7.267 -0.0609 -0.1598  0.1551
  639W        W43552  25.183  12.757   5.335 -0.4904 -0.0816  0.1640
  640W        W43553  13.380  14.310   0.396 -0.3196 -0.1849 -0.1167
  641W        W43554  17.317  18.795   7.244 -0.2659  0.3640 -0.2089
  642W        W43555  23.546  13.734  29.252  0.0986 -0.1622 -0.1135
  643W        W43556  14.577  19.446   6.104 -0.2873 -0.1867 -0.1701
  644W        W43557   3.546  29.748   3.377 -0.1382  0.1676  0.1076
  645W        W43558  17.075   4.278  10.061  0.0701 -0.2232 -0.1314
  646W        W43559  23.263   3.597   5.632 -0.0706  0.0536  0.2522
  647W        W43560   9.231  33.074  12.207  0.0785 -0.1140  0.0828
  648W        W43561   9.055   1.928  27.902 -0.3606  0.2633  0.2568
  649W        W43562  10.895   7.978   6.568 -0.2034  0.1412 -0.2372
  650W        W43563  12.823  33.681   7.805 -0.0712  0.0260 -0.1518
  651W        W43564  15.816  11.888   5.599  0.1778 -0.0276 -0.1678
  652W        W43565  18.662   5.643   4.932  0.1839 -0.1741 -0.0372
  653W        W43566  13.503   4.900  28.326 -0.0974 -0.1456  0.2791
  654W        W43567  13.885   1.179  10.486 -0.1708  0.0938 -0.0493
  655W        W43568   7.640  28.479   8.362 -0.2469  0.0210 -0.2739
  656W        W43569  16.967  16.792   0.188  0.0635 -0.2006  0.1582
  657W        W43570  19.340  15.600   8.091  0.0369  0.1871 -0.1337
  658W        W43571  24.520  17.882   6.952  0.0023  0.2061 -0.1103
  659W        W43572   7.197   5.672  12.977  0.0782  0.2076 -0.0920
  660W        W43573   4.701   2.330   9.996  0.0091  0.0711 -0.0095
  661W        W43574   9.093   5.326   6.289  0.0998  0.1391  0.1301
  662W        W43575  15.257  23.900   2.714 -0.1132  0.0527 -0.1023
  663W        W43576  20.042   1.594   4.777 -0.2700 -0.0390 -0.2114
  664W        W43577  11.802   8.562  26.626  0.0157 -0.1192 -0.0535
  665W        W43578  14.261  10.009   8.310 -0.0183  0.0586 -0.3551
  666W        W43579  16.222  16.408   5.868 -0.1832  0.0012  0.0832
  667W        W43580  13.747  31.203  26.697 -0.0254  0.1374  0.0828
  668W        W43581  15.358  31.978   5.076 -0.2630  0.0959 -0.0632
  669W        W43582   5.558   5.217   4.567 -0.1569 -0.2238 -0.0812
  670W        W43583  21.038  16.763   6.393 -0.0961  0.0716  0.0458
  671W        W43584  11.011   6.133   4.613  0.2238 -0.3935  0.2665
  672W        W43585  15.028   4.995   4.263 -0.0578  0.0146  0.0594
  673W        W43586  18.054  30.605   2.888 -0.6052  0.2635 -0.3334
  674W        W43587   9.395   3.645   5.124 -0.0253 -0.0051 -0.3289
  675W        W43588   2.836   0.336   7.421 -0.2294 -0.0728  0.0725
  676W        W43589  10.475   7.635  10.464  0.2332 -0.1592 -0.1348
  677W        W43590  21.574   7.426   5.452 -0.4502 -0.0774 -0.1945
  678W        W43591  17.718  26.795   1.701 -0.0266 -0.1454 -0.2057
  679W        W43592  18.823   8.414   7.168 -0.2958  0.1555  0.1090
  680W        W43593  25.706   3.423   2.950 -0.0600 -0.4413 -0.3526
  681W        W43594   0.543  15.965  26.292 -0.1259 -0.2905 -0.2285
  682W        W43595  16.204  33.622   9.317 -0.2292 -0.1919  0.1656
  683W        W43596  22.108   2.699   9.430 -0.1250 -0.0517  0.0954
  684W        W43597  12.028   7.198  10.221 -0.2099  0.1218  0.1927
  685W        W43598  16.235   9.735   8.809 -0.0510 -0.0692  0.2766
  686W        W43599   3.148   4.996  10.432  0.3239  0.2579  0.0817
  687W        W43600  18.171   9.066  29.437 -0.3121  0.3234 -0.3678
  688W        W43601  16.634  18.819  29.028  0.1526 -0.1595  0.3145
  689W        W43602  22.933  12.100   3.701  0.2686  0.0683  0.0800
  690W        W43603   6.843  32.399  11.753  0.1858 -0.1205 -0.1503
  691W        W43604  11.628   3.342   5.219 -0.1448 -0.1245  0.1354
  692W        W43605   4.139   3.657   4.456 -0.1231 -0.0549  0.3366
  693W        W43606  17.958  11.399   0.757 -0.0138 -0.3527  0.0122
  694W        W43607  11.207  22.856   6.603  0.1931 -0.1850 -0.2449
  695W        W43608  22.666  10.730   5.225 -0.3594 -0.0765  0.2228
  696W        W43609  14.039  11.114   3.834 -0.3996  0.0317  0.2302
  697W        W43610  15.117   3.090  25.893  0.0816  0.2143 -0.1035
  698W        W43611   2.621  10.513   2.581 -0.3719 -0.0119 -0.0507
  699W        W43612  17.987   5.967   2.511  0.0135 -0.1270 -0.2699
  700W        W43613   7.905   4.702   4.543 -0.2237  0.3510 -0.2505
  701W        W43614  17.520  11.229  28.437 -0.0308 -0.1910 -0.0479
  702W        W43615  23.875  14.214  27.829 -0.3399  0.1542  0.0596
  703W        W43616  21.687  33.593   8.014  0.1207  0.0844  0.0273
  704W        W43617  19.443  15.111   8.281  0.0917  0.4147 -0.2378
  705W        W43618  22.320  10.662   7.337  0.0086  0.2165  0.0121
  706W        W43619  11.392   6.344   4.425  0.0265  0.0012  0.0792
  707W        W43620  17.115  34.002   4.657 -0.2734  0.1331 -0.3409
  708W        W43621  19.570  14.107  28.935 -0.0764  0.1072 -0.0181
  709W        W43622   5.913  15.268  10.397  0.0120 -0.1615 -0.1309
  710W        W43623  20.812  16.508   7.785  0.0046  0.0119  0.1865
  711W        W43624  10.464   3.447   8.600  0.0691 -0.1099  0.2604
  712W        W43625   5.999   4.913   2.713  0.0711  0.0804  0.1137
  713W        W43626  11.736  16.353   4.381  0.2059  0.0994 -0.0649
  714W        W43627  17.629  15.122  27.907 -0.1560  0.0557 -0.0750
  715W        W43628  22.330  12.086   4.980  0.0016  0.0698 -0.0175
  716W        W43629  12.915  27.720  23.714  0.2200  0.0305 -0.0405
  717W        W43630   3.983   3.317  10.482 -0.1612  0.0824  0.1356
  718W        W43631  11.944   4.953  10.546 -0.0707 -0.5022  0.1877
  719W        W43632  12.152  13.300   7.763 -0.0067 -0.1103  0.2342
  720W        W43633   5.588  25.378  10.672  0.0880 -0.0082  0.1015
  721W        W43634   6.883   4.149  11.764  0.2472 -0.1985 -0.2820
  722W        W43635  12.901  13.177   0.939  0.1519  0.1951  0.2470
  723W        W43636   5.694  10.199   8.416 -0.0893  0.1072 -0.0794
  724W        W43637  17.450  12.088   0.863 -0.1133  0.1667 -0.0043
  725W        W43638  13.737   7.424   2.557  0.0752 -0.1407  0.0082
  726W        W43639  16.892  11.548   8.320  0.0235  0.1774 -0.0523
  727W        W43640  10.704  34.214  10.345 -0.1729  0.0934  0.0508
  728W        W43641  23.830  14.646  28.962 -0.0755  0.1320 -0.1180
  729W        W43642  24.359  22.863   3.048  0.1630  0.1697  0.1285
  730W        W43643   9.792   4.624   8.777  0.0744  0.1323  0.1313
  731W        W43644  26.577  10.697   9.548  0.0167  0.0532 -0.2703
  732W        W43645  19.445   6.471   8.159 -0.3114  0.0047 -0.2693
  733W        W43646  19.852  11.643   5.107  0.0559  0.1809 -0.2678
  734W        W43647  19.388   5.531  21.975 -0.3149  0.0983  0.0873
  735W        W43648  16.785  32.746  25.977  0.2567  0.2590 -0.0253
  736W        W43649   9.331   2.170  12.961  0.0841 -0.3290  0.1020
  737W        W43650  10.537   0.477   7.593  0.1964  0.2090 -0.2798
  738W        W43651  15.696   7.402   7.414  0.1296  0.0171  0.4098
  739W        W43652  20.242   9.552   2.004  0.5583 -0.0080  0.1768
  740W        W43653  12.882  10.723   3.746 -0.1097 -0.1131  0.0088
  741W        W43654  21.469   3.598   4.474  0.1562  0.1106  0.1797
  742W        W43655  18.568  30.822   2.603 -0.0269 -0.0734 -0.0060
  743W        W43656  16.386   7.496   3.558 -0.1543 -0.2625 -0.1346
  744W        W43657  14.992   7.583   5.180 -0.0536 -0.0105 -0.0675
  745W        W43658  16.934  14.637  23.981 -0.1972  0.0889  0.0254
  746W        W43659  14.999  18.718   6.374 -0.2947  0.0062  0.3316
  747W        W43660   6.218  10.450   7.267  0.0109 -0.0192 -0.0986
  748W        W43661  18.973  13.266   6.004 -0.0481  0.2162  0.1875
  749W        W43662   5.699   3.091   7.352 -0.1077  0.1412  0.1768
  750W        W43663  28.692   7.249   9.707 -0.2517 -0.0350 -0.2061
  751W        W43664  23.221  15.506   3.831  0.1022  0.1840  0.1387
  752W        W43665  13.620   0.204   6.546 -0.0846  0.0101  0.0012
  753W        W43666  13.734   7.068  27.331  0.1151  0.1059 -0.0406
  754W        W43667  13.519   1.657   8.222  0.0135 -0.0061  0.0308
  755W        W43668  30.041   8.028   4.468  0.3152 -0.2957  0.1660
  756W        W43669   6.491   3.707  13.716  0.2088 -0.0785  0.2911
  757W        W43670  24.048  12.563   2.328 -0.0384  0.1528  0.0281
  758W        W43671  15.104  17.486   3.033  0.1730 -0.1792 -0.0871
  759W        W43672  26.153  33.590  28.498 -0.1134  0.0603 -0.0899
  760W        W43673   9.352   4.616  23.504 -0.1619  0.1520 -0.2713
  761W        W43674   6.261  14.656   4.097 -0.0079  0.1622  0.1109
  762W        W43675  17.120   9.740   5.280 -0.1522 -0.2238  0.1155
  763W        W43676  16.022  29.837   8.828  0.1252  0.1349 -0.3341
  764W        W43677   9.871  32.045   2.080  0.1084 -0.0161 -0.4430
  765W        W43678   5.349   5.918   3.617  0.0841  0.0316 -0.0683
  766W        W43679  13.024  10.241   3.769  0.1575  0.1896  0.2271
  767W        W43680   4.584   5.882  11.401  0.1108  0.3677 -0.2622
  768W        W43681  20.838  14.316  28.313  0.1885 -0.0403  0.0726
  769W        W43682  13.499  14.542   5.657 -0.0222 -0.0118 -0.1074
  770W        W43683   2.192  12.640  27.630  0.0189  0.0933 -0.2437
  771W        W43684  24.210   4.735   4.673 -0.0281 -0.0407 -0.3175
  772W        W43685  12.386   2.852   0.861 -0.0590 -0.2387 -0.0072
  773W        W43686  20.871  24.979  28.295 -0.0165  0.0916  0.1814
  774W        W43687  14.521  26.792   9.838  0.2066  0.3243  0.0450
  775W        W43688  14.166  18.620   8.998  0.2306 -0.0727 -0.1428
  776W        W43689   6.128   3.624   2.803  0.1044 -0.3111 -0.1787
  777W        W43690  14.818   2.910  19.306  0.1343  0.2363 -0.0275
  778W        W43691  10.698   9.126   2.392 -0.1533  0.1621 -0.2307
  779W        W43692  14.638   2.260   1.828  0.1369 -0.3305  0.0309
  780W        W43693  26.255   4.897   4.314 -0.0096  0.3683  0.2003
  781W        W43694  21.464   8.967   8.277  0.0175  0.1536  0.3032
  782W        W43695  14.778   6.007   7.469  0.3002  0.2166  0.2019
  783W        W43696  23.374   2.014   7.609 -0.1276  0.0330  0.1375
  784W        W43697  22.561  11.015   1.103  0.3939 -0.0489  0.3053
  785W        W43698  25.604  10.539   8.827 -0.2554  0.3492  0.0380
  786W        W43699  19.184  10.648   7.579 -0.0842  0.1982 -0.3480
  787W        W43700  22.908  10.606   4.243 -0.2895  0.0111 -0.2233
  788W        W43701  12.952   6.153   4.446 -0.0523  0.2772 -0.0677
  789W        W43702  24.922   6.526   9.415 -0.4333  0.3673  0.3306
  790W        W43703  19.718  11.926   5.854  0.0042 -0.2077 -0.1319
  791W        W43704  14.376   6.359  21.437  0.1945  0.1694 -0.1635
  792W        W43705   6.738   3.165   9.479  0.0361 -0.2037 -0.1699
  793W        W43706  11.110   2.569  29.419  0.1968 -0.0702 -0.0934
  794W        W43707  12.945   2.669  11.145  0.2079 -0.1116  0.1964
  795W        W43708  29.615   9.219   4.644 -0.2795  0.1735  0.3919
  796W        W43709  19.374  20.764   4.295 -0.0824 -0.1226 -0.1720
  797W        W43710  13.836   3.157   8.934  0.2611 -0.1548 -0.4189
  798W        W43711  16.366  14.109   6.927  0.0153 -0.0833  0.0876
  799W        W43712   2.814   7.008   7.151  0.0664 -0.2102 -0.0372
  800W        W43713  12.512   5.303   7.450 -0.0724 -0.0184  0.1515
  801W        W43714  13.567   8.119   9.347 -0.0446 -0.0493  0.2535
  802W        W43715  22.728   8.840   2.136  0.0545  0.2498 -0.2242
  803W        W43716  17.220   7.903   7.385  0.0753  0.1852  0.1979
  804W        W43717  11.419   6.846   6.332 -0.0288  0.2174  0.0377
  805W        W43718  21.407   5.539   3.264 -0.1476 -0.1410  0.0884
  806W        W43719  22.663   5.647   0.341 -0.1553 -0.3687  0.1112
  807W        W43720  13.034   6.935  10.376 -0.1638 -0.0817  0.1364
  808W        W43721  11.773   7.945   6.928  0.2189  0.0441  0.1342
  809W        W43722  17.624   5.186   4.813 -0.2237 -0.1628 -0.2731
  810W        W43723  19.578  15.415  28.252 -0.0311 -0.0026 -0.0601
  811W        W43724   9.731   4.395  25.154 -0.2069 -0.1748  0.0660
  812W        W43725  12.747  31.931   5.171  0.4446  0.0016 -0.0026
  813W        W43726  15.543  16.340  24.292 -0.1146  0.3330 -0.0000
  814W        W43727  25.391   2.144   6.972 -0.2107 -0.3680 -0.0631
  815W        W43728   7.022   5.568  11.620 -0.0764  0.1643  0.1756
  816W        W43729  17.981  15.438   8.571  0.0206  0.2094  0.1850
  817W        W43730  21.117  10.506   8.940 -0.0786 -0.0468 -0.1838
  818W        W43731  14.791   2.290   7.859  0.2686 -0.0655  0.0277
  819W        W43732  22.968   6.552   7.239 -0.2812 -0.1948 -0.0251
  820W        W43733  18.355  18.610   2.089  0.2405  0.2154  0.0501
  821W        W43734  12.824   2.197  28.447  0.0828 -0.2508  0.1306
  822W        W43735  19.846  17.645  25.177 -0.1772  0.0041  0.0564
  823W        W43736  11.728   4.627  10.193 -0.1271 -0.0525  0.1102
  824W        W43737  19.179  34.488   2.782  0.3008  0.2786  0.2220
  825W        W43738  12.538  11.398   7.914  0.1076  0.0890  0.1736
  826W        W43739   5.721   3.483   4.409  0.2600  0.2018 -0.1193
  827W        W43740  23.208   5.767   6.729  0.1497 -0.2216 -0.0444
  828W        W43741   9.391  17.377   8.666  0.0496 -0.0040  0.3217
  829W        W43742  15.807   3.920   5.920 -0.0269  0.0237 -0.2685
  830W        W43743  21.962   3.337   7.802  0.2040 -0.0311 -0.0430
  831W        W43744  10.455  17.872   0.650 -0.1225  0.0582  0.2123
  832W        W43745  11.108   2.363  10.588  0.0299  0.1877  0.2402
  833W        W43746   8.988  10.872  10.755  0.0792 -0.2225  0.0230
  834W        W43747  15.590  32.690   3.501  0.1915  0.0967 -0.2460
  835W        W43748   9.558   0.581   5.373  0.3921 -0.1543  0.2312
  836W        W43749   0.312  10.930   5.539 -0.3441  0.0160 -0.0334
  837W        W43750  12.010  13.052   7.387  0.1282 -0.0409  0.2004
  838W        W43751  21.105   8.360   7.975 -0.0314 -0.0099 -0.2366
  839W        W43752   7.495  12.363   5.887 -0.1272 -0.1057  0.4270
  840W        W43753  14.575   8.288   4.721 -0.4464  0.0561  0.1453
  841W        W43754  13.028   5.004   9.455  0.0928 -0.1635 -0.3804
  842W        W43755  17.286  27.603   1.502  0.3515  0.1598  0.2711
  843W        W43756   7.567  15.303   4.084 -0.1160 -0.0390  0.0869
  844W        W43757   4.362   7.250   8.882 -0.2337  0.1634 -0.0578
  845W        W43758  16.089   4.725   5.948 -0.2253 -0.1503  0.1475
  846W        W43759  16.586  28.509  28.699  0.0898  0.1956 -0.7317
  847W        W43760  11.994   4.253   6.738  0.1368 -0.2775 -0.1549
  848W        W43761  19.600   8.850   2.337  0.0455  0.0038  0.0083
  849W        W43762  20.318  13.939   2.009  0.5767 -0.2477 -0.3386
  850W        W43763  15.134  15.955  25.485 -0.1886 -0.0826  0.2332
  851W        W43764  22.044   0.431   8.916  0.0504 -0.1751  0.0157
  852W        W43765  21.141   9.523   2.300 -0.1901  0.0908 -0.3226
  853W        W43766  10.733   6.570   2.749  0.1656  0.2148 -0.0883
  854W        W43767  27.444   2.970   2.374  0.1038  0.0930 -0.3757
  855W        W43768  11.186   5.345   1.917 -0.3249  0.2837  0.1657
  856W        W43769  13.313  14.129   6.127 -0.0458  0.3437 -0.2533
  857W        W43770  22.747   3.736   7.649  0.0945  0.1464  0.2222
  858W        W43771  16.115  10.038   1.735  0.5419  0.2161  0.2595
  859W        W43772  11.228   6.074   9.188  0.1886  0.0214  0.1266
  860W        W43773  12.838   2.459   2.724  0.1217 -0.0604 -0.2163
  861W        W43774   4.061   7.176   5.815  0.2401 -0.1112 -0.0952
  862W        W43775  13.530   6.723   8.310 -0.0070  0.0079 -0.0998
  863W        W43776   9.734   9.110   0.100 -0.1177  0.0596 -0.1820
  864W        W43777  21.691   3.334   9.772 -0.0527  0.0658  0.0104
  865W        W43778  16.307   2.411   1.193 -0.2101  0.0376 -0.0984
  866W        W43779  13.382  16.367   2.031 -0.0501  0.2270  0.0587
  867W        W43780  19.962   5.220  29.422  0.5109  0.0221  0.3191
  868W        W43781  15.563  12.486   2.631  0.0163 -0.1126  0.1361
  869W        W43782  18.921   6.589   8.312 -0.0749 -0.5580 -0.0888
  870W        W43783   8.155  32.127   0.662 -0.0281 -0.1000 -0.2828
  871W        W43784  18.034  15.193   5.100 -0.0705 -0.1636 -0.1548
  872W        W43785  17.976  30.390   6.760 -0.0759 -0.2143 -0.1878
  873W        W43786   9.690   6.661   5.137  0.2080  0.0117  0.0881
  874W        W43787  13.615  11.510   8.340  0.1993  0.2099 -0.0058
  875W        W43788  11.178  12.448   9.581 -0.2424  0.2270  0.0219
  876W        W43789  21.218   8.492   3.826 -0.2505  0.0600  0.2433
  877W        W43790  12.139   7.810   2.528  0.0016  0.2094  0.0055
  878W        W43791  19.595   9.982   3.150  0.1639 -0.2475 -0.2551
  879W        W43792  18.456   0.902   1.458 -0.1441 -0.2431  0.0097
  880W        W43793  23.568   2.501   7.467  0.2212  0.1676 -0.3374
  881W        W43794  22.678  11.643   3.012  0.0444  0.0931  0.1690
  882W        W43795  19.481  29.489   8.493 -0.1161 -0.1992 -0.1258
  883W        W43796  11.987   7.032   8.258  0.3078 -0.2993  0.0852
  884W        W43797  20.592   9.183   4.526 -0.2349 -0.0517  0.1976
  885W        W43798   7.305   7.743  27.678 -0.1346  0.3017  0.2309
  886W        W43799   6.166  11.511   3.653  0.3093 -0.0519 -0.1921
  887W        W43800  21.228   5.098   1.592  0.3505 -0.0414 -0.1696
  888W        W43801  11.105  14.369   8.293  0.0364  0.2286  0.1314
  889W        W43802   3.415   9.996   0.373 -0.3408  0.1760 -0.1906
  890W        W43803  32.011  12.731   3.448  0.1156 -0.0674 -0.3928
  891W        W43804  11.720   5.871   2.501 -0.0034  0.0007  0.1557
  892W        W43805  10.809   4.878   2.977  0.0572 -0.0199 -0.2971
  893W        W43806  10.757   3.493   6.872 -0.1535  0.1929  0.0331
  894W        W43807  16.404   3.029   1.316  0.1818  0.0058 -0.1040
  895W        W43808  20.459   3.567  26.908 -0.0172  0.1237 -0.0119
  896W        W43809  20.843   7.070  28.534  0.0938 -0.0402  0.2515
  897W        W43810  29.950  14.405   5.614 -0.1235 -0.0813 -0.1259
  898W        W43811   6.498   2.732  11.992  0.2047  0.0469 -0.0780
  899W        W43812   5.940   2.141   2.969  0.1237 -0.2620 -0.2240
  900W        W43813  26.153   6.851   8.629  0.1442 -0.0286  0.0670
  901W        W43814  19.930  33.992  10.263  0.0661  0.0194 -0.3082
  902W        W43815  15.842   0.037   7.257 -0.0835  0.1872  0.0183
  903W        W43816   8.666   5.900   1.437 -0.1405 -0.2793 -0.7297
  904W        W43817  12.789  12.443   2.814  0.0585 -0.0798  0.0703
  905W        W43818  12.648   4.880   4.722 -0.4522  0.0899  0.2250
  906W        W43819  10.776  14.144   1.803  0.1510  0.0172 -0.2202
  907W        W43820   5.081   6.123  11.406 -0.0701  0.0946 -0.4832
  908W        W43821  14.953   6.414  29.394  0.0603 -0.0863  0.1212
  909W        W43822  16.504  31.919   6.950  0.2138  0.0935 -0.1054
  910W        W43823  20.975  12.406  29.620 -0.1136  0.1537  0.0734
  911W        W43824  17.153  12.768   2.795 -0.0658  0.0205  0.3393
  912W        W43825   8.595   6.744   3.583 -0.1648  0.2800  0.0383
  913W        W43826   6.664   5.622   9.993  0.0691 -0.0380  0.1010
  914W        W43827  15.333  11.071   2.069  0.1242 -0.1392 -0.3966
  915W        W43828  14.337   7.779   7.957 -0.1121  0.0116  0.0493
  916W        W43829  19.205   9.291   3.729 -0.1567 -0.0472  0.1097
  917W        W43830  20.365   4.524   0.906 -0.0427 -0.1253 -0.0100
  918W        W43831  10.501   7.625  28.300 -0.0669  0.2025 -0.1212
  919W        W43832  12.888  11.153   7.600 -0.0672  0.4251  0.2080
  920W        W43833  21.807   8.466   8.535 -0.0001 -0.0794 -0.1542
  921W        W43834  12.113   0.642   1.492  0.0064 -0.1183 -0.1752
  922W        W43835  16.248  16.816   5.018 -0.2052 -0.2021  0.5970
  923W        W43836   8.258  11.458  10.422  0.0275 -0.2150  0.0074
  924W        W43837  17.008   1.517  29.467  0.1427 -0.2232  0.0181
  925W        W43838  16.990   8.466   1.349 -0.2208  0.3989 -0.2466
  926W        W43839  15.920  11.598   8.186  0.1529 -0.2203  0.4290
  927W        W43840  22.289  16.090   6.701  0.0545  0.0813  0.0623
  928W        W43841   9.900  33.642  18.709  0.3333  0.1810 -0.0907
  929W        W43842  12.293   8.136  10.747 -0.1599  0.0863 -0.0151
  930W        W43843  15.152  19.374  29.660  0.0084 -0.0488  0.1158
  931W        W43844  13.076  12.267   6.127 -0.3315 -0.2584  0.0332
  932W        W43845  16.082  34.179  28.602  0.0882 -0.1185 -0.0464
  933W        W43846  23.902  17.313  27.908  0.1445  0.2241  0.1993
  934W        W43847  12.377   7.509   2.207  0.1973 -0.4430  0.2726
  935W        W43848  18.602  10.691  27.251  0.0261 -0.2027 -0.0886
  936W        W43849  27.251   5.266   0.490 -0.0469 -0.2428  0.0208
  937W        W43850  11.009   9.145   1.437 -0.1126 -0.1160 -0.0580
  938W        W43851   3.308  12.759   8.819  0.3041  0.4037 -0.3329
  939W        W43852  12.815   8.781   7.044  0.1847 -0.1072 -0.0365
  940W        W43853  12.026   6.974   4.796 -0.0801  0.2005  0.2558
  941W        W43854  11.384   4.220  10.685 -0.1526 -0.0059  0.0558
  942W        W43855   5.103   1.155   5.245  0.2337 -0.2723  0.0823
  943W        W43856  21.512  16.932   7.672 -0.1837 -0.1465 -0.0594
  944W        W43857  12.069   3.768  12.033  0.1321 -0.2352  0.1776
  945W        W43858  24.384   6.123   4.964 -0.0014  0.1597 -0.0759
  946W        W43859  17.856   1.080  27.583 -0.0400 -0.1412  0.0654
  947W        W43860  16.583   9.631   1.843  0.1812  0.1193 -0.2124
  948W        W43861  19.937  34.152   7.148 -0.0238  0.0836  0.0888
  949W        W43862  12.848   4.894   5.232  0.1146 -0.5227  0.0101
  950W        W43863   5.069   3.748  11.891  0.3028 -0.2295  0.1516
  951W        W43864  11.824   0.981   9.583 -0.1787 -0.0647 -0.2369
  952W        W43865  13.331   9.709   9.186 -0.2890 -0.2348 -0.0862
  953W        W43866  18.637   4.581   7.185  0.0966 -0.0848  0.0921
  954W        W43867   9.890  13.636   6.307  0.2243  0.0272  0.0999
  955W        W43868  19.702  28.700   6.092  0.2365 -0.0406  0.0004
  956W        W43869  17.508   4.631  28.051 -0.0352  0.0804  0.3191
  957W        W43870  12.609   1.126  11.711  0.1942 -0.0854  0.1151
  958W        W43871   6.699   6.238  25.527 -0.0410  0.0441  0.0391
  959W        W43872  24.929   5.342   8.036  0.2951 -0.2578 -0.0150
  960W        W43873  17.914  13.203   2.571  0.2318 -0.0276 -0.4887
  961W        W43874   6.850  14.485   5.972  0.1194 -0.2929  0.2237
  962W        W43875  14.487  11.325   7.875 -0.0688  0.0214  0.1498
  963W        W43876  14.379   1.622   4.455  0.2388 -0.1418 -0.3014
  964W        W43877   2.366   9.232   4.252 -0.1351 -0.1274  0.0362
  965W        W43878   9.049  11.805   3.655 -0.1195 -0.0075 -0.1620
  966W        W43879   4.265  31.998   8.333 -0.0732 -0.0140  0.0700
  967W        W43880  15.542  11.104  27.861 -0.1527 -0.0967 -0.0499
  968W        W43881  12.407  11.755   4.900 -0.0197  0.0292  0.3461
  969W        W43882   5.645  10.050  28.800 -0.1311  0.2378 -0.2075
  970W        W43883  23.036   8.167  26.831  0.0697 -0.0130 -0.0132
  971W        W43884  25.178  27.627  28.867 -0.2989  0.1543  0.0581
  972W        W43885  19.695  13.127   6.538 -0.1821  0.0470  0.1190
  973W        W43886  10.303  18.229   7.851 -0.1912 -0.0842 -0.1481
  974W        W43887  13.060  19.142   1.035 -0.4126  0.1166  0.0529
  975W        W43888  13.103   4.024   9.757  0.1147 -0.0720  0.2699
  976W        W43889  29.542  16.352   8.187  0.0080  0.0141 -0.1194
  977W        W43890  12.511   4.878   6.177  0.2102  0.0680  0.1153
  978W        W43891  25.427   0.171   5.967  0.1427 -0.0095 -0.1212
  979W        W43892  17.847  27.133   6.902 -0.1417 -0.1767  0.1338
  980W        W43893  14.926   7.918   4.749 -0.3206  0.0476  0.0732
  981W        W43894  13.433   5.581  10.995  0.0688 -0.0023  0.2018
  982W        W43895  15.873  11.034  26.333  0.2615 -0.2154  0.0432
  983W        W43896  20.565  11.599   6.208  0.0870  0.2683 -0.1350
  984W        W43897  11.107   3.938  12.114  0.1225 -0.3210  0.2283
  985W        W43898  18.078  25.935   4.937  0.0940  0.0881 -0.0755
  986W        W43899  12.159   4.473   7.173 -0.0346  0.2232 -0.2087
  987W        W43900  25.626  11.899   5.355  0.0815  0.0491 -0.0002
  988W        W43901   6.225  32.523  10.220 -0.0649  0.0757 -0.2857
  989W        W43902  11.589  10.709   9.285  0.0164  0.0201  0.0862
  990W        W43903  16.409   2.732   6.347 -0.2113  0.1596  0.0306
  991W        W43904  16.901   6.548   6.588 -0.1150 -0.0124  0.0036
  992W        W43905  16.108   3.130   8.719 -0.0329 -0.3448  0.1875
  993W        W43906  20.440  32.337   7.614  0.0192  0.0906  0.1847
  994W        W43907  17.810  33.489   5.517  0.2842  0.1905  0.3748
  995W        W43908  12.546   5.482   9.327 -0.0791  0.0488  0.2040
  996W        W43909  13.297  14.346   7.059 -0.0723  0.1019 -0.0982
  997W        W43910  32.655   3.097   7.720 -0.3524 -0.0767 -0.0714
  998W        W43911  18.928  31.104   4.949  0.1502  0.0819 -0.2068
  999W        W43912  17.146  12.959   6.135  0.3428  0.1954  0.0869
 1000W        W43913  15.651   9.268   6.305 -0.2542 -0.0472  0.0936
 1001W        W43914  26.448  33.855   8.646 -0.2417  0.2081  0.1517
 1002W        W43915  20.790  27.324   6.024 -0.0283 -0.2963  0.0310
 1003W        W43916  18.705   4.479   5.457  0.0032 -0.0508 -0.2695
 1004W        W43917  15.184  12.706   4.378  0.2703 -0.2657  0.3278
 1005W        W43918  12.010  33.289  12.657 -0.2375  0.0037  0.1520
 1006W        W43919  29.242   3.809   3.456 -0.0359  0.1134  0.2160
 1007W        W43920  23.626   7.324  29.218  0.0903  0.2690  0.1415
 1008W        W43921  14.643  14.504   7.212  0.0255  0.0100 -0.2433
 1009W        W43922  20.450   8.111   6.660 -0.0838 -0.1660 -0.1693
 1010W        W43923  19.938   7.219   4.062  0.0265  0.0481  0.1405
 1011W        W43924  20.888   4.903   7.455 -0.0416  0.2778  0.0549
 1012W        W43925  10.570   7.894  12.468  0.1129  0.0350  0.1494
 1013W        W43926   5.909   2.767   9.373 -0.1595 -0.1679 -0.0137
 1014W        W43927   6.314  34.122   8.504 -0.1144 -0.2417  0.2296
 1015W        W43928  15.807   0.538   7.185 -0.2330 -0.2886  0.1786
 1016W        W43929  15.322   1.673   8.690 -0.2237  0.0592  0.1505
 1017W        W43930  11.305   2.358  12.763  0.0100 -0.3005  0.2682
 1018W        W43931   4.873   1.472  11.088 -0.0200  0.0360  0.2024
 1019W        W43932   7.108   9.516  10.935 -0.0159  0.0784 -0.0793
 1020W        W43933  18.080  12.373   1.072  0.2452  0.0621  0.1964
 1021W        W43934   7.666  11.877   2.067 -0.1112  0.2070  0.1478
 1022W        W43935   5.716   4.756  29.438 -0.5278  0.0363  0.0319
 1023W        W43936   9.574  14.247  28.718  0.0779 -0.0216  0.4279
 1024W        W43937   7.261   7.074  11.395 -0.1381 -0.1132  0.2062
 1025W        W43938  20.608   6.529   9.221 -0.1305  0.0704  0.3718
 1026W        W43939  16.696   5.354   5.598 -0.3160 -0.3079  0.0525
 1027W        W43940  16.630  10.456   2.587  0.1128  0.0423  0.0833
 1028W        W43941  12.980   7.368   9.826 -0.0994 -0.1990  0.2832
 1029W        W43942  19.497   4.732   4.787 -0.0317 -0.0698  0.1059
 1030W        W43943  27.525   5.565  28.590 -0.1093  0.0643 -0.1706
 1031W        W43944   2.833   3.455   5.587 -0.1450 -0.0183 -0.1678
 1032W        W43945  14.844   8.390   8.884  0.1243  0.0491 -0.0876
 1033W        W43946   9.119   1.311   5.060 -0.0407  0.2065  0.3931
 1034W        W43947  16.153   9.530   1.615 -0.0222  0.1214  0.0219
 1035W        W43948  18.833  15.935   8.196  0.2720 -0.1139 -0.1627
 1036W        W43949  30.412   3.957   9.029  0.0912  0.0132 -0.2111
 1037W        W43950  13.890   8.840   2.211  0.0752 -0.2726  0.0261
 1038W        W43951  22.747  34.444   4.306 -0.1113 -0.0123 -0.2738
 1039W        W43952  23.304   7.566   6.360 -0.1427  0.2207 -0.1792
 1040W        W43953  24.621  12.661   7.166 -0.0011  0.1876  0.1149
 1041W        W43954  18.104   5.592   9.693  0.1472 -0.1802 -0.0252
 1042W        W43955  21.530   7.085   3.051 -0.0453  0.0615  0.0259
 1043W        W43956  21.074   8.783   9.897 -0.0968  0.0622 -0.0871
 1044W        W43957  19.019  32.647   4.185  0.3723  0.0300  0.0283
 1045W        W43958  18.821   8.201   9.103  0.4361 -0.1922  0.0324
 1046W        W43959  17.309   6.204   8.459  0.3226 -0.2089  0.3287
 1047W        W43960  10.442   4.837  10.792  0.0343  0.1630  0.2705
 1048W        W43961  23.548   6.465   9.452  0.0723 -0.0428  0.2019
 1049W        W43962  24.866   4.893  24.259 -0.0771 -0.1002  0.1395
 1050W        W43963  12.054  10.956   5.452  0.1531 -0.1046  0.2363
 1051W        W43964  19.042   4.516   9.005 -0.2028  0.1202 -0.1077
 1052W        W43965  12.636  17.358   2.332  0.0470  0.2132 -0.1535
 1053W        W43966  20.042   7.868   6.418  0.2753 -0.1962 -0.2005
 1054W        W43967   3.788   7.870  10.443 -0.1467  0.4982  0.1170
 1055W        W43968  18.365  17.487  23.045 -0.0675  0.1766 -0.2758
 1056W        W43969  14.232   3.681   7.290 -0.3033  0.0227  0.0915
 1057W        W43970  22.196  28.825   6.930  0.2203 -0.0273 -0.2744
 1058W        W43971  21.794   8.963   0.204  0.0991 -0.0713  0.0561
 1059W        W43972  20.908  12.650  28.278  0.0485 -0.3825  0.0476
 1060W        W43973  26.263   9.202  10.504  0.1731 -0.1461 -0.1369
 1061W        W43974  25.428  12.448   7.880  0.1050  0.3135  0.1229
 1062W        W43975   5.942   8.225   4.850 -0.0748  0.0023  0.0706
 1063W        W43976   7.087  31.493   6.727 -0.1057 -0.1381 -0.0231
 1064W        W43977  10.057   3.292   5.565  0.1457  0.3806 -0.2032
 1065W        W43978  19.584   7.651   9.107  0.2986 -0.0448  0.0313
 1066W        W43979  16.584  27.994  10.273 -0.3259 -0.0292 -0.1997
 1067W        W43980  21.561   3.558   5.813 -0.1872  0.2196  0.2584
 1068W        W43981  12.560  17.827   7.634 -0.4787  0.0037 -0.0060
 1069W        W43982  22.158   0.573   7.352  0.1840 -0.0695 -0.1601
 1070W        W43983   1.435   1.499   5.594  0.3341 -0.1751 -0.1392
 1071W        W43984   4.233  13.234   2.184  0.0081 -0.1063 -0.2267
 1072W        W43985   6.290  30.293  12.196  0.0635 -0.4398 -0.0824
 1073W        W43986  13.280   3.294  10.298  0.0008 -0.0311  0.0853
 1074W        W43987  24.104   9.266   3.781 -0.1846 -0.2873  0.2014
 1075W        W43988  17.067   7.115   3.104 -0.2778  0.0535  0.0208
 1076W        W43989   7.430   5.150   8.705  0.0783 -0.4179 -0.3364
 1077W        W43990  10.197  15.613   8.078  0.0911 -0.0778 -0.0832
 1078W        W43991  15.456  14.094   6.961 -0.2897  0.4722  0.1514
 1079W        W43992  15.639  11.486   5.288  0.1938  0.3216 -0.1220
 1080W        W43993  16.769   2.655  10.234 -0.0243 -0.3703  0.1960
 1081W        W43994  15.903   9.629   9.668  0.0875  0.0575  0.2567
 1082W        W43995  16.829  15.963  28.355 -0.1193  0.0474  0.1466
 1083W        W43996   6.858   5.999  11.420 -0.0508 -0.1350  0.0016
 1084W        W43997  19.488  13.495   7.818 -0.1926 -0.0383 -0.2545
 1085W        W43998  13.276   2.240  10.929  0.1379 -0.2392 -0.0946
 1086W        W43999   9.125  10.063   9.371  0.2061  0.2187  0.1306
 1087W        W44000  17.011  17.795   5.036  0.0165 -0.0377  0.1394
 1088W        W44001  19.161  10.978   5.354  0.1205  0.1463  0.1546
 1089W        W44002  17.042  32.722   6.780  0.2287 -0.1176  0.1672
 1090W        W44003  28.401  10.235   9.432  0.2617  0.0315  0.2510
 1091W        W44004  18.660  14.191   4.505 -0.2128  0.2308 -0.2254
 1092W        W44005  15.771   3.686   2.185 -0.1404  0.0979 -0.2609
 1093W        W44006  22.234  17.274   4.602  0.2863 -0.0702  0.0185
 1094W        W44007  18.835  10.782  29.319 -0.2906 -0.4030 -0.1669
 1095W        W44008  12.596   7.740  10.739 -0.0878  0.1306  0.1393
 1096W        W44009  22.310   1.999   8.952  0.0300  0.0957 -0.0041
 1097W        W44010  16.153   1.521   6.885  0.0769  0.2020 -0.0707
 1098W        W44011  10.913   9.061   8.649  0.1148 -0.0522 -0.1673
 1099W        W44012  13.435   8.688   9.313  0.0863  0.0039  0.1651
 1100W        W44013  22.036   3.872   8.631 -0.0683  0.0821  0.2285
 1101W        W44014  11.923  27.841   6.673 -0.2486 -0.1043 -0.1975
 1102W        W44015   6.119   6.960   3.449  0.1389 -0.1291  0.1439
 1103W        W44016  18.145   6.496   4.918  0.0818  0.1376 -0.1469
 1104W        W44017  10.706   3.187   2.254  0.0960  0.1771  0.1264
 1105W        W44018  22.060   8.803   5.972 -0.0743  0.2988  0.1162
 1106W        W44019  16.574  15.825   8.034  0.1960 -0.1453  0.0631
 1107W        W44020  17.993  13.783   3.107  0.2230  0.1310  0.1314
 1108W        W44021   7.572   2.091  14.006 -0.0110 -0.0999  0.2537
 1109W        W44022  12.219   1.240   4.304 -0.2039 -0.0044 -0.1137
 1110W        W44023  17.748  10.762   1.071  0.1907  0.1283  0.0891
 1111W        W44024  12.976   5.895   6.417 -0.1739  0.0517 -0.1085
 1112W        W44025  19.381  16.440   7.711  0.2808  0.1186 -0.0574
 1113W        W44026  12.919   6.285   9.606 -0.1130 -0.1615 -0.1893
 1114W        W44027   8.693   0.365   4.952 -0.0177 -0.2585 -0.1848
 1115W        W44028   4.480   6.489  13.623  0.0109  0.0181  0.0778
 1116W        W44029  13.565   3.218  11.513  0.0716 -0.0599  0.0372
 1117W        W44030  18.073  33.606   2.988  0.2225 -0.2351  0.1112
 1118W        W44031  13.766   7.299  10.764 -0.4362  0.0907  0.1825
 1119W        W44032  16.430   3.807   4.185 -0.2593 -0.1483  0.1731
 1120W        W44033  11.780   7.042   6.001 -0.0273 -0.2850 -0.1116
 1121W        W44034  10.463   7.733   2.858 -0.0795  0.0449 -0.2163
 1122W        W44035  27.183   5.457   4.578  0.0205 -0.1168 -0.0559
 1123W        W44036  11.628   8.884  10.543  0.0436  0.2066  0.2536
 1124W        W44037  14.575   7.835   4.347  0.1355 -0.0465 -0.0441
 1125W        W44038  10.530  10.132   2.210  0.1988 -0.1132 -0.1870
 1126W        W44039  14.897  16.756  28.182 -0.1158  0.0621 -0.2587
 1127W        W44040  15.508   8.801   8.382  0.0560  0.0921  0.1907
 1128W        W44041  17.737  17.529   4.208 -0.0399 -0.2141 -0.2256
 1129W        W44042  24.896   1.442   6.701  0.1287 -0.3456 -0.3367
 1130W        W44043  10.383  10.857   6.040 -0.0743 -0.1207  0.2556
 1131W        W44044  10.104   5.526   2.611 -0.0547  0.0236  0.1088
 1132W        W44045  12.834   3.553   4.824 -0.1712  0.0044 -0.0420
 1133W        W44046  15.441  13.293   5.771  0.0032 -0.1559  0.0462
 1134W        W44047  15.763   8.516   7.942 -0.2295  0.0993  0.2239
 1135W        W44048  13.307  10.599   6.354  0.2626 -0.2213 -0.2417
 1136W        W44049   7.380   7.707  26.899 -0.1627 -0.0096 -0.3472
 1137W        W44050  23.530  11.633   8.297 -0.3628 -0.1563  0.3703
 1138W        W44051  21.812  10.697   5.148 -0.0237 -0.1195 -0.0922
 1139W        W44052  20.123  15.986   0.675 -0.1537  0.2085  0.0110
 1140W        W44053  24.372  11.073   8.405 -0.3258 -0.2319  0.0458
 1141W        W44054  13.308  29.974  10.365  0.1115 -0.2507  0.1008
 1142W        W44055  14.599   1.741   3.233  0.0015 -0.2441  0.1164
 1143W        W44056   2.274  12.475  10.584  0.2636  0.0458 -0.3519
 1144W        W44057  32.803  34.305  28.578 -0.1439 -0.3067  0.0429
 1145W        W44058   8.453  29.168  10.398  0.0415  0.0952 -0.3789
 1146W        W44059  28.934  11.246   4.945  0.0461 -0.0172  0.0581
 1147W        W44060  19.878   6.632   7.212 -0.0863  0.1108  0.0274
 1148W        W44061  18.429  12.492  29.178  0.0079 -0.0849  0.0093
 1149W        W44062   9.211  12.696   4.866 -0.0639  0.1589  0.1620
 1150W        W44063  17.847  11.277   7.623  0.2426 -0.1850 -0.0621
 1151W        W44064  16.122   5.801   9.140  0.1344  0.2622  0.2438
 1152W        W44065  18.902   0.856  10.378 -0.0563  0.0036 -0.2736
 1153W        W44066  11.131  10.788   2.803 -0.2853 -0.0044 -0.0473
 1154W        W44067  16.980   9.087   4.425  0.4119 -0.2148 -0.0939
 1155W        W44068  18.143   4.402   9.241 -0.2294 -0.1800  0.2234
 1156W        W44069  16.770  31.673   5.739 -0.3074 -0.1343 -0.1659
 1157W        W44070  14.272   3.695   2.225 -0.0367 -0.0051 -0.2018
 1158W        W44071  26.379   8.398  29.517 -0.0191  0.2756 -0.1463
 1159W        W44072  15.615  32.578   6.346 -0.0723 -0.0778  0.2731
 1160W        W44073   7.241   5.183   6.396  0.1558  0.0847 -0.0268
 1161W        W44074  11.744   8.132   7.966 -0.0894 -0.1374 -0.0507
 1162W        W44075  25.203  16.835  28.027  0.5186  0.0192  0.0684
 1163W        W44076   8.470   7.159   4.905 -0.0178 -0.0257 -0.0569
 1164W        W44077   5.722  10.918   5.325 -0.1518 -0.0817 -0.2355
 1165W        W44078  12.488  33.974   4.927  0.0528 -0.0031 -0.5669
 1166W        W44079  22.277  14.134   5.144 -0.2366 -0.0063 -0.1052
 1167W        W44080   8.756   7.124  10.062  0.2189 -0.1637 -0.1439
 1168W        W44081  10.729   0.156   4.738  0.2809  0.1084  0.1120
 1169W        W44082  12.751   0.375  28.352  0.0123  0.2426  0.1216
 1170W        W44083  15.203   6.277   5.893 -0.0319  0.0779 -0.0078
 1171W        W44084  18.852   9.097   8.653 -0.0426  0.2099 -0.0251
 1172W        W44085  13.236  10.017   9.807 -0.0343  0.0617  0.0190
 1173W        W44086  11.993  10.158   6.540  0.0371 -0.3045  0.0853
 1174W        W44087  24.642  32.608   7.646 -0.2274  0.0159 -0.1923
 1175W        W44088  17.633   9.876  28.108  0.0016 -0.3530  0.3570
 1176W        W44089  17.445   9.126   5.558 -0.1048 -0.3110 -0.1646
 1177W        W44090  18.511  13.521  29.582 -0.1690 -0.0476 -0.4129
 1178W        W44091   7.732  30.828  10.617 -0.1297  0.1190  0.1751
 1179W        W44092   8.879   8.665  10.439 -0.1768 -0.1390 -0.1272
 1180W        W44093  23.245   6.542   6.441  0.1591 -0.4650 -0.0049
 1181W        W44094  26.190   5.212   7.547  0.1998 -0.2579  0.2659
 1182W        W44095  12.019  11.950   6.218 -0.1147  0.1188 -0.4206
 1183W        W44096  22.052   6.972   9.586  0.2124  0.1448 -0.0660
 1184W        W44097  31.241  12.461   5.689  0.3687 -0.0055 -0.0470
 1185W        W44098  17.097   5.618   4.254  0.1736  0.3082 -0.0269
 1186W        W44099  22.938  18.950   7.441  0.1948  0.1413  0.1325
 1187W        W44100  17.192   6.987   1.729  0.0960 -0.0492 -0.0882
 1188W        W44101  11.925  10.163   4.252  0.3354 -0.1187 -0.2386
 1189W        W44102  24.507   4.078  27.498  0.3267 -0.1315  0.0732
 1190W        W44103  14.366  10.606   2.763  0.1524  0.2184 -0.1423
 1191W        W44104  15.727  27.801   0.308 -0.2385  0.1013  0.1442
 1192W        W44105  11.007   3.921   7.826 -0.0908 -0.0461  0.0964
 1193W        W44106   4.790  30.497   9.041 -0.0521 -0.0734  0.2390
 1194W        W44107   8.561   4.989   7.618 -0.1547  0.2227 -0.1430
 1195W        W44108  16.925  17.298  29.163  0.3823  0.2650  0.1342
 1196W        W44109  12.615   8.511   3.192 -0.1311 -0.3112  0.2554
 1197W        W44110  22.085   1.917   9.790  0.1023 -0.1108  0.1167
 1198W        W44111  15.472   5.954   9.211 -0.0245 -0.0903 -0.2613
 1199W        W44112   6.158  10.012   2.962  0.3002 -0.0775  0.1835
 1200W        W44113  20.027  15.887   6.645  0.3218 -0.0998  0.2440
 1201W        W44114  13.515  10.002   7.568  0.2044  0.1385 -0.0147
 1202W        W44115  17.691  15.070   4.639 -0.3097  0.1304 -0.0855
 1203W        W44116  17.909   3.077   7.450 -0.0423  0.1054 -0.2007
 1204W        W44117  11.124   8.030   9.633 -0.1286  0.1307 -0.0572
 1205W        W44118  13.432   3.102   9.542  0.0723  0.1228  0.0482
 1206W        W44119  17.992   0.471   6.449  0.0791  0.0639  0.0182
 1207W        W44120  23.305   4.203   8.080  0.2283 -0.4583  0.1689
 1208W        W44121  22.587   1.921   9.996 -0.0678  0.2611  0.0778
 1209W        W44122  13.823  11.277   8.711 -0.1563  0.0487  0.1603
 1210W        W44123   5.690  14.208   9.847 -0.2619 -0.2995 -0.1119
 1211W        W44124   7.579  11.400   9.594 -0.1173  0.1858  0.2832
 1212W        W44125  18.893   1.685   9.924  0.0042  0.0738  0.1656
 1213W        W44126  12.137   3.392   9.466  0.0062  0.1495 -0.0244
 1214W        W44127  10.290  10.750   4.443 -0.1381  0.0037 -0.1226
 1215W        W44128  13.768  33.097  10.110 -0.2227 -0.0788 -0.1711
 1216W        W44129  17.612  32.571   6.810 -0.0462 -0.0545 -0.0636
 1217W        W44130  11.223   6.195  28.790  0.1864  0.0982  0.1354
 1218W        W44131   5.985  13.706   8.415 -0.0939  0.1934 -0.2047
 1219W        W44132  18.956  10.862  28.764 -0.0150 -0.2656 -0.4501
 1220W        W44133   6.941   6.905   7.022  0.1736 -0.1455 -0.0219
 1221W        W44134  16.628  13.697   2.200  0.1970  0.1196  0.0593
 1222W        W44135  24.227   9.143   9.734  0.0107  0.0566 -0.0383
 1223W        W44136  27.581   2.988   6.926  0.2390  0.2268 -0.2171
 1224W        W44137   6.916   5.143   9.564 -0.1131 -0.0506  0.0109
 1225W        W44138   9.740  13.743   8.003 -0.1157 -0.2194  0.0807
 1226W        W44139  17.835   4.849  10.123 -0.0956 -0.0308  0.2473
 1227W        W44140  29.839   8.605   5.402 -0.0104 -0.2681 -0.0408
 1228W        W44141   6.624  11.028  10.821 -0.0778 -0.4034 -0.0116
 1229W        W44142  19.672  13.143   7.527 -0.0163 -0.0777  0.1933
 1230W        W44143  32.192  32.815  10.264 -0.1207 -0.2687  0.0974
 1231W        W44144  30.759   3.805   5.312  0.1048 -0.0335 -0.1485
 1232W        W44145   9.920  12.047  25.740 -0.0715  0.0828 -0.2131
 1233W        W44146   2.450  22.862   6.893  0.1516  0.1645  0.0485
 1234W        W44147  13.071   4.552  11.031  0.3253 -0.3998  0.2581
 1235W        W44148  10.160  15.387   5.320  0.0111  0.0111  0.0867
 1236W        W44149  19.123  16.515   4.319  0.0752 -0.1782  0.0197
 1237W        W44150  12.595  12.292   0.617 -0.0514 -0.0027  0.0193
 1238W        W44151  32.203  14.526   2.962  0.1587 -0.0446  0.0948
 1239W        W44152  10.724   6.848   5.367  0.0520 -0.1794  0.1853
 1240W        W44153  24.575  32.952   7.232  0.1888 -0.2887  0.1527
 1241W        W44154   9.971  14.714  18.538 -0.3676 -0.1871  0.3191
 1242W        W44155  23.728  11.964  24.386  0.1462  0.4603  0.3223
 1243W        W44156   8.708  11.826   1.540  0.1845 -0.1618  0.0303
 1244W        W44157  10.084   2.807   5.905 -0.1671 -0.1352 -0.1885
 1245W        W44158  15.835  16.415   2.372  0.0162 -0.1142 -0.0710
 1246W        W44159  18.702   8.039   6.804  0.0428 -0.0835  0.2380
 1247W        W44160  11.767   9.702   1.702  0.0072 -0.2640  0.3859
 1248W        W44161  18.695  14.176   5.019 -0.0076  0.0606 -0.1356
 1249W        W44162  18.363   8.366   6.021  0.1554 -0.0865  0.1937
 1250W        W44163  14.229   8.973  17.262  0.0865  0.0542  0.3505
 1251W        W44164  12.402  13.949   5.041  0.1442  0.3574  0.1306
 1252W        W44165   8.263  21.474  28.373 -0.3566  0.0778 -0.1322
 1253W        W44166  18.972  21.778  17.088  0.2416 -0.0380 -0.1304
 1254W        W44167  13.590  14.161  28.772  0.0070 -0.1473 -0.4060
 1255W        W44168  12.836   7.281   8.525  0.0361  0.1988 -0.2506
 1256W        W44169  12.301   9.462  24.133 -0.0063  0.2396 -0.1165
 1257W        W44170  17.443  22.660  25.007 -0.0960 -0.2328  0.2505
 1258W        W44171  11.164  19.121   7.487  0.2800 -0.1819  0.2549
 1259W        W44172  14.810  11.372   2.286  0.1289 -0.1626  0.1720
 1260W        W44173  19.806   4.575  13.961 -0.0760 -0.1881 -0.3621
 1261W        W44174   0.053  11.605  27.862  0.0530 -0.0831  0.0728
 1262W        W44175  15.713  20.295   5.735 -0.1930  0.0235  0.2135
 1263W        W44176   6.724   8.268   8.681 -0.0587 -0.0359  0.2109
 1264W        W44177  17.146  10.796   3.591  0.0571 -0.0720 -0.1633
 1265W        W44178  25.623  20.776  22.586 -0.0384  0.2499 -0.0942
 1266W        W44179   6.205   2.007  11.410  0.0374  0.1763  0.4085
 1267W        W44180  12.453   7.484   3.301 -0.0172  0.1231 -0.2096
 1268W        W44181  12.171  16.774   7.570 -0.1749  0.0307  0.0999
 1269W        W44182   5.106  15.216  29.365 -0.3208  0.1264 -0.0403
 1270W        W44183  18.815  14.535  26.733 -0.0061 -0.4278  0.0265
 1271W        W44184  18.992  17.748   5.593 -0.2255 -0.0272 -0.2716
 1272W        W44185  17.481  14.690   3.868 -0.0375 -0.1578 -0.1069
 1273W        W44186  13.675  17.026  19.577  0.5489 -0.2642 -0.1162
 1274W        W44187  21.689  13.253   5.146  0.0575 -0.3462 -0.1408
 1275W        W44188  15.783  10.680  24.725 -0.1201 -0.1715 -0.0432
 1276W        W44189  10.909  16.100   6.696 -0.3901  0.0067 -0.1463
 1277W        W44190  17.659   8.509   3.442  0.0805  0.1417  0.0420
 1278W        W44191   2.146  16.597  28.316 -0.1180  0.2303 -0.1354
 1279W        W44192  18.243  13.415  23.198  0.0699  0.3107  0.2703
 1280W        W44193  13.699  20.398  19.752 -0.0278  0.3395  0.0869
 1281W        W44194  11.221  10.624  26.986  0.1457 -0.1939  0.1340
 1282W        W44195  20.792   9.730   1.884 -0.3773 -0.0716 -0.0239
 1283W        W44196  21.760   0.239  28.042  0.5886 -0.0878 -0.0855
 1284W        W44197  12.627   9.088   3.766 -0.2408  0.1690 -0.0510
 1285W        W44198  21.546  17.375   0.767  0.2168  0.3009  0.0457
 1286W        W44199  10.814  15.144   1.016  0.1714  0.3760  0.1747
 1287W        W44200  18.891  19.892   7.748  0.0843 -0.0005  0.1134
 1288W        W44201  18.955  16.842   7.806 -0.1300  0.3934 -0.1661
 1289W        W44202  28.117  12.096   8.961  0.1669 -0.0046  0.1305
 1290W        W44203  11.959  27.067   7.997  0.3379  0.2340  0.0077
 1291W        W44204  20.870   8.219   4.703 -0.1809  0.1344  0.0379
 1292W        W44205   4.397  23.557   0.670  0.0840  0.0025  0.3266
 1293W        W44206  10.333  13.056  24.177 -0.0740  0.1497 -0.2504
 1294W        W44207   8.609   8.382  11.657 -0.3108 -0.1422 -0.2442
 1295W        W44208  28.597   2.705  22.248  0.0445 -0.0830  0.0447
 1296W        W44209  16.194  11.397   5.026  0.1378  0.0631  0.2539
 1297W        W44210  24.577   4.054   3.657 -0.2078  0.2113  0.0956
 1298W        W44211   2.817  11.530   7.770  0.2214  0.0964  0.0208
 1299W        W44212  11.327   4.818   3.771 -0.0934 -0.0725 -0.0837
 1300W        W44213   8.455  29.758   5.968 -0.0337 -0.0706 -0.2038
 1301W        W44214  21.563  19.368  27.900  0.0361 -0.1869 -0.4081
 1302W        W44215   0.992   9.982  23.239 -0.2061  0.0598 -0.2069
 1303W        W44216  22.107  11.278   2.792  0.0907  0.0619  0.0793
 1304W        W44217   9.885  12.706  20.026  0.0311 -0.2363  0.0388
 1305W        W44218  30.327   8.027   5.815  0.0673 -0.0042 -0.1012
 1306W        W44219  22.802  15.926   2.110 -0.0022  0.1460 -0.0389
 1307W        W44220  14.820   7.752   0.103 -0.0516 -0.2892 -0.2470
 1308W        W44221   4.430  32.763   0.936  0.0795  0.1460  0.1038
 1309W        W44222  18.795   1.545   3.702 -0.0738  0.1622 -0.0254
 1310W        W44223  12.671   4.893   9.761 -0.0302  0.3041 -0.3459
 1311W        W44224  14.723   9.822   1.432 -0.4516  0.2574  0.2597
 1312W        W44225   8.754   2.989   7.174  0.1066 -0.0107 -0.0378
 1313W        W44226   9.090  12.125   1.349  0.0287 -0.4423  0.1268
 1314W        W44227  12.566  33.291   6.638  0.0702 -0.4160  0.0836
 1315W        W44228  15.295  16.448  25.555 -0.0136 -0.1063  0.3716
 1316W        W44229  20.025   9.701   0.158  0.2731 -0.2422  0.0708
 1317W        W44230  12.444  17.969   0.719 -0.3868 -0.4132 -0.3348
 1318W        W44231   9.525  33.996  23.292 -0.2204 -0.4209 -0.1486
 1319W        W44232  26.347   3.348  28.753 -0.0685 -0.1900 -0.1710
 1320W        W44233  19.495  19.784  21.839  0.1187  0.1287  0.1613
 1321W        W44234  10.273  14.267   8.034  0.0187  0.5483 -0.0637
 1322W        W44235  16.512  18.751  22.973  0.2014 -0.1389 -0.0841
 1323W        W44236  10.855   9.183   1.923  0.1345 -0.6214 -0.0133
 1324W        W44237  14.216  13.443  24.915 -0.0195 -0.1819  0.0259
 1325W        W44238  22.291  13.998   0.953 -0.1741 -0.1789 -0.3857
 1326W        W44239  17.923   2.855  10.849  0.0674 -0.0117  0.0212
 1327W        W44240  11.389  23.929   7.264 -0.0783 -0.0386 -0.5085
 1328W        W44241  20.764  20.358   6.087 -0.1230  0.2007  0.1091
 1329W        W44242  10.705  14.645  28.510 -0.1035 -0.1235  0.1666
 1330W        W44243  21.634  16.550   0.765  0.0958 -0.3244  0.3593
 1331W        W44244  24.613   8.435  29.555 -0.2186  0.0042 -0.2813
 1332W        W44245  20.409  20.718   2.875  0.3022  0.0445 -0.0642
 1333W        W44246  17.813  13.396  20.852  0.0047 -0.0192  0.2302
 1334W        W44247  16.039  18.282   7.828 -0.2381 -0.0026  0.0078
 1335W        W44248  19.386  17.644  29.587 -0.0691  0.1422  0.1498
 1336W        W44249  12.906  23.308   8.872 -0.2982  0.1860  0.1743
 1337W        W44250  14.096  11.131  29.654  0.3592  0.0480 -0.1282
 1338W        W44251  17.072  20.537   1.077  0.1161  0.0600 -0.3211
 1339W        W44252  24.807  10.251   4.571 -0.5350  0.0949  0.2615
 1340W        W44253  24.085   8.940   4.136 -0.0295  0.2545 -0.2284
 1341W        W44254  18.888  14.177  23.296 -0.0798 -0.3142 -0.0703
 1342W        W44255  24.319   8.241   5.703 -0.0534  0.0366  0.0873
 1343W        W44256   7.862  10.154   5.135  0.0091  0.0525  0.1759
 1344W        W44257   7.823  12.244   6.273  0.2358  0.0625  0.1830
 1345W        W44258  14.951   6.806   6.678 -0.1362  0.0965  0.1859
 1346W        W44259  29.172  21.683   4.300 -0.1875 -0.0349  0.1679
 1347W        W44260  14.841   4.599   4.438 -0.1851 -0.1531  0.4078
 1348W        W44261  11.541  33.598   4.446  0.0955  0.1326 -0.1422
 1349W        W44262  11.859  20.077   3.503  0.4377 -0.1207 -0.2416
 1350W        W44263  18.625  16.135  21.333  0.3042  0.1967 -0.2101
 1351W        W44264  18.794  15.552   4.785 -0.0016 -0.1701 -0.0579
 1352W        W44265  14.980  23.902   9.265 -0.2201 -0.1247  0.3219
 1353W        W44266  17.286  20.023   0.385 -0.0549  0.1777  0.1657
 1354W        W44267  17.726  17.812   0.205  0.0386  0.0203 -0.2774
 1355W        W44268  23.156  12.861   4.866  0.5467  0.0708  0.1586
 1356W        W44269  14.094  12.100   0.199  0.2757  0.0271 -0.1089
 1357W        W44270   9.913   7.412  25.074 -0.0728 -0.0077  0.0135
 1358W        W44271  10.188  12.598   8.441  0.2616 -0.1803 -0.0941
 1359W        W44272  20.189  16.931  27.197 -0.1941  0.0577 -0.5049
 1360W        W44273  10.622  17.981  27.420  0.2005  0.0272  0.3336
 1361W        W44274  20.542   9.733   7.547  0.1418 -0.2206  0.0633
 1362W        W44275  18.639  13.917  27.755 -0.3306  0.2946  0.0502
 1363W        W44276  10.916  10.161  29.026  0.0805  0.0986 -0.1092
 1364W        W44277  13.091  17.213   1.989  0.0633 -0.2586  0.2481
 1365W        W44278  15.727   7.607  24.710  0.2882  0.2026  0.0567
 1366W        W44279  25.101  15.460   4.810  0.2278  0.1848  0.4015
 1367W        W44280   4.881  10.234  24.331 -0.2798  0.0846 -0.1312
 1368W        W44281  18.250  17.128  22.571  0.1713 -0.0968 -0.0892
 1369W        W44282  14.327  19.483  28.868 -0.2906 -0.0852  0.0064
 1370W        W44283  11.651   6.262   9.277 -0.0624  0.0131 -0.0913
 1371W        W44284  16.432  14.491   6.681  0.2947 -0.2731  0.0138
 1372W        W44285  19.189  10.355   4.994  0.0310 -0.0571  0.3412
 1373W        W44286  23.801  15.783   8.213 -0.1353 -0.1782 -0.2871
 1374W        W44287  16.794   3.820   8.361  0.1900 -0.1027  0.0478
 1375W        W44288  30.462  15.573   1.470 -0.0215  0.0977  0.1080
 1376W        W44289  15.526  29.229   9.559 -0.0693  0.0313 -0.1911
 1377W        W44290  15.007   9.756   4.827 -0.0487 -0.0137 -0.1812
 1378W        W44291  11.665   2.926  24.359  0.1620  0.3400 -0.0285
 1379W        W44292  13.350  10.936  27.592  0.0002 -0.3595 -0.1927
 1380W        W44293  19.467   5.448   1.301  0.0269 -0.1704  0.5078
 1381W        W44294  21.373  14.636   6.009 -0.0962  0.0756 -0.0024
 1382W        W44295  12.424  21.511   9.989  0.1390  0.1819 -0.0436
 1383W        W44296  23.596  15.744   0.694 -0.3568  0.4050  0.0508
 1384W        W44297  16.419  18.949  28.545  0.0418 -0.0924  0.1020
 1385W        W44298  12.638  13.111  29.678 -0.0928  0.1627 -0.4151
 1386W        W44299  16.386  21.642   7.004 -0.3743 -0.4245  0.4008
 1387W        W44300  12.641   8.568   8.457 -0.3228 -0.2115 -0.2089
 1388W        W44301   3.962   9.061   5.687 -0.0401 -0.1775 -0.0669
 1389W        W44302  11.059  15.378   5.256  0.0739  0.1853  0.4299
 1390W        W44303  15.079  19.076   2.329 -0.1095 -0.3708  0.0501
 1391W        W44304   6.238  12.789  17.176 -0.1772 -0.1845  0.1218
 1392W        W44305  12.325  19.286   8.262  0.1464  0.2213 -0.0003
 1393W        W44306   8.181  23.978   4.705  0.3136 -0.1888 -0.1589
 1394W        W44307  15.499   6.467   8.130  0.1601  0.2262 -0.0214
 1395W        W44308  18.918  12.774   2.353  0.3917  0.1140  0.2722
 1396W        W44309  11.724   8.608  10.135  0.3348 -0.1497 -0.1408
 1397W        W44310  12.578  19.710  24.165 -0.0516 -0.0144  0.0830
 1398W        W44311  17.583   8.932  28.288 -0.0875  0.1621 -0.2826
 1399W        W44312  12.269   9.985  28.722  0.1485 -0.0821 -0.0400
 1400W        W44313  17.809  17.488  26.575 -0.1231 -0.0752  0.2115
 1401W        W44314  11.521  14.292  29.470 -0.0516 -0.3893  0.0792
 1402W        W44315   1.224  11.966   7.228 -0.3324  0.1232  0.0352
 1403W        W44316  11.888  17.964  28.782 -0.0990 -0.0132  0.2411
 1404W        W44317  10.666   4.082   6.921 -0.3072 -0.0530  0.1414
 1405W        W44318  19.707  13.033  26.577  0.3319 -0.0736 -0.0281
 1406W        W44319  15.029  10.372   1.561  0.1717  0.0830  0.1646
 1407W        W44320  18.997   3.692  28.195 -0.1052  0.2824  0.0589
 1408W        W44321  13.071  14.732   6.817  0.0483 -0.0223 -0.0571
 1409W        W44322   5.553  24.407  28.781 -0.1612 -0.1910  0.1812
 1410W        W44323  13.506  13.735  28.412  0.1034  0.1553 -0.1534
 1411W        W44324  17.859  13.412  24.550  0.1088  0.1303 -0.0889
 1412W        W44325  12.214  20.661  27.417  0.2331  0.0471  0.0915
 1413W        W44326  15.562   3.159  27.203  0.1537  0.3933  0.1014
 1414W        W44327  13.992  10.549   1.351 -0.0012  0.2069  0.1343
 1415W        W44328  14.715  30.273   6.526 -0.0865  0.3149  0.1123
 1416W        W44329  13.692  14.881   1.623 -0.0660 -0.0822 -0.0689
 1417W        W44330  14.391   1.130  21.395 -0.2160 -0.1534 -0.3480
 1418W        W44331  15.581  10.053  21.825  0.3014  0.0172  0.3772
 1419W        W44332  13.695   4.294  28.253  0.0103  0.0801  0.3036
 1420W        W44333  17.968   3.166  25.341  0.1462 -0.1819 -0.1314
 1421W        W44334  15.378  12.242   7.448  0.1933  0.0665  0.0933
 1422W        W44335  23.652  18.088   1.996  0.0717  0.2092  0.0516
 1423W        W44336   9.557  28.966  10.335 -0.1156  0.0574  0.0861
 1424W        W44337  10.556   2.027   7.691  0.0205  0.0466  0.1363
 1425W        W44338   8.422   2.253   9.301 -0.0266  0.1369  0.0423
 1426W        W44339  15.264   0.038   8.499  0.1007 -0.1226 -0.0419
 1427W        W44340   8.361   7.841   5.988  0.1236 -0.0612 -0.3545
 1428W        W44341  10.795  10.023  29.661  0.1602  0.1312  0.1349
 1429W        W44342  10.054  21.666   4.956 -0.3326 -0.1579  0.0738
 1430W        W44343  13.273  11.436   5.520 -0.3331  0.2025 -0.1148
 1431W        W44344  15.544  10.912   0.547  0.0239 -0.1659  0.2233
 1432W        W44345  11.217  18.702  25.160  0.2310  0.0596  0.0655
 1433W        W44346  16.024  14.721  25.655 -0.3440  0.0169 -0.1845
 1434W        W44347   7.324   3.180  10.235 -0.0367 -0.1256  0.0680
 1435W        W44348  10.358  13.610   8.677 -0.0683  0.0088 -0.2336
 1436W        W44349  13.566  11.853  20.211 -0.1741 -0.0939 -0.0977
 1437W        W44350  14.482  17.321   0.889 -0.3446 -0.1773 -0.0312
 1438W        W44351  20.768  12.745   6.931 -0.0220  0.1696 -0.1684
 1439W        W44352  11.154   7.574   8.868 -0.0512 -0.3817 -0.0942
 1440W        W44353  14.526   6.328  26.996 -0.1663  0.0852  0.1126
 1441W        W44354  12.738   9.555  26.943 -0.1245  0.3689  0.2921
 1442W        W44355  17.369  24.636   2.905  0.1358  0.1012  0.1092
 1443W        W44356  13.650   8.161   4.861 -0.0693  0.1191 -0.0630
 1444W        W44357  20.370  23.213   2.872 -0.1869 -0.0178  0.1900
 1445W        W44358  15.042   0.785   5.804  0.1438 -0.1495  0.2662
 1446W        W44359  14.223  13.164  29.281  0.3256  0.2529  0.3821
 1447W        W44360   6.212   8.837  22.977  0.3873  0.2552 -0.0215
 1448W        W44361  12.941  33.703   3.508 -0.0814 -0.1424  0.0560
 1449W        W44362  29.383   9.486   9.260  0.0462 -0.2288  0.1284
 1450W        W44363  14.982  21.792   3.768  0.0483 -0.3806 -0.0667
 1451W        W44364  14.118  19.230  16.933 -0.1981 -0.1852  0.1023
 1452W        W44365  14.052  10.211  17.880 -0.0743  0.4693  0.0934
 1453W        W44366  14.363  21.700   5.166  0.2784 -0.0982  0.2053
 1454W        W44367  18.469   1.382  28.254  0.0858  0.2595 -0.0783
 1455W        W44368  11.509  11.153   2.781 -0.3603  0.0071  0.1042
 1456W        W44369  13.909  17.870  25.085  0.1169 -0.4499 -0.0206
 1457W        W44370  13.823  13.668  23.182  0.2463  0.2339 -0.1629
 1458W        W44371  12.385   3.222   4.111 -0.0141 -0.1669 -0.0262
 1459W        W44372  20.989  10.463   2.090  0.3026 -0.1537 -0.0349
 1460W        W44373  13.626   7.820  10.621  0.0676 -0.2202 -0.0138
 1461W        W44374  25.402   9.930   3.489  0.2377 -0.0695  0.1656
 1462W        W44375  15.595  24.161  26.464  0.0605  0.2221 -0.0426
 1463W        W44376  10.952   9.718   0.663 -0.0616  0.0217 -0.0137
 1464W        W44377  16.709  12.955   8.727 -0.0196  0.1129 -0.1316
 1465W        W44378  13.343   6.619   0.882 -0.1536 -0.0291  0.0808
 1466W        W44379  18.355  12.061   0.674 -0.0616 -0.3006 -0.0142
 1467W        W44380  10.370   7.996   7.624 -0.0554  0.3615 -0.1708
 1468W        W44381  17.340   7.262  27.700  0.1203 -0.1679 -0.1774
 1469W        W44382  25.198  10.178   2.473  0.0175  0.0214 -0.1391
 1470W        W44383  17.209  12.259   8.901  0.0724 -0.0041 -0.1036
 1471W        W44384  15.837  10.538   1.055  0.2986  0.2606 -0.2320
 1472W        W44385  15.880   6.376   8.495  0.3221  0.2882 -0.0528
 1473W        W44386  23.914  24.515  29.594  0.0846 -0.0573  0.1579
 1474W        W44387  15.460   2.251   1.385  0.1488  0.1607  0.1142
 1475W        W44388  10.081  10.069  26.710  0.1076  0.1356  0.0967
 1476W        W44389  16.397   8.871  21.633  0.1180 -0.0703 -0.0839
 1477W        W44390  13.650   3.725  28.388  0.0800  0.0060 -0.0994
 1478W        W44391  16.383  15.666   0.887 -0.0785 -0.3929 -0.0230
 1479W        W44392   6.046  11.446   4.725 -0.1932  0.0752  0.0045
 1480W        W44393  34.039  10.954   7.283  0.0715  0.0649 -0.0104
 1481W        W44394  15.500  15.141  29.366 -0.1393  0.2187 -0.0187
 1482W        W44395   8.015  30.549  29.058 -0.1053 -0.1642 -0.0356
 1483W        W44396   8.848  17.205   4.463  0.0389 -0.0276  0.2677
 1484W        W44397  20.474  14.249  18.346 -0.2394 -0.1735  0.3202
 1485W        W44398  16.277  14.282  21.161  0.0531 -0.0423  0.0276
 1486W        W44399  23.005  13.915   6.687  0.0060 -0.1236  0.2065
 1487W        W44400  29.251   4.532   6.315 -0.0598  0.0159 -0.3072
 1488W        W44401   1.472  29.968  22.187 -0.1776 -0.3009  0.1072
 1489W        W44402   9.983   5.942  10.187  0.0204  0.0297 -0.1653
 1490W        W44403  24.995   4.893  27.045 -0.1854  0.2296  0.1422
 1491W        W44404  21.142   9.261  23.262  0.1692  0.0489  0.2731
 1492W        W44405  21.310  14.651   2.725  0.1883  0.0888  0.0416
 1493W        W44406  11.204  18.204  25.197  0.1183  0.1251 -0.1689
 1494W        W44407  15.714  10.487   6.304  0.1433  0.1882  0.2105
 1495W        W44408  11.525  20.693  23.987 -0.0329  0.1755 -0.1233
 1496W        W44409  19.596  11.355   6.927  0.1082  0.0631  0.0325
 1497W        W44410  17.166   8.070   3.566 -0.0994  0.0472  0.2350
 1498W        W44411  33.515  11.575   2.479  0.2213  0.0257  0.3699
 1499W        W44412  12.374  12.508  25.204  0.1766 -0.1447  0.2611
 1500W        W44413  12.319  12.785  28.759  0.1005  0.2708 -0.4271
 1501W        W44414  12.425  17.982  20.811  0.1314  0.0646  0.1985
 1502W        W44415  18.609  23.430  23.487  0.0898 -0.1452  0.0567
 1503W        W44416  14.013  10.558  28.733 -0.0479  0.3930 -0.0600
 1504W        W44417   3.387   4.587   1.415  0.1488 -0.2218  0.0525
 1505W        W44418  15.005  13.801  19.407 -0.2701 -0.0792 -0.0898
 1506W        W44419   8.783  14.441  27.878  0.0228 -0.0772  0.1001
 1507W        W44420  12.372   5.569   3.431  0.2358 -0.1992 -0.0092
 1508W        W44421   8.936  10.078  20.403  0.0931  0.1368  0.2903
 1509W        W44422   6.680   2.068  11.845 -0.2832  0.0232 -0.1354
 1510W        W44423  21.331  28.216  19.148  0.1273 -0.1320 -0.0576
 1511W        W44424  19.247   2.717  28.473 -0.2598 -0.1182  0.2073
 1512W        W44425  17.430  15.735  23.673  0.0259 -0.0731  0.0844
 1513W        W44426  12.122  10.164   2.759 -0.1260 -0.0262 -0.1566
 1514W        W44427  12.227  11.573  27.343 -0.2727  0.0282  0.1690
 1515W        W44428   2.977  13.951  18.364 -0.3743  0.0508 -0.0351
 1516W        W44429  12.397  16.433  17.602  0.1492 -0.1532 -0.2234
 1517W        W44430  22.452  11.864   7.618 -0.1840 -0.1224  0.4101
 1518W        W44431   9.999   2.788   2.632 -0.0992 -0.1204 -0.1204
 1519W        W44432   9.846  19.368  26.924  0.1676 -0.1060  0.0370
 1520W        W44433   9.236  12.408   6.142  0.2967 -0.1873  0.0303
 1521W        W44434  12.945  13.375  26.695  0.1517 -0.1741 -0.0856
 1522W        W44435  15.964  13.687  29.514 -0.2819 -0.1546 -0.2016
 1523W        W44436  12.777  12.809   4.395 -0.3413 -0.2920 -0.0801
 1524W        W44437  16.879  14.742   3.770 -0.1317 -0.0598 -0.1047
 1525W        W44438   9.243  16.227   6.472  0.0700  0.0639  0.2963
 1526W        W44439   9.987  13.089  26.544 -0.1914  0.1124 -0.2620
 1527W        W44440  16.973  27.751  25.211 -0.2700 -0.2660  0.5516
 1528W        W44441  11.713  17.333   8.163 -0.0172  0.4643 -0.0943
 1529W        W44442  15.537  10.319   4.404 -0.0793  0.1708  0.2836
 1530W        W44443  23.152  10.796  27.709  0.0683 -0.0048 -0.1963
 1531W        W44444  17.424  12.238  26.062 -0.2303  0.0331 -0.3273
 1532W        W44445   7.202  31.547   1.821  0.0033 -0.0428  0.5299
 1533W        W44446  12.973   4.748  21.986 -0.2255 -0.2489  0.1761
 1534W        W44447  32.615   9.216  22.969  0.1028 -0.0157 -0.2145
 1535W        W44448  10.271   5.849  25.279  0.1006  0.2225 -0.0111
 1536W        W44449  18.884   9.306  20.106 -0.2019  0.0027  0.0226
 1537W        W44450  17.712   7.706  26.006  0.0090  0.0965  0.2646
 1538W        W44451   4.032  21.466   8.127 -0.0573  0.0702  0.0953
 1539W        W44452   5.159   9.658  28.465 -0.1791  0.2817 -0.0283
 1540W        W44453  17.783  14.966   0.923 -0.0501  0.0625  0.0949
 1541W        W44454  12.207  14.806   0.512 -0.0440 -0.0377 -0.2895
 1542W        W44455   9.502   4.855  29.561 -0.2357  0.0429  0.0431
 1543W        W44456   5.855   8.596   5.762 -0.4414  0.4514 -0.1601
 1544W        W44457  19.958  15.390  28.660 -0.0681  0.1517  0.1818
 1545W        W44458  11.908  23.768   5.865  0.1266  0.1727 -0.0833
 1546W        W44459  13.409   7.946  27.226  0.1774 -0.0016 -0.1368
 1547W        W44460   8.815  10.685  28.811 -0.1803 -0.1232  0.1019
 1548W        W44461  12.186  13.862  26.530  0.2287 -0.1406  0.4446
 1549W        W44462  16.306  14.278  27.265 -0.0324 -0.0949  0.0844
 1550W        W44463  10.390  11.267  10.080 -0.0721  0.0292  0.2027
 1551W        W44464  18.554  14.157   8.100 -0.2016  0.0088 -0.1116
 1552W        W44465  28.221   2.054   5.229  0.0914  0.1804  0.0566
 1553W        W44466   4.168   4.154  11.131  0.1307  0.0831 -0.0105
 1554W        W44467  12.935  33.595   4.428 -0.4316 -0.0078  0.3050
 1555W        W44468   5.720  22.506   2.394  0.0118  0.2232  0.1752
 1556W        W44469  15.575  11.612   2.247 -0.1025  0.0523  0.3365
 1557W        W44470  26.719  11.950   3.223  0.0344 -0.0624  0.2789
 1558W        W44471  12.103  17.482  19.906 -0.1602 -0.1864  0.1411
 1559W        W44472  24.543  12.217  24.364 -0.0516 -0.1025  0.0168
 1560W        W44473  12.467  10.289   9.285  0.1273 -0.2123 -0.1453
 1561W        W44474   8.038   6.224  26.968  0.3008  0.1015 -0.2507
 1562W        W44475  14.689  26.573   2.294 -0.1195  0.1554  0.2587
 1563W        W44476   9.885  12.182   6.711 -0.0534  0.2582 -0.0646
 1564W        W44477  15.335  21.339  29.344 -0.5367 -0.0234 -0.0558
 1565W        W44478  15.968  20.465   8.736 -0.2009  0.2433  0.0426
 1566W        W44479   4.726   0.337   4.714  0.0562 -0.0114 -0.1455
 1567W        W44480  13.306  13.296  20.594  0.1743  0.0200 -0.3574
 1568W        W44481  17.053  13.918  22.595  0.1237  0.1410  0.1172
 1569W        W44482  12.617  10.260   3.364 -0.1245  0.0800  0.1199
 1570W        W44483  30.560  11.354  29.346  0.0314 -0.1375 -0.3126
 1571W        W44484  17.474  10.580  22.638  0.1840  0.1019 -0.0861
 1572W        W44485  20.637  11.634  17.493  0.0619 -0.3606 -0.0595
 1573W        W44486  21.198  20.738  29.391 -0.0003 -0.1163 -0.2831
 1574W        W44487  21.818   1.291   1.812 -0.3193  0.0841  0.0127
 1575W        W44488   6.490   5.251  12.045 -0.3301 -0.1198 -0.5375
 1576W        W44489  14.971  22.993   0.998  0.1731 -0.0377 -0.2739
 1577W        W44490  18.048   8.209  25.162  0.2252 -0.0250 -0.1660
 1578W        W44491  14.929  14.066   3.474 -0.4992 -0.0439  0.0848
 1579W        W44492  15.438  29.925  28.945 -0.1401  0.0157 -0.0321
 1580W        W44493  14.774  14.829  17.532 -0.1122  0.0167  0.1275
 1581W        W44494   9.503   6.664  28.930  0.0356 -0.1682  0.2155
 1582W        W44495  22.449  11.755   7.044  0.0231  0.0170 -0.0717
 1583W        W44496  16.021  15.449   2.674 -0.0329  0.2554  0.2124
 1584W        W44497  12.264  12.786  19.775  0.1074  0.2060  0.2292
 1585W        W44498  31.344  20.474   4.884 -0.1744  0.2011 -0.1660
 1586W        W44499   3.702  12.205  21.991  0.0444 -0.0213  0.3499
 1587W        W44500  18.390   7.643  20.961  0.2888  0.0797 -0.2069
 1588W        W44501   5.625  11.455  21.837 -0.2078  0.1536  0.1181
 1589W        W44502  17.951  16.765  28.198 -0.2477 -0.1494  0.0189
 1590W        W44503  19.334  21.648  26.687  0.1180 -0.3622 -0.0019
 1591W        W44504  15.477  19.244   2.092  0.2531  0.3865 -0.2487
 1592W        W44505  18.127   5.460   9.153 -0.0772  0.0024 -0.0492
 1593W        W44506  18.777   9.995  25.280 -0.2090  0.1450  0.4762
 1594W        W44507   7.492   7.445   2.404  0.0467 -0.0743  0.1279
 1595W        W44508  15.948  15.289   0.405  0.1401 -0.1207  0.1060
 1596W        W44509  14.241   8.818   3.037 -0.1070 -0.0889  0.0871
 1597W        W44510   1.596  24.310  28.526  0.0681 -0.0710  0.2152
 1598W        W44511   9.466  16.351  26.376  0.0077 -0.0249 -0.0513
 1599W        W44512  26.102  11.124   6.367  0.3648  0.1091  0.0465
 1600W        W44513  22.366  13.683  21.025 -0.0287  0.1146 -0.0597
 1601W        W44514   7.987   3.403  10.510  0.3782  0.0028  0.0397
 1602W        W44515  24.125  22.630   8.043 -0.1078  0.1215  0.3551
 1603W        W44516   5.238   6.250   9.673  0.0147  0.0708  0.0032
 1604W        W44517  27.307  18.395  27.721 -0.3468 -0.0595 -0.1846
 1605W        W44518  15.042  20.729   5.928 -0.2588 -0.1709  0.3314
 1606W        W44519  13.116  15.539  14.743 -0.2706 -0.0870 -0.2572
 1607W        W44520  21.901  14.057   3.240 -0.2376  0.0820  0.0005
 1608W        W44521  11.740   6.474   0.166 -0.1934  0.0261  0.0194
 1609W        W44522  12.853  17.581  25.047  0.1170  0.0266 -0.2352
 1610W        W44523   6.739  12.348  29.690  0.0106 -0.3371  0.0980
 1611W        W44524  14.526   8.019  28.832  0.1522  0.0341 -0.0434
 1612W        W44525   8.186   8.035   3.603 -0.0271  0.1554  0.3495
 1613W        W44526  15.040  13.018   8.693 -0.2575  0.2689 -0.4866
 1614W        W44527  27.370  23.622  28.861  0.0125 -0.0261 -0.2913
 1615W        W44528  21.139   9.115   4.017  0.0497  0.2134 -0.0144
 1616W        W44529  10.477  13.009   4.257 -0.0521  0.0242  0.1583
 1617W        W44530   9.299  10.832   5.279  0.2103 -0.2456  0.1268
 1618W        W44531  14.672   5.204   2.602  0.1768  0.1033 -0.1919
 1619W        W44532  19.366  18.858   0.346 -0.4597 -0.3143  0.1809
 1620W        W44533  23.276  20.869   6.620  0.0270  0.2306  0.0502
 1621W        W44534  20.051  15.653   6.210  0.2738 -0.2208  0.0828
 1622W        W44535  21.084  14.603  26.784  0.2667  0.3158  0.0475
 1623W        W44536  11.766   2.706  24.799 -0.1151 -0.0020  0.0809
 1624W        W44537  11.747   5.010   3.997 -0.0917  0.0250 -0.0245
 1625W        W44538   6.643   1.955  11.231  0.2540 -0.3553  0.0915
 1626W        W44539  22.447  11.901   0.838  0.4468  0.4030 -0.0821
 1627W        W44540  10.143  13.118   3.210  0.0632  0.0739 -0.0199
 1628W        W44541   8.648   1.715  11.492 -0.0641 -0.1260 -0.1439
 1629W        W44542  16.452  17.607   8.609  0.2323  0.3806 -0.4724
 1630W        W44543   5.967   3.239   6.346  0.0621 -0.1437  0.2100
 1631W        W44544  15.535  16.014   8.247 -0.1525 -0.1045 -0.4022
 1632W        W44545  25.604   7.495   8.737 -0.0433  0.0680 -0.3147
 1633W        W44546   9.897  34.369  12.663  0.0782  0.0349 -0.0778
 1634W        W44547   9.576  12.817   6.283 -0.1083 -0.0099 -0.1321
 1635W        W44548  17.902   6.721  14.467 -0.3103  0.1305  0.1921
 1636W        W44549  21.776  15.023  27.214  0.1182 -0.0236  0.1725
 1637W        W44550   7.525   9.279   8.737 -0.2809 -0.4124  0.1241
 1638W        W44551  20.218  20.701  22.759  0.0937 -0.1465  0.1664
 1639W        W44552  16.131  19.405   5.348  0.0929  0.1142  0.0810
 1640W        W44553  18.324  15.093   6.550  0.3624  0.0741 -0.1762
 1641W        W44554  18.015  10.234   7.245  0.0107 -0.2321  0.1405
 1642W        W44555  19.997   9.366  23.806  0.1510  0.1085 -0.1648
 1643W        W44556  17.909  10.879  29.514  0.1128 -0.2763  0.1531
 1644W        W44557  15.060   8.779   4.878 -0.4290 -0.1137  0.1399
 1645W        W44558  10.594  15.371  27.889 -0.0569 -0.0183 -0.1957
 1646W        W44559  18.056  16.425   4.685 -0.1117 -0.1044  0.0562
 1647W        W44560  20.625  10.797  25.514 -0.3030  0.2981  0.0167
 1648W        W44561  18.858  11.255  24.315  0.0048 -0.0487  0.3769
 1649W        W44562  24.291  17.812   2.675  0.2558  0.4717  0.1930
 1650W        W44563  12.856   6.243   8.956  0.0795 -0.3046  0.2935
 1651W        W44564  10.878   1.161   8.435  0.2098  0.0646  0.1076
 1652W        W44565  23.351  14.219  29.519 -0.0346  0.2140 -0.0977
 1653W        W44566   4.626   6.923  27.704 -0.2828 -0.1628  0.1813
 1654W        W44567  20.167  14.540   2.917  0.0197 -0.0088  0.0149
 1655W        W44568  18.899  17.375   2.463  0.0208 -0.2409  0.1215
 1656W        W44569  13.458  10.894  24.339 -0.3433 -0.4896 -0.0861
 1657W        W44570  21.005  16.040  28.801  0.4975  0.0412  0.3502
 1658W        W44571  19.320  24.175  20.787 -0.0147 -0.0302  0.3480
 1659W        W44572   9.287   3.848   2.449 -0.0660 -0.1479 -0.2074
 1660W        W44573  16.116   8.249  10.218  0.3794 -0.1202 -0.1774
 1661W        W44574  11.064  26.422   3.330  0.1506  0.1274 -0.1950
 1662W        W44575  21.854  11.228   5.732  0.1581 -0.0682 -0.0623
 1663W        W44576  11.630  10.778   1.995 -0.2981 -0.0570 -0.1713
 1664W        W44577   9.754   4.134   7.920  0.1226  0.0339 -0.2013
 1665W        W44578   6.159  11.468   7.469  0.0429 -0.1671  0.0479
 1666W        W44579  28.564  12.266   8.753 -0.2541  0.1940 -0.3440
 1667W        W44580  11.718   7.647  22.860 -0.2346  0.1390 -0.0529
 1668W        W44581  25.834  11.971   1.378  0.1626 -0.0392  0.1069
 1669W        W44582  16.379   5.088  10.281  0.1876  0.0070 -0.4603
 1670W        W44583  17.276  13.742   6.854 -0.0087 -0.0831 -0.1753
 1671W        W44584  10.540  19.319   5.532  0.1140  0.1113  0.1311
 1672W        W44585  13.685  20.003   6.123  0.2915 -0.3026  0.0319
 1673W        W44586  13.166  18.383   0.139 -0.2136 -0.2024 -0.0898
 1674W        W44587  20.407  10.929   2.759 -0.0067 -0.2621  0.1064
 1675W        W44588  15.906   6.948   7.317  0.1141  0.2940 -0.1870
 1676W        W44589  12.093   9.536  28.611 -0.1076  0.2241  0.0805
 1677W        W44590   2.539   0.947  27.303  0.1698 -0.0796 -0.0967
 1678W        W44591  14.612   9.167   7.958  0.3128  0.1695  0.1166
 1679W        W44592  19.387   9.227   6.047 -0.2875  0.1085 -0.0257
 1680W        W44593  10.111  31.194   6.247  0.3024  0.0802 -0.1880
 1681W        W44594   8.636   1.674  27.887 -0.2219  0.3208  0.2593
 1682W        W44595  24.013  17.669   8.333  0.2093  0.1375  0.1868
 1683W        W44596  25.710  10.067  28.638  0.1718 -0.1495  0.2495
 1684W        W44597   8.101  16.269   8.144 -0.0401  0.0667 -0.0201
 1685W        W44598  10.822  15.401   1.461  0.0713 -0.1223  0.0916
 1686W        W44599  16.721  16.803   6.504  0.0157 -0.1675 -0.1817
 1687W        W44600  19.974  14.751   3.570 -0.3016  0.2465 -0.2621
 1688W        W44601  21.753  15.725   8.326  0.1090  0.2104  0.0896
 1689W        W44602  13.427  18.328   8.120  0.3459 -0.1616  0.0732
 1690W        W44603   8.886  16.407   9.383 -0.0833  0.0307 -0.2803
 1691W        W44604  15.244   5.821   8.752 -0.1693 -0.1743  0.3670
 1692W        W44605  17.015  17.096   6.066  0.2918  0.1410 -0.0842
 1693W        W44606   7.453  10.474   2.658 -0.4578 -0.2452 -0.0166
 1694W        W44607  19.311  14.425  22.204 -0.2091 -0.0814 -0.0459
 1695W        W44608  13.287  13.403   7.923 -0.0404  0.1611  0.0867
 1696W        W44609   9.035   9.148   8.919  0.3348 -0.2044 -0.0365
 1697W        W44610  11.416  15.526  26.301  0.0109  0.0100  0.0315
 1698W        W44611  17.672  12.994  19.482 -0.1336 -0.0839  0.0692
 1699W        W44612  22.028   6.883   9.116  0.4044 -0.0211  0.0543
 1700W        W44613  16.242   9.317   3.592  0.2892 -0.0556  0.1003
 1701W        W44614   7.725  10.293  10.608  0.0614 -0.1698  0.3315
 1702W        W44615  12.438   6.668   3.888  0.1751  0.0379  0.1774
 1703W        W44616  11.767   7.698   1.144  0.1071  0.0727 -0.0563
 1704W        W44617  25.251  18.756   6.419  0.0826 -0.2331  0.1677
 1705W        W44618  18.800  17.077   7.359 -0.1229  0.0142 -0.1252
 1706W        W44619  16.225   9.567  24.866  0.0348  0.2765 -0.1135
 1707W        W44620  13.204  26.912   5.479 -0.2023 -0.0536 -0.1419
 1708W        W44621  21.459  12.573  29.616  0.0729  0.1937  0.1217
 1709W        W44622  22.405  28.945  28.678 -0.1648  0.1280  0.2947
 1710W        W44623  19.289  12.381  29.617  0.1693 -0.1357  0.1144
 1711W        W44624  21.256   5.244   7.610  0.2560  0.0988 -0.2983
 1712W        W44625  12.913   9.854   2.708 -0.1309 -0.4411 -0.1492
 1713W        W44626  17.365   9.475  29.431  0.1308 -0.0709 -0.2021
 1714W        W44627  24.832   8.646   9.441  0.3618 -0.0601 -0.2076
 1715W        W44628  16.564  12.670   3.558  0.0541  0.2107 -0.0718
 1716W        W44629  13.121  19.072   6.147  0.1427  0.3261  0.3641
 1717W        W44630  10.629   4.977  24.215 -0.1547 -0.2771  0.3048
 1718W        W44631  16.535  13.407   8.517 -0.0924 -0.1049  0.2269
 1719W        W44632  15.269  23.158   4.388 -0.0267  0.0667 -0.1615
 1720W        W44633  18.379   9.721   8.075  0.0787  0.0364 -0.1103
 1721W        W44634  10.424   9.791  11.606 -0.0977  0.1909  0.1693
 1722W        W44635  10.778  17.598   8.421 -0.1864  0.0270  0.0136
 1723W        W44636  17.507  17.835  28.826 -0.4155 -0.3945  0.2451
 1724W        W44637  21.258  25.127   6.843 -0.1685 -0.2961  0.1461
 1725W        W44638  10.096  17.472   0.642  0.0137  0.2362  0.0176
 1726W        W44639   5.110   9.486   9.503  0.0115  0.0272  0.2965
 1727W        W44640  22.803   3.188   7.386  0.0553 -0.1416 -0.1783
 1728W        W44641  16.204   6.416  27.771 -0.2621  0.0501  0.1147
 1729W        W44642  17.907  33.709   2.493 -0.3341 -0.0545  0.0703
 1730W        W44643  13.760  13.136   1.492  0.0988  0.2430  0.1753
 1731W        W44644  10.361   4.169   2.215  0.2331  0.0038  0.0015
 1732W        W44645  14.550  15.155   0.756 -0.0892  0.0332  0.2457
 1733W        W44646   7.381  18.614  28.134 -0.0132  0.0661  0.0927
 1734W        W44647  14.252   5.738   5.935  0.2443  0.1354 -0.0056
 1735W        W44648  14.276  14.827   6.846  0.1429  0.1509  0.1817
 1736W        W44649  19.457  12.660   2.568 -0.0634  0.2005  0.0119
 1737W        W44650  15.999  11.350   6.480 -0.0374 -0.0108 -0.0949
 1738W        W44651   9.634   8.293   2.937  0.1794 -0.1122  0.1691
 1739W        W44652  28.407  18.606   1.631  0.2951 -0.1677  0.3723
 1740W        W44653  16.804  12.333   7.212  0.0367 -0.1426 -0.1888
 1741W        W44654  17.767   4.735   3.372  0.1547  0.0978 -0.1989
 1742W        W44655  21.684  10.871   4.001  0.1741 -0.2356 -0.4781
 1743W        W44656  21.359  11.555  27.638  0.2919 -0.2320  0.0456
 1744W        W44657  11.961  28.167   8.008 -0.0816 -0.2631 -0.0758
 1745W        W44658   9.408  10.993   0.735 -0.1928  0.3342  0.0490
 1746W        W44659   9.864  10.894   9.507  0.1283  0.1104 -0.1886
 1747W        W44660  10.757  18.526  21.001  0.1784  0.0257  0.0962
 1748W        W44661  23.566  21.012   5.173  0.1290 -0.1123  0.3343
 1749W        W44662  10.848  16.284   3.865 -0.2000 -0.1753  0.0591
 1750W        W44663  19.283  12.503   5.524 -0.1746  0.2934 -0.0668
 1751W        W44664  14.894   6.252   0.191 -0.0197 -0.2299  0.2471
 1752W        W44665  18.144   8.750   2.091  0.4055 -0.0052  0.0699
 1753W        W44666  12.268   5.837  27.170  0.1080 -0.1026  0.2271
 1754W        W44667  21.833   9.081   6.615  0.0055  0.2926  0.0145
 1755W        W44668   6.566  13.911  10.999 -0.0133 -0.0025 -0.0638
 1756W        W44669  18.127  22.910   8.110 -0.0695 -0.0714  0.1658
 1757W        W44670   5.262  11.076   5.446  0.0471 -0.1089 -0.2077
 1758W        W44671  21.351   1.557   9.502  0.3441  0.0197  0.1917
 1759W        W44672  20.190  12.325   1.588  0.3876 -0.1814  0.1433
 1760W        W44673  14.982  18.180  26.587 -0.2213  0.1635  0.1739
 1761W        W44674  13.602  11.480   6.374  0.0699 -0.0635 -0.1389
 1762W        W44675   9.377   9.228  12.396  0.0295 -0.3911 -0.2524
 1763W        W44676  16.716  15.737   3.124  0.1877  0.0291  0.2201
 1764W        W44677  22.793   8.624  27.533  0.2568  0.1483 -0.0070
 1765W        W44678  11.276  32.061   9.723 -0.2029 -0.1230 -0.0739
 1766W        W44679  25.928  22.109   5.181  0.1282 -0.1279  0.3016
 1767W        W44680   9.059  12.190   3.076 -0.0846 -0.1183 -0.2243
 1768W        W44681  14.301  13.780   4.532 -0.1845 -0.2010 -0.0756
 1769W        W44682  20.641  24.645   0.155  0.0063  0.4608  0.0973
 1770W        W44683  17.996  15.301   6.136  0.3109 -0.0055  0.1530
 1771W        W44684  14.636  18.191   2.380  0.0507 -0.0683 -0.2288
 1772W        W44685  15.892  12.693   8.041  0.1136  0.1248  0.1297
 1773W        W44686   9.998  17.545   6.236  0.0596  0.0029  0.0543
 1774W        W44687  17.784  15.406   6.637 -0.0144 -0.0216  0.1209
 1775W        W44688  16.416   3.224  29.328  0.1101 -0.1750 -0.2327
 1776W        W44689  19.322   2.764   4.483  0.0024 -0.2391  0.1570
 1777W        W44690  17.694  12.636   1.000 -0.3739  0.0416  0.0212
 1778W        W44691  14.726   4.381   7.619 -0.2105  0.3044 -0.2929
 1779W        W44692  13.833  32.921   0.648 -0.0657 -0.1062 -0.0259
 1780W        W44693  18.352  19.247  23.431 -0.0518 -0.0625  0.1139
 1781W        W44694  16.298  12.798   5.485  0.1921  0.3445 -0.1170
 1782W        W44695  11.363  20.975  26.856  0.0741 -0.0929 -0.0005
 1783W        W44696   7.542   1.964   2.761 -0.1196 -0.2781 -0.2529
 1784W        W44697  16.092  11.391  28.206  0.0516 -0.0287 -0.2180
 1785W        W44698  19.315  10.657   2.020  0.1026  0.0289  0.0345
 1786W        W44699   9.109   8.000   5.009  0.5344 -0.1403 -0.2724
 1787W        W44700  18.217   9.606   9.276  0.0659  0.1896  0.0068
 1788W        W44701  19.658  20.306   8.201 -0.5712  0.2873  0.0174
 1789W        W44702  17.750   4.423   7.297 -0.1914  0.0029 -0.0730
 1790W        W44703  26.655  18.049   1.457  0.0678 -0.0348  0.1295
 1791W        W44704  10.911   5.951   7.890 -0.2070 -0.4879  0.0539
 1792W        W44705  15.789  21.692   9.397 -0.3341 -0.1660  0.5599
 1793W        W44706  22.664   0.939   1.635 -0.0408 -0.1876  0.4969
 1794W        W44707   7.872   1.075  26.473  0.0353  0.0732 -0.1904
 1795W        W44708  12.895   7.114   5.133  0.1902 -0.1902  0.1066
 1796W        W44709  14.188  16.571   5.583 -0.2432 -0.0845  0.3340
 1797W        W44710  27.378  22.705   5.713 -0.1716 -0.0469  0.0044
 1798W        W44711  17.267   0.785   3.895 -0.2072 -0.0007 -0.0358
 1799W        W44712  16.525   9.350   4.219  0.3578 -0.3146 -0.0077
 1800W        W44713  33.590   7.373  29.424 -0.2564 -0.2667  0.1122
 1801W        W44714  12.744  12.138  23.724 -0.0998 -0.1278  0.1154
 1802W        W44715  12.966  21.435   5.852 -0.1933 -0.0433  0.0847
 1803W        W44716  21.218   8.177   6.274  0.0980 -0.2050  0.2723
 1804W        W44717  12.798  12.977   5.402  0.1514 -0.0142 -0.1520
 1805W        W44718  20.308   6.330   4.940  0.2897  0.1825 -0.0320
 1806W        W44719  16.453   0.909   8.858 -0.0662 -0.1403 -0.0815
 1807W        W44720  27.022   9.305   1.901  0.3332  0.1361 -0.0427
 1808W        W44721  13.909  10.955   1.051  0.1869  0.3167 -0.1017
 1809W        W44722  16.636  12.044   2.941 -0.0315 -0.1435 -0.0452
 1810W        W44723  13.498   5.749   6.618  0.0475  0.0507  0.0334
 1811W        W44724  21.149  15.003  22.608 -0.0869 -0.1352 -0.1218
 1812W        W44725  17.635  14.281  23.080 -0.1754  0.1871 -0.0071
 1813W        W44726  19.146  16.712   5.710  0.0433  0.5037  0.5797
 1814W        W44727  20.837   8.179   5.897 -0.3027 -0.0400  0.3514
 1815W        W44728  12.859   6.359   3.905  0.0255  0.2200 -0.3768
 1816W        W44729  18.991  22.540   6.503 -0.3317  0.0092 -0.2852
 1817W        W44730  10.303   2.841   7.722 -0.0774 -0.0448 -0.0736
 1818W        W44731  30.270   6.392   3.445  0.1328 -0.0210 -0.2230
 1819W        W44732  16.366  21.028  29.555  0.3660 -0.0327  0.0099
 1820W        W44733  16.309  16.430   8.207 -0.0284 -0.0975  0.0795
 1821W        W44734  13.604  25.673   8.331 -0.0138  0.1155  0.2992
 1822W        W44735  24.455  11.346   9.099  0.0553 -0.1035 -0.1668
 1823W        W44736  34.456   7.428   1.112  0.3198 -0.1816  0.1890
 1824W        W44737  15.193  31.353   4.738  0.0545  0.2413  0.2086
 1825W        W44738  13.786  18.822  27.870  0.3057 -0.0543  0.4253
 1826W        W44739  25.058  16.225  28.720 -0.1158 -0.1299  0.0428
 1827W        W44740  23.425  13.885  26.742  0.1796  0.1353  0.0724
 1828W        W44741  27.765   6.027   4.127 -0.1245  0.1167  0.0721
 1829W        W44742   9.223   7.582   7.977 -0.1499 -0.1495  0.3147
 1830W        W44743  19.782  15.191   5.411  0.0095  0.2200 -0.0783
 1831W        W44744  13.525  24.605   5.896 -0.2680  0.0121 -0.0850
 1832W        W44745  14.050  31.785  24.991  0.0638 -0.0540  0.0563
 1833W        W44746  14.395  17.178  29.009 -0.0787 -0.3643 -0.0241
 1834W        W44747  21.420   8.481  28.651  0.0324  0.2490  0.0127
 1835W        W44748  12.165   1.926   7.108  0.1403  0.1300 -0.1131
 1836W        W44749  33.728   9.916   8.431  0.0346 -0.1444 -0.1141
 1837W        W44750  14.822   6.955   4.612 -0.1461 -0.3437 -0.3411
 1838W        W44751   7.564  27.312   0.374 -0.3693  0.1721  0.0876
 1839W        W44752   7.136   6.049   3.833 -0.0763  0.1635 -0.1116
 1840W        W44753   9.558  17.610  28.653  0.0951 -0.2373  0.1990
 1841W        W44754  12.333  13.938   3.988  0.1142  0.0336  0.2766
 1842W        W44755  28.539   7.121   2.312 -0.1392  0.0589  0.1840
 1843W        W44756  10.676  18.988   2.379 -0.1341  0.0975  0.3445
 1844W        W44757  23.625   5.559   5.438  0.3002 -0.0919 -0.0323
 1845W        W44758  15.920   7.010   6.167 -0.0813  0.1800 -0.1072
 1846W        W44759  10.240  11.640   6.782  0.2788  0.0517  0.2150
 1847W        W44760  19.268  12.292  24.771  0.0658  0.0174  0.1679
 1848W        W44761  10.043   0.119  12.167 -0.2305  0.0676 -0.1724
 1849W        W44762  28.696  15.911   4.376 -0.0367  0.1341  0.1982
 1850W        W44763  15.661  22.067  28.785  0.0122  0.3125  0.1776
 1851W        W44764  23.060  14.044   0.359 -0.0729  0.0642 -0.0232
 1852W        W44765  10.394   2.261   7.050  0.1386  0.0650  0.0607
 1853W        W44766  20.962  17.072  29.675  0.0778 -0.3124  0.1155
 1854W        W44767   6.456   6.077  10.655  0.0569 -0.1628 -0.1866
 1855W        W44768  17.132   8.124   0.885  0.2429 -0.2151  0.2053
 1856W        W44769   4.435  19.456  26.047  0.0892 -0.2785 -0.2066
 1857W        W44770  24.157   8.358   7.480  0.0530 -0.3738 -0.5093
 1858W        W44771  17.196   9.219   6.865  0.0353 -0.1946  0.0192
 1859W        W44772  21.577  16.285   1.318 -0.0957 -0.0116 -0.0726
 1860W        W44773  17.162  10.961   7.568  0.0015  0.1751  0.0396
 1861W        W44774  21.800  12.320  28.602 -0.0232  0.0446 -0.1396
 1862W        W44775  20.543   3.963   9.626  0.1158  0.0749 -0.2394
 1863W        W44776  22.226   7.681   8.980  0.0814 -0.0411 -0.0690
 1864W        W44777  14.019  11.332   6.167 -0.0170 -0.1203  0.0169
 1865W        W44778  11.001  15.018   6.704  0.0851 -0.0764  0.2962
 1866W        W44779  11.502  17.523  28.568 -0.3456  0.1493  0.1282
 1867W        W44780  20.089  15.552   2.712  0.1009 -0.0515  0.0901
 1868W        W44781  18.709  12.389   2.005 -0.0283  0.1629 -0.0436
 1869W        W44782  14.190  19.065   6.300 -0.2302  0.4377 -0.0034
 1870W        W44783  29.905  15.803   8.142  0.0209  0.1568  0.4026
 1871W        W44784  14.149  13.179   6.419 -0.1382 -0.1926  0.2257
 1872W        W44785  18.483  15.995   4.692  0.0838  0.1790  0.2681
 1873W        W44786  10.679   3.983  28.767  0.0098  0.1034  0.0740
 1874W        W44787  18.095  31.573   8.461 -0.0758 -0.3860 -0.2509
 1875W        W44788  11.703  10.482   2.965  0.1760  0.4612 -0.2198
 1876W        W44789  10.864  10.622   5.911 -0.0281  0.0186 -0.0530
 1877W        W44790  23.611   9.113   8.926 -0.1584  0.0492 -0.0491
 1878W        W44791  17.692   9.776   4.714 -0.0209 -0.1149 -0.2407
 1879W        W44792  11.670   7.588   8.839 -0.2479 -0.0222 -0.1778
 1880W        W44793  13.737   9.944  26.404 -0.0386 -0.0662  0.2981
 1881W        W44794  14.761   7.038   5.119 -0.2656  0.2347  0.1137
 1882W        W44795  14.599   3.512  23.221 -0.1895 -0.0199 -0.3627
 1883W        W44796  17.005   1.767   4.505  0.4195 -0.1504  0.0174
 1884W        W44797  13.883  20.418   2.322  0.0998 -0.1478  0.2527
 1885W        W44798  16.773   8.171   8.103  0.1273  0.0174  0.3353
 1886W        W44799  21.039   7.064   6.268 -0.2061  0.1250 -0.0257
 1887W        W44800  31.961  23.031   0.091 -0.1049 -0.1871 -0.0903
 1888W        W44801  16.736   8.699   2.264  0.0694  0.2828 -0.0777
 1889W        W44802  17.362   6.835   3.430  0.2020  0.2295  0.2825
 1890W        W44803  17.623  19.059  26.197  0.2398 -0.2310 -0.1213
 1891W        W44804  18.810  12.458   5.465  0.0543  0.1159  0.0854
 1892W        W44805  20.554  12.526   0.807  0.1896  0.2026 -0.0601
 1893W        W44806   2.875   6.372   3.601  0.1828  0.1363  0.2121
 1894W        W44807  11.189  25.142   7.938  0.0644 -0.0021  0.0103
 1895W        W44808  19.971  10.202   2.233 -0.1962  0.1685 -0.0683
 1896W        W44809  22.809  15.089  27.183 -0.6263 -0.1379  0.0933
 1897W        W44810   6.472  10.188  10.099 -0.2941  0.1253 -0.1461
 1898W        W44811  14.154   9.661   6.898  0.2268 -0.1772 -0.0114
 1899W        W44812  25.856  10.628   4.185 -0.1356  0.1040  0.2142
 1900W        W44813  21.143   1.895   3.209 -0.2368 -0.1060 -0.1569
 1901W        W44814   7.409   7.321   3.026 -0.0451 -0.1130 -0.0706
 1902W        W44815  18.370  11.835   7.965 -0.3353 -0.5301  0.0588
 1903W        W44816   4.566   4.391  11.366  0.2372  0.3903  0.2470
 1904W        W44817  19.562  12.588  26.798 -0.1178  0.2735 -0.0391
 1905W        W44818  14.740  10.238   9.310  0.3188  0.2523  0.0802
 1906W        W44819  14.348   7.775   5.773 -0.0095 -0.1029 -0.0240
 1907W        W44820   8.613   4.473   5.731 -0.1395 -0.3237 -0.0567
 1908W        W44821  25.561   2.648   8.186  0.2634  0.0755 -0.3160
 1909W        W44822  10.377   4.402  11.195 -0.1619  0.0056 -0.2035
 1910W        W44823   8.035   7.476   4.878  0.1640  0.2308  0.1263
 1911W        W44824  15.800  20.827   5.483  0.0727 -0.3669 -0.1579
 1912W        W44825  20.311   4.585   0.343  0.2472 -0.0105 -0.0090
 1913W        W44826  22.559   6.851   4.028 -0.1421  0.1848  0.2293
 1914W        W44827  17.481   6.895   5.979  0.2338  0.2089  0.1566
 1915W        W44828  17.882  14.536   0.566 -0.1613  0.1132  0.0503
 1916W        W44829  18.014  16.417   1.090 -0.0115 -0.1698 -0.0357
 1917W        W44830  19.964  19.704   1.069  0.0706  0.1043 -0.3291
 1918W        W44831   7.931  12.402   4.325  0.0583 -0.0788 -0.2418
 1919W        W44832  10.433  30.498  10.691 -0.0286 -0.1204 -0.1935
 1920W        W44833  27.631  10.975   0.456  0.0750  0.1922 -0.1014
 1921W        W44834  25.294  32.859   6.437  0.2013 -0.0335  0.1265
 1922W        W44835  14.739   9.934   2.131 -0.1558  0.1322 -0.1585
 1923W        W44836  16.333  13.626   4.924 -0.0210 -0.0157 -0.0642
 1924W        W44837   8.400   8.233  26.073  0.0188  0.0264  0.1630
 1925W        W44838  22.908   7.341   6.538  0.6581 -0.2070  0.3290
 1926W        W44839  13.662  21.192   7.237 -0.0530 -0.0227 -0.1832
 1927W        W44840   3.696   4.968  11.716  0.0730 -0.0496  0.2862
 1928W        W44841  24.006  17.718  27.630  0.1864 -0.0657  0.3717
 1929W        W44842   4.586   6.507  11.707 -0.1054 -0.2438  0.0132
 1930W        W44843  11.663  22.831   5.527 -0.1926 -0.2650 -0.0872
 1931W        W44844  14.540   8.668   8.631 -0.0159  0.1369 -0.0825
 1932W        W44845  25.628   4.596   6.262 -0.1819  0.1960 -0.2698
 1933W        W44846  18.139  32.839   8.645  0.1257 -0.1374 -0.0959
 1934W        W44847  14.231   3.319   8.248  0.3796  0.1998 -0.2353
 1935W        W44848  21.000  14.054  23.687 -0.1613  0.0423 -0.3206
 1936W        W44849  13.169   7.955   4.622  0.0018 -0.0740  0.2250
 1937W        W44850  22.257   2.607  29.636  0.2796 -0.0611 -0.0571
 1938W        W44851  13.435  14.344   6.556  0.2417  0.0538 -0.0436
 1939W        W44852   8.069  17.657   0.327 -0.1138 -0.1712 -0.1306
 1940W        W44853  20.656  13.715   0.732 -0.5556 -0.1819 -0.1302
 1941W        W44854  14.712  13.564   6.660  0.0891 -0.0054 -0.2164
 1942W        W44855  17.736  17.292  28.236 -0.2222 -0.0442  0.1783
 1943W        W44856  19.462   6.875   4.565 -0.1502 -0.0113  0.0747
 1944W        W44857  15.112  11.832   4.348  0.0366  0.0739 -0.2054
 1945W        W44858  18.485  14.175  23.685  0.0083 -0.0357  0.1130
 1946W        W44859   8.981  18.075   5.387  0.2523 -0.1941 -0.1530
 1947W        W44860  25.069   6.235   7.933  0.1516  0.2201  0.0754
 1948W        W44861   7.340  11.163   1.657  0.3863 -0.0756  0.2646
 1949W        W44862  16.950  13.514   1.206 -0.2642  0.1408  0.2036
 1950W        W44863  15.404   4.983   0.910  0.1981 -0.0081  0.1560
 1951W        W44864  17.097  13.703   3.785 -0.0671  0.3024  0.0448
 1952W        W44865  24.160  11.048   8.879 -0.0932 -0.0792 -0.0218
 1953W        W44866  24.083  33.857   6.517  0.1802  0.0042  0.2896
 1954W        W44867  23.381  16.162   0.424 -0.0829  0.0845  0.2945
 1955W        W44868   9.054  23.869   8.477 -0.1414 -0.1031  0.1188
 1956W        W44869  17.137  15.555   7.214 -0.0597 -0.0391  0.1502
 1957W        W44870  22.064  14.527   0.210  0.1215 -0.1931 -0.1282
 1958W        W44871  14.775   8.852   7.565 -0.2287  0.0084  0.2761
 1959W        W44872   8.584  11.384   9.047 -0.0682 -0.1268  0.0916
 1960W        W44873   6.814  17.787   0.555 -0.0640 -0.1123 -0.1370
 1961W        W44874  10.734  33.491   4.360  0.1451 -0.5269 -0.2528
 1962W        W44875  18.653   7.956   8.619  0.4069 -0.3649  0.1509
 1963W        W44876  13.168  12.495   3.501  0.1869  0.1909  0.2357
 1964W        W44877   2.842  21.743   9.170  0.0057  0.1307  0.3611
 1965W        W44878  13.114  19.888   2.933 -0.1419  0.0421 -0.4028
 1966W        W44879   7.476   4.631   8.866  0.0524  0.0513  0.2357
 1967W        W44880  17.837   6.270  28.455 -0.0394 -0.0366 -0.3460
 1968W        W44881   2.988  14.238   4.964  0.0528 -0.0336  0.1900
 1969W        W44882  16.604   8.360  23.853 -0.3269 -0.1902  0.2444
 1970W        W44883   8.010   8.677   0.202  0.2827  0.3094  0.1130
 1971W        W44884  28.039  16.237   5.808 -0.1026  0.1194  0.0094
 1972W        W44885   5.157   2.258   2.827 -0.1052  0.2079 -0.0432
 1973W        W44886  12.224   4.499   5.307 -0.1876  0.2142 -0.0389
 1974W        W44887  25.126  12.148   3.107 -0.1224  0.0729  0.3271
 1975W        W44888   5.045  12.324   4.550 -0.0754  0.1442  0.2076
 1976W        W44889  15.133  12.958  29.776 -0.1530 -0.1543 -0.1895
 1977W        W44890  33.726   9.417   4.683 -0.1571 -0.3714 -0.2310
 1978W        W44891   9.475  16.103   5.314  0.0740 -0.2516 -0.2215
 1979W        W44892  20.233   8.803   0.464 -0.0524 -0.1390 -0.1569
 1980W        W44893  20.034  18.627   2.845  0.1357  0.1520 -0.0558
 1981W        W44894  19.080  16.603  28.217  0.2091  0.0708 -0.0016
 1982W        W44895  20.375  10.409   2.680 -0.0957 -0.4829 -0.2376
 1983W        W44896   7.469   4.060   8.937 -0.2261  0.2702 -0.3411
 1984W        W44897  10.177  12.050   9.081 -0.0736 -0.3504  0.0166
 1985W        W44898   8.051  13.795   2.248 -0.1162  0.4375 -0.1245
 1986W        W44899  25.228  19.062   2.263  0.1492 -0.0507  0.0070
 1987W        W44900  17.453  19.197   7.576  0.1447 -0.0147  0.2113
 1988W        W44901  15.737  16.459   5.768 -0.1621 -0.2305 -0.0457
 1989W        W44902  12.852  13.956   7.259 -0.1739  0.1349 -0.2738
 1990W        W44903  14.577  20.500   5.019 -0.1418 -0.0416  0.3321
 1991W        W44904  22.719   5.245  10.418 -0.3095  0.1545 -0.3468
 1992W        W44905  13.878   6.481   2.339 -0.1075  0.0510 -0.0029
 1993W        W44906  19.430   8.527   6.997 -0.1053  0.1703 -0.1384
 1994W        W44907   9.655  15.747   8.739 -0.1913  0.1657 -0.1438
 1995W        W44908  15.791   3.201  21.599 -0.0097  0.1874 -0.1329
 1996W        W44909   2.641  10.094   7.240  0.2393 -0.2949 -0.1071
 1997W        W44910  17.322   8.550  29.666 -0.0534  0.0452  0.0098
 1998W        W44911  12.113  11.940   8.631 -0.1359 -0.0379  0.0382
 1999W        W44912  21.069  10.484   7.833  0.3542 -0.2876 -0.2069
 2000W        W44913  11.153   8.584   4.725  0.0158 -0.1164  0.0578
 2001W        W44914  16.210  13.640   6.523  0.0427  0.2930  0.0788
 2002W        W44915  17.984  11.780   5.485  0.2385  0.0108  0.0371
 2003W        W44916  11.942   3.610   9.897 -0.2675 -0.2881 -0.0308
 2004W        W44917  11.413  16.155   3.161 -0.1323  0.0938  0.1755
 2005W        W44918  24.822  14.954   1.667 -0.1788 -0.2073 -0.4481
 2006W        W44919  17.618  17.014  27.775  0.0737 -0.3430 -0.1171
 2007W        W44920  11.266   4.086   2.762  0.0897 -0.0947  0.0953
 2008W        W44921  12.013  10.432  22.852 -0.1370 -0.2850 -0.0824
 2009W        W44922   0.743   8.472  26.256  0.2308  0.1073  0.2911
 2010W        W44923  14.810   8.467   3.513 -0.0789 -0.3162 -0.0113
 2011W        W44924   9.568   6.591  10.941 -0.0355 -0.1375  0.2998
 2012W        W44925   5.747   6.028  10.666 -0.0975 -0.1437  0.0717
 2013W        W44926  17.780  17.225   0.764  0.0946  0.1170  0.1691
 2014W        W44927  11.981  12.193   1.126 -0.1600 -0.0617 -0.2181
 2015W        W44928  28.764  18.406  23.529 -0.1210 -0.1457 -0.1225
 2016W        W44929  16.541  19.847   5.130 -0.2071 -0.0370  0.2695
 2017W        W44930  11.060  19.218   2.063  0.1865 -0.1145  0.0853
 2018W        W44931  11.934  17.939   4.092  0.1729  0.0281 -0.0117
 2019W        W44932  14.322  17.284   5.204  0.1405  0.1776  0.0691
 2020W        W44933  14.696   7.254  28.110  0.1470 -0.0426  0.1227
 2021W        W44934  11.812   4.831   3.491 -0.0436 -0.2781 -0.2903
 2022W        W44935   5.978   5.236  11.146 -0.1067 -0.0103 -0.0565
 2023W        W44936   5.077   6.187   4.585 -0.1233  0.0730 -0.1622
 2024W        W44937  16.436   9.164   5.131  0.0697 -0.1021 -0.0954
 2025W        W44938  25.734  18.771   7.269 -0.2345 -0.1206  0.0094
 2026W        W44939  16.287   4.108   7.218 -0.1211  0.1195  0.1975
 2027W        W44940   8.784   7.197   2.402  0.0751  0.1076 -0.1525
 2028W        W44941  25.023   6.096   0.308 -0.1243  0.1680  0.2995
 2029W        W44942  10.210  19.368  24.850 -0.2605 -0.0355 -0.1475
 2030W        W44943   3.536   8.053   0.561  0.0419  0.1344 -0.0521
 2031W        W44944   3.099   5.287   6.463 -0.1981 -0.1329 -0.0594
 2032W        W44945  15.051  11.638   1.257  0.3653 -0.0394  0.2059
 2033W        W44946  20.692   3.533  10.433 -0.2483  0.0952  0.2527
 2034W        W44947  16.356  24.368   8.103 -0.0856  0.1837 -0.0815
 2035W        W44948  16.621  19.556   1.826 -0.3102  0.5775 -0.0734
 2036W        W44949  10.692  12.754   4.717  0.1417  0.0946  0.1344
 2037W        W44950  16.751  16.378   7.837 -0.0911 -0.1379 -0.1201
 2038W        W44951  17.005  15.402  23.394  0.1804  0.5222 -0.0091
 2039W        W44952  14.655  15.855   6.796  0.0392 -0.1387 -0.0173
 2040W        W44953   8.160   5.816   4.103  0.1782 -0.0861 -0.0463
 2041W        W44954  22.784   3.411   8.184  0.2184  0.0748  0.1544
 2042W        W44955  20.343   4.423  25.228  0.1341 -0.1662 -0.3538
 2043W        W44956  12.807  13.841   5.389 -0.0614  0.1814 -0.1544
 2044W        W44957  12.111   3.189   4.972 -0.2609  0.1847  0.2546
 2045W        W44958  10.241  16.928   8.539 -0.2967 -0.2010 -0.4347
 2046W        W44959  10.175  10.322   1.082  0.1345 -0.1418 -0.0516
 2047W        W44960  23.277   1.301   9.893  0.0532 -0.0244  0.1207
 2048W        W44961  17.001   7.721  28.549 -0.0200  0.2067  0.4495
 2049W        W44962   2.296  16.248   3.133  0.1435 -0.2798  0.0293
 2050W        W44963   8.946   7.357   0.840  0.2342 -0.0447 -0.1754
 2051W        W44964  12.435  21.174   5.840 -0.1279  0.1913  0.2347
 2052W        W44965  11.635  15.280   2.030  0.2506 -0.0765 -0.0957
 2053W        W44966  21.881   9.301   8.786  0.2421 -0.0337  0.3108
 2054W        W44967  16.396   7.728   6.411  0.0462  0.1358  0.1891
 2055W        W44968  10.324   0.370   6.736 -0.0710 -0.1349 -0.1284
 2056W        W44969  10.048  15.463   3.093 -0.0065  0.1270 -0.1020
 2057W        W44970  16.850  14.939  22.793 -0.0690  0.1250 -0.0787
 2058W        W44971   8.603  18.878   5.910  0.1357 -0.0472  0.3914
 2059W        W44972  14.379   8.695   5.109 -0.0278  0.2333  0.1922
 2060W        W44973  16.549  32.020   3.041  0.0034 -0.1543 -0.1981
 2061W        W44974  13.316   7.040   1.224  0.0883  0.2625  0.0940
 2062W        W44975  11.136   1.579   4.223 -0.4386 -0.0201 -0.1698
 2063W        W44976  21.199   6.928   8.011  0.2111  0.1474 -0.1649
 2064W        W44977   8.126   5.185   6.607 -0.1652 -0.1284  0.0914
 2065W        W44978   4.827  33.114   8.713  0.1526  0.3910  0.3769
 2066W        W44979   9.663  22.160   2.383  0.2390  0.2991 -0.3130
 2067W        W44980   9.084   5.233   6.905  0.1468 -0.0971  0.0955
 2068W        W44981   5.168   7.604   6.074 -0.0788  0.2839  0.2884
 2069W        W44982   7.426  11.892   8.456  0.0240 -0.0457  0.3674
 2070W        W44983  24.907  18.468   8.467  0.3380  0.0095  0.0712
 2071W        W44984  19.567  33.173   8.029 -0.2013 -0.0014  0.1654
 2072W        W44985  17.562   8.189   3.874  0.3007  0.0700  0.1676
 2073W        W44986  15.494  15.378   1.092 -0.2398  0.2754 -0.1864
 2074W        W44987  19.468   4.202   7.479 -0.0945 -0.1940 -0.1509
 2075W        W44988  10.394  10.391   5.775 -0.2547 -0.3871  0.0554
 2076W        W44989  15.892   0.994   4.190 -0.2947  0.1672  0.0708
 2077W        W44990  13.220  22.067   4.759 -0.1484 -0.0903 -0.2955
 2078W        W44991   5.794  25.248   8.197  0.3911 -0.0868 -0.0221
 2079W        W44992  19.899   9.934   1.573 -0.1181 -0.2890 -0.3576
 2080W        W44993  20.348  14.143   8.930 -0.1413  0.1352 -0.0010
 2081W        W44994  24.129   7.905   9.516  0.0310  0.0400  0.0801
 2082W        W44995  18.528  24.412   7.105  0.1643  0.0685  0.1188
 2083W        W44996  11.047   9.448   8.949  0.3807 -0.0303 -0.0370
 2084W        W44997   7.337   7.891   7.461  0.0780  0.0956 -0.1596
 2085W        W44998   7.389   9.758   2.908  0.0376  0.0201  0.0229
 2086W        W44999  14.947  13.161   5.953 -0.1698 -0.0212  0.1442
 2087W        W45000  17.712  21.063   6.257  0.1829  0.0958  0.2455
 2088W        W45001  10.024   2.331  12.134  0.1901 -0.1335 -0.2451
 2089W        W45002  12.480  20.520   8.580  0.0992  0.0006  0.1176
 2090W        W45003  31.515  11.156   2.546  0.0324 -0.0313  0.2397
 2091W        W45004  10.349   6.099  27.593 -0.2048  0.0890 -0.3821
 2092W        W45005  15.175   1.074   4.683  0.0794  0.0281 -0.1075
 2093W        W45006  10.748   7.813   1.427  0.2508 -0.1467 -0.1909
 2094W        W45007  24.443   7.936   7.480 -0.1100  0.0166  0.0434
 2095W        W45008  17.925   9.083   3.626 -0.1286  0.1712 -0.3941
 2096W        W45009   7.805  22.007   7.630  0.0199  0.0717 -0.1165
 2097W        W45010  15.104   0.610   0.728 -0.0898  0.0386  0.2225
 2098W        W45011   7.151  10.438   5.356 -0.0486 -0.4465 -0.3825
 2099W        W45012   0.900   4.928   9.268 -0.1222  0.0380 -0.0322
 2100W        W45013  23.285  17.235  27.726 -0.2181 -0.0322 -0.0009
 2101W        W45014  20.179   6.129   3.045 -0.0149 -0.3378 -0.1167
 2102W        W45015  13.495  19.824   1.982  0.2261  0.0068  0.1265
 2103W        W45016  18.517   7.733   8.131  0.1624 -0.1193 -0.0518
 2104W        W45017  21.457  18.443  28.132  0.2540 -0.0140 -0.1641
 2105W        W45018  16.709   8.227   6.666  0.0465  0.3893  0.4262
 2106W        W45019  15.337  16.146   3.495  0.0438  0.3456 -0.1028
 2107W        W45020  18.141   3.485   9.203 -0.1468  0.0256  0.3159
 2108W        W45021  17.158  10.433   4.927 -0.1427  0.1386 -0.0968
 2109W        W45022   4.860   2.264  12.488  0.1423  0.0014  0.4959
 2110W        W45023  15.991  22.095   8.222 -0.0162  0.0525 -0.1708
 2111W        W45024   5.560  20.675   8.484 -0.0613 -0.2353  0.0352
 2112W        W45025  21.700  11.404   6.815  0.3303  0.0281  0.1396
 2113W        W45026  11.559  30.343   5.840 -0.0471 -0.0274 -0.0909
 2114W        W45027  10.077   2.090  27.102 -0.2709  0.1685 -0.1358
 2115W        W45028   6.619   3.740  10.307 -0.1710  0.0208 -0.2055
 2116W        W45029  27.077   6.500   5.491 -0.0760 -0.1440  0.1551
 2117W        W45030  18.987   8.506   6.721  0.0369 -0.1911  0.0496
 2118W        W45031  24.417  16.574   4.189 -0.0825 -0.0294 -0.1885
 2119W        W45032  20.245  13.023   7.568 -0.1140 -0.0408  0.2777
 2120W        W45033   8.526  34.122   6.467  0.3797 -0.0351 -0.0283
 2121W        W45034   8.136  11.326   6.124  0.1972  0.4564 -0.0760
 2122W        W45035  12.388  10.094   8.298 -0.1265  0.4714 -0.2000
 2123W        W45036  21.827   7.224  28.781 -0.2496 -0.0492 -0.1017
 2124W        W45037   9.642   5.617   8.426  0.2134 -0.1072  0.0659
 2125W        W45038  21.299   3.848   5.462 -0.1471  0.1475  0.1577
 2126W        W45039  12.530   5.825   9.766  0.1695 -0.0588  0.3660
 2127W        W45040  14.262  12.509  25.425  0.2264  0.0692  0.2865
 2128W        W45041   3.115   8.316   2.954 -0.1640 -0.1786  0.2020
 2129W        W45042  19.179  15.019  29.721 -0.0073  0.3812 -0.2334
 2130W        W45043  22.001  12.142  26.755 -0.0217 -0.1298 -0.1855
 2131W        W45044  13.345   9.137  10.103  0.1662  0.1565  0.1839
 2132W        W45045  12.481   1.722   7.482 -0.1836  0.1913 -0.0810
 2133W        W45046  12.654  16.183   5.449  0.4706 -0.1531  0.1629
 2134W        W45047  14.016   6.238   6.004  0.2807 -0.1163 -0.0338
 2135W        W45048  21.116   9.377  28.832  0.0876 -0.4532  0.0705
 2136W        W45049  13.745   8.481   2.975 -0.0974 -0.0235 -0.3182
 2137W        W45050  13.865  12.086   0.648  0.1266  0.4786  0.0484
 2138W        W45051  13.285  21.578   3.606 -0.0591 -0.0935 -0.1930
 2139W        W45052  19.759  11.529   6.476 -0.2284  0.0129 -0.2703
 2140W        W45053   3.804  22.394   8.902  0.2960 -0.1553  0.2182
 2141W        W45054  13.671   9.531  26.608 -0.0037  0.1376 -0.2647
 2142W        W45055   7.836   8.959   8.516  0.0357 -0.1182  0.0439
 2143W        W45056  10.958   5.642   6.009 -0.0939  0.0155 -0.1839
 2144W        W45057  27.761   2.345   9.595 -0.3110 -0.0704 -0.1763
 2145W        W45058   9.285   7.652   3.129 -0.0022  0.0561  0.0324
 2146W        W45059  13.730  14.568   4.964 -0.0525  0.2302 -0.1365
 2147W        W45060  17.135  16.621   7.480  0.3745 -0.1662 -0.1829
 2148W        W45061  21.983  11.610   5.989 -0.0773 -0.1140 -0.4545
 2149W        W45062  16.721   7.941   4.596 -0.2031  0.0450  0.1339
 2150W        W45063  11.914  16.543  27.667 -0.0139  0.4286  0.0187
 2151W        W45064  22.410   8.792   4.356 -0.1198 -0.1306 -0.3260
 2152W        W45065  20.882   9.753   6.458 -0.1637  0.0072 -0.1246
 2153W        W45066   6.222  14.480   7.889  0.0452 -0.2983  0.0183
 2154W        W45067  19.049  11.645  28.416 -0.0635  0.3066  0.1017
 2155W        W45068   8.740  10.110   5.783  0.0536 -0.1221 -0.1917
 2156W        W45069  14.263  18.029   8.359 -0.1401 -0.1741 -0.0087
 2157W        W45070  18.758  17.802  23.307  0.4765  0.4393 -0.1500
 2158W        W45071  17.041   7.229   3.579 -0.0101  0.1209 -0.0496
 2159W        W45072  34.483   5.178   9.739 -0.0970 -0.0681 -0.0961
 2160W        W45073   5.917   2.594  11.355  0.0332  0.0011 -0.2294
 2161W        W45074   5.942  12.485   6.670  0.0626  0.4670  0.0099
 2162W        W45075  11.617  32.802   4.288 -0.3229 -0.0684 -0.0995
 2163W        W45076  13.782  11.386   9.180  0.0494  0.0076 -0.0067
 2164W        W45077  15.759   3.930   7.730 -0.1245  0.0320 -0.0849
 2165W        W45078  19.232   3.183   7.530  0.1826  0.2800  0.0354
 2166W        W45079  16.924  14.110   1.822 -0.0181 -0.4516  0.1163
 2167W        W45080   7.166   4.887  12.604 -0.0666 -0.0965  0.0361
 2168W        W45081  21.250   6.582  29.442  0.0706 -0.1043  0.0368
 2169W        W45082  18.946   8.792   4.794  0.2010  0.1196  0.2805
 2170W        W45083   7.513   9.309  11.186  0.0250 -0.0206  0.3430
 2171W        W45084   8.678  14.985   6.489 -0.0438  0.0218 -0.0484
 2172W        W45085  17.857  13.480   6.155  0.1013  0.1733 -0.0452
 2173W        W45086  12.110  10.491   7.092 -0.0252 -0.1237  0.2583
 2174W        W45087  14.391  10.707   4.039  0.3084  0.3468  0.1771
 2175W        W45088  15.435  13.396   4.504  0.1117  0.0185  0.2625
 2176W        W45089  20.253   9.495   4.782  0.0890  0.2924 -0.3964
 2177W        W45090  13.690  27.572   8.735 -0.1076  0.2475  0.2009
 2178W        W45091  12.763  14.197   8.734 -0.0100  0.0793 -0.2758
 2179W        W45092  27.791  10.846   4.283 -0.0841 -0.1457 -0.3828
 2180W        W45093   5.410   7.594  11.946 -0.0985 -0.1706  0.2177
 2181W        W45094   6.413   6.221  11.173  0.0672  0.3324 -0.2221
 2182W        W45095  18.945  14.169   2.455 -0.1675  0.0662  0.1551
 2183W        W45096  24.753   7.219   5.863 -0.2735  0.1268  0.0718
 2184W        W45097  11.633  17.818   7.927 -0.1711  0.0867 -0.1466
 2185W        W45098  14.784  16.663   0.462  0.1172  0.2872  0.0997
 2186W        W45099   7.008   7.325   8.794  0.0828 -0.1801 -0.3104
 2187W        W45100   3.488  14.618   7.201  0.1887  0.0013 -0.0446
 2188W        W45101  23.851  11.988   4.926  0.0351 -0.1808  0.1798
 2189W        W45102  15.869  10.666   5.883 -0.1921  0.0072 -0.1112
 2190W        W45103  17.161   9.063   3.742 -0.0888  0.0154 -0.0905
 2191W        W45104  18.935   2.249  10.600  0.0755 -0.3543 -0.1841
 2192W        W45105  14.786  15.360  24.330  0.1768 -0.3266  0.0359
 2193W        W45106  13.087   4.009   5.274 -0.0919 -0.0475 -0.3701
 2194W        W45107   7.643   7.776   1.160 -0.1109  0.1132 -0.0455
 2195W        W45108  20.199  19.424   4.346  0.0516 -0.1456 -0.0883
 2196W        W45109   1.433  20.599   9.735 -0.2929 -0.0623 -0.3437
 2197W        W45110  29.298   6.058   7.227  0.2555 -0.0355  0.1694
 2198W        W45111  13.991   7.096  11.249 -0.0104  0.0540  0.2418
 2199W        W45112  16.913   5.939   4.652 -0.0769 -0.0644  0.2314
 2200W        W45113  14.539   5.209   9.273 -0.3108 -0.1105  0.4038
 2201W        W45114   8.578  10.760   3.283  0.0176 -0.1990  0.0735
 2202W        W45115  16.135   4.882   8.119  0.3434 -0.2899 -0.0427
 2203W        W45116  15.595   6.007   7.092  0.2707 -0.0775 -0.1418
 2204W        W45117  13.587  11.980   7.891 -0.1394 -0.0899 -0.0142
 2205W        W45118  19.296  18.566   7.390 -0.0176  0.1894  0.1661
 2206W        W45119  15.912   8.629   9.903  0.1904 -0.1031 -0.2997
 2207W        W45120  20.719   9.210  10.120  0.1189  0.0988  0.0934
 2208W        W45121  17.587  12.222   1.298  0.2693 -0.1380  0.1754
 2209W        W45122   9.634   6.883   9.760  0.1887 -0.1123  0.1227
 2210W        W45123  12.553  14.595  27.464  0.2716 -0.0916 -0.0880
 2211W        W45124  17.531   3.394  26.992  0.0055  0.1819  0.0634
 2212W        W45125  17.527   5.570   9.275  0.0260 -0.1406  0.2874
 2213W        W45126  10.076   8.491  11.149 -0.0209 -0.1272 -0.3447
 2214W        W45127   7.316  15.336   3.637 -0.2075  0.2998  0.0283
 2215W        W45128  30.537  13.577   8.353 -0.2124 -0.0015  0.2160
 2216W        W45129  10.976   7.471  10.330 -0.0471 -0.0800 -0.0385
 2217W        W45130  18.107  11.319   6.319 -0.1060 -0.0764 -0.2615
 2218W        W45131   6.331   4.661   9.273 -0.1093  0.2883  0.1377
 2219W        W45132  10.660  34.189   2.146 -0.0975 -0.1248  0.0580
 2220W        W45133  21.583  34.451   8.381  0.0756  0.1292 -0.0541
 2221W        W45134   2.729  13.461  10.698  0.1405  0.1344 -0.1443
 2222W        W45135   8.572  11.884   5.764  0.0695 -0.0045 -0.1704
 2223W        W45136  17.024  19.493   4.269  0.2546 -0.0031 -0.0703
 2224W        W45137  10.322   8.107  10.685 -0.2650  0.1988  0.0815
 2225W        W45138  13.643  12.946   7.814  0.0547  0.0977 -0.0955
 2226W        W45139  16.624   9.024  27.941  0.3497 -0.1196 -0.1979
 2227W        W45140  15.227   7.256   4.921 -0.1563 -0.0241  0.1262
 2228W        W45141  20.236   7.174   7.018 -0.1057  0.3730  0.1059
 2229W        W45142   2.146   6.479  12.492  0.2666  0.1854 -0.0065
 2230W        W45143  17.478  14.271  24.660  0.1095 -0.1193  0.2124
 2231W        W45144  10.821  14.598   6.294  0.2301 -0.2584  0.0531
 2232W        W45145  13.260   4.994   5.519  0.2114 -0.0551  0.1567
 2233W        W45146   3.579  15.844   0.384  0.1259 -0.1892  0.0069
 2234W        W45147   6.236   3.855   9.915 -0.0757 -0.2759  0.2001
 2235W        W45148  16.221   1.904   1.194  0.2479  0.1425 -0.2866
 2236W        W45149  14.175  19.539   3.957 -0.4299  0.1139 -0.0309
 2237W        W45150  16.884  20.147   4.965  0.0919 -0.1376  0.1321
 2238W        W45151  13.600  26.973  10.758 -0.1637 -0.1906 -0.0602
 2239W        W45152  14.167  22.786   9.729  0.0652  0.1643  0.2613
 2240W        W45153  18.508  17.798   5.436 -0.1973  0.0279  0.1602
 2241W        W45154  29.537  13.457   6.235  0.0334 -0.0304 -0.2808
 2242W        W45155  13.345  14.904   8.647 -0.0960  0.1189  0.3007
 2243W        W45156  18.393  16.845   6.615  0.2447 -0.0147 -0.1978
 2244W        W45157  29.713  15.120   7.680  0.2668 -0.2308  0.0521
 2245W        W45158  10.227   6.062   1.261 -0.0285 -0.2754 -0.1484
 2246W        W45159  24.634  10.669   9.262 -0.1788 -0.3721 -0.2997
 2247W        W45160  21.701  12.418   5.864 -0.0360 -0.2284 -0.0370
 2248W        W45161  21.718   0.970   6.521  0.2041  0.0878 -0.0093
 2249W        W45162  15.186  11.391   5.851 -0.0282 -0.1228 -0.3389
 2250W        W45163  16.024  22.385   8.595  0.0133 -0.0332 -0.2055
 2251W        W45164   4.211  18.090   8.960 -0.2124  0.1507 -0.0054
 2252W        W45165  19.603   8.442   8.916  0.0450  0.2506  0.0673
 2253W        W45166   8.543  10.329   0.107 -0.0787  0.1286  0.0778
 2254W        W45167  20.703  13.447   2.479  0.2062  0.1666 -0.1048
 2255W        W45168   9.836   3.309  27.497  0.1282 -0.1548 -0.0885
 2256W        W45169  17.785   6.198   8.389 -0.0397  0.5727 -0.0215
 2257W        W45170  11.888  10.208   0.708 -0.0715  0.0743  0.0311
 2258W        W45171   7.671   4.650   5.510  0.1947 -0.1962  0.2946
 2259W        W45172  20.668   9.037  27.854  0.1181  0.0351 -0.1773
 2260W        W45173  15.694  25.320   7.894  0.1948  0.0324 -0.0262
 2261W        W45174  19.319  12.808   3.501 -0.2204  0.0251  0.0707
 2262W        W45175  14.353  11.235  28.158 -0.2658 -0.1447  0.0433
 2263W        W45176  16.064  11.227   7.816  0.1217 -0.0020 -0.2131
 2264W        W45177  10.725   2.716  11.353  0.0939 -0.1391  0.2603
 2265W        W45178   3.544  11.721  28.032  0.3075 -0.1699 -0.1393
 2266W        W45179   4.289   4.710  12.975  0.0564 -0.0629 -0.4916
 2267W        W45180  11.115  12.271   2.916 -0.0557  0.1405  0.0834
 2268W        W45181  10.179   7.505   8.394  0.0378  0.0297  0.0965
 2269W        W45182  10.136   3.631  11.928 -0.1700 -0.0493  0.0728
 2270W        W45183  16.075  18.733   2.633 -0.1567 -0.3415  0.0102
 2271W        W45184   5.620  13.670   2.719  0.2612 -0.0945  0.0845
 2272W        W45185  16.086   6.843   8.198 -0.2301  0.0173  0.0920
 2273W        W45186   9.559  11.637   8.374  0.1630 -0.2198  0.0307
 2274W        W45187  21.091  15.520   5.295  0.0603 -0.3055  0.0198
 2275W        W45188  15.601  13.130  23.062  0.2001 -0.1921  0.0112
 2276W        W45189  19.865  14.615   4.613  0.2680 -0.1340  0.1883
 2277W        W45190   8.844  33.419  12.215 -0.1623 -0.0755 -0.0166
 2278W        W45191   5.774  32.842  10.423 -0.1228  0.0896 -0.0278
 2279W        W45192  10.720   1.685  12.648 -0.0101 -0.2923 -0.1394
 2280W        W45193  15.907  13.930   2.965 -0.1250  0.0396 -0.1926
 2281W        W45194  15.654   3.255   6.522  0.2104  0.0877  0.4461
 2282W        W45195  12.121  18.697   6.071  0.5106 -0.2213 -0.0195
 2283W        W45196  18.602   6.543  25.000 -0.1137 -0.2748  0.0755
 2284W        W45197  12.743   0.813  12.077  0.1390  0.0089  0.1749
 2285W        W45198   9.010  18.769   7.564  0.2402  0.3162  0.1624
 2286W        W45199  18.997  17.880   6.690 -0.0252 -0.1035 -0.2511
 2287W        W45200  10.093  18.411   6.570  0.0696  0.1206  0.2417
 2288W        W45201  10.323   3.886  10.939 -0.1930  0.0979  0.1879
 2289W        W45202  21.369  13.725   3.013 -0.1369 -0.0449 -0.1954
 2290W        W45203   8.533  15.755   7.455 -0.3061 -0.0587  0.0233
 2291W        W45204  21.604  10.933  23.987  0.1212 -0.1008  0.1377
 2292W        W45205  14.636   0.399  10.025 -0.1332 -0.0701 -0.1744
 2293W        W45206  12.916   8.747   9.255  0.0251 -0.0359  0.2186
 2294W        W45207   9.884   7.216  10.644  0.2563 -0.3970 -0.2414
 2295W        W45208  13.144  17.913   4.676 -0.0662 -0.2332  0.0246
 2296W        W45209  25.834  15.485   9.133  0.2747  0.3370  0.3343
 2297W        W45210  20.641  10.564   7.147 -0.2869  0.1830  0.0453
 2298W        W45211  10.903  11.989   5.166 -0.3512  0.0134 -0.2305
 2299W        W45212   6.677   8.851   1.706  0.0105 -0.0124  0.2160
 2300W        W45213  19.164   9.102   3.198  0.1169  0.0084 -0.2111
 2301W        W45214  21.663  13.059   7.048  0.0808  0.1612 -0.3232
 2302W        W45215  22.240  14.637   5.131  0.1803  0.1354  0.1035
 2303W        W45216  28.090   1.205   7.591 -0.1411  0.1976  0.1057
 2304W        W45217  13.358   3.289   4.881 -0.1461 -0.0434 -0.0342
 2305W        W45218  14.519  23.125   7.032  0.1004 -0.0268  0.2619
 2306W        W45219  25.056   8.981   8.061 -0.0861  0.0560 -0.1762
 2307W        W45220  10.374   8.220  12.062 -0.2382  0.0240  0.1776
 2308W        W45221  16.359   4.654   9.421 -0.0146 -0.4134  0.3012
 2309W        W45222  19.370   9.485   5.119 -0.1029  0.0468 -0.1177
 2310W        W45223  13.924  14.501  29.042  0.2263 -0.0867 -0.1510
 2311W        W45224  16.869  16.758   1.864  0.1589  0.1975 -0.1149
 2312W        W45225  19.605  14.067   4.679  0.0674 -0.0343 -0.2173
 2313W        W45226  20.656   2.232   7.794 -0.1170  0.1281  0.2578
 2314W        W45227   8.166  19.267   9.870 -0.1879 -0.1400  0.1881
 2315W        W45228  12.999  13.192   3.548  0.2544  0.1051 -0.0305
 2316W        W45229  30.676   0.202  29.183 -0.1687  0.3949 -0.1239
 2317W        W45230  13.971  11.055   2.484 -0.0313 -0.0356  0.2245
 2318W        W45231  20.338   1.048   1.552 -0.2077  0.1802  0.1593
 2319W        W45232  13.313  20.392   8.774  0.0328  0.2006  0.0392
 2320W        W45233  13.950  17.506   6.905 -0.0293 -0.0319 -0.0742
 2321W        W45234  19.389  18.091   5.823 -0.2230 -0.0124  0.0850
 2322W        W45235  26.101   9.553   2.776 -0.0741  0.1406 -0.1738
 2323W        W45236  13.863  33.449   7.850 -0.2941  0.3192 -0.0244
 2324W        W45237  12.421  12.072   7.544  0.3049  0.2282 -0.0965
 2325W        W45238  27.983  14.042   3.123 -0.0783  0.0973  0.0486
 2326W        W45239   9.757   4.582  10.014 -0.0460  0.0708  0.2219
 2327W        W45240  19.921   8.171   1.833 -0.2869 -0.2446 -0.1015
 2328W        W45241  10.086  12.720   9.793 -0.0314 -0.1485  0.0796
 2329W        W45242  20.074   3.315   9.003  0.1205 -0.0590 -0.2498
 2330W        W45243  18.159  15.458  28.127 -0.1403 -0.0471  0.1238
 2331W        W45244  13.413   3.071   3.304  0.3087  0.1592  0.0453
 2332W        W45245   9.949   3.057  11.359  0.2709 -0.0624 -0.0924
 2333W        W45246  18.331   9.776   5.599  0.0381  0.3038 -0.0034
 2334W        W45247  19.518  21.245   4.414  0.2319  0.2983  0.2253
 2335W        W45248  14.069   5.032  10.959 -0.1582 -0.0448  0.1798
 2336W        W45249  17.837  10.285  27.748  0.0721 -0.0059  0.2702
 2337W        W45250   8.914  15.352   6.756  0.2004  0.2552  0.0812
 2338W        W45251  18.096  12.216   3.364 -0.1714 -0.2286 -0.1981
 2339W        W45252   9.729   2.517  13.217 -0.1073 -0.5489 -0.0337
 2340W        W45253  27.263  15.692   3.681 -0.0062 -0.0313 -0.1525
 2341W        W45254  18.317  12.217   7.614 -0.1196 -0.0533  0.2208
 2342W        W45255   4.831  10.705   0.161  0.0041  0.1135 -0.0818
 2343W        W45256  22.404  15.959   5.664 -0.0154  0.2571 -0.2757
 2344W        W45257   8.488  33.357   3.309 -0.2342  0.0185  0.2242
 2345W        W45258  16.622  11.054   0.579 -0.0469 -0.3351  0.2264
 2346W        W45259  25.105  13.456   8.652  0.0132  0.0579 -0.0575
 2347W        W45260  16.368  16.091  24.662  0.2321  0.1158  0.0189
 2348W        W45261  20.482   9.621   8.005 -0.2026  0.0218 -0.2287
 2349W        W45262  19.102  14.268  29.068 -0.1149  0.1606 -0.1328
 2350W        W45263  19.190  13.748   3.401  0.1548 -0.0557 -0.0896
 2351W        W45264  16.436   0.424   8.760  0.0258 -0.3096 -0.0522
 2352W        W45265   8.905  12.249  10.991 -0.2080  0.0755 -0.1995
 2353W        W45266  15.936  21.869  26.910 -0.1110  0.0928 -0.0744
 2354W        W45267  19.704   4.475   0.988 -0.2993  0.1317  0.0238
 2355W        W45268  20.552  16.987  26.744  0.4298  0.1790 -0.0372
 2356W        W45269   7.349   7.483   6.309  0.1852 -0.0876  0.1157
 2357W        W45270  14.912  19.016   7.054  0.0221  0.2091 -0.2678
 2358W        W45271  19.096   6.081   4.730 -0.0743  0.2937 -0.2791
 2359W        W45272  11.895  12.370   6.717 -0.1692  0.3594  0.2194
 2360W        W45273  18.980  13.306  26.735  0.0400  0.1711 -0.0988
 2361W        W45274  18.961  20.145  26.111 -0.3193 -0.2127  0.0299
 2362W        W45275  25.171  12.461   3.605 -0.0227  0.0651  0.0417
 2363W        W45276  18.227  15.952   0.179 -0.2409 -0.2090  0.1026
 2364W        W45277   8.463  19.205  22.330  0.1511  0.0075 -0.1602
 2365W        W45278  13.066  24.291   9.217  0.1627 -0.1054 -0.0264
 2366W        W45279  24.434  11.985   1.513 -0.1638  0.0949  0.0242
 2367W        W45280  21.344  22.787  28.515  0.1722 -0.2737 -0.1377
 2368W        W45281  23.485  18.754  24.730 -0.2273 -0.0585 -0.0528
 2369W        W45282  10.243  24.651  19.589  0.0780  0.1071 -0.0191
 2370W        W45283  18.141  23.257  26.259  0.0603 -0.1630 -0.0748
 2371W        W45284  13.623  21.782   0.455 -0.0434 -0.0246  0.1152
 2372W        W45285  23.107  20.033   6.759 -0.0951 -0.1672  0.0421
 2373W        W45286  17.948  14.705   2.648  0.3152  0.0994 -0.1695
 2374W        W45287   9.210  10.435   3.963  0.0874 -0.0549 -0.0722
 2375W        W45288   7.860  12.724   1.269  0.2646 -0.4519  0.2176
 2376W        W45289   2.666  19.953   2.602  0.1862  0.0106 -0.1867
 2377W        W45290  14.187  17.009   3.375  0.3264  0.1967 -0.3394
 2378W        W45291  14.419  14.220  22.864 -0.0189 -0.1020 -0.4203
 2379W        W45292   6.147  10.516   7.825  0.1459  0.1355  0.0821
 2380W        W45293  15.256   0.495   8.191 -0.1631 -0.0427  0.0004
 2381W        W45294  14.623  15.148  22.773  0.2894  0.1897  0.0208
 2382W        W45295   7.062  25.107   7.755  0.3031  0.2721  0.0354
 2383W        W45296  21.301  12.400   8.224 -0.1172 -0.0459  0.3025
 2384W        W45297  15.222  17.437  28.402  0.1026  0.1577 -0.0801
 2385W        W45298  11.353  13.166  26.085  0.0156  0.0859  0.0758
 2386W        W45299  20.385  25.026  25.093 -0.1694  0.0077 -0.2986
 2387W        W45300  17.657  15.627   0.308 -0.1659  0.0902  0.0813
 2388W        W45301  16.990  18.652   1.406  0.2509 -0.1178  0.2807
 2389W        W45302  26.753  19.912  28.924  0.3180 -0.1181  0.4253
 2390W        W45303   9.170  11.217  20.071 -0.0751 -0.2818  0.1371
 2391W        W45304  14.099  32.224   1.864 -0.0755 -0.0150 -0.1426
 2392W        W45305  15.962  31.608   1.513 -0.2066 -0.0865  0.3473
 2393W        W45306  13.653  26.386   0.017 -0.3564 -0.0848 -0.1151
 2394W        W45307  21.430  21.227  24.852  0.0310  0.1475  0.2448
 2395W        W45308  13.823  11.454  26.685 -0.0718 -0.0751  0.2250
 2396W        W45309  17.012  17.289   2.040 -0.4010  0.2473  0.0271
 2397W        W45310  20.789  15.595   8.187 -0.0136  0.1441 -0.0072
 2398W        W45311  21.365   9.361   1.208  0.0336 -0.0707  0.2069
 2399W        W45312  19.795  25.131   5.660 -0.2119  0.1706 -0.2320
 2400W        W45313   5.919   9.485  28.212 -0.3111 -0.2826  0.1711
 2401W        W45314  25.760  19.327   8.846 -0.1556 -0.1860  0.3441
 2402W        W45315  27.333  33.018   1.926  0.1504 -0.2636  0.0641
 2403W        W45316  15.278   8.863   7.399  0.0026  0.4946  0.1270
 2404W        W45317  17.575  21.257  26.185  0.1305  0.1342  0.2464
 2405W        W45318  14.111  20.457  24.290  0.0619 -0.1143  0.0895
 2406W        W45319  10.836  13.389   0.546 -0.1603 -0.0430 -0.1660
 2407W        W45320  12.716  20.043   0.415 -0.0261  0.0109  0.0548
 2408W        W45321  12.965  13.756  25.063  0.0821 -0.2962 -0.0640
 2409W        W45322  23.061  21.256  16.884 -0.1464 -0.1228 -0.0051
 2410W        W45323  28.582   5.567  27.323 -0.2709  0.2763 -0.2570
 2411W        W45324  19.854  26.504   5.808  0.0161  0.2306 -0.1522
 2412W        W45325  13.759   9.938  26.996  0.1284 -0.0277 -0.0082
 2413W        W45326  11.676  13.440   4.664 -0.1519 -0.2336 -0.1455
 2414W        W45327   9.948  24.553  24.141  0.0457 -0.0712 -0.0747
 2415W        W45328  11.075  18.308  29.110  0.2448 -0.3715  0.1723
 2416W        W45329   1.827   9.812  26.252  0.2951 -0.1747 -0.2097
 2417W        W45330  13.676  10.328  26.735 -0.0981 -0.1875 -0.1303
 2418W        W45331  21.543  16.146   8.519 -0.1881 -0.2560  0.0308
 2419W        W45332  17.676  10.405   8.154 -0.3489  0.6514 -0.0167
 2420W        W45333  13.008   3.793  23.286 -0.0464  0.2601 -0.2205
 2421W        W45334  12.969  14.490  26.525  0.0662  0.3986 -0.1622
 2422W        W45335  12.447  14.690   6.327 -0.1066 -0.0862 -0.0582
 2423W        W45336  15.070  16.885   4.459  0.1313 -0.1119 -0.1768
 2424W        W45337  10.039   8.488  27.616  0.1203 -0.1721  0.0375
 2425W        W45338  22.715   8.009   0.678 -0.2241 -0.0921 -0.3287
 2426W        W45339   8.195  17.383   9.816  0.0236 -0.0699 -0.0870
 2427W        W45340  13.906  25.926   0.409 -0.1208  0.0218 -0.3378
 2428W        W45341  15.766  22.871   9.466  0.4692 -0.4411  0.0331
 2429W        W45342  18.232   7.899   0.877 -0.5108 -0.1504 -0.1437
 2430W        W45343  13.207  16.651  27.796  0.2597  0.1259  0.3432
 2431W        W45344  10.673  10.451  25.967 -0.1605 -0.3733  0.0743
 2432W        W45345  15.834  18.201  26.644  0.0200 -0.1534 -0.2859
 2433W        W45346   8.474  20.956   3.845 -0.0775 -0.2531 -0.0303
 2434W        W45347   3.475  20.579  26.041 -0.0921  0.1545 -0.1193
 2435W        W45348  14.724  15.859  24.499 -0.1425 -0.1922  0.0714
 2436W        W45349  15.981   7.531   3.870  0.0657  0.1907  0.1917
 2437W        W45350  12.429  17.135  25.768  0.0391 -0.0047 -0.0730
 2438W        W45351   8.620   5.585  12.726  0.1972  0.1441 -0.1239
 2439W        W45352  10.425  23.803   0.500 -0.1826  0.1474  0.0141
 2440W        W45353  13.415  26.038   3.625 -0.3651  0.1202 -0.3102
 2441W        W45354   8.539  15.876  29.260  0.2199 -0.2876 -0.3394
 2442W        W45355   9.908  18.307   9.710  0.0211 -0.0946 -0.0265
 2443W        W45356  25.074  14.610   7.567  0.1687 -0.1729  0.0857
 2444W        W45357  16.894  15.590   2.170 -0.3369  0.0161  0.2071
 2445W        W45358  15.712  14.351   1.573 -0.2192  0.4150  0.0575
 2446W        W45359   1.047  23.343   4.578  0.0896 -0.0231  0.1127
 2447W        W45360  24.195  15.478   3.293 -0.0280  0.2212  0.0817
 2448W        W45361  14.826  18.999  23.562 -0.1936  0.3863  0.2193
 2449W        W45362  20.923  17.499  24.425  0.1801 -0.4948 -0.1222
 2450W        W45363  17.898  24.929   0.800  0.0236 -0.1632 -0.1144
 2451W        W45364  24.782  22.525   2.662 -0.0701 -0.1079  0.2397
 2452W        W45365   5.830  21.539  26.300  0.1460  0.2704 -0.1663
 2453W        W45366  12.215   9.523  27.011 -0.2145 -0.3995  0.0619
 2454W        W45367   6.294  19.302   7.951 -0.0591  0.1535  0.0643
 2455W        W45368  17.914   8.155   4.773 -0.1755  0.0230 -0.1050
 2456W        W45369  17.206  13.700   3.171 -0.1349 -0.1494 -0.0633
 2457W        W45370  20.176   1.898  10.158 -0.3362  0.1126  0.2426
 2458W        W45371  16.806  16.821  23.389 -0.2261  0.0711  0.0133
 2459W        W45372  24.575  10.590  27.940  0.0954 -0.1239 -0.0114
 2460W        W45373  11.016  24.893   0.131 -0.0976  0.1903  0.0874
 2461W        W45374   4.119  23.780   9.932  0.0693 -0.1255  0.2179
 2462W        W45375  25.591  18.039  20.234 -0.2052 -0.2716 -0.0080
 2463W        W45376  22.048  20.452  26.529 -0.2961 -0.3284 -0.0834
 2464W        W45377  15.121  32.722  29.649 -0.1841  0.0874 -0.0964
 2465W        W45378  11.755  17.689  24.230  0.4619 -0.2967  0.0963
 2466W        W45379  10.447  15.245   7.101 -0.3326 -0.1319 -0.0451
 2467W        W45380  17.256  24.436   4.385  0.0419  0.1958  0.0759
 2468W        W45381  10.077  29.782   2.559  0.1942  0.0508  0.0231
 2469W        W45382  19.341  17.693   4.776 -0.2088 -0.1243  0.0160
 2470W        W45383  20.354  14.686  15.917  0.1855 -0.3411  0.2207
 2471W        W45384   8.101  18.707  26.697 -0.4268  0.0135 -0.2687
 2472W        W45385  15.086  16.734   6.715  0.0123  0.1149 -0.0036
 2473W        W45386  11.750   3.915   3.399  0.0182  0.1346  0.1261
 2474W        W45387  18.396  22.150  25.404 -0.1574  0.4140  0.0803
 2475W        W45388  15.328  13.782   8.521  0.3654  0.3292 -0.0706
 2476W        W45389   9.530  26.044   5.885  0.1016  0.0791  0.0677
 2477W        W45390  27.088  14.610   1.867  0.4149  0.2051  0.1721
 2478W        W45391  16.054  32.208  24.587 -0.0472  0.0848  0.1382
 2479W        W45392   6.826  21.130   1.069 -0.0050  0.1771  0.3217
 2480W        W45393  11.579   7.150  24.986  0.1095 -0.0439  0.0084
 2481W        W45394  16.551  13.249   2.015 -0.0237 -0.0791 -0.0165
 2482W        W45395   8.870  12.663   8.877  0.1703 -0.2938 -0.3679
 2483W        W45396  20.384  21.555  22.890 -0.0405 -0.0130 -0.4337
 2484W        W45397  14.383  21.864   2.572 -0.1799  0.2781  0.0970
 2485W        W45398  15.268  15.864   1.927  0.0262 -0.1401  0.0246
 2486W        W45399  12.245  12.183   2.083  0.2897  0.0676 -0.1436
 2487W        W45400  15.195  13.424   0.472  0.2690  0.0655  0.0098
 2488W        W45401  14.441  10.140   2.546  0.1477 -0.4102  0.0511
 2489W        W45402  15.788   6.640  27.559  0.0698 -0.0150  0.0413
 2490W        W45403  17.209  21.819  26.201  0.1636 -0.0346  0.0409
 2491W        W45404  24.540  25.030   7.714 -0.1680  0.2232  0.1088
 2492W        W45405  10.216  13.619  20.194  0.1395  0.1055 -0.2139
 2493W        W45406  24.015   7.624   4.978  0.2086  0.0090  0.0568
 2494W        W45407  21.113  29.818   8.611  0.0852  0.0934 -0.0053
 2495W        W45408   8.542   6.585   0.044  0.2830  0.3018  0.2159
 2496W        W45409  12.719  24.742   4.546  0.1613 -0.3329 -0.0823
 2497W        W45410  12.911  18.795  26.604 -0.1492 -0.2315 -0.0830
 2498W        W45411   7.995  19.209   6.148  0.0764  0.1264  0.1042
 2499W        W45412  10.511  24.427  22.658 -0.3346 -0.0763  0.2554
 2500W        W45413  14.641  15.883   4.126  0.0534  0.3498 -0.1678
 2501W        W45414   6.553  26.097   3.045  0.2813 -0.0418 -0.1405
 2502W        W45415   9.318  15.586  27.596  0.4818  0.1770 -0.0454
 2503W        W45416  14.702  24.037   5.446 -0.3130  0.2809 -0.0859
 2504W        W45417  19.072  12.731  21.418 -0.1742  0.0530  0.0686
 2505W        W45418  12.750  22.749   7.530 -0.0888 -0.2436 -0.2083
 2506W        W45419   4.438  17.653   8.319  0.0163  0.0569 -0.1903
 2507W        W45420  14.659  15.792  29.708  0.0044  0.0646  0.2313
 2508W        W45421  12.146  14.824  16.757  0.1202  0.0419 -0.0607
 2509W        W45422  23.056  20.611  27.293  0.0373 -0.0450 -0.0010
 2510W        W45423  28.006  23.475   3.658  0.3053 -0.0264 -0.1265
 2511W        W45424   9.170  13.749  25.767 -0.1216 -0.1546  0.0806
 2512W        W45425  15.551   3.825   8.802  0.1081 -0.0294 -0.0047
 2513W        W45426   9.056  17.002   6.912 -0.1256  0.0845 -0.1465
 2514W        W45427  15.033  12.601  28.305 -0.0138  0.0493 -0.3846
 2515W        W45428   5.020  29.195  28.594 -0.1587  0.0869 -0.1610
 2516W        W45429   9.055  10.345   2.161 -0.2056  0.0856  0.0957
 2517W        W45430  10.697  24.621  21.293  0.1088 -0.0084 -0.0870
 2518W        W45431  13.973  10.397   4.863  0.0354 -0.0902 -0.1332
 2519W        W45432  16.164  20.749   0.180  0.0542  0.3106 -0.2025
 2520W        W45433  30.664  16.774   8.790 -0.1367  0.0363  0.0847
 2521W        W45434  16.804  23.251   2.146  0.0287 -0.0816 -0.2202
 2522W        W45435  20.732  21.810  24.942 -0.0066 -0.0010  0.2397
 2523W        W45436  17.306  28.380   5.812 -0.0973  0.2463  0.0182
 2524W        W45437  11.715  15.052   4.630  0.0612  0.1269  0.0758
 2525W        W45438  11.270  16.733  29.287 -0.0538  0.2039 -0.0986
 2526W        W45439  12.264  16.893  22.793  0.2447 -0.1062 -0.1874
 2527W        W45440  20.542  15.413   2.936  0.0888 -0.1658 -0.0841
 2528W        W45441  18.773  11.650  25.928  0.0163  0.2518 -0.1713
 2529W        W45442  12.954  19.494   5.933 -0.0910 -0.1313  0.1542
 2530W        W45443  12.459  14.325   2.233 -0.1191 -0.3984  0.1926
 2531W        W45444  17.542   7.056  28.975  0.0956  0.1149  0.1892
 2532W        W45445  13.084  20.412   6.697 -0.3455  0.4119  0.2330
 2533W        W45446   8.631  17.608   3.124  0.2030 -0.1443 -0.0427
 2534W        W45447  10.998  13.229   7.248  0.4107 -0.0544  0.0348
 2535W        W45448  12.201  17.528  22.153 -0.0588 -0.2937 -0.3664
 2536W        W45449  21.218  20.207   2.314  0.0527  0.2620  0.0160
 2537W        W45450  16.386  24.891   8.804  0.2528 -0.0940 -0.4771
 2538W        W45451  33.240  12.630  17.988 -0.2582 -0.1615  0.0605
 2539W        W45452  12.811  23.594   4.400 -0.1863  0.1384  0.0945
 2540W        W45453  20.507  10.270   3.482  0.2424  0.0729  0.0528
 2541W        W45454  19.671  33.357  17.592 -0.0424  0.0285  0.0415
 2542W        W45455  23.966  14.455  24.773 -0.1275 -0.0221  0.1316
 2543W        W45456  32.298  17.108  20.533  0.1555 -0.2498 -0.0344
 2544W        W45457  15.777  14.863   4.275 -0.0054  0.0691 -0.2029
 2545W        W45458  12.624  12.421   1.106  0.0559  0.1606  0.1937
 2546W        W45459  14.336  22.127   6.713 -0.1113  0.3563  0.0127
 2547W        W45460  15.533  14.173   5.138  0.1037 -0.4829 -0.1598
 2548W        W45461  29.835  13.954   5.479 -0.0746 -0.0299 -0.2797
 2549W        W45462  15.950  27.243   9.423 -0.2483 -0.2122  0.2461
 2550W        W45463  12.668   8.738   9.880 -0.1912 -0.1622  0.2540
 2551W        W45464  15.036  14.021  25.808 -0.0922 -0.0540 -0.1335
 2552W        W45465  13.317  15.254   1.681  0.3330  0.1343 -0.2394
 2553W        W45466  21.810  25.429  27.448 -0.0380 -0.4902 -0.1176
 2554W        W45467  25.884  22.995  27.383  0.0805  0.1415 -0.1723
 2555W        W45468  12.453  16.603   0.989 -0.1860 -0.0660 -0.0431
 2556W        W45469  14.427   8.841   3.493  0.4335  0.3359 -0.1063
 2557W        W45470  10.111  19.601   5.302 -0.0727  0.3138 -0.0371
 2558W        W45471  25.859  13.664   7.470  0.0756  0.0740  0.0929
 2559W        W45472  25.599   6.474   6.574  0.2422  0.3367 -0.5314
 2560W        W45473  11.507  27.906   5.229  0.0808 -0.1541  0.1352
 2561W        W45474  21.567  21.605   0.037 -0.1016 -0.0864 -0.1838
 2562W        W45475   4.651  26.882   2.590  0.0859 -0.1350  0.0898
 2563W        W45476  18.297  23.127   1.099  0.0770  0.0674 -0.2678
 2564W        W45477  21.830  16.992   0.964  0.0006 -0.0248  0.0117
 2565W        W45478  17.484  19.291  27.220  0.3270 -0.4404  0.1726
 2566W        W45479   4.795  10.080  17.441  0.5007 -0.0879  0.1361
 2567W        W45480  12.348  10.721   3.429 -0.3066  0.1848  0.3009
 2568W        W45481  15.289  21.024   3.436  0.0516  0.0967  0.1000
 2569W        W45482  10.726  13.730  29.332  0.1122 -0.2258  0.0974
 2570W        W45483  21.817  22.536  23.996  0.3413 -0.1872  0.1126
 2571W        W45484   6.734   3.750   0.735  0.0673 -0.2101 -0.2002
 2572W        W45485  19.178   8.727  29.396  0.0324  0.1057  0.2155
 2573W        W45486  17.602  22.061   5.713  0.1668  0.1897  0.1518
 2574W        W45487  12.127  18.221  26.649 -0.0111 -0.2864 -0.2159
 2575W        W45488  10.178  12.031   2.155  0.2220  0.0906 -0.1326
 2576W        W45489   4.474   4.258  29.530  0.1424  0.0262 -0.1192
 2577W        W45490  12.210  22.251   2.367  0.3568 -0.4283 -0.0866
 2578W        W45491   6.984  20.900   3.965  0.1553 -0.0953  0.2039
 2579W        W45492  20.847   6.649   5.478 -0.0307 -0.2377  0.3773
 2580W        W45493  26.818  27.968  29.596 -0.0879 -0.1238  0.0939
 2581W        W45494  16.447   6.328   4.505  0.2226 -0.1393  0.0803
 2582W        W45495  10.954  17.917  27.807 -0.3094 -0.0519  0.0986
 2583W        W45496  11.991   9.644   0.656  0.2722 -0.4787 -0.2134
 2584W        W45497   9.033   5.795   4.630 -0.1648 -0.0558 -0.3824
 2585W        W45498   8.045   4.535   5.782  0.2153 -0.1685 -0.0868
 2586W        W45499  13.320   6.777  25.697 -0.0670 -0.1121  0.1725
 2587W        W45500  18.542  14.071   3.338  0.2140  0.0498 -0.0606
 2588W        W45501   4.204  15.904   2.922 -0.0095 -0.2166  0.4099
 2589W        W45502  15.647  16.428  27.905 -0.0512  0.3058 -0.0351
 2590W        W45503  12.913  13.073   4.840  0.1167  0.0662  0.1815
 2591W        W45504  13.836   8.932   0.003 -0.2325 -0.3952 -0.0631
 2592W        W45505  24.270   5.608  27.283 -0.2328 -0.0733  0.0386
 2593W        W45506  21.683  13.397  25.437 -0.2165  0.2344 -0.0100
 2594W        W45507  20.273  14.274   3.771  0.1881 -0.0445  0.0518
 2595W        W45508  22.835  32.123   6.305 -0.1087 -0.1249 -0.1592
 2596W        W45509  12.023   7.246  26.282 -0.2586 -0.2895  0.1560
 2597W        W45510  11.059   8.793  26.115  0.1613  0.0335 -0.2459
 2598W        W45511   8.669   5.690   2.377 -0.0399  0.0784 -0.0496
 2599W        W45512   4.239   3.198   6.241 -0.1177  0.2799 -0.2278
 2600W        W45513  15.081  23.668  21.958 -0.0470 -0.1320 -0.1005
 2601W        W45514   4.496  11.320   1.513  0.0906 -0.0030  0.0881
 2602W        W45515  23.096   9.433  28.054 -0.0395  0.2421 -0.0604
 2603W        W45516  10.072  15.929   3.254 -0.0230 -0.1606  0.0841
 2604W        W45517  11.430  16.399  29.656  0.4002 -0.0708  0.1916
 2605W        W45518  22.063  15.072   1.438  0.0546  0.0831  0.0867
 2606W        W45519  13.565  23.399   2.044  0.0375  0.1221 -0.3155
 2607W        W45520  15.242  19.581   2.410  0.2681 -0.1965 -0.0768
 2608W        W45521  10.622   8.823   7.145  0.0745 -0.0163  0.1023
 2609W        W45522  15.683  23.694   1.756 -0.2091 -0.1944  0.1144
 2610W        W45523   9.616  24.400   6.655  0.0750 -0.3400  0.1617
 2611W        W45524  14.059  20.076  25.161  0.0987  0.3361 -0.3477
 2612W        W45525   3.214  11.042   8.447 -0.4560 -0.0648 -0.1221
 2613W        W45526  12.613  22.187   3.291  0.0565  0.0141 -0.1285
 2614W        W45527  16.691  18.420   0.161  0.2180 -0.0842 -0.0299
 2615W        W45528  25.751  12.287   1.731 -0.1196  0.2949 -0.1002
 2616W        W45529  24.510  12.342  29.273 -0.0462  0.6923 -0.2218
 2617W        W45530   8.366  16.122   1.100  0.0561 -0.0797  0.1502
 2618W        W45531  22.083  34.281   3.591 -0.0601 -0.1175 -0.0748
 2619W        W45532  19.756  28.156   0.911 -0.0285  0.0908  0.0458
 2620W        W45533  15.060   1.608   9.778 -0.1101  0.0392 -0.1930
 2621W        W45534  23.781  11.621  24.815 -0.1576 -0.0435  0.0256
 2622W        W45535  13.207  20.015   6.339  0.0747 -0.0102  0.1556
 2623W        W45536  16.056  22.086  20.977  0.0683  0.1516  0.3030
 2624W        W45537  17.161  22.099   2.198 -0.0674 -0.3550  0.0528
 2625W        W45538  15.100  19.215   1.376 -0.2593  0.0113 -0.1165
 2626W        W45539  21.351  12.712   8.622 -0.2492  0.1175 -0.1143
 2627W        W45540   7.072   6.116   2.956 -0.4988  0.3580 -0.1427
 2628W        W45541  18.837  10.712   5.044  0.3015 -0.4342 -0.0329
 2629W        W45542  16.545  17.310  27.562 -0.0166  0.0868 -0.0989
 2630W        W45543   6.802  10.488   1.439  0.0947 -0.0506  0.0419
 2631W        W45544  19.457  18.187  25.649  0.4824  0.2031  0.2066
 2632W        W45545  12.152  20.911   1.030 -0.0064 -0.0382 -0.0032
 2633W        W45546  16.178  25.899  24.141 -0.0697 -0.2293 -0.1518
 2634W        W45547  11.896  17.535  27.365  0.1477  0.1226  0.0541
 2635W        W45548  19.091  19.992  26.721  0.2087  0.1430  0.4762
 2636W        W45549  16.041  11.867  28.979  0.0986  0.0396  0.0846
 2637W        W45550  19.399  21.603   6.596 -0.0829  0.0057 -0.4094
 2638W        W45551  12.194  22.723   2.622  0.0519  0.2523 -0.1281
 2639W        W45552  23.037  17.655   6.881  0.1598 -0.2172 -0.5004
 2640W        W45553  10.600  21.658  26.369 -0.0597  0.3348 -0.1377
 2641W        W45554   6.085  14.327  29.013  0.0359 -0.1652  0.0407
 2642W        W45555  17.109  11.763  27.713  0.3611 -0.1097  0.3077
 2643W        W45556  21.574  13.233   0.915  0.1400 -0.2022  0.0236
 2644W        W45557  18.251   7.521  26.306  0.0499  0.2783  0.1383
 2645W        W45558  10.429   9.591  27.128 -0.1219 -0.0440  0.2193
 2646W        W45559  11.668   5.156  25.979 -0.3096  0.3858 -0.1330
 2647W        W45560  17.645  19.565   7.970  0.2134  0.0043  0.1157
 2648W        W45561  20.270   3.588   2.872  0.1150  0.0364 -0.0376
 2649W        W45562  16.102  22.506   4.709 -0.0733  0.0613 -0.0024
 2650W        W45563   9.330  18.520   3.136 -0.0653  0.0952 -0.0391
 2651W        W45564  18.884  21.185  25.406  0.0275  0.3417  0.0071
 2652W        W45565  19.568  16.408   2.899 -0.1474 -0.0749  0.1187
 2653W        W45566   4.799  24.786   0.554 -0.0080  0.2117  0.0939
 2654W        W45567  18.087  12.748  22.607  0.0290 -0.4063  0.0272
 2655W        W45568  15.013   8.230   4.053  0.0790 -0.0389  0.0866
 2656W        W45569  19.542  12.964  22.393 -0.2649  0.0002  0.0487
 2657W        W45570   8.617  23.383   4.213 -0.2746 -0.1067  0.1545
 2658W        W45571  16.359  19.976   3.699  0.2395 -0.0913 -0.2603
 2659W        W45572  20.803  24.457   2.042  0.1799 -0.0838 -0.0329
 2660W        W45573  15.260   6.787   3.208  0.0301  0.0352  0.0312
 2661W        W45574  21.142   5.602   0.605  0.0516  0.0768 -0.0131
 2662W        W45575  11.804  18.370  25.989 -0.3029  0.4211  0.0363
 2663W        W45576  11.571  23.827   2.023 -0.0562  0.1414  0.0306
 2664W        W45577  24.226  19.408  27.085  0.0268 -0.1066 -0.0099
 2665W        W45578  15.695  14.812  22.725  0.1475  0.4324 -0.1540
 2666W        W45579  13.909   8.946  27.214  0.0283 -0.1389 -0.1649
 2667W        W45580  10.354  21.309  21.763 -0.0696 -0.1184 -0.1475
 2668W        W45581   8.602  18.973  21.888 -0.0716  0.1929  0.2148
 2669W        W45582  23.119  15.725   5.565 -0.1303  0.2162 -0.0161
 2670W        W45583  11.606  13.795  22.071  0.1428  0.0174 -0.1833
 2671W        W45584  14.802  19.930  24.686  0.3319 -0.2690 -0.0861
 2672W        W45585   8.368  16.937  27.720  0.3401 -0.0338  0.1714
 2673W        W45586   8.963  14.047  21.525 -0.1877 -0.2956  0.1821
 2674W        W45587   8.607  18.801   7.858  0.0540 -0.1887  0.2720
 2675W        W45588  24.378  10.610   7.555  0.0606 -0.1772  0.0331
 2676W        W45589  18.864  15.998   8.855 -0.1190  0.2059 -0.0594
 2677W        W45590  26.030  12.438   6.181  0.1347  0.3021 -0.1777
 2678W        W45591  17.921  22.892   0.393  0.1284  0.0826  0.1601
 2679W        W45592  13.797   9.415  27.578 -0.0620 -0.0051 -0.1623
 2680W        W45593  21.486  18.727  27.644  0.0942  0.3442 -0.0174
 2681W        W45594  28.576   8.173   2.150  0.1213  0.0135  0.3334
 2682W        W45595  13.268  17.319  25.443  0.2277 -0.2253 -0.1375
 2683W        W45596  10.920  20.973   9.299 -0.3408 -0.1739  0.0990
 2684W        W45597  23.613  12.547   4.928  0.0985 -0.3780 -0.2670
 2685W        W45598  15.314  18.888  23.966 -0.1226 -0.2203  0.0211
 2686W        W45599  13.864  21.399  24.823  0.1463  0.0595  0.3879
 2687W        W45600   7.153  20.464   4.101 -0.5088 -0.0666 -0.1180
 2688W        W45601  14.904   3.027   4.344 -0.2957 -0.1644  0.1618
 2689W        W45602  22.165   6.980   4.980  0.1289  0.1431  0.1088
 2690W        W45603  15.466   9.585  27.670 -0.0598 -0.0108  0.3251
 2691W        W45604  13.604   6.825  21.983  0.2069 -0.0581  0.0603
 2692W        W45605  12.768   8.111  25.819  0.2581 -0.3017  0.0659
 2693W        W45606  13.797  17.201   0.451 -0.0032 -0.0913 -0.1090
 2694W        W45607   7.300  17.036   7.325  0.2001 -0.0677  0.1736
 2695W        W45608  18.178  15.406   3.138  0.0002  0.1791 -0.1804
 2696W        W45609  18.898  29.413   7.071  0.0235  0.0084 -0.0514
 2697W        W45610  17.358  27.433   7.571 -0.0596  0.1840 -0.1638
 2698W        W45611  17.609  14.021   3.209  0.0915 -0.0789  0.2691
 2699W        W45612   6.691  33.013  21.301 -0.1795 -0.1405 -0.1236
 2700W        W45613  13.823  11.373   0.815  0.0867  0.4086  0.0551
 2701W        W45614  19.977  13.215  27.226  0.0110 -0.3068  0.0772
 2702W        W45615  14.937   8.334  29.066  0.0096 -0.0211 -0.1893
 2703W        W45616   9.518   9.452  27.067 -0.1695  0.2805 -0.2758
 2704W        W45617  17.221  11.105   3.103 -0.0395 -0.3656 -0.1821
 2705W        W45618  24.846  20.745   8.459 -0.2119 -0.1355  0.0283
 2706W        W45619  21.591  25.131   3.502  0.0632 -0.4244 -0.0463
 2707W        W45620  15.801  21.526   4.141 -0.1747  0.0737 -0.0968
 2708W        W45621   9.966  20.189  27.413  0.2923  0.1759  0.3710
 2709W        W45622   7.870  11.439  10.752 -0.3515 -0.2874 -0.0659
 2710W        W45623  10.127  17.508  29.694  0.0532 -0.0171 -0.2029
 2711W        W45624   7.214  15.595   0.372 -0.1185 -0.0216 -0.0558
 2712W        W45625  11.902  15.601  19.201  0.4069  0.2099 -0.1382
 2713W        W45626  20.644  23.274   7.721 -0.0373  0.1277  0.2722
 2714W        W45627  11.206  15.576  22.827 -0.1484  0.2085 -0.2522
 2715W        W45628  11.638  12.081  29.056 -0.4291  0.0063 -0.1964
 2716W        W45629  23.192  16.751  24.515  0.0690  0.0061 -0.1423
 2717W        W45630  23.957  23.544   7.122 -0.2725  0.2571  0.2263
 2718W        W45631  14.463  17.115  27.968  0.0744 -0.3477  0.0721
 2719W        W45632  31.338  29.264   0.325 -0.0765 -0.1344  0.1970
 2720W        W45633  16.838  16.094  26.003 -0.0986  0.0646 -0.0120
 2721W        W45634  17.973  26.653   7.574  0.1467 -0.2834  0.1422
 2722W        W45635  10.869  20.187   8.103 -0.2399  0.1224  0.1238
 2723W        W45636  18.420  27.127   7.019  0.4051 -0.0245 -0.1109
 2724W        W45637  13.810  19.191   3.734  0.0372  0.2425  0.0467
 2725W        W45638  26.693  13.954   8.343  0.2550  0.1290  0.0460
 2726W        W45639   6.156  16.083  10.071 -0.0782  0.0224  0.0026
 2727W        W45640   5.762  19.434   8.907 -0.3789  0.1030  0.0910
 2728W        W45641  18.837  15.254   5.781  0.0357 -0.3559 -0.2379
 2729W        W45642   7.124   6.830   7.536 -0.2929 -0.3477  0.2349
 2730W        W45643  12.634  23.143   9.275  0.0688 -0.2991 -0.0959
 2731W        W45644  15.213  13.705   3.588 -0.0049 -0.0226  0.5433
 2732W        W45645  24.951   7.468   6.287 -0.0263  0.0022  0.0436
 2733W        W45646  17.920  18.669   7.667  0.0902 -0.0430 -0.0764
 2734W        W45647  12.503   5.118  29.377  0.3620 -0.3923 -0.1245
 2735W        W45648  13.801  10.518   9.320  0.1010  0.1899 -0.1657
 2736W        W45649  13.673  15.993  17.191 -0.0183  0.3434  0.1947
 2737W        W45650  21.027  22.412   3.921  0.2177  0.2408  0.1680
 2738W        W45651  10.016  24.883  24.634 -0.1816  0.4261  0.1594
 2739W        W45652  26.076   4.955   6.531  0.1600  0.1057 -0.1425
 2740W        W45653  22.453  16.018   0.806  0.3279 -0.0395  0.0245
 2741W        W45654  18.422  20.295  19.812 -0.3140  0.2729  0.1159
 2742W        W45655  21.353  19.638  25.384  0.0959 -0.0748  0.1740
 2743W        W45656  16.713  15.815   0.037  0.0112  0.0162  0.2006
 2744W        W45657  11.594  24.441  29.156  0.1192 -0.0631 -0.2166
 2745W        W45658  16.986  14.901   0.483  0.0869 -0.1061 -0.1259
 2746W        W45659  11.916   5.862   3.326  0.1935 -0.1767  0.1899
 2747W        W45660  26.117  14.840  22.549 -0.3084 -0.0392 -0.2007
 2748W        W45661  20.777  14.175   0.522 -0.0620 -0.0007 -0.1441
 2749W        W45662  27.410  30.201   8.699  0.0259  0.1891  0.1724
 2750W        W45663  14.180  13.779  29.329  0.3569 -0.0027  0.0116
 2751W        W45664  26.676  14.758   0.046 -0.0159 -0.1095 -0.0562
 2752W        W45665  16.964  17.016   3.824  0.0921 -0.1049 -0.1930
 2753W        W45666  12.786  16.852  26.137 -0.0404  0.1646 -0.1066
 2754W        W45667  20.862  10.103  24.852  0.0730 -0.0619 -0.0933
 2755W        W45668  12.856   8.422   6.141 -0.0952  0.1942  0.1057
 2756W        W45669  21.639  13.082  23.512  0.4926  0.1212 -0.0498
 2757W        W45670  16.654   7.216   3.283  0.0602 -0.0475  0.0388
 2758W        W45671   9.769  26.767   2.498 -0.2023 -0.0432  0.2555
 2759W        W45672  10.572  18.678  22.573  0.1389 -0.0006  0.0956
 2760W        W45673  13.912  17.631  28.942  0.2789 -0.2960  0.0278
 2761W        W45674  19.511  17.147  24.292  0.0423 -0.0370 -0.0194
 2762W        W45675  18.064  27.022  17.167  0.2726 -0.1014  0.2847
 2763W        W45676  20.887  15.889   6.774 -0.1160  0.1111  0.0069
 2764W        W45677  17.891  18.341   7.310 -0.1487 -0.1840 -0.0619
 2765W        W45678  16.653  24.611   8.418  0.1684 -0.3035  0.3154
 2766W        W45679  19.604   7.790   7.262 -0.2274 -0.0619 -0.0176
 2767W        W45680   7.843  14.297  10.528  0.1329  0.0539 -0.1523
 2768W        W45681  25.076   0.419   4.218  0.1932  0.2680  0.3539
 2769W        W45682  16.059  13.330  28.219 -0.1685 -0.0923  0.0908
 2770W        W45683  21.920  15.301   4.622  0.2237 -0.1564 -0.0409
 2771W        W45684  15.376  16.818   7.600 -0.0828  0.0171  0.2573
 2772W        W45685  12.842  13.574  28.794  0.1286  0.1055  0.1436
 2773W        W45686  20.240  16.436  29.603  0.1083  0.1662  0.1663
 2774W        W45687   6.123  15.466  25.725  0.0713 -0.1525 -0.1011
 2775W        W45688   7.731   8.493  11.421 -0.2143  0.3962 -0.1069
 2776W        W45689  15.655   6.786   0.474 -0.1233  0.0932  0.1759
 2777W        W45690  15.583  17.793  26.098  0.0619  0.2006  0.1240
 2778W        W45691  24.111  14.414  28.241  0.2246 -0.3482  0.2648
 2779W        W45692  15.955  10.073   6.463  0.1712 -0.1923 -0.0960
 2780W        W45693   6.819   5.884  10.933 -0.1833  0.0380 -0.2547
 2781W        W45694  17.028  21.783  23.485  0.2973  0.0453  0.2941
 2782W        W45695  17.796  11.496  18.504 -0.2302 -0.0293  0.2028
 2783W        W45696   9.813  21.220   4.727 -0.4735 -0.0298  0.1809
 2784W        W45697  18.202  15.103   1.782 -0.0140 -0.0737  0.0977
 2785W        W45698  21.310  15.152   5.798 -0.3169 -0.0837 -0.0067
 2786W        W45699  19.254  18.455  28.713  0.1948 -0.0851 -0.2154
 2787W        W45700  15.823  17.411   6.705  0.0923 -0.1624  0.0640
 2788W        W45701  15.273  20.526   1.661  0.1392 -0.1533  0.0563
 2789W        W45702  14.388   5.856   7.692 -0.0877 -0.0076  0.1462
 2790W        W45703  23.649  19.574  28.501  0.1004  0.1651 -0.1641
 2791W        W45704  18.146  20.507  21.700  0.0893  0.1319 -0.0172
 2792W        W45705  19.798  17.786   3.330 -0.2076 -0.1085  0.1183
 2793W        W45706  18.510  22.964  22.861 -0.0003  0.0272 -0.0939
 2794W        W45707  20.083  14.240   4.249 -0.4204  0.1896  0.0994
 2795W        W45708  22.839   9.042   9.171 -0.2043 -0.0186 -0.0929
 2796W        W45709   4.552  11.374   3.048 -0.2979  0.2359  0.1423
 2797W        W45710  12.425   8.196   8.736 -0.2934 -0.2849  0.1528
 2798W        W45711   0.444   8.752  24.080 -0.2017 -0.2758  0.0053
 2799W        W45712  14.974  16.300  23.707 -0.0890 -0.0102  0.1496
 2800W        W45713   2.293  34.425  25.846  0.1079  0.1683 -0.0918
 2801W        W45714  10.705  11.303   5.048 -0.1980  0.1218  0.0661
 2802W        W45715   3.280  27.391   1.819  0.0272  0.0641 -0.3627
 2803W        W45716  10.123  14.453   8.586  0.0098 -0.2430 -0.0037
 2804W        W45717   9.855  12.023  29.686  0.1689 -0.0294  0.1377
 2805W        W45718  19.882  17.696  29.598  0.0874  0.1039  0.1660
 2806W        W45719  15.757  27.235   7.700  0.0260 -0.2721  0.1167
 2807W        W45720   4.093  17.091   3.525  0.2005 -0.2059 -0.0882
 2808W        W45721  20.978  18.852   0.978  0.5704  0.3133  0.1583
 2809W        W45722  13.012  14.861  25.291 -0.0130  0.0256  0.1722
 2810W        W45723  16.607  33.193  10.562 -0.1825  0.0648  0.1235
 2811W        W45724  12.056  13.185   3.729 -0.0123  0.2183 -0.2411
 2812W        W45725  14.085  19.417  25.957 -0.0530 -0.1074  0.1083
 2813W        W45726  17.199  10.746   1.089 -0.0756  0.0779  0.2709
 2814W        W45727  14.220  16.717   3.794 -0.3188  0.1580  0.4749
 2815W        W45728   9.112  19.722   7.810  0.2267  0.1395  0.0514
 2816W        W45729  15.413  17.948  26.681  0.1153 -0.1973 -0.0177
 2817W        W45730  21.792  14.912   6.666 -0.0210 -0.1456 -0.0702
 2818W        W45731  16.898  16.913   2.889  0.1095 -0.2970 -0.0314
 2819W        W45732  13.897  10.831   7.652  0.1744  0.0471  0.2401
 2820W        W45733  20.899  21.655  29.271  0.0556  0.1014 -0.0668
 2821W        W45734   3.469  17.617   6.220  0.3035 -0.1546 -0.1355
 2822W        W45735  16.688   5.881   8.716  0.1851 -0.0337 -0.2826
 2823W        W45736  17.743  22.948  26.298  0.2431 -0.1432  0.0652
 2824W        W45737  14.300  14.901  27.888  0.0051  0.0049  0.2349
 2825W        W45738  29.299  22.311   5.439 -0.3269  0.1099 -0.1003
 2826W        W45739  11.537  13.199  26.583 -0.1584 -0.2190 -0.3332
 2827W        W45740   8.801   9.968  10.695  0.0474  0.4018 -0.1479
 2828W        W45741  17.744   8.214   8.974  0.2513  0.0131  0.3486
 2829W        W45742   9.325  19.361   8.130  0.0852  0.1634  0.1177
 2830W        W45743  16.250  14.361   7.376 -0.1799  0.1634  0.1595
 2831W        W45744  16.513  13.506  29.612 -0.1106  0.0998 -0.0042
 2832W        W45745  16.368  13.636   1.233 -0.0687  0.0117  0.0448
 2833W        W45746  14.678   3.793   3.990  0.0843  0.3650 -0.0991
 2834W        W45747  19.330   8.266   7.416  0.2325 -0.2759 -0.0238
 2835W        W45748   9.386  19.206   6.256 -0.0745 -0.2179  0.1565
 2836W        W45749  16.291  26.644   6.854 -0.1025  0.1463  0.0788
 2837W        W45750  18.700  25.572   6.441  0.1587 -0.0766 -0.1054
 2838W        W45751   0.244  20.940   7.311  0.0590  0.4211  0.2747
 2839W        W45752  15.340  25.401   4.059  0.0047 -0.1183 -0.0288
 2840W        W45753   9.413  23.166   2.624 -0.3329  0.1863  0.2244
 2841W        W45754   5.065   7.264  10.014 -0.0412  0.1011 -0.2666
 2842W        W45755  10.662  12.530   6.469 -0.0092  0.1292  0.0824
 2843W        W45756  24.971  21.522  22.519 -0.1357 -0.0740 -0.1507
 2844W        W45757  19.047  26.712   1.387 -0.0660  0.1217 -0.1555
 2845W        W45758  16.616  22.733   5.625  0.3725  0.1057  0.3687
 2846W        W45759  18.398  28.010   5.039  0.2035 -0.2191  0.0397
 2847W        W45760  14.142  29.084   9.909 -0.0794 -0.0980  0.0034
 2848W        W45761   8.109   5.628  21.464  0.1291 -0.1791  0.0495
 2849W        W45762  26.251  27.671   6.990 -0.3412  0.0924  0.2587
 2850W        W45763  14.437  16.005   5.352  0.0840  0.0429 -0.0646
 2851W        W45764  14.110  21.095  29.466  0.0761  0.1584  0.0424
 2852W        W45765  13.864  15.302   7.625  0.0026 -0.0259  0.0768
 2853W        W45766  16.716  12.374   2.042  0.2813 -0.2996  0.1234
 2854W        W45767   7.958  13.156   3.199 -0.1303 -0.0503 -0.4438
 2855W        W45768  10.008  13.159   6.288  0.0839  0.0633 -0.0795
 2856W        W45769  26.719   0.568  24.558  0.4290 -0.2130 -0.3493
 2857W        W45770  11.401  20.538   6.828  0.2221 -0.1389  0.0002
 2858W        W45771  21.040  15.054   8.784 -0.1885 -0.1293  0.1528
 2859W        W45772  12.411  16.667  28.597 -0.1875 -0.2268  0.0290
 2860W        W45773  18.378  12.741   7.943 -0.2629 -0.1360  0.1106
 2861W        W45774  11.244  16.458   4.622  0.2001 -0.1420 -0.2668
 2862W        W45775  15.903  14.050  23.552  0.0416  0.2680  0.4005
 2863W        W45776  15.413  22.840   1.321  0.1837 -0.5703  0.1181
 2864W        W45777  25.561  15.185   9.485  0.1796 -0.1021  0.2541
 2865W        W45778   6.505   9.328   4.761 -0.2036 -0.0800  0.1582
 2866W        W45779   3.750   4.962   4.326 -0.2975 -0.2848 -0.0415
 2867W        W45780  12.263  17.142  26.715  0.1447 -0.2517 -0.2538
 2868W        W45781  16.224  15.367  27.314  0.1309 -0.0359 -0.0070
 2869W        W45782   6.751  25.445   8.232  0.2391  0.1899  0.0415
 2870W        W45783  20.222  17.529   6.225 -0.3079  0.0765 -0.2032
 2871W        W45784  15.115  17.754   8.625 -0.4022 -0.1817 -0.0202
 2872W        W45785   8.996  16.426   3.867 -0.2452  0.0703 -0.0822
 2873W        W45786  13.871  17.506   7.766  0.0005 -0.2180 -0.1190
 2874W        W45787  14.154  16.235  24.186 -0.0064 -0.1660  0.3659
 2875W        W45788  12.656  20.635   8.066  0.2242 -0.1334 -0.0329
 2876W        W45789  19.971   8.565   4.901 -0.0826  0.0383 -0.0303
 2877W        W45790  13.508   8.397   9.826  0.0346  0.0136 -0.2189
 2878W        W45791  11.268  19.607   4.635  0.3672  0.1419 -0.0546
 2879W        W45792  16.632  16.371  22.661  0.0433  0.0031  0.2727
 2880W        W45793   8.719  13.561   6.497  0.1177  0.1393  0.1923
 2881W        W45794  15.840   9.831   5.530  0.1902 -0.2560 -0.1180
 2882W        W45795  12.144  17.037  28.806 -0.2023 -0.2755 -0.1858
 2883W        W45796  26.582  24.458   8.527  0.4564 -0.2056  0.1730
 2884W        W45797  15.111  16.860  24.293 -0.0002  0.0636 -0.0353
 2885W        W45798   3.585  23.009   5.491  0.1778 -0.1049 -0.0862
 2886W        W45799   5.999  13.689   8.914 -0.0457 -0.0104 -0.0637
 2887W        W45800  15.341  14.061   7.555  0.0450  0.0793  0.0460
 2888W        W45801   4.110  26.923   9.288  0.1400 -0.0873 -0.1474
 2889W        W45802  13.612  25.857   2.839 -0.0833 -0.0140  0.2160
 2890W        W45803  23.540  17.573   9.321  0.2615 -0.1341  0.1402
 2891W        W45804  14.735  21.117   1.513  0.1067  0.0775  0.2232
 2892W        W45805   7.819  14.975   3.213 -0.0307 -0.1077  0.0790
 2893W        W45806  20.908   9.401  17.046  0.1003  0.0669 -0.4112
 2894W        W45807  23.495  16.981  29.384 -0.1613  0.3524 -0.1543
 2895W        W45808  22.769  16.284   4.798  0.1597  0.0281 -0.1618
 2896W        W45809  17.159  20.257  27.999 -0.0853 -0.0294 -0.2104
 2897W        W45810   8.600  23.123   8.140 -0.4387  0.0819  0.0634
 2898W        W45811  23.462  20.896   8.474  0.1613  0.0772 -0.0430
 2899W        W45812  17.579  15.981   5.233 -0.0746  0.0733 -0.1040
 2900W        W45813  19.178  10.452  29.459 -0.1480  0.0570  0.0544
 2901W        W45814  14.496  21.242   3.237 -0.2254  0.0854 -0.0955
 2902W        W45815  14.813  23.018   0.498  0.2334  0.1618 -0.2852
 2903W        W45816   0.008  24.510   6.773  0.0250  0.1411 -0.0585
 2904W        W45817  26.624  14.523   0.639  0.0492  0.2454 -0.1721
 2905W        W45818  23.185  19.591   8.218  0.2214  0.3518  0.1727
 2906W        W45819  19.146   5.060   2.495  0.2324 -0.1606  0.1249
 2907W        W45820   6.319  13.640   3.332 -0.3640 -0.3657 -0.1594
 2908W        W45821  15.756  21.648  29.511 -0.3871  0.1805 -0.0321
 2909W        W45822  28.331   8.593   3.301 -0.0558 -0.2166  0.3871
 2910W        W45823  11.348  12.669  28.319  0.2960  0.0042  0.0033
 2911W        W45824   7.948  10.379  26.158  0.1242 -0.1097 -0.2408
 2912W        W45825  15.069  19.888   7.491  0.2930  0.2158  0.2491
 2913W        W45826   6.501  10.298   3.219  0.2905  0.2411  0.2020
 2914W        W45827  10.225  11.495   8.964  0.0910  0.0304  0.0263
 2915W        W45828   8.509   9.115  11.007 -0.1226 -0.3284 -0.0865
 2916W        W45829  25.211  17.547   8.639 -0.5527  0.0175  0.0211
 2917W        W45830  14.922   5.736   5.110  0.0041 -0.1332 -0.1871
 2918W        W45831  20.337  22.859   7.751  0.0850 -0.0249 -0.0591
 2919W        W45832  14.850  22.551   5.155 -0.2208 -0.1221 -0.1158
 2920W        W45833  15.661  16.456   0.509 -0.4174  0.1470 -0.3253
 2921W        W45834  19.041  17.274  24.962 -0.0823 -0.1997  0.2638
 2922W        W45835   9.180  18.170   9.183 -0.0035  0.0230  0.0105
 2923W        W45836  12.357  21.747   3.194  0.3495  0.2289 -0.4725
 2924W        W45837   7.680   7.642   0.198  0.0186  0.2910  0.1967
 2925W        W45838  12.115  28.607   9.581  0.0394  0.4742  0.1347
 2926W        W45839  22.121  13.679   7.579  0.3678  0.1242  0.2180
 2927W        W45840  18.966  10.908  27.592  0.4540  0.0039 -0.0127
 2928W        W45841  13.535  13.771  20.405 -0.2784 -0.1471  0.0071
 2929W        W45842  11.846   6.499   3.113  0.1113  0.0828  0.1185
 2930W        W45843  23.317  10.145   0.869  0.2745 -0.0757 -0.0229
 2931W        W45844  10.183   6.059   5.763 -0.0521  0.1990 -0.0303
 2932W        W45845  18.694  19.398   4.942  0.0172  0.2026  0.1869
 2933W        W45846   7.283  13.618  10.749  0.1382 -0.2103  0.0490
 2934W        W45847  14.888  10.399   2.102 -0.3655  0.1672  0.1041
 2935W        W45848  26.194  18.019   4.443 -0.0763  0.0761  0.1880
 2936W        W45849  13.557  21.796  29.526  0.0892 -0.2758  0.1544
 2937W        W45850  14.676  13.565   6.190 -0.0860 -0.2390  0.1651
 2938W        W45851   6.973  16.217   8.237 -0.0808 -0.1892 -0.2601
 2939W        W45852  13.447   6.262   4.570  0.2155  0.0594 -0.0077
 2940W        W45853  20.406   4.082   7.881 -0.1572  0.1468  0.0278
 2941W        W45854   7.995  22.950   8.858 -0.0096  0.0451  0.0256
 2942W        W45855  14.451  11.014   2.492 -0.2874 -0.4176  0.1012
 2943W        W45856  13.879  32.120   0.894 -0.0911 -0.0389  0.0349
 2944W        W45857  22.346  22.044   5.737  0.1709  0.0893 -0.1272
 2945W        W45858  17.951  23.454   8.046  0.2154  0.0881  0.0638
 2946W        W45859  18.851   3.947   1.115 -0.2105 -0.1593 -0.1095
 2947W        W45860   6.046  11.731   7.078  0.3245  0.1137 -0.3071
 2948W        W45861  10.249  10.364   0.377 -0.0445  0.2600 -0.0240
 2949W        W45862  17.535  16.630  27.419  0.2760  0.0693  0.1585
 2950W        W45863   8.586   8.015  13.115 -0.0128  0.1468  0.0425
 2951W        W45864  12.113  18.650   4.031  0.1733  0.0976  0.3616
 2952W        W45865  11.740  13.433   3.399  0.0105 -0.0616 -0.1744
 2953W        W45866  16.177  19.250   7.555 -0.0228 -0.0842 -0.0415
 2954W        W45867  12.487  11.028  24.834  0.0831 -0.0610 -0.0956
 2955W        W45868   7.316   2.294  12.191  0.1279 -0.0400 -0.0910
 2956W        W45869  10.731   8.411   5.086 -0.0070 -0.1587  0.3412
 2957W        W45870   3.930  15.353   8.391  0.0993  0.0796  0.2659
 2958W        W45871  15.808  13.386   4.982 -0.0131 -0.0646  0.1462
 2959W        W45872  11.447  17.420   7.050  0.0257  0.3162 -0.0099
 2960W        W45873  20.761   5.865  24.756 -0.0079 -0.0194  0.1714
 2961W        W45874  16.327  14.382  29.318 -0.0177 -0.1218  0.0552
 2962W        W45875  13.172  17.276   8.736 -0.0698 -0.3202 -0.1397
 2963W        W45876  34.063   5.587   5.792 -0.0334  0.0424  0.1958
 2964W        W45877  19.636  19.416   7.655 -0.0813 -0.0461 -0.0080
 2965W        W45878   5.507  18.442   9.736  0.2556 -0.0930  0.1029
 2966W        W45879  16.322  14.922  22.462 -0.0277  0.1127 -0.2274
 2967W        W45880  11.553  23.248   8.318  0.3788 -0.0538  0.0400
 2968W        W45881  24.495  12.889   4.642  0.1214  0.0103 -0.0456
 2969W        W45882   2.242  13.170  24.301 -0.1469  0.2343  0.0086
 2970W        W45883  21.688  19.980   6.969  0.2417  0.1271 -0.0935
 2971W        W45884  12.613   7.508  27.945  0.1990  0.1262 -0.0435
 2972W        W45885  14.008  11.770   8.576 -0.0931 -0.0435 -0.2150
 2973W        W45886  24.379  20.057   7.651 -0.0844 -0.0691 -0.0577
 2974W        W45887  10.646   9.855   8.695 -0.0075  0.0814 -0.0041
 2975W        W45888   9.348  15.580  24.256  0.0392  0.0833 -0.1415
 2976W        W45889   4.115  22.851   8.829 -0.3703 -0.0248 -0.1493
 2977W        W45890  13.352  17.953   0.432  0.0870 -0.3212  0.1739
 2978W        W45891  15.803  20.502   7.282 -0.1785 -0.1804 -0.1538
 2979W        W45892  14.117  13.758   2.706  0.1020 -0.3252  0.0228
 2980W        W45893   9.746  10.292   1.328 -0.0053  0.0545 -0.0897
 2981W        W45894  16.447  22.709   3.024 -0.1470  0.0746  0.2541
 2982W        W45895  11.111  12.610   7.779 -0.1543  0.2033  0.2113
 2983W        W45896  11.931   9.633   2.655 -0.0125 -0.1287  0.3474
 2984W        W45897  25.620  22.843   1.134  0.2063 -0.1085  0.2292
 2985W        W45898  13.629   9.675  22.670 -0.1097  0.3203 -0.1883
 2986W        W45899  11.223   9.127   4.831  0.0240  0.3588  0.0933
 2987W        W45900   8.373  12.360   1.170  0.0090  0.0233 -0.0420
 2988W        W45901  11.752  14.418   1.914 -0.1420 -0.0871 -0.0241
 2989W        W45902  12.221  17.482   1.926 -0.1857  0.3762 -0.2072
 2990W        W45903  20.317  13.002   2.455  0.2391 -0.0761  0.4692
 2991W        W45904   5.093  14.243  28.797  0.0339  0.0888  0.4040
 2992W        W45905   9.492  19.156   7.157 -0.2726  0.0128  0.0366
 2993W        W45906  25.776  21.765   8.348 -0.2135  0.0059  0.1851
 2994W        W45907  18.130  11.772  28.188  0.2357 -0.1400 -0.1828
 2995W        W45908  15.242  21.218   0.570 -0.1402  0.1185  0.0801
 2996W        W45909  12.290  22.865   9.640  0.1138  0.0688 -0.0875
 2997W        W45910  16.279  13.720   3.284  0.2815  0.0275  0.3318
 2998W        W45911  11.488   7.254   8.423 -0.2408 -0.0558 -0.3652
 2999W        W45912  21.627  32.176   1.316  0.0279  0.0421  0.0347
 3000W        W45913   8.084  10.739   3.295  0.0088 -0.2151  0.2024
 3001W        W45914  17.246   5.348  29.253  0.0872 -0.3436 -0.1682
 3002W        W45915  17.377  17.955   6.122  0.0417  0.0444  0.0139
 3003W        W45916  16.126  14.891   0.086 -0.1533 -0.2572  0.0066
 3004W        W45917  15.234  11.313   8.683 -0.1048 -0.4801  0.2359
 3005W        W45918  16.709  18.496   3.053 -0.2191  0.1427  0.0595
 3006W        W45919  17.194  16.211   4.566 -0.0192 -0.1192 -0.0643
 3007W        W45920  16.335  15.909  28.299 -0.4522 -0.1054 -0.3722
 3008W        W45921  10.193  13.081   7.577  0.2360 -0.0021  0.2839
 3009W        W45922  13.965  10.975   4.328 -0.1179  0.3051 -0.1174
 3010W        W45923  14.797  26.192   1.930  0.0794 -0.0136 -0.1094
 3011W        W45924  13.369  10.796   3.039 -0.0740  0.0697  0.0209
 3012W        W45925  14.805  21.835   6.544 -0.2055  0.0111  0.1628
 3013W        W45926   4.216  27.208   0.473 -0.2388  0.2921 -0.2679
 3014W        W45927  14.412  14.069  25.184  0.3400  0.0840  0.1952
 3015W        W45928  21.486  15.554   7.088  0.1947  0.0677 -0.0591
 3016W        W45929  17.425  14.788  23.919 -0.0822 -0.2508 -0.2566
 3017W        W45930  13.091  11.850  29.175 -0.0116 -0.1266 -0.1236
 3018W        W45931  13.468   0.026   4.485  0.1627 -0.1432 -0.0093
 3019W        W45932  22.760  17.489   3.120  0.1016  0.2178 -0.0757
 3020W        W45933  11.898  16.569   8.560  0.0747 -0.1587 -0.2931
 3021W        W45934  30.855  23.056   6.955 -0.2588 -0.0348 -0.4033
 3022W        W45935  12.948  18.274  28.717 -0.3039 -0.0566 -0.1551
 3023W        W45936  16.357  19.073  23.556 -0.3213 -0.1212  0.2287
 3024W        W45937   9.609  20.825  25.789  0.0547 -0.0823  0.0104
 3025W        W45938  28.854  15.347   4.169 -0.3223  0.5016  0.3416
 3026W        W45939   8.931  24.381  26.158  0.1548  0.0586  0.0138
 3027W        W45940  10.540   5.465   3.483 -0.0308 -0.1655  0.0133
 3028W        W45941  20.892   7.630  18.385 -0.0600  0.0915 -0.0610
 3029W        W45942  11.739  11.592   2.964 -0.1484 -0.0131 -0.0299
 3030W        W45943  15.584  19.291   4.241  0.2602 -0.4549  0.2156
 3031W        W45944  11.359  20.537  27.109  0.0964 -0.1841  0.0760
 3032W        W45945  14.086   7.294  29.246  0.2085 -0.1506 -0.1295
 3033W        W45946  14.783   9.931   3.996  0.1937  0.3106 -0.1585
 3034W        W45947  15.855  16.237   5.151  0.1922  0.1703  0.0383
 3035W        W45948  16.994  14.324   4.572  0.0933 -0.1243  0.2591
 3036W        W45949  18.345  22.967   7.246 -0.2044  0.0242 -0.1374
 3037W        W45950  13.370  19.616  25.528 -0.0311 -0.0963  0.0327
 3038W        W45951   7.761  23.083  28.240 -0.2109 -0.1592  0.1492
 3039W        W45952  14.047  23.868   1.807 -0.2075  0.0705  0.1058
 3040W        W45953  15.337  20.613   5.480  0.1302 -0.0962  0.1184
 3041W        W45954   4.605  20.187  23.657 -0.0476  0.1345  0.1396
 3042W        W45955  12.429  13.672  21.515 -0.1099  0.0123 -0.1655
 3043W        W45956  10.254   0.871   2.967 -0.0200  0.1139 -0.2168
 3044W        W45957  19.153  18.503   3.287  0.1384 -0.0078 -0.3033
 3045W        W45958   0.534  14.605  25.729  0.0877 -0.2585  0.1039
 3046W        W45959  15.698  19.791  28.446 -0.2913 -0.1609  0.2229
 3047W        W45960   2.984  22.647  17.541 -0.2507 -0.1633 -0.3765
 3048W        W45961  16.360  15.301   6.955 -0.2545 -0.1106 -0.1413
 3049W        W45962  10.312  23.764   1.066  0.3938  0.0905 -0.1242
 3050W        W45963  12.579  20.450  25.597  0.1678  0.0872  0.3449
 3051W        W45964  15.762  12.131   0.091 -0.0832  0.1916 -0.1314
 3052W        W45965  16.093  21.669   6.643  0.5716  0.4386 -0.2034
 3053W        W45966  23.786  23.072  26.959 -0.1748  0.1904 -0.1339
 3054W        W45967   4.756  18.061   5.921  0.0567 -0.1307  0.0610
 3055W        W45968  12.193  15.140   6.584 -0.0033  0.0150 -0.2868
 3056W        W45969  11.889  13.394   8.241  0.1882 -0.0877 -0.3430
 3057W        W45970   2.398  23.833   0.743  0.0427  0.2329 -0.1133
 3058W        W45971   7.734  15.642  23.328 -0.0699  0.0986  0.2662
 3059W        W45972  12.866  14.405   3.061  0.1368 -0.0526  0.1483
 3060W        W45973  19.327  14.661  26.203 -0.4725  0.2141 -0.0750
 3061W        W45974   6.812  15.369  23.110  0.0264 -0.2526  0.0395
 3062W        W45975   7.602   3.434   8.428 -0.0402 -0.1564 -0.1412
 3063W        W45976  19.656  21.508   7.837 -0.1450 -0.1535  0.0804
 3064W        W45977  22.644  20.842  22.604  0.2780  0.0442  0.1048
 3065W        W45978  27.019  17.681  23.608 -0.0263 -0.3051  0.0609
 3066W        W45979  13.760  12.989   6.834 -0.1535 -0.4065  0.3295
 3067W        W45980  14.601  17.748  28.387 -0.1471 -0.0285  0.1136
 3068W        W45981  18.527  24.985  26.542 -0.0933  0.2369  0.1374
 3069W        W45982  11.118   1.791  27.254 -0.1137  0.1812  0.0320
 3070W        W45983  16.639  31.512   7.314  0.0093  0.2486 -0.0773
 3071W        W45984   4.373   1.539  29.673  0.1319  0.0318 -0.0829
 3072W        W45985  17.199   8.676   5.139 -0.0914  0.0479  0.1825
 3073W        W45986   3.753  13.991   0.839 -0.2353 -0.2272  0.1614
 3074W        W45987  10.365  19.757  29.716  0.2580  0.2512 -0.0003
 3075W        W45988  19.738  15.264   1.794 -0.2918  0.1607 -0.2143
 3076W        W45989  17.198  24.678   7.263 -0.0912  0.0488 -0.1889
 3077W        W45990  15.046  20.444   4.223  0.2516  0.0588  0.0492
 3078W        W45991  15.813  17.560   5.652 -0.2794 -0.0149  0.0299
 3079W        W45992  18.208  16.260  27.662 -0.0788 -0.3158  0.0750
 3080W        W45993  10.839   8.249   2.126  0.0957 -0.0433  0.2612
 3081W        W45994   8.899  11.696   1.987 -0.4619 -0.0253 -0.1191
 3082W        W45995   7.656  15.253  28.741  0.2216 -0.1418 -0.0606
 3083W        W45996   6.909   5.578   4.548 -0.1083  0.3183 -0.3799
 3084W        W45997   7.867   9.139   9.796  0.2399 -0.3672 -0.0769
 3085W        W45998   7.524  25.366   8.749 -0.2448  0.0204 -0.0594
 3086W        W45999  11.508  27.515  11.063  0.0586 -0.0793 -0.1811
 3087W        W46000  14.296  22.793   6.716  0.2662 -0.1025 -0.2340
 3088W        W46001  18.023  17.343   7.425 -0.1462  0.4019 -0.1037
 3089W        W46002  10.289  16.326   2.047 -0.1623 -0.0212  0.1364
 3090W        W46003  32.797  19.812  22.387 -0.3831  0.2152 -0.2687
 3091W        W46004  15.549  11.346   0.236  0.0656  0.0810  0.0723
 3092W        W46005  15.087  18.715   5.896 -0.3230  0.1651  0.2674
 3093W        W46006   7.261  13.122   9.436 -0.1111  0.2375 -0.1774
 3094W        W46007   7.086  26.102   5.631  0.0587 -0.2244  0.1396
 3095W        W46008  28.472  16.157   2.328  0.0279  0.2084 -0.1071
 3096W        W46009  21.640  12.744   1.750  0.1417 -0.1997 -0.2893
 3097W        W46010  16.676  18.005   6.734  0.0835  0.0341  0.0013
 3098W        W46011  10.918   9.372   3.597  0.1846 -0.3962  0.0764
 3099W        W46012  15.834  12.489  28.839 -0.1480  0.2389 -0.2594
 3100W        W46013  16.724  17.438   1.608  0.3431 -0.1926  0.0813
 3101W        W46014  14.381  15.788   6.380  0.1695 -0.1914 -0.0359
 3102W        W46015  16.203   8.026   0.515 -0.0998 -0.0249 -0.1755
 3103W        W46016  18.670   5.025   9.404  0.0540  0.1667 -0.1630
 3104W        W46017  17.279  12.825   4.108  0.0637  0.0186 -0.2975
 3105W        W46018  15.302  13.732   5.330 -0.0800  0.2848 -0.3528
 3106W        W46019   8.565  21.723   2.548  0.0573 -0.2120  0.1876
 3107W        W46020  16.634  23.105   5.162  0.0013  0.0756  0.0173
 3108W        W46021  23.881  17.186   2.906 -0.0671  0.1496 -0.2638
 3109W        W46022  24.377  14.125   7.930  0.0664  0.0768  0.2020
 3110W        W46023  15.473  23.548   3.644  0.0852  0.0438 -0.0047
 3111W        W46024  11.476  18.535   5.859  0.3490  0.0318  0.1189
 3112W        W46025  17.324  11.284  24.564 -0.3769  0.0619  0.1229
 3113W        W46026  11.987  10.985  28.166  0.1580  0.1838 -0.0224
 3114W        W46027   8.830  21.358   5.829 -0.0395  0.0558  0.4306
 3115W        W46028  20.617  14.387   4.152  0.2094 -0.0109  0.3280
 3116W        W46029   7.998  17.454   8.055  0.1082 -0.0214  0.2572
 3117W        W46030   0.045   7.710  27.236 -0.0901 -0.3327  0.4215
 3118W        W46031  20.868   9.097   6.345  0.0338  0.1535  0.3538
 3119W        W46032  15.252  17.102   6.395  0.0734  0.0330 -0.0503
 3120W        W46033  18.954  15.047  23.262 -0.2468 -0.0954 -0.0113
 3121W        W46034  13.849   5.042   3.025  0.1221  0.1433  0.2869
 3122W        W46035  15.644   4.557   8.833 -0.3570 -0.0119  0.0687
 3123W        W46036  19.907  17.496   8.985 -0.0706  0.2893 -0.3108
 3124W        W46037  15.064  20.930   8.741 -0.2591  0.0511 -0.0424
 3125W        W46038   8.717  21.265   6.392  0.3595  0.0287 -0.0975
 3126W        W46039   9.013   8.663  12.483  0.1931 -0.1751 -0.2357
 3127W        W46040   9.260  13.074   5.163  0.1816  0.1837  0.0980
 3128W        W46041  18.364   2.045   8.265 -0.2754  0.2044 -0.0221
 3129W        W46042  16.517  16.164   7.060 -0.0649 -0.0314 -0.4159
 3130W        W46043  12.366  14.385   3.143 -0.2550  0.0653 -0.0321
 3131W        W46044  18.189  12.234   2.837 -0.0173 -0.1163 -0.0825
 3132W        W46045  12.534   9.524   4.168 -0.0236 -0.1227  0.0494
 3133W        W46046   5.537  18.591   6.813 -0.0952  0.2287  0.1098
 3134W        W46047   2.486  10.995   0.074 -0.3496 -0.4172 -0.4884
 3135W        W46048   9.793  10.673   0.218 -0.0899 -0.0447 -0.0682
 3136W        W46049  12.446  12.193   2.622  0.2181 -0.2335 -0.0837
 3137W        W46050  29.365  28.039   1.579  0.1337  0.1902 -0.1860
 3138W        W46051   1.036   8.162   6.470 -0.0844  0.0852  0.0013
 3139W        W46052  16.485  17.879   0.940 -0.2799  0.0192 -0.1456
 3140W        W46053  15.583  12.652   6.523 -0.2802 -0.2806  0.0192
 3141W        W46054   9.006   8.909   5.103 -0.2971  0.1420  0.0162
 3142W        W46055  10.055   7.198   8.006 -0.2505  0.0473 -0.1551
 3143W        W46056  15.014  20.352   4.707 -0.0559 -0.1598 -0.5249
 3144W        W46057  22.605  13.489   2.560  0.1487  0.3895 -0.1711
 3145W        W46058  17.179   9.274   8.928 -0.0365  0.2040 -0.2209
 3146W        W46059  12.626  17.975   4.635 -0.4923 -0.0593 -0.5015
 3147W        W46060  15.049  26.767   0.001  0.2783  0.1689 -0.0642
 3148W        W46061  26.385  24.988   7.637 -0.2424  0.0739  0.0061
 3149W        W46062  18.106  12.501   5.536  0.1172  0.1617 -0.1748
 3150W        W46063   9.112  23.580   8.077 -0.1850  0.5537  0.0815
 3151W        W46064  10.075  11.265   5.889 -0.0923  0.0947  0.1653
 3152W        W46065  19.913  22.470   8.138  0.2927  0.1794 -0.2292
 3153W        W46066  19.416  23.541  25.653 -0.0361 -0.2187 -0.2881
 3154W        W46067  28.972   4.785   5.842  0.1187 -0.3011  0.0501
 3155W        W46068  15.118   3.835   4.713 -0.1231  0.3786 -0.1475
 3156W        W46069  26.934   5.729   5.520  0.0655  0.0682  0.2213
 3157W        W46070   9.882  19.501  25.259  0.3266  0.1201 -0.1666
 3158W        W46071  12.556  21.356   4.637  0.1725 -0.2423  0.3249
 3159W        W46072   8.767   4.901   4.487 -0.0246  0.0859  0.1207
 3160W        W46073  18.671   9.928  28.435  0.0665 -0.0365  0.2036
 3161W        W46074   5.643  33.507   4.368 -0.3662 -0.0918  0.0712
 3162W        W46075  10.938   8.382   7.266  0.1055  0.3065 -0.1160
 3163W        W46076   4.980  12.243   6.459 -0.0600 -0.4392  0.2610
 3164W        W46077  18.478  16.370   8.496 -0.0558  0.0967  0.2122
 3165W        W46078  23.925  15.962   8.679  0.1117  0.1988  0.2933
 3166W        W46079   9.057  23.923   7.692 -0.0965  0.2947  0.1249
 3167W        W46080  11.186   9.728  10.571  0.1206 -0.0346 -0.2652
 3168W        W46081  10.203   1.932   6.699  0.0614 -0.1573 -0.1688
 3169W        W46082  19.855  15.380   2.336  0.0145  0.2977 -0.0785
 3170W        W46083  22.052  13.217   7.443  0.2955 -0.1370  0.0153
 3171W        W46084  31.646   2.689   3.880 -0.0161  0.2538 -0.1606
 3172W        W46085   5.959  10.046  11.100 -0.1151  0.1194  0.0241
 3173W        W46086  13.047  15.837   2.436 -0.1184  0.0458  0.0990
 3174W        W46087  19.901  16.174   1.507 -0.0349  0.0460 -0.0232
 3175W        W46088  12.561  16.744   5.730 -0.3751 -0.0730 -0.0828
 3176W        W46089  16.493  18.553   5.424 -0.0981  0.1841  0.1152
 3177W        W46090   5.636  18.487   8.556 -0.1558 -0.2019 -0.3134
 3178W        W46091  16.124  32.034   1.289  0.3381 -0.0433  0.3750
 3179W        W46092   5.003  15.972   9.476 -0.3757 -0.1502  0.1537
 3180W        W46093   4.153  31.089   2.700 -0.3854  0.1848  0.0659
 3181W        W46094  20.014  13.888  28.911  0.2979  0.2113  0.0523
 3182W        W46095  15.499  19.473   3.392  0.1719 -0.2018  0.0659
 3183W        W46096  12.655  25.949  10.851  0.1491 -0.0455 -0.0399
 3184W        W46097  15.849  11.964   4.012  0.4716 -0.2529  0.0533
 3185W        W46098  20.189   2.689  20.746  0.0100  0.3550 -0.1574
 3186W        W46099   9.775  26.788   6.613 -0.1263  0.0485  0.3037
 3187W        W46100  13.436  21.890   6.602  0.3776 -0.1561 -0.0736
 3188W        W46101  14.168   9.281   5.770  0.0238 -0.2532  0.1248
 3189W        W46102  17.458   9.949   1.358 -0.0888  0.0099  0.2346
 3190W        W46103  10.825   9.246  12.179  0.0581  0.1522  0.2288
 3191W        W46104  12.615  15.562   9.084  0.0892  0.2264  0.0344
 3192W        W46105  12.631  15.638   2.208 -0.0394 -0.4197 -0.1538
 3193W        W46106  12.004   9.479   8.494 -0.1051  0.1715  0.0336
 3194W        W46107   7.329   9.972   5.298  0.1091 -0.2812 -0.1492
 3195W        W46108   8.510  21.081   6.827  0.1172  0.0953 -0.3905
 3196W        W46109   8.847  16.543   8.847  0.3022 -0.5048 -0.1466
 3197W        W46110  19.089  17.472   0.974 -0.1207  0.1681 -0.0132
 3198W        W46111  15.672  16.490   6.730  0.1761  0.1903  0.1179
 3199W        W46112  21.973  16.791   5.550  0.0003  0.1956  0.1397
 3200W        W46113  17.725  15.103  25.413  0.1449 -0.0319  0.2390
 3201W        W46114  16.332   4.871  11.100 -0.0561  0.1762  0.2324
 3202W        W46115   9.869   5.801  11.058  0.0508  0.0369  0.2265
 3203W        W46116  14.902  26.430   4.013  0.1356 -0.3949  0.2821
 3204W        W46117  24.645  16.213   5.275  0.0790  0.0560 -0.2963
 3205W        W46118  20.219  15.853   7.898  0.2256  0.2154  0.1086
 3206W        W46119  17.334  15.803   4.829 -0.0032 -0.0261  0.0662
 3207W        W46120  20.606  11.621  28.886  0.0666 -0.1862 -0.0638
 3208W        W46121  20.637  16.906   3.292 -0.2060 -0.0011  0.1999
 3209W        W46122  10.642  18.181   6.406  0.0209 -0.0809  0.0451
 3210W        W46123  18.270  16.996  22.078 -0.0020 -0.0312 -0.3092
 3211W        W46124  17.846   9.703   6.240 -0.1583  0.0318 -0.1705
 3212W        W46125  16.274  16.924   8.090 -0.0551 -0.3547  0.2507
 3213W        W46126  14.747  13.716   5.325 -0.1143 -0.2059  0.1607
 3214W        W46127   9.215  29.881   2.878 -0.0496 -0.2197  0.1337
 3215W        W46128   6.895   1.917   8.143 -0.1506  0.0657 -0.2837
 3216W        W46129  11.509  16.070   6.696  0.3363  0.2441  0.1960
 3217W        W46130  14.846  16.140  27.391  0.1484  0.3651  0.0509
 3218W        W46131  25.834  16.303   3.877 -0.1144  0.1372 -0.1592
 3219W        W46132  14.608  25.831   7.748  0.2465 -0.2237  0.3858
 3220W        W46133  17.009  13.317   6.579  0.2785 -0.2087 -0.3176
 3221W        W46134  19.789  14.087   6.517 -0.0757  0.2418  0.0363
 3222W        W46135  18.928  23.178   5.624  0.2528 -0.0485 -0.1972
 3223W        W46136  20.203  17.236   5.486  0.0042 -0.0582  0.0691
 3224W        W46137   1.365  23.739   4.699  0.0405 -0.1253 -0.1227
 3225W        W46138  12.532  19.835   8.069  0.0275  0.1276  0.1583
 3226W        W46139  14.055  18.450   2.762 -0.2026  0.2156  0.1281
 3227W        W46140  18.931  19.154  23.375 -0.1222 -0.3107 -0.4705
 3228W        W46141  12.570  14.200  26.805  0.1875 -0.0647 -0.0848
 3229W        W46142  11.279   0.700  12.034  0.3531  0.3575  0.0876
 3230W        W46143  16.457  25.890   6.729  0.4522  0.2907 -0.1198
 3231W        W46144  19.884  24.450   1.414  0.1272 -0.1646 -0.0090
 3232W        W46145  14.030  12.174   7.948  0.3568  0.0518 -0.1345
 3233W        W46146   9.954  18.106   9.254  0.2127 -0.1414  0.0735
 3234W        W46147  11.346  11.274   8.526 -0.3082  0.3627  0.2059
 3235W        W46148  17.059  13.593  25.477  0.0833 -0.0824 -0.3085
 3236W        W46149  18.156   7.102   6.384 -0.1654 -0.2874  0.0007
 3237W        W46150  20.564  19.002   3.093  0.0549  0.0592 -0.0327
 3238W        W46151  14.919  10.500   7.049  0.3335 -0.0490 -0.1755
 3239W        W46152   8.535   6.228   4.555 -0.2261 -0.0927 -0.3479
 3240W        W46153  11.991  14.604   8.980 -0.1782  0.1784  0.1101
 3241W        W46154  14.101  18.090   2.413  0.3349 -0.0063  0.1340
 3242W        W46155  24.288  23.365   3.325  0.0030 -0.2492 -0.1999
 3243W        W46156   8.376   3.043  12.066 -0.3511 -0.1063  0.1677
 3244W        W46157  14.958   1.088   6.917 -0.2203 -0.0099 -0.1926
 3245W        W46158   6.639  24.732   8.606 -0.1132  0.0631 -0.0419
 3246W        W46159  18.942  20.156   5.499 -0.3761 -0.1321 -0.2977
 3247W        W46160   5.389  15.408   5.550 -0.0956  0.1794  0.1284
 3248W        W46161  23.975  13.797   6.302  0.0200 -0.1259  0.0119
 3249W        W46162  14.536   7.433  10.158  0.1490  0.0620  0.0405
 3250W        W46163  14.239   4.438  10.963  0.1135 -0.0427  0.1505
 3251W        W46164   8.419  16.096   0.621 -0.0049  0.0998  0.1849
 3252W        W46165  11.031  19.111   4.676 -0.1410  0.1537  0.3773
 3253W        W46166   8.934  20.312   9.643 -0.4323 -0.0086  0.2259
 3254W        W46167  13.720  19.656  26.350 -0.1314 -0.1199  0.0897
 3255W        W46168  13.256  15.064   7.671 -0.0284 -0.1677 -0.2628
 3256W        W46169  15.858  20.400  25.647 -0.0306  0.1655 -0.2687
 3257W        W46170  15.428   8.559   6.561 -0.0872  0.2616  0.0591
 3258W        W46171  11.219  16.864  22.228 -0.0534  0.1437  0.0927
 3259W        W46172  18.394  18.960   8.519  0.0407  0.1176  0.5556
 3260W        W46173  25.101  16.073   6.839  0.1848  0.1238  0.1405
 3261W        W46174  24.351  13.314   5.007  0.1455  0.0648  0.2246
 3262W        W46175  25.025  11.981  29.247  0.1793 -0.1456 -0.1618
 3263W        W46176  13.633  24.321   9.781 -0.0949 -0.0946  0.0788
 3264W        W46177  17.992  15.442  27.667  0.2346 -0.1241  0.0382
 3265W        W46178  16.193  19.472  24.908  0.1625 -0.2806 -0.0457
 3266W        W46179  23.326   8.814   7.595 -0.1834  0.2553 -0.0449
 3267W        W46180  14.735  16.901   5.039  0.1822 -0.1532 -0.2288
 3268W        W46181  15.116  13.872   1.622  0.0696  0.2195 -0.0131
 3269W        W46182  11.111   1.899   3.700  0.0161  0.1745 -0.4102
 3270W        W46183  21.103  13.326   0.846  0.3399  0.0292  0.2666
 3271W        W46184   9.130  10.749   6.487  0.0693  0.0246  0.0279
 3272W        W46185  16.259   6.646   7.103 -0.2273 -0.1492  0.0993
 3273W        W46186  11.253  20.007   1.953 -0.0842  0.0930  0.0586
 3274W        W46187  10.310   7.778   9.327  0.2633 -0.0367 -0.0831
 3275W        W46188  23.586  22.839   5.172 -0.0143 -0.3148  0.0602
 3276W        W46189  17.009  23.919   2.278  0.3171 -0.2092  0.1838
 3277W        W46190   8.838  17.354   1.993 -0.0964  0.0220 -0.2780
 3278W        W46191  12.211  17.288   6.830  0.1351  0.1488  0.1183
 3279W        W46192  15.200  15.590   5.349 -0.1357 -0.1408 -0.0324
 3280W        W46193  11.699  29.858   6.695  0.1081 -0.1426 -0.1237
 3281W        W46194  14.565   9.265   2.171  0.4874  0.0457 -0.0424
 3282W        W46195  15.236  20.775   4.540 -0.2842 -0.1348 -0.1779
 3283W        W46196  12.549  22.840   2.960 -0.2346 -0.0842 -0.2184
 3284W        W46197   6.143   6.329   6.422  0.0684  0.0679  0.0668
 3285W        W46198   9.386  14.163   7.666 -0.1216 -0.1195 -0.0786
 3286W        W46199  22.250  20.328   5.882  0.1436  0.0689 -0.0722
 3287W        W46200  22.197  15.296   5.619  0.1173  0.2613  0.4069
 3288W        W46201  10.157   4.752   5.955 -0.3895  0.1906 -0.3465
 3289W        W46202   2.382  15.318  24.541  0.2944 -0.1060  0.2550
 3290W        W46203  15.541   2.755   6.579 -0.0759 -0.0937  0.0101
 3291W        W46204  12.215  15.011   3.525  0.0590 -0.0908  0.0800
 3292W        W46205  13.910  24.218   5.973 -0.1448  0.2067  0.0380
 3293W        W46206  18.857  18.740   2.870  0.1804  0.2226  0.4682
 3294W        W46207  14.915  19.986   7.989 -0.1764 -0.0672 -0.1733
 3295W        W46208  31.365  19.244   1.475  0.0203 -0.0092 -0.1175
 3296W        W46209  13.754  22.552   1.622  0.0814  0.0429 -0.2178
 3297W        W46210   9.705  12.439   1.377 -0.4324 -0.2125 -0.1065
 3298W        W46211  16.235  23.803   0.531 -0.1085  0.0060 -0.0136
 3299W        W46212   1.996  13.028   6.192  0.0519 -0.3360 -0.0777
 3300W        W46213  15.916   4.150  10.206 -0.1799  0.4847  0.1158
 3301W        W46214  14.719   9.879   6.104 -0.1496 -0.1659 -0.1578
 3302W        W46215  27.224  18.748   6.433 -0.1122  0.0233 -0.1540
 3303W        W46216   8.321   5.660  12.136  0.1319 -0.1539  0.0443
 3304W        W46217  19.861  16.452   4.818  0.3762  0.2688 -0.0364
 3305W        W46218  14.301  20.836   8.324 -0.3490 -0.1852 -0.0730
 3306W        W46219  34.059   9.693   0.265  0.1209 -0.2883 -0.3018
 3307W        W46220  12.110  21.661   5.410  0.0455 -0.0690 -0.3716
 3308W        W46221   8.685  15.607   8.881  0.0837  0.1439  0.0029
 3309W        W46222  12.517   6.103   9.337  0.0532  0.1510  0.0091
 3310W        W46223  15.938  16.198   7.909  0.1651  0.2806 -0.0820
 3311W        W46224  16.171  21.849  22.447  0.1272 -0.1438  0.0404
 3312W        W46225  18.437  21.341  29.760  0.1257 -0.2625 -0.2136
 3313W        W46226  15.106   8.865   1.027  0.1054  0.1001  0.0432
 3314W        W46227  15.534  20.220   8.845  0.2480  0.1345  0.2301
 3315W        W46228   7.609   6.820   3.758  0.1128 -0.2340 -0.1755
 3316W        W46229   2.721  17.504   1.878 -0.0993 -0.2071  0.2901
 3317W        W46230  14.640   6.092   9.071  0.2064  0.2092  0.4092
 3318W        W46231   9.687  14.047   2.897  0.0861  0.0469  0.1112
 3319W        W46232  22.447  12.499   7.029 -0.6265 -0.1356  0.0167
 3320W        W46233  14.480   2.120   3.713 -0.0447  0.1197 -0.1841
 3321W        W46234  12.205  27.340   6.215  0.1836 -0.0590  0.0013
 3322W        W46235  15.894  10.049   4.671 -0.1902  0.1364 -0.0501
 3323W        W46236  13.912  20.465   3.395 -0.0009  0.1370 -0.0638
 3324W        W46237  10.530  22.330   0.628 -0.1695  0.4671  0.1628
 3325W        W46238  15.982  11.431   1.034 -0.1552  0.2063 -0.1922
 3326W        W46239   9.452  16.741   3.582 -0.0079 -0.2299  0.3259
 3327W        W46240  15.602  20.851   3.041  0.1382  0.0194  0.1437
 3328W        W46241  11.083  10.274   0.479 -0.0781  0.1227 -0.0229
 3329W        W46242  16.441  19.228   0.020 -0.0407 -0.1830 -0.4078
 3330W        W46243  14.997  10.217   4.387  0.1075  0.0775  0.0206
 3331W        W46244  13.165  25.896   8.667  0.3485  0.0929 -0.4736
 3332W        W46245  14.790  11.215   8.887 -0.0548 -0.0535 -0.1132
 3333W        W46246  19.273  21.250   5.371  0.1024  0.2367  0.1128
 3334W        W46247  13.995   3.569   8.628 -0.0869 -0.1021  0.1187
 3335W        W46248  27.444  17.728   6.300 -0.3081  0.1654  0.3556
 3336W        W46249  12.600  16.501   7.252 -0.0298  0.1148  0.1416
 3337W        W46250   9.796  25.710   3.081 -0.1326 -0.0254 -0.0969
 3338W        W46251   7.504   4.439   9.364 -0.2507 -0.2233  0.0565
 3339W        W46252  11.771   1.306   6.074  0.0319 -0.1817 -0.1920
 3340W        W46253  15.872  27.082   0.246  0.2734  0.1385 -0.2189
 3341W        W46254  13.498  15.934   0.181 -0.0701 -0.1388 -0.0882
 3342W        W46255  22.440   5.815   7.423  0.1668  0.3697 -0.0060
 3343W        W46256  18.965  18.917   4.071 -0.1356 -0.1639  0.0608
 3344W        W46257  16.414   5.872   3.163 -0.2555 -0.0245  0.0996
 3345W        W46258  11.910  12.283   3.554  0.1112 -0.0054 -0.1224
 3346W        W46259  20.451  15.188  27.796 -0.3199  0.1104 -0.2211
 3347W        W46260  21.596  20.550   2.238  0.1831  0.2219  0.1704
 3348W        W46261  17.883  33.779  10.993  0.0270 -0.1536 -0.1107
 3349W        W46262  13.392   8.829   0.357  0.2118 -0.3298  0.1114
 3350W        W46263  20.417  25.638   9.033  0.0725 -0.0728 -0.3428
 3351W        W46264   9.505  17.763   4.905  0.0169 -0.1539  0.0344
 3352W        W46265  26.288   9.862   9.735  0.0965  0.2231  0.0199
 3353W        W46266  17.248   6.507   9.399 -0.1313  0.0623  0.1260
 3354W        W46267  12.295  19.515   2.968 -0.1413 -0.5235 -0.1358
 3355W        W46268   8.474   1.078  11.118 -0.1434  0.3011 -0.0796
 3356W        W46269  11.337   2.889   7.848  0.0473  0.2632 -0.2036
 3357W        W46270  19.764  17.401   4.233  0.2044 -0.2024 -0.0100
 3358W        W46271   7.818  22.127  29.552  0.0054 -0.0685 -0.0860
 3359W        W46272  16.336  15.863   3.383 -0.1160  0.1743  0.2077
 3360W        W46273   8.742  12.511   2.511  0.2859  0.0483 -0.1683
 3361W        W46274  17.128   9.621   8.594  0.0982 -0.3620 -0.1388
 3362W        W46275  15.441   8.458   4.208 -0.1256  0.1434 -0.0328
 3363W        W46276  18.280  20.741   2.506 -0.0192  0.1522 -0.6275
 3364W        W46277   2.784  22.405   8.295  0.0233 -0.1437 -0.4316
 3365W        W46278  21.602  15.087   7.127  0.2118 -0.2252 -0.1386
 3366W        W46279  28.789  17.448   6.574 -0.4898 -0.2383  0.0781
 3367W        W46280  13.418   0.719   6.346  0.1387  0.0349 -0.2816
 3368W        W46281   8.785  11.272   9.584 -0.2787  0.1129  0.0501
 3369W        W46282  14.632  14.327   3.906  0.0613  0.0483 -0.3325
 3370W        W46283   4.761  22.089  26.928  0.0993 -0.1241 -0.1464
 3371W        W46284  16.493   9.481   3.190  0.2187 -0.0009 -0.0409
 3372W        W46285  10.512   7.816   6.062 -0.2754 -0.5273  0.0440
 3373W        W46286  16.586  14.443   8.714 -0.2059  0.1341  0.1854
 3374W        W46287  17.428  29.922  28.489  0.0028  0.0989  0.1159
 3375W        W46288  12.130  22.801  10.121  0.0457 -0.1399 -0.1295
 3376W        W46289  12.700  21.682   5.466  0.0395  0.0705  0.1449
 3377W        W46290   7.134  14.173   4.738 -0.0771 -0.0892 -0.1062
 3378W        W46291  10.079   7.194   7.494 -0.2649  0.0654  0.1119
 3379W        W46292  16.043  29.836  10.002 -0.1937 -0.0161 -0.2518
 3380W        W46293  18.521  17.182  24.354 -0.0775  0.0938 -0.0621
 3381W        W46294  16.025  20.130   2.239  0.0014 -0.0460 -0.1639
 3382W        W46295  10.875   8.878   2.803 -0.3775 -0.1023 -0.0078
 3383W        W46296  25.073   9.572   3.602  0.1434  0.2704 -0.4558
 3384W        W46297  14.494  14.707   7.958  0.1771  0.3778 -0.1488
 3385W        W46298   8.899  14.706   9.498  0.0127 -0.2012  0.0284
 3386W        W46299  21.907  21.769   5.778  0.0494 -0.0151  0.1105
 3387W        W46300   6.005  25.487   9.488  0.3530  0.2501 -0.0765
 3388W        W46301  18.550   6.758   4.744 -0.1593  0.0681  0.0842
 3389W        W46302   9.405  16.575   9.557  0.3643  0.3011 -0.4688
 3390W        W46303   8.845  15.978   6.821 -0.0596 -0.1261 -0.2823
 3391W        W46304  18.623   6.196   4.794  0.0688 -0.0982 -0.0714
 3392W        W46305   5.519   8.869   7.789  0.1796  0.1446  0.1178
 3393W        W46306  20.595  24.015   6.390  0.0630  0.1560 -0.0823
 3394W        W46307  13.378   7.217   8.478  0.0172  0.2049 -0.0125
 3395W        W46308  12.246   4.776  10.908 -0.1626 -0.0831  0.1616
 3396W        W46309  14.533  11.710   4.350  0.1265 -0.3681 -0.0202
 3397W        W46310   4.836  31.204  10.309 -0.0831  0.0785 -0.3318
 3398W        W46311  17.366   2.058   4.650  0.0949  0.0593  0.1738
 3399W        W46312  15.757   9.886   8.934 -0.3005 -0.2024 -0.0264
 3400W        W46313  23.624  16.362   7.702 -0.1588  0.0129 -0.0824
 3401W        W46314  19.733  14.192   0.218  0.0865  0.0605  0.0580
 3402W        W46315  13.855  20.966   0.653  0.0216 -0.0193  0.1508
 3403W        W46316  18.440  11.351   3.958  0.3268 -0.0406  0.0026
 3404W        W46317  26.803  12.323   4.919  0.2638  0.2888 -0.3193
 3405W        W46318   7.807  12.406   7.348  0.1905  0.2566 -0.3384
 3406W        W46319  12.518  10.293  10.220 -0.1628 -0.0466 -0.0162
 3407W        W46320  15.803  16.933   7.749 -0.2017  0.2323  0.0116
 3408W        W46321  11.673   8.730   3.511  0.3089  0.2500 -0.1305
 3409W        W46322   7.562  17.778  26.903 -0.2929  0.3220  0.0165
 3410W        W46323  12.143  15.022   5.960 -0.1614  0.2743  0.0978
 3411W        W46324   0.851  10.577   7.805  0.4348 -0.0056  0.3358
 3412W        W46325  16.338  10.245   3.028  0.4597 -0.1900  0.0646
 3413W        W46326   0.603  20.713   7.041 -0.1189  0.5073  0.1511
 3414W        W46327   7.803   8.875   9.060  0.1815  0.1424  0.4187
 3415W        W46328  18.344  20.415   6.402 -0.2981 -0.1970 -0.1211
 3416W        W46329   4.099  20.193   8.286  0.0662 -0.4153  0.4476
 3417W        W46330  15.455   1.763   6.205 -0.0287 -0.1282  0.0663
 3418W        W46331  24.312  19.131   6.108  0.1198 -0.0369  0.3236
 3419W        W46332  19.599  17.800   0.268 -0.0898  0.0233  0.1240
 3420W        W46333  16.643  19.093   4.391 -0.1572  0.0274  0.4658
 3421W        W46334   8.337  13.509   9.134 -0.0853 -0.0825  0.0130
 3422W        W46335  14.584  16.094  29.317  0.1303  0.4004 -0.1044
 3423W        W46336   9.343  11.400   7.475  0.0226 -0.1379 -0.1909
 3424W        W46337   1.344   2.559   5.455  0.2813  0.1377 -0.3143
 3425W        W46338  21.335  11.200   0.668  0.2262  0.1834  0.0751
 3426W        W46339   3.858  16.665   9.138 -0.2487  0.0996 -0.1189
 3427W        W46340  20.454  19.273   7.057 -0.4102 -0.0667  0.2052
 3428W        W46341  22.726  14.709   5.130 -0.0667 -0.2376  0.2107
 3429W        W46342  10.190  12.096   7.693  0.4669 -0.0939 -0.2188
 3430W        W46343  13.634  18.529  20.592  0.1828  0.4141  0.2736
 3431W        W46344  12.161  12.162   5.166  0.0450 -0.0401 -0.0243
 3432W        W46345   1.934  15.139   0.077 -0.2215 -0.0871  0.1911
 3433W        W46346   8.683   7.347   5.895  0.0515 -0.0997 -0.1214
 3434W        W46347   5.873  12.418   4.771  0.0703 -0.0211  0.1587
 3435W        W46348  17.214  15.100   3.635 -0.0429 -0.0725 -0.1860
 3436W        W46349   4.634  10.061   1.837 -0.1501  0.2159  0.0175
 3437W        W46350  22.587  15.320   7.766 -0.3281  0.0314 -0.2912
 3438W        W46351  16.121  15.719  26.840  0.0678 -0.0440 -0.3019
 3439W        W46352   8.416   3.111   2.069  0.0646 -0.1136 -0.0801
 3440W        W46353  10.077  11.220   4.356  0.1681  0.1901 -0.3349
 3441W        W46354   6.014  13.744   3.726  0.1639  0.3131 -0.3746
 3442W        W46355  20.014  12.709   6.712 -0.0717 -0.0581 -0.0688
 3443W        W46356  16.358   6.988   8.978 -0.3528 -0.0657  0.0578
 3444W        W46357  24.683  10.149   0.980  0.1787  0.3063 -0.2883
 3445W        W46358  12.586  18.969   6.131 -0.1906  0.0115 -0.1896
 3446W        W46359  13.178  15.992   1.020 -0.1929 -0.0260  0.0869
 3447W        W46360  17.212  16.865  25.032  0.3281  0.1949  0.2393
 3448W        W46361  11.198   5.567   8.407  0.0489 -0.2521 -0.0945
 3449W        W46362  12.171  16.368   5.596 -0.0526 -0.1597  0.2458
 3450W        W46363  21.979  13.081   8.234  0.0107 -0.0227  0.0259
 3451W        W46364  25.225  20.466   5.514 -0.0479  0.1906  0.1792
 3452W        W46365  11.551  10.312  27.214  0.2549 -0.0966 -0.3429
 3453W        W46366   7.420  15.131   5.433  0.0220  0.0118 -0.2256
 3454W        W46367  15.705  15.063   6.274  0.1968  0.2631  0.2164
 3455W        W46368  25.514  16.609   5.639  0.1592  0.1121 -0.2215
 3456W        W46369  12.738  16.990   4.962 -0.0025  0.0380  0.1577
 3457W        W46370  15.672  11.832  25.007  0.0551 -0.2076 -0.3273
 3458W        W46371   9.631   9.998   9.156 -0.4699  0.1816  0.1789
 3459W        W46372   7.348   3.459  10.716  0.0586 -0.1379  0.0361
 3460W        W46373  13.341  13.701  26.492 -0.3135  0.1061 -0.0089
 3461W        W46374   7.787  14.359   8.772 -0.0052 -0.3530 -0.0965
 3462W        W46375   4.862  16.614   2.081  0.0088  0.0743  0.4619
 3463W        W46376   7.549   8.770   6.627  0.3034  0.2399 -0.0123
 3464W        W46377  32.230  17.873   9.417 -0.0269 -0.0293  0.2347
 3465W        W46378  17.235  14.032   4.842 -0.1519 -0.0947 -0.4158
 3466W        W46379  21.433  18.924   1.759  0.0527 -0.1482  0.0709
 3467W        W46380   8.482  18.221   5.426  0.3822 -0.0479 -0.1105
 3468W        W46381  16.212   6.267   5.889 -0.6901  0.1765  0.3658
 3469W        W46382  16.479  12.782   5.015  0.2226  0.0982 -0.1292
 3470W        W46383   6.434  18.537   9.358  0.0944  0.2091  0.1404
 3471W        W46384  20.748  21.489   3.320  0.2891 -0.0618 -0.0921
 3472W        W46385  26.598  20.368   8.291 -0.0255 -0.0080 -0.1906
 3473W        W46386  14.581  24.014   7.466  0.2407  0.0185  0.5020
 3474W        W46387  23.899   6.980   4.411  0.2889  0.2217  0.3353
 3475W        W46388  15.051  20.673  18.942 -0.0802  0.1489  0.3540
 3476W        W46389  20.703  29.373   1.996  0.1552 -0.1111 -0.0989
 3477W        W46390   8.410  24.005  10.244  0.3456  0.3650  0.0933
 3478W        W46391  11.728  20.545   7.724  0.0618 -0.1748  0.2444
 3479W        W46392  19.386  28.605   8.082  0.1434  0.2364 -0.1349
 3480W        W46393  24.648  13.220  24.201  0.1048  0.0928  0.3501
 3481W        W46394  12.903  25.288  22.606 -0.1634 -0.0443  0.0298
 3482W        W46395   5.620  27.101   4.189 -0.1804 -0.1076 -0.2759
 3483W        W46396  15.629  18.298   2.062  0.0582 -0.1328  0.0800
 3484W        W46397  19.218  16.010   2.939  0.0478 -0.1727  0.2605
 3485W        W46398  17.500  12.896   7.296  0.0864  0.2033  0.2594
 3486W        W46399  24.604  21.944  25.063  0.1897  0.1726 -0.0962
 3487W        W46400   8.091  27.867   3.322 -0.3156  0.0505 -0.2611
 3488W        W46401  15.575  13.678  26.624  0.4441 -0.2688  0.0988
 3489W        W46402  26.507   7.796   8.522  0.2626 -0.4303 -0.0740
 3490W        W46403  11.116  18.997  28.511 -0.1322 -0.0882 -0.2569
 3491W        W46404  13.670  21.035   2.703 -0.1398  0.2079  0.0826
 3492W        W46405  13.668   0.905   4.386  0.0650 -0.5324  0.0409
 3493W        W46406  11.281  18.675   6.358 -0.3629  0.0892 -0.0873
 3494W        W46407  16.604  21.131  28.564  0.1933  0.1066 -0.0400
 3495W        W46408  15.187  29.583  28.409  0.0010 -0.3131  0.0454
 3496W        W46409  14.775  19.159   0.853 -0.1389  0.4240  0.4146
 3497W        W46410  23.725  27.397  13.271 -0.1045  0.1380  0.1718
 3498W        W46411  18.477  20.700  18.611  0.1476 -0.4500  0.0886
 3499W        W46412  14.828   6.809  10.731 -0.1868 -0.1221 -0.1912
 3500W        W46413  20.701  23.810   4.230  0.0456  0.3264  0.1629
 3501W        W46414   4.088  26.106   7.417  0.1308  0.2203 -0.3295
 3502W        W46415   6.090   4.550  20.422  0.0038 -0.0744 -0.0122
 3503W        W46416  16.014   5.735   4.281  0.0394 -0.1785  0.0607
 3504W        W46417  22.953  17.820   2.602  0.3349 -0.1237  0.0518
 3505W        W46418  22.762  22.935   6.352  0.1211 -0.0041  0.0651
 3506W        W46419  13.281   7.080   2.645  0.2414 -0.3168  0.3363
 3507W        W46420  10.007  24.965   7.511 -0.3667 -0.0815  0.0309
 3508W        W46421  25.647  20.578   7.280  0.2337 -0.0023  0.1629
 3509W        W46422   9.279  26.921   2.748 -0.1313  0.1223  0.3467
 3510W        W46423  17.927  14.387   6.998 -0.0374  0.1323  0.2677
 3511W        W46424   6.633  25.887   6.795 -0.4792  0.0966 -0.0075
 3512W        W46425  14.537  33.711   3.914  0.2820 -0.0432 -0.3135
 3513W        W46426  17.582  21.093   7.918 -0.4630 -0.0168  0.3747
 3514W        W46427  21.093   9.625  28.350 -0.1102 -0.0332  0.0726
 3515W        W46428   3.781  26.389   0.916 -0.0197 -0.0396  0.1521
 3516W        W46429  11.729  20.451   5.096 -0.1347  0.2162 -0.0483
 3517W        W46430  10.456  27.584  26.779  0.2116 -0.1169  0.1216
 3518W        W46431  13.074  23.052   0.978  0.1927 -0.1955  0.2035
 3519W        W46432  23.025  20.523   6.355  0.2482 -0.1854 -0.0225
 3520W        W46433  28.824  12.920   3.906  0.0275 -0.0613  0.4014
 3521W        W46434  23.478  18.490   2.288 -0.1669  0.0176 -0.0650
 3522W        W46435  15.429  23.891   0.708 -0.3459  0.3518  0.0202
 3523W        W46436  11.857  20.014  29.547  0.1825 -0.0570 -0.1522
 3524W        W46437  16.645  20.331   0.916 -0.0126 -0.0675  0.3083
 3525W        W46438  15.502  18.135   0.777  0.1188  0.3986 -0.0223
 3526W        W46439  22.146   8.125   4.129 -0.0460 -0.1729 -0.5734
 3527W        W46440  25.064  18.291  29.096 -0.2136 -0.1151  0.0002
 3528W        W46441   5.378  10.966   4.856 -0.1301 -0.0887  0.0251
 3529W        W46442  17.384  20.934   5.913  0.1424  0.0649 -0.1970
 3530W        W46443  18.094  28.607   1.245 -0.5072  0.0768 -0.1994
 3531W        W46444  15.991  25.093  29.279 -0.0580  0.0649  0.0352
 3532W        W46445  17.108  22.249   3.166 -0.1178  0.2997  0.1737
 3533W        W46446  17.582  24.164  28.559  0.0941 -0.0307  0.4184
 3534W        W46447  24.897  17.515  27.972 -0.0885 -0.0547 -0.3566
 3535W        W46448   4.082  21.431  24.677  0.0448  0.0354  0.1823
 3536W        W46449  11.433  18.268  28.469 -0.1428  0.0711  0.0939
 3537W        W46450  15.430  17.986   2.422 -0.0191 -0.3031 -0.4516
 3538W        W46451  10.652  15.535  24.853  0.2327  0.0194 -0.2416
 3539W        W46452  22.169  15.792   0.427 -0.0238 -0.1996 -0.1092
 3540W        W46453  23.028  34.135   0.242  0.0025  0.3119  0.1039
 3541W        W46454   7.793  20.519  28.519 -0.0604  0.1008  0.0004
 3542W        W46455  15.084  24.207  22.803  0.0360  0.1367  0.3060
 3543W        W46456  22.501  13.824   3.585  0.4136  0.2083 -0.0004
 3544W        W46457  21.565  23.242  25.361  0.1874 -0.1931  0.1326
 3545W        W46458  11.270  22.672   9.866  0.1670 -0.1753  0.2132
 3546W        W46459   8.725  16.007   1.974 -0.0781  0.1202 -0.1785
 3547W        W46460  17.322  26.618   3.973 -0.2210  0.0305  0.1044
 3548W        W46461  21.345  22.421  26.032 -0.1159 -0.0564  0.0970
 3549W        W46462  20.725  16.323  29.141  0.0684  0.2089  0.0864
 3550W        W46463   9.695  28.640   7.948  0.2808 -0.0246  0.3482
 3551W        W46464  11.280  33.338  19.774  0.2582 -0.0247  0.1008
 3552W        W46465  15.529  20.225  15.943 -0.1217 -0.0820 -0.1498
 3553W        W46466  10.117  23.716   4.912 -0.0828 -0.0002  0.2078
 3554W        W46467  16.587  11.874   8.583 -0.0876  0.0703 -0.0859
 3555W        W46468   4.835  23.188  23.832  0.0793 -0.1974 -0.4120
 3556W        W46469  18.824  25.450   9.471 -0.0935  0.1186 -0.2685
 3557W        W46470  10.366  22.145   8.604 -0.2601  0.0370 -0.1759
 3558W        W46471  25.113  20.571  27.612  0.2094  0.0223  0.0558
 3559W        W46472   7.917  28.024  25.428 -0.2637 -0.1533  0.1864
 3560W        W46473  22.349  22.964   7.646  0.2461  0.1055  0.0811
 3561W        W46474  10.289  27.173   3.800  0.0491 -0.1711 -0.1862
 3562W        W46475  28.298  22.807  27.684 -0.2497 -0.0622  0.3260
 3563W        W46476   6.921  29.502   0.647  0.0473 -0.0724  0.2414
 3564W        W46477  15.866   8.600   6.204  0.1522  0.0247 -0.1563
 3565W        W46478  16.049  23.161  25.846 -0.0668  0.0046  0.2987
 3566W        W46479  15.735  26.308  26.115 -0.3799  0.0120 -0.2000
 3567W        W46480  21.370  27.648   0.311 -0.0645  0.1072 -0.1503
 3568W        W46481  12.829  15.377   2.601 -0.1733  0.1769 -0.1265
 3569W        W46482  11.861  24.725   1.022  0.1658 -0.1399  0.5127
 3570W        W46483  15.607  12.286  21.111 -0.1166 -0.0920  0.0538
 3571W        W46484  10.472  22.880  19.796 -0.0816 -0.0962  0.0164
 3572W        W46485  27.308  18.190   9.102  0.4289  0.3907 -0.3274
 3573W        W46486  21.146  11.910   4.007 -0.0432 -0.1818  0.1804
 3574W        W46487  22.254  23.151  21.349 -0.0460  0.1505 -0.0001
 3575W        W46488  22.456  22.998  24.560 -0.0940  0.0886 -0.0594
 3576W        W46489  18.407  22.876  19.971 -0.2003 -0.1311  0.0454
 3577W        W46490  23.081  16.258  25.347  0.1364 -0.0478 -0.1974
 3578W        W46491  21.152  33.336   1.857  0.0608 -0.2549 -0.1492
 3579W        W46492   9.773   0.340   0.419  0.0935 -0.2304  0.2027
 3580W        W46493  12.060  13.740  27.639  0.0558 -0.0050  0.0437
 3581W        W46494  28.420  23.122   1.545  0.3347 -0.1917  0.0455
 3582W        W46495  14.384  26.901  29.384  0.0851  0.1202  0.0643
 3583W        W46496   8.627  20.155   7.233  0.1615  0.0023 -0.0844
 3584W        W46497  32.399  23.292   1.720 -0.0180  0.1098  0.1583
 3585W        W46498   9.620   8.983   2.180 -0.0458 -0.1003 -0.0588
 3586W        W46499  15.291  18.419  23.063  0.0639 -0.1624 -0.2001
 3587W        W46500  13.823  16.120   1.858  0.1252 -0.1063 -0.0243
 3588W        W46501  18.800  31.603  29.436 -0.1703 -0.2079 -0.3265
 3589W        W46502  16.881  10.604   7.190 -0.0740 -0.2457 -0.2211
 3590W        W46503  16.117  30.166   4.677  0.3172  0.0657 -0.0510
 3591W        W46504  16.637  19.708  27.439 -0.1605 -0.1810 -0.2780
 3592W        W46505  13.486  11.484  27.936  0.1046 -0.2117 -0.0596
 3593W        W46506  24.256  14.303  25.232  0.1666 -0.1104  0.0297
 3594W        W46507  13.674  16.740  23.141  0.2833  0.2409  0.0960
 3595W        W46508  13.014  13.201   0.342  0.0646  0.1070  0.2417
 3596W        W46509  12.568  29.982  24.349 -0.4871  0.0713  0.3683
 3597W        W46510  22.351   6.237  20.231 -0.4503 -0.1401  0.3136
 3598W        W46511  20.055  16.926  20.934  0.2897 -0.1065  0.0340
 3599W        W46512  18.108  20.735  22.577  0.0669 -0.2144  0.0333
 3600W        W46513  24.486  15.977  16.918  0.1410 -0.1175 -0.1896
 3601W        W46514  23.007   6.280   0.995 -0.0330 -0.0130 -0.1729
 3602W        W46515  12.534  21.130   0.777  0.4209 -0.0446 -0.1616
 3603W        W46516  21.180  22.636  26.662  0.1147  0.0010 -0.1334
 3604W        W46517  13.787  17.612   1.146 -0.1865 -0.0619  0.0441
 3605W        W46518  14.139  21.498   0.573  0.3517 -0.3100  0.0497
 3606W        W46519   8.471  34.184  28.135 -0.1485  0.0283 -0.1743
 3607W        W46520  23.369  21.040  24.297  0.0621 -0.4404  0.1581
 3608W        W46521  25.541   9.921  23.949  0.0392  0.0375  0.0543
 3609W        W46522   1.776  15.421   0.534  0.2057  0.3435 -0.2312
 3610W        W46523  11.045  25.446   2.329 -0.0316  0.3323 -0.1690
 3611W        W46524   7.503  11.512   4.366 -0.1389 -0.0784 -0.0543
 3612W        W46525  33.986  19.401  28.126 -0.0901  0.0140 -0.1165
 3613W        W46526  14.379  25.425  24.473 -0.2509 -0.1414 -0.1708
 3614W        W46527  14.052  14.117  25.722 -0.1666 -0.0435  0.0877
 3615W        W46528   9.549  16.124   0.369  0.1415 -0.0132 -0.2720
 3616W        W46529  10.508  22.132  26.773  0.0176 -0.0162 -0.1615
 3617W        W46530  19.256  20.732  24.460  0.2109  0.0810  0.1088
 3618W        W46531  10.235  21.872  28.503  0.0490  0.1775  0.1032
 3619W        W46532  13.817  12.949   5.856  0.2626 -0.1185 -0.0473
 3620W        W46533  13.435  26.707   0.304 -0.2286  0.1950  0.2575
 3621W        W46534  14.535  29.932   1.129  0.0718  0.1599 -0.0581
 3622W        W46535  12.249  26.286  26.978  0.0376 -0.0156  0.0762
 3623W        W46536  15.273  27.665  28.690 -0.0659  0.1361  0.2397
 3624W        W46537  11.519   7.981   3.724 -0.1601 -0.1476 -0.0197
 3625W        W46538  17.831  12.916  24.558  0.1214  0.0051 -0.1419
 3626W        W46539  23.806  14.476   7.230 -0.2167 -0.0931  0.1759
 3627W        W46540   5.149  20.688   8.789 -0.1955  0.4013 -0.1500
 3628W        W46541  22.264  19.718   0.087 -0.4486  0.1016 -0.0445
 3629W        W46542  13.250  16.712   5.864  0.1281  0.0339  0.0209
 3630W        W46543   7.468  18.749  22.335 -0.0745 -0.0735 -0.3277
 3631W        W46544  15.773  29.495  24.508  0.0083  0.1340  0.0768
 3632W        W46545  15.525  19.898   5.438  0.2862 -0.0142 -0.1215
 3633W        W46546  14.483  11.753   3.790  0.1999  0.0826 -0.1508
 3634W        W46547  22.757  21.763  29.619 -0.0556 -0.1139  0.0356
 3635W        W46548  18.203  16.327  25.964  0.3836 -0.1196 -0.0501
 3636W        W46549  20.669  22.052   5.584 -0.1831  0.4567 -0.1116
 3637W        W46550  17.026  31.177   3.642  0.2400  0.1080  0.1813
 3638W        W46551   6.587  18.003   3.298  0.0287 -0.1761  0.1331
 3639W        W46552   7.213   2.757  28.351 -0.0234 -0.2166 -0.1619
 3640W        W46553  26.395  28.573  19.474  0.0482 -0.0413 -0.1707
 3641W        W46554  24.002  23.306   6.120  0.1348  0.1091 -0.2530
 3642W        W46555  14.871  23.698  26.504  0.0862 -0.0980  0.1076
 3643W        W46556  12.800  17.587  27.078 -0.0477  0.2105  0.2124
 3644W        W46557   5.458  26.639   7.392  0.0983 -0.0331 -0.1642
 3645W        W46558  22.263  27.885   3.873 -0.3126 -0.1348 -0.1017
 3646W        W46559  11.813  21.809  27.253  0.0943 -0.4209 -0.0442
 3647W        W46560  15.563  25.916  27.460  0.3509  0.3735 -0.0098
 3648W        W46561  20.784  19.689   4.970  0.0215  0.1667  0.0874
 3649W        W46562  13.439  11.478  23.260  0.0116 -0.1437  0.0948
 3650W        W46563  17.586  20.517   7.797  0.3556 -0.0868 -0.1850
 3651W        W46564  18.007  23.680  27.837  0.2185 -0.2447 -0.2851
 3652W        W46565  10.556  16.522  27.941  0.2037  0.1631  0.0987
 3653W        W46566  24.722  28.913   2.781  0.0396  0.1170 -0.0517
 3654W        W46567  16.637   0.633   0.063 -0.0966 -0.1004  0.1827
 3655W        W46568  12.602  24.027  25.001 -0.1929 -0.0525  0.1456
 3656W        W46569  17.648  11.749  26.857 -0.0169 -0.3011  0.1790
 3657W        W46570  20.341  21.162   2.576  0.2850 -0.2525  0.1616
 3658W        W46571  10.383   7.176  24.857 -0.1857  0.1396  0.2369
 3659W        W46572  26.637  22.734   5.134  0.3440  0.3479  0.2501
 3660W        W46573   9.857  22.798  28.398 -0.1079  0.0864  0.1108
 3661W        W46574  16.220  12.279   3.143  0.3861  0.2187 -0.0255
 3662W        W46575  17.888  26.600  28.882 -0.3033 -0.1566 -0.0906
 3663W        W46576  14.521  12.773  28.473 -0.0902  0.1086 -0.3014
 3664W        W46577  15.689  21.071  28.463 -0.1602 -0.1992 -0.3185
 3665W        W46578  19.064  24.750   8.368  0.1821  0.2744 -0.0268
 3666W        W46579  16.344  22.878   2.259 -0.1570 -0.4362  0.0033
 3667W        W46580  19.361  19.616  24.720  0.1428 -0.0168 -0.0337
 3668W        W46581   7.192  21.596   7.883  0.2560 -0.2020  0.0123
 3669W        W46582  14.511  25.592   2.473 -0.1107 -0.0772 -0.1050
 3670W        W46583  22.319  19.477   2.098 -0.2865 -0.3140  0.2303
 3671W        W46584  16.137  22.343   7.207 -0.1220 -0.1187 -0.3490
 3672W        W46585  12.064  19.928   0.967  0.1335  0.0532 -0.1804
 3673W        W46586  31.199  17.475  27.436 -0.0540 -0.0366 -0.0903
 3674W        W46587   5.588  21.329   0.966 -0.0713  0.2237  0.2128
 3675W        W46588  23.291  19.385   4.499 -0.2566 -0.1161 -0.2288
 3676W        W46589  18.095  27.179   9.045 -0.0621  0.1323  0.1395
 3677W        W46590   8.067  22.952   8.242 -0.0968 -0.0378 -0.0182
 3678W        W46591  15.606  19.973  24.101 -0.0898 -0.0900 -0.0164
 3679W        W46592  18.310  11.622   6.714  0.0473 -0.1750  0.2830
 3680W        W46593  12.787  21.868   0.700  0.0157 -0.0439  0.0718
 3681W        W46594  15.342  18.166   6.500 -0.0478 -0.0706 -0.2612
 3682W        W46595  19.542  24.380   3.863 -0.2529  0.1849  0.1017
 3683W        W46596  19.120  29.985  25.793 -0.4015  0.1124 -0.0777
 3684W        W46597   8.607  24.099   9.102 -0.0612  0.0265 -0.3638
 3685W        W46598  22.803  19.456   7.564 -0.0438 -0.0402 -0.2490
 3686W        W46599  17.221  19.205   0.599  0.0962  0.0387 -0.0239
 3687W        W46600  13.355  18.396  22.262  0.2419  0.1547  0.1680
 3688W        W46601   9.663  18.483  23.482  0.0021  0.2987 -0.1739
 3689W        W46602  24.720  30.714   4.082  0.3290 -0.2752 -0.1085
 3690W        W46603  16.391  20.705  26.143 -0.2512  0.0624 -0.1927
 3691W        W46604  12.375  19.417  23.670  0.1505 -0.1870  0.0049
 3692W        W46605  22.253  21.753  20.022  0.0120  0.2555  0.0802
 3693W        W46606  16.105  23.265  23.747  0.1997  0.3046 -0.0482
 3694W        W46607   9.980  15.155   0.402  0.1415  0.1076  0.0178
 3695W        W46608  10.877  19.788  25.019 -0.1705 -0.2192 -0.4283
 3696W        W46609   7.592  16.130  23.530  0.0202  0.2646  0.0324
 3697W        W46610   7.137  20.985  23.360  0.1717 -0.0564 -0.1077
 3698W        W46611  13.817  18.611  29.156  0.0123 -0.1539 -0.2636
 3699W        W46612  23.048  30.551   4.682  0.0093 -0.1151 -0.0692
 3700W        W46613  30.307  20.634   0.715  0.0353 -0.0014  0.0953
 3701W        W46614   1.561  22.555   7.508  0.0908  0.0700 -0.0953
 3702W        W46615  17.769  11.112  27.174 -0.1977  0.1227  0.1138
 3703W        W46616  15.662  26.221   0.456 -0.1749 -0.0015 -0.0293
 3704W        W46617  10.610  21.819  27.914 -0.2015  0.0268  0.0049
 3705W        W46618  13.572  19.133   7.729 -0.2942  0.3864 -0.2235
 3706W        W46619  13.953  25.862  21.792  0.0692 -0.0127 -0.4639
 3707W        W46620  16.198  14.514  28.839 -0.0218 -0.0525 -0.1525
 3708W        W46621  13.339   0.041  11.710 -0.1533 -0.0637 -0.1514
 3709W        W46622  19.457  21.447   5.968 -0.3521  0.0445 -0.4804
 3710W        W46623  12.619  23.154  22.524 -0.2670 -0.0827  0.2300
 3711W        W46624  14.774  12.498  22.871 -0.1727  0.0771  0.0813
 3712W        W46625  15.871  10.326  29.733 -0.1451  0.0847  0.5346
 3713W        W46626  14.759  14.777   3.020  0.2385  0.1195 -0.0162
 3714W        W46627  14.446  26.499  26.619 -0.1624 -0.0814  0.0469
 3715W        W46628  14.077  18.118   1.806 -0.0997  0.1877 -0.3098
 3716W        W46629  21.256   9.034   2.185 -0.3442  0.0384  0.0255
 3717W        W46630  13.996  30.473   9.139 -0.1281 -0.0078  0.2071
 3718W        W46631  16.173  15.901   2.862 -0.0134  0.1758  0.2178
 3719W        W46632  24.981   5.899   1.082  0.2203  0.1241 -0.1894
 3720W        W46633  20.702  18.541  25.717  0.2439  0.2443  0.0950
 3721W        W46634  11.170  19.913   1.337  0.0502 -0.1367  0.1614
 3722W        W46635  18.187  17.795   4.443 -0.0140 -0.2156  0.0488
 3723W        W46636  11.309  24.881   4.366  0.1256 -0.0575  0.2078
 3724W        W46637   7.243  22.096   5.931 -0.0997  0.0685 -0.2552
 3725W        W46638  11.870  19.796  16.792 -0.2588 -0.1189 -0.1177
 3726W        W46639  10.448  14.339   0.255 -0.1026 -0.1968 -0.1327
 3727W        W46640  23.654  19.261  29.284  0.1700  0.1538  0.1236
 3728W        W46641  19.396  22.970  21.700 -0.1870 -0.1739 -0.0027
 3729W        W46642  18.966  23.056   4.583  0.1794  0.0669 -0.2505
 3730W        W46643  11.996  19.750   8.174  0.0208  0.0847  0.2151
 3731W        W46644  16.740  13.959   4.227  0.1321 -0.3472  0.3642
 3732W        W46645  19.636  24.472   8.206 -0.1305  0.1818  0.0070
 3733W        W46646  15.000  24.107   6.641  0.0948  0.2567 -0.2553
 3734W        W46647  14.501  21.139   7.112  0.1710  0.1275  0.1405
 3735W        W46648  23.748  13.515   3.271  0.1268 -0.0349 -0.1163
 3736W        W46649  18.214  15.175  25.491  0.1144 -0.2565 -0.0039
 3737W        W46650  17.375  18.977   6.501  0.2074  0.2018 -0.3093
 3738W        W46651  12.464  28.167   9.600  0.0703  0.3812 -0.2071
 3739W        W46652   8.553  28.484   4.083  0.2641  0.1088  0.2320
 3740W        W46653  16.132  26.317   0.123 -0.3319 -0.3854  0.0784
 3741W        W46654  17.182  12.348   1.718  0.2120 -0.0043 -0.0365
 3742W        W46655  10.915  21.552   0.313 -0.3020  0.1498  0.0951
 3743W        W46656  15.527  21.373   4.738  0.1284 -0.1411 -0.3511
 3744W        W46657   6.539  17.660   2.462  0.1627  0.1268 -0.1746
 3745W        W46658  25.165  24.013  24.808  0.0242 -0.1196  0.1276
 3746W        W46659  29.869  20.681  29.165  0.0568  0.0836  0.2551
 3747W        W46660  17.856  23.710  18.324  0.2359 -0.0720  0.0882
 3748W        W46661  18.126  17.603  28.155 -0.1032  0.0077  0.2101
 3749W        W46662  23.001  18.558   1.654  0.1142 -0.0554 -0.0019
 3750W        W46663  15.337  20.252  23.215 -0.0897 -0.2219 -0.0905
 3751W        W46664   7.942  12.377   1.677 -0.0722 -0.1013  0.1991
 3752W        W46665  13.222  17.658   5.510 -0.0114  0.0053  0.0488
 3753W        W46666  22.064  20.339   4.600 -0.0241 -0.1642 -0.1109
 3754W        W46667  23.615  27.671   8.373  0.2078  0.3062  0.3376
 3755W        W46668  13.384  21.912   0.946 -0.1972  0.0458 -0.2158
 3756W        W46669   4.471  24.359  28.866  0.2958  0.1741 -0.1308
 3757W        W46670  16.722   1.372  23.055 -0.1755 -0.0806 -0.0490
 3758W        W46671  14.178  17.694   0.775  0.0433 -0.2959  0.3706
 3759W        W46672  16.681  34.393  29.416 -0.1438  0.1383  0.2349
 3760W        W46673  24.475  21.461   7.205  0.0175 -0.1542 -0.0573
 3761W        W46674  30.421  20.870  27.248  0.0304 -0.1740 -0.4296
 3762W        W46675  14.989  16.662   7.856  0.0244 -0.1627  0.0700
 3763W        W46676   9.384  21.232   9.689 -0.1488  0.1334 -0.0363
 3764W        W46677  13.043  18.483   5.880 -0.1076 -0.0090 -0.2450
 3765W        W46678  18.271  15.613   5.804  0.0449  0.1812 -0.0931
 3766W        W46679   9.520  31.415   6.995  0.0285 -0.1814 -0.4493
 3767W        W46680  17.700  25.032  26.742  0.0806 -0.1902  0.0001
 3768W        W46681  11.832  21.477  24.196  0.1655  0.1561 -0.2001
 3769W        W46682  16.993  18.558  26.632 -0.2887 -0.1345  0.2331
 3770W        W46683  19.621  16.914  21.513 -0.0442  0.0609  0.1880
 3771W        W46684  24.923  19.102   1.093 -0.2045  0.1662 -0.1420
 3772W        W46685  23.525  13.777   2.181  0.1560 -0.2950 -0.2249
 3773W        W46686  14.759  25.425   1.445  0.0705 -0.0350 -0.0920
 3774W        W46687  22.149  21.152   1.734  0.2893 -0.0431  0.2261
 3775W        W46688  24.862  12.646   2.688 -0.0681  0.2377 -0.4128
 3776W        W46689  24.182  30.535   6.816  0.0045 -0.0324 -0.2066
 3777W        W46690  12.434  18.279   4.245 -0.0447 -0.0108  0.0067
 3778W        W46691  12.747  18.691   0.974  0.1049  0.2428 -0.1807
 3779W        W46692  16.813  19.967  29.321 -0.1971  0.4536 -0.0887
 3780W        W46693  14.458  19.788   2.031 -0.1329 -0.2217  0.2416
 3781W        W46694  18.615  25.910   2.532 -0.0180 -0.0538 -0.0927
 3782W        W46695  13.494   6.727  29.278 -0.0141 -0.0144 -0.0551
 3783W        W46696  12.618  25.940   2.682  0.1262 -0.2525 -0.1501
 3784W        W46697  29.435  25.077   2.711  0.1312 -0.0603  0.2197
 3785W        W46698  12.400  18.930  28.218 -0.0527 -0.2638 -0.0669
 3786W        W46699  18.570  11.290   6.434 -0.1330  0.0611  0.1383
 3787W        W46700  20.335  13.688  22.559 -0.1347  0.0615  0.1061
 3788W        W46701  18.261  12.063  20.850 -0.0636 -0.1665  0.0529
 3789W        W46702  23.216  13.089  28.915  0.0857  0.0047 -0.2937
 3790W        W46703  31.012  31.538   1.853 -0.2030  0.1512 -0.0381
 3791W        W46704  13.633   7.187   5.805 -0.0191  0.0668  0.1894
 3792W        W46705  16.912  29.959   9.332  0.0809  0.4537 -0.1745
 3793W        W46706  14.620  19.130   1.412  0.0679 -0.1003 -0.1357
 3794W        W46707  18.505  16.053   6.888 -0.2969 -0.0787 -0.2541
 3795W        W46708   9.872  26.940   0.543  0.2228  0.2893  0.2214
 3796W        W46709  25.828   5.889  29.510 -0.0236  0.0328 -0.4100
 3797W        W46710  17.296  20.670  22.249  0.2817 -0.2399  0.1643
 3798W        W46711   8.702   8.927  27.376  0.2420 -0.0245 -0.1045
 3799W        W46712  16.620  12.771   0.725  0.2499  0.1069  0.1833
 3800W        W46713  19.062  17.449   0.468 -0.0078  0.2058 -0.2860
 3801W        W46714  19.152   2.690   5.333  0.1228 -0.1564  0.1881
 3802W        W46715  29.957  21.611   8.554 -0.2820 -0.0548  0.0077
 3803W        W46716  17.116  24.616   1.562  0.0189  0.3935 -0.1175
 3804W        W46717   9.688  14.059   8.866  0.3861  0.0094  0.0729
 3805W        W46718   7.349  27.381   5.945  0.0808 -0.0772  0.1607
 3806W        W46719  21.667   9.040   6.127 -0.2372  0.0184 -0.1154
 3807W        W46720  22.068  13.312  28.406  0.2127  0.5619  0.0734
 3808W        W46721  15.781  15.175   3.835 -0.5642  0.1509 -0.0357
 3809W        W46722  17.500  24.720   9.292 -0.0408  0.0294 -0.1968
 3810W        W46723  21.159  29.353   1.170 -0.1298  0.2216  0.3332
 3811W        W46724   6.467  32.128   5.620 -0.1492  0.1743  0.1130
 3812W        W46725  12.624  25.483   3.720  0.1298  0.0554  0.0989
 3813W        W46726  21.705  11.742  17.568  0.0688 -0.1447 -0.0448
 3814W        W46727  10.680  21.070   6.976  0.3920  0.1115 -0.2409
 3815W        W46728  17.578  24.561   2.458  0.3237 -0.2792 -0.1095
 3816W        W46729  15.849  18.081  25.176 -0.2815 -0.1154  0.0149
 3817W        W46730  10.343  22.597   3.882 -0.1117 -0.1777  0.0623
 3818W        W46731  22.153  17.990  26.558  0.1414 -0.1795 -0.0461
 3819W        W46732  11.288  19.148   3.590 -0.0263  0.2575 -0.1355
 3820W        W46733   3.669   9.727  24.249 -0.0579  0.2632 -0.2724
 3821W        W46734  15.252  24.932  25.060  0.1244 -0.0456  0.1945
 3822W        W46735  22.170   0.434  14.749  0.1937 -0.0246 -0.0083
 3823W        W46736  16.949  24.857   3.372 -0.0260  0.0814  0.0984
 3824W        W46737  12.310  14.257   4.667 -0.2294 -0.0948 -0.4120
 3825W        W46738  10.051  15.929   7.699  0.0041 -0.2906  0.2298
 3826W        W46739  27.616  15.199   8.799 -0.0607 -0.2369 -0.2006
 3827W        W46740  17.080  26.244   4.176  0.2618 -0.0677 -0.0918
 3828W        W46741   5.479  21.079  28.396  0.1617 -0.0811  0.2651
 3829W        W46742  16.801  23.224   6.523  0.1972  0.1110 -0.0846
 3830W        W46743  12.474  25.012   8.757  0.5353 -0.1232 -0.1134
 3831W        W46744  18.312  11.902   8.911  0.0735 -0.2391 -0.0414
 3832W        W46745  18.038  13.194  27.654  0.0490 -0.0285  0.1750
 3833W        W46746  17.746  18.524  28.345  0.0186 -0.0415 -0.0560
 3834W        W46747  14.531  19.703   4.351  0.0035  0.1702 -0.1362
 3835W        W46748  19.160  17.152  25.424  0.2544 -0.3448 -0.2765
 3836W        W46749  19.556  25.490   2.255 -0.0352  0.1134  0.2199
 3837W        W46750  21.328  15.578  27.879 -0.2202 -0.0518  0.2624
 3838W        W46751  15.597  29.018   7.243 -0.0544  0.2934  0.2882
 3839W        W46752  10.017  17.810   3.303 -0.1513  0.1248  0.2085
 3840W        W46753  15.165  16.559  27.691 -0.1883 -0.0367 -0.0672
 3841W        W46754  12.700  21.558   2.158  0.0605  0.4402 -0.0019
 3842W        W46755  10.685  15.522  28.867 -0.1569 -0.0967 -0.0549
 3843W        W46756  15.735  16.533  25.775 -0.0594  0.2991  0.0137
 3844W        W46757  31.171  19.725   7.974  0.0455  0.0515  0.1781
 3845W        W46758   6.877  16.585   9.466  0.1407  0.1820  0.0824
 3846W        W46759   5.544  25.359   9.299  0.0325 -0.0055  0.0631
 3847W        W46760  23.854  15.496   5.477  0.0527 -0.3160  0.0529
 3848W        W46761  18.172  15.908   4.278  0.0120  0.2806 -0.1303
 3849W        W46762  26.499  21.782   3.084  0.2373 -0.2096  0.1774
 3850W        W46763  16.614  21.916  23.753 -0.2076 -0.0438 -0.2431
 3851W        W46764   1.315  15.527   8.020  0.2859 -0.4796  0.0265
 3852W        W46765  26.386  20.894  28.090 -0.3088  0.2835  0.0532
 3853W        W46766  20.110  28.168   7.588  0.1156  0.2196  0.2558
 3854W        W46767  10.756  32.374   0.889  0.1621 -0.0144 -0.0622
 3855W        W46768  10.840  16.244   8.044 -0.1777  0.0427 -0.0298
 3856W        W46769  19.483  23.943   7.449 -0.0512  0.0251  0.2677
 3857W        W46770  14.442  29.565  29.721  0.0073  0.3426 -0.3409
 3858W        W46771  16.637  24.490   8.921  0.0039 -0.3614 -0.1684
 3859W        W46772  15.935  19.783   5.663 -0.0599  0.3749  0.0503
 3860W        W46773  14.067  21.332   2.496 -0.1738 -0.2627  0.1368
 3861W        W46774  21.870  22.787   3.703  0.0923  0.1876  0.1529
 3862W        W46775   9.580  28.842  12.407 -0.2688  0.0012 -0.1838
 3863W        W46776  15.450  24.844   1.302 -0.4107  0.1037 -0.0861
 3864W        W46777  24.905  17.494  20.460  0.0951  0.0404 -0.2395
 3865W        W46778  19.919  17.237   2.832 -0.2311  0.1834 -0.2285
 3866W        W46779  13.797  20.513   6.865  0.0940 -0.1874 -0.0915
 3867W        W46780  11.881  12.907  29.479  0.2379 -0.0264 -0.1332
 3868W        W46781  11.671  24.005   6.233  0.0378  0.0951 -0.0963
 3869W        W46782  12.909  15.075  27.248 -0.2811 -0.1908  0.0594
 3870W        W46783  10.518  15.994   5.843 -0.0089  0.1441 -0.2799
 3871W        W46784  18.486  17.372   6.680 -0.0303  0.1744 -0.1053
 3872W        W46785  15.433  12.717  29.009 -0.1126 -0.3281 -0.0559
 3873W        W46786  11.929  20.364   6.898  0.1202 -0.1420 -0.0608
 3874W        W46787   8.427  29.847  27.880 -0.3169 -0.0325  0.1584
 3875W        W46788  28.625  10.473   6.941  0.1203  0.0919 -0.4061
 3876W        W46789  11.776  21.459  28.543 -0.4191 -0.0621 -0.0407
 3877W        W46790  15.670  21.297   8.140  0.0973  0.1575  0.0532
 3878W        W46791  12.237  28.662   2.188 -0.0760 -0.0329 -0.0955
 3879W        W46792  13.454  17.506   1.702 -0.0677  0.0794 -0.1581
 3880W        W46793  20.356  19.989   4.482  0.3316  0.3579 -0.1749
 3881W        W46794  16.072  28.825   7.286 -0.0879 -0.3224 -0.0426
 3882W        W46795   8.998  14.825   2.352  0.3513 -0.0863 -0.3242
 3883W        W46796  12.918  11.582  27.300  0.0225 -0.0561 -0.1557
 3884W        W46797  20.156  29.986   7.294  0.0963  0.0018 -0.2157
 3885W        W46798  22.034  28.735   8.330 -0.1638 -0.2958 -0.4239
 3886W        W46799  14.351   9.051   9.916 -0.1193  0.2475  0.0359
 3887W        W46800  16.888   8.486   7.167 -0.0222  0.2003 -0.2034
 3888W        W46801  17.039  26.815   9.015 -0.0989 -0.0474  0.0153
 3889W        W46802  22.711   9.031   1.539  0.1911 -0.0317  0.2921
 3890W        W46803  13.660  12.410   5.974 -0.2427 -0.0890 -0.1181
 3891W        W46804   9.828  24.947  10.160 -0.0433 -0.0606  0.0329
 3892W        W46805  19.236   0.857  27.404  0.0192 -0.0069  0.1294
 3893W        W46806  14.523  24.410   5.100  0.0630  0.2227  0.2542
 3894W        W46807  13.209  27.579   8.898 -0.0743  0.0649 -0.0901
 3895W        W46808  15.500  12.028   0.497 -0.0998 -0.0481  0.0307
 3896W        W46809   5.841  22.921   5.419 -0.3582  0.5115  0.2372
 3897W        W46810  10.598  18.941   5.915 -0.0955 -0.1312 -0.1077
 3898W        W46811  15.087  23.491  27.773  0.2039  0.4271  0.4165
 3899W        W46812  24.123   0.899   6.093  0.0232 -0.1841 -0.0956
 3900W        W46813  18.878  16.984   4.419  0.0480 -0.2320  0.3135
 3901W        W46814  10.245  23.962   7.079 -0.2481  0.4488  0.0854
 3902W        W46815  28.573  16.993   8.262  0.0148 -0.1422  0.0661
 3903W        W46816  19.866  28.972   5.708  0.1807 -0.1546 -0.1539
 3904W        W46817   7.757  20.935   0.793  0.3323  0.0172 -0.1464
 3905W        W46818  17.956  20.105   5.958 -0.1070  0.2854 -0.0808
 3906W        W46819  18.898  24.103  27.706  0.0391  0.0873 -0.0968
 3907W        W46820  17.042  18.472   5.435 -0.2520 -0.0486 -0.0951
 3908W        W46821  24.630  17.089   5.413  0.1989 -0.0873 -0.0749
 3909W        W46822   8.835  23.133   5.941 -0.0952 -0.2618  0.3075
 3910W        W46823  12.856   1.085   7.955 -0.0110  0.1012 -0.0125
 3911W        W46824  14.480  18.168   2.881  0.1613  0.1031 -0.0546
 3912W        W46825  10.592  12.049  26.285  0.1190 -0.0916  0.3039
 3913W        W46826  26.556  24.586   2.622 -0.1914 -0.4409 -0.0226
 3914W        W46827  19.035  24.553   7.076 -0.3596  0.1435  0.0168
 3915W        W46828  20.580  15.732   4.585 -0.2220 -0.1130  0.2096
 3916W        W46829  14.421   3.805  27.416  0.1249  0.1013  0.0125
 3917W        W46830  13.007  21.600   1.055  0.1362 -0.1586 -0.4456
 3918W        W46831  15.537  31.166   2.176 -0.0111  0.0771 -0.3027
 3919W        W46832  17.299  14.792   0.874  0.0390  0.2485  0.0529
 3920W        W46833  17.473  18.427  23.733 -0.1916  0.1310 -0.0859
 3921W        W46834  16.908  12.361   7.745 -0.1846 -0.0824 -0.1164
 3922W        W46835  22.152  18.850  28.475 -0.1110  0.1331  0.0999
 3923W        W46836  18.927  14.240   6.741  0.2512 -0.1995  0.2477
 3924W        W46837  16.193  20.507   1.892  0.5565 -0.0789 -0.0499
 3925W        W46838  17.404   6.600   5.039  0.0065 -0.4005  0.3673
 3926W        W46839  18.785  29.369  10.340  0.1826 -0.0168 -0.0732
 3927W        W46840  24.556  14.777   2.038  0.3026  0.2565 -0.0807
 3928W        W46841  15.801  14.768   5.356  0.1033  0.0242  0.1607
 3929W        W46842  15.947  20.770   1.037  0.2832 -0.4012 -0.1326
 3930W        W46843  26.813  17.991   5.211  0.0987  0.1485  0.0554
 3931W        W46844  24.657  25.140   2.930  0.1547  0.0993 -0.1678
 3932W        W46845  14.137  29.954  10.890  0.2094  0.1711 -0.0676
 3933W        W46846  23.601  24.661   6.171  0.0636  0.4400 -0.1556
 3934W        W46847  14.207   3.461  24.246  0.0592  0.0540  0.4187
 3935W        W46848  19.784  26.005   5.891  0.3423  0.3518  0.0882
 3936W        W46849  19.598  14.195  21.844 -0.4349  0.3600  0.0593
 3937W        W46850  17.451   5.948   2.486 -0.2300  0.1873  0.2282
 3938W        W46851  17.200  23.746   1.490 -0.2264 -0.1125  0.0412
 3939W        W46852  17.964  21.661   3.966  0.0197  0.0005 -0.0670
 3940W        W46853  23.252  10.742   4.719 -0.0580 -0.0752  0.0520
 3941W        W46854  11.689   8.568  28.265 -0.1442  0.3716 -0.0175
 3942W        W46855  17.241   0.017   9.574 -0.1058  0.3618 -0.2398
 3943W        W46856  20.927  23.124   3.185 -0.2069  0.1013  0.0094
 3944W        W46857  13.154  25.607   8.093  0.2478 -0.2727 -0.0744
 3945W        W46858  10.718   4.508   9.982  0.3700  0.0944  0.3470
 3946W        W46859   2.274  26.102  26.539  0.1169  0.2203 -0.3481
 3947W        W46860  13.863   4.534  26.191  0.0945 -0.2925  0.0748
 3948W        W46861   7.464  15.872   5.007 -0.0259 -0.1086 -0.2097
 3949W        W46862   7.284   4.009   9.983 -0.0782 -0.0673 -0.1445
 3950W        W46863  17.103  21.527   6.359 -0.2104  0.1706  0.1442
 3951W        W46864  17.705  13.799   5.700  0.1270 -0.0978 -0.0073
 3952W        W46865  23.030  31.384   4.302 -0.0190 -0.0926 -0.1842
 3953W        W46866  15.717  22.466   7.427 -0.0004  0.0549 -0.0749
 3954W        W46867   6.071  30.879   6.754  0.0187 -0.3239  0.0331
 3955W        W46868   9.629  15.420  17.221 -0.1762 -0.0749 -0.2373
 3956W        W46869  20.060  22.996   5.872  0.0596  0.0726  0.0217
 3957W        W46870  22.878  14.745   3.698 -0.0982 -0.3755 -0.1042
 3958W        W46871   7.896  13.894   9.058 -0.2101 -0.1576 -0.1631
 3959W        W46872  19.546  19.266  26.870  0.3727  0.0268  0.0425
 3960W        W46873  24.942   8.925   0.645 -0.1581  0.0605  0.6032
 3961W        W46874  25.118  27.279   5.309 -0.1484 -0.0911  0.1266
 3962W        W46875  18.760  20.734   6.066 -0.0173  0.0821  0.2274
 3963W        W46876  15.519  28.557  10.291 -0.0462  0.0819  0.0546
 3964W        W46877  15.630  16.740   4.116 -0.0965  0.0374 -0.3574
 3965W        W46878   8.432   7.234   8.800 -0.3627 -0.1712 -0.1398
 3966W        W46879   4.305  19.946   6.752 -0.2153 -0.1184  0.2950
 3967W        W46880  16.746  11.084   4.397 -0.0915  0.1718 -0.0709
 3968W        W46881   6.932  22.440   1.883  0.0172 -0.1009 -0.1613
 3969W        W46882   6.676   7.995   0.106 -0.2484 -0.1827 -0.2113
 3970W        W46883  14.946  22.628   9.477 -0.2002  0.2114  0.2020
 3971W        W46884  14.935  12.513   8.187 -0.3067 -0.0243 -0.0937
 3972W        W46885  24.121  24.150   4.461  0.3260 -0.0308 -0.0911
 3973W        W46886  32.252  19.442   9.586 -0.1625  0.1387 -0.0097
 3974W        W46887  23.714  15.502   7.089 -0.2365 -0.1354  0.2883
 3975W        W46888  15.837  15.515   7.099  0.1096  0.0204  0.1197
 3976W        W46889  12.500  34.454   4.669  0.2157 -0.1151  0.1289
 3977W        W46890  20.821  20.416   5.256  0.1026  0.1556 -0.2457
 3978W        W46891   8.959  20.511   3.309  0.0140  0.1905  0.0146
 3979W        W46892  13.722  19.204  28.290  0.2229 -0.3392 -0.0801
 3980W        W46893  12.130  32.037   1.662  0.4652 -0.4544  0.0314
 3981W        W46894  10.859  13.747   7.197  0.3759 -0.1600  0.1749
 3982W        W46895  17.954  29.660   3.570 -0.1634  0.0531  0.0073
 3983W        W46896  20.734  19.326   8.249  0.1621  0.1912 -0.1392
 3984W        W46897  17.498  18.105   3.459 -0.2635 -0.1232  0.0217
 3985W        W46898  12.760  14.746   7.551 -0.1034  0.0789  0.0518
 3986W        W46899  11.530  20.056   7.617  0.0039 -0.4790 -0.0588
 3987W        W46900  23.867  17.339   5.736 -0.0078  0.2222  0.1778
 3988W        W46901  11.814  28.833  18.989 -0.0494  0.1006  0.2172
 3989W        W46902  14.067  16.179  25.239 -0.0441  0.2396 -0.2526
 3990W        W46903  12.406  24.825   5.483 -0.0392 -0.0165  0.0291
 3991W        W46904   0.320  24.303   9.084  0.0065 -0.0691 -0.1286
 3992W        W46905   2.477  23.446   8.895 -0.2335 -0.0317  0.0275
 3993W        W46906  12.732  26.982   8.250 -0.1688 -0.2377 -0.2273
 3994W        W46907  14.542  34.139  28.874  0.0431 -0.0443  0.1642
 3995W        W46908  13.223  14.257   7.560  0.0628  0.1283  0.1811
 3996W        W46909  10.952  16.184   2.836  0.2265  0.1400  0.0369
 3997W        W46910  21.291  26.430   5.099 -0.0319  0.2455  0.0332
 3998W        W46911  20.162  16.516  26.885  0.1618 -0.1677  0.2882
 3999W        W46912   5.966  25.402   6.365 -0.2297  0.0809 -0.0693
 4000W        W46913  13.045  16.118   8.113 -0.1130  0.0556  0.0139
 4001W        W46914  14.061  16.239  28.842  0.3953  0.2649  0.5155
 4002W        W46915  17.377  20.730   1.442  0.0790 -0.0216 -0.0048
 4003W        W46916  12.228  15.588  28.013  0.0289  0.0291 -0.1497
 4004W        W46917   7.966  31.196   4.831  0.2689 -0.3026  0.0422
 4005W        W46918  13.881  19.616   8.595 -0.1082 -0.1292 -0.0579
 4006W        W46919   5.238  18.169   4.850 -0.0218  0.2240 -0.2933
 4007W        W46920  16.117  21.325   4.464  0.1076  0.1406 -0.0903
 4008W        W46921  16.310  16.952   7.384  0.3568 -0.0172 -0.1523
 4009W        W46922  12.261  17.285   9.116 -0.1181 -0.1875 -0.1048
 4010W        W46923  12.639   5.608   6.126  0.3400  0.1152  0.0745
 4011W        W46924  18.978  15.995   2.030  0.2294  0.0853 -0.6005
 4012W        W46925  11.574  22.401   9.562 -0.1726 -0.2729 -0.1012
 4013W        W46926  22.738  13.395   1.600  0.1098  0.0702  0.0142
 4014W        W46927  17.149  14.845  29.752  0.2092 -0.1842 -0.0781
 4015W        W46928  25.137  10.598   9.652 -0.1552 -0.4205  0.1334
 4016W        W46929  21.069  22.186   8.168 -0.0138 -0.1491  0.0715
 4017W        W46930  15.383  14.087  21.995  0.0107  0.0364  0.1141
 4018W        W46931  18.410  14.764   5.311 -0.0038  0.2629 -0.3326
 4019W        W46932  14.643  12.763   3.610  0.0091  0.0829 -0.3332
 4020W        W46933  15.333  22.629   3.650  0.2931 -0.2340 -0.1341
 4021W        W46934  10.948  10.392   8.687  0.1068 -0.1665 -0.1701
 4022W        W46935  18.064  21.341  26.427 -0.0561  0.1594 -0.2431
 4023W        W46936   1.357  19.796   8.807 -0.1141  0.0813  0.0575
 4024W        W46937  14.805  19.635  29.318 -0.1616 -0.0692 -0.2471
 4025W        W46938   9.728  22.543  25.481  0.1144  0.1005  0.0886
 4026W        W46939  29.208  32.406   4.180  0.1280 -0.1333  0.1900
 4027W        W46940   8.547   8.299   4.284 -0.2175  0.0666 -0.0716
 4028W        W46941  12.275  25.138  28.532  0.3933 -0.0602 -0.1698
 4029W        W46942  17.794  20.861   2.747 -0.2271  0.0575 -0.1055
 4030W        W46943   6.378   6.228   5.428  0.1657  0.0447 -0.1188
 4031W        W46944  12.254  19.125   7.483 -0.2489  0.0670  0.1910
 4032W        W46945  14.892  24.732  15.561  0.3251 -0.0128  0.0492
 4033W        W46946  18.180  29.868  28.696 -0.2479  0.3668  0.1800
 4034W        W46947  16.698  18.932  27.289  0.1763 -0.2536  0.1219
 4035W        W46948   3.557  20.000   8.890  0.1873  0.2911 -0.3070
 4036W        W46949   7.728  29.507   7.244 -0.2247  0.0157  0.1652
 4037W        W46950  16.162  16.370  22.380  0.1959 -0.1127 -0.1785
 4038W        W46951  34.074  20.446   3.248 -0.0140 -0.1186  0.0401
 4039W        W46952  14.704  15.659   8.426  0.1430  0.4530  0.0447
 4040W        W46953  13.018  17.087   0.967  0.1526 -0.1877  0.5114
 4041W        W46954   4.513  13.204  26.395 -0.1541  0.1699 -0.1490
 4042W        W46955  15.222  18.867   7.394  0.0098  0.0391 -0.3234
 4043W        W46956  12.586  20.677   1.209 -0.0192  0.0049  0.2445
 4044W        W46957  20.848  29.059   6.601 -0.0935  0.3151  0.1484
 4045W        W46958   9.716  14.403   4.631  0.3489  0.0208  0.2384
 4046W        W46959  18.190  20.785   0.222 -0.0834 -0.5975 -0.0468
 4047W        W46960   7.337  12.788   8.285  0.1170  0.0032  0.0001
 4048W        W46961  11.176  26.374   6.187  0.0624  0.0367 -0.1705
 4049W        W46962  10.011   8.609   6.869 -0.2089 -0.0978  0.1872
 4050W        W46963  10.213  11.627  29.586  0.0202 -0.0339  0.1147
 4051W        W46964  17.230  10.659  27.744  0.2663 -0.2608 -0.0567
 4052W        W46965  17.012  19.194   1.691 -0.0629  0.3546  0.2331
 4053W        W46966  10.305  17.487   7.621 -0.2416 -0.2506  0.2813
 4054W        W46967  17.270  29.156   9.795 -0.0949  0.1008 -0.0681
 4055W        W46968  24.171   3.747   3.160  0.1379 -0.1668 -0.2829
 4056W        W46969  25.425  20.055   3.590 -0.2865  0.0887  0.3374
 4057W        W46970  24.321  13.880   7.429 -0.0589  0.1580  0.2692
 4058W        W46971   7.314   7.810   4.952 -0.0866 -0.1078  0.0863
 4059W        W46972   8.498  32.098   6.326  0.0651  0.0954 -0.3797
 4060W        W46973  17.219  20.955  20.846 -0.0005  0.0616 -0.0143
 4061W        W46974   4.868  19.751   1.465 -0.1425  0.1189  0.2113
 4062W        W46975  10.345  24.267   0.288 -0.2172  0.2412 -0.0957
 4063W        W46976  10.163  12.475  29.384  0.0889  0.1422  0.1242
 4064W        W46977  21.586  11.819   6.485 -0.1179  0.0479  0.1398
 4065W        W46978  18.092  28.319   2.419 -0.1268 -0.2045  0.2833
 4066W        W46979  21.988  15.530   1.946  0.2576  0.0493  0.0320
 4067W        W46980  10.945  27.412   6.305  0.0227 -0.1188  0.1686
 4068W        W46981  18.627  19.844  26.330 -0.1620 -0.0656  0.0048
 4069W        W46982  15.737  16.483   3.719  0.0583  0.0721 -0.4991
 4070W        W46983  19.171  23.564   0.896 -0.0380 -0.0914  0.1286
 4071W        W46984  17.815  21.889   2.772  0.1735 -0.0615  0.1782
 4072W        W46985  13.501  17.582   6.489  0.1611 -0.2576 -0.2474
 4073W        W46986  16.051  19.784   0.247  0.0488  0.0860  0.1300
 4074W        W46987  22.608  17.267   6.923 -0.1004 -0.1457  0.2057
 4075W        W46988  10.907  18.386  26.365 -0.3615  0.0324  0.0494
 4076W        W46989  12.863  19.110   2.490  0.1505  0.0067 -0.0761
 4077W        W46990  27.848   5.812   7.660 -0.1417  0.0269 -0.1874
 4078W        W46991  26.664  29.596   4.873  0.0693 -0.5857 -0.1577
 4079W        W46992  13.190  12.969   7.667  0.0085  0.1017  0.2318
 4080W        W46993  15.440  28.448   9.329  0.0057 -0.1972  0.3204
 4081W        W46994   4.347  21.022  26.040 -0.0873  0.0970  0.2052
 4082W        W46995  17.457  18.953  22.933 -0.0752 -0.0840  0.3658
 4083W        W46996  26.136  15.561   7.656 -0.0637  0.0348  0.0019
 4084W        W46997  13.925  18.867   3.019 -0.0324  0.0174 -0.3793
 4085W        W46998  18.993  15.436  22.963 -0.3050 -0.1786  0.0081
 4086W        W46999  18.899  20.352   4.216  0.0419 -0.0270  0.2148
 4087W        W47000  13.222  10.211  28.160  0.1542 -0.1177 -0.3679
 4088W        W47001   6.332  23.353   4.717 -0.1071 -0.0166 -0.0715
 4089W        W47002  21.501  19.564   2.329  0.0400  0.1267  0.2678
 4090W        W47003  14.277  19.816   1.538 -0.0887 -0.2061  0.6219
 4091W        W47004  21.480  20.649   0.663 -0.2130  0.2175  0.0992
 4092W        W47005  18.571  10.261   0.957 -0.0636 -0.1079  0.1839
 4093W        W47006  10.118  28.479  11.657 -0.1604  0.2368  0.1076
 4094W        W47007  15.775  27.057  10.743 -0.1048  0.6012  0.0981
 4095W        W47008  19.186  17.612   1.974  0.0550  0.0573 -0.1097
 4096W        W47009  20.073  15.057   2.691  0.2936  0.1030 -0.0973
 4097W        W47010  16.013  25.335   1.770  0.1179 -0.0650 -0.0752
 4098W        W47011  27.255   8.311   0.445  0.2340  0.2423 -0.1472
 4099W        W47012  10.815  12.810   8.648 -0.0923  0.2614 -0.0936
 4100W        W47013  12.287  12.308   7.081 -0.0663 -0.2020 -0.0616
 4101W        W47014  27.332  34.152   3.239  0.2983  0.0993 -0.1460
 4102W        W47015  17.276  19.805   1.212  0.2047 -0.0597 -0.3028
 4103W        W47016   6.833  32.644  27.261  0.0612  0.1954  0.0317
 4104W        W47017  13.360  24.897  17.124 -0.0883 -0.0263  0.0899
 4105W        W47018  18.115  24.241   3.935 -0.1168 -0.2647 -0.1727
 4106W        W47019   0.302  26.189   4.710 -0.0890  0.1902  0.2035
 4107W        W47020  15.424  19.998   2.122  0.2458 -0.2587 -0.2497
 4108W        W47021   6.116  27.524   9.911 -0.0019 -0.1669  0.5092
 4109W        W47022  13.364  17.828   4.194  0.0015 -0.0827 -0.2472
 4110W        W47023  17.565  18.630  23.301 -0.0033  0.1344  0.0277
 4111W        W47024  21.183  10.031  27.109  0.0589  0.2222 -0.0683
 4112W        W47025   6.409   9.457   8.092 -0.2192  0.1646 -0.2029
 4113W        W47026  17.501  23.395   3.791  0.1637  0.2098 -0.2426
 4114W        W47027  19.030  24.013   7.142  0.1706 -0.0811  0.0443
 4115W        W47028   8.034  18.525   2.263  0.0826  0.4211 -0.1523
 4116W        W47029  10.993  10.421   0.994 -0.3839  0.2120 -0.2855
 4117W        W47030  20.461  27.491  22.308  0.1725  0.0425 -0.0905
 4118W        W47031  17.079  10.863   4.141  0.2223 -0.1970 -0.3755
 4119W        W47032  16.927  21.173  28.928 -0.2366 -0.0263 -0.5221
 4120W        W47033  20.819  17.593   0.134 -0.0375 -0.2125 -0.0517
 4121W        W47034  18.059  18.257  28.099  0.2908  0.1879  0.1333
 4122W        W47035  20.527  13.747   4.842 -0.0805 -0.3355  0.0331
 4123W        W47036   4.820  23.473   0.983  0.0595 -0.2042  0.2121
 4124W        W47037   8.400  27.673   5.153  0.1011  0.0002 -0.1454
 4125W        W47038  18.888  26.481  25.942 -0.1580  0.1144 -0.1959
 4126W        W47039  18.257  20.614  27.778  0.2762 -0.0067 -0.1884
 4127W        W47040  17.164   9.532   2.476  0.1346 -0.0980 -0.2456
 4128W        W47041  13.638  28.852   4.986 -0.0244 -0.0634  0.2131
 4129W        W47042  15.771  18.621  25.791 -0.0849 -0.0966 -0.2482
 4130W        W47043  21.763  27.127   2.298  0.2518 -0.0222  0.2700
 4131W        W47044   8.930  10.868   3.622 -0.2720 -0.1556  0.2234
 4132W        W47045  16.411  11.923   1.817 -0.2462 -0.4104  0.1435
 4133W        W47046  16.423  23.084   1.738  0.2769  0.1405  0.1735
 4134W        W47047  24.155  12.690   3.173  0.0343  0.3511 -0.1279
 4135W        W47048   0.473  11.598   9.500  0.0375  0.1490  0.1476
 4136W        W47049  15.036  21.243   5.974  0.1245 -0.0369 -0.1778
 4137W        W47050  28.508  10.123  20.858 -0.1100 -0.1015 -0.4608
 4138W        W47051  12.673  19.934  24.959 -0.0696 -0.0377  0.0711
 4139W        W47052  16.363  15.726   6.684  0.1218 -0.0595 -0.0223
 4140W        W47053  10.662  25.698   7.921 -0.0695  0.0905 -0.0150
 4141W        W47054  12.314  28.563   8.973  0.1046 -0.2666  0.1762
 4142W        W47055  13.721  30.085   9.019 -0.3114  0.0005 -0.1656
 4143W        W47056   8.885  11.788   9.630 -0.1662  0.3810 -0.0290
 4144W        W47057  17.771  33.094   2.403  0.2554  0.0911  0.0177
 4145W        W47058  14.137  22.688   2.999 -0.4896  0.1133 -0.1156
 4146W        W47059  14.185   9.332  24.578  0.0951 -0.1298  0.0129
 4147W        W47060  18.010  18.812  27.807 -0.0931 -0.0908 -0.0559
 4148W        W47061  15.874  14.271   6.101 -0.4005  0.1197 -0.0232
 4149W        W47062   7.440  19.595   6.525 -0.1834  0.0352 -0.3217
 4150W        W47063  17.048  30.097   8.276  0.1988  0.2840  0.1151
 4151W        W47064  26.169  20.721   8.110  0.0715  0.1985 -0.0801
 4152W        W47065   7.879  14.437   2.285 -0.0680 -0.2191  0.2174
 4153W        W47066  23.063  22.350   2.468 -0.0271  0.1340 -0.0350
 4154W        W47067  10.327  13.082   0.723  0.1729  0.1635  0.5355
 4155W        W47068   5.895  13.319  11.102 -0.0550 -0.0025  0.2662
 4156W        W47069   6.966  22.706   5.459 -0.2269  0.0690 -0.0502
 4157W        W47070  16.026  15.482  28.100  0.1580  0.1155 -0.0587
 4158W        W47071  12.910  16.630   0.692  0.2376 -0.1355  0.0141
 4159W        W47072  17.981  17.279   6.486  0.2444 -0.1155 -0.0228
 4160W        W47073  16.844  22.550   7.175  0.0584  0.3068  0.0592
 4161W        W47074  13.358  31.299   7.505 -0.2370 -0.1931  0.0908
 4162W        W47075  14.997  26.736  23.508 -0.0802 -0.1445  0.4197
 4163W        W47076  14.403   6.962   6.160 -0.0220 -0.0625 -0.1411
 4164W        W47077  24.573  19.669   5.334  0.0387 -0.4751 -0.0942
 4165W        W47078  12.453  14.899  19.344 -0.0667  0.0012 -0.0077
 4166W        W47079   7.826  19.734   3.600 -0.1794 -0.0468  0.1716
 4167W        W47080  18.447   2.904   3.666 -0.6520  0.0569  0.4534
 4168W        W47081  10.431  28.853   3.884 -0.0925  0.0645 -0.0967
 4169W        W47082  26.339  25.016   4.041  0.0050  0.1148  0.4479
 4170W        W47083   8.148  10.242  27.366 -0.0304  0.0980 -0.1795
 4171W        W47084   5.325  18.158   7.993 -0.0837 -0.2615 -0.2252
 4172W        W47085  16.537   7.424   0.011 -0.1210 -0.1675 -0.0400
 4173W        W47086   8.897  15.435   0.289 -0.1174  0.2959 -0.0281
 4174W        W47087  12.125  16.747   3.213 -0.0075  0.1572 -0.0724
 4175W        W47088  16.784  17.521   3.849  0.1593 -0.3133  0.0798
 4176W        W47089  13.307  25.174   9.469 -0.3054 -0.0977 -0.2396
 4177W        W47090   3.659  22.938   4.972 -0.1190  0.2549 -0.3680
 4178W        W47091  22.035  21.301   4.358  0.0940 -0.0523  0.1020
 4179W        W47092  18.354  30.327   4.901  0.3687  0.1036 -0.0425
 4180W        W47093  20.697  15.142   7.028 -0.1460 -0.4722  0.0255
 4181W        W47094  17.560  21.441   8.315  0.2256 -0.1533  0.1250
 4182W        W47095   1.309  21.179  29.539  0.2584  0.0851 -0.0183
 4183W        W47096  29.051  25.042   3.352  0.0064  0.0059 -0.0454
 4184W        W47097   6.471  13.511   8.394  0.1579 -0.0864  0.0042
 4185W        W47098  10.466  16.241   2.494  0.1119  0.0081 -0.3297
 4186W        W47099   6.709  25.771   4.432 -0.0299  0.0929 -0.0323
 4187W        W47100  15.443  25.970   6.886  0.0008  0.1268  0.1253
 4188W        W47101  16.289  18.424  22.143 -0.1902  0.0661 -0.1137
 4189W        W47102  17.326  15.703   6.731  0.2231 -0.1162 -0.2489
 4190W        W47103  20.701  14.448   7.748 -0.1419  0.2213 -0.1707
 4191W        W47104  19.590  22.246  27.793 -0.0125  0.5182 -0.0585
 4192W        W47105  13.910  13.774   7.389 -0.1598  0.2800 -0.1635
 4193W        W47106  13.068   6.891   4.767 -0.0578  0.0899  0.1695
 4194W        W47107  13.319  27.309   5.838  0.1721 -0.0587 -0.0094
 4195W        W47108  16.907  12.126   5.299 -0.1967 -0.3626  0.3374
 4196W        W47109  12.002  14.590   0.926  0.2848  0.1728 -0.2409
 4197W        W47110  10.882  24.002   7.097  0.1787  0.3981  0.2088
 4198W        W47111  10.840   8.207   3.839  0.2740  0.2010  0.7348
 4199W        W47112  21.383  24.635  26.398 -0.1294  0.0921  0.0716
 4200W        W47113  12.785  13.152   8.959  0.1974 -0.1885 -0.3285
 4201W        W47114  13.338  22.281   7.974  0.0575 -0.0103 -0.2798
 4202W        W47115  13.565   8.261   6.784  0.1653  0.3288 -0.0531
 4203W        W47116  17.939  22.581   5.007 -0.1077 -0.3158  0.1526
 4204W        W47117  11.769  17.817   7.264 -0.1667 -0.0323  0.1494
 4205W        W47118  16.016  15.721   4.640 -0.0751  0.3882  0.1017
 4206W        W47119  20.124  25.552  26.134 -0.1200 -0.2184  0.0240
 4207W        W47120  20.816  15.320  21.466  0.0770  0.0275 -0.1926
 4208W        W47121  13.850  22.965  26.101  0.0952 -0.1144 -0.3064
 4209W        W47122  20.511  18.413   3.257  0.1587 -0.2263 -0.2046
 4210W        W47123  13.987  19.087   9.110  0.0371 -0.1760  0.0656
 4211W        W47124  17.189  29.603   9.456  0.0808  0.0311  0.1804
 4212W        W47125   7.881  31.379   3.290 -0.1755  0.1595  0.0772
 4213W        W47126  15.850  17.957   1.326 -0.1082  0.1773 -0.2311
 4214W        W47127  11.295  18.965  16.792 -0.2659  0.0291  0.1835
 4215W        W47128  18.691  26.908   2.897 -0.0018  0.0421 -0.1188
 4216W        W47129  17.309  18.072   5.615 -0.1984 -0.1442  0.0786
 4217W        W47130  25.087  15.863   5.669  0.3297 -0.0468  0.0568
 4218W        W47131  11.641  19.052  29.014 -0.2381  0.0037 -0.1910
 4219W        W47132  19.986  11.150   3.587 -0.0458  0.0301  0.3603
 4220W        W47133  12.240  25.575   7.566  0.2445 -0.0373 -0.2014
 4221W        W47134  18.547  26.426   8.872  0.0069  0.0511 -0.1102
 4222W        W47135  25.935  18.889  26.039 -0.0573  0.0074  0.0674
 4223W        W47136   4.402  11.475  23.264  0.0567  0.1537  0.2459
 4224W        W47137  19.605  17.096   1.777 -0.0940  0.6147  0.0826
 4225W        W47138  16.480  28.157   1.265  0.3514 -0.1215 -0.1684
 4226W        W47139  17.809  30.536  10.498 -0.3089  0.0341 -0.2733
 4227W        W47140  31.734  18.172   9.479 -0.0121  0.1687  0.0481
 4228W        W47141  13.162  22.145   6.176 -0.1832  0.0207  0.0510
 4229W        W47142  17.933  29.538  10.677  0.3718  0.5528 -0.2883
 4230W        W47143  11.394  19.036  22.076 -0.0877 -0.0083  0.1861
 4231W        W47144  10.177  27.226   4.860  0.0706  0.2093  0.0436
 4232W        W47145  16.976  18.544   6.677 -0.0317  0.2211 -0.3831
 4233W        W47146  21.829  18.008   8.023 -0.3277 -0.0426  0.0418
 4234W        W47147  13.463  18.314  28.236  0.1762  0.2821 -0.2535
 4235W        W47148   7.555  22.203   3.529  0.1194 -0.2855  0.5626
 4236W        W47149  19.963  22.939   6.422  0.0389 -0.0636 -0.2308
 4237W        W47150  12.464  15.675   1.684 -0.0121  0.1333 -0.0025
 4238W        W47151  14.647  20.469   7.909  0.1339  0.1357 -0.0288
 4239W        W47152  11.732  20.402   9.317 -0.1767  0.0661 -0.0567
 4240W        W47153  21.614  23.108   7.324 -0.1933  0.1562  0.0039
 4241W        W47154   9.476  17.684   7.553 -0.2356 -0.0523  0.0457
 4242W        W47155  25.557  15.650   2.838 -0.1463 -0.1613  0.1919
 4243W        W47156  24.652  22.027   2.262 -0.1633 -0.1131  0.3190
 4244W        W47157  20.166  21.262   7.302  0.2602  0.0869 -0.1330
 4245W        W47158  17.027  13.593   4.507 -0.1275 -0.1216  0.2272
 4246W        W47159   7.457  30.775   7.577 -0.0055  0.1282 -0.2268
 4247W        W47160  18.225  15.533   1.133  0.0040  0.0281  0.0567
 4248W        W47161  10.781  25.176   6.549  0.2867  0.0893 -0.1350
 4249W        W47162  27.378  25.045   3.652  0.1422  0.0698 -0.4556
 4250W        W47163  17.947  23.394   3.504  0.3901 -0.1498 -0.0593
 4251W        W47164  16.413  22.004  18.176  0.1313 -0.4868 -0.0695
 4252W        W47165  12.966  17.814  24.057 -0.2090  0.0019 -0.3580
 4253W        W47166  16.003  11.820   7.685 -0.0087  0.3158  0.1077
 4254W        W47167   7.813  25.387   9.175 -0.0930  0.0158 -0.0952
 4255W        W47168  20.747   8.282   1.724 -0.3961  0.1645  0.2075
 4256W        W47169  14.733  22.861   7.568 -0.0413 -0.0322 -0.0716
 4257W        W47170  15.707  18.720   7.120  0.1220 -0.0485  0.1223
 4258W        W47171  13.074  26.598   0.634  0.0756  0.0589 -0.2369
 4259W        W47172   4.410  21.428   2.788 -0.2690  0.0802 -0.0530
 4260W        W47173  18.756  10.606   1.308  0.0181 -0.1496 -0.1837
 4261W        W47174  16.456  23.206   5.612 -0.3240 -0.2023 -0.2016
 4262W        W47175  14.858  28.099   6.521  0.1897  0.1629 -0.1251
 4263W        W47176   9.570  20.170  24.212 -0.0378 -0.0055  0.1488
 4264W        W47177  24.809   7.131  22.521 -0.0854 -0.0866  0.1974
 4265W        W47178  24.964  14.688   2.283  0.3774  0.3358 -0.1966
 4266W        W47179  17.599  16.480  26.959 -0.2274  0.0846 -0.0923
 4267W        W47180  15.010  22.306   3.328 -0.0147  0.0844  0.0938
 4268W        W47181  20.951  21.687   5.564  0.1054  0.0158 -0.0694
 4269W        W47182  15.127  15.553   8.165  0.0253 -0.0324  0.1620
 4270W        W47183   3.529  15.594   8.484  0.2356  0.0451 -0.2279
 4271W        W47184  17.063  18.691   5.940  0.3663 -0.1972 -0.0767
 4272W        W47185  21.730  22.330   8.577 -0.0569 -0.0012 -0.1945
 4273W        W47186  20.457  11.430   7.689 -0.1588  0.1912  0.1099
 4274W        W47187  15.518  20.390  23.800 -0.0364 -0.3185  0.1691
 4275W        W47188  12.903  23.953   1.011  0.0591 -0.1590  0.2051
 4276W        W47189  20.553  31.422   6.224  0.2008  0.5815 -0.2416
 4277W        W47190  26.903  22.607   7.911  0.3033 -0.2885  0.1237
 4278W        W47191   7.634  23.828   2.400  0.0275  0.1192  0.2975
 4279W        W47192  15.669  17.627  28.399 -0.3118  0.0192  0.0598
 4280W        W47193  19.844  22.364   7.643  0.2332  0.0771  0.1188
 4281W        W47194  10.119  25.157   3.451  0.3293 -0.1778  0.0383
 4282W        W47195  14.672  32.166   9.087 -0.2370 -0.0389  0.0632
 4283W        W47196  20.252  20.855   6.335 -0.2023  0.0479  0.0481
 4284W        W47197  13.981  17.651   1.664 -0.2386  0.0864 -0.2188
 4285W        W47198  24.071  18.461   3.708 -0.0857  0.0111  0.1380
 4286W        W47199   9.990  20.766   6.417 -0.0333 -0.1145 -0.1044
 4287W        W47200   5.768  22.473   6.352 -0.1687  0.1733 -0.2331
 4288W        W47201   7.682  20.559   7.503  0.0077  0.2715 -0.1269
 4289W        W47202  14.123  18.363  28.590  0.1192 -0.2489 -0.4137
 4290W        W47203  16.879  22.751   8.594 -0.1249 -0.1523 -0.0376
 4291W        W47204  17.932  17.414  25.222  0.0253  0.3127 -0.2036
 4292W        W47205  16.496  19.739   2.330  0.2155  0.1131  0.1995
 4293W        W47206  26.855  20.768   2.863 -0.3783 -0.1627  0.1535
 4294W        W47207  20.019  16.808   6.964 -0.0095  0.1093 -0.0646
 4295W        W47208  18.722  21.644   7.448 -0.1912 -0.0477 -0.3509
 4296W        W47209   4.749  12.085   9.619 -0.0025  0.3978 -0.0218
 4297W        W47210  11.850  15.536   5.743 -0.1013  0.0126  0.3048
 4298W        W47211  19.524  20.447   5.468 -0.0388  0.0272  0.2407
 4299W        W47212  17.002  19.654   0.816  0.1124 -0.6054  0.1286
 4300W        W47213  30.237  19.665   6.656  0.2427 -0.0978  0.1261
 4301W        W47214  29.543  14.978   3.662 -0.1271 -0.5642 -0.1176
 4302W        W47215  13.635   6.074   1.596 -0.1572  0.1038 -0.0879
 4303W        W47216  12.559  27.735   4.097  0.1675  0.3569  0.2127
 4304W        W47217  12.323  19.585   6.661 -0.2882  0.3736 -0.0020
 4305W        W47218  15.302  13.174  22.688 -0.1223 -0.1313 -0.1679
 4306W        W47219  20.702  21.253   5.614  0.0712  0.1056 -0.1464
 4307W        W47220  15.411  13.023   4.835  0.0800 -0.1317 -0.2079
 4308W        W47221  16.050  16.049   0.917 -0.3025 -0.1679 -0.1051
 4309W        W47222  23.853  16.410   1.979 -0.1254  0.0736  0.1875
 4310W        W47223  25.369  13.955   4.748 -0.1646  0.0580 -0.1699
 4311W        W47224  17.961  16.805   7.540 -0.2483  0.0380 -0.0299
 4312W        W47225   4.011   9.043   9.449 -0.2290  0.1349  0.1054
 4313W        W47226  21.269   1.024   7.357  0.0498  0.0559  0.0988
 4314W        W47227  12.100  15.929   1.468 -0.1873  0.2664  0.0933
 4315W        W47228   8.387  11.493   1.384 -0.0212  0.0042 -0.1358
 4316W        W47229  19.043  27.054   9.207 -0.2111  0.1239 -0.0239
 4317W        W47230  14.815  23.540   9.685  0.2761  0.2111  0.3602
 4318W        W47231  11.316  32.195   8.235 -0.0973  0.1803  0.1809
 4319W        W47232  23.154  19.221   7.834 -0.0251 -0.3524 -0.0341
 4320W        W47233  16.525  16.409   1.619 -0.1340  0.2337 -0.0277
 4321W        W47234  22.151  18.441   8.015 -0.4827  0.2071  0.1527
 4322W        W47235  10.725  10.301   5.235 -0.1946  0.2807  0.0810
 4323W        W47236  20.244  20.007   5.977 -0.1059 -0.3298  0.0951
 4324W        W47237  19.772  21.094  22.583 -0.0149  0.1584  0.3381
 4325W        W47238  17.614  20.412   3.769 -0.2641 -0.2675  0.3507
 4326W        W47239  26.345  29.835   7.448  0.2936  0.1722  0.3086
 4327W        W47240   6.932  18.455   7.191 -0.0110  0.3481  0.0261
 4328W        W47241  12.724  20.966   0.351  0.0236 -0.1858  0.0867
 4329W        W47242  15.684  20.916  24.773  0.4329  0.0948 -0.1950
 4330W        W47243  23.863  19.650   3.634 -0.3369  0.0739 -0.3317
 4331W        W47244   9.714  18.857   5.862  0.0747  0.0926 -0.0850
 4332W        W47245  10.982  26.260   2.495 -0.1772 -0.2343  0.2670
 4333W        W47246   5.988  27.736   5.833  0.0772  0.1555 -0.2416
 4334W        W47247  11.706  17.851   8.917 -0.2193 -0.1093 -0.4383
 4335W        W47248  11.531  32.527   5.708 -0.2110  0.2851  0.2601
 4336W        W47249  15.699  10.205   5.081 -0.0069  0.1142 -0.2257
 4337W        W47250  17.831  19.642   2.078  0.2789  0.1234 -0.0295
 4338W        W47251  18.610   9.978   4.173 -0.1566 -0.0126  0.1273
 4339W        W47252  18.691  16.636  21.377  0.1267 -0.2612  0.1855
 4340W        W47253  21.157  20.594   3.392 -0.1233 -0.1493 -0.0960
 4341W        W47254  20.139  29.021   9.068  0.0746  0.1064  0.0968
 4342W        W47255  18.572  10.572   5.859 -0.0182  0.0053  0.1190
 4343W        W47256  25.509  14.140   6.396 -0.2330  0.4659  0.1834
 4344W        W47257  12.335  23.312   7.049  0.1869  0.1972 -0.2742
 4345W        W47258  18.667  21.061   6.547 -0.0538 -0.0101 -0.1182
 4346W        W47259  13.623  17.506   3.893 -0.0701 -0.2478 -0.1165
 4347W        W47260  13.078  16.303  22.079 -0.3363 -0.2639  0.1605
 4348W        W47261  13.403  16.730   7.619 -0.1243  0.1162 -0.1753
 4349W        W47262   9.100  25.789   5.293 -0.3474 -0.2712  0.2270
 4350W        W47263  19.108  34.007   1.455  0.2729 -0.3351 -0.0030
 4351W        W47264  15.928  21.887   7.241 -0.1185 -0.0377  0.2792
 4352W        W47265   0.531  31.224   2.424 -0.0540 -0.0826  0.2457
 4353W        W47266  16.555  15.860   6.229 -0.1401  0.2832 -0.1736
 4354W        W47267  15.329  14.641   5.173  0.0057 -0.1074 -0.1893
 4355W        W47268  14.100  18.159   6.593 -0.0011 -0.1833  0.0071
 4356W        W47269  23.213  21.678   4.025 -0.1591  0.2003 -0.0331
 4357W        W47270  15.753  22.082  28.245 -0.2296 -0.0137  0.1463
 4358W        W47271  17.648  22.209   5.208  0.2420 -0.2313  0.1412
 4359W        W47272  19.164  11.830  19.743 -0.2895 -0.1686 -0.0862
 4360W        W47273  13.169  10.410   2.244 -0.0186  0.0816 -0.3926
 4361W        W47274  12.527  21.707   6.554  0.0193 -0.2748  0.3634
 4362W        W47275  12.905   4.287   3.668 -0.3169  0.0653  0.2617
 4363W        W47276  13.365  12.626   4.202  0.2923 -0.1952  0.1811
 4364W        W47277  15.285   3.862   2.150  0.0697  0.2137  0.1504
 4365W        W47278  13.012  24.005   7.911 -0.1953 -0.1377 -0.1148
 4366W        W47279  15.686  26.292   6.550 -0.2616 -0.3513 -0.1947
 4367W        W47280  15.594  28.851   8.222  0.0805  0.0353 -0.3831
 4368W        W47281  13.387  18.342   4.359 -0.0729  0.1958 -0.0347
 4369W        W47282   6.076  24.019   5.385  0.1639  0.1996  0.1454
 4370W        W47283   6.873  11.371  29.369  0.0773  0.1266 -0.0970
 4371W        W47284  23.549  13.775   1.122 -0.0064  0.1324  0.1515
 4372W        W47285  25.486  14.766  28.319 -0.0223 -0.1369 -0.0203
 4373W        W47286  14.877  24.841   8.499  0.0574 -0.1160  0.1058
 4374W        W47287  17.078  12.380  29.292  0.1882 -0.0070  0.0256
 4375W        W47288  28.190  21.542   0.951  0.2628 -0.0991  0.3243
 4376W        W47289   5.588   9.840  28.285 -0.0818  0.0837 -0.2935
 4377W        W47290   6.611   8.662  24.305  0.3070 -0.1274 -0.2358
 4378W        W47291  15.059  29.906   5.762  0.0541 -0.0331 -0.1178
 4379W        W47292   5.255  31.292   7.077  0.1507  0.1885  0.1311
 4380W        W47293  18.536  22.775  12.111  0.2003  0.5574 -0.0485
 4381W        W47294  11.606  16.978  25.299 -0.2402 -0.1831 -0.3351
 4382W        W47295  18.803  20.148  23.852 -0.2258 -0.3425  0.1385
 4383W        W47296  26.554  11.012   5.960  0.0404  0.0220  0.1742
 4384W        W47297  14.406  17.705   6.936 -0.3377 -0.3865  0.1555
 4385W        W47298  17.162  20.648   3.535  0.0911  0.0784 -0.0325
 4386W        W47299   4.566   4.794  28.731 -0.0104 -0.2361  0.1286
 4387W        W47300  20.114  20.531   4.709  0.2845  0.1393 -0.3383
 4388W        W47301   6.602  21.861   3.016  0.0019  0.0043  0.0415
 4389W        W47302   8.532   9.322  27.716  0.1115 -0.1377 -0.2167
 4390W        W47303  24.000  16.750   8.784 -0.2222 -0.2539  0.1158
 4391W        W47304  11.635  19.459   8.359 -0.0454  0.0953  0.0266
 4392W        W47305  18.383  16.148  27.040 -0.0358  0.0028  0.1721
 4393W        W47306  30.143  15.787   8.650  0.0584 -0.1363  0.0244
 4394W        W47307  14.486  29.904   6.938  0.1475 -0.1242  0.0995
 4395W        W47308  24.003  14.030   1.913 -0.1032  0.0140 -0.0316
 4396W        W47309  20.603  11.663   0.386 -0.0100 -0.0987  0.4392
 4397W        W47310  14.627  19.600   8.794  0.1458  0.1666  0.0185
 4398W        W47311  18.787  29.493   5.364  0.0505 -0.1817  0.0354
 4399W        W47312  12.165  19.536   7.756 -0.0820 -0.1078 -0.1257
 4400W        W47313  16.308  14.792   2.992 -0.0741 -0.1154  0.1012
 4401W        W47314  12.347  15.076   8.950  0.0534 -0.1034  0.1191
 4402W        W47315   9.764  31.985   2.615 -0.0252 -0.0783  0.1838
 4403W        W47316  25.855  23.152   4.868  0.3860  0.1716 -0.0165
 4404W        W47317  20.034  24.925   7.921  0.0396  0.1949  0.1173
 4405W        W47318   2.842  14.241   1.204  0.3286  0.0518  0.0050
 4406W        W47319  15.832  12.827   2.881  0.3367 -0.2400  0.0157
 4407W        W47320   4.821  16.650   0.117  0.1158  0.1656 -0.2908
 4408W        W47321  13.444   7.718   1.696  0.0116 -0.0685  0.0911
 4409W        W47322  11.561  20.249   4.229  0.3082 -0.1059  0.2033
 4410W        W47323   6.105  23.015   9.532 -0.1553  0.1718  0.0576
 4411W        W47324  21.216  14.745  26.312  0.2561  0.0582 -0.1155
 4412W        W47325   8.699  18.016   2.149 -0.4350  0.0526 -0.2123
 4413W        W47326  23.308  21.017   2.742 -0.0008 -0.0167 -0.1025
 4414W        W47327  30.845  26.574   9.874  0.2656  0.1568  0.2123
 4415W        W47328  23.203  23.817   4.614  0.4424 -0.1513  0.2647
 4416W        W47329   5.171  18.894  28.296 -0.0335  0.2539  0.0315
 4417W        W47330  20.369  17.662   5.771  0.0083 -0.0622 -0.3892
 4418W        W47331  13.427  16.274   7.879  0.3263 -0.3386 -0.0095
 4419W        W47332  20.663  16.327   6.838 -0.0464 -0.0131  0.0835
 4420W        W47333  14.184  15.167   8.003 -0.0395  0.0512  0.2047
 4421W        W47334  19.432  23.172   5.022  0.0608  0.1031  0.1623
 4422W        W47335  11.043  24.729   7.538  0.0101 -0.4401  0.1465
 4423W        W47336  15.312  33.647   8.791  0.0873  0.2615  0.0774
 4424W        W47337  13.451  19.604   9.226  0.1080  0.0687  0.0389
 4425W        W47338  28.576  16.015   5.263  0.0503 -0.1125  0.4052
 4426W        W47339  17.219  17.506   4.116  0.0821 -0.2454 -0.4392
 4427W        W47340  17.563  17.597   7.296  0.0524  0.0232 -0.0025
 4428W        W47341  14.240  32.070   7.467 -0.0644 -0.2298  0.1162
 4429W        W47342  18.006  18.835   6.798 -0.2356 -0.1033 -0.4540
 4430W        W47343  18.097  19.701  27.715 -0.2293  0.1870  0.1802
 4431W        W47344  10.698  27.241   5.006 -0.0159  0.0388  0.0372
 4432W        W47345  19.398  17.335   6.334  0.2065 -0.3187  0.4323
 4433W        W47346  26.229  21.470  27.785  0.1266  0.1831 -0.0587
 4434W        W47347  14.682  23.344   4.754 -0.1566  0.0649  0.2474
 4435W        W47348  16.292  23.081   6.483  0.0826  0.2657 -0.4498
 4436W        W47349  12.397  23.252   8.450 -0.0359 -0.1001  0.1736
 4437W        W47350   6.655  23.306   8.299 -0.2422  0.2385  0.0985
 4438W        W47351  19.539  15.693   4.649  0.2289  0.0384  0.4189
 4439W        W47352  14.100  23.888  27.602 -0.2089  0.0715 -0.1169
 4440W        W47353  17.128  21.248   3.650 -0.0946  0.0705  0.0198
 4441W        W47354  25.501  31.318   8.459 -0.4619 -0.2611  0.0970
 4442W        W47355  29.348  24.736   3.103  0.1879 -0.0764  0.3038
 4443W        W47356  16.505  18.063  24.934 -0.1163  0.0192 -0.1026
 4444W        W47357  10.537  24.819   7.457  0.1306  0.0784  0.1253
 4445W        W47358  10.189  28.413   9.708  0.1585 -0.1662 -0.0960
 4446W        W47359  18.534  31.910   9.029  0.1270 -0.0747  0.0029
 4447W        W47360  15.293  22.278   7.213 -0.0652 -0.1684  0.3035
 4448W        W47361   1.536  13.317   3.482  0.0012 -0.0901 -0.2462
 4449W        W47362  17.895  23.525   4.029  0.1621  0.3429 -0.1800
 4450W        W47363  13.166  27.503   7.261  0.0907 -0.3766  0.1803
 4451W        W47364  20.372  27.843   3.887 -0.1362  0.0430 -0.1290
 4452W        W47365  16.894  25.729   5.996 -0.1437 -0.1830  0.1240
 4453W        W47366  24.687  21.676   6.838  0.0563 -0.1243  0.0281
 4454W        W47367  15.805  25.194   4.866 -0.2540 -0.2525 -0.1633
 4455W        W47368  12.266  15.198   0.876 -0.1509  0.3372 -0.2892
 4456W        W47369  13.181  34.225   9.036 -0.3017  0.0887 -0.0964
 4457W        W47370   8.437  20.493   4.858 -0.0092  0.1093  0.2436
 4458W        W47371  14.727  19.105  21.134 -0.1199  0.0754  0.1254
 4459W        W47372  21.936  17.604   5.837 -0.3121  0.0671  0.0165
 4460W        W47373  22.416  11.932   5.561 -0.0215  0.1722  0.1609
 4461W        W47374  14.868  11.503   3.489 -0.1913 -0.2514 -0.0011
 4462W        W47375   8.756   3.467   5.118 -0.0473 -0.4052  0.0668
 4463W        W47376  23.660  26.310   1.532  0.0213 -0.2227  0.0042
 4464W        W47377  18.376  17.593   7.831  0.0878  0.1069  0.1778
 4465W        W47378  15.586  23.338   5.148 -0.0974  0.0753 -0.1386
 4466W        W47379  19.421  16.707  25.478 -0.4067  0.0915 -0.0594
 4467W        W47380  14.955  17.260   6.800 -0.1483 -0.2682  0.0610
 4468W        W47381   8.346  26.428   6.436  0.2289 -0.0268 -0.2643
 4469W        W47382  16.883  23.490   4.883  0.2416  0.2159 -0.1821
 4470W        W47383  18.610  15.385   2.658 -0.0694 -0.0514 -0.5805
 4471W        W47384  29.367  13.958   8.287  0.1528 -0.3941  0.1013
 4472W        W47385  12.783  17.342   3.629 -0.1273  0.0057  0.0878
 4473W        W47386  16.222  24.304   8.660  0.0571 -0.1383  0.3356
 4474W        W47387  12.373   4.677   6.746  0.1145 -0.2378  0.2009
 4475W        W47388  25.416  27.061   6.012  0.2309  0.1144  0.3249
 4476W        W47389  16.288  27.971   1.657 -0.2973 -0.3917 -0.1399
 4477W        W47390  23.779  18.744   3.364 -0.1462  0.3193 -0.0466
 4478W        W47391  12.586  30.183  29.130  0.1567 -0.3783  0.0867
 4479W        W47392  15.263  20.719  25.128 -0.2894 -0.1305 -0.0399
 4480W        W47393  12.626   2.253  29.036 -0.1120 -0.1015 -0.0195
 4481W        W47394  17.598  23.347   7.457  0.0155  0.0957 -0.2941
 4482W        W47395  16.391  17.765   8.108  0.2077  0.0650  0.1401
 4483W        W47396  18.143  22.910   1.760  0.0662  0.1176 -0.0123
 4484W        W47397  19.445  17.546  28.717  0.1021 -0.2912 -0.0000
 4485W        W47398  18.507  19.112  28.254  0.0755  0.0468  0.2228
 4486W        W47399  11.047  24.066   4.827 -0.0730  0.0307  0.1900
 4487W        W47400  20.469  18.994   6.647  0.1394  0.0731 -0.0859
 4488W        W47401  27.700  18.913   5.492 -0.4988  0.0590  0.2736
 4489W        W47402  24.488  26.607   8.297 -0.0257 -0.2853 -0.0897
 4490W        W47403   6.590  20.887   6.734 -0.0408  0.1518 -0.2459
 4491W        W47404  23.922  15.505   7.708  0.2217  0.1256  0.2265
 4492W        W47405  26.694  18.982   0.045  0.0913 -0.0713 -0.2275
 4493W        W47406   9.645  15.293   6.580  0.0306 -0.0700 -0.3672
 4494W        W47407  11.365  17.835   2.758 -0.0656  0.1693 -0.0312
 4495W        W47408  13.585  17.964   8.989  0.1584 -0.0924 -0.0338
 4496W        W47409   1.800  23.057   3.196 -0.1213  0.0356 -0.0677
 4497W        W47410  19.505   7.453   5.172  0.0582 -0.3538  0.1935
 4498W        W47411   8.310  19.789   3.524 -0.0842 -0.1694  0.1714
 4499W        W47412  18.268  11.898   7.128  0.0377  0.0416  0.3916
 4500W        W47413  24.052  18.775   7.365 -0.1024  0.1216  0.3388
 4501W        W47414   4.381  23.397   9.664 -0.2763 -0.0038 -0.0960
 4502W        W47415  24.977  30.106   8.043  0.0456 -0.0079  0.2933
 4503W        W47416   8.083   5.722   8.487  0.5151  0.1935  0.3780
 4504W        W47417  13.055  10.117   8.943  0.0481 -0.2253 -0.2592
 4505W        W47418  16.604  17.127   4.170  0.0870 -0.2514  0.1464
 4506W        W47419  18.091  14.774   3.291 -0.2599 -0.0553  0.0477
 4507W        W47420  11.854  19.552   0.681 -0.1870  0.0684 -0.0160
 4508W        W47421  19.049  21.294   4.501 -0.4287  0.0267  0.0801
 4509W        W47422  16.628  24.150   0.602  0.1243 -0.1350 -0.1795
 4510W        W47423  21.292  23.002   7.688  0.3431  0.1746 -0.0868
 4511W        W47424   5.890   6.376   8.252 -0.1533  0.1777  0.1404
 4512W        W47425  27.064  17.808   1.704 -0.0124 -0.4504  0.1179
 4513W        W47426  20.879  15.283  28.866 -0.0989  0.0993 -0.0007
 4514W        W47427  14.686  27.851  27.775 -0.0735  0.1091  0.4576
 4515W        W47428  15.420  24.954   8.190 -0.1891  0.0824  0.0054
 4516W        W47429   5.712  29.167   2.747  0.0847  0.0375 -0.0312
 4517W        W47430  25.026  11.255   0.174  0.0843 -0.1130  0.2324
 4518W        W47431  20.011  28.905   3.167  0.0103 -0.0900 -0.2115
 4519W        W47432  16.679  31.955   1.464 -0.2183 -0.1086 -0.0077
 4520W        W47433  19.760  20.375   5.048 -0.0493 -0.2915  0.0126
 4521W        W47434   8.500  18.901   8.561  0.1824  0.1013 -0.1974
 4522W        W47435  20.034   7.987  28.876  0.0298  0.2590  0.0754
 4523W        W47436  17.359  34.179   7.914 -0.1876  0.0541 -0.0742
 4524W        W47437  10.413  29.994   2.946 -0.3533 -0.0371  0.0529
 4525W        W47438  23.199  27.296   4.215  0.0226 -0.0899 -0.2000
 4526W        W47439  13.618  11.954   5.509  0.1076 -0.0863  0.0611
 4527W        W47440  12.811  27.438   6.865 -0.1958  0.2121 -0.0365
 4528W        W47441  13.145  24.843   1.324  0.2461  0.2785 -0.1155
 4529W        W47442  18.456  16.763  29.462 -0.1416  0.1653  0.0901
 4530W        W47443  28.011  17.548   4.080  0.1901 -0.0994  0.0966
 4531W        W47444  10.350  12.757   7.951 -0.1237 -0.0038  0.1818
 4532W        W47445  19.752  18.552  29.349  0.0762  0.1296 -0.0393
 4533W        W47446  14.667  29.171   6.483  0.1627  0.1609 -0.4491
 4534W        W47447  21.059   8.187   4.224 -0.4189  0.0894  0.3034
 4535W        W47448  11.195  17.334   1.938 -0.4163  0.1305  0.3001
 4536W        W47449  14.404  14.870   8.481 -0.0392  0.0464  0.0120
 4537W        W47450  13.588  17.016   8.681 -0.0705 -0.0401 -0.1957
 4538W        W47451  19.742  20.855   4.676  0.2138  0.0918 -0.1037
 4539W        W47452   9.529   7.083  10.213 -0.1147 -0.1119 -0.1368
 4540W        W47453  10.590  25.659   5.989 -0.1034 -0.0183 -0.1596
 4541W        W47454  12.654   3.154   5.608  0.0089  0.1489  0.0257
 4542W        W47455  10.257  21.044   7.290  0.0977  0.0464  0.0879
 4543W        W47456   9.375  20.950   7.798  0.0202  0.0124 -0.1872
 4544W        W47457   6.705   7.400   7.183 -0.0697 -0.2568 -0.0340
 4545W        W47458  28.972  15.879   2.469 -0.0610 -0.0297  0.2015
 4546W        W47459  25.991  31.083   0.957  0.3248  0.0694  0.3900
 4547W        W47460  18.948  29.794   0.280  0.0690 -0.1896 -0.1103
 4548W        W47461   1.754  16.521   3.144  0.0305  0.0545  0.0135
 4549W        W47462  24.389  20.838   4.591 -0.2296 -0.0348  0.2317
 4550W        W47463  20.100  29.137   4.249 -0.1166 -0.1049 -0.1409
 4551W        W47464  12.250   5.418  29.683 -0.2069  0.1327  0.2761
 4552W        W47465  11.207  17.620   8.087  0.0276 -0.0434 -0.0264
 4553W        W47466  12.383   3.901  10.537 -0.0045  0.3471  0.3209
 4554W        W47467  17.614  19.741  22.120  0.0489 -0.2523 -0.0081
 4555W        W47468  14.525  23.769   2.062 -0.0498  0.1010 -0.1721
 4556W        W47469  13.222  11.877   5.827 -0.0968 -0.1309  0.1274
 4557W        W47470  17.443  19.182   6.969 -0.4966  0.2733  0.0655
 4558W        W47471  17.310  11.267   2.625 -0.1688  0.1738  0.3769
 4559W        W47472  22.375  17.033   6.426 -0.1022  0.1296  0.0153
 4560W        W47473  15.403  17.887   6.049  0.3472 -0.0532 -0.0290
 4561W        W47474  23.616  16.500   8.615  0.1193 -0.0593  0.1784
 4562W        W47475  29.829  28.477   8.054 -0.0347  0.0183 -0.2787
 4563W        W47476  14.377  20.788  28.177  0.1364 -0.2847 -0.3305
 4564W        W47477  15.768  19.357   8.836  0.5013 -0.0994 -0.3033
 4565W        W47478  12.459  29.063   5.996 -0.2160 -0.1666  0.2863
 4566W        W47479  10.106  16.640   0.429 -0.0604 -0.0679 -0.0834
 4567W        W47480  14.703  24.828   9.337 -0.1556 -0.1182  0.0680
 4568W        W47481  20.627  28.148   8.820 -0.0700  0.2834  0.0725
 4569W        W47482  19.133   8.867   5.681 -0.1465 -0.2080 -0.1249
 4570W        W47483  11.941  25.518   3.019  0.1872 -0.2142  0.0685
 4571W        W47484  21.251  21.255   6.532 -0.1872  0.1222 -0.3254
 4572W        W47485   2.046  28.219   6.555 -0.0522 -0.2096 -0.3843
 4573W        W47486  17.350  21.373   0.347  0.1699 -0.0601  0.0681
 4574W        W47487  17.361  19.859  22.924  0.0375 -0.0872  0.0048
 4575W        W47488   9.748  21.888   1.038  0.2650  0.4818  0.1848
 4576W        W47489  18.729  17.764  24.681  0.3161  0.0463  0.3707
 4577W        W47490  15.356   9.977   5.345 -0.0644 -0.1895  0.1392
 4578W        W47491   6.618  26.860   1.396 -0.1298  0.0040  0.2739
 4579W        W47492  11.718  10.761   8.818 -0.0060 -0.2323  0.0233
 4580W        W47493  10.914  30.542  25.782  0.1276 -0.1773  0.1204
 4581W        W47494  18.792  20.536   3.514  0.0761 -0.1084 -0.0015
 4582W        W47495  25.505   9.323   4.994  0.0568 -0.0822  0.0597
 4583W        W47496  29.396  26.420   4.331 -0.0834  0.0636 -0.1522
 4584W        W47497   3.275  13.079  28.053 -0.0491 -0.0010 -0.0387
 4585W        W47498  12.960  24.859   2.634 -0.1798 -0.0370 -0.0417
 4586W        W47499  17.497  21.413  27.823  0.1207 -0.1041  0.0923
 4587W        W47500  18.086  28.285  26.142  0.0666 -0.0617  0.0475
 4588W        W47501  28.340  21.757  28.748 -0.2969 -0.0018 -0.0893
 4589W        W47502  23.605   0.201   2.431 -0.2993  0.1666 -0.3508
 4590W        W47503  18.328   1.289   3.584  0.1552 -0.1811  0.0772
 4591W        W47504   5.530  27.106   2.167 -0.1422 -0.3972  0.0095
 4592W        W47505  19.609  20.880  26.517  0.1693 -0.1283  0.1361
 4593W        W47506  15.347  20.112  28.748  0.3038 -0.0712 -0.0164
 4594W        W47507  19.099  16.794  25.010 -0.2388 -0.0036 -0.0030
 4595W        W47508   6.201  31.677  19.801 -0.0739 -0.1918  0.2469
 4596W        W47509  27.437  13.345   3.131 -0.0208  0.1754  0.2432
 4597W        W47510  15.590  22.966   0.807  0.2487 -0.0272 -0.3042
 4598W        W47511  12.769  19.936   6.028 -0.2227 -0.1980 -0.2879
 4599W        W47512  20.108  33.966   4.732 -0.2499  0.0177  0.4948
 4600W        W47513  20.020  26.378   7.967 -0.0259  0.5287  0.1785
 4601W        W47514  13.041  23.554   3.675  0.0540 -0.0050 -0.0648
 4602W        W47515  12.177  22.813  17.016  0.1617  0.0779 -0.1145
 4603W        W47516  10.157  29.433  28.730  0.1084 -0.4694 -0.0728
 4604W        W47517  27.074  13.470  29.087 -0.4307  0.1019  0.0419
 4605W        W47518  14.106   3.201   1.779  0.5160 -0.0009 -0.0386
 4606W        W47519  18.059  25.546  23.830 -0.0025 -0.3441 -0.3243
 4607W        W47520  13.457  15.095  19.114 -0.0137 -0.0858  0.1494
 4608W        W47521  15.376  17.587   7.029 -0.1997  0.2549 -0.3483
 4609W        W47522  16.777  20.336  24.732 -0.1716  0.0656  0.1431
 4610W        W47523  22.218  23.990  28.917 -0.2896 -0.0629  0.4600
 4611W        W47524  18.924   6.254   1.994  0.1370 -0.0988 -0.0369
 4612W        W47525   7.912  26.170  28.358 -0.1589  0.1676 -0.0802
 4613W        W47526  12.875  28.129   4.237  0.3553 -0.1190  0.0588
 4614W        W47527  25.107  24.779   6.315  0.1056  0.0731  0.2044
 4615W        W47528  20.959  19.469   2.486 -0.2706  0.1524 -0.3639
 4616W        W47529  17.609  19.674   6.206  0.1734  0.1266 -0.1163
 4617W        W47530  10.346   1.285   3.239 -0.0597 -0.2234  0.0735
 4618W        W47531  21.690  11.521  18.866  0.0893 -0.0334 -0.0667
 4619W        W47532   9.066  16.503   6.088 -0.0988 -0.2336 -0.1480
 4620W        W47533  14.516  33.622   4.983  0.3849 -0.1641 -0.1381
 4621W        W47534  23.598  27.117  23.804 -0.0666  0.1449 -0.3246
 4622W        W47535  13.967  28.083   7.072  0.3000 -0.1846  0.1328
 4623W        W47536  11.067  30.524   6.456 -0.0154  0.0514  0.4164
 4624W        W47537  16.936  27.904  29.426 -0.4884 -0.1737  0.1648
 4625W        W47538  10.913  23.771  23.835  0.0060 -0.1683  0.1837
 4626W        W47539  12.556  20.737   5.650 -0.0430 -0.0029 -0.2373
 4627W        W47540  20.904  25.192   6.245 -0.0176  0.2223 -0.4864
 4628W        W47541  17.160  26.422  21.444  0.1584  0.1802 -0.3022
 4629W        W47542  17.292   9.340  27.434  0.4143  0.1255  0.1877
 4630W        W47543  19.024  16.940   1.185 -0.4634  0.0946  0.0582
 4631W        W47544  10.578  25.354   0.935  0.0927  0.0241 -0.0499
 4632W        W47545  23.776  27.713   6.310  0.1372 -0.2080  0.1234
 4633W        W47546  15.428   0.750   6.200  0.0183 -0.3951 -0.2690
 4634W        W47547  10.865  16.319  21.370 -0.2187 -0.0857 -0.2949
 4635W        W47548  15.600  16.161   7.087 -0.0926  0.0485 -0.2077
 4636W        W47549  15.894  17.384  25.937 -0.0561  0.1003  0.3237
 4637W        W47550  11.583  17.537   1.729  0.1981 -0.1150  0.1413
 4638W        W47551   8.000  16.249   7.656  0.1605  0.1674 -0.1719
 4639W        W47552   8.415  29.354   0.471  0.0275 -0.0258  0.0928
 4640W        W47553  18.850  24.591   5.611  0.2603 -0.3883 -0.0722
 4641W        W47554  16.575  22.448  26.596 -0.0397  0.5151  0.2438
 4642W        W47555  13.582  30.809   6.527 -0.0790 -0.0295  0.0306
 4643W        W47556  16.102  19.351  22.389 -0.0701 -0.2387 -0.1469
 4644W        W47557  18.560  23.501   7.284  0.1875  0.5133  0.2404
 4645W        W47558  20.499  19.785   6.914 -0.0396 -0.1778 -0.0671
 4646W        W47559  15.136  22.321   2.834  0.1872  0.3218  0.2905
 4647W        W47560  11.524  25.131   6.185  0.0030 -0.0238 -0.3559
 4648W        W47561  17.448  26.767   5.731  0.2021 -0.1588 -0.3072
 4649W        W47562  29.733  28.853  24.066 -0.2310 -0.2985 -0.1605
 4650W        W47563  23.154  33.665   3.763 -0.3519  0.3163  0.0405
 4651W        W47564  11.935  27.521   3.033 -0.0833 -0.1441  0.0220
 4652W        W47565  10.730  26.850   0.879 -0.3125 -0.1546  0.4136
 4653W        W47566  24.156  14.548   3.580  0.2486 -0.4393  0.1369
 4654W        W47567  15.002  14.896   7.038 -0.0451 -0.0141 -0.0644
 4655W        W47568  21.850  18.584  16.043 -0.1958 -0.1343  0.3082
 4656W        W47569   6.536  26.086  21.478 -0.0452 -0.0772  0.2612
 4657W        W47570  17.031  33.898   2.610 -0.2502  0.0234 -0.2628
 4658W        W47571  11.388  28.618   0.997 -0.0380 -0.4407 -0.0126
 4659W        W47572  34.205  26.868   8.877 -0.0632 -0.1266 -0.3182
 4660W        W47573  22.335  24.343   6.037 -0.0074  0.1406 -0.0491
 4661W        W47574   5.267  29.880   4.009 -0.3701 -0.1335 -0.1198
 4662W        W47575  19.654  31.812  26.575  0.0599  0.0000  0.0361
 4663W        W47576  16.151  11.441   7.380 -0.3352  0.1316 -0.2448
 4664W        W47577  10.169  16.769  21.334 -0.3378  0.1097 -0.1404
 4665W        W47578  19.924  19.268  14.636  0.0736 -0.0829 -0.0900
 4666W        W47579  17.740  12.653   4.385 -0.0124 -0.2655 -0.3226
 4667W        W47580  14.104  22.717  25.790 -0.0636  0.0611  0.0759
 4668W        W47581  19.321  20.749   6.237  0.0312 -0.1287  0.2532
 4669W        W47582  15.856  24.506   1.268 -0.0031  0.0261  0.1571
 4670W        W47583  21.610  27.747  21.669  0.0178 -0.0882  0.0390
 4671W        W47584  19.876  17.214   3.786 -0.0257 -0.4031 -0.0615
 4672W        W47585  17.980  10.739  22.782  0.3200 -0.3284 -0.2535
 4673W        W47586  13.386  17.497  17.070 -0.0537  0.0615 -0.1967
 4674W        W47587  20.856  20.434   2.096 -0.0531 -0.2513  0.0355
 4675W        W47588  14.513  28.307   4.842 -0.0071  0.1601  0.2755
 4676W        W47589  20.764  17.710  22.080 -0.1348 -0.0955 -0.0724
 4677W        W47590   6.858  10.425  27.666 -0.2085  0.1947  0.0306
 4678W        W47591  18.690  24.004  26.161 -0.0224  0.2969 -0.0003
 4679W        W47592  10.303  16.911  28.004  0.1905 -0.1303  0.2665
 4680W        W47593  20.556  30.873  27.937 -0.0942 -0.0223 -0.3236
 4681W        W47594  14.528  24.393   7.760  0.1492  0.0060 -0.0964
 4682W        W47595  23.447  20.075   6.366  0.1058  0.1950 -0.1189
 4683W        W47596  19.908  17.401   7.543 -0.0922  0.2091 -0.0880
 4684W        W47597  29.524  18.404  28.707 -0.2414 -0.0760 -0.1433
 4685W        W47598  29.862  22.594  29.299  0.1181  0.0706 -0.2336
 4686W        W47599  11.324   0.772  29.481  0.0064  0.0201  0.1925
 4687W        W47600  13.254  22.564   9.574  0.2688 -0.0321  0.0257
 4688W        W47601  14.892   1.994  22.235  0.0529  0.0618 -0.0196
 4689W        W47602   8.346  28.030  20.351 -0.4579  0.2895  0.0199
 4690W        W47603  14.541  32.421   2.430  0.1939  0.1267 -0.0133
 4691W        W47604   9.311  24.680  16.119  0.1065  0.1235  0.0613
 4692W        W47605   7.800  28.173   3.673 -0.0227 -0.1014 -0.1601
 4693W        W47606  26.489  19.563  26.346 -0.0458  0.0590 -0.0281
 4694W        W47607  27.909  23.722   2.592 -0.2464  0.1505 -0.2689
 4695W        W47608  23.398  23.258   4.924 -0.0857  0.0356 -0.0408
 4696W        W47609  18.248  24.649   1.191 -0.1373 -0.1725  0.0063
 4697W        W47610   8.087  17.159   8.829 -0.1023 -0.0159 -0.0244
 4698W        W47611   5.094   6.148   0.906 -0.1004 -0.2373  0.1776
 4699W        W47612  19.332  26.729   4.915 -0.0007 -0.1200  0.0231
 4700W        W47613  19.183  31.445   0.554  0.1120  0.2051 -0.0488
 4701W        W47614  14.982  33.549   5.595 -0.1943 -0.2232  0.2466
 4702W        W47615  19.737  29.384  27.064 -0.0153  0.2523 -0.0507
 4703W        W47616  20.968  16.545   4.420 -0.3206 -0.1183 -0.1414
 4704W        W47617  12.408  31.864   5.755  0.0144 -0.0697  0.1699
 4705W        W47618   5.809  29.327  12.351 -0.0362  0.0119  0.0538
 4706W        W47619  14.532  22.935  19.798  0.2557  0.4096 -0.1235
 4707W        W47620   6.107  32.208  24.332  0.0413  0.0145  0.0334
 4708W        W47621  18.932  19.763  23.460  0.2123 -0.0072  0.0663
 4709W        W47622  23.499  19.561   4.981 -0.0666 -0.2467  0.1316
 4710W        W47623  23.510  16.166   0.958  0.3225  0.0474  0.1648
 4711W        W47624  16.257  21.515  26.756  0.0473 -0.0446  0.3955
 4712W        W47625  21.750  14.315   8.634 -0.5274  0.2101  0.1193
 4713W        W47626   4.064  24.664  22.129  0.1158 -0.1416 -0.3326
 4714W        W47627  20.749  12.978   2.777 -0.1101  0.1333 -0.2671
 4715W        W47628  18.503  22.262   5.710  0.0626 -0.0276 -0.0942
 4716W        W47629  17.023  31.023   3.145  0.1515  0.1383  0.0020
 4717W        W47630  21.295  23.949   3.543 -0.0579  0.3491  0.0168
 4718W        W47631  15.971  25.741  21.942 -0.1622  0.1286 -0.0656
 4719W        W47632   8.410  13.071  19.665  0.4760  0.3043  0.1321
 4720W        W47633  19.312  28.486   2.938 -0.2182 -0.0138 -0.2362
 4721W        W47634  26.164  29.725   4.829 -0.1230 -0.0537 -0.0750
 4722W        W47635  16.295  26.798   0.167 -0.0432  0.0811 -0.2330
 4723W        W47636  19.259  22.485   0.175 -0.0142 -0.0119  0.3529
 4724W        W47637  14.579  20.991   5.115  0.1258  0.3967  0.2842
 4725W        W47638  18.301  14.351   4.237 -0.1465 -0.0330  0.0207
 4726W        W47639  20.530  22.653   7.131 -0.0117  0.1433  0.1663
 4727W        W47640  12.793  31.181   6.222 -0.1126  0.0561  0.0205
 4728W        W47641  10.520  30.411   7.416  0.0713  0.0517 -0.2048
 4729W        W47642  24.132  28.547  18.113 -0.1378  0.0837 -0.0486
 4730W        W47643   5.035  33.500   2.351  0.2387 -0.0313 -0.3238
 4731W        W47644  27.537  23.590  25.842  0.0985  0.0679  0.1410
 4732W        W47645  16.605  19.508   3.452  0.0817 -0.1477  0.1374
 4733W        W47646  18.933  27.474   1.995  0.0890 -0.2012 -0.4677
 4734W        W47647  12.374  27.258   9.977  0.2449  0.0125 -0.1984
 4735W        W47648  17.497  24.095   2.295  0.2418 -0.1358 -0.1584
 4736W        W47649  13.422  19.523   0.752 -0.0068  0.0063  0.1034
 4737W        W47650   7.613  22.108   4.298 -0.1872 -0.2632  0.0454
 4738W        W47651   7.528  20.252  23.020  0.1870  0.2178 -0.0324
 4739W        W47652  20.991  20.597  15.463  0.0606  0.0235 -0.1102
 4740W        W47653   5.736  21.610  29.367 -0.1657 -0.2462  0.3218
 4741W        W47654   9.399  19.854   5.873  0.0803  0.1054  0.0405
 4742W        W47655  22.862  31.933   4.690 -0.0882 -0.0435  0.0380
 4743W        W47656  12.783  28.860  28.096  0.3159 -0.1075 -0.0950
 4744W        W47657  15.712  24.315   1.746  0.1387  0.0788 -0.0927
 4745W        W47658  13.018   9.968  16.452  0.0803  0.1003 -0.3671
 4746W        W47659  21.701  14.739  23.293  0.3227  0.0932 -0.3069
 4747W        W47660  14.832  30.674  24.910  0.1651  0.2163  0.0624
 4748W        W47661  13.061  16.785   2.237 -0.3741 -0.0259  0.1048
 4749W        W47662  14.449  16.912   1.435 -0.0046  0.1365 -0.2274
 4750W        W47663  16.952  20.671   2.372 -0.2477 -0.3016 -0.2844
 4751W        W47664  20.753  26.244   1.896 -0.1177 -0.3175 -0.1036
 4752W        W47665  17.455  31.814   7.258 -0.1933  0.1813  0.0533
 4753W        W47666  11.760  31.716  21.328  0.3727  0.0103  0.3671
 4754W        W47667  10.139  27.655   6.776  0.2927 -0.2067  0.2133
 4755W        W47668   9.911  28.341  11.134  0.2125 -0.2048  0.2003
 4756W        W47669  23.195  14.323  28.567  0.2066 -0.1534  0.0361
 4757W        W47670  10.448   9.683  10.677  0.3225  0.1686  0.0580
 4758W        W47671  18.416   0.037   8.083 -0.2235 -0.0698 -0.0381
 4759W        W47672   9.306  25.265   9.221  0.3811 -0.2626 -0.0543
 4760W        W47673  13.419  21.454   0.769 -0.0994 -0.3148 -0.1694
 4761W        W47674  15.011  23.399   3.452 -0.1660  0.0147 -0.1454
 4762W        W47675   9.094  17.559  27.072  0.0484  0.0575  0.0333
 4763W        W47676  19.111  19.038  26.670  0.1755  0.1385 -0.0634
 4764W        W47677  12.679   2.899   6.305  0.1682 -0.0012 -0.2414
 4765W        W47678  13.638  18.963  19.752 -0.3573  0.1999 -0.3683
 4766W        W47679  17.544  31.717  27.156 -0.4469  0.0139  0.0039
 4767W        W47680  21.082  15.951   4.982 -0.0517  0.0323 -0.1539
 4768W        W47681  21.873  25.480   8.866 -0.0548  0.0404 -0.0115
 4769W        W47682   7.810  25.717   3.874  0.3040  0.1585  0.1086
 4770W        W47683  16.168   7.956   8.171  0.0865  0.0742 -0.2104
 4771W        W47684  19.981  25.450   4.572 -0.0687 -0.1175  0.3233
 4772W        W47685  24.013  29.180  23.533 -0.1575  0.1324 -0.0349
 4773W        W47686  12.018  20.887  26.368  0.5173 -0.1739 -0.3283
 4774W        W47687  10.237   9.280   2.719 -0.1185  0.0095 -0.1196
 4775W        W47688  16.880  25.449  26.093 -0.0616  0.0132  0.2297
 4776W        W47689  17.406   9.120   4.180  0.3854  0.3134 -0.1204
 4777W        W47690  16.829  20.519  22.245 -0.0222  0.3551 -0.3304
 4778W        W47691  13.008  20.125   3.350  0.0557 -0.0910  0.2444
 4779W        W47692   8.017  23.382  27.388  0.0716 -0.0106  0.3013
 4780W        W47693  18.398  24.999   2.165  0.0924 -0.0626  0.0178
 4781W        W47694  15.836   7.544   8.211  0.1533  0.1120  0.1171
 4782W        W47695   5.577  24.180  21.641  0.2689  0.3858  0.1724
 4783W        W47696  13.919  20.379  22.341  0.4399  0.0344 -0.0166
 4784W        W47697  20.724  14.264   6.814 -0.2826  0.0850 -0.4728
 4785W        W47698  21.465  33.523   5.331  0.0578 -0.0611 -0.0350
 4786W        W47699  12.651  23.422  27.041  0.1347  0.3142 -0.1303
 4787W        W47700  16.607  10.167  27.424 -0.0717  0.0006  0.1485
 4788W        W47701  23.416  14.117  25.774 -0.0778 -0.1556 -0.2826
 4789W        W47702  17.734  14.076   4.728  0.4789 -0.2631  0.3136
 4790W        W47703  14.183  18.001   1.174  0.1857  0.3088  0.1707
 4791W        W47704  13.417  18.459   6.267 -0.1758 -0.4975  0.0462
 4792W        W47705  11.569  18.022   1.491  0.1210 -0.2768  0.3976
 4793W        W47706  15.499  17.950   1.736 -0.1307 -0.0018  0.0491
 4794W        W47707  16.592  30.362   6.633  0.3593 -0.3401 -0.1973
 4795W        W47708  27.229  32.396   5.583 -0.0797  0.0572  0.1751
 4796W        W47709  18.013  23.044   4.247 -0.1270  0.0154  0.1518
 4797W        W47710   7.007  29.114  10.514  0.2037 -0.0085  0.1838
 4798W        W47711  20.502  15.599  29.457 -0.2028 -0.1801 -0.0342
 4799W        W47712  19.646  29.198   1.046 -0.1595 -0.1430 -0.1652
 4800W        W47713  17.390  17.477   4.582 -0.3175 -0.2385  0.0588
 4801W        W47714  24.254  17.976   1.392  0.0458 -0.0415  0.2237
 4802W        W47715   4.494  24.967   5.046  0.0269 -0.6574 -0.3547
 4803W        W47716  16.153  27.112   8.819  0.0576  0.3881  0.2844
 4804W        W47717  13.403  30.215   7.088 -0.0093  0.1166  0.0357
 4805W        W47718  18.973  28.595   1.491 -0.4593  0.0539  0.1264
 4806W        W47719  21.506  22.535   5.984 -0.0038  0.0265  0.0417
 4807W        W47720  19.993  23.441   4.757  0.2785  0.0859  0.2070
 4808W        W47721  16.820  31.094   7.136  0.2548  0.1537  0.0521
 4809W        W47722  20.438  16.770   5.531  0.0977  0.0539 -0.2506
 4810W        W47723  12.628  20.172   6.491 -0.0458 -0.3269 -0.3321
 4811W        W47724  15.400  15.426  23.870  0.0672 -0.1576  0.0713
 4812W        W47725  11.851  33.228  11.769  0.3149 -0.2466  0.1131
 4813W        W47726  20.351  17.151   2.993  0.2726 -0.0274  0.1026
 4814W        W47727   6.837  21.817   6.425 -0.0972  0.3803  0.3079
 4815W        W47728  21.969  18.378   8.504  0.0462  0.3287 -0.5383
 4816W        W47729  13.187  24.529   7.116  0.2045 -0.0941 -0.1989
 4817W        W47730  18.224  14.104  28.552  0.1884 -0.2928  0.3208
 4818W        W47731  23.353  27.407   6.436  0.0630 -0.3011  0.0244
 4819W        W47732  14.329  14.655  23.758 -0.3044 -0.3015 -0.0321
 4820W        W47733  10.900  19.888   6.350  0.1501  0.1219  0.1292
 4821W        W47734  31.831  21.846   9.066 -0.0417  0.1586 -0.0650
 4822W        W47735  26.070  17.910   5.982  0.0556 -0.0166  0.0552
 4823W        W47736  13.245  28.126   3.899 -0.0723 -0.2525  0.0559
 4824W        W47737  10.122  18.744   6.933  0.2394  0.2554 -0.0453
 4825W        W47738  15.980  16.450   0.068  0.1559 -0.1955 -0.2327
 4826W        W47739   3.368  34.231   1.642 -0.0835  0.2354  0.1777
 4827W        W47740  17.606  25.075   7.967  0.0625  0.2840  0.1279
 4828W        W47741  13.619  24.237   5.571  0.1760  0.1133 -0.0291
 4829W        W47742  17.953  18.445  29.244 -0.2042 -0.1256  0.3954
 4830W        W47743  18.829  25.330  14.143  0.0950 -0.2162 -0.1005
 4831W        W47744  23.826  20.202   7.163 -0.2907 -0.1282 -0.1954
 4832W        W47745  11.115  26.594   3.781  0.2233 -0.1922 -0.1619
 4833W        W47746   7.173  21.190  27.804 -0.0808  0.2892 -0.1151
 4834W        W47747  16.165  31.509   7.066 -0.0757 -0.2866 -0.2328
 4835W        W47748  13.509  23.163  25.416 -0.0869  0.2147  0.2835
 4836W        W47749  10.163  25.362  23.702  0.2644  0.2056  0.1779
 4837W        W47750  13.214  15.379   2.178 -0.2785  0.0766  0.2669
 4838W        W47751  17.433  20.129  24.337  0.0766  0.2589  0.3150
 4839W        W47752  18.861  24.971  29.544  0.2621 -0.2649 -0.1386
 4840W        W47753  19.615   5.650  25.287  0.0363  0.0916  0.0008
 4841W        W47754  17.931  28.378   0.339  0.1658  0.1281 -0.0190
 4842W        W47755  23.747  23.855   3.885 -0.0926 -0.2314  0.2577
 4843W        W47756  24.622  17.742   4.864 -0.0663  0.0956 -0.1805
 4844W        W47757  27.262  22.923  19.536 -0.0128 -0.2670 -0.1673
 4845W        W47758  11.468  10.192   3.488  0.0839  0.1319 -0.0817
 4846W        W47759   7.410  16.367   5.150 -0.0209 -0.0866 -0.2226
 4847W        W47760  11.271  30.530   3.012 -0.2353 -0.1888  0.2922
 4848W        W47761   7.806  25.167   2.909 -0.0177 -0.2387  0.2936
 4849W        W47762  18.365  17.964  27.856  0.2552 -0.1402  0.0326
 4850W        W47763  19.741  13.248  21.702  0.1145  0.0379 -0.0174
 4851W        W47764  22.794  16.364   7.955  0.1324  0.0476  0.0589
 4852W        W47765   1.666  24.502  26.192  0.0210 -0.1074 -0.0085
 4853W        W47766  18.833  27.721   7.742  0.1628 -0.6198  0.0223
 4854W        W47767  16.652   7.767   5.870 -0.0140 -0.0041  0.0291
 4855W        W47768  22.478  25.794   5.919  0.0943  0.3070 -0.1587
 4856W        W47769   4.377  25.848   1.434  0.0018  0.0288  0.0688
 4857W        W47770   2.131  13.107   8.154  0.0284 -0.3282  0.2804
 4858W        W47771   7.495  12.612   1.567 -0.0429  0.0246 -0.0465
 4859W        W47772   8.602  24.192   0.914 -0.0651 -0.0542 -0.1642
 4860W        W47773   7.801  34.047   5.931  0.0853 -0.0974 -0.3300
 4861W        W47774  10.331  31.129  10.141 -0.1542  0.3979 -0.3109
 4862W        W47775  21.936  17.376   0.247  0.0105  0.0440 -0.0774
 4863W        W47776  28.160  17.905  22.763  0.0445  0.0499 -0.0842
 4864W        W47777  16.529  21.534   6.388  0.0742  0.0428 -0.0087
 4865W        W47778  15.788   7.696  27.060  0.3756 -0.0570 -0.1003
 4866W        W47779  13.457  22.429   2.966  0.0373 -0.1274  0.2503
 4867W        W47780  13.626  26.951  17.263 -0.0452 -0.1099 -0.0275
 4868W        W47781  21.330  22.985   5.784 -0.1286  0.1466 -0.1350
 4869W        W47782  13.846  15.574   3.531  0.0433  0.2768  0.1320
 4870W        W47783  30.691  25.483  26.925  0.1047  0.3302  0.1304
 4871W        W47784  15.584  24.296   9.630  0.4838  0.3252  0.0508
 4872W        W47785  20.351  23.002  26.055 -0.2951 -0.1293 -0.1487
 4873W        W47786   4.616   8.952  22.980 -0.2592  0.1614  0.1634
 4874W        W47787   0.387   0.290  28.887  0.0261  0.0708  0.0129
 4875W        W47788  16.884  22.961  28.291  0.0469  0.0566  0.0968
 4876W        W47789  13.780  23.629  27.205  0.3369  0.1597  0.2094
 4877W        W47790  26.204  32.743   8.104 -0.2313 -0.2145 -0.4227
 4878W        W47791   8.484  13.658  26.511 -0.2379 -0.1005 -0.1591
 4879W        W47792   7.328  14.584   1.177 -0.3955 -0.0850  0.1672
 4880W        W47793  11.747  28.980   0.849 -0.1694  0.0496 -0.3052
 4881W        W47794  21.638  33.188  23.438 -0.0554  0.1779 -0.1306
 4882W        W47795  22.170  17.264   6.075  0.1388 -0.0220 -0.1571
 4883W        W47796  21.878  28.147  28.961  0.0016 -0.3234 -0.0758
 4884W        W47797   5.859  27.636   8.622 -0.1246  0.2477  0.2078
 4885W        W47798  12.119  32.036  28.772 -0.1708  0.0442  0.0125
 4886W        W47799  23.017  18.531   3.828 -0.1639 -0.0664 -0.1771
 4887W        W47800  13.923  19.429  19.699 -0.0301 -0.0220  0.2048
 4888W        W47801  13.374  21.764   5.171  0.1051 -0.0850 -0.2044
 4889W        W47802  24.416  21.667   4.008 -0.1448  0.3587  0.0162
 4890W        W47803  20.496  20.294  24.739  0.0115  0.0600  0.2043
 4891W        W47804  16.111  23.204  20.936  0.1299  0.0346 -0.0881
 4892W        W47805   4.800  24.101   7.824 -0.1925  0.1190 -0.2158
 4893W        W47806  19.291   0.278  21.221  0.3287 -0.1671  0.2033
 4894W        W47807  16.963  18.228  26.262  0.1454  0.0814  0.0146
 4895W        W47808  17.138  23.555   4.300  0.0266  0.1800 -0.0598
 4896W        W47809   6.137  25.012   1.177  0.1816  0.0810  0.1027
 4897W        W47810  16.677  18.492  24.871 -0.0368 -0.0894  0.2073
 4898W        W47811  12.936  18.333  25.625 -0.1203  0.1228 -0.1940
 4899W        W47812   1.458  29.496   9.467  0.1596 -0.1602  0.1714
 4900W        W47813  22.715  19.844   1.314 -0.0895  0.1160  0.3288
 4901W        W47814  14.773  24.397  25.855  0.0764 -0.2934  0.0047
 4902W        W47815  25.681  17.894   8.654 -0.1568  0.0213  0.0390
 4903W        W47816  22.789  21.918   4.457 -0.2572 -0.1702  0.0236
 4904W        W47817  11.868  25.205   7.238  0.1029 -0.0687 -0.2691
 4905W        W47818   6.921  26.767   4.199 -0.0938 -0.2490 -0.0356
 4906W        W47819  20.137  12.809  26.886  0.0029  0.3047 -0.3844
 4907W        W47820  15.653  16.169   1.895 -0.2120  0.1035 -0.0579
 4908W        W47821  22.086  22.164   3.380  0.0861 -0.0559  0.1383
 4909W        W47822  31.750  24.280   0.876 -0.0918 -0.2670 -0.1633
 4910W        W47823  14.480  24.336   0.465  0.1819  0.0077  0.1033
 4911W        W47824  16.437  27.281  26.793  0.0396  0.0351 -0.2164
 4912W        W47825  11.027  29.776  27.804  0.0372  0.3297  0.0228
 4913W        W47826  25.443  11.987   1.060  0.0985  0.1835 -0.0952
 4914W        W47827  11.702  18.381   7.268 -0.2092 -0.1273 -0.1944
 4915W        W47828  15.290  22.553  24.169 -0.1594  0.1023 -0.3157
 4916W        W47829   8.600  25.985   6.281 -0.0111  0.1826 -0.4010
 4917W        W47830  19.913  30.266   0.356 -0.1533  0.0275  0.1132
 4918W        W47831  26.596  25.317   7.121  0.2167 -0.3921 -0.0785
 4919W        W47832   6.660  23.624  29.152 -0.4615  0.0701  0.2933
 4920W        W47833  12.206  11.410   6.955  0.0413 -0.0978 -0.1876
 4921W        W47834  13.462  13.420  26.090 -0.1778 -0.1937 -0.1794
 4922W        W47835  15.272  22.943   6.179 -0.1418  0.1228 -0.0424
 4923W        W47836  10.447  21.811   8.243 -0.0689 -0.2267  0.5029
 4924W        W47837  20.648  33.911   8.444  0.0704 -0.2139  0.0904
 4925W        W47838   7.358  20.056  22.002 -0.2718  0.0504  0.2393
 4926W        W47839  18.681  26.337   3.789 -0.2930  0.0270  0.1170
 4927W        W47840   5.724  20.782  18.899 -0.2346  0.2074 -0.2255
 4928W        W47841  14.296  20.734   3.173 -0.0762 -0.3203  0.1231
 4929W        W47842   5.735  25.689  23.851 -0.0515  0.1158  0.0268
 4930W        W47843  12.057  21.725   8.970  0.1137 -0.1590 -0.0739
 4931W        W47844  10.899  16.715   4.150  0.0292  0.1215 -0.3470
 4932W        W47845  15.857  19.634  22.027  0.1880  0.1070  0.0724
 4933W        W47846  24.035  30.081  16.940  0.3499 -0.1772  0.2558
 4934W        W47847  17.249   1.541  26.345 -0.0391 -0.1665 -0.0725
 4935W        W47848  16.217  21.694   1.484  0.1550 -0.3301  0.0801
 4936W        W47849  13.515   3.279   0.529  0.4202  0.1708  0.3352
 4937W        W47850  21.791  26.904  23.083  0.2255  0.0027  0.0871
 4938W        W47851   9.121  26.535   1.055  0.1696 -0.1146  0.0254
 4939W        W47852  13.783  12.714   2.737  0.2255  0.0125 -0.1312
 4940W        W47853  25.873  26.839   5.385  0.0740 -0.1457 -0.2075
 4941W        W47854  15.667  28.539  24.723 -0.2874  0.2500 -0.1533
 4942W        W47855  27.914  24.180   4.008  0.0004  0.0139  0.0122
 4943W        W47856  26.886  20.731   5.018  0.2656  0.0688  0.1390
 4944W        W47857  20.342  13.257   4.191 -0.1032 -0.3873  0.0602
 4945W        W47858  13.242  25.145  28.083 -0.0083  0.0146 -0.0906
 4946W        W47859  20.705  27.491   9.354  0.3519 -0.2765 -0.1192
 4947W        W47860  13.121   2.397   0.357 -0.3650 -0.0784  0.1059
 4948W        W47861  11.394  27.382  24.324  0.2230  0.0608 -0.0365
 4949W        W47862  16.791  23.136   7.040  0.1993 -0.0053  0.0309
 4950W        W47863   7.434  26.521   7.562 -0.1463  0.0322 -0.0575
 4951W        W47864  19.452  25.462   3.796  0.2227 -0.0038  0.1067
 4952W        W47865  19.778  19.656  26.332  0.0516  0.0026  0.0667
 4953W        W47866  13.744  24.025  29.678 -0.0648 -0.0172 -0.0114
 4954W        W47867  18.478  19.586   7.620  0.1971  0.0337  0.0283
 4955W        W47868  19.951  23.376   4.190  0.1588  0.1618  0.2001
 4956W        W47869  13.772  14.554  27.517  0.0874  0.3421  0.3945
 4957W        W47870  24.637  26.553   6.552 -0.0611  0.0433  0.1398
 4958W        W47871  13.817  21.446   6.497 -0.1136  0.0577  0.1488
 4959W        W47872  24.500  16.629   2.834  0.1476  0.4600 -0.0798
 4960W        W47873  19.472  14.704  28.023  0.0159 -0.0117  0.0086
 4961W        W47874  17.284  33.429   7.361 -0.2173  0.1143 -0.3644
 4962W        W47875  21.278  22.725  25.646 -0.0050 -0.1339  0.2376
 4963W        W47876   8.725  12.345  29.727  0.2927  0.1307  0.2494
 4964W        W47877  10.553  22.330   4.259 -0.2386  0.1374  0.0170
 4965W        W47878  18.984  29.191   2.593  0.0268 -0.1414 -0.0152
 4966W        W47879  20.373  24.968   3.887 -0.1813  0.3780 -0.1551
 4967W        W47880  15.052  12.687   7.148  0.0682 -0.1371 -0.1365
 4968W        W47881   8.551  28.350  28.550 -0.0821 -0.3111  0.0993
 4969W        W47882  15.340  28.236  23.267 -0.0714  0.1222  0.1026
 4970W        W47883  17.583  17.144   6.721 -0.2317  0.3541  0.1979
 4971W        W47884  10.179  23.001  10.129  0.0568  0.1950 -0.1850
 4972W        W47885  11.996  20.931   6.171 -0.0072 -0.0557 -0.1843
 4973W        W47886  18.895  16.738  24.068 -0.6411 -0.2257  0.1934
 4974W        W47887  19.278  32.531   0.758  0.2378 -0.3053  0.0486
 4975W        W47888  12.390  17.934   6.079  0.0363 -0.0197  0.2101
 4976W        W47889  14.138  29.071   5.083 -0.0305  0.1480 -0.0830
 4977W        W47890   5.133  25.220   5.802  0.1006  0.2633 -0.0842
 4978W        W47891  28.247  16.259  29.107 -0.1022  0.1791  0.3289
 4979W        W47892  12.532  21.982  24.051  0.3752 -0.3602 -0.0588
 4980W        W47893  25.627  18.753   3.648  0.1031 -0.0164  0.3417
 4981W        W47894  11.475  26.347   4.115  0.1646 -0.2573 -0.1829
 4982W        W47895   5.665  31.083   8.563 -0.0586 -0.3977 -0.1563
 4983W        W47896  25.333  25.172   8.070  0.4020  0.1259 -0.2108
 4984W        W47897  26.143  14.914   2.512  0.2413  0.2664 -0.1014
 4985W        W47898  12.774  30.503  10.682  0.0011  0.0760  0.1029
 4986W        W47899  13.691  14.481  24.522  0.1775 -0.1132 -0.0734
 4987W        W47900   5.511   9.726   1.591 -0.3663  0.2457  0.0856
 4988W        W47901   5.692  27.543   6.895 -0.1086 -0.0104 -0.0521
 4989W        W47902  10.466  26.753   7.926  0.1245  0.0930  0.2479
 4990W        W47903  22.707  23.521   8.296  0.0510 -0.0225  0.1501
 4991W        W47904  17.713  20.080  28.701  0.2730 -0.0315 -0.0337
 4992W        W47905  19.170  31.514   9.598 -0.2537 -0.0152  0.2297
 4993W        W47906  10.923  24.428  28.046  0.1124  0.2763 -0.0980
 4994W        W47907   5.205  24.500  21.844 -0.2475 -0.2585  0.1057
 4995W        W47908  17.254  20.941  27.666 -0.0564  0.2414  0.1892
 4996W        W47909  12.266  21.753   4.338  0.0427 -0.1217 -0.1637
 4997W        W47910  20.768  31.089   7.984 -0.0451 -0.0828 -0.0739
 4998W        W47911  15.616  21.244  26.203 -0.0156  0.3624  0.0693
 4999W        W47912   9.125  15.462   7.998  0.2256 -0.0469 -0.0127
 5000W        W47913  16.903  29.133  10.487  0.1586 -0.2197  0.1313
 5001W        W47914  21.245   0.863   5.422 -0.0696  0.1116 -0.0182
 5002W        W47915   7.351  23.531  26.548 -0.2801 -0.0236 -0.1994
 5003W        W47916  20.542  13.433  28.048  0.0597 -0.1963  0.0709
 5004W        W47917   9.084  32.947  29.103  0.0879 -0.1644 -0.1191
 5005W        W47918  10.757  22.286   8.003  0.0913 -0.1529  0.2087
 5006W        W47919  18.517  23.232   1.625 -0.0883  0.5422  0.0483
 5007W        W47920  14.590  29.532   3.737  0.0168 -0.3140  0.0309
 5008W        W47921  30.551  28.957  24.031 -0.1452  0.1455 -0.0728
 5009W        W47922  29.514  30.023   8.488 -0.2760 -0.0833  0.3265
 5010W        W47923  16.224  29.948   9.503  0.5319 -0.2286  0.0219
 5011W        W47924  21.036  23.172   8.094 -0.1129  0.1183 -0.0352
 5012W        W47925  14.085  31.932   5.453  0.1543  0.2280 -0.0945
 5013W        W47926  16.005  32.048   9.215 -0.3104 -0.0767 -0.4220
 5014W        W47927  19.041  21.337   6.242  0.2953  0.0029 -0.2148
 5015W        W47928  16.576  29.548   7.289  0.1828 -0.0025 -0.3309
 5016W        W47929  11.539  24.734   5.090  0.3576 -0.1855  0.1584
 5017W        W47930  18.954  23.148   8.551 -0.1938  0.0055  0.0800
 5018W        W47931  26.207  26.591  28.537 -0.1888  0.5170  0.1727
 5019W        W47932  17.356  34.053  28.045  0.4044  0.0004 -0.0390
 5020W        W47933  17.513   9.337  28.756  0.2066 -0.0211 -0.0870
 5021W        W47934  25.765  22.516   7.958 -0.0356  0.0935 -0.2964
 5022W        W47935  14.084  28.020  22.258  0.1409 -0.1577 -0.1352
 5023W        W47936  11.500  25.048   5.413  0.3088 -0.0014 -0.1643
 5024W        W47937  17.241  21.158   7.517  0.1925 -0.1915 -0.1163
 5025W        W47938  18.980   2.977   6.666  0.3195  0.0489 -0.0082
 5026W        W47939  24.602  25.034   3.902  0.2790  0.0588 -0.0385
 5027W        W47940  15.921  25.762   5.943  0.3608 -0.0552 -0.0379
 5028W        W47941  26.181   2.148   8.689 -0.1042 -0.1449 -0.0185
 5029W        W47942  20.284  27.333   6.243  0.0053 -0.0068  0.1371
 5030W        W47943  21.174  23.059  27.962  0.0752  0.0504 -0.1093
 5031W        W47944  30.866  19.345   9.297 -0.1458 -0.0293 -0.0710
 5032W        W47945  12.125   2.773   9.004  0.2238  0.0361 -0.1206
 5033W        W47946  10.436  29.943   7.555  0.0951 -0.1035  0.3745
 5034W        W47947  16.396  31.926   3.950  0.0865 -0.2053 -0.0286
 5035W        W47948   7.423  30.801  11.107  0.3794 -0.1520  0.3737
 5036W        W47949  25.148  25.543  27.681 -0.0046  0.1698 -0.2213
 5037W        W47950  16.735  22.700   6.242  0.1529 -0.1210 -0.0783
 5038W        W47951  22.909  23.647   6.234 -0.2477 -0.2593  0.2542
 5039W        W47952  12.139  31.294  28.764  0.3168  0.0693  0.0830
 5040W        W47953   0.743   3.444  23.989  0.1278  0.1486  0.5149
 5041W        W47954  25.620  29.071   1.191 -0.0856  0.0183 -0.0120
 5042W        W47955  10.483  30.595   2.988 -0.1074  0.5527 -0.3911
 5043W        W47956  25.616  16.939   8.011  0.1809 -0.2379 -0.0438
 5044W        W47957  16.173  24.498   4.487  0.2571  0.1620  0.3304
 5045W        W47958  11.214  13.049   1.695 -0.1658  0.0315  0.2312
 5046W        W47959   7.621  21.414   8.417 -0.1347  0.0451  0.3299
 5047W        W47960  12.485  29.840  28.121  0.1034 -0.3562  0.2114
 5048W        W47961  14.398   9.345   8.543  0.0501 -0.2149  0.2301
 5049W        W47962  22.228  22.462  29.606 -0.1285  0.1748 -0.0191
 5050W        W47963  14.787  25.305  20.864 -0.0074 -0.1684  0.2501
 5051W        W47964  11.464  21.017  26.389 -0.0433  0.0754 -0.0394
 5052W        W47965  18.822  24.059   8.664 -0.1725  0.0229  0.0154
 5053W        W47966  11.062  25.400   6.194  0.0305 -0.0954  0.2867
 5054W        W47967  20.111  21.533  29.296 -0.0312 -0.1698 -0.0877
 5055W        W47968  12.474  30.352   9.989 -0.4619 -0.0299 -0.0344
 5056W        W47969  14.449  29.619   9.197  0.1018 -0.1014 -0.1227
 5057W        W47970  29.426  27.495   1.495 -0.1395 -0.0281 -0.1672
 5058W        W47971  20.724  22.615   5.624  0.0425  0.1116  0.0947
 5059W        W47972  20.371   0.337   3.917 -0.1281 -0.1756  0.0932
 5060W        W47973  14.621  13.331   1.819  0.0306 -0.2754  0.0085
 5061W        W47974  11.483  28.939  27.595  0.1621 -0.0183 -0.0562
 5062W        W47975  16.869  32.897   4.426 -0.2018  0.1418 -0.2332
 5063W        W47976  16.456  13.686  28.277  0.3896  0.0261  0.1601
 5064W        W47977   5.759  25.791   9.857  0.2589  0.2598  0.0022
 5065W        W47978   9.631  27.207   4.246 -0.1405  0.1688 -0.2413
 5066W        W47979  15.324  31.748   6.633  0.2295  0.0923  0.0540
 5067W        W47980   8.843  27.903   4.978  0.3288 -0.0017  0.1806
 5068W        W47981  27.555  18.412   3.742  0.2086  0.1981 -0.2645
 5069W        W47982  12.944  24.512   4.163 -0.0635 -0.0079  0.2715
 5070W        W47983  16.972  16.756  28.271  0.3364 -0.0637 -0.0390
 5071W        W47984  14.695  29.017   8.113 -0.0040  0.0646  0.0940
 5072W        W47985   5.132  34.006  26.255 -0.0738 -0.1470 -0.1514
 5073W        W47986  20.436  32.267   8.725  0.1967  0.2030 -0.0491
 5074W        W47987  11.907  15.952   7.796 -0.0223  0.0517 -0.1542
 5075W        W47988   6.811  32.044   2.967 -0.2089 -0.4060  0.0110
 5076W        W47989  27.259  34.007   9.335  0.2333 -0.3928  0.0155
 5077W        W47990  15.508  25.175   3.199  0.0447 -0.2148 -0.3091
 5078W        W47991  13.913   7.307   1.186 -0.4592  0.1259  0.2063
 5079W        W47992  14.495  33.080   4.872  0.0405 -0.1054  0.1574
 5080W        W47993  20.206  17.278   6.837  0.0025 -0.2991  0.3437
 5081W        W47994   5.944  27.936  24.792 -0.1992  0.3555  0.2120
 5082W        W47995  18.813  30.806   9.144 -0.3091  0.1242  0.1860
 5083W        W47996  20.945  26.528  25.542 -0.3420  0.1628 -0.0266
 5084W        W47997  12.555   2.812   1.815 -0.5503  0.1536  0.1553
 5085W        W47998  12.631  16.271   4.573  0.0152 -0.1639 -0.1347
 5086W        W47999  18.876  20.855   1.886 -0.1990 -0.2726  0.2422
 5087W        W48000  11.334   2.844   0.022  0.1673  0.0559 -0.3656
 5088W        W48001  11.646   8.821   9.116  0.2014 -0.0966  0.0326
 5089W        W48002  24.348  19.087   9.379 -0.0276 -0.1212 -0.0172
 5090W        W48003  18.338  26.224   7.595 -0.4023  0.0241  0.1289
 5091W        W48004  16.035  33.518   8.338  0.1809  0.2166  0.2065
 5092W        W48005   8.002  22.470   9.345 -0.0012 -0.1640 -0.0892
 5093W        W48006  17.351  24.013  28.150 -0.0149  0.2309  0.0248
 5094W        W48007  15.754  18.838   2.042 -0.2705 -0.0678 -0.1727
 5095W        W48008  18.190  18.408   3.541 -0.0838  0.1027  0.1736
 5096W        W48009  20.017  15.064   3.182  0.1121  0.1417 -0.1999
 5097W        W48010   8.794   8.768  10.974  0.0973 -0.2303 -0.1388
 5098W        W48011  25.935  27.913  27.233 -0.3748  0.0674 -0.1187
 5099W        W48012  10.861  27.968  29.693  0.1727 -0.1951  0.4296
 5100W        W48013  14.841  22.895   8.957  0.2079  0.0294 -0.2370
 5101W        W48014  11.285  24.274   6.181 -0.5004 -0.0291 -0.0837
 5102W        W48015   5.839  15.740   6.935 -0.1770  0.0072 -0.2115
 5103W        W48016  19.949  30.045   2.295 -0.3525  0.1559 -0.1902
 5104W        W48017  24.115  18.285   5.632 -0.4417  0.0064  0.3855
 5105W        W48018  19.539   2.965   2.049 -0.2376 -0.2605  0.3152
 5106W        W48019  16.579  23.948   7.097  0.0967  0.1136  0.1460
 5107W        W48020  24.681  27.446   3.960 -0.0081  0.3229 -0.0471
 5108W        W48021  19.968  25.740   0.978  0.0853 -0.1750 -0.0057
 5109W        W48022  23.336  21.684   5.699 -0.0765 -0.0113 -0.1642
 5110W        W48023  19.770  21.516  27.886  0.3611 -0.2284  0.2944
 5111W        W48024   9.009  25.330   7.579 -0.1899  0.1445  0.0641
 5112W        W48025   7.394  12.730   7.785 -0.4713 -0.0054  0.1224
 5113W        W48026  20.613  28.491   8.383 -0.1878  0.0798  0.0637
 5114W        W48027  14.195  21.964  29.651 -0.1270 -0.2772  0.3105
 5115W        W48028  18.519  23.482   2.152  0.0588 -0.1000  0.2929
 5116W        W48029   2.877  12.756   8.444  0.1308  0.2599  0.0429
 5117W        W48030  23.544  18.628   6.702 -0.3587  0.1783  0.0250
 5118W        W48031  22.649  22.573   4.633  0.0986 -0.0497 -0.2449
 5119W        W48032   5.928  28.416   6.556  0.1751  0.2425  0.1742
 5120W        W48033  11.274  29.577   9.557 -0.0894 -0.4155  0.2960
 5121W        W48034  19.631  22.886   9.069  0.0833 -0.1082  0.2024
 5122W        W48035  20.569  17.921   2.290  0.0181  0.0446  0.2261
 5123W        W48036  18.784  25.689   9.973 -0.1157 -0.0853  0.3051
 5124W        W48037   8.830  23.866  26.099 -0.0057  0.0795 -0.2125
 5125W        W48038  23.201  15.058   0.825 -0.0376 -0.0979 -0.4606
 5126W        W48039  13.720  16.049   6.486  0.0347  0.4862  0.0888
 5127W        W48040  11.062  12.430   4.884 -0.1328 -0.0953  0.1041
 5128W        W48041  10.287  22.292   7.910  0.5212  0.2146 -0.3347
 5129W        W48042  14.201  21.174  28.412 -0.1912 -0.0560 -0.0979
 5130W        W48043  17.156  29.878   1.406  0.3384  0.1776  0.2131
 5131W        W48044  12.942   8.304   1.264 -0.3590 -0.1767 -0.1767
 5132W        W48045  12.103  23.300   8.059 -0.0216 -0.1353 -0.2642
 5133W        W48046   9.887  19.620   0.099 -0.1117 -0.0313  0.1960
 5134W        W48047  14.696  20.632   0.718  0.3070 -0.3460 -0.2135
 5135W        W48048  18.787  27.713  18.756  0.0476  0.1782 -0.2141
 5136W        W48049  22.568  29.728   6.951  0.0886 -0.3674  0.3697
 5137W        W48050  14.220  23.573   7.456  0.2641  0.1818  0.1200
 5138W        W48051  25.023  22.958   4.932  0.1432  0.0407  0.1594
 5139W        W48052  21.572  27.656   6.855  0.1339 -0.2933  0.0713
 5140W        W48053  10.846  24.353   0.229  0.1213  0.1561 -0.0777
 5141W        W48054  16.897  22.200   4.504 -0.0289  0.2386  0.1647
 5142W        W48055  18.146  26.006   8.002 -0.0809 -0.2292 -0.0572
 5143W        W48056  16.507  32.229   1.062  0.2556 -0.0684 -0.0950
 5144W        W48057  14.623  17.341   4.611 -0.0233 -0.1040 -0.2919
 5145W        W48058   9.425   1.137   2.572  0.2245  0.1899  0.2403
 5146W        W48059  19.807  21.087   7.967 -0.1140 -0.0569  0.0347
 5147W        W48060   2.684  28.392   5.730 -0.0343  0.2850  0.2197
 5148W        W48061  14.945  18.508   7.183  0.2278 -0.0651  0.4821
 5149W        W48062  18.384  26.486  29.057 -0.0394  0.0696 -0.2839
 5150W        W48063  15.990  20.912   7.602 -0.0015  0.0441  0.0371
 5151W        W48064  12.209  32.089   6.895  0.1880  0.2339 -0.1067
 5152W        W48065   0.213  30.785   7.015  0.1156 -0.1672 -0.2022
 5153W        W48066  17.910  15.424   0.743 -0.2893  0.2300  0.1540
 5154W        W48067  16.612  30.138   9.683 -0.2121  0.4036 -0.2039
 5155W        W48068  25.497  27.234   6.532 -0.1402 -0.0843 -0.0976
 5156W        W48069  15.489  15.986  23.349  0.0304  0.2487 -0.1129
 5157W        W48070  16.580  25.411   3.283 -0.0093  0.0221  0.1764
 5158W        W48071  15.094  22.145   1.936 -0.1647  0.1157  0.0490
 5159W        W48072  16.578  22.245   3.079 -0.1901  0.2954  0.0058
 5160W        W48073  15.435  17.461   4.840  0.0402  0.0507  0.1888
 5161W        W48074   6.107  23.485   3.203  0.0695  0.0915 -0.1904
 5162W        W48075  13.864  28.614   2.978 -0.1916 -0.2639  0.1186
 5163W        W48076  23.868  17.475   7.374 -0.0304 -0.2319  0.0847
 5164W        W48077  14.871  16.950  23.105  0.0749 -0.0168  0.2108
 5165W        W48078  14.609  27.448   5.748 -0.2454  0.3216  0.1567
 5166W        W48079  10.702  26.561   8.438  0.1831  0.0017  0.1965
 5167W        W48080  15.955  28.788   8.589  0.0657  0.4286  0.1034
 5168W        W48081  18.704   9.539  26.914  0.0195  0.1342 -0.2192
 5169W        W48082   5.009  22.795  23.502  0.2961 -0.2562 -0.1684
 5170W        W48083   2.417  23.034   2.575  0.2024  0.1013 -0.2369
 5171W        W48084  11.051  23.629   7.499  0.3929  0.0881 -0.0238
 5172W        W48085  15.627  29.068  10.491 -0.3498  0.1380 -0.2667
 5173W        W48086  17.745  16.014   4.427 -0.1303  0.0259 -0.1430
 5174W        W48087  16.247  24.639   2.047 -0.0189 -0.1126  0.1494
 5175W        W48088  12.824  23.545   0.233 -0.0821 -0.1893  0.0202
 5176W        W48089  16.138  24.542   9.136  0.0906 -0.1141  0.2274
 5177W        W48090  12.032  11.113   1.311 -0.2970 -0.1538 -0.2026
 5178W        W48091  11.166  28.467   3.590 -0.3350 -0.0890  0.0229
 5179W        W48092  14.293  13.102   3.377  0.0852  0.1401  0.3212
 5180W        W48093  11.924  27.027  10.909 -0.4107 -0.1881 -0.2017
 5181W        W48094  17.140  16.894   3.338 -0.0557 -0.0024 -0.1822
 5182W        W48095  11.110  31.629   6.224  0.0808 -0.0346 -0.2347
 5183W        W48096  16.082   0.328  26.828 -0.0155  0.1136  0.3809
 5184W        W48097  15.853  11.162   4.756  0.4419  0.1635 -0.1755
 5185W        W48098  14.555  29.251  25.663 -0.0974 -0.0342  0.2264
 5186W        W48099  18.126  19.674  26.183  0.0387 -0.1008  0.0363
 5187W        W48100  25.298  19.527   3.962  0.2208 -0.2553 -0.4451
 5188W        W48101   4.920  17.734   4.720 -0.0806 -0.0059 -0.3046
 5189W        W48102  16.931  23.670   5.385  0.2126 -0.2012  0.0609
 5190W        W48103  19.268  22.635   4.707 -0.1155  0.2881 -0.1183
 5191W        W48104  10.913  21.415   5.716 -0.2110 -0.1619 -0.1428
 5192W        W48105  18.832  31.243   0.949  0.1021 -0.0580  0.0208
 5193W        W48106  19.540  19.830   8.425 -0.3490 -0.0337 -0.0978
 5194W        W48107  15.934  20.628  27.685  0.3427 -0.2301  0.1010
 5195W        W48108  14.989  28.237   9.759 -0.2367  0.1491  0.0187
 5196W        W48109   6.111  15.892   5.783 -0.2571 -0.1197  0.1668
 5197W        W48110  19.430  27.310   7.066  0.0400 -0.0861 -0.0143
 5198W        W48111  18.574  31.047   4.548  0.2252  0.1488 -0.0355
 5199W        W48112  14.643  16.954   7.055  0.1171  0.2040 -0.0807
 5200W        W48113  22.437  10.504  28.097  0.4084 -0.2546 -0.0229
 5201W        W48114  15.772  21.423  26.783  0.2616 -0.1410  0.0632
 5202W        W48115  10.381  18.512   0.535 -0.0221  0.0376  0.1010
 5203W        W48116  21.006  27.658   8.527  0.0681 -0.1307 -0.0092
 5204W        W48117  17.579  23.065  24.521 -0.0357 -0.1644 -0.1347
 5205W        W48118   8.568   2.452   4.462 -0.0111 -0.1360  0.0321
 5206W        W48119  17.051  18.298   4.979 -0.0135  0.3226  0.0635
 5207W        W48120  12.438  26.406   2.770  0.2705 -0.0885 -0.0892
 5208W        W48121  13.005   0.717   4.245 -0.3352 -0.0313 -0.0691
 5209W        W48122   9.499  15.634   9.659  0.1710 -0.2297 -0.0219
 5210W        W48123  16.859  25.499   7.288 -0.0134  0.0718 -0.1897
 5211W        W48124  14.294  18.256  26.565 -0.0029 -0.3119 -0.2227
 5212W        W48125  18.148  21.982   2.111  0.1224  0.1063 -0.0808
 5213W        W48126   5.388  13.529  19.477 -0.4074 -0.4218 -0.1047
 5214W        W48127   5.522  22.998   6.455  0.0480 -0.1352 -0.3111
 5215W        W48128  23.718  21.123   6.445 -0.0755 -0.1845  0.3641
 5216W        W48129   4.062  31.838   1.518  0.0249 -0.2759  0.1210
 5217W        W48130  11.225  12.888   8.866 -0.0864 -0.1922  0.1477
 5218W        W48131  16.511  22.207   8.097  0.0757  0.0350  0.0248
 5219W        W48132  18.086  23.340  26.794  0.1771 -0.0647 -0.0780
 5220W        W48133  20.504   9.111   3.244 -0.2614  0.0592 -0.0702
 5221W        W48134  21.953  23.361   7.751 -0.1759  0.1701  0.0266
 5222W        W48135  15.698  27.714   4.183  0.1799 -0.0170  0.1984
 5223W        W48136  23.423  21.750   7.952 -0.3587  0.2063  0.0639
 5224W        W48137   4.885  17.369  27.817  0.3692 -0.0472  0.0605
 5225W        W48138  10.374  28.672   0.681  0.0615  0.1151 -0.0548
 5226W        W48139  11.593  28.532   4.353 -0.0892  0.0045 -0.2098
 5227W        W48140   9.067  19.474   2.363  0.1263 -0.0072  0.1239
 5228W        W48141  11.420  25.194   3.340 -0.1488 -0.1523  0.4279
 5229W        W48142  16.787  25.966  25.727 -0.0856 -0.1417 -0.1020
 5230W        W48143   5.853  29.355   6.463 -0.0837  0.0902  0.3568
 5231W        W48144  23.805  26.625   7.667 -0.0635 -0.0275 -0.1373
 5232W        W48145   7.530  18.736   0.956  0.2228  0.2079 -0.1133
 5233W        W48146   6.795  26.713   8.137  0.1758 -0.0148 -0.3464
 5234W        W48147   7.353  33.585   1.209  0.2056 -0.0735 -0.0281
 5235W        W48148  21.652  14.374   5.199 -0.1273 -0.0454 -0.2490
 5236W        W48149  17.994  30.831  24.464  0.0106  0.0886 -0.0725
 5237W        W48150  15.111  24.631   6.398  0.1534  0.1379 -0.1420
 5238W        W48151  18.771  18.219   7.757  0.0390 -0.0555  0.2544
 5239W        W48152  21.198  25.951   7.945 -0.1212  0.0164 -0.1763
 5240W        W48153  20.547  16.907   6.806 -0.0019  0.1549  0.2781
 5241W        W48154  13.303  25.128  10.119 -0.2495  0.0794 -0.1766
 5242W        W48155  21.041  17.298  21.914  0.0277  0.1854 -0.4322
 5243W        W48156  13.829  28.490   4.347  0.0436 -0.0112  0.2325
 5244W        W48157  19.482  31.960   7.394  0.0942  0.0215  0.0188
 5245W        W48158  22.513  24.105   2.625 -0.0920  0.2526 -0.1348
 5246W        W48159  26.305  21.606   1.773  0.1485  0.1021 -0.5341
 5247W        W48160   6.346  29.301  26.634  0.2177  0.0830  0.3504
 5248W        W48161  16.597  20.306   5.898 -0.0186 -0.0158 -0.1060
 5249W        W48162  18.477  23.074  25.920  0.0047  0.0217  0.0202
 5250W        W48163  10.478  33.442  23.467 -0.1118  0.1486 -0.0058
 5251W        W48164  23.254   2.755  25.998  0.0409 -0.0911  0.3212
 5252W        W48165   6.947  30.922   7.633  0.0144  0.0253  0.1636
 5253W        W48166   8.759  31.301   0.934 -0.0991 -0.1936 -0.0257
 5254W        W48167  19.986  20.810   2.550  0.1409 -0.0840  0.0454
 5255W        W48168  19.492  13.604  28.204 -0.1490  0.0759 -0.1073
 5256W        W48169  17.095  24.814  23.273  0.1228 -0.1885  0.1930
 5257W        W48170  21.855  24.545   6.184 -0.0005 -0.0030 -0.2602
 5258W        W48171   3.998   1.806   7.216  0.1709  0.0015  0.1516
 5259W        W48172   8.998  14.125  24.032 -0.0059 -0.0498  0.0865
 5260W        W48173  12.214  23.074  29.143  0.1506 -0.2783  0.0447
 5261W        W48174  18.470  29.432   8.472 -0.1277 -0.2518  0.1928
 5262W        W48175  29.844  14.574   3.539 -0.1929  0.0298 -0.0694
 5263W        W48176  19.215  23.623   8.453 -0.2451 -0.2769  0.2088
 5264W        W48177  19.352  16.127   8.121  0.1992 -0.1908  0.2070
 5265W        W48178  19.859  17.046   4.632  0.1325 -0.2234  0.0555
 5266W        W48179  10.402   1.046  27.230 -0.1513 -0.0983  0.2251
 5267W        W48180  11.212  31.152   4.877 -0.1953  0.0156  0.0790
 5268W        W48181  17.953  24.734   7.818 -0.1680  0.2115 -0.0065
 5269W        W48182  12.809  19.670   6.486 -0.2099 -0.2089  0.0072
 5270W        W48183  21.694  31.199   6.891  0.1296  0.5044  0.3335
 5271W        W48184  15.671  16.857   8.880 -0.1423 -0.1243  0.0950
 5272W        W48185  22.193  22.415  25.133  0.1588 -0.2045 -0.2208
 5273W        W48186   9.729   9.856   4.325  0.0360  0.2482  0.0386
 5274W        W48187  18.734  19.356  21.298  0.1319 -0.1608  0.0104
 5275W        W48188  15.176   3.238   6.227  0.0926  0.3755  0.2706
 5276W        W48189   5.702  17.914   4.602  0.0104 -0.1030 -0.0858
 5277W        W48190  16.488  17.089   1.954 -0.1223  0.0612 -0.1612
 5278W        W48191  18.454   7.383   1.237  0.1183  0.0598 -0.2622
 5279W        W48192   9.378  25.279   0.830  0.2239 -0.0287  0.3147
 5280W        W48193  13.876  15.957  26.655  0.1448 -0.3802 -0.1644
 5281W        W48194  23.892  24.199   8.186  0.0026 -0.1166 -0.0986
 5282W        W48195  26.020  26.979   3.673  0.2145  0.1360  0.0308
 5283W        W48196  14.156  16.304   6.454 -0.1756 -0.1111  0.0166
 5284W        W48197  17.269  23.134   5.125 -0.4208 -0.2603  0.2752
 5285W        W48198  21.365  15.407  28.587  0.0059  0.2006 -0.1097
 5286W        W48199   9.360  24.369   7.733  0.2349  0.2744 -0.3359
 5287W        W48200  14.128  26.558   7.195  0.0526  0.0438  0.2022
 5288W        W48201  15.687  25.340   6.602 -0.0766  0.0321 -0.0905
 5289W        W48202  21.213  23.961   4.549 -0.4551 -0.1011  0.0181
 5290W        W48203  26.690  19.350  23.622 -0.0106 -0.0480  0.2998
 5291W        W48204  23.760  11.752   3.343  0.0740 -0.4074  0.1575
 5292W        W48205  15.765  22.154   9.224 -0.2167  0.0886  0.0247
 5293W        W48206  27.528  30.761   4.855  0.2039 -0.0859 -0.0390
 5294W        W48207  24.157  18.411   8.508 -0.1475 -0.0388 -0.0228
 5295W        W48208   5.694  19.885   5.789  0.1074  0.0034  0.0277
 5296W        W48209  12.974  12.367   4.347 -0.1143  0.3684  0.0019
 5297W        W48210  22.326  19.980   6.239  0.0975 -0.0675 -0.0873
 5298W        W48211  14.270  15.642   1.416  0.0074  0.0976  0.1209
 5299W        W48212  16.669  25.103   2.823  0.0109 -0.0619 -0.1584
 5300W        W48213  12.270  18.658   3.474 -0.0299  0.1160  0.3364
 5301W        W48214  17.969  29.185  27.491 -0.0832  0.1890 -0.2429
 5302W        W48215  13.652  29.132  11.140  0.1979  0.1204 -0.0452
 5303W        W48216  13.533  25.543   9.852 -0.1117  0.3185  0.1663
 5304W        W48217  15.573  34.120   9.912  0.2759  0.3397 -0.0376
 5305W        W48218  22.834  21.238  24.022  0.1008 -0.1950 -0.2116
 5306W        W48219  19.113  18.850  29.686  0.3446  0.1240  0.1759
 5307W        W48220   9.960  19.223  23.847  0.0747 -0.0625 -0.2711
 5308W        W48221  19.305  20.360  27.533  0.0217  0.2604  0.1591
 5309W        W48222  22.695  32.982   3.011 -0.1674 -0.0496 -0.0890
 5310W        W48223  16.348  30.348   4.092  0.2000  0.0974 -0.0864
 5311W        W48224  19.190  18.883   6.105 -0.0628  0.1829  0.7122
 5312W        W48225  18.176  22.764   8.928  0.0535 -0.2007  0.1805
 5313W        W48226  17.262  21.248   8.703 -0.0760  0.2217  0.1171
 5314W        W48227  18.154  21.466   7.154 -0.1712 -0.1234  0.1629
 5315W        W48228  15.125  21.037   6.476  0.0276  0.1620 -0.1729
 5316W        W48229  20.776  30.693  26.631 -0.1543  0.3779 -0.0198
 5317W        W48230  22.055   9.153  29.059  0.0723 -0.0171 -0.0995
 5318W        W48231  15.201  22.436   2.348 -0.1578  0.0586 -0.1620
 5319W        W48232  18.674  16.761  22.331  0.0329  0.3429  0.3226
 5320W        W48233  12.312  24.432   6.870 -0.0749 -0.2467  0.1918
 5321W        W48234  19.518  15.912   6.740 -0.2661  0.2064  0.1543
 5322W        W48235  20.562  24.619  28.506 -0.0907  0.0580 -0.3379
 5323W        W48236  15.823  20.381   2.992  0.2573 -0.0227 -0.1455
 5324W        W48237  18.621  14.196  28.332  0.0578  0.1400 -0.0812
 5325W        W48238  19.807  17.563   4.690  0.1757  0.2942 -0.3304
 5326W        W48239  16.247  26.433   7.403 -0.0915  0.3869  0.2206
 5327W        W48240  17.665  16.955  22.807  0.1378  0.1255 -0.1644
 5328W        W48241  20.070  18.295   6.995  0.1289  0.1630 -0.0821
 5329W        W48242  14.937  19.505   7.868  0.0300 -0.0301  0.0045
 5330W        W48243  13.223  11.734   3.111  0.1124  0.0701 -0.0613
 5331W        W48244  21.951  23.762  29.297  0.0974 -0.2193 -0.0267
 5332W        W48245  10.619  13.230  19.482  0.0443  0.0805 -0.0138
 5333W        W48246  17.542  22.301   8.457 -0.0909 -0.0298  0.0481
 5334W        W48247  17.608  24.729  23.337 -0.1180  0.0328 -0.1318
 5335W        W48248  15.024  26.695   0.996 -0.1658 -0.1538  0.0623
 5336W        W48249  13.923  22.135  26.484  0.0418  0.0722 -0.1501
 5337W        W48250  24.686  23.955   5.025  0.1342 -0.3864  0.2316
 5338W        W48251  15.849  30.723   8.346 -0.0811 -0.3406  0.1378
 5339W        W48252  11.004  21.507  28.056 -0.4264  0.0349  0.0532
 5340W        W48253  17.612  20.043   2.305 -0.1885  0.0510 -0.0016
 5341W        W48254   0.423  16.512   6.884  0.0413  0.0025 -0.1560
 5342W        W48255  12.768  20.589  29.481 -0.1549 -0.0036  0.2803
 5343W        W48256  17.171  20.277   6.126  0.0264  0.0893 -0.3368
 5344W        W48257  16.997  14.491  24.518  0.0309  0.0997  0.0344
 5345W        W48258  18.798  21.157  29.271 -0.0417 -0.2608 -0.2067
 5346W        W48259  13.863  31.090   1.699 -0.0341  0.0038  0.2735
 5347W        W48260  15.321  11.903   5.802  0.2103 -0.0674  0.1298
 5348W        W48261  17.321  22.979   6.886 -0.1547  0.1294  0.0487
 5349W        W48262  12.410  25.506   5.788 -0.2843 -0.1532 -0.2232
 5350W        W48263   6.118  26.727  28.609 -0.1797 -0.2996 -0.2034
 5351W        W48264  21.037  18.197  28.307 -0.0980 -0.2691  0.1162
 5352W        W48265   7.220  10.050   7.124  0.4733 -0.0120 -0.0504
 5353W        W48266  12.281  13.644   3.358  0.3923  0.0942  0.1069
 5354W        W48267  22.221  14.457   3.695 -0.0181  0.0978 -0.2925
 5355W        W48268  20.535  20.938   7.634 -0.0710  0.1536  0.0060
 5356W        W48269  24.066  19.898  29.235 -0.0829  0.3261 -0.0913
 5357W        W48270  17.328  18.772   3.598 -0.0887  0.2296  0.0200
 5358W        W48271  18.908  14.614   4.404 -0.0181  0.1987 -0.2731
 5359W        W48272  13.951   5.169  20.876  0.0737 -0.1663 -0.1172
 5360W        W48273  28.457  26.416   6.192 -0.5175 -0.0461 -0.1666
 5361W        W48274  17.953  21.846  17.192 -0.1840  0.3220 -0.1163
 5362W        W48275   6.240  17.624   3.410  0.1491 -0.1322 -0.0941
 5363W        W48276  19.973  18.718   6.083  0.0743  0.3251  0.0967
 5364W        W48277  17.629  23.170   8.251 -0.1887  0.0682  0.3568
 5365W        W48278   1.971  15.954   2.926  0.2640 -0.1218 -0.1051
 5366W        W48279  17.010  11.550   4.624 -0.0273 -0.0132  0.0622
 5367W        W48280  10.074  16.631  29.700  0.1121 -0.0470 -0.3893
 5368W        W48281  17.049  21.329  28.403 -0.0677 -0.1689  0.3317
 5369W        W48282  14.413  23.351   0.693  0.1653  0.1879  0.1696
 5370W        W48283  22.197  19.087   1.668 -0.0815  0.2041  0.0431
 5371W        W48284  14.435  18.433  24.378  0.0107  0.0535 -0.1058
 5372W        W48285  17.611   3.260   8.354 -0.1263  0.1345  0.0290
 5373W        W48286   9.028  18.299   7.420  0.2156 -0.1318  0.1650
 5374W        W48287  12.022  20.870   3.661 -0.4865  0.1994 -0.2185
 5375W        W48288  11.805  33.389   2.217 -0.1821 -0.0662 -0.1710
 5376W        W48289  16.389  24.960   6.379  0.0029 -0.0155 -0.1200
 5377W        W48290  20.135  16.875   0.248 -0.1305 -0.3179  0.0608
 5378W        W48291   8.279  13.191   7.800 -0.0374  0.2259  0.0751
 5379W        W48292  20.236  33.084   6.273 -0.0810  0.2576 -0.0540
 5380W        W48293   4.641  30.932   2.560 -0.0873 -0.3708 -0.0800
 5381W        W48294  17.633  24.364   3.997 -0.1694 -0.5199 -0.1984
 5382W        W48295  11.783  32.709   4.743 -0.0181  0.4373 -0.1192
 5383W        W48296  21.794  17.862   6.274 -0.1816  0.1793 -0.4329
 5384W        W48297  18.402  19.455  28.646  0.0165 -0.1329  0.0131
 5385W        W48298  24.357  14.252  29.705  0.1513 -0.1188  0.1280
 5386W        W48299  10.190  33.722   9.369  0.1767 -0.0124 -0.0218
 5387W        W48300  19.059  27.423   8.727  0.0139 -0.2975 -0.1801
 5388W        W48301   9.723  22.508   3.929 -0.0834  0.2569 -0.1637
 5389W        W48302   9.915  30.214   2.203 -0.3439  0.0667  0.0384
 5390W        W48303   6.157  32.123   7.808 -0.3573  0.1927  0.3126
 5391W        W48304  15.750  22.159  27.305 -0.3442 -0.1291 -0.3932
 5392W        W48305  14.600  26.411   9.501  0.3434  0.2978 -0.1773
 5393W        W48306  17.203  23.823   5.876 -0.0732  0.2077 -0.0768
 5394W        W48307  20.821  27.860  25.477  0.3946 -0.2282 -0.3228
 5395W        W48308   8.282   1.377  10.673 -0.2584  0.2213 -0.1283
 5396W        W48309  14.872  24.803   9.817 -0.0561  0.0139 -0.0670
 5397W        W48310   8.317  29.509   2.628 -0.1186 -0.1371  0.1561
 5398W        W48311  16.474  25.805   4.247  0.0115  0.1916 -0.0754
 5399W        W48312  22.079  28.913   5.434 -0.1506  0.0642  0.1156
 5400W        W48313  11.197  33.345   2.324  0.1074 -0.0321  0.2067
 5401W        W48314  22.994  30.034   6.470 -0.1942  0.3063 -0.1173
 5402W        W48315  14.486  25.137   8.920 -0.1271 -0.3700 -0.1894
 5403W        W48316  13.357  30.413   9.470  0.0696 -0.2305 -0.2591
 5404W        W48317  20.159  19.007   4.641  0.0310  0.2490  0.0084
 5405W        W48318  16.215  31.510  11.297 -0.0498 -0.0553 -0.3293
 5406W        W48319   9.925  25.196   8.090 -0.0579  0.2092 -0.1252
 5407W        W48320  16.663  20.851  20.565  0.1013  0.0856  0.0635
 5408W        W48321  15.868  25.764   7.984 -0.3194  0.0842  0.0608
 5409W        W48322   6.749  27.103   9.890  0.1149 -0.4569 -0.0545
 5410W        W48323  12.358   9.781   7.828  0.3288 -0.4122  0.3640
 5411W        W48324  19.836  20.612   3.224 -0.0715  0.2039  0.4898
 5412W        W48325  20.290  14.847   6.574  0.1885  0.0132 -0.0890
 5413W        W48326   6.488  24.099   6.374  0.2033 -0.1445  0.3370
 5414W        W48327   7.967  31.569   8.877  0.3086  0.0157 -0.0855
 5415W        W48328  17.241  28.877   9.286 -0.1575  0.2168 -0.0426
 5416W        W48329  11.063  24.303   5.735 -0.0737  0.1123  0.3935
 5417W        W48330  16.368  27.701   4.420 -0.1000 -0.2129 -0.0086
 5418W        W48331  16.212  23.831   8.479 -0.1576  0.0947 -0.2230
 5419W        W48332   6.762  27.003   7.203 -0.4323 -0.2924  0.1637
 5420W        W48333   8.620  19.326   8.814 -0.0910  0.2072 -0.1567
 5421W        W48334  15.722  18.818  27.892 -0.3747  0.0991 -0.1800
 5422W        W48335  11.095   0.394  28.301  0.4095 -0.0515 -0.0951
 5423W        W48336  12.906  20.958   5.990  0.0421 -0.3548  0.2576
 5424W        W48337  28.236  28.311   2.774 -0.1320 -0.1685 -0.0575
 5425W        W48338   4.166  21.382   6.344  0.3739 -0.0979  0.1699
 5426W        W48339   0.686  22.798   7.370 -0.1510  0.0147  0.0453
 5427W        W48340  25.146  28.015   7.626 -0.1159  0.3033 -0.0399
 5428W        W48341  17.100  14.032   0.490  0.0382 -0.0748 -0.1550
 5429W        W48342  16.559  26.550   2.542  0.0670  0.2603  0.0079
 5430W        W48343  23.655  33.533   6.616 -0.0922 -0.2545  0.0832
 5431W        W48344  11.960  29.974  11.764  0.2308 -0.1229 -0.0100
 5432W        W48345  21.304  23.019  29.095 -0.2234 -0.0491 -0.1480
 5433W        W48346  13.081  17.826   3.785  0.0570 -0.1023 -0.1236
 5434W        W48347  12.894  27.854   8.615 -0.1957 -0.1719  0.1007
 5435W        W48348  16.978  25.485   8.891 -0.0758 -0.4135  0.2055
 5436W        W48349  18.678  19.699   0.908  0.1544 -0.0633  0.1799
 5437W        W48350  19.690  24.140   5.306  0.1895 -0.0063  0.5173
 5438W        W48351  11.407  14.567   4.760 -0.1865  0.0550  0.2577
 5439W        W48352  14.612  18.027   4.804  0.2122 -0.1540 -0.2574
 5440W        W48353  14.907  27.834   9.446 -0.2021 -0.1103  0.0029
 5441W        W48354   9.727  27.035   9.823 -0.1124  0.1889  0.0962
 5442W        W48355  23.812  34.055   3.334 -0.2427 -0.0012  0.1418
 5443W        W48356  15.339  20.427  26.055  0.2356  0.0867  0.1458
 5444W        W48357  18.023  29.106   9.974 -0.1216 -0.2317 -0.2950
 5445W        W48358   2.980  13.279  27.318  0.1492  0.0960 -0.2939
 5446W        W48359   9.327  26.750   4.953  0.0443 -0.1422  0.1898
 5447W        W48360  22.236   9.995   4.428  0.2452  0.1495  0.0728
 5448W        W48361  17.775  26.477   8.031 -0.0986  0.1452  0.1801
 5449W        W48362  25.622  24.914   8.427  0.2218  0.0028 -0.3279
 5450W        W48363  17.602  31.031   9.488 -0.0009  0.3818 -0.2934
 5451W        W48364  10.437   1.965  11.859  0.2922 -0.1957  0.0598
 5452W        W48365  19.009  25.186  26.340 -0.0643  0.0402  0.0245
 5453W        W48366  18.799  34.436   5.667 -0.2169 -0.0433  0.1881
 5454W        W48367  25.989   1.250   8.510 -0.0545 -0.1831 -0.0527
 5455W        W48368   8.016  31.888  27.626 -0.1710  0.0261 -0.0343
 5456W        W48369  21.075  28.179   8.622 -0.1468  0.1944 -0.1281
 5457W        W48370  14.188   8.377   0.398  0.1221  0.1999 -0.1830
 5458W        W48371  12.874  32.443  10.420  0.1373 -0.2989 -0.1273
 5459W        W48372  24.217  20.494   4.096  0.0994  0.3660  0.2892
 5460W        W48373  15.258  21.875  25.711 -0.0576 -0.0454  0.0985
 5461W        W48374  19.512  30.920   2.525 -0.0561  0.3595  0.1282
 5462W        W48375  14.993  25.697   2.402 -0.1165  0.0125  0.0853
 5463W        W48376  18.145  19.408  21.900 -0.2763 -0.0260  0.1078
 5464W        W48377  21.582  32.155   9.769  0.2033 -0.1898  0.0106
 5465W        W48378  10.376  26.237   9.874  0.2266 -0.0618  0.1067
 5466W        W48379  11.063  28.355   1.297  0.0055 -0.1543  0.0635
 5467W        W48380  16.831   4.026  26.916  0.2909 -0.0648  0.0843
 5468W        W48381  22.576  32.270   7.949 -0.2695  0.0572  0.1996
 5469W        W48382   9.397  23.559   0.826 -0.2826 -0.1219  0.3505
 5470W        W48383  19.831  22.225   4.981 -0.1168  0.1423  0.0081
 5471W        W48384  26.854  23.102  29.014  0.3046  0.2832 -0.0701
 5472W        W48385  20.434  27.641   3.419 -0.0252 -0.2429 -0.1725
 5473W        W48386  20.181  27.540   4.250  0.0684 -0.1815 -0.1919
 5474W        W48387  11.820  18.359   3.090  0.1723  0.0943 -0.0270
 5475W        W48388   9.132  20.701   1.360 -0.0883  0.1448  0.2014
 5476W        W48389  22.376  25.806   4.535 -0.0783  0.0756 -0.0327
 5477W        W48390  11.650  19.946   6.002  0.3189 -0.1421 -0.3597
 5478W        W48391  20.912  22.433   3.356  0.0409  0.3065  0.1023
 5479W        W48392   5.175  21.844   5.177  0.0824 -0.0808 -0.0919
 5480W        W48393  14.817  29.005   5.348 -0.1090 -0.0024 -0.0389
 5481W        W48394  18.950  21.364   3.217  0.0815 -0.1717 -0.1168
 5482W        W48395  13.827  29.289   8.441  0.0986 -0.0033 -0.1140
 5483W        W48396  20.332  30.329   2.435  0.0110  0.1816 -0.1568
 5484W        W48397   8.120  18.221   6.778 -0.1621  0.1835  0.1657
 5485W        W48398  19.343  26.220  28.316  0.0122 -0.3872 -0.4303
 5486W        W48399  16.219  28.603  28.264 -0.1073 -0.1427 -0.1429
 5487W        W48400  17.971  29.359  24.916  0.1828  0.0584  0.0940
 5488W        W48401  13.099  25.374   8.651 -0.1201 -0.1752  0.0635
 5489W        W48402  18.885  26.095  28.473  0.0479 -0.2865  0.4856
 5490W        W48403  19.010  18.134   4.602  0.0266 -0.0659  0.1978
 5491W        W48404  14.615  13.546  28.244 -0.1792 -0.0616 -0.0085
 5492W        W48405  13.999  34.331   9.152  0.1820 -0.2885 -0.2491
 5493W        W48406  15.955  31.976   4.225  0.0556  0.2867 -0.1510
 5494W        W48407  13.515  28.695   2.564  0.0098  0.3422 -0.4210
 5495W        W48408  14.536  23.195   8.591  0.0531  0.0826 -0.1848
 5496W        W48409   2.766  13.356   0.996 -0.1087 -0.1184 -0.1050
 5497W        W48410  11.678  23.234   1.819  0.1885 -0.0551  0.1378
 5498W        W48411  13.374  22.602   9.139  0.2135  0.0304  0.0344
 5499W        W48412  17.192  19.007   4.236  0.1899  0.0932 -0.2021
 5500W        W48413  10.663  32.974   9.491 -0.2214  0.1620 -0.2603
 5501W        W48414  19.829  31.079   1.353 -0.3663 -0.2486  0.0210
 5502W        W48415  19.189  26.311   7.026 -0.1655 -0.1761 -0.1948
 5503W        W48416  14.633  31.184   7.530  0.1022  0.2085  0.1053
 5504W        W48417  18.423  27.327   5.035  0.0964 -0.2997 -0.0118
 5505W        W48418  14.446  23.152   9.774  0.3131 -0.3267  0.1289
 5506W        W48419  12.192  22.729   5.539  0.0794 -0.1106 -0.0987
 5507W        W48420  17.444  22.554   5.594  0.2965  0.0359 -0.2774
 5508W        W48421  10.912  30.890   6.733  0.0105  0.1598  0.2489
 5509W        W48422   7.080  26.322   8.529 -0.1290  0.0946 -0.1519
 5510W        W48423  10.736   1.574   8.121  0.1255 -0.1298 -0.1122
 5511W        W48424   6.895  26.741   5.592  0.0248 -0.0196 -0.1434
 5512W        W48425  15.867  19.668   2.178 -0.1622  0.2285 -0.0545
 5513W        W48426  17.968  28.590  10.025 -0.1184  0.1973  0.0435
 5514W        W48427  12.513  22.530   5.172  0.2159 -0.2001 -0.0891
 5515W        W48428  10.501  22.753   9.899 -0.3509 -0.0815  0.3177
 5516W        W48429  16.068  25.099   9.116  0.4469 -0.1104 -0.2235
 5517W        W48430  20.817  20.117  23.032 -0.1494  0.0872 -0.1418
 5518W        W48431  14.670  16.496   1.645  0.0424  0.0383 -0.1201
 5519W        W48432   8.870  24.409   8.746  0.0142  0.3246 -0.1174
 5520W        W48433  15.000  26.895   9.765 -0.0399 -0.1089 -0.0599
 5521W        W48434   9.721  22.782  23.872 -0.1299  0.1783  0.0555
 5522W        W48435  24.138  33.833  24.966 -0.1957  0.2760 -0.0975
 5523W        W48436  20.772  21.036   6.488  0.1283 -0.0693 -0.1246
 5524W        W48437  20.786  23.067  29.046  0.1755  0.0710 -0.0047
 5525W        W48438   7.151  18.334   1.609  0.1355 -0.0405 -0.1242
 5526W        W48439  13.094  24.390  29.106  0.4205 -0.1167  0.0099
 5527W        W48440  13.749  28.401   5.869  0.0388  0.0063  0.1618
 5528W        W48441  12.323  13.969   1.847  0.0907 -0.1866  0.2627
 5529W        W48442  22.827  18.955   3.212 -0.1186 -0.3275  0.1048
 5530W        W48443  16.968  21.845  28.408 -0.0649 -0.2028 -0.2368
 5531W        W48444  14.008  25.958   5.319  0.1611 -0.5058  0.0205
 5532W        W48445  17.759  27.161  10.195  0.0730  0.0664  0.0090
 5533W        W48446  12.803   0.445   2.066 -0.0424  0.1066 -0.1552
 5534W        W48447  15.431  16.463   3.152  0.2247  0.2477 -0.1852
 5535W        W48448  15.014  25.003   7.186  0.4056 -0.1034 -0.1892
 5536W        W48449   8.210  22.809   2.700 -0.0555  0.0778  0.0200
 5537W        W48450  16.184  23.873   9.219  0.1768  0.2577 -0.2002
 5538W        W48451  15.523  30.081   5.864  0.1326  0.2113 -0.0871
 5539W        W48452  20.144  29.344   2.115  0.0253  0.1270 -0.1286
 5540W        W48453  18.399  20.550  25.793  0.1856 -0.2012 -0.2509
 5541W        W48454  18.455  32.729   7.186  0.1551 -0.3098  0.0755
 5542W        W48455  22.230  24.848   8.719 -0.2323  0.1074  0.2016
 5543W        W48456  21.955  24.329   0.655 -0.0442  0.0852  0.1273
 5544W        W48457  23.688  14.762   4.854  0.1129 -0.1123  0.0835
 5545W        W48458  21.743  30.833   2.645 -0.0648  0.0999  0.0535
 5546W        W48459  12.912  27.916   7.031  0.2251 -0.2875  0.0080
 5547W        W48460  21.211  29.641  21.633  0.0015  0.1395 -0.3949
 5548W        W48461  17.564  21.185  29.669 -0.1956  0.0143 -0.4207
 5549W        W48462  16.774  16.247  29.386 -0.0287 -0.3501 -0.2021
 5550W        W48463  16.892  19.732   3.774  0.2668  0.2853 -0.0209
 5551W        W48464  17.486  22.734   5.042 -0.1931 -0.2217  0.3722
 5552W        W48465  16.765  19.327   5.123  0.2307  0.0092  0.2840
 5553W        W48466  14.230  22.504  28.319 -0.0752 -0.2388 -0.1118
 5554W        W48467  20.130  21.542   3.062  0.1269  0.0321 -0.1067
 5555W        W48468  16.012  31.352   0.237 -0.0206  0.2819  0.0469
 5556W        W48469  14.801   4.949   4.777  0.4116  0.1301  0.0301
 5557W        W48470  18.435  25.983   6.510  0.2170 -0.1178  0.0515
 5558W        W48471  13.656  21.951   8.327 -0.0785  0.1291 -0.0962
 5559W        W48472  16.838  20.856   7.603  0.1777  0.1630 -0.0666
 5560W        W48473  29.206  29.763   0.568  0.3933 -0.4789 -0.1230
 5561W        W48474  13.643  27.121   0.142 -0.1161  0.0371  0.3756
 5562W        W48475  15.019  30.130  29.117 -0.0808  0.2227 -0.0664
 5563W        W48476  11.727  27.199   7.066  0.0407 -0.0774 -0.2573
 5564W        W48477  16.958  18.960   7.595 -0.1994  0.2485 -0.2677
 5565W        W48478   9.479  26.227   0.334  0.2205  0.0690 -0.0892
 5566W        W48479  17.845  27.397   5.250 -0.1605 -0.3754 -0.1494
 5567W        W48480  22.081  31.441   8.715  0.0456  0.1273 -0.1821
 5568W        W48481  10.943  18.024   5.566  0.0548  0.2626 -0.1011
 5569W        W48482  24.512  27.353   8.550 -0.0278 -0.0424 -0.2542
 5570W        W48483  15.935  33.754  29.516  0.0263 -0.0404  0.1742
 5571W        W48484  21.009  25.912   5.140 -0.3984  0.0495  0.2550
 5572W        W48485  12.161  17.299  27.706  0.0643 -0.1317 -0.0453
 5573W        W48486  12.797  28.707   6.170  0.3527 -0.4242  0.1832
 5574W        W48487  22.918  30.283  25.489  0.0869  0.0078 -0.0228
 5575W        W48488  20.150  23.486   5.714  0.1985 -0.1130  0.1597
 5576W        W48489  14.878  28.426   2.943 -0.1883  0.0339  0.0539
 5577W        W48490  10.913  27.580  27.175  0.0988  0.0030  0.4016
 5578W        W48491   5.766  31.713  25.275 -0.1048  0.0615  0.0126
 5579W        W48492  13.921  14.096   4.406 -0.0959 -0.0951 -0.1100
 5580W        W48493  13.614  23.234   2.652 -0.1486  0.1589 -0.0945
 5581W        W48494  21.175  24.082   1.724  0.3698 -0.1645  0.1890
 5582W        W48495   7.677  24.371  26.858 -0.0224  0.2235 -0.2815
 5583W        W48496  11.345  20.104   7.146 -0.1608 -0.1492  0.0430
 5584W        W48497  14.070  26.608   7.948 -0.3628  0.0759  0.0445
 5585W        W48498  12.103  27.679   7.951 -0.0379  0.2194 -0.2553
 5586W        W48499  15.359  29.571   6.029 -0.3818 -0.2558  0.1862
 5587W        W48500   8.892  32.017   7.761  0.1697 -0.0264  0.2495
 5588W        W48501  21.991  28.435   3.733 -0.0042  0.0673 -0.3852
 5589W        W48502  17.695  31.190   7.368 -0.0921  0.0622 -0.0184
 5590W        W48503  20.258  23.797   3.448 -0.0448 -0.1141  0.1006
 5591W        W48504  14.659  24.345   4.568 -0.0763 -0.0128  0.0788
 5592W        W48505  19.109  25.775   4.855 -0.3100  0.1033  0.0633
 5593W        W48506  18.965  28.178   8.007 -0.1022 -0.1245 -0.0166
 5594W        W48507  23.237   9.605   6.602  0.0620  0.0481  0.1642
 5595W        W48508  21.319  23.982   0.980 -0.1644 -0.1007  0.1459
 5596W        W48509   4.207  34.172   0.162 -0.2888  0.1171  0.2092
 5597W        W48510  13.085  23.205   7.732 -0.3098  0.2288 -0.0779
 5598W        W48511  21.699  20.860   3.457  0.1117  0.3666  0.0192
 5599W        W48512  14.978  32.209   4.128 -0.1596  0.1394 -0.2273
 5600W        W48513  15.096  16.304   2.093  0.0385 -0.0526 -0.0185
 5601W        W48514  23.801  20.201   5.109  0.4119 -0.0646  0.0722
 5602W        W48515  18.468  18.361   5.514  0.0678 -0.1779 -0.1789
 5603W        W48516   9.663  20.749   9.750 -0.0443  0.4432  0.3285
 5604W        W48517  33.152  24.063   8.544 -0.2003 -0.0876 -0.2633
 5605W        W48518  15.613  15.919  24.002  0.0778 -0.0753  0.0752
 5606W        W48519   7.897  26.477   9.098 -0.2861  0.0379  0.3910
 5607W        W48520  17.512  18.040   7.558 -0.0353 -0.0941  0.0688
 5608W        W48521  22.254  20.087  28.934  0.0900 -0.2069  0.0415
 5609W        W48522  10.963  23.956  27.602 -0.2410  0.0807  0.1575
 5610W        W48523   9.261  27.518   6.323  0.1867  0.1187 -0.0078
 5611W        W48524  13.716  28.840   5.560  0.0580 -0.0934  0.2094
 5612W        W48525  15.409  21.313   8.876  0.2494 -0.0181 -0.1080
 5613W        W48526  12.013  30.535   6.128  0.1566  0.0647  0.1666
 5614W        W48527  25.370   7.134  24.800 -0.1123 -0.1407  0.1743
 5615W        W48528  16.774  19.524   1.307  0.0453 -0.2410  0.0925
 5616W        W48529  12.629  27.353   5.942  0.3840  0.1565 -0.1003
 5617W        W48530  24.228  15.484   0.983 -0.3598 -0.2026 -0.0975
 5618W        W48531  16.716   4.483   8.586  0.0731  0.1154  0.0416
 5619W        W48532  26.727  28.978   7.450 -0.0287  0.0317 -0.0581
 5620W        W48533  11.974   3.622  10.884  0.1400 -0.1725  0.2784
 5621W        W48534  16.107  23.934   1.792 -0.0217  0.1317  0.1090
 5622W        W48535  20.453  23.895   8.868  0.3883 -0.0474  0.1542
 5623W        W48536  13.894  16.690   7.543  0.0169  0.1683 -0.0419
 5624W        W48537  25.961  29.549   6.500  0.1278  0.0509  0.2700
 5625W        W48538  12.322  15.914   5.759 -0.0614 -0.1280  0.1701
 5626W        W48539  18.323  20.380  22.133 -0.3173  0.1303 -0.0492
 5627W        W48540   4.049  27.053   1.391 -0.0889  0.3699 -0.0347
 5628W        W48541  17.718  19.898  26.835  0.1623 -0.1726  0.1647
 5629W        W48542   5.984  30.034   5.357 -0.0991  0.0149 -0.1550
 5630W        W48543  11.247  24.780   9.809  0.0057 -0.0075  0.1583
 5631W        W48544  14.049   6.810   6.960  0.2247 -0.2138 -0.0333
 5632W        W48545  21.474  26.923   7.080 -0.0801  0.0085 -0.3207
 5633W        W48546   5.865  31.753   6.239 -0.1799 -0.2122  0.4906
 5634W        W48547  12.087  30.055   9.779 -0.3357 -0.2297 -0.0606
 5635W        W48548  21.352  33.022   5.335  0.1384 -0.2733 -0.1646
 5636W        W48549  13.589   7.617  28.628  0.1455 -0.2987  0.2585
 5637W        W48550   6.323  24.932   3.307 -0.0114  0.4203  0.0542
 5638W        W48551  15.527  29.415   9.033 -0.1899  0.0603  0.2205
 5639W        W48552  15.294  23.672   9.640 -0.0102  0.0030 -0.0852
 5640W        W48553  15.835  23.961   7.568 -0.1503 -0.1857 -0.2015
 5641W        W48554  27.401   3.709   5.927 -0.0151  0.1512 -0.0690
 5642W        W48555  24.737  22.003   7.938  0.2569 -0.0316  0.0430
 5643W        W48556   7.505  29.708  26.004 -0.1120  0.3373 -0.0280
 5644W        W48557   9.808  18.403  22.068  0.1414 -0.0930  0.0123
 5645W        W48558  23.645  16.517   2.377 -0.1518  0.2498 -0.0971
 5646W        W48559  19.241  26.806   5.808  0.0908  0.1235  0.0772
 5647W        W48560  28.081  25.660   7.197 -0.2611  0.0200  0.1362
 5648W        W48561  19.462  34.461   9.015  0.1606 -0.0198 -0.1915
 5649W        W48562  25.266  21.991   4.514  0.1322  0.2459 -0.2829
 5650W        W48563  21.398  24.632   7.885  0.0259 -0.0742  0.0076
 5651W        W48564  12.198  28.157   7.572  0.0588 -0.1566 -0.1204
 5652W        W48565  24.454   8.929  29.694  0.1587 -0.1092  0.1494
 5653W        W48566  20.989  24.350   0.753 -0.3099 -0.1942  0.1074
 5654W        W48567  15.729  24.251   4.845 -0.1214 -0.5189 -0.1559
 5655W        W48568  13.188  26.072   4.372 -0.1110 -0.2638  0.0917
 5656W        W48569  11.827  30.723  10.628 -0.1775  0.0280 -0.0163
 5657W        W48570  31.672  19.587   4.270 -0.0455  0.2226 -0.2502
 5658W        W48571  12.412  24.907   5.968 -0.1792 -0.2697 -0.0451
 5659W        W48572  16.149  25.463   7.693  0.1179 -0.4020 -0.0317
 5660W        W48573  16.069  24.194  26.195  0.2759 -0.0349 -0.0717
 5661W        W48574   8.260  31.706   0.337 -0.1571 -0.1267 -0.1025
 5662W        W48575  13.588  28.297   9.252  0.0190  0.1204  0.1148
 5663W        W48576   9.929  31.060   4.783 -0.2051  0.4007  0.1596
 5664W        W48577  15.843  24.386   8.218  0.0088 -0.3272 -0.3708
 5665W        W48578  15.475  17.356   3.333  0.0031 -0.2525 -0.1224
 5666W        W48579  15.696  24.433   5.354 -0.1001  0.3140 -0.1568
 5667W        W48580  15.907  29.315   7.777  0.1936 -0.1595 -0.1623
 5668W        W48581  14.579  12.476  28.950 -0.1187 -0.1174 -0.3667
 5669W        W48582  12.968  27.037   7.231  0.0015  0.2858  0.2412
 5670W        W48583  13.038  20.296   7.556  0.1387  0.0809  0.0758
 5671W        W48584  14.680  23.102   2.817  0.1633  0.0268 -0.0564
 5672W        W48585  21.453  30.800   6.561 -0.2102 -0.0163  0.0015
 5673W        W48586  11.223  24.113   8.686 -0.2824  0.0608  0.0851
 5674W        W48587   1.827  32.172   9.217  0.1213  0.0999  0.0008
 5675W        W48588  15.468  20.292   0.621  0.0168  0.0619 -0.0751
 5676W        W48589  15.948  26.888   4.065 -0.1541 -0.0096  0.1216
 5677W        W48590  16.903  32.693  10.097 -0.0233 -0.0647 -0.5068
 5678W        W48591  16.766  34.330   6.964 -0.0401  0.3093 -0.4829
 5679W        W48592  16.912  27.988   7.365  0.3735 -0.2985  0.1590
 5680W        W48593  20.986  16.977  24.995 -0.1502 -0.0587 -0.2018
 5681W        W48594  24.446  24.561   7.432 -0.1932 -0.2942 -0.0616
 5682W        W48595  20.581  24.741   2.685  0.0981 -0.0890 -0.2762
 5683W        W48596   9.161   3.021   8.586  0.5661 -0.1883 -0.0189
 5684W        W48597  19.954  30.581  24.678 -0.2370  0.0599  0.3003
 5685W        W48598  10.189  14.352   4.763  0.4063 -0.2066 -0.1295
 5686W        W48599  12.058  12.821   6.358 -0.0426  0.1236  0.1306
 5687W        W48600  22.688  26.974   6.883  0.0296 -0.1767 -0.3098
 5688W        W48601  25.406  29.902   7.818 -0.0132 -0.2020  0.2156
 5689W        W48602  12.445  30.517   4.722  0.3373  0.0434  0.1639
 5690W        W48603  18.774  22.176  28.277  0.1243  0.2700 -0.0064
 5691W        W48604  19.035  33.247   9.593 -0.1971 -0.2552 -0.1811
 5692W        W48605  12.806  30.049   2.476 -0.0862  0.0850 -0.0269
 5693W        W48606  12.466  26.719  26.117  0.1568  0.3185  0.4057
 5694W        W48607  18.718  25.505   3.188  0.1656 -0.0623  0.1239
 5695W        W48608  17.228  20.081  23.904  0.1186  0.3079  0.0882
 5696W        W48609  23.588  32.158  25.677  0.2323  0.1797  0.0696
 5697W        W48610  16.233  20.740  26.718  0.1289  0.1719  0.0383
 5698W        W48611  11.882  23.722   0.056  0.0972 -0.1182  0.2707
 5699W        W48612  19.938  25.609   9.233 -0.3650  0.0702 -0.0642
 5700W        W48613  10.239  26.170   0.021  0.0680 -0.0002  0.1463
 5701W        W48614  14.855  22.465  22.983 -0.0986 -0.5037 -0.1615
 5702W        W48615  23.372  21.549   2.410  0.0320  0.0495 -0.0084
 5703W        W48616  23.657   3.017   4.410 -0.2055  0.0962 -0.0352
 5704W        W48617  23.168  12.207  25.516 -0.1025 -0.2499 -0.3056
 5705W        W48618  20.193  25.257  13.610  0.1389  0.0014 -0.2011
 5706W        W48619  19.616  25.388   4.254 -0.1720  0.2808  0.0028
 5707W        W48620  19.757  27.265  23.011  0.0467 -0.4241 -0.0717
 5708W        W48621  13.025  24.350  28.583  0.2255 -0.2028  0.0508
 5709W        W48622  13.653  29.690   7.220 -0.0556  0.0110 -0.0428
 5710W        W48623  25.893  30.113   1.626 -0.2839  0.2471 -0.1258
 5711W        W48624  15.551  28.006  22.856  0.0804 -0.1714 -0.2449
 5712W        W48625  12.993  27.185  29.116  0.1539 -0.0566  0.1133
 5713W        W48626  22.498  23.656  26.810  0.1539 -0.1157 -0.1225
 5714W        W48627  20.855  24.708   4.066 -0.1560 -0.2886  0.0177
 5715W        W48628   8.958  21.206   4.677 -0.1648  0.2925 -0.3068
 5716W        W48629  21.326  26.920   1.593  0.0835  0.1273 -0.3733
 5717W        W48630  26.449  26.571  21.229 -0.0117  0.0850  0.2901
 5718W        W48631   1.010  32.862   3.710 -0.3349  0.0859  0.0966
 5719W        W48632  17.946  19.259  25.245 -0.0628 -0.2557  0.5174
 5720W        W48633  17.512  26.607   7.284 -0.1449  0.3208  0.1181
 5721W        W48634  20.125   1.195   9.538  0.0104 -0.2201 -0.2797
 5722W        W48635  22.673  31.501  28.967  0.7079  0.1338 -0.1445
 5723W        W48636  14.304  16.706  29.082 -0.0767 -0.1045  0.3176
 5724W        W48637  15.411   1.305   6.021  0.0030 -0.0648 -0.0514
 5725W        W48638  18.504  21.627  17.299 -0.1146  0.1430  0.0496
 5726W        W48639  22.879  24.955   8.172  0.0569 -0.1653 -0.2422
 5727W        W48640   0.651  18.936   6.104 -0.0893  0.3196  0.0166
 5728W        W48641   5.814  32.966   6.674 -0.0138  0.0621 -0.2207
 5729W        W48642  16.325  29.445  29.084 -0.0592 -0.2372  0.1693
 5730W        W48643   5.844  23.894  29.598  0.2427  0.1848  0.1617
 5731W        W48644  17.970  33.116  27.683  0.0246 -0.2481  0.2228
 5732W        W48645  14.512  21.174   1.052 -0.1937  0.0318 -0.0879
 5733W        W48646  25.550  28.453   8.738  0.1645  0.0513  0.2398
 5734W        W48647  12.595  27.796  22.507  0.0992 -0.0200  0.2521
 5735W        W48648   7.839   8.771  25.999 -0.1138 -0.2351  0.0963
 5736W        W48649  21.365  28.409   3.912  0.0117  0.1717  0.0095
 5737W        W48650   5.350  27.509   1.021  0.1445 -0.5245  0.1583
 5738W        W48651  32.100  26.818   7.934 -0.1305  0.0875  0.2738
 5739W        W48652   9.026   1.327   8.177  0.2370 -0.1521 -0.2618
 5740W        W48653  19.106  22.085  20.415 -0.3831  0.2290 -0.0671
 5741W        W48654  17.184  21.634  29.720 -0.2578  0.0643  0.1396
 5742W        W48655  13.862  24.675   3.367  0.0341  0.1573 -0.1133
 5743W        W48656  16.109   1.348  27.915 -0.2206 -0.2241 -0.0223
 5744W        W48657  24.828   1.202   3.920  0.1966  0.1148 -0.1752
 5745W        W48658  21.750  28.972   8.707  0.1891 -0.4458  0.0489
 5746W        W48659  14.439   3.697   8.845  0.2623 -0.2717  0.3199
 5747W        W48660  13.500  32.672  24.175 -0.0027 -0.1354 -0.1786
 5748W        W48661  14.208  23.244  24.696 -0.0060  0.2081  0.0207
 5749W        W48662  10.578  15.585   5.626  0.2900  0.1287 -0.1483
 5750W        W48663  21.781  21.313   5.703 -0.0957 -0.1677 -0.0415
 5751W        W48664   6.194  29.451  25.950  0.1659 -0.1033 -0.0297
 5752W        W48665  24.417  18.938   6.905 -0.0411  0.3418  0.0491
 5753W        W48666   6.623  25.256  24.376 -0.0450  0.4643  0.0333
 5754W        W48667  10.674  27.980  23.282 -0.2499 -0.2026  0.0518
 5755W        W48668  17.340  22.195  23.256  0.3030 -0.1446  0.1313
 5756W        W48669  22.092  29.727   4.322  0.0644 -0.1872 -0.1093
 5757W        W48670   6.146  29.798   0.680 -0.4464  0.0059  0.0451
 5758W        W48671  26.771   9.072   2.350 -0.1653  0.0120  0.1311
 5759W        W48672  23.557  28.322   6.495 -0.1515  0.0353 -0.0882
 5760W        W48673  23.951   1.739  29.753  0.2289 -0.0792 -0.0283
 5761W        W48674  24.660  21.686  28.222  0.0636 -0.0810  0.1467
 5762W        W48675  16.978   0.033   8.697  0.1165 -0.0271 -0.1837
 5763W        W48676  24.199  26.759   6.679 -0.2837 -0.0340 -0.1007
 5764W        W48677  20.363  22.362  28.866 -0.0616 -0.0541 -0.3530
 5765W        W48678  20.347  19.791   7.439  0.0203  0.1909 -0.0543
 5766W        W48679  15.669  26.842  28.455  0.3263 -0.0075  0.1460
 5767W        W48680  19.030  26.659   7.444  0.1854  0.0231  0.1660
 5768W        W48681  22.869  19.360   2.773 -0.0562  0.0122 -0.1327
 5769W        W48682  29.112  20.662  26.716 -0.1392 -0.1301 -0.0781
 5770W        W48683  16.733  19.683  15.550 -0.0218  0.1658  0.2512
 5771W        W48684  21.344  31.713  25.890 -0.0947  0.0758  0.0833
 5772W        W48685  13.770  24.234   8.486 -0.3784 -0.3354  0.1588
 5773W        W48686   2.717  24.335   5.974  0.3919  0.1856 -0.1743
 5774W        W48687  21.306  21.335  27.957 -0.1662  0.0639 -0.0315
 5775W        W48688  20.007  31.858   9.012 -0.2779  0.4884 -0.1731
 5776W        W48689  23.615  23.673  25.345 -0.0060  0.0641  0.0430
 5777W        W48690   9.574  29.135   2.962 -0.1438 -0.0538 -0.0361
 5778W        W48691   7.304  28.067   5.974 -0.0057 -0.0871  0.0396
 5779W        W48692  23.833  20.086   0.964 -0.1863  0.0024 -0.1837
 5780W        W48693  23.158  19.956   1.638  0.2206  0.3343  0.3701
 5781W        W48694  25.445  30.068  22.526 -0.1028 -0.0666 -0.1437
 5782W        W48695  29.623  28.906  20.735  0.0905  0.0770  0.3883
 5783W        W48696  20.124  20.663  23.375 -0.2772 -0.0727 -0.0667
 5784W        W48697  17.576  20.630   0.912  0.1075 -0.3023 -0.3254
 5785W        W48698  14.084  33.874  22.799 -0.2376  0.2226  0.0662
 5786W        W48699  10.817  22.469  22.043  0.0002 -0.0522  0.1099
 5787W        W48700  19.474  19.187  29.583  0.1871  0.2176 -0.0101
 5788W        W48701  14.494  28.132  25.889 -0.2677 -0.2374  0.3800
 5789W        W48702  15.840  31.519  25.559  0.0022 -0.0426  0.0764
 5790W        W48703  15.770   1.798   3.344 -0.2359  0.0971 -0.0285
 5791W        W48704  11.871  28.665   1.258  0.0034 -0.0604  0.0051
 5792W        W48705  10.307  28.414   2.199 -0.1852 -0.0781  0.2863
 5793W        W48706   1.286   6.551  24.437 -0.2759  0.0983  0.1072
 5794W        W48707  26.258  17.201   6.796  0.2045 -0.1109 -0.0792
 5795W        W48708  20.416  26.653   2.218 -0.1339  0.1130  0.1639
 5796W        W48709  15.620  33.918   2.138  0.0621  0.3383 -0.0207
 5797W        W48710  21.945  31.742   3.102 -0.2224 -0.1363  0.2245
 5798W        W48711  19.008  20.839  26.646 -0.1421 -0.1888 -0.0722
 5799W        W48712  22.374  16.906  19.017 -0.0879 -0.1921  0.3300
 5800W        W48713  16.078   2.004   2.196 -0.2544 -0.2291  0.2538
 5801W        W48714  31.238  23.108   7.859 -0.5654  0.0302 -0.1988
 5802W        W48715  18.247  28.682  27.472  0.2020  0.3420 -0.2443
 5803W        W48716  20.349   6.623   6.411 -0.0946 -0.3364  0.2211
 5804W        W48717  12.656   0.158   0.267 -0.1840 -0.0419 -0.0467
 5805W        W48718  12.333  30.293   3.760 -0.0270 -0.1747 -0.3817
 5806W        W48719  24.628   0.646  22.393  0.1651  0.0680  0.0889
 5807W        W48720   8.963   1.037   3.913  0.1294 -0.0540  0.3188
 5808W        W48721  19.401  21.196  26.781  0.1541 -0.1365  0.2864
 5809W        W48722  14.170  28.702   5.976 -0.0785 -0.0592 -0.1664
 5810W        W48723  18.128  32.111   3.024 -0.3114  0.3578  0.1904
 5811W        W48724  16.105   0.215  28.826  0.0400 -0.0169  0.2753
 5812W        W48725   9.034  28.615   4.086  0.0871  0.0278  0.1472
 5813W        W48726  25.409   1.657  29.636  0.1488 -0.1885  0.1220
 5814W        W48727  20.583  30.673   2.129 -0.0983 -0.0053 -0.0290
 5815W        W48728  12.235  28.758   3.282  0.1319 -0.0362 -0.0083
 5816W        W48729   9.365  18.079  26.796 -0.2059  0.0454  0.1714
 5817W        W48730  10.199  24.382   6.254  0.1047  0.1918 -0.0216
 5818W        W48731  18.267  19.503   4.617 -0.3299  0.3060 -0.0991
 5819W        W48732  14.444  20.224  28.417 -0.0094 -0.0531 -0.1569
 5820W        W48733  22.278  22.945  20.536  0.1697 -0.1273  0.3401
 5821W        W48734  16.813  28.188   9.863  0.2076 -0.0236  0.0694
 5822W        W48735  12.205  20.948  26.919 -0.1099  0.2495  0.1934
 5823W        W48736  14.047  28.554   2.510 -0.1305  0.0034  0.0338
 5824W        W48737  13.404  34.278   1.954 -0.1275 -0.1511  0.2651
 5825W        W48738  16.978  22.671   2.847 -0.2346 -0.3876  0.0263
 5826W        W48739   4.098  31.859  23.799 -0.4800 -0.1367 -0.0184
 5827W        W48740  13.054  22.973   3.001  0.2021 -0.0485 -0.0288
 5828W        W48741  15.960  27.185   5.989 -0.3439 -0.2748  0.0428
 5829W        W48742   7.469  31.432   0.915 -0.1875  0.1407  0.1070
 5830W        W48743  26.784  22.802   3.376  0.0774 -0.0971 -0.2578
 5831W        W48744  15.829  20.409   6.315  0.0558 -0.1878 -0.2369
 5832W        W48745   9.788   3.975   5.089  0.1486 -0.1526 -0.1529
 5833W        W48746  23.528  20.310   4.677 -0.4946 -0.1826  0.1922
 5834W        W48747  12.890  20.732  24.604 -0.1771  0.0288  0.2118
 5835W        W48748  24.954  22.073   7.081  0.0309  0.0317  0.3591
 5836W        W48749  14.197   0.200  10.155 -0.0113  0.3382  0.0508
 5837W        W48750  23.397  27.362   2.009  0.1654 -0.0998 -0.2182
 5838W        W48751  18.436  25.754   5.935  0.0715  0.0440 -0.0113
 5839W        W48752  11.894  21.638  22.988  0.1021 -0.0893 -0.0678
 5840W        W48753  15.952  20.584   2.486  0.4468  0.0002  0.0679
 5841W        W48754  15.559  29.361   2.366 -0.1106 -0.4835  0.3371
 5842W        W48755  21.704  22.998  28.778 -0.0228  0.0718  0.0201
 5843W        W48756  16.292  22.147   8.949 -0.1768  0.3150 -0.0507
 5844W        W48757  16.163  27.537  25.128  0.0310  0.0130  0.2789
 5845W        W48758  15.736  31.074   4.497  0.0106 -0.0397 -0.0768
 5846W        W48759  12.414  28.985   7.570  0.0470 -0.1664 -0.0217
 5847W        W48760  14.527  33.689  10.987 -0.1035  0.2915 -0.0626
 5848W        W48761   3.438  24.077   0.128 -0.1363 -0.4634  0.1188
 5849W        W48762  20.174  19.008  23.790  0.2507 -0.0257  0.0854
 5850W        W48763  17.712  16.024   6.610  0.1183 -0.2275 -0.2089
 5851W        W48764  24.400  30.849   1.848  0.0654 -0.0984  0.3323
 5852W        W48765  23.062  19.473   4.040  0.2967 -0.1068  0.0110
 5853W        W48766  10.608  32.706  10.997 -0.2195 -0.0199  0.2194
 5854W        W48767  14.579   1.929   9.074  0.0415  0.2251  0.1707
 5855W        W48768  21.213  17.351   2.222  0.3667  0.1877  0.1237
 5856W        W48769   3.080  33.622   2.466 -0.0489  0.0824  0.0939
 5857W        W48770  10.603  16.454   0.069 -0.0333 -0.2237  0.0837
 5858W        W48771  20.119  26.474   2.736 -0.2253 -0.1416  0.1874
 5859W        W48772  20.782  24.058  28.742 -0.0583  0.1673  0.1842
 5860W        W48773  20.143  29.675   2.549  0.0562 -0.2470  0.1560
 5861W        W48774  18.626  28.347   7.623 -0.0991 -0.1202  0.0168
 5862W        W48775  19.094  18.024  27.111  0.0394  0.2392 -0.0276
 5863W        W48776  20.006  29.832   3.475  0.1111  0.0442  0.1021
 5864W        W48777  10.014  33.147   6.986 -0.0614  0.0665  0.1093
 5865W        W48778  28.154  31.051  28.027 -0.1003 -0.0991  0.0833
 5866W        W48779   9.781  33.860   7.424 -0.1737 -0.1833  0.1163
 5867W        W48780  24.352  16.220  27.912 -0.1709 -0.1279 -0.1462
 5868W        W48781  25.813  20.658  25.003 -0.1237  0.0340 -0.3659
 5869W        W48782  21.468  24.007   3.106 -0.0973 -0.0120 -0.2377
 5870W        W48783  16.391  24.334   5.067  0.1811  0.4049 -0.3492
 5871W        W48784  20.139  22.876   4.317  0.3503  0.1752 -0.4359
 5872W        W48785  19.048  31.926   6.257  0.3358 -0.1430  0.1034
 5873W        W48786  17.270  33.253   2.887  0.0837 -0.1690 -0.1737
 5874W        W48787  15.537  18.558   3.791  0.4435  0.0204 -0.1612
 5875W        W48788  10.753  27.811   0.692  0.0813 -0.1966  0.2210
 5876W        W48789  21.807  27.736   0.039 -0.1574  0.1353  0.0231
 5877W        W48790  21.596  14.363   1.296 -0.0432 -0.2088 -0.3124
 5878W        W48791  18.005   3.984   5.311 -0.1691 -0.0207 -0.0440
 5879W        W48792  25.299  11.824   9.967  0.0507 -0.0256 -0.0312
 5880W        W48793  14.592  29.432   7.118  0.1529  0.0836  0.0214
 5881W        W48794   7.780  31.375  10.540 -0.1008  0.0486 -0.0360
 5882W        W48795   7.717   1.949   4.598  0.0698 -0.0028  0.3411
 5883W        W48796  15.487  30.816  29.445 -0.1182 -0.1543  0.1141
 5884W        W48797  15.406   0.671  11.136 -0.0162 -0.3687  0.0651
 5885W        W48798   9.624  28.738   0.141 -0.1209  0.1502 -0.0250
 5886W        W48799  18.578  17.804   7.431 -0.2775 -0.0574 -0.1519
 5887W        W48800  11.707  29.135  27.976 -0.0544 -0.0439  0.1981
 5888W        W48801  22.382  29.280   4.086 -0.2407  0.1205  0.1444
 5889W        W48802  12.437  34.253   6.459 -0.4571 -0.4039 -0.1551
 5890W        W48803   8.993  26.330   7.699 -0.1373  0.2885 -0.2849
 5891W        W48804  30.846  22.003  28.827 -0.0897  0.1259 -0.0798
 5892W        W48805  15.440  18.087   4.977  0.0591 -0.0886 -0.0062
 5893W        W48806   8.350   0.375  19.980  0.0676  0.2469  0.1268
 5894W        W48807  20.404  33.993   7.325 -0.0840  0.0415 -0.0459
 5895W        W48808  22.375  21.177  21.801 -0.2379 -0.0088 -0.1606
 5896W        W48809  28.055  22.871  19.818 -0.0344 -0.0115 -0.0536
 5897W        W48810  20.083   1.058  27.948 -0.0434 -0.4179 -0.2908
 5898W        W48811  26.561  13.837   4.388 -0.0973 -0.1225  0.0499
 5899W        W48812  21.168  27.246   0.552 -0.1990  0.2577  0.2118
 5900W        W48813  26.179  26.202   6.930  0.1833  0.0896 -0.0240
 5901W        W48814  22.974  26.932   6.472  0.1130  0.0386 -0.1802
 5902W        W48815  13.866  29.040   4.463 -0.0966 -0.2693  0.1782
 5903W        W48816  21.394  20.775   2.968  0.2251  0.1160  0.0335
 5904W        W48817  12.126  33.582  29.403  0.2512 -0.0271  0.2273
 5905W        W48818   5.620  23.377   5.340  0.1520  0.0399  0.0290
 5906W        W48819  19.378  25.677  19.907 -0.0242 -0.2031  0.0426
 5907W        W48820  30.888  28.106  18.847  0.0301  0.3991  0.2236
 5908W        W48821  13.490  22.616   7.135 -0.3348 -0.2276 -0.0550
 5909W        W48822  19.229  23.790  26.568 -0.1355  0.1905 -0.1913
 5910W        W48823  17.119  33.537  23.784 -0.2207 -0.0597 -0.0364
 5911W        W48824  17.998   1.583   1.713 -0.0221 -0.1064  0.2418
 5912W        W48825  14.313  30.704  29.550 -0.1350 -0.0582  0.0015
 5913W        W48826  16.271  33.049   2.664  0.0628 -0.0344  0.0189
 5914W        W48827  10.599  25.598   6.782  0.0907  0.1788 -0.1712
 5915W        W48828  22.997  21.818   8.312 -0.1802 -0.0584 -0.0156
 5916W        W48829   8.612  19.929   4.635  0.2666  0.3098  0.5788
 5917W        W48830  21.610  27.820  22.176 -0.1665  0.1719 -0.1614
 5918W        W48831  29.252  16.626   1.877 -0.3316 -0.1297 -0.0130
 5919W        W48832  20.059   3.683   9.532  0.0112 -0.1397 -0.2658
 5920W        W48833   4.897  29.632   2.457  0.1013 -0.0050  0.0224
 5921W        W48834  29.236  22.418   3.377  0.1910 -0.0500 -0.0622
 5922W        W48835  15.243  32.239   6.358  0.3775  0.0542 -0.2356
 5923W        W48836  17.393  23.715  28.602  0.2969  0.2897 -0.0543
 5924W        W48837  16.114  32.136  18.471  0.2142 -0.0197  0.0346
 5925W        W48838  21.874  25.274   4.039 -0.0323  0.2845  0.0636
 5926W        W48839  17.832   4.149   3.917  0.0336  0.1633 -0.1158
 5927W        W48840  18.475   1.151   2.685  0.1886  0.0245  0.2272
 5928W        W48841   7.942  31.425   1.133  0.2290 -0.0374 -0.2562
 5929W        W48842  11.824  23.237   5.787  0.1873 -0.0387 -0.1264
 5930W        W48843  16.050  25.119  17.894  0.1546 -0.0565 -0.1527
 5931W        W48844  19.626   3.715   2.083 -0.0002 -0.1622 -0.0173
 5932W        W48845  28.276  26.793  28.894 -0.0975  0.0133 -0.1593
 5933W        W48846  14.962  31.379  28.135  0.0690 -0.2765  0.1328
 5934W        W48847  13.735  28.901   9.608  0.0736  0.1660  0.1897
 5935W        W48848  11.418  27.686   4.603 -0.1607  0.1070 -0.1468
 5936W        W48849  19.934   0.205   4.088  0.0761 -0.1581 -0.0047
 5937W        W48850  19.696  15.751  22.047 -0.0329  0.0293 -0.0458
 5938W        W48851  15.326  26.504   6.946 -0.0389 -0.0554  0.2534
 5939W        W48852  12.583   3.639   0.311  0.0811 -0.0626 -0.3036
 5940W        W48853  16.135  22.101  20.475  0.1169 -0.0317 -0.0246
 5941W        W48854  13.147  32.276   4.776  0.1204  0.1039  0.0387
 5942W        W48855  18.934  26.739   6.244 -0.1868  0.0891 -0.1860
 5943W        W48856  12.485  27.242   7.180  0.0918  0.0489  0.0366
 5944W        W48857  10.491  22.251   2.383 -0.1040 -0.0513 -0.2239
 5945W        W48858  20.937   2.453   4.015  0.3736  0.2218  0.0283
 5946W        W48859  11.085   0.423  12.862 -0.3295 -0.1168 -0.0350
 5947W        W48860  13.468  28.021   6.304 -0.1173 -0.1677  0.2126
 5948W        W48861   7.527  28.422   6.440 -0.0257 -0.1914 -0.0343
 5949W        W48862  11.442  23.069   6.073 -0.3397 -0.0880  0.0160
 5950W        W48863  14.509  24.781   0.182  0.1557 -0.2415  0.0312
 5951W        W48864  23.656  30.225   0.700 -0.1425 -0.0026 -0.0604
 5952W        W48865  24.296  23.667   4.909  0.0338 -0.0995 -0.0217
 5953W        W48866   6.149  31.844   1.372  0.0666  0.0305  0.0038
 5954W        W48867  20.531  31.881   5.267  0.4407 -0.0540  0.3816
 5955W        W48868  15.998   1.446   2.428  0.0905 -0.0920  0.0368
 5956W        W48869  16.441  24.995  27.870 -0.1073 -0.4363  0.0499
 5957W        W48870   7.646  27.289   5.558  0.2424 -0.1217 -0.0197
 5958W        W48871  12.588  23.312   2.822  0.1427 -0.0867 -0.1303
 5959W        W48872  19.198  26.815   7.953 -0.1329 -0.1475  0.3148
 5960W        W48873  13.955  18.854  26.077 -0.0902  0.2085  0.0666
 5961W        W48874  10.410  18.610  25.393 -0.0639  0.2411 -0.0632
 5962W        W48875  14.242  28.406   0.970 -0.0839 -0.1260  0.1652
 5963W        W48876   7.484  20.053   2.243  0.2543 -0.0449  0.0029
 5964W        W48877   9.999  21.338  27.968  0.2610 -0.1779 -0.0835
 5965W        W48878  11.804  24.763   7.557 -0.0856 -0.1382 -0.0061
 5966W        W48879  20.167  33.572   0.202 -0.1007 -0.0679  0.0534
 5967W        W48880  19.608  26.242   3.457  0.3332 -0.0382 -0.0517
 5968W        W48881  19.353   2.971   3.587 -0.0917 -0.1009 -0.2804
 5969W        W48882  22.100  20.006   0.514  0.3636  0.4968 -0.2199
 5970W        W48883  17.937  27.971  27.618  0.0040  0.0471 -0.2554
 5971W        W48884  17.090  28.796  10.204 -0.1164 -0.1807 -0.3411
 5972W        W48885  12.141  20.293   2.418  0.1410  0.3433  0.2963
 5973W        W48886  26.706  28.943   2.095 -0.5370  0.1426 -0.0246
 5974W        W48887   7.172  22.920   1.815  0.1129  0.2492  0.0431
 5975W        W48888  11.475  21.254  28.140 -0.2170  0.5512 -0.0342
 5976W        W48889  17.937  29.643   7.424  0.1654  0.2682  0.0089
 5977W        W48890  20.381  23.407   4.500 -0.3285 -0.0674  0.0258
 5978W        W48891  14.109  19.966   2.333 -0.1678 -0.5071  0.1196
 5979W        W48892  13.568  30.805   3.300  0.0097 -0.0828  0.1697
 5980W        W48893  16.443  26.611   3.505  0.5138  0.2823 -0.1245
 5981W        W48894  21.465  23.689   4.958 -0.0219  0.1769 -0.2793
 5982W        W48895  25.553  27.057   2.830 -0.0160 -0.2641  0.1402
 5983W        W48896  17.635   0.131   0.852 -0.1357  0.1376  0.1679
 5984W        W48897  10.766  26.373  23.461 -0.1148  0.2927 -0.2690
 5985W        W48898  25.374  31.353  25.581  0.0091 -0.2230  0.0249
 5986W        W48899  19.071   1.157   9.904  0.1873  0.1123  0.2941
 5987W        W48900  17.502  11.342   4.825  0.1404  0.1046  0.4033
 5988W        W48901  23.589  24.210   5.947 -0.0315  0.2994 -0.0132
 5989W        W48902  12.807  23.727   2.930  0.1819 -0.1268 -0.2799
 5990W        W48903  20.775  33.761   6.317 -0.7122  0.0472 -0.1439
 5991W        W48904  32.390   1.181   5.511 -0.0609  0.0833 -0.1084
 5992W        W48905  15.703  22.521  25.088 -0.4342  0.2779 -0.0806
 5993W        W48906  10.968  32.054   9.288 -0.2246  0.0390  0.1849
 5994W        W48907   3.192  17.128   3.616  0.2610 -0.1498  0.1522
 5995W        W48908  11.443  27.987   9.378 -0.0399 -0.0153 -0.2102
 5996W        W48909   8.244  23.476  27.810 -0.1282 -0.0625  0.1521
 5997W        W48910  18.894  20.676  25.230 -0.0598 -0.0772  0.2648
 5998W        W48911  25.407  31.426  18.380  0.4079  0.0035 -0.0400
 5999W        W48912  12.304  22.402   5.953  0.0939 -0.3229 -0.1059
 6000W        W48913  23.567   5.428   3.866 -0.2191  0.2487  0.0731
 6001W        W48914  27.345  26.376  26.500  0.1952 -0.0367 -0.1932
 6002W        W48915  21.080  30.317  25.357 -0.2215  0.0675 -0.1102
 6003W        W48916  13.530  18.521  22.754 -0.0114  0.3975  0.1116
 6004W        W48917  19.149  23.240  25.953  0.1901 -0.2777  0.0881
 6005W        W48918  19.873  23.817  27.372 -0.0349 -0.0232 -0.1038
 6006W        W48919   8.550  31.340  26.818  0.2576  0.0533 -0.0069
 6007W        W48920  17.516  27.097   3.169  0.1442  0.6160 -0.0411
 6008W        W48921  13.487  28.893  29.306 -0.1453  0.2539 -0.1389
 6009W        W48922  25.351  17.999   0.593  0.1392  0.0953 -0.0048
 6010W        W48923  26.133  32.270  28.764 -0.1180 -0.2274 -0.0998
 6011W        W48924  27.141  17.716   8.236  0.0607  0.2753 -0.0391
 6012W        W48925  21.673  18.529  28.600 -0.2780 -0.0572 -0.0637
 6013W        W48926  17.306  23.534   2.473 -0.1986 -0.1900 -0.0148
 6014W        W48927  15.622  15.013  15.617  0.2390 -0.0155 -0.1093
 6015W        W48928  24.599  19.607   7.473  0.1544  0.1757 -0.2903
 6016W        W48929  19.432  34.334   2.362  0.0045  0.2121 -0.0454
 6017W        W48930  20.873  30.677  27.373 -0.0411 -0.2415  0.0556
 6018W        W48931   7.931  27.877  26.212 -0.0222  0.2798 -0.3092
 6019W        W48932  11.472  19.305  28.522 -0.0129 -0.1744  0.2013
 6020W        W48933  28.346  26.217  28.706 -0.1250  0.1800 -0.0699
 6021W        W48934  24.931  32.445  14.480  0.1135 -0.1728 -0.1695
 6022W        W48935  20.550   7.517   0.947 -0.3289  0.1611 -0.0087
 6023W        W48936  21.530  25.068  28.065  0.2272  0.1563  0.1225
 6024W        W48937   7.217  32.928   2.541  0.1713  0.0634 -0.0127
 6025W        W48938  15.409   8.370   4.895 -0.1393  0.0923 -0.0205
 6026W        W48939  23.864  29.114  28.914  0.3388  0.0870 -0.2183
 6027W        W48940  23.070  22.282   4.593  0.1237  0.0145  0.4572
 6028W        W48941  22.103  20.421   6.447  0.2679  0.2001 -0.4359
 6029W        W48942  10.779  30.821  20.876  0.3796 -0.2120 -0.1433
 6030W        W48943  30.134  31.984   6.840  0.1433  0.0817  0.2104
 6031W        W48944  11.413  30.865  29.684 -0.0712 -0.1296  0.0612
 6032W        W48945  17.472  25.917   6.618  0.1760 -0.1645 -0.4445
 6033W        W48946  17.808  32.514  22.299  0.0280  0.0856 -0.0363
 6034W        W48947   9.509  24.347   4.139 -0.2486 -0.1645 -0.0166
 6035W        W48948  12.115  27.608   3.815 -0.0872  0.1835  0.2781
 6036W        W48949  17.858  30.635   9.131 -0.0343 -0.0906 -0.0521
 6037W        W48950  14.664  28.433   8.780  0.1187  0.0743  0.1109
 6038W        W48951   7.576  33.194  20.905  0.1056  0.1176 -0.2390
 6039W        W48952  20.187  31.465   7.114  0.1189 -0.0533 -0.1755
 6040W        W48953   9.584  31.095   0.166  0.0267 -0.1115  0.0593
 6041W        W48954  26.807  26.807  24.544 -0.2097  0.0770  0.5820
 6042W        W48955  10.218  26.831   6.384 -0.1068 -0.1525  0.1207
 6043W        W48956  20.384  23.037   3.886 -0.1701  0.1859  0.0314
 6044W        W48957  12.469  30.137  25.252 -0.1660  0.3153  0.1619
 6045W        W48958  18.789  26.057   4.442  0.0537 -0.0644  0.0655
 6046W        W48959   9.773  19.728   3.877  0.1786 -0.0554  0.1197
 6047W        W48960  24.504  27.419   6.962  0.0088  0.0190 -0.1199
 6048W        W48961  11.816  17.621   6.807 -0.1916  0.2064 -0.0329
 6049W        W48962  10.338   0.597   1.620  0.0657 -0.1092 -0.0183
 6050W        W48963  28.166   1.623  28.954  0.0496 -0.0294  0.0843
 6051W        W48964  29.381  26.295   7.811  0.0018 -0.1315 -0.1121
 6052W        W48965   9.345  31.005  26.147 -0.1614 -0.0837 -0.1663
 6053W        W48966  21.272  21.560   7.465 -0.2132 -0.0083 -0.3083
 6054W        W48967  21.639  26.083  12.746  0.0207  0.1780 -0.1999
 6055W        W48968   8.788  30.162   0.241  0.4371  0.4404 -0.3852
 6056W        W48969  21.321  18.093   6.368  0.3463 -0.0995 -0.1646
 6057W        W48970   4.811  33.690   7.481  0.2258 -0.0306  0.2069
 6058W        W48971  12.953  31.605   6.526 -0.2562 -0.1320 -0.3069
 6059W        W48972  19.945  26.542  25.591  0.0091  0.1670  0.0384
 6060W        W48973  17.881  34.339   0.505  0.0573 -0.2497  0.1027
 6061W        W48974  14.797  17.296  25.370  0.5958  0.2426  0.1535
 6062W        W48975   2.208  18.502   0.010  0.1946  0.1092 -0.0381
 6063W        W48976  22.992  31.613   1.127 -0.3498  0.0340 -0.3453
 6064W        W48977  22.544  32.576  16.755 -0.1472  0.0475 -0.0254
 6065W        W48978  13.019  19.287  22.264 -0.0866  0.2113  0.1168
 6066W        W48979   8.257  26.893  21.316  0.1607  0.0108 -0.2856
 6067W        W48980  10.797  30.535   8.098 -0.1144 -0.0841 -0.0187
 6068W        W48981  15.188  20.430   1.110  0.2607  0.1832 -0.1945
 6069W        W48982  31.004  24.271   4.077  0.1606  0.1024  0.0919
 6070W        W48983  12.005  33.537   4.302 -0.0760 -0.4148 -0.0944
 6071W        W48984  18.590  20.797  27.038  0.1662  0.0662  0.1901
 6072W        W48985  21.245  26.494  26.044  0.1178  0.2068  0.1819
 6073W        W48986  27.400  33.387   7.340 -0.0800 -0.0560 -0.0906
 6074W        W48987   9.068  19.860  23.306  0.3441  0.2211 -0.0163
 6075W        W48988   7.957  16.514   6.988  0.2261 -0.2177 -0.1301
 6076W        W48989  17.487   1.489   2.558 -0.1803  0.3461 -0.4039
 6077W        W48990  22.745  34.163  27.324  0.3322  0.3499  0.0146
 6078W        W48991  12.950  24.568   1.686  0.1338  0.0267 -0.1584
 6079W        W48992  20.820  21.372   2.539  0.1238 -0.0060  0.0043
 6080W        W48993  27.134   4.273  26.971  0.0092  0.2684 -0.0933
 6081W        W48994  28.552  28.098   2.102 -0.1275  0.0944  0.0397
 6082W        W48995   8.453  28.769  29.404 -0.0308  0.0411 -0.1728
 6083W        W48996  18.433   7.728   5.196 -0.0891 -0.1661  0.0596
 6084W        W48997  24.453  32.279   3.451 -0.1040  0.2172  0.1974
 6085W        W48998  14.591  28.821  27.949  0.1124  0.0315  0.1830
 6086W        W48999  28.208  15.200   5.523  0.4072 -0.0374  0.3934
 6087W        W49000  20.593  27.821   4.384  0.0595 -0.0337 -0.0704
 6088W        W49001  24.287  27.114   6.270  0.1592 -0.0310  0.0501
 6089W        W49002   9.006  24.037  24.441 -0.1465 -0.0135  0.0219
 6090W        W49003  25.710  33.863  29.432 -0.2325 -0.0286  0.3109
 6091W        W49004  19.487  23.437   1.754 -0.1690  0.3349  0.0201
 6092W        W49005  17.198   1.659  10.238 -0.0411 -0.0026 -0.2592
 6093W        W49006  21.044  19.470   1.445  0.0841 -0.0762 -0.1788
 6094W        W49007  24.246  21.233  27.127  0.1405 -0.0730  0.3375
 6095W        W49008  16.721  28.203   1.991  0.1590  0.2672 -0.2973
 6096W        W49009  17.982  14.567   2.086  0.3018 -0.0143 -0.0419
 6097W        W49010  12.496  21.990   1.941 -0.1920  0.2272  0.0490
 6098W        W49011  25.674  27.286   1.239 -0.0998  0.1080  0.0030
 6099W        W49012  25.972  30.635   9.184  0.0131 -0.0001 -0.3307
 6100W        W49013  11.150  25.640  25.210 -0.2438 -0.0089  0.2386
 6101W        W49014  25.062  24.456  24.710  0.2636 -0.0903  0.1970
 6102W        W49015  18.310  31.259   4.891 -0.2730 -0.3903 -0.0883
 6103W        W49016  20.481   0.067   9.111 -0.0884  0.1123  0.0713
 6104W        W49017  15.156  21.901   8.445 -0.2118 -0.1650 -0.0241
 6105W        W49018  11.196  19.369  29.111  0.1949 -0.2176 -0.1544
 6106W        W49019  19.437  28.069   1.283  0.1991  0.2523  0.1656
 6107W        W49020  12.761  17.665  19.578  0.0551  0.0714  0.0929
 6108W        W49021  14.214  29.090   9.356 -0.0452 -0.0346 -0.2193
 6109W        W49022   7.111  19.626   7.482 -0.0255 -0.0408  0.1835
 6110W        W49023  16.809  26.462   3.174  0.1394 -0.3341  0.0257
 6111W        W49024  19.622  20.866   5.208  0.0505 -0.0028  0.0779
 6112W        W49025  12.078  17.606   7.601  0.3260 -0.2507 -0.1703
 6113W        W49026  17.013  23.907   0.836 -0.0068 -0.1240  0.0799
 6114W        W49027  19.869  33.514   0.962 -0.1401  0.3085  0.0733
 6115W        W49028  10.872  24.036   9.635  0.2663  0.1366  0.1650
 6116W        W49029  14.696  33.976  29.340 -0.0075 -0.1226 -0.4538
 6117W        W49030  12.988  26.357   2.516 -0.0395  0.0827  0.1454
 6118W        W49031  27.262  29.136   0.330 -0.1647  0.2444  0.0959
 6119W        W49032  10.236  32.342   5.686  0.0305 -0.1518 -0.2629
 6120W        W49033  26.198   3.033   4.783 -0.2393  0.0822 -0.0895
 6121W        W49034   0.938  25.650   1.197 -0.1979 -0.0536  0.3020
 6122W        W49035  16.611  19.707   4.234 -0.0308 -0.2874  0.2147
 6123W        W49036  15.864  26.691   5.256  0.3632  0.1753 -0.0960
 6124W        W49037  15.716   0.566  28.005 -0.1637 -0.1853 -0.0078
 6125W        W49038  17.627  25.583   6.137  0.3693 -0.1058  0.2594
 6126W        W49039  18.797  24.503   5.035 -0.1364  0.0911 -0.0447
 6127W        W49040  18.789  26.576   7.863  0.0649 -0.1512  0.2225
 6128W        W49041  12.728  32.367  11.871  0.1864  0.0515  0.0477
 6129W        W49042  16.968  26.299   4.936  0.2419  0.3210 -0.1562
 6130W        W49043  25.644  29.034   0.141 -0.0583  0.0929  0.0773
 6131W        W49044  14.710  27.263   3.931 -0.0865 -0.0314  0.2261
 6132W        W49045  16.919   1.789  27.996 -0.1446 -0.1587  0.1143
 6133W        W49046  16.820  33.628   7.360 -0.1092  0.0432  0.3688
 6134W        W49047  20.988  20.315  20.216 -0.0470 -0.1518 -0.3880
 6135W        W49048   9.257  28.338  25.175  0.1959  0.0202  0.1098
 6136W        W49049  11.924  29.689   2.804 -0.0631  0.1808 -0.0310
 6137W        W49050  14.344  23.906   2.977  0.0354 -0.0981 -0.3823
 6138W        W49051  19.103  26.620   8.941  0.1243  0.3238 -0.1160
 6139W        W49052  19.157  22.092   0.646  0.5171 -0.1801  0.1155
 6140W        W49053  23.868  13.681   1.483 -0.0431 -0.1933 -0.1272
 6141W        W49054  26.366   2.646   1.971 -0.0246 -0.1437 -0.1189
 6142W        W49055  22.553  31.270   3.480  0.2161 -0.0720 -0.2569
 6143W        W49056  19.395  23.025   5.476 -0.0876 -0.1476  0.1839
 6144W        W49057  14.126   0.809   4.548 -0.0133 -0.1060  0.3876
 6145W        W49058  20.611  34.413   5.826 -0.0446  0.1056 -0.1476
 6146W        W49059  10.876  30.239  26.239  0.2950  0.0189  0.1894
 6147W        W49060  26.773  11.814   6.263  0.6834 -0.0075 -0.2110
 6148W        W49061  18.250  26.019   8.859 -0.1017 -0.0107 -0.1088
 6149W        W49062  12.157  13.514  27.157 -0.0319 -0.4653 -0.0518
 6150W        W49063  18.906  28.595   7.199  0.0528  0.1816  0.3616
 6151W        W49064  13.720  22.302   0.249 -0.2906  0.3571  0.0661
 6152W        W49065  19.900   5.559   0.611  0.0864 -0.2259  0.1780
 6153W        W49066  17.803  16.687   1.853  0.0273  0.3311  0.0875
 6154W        W49067   9.629  32.176  10.404  0.0348  0.1579 -0.1656
 6155W        W49068  18.730  24.216  22.713 -0.1458  0.0182  0.3085
 6156W        W49069  20.448  28.076   1.337  0.0108 -0.5292 -0.1399
 6157W        W49070  11.113  19.591   6.793  0.3369  0.2492 -0.2569
 6158W        W49071  18.945  16.466   3.101 -0.0342 -0.2094 -0.2528
 6159W        W49072  17.688  25.721  27.353  0.3601  0.0189  0.4353
 6160W        W49073  16.154  23.767   5.830  0.0227  0.0411 -0.0229
 6161W        W49074   0.905  32.743   8.995  0.0651 -0.0941  0.1029
 6162W        W49075  19.235  25.454  25.135  0.4834  0.3647  0.2073
 6163W        W49076  17.001  19.779  28.842 -0.2067  0.2040  0.1347
 6164W        W49077  15.083  28.743   8.363  0.3729 -0.0279  0.1039
 6165W        W49078   9.647  24.540   2.097  0.1451 -0.1776 -0.1165
 6166W        W49079  12.623  25.004   1.118 -0.0386  0.1607 -0.1281
 6167W        W49080  18.045  21.703   8.929 -0.2235  0.1539  0.0303
 6168W        W49081  18.060  30.145   2.659 -0.3629  0.1175  0.0036
 6169W        W49082   5.443  32.862   8.081  0.0455  0.2262  0.2036
 6170W        W49083  14.146  28.007   8.098 -0.0458  0.0822  0.1387
 6171W        W49084  12.439  26.274   9.054  0.0611 -0.3126 -0.1852
 6172W        W49085  19.788  32.319   3.514 -0.0312 -0.1764  0.3578
 6173W        W49086  21.711  16.747   3.560  0.0977 -0.2184  0.3693
 6174W        W49087  20.502  27.107   4.433 -0.0401  0.5137 -0.1394
 6175W        W49088  13.089   5.915   1.564 -0.1759 -0.0298 -0.3200
 6176W        W49089  12.482  25.576   9.733  0.2042 -0.0644  0.1005
 6177W        W49090  20.733   1.847   7.370 -0.1506 -0.0081  0.2420
 6178W        W49091  10.749   3.118   4.283 -0.0738  0.0230 -0.0697
 6179W        W49092   6.967  33.299   7.982 -0.0902 -0.1252 -0.2355
 6180W        W49093  13.268  25.140   2.279  0.3434  0.0915 -0.1801
 6181W        W49094  23.991  28.118   0.780  0.1438 -0.1126  0.1088
 6182W        W49095  26.013  27.232   2.546 -0.0514  0.0607  0.3296
 6183W        W49096  12.011  25.806  29.707 -0.2384  0.0959  0.0123
 6184W        W49097  10.184  31.885   3.089 -0.0272  0.0763  0.2729
 6185W        W49098  22.775  23.876   7.837 -0.2030  0.2033  0.0884
 6186W        W49099  18.491  30.117  10.128 -0.1443  0.3034  0.0718
 6187W        W49100  16.021  18.596  29.537 -0.1910  0.0403  0.1725
 6188W        W49101  21.795  27.761  29.259  0.0152 -0.0691 -0.2329
 6189W        W49102  21.389   9.733  23.114  0.1445 -0.1865  0.0085
 6190W        W49103  14.951   8.478   6.561 -0.1941 -0.1953 -0.0272
 6191W        W49104  13.455  24.702   2.451  0.0382  0.0451 -0.0765
 6192W        W49105   4.398  19.918   7.968  0.5592  0.2907 -0.2323
 6193W        W49106  24.215  22.279   0.479 -0.0074 -0.1312 -0.0981
 6194W        W49107  24.118  30.810  27.749 -0.0186  0.1420 -0.0367
 6195W        W49108  22.510  29.430  24.650  0.0907  0.1142 -0.0338
 6196W        W49109   5.209  22.580   6.585 -0.0969  0.2839  0.2590
 6197W        W49110  15.155  27.288   2.134 -0.0707 -0.2458  0.3666
 6198W        W49111  22.376  20.972   1.191  0.0088  0.1377 -0.2348
 6199W        W49112  21.229  17.590  28.606  0.3248  0.0211 -0.0400
 6200W        W49113  22.043   6.095   4.475 -0.2989  0.1439  0.0920
 6201W        W49114  13.929  23.447   8.389 -0.1101 -0.0229  0.0969
 6202W        W49115  18.872  33.193   7.600  0.0361 -0.0782 -0.1765
 6203W        W49116  11.827  27.693  10.320  0.1810  0.0490  0.1170
 6204W        W49117  21.516  24.215   8.329 -0.2105  0.1851 -0.3561
 6205W        W49118  14.534  28.036  28.448 -0.0181 -0.3188 -0.0563
 6206W        W49119  30.378  28.748  25.214 -0.1127  0.1778  0.0152
 6207W        W49120  14.787  29.398  10.542  0.2128 -0.0038  0.0680
 6208W        W49121  20.427  28.880   8.125  0.1917 -0.0489 -0.0946
 6209W        W49122   6.389  28.307   8.753  0.2815 -0.1945 -0.1078
 6210W        W49123   7.661  32.919   1.681  0.1161 -0.2978 -0.3725
 6211W        W49124  22.863  33.986  29.105  0.2292 -0.0384 -0.2809
 6212W        W49125   8.308  31.372   2.305 -0.1055  0.0751  0.1055
 6213W        W49126  16.548  13.242   1.004  0.0373  0.2063  0.1662
 6214W        W49127  12.540  32.085  10.331  0.0647  0.3947 -0.0965
 6215W        W49128  11.887  22.601  21.810  0.0314 -0.0443  0.0494
 6216W        W49129  17.508  25.981   9.605 -0.2069 -0.0189 -0.1349
 6217W        W49130  20.406  30.258   0.439  0.2072  0.1321 -0.3319
 6218W        W49131   8.489  32.658   4.217  0.1980 -0.1566  0.0787
 6219W        W49132  14.514  21.587   7.563 -0.3108  0.2264 -0.0199
 6220W        W49133   1.427  33.559   9.049  0.0476  0.0552 -0.2195
 6221W        W49134  17.572  31.566   4.473  0.0427 -0.0943 -0.2024
 6222W        W49135  13.891  20.885   4.384 -0.3190  0.1940  0.4023
 6223W        W49136  21.894  20.491   6.932  0.0540  0.0348  0.2089
 6224W        W49137   5.343  29.284   3.918 -0.1767 -0.1031  0.1548
 6225W        W49138   8.047  29.934  28.183  0.1472 -0.2697 -0.0445
 6226W        W49139  22.935  17.467  28.915  0.0540 -0.1594  0.0831
 6227W        W49140  24.777  22.377   6.177  0.1816 -0.0934 -0.0126
 6228W        W49141  21.186  32.539   5.309  0.2776  0.0091  0.1482
 6229W        W49142  11.513  25.427   6.909 -0.0084  0.1024  0.0913
 6230W        W49143  22.156   2.932   6.607 -0.0221  0.4571  0.1939
 6231W        W49144  13.767  32.953   7.612 -0.0947 -0.2207 -0.2930
 6232W        W49145  24.244  26.346   4.835 -0.1449  0.0757 -0.2731
 6233W        W49146  18.019  20.453  22.969  0.2168  0.0586 -0.3417
 6234W        W49147  17.305  18.329   8.280  0.2918  0.1198 -0.0826
 6235W        W49148  17.364  17.799   8.112  0.2348 -0.0429 -0.2501
 6236W        W49149  20.521  13.040   5.979  0.0379 -0.0748 -0.2646
 6237W        W49150  23.806  30.210   6.434 -0.0047  0.2074 -0.0530
 6238W        W49151   6.628  32.224   7.031 -0.0274 -0.2071  0.1284
 6239W        W49152  15.712   0.766   2.456 -0.1010  0.1355  0.1322
 6240W        W49153  17.800  21.875   4.852 -0.1725 -0.0098 -0.4413
 6241W        W49154  16.507  24.191   1.948  0.2737  0.0723 -0.0661
 6242W        W49155  20.805  28.560   6.564  0.0550 -0.2461  0.0619
 6243W        W49156  14.781  29.467   3.010 -0.0619  0.0081  0.1379
 6244W        W49157  13.994  22.635  23.983  0.3447  0.1079  0.2693
 6245W        W49158  13.720  33.719  23.053  0.0599 -0.1531 -0.1513
 6246W        W49159   9.616   0.312  26.176 -0.2420 -0.3096 -0.1870
 6247W        W49160  19.890  19.299   2.471 -0.0409  0.3264 -0.1288
 6248W        W49161  21.352  19.460   7.251 -0.1883  0.3267 -0.0341
 6249W        W49162  24.288  25.666   6.998  0.1694  0.1166 -0.2007
 6250W        W49163  17.382  19.544   2.450  0.2524  0.0167 -0.0186
 6251W        W49164  10.627  19.373   7.682  0.0350  0.2009 -0.0912
 6252W        W49165  15.398  25.062   7.522 -0.0518 -0.1543 -0.0574
 6253W        W49166  14.988   2.194   6.288 -0.0450  0.0971 -0.0751
 6254W        W49167  14.223   5.937   9.342 -0.1243 -0.2038  0.0195
 6255W        W49168  21.678  32.925   2.557  0.0865  0.0413  0.1199
 6256W        W49169  18.787  15.170  28.050  0.0689 -0.0363  0.0009
 6257W        W49170  16.773  28.899   4.057  0.2279 -0.1889 -0.1921
 6258W        W49171  10.181  34.129  12.214 -0.0437  0.0408  0.0219
 6259W        W49172  11.001  16.980  28.907 -0.0226 -0.2526 -0.1450
 6260W        W49173  15.932  32.136   5.560 -0.2544 -0.3615  0.1481
 6261W        W49174  16.552  24.313  26.272 -0.0057  0.2062 -0.1036
 6262W        W49175  25.982  16.134   8.323 -0.3430 -0.1346 -0.0138
 6263W        W49176  12.340  28.018   6.969  0.0998 -0.0773 -0.3922
 6264W        W49177  27.518  20.049  24.600 -0.1857 -0.1166  0.0306
 6265W        W49178  28.685  30.171   5.617  0.1936  0.0202  0.2209
 6266W        W49179  17.048  29.132  25.939 -0.0714  0.1286  0.1642
 6267W        W49180  19.286  18.423   6.799 -0.0782 -0.2148 -0.2849
 6268W        W49181   8.910  28.524   9.443 -0.1384 -0.1289 -0.2488
 6269W        W49182  24.301  17.690   4.096  0.1280  0.0758 -0.0857
 6270W        W49183  17.450  21.718  27.383 -0.3322 -0.0310  0.0760
 6271W        W49184  11.895   1.353   8.968  0.3374  0.1453 -0.0922
 6272W        W49185  22.253  26.601   5.504 -0.0820  0.2377  0.3817
 6273W        W49186  18.547  25.301   6.080  0.1125  0.1224  0.2241
 6274W        W49187  23.375  25.121   8.202 -0.0580 -0.0360  0.0186
 6275W        W49188  17.063  29.250   4.157 -0.1059 -0.0440  0.1989
 6276W        W49189   4.052  21.800   3.215 -0.1703 -0.3036  0.2058
 6277W        W49190  16.344   2.590  10.526  0.1531 -0.2050  0.3566
 6278W        W49191  19.247  29.293   7.503 -0.1546  0.1772  0.1673
 6279W        W49192   7.757  31.829   8.093 -0.1608  0.2473 -0.2840
 6280W        W49193  14.174  27.275   3.466 -0.1918 -0.0086  0.1596
 6281W        W49194  18.510  19.646   5.873 -0.1072 -0.0844 -0.1548
 6282W        W49195  17.197  33.611   6.023 -0.2064 -0.2148  0.0092
 6283W        W49196  34.293  27.524  26.316  0.0375 -0.1646  0.0012
 6284W        W49197  18.827  30.589   9.734  0.3393  0.0052 -0.0139
 6285W        W49198  28.564  20.375   3.525  0.0986 -0.1527 -0.0559
 6286W        W49199  17.577  29.182   8.091 -0.1135 -0.0141 -0.3081
 6287W        W49200  12.678  23.295   7.472  0.1657  0.1633  0.1856
 6288W        W49201  13.283   1.973   1.746  0.3428  0.1144  0.1417
 6289W        W49202  19.827  19.873   7.293  0.0769 -0.0152  0.1051
 6290W        W49203  12.616  30.486   2.655  0.2166  0.1280  0.0477
 6291W        W49204  12.545  21.061   8.513 -0.0650 -0.1202  0.4158
 6292W        W49205   8.990  28.956   9.216 -0.2740 -0.2274 -0.0105
 6293W        W49206  21.034  27.533   4.568 -0.2080 -0.1135 -0.1032
 6294W        W49207  25.318  19.761   7.226  0.1391 -0.1277  0.1718
 6295W        W49208  12.708  25.448   0.240  0.0352 -0.0354  0.2817
 6296W        W49209  20.281  24.182  28.707 -0.3509  0.1586 -0.1372
 6297W        W49210   9.616  23.337   8.965 -0.2981 -0.1147  0.2494
 6298W        W49211  28.064  22.253   6.013 -0.0570 -0.0139  0.0273
 6299W        W49212  16.045  19.794  25.967 -0.1703  0.0623 -0.2610
 6300W        W49213  17.165  18.415  27.647 -0.2458 -0.0772  0.0165
 6301W        W49214   5.491  33.485   6.758  0.1452 -0.1720 -0.0693
 6302W        W49215  26.532  27.128   4.439 -0.1635 -0.2954 -0.2346
 6303W        W49216   8.541  18.386   7.303  0.0608 -0.0678 -0.1624
 6304W        W49217  18.838  28.686   2.109 -0.0871 -0.0657  0.0204
 6305W        W49218  11.842  29.817  10.768 -0.4458  0.1682  0.0611
 6306W        W49219  17.114  12.872   7.895  0.0891 -0.1276  0.0639
 6307W        W49220  18.311  29.409  26.293  0.1744  0.1554  0.0760
 6308W        W49221   9.386   0.678  11.575  0.0531 -0.1971 -0.2559
 6309W        W49222  17.039  29.264   5.916  0.0119 -0.0032  0.2508
 6310W        W49223  20.587  20.634   6.694  0.2827 -0.3095 -0.0663
 6311W        W49224  26.971  18.706   8.187 -0.1408  0.0186  0.1791
 6312W        W49225  10.001  24.353   5.446 -0.1470  0.0088 -0.2788
 6313W        W49226  27.581  29.916   6.493 -0.1805 -0.0047  0.0986
 6314W        W49227   8.050  24.217   2.505  0.0462  0.0840  0.3368
 6315W        W49228  13.909  21.320   4.074  0.0561  0.1359  0.0444
 6316W        W49229  13.561  18.078   6.515  0.3836 -0.0696  0.1169
 6317W        W49230  18.123  32.291   2.425 -0.4016  0.1547 -0.1779
 6318W        W49231  13.183  31.682   5.357 -0.1455  0.0830  0.1495
 6319W        W49232  10.296  24.927  10.377 -0.0522 -0.1257  0.1854
 6320W        W49233  21.919  17.468   1.226  0.0718 -0.3271 -0.3580
 6321W        W49234  26.235  30.456   5.732  0.3502 -0.1777 -0.2240
 6322W        W49235   9.963  22.055   6.465  0.1225  0.2504  0.1644
 6323W        W49236  21.539  24.789   5.689  0.0151 -0.2138 -0.0814
 6324W        W49237  15.082  26.332   3.506  0.0654 -0.2273  0.2726
 6325W        W49238  20.011  33.326   3.235  0.0346  0.2042  0.1920
 6326W        W49239  34.277  26.030   3.581 -0.4104  0.0891  0.1848
 6327W        W49240  11.763  31.485   6.583  0.4143 -0.1494  0.2783
 6328W        W49241  13.013  25.939   6.298 -0.0746  0.0901  0.0333
 6329W        W49242  28.257  18.119   4.379 -0.0485 -0.0480  0.0394
 6330W        W49243  12.090  26.937  27.497  0.1892 -0.0434 -0.0052
 6331W        W49244  13.943  29.518   9.023  0.3098 -0.0978 -0.0691
 6332W        W49245  18.943  27.630  10.023  0.0177 -0.3820 -0.0784
 6333W        W49246   7.128  32.190   8.593  0.0544 -0.1302 -0.3086
 6334W        W49247   6.298  30.219   0.409  0.0403  0.1535 -0.2270
 6335W        W49248  34.350  23.063   8.061 -0.1046 -0.0896 -0.0216
 6336W        W49249  20.717  33.615   7.492  0.3344  0.0261 -0.3131
 6337W        W49250  22.581  16.171   2.537 -0.3549 -0.0009  0.2316
 6338W        W49251  15.191  22.415   1.522 -0.0453  0.1608 -0.1562
 6339W        W49252  26.169  22.056   3.735 -0.0220  0.0803 -0.3283
 6340W        W49253  10.814  30.461   6.934 -0.1090  0.1897  0.2028
 6341W        W49254  25.973  18.841   7.989 -0.2030 -0.0058 -0.0122
 6342W        W49255  16.579  20.481   3.609  0.4273 -0.0706 -0.1682
 6343W        W49256  13.866  29.572   2.611  0.1325  0.4018 -0.3655
 6344W        W49257  18.008  24.987   4.802  0.2371  0.1555 -0.0441
 6345W        W49258  15.957  30.519   8.801 -0.1570  0.2259 -0.2085
 6346W        W49259  22.902  29.651   9.055 -0.2188 -0.1845  0.2172
 6347W        W49260  15.157  32.276   1.258  0.4063 -0.2489 -0.1393
 6348W        W49261  21.500  17.584   1.725 -0.3483 -0.0315  0.0203
 6349W        W49262  22.536  30.101   1.870 -0.3263  0.0914  0.2259
 6350W        W49263  22.484   8.045   5.845  0.0373  0.1354  0.4160
 6351W        W49264  29.118  22.440   8.657  0.3071 -0.1260  0.2492
 6352W        W49265  18.306  18.806  29.258  0.1930  0.0005  0.1070
 6353W        W49266  14.720  25.503   8.083 -0.0310 -0.0424  0.1294
 6354W        W49267   9.898  33.971   4.013 -0.2414 -0.0635 -0.0354
 6355W        W49268  10.389   2.288  21.567 -0.2024  0.2790 -0.2595
 6356W        W49269  16.053  33.234  26.591  0.2945 -0.0390  0.0359
 6357W        W49270  24.387  31.061  22.228  0.1882  0.2669  0.0613
 6358W        W49271  11.311  24.342   0.283 -0.0499  0.0575 -0.0521
 6359W        W49272  25.072  20.933   6.397 -0.1335  0.1272 -0.1045
 6360W        W49273  18.059  16.697   3.696 -0.2541 -0.0457  0.0545
 6361W        W49274  12.906  33.050   1.446  0.0168  0.2587  0.1879
 6362W        W49275  19.307  31.941   8.512 -0.1557  0.0837  0.1467
 6363W        W49276  15.697  31.322   7.266  0.2941 -0.1374  0.2815
 6364W        W49277  26.426  11.573   9.165  0.0944 -0.1495 -0.0414
 6365W        W49278  21.777  26.704   4.345  0.0089 -0.1068  0.0730
 6366W        W49279  19.467  27.367  29.655  0.0769  0.1457 -0.2586
 6367W        W49280  12.813  24.066  28.215  0.2955  0.4460 -0.0108
 6368W        W49281  21.709   2.903   7.550  0.3620  0.2486 -0.0045
 6369W        W49282  10.416  22.558   8.292  0.1641 -0.1790 -0.1851
 6370W        W49283  26.254  29.386   5.192  0.0906 -0.1724  0.2121
 6371W        W49284  19.339  32.160   7.856  0.2607 -0.0708  0.1262
 6372W        W49285  10.874  17.514   5.145  0.0381 -0.1405 -0.3899
 6373W        W49286  10.994  34.027   8.191 -0.1410 -0.1170 -0.1656
 6374W        W49287  10.541  20.616   6.842  0.0102 -0.2629  0.2768
 6375W        W49288  26.171  28.398   1.576  0.1837 -0.3575 -0.4380
 6376W        W49289  21.720  33.615   7.516 -0.1533  0.4464  0.1616
 6377W        W49290  28.452   0.686   9.268  0.2376  0.0082 -0.0191
 6378W        W49291   6.315  24.885   4.359 -0.1297 -0.1240 -0.0539
 6379W        W49292  20.908  29.945   6.082  0.0070 -0.3249 -0.0545
 6380W        W49293  17.741   0.836   4.671  0.1264 -0.0065  0.2792
 6381W        W49294  15.017  25.833   7.284 -0.0657 -0.1744 -0.0457
 6382W        W49295  27.649   4.682   7.310  0.4867 -0.0178 -0.3641
 6383W        W49296  21.511  18.016   4.235 -0.2204  0.0525  0.1791
 6384W        W49297   7.411  33.504   4.072 -0.0650  0.0074  0.1438
 6385W        W49298  14.864  27.818  23.889  0.2566 -0.1013  0.4620
 6386W        W49299  15.805  21.526   1.638 -0.0474 -0.1172 -0.0931
 6387W        W49300  21.666  21.056  29.110  0.0396  0.1126 -0.3155
 6388W        W49301  19.955  16.738   8.309  0.0619  0.0168  0.1026
 6389W        W49302  15.643  22.524   1.623 -0.1738 -0.0056  0.2408
 6390W        W49303  19.473  26.595   0.068  0.1113  0.1314  0.1968
 6391W        W49304  14.792  28.346  21.104  0.2170  0.3869  0.1945
 6392W        W49305   8.763  28.454  10.970 -0.0821 -0.0319  0.0830
 6393W        W49306  23.223  22.068   7.176 -0.2015 -0.1904  0.1928
 6394W        W49307  13.813  20.333   3.961  0.0062  0.0302  0.3410
 6395W        W49308   9.698  25.683   9.541  0.3006  0.2966 -0.0924
 6396W        W49309  17.374  20.624   6.449  0.1990  0.0725  0.0606
 6397W        W49310  21.203  24.460   2.499 -0.1888 -0.4923 -0.0036
 6398W        W49311  22.040  23.228   8.980 -0.1733 -0.2610  0.0961
 6399W        W49312  11.908  20.727   5.690  0.0402  0.1141 -0.0500
 6400W        W49313  15.548  26.178   7.869  0.0286  0.0397 -0.2863
 6401W        W49314  12.669  23.705   6.478 -0.0342  0.2277  0.0121
 6402W        W49315  14.023  30.557  11.697  0.0952 -0.0360  0.2441
 6403W        W49316  15.865  29.696   4.926  0.1784 -0.0104 -0.2721
 6404W        W49317  15.633  23.337   2.599 -0.0123 -0.1885 -0.2512
 6405W        W49318  26.308  31.438   3.895 -0.0449 -0.2316 -0.0198
 6406W        W49319  19.156  30.948   7.261 -0.0905  0.1408 -0.1457
 6407W        W49320  19.216  28.976   3.899 -0.1076  0.1514 -0.1914
 6408W        W49321  19.230   2.706   7.613 -0.0490  0.3952  0.1951
 6409W        W49322  16.060  23.332   0.702 -0.1749  0.5138  0.0813
 6410W        W49323  18.517  20.298  27.082  0.0656  0.0919 -0.2107
 6411W        W49324  19.029   1.747   1.214  0.1236 -0.0898  0.0364
 6412W        W49325  21.180  23.490   2.931  0.3657 -0.2132  0.0626
 6413W        W49326  14.996  18.111  25.655 -0.0323 -0.2568  0.2957
 6414W        W49327  20.388  29.082   6.868 -0.0207 -0.0550 -0.0758
 6415W        W49328  11.803  22.523   6.973  0.0235  0.1405 -0.0282
 6416W        W49329  12.393   1.772   0.293 -0.0049  0.1050 -0.1611
 6417W        W49330  16.368  18.115  28.781  0.1450  0.0616 -0.0292
 6418W        W49331  27.597  20.279   0.828 -0.0843  0.0390  0.2645
 6419W        W49332  12.659  25.706   6.717  0.0007  0.0591 -0.2668
 6420W        W49333  17.560  30.797   6.757 -0.0139  0.1827  0.0148
 6421W        W49334  14.245  33.032   3.618 -0.1848  0.1770 -0.1139
 6422W        W49335  17.008  20.264   7.104  0.0864  0.2981 -0.1226
 6423W        W49336  15.375   5.952   4.640 -0.0299 -0.4422  0.0298
 6424W        W49337  13.655  34.024   9.065  0.0527 -0.0703 -0.0963
 6425W        W49338  21.240  21.997   3.724 -0.4177 -0.1333 -0.1588
 6426W        W49339  25.876  20.680   8.557  0.0354  0.1654 -0.2094
 6427W        W49340  10.265  19.517   3.207  0.1376 -0.1509  0.0959
 6428W        W49341   7.744  27.422   1.301 -0.2983 -0.1598 -0.0056
 6429W        W49342  18.678  28.492   5.914 -0.0726 -0.2856  0.1111
 6430W        W49343  12.839  26.114  10.034  0.0509  0.0005 -0.1445
 6431W        W49344  31.831  33.840   3.498 -0.0607 -0.1099  0.2555
 6432W        W49345  23.423  28.833   5.047  0.0624 -0.1108  0.2461
 6433W        W49346  12.062  27.322   7.539  0.0266  0.0853  0.0986
 6434W        W49347  14.209  25.195  29.445  0.1487  0.1374  0.0858
 6435W        W49348  13.204  11.443  29.507 -0.0050 -0.1067 -0.1391
 6436W        W49349  15.308  17.284   0.381 -0.1657 -0.1076 -0.3233
 6437W        W49350  13.529  25.938   5.420 -0.0635  0.0763 -0.0568
 6438W        W49351  16.604  22.110   1.316  0.0237  0.0207  0.0989
 6439W        W49352   9.981  23.539   4.356 -0.0105 -0.0220 -0.1245
 6440W        W49353   9.780  18.600   8.114 -0.4909 -0.0954 -0.1652
 6441W        W49354  19.024  25.979  24.499  0.1996 -0.0294  0.0547
 6442W        W49355   9.712  21.223   6.353 -0.3925 -0.1678  0.0905
 6443W        W49356  12.329  29.447   7.137 -0.0633 -0.0642 -0.3630
 6444W        W49357  13.980   2.353   7.935 -0.0326 -0.1035  0.2869
 6445W        W49358   7.205   3.771  13.552 -0.0013 -0.1148  0.2114
 6446W        W49359  26.883  13.793   7.890 -0.0998  0.0874 -0.2894
 6447W        W49360  26.911  24.150   2.587  0.0906 -0.0328  0.1262
 6448W        W49361  10.813   4.811   4.043 -0.1795  0.3323 -0.2185
 6449W        W49362  16.008  26.636   1.104  0.0318  0.0048  0.0038
 6450W        W49363   7.422  28.396  27.557 -0.1416 -0.1183  0.0394
 6451W        W49364   9.848  34.025   8.347 -0.1068 -0.0245 -0.1603
 6452W        W49365  12.812  28.227   3.063  0.1591  0.1651 -0.4030
 6453W        W49366  15.528   4.783   6.877 -0.3127  0.1929 -0.1254
 6454W        W49367  19.848  11.807   2.825 -0.1389  0.0884 -0.2570
 6455W        W49368   6.836  28.977   0.871  0.0087  0.2288 -0.5635
 6456W        W49369  17.127  23.942   8.537 -0.3640  0.0089  0.0437
 6457W        W49370  10.921  17.405  26.515  0.0579 -0.2040  0.0473
 6458W        W49371  14.473  24.982   1.222  0.2317 -0.1539  0.2218
 6459W        W49372   8.610  26.532   0.915  0.3596  0.1459  0.1139
 6460W        W49373  16.279  33.321  22.764  0.2171 -0.0075  0.1460
 6461W        W49374  14.571   1.089   7.574  0.2303  0.3425 -0.1213
 6462W        W49375  17.094  26.803   0.151  0.2853 -0.1207  0.1602
 6463W        W49376  12.220  23.276   1.910  0.1139 -0.1987  0.0755
 6464W        W49377   8.979  30.107   1.472  0.4144 -0.2037  0.1209
 6465W        W49378  22.379  24.536   7.651 -0.0362 -0.1229  0.1129
 6466W        W49379  21.476  25.953   1.908  0.1109  0.3140 -0.1661
 6467W        W49380  13.520  21.001   1.004 -0.1005 -0.3120 -0.2142
 6468W        W49381  11.258  26.247   8.692 -0.4745 -0.2122 -0.1185
 6469W        W49382  11.339  23.502   0.333  0.1960 -0.4767 -0.2092
 6470W        W49383  17.029  31.855   2.308  0.1657  0.0053 -0.3561
 6471W        W49384  22.379  24.817   0.738 -0.0126 -0.2231 -0.0148
 6472W        W49385   6.483   1.307  13.761  0.0949 -0.0128 -0.0401
 6473W        W49386  18.420  24.161   1.167  0.3051 -0.1649  0.2012
 6474W        W49387  16.771   8.735  26.433 -0.3840  0.0230  0.0665
 6475W        W49388  15.124  30.214   7.413  0.0530 -0.0317 -0.3002
 6476W        W49389  10.517  29.376   1.395 -0.4080  0.0742 -0.2911
 6477W        W49390   9.709  27.450  10.194  0.0027  0.1300  0.3376
 6478W        W49391  11.350  31.131  12.853  0.0824 -0.0014 -0.1888
 6479W        W49392   8.012  22.382   3.433  0.0357 -0.0247  0.2313
 6480W        W49393   8.878  20.618   3.786 -0.1956  0.0388  0.3552
 6481W        W49394  11.108  30.560   1.701 -0.1906  0.0273 -0.2000
 6482W        W49395  16.888  33.601   8.742  0.1381  0.0727  0.1251
 6483W        W49396  19.832  14.912   8.519  0.2515  0.1286 -0.1992
 6484W        W49397  21.268  23.017  21.059 -0.0365 -0.0991  0.2054
 6485W        W49398  19.334  17.144  23.262  0.0025 -0.0150  0.1392
 6486W        W49399  12.954  21.385   1.781  0.1097  0.3467  0.1987
 6487W        W49400  22.063  23.850   7.265 -0.0444  0.2712  0.1361
 6488W        W49401  18.873  26.054   6.058 -0.3828  0.0305 -0.0367
 6489W        W49402  17.962  30.844   7.105  0.0266 -0.0544  0.2599
 6490W        W49403  22.015  25.111   4.949  0.0579  0.0059 -0.2222
 6491W        W49404   9.602  32.198   4.675  0.0637  0.2266 -0.0296
 6492W        W49405  22.241  33.014   8.535  0.1435  0.0341  0.0933
 6493W        W49406  20.726  21.102   7.082  0.0885  0.0754  0.1605
 6494W        W49407  11.005   0.856  10.168  0.1500  0.1228 -0.5675
 6495W        W49408  18.507   5.887   2.707 -0.2554  0.2959 -0.1438
 6496W        W49409  23.035  24.501   6.847  0.1374  0.3497 -0.2075
 6497W        W49410  14.514  28.027   3.970  0.0936  0.0741 -0.2395
 6498W        W49411   9.804   6.235  29.019 -0.3302  0.1155  0.2177
 6499W        W49412  12.215  31.597   7.655 -0.0037 -0.0321  0.0553
 6500W        W49413  11.787  27.974   3.803  0.1815  0.2438  0.1133
 6501W        W49414  11.231   6.223   3.916 -0.3092 -0.0639 -0.3797
 6502W        W49415  12.191  20.591   7.825 -0.0984  0.2110 -0.2169
 6503W        W49416  12.521  31.611  10.597 -0.0586 -0.0229  0.0232
 6504W        W49417  17.374   0.054   8.994 -0.1748 -0.1666 -0.0576
 6505W        W49418  22.516  22.239   3.235  0.1459  0.2112  0.1665
 6506W        W49419  21.692  22.333   5.532 -0.0733 -0.2580  0.3123
 6507W        W49420  18.717  22.459   3.870 -0.1683 -0.0141  0.3243
 6508W        W49421  16.028  33.169   5.041 -0.0268  0.2222  0.0703
 6509W        W49422   9.187  25.320   3.526  0.2972  0.0632 -0.0207
 6510W        W49423  30.086  22.575   2.158 -0.0257  0.2809 -0.1150
 6511W        W49424  25.897  21.467   2.061  0.0925 -0.1578  0.1086
 6512W        W49425  12.264  34.452   5.599 -0.1793 -0.1018  0.0887
 6513W        W49426  13.227  21.150   2.361 -0.4144 -0.2258  0.1626
 6514W        W49427  11.393  25.298  25.473  0.0115  0.0371  0.1085
 6515W        W49428  18.933  33.660   8.976  0.1931 -0.0706  0.1556
 6516W        W49429  24.624  30.451   7.034 -0.1613 -0.3077 -0.0440
 6517W        W49430  18.295  17.201   2.570  0.0347 -0.1107  0.3668
 6518W        W49431   8.916  25.584   7.149  0.0852 -0.0666  0.1462
 6519W        W49432  13.936  26.033   8.166  0.1199  0.2033 -0.1709
 6520W        W49433  18.875  29.901  25.000  0.0182 -0.4342 -0.1536
 6521W        W49434  15.054  27.404   9.950  0.0142 -0.0731 -0.0706
 6522W        W49435  14.917  34.475  10.699 -0.1537  0.0063  0.0687
 6523W        W49436   4.215   1.672   8.462  0.2059  0.3148  0.0094
 6524W        W49437  17.114   3.447   8.402 -0.2092  0.2436 -0.1909
 6525W        W49438  13.311  10.606  23.828 -0.2867  0.0568 -0.1896
 6526W        W49439  24.089  23.995   7.530 -0.0240 -0.1126 -0.1602
 6527W        W49440  10.908  28.921  28.082  0.0816  0.1583 -0.0778
 6528W        W49441  23.777  31.594   8.367 -0.3260 -0.1450 -0.0014
 6529W        W49442  17.409  28.086   1.440 -0.1166 -0.1346 -0.1507
 6530W        W49443  15.142  30.138   8.926  0.2535 -0.0210 -0.0433
 6531W        W49444  17.374  30.074   9.199  0.1614  0.2292 -0.0714
 6532W        W49445  17.355  13.533  22.459 -0.0521 -0.2922  0.1800
 6533W        W49446   7.417  29.796   7.923  0.0661  0.2719 -0.2179
 6534W        W49447  23.643  27.279   4.953 -0.2979  0.0934  0.0284
 6535W        W49448  19.095  31.003   4.458  0.2757  0.1343 -0.1441
 6536W        W49449  14.533  29.806   1.631  0.0436  0.0547 -0.2475
 6537W        W49450  15.598  30.968  27.450 -0.0683  0.0430  0.0328
 6538W        W49451  31.434  34.055  10.765 -0.0632 -0.2046  0.1478
 6539W        W49452  19.874  27.196   8.574 -0.0639  0.0172  0.1711
 6540W        W49453   4.060  21.181   0.522  0.3172 -0.0181  0.1142
 6541W        W49454  15.029  30.214  10.358 -0.1172  0.0103 -0.1193
 6542W        W49455  17.376  28.838  29.533  0.2121  0.0042 -0.5046
 6543W        W49456  19.804  25.018  24.018 -0.2775  0.1447  0.0881
 6544W        W49457  20.383  31.012   9.503 -0.3081 -0.2106  0.1163
 6545W        W49458  14.412   4.959   3.130  0.0126  0.1072 -0.2512
 6546W        W49459  10.342   1.972  12.447 -0.1626 -0.0546 -0.0334
 6547W        W49460  11.562  29.879  11.206  0.1029 -0.1226  0.1892
 6548W        W49461  25.183  33.480  28.673 -0.1309  0.0922 -0.0599
 6549W        W49462  16.419  32.332   8.775 -0.0636  0.0454 -0.3595
 6550W        W49463  18.308  27.221   6.517 -0.0400 -0.2243  0.0236
 6551W        W49464   3.199  17.761   9.006  0.1259  0.2872 -0.0548
 6552W        W49465  18.334  27.919   7.516 -0.2648 -0.6623  0.0050
 6553W        W49466  22.732  27.107  22.737 -0.1425 -0.3155 -0.3248
 6554W        W49467   5.461  25.729   7.316 -0.0244  0.2466 -0.2096
 6555W        W49468  10.724  22.205   4.727 -0.2293 -0.0805  0.2073
 6556W        W49469  13.206  33.201   4.826 -0.1596 -0.2103  0.0820
 6557W        W49470  11.645   0.026  28.238 -0.1982  0.0290  0.1412
 6558W        W49471  20.370  28.587   6.835 -0.1546 -0.2613  0.0183
 6559W        W49472  19.901  32.585   2.039 -0.2559  0.0404 -0.0209
 6560W        W49473  17.082  24.222   6.298 -0.0101 -0.0652  0.1143
 6561W        W49474  14.170  22.904   5.561 -0.1651  0.1481  0.0146
 6562W        W49475  10.767  29.937   9.615 -0.0778 -0.3295 -0.1685
 6563W        W49476  15.913  21.862   8.822  0.1690  0.2634 -0.0767
 6564W        W49477  10.719  18.646  29.069  0.0052 -0.2149 -0.2227
 6565W        W49478  14.711  25.512   0.523  0.0817  0.3170 -0.0814
 6566W        W49479  13.766  22.823   8.883  0.0619 -0.1316 -0.1588
 6567W        W49480  11.941  29.970   8.635  0.1774 -0.1166  0.1167
 6568W        W49481  17.434  29.445   7.626 -0.0004  0.1995 -0.1340
 6569W        W49482  21.669  26.127   6.486 -0.0141 -0.0947  0.1702
 6570W        W49483  18.909  29.234   9.733  0.0402  0.5551  0.2516
 6571W        W49484  13.841  30.276   9.632  0.0363 -0.4322 -0.2957
 6572W        W49485   5.201   2.858   7.110 -0.1411  0.0486  0.0017
 6573W        W49486  19.470  27.474  10.008  0.3334 -0.0692  0.0878
 6574W        W49487   3.491  27.283   8.714  0.1964 -0.1855 -0.0025
 6575W        W49488  14.258  19.074   6.818 -0.3135  0.1043  0.0589
 6576W        W49489  11.512  27.369  11.660  0.0475  0.3777 -0.3492
 6577W        W49490  16.060  32.663   8.938 -0.1049 -0.0324 -0.0742
 6578W        W49491  27.357   0.147   0.603  0.0871  0.2746  0.2769
 6579W        W49492  19.979  34.451   8.932 -0.0723 -0.2505  0.0274
 6580W        W49493   5.044  22.289  29.640  0.0279  0.2188  0.0483
 6581W        W49494  13.371  24.015   6.108 -0.0821 -0.1790  0.1176
 6582W        W49495  11.820  33.261   6.175  0.0435 -0.1484  0.0507
 6583W        W49496  24.202  23.953   3.397 -0.0650 -0.2325 -0.4119
 6584W        W49497   5.906  29.637   9.315  0.0208  0.1283  0.0845
 6585W        W49498   7.689  25.206   6.733 -0.0646  0.1564  0.1184
 6586W        W49499  11.918  32.381   4.355  0.2484  0.2087  0.0104
 6587W        W49500  11.150  22.778  21.203 -0.0378 -0.1016  0.0303
 6588W        W49501   8.608  33.978   7.652 -0.2005 -0.0276 -0.0589
 6589W        W49502   6.934  24.027  28.848 -0.2228  0.2548  0.0118
 6590W        W49503  10.536  17.870   7.372 -0.0397  0.2128 -0.2436
 6591W        W49504  13.619  15.724   1.031  0.2225  0.0016  0.0047
 6592W        W49505  10.370  30.228   9.748 -0.1618  0.3465  0.0776
 6593W        W49506  20.946  29.307   5.126 -0.0599 -0.3489 -0.0682
 6594W        W49507  26.187  32.479   8.571 -0.1090 -0.2934 -0.2943
 6595W        W49508   5.993  27.658  29.058  0.2419  0.1078 -0.0778
 6596W        W49509   6.033  29.973   7.159 -0.1555  0.0122 -0.1311
 6597W        W49510  26.462  27.381   4.959 -0.1345 -0.0872  0.0707
 6598W        W49511  13.426  32.733   7.287 -0.2991 -0.0072 -0.0611
 6599W        W49512  17.240  24.762   8.272  0.2064  0.0368  0.1087
 6600W        W49513  16.113  23.179   3.922 -0.3551  0.3654 -0.4497
 6601W        W49514  11.331   3.086  11.152  0.3569 -0.1198  0.0962
 6602W        W49515  14.232  31.761   0.933  0.0664 -0.0052 -0.1993
 6603W        W49516  16.986  30.329   6.168 -0.0837 -0.1295 -0.0914
 6604W        W49517  10.715  23.617   2.424 -0.0251  0.2108 -0.2191
 6605W        W49518  30.242  33.952   0.789  0.0358  0.0011  0.0175
 6606W        W49519  12.712   1.004  10.554 -0.1201  0.0476 -0.0416
 6607W        W49520  18.635  20.326  26.611 -0.2230  0.0141  0.0913
 6608W        W49521   5.433  30.070  10.560 -0.2726 -0.0813  0.0580
 6609W        W49522  15.213  20.141   5.707  0.2429  0.2427  0.1716
 6610W        W49523  11.168  21.717   6.393 -0.1181 -0.2715 -0.1888
 6611W        W49524   7.918  23.720   5.094 -0.1078  0.0602  0.3278
 6612W        W49525  16.217  29.728   1.885  0.1953  0.0725  0.0178
 6613W        W49526  14.541  19.523  23.906  0.2152 -0.2325 -0.1886
 6614W        W49527  17.185  28.948   1.124  0.1813 -0.1212 -0.1292
 6615W        W49528  11.118  29.884   2.395  0.2484 -0.0325  0.2218
 6616W        W49529   9.881   4.287   9.126 -0.0146  0.0609 -0.2128
 6617W        W49530  10.172  28.964   9.075  0.0197  0.0577 -0.3281
 6618W        W49531  24.232  20.613  21.760 -0.0336  0.3437 -0.1639
 6619W        W49532  15.849  27.869   4.640  0.3549  0.0542 -0.0470
 6620W        W49533  13.982  16.314   0.371  0.2052 -0.0768  0.1560
 6621W        W49534  14.673  28.937  10.726 -0.0463 -0.1079 -0.1887
 6622W        W49535  12.771  32.037   9.557 -0.0878 -0.0077 -0.1116
 6623W        W49536  13.858  30.991  11.905  0.0829  0.0649 -0.0030
 6624W        W49537   7.136  31.369   9.052 -0.0472 -0.2177 -0.3000
 6625W        W49538  30.542  29.471   8.412  0.2976  0.2361 -0.1096
 6626W        W49539  18.591   5.119  27.014  0.1572 -0.2546  0.0903
 6627W        W49540  24.284  25.891   2.959  0.0821  0.3930  0.0357
 6628W        W49541  18.350  22.606   1.303  0.1810 -0.4660  0.1241
 6629W        W49542  23.622   0.101   3.882  0.2276  0.1492 -0.1975
 6630W        W49543  25.456  29.763   1.759  0.3511 -0.4215  0.3069
 6631W        W49544  16.324  26.914   5.427 -0.3273  0.1927  0.0830
 6632W        W49545  19.817  28.870  28.653  0.0255  0.0931  0.0325
 6633W        W49546  11.535  26.449  10.187 -0.0032  0.1055 -0.1777
 6634W        W49547  12.530  27.852   7.834 -0.1231  0.2500  0.0876
 6635W        W49548  13.556   4.918   3.498 -0.0963  0.1325 -0.2252
 6636W        W49549   0.520   0.947   3.784  0.1271 -0.0719 -0.1624
 6637W        W49550   9.513  27.741   3.937 -0.0845 -0.2197  0.0671
 6638W        W49551  17.692  26.034   2.884 -0.0090  0.1872  0.0660
 6639W        W49552  11.863   3.884  29.392 -0.0171  0.3458 -0.2565
 6640W        W49553  16.401  28.464   0.899  0.0736 -0.0689  0.1262
 6641W        W49554  17.159  23.431   8.175  0.2279 -0.0757 -0.1929
 6642W        W49555  17.472  18.656   8.941  0.0057 -0.0304  0.0949
 6643W        W49556  21.402   7.502   2.726 -0.2497 -0.3055  0.0735
 6644W        W49557  17.503  26.150   3.335 -0.0880 -0.1823 -0.0056
 6645W        W49558  21.588  33.412   4.688  0.2814  0.0142  0.3014
 6646W        W49559  16.878  30.803   7.528  0.1694 -0.2351 -0.0732
 6647W        W49560  17.669   2.537   9.682  0.2324 -0.1352  0.1926
 6648W        W49561  11.628  28.459   9.274  0.1050  0.1031  0.0984
 6649W        W49562  20.574  28.781   4.535  0.1164 -0.1511  0.0579
 6650W        W49563  15.635   3.914   2.614  0.1668 -0.1762 -0.1233
 6651W        W49564  19.631  33.983   1.543 -0.2916  0.0882  0.3139
 6652W        W49565  10.129   3.774   6.252  0.0861  0.1326  0.1449
 6653W        W49566  11.198   3.216   7.097  0.1940 -0.1239 -0.0949
 6654W        W49567  10.925  27.458   1.574  0.0996 -0.1284  0.1783
 6655W        W49568  17.423  27.376   2.278  0.3045 -0.0497  0.1867
 6656W        W49569  10.836  25.438   9.554  0.2139 -0.0897 -0.0234
 6657W        W49570  20.790  31.720   9.391 -0.1454 -0.1367  0.2593
 6658W        W49571  15.576   0.422   8.572 -0.2324  0.0933 -0.0308
 6659W        W49572  20.508  30.040   0.915  0.1365  0.1041  0.0237
 6660W        W49573  16.477  21.184   7.174  0.1051  0.2187 -0.0276
 6661W        W49574   6.969  33.418   5.463 -0.1463  0.1638 -0.0198
 6662W        W49575  11.519  23.826   4.832 -0.0364 -0.0551  0.1388
 6663W        W49576  20.851  24.747   6.899 -0.0663  0.1372 -0.0513
 6664W        W49577  13.135  25.971  29.166  0.0615  0.1694  0.1442
 6665W        W49578  18.127  23.877   3.226 -0.0964  0.0464  0.0574
 6666W        W49579  11.635  25.941   8.681 -0.0690 -0.0524  0.0335
 6667W        W49580   5.131  31.700   2.792 -0.0293  0.2084 -0.3299
 6668W        W49581   9.342  34.334   5.087 -0.1246  0.0238  0.2848
 6669W        W49582  28.819  28.996   4.482  0.1003 -0.1434 -0.2034
 6670W        W49583  13.667   0.141  25.234  0.1487  0.1715 -0.0111
 6671W        W49584  19.180   6.949   3.608 -0.0816 -0.0438 -0.1902
 6672W        W49585  19.584  24.920   3.838 -0.0925 -0.0610 -0.1848
 6673W        W49586  20.163  21.020   5.694  0.0343 -0.1929 -0.0074
 6674W        W49587  20.778  29.111   5.527  0.1057 -0.1755  0.0757
 6675W        W49588  19.638  25.005   8.243 -0.4452  0.0110  0.1659
 6676W        W49589  16.699  20.953   3.344 -0.0087 -0.0287 -0.0574
 6677W        W49590   8.953  22.087  28.502 -0.0011  0.0873 -0.1640
 6678W        W49591  26.829  31.526   6.333 -0.2012 -0.2616 -0.2391
 6679W        W49592   9.190  21.906   9.204 -0.2270 -0.1330  0.1707
 6680W        W49593  12.182  28.218  11.165 -0.0439  0.1442 -0.0740
 6681W        W49594  13.668  24.190   7.931 -0.0425 -0.0209 -0.0379
 6682W        W49595  16.493   0.380  10.538 -0.1277 -0.0051  0.2992
 6683W        W49596  10.162  32.023   3.842 -0.1520  0.1224  0.0772
 6684W        W49597  13.969  17.989   2.928 -0.1972  0.3346  0.1325
 6685W        W49598  17.195  17.930  27.786 -0.0340 -0.1601  0.0079
 6686W        W49599  22.294  24.437  28.175  0.3466 -0.1500  0.1028
 6687W        W49600  10.132  12.886   4.590  0.0955 -0.0201  0.0242
 6688W        W49601  23.260  32.373  26.015 -0.0684 -0.0210  0.5042
 6689W        W49602  15.963   2.825  10.220 -0.3388  0.1532 -0.0747
 6690W        W49603  18.940   2.192   7.636 -0.0310 -0.0548  0.2347
 6691W        W49604  20.804  26.228   8.633  0.1096  0.1457  0.0708
 6692W        W49605  21.034  20.239   0.029  0.2101  0.1235  0.1604
 6693W        W49606  12.611  33.179  10.000 -0.2185  0.0041  0.1503
 6694W        W49607  13.045  20.883   7.748 -0.0350 -0.0029 -0.0587
 6695W        W49608   2.648  34.380   7.689 -0.0321  0.4332  0.2411
 6696W        W49609  19.701  30.572  29.070  0.3012 -0.0185  0.2168
 6697W        W49610  24.393  26.377   6.957 -0.0205 -0.0697  0.0468
 6698W        W49611  16.850  30.402   3.986  0.0807 -0.1320 -0.0103
 6699W        W49612   8.653   0.744  13.460  0.1815  0.2821 -0.3968
 6700W        W49613   7.293  34.298   4.718  0.1135 -0.2486 -0.2202
 6701W        W49614   6.842  31.200   6.381 -0.1453 -0.0217  0.0995
 6702W        W49615  16.852  26.078   6.441 -0.1114 -0.0203 -0.1471
 6703W        W49616   5.996   4.496  10.861 -0.5096 -0.3431  0.1492
 6704W        W49617   8.112  26.385   8.144 -0.1005 -0.0293  0.1715
 6705W        W49618  18.010  32.672   3.156 -0.0977  0.0904 -0.0448
 6706W        W49619   9.872  30.728  11.493 -0.1708 -0.0446 -0.3691
 6707W        W49620  11.634   5.735   9.228 -0.0979  0.1357 -0.1296
 6708W        W49621  23.689   0.897   3.838 -0.1333  0.2431  0.0076
 6709W        W49622  12.000  34.045   3.438 -0.0116 -0.0282  0.2451
 6710W        W49623  12.593  22.835   8.764 -0.0935 -0.0503  0.0756
 6711W        W49624  13.977  24.577   9.520 -0.1706 -0.1811  0.1627
 6712W        W49625  24.837  23.903   5.497  0.2864 -0.0928 -0.0212
 6713W        W49626  18.635  26.236   5.105  0.0978 -0.2709  0.1771
 6714W        W49627   7.092  33.936  11.676 -0.2046 -0.1599 -0.1356
 6715W        W49628  16.414  33.500   5.781  0.0646 -0.1305  0.1455
 6716W        W49629  18.308   0.973   6.378 -0.2408 -0.0857 -0.0359
 6717W        W49630   7.006   7.106   9.728 -0.0331  0.0758  0.2851
 6718W        W49631   7.209  28.553   6.771  0.1355  0.1521  0.1842
 6719W        W49632  19.013  17.254  24.060 -0.1227 -0.3161  0.1028
 6720W        W49633  21.266   2.943   1.435 -0.1740  0.1613 -0.0827
 6721W        W49634  27.522  26.384   3.879  0.5884  0.0382  0.1962
 6722W        W49635  26.340   1.899   6.833 -0.0274  0.2231  0.0927
 6723W        W49636   6.709  29.034  11.682  0.0874 -0.0351 -0.2087
 6724W        W49637   3.159   5.715   4.484 -0.2233  0.0130 -0.1188
 6725W        W49638  10.959  20.839   7.735 -0.0992 -0.2595 -0.3971
 6726W        W49639  22.330  31.895   7.476  0.2146  0.0198 -0.1656
 6727W        W49640  20.394  30.213   6.933  0.1889  0.0163 -0.1349
 6728W        W49641   5.221   5.446   5.790 -0.4011  0.4505  0.1148
 6729W        W49642  26.498  29.026   3.039 -0.4146  0.0108 -0.0885
 6730W        W49643  10.452   5.373   7.470 -0.1176  0.0506  0.1010
 6731W        W49644  22.327  21.470   5.564  0.0610 -0.2269  0.2904
 6732W        W49645   8.335  20.099   6.092 -0.3845  0.0065 -0.0219
 6733W        W49646  16.937  33.526   5.030 -0.1349 -0.4068 -0.2822
 6734W        W49647   4.966  32.063  10.719  0.0921 -0.2453  0.0713
 6735W        W49648  10.876  27.036   6.686  0.2208  0.0139 -0.1452
 6736W        W49649  15.873  26.851   4.579  0.0727 -0.1133 -0.0981
 6737W        W49650   7.558  29.755   4.642 -0.1026  0.0944 -0.1104
 6738W        W49651  12.672  31.537  11.108 -0.0256  0.1779  0.0104
 6739W        W49652   8.186  23.514   1.774  0.0267 -0.3039 -0.3129
 6740W        W49653  19.017  25.245   9.092 -0.0937 -0.1243 -0.0039
 6741W        W49654  10.169  20.295   6.006  0.0024  0.2043  0.1909
 6742W        W49655   5.872   4.740   6.125  0.0634  0.3231  0.0082
 6743W        W49656  15.401  29.083   4.670  0.1141 -0.0695 -0.1223
 6744W        W49657  22.681  25.939   4.915  0.1306  0.2004 -0.1519
 6745W        W49658  15.115  18.490   2.500 -0.1434  0.2605 -0.0367
 6746W        W49659  23.608  32.154   6.859  0.0316 -0.1027 -0.3639
 6747W        W49660   7.991  29.930   6.125 -0.1655  0.2139 -0.1559
 6748W        W49661  10.447   4.583   7.073  0.0294 -0.0169 -0.1628
 6749W        W49662  17.196  24.307   7.610  0.1495  0.0288  0.1884
 6750W        W49663  17.969   8.443   5.526  0.1809  0.4581 -0.1320
 6751W        W49664   6.615  22.231   7.251 -0.1061  0.1347  0.1565
 6752W        W49665   5.485  28.530   1.145 -0.0955 -0.0847 -0.0430
 6753W        W49666  16.100  30.562   6.180  0.1026 -0.2776 -0.1251
 6754W        W49667  13.062  30.287   4.108 -0.4075  0.0234  0.1419
 6755W        W49668  20.088  28.338   1.993  0.1293 -0.2386  0.1679
 6756W        W49669   8.953   5.643   8.784 -0.0543  0.0497 -0.0366
 6757W        W49670   0.841  21.920   1.990 -0.0885 -0.0925  0.0916
 6758W        W49671  27.073   1.022   4.805 -0.2661 -0.3435 -0.0080
 6759W        W49672   8.100  24.321   5.096 -0.2154 -0.0295 -0.0712
 6760W        W49673  19.676   7.984   8.742  0.0068  0.2542 -0.1121
 6761W        W49674  12.932  29.954   7.785 -0.0220  0.1487  0.1843
 6762W        W49675  14.575  27.367   9.711  0.1345 -0.0106  0.0685
 6763W        W49676   8.023   5.298   4.677 -0.1540  0.1315 -0.0374
 6764W        W49677  17.314  31.573   5.766  0.1410 -0.1186 -0.3591
 6765W        W49678   7.565  27.352   7.247  0.2497  0.0785  0.0730
 6766W        W49679  21.151  20.814   6.150  0.2544  0.0214 -0.2072
 6767W        W49680   4.158   7.227   2.447 -0.1658 -0.2995  0.0662
 6768W        W49681  20.984  29.185   3.295 -0.1848 -0.1620 -0.0632
 6769W        W49682   8.710  30.973  11.736  0.0013  0.0321 -0.0098
 6770W        W49683  15.638   2.397   8.218  0.0163 -0.3327  0.2093
 6771W        W49684  17.649  29.277   8.657  0.1725  0.2000 -0.2124
 6772W        W49685   0.945   8.369   8.872  0.0243 -0.2419  0.0951
 6773W        W49686  16.780  28.975   1.696  0.3687 -0.1580  0.1382
 6774W        W49687   5.545  25.154   7.431  0.1255 -0.1271  0.0107
 6775W        W49688   8.360  21.176  25.349 -0.1369  0.2422  0.0075
 6776W        W49689  17.381  23.267  24.917  0.2286 -0.0626  0.0316
 6777W        W49690  12.460  28.353  10.120  0.1977 -0.2297  0.1636
 6778W        W49691  12.476  26.405   5.194  0.3861 -0.0074  0.2287
 6779W        W49692   2.571  27.012   4.321  0.1705 -0.1140  0.0355
 6780W        W49693  17.251  32.214   8.795  0.2011  0.1562 -0.1274
 6781W        W49694  17.172  26.347   6.723  0.0241  0.2569 -0.5634
 6782W        W49695  17.640  18.107  24.198  0.3856  0.1914 -0.4876
 6783W        W49696   5.966  33.618   7.663 -0.3393  0.0531 -0.2848
 6784W        W49697  16.372   2.216   5.063 -0.2393 -0.0051 -0.1008
 6785W        W49698  18.953  31.086   6.493  0.1288 -0.0188  0.1064
 6786W        W49699  11.831  31.322   9.335 -0.0060 -0.1769  0.1299
 6787W        W49700  23.817  18.556   4.180 -0.2449  0.1254 -0.2387
 6788W        W49701  15.807  29.714   6.207  0.2092  0.0466  0.2569
 6789W        W49702  34.098  30.363   9.181 -0.1295 -0.1040 -0.0349
 6790W        W49703  16.403  30.140   1.200 -0.0446 -0.0502 -0.0946
 6791W        W49704   6.356  22.541  19.920 -0.1727  0.0980 -0.0628
 6792W        W49705  22.636  26.178   5.471  0.1038  0.2322  0.2967
 6793W        W49706  28.071  31.898   5.589  0.1847 -0.2479 -0.1463
 6794W        W49707  19.650  19.102   5.881  0.0852 -0.0532  0.0407
 6795W        W49708  14.978  29.742  10.106 -0.0204 -0.0051  0.0302
 6796W        W49709  17.289   8.948   6.398  0.0908  0.1074 -0.0476
 6797W        W49710   8.637  25.357   8.740  0.0237 -0.1468  0.1032
 6798W        W49711  12.694  32.818  12.266  0.0616 -0.0109  0.2257
 6799W        W49712   6.519  30.670  11.951  0.0376 -0.0320 -0.2389
 6800W        W49713   4.047   6.670   4.723 -0.0901 -0.0218  0.0996
 6801W        W49714   3.252  23.416   3.057 -0.1684 -0.1657  0.1430
 6802W        W49715  12.927  33.003  11.790 -0.3482 -0.0367 -0.1634
 6803W        W49716   9.017   1.763   5.099  0.0409 -0.3398 -0.1462
 6804W        W49717  19.340  27.018   7.535 -0.2608 -0.1382 -0.0103
 6805W        W49718  25.124  27.453  29.405 -0.0614  0.0199  0.2985
 6806W        W49719  18.327  31.597   3.150 -0.2614  0.0731 -0.4177
 6807W        W49720  16.208  23.557  22.774 -0.1111 -0.0990  0.1941
 6808W        W49721   8.606   0.472  12.702 -0.1998  0.3414  0.1740
 6809W        W49722  17.845  32.901   1.483  0.1161 -0.2842 -0.0475
 6810W        W49723  18.814  24.782   8.838  0.0187  0.0574 -0.0663
 6811W        W49724   7.630   1.461  10.099 -0.2713  0.0023  0.0246
 6812W        W49725  22.299  32.281  23.638  0.0274  0.3527  0.0751
 6813W        W49726  24.763   3.660  27.644  0.1520  0.0462  0.0433
 6814W        W49727   5.604  28.126   9.420 -0.2630 -0.1622 -0.0159
 6815W        W49728  10.890  29.610  11.741 -0.0914  0.0420  0.0768
 6816W        W49729   6.811   0.422  20.775  0.1814 -0.0123  0.1993
 6817W        W49730  18.689  32.322   2.438 -0.1437 -0.0247  0.2235
 6818W        W49731  15.658  24.651   8.982  0.0715  0.0532 -0.0459
 6819W        W49732  14.346  27.831   2.799 -0.1071  0.2155  0.5311
 6820W        W49733  15.974  33.780  26.316 -0.2809 -0.1121  0.0402
 6821W        W49734  12.412  29.350   8.383  0.3854  0.1165 -0.3383
 6822W        W49735  23.786  29.580   5.208  0.0934 -0.2139 -0.0424
 6823W        W49736  16.098  20.303   1.327 -0.0993 -0.1967 -0.4760
 6824W        W49737  12.074  25.692   3.823  0.0572  0.0219 -0.1209
 6825W        W49738  11.831  32.491   2.812 -0.1375  0.0489 -0.1003
 6826W        W49739  10.554  27.130  11.458 -0.0431  0.1919  0.3512
 6827W        W49740  16.238  29.464   0.554  0.1259  0.3159  0.3425
 6828W        W49741  26.138   8.758  29.026  0.0828 -0.1846 -0.1907
 6829W        W49742  32.221  26.035   0.931  0.2410  0.0360  0.0337
 6830W        W49743  13.483  18.994   0.692 -0.0237  0.2541 -0.3930
 6831W        W49744  17.066   3.665   7.122 -0.0174  0.2127  0.1187
 6832W        W49745  18.700   1.064  27.898 -0.1180 -0.3341  0.2394
 6833W        W49746  24.099  16.415  18.001 -0.5237  0.0693 -0.0623
 6834W        W49747  18.765   2.513   2.220 -0.0183  0.0373 -0.0153
 6835W        W49748  13.032  19.256  19.596 -0.1013  0.0241 -0.2336
 6836W        W49749  17.860   6.816   6.735 -0.1132 -0.1444 -0.0711
 6837W        W49750  19.083   0.919   7.834  0.0275 -0.1953  0.0487
 6838W        W49751  20.174  31.816  22.648  0.1059  0.0090  0.3880
 6839W        W49752  14.125  34.243   7.252  0.0506  0.1126  0.0367
 6840W        W49753  24.165  30.983   6.582 -0.1452 -0.2694 -0.0787
 6841W        W49754  15.456   4.862  26.743 -0.1529  0.0218 -0.0603
 6842W        W49755  15.348  30.703   9.506  0.1059 -0.0201 -0.3600
 6843W        W49756  10.904  32.324   4.046  0.2511 -0.1002 -0.2329
 6844W        W49757  13.675  28.371  21.195 -0.1120 -0.0311  0.2957
 6845W        W49758  23.947   4.955  17.909 -0.2340  0.0829  0.0846
 6846W        W49759  19.994   3.354   6.990  0.1673 -0.1015 -0.1156
 6847W        W49760  15.806  13.450   2.691 -0.0307  0.2285  0.3843
 6848W        W49761  19.902   0.710  29.205  0.0640 -0.3018 -0.2826
 6849W        W49762  22.400  17.899  21.889 -0.1044 -0.0943  0.2913
 6850W        W49763   7.277   0.683   4.572 -0.0046  0.1220 -0.1278
 6851W        W49764  21.283   5.727   5.711  0.0039  0.0345  0.0656
 6852W        W49765  19.111  31.882   5.380  0.1292  0.0692 -0.0510
 6853W        W49766  19.874   4.932   2.451  0.1563  0.0231 -0.1394
 6854W        W49767  24.723  24.716  29.639  0.4877 -0.3037 -0.0207
 6855W        W49768  19.846   0.794   1.697  0.1564  0.1186  0.2043
 6856W        W49769  22.214  28.391   7.382  0.0011  0.0726  0.0344
 6857W        W49770  24.165  33.909   4.298  0.0742  0.0504  0.0109
 6858W        W49771  19.314  26.813   2.686  0.0344  0.1784 -0.1080
 6859W        W49772  17.433  26.102  24.410  0.1123 -0.2275 -0.2071
 6860W        W49773  19.383  26.986   3.200  0.1651 -0.3336  0.0395
 6861W        W49774  11.083   1.535  20.216 -0.0542 -0.3660 -0.1142
 6862W        W49775  25.533   1.265   1.093 -0.0450 -0.0396  0.0226
 6863W        W49776  16.314   6.002   2.655 -0.1548 -0.2729 -0.1906
 6864W        W49777  13.425  26.212   0.472 -0.0483  0.3688 -0.0773
 6865W        W49778  20.137  19.655  25.848  0.2198  0.0147  0.2564
 6866W        W49779  22.276  30.776  28.576  0.0805 -0.6362  0.1343
 6867W        W49780   8.602  24.811  15.378  0.2731  0.1148 -0.0271
 6868W        W49781  13.133  20.958   2.870  0.0602  0.0692 -0.0536
 6869W        W49782  13.803   0.598   1.747  0.0543 -0.0710 -0.3287
 6870W        W49783  16.011  27.179  28.277 -0.0052 -0.4288 -0.0208
 6871W        W49784  17.575  33.223  20.359  0.1581 -0.1626  0.0587
 6872W        W49785  19.771  31.452   0.083 -0.1132  0.1730 -0.1357
 6873W        W49786  12.364   2.925  21.204 -0.2096 -0.1368 -0.0093
 6874W        W49787  11.047   6.676  25.527 -0.2048 -0.0104  0.1185
 6875W        W49788  19.387  30.074   9.562 -0.1965  0.1156 -0.3270
 6876W        W49789  10.627  19.381  22.949  0.4580 -0.2793  0.1721
 6877W        W49790  12.386  33.828  22.117 -0.3623 -0.1677 -0.1807
 6878W        W49791   8.219  32.413  27.527 -0.1591  0.2599  0.0605
 6879W        W49792  24.390  33.620   2.385 -0.1261 -0.1962 -0.0933
 6880W        W49793  19.076   2.259  28.154 -0.3462 -0.1091 -0.1363
 6881W        W49794  15.775  28.896  18.213 -0.3483 -0.1364  0.0886
 6882W        W49795  12.415  25.101   3.385  0.0227  0.4509  0.2504
 6883W        W49796   8.101  29.811  11.695  0.0195  0.2096  0.0303
 6884W        W49797  12.795  22.368  23.859 -0.1010  0.2344 -0.2604
 6885W        W49798   5.866  33.801  10.357  0.2518 -0.1235 -0.2854
 6886W        W49799  25.268  32.379  24.030 -0.0805 -0.2485 -0.1901
 6887W        W49800  18.542  18.811  23.360 -0.0222 -0.0808  0.1334
 6888W        W49801  22.062  26.618   7.496 -0.1397  0.0907  0.1824
 6889W        W49802  27.071  31.160   1.264 -0.1694  0.2155 -0.4082
 6890W        W49803  19.109   8.971   6.985  0.0488 -0.0527  0.1658
 6891W        W49804  25.470   0.404  29.008  0.0548 -0.1342 -0.0387
 6892W        W49805  12.229  28.263   1.368  0.1447 -0.2416  0.1801
 6893W        W49806  17.186  31.099   7.936 -0.1807 -0.0489  0.0051
 6894W        W49807  13.598  25.263   1.933 -0.0967  0.0097 -0.3281
 6895W        W49808  23.175   1.058  29.766  0.0552 -0.2781 -0.1089
 6896W        W49809  20.101   6.926  27.863 -0.1468 -0.0910  0.0448
 6897W        W49810  12.006   1.701  20.664  0.0857 -0.1425 -0.1442
 6898W        W49811  28.063  21.027   0.280 -0.1000  0.1013 -0.0885
 6899W        W49812  24.585  30.932   1.237 -0.0859  0.3295 -0.0824
 6900W        W49813   6.531  28.706   8.424 -0.1444  0.0355  0.4218
 6901W        W49814  20.280   0.611  27.783 -0.0818  0.0215 -0.0366
 6902W        W49815  21.313  24.874  23.757  0.2567  0.2407 -0.1421
 6903W        W49816  17.194  25.888  28.385  0.0519  0.3781  0.0472
 6904W        W49817  10.829  17.159  21.815  0.1587 -0.3467  0.4297
 6905W        W49818  14.541  22.677   8.443  0.0740 -0.2007 -0.1607
 6906W        W49819  17.742   6.102   0.826 -0.0647 -0.0466  0.0156
 6907W        W49820  18.137  12.965  21.651  0.2478 -0.0355  0.0990
 6908W        W49821  18.046  33.317   1.070  0.0771 -0.0687 -0.0367
 6909W        W49822  11.600  28.265   1.353 -0.0357  0.1453 -0.0953
 6910W        W49823  17.500  20.365  29.349 -0.1774 -0.1451 -0.0649
 6911W        W49824  21.843  28.312  23.239 -0.1329 -0.0197 -0.0819
 6912W        W49825  20.325  23.653  27.685 -0.0789  0.2164  0.0216
 6913W        W49826  13.765  25.988  26.610  0.1836 -0.1747  0.1222
 6914W        W49827  18.303  33.693  26.232  0.2646  0.0523 -0.1203
 6915W        W49828  17.240  27.613  26.023  0.2471 -0.1483 -0.1458
 6916W        W49829  15.464   1.439   4.510  0.0243 -0.2287  0.0747
 6917W        W49830  33.592  20.362  25.510 -0.2542  0.0578  0.2833
 6918W        W49831  15.509  27.335   4.625  0.1272 -0.1090  0.1260
 6919W        W49832  14.727  32.815  27.117 -0.1586 -0.0947  0.2184
 6920W        W49833   2.030  28.626   7.469 -0.5529 -0.0617 -0.0972
 6921W        W49834  15.495  33.512  29.303 -0.1957 -0.0726  0.0055
 6922W        W49835  21.606   6.596   7.296 -0.0920 -0.1711  0.3799
 6923W        W49836  24.869  25.565   1.603  0.3066  0.1802 -0.2781
 6924W        W49837   1.266  26.519  26.155  0.4879  0.2722 -0.0188
 6925W        W49838  10.600   2.034   0.730  0.2535  0.2486 -0.0671
 6926W        W49839  14.346   3.391   4.398  0.2952 -0.1399 -0.1158
 6927W        W49840  19.585  21.353  22.981  0.0039 -0.0180  0.0048
 6928W        W49841  11.057  22.909   2.893 -0.0032 -0.0271  0.3398
 6929W        W49842  25.480  19.472  27.976  0.0127 -0.2716 -0.0521
 6930W        W49843  20.167  33.485  24.971  0.1886  0.0915 -0.0586
 6931W        W49844  19.561  23.651   5.015 -0.0769 -0.1076 -0.0426
 6932W        W49845  17.600   5.695   1.100 -0.0082 -0.1004  0.0438
 6933W        W49846  11.379  29.396  20.305 -0.0525 -0.2299 -0.3826
 6934W        W49847  23.290   1.215   3.049 -0.1063  0.1059  0.0591
 6935W        W49848  16.670  29.203   8.150 -0.1493  0.2372 -0.2873
 6936W        W49849  14.774  27.779   4.376  0.1537 -0.1050  0.0856
 6937W        W49850  20.686   2.028  22.437 -0.1901  0.2214  0.2456
 6938W        W49851  23.901  31.122  26.065  0.1225  0.1529 -0.0475
 6939W        W49852  16.142  25.082   2.353 -0.0538 -0.1396  0.1613
 6940W        W49853   6.022   2.505  23.827  0.3858  0.0725  0.1046
 6941W        W49854  17.241   0.532   0.696 -0.1654  0.2121 -0.2296
 6942W        W49855   9.064  11.988   6.238  0.3784 -0.0013 -0.1359
 6943W        W49856  25.147  21.682   7.943 -0.1614 -0.0296 -0.0448
 6944W        W49857  11.804  23.638  29.321  0.1774 -0.2256 -0.1401
 6945W        W49858  15.778  30.097   2.875 -0.0141 -0.2385  0.1031
 6946W        W49859  20.770  11.431   1.315  0.0432 -0.1623 -0.0015
 6947W        W49860  12.041  30.807  28.101 -0.1434 -0.3305 -0.0674
 6948W        W49861   9.780  26.413   5.698 -0.1065 -0.3146  0.1653
 6949W        W49862  20.232  20.047   7.879 -0.4799  0.1134  0.1101
 6950W        W49863  30.098  33.137  22.791 -0.0851  0.0630 -0.0393
 6951W        W49864  15.666   6.853   3.505 -0.1052  0.0781 -0.0942
 6952W        W49865  19.195  28.479  29.387  0.1861  0.0454  0.1562
 6953W        W49866  14.642  25.651  20.025  0.0103 -0.1213  0.0940
 6954W        W49867  19.203  19.658   0.615 -0.0216  0.1289 -0.1040
 6955W        W49868  22.462  26.846   8.975  0.0025 -0.4540  0.0089
 6956W        W49869  33.434   0.666   0.531  0.1165  0.0671 -0.2294
 6957W        W49870  21.997  24.752  23.830  0.0208  0.2939 -0.1392
 6958W        W49871  12.200  27.078  29.071  0.0817  0.3839  0.3438
 6959W        W49872  24.853  24.964   2.519 -0.1697 -0.0213  0.1647
 6960W        W49873  11.290  32.727   1.097 -0.2729  0.1202 -0.0628
 6961W        W49874  13.424   5.005  24.386  0.2745 -0.0731  0.2327
 6962W        W49875  21.128  30.798   0.488  0.0052  0.0328 -0.1347
 6963W        W49876  19.013  25.432  23.142 -0.2761 -0.2173  0.2833
 6964W        W49877  23.045  29.893   8.616  0.0461 -0.2560  0.2500
 6965W        W49878  28.031  32.950  28.345 -0.0532  0.0025  0.0258
 6966W        W49879  21.768  29.778   7.161  0.1650  0.2119  0.2523
 6967W        W49880  15.893  26.568   3.675 -0.1623 -0.1100 -0.2605
 6968W        W49881  18.112  18.983   8.091  0.0433 -0.1909 -0.0782
 6969W        W49882  20.817  19.111   0.067  0.3629  0.3002 -0.0736
 6970W        W49883  13.728  21.445  20.718  0.0169 -0.1563 -0.0347
 6971W        W49884  15.096  28.465  26.162 -0.0198 -0.0231 -0.0723
 6972W        W49885  15.099  15.835   0.121  0.1376  0.1941 -0.2492
 6973W        W49886  23.440   9.946  28.630  0.0042  0.0674 -0.0350
 6974W        W49887  25.470  32.973  22.755  0.2082 -0.1097 -0.1187
 6975W        W49888  11.499   0.869   0.811  0.0350 -0.0065 -0.3057
 6976W        W49889  16.063   7.148   9.495  0.2217 -0.1746  0.4459
 6977W        W49890  13.301   3.075  11.089 -0.1960  0.0603  0.1587
 6978W        W49891   1.404  27.655  24.663  0.2314 -0.1384 -0.2866
 6979W        W49892  19.459  25.922   5.260 -0.0183 -0.0413  0.0652
 6980W        W49893  25.010  25.220   1.932 -0.1109 -0.1044 -0.1632
 6981W        W49894  13.229  24.324   6.497 -0.1402 -0.0295  0.1510
 6982W        W49895  17.891  22.455   4.272 -0.1377  0.0160  0.1071
 6983W        W49896  27.173  30.187   7.059 -0.0571 -0.1649 -0.0721
 6984W        W49897  18.219  33.745   7.473 -0.3208  0.2516 -0.2810
 6985W        W49898  20.255  21.301  26.878 -0.0893 -0.1385  0.0650
 6986W        W49899  30.876  33.829  26.575  0.1156 -0.1623  0.2057
 6987W        W49900   4.907  29.991  29.458 -0.1890  0.0882 -0.0731
 6988W        W49901  11.275  27.875   3.687 -0.0871 -0.2461  0.0677
 6989W        W49902  26.400  25.308   6.398  0.0979  0.0753 -0.0157
 6990W        W49903  15.453   7.454   7.835  0.1284 -0.1063 -0.0483
 6991W        W49904   6.764  32.944   5.396  0.1971  0.2984  0.1399
 6992W        W49905  16.590  24.685   1.683  0.1789 -0.1607  0.1025
 6993W        W49906  20.471   3.723   4.024 -0.0962 -0.0603 -0.1587
 6994W        W49907  14.011  30.355   8.616  0.0637  0.0996  0.0303
 6995W        W49908  14.729  27.140   8.441  0.0765  0.0782  0.3448
 6996W        W49909  17.742  23.379   6.885  0.2272 -0.1664  0.2509
 6997W        W49910  22.375  23.253   8.063 -0.0422  0.1350  0.1873
 6998W        W49911  21.839  12.884  28.472  0.0288 -0.0413  0.1475
 6999W        W49912  12.995  27.169   3.358  0.0961  0.1225  0.0626
 7000W        W49913  18.073  27.158   0.130 -0.0951 -0.1945 -0.1637
 7001W        W49914  33.567  29.086  17.402  0.1176 -0.2986 -0.0606
 7002W        W49915  23.947  27.059   4.099  0.0069 -0.0756 -0.1060
 7003W        W49916  20.669  24.765  27.523  0.0427 -0.2220 -0.3238
 7004W        W49917  14.181  24.579  28.882 -0.0551  0.2150 -0.0614
 7005W        W49918  31.209  27.013   3.065  0.0888 -0.0795  0.1543
 7006W        W49919  24.329  31.527   4.750 -0.0882  0.0334 -0.0549
 7007W        W49920  17.159  19.329   5.687 -0.0445  0.0501  0.0899
 7008W        W49921  17.266  19.312  25.446  0.2189 -0.0009 -0.2933
 7009W        W49922  17.028   2.036  29.401  0.1561  0.3036 -0.1402
 7010W        W49923  21.739  31.210   4.877  0.1285  0.2282  0.0161
 7011W        W49924  18.315  33.643  10.006 -0.1722  0.0174  0.3197
 7012W        W49925  15.378  24.274   4.177 -0.1350 -0.2616  0.0392
 7013W        W49926  19.283  19.987   0.276  0.1607  0.1067  0.1439
 7014W        W49927   9.271  31.734   4.668  0.1607  0.0741 -0.1090
 7015W        W49928  19.867  31.662   7.477  0.1140  0.1517  0.1963
 7016W        W49929  21.905  25.119   5.993 -0.0398 -0.1799  0.0080
 7017W        W49930  21.289  26.588   4.296  0.0580 -0.0496  0.1108
 7018W        W49931   0.026  22.015  20.300  0.1507  0.0424  0.0863
 7019W        W49932   7.528  26.731   9.858  0.4107  0.0989 -0.1544
 7020W        W49933  23.996   1.258   9.202 -0.0330 -0.0902  0.0393
 7021W        W49934  12.469  33.774   2.631 -0.1580  0.2809  0.2038
 7022W        W49935  19.433  26.764   1.013  0.1946  0.0103 -0.2167
 7023W        W49936  12.197   7.205  28.783 -0.0264 -0.3089 -0.3621
 7024W        W49937   9.577  25.776   0.885 -0.3583 -0.1118  0.0868
 7025W        W49938  22.269  32.888   1.675 -0.0404  0.1957  0.1355
 7026W        W49939  16.560  32.908   3.601  0.0203 -0.1682 -0.0734
 7027W        W49940  14.207  29.134  23.564 -0.0656  0.2508  0.2093
 7028W        W49941  19.603  34.200   5.726  0.0655  0.3853 -0.3184
 7029W        W49942  14.180   2.187   5.468 -0.0105 -0.2064 -0.3839
 7030W        W49943  21.848  33.095  28.718  0.0312 -0.0513  0.1937
 7031W        W49944  16.543   2.163  10.262  0.0128 -0.0439  0.1973
 7032W        W49945  29.354  25.768   4.840  0.0081 -0.1234 -0.1066
 7033W        W49946  27.706   3.883   3.466 -0.1394  0.1538  0.0651
 7034W        W49947  19.568  31.792   1.369  0.1318  0.3953  0.2352
 7035W        W49948  19.987  24.310  16.577  0.1236  0.2121 -0.1938
 7036W        W49949  14.756  27.785   7.575 -0.0967  0.2889  0.1039
 7037W        W49950  33.241   5.363   4.485 -0.1166  0.2540  0.0293
 7038W        W49951  14.903  25.423  28.134 -0.0309  0.1238 -0.0579
 7039W        W49952  18.208  23.105   2.202  0.1202  0.2810  0.1502
 7040W        W49953  18.556   6.056   9.697 -0.1679  0.5577 -0.1378
 7041W        W49954  21.626  16.320   2.934  0.0393  0.2455  0.1766
 7042W        W49955  12.878  27.483  29.580  0.6871 -0.3055  0.0950
 7043W        W49956  23.046  31.484  25.476  0.2626 -0.0858  0.0681
 7044W        W49957  13.252  28.850   9.651 -0.3462 -0.2364 -0.0615
 7045W        W49958  15.279  15.624   3.378  0.4407 -0.2425  0.0347
 7046W        W49959  16.176  16.795   1.767  0.1271  0.0331  0.1322
 7047W        W49960  15.102   0.031   2.896 -0.0739  0.6575 -0.0399
 7048W        W49961  15.390  31.068   6.913 -0.0046 -0.2019 -0.2209
 7049W        W49962  15.649   0.996  29.637  0.2577  0.2864 -0.1856
 7050W        W49963  25.910   2.131   1.077 -0.1020  0.1236 -0.0491
 7051W        W49964  20.063   9.179  25.689  0.1297 -0.0607 -0.2414
 7052W        W49965  16.420   6.059   5.014 -0.2507  0.0208 -0.1596
 7053W        W49966  24.654  33.529   5.495 -0.0676 -0.2990  0.0798
 7054W        W49967   6.823   1.623   5.519 -0.2707 -0.0774  0.1502
 7055W        W49968  14.860   2.059   2.862 -0.0823  0.0451 -0.0612
 7056W        W49969  15.496  32.108   7.034 -0.0535 -0.1416 -0.2515
 7057W        W49970  24.006  30.799  28.972 -0.0742  0.2884  0.2515
 7058W        W49971  20.600   7.025   8.355  0.0589  0.3219 -0.1754
 7059W        W49972  18.655  33.366  10.350 -0.0272  0.0033  0.1249
 7060W        W49973  23.241  24.003   4.083 -0.0528  0.1079  0.0973
 7061W        W49974  33.425  18.605  25.122  0.4383  0.1441  0.1582
 7062W        W49975  14.840   9.524   8.225  0.1391 -0.0616  0.0790
 7063W        W49976   9.454   7.543  27.093  0.1244  0.0313 -0.0037
 7064W        W49977  16.263  30.803  23.541 -0.1297 -0.1292 -0.4165
 7065W        W49978  15.131  29.179  21.019 -0.0274  0.1279  0.1087
 7066W        W49979  21.448  33.681  23.345  0.3704  0.1023 -0.0832
 7067W        W49980  11.684  31.464   1.947  0.0152  0.0685 -0.0194
 7068W        W49981  17.952  19.716   6.600 -0.0038 -0.2073  0.0077
 7069W        W49982   8.040  22.039   4.556  0.2143 -0.3016 -0.3366
 7070W        W49983   8.066  20.461  23.589 -0.0168  0.2603 -0.2393
 7071W        W49984   5.891  34.419   0.968 -0.1597  0.1368  0.0740
 7072W        W49985  13.696  25.291  17.892  0.1517  0.6192  0.1364
 7073W        W49986  13.060  30.528   1.673 -0.1198 -0.1876  0.0501
 7074W        W49987  20.804  26.213   5.995  0.1175  0.0112 -0.2386
 7075W        W49988  21.079  31.813   3.981 -0.2465 -0.2305 -0.1615
 7076W        W49989  18.406   9.055   1.780 -0.0783 -0.2129 -0.0242
 7077W        W49990  29.105  22.070  28.879 -0.3258 -0.3986 -0.0060
 7078W        W49991  12.699  33.996   1.265  0.0957 -0.5736  0.1377
 7079W        W49992  14.083  25.147  25.765  0.4177  0.1749 -0.1314
 7080W        W49993  16.969  21.985  17.062 -0.2680  0.2625  0.1396
 7081W        W49994  11.126  32.804   5.457 -0.0775  0.1979  0.0484
 7082W        W49995  29.067   1.672   6.533 -0.2160  0.2343  0.1571
 7083W        W49996  13.406  30.061   3.794  0.0158 -0.0287  0.0808
 7084W        W49997  17.560  28.829  26.319  0.1207  0.0520 -0.2984
 7085W        W49998  12.566   3.570  23.297  0.1905 -0.1436 -0.2136
 7086W        W49999  17.482  32.111   2.737 -0.0173  0.1771  0.2868
 7087W        W50000   8.760  31.710  17.996 -0.5627 -0.0331  0.0158
 7088W        W50001  10.459  20.215   4.549 -0.0823  0.1002 -0.3909
 7089W        W50002  21.680  29.697   1.175  0.1168 -0.0725  0.2175
 7090W        W50003  24.829  30.195   8.978 -0.0608 -0.1233  0.0147
 7091W        W50004  17.654  29.671  28.882  0.0176  0.1127 -0.2214
 7092W        W50005  13.389   1.201   6.119 -0.1159 -0.1154  0.1666
 7093W        W50006  21.017  32.044  16.852 -0.2421  0.1109  0.3411
 7094W        W50007   8.563  26.102  23.167 -0.3941 -0.1541 -0.1273
 7095W        W50008  21.630   0.948  23.335 -0.1967  0.1888 -0.1782
 7096W        W50009  15.773  28.415   2.397  0.3925 -0.0340 -0.2466
 7097W        W50010  13.892   3.144  11.066 -0.1506  0.0401 -0.1341
 7098W        W50011  19.305   2.328   7.257 -0.4103 -0.0906 -0.1304
 7099W        W50012  23.374   2.853  23.401  0.0325 -0.0874 -0.0662
 7100W        W50013  14.777  33.042   4.524 -0.1859 -0.4743 -0.1723
 7101W        W50014  16.593   9.332  25.919 -0.0517 -0.0151  0.2043
 7102W        W50015  18.653  32.153   5.203 -0.0863 -0.3719  0.2785
 7103W        W50016  12.739  20.663  26.492  0.1612 -0.1573 -0.0114
 7104W        W50017  23.994  32.313   6.474 -0.0431 -0.1400  0.0665
 7105W        W50018  13.854   2.836   2.012 -0.0889 -0.1886  0.0296
 7106W        W50019  25.580   0.351   5.056  0.1696  0.2459  0.0060
 7107W        W50020  15.072  24.710  10.258 -0.0700 -0.2056 -0.2853
 7108W        W50021  24.889  26.285  25.033  0.1581 -0.2360 -0.1148
 7109W        W50022  13.338   2.866   0.256  0.0733 -0.1606 -0.1799
 7110W        W50023  21.621  23.695   2.706 -0.2059  0.3308  0.0485
 7111W        W50024  16.596  23.596  24.469 -0.2305 -0.1852  0.2887
 7112W        W50025  22.308  13.655  27.672 -0.1599  0.2079  0.0035
 7113W        W50026  19.509   9.427   2.379  0.0805 -0.0586  0.2136
 7114W        W50027  10.624  31.878   3.713 -0.0384  0.0045 -0.0991
 7115W        W50028  10.850  20.989  25.784  0.3408 -0.0721  0.0244
 7116W        W50029   9.010  23.070  27.599 -0.1665 -0.3663 -0.1971
 7117W        W50030  21.534  29.085   1.030  0.1805 -0.1722 -0.1358
 7118W        W50031  20.201  32.685  10.164  0.1983  0.1633 -0.0874
 7119W        W50032  10.977   3.334  21.127  0.0048 -0.0085  0.0358
 7120W        W50033  22.418  16.107   1.299  0.0156 -0.2349 -0.0484
 7121W        W50034  23.797  16.245  22.079 -0.0258  0.4115  0.1190
 7122W        W50035  16.389  28.846   5.470  0.2307  0.1231  0.3863
 7123W        W50036  13.552  26.790  28.704 -0.0320  0.2558  0.1791
 7124W        W50037  29.280  30.944   7.080  0.0004 -0.1855 -0.3622
 7125W        W50038  16.649  24.790  25.876  0.2338 -0.0090  0.1364
 7126W        W50039  11.861   8.885   9.714 -0.0959 -0.2561 -0.0167
 7127W        W50040  17.147  28.728  24.253 -0.1428 -0.2682  0.2795
 7128W        W50041  10.538   4.759   0.148 -0.0229  0.0063 -0.2754
 7129W        W50042  19.466  30.584   2.996 -0.0920 -0.2615  0.2339
 7130W        W50043  19.503   0.546   7.011  0.0085  0.0352  0.0354
 7131W        W50044   7.631  24.799  18.813 -0.1516 -0.1224  0.1825
 7132W        W50045  16.477  23.842   2.352  0.2001 -0.3424  0.2429
 7133W        W50046  26.890  30.952   7.214  0.1023 -0.1614 -0.0487
 7134W        W50047   8.479   8.645   0.094 -0.2139  0.4129 -0.1062
 7135W        W50048  21.588  30.804   3.100  0.1215 -0.0263 -0.2948
 7136W        W50049  15.525   4.731   0.004 -0.0238  0.0365 -0.3239
 7137W        W50050  23.193   0.801   9.711 -0.0653  0.0457  0.2082
 7138W        W50051   3.918  31.094  26.420  0.2178 -0.0528 -0.1627
 7139W        W50052  15.762  10.892  28.284  0.2139 -0.0533  0.1574
 7140W        W50053  12.542   1.916   1.411  0.0613 -0.0105  0.2303
 7141W        W50054  11.395  32.050  22.793  0.0636  0.5157  0.0905
 7142W        W50055  12.972  20.479  27.826 -0.1235 -0.1742  0.2387
 7143W        W50056  20.795  30.786  20.047 -0.0865  0.5802  0.0178
 7144W        W50057   5.649   7.766   0.350  0.2303  0.0272  0.0102
 7145W        W50058  17.126  20.780  14.831  0.0626  0.2459 -0.0603
 7146W        W50059  25.705  16.598   1.667  0.1176  0.3578 -0.3511
 7147W        W50060  25.652  22.369   3.035  0.1922 -0.2801 -0.4106
 7148W        W50061  29.159  24.685  23.071  0.0432 -0.2164  0.3834
 7149W        W50062  19.508   1.344  23.292 -0.1143  0.1718 -0.0765
 7150W        W50063  13.268  30.317  28.399  0.1473 -0.1276  0.4038
 7151W        W50064  19.665   3.542   5.086  0.0100  0.3212  0.1564
 7152W        W50065  17.177  27.409  27.529 -0.0708  0.1787  0.0141
 7153W        W50066  13.885  31.616   5.873  0.0551  0.0566  0.1207
 7154W        W50067  19.844  32.833   1.595 -0.0550 -0.3254 -0.1357
 7155W        W50068  14.058   1.843   8.184 -0.2322  0.3443 -0.4723
 7156W        W50069  20.704   4.567   5.416 -0.1167 -0.1840 -0.2838
 7157W        W50070  14.836  27.665   8.131 -0.0393 -0.0312  0.0908
 7158W        W50071   0.365   0.045  10.258 -0.0921  0.2094 -0.1789
 7159W        W50072  23.587  29.796   2.129 -0.1659 -0.2508  0.3228
 7160W        W50073  26.003   8.317  26.511  0.3497 -0.2223  0.1191
 7161W        W50074   4.912  30.291  21.536 -0.0011 -0.2824 -0.2512
 7162W        W50075   5.901  32.696  28.868  0.0911  0.2069 -0.0374
 7163W        W50076  19.733  27.580   1.634  0.2025  0.1332  0.2478
 7164W        W50077  18.788  20.682   0.002 -0.2020 -0.2131 -0.0509
 7165W        W50078  13.994  23.688   0.717  0.1910  0.1512 -0.3418
 7166W        W50079  18.039  28.265   6.752  0.2550  0.1725  0.1157
 7167W        W50080  18.853   1.807  28.273 -0.0377 -0.1531 -0.0468
 7168W        W50081  14.601   2.722   7.512 -0.0489  0.1907 -0.1262
 7169W        W50082  11.925  24.891  17.403  0.1583 -0.1558 -0.4266
 7170W        W50083  15.453  31.767   6.153  0.0729 -0.2980  0.3946
 7171W        W50084  24.316  33.208   3.005  0.0673  0.2573  0.1660
 7172W        W50085  23.823   2.724  27.087 -0.1113 -0.3903 -0.1251
 7173W        W50086  31.568   1.205  27.185  0.1780  0.1119  0.1058
 7174W        W50087  24.676  23.333   5.665  0.2199 -0.1492  0.0477
 7175W        W50088  15.839   2.243   9.299  0.0982  0.3905 -0.0434
 7176W        W50089  22.216   3.758   1.685  0.0439 -0.3422 -0.3451
 7177W        W50090  20.698   5.135  25.207  0.1288 -0.1919 -0.1688
 7178W        W50091  13.972  33.450  29.318  0.1275  0.0842 -0.2052
 7179W        W50092  17.158  11.004  28.839 -0.2851 -0.2652  0.3482
 7180W        W50093  18.633   2.461   1.009  0.1763 -0.3585  0.1312
 7181W        W50094   4.305   2.509  24.857  0.0679 -0.1770 -0.1021
 7182W        W50095   7.454  31.217   9.406  0.1387 -0.3382 -0.0457
 7183W        W50096  11.008   7.660  24.375  0.1313  0.0067 -0.2022
 7184W        W50097  21.606  21.537  24.479 -0.0461  0.0527 -0.0239
 7185W        W50098  21.988  25.604   5.201 -0.0160 -0.1949  0.2484
 7186W        W50099  15.290  29.210  26.214 -0.1009 -0.5052  0.0790
 7187W        W50100  13.768  25.385  27.104  0.4194  0.0191 -0.0373
 7188W        W50101  15.788  26.635   7.818 -0.0060  0.0306  0.1389
 7189W        W50102  18.236   5.282  27.809 -0.0989  0.0909  0.2667
 7190W        W50103  16.400  25.151   3.688 -0.0150 -0.2125 -0.0013
 7191W        W50104  17.105  10.713  22.008 -0.0671 -0.1772  0.0613
 7192W        W50105   0.708   1.118   8.081 -0.1182  0.0629  0.0551
 7193W        W50106  13.605  33.576   1.279 -0.1135 -0.3155 -0.0002
 7194W        W50107  21.917  28.513  17.088  0.5175  0.3277  0.2849
 7195W        W50108  20.826  21.527   6.515 -0.2928  0.2421  0.0572
 7196W        W50109  13.697  23.963  18.440  0.0889 -0.2509  0.1123
 7197W        W50110  19.846  29.272   1.481  0.0648  0.3312  0.2477
 7198W        W50111  12.509   6.245   7.606  0.2341 -0.0425 -0.0845
 7199W        W50112   9.812  23.003  29.297 -0.1126 -0.1312 -0.1888
 7200W        W50113  27.383  23.085   2.971  0.2860  0.0240  0.0130
 7201W        W50114  14.709  22.602   2.948  0.0793 -0.2941 -0.3936
 7202W        W50115  14.340  30.833   5.818 -0.1940  0.1672 -0.0254
 7203W        W50116  12.990   1.857   5.724 -0.1563  0.2626  0.1853
 7204W        W50117  16.275  13.230   5.241 -0.0621 -0.0674 -0.1662
 7205W        W50118  10.659  25.489  10.389 -0.4972  0.2074  0.1860
 7206W        W50119  21.869  31.714  27.989  0.0484 -0.1960 -0.0917
 7207W        W50120   3.211  28.100  29.280  0.2238  0.1501 -0.1037
 7208W        W50121  18.386  24.411  21.099 -0.0494 -0.2502  0.3087
 7209W        W50122  19.981  27.432   7.230 -0.0735  0.3338 -0.0242
 7210W        W50123  11.928   2.147   6.025 -0.1186 -0.0046  0.0116
 7211W        W50124  14.767  26.191  21.413  0.2263  0.2138 -0.0486
 7212W        W50125  12.005   2.632  10.087 -0.1217  0.1060 -0.3126
 7213W        W50126  27.262  31.857  25.982  0.0982  0.1700 -0.1151
 7214W        W50127  15.608  11.424  28.303 -0.0699  0.2134 -0.0902
 7215W        W50128  24.898  23.870   7.141 -0.1602 -0.2642  0.1318
 7216W        W50129  18.094  28.180   1.890 -0.0531 -0.0170  0.0722
 7217W        W50130  15.445  27.166   6.787 -0.3312 -0.0417 -0.2398
 7218W        W50131  10.820   5.718  29.642  0.2912  0.3432  0.3662
 7219W        W50132  24.101   2.607   9.416  0.0809  0.0076 -0.0139
 7220W        W50133  19.437  29.268   1.768 -0.0142 -0.2371 -0.0727
 7221W        W50134  19.046   0.171   4.748  0.0956  0.2032 -0.3074
 7222W        W50135   7.808   6.617   2.805  0.2098  0.1822  0.3026
 7223W        W50136  15.417  25.249  29.309 -0.1386  0.0066 -0.0854
 7224W        W50137  23.390  32.728   8.108  0.1588  0.1447 -0.4229
 7225W        W50138   9.343  25.598   9.916 -0.2306  0.0858  0.0832
 7226W        W50139  16.752  34.119   3.056 -0.0869 -0.0506 -0.1410
 7227W        W50140  11.007  28.610  10.602 -0.0283 -0.2224  0.0576
 7228W        W50141  11.070  29.592   5.930  0.2284  0.3115 -0.0880
 7229W        W50142  22.650  14.233   1.195 -0.3714  0.0775 -0.0081
 7230W        W50143   6.360  33.972   2.767  0.1811  0.0057 -0.0385
 7231W        W50144   9.063  24.616   4.742 -0.1505  0.4399 -0.0970
 7232W        W50145  19.128  21.964   3.030  0.1892 -0.2586 -0.1839
 7233W        W50146  18.394   7.151   7.465  0.0194 -0.0478  0.1790
 7234W        W50147  16.164   1.276   7.840 -0.0837  0.0742 -0.1217
 7235W        W50148  11.892  31.669   3.269  0.0151  0.0721  0.0836
 7236W        W50149   9.079   0.694   7.396  0.0965 -0.1080  0.1292
 7237W        W50150   9.534   2.101   8.049  0.2419 -0.1280 -0.1713
 7238W        W50151  20.548  20.759   0.662 -0.0993 -0.2939 -0.3215
 7239W        W50152  13.745  26.896   3.381 -0.0680 -0.1722  0.2985
 7240W        W50153  10.037   5.611   9.270  0.3684 -0.1810  0.2174
 7241W        W50154  12.027  23.424  23.700  0.1165 -0.1004  0.1607
 7242W        W50155  20.039  27.760   8.842  0.1985 -0.0099  0.0508
 7243W        W50156  11.752   1.092   5.281  0.0863 -0.1026  0.1024
 7244W        W50157  10.617  11.713   1.049 -0.1901 -0.1599 -0.0970
 7245W        W50158  15.410  27.245  23.553 -0.0331  0.2473 -0.1001
 7246W        W50159  24.130  28.822   1.313  0.0554  0.1562 -0.0760
 7247W        W50160  25.343  32.858   3.282  0.1307  0.1527  0.0681
 7248W        W50161   6.443  30.870   3.409  0.0766 -0.0163 -0.2823
 7249W        W50162   3.671  30.438   3.027 -0.1575  0.0566 -0.0506
 7250W        W50163  19.529  28.122   7.988 -0.1365  0.1206 -0.0232
 7251W        W50164  23.282  31.939   0.621  0.0895  0.1475  0.0347
 7252W        W50165  19.481   9.418   6.523 -0.1670 -0.0465 -0.3076
 7253W        W50166   8.502   0.800  10.345 -0.0128 -0.1217  0.1263
 7254W        W50167  21.268   0.640   7.714  0.2772  0.1268 -0.2103
 7255W        W50168  23.679  22.516   6.451 -0.3222  0.0644  0.0687
 7256W        W50169  11.809  24.135   7.099  0.0846  0.0848 -0.1430
 7257W        W50170  18.871  32.496  10.437 -0.0137  0.1728 -0.3165
 7258W        W50171  11.469  30.646   9.115  0.0771 -0.0462 -0.1842
 7259W        W50172  22.757   2.799  22.508 -0.2171  0.1890 -0.0679
 7260W        W50173  15.497   0.669  10.464  0.0111  0.1102 -0.0931
 7261W        W50174  18.113  13.497   5.755  0.1362 -0.0407 -0.0215
 7262W        W50175  21.832  26.583   7.969 -0.1952  0.2956 -0.1389
 7263W        W50176  17.414  30.502   5.869  0.2811 -0.0279 -0.1128
 7264W        W50177   3.423  33.488   8.950  0.2303 -0.2279  0.1872
 7265W        W50178   2.648   6.831  28.146  0.1631  0.0330 -0.1760
 7266W        W50179  11.902  28.035   8.975 -0.1637 -0.0786 -0.1922
 7267W        W50180  19.705  21.634  26.970 -0.1544  0.0658 -0.0846
 7268W        W50181   8.223   4.003  27.353 -0.2170  0.0296 -0.1017
 7269W        W50182   5.377   4.553   5.922 -0.0354 -0.0780  0.0271
 7270W        W50183  14.541  29.529  23.577 -0.1056  0.0971 -0.1292
 7271W        W50184  12.365  32.799  26.685  0.1107 -0.0392  0.2801
 7272W        W50185  20.174   4.756   5.344 -0.1276 -0.0451  0.2123
 7273W        W50186  24.449  22.544   0.834  0.0496 -0.2839  0.1887
 7274W        W50187  16.662  29.546   4.312 -0.1456  0.0582 -0.1753
 7275W        W50188  15.750  31.028   4.039 -0.1128  0.3028  0.0376
 7276W        W50189  19.039  30.158   7.609 -0.1502 -0.3661 -0.3082
 7277W        W50190  23.414  11.705   5.768 -0.0058  0.2150 -0.0372
 7278W        W50191   4.988   3.387   9.458  0.1759  0.1829 -0.1665
 7279W        W50192  22.548  24.360   2.217  0.2705 -0.1994 -0.0679
 7280W        W50193  19.461   1.099   8.906  0.0679  0.1570  0.0288
 7281W        W50194   6.404  32.550   6.286  0.2589 -0.2889 -0.3264
 7282W        W50195  10.697   4.627  12.114 -0.2229 -0.0269  0.2046
 7283W        W50196  22.043  31.472   1.018  0.0711  0.1277  0.0392
 7284W        W50197   6.180  34.360  10.886 -0.1394  0.0866  0.1821
 7285W        W50198  24.345  27.791   0.701 -0.0043  0.1425 -0.0452
 7286W        W50199  23.070  22.176   4.064 -0.4429 -0.3730  0.0908
 7287W        W50200  15.037   8.729   5.665  0.1755  0.2105  0.2781
 7288W        W50201  13.596  18.897   6.430 -0.0645 -0.1137  0.1363
 7289W        W50202  14.603  33.121  28.896  0.0450 -0.0321 -0.1322
 7290W        W50203  16.533  24.967   9.244 -0.0374  0.1547 -0.1677
 7291W        W50204  19.293   1.757  25.734 -0.2502  0.2355 -0.0171
 7292W        W50205  12.416  34.274  10.092  0.2815  0.0008  0.2295
 7293W        W50206   7.775  30.310   3.930 -0.0892  0.3284  0.1009
 7294W        W50207  22.607  19.459  27.712  0.2060  0.1605  0.1450
 7295W        W50208  17.614   4.982   6.633  0.3191  0.2528 -0.4676
 7296W        W50209  17.987  30.171   9.871 -0.2773  0.1737 -0.1671
 7297W        W50210  13.756  21.982  28.345  0.1230  0.0419 -0.3126
 7298W        W50211  32.035  26.898  25.179 -0.1473  0.5969  0.0744
 7299W        W50212  20.764  32.387  22.708 -0.1112 -0.2600  0.3494
 7300W        W50213  20.755  22.740   8.087 -0.0250  0.2267 -0.2243
 7301W        W50214  16.269  34.365  29.119 -0.0726  0.0698  0.1805
 7302W        W50215   8.009  22.653  23.444  0.0049  0.0481 -0.2306
 7303W        W50216  22.188   0.509   4.412  0.2271  0.0445  0.0035
 7304W        W50217  18.426  28.701  16.158  0.2268 -0.3275 -0.1142
 7305W        W50218  24.040  31.675   5.890 -0.0100  0.1364 -0.2273
 7306W        W50219  16.163  31.302  23.867 -0.2831  0.1507 -0.3448
 7307W        W50220   5.275   3.400  12.162 -0.2521  0.0622 -0.0021
 7308W        W50221  19.716  30.588   4.008 -0.0690 -0.1190  0.2826
 7309W        W50222  15.361   2.204   8.652  0.0895  0.0692  0.0017
 7310W        W50223  10.906  32.149  25.665  0.0533 -0.1364 -0.3601
 7311W        W50224  15.598  31.353   7.899 -0.0255  0.1810 -0.1882
 7312W        W50225  14.530  26.047   7.163  0.0814  0.2250  0.1596
 7313W        W50226  15.043   3.679   9.681  0.3562 -0.0002  0.0443
 7314W        W50227   1.750  30.335   5.667  0.0109  0.0143  0.2351
 7315W        W50228  18.336   1.839   3.755 -0.1841 -0.5297  0.1740
 7316W        W50229  32.268  22.359   6.506 -0.1046 -0.2155 -0.0518
 7317W        W50230  17.756  33.264   3.927  0.1533 -0.1201 -0.0513
 7318W        W50231  13.816   0.624   6.702 -0.0555  0.1361 -0.0453
 7319W        W50232  11.201  22.797   5.454 -0.0153 -0.1880  0.3339
 7320W        W50233  16.025  32.933  28.608  0.3118 -0.1598 -0.0751
 7321W        W50234  17.136  31.637   6.658  0.0279  0.0049 -0.0642
 7322W        W50235  14.897   0.491  28.398  0.4320  0.0243 -0.0561
 7323W        W50236  14.390  26.842  28.903  0.0211 -0.0259 -0.0603
 7324W        W50237  22.846  32.715   8.863 -0.1052  0.2310  0.1649
 7325W        W50238  11.961  34.046   8.892  0.0638 -0.1693  0.0023
 7326W        W50239  20.101   0.930  27.024 -0.1053 -0.2118  0.1121
 7327W        W50240  25.263  23.075   7.334 -0.1146 -0.1607  0.1465
 7328W        W50241  12.776  25.951   7.885 -0.1962 -0.2542  0.0162
 7329W        W50242   7.990  32.445  27.086  0.1826 -0.4427 -0.0042
 7330W        W50243  18.191  31.166   9.813 -0.1821 -0.0733  0.0720
 7331W        W50244  19.373  32.883   9.354  0.3789  0.0212 -0.2593
 7332W        W50245  16.200  27.644   9.731 -0.2815 -0.1188 -0.1887
 7333W        W50246  16.893  27.047  26.932  0.0706 -0.1234  0.2420
 7334W        W50247  18.366   2.652  25.115 -0.1795  0.0566 -0.0258
 7335W        W50248  15.277  33.597  25.883 -0.0929 -0.0556 -0.1330
 7336W        W50249  16.869  11.116   0.022 -0.0143 -0.1399  0.2266
 7337W        W50250  25.367  24.732  28.323  0.3014  0.0610  0.1057
 7338W        W50251  20.047  31.679   5.265  0.0302 -0.0689  0.3104
 7339W        W50252  17.220  24.603  26.019  0.1805  0.1513 -0.2424
 7340W        W50253   7.799  32.647   6.166 -0.1326  0.3182 -0.0828
 7341W        W50254   7.136  30.151  27.881 -0.0063  0.0342 -0.0950
 7342W        W50255  11.796  30.983  10.187 -0.1925  0.1979 -0.3675
 7343W        W50256  17.906  29.466   4.184  0.0700  0.2089  0.2447
 7344W        W50257  19.832   0.544   2.926  0.0609  0.0816  0.1332
 7345W        W50258  24.711   4.825   9.234  0.1324  0.1046 -0.0477
 7346W        W50259  15.495  30.051   0.121  0.0609 -0.3188  0.3113
 7347W        W50260  17.129  30.779   2.156  0.2717  0.1930  0.3124
 7348W        W50261  10.681  34.274   3.560  0.2232  0.1322  0.0444
 7349W        W50262  22.424  30.985   4.221  0.3130  0.1015 -0.1401
 7350W        W50263  19.461   6.526   6.375  0.2464  0.0704  0.0568
 7351W        W50264   5.882  32.178  29.056 -0.0631 -0.2747  0.1177
 7352W        W50265  20.570  32.571   7.131 -0.1009 -0.1876  0.3462
 7353W        W50266  19.005  30.865   5.391  0.1232  0.0077  0.1559
 7354W        W50267  13.915   0.164  12.359  0.1075  0.2988  0.0043
 7355W        W50268  27.899  30.899   8.176  0.1316 -0.1423  0.3222
 7356W        W50269  24.144  31.789   7.582 -0.1232 -0.1014 -0.0411
 7357W        W50270   4.581   1.801   9.178  0.1094 -0.2139  0.0692
 7358W        W50271  16.980  24.733  29.690  0.2026 -0.0224 -0.1400
 7359W        W50272   8.324   6.470  11.663  0.1798  0.1270  0.2783
 7360W        W50273  30.251  28.740   9.572 -0.4012 -0.3294 -0.1254
 7361W        W50274  13.709  22.264   0.724 -0.3149 -0.1197 -0.1312
 7362W        W50275  18.658  21.332   5.498  0.0699  0.1531 -0.0035
 7363W        W50276  14.669   2.500   2.750  0.0182 -0.1357  0.4460
 7364W        W50277  16.827  32.032   6.609  0.1057 -0.1033  0.1856
 7365W        W50278  11.617  22.285   7.411 -0.0424  0.0384 -0.2446
 7366W        W50279   7.993   1.920  28.918 -0.0147 -0.0273  0.1000
 7367W        W50280  16.678  31.208   6.324  0.3025  0.1461  0.1191
 7368W        W50281   9.911   4.478   7.036 -0.1645 -0.2416  0.0821
 7369W        W50282  24.942  30.185   1.788  0.1009 -0.0383  0.1729
 7370W        W50283  15.769   4.263   0.832  0.0553  0.4018  0.0643
 7371W        W50284  15.632  27.955   8.924 -0.3106 -0.3867  0.0191
 7372W        W50285  18.400  30.222  18.044  0.1058 -0.2288 -0.2157
 7373W        W50286  12.830   4.886   8.967 -0.0672  0.1468 -0.0914
 7374W        W50287  21.605  27.661   2.867 -0.0149  0.0919 -0.1315
 7375W        W50288  16.470   4.455   5.829 -0.3221 -0.2073 -0.2303
 7376W        W50289  24.322   0.682   5.654 -0.0363 -0.1328 -0.4227
 7377W        W50290  24.017   1.587  25.317  0.1806  0.0433  0.0215
 7378W        W50291  10.709  29.579  11.149 -0.0304 -0.2562  0.0310
 7379W        W50292  23.851   3.943   6.434 -0.0037  0.2185 -0.2401
 7380W        W50293  15.262  30.986   1.337 -0.3701  0.0257  0.1220
 7381W        W50294  15.343  21.260   9.360 -0.0941  0.1089  0.1399
 7382W        W50295  10.642   1.589   2.360 -0.1574 -0.1681  0.1308
 7383W        W50296  10.420   6.152   8.360  0.0882 -0.1272  0.0615
 7384W        W50297  14.674   3.975   7.952 -0.1431 -0.1766  0.0194
 7385W        W50298   3.705  29.874   7.680 -0.0543 -0.1652 -0.2448
 7386W        W50299  11.620  21.354  27.265 -0.0630 -0.0740  0.0075
 7387W        W50300  10.533  30.816   7.801 -0.1519  0.3798  0.1691
 7388W        W50301  25.582   1.519   7.872  0.0273  0.2554 -0.0261
 7389W        W50302  25.961  21.865   7.066 -0.1931 -0.2122 -0.1220
 7390W        W50303   9.722  20.515   7.834 -0.0969  0.0410 -0.3203
 7391W        W50304  16.546  28.547   1.641  0.0750 -0.0216  0.1330
 7392W        W50305   4.223   1.978   0.111 -0.4969 -0.1268  0.0381
 7393W        W50306  12.076  28.385   5.219  0.0470 -0.0145 -0.0373
 7394W        W50307  13.864   3.988  10.423  0.2532 -0.1651  0.0378
 7395W        W50308  16.972  26.228  28.805 -0.1562  0.4320  0.0735
 7396W        W50309  13.881   1.993  28.430 -0.1259 -0.2449  0.1639
 7397W        W50310   3.341   5.513  11.149  0.0582  0.0208  0.1912
 7398W        W50311  18.237  25.257   8.745 -0.0148 -0.0160 -0.0067
 7399W        W50312   6.551  29.162  27.539 -0.2228  0.0969  0.0086
 7400W        W50313  21.809  18.305  29.526 -0.2099  0.1142 -0.1820
 7401W        W50314  16.007  24.428   7.745  0.2538  0.1459  0.1511
 7402W        W50315  13.150  29.741   6.926  0.1374 -0.1678  0.0175
 7403W        W50316  16.468  32.314  26.689  0.1723  0.1962 -0.2079
 7404W        W50317  18.842   0.090   7.570  0.0382  0.2043  0.1954
 7405W        W50318  25.683  28.919   7.200 -0.5251 -0.3459 -0.0420
 7406W        W50319   6.362  27.956   2.435 -0.0149  0.2045  0.0254
 7407W        W50320  10.648  34.063   3.027 -0.1610  0.0181  0.0483
 7408W        W50321  16.564  26.999   9.250 -0.1843 -0.0184  0.5720
 7409W        W50322  12.521   2.557   2.251 -0.1001  0.3035  0.5372
 7410W        W50323  23.661  24.933   7.677  0.0548  0.0140  0.2633
 7411W        W50324  10.480  28.223   8.807 -0.1847  0.1465  0.0069
 7412W        W50325  24.163  27.128  16.874 -0.3676 -0.0179  0.3550
 7413W        W50326  14.663  30.077   6.011 -0.0584 -0.0807 -0.0444
 7414W        W50327   8.849   2.259  13.159  0.2494 -0.1237  0.0788
 7415W        W50328   7.759  19.384   8.476 -0.2557 -0.1438  0.2796
 7416W        W50329   9.708   0.100  10.159  0.0078  0.2098 -0.1573
 7417W        W50330  25.154  27.816  26.703  0.0963 -0.3368 -0.0196
 7418W        W50331  21.200   2.507   9.059 -0.0388  0.5049  0.0744
 7419W        W50332  31.071  25.596  25.881 -0.1154  0.0285 -0.3038
 7420W        W50333  16.692  33.583   1.199 -0.1364  0.1938  0.0907
 7421W        W50334  21.838   0.903   8.895 -0.1045 -0.3297  0.2847
 7422W        W50335  12.525  26.111   6.458 -0.1471 -0.3342  0.0798
 7423W        W50336  25.134   5.144   7.597 -0.2574 -0.1039  0.0754
 7424W        W50337  19.753  19.119  27.829  0.3614  0.1529  0.0144
 7425W        W50338  19.441  29.526  10.395  0.0560  0.0446 -0.3984
 7426W        W50339  16.109  31.179   5.475  0.2121 -0.2912 -0.0179
 7427W        W50340   8.618  14.094   2.497  0.1207 -0.1659  0.0077
 7428W        W50341  16.055   2.280   7.388 -0.0516 -0.3222  0.0341
 7429W        W50342   3.505  29.241  28.405 -0.0974  0.0277  0.2038
 7430W        W50343  13.131  14.631   4.192  0.1015 -0.1002 -0.2056
 7431W        W50344  13.962   2.626  10.852 -0.0141  0.0848  0.0690
 7432W        W50345  15.759  33.814   8.623  0.2309  0.1098  0.2021
 7433W        W50346  17.851  28.482   8.059  0.1511 -0.1587 -0.3294
 7434W        W50347  22.526  27.923   5.529  0.1224 -0.0731  0.1881
 7435W        W50348  33.217   1.304  28.807 -0.0973  0.2664  0.0174
 7436W        W50349  13.685  22.739   6.693 -0.1355  0.0033  0.1123
 7437W        W50350  17.781   9.405   3.225  0.0674  0.2257  0.0499
 7438W        W50351   9.320  28.270   4.704  0.0418 -0.2701  0.1982
 7439W        W50352  28.405   0.853   2.683  0.0896 -0.2087 -0.0883
 7440W        W50353  20.662  25.023   8.070  0.1078 -0.2736 -0.0857
 7441W        W50354  16.049  27.180  26.472  0.5486 -0.3266 -0.1740
 7442W        W50355  17.943  25.558  25.966  0.0207 -0.0472 -0.6100
 7443W        W50356  24.100  20.107   0.547  0.0683 -0.2703  0.1474
 7444W        W50357  18.988   0.471  10.121 -0.3881 -0.2243 -0.2828
 7445W        W50358  20.685  29.759   7.839  0.0458 -0.2714 -0.0990
 7446W        W50359  15.534   1.102   0.972  0.0111 -0.3332  0.1675
 7447W        W50360  13.289  33.829   8.592  0.1817 -0.0580 -0.1078
 7448W        W50361   8.716   2.632  27.928 -0.2355  0.1390  0.1374
 7449W        W50362  10.635  29.789  23.482 -0.0730  0.0663  0.0035
 7450W        W50363  10.938  26.182  29.610  0.1757  0.0390  0.0808
 7451W        W50364  16.055  25.933  29.464 -0.3872 -0.2453  0.2853
 7452W        W50365  21.996  30.119  27.481  0.0053  0.1638  0.2051
 7453W        W50366   9.903   4.701   3.764 -0.0933  0.1671 -0.4438
 7454W        W50367  20.845  26.376  24.587 -0.0957  0.0317 -0.2251
 7455W        W50368  10.276  31.810   4.474  0.1918 -0.1913  0.1493
 7456W        W50369  20.247  23.152   7.320  0.0030 -0.1543  0.1872
 7457W        W50370  25.367  26.209   2.002  0.1255  0.3083 -0.1820
 7458W        W50371   6.196   5.149  27.435  0.2507  0.0226 -0.0034
 7459W        W50372   5.461  30.514   5.874  0.0513  0.2206  0.1876
 7460W        W50373  15.387   2.283   9.535 -0.1528 -0.0284 -0.0537
 7461W        W50374  18.975   2.270   4.812 -0.4706  0.2351 -0.0447
 7462W        W50375  25.491   2.241   7.858 -0.0321 -0.1842  0.0651
 7463W        W50376  17.537  29.930   9.660  0.0140 -0.2993 -0.2357
 7464W        W50377  21.800   7.997   4.554 -0.1918 -0.0963 -0.1047
 7465W        W50378  18.935  33.835   6.425 -0.4466 -0.0541 -0.0213
 7466W        W50379  21.876  33.411   7.100  0.2788 -0.0321  0.0009
 7467W        W50380  13.711   2.136   7.518 -0.1367 -0.0840 -0.3511
 7468W        W50381  10.787  19.503   4.928  0.1351 -0.1624  0.1561
 7469W        W50382  16.185  30.061   6.508 -0.1582 -0.2347  0.2926
 7470W        W50383  13.338   1.156   9.157  0.2096 -0.1597  0.0223
 7471W        W50384  18.161   5.102   1.247  0.0969 -0.0247 -0.0739
 7472W        W50385  15.486  30.573  10.385  0.2469  0.0755 -0.0487
 7473W        W50386  10.925  25.249   3.708 -0.0634  0.0934  0.2063
 7474W        W50387  11.646   4.048   8.512 -0.0778  0.0110  0.2211
 7475W        W50388  23.998   4.471  10.822  0.0750  0.0623 -0.0121
 7476W        W50389  20.775  31.342   1.284 -0.1750 -0.0243 -0.0382
 7477W        W50390  20.406  25.397   1.210  0.3159  0.1887  0.1074
 7478W        W50391  19.142  25.274   2.844  0.1232  0.0366  0.0330
 7479W        W50392  10.651  32.749  22.817  0.1033  0.1494 -0.1630
 7480W        W50393  26.990  33.761   2.286 -0.3387  0.1400 -0.3134
 7481W        W50394  16.865  22.703   3.876 -0.1325  0.3658 -0.0481
 7482W        W50395  33.893  32.313   8.948 -0.0705 -0.2141 -0.2571
 7483W        W50396  19.581  32.075   9.958  0.0231 -0.1837 -0.1408
 7484W        W50397  15.975  34.473   9.890 -0.4025  0.3786 -0.1138
 7485W        W50398  20.291  19.513   2.978  0.0770  0.3748 -0.0715
 7486W        W50399  22.415  30.628   3.393  0.1714  0.0515 -0.0047
 7487W        W50400  18.816   1.070  17.466 -0.0533  0.1355 -0.5547
 7488W        W50401  17.535  32.000   8.461  0.1853  0.3141 -0.0603
 7489W        W50402   9.938  32.634   3.883  0.0585 -0.0831  0.0225
 7490W        W50403   8.014  30.015   9.649 -0.2683  0.1521 -0.3521
 7491W        W50404  17.884   3.108   9.479 -0.2295  0.0629 -0.2761
 7492W        W50405  12.507  23.772   5.728 -0.0988 -0.3986 -0.0734
 7493W        W50406  18.071  29.876   5.105 -0.0148  0.0277  0.0224
 7494W        W50407   5.752   0.908   6.348  0.0663 -0.0436  0.0171
 7495W        W50408   8.514  27.188   5.881 -0.3559 -0.1852  0.0625
 7496W        W50409  20.242  28.521   3.401  0.1331  0.0293  0.1217
 7497W        W50410  11.959   3.730   4.947 -0.0817 -0.1671 -0.4357
 7498W        W50411  31.925   4.630   9.876  0.1434 -0.1910  0.1570
 7499W        W50412   7.542   6.846  10.533  0.3501 -0.1235  0.0847
 7500W        W50413  16.632  25.394   6.283 -0.2987 -0.1317  0.0019
 7501W        W50414  14.306  26.860   8.437 -0.0674  0.3131  0.0204
 7502W        W50415  22.526  33.469   8.633  0.0193  0.0625  0.0123
 7503W        W50416  14.087   3.176  29.575  0.2521 -0.1402  0.0387
 7504W        W50417  14.615  20.711  22.000  0.0198 -0.0171 -0.2876
 7505W        W50418  20.002  33.988   6.546 -0.3601 -0.0160 -0.0207
 7506W        W50419  21.627  29.313   7.298  0.2817 -0.0725  0.3158
 7507W        W50420  25.218  10.904   1.273 -0.1589 -0.2193  0.0216
 7508W        W50421  18.696  32.452   6.055 -0.1150  0.2766  0.0404
 7509W        W50422  12.656  28.271  22.661  0.1769  0.1316 -0.2208
 7510W        W50423  23.719  30.256   3.097 -0.2196 -0.1306 -0.0014
 7511W        W50424  20.540  10.058   8.334 -0.2732  0.1317 -0.0596
 7512W        W50425  21.125   2.811   7.877 -0.1374  0.0892 -0.1468
 7513W        W50426  16.039  13.213   0.717 -0.0156 -0.0185  0.2176
 7514W        W50427  16.733  25.449   6.808  0.2079 -0.1875  0.2370
 7515W        W50428  22.772  23.213  14.938  0.0852 -0.0973  0.0518
 7516W        W50429  10.171   4.283  28.824 -0.0674  0.1330  0.2555
 7517W        W50430   4.434   0.652   8.435 -0.0729 -0.2920 -0.0878
 7518W        W50431  16.555  30.467   8.445  0.2485 -0.2302 -0.0228
 7519W        W50432  12.178   1.887   9.409  0.0789 -0.1617 -0.0423
 7520W        W50433  22.477  24.343   0.820 -0.0399  0.0640 -0.1032
 7521W        W50434  25.941   7.282  10.355  0.0768  0.0428 -0.0436
 7522W        W50435  30.511   7.251   3.004  0.0141 -0.0223  0.1670
 7523W        W50436  24.466   3.796   6.036 -0.0207 -0.0324 -0.2136
 7524W        W50437  13.153   8.508  29.621 -0.1179  0.2279  0.3359
 7525W        W50438  23.582  27.734  29.049 -0.1466 -0.0201 -0.1258
 7526W        W50439   6.617  30.179   2.244  0.3542  0.1520  0.3882
 7527W        W50440   4.656  29.445  27.222 -0.0246  0.0543 -0.0795
 7528W        W50441  21.597  29.419  27.327 -0.2085  0.0064 -0.0297
 7529W        W50442   8.085   1.477  27.555  0.2047  0.0784 -0.1722
 7530W        W50443  26.198  31.377   9.263  0.0412 -0.2669  0.1378
 7531W        W50444  14.570  34.154   7.968  0.2149  0.0621  0.5116
 7532W        W50445  15.648  14.386  22.412  0.2599 -0.3489  0.0530
 7533W        W50446  17.236   1.336  29.070 -0.5208 -0.0552  0.0188
 7534W        W50447   7.986  28.254   7.170 -0.1152 -0.1216  0.1527
 7535W        W50448  10.688  23.529   3.674  0.2790  0.1970  0.3041
 7536W        W50449   2.558  25.724   3.111  0.0169  0.0687  0.0214
 7537W        W50450  15.064   3.227  21.175 -0.5963  0.1014  0.2640
 7538W        W50451   4.474  25.088  26.669  0.3049 -0.0955 -0.0852
 7539W        W50452  13.902   2.569   3.799 -0.1708  0.3449  0.1968
 7540W        W50453   7.750  26.359   1.572 -0.2080  0.1166 -0.2324
 7541W        W50454  13.969  26.352   4.947  0.2192  0.1166 -0.0403
 7542W        W50455  25.116  21.104   4.219  0.0146 -0.1989  0.1419
 7543W        W50456  11.803  26.990  28.209  0.0536 -0.0541  0.1226
 7544W        W50457  30.221   1.378   3.298  0.0003 -0.0904 -0.1367
 7545W        W50458  22.872  29.398   8.450  0.0861  0.2138 -0.1186
 7546W        W50459  18.593  30.811   2.070  0.1561 -0.2583 -0.1810
 7547W        W50460  28.425   7.983   8.097  0.3569 -0.1208  0.0397
 7548W        W50461  20.460  26.452  23.047  0.1747  0.0859  0.1546
 7549W        W50462  14.852  32.744   1.654 -0.1325 -0.2540  0.0056
 7550W        W50463  14.814   2.353  10.186  0.1393  0.2007 -0.3809
 7551W        W50464   9.121  23.524  10.410  0.0881 -0.3233  0.1806
 7552W        W50465  16.704   0.707  28.865 -0.0199  0.4563  0.0318
 7553W        W50466  14.160  31.125  10.026 -0.1630  0.0191 -0.0906
 7554W        W50467  19.713  21.599   0.008 -0.2167 -0.2760  0.2480
 7555W        W50468  15.144   2.229   4.036 -0.0310  0.0346 -0.0180
 7556W        W50469  23.793  29.199  29.690  0.0008  0.0330  0.1158
 7557W        W50470  19.784   4.866   4.220 -0.2885  0.1436 -0.0272
 7558W        W50471  20.110  10.189   3.167 -0.0938 -0.3723  0.0000
 7559W        W50472  17.385  25.201   8.539  0.0349  0.1721 -0.4333
 7560W        W50473  16.963  32.234  10.014  0.0257  0.2525 -0.1814
 7561W        W50474  18.409   0.909   6.886  0.2403 -0.2576 -0.1009
 7562W        W50475   0.226  24.948  26.383  0.0049  0.0885 -0.1957
 7563W        W50476  11.398   2.356   4.274  0.1117 -0.3333 -0.3102
 7564W        W50477  14.003  20.331   9.089  0.0133  0.3166 -0.1248
 7565W        W50478  13.935  29.869   7.964 -0.3504  0.0682 -0.3403
 7566W        W50479  14.136  29.451   5.374 -0.0030 -0.0458 -0.1872
 7567W        W50480  19.249   0.227   9.801 -0.2937  0.1400  0.0811
 7568W        W50481  12.321  11.368   3.817  0.0974 -0.0116  0.0802
 7569W        W50482   2.650  27.413   9.504  0.1624  0.1084 -0.1706
 7570W        W50483  11.436   2.597   8.191  0.0325 -0.0862 -0.3681
 7571W        W50484  17.695  27.847   8.579  0.3750 -0.2406 -0.0084
 7572W        W50485  23.184  27.819   8.234  0.1407  0.1340  0.1535
 7573W        W50486  25.717   9.017   6.236 -0.0902 -0.0046  0.1526
 7574W        W50487  15.144  27.664   3.989  0.3533 -0.0219  0.0132
 7575W        W50488  23.187   1.848  29.067 -0.0764  0.2096  0.2107
 7576W        W50489  12.392  12.755   7.245  0.0704 -0.1830  0.0153
 7577W        W50490   6.155  27.439   3.643 -0.1528  0.1707  0.1131
 7578W        W50491  20.495  30.510   3.078  0.0460 -0.0003 -0.3427
 7579W        W50492  15.153  20.858   8.124  0.0841 -0.1399 -0.2549
 7580W        W50493  28.547  28.281   5.235  0.1853  0.1548  0.0386
 7581W        W50494  20.976  33.743   4.615 -0.1118 -0.1404  0.1221
 7582W        W50495  25.714  22.208   4.406 -0.0072  0.1612 -0.1353
 7583W        W50496   7.797  26.644   7.845  0.0984  0.1646 -0.1667
 7584W        W50497  18.259  27.558   6.132 -0.1464  0.1646  0.2078
 7585W        W50498  14.452  24.741  28.047 -0.1453 -0.0799  0.2668
 7586W        W50499   5.413  28.880   5.069 -0.0969 -0.0960 -0.1954
 7587W        W50500  15.238   2.593   9.998 -0.0729  0.1309  0.0058
 7588W        W50501  15.967  31.181   6.214  0.2388  0.0359  0.2209
 7589W        W50502  24.302  30.692   5.703 -0.2130  0.0641 -0.2125
 7590W        W50503  11.421   5.161  28.832  0.2667  0.0365 -0.2423
 7591W        W50504  26.198  31.087  27.431  0.4801  0.2770  0.3837
 7592W        W50505  31.049   4.463   8.894  0.0359  0.1940 -0.0159
 7593W        W50506  15.795  30.929   1.099  0.3309  0.1374 -0.0140
 7594W        W50507  17.500  29.859  10.148  0.0641  0.2735 -0.0114
 7595W        W50508  13.999  24.530  26.998 -0.0874 -0.3490 -0.0625
 7596W        W50509  14.064   0.784   2.860  0.3631 -0.1019 -0.1398
 7597W        W50510  25.561   5.193   0.288  0.0217  0.2432  0.0179
 7598W        W50511  18.644  31.687   0.614  0.1654  0.2001  0.0725
 7599W        W50512  17.989  31.159   3.946  0.1345 -0.4127  0.1809
 7600W        W50513  13.191  32.712   5.963  0.2059 -0.0379  0.0144
 7601W        W50514  18.510  24.664  27.008  0.0884 -0.0092 -0.3247
 7602W        W50515  12.929   0.777  27.092 -0.1572  0.2565  0.2386
 7603W        W50516  12.847  29.183   9.404 -0.0276 -0.2042  0.3095
 7604W        W50517  19.100  30.991   9.556 -0.0043 -0.1102  0.1077
 7605W        W50518  15.132  26.746   8.134 -0.1671 -0.2442 -0.0895
 7606W        W50519  20.594  21.095   8.631 -0.3004  0.0836  0.0787
 7607W        W50520   0.397  33.706   3.697 -0.1727  0.2230  0.2046
 7608W        W50521  33.349   2.003  28.756 -0.1559  0.0154 -0.1625
 7609W        W50522  13.890  31.202   7.525 -0.1881  0.0605 -0.0249
 7610W        W50523  11.122  31.828  11.942  0.0667 -0.0727  0.1370
 7611W        W50524  15.738   5.514   9.120 -0.0121 -0.1661 -0.2394
 7612W        W50525  15.200  32.599   6.664 -0.1957 -0.0580 -0.1159
 7613W        W50526   9.677  10.901   1.334  0.1639 -0.2803  0.1461
 7614W        W50527  18.982  32.434   4.633 -0.2127 -0.1924  0.0990
 7615W        W50528  13.848  29.069  10.485  0.0591 -0.0816 -0.0053
 7616W        W50529  14.132  14.449   7.224 -0.1722 -0.0612  0.0571
 7617W        W50530  18.151  28.593   9.601  0.0540  0.1947  0.3268
 7618W        W50531  32.312   1.025   9.385  0.4335  0.0187  0.1723
 7619W        W50532  22.039  25.952   6.174  0.2908  0.1215 -0.3049
 7620W        W50533  21.459  30.215   8.804 -0.0775  0.0279  0.2224
 7621W        W50534  18.094  30.621  10.942  0.1294 -0.3967 -0.0255
 7622W        W50535   8.148   6.261   3.408  0.1709  0.1991  0.3828
 7623W        W50536   8.749   7.064   5.335 -0.1365 -0.1483  0.0579
 7624W        W50537  30.922  28.147   3.470  0.0679 -0.1916 -0.0702
 7625W        W50538  10.675  30.858  11.750  0.0078  0.0630  0.1176
 7626W        W50539  16.243  26.457   4.934 -0.0269  0.0173  0.0743
 7627W        W50540  19.010   1.364  10.468  0.3257  0.1441  0.0524
 7628W        W50541  28.049  31.148  28.482  0.1485 -0.0200  0.1834
 7629W        W50542  19.557  30.599  27.169  0.1485  0.0558 -0.3453
 7630W        W50543  17.717  28.306   7.253  0.2572 -0.0576 -0.2150
 7631W        W50544  20.389  24.806  27.066 -0.2813  0.2039 -0.2382
 7632W        W50545  15.742   1.637   7.939  0.3980 -0.0453 -0.0764
 7633W        W50546  24.271  30.343   3.190 -0.0756 -0.4589  0.1737
 7634W        W50547   9.436  32.925   2.243  0.1148  0.0612  0.0780
 7635W        W50548  14.387  32.274  10.057  0.1248  0.0643 -0.1416
 7636W        W50549  10.067  33.545   4.877 -0.0325 -0.1094 -0.1325
 7637W        W50550  21.154  29.085  23.500  0.0200  0.2753 -0.0287
 7638W        W50551   7.792  25.637   7.738  0.0802  0.1335 -0.3495
 7639W        W50552   8.748  30.151   5.967  0.1683 -0.0135  0.0761
 7640W        W50553  20.248  28.081   6.717  0.3926 -0.1475  0.0334
 7641W        W50554  20.618  27.705   7.942  0.2111 -0.0015  0.1168
 7642W        W50555  31.110  28.815  27.679 -0.2556  0.1820 -0.3842
 7643W        W50556  10.334   5.256  11.696  0.2751 -0.0302 -0.0394
 7644W        W50557  15.238   0.310  10.232  0.1549 -0.2689 -0.0252
 7645W        W50558   5.051  28.297   8.263 -0.2056  0.0211 -0.0584
 7646W        W50559  12.102  29.403   9.061 -0.1679 -0.0464 -0.2654
 7647W        W50560  13.451  30.822  24.224 -0.3212  0.1050 -0.1727
 7648W        W50561  20.090  25.012  29.359  0.1934 -0.0005 -0.1157
 7649W        W50562  19.074  29.203   6.550  0.2108  0.1190 -0.0351
 7650W        W50563  20.638  29.973   8.994  0.0754  0.0216 -0.0546
 7651W        W50564   6.684   2.606   1.303 -0.1192  0.2258 -0.0846
 7652W        W50565  11.704  32.437   3.839 -0.3164 -0.0960  0.1956
 7653W        W50566   8.308   8.147   9.698  0.1711 -0.0224 -0.0587
 7654W        W50567  19.065  33.278  25.324 -0.2110  0.0861  0.1100
 7655W        W50568   6.540  32.779   9.897  0.0926 -0.1039  0.0614
 7656W        W50569  16.543   0.434   8.248 -0.0919 -0.2641 -0.1765
 7657W        W50570  11.566  30.276  11.526  0.1142 -0.3053  0.0409
 7658W        W50571  17.948   1.077  10.338 -0.1703  0.0509  0.3025
 7659W        W50572  16.184  24.568   6.035  0.0625  0.2777  0.6100
 7660W        W50573  20.703  25.747   5.778 -0.1429  0.0178 -0.2361
 7661W        W50574  18.100  28.678   1.972 -0.1038  0.1751 -0.3674
 7662W        W50575  17.342  32.051  17.005  0.1101  0.1924 -0.2107
 7663W        W50576  15.003  25.285   7.678 -0.0505  0.4216 -0.1992
 7664W        W50577   1.570  30.858   8.103 -0.1662 -0.2297 -0.1073
 7665W        W50578  11.327   3.081  19.098  0.1475  0.1711  0.3260
 7666W        W50579  16.155   1.373   7.363 -0.2597 -0.1402  0.0790
 7667W        W50580  15.954  32.553   9.437  0.0220 -0.1764 -0.0788
 7668W        W50581  12.786  22.315  28.638 -0.0562 -0.0121 -0.1570
 7669W        W50582  13.404   2.710   3.971  0.0813  0.0984  0.1803
 7670W        W50583  26.234   5.043   9.132 -0.3558  0.0002  0.0221
 7671W        W50584  29.277  33.948   8.295  0.1892 -0.0881  0.1004
 7672W        W50585   7.627  23.469   4.330  0.1758  0.1598  0.1480
 7673W        W50586  11.516  33.957   9.680  0.0731  0.2539 -0.2224
 7674W        W50587  12.656  29.066   8.004 -0.1311 -0.1335 -0.0395
 7675W        W50588  21.584   4.243   7.909 -0.0582 -0.1236 -0.0869
 7676W        W50589  17.012  22.019   0.969 -0.0185  0.2718 -0.1693
 7677W        W50590   6.685  29.727  12.162  0.1832 -0.0153 -0.0623
 7678W        W50591   1.768   4.416   8.306 -0.3206 -0.3716 -0.1963
 7679W        W50592  21.200   1.109   6.368  0.0499  0.0908  0.0180
 7680W        W50593  23.100  20.726  28.218  0.2980 -0.0954  0.1472
 7681W        W50594  12.040  31.724   8.876  0.1510  0.2324 -0.0618
 7682W        W50595  22.968  31.997   7.769  0.1792  0.1492 -0.2142
 7683W        W50596  13.214   1.572   3.217 -0.1714 -0.0681 -0.0507
 7684W        W50597  13.173  32.891   7.680 -0.1292  0.3399 -0.2732
 7685W        W50598  13.018   0.299   2.539  0.0501 -0.0941  0.1204
 7686W        W50599  17.413  23.659   2.005  0.1196  0.2049 -0.0088
 7687W        W50600  13.541  27.853  25.037  0.0123 -0.0217  0.0045
 7688W        W50601  13.747   3.014   3.721 -0.0703 -0.0517  0.0611
 7689W        W50602  24.042   1.996   6.392  0.2148  0.0278 -0.2446
 7690W        W50603  11.723  31.518   8.593  0.2104 -0.0805  0.1527
 7691W        W50604  24.187  32.771   8.998 -0.0986  0.1831 -0.0377
 7692W        W50605  13.526   6.330   3.756  0.2673 -0.1219 -0.1609
 7693W        W50606  20.821  27.145   8.715 -0.5300 -0.2666  0.0728
 7694W        W50607  20.208  32.873   3.063 -0.1767 -0.1301  0.1824
 7695W        W50608  21.527  28.613  25.211  0.0510 -0.0433 -0.1028
 7696W        W50609  10.489  31.052   1.245 -0.3158 -0.0968  0.0932
 7697W        W50610  34.122  28.821   5.851 -0.1716 -0.0073 -0.1093
 7698W        W50611  16.918  29.988   5.173  0.3956 -0.1522 -0.0259
 7699W        W50612  11.477  27.776   9.852 -0.5703 -0.0196  0.2098
 7700W        W50613  21.517   5.011   8.730  0.1567  0.0140 -0.2358
 7701W        W50614   3.767   2.832   0.234 -0.1747 -0.1106 -0.3963
 7702W        W50615  22.781  29.259   9.409  0.1243 -0.2995 -0.0984
 7703W        W50616   7.182   7.922  11.244  0.4163  0.2717 -0.2855
 7704W        W50617  14.422   2.422   0.291  0.1140 -0.2637  0.1321
 7705W        W50618  12.043  27.640   7.200 -0.0593  0.1268  0.2274
 7706W        W50619  31.823  30.639   8.781  0.0207 -0.1218 -0.0260
 7707W        W50620  28.393   0.429   7.912 -0.0090  0.0652 -0.1452
 7708W        W50621  10.242  31.143  23.938 -0.0977  0.1082  0.0561
 7709W        W50622  16.144   4.027   3.585  0.1125 -0.0691 -0.0128
 7710W        W50623   5.168   3.885   3.082  0.1190 -0.0847  0.2299
 7711W        W50624  13.247  31.431   5.882  0.0197 -0.2905  0.2756
 7712W        W50625  15.167  30.653   7.834 -0.1767 -0.0742  0.1608
 7713W        W50626   8.026  31.410   6.921  0.0195  0.0452  0.2290
 7714W        W50627   3.661   0.297  27.699  0.2351  0.0271 -0.3081
 7715W        W50628  16.128   4.497  28.901 -0.0452  0.0799 -0.3180
 7716W        W50629   9.362   2.385   3.696  0.1406 -0.1272 -0.1126
 7717W        W50630  15.706  31.942   4.662 -0.0421  0.1751  0.1740
 7718W        W50631  11.267  33.108  11.007  0.0434 -0.0626  0.1985
 7719W        W50632  17.985  24.702   9.291  0.0083  0.1123  0.0087
 7720W        W50633  14.276  27.424   2.401 -0.2429 -0.2123 -0.1404
 7721W        W50634  15.551  31.317   6.421  0.4723  0.2360  0.5234
 7722W        W50635  25.063   7.282   3.657  0.0671  0.1335 -0.2858
 7723W        W50636  16.116   4.045   8.211 -0.1303 -0.0601  0.1760
 7724W        W50637  23.972  29.621   1.702  0.0982  0.1165  0.2601
 7725W        W50638  18.930  29.439   6.124 -0.1874  0.1938 -0.1863
 7726W        W50639  20.018   0.579   6.817  0.1691  0.3530  0.1879
 7727W        W50640  18.207  33.086  10.248 -0.1426 -0.0452 -0.4108
 7728W        W50641  30.029  33.218   2.773  0.2685  0.3749  0.0959
 7729W        W50642   7.543  33.181   8.290  0.0392  0.1489 -0.3600
 7730W        W50643  10.532  32.416  29.030 -0.1793  0.1164 -0.0820
 7731W        W50644  14.810  27.244   7.409  0.1123 -0.0462 -0.1024
 7732W        W50645  19.118   0.656   7.355 -0.0420 -0.0466  0.2101
 7733W        W50646  17.490  32.910   3.337  0.0394  0.0765 -0.0463
 7734W        W50647  15.484  15.597  29.547  0.0690 -0.2313  0.0081
 7735W        W50648  17.356  32.290   5.873  0.2739  0.0495 -0.0711
 7736W        W50649  22.986   7.838   8.018  0.1291  0.0346 -0.1191
 7737W        W50650  20.994  33.977   0.398 -0.0190 -0.0189  0.2643
 7738W        W50651   9.115  25.952   8.065  0.3193  0.2889 -0.0064
 7739W        W50652  32.224  13.106   3.125 -0.2061 -0.2595 -0.3421
 7740W        W50653   8.724  33.847  10.459 -0.0160  0.1686 -0.0459
 7741W        W50654  11.563  33.792  10.350  0.1775  0.1411  0.2500
 7742W        W50655  19.870  33.011   1.084 -0.0994 -0.1543 -0.2300
 7743W        W50656  21.553  33.434   8.472 -0.2910 -0.0791 -0.0720
 7744W        W50657   9.759   8.330  11.591  0.1570 -0.0162 -0.2169
 7745W        W50658   7.837   1.222   4.625  0.2087 -0.2404  0.1213
 7746W        W50659   3.884   4.490   9.373  0.2366  0.1139  0.1523
 7747W        W50660  15.865  24.823   3.028  0.1118 -0.0156 -0.1229
 7748W        W50661  22.537   8.196  24.265  0.0680  0.0525 -0.0488
 7749W        W50662  14.909  22.343   8.396  0.1081 -0.2173  0.0347
 7750W        W50663  13.009  33.197   1.929 -0.3028 -0.1870 -0.0016
 7751W        W50664  17.211  18.826   5.066  0.0548 -0.0797 -0.0242
 7752W        W50665   2.826  31.666   4.280  0.0486  0.0955 -0.0795
 7753W        W50666  17.253   5.090   7.065  0.0362  0.0917 -0.2483
 7754W        W50667  21.713  28.373   5.521 -0.2258  0.2233 -0.1424
 7755W        W50668  12.262  27.672   9.097  0.2120  0.0689  0.2374
 7756W        W50669   8.018  30.512   8.750  0.0984 -0.0709 -0.3851
 7757W        W50670  25.656  18.895   4.465 -0.2185 -0.4334  0.2235
 7758W        W50671  14.390  13.720   1.574  0.2307 -0.0207 -0.0521
 7759W        W50672  11.588   1.779   8.657  0.0755 -0.2836 -0.4263
 7760W        W50673   4.911   0.908   3.854  0.0829 -0.0285  0.1961
 7761W        W50674  12.891  34.219   8.636 -0.0982  0.0386 -0.0067
 7762W        W50675  12.361  25.743   8.013  0.1937  0.1406  0.2226
 7763W        W50676  12.289  27.959  11.581 -0.0692  0.0677 -0.3065
 7764W        W50677   7.707  33.506  25.607 -0.0986 -0.0817  0.1570
 7765W        W50678  18.451  26.375   6.953 -0.0999  0.0981  0.4382
 7766W        W50679  19.297  26.385   6.061  0.0031  0.1472  0.2752
 7767W        W50680  12.411  32.666  28.954 -0.0553  0.5106  0.0624
 7768W        W50681  15.940  34.492   6.472 -0.1887 -0.1124 -0.0540
 7769W        W50682  21.872  23.915   0.976  0.0636  0.1416 -0.3364
 7770W        W50683  16.993  29.801   9.907 -0.1933 -0.1860 -0.2985
 7771W        W50684  13.111  26.792   8.511 -0.0087  0.0398  0.1493
 7772W        W50685  22.621  30.317   6.897  0.0970 -0.2704  0.2062
 7773W        W50686  18.479  26.389  24.248  0.0392  0.0516 -0.0883
 7774W        W50687  16.456  25.512   5.848 -0.2519  0.1675 -0.0294
 7775W        W50688  18.431  21.157  19.789 -0.1880 -0.4267 -0.0050
 7776W        W50689  26.029   2.372   4.243 -0.0926  0.0668  0.1259
 7777W        W50690  10.477   4.668   4.811 -0.0143  0.4961 -0.1777
 7778W        W50691  14.517  25.951   0.214 -0.1514 -0.2808 -0.0280
 7779W        W50692  18.714  29.053   7.392  0.0186 -0.2512 -0.0319
 7780W        W50693   8.429  29.184   9.816  0.0523 -0.0769  0.0817
 7781W        W50694  19.459  32.892   7.621 -0.1026 -0.1444 -0.1323
 7782W        W50695   1.402  27.737   4.767 -0.1090  0.1072  0.0197
 7783W        W50696  11.561   4.444   2.427 -0.0722  0.2820  0.0785
 7784W        W50697  10.579   2.023   8.871  0.0617  0.0265  0.0966
 7785W        W50698  17.344  30.802   9.885  0.1694 -0.1780 -0.0955
 7786W        W50699  17.056   1.144   7.008 -0.1647  0.1902  0.0959
 7787W        W50700  28.706   6.148   3.994  0.0932  0.0225  0.0847
 7788W        W50701  16.247   2.025  11.261  0.1091  0.1853  0.2959
 7789W        W50702  22.080   0.048   8.480 -0.0761 -0.1867 -0.1731
 7790W        W50703  23.218  31.348   7.747 -0.0106  0.0379  0.1350
 7791W        W50704  13.339   5.790   8.559 -0.1800 -0.3635  0.2006
 7792W        W50705   3.329   0.434   8.178 -0.0811  0.2957 -0.1843
 7793W        W50706   8.873  29.313   3.968  0.2454 -0.0512  0.0834
 7794W        W50707  15.067   1.956   1.224 -0.0835  0.0586  0.1560
 7795W        W50708  16.381   2.940  27.987 -0.0276 -0.2519  0.1929
 7796W        W50709   2.362  31.156   9.415  0.0694 -0.0841  0.1421
 7797W        W50710   3.936  23.254   4.594  0.1802 -0.0636 -0.0407
 7798W        W50711   7.895  33.744  12.265 -0.0246 -0.0139  0.0182
 7799W        W50712  10.391   0.214   9.023  0.2959 -0.1883 -0.2347
 7800W        W50713  15.118   3.095   9.691 -0.0751 -0.2188  0.0614
 7801W        W50714  13.853   5.602   9.288  0.2176 -0.2380 -0.0871
 7802W        W50715  15.678   3.254   3.867  0.1945  0.0702 -0.2580
 7803W        W50716  14.786  26.830  28.591 -0.2145  0.0733 -0.0935
 7804W        W50717  19.162  30.224  29.052 -0.1328  0.0476 -0.2696
 7805W        W50718  12.877  26.820   7.795 -0.1108 -0.0368 -0.3809
 7806W        W50719  10.279  23.637   7.838  0.1517  0.0752  0.1280
 7807W        W50720  14.799  31.747   2.606  0.1499 -0.0458 -0.1281
 7808W        W50721  19.738  27.819   9.220 -0.0671 -0.1736  0.2289
 7809W        W50722  10.958   2.514   7.877  0.3823 -0.1519 -0.4266
 7810W        W50723  16.373   0.188   6.260 -0.0696 -0.1577  0.3292
 7811W        W50724   8.024  26.945   2.858 -0.2043 -0.0906  0.1696
 7812W        W50725  17.156  30.346   4.891 -0.3825  0.2498  0.3316
 7813W        W50726  13.834  30.933  26.094  0.1301  0.2403 -0.0023
 7814W        W50727   5.457  32.446   0.004 -0.1459 -0.1219 -0.1348
 7815W        W50728  24.531  19.959   2.304  0.3188 -0.0290 -0.1363
 7816W        W50729  13.287  21.266   5.423  0.0406 -0.2953 -0.0688
 7817W        W50730  18.766  26.337   6.485  0.1274 -0.3504  0.2717
 7818W        W50731  11.535   1.822   7.673  0.1597  0.1933 -0.1211
 7819W        W50732  20.286   7.857   7.997 -0.0908  0.3603  0.3573
 7820W        W50733  18.431   6.078   8.737  0.3669  0.2698  0.2177
 7821W        W50734  23.565  28.914   7.652 -0.0476 -0.3002 -0.2660
 7822W        W50735  15.007   4.465   5.866 -0.1499 -0.0964 -0.2082
 7823W        W50736   6.679   0.775  10.049  0.2146  0.1238 -0.0007
 7824W        W50737  20.152  20.417   3.683 -0.0987  0.0740  0.1032
 7825W        W50738  20.145  30.452   7.243  0.0670  0.1764 -0.1493
 7826W        W50739  17.917   6.235   6.604  0.1967  0.2177 -0.2300
 7827W        W50740  10.196  22.061   6.879  0.0690 -0.0031  0.1637
 7828W        W50741  10.472  33.024  21.972 -0.0760 -0.2113 -0.2900
 7829W        W50742  22.612  27.010   5.375 -0.0128 -0.0118 -0.3441
 7830W        W50743   9.947  26.669   2.999  0.1469  0.2777  0.1658
 7831W        W50744  13.825  27.662   5.179 -0.0914 -0.0743  0.2939
 7832W        W50745  17.392   0.429  10.828 -0.0596 -0.0412 -0.1490
 7833W        W50746  27.579  27.559   9.445 -0.3476 -0.0867 -0.3658
 7834W        W50747  14.890  34.162   8.406 -0.2194  0.1124  0.2643
 7835W        W50748  24.605  28.218   1.510 -0.1241  0.1890  0.1704
 7836W        W50749   9.236  30.008   9.580  0.0779 -0.1371  0.5094
 7837W        W50750   9.650   4.516   4.681  0.2025  0.0967  0.1239
 7838W        W50751  15.073  29.272   3.393  0.4576  0.0086  0.1177
 7839W        W50752   9.833  26.844   8.565 -0.0621 -0.0580 -0.3794
 7840W        W50753  14.602  31.450  27.343  0.0263  0.1223 -0.1641
 7841W        W50754  26.634  29.020   6.927 -0.1149  0.1570 -0.1242
 7842W        W50755  23.470  30.295   5.950 -0.0370  0.0575 -0.0623
 7843W        W50756  17.483  28.570   1.291 -0.1176 -0.0759  0.0980
 7844W        W50757  26.008  34.026   7.500  0.2820  0.0736 -0.0392
 7845W        W50758  23.822   3.694   5.687 -0.1664 -0.0073  0.3211
 7846W        W50759   5.978  30.701  10.888 -0.1677 -0.2700 -0.1490
 7847W        W50760  25.699  30.305   5.733  0.1375  0.1674 -0.1496
 7848W        W50761   8.305  33.387   0.197  0.0161  0.0821  0.1637
 7849W        W50762  14.030  31.716  10.800  0.0845 -0.0827  0.1965
 7850W        W50763  17.297  27.030   1.803 -0.1073 -0.0841 -0.2045
 7851W        W50764  14.058   2.930   7.515  0.1651  0.1145  0.3284
 7852W        W50765  21.087  10.011   5.710  0.0545  0.0468 -0.0131
 7853W        W50766  23.261  31.698   8.184  0.1684  0.0317 -0.1099
 7854W        W50767  11.417  31.608  10.155 -0.1015  0.3047  0.0776
 7855W        W50768  13.840   4.629   0.539  0.0781 -0.0651  0.0319
 7856W        W50769   8.996   1.449   2.444  0.4350 -0.0850 -0.1940
 7857W        W50770   2.884  23.019   2.899  0.0335  0.0064  0.4499
 7858W        W50771  10.737  26.147   2.019 -0.1632  0.4835 -0.2016
 7859W        W50772  13.814  27.165  10.324  0.0205  0.0066 -0.0914
 7860W        W50773  19.690  29.165  27.982 -0.1752  0.3937 -0.0370
 7861W        W50774  17.727  32.661   7.874  0.0586  0.0676 -0.0370
 7862W        W50775  12.469   4.930   9.332 -0.0159  0.2314 -0.0165
 7863W        W50776   7.601   1.171   9.303 -0.1499  0.2309 -0.0595
 7864W        W50777  20.657  32.441   5.092  0.0589 -0.2729  0.0236
 7865W        W50778  22.148  25.564   8.099  0.1484 -0.2519 -0.0714
 7866W        W50779   8.388  33.138   5.416 -0.2283 -0.1380  0.1374
 7867W        W50780   7.571  28.547   9.327 -0.0282  0.3450 -0.0592
 7868W        W50781   5.824   1.382  12.532  0.0444  0.0100  0.1257
 7869W        W50782  15.158  23.986  27.943  0.1469 -0.0624  0.1031
 7870W        W50783  22.971   5.995   8.929 -0.0021 -0.2636 -0.2766
 7871W        W50784  22.013  31.914   2.616 -0.0673 -0.5209  0.2568
 7872W        W50785  12.618  32.973   8.184  0.0891 -0.3511  0.1872
 7873W        W50786   9.613   8.361   5.761 -0.0004  0.0911 -0.0855
 7874W        W50787  13.405  26.025   7.854  0.1817  0.2654 -0.2196
 7875W        W50788  13.385  28.318  10.249 -0.0277  0.0485  0.3546
 7876W        W50789  22.351   2.547   9.862 -0.0353 -0.0566  0.1578
 7877W        W50790  16.620  25.519   9.352  0.0929 -0.0370 -0.1242
 7878W        W50791  31.093  31.887   6.126 -0.0897 -0.0913  0.0126
 7879W        W50792   8.862   4.614  11.486 -0.0524 -0.1922  0.3903
 7880W        W50793   8.065   0.452   4.873  0.0369 -0.4369  0.1206
 7881W        W50794  15.397  28.475   7.987 -0.0116 -0.2018 -0.2548
 7882W        W50795  29.178   7.230   9.029 -0.1392 -0.1314  0.0794
 7883W        W50796   6.476  14.219   8.270  0.1635  0.0424 -0.0475
 7884W        W50797   4.470  27.849  25.294  0.0183 -0.2424  0.0758
 7885W        W50798  18.226   0.023   6.568  0.3974 -0.2101  0.0018
 7886W        W50799  15.588  23.423   7.573 -0.1069  0.0113 -0.1046
 7887W        W50800  19.082  25.382  27.245  0.2720 -0.3635 -0.2185
 7888W        W50801  31.380  32.655  10.590 -0.2244  0.1873  0.2581
 7889W        W50802   9.650  28.103   1.955  0.1470 -0.5016 -0.0638
 7890W        W50803  14.522  23.952   9.559  0.0343 -0.2147  0.0733
 7891W        W50804  14.765  29.588   6.196  0.0410 -0.0000 -0.1730
 7892W        W50805  12.484  27.518   9.590  0.0670  0.0833  0.1359
 7893W        W50806  21.790  26.370   5.130 -0.2520 -0.2246  0.0497
 7894W        W50807  16.475   5.480   8.510 -0.1325 -0.2994  0.0799
 7895W        W50808  20.933  22.362  27.563 -0.1719  0.1935  0.0555
 7896W        W50809  22.484  23.485   7.609 -0.0995 -0.0145 -0.2943
 7897W        W50810  12.312  23.779   4.494  0.0887 -0.1311 -0.2669
 7898W        W50811  19.710   1.811   5.092 -0.0546 -0.0190  0.0962
 7899W        W50812  28.500  21.562   6.728  0.0225  0.1437  0.1090
 7900W        W50813  13.743  33.760  12.287 -0.0409 -0.0332 -0.2903
 7901W        W50814  13.168  21.178   7.263  0.2187 -0.0049  0.1187
 7902W        W50815  28.325   4.317   8.613  0.0474 -0.1530  0.1220
 7903W        W50816  17.803  32.229  26.028 -0.1377 -0.2283 -0.1087
 7904W        W50817  15.037  28.629   1.426 -0.1836 -0.1902 -0.0519
 7905W        W50818  17.877  31.515  10.311 -0.1110 -0.1217 -0.0816
 7906W        W50819  19.107   2.280   6.588 -0.2243 -0.1325  0.0544
 7907W        W50820  23.275  30.932   4.817 -0.4473 -0.0451 -0.1428
 7908W        W50821  10.424  26.746   5.897 -0.0596  0.0295  0.3938
 7909W        W50822  14.646  30.550  29.188  0.2573 -0.2829 -0.1727
 7910W        W50823  12.624  34.042   9.663 -0.1584 -0.0371 -0.0441
 7911W        W50824   8.989  29.352  26.238  0.1981 -0.1187  0.2726
 7912W        W50825  11.230  11.490   3.275 -0.0677 -0.0824  0.1435
 7913W        W50826  18.024  32.042  25.254 -0.1566  0.0502  0.0109
 7914W        W50827  15.612   1.826   4.821 -0.1889  0.1672  0.1408
 7915W        W50828  24.987  30.111   4.647  0.1446  0.1123 -0.0714
 7916W        W50829  26.249  25.590  14.581 -0.2930 -0.5026 -0.0072
 7917W        W50830  25.760  20.220  21.335  0.0478  0.3091 -0.0932
 7918W        W50831   9.166   6.406   8.895  0.2244 -0.0516  0.0826
 7919W        W50832  27.387   2.800  21.526 -0.0861  0.3863  0.1080
 7920W        W50833  10.107   1.674  10.011 -0.4778 -0.1031  0.0085
 7921W        W50834  14.433  32.182   3.504  0.1178  0.4851  0.1320
 7922W        W50835  18.198   2.874   5.079 -0.1914  0.0157  0.1343
 7923W        W50836  25.753  26.644  29.725  0.2983 -0.0889 -0.0961
 7924W        W50837  22.751  25.699  24.312 -0.0091 -0.0880  0.2040
 7925W        W50838  18.354  12.568   0.471  0.0756  0.0073  0.2246
 7926W        W50839  19.709   2.465   9.975 -0.0364  0.3221  0.4080
 7927W        W50840  19.012  23.409   1.705 -0.0496  0.1030  0.0035
 7928W        W50841  24.563  29.401   1.861 -0.0105 -0.2371  0.1257
 7929W        W50842  24.935  33.104   2.881  0.1413 -0.0382  0.2441
 7930W        W50843  22.028  29.326   8.882  0.1074  0.0524  0.0222
 7931W        W50844  12.531  34.044  23.610  0.0324  0.1990  0.0915
 7932W        W50845  20.086   1.208   2.606  0.2462 -0.1693 -0.0654
 7933W        W50846  24.190  17.342   0.484  0.0772 -0.0895 -0.4757
 7934W        W50847  16.287  31.816   1.808 -0.3234  0.0066  0.1235
 7935W        W50848   7.689   0.116   4.854  0.2616  0.1843  0.1136
 7936W        W50849  17.572   0.055   3.479  0.0464  0.0903 -0.0203
 7937W        W50850   4.952   5.049   8.952 -0.0219  0.0338 -0.0768
 7938W        W50851  23.206   7.217   1.717 -0.0252 -0.1003 -0.4961
 7939W        W50852  22.142  32.280  15.516  0.1721 -0.0237 -0.0217
 7940W        W50853  25.851   4.907   0.641  0.1034 -0.4851  0.0082
 7941W        W50854  18.917  31.023  29.499  0.2678  0.1565  0.0303
 7942W        W50855  26.257  11.673   6.445  0.0949 -0.3155 -0.0979
 7943W        W50856  19.007  34.341  23.256 -0.0071 -0.0393 -0.0908
 7944W        W50857  11.940  33.131  20.969  0.0176 -0.1925 -0.1133
 7945W        W50858  13.097  29.179   0.419 -0.3452 -0.2326  0.3011
 7946W        W50859  15.685   1.574  21.414  0.0963 -0.1389  0.2256
 7947W        W50860  22.312  23.995   6.371  0.1016  0.0885 -0.2503
 7948W        W50861  20.691  24.924   1.793  0.1529  0.0693 -0.1385
 7949W        W50862  24.069   5.357   1.822  0.1322  0.2225  0.0713
 7950W        W50863  22.254  34.033   2.017 -0.1784  0.0828 -0.1411
 7951W        W50864  15.145   8.173  18.821 -0.1196 -0.1434 -0.1411
 7952W        W50865  24.551  27.849   5.121 -0.1596 -0.0203  0.0572
 7953W        W50866   7.932   5.680   5.831 -0.0819  0.0143  0.3297
 7954W        W50867  14.894  30.253   1.097 -0.0338  0.0800  0.1049
 7955W        W50868  20.527  24.093  28.290 -0.2005 -0.0570 -0.0460
 7956W        W50869  19.440  31.398  28.542 -0.1665 -0.1284 -0.0156
 7957W        W50870  11.072  31.654  29.779  0.2245 -0.0150 -0.1770
 7958W        W50871  18.658  30.022   7.897 -0.0549 -0.1877 -0.1879
 7959W        W50872  21.158   0.931   3.512  0.4277  0.0337  0.1014
 7960W        W50873  17.642   0.028  20.399 -0.1415  0.1106 -0.0213
 7961W        W50874  13.915   0.433  29.221  0.4240  0.0189  0.0256
 7962W        W50875  14.556  12.476   1.050 -0.4138  0.2807  0.0636
 7963W        W50876   0.982   2.240   4.223  0.0009  0.3510  0.0156
 7964W        W50877  31.590   2.659   1.915  0.3643  0.0512  0.2076
 7965W        W50878  21.931  29.525   0.756  0.1286 -0.3404 -0.1467
 7966W        W50879  14.595   4.650   3.532 -0.1978  0.0706 -0.1753
 7967W        W50880  20.673   2.909   4.739 -0.2121 -0.1593 -0.0044
 7968W        W50881   8.235  26.091   7.111 -0.0854 -0.0040 -0.1358
 7969W        W50882  24.402  32.730  24.529  0.4602 -0.1958 -0.1798
 7970W        W50883  11.663  20.753  22.623 -0.3571 -0.3071  0.1572
 7971W        W50884  28.937   5.430   3.078 -0.0451 -0.1150  0.1929
 7972W        W50885  12.467  27.945  22.968 -0.2724 -0.0754  0.0177
 7973W        W50886  18.393   3.883   7.441  0.2452 -0.2237 -0.1938
 7974W        W50887  17.013  28.027  27.719 -0.1234  0.1808  0.0434
 7975W        W50888  24.553  29.280   8.038 -0.2196  0.0283 -0.0402
 7976W        W50889  10.557  25.486  28.747  0.0823 -0.2948 -0.1672
 7977W        W50890   9.006  22.710   6.421  0.1768 -0.0147 -0.0890
 7978W        W50891  13.120  34.016  28.780 -0.2864 -0.0866  0.1424
 7979W        W50892  27.151   2.569  28.018  0.1168 -0.0723 -0.1924
 7980W        W50893  14.332  33.255  28.380  0.1772 -0.0872 -0.0328
 7981W        W50894  25.363   4.977   1.910 -0.0671 -0.2867 -0.0061
 7982W        W50895  14.928  29.558  19.292 -0.0687  0.2565 -0.1852
 7983W        W50896   6.617   5.072   2.104 -0.0134  0.0487  0.1769
 7984W        W50897   8.921  31.693  18.974  0.1494  0.2776 -0.3296
 7985W        W50898  12.431   2.722  23.602 -0.4209 -0.0815 -0.1532
 7986W        W50899  21.721  30.761  26.899  0.0939  0.0950  0.0214
 7987W        W50900  27.305  33.288  27.373 -0.1189  0.0221  0.0521
 7988W        W50901  17.471   7.735   4.105 -0.0138 -0.0100  0.0712
 7989W        W50902  17.816  31.786  26.047  0.1737 -0.0191  0.1051
 7990W        W50903  14.692  34.295   5.143 -0.1243  0.1408  0.1144
 7991W        W50904  22.671   0.529  26.783  0.0390 -0.1075 -0.0787
 7992W        W50905  12.896   0.389  28.926 -0.0791  0.1216  0.1143
 7993W        W50906  27.051  28.950  26.999 -0.0449  0.3493 -0.1268
 7994W        W50907  18.601   0.281   2.443 -0.1688 -0.0037  0.0844
 7995W        W50908  14.618  25.969   5.187 -0.0853 -0.1423 -0.3367
 7996W        W50909  11.303  33.490  23.193 -0.3459 -0.0553  0.0888
 7997W        W50910  14.414   0.245  25.413 -0.0007 -0.0455 -0.1650
 7998W        W50911  11.291   0.818   5.320  0.2622 -0.4627  0.2724
 7999W        W50912  15.645   7.595   2.967 -0.0164  0.0305 -0.0156
 8000W        W50913   5.771   7.130   2.496 -0.0178 -0.3665 -0.2492
 8001W        W50914  11.390   4.909   4.321 -0.1515  0.0844 -0.1914
 8002W        W50915   8.081  32.144  23.785 -0.0148  0.1159 -0.1790
 8003W        W50916  18.273  33.034   4.104 -0.2778  0.1068  0.1661
 8004W        W50917   9.079   6.402   0.433 -0.0859 -0.1502 -0.0145
 8005W        W50918  14.441  31.301   6.806  0.0448  0.2842  0.0119
 8006W        W50919   5.027   0.745   4.640  0.2264 -0.1187 -0.0139
 8007W        W50920  18.310  31.599  29.584 -0.2783 -0.2078 -0.0683
 8008W        W50921  14.389  22.136  26.611  0.3412 -0.2670  0.1533
 8009W        W50922  17.375  26.970   9.970  0.2082  0.2526  0.2191
 8010W        W50923  21.179  33.323  14.194 -0.1193 -0.4297  0.1815
 8011W        W50924  14.714  31.655   8.981 -0.0389  0.1343  0.0810
 8012W        W50925  17.129  30.174   3.521 -0.3590 -0.1658  0.1732
 8013W        W50926  20.224  28.988   5.337  0.0286  0.4139  0.1839
 8014W        W50927  15.379  29.131   3.800  0.0478 -0.0147  0.3155
 8015W        W50928  26.440  30.382   4.181 -0.2142  0.0828 -0.1111
 8016W        W50929  18.078  34.411   7.684  0.1501  0.0112 -0.3928
 8017W        W50930  15.788   4.050  24.881  0.1927  0.2826  0.0055
 8018W        W50931  25.260   3.828   7.719  0.1954  0.0120 -0.0340
 8019W        W50932  17.693  30.244   7.808  0.3143  0.0077 -0.2476
 8020W        W50933  10.133  26.200  28.501 -0.0541 -0.0767  0.3430
 8021W        W50934  14.460  34.181   5.776  0.0375  0.2308  0.1153
 8022W        W50935  15.179  27.984   0.840 -0.0250  0.3092  0.1797
 8023W        W50936  26.210   6.987  28.778 -0.5806  0.0852  0.0657
 8024W        W50937  17.979  24.726  21.135 -0.2079  0.0231  0.2172
 8025W        W50938  13.448  31.540   4.513 -0.1327  0.0059 -0.1171
 8026W        W50939  18.148   2.281  26.763 -0.1354  0.2476  0.1362
 8027W        W50940  11.233  32.974   5.038 -0.1155  0.0153  0.0275
 8028W        W50941  21.230   4.244   2.631 -0.0612  0.1509 -0.3457
 8029W        W50942  11.818  32.242  28.313 -0.0025 -0.0275 -0.0933
 8030W        W50943  16.002  27.369   4.479 -0.0053  0.1212 -0.0893
 8031W        W50944  23.575  31.513   3.556  0.5321  0.1476  0.1041
 8032W        W50945  16.872   5.352   0.864 -0.1415 -0.3061  0.2577
 8033W        W50946  18.731  13.890  25.722 -0.0619 -0.1739  0.0742
 8034W        W50947   6.312  30.537   0.931 -0.1488  0.0731  0.1552
 8035W        W50948  13.717  27.125   3.837 -0.1708 -0.3718  0.1324
 8036W        W50949   6.872  24.304   2.801 -0.0440  0.1469 -0.2127
 8037W        W50950   9.128  30.704  11.779 -0.0541  0.0866  0.2769
 8038W        W50951  21.231  21.969  28.921  0.1151 -0.1143  0.1064
 8039W        W50952  12.070  34.406   0.211  0.1010 -0.2838  0.0640
 8040W        W50953  25.657   5.677   2.278  0.0476 -0.0928 -0.0584
 8041W        W50954  19.478  34.282   6.953  0.5842  0.0386  0.0311
 8042W        W50955  22.800   2.083   5.224  0.1671 -0.0586 -0.0280
 8043W        W50956  26.821   8.962  27.754 -0.1610  0.3790  0.1410
 8044W        W50957  23.212  19.038  25.103 -0.1753  0.3210 -0.1823
 8045W        W50958  17.618  33.487   3.203  0.0183  0.0112  0.0672
 8046W        W50959  29.130   1.944   2.540 -0.1088  0.3680 -0.0688
 8047W        W50960   9.289   1.329   7.746  0.1007 -0.2168 -0.0978
 8048W        W50961  24.009  33.312  27.614  0.1488 -0.1478 -0.0071
 8049W        W50962  17.275   0.408   3.359  0.0341  0.3006 -0.0471
 8050W        W50963  26.121  32.163  23.571  0.2249 -0.2200 -0.2126
 8051W        W50964  17.935   7.113  29.272 -0.1107  0.1228  0.1848
 8052W        W50965  14.834  26.444   7.173  0.1281  0.0889 -0.0429
 8053W        W50966  21.615   0.808  22.799  0.0098 -0.2587  0.0432
 8054W        W50967  16.369   1.880   5.944  0.0208  0.0372 -0.1167
 8055W        W50968  14.433  23.560  26.364  0.0095  0.0576  0.1626
 8056W        W50969  18.404   9.248   7.610  0.0496  0.0155  0.2332
 8057W        W50970  22.019   0.639   8.437  0.2185  0.0246  0.2221
 8058W        W50971  20.644   3.330   3.265  0.1251  0.0686  0.3010
 8059W        W50972  33.759  28.545  27.633 -0.1858 -0.1319 -0.0132
 8060W        W50973  20.249   3.815   9.118  0.2268  0.1323  0.3820
 8061W        W50974  17.605  21.392  19.614  0.1119 -0.2483 -0.1146
 8062W        W50975  15.627   6.073   4.126  0.1148 -0.1491  0.2279
 8063W        W50976  24.583  33.018  25.839  0.1321 -0.1541  0.1899
 8064W        W50977  14.844  28.252   5.715  0.0875  0.0913 -0.2171
 8065W        W50978  24.726   7.107  25.583  0.1701 -0.0116 -0.0529
 8066W        W50979  10.886  34.024   6.859 -0.0324 -0.2907 -0.2114
 8067W        W50980  13.023  31.785  29.108  0.1175 -0.1253 -0.2958
 8068W        W50981  23.254   0.669   6.288 -0.1903 -0.0685  0.2686
 8069W        W50982  22.694   1.140   9.128  0.2409 -0.0345 -0.1034
 8070W        W50983  23.111   0.385   5.464 -0.0498 -0.0481 -0.1803
 8071W        W50984  25.003  13.665   1.114  0.0265 -0.0526  0.0751
 8072W        W50985  12.964   4.195   1.669  0.0166  0.0079  0.1183
 8073W        W50986   6.511  30.192  19.984  0.1166  0.0278 -0.3314
 8074W        W50987  10.287   0.193   0.632 -0.0651 -0.1166 -0.1502
 8075W        W50988  18.822   9.490  25.260  0.1317 -0.0136 -0.1211
 8076W        W50989  20.998   2.251   0.976  0.0831  0.1415 -0.0351
 8077W        W50990  15.925  32.847  26.201 -0.2019 -0.2819 -0.2475
 8078W        W50991   6.622  26.977  26.907  0.0661 -0.1827 -0.1288
 8079W        W50992  14.177   2.592  24.656 -0.1503  0.0641 -0.0556
 8080W        W50993  12.699   0.517   3.898  0.0580  0.3685 -0.2554
 8081W        W50994  23.944   2.334   0.931 -0.0565 -0.0123  0.0283
 8082W        W50995  11.044  32.548   9.367 -0.2574  0.0044 -0.0114
 8083W        W50996  23.645  33.530  27.986 -0.1813  0.1861 -0.1697
 8084W        W50997  27.814  17.400   2.994  0.0230  0.0186  0.0982
 8085W        W50998  11.754  31.495  20.247 -0.1773  0.0709 -0.1649
 8086W        W50999  19.301   8.485   2.728 -0.3308  0.0342  0.0339
 8087W        W51000  17.043  22.540  27.485  0.2282  0.4492  0.1788
 8088W        W51001  26.645  24.660   4.119 -0.1152  0.0251 -0.2831
 8089W        W51002  17.877   1.804   3.504 -0.2607  0.2171  0.2998
 8090W        W51003  24.659  32.739   6.158  0.0698  0.0593  0.2872
 8091W        W51004  12.003  29.532   6.350  0.1463  0.1309 -0.3040
 8092W        W51005   2.815  27.848  24.527 -0.0104 -0.1904 -0.0210
 8093W        W51006  11.698   3.043  18.671 -0.1756 -0.1174 -0.2134
 8094W        W51007   9.789   2.685  28.798 -0.1000  0.2569  0.3950
 8095W        W51008  24.713   4.964  25.582  0.2424 -0.0201  0.1268
 8096W        W51009  23.149  34.408  20.855  0.0216  0.2892 -0.1961
 8097W        W51010  18.539   1.002   8.155 -0.3370  0.0003  0.2744
 8098W        W51011  18.663  27.773  29.071 -0.0305  0.0635 -0.0343
 8099W        W51012  24.549   4.871   5.563 -0.1754  0.3976  0.0863
 8100W        W51013  21.072  26.271  26.526  0.0384  0.0563 -0.1067
 8101W        W51014  12.426  17.454  24.911 -0.0964  0.1766  0.1540
 8102W        W51015  18.940  34.272  28.555 -0.1385  0.1738  0.1646
 8103W        W51016  14.131   0.031  10.629  0.0963 -0.0700  0.0483
 8104W        W51017  10.958  29.087  11.414  0.2434  0.1001 -0.2823
 8105W        W51018  11.583  25.603   4.698  0.0402 -0.2779  0.2023
 8106W        W51019  19.017  34.039  27.846 -0.0621 -0.3316 -0.5661
 8107W        W51020  29.581   4.742   2.555 -0.2811  0.0333 -0.0751
 8108W        W51021  18.618   0.073  23.427 -0.2147 -0.1489  0.0207
 8109W        W51022  18.498   4.855   8.977  0.2223 -0.0791  0.0142
 8110W        W51023  21.021   8.675   8.912 -0.0390  0.1689  0.1691
 8111W        W51024  30.230  30.459  27.108 -0.3856  0.0975  0.1551
 8112W        W51025   9.524  26.319   2.253  0.2349 -0.0103  0.0934
 8113W        W51026   6.149   6.561  27.050 -0.1497  0.0386  0.3244
 8114W        W51027  21.243   5.945  18.792 -0.0626 -0.0255  0.1989
 8115W        W51028  12.698  31.744  29.492 -0.1527 -0.2466 -0.0684
 8116W        W51029  19.573  11.251   4.521  0.0950  0.0270 -0.0476
 8117W        W51030  13.831  24.145  24.611 -0.0537  0.1116  0.3442
 8118W        W51031  12.367  20.831  29.733  0.0862 -0.1083 -0.0480
 8119W        W51032  16.348   2.589  27.606 -0.0627  0.0360 -0.2057
 8120W        W51033  14.552  30.103  29.038  0.0987  0.1904 -0.0350
 8121W        W51034  13.491  28.682  23.311 -0.0698 -0.0535  0.2968
 8122W        W51035  10.888   4.268  11.726 -0.0061  0.1007  0.1939
 8123W        W51036  28.678   5.524  27.828  0.0888  0.2031  0.0616
 8124W        W51037  25.821  32.599   1.510  0.3502 -0.0313 -0.1247
 8125W        W51038   5.282  32.364   2.923 -0.1811  0.0155  0.0410
 8126W        W51039  10.973   1.985   9.691 -0.1456  0.0496  0.1396
 8127W        W51040  16.835  28.684   9.804  0.0169 -0.1767 -0.0732
 8128W        W51041  22.608  26.123   3.577 -0.1009 -0.0769 -0.2401
 8129W        W51042  15.294  32.148   8.414  0.3403 -0.0644 -0.0294
 8130W        W51043  11.901   1.643   0.397 -0.0326  0.0114 -0.0385
 8131W        W51044  20.304   4.649   4.289 -0.0438 -0.0614 -0.2149
 8132W        W51045  14.942  22.668  25.001 -0.2506  0.2515 -0.2477
 8133W        W51046  25.235   5.321   8.843 -0.3251  0.1090  0.1598
 8134W        W51047  10.788  32.875   4.146 -0.3896  0.0696 -0.2233
 8135W        W51048  17.779  12.369  27.780  0.2924 -0.1455  0.0970
 8136W        W51049  12.920  30.972   1.886 -0.1940  0.1376 -0.0336
 8137W        W51050  15.825  33.084   3.589  0.2268 -0.2454 -0.0524
 8138W        W51051  14.640  27.435   1.473 -0.2318  0.2730  0.1176
 8139W        W51052  17.495   2.070   9.435  0.0219 -0.0998  0.1061
 8140W        W51053  17.070  31.146   6.626  0.0042  0.1024 -0.1832
 8141W        W51054  33.368  30.866   7.847 -0.1835 -0.1085 -0.1705
 8142W        W51055  21.885  17.512   8.055 -0.2145 -0.1378  0.0364
 8143W        W51056  10.092   0.448   4.185 -0.1453 -0.0893  0.2316
 8144W        W51057  22.927   2.166   8.235  0.6534  0.1874 -0.1801
 8145W        W51058  15.126   5.246   6.060 -0.0933 -0.0253 -0.4537
 8146W        W51059  14.314  30.793   2.171  0.1483  0.1430 -0.3418
 8147W        W51060  12.918   2.084   3.942  0.1511  0.1450  0.3064
 8148W        W51061  18.073   4.692   8.645 -0.0562  0.0473 -0.0022
 8149W        W51062  16.371  22.498  25.051 -0.0031 -0.0607  0.0454
 8150W        W51063  22.552   7.968   3.194 -0.1811  0.0087 -0.2303
 8151W        W51064  15.411  33.835   4.735 -0.1039  0.0279  0.1340
 8152W        W51065  23.373   7.501   5.700 -0.0259 -0.0291 -0.2845
 8153W        W51066   7.715   3.538   1.492  0.1324 -0.1578 -0.0629
 8154W        W51067  14.203  29.919   9.915 -0.2671  0.1389 -0.3612
 8155W        W51068  25.026   3.246   0.579 -0.0571  0.1012  0.0268
 8156W        W51069  24.459  29.302   6.409 -0.4140 -0.0855  0.1208
 8157W        W51070  21.669  28.932  24.724 -0.0186 -0.1245  0.0804
 8158W        W51071  23.293  22.614   4.273  0.4300 -0.2830 -0.0216
 8159W        W51072   6.173   8.360  22.276  0.5529  0.1774 -0.1084
 8160W        W51073   6.788  30.795   5.069  0.1441 -0.1176  0.0290
 8161W        W51074   7.973  31.598   4.406  0.4190  0.0040 -0.0313
 8162W        W51075  20.472   4.593   4.938  0.3916 -0.2174  0.0666
 8163W        W51076  30.183   8.980  24.040 -0.0342  0.1911 -0.0808
 8164W        W51077   5.867  30.765   2.247  0.1529 -0.1222 -0.1273
 8165W        W51078   6.620   3.757   1.498  0.2746  0.2767  0.0029
 8166W        W51079  12.432  33.484   8.173 -0.2432  0.0280 -0.0465
 8167W        W51080  23.550  28.272   2.654 -0.0289 -0.1673 -0.0328
 8168W        W51081  19.858   3.505  28.043  0.3025 -0.1953 -0.1770
 8169W        W51082  22.165   2.067   5.752  0.0914  0.0171  0.1815
 8170W        W51083  24.344   5.216   4.477 -0.0432  0.1464  0.1074
 8171W        W51084   8.059  29.177   7.375 -0.0859  0.4160 -0.0593
 8172W        W51085  12.683   0.633   2.813  0.0281 -0.1293  0.0723
 8173W        W51086  20.809  25.587   4.549 -0.0230  0.1699 -0.0724
 8174W        W51087   9.590  32.115   9.828  0.5163  0.1470  0.1737
 8175W        W51088  13.520  32.806   8.107  0.4352 -0.2648  0.2475
 8176W        W51089  12.312  29.239   4.567  0.0779  0.2711  0.0360
 8177W        W51090   7.066  27.351  24.466  0.1014 -0.1440  0.0589
 8178W        W51091  11.722   3.188  28.665  0.1085  0.1140 -0.2404
 8179W        W51092  11.241  23.371   7.892  0.1719 -0.3759 -0.0583
 8180W        W51093  19.359   3.481   3.782  0.0268  0.2185  0.5365
 8181W        W51094  10.632   2.177   4.948 -0.0942 -0.2018  0.0957
 8182W        W51095  22.262  17.485   6.564 -0.0622 -0.2689 -0.2770
 8183W        W51096  18.005  31.889   8.835  0.3951  0.0496 -0.0719
 8184W        W51097  22.202  26.454  21.196  0.0150 -0.0603  0.2486
 8185W        W51098  33.532   6.398  23.999  0.0806  0.2248 -0.0332
 8186W        W51099  33.717   7.749   5.376  0.2142 -0.0572 -0.2115
 8187W        W51100  17.753  26.766   8.513  0.0624  0.1598  0.0196
 8188W        W51101  18.038   1.521   5.549  0.1648 -0.1100 -0.2017
 8189W        W51102   9.522   2.698   6.775 -0.2320  0.3502 -0.1901
 8190W        W51103   9.760  30.623   8.526  0.0414  0.1099  0.1100
 8191W        W51104   7.442  26.838   5.834  0.3352  0.2410  0.1985
 8192W        W51105  17.384   1.396   8.327  0.0685 -0.1922 -0.4362
 8193W        W51106   7.973  21.109   8.789 -0.1844  0.2516 -0.0919
 8194W        W51107  13.286   0.883  12.020  0.1572 -0.0643 -0.1204
 8195W        W51108  17.741   0.720  10.576  0.0897 -0.1184 -0.0539
 8196W        W51109  23.670  32.775   5.200  0.0674  0.0900 -0.2492
 8197W        W51110  18.451   4.135   5.632  0.1192  0.1522 -0.0062
 8198W        W51111  21.038   4.292   5.075  0.0454 -0.2274  0.0387
 8199W        W51112  17.014   4.866   5.687  0.0597  0.0288  0.2743
 8200W        W51113  19.721  27.858   7.562 -0.0885  0.0746  0.2722
 8201W        W51114  18.651  30.313   2.051  0.1340  0.1442  0.1999
 8202W        W51115  17.945   0.279   1.265  0.0417 -0.0797 -0.0635
 8203W        W51116  20.857   3.526   3.778  0.0943 -0.3003  0.1719
 8204W        W51117  19.885   0.644   7.844 -0.2189 -0.0684  0.2691
 8205W        W51118  17.757  30.938  27.262 -0.0227 -0.1972 -0.0721
 8206W        W51119  10.444  34.016   6.234 -0.2688 -0.1049 -0.2080
 8207W        W51120  21.043  28.262  28.263  0.3504 -0.1684  0.0582
 8208W        W51121  23.456  10.948  28.599  0.0167  0.3200 -0.1662
 8209W        W51122   8.692   7.713  28.141 -0.0476  0.0982  0.0848
 8210W        W51123  13.426  26.761   5.920 -0.2435 -0.2716  0.3508
 8211W        W51124  16.602   0.256  29.103 -0.0463 -0.0322 -0.0874
 8212W        W51125   8.533   1.068   7.219  0.1317 -0.1111 -0.3418
 8213W        W51126  26.065  29.898   5.450  0.0660 -0.3531  0.1275
 8214W        W51127  29.756   6.164   2.112 -0.1510  0.2014 -0.1286
 8215W        W51128   3.259  26.803   9.026  0.1773 -0.6832 -0.0312
 8216W        W51129  14.679  30.675   5.028 -0.1551 -0.2434 -0.3998
 8217W        W51130  23.259   8.245   7.893 -0.4513  0.0309  0.0533
 8218W        W51131  17.284  28.067  23.059  0.3354 -0.1172 -0.1815
 8219W        W51132  10.411   3.955   2.716  0.0097  0.2151 -0.1080
 8220W        W51133  18.401   0.526   8.291  0.0250 -0.0390 -0.0136
 8221W        W51134  11.999   6.896   6.955  0.1027 -0.1924  0.3995
 8222W        W51135  15.051  12.601  25.221  0.4805 -0.1262  0.2402
 8223W        W51136  22.347   5.861  29.741  0.0350  0.0168 -0.1338
 8224W        W51137  16.631   6.230   5.640 -0.0266 -0.0234 -0.5714
 8225W        W51138  14.878  23.396   1.319 -0.1107 -0.0450  0.0968
 8226W        W51139   8.039   2.578   6.796  0.2872 -0.2519  0.0478
 8227W        W51140  16.570  29.908   4.678 -0.0460 -0.1041  0.2232
 8228W        W51141  11.901  32.925  29.003 -0.0430  0.4025  0.1982
 8229W        W51142  12.336   0.190   3.884 -0.4110  0.1973 -0.3403
 8230W        W51143  13.467  22.099  29.084  0.0560 -0.2653  0.1172
 8231W        W51144  15.265  33.197   7.882  0.0996 -0.0992  0.0221
 8232W        W51145   1.743  34.110   3.627 -0.4118 -0.1133 -0.2448
 8233W        W51146  13.816   6.503   0.550  0.2213 -0.2546  0.2273
 8234W        W51147  17.008  30.649   6.697 -0.1879 -0.1694  0.0827
 8235W        W51148  25.650  33.585   6.611  0.0614  0.0675 -0.2345
 8236W        W51149  29.808  13.957   9.981 -0.1406 -0.0314 -0.2272
 8237W        W51150   9.686  30.236   9.417 -0.3185 -0.2328  0.2467
 8238W        W51151  15.444   1.537   0.743 -0.2692 -0.0709  0.0234
 8239W        W51152  19.540  34.268   1.883 -0.2979 -0.2783  0.0139
 8240W        W51153  19.638  32.191   4.774 -0.3908 -0.3122 -0.0237
 8241W        W51154   0.248   8.060   7.642  0.0255  0.1342 -0.1996
 8242W        W51155  22.540  30.221  29.769  0.0601 -0.2601  0.3115
 8243W        W51156  11.300   2.960   6.298 -0.3931  0.3223  0.2261
 8244W        W51157  20.454   0.699   6.598  0.2816 -0.2906 -0.0662
 8245W        W51158  19.453   0.458   6.089  0.0269 -0.2588 -0.2399
 8246W        W51159  27.082  33.465   9.978  0.2369  0.0628  0.1700
 8247W        W51160  14.912   2.432   5.802 -0.0413  0.2819 -0.2244
 8248W        W51161  17.599   1.820   8.538  0.1856 -0.0089  0.2008
 8249W        W51162  11.593   1.924   9.193 -0.0965  0.2542  0.1688
 8250W        W51163  19.103  27.722   6.172  0.1964 -0.0288  0.4821
 8251W        W51164  18.326  32.961   2.967  0.0562 -0.2122  0.1443
 8252W        W51165  16.699   4.960   7.854  0.0737  0.3250  0.3498
 8253W        W51166  12.807  22.139   6.719  0.0454 -0.0684  0.1838
 8254W        W51167  14.681   0.377   1.619  0.1972 -0.1920  0.1116
 8255W        W51168  28.290  33.050   4.340 -0.3209 -0.0335  0.2506
 8256W        W51169  32.608   1.872  10.370 -0.1103  0.0893  0.1022
 8257W        W51170  24.871  10.162  28.823 -0.0587 -0.2209 -0.1882
 8258W        W51171  17.617  28.092  29.746 -0.4107 -0.0573  0.0127
 8259W        W51172  21.411  32.075   5.835  0.0061 -0.0861 -0.0023
 8260W        W51173  11.557  31.194   7.609  0.2014 -0.2552  0.0497
 8261W        W51174  27.829  27.794   5.704  0.3091  0.0768  0.0194
 8262W        W51175  17.746  26.067   5.359 -0.3497  0.0487 -0.2870
 8263W        W51176  20.069  30.586   4.441  0.1574  0.1271 -0.2068
 8264W        W51177  21.639  22.327  21.703 -0.0065  0.0986 -0.0228
 8265W        W51178   7.668  33.784   9.399 -0.0140 -0.0664  0.1169
 8266W        W51179  19.886  29.445   5.834  0.1077  0.3612 -0.2491
 8267W        W51180  17.941   7.555   1.287  0.0697 -0.3058  0.1085
 8268W        W51181  13.672  28.357  22.887 -0.0666  0.1790 -0.0594
 8269W        W51182  17.723   2.338   4.423 -0.0012  0.2002 -0.0225
 8270W        W51183  12.317  34.017   8.482 -0.0594 -0.0789 -0.5304
 8271W        W51184   0.187  25.719   6.698  0.1085 -0.3008  0.2554
 8272W        W51185   2.322   8.022  11.188  0.1717  0.2456 -0.1226
 8273W        W51186  24.148  32.511  29.221  0.0925  0.1277  0.0831
 8274W        W51187  18.069  31.309   5.387 -0.0482 -0.0054 -0.3465
 8275W        W51188  16.644   7.769  29.399  0.0451 -0.0306 -0.3838
 8276W        W51189   8.053   8.291  10.371  0.2454  0.2662  0.1583
 8277W        W51190  10.073   2.979   8.272 -0.3192  0.0004 -0.0888
 8278W        W51191  11.986  28.693  20.548  0.0410 -0.1110 -0.0178
 8279W        W51192  19.885   0.064   1.712  0.2920  0.2546  0.2983
 8280W        W51193  11.196   0.402   7.894  0.1125  0.4614  0.1409
 8281W        W51194  12.065   5.963  10.445 -0.1555 -0.1686  0.2587
 8282W        W51195  11.817   0.636   8.533 -0.0982 -0.0431  0.2041
 8283W        W51196  26.393  14.386  22.215 -0.0641 -0.0832 -0.2202
 8284W        W51197  26.940  20.854   0.954 -0.3394  0.2081 -0.1714
 8285W        W51198  18.142   2.009   4.535 -0.4303  0.0801  0.0244
 8286W        W51199  17.492  33.976   9.280 -0.1459  0.0386 -0.1278
 8287W        W51200  16.690  17.259  24.462  0.0031 -0.0173  0.1232
 8288W        W51201  10.973  29.536   1.521  0.0243  0.0067 -0.0503
 8289W        W51202  17.619  29.687   8.373  0.0404 -0.1517  0.1080
 8290W        W51203   1.280  31.768   2.392 -0.1734  0.0874  0.0148
 8291W        W51204   4.881   6.894   8.904 -0.0484  0.2602 -0.1880
 8292W        W51205  18.106  33.651   3.508 -0.1077 -0.1875  0.3194
 8293W        W51206  11.476  27.862  10.704  0.3127  0.2678  0.0400
 8294W        W51207  13.100   0.166   7.592 -0.0695  0.2669 -0.2747
 8295W        W51208  22.587   4.118   8.495  0.0861 -0.0351 -0.1147
 8296W        W51209   7.219  33.956  10.675  0.0328 -0.1274  0.1058
 8297W        W51210  25.415   5.289   8.410  0.0932 -0.0901  0.3977
 8298W        W51211  26.133  30.086   3.411 -0.1307  0.1844 -0.0708
 8299W        W51212  20.574  27.966   8.364  0.0759  0.0402 -0.0308
 8300W        W51213  11.827  31.073   6.125 -0.1412 -0.1177  0.0692
 8301W        W51214  11.396  27.868  11.639 -0.0816  0.1386  0.0614
 8302W        W51215  20.811   1.089  10.087  0.3047 -0.2816 -0.1019
 8303W        W51216  19.688  33.141   9.008  0.3709 -0.2489  0.1236
 8304W        W51217  15.041   6.449   1.599  0.3966 -0.0697  0.2409
 8305W        W51218  17.072   2.837   7.408  0.0084  0.0924 -0.1180
 8306W        W51219  14.226   4.070   1.927  0.1523 -0.0413 -0.2922
 8307W        W51220  17.455   4.912   1.542  0.1826 -0.0719 -0.0487
 8308W        W51221  11.070  24.384  25.446 -0.6462 -0.0961  0.1085
 8309W        W51222   7.311  20.288   7.257 -0.0740 -0.0588  0.3076
 8310W        W51223  22.972  29.741   8.093  0.3442  0.0780 -0.1143
 8311W        W51224  21.751  27.661   4.576  0.0098 -0.1300  0.1917
 8312W        W51225  22.859  31.963  21.345 -0.0243 -0.0233 -0.1840
 8313W        W51226   5.404  33.190  10.699  0.0375 -0.0752 -0.0420
 8314W        W51227   6.368  33.414   7.242  0.0359  0.2267  0.0899
 8315W        W51228  14.015  25.814   6.407  0.0987  0.0333 -0.0847
 8316W        W51229  20.408  21.656   5.912  0.2957 -0.0247  0.2112
 8317W        W51230  29.048   7.507   4.450 -0.3497 -0.2417  0.2799
 8318W        W51231  15.981  27.262  21.159 -0.0499  0.1178 -0.0191
 8319W        W51232  12.876   1.535  11.783  0.2559 -0.0394 -0.1471
 8320W        W51233  16.769   0.716   4.552  0.0679 -0.0864  0.2210
 8321W        W51234  14.590  31.197   2.171 -0.0182 -0.3186 -0.1003
 8322W        W51235   8.127  27.811  11.713  0.3032  0.0694  0.2313
 8323W        W51236  11.268   0.944   2.679 -0.1430 -0.1596  0.0940
 8324W        W51237  10.637  28.217   4.748  0.0684  0.1462  0.0404
 8325W        W51238  24.701  10.002   5.011  0.1190  0.0448 -0.0566
 8326W        W51239   6.985  29.746   5.282  0.0390  0.1931  0.1614
 8327W        W51240  15.157   4.740   6.315  0.1224 -0.0809 -0.1509
 8328W        W51241  15.157   9.144   2.031  0.0596 -0.2999  0.1042
 8329W        W51242  14.146  30.263   1.092 -0.1022 -0.2366 -0.3775
 8330W        W51243   4.614  13.788   1.474  0.1552  0.0358  0.0644
 8331W        W51244  24.959  29.364   4.515 -0.0000 -0.4282 -0.0666
 8332W        W51245  27.827  30.585   3.614 -0.1519  0.0838  0.2760
 8333W        W51246  20.316  29.592   9.656 -0.1160  0.0340  0.1571
 8334W        W51247  19.806   1.953   7.890 -0.5692 -0.2743  0.0263
 8335W        W51248  12.697   8.301   0.762 -0.0796 -0.0354  0.3181
 8336W        W51249  13.691  25.047   5.712  0.1554 -0.2150  0.2195
 8337W        W51250   3.051  34.448  28.787  0.3958 -0.0703  0.4142
 8338W        W51251  12.201   0.786  10.229 -0.5445 -0.2404  0.1202
 8339W        W51252  23.888  27.315   1.842 -0.1395 -0.3554  0.0573
 8340W        W51253   9.411  34.134   5.521  0.4331 -0.2249  0.0429
 8341W        W51254  32.704  29.436   1.297  0.0535 -0.2908 -0.1904
 8342W        W51255  17.416  33.479   6.452 -0.1544  0.2009  0.2237
 8343W        W51256  10.129  30.901  10.624 -0.0071  0.0769  0.0945
 8344W        W51257  27.823   7.493  28.550  0.1634  0.1778  0.4352
 8345W        W51258  13.358   1.985   0.586  0.2839 -0.1022 -0.3047
 8346W        W51259  20.578  30.321   4.249 -0.2357  0.0404 -0.4021
 8347W        W51260  14.051   2.617   4.806 -0.2842 -0.0018  0.0353
 8348W        W51261   6.083  30.606   4.699  0.2034 -0.2337 -0.2252
 8349W        W51262  22.254  31.413   1.971 -0.2578 -0.1246  0.1512
 8350W        W51263  13.891   0.468   6.141 -0.2260 -0.3983 -0.0190
 8351W        W51264  26.557  30.712   4.570 -0.1303 -0.1773  0.2606
 8352W        W51265  14.646   6.360   4.474  0.0966  0.0748 -0.1733
 8353W        W51266  19.643  24.245   9.065  0.0428  0.0166 -0.0321
 8354W        W51267  14.160   4.078   4.201  0.1187  0.0658 -0.1906
 8355W        W51268  16.573  31.714   4.434  0.2816  0.0283 -0.1219
 8356W        W51269  11.174   0.598  11.081 -0.2067 -0.2433  0.1147
 8357W        W51270  16.179  32.412   3.911 -0.2388  0.2882  0.0002
 8358W        W51271  17.317   4.540   3.239  0.0361  0.1868 -0.3366
 8359W        W51272  11.377  31.391  26.582 -0.0219 -0.2591 -0.0943
 8360W        W51273  15.488   1.721   9.529  0.2547  0.1430  0.1184
 8361W        W51274   5.089   5.446  12.683 -0.0130  0.0886  0.1098
 8362W        W51275   8.086  16.133   3.913 -0.0084 -0.0636  0.0424
 8363W        W51276  12.030   5.966   8.403  0.1398  0.2903  0.0173
 8364W        W51277  14.908  29.471  11.058  0.2861  0.1771  0.1189
 8365W        W51278  21.003   9.498   6.045  0.2043 -0.0719 -0.2772
 8366W        W51279  18.389  13.403   0.753  0.2198  0.0777  0.3521
 8367W        W51280  15.127   0.158   9.006 -0.0020 -0.0417 -0.0358
 8368W        W51281  17.824  30.256   8.855 -0.2103 -0.1733 -0.0124
 8369W        W51282  19.014  32.873   7.257 -0.1650 -0.0221 -0.3889
 8370W        W51283  25.761   4.275  10.019  0.0277  0.1878  0.1854
 8371W        W51284  16.764  31.442   9.157  0.0093  0.1623  0.1516
 8372W        W51285  16.456   3.310   9.441 -0.0592  0.1890 -0.1112
 8373W        W51286  21.605   5.007   7.983 -0.0762  0.0673  0.0400
 8374W        W51287  17.744   1.683  10.216 -0.1194  0.2532  0.2136
 8375W        W51288  23.896   5.423   4.239 -0.0329 -0.1756  0.1101
 8376W        W51289   8.492  28.129   5.359  0.0773  0.2317 -0.1092
 8377W        W51290  30.048  28.474   1.688  0.0919 -0.1801  0.0327
 8378W        W51291  14.617   0.629   4.512 -0.0143  0.2061  0.0716
 8379W        W51292  12.708  34.276   7.592  0.0694 -0.1138  0.1475
 8380W        W51293  22.328   6.820   7.199 -0.2277 -0.1214 -0.2449
 8381W        W51294  20.625  33.432   8.852  0.2421  0.0292  0.0121
 8382W        W51295  27.057  33.355   1.643 -0.2441 -0.1701 -0.0302
 8383W        W51296  15.120  24.041   4.519  0.1562  0.1360  0.6422
 8384W        W51297  12.234  31.506   9.628  0.1114  0.2357  0.1309
 8385W        W51298   8.344  31.463  12.514 -0.1008  0.2922 -0.2289
 8386W        W51299  13.817   5.485   3.393 -0.1484 -0.0616  0.0867
 8387W        W51300   7.545   5.207   3.904 -0.2918  0.0180 -0.3019
 8388W        W51301   9.372   2.203  12.451  0.1318  0.1367 -0.0947
 8389W        W51302  11.456  30.791   5.140 -0.1916 -0.2876  0.0309
 8390W        W51303   8.320  27.859  27.766 -0.0814 -0.2056 -0.1898
 8391W        W51304   7.132  31.970  10.055  0.1672 -0.0078 -0.0309
 8392W        W51305   7.036  29.237  25.534  0.0721  0.0983  0.1673
 8393W        W51306  13.550  24.613  29.528  0.2188 -0.2795 -0.0398
 8394W        W51307  19.986   0.756  26.365  0.0797  0.2617 -0.3454
 8395W        W51308  11.265   1.121  11.238  0.2264  0.1808  0.3004
 8396W        W51309  20.494  33.068  10.067  0.0981 -0.3198  0.1107
 8397W        W51310   9.041   3.351   8.127  0.0916  0.0533  0.3126
 8398W        W51311  23.711   1.440  10.474  0.2110  0.2842  0.0551
 8399W        W51312  14.855   4.788   9.461  0.0136  0.0005  0.1660
 8400W        W51313  23.653   5.207   8.195 -0.0365  0.0541 -0.1363
 8401W        W51314  21.352   0.774   4.223 -0.1371 -0.1084  0.0289
 8402W        W51315   7.241  33.591  27.886  0.2093  0.0887 -0.1367
 8403W        W51316  21.154   0.218   8.538 -0.2341 -0.3991 -0.2197
 8404W        W51317  10.665   8.494   3.067 -0.1029  0.1210  0.1917
 8405W        W51318  18.047  24.719   7.208 -0.1754  0.2027 -0.2119
 8406W        W51319   9.955   0.331  26.916  0.0058 -0.3497 -0.1938
 8407W        W51320  14.234  33.547   9.674 -0.1378  0.0995 -0.0817
 8408W        W51321  20.748   0.569  10.047  0.3318  0.0086 -0.0653
 8409W        W51322  21.543   2.513   5.304 -0.1170  0.0701 -0.1195
 8410W        W51323  18.319   7.431   0.157  0.3455 -0.1078  0.2294
 8411W        W51324   9.902   4.317  11.009 -0.0154  0.3233  0.1097
 8412W        W51325  15.013   7.073  10.303  0.3138 -0.0449 -0.0845
 8413W        W51326  22.779   0.208   6.264  0.1311  0.0778 -0.2258
 8414W        W51327   4.517  31.692   8.002  0.1220 -0.2242 -0.3051
 8415W        W51328  15.908  25.687   6.985 -0.2365 -0.1012  0.2365
 8416W        W51329  15.536  31.822   5.536 -0.0736 -0.0918  0.0841
 8417W        W51330   9.808  31.076  10.942  0.2550  0.2390  0.0563
 8418W        W51331  18.762  24.482   0.095 -0.0530 -0.0043  0.1279
 8419W        W51332  21.761  34.111   0.956 -0.2087 -0.0584  0.0819
 8420W        W51333  24.965   5.716   5.498 -0.1716 -0.0772  0.2012
 8421W        W51334  13.738  30.730  10.316  0.2551 -0.0039 -0.1554
 8422W        W51335  21.871  23.667   1.582  0.0799 -0.0092 -0.3080
 8423W        W51336  21.249  10.587   2.470 -0.1643 -0.0691  0.0364
 8424W        W51337   8.627  27.840  11.824 -0.2492 -0.1647 -0.3183
 8425W        W51338  32.131  21.259   3.101 -0.0370 -0.0940  0.0180
 8426W        W51339   4.920   5.222   6.984 -0.2655 -0.0620 -0.0842
 8427W        W51340   9.902   6.294   2.121  0.0222  0.0530  0.2306
 8428W        W51341  16.243   4.864   8.985 -0.0450  0.1442 -0.1093
 8429W        W51342  16.423   0.693   6.731  0.0607  0.0628 -0.3091
 8430W        W51343  12.649  33.018   4.878 -0.1406  0.0363  0.0887
 8431W        W51344  10.608  26.981   2.627  0.0109 -0.0017  0.3354
 8432W        W51345   2.792   2.714   3.531 -0.0393 -0.3834  0.5164
 8433W        W51346  19.564   8.927   7.382 -0.1800  0.0960 -0.0483
 8434W        W51347  13.195  30.860   4.738  0.1029 -0.2100 -0.2031
 8435W        W51348  15.329   9.348   8.391 -0.0553 -0.0543  0.1915
 8436W        W51349  11.646   5.950   5.397 -0.0640  0.0912  0.0474
 8437W        W51350  11.666   2.383  10.499 -0.1958  0.1746  0.2958
 8438W        W51351   9.117  25.303   6.639 -0.2603  0.1970  0.2526
 8439W        W51352  12.970  29.950   4.471  0.0369 -0.0209 -0.0874
 8440W        W51353  14.248   2.884   9.121  0.2613 -0.2626 -0.2293
 8441W        W51354  23.419   9.406   2.588  0.1043  0.1466 -0.0089
 8442W        W51355  20.118   5.810   4.671  0.1117  0.3999 -0.0506
 8443W        W51356  15.482  16.846   6.102  0.4004 -0.2130  0.2119
 8444W        W51357  19.606   5.354   5.808 -0.0004 -0.1971 -0.2194
 8445W        W51358  13.578  32.338   8.235  0.0566 -0.3568  0.0406
 8446W        W51359  17.622  26.849   2.189 -0.3184  0.1392 -0.0082
 8447W        W51360  15.468   4.368   7.506 -0.0466 -0.0039 -0.0461
 8448W        W51361   3.736   7.911   8.192 -0.0488 -0.3110 -0.1290
 8449W        W51362  16.576  28.826  10.300 -0.2322  0.0790 -0.0891
 8450W        W51363  11.257   5.569  11.392  0.0871 -0.1073  0.3368
 8451W        W51364  18.195   6.899  23.731 -0.2573 -0.0858  0.0674
 8452W        W51365  12.946  14.473   6.445  0.2064  0.0707 -0.2284
 8453W        W51366  21.590  12.841   0.636 -0.2424 -0.1492  0.1852
 8454W        W51367  13.690   7.600   8.476  0.0885  0.0619 -0.0568
 8455W        W51368  13.263  13.369   2.723  0.2100 -0.2554  0.0331
 8456W        W51369  16.657  12.179  24.873  0.4794 -0.0666  0.2355
 8457W        W51370   9.358   0.800   7.868  0.0057 -0.2099  0.2062
 8458W        W51371   6.510   4.437   8.446 -0.0721  0.2080 -0.0400
 8459W        W51372  13.545  30.198   6.597 -0.0672 -0.1810  0.1149
 8460W        W51373   6.027  23.231   4.317 -0.2569 -0.2020  0.0698
 8461W        W51374  18.669  34.190   4.726 -0.2877 -0.0284 -0.3182
 8462W        W51375   7.157  29.592  27.110 -0.2625 -0.1056  0.2884
 8463W        W51376  17.813   8.034   2.636  0.1997  0.0232 -0.3450
 8464W        W51377   9.364  32.265  12.150  0.3918  0.2153 -0.2902
 8465W        W51378   2.078  33.286   5.674 -0.1995 -0.1382  0.2302
 8466W        W51379  13.163  29.748   7.403  0.1769 -0.3238 -0.2491
 8467W        W51380   9.792  26.472  28.683  0.2703 -0.4808  0.2815
 8468W        W51381  14.816  31.049   4.613 -0.0752 -0.0569 -0.1978
 8469W        W51382  13.868  11.665   1.510  0.0118 -0.0215  0.1563
 8470W        W51383  11.660   8.490   8.731  0.0788  0.0960 -0.0837
 8471W        W51384   9.466  30.480   8.971 -0.2084 -0.0251 -0.0381
 8472W        W51385  29.538   0.618   2.903 -0.1201  0.2508 -0.0233
 8473W        W51386  10.942  31.396  12.170 -0.0546  0.1749 -0.0768
 8474W        W51387  11.025  25.980   7.690  0.0642  0.0718  0.0028
 8475W        W51388  12.200  10.259   2.224 -0.4490 -0.0861 -0.0936
 8476W        W51389   9.504   1.897   5.252  0.4564 -0.0323  0.1610
 8477W        W51390  16.823  29.166   8.700  0.2370 -0.1554  0.0269
 8478W        W51391  16.183   8.842   4.880 -0.0089  0.0182  0.3884
 8479W        W51392   6.360   0.448   9.765 -0.2606 -0.1747  0.2926
 8480W        W51393  10.255  30.699   4.976  0.0079 -0.1991  0.0783
 8481W        W51394   7.202  27.897   1.114 -0.2068 -0.1475 -0.1698
 8482W        W51395  21.541   7.990   3.279 -0.1804  0.0186 -0.1728
 8483W        W51396  11.334  25.615   9.603  0.0766  0.1341  0.4809
 8484W        W51397  16.103  26.195   7.818 -0.2660  0.0394 -0.1717
 8485W        W51398  20.164   6.670   5.302 -0.0226  0.1512 -0.0118
 8486W        W51399  23.279  30.327   8.612  0.3425  0.1603 -0.2374
 8487W        W51400  15.282   1.559  29.598  0.0339 -0.2442  0.0934
 8488W        W51401  20.064  34.393   6.012  0.2825 -0.0510 -0.0198
 8489W        W51402   8.755  29.337  12.160 -0.1364  0.0395  0.2723
 8490W        W51403  22.478  27.983   0.487 -0.2465  0.2402  0.0490
 8491W        W51404  14.883  27.389  28.577  0.1669  0.0475 -0.0326
 8492W        W51405  20.977  33.758   7.094  0.2070  0.0640 -0.2634
 8493W        W51406  16.452  29.644   3.508  0.1290 -0.0706 -0.0740
 8494W        W51407  10.338   6.425  11.647 -0.0871 -0.1480  0.0434
 8495W        W51408  17.789   5.794   3.410 -0.2112  0.0309 -0.1193
 8496W        W51409  17.905   0.847   7.480 -0.0426 -0.1305 -0.0091
 8497W        W51410  15.850   3.365   7.605  0.1873  0.0290  0.1601
 8498W        W51411   5.861  29.418   8.080 -0.4355 -0.0478  0.3970
 8499W        W51412   8.242  29.216   9.302 -0.2331 -0.1009 -0.0739
 8500W        W51413  21.525  31.216   7.944  0.0244 -0.0498  0.0075
 8501W        W51414  18.134  21.847  26.446 -0.4272  0.1037 -0.0288
 8502W        W51415  17.714   6.437   9.268  0.1753 -0.2316  0.0087
 8503W        W51416  18.969  28.116   9.466 -0.3940  0.2575  0.2711
 8504W        W51417   8.337  31.265  10.063  0.1673  0.0709  0.1718
 8505W        W51418  10.117  31.419   7.125  0.0987  0.3499 -0.0028
 8506W        W51419  10.434   0.499   5.020  0.2825 -0.0923  0.1431
 8507W        W51420  18.681   0.874   9.830 -0.2425  0.4984 -0.3356
 8508W        W51421  16.289   5.268   4.714  0.0207  0.1695  0.3223
 8509W        W51422  15.523   0.562   4.015  0.1696  0.1886 -0.0984
 8510W        W51423  17.046   2.548  28.356  0.1425  0.0162 -0.3021
 8511W        W51424  15.832  26.692   7.008 -0.0097 -0.1652  0.1510
 8512W        W51425   4.596   9.475   7.894  0.3554  0.1903 -0.1105
 8513W        W51426  11.262  14.300   4.365  0.3083 -0.2839  0.0469
 8514W        W51427  10.836  31.687   7.621  0.1078 -0.0518 -0.1168
 8515W        W51428   7.850  31.314   0.569 -0.0767 -0.0359 -0.0754
 8516W        W51429   5.085   4.509   2.890  0.0622 -0.2955  0.2064
 8517W        W51430  10.294  30.636   8.278  0.1084  0.0322 -0.2142
 8518W        W51431  18.556   5.550  25.331 -0.1492  0.1885  0.1786
 8519W        W51432  15.322  33.772   5.862 -0.0801 -0.4694 -0.2861
 8520W        W51433  16.759  33.722  18.982 -0.2860  0.1574 -0.3963
 8521W        W51434  14.217  34.001   1.730  0.0788  0.2337 -0.2821
 8522W        W51435  22.149   6.102   7.020 -0.2071 -0.3152 -0.2321
 8523W        W51436  18.249  31.421   7.496  0.0642 -0.0559 -0.4331
 8524W        W51437  24.568  33.655   6.416  0.1576  0.1801 -0.0668
 8525W        W51438  18.738   2.701   7.401 -0.1396  0.1109  0.5503
 8526W        W51439  25.718  10.843  24.160  0.3782  0.0962 -0.2859
 8527W        W51440  33.206   0.359   4.411 -0.1242 -0.2818 -0.0563
 8528W        W51441  17.504  11.983   1.720  0.0234  0.2118  0.3524
 8529W        W51442  13.586  15.584  21.041 -0.0306  0.0549 -0.1962
 8530W        W51443  23.152  24.437  24.960  0.1200 -0.1502  0.2213
 8531W        W51444  15.950   5.386   1.785 -0.1375  0.1855  0.0119
 8532W        W51445  22.406  30.637   5.276 -0.0429 -0.0702  0.0295
 8533W        W51446   8.963  30.325  24.978  0.1597  0.1385  0.1161
 8534W        W51447  20.029  24.634  26.800 -0.1907  0.1153  0.0513
 8535W        W51448  16.699  10.047   0.900 -0.2052  0.0270  0.1176
 8536W        W51449  25.298  31.717  29.518  0.0242  0.6322 -0.2444
 8537W        W51450  17.062  33.638  28.180 -0.1895 -0.2706  0.1186
 8538W        W51451  11.724   5.837   5.862  0.0910 -0.1594  0.2050
 8539W        W51452  18.105  32.723   3.675 -0.0622 -0.2151  0.2632
 8540W        W51453  18.827   1.746   6.529 -0.1950  0.0208 -0.0005
 8541W        W51454  13.695   5.498  26.242  0.0999  0.0666  0.0764
 8542W        W51455  27.430   1.074  10.772 -0.2967  0.1883 -0.5080
 8543W        W51456  22.754  32.846   1.693  0.2238 -0.1662 -0.4277
 8544W        W51457  15.910   3.508  27.460 -0.2790 -0.0849 -0.0919
 8545W        W51458  25.861   4.670  26.184  0.1490 -0.2893  0.2191
 8546W        W51459  14.859   1.975  26.514  0.0674 -0.0453 -0.1655
 8547W        W51460  27.532   1.514   1.658 -0.5177  0.0335  0.1568
 8548W        W51461  21.374  27.172   2.013  0.1688  0.1467  0.1337
 8549W        W51462  20.242  24.613   1.763 -0.1679 -0.3717  0.1576
 8550W        W51463  23.307   4.863   0.809  0.0448 -0.0394 -0.4339
 8551W        W51464  24.039  30.048  27.061  0.0901 -0.1904  0.0020
 8552W        W51465  22.509   4.709   9.183  0.3244  0.1473  0.0682
 8553W        W51466  16.587   7.596   5.304 -0.0286 -0.1837 -0.0659
 8554W        W51467  13.987  26.800   8.897  0.2034  0.3548 -0.1029
 8555W        W51468  20.793   0.756   7.452 -0.2607 -0.0371  0.2982
 8556W        W51469  17.807  10.276   1.659  0.0766 -0.0990 -0.0171
 8557W        W51470  24.183  25.439  29.447  0.0556  0.1659 -0.1989
 8558W        W51471   3.274   4.214  27.080 -0.2270  0.0357 -0.3870
 8559W        W51472  13.986  32.666   9.985 -0.4563 -0.1011  0.1381
 8560W        W51473  20.982  25.272   1.974  0.0634 -0.1068 -0.2587
 8561W        W51474  32.017  30.976   5.379 -0.0473  0.1484 -0.0065
 8562W        W51475  20.177   9.345   8.435  0.1171  0.0207 -0.1229
 8563W        W51476  27.601  23.990   4.754  0.0629 -0.4164 -0.2313
 8564W        W51477  18.636   2.165  25.194  0.5133  0.2619 -0.2022
 8565W        W51478  27.394  30.792  22.961  0.0280 -0.0298 -0.0612
 8566W        W51479  20.840  30.390  23.400 -0.2904 -0.2508 -0.3296
 8567W        W51480   7.458  28.196   0.197  0.0144 -0.1419 -0.1020
 8568W        W51481  18.901   7.505   5.759  0.0304  0.3093 -0.1549
 8569W        W51482  19.944   7.388  21.613 -0.2927 -0.0503  0.0451
 8570W        W51483  19.175  29.442   5.681 -0.1582  0.2315 -0.3106
 8571W        W51484  15.412   0.148   0.537 -0.0879  0.0995  0.1151
 8572W        W51485  10.719   3.695   2.367 -0.0749 -0.1009 -0.2390
 8573W        W51486  20.506  11.968   3.723 -0.0164 -0.0268 -0.0383
 8574W        W51487   4.517   1.026   9.645 -0.3023 -0.2850 -0.1974
 8575W        W51488   9.284  32.109   5.211  0.2835 -0.2078 -0.4384
 8576W        W51489  14.439   5.706  21.951  0.0801 -0.1492  0.1102
 8577W        W51490  28.363   6.753   4.546  0.0603  0.1340 -0.1645
 8578W        W51491  22.592  14.538  22.999  0.2099 -0.3661 -0.0426
 8579W        W51492  18.752  33.822  28.264 -0.0786 -0.3146  0.0404
 8580W        W51493  29.474  31.824   8.241  0.2443 -0.2644 -0.0366
 8581W        W51494  19.988   3.701   0.462 -0.2862  0.2612  0.2365
 8582W        W51495  12.006   9.944   5.550 -0.3421 -0.0251 -0.7143
 8583W        W51496  22.348   9.046   5.616 -0.1089  0.2632  0.0524
 8584W        W51497  15.809  26.457   9.230 -0.1541  0.0578 -0.0264
 8585W        W51498  13.595   3.663  26.994  0.2216  0.0642 -0.2928
 8586W        W51499   7.608   4.716  27.992  0.0255 -0.4822  0.0068
 8587W        W51500  24.454  13.052   6.045  0.1556  0.0806  0.0361
 8588W        W51501  23.239  28.700  24.603  0.1336 -0.0758  0.4344
 8589W        W51502  12.895  29.922  22.879 -0.0073  0.0570 -0.1741
 8590W        W51503  20.503  11.772  18.682 -0.0703 -0.4119  0.2380
 8591W        W51504  11.113   2.416   3.266  0.2300 -0.0428  0.2908
 8592W        W51505  19.692  32.252   9.055  0.1306  0.0235 -0.1895
 8593W        W51506  26.845  30.042   4.120 -0.1170  0.0427 -0.0672
 8594W        W51507  23.815   8.519   2.713 -0.2876  0.1587  0.0366
 8595W        W51508  20.004  30.924   8.586  0.0375  0.0588 -0.0554
 8596W        W51509  23.304   1.604  21.244  0.0318  0.2380 -0.3192
 8597W        W51510  11.732  27.047   5.652 -0.0966  0.0678  0.1032
 8598W        W51511  25.800   8.402   7.848  0.2391  0.3537  0.0318
 8599W        W51512  23.308   9.071   6.662  0.0415  0.1854  0.2032
 8600W        W51513  14.228  11.024  23.041 -0.0246 -0.0398 -0.1171
 8601W        W51514  11.294  30.009  26.420  0.1707  0.2501 -0.1221
 8602W        W51515  20.781  12.078   8.244  0.0602  0.1441 -0.2649
 8603W        W51516  23.148  23.681  22.120 -0.2899  0.0749 -0.0483
 8604W        W51517  24.343   0.466   9.624 -0.0153 -0.1389 -0.1021
 8605W        W51518  30.246  30.499  27.576  0.1124  0.2524 -0.0092
 8606W        W51519  19.109  28.057  25.991  0.0882 -0.1323  0.0419
 8607W        W51520  29.484   3.141  20.870  0.0085 -0.2558 -0.0087
 8608W        W51521  27.635   0.052   5.535  0.1071  0.0394 -0.1282
 8609W        W51522  12.180  26.467  27.424  0.1241 -0.2779 -0.1373
 8610W        W51523  25.414   5.449   1.758 -0.1113 -0.0820  0.0556
 8611W        W51524  29.380   1.448   4.121  0.0092  0.1013  0.2666
 8612W        W51525  15.145  32.371   8.869  0.3639 -0.2981 -0.0718
 8613W        W51526  23.921   6.147   6.201  0.2165  0.0794  0.0507
 8614W        W51527   3.277   0.049  26.827  0.0061 -0.1469  0.2025
 8615W        W51528  20.609   3.462  28.281 -0.0350  0.2941  0.2370
 8616W        W51529  25.147   7.932   7.681 -0.2806 -0.0741  0.1104
 8617W        W51530  19.035  19.901  22.017 -0.3598 -0.0620 -0.0594
 8618W        W51531  15.397  11.096  27.109  0.0679 -0.1998  0.0975
 8619W        W51532  26.691  27.280  24.337  0.3216  0.0522  0.1755
 8620W        W51533  18.137   9.104  28.418  0.1076  0.2011  0.0355
 8621W        W51534  21.953  31.731   5.033  0.1262  0.1524 -0.2979
 8622W        W51535  17.102  20.535   5.707  0.0003 -0.1300 -0.1803
 8623W        W51536  28.886   4.929   6.317  0.2994 -0.0152  0.4837
 8624W        W51537  14.392  19.699  17.791 -0.2368 -0.3534 -0.1987
 8625W        W51538  19.134  33.366  23.781  0.0391 -0.2726 -0.0901
 8626W        W51539  24.741   0.227  18.979  0.0849  0.0864 -0.1952
 8627W        W51540  12.453  28.367  23.351  0.0946  0.1012 -0.3381
 8628W        W51541  33.505   4.602   3.273  0.2873  0.2425 -0.3021
 8629W        W51542  23.471   4.971   5.945  0.1591  0.0430 -0.1633
 8630W        W51543  21.795  25.442  21.356  0.1791  0.1544 -0.1438
 8631W        W51544  18.207  29.104   9.240  0.0870 -0.2882 -0.2635
 8632W        W51545  13.778  20.114   8.012 -0.1799 -0.0232 -0.0642
 8633W        W51546  24.598   4.679   6.959 -0.3322 -0.1654 -0.0912
 8634W        W51547   7.808   0.174  28.085  0.1382  0.0262  0.1573
 8635W        W51548  19.036  25.368   0.509 -0.3023  0.0337  0.4178
 8636W        W51549  23.127   0.367  23.031  0.0359 -0.1539 -0.4310
 8637W        W51550  17.321  14.782   7.826 -0.2943  0.1339  0.1608
 8638W        W51551  24.942   8.866   2.210 -0.0185  0.0637 -0.1984
 8639W        W51552   4.112  29.421  27.473  0.1132  0.2461 -0.1039
 8640W        W51553   5.745  32.800  20.963 -0.3049 -0.1254 -0.0179
 8641W        W51554  17.795  31.459  27.958 -0.1269  0.2215 -0.2496
 8642W        W51555  16.980   4.529  25.247  0.0934 -0.3499 -0.2106
 8643W        W51556   5.239  24.958   7.014  0.0646 -0.0062 -0.1105
 8644W        W51557  21.127  10.767  24.111 -0.0248  0.0876 -0.0674
 8645W        W51558  22.265   5.708   3.000 -0.1344  0.0875 -0.2376
 8646W        W51559  25.827  32.971   9.436  0.0239  0.2510  0.2745
 8647W        W51560   1.675   1.760   8.977 -0.1868  0.1669  0.1441
 8648W        W51561  17.603   2.197   1.637  0.1762 -0.1562  0.2447
 8649W        W51562  17.480  32.976   7.588 -0.1329  0.0279  0.1594
 8650W        W51563  11.554  13.947  23.439  0.0376  0.1576 -0.0772
 8651W        W51564   8.754   1.284   5.383 -0.0906  0.1547  0.1878
 8652W        W51565  33.076  13.578  22.150 -0.0534  0.0975  0.0861
 8653W        W51566  17.232  13.516  26.492 -0.1070 -0.0809 -0.1609
 8654W        W51567  19.420   2.649  29.675  0.1938 -0.1402 -0.1407
 8655W        W51568  21.015  16.548   1.579 -0.4369 -0.2074  0.0502
 8656W        W51569  21.302   8.899   3.544 -0.1593 -0.2736 -0.1506
 8657W        W51570   5.699   1.181  28.085 -0.1529 -0.5374 -0.0830
 8658W        W51571  16.297  29.599   7.962  0.0163 -0.0522 -0.0907
 8659W        W51572  12.679  33.844   0.766 -0.1144 -0.0107 -0.0597
 8660W        W51573  14.219  34.271   6.760  0.1689 -0.0655  0.1318
 8661W        W51574  18.639   0.460   5.470 -0.0007  0.0428  0.1499
 8662W        W51575  18.185   0.867  23.059  0.1920 -0.2811  0.0155
 8663W        W51576  17.112  33.084   1.696  0.1135  0.1102  0.0084
 8664W        W51577  17.448   1.439   1.087  0.0384  0.0048  0.1962
 8665W        W51578  22.502   1.916   6.907 -0.1722 -0.0269  0.0356
 8666W        W51579  15.055  30.999   7.354 -0.1476  0.1146  0.0788
 8667W        W51580  26.143   8.054   8.328  0.2924  0.0007  0.0443
 8668W        W51581  18.624   5.404   8.968  0.2222 -0.0416  0.0588
 8669W        W51582  16.327   1.149   6.089  0.0548 -0.0848 -0.0162
 8670W        W51583  19.026  33.908  26.938 -0.2026 -0.0023 -0.2997
 8671W        W51584  25.020   0.185   2.842  0.0245 -0.0680  0.0682
 8672W        W51585  25.308  33.470   2.229  0.0949 -0.0725  0.1723
 8673W        W51586  16.716  23.767  29.061 -0.0714 -0.0086 -0.0672
 8674W        W51587  28.027  29.466   3.054  0.0519 -0.1378  0.0527
 8675W        W51588  31.868   3.596   3.145 -0.0936  0.2559  0.2757
 8676W        W51589  20.806  31.788   0.130 -0.0891 -0.3442 -0.2189
 8677W        W51590  20.359   7.573  25.321 -0.2154  0.0039  0.0457
 8678W        W51591  10.854  32.064  22.655  0.2311 -0.1999  0.1441
 8679W        W51592  22.620   1.081   6.736 -0.0564 -0.2855 -0.1336
 8680W        W51593  17.718   2.871   2.698  0.2532  0.0168 -0.1521
 8681W        W51594  26.437  11.109   7.877  0.4438  0.0093  0.1973
 8682W        W51595  16.955   3.722  23.064  0.4796 -0.2052  0.0682
 8683W        W51596  31.977  28.060   3.334  0.4095 -0.0506 -0.0910
 8684W        W51597  23.079  16.740  17.854  0.1658 -0.3912 -0.1484
 8685W        W51598  13.844  31.141  28.312 -0.0243  0.1816  0.0309
 8686W        W51599  17.286   3.305   6.461 -0.1870 -0.0355  0.0400
 8687W        W51600  25.428  30.734   3.068  0.1601  0.0570  0.0671
 8688W        W51601  16.502  12.895   7.242  0.1216 -0.2528 -0.2273
 8689W        W51602  16.871   1.038   6.094  0.0184  0.2937  0.2267
 8690W        W51603  26.762  25.076  26.565 -0.2210 -0.2844 -0.0248
 8691W        W51604  17.379  34.483  25.461  0.0911  0.2573 -0.2261
 8692W        W51605  21.403   2.407   6.262  0.0226 -0.0343  0.4000
 8693W        W51606   1.382   6.491  29.006  0.0495 -0.0636 -0.3643
 8694W        W51607  29.197   3.599   5.032  0.1466  0.2902 -0.2894
 8695W        W51608  24.955   4.466  25.732  0.1414 -0.0490 -0.0627
 8696W        W51609  22.835  31.989   9.506  0.2254  0.0886 -0.5243
 8697W        W51610  24.388  33.403   1.297  0.0671 -0.0105 -0.4003
 8698W        W51611  24.117   0.466  28.096  0.2666 -0.2112  0.1906
 8699W        W51612  18.966   8.067   8.153 -0.1106 -0.1044 -0.1341
 8700W        W51613  31.020  28.452   6.867  0.2548 -0.0850 -0.0670
 8701W        W51614  19.525  29.699   3.534 -0.0880 -0.1218 -0.3447
 8702W        W51615  30.081   5.731  24.096  0.0144  0.0703  0.0225
 8703W        W51616  33.007   3.184   0.839  0.0517  0.0199  0.1624
 8704W        W51617  24.111  30.712  25.772 -0.0992 -0.0517  0.1520
 8705W        W51618  20.758   4.379   0.169  0.2546 -0.3139 -0.2057
 8706W        W51619  33.935   5.132   5.804 -0.0588  0.2519  0.1112
 8707W        W51620  15.147   0.479  10.799  0.4262  0.1233 -0.0925
 8708W        W51621  22.339  34.299  29.703  0.0406 -0.1556  0.3189
 8709W        W51622  10.004  33.575  12.136  0.0708  0.2453 -0.3298
 8710W        W51623  14.956   1.827  10.373 -0.1814 -0.1156 -0.2730
 8711W        W51624   0.251   2.702  25.120 -0.3837 -0.0912  0.0378
 8712W        W51625  26.814   1.062   1.163  0.1967  0.1548 -0.0998
 8713W        W51626  25.822   7.158   6.050  0.3013 -0.0621 -0.0334
 8714W        W51627  20.080   2.972  23.863 -0.0629 -0.2024 -0.0752
 8715W        W51628   9.307   2.536   4.135 -0.0392 -0.0205  0.2005
 8716W        W51629  16.987   2.292   7.391  0.1795 -0.0453 -0.2703
 8717W        W51630  17.374  12.231   2.773 -0.1298 -0.1219  0.1298
 8718W        W51631  19.811  14.936  23.752  0.0392 -0.0406 -0.1706
 8719W        W51632  18.758  27.478   4.175 -0.0574 -0.1712 -0.1499
 8720W        W51633  20.650  32.052   3.188 -0.0747 -0.0257  0.0860
 8721W        W51634  17.302   8.062  28.748  0.2138 -0.1215 -0.3203
 8722W        W51635  23.888  33.312  28.897  0.2211  0.4040  0.2095
 8723W        W51636  23.567  33.523   9.784  0.0804  0.0171 -0.4914
 8724W        W51637  22.619   0.806  19.315  0.0526 -0.2750 -0.0702
 8725W        W51638  18.709   6.217   4.258 -0.0644  0.0234  0.0381
 8726W        W51639  16.027  15.890  23.718  0.0231 -0.1281  0.1084
 8727W        W51640   0.980  24.608  28.134 -0.0994 -0.1226 -0.2643
 8728W        W51641  26.580  28.957   1.108 -0.0522 -0.0458 -0.1051
 8729W        W51642  20.261   0.027   4.486  0.0779  0.1131  0.2872
 8730W        W51643  15.420  31.194  25.514  0.2242 -0.0559  0.0947
 8731W        W51644  10.020  28.074  25.422  0.2347  0.2301  0.0662
 8732W        W51645  11.428   2.269  26.156  0.3506 -0.2176  0.2697
 8733W        W51646  16.947  31.443   8.218 -0.2062 -0.3694 -0.3894
 8734W        W51647  24.483   8.275  23.371 -0.0350  0.2184 -0.1517
 8735W        W51648  22.332   4.991   5.430 -0.1889 -0.1182  0.1843
 8736W        W51649  22.664  27.474  27.214  0.0619 -0.1870  0.0399
 8737W        W51650  14.677   3.572  23.721 -0.2056  0.1159  0.0461
 8738W        W51651  27.194  27.873  25.635 -0.0454 -0.1140  0.2249
 8739W        W51652  20.176   1.805  18.089  0.0574  0.1855 -0.0002
 8740W        W51653  13.341  27.621  29.191  0.1696 -0.1510 -0.3120
 8741W        W51654  32.321  33.483  27.220  0.1175  0.2301  0.1152
 8742W        W51655   3.908   9.790   7.674 -0.0749 -0.1691  0.0948
 8743W        W51656  26.936   7.834   7.825  0.0644 -0.1527 -0.3707
 8744W        W51657  16.987   1.082  28.737  0.1542  0.0725  0.0335
 8745W        W51658  17.914  25.753  29.447 -0.1183 -0.3261 -0.3368
 8746W        W51659  23.707  32.150  26.658 -0.1137 -0.0880 -0.1502
 8747W        W51660  10.581  11.708   3.347 -0.3006  0.2666  0.3560
 8748W        W51661   7.700  28.866  28.273  0.2086 -0.2907 -0.0579
 8749W        W51662  22.453   9.322  28.816 -0.0596 -0.1900 -0.1419
 8750W        W51663  15.920  34.173   5.044 -0.2578 -0.1462  0.2007
 8751W        W51664   3.478  31.397   0.332  0.1960 -0.1170  0.1392
 8752W        W51665   1.256   7.907   2.522 -0.2009  0.0129  0.0975
 8753W        W51666  29.585   7.901   3.365  0.1411 -0.2019  0.0366
 8754W        W51667  19.222   1.317   3.143  0.0942  0.0163 -0.0220
 8755W        W51668  13.356  32.752  21.559  0.0264  0.1307 -0.4890
 8756W        W51669  19.346  11.114   2.356 -0.5070  0.1497  0.3132
 8757W        W51670   7.531   6.943  23.820 -0.2551 -0.0523 -0.0288
 8758W        W51671  11.613  29.154   6.443  0.2252 -0.5177  0.1835
 8759W        W51672  21.487   5.530   8.478 -0.0474 -0.2850 -0.1109
 8760W        W51673  11.049  34.326   0.417  0.0558 -0.0433  0.3176
 8761W        W51674  19.772  14.156   2.845 -0.0993 -0.1106 -0.1445
 8762W        W51675  25.197  22.351   0.783  0.0673 -0.0754 -0.0558
 8763W        W51676  24.321  32.822   8.112 -0.0352 -0.3618 -0.1154
 8764W        W51677  14.347  30.077   8.306 -0.1533 -0.0373 -0.0455
 8765W        W51678  20.655  33.015   5.889 -0.0623 -0.3338  0.0485
 8766W        W51679  23.828  28.042  20.887  0.2302  0.2013 -0.1756
 8767W        W51680  26.463   9.983   2.821 -0.0201 -0.0495 -0.0669
 8768W        W51681  19.681   1.774   4.376 -0.1687  0.1765  0.2202
 8769W        W51682  24.661  24.276   4.535 -0.0140  0.1175 -0.1698
 8770W        W51683  17.599  30.240   4.740 -0.1574  0.1505  0.0512
 8771W        W51684  11.329   1.462  10.765  0.2011 -0.1460  0.1935
 8772W        W51685  15.338  13.905  25.282  0.2433  0.0378  0.2762
 8773W        W51686  27.059   7.472   3.824  0.1032  0.1153 -0.1517
 8774W        W51687  16.273   3.257   6.489  0.0287  0.4989  0.2899
 8775W        W51688   5.527  26.930  28.079  0.4516  0.1208 -0.0071
 8776W        W51689  22.853  13.613   2.956  0.0261  0.3130  0.1006
 8777W        W51690  21.140  32.220  28.517  0.1674 -0.1622 -0.1557
 8778W        W51691  21.311   4.482  29.663  0.2259  0.1422  0.3999
 8779W        W51692   8.958   4.714   2.506 -0.5628 -0.0575  0.0035
 8780W        W51693  27.064  14.577   4.819  0.3599 -0.1681  0.1796
 8781W        W51694  20.084   9.515  26.687  0.0474  0.1034  0.1500
 8782W        W51695  20.587   1.532  10.374  0.1405 -0.1096 -0.2848
 8783W        W51696  19.423   2.397   2.812  0.1424  0.0245  0.2845
 8784W        W51697  16.509   4.888  25.641 -0.0371 -0.3427  0.2375
 8785W        W51698  27.453  24.998  26.839 -0.0009 -0.1182  0.0228
 8786W        W51699  20.394  12.452  25.507 -0.1581  0.2355 -0.0635
 8787W        W51700  24.900   7.854  22.698  0.2600 -0.0712 -0.0724
 8788W        W51701  15.422  22.939   2.363  0.0128 -0.2511 -0.2175
 8789W        W51702  22.858  10.190   0.088 -0.3099  0.1585 -0.1853
 8790W        W51703  18.355   6.478   3.288  0.0537  0.1495 -0.1595
 8791W        W51704  18.848   1.077   1.902  0.1122 -0.0852 -0.1235
 8792W        W51705  29.846   4.766  10.211 -0.2998 -0.0718 -0.0128
 8793W        W51706  16.970  33.459  26.324 -0.1146  0.2460  0.1804
 8794W        W51707  19.234   1.931  19.852  0.0307  0.1687  0.1821
 8795W        W51708  27.027   9.328  24.647  0.2986 -0.1874  0.2131
 8796W        W51709  16.032   1.953   2.681  0.1385 -0.2232  0.0111
 8797W        W51710  19.586   1.802  28.871  0.1518 -0.1459 -0.0861
 8798W        W51711  22.997  33.350   8.404 -0.0156  0.0311  0.0629
 8799W        W51712  24.258   7.931  22.083 -0.0650  0.0454  0.0594
 8800W        W51713  11.665  32.801   9.443  0.0044 -0.2517  0.0480
 8801W        W51714  24.775  31.726   6.081 -0.1294 -0.0149  0.2442
 8802W        W51715  30.478  11.309   9.293  0.2848 -0.1232  0.0094
 8803W        W51716  19.532  24.732  27.593 -0.2661 -0.1634 -0.1707
 8804W        W51717  25.097   1.858  27.736 -0.1376 -0.1094 -0.2352
 8805W        W51718  13.603  30.505   5.081 -0.4027  0.3998  0.2597
 8806W        W51719  26.006  10.402   3.065 -0.1063 -0.2798  0.4543
 8807W        W51720  11.376   1.220   6.866 -0.1140  0.1126 -0.0820
 8808W        W51721  23.612   3.420   8.204  0.1527  0.1956  0.0070
 8809W        W51722  29.241  29.391  14.695 -0.1678  0.0149 -0.1595
 8810W        W51723  10.661  30.663   0.553  0.1015  0.2506 -0.0500
 8811W        W51724  28.672   3.317   0.977 -0.0561 -0.0888 -0.1212
 8812W        W51725  29.636   1.705   1.595 -0.1524  0.0480  0.0980
 8813W        W51726  18.325  15.918  22.342 -0.0314 -0.0592 -0.0887
 8814W        W51727   6.820   4.785  26.635  0.1630 -0.0044  0.2013
 8815W        W51728  18.069   2.498   8.843  0.3129 -0.5683 -0.1645
 8816W        W51729  18.824   6.602  27.497  0.3296 -0.1060 -0.0628
 8817W        W51730  25.293  28.516  23.860  0.0596 -0.2658 -0.4041
 8818W        W51731  20.566   3.757  28.718 -0.0694 -0.3207  0.0018
 8819W        W51732  20.759   1.996  28.736 -0.2506  0.0056 -0.1041
 8820W        W51733  16.601   5.525  27.147  0.0525  0.1467 -0.1861
 8821W        W51734  17.234  32.480   4.581 -0.2051  0.1181 -0.1419
 8822W        W51735  17.986   4.029   2.766 -0.3366 -0.0245  0.2203
 8823W        W51736  24.139  34.257  22.019  0.0968  0.0709 -0.0155
 8824W        W51737  18.947   5.955   2.918 -0.0485  0.1806 -0.2409
 8825W        W51738  22.683   2.713   3.130 -0.2753  0.0280 -0.3226
 8826W        W51739  28.010  16.257   2.303 -0.1218  0.4207  0.0234
 8827W        W51740   9.163  31.274  23.330  0.1245 -0.2003  0.0283
 8828W        W51741  17.306   6.601  23.605 -0.2138  0.2026 -0.3720
 8829W        W51742  12.346  28.881  23.503  0.1678  0.3615 -0.2613
 8830W        W51743  13.748  26.586  24.692 -0.1328  0.1292  0.1296
 8831W        W51744  22.276   0.855  26.299  0.0678 -0.3714  0.1010
 8832W        W51745  30.561  32.469   8.817  0.0284  0.0802  0.0627
 8833W        W51746  14.873   7.293   9.279 -0.2939 -0.0701  0.2855
 8834W        W51747  18.979  27.592  27.515  0.1631 -0.1120 -0.0558
 8835W        W51748  20.367   5.187  28.208 -0.0446  0.0847  0.0435
 8836W        W51749  17.578  29.046  10.131 -0.0535 -0.1503 -0.2748
 8837W        W51750  31.680   1.488   2.582  0.0349  0.2388 -0.0191
 8838W        W51751  25.955   8.894   2.659  0.0109  0.3021  0.1257
 8839W        W51752  18.933   2.946   9.502 -0.0403 -0.3491 -0.3356
 8840W        W51753  14.226   7.544  29.743  0.0185 -0.1946 -0.2071
 8841W        W51754  22.431   6.148   1.878 -0.0142  0.2302  0.1893
 8842W        W51755  18.365  31.354   1.927  0.4358  0.2407  0.0841
 8843W        W51756  19.493   0.534   5.527 -0.0338  0.0787 -0.1330
 8844W        W51757  14.688  27.452  24.512  0.1472 -0.2914  0.1832
 8845W        W51758  16.102   9.350   2.248 -0.2843 -0.3941 -0.2864
 8846W        W51759   0.281  24.682   1.119 -0.3215  0.3879 -0.0567
 8847W        W51760  21.233  33.107   2.948 -0.1119  0.1710 -0.0019
 8848W        W51761  29.624  12.173   6.582 -0.2181 -0.1552  0.1140
 8849W        W51762  31.936   2.228   2.044  0.1506  0.0249 -0.0779
 8850W        W51763   7.285  11.176  23.355 -0.1209  0.0012 -0.2329
 8851W        W51764  25.176   3.040   9.658  0.2828 -0.0885 -0.0605
 8852W        W51765  17.923   4.682   3.879 -0.3711 -0.1357 -0.1024
 8853W        W51766  23.597   2.689   9.194  0.0986  0.5254  0.1668
 8854W        W51767  17.621   4.881  27.079 -0.2202 -0.0942  0.2658
 8855W        W51768  17.705  32.897  26.220  0.2845  0.1059 -0.1681
 8856W        W51769  17.346  31.635   0.383 -0.1540  0.0641  0.1299
 8857W        W51770   6.250   9.280  26.799 -0.1706 -0.1312  0.2327
 8858W        W51771  21.040  31.669   5.482  0.1681 -0.1040  0.2017
 8859W        W51772  26.076   5.461   6.737  0.0825  0.1371 -0.0357
 8860W        W51773  21.475  10.741  20.058  0.3749  0.1781  0.1674
 8861W        W51774  18.015   2.793   2.066  0.1114 -0.0303  0.0992
 8862W        W51775  21.220   3.192   5.881 -0.1514  0.2461 -0.0164
 8863W        W51776  10.600  31.081   3.086 -0.0915 -0.1778 -0.1239
 8864W        W51777   6.117  33.425   1.017  0.3121  0.0028 -0.1810
 8865W        W51778  12.868   0.971   1.480 -0.2143  0.3191 -0.0874
 8866W        W51779  24.868   3.531  14.475 -0.2436  0.1057 -0.0518
 8867W        W51780  23.161  26.400  23.231 -0.0576  0.4040 -0.0470
 8868W        W51781  21.001  11.290   0.307 -0.1384 -0.1023  0.0211
 8869W        W51782  19.471  33.750   2.935 -0.2846  0.0503  0.3624
 8870W        W51783  34.404  30.888  25.699 -0.1660 -0.0071  0.2067
 8871W        W51784  12.668  12.086   5.187 -0.1641 -0.0177 -0.2439
 8872W        W51785  21.152  26.249   2.194  0.1570  0.1566 -0.0235
 8873W        W51786  18.187  34.401   8.939  0.0029 -0.0624 -0.0833
 8874W        W51787  29.221  33.175  28.349  0.1961 -0.0464 -0.1566
 8875W        W51788   7.591   3.458   6.656  0.0988 -0.2159  0.2801
 8876W        W51789  21.647   2.273  29.271  0.1001 -0.3501 -0.1802
 8877W        W51790  23.449  27.883  29.759 -0.1935 -0.0353 -0.1209
 8878W        W51791  14.600  24.237  29.205  0.1374 -0.2616  0.2640
 8879W        W51792  20.907   2.360   5.994 -0.1330  0.1155 -0.2239
 8880W        W51793  20.908  28.491   9.092 -0.0729 -0.0374  0.0883
 8881W        W51794  14.389   9.201  28.385  0.0056  0.2821 -0.0175
 8882W        W51795  14.086   3.192   5.473  0.1619 -0.3175 -0.0655
 8883W        W51796  26.558  11.048   3.981  0.2834 -0.2880 -0.1010
 8884W        W51797  11.589   6.578   4.004  0.0062  0.1092  0.0603
 8885W        W51798  11.066   3.494  11.371 -0.0381  0.0555 -0.0994
 8886W        W51799  20.899  26.914  29.214 -0.1366  0.1288 -0.0724
 8887W        W51800  19.738  32.620   2.974  0.1067 -0.0962  0.1214
 8888W        W51801  32.602   3.529   8.162 -0.2269 -0.0719 -0.1578
 8889W        W51802  17.622   8.144   7.661 -0.0130  0.0831  0.2772
 8890W        W51803  20.564   0.157  28.569  0.0277 -0.0037 -0.1474
 8891W        W51804  10.473  32.495  21.887  0.0345 -0.0575 -0.1920
 8892W        W51805  34.376   9.191   1.899  0.0967  0.4045  0.1774
 8893W        W51806  12.937  34.324  20.836  0.1671  0.1480 -0.0107
 8894W        W51807  32.957  12.182   1.657  0.1871 -0.0543  0.1504
 8895W        W51808  19.083  33.889   8.528  0.0100 -0.0042 -0.2600
 8896W        W51809  14.980  29.740   0.668  0.0322 -0.1080  0.3126
 8897W        W51810  21.024   2.875   0.074  0.1509 -0.0442 -0.0706
 8898W        W51811   9.867  29.518   4.755 -0.0952 -0.0478  0.0311
 8899W        W51812  19.555   5.418  29.726  0.1373 -0.1207 -0.0645
 8900W        W51813  15.510  23.369   1.033  0.1632  0.2562  0.1788
 8901W        W51814  22.632  30.095   4.157 -0.3791  0.0947  0.0392
 8902W        W51815   8.991  33.154   3.280 -0.5600 -0.2103 -0.0014
 8903W        W51816  21.990  34.445   6.699 -0.0913  0.0109 -0.1545
 8904W        W51817  24.201   3.978   5.217  0.0145 -0.2428 -0.3035
 8905W        W51818  11.289  31.699   7.597 -0.1654  0.0796 -0.2493
 8906W        W51819  20.284   0.882   3.756 -0.1961  0.0203 -0.2745
 8907W        W51820  26.457   3.239  23.590  0.0815  0.2735 -0.1125
 8908W        W51821  18.482   4.468  27.569 -0.1845 -0.0671  0.2167
 8909W        W51822  16.687   0.966   7.829  0.0879  0.2315 -0.2038
 8910W        W51823  17.506   5.065   2.447  0.0278 -0.1195 -0.0954
 8911W        W51824  14.289   3.850   3.646 -0.0326  0.1098 -0.1483
 8912W        W51825  26.862   5.243  10.495 -0.0581  0.0480 -0.0123
 8913W        W51826  17.062  27.022  23.832 -0.3652 -0.0390  0.0604
 8914W        W51827  27.029   7.183   4.491  0.2171 -0.0471 -0.3152
 8915W        W51828  17.981   0.666   7.966 -0.2565 -0.2734 -0.1932
 8916W        W51829  24.148   1.996   0.321  0.1607 -0.1707 -0.5558
 8917W        W51830  16.752   5.321   4.518 -0.0153 -0.1392 -0.0022
 8918W        W51831   0.165   1.945   0.751  0.0495 -0.0228 -0.0214
 8919W        W51832  19.612   0.076  23.790 -0.0024 -0.1565  0.2869
 8920W        W51833  26.550   4.878   6.572 -0.1115 -0.3935  0.1878
 8921W        W51834  30.017   2.941   9.543 -0.3322 -0.1586 -0.0293
 8922W        W51835  17.096   3.919  27.429  0.0492  0.1446  0.1508
 8923W        W51836  16.069   2.019  28.773  0.2333 -0.0334 -0.1292
 8924W        W51837  23.540   3.573  29.565 -0.0898 -0.1846  0.2564
 8925W        W51838  22.990   6.384   2.518  0.0502 -0.0207  0.1648
 8926W        W51839  25.447  31.579  27.860 -0.3681  0.0871 -0.1172
 8927W        W51840  12.392  31.803  22.585  0.0312 -0.2195  0.4822
 8928W        W51841   8.794  28.436  11.441  0.2079  0.1687  0.0324
 8929W        W51842  30.129   2.946   5.513 -0.0460 -0.2042  0.1004
 8930W        W51843  25.371  29.499   3.444  0.0436 -0.2090 -0.0648
 8931W        W51844  25.617   2.265   1.624 -0.0524 -0.0553 -0.2982
 8932W        W51845  15.130  26.231  19.417 -0.1518  0.0949 -0.2323
 8933W        W51846  24.602   4.511   3.846 -0.1167  0.1885  0.3015
 8934W        W51847  31.047   9.621   9.027  0.0171  0.0994  0.0496
 8935W        W51848  30.587   2.479  26.584 -0.2557 -0.1720 -0.0813
 8936W        W51849  10.076  30.081   8.322  0.1440  0.0405  0.0415
 8937W        W51850  22.122  32.788  23.915  0.0470  0.0370  0.0863
 8938W        W51851  11.470  10.384   8.848  0.0281  0.0111  0.1417
 8939W        W51852   8.209  28.983  28.042 -0.3893 -0.0825 -0.1164
 8940W        W51853  15.523  31.038  28.962 -0.1401  0.2686 -0.0121
 8941W        W51854  21.090  33.518   5.986  0.3987  0.1724  0.1189
 8942W        W51855  24.976  33.686   6.112 -0.4622 -0.1462  0.2955
 8943W        W51856  21.466  34.249   9.285  0.2454  0.0730  0.5993
 8944W        W51857  10.645   4.066   5.590  0.2789 -0.0814  0.3005
 8945W        W51858  11.475   7.086   8.922  0.2700  0.2382 -0.0065
 8946W        W51859  18.649   1.018  10.777 -0.0085 -0.0812  0.2414
 8947W        W51860  19.508   0.322  27.699  0.1200 -0.4668 -0.3154
 8948W        W51861  26.520   2.772   2.474  0.2514  0.1961 -0.0053
 8949W        W51862  27.441   6.475  29.009  0.2477  0.4808  0.0282
 8950W        W51863  20.697   8.147   8.195 -0.0184  0.1090 -0.0954
 8951W        W51864  11.341   9.772   7.995  0.1458  0.1273  0.2121
 8952W        W51865  10.590  34.127  11.619  0.1957 -0.0466  0.0999
 8953W        W51866  13.642  24.677   5.315  0.0394 -0.0306 -0.0831
 8954W        W51867  14.130   6.837   2.041 -0.1665  0.1518 -0.1780
 8955W        W51868  15.542   7.305   3.945  0.5042  0.2196 -0.0012
 8956W        W51869  15.164  10.837  29.316  0.0844 -0.1677  0.1800
 8957W        W51870  15.640   3.933   4.716 -0.0405  0.3422  0.0065
 8958W        W51871  27.623  11.612  27.536  0.1318 -0.0071 -0.1337
 8959W        W51872  22.432   0.150   1.359 -0.1087  0.2368 -0.0946
 8960W        W51873  33.320  28.402   4.823 -0.1354  0.0187  0.2157
 8961W        W51874   7.735  29.308  26.213 -0.0200 -0.0765  0.0862
 8962W        W51875  22.916  26.611   2.603  0.0308 -0.1651 -0.0514
 8963W        W51876  25.014  32.187  27.234  0.5321 -0.1224  0.1196
 8964W        W51877  31.141  30.164   9.297  0.5353 -0.0656  0.0544
 8965W        W51878  21.626   4.053   2.943 -0.0410 -0.4072 -0.2576
 8966W        W51879  11.819  34.295   6.643 -0.0420  0.1713  0.2916
 8967W        W51880  18.020   8.246   2.104 -0.2425  0.0350  0.0690
 8968W        W51881  16.074   3.529   1.245 -0.2516 -0.3267 -0.0717
 8969W        W51882  29.469   1.833   7.925  0.2628  0.4623  0.1049
 8970W        W51883  16.822  31.898   0.202 -0.1627  0.1143 -0.4570
 8971W        W51884  20.009  26.991   1.037  0.0268  0.1325 -0.3083
 8972W        W51885  17.240   9.029   8.520 -0.0163  0.0285 -0.1059
 8973W        W51886  25.373   8.880   7.617  0.0029 -0.2371 -0.0319
 8974W        W51887  11.813   1.797  12.164 -0.1444 -0.0541 -0.0028
 8975W        W51888  29.339   4.557  10.468  0.3379 -0.1555 -0.1058
 8976W        W51889  21.200  27.567   1.827  0.4108  0.1857 -0.0854
 8977W        W51890  26.504   0.519   9.595 -0.1623  0.3286  0.2404
 8978W        W51891  17.365   5.304   0.823 -0.1126  0.0290 -0.1317
 8979W        W51892  13.475   0.881   9.961  0.0049 -0.1173  0.0039
 8980W        W51893  10.540   7.607  10.969  0.1212 -0.0915  0.0241
 8981W        W51894  25.748  11.052   9.028 -0.3451 -0.3926 -0.0054
 8982W        W51895  26.032   6.943   3.854 -0.0323  0.0278 -0.0654
 8983W        W51896  13.347  10.933   5.286  0.0318 -0.3075  0.2783
 8984W        W51897  20.196   5.311   8.658  0.0747  0.0852  0.1168
 8985W        W51898  13.460  34.325  29.746  0.1666 -0.0767 -0.3317
 8986W        W51899  16.081  26.498  25.572  0.0467 -0.1146  0.2224
 8987W        W51900  19.587   1.449   7.150 -0.1550 -0.2665 -0.0636
 8988W        W51901  30.466  28.286   3.797  0.2645 -0.2123 -0.2492
 8989W        W51902  20.180  22.030   1.497 -0.0923  0.1777  0.1311
 8990W        W51903  16.871   5.028  28.809 -0.0182  0.0862  0.0942
 8991W        W51904  27.964   8.199  25.122  0.1405  0.0380 -0.2740
 8992W        W51905   6.435   6.923  12.965 -0.1362  0.1978  0.1399
 8993W        W51906  15.762  26.485  26.567 -0.0482 -0.1117 -0.1274
 8994W        W51907  31.721   6.170  10.743 -0.1601  0.0822 -0.1020
 8995W        W51908  14.032   6.362   4.945 -0.1870  0.2456  0.1888
 8996W        W51909  20.404   2.314   6.487 -0.2330  0.0490  0.1647
 8997W        W51910   9.694   3.068   7.097  0.0522 -0.1684 -0.0789
 8998W        W51911  17.103   4.224   4.040  0.3609 -0.0974 -0.0925
 8999W        W51912  19.316   6.650   2.704  0.1774  0.1580  0.2522
 9000W        W51913  15.711  25.042   5.364 -0.1072  0.1231  0.0976
 9001W        W51914  16.396  33.910  29.326 -0.1845 -0.1296 -0.2498
 9002W        W51915  26.602  31.075   9.527  0.1200  0.0184  0.0672
 9003W        W51916  20.459   1.494   5.812  0.1009 -0.2537  0.1553
 9004W        W51917  23.218  33.974  29.599 -0.0898 -0.1944 -0.0404
 9005W        W51918  17.343   0.792  26.715 -0.1841  0.2442 -0.2110
 9006W        W51919  16.876   7.498  27.568  0.0179  0.0640  0.0429
 9007W        W51920   1.007   4.672  27.902 -0.0336  0.2605  0.5292
 9008W        W51921  14.491  24.418   2.767  0.1690 -0.0522 -0.2281
 9009W        W51922   9.628   5.302  12.931  0.1397  0.1439 -0.1242
 9010W        W51923  28.087  10.288   7.224 -0.1486 -0.2167 -0.1140
 9011W        W51924  25.145   0.180   8.144  0.1233 -0.0213 -0.2886
 9012W        W51925  16.538  28.233   0.468  0.0978  0.0249 -0.0938
 9013W        W51926  14.493  11.029   9.300 -0.2535  0.1639  0.3451
 9014W        W51927  22.714  28.707   6.789  0.0631  0.0954  0.2187
 9015W        W51928  23.775   2.616   7.912 -0.3208  0.0178 -0.0965
 9016W        W51929  25.578   3.790   2.143 -0.1313 -0.1472 -0.3058
 9017W        W51930  17.833   0.339  28.016  0.0782  0.1968  0.0315
 9018W        W51931  14.366   9.712   4.232  0.1185  0.0257  0.2113
 9019W        W51932  22.536  30.460  27.743 -0.2143  0.1058  0.0376
 9020W        W51933  30.284   4.506   5.657  0.2012  0.0897  0.1856
 9021W        W51934  21.518   3.176   4.206  0.0768  0.0017 -0.3968
 9022W        W51935  27.045  34.031   1.773  0.2110  0.0243 -0.0042
 9023W        W51936  22.813  23.187   7.858 -0.3105  0.3219  0.0617
 9024W        W51937  19.884   5.363   6.230  0.0255  0.4786 -0.1563
 9025W        W51938  18.851   0.200  26.450 -0.0338  0.4338  0.4624
 9026W        W51939  24.222  28.146   3.294  0.3193 -0.0669 -0.0011
 9027W        W51940  23.464   7.812   4.238  0.1606  0.1037 -0.1029
 9028W        W51941  29.848  28.998  29.756 -0.1026  0.1060 -0.1558
 9029W        W51942  16.379   6.641   9.390  0.0230 -0.1413  0.1719
 9030W        W51943  24.772  32.537   3.778 -0.2716  0.1989 -0.0860
 9031W        W51944  16.348  33.632  10.455 -0.1980  0.1915  0.2042
 9032W        W51945   8.805   2.409   4.032 -0.0099  0.0900 -0.0446
 9033W        W51946  26.777  16.489  25.665 -0.0806  0.1599  0.1139
 9034W        W51947  23.647  33.188   1.347 -0.0428 -0.1807 -0.1701
 9035W        W51948  12.214  30.044   5.208 -0.2037 -0.1629  0.2288
 9036W        W51949  13.327   5.826  22.816  0.0836 -0.2679 -0.1407
 9037W        W51950  17.506   6.414   6.867 -0.0589 -0.5232  0.0851
 9038W        W51951  12.296  25.073   3.844 -0.3234 -0.2204  0.0999
 9039W        W51952   9.432  12.615   3.485 -0.1845 -0.0108  0.2575
 9040W        W51953  26.516  32.372   9.030  0.1780  0.1123  0.0096
 9041W        W51954  14.929  23.570   4.363  0.0737  0.0355  0.1526
 9042W        W51955  22.976   4.268  28.898  0.3417 -0.1382 -0.0852
 9043W        W51956  12.692  29.255   4.952 -0.0373  0.1170 -0.0814
 9044W        W51957  30.988  10.512  29.541 -0.0866  0.1654  0.1907
 9045W        W51958  19.817   1.124   3.080  0.3074  0.0897  0.2788
 9046W        W51959  23.560  31.877   1.674  0.0661 -0.2903 -0.1781
 9047W        W51960  21.380   3.816   1.570  0.1049 -0.0300 -0.0433
 9048W        W51961   7.889  25.486  25.699  0.2899 -0.0380 -0.1479
 9049W        W51962  15.242  27.401   7.171 -0.0963 -0.1074  0.1860
 9050W        W51963  15.049   7.224   5.635 -0.2477  0.0707  0.2918
 9051W        W51964  14.882  32.353  10.095 -0.0772  0.0199 -0.0052
 9052W        W51965  15.025  23.329   8.858 -0.0657  0.2672  0.1730
 9053W        W51966  23.324  31.655   3.063 -0.1465  0.2123 -0.1470
 9054W        W51967  16.016   9.318   5.526 -0.2996 -0.1393  0.2014
 9055W        W51968  23.483  28.870   0.473  0.0775  0.1128  0.0838
 9056W        W51969  15.274   7.922   7.841  0.2128  0.0601 -0.1686
 9057W        W51970  10.608   8.783   1.444  0.3070 -0.1511  0.0296
 9058W        W51971  17.818  29.626  25.898  0.2444 -0.2309  0.0009
 9059W        W51972  24.814   1.333  10.379  0.0756  0.2593 -0.0169
 9060W        W51973  10.569   6.232  19.398  0.1518 -0.0919  0.0892
 9061W        W51974  19.443  30.552   5.584  0.0957  0.0107  0.2969
 9062W        W51975  18.295   0.937   9.323 -0.1650  0.0590  0.0370
 9063W        W51976  22.135   8.128   0.606  0.1767 -0.0952 -0.0573
 9064W        W51977  19.773  30.846   5.785 -0.1732 -0.1338  0.1287
 9065W        W51978  18.451  12.647  26.151 -0.0020  0.2030 -0.1395
 9066W        W51979  18.884  31.033  28.999  0.2485  0.0116 -0.1141
 9067W        W51980  26.473  32.671   5.706 -0.0580  0.0297 -0.3938
 9068W        W51981  24.791   0.915   5.286  0.2860 -0.0754 -0.0625
 9069W        W51982  15.213  28.295   2.418 -0.0534 -0.1255  0.0948
 9070W        W51983  25.485  15.180   2.930 -0.1868 -0.0829 -0.4583
 9071W        W51984  14.451   8.923   4.099  0.0184  0.1279 -0.0520
 9072W        W51985  28.759   0.807   9.675 -0.1270  0.0983 -0.0417
 9073W        W51986  32.815   8.346   3.911  0.1417  0.2297  0.0906
 9074W        W51987  16.544  34.127   0.954 -0.1491 -0.5253 -0.0280
 9075W        W51988  29.122  30.478   5.807  0.1867  0.1975 -0.1018
 9076W        W51989  22.751  24.751  26.495 -0.1059  0.0202 -0.0807
 9077W        W51990  11.603  25.749  28.945 -0.2474  0.0873 -0.0959
 9078W        W51991  28.008   3.428   4.920 -0.0012  0.3714  0.2246
 9079W        W51992   7.438  34.283   3.818  0.2532  0.1037  0.0190
 9080W        W51993  25.413   1.479   3.238  0.0180  0.2201 -0.0181
 9081W        W51994  18.543  29.568   1.325  0.1885  0.3355 -0.0186
 9082W        W51995  16.131   1.444   2.905  0.1313 -0.1798 -0.1876
 9083W        W51996  19.909  32.627   4.645 -0.0045 -0.1097  0.2196
 9084W        W51997  19.099   2.221   0.893  0.4245  0.4348  0.0147
 9085W        W51998  17.996   5.163   5.149 -0.0349 -0.1413  0.1957
 9086W        W51999  22.579   8.454   6.288  0.0606 -0.1494  0.1913
 9087W        W52000   7.082  28.558   2.680 -0.1449 -0.0812 -0.2051
 9088W        W52001  23.225   5.704   3.155  0.1684 -0.0004 -0.0126
 9089W        W52002  23.225   2.297   9.085  0.2154  0.0491  0.1616
 9090W        W52003  27.043  29.922   9.540 -0.4552  0.3346  0.0873
 9091W        W52004  25.177  25.728   2.003  0.0928 -0.5203  0.3598
 9092W        W52005  17.126  10.859   2.288 -0.0618 -0.2033 -0.0688
 9093W        W52006  26.266  31.973   4.122 -0.3717  0.2206  0.1347
 9094W        W52007  13.458  10.156   6.585 -0.3022 -0.0602  0.1867
 9095W        W52008  18.743   3.917   0.558  0.0093  0.0025 -0.0495
 9096W        W52009  23.610  10.953   8.290 -0.0120  0.4392  0.2033
 9097W        W52010  11.570   3.665   2.674  0.0714 -0.1889 -0.2027
 9098W        W52011  17.164  28.902   2.296 -0.0580  0.0971  0.0981
 9099W        W52012  17.420  30.817   5.009 -0.4420  0.0364  0.1713
 9100W        W52013  21.222  27.685  27.707 -0.0612  0.2778  0.0422
 9101W        W52014  27.491   0.870  19.376  0.2534 -0.0333  0.1103
 9102W        W52015   3.599  34.104  25.809 -0.1406  0.2118 -0.4570
 9103W        W52016  17.225   2.460   3.456 -0.0037 -0.0826 -0.0249
 9104W        W52017  26.354   3.287   7.722  0.1063  0.2367  0.4405
 9105W        W52018  27.417  32.840   4.684 -0.0005  0.1295  0.1214
 9106W        W52019  16.386  31.529   4.907 -0.0973  0.0664  0.0641
 9107W        W52020  11.840   0.156   4.936 -0.2447  0.0300 -0.3515
 9108W        W52021  19.208  31.489   7.185  0.0228  0.0514  0.0645
 9109W        W52022  26.772   6.729   4.737  0.1067 -0.0147  0.0333
 9110W        W52023  23.001   2.145   6.444  0.2861 -0.2878  0.3510
 9111W        W52024  26.010   7.802   0.798  0.1928 -0.0887  0.0770
 9112W        W52025  23.181   3.980   5.272 -0.1697 -0.0922 -0.0337
 9113W        W52026  18.819  29.697   9.543 -0.1883  0.1494  0.3412
 9114W        W52027   3.263  26.607  27.062  0.1911 -0.0020 -0.1539
 9115W        W52028  29.899   2.559   1.936 -0.2216  0.0743 -0.0365
 9116W        W52029   8.553   1.301  10.149 -0.1457 -0.4162  0.0460
 9117W        W52030  23.602   7.123   7.238 -0.0303 -0.2915  0.2495
 9118W        W52031  11.189  28.069   4.873 -0.0966 -0.0869  0.1667
 9119W        W52032  25.788   1.065   9.158  0.1197  0.0314  0.2204
 9120W        W52033   6.917   2.201   1.915 -0.2881  0.0952 -0.0275
 9121W        W52034  24.106  29.051  24.740 -0.0566  0.2203 -0.0265
 9122W        W52035  18.824  29.282   9.246  0.1058  0.0087  0.0719
 9123W        W52036  20.869   5.708   9.177 -0.0792 -0.0852  0.2324
 9124W        W52037  17.845   4.065  24.970  0.1943 -0.0191 -0.0287
 9125W        W52038  15.311  28.330   6.698 -0.4294  0.2970 -0.1348
 9126W        W52039  12.719   0.718   7.530  0.1753  0.0435  0.3175
 9127W        W52040  24.707   3.731   7.695  0.0362  0.0038  0.0119
 9128W        W52041  26.182  21.368  22.711 -0.0033  0.1675  0.2066
 9129W        W52042  15.795   6.549  29.263  0.0631 -0.3105 -0.0859
 9130W        W52043  22.433  23.121   2.844 -0.1071  0.0493 -0.0977
 9131W        W52044  10.451  15.598   3.387  0.0930  0.2320 -0.1538
 9132W        W52045  21.510  31.188   7.345 -0.0889  0.0810 -0.2928
 9133W        W52046  27.233   0.742  28.574 -0.0725 -0.0709 -0.0042
 9134W        W52047  14.509  31.259   9.336 -0.2430  0.0613  0.0983
 9135W        W52048  19.888   1.964  27.574  0.0498  0.0714  0.0219
 9136W        W52049  28.836   9.635   2.541  0.1397 -0.0012  0.0133
 9137W        W52050  12.374   5.772   0.421  0.0425 -0.1785 -0.0120
 9138W        W52051  30.730   5.490  11.331  0.0076 -0.0530  0.0404
 9139W        W52052  19.290   1.000   7.034 -0.0863  0.0637 -0.0703
 9140W        W52053   5.248   2.159  22.924  0.0876  0.1546  0.0366
 9141W        W52054  31.162  25.453   8.141  0.1753 -0.1819  0.1747
 9142W        W52055  16.453  23.105   2.717  0.1797  0.0787  0.1671
 9143W        W52056   6.766  31.695  29.290 -0.1033  0.2384  0.1685
 9144W        W52057  24.226  28.646   3.966  0.0981 -0.1212 -0.2376
 9145W        W52058  20.709   4.864   2.180  0.0540  0.0310  0.1096
 9146W        W52059  15.893  12.414   4.242  0.0686  0.0670  0.2177
 9147W        W52060  18.394   0.321   6.066 -0.1602 -0.0052 -0.1717
 9148W        W52061  10.848  31.559   4.792  0.0127  0.1206 -0.0400
 9149W        W52062  33.636   8.755   1.773  0.0993 -0.1466 -0.2535
 9150W        W52063  29.696   1.553   5.144  0.1576 -0.1090 -0.3154
 9151W        W52064  19.885   5.678   5.593 -0.0074 -0.1056  0.0420
 9152W        W52065  15.198  31.828   4.494  0.2584  0.2867  0.1518
 9153W        W52066  25.370  11.528   2.173 -0.1289 -0.3252 -0.0029
 9154W        W52067  27.053   8.875   7.714  0.1275 -0.2876  0.0093
 9155W        W52068   9.741  26.622   5.143  0.1246  0.2534  0.0596
 9156W        W52069  23.420   1.349   7.277  0.3467 -0.0181 -0.0734
 9157W        W52070  13.010   4.762   1.532  0.2033  0.1197  0.2486
 9158W        W52071  15.375   7.701   4.782  0.2202  0.0550  0.1493
 9159W        W52072   0.033  32.797   4.610 -0.0224 -0.0410 -0.0244
 9160W        W52073  15.808   5.689  11.232  0.1781  0.3930 -0.1669
 9161W        W52074  21.079  30.266   3.440 -0.1215 -0.2278 -0.1399
 9162W        W52075  18.764   6.522  21.370  0.4460 -0.2813 -0.0491
 9163W        W52076  24.895  24.169   4.142 -0.0537  0.2096 -0.0091
 9164W        W52077  10.280   6.410   6.316 -0.1492  0.0378  0.1709
 9165W        W52078  16.283   3.648   9.030 -0.1988  0.1533 -0.0251
 9166W        W52079  17.776  29.485  10.231  0.2691  0.4401  0.2576
 9167W        W52080  30.338   3.877  19.372 -0.1132 -0.0709  0.0779
 9168W        W52081  17.016   3.015  10.013  0.1315 -0.1414 -0.0899
 9169W        W52082  21.216   7.621   6.332  0.0091 -0.0607 -0.4464
 9170W        W52083   3.749   1.613   1.321 -0.0747 -0.2804  0.1563
 9171W        W52084  19.184  31.182  19.601  0.0287  0.0920  0.0611
 9172W        W52085   0.351  13.868  26.746  0.2049 -0.1248 -0.1595
 9173W        W52086   0.592   0.221   8.432  0.1720  0.0652  0.3850
 9174W        W52087  23.507   2.918  25.295 -0.0083  0.0816  0.0207
 9175W        W52088  26.469  24.328   1.700 -0.0594  0.1467 -0.1638
 9176W        W52089  23.425  29.459   1.204  0.1630  0.1241 -0.0580
 9177W        W52090  24.784   4.075   2.337 -0.4122  0.2824 -0.0250
 9178W        W52091  16.583   0.473   2.152  0.2681  0.3084 -0.0677
 9179W        W52092   5.490   8.030   5.041 -0.0421  0.1429  0.1662
 9180W        W52093  26.828  33.279   9.566  0.0716 -0.0139 -0.1822
 9181W        W52094  19.643   3.927   9.529 -0.0174 -0.1233 -0.0470
 9182W        W52095  18.605  23.455   3.576  0.3122  0.1515  0.1654
 9183W        W52096  22.848  32.168   3.342 -0.1332 -0.1010 -0.0292
 9184W        W52097  27.135  30.712   4.538 -0.1292 -0.0693 -0.1296
 9185W        W52098  19.359   2.830   8.650 -0.2179  0.1529  0.0826
 9186W        W52099  22.051  32.536  22.194  0.1708 -0.0290 -0.0855
 9187W        W52100  18.629  16.620   8.930  0.0683  0.0839 -0.1017
 9188W        W52101  15.705  26.931   9.016 -0.1123 -0.0456  0.0956
 9189W        W52102  16.111   1.338   1.221  0.1587 -0.1397 -0.3566
 9190W        W52103  22.765  30.725   1.031  0.2135 -0.1798  0.1972
 9191W        W52104  15.421   2.902   5.579 -0.2026  0.2090 -0.0463
 9192W        W52105  30.972  10.688   3.228  0.2083 -0.0397  0.1519
 9193W        W52106  14.581  30.899   0.666  0.1052 -0.0269  0.0140
 9194W        W52107  15.955  32.809   2.965  0.1061  0.4185  0.3595
 9195W        W52108  23.913  26.159  24.657 -0.0764  0.1264 -0.2244
 9196W        W52109  16.743  33.193  10.068 -0.0581  0.0418  0.0819
 9197W        W52110  19.664   5.702   6.763  0.1574  0.2012  0.1270
 9198W        W52111  26.537   6.234   3.588 -0.1953 -0.1357 -0.1058
 9199W        W52112  19.232   0.376  26.634  0.2125  0.0177  0.2298
 9200W        W52113  19.378  31.412   1.104  0.1945  0.0273 -0.0401
 9201W        W52114  15.123  30.867   6.298 -0.0965  0.2055  0.0981
 9202W        W52115  19.333  32.936   8.402  0.2979  0.0411 -0.2543
 9203W        W52116  22.907  13.442   6.863  0.0591  0.0635  0.1012
 9204W        W52117  20.292  29.182   5.776  0.0586  0.1810  0.1200
 9205W        W52118  18.055   9.955   3.536 -0.0534  0.1227 -0.0871
 9206W        W52119  16.647  25.296   2.336  0.1142 -0.1173 -0.0785
 9207W        W52120  23.284   9.700   7.657  0.0627 -0.0282 -0.0770
 9208W        W52121  26.588  18.827   9.661  0.0582 -0.0575 -0.2448
 9209W        W52122   6.900  32.124   1.167 -0.3468  0.2545  0.1423
 9210W        W52123  17.136  29.888   4.708 -0.0653  0.1733  0.2083
 9211W        W52124  24.642   9.820   6.519  0.2270  0.1567  0.0222
 9212W        W52125  24.498  14.284   1.062 -0.3549  0.0518 -0.0961
 9213W        W52126  24.936   5.141  10.512  0.0980 -0.1711  0.0053
 9214W        W52127  25.791  30.003   2.113  0.0011  0.1051 -0.2315
 9215W        W52128  22.348  31.771  27.798  0.0269  0.3918  0.0058
 9216W        W52129  21.588   9.460   2.052 -0.0261 -0.0238 -0.2127
 9217W        W52130  23.115  12.791   3.021 -0.7653  0.0195  0.2640
 9218W        W52131  15.822  30.595  10.703  0.2862 -0.0543 -0.0939
 9219W        W52132  21.386  31.244  28.744  0.0982 -0.2174 -0.2000
 9220W        W52133  30.684   8.643   7.372  0.1384  0.1800  0.2202
 9221W        W52134  19.273   6.710   5.366 -0.1275  0.5068  0.0490
 9222W        W52135  17.133  29.566   0.433 -0.0463  0.0616 -0.2380
 9223W        W52136  19.262  10.085   7.099 -0.0096 -0.3394  0.0233
 9224W        W52137  23.748  26.516   1.038 -0.0016 -0.0787 -0.0643
 9225W        W52138  15.613   0.842   4.598  0.3146  0.0949  0.3235
 9226W        W52139  17.783  31.686   0.121  0.1064 -0.2597  0.1378
 9227W        W52140  27.314   2.025   6.803  0.1109 -0.0940 -0.1601
 9228W        W52141  22.285   9.525  26.036  0.1599 -0.0429  0.0183
 9229W        W52142  28.603   4.954  27.762 -0.3004 -0.3030  0.3351
 9230W        W52143  34.200   0.933  21.793  0.0527 -0.1045 -0.1766
 9231W        W52144  28.515  11.551   2.244  0.2736  0.3328 -0.0152
 9232W        W52145  26.146  32.653   1.986  0.2370 -0.1543  0.0024
 9233W        W52146  18.636  29.893   8.438  0.3261  0.0580  0.0647
 9234W        W52147  14.317   2.272   6.357 -0.0304 -0.0736  0.0099
 9235W        W52148  16.969   5.331   2.948 -0.2678 -0.0960  0.2199
 9236W        W52149  22.539  21.722   1.724  0.1993 -0.2156  0.1706
 9237W        W52150  16.805   2.736  23.469  0.0402 -0.0301 -0.1591
 9238W        W52151  25.660   5.177   7.481 -0.1989  0.0853 -0.1414
 9239W        W52152  26.462   0.044  28.256 -0.1686 -0.0669  0.1329
 9240W        W52153  23.053   5.338   1.287  0.1364 -0.2343  0.4757
 9241W        W52154  10.598  31.582   6.996  0.0394  0.1201 -0.2234
 9242W        W52155   9.871  25.116  10.908  0.5160 -0.1359  0.0874
 9243W        W52156  27.113  17.867   2.200 -0.0435 -0.3030 -0.1937
 9244W        W52157  29.558   3.416  28.891 -0.1842  0.0604  0.3311
 9245W        W52158  13.080  33.659   4.954 -0.0723  0.0825 -0.2318
 9246W        W52159  24.651  14.142   4.980 -0.1494  0.1195 -0.0059
 9247W        W52160  15.677  29.744   9.418 -0.0630  0.1231 -0.2502
 9248W        W52161  24.430  24.406   1.240 -0.1786 -0.0539  0.0870
 9249W        W52162  19.990  33.778   7.496  0.0199  0.0000 -0.0911
 9250W        W52163  20.557  30.983   6.656 -0.0150 -0.1224 -0.0463
 9251W        W52164  11.553   4.410   3.087  0.0998 -0.1879 -0.1895
 9252W        W52165  14.641  33.186   2.847  0.0015 -0.0387  0.1276
 9253W        W52166  23.954   2.603   1.763 -0.1392 -0.2102 -0.0275
 9254W        W52167  23.435  31.246   5.843  0.0699 -0.1911 -0.1083
 9255W        W52168  13.326   5.918   9.056  0.2495 -0.1562 -0.3260
 9256W        W52169   8.910   6.338   4.122 -0.0924  0.3703  0.1268
 9257W        W52170  10.039   8.025  29.500 -0.0689  0.1590 -0.0177
 9258W        W52171  17.704  33.026   4.870  0.2911  0.0724 -0.1607
 9259W        W52172  18.575  30.143   1.533  0.1313 -0.1572  0.0111
 9260W        W52173  15.270   2.082  10.021  0.1325 -0.0898  0.1953
 9261W        W52174  24.239  32.397   5.568  0.1076  0.2469 -0.1649
 9262W        W52175  16.252   0.812   5.654 -0.1433  0.0246  0.2339
 9263W        W52176  10.757   5.861   3.245  0.3880 -0.1834  0.0433
 9264W        W52177  14.094  21.960   0.440 -0.3468 -0.0152 -0.2398
 9265W        W52178  20.738  32.398   4.566  0.0255 -0.1745  0.0278
 9266W        W52179  23.947  24.923   4.852  0.0024  0.2835  0.0283
 9267W        W52180  23.854   0.357   9.068 -0.1078 -0.0914  0.0467
 9268W        W52181  28.453   5.748   9.795  0.2728  0.0340 -0.1506
 9269W        W52182  25.210  30.920   6.141 -0.2219  0.0073 -0.0090
 9270W        W52183  14.905  30.373   8.493  0.2847  0.0300 -0.0042
 9271W        W52184  23.865   1.892  10.272  0.3201 -0.1694 -0.0341
 9272W        W52185  21.094   6.386   7.975 -0.0692 -0.0716 -0.4773
 9273W        W52186  20.136   3.269   5.579  0.0070  0.3980 -0.1092
 9274W        W52187  12.620   1.732  11.430 -0.0484  0.1606  0.0674
 9275W        W52188  19.180   6.337   9.081 -0.1068  0.1184  0.3074
 9276W        W52189  31.832   0.232   6.051  0.0248 -0.2117  0.1821
 9277W        W52190  14.512  28.714   9.137 -0.1571 -0.1231  0.3908
 9278W        W52191  22.932   5.204   0.722 -0.2097 -0.0054  0.2041
 9279W        W52192   1.173   3.550  29.583  0.0821  0.0592 -0.1818
 9280W        W52193  18.151  31.069   2.350 -0.0626  0.0083  0.0300
 9281W        W52194  26.555   5.894   3.905 -0.0640  0.2765  0.0535
 9282W        W52195  29.196   4.310   8.326 -0.0776 -0.0933 -0.3801
 9283W        W52196  17.938  28.397   3.363  0.2320  0.0724  0.0092
 9284W        W52197   8.123  23.024   1.892 -0.0976 -0.2518  0.6644
 9285W        W52198  18.527  33.313   9.326 -0.1089  0.1056 -0.0327
 9286W        W52199  23.128   4.681   9.345  0.0795  0.2014 -0.0804
 9287W        W52200  15.631  15.642   4.973 -0.2590  0.1402 -0.0636
 9288W        W52201   8.069  31.909   8.483  0.3473 -0.1979  0.1807
 9289W        W52202  22.736   2.966   9.762  0.0166  0.0770  0.0935
 9290W        W52203  21.379   5.256   2.259  0.1260  0.1274 -0.0471
 9291W        W52204   0.755  14.860   7.868  0.0746  0.1954  0.0087
 9292W        W52205  16.225   1.760   7.714  0.0059 -0.1318  0.1422
 9293W        W52206  30.722   7.830   2.861  0.0550 -0.0272 -0.5006
 9294W        W52207  15.697   1.303   6.834  0.1034 -0.3361  0.1253
 9295W        W52208  30.524   2.045   8.571  0.0365  0.2561  0.1054
 9296W        W52209  24.743  27.623   1.962  0.6431  0.2410  0.0497
 9297W        W52210  13.728  30.005   2.869  0.0700 -0.1604  0.4124
 9298W        W52211  21.023  24.835  29.309 -0.0708  0.0843 -0.1706
 9299W        W52212  15.553  30.459   7.303  0.1596 -0.2971  0.1993
 9300W        W52213  16.329  31.032   7.496  0.1179 -0.0374 -0.2700
 9301W        W52214  20.281  27.255   8.918  0.1652  0.1187  0.0063
 9302W        W52215  25.247   1.241   4.194 -0.1453  0.0584 -0.0334
 9303W        W52216  28.106   5.416   6.868 -0.4125 -0.0338 -0.0203
 9304W        W52217  21.672  28.741   5.242  0.0560  0.0628 -0.2511
 9305W        W52218  10.903  10.763   0.489  0.0718 -0.3119  0.1502
 9306W        W52219  22.468   2.220   4.938 -0.1094 -0.0336  0.0900
 9307W        W52220  19.595  11.492   8.530 -0.1356 -0.3281 -0.1577
 9308W        W52221  24.927   3.005   1.578 -0.1796  0.2884 -0.3059
 9309W        W52222  21.768  28.151   4.800  0.0357 -0.0501  0.1903
 9310W        W52223  23.226  28.750  23.502  0.1601 -0.2481  0.0143
 9311W        W52224   0.340  10.931  25.942 -0.0809  0.1644 -0.0500
 9312W        W52225  22.800  29.906   3.086 -0.1937 -0.0249  0.0150
 9313W        W52226  23.162   4.178   9.179  0.2028 -0.1146  0.0900
 9314W        W52227  19.757  34.236   4.914 -0.0342 -0.0687 -0.2814
 9315W        W52228  11.386   8.034   8.830 -0.0450  0.0594 -0.3174
 9316W        W52229  24.071  33.984   2.455  0.1473 -0.1469 -0.0829
 9317W        W52230  16.858  32.826   8.093 -0.0743 -0.0015  0.1334
 9318W        W52231  14.355   2.532   8.746 -0.1945  0.2031 -0.0492
 9319W        W52232  24.022  30.118   1.606 -0.2445 -0.0855 -0.1694
 9320W        W52233  22.081  25.503   5.686  0.0870 -0.1414  0.4871
 9321W        W52234  22.220   2.384   6.982  0.1146 -0.2235  0.2473
 9322W        W52235  23.665   5.448   3.315  0.3469  0.4364  0.3260
 9323W        W52236  24.509   7.685   7.040 -0.2329  0.1711 -0.0905
 9324W        W52237  33.344   4.014   5.256 -0.1109  0.1843  0.1306
 9325W        W52238  33.589   2.466  21.647 -0.0599 -0.0782  0.0187
 9326W        W52239  10.966   9.691   5.768  0.0186  0.4338  0.0735
 9327W        W52240  29.565   2.282   4.163 -0.1254 -0.0419 -0.0065
 9328W        W52241  23.712   6.685   4.758 -0.1976  0.2856 -0.2369
 9329W        W52242  23.245   9.280   7.289 -0.1113  0.0052  0.0084
 9330W        W52243  10.049   1.110  12.494 -0.0644  0.0744  0.3853
 9331W        W52244  10.725  33.695   6.526 -0.0870 -0.0290 -0.0607
 9332W        W52245  23.022   5.340   4.653 -0.0152 -0.0590  0.0185
 9333W        W52246   4.739   4.224   0.255 -0.2741 -0.2312  0.1559
 9334W        W52247  22.054  34.441   2.270 -0.1675  0.0890  0.1030
 9335W        W52248  17.333  21.916   4.967  0.3886 -0.0014  0.0017
 9336W        W52249  26.032   3.789   1.865  0.0548 -0.3351 -0.2988
 9337W        W52250  16.992   5.958   3.789 -0.2346  0.1094 -0.1644
 9338W        W52251  19.554  32.682   7.200 -0.0246  0.2526  0.0505
 9339W        W52252  10.061  33.105   9.310 -0.1223 -0.0206 -0.1150
 9340W        W52253  28.640   4.587   3.389  0.0651  0.1169  0.2484
 9341W        W52254  27.137  30.973   5.818  0.0370  0.1112 -0.1296
 9342W        W52255  18.352  29.518   3.347 -0.0589 -0.0197 -0.0836
 9343W        W52256  15.870  25.607  29.070  0.2709 -0.1507 -0.0976
 9344W        W52257  21.203   4.121  24.004 -0.1698  0.0268 -0.1010
 9345W        W52258  20.248   5.417   3.883  0.1590 -0.2280 -0.0517
 9346W        W52259  19.548   0.959   7.503  0.0200  0.1886  0.1344
 9347W        W52260  30.422  29.654   6.722  0.1069  0.2418 -0.2447
 9348W        W52261  16.722   3.393   7.445 -0.2380  0.2368 -0.0946
 9349W        W52262  12.530   0.678  10.836 -0.4394  0.2802  0.0971
 9350W        W52263  19.639   5.333  27.939  0.0573  0.3749  0.2214
 9351W        W52264  18.643  25.860   8.539  0.0522  0.0822 -0.0555
 9352W        W52265  15.724   4.919  22.712  0.1429 -0.0344 -0.0273
 9353W        W52266  30.047   1.905   7.349 -0.0138  0.4719 -0.0760
 9354W        W52267   7.183  32.970  11.028  0.2067  0.1453  0.0507
 9355W        W52268  17.459  32.122   4.344 -0.1790 -0.3406 -0.0886
 9356W        W52269  22.548   8.499   1.364 -0.0113 -0.2438 -0.1556
 9357W        W52270  18.339   2.636   6.811  0.4537 -0.0616 -0.4094
 9358W        W52271  24.849  13.008   8.899  0.1142  0.1250  0.0500
 9359W        W52272  11.705  32.868   3.568  0.1310  0.1262  0.1864
 9360W        W52273  17.426   0.546   8.808 -0.0714  0.2350  0.2309
 9361W        W52274  27.248  12.469   3.788  0.4440 -0.4267  0.2583
 9362W        W52275  22.361   9.586   5.604  0.1536  0.2800 -0.0425
 9363W        W52276  15.075  33.773   9.188  0.2620  0.2047 -0.2303
 9364W        W52277  16.876   5.659   3.400 -0.1153  0.3206 -0.0131
 9365W        W52278  10.179   7.452  11.374 -0.3802 -0.4262  0.1010
 9366W        W52279  23.041  22.254   8.553  0.0140  0.2403  0.0086
 9367W        W52280  30.200  15.275   3.000  0.0966 -0.0204  0.1703
 9368W        W52281   9.336  32.571  11.510  0.0584 -0.0514  0.1372
 9369W        W52282  25.590   3.151   8.909  0.0152 -0.0932  0.3232
 9370W        W52283  22.036  33.001   6.845  0.1159 -0.1022  0.2284
 9371W        W52284  29.446  33.570   9.817 -0.4466 -0.0854 -0.0010
 9372W        W52285  18.597  32.797   6.499 -0.3091 -0.0335  0.1429
 9373W        W52286  13.150  32.994  11.213  0.0632  0.0117  0.2002
 9374W        W52287  19.775  30.891   7.619  0.2713  0.0092  0.2320
 9375W        W52288  20.473  31.065   3.154  0.1431 -0.0343  0.0214
 9376W        W52289   7.939   1.869  13.787 -0.0233  0.0639  0.0819
 9377W        W52290  30.125   4.736   8.640  0.0705  0.0410  0.2358
 9378W        W52291  16.147  31.903   8.747  0.1151  0.0329 -0.1040
 9379W        W52292  20.059  33.609   2.850  0.0887  0.1817  0.3286
 9380W        W52293  11.151  16.578   9.291 -0.2130 -0.2824 -0.0346
 9381W        W52294  14.577   3.231   3.010 -0.0734 -0.0478 -0.1072
 9382W        W52295  17.464   3.113  21.366  0.0874  0.0173  0.0452
 9383W        W52296  12.623  22.445   2.254  0.1324 -0.0054 -0.1483
 9384W        W52297  12.513   2.995   4.566  0.0050 -0.1734 -0.1331
 9385W        W52298  11.493  33.857   7.055 -0.1522 -0.1019  0.0376
 9386W        W52299  27.582   3.449   8.528  0.0900  0.0789  0.1384
 9387W        W52300  20.862   3.785   9.992  0.0105  0.2463  0.2715
 9388W        W52301  11.698  33.307  10.700 -0.2147 -0.2158  0.3328
 9389W        W52302  24.009  33.301   9.586 -0.4720 -0.1333 -0.2556
 9390W        W52303  12.861  30.119   5.920  0.2141  0.1413  0.0593
 9391W        W52304  23.582  23.326   5.844 -0.0135  0.0596 -0.1622
 9392W        W52305  16.764  32.444   7.552 -0.1244 -0.0192  0.2509
 9393W        W52306  11.749  30.741   7.824 -0.1349 -0.0999 -0.0303
 9394W        W52307  23.510  33.958   7.443  0.0832 -0.0496  0.2028
 9395W        W52308  21.336  27.281  29.745 -0.2123  0.1551 -0.0669
 9396W        W52309  16.929   3.633   2.964 -0.1127  0.5187 -0.1800
 9397W        W52310  13.283  34.203   2.570  0.0284  0.0528  0.0580
 9398W        W52311   1.951  27.425   9.768  0.1167 -0.0760 -0.1630
 9399W        W52312  25.815  24.188   3.888  0.1575 -0.1695  0.0033
 9400W        W52313  12.833  32.464   7.731  0.1225  0.0146 -0.2697
 9401W        W52314  21.251  15.417   9.036  0.0361 -0.1296 -0.2510
 9402W        W52315  32.714   7.532  10.912 -0.2061  0.1729  0.1467
 9403W        W52316  27.508  31.475   4.469 -0.0468  0.1338 -0.1177
 9404W        W52317  12.267   3.946   5.548  0.1446 -0.0193 -0.0614
 9405W        W52318  12.134  23.799  25.041 -0.2223  0.1590 -0.1596
 9406W        W52319  18.333  10.833   6.348 -0.1501  0.3212  0.0987
 9407W        W52320  27.883  32.566   7.252  0.0830 -0.2821 -0.0862
 9408W        W52321  16.054   2.589   9.018 -0.0693  0.1441  0.0255
 9409W        W52322   3.464   4.590   8.980  0.0631 -0.0891 -0.1417
 9410W        W52323   2.451   4.489  23.694  0.0985  0.0714  0.3947
 9411W        W52324  16.414   3.245   7.800  0.2380 -0.2385 -0.1382
 9412W        W52325  14.648  30.895   7.075 -0.0681 -0.1319  0.0860
 9413W        W52326  18.154   3.925   7.988  0.2581 -0.3029  0.1632
 9414W        W52327  17.268   3.785   6.651  0.0352 -0.1153 -0.5385
 9415W        W52328  29.866  34.094   8.781 -0.2075  0.2334  0.4678
 9416W        W52329  25.005  27.367   6.870  0.1797 -0.0096 -0.1262
 9417W        W52330  21.396  33.539   3.376  0.2148  0.0017  0.1438
 9418W        W52331  20.917  24.920  26.191 -0.0110 -0.1139 -0.3189
 9419W        W52332  18.776   5.621   7.334 -0.2602 -0.1686 -0.0208
 9420W        W52333  23.218  32.612   5.407 -0.0821 -0.1874  0.0459
 9421W        W52334  28.953  12.576   5.876 -0.2896 -0.0102  0.2706
 9422W        W52335  26.516   8.405   9.942 -0.0475 -0.1506 -0.1590
 9423W        W52336  18.267   5.805   6.425  0.1939  0.0704 -0.1410
 9424W        W52337  14.575  31.694  10.780 -0.0075 -0.1517  0.0542
 9425W        W52338  15.872   8.154   7.403  0.1838  0.3731  0.5267
 9426W        W52339  25.280  12.953   5.811 -0.2587  0.0183  0.0166
 9427W        W52340  19.430   0.304   3.159 -0.0467 -0.0715  0.2233
 9428W        W52341  20.955   1.107   2.749 -0.1320  0.0123  0.0911
 9429W        W52342  10.592  24.892   4.259 -0.0358 -0.2216 -0.0710
 9430W        W52343  14.263   1.291   9.252  0.1753 -0.0738  0.0937
 9431W        W52344   7.291  11.358   5.897  0.2504 -0.2037 -0.0422
 9432W        W52345  21.200  26.077  29.556 -0.2146  0.2285  0.1949
 9433W        W52346  19.315   0.627   0.249  0.1633  0.1371 -0.0436
 9434W        W52347  19.336  33.917   4.518  0.1192  0.1856  0.2771
 9435W        W52348  20.687   9.859  28.446 -0.0731 -0.1016 -0.2683
 9436W        W52349  13.617   7.277   4.060 -0.0410  0.2131  0.0445
 9437W        W52350  21.086  31.169   8.384 -0.1222 -0.3034 -0.1276
 9438W        W52351  17.374  33.312   5.694 -0.2840  0.3208  0.0550
 9439W        W52352  18.957  20.769   2.433 -0.1017  0.1131  0.2842
 9440W        W52353   7.859   0.130   0.791  0.1475  0.0859  0.0298
 9441W        W52354  17.318   3.208   8.862  0.1826  0.0319 -0.1152
 9442W        W52355  17.773  27.330   4.110  0.5171  0.4117 -0.2151
 9443W        W52356  15.786  10.038  29.159 -0.1549 -0.0947  0.0913
 9444W        W52357  24.596  32.603  10.098 -0.1335 -0.0336  0.0387
 9445W        W52358  19.770  32.141   8.551 -0.2492  0.1378 -0.2225
 9446W        W52359  20.365   1.697   0.362  0.2653 -0.2261  0.1636
 9447W        W52360  28.923  17.025   3.382  0.0637  0.3165  0.2380
 9448W        W52361  15.957  29.286   1.453  0.0812  0.1187 -0.1420
 9449W        W52362  13.634  27.196   2.901 -0.1704 -0.0053  0.1627
 9450W        W52363  16.782   8.777   8.411  0.0127 -0.0397  0.0294
 9451W        W52364  16.082   1.834  10.533 -0.0635  0.0641  0.0479
 9452W        W52365  33.167  26.682   2.618 -0.2177  0.3054  0.0587
 9453W        W52366  25.640  13.393   5.944  0.0961 -0.2379 -0.3128
 9454W        W52367  21.423   3.716   6.864  0.4335  0.0498  0.2364
 9455W        W52368  16.726   2.989   6.625  0.3061 -0.3112 -0.3395
 9456W        W52369  18.536   5.501   9.471  0.1847 -0.2263  0.0995
 9457W        W52370  21.049  34.014   9.316  0.0607  0.2009  0.2046
 9458W        W52371  19.176   3.163  28.760  0.3898 -0.1788  0.1500
 9459W        W52372  22.768  25.858   3.178  0.1934 -0.3146 -0.4831
 9460W        W52373  20.331   4.219   4.648  0.2294 -0.1400 -0.1387
 9461W        W52374  18.316   4.815  10.191  0.0307 -0.1649  0.1843
 9462W        W52375  20.319  22.830   0.986 -0.1455  0.3020 -0.2269
 9463W        W52376   8.279  33.997   7.224 -0.0077 -0.2626 -0.1684
 9464W        W52377  27.418  31.369   1.534  0.1098  0.1919 -0.1629
 9465W        W52378  28.786  10.311   8.219  0.1107 -0.3291 -0.0228
 9466W        W52379  21.158  31.563   6.089  0.1780  0.1338  0.3576
 9467W        W52380  20.263   0.301   7.695  0.0868  0.3666 -0.2019
 9468W        W52381  11.981  34.037  12.313 -0.0303 -0.1431 -0.1839
 9469W        W52382   8.150   6.004   8.073 -0.1566 -0.2543 -0.0431
 9470W        W52383  23.766   0.350  29.440 -0.1439 -0.2123 -0.1668
 9471W        W52384  17.224  30.986   5.457 -0.0020 -0.0091 -0.3152
 9472W        W52385  22.710   4.152   5.369  0.3315  0.0903 -0.1525
 9473W        W52386  21.172   3.759   2.977  0.1464 -0.0091 -0.1837
 9474W        W52387   8.419  32.433  19.965 -0.1205 -0.2667 -0.1438
 9475W        W52388  23.292   9.095   8.250 -0.1667 -0.1154  0.0697
 9476W        W52389   6.123  33.487  28.756 -0.0407  0.4676 -0.0743
 9477W        W52390  20.415   6.946   7.443 -0.0075  0.0608  0.3562
 9478W        W52391  22.887   6.599   8.050 -0.2789 -0.0935  0.1294
 9479W        W52392  21.081  32.720   9.478  0.4775 -0.2879  0.0117
 9480W        W52393  29.128   2.297  10.032  0.0644  0.1539 -0.1865
 9481W        W52394   8.523   8.882  10.156  0.3218  0.0837 -0.1212
 9482W        W52395  20.808   3.339   6.108  0.2161 -0.1416 -0.1011
 9483W        W52396  30.437  24.040   6.896 -0.0412  0.0903  0.2186
 9484W        W52397  18.530   8.709   8.159 -0.2670 -0.0452 -0.0037
 9485W        W52398  18.341   0.929  28.484  0.3241 -0.2344  0.0118
 9486W        W52399  18.054  30.810   6.394  0.0668  0.1267  0.1776
 9487W        W52400  26.382  19.416   1.267  0.2341  0.0751 -0.2205
 9488W        W52401  18.445  31.936   8.476  0.1009  0.1039  0.0203
 9489W        W52402  22.472   3.126   8.576  0.0425  0.1629  0.1210
 9490W        W52403  17.023   7.621   3.258 -0.0953  0.2683  0.3785
 9491W        W52404   4.961  31.320   6.394  0.0763 -0.0317 -0.3102
 9492W        W52405   0.390  12.269   7.494  0.0487  0.1340  0.1901
 9493W        W52406  18.569  31.022   1.584 -0.1590 -0.0417  0.0615
 9494W        W52407  12.534   3.653   0.827  0.1525 -0.0580 -0.0205
 9495W        W52408  10.864  34.381  22.666 -0.0142 -0.1441  0.0442
 9496W        W52409  21.863   5.113  10.018  0.1610  0.4728  0.0189
 9497W        W52410   1.788   3.395  29.728 -0.0495  0.1647  0.0231
 9498W        W52411  20.229   7.265   1.744  0.2542 -0.0786 -0.2129
 9499W        W52412  23.227  33.142   5.231  0.0618  0.2425  0.4972
 9500W        W52413  33.952   6.040   2.095  0.3340  0.0565  0.2198
 9501W        W52414  20.838  24.901  24.877 -0.2464 -0.4772 -0.0143
 9502W        W52415  18.050  33.764   8.742  0.1769 -0.0701  0.2243
 9503W        W52416  18.656   1.758  10.456  0.0752 -0.0827  0.2303
 9504W        W52417  20.352  31.011   5.544 -0.2950 -0.1749 -0.0081
 9505W        W52418  23.181   3.166   9.010 -0.0713  0.1746  0.2121
 9506W        W52419  20.646   3.242   7.984 -0.0275 -0.2739  0.0756
 9507W        W52420  17.247   4.745  10.164  0.2744  0.1627  0.1749
 9508W        W52421   4.448   1.147  12.412 -0.0770 -0.1458  0.2953
 9509W        W52422  25.249   7.612   4.584  0.1956  0.1807  0.1676
 9510W        W52423  14.114   5.941   8.217 -0.2004  0.3251  0.1558
 9511W        W52424  21.327   0.072   4.394 -0.0451  0.0163 -0.0238
 9512W        W52425  15.697   9.925   4.101 -0.1022 -0.2995 -0.3183
 9513W        W52426  11.952  14.112   8.902 -0.0012 -0.0607 -0.1013
 9514W        W52427  24.028  33.964   9.222  0.2761  0.2270  0.0188
 9515W        W52428  16.270   8.242   7.731 -0.1638  0.0849  0.0915
 9516W        W52429  21.902   4.972   8.434  0.0996  0.1666  0.0321
 9517W        W52430  27.825   2.881   5.174  0.0505 -0.0130  0.1188
 9518W        W52431  27.673   5.336   5.727  0.1900 -0.1552 -0.0140
 9519W        W52432  23.704   4.228   7.684  0.1192  0.1223 -0.1532
 9520W        W52433  18.493  31.332   2.598  0.0113 -0.0677 -0.3168
 9521W        W52434  13.215  29.865   8.265  0.0787 -0.0975 -0.1953
 9522W        W52435  17.603  27.369   0.827 -0.0205 -0.1382  0.2294
 9523W        W52436  23.017   3.506   6.129  0.0966 -0.0266  0.3405
 9524W        W52437  21.102   4.180   7.680 -0.0820  0.1617  0.1996
 9525W        W52438   5.539  29.080  29.297  0.2397  0.0384  0.1318
 9526W        W52439  21.009  34.205   6.229 -0.0065 -0.0849  0.3311
 9527W        W52440  15.088  27.365   9.438  0.0761  0.1607 -0.0817
 9528W        W52441  20.435   1.985   9.342 -0.1339 -0.0382 -0.1055
 9529W        W52442  29.310   9.647  27.751 -0.0608 -0.4269  0.3275
 9530W        W52443  12.022   8.372   9.595  0.4247 -0.0328  0.1977
 9531W        W52444  17.719  26.095  10.290  0.3883 -0.2467  0.0287
 9532W        W52445  16.572  32.361  10.289  0.0302 -0.5053 -0.2925
 9533W        W52446  11.133   7.049   1.118 -0.1082  0.1099  0.1319
 9534W        W52447  22.243   5.408   5.704 -0.0674 -0.0487 -0.0353
 9535W        W52448  12.387  31.946   9.815 -0.1469  0.0259 -0.2762
 9536W        W52449  25.350  32.971   8.539 -0.0682  0.1246 -0.2507
 9537W        W52450  33.230   3.262   8.226  0.1640  0.0385  0.1900
 9538W        W52451  27.221  31.146  27.559  0.7799 -0.1661  0.1104
 9539W        W52452  12.481  34.007   8.000 -0.1890 -0.2352  0.0669
 9540W        W52453  21.184  29.084  28.448 -0.0709  0.3782  0.1832
 9541W        W52454  21.618  28.889   8.120  0.4184 -0.0462  0.3780
 9542W        W52455  25.557  12.060  21.488  0.0241  0.0807  0.1397
 9543W        W52456  13.238   0.911  10.408 -0.3627 -0.0027  0.3681
 9544W        W52457  25.431  30.807   8.486 -0.2480  0.1002  0.3436
 9545W        W52458  13.432   6.102  11.190 -0.1591 -0.0688  0.1289
 9546W        W52459  27.965  33.763   0.499 -0.0650  0.2089 -0.0914
 9547W        W52460  34.020   3.945  10.711  0.1173  0.0131  0.4305
 9548W        W52461  18.698   1.945  17.566  0.0942  0.5121  0.0732
 9549W        W52462   8.648   7.506   4.058 -0.0973 -0.1589 -0.1264
 9550W        W52463  21.963  31.205  28.658 -0.2630 -0.3924 -0.2363
 9551W        W52464  22.300   0.161   3.350 -0.1611 -0.0607  0.3358
 9552W        W52465  13.427   6.826   8.795  0.1430  0.1616  0.1355
 9553W        W52466  28.746  33.682   6.572 -0.1244  0.1438  0.0972
 9554W        W52467  30.746  25.148   3.011 -0.1224  0.1272 -0.0569
 9555W        W52468  13.404  33.348   8.452  0.0502  0.2045 -0.1959
 9556W        W52469   2.689   1.167   6.795  0.0332 -0.0009  0.0969
 9557W        W52470  13.311  33.135   3.618 -0.1781  0.0365  0.0214
 9558W        W52471  33.486   7.200  12.185 -0.0098  0.0761  0.0031
 9559W        W52472  13.081   3.330   0.345  0.0082  0.0169 -0.2558
 9560W        W52473  22.655  12.878   6.004 -0.0501 -0.1190 -0.0088
 9561W        W52474  21.603   3.556   3.076 -0.0768  0.1338  0.0079
 9562W        W52475  16.738  32.377  29.251  0.2342 -0.1943  0.0776
 9563W        W52476  16.607  31.443   3.730 -0.1356  0.0778 -0.0897
 9564W        W52477  24.761  30.946   2.179 -0.0920  0.2179 -0.1835
 9565W        W52478  26.144   9.248   5.545  0.1361 -0.1119  0.1696
 9566W        W52479  15.984  30.625   4.788 -0.0409 -0.2691 -0.1243
 9567W        W52480  21.771  27.567   5.576  0.1203 -0.1143  0.1077
 9568W        W52481  25.842   3.303   1.715 -0.0293  0.0866  0.1176
 9569W        W52482  16.870   5.666   9.778 -0.2631  0.1614  0.4277
 9570W        W52483  18.841  32.920  10.171  0.2240  0.0447  0.3041
 9571W        W52484   3.298   3.499   6.399 -0.0317  0.1066 -0.0995
 9572W        W52485  15.185  26.352   6.448  0.0136 -0.1873 -0.1105
 9573W        W52486  11.337   4.716  10.519 -0.0184  0.1992  0.1785
 9574W        W52487  28.274  33.020  28.846 -0.2881  0.0438  0.0190
 9575W        W52488   3.378   9.222  10.001 -0.0506 -0.1532  0.2087
 9576W        W52489  18.686   1.869   9.383  0.1381  0.1287  0.1066
 9577W        W52490  14.130  27.093   8.026  0.2601 -0.0813 -0.1389
 9578W        W52491  23.091   4.876   4.893  0.0239 -0.0300  0.0781
 9579W        W52492  24.602   2.096   8.234  0.4006 -0.2232  0.0228
 9580W        W52493  29.186  33.396   6.464  0.2155  0.0123  0.1370
 9581W        W52494  16.606   1.440   5.820  0.1181  0.0991  0.1131
 9582W        W52495  18.846   5.127   7.116 -0.3328  0.0277 -0.1117
 9583W        W52496  21.231  31.909   9.526 -0.0576 -0.1617  0.2824
 9584W        W52497  24.171  33.048  29.264  0.1568 -0.2295 -0.1494
 9585W        W52498  23.164   2.748  29.277 -0.2669  0.1804 -0.2316
 9586W        W52499  21.683   5.543   4.077 -0.0830  0.0650  0.2338
 9587W        W52500  10.267  33.834  11.797 -0.3118 -0.0571  0.0646
 9588W        W52501  18.106   1.072   4.962 -0.2142  0.0931  0.1637
 9589W        W52502  13.966   3.346   6.694  0.1336  0.2187 -0.1702
 9590W        W52503  17.453   0.325   5.162 -0.1112 -0.2719  0.0567
 9591W        W52504  20.748  29.844  28.316 -0.0942 -0.0350 -0.2603
 9592W        W52505   2.186  34.476   9.707 -0.0083  0.3532 -0.1428
 9593W        W52506  19.862  19.420  29.618 -0.0569  0.0837  0.6364
 9594W        W52507  28.420   1.075   8.856  0.0006  0.3303 -0.2934
 9595W        W52508  13.619  34.485   3.860 -0.1785  0.0505 -0.2140
 9596W        W52509  20.330   0.929   7.610  0.1842 -0.1148  0.1215
 9597W        W52510  21.220  28.283   5.863 -0.0911 -0.2850 -0.0769
 9598W        W52511   3.490  30.380  10.986 -0.3337 -0.0013  0.2201
 9599W        W52512  16.544  25.511  22.147 -0.0548  0.0608 -0.0776
 9600W        W52513  18.739   4.015  28.435  0.0145 -0.0512 -0.1909
 9601W        W52514  24.694   0.871   4.760  0.2017 -0.2650 -0.0298
 9602W        W52515  25.009   6.035   7.326 -0.1687  0.2171 -0.0168
 9603W        W52516  24.936   4.955   3.035 -0.1878 -0.5357 -0.1590
 9604W        W52517  15.980   1.270   9.288 -0.0081 -0.2662  0.1325
 9605W        W52518  17.401   7.643   5.342 -0.2805  0.0267 -0.0967
 9606W        W52519  12.323   4.130   7.810 -0.0118 -0.2435  0.0604
 9607W        W52520  22.034  33.293   8.926 -0.1632  0.0968  0.4473
 9608W        W52521   8.925  25.679   1.517  0.0889  0.1080 -0.5907
 9609W        W52522  19.083  14.507   7.159  0.1964 -0.4219  0.0229
 9610W        W52523  22.904  32.489   9.628  0.2013 -0.0808  0.0181
 9611W        W52524  19.729   1.497   9.375 -0.1904  0.0866  0.2864
 9612W        W52525  33.594   4.306  10.336  0.1619  0.2897 -0.4745
 9613W        W52526  21.430  31.558   3.152 -0.3317 -0.0311  0.0952
 9614W        W52527  33.645  12.873  29.077  0.1202 -0.4914 -0.2377
 9615W        W52528  13.943  30.790   0.883 -0.1631 -0.3165 -0.2045
 9616W        W52529  19.624  34.421   6.253 -0.1445 -0.1865 -0.0686
 9617W        W52530  21.092  31.975  27.679 -0.1828 -0.1945  0.1896
 9618W        W52531  27.751   7.082   5.011 -0.1009 -0.0947 -0.1948
 9619W        W52532  16.691   2.535   5.985 -0.3506  0.0287  0.0124
 9620W        W52533  13.849  31.616  10.336 -0.3267  0.0971  0.1961
 9621W        W52534  12.205   0.961   8.864 -0.4374 -0.0334  0.0994
 9622W        W52535  13.202  26.922   9.120  0.1665  0.0627 -0.2664
 9623W        W52536  24.444  10.323   6.698 -0.1240  0.1009 -0.0839
 9624W        W52537  19.165   3.797   1.436  0.0108  0.2244 -0.0105
 9625W        W52538  16.439   6.956   6.219  0.1615 -0.0707 -0.1183
 9626W        W52539   4.444  33.882   7.224  0.0278 -0.0142 -0.1759
 9627W        W52540  26.177   1.109  29.472 -0.3654 -0.1976 -0.0162
 9628W        W52541  16.751  11.300  15.759 -0.1106 -0.0022 -0.1817
 9629W        W52542  13.473  16.386  23.591 -0.0482 -0.2888  0.0998
 9630W        W52543  20.286  12.469   7.540 -0.0524  0.3082 -0.0016
 9631W        W52544  29.474  10.247   3.899 -0.1294  0.2646  0.2095
 9632W        W52545  17.301  13.231   7.022 -0.0897  0.2074 -0.1746
 9633W        W52546  16.981   6.961  26.622  0.1326  0.2596 -0.2537
 9634W        W52547  20.342  32.075  29.596 -0.0342 -0.3505 -0.0883
 9635W        W52548  19.119  10.294   2.271  0.1332 -0.1049 -0.2459
 9636W        W52549  14.472  10.199   3.624  0.0685 -0.1360  0.0916
 9637W        W52550  20.022   8.067  29.405 -0.0287 -0.1802  0.0680
 9638W        W52551  11.864  10.478   3.889 -0.0029  0.2728 -0.1650
 9639W        W52552   3.077   2.563   7.821 -0.0560 -0.2430 -0.2161
 9640W        W52553  12.791   4.409  22.692  0.0042  0.1182 -0.0992
 9641W        W52554  14.596  32.763   5.702  0.2691  0.2664  0.3500
 9642W        W52555  19.118  27.815   5.102 -0.0251  0.3321 -0.4287
 9643W        W52556  11.318   2.173   2.846  0.1861 -0.1618 -0.0066
 9644W        W52557  13.431   1.642   3.760  0.2541  0.1807 -0.0642
 9645W        W52558  30.027   8.083   3.122  0.2690  0.1742  0.1480
 9646W        W52559   9.685  32.291   9.217 -0.2793 -0.0694  0.1902
 9647W        W52560  14.299   3.585   2.704  0.0399  0.0927  0.2157
 9648W        W52561  16.275  31.074  24.850  0.1896 -0.1803 -0.2333
 9649W        W52562  18.494   1.951   5.614  0.2316  0.1056  0.1593
 9650W        W52563  11.323   3.856  29.361  0.2736 -0.0323  0.0973
 9651W        W52564  25.892  34.263  29.205 -0.1620 -0.0997 -0.0305
 9652W        W52565  19.320   1.835  29.310 -0.1451 -0.1056  0.1071
 9653W        W52566   5.245   1.157  19.018 -0.2392  0.0752  0.0432
 9654W        W52567  24.664   1.661   4.779  0.0071  0.0469  0.0604
 9655W        W52568  19.318   5.747  23.634  0.0980 -0.0947  0.2449
 9656W        W52569  16.201  30.995  22.936 -0.1811 -0.0959  0.1977
 9657W        W52570  22.123   7.487   5.213  0.0100 -0.1115  0.2632
 9658W        W52571  13.837  10.357  26.096 -0.1412  0.2794  0.1609
 9659W        W52572  26.554  11.859  10.079 -0.2553  0.1967 -0.0340
 9660W        W52573  12.785   3.191   1.619 -0.1648 -0.1824 -0.1000
 9661W        W52574  15.364  16.222  25.105  0.0484 -0.1090  0.2904
 9662W        W52575  25.775   6.151   3.434  0.0060  0.2807 -0.2342
 9663W        W52576   1.597   7.137  11.618 -0.0360  0.1582 -0.1407
 9664W        W52577  14.840   9.200  18.923 -0.0771  0.1195  0.0832
 9665W        W52578  26.417   3.691   0.119 -0.0041  0.2967  0.1494
 9666W        W52579   9.910  16.900   3.474 -0.5698  0.1765  0.3568
 9667W        W52580   9.561  32.547  29.340  0.0661  0.1583  0.0276
 9668W        W52581  17.866   7.807  26.526  0.0968  0.2983 -0.4286
 9669W        W52582  24.768  14.552   7.158  0.2777  0.0286  0.0227
 9670W        W52583  22.822  34.369  24.398  0.1022 -0.1311 -0.1834
 9671W        W52584   5.279   2.367  28.815  0.0251  0.7410 -0.2799
 9672W        W52585  20.156  10.220  28.723  0.1226 -0.0621 -0.2651
 9673W        W52586  30.023  22.253   2.929  0.3028  0.0846 -0.2265
 9674W        W52587  15.494   4.270  18.187 -0.0268  0.0343  0.1563
 9675W        W52588  21.392  16.835   5.457 -0.2517  0.0047  0.3551
 9676W        W52589  18.451   5.481   1.426  0.2357  0.1324 -0.2343
 9677W        W52590  21.528  10.337   5.464  0.0270  0.0396  0.1854
 9678W        W52591  16.392   3.734   7.953  0.1686 -0.0343 -0.2340
 9679W        W52592  13.218   9.968  27.714  0.1314  0.2722 -0.2562
 9680W        W52593  23.981   6.114   8.622  0.3012 -0.1096  0.1583
 9681W        W52594  22.229   5.850   9.158  0.0014  0.1795 -0.0482
 9682W        W52595  26.675  31.809  20.326 -0.3971  0.1951 -0.1681
 9683W        W52596  28.950   6.952   0.384 -0.2559  0.0977  0.1508
 9684W        W52597  17.179   0.064   7.563  0.4387 -0.0203  0.1036
 9685W        W52598  24.706  16.314   5.954 -0.2730 -0.1586 -0.1679
 9686W        W52599  13.592   4.008   6.228 -0.4538 -0.0234  0.2075
 9687W        W52600  24.609   6.197   7.727 -0.1263  0.1149  0.1266
 9688W        W52601  17.011   1.671   1.920 -0.0404 -0.2536  0.0965
 9689W        W52602  11.019   7.814   3.674 -0.0966  0.2139  0.0431
 9690W        W52603  18.546  13.107   7.624 -0.0358  0.1860 -0.1390
 9691W        W52604  22.586  34.224   3.414  0.2242  0.3197  0.0610
 9692W        W52605  20.654  12.232   1.900  0.0330  0.2623  0.0972
 9693W        W52606  18.294  14.545  23.979 -0.2141  0.1059  0.1427
 9694W        W52607   7.126   1.729  26.388 -0.0441 -0.0112 -0.3565
 9695W        W52608   9.661  31.943   3.241 -0.0111  0.0206  0.1846
 9696W        W52609   8.197   6.412   9.786 -0.1846 -0.1072  0.1277
 9697W        W52610  23.990   1.573  25.881 -0.0332 -0.3034  0.0231
 9698W        W52611  19.059   8.831   2.301  0.1601  0.0038  0.2189
 9699W        W52612  31.995   2.063  12.275 -0.3606  0.2610  0.1061
 9700W        W52613  23.929   8.928  25.299 -0.3433 -0.0826  0.2595
 9701W        W52614  23.307  34.060  25.141  0.1045  0.1552  0.1659
 9702W        W52615  13.264   9.081  29.691 -0.2496  0.2056  0.0258
 9703W        W52616  28.461   8.004   6.985  0.0887  0.2070 -0.1263
 9704W        W52617  23.676   6.857   3.850  0.4785  0.1771  0.2740
 9705W        W52618  14.546   6.077   1.704 -0.1534 -0.1112 -0.1729
 9706W        W52619  21.310   1.859   8.067  0.0469 -0.0072  0.0965
 9707W        W52620  14.480  13.296  26.716 -0.0031 -0.3727  0.0126
 9708W        W52621   6.761  12.607  29.268 -0.5151  0.1266 -0.2373
 9709W        W52622  22.522   0.236   7.676 -0.1736  0.1734  0.0834
 9710W        W52623  17.237   3.451  10.140 -0.0828  0.1295  0.1031
 9711W        W52624  16.798   6.007   6.222 -0.0143  0.1325  0.1507
 9712W        W52625  20.457  13.085   5.475  0.4640  0.2888  0.0599
 9713W        W52626  24.976  12.055   1.190  0.1900  0.0695  0.4006
 9714W        W52627  18.662  32.237   4.103  0.0665  0.2199 -0.4187
 9715W        W52628  17.572  30.229   3.798 -0.3153 -0.0670  0.2685
 9716W        W52629  22.027  28.646  28.848 -0.1739  0.0749 -0.2469
 9717W        W52630  21.383   4.794  24.109 -0.0764  0.1793 -0.0406
 9718W        W52631  16.651  26.793   2.014  0.0254  0.1764  0.1317
 9719W        W52632  26.079   5.942   6.929  0.3076 -0.0124  0.0491
 9720W        W52633  15.699   4.792  11.289 -0.0295 -0.1105  0.0928
 9721W        W52634  20.463   9.776   2.869 -0.0807 -0.1164  0.2219
 9722W        W52635  33.942   8.688   7.608 -0.0421  0.1784 -0.3193
 9723W        W52636  14.767  10.983  28.851  0.0698  0.1316 -0.0194
 9724W        W52637  21.740   0.443   2.232 -0.2404  0.0653  0.1730
 9725W        W52638  14.114   7.803   5.294 -0.1278 -0.1562 -0.1419
 9726W        W52639  25.984   5.506   7.232 -0.0451 -0.0292  0.1290
 9727W        W52640  20.949  13.558  24.893  0.1614  0.0441  0.0910
 9728W        W52641  17.890  33.552  20.176 -0.0954  0.0470  0.1494
 9729W        W52642  20.926  29.519  28.737  0.0385  0.3810  0.0147
 9730W        W52643  13.637   5.928  26.703 -0.0653  0.2394  0.3462
 9731W        W52644  23.316   5.069   9.578 -0.2726  0.1894 -0.0076
 9732W        W52645  11.869  30.214  23.508  0.4173  0.2941  0.1597
 9733W        W52646  10.239   6.840  28.252  0.1534 -0.1078 -0.0210
 9734W        W52647  15.736  24.529  27.327 -0.0251 -0.2679  0.5787
 9735W        W52648  15.981  30.981   7.938 -0.0969 -0.0352  0.3308
 9736W        W52649  12.095   0.376   3.205 -0.1513  0.0460 -0.0343
 9737W        W52650  17.218  34.029   5.108  0.1261 -0.2734  0.1301
 9738W        W52651  22.251   4.044   5.723  0.0844 -0.0594  0.1824
 9739W        W52652  12.776  11.663  23.988  0.0064  0.0630  0.0429
 9740W        W52653   8.276   0.018   6.178  0.0158 -0.2814  0.2865
 9741W        W52654  12.696  22.343  23.127  0.1183  0.1174 -0.0421
 9742W        W52655  18.692  26.927   8.170 -0.4290 -0.1836  0.1269
 9743W        W52656  32.241   7.554   5.045 -0.5043 -0.1334  0.0340
 9744W        W52657  13.308   5.147  27.247 -0.0417 -0.0928  0.4289
 9745W        W52658   9.645   1.448   5.689  0.0042 -0.1458  0.1219
 9746W        W52659  20.473  33.682  23.480 -0.3248  0.0893  0.0008
 9747W        W52660  17.192   9.715   0.987 -0.0325 -0.0218 -0.0721
 9748W        W52661  17.512   1.278   4.730  0.0386  0.1239  0.1529
 9749W        W52662  32.043  31.307  26.699  0.0068 -0.0214 -0.0327
 9750W        W52663  13.661   3.310   1.063 -0.1498 -0.3119 -0.1304
 9751W        W52664  24.371   1.435  21.498 -0.4686  0.0306  0.1393
 9752W        W52665  29.194   1.552  28.305 -0.1614  0.1322 -0.0808
 9753W        W52666  16.306  11.842  28.194 -0.2201  0.2853 -0.1551
 9754W        W52667   0.652   7.677   6.712 -0.3079 -0.0975  0.0144
 9755W        W52668  14.916  33.163  11.675  0.4924 -0.0797 -0.1816
 9756W        W52669  13.506  33.105   6.015 -0.0749 -0.1535  0.0997
 9757W        W52670  23.696   2.879   0.454  0.1171 -0.0631  0.0351
 9758W        W52671  19.404  33.786   8.063 -0.1883 -0.0913  0.0521
 9759W        W52672  12.697   1.658   0.936 -0.1880 -0.0698  0.1730
 9760W        W52673  13.197  27.232   3.846 -0.0744  0.0171 -0.0549
 9761W        W52674  23.955  11.396  27.248 -0.1067  0.1970 -0.0737
 9762W        W52675  21.377  33.443   2.605 -0.0700  0.0620 -0.1583
 9763W        W52676   9.431   6.409   2.319 -0.0025  0.0634  0.0724
 9764W        W52677  31.521   5.405  24.547  0.1981  0.0977  0.2267
 9765W        W52678  22.361  30.839   7.771 -0.0973  0.2007 -0.0864
 9766W        W52679  20.185   9.771   6.081 -0.0767  0.2200  0.0905
 9767W        W52680  20.977   9.507  20.898 -0.0656  0.1317  0.0864
 9768W        W52681   8.964   8.479   2.240  0.2036  0.2651 -0.1068
 9769W        W52682  16.181   9.767   4.346  0.1879 -0.0119  0.0369
 9770W        W52683  19.208  12.331   2.282 -0.1361  0.0265 -0.3292
 9771W        W52684  28.956   9.296   8.529 -0.1156  0.1430  0.0729
 9772W        W52685  21.210   8.876   6.079 -0.1577 -0.1103 -0.0635
 9773W        W52686  21.663   2.456   8.273 -0.3342  0.1002  0.2555
 9774W        W52687  20.992   8.509   7.287  0.3663 -0.0613 -0.0539
 9775W        W52688  24.130  33.473  10.530 -0.1557 -0.2288  0.0193
 9776W        W52689  11.837   1.767   3.563  0.1375 -0.0437  0.0949
 9777W        W52690  29.424  34.446   5.813 -0.2741 -0.0510  0.3222
 9778W        W52691  18.388   4.940   5.679  0.1405  0.0221 -0.2184
 9779W        W52692  17.638   8.425  27.014  0.1023 -0.0612 -0.0093
 9780W        W52693  20.073  11.479  28.127  0.4291 -0.2348 -0.2384
 9781W        W52694  25.641  10.748  26.886  0.0118  0.3600  0.0338
 9782W        W52695  15.814  27.614  27.762  0.0419  0.0870 -0.0455
 9783W        W52696  21.862   0.299   5.849  0.0332 -0.3243  0.1798
 9784W        W52697  24.087  31.578  29.725 -0.0096 -0.0605 -0.0405
 9785W        W52698  13.732  31.520   5.081  0.0866  0.2027 -0.2203
 9786W        W52699  14.279   5.649  18.508  0.0558 -0.1354  0.2440
 9787W        W52700  29.899   3.709  27.542 -0.0945 -0.0370  0.0043
 9788W        W52701  20.163   5.076   3.432  0.5827 -0.0798  0.1612
 9789W        W52702  25.710  10.888  28.918 -0.2896  0.2842  0.3278
 9790W        W52703  20.535   4.983   9.646 -0.1266  0.1168 -0.0304
 9791W        W52704  32.364  13.750   9.478  0.2843  0.1553  0.3231
 9792W        W52705  24.096   5.236   5.129  0.0866 -0.1339  0.1458
 9793W        W52706  20.593  30.070   3.320 -0.2094  0.1142 -0.2863
 9794W        W52707  27.008  32.053   1.075  0.1012 -0.1397  0.0545
 9795W        W52708  20.873  30.053   0.603  0.1649 -0.2525  0.2126
 9796W        W52709  10.315  33.808   1.900  0.0890  0.0730  0.3506
 9797W        W52710  18.742  28.967   6.884 -0.0424 -0.0353  0.2780
 9798W        W52711  22.343   6.692   2.589 -0.0482  0.1607  0.0126
 9799W        W52712  22.163   2.016  25.771  0.0372 -0.0501 -0.0575
 9800W        W52713  22.006   9.475  23.029  0.3520  0.3296 -0.0664
 9801W        W52714  19.877  12.584  25.063  0.1575  0.0062  0.1221
 9802W        W52715  22.724   9.719   5.236  0.3705  0.2592  0.0074
 9803W        W52716  24.524  32.498   0.882  0.2853  0.1236 -0.0271
 9804W        W52717  17.510   3.829   3.908  0.0997 -0.0150 -0.3879
 9805W        W52718  19.560   8.824   3.088 -0.1010 -0.0640  0.1794
 9806W        W52719  20.994   2.594  28.134 -0.0618  0.1537  0.2517
 9807W        W52720   3.588  12.947  25.131  0.0196 -0.1272 -0.0435
 9808W        W52721  15.622  31.496   4.968  0.1457 -0.2407 -0.0124
 9809W        W52722  17.612   3.511   6.887  0.3475 -0.2754 -0.1794
 9810W        W52723  14.156   8.767   7.297 -0.2730  0.3195 -0.0546
 9811W        W52724  11.270   2.351   3.798 -0.0623 -0.0112  0.1078
 9812W        W52725  26.306   9.923  29.753 -0.3726 -0.0516 -0.1529
 9813W        W52726  22.845   1.955   1.062  0.2305 -0.0062  0.4852
 9814W        W52727  31.250   2.140   5.792  0.1399 -0.3347 -0.2678
 9815W        W52728  15.915   3.622  24.683  0.0776  0.1005 -0.2368
 9816W        W52729   9.385  34.268   6.492  0.1075  0.1374 -0.0134
 9817W        W52730  19.128  10.444  27.503 -0.0638  0.1327  0.0233
 9818W        W52731  11.987   1.844   4.604 -0.2305  0.0720 -0.0081
 9819W        W52732  10.349   2.136   9.811 -0.1097 -0.2481 -0.1333
 9820W        W52733   4.347  26.685   0.571  0.1555  0.1677 -0.0619
 9821W        W52734  10.804   9.275  28.107 -0.0042 -0.2091 -0.0533
 9822W        W52735  24.105  12.752   3.930  0.0072 -0.0419 -0.1283
 9823W        W52736  15.352   4.173   5.019 -0.1496  0.3769  0.1404
 9824W        W52737  13.283   6.486  23.459 -0.1442  0.0046  0.2172
 9825W        W52738  11.853   9.195   1.964 -0.1596 -0.0064  0.1008
 9826W        W52739   8.045   9.540   0.921  0.0153 -0.1193  0.0500
 9827W        W52740  21.210  12.262   7.326 -0.2641 -0.0517 -0.0569
 9828W        W52741  12.540   8.294   6.447  0.1863 -0.1642  0.1589
 9829W        W52742  16.653  30.245   3.490  0.0898  0.1351 -0.1245
 9830W        W52743  22.844   2.755   0.805 -0.0711  0.0941 -0.2524
 9831W        W52744  19.178   3.920  23.176  0.0453  0.0192  0.2609
 9832W        W52745  30.677   8.996   8.191  0.1290  0.1036  0.0050
 9833W        W52746  13.143   3.396   0.902  0.3561  0.0718 -0.2293
 9834W        W52747  21.192  11.778   8.331  0.1101  0.0843 -0.1180
 9835W        W52748  12.666   6.642  19.898  0.0336 -0.0210 -0.0995
 9836W        W52749  11.166   4.734   6.064  0.4250  0.0406  0.3919
 9837W        W52750  30.478   5.995   3.718  0.1193  0.0465 -0.2901
 9838W        W52751  20.801   0.883  23.763  0.1506 -0.2763 -0.0437
 9839W        W52752  15.300   0.719  24.921 -0.0255 -0.4170  0.3418
 9840W        W52753  22.726  14.046  28.671 -0.1132 -0.3138  0.0972
 9841W        W52754  15.703   2.099  25.984  0.2002  0.2222 -0.0671
 9842W        W52755  10.767   3.989   1.998  0.1958 -0.0558 -0.3400
 9843W        W52756   8.997  26.381  25.164  0.0367  0.2662  0.2399
 9844W        W52757  11.982   4.264   3.782  0.1931 -0.0072  0.1842
 9845W        W52758  26.115   3.498   8.098 -0.2789  0.3219  0.2257
 9846W        W52759  10.669   7.666   4.185 -0.0424  0.1431  0.0812
 9847W        W52760  15.319   6.551   0.163  0.0078 -0.1573 -0.0295
 9848W        W52761   9.427   7.216  12.400 -0.0219 -0.0716  0.1038
 9849W        W52762  24.637  34.260   4.254  0.0719  0.1565 -0.0579
 9850W        W52763  21.357   2.460  27.154 -0.0843  0.0268 -0.1429
 9851W        W52764  10.583  23.596   5.474  0.1065 -0.0791  0.0483
 9852W        W52765  21.920   2.934  20.905 -0.4204 -0.0425  0.0796
 9853W        W52766  14.586  31.445   0.789  0.2905  0.1119  0.0674
 9854W        W52767  16.914  28.440   3.886  0.4685 -0.3039 -0.1129
 9855W        W52768  24.598   5.420   8.359 -0.0978 -0.3089  0.0193
 9856W        W52769  19.418   2.105   3.316  0.0129 -0.1851  0.1598
 9857W        W52770  10.657  27.975  27.363 -0.2632  0.0397  0.0888
 9858W        W52771  19.227   4.999   4.489  0.1765 -0.1536 -0.0486
 9859W        W52772  21.863  32.978   4.643  0.0165 -0.4224  0.0162
 9860W        W52773  17.300  33.294   0.613 -0.0589 -0.1267 -0.2150
 9861W        W52774  25.664   0.193   7.291 -0.2032 -0.0088 -0.1621
 9862W        W52775  20.310  32.577  28.891  0.0125  0.0867 -0.1132
 9863W        W52776   4.799   4.885   7.331 -0.0317 -0.0850  0.1351
 9864W        W52777  15.226   1.080   9.935  0.0320  0.0950  0.1542
 9865W        W52778  11.716   0.415   5.967  0.2747 -0.0123  0.0614
 9866W        W52779  17.262   5.077   1.982 -0.1100  0.0970 -0.1459
 9867W        W52780  18.221   7.596   9.157 -0.0931 -0.1283  0.0158
 9868W        W52781   4.693   2.604  25.744 -0.1299 -0.0273 -0.1514
 9869W        W52782  19.602  18.583   5.663  0.0130 -0.0153 -0.1073
 9870W        W52783  27.748  33.059   7.423 -0.2923  0.0909 -0.0928
 9871W        W52784  18.210  31.681   6.654 -0.1419 -0.2370  0.0540
 9872W        W52785  19.462  32.264  26.751  0.0979  0.1170 -0.0485
 9873W        W52786  25.413   1.322  18.537 -0.2892 -0.1772  0.0588
 9874W        W52787  26.457  32.990  29.778  0.0474 -0.1283  0.1370
 9875W        W52788  23.889   5.122  29.101  0.2484  0.0908  0.0460
 9876W        W52789  16.723   3.979   5.710  0.3122  0.1737 -0.1368
 9877W        W52790  23.572   6.559   6.040 -0.0067  0.0621 -0.1693
 9878W        W52791  11.366   7.233  29.073  0.1480 -0.2101  0.1060
 9879W        W52792  16.063  33.657   5.221  0.1750 -0.1370  0.0916
 9880W        W52793  15.131   4.011   1.682  0.2327 -0.1100  0.4144
 9881W        W52794  13.119   7.586  24.366  0.2641 -0.1679  0.1051
 9882W        W52795   7.077   0.348   0.625 -0.1944 -0.0896  0.2244
 9883W        W52796  29.164   5.009  26.964 -0.2102  0.0075  0.0590
 9884W        W52797  18.637  32.370   9.217  0.3294 -0.1024 -0.2806
 9885W        W52798  16.391  30.223  29.134 -0.0496 -0.0124  0.0709
 9886W        W52799  19.378   2.505   4.885  0.1054  0.2922 -0.1607
 9887W        W52800   7.647   7.904   9.359  0.1099  0.3969 -0.1266
 9888W        W52801  21.578   5.512   7.924  0.1266  0.1062  0.3784
 9889W        W52802  18.091   2.041   8.785  0.0276 -0.0036 -0.0291
 9890W        W52803  23.329  29.958   3.328  0.0711 -0.1146  0.2279
 9891W        W52804  32.322   6.650   4.745 -0.1401  0.0723 -0.6116
 9892W        W52805   6.897   6.651  29.070  0.1356  0.2212  0.0877
 9893W        W52806  21.956   7.753  28.925  0.0628  0.0469 -0.1117
 9894W        W52807  21.579   6.305   0.861 -0.0973 -0.0613  0.0403
 9895W        W52808  20.481  31.715  25.528 -0.2047 -0.0454  0.1069
 9896W        W52809  13.300  25.496   5.670  0.2812  0.2817 -0.0865
 9897W        W52810   8.518   0.562   6.753  0.1214  0.0278 -0.3530
 9898W        W52811   1.890  31.461   5.777 -0.0996 -0.0345 -0.0061
 9899W        W52812  13.986  26.684   5.752  0.4235 -0.1094 -0.0189
 9900W        W52813  19.301   3.862  19.042 -0.1016 -0.0944 -0.1238
 9901W        W52814  24.283   5.421   0.724  0.2591 -0.1044  0.1305
 9902W        W52815  14.930   4.670   3.946 -0.1077  0.2835 -0.1514
 9903W        W52816  22.416  10.062  27.237 -0.3281  0.4219 -0.0853
 9904W        W52817  20.684   5.563  20.265 -0.2265  0.0322  0.1230
 9905W        W52818  18.306  30.107   8.916 -0.0951  0.1963 -0.0656
 9906W        W52819  21.609   6.886  29.150  0.1697  0.1477  0.0357
 9907W        W52820  12.922   6.563  26.929  0.2413 -0.2666 -0.0242
 9908W        W52821  18.175   6.822   9.684 -0.0930 -0.3095 -0.1815
 9909W        W52822  16.299  10.542   7.129 -0.1474  0.3584 -0.0534
 9910W        W52823  26.461  10.208   7.052  0.0820 -0.0617 -0.3397
 9911W        W52824  11.906   8.026   3.353  0.0737  0.4116 -0.2696
 9912W        W52825  17.474  10.064  20.137 -0.1707 -0.1453  0.3487
 9913W        W52826  31.942   9.052   2.512  0.1266  0.1259 -0.1018
 9914W        W52827  18.787  11.145  27.176 -0.1820  0.0083  0.1438
 9915W        W52828  27.534   7.892   0.308  0.3466  0.2714 -0.0368
 9916W        W52829  25.900  11.957   6.686  0.0151  0.1337 -0.1980
 9917W        W52830  20.142   8.097  27.590 -0.1113 -0.0355 -0.0303
 9918W        W52831  12.692   1.933  24.457  0.6137  0.2427  0.0998
 9919W        W52832  24.828  12.518   4.463 -0.0441 -0.2654  0.0698
 9920W        W52833  18.441  28.823  28.858 -0.2391 -0.0299 -0.0779
 9921W        W52834  28.344   9.842  24.470 -0.1572 -0.1875  0.1018
 9922W        W52835  16.672   7.745  27.140 -0.2038 -0.4040 -0.1937
 9923W        W52836  34.392   2.042  24.117  0.2983 -0.3043  0.1423
 9924W        W52837   9.010  11.981  17.839  0.0977  0.3037  0.1239
 9925W        W52838  18.185  16.506   0.631 -0.2301  0.0175  0.2406
 9926W        W52839   7.944   4.107   4.195 -0.1642 -0.1977  0.1044
 9927W        W52840   9.436  30.523   9.828  0.0621 -0.0954  0.0008
 9928W        W52841  20.494  21.540   2.170  0.1611 -0.0379  0.2840
 9929W        W52842  25.222  11.349   5.962 -0.0877  0.1875  0.0799
 9930W        W52843  23.234  30.722  23.727  0.0647  0.1077 -0.1333
 9931W        W52844  27.077  30.397   0.432 -0.1786 -0.3601 -0.2018
 9932W        W52845  23.758   9.698  26.580 -0.0306 -0.3592 -0.0544
 9933W        W52846  10.221  30.812  22.143 -0.0799  0.0967  0.1681
 9934W        W52847  23.988  31.406   3.968  0.0443 -0.2355  0.2255
 9935W        W52848  12.778   5.994   5.811  0.2278  0.1944  0.1186
 9936W        W52849  13.648   3.849   7.389 -0.4021 -0.2094 -0.2995
 9937W        W52850  32.615   6.394  19.421 -0.3810 -0.0811  0.2215
 9938W        W52851  14.836   7.741  28.297 -0.1645 -0.1466 -0.2723
 9939W        W52852  24.368   0.424   3.542  0.1649 -0.3401 -0.0149
 9940W        W52853  13.105   5.837  20.374 -0.0562  0.0273 -0.0848
 9941W        W52854  21.772   5.248   1.758 -0.0731 -0.1623  0.0407
 9942W        W52855  20.351  16.253   0.298 -0.2597 -0.1636 -0.0461
 9943W        W52856  19.784  10.790   2.069  0.0284 -0.2323 -0.2757
 9944W        W52857  24.179   2.286   4.222  0.2201  0.1984 -0.5222
 9945W        W52858   6.384   4.656   3.048 -0.1275 -0.0369 -0.0309
 9946W        W52859  22.705   8.916   3.714 -0.0015 -0.3058 -0.0959
 9947W        W52860  22.309   4.961  27.571  0.2593  0.0164  0.2947
 9948W        W52861  21.838   9.174  27.277 -0.0275 -0.2660 -0.1953
 9949W        W52862  21.364   4.093  28.322 -0.3241  0.1056 -0.0489
 9950W        W52863  16.566  10.158   4.364  0.1727  0.1175  0.2150
 9951W        W52864  22.325  33.110  29.437  0.1421 -0.0668  0.0088
 9952W        W52865  27.076  15.335  24.382 -0.2384  0.1087  0.0833
 9953W        W52866  17.599  11.227  20.841 -0.2499  0.0054  0.1516
 9954W        W52867  25.254   3.984  23.260  0.1125 -0.0845 -0.0581
 9955W        W52868   0.224  13.146  26.252 -0.1401 -0.3045  0.3483
 9956W        W52869  15.625   9.925  25.694  0.0293 -0.0702  0.0267
 9957W        W52870  26.984   3.421   0.785 -0.0899 -0.1845 -0.1096
 9958W        W52871  21.024  30.994   4.396 -0.1784  0.0062  0.0789
 9959W        W52872  19.121  17.552  24.519 -0.1286  0.2339  0.1900
 9960W        W52873   7.892   2.125   2.299  0.0707 -0.1558 -0.2678
 9961W        W52874  23.146   2.395   1.113  0.1869  0.2854  0.1604
 9962W        W52875  11.738   1.143  11.260  0.0309  0.0324 -0.1833
 9963W        W52876   8.828  32.172   3.796 -0.0061  0.0315 -0.0106
 9964W        W52877  24.650   8.934   4.041  0.1260 -0.2550  0.0359
 9965W        W52878  11.831  32.476   0.983 -0.0014 -0.0896  0.2236
 9966W        W52879  24.181   8.098   8.287 -0.0927 -0.0983 -0.0992
 9967W        W52880  27.215   5.374   6.968  0.2356 -0.0713  0.1249
 9968W        W52881  19.774  33.524   6.722 -0.0437 -0.0270 -0.0798
 9969W        W52882  33.966   9.112   1.284  0.0238 -0.1400 -0.2044
 9970W        W52883  19.406   6.462   0.286 -0.0150  0.4406 -0.2153
 9971W        W52884  24.603   1.936   0.517 -0.0299  0.0676  0.0829
 9972W        W52885  11.321   3.235   0.513 -0.0152 -0.3119  0.3305
 9973W        W52886  26.158  15.679   3.096 -0.3837 -0.0190  0.0961
 9974W        W52887  13.703  12.039  28.806 -0.1394  0.2816  0.2173
 9975W        W52888  17.947  11.442   3.261 -0.0253  0.1593  0.2498
 9976W        W52889  20.690   8.265   9.103  0.0851  0.1720 -0.3472
 9977W        W52890  26.467  24.695   3.136  0.0129 -0.0124  0.1987
 9978W        W52891  23.254  30.926   6.848 -0.0187  0.0303 -0.1546
 9979W        W52892  11.881  16.050   3.994  0.0412  0.0859 -0.2611
 9980W        W52893  25.467   9.724   8.549 -0.1261 -0.0899  0.0056
 9981W        W52894  22.837   7.181   3.452  0.0549 -0.0696  0.0796
 9982W        W52895  22.833   8.389   2.375 -0.1454 -0.1413 -0.2271
 9983W        W52896   7.742  33.444  24.232  0.4944 -0.0022  0.1450
 9984W        W52897  23.039   6.967   7.477 -0.3919 -0.1704  0.0323
 9985W        W52898  18.079   6.893   1.263  0.0545  0.0255 -0.1827
 9986W        W52899  18.828   5.852   9.160 -0.1603  0.1214 -0.1360
 9987W        W52900  29.585  17.993   4.348 -0.2032 -0.1345 -0.0235
 9988W        W52901  25.871   4.601  28.551 -0.2190  0.1134  0.2083
 9989W        W52902  19.413  14.876   6.433 -0.2255  0.0360 -0.3442
 9990W        W52903  11.595  13.283   9.828  0.0562  0.1541  0.4098
 9991W        W52904  17.339  32.989   4.500  0.0470 -0.2123 -0.0401
 9992W        W52905  19.562   3.328   2.965  0.0535 -0.1352 -0.0091
 9993W        W52906  11.418  10.111  29.119  0.1400 -0.0642 -0.0717
 9994W        W52907  15.395  31.020   3.671 -0.1275  0.1244 -0.3219
 9995W        W52908  23.496  11.287   7.801 -0.2005 -0.1935  0.2579
 9996W        W52909  16.455   4.321  10.351  0.0229  0.0068 -0.2738
 9997W        W52910   9.246   1.926   8.917 -0.5523  0.0074 -0.0470
 9998W        W52911  17.690   7.874  16.032  0.1396  0.3316 -0.1061
 9999W        W52912  13.752   2.045   0.967 -0.1770  0.2902  0.1242
10000W        W52913  13.719   1.475  29.633 -0.1627 -0.0267 -0.0836
10001W        W52914  24.334  32.801  26.769 -0.1747  0.0120  0.1231
10002W        W52915  18.869   3.308  22.842 -0.2617 -0.1171  0.0518
10003W        W52916  15.445  10.587  22.093  0.0161 -0.2688 -0.2942
10004W        W52917  19.393  11.841   3.675 -0.1213  0.0767 -0.1228
10005W        W52918  21.936   1.872  22.291  0.1089  0.1914 -0.3231
10006W        W52919  22.420   4.443   7.922  0.1310 -0.0627  0.1790
10007W        W52920  20.048  11.208   4.872 -0.1697 -0.0178 -0.4904
10008W        W52921  25.430  31.102  17.807 -0.4290 -0.2120  0.0436
10009W        W52922  21.448  17.180  20.640  0.0478 -0.0448  0.0236
10010W        W52923  13.972  31.826   6.398  0.0995  0.1508  0.1148
10011W        W52924  20.609  28.317   4.249  0.0856  0.0913  0.0209
10012W        W52925  24.715   3.409   1.014 -0.1725 -0.1956 -0.2678
10013W        W52926  22.460  14.135  27.847  0.0470 -0.0664  0.4204
10014W        W52927  14.913   9.734  29.053 -0.0772 -0.1870 -0.1887
10015W        W52928  20.288   1.193   3.170  0.0605 -0.0548 -0.0975
10016W        W52929   8.101  31.835   3.114 -0.1119 -0.0057  0.1318
10017W        W52930  26.633  14.235   1.052 -0.2622  0.1301 -0.1727
10018W        W52931  19.506   8.803  23.976 -0.0812  0.1561 -0.0269
10019W        W52932  16.815  11.005   2.701 -0.0147  0.2229  0.0075
10020W        W52933  16.749   8.966   4.039  0.0410 -0.3031  0.0251
10021W        W52934  16.963  14.089  23.779 -0.0829 -0.2143 -0.2138
10022W        W52935  19.306  34.253  28.962 -0.2006 -0.0743 -0.2885
10023W        W52936  19.233   5.446   2.227 -0.0978  0.1167 -0.2503
10024W        W52937  24.503   2.382   5.418 -0.1814  0.0405 -0.1102
10025W        W52938  14.009   2.632  25.538  0.1873  0.3503 -0.1547
10026W        W52939  20.069  10.683   7.256  0.1554 -0.0941  0.1870
10027W        W52940  22.940   6.493   4.796  0.0289 -0.0623 -0.5550
10028W        W52941  16.197  11.513   6.029  0.0174  0.1133  0.0580
10029W        W52942  18.176  11.674   5.981  0.0504  0.0383 -0.2992
10030W        W52943  11.616   6.191   3.541  0.1250 -0.2130  0.0086
10031W        W52944  32.130  13.714   7.909  0.1929  0.0857  0.2599
10032W        W52945   4.591  33.683  26.799  0.1547 -0.0348  0.1406
10033W        W52946  17.668   9.913   8.049  0.0779  0.1532  0.0497
10034W        W52947  24.336   0.494   7.719  0.0043 -0.0724  0.1958
10035W        W52948  32.913  11.781   7.255 -0.3748 -0.2632 -0.0700
10036W        W52949  31.715   7.010  29.211 -0.0305  0.1844  0.0210
10037W        W52950  18.068   2.983   8.527 -0.0819 -0.0203 -0.0495
10038W        W52951  17.424  33.850   5.651 -0.1638 -0.1162 -0.2334
10039W        W52952  12.258   8.954   1.975  0.1973 -0.4118 -0.0176
10040W        W52953  20.360   8.868   6.209  0.0063  0.0561 -0.0825
10041W        W52954  23.111  31.320   3.444  0.0169 -0.0177 -0.2323
10042W        W52955  18.817   7.369   3.313 -0.1527  0.1757 -0.1352
10043W        W52956  22.413  10.573   4.395  0.0793  0.1243 -0.2709
10044W        W52957  13.272  15.283   9.110 -0.1553  0.0784 -0.1194
10045W        W52958  19.334   6.367   8.602  0.1029  0.0828 -0.1467
10046W        W52959  19.902   8.391   5.497  0.1041  0.3929  0.0317
10047W        W52960  19.553   4.880   7.411 -0.3067  0.3314  0.0908
10048W        W52961  21.712   2.683   6.589  0.0986  0.1545  0.0416
10049W        W52962  28.421   5.635   3.296  0.3829  0.1229  0.0703
10050W        W52963  24.704  27.392   8.037 -0.1828  0.1245 -0.0645
10051W        W52964  17.057   9.939   8.991  0.1795 -0.2739  0.0787
10052W        W52965  10.116   5.366  10.387  0.1204 -0.2339  0.0145
10053W        W52966  17.842  34.324   8.134  0.0714 -0.1689  0.0245
10054W        W52967  24.578   7.676   8.439  0.0434 -0.3061  0.1862
10055W        W52968  20.515   5.368   3.225 -0.1205  0.2083  0.2417
10056W        W52969   4.518   5.430  25.943  0.0314  0.1759  0.1384
10057W        W52970  21.772   2.043   7.308 -0.0992  0.2571 -0.3676
10058W        W52971  26.748  13.062  28.694 -0.0035  0.1972  0.0439
10059W        W52972  21.462  17.580   6.580  0.1843  0.0336 -0.1029
10060W        W52973  17.271  26.742   4.929 -0.2937  0.2846 -0.0490
10061W        W52974  26.089   9.471   6.288 -0.0695 -0.2357 -0.3476
10062W        W52975  16.712   9.045   6.471  0.0617  0.0623  0.2080
10063W        W52976  15.548   1.218  10.455 -0.1180 -0.2679  0.0673
10064W        W52977  10.968   6.941   3.813 -0.3153 -0.0265  0.1806
10065W        W52978  14.227  30.992  24.423  0.3313 -0.1117 -0.0726
10066W        W52979  30.650   3.770  27.176  0.0186 -0.0010 -0.2052
10067W        W52980  14.013   3.796   6.364  0.0047  0.2321 -0.2040
10068W        W52981  13.057   3.125  25.367 -0.2603  0.0185  0.0716
10069W        W52982  19.267  19.441  29.144 -0.2725  0.0972 -0.0588
10070W        W52983  25.315  24.623   4.226 -0.1702 -0.0677  0.1648
10071W        W52984  13.040   2.440   0.858 -0.2314 -0.0318  0.1727
10072W        W52985   6.191   5.093   1.160 -0.1302 -0.2580 -0.1755
10073W        W52986  17.239  14.312   7.554  0.0823  0.0359  0.1619
10074W        W52987  27.291   6.391   7.922 -0.0291 -0.2969 -0.0929
10075W        W52988  25.078   9.378  28.576  0.1088 -0.1020 -0.2760
10076W        W52989  20.664   3.460   1.078 -0.2353 -0.2268  0.1724
10077W        W52990  23.496   6.330   2.663  0.0091 -0.2439  0.3016
10078W        W52991  12.368   5.765   1.670  0.2903  0.1701 -0.1983
10079W        W52992  19.179  17.003  27.933 -0.2559 -0.1188 -0.1173
10080W        W52993   8.764   0.959   7.703 -0.0202  0.3788  0.1882
10081W        W52994   6.091   6.020  13.197  0.1115  0.0013  0.0482
10082W        W52995   9.027  10.966   3.148  0.0309  0.1504 -0.1864
10083W        W52996  20.184   7.936   4.142  0.0939  0.2888 -0.0917
10084W        W52997  16.640  33.833   9.123 -0.0722 -0.1669  0.0160
10085W        W52998   1.967   2.252   0.180 -0.2710  0.0955  0.0908
10086W        W52999  23.705   9.444   6.768  0.2461  0.2728 -0.2049
10087W        W53000  10.824  13.841   1.407 -0.1040 -0.0143  0.1269
10088W        W53001  16.638   5.573  27.668  0.0267  0.1668  0.3356
10089W        W53002  19.390  10.932   0.595 -0.0736 -0.0095  0.0042
10090W        W53003  26.689   8.040   4.805  0.2103 -0.1938  0.2433
10091W        W53004  19.210   6.813   6.888  0.0020  0.0850  0.0917
10092W        W53005  11.235  29.564  10.750 -0.0379  0.2123 -0.1010
10093W        W53006  27.147   9.639   5.393  0.0994 -0.0479  0.1414
10094W        W53007   7.324   5.602  10.841  0.2212  0.0412 -0.1573
10095W        W53008  17.650   1.038   8.143 -0.2225 -0.1385  0.2093
10096W        W53009  16.566   1.874   8.626  0.0232  0.3367  0.1948
10097W        W53010  20.627   2.368  22.868 -0.1502  0.2967  0.0786
10098W        W53011  20.795   1.761   7.859  0.3572  0.2784 -0.0073
10099W        W53012  24.667  28.767   1.354  0.0823  0.2357  0.3149
10100W        W53013  26.818  32.709  23.332  0.3921 -0.0779 -0.1337
10101W        W53014  27.489   7.430   8.921  0.0774 -0.2658 -0.1201
10102W        W53015  13.640  12.372   4.694  0.1254  0.2700  0.0059
10103W        W53016  27.766   4.694   9.763 -0.0065 -0.1288  0.0720
10104W        W53017  21.401  34.305  26.431 -0.0085 -0.0488 -0.2006
10105W        W53018  15.315   4.366  21.122 -0.2687  0.0400 -0.2648
10106W        W53019  18.076  30.961   7.588  0.3576 -0.0835  0.0547
10107W        W53020  23.543  15.343   8.038 -0.0122 -0.1993  0.0424
10108W        W53021  16.948  12.111   6.212 -0.0540 -0.0421 -0.0477
10109W        W53022  20.258   0.735   1.955  0.0434 -0.1044  0.2126
10110W        W53023  17.925  27.707   9.783 -0.0135  0.0624 -0.2154
10111W        W53024  16.713   5.474   7.061  0.0770 -0.2116 -0.0261
10112W        W53025  18.266  34.101   6.871  0.2543 -0.2487 -0.0710
10113W        W53026  34.280   7.712   5.496 -0.1959  0.1050  0.1017
10114W        W53027  28.676   8.488  29.617 -0.2824 -0.1789 -0.1798
10115W        W53028  18.943   0.308  28.376 -0.2748  0.4166  0.0817
10116W        W53029  12.355  12.940  29.264  0.1035 -0.1633 -0.1239
10117W        W53030  26.576   6.348   8.598  0.0858 -0.1389  0.0762
10118W        W53031  20.478  34.345   4.012  0.3276  0.4272  0.1694
10119W        W53032  32.813   4.908   0.862  0.1122 -0.3107 -0.1637
10120W        W53033   9.571  29.458  10.385 -0.0357 -0.0287 -0.1987
10121W        W53034  16.562   5.908   8.119  0.1402  0.2767  0.1987
10122W        W53035  19.338   3.810   6.580 -0.1139 -0.0043  0.0328
10123W        W53036   6.542   7.156   9.922 -0.0978 -0.1527  0.1040
10124W        W53037  22.367   7.784  28.671 -0.0145  0.1788 -0.1286
10125W        W53038  31.228   2.635   5.921  0.2310 -0.2429 -0.1409
10126W        W53039  23.350  34.137   3.024 -0.1979 -0.1736 -0.1966
10127W        W53040  22.822   6.570  25.745 -0.2866 -0.1510 -0.1380
10128W        W53041  22.376   7.287   1.710 -0.0868  0.3735 -0.0532
10129W        W53042  23.345   5.408   5.071 -0.0391  0.2979 -0.2015
10130W        W53043  20.186  11.684  28.550  0.1228 -0.1513 -0.1527
10131W        W53044  16.784   3.189   0.947  0.1215 -0.1182  0.0324
10132W        W53045  22.977   8.817   5.650  0.1194  0.0159 -0.0458
10133W        W53046  16.777   6.824   7.552 -0.2791 -0.0450  0.0144
10134W        W53047  14.326   8.416   1.281 -0.3441 -0.1109  0.0624
10135W        W53048  16.401  14.015   7.916  0.1807  0.0306 -0.2440
10136W        W53049  21.558   1.926   5.509  0.3544  0.1040  0.1037
10137W        W53050  14.160  26.320   4.477 -0.1743  0.3600 -0.0049
10138W        W53051  28.214   4.096   5.724  0.1911 -0.0303  0.0597
10139W        W53052  26.881   3.985   8.828  0.0435 -0.2159 -0.1517
10140W        W53053  17.522   0.288  29.624 -0.1287  0.2580 -0.0701
10141W        W53054  20.502  33.488   8.180  0.2487  0.1469  0.0898
10142W        W53055  28.419   4.140   1.011  0.0178 -0.1248 -0.1691
10143W        W53056  18.782   3.443   6.691 -0.3011  0.1220  0.0790
10144W        W53057  16.634   0.029   1.289 -0.0195 -0.2534 -0.2779
10145W        W53058  21.644   7.084   4.963 -0.0189 -0.0935  0.0637
10146W        W53059  22.756   1.630   6.540 -0.1481 -0.2231  0.2460
10147W        W53060  23.574   7.581   1.867  0.0920  0.0210  0.2460
10148W        W53061  11.181  14.119   6.328 -0.1028 -0.2362 -0.1760
10149W        W53062  18.048   6.939  26.998  0.1059 -0.0803  0.0327
10150W        W53063  30.140   8.072  10.048 -0.3297  0.2771 -0.2502
10151W        W53064  25.713   5.217   8.015 -0.1223 -0.0115  0.0157
10152W        W53065  29.679  12.557  26.532  0.1289 -0.1676  0.0679
10153W        W53066  29.737   4.835   3.973 -0.0443 -0.1281 -0.1459
10154W        W53067  13.824  33.174   8.244 -0.2287  0.3703 -0.1599
10155W        W53068  26.269   8.590   4.839 -0.0565 -0.1931  0.0452
10156W        W53069  25.807  12.950   8.790 -0.1214  0.0268 -0.1539
10157W        W53070  19.287  14.519   5.787  0.0428  0.0965 -0.0195
10158W        W53071  22.855  34.362   4.768  0.1038  0.1926  0.3911
10159W        W53072  21.964   1.125   8.492  0.1104  0.1797 -0.2326
10160W        W53073  27.199   6.683   6.673  0.0082  0.3207  0.0362
10161W        W53074  18.633   1.953  29.311  0.2199 -0.1607 -0.2480
10162W        W53075  21.329   1.111   7.860 -0.0467  0.1559 -0.0462
10163W        W53076  19.818   6.009   1.882 -0.0652 -0.3227 -0.1094
10164W        W53077  21.377  30.984   9.116  0.0997 -0.4554  0.1902
10165W        W53078   7.203   1.765  10.104  0.0599 -0.0043  0.3276
10166W        W53079  33.502   9.365  27.004 -0.0081  0.0129  0.1847
10167W        W53080  12.739   1.384   0.425 -0.3575  0.0741  0.0037
10168W        W53081  21.321   2.394  26.516  0.1257  0.0875 -0.2008
10169W        W53082  20.440  11.757   1.081 -0.4412  0.0004  0.0154
10170W        W53083  18.741   4.148   9.192 -0.0429 -0.0677 -0.1632
10171W        W53084  17.734  17.971  28.370  0.2622 -0.1150  0.2528
10172W        W53085  33.849  11.466   5.446 -0.0871  0.1134 -0.3286
10173W        W53086  18.843  33.611  25.622  0.0129  0.0828 -0.2486
10174W        W53087  22.767   5.358   5.647  0.2373  0.0346  0.2674
10175W        W53088  29.224  11.375   8.113 -0.5099 -0.2259  0.2515
10176W        W53089  26.869  18.132   7.573  0.0085  0.1562 -0.1317
10177W        W53090  13.800   8.035   8.764 -0.2835  0.0684  0.1013
10178W        W53091  15.896   3.328  18.517 -0.2151 -0.0101  0.2023
10179W        W53092  27.039   9.491  27.017  0.0527 -0.2563  0.0819
10180W        W53093  18.364   1.516   6.378 -0.0668 -0.4681  0.1441
10181W        W53094  15.238   0.864   2.246 -0.1888 -0.0243 -0.1390
10182W        W53095  19.419   0.754   8.564  0.0228 -0.0106 -0.0925
10183W        W53096  16.103   7.559  29.256 -0.1729  0.3103  0.2587
10184W        W53097  10.917   7.725  29.167  0.2298 -0.2661  0.0965
10185W        W53098  20.812  10.629  23.724  0.2075  0.0077 -0.1928
10186W        W53099  15.940  33.895   9.630  0.1531 -0.2781  0.1943
10187W        W53100  31.479   4.692   2.931 -0.0761 -0.3310 -0.3483
10188W        W53101  12.094  12.429   8.738 -0.6919  0.0196  0.1821
10189W        W53102  21.969  30.806   8.585 -0.1723  0.1938  0.3008
10190W        W53103  13.509  32.595  26.880  0.0027  0.1012  0.1486
10191W        W53104  33.604  29.539   4.857  0.0718  0.1053  0.2551
10192W        W53105  24.882   5.879  10.157 -0.1785 -0.1001  0.2467
10193W        W53106  28.770  31.448   6.680 -0.2621  0.2323 -0.1159
10194W        W53107  13.740   6.038  28.715  0.0314  0.2073  0.1740
10195W        W53108  13.659  10.808   3.886 -0.2323 -0.0867 -0.0972
10196W        W53109  22.814   0.801   5.574 -0.1134 -0.1030 -0.3526
10197W        W53110  28.074  13.750  29.407  0.0508 -0.1368  0.5141
10198W        W53111  19.280   5.025   1.182  0.0890 -0.3207 -0.1125
10199W        W53112   7.386   4.893   6.752  0.0848  0.1588  0.4650
10200W        W53113  15.106   2.223  27.757 -0.2027 -0.2510  0.0757
10201W        W53114  21.269   1.898   7.059 -0.3485  0.0090  0.0530
10202W        W53115  23.154   6.732   9.366  0.2121  0.0215  0.2009
10203W        W53116   1.061   5.607   8.790 -0.0482 -0.2592 -0.0067
10204W        W53117   7.628   0.294   8.390 -0.2611  0.0906 -0.2737
10205W        W53118  15.709   3.906   5.369 -0.4346 -0.2847  0.1585
10206W        W53119  10.786  31.927   5.986 -0.2032  0.0290 -0.1528
10207W        W53120  11.743  13.597  28.822  0.1297 -0.1452  0.2740
10208W        W53121  24.869   9.646   9.062 -0.0561  0.0206  0.1716
10209W        W53122  13.405  34.090  27.471 -0.0572 -0.0458 -0.0215
10210W        W53123  20.191  12.167   7.140  0.0179 -0.2229  0.1050
10211W        W53124  17.790  10.439   5.407 -0.0367 -0.2871 -0.2023
10212W        W53125   9.792   8.585  22.584 -0.1207  0.1128 -0.2013
10213W        W53126   1.057  28.687  28.104 -0.3718 -0.1737  0.1229
10214W        W53127  10.118  33.682   7.113 -0.0914 -0.0674 -0.0062
10215W        W53128   9.168   8.738   6.630  0.0005 -0.5925  0.0354
10216W        W53129   8.177   7.057   9.179  0.0107  0.1570 -0.3671
10217W        W53130  21.967   4.629   8.041 -0.0181  0.2659  0.1403
10218W        W53131  28.547   9.740   7.563  0.1851 -0.0065 -0.1810
10219W        W53132  21.411  33.433  24.372  0.3169  0.0604 -0.1610
10220W        W53133  14.512  14.222   8.080 -0.1030  0.1974  0.1977
10221W        W53134  25.819  14.445   8.420 -0.2772  0.1377  0.1389
10222W        W53135  31.206   2.906   0.986 -0.0550 -0.3887  0.0245
10223W        W53136  18.923  16.939   3.822 -0.1024 -0.2930 -0.3449
10224W        W53137  16.384   7.259   7.644 -0.1363  0.2571  0.0849
10225W        W53138  21.540  32.065   2.776  0.2153 -0.0115 -0.1285
10226W        W53139  26.887   7.555   8.266  0.1312  0.0748  0.4420
10227W        W53140  19.018   4.222   4.174 -0.1662  0.1880 -0.0437
10228W        W53141  15.818  17.211  28.075  0.2865 -0.0012  0.1891
10229W        W53142  20.485  15.872   6.466 -0.2335  0.1375  0.0747
10230W        W53143  17.093   7.802   5.007  0.0785  0.1669  0.1476
10231W        W53144  15.335  30.154   9.392  0.0312 -0.0624 -0.0697
10232W        W53145  15.062   5.709   2.839  0.2122 -0.0422 -0.0002
10233W        W53146  23.953  11.302   6.929  0.0927 -0.3058  0.0882
10234W        W53147  33.072   0.791   2.945  0.2575  0.0872  0.1611
10235W        W53148  11.785  10.267  20.744 -0.2092  0.1820 -0.1611
10236W        W53149  17.213  11.916   4.317  0.0078  0.0912 -0.0483
10237W        W53150  19.464  15.069   0.999 -0.1423 -0.0046  0.0561
10238W        W53151  23.884   4.205   5.660 -0.1736  0.0033  0.1624
10239W        W53152  30.801   0.770   8.713 -0.0254  0.0372  0.0746
10240W        W53153  26.041   4.504   9.642 -0.2992  0.2724 -0.2291
10241W        W53154  17.365  24.121  26.098 -0.1296  0.1188 -0.2117
10242W        W53155  24.873  32.451   7.237 -0.0905  0.1695 -0.2315
10243W        W53156   1.696  13.149   6.639 -0.1651 -0.2957 -0.1030
10244W        W53157  13.766   5.509  10.316  0.1683 -0.0913  0.1959
10245W        W53158  20.973  29.391   0.696  0.3163 -0.0669 -0.1621
10246W        W53159   9.189  33.637  10.974 -0.0502 -0.0723  0.1842
10247W        W53160  15.726  34.412  11.231 -0.1491  0.0958  0.0697
10248W        W53161  20.677   2.124   6.917  0.1247 -0.2247  0.1617
10249W        W53162  18.236   2.987  24.702 -0.1580  0.3544  0.0558
10250W        W53163  32.487   9.191   8.178 -0.0304  0.0148  0.0905
10251W        W53164  21.627   4.537   5.819 -0.3141  0.1703  0.1117
10252W        W53165  31.574   7.440   7.249 -0.4238  0.1139  0.1773
10253W        W53166  23.173   9.200   1.353  0.0026 -0.2596 -0.0762
10254W        W53167  17.388   6.274   6.404  0.1512  0.0020 -0.0496
10255W        W53168  26.409  11.951   5.158  0.0635 -0.0042 -0.1501
10256W        W53169   8.653   3.697  11.010  0.2841 -0.1092 -0.1508
10257W        W53170  15.381  30.316   1.962  0.0311  0.2350 -0.0399
10258W        W53171  12.225  19.653   2.477 -0.1687 -0.3645 -0.2970
10259W        W53172  26.325   5.372   2.887 -0.2273  0.0868 -0.3974
10260W        W53173  24.177  33.127  26.114 -0.1072 -0.1146  0.1750
10261W        W53174  30.287   7.635  28.325 -0.2814 -0.2957 -0.2596
10262W        W53175  32.038  15.313  26.866 -0.0098 -0.0562 -0.0489
10263W        W53176  21.044   4.253   9.167 -0.1293  0.0442 -0.0055
10264W        W53177  29.146  32.596   1.421 -0.3201  0.0272  0.2851
10265W        W53178  26.091   1.631   1.039  0.1291 -0.1915  0.3301
10266W        W53179  32.868  31.347   3.393 -0.0008 -0.0273 -0.0749
10267W        W53180  23.478  29.120   6.553 -0.0207  0.1676  0.0868
10268W        W53181  30.834  33.574   9.928 -0.1302 -0.3125 -0.2852
10269W        W53182  22.405  11.962   3.323  0.2255 -0.1178  0.1624
10270W        W53183  26.508   4.674   9.415 -0.0151 -0.0976 -0.3138
10271W        W53184  20.600   8.992   8.576 -0.2191  0.1911  0.0477
10272W        W53185  12.260  32.242   6.427 -0.1931  0.2541  0.0567
10273W        W53186   7.844  28.420   0.456  0.0271 -0.2285 -0.5524
10274W        W53187  21.182   0.234  29.467 -0.0735 -0.0794  0.0827
10275W        W53188  18.761   3.160   6.209 -0.1503  0.1527 -0.2381
10276W        W53189  22.963  31.193  29.756  0.2192 -0.0371 -0.0796
10277W        W53190  24.156  33.369   5.703 -0.0908  0.0146 -0.1144
10278W        W53191   0.734  11.359   1.859 -0.2556 -0.1176 -0.1273
10279W        W53192   1.052   3.498   5.098  0.3702 -0.1776  0.0881
10280W        W53193  21.752  11.530   8.186 -0.2501  0.2499 -0.1913
10281W        W53194  23.301   3.008   8.079 -0.1007 -0.0609 -0.3262
10282W        W53195  12.073   9.962  23.107 -0.1594 -0.0235 -0.1066
10283W        W53196  18.435  30.226   1.063  0.2397  0.5622 -0.3340
10284W        W53197  26.558   9.543   2.587  0.2772  0.1138 -0.4259
10285W        W53198   6.447   0.101   7.254  0.3052  0.1421  0.2497
10286W        W53199  24.101   4.490   8.600 -0.1150 -0.0453  0.1033
10287W        W53200  26.926  32.464   7.540 -0.1967  0.0874  0.1533
10288W        W53201  16.215   2.478  26.647 -0.2465  0.0244 -0.0847
10289W        W53202  10.843   3.044   7.671  0.2475  0.0095 -0.1025
10290W        W53203  19.014  19.282   0.189  0.3542  0.1283  0.0365
10291W        W53204  17.433   2.194   7.592  0.0901 -0.0753  0.2952
10292W        W53205   9.253   8.328  10.472 -0.1703 -0.0538  0.1983
10293W        W53206  34.124   7.485   7.500 -0.1363 -0.0363 -0.2017
10294W        W53207  27.974  12.968   7.657  0.1390 -0.1793  0.0696
10295W        W53208  16.290   0.030   3.652  0.0375 -0.1325  0.1844
10296W        W53209  30.347  12.327  29.557 -0.2813  0.2160 -0.0166
10297W        W53210  19.007  14.280   7.818 -0.1133  0.2115  0.1793
10298W        W53211  26.566  14.969   8.375  0.0480 -0.0802 -0.1959
10299W        W53212  31.497   9.382   9.046  0.0761  0.0021  0.1937
10300W        W53213  12.809   5.530   1.389 -0.2249 -0.1049  0.2289
10301W        W53214  24.165   4.882   8.243  0.3171 -0.2337  0.0824
10302W        W53215  21.450   1.403  25.232 -0.1812  0.1485 -0.0055
10303W        W53216  24.295  14.265  22.166 -0.0555  0.0027  0.1140
10304W        W53217  19.056  31.081   1.896 -0.0195 -0.2692  0.0276
10305W        W53218  21.735  15.674   7.828  0.1736 -0.0446 -0.0330
10306W        W53219  13.181  12.655  24.619  0.0378  0.3834  0.1724
10307W        W53220   8.021   4.062  13.277  0.0359 -0.1233 -0.0653
10308W        W53221  22.768   5.899   9.769 -0.0820  0.2263  0.0114
10309W        W53222  19.946  13.653  27.953 -0.0686  0.1728  0.1453
10310W        W53223  22.082   3.784  29.764  0.5048  0.2643 -0.2754
10311W        W53224  19.871  10.378   9.409  0.0847 -0.2255 -0.0835
10312W        W53225  18.487   3.799   9.465 -0.1050  0.0273  0.1778
10313W        W53226  16.497  15.674  25.961 -0.1762 -0.0494  0.0496
10314W        W53227  20.143  17.858   6.681 -0.0979 -0.1538 -0.0146
10315W        W53228  22.523  24.008   0.358  0.2379  0.0577 -0.3527
10316W        W53229  20.850  10.925   5.723  0.1401  0.1413  0.0306
10317W        W53230  12.420  33.918  10.441 -0.2958 -0.0538 -0.2465
10318W        W53231  25.716  32.919   8.148  0.1554 -0.2482  0.0584
10319W        W53232  10.314   4.352  21.521  0.2679 -0.0258  0.2557
10320W        W53233  25.628   3.403  27.466  0.1104  0.1277 -0.1975
10321W        W53234  24.036  30.106   7.422  0.0432  0.2165  0.3737
10322W        W53235  23.319  29.485   8.725 -0.2012  0.0312  0.1296
10323W        W53236  15.401  14.303   8.558 -0.0740  0.1141 -0.0453
10324W        W53237  20.946   3.812   1.297  0.0025  0.2383 -0.0054
10325W        W53238  22.278   6.033   0.389 -0.0911  0.0014 -0.1088
10326W        W53239  27.835   8.258  28.508 -0.1681  0.3055 -0.0294
10327W        W53240  10.973  29.420   0.789  0.0368  0.0568  0.0167
10328W        W53241  14.270   5.552  10.322  0.0362 -0.3175 -0.0216
10329W        W53242  24.838  33.860   7.569  0.0708 -0.1400 -0.3849
10330W        W53243  12.126  26.425   0.446 -0.1449  0.0251  0.3188
10331W        W53244  17.342   5.122   8.629 -0.0130 -0.4140 -0.0915
10332W        W53245  23.773   1.777   2.419 -0.0973 -0.1610 -0.1000
10333W        W53246  29.583   7.415  10.102 -0.0335 -0.3997 -0.1827
10334W        W53247  23.861  32.271   8.884  0.0558  0.0067  0.2196
10335W        W53248  14.223   3.676   3.183 -0.0239 -0.1229 -0.2103
10336W        W53249  13.639   4.922   2.607 -0.2969  0.1727 -0.1950
10337W        W53250  13.733   3.047   2.602  0.0255  0.0895 -0.0971
10338W        W53251  18.713  31.413   9.274 -0.0014  0.0796  0.1607
10339W        W53252  13.413  32.964   6.484 -0.1174 -0.3044  0.1951
10340W        W53253   5.673   0.841   2.738 -0.3977 -0.1379  0.2773
10341W        W53254  15.600   5.746  29.698 -0.3014  0.1273  0.0999
10342W        W53255  18.648   7.944   5.890  0.0271  0.1555 -0.1035
10343W        W53256  11.370   6.823   5.829 -0.0936  0.0758 -0.1705
10344W        W53257  15.116  30.053   4.690 -0.1153  0.3928 -0.1104
10345W        W53258   9.374   2.262  20.165  0.1552 -0.0574  0.4626
10346W        W53259  11.015   5.566   2.301  0.1665 -0.1630  0.0438
10347W        W53260  15.525  16.662   7.160 -0.4866 -0.0734 -0.0832
10348W        W53261  18.269   4.138  26.080  0.0590 -0.1531  0.0813
10349W        W53262  29.993   2.194   8.667  0.0503  0.1778  0.1655
10350W        W53263  23.401  10.429   6.635 -0.3340  0.0272 -0.1158
10351W        W53264  15.526   0.042  20.632  0.1307  0.0920  0.1178
10352W        W53265  11.384  24.310   2.909 -0.1422  0.0402  0.0118
10353W        W53266  19.039   3.812   9.531  0.1125  0.1105  0.0896
10354W        W53267  15.177   1.812   6.705  0.3336 -0.4113 -0.2207
10355W        W53268  10.284   8.410   7.290 -0.0261  0.0677  0.0273
10356W        W53269  17.416  14.043   8.946 -0.2223 -0.0186 -0.0974
10357W        W53270  22.079  15.613   5.243  0.2557 -0.3988  0.4143
10358W        W53271  26.656   5.234   9.371 -0.2360 -0.0605 -0.0775
10359W        W53272  23.471  17.129  28.135  0.1285 -0.1092  0.1265
10360W        W53273  20.849   0.252   2.571  0.1449  0.0492 -0.0845
10361W        W53274  30.894   8.149   3.280 -0.2720  0.1875 -0.2736
10362W        W53275  17.781   2.081   6.285  0.2366 -0.1021 -0.3163
10363W        W53276  27.527  26.624   8.997  0.1190 -0.2092 -0.0580
10364W        W53277  20.503   9.377   5.906 -0.1909  0.2546  0.1357
10365W        W53278  20.289  30.838   0.073  0.1436 -0.2585  0.0846
10366W        W53279   9.141   3.780  27.262  0.2337 -0.1870  0.1420
10367W        W53280  24.165   3.044   4.408  0.2485  0.0496  0.0070
10368W        W53281  21.724   2.510   1.433  0.6539  0.0318  0.1028
10369W        W53282  19.919   8.488  20.160 -0.0532 -0.1402 -0.2076
10370W        W53283  10.411   7.192  11.767  0.5218  0.3236 -0.0039
10371W        W53284  23.960  30.631   1.824  0.1288  0.1763 -0.0798
10372W        W53285  24.445   4.190   1.529 -0.1665  0.1042 -0.0916
10373W        W53286  21.287  13.250   3.998  0.0006 -0.1668 -0.0289
10374W        W53287  19.589   7.250  14.210 -0.2494 -0.0160 -0.1379
10375W        W53288  15.025  19.556   4.195  0.4307  0.2959 -0.2467
10376W        W53289   6.184   5.981  10.237  0.1163  0.0605  0.1883
10377W        W53290  15.827   6.297   2.625 -0.0129  0.2026 -0.1002
10378W        W53291  22.408   2.702   4.947  0.3744 -0.0527 -0.1957
10379W        W53292  17.407   0.489  11.383 -0.0057  0.0766 -0.0740
10380W        W53293   9.770   0.980   7.583 -0.1713 -0.0708 -0.1906
10381W        W53294  19.760   4.484   2.309  0.0058 -0.1255 -0.0492
10382W        W53295  19.516   8.296   3.157  0.2151 -0.0047 -0.0966
10383W        W53296  19.660   3.337   0.118 -0.1780  0.0760  0.0561
10384W        W53297  20.863   3.368   2.292  0.0851  0.2331  0.1094
10385W        W53298  23.139  13.384  24.881  0.1750  0.0485 -0.0995
10386W        W53299  22.823   8.141  28.339 -0.2358  0.2532 -0.0984
10387W        W53300  12.900  13.097   7.290  0.2150 -0.5480  0.2579
10388W        W53301  22.713  27.021   2.416 -0.0086 -0.0878 -0.3421
10389W        W53302  19.999  32.183   5.758 -0.0306  0.1570 -0.4273
10390W        W53303  24.314  31.378   6.368 -0.3284 -0.1600 -0.4553
10391W        W53304  23.934  31.272   5.553  0.0829 -0.0148  0.0686
10392W        W53305  16.519   2.014   1.583  0.0397 -0.3136  0.0802
10393W        W53306  21.787  29.108  28.512  0.0966  0.4275 -0.1961
10394W        W53307  24.554   9.849   7.028  0.0569  0.2246 -0.2068
10395W        W53308  22.060   9.182   3.007  0.0180 -0.0481 -0.0396
10396W        W53309  21.971  12.620   6.790 -0.1396  0.0824  0.1136
10397W        W53310  29.625   6.369   6.901  0.0998 -0.0844  0.2148
10398W        W53311  17.060  11.118  26.243  0.1861  0.1351 -0.4478
10399W        W53312  17.820   2.033   9.847  0.0791  0.1823  0.2477
10400W        W53313  24.334   3.775   2.599  0.2232 -0.0650 -0.1033
10401W        W53314  19.295  34.453   7.743 -0.1560  0.0805  0.4322
10402W        W53315  19.174  27.148  29.274 -0.1969  0.1249 -0.0310
10403W        W53316  20.711   6.929  24.842 -0.0232  0.0114 -0.0754
10404W        W53317   2.684   3.233  12.383 -0.1422  0.2917 -0.0756
10405W        W53318  24.463  10.676   4.470 -0.1580 -0.1108  0.2834
10406W        W53319  17.943  14.277  22.407  0.0409 -0.5237 -0.0161
10407W        W53320  29.643  32.820  28.857 -0.0103  0.0309 -0.0859
10408W        W53321  27.762   1.525   3.680  0.1206 -0.1266  0.2408
10409W        W53322  20.348   6.317   3.472  0.0182  0.0532  0.1517
10410W        W53323  14.635   3.393  28.996  0.1250 -0.3033 -0.0910
10411W        W53324  13.495  10.221   8.875  0.1690 -0.0083 -0.2867
10412W        W53325  12.926   4.681  10.199  0.0404 -0.2266  0.0027
10413W        W53326  20.707   7.849  25.621 -0.1079  0.1759  0.1712
10414W        W53327  16.476   5.910   7.215 -0.3179 -0.1986  0.0042
10415W        W53328  24.997  13.507   9.148  0.1255 -0.1857 -0.1462
10416W        W53329  27.880  33.426   6.660  0.0482  0.0223 -0.2676
10417W        W53330  15.211  24.175   5.476 -0.0797 -0.0030 -0.3354
10418W        W53331  25.128   2.058   7.504 -0.1850  0.0049 -0.1973
10419W        W53332  19.774  33.840   9.443  0.1147 -0.1008  0.1574
10420W        W53333  23.339   0.812   5.837  0.0241  0.2281  0.3213
10421W        W53334  21.889  19.537  28.214  0.1457  0.1529 -0.1904
10422W        W53335  25.140  10.308   3.773 -0.0141  0.1672  0.1174
10423W        W53336   2.879  13.157   4.832  0.1195 -0.3302 -0.2306
10424W        W53337  24.326  31.038  25.364 -0.0997 -0.0273 -0.1060
10425W        W53338  25.392   4.452   8.505  0.0495 -0.4202 -0.0078
10426W        W53339  18.615   4.189  26.593 -0.0229 -0.1439 -0.1685
10427W        W53340  25.688  16.847  26.418 -0.0566 -0.1131 -0.1385
10428W        W53341   9.391  34.243   9.986 -0.0489  0.0690 -0.1286
10429W        W53342  23.001   1.412   4.641 -0.3468 -0.1044 -0.1920
10430W        W53343  27.959  13.721  24.652 -0.2730  0.4360  0.2633
10431W        W53344   4.404   4.609   7.656  0.0390  0.0584  0.0700
10432W        W53345  21.953   7.177   1.100  0.0861  0.0172  0.1540
10433W        W53346  21.123   6.186   4.692  0.2913 -0.2364  0.0567
10434W        W53347  22.136   7.971  26.668  0.0780  0.1738  0.0086
10435W        W53348  19.311   5.875   9.186  0.2318 -0.3513  0.0433
10436W        W53349  25.569   4.766   7.145  0.1722  0.0755  0.2661
10437W        W53350   8.630   9.216   8.022  0.3501  0.2919  0.0613
10438W        W53351  16.651  30.900   3.901  0.0074 -0.0647 -0.0375
10439W        W53352   8.316  30.874   5.418  0.0291  0.0609 -0.0198
10440W        W53353  31.134   7.878   7.265  0.1739 -0.1902 -0.2267
10441W        W53354  10.876  32.662   0.431  0.1097  0.0164 -0.4394
10442W        W53355  12.953   4.835   6.723  0.3290 -0.1128  0.1775
10443W        W53356  24.357  11.941   3.425  0.2462  0.0596  0.2008
10444W        W53357  31.062   3.295   3.993 -0.0509  0.0341  0.0228
10445W        W53358  16.577   3.607   7.016  0.1089  0.0808  0.0793
10446W        W53359  17.977  17.671   2.924 -0.0076  0.0420 -0.0840
10447W        W53360  25.116   9.729   5.056 -0.2019 -0.2216  0.2799
10448W        W53361  20.448  13.426   7.814  0.2017 -0.2229  0.0156
10449W        W53362  15.699   0.353   6.224  0.0088 -0.1081 -0.0489
10450W        W53363  13.663  27.638  10.258 -0.0542  0.1593  0.1717
10451W        W53364  19.152  30.672   6.885 -0.0336 -0.3639  0.0364
10452W        W53365   2.474   6.088  10.402 -0.0395 -0.0363  0.1213
10453W        W53366  30.015   6.018   9.689  0.1061  0.1112  0.0538
10454W        W53367   8.862   9.179  10.619 -0.2352 -0.1448 -0.1339
10455W        W53368  22.916  10.463  28.040 -0.1431 -0.1501  0.0400
10456W        W53369  11.403   6.043   7.775 -0.0861  0.0183 -0.2225
10457W        W53370  17.199  33.045   9.497 -0.0434 -0.1379  0.0416
10458W        W53371  24.531   4.919   3.408 -0.2351  0.0431  0.0166
10459W        W53372  14.635  13.956   4.232  0.2431  0.0715  0.3758
10460W        W53373  30.057   2.681   8.391  0.0238 -0.0066 -0.0799
10461W        W53374  11.106  31.973   1.497 -0.0641  0.2789 -0.2464
10462W        W53375  24.396   6.440   9.495 -0.1819  0.1633  0.0562
10463W        W53376  14.505  11.143   4.977 -0.0036  0.0840  0.0936
10464W        W53377  16.103   6.030   3.919 -0.0343  0.1347 -0.0206
10465W        W53378  28.112  29.626   5.182  0.2138  0.1836  0.2644
10466W        W53379  19.340   2.470  10.337  0.2694  0.0366  0.0453
10467W        W53380  29.648   8.463   9.219 -0.0438  0.1489  0.0202
10468W        W53381  28.394   7.667   3.092 -0.1578 -0.1213 -0.4483
10469W        W53382  20.043  21.024  21.939  0.1368 -0.1133 -0.0402
10470W        W53383  28.345  30.794  28.723 -0.0348 -0.1318  0.1086
10471W        W53384  17.439   5.768  10.493  0.0781 -0.1291  0.1017
10472W        W53385  29.244   5.713  10.412  0.0456  0.0685 -0.0020
10473W        W53386  21.294  29.258   6.460 -0.0505 -0.0742 -0.0891
10474W        W53387  15.169  10.226   4.862  0.2152 -0.1075  0.0791
10475W        W53388   6.824  14.519   9.216  0.4145  0.2208  0.1065
10476W        W53389  20.274   3.069   7.564 -0.1032  0.0950 -0.4412
10477W        W53390  25.823   1.712   3.772 -0.0699  0.0526 -0.1362
10478W        W53391  19.921   6.352   0.307  0.0223  0.0457 -0.0126
10479W        W53392  23.104  26.333   5.702  0.2716 -0.1835 -0.1524
10480W        W53393  27.599   3.918   8.538  0.0187  0.1130  0.0027
10481W        W53394  10.316  10.371   9.747 -0.2824  0.0034 -0.1445
10482W        W53395  25.118   4.674   6.052  0.0256  0.0290  0.3892
10483W        W53396  13.284   6.209  10.215  0.0539  0.4293 -0.2777
10484W        W53397  11.239  10.885   9.532 -0.4196  0.1268 -0.0253
10485W        W53398  23.815  29.744   3.256 -0.0810 -0.0880 -0.0605
10486W        W53399  14.329  28.364   4.396  0.1493 -0.1954  0.3174
10487W        W53400  18.666   7.344   4.630  0.1605 -0.1891 -0.3654
10488W        W53401  25.202   6.246   4.831  0.3189 -0.2429  0.1317
10489W        W53402  15.800  13.216   7.147 -0.3260 -0.4179  0.0422
10490W        W53403  33.252  12.342  25.429 -0.0441 -0.0217 -0.1727
10491W        W53404  11.444   7.835   5.971 -0.5438 -0.1507 -0.2003
10492W        W53405   7.840   1.280  10.995 -0.0333 -0.4006  0.0595
10493W        W53406  26.978   1.016   2.334 -0.1487 -0.1420  0.0368
10494W        W53407   6.397   3.430  12.972 -0.2068 -0.1587  0.0707
10495W        W53408  21.661   3.543   8.717  0.3944  0.1797 -0.2358
10496W        W53409  21.521  12.290   3.679 -0.3197  0.0566 -0.2261
10497W        W53410  21.192   5.797   2.321  0.2675 -0.2281  0.2004
10498W        W53411  16.970  33.817   6.897 -0.2528 -0.1314 -0.0449
10499W        W53412   1.113   3.196  11.373  0.1713 -0.2858 -0.1344
10500W        W53413  24.279  15.592   6.854  0.0994 -0.0018 -0.3317
10501W        W53414  18.927   2.803   5.790 -0.0670  0.0365 -0.1949
10502W        W53415  25.402   7.226   9.158  0.1132 -0.0994 -0.0218
10503W        W53416  19.220   3.163  10.325 -0.1929 -0.0490 -0.0066
10504W        W53417  15.454   5.410   9.730 -0.0841  0.2039 -0.0888
10505W        W53418  21.484   2.368   2.328 -0.0872  0.0991  0.0754
10506W        W53419  32.018   4.252   8.056  0.2702 -0.0279  0.0129
10507W        W53420   9.132   4.668  11.956  0.1053 -0.1597  0.0017
10508W        W53421  33.440  26.386  27.445 -0.1341  0.1075  0.2849
10509W        W53422  13.948  30.307   5.479  0.1433  0.1931 -0.1928
10510W        W53423  25.328  12.395   9.409 -0.1688 -0.1447 -0.1270
10511W        W53424  16.705  29.907   3.859 -0.0529 -0.0801  0.0268
10512W        W53425  19.323   3.691  10.014 -0.0403  0.0023 -0.2000
10513W        W53426  13.643  32.296   3.955  0.0825 -0.0209  0.0786
10514W        W53427  19.711  32.028   5.249 -0.1203 -0.0134 -0.2985
10515W        W53428  13.403  30.205   1.874 -0.0496  0.1505  0.0446
10516W        W53429  25.088   6.911   6.914 -0.2879 -0.0082 -0.3243
10517W        W53430  14.547   1.793   6.325 -0.3756  0.2037 -0.1670
10518W        W53431  19.567   0.962   4.931  0.2808 -0.2620  0.1750
10519W        W53432  17.439   4.916   9.181 -0.1644 -0.0587 -0.0672
10520W        W53433  22.560   8.522   3.391  0.1337  0.5719  0.3157
10521W        W53434  17.861  29.535   6.966 -0.0508 -0.1770  0.1094
10522W        W53435  12.250   3.138   6.124  0.0637  0.1144  0.1115
10523W        W53436  19.207   1.345   7.483 -0.4289 -0.0681 -0.2652
10524W        W53437  16.591   6.503   6.125  0.3352  0.0607 -0.0658
10525W        W53438  17.600   4.934   2.934  0.4893 -0.0753 -0.2415
10526W        W53439  27.246  33.279   5.928 -0.2619 -0.2471  0.0339
10527W        W53440   8.474   1.170   5.789  0.1387 -0.2174 -0.1159
10528W        W53441  18.541   2.225  10.332 -0.0783 -0.1876 -0.3378
10529W        W53442  22.995  32.517   7.033 -0.0096  0.0702 -0.1228
10530W        W53443  27.139  20.295   6.636  0.0726 -0.4486  0.2346
10531W        W53444  21.563   0.672   3.719  0.0901  0.0495  0.1423
10532W        W53445  26.430  12.411   2.882  0.0525  0.0592 -0.0588
10533W        W53446  20.920   7.568   8.861  0.1812  0.1693 -0.0214
10534W        W53447  27.358   1.689   5.104 -0.0725 -0.1817  0.2031
10535W        W53448  19.967   1.195   9.071  0.1732  0.1390  0.1334
10536W        W53449   0.063   5.106   6.421 -0.1713  0.1798  0.2893
10537W        W53450  24.721   5.418   3.459 -0.8052  0.0499 -0.2779
10538W        W53451  11.371   9.322   7.380  0.1935  0.0752  0.2295
10539W        W53452  10.587  12.310   8.692  0.2060 -0.2250  0.1202
10540W        W53453  20.523   9.306   4.011  0.1636 -0.1658  0.1380
10541W        W53454  28.459  10.239   6.314 -0.6593  0.3531  0.0426
10542W        W53455   9.258   3.755   5.955  0.3519 -0.1332  0.3948
10543W        W53456  19.988  11.119   7.127 -0.0096 -0.1134 -0.0894
10544W        W53457   9.961   3.648   2.063  0.3450 -0.1064 -0.0830
10545W        W53458  28.913  30.537   7.282 -0.1818  0.1672 -0.0399
10546W        W53459  28.810  10.565   8.608  0.0789 -0.0980  0.3043
10547W        W53460  21.083   8.678   1.763  0.2707  0.1320  0.0552
10548W        W53461  34.376   4.178   4.405 -0.1206 -0.1075  0.1400
10549W        W53462  12.497  10.731   5.651 -0.2139 -0.0634  0.3278
10550W        W53463   8.920   8.314   9.508 -0.0893 -0.0310  0.2039
10551W        W53464  13.209  26.362   8.750  0.0103 -0.0883 -0.1671
10552W        W53465  12.275  12.923   8.924 -0.2367  0.0038  0.1123
10553W        W53466  24.346   1.031   1.320  0.1141 -0.1012 -0.0982
10554W        W53467   8.139   1.721   7.805  0.0732 -0.1396  0.1298
10555W        W53468  18.672   5.531   3.077 -0.0620 -0.1055 -0.0977
10556W        W53469  21.400   5.543   9.220  0.1132  0.2681 -0.1018
10557W        W53470  24.003   4.165  28.759 -0.1005 -0.2682 -0.0112
10558W        W53471  15.422  10.070  29.762 -0.1340 -0.0060  0.0861
10559W        W53472  25.413   5.138   5.094 -0.4757 -0.0374  0.0399
10560W        W53473  11.535   6.534   7.788 -0.1718  0.0867  0.0739
10561W        W53474  25.749   8.088   3.917 -0.2209  0.0819 -0.2759
10562W        W53475  13.899   3.757   9.911  0.2847 -0.2512  0.1978
10563W        W53476  17.800  32.911  11.513  0.0844  0.0119  0.0642
10564W        W53477  13.889  34.374   8.167  0.2440 -0.1304 -0.1926
10565W        W53478  22.784  23.037   7.360  0.2155  0.2227  0.2241
10566W        W53479  21.418  14.249   3.953  0.1360  0.1195  0.1585
10567W        W53480  28.103   1.560   8.883 -0.2630  0.1591 -0.1601
10568W        W53481  19.514   4.677   0.084 -0.2205  0.1419 -0.1369
10569W        W53482  26.754  30.228   7.855 -0.0543 -0.1384  0.2643
10570W        W53483  23.285  28.968   1.780 -0.1218 -0.0045 -0.1499
10571W        W53484  17.233   9.172   7.773  0.1307  0.0683  0.2353
10572W        W53485  21.924  32.917   7.344  0.2399 -0.3897  0.0266
10573W        W53486  20.864   8.974   9.428 -0.1659  0.1749 -0.1632
10574W        W53487  31.727   1.275  28.681  0.0135  0.1054  0.1163
10575W        W53488  15.152  14.061   8.035 -0.2019 -0.0568  0.2254
10576W        W53489  25.256   9.971   4.616 -0.2953 -0.1139  0.0500
10577W        W53490  16.572  11.690   6.373  0.2754  0.0107  0.0912
10578W        W53491  10.121   0.289   4.668 -0.0340 -0.3049 -0.0640
10579W        W53492  12.473   6.356   5.907  0.5060  0.0285  0.1225
10580W        W53493  18.486   7.999   9.463 -0.1893  0.1796 -0.3184
10581W        W53494  29.307   4.124  10.154 -0.1074 -0.0965  0.0832
10582W        W53495  21.743  31.802   6.142  0.0953 -0.2543  0.1941
10583W        W53496  25.537   6.546   8.579  0.1176 -0.1394  0.0426
10584W        W53497  22.639  28.070   6.498 -0.2509 -0.1773 -0.1165
10585W        W53498  26.602   1.906   9.130 -0.1142  0.1496  0.2473
10586W        W53499  15.939   8.616   7.498  0.0639 -0.0123 -0.1072
10587W        W53500  18.725  26.539  28.591 -0.0437  0.0947  0.0121
10588W        W53501  27.200  30.336   6.339  0.0124 -0.2870 -0.0456
10589W        W53502  19.884  31.302   5.634  0.1146  0.0039  0.0478
10590W        W53503  16.354   4.168   2.567 -0.0772  0.0041  0.1718
10591W        W53504  24.516  26.338   1.025 -0.0024 -0.1343  0.1936
10592W        W53505  26.777   0.928   9.807 -0.1327 -0.0474 -0.1117
10593W        W53506  29.908  34.448   6.095 -0.0135  0.0600 -0.2640
10594W        W53507  25.684   8.002   8.578  0.2680  0.0899  0.0471
10595W        W53508  26.536  34.153   1.000 -0.2403  0.2071  0.1971
10596W        W53509   5.177   1.347   6.416  0.0686  0.2498 -0.2901
10597W        W53510  21.551   8.578   8.005  0.0746  0.1650 -0.1689
10598W        W53511  19.432   7.360   5.713  0.0003  0.2215  0.1363
10599W        W53512  18.463   4.324   8.758 -0.1563 -0.1718 -0.1805
10600W        W53513  16.698   0.617   6.289  0.0620  0.0405 -0.2670
10601W        W53514  14.566   0.961   5.873 -0.2062 -0.0659 -0.3295
10602W        W53515  30.164   9.490   2.744  0.0253  0.0047  0.1945
10603W        W53516  17.465   5.894   8.064  0.0781  0.2536 -0.1172
10604W        W53517  14.358  21.633   6.545  0.1441 -0.1364 -0.1909
10605W        W53518  14.936  31.151   6.804 -0.3221  0.2989  0.2972
10606W        W53519  10.611   5.722   2.787  0.0127  0.3520  0.0530
10607W        W53520  24.196  15.389   5.108  0.1960 -0.1100  0.1068
10608W        W53521  24.182  10.280   9.790 -0.2067  0.1758  0.1858
10609W        W53522  27.570   2.863   7.490 -0.1275  0.1448 -0.2024
10610W        W53523  30.806   6.052  27.036  0.2411 -0.2676 -0.1397
10611W        W53524  23.069   1.600  29.442  0.1821 -0.4697 -0.1628
10612W        W53525  20.310  31.801   9.418  0.1105 -0.2892  0.3606
10613W        W53526  19.811   0.232   9.778 -0.1049 -0.3133  0.1037
10614W        W53527  19.760  29.208   5.073  0.2694 -0.0996  0.1492
10615W        W53528   6.791  31.255   3.479 -0.0451  0.2619 -0.1592
10616W        W53529  15.092   4.149  10.930 -0.3132  0.0906  0.3782
10617W        W53530  30.601   2.190  10.436 -0.0598  0.0137 -0.1365
10618W        W53531  15.867  34.377   6.011  0.2938  0.0380  0.1279
10619W        W53532  19.717  34.142   9.876  0.2434 -0.2824  0.0233
10620W        W53533  21.555   7.611  28.575 -0.0784 -0.1607 -0.0543
10621W        W53534  14.888  12.907  28.789 -0.2219  0.2857 -0.1247
10622W        W53535  14.782   4.674   0.401 -0.1394  0.0719 -0.0756
10623W        W53536  18.015   7.200   8.856 -0.2448  0.2089  0.0794
10624W        W53537  22.662  27.838   3.029 -0.1273  0.0710  0.0318
10625W        W53538  34.005  14.015   1.430 -0.3220  0.1475 -0.0503
10626W        W53539  10.908  11.363   7.898 -0.3346  0.2911 -0.2871
10627W        W53540  22.716  13.448   4.291 -0.0178 -0.1756 -0.1194
10628W        W53541  19.234   9.606   7.026  0.0879 -0.0593  0.2297
10629W        W53542  12.799  31.037   9.493  0.0456  0.0662 -0.1349
10630W        W53543  22.759   1.065   9.667  0.0471  0.0851 -0.2665
10631W        W53544  23.282   2.468   4.498  0.1910 -0.2098  0.3775
10632W        W53545  20.881  33.603   3.687 -0.1280 -0.4478 -0.1891
10633W        W53546  15.542   4.326  10.682  0.1005  0.0860 -0.2796
10634W        W53547  26.409   4.966   7.147 -0.1006  0.0360 -0.2042
10635W        W53548  15.141   8.362   9.560  0.2371 -0.1678  0.1159
10636W        W53549  11.504  21.141   2.149  0.4029  0.1212  0.2846
10637W        W53550  19.199   5.538   6.096  0.2317 -0.1857  0.0930
10638W        W53551   9.415   9.025   8.007 -0.1454  0.4066  0.2889
10639W        W53552  14.284   4.582   8.520 -0.4049  0.0233  0.1110
10640W        W53553  25.652   5.050   3.653  0.0904 -0.1572 -0.3631
10641W        W53554  20.656  17.891   0.937  0.0991  0.1392 -0.1742
10642W        W53555  18.362   3.328   7.752  0.2479 -0.2397 -0.0870
10643W        W53556  24.700  31.651   5.024 -0.2148 -0.3052  0.1053
10644W        W53557  15.957   2.836   6.185  0.1197  0.2234  0.3083
10645W        W53558   7.987   7.251   2.961  0.2657  0.3089  0.3862
10646W        W53559  15.708  33.726   3.009 -0.1631 -0.0967  0.3492
10647W        W53560  24.752   3.697   4.046 -0.0996 -0.2211 -0.4589
10648W        W53561  21.111   4.641   5.842 -0.0073  0.0197 -0.3472
10649W        W53562  11.913   5.926   0.648 -0.1547  0.3095 -0.0308
10650W        W53563  24.257   8.114   1.747  0.2599 -0.0723  0.2580
10651W        W53564  21.850   2.588  28.458  0.1008 -0.0859 -0.1558
10652W        W53565  31.306   9.953  11.186 -0.2527  0.0643 -0.1412
10653W        W53566  21.823  13.526  24.314 -0.0943  0.0237 -0.0377
10654W        W53567  14.447  32.724  11.409  0.0986 -0.0052  0.0885
10655W        W53568  32.304  33.544   7.570 -0.1155 -0.2043  0.0762
10656W        W53569  21.501  14.795  25.936 -0.1714  0.3962  0.1480
10657W        W53570  18.132  32.230  10.135 -0.2650 -0.0460 -0.0471
10658W        W53571  30.530  14.445   6.103  0.3704 -0.1623  0.2145
10659W        W53572  25.394   1.870   9.602 -0.1668  0.2382 -0.0160
10660W        W53573  30.516   2.592   4.245  0.0019 -0.1733  0.3409
10661W        W53574  19.253  32.196  10.499 -0.3100  0.1288 -0.2790
10662W        W53575  28.726   5.389   0.879  0.1660 -0.0886  0.1006
10663W        W53576  19.212  16.379   6.790  0.0789  0.2227 -0.0722
10664W        W53577  14.352   7.815   2.990  0.0799 -0.1420 -0.2229
10665W        W53578  25.027   1.219   4.862  0.1337 -0.3124 -0.1616
10666W        W53579  23.850   2.757   8.449 -0.0705  0.1128 -0.3229
10667W        W53580  26.132  31.969   8.691  0.3068 -0.0167 -0.0432
10668W        W53581  23.495  31.902   2.639 -0.2752 -0.1359 -0.1248
10669W        W53582  26.039   1.172   6.551  0.0548 -0.3215  0.1695
10670W        W53583  16.831   7.918  25.654  0.1907  0.1656 -0.0752
10671W        W53584  19.683  13.337   2.867  0.2606  0.0903 -0.1072
10672W        W53585  16.230  27.810   8.118 -0.0634 -0.2009  0.0310
10673W        W53586  24.717   9.000   7.153 -0.4982 -0.0613  0.0043
10674W        W53587  13.359  34.418   5.006  0.0778  0.2142 -0.1289
10675W        W53588  29.177   9.053   4.446  0.2118 -0.2139 -0.0448
10676W        W53589  10.809   5.550  11.622 -0.0035 -0.1985 -0.0209
10677W        W53590   8.951   4.450   9.016 -0.1224  0.2040  0.1627
10678W        W53591  30.035  33.359   5.748  0.4244  0.1455  0.1464
10679W        W53592  32.045  33.486   8.891  0.0831  0.3004  0.0267
10680W        W53593  13.535  32.709  10.885 -0.1118  0.2786 -0.0517
10681W        W53594  32.118   4.754   3.815  0.0609 -0.1487  0.2616
10682W        W53595  28.902  17.328   9.658  0.4176 -0.1762  0.1393
10683W        W53596  22.669   6.043   9.259 -0.2233 -0.2543  0.3093
10684W        W53597  28.567   6.967   8.275 -0.0333  0.1149  0.0933
10685W        W53598  21.284   7.101   3.510 -0.1674  0.0881 -0.0365
10686W        W53599   7.239   0.892   8.898  0.2931 -0.0073 -0.0820
10687W        W53600  28.550  10.035  29.569  0.0942  0.0878 -0.0057
10688W        W53601  21.458  33.651   6.905 -0.0060 -0.0991 -0.0206
10689W        W53602  22.135   1.618   7.845  0.0476 -0.1814 -0.1099
10690W        W53603  21.109   5.379   8.810  0.2866 -0.1331 -0.2619
10691W        W53604  19.726   5.719   9.928 -0.0462  0.0035 -0.1246
10692W        W53605  26.617   0.302   4.191 -0.0334  0.2660  0.1967
10693W        W53606  27.959   4.954  24.271  0.1963 -0.0964 -0.1853
10694W        W53607  22.823   6.109   7.591  0.2089  0.0371 -0.0506
10695W        W53608   8.927   5.174   1.520 -0.1469 -0.3464  0.1155
10696W        W53609  21.617  32.162   7.833 -0.0034  0.3167  0.4494
10697W        W53610  20.110   1.425   8.656  0.0346 -0.1952  0.0743
10698W        W53611  10.654  11.379   9.563 -0.2301  0.1508  0.4778
10699W        W53612   9.304  13.245   2.878 -0.1201 -0.1145  0.0358
10700W        W53613  20.251  12.726   0.344  0.2234 -0.0910  0.1488
10701W        W53614  14.914   1.866   4.321  0.1145  0.5520 -0.0289
10702W        W53615  12.543   1.969   8.921  0.2677  0.1846  0.1133
10703W        W53616   6.394   1.819   8.919  0.0132 -0.1897  0.1771
10704W        W53617  24.942   6.354  10.363  0.0085 -0.1305  0.1072
10705W        W53618  16.352  29.098   7.729  0.2673  0.0200 -0.2237
10706W        W53619  12.134  12.049   3.970  0.4044  0.4382  0.2534
10707W        W53620  13.237   3.544   7.936  0.0876 -0.2432 -0.0817
10708W        W53621  25.368   5.598   9.301  0.0350 -0.1225  0.3214
10709W        W53622  13.867   3.716   1.841 -0.0041 -0.2187 -0.3711
10710W        W53623  24.342  17.422  23.964 -0.2583 -0.2265  0.1190
10711W        W53624   1.557   2.795  28.464 -0.0234  0.2664 -0.1666
10712W        W53625  16.508   1.364   8.697  0.2729  0.2298 -0.1285
10713W        W53626  21.441   6.659   5.554 -0.2650  0.2742 -0.0705
10714W        W53627  19.089   5.559   8.900 -0.0306  0.3913  0.2344
10715W        W53628   7.993   4.281   8.705  0.0280  0.1852  0.1618
10716W        W53629  31.071   9.429   5.256 -0.3848 -0.1308 -0.1602
10717W        W53630  26.102   7.911   2.566 -0.0738  0.1301  0.1289
10718W        W53631  18.881   3.827   5.723  0.1395 -0.1839  0.1910
10719W        W53632  29.175   9.687   8.762  0.0024 -0.0881  0.2422
10720W        W53633  11.229   0.749  13.163 -0.1613 -0.0700  0.1212
10721W        W53634  18.657  30.077   7.277 -0.1288 -0.1689 -0.1254
10722W        W53635  16.245  16.943   1.155  0.1646 -0.2320  0.1407
10723W        W53636   9.947  29.203   9.952  0.0395 -0.0046  0.3521
10724W        W53637  17.506  14.407   4.411  0.2691  0.2667 -0.3593
10725W        W53638  22.879  32.952   9.383  0.1713  0.0269 -0.3391
10726W        W53639  25.976   3.615   8.664 -0.0089 -0.0798 -0.0855
10727W        W53640  20.416   8.486   2.601 -0.2430  0.2609  0.1859
10728W        W53641  25.098   8.630   5.725 -0.0945 -0.1122  0.0518
10729W        W53642  14.989   1.274   5.680  0.0338  0.3522 -0.1995
10730W        W53643  22.888  28.363   8.867  0.2018  0.2897 -0.1602
10731W        W53644  15.519  10.521  29.180  0.4310 -0.1813 -0.2516
10732W        W53645  20.631  12.621   1.501  0.1524 -0.0294  0.2081
10733W        W53646  13.773  30.172   2.187  0.0391 -0.0073 -0.1081
10734W        W53647  24.422  30.399   1.703 -0.3098 -0.0632 -0.2464
10735W        W53648  13.471  33.498   4.555 -0.0907 -0.1803 -0.0713
10736W        W53649  19.399   2.182   7.740 -0.0754  0.1412  0.3718
10737W        W53650  16.521  34.012   7.683 -0.2400 -0.0371 -0.2131
10738W        W53651  29.577  15.551   7.372 -0.0578  0.0907  0.1344
10739W        W53652  14.702  32.321   9.620  0.2452  0.0141  0.1568
10740W        W53653  12.026  10.008  26.748 -0.0617  0.2348  0.2743
10741W        W53654  21.744  14.541   7.053  0.0845 -0.1877 -0.1497
10742W        W53655  19.949   8.842  23.419 -0.1061 -0.2029 -0.1777
10743W        W53656  13.420   6.286  27.810  0.1349  0.1019  0.3228
10744W        W53657  26.860  12.590   5.798 -0.3026  0.2027  0.0622
10745W        W53658  22.844  14.070  29.645 -0.1163 -0.1387 -0.1564
10746W        W53659  15.188  16.507   3.961 -0.0628  0.0509 -0.3079
10747W        W53660  15.168  10.729   6.392 -0.0755  0.0909  0.1182
10748W        W53661  21.108   8.363  28.994 -0.0487  0.0516  0.0693
10749W        W53662  15.565  33.195   7.450  0.2173  0.1790 -0.0728
10750W        W53663  14.639   8.484   9.404  0.0751 -0.0867 -0.1469
10751W        W53664  14.678   2.947  27.624 -0.2793  0.0271  0.0706
10752W        W53665  22.552  27.672  27.642  0.0107 -0.1043  0.0319
10753W        W53666   7.210  32.717   7.774 -0.2128  0.1609  0.1839
10754W        W53667  28.435  16.648   2.502  0.1307  0.0042 -0.1570
10755W        W53668  21.712  10.171   6.200  0.0645  0.0693  0.0542
10756W        W53669  33.913  15.733   6.432 -0.1280  0.2767 -0.0291
10757W        W53670  12.083   7.522   6.174  0.1242 -0.2070  0.3656
10758W        W53671  19.567  32.688  18.740  0.0957  0.0672 -0.0893
10759W        W53672  23.826  11.401   5.739 -0.1142 -0.2778 -0.2098
10760W        W53673  25.451  31.869   3.798  0.2200 -0.0064 -0.0264
10761W        W53674   3.302  12.632   2.838  0.1322 -0.0162  0.1616
10762W        W53675  21.404  27.423   4.869 -0.1251 -0.2253 -0.2774
10763W        W53676  24.683  32.252  28.864 -0.0952 -0.2454  0.0501
10764W        W53677  13.601   9.076  27.918 -0.0009 -0.2961 -0.2326
10765W        W53678  22.503   6.337   3.392  0.2255  0.2415 -0.0884
10766W        W53679  20.824   8.048   8.660 -0.1257  0.0503  0.0259
10767W        W53680  20.460  10.456  27.813  0.0728 -0.1148 -0.1203
10768W        W53681  19.500   3.921  26.840 -0.0046  0.1269 -0.1721
10769W        W53682  21.254   0.524  19.931 -0.1881  0.2330 -0.2634
10770W        W53683  15.146  14.340   6.592  0.1657 -0.0658  0.0154
10771W        W53684  11.407  11.937   9.641 -0.0537 -0.0078 -0.2664
10772W        W53685  23.514  12.733  28.595 -0.1540 -0.0691  0.0992
10773W        W53686  26.292   7.279   7.277 -0.1184  0.1778 -0.2260
10774W        W53687   9.098  11.458   9.197 -0.3185 -0.0205 -0.0864
10775W        W53688  18.241   3.231   6.072  0.2050  0.1799  0.1240
10776W        W53689  29.513   5.636   2.216  0.0396 -0.1394  0.1150
10777W        W53690  14.073  10.443   8.131 -0.0794  0.1828  0.1980
10778W        W53691  13.798   9.934   4.143  0.0843  0.1676 -0.1328
10779W        W53692  20.631  17.194   1.568 -0.1291  0.1849 -0.5808
10780W        W53693  23.833  15.616  29.102 -0.2069  0.1249  0.0168
10781W        W53694  27.507  13.642  28.801  0.2064 -0.3384  0.0374
10782W        W53695  12.719  33.694   0.280 -0.1779  0.1112  0.0154
10783W        W53696  23.248  10.508   7.135 -0.0639 -0.5279 -0.0643
10784W        W53697  14.279  28.283   5.744 -0.0213  0.2192 -0.1412
10785W        W53698   3.373  22.686  27.793  0.4274 -0.4025  0.1590
10786W        W53699  13.041  11.659  25.859  0.1678 -0.0812  0.2210
10787W        W53700  18.071  33.471  25.452  0.2596  0.3139 -0.1410
10788W        W53701  22.208  14.746  24.348  0.4404  0.0610 -0.0521
10789W        W53702  30.269   1.346  28.135  0.0932  0.1411  0.1504
10790W        W53703  25.678   8.923  27.133 -0.2833 -0.0864  0.0019
10791W        W53704  30.624  10.089  29.380 -0.0408  0.0762 -0.2040
10792W        W53705  14.405  32.674   5.236 -0.3125  0.1354 -0.1354
10793W        W53706  17.920   3.758  28.714 -0.1997  0.2423 -0.1618
10794W        W53707  24.335  11.566   6.777 -0.0159 -0.1511 -0.0551
10795W        W53708  25.031   8.578   1.240  0.1395  0.1208 -0.3678
10796W        W53709  24.995  11.298   3.880  0.2800  0.0274 -0.3100
10797W        W53710  23.692   7.334   3.682 -0.0060 -0.2246  0.1814
10798W        W53711  12.407   7.830  24.997 -0.3096  0.0278 -0.2434
10799W        W53712  12.408  15.097  23.834 -0.0028 -0.1033 -0.0081
10800W        W53713  15.895  10.758   5.140 -0.2035 -0.0560  0.1702
10801W        W53714   2.898   0.859  28.789  0.0591  0.1625  0.1075
10802W        W53715  15.953  16.942   5.961 -0.0260 -0.1859  0.0657
10803W        W53716  26.866   1.779   9.662 -0.2466 -0.1185 -0.0007
10804W        W53717  10.373  10.803   0.001  0.2478 -0.1042 -0.0923
10805W        W53718  18.030  12.085   1.664 -0.0095 -0.1978  0.0183
10806W        W53719  20.182   6.661  24.920 -0.0629 -0.0289  0.1892
10807W        W53720   8.162  34.043  19.493  0.2507  0.2184  0.1962
10808W        W53721  14.728   4.408  10.231 -0.1350  0.0755 -0.1463
10809W        W53722  24.459  30.995   3.346  0.1627 -0.2159 -0.0865
10810W        W53723  16.871  11.057  28.425  0.2212 -0.3773 -0.2097
10811W        W53724  13.007  12.878  20.758 -0.2117 -0.0507  0.0723
10812W        W53725  27.367   5.926   7.686 -0.0582 -0.0271  0.2984
10813W        W53726   3.845   6.201  21.271  0.4340  0.1446  0.1704
10814W        W53727  29.105   3.171  19.169 -0.2125 -0.1318 -0.2929
10815W        W53728   0.502  29.860   5.457 -0.2623 -0.0279  0.1064
10816W        W53729  15.344   3.420   0.599  0.3465  0.0721 -0.1405
10817W        W53730  15.063   8.220   2.063 -0.0036  0.0940  0.3323
10818W        W53731  19.781   1.055   6.979 -0.1046  0.1509 -0.0831
10819W        W53732   7.995   2.410   0.694 -0.2857 -0.2712 -0.0187
10820W        W53733  25.685   6.355   5.676 -0.1249 -0.1624 -0.2313
10821W        W53734  20.577   4.752   1.306  0.1079 -0.1465  0.0279
10822W        W53735  13.402  11.362   1.353 -0.0976  0.0060 -0.5125
10823W        W53736  12.018  30.339  28.431  0.1283 -0.2481  0.0395
10824W        W53737  25.700  32.416   2.033  0.3474 -0.0378 -0.0981
10825W        W53738  25.060   7.542   9.499 -0.0420  0.3857  0.1045
10826W        W53739  19.325   0.750  24.419 -0.1737  0.0567 -0.1807
10827W        W53740  15.407   5.284  22.570  0.0273  0.2164  0.1718
10828W        W53741  26.381   5.874   4.486 -0.1087 -0.0089  0.1899
10829W        W53742  21.641   5.766  28.266 -0.1561 -0.1586  0.2049
10830W        W53743  18.808  15.310  21.370  0.2569  0.1546 -0.0990
10831W        W53744  23.135  22.962  17.790  0.1815 -0.1344 -0.0844
10832W        W53745   5.999  13.408  28.123 -0.2902 -0.0024  0.0254
10833W        W53746  17.591   1.335  29.450  0.0161  0.1191 -0.1282
10834W        W53747  28.045  16.444  27.028 -0.0315 -0.1354  0.0905
10835W        W53748  11.267   0.198   6.545 -0.2189  0.0812  0.0547
10836W        W53749  31.583   6.273   8.361  0.1974  0.0958 -0.1079
10837W        W53750  11.318   5.530   5.687 -0.1168  0.0361 -0.0075
10838W        W53751  21.579  12.728  23.849  0.0914 -0.0773  0.2331
10839W        W53752  14.601  33.370   0.383  0.3448 -0.0591 -0.1835
10840W        W53753  21.049   6.366  17.552 -0.0263  0.1394  0.2372
10841W        W53754  17.575   7.159   2.452  0.0282  0.1775  0.0001
10842W        W53755  29.255   9.833   1.053 -0.2311  0.1676 -0.3088
10843W        W53756  12.761   3.890   2.147 -0.1281  0.2309 -0.1262
10844W        W53757  18.449  20.507   4.408  0.4238  0.1170 -0.0258
10845W        W53758  18.310   6.114  29.408 -0.2287 -0.0327  0.0480
10846W        W53759  19.419   0.941  29.258 -0.2437 -0.0552 -0.2385
10847W        W53760  21.241   4.571   0.806  0.1299  0.0495  0.1079
10848W        W53761  15.216   3.120  27.667 -0.0883  0.0759  0.1678
10849W        W53762  24.560   7.809   1.491 -0.0653 -0.0922 -0.2764
10850W        W53763  27.896  13.246   2.652 -0.1698 -0.0737 -0.2671
10851W        W53764  19.153  10.578   7.086 -0.0472  0.0378 -0.2320
10852W        W53765  18.905   5.150  28.448  0.1619 -0.0848 -0.2237
10853W        W53766  16.239   3.946  25.337  0.0534 -0.0046 -0.0926
10854W        W53767  24.274   9.736   2.245 -0.2814 -0.1239  0.0911
10855W        W53768  22.009  19.045   3.877 -0.1503 -0.1335 -0.0360
10856W        W53769  16.459   8.357   4.728 -0.4446  0.2010 -0.0784
10857W        W53770  19.047  31.920   3.227  0.0953  0.2829  0.1190
10858W        W53771  19.913   2.191  20.657  0.2314  0.0830  0.2390
10859W        W53772  15.635   4.471  22.926  0.0121  0.1695  0.0534
10860W        W53773  32.228  12.021   8.020 -0.2943  0.0233 -0.0743
10861W        W53774  20.355   2.060   8.765  0.1310 -0.1825  0.0484
10862W        W53775  12.381  16.801   8.720 -0.2920 -0.3055  0.2655
10863W        W53776  18.642   3.582   2.026 -0.0766  0.0580  0.1654
10864W        W53777  13.094   1.541   4.556 -0.1942 -0.2009  0.0641
10865W        W53778  19.803  10.793  27.634 -0.0711 -0.1624  0.1731
10866W        W53779   4.666  30.916  10.898  0.0156  0.2838  0.2123
10867W        W53780  16.910   2.436   4.942  0.1618 -0.0603  0.0244
10868W        W53781  15.433   6.451   9.568 -0.1888  0.1382  0.1578
10869W        W53782  22.647  17.380  20.746 -0.2347 -0.0246 -0.0895
10870W        W53783   5.899   9.568   7.912  0.0212 -0.2317  0.0967
10871W        W53784   9.839   6.197   3.794 -0.0329 -0.3845  0.0516
10872W        W53785   9.098  31.146  21.912 -0.0521  0.1014 -0.3415
10873W        W53786  22.123  14.670  29.509 -0.2767  0.3648  0.1428
10874W        W53787  14.531  12.408   5.529 -0.2967  0.1060 -0.0392
10875W        W53788  11.367   5.543   0.148 -0.1208  0.2064 -0.0021
10876W        W53789  27.544  25.694  28.330 -0.1523 -0.0345 -0.0640
10877W        W53790   9.626   7.799  11.529 -0.0957 -0.1526 -0.2304
10878W        W53791  27.862  23.746   6.656 -0.2079  0.1790  0.0787
10879W        W53792  21.369   8.317   2.478 -0.0564  0.0956 -0.1488
10880W        W53793  16.227   6.711  20.745  0.2289  0.1307 -0.1563
10881W        W53794  20.009  34.018   3.287 -0.2154 -0.0443 -0.3003
10882W        W53795  12.355  14.297  29.077 -0.1430 -0.0344  0.3384
10883W        W53796  14.732   9.266  21.316 -0.1237  0.1133 -0.1920
10884W        W53797  19.026  11.197   0.833 -0.1805  0.3865  0.1100
10885W        W53798  25.623   4.477  29.421 -0.0937  0.2182 -0.1515
10886W        W53799   9.320  34.256   5.986 -0.0392 -0.1663  0.1005
10887W        W53800  16.174   3.755  21.062 -0.0680 -0.2638  0.0921
10888W        W53801  21.197   8.464   5.754 -0.0625 -0.2199  0.0109
10889W        W53802  23.211  12.622  27.173 -0.0869 -0.0145  0.1347
10890W        W53803  30.988   9.143  28.283  0.1016 -0.0062 -0.0575
10891W        W53804  14.173  14.404  24.788  0.0801 -0.0056  0.0204
10892W        W53805  22.037  13.571   1.923 -0.2812 -0.1684 -0.1236
10893W        W53806  12.706  12.844   2.012 -0.0041  0.1391 -0.0469
10894W        W53807  12.566   2.699   3.741  0.1338 -0.0843  0.1894
10895W        W53808  25.509   3.356   0.440  0.2358  0.0038  0.1501
10896W        W53809  18.571   9.356  23.451  0.0597  0.1407  0.2804
10897W        W53810  15.101  11.084   4.339  0.1069 -0.0298 -0.0417
10898W        W53811   0.188   8.204   3.862 -0.1069  0.3928  0.1557
10899W        W53812  20.033   6.116  27.909  0.0191  0.1671 -0.1160
10900W        W53813  27.802   7.629   4.289  0.1559 -0.0999  0.1731
10901W        W53814  15.305  14.338  26.051 -0.0311  0.1290 -0.3385
10902W        W53815  11.373  14.310  24.187 -0.0567 -0.0619 -0.2714
10903W        W53816  14.374  34.156   0.846  0.0090 -0.0709  0.0836
10904W        W53817  23.484  14.531  28.128 -0.1437 -0.2324  0.0303
10905W        W53818   6.323   0.589  11.622 -0.4135  0.0737  0.0348
10906W        W53819  17.418  14.416   1.389 -0.0481 -0.1184 -0.2796
10907W        W53820  20.478   9.989  27.928  0.1171  0.0171 -0.3376
10908W        W53821  32.814  13.450   4.585  0.0606 -0.3552  0.2686
10909W        W53822  21.616   2.712   8.773  0.0995 -0.2255 -0.0297
10910W        W53823  21.533   1.813  25.638  0.1753 -0.1104  0.0702
10911W        W53824   5.188   6.187   0.337 -0.0768  0.2777 -0.2749
10912W        W53825   7.356   6.408   0.569 -0.1942  0.0471 -0.3910
10913W        W53826   5.417  11.214  25.989  0.0620 -0.2272 -0.2064
10914W        W53827  12.925  11.033   4.388  0.1935  0.0082  0.0078
10915W        W53828  17.186   3.301  28.788 -0.0104  0.1170  0.1930
10916W        W53829  22.420   9.172   3.986 -0.1664  0.1888  0.0210
10917W        W53830  12.829   4.902  29.037 -0.1834 -0.0174 -0.1016
10918W        W53831  16.878  10.867  19.936  0.0609  0.0082  0.0915
10919W        W53832  12.126   4.936   7.439 -0.2516  0.0953 -0.1725
10920W        W53833  18.103  13.198  29.742 -0.0714 -0.3851  0.3598
10921W        W53834  21.624   5.282  21.990  0.0978  0.0112  0.1310
10922W        W53835  12.252  19.550  19.554 -0.0674 -0.2220 -0.3444
10923W        W53836  18.649   0.349   6.587 -0.0594 -0.0900  0.1366
10924W        W53837  14.585  33.381  23.357  0.3491 -0.1242 -0.2655
10925W        W53838  19.533  11.332   3.661 -0.1679 -0.2999 -0.0055
10926W        W53839  28.774  12.477   9.416  0.1991  0.0629 -0.0579
10927W        W53840  22.126  17.575   4.187  0.1875 -0.0256  0.4466
10928W        W53841  17.469  27.726  22.504 -0.0569  0.2309  0.4204
10929W        W53842  14.298   6.058  28.799  0.0841  0.0776  0.0539
10930W        W53843  24.540  12.239  26.995  0.3949 -0.0367  0.2833
10931W        W53844   3.810   8.754  26.109  0.0908  0.0318 -0.0350
10932W        W53845   9.179  15.671   1.134  0.0934  0.1227 -0.0935
10933W        W53846  22.930  30.958  27.603 -0.0208 -0.4070  0.2610
10934W        W53847  26.877  11.855  28.620  0.2012 -0.2659 -0.0651
10935W        W53848  11.153   8.745  10.531 -0.2041  0.0364 -0.1664
10936W        W53849  14.866   0.559   1.128 -0.2144  0.1504 -0.0917
10937W        W53850  16.088   4.071   4.503 -0.1524  0.0024  0.2094
10938W        W53851  26.056  12.661   5.361 -0.1092 -0.0360 -0.3931
10939W        W53852  19.626  16.203  27.285  0.0565 -0.3940 -0.2558
10940W        W53853  19.375  12.601   8.068  0.2326 -0.0995 -0.2453
10941W        W53854  20.315  13.067   3.659  0.1532 -0.0763  0.0609
10942W        W53855  23.012  20.644  15.644 -0.3527  0.1643  0.1268
10943W        W53856  16.872   7.960   7.055 -0.1097  0.2518  0.2663
10944W        W53857  19.544   5.168   0.754 -0.1494  0.1709  0.1881
10945W        W53858  12.891   4.714   5.709 -0.2440  0.0339 -0.0604
10946W        W53859  17.422   9.354   1.911 -0.1397 -0.0261 -0.0607
10947W        W53860  10.163  15.046  27.871 -0.1105 -0.0200 -0.0354
10948W        W53861  25.815   5.515   4.615  0.0196  0.2069  0.0353
10949W        W53862  17.859  15.185  29.129  0.2060 -0.4913 -0.0412
10950W        W53863  17.365   3.230  28.310  0.2730 -0.1975 -0.1841
10951W        W53864  15.306   1.220   1.775  0.2807 -0.0036  0.4703
10952W        W53865  15.099  10.322   7.853 -0.1704  0.0573 -0.4371
10953W        W53866  19.548   4.364   8.122 -0.1511 -0.1140  0.0399
10954W        W53867  23.618   5.940   1.183  0.0644 -0.2538 -0.2830
10955W        W53868   8.507  27.178   9.537  0.1593 -0.2235 -0.0405
10956W        W53869  28.456   5.796   0.736 -0.2232 -0.2450 -0.0954
10957W        W53870  27.519  13.743   2.136 -0.1766  0.1436 -0.2293
10958W        W53871  12.901  31.583   3.215 -0.2419 -0.0055  0.0344
10959W        W53872  29.564  32.595   9.306 -0.2275 -0.3321 -0.0348
10960W        W53873  23.451  30.434  25.513  0.0107  0.3281 -0.0164
10961W        W53874  18.849  13.493   0.706 -0.3029 -0.1813  0.1353
10962W        W53875  25.028   8.813   8.536  0.0266  0.1256 -0.1773
10963W        W53876  23.373   3.332  24.844 -0.2132  0.0099 -0.0199
10964W        W53877  23.135   4.991   2.341 -0.1122 -0.2234 -0.0804
10965W        W53878  20.177  15.179  24.698 -0.0127 -0.0632 -0.0784
10966W        W53879  22.129   3.669   2.991  0.0767  0.0377 -0.3097
10967W        W53880  26.790   2.567  23.886  0.1651 -0.1384  0.1148
10968W        W53881  21.272   2.839   6.839 -0.0378  0.1650  0.0493
10969W        W53882  15.511   7.213   0.192  0.2019 -0.0685  0.3530
10970W        W53883  24.846   8.993   9.015  0.0601 -0.0850  0.0100
10971W        W53884   9.768   3.269   1.217 -0.4996  0.0563  0.1966
10972W        W53885  18.359   7.233   4.256  0.1063 -0.2500  0.2701
10973W        W53886  15.916   3.485   3.526  0.0429 -0.2087 -0.1842
10974W        W53887  20.024   7.774   2.244 -0.2925 -0.0043  0.1626
10975W        W53888  31.518  16.177  22.759  0.1452  0.0570 -0.0143
10976W        W53889  25.344   4.232   3.157 -0.1484 -0.1115 -0.2859
10977W        W53890  19.901   5.404   1.087 -0.1455 -0.0785 -0.0362
10978W        W53891  16.410   0.935   4.175  0.2689  0.0031 -0.0624
10979W        W53892  18.435  12.698   7.387  0.0753  0.2789  0.0275
10980W        W53893  19.405  29.934  17.690 -0.2192 -0.1523 -0.0830
10981W        W53894  24.195   6.938   2.646  0.2618  0.0058  0.2953
10982W        W53895  14.383  27.269   0.959 -0.1475  0.4952 -0.0472
10983W        W53896   1.915   9.180   5.057 -0.2876 -0.2160  0.1349
10984W        W53897  20.876   8.854  24.163 -0.3296  0.1113 -0.0175
10985W        W53898  13.663  20.658   9.073  0.0794  0.0810 -0.1956
10986W        W53899  16.370   9.833  14.620  0.2972  0.3411 -0.2683
10987W        W53900  19.233   4.034   7.915  0.1584 -0.2603  0.3050
10988W        W53901  23.077   4.908   4.302 -0.3180  0.0331 -0.2299
10989W        W53902  17.589   1.218   7.638  0.1052  0.1777  0.0477
10990W        W53903  12.809   8.393   4.456 -0.0776  0.4114  0.1093
10991W        W53904  23.163   2.398   9.707  0.1262  0.0988  0.1507
10992W        W53905  19.733   3.161   3.835 -0.0171  0.0859 -0.4477
10993W        W53906  14.991   3.776  29.085  0.0122 -0.2339  0.1311
10994W        W53907  17.433   9.119  25.341 -0.0029  0.0829 -0.0707
10995W        W53908  20.079  34.362   0.565 -0.1838 -0.2302 -0.6481
10996W        W53909  16.133   4.779   5.444  0.0805 -0.2179  0.0006
10997W        W53910  22.963   8.262   5.906  0.1637 -0.1858  0.1604
10998W        W53911  18.112   0.011   2.861 -0.0616  0.1354 -0.1996
10999W        W53912  24.481  34.077   0.488  0.0055 -0.1448 -0.0298
11000W        W53913  28.961  11.306   9.966  0.2443  0.2496  0.2365
11001W        W53914  16.002  34.029   4.301  0.1821 -0.0471  0.0842
11002W        W53915  32.909   5.380   1.178 -0.4084 -0.2899  0.1831
11003W        W53916  22.603   9.371  25.631  0.0333  0.1602 -0.0369
11004W        W53917   6.057   1.452   6.301  0.0410 -0.1203  0.1009
11005W        W53918  24.300   9.174   5.832  0.4809  0.1886 -0.1104
11006W        W53919  29.747   7.876   9.546 -0.2624  0.2651  0.0666
11007W        W53920  17.189  32.578   7.763  0.0239  0.0555  0.1225
11008W        W53921  24.170  25.658   8.364  0.2865 -0.0304  0.2149
11009W        W53922   7.546   3.842  27.655 -0.1862 -0.0437 -0.3456
11010W        W53923   8.437   3.602   1.981  0.2535  0.0834 -0.0127
11011W        W53924  30.105  29.605  28.171 -0.0119 -0.4560  0.3020
11012W        W53925  14.301  18.787  16.668 -0.0672 -0.0630  0.0357
11013W        W53926  24.754  14.082   1.516 -0.1146 -0.0551  0.0195
11014W        W53927  12.842  10.723   8.903  0.3466 -0.0493 -0.4555
11015W        W53928  19.665   8.425  27.637  0.0816  0.2152 -0.0296
11016W        W53929  25.882  31.720   4.116 -0.1344  0.0583 -0.0052
11017W        W53930  24.381  31.582  27.549  0.2740  0.1628 -0.0721
11018W        W53931  17.268  14.260  20.993 -0.3028  0.1080  0.0668
11019W        W53932  21.905   2.301  27.881 -0.0144 -0.2572  0.0864
11020W        W53933  23.321   8.477   8.837  0.0038  0.0194  0.5049
11021W        W53934  19.269  17.074  27.041  0.2317 -0.0654  0.0146
11022W        W53935  29.990   5.801   1.233 -0.0595 -0.0975  0.1660
11023W        W53936  25.832   8.454   8.364  0.0002  0.1345 -0.2960
11024W        W53937  17.491   0.356   4.646  0.2135 -0.0122  0.1070
11025W        W53938  13.184  33.401   6.220 -0.0669  0.1614 -0.0818
11026W        W53939  15.210   1.437  23.919 -0.0922 -0.2935 -0.2489
11027W        W53940   3.095  11.050   0.088  0.4124 -0.0311 -0.2188
11028W        W53941  25.744  13.496   3.828 -0.0951  0.0072 -0.3802
11029W        W53942  17.918  13.085   4.188 -0.2711  0.1355 -0.0364
11030W        W53943  15.883   5.244   5.073 -0.2899 -0.3034  0.0633
11031W        W53944  13.177   8.505   1.650 -0.0627 -0.0779  0.0324
11032W        W53945  11.383   3.710   1.785 -0.1995 -0.1164  0.5168
11033W        W53946  18.000  32.546  16.802  0.0211  0.0027  0.2759
11034W        W53947  29.277  26.126  28.920 -0.0630 -0.0093 -0.1262
11035W        W53948  15.048   0.906  28.844  0.2249  0.3673  0.3834
11036W        W53949  25.327   8.124   3.214  0.1811  0.0346 -0.0060
11037W        W53950  20.007  34.221  26.916 -0.3915  0.0322 -0.2391
11038W        W53951  23.667  13.938  27.211  0.2484  0.0954  0.2219
11039W        W53952   9.695   9.282   7.196  0.0051  0.3400 -0.3041
11040W        W53953   7.580   9.565  25.050 -0.0184 -0.0385  0.2086
11041W        W53954  22.873  13.534   3.507  0.0015  0.0174 -0.0677
11042W        W53955  22.424  11.163   4.960 -0.2529 -0.0546 -0.1255
11043W        W53956  25.438   6.137   6.088 -0.1741  0.2314 -0.0199
11044W        W53957  19.948  31.293  21.290  0.1225  0.0883 -0.2483
11045W        W53958  27.531   3.270   6.104 -0.2002 -0.2794  0.0680
11046W        W53959  13.722   2.296   1.622 -0.1841 -0.0828 -0.2376
11047W        W53960  16.966   6.268   9.974  0.0459  0.0530  0.0509
11048W        W53961  12.235   9.657  22.622  0.0243 -0.2585 -0.0053
11049W        W53962  21.113   9.729   0.878 -0.1760 -0.1873  0.1907
11050W        W53963  26.025   4.720   3.443 -0.2016  0.1926 -0.0822
11051W        W53964  17.942   9.011   8.465 -0.1606  0.1116  0.3615
11052W        W53965  24.573  22.428   5.747  0.0245  0.2173  0.1166
11053W        W53966  21.008   2.345   1.817  0.0417 -0.1281  0.1985
11054W        W53967  21.623  11.141  27.688  0.0380  0.1882  0.2560
11055W        W53968   9.479   5.051   9.587  0.2119 -0.1146  0.1783
11056W        W53969  19.097   9.471  29.200  0.0963  0.1621 -0.0196
11057W        W53970  22.699  31.983   0.395 -0.1471  0.0996  0.0580
11058W        W53971  13.934   5.884   3.092  0.1197 -0.1013  0.1933
11059W        W53972  21.107   2.137   9.786  0.1301  0.2200 -0.1883
11060W        W53973  28.197  22.352  23.758 -0.0661 -0.2066 -0.1260
11061W        W53974  16.652  10.868  26.494 -0.0213 -0.1740 -0.0617
11062W        W53975  17.498  13.473   1.220 -0.2312  0.1478  0.0635
11063W        W53976  17.203  17.774   0.324  0.1672  0.1555 -0.0065
11064W        W53977  30.195   6.332   4.368 -0.0896  0.1218 -0.1070
11065W        W53978  13.137   7.979  22.438  0.2256 -0.1148  0.2503
11066W        W53979  15.837  27.042   0.881  0.3453  0.2785  0.1506
11067W        W53980  21.844   4.810  27.441  0.0874  0.0002  0.0237
11068W        W53981  21.544   6.800  27.313 -0.0552  0.5196  0.0957
11069W        W53982  27.805  10.381   9.762 -0.1388  0.2895  0.0623
11070W        W53983  18.166   5.618   8.707  0.2045 -0.2348  0.0715
11071W        W53984  17.835  15.236   2.825  0.3381 -0.2294  0.2067
11072W        W53985  28.269   6.638   9.963  0.2042 -0.0253 -0.0258
11073W        W53986  25.517  32.027  29.223  0.2277 -0.2642  0.0206
11074W        W53987  19.728  16.742   0.977 -0.4752  0.2835 -0.2930
11075W        W53988  20.615   4.299  21.009 -0.2512  0.4383 -0.3200
11076W        W53989  17.540  12.826   8.191 -0.1220 -0.3393  0.4694
11077W        W53990  14.378  16.123   1.523  0.1407 -0.1942 -0.1895
11078W        W53991  17.024  20.771  28.081  0.1543  0.0473 -0.0591
11079W        W53992  29.033   9.144  28.621 -0.0673 -0.2943 -0.0121
11080W        W53993  28.449  12.759   8.673 -0.0340  0.0120  0.1927
11081W        W53994  14.674  12.570   0.479 -0.2105 -0.2157  0.1138
11082W        W53995  22.677   9.063  24.077 -0.0860  0.2445 -0.0787
11083W        W53996  13.645  13.351   1.098 -0.0129  0.2983  0.1083
11084W        W53997  15.567  32.707   0.706  0.0765 -0.1825 -0.1775
11085W        W53998  16.706  10.203   6.953 -0.2545  0.1336  0.1331
11086W        W53999  10.461   3.324   0.118  0.1860 -0.1237  0.2561
11087W        W54000  27.745  11.894  27.067 -0.0109  0.1584 -0.1625
11088W        W54001  17.571   5.591   5.077 -0.1923 -0.1640 -0.1479
11089W        W54002  11.822   7.109   6.535  0.0730  0.1466  0.1295
11090W        W54003  31.121  31.380   6.459 -0.3113  0.3210 -0.0398
11091W        W54004  19.379  31.890  23.183 -0.2145 -0.1611  0.1181
11092W        W54005  19.265   0.946   6.229 -0.0110  0.0370 -0.0228
11093W        W54006  21.191  14.597  19.756  0.2585  0.1682 -0.0161
11094W        W54007  15.635  10.969  22.884  0.0265 -0.4141 -0.0811
11095W        W54008  13.707  15.242  25.757 -0.3836  0.2163 -0.1556
11096W        W54009  20.156  14.974  29.367  0.1334  0.0385  0.2019
11097W        W54010   9.896  10.791  28.181 -0.2158 -0.0804 -0.1881
11098W        W54011  22.033  13.505   1.002  0.0212 -0.0201 -0.3242
11099W        W54012  31.056  10.867  27.024  0.1337  0.1404  0.1741
11100W        W54013  10.095   7.099   1.276 -0.0757 -0.0066 -0.0194
11101W        W54014   3.957  11.740  28.383 -0.1642  0.1370  0.0844
11102W        W54015   9.409  34.083   8.683  0.0764 -0.2269 -0.1374
11103W        W54016  10.330   8.838   2.837  0.0584 -0.2289  0.1664
11104W        W54017  22.047   5.242   8.041 -0.2554 -0.2232  0.1853
11105W        W54018  14.857  31.215  15.093 -0.0383  0.1338  0.1388
11106W        W54019  19.371  11.153  15.727  0.0652 -0.1340  0.1122
11107W        W54020  23.898  25.026   6.901  0.1109  0.0641  0.1175
11108W        W54021  22.993  11.074   5.133 -0.1330 -0.1583 -0.0182
11109W        W54022  27.923   6.557  23.263  0.0631 -0.0943  0.1620
11110W        W54023  27.060   0.315  23.820  0.2026  0.2968  0.0183
11111W        W54024  17.468   1.886  28.029 -0.2940  0.3011 -0.3043
11112W        W54025  26.155  12.465  22.971  0.2988  0.1930  0.2448
11113W        W54026  24.165   4.494  28.303  0.0690 -0.2250 -0.0361
11114W        W54027   8.815   6.393   1.712 -0.0858  0.2822 -0.0651
11115W        W54028  26.080   8.811   8.741 -0.3900  0.2632  0.2509
11116W        W54029  21.944   6.552   1.201  0.4482 -0.3082 -0.0224
11117W        W54030  25.136  17.882  27.032  0.1565 -0.0553  0.1447
11118W        W54031  19.027   0.608   9.604  0.1929 -0.0491  0.1058
11119W        W54032  24.134   8.528   9.380  0.1338 -0.2281  0.0590
11120W        W54033  12.489  34.351  27.062 -0.3505 -0.2074  0.0937
11121W        W54034  16.755  13.323  26.537 -0.0875 -0.3253 -0.2557
11122W        W54035  21.792   6.018  27.780  0.0075 -0.2373 -0.0480
11123W        W54036  13.693   0.950   2.116  0.0552 -0.0252  0.0545
11124W        W54037  21.884  10.282   8.424  0.2002 -0.1342 -0.2268
11125W        W54038  14.536  13.494  27.198 -0.0005  0.3013 -0.1149
11126W        W54039  13.933  18.449   6.181  0.1631  0.1313 -0.0981
11127W        W54040  15.402  31.845   1.876 -0.0341 -0.0051  0.3368
11128W        W54041   8.430  11.134   7.782  0.1053  0.4017 -0.0662
11129W        W54042  28.028  23.635   5.335 -0.0565  0.0472 -0.0004
11130W        W54043  19.190  11.330  27.986  0.1288  0.1270 -0.3553
11131W        W54044  30.363  14.352   6.623  0.0609  0.2216 -0.2104
11132W        W54045  17.815   4.602   0.301 -0.2886 -0.0218 -0.0580
11133W        W54046  12.832  16.196  24.869  0.1538  0.0787  0.0889
11134W        W54047  17.280  16.203  26.672  0.3165 -0.2679 -0.0654
11135W        W54048  15.723   8.063   2.006 -0.2711 -0.1038  0.4485
11136W        W54049  16.463  10.395   2.098 -0.1757  0.1822 -0.0455
11137W        W54050  17.753   8.819   6.676  0.1521 -0.2163  0.0231
11138W        W54051  14.886   3.575  25.348 -0.0792  0.0630  0.4125
11139W        W54052   8.538  12.784   0.037  0.1905  0.2405  0.1227
11140W        W54053  18.046  16.239   5.908 -0.0773 -0.0077  0.0703
11141W        W54054  18.885   3.565   4.916  0.0731 -0.0482 -0.2369
11142W        W54055   6.298  34.395   0.075 -0.1601 -0.1188  0.0832
11143W        W54056  19.468  10.046  22.522  0.2750  0.2453 -0.1845
11144W        W54057  20.512  26.911   4.922 -0.2577 -0.0045 -0.0446
11145W        W54058  15.303   9.834   4.383 -0.0253 -0.2301  0.2206
11146W        W54059   5.328   5.414   9.983  0.2855 -0.0142 -0.2159
11147W        W54060   9.553   8.507  11.085  0.0248 -0.1266 -0.0605
11148W        W54061  29.112  15.005   6.282  0.0398  0.0897  0.2573
11149W        W54062  17.211  33.488   4.157  0.0233  0.1502 -0.1180
11150W        W54063  16.272  10.521   0.197  0.0394 -0.3019  0.1405
11151W        W54064  16.389  14.183   1.836  0.0079 -0.4354  0.2076
11152W        W54065  12.520   1.206   0.938 -0.2818  0.1698  0.0633
11153W        W54066  21.601  14.832   7.972  0.0552  0.1562 -0.0196
11154W        W54067  13.240  14.458   8.763  0.0486  0.2136 -0.0775
11155W        W54068  16.688  12.672   8.153  0.0370 -0.0179 -0.1797
11156W        W54069  11.538   6.239  25.159  0.2775  0.0093 -0.0631
11157W        W54070  23.668   4.555   0.625 -0.1426  0.0067 -0.1595
11158W        W54071  16.644   7.161   3.930  0.1289 -0.0787  0.0529
11159W        W54072  21.280   9.310   0.614 -0.2653  0.3983  0.3475
11160W        W54073  16.902  13.429  29.241  0.0678  0.0493  0.1958
11161W        W54074  16.522   1.943  10.772 -0.1009 -0.2001  0.0460
11162W        W54075  25.157   8.648  29.651  0.0965 -0.2958  0.0576
11163W        W54076   5.799   3.908   8.594  0.2237  0.1064 -0.0929
11164W        W54077  24.806   7.302   6.808  0.0912  0.0374 -0.2308
11165W        W54078   3.017  11.763   2.665  0.2390 -0.0885  0.3666
11166W        W54079  29.044   4.324   4.784 -0.2176 -0.2711 -0.1850
11167W        W54080  17.366  17.364  25.305  0.2431  0.1665 -0.1971
11168W        W54081  11.570   5.701  10.203 -0.2534  0.1825 -0.0978
11169W        W54082  25.238   8.277   2.217  0.1310  0.0014 -0.3476
11170W        W54083  12.845  11.784   0.573 -0.2475  0.2521  0.0748
11171W        W54084  25.017  12.884   4.772 -0.2512 -0.1541 -0.2075
11172W        W54085  19.937   6.439   1.690 -0.0395 -0.3276 -0.0753
11173W        W54086  16.392   6.015  10.447 -0.0089  0.0169 -0.2304
11174W        W54087  28.067  16.966   8.246  0.1822  0.2497  0.0127
11175W        W54088  18.574   8.471  28.943 -0.2031 -0.0780 -0.1078
11176W        W54089   8.402  12.181   8.061  0.0869 -0.2460  0.1412
11177W        W54090   9.786  11.735   7.114  0.0323 -0.2288  0.1623
11178W        W54091  26.897   7.982  28.417 -0.2251  0.0781  0.0333
11179W        W54092  16.153   9.945   8.366 -0.1681 -0.0899 -0.0720
11180W        W54093  32.390  21.112   9.928 -0.0101 -0.0709 -0.2000
11181W        W54094  16.939  12.586  27.951  0.0069  0.0078 -0.3405
11182W        W54095  28.293   3.947   9.883 -0.0703 -0.3557  0.1046
11183W        W54096  15.678  19.081   7.541  0.2099 -0.4540  0.0221
11184W        W54097  11.377  24.542   3.445 -0.1192 -0.0441  0.0310
11185W        W54098  20.886   3.471   9.560 -0.2858 -0.0457  0.0064
11186W        W54099   1.379  33.252   6.368 -0.2717  0.1464  0.1029
11187W        W54100  25.073  17.599   7.736  0.0702  0.1044 -0.3431
11188W        W54101  20.234   4.811   7.825  0.4420 -0.2497 -0.3237
11189W        W54102  30.071  10.060  26.118 -0.5580 -0.0180 -0.0686
11190W        W54103  11.869   6.987   1.903  0.2586 -0.1317  0.3976
11191W        W54104  12.950   9.328   9.883  0.0540 -0.0943 -0.1181
11192W        W54105   1.457   0.577   8.857  0.1199  0.2366  0.1150
11193W        W54106  25.412  12.118   4.944 -0.0693  0.1259 -0.0956
11194W        W54107  21.979  13.317   5.561 -0.1911 -0.0850 -0.2346
11195W        W54108  24.024  11.339   4.247  0.0569 -0.1608 -0.0666
11196W        W54109  17.088  17.609   6.549  0.2365 -0.3292 -0.1070
11197W        W54110  15.588   9.509   5.820  0.0821  0.1958  0.1797
11198W        W54111  19.924  19.407   3.921  0.3365 -0.1355 -0.1471
11199W        W54112  16.737   1.668   9.069 -0.1149  0.3404 -0.1346
11200W        W54113   8.781  29.716   5.533  0.1979 -0.0917  0.0351
11201W        W54114  10.562  13.089  26.327 -0.0198  0.1587  0.1600
11202W        W54115  22.493  17.886   3.312 -0.2567 -0.0632 -0.1438
11203W        W54116  11.524  14.566  27.036  0.2632 -0.1358  0.2907
11204W        W54117  11.060  17.059   5.393 -0.3594 -0.0632  0.1614
11205W        W54118  23.603   4.080   9.558 -0.0151  0.1131 -0.2020
11206W        W54119  14.657   9.872   7.832 -0.3328 -0.0080  0.0607
11207W        W54120  23.225  12.511   5.233 -0.1508 -0.1281 -0.0359
11208W        W54121   7.428  32.546   7.314  0.1009  0.2020 -0.2704
11209W        W54122  19.363  10.334   0.190  0.1619  0.0494  0.0502
11210W        W54123  12.005  14.286  28.033  0.0855  0.1908 -0.0901
11211W        W54124  21.221   0.982   1.847 -0.2055 -0.2123 -0.0334
11212W        W54125  25.918  13.259   6.853 -0.0329 -0.1385 -0.0455
11213W        W54126  21.305  15.750  19.774  0.2154 -0.3817  0.0222
11214W        W54127  10.070   3.859  26.932 -0.2440  0.0567  0.0366
11215W        W54128  17.760  11.132   8.232  0.2634 -0.0818  0.2786
11216W        W54129  14.621  11.051   0.799  0.1137 -0.1693 -0.1445
11217W        W54130  21.676   8.247   9.399  0.3763 -0.3407  0.0595
11218W        W54131  23.631   0.303   5.658 -0.0510 -0.1630 -0.1760
11219W        W54132  17.237  10.156   8.036 -0.2811 -0.0077  0.4199
11220W        W54133  20.936   9.212   0.946  0.0698  0.2485  0.0988
11221W        W54134  10.950   6.004   0.756 -0.1407  0.0084  0.0331
11222W        W54135  23.831  11.722  28.556 -0.0647 -0.0654  0.3537
11223W        W54136  21.170  11.937   4.525 -0.4828  0.4149 -0.2105
11224W        W54137  18.336   5.930   9.247 -0.2204 -0.2069 -0.1190
11225W        W54138   3.132   2.134   5.732  0.0949 -0.0335 -0.0612
11226W        W54139  27.774   5.880   0.139 -0.1013 -0.0357 -0.0142
11227W        W54140  23.602   4.260   4.578 -0.0203  0.1235 -0.1944
11228W        W54141   9.943   7.551  27.227  0.0611  0.0783 -0.1393
11229W        W54142  15.770  24.007  27.379 -0.0991 -0.0975 -0.1405
11230W        W54143  22.995   7.691  28.119 -0.0797 -0.3647 -0.2273
11231W        W54144  17.666   1.356  24.425 -0.2596 -0.3364 -0.2720
11232W        W54145  20.494   5.306   2.088 -0.1793  0.0755 -0.0638
11233W        W54146  27.121   9.853   7.876 -0.1628 -0.0791 -0.0365
11234W        W54147  15.160   2.539   2.676 -0.0195  0.0668  0.0502
11235W        W54148  33.915  15.058   7.779  0.3426  0.3187  0.1899
11236W        W54149  21.434  12.751   2.286 -0.2517 -0.3169  0.0143
11237W        W54150   8.763  18.323  22.328  0.0992 -0.0539  0.1195
11238W        W54151  33.128   1.218  28.241 -0.0019 -0.3067  0.0707
11239W        W54152  20.907   3.257   8.521 -0.0641 -0.1997  0.0833
11240W        W54153  23.812  10.103   5.291  0.2017 -0.2794  0.0259
11241W        W54154  30.171   3.687  10.228 -0.1123  0.0230 -0.1836
11242W        W54155  14.783   0.487   9.143 -0.0849  0.1889 -0.1303
11243W        W54156  29.151  17.834   7.098 -0.0420 -0.2117 -0.3948
11244W        W54157  23.694  13.013   3.716 -0.1874  0.1069  0.2861
11245W        W54158  11.395   8.627  27.860  0.2893  0.0078  0.0472
11246W        W54159  23.095   9.277  21.637 -0.0463  0.0802  0.2014
11247W        W54160   1.004  11.825  27.791  0.0490  0.0220  0.0142
11248W        W54161  15.325  22.169   0.656 -0.2280 -0.0850  0.0386
11249W        W54162  17.443  32.995   6.569  0.2056  0.0918 -0.0897
11250W        W54163  23.720  14.235   5.005 -0.0578  0.0086 -0.0663
11251W        W54164  18.865   5.740   5.756 -0.2036 -0.0528 -0.4605
11252W        W54165  28.791   3.225  28.438  0.2022 -0.3695  0.1525
11253W        W54166  15.857   2.998   3.126  0.0058  0.2183 -0.0341
11254W        W54167   0.158   9.427  27.728  0.2683 -0.0841  0.3824
11255W        W54168  20.989   3.313   9.090 -0.0116  0.2967  0.3770
11256W        W54169  11.356  12.439   5.777  0.0207  0.1506 -0.1274
11257W        W54170  22.541   9.799  29.248 -0.0186 -0.1714 -0.2546
11258W        W54171  20.260   6.716   2.105 -0.1707 -0.0849  0.1571
11259W        W54172  12.531   1.641   5.378  0.0644 -0.1391  0.1767
11260W        W54173  20.818  28.016   5.972  0.0493 -0.1011  0.0198
11261W        W54174  20.884   7.087   7.643 -0.5355 -0.0666 -0.2455
11262W        W54175  13.797   4.903   5.606  0.1620  0.0607  0.0766
11263W        W54176  27.358  26.702   6.408  0.1208  0.1840 -0.1460
11264W        W54177  23.526  14.505   6.745  0.2485  0.0555  0.1800
11265W        W54178  24.920   5.136   5.758 -0.1689 -0.2064  0.0070
11266W        W54179  32.805   3.571   9.022  0.0548 -0.0946  0.2847
11267W        W54180  16.327   7.490   9.354  0.2866 -0.0371  0.2025
11268W        W54181  24.058   7.434   9.565 -0.2981 -0.0564  0.1090
11269W        W54182   6.119   8.588   2.931 -0.0391 -0.3584  0.0851
11270W        W54183  14.331  12.188   2.301  0.0576  0.0934  0.1434
11271W        W54184   6.542   9.964  26.426  0.0064 -0.0284 -0.3581
11272W        W54185  15.294   4.813   4.693 -0.1181  0.4495 -0.0171
11273W        W54186  11.523   0.964   8.265  0.0837  0.0309 -0.2297
11274W        W54187  28.542   4.741   9.717  0.2568 -0.2851 -0.0075
11275W        W54188  16.628  20.197  28.948  0.3046  0.2556  0.1958
11276W        W54189  19.855   7.932  28.007  0.1848 -0.2249 -0.3381
11277W        W54190   7.741   9.344  25.927  0.0845  0.3375  0.1958
11278W        W54191  18.458  18.525  28.285  0.0549  0.0373 -0.1562
11279W        W54192   8.749   3.736  11.739 -0.0030  0.0538 -0.0117
11280W        W54193  23.298  32.997   7.607  0.0343 -0.2169 -0.0965
11281W        W54194  10.280   1.557   0.050  0.2569 -0.1913  0.2790
11282W        W54195  32.333   7.541   7.686 -0.2174 -0.1686 -0.3594
11283W        W54196  16.110   7.100   3.634 -0.3249  0.0863 -0.1129
11284W        W54197  18.885  12.670   8.201  0.0996 -0.2756  0.0203
11285W        W54198  20.595   8.042   7.148  0.0149 -0.1482  0.2980
11286W        W54199  21.014  14.288   5.959 -0.2159  0.3082 -0.1053
11287W        W54200  20.386   4.651   3.570  0.1762 -0.0422 -0.0783
11288W        W54201  17.372   2.323  28.776 -0.0098 -0.0394 -0.2069
11289W        W54202  17.951  16.317  29.215  0.1193  0.2221  0.3282
11290W        W54203  23.249   9.794   3.377  0.0469 -0.0179  0.0560
11291W        W54204  21.968  10.622  27.042 -0.1987 -0.0753  0.1449
11292W        W54205  25.952  28.219  29.437  0.1270  0.0872  0.1293
11293W        W54206  19.967   4.682   4.750  0.0201 -0.1080 -0.0290
11294W        W54207  19.656  14.742   5.524 -0.1933 -0.2636 -0.0028
11295W        W54208  28.831   0.140   5.725  0.2653 -0.0002 -0.0030
11296W        W54209  25.149   9.747   6.581  0.0241 -0.0696 -0.1525
11297W        W54210  20.960  11.639  28.475 -0.4743 -0.2168 -0.0831
11298W        W54211  18.055  16.893   4.952  0.1651 -0.3047 -0.0953
11299W        W54212  22.777   8.061  25.572 -0.3628 -0.1483 -0.2379
11300W        W54213  24.540  18.015  26.403  0.4729  0.0906  0.1272
11301W        W54214  18.262  33.667   5.398  0.2984  0.3798  0.0401
11302W        W54215  17.104  17.080  25.702 -0.3067  0.0946  0.2176
11303W        W54216  20.479  19.480  23.964 -0.2093  0.3660  0.3683
11304W        W54217  26.632   8.104   8.114 -0.2196  0.0507  0.0330
11305W        W54218  14.370   8.015   0.030  0.0741 -0.1938  0.3256
11306W        W54219  16.227  12.483  23.194 -0.1285 -0.0089  0.1733
11307W        W54220  24.217  10.929   3.290  0.0701 -0.0994 -0.0428
11308W        W54221  25.393   8.665   6.539 -0.1050 -0.2013  0.0747
11309W        W54222  31.727   6.744   4.001  0.1752  0.0859 -0.3315
11310W        W54223  12.400   6.114  11.340  0.2554  0.1193 -0.0072
11311W        W54224  19.141  14.126   4.337  0.1350 -0.1085 -0.0025
11312W        W54225  13.503   9.978   2.902  0.2013  0.3016  0.1604
11313W        W54226  13.117  14.218   5.532  0.0189 -0.0679 -0.0896
11314W        W54227  21.599   1.450  29.492 -0.0926 -0.0701 -0.1259
11315W        W54228  20.392   4.886  24.066  0.2125  0.0344  0.2520
11316W        W54229  16.758   9.293   3.610  0.0450 -0.0499 -0.1840
11317W        W54230   5.369  16.560   7.123 -0.0127  0.1337  0.1873
11318W        W54231  20.156  10.834   5.795  0.0544 -0.1427 -0.2656
11319W        W54232  13.996   2.502  11.811 -0.0866 -0.2864 -0.0579
11320W        W54233   2.436  13.529   4.540 -0.0432 -0.2684 -0.0872
11321W        W54234  30.077   1.953   3.456 -0.3048  0.1604  0.0242
11322W        W54235  26.737   9.961   6.635 -0.0014 -0.3359 -0.1988
11323W        W54236  14.715   7.983   6.096 -0.0289 -0.1956 -0.0025
11324W        W54237  13.646  16.751   1.490  0.0881  0.1589 -0.0067
11325W        W54238  26.618  18.785   8.983 -0.2319  0.2286 -0.0152
11326W        W54239  21.671   3.421   1.181 -0.0602 -0.2903  0.1359
11327W        W54240  19.179   4.596   7.230  0.2284  0.2006 -0.1174
11328W        W54241  20.910   5.224   4.887 -0.0756  0.1067  0.2661
11329W        W54242  24.821  13.708   0.006  0.2265 -0.0974 -0.1198
11330W        W54243  23.697   7.840   5.374  0.1857  0.0959  0.2821
11331W        W54244   1.480   3.827   5.795  0.0948 -0.3204 -0.1726
11332W        W54245  22.904   4.858   5.920  0.1998 -0.0401 -0.2386
11333W        W54246  13.321   2.622  27.628  0.0720 -0.1278  0.1138
11334W        W54247  30.822  18.731   0.795 -0.0195  0.1009 -0.1205
11335W        W54248  23.776   3.637   1.784 -0.1508  0.0064 -0.0035
11336W        W54249  20.414   7.324   8.728  0.1696  0.1689  0.1111
11337W        W54250  20.237  12.270  23.729  0.1515 -0.2850  0.2074
11338W        W54251  10.485  12.400  28.466 -0.0956 -0.0539  0.3401
11339W        W54252  25.610  11.444   8.655  0.0397 -0.1130 -0.0614
11340W        W54253  18.224  14.557  28.246 -0.0774  0.0445  0.0839
11341W        W54254  19.871   6.149   6.378  0.0217  0.1339 -0.0643
11342W        W54255  26.398   2.878   5.847  0.0597 -0.2556 -0.0764
11343W        W54256   9.509   6.247   5.333  0.1743  0.1439 -0.2248
11344W        W54257  17.380  32.173  29.362  0.0763  0.4882 -0.1309
11345W        W54258  25.443  17.831   6.932 -0.0674  0.1065 -0.2143
11346W        W54259  21.068   0.685   8.158 -0.0516  0.2437 -0.2189
11347W        W54260  30.166   1.407   9.508 -0.0140 -0.0840  0.0873
11348W        W54261  27.553  10.988   9.121 -0.1105  0.1136 -0.1785
11349W        W54262  25.735  25.339  19.296 -0.0792 -0.0762  0.1754
11350W        W54263  12.759  13.830   2.170  0.2599 -0.0290 -0.0148
11351W        W54264  17.150   4.646   8.874  0.0098 -0.0374 -0.1443
11352W        W54265  20.110  23.889  21.024  0.0204  0.1415  0.0972
11353W        W54266  18.121   4.173   8.431 -0.2296  0.0301  0.1184
11354W        W54267  15.767  33.925   6.229  0.1196 -0.1726 -0.1848
11355W        W54268  18.922   5.169   7.998 -0.1134  0.0298 -0.0295
11356W        W54269  29.216  21.206   3.549 -0.0027 -0.1200  0.3883
11357W        W54270  19.301  13.448   3.954 -0.1652  0.2315 -0.0219
11358W        W54271   6.654   9.444   4.256  0.0460  0.2195 -0.3164
11359W        W54272  15.822   4.342  29.377  0.0144  0.0232 -0.0685
11360W        W54273  18.088   1.637   8.504  0.0835 -0.0752 -0.0317
11361W        W54274  24.383  12.094   7.144 -0.3243 -0.2136 -0.1963
11362W        W54275  15.722   6.917   4.348 -0.0216 -0.3282  0.1219
11363W        W54276  13.129  33.120   5.712  0.4095 -0.2310 -0.3478
11364W        W54277  11.237   8.371  28.267 -0.1379  0.0275 -0.0304
11365W        W54278  13.986  11.609   8.010  0.0487 -0.1379 -0.1546
11366W        W54279  14.507   1.149   2.551  0.2200  0.1113  0.0543
11367W        W54280  16.782   5.916   0.709 -0.1224 -0.2017 -0.0511
11368W        W54281  17.103   4.497   1.374  0.1207  0.0492  0.0971
11369W        W54282  25.185  14.432   9.299  0.3141 -0.1412  0.2056
11370W        W54283  16.135  10.339   2.567 -0.0031 -0.0574 -0.0968
11371W        W54284  11.191  12.379  29.124 -0.0026 -0.1280  0.2873
11372W        W54285   9.333  32.341   6.350 -0.0536  0.1069 -0.0478
11373W        W54286  17.275  14.713  29.180 -0.0701 -0.0903 -0.0319
11374W        W54287  13.844   7.702   5.740  0.4672 -0.2728  0.0814
11375W        W54288  22.894   8.975   2.702  0.0814  0.0621  0.0377
11376W        W54289  16.036  18.094  25.894  0.0612 -0.0264  0.0941
11377W        W54290  10.923  19.675   7.920 -0.1542  0.1951 -0.0248
11378W        W54291  20.879  31.508   4.510  0.1548  0.0892  0.3748
11379W        W54292  16.078   9.584  25.348 -0.0449 -0.1864 -0.0703
11380W        W54293  15.854   4.442   6.936 -0.3497  0.1050  0.0523
11381W        W54294  11.273  26.681  27.090 -0.1022 -0.2263  0.0348
11382W        W54295  15.443  13.194   5.305  0.4011  0.0195  0.1794
11383W        W54296  18.403  29.405   7.611 -0.0169 -0.0137  0.3515
11384W        W54297   9.899   8.022  11.221 -0.1033  0.1370  0.0610
11385W        W54298  16.701   9.809  28.540 -0.0642 -0.0092  0.2240
11386W        W54299  12.056   1.245   5.647 -0.1578  0.2606  0.4512
11387W        W54300  26.780  29.914  10.132 -0.1392 -0.1972 -0.1849
11388W        W54301   5.399  33.066  11.218  0.0881 -0.1880  0.3589
11389W        W54302  21.213  14.845   2.229  0.0628 -0.0024  0.2893
11390W        W54303  18.772  15.905  29.753 -0.0292 -0.3347  0.2142
11391W        W54304  17.007  13.806  21.032 -0.2718  0.0223  0.0016
11392W        W54305  19.101  29.952   3.658  0.0526 -0.3104 -0.0226
11393W        W54306  18.732  15.126   3.126 -0.0174 -0.0323 -0.1099
11394W        W54307   8.326   7.083   4.429  0.2282  0.2454  0.1147
11395W        W54308  13.857   1.383   4.526  0.1846 -0.0009 -0.0679
11396W        W54309   8.663  13.318   8.133  0.1412  0.0093 -0.1050
11397W        W54310  22.205   9.530   7.397 -0.1766  0.2439  0.1485
11398W        W54311  16.170   5.062   2.760 -0.0200 -0.3723  0.3356
11399W        W54312  19.918   5.580   5.098 -0.1337  0.0225 -0.1802
11400W        W54313  25.147  18.793   7.796 -0.2338  0.0257  0.3070
11401W        W54314  12.873  13.757   6.179 -0.2848 -0.0489 -0.2649
11402W        W54315  26.091   3.395  10.099 -0.1378  0.1523  0.1188
11403W        W54316  22.734   6.879   0.434  0.0136  0.2662  0.0246
11404W        W54317  14.916   6.735   4.139 -0.0313  0.0595  0.2716
11405W        W54318  23.409   0.165   7.459 -0.1545  0.1032  0.3880
11406W        W54319  21.669  18.304   3.865 -0.2078 -0.1045  0.2328
11407W        W54320   8.814   7.761   2.226 -0.0155 -0.3421  0.1510
11408W        W54321  17.625  14.690  24.981  0.2145 -0.0796  0.1269
11409W        W54322  16.308  14.542   3.486 -0.1297  0.0909 -0.0413
11410W        W54323  16.875  11.697  26.877  0.0712 -0.1021 -0.0925
11411W        W54324  15.726  27.421   0.590  0.4553 -0.0303  0.0366
11412W        W54325  18.307  13.601   3.499 -0.0200  0.0597  0.0414
11413W        W54326  26.705  10.869  29.113 -0.1407 -0.1542 -0.0438
11414W        W54327  20.113  19.799   8.673  0.2554  0.0490  0.1261
11415W        W54328  12.457   7.814   6.894  0.1120 -0.3565 -0.2870
11416W        W54329  21.261  14.214   0.916  0.1028  0.3416 -0.0201
11417W        W54330  20.072  15.297   0.007  0.1054  0.2641  0.2298
11418W        W54331  16.402   7.656   1.342  0.0539  0.0494  0.0265
11419W        W54332  19.811  10.009   5.565 -0.1484 -0.0456 -0.0836
11420W        W54333  22.250  10.615  29.491 -0.2597 -0.2401  0.1919
11421W        W54334  10.563   9.962   5.606  0.0516 -0.0075 -0.0507
11422W        W54335  19.929  18.861   8.400  0.2617 -0.0161  0.2086
11423W        W54336  17.541   1.306   6.871 -0.1714  0.0545 -0.0258
11424W        W54337  22.809  13.881   1.597  0.0481 -0.5601 -0.1030
11425W        W54338  15.389  10.965   2.877 -0.4179 -0.0541 -0.2006
11426W        W54339  15.940  31.417   9.750 -0.0155  0.1312 -0.0461
11427W        W54340  17.475  14.727  26.369  0.1127  0.1333 -0.2382
11428W        W54341  23.721   7.747   8.231  0.0067 -0.0110 -0.1420
11429W        W54342  15.045  11.422  18.501  0.1732 -0.1401 -0.4178
11430W        W54343  20.221  13.451  29.478 -0.4155  0.0608  0.0122
11431W        W54344  10.121   6.978   3.871  0.0265  0.4900  0.1499
11432W        W54345  11.588  11.837  26.663  0.2931  0.1859  0.3227
11433W        W54346  15.341  31.328  29.451 -0.1634  0.4263 -0.2168
11434W        W54347  15.285   7.476   9.053  0.0175 -0.1739  0.0109
11435W        W54348  26.162  32.267   1.192  0.1916  0.1286 -0.1362
11436W        W54349  20.960  12.421   3.809  0.0041 -0.0257 -0.1819
11437W        W54350  23.623  11.804   1.741 -0.1554 -0.2845 -0.1818
11438W        W54351  23.663   7.231   6.654 -0.0816  0.1417 -0.2576
11439W        W54352  25.370  15.635   6.812 -0.2576  0.0865 -0.2082
11440W        W54353  21.266   2.035   3.675 -0.0209  0.1531  0.0396
11441W        W54354  11.147   5.377   6.724  0.0381 -0.1848 -0.1556
11442W        W54355  13.063   2.494   7.925 -0.0130  0.1397  0.2223
11443W        W54356  20.958  13.066  26.140 -0.1962  0.4131 -0.1036
11444W        W54357  26.997  17.514   6.312  0.3555  0.1316  0.1037
11445W        W54358  16.786   5.759  25.976  0.0760  0.0552  0.0609
11446W        W54359   1.722  15.426  28.620 -0.0236  0.1279 -0.1986
11447W        W54360  20.134  13.064   1.983  0.0225 -0.1096  0.3124
11448W        W54361  19.370  16.500   3.525  0.0984 -0.0495 -0.3410
11449W        W54362  16.864  12.225  23.663  0.1121 -0.2078 -0.1290
11450W        W54363  11.653  18.129   4.761 -0.0337  0.0356 -0.0951
11451W        W54364  16.291   8.730   8.675 -0.2027  0.1488  0.1120
11452W        W54365  23.703  29.301   4.268 -0.1356 -0.0787 -0.1311
11453W        W54366  28.165  15.491   4.463 -0.2055  0.0830 -0.1741
11454W        W54367  18.894  13.566   0.148 -0.1417 -0.0583  0.0056
11455W        W54368  31.273   1.795   1.802  0.3138  0.1128  0.0324
11456W        W54369  13.104   9.014  25.450  0.2275 -0.1460  0.0545
11457W        W54370  17.296   0.577  17.685  0.0513  0.1335 -0.1228
11458W        W54371  14.056  14.679   4.591 -0.2994 -0.3599 -0.2342
11459W        W54372  20.559   3.613   6.427  0.0673  0.0302  0.3341
11460W        W54373  22.320   8.218   1.941  0.2612 -0.1893 -0.1483
11461W        W54374  21.877   0.921   8.018  0.0494  0.2013  0.2772
11462W        W54375  18.731   9.111   5.488  0.0356 -0.1887  0.3123
11463W        W54376  23.284   9.280  25.958 -0.0207  0.0452 -0.1218
11464W        W54377  20.084   8.852   3.104  0.0688 -0.3845 -0.2709
11465W        W54378  33.784  11.589  26.344 -0.0460  0.0866 -0.1103
11466W        W54379  20.008  30.127   7.842  0.2936 -0.0390 -0.0489
11467W        W54380  21.229  19.312   8.348  0.0130  0.0174 -0.1308
11468W        W54381  31.314   2.618  11.394  0.3189 -0.1079 -0.0479
11469W        W54382  22.830   3.794   9.304  0.0283  0.0349  0.1838
11470W        W54383  11.275  11.632   9.147  0.0806 -0.0215 -0.0402
11471W        W54384  25.698  33.622   0.560  0.2008 -0.0664 -0.1104
11472W        W54385   8.193   5.380   3.501 -0.1806 -0.1306  0.0377
11473W        W54386  14.260  12.213   8.494  0.1841 -0.0198 -0.1753
11474W        W54387   9.895   7.966   4.896 -0.2179  0.2676 -0.0109
11475W        W54388  23.969   6.761  10.411 -0.0622 -0.0891 -0.0883
11476W        W54389  11.690  11.628  27.366 -0.0818 -0.1562 -0.0876
11477W        W54390  24.827   5.505   7.250  0.0975  0.1310 -0.1026
11478W        W54391  20.233   9.825   6.677  0.1055  0.1474  0.1974
11479W        W54392  11.261   5.762   4.357  0.0390  0.3043 -0.0137
11480W        W54393  21.914   2.899   7.003 -0.2427  0.0486 -0.2466
11481W        W54394  20.143  12.338   4.386  0.1089  0.0666 -0.1122
11482W        W54395  30.504   1.605  11.065 -0.0245  0.1527 -0.0926
11483W        W54396  28.575   6.553  19.115 -0.1274 -0.0631  0.0297
11484W        W54397  16.819   4.505   9.262  0.2936 -0.1342  0.1420
11485W        W54398  17.525   8.675  25.568  0.0916  0.1789  0.2022
11486W        W54399  15.043   6.798   7.153  0.1118 -0.0237  0.1473
11487W        W54400  10.437   1.148   6.212  0.0803  0.2365  0.0639
11488W        W54401  12.718   9.919   7.271 -0.3038  0.0395  0.2929
11489W        W54402  16.694  15.348   7.276  0.1739 -0.0346 -0.0482
11490W        W54403   7.237   8.564  10.692  0.0442 -0.1187  0.0582
11491W        W54404  26.054   2.566   8.340  0.0470  0.1612  0.0412
11492W        W54405  25.099  15.839   5.158 -0.0040  0.3593  0.0152
11493W        W54406  27.030  15.831  23.111 -0.1334  0.0594  0.1179
11494W        W54407  12.253   5.629  27.676  0.2796  0.0918 -0.1331
11495W        W54408  18.241  11.404   7.157  0.1234  0.0123  0.1718
11496W        W54409  14.119   6.289   7.843  0.1940 -0.2963  0.1543
11497W        W54410  14.203   3.058   2.751  0.3558 -0.0018  0.1357
11498W        W54411  19.290   4.100   9.149  0.0906  0.0454 -0.1561
11499W        W54412  22.765  10.853   6.094 -0.2236 -0.3300 -0.3745
11500W        W54413  15.013   9.307   6.576  0.0625 -0.0964 -0.2762
11501W        W54414  27.852  13.710   6.766 -0.5206 -0.1477  0.1062
11502W        W54415  14.550  31.401   9.824  0.2990 -0.4309  0.3206
11503W        W54416  12.490  11.162   6.620 -0.0389  0.2697  0.0264
11504W        W54417   9.109   7.540   2.635 -0.2045 -0.1614 -0.0914
11505W        W54418  13.033   4.980  24.716 -0.2269 -0.0912  0.0775
11506W        W54419  14.786  15.737   8.878 -0.2148 -0.0382 -0.0862
11507W        W54420  23.201  10.144   9.193  0.0856  0.1398 -0.1163
11508W        W54421  21.810  33.236   1.682 -0.3066 -0.3634  0.2565
11509W        W54422  11.519  30.016  27.730 -0.1377  0.1398 -0.1081
11510W        W54423  16.820   7.440   0.536 -0.1812  0.0942 -0.3993
11511W        W54424  24.433  14.609   1.457  0.0431 -0.1755  0.0854
11512W        W54425  13.954  12.698   5.054 -0.0724  0.1907 -0.1879
11513W        W54426  13.522  25.888   0.021 -0.2982 -0.0626 -0.1440
11514W        W54427  18.942  12.947  20.778  0.0406 -0.0986  0.3278
11515W        W54428  24.584   2.930   7.174  0.0880  0.0681  0.0477
11516W        W54429  16.724   8.477   0.925  0.0192  0.1746  0.0138
11517W        W54430  18.317   8.868   4.407 -0.0229  0.0334  0.1471
11518W        W54431  10.918   0.152   7.029  0.0748 -0.1731  0.0867
11519W        W54432  24.037  11.160   2.420 -0.0877  0.1815 -0.0540
11520W        W54433  22.371   1.554  25.609  0.2470  0.0786 -0.0624
11521W        W54434  21.475  12.680  28.874 -0.2245 -0.1256  0.0654
11522W        W54435  10.279  33.733   4.397 -0.0745 -0.1826 -0.2673
11523W        W54436  21.488  17.590   5.437  0.1872  0.0559  0.2067
11524W        W54437  33.206  16.709   8.507  0.3469 -0.1356  0.0047
11525W        W54438  20.638  12.214   6.725  0.1769  0.0141 -0.2288
11526W        W54439  20.683  27.528  22.842  0.2618  0.0898 -0.0858
11527W        W54440  24.032   2.346   5.911 -0.1430 -0.2366  0.0024
11528W        W54441  14.380  12.369   8.952  0.0374 -0.1601 -0.0168
11529W        W54442  14.330  10.147  25.437 -0.0114 -0.1000  0.3613
11530W        W54443  27.425  13.711   9.082  0.2478  0.0285 -0.0923
11531W        W54444  23.220  12.680   4.423  0.1192  0.1408  0.1827
11532W        W54445  17.366  32.193   9.663 -0.1050  0.1814 -0.1229
11533W        W54446  23.741   3.775   7.902 -0.1918  0.2414  0.2025
11534W        W54447  12.564  11.816   1.820 -0.2984 -0.0707  0.0937
11535W        W54448  24.808  11.723   0.831 -0.0240 -0.0070  0.1389
11536W        W54449  25.023   7.403   2.048  0.0574 -0.2662  0.3664
11537W        W54450  18.163  12.994   1.675  0.1158  0.0408  0.1622
11538W        W54451  19.395   8.988   1.591 -0.3214  0.1022 -0.2376
11539W        W54452  18.982  30.542   2.626 -0.2593  0.0940  0.1912
11540W        W54453  28.747   9.992   6.698  0.1532 -0.0218  0.0061
11541W        W54454  20.423   7.553   7.537 -0.0095  0.3094 -0.0049
11542W        W54455  22.885   6.726   3.477  0.1223  0.0488  0.0659
11543W        W54456  13.808   4.987  10.306  0.1051  0.1144  0.0716
11544W        W54457  19.288  19.582  21.305 -0.0312  0.0450  0.1044
11545W        W54458  27.725   0.853   8.459  0.2543  0.1384  0.1509
11546W        W54459  14.901   6.842   0.332  0.3214  0.1675  0.0065
11547W        W54460  17.606  11.885   4.998  0.0385 -0.1123 -0.1682
11548W        W54461  25.636   9.302   9.599 -0.1783 -0.1848  0.2635
11549W        W54462  13.885   6.502  29.697  0.0859 -0.1329  0.0281
11550W        W54463   8.411  13.905   2.901 -0.2823 -0.2696  0.1654
11551W        W54464  31.633  28.818  29.252  0.1836 -0.0258  0.1212
11552W        W54465  23.117  34.203   9.310  0.2601 -0.1865 -0.0987
11553W        W54466  31.265   9.775   8.215 -0.0845  0.1285 -0.0495
11554W        W54467  19.889  32.884   4.133 -0.1698  0.3602  0.0489
11555W        W54468  23.610  29.771   4.615 -0.1273 -0.1092  0.0107
11556W        W54469  14.609   6.583   9.260 -0.0858 -0.1643 -0.0007
11557W        W54470  22.862   0.618   6.592  0.1498 -0.0203 -0.1937
11558W        W54471  17.559  13.833  21.059  0.0732  0.0162 -0.1965
11559W        W54472   8.303  10.656   1.641 -0.1155 -0.2521 -0.6230
11560W        W54473  22.875   6.556   4.340 -0.0789  0.2106 -0.1492
11561W        W54474  21.495  18.986   8.026 -0.0416  0.1569 -0.1461
11562W        W54475  32.606   5.923   5.964 -0.2593 -0.0954  0.1137
11563W        W54476  24.902  10.696   2.822 -0.0458  0.0047  0.0824
11564W        W54477  13.528  15.378   8.645  0.2108  0.1621 -0.0049
11565W        W54478  22.874   3.531   4.229  0.3677 -0.0060  0.1456
11566W        W54479  13.631   7.654   9.120  0.3723 -0.1322 -0.0286
11567W        W54480  18.263   4.510   5.868 -0.1950 -0.2392 -0.0668
11568W        W54481  25.611   6.992   8.767  0.1570  0.3195  0.0125
11569W        W54482  18.804  14.713   6.729  0.0075  0.1429  0.0218
11570W        W54483  25.753  16.287   6.024  0.1778  0.0479  0.0545
11571W        W54484  18.232  10.098   5.059 -0.3239  0.2552  0.0133
11572W        W54485  21.001  11.370   8.674 -0.0076 -0.0317 -0.0568
11573W        W54486  10.691   5.340  10.287  0.1009 -0.1764  0.0959
11574W        W54487  21.011   7.857   2.384  0.1586  0.0185  0.0299
11575W        W54488  12.943  23.583  27.673 -0.3199 -0.1435 -0.0572
11576W        W54489  18.402  33.916  10.528  0.0820  0.4051 -0.0658
11577W        W54490  17.499  11.273   5.869  0.1336  0.0668 -0.2628
11578W        W54491   9.051   6.352   5.202 -0.1519  0.1366  0.1622
11579W        W54492  30.600   4.626   5.010 -0.1833  0.3404  0.0894
11580W        W54493  16.241  12.205  28.639  0.3269 -0.3320 -0.0459
11581W        W54494   8.784   2.541   9.053 -0.0405  0.2606  0.0382
11582W        W54495   8.864   9.448  26.460 -0.0774 -0.1116 -0.0327
11583W        W54496  16.075  33.186   5.588  0.1320 -0.0253 -0.3242
11584W        W54497   8.717   3.175  12.482  0.0673 -0.1803 -0.3031
11585W        W54498   7.518  11.577   0.829  0.0694  0.1011  0.0939
11586W        W54499  13.936  33.748   0.929 -0.0796  0.1226 -0.1613
11587W        W54500  16.706   7.757  26.574 -0.1343  0.1494 -0.0443
11588W        W54501  22.560  16.775   7.105 -0.2246  0.2889  0.0218
11589W        W54502  18.852   3.210   7.898 -0.0617  0.4365  0.0513
11590W        W54503  19.599  13.695   7.292 -0.2619  0.2553 -0.2278
11591W        W54504  24.594  32.316  27.936  0.3713 -0.2277  0.0447
11592W        W54505  16.264  30.519   8.021  0.0410 -0.0341 -0.2229
11593W        W54506  25.283  14.263   5.617  0.2527  0.0225  0.0959
11594W        W54507  34.118  10.250   6.242  0.0319  0.0920  0.0240
11595W        W54508  24.146   9.047   3.307  0.0066 -0.0216 -0.3957
11596W        W54509   1.875  13.657   3.720  0.1743 -0.1146 -0.0727
11597W        W54510  20.014  14.707   7.521 -0.0161  0.4199  0.0536
11598W        W54511  17.687  14.550   8.113  0.1717 -0.0151  0.2558
11599W        W54512  15.814   3.753   7.262 -0.0653 -0.1751 -0.1216
11600W        W54513  25.417   7.298   9.759  0.1009  0.0535  0.0260
11601W        W54514  18.923  14.960  24.208 -0.2119  0.2666  0.2008
11602W        W54515  14.225   1.492   2.782  0.0713 -0.2647 -0.0205
11603W        W54516   2.735  17.271   7.994  0.0484  0.4441  0.1197
11604W        W54517   2.556   9.543   3.757 -0.2401 -0.0051 -0.3147
11605W        W54518  18.395   3.942   9.965 -0.3259 -0.0677 -0.0633
11606W        W54519  14.700  11.359   7.440  0.2399 -0.0617 -0.2318
11607W        W54520  23.593   0.462   6.578 -0.1054 -0.4683 -0.1939
11608W        W54521  26.803   8.395   3.087  0.0579  0.0383 -0.0833
11609W        W54522  23.691   5.926   3.022  0.1329 -0.3046  0.2157
11610W        W54523  13.117   5.879   8.040 -0.1090 -0.2828 -0.1387
11611W        W54524  13.841   8.452   9.113 -0.3966 -0.0429 -0.1362
11612W        W54525   9.875   9.917  16.118  0.0602 -0.0872 -0.0574
11613W        W54526  11.263   6.541   9.412 -0.3090  0.0660  0.0146
11614W        W54527  19.856   7.424   6.353 -0.0017  0.2231 -0.2477
11615W        W54528   9.036   3.196  13.662 -0.0065 -0.1482 -0.1392
11616W        W54529  14.682   5.192   5.240 -0.1866  0.0116 -0.0309
11617W        W54530  18.153   1.305   6.760 -0.2707 -0.1538  0.2067
11618W        W54531  14.162  10.316   0.861 -0.2382 -0.1415 -0.0634
11619W        W54532  22.486   1.366   4.539 -0.1303 -0.0968 -0.0138
11620W        W54533  20.328  14.754   7.095 -0.3409  0.0866  0.0046
11621W        W54534  28.077  10.538   9.154 -0.1160 -0.0021 -0.2058
11622W        W54535  19.531   9.129  27.484  0.0056  0.1314  0.2390
11623W        W54536  30.543   2.661   9.664  0.3618  0.3298  0.0398
11624W        W54537  30.887  14.945   7.908  0.0130  0.0600  0.0007
11625W        W54538  17.773   6.729   8.039  0.1142  0.2896  0.0049
11626W        W54539  22.207  11.109   8.211 -0.3967  0.0009 -0.1017
11627W        W54540   8.362  12.138   3.997 -0.1404 -0.2307 -0.4442
11628W        W54541  16.432   2.917   5.803 -0.0623  0.2606  0.1880
11629W        W54542   7.568   8.046   8.866 -0.0361 -0.0357 -0.1179
11630W        W54543  18.593   8.451   3.939 -0.0197  0.1474 -0.3685
11631W        W54544  23.007   0.764   4.946 -0.0168  0.2057 -0.0351
11632W        W54545  21.758   0.798   7.117 -0.0608 -0.0236  0.0833
11633W        W54546  15.386  10.434   2.702  0.0529 -0.0898 -0.2606
11634W        W54547  21.861   6.015   3.222 -0.0891  0.0531 -0.1055
11635W        W54548  10.768   9.107   7.575 -0.2590  0.0375  0.2027
11636W        W54549  23.186   6.303  25.289 -0.1396  0.3604  0.1139
11637W        W54550  21.122   9.220   5.654  0.1043  0.0593  0.1477
11638W        W54551  18.880  23.205   6.741  0.1335 -0.0938  0.2502
11639W        W54552  16.213   1.624   3.703  0.0838 -0.1248  0.3312
11640W        W54553  28.676   7.130   9.185  0.0377  0.2235  0.4766
11641W        W54554   8.971   3.353  13.151 -0.0253 -0.0620  0.0348
11642W        W54555  17.315  14.939  28.262 -0.1839  0.4005  0.0119
11643W        W54556  30.847  11.640   7.033  0.3907 -0.0525  0.1440
11644W        W54557  24.214  12.753   5.710 -0.0500  0.1409  0.0967
11645W        W54558  23.693  11.547   2.240 -0.1101  0.1148 -0.1543
11646W        W54559  30.385   6.023  24.339 -0.0370 -0.3700 -0.0566
11647W        W54560  18.959   0.190   9.310 -0.1023 -0.1070 -0.2261
11648W        W54561  22.788   0.265   8.106  0.1640 -0.0949 -0.2588
11649W        W54562  15.469  13.835  29.582  0.2587 -0.1365 -0.0673
11650W        W54563  15.266   3.043  10.208 -0.2066  0.0896  0.1366
11651W        W54564  12.488   3.243   9.833  0.0308 -0.3179 -0.1126
11652W        W54565  11.764  34.456   9.866 -0.0083 -0.0039  0.1208
11653W        W54566   5.476  12.183   8.973  0.3601  0.1072 -0.0771
11654W        W54567  19.012   6.157   9.537 -0.2117  0.1360  0.0315
11655W        W54568  13.456  33.932   4.898 -0.2050  0.0062 -0.1420
11656W        W54569  15.160  11.727   6.569  0.1613  0.1378 -0.1293
11657W        W54570  23.263  28.002   6.011 -0.0220  0.0682  0.3467
11658W        W54571  10.613   6.214  10.733  0.2696 -0.5017  0.0226
11659W        W54572  16.203  19.882  28.717 -0.0860 -0.0863  0.0823
11660W        W54573  27.957  11.603  29.514 -0.0386  0.1094 -0.0456
11661W        W54574  22.474   0.548   6.925  0.1120  0.0469  0.1242
11662W        W54575  24.348  14.770   7.308  0.2054  0.1650 -0.2187
11663W        W54576  20.996  23.514   4.472  0.0106  0.1587  0.0199
11664W        W54577  16.803  14.243   6.029  0.0943 -0.1630 -0.1503
11665W        W54578  18.674  11.309  27.754 -0.1573 -0.1748 -0.3819
11666W        W54579  16.671  32.729   1.794  0.1751 -0.2079 -0.0803
11667W        W54580  30.340  14.844   6.553  0.1134 -0.2727  0.1594
11668W        W54581  24.728   7.633   7.862  0.1999  0.1227  0.1662
11669W        W54582  18.358  12.003  28.862  0.1288  0.1978 -0.0120
11670W        W54583  21.076  29.972   4.323  0.0171 -0.5200 -0.1370
11671W        W54584  19.219   9.555   2.862  0.1526 -0.0318  0.2528
11672W        W54585  33.935  12.623  27.629 -0.2215 -0.0789 -0.1661
11673W        W54586  13.232  28.431  10.728 -0.5229 -0.0688  0.3403
11674W        W54587  31.198   4.359   7.413  0.0174 -0.0823  0.3380
11675W        W54588   8.540   6.078   9.423 -0.0030 -0.1479  0.0661
11676W        W54589  21.820  27.228   8.562  0.0029 -0.1339 -0.0551
11677W        W54590  23.874  11.326   8.163 -0.1209  0.0327 -0.3360
11678W        W54591   9.086  26.341  11.031 -0.0894 -0.0359  0.0733
11679W        W54592  30.972  13.785   6.682  0.0791  0.2391  0.0085
11680W        W54593  22.242  12.175  28.414 -0.1755  0.1271 -0.0186
11681W        W54594  16.334   4.647   7.158  0.2202 -0.1290  0.0279
11682W        W54595  12.029   4.304   8.191 -0.1351  0.0716  0.0682
11683W        W54596  11.991  12.106   3.105  0.1180  0.4307  0.4880
11684W        W54597  24.303  14.260   7.111  0.0338 -0.4431 -0.0631
11685W        W54598  14.321   6.289   7.384  0.2435 -0.3867  0.1580
11686W        W54599  14.195  23.628   9.304 -0.1518 -0.1923  0.1526
11687W        W54600   8.122   6.228   9.021  0.0882 -0.1018 -0.1113
11688W        W54601  16.476   4.350  10.833 -0.0548  0.1043 -0.0447
11689W        W54602   8.707   2.406   6.937  0.1939 -0.3041 -0.0639
11690W        W54603  14.713   9.869  26.719  0.0064  0.1447 -0.1343
11691W        W54604  23.088   8.554   2.838 -0.3415 -0.0392 -0.1141
11692W        W54605  24.497  31.679   5.682  0.2492  0.0177  0.0919
11693W        W54606  21.084  12.506   3.312  0.0607  0.0780 -0.0876
11694W        W54607  27.473  14.658   9.973  0.0406 -0.2377  0.0963
11695W        W54608  20.235   8.089   8.534 -0.3503  0.1278  0.1882
11696W        W54609  26.009  11.634   4.471 -0.0835  0.0366  0.1236
11697W        W54610  18.080   8.147  29.095 -0.4890  0.1892 -0.2493
11698W        W54611  19.645  22.547   3.718 -0.0870  0.1323 -0.0926
11699W        W54612  16.996  12.374   4.478 -0.4058 -0.0246  0.2393
11700W        W54613  20.947  11.298   7.518  0.1093  0.2034 -0.1466
11701W        W54614   9.629   3.033   5.851 -0.1265  0.0645  0.3398
11702W        W54615  14.152  11.838   6.419 -0.1396  0.1802 -0.3089
11703W        W54616  18.108   9.496   6.634 -0.0108  0.0447 -0.2619
11704W        W54617  23.008  10.088   4.961 -0.3197 -0.1765 -0.1429
11705W        W54618  14.322   1.718   6.792 -0.3390  0.0263  0.0814
11706W        W54619  26.588  14.677  10.025 -0.3260  0.0314  0.1181
11707W        W54620  21.160  13.565   5.246 -0.0432  0.1125 -0.0186
11708W        W54621  19.328   6.845   8.400  0.1834  0.0815 -0.2523
11709W        W54622  27.147   7.959   3.898  0.2581  0.2554 -0.0829
11710W        W54623  22.289   1.228   9.629 -0.0909 -0.1332  0.0428
11711W        W54624  23.482  32.511   7.176  0.1602  0.0432  0.0849
11712W        W54625  16.069  15.701   7.802  0.2379 -0.3723  0.1375
11713W        W54626  15.700  19.270  24.217 -0.0408  0.0827 -0.2061
11714W        W54627  14.816  19.142   8.192  0.3473 -0.1569  0.0935
11715W        W54628  16.700  17.316   6.408  0.0851  0.3978 -0.2381
11716W        W54629  23.899   5.361   5.942 -0.0391 -0.1287 -0.0490
11717W        W54630  13.135  17.443   8.265 -0.3565  0.1064 -0.3562
11718W        W54631  32.184   5.485   7.022  0.1329  0.1063 -0.0278
11719W        W54632  28.267   6.327   9.435 -0.2201 -0.0320 -0.1135
11720W        W54633  11.651   9.412   3.103 -0.0892  0.1209  0.2027
11721W        W54634  17.898  14.680   5.358  0.2044  0.1841  0.1472
11722W        W54635  34.191   4.104   8.745  0.0909  0.4494 -0.3342
11723W        W54636  15.987  22.125   6.774 -0.1218 -0.2452  0.3026
11724W        W54637  20.833  12.663   5.565  0.2836  0.3434 -0.3351
11725W        W54638  29.274  10.789   2.367 -0.3390  0.0087  0.1579
11726W        W54639  15.002  15.845   7.661  0.0016  0.3499  0.0231
11727W        W54640   6.903  13.188   6.565 -0.0790 -0.5703  0.4931
11728W        W54641  20.092  10.670   3.534  0.1606 -0.1043 -0.0385
11729W        W54642   9.632   9.704   5.944 -0.2326 -0.2851  0.0027
11730W        W54643   9.061  12.814   6.440 -0.2700 -0.0737 -0.0971
11731W        W54644  20.226  34.079   9.820  0.0219  0.3003  0.2359
11732W        W54645  22.603  11.533   5.294 -0.2635 -0.3545  0.1269
11733W        W54646  14.776   6.609   9.736  0.0648  0.3597 -0.1449
11734W        W54647  26.659  19.666   4.370  0.1198  0.2435 -0.2196
11735W        W54648  22.531   5.101  26.707  0.0746  0.1924 -0.3227
11736W        W54649  25.525  31.441   7.947 -0.1555  0.2094  0.1561
11737W        W54650  24.227   8.173  10.171  0.0636 -0.2992 -0.3375
11738W        W54651  27.159  15.038   9.134 -0.3325  0.1809 -0.0897
11739W        W54652  15.606   6.950   9.721  0.0937 -0.1160 -0.0129
11740W        W54653  32.040  30.104   5.280 -0.0812 -0.3440 -0.1243
11741W        W54654  15.104  33.723  11.147  0.1835 -0.3001 -0.1574
11742W        W54655  12.266  29.761  11.038  0.0221 -0.1917 -0.2741
11743W        W54656  11.795   8.115  11.063 -0.3378  0.0352 -0.0409
11744W        W54657  20.480  18.594  23.666 -0.2157  0.1718  0.2625
11745W        W54658  23.070   7.033   8.008  0.1192 -0.0428  0.0776
11746W        W54659  18.276  15.554   4.761  0.1454  0.0758  0.0938
11747W        W54660  20.354   8.369   5.711 -0.0853 -0.2408  0.1900
11748W        W54661  10.322   8.281   2.033  0.0970  0.0651 -0.2471
11749W        W54662  18.729   9.181   3.439  0.1740 -0.0862  0.1989
11750W        W54663  14.018   6.844   0.929  0.0647 -0.2272 -0.2701
11751W        W54664  15.572   7.481  27.505 -0.1093 -0.0783 -0.0514
11752W        W54665  10.464  13.871   6.893  0.0879  0.1948  0.0241
11753W        W54666  13.639  33.882   7.713 -0.1097  0.0234 -0.1501
11754W        W54667  24.719   4.247  10.221  0.0932 -0.0024  0.0272
11755W        W54668   9.468  18.828  28.720 -0.1498 -0.2513 -0.2859
11756W        W54669  22.719  12.654  27.798 -0.0010 -0.0034  0.1181
11757W        W54670  11.732   3.997   4.517 -0.2856 -0.0137  0.0470
11758W        W54671  27.330  12.306   0.214  0.1861  0.0556  0.0536
11759W        W54672  32.118   2.229  11.620  0.5178 -0.2119 -0.2292
11760W        W54673  27.968   9.431   6.315 -0.1355  0.1502  0.0473
11761W        W54674  27.739   0.984   3.473 -0.1264  0.1050  0.0359
11762W        W54675   8.053   5.628   3.047 -0.1960 -0.2056  0.1045
11763W        W54676  29.485  18.785   6.610 -0.1078  0.0547  0.0306
11764W        W54677  21.252   4.858   6.756 -0.1996 -0.1397 -0.0645
11765W        W54678  18.232   2.536   8.163 -0.0283  0.0927 -0.3128
11766W        W54679  23.421  29.454   7.992 -0.2498 -0.3248  0.0611
11767W        W54680  27.273  13.136   7.371  0.2612 -0.0976  0.1278
11768W        W54681  15.550   6.413   4.617  0.0350  0.0561 -0.2823
11769W        W54682  28.894  14.109   1.561 -0.0655  0.2633  0.0202
11770W        W54683  13.444   6.931  26.749  0.1215 -0.0003 -0.1908
11771W        W54684   5.514  32.546   9.027 -0.0975  0.0008  0.3894
11772W        W54685  25.089  33.308   8.247  0.1754  0.0758  0.0674
11773W        W54686  30.705   2.525   8.307 -0.0925 -0.4165  0.0546
11774W        W54687  28.637  28.921   8.530  0.0150  0.0259 -0.0349
11775W        W54688  33.587   5.469   3.969 -0.0368  0.0898 -0.1946
11776W        W54689  33.169  33.993   1.234  0.0273  0.1859  0.0070
11777W        W54690  20.119   9.316   5.375  0.1550  0.0354  0.1012
11778W        W54691  17.559   2.591   6.362 -0.1239  0.0751  0.3713
11779W        W54692  30.450  13.496   7.550 -0.1686 -0.4684  0.2881
11780W        W54693  16.395   8.374   8.328 -0.2087  0.0980  0.2657
11781W        W54694  12.180   1.098   6.330 -0.0472  0.1321  0.0214
11782W        W54695  30.809   8.984   9.283 -0.2503 -0.3465  0.3074
11783W        W54696  29.264   3.977   3.939  0.0915  0.0793 -0.0151
11784W        W54697  21.745   1.311   6.925 -0.1666 -0.1349 -0.0298
11785W        W54698  25.262   5.771   8.241  0.2831 -0.2262 -0.0365
11786W        W54699  19.332  10.607   8.613 -0.1646  0.0912  0.3722
11787W        W54700  32.686  11.877   9.791  0.3068 -0.0169 -0.0098
11788W        W54701  16.987   5.839   8.355 -0.0841 -0.1815 -0.0027
11789W        W54702  26.190   0.034   2.526  0.3358  0.2506 -0.4013
11790W        W54703  27.756  28.225   8.333 -0.1913  0.1821 -0.0542
11791W        W54704  26.503   8.542   8.536 -0.0279  0.1443  0.1407
11792W        W54705  18.958  15.282   8.117 -0.1457 -0.3537 -0.0121
11793W        W54706  22.898  14.757   2.731  0.1764  0.1770  0.0376
11794W        W54707  16.538  11.341   7.742  0.0095  0.0321  0.1039
11795W        W54708  21.381   9.457   7.370 -0.1097  0.0091  0.1138
11796W        W54709  27.716  34.047   9.172 -0.3283  0.3607 -0.2237
11797W        W54710  25.688  12.703   3.589  0.0118  0.3172 -0.1298
11798W        W54711  19.830  12.076   4.814 -0.0068  0.0334  0.0792
11799W        W54712  25.770   1.587   6.559 -0.0676  0.1786  0.0549
11800W        W54713  21.790  12.963   2.721  0.2072 -0.0866  0.0294
11801W        W54714  21.870   9.151   7.282 -0.2989 -0.0454 -0.1540
11802W        W54715  21.483   4.106   9.392  0.2420  0.0815 -0.2063
11803W        W54716  19.000  11.045   7.223  0.2525 -0.0127 -0.4591
11804W        W54717  27.636   7.540   7.609 -0.0827 -0.1951  0.2274
11805W        W54718  20.285  33.564   0.670 -0.0468 -0.1704  0.0063
11806W        W54719  28.988   2.164   7.248  0.2687 -0.0863 -0.0481
11807W        W54720  19.313   7.486   3.761  0.0300  0.3193  0.0403
11808W        W54721  24.524   5.480   2.063  0.1169  0.0220  0.1953
11809W        W54722  21.696   7.145  27.736 -0.2634  0.2403  0.1298
11810W        W54723  24.294  17.330   7.144  0.3533  0.2312 -0.2405
11811W        W54724   9.314   4.429  13.175  0.0280 -0.0061  0.0094
11812W        W54725  14.079   1.058   1.824  0.2520  0.2046  0.2713
11813W        W54726  16.602  17.829  27.939 -0.2390  0.0751  0.2810
11814W        W54727  16.490   8.760   7.407 -0.0470 -0.0523 -0.1333
11815W        W54728  20.798   5.954   8.002 -0.2357 -0.0879  0.0368
11816W        W54729  14.090  17.601   8.263  0.1482 -0.0369  0.0041
11817W        W54730  14.676  33.155  12.158  0.0203  0.0412  0.0289
11818W        W54731  25.013  16.659   2.922  0.0886 -0.1745  0.1729
11819W        W54732  27.427   0.043   7.281  0.1443  0.2817  0.0985
11820W        W54733  15.325  11.326   6.878 -0.3797 -0.5259 -0.1371
11821W        W54734  19.861   9.664   5.121 -0.0626 -0.4291  0.2246
11822W        W54735   9.602  31.391   9.219  0.2670 -0.1077 -0.0270
11823W        W54736  27.716   2.354   5.674  0.1162  0.1622 -0.0151
11824W        W54737   0.933  12.907   0.950  0.1055 -0.1166  0.2913
11825W        W54738  29.111  13.157  27.682  0.0038 -0.2184  0.0321
11826W        W54739  29.776  10.069   8.299  0.2001  0.2767  0.2326
11827W        W54740  20.931  23.933   5.676  0.1297 -0.3992  0.2975
11828W        W54741  25.922  10.085   5.438  0.0621  0.1032  0.0586
11829W        W54742  29.470   9.510   7.437  0.3054  0.0436  0.3765
11830W        W54743  17.990   9.683   7.652 -0.2495  0.1726 -0.0559
11831W        W54744  19.171   1.736   7.832  0.1163 -0.2720 -0.0546
11832W        W54745  21.206   6.284   2.263 -0.3047  0.0277  0.1099
11833W        W54746  12.717   6.263   6.653 -0.0249 -0.3203 -0.0996
11834W        W54747  16.866   6.451   8.259 -0.0942  0.1490 -0.3299
11835W        W54748  19.314  29.624   3.987  0.2194  0.1583 -0.0100
11836W        W54749   8.840  11.142   8.685 -0.3177  0.1119 -0.2599
11837W        W54750  17.756   6.035   3.833  0.0887 -0.0092 -0.0891
11838W        W54751  20.361   5.729   4.263  0.1425  0.2908  0.1078
11839W        W54752  25.223  11.671   5.041  0.2090 -0.0959  0.1872
11840W        W54753  17.303   1.746   7.633  0.0734 -0.3192  0.1145
11841W        W54754   7.912   7.819   9.830  0.1259  0.0452 -0.3497
11842W        W54755  27.036  20.030   8.440  0.0474 -0.0735 -0.2214
11843W        W54756  13.782   3.464   3.313 -0.1463 -0.0087 -0.2230
11844W        W54757   1.666   6.901   4.212 -0.2116 -0.1448 -0.1900
11845W        W54758  27.896   1.871   6.839 -0.4507 -0.0054  0.0065
11846W        W54759  24.785   2.240   6.317  0.0951 -0.0511 -0.1079
11847W        W54760  16.065  28.851  10.981  0.0276  0.1448 -0.0597
11848W        W54761  14.811   7.464   2.490 -0.0390 -0.0398 -0.0682
11849W        W54762  11.994   6.724  10.526 -0.1112  0.0980 -0.1822
11850W        W54763   8.512  25.558   4.108  0.0843  0.0424  0.2689
11851W        W54764  19.208  13.357   2.646  0.3535  0.0942 -0.1374
11852W        W54765  20.428   4.408  29.623 -0.0933  0.4037  0.0903
11853W        W54766  18.587   6.247  27.248  0.1998  0.0823 -0.0121
11854W        W54767   2.971  17.146  29.306  0.1673 -0.2570 -0.1857
11855W        W54768  27.767   9.308   3.290 -0.1125 -0.3209  0.2456
11856W        W54769  27.607  12.450   8.507  0.0434  0.1711  0.0704
11857W        W54770  15.514   5.471  21.402  0.2008  0.2175  0.1011
11858W        W54771  17.129   4.582  28.467 -0.1488 -0.0274  0.1278
11859W        W54772  19.827  19.689   5.209 -0.1591  0.1004 -0.2658
11860W        W54773  17.163  10.028  20.987  0.0994 -0.1484  0.3031
11861W        W54774  16.725  11.014  22.130 -0.0744  0.0397 -0.0292
11862W        W54775  11.462  18.068   7.539 -0.2740 -0.1409  0.2332
11863W        W54776  10.466   9.543   0.496  0.1780 -0.2715  0.0621
11864W        W54777   7.750   4.598  26.833 -0.1284  0.0184 -0.3581
11865W        W54778  13.359   5.103   8.678 -0.0964 -0.0993 -0.0257
11866W        W54779   8.529  10.547   2.392 -0.0199 -0.1443 -0.1799
11867W        W54780  19.323  31.547   4.102  0.3474  0.4186  0.1740
11868W        W54781  14.971   5.448  27.185 -0.0742 -0.1374 -0.1397
11869W        W54782  20.790   8.588  28.205 -0.1279 -0.0537 -0.1702
11870W        W54783  24.762   7.715  26.410 -0.0254 -0.0546  0.3638
11871W        W54784  24.422  13.566  26.702 -0.1753 -0.1044 -0.3203
11872W        W54785  24.634  15.169  28.201  0.2775  0.1698  0.0526
11873W        W54786  20.126   6.606   1.203  0.4018  0.1156  0.1883
11874W        W54787  16.196   4.763   7.649 -0.1809  0.4729  0.2685
11875W        W54788  11.795   1.505  10.534 -0.2590  0.2720 -0.0098
11876W        W54789  14.945   2.098   2.287  0.0687 -0.1201  0.0252
11877W        W54790  20.502   8.973   0.038 -0.0649 -0.3271 -0.2144
11878W        W54791  24.780  15.786   1.259 -0.0055  0.2049 -0.1302
11879W        W54792  12.674  17.655   8.150  0.0723 -0.2122 -0.0288
11880W        W54793  28.229   9.635  29.621  0.1141  0.1249  0.2966
11881W        W54794  16.870   7.126  27.961  0.1339 -0.2868 -0.1285
11882W        W54795   9.504  13.553   4.745 -0.0601 -0.2480  0.2212
11883W        W54796  20.571   7.794   5.789 -0.0408  0.0720  0.3710
11884W        W54797  30.671  18.694   8.051  0.2886  0.1093  0.3011
11885W        W54798  20.969  31.430  29.538  0.3759  0.1529 -0.0549
11886W        W54799  18.139  15.678  23.148  0.0262  0.0536  0.0689
11887W        W54800  26.286   5.927   7.452  0.2131  0.0189  0.2371
11888W        W54801  14.678   8.248   5.667  0.1436 -0.2889  0.0686
11889W        W54802   8.310  15.476  17.609  0.0313  0.0764  0.0949
11890W        W54803  25.073   6.141  17.761 -0.0840 -0.3785  0.1977
11891W        W54804  17.615  20.951   2.299  0.0430  0.0212  0.1175
11892W        W54805  15.998  19.048  29.728  0.0221  0.1839 -0.1762
11893W        W54806  19.888   7.551  28.631 -0.0290 -0.3267  0.0064
11894W        W54807  19.737  10.881  29.593  0.0272 -0.1487 -0.1059
11895W        W54808  26.354  15.984   4.008  0.1206  0.3420 -0.1859
11896W        W54809  17.141   8.734   8.864 -0.2120  0.0169 -0.1440
11897W        W54810  18.978  15.117  23.740  0.0059 -0.1242 -0.1884
11898W        W54811  22.593  13.204   3.777 -0.0795  0.2698 -0.1935
11899W        W54812  22.731  12.353   0.351 -0.0908  0.1297 -0.3798
11900W        W54813  21.163  21.342  26.148  0.5316 -0.2458 -0.1292
11901W        W54814  23.546  19.811  24.862 -0.0118  0.1327 -0.1136
11902W        W54815  18.059  13.539   1.546 -0.3033  0.4005 -0.2697
11903W        W54816  16.377  17.678   0.379  0.0122 -0.2327 -0.0921
11904W        W54817  19.993  30.693   5.265 -0.2221 -0.2131 -0.2031
11905W        W54818  16.004  21.033   4.064 -0.3385  0.0139  0.3687
11906W        W54819  24.183   7.447   1.216 -0.0707  0.0902  0.1299
11907W        W54820  19.126  11.875  29.484  0.2934 -0.1668 -0.0474
11908W        W54821  13.744  11.223  28.841  0.0398 -0.0014 -0.3328
11909W        W54822  22.206  19.055  20.281  0.0734 -0.3783  0.1754
11910W        W54823  17.777  16.609   4.091  0.1653  0.0533  0.2758
11911W        W54824  30.205  15.532  22.527  0.2627 -0.2676  0.1599
11912W        W54825  15.786  12.760  25.751  0.1152 -0.1614 -0.0923
11913W        W54826  26.973  13.373   4.432  0.0324 -0.2251 -0.1917
11914W        W54827   1.555  20.009   4.200  0.3325  0.3188  0.0327
11915W        W54828  23.823   9.349  17.854 -0.4067  0.4155 -0.1376
11916W        W54829  27.922  18.780   4.960  0.1210  0.2643  0.0021
11917W        W54830  10.913   5.907  29.146 -0.2022 -0.4496 -0.0373
11918W        W54831  33.399  20.972   9.682  0.1068  0.2737  0.2786
11919W        W54832  22.243   7.709   8.446 -0.0936 -0.1222 -0.0017
11920W        W54833  19.663  13.023  29.396 -0.1100  0.1992  0.1707
11921W        W54834  25.109  30.944  21.811  0.1737 -0.0933 -0.0494
11922W        W54835  12.873  19.142  28.967  0.2468 -0.1200 -0.0777
11923W        W54836  18.675  19.177   6.518 -0.0231  0.0423  0.1011
11924W        W54837  13.243   9.013  24.595 -0.0254 -0.0191  0.2420
11925W        W54838  23.666   3.384   7.018 -0.2962 -0.0011  0.2595
11926W        W54839  12.303   8.295   8.255  0.1628 -0.1220  0.0171
11927W        W54840  23.533   9.367  19.811  0.3565  0.5564  0.3305
11928W        W54841  10.837  26.885   7.606  0.4835 -0.2637 -0.3903
11929W        W54842  16.036   4.639  10.357  0.2365  0.1241 -0.1276
11930W        W54843  17.584  11.437   6.347  0.1538  0.0028 -0.1975
11931W        W54844  22.349   9.735  20.338 -0.0685  0.2070 -0.1618
11932W        W54845  14.774   8.070   7.853  0.2369 -0.0254  0.2467
11933W        W54846  19.612  21.159   7.429 -0.1068  0.1905 -0.1449
11934W        W54847  18.968  22.224   5.950  0.0757 -0.1086  0.0746
11935W        W54848  18.465  10.472   0.487 -0.1360 -0.2861  0.0507
11936W        W54849  10.480   5.792  26.605 -0.5085  0.1683  0.0846
11937W        W54850  15.236  23.653   6.051 -0.0163  0.1909  0.2699
11938W        W54851  16.425   3.097   6.983 -0.1835  0.1019  0.1242
11939W        W54852  27.315  16.771   8.753 -0.2916  0.0272 -0.0628
11940W        W54853  26.827  20.137   4.207  0.1873 -0.1055 -0.4086
11941W        W54854  20.936  12.110  17.787  0.2401  0.0392 -0.1226
11942W        W54855  25.970  12.598  27.027  0.2007 -0.0090 -0.0020
11943W        W54856   5.745   1.793  24.977 -0.0179  0.3263 -0.1199
11944W        W54857   9.698   1.104  26.592 -0.0929  0.3931  0.1369
11945W        W54858  23.563  12.464   2.411  0.2240 -0.0576 -0.0317
11946W        W54859  23.553  10.731   5.239 -0.0402  0.0632 -0.3018
11947W        W54860  24.839  29.294  29.180 -0.1427 -0.1441 -0.1128
11948W        W54861  21.124  14.489   4.987 -0.1579 -0.1016 -0.1744
11949W        W54862  16.927   6.380  22.962 -0.2152  0.0416  0.2059
11950W        W54863  16.344   2.176   9.249 -0.3271  0.0161  0.5068
11951W        W54864  25.892   4.908   0.042  0.4374  0.0105 -0.0582
11952W        W54865  15.457   9.579   6.634  0.0868 -0.1573  0.2180
11953W        W54866  19.509   1.881  23.754 -0.0672  0.1064 -0.0132
11954W        W54867   8.979   5.125   2.847 -0.4132 -0.1027 -0.4330
11955W        W54868  17.344   6.922  26.300  0.0404 -0.1260 -0.3716
11956W        W54869  10.470  12.699   7.221  0.2494 -0.0311  0.3407
11957W        W54870  14.688  10.077  28.314 -0.0207 -0.0219 -0.1543
11958W        W54871  14.810  12.233  23.410  0.1465 -0.1133 -0.1094
11959W        W54872  15.929  10.391  26.840  0.1317 -0.1051 -0.1854
11960W        W54873  23.144  11.754   1.016 -0.0601  0.2045 -0.0367
11961W        W54874  17.029   8.688  28.224 -0.1395 -0.0811  0.1364
11962W        W54875  17.539  20.317   1.736  0.1181 -0.0166  0.1929
11963W        W54876  24.453  17.928   5.365 -0.3480 -0.2716 -0.1850
11964W        W54877  32.931   8.710   2.827  0.0721  0.1829 -0.0748
11965W        W54878  12.711  20.603   9.007  0.0445 -0.1076 -0.1188
11966W        W54879  23.316  13.176   6.793 -0.0061 -0.2009  0.4084
11967W        W54880   1.547   1.774  25.329 -0.2025  0.0031 -0.2916
11968W        W54881  25.645  34.477   4.418  0.2477  0.2821 -0.1565
11969W        W54882  10.421  15.755  22.080  0.2482 -0.0788 -0.0122
11970W        W54883  17.092  15.021  24.279 -0.0709  0.0490 -0.2400
11971W        W54884  20.492   6.518  27.944  0.0821  0.0853 -0.2160
11972W        W54885  19.000   7.251   7.366  0.0620  0.2313 -0.3346
11973W        W54886  20.664  10.867   9.013 -0.0709  0.0142 -0.1042
11974W        W54887  18.938   6.039  26.851 -0.1937 -0.0932  0.0470
11975W        W54888   4.869   7.565   4.832  0.1417 -0.0634  0.0404
11976W        W54889  25.012  16.351   3.840  0.1185 -0.3021 -0.1882
11977W        W54890  18.271  12.128  16.349 -0.1355 -0.1102  0.1749
11978W        W54891  13.949   3.928  25.112  0.0337 -0.0661 -0.0293
11979W        W54892  11.831  11.261   8.777  0.1135 -0.1132 -0.3022
11980W        W54893  27.442   4.907   5.123 -0.0584  0.0438 -0.1370
11981W        W54894  15.829   8.270  20.018  0.3494 -0.0433  0.1569
11982W        W54895  15.947   3.844   4.029  0.1995  0.0232  0.0529
11983W        W54896  13.614  17.156  22.811 -0.1040 -0.3933 -0.0889
11984W        W54897  15.956  27.683   6.028  0.1423  0.0928  0.1288
11985W        W54898  12.219  16.895   3.746 -0.1679 -0.0394  0.1621
11986W        W54899  10.412  31.551   6.090 -0.1685  0.0350  0.3007
11987W        W54900  18.410   8.403   4.730  0.1417  0.0880  0.0286
11988W        W54901  18.859  13.981   8.614 -0.1971 -0.1630 -0.0268
11989W        W54902  31.111   6.261   3.376  0.1513  0.0095  0.2150
11990W        W54903  15.116  12.398  27.435 -0.1414 -0.0095  0.0011
11991W        W54904  22.292  14.568  21.576  0.0213 -0.0447 -0.0797
11992W        W54905  30.079  19.806  24.352 -0.1950  0.1117 -0.5963
11993W        W54906  24.565  16.016   7.734 -0.3435 -0.1813  0.2491
11994W        W54907  13.747   2.706   8.716 -0.0710 -0.0582  0.0358
11995W        W54908  19.101   6.848  24.586  0.3101 -0.2335 -0.0072
11996W        W54909  15.434   4.897  29.315 -0.2553 -0.0298 -0.1008
11997W        W54910  14.079   8.288  10.280 -0.1481  0.1857 -0.0918
11998W        W54911  26.480  12.930   2.613 -0.3746 -0.0739 -0.0081
11999W        W54912  34.249  10.026  26.518  0.2501 -0.1633  0.0082
12000W        W54913  22.770  17.773  21.560  0.1152  0.0403  0.0366
12001W        W54914   9.915  26.400   1.478  0.1447 -0.4834 -0.0855
12002W        W54915  19.977   5.839   8.667  0.3736 -0.1719  0.2024
12003W        W54916  17.809  15.817   3.013  0.1414  0.1388 -0.1063
12004W        W54917  10.644  13.299  28.811 -0.1436 -0.0775  0.0712
12005W        W54918  14.280   1.350   8.366 -0.3097  0.0973 -0.2221
12006W        W54919  21.884   8.688   4.595  0.1991  0.0000  0.0690
12007W        W54920  11.725  12.399   9.554  0.1164  0.2554  0.3272
12008W        W54921  21.365   4.077  27.382 -0.0995 -0.1809 -0.0341
12009W        W54922   8.404   1.251  26.392 -0.0088 -0.2206 -0.3283
12010W        W54923  17.456   6.656   2.442 -0.1217  0.1277 -0.1475
12011W        W54924  11.771   6.517  29.441 -0.2030  0.2344 -0.0893
12012W        W54925  15.183  20.477  29.053 -0.1009 -0.1032  0.0202
12013W        W54926  28.292  15.383   0.473 -0.1565 -0.5868 -0.1181
12014W        W54927  25.388  11.088  28.527  0.2882  0.1101 -0.2299
12015W        W54928  14.297   7.938   1.424 -0.0240 -0.1570  0.3254
12016W        W54929  22.379   5.323   7.448  0.1464  0.0493 -0.1975
12017W        W54930  22.271  29.998   2.309 -0.0454 -0.3159  0.1455
12018W        W54931  23.370  34.347  21.609 -0.0265  0.1852  0.3313
12019W        W54932  17.417   7.890   9.068 -0.0267  0.1153  0.1824
12020W        W54933  16.262  17.340  29.318  0.0913 -0.2774 -0.2196
12021W        W54934  27.991   9.883   8.874  0.1623 -0.2634  0.1503
12022W        W54935  18.443  10.844   7.276  0.0624  0.0835  0.1865
12023W        W54936  14.736   4.423   2.129  0.0647 -0.0454 -0.0855
12024W        W54937   7.103  13.575  29.767  0.0550 -0.3000  0.2417
12025W        W54938  24.972  10.316   6.197 -0.0848 -0.1144 -0.0641
12026W        W54939  13.248  16.897   4.708 -0.3579  0.3957 -0.3776
12027W        W54940  23.694  16.425   2.920 -0.0907 -0.0674  0.1320
12028W        W54941  14.791  15.013   8.890  0.2177 -0.0844 -0.2001
12029W        W54942  24.843   7.689  27.420 -0.2224  0.0444 -0.2437
12030W        W54943  24.001  13.430  16.835 -0.0577 -0.0214  0.0160
12031W        W54944  27.312  10.011  28.402 -0.0810  0.1658 -0.0930
12032W        W54945  22.329   8.226   2.776  0.3054 -0.1998 -0.1431
12033W        W54946  18.490  10.876  26.311  0.2042 -0.4770  0.0221
12034W        W54947  30.015  10.388   3.630  0.1606 -0.2837 -0.2293
12035W        W54948  21.924  17.796  27.514 -0.0769  0.2316  0.1276
12036W        W54949  23.155  15.261  25.875 -0.3705  0.1209 -0.0049
12037W        W54950  20.054  13.708   4.078  0.1744 -0.3219 -0.4773
12038W        W54951  22.419  13.469   5.788 -0.2035  0.0639 -0.2341
12039W        W54952   8.372   1.876  10.632  0.1988 -0.1292  0.0009
12040W        W54953  10.953  15.090  29.242 -0.2155  0.0697 -0.1368
12041W        W54954  21.669  12.431  28.142  0.1338  0.1228  0.1713
12042W        W54955  24.605  33.252   5.918  0.0101  0.2613  0.1493
12043W        W54956  18.059  14.732  25.719 -0.0513  0.1116  0.1748
12044W        W54957  14.060  32.963   7.084 -0.4237  0.0318  0.1757
12045W        W54958  15.573  18.980   2.504 -0.2058 -0.1907 -0.1938
12046W        W54959  25.705  11.841   8.350  0.1070 -0.1402  0.1678
12047W        W54960  14.417   5.839  26.328  0.0616  0.0621 -0.2350
12048W        W54961  19.785  17.985  23.342  0.0387 -0.0826  0.0266
12049W        W54962  12.928  13.459  24.156  0.1697  0.0060  0.1733
12050W        W54963  14.582  17.584   8.295 -0.1149 -0.2076  0.1600
12051W        W54964  22.118  16.607   6.676 -0.1493 -0.1799  0.1323
12052W        W54965  24.774  17.811   3.460  0.0394  0.4739 -0.0067
12053W        W54966   8.610   7.529   8.449  0.0545 -0.0654 -0.0226
12054W        W54967  20.085   2.490   0.023 -0.0893  0.0361 -0.0895
12055W        W54968  16.950  16.303   0.127  0.1063 -0.1877  0.1297
12056W        W54969  20.393  12.456   2.746  0.2305  0.0796 -0.1071
12057W        W54970  20.730   3.991   6.029  0.1239 -0.1660 -0.1237
12058W        W54971  26.876  12.358   7.335  0.2623  0.0452 -0.1233
12059W        W54972  22.953  13.518   5.822 -0.1787 -0.2463  0.2518
12060W        W54973  21.860   8.361   7.633  0.0186 -0.2302 -0.0453
12061W        W54974  18.315   5.353  23.565  0.0889 -0.1344 -0.0818
12062W        W54975  20.795  14.624   2.536 -0.0643 -0.2316  0.0045
12063W        W54976  12.416   7.335   4.860  0.0261  0.0414 -0.0066
12064W        W54977  29.010  20.099   2.767 -0.1976 -0.2254  0.1471
12065W        W54978  13.023  14.767  27.608 -0.0352  0.0813  0.0926
12066W        W54979  26.246   4.565  21.808 -0.0935  0.3995  0.0645
12067W        W54980  31.904  16.624   3.472  0.2016 -0.3362  0.0012
12068W        W54981  32.246  13.993   4.123 -0.2139 -0.1593 -0.1502
12069W        W54982  15.752  32.560  28.980  0.0514  0.0675 -0.1773
12070W        W54983  12.410  11.792   5.495 -0.1440  0.1988  0.2269
12071W        W54984  20.000   6.912   1.554 -0.3316  0.0508  0.3227
12072W        W54985  15.667  17.656  29.281 -0.0135  0.0013 -0.2182
12073W        W54986  17.984   7.898  25.584  0.0015  0.2027 -0.1223
12074W        W54987  24.572  13.281   3.821  0.0621 -0.0510 -0.0041
12075W        W54988  18.691   1.074  26.605 -0.2089 -0.2335 -0.2512
12076W        W54989  26.390  10.809  18.675 -0.2148  0.0976 -0.0489
12077W        W54990  22.829   8.132   9.843  0.0652 -0.0775  0.0860
12078W        W54991  22.745  23.813   6.762 -0.1374  0.0088 -0.0186
12079W        W54992  21.747  19.303   8.240 -0.0778  0.2314 -0.3267
12080W        W54993  16.284   2.943  28.944  0.1753 -0.0393  0.0789
12081W        W54994  10.047  28.278   8.957  0.1685 -0.3165 -0.4053
12082W        W54995  22.017   7.727  25.399 -0.0377 -0.2414  0.2104
12083W        W54996  23.166  11.146  25.390 -0.2279 -0.2024  0.2566
12084W        W54997  11.006  12.019   3.349 -0.5185  0.0399  0.2432
12085W        W54998  13.733  13.221  29.662 -0.1346  0.1061  0.0408
12086W        W54999   6.454  11.662  28.370  0.0788 -0.0048  0.1379
12087W        W55000  12.656  14.622   8.987  0.1143 -0.1168  0.1304
12088W        W55001  18.716   2.479   8.065 -0.1602 -0.0531 -0.0776
12089W        W55002  17.335  16.685   3.724 -0.1446  0.1166 -0.1076
12090W        W55003  13.938  15.341   6.349  0.2053 -0.0206 -0.2007
12091W        W55004  17.790  14.239  25.043  0.0099  0.0309  0.1242
12092W        W55005  12.933   3.606   9.918 -0.1972  0.2840  0.0233
12093W        W55006  29.035   8.820  29.027  0.1509  0.1299  0.1285
12094W        W55007  12.223   7.674  26.954  0.2708 -0.0925 -0.0990
12095W        W55008  20.563  13.014  26.503 -0.2082 -0.1333  0.2030
12096W        W55009   7.452  10.172  27.848 -0.4546 -0.1114  0.0773
12097W        W55010  17.889   9.369  18.565 -0.0584  0.0043 -0.0639
12098W        W55011  30.592  13.005   1.566 -0.0366 -0.2392 -0.0024
12099W        W55012  17.879   7.369   7.605 -0.1350 -0.0397  0.0606
12100W        W55013  16.430   0.526  27.589 -0.2546  0.1228  0.0107
12101W        W55014  14.332   5.328  19.845  0.0359  0.1265 -0.3864
12102W        W55015  23.426   6.250   0.723  0.2301  0.2415 -0.2416
12103W        W55016  24.731   1.787   1.734 -0.0023 -0.0376  0.2299
12104W        W55017   6.413   0.038  25.114 -0.0123 -0.0948  0.2096
12105W        W55018  15.039  26.223   2.342  0.0934 -0.2046  0.1986
12106W        W55019  22.832  15.551  28.814 -0.0958  0.1831  0.0856
12107W        W55020  23.412  14.937   3.012 -0.1538 -0.1509 -0.0430
12108W        W55021  18.810  15.456  28.956 -0.0041  0.1467 -0.2100
12109W        W55022   8.753  20.707   7.010  0.0028 -0.3879 -0.0635
12110W        W55023  23.358  18.327   7.773  0.2098  0.2000  0.1045
12111W        W55024  24.018   7.887   5.877 -0.0910  0.4250 -0.1026
12112W        W55025  21.648  12.016  18.478 -0.1074  0.1186  0.1325
12113W        W55026  15.517  11.967   7.844 -0.0830 -0.3962 -0.1342
12114W        W55027  14.298  11.022  25.324  0.1922 -0.0008 -0.0209
12115W        W55028   6.179   8.910   5.533  0.0057  0.0947  0.0340
12116W        W55029   3.751  10.264   1.254  0.0110  0.0687  0.1187
12117W        W55030  11.828  25.312  28.851 -0.1012 -0.1844  0.0825
12118W        W55031  24.644   3.772  26.689  0.1757  0.4719 -0.1128
12119W        W55032  23.420  18.424   3.481  0.0520 -0.2950  0.0478
12120W        W55033  34.422   5.218   1.476  0.2722  0.0369 -0.0059
12121W        W55034  18.777  13.292   2.305  0.0400 -0.1808  0.2583
12122W        W55035  10.009  10.607   8.424  0.0800 -0.1797  0.0454
12123W        W55036  19.359  10.483  13.930  0.1667  0.3075 -0.0128
12124W        W55037  25.377  14.954  14.288 -0.2095 -0.1887  0.0822
12125W        W55038  12.473  23.500   4.849  0.1828  0.1235  0.1264
12126W        W55039   8.031   2.424   5.370  0.0444  0.0321  0.0561
12127W        W55040  24.722   3.954  29.620 -0.1484 -0.1043  0.2807
12128W        W55041  14.572  28.628   7.099  0.0886  0.0975 -0.0922
12129W        W55042  25.899  13.480   2.104 -0.0987  0.0380  0.0436
12130W        W55043  19.858  27.035   3.335  0.1910  0.2417 -0.0555
12131W        W55044  31.805  17.168   1.387  0.3149  0.0027 -0.0123
12132W        W55045  16.872  11.433   2.927  0.0935 -0.3337  0.2937
12133W        W55046  11.959  31.842   6.244 -0.0204 -0.1191 -0.1126
12134W        W55047  19.146  12.522   7.093  0.0150 -0.1130  0.1058
12135W        W55048   7.151  15.268   2.641 -0.2760  0.2097  0.0331
12136W        W55049  25.429  21.464  22.148  0.2157 -0.1271 -0.1807
12137W        W55050  25.001  17.222  17.069  0.1125 -0.2707 -0.1889
12138W        W55051  15.340   0.529   1.269 -0.1458  0.2904 -0.2143
12139W        W55052  21.313  12.434  26.454 -0.0591  0.1395 -0.0661
12140W        W55053  17.601  13.441   6.612 -0.4880 -0.0345  0.0096
12141W        W55054  13.990  17.796  23.043 -0.0430 -0.1980 -0.1323
12142W        W55055  24.947   5.214   1.650 -0.2412  0.0796  0.1736
12143W        W55056  20.975  32.019  25.557 -0.0267  0.4235  0.2707
12144W        W55057  18.147   4.710   4.824 -0.2828 -0.1843  0.2090
12145W        W55058  17.529  12.206   4.619  0.3414  0.0278 -0.0879
12146W        W55059  16.650  13.501  25.154  0.0483 -0.2893  0.4238
12147W        W55060  21.716  11.480  26.937 -0.1264 -0.1247 -0.3598
12148W        W55061  14.439  17.710  27.317  0.0140  0.3574 -0.0277
12149W        W55062   9.299  11.921   9.946 -0.0114  0.0040 -0.0464
12150W        W55063   9.386  14.606   8.129  0.1398 -0.0851  0.3626
12151W        W55064  12.317   7.762  11.192  0.1439  0.2249 -0.1590
12152W        W55065  17.363   6.180   4.116 -0.0930 -0.1513 -0.0385
12153W        W55066  19.328   9.118  28.776 -0.0333  0.3276  0.2365
12154W        W55067  22.373   4.574   2.758 -0.1935 -0.0260 -0.1208
12155W        W55068   7.511   6.119  26.386 -0.1402  0.0471 -0.0921
12156W        W55069  11.301  13.637  26.043  0.0153  0.0012 -0.1709
12157W        W55070  16.662  15.714  24.948 -0.0094 -0.3433  0.1912
12158W        W55071  22.255   8.138   6.397 -0.2111  0.0096 -0.1581
12159W        W55072  25.967   0.593  25.694  0.0980  0.2528  0.2460
12160W        W55073  19.928   7.877  24.297  0.2462 -0.1063  0.3985
12161W        W55074  20.778  15.277  25.696  0.2121  0.1169  0.1221
12162W        W55075  20.123  18.015   5.539  0.0021  0.2336 -0.0516
12163W        W55076  22.077  14.061   8.312  0.0045 -0.1128 -0.2328
12164W        W55077  10.988   9.934   2.390 -0.0760 -0.0891 -0.2484
12165W        W55078  26.279  14.519   1.855 -0.0935 -0.3039  0.1037
12166W        W55079  22.896  11.623   0.626  0.1539 -0.3087 -0.2345
12167W        W55080  26.799   7.763  28.001  0.1246  0.1545 -0.0935
12168W        W55081  16.681  10.896   7.562 -0.1287 -0.1645 -0.0868
12169W        W55082  15.635  23.289  29.753  0.1709  0.0602  0.1403
12170W        W55083  22.795  10.378   0.924 -0.2484 -0.0549  0.0632
12171W        W55084  34.397  21.222  27.797  0.3504 -0.1054  0.0328
12172W        W55085  23.531  18.759   0.795  0.1277 -0.3070  0.0424
12173W        W55086  22.246  13.437  25.596 -0.0669  0.1042 -0.1628
12174W        W55087  11.888  13.330   9.110 -0.0657 -0.1865 -0.1982
12175W        W55088  14.789  17.067  29.318  0.1303  0.3766  0.3460
12176W        W55089  22.294  13.046   4.163 -0.2414  0.1103 -0.2923
12177W        W55090  28.865  16.565  10.208 -0.1977  0.1565  0.2859
12178W        W55091  17.710  19.878  24.692  0.0534 -0.3975  0.2245
12179W        W55092  19.696  10.350   1.763  0.2625  0.4262 -0.1285
12180W        W55093  20.335   2.771   5.661 -0.0928 -0.2279 -0.0501
12181W        W55094  30.930   7.429   0.439 -0.1874 -0.4069  0.1791
12182W        W55095  12.416  24.100   2.244 -0.0987  0.2507 -0.1388
12183W        W55096   5.637   6.999  26.080 -0.2521 -0.1523 -0.1110
12184W        W55097  18.264  12.555  27.993  0.1591  0.1108 -0.0355
12185W        W55098  18.654  22.356   7.774  0.0295  0.1188 -0.0554
12186W        W55099  16.864   1.169  21.099  0.1024 -0.3786  0.1632
12187W        W55100  17.563  14.970   5.110 -0.1483 -0.0537  0.1262
12188W        W55101  17.070   2.802   0.799  0.0281 -0.1571  0.0725
12189W        W55102  15.134  14.741   1.826 -0.1191 -0.0316 -0.1485
12190W        W55103  24.346  16.354   1.709  0.1242 -0.0530  0.1149
12191W        W55104  28.292  19.584  26.610  0.3261  0.0396  0.3062
12192W        W55105  30.792  15.133   8.359 -0.3489 -0.0535 -0.0358
12193W        W55106  17.302  22.910  28.000 -0.2526  0.0050 -0.3633
12194W        W55107  15.305  34.428   2.382 -0.2177  0.0141 -0.0465
12195W        W55108  27.985  12.342   4.015  0.1722  0.2436  0.1619
12196W        W55109  18.036  20.389  23.908  0.0874 -0.1072 -0.3375
12197W        W55110  16.206   8.598   2.574 -0.3540  0.3150  0.3453
12198W        W55111  21.270  17.353  22.650  0.0796 -0.1214 -0.0935
12199W        W55112  10.342   9.012  25.035  0.0701  0.2337 -0.1940
12200W        W55113  14.045  30.073   1.530 -0.0201  0.0236  0.0139
12201W        W55114   5.079   9.220   0.182  0.2209  0.2831 -0.1205
12202W        W55115  17.093   9.959  24.614  0.0842 -0.1476  0.0433
12203W        W55116  10.722  14.484  22.029  0.1526 -0.0542 -0.0933
12204W        W55117  19.230   9.783   6.041  0.0227  0.0040  0.0557
12205W        W55118  22.902   2.848   7.759  0.2422 -0.2571  0.0297
12206W        W55119  25.980   7.526  25.914 -0.2495 -0.1411  0.0206
12207W        W55120  18.635  19.761  25.192  0.1151 -0.1505  0.0456
12208W        W55121  20.729  15.897   2.895 -0.0163 -0.4255  0.0793
12209W        W55122  25.615   5.463  22.850  0.1630  0.1076 -0.1684
12210W        W55123  28.393  21.557   9.034  0.0794  0.2380  0.1949
12211W        W55124  27.229   6.274  28.532 -0.0189 -0.0039 -0.0258
12212W        W55125  11.077  31.279   7.414  0.1873  0.1924  0.2491
12213W        W55126  24.348  13.373  26.015 -0.0881  0.1194 -0.1114
12214W        W55127  16.893  33.344  24.237  0.0366  0.0491  0.0561
12215W        W55128  24.606  20.505  22.528  0.2060 -0.3991  0.0918
12216W        W55129  21.063  20.812   0.847  0.0944  0.3663 -0.1309
12217W        W55130  29.085  14.662   5.448  0.0952  0.1692  0.3707
12218W        W55131  20.723  11.651   4.034 -0.0260  0.2559 -0.1370
12219W        W55132  22.525  16.308   8.386  0.3093  0.0805 -0.1099
12220W        W55133  21.158  20.073   7.119  0.1290  0.1277  0.1970
12221W        W55134  19.642  15.742   0.432 -0.1437  0.1187 -0.3031
12222W        W55135  12.756  16.625  29.550  0.1215 -0.0659  0.1886
12223W        W55136  22.071  16.087  29.060  0.2627  0.1000  0.2073
12224W        W55137  28.445   8.958   7.508 -0.2010  0.0022  0.1387
12225W        W55138  19.762   1.740   0.056 -0.1000 -0.1316 -0.0923
12226W        W55139  17.090   8.076  29.611  0.1534 -0.0448  0.0438
12227W        W55140  21.865   9.382   0.602 -0.0319 -0.1588 -0.0047
12228W        W55141  24.564  18.988   7.466 -0.3669 -0.1957 -0.0504
12229W        W55142  20.303  15.126   4.741  0.1601  0.0545 -0.3754
12230W        W55143  15.419  20.537  27.767 -0.2526 -0.0658 -0.0890
12231W        W55144  16.196   8.725  29.544 -0.0526  0.1045 -0.0809
12232W        W55145  25.626  12.373   6.520 -0.4956  0.0609 -0.1088
12233W        W55146  21.390   5.070  19.966  0.2472 -0.0286 -0.3067
12234W        W55147  17.286  15.897  26.106 -0.1091  0.0034 -0.0205
12235W        W55148  14.519  12.388   7.017  0.1535 -0.2489 -0.0875
12236W        W55149  20.920   2.594  23.186  0.1053  0.1478 -0.2923
12237W        W55150  11.545  30.186   3.845 -0.1029  0.0334  0.0854
12238W        W55151  24.127  16.111  26.325  0.0218  0.1189 -0.1523
12239W        W55152  26.822  10.022  28.317 -0.1411  0.0451  0.4138
12240W        W55153  15.631  19.654  25.200 -0.2740 -0.2358 -0.2275
12241W        W55154  13.239  10.553   8.614 -0.0089 -0.1582 -0.3025
12242W        W55155  14.750  16.936   6.436  0.0246 -0.1320 -0.1191
12243W        W55156  11.382  14.044   7.917  0.0184 -0.1650 -0.0606
12244W        W55157  26.963   1.679   5.908  0.4014  0.1505 -0.0518
12245W        W55158  19.417  10.422  21.605 -0.0699 -0.3827  0.1463
12246W        W55159  18.334   5.327   2.818 -0.1294 -0.2009 -0.0443
12247W        W55160  19.106  12.891  18.591 -0.0589  0.2557 -0.0357
12248W        W55161  24.818   7.716   2.894 -0.0621 -0.4848 -0.0554
12249W        W55162  12.716  28.021   5.410  0.0362 -0.0134  0.1243
12250W        W55163  19.205  18.065   7.559 -0.1665  0.1987  0.2194
12251W        W55164  17.741  10.374   2.905  0.1537 -0.0688 -0.0397
12252W        W55165  14.302  28.474   7.863 -0.0551  0.0455  0.1812
12253W        W55166  15.923   1.026   5.254 -0.1895  0.2660 -0.0863
12254W        W55167  15.170   8.915  24.627 -0.0863  0.0193 -0.0079
12255W        W55168  16.247  12.434   7.263  0.0305  0.1842  0.0507
12256W        W55169  33.057  24.021   9.048 -0.0445 -0.3215 -0.1222
12257W        W55170   9.448  13.549   1.993 -0.2901 -0.1619 -0.2680
12258W        W55171  25.702  10.942   8.517  0.2320 -0.1145  0.4855
12259W        W55172  14.869  12.017   5.254 -0.0256  0.1091 -0.1394
12260W        W55173  18.502  17.315   5.345  0.1818  0.0906  0.0278
12261W        W55174  24.877  20.254   8.596  0.0300 -0.4448 -0.0461
12262W        W55175  21.775   2.746   6.120  0.2227 -0.0292 -0.2477
12263W        W55176   7.117   0.973   2.046  0.2237 -0.0430  0.1076
12264W        W55177  15.393  15.249   0.630 -0.2945  0.1859 -0.0186
12265W        W55178  30.750  14.085   1.555 -0.2012 -0.2662  0.0799
12266W        W55179   9.289   6.124   0.859 -0.1780  0.3222 -0.1571
12267W        W55180   7.909   8.907   6.928 -0.1083  0.1515  0.1300
12268W        W55181  18.077  21.602  25.959 -0.1690  0.1558 -0.0500
12269W        W55182  25.413  12.177   4.473 -0.3308  0.0540 -0.0954
12270W        W55183  19.173  10.928   4.705  0.1582 -0.1007  0.3259
12271W        W55184  12.527   7.425   5.350 -0.2301  0.1612  0.1046
12272W        W55185  27.664  13.001   6.099  0.0046 -0.1265 -0.0447
12273W        W55186  16.305  28.067   6.802 -0.3250  0.1521 -0.2673
12274W        W55187  20.223  13.831   5.599 -0.2484 -0.2552  0.1205
12275W        W55188  15.567   5.409   8.622  0.0678 -0.0223  0.3132
12276W        W55189   9.024   9.585   5.411 -0.0274  0.1407 -0.3152
12277W        W55190  24.244  14.543   9.126 -0.1948  0.3084 -0.2584
12278W        W55191  15.153  16.449   2.680  0.0993 -0.1224 -0.0950
12279W        W55192  15.821   2.239  28.221  0.2302 -0.3283  0.4317
12280W        W55193  29.901   6.197   5.881  0.2021 -0.1720 -0.3696
12281W        W55194  21.002  11.830   5.840 -0.0882 -0.1039  0.1332
12282W        W55195  12.348   5.168  23.810 -0.1476  0.0355  0.0033
12283W        W55196  33.107   1.996   9.067  0.2860  0.2486 -0.2190
12284W        W55197  31.690  12.118   7.909  0.0789 -0.2082 -0.0223
12285W        W55198  17.089  28.854   8.385 -0.2337 -0.2448  0.2750
12286W        W55199  21.513  22.251   5.092  0.2982 -0.1769 -0.3871
12287W        W55200  31.383  12.561  26.547 -0.3307  0.1712  0.0268
12288W        W55201  19.074  14.626   5.273  0.1775  0.2847 -0.0134
12289W        W55202  12.735  21.710   1.454  0.0192 -0.0105 -0.0826
12290W        W55203  13.503   6.252   6.353  0.2777 -0.0831 -0.0399
12291W        W55204  13.764   4.416   4.023  0.1352  0.0558 -0.0182
12292W        W55205   6.808  22.246   6.220  0.1533  0.2514  0.2835
12293W        W55206  16.978  11.195   1.881  0.0642  0.0380  0.3506
12294W        W55207  10.654  16.737   9.250  0.0284  0.3256  0.0864
12295W        W55208  20.300  23.516   9.155 -0.1592  0.0021  0.0648
12296W        W55209  22.413   0.176   3.859 -0.0753 -0.0317 -0.0128
12297W        W55210  17.471  19.247   4.998 -0.0766  0.0258 -0.0397
12298W        W55211  29.279  12.116   2.753 -0.0205 -0.2248 -0.3392
12299W        W55212  19.269   2.122  26.814 -0.0990 -0.1700 -0.1929
12300W        W55213  19.966  12.095  29.138  0.3440  0.0295  0.1098
12301W        W55214  18.804  15.042   5.318  0.1346 -0.1179 -0.0284
12302W        W55215  24.764  13.345   4.802  0.0135  0.2130  0.0466
12303W        W55216  21.375  12.756   5.624  0.0967  0.0020 -0.0195
12304W        W55217  24.043   6.554   7.829  0.0685  0.0654  0.2066
12305W        W55218  15.124   5.350   4.609 -0.1055 -0.2675  0.0808
12306W        W55219  20.987  14.071   3.275  0.1074 -0.1191 -0.3856
12307W        W55220  16.224   8.453   5.257 -0.2240  0.3062  0.2069
12308W        W55221  14.321   8.726   9.090 -0.1744 -0.2720 -0.1909
12309W        W55222  23.794  22.984   7.670  0.7000 -0.2742 -0.1400
12310W        W55223  14.376  12.631   3.213 -0.0153 -0.0836 -0.0536
12311W        W55224  19.463   6.263  24.004  0.0034 -0.0628  0.0111
12312W        W55225  25.506  14.155   4.028  0.0103  0.3025  0.2225
12313W        W55226   6.970  13.557   7.000  0.5146  0.1908  0.0615
12314W        W55227  12.716  14.942  21.209  0.3897  0.0544  0.5045
12315W        W55228  17.534   6.845   2.851 -0.0484  0.2928 -0.1717
12316W        W55229  33.836  17.688   1.808 -0.3322  0.2038 -0.1186
12317W        W55230  18.641  14.837   0.585  0.0628 -0.0705 -0.0601
12318W        W55231  23.643  14.928   6.416  0.2710 -0.0753 -0.0349
12319W        W55232  14.477   3.467   6.674 -0.0754 -0.0358 -0.2646
12320W        W55233  19.152   2.822   9.969  0.4451  0.2631  0.3154
12321W        W55234  23.482  12.256   6.775 -0.0266  0.2444  0.0426
12322W        W55235  25.277  13.670   8.158 -0.2067  0.2892 -0.0952
12323W        W55236  29.515  14.037   4.129  0.1951 -0.0550 -0.3343
12324W        W55237  14.464  15.908  27.664  0.0858  0.0893 -0.0222
12325W        W55238   9.895   7.739  12.965 -0.1242 -0.0457  0.1836
12326W        W55239  28.844  18.841   4.507  0.1327 -0.2687 -0.0734
12327W        W55240  22.681   4.598   2.329 -0.2519 -0.1506 -0.0172
12328W        W55241  17.585   8.472   0.638 -0.2015  0.1426 -0.0992
12329W        W55242  15.027  14.157   7.102  0.0009  0.1835 -0.0922
12330W        W55243  16.108  18.750   1.174 -0.0139 -0.2359 -0.1109
12331W        W55244  16.064  22.251   3.205 -0.2183  0.0221  0.0561
12332W        W55245  22.312  19.269  22.058 -0.2382  0.1932 -0.4834
12333W        W55246  14.080  31.889   3.870  0.4857 -0.0010 -0.0297
12334W        W55247  25.416  10.027  29.765  0.1080  0.2926  0.1172
12335W        W55248  20.413  10.964   6.960  0.3549 -0.3313  0.1111
12336W        W55249  16.545  16.097   3.930  0.2427  0.0244 -0.2243
12337W        W55250  23.131  13.393   8.676  0.2476 -0.4832 -0.2337
12338W        W55251  32.179  15.929   5.351  0.2973 -0.0369  0.3357
12339W        W55252  13.326   7.668   4.219  0.2708  0.2033 -0.0698
12340W        W55253  31.306  16.130   9.351 -0.0741  0.1734 -0.1391
12341W        W55254  19.965  15.568   3.233 -0.0427 -0.4070  0.3360
12342W        W55255   9.401  11.366   3.439 -0.1372  0.0195 -0.2709
12343W        W55256   7.209   7.896   6.552 -0.1571  0.1671  0.0994
12344W        W55257   8.783   2.605   7.461  0.4425  0.0426  0.1581
12345W        W55258  28.556  14.544   4.564 -0.0964  0.0949 -0.0098
12346W        W55259  10.527   8.944   5.166 -0.3366 -0.2517  0.0557
12347W        W55260  16.630  13.822  24.255  0.0188  0.0390  0.0161
12348W        W55261  20.769   2.396   2.734 -0.1189 -0.1426  0.0027
12349W        W55262  15.816  13.693  26.160  0.1182 -0.2422  0.3350
12350W        W55263   7.777   7.628  26.439 -0.1843 -0.0484 -0.4277
12351W        W55264  13.896  16.483   6.837  0.0624 -0.0528  0.1465
12352W        W55265   6.468   8.851   7.886  0.0399 -0.0432 -0.2639
12353W        W55266  19.980   9.011  24.540  0.1728 -0.0700  0.0827
12354W        W55267  11.343  14.710   6.402 -0.0012  0.2517 -0.1419
12355W        W55268  22.371  15.107   0.301 -0.0960  0.2035  0.1771
12356W        W55269  23.395  10.902   5.994  0.1195 -0.0355 -0.0835
12357W        W55270  13.402  33.748  10.859  0.0215  0.2294 -0.2980
12358W        W55271  22.671  10.984   2.059  0.0813 -0.0423 -0.0792
12359W        W55272  17.477  20.386  25.107 -0.0547 -0.0459 -0.1126
12360W        W55273  12.751   5.319   5.019  0.0791  0.3029 -0.0686
12361W        W55274  16.183   8.677   9.452  0.2294 -0.0933 -0.0494
12362W        W55275  22.500  14.977   2.493 -0.1897 -0.1079  0.0508
12363W        W55276  17.186  18.653  22.496  0.3337  0.3868 -0.0894
12364W        W55277  14.283   8.267   8.877 -0.1223  0.2307 -0.0720
12365W        W55278  19.794   0.256   5.764 -0.0890  0.2626  0.1509
12366W        W55279  14.284  20.340   8.255  0.3863 -0.1772 -0.1486
12367W        W55280  14.370  14.317   7.635  0.2070 -0.0114  0.0800
12368W        W55281  12.766   5.732   8.965  0.1404  0.3096 -0.2345
12369W        W55282  10.690  18.989   1.794  0.4706 -0.2216  0.1582
12370W        W55283  20.788  18.739  26.603 -0.0566 -0.1375 -0.1440
12371W        W55284  18.592  15.536   8.773  0.0860 -0.0854 -0.1688
12372W        W55285  11.427   9.039  10.134  0.2017 -0.1493 -0.1214
12373W        W55286  29.536   7.058   1.561 -0.2037 -0.0432  0.2091
12374W        W55287  22.116  17.484   8.501 -0.2864  0.2840  0.0801
12375W        W55288  25.596  10.561   1.037 -0.1030  0.4236  0.0592
12376W        W55289   9.081   5.273   0.244 -0.5861  0.2394  0.0605
12377W        W55290  20.814  15.932   7.738 -0.0487  0.1233  0.3110
12378W        W55291   9.701  34.291  21.948 -0.2022 -0.2045  0.0950
12379W        W55292  16.587  15.361   1.187  0.2146  0.1633 -0.0548
12380W        W55293  17.699  18.447   3.790  0.1753 -0.2626 -0.0135
12381W        W55294  19.554   0.913   8.083 -0.1572 -0.3318  0.3206
12382W        W55295   4.370   8.380   7.125  0.0722 -0.0920 -0.3023
12383W        W55296  15.802  12.848  28.090 -0.2348 -0.1212  0.0725
12384W        W55297  22.001  11.597   7.227 -0.0056 -0.0586 -0.2244
12385W        W55298  30.773  21.499  26.806  0.0845  0.2597 -0.0210
12386W        W55299  24.212  19.950   5.050  0.1781  0.0659  0.1674
12387W        W55300  20.259  14.126   8.430  0.1786 -0.3941 -0.0271
12388W        W55301  22.641   7.951   2.436 -0.2611 -0.2018 -0.0492
12389W        W55302  18.887   4.166   3.290 -0.2290 -0.2315 -0.0531
12390W        W55303  24.902  17.011  21.114  0.0222 -0.0957 -0.2216
12391W        W55304   9.773   5.202  13.422 -0.1937  0.0293 -0.1520
12392W        W55305  18.850   4.017   1.794  0.0990 -0.0209  0.0668
12393W        W55306  26.263  11.978   6.977  0.0585 -0.0957 -0.2515
12394W        W55307  12.370  17.477   6.393  0.1429  0.1039 -0.0815
12395W        W55308  17.893  19.298   7.066 -0.2247 -0.1925 -0.2724
12396W        W55309  13.448  14.911  27.378 -0.1488 -0.3341  0.1289
12397W        W55310   9.924  18.267   0.337  0.1146 -0.2552  0.0367
12398W        W55311  28.474  12.068   9.322 -0.0235 -0.2912 -0.0500
12399W        W55312  19.359  12.346   1.025  0.0224  0.1350  0.1700
12400W        W55313  18.440  10.373   7.440 -0.0387  0.1226 -0.0250
12401W        W55314  27.240   6.114   0.311 -0.2613  0.3468  0.0062
12402W        W55315  21.440   9.095   1.630  0.1994  0.2891  0.0344
12403W        W55316   9.440  11.180   6.588 -0.0667 -0.1070  0.1393
12404W        W55317   9.605  11.627  21.113  0.2090  0.1682 -0.0823
12405W        W55318  28.576  33.433  10.005  0.1875  0.0210 -0.2161
12406W        W55319  10.689   3.518  28.560 -0.1078 -0.0242  0.1381
12407W        W55320  15.175   9.915   7.591 -0.0930  0.1282  0.0654
12408W        W55321  19.695   3.583  18.872  0.0878 -0.0671 -0.2918
12409W        W55322  22.597  11.725   6.551 -0.0525 -0.0258  0.1740
12410W        W55323  13.469  22.931   1.826 -0.0130  0.2100  0.7414
12411W        W55324  20.655   9.810   3.391  0.2562  0.0648  0.1080
12412W        W55325  10.614  18.087   2.733 -0.0163 -0.2007  0.0191
12413W        W55326  16.916  15.406  26.719 -0.4313  0.1421  0.0989
12414W        W55327  17.047  13.334   8.582 -0.2671 -0.2537  0.1684
12415W        W55328  19.678  13.444  25.302 -0.0517 -0.1354 -0.0847
12416W        W55329  20.335  25.311   5.545  0.1854  0.1267  0.0319
12417W        W55330  10.184   0.372   9.983 -0.0260  0.0728  0.2514
12418W        W55331   8.487   6.428   8.123  0.0032 -0.3677 -0.0834
12419W        W55332  11.346  15.017   4.903 -0.0068  0.1351 -0.3077
12420W        W55333  16.621  11.841   4.573 -0.1083  0.0821 -0.1429
12421W        W55334  13.424  18.020  26.378 -0.0169  0.1296 -0.2441
12422W        W55335  22.346   8.316   5.171  0.0948 -0.0046  0.2313
12423W        W55336  16.688   6.681   4.718  0.0993 -0.1088  0.0467
12424W        W55337  14.836  10.259  25.612 -0.2230 -0.0587 -0.0077
12425W        W55338  17.166  15.361   2.564 -0.0102 -0.3103  0.1241
12426W        W55339  16.255  15.890  27.342  0.2191  0.2307  0.1128
12427W        W55340  16.160  15.554   3.801 -0.3686 -0.0117 -0.0636
12428W        W55341  26.646   4.270   9.179 -0.1859 -0.3532 -0.0482
12429W        W55342  12.139   0.088  11.840 -0.1536 -0.2904  0.1168
12430W        W55343  16.321  12.618   8.909  0.1985  0.3693  0.0529
12431W        W55344  24.471  12.082   1.052 -0.0183  0.0233 -0.0808
12432W        W55345  14.987  18.064  23.343 -0.1221 -0.1847 -0.4504
12433W        W55346  25.391  16.699  27.553 -0.3073  0.1500 -0.1407
12434W        W55347  22.515  31.780   9.064  0.0433  0.2712  0.0495
12435W        W55348  33.587  12.052   4.602 -0.2923  0.2963 -0.0091
12436W        W55349  28.613   6.779   9.562  0.0101 -0.1353  0.0024
12437W        W55350  17.107  13.246   2.890 -0.0309  0.0194 -0.0834
12438W        W55351  13.528  12.835  25.343 -0.2302  0.0846  0.1839
12439W        W55352  10.485  20.347   0.069 -0.1046 -0.1060  0.0890
12440W        W55353   9.518  11.922   5.835  0.0040 -0.3632 -0.1945
12441W        W55354  12.290  10.168  27.925  0.0869 -0.2299 -0.5879
12442W        W55355  13.987  11.577  28.197  0.1058  0.3084 -0.1117
12443W        W55356  13.752  23.484   9.205 -0.2274 -0.1273 -0.0174
12444W        W55357  22.056   9.663   2.863  0.1797  0.2720 -0.0475
12445W        W55358  10.922  18.245   5.092  0.0510 -0.2044  0.0127
12446W        W55359  14.775  22.513   3.729  0.2119 -0.2428 -0.2181
12447W        W55360  29.049  10.256   9.011  0.0877  0.1241 -0.3159
12448W        W55361  16.192   4.884   6.751  0.0530 -0.0203 -0.0796
12449W        W55362  21.935  13.341   1.454  0.1221  0.1662  0.0081
12450W        W55363  14.723  21.383   8.016  0.0966  0.0734 -0.1382
12451W        W55364  11.258   3.880  11.609  0.3762  0.0494 -0.0814
12452W        W55365  33.467  20.342  24.477  0.0932  0.2213 -0.0084
12453W        W55366  17.568  15.656   6.249  0.0954  0.0730  0.0375
12454W        W55367  15.773   6.832   8.688 -0.0287 -0.0848  0.0766
12455W        W55368   3.192   7.804  12.016 -0.0770  0.0035  0.4455
12456W        W55369  23.423  12.872   6.351  0.0401 -0.1736  0.1793
12457W        W55370  20.059  17.837   0.593  0.1444  0.0718  0.0197
12458W        W55371   4.362  13.303   9.303  0.0075  0.0312 -0.1373
12459W        W55372  22.899  32.621   8.010 -0.1539  0.0890  0.0595
12460W        W55373  23.687   5.252  22.207  0.2018  0.2068  0.1204
12461W        W55374  16.974  12.401   0.868 -0.1715 -0.1590  0.0716
12462W        W55375  16.920  16.311   8.327  0.1346  0.3562  0.4568
12463W        W55376  17.909  10.876  26.489  0.0639  0.3359 -0.0958
12464W        W55377  30.327  15.454   8.333  0.0308  0.1757  0.0046
12465W        W55378  15.776   9.524   4.544  0.0417  0.2100  0.1403
12466W        W55379   0.041   3.969   3.953  0.3930 -0.1634  0.2494
12467W        W55380  14.561  16.610  26.629 -0.0086  0.1313 -0.2914
12468W        W55381  16.421  12.965  24.585 -0.3463 -0.0687 -0.0997
12469W        W55382  32.388  10.859   3.067 -0.0830 -0.0465  0.2194
12470W        W55383  19.394  10.244   5.787 -0.2737  0.0040 -0.1362
12471W        W55384  10.351  13.117   8.530  0.1142 -0.0462 -0.4378
12472W        W55385  24.947  19.224   7.617 -0.0756 -0.1612 -0.2137
12473W        W55386  19.827   6.992   8.185  0.2206 -0.0839 -0.2422
12474W        W55387  16.309   6.141   9.568 -0.2873  0.1371  0.1734
12475W        W55388  21.372  11.710   8.924  0.1234  0.1912  0.0371
12476W        W55389  31.417  26.052   6.619 -0.1325  0.3492 -0.1293
12477W        W55390  21.799  10.257   2.781  0.1158  0.1173 -0.0923
12478W        W55391  13.994  13.242  27.992 -0.0481 -0.0879  0.1084
12479W        W55392  20.764   4.728  28.949  0.1781  0.0486 -0.2086
12480W        W55393  14.410  13.664  28.841  0.2176 -0.0429  0.3847
12481W        W55394  32.704  13.783   4.980 -0.2528  0.1303  0.1972
12482W        W55395  17.526   8.489   5.427  0.5292  0.0450 -0.1874
12483W        W55396   9.349  15.306   2.460 -0.0777  0.0737 -0.0768
12484W        W55397  34.374   8.754  10.403  0.3032 -0.0805 -0.3056
12485W        W55398  18.611  11.697  28.103  0.0346 -0.2000  0.1288
12486W        W55399  18.648   2.638   9.060 -0.0061  0.2311 -0.0137
12487W        W55400  18.776   9.018   2.801  0.1206  0.0201 -0.0423
12488W        W55401  20.276  34.324   1.499 -0.2589  0.0354 -0.0216
12489W        W55402  15.135   2.798   8.771  0.0535 -0.0297  0.0753
12490W        W55403  16.355   3.421   1.671 -0.1991 -0.1201 -0.0308
12491W        W55404  11.878  17.326   6.280 -0.0344  0.1000  0.4901
12492W        W55405  15.553  26.253   9.619  0.2051 -0.1304 -0.2049
12493W        W55406   8.293   5.416  25.479  0.1812  0.0148 -0.0448
12494W        W55407  29.150   1.726   8.352 -0.0015 -0.2615  0.4121
12495W        W55408  12.206   1.191  26.509  0.4091 -0.0650 -0.0884
12496W        W55409  12.909   8.773   6.489 -0.3991 -0.2312  0.1427
12497W        W55410  15.327  25.333   5.634 -0.3229 -0.1351 -0.0389
12498W        W55411  24.519  15.655  27.919 -0.0389  0.2996  0.1266
12499W        W55412  33.476  15.358   8.474 -0.2669 -0.0023 -0.0056
12500W        W55413  21.786  19.840   2.865 -0.1947  0.2030  0.0645
12501W        W55414  23.511   9.723   4.233 -0.1355  0.1870  0.0351
12502W        W55415  17.225  13.429   1.683 -0.0228 -0.1316  0.0144
12503W        W55416  22.189   1.009   6.424 -0.1824  0.2481  0.3882
12504W        W55417  15.044  11.890   8.104  0.1260 -0.1980 -0.0510
12505W        W55418  16.147  17.412   3.803 -0.0402 -0.0527 -0.0713
12506W        W55419  14.996  11.695   7.048  0.0453 -0.1276  0.6133
12507W        W55420  17.718   6.281   3.364  0.3626  0.0038  0.3141
12508W        W55421  13.592   9.679   5.971  0.1063  0.2183 -0.1509
12509W        W55422  20.621   1.935   9.790 -0.0316  0.0995 -0.0712
12510W        W55423  24.330   8.119   6.914 -0.1944 -0.1161 -0.0615
12511W        W55424  19.587  28.022   3.716  0.4507  0.1774  0.3028
12512W        W55425  23.263  18.211   1.373  0.1450 -0.1689  0.2110
12513W        W55426  20.795  13.817   2.136 -0.0724 -0.0050  0.1334
12514W        W55427  20.646   3.178   9.985 -0.2356  0.0688 -0.0312
12515W        W55428  13.852  10.622   5.843 -0.0323 -0.2434 -0.0370
12516W        W55429  20.963   5.706   4.661  0.0318 -0.3297  0.0402
12517W        W55430  13.500  11.079   4.336  0.2446  0.0563  0.2364
12518W        W55431  19.968  17.718  28.063 -0.1780 -0.1698 -0.2191
12519W        W55432  14.878   9.418   1.722  0.0351 -0.0207  0.0520
12520W        W55433  12.525   9.578   9.704  0.1199 -0.0785  0.2807
12521W        W55434  22.492   9.352   1.023 -0.1410  0.0052  0.1788
12522W        W55435  27.011  17.953   3.168 -0.3474 -0.0750 -0.1913
12523W        W55436  16.053   3.028  28.354  0.4121 -0.0352 -0.1016
12524W        W55437  23.113  22.557   1.462 -0.0047 -0.0921  0.2926
12525W        W55438  13.516  13.869   1.133  0.0423  0.3871 -0.0736
12526W        W55439  26.836  22.582  27.063  0.1467  0.1697  0.1885
12527W        W55440  14.025  13.950   8.851 -0.1195  0.1003  0.0173
12528W        W55441  16.551   4.508   8.122  0.1280 -0.1496 -0.1229
12529W        W55442  15.563   3.287   9.427 -0.2457  0.2310 -0.0786
12530W        W55443  24.993  19.369   1.903 -0.0378 -0.1801 -0.0100
12531W        W55444   9.352   9.278  10.870  0.0410  0.0044 -0.1790
12532W        W55445  25.779  12.413   9.117  0.2594 -0.0062 -0.0052
12533W        W55446  12.287   7.661  10.110 -0.2449  0.1472  0.1629
12534W        W55447  16.847  20.157  27.233 -0.2913  0.4201 -0.1197
12535W        W55448  11.882  19.376   6.775 -0.1662  0.0442  0.0893
12536W        W55449  18.362  19.028  22.882  0.0965  0.2223  0.1230
12537W        W55450  20.833  17.011   2.068  0.0813  0.2514  0.0741
12538W        W55451  15.643   8.218   6.078  0.2385  0.0694 -0.2301
12539W        W55452  13.651  13.383   7.570  0.3045 -0.1085  0.1056
12540W        W55453  29.784   2.573   5.673 -0.1735 -0.1443  0.1938
12541W        W55454  24.681  20.052   0.253  0.0085 -0.2030  0.2035
12542W        W55455  20.937   7.429   5.891 -0.0942 -0.0721 -0.1019
12543W        W55456  14.831  11.848   5.746  0.0448  0.0945 -0.1057
12544W        W55457  20.768  22.969   0.896  0.1821  0.1665 -0.1059
12545W        W55458  18.297   4.226   4.754 -0.1678 -0.2351  0.1881
12546W        W55459  13.873  21.899  28.929  0.1043  0.2245  0.2603
12547W        W55460   4.897   7.364   2.673  0.2090 -0.1651 -0.0336
12548W        W55461  16.421  19.057   5.679  0.0686  0.0208  0.1611
12549W        W55462  16.241  14.630   2.305  0.1566  0.0388 -0.0951
12550W        W55463  20.753  14.408  24.513  0.0302  0.3047 -0.0529
12551W        W55464  13.452  34.482   2.960  0.0209 -0.3007 -0.0949
12552W        W55465  24.938  11.326   9.131 -0.0925  0.2613  0.0146
12553W        W55466  20.108  12.307   6.496  0.0368 -0.3881 -0.0101
12554W        W55467  15.060   9.796   5.735  0.2682  0.0187  0.0964
12555W        W55468  20.606  17.263  25.273  0.1280 -0.1073 -0.0928
12556W        W55469  12.433   7.461   6.514  0.0741  0.0187 -0.0089
12557W        W55470  13.225  16.990   4.206 -0.0037  0.0612 -0.3658
12558W        W55471  22.470   7.322   9.377  0.0175 -0.1257  0.1373
12559W        W55472  13.256  12.861  23.400  0.1530  0.3059 -0.0947
12560W        W55473  15.752  12.855   0.834  0.4835  0.0433 -0.2127
12561W        W55474  12.011  15.623  25.213 -0.3021  0.1058 -0.2268
12562W        W55475  25.195  16.485   8.362  0.0099  0.0663  0.0860
12563W        W55476  28.723  13.768   5.716  0.1795  0.1234 -0.2602
12564W        W55477  18.242  16.414   4.162 -0.2042  0.1580 -0.2064
12565W        W55478   9.437  14.049   5.541  0.0106  0.0995  0.1241
12566W        W55479  16.853  26.649   7.939 -0.1742 -0.0596  0.1534
12567W        W55480  16.802   9.876   0.201 -0.3815 -0.0830  0.1665
12568W        W55481  19.155  15.296   2.887  0.0824 -0.0606 -0.2132
12569W        W55482  12.630   2.071  26.675 -0.0005  0.0075  0.0323
12570W        W55483  18.146  14.481   7.869  0.1180 -0.4338 -0.0683
12571W        W55484  23.293  11.777   2.447  0.0739 -0.0933 -0.1539
12572W        W55485  18.003  23.537   8.538 -0.1244 -0.1358  0.3584
12573W        W55486  11.384  19.874   8.047 -0.1612 -0.0448  0.1639
12574W        W55487  17.512   4.844  25.262 -0.4668  0.4899 -0.2125
12575W        W55488  28.038   8.876   4.455  0.0446 -0.0004  0.1760
12576W        W55489  26.077  19.129   9.510  0.0823  0.1590  0.1808
12577W        W55490  15.746  19.177   8.356 -0.0619  0.0151  0.3347
12578W        W55491  19.451   7.813   7.812 -0.0158 -0.0384 -0.1823
12579W        W55492  14.108   9.761  27.801  0.0329 -0.0663  0.0013
12580W        W55493  19.995   9.910   4.752 -0.2586 -0.1859 -0.0259
12581W        W55494  23.835  15.818  20.352  0.0919  0.2022  0.1499
12582W        W55495   9.565  18.017  28.997 -0.1417  0.1216  0.2779
12583W        W55496  21.158   8.026   9.054  0.0277 -0.1017 -0.1086
12584W        W55497  28.165  12.931   6.830  0.1696  0.0165  0.0881
12585W        W55498  13.973  19.268   7.451 -0.2835  0.0018 -0.0835
12586W        W55499  23.028  13.697   5.290  0.1209 -0.0990 -0.1109
12587W        W55500   2.301   4.279   8.345  0.3778  0.0850 -0.1199
12588W        W55501  11.471  19.019   1.215 -0.0184 -0.2292 -0.0539
12589W        W55502  18.197   5.610   7.858 -0.0051 -0.0685 -0.1544
12590W        W55503  10.905  11.870   4.598 -0.3525  0.1769 -0.2826
12591W        W55504  23.590  10.248  26.733 -0.1011 -0.0156 -0.1231
12592W        W55505   8.136  21.538   5.136 -0.2830  0.2075 -0.3172
12593W        W55506   9.006  11.220  10.120  0.2626 -0.3373  0.0259
12594W        W55507  20.374  17.112   5.944  0.2436  0.4270  0.0691
12595W        W55508  15.854  11.016  29.290 -0.0247 -0.1893  0.1370
12596W        W55509   9.132   1.461  11.360  0.1485 -0.1168  0.3406
12597W        W55510  15.635  12.509  24.981  0.3124  0.3276  0.2482
12598W        W55511  24.366  33.825   5.926  0.0260 -0.0153  0.2079
12599W        W55512  17.614  14.551  22.614  0.1245 -0.0616 -0.0443
12600W        W55513  16.333   5.302   8.045  0.0662  0.1022 -0.1161
12601W        W55514  19.767  11.953   8.755 -0.0585  0.2960 -0.0703
12602W        W55515  14.152  13.467   3.087  0.1502 -0.0961  0.0032
12603W        W55516  16.343   1.728  10.049  0.1539  0.4400  0.1036
12604W        W55517  28.204  21.594   3.013  0.2601 -0.1267 -0.2957
12605W        W55518  15.258  16.283   7.508 -0.2923 -0.6005  0.3304
12606W        W55519  19.757  13.091   2.394  0.1088  0.0133 -0.2945
12607W        W55520   8.991   2.086  24.864  0.0080  0.1035  0.1717
12608W        W55521  19.625  29.964   8.289  0.1916 -0.0639  0.1318
12609W        W55522  15.158  10.453  29.647 -0.0587  0.1237 -0.0870
12610W        W55523  31.432   2.560   8.886  0.3290 -0.3967  0.2771
12611W        W55524  15.263   9.277   4.857  0.1428  0.0130 -0.2439
12612W        W55525  11.963  18.120   7.699 -0.0536  0.0372  0.1357
12613W        W55526  27.300   8.440   8.379 -0.2299 -0.2127 -0.0013
12614W        W55527  26.808  16.620   7.455 -0.1460  0.1343  0.3767
12615W        W55528  16.262   8.485   6.480 -0.0245  0.0787 -0.1852
12616W        W55529  20.894  21.959  27.226 -0.0991  0.2690 -0.0410
12617W        W55530   9.397  23.288  24.169 -0.1999 -0.0007 -0.1136
12618W        W55531  15.517  14.870  22.246 -0.1768  0.1404  0.2785
12619W        W55532  18.725  18.232   6.043 -0.3666  0.0260  0.2203
12620W        W55533  13.518  14.490  27.009  0.3020  0.2807  0.0949
12621W        W55534   5.609   3.932   0.096 -0.0106  0.0439  0.0402
12622W        W55535  27.499  12.736   2.262  0.1743  0.2881  0.0534
12623W        W55536  13.857  19.099  24.056  0.0339 -0.1684  0.0904
12624W        W55537  13.869   3.984   3.364 -0.0320 -0.1677  0.5539
12625W        W55538   8.400   7.014  12.684  0.3120 -0.3037  0.0474
12626W        W55539  19.977  20.130   5.455  0.0047  0.0872  0.0546
12627W        W55540  13.996   6.299  10.950 -0.0369  0.3442  0.2935
12628W        W55541  20.488  16.206   0.915  0.1055 -0.2172 -0.0058
12629W        W55542   8.957   9.944  11.206 -0.0867 -0.0766  0.0655
12630W        W55543  21.826  14.193  26.853  0.2292  0.0230 -0.0020
12631W        W55544  14.593  21.699   3.488 -0.1932  0.0120  0.0942
12632W        W55545  15.406  16.439   7.954  0.0547 -0.0683 -0.0222
12633W        W55546  13.467  34.471  16.838  0.0958  0.0974  0.2204
12634W        W55547  12.509  12.848   1.498  0.3204  0.0133 -0.0500
12635W        W55548  25.691  31.823   6.098  0.2116 -0.0056 -0.0708
12636W        W55549  15.067  14.050   3.925  0.1728  0.0561 -0.4036
12637W        W55550  11.454  11.226   4.353 -0.0700  0.3048 -0.1670
12638W        W55551  23.132   3.780  27.537 -0.3206  0.3200  0.0422
12639W        W55552  16.817  21.767   6.733  0.3898 -0.1618 -0.3744
12640W        W55553  23.933  20.303  24.587  0.4280  0.2934 -0.0950
12641W        W55554  13.578  16.996   1.937 -0.0102 -0.0781 -0.1720
12642W        W55555  10.487   9.437  11.222 -0.2606  0.2603  0.1743
12643W        W55556  10.577   8.257   7.981 -0.0417  0.2218  0.1131
12644W        W55557  22.510  29.381   8.867 -0.0783  0.3710  0.1853
12645W        W55558  10.385  32.683  24.513  0.0692  0.0288 -0.1439
12646W        W55559  15.553  12.664   3.856 -0.1452 -0.1472 -0.2044
12647W        W55560  18.644  24.554  24.303 -0.0511 -0.4693  0.0046
12648W        W55561  19.358  14.337   1.602 -0.0912  0.2349 -0.3704
12649W        W55562   9.996   2.892   6.772 -0.4458 -0.1445  0.0739
12650W        W55563  18.082  14.368   5.923  0.0542  0.2346  0.4023
12651W        W55564  11.659  29.443   7.783  0.1558  0.2116  0.2082
12652W        W55565  15.361   5.214   9.236  0.0167  0.1546  0.1241
12653W        W55566  16.163   4.211   6.119 -0.2404  0.0091  0.2007
12654W        W55567  26.711  18.193   0.825 -0.0651  0.0601  0.1121
12655W        W55568  15.813  13.592   7.515 -0.0172  0.0564 -0.2254
12656W        W55569  23.216  19.007   6.864 -0.2584  0.0864 -0.2417
12657W        W55570  23.030  11.515   8.042  0.1680  0.0296  0.0066
12658W        W55571   6.835  18.399   8.093  0.1510 -0.0182  0.2836
12659W        W55572  26.811  15.952  29.172 -0.1962 -0.1191  0.1358
12660W        W55573  27.340  17.551   7.282 -0.0240 -0.5288  0.6151
12661W        W55574  22.097   3.369   6.832  0.1707 -0.2459 -0.0422
12662W        W55575  22.032  19.607   8.052 -0.0111  0.0794  0.3277
12663W        W55576   8.302  23.916   6.410  0.0461  0.2271  0.2309
12664W        W55577  20.874  11.685   7.819  0.0076 -0.1521  0.2020
12665W        W55578  21.189   5.411   0.098  0.0143 -0.2693 -0.0362
12666W        W55579  23.349  16.736   9.043  0.1062  0.0344  0.1605
12667W        W55580  22.822  10.233   8.286  0.1667 -0.2174 -0.2993
12668W        W55581  23.770   5.078   5.522 -0.0683 -0.2226 -0.0440
12669W        W55582  18.928  16.998   8.431  0.2136  0.3080 -0.2557
12670W        W55583  11.083   1.354   2.396 -0.2059  0.3958  0.0324
12671W        W55584  15.063   7.072   2.757  0.3645 -0.0069 -0.0144
12672W        W55585  23.362  14.022   8.505 -0.1655 -0.1953  0.1097
12673W        W55586  10.528   0.223   4.291 -0.2211  0.0493  0.1616
12674W        W55587  18.557   1.334   8.574  0.0592  0.1170  0.2558
12675W        W55588  13.941  19.970   5.659  0.3856  0.2719  0.3162
12676W        W55589   6.004  20.037   8.249 -0.0036  0.0016 -0.1208
12677W        W55590  19.039  13.552  24.101 -0.1095 -0.0004  0.2373
12678W        W55591  23.692   7.751  25.372 -0.0161 -0.0411 -0.0634
12679W        W55592  20.967   7.580   7.560  0.2802  0.0199 -0.2253
12680W        W55593  20.755  17.198  28.527  0.0859  0.0832  0.2298
12681W        W55594  23.151  17.142   6.779 -0.0755 -0.0372 -0.2828
12682W        W55595  22.360   4.007   3.742  0.1766 -0.0490  0.1467
12683W        W55596  21.535  16.244   3.420  0.0417 -0.2452 -0.0716
12684W        W55597  20.253   7.162   6.529  0.1269  0.1452 -0.4612
12685W        W55598  10.613   9.621   9.226 -0.2350  0.0363  0.0361
12686W        W55599  15.866  21.640  22.804  0.1273  0.0477  0.0854
12687W        W55600  18.113  24.147   7.173  0.1040 -0.0736  0.2261
12688W        W55601  17.005  21.031   0.301 -0.2449  0.1192  0.0806
12689W        W55602  18.511  10.456   9.323  0.2131  0.0716 -0.0359
12690W        W55603  21.246  16.757  29.215 -0.1838 -0.1582 -0.0543
12691W        W55604  19.635  10.267   8.419 -0.0669 -0.0582 -0.1482
12692W        W55605  20.218  15.197   7.182  0.1621 -0.0694 -0.0418
12693W        W55606  25.403  16.090   2.544  0.0644 -0.2385 -0.3350
12694W        W55607   9.228  11.628   1.606  0.1431  0.0037 -0.0599
12695W        W55608  24.787  13.507   2.255  0.1827 -0.2379  0.0221
12696W        W55609  22.811  14.885   9.106  0.0564  0.1482 -0.3815
12697W        W55610  18.332   5.956   4.018  0.1827  0.0891 -0.3659
12698W        W55611  18.511  13.130   3.375 -0.2237 -0.1947  0.1692
12699W        W55612  17.345  16.221  23.446 -0.0109  0.0969  0.0326
12700W        W55613  16.256   9.553   2.758 -0.2866  0.1018  0.0778
12701W        W55614  19.353  10.412   6.384 -0.1098  0.1443 -0.0014
12702W        W55615  12.697  10.988   8.025 -0.4482 -0.2111 -0.1017
12703W        W55616  15.055   3.807   8.789 -0.2816  0.0328  0.1793
12704W        W55617  13.652  26.603   0.776 -0.1683  0.1581  0.1454
12705W        W55618  17.964  17.972   5.488 -0.2720  0.0339  0.1301
12706W        W55619  17.613  17.612  23.136  0.2556 -0.0250  0.0072
12707W        W55620  12.832  11.678   9.086 -0.0069  0.3097  0.0622
12708W        W55621  20.337   1.347   2.126 -0.0109 -0.0562  0.4674
12709W        W55622  17.711   1.859  10.751 -0.0355  0.0028 -0.0475
12710W        W55623  33.788   1.710   5.137 -0.1048  0.0102  0.1963
12711W        W55624  30.752   1.499   4.434  0.1597 -0.3442  0.2554
12712W        W55625  25.622  31.234   6.981 -0.2240  0.3787 -0.0353
12713W        W55626  25.703   9.099   4.250  0.1352 -0.3254  0.1181
12714W        W55627   8.156  11.229   7.115  0.1769  0.0291  0.3244
12715W        W55628  13.426  15.611   6.647  0.2487  0.1542  0.1379
12716W        W55629  13.621  11.722   8.876  0.0326 -0.2136 -0.3044
12717W        W55630  20.235  16.853   5.053  0.2007 -0.0687  0.2350
12718W        W55631  15.236  15.346   7.692  0.1656 -0.2081  0.0789
12719W        W55632  28.108  12.486   0.117 -0.0515 -0.1544 -0.0375
12720W        W55633  19.867   7.624   3.788  0.1247  0.1687  0.0224
12721W        W55634  27.561   9.174   7.745  0.1272 -0.0749 -0.0143
12722W        W55635  29.784  25.883   9.075 -0.1442 -0.1862  0.0858
12723W        W55636  31.394   8.493   9.532 -0.1857  0.0682  0.1030
12724W        W55637  24.237   9.585   6.086  0.2178  0.1543 -0.1276
12725W        W55638  10.364  12.074  10.363 -0.0759 -0.0460  0.1285
12726W        W55639  20.797  10.778  27.936 -0.0593 -0.1671  0.0727
12727W        W55640  20.318   6.225   7.219  0.0934 -0.2073 -0.1740
12728W        W55641  16.575  15.577   4.253  0.1730 -0.0726  0.1708
12729W        W55642  21.657  12.146   3.189  0.2108 -0.0789 -0.0469
12730W        W55643  12.374  12.411   6.198  0.2462 -0.2886  0.0984
12731W        W55644  13.776  32.371   7.342 -0.1446  0.0545  0.0590
12732W        W55645  25.305  17.467   5.541  0.1208  0.1665 -0.5195
12733W        W55646  26.241  10.660   5.962  0.0107 -0.0337  0.5543
12734W        W55647  30.591  21.538   5.437  0.3486 -0.1989  0.2694
12735W        W55648  13.959   1.279   5.310 -0.0065 -0.1697 -0.2542
12736W        W55649  13.711  14.294   7.383 -0.0468  0.1474  0.2154
12737W        W55650  24.489   7.103   7.929  0.2158 -0.1261 -0.1500
12738W        W55651  14.426   9.668   6.443  0.1156 -0.1830 -0.1518
12739W        W55652  29.631   2.527   2.353  0.0218 -0.2274 -0.0011
12740W        W55653  10.546  32.029   1.292 -0.0207 -0.2611  0.5396
12741W        W55654  28.584   3.195   3.842 -0.2245  0.2151  0.0732
12742W        W55655   9.558   9.431   8.345  0.1242  0.0947  0.2228
12743W        W55656   8.858  13.445   3.051 -0.2073  0.3634 -0.0450
12744W        W55657  21.986   1.482  28.769 -0.2872 -0.0423 -0.0508
12745W        W55658  16.311   5.656   9.591 -0.0275  0.0013 -0.0054
12746W        W55659  13.164   8.471   5.712  0.0464 -0.3745 -0.0116
12747W        W55660  21.746  20.150   5.933 -0.2594  0.1222 -0.0410
12748W        W55661  17.877  16.683   2.769  0.3042 -0.0336  0.3142
12749W        W55662  23.572   0.006   1.431  0.0328 -0.1584  0.1196
12750W        W55663  15.863  12.230   6.184  0.0840 -0.1754 -0.1574
12751W        W55664  25.185   2.387   6.545 -0.1911  0.2273 -0.0609
12752W        W55665   9.970   8.790   8.660 -0.1024 -0.0984  0.1217
12753W        W55666  12.116  10.614   6.262  0.2329  0.0081 -0.1166
12754W        W55667  13.816  21.791   3.894  0.0832 -0.1627 -0.1214
12755W        W55668  20.988   1.031   8.602 -0.0244 -0.0026  0.2155
12756W        W55669   4.800  16.078   8.055 -0.0721  0.1033 -0.0267
12757W        W55670  25.245  10.713  29.633 -0.0137 -0.1061  0.0470
12758W        W55671  22.896   9.454   2.500  0.0047  0.0652 -0.0668
12759W        W55672  11.897  18.990  25.586 -0.0936 -0.1080  0.0837
12760W        W55673  11.926  13.707   7.366  0.1135  0.2633  0.2929
12761W        W55674  19.004  29.671   2.629 -0.0199 -0.1767 -0.2775
12762W        W55675  21.507  10.429   3.891 -0.0637 -0.0664 -0.2884
12763W        W55676  24.689  13.746   8.785  0.1789 -0.0383 -0.3230
12764W        W55677  20.202   6.550   2.716 -0.1563  0.0994  0.0328
12765W        W55678  14.384  13.670   8.199 -0.3276  0.0821  0.0452
12766W        W55679   1.266   8.109   8.605 -0.0031  0.0344  0.3592
12767W        W55680  27.368   8.153   6.897 -0.1751 -0.0664 -0.0906
12768W        W55681  18.586   2.956   8.675  0.1590  0.0916  0.0118
12769W        W55682  25.607  11.973   9.211 -0.1432 -0.0200 -0.1469
12770W        W55683  12.606  17.454  22.512  0.2872  0.0300  0.0206
12771W        W55684  23.960   9.751  28.179 -0.0836  0.0806  0.1110
12772W        W55685  15.920   0.933   0.359  0.2506 -0.0471 -0.0069
12773W        W55686  17.717   9.330  27.836 -0.3142 -0.0439 -0.1986
12774W        W55687  13.876  11.276  26.222  0.1037 -0.0283 -0.0156
12775W        W55688  25.816   1.737   7.036 -0.3418 -0.0629 -0.0739
12776W        W55689  13.679   9.030   8.501  0.1334  0.1063 -0.0867
12777W        W55690  15.210  13.736   6.728  0.2155  0.0783 -0.3046
12778W        W55691  13.180   7.600   8.793  0.1800  0.1024  0.0535
12779W        W55692  13.226  10.668   4.056 -0.1023 -0.3895  0.1631
12780W        W55693  31.187   5.362  11.157  0.0148  0.0630  0.0482
12781W        W55694  12.290  14.484   1.771  0.0830 -0.1224 -0.2251
12782W        W55695   9.702   3.531   7.429 -0.0399 -0.2028 -0.2370
12783W        W55696  18.763   6.822   5.389  0.0841 -0.0719  0.7036
12784W        W55697  16.475  11.697   3.244 -0.1826 -0.2381 -0.0642
12785W        W55698  27.069  15.606  29.580 -0.5966 -0.5437  0.0215
12786W        W55699  21.930   5.052   5.808  0.2882  0.3038 -0.1210
12787W        W55700  15.764  12.527   2.157  0.4595  0.1441 -0.0405
12788W        W55701  25.548  14.886   4.664 -0.1590 -0.0720  0.0197
12789W        W55702  24.258   3.057   6.129  0.0937 -0.0523  0.1892
12790W        W55703  16.159  17.802   7.610 -0.2224  0.0443 -0.3706
12791W        W55704  14.601   9.802   8.617  0.0877 -0.3329 -0.4861
12792W        W55705   8.777   5.996  24.849  0.1191  0.1950 -0.2945
12793W        W55706  24.835  10.281   1.477  0.1238 -0.3179 -0.0835
12794W        W55707   6.693   6.977  10.928 -0.0394 -0.0087 -0.2586
12795W        W55708  21.425  17.248   4.979 -0.1862 -0.0112 -0.3705
12796W        W55709  15.367  16.625   1.675 -0.0135  0.2761 -0.0108
12797W        W55710  22.535   1.406   2.976  0.2819 -0.1188 -0.2570
12798W        W55711  20.570  12.665  29.167  0.2072 -0.5569  0.0768
12799W        W55712  23.667  17.437   6.826 -0.1358  0.2418  0.0130
12800W        W55713  21.175  11.933  28.855  0.0941 -0.2310 -0.0225
12801W        W55714  17.002   8.097   3.092 -0.0717  0.0004  0.0490
12802W        W55715  24.937   4.201   7.826  0.2641 -0.2988 -0.3076
12803W        W55716   2.763  12.161  25.229  0.3232  0.0767  0.3967
12804W        W55717  25.109  12.205   4.023 -0.0482 -0.0271 -0.1550
12805W        W55718  19.688  14.311   7.719  0.3220  0.2210 -0.2632
12806W        W55719   9.601   9.464  10.416  0.2059 -0.4070  0.2681
12807W        W55720  14.876   6.253   7.893  0.0147 -0.0261 -0.0470
12808W        W55721  32.220   3.455   7.276  0.1781  0.0461 -0.0553
12809W        W55722  11.052   7.459   7.833 -0.1706 -0.1064 -0.2396
12810W        W55723  17.582  16.451   7.625 -0.1196  0.0810  0.1337
12811W        W55724  20.140   6.373   8.894  0.2067 -0.2403  0.0625
12812W        W55725  10.709   3.230   1.737  0.0795 -0.0383 -0.1021
12813W        W55726  19.230  16.847   5.255 -0.1022 -0.1107  0.0111
12814W        W55727  16.235   8.674  28.970  0.0590 -0.2373  0.2489
12815W        W55728  11.419  17.629   4.704  0.5269  0.1894  0.2731
12816W        W55729  15.716  18.667   8.281  0.1958 -0.0360  0.0932
12817W        W55730  15.388  10.570  28.572  0.0424  0.2215  0.0204
12818W        W55731  25.385   5.576   4.120  0.0101 -0.1487  0.0539
12819W        W55732  17.976  15.792  29.112 -0.0858 -0.0823 -0.1732
12820W        W55733  20.019   7.060  29.099  0.1302 -0.1625 -0.0106
12821W        W55734  12.441   9.212  26.671  0.3397  0.1285 -0.0206
12822W        W55735  13.976  18.600   6.758 -0.0723  0.1192  0.0652
12823W        W55736  25.943  14.268   3.820  0.1203 -0.1765 -0.2557
12824W        W55737   8.908  17.791   6.388 -0.1617 -0.0280  0.1686
12825W        W55738  16.586  10.483  28.202  0.0192  0.2093  0.0126
12826W        W55739  15.633   1.617  26.030 -0.0806 -0.0803 -0.0715
12827W        W55740  18.721  20.879  28.853  0.3040 -0.0441  0.1121
12828W        W55741  21.252  16.016   7.106  0.0685  0.0128 -0.4239
12829W        W55742  18.196   2.948   2.504  0.0219  0.2390 -0.2707
12830W        W55743  21.875  26.938   3.487 -0.0463  0.0369 -0.0519
12831W        W55744  22.856  10.590   2.242 -0.4743 -0.0355  0.3817
12832W        W55745  20.351  20.000   2.749 -0.0947 -0.0321  0.0267
12833W        W55746  16.381  11.818   8.035  0.1689  0.0842 -0.3970
12834W        W55747  10.547   6.701  10.841 -0.1119  0.0807 -0.1751
12835W        W55748  22.338   7.315   7.442  0.0930 -0.0045 -0.0040
12836W        W55749  12.636   1.610   7.952  0.1762  0.0365 -0.0791
12837W        W55750  20.684   9.708   2.355 -0.0473  0.3153  0.0787
12838W        W55751  15.922  18.765   4.641 -0.1882 -0.0779  0.1751
12839W        W55752  15.482  11.398   4.451 -0.1403 -0.0075  0.2717
12840W        W55753  19.300  13.434   4.469  0.1491 -0.2108 -0.1465
12841W        W55754  23.639  13.012   4.629 -0.2306  0.0179 -0.2776
12842W        W55755   8.480   4.305   8.790 -0.0971  0.1711  0.1721
12843W        W55756  22.411  27.717   6.846  0.0254 -0.0708 -0.1473
12844W        W55757  12.547   5.165  10.986  0.0968  0.1011 -0.3675
12845W        W55758  21.554   8.097   0.607  0.1193 -0.3131 -0.2031
12846W        W55759  14.429   9.231   4.507  0.0691 -0.0582 -0.2348
12847W        W55760  16.366   3.812   5.986 -0.1827  0.1695  0.2248
12848W        W55761  18.169   4.781   7.477  0.1853  0.1169  0.1273
12849W        W55762  13.072  33.340  10.855  0.2195 -0.0136 -0.2219
12850W        W55763  22.934  12.669   0.758 -0.0416 -0.1476 -0.1154
12851W        W55764  32.360  17.269   4.864  0.2468  0.0375 -0.2102
12852W        W55765  24.540  11.053   4.167 -0.3322  0.2616  0.0457
12853W        W55766   4.803   9.717  10.007  0.3617  0.3245 -0.1963
12854W        W55767  15.460  10.331   9.398  0.1366 -0.1300  0.1862
12855W        W55768   6.302   6.839  28.005  0.0502 -0.1073  0.0173
12856W        W55769  15.151  15.783   0.670  0.2333  0.1183  0.4925
12857W        W55770  27.286  12.147   1.400  0.2155 -0.3341  0.0159
12858W        W55771  21.315   7.196   8.808  0.1196 -0.1965 -0.0039
12859W        W55772  14.445  14.292  24.235 -0.0057 -0.2804  0.0275
12860W        W55773  21.496   0.912   8.331 -0.2505  0.1598 -0.0556
12861W        W55774  14.645  15.925  25.356  0.0759  0.2172  0.0862
12862W        W55775  17.831  13.204  26.097 -0.1575 -0.0325 -0.2017
12863W        W55776  22.915  13.063   2.645 -0.1213  0.2127 -0.1123
12864W        W55777  10.295   7.884   8.843  0.0528  0.0991 -0.2011
12865W        W55778  18.398  12.728   5.046 -0.2849  0.3256  0.0024
12866W        W55779  15.770   6.051  10.362 -0.0610 -0.1784 -0.2154
12867W        W55780  16.933  21.866   8.205 -0.0730 -0.1314 -0.2466
12868W        W55781  26.033  22.842   8.653  0.0178 -0.1113  0.0051
12869W        W55782  19.122  13.653  23.562 -0.0617 -0.1186 -0.0791
12870W        W55783  23.379   9.187   6.161  0.0802  0.2604  0.1753
12871W        W55784  25.099   6.000   9.253 -0.3089 -0.3309  0.0533
12872W        W55785  22.316   0.266   9.487 -0.1275  0.0144 -0.2791
12873W        W55786  22.900  11.907   7.775  0.0514 -0.1642  0.0080
12874W        W55787   5.014   5.842   5.549  0.0119 -0.0878  0.2549
12875W        W55788  32.359   3.892   4.953 -0.0220 -0.2581 -0.3016
12876W        W55789  21.613   5.841   6.710 -0.1146  0.1044  0.0317
12877W        W55790  22.696  15.322   5.799 -0.0522  0.2375  0.0158
12878W        W55791  13.948   5.202   7.067  0.1081 -0.2379  0.3253
12879W        W55792  12.560  12.021  26.205  0.1163  0.2682  0.0617
12880W        W55793   7.493   7.317   4.841 -0.0399  0.0499 -0.0052
12881W        W55794  15.573  21.113   6.691 -0.0247  0.2698  0.0125
12882W        W55795   9.415   7.036  11.013  0.1071 -0.1726  0.2259
12883W        W55796  17.479   4.159   5.242  0.1108 -0.2208  0.0356
12884W        W55797  15.911  15.673   0.067 -0.0474 -0.2956 -0.1919
12885W        W55798  16.697  11.406   7.220  0.4578 -0.0520 -0.0132
12886W        W55799  32.686  10.931   6.958  0.1358  0.2370 -0.0665
12887W        W55800  14.655  10.295  27.328 -0.0583 -0.0081 -0.2456
12888W        W55801  28.875  16.780   4.925  0.1864 -0.1743 -0.1183
12889W        W55802  16.422  14.487   1.415 -0.0411 -0.0623 -0.0426
12890W        W55803  18.815  10.639   0.165 -0.2712  0.2505 -0.3670
12891W        W55804  23.459   6.941   2.626  0.2738 -0.1138 -0.0001
12892W        W55805  15.663  10.493  26.427  0.1010  0.0190  0.4947
12893W        W55806  22.337  17.506   5.360 -0.1676  0.0317 -0.2590
12894W        W55807   8.933   3.325  11.986 -0.0144  0.1246 -0.0897
12895W        W55808  26.698  13.337   8.969 -0.3479  0.0045  0.1630
12896W        W55809  19.884  21.763   5.227 -0.1598  0.4113 -0.0791
12897W        W55810  15.411  14.397   4.656 -0.5507  0.3296  0.1380
12898W        W55811  29.200  11.809  28.423  0.1042  0.2996 -0.0804
12899W        W55812  28.424  31.810  23.986 -0.2598  0.0029 -0.1437
12900W        W55813  16.222   4.115   7.733 -0.2432  0.0689 -0.0344
12901W        W55814  29.677   6.727   5.946 -0.0739  0.0916 -0.1776
12902W        W55815   8.498  18.900   1.737 -0.1902  0.3910  0.1259
12903W        W55816  19.472   0.677   9.770 -0.1850 -0.2885  0.0148
12904W        W55817   6.376  12.391   6.952 -0.1494  0.1388  0.0796
12905W        W55818  17.214  17.973   4.597 -0.3686 -0.1711 -0.3425
12906W        W55819  24.055  10.723   2.147 -0.1705 -0.3757  0.1588
12907W        W55820  15.583  21.107   3.799 -0.1388 -0.0889 -0.2093
12908W        W55821  20.406   4.337   2.355 -0.2199  0.0579  0.1762
12909W        W55822  11.887  19.098   4.299 -0.1580 -0.3494  0.3067
12910W        W55823  24.445  16.325  26.012 -0.1295 -0.0798 -0.0300
12911W        W55824  11.555  16.243   6.238  0.0112  0.2316  0.0198
12912W        W55825  10.013   5.219   3.006 -0.0584 -0.0766 -0.3115
12913W        W55826  24.743  13.829   0.591 -0.2990  0.3233 -0.0135
12914W        W55827  20.842  14.886   7.911  0.0388 -0.0338  0.3373
12915W        W55828  25.793  17.293   5.538 -0.1074  0.0502 -0.4850
12916W        W55829   3.590  16.839   8.293 -0.1848  0.0631 -0.0861
12917W        W55830  22.433  15.396  21.519  0.0709  0.0251 -0.3832
12918W        W55831  12.028  20.309  27.148 -0.0359 -0.4326 -0.3120
12919W        W55832  17.169  14.413   5.670 -0.0188 -0.0663  0.0201
12920W        W55833  17.645   8.763   8.061  0.0273 -0.1088 -0.2344
12921W        W55834  14.149   9.903   5.028  0.2637 -0.1845  0.1440
12922W        W55835  20.830  10.403   5.052  0.3358  0.1351 -0.1369
12923W        W55836  12.154  17.515   8.188  0.1580 -0.3021  0.1637
12924W        W55837  20.835  14.491   1.019  0.1088 -0.1348 -0.1062
12925W        W55838  20.699  10.390  28.766  0.2325 -0.1491  0.0638
12926W        W55839  21.997   6.360  10.015 -0.0552 -0.1311  0.1259
12927W        W55840  12.763   3.156  11.321 -0.0748 -0.0112 -0.0160
12928W        W55841  18.267  13.650  28.937 -0.1281 -0.1381 -0.2198
12929W        W55842  27.500  16.020   8.986 -0.2720 -0.0504 -0.1185
12930W        W55843  21.937  17.909   2.920  0.2433  0.3981 -0.4385
12931W        W55844   8.373   6.006   5.902  0.0382  0.3287 -0.2048
12932W        W55845  12.991   9.148   5.686 -0.0464 -0.2223  0.1641
12933W        W55846  28.152  12.537   7.795 -0.0119  0.1077  0.0789
12934W        W55847   9.986  30.283   5.282 -0.2590 -0.2404 -0.2319
12935W        W55848  30.607  17.372  29.553 -0.1312  0.2505 -0.0182
12936W        W55849  28.513  33.131   1.322  0.0163  0.1170 -0.0997
12937W        W55850  24.160  16.220   2.685  0.0028 -0.0462 -0.1949
12938W        W55851  16.414  13.355  27.867  0.2573 -0.1926  0.2555
12939W        W55852  26.260  16.176   5.200  0.0737 -0.0030 -0.1075
12940W        W55853  17.757   5.262   3.555  0.3242  0.0742  0.0515
12941W        W55854  29.844   5.689  11.133 -0.1269 -0.1111 -0.1128
12942W        W55855  14.823  17.459  22.688 -0.0364 -0.4241  0.1273
12943W        W55856  23.145  32.736   3.941  0.2813 -0.0451  0.1480
12944W        W55857  17.750   1.358   5.171  0.0101  0.1669 -0.0968
12945W        W55858  14.832  12.672  27.765  0.1629 -0.1416 -0.3003
12946W        W55859  22.104  14.421   6.568 -0.0706  0.2336 -0.0743
12947W        W55860   9.585   4.665  10.842 -0.2185 -0.2920  0.2828
12948W        W55861  12.152  15.326   5.399  0.2018 -0.1844  0.2035
12949W        W55862  16.002   7.357   8.969 -0.0999  0.2176 -0.0403
12950W        W55863  25.129  10.459   7.118  0.1633 -0.1914  0.1311
12951W        W55864   1.420  20.116   3.160 -0.1759 -0.0851 -0.1659
12952W        W55865  27.014  16.824   2.472  0.0518  0.0377  0.0949
12953W        W55866  22.074   7.808   7.564  0.0069 -0.0638  0.1194
12954W        W55867  24.652   6.848   8.521 -0.2191 -0.0178 -0.2591
12955W        W55868  15.963  13.439   3.695 -0.0157 -0.0295  0.1185
12956W        W55869  15.249  15.244   2.956 -0.1739 -0.2343 -0.1500
12957W        W55870  17.933  15.866  23.919  0.0651 -0.0528 -0.3036
12958W        W55871  23.460  12.956   5.263 -0.0724 -0.1207 -0.2027
12959W        W55872  27.867  10.620   8.693 -0.0575 -0.0866 -0.1746
12960W        W55873  14.511   7.040   8.479  0.0135 -0.0446 -0.2227
12961W        W55874  16.768  11.272   6.000 -0.3251  0.2179 -0.2980
12962W        W55875  20.789  13.378   0.234 -0.3320  0.0229 -0.4657
12963W        W55876  14.287  17.329   0.420  0.3442  0.0644 -0.0038
12964W        W55877  11.204  20.497  27.684  0.3912  0.2212 -0.1311
12965W        W55878  26.365  21.710  21.323 -0.2803  0.1919  0.0985
12966W        W55879  21.852  12.936  24.190  0.2323 -0.0566  0.0116
12967W        W55880   9.405  12.198  28.724 -0.2199 -0.0745  0.0720
12968W        W55881   6.946  22.853   7.041 -0.0917  0.0374  0.4155
12969W        W55882  17.948   5.788   6.898  0.1327 -0.7703  0.0018
12970W        W55883  25.520  21.830  24.121  0.1342 -0.0442  0.0878
12971W        W55884  26.281  12.791   3.561 -0.1144 -0.0708 -0.2193
12972W        W55885  14.362  18.231   3.879  0.1373 -0.4196 -0.0754
12973W        W55886  12.917  15.793   5.642  0.1571  0.2563  0.0035
12974W        W55887  19.634  15.259   3.508 -0.2074  0.0793 -0.0663
12975W        W55888  25.769   7.301  28.052 -0.3018  0.0252  0.1389
12976W        W55889  33.736  17.267  25.566 -0.0577 -0.0329 -0.1306
12977W        W55890  34.141  22.511  26.895  0.4818 -0.1887  0.1895
12978W        W55891  18.390  17.722  29.762  0.2745 -0.2099  0.1253
12979W        W55892  16.513  13.505  18.697  0.1039 -0.0098  0.1887
12980W        W55893  14.390  11.107  26.397 -0.0490 -0.2846 -0.2707
12981W        W55894  16.547  16.518  26.018 -0.4327  0.2234  0.4516
12982W        W55895   3.676  13.807  28.578 -0.1007 -0.0283  0.3460
12983W        W55896  29.365  17.022  28.089  0.0959  0.0981  0.3415
12984W        W55897  17.742  24.274   1.872  0.0541 -0.0485 -0.1847
12985W        W55898  18.414  18.480  28.805 -0.0678  0.1820 -0.0314
12986W        W55899  12.854   4.841  10.673 -0.1258  0.0402 -0.0501
12987W        W55900  20.060  16.362   2.928  0.0537  0.3367  0.0055
12988W        W55901   8.218  26.693   8.692  0.2885 -0.2876 -0.1362
12989W        W55902  22.588  20.254   8.069  0.0093  0.0388 -0.1648
12990W        W55903  15.106   4.629  10.545 -0.0361  0.1971  0.0157
12991W        W55904  12.184  18.681   2.873 -0.1787  0.3532 -0.1388
12992W        W55905  23.728  18.251   5.235  0.1214 -0.0225 -0.0659
12993W        W55906  24.020  24.221  21.560  0.0029 -0.0110  0.1430
12994W        W55907  15.068  20.992  26.117  0.1804 -0.1565 -0.0094
12995W        W55908  21.391  19.031   1.278 -0.1589 -0.0616  0.1176
12996W        W55909  17.942  12.911  28.399 -0.1748  0.1185 -0.0161
12997W        W55910  12.595  22.838   1.303 -0.1305 -0.0511  0.3941
12998W        W55911  13.974  17.735  21.962  0.0505  0.0998 -0.4464
12999W        W55912  15.155  21.701  16.377 -0.0311  0.1354  0.2293
13000W        W55913  10.237  10.898  23.441 -0.0292  0.2022 -0.0696
13001W        W55914  14.881  20.188   0.791 -0.3301  0.3407  0.0902
13002W        W55915  14.139  15.378   3.940  0.2201 -0.0305 -0.1662
13003W        W55916  18.403  29.459   3.883  0.2622  0.2922 -0.2131
13004W        W55917  10.180  16.886   7.709 -0.2039 -0.0193 -0.1524
13005W        W55918  11.640  25.697  20.764  0.2169 -0.1068 -0.0937
13006W        W55919  18.199  28.458  15.053  0.1069  0.2211  0.3403
13007W        W55920  17.558  19.629   0.383  0.0155  0.0651 -0.2187
13008W        W55921  20.929  33.503   3.052 -0.0465 -0.1127 -0.2690
13009W        W55922   1.006  13.218  27.181 -0.0123 -0.1704  0.2909
13010W        W55923  16.546  22.552   0.699  0.2183 -0.1007  0.0948
13011W        W55924  10.563   9.121  26.825 -0.1072 -0.3832 -0.4449
13012W        W55925  14.887  10.199  20.571  0.0619  0.1237 -0.1622
13013W        W55926  21.872  25.350   7.544 -0.1926  0.0523 -0.1045
13014W        W55927  23.846  11.068   0.615 -0.3552  0.3689 -0.1459
13015W        W55928   9.726   8.732   7.692  0.1190 -0.0197  0.2869
13016W        W55929  32.066  18.070  29.457 -0.0830 -0.1107  0.0813
13017W        W55930  22.304  22.283  22.763 -0.0103 -0.0200  0.0700
13018W        W55931   9.956  12.707   5.979 -0.1236 -0.0314  0.0121
13019W        W55932  14.313  17.299  26.389  0.2790  0.1435  0.1550
13020W        W55933  19.161  16.034  28.118 -0.0821  0.1709 -0.2730
13021W        W55934  22.595  16.315  19.329 -0.0921  0.1489  0.2762
13022W        W55935  33.141  23.017   7.482  0.1026 -0.2062 -0.2675
13023W        W55936   8.835  15.570  28.386  0.2470 -0.1396 -0.0019
13024W        W55937  14.700  25.342   5.865  0.1091  0.0111  0.4172
13025W        W55938  15.764  12.701   6.070  0.0074 -0.1566 -0.1459
13026W        W55939  14.228  17.872   7.836 -0.3899 -0.0633 -0.1457
13027W        W55940  18.397  10.378  21.291  0.0537  0.0266  0.0684
13028W        W55941  12.067  16.194   3.246 -0.0016 -0.1551  0.1630
13029W        W55942   6.673  24.377   9.365 -0.0907  0.1624 -0.0301
13030W        W55943  19.507  14.157  21.052 -0.1726 -0.1487 -0.0054
13031W        W55944  19.217  17.646  29.141 -0.0039 -0.1047  0.0778
13032W        W55945  14.462  21.094   2.071 -0.0494 -0.1828  0.4065
13033W        W55946  24.695  24.912  24.524 -0.4240 -0.0267  0.1207
13034W        W55947  15.344  21.820  28.097 -0.0497 -0.5710 -0.2919
13035W        W55948  13.608  15.300  28.608  0.0345  0.2444  0.1026
13036W        W55949  26.678  17.976  28.521  0.2750  0.1250  0.3137
13037W        W55950  12.085   9.214   1.002 -0.1282 -0.1714 -0.2485
13038W        W55951  10.657  27.190   2.123 -0.0353  0.3640  0.0324
13039W        W55952   6.871   6.158   0.925 -0.3538 -0.1468  0.4665
13040W        W55953  24.483  23.380   8.216  0.4446  0.2203  0.1361
13041W        W55954  17.388  19.370  28.810 -0.0793  0.2748  0.3523
13042W        W55955  17.631  22.436   7.413 -0.0029  0.1197  0.0316
13043W        W55956  10.838  21.614  26.846 -0.0924  0.2659  0.1925
13044W        W55957  10.560  18.657  25.907 -0.1041  0.3599 -0.4757
13045W        W55958  14.964  15.121   2.547 -0.0559 -0.0241 -0.1519
13046W        W55959   2.629   6.086   3.905 -0.1740  0.1139 -0.1337
13047W        W55960  20.328  11.927   2.793 -0.1071 -0.1601 -0.0439
13048W        W55961  21.885  11.286   0.338 -0.0952 -0.1319 -0.0869
13049W        W55962  14.930  31.253   2.618 -0.2437 -0.0021  0.0237
13050W        W55963  20.273  14.792   7.948 -0.0836  0.1241  0.1447
13051W        W55964  13.696  24.473   6.355 -0.2296  0.2739 -0.1403
13052W        W55965  30.633  23.877   2.862 -0.1672 -0.4182 -0.2248
13053W        W55966  25.069  21.071   5.164 -0.2272 -0.1951 -0.3258
13054W        W55967  10.878  16.060  16.970  0.3446 -0.1876 -0.1197
13055W        W55968  16.947  12.858   3.259  0.0217  0.2148  0.1820
13056W        W55969  15.490  11.885   2.681  0.3192 -0.2103  0.2184
13057W        W55970  21.172  21.588   0.889  0.0378 -0.2376 -0.0359
13058W        W55971  19.814  11.037   8.938 -0.2835 -0.0560 -0.2618
13059W        W55972  28.544  26.685   4.052  0.1613 -0.2058 -0.0295
13060W        W55973  26.502  12.910  25.467 -0.1053 -0.2189 -0.1185
13061W        W55974  23.216   6.622  13.853  0.0620  0.3099  0.2100
13062W        W55975  12.806  16.836   3.787  0.0488  0.1957 -0.0503
13063W        W55976  17.201  16.648  23.651 -0.2251  0.0031 -0.3314
13064W        W55977  15.408  13.774  21.355  0.2063  0.0225  0.0643
13065W        W55978  34.047  13.132  26.294  0.1649  0.2097  0.0500
13066W        W55979  18.580  13.924  29.332  0.5267 -0.1877  0.1113
13067W        W55980  24.911  22.228  21.691 -0.1753  0.0654  0.2175
13068W        W55981  16.666  13.624  28.710  0.1403  0.1020  0.2959
13069W        W55982  23.936  27.684  27.385  0.2496 -0.0589  0.0160
13070W        W55983  15.107  24.939   5.982  0.2315 -0.0382  0.1199
13071W        W55984  21.074  16.642   7.347  0.1230 -0.2886 -0.1327
13072W        W55985   5.784  10.286   0.042 -0.1588 -0.0209 -0.1964
13073W        W55986  25.640  24.872   5.959  0.0290  0.1068  0.0657
13074W        W55987  18.365  10.160  27.703 -0.3800  0.0253 -0.1342
13075W        W55988  13.839  18.794   8.146  0.1975  0.5201  0.0580
13076W        W55989  30.288  13.759   5.588 -0.1894  0.1589 -0.0138
13077W        W55990  15.868   7.539  29.760  0.0230  0.1819 -0.1481
13078W        W55991  22.599  21.486  15.076  0.0320  0.3440  0.1735
13079W        W55992  26.962  18.119  21.085 -0.0060  0.2987 -0.3277
13080W        W55993  12.258  21.854  29.610 -0.0375  0.1082  0.1428
13081W        W55994  17.773  11.566   7.990 -0.0226 -0.1563 -0.2228
13082W        W55995  24.360  16.897   7.402  0.3937 -0.1852 -0.0549
13083W        W55996  15.714  19.513  25.669 -0.1563  0.1971 -0.3978
13084W        W55997  27.562  26.766   1.924  0.1915 -0.3369 -0.0530
13085W        W55998  23.831  25.338   7.290  0.2740 -0.0716 -0.1429
13086W        W55999  20.630   9.939   5.918 -0.1351  0.0832 -0.3870
13087W        W56000  21.915  17.261  29.505  0.0386 -0.2317  0.1160
13088W        W56001   8.745  12.734   7.199  0.2421 -0.1010  0.2916
13089W        W56002   0.792  20.096   5.753 -0.2928  0.0737  0.0012
13090W        W56003   9.690   9.938   2.166  0.0073  0.2077 -0.2118
13091W        W56004  19.217  15.310   4.517  0.1090  0.3273  0.1033
13092W        W56005  19.268  11.308   5.851 -0.0502  0.0067 -0.1664
13093W        W56006  16.483   7.233  26.408  0.3054 -0.3333 -0.3825
13094W        W56007  21.321   5.836   1.057 -0.2163  0.2729  0.1187
13095W        W56008  15.504  13.222  27.493 -0.1006  0.1687  0.1460
13096W        W56009  23.437  18.719   1.284  0.1008  0.1698  0.4166
13097W        W56010  19.712  12.249   7.923  0.1282  0.0202  0.0592
13098W        W56011  20.015  19.564   5.900 -0.1534 -0.2191  0.0691
13099W        W56012  25.246   3.989  16.499 -0.0718  0.4412  0.2370
13100W        W56013  18.761  17.074  28.115 -0.2258  0.2219 -0.3530
13101W        W56014  21.179  18.556   2.561  0.1699  0.0197 -0.0652
13102W        W56015  17.397  10.907  26.620 -0.3704  0.2167  0.0762
13103W        W56016  16.264   9.303   4.675 -0.2275 -0.3728 -0.2064
13104W        W56017  18.697  15.301  24.562 -0.4464 -0.1179 -0.0114
13105W        W56018  18.913  15.603  26.702 -0.3029 -0.1517 -0.0003
13106W        W56019  13.727  18.068  27.289  0.3218  0.4273 -0.0189
13107W        W56020  14.902  13.515  28.844  0.1511 -0.0630  0.0919
13108W        W56021  24.232  15.738   4.084 -0.0518 -0.3014 -0.0782
13109W        W56022  15.742  12.820  23.466  0.3620  0.3384 -0.1545
13110W        W56023  21.214  16.729   4.961 -0.2074 -0.1399  0.1794
13111W        W56024  16.356  14.629   4.517 -0.0798 -0.0725 -0.0006
13112W        W56025  16.623  11.357  23.991  0.0944  0.0149 -0.0864
13113W        W56026  18.970  15.961  22.914  0.1454  0.0178 -0.1466
13114W        W56027  19.572   9.867   7.402 -0.0512  0.0880 -0.2967
13115W        W56028  19.779  17.099  26.220  0.2025  0.1538  0.0252
13116W        W56029  12.395  26.593  25.164 -0.2235 -0.1945  0.1929
13117W        W56030  11.585  23.030   2.670  0.1212 -0.0743  0.2815
13118W        W56031  19.037  19.036   1.230 -0.0404  0.4004 -0.0705
13119W        W56032  19.020  21.605   5.702  0.0466  0.0545 -0.1626
13120W        W56033  28.193  17.647  28.550  0.0682  0.4826 -0.1379
13121W        W56034  17.987   4.873   2.591 -0.0148 -0.1639 -0.0052
13122W        W56035  13.375  14.738   6.266 -0.1380  0.0025 -0.1244
13123W        W56036  21.410  14.279  25.021 -0.2670 -0.1993  0.2339
13124W        W56037  26.017  16.392   5.633 -0.0315 -0.2248  0.0069
13125W        W56038  13.306  23.210  27.990  0.0459 -0.3260 -0.1447
13126W        W56039   9.686  22.688  10.118 -0.0145 -0.2520  0.0232
13127W        W56040  11.570  18.179  21.482 -0.0046  0.3133  0.2279
13128W        W56041  12.235   9.732   4.846 -0.0001 -0.0217 -0.0015
13129W        W56042  23.580  14.896   1.861  0.1953  0.2646  0.0128
13130W        W56043  13.821  16.574   2.128 -0.2441 -0.1008  0.1926
13131W        W56044  19.025  20.508  28.898 -0.1032  0.2774  0.2448
13132W        W56045  28.579  34.138   6.466 -0.1774  0.0832 -0.0581
13133W        W56046  21.845  17.844   7.361 -0.2228  0.3203 -0.0174
13134W        W56047  24.946  18.036   7.872 -0.2835 -0.2305  0.1546
13135W        W56048  34.145   4.973   7.204  0.1366 -0.2307 -0.0014
13136W        W56049  17.881  14.267  25.512  0.0932 -0.0693 -0.0663
13137W        W56050  25.803  11.675  29.703  0.0263 -0.3497 -0.1905
13138W        W56051  11.728  19.081   5.741 -0.2531 -0.0500  0.1671
13139W        W56052  17.847  20.631  22.097  0.0401 -0.0512  0.1178
13140W        W56053  19.133  29.019   4.386  0.0388  0.1795  0.0095
13141W        W56054  14.497  13.110  28.011  0.0124  0.1387 -0.0615
13142W        W56055  12.790  11.175   8.508  0.0881 -0.1486 -0.1649
13143W        W56056   5.310  25.232  25.568 -0.0223 -0.2843 -0.0995
13144W        W56057  13.531  20.743   3.089 -0.3203 -0.2355  0.2298
13145W        W56058  16.536  17.493  23.877 -0.2937 -0.1791 -0.1206
13146W        W56059  15.892  23.386   3.484  0.1980 -0.3245 -0.0546
13147W        W56060   8.341  17.273   4.495 -0.1754  0.1732 -0.2448
13148W        W56061  15.459  12.418   6.919 -0.0504 -0.3563 -0.1492
13149W        W56062  11.354   8.418   0.106 -0.0184  0.1922  0.1860
13150W        W56063  22.582  16.709   2.552  0.0770  0.2074  0.3305
13151W        W56064   9.309  22.459   8.527  0.0429  0.2642  0.1336
13152W        W56065  26.483  19.731   8.879  0.1942  0.1462 -0.1834
13153W        W56066  26.241  15.048   7.899 -0.1895 -0.0678  0.0659
13154W        W56067  19.253  10.913   3.731  0.0414  0.1362  0.0264
13155W        W56068  26.287  17.667   2.797  0.0608  0.2162 -0.2461
13156W        W56069  16.242   8.790  27.699  0.1786  0.1456  0.0220
13157W        W56070  18.701  27.621   5.285  0.1396  0.0427  0.0153
13158W        W56071  24.806  14.858   4.281 -0.1732  0.0670 -0.0850
13159W        W56072   9.562  12.374  26.154  0.3858 -0.0010 -0.0649
13160W        W56073  15.476  14.566  26.587 -0.0519 -0.1999  0.0745
13161W        W56074  24.330  23.296   1.615 -0.0860 -0.3713  0.0909
13162W        W56075  15.815  24.523   3.942 -0.0431  0.0653 -0.3819
13163W        W56076   6.637  15.661  27.855 -0.2016 -0.2949  0.1681
13164W        W56077  21.849  13.794  29.268 -0.0456 -0.0152  0.1206
13165W        W56078  21.489  11.813  29.342 -0.0610  0.0532  0.2108
13166W        W56079  24.079  12.314  27.918 -0.0928 -0.0549 -0.2166
13167W        W56080  18.368  16.461  22.698 -0.0904 -0.1308  0.1785
13168W        W56081  20.482  15.134  25.312  0.0116 -0.1048  0.0476
13169W        W56082  28.138   4.276   9.488  0.1365 -0.1526 -0.1547
13170W        W56083  21.543  19.638  23.357 -0.0127  0.3108  0.1481
13171W        W56084  24.152   9.501  27.676  0.2090  0.0572 -0.2286
13172W        W56085  22.200  15.743   2.312  0.0497  0.0209 -0.1120
13173W        W56086  18.648  20.397   2.311 -0.0276 -0.0544 -0.0898
13174W        W56087  22.586  17.439  28.140 -0.3340 -0.2345  0.2262
13175W        W56088  14.486  18.749  29.703 -0.1544 -0.1857  0.2843
13176W        W56089  18.987  20.696  22.550 -0.0467  0.4626  0.0547
13177W        W56090  25.269  13.732  27.996  0.0586  0.2445  0.0592
13178W        W56091   6.698  14.908   5.760 -0.1754 -0.2076  0.0543
13179W        W56092  18.514  23.170   8.286  0.0372  0.2746 -0.1437
13180W        W56093  18.218   3.690   5.762  0.3329 -0.1127  0.0704
13181W        W56094  25.702  19.559  25.902 -0.0464 -0.0116  0.1854
13182W        W56095  21.404  17.413  26.833 -0.1628 -0.1272 -0.0490
13183W        W56096  18.462  11.944   6.320  0.4662  0.1918  0.0509
13184W        W56097  15.173   7.750   2.139 -0.5054 -0.1657 -0.2611
13185W        W56098  23.701  16.170   6.180 -0.5133  0.2334 -0.1633
13186W        W56099  19.157  16.895   0.296  0.0805 -0.0445 -0.2034
13187W        W56100  14.887  19.124  25.630 -0.5448 -0.1027 -0.0933
13188W        W56101  19.520  19.012   5.292  0.0021  0.2792 -0.0968
13189W        W56102  28.466  18.142   0.593 -0.2266 -0.0176 -0.0915
13190W        W56103   7.818   4.025   6.632  0.0104  0.1172  0.2772
13191W        W56104  17.095  19.278   3.645 -0.0042 -0.0421 -0.4812
13192W        W56105  26.326  15.681   3.633 -0.1012  0.1806 -0.2644
13193W        W56106  21.011  16.932  21.458  0.0147 -0.0456 -0.2632
13194W        W56107  19.546   6.732   3.196 -0.0538  0.0356 -0.0734
13195W        W56108  25.614  15.379  19.096  0.0342  0.0486  0.1190
13196W        W56109  18.533  16.640  26.771  0.0784 -0.0487  0.0202
13197W        W56110  22.424  18.594  27.744  0.2422  0.2544 -0.0437
13198W        W56111  14.289  14.635   5.141 -0.3032 -0.2731 -0.2605
13199W        W56112  19.766  20.169   3.550 -0.4555 -0.0708 -0.3971
13200W        W56113  17.049   5.329   9.050  0.1162  0.1121  0.0976
13201W        W56114  16.523   9.934  25.527 -0.1130  0.1635  0.2999
13202W        W56115  18.910   9.071  24.271 -0.2122 -0.0731 -0.0818
13203W        W56116  17.371  20.864   3.979 -0.0045 -0.1109 -0.0841
13204W        W56117  13.842  20.618   9.495 -0.2581 -0.2373  0.2155
13205W        W56118  22.803  19.817   5.185 -0.1720 -0.2599 -0.0432
13206W        W56119  20.329  19.447  23.436 -0.1519  0.2242 -0.0432
13207W        W56120  17.317  16.990  27.120 -0.3295  0.1062 -0.2564
13208W        W56121  20.880  15.794  23.366  0.1596 -0.0047  0.0979
13209W        W56122  10.336  32.384   7.115 -0.0099  0.1685 -0.1161
13210W        W56123  21.203  11.514  16.704 -0.2283 -0.1566  0.3103
13211W        W56124   3.790   4.960  11.191  0.0546  0.0118 -0.0031
13212W        W56125   9.727   8.997   9.935  0.0342  0.1834 -0.0700
13213W        W56126  15.618  34.451   4.799  0.0410 -0.0598  0.2402
13214W        W56127   9.451  12.641   0.418  0.1556 -0.3249  0.3500
13215W        W56128  29.808  18.170   7.760 -0.0981  0.1814 -0.3254
13216W        W56129  23.871  26.048   5.711 -0.0666  0.0040 -0.0415
13217W        W56130  10.832  17.564  25.926  0.0286 -0.1822  0.0629
13218W        W56131  12.318   5.683   4.959 -0.2131 -0.3812  0.1352
13219W        W56132  21.157  10.082   6.727 -0.0654 -0.0503  0.0978
13220W        W56133  16.853   3.656   0.845 -0.0374 -0.0436 -0.5179
13221W        W56134   9.024   4.469   2.946 -0.0489  0.3071 -0.1839
13222W        W56135  21.357   7.943   5.855 -0.1327  0.0708 -0.0618
13223W        W56136  24.643  27.532   5.697  0.1708 -0.0856 -0.1939
13224W        W56137   8.455  18.391  20.851  0.0307  0.0672 -0.1988
13225W        W56138  15.820  27.691  10.684 -0.0219 -0.0283  0.0680
13226W        W56139  15.676  14.754   5.846  0.0517  0.2688  0.0707
13227W        W56140  10.876  19.456   2.662 -0.2833  0.2414  0.1018
13228W        W56141  23.801  16.361   5.750  0.0568  0.1960  0.0143
13229W        W56142  11.373  32.849  24.207 -0.0938  0.0209  0.2062
13230W        W56143  20.548  20.632  29.601 -0.1224  0.2587  0.0366
13231W        W56144   9.727  13.359   7.423  0.3085 -0.0940 -0.2873
13232W        W56145  19.054  16.847  25.780 -0.2600 -0.0535  0.1770
13233W        W56146  29.907  16.681   9.361  0.0800 -0.0089  0.0370
13234W        W56147  17.423   6.837   8.416  0.1804 -0.0675  0.1609
13235W        W56148  25.499  23.021  18.853  0.3272  0.1953  0.0287
13236W        W56149  21.793  23.820  28.639 -0.1100  0.0056 -0.0209
13237W        W56150  21.681  15.914  24.780  0.0039  0.2599 -0.1460
13238W        W56151  15.719   7.331   2.555 -0.1712  0.1785 -0.0121
13239W        W56152  31.154   7.970   2.438  0.2612 -0.3871  0.1440
13240W        W56153  23.730  16.438   3.497  0.0289  0.0041  0.1166
13241W        W56154  19.006  23.981   4.948  0.1653 -0.1905 -0.0574
13242W        W56155  13.363   7.012  10.966  0.1775 -0.1154  0.0885
13243W        W56156   4.883  12.606   4.120  0.2400  0.2442 -0.0178
13244W        W56157  25.947  11.962   7.410 -0.4670  0.1448 -0.0009
13245W        W56158  12.810  14.302   0.519 -0.0450 -0.1438 -0.4696
13246W        W56159  17.772  21.348   7.516  0.1837 -0.1163 -0.1511
13247W        W56160  16.298   9.234   8.746  0.0032  0.0604  0.1935
13248W        W56161  21.408   8.967  28.502 -0.2799 -0.2076 -0.4367
13249W        W56162  23.395  13.830   1.657 -0.0849 -0.0291 -0.0946
13250W        W56163  23.792   8.015   1.642  0.0126  0.0718 -0.5116
13251W        W56164  17.078  15.518   3.382 -0.2947  0.1412  0.0761
13252W        W56165  25.355  13.746  29.575 -0.2982  0.2007  0.0723
13253W        W56166  15.196  25.753   8.736 -0.1789 -0.1365  0.1067
13254W        W56167  20.978  22.659  28.858  0.0388  0.3554 -0.3048
13255W        W56168  17.317  13.067  29.218 -0.1549 -0.1138 -0.0264
13256W        W56169   0.746  21.673  28.934  0.0752  0.0944 -0.1476
13257W        W56170  27.478  14.973   1.761  0.0693  0.0698  0.0069
13258W        W56171  13.585  11.641  29.206  0.0824  0.3638  0.1920
13259W        W56172  16.316  10.861   2.852  0.1150  0.0372 -0.0448
13260W        W56173  20.176  24.037   9.243  0.2274 -0.3414  0.0958
13261W        W56174  16.462  24.659   7.657  0.1066  0.1444  0.0168
13262W        W56175  26.745  14.237   3.580 -0.0790 -0.0890 -0.0926
13263W        W56176  31.844  14.379  24.800 -0.3824 -0.1118 -0.1641
13264W        W56177  28.041  26.414   8.979  0.0108  0.0788  0.1060
13265W        W56178  11.696   6.125   2.086 -0.0010  0.2354 -0.1193
13266W        W56179  10.623   7.727   8.070 -0.0632  0.0540 -0.1372
13267W        W56180  21.616   1.224   4.076  0.2229  0.0863  0.1260
13268W        W56181  26.788   2.229   1.929  0.1230 -0.2303  0.2335
13269W        W56182  16.711  13.520   5.327  0.2337  0.0817  0.1511
13270W        W56183  20.561  18.795   7.954 -0.4279 -0.1680  0.1247
13271W        W56184  13.095  10.948   0.408  0.0413  0.0742  0.1912
13272W        W56185  20.796  20.968   4.178  0.2946  0.0668  0.2333
13273W        W56186  18.047  15.397   8.028 -0.0771 -0.1487 -0.0677
13274W        W56187  24.148   8.025  25.085 -0.0103 -0.2238  0.1149
13275W        W56188  21.668  33.577  25.962 -0.2967 -0.1971 -0.0542
13276W        W56189  12.124  20.802   8.375 -0.0378 -0.0409 -0.0646
13277W        W56190  17.397   7.332   7.330  0.2000 -0.2866 -0.0674
13278W        W56191  16.139  17.137  26.749 -0.0563  0.1691 -0.0790
13279W        W56192  16.147  15.700   5.964 -0.1181  0.0326  0.1021
13280W        W56193  17.059  12.728  23.493  0.0780 -0.0849  0.0804
13281W        W56194  23.290  20.221   2.553 -0.0319 -0.1193 -0.0370
13282W        W56195  21.778  13.418  23.133  0.0338  0.2702  0.0324
13283W        W56196  29.090  12.130  29.767  0.1181  0.1541  0.3174
13284W        W56197  21.081  17.601   4.127  0.0471  0.1089 -0.1190
13285W        W56198  14.772  19.497   2.286 -0.1190 -0.2980 -0.4153
13286W        W56199   9.108  16.832  26.366  0.0430 -0.0591  0.2742
13287W        W56200  33.538  21.688   1.903 -0.2462 -0.0383 -0.3714
13288W        W56201  32.562  18.808  24.528 -0.0701  0.1222 -0.2054
13289W        W56202  16.565  19.560  25.267 -0.1128  0.1846  0.1104
13290W        W56203  17.398  25.543  26.014  0.2994  0.2033  0.0860
13291W        W56204  20.826   6.157  28.236 -0.4705  0.0973 -0.0508
13292W        W56205  14.483  21.889  25.383  0.0485 -0.0690  0.1051
13293W        W56206  26.165  14.706   0.213 -0.2074 -0.0774 -0.0359
13294W        W56207  11.900  18.825   7.064 -0.2501 -0.1611 -0.0461
13295W        W56208  17.644  14.147   0.750  0.2729  0.1415 -0.1521
13296W        W56209  25.952  13.161   3.543  0.1831 -0.1733 -0.2924
13297W        W56210  22.653  22.154   7.579 -0.1482  0.2722  0.1598
13298W        W56211  18.984  15.277   7.201 -0.1167 -0.5385  0.0664
13299W        W56212  25.394   0.397  28.419  0.2055 -0.2485 -0.0349
13300W        W56213  14.131  11.233   2.957 -0.1154 -0.1210 -0.0609
13301W        W56214  21.327  16.497  21.580  0.0905 -0.1998  0.0690
13302W        W56215  20.859  20.636  21.945 -0.1928 -0.0659  0.2323
13303W        W56216   7.517  13.870   2.129 -0.2950 -0.3752 -0.0421
13304W        W56217  23.371  18.413   4.288  0.0913 -0.1100  0.2910
13305W        W56218  21.655  15.274   8.171 -0.2770 -0.1119 -0.0956
13306W        W56219  22.067  14.935   3.899  0.0349  0.0352 -0.5711
13307W        W56220  24.965   8.117   9.319  0.0031 -0.1851  0.1234
13308W        W56221  12.475  13.450  23.796 -0.0959  0.0499  0.1446
13309W        W56222  19.449  13.922  26.460  0.0424 -0.1984  0.0984
13310W        W56223  16.328  15.692  27.817 -0.0694  0.3286  0.4686
13311W        W56224  23.715  27.458   3.990 -0.1477 -0.0142 -0.2542
13312W        W56225  17.178   6.995   9.340  0.4230 -0.2500 -0.1132
13313W        W56226  28.005  18.039   0.372 -0.5715 -0.0020 -0.1460
13314W        W56227  26.961   1.524   4.844  0.2210  0.0313 -0.0511
13315W        W56228  24.750  13.593  25.754  0.0474 -0.0348 -0.2152
13316W        W56229  15.458  18.165  23.450  0.0352 -0.2982  0.2591
13317W        W56230  27.730  14.613   0.993  0.0084 -0.1442  0.2499
13318W        W56231  20.314  10.435  26.164  0.0584  0.0533 -0.2950
13319W        W56232  23.704  20.368  20.958 -0.0411  0.1123 -0.0652
13320W        W56233  20.079  10.000  28.233  0.1165  0.1337  0.3344
13321W        W56234  11.078   5.078  25.067 -0.1391  0.0694  0.0990
13322W        W56235  20.676   8.794   1.462  0.2205 -0.3004 -0.0752
13323W        W56236  18.004  16.708  27.705 -0.2091 -0.2432 -0.2137
13324W        W56237  29.224   8.591   4.969 -0.2521 -0.3584 -0.2507
13325W        W56238  11.343  14.528   2.373  0.3784  0.0419 -0.1482
13326W        W56239   7.741  11.452  24.264 -0.0439  0.0120  0.1195
13327W        W56240  19.814  10.117   6.044 -0.1144  0.0777 -0.2823
13328W        W56241  24.685  19.926   1.696  0.1459 -0.2052 -0.1454
13329W        W56242  21.440  19.145  19.876 -0.2081  0.2087  0.0515
13330W        W56243  30.410   9.797   0.422  0.0095  0.0280  0.1357
13331W        W56244  16.476  21.966   3.587 -0.2230 -0.0842 -0.0798
13332W        W56245  24.745  24.560   6.668  0.2689  0.0383  0.0733
13333W        W56246  11.441   3.639  25.459  0.1538  0.2017  0.0267
13334W        W56247  24.413   8.715   4.489  0.0687  0.1068 -0.0515
13335W        W56248  24.104  13.722   2.884  0.2686 -0.1274  0.0353
13336W        W56249  20.627  28.843   2.176 -0.1596 -0.1540 -0.0181
13337W        W56250  13.521  21.349   4.972 -0.1465 -0.2206  0.0834
13338W        W56251  16.223   9.995   9.217  0.2164 -0.0731  0.1692
13339W        W56252   6.920  16.481   6.960 -0.0342  0.0559  0.2635
13340W        W56253  17.584  17.167  24.901  0.0284  0.3082 -0.4083
13341W        W56254  27.831  16.552  27.985 -0.1038  0.1413 -0.0101
13342W        W56255  32.835  20.027  21.951  0.0414 -0.1396 -0.0850
13343W        W56256  18.638  15.353  27.114 -0.0145 -0.0444  0.1302
13344W        W56257   5.481   9.468   0.237  0.2002 -0.0220  0.0313
13345W        W56258  25.758  24.535   8.100  0.2043  0.1823  0.0014
13346W        W56259  19.530  13.010  27.352  0.1701 -0.2784 -0.2029
13347W        W56260  19.815  15.350   8.071  0.0022  0.0622  0.0082
13348W        W56261  28.332  25.873   0.812  0.3016 -0.0051 -0.1696
13349W        W56262   8.043   6.186   7.602 -0.0308  0.0249  0.1029
13350W        W56263  10.534   6.825   3.516 -0.0066 -0.0709  0.1286
13351W        W56264  14.693  14.086   6.741 -0.0565 -0.1118  0.0709
13352W        W56265  11.310  32.262   2.647  0.0767  0.2770  0.3043
13353W        W56266   4.608  22.608   6.695  0.1673 -0.1202 -0.0413
13354W        W56267  20.293  20.200  22.727 -0.1829  0.2150  0.4332
13355W        W56268  29.188  23.138  27.626  0.2082  0.0281 -0.0511
13356W        W56269  18.830  14.416  22.467 -0.0069  0.2388  0.1680
13357W        W56270  17.301  16.352   2.498 -0.1136  0.2265 -0.0758
13358W        W56271  19.975  12.457   8.285 -0.0249 -0.2408  0.0414
13359W        W56272  15.552  21.241   5.709 -0.0357  0.2597  0.0038
13360W        W56273  21.104  22.780   8.474  0.1182  0.1027 -0.1680
13361W        W56274  21.950  19.336   2.458 -0.1033  0.2666  0.3778
13362W        W56275  23.662  17.456  27.413  0.0296  0.2088 -0.0887
13363W        W56276   8.026   6.422   6.089  0.2840  0.0231  0.0994
13364W        W56277  22.844  10.138  26.349 -0.0196  0.2574 -0.1116
13365W        W56278  22.105   8.945  21.580  0.0352  0.1053 -0.0366
13366W        W56279  22.859  25.410  25.995  0.2603 -0.1974 -0.3254
13367W        W56280   7.822  12.084   8.632 -0.2288 -0.0936  0.1527
13368W        W56281  23.692  17.843   5.519  0.1477 -0.0907 -0.4009
13369W        W56282  10.349  11.305   6.341 -0.0767  0.5054  0.3199
13370W        W56283  17.222  19.355   6.193  0.1790 -0.2859  0.1235
13371W        W56284  15.979  22.709  23.725  0.1071 -0.1632 -0.2905
13372W        W56285  16.248   7.157  25.101 -0.2066  0.1312 -0.0721
13373W        W56286   9.378  17.956   8.402 -0.1009  0.0592  0.4291
13374W        W56287  19.101   7.794  26.072  0.0912  0.1839  0.1181
13375W        W56288  18.904   6.152   7.308 -0.2541  0.2169 -0.0407
13376W        W56289  19.442  15.404   6.337 -0.2294 -0.2850  0.3198
13377W        W56290  31.299  17.489   0.666  0.0229 -0.1332  0.5830
13378W        W56291   4.936  19.869   5.632 -0.0155 -0.1211 -0.2107
13379W        W56292  19.154   8.430  18.455 -0.0926 -0.0985  0.4189
13380W        W56293  18.164  14.913   4.721  0.0907 -0.1914 -0.0283
13381W        W56294  18.482  13.814   0.412 -0.2296 -0.1973  0.2268
13382W        W56295  22.201  15.961  27.317  0.0884  0.0258  0.3010
13383W        W56296  17.750  13.947   6.693  0.1439  0.0981  0.1197
13384W        W56297  22.675   9.734   9.166  0.1104  0.2318  0.1159
13385W        W56298  13.760  13.328   8.085  0.2799 -0.0707 -0.0374
13386W        W56299  22.654   0.392   4.762  0.0855 -0.0230  0.0461
13387W        W56300  21.221  13.105   4.931  0.0432 -0.0165  0.1623
13388W        W56301  14.096  24.827   9.000  0.0908 -0.3042 -0.1756
13389W        W56302  19.435  14.162   3.379 -0.0580  0.0359  0.0347
13390W        W56303  16.731  12.637  27.269 -0.2014  0.1086 -0.0583
13391W        W56304  11.545   3.363   7.924  0.1098 -0.2063  0.0259
13392W        W56305  21.486  16.331   1.869 -0.0838 -0.0723  0.0399
13393W        W56306  19.205  10.243   1.074  0.0799 -0.2382 -0.4115
13394W        W56307  15.266  21.399  22.269  0.0914  0.1156 -0.1577
13395W        W56308  20.245  22.496   5.681  0.1266  0.0432  0.0306
13396W        W56309  12.103  25.963   9.303  0.1857 -0.0262  0.0134
13397W        W56310  25.506  10.567   5.426  0.0863  0.3777 -0.2625
13398W        W56311  13.944  10.235   2.808  0.2312  0.2152 -0.1819
13399W        W56312  14.202  12.780  28.959 -0.2108 -0.1493  0.0217
13400W        W56313  18.599  14.871  28.389  0.2237  0.1514 -0.0595
13401W        W56314  17.125  10.277   3.569  0.0876 -0.0410 -0.0772
13402W        W56315  21.074   9.154   8.603 -0.2818  0.0309 -0.0994
13403W        W56316  14.030  10.213   6.719 -0.1055 -0.3499  0.1210
13404W        W56317  24.079  14.380   2.300 -0.2956  0.1163 -0.2433
13405W        W56318   9.357  22.878   5.217 -0.0390 -0.2942 -0.0388
13406W        W56319  25.427  10.587  28.318  0.2010  0.1929 -0.0507
13407W        W56320   9.486  15.829   3.463  0.2556  0.0172 -0.0005
13408W        W56321  18.684  19.542  29.063  0.2333  0.4271  0.0668
13409W        W56322  12.729  15.617  29.680  0.2238 -0.1204  0.0483
13410W        W56323  20.275  14.310   1.428  0.3073  0.0434 -0.1621
13411W        W56324  17.451  13.297   3.849  0.3690  0.1590  0.3497
13412W        W56325   9.436  18.640   2.666 -0.0805  0.0701 -0.2304
13413W        W56326  20.609  19.254   3.937 -0.1244  0.1334  0.4312
13414W        W56327   8.910   6.242   6.639 -0.0089  0.0101  0.1909
13415W        W56328  15.039   8.350  26.691 -0.0912 -0.1900  0.2726
13416W        W56329  26.239  21.433   4.699 -0.0489 -0.2133  0.1016
13417W        W56330  18.846   8.969  28.810 -0.3450  0.1451 -0.0622
13418W        W56331  27.038  13.305   3.422  0.0119  0.1303  0.1160
13419W        W56332  29.711  22.973  26.610 -0.0740 -0.2932 -0.1409
13420W        W56333  11.305   4.216   0.973  0.2071 -0.2539 -0.3227
13421W        W56334  20.420  17.700   7.698  0.0478 -0.2245  0.1056
13422W        W56335  17.756  19.371   2.788 -0.1343 -0.0799 -0.4805
13423W        W56336   8.393  27.769   0.655 -0.1064 -0.1576 -0.0234
13424W        W56337  16.098  16.038   6.346  0.0400 -0.1878  0.0398
13425W        W56338  14.785  14.879   1.495 -0.2259 -0.1083 -0.0221
13426W        W56339   7.555  13.150   9.974  0.0560  0.2738  0.1192
13427W        W56340   9.373  19.270   2.072  0.1201  0.1443  0.1520
13428W        W56341  18.894  25.308   7.348  0.0787 -0.3457 -0.2176
13429W        W56342  13.163   2.463   4.718  0.2801 -0.1660 -0.0726
13430W        W56343  12.645  20.272   3.870 -0.2143  0.0130  0.0787
13431W        W56344  10.239   9.271   9.823  0.3026  0.1887  0.1596
13432W        W56345  19.118  11.798  27.880 -0.3409  0.1521  0.0794
13433W        W56346  23.399  18.059   6.755  0.0681 -0.0313  0.0482
13434W        W56347  18.544  15.169   4.937  0.0323 -0.0129 -0.1914
13435W        W56348  19.460  26.322   5.598  0.2169  0.0163 -0.1691
13436W        W56349  14.129  12.783   7.236 -0.2253 -0.0387 -0.2761
13437W        W56350  16.986  20.335   7.873  0.2065 -0.0153  0.1690
13438W        W56351  22.159  19.676   3.777 -0.0152  0.1917 -0.1776
13439W        W56352  16.517  14.249  28.136 -0.0882 -0.0350  0.1461
13440W        W56353  22.893  22.115   5.851 -0.0556 -0.0460  0.0849
13441W        W56354  17.883  20.526   2.116  0.1298  0.0889 -0.0798
13442W        W56355  19.389  24.292   6.378 -0.0000 -0.0599 -0.0204
13443W        W56356  18.708  22.201   8.272 -0.0376  0.2023 -0.1985
13444W        W56357   1.892   9.325  21.643  0.1345  0.1229 -0.1257
13445W        W56358   4.115  15.229   4.762  0.1255  0.2627  0.0286
13446W        W56359  10.507  10.424  10.994 -0.6460 -0.3537  0.2169
13447W        W56360  18.917  16.475   8.145 -0.0016 -0.1423  0.0520
13448W        W56361  23.343  18.943   3.415 -0.0272  0.2436  0.0900
13449W        W56362  24.327   1.853   2.709  0.0116 -0.2351  0.0099
13450W        W56363  32.152   6.985   2.465  0.1384  0.1523  0.5292
13451W        W56364  15.130  22.215  29.559  0.0406  0.1878 -0.0606
13452W        W56365  30.085  14.263   0.654 -0.0402 -0.1333 -0.4313
13453W        W56366  19.350  13.884   0.014 -0.3242 -0.0392 -0.0254
13454W        W56367  28.503  24.298   3.975  0.1765 -0.0117 -0.0255
13455W        W56368  15.576  10.289   7.718 -0.2984  0.0252  0.2184
13456W        W56369  10.059   4.893   7.847  0.1030  0.0336 -0.2539
13457W        W56370  13.872   6.492   5.603  0.2270  0.2928  0.1050
13458W        W56371  17.372  13.192   3.313 -0.1341 -0.0193  0.0495
13459W        W56372  17.942  17.669   2.191  0.2225 -0.0702 -0.2618
13460W        W56373  23.322   6.165   7.116  0.4726  0.2864 -0.0004
13461W        W56374  12.511  18.396   5.821  0.4685  0.2571  0.0787
13462W        W56375  16.427  10.646  23.852  0.0826  0.0667 -0.0250
13463W        W56376  13.313  29.514   2.547 -0.1946 -0.3178 -0.0305
13464W        W56377  14.190   5.525   2.904 -0.3122  0.2494 -0.3242
13465W        W56378   6.471  14.948   2.689 -0.0194 -0.0452 -0.0149
13466W        W56379  21.846  18.097  28.242 -0.0397  0.0253 -0.1131
13467W        W56380  23.947  19.527   4.112  0.0436 -0.0619  0.0338
13468W        W56381  14.177  12.752  27.881 -0.0002  0.0607  0.1520
13469W        W56382  20.725  12.825   3.561  0.1020 -0.0504 -0.0621
13470W        W56383  13.285  17.404   4.486 -0.1229  0.3010  0.0345
13471W        W56384  16.191  14.747   3.935 -0.1075  0.0222 -0.1822
13472W        W56385  30.970  20.609   8.071  0.3926 -0.0126  0.0874
13473W        W56386  24.238   7.168   8.450 -0.0861 -0.2478  0.0742
13474W        W56387  24.863  17.892   2.751 -0.4267  0.0274  0.1265
13475W        W56388  23.750  14.984   7.532  0.0827  0.2112  0.1256
13476W        W56389  15.340   8.742  26.754  0.0765 -0.0509  0.3274
13477W        W56390  21.756  11.337   3.841  0.0395 -0.4111 -0.0715
13478W        W56391  21.644  10.678   3.057 -0.0078 -0.0262 -0.1820
13479W        W56392  20.808  14.223   8.707 -0.0181  0.0402  0.2833
13480W        W56393  22.417  17.577  26.681 -0.0426 -0.0101  0.1475
13481W        W56394   7.513  24.587   4.775  0.1427 -0.0531 -0.4029
13482W        W56395  18.382   9.791  29.604 -0.0023 -0.2921 -0.0416
13483W        W56396  15.673  19.873   3.073  0.0534 -0.2977 -0.1340
13484W        W56397  27.872  14.231   6.941  0.1281 -0.0201 -0.1665
13485W        W56398  20.895  14.625   8.436  0.1340  0.0180  0.3169
13486W        W56399  26.516  12.430   5.383  0.1235 -0.0726 -0.4878
13487W        W56400  18.473  13.494   1.874 -0.0958 -0.4241 -0.0888
13488W        W56401   7.775  17.446   8.515  0.0669 -0.1976 -0.3185
13489W        W56402  24.314  20.422   5.193  0.0907  0.0704 -0.0005
13490W        W56403  26.641  22.744   8.353  0.0323 -0.0001 -0.0124
13491W        W56404  16.992  19.749  25.383 -0.2124  0.1653  0.0849
13492W        W56405  20.908  18.939   1.492  0.2273  0.2369 -0.4451
13493W        W56406  16.793   9.710   4.447  0.0345 -0.1817 -0.0420
13494W        W56407  24.025  18.730   5.908 -0.1669 -0.0456  0.1376
13495W        W56408   7.759  19.932   0.521  0.1137 -0.1593  0.1707
13496W        W56409  19.590  10.135   4.480 -0.4456 -0.0975  0.2960
13497W        W56410  21.836  12.987  25.249  0.1417 -0.1067  0.0226
13498W        W56411  17.023  15.635   6.320 -0.0039  0.2445  0.0809
13499W        W56412  16.240  25.501   8.208 -0.0869  0.1835 -0.0921
13500W        W56413  11.201  23.414   2.768 -0.1477  0.2601  0.2934
13501W        W56414  15.318  24.926   2.762 -0.0571 -0.2284  0.1994
13502W        W56415  19.756  21.551   8.335 -0.3698  0.0302 -0.0343
13503W        W56416  13.110   9.084   1.806  0.1421  0.1003 -0.3007
13504W        W56417  12.464  17.916   6.608  0.1837 -0.1070 -0.2444
13505W        W56418  10.799   8.584   0.198  0.3896 -0.2938  0.0932
13506W        W56419  20.191  25.519   4.017 -0.0108 -0.0271  0.0103
13507W        W56420  17.388  13.133   2.460 -0.0369 -0.0765 -0.0644
13508W        W56421  22.371  16.309   3.883  0.3583 -0.1437 -0.1530
13509W        W56422  15.032   9.758   0.811 -0.2316  0.1956 -0.3936
13510W        W56423  27.247  13.929   5.977 -0.1196 -0.0700  0.3159
13511W        W56424   8.793   8.231   5.756 -0.0991  0.1113 -0.0241
13512W        W56425  16.202   5.234  29.326  0.0083 -0.1750  0.0029
13513W        W56426  16.706  12.386   8.679 -0.2822  0.1334 -0.3465
13514W        W56427   7.012  21.662   4.446 -0.2112 -0.1664  0.3231
13515W        W56428  14.930  24.710   5.051  0.1132  0.1187  0.1049
13516W        W56429  27.158  14.124   8.447 -0.0773 -0.0291 -0.2799
13517W        W56430  23.593   9.894  22.886 -0.0406  0.2038 -0.1279
13518W        W56431  23.284   6.367  25.787 -0.1666  0.1653  0.1216
13519W        W56432  24.579   3.873   5.526  0.2340  0.0788  0.0761
13520W        W56433  21.796  12.172   4.978 -0.0657  0.2909  0.1348
13521W        W56434  20.783  24.302   6.016  0.5027  0.0024 -0.0451
13522W        W56435  15.317  10.614  26.885  0.0522 -0.1514 -0.3313
13523W        W56436  26.038  10.394  29.491  0.2225 -0.1668  0.0267
13524W        W56437  10.179  22.347   5.567  0.0404  0.1964  0.0809
13525W        W56438  20.562  20.173   5.595 -0.2265  0.0016  0.1208
13526W        W56439  10.275   6.698  12.034 -0.2517 -0.2840  0.0553
13527W        W56440  16.041   9.547   7.118  0.5491 -0.2881 -0.0118
13528W        W56441  19.377   8.806   6.561 -0.0493 -0.0932 -0.0585
13529W        W56442   0.773  20.675   0.266 -0.1442 -0.2690  0.3432
13530W        W56443  20.006  13.280   7.924 -0.0635  0.1054 -0.0121
13531W        W56444  10.457  20.024   0.865 -0.1100  0.1650  0.1758
13532W        W56445  17.223   7.737   9.513  0.1910 -0.0056  0.2181
13533W        W56446  14.868   5.070  26.836 -0.2096  0.1467 -0.2397
13534W        W56447  20.449   8.946   6.691 -0.2071  0.2357  0.1317
13535W        W56448  16.057  10.355   3.437  0.0308 -0.0734  0.4264
13536W        W56449  24.492  11.269   9.596  0.0000 -0.0094  0.0847
13537W        W56450  14.061  10.598  26.491 -0.2014 -0.1670 -0.0314
13538W        W56451  15.389  18.732   2.893  0.1372 -0.0221 -0.0143
13539W        W56452  11.199  15.888   7.048  0.0039  0.0962  0.2224
13540W        W56453  23.567   6.941   5.233  0.0098 -0.1818  0.2348
13541W        W56454  26.464  18.324  29.527  0.0603 -0.1050 -0.0420
13542W        W56455  18.740  16.434   6.580  0.2393 -0.0074  0.0766
13543W        W56456  24.352  14.237  26.701  0.1541 -0.0533  0.1200
13544W        W56457  16.713  25.370  10.309  0.2525 -0.5906  0.1343
13545W        W56458  12.896  26.788   4.232  0.3182 -0.2055  0.0104
13546W        W56459  11.257   7.300   0.718 -0.1167 -0.3292  0.0030
13547W        W56460  17.584  17.519   7.800  0.0087 -0.2113  0.1369
13548W        W56461  14.951  17.855   6.847 -0.0873  0.1511 -0.1075
13549W        W56462  23.121   7.315   8.665 -0.2063  0.0955  0.0545
13550W        W56463  19.806  19.194  28.516 -0.0033 -0.1814  0.0104
13551W        W56464  27.302   3.227   5.513 -0.0163 -0.6129 -0.1063
13552W        W56465  20.193  10.526   1.531  0.1512  0.1379  0.0826
13553W        W56466  19.485  15.828  28.488  0.3264 -0.3716 -0.2991
13554W        W56467  19.623  17.478  27.748 -0.3285 -0.3473  0.2696
13555W        W56468   7.778  13.629  28.351 -0.1553 -0.1564 -0.1815
13556W        W56469  31.878  14.829  29.027 -0.3237  0.0359  0.3553
13557W        W56470  10.274  22.946   9.365 -0.0841  0.3620 -0.0085
13558W        W56471  15.145  18.711  29.077 -0.1954 -0.1276  0.0270
13559W        W56472  18.499  13.290   0.249  0.3529  0.1304 -0.0924
13560W        W56473   6.696  18.001   7.391 -0.2470 -0.0599  0.2210
13561W        W56474  19.648  11.037   5.709  0.0506  0.1729 -0.0131
13562W        W56475  17.660  10.079   4.282  0.0516 -0.1100  0.2057
13563W        W56476  20.278  20.885   4.481  0.0685 -0.3227 -0.0768
13564W        W56477   5.382  17.438   6.121  0.2032 -0.2363  0.0143
13565W        W56478  22.863  17.738  28.461  0.2792  0.2166  0.1466
13566W        W56479  23.045  15.399  24.360  0.2267  0.0045 -0.0191
13567W        W56480  20.592  14.015   8.064  0.1466  0.0137  0.0585
13568W        W56481  23.522  24.728   7.118  0.1133  0.1789  0.2858
13569W        W56482  17.806  18.706  27.296 -0.1791  0.4642  0.1298
13570W        W56483  23.732  11.826  27.215  0.1794 -0.1985  0.0533
13571W        W56484  24.842   8.136   3.837 -0.2769  0.1786  0.1116
13572W        W56485  31.511  14.914   3.599 -0.2080  0.0631 -0.2743
13573W        W56486  13.461  18.528   6.728  0.0486  0.0424  0.0022
13574W        W56487  12.884  24.791   9.346  0.2469  0.0706 -0.0913
13575W        W56488  24.020  12.648   1.838  0.0743  0.2547 -0.0851
13576W        W56489  17.966   8.971   4.095 -0.1938 -0.2799  0.1106
13577W        W56490  19.366  16.037  28.962 -0.1288 -0.0968 -0.0434
13578W        W56491  17.566  18.835   4.568 -0.0374 -0.0345 -0.1310
13579W        W56492  26.541   9.367   9.829 -0.1108 -0.1225 -0.0420
13580W        W56493  11.572  32.655   7.899  0.0666  0.1466  0.0193
13581W        W56494  15.532  23.354  10.044 -0.0768 -0.2618 -0.2784
13582W        W56495  14.816  13.147  29.260 -0.0848 -0.0162 -0.1665
13583W        W56496  18.314  26.623   7.948  0.0483 -0.0613  0.0720
13584W        W56497  16.103  28.907  10.473 -0.1497  0.2217 -0.1411
13585W        W56498  23.502  23.530   4.244 -0.0955 -0.0373 -0.0727
13586W        W56499   9.667   7.734   8.526 -0.0845  0.2429 -0.0529
13587W        W56500  16.460   9.493  29.315  0.1717  0.5079  0.1584
13588W        W56501  15.823  19.988   0.681 -0.0730  0.0868 -0.0775
13589W        W56502   6.878  21.776  21.436 -0.0239  0.0635 -0.0372
13590W        W56503  17.896  15.053   2.213  0.0854  0.1282 -0.1310
13591W        W56504  18.589  16.173   0.430  0.0575 -0.2671  0.0927
13592W        W56505  22.224  27.600   2.032  0.0322  0.5188  0.0477
13593W        W56506   8.129   6.358   0.067 -0.0806 -0.3785 -0.3466
13594W        W56507  16.645  17.941  24.076 -0.2598  0.1359 -0.2871
13595W        W56508  16.583  17.420   7.528 -0.2896 -0.0134 -0.1085
13596W        W56509  20.199  10.069  29.570 -0.1329 -0.0888  0.1118
13597W        W56510   1.586  20.390   2.199 -0.3720  0.2877 -0.0591
13598W        W56511  18.939  18.817   7.651 -0.0588  0.0127 -0.0874
13599W        W56512  21.016  21.722   7.973 -0.0900 -0.0950  0.2645
13600W        W56513  18.563  15.906   5.201  0.1874  0.2170 -0.1645
13601W        W56514  22.093  14.221   2.815 -0.0075  0.0459 -0.2258
13602W        W56515  22.520   5.282   7.899  0.0721  0.0304  0.3588
13603W        W56516  13.768  15.801   8.620 -0.2531 -0.1194 -0.1620
13604W        W56517  23.928  17.106   8.397 -0.3323  0.3007 -0.0230
13605W        W56518  17.268  13.320   7.603  0.0041 -0.3837  0.1319
13606W        W56519  24.656   6.134   6.857 -0.1541 -0.0265  0.0131
13607W        W56520  16.052  18.509  28.666 -0.2262  0.0315 -0.1707
13608W        W56521   5.774   7.170  11.285  0.1370 -0.2921  0.2810
13609W        W56522  26.993   4.935  29.132  0.1633 -0.2471 -0.1778
13610W        W56523  27.804  19.332   4.367 -0.1345 -0.0566 -0.1911
13611W        W56524  14.472  17.819   0.024  0.0632 -0.1148  0.0534
13612W        W56525  28.775   6.949   0.943 -0.2289 -0.0744  0.2838
13613W        W56526  22.352  17.816   8.776 -0.3068 -0.0615 -0.1351
13614W        W56527  23.983  13.338   8.132 -0.0701 -0.1945 -0.0179
13615W        W56528  20.832  17.498  22.824  0.1015  0.0418 -0.0303
13616W        W56529  11.256  22.896   7.538 -0.4880 -0.1638 -0.2188
13617W        W56530  17.961  13.213   0.429  0.0087 -0.1204  0.1396
13618W        W56531  20.114  22.085   5.965  0.1136 -0.1175 -0.1836
13619W        W56532  17.120  18.765   3.064 -0.0590  0.0483 -0.0376
13620W        W56533  11.298   7.994   7.367  0.2803 -0.0424  0.0571
13621W        W56534  17.483   7.800  27.750 -0.0949 -0.0048  0.2191
13622W        W56535  30.035  13.978   8.582 -0.0357  0.0748  0.1383
13623W        W56536  18.159  23.325   7.554 -0.3056  0.0491  0.1256
13624W        W56537  24.029  13.395   4.600  0.0434 -0.1887  0.0722
13625W        W56538  20.377  12.970   9.080  0.0164 -0.1654 -0.2316
13626W        W56539  24.357  10.382   1.298 -0.0910  0.1648 -0.0053
13627W        W56540  24.950  10.655   1.824  0.2331 -0.1369 -0.1350
13628W        W56541  25.014  11.041   7.829  0.1859  0.3056 -0.2967
13629W        W56542  18.990  10.458   5.492  0.1232 -0.0487  0.1507
13630W        W56543  10.130  19.283  28.319  0.2167 -0.0578 -0.0839
13631W        W56544  20.261  17.603  29.174  0.3206  0.0262 -0.0197
13632W        W56545  13.461  21.652   7.413 -0.1836 -0.0665 -0.0426
13633W        W56546  29.609  19.865   5.193 -0.1097  0.0720  0.0287
13634W        W56547   6.766  10.858   3.637  0.1480 -0.1409  0.3058
13635W        W56548  14.592  24.892   5.975  0.0648  0.0670  0.3123
13636W        W56549  23.981  25.740   6.550 -0.0629  0.0210 -0.1077
13637W        W56550  23.724  14.476  26.102 -0.0227  0.1747  0.0580
13638W        W56551  20.183  25.951   8.163  0.2679 -0.0127  0.2157
13639W        W56552  21.806   9.829  29.770 -0.5100 -0.0548  0.2481
13640W        W56553  24.037  13.584   5.389 -0.1273  0.2308  0.0685
13641W        W56554  13.529  11.170  26.941  0.0562 -0.1532  0.1636
13642W        W56555  24.003  12.601   7.261 -0.2754 -0.2508 -0.1361
13643W        W56556  19.951  12.052  28.243 -0.2471 -0.4537 -0.0995
13644W        W56557   0.182   6.872   5.304 -0.0534  0.0447  0.3895
13645W        W56558  22.964  18.633  27.443  0.1294 -0.3228  0.2676
13646W        W56559  17.742  17.112   3.535 -0.4382  0.1780 -0.0864
13647W        W56560  23.094  19.404  26.796 -0.1294  0.0451 -0.1286
13648W        W56561  23.813   7.840   6.774 -0.2571 -0.2428 -0.0392
13649W        W56562   7.208  22.129   4.626  0.0904 -0.1272  0.1550
13650W        W56563  14.793  23.612  21.068 -0.5017  0.1611 -0.0428
13651W        W56564  17.670   9.767   6.791 -0.0527 -0.3448  0.2822
13652W        W56565  28.971  15.044   6.801 -0.0376 -0.4799 -0.0278
13653W        W56566  17.350  19.105  24.562 -0.0403  0.1790 -0.3821
13654W        W56567  17.677  15.468  27.274  0.1383  0.0973  0.2711
13655W        W56568  16.559  17.391   5.144  0.2213  0.2879 -0.1042
13656W        W56569  15.421   3.886  10.236 -0.1165  0.5016  0.3042
13657W        W56570  25.780  26.121   5.582 -0.1237  0.0477 -0.1443
13658W        W56571  18.851  22.589  22.863  0.0085 -0.0890 -0.0120
13659W        W56572  18.573  10.963   5.491  0.4414 -0.2730  0.1200
13660W        W56573  20.127  31.296  27.280  0.1203 -0.1216  0.0723
13661W        W56574  15.721  21.229   0.814  0.0057  0.0302  0.0313
13662W        W56575  27.676  26.297   6.680  0.0772 -0.2006  0.0818
13663W        W56576  18.476  10.671   2.893  0.2338 -0.0725 -0.1712
13664W        W56577  20.707   7.147   3.852 -0.0327 -0.2365 -0.0609
13665W        W56578  15.566  15.050  26.418  0.0177 -0.1465 -0.2876
13666W        W56579  27.164  16.782   1.265  0.2587  0.1497  0.1668
13667W        W56580  25.727   7.002   9.972 -0.0776  0.1140 -0.3702
13668W        W56581  13.714  18.769   4.824 -0.1596  0.0392  0.0940
13669W        W56582  17.239   5.018   3.389 -0.0449  0.1570 -0.0033
13670W        W56583   2.692  17.407   2.350  0.1214 -0.3197 -0.1012
13671W        W56584  17.525  29.389   5.968  0.1120  0.0446  0.0970
13672W        W56585  22.373  23.947   3.631  0.0200  0.1211 -0.1829
13673W        W56586  12.123  23.028   0.428 -0.1289  0.1033  0.2773
13674W        W56587  16.024  15.147   0.887  0.0584  0.1488  0.1103
13675W        W56588  19.090  10.703   3.241 -0.2069 -0.1313 -0.1165
13676W        W56589  23.928   0.821   8.809 -0.1324 -0.2586  0.1432
13677W        W56590  19.583  13.215   1.743 -0.0734  0.0462 -0.2111
13678W        W56591   7.823  21.233   4.844  0.1599 -0.0717 -0.0844
13679W        W56592  15.179  20.907   0.105 -0.2258  0.2274  0.0053
13680W        W56593  23.222  14.623   2.063 -0.0226 -0.0319 -0.1380
13681W        W56594  23.289  11.808   4.057  0.1141 -0.0731 -0.1066
13682W        W56595  25.094  15.352   5.298 -0.0916 -0.0628 -0.2953
13683W        W56596  12.072  28.659   7.569  0.0593  0.3833  0.0343
13684W        W56597  16.750  14.569   3.161  0.0607 -0.1548 -0.1798
13685W        W56598  20.300  28.639   7.722 -0.1122 -0.0320 -0.2583
13686W        W56599  26.168  11.196   3.046 -0.0794  0.1464 -0.2233
13687W        W56600  19.872   9.350  23.311  0.2961  0.0996 -0.2480
13688W        W56601  33.650  14.015   3.743  0.0471  0.2406 -0.3723
13689W        W56602  22.472   9.552  23.384 -0.3684 -0.0129  0.3078
13690W        W56603  15.304  13.245  20.031 -0.3028  0.1456 -0.0484
13691W        W56604  25.790  21.543   6.043  0.1290  0.2235 -0.1362
13692W        W56605  22.384   4.503   6.343  0.0575 -0.0217 -0.3587
13693W        W56606  17.937  16.365   8.371  0.0415  0.4151 -0.2612
13694W        W56607  21.588  11.240  22.879  0.1064 -0.1149 -0.0543
13695W        W56608  27.977  12.161  17.986  0.0273 -0.3244 -0.1386
13696W        W56609  24.666  13.452   7.349 -0.1016 -0.3169 -0.1637
13697W        W56610  19.659  19.198   6.700 -0.2275 -0.1978  0.1966
13698W        W56611  18.871  11.753  24.119 -0.0996  0.0344 -0.0299
13699W        W56612  23.916  10.249   0.098 -0.2449  0.0859 -0.2814
13700W        W56613  19.744  12.276  23.777  0.0294 -0.0787 -0.3464
13701W        W56614  20.195  30.640   7.703 -0.4975  0.1536 -0.0739
13702W        W56615  18.504  19.195   5.495  0.3182  0.0487 -0.2173
13703W        W56616  28.820  14.695   9.441  0.1425  0.2970 -0.0059
13704W        W56617  28.217  16.467   8.984 -0.1666  0.0027 -0.3260
13705W        W56618  18.924  15.629   7.601 -0.0261 -0.0156  0.1005
13706W        W56619  17.663  19.071   5.996 -0.1094 -0.1167  0.1594
13707W        W56620  16.652  15.253  29.420 -0.1297 -0.1603 -0.0499
13708W        W56621  23.461  18.003  27.495 -0.1649 -0.0026 -0.0872
13709W        W56622  14.808  17.940  24.374  0.4865  0.0145 -0.0226
13710W        W56623  16.897  21.984  27.039 -0.2501 -0.2497  0.2715
13711W        W56624  17.059  21.504   5.180 -0.1499 -0.0010 -0.0962
13712W        W56625   6.678  12.355   8.980 -0.4340 -0.1748 -0.1280
13713W        W56626  14.311  16.600   2.461  0.2254 -0.0272 -0.1559
13714W        W56627  10.134  17.642   9.374 -0.0776  0.0424 -0.3653
13715W        W56628  18.421  22.649   4.203 -0.0307 -0.0745  0.3528
13716W        W56629  18.014  10.023  27.318  0.0471 -0.1647  0.3779
13717W        W56630  24.164  23.206   5.325  0.0299  0.1083 -0.1772
13718W        W56631  24.649  21.684   3.151 -0.1232 -0.0044 -0.0586
13719W        W56632  17.005  11.822   2.636 -0.1156  0.0019  0.0709
13720W        W56633  15.329  32.766   4.305 -0.0042 -0.1832 -0.1299
13721W        W56634  12.607  18.683  28.687  0.1256 -0.2319  0.2169
13722W        W56635  22.962  25.155   5.893 -0.0592  0.0648  0.3006
13723W        W56636  11.910  15.393   7.997 -0.0382 -0.2381 -0.3049
13724W        W56637  21.267   9.971   6.189  0.0161 -0.3698  0.4273
13725W        W56638   5.761  15.983   4.803  0.0315  0.0381 -0.1633
13726W        W56639  14.985   8.372   1.614  0.3892 -0.1356 -0.1591
13727W        W56640  30.329  13.985   7.561 -0.2082 -0.0576 -0.1019
13728W        W56641  16.161  12.989   5.981  0.3558 -0.1623 -0.0538
13729W        W56642  28.607  12.249   4.866  0.4227 -0.3197 -0.2891
13730W        W56643  16.226  17.302  24.673 -0.1111  0.2245  0.3564
13731W        W56644  13.808  26.692   6.252 -0.4317 -0.0915  0.0106
13732W        W56645  13.784  16.751   9.112 -0.0636 -0.1812 -0.2135
13733W        W56646   1.077   9.080  22.678  0.1416 -0.3434  0.3172
13734W        W56647  20.145  17.095   1.856  0.3607  0.0890  0.0256
13735W        W56648  30.042  13.389   2.477  0.1576 -0.2389  0.0371
13736W        W56649  18.696  27.453   1.497  0.1223  0.0789 -0.4425
13737W        W56650  29.422   7.838   5.034 -0.1678  0.0459 -0.2416
13738W        W56651  18.824  17.786   0.688  0.1102 -0.0080  0.1666
13739W        W56652  17.184  18.343   7.218 -0.0241 -0.2789 -0.0774
13740W        W56653  22.048   9.917   3.937  0.0696 -0.0157 -0.2625
13741W        W56654  18.981  15.179   2.396 -0.2431  0.1376 -0.0318
13742W        W56655  23.605  15.450   8.517  0.1512  0.0343 -0.0561
13743W        W56656  19.011   9.506   6.504  0.0637  0.1328 -0.0178
13744W        W56657  16.295  23.666   5.360 -0.0938 -0.0854  0.2516
13745W        W56658  15.864  11.706   0.481 -0.1419 -0.3708 -0.1347
13746W        W56659  17.747  14.675  22.068 -0.2247 -0.0595  0.1184
13747W        W56660  25.894   6.685   9.117  0.1315 -0.1695 -0.0497
13748W        W56661  21.687  13.475   9.053  0.2652  0.4192 -0.0768
13749W        W56662  20.816  12.212   7.745  0.0496 -0.1493  0.1027
13750W        W56663  18.546  21.214   7.491  0.2700  0.0412 -0.2132
13751W        W56664  27.383  20.268   8.044  0.1838 -0.0394 -0.2999
13752W        W56665  24.837  22.873   5.776 -0.1325  0.1079  0.1069
13753W        W56666  19.976  25.056   4.274  0.0952  0.1928  0.0604
13754W        W56667  17.032  27.635   7.801  0.4144 -0.2983  0.4125
13755W        W56668  13.938   8.567  26.761 -0.1445 -0.2439 -0.2207
13756W        W56669  11.496  16.902   0.859 -0.4058 -0.1193 -0.0065
13757W        W56670   7.331  13.677  25.499 -0.1718 -0.0458  0.2971
13758W        W56671  14.529  11.530   2.810  0.1309 -0.0027  0.0682
13759W        W56672  17.647  27.659   8.055 -0.2723  0.0333  0.4593
13760W        W56673  30.150   8.808  11.246 -0.0160  0.0878  0.1569
13761W        W56674  27.070  17.096  29.340 -0.1059  0.2526 -0.0102
13762W        W56675  11.156  14.097  27.652  0.0646  0.0405 -0.4382
13763W        W56676   5.391  22.465   8.190 -0.2929 -0.1763 -0.0270
13764W        W56677  20.146  21.875   8.195 -0.0597  0.0859 -0.0762
13765W        W56678  21.900  13.510   8.543 -0.1094  0.0656  0.1493
13766W        W56679  29.808  13.738   2.707 -0.1431  0.0388 -0.0746
13767W        W56680   8.800  10.626   2.803  0.1750  0.2647 -0.1022
13768W        W56681  19.360  21.504   2.456 -0.0231  0.4642  0.1888
13769W        W56682   4.909  11.343   2.604 -0.0510  0.0897 -0.0238
13770W        W56683  16.252  24.440   1.020  0.0278 -0.0534  0.2025
13771W        W56684  16.669  10.849   5.659  0.2609  0.0285 -0.1248
13772W        W56685  16.429   4.757  10.610 -0.1163  0.1651 -0.1293
13773W        W56686  13.605  19.386   2.236 -0.1158 -0.0274  0.1926
13774W        W56687  23.206  15.451   9.359 -0.0022  0.2162  0.0807
13775W        W56688  19.102  10.794  22.732 -0.1138 -0.4023 -0.2381
13776W        W56689  14.449  21.122   9.440 -0.0179  0.1290  0.1294
13777W        W56690   4.013  31.350  25.303 -0.3050  0.0309  0.2420
13778W        W56691  15.243   5.386   1.601 -0.1484 -0.0767 -0.3470
13779W        W56692  29.571  18.058   5.510 -0.0802  0.1295  0.0393
13780W        W56693  26.029   5.663   7.737  0.0616  0.1318  0.0799
13781W        W56694  16.715  16.746   5.658 -0.0145  0.1767  0.0541
13782W        W56695  20.317  16.580   3.949 -0.1831  0.1823 -0.3478
13783W        W56696  14.826  14.921   6.019 -0.1329  0.1844  0.1170
13784W        W56697  20.209  18.238   5.982 -0.1049 -0.0005  0.1343
13785W        W56698  15.369  12.680   8.844  0.0114  0.1409  0.1067
13786W        W56699  14.175   6.385   9.000  0.0827  0.0591 -0.1551
13787W        W56700  22.208  21.158   2.250  0.2638 -0.0496 -0.1008
13788W        W56701  23.412  13.147   2.802 -0.1717 -0.0240 -0.3287
13789W        W56702  10.424   8.649  29.648  0.0581 -0.3945  0.0447
13790W        W56703  24.827  18.145   6.476 -0.3814  0.1323  0.0701
13791W        W56704  18.375  10.240   5.559 -0.0225  0.1759 -0.2587
13792W        W56705  19.530   6.498   9.357 -0.2206 -0.0398  0.1044
13793W        W56706  16.325   5.903  27.428  0.1040  0.1314  0.3374
13794W        W56707  20.885  12.903  28.710 -0.1681 -0.1183  0.1478
13795W        W56708  16.867  18.952   6.467 -0.0933 -0.1962  0.0237
13796W        W56709  18.846  12.925   7.285 -0.2648  0.2676  0.3673
13797W        W56710  26.586  19.833   7.027 -0.0174 -0.2163 -0.2621
13798W        W56711  12.656  16.952   7.501  0.1043  0.0168  0.1006
13799W        W56712  14.798  16.690  29.762 -0.2324  0.0625 -0.0580
13800W        W56713  24.183   8.435  28.089 -0.2317  0.2282  0.2424
13801W        W56714  26.200   8.053   0.017  0.2113  0.0728  0.2569
13802W        W56715  26.740  19.904  26.726 -0.1034 -0.0564  0.0087
13803W        W56716  20.450   8.998  27.410  0.0321  0.1658  0.2438
13804W        W56717  11.503  18.580  29.356 -0.3441  0.0981  0.2610
13805W        W56718  18.268  12.344   4.311 -0.0678 -0.3424 -0.1848
13806W        W56719  27.397  19.784   2.623 -0.1733  0.2504  0.0350
13807W        W56720  11.518   9.381   8.313 -0.0544 -0.0465  0.0486
13808W        W56721  31.349  14.629   6.968  0.0125  0.1440  0.0080
13809W        W56722   8.689  16.301   1.490 -0.1578 -0.0628  0.2740
13810W        W56723  10.912  21.910   4.379 -0.0545 -0.2028 -0.2041
13811W        W56724  20.411  10.710   0.635  0.0025 -0.0673  0.0514
13812W        W56725   8.281  10.867   6.784 -0.0256  0.2848 -0.0223
13813W        W56726   6.027  19.992   9.397  0.1301  0.2403  0.2773
13814W        W56727  14.879   9.314  28.140 -0.0871 -0.0698 -0.3033
13815W        W56728  34.173  11.427   2.956  0.2830 -0.2214 -0.0513
13816W        W56729  15.902   6.260   9.202 -0.0467 -0.2764  0.1299
13817W        W56730   8.405  14.903   2.637  0.2338  0.2191 -0.2436
13818W        W56731  12.492  17.766   3.731 -0.1251  0.1117  0.0957
13819W        W56732  16.529   5.005   5.940  0.0467 -0.1144  0.1321
13820W        W56733  16.323  21.175  26.442  0.1286 -0.0548 -0.0300
13821W        W56734  16.282  13.645   0.598 -0.1275  0.3938  0.1260
13822W        W56735  16.412  27.316   1.901  0.3727  0.0826  0.0512
13823W        W56736  17.769  18.762  29.635  0.1296  0.1884  0.1663
13824W        W56737  21.988  30.934   6.525 -0.1883  0.4183 -0.1263
13825W        W56738  16.866  20.889   3.863 -0.0302  0.2042  0.0174
13826W        W56739  18.058  11.818   8.396 -0.0642  0.2955 -0.1445
13827W        W56740  16.300  10.472   8.376  0.2044 -0.1671 -0.0536
13828W        W56741  16.262  12.637   8.425  0.3571 -0.0889 -0.0041
13829W        W56742  19.481  17.538  26.261  0.1447  0.0374  0.0643
13830W        W56743  26.580  12.632  28.891 -0.0931  0.1252  0.0631
13831W        W56744  24.871  24.412   5.619 -0.1544 -0.1026  0.1358
13832W        W56745  27.558  14.186   7.551  0.0246  0.0290 -0.0012
13833W        W56746   3.373  22.914  10.485 -0.0649  0.0977  0.1367
13834W        W56747  22.917   8.646   6.685  0.2785  0.1571  0.2689
13835W        W56748  25.436  10.373   9.274  0.0924 -0.3484  0.0460
13836W        W56749  21.122  24.508   8.269 -0.0408  0.3101 -0.0317
13837W        W56750  13.256  16.912   8.352 -0.1282 -0.0311  0.0136
13838W        W56751  26.412  21.095   3.847  0.2898 -0.2708 -0.1601
13839W        W56752  12.324   7.552   4.325  0.0785  0.1191  0.0446
13840W        W56753  15.592  33.464   5.063 -0.2178 -0.0481 -0.2143
13841W        W56754  18.966  16.118   1.481 -0.0617  0.0581 -0.1111
13842W        W56755  23.267  16.727   4.861  0.0629 -0.4146  0.1294
13843W        W56756  17.927  14.739   1.602  0.1757 -0.0265 -0.2270
13844W        W56757  31.016   9.340   3.838  0.1642 -0.1910 -0.0676
13845W        W56758   9.432  10.951   9.857 -0.2955 -0.1515  0.0859
13846W        W56759  16.852   4.473   7.098 -0.2269  0.0948  0.1844
13847W        W56760  26.388  18.478   9.384 -0.1549  0.2747 -0.2371
13848W        W56761   9.949  20.100   8.037  0.0340  0.0066  0.0592
13849W        W56762  14.556  19.217  28.242 -0.1389 -0.2532  0.1043
13850W        W56763  14.015  19.888   7.366 -0.3106 -0.3478  0.1401
13851W        W56764  15.639  18.168  28.085 -0.5126 -0.0755  0.2073
13852W        W56765  13.858   6.452   7.328 -0.1025 -0.2538  0.0463
13853W        W56766  13.207  20.048  27.990  0.0458 -0.0073  0.0777
13854W        W56767  23.484   5.958   3.532  0.1812 -0.3178  0.0158
13855W        W56768  19.139  11.900  25.606 -0.0465 -0.1541  0.1334
13856W        W56769  26.258  16.348   6.095 -0.0210 -0.0660  0.4776
13857W        W56770  21.243  14.354   5.510  0.0844  0.1390  0.0743
13858W        W56771  13.320  17.229  29.694  0.2281 -0.2148 -0.0710
13859W        W56772  15.910  13.775   4.471  0.1601 -0.0848 -0.2688
13860W        W56773  24.576  15.842   5.994  0.0786 -0.1919  0.1611
13861W        W56774  30.155  12.439   1.562 -0.0181 -0.0820  0.3308
13862W        W56775  15.846  28.306  29.069  0.1041  0.0257  0.0352
13863W        W56776  17.491   9.257   6.059 -0.2077 -0.0442 -0.0420
13864W        W56777  14.279  11.111   7.388  0.0192  0.0528  0.0013
13865W        W56778  15.842  21.347   2.837  0.0514  0.3765  0.2734
13866W        W56779  19.608   7.818   3.400  0.2411 -0.1940 -0.2965
13867W        W56780  16.717  20.370   1.949  0.3119 -0.0493  0.0817
13868W        W56781  16.982   4.165  23.801 -0.0099 -0.0369 -0.2004
13869W        W56782  28.299   7.156   5.013  0.0896 -0.2483 -0.0751
13870W        W56783  15.166  16.673   5.748  0.0813  0.1371  0.3287
13871W        W56784  19.405  20.133   7.825  0.0070 -0.3092 -0.1399
13872W        W56785  27.193  12.523   5.159 -0.1959 -0.2275  0.2383
13873W        W56786  14.199  18.927   7.798  0.0190  0.0992  0.1722
13874W        W56787  31.053  23.296  27.873 -0.0807 -0.0581  0.2434
13875W        W56788  18.206  10.554   8.880 -0.2447  0.1870  0.3427
13876W        W56789  15.425   4.294   8.037  0.1356  0.2019 -0.2044
13877W        W56790   5.973  10.903  27.776 -0.0633 -0.1270 -0.1155
13878W        W56791  30.548  21.094  25.724 -0.1819  0.0158 -0.0294
13879W        W56792  11.368  14.559   7.693  0.1446  0.1599  0.1521
13880W        W56793  18.998   8.389   9.603  0.2952 -0.0348  0.1176
13881W        W56794  11.673   3.564   8.368  0.0848  0.0971  0.0455
13882W        W56795  28.111   8.342   1.415 -0.1859  0.0838 -0.2375
13883W        W56796  29.546  13.166   2.316  0.1566 -0.2942 -0.0886
13884W        W56797  14.242  16.754   6.575  0.0518 -0.1435  0.1067
13885W        W56798  18.693  11.887   1.760 -0.1370 -0.1121  0.2617
13886W        W56799  18.249  20.404   8.252 -0.2017  0.1038 -0.1970
13887W        W56800  13.991  20.034   4.292 -0.2213  0.1244  0.0844
13888W        W56801  23.260  14.656   7.239 -0.1779 -0.0193 -0.0829
13889W        W56802   3.003  10.293  10.770  0.1325  0.0669  0.0775
13890W        W56803  30.213  24.564  10.273 -0.2181 -0.1581  0.0221
13891W        W56804  15.481   9.573   0.517  0.0172 -0.1455 -0.0553
13892W        W56805  19.990   6.326   9.412  0.1738 -0.0681  0.2164
13893W        W56806  27.342  17.436   8.579  0.0442 -0.2687  0.0427
13894W        W56807  21.592  13.880   8.473 -0.0462  0.0866 -0.0034
13895W        W56808  16.733  18.183  29.493 -0.0460 -0.0916  0.2076
13896W        W56809  24.276  15.576   8.104  0.0320 -0.0569 -0.0742
13897W        W56810  16.850  26.331   2.179 -0.0365 -0.0102 -0.2537
13898W        W56811  18.425  13.809   8.485 -0.1765 -0.2040  0.0571
13899W        W56812  20.186   6.532   7.615 -0.1826  0.0894 -0.0517
13900W        W56813  22.596  11.128   5.612 -0.2438 -0.0265 -0.1560
13901W        W56814  25.839  10.218   9.620 -0.1720 -0.2805 -0.1593
13902W        W56815  10.514  20.574   1.765  0.0408 -0.0377 -0.0171
13903W        W56816  13.921  12.525   7.639  0.1575  0.3992 -0.0752
13904W        W56817   8.049  15.110  10.493  0.0618  0.0668 -0.0354
13905W        W56818  27.862  18.439   8.505 -0.1668 -0.0765 -0.2929
13906W        W56819  14.413  13.995  27.568  0.2580 -0.0442 -0.3163
13907W        W56820   3.273  12.604   0.608  0.0431 -0.1372 -0.0069
13908W        W56821  24.991  10.139   8.010  0.1816  0.0730 -0.0087
13909W        W56822   8.316  22.554   5.038  0.1826  0.0350  0.1400
13910W        W56823  14.314  21.862   7.927  0.1308  0.0260 -0.1461
13911W        W56824  18.403   7.223   9.504  0.0436 -0.0819 -0.1914
13912W        W56825  22.866  17.889   5.023  0.1520  0.0602 -0.0892
13913W        W56826  31.050  20.005   5.058  0.1446  0.2761 -0.1164
13914W        W56827  19.562  19.864  20.476 -0.1491  0.2958  0.1279
13915W        W56828  27.287  26.486   7.037  0.2885  0.2479 -0.1996
13916W        W56829  18.378  10.918   4.858 -0.2841  0.4106 -0.1109
13917W        W56830  24.978   9.238   5.817 -0.1718 -0.1891  0.3103
13918W        W56831  23.170  17.774   8.512  0.0001  0.2975 -0.0904
13919W        W56832   0.219  32.128  10.015  0.1229  0.1764 -0.2250
13920W        W56833  19.259  11.611   5.036 -0.2278 -0.0877  0.3420
13921W        W56834  22.870   0.136  27.965  0.0479 -0.1618  0.0538
13922W        W56835  21.375  14.803   0.941  0.0824 -0.2225 -0.0698
13923W        W56836   8.150  20.028   6.965  0.0719 -0.1591 -0.4182
13924W        W56837  29.127   3.690   2.210 -0.3566  0.1048  0.1532
13925W        W56838  23.299  18.518   5.325  0.0030  0.0505 -0.1226
13926W        W56839  28.485   8.038   3.960  0.0118 -0.0769  0.0926
13927W        W56840  13.321  30.418  18.925 -0.2197 -0.2270 -0.2459
13928W        W56841  17.123  10.644   0.201  0.2203  0.2442 -0.1222
13929W        W56842  25.844  18.639  26.938 -0.1444  0.2521 -0.1564
13930W        W56843  28.363  18.880   9.326 -0.1152 -0.0483  0.3869
13931W        W56844  20.926   7.380   5.361 -0.0588 -0.0218  0.0389
13932W        W56845  17.042   3.109   0.127  0.0307  0.0546 -0.0842
13933W        W56846  21.746  13.629   4.610 -0.2031 -0.0468  0.1318
13934W        W56847  23.928   1.476   6.307 -0.0278  0.2031  0.0830
13935W        W56848   2.044   2.981   7.904 -0.1296 -0.2272  0.1269
13936W        W56849  12.240  24.648   3.488 -0.1121 -0.0090  0.1877
13937W        W56850   8.228  19.626   2.655 -0.3659  0.0908 -0.0069
13938W        W56851  20.294  20.352   6.340 -0.1394  0.0638 -0.0616
13939W        W56852  21.985  19.018   7.083 -0.1609  0.0701  0.0817
13940W        W56853  31.719  20.046  26.982 -0.3298  0.0716  0.2751
13941W        W56854  27.912  13.526   3.149 -0.2094 -0.1420  0.3941
13942W        W56855  14.409  17.743   5.160  0.0336  0.0116 -0.1779
13943W        W56856  17.858  17.716   6.171 -0.0918 -0.0773 -0.2598
13944W        W56857  22.803  19.801   5.800  0.2455  0.2726  0.1926
13945W        W56858  12.410   7.911   0.010  0.3435 -0.1531 -0.0301
13946W        W56859  16.445  23.175   7.562 -0.1343 -0.0530 -0.0832
13947W        W56860  28.873  18.039   8.664 -0.0525 -0.0369 -0.3195
13948W        W56861  17.842  12.082   7.872  0.0506 -0.1972  0.2586
13949W        W56862  24.727  22.759   1.174  0.3261  0.3096  0.3323
13950W        W56863   8.254  16.077   5.236  0.0051  0.1456 -0.0188
13951W        W56864  23.405  15.129   1.361 -0.2852 -0.0757 -0.2337
13952W        W56865  17.812  16.206   0.426 -0.2446 -0.0638  0.0367
13953W        W56866  17.068  22.720   4.321 -0.0476 -0.2276  0.0556
13954W        W56867  10.153   9.308  10.318  0.3670  0.1858  0.1242
13955W        W56868  12.061  15.694   9.574  0.0660  0.2025 -0.0178
13956W        W56869  15.853  17.880  27.022  0.3337  0.0585  0.0628
13957W        W56870  26.073  14.017  27.336  0.1743 -0.1858  0.4464
13958W        W56871  20.132   8.809   8.003  0.2002  0.2000 -0.0131
13959W        W56872  26.653  12.037   2.244  0.1084  0.4046  0.2770
13960W        W56873  18.698  13.772  25.149 -0.1316  0.0025 -0.1819
13961W        W56874  12.741  18.384   7.289 -0.0397  0.3123 -0.0940
13962W        W56875  16.936  14.636  28.066  0.1175 -0.0736 -0.0559
13963W        W56876  16.437   2.760   8.051  0.1161 -0.3660 -0.0189
13964W        W56877  15.754  27.679  27.169 -0.2315 -0.0196  0.1992
13965W        W56878  18.162  19.637   1.670 -0.0080  0.0126 -0.0650
13966W        W56879  30.064  17.369   8.861 -0.0604  0.2118 -0.1483
13967W        W56880  27.442  21.657  29.604  0.0380 -0.1328  0.0428
13968W        W56881  26.352  11.065   9.695 -0.0491 -0.1549  0.1990
13969W        W56882  12.829  16.504   6.786  0.0583  0.2682  0.2093
13970W        W56883  20.572   3.481   8.890 -0.0310  0.0901 -0.0370
13971W        W56884   0.023  13.218  27.133  0.2640 -0.0041  0.0508
13972W        W56885  11.839  15.211   7.264  0.0202  0.0029  0.1231
13973W        W56886  26.190  29.700   6.981 -0.1174 -0.0497  0.0073
13974W        W56887  17.785  23.943   7.996  0.4640  0.3432  0.2863
13975W        W56888  14.911  21.069   2.979  0.0500 -0.3774 -0.0376
13976W        W56889  12.513  21.584   8.818  0.1689  0.0526  0.3110
13977W        W56890  14.036  23.274   7.883 -0.1507  0.0219 -0.2054
13978W        W56891  16.499  21.087   4.257 -0.0511 -0.0150 -0.2487
13979W        W56892  18.099  17.543  25.795 -0.2045 -0.0806 -0.2305
13980W        W56893  12.381  18.819   6.537  0.1132 -0.1029  0.1278
13981W        W56894  15.393  25.472   7.054 -0.2162  0.1607 -0.1020
13982W        W56895  32.275   8.954   7.252  0.3309 -0.1560 -0.1822
13983W        W56896  18.322  11.417   8.636 -0.1562  0.0443  0.1081
13984W        W56897  16.917  17.212   5.460 -0.0889 -0.1005 -0.1067
13985W        W56898  10.792   5.892  12.127  0.1700  0.2716  0.1665
13986W        W56899  11.092   5.592   0.986 -0.2560 -0.0122 -0.3922
13987W        W56900  19.079  18.094   2.121  0.1719  0.2379 -0.1653
13988W        W56901  15.607  15.554  26.561 -0.1143 -0.0536  0.1529
13989W        W56902  19.571  14.608   7.239  0.0706  0.3443 -0.1135
13990W        W56903   2.625   5.937   8.120 -0.2290 -0.2355 -0.1245
13991W        W56904  19.571  15.142   8.901  0.0538  0.1455 -0.0755
13992W        W56905  16.283  15.527   5.402  0.2324  0.1046  0.1562
13993W        W56906  12.442  26.875   9.128 -0.0071 -0.2728  0.0369
13994W        W56907  14.365  18.597   4.212 -0.2467 -0.0821 -0.4343
13995W        W56908   7.025   9.328  27.376 -0.0125  0.1944  0.1719
13996W        W56909  15.526  34.197   4.271  0.0453  0.2324  0.1802
13997W        W56910  23.094   9.436   5.160 -0.3263 -0.0754  0.0461
13998W        W56911  12.348  27.708  27.228 -0.0857  0.3628 -0.0016
13999W        W56912  13.632  22.197   5.107 -0.3857  0.4948 -0.2561
14000W        W56913  14.796  16.384   4.282  0.0150  0.0227 -0.1288
14001W        W56914  23.427   8.877   2.637 -0.0586  0.0341 -0.0031
14002W        W56915  15.388  20.791  26.472  0.0972 -0.0465 -0.1520
14003W        W56916  25.792   3.663   6.288  0.2798  0.0932 -0.0263
14004W        W56917  21.172  19.601   7.719  0.1726  0.4106 -0.4795
14005W        W56918  15.632  11.139   8.320 -0.3175 -0.0561 -0.0012
14006W        W56919  13.356   6.260  28.998  0.0351  0.1997  0.0229
14007W        W56920  19.818  14.561   6.424 -0.4171  0.2905  0.1066
14008W        W56921  19.819   4.104   8.527 -0.2084 -0.1648  0.1185
14009W        W56922  13.441  12.170  29.244  0.1092  0.2234  0.1434
14010W        W56923  28.464  17.065   3.941 -0.3112 -0.0104 -0.1402
14011W        W56924  17.149  18.338   3.841 -0.0900  0.2586  0.0533
14012W        W56925  22.370  26.975   4.569 -0.2533  0.1779  0.2862
14013W        W56926  27.242  13.399   9.942  0.0471  0.1281 -0.1085
14014W        W56927  19.237  13.860   9.328 -0.1773 -0.0936  0.1489
14015W        W56928  13.246   3.749   1.730 -0.1583  0.0932 -0.1882
14016W        W56929  33.966   0.048  27.941  0.1301 -0.0081  0.1656
14017W        W56930  23.099   5.933   2.733 -0.0920  0.1826  0.0924
14018W        W56931  13.944  23.764  29.281  0.1199 -0.0077  0.1694
14019W        W56932   7.798  33.537   5.126 -0.1015 -0.1115 -0.0776
14020W        W56933   9.714  17.838   5.367 -0.0197 -0.0868  0.1333
14021W        W56934  19.623   1.193   9.710 -0.0161 -0.2294 -0.0483
14022W        W56935  10.364  14.638   5.282  0.0999  0.0321  0.1612
14023W        W56936   6.949  17.046  29.461  0.0608 -0.2472  0.0443
14024W        W56937  13.459   8.382  28.058 -0.0361 -0.0530  0.0409
14025W        W56938  24.961  22.583   5.308  0.4488 -0.0211 -0.0629
14026W        W56939  12.635  16.393  27.672 -0.0988 -0.5747  0.0570
14027W        W56940   5.237  11.120   2.317 -0.1595 -0.1327 -0.1374
14028W        W56941  23.933  11.472   6.422 -0.1306  0.1231  0.0233
14029W        W56942  15.620  18.625   7.701 -0.2231 -0.0078  0.1594
14030W        W56943  18.259  12.715  26.814 -0.0948  0.1468 -0.0702
14031W        W56944  22.277   1.561   6.268  0.1687 -0.2788 -0.0587
14032W        W56945  16.844  10.361   3.956  0.2567 -0.0759  0.1847
14033W        W56946  18.032  33.047   9.489 -0.3289 -0.0417  0.3948
14034W        W56947  10.616   9.393  10.140  0.3633 -0.2872 -0.0040
14035W        W56948   4.194   6.787  12.245 -0.1642 -0.2191 -0.2274
14036W        W56949  26.332  16.966  28.265 -0.0061 -0.0723  0.1462
14037W        W56950  34.479  15.267  29.681 -0.1904 -0.0890 -0.0852
14038W        W56951   6.923  19.682   2.960  0.0959  0.0859 -0.2480
14039W        W56952  21.302  16.031  26.851 -0.2797  0.1140 -0.0633
14040W        W56953  25.822   3.967   9.634  0.1771  0.3404  0.2080
14041W        W56954  11.722   5.819  27.552 -0.2544  0.0423 -0.0495
14042W        W56955  14.876  24.136   2.979  0.1597  0.1650  0.0932
14043W        W56956  19.834  23.987   6.098  0.1486  0.0714 -0.2509
14044W        W56957   9.123  14.679   8.526  0.1855 -0.2345  0.1811
14045W        W56958  22.459  11.301   4.384 -0.1128  0.0816 -0.0268
14046W        W56959  14.570  18.215   1.847  0.1330  0.0698  0.1272
14047W        W56960  15.974  15.909   2.393  0.2584  0.0313  0.2999
14048W        W56961  13.662  14.047   1.553 -0.0944  0.2719 -0.0760
14049W        W56962  18.870  14.482  24.147 -0.0402  0.0693  0.0311
14050W        W56963  15.301  21.386   1.168 -0.1633  0.1075  0.4516
14051W        W56964  23.520   1.945  18.296  0.2837 -0.3460 -0.2570
14052W        W56965  32.556  14.240  10.136  0.1117 -0.1933 -0.0573
14053W        W56966  30.324  19.460   9.517 -0.2545  0.0864  0.1798
14054W        W56967  11.769  18.522   2.554 -0.0787  0.1813  0.2609
14055W        W56968   3.235   6.170  28.855  0.0222 -0.1476  0.1946
14056W        W56969  16.831  32.748  10.594 -0.2013  0.0667 -0.1784
14057W        W56970  12.912   0.759   4.726 -0.2391  0.0048  0.0866
14058W        W56971  19.294  14.668   7.638 -0.0319 -0.1686 -0.1865
14059W        W56972  22.912   9.981   7.855 -0.0282 -0.3018 -0.3887
14060W        W56973  15.300  16.968   4.966  0.1506 -0.1898  0.0085
14061W        W56974  16.487  16.262   3.052 -0.0489 -0.0413  0.1855
14062W        W56975  28.080  11.783   4.135  0.0211 -0.2337 -0.1778
14063W        W56976  20.334  22.948   5.450 -0.1073  0.4864  0.0231
14064W        W56977   9.681  22.435   5.463  0.0230  0.2360 -0.0624
14065W        W56978  20.311  16.987  28.528  0.2424 -0.0091  0.1788
14066W        W56979  18.345  15.097  24.011  0.0538  0.2405 -0.2704
14067W        W56980  10.839   3.535  10.140 -0.0849 -0.0007  0.1320
14068W        W56981  16.492   5.548   7.652 -0.1504  0.0491 -0.2365
14069W        W56982  20.859  14.792   6.707 -0.0526 -0.1457 -0.1001
14070W        W56983  31.253  15.107   2.790  0.1174 -0.1769 -0.0641
14071W        W56984  16.838  13.534   0.424 -0.2323  0.1853  0.0733
14072W        W56985  27.201  13.642   7.339 -0.1059  0.2459 -0.0483
14073W        W56986   2.520  12.430   3.074 -0.1693  0.2213  0.3690
14074W        W56987  27.127  16.243   8.588 -0.4602  0.2959 -0.0748
14075W        W56988  18.722  16.828   5.250  0.3263  0.0647 -0.0521
14076W        W56989  20.503  15.629  21.000 -0.1398 -0.2567  0.1741
14077W        W56990  14.236  23.077   7.458  0.1256  0.3565 -0.1131
14078W        W56991  27.781  26.601   7.075 -0.0710 -0.3447 -0.4564
14079W        W56992  14.368  13.428  23.311  0.1214  0.3343  0.1724
14080W        W56993  15.776  31.066  10.370 -0.1832 -0.2603  0.2800
14081W        W56994  16.661  10.153   1.747 -0.1385  0.0220  0.0133
14082W        W56995  15.531  23.986  25.568 -0.0219 -0.1069 -0.1341
14083W        W56996  18.818  15.900  27.111 -0.0254  0.1083  0.0174
14084W        W56997  14.924  15.484   6.587  0.1024  0.0328 -0.4746
14085W        W56998  18.670  25.435  23.829  0.0799  0.1604  0.3138
14086W        W56999  25.835  22.637   4.659 -0.0452 -0.0138 -0.0975
14087W        W57000  13.398  11.912  26.185 -0.0850  0.0488  0.2033
14088W        W57001  28.069  19.152  23.345 -0.0174 -0.0510 -0.2097
14089W        W57002  22.648  10.414  28.912 -0.1804  0.1748 -0.1140
14090W        W57003  13.522  23.098   8.505  0.0110 -0.2210 -0.1046
14091W        W57004  19.523  13.208   8.628 -0.1021 -0.1836 -0.2628
14092W        W57005  22.547  15.504   2.072  0.0914 -0.2191  0.1343
14093W        W57006  23.294  20.122  20.843  0.1383  0.3492 -0.1955
14094W        W57007  22.254  11.793  21.842  0.0304  0.1394  0.1489
14095W        W57008  19.988   8.903   9.708  0.0152 -0.0758 -0.3865
14096W        W57009  15.187  19.850   0.461 -0.0233 -0.0957  0.2203
14097W        W57010  19.090  20.286   2.603  0.1565  0.2795 -0.0445
14098W        W57011  17.348  11.323  27.001 -0.1992 -0.3423 -0.0988
14099W        W57012  18.120  11.789  26.575  0.0019 -0.4165  0.0952
14100W        W57013  16.768  21.800   2.369 -0.3230  0.0566 -0.0306
14101W        W57014  15.260  24.729  27.009  0.2665  0.1098 -0.1246
14102W        W57015  27.266  16.191   3.454 -0.0252  0.1229  0.0712
14103W        W57016  20.350  19.206  28.553  0.1348 -0.2264  0.0742
14104W        W57017  14.095  18.534  27.520  0.2162 -0.1363 -0.3973
14105W        W57018  21.607  26.520   6.739 -0.0863 -0.4337 -0.2127
14106W        W57019  21.908  17.552  26.601 -0.2775  0.2519  0.3195
14107W        W57020  12.218  20.925  19.426  0.0101 -0.1337  0.1595
14108W        W57021  13.882  22.166   7.922  0.1454  0.1824 -0.0367
14109W        W57022  18.590  18.233   0.766 -0.2991  0.1022  0.1094
14110W        W57023  17.602  21.720  26.445 -0.1984 -0.0693 -0.0112
14111W        W57024  15.678  27.393   3.101  0.0677 -0.0294 -0.0926
14112W        W57025  14.938  26.736  26.650  0.3068 -0.2362  0.1797
14113W        W57026  21.949  17.958   0.782  0.0947  0.3022 -0.0398
14114W        W57027  15.293  13.838  28.925 -0.1991  0.0547  0.3484
14115W        W57028  24.835  23.643   7.998 -0.1840 -0.1290 -0.1403
14116W        W57029  13.570   1.310  28.324 -0.0736  0.1468 -0.1697
14117W        W57030  18.402  25.241  24.166  0.1817  0.2929 -0.0726
14118W        W57031  20.638  20.923   1.107 -0.0410  0.0122  0.1209
14119W        W57032  21.220  22.256   2.779 -0.0030 -0.2740 -0.0930
14120W        W57033  15.394  23.693  13.851  0.0535 -0.0300 -0.1248
14121W        W57034  16.459  24.565  27.604 -0.0446  0.1798 -0.0711
14122W        W57035  16.081  17.748  28.043 -0.3531 -0.3387 -0.0312
14123W        W57036   7.026  23.749  28.075 -0.2118  0.1253  0.2066
14124W        W57037  16.377  30.023   5.160 -0.1698 -0.2997  0.1917
14125W        W57038  18.884   8.869   3.833  0.4829  0.0226 -0.1835
14126W        W57039  16.633  24.863   0.327  0.3104 -0.2252  0.1816
14127W        W57040  21.723  20.034   6.450 -0.3259  0.0960 -0.1345
14128W        W57041  13.113   9.607  29.505 -0.1199 -0.2999 -0.1372
14129W        W57042  12.593  24.380   9.230 -0.4527 -0.0667  0.1273
14130W        W57043  23.487  24.812  25.066 -0.0993 -0.1746  0.1736
14131W        W57044  20.403  18.120   2.843 -0.1134 -0.0547 -0.0476
14132W        W57045   6.479  21.480   6.689 -0.3129 -0.5596  0.2824
14133W        W57046  25.312  23.757  29.074  0.0383  0.0234 -0.1935
14134W        W57047  21.154  18.561   0.633  0.0665  0.2941  0.2527
14135W        W57048  19.403  21.895  25.186 -0.0624  0.2171 -0.2732
14136W        W57049  33.475  15.847  29.756 -0.0380 -0.2130 -0.1281
14137W        W57050  20.322  11.188   2.300  0.1547  0.1592  0.0403
14138W        W57051   7.296  24.694   7.937  0.3043 -0.1883 -0.0563
14139W        W57052  18.868  21.218  28.479 -0.1196  0.0217 -0.0577
14140W        W57053  17.077  15.843   8.161 -0.0293  0.1345 -0.0143
14141W        W57054   6.443  29.463  11.226 -0.0092 -0.0105  0.0046
14142W        W57055  23.638   9.146  24.409 -0.2260 -0.1412 -0.1475
14143W        W57056  30.061  18.295  29.534  0.0172 -0.1873 -0.2266
14144W        W57057  19.110  22.276  27.969 -0.0337  0.0959  0.3438
14145W        W57058  19.957   8.447   4.328  0.5281 -0.0832  0.0790
14146W        W57059  19.625  22.077   8.332 -0.1638  0.2515  0.5655
14147W        W57060   9.074  26.163   5.654  0.3054 -0.0476  0.1226
14148W        W57061  15.533  19.501   6.017 -0.0249 -0.0231 -0.3764
14149W        W57062   7.548  25.582   9.531  0.0622  0.1336  0.1620
14150W        W57063  16.123  18.594  26.760 -0.0508  0.0401  0.3005
14151W        W57064  26.636  14.848  22.228  0.1384 -0.2706  0.0467
14152W        W57065  25.731  18.672   4.895  0.0708 -0.1101  0.1917
14153W        W57066  19.671  13.093   4.754 -0.0986  0.0953  0.2491
14154W        W57067  10.051  24.612   6.639 -0.1643  0.2828  0.0072
14155W        W57068  10.028  26.787   4.702 -0.1777  0.0219  0.2866
14156W        W57069   8.660  18.603   8.990  0.2180  0.1722  0.2603
14157W        W57070  12.006  23.180   3.441  0.0200 -0.1534 -0.2401
14158W        W57071  19.345  22.493   5.707 -0.0415 -0.0390 -0.3621
14159W        W57072   8.425  12.995   8.864  0.3154  0.3558  0.1168
14160W        W57073  20.967  22.673   0.144 -0.0193  0.0062 -0.0912
14161W        W57074  21.592  25.100   9.207 -0.3652  0.0226  0.3654
14162W        W57075  21.926   4.880  28.775 -0.1092  0.0033  0.0244
14163W        W57076  17.478  25.074   3.387  0.0554 -0.3313  0.1608
14164W        W57077  18.744  13.911   6.381 -0.0184 -0.1559  0.1806
14165W        W57078  23.627  18.978  28.023 -0.0855 -0.0723  0.1057
14166W        W57079  14.806  20.574  16.391  0.2902  0.1515  0.4551
14167W        W57080  12.122  26.852  10.046 -0.2694  0.1530  0.1285
14168W        W57081  13.505  14.414  18.311  0.4675  0.0132  0.1406
14169W        W57082  13.753  16.609  26.520 -0.0509  0.0217 -0.3104
14170W        W57083  30.698  17.860  18.754  0.1036  0.1211 -0.0950
14171W        W57084  15.135  30.595   7.097  0.0384  0.0635  0.0300
14172W        W57085   7.378  19.224  26.243  0.4034 -0.2791 -0.0142
14173W        W57086  16.257  18.985   0.765  0.0340  0.1402 -0.2406
14174W        W57087  17.437  12.818   0.474  0.2324 -0.0344 -0.1772
14175W        W57088  13.016  26.563   1.637 -0.0810  0.0105 -0.1438
14176W        W57089  16.723   7.419   6.243  0.2410 -0.1096  0.0483
14177W        W57090  17.465  20.755   5.456  0.2785 -0.3380 -0.4023
14178W        W57091  18.232  24.809   8.524 -0.1261 -0.2338  0.4691
14179W        W57092  13.495  23.314   0.940 -0.4597 -0.0421  0.0629
14180W        W57093  17.574  20.421   5.846 -0.0017  0.1889 -0.0861
14181W        W57094  18.984  10.362   6.077  0.0332  0.1270 -0.1354
14182W        W57095   9.164  10.734   4.381  0.2876  0.1791  0.2007
14183W        W57096  21.545  13.710   1.688  0.3059  0.2567 -0.0623
14184W        W57097   1.472  17.983  28.755 -0.0418 -0.0194  0.0952
14185W        W57098  10.620  23.711   4.956 -0.2790  0.0051 -0.1543
14186W        W57099   6.859  32.008   2.017 -0.0781 -0.1810 -0.1598
14187W        W57100  16.937  15.004   1.322  0.2643  0.1869 -0.0553
14188W        W57101  24.395  11.015   5.015 -0.1214 -0.2621  0.0740
14189W        W57102  22.960  14.153   8.220 -0.1308 -0.1389  0.1905
14190W        W57103  11.879  14.429  23.353  0.3965 -0.1664 -0.2572
14191W        W57104  20.124  15.762   4.150 -0.0013 -0.3188  0.0255
14192W        W57105  31.701  11.298  23.789 -0.1273  0.1252 -0.2286
14193W        W57106  23.824  18.439  28.901 -0.2039  0.0899 -0.1644
14194W        W57107  24.336  19.618   0.264  0.5333  0.0182 -0.0222
14195W        W57108  14.744  23.920   2.499  0.1223 -0.1806 -0.1261
14196W        W57109  33.585  17.407   6.781  0.0945 -0.1299 -0.0810
14197W        W57110   9.798   9.818   1.112 -0.0004  0.1247 -0.0182
14198W        W57111  25.235  12.211  18.088  0.1197  0.0485  0.0129
14199W        W57112  21.478  25.186  24.720  0.0360  0.1632 -0.0746
14200W        W57113  16.462  22.860  29.122  0.1304 -0.0134  0.0608
14201W        W57114  15.396  12.245   4.091  0.1523  0.0810  0.1869
14202W        W57115  23.675  17.430  24.298 -0.1093  0.1357  0.1356
14203W        W57116  15.411  18.102  29.175  0.1714 -0.0879 -0.1182
14204W        W57117  12.588  18.484  26.934 -0.4260 -0.0931  0.0131
14205W        W57118  17.482  17.971   2.002 -0.1941 -0.0871  0.0589
14206W        W57119  25.790  12.581   4.890  0.0519 -0.0041  0.1620
14207W        W57120  16.314  18.118  29.765  0.3451 -0.1515  0.2935
14208W        W57121  26.716  23.099  25.783 -0.1406 -0.1224  0.0181
14209W        W57122  31.200  16.222   7.170  0.3650  0.1258  0.4074
14210W        W57123  24.861  24.165   2.252 -0.0733 -0.0798 -0.0129
14211W        W57124  25.233  18.363   5.639  0.0544 -0.0887  0.1033
14212W        W57125  17.073  18.020   2.451  0.0056  0.3849  0.0147
14213W        W57126  21.403  29.517   3.006  0.0307  0.0068 -0.2058
14214W        W57127  23.014  13.060   5.506 -0.0991 -0.0097 -0.0354
14215W        W57128  13.008  21.853   7.982  0.1463  0.0495  0.1750
14216W        W57129  20.254  23.657  21.795 -0.2958  0.0456 -0.2846
14217W        W57130   9.394   9.857   0.205  0.1570 -0.3192  0.1433
14218W        W57131  11.198  27.133   5.955 -0.1097  0.2019  0.2329
14219W        W57132  20.626  13.857  27.799  0.0526 -0.2693 -0.1613
14220W        W57133  23.916  22.466  16.379 -0.0226  0.0372  0.0337
14221W        W57134  10.516  18.544  26.713 -0.0956  0.2303  0.0945
14222W        W57135  29.173  16.608  26.800  0.0067 -0.0107  0.0169
14223W        W57136  20.393  14.081   5.200 -0.2045 -0.0999 -0.0237
14224W        W57137  19.055  15.516   3.414 -0.2878  0.1548 -0.0956
14225W        W57138   8.914  27.186  26.367  0.3235 -0.0236  0.0271
14226W        W57139  19.089  19.575   4.702  0.0532 -0.2183 -0.0977
14227W        W57140  26.124  14.717   4.010  0.0638 -0.0328  0.0771
14228W        W57141  16.193  17.337   7.815 -0.0455  0.1244  0.1385
14229W        W57142   6.972  23.564   2.438 -0.1784  0.2860 -0.2560
14230W        W57143  22.286  14.167  27.422 -0.1299 -0.0151  0.1457
14231W        W57144  23.005  18.717  25.964  0.0177 -0.0129  0.0438
14232W        W57145  19.083  12.335  20.159  0.2005  0.3393 -0.0119
14233W        W57146  18.118  21.754  25.155 -0.1876  0.2160  0.0803
14234W        W57147  23.272  15.646  28.353 -0.3557  0.1816  0.1490
14235W        W57148  22.619  18.953  28.542  0.1671 -0.2202  0.0785
14236W        W57149  16.603  24.828   4.612 -0.2387  0.3410  0.0807
14237W        W57150  12.656  19.239   6.547  0.2186 -0.2566 -0.2092
14238W        W57151  28.386  27.040   6.315 -0.3010 -0.0512  0.1627
14239W        W57152  12.019  26.069   7.594 -0.2008  0.1307 -0.0818
14240W        W57153  18.896  22.637  20.340 -0.4126  0.1278  0.1753
14241W        W57154  11.076  15.069   7.680  0.0107  0.0027  0.0018
14242W        W57155  16.921  22.886   0.520  0.1791  0.1361  0.4543
14243W        W57156  21.225  13.751   6.027  0.1048  0.3621  0.3194
14244W        W57157  16.677  13.424   3.092 -0.3522 -0.0085  0.0356
14245W        W57158   3.236  26.912  29.193 -0.2487  0.0713  0.2648
14246W        W57159  19.054  23.735  25.950 -0.1245  0.3526  0.0311
14247W        W57160  18.490  21.524  23.536  0.1197  0.1378  0.0930
14248W        W57161  16.388  11.078  23.000 -0.1418  0.1786 -0.1844
14249W        W57162  23.060  19.542   6.641  0.0004 -0.0132  0.2152
14250W        W57163  19.741  10.604   0.255 -0.1527  0.1950  0.0008
14251W        W57164  21.334  18.173   2.831  0.0110 -0.2454  0.1710
14252W        W57165  16.986  18.317  27.205 -0.1903  0.4233 -0.0347
14253W        W57166  12.577  22.225   2.787  0.0531  0.0773 -0.0972
14254W        W57167  33.404  18.911  28.359  0.1868  0.0741  0.2026
14255W        W57168  24.515  11.617   1.194  0.1068 -0.2853 -0.0694
14256W        W57169  12.868  13.713   1.638  0.0784  0.1567 -0.1248
14257W        W57170  12.058  25.901  27.276 -0.0926  0.0010 -0.1971
14258W        W57171  11.536  17.526   3.466 -0.1805  0.1497 -0.2698
14259W        W57172  25.827  20.330  19.571 -0.0329 -0.1438  0.3117
14260W        W57173  13.098   9.373   2.285 -0.0768  0.1286  0.0488
14261W        W57174  19.554  18.134   7.133 -0.1276 -0.4461  0.1756
14262W        W57175  25.436  14.238  19.292  0.0426 -0.0678 -0.1882
14263W        W57176  18.774  29.977  28.266  0.2740  0.3303  0.1372
14264W        W57177  12.682  25.129  23.292  0.1926  0.1481  0.1871
14265W        W57178  13.312  15.720  24.949 -0.0493  0.3613 -0.1232
14266W        W57179  21.243  19.811   3.318  0.0762  0.0105 -0.0023
14267W        W57180  13.746  19.523  24.903 -0.2967  0.1673  0.2614
14268W        W57181  18.286  20.279  29.666 -0.1594  0.1978  0.1641
14269W        W57182   6.654  31.815   0.291 -0.4747  0.3778  0.0583
14270W        W57183  11.849  24.647  23.617 -0.0404  0.1633  0.0902
14271W        W57184  10.832  20.419  25.997  0.1189 -0.4474 -0.1024
14272W        W57185  20.522  12.586  29.696  0.1622  0.0392  0.0229
14273W        W57186  20.763  19.468   6.616  0.2070  0.2374 -0.0568
14274W        W57187  10.522  27.627   4.672 -0.2740 -0.2027  0.0888
14275W        W57188  16.130  22.411   2.726  0.2149  0.0152  0.2931
14276W        W57189  24.982  21.377  18.657  0.4552  0.0898 -0.3411
14277W        W57190   4.092  22.161   0.715 -0.1337 -0.1787 -0.1982
14278W        W57191  20.632  18.076  27.883 -0.0291 -0.1954 -0.0024
14279W        W57192  14.690  26.195   4.470 -0.1200 -0.2065 -0.0460
14280W        W57193  23.315  24.630  26.772 -0.0693  0.2347  0.1676
14281W        W57194  15.316  19.041   6.600  0.0099  0.0538 -0.4443
14282W        W57195  16.781  32.355   7.029  0.4328 -0.1183  0.3559
14283W        W57196  22.102  16.776   8.679 -0.4122 -0.0533  0.1943
14284W        W57197  20.162  22.870   6.890  0.2893 -0.1300  0.2403
14285W        W57198  15.354  33.144   9.554 -0.0627 -0.0494 -0.0097
14286W        W57199  13.105  21.821  26.037 -0.2907 -0.0329 -0.0530
14287W        W57200  15.411  16.066   2.388 -0.1189  0.2321 -0.3895
14288W        W57201  23.961  18.872   2.900  0.1604  0.4096 -0.1749
14289W        W57202  22.670  17.251  19.332 -0.0865 -0.1155 -0.1405
14290W        W57203  20.497  12.979  24.593  0.0421 -0.1816 -0.0190
14291W        W57204  22.540  25.264  18.227 -0.2325  0.1394  0.2077
14292W        W57205  19.949  14.369   6.993 -0.2004  0.2802 -0.1592
14293W        W57206  15.399  21.386   3.107  0.0721  0.1749 -0.0224
14294W        W57207  28.432  27.881   2.587 -0.2992 -0.4072  0.1491
14295W        W57208   9.535  24.951   6.568 -0.0371  0.1297  0.0141
14296W        W57209  12.048  24.395   1.321  0.0264  0.0013  0.1282
14297W        W57210  18.474  15.355   5.450 -0.3338 -0.0112  0.1757
14298W        W57211  25.714  31.731  18.086  0.1820  0.1034 -0.0343
14299W        W57212  15.072  11.162   0.449  0.1141  0.0171 -0.2598
14300W        W57213  20.166  29.975  27.623 -0.2008 -0.1882  0.0134
14301W        W57214  21.330  25.350   6.429 -0.0138  0.1581 -0.0676
14302W        W57215  19.391  19.913  26.257  0.0373  0.1961 -0.1052
14303W        W57216  26.008  22.677   0.759  0.0203 -0.0747 -0.0243
14304W        W57217  15.828  14.762   2.560 -0.1986 -0.1206 -0.0849
14305W        W57218  22.359  23.706   4.203 -0.5097 -0.3403  0.1656
14306W        W57219  26.897  26.156   5.428  0.2863  0.1069  0.2374
14307W        W57220  12.080   6.174   1.747 -0.2931  0.1872  0.2249
14308W        W57221  15.734  16.313  28.443  0.1379  0.4725  0.0002
14309W        W57222  16.733  18.725   5.029  0.0785  0.1452 -0.3033
14310W        W57223  23.926  10.384   6.715 -0.0436  0.3081 -0.1781
14311W        W57224  16.127  22.122   0.452  0.1321  0.2542  0.2038
14312W        W57225   9.508   0.127   8.500 -0.0012  0.1664 -0.0179
14313W        W57226  19.799  16.444  22.757  0.1356  0.1359 -0.2151
14314W        W57227  22.454  26.817   7.926  0.0397  0.1600  0.0582
14315W        W57228  18.616  27.122  24.964  0.0824 -0.0793 -0.0982
14316W        W57229  22.925  32.284  26.953  0.2649  0.3144 -0.2112
14317W        W57230  30.196  13.429  20.102 -0.1154 -0.0831  0.0413
14318W        W57231  20.561  22.298   6.019  0.1971 -0.0209  0.2642
14319W        W57232  16.492  15.703  26.504 -0.3449  0.0771  0.0091
14320W        W57233  17.303  16.012   1.747  0.0581  0.1789  0.0879
14321W        W57234  19.868  13.712   2.679 -0.2178  0.4394  0.2832
14322W        W57235  17.045  21.889   1.429 -0.3797  0.0580  0.0419
14323W        W57236  16.162  29.042  23.163 -0.0389 -0.2591 -0.2238
14324W        W57237  21.237  12.619  21.561  0.3117 -0.0678  0.2513
14325W        W57238   6.331  14.633  18.717  0.2169 -0.0254  0.0017
14326W        W57239  34.460  28.914   3.548  0.3273 -0.2057  0.3785
14327W        W57240  29.905  15.357   4.754  0.1122  0.3144 -0.1061
14328W        W57241  16.195  21.677   7.980  0.0055 -0.0504 -0.1892
14329W        W57242  16.310  20.040   5.530 -0.0819  0.0433  0.3931
14330W        W57243  24.955  17.840   1.456 -0.0025 -0.1615 -0.0601
14331W        W57244   6.999  21.452   3.814  0.1963  0.4697 -0.0614
14332W        W57245  14.045  19.820  24.076 -0.0680  0.2397  0.0714
14333W        W57246  12.018   3.504   3.638  0.0015 -0.1695 -0.0309
14334W        W57247  25.219  32.311   8.229 -0.1875 -0.1963  0.2549
14335W        W57248  24.534  28.626   0.321 -0.3482 -0.1867  0.3931
14336W        W57249  14.956   9.857  27.957 -0.2782  0.3058  0.0341
14337W        W57250  17.356  20.410   0.040 -0.0414  0.1403 -0.0060
14338W        W57251  20.466  17.440   1.159  0.4051 -0.3367 -0.3243
14339W        W57252  28.031  19.195  22.204  0.0456  0.0633 -0.1378
14340W        W57253  22.425  17.471  19.899 -0.2122 -0.3616  0.1195
14341W        W57254  26.256  24.700   8.112  0.1037 -0.2311  0.1290
14342W        W57255  16.650  17.849  26.343 -0.0529 -0.0141  0.0755
14343W        W57256  10.166  22.595  29.666 -0.1885 -0.1307 -0.0595
14344W        W57257  17.234  20.755  29.101  0.0168 -0.0233  0.2623
14345W        W57258  25.600  22.086  28.370  0.0067 -0.0989  0.2135
14346W        W57259  20.143  27.542  28.347  0.1194  0.3623  0.2621
14347W        W57260  27.680  17.762   9.078 -0.4234  0.0715 -0.2180
14348W        W57261  21.120  19.836   2.659  0.0847  0.0336  0.3001
14349W        W57262  13.755  21.705  23.850 -0.3018 -0.2907  0.3438
14350W        W57263   0.066  11.417  25.974  0.0609 -0.2529 -0.0194
14351W        W57264  15.458  30.435   8.507  0.2594 -0.1088 -0.2370
14352W        W57265  15.006  27.240   5.947 -0.0002 -0.3675 -0.1826
14353W        W57266  11.070  21.176  23.079 -0.0602 -0.2555 -0.1196
14354W        W57267   4.260  21.582  28.153 -0.1688 -0.3561  0.1587
14355W        W57268  10.355  28.371  24.576 -0.1151 -0.0143 -0.2671
14356W        W57269  25.130  30.300   2.833  0.2059  0.1454 -0.2224
14357W        W57270  18.682  19.061  23.785  0.2695 -0.2177 -0.0503
14358W        W57271  21.897  15.117  25.086  0.3801  0.1823  0.0303
14359W        W57272  19.358  19.435  24.226 -0.0088  0.0773  0.2936
14360W        W57273  24.406  18.893   0.768  0.0038 -0.1371 -0.0114
14361W        W57274  20.811  13.546   7.409  0.1201  0.0532  0.2108
14362W        W57275  19.752  19.350   8.677 -0.1321  0.3443 -0.0489
14363W        W57276  11.325  14.558  28.444 -0.2882 -0.6385 -0.3616
14364W        W57277  17.666   7.696   4.805  0.1274  0.1500 -0.2039
14365W        W57278  15.542   1.839  29.175  0.2130  0.0795 -0.4297
14366W        W57279  21.166  14.552   1.370  0.2840 -0.0267  0.0953
14367W        W57280  17.103  11.629   5.170  0.1974  0.1943  0.2202
14368W        W57281  25.210  18.619   0.133  0.0945 -0.0990  0.0576
14369W        W57282  23.353  16.812   0.698  0.0802 -0.2070 -0.0997
14370W        W57283  20.040  17.486  27.055 -0.3866 -0.1194 -0.6195
14371W        W57284  13.329  15.530   7.867  0.3694  0.0345  0.1998
14372W        W57285  18.427  12.130   5.288 -0.0194  0.0446 -0.1800
14373W        W57286  22.431   7.700   0.387  0.0142  0.2377 -0.0584
14374W        W57287  16.993  23.665  24.081 -0.1680 -0.1107  0.0420
14375W        W57288  13.697   6.983   2.261  0.2027 -0.0998  0.0134
14376W        W57289  21.386  20.193   3.645 -0.2518 -0.1226  0.2735
14377W        W57290  17.330  25.965   4.526  0.1854  0.0098 -0.0156
14378W        W57291  22.405  16.093   6.174  0.1978  0.0066  0.0351
14379W        W57292  16.438  22.496   3.488  0.0566 -0.3821 -0.1283
14380W        W57293  17.319  22.176  27.175  0.0988  0.0446  0.1503
14381W        W57294  18.496  20.651   1.373 -0.3704 -0.0969 -0.0639
14382W        W57295  19.998  16.765   2.684 -0.0940 -0.2446  0.0192
14383W        W57296  12.404  17.958  24.879 -0.0458 -0.0188  0.2150
14384W        W57297  19.557  18.217  24.140 -0.0298 -0.2197 -0.0161
14385W        W57298  18.213  22.307   4.674  0.2809  0.2007 -0.0598
14386W        W57299  27.111  21.165   1.475  0.1003  0.0424 -0.3551
14387W        W57300  24.841  25.661   4.585  0.0034 -0.0626  0.2871
14388W        W57301  12.735  26.500  22.492 -0.1965  0.2134  0.3204
14389W        W57302  14.002  21.855   5.835 -0.0900  0.3365  0.0238
14390W        W57303   8.731  18.504   4.687  0.3537  0.0939 -0.1499
14391W        W57304  13.637  16.114  15.635 -0.1727 -0.0159  0.0423
14392W        W57305  22.617  23.347   3.864  0.0829 -0.4340  0.2959
14393W        W57306  21.805  17.028  27.711 -0.1855 -0.0595  0.1315
14394W        W57307  18.043  20.938  15.850 -0.2256 -0.3532  0.2670
14395W        W57308  22.148  17.516   9.056  0.2608 -0.1177 -0.0720
14396W        W57309  22.929  21.758  25.342  0.0714  0.1819  0.0026
14397W        W57310  18.008  17.010   6.991  0.1417  0.1621  0.0502
14398W        W57311   6.212  12.199  26.137 -0.2143 -0.0756  0.1025
14399W        W57312  27.021  19.951   6.218  0.1411  0.1255  0.1125
14400W        W57313  19.956  18.534   7.469  0.2070 -0.1318 -0.0943
14401W        W57314   9.320  27.269   2.182 -0.1761  0.0139 -0.2191
14402W        W57315  24.755  11.942   6.760 -0.2939 -0.2552 -0.0761
14403W        W57316  20.710   4.429  28.037  0.1736  0.2822 -0.1773
14404W        W57317  16.783  19.955  26.694  0.2805  0.0372  0.0077
14405W        W57318  31.184  15.950   4.398  0.2148  0.0502  0.0221
14406W        W57319  18.034  29.533  29.698  0.0307  0.0891 -0.0111
14407W        W57320  31.398  21.161   2.950  0.1123  0.2928 -0.0275
14408W        W57321  25.664  14.594   6.770  0.1478  0.0636  0.0804
14409W        W57322  25.811  26.617   3.295 -0.0416  0.0190 -0.0546
14410W        W57323   2.964  22.181   2.302  0.1318 -0.3249  0.0462
14411W        W57324  28.948  20.693   8.319 -0.3896 -0.1914  0.0514
14412W        W57325  25.167  21.651  20.001 -0.0406 -0.0893  0.0186
14413W        W57326  23.727  23.597  26.671 -0.1087  0.3111 -0.3770
14414W        W57327  20.948  23.112  26.697  0.0103 -0.0258  0.2323
14415W        W57328  19.696  20.989  21.517 -0.1594 -0.1487 -0.1663
14416W        W57329  17.309  28.404   7.564  0.1050  0.1180  0.1331
14417W        W57330  23.008   9.692   8.431  0.0255  0.0111 -0.0345
14418W        W57331  20.163  17.322  24.939  0.2547 -0.0267 -0.2030
14419W        W57332  13.844  13.688   5.251 -0.1791 -0.0557  0.2422
14420W        W57333  19.803  25.649   5.541 -0.0714  0.3765  0.1986
14421W        W57334  17.140  15.849  29.301 -0.1436 -0.0111  0.1924
14422W        W57335  19.241  32.209   3.927 -0.2508  0.1298 -0.4619
14423W        W57336  24.565  12.824   4.103 -0.1556  0.3903 -0.1188
14424W        W57337  18.445  24.958  25.560 -0.1699  0.0335 -0.0157
14425W        W57338  20.325  20.920  25.807  0.0229 -0.1253  0.5193
14426W        W57339  21.433  21.282  23.110 -0.1171 -0.0548 -0.1398
14427W        W57340  23.067  21.366   6.025  0.1294  0.3824  0.2751
14428W        W57341  19.544  22.146   4.546  0.2533 -0.3024 -0.2353
14429W        W57342  20.651   5.201   9.080 -0.0058 -0.0807  0.1520
14430W        W57343  16.995  22.791  29.240  0.1551 -0.0696 -0.1476
14431W        W57344  31.103  32.495  25.093  0.0480 -0.1777  0.2771
14432W        W57345  26.820  20.763   8.759 -0.0108 -0.2315  0.1944
14433W        W57346  26.359  25.581   3.598  0.1559  0.0192  0.0882
14434W        W57347  27.488  17.078   7.471  0.1289 -0.2666 -0.0332
14435W        W57348  22.199  11.131  29.773  0.2015 -0.0253 -0.0970
14436W        W57349  23.089  14.842   6.550  0.1156  0.2767 -0.2665
14437W        W57350  32.427  14.422   5.728 -0.1723 -0.0303 -0.1791
14438W        W57351  17.066  24.253   5.632 -0.0463 -0.1350  0.3071
14439W        W57352   8.654  19.883   5.194  0.3580 -0.3209  0.0405
14440W        W57353  22.774  26.672   3.513 -0.2225 -0.0827 -0.2264
14441W        W57354  20.201  26.305   0.707 -0.0592 -0.1526  0.2434
14442W        W57355  14.112  13.758  21.651  0.1029 -0.0676  0.1786
14443W        W57356  20.342  25.938  29.145 -0.3130  0.0319 -0.1606
14444W        W57357  16.243   1.429   4.200  0.0554 -0.1890 -0.1176
14445W        W57358  16.681  25.009  28.464 -0.2472  0.2119  0.0537
14446W        W57359  20.252   6.740   5.771 -0.2540  0.0935  0.2252
14447W        W57360  22.410  21.965  23.454  0.1043 -0.2412 -0.2385
14448W        W57361  29.542  18.317  21.235 -0.0009 -0.1071 -0.1958
14449W        W57362  22.484  18.784   8.165 -0.0349 -0.0508  0.2903
14450W        W57363  15.158  23.696   5.484 -0.3278 -0.0738 -0.0147
14451W        W57364  25.003  15.473   1.639  0.0615 -0.0321  0.3939
14452W        W57365   7.856  26.751   5.344  0.1534  0.3499  0.1515
14453W        W57366  17.777   9.821  28.579 -0.2363  0.0207  0.1144
14454W        W57367  18.035   8.596  23.939  0.2036 -0.2752 -0.0819
14455W        W57368  27.241  26.075  19.970  0.0739  0.2034 -0.0723
14456W        W57369  18.438  18.947   3.358 -0.2498 -0.2173  0.1963
14457W        W57370  23.997  12.687  28.833 -0.0746  0.1719 -0.3377
14458W        W57371  11.114  17.791  28.350  0.0010 -0.1731 -0.0176
14459W        W57372  15.628  24.985   3.780 -0.0066  0.0147  0.0979
14460W        W57373  17.868  20.880   1.308 -0.3011 -0.0353 -0.0873
14461W        W57374  13.635  11.827   9.367  0.2838 -0.1699 -0.2660
14462W        W57375   0.871  31.799   9.454 -0.1592  0.1309  0.1713
14463W        W57376  33.639  20.198  29.184  0.1504 -0.1302 -0.0258
14464W        W57377   9.896  13.881  28.549 -0.2010 -0.1841  0.0016
14465W        W57378  16.609  22.205   2.148  0.1604 -0.1552  0.1336
14466W        W57379  18.784  18.931  22.544  0.0141 -0.0713  0.3138
14467W        W57380   7.319  11.443   6.456  0.1089 -0.0712  0.1971
14468W        W57381  18.805  22.933   1.890 -0.3133 -0.2007  0.0102
14469W        W57382  21.685  19.627  17.015  0.1786 -0.0157  0.3694
14470W        W57383  26.452  21.420   1.268 -0.0104  0.0267 -0.0017
14471W        W57384  18.287  23.418  28.764  0.1827 -0.0830 -0.3974
14472W        W57385  30.767  21.326  24.454 -0.1096 -0.2977  0.5383
14473W        W57386  12.355  12.603   6.699  0.0475 -0.1120 -0.2007
14474W        W57387  29.995  26.284  24.876  0.0686  0.1191 -0.1759
14475W        W57388  20.714  16.833   4.795 -0.1511  0.0622  0.2521
14476W        W57389  20.474  28.121  23.255 -0.0720  0.1261 -0.0282
14477W        W57390  19.733  19.012   2.068 -0.1222 -0.0121  0.1107
14478W        W57391  19.955  16.218   3.865 -0.1396 -0.1796  0.1972
14479W        W57392  13.750   1.312  27.850  0.1822  0.0888  0.1510
14480W        W57393  15.923  19.915   4.553 -0.0699 -0.0949 -0.2452
14481W        W57394  21.047  22.276   5.782 -0.1713  0.2095 -0.0692
14482W        W57395  31.294  14.614   5.454 -0.1195 -0.2258  0.0930
14483W        W57396  12.430  20.915   3.317  0.0544 -0.2956 -0.4308
14484W        W57397  22.243  15.124  19.993  0.2054 -0.3219 -0.0413
14485W        W57398  21.239  12.017  24.954 -0.0109  0.3143 -0.2107
14486W        W57399  32.708  25.853   5.309  0.2158 -0.1027 -0.2407
14487W        W57400  18.881  16.380   2.516 -0.2789  0.0953  0.2519
14488W        W57401   7.801  27.808   7.320 -0.0168  0.2138  0.1449
14489W        W57402  25.922  16.354   2.459  0.1687 -0.2429 -0.0742
14490W        W57403  24.103  17.054   0.931 -0.1169  0.2537 -0.0460
14491W        W57404  12.499   8.170   4.036  0.0639  0.0597 -0.1990
14492W        W57405  19.953  20.621  27.132  0.3679  0.5180 -0.2359
14493W        W57406  14.788   8.487   0.130 -0.1137  0.1045 -0.0468
14494W        W57407  24.090  24.907   3.215  0.2606 -0.2277  0.1884
14495W        W57408  14.911  24.171  10.283  0.1072  0.2244 -0.1818
14496W        W57409  14.057  20.418   1.468  0.3846  0.0926 -0.0665
14497W        W57410  14.616  20.238   4.440  0.3540  0.0198 -0.2796
14498W        W57411  12.038  28.284  27.733 -0.1738  0.1734 -0.2550
14499W        W57412  10.927  27.230  24.715  0.0275 -0.0071  0.4895
14500W        W57413  15.607  13.751   8.133 -0.1652  0.0915 -0.1058
14501W        W57414  17.862  15.895  28.064  0.0273  0.2027 -0.0362
14502W        W57415  15.786  20.632   4.230  0.1525 -0.0644 -0.0677
14503W        W57416   9.188  17.964   1.376 -0.0821 -0.1039 -0.0766
14504W        W57417  12.893  14.133  23.274 -0.3901 -0.6125  0.1780
14505W        W57418  18.899  14.091   2.997  0.2843  0.0087 -0.3480
14506W        W57419  25.109  21.012  27.131 -0.3019 -0.1460  0.1334
14507W        W57420  28.945  27.606   8.003 -0.2841 -0.0206  0.2191
14508W        W57421  23.827  19.189   6.122 -0.1082  0.2376  0.0613
14509W        W57422  17.121  23.142   4.020  0.0678 -0.0568 -0.0972
14510W        W57423  24.142  23.108   7.999 -0.0639 -0.0541 -0.1356
14511W        W57424  10.566  33.586   0.635  0.1094 -0.2533 -0.4094
14512W        W57425  24.077  22.496   3.815  0.0767 -0.2643 -0.1420
14513W        W57426  22.154  25.646   6.899 -0.1855 -0.0767  0.4020
14514W        W57427  20.197  16.426  26.029 -0.0805 -0.0013  0.0035
14515W        W57428  17.559  17.125   7.267  0.4047  0.1160 -0.0293
14516W        W57429  22.254  24.821   6.289  0.0807 -0.2236  0.0101
14517W        W57430  10.433  13.816   8.002 -0.0932 -0.0107 -0.0521
14518W        W57431  18.387  30.532   9.250  0.2246  0.1707  0.0627
14519W        W57432  20.357  17.805  24.942 -0.2899  0.2113  0.1609
14520W        W57433  27.860  13.652   7.283 -0.3238  0.2021 -0.0792
14521W        W57434  20.707  20.028   6.473  0.2714  0.1964 -0.3508
14522W        W57435  15.664  22.786   5.200  0.1061 -0.0288  0.0947
14523W        W57436  21.976  34.162   0.181  0.3117  0.5257  0.5506
14524W        W57437  12.868   8.277  22.744  0.2656  0.0428  0.1411
14525W        W57438  33.447  22.904   3.268  0.0559  0.0695 -0.1023
14526W        W57439  12.415  12.995   5.041 -0.1906  0.3288 -0.0980
14527W        W57440  11.212   9.868   3.896  0.1838  0.2421  0.2125
14528W        W57441  20.367  22.035   2.394  0.2048 -0.1032  0.3313
14529W        W57442  18.474   7.219   8.413 -0.1611  0.1076 -0.1480
14530W        W57443  25.437  13.471  29.163  0.1027 -0.1948  0.0475
14531W        W57444  17.315  22.736  28.437 -0.1947 -0.0884 -0.2322
14532W        W57445  13.667  19.934   8.925  0.4150 -0.2369  0.3251
14533W        W57446  12.868  13.289   1.868  0.2128 -0.1978 -0.3518
14534W        W57447   9.842  22.312   8.716 -0.1069  0.3087 -0.1180
14535W        W57448  16.721  18.247   4.599 -0.1865  0.2223 -0.2807
14536W        W57449  21.506  12.769   3.234 -0.0783  0.1260  0.1915
14537W        W57450  17.744  15.899   2.506  0.0434 -0.2205  0.1438
14538W        W57451  24.368   9.417  28.159 -0.1133  0.0431  0.3312
14539W        W57452  17.757  20.172   7.496  0.1279  0.2746  0.1799
14540W        W57453  21.373  15.169   0.527 -0.1489 -0.1181 -0.0275
14541W        W57454   9.643   2.688   7.994 -0.2263  0.0785 -0.2218
14542W        W57455  18.950  15.966   6.657 -0.1282  0.1471  0.1322
14543W        W57456  14.608  14.979   1.977  0.0875  0.1263  0.0040
14544W        W57457  23.502  17.418  28.613 -0.0347  0.0442  0.0000
14545W        W57458  23.270  23.030   7.741 -0.3057  0.1743 -0.2106
14546W        W57459  11.559  13.074   3.086  0.1805 -0.2046  0.3736
14547W        W57460  19.851   4.646   8.484  0.1032 -0.1185  0.3191
14548W        W57461  13.750  22.661   3.653  0.0233  0.1035 -0.0111
14549W        W57462  10.946  23.774  26.710  0.0213  0.0342 -0.0808
14550W        W57463  14.981  16.610   7.272 -0.1938  0.2361 -0.4119
14551W        W57464  20.119  28.538  28.399  0.0584 -0.0149 -0.2271
14552W        W57465  17.535  29.062   6.829  0.1737  0.1643  0.0759
14553W        W57466  22.924  14.038   7.734 -0.2243 -0.2232 -0.1726
14554W        W57467  16.586  12.784  25.013  0.0164 -0.1831  0.0211
14555W        W57468  14.086  20.292  29.035 -0.1558 -0.1570 -0.1792
14556W        W57469  19.754  24.577  23.541  0.1662  0.0675  0.0764
14557W        W57470  17.373  10.402   3.992  0.1334  0.0834 -0.1365
14558W        W57471  31.884  13.842   0.117  0.1201 -0.0806 -0.1062
14559W        W57472  16.312  15.714   7.203 -0.0400 -0.2411 -0.0538
14560W        W57473  26.985  12.879   7.736  0.0940  0.2302 -0.0765
14561W        W57474  25.029  19.487   0.828 -0.0913  0.4583  0.1382
14562W        W57475  11.678  13.636   5.627 -0.1577 -0.0422 -0.1987
14563W        W57476  22.392  26.574   6.759 -0.4342  0.2658 -0.1820
14564W        W57477  24.200  30.046   6.723 -0.2840  0.4494  0.2144
14565W        W57478  13.460  17.428   0.733  0.1073  0.0050 -0.5469
14566W        W57479   3.348  27.952   3.796 -0.0909  0.3143  0.1647
14567W        W57480  17.222  31.045   6.063 -0.0097  0.0354 -0.1679
14568W        W57481  10.109  10.952  27.103 -0.1571 -0.0191  0.0929
14569W        W57482   0.216   5.476   5.609 -0.0537  0.1987 -0.1460
14570W        W57483  20.583  19.286   1.601 -0.0469 -0.4076  0.1169
14571W        W57484  17.348  20.824  26.458  0.0205 -0.0782 -0.3086
14572W        W57485  17.226  24.888   9.704 -0.1284 -0.1855  0.2039
14573W        W57486  18.636  21.090   0.439  0.0080  0.2808  0.0921
14574W        W57487  19.120  29.159   3.095 -0.0415  0.1720  0.1187
14575W        W57488  20.969  21.097  25.049 -0.0477 -0.3112 -0.1033
14576W        W57489  11.657  11.998   3.855 -0.2573 -0.0187  0.2330
14577W        W57490  20.647  18.228   3.708  0.0317  0.1093  0.0700
14578W        W57491  20.298   0.455   8.848 -0.1886 -0.0497 -0.1133
14579W        W57492  22.807  17.434   6.426 -0.3462 -0.2238 -0.2149
14580W        W57493  23.683  19.513   8.342 -0.1987  0.3781 -0.3368
14581W        W57494  15.474  18.033   3.667  0.1781 -0.1112  0.2349
14582W        W57495   3.184  23.773   5.691  0.5834 -0.1070 -0.3317
14583W        W57496  12.571   6.967   3.024  0.0701  0.0945 -0.0138
14584W        W57497  14.474  14.014   3.323  0.2965  0.0567  0.1256
14585W        W57498  23.637  18.335   7.103  0.1048 -0.0566 -0.2236
14586W        W57499  24.289  23.206  25.455 -0.2163 -0.4214  0.2655
14587W        W57500  14.018  24.479  29.778  0.3917  0.0007  0.0400
14588W        W57501  15.050  12.532   1.230 -0.0422  0.0020 -0.2122
14589W        W57502  18.445  13.447   1.230  0.0953  0.2188 -0.1421
14590W        W57503  23.656   9.786  29.076 -0.0245 -0.1814  0.1747
14591W        W57504  22.946  24.709   4.991  0.0904 -0.1326  0.1449
14592W        W57505  22.038  26.764   5.969 -0.3767  0.2437  0.0626
14593W        W57506  18.901  18.235   2.985 -0.1475 -0.1643 -0.2409
14594W        W57507  18.276  28.516   9.111  0.1517 -0.0071 -0.0443
14595W        W57508  15.220  17.350   5.892  0.0910  0.4001 -0.0484
14596W        W57509  11.981  13.483   6.896  0.0655 -0.0030  0.0587
14597W        W57510  20.874  20.036   4.333  0.2517  0.2559  0.0953
14598W        W57511  20.040  17.123  26.740  0.1938 -0.2557 -0.0198
14599W        W57512  23.691  19.267   6.796 -0.0350  0.3419 -0.0707
14600W        W57513  18.382  16.348   3.204  0.1773  0.0581  0.0749
14601W        W57514  23.381  15.280   7.414  0.0064 -0.1369 -0.1967
14602W        W57515  22.937  14.386   6.865  0.2092  0.0431  0.0203
14603W        W57516  16.024  23.761   7.120 -0.4017  0.1037  0.1410
14604W        W57517  21.094  12.811   7.299  0.1066 -0.2501  0.0625
14605W        W57518  22.482  10.257   2.149 -0.0892 -0.2700  0.1006
14606W        W57519  16.585  18.701  23.664 -0.0208 -0.0276  0.1610
14607W        W57520  23.851  16.272   8.244 -0.0502 -0.0334  0.0113
14608W        W57521  21.496  22.981   4.955  0.0998  0.1308  0.1264
14609W        W57522   8.342  21.794   6.993  0.2094 -0.3484  0.0297
14610W        W57523  20.136  20.551  26.290  0.3626  0.0973  0.0208
14611W        W57524  14.910  22.138   6.133  0.1154  0.0960  0.1253
14612W        W57525  21.708  20.229  18.929 -0.1153  0.0743  0.2372
14613W        W57526  18.121  24.292  29.371 -0.0600 -0.2589 -0.2651
14614W        W57527  13.174  18.416   3.289  0.0220 -0.1020 -0.1312
14615W        W57528  21.794  22.206   7.571  0.0235  0.2251 -0.2825
14616W        W57529  13.086  21.483   7.664  0.0227 -0.0731 -0.0183
14617W        W57530  20.905  16.465   1.041  0.4319 -0.1481 -0.1279
14618W        W57531  23.609  15.485  26.884 -0.0148 -0.3513 -0.2066
14619W        W57532  32.088  17.680   5.059 -0.0153  0.2890 -0.0339
14620W        W57533  17.215  29.152   3.319  0.0996  0.1364  0.1698
14621W        W57534  34.419  21.125   4.506 -0.1383 -0.2978  0.0052
14622W        W57535  21.850  21.717   7.304 -0.0529 -0.0310  0.0108
14623W        W57536  19.680   9.996   1.061  0.1697  0.2871  0.0878
14624W        W57537  19.382  22.498   6.246  0.2460  0.0514  0.1308
14625W        W57538  18.941  15.566   5.350  0.0999 -0.2049  0.2689
14626W        W57539  19.961  17.345   3.301  0.1060 -0.0887 -0.0129
14627W        W57540  20.266  10.895  27.785  0.0766 -0.1671  0.2207
14628W        W57541  16.702  18.197   5.742 -0.3368  0.1413 -0.1341
14629W        W57542  19.589  14.989   3.955  0.0452  0.0560  0.2022
14630W        W57543  23.496  22.477   8.419  0.1172  0.3496  0.0630
14631W        W57544  25.081  17.046   5.632  0.0009  0.1514  0.2333
14632W        W57545  31.759  22.286  28.562 -0.0089  0.0167  0.1469
14633W        W57546  15.355  20.420  25.496  0.0344  0.0173 -0.1052
14634W        W57547  27.640   5.912   2.998 -0.0350  0.2036 -0.0976
14635W        W57548  15.183  12.367   3.011  0.1241  0.2550  0.2235
14636W        W57549  10.034  16.656   1.748 -0.3620  0.0176 -0.1576
14637W        W57550  19.279  21.671   7.439  0.3961  0.4316  0.0621
14638W        W57551  17.378   8.450   7.344  0.1015  0.1219  0.1966
14639W        W57552  12.895  19.604   8.929  0.1356  0.1265  0.0465
14640W        W57553  17.918  14.911  24.225  0.0285  0.0584  0.0913
14641W        W57554  12.839  18.563   8.032  0.0562 -0.0241 -0.1143
14642W        W57555  18.375  22.207   0.227  0.0292 -0.2062 -0.1468
14643W        W57556   9.681   9.904   1.649  0.3545 -0.1847 -0.1307
14644W        W57557  24.055  19.796   8.487  0.1080  0.0114  0.1435
14645W        W57558  22.660  15.780   1.623  0.3997 -0.0029 -0.3310
14646W        W57559  16.447  12.131   6.691 -0.0591  0.0341  0.3349
14647W        W57560  21.255  22.327   8.576 -0.3980  0.2875 -0.2093
14648W        W57561  19.929  17.763   5.157 -0.1906  0.0602 -0.3023
14649W        W57562  18.472  24.205   4.749 -0.1199  0.1588  0.1977
14650W        W57563  23.540   4.814  25.168 -0.0810  0.1277 -0.0130
14651W        W57564  14.369  20.167   1.192  0.0290  0.3035 -0.2859
14652W        W57565  20.854  25.088   3.744 -0.0065 -0.0005 -0.3568
14653W        W57566  18.414  19.254  27.029 -0.2401 -0.0889 -0.1697
14654W        W57567  15.302  17.777  23.095  0.1679 -0.2431  0.2654
14655W        W57568  23.109  18.686   0.456 -0.1689 -0.1618  0.2452
14656W        W57569  19.967  16.209  28.567 -0.0585 -0.2141  0.0300
14657W        W57570  24.441  19.134   5.287 -0.0660 -0.1476  0.0270
14658W        W57571  20.363  18.552   3.853 -0.0918  0.0043 -0.0856
14659W        W57572  21.365  16.010   3.976  0.4228  0.1783  0.0393
14660W        W57573  17.306  11.998   6.906  0.2515  0.3032 -0.0322
14661W        W57574  18.675  17.061   0.200 -0.2812 -0.0784 -0.0542
14662W        W57575  12.865  21.760  28.381 -0.2508  0.0984  0.0850
14663W        W57576  15.902  23.193  20.152  0.0439  0.2990 -0.1523
14664W        W57577  17.827  13.860   7.481  0.2262 -0.2113  0.2198
14665W        W57578  15.370   7.569   0.863  0.1400 -0.2371 -0.0197
14666W        W57579  24.156  20.428   2.899 -0.0577  0.0733  0.1092
14667W        W57580  21.572  24.810   1.225 -0.0383 -0.1952  0.0754
14668W        W57581  17.394  19.515   4.562 -0.0476  0.2933 -0.0367
14669W        W57582  25.068  33.214   5.599  0.1401  0.0380 -0.0166
14670W        W57583  20.033  17.059  28.126  0.2517 -0.0743 -0.1895
14671W        W57584  13.247  25.589   3.078 -0.2189 -0.2846 -0.3068
14672W        W57585  26.897  18.185   8.183 -0.6909 -0.0690  0.3314
14673W        W57586  15.571  14.273   2.764  0.2398 -0.0820 -0.0097
14674W        W57587  19.196  11.495   7.289  0.0535 -0.3018  0.1703
14675W        W57588  15.514  15.871   7.784 -0.1992 -0.1049 -0.2061
14676W        W57589  18.720  20.292  29.282  0.0822  0.0629 -0.3839
14677W        W57590  20.258  21.721   3.536  0.2215 -0.4396  0.0675
14678W        W57591  12.427  15.315  28.404 -0.0788 -0.1858 -0.1671
14679W        W57592  15.117  14.799   5.627 -0.1010 -0.0651  0.1606
14680W        W57593  24.089  22.699   5.191 -0.0984 -0.0858 -0.0444
14681W        W57594  13.817  22.781  23.263 -0.0238  0.1936 -0.1820
14682W        W57595  21.965  17.109   3.274  0.1566 -0.3247  0.1113
14683W        W57596  21.162  20.157   7.630  0.0545  0.0460  0.1328
14684W        W57597  26.037  25.219   3.690  0.0160  0.2237  0.1290
14685W        W57598  13.113   5.195   1.703  0.3382 -0.1038 -0.1591
14686W        W57599  17.345  14.942   8.334  0.1418  0.0862 -0.0028
14687W        W57600  30.725  29.239   6.702  0.1108  0.1808 -0.2890
14688W        W57601  20.642  22.926   5.001 -0.1475  0.0307 -0.2337
14689W        W57602  13.351  25.648   7.052  0.0277 -0.0673 -0.1528
14690W        W57603  22.851  24.996  29.729  0.0355  0.1848 -0.0666
14691W        W57604  17.481  21.694   6.824  0.0546  0.2077  0.2922
14692W        W57605  16.410  21.795   8.583 -0.0135  0.0372 -0.1979
14693W        W57606  11.642   7.994   9.629  0.4213 -0.1336 -0.1924
14694W        W57607  32.154  10.902   6.723 -0.0381  0.1822 -0.2809
14695W        W57608  18.872  13.872  22.188  0.2023 -0.0835 -0.0920
14696W        W57609  16.248  28.921   9.302  0.3179  0.3152  0.2264
14697W        W57610  12.236   9.341   9.366  0.0677  0.1833  0.2427
14698W        W57611  26.935  19.975  28.376 -0.0672  0.0886  0.1532
14699W        W57612  19.697   2.005   9.743  0.1690  0.2192 -0.0093
14700W        W57613  18.079  20.373   2.836 -0.0105 -0.0220  0.1279
14701W        W57614  17.198  16.951   1.549  0.2838  0.0052 -0.1155
14702W        W57615  20.962  17.006   1.280  0.0903  0.5463 -0.2783
14703W        W57616  14.185  12.357   4.612  0.4793  0.2798 -0.1718
14704W        W57617  21.242  19.143   3.773  0.0936 -0.0418  0.1447
14705W        W57618  18.145  28.397   5.783 -0.1110 -0.0847 -0.2778
14706W        W57619  20.586   5.015   5.190 -0.2569  0.1072  0.3225
14707W        W57620  16.316  21.607   5.966 -0.0261  0.1191 -0.0868
14708W        W57621  22.138  19.806   5.717 -0.0852 -0.3264  0.3307
14709W        W57622  18.369  23.510   3.103 -0.2143  0.3278  0.1438
14710W        W57623  22.901  32.080  23.938 -0.0585  0.1644 -0.1773
14711W        W57624  21.755  17.402   2.966  0.0673  0.0151  0.2183
14712W        W57625  16.117   7.691   8.620 -0.0069 -0.0496 -0.0761
14713W        W57626  15.345  17.541   2.618  0.0176  0.1805 -0.3018
14714W        W57627  25.413  13.134   3.722 -0.1153  0.4784 -0.4948
14715W        W57628  13.060  16.229  27.410 -0.1561 -0.0020  0.3026
14716W        W57629  10.441  16.476   8.794  0.0720 -0.2943  0.2112
14717W        W57630  24.857  12.554   0.998  0.2409  0.0291 -0.0150
14718W        W57631   9.436   9.591   3.068 -0.1213  0.0991 -0.3353
14719W        W57632  11.986  24.122   1.980 -0.1040 -0.0824 -0.0313
14720W        W57633  19.684  14.771   1.620  0.1494  0.0512  0.1507
14721W        W57634  20.073  29.201  28.305 -0.0034  0.0227 -0.1997
14722W        W57635  10.887  17.111   2.280 -0.0410 -0.0324 -0.0141
14723W        W57636  19.534  12.698   6.743 -0.1350  0.0808 -0.1949
14724W        W57637  29.681  18.339   9.210 -0.0559  0.1260 -0.0438
14725W        W57638  15.510  20.592   7.645 -0.0655  0.0386  0.0537
14726W        W57639  17.951   2.847   5.953  0.1822  0.0812 -0.1030
14727W        W57640  22.403   3.338   4.949  0.2040 -0.2977  0.1868
14728W        W57641  20.375   6.908   0.747  0.2064 -0.0554 -0.1720
14729W        W57642  27.280  15.442   7.731  0.0206 -0.0357  0.3161
14730W        W57643  18.797  14.651   0.123 -0.0420 -0.2868  0.1656
14731W        W57644  23.229  18.069  27.910  0.0546  0.1483  0.2427
14732W        W57645  26.000  13.071   2.832 -0.0453  0.2607 -0.0757
14733W        W57646  15.669  21.268   6.196 -0.1457  0.2452 -0.2599
14734W        W57647  24.430  15.145  28.686  0.0370 -0.1020  0.0512
14735W        W57648  28.734  10.229   4.105 -0.2440  0.3083 -0.1257
14736W        W57649  16.830  27.900   0.712 -0.0398  0.1427  0.0581
14737W        W57650   7.134  18.321   4.751 -0.1298 -0.3892 -0.0110
14738W        W57651  20.744   9.959   9.687  0.0662  0.0128 -0.0931
14739W        W57652  18.343  33.171   6.724  0.2685 -0.0602  0.0784
14740W        W57653  19.961  14.272   0.779 -0.1481 -0.0170 -0.0745
14741W        W57654  16.365  16.143   7.542 -0.0959  0.3218 -0.1964
14742W        W57655  20.381  23.905   2.960 -0.0808  0.3512 -0.1027
14743W        W57656  19.443  17.976   8.097  0.1314 -0.1770 -0.0930
14744W        W57657  15.342  15.075   8.157 -0.3351 -0.0040 -0.0167
14745W        W57658  16.430  19.914   4.662 -0.1352 -0.0939 -0.0707
14746W        W57659  18.596  18.861   0.934 -0.1000 -0.0373  0.1755
14747W        W57660  17.515  18.546  25.087 -0.1287 -0.1068  0.2108
14748W        W57661  21.950  19.654   7.533 -0.1500 -0.1428  0.1949
14749W        W57662  21.159  20.422   4.774 -0.0392 -0.0729 -0.1821
14750W        W57663  12.108  29.624   9.508  0.0640 -0.0805  0.0849
14751W        W57664  13.610  19.993   2.505  0.2467 -0.1872  0.3697
14752W        W57665  14.431  20.423  21.133  0.1814  0.0152  0.0127
14753W        W57666  18.799  15.778   5.965  0.0446  0.2352 -0.0001
14754W        W57667  19.795  14.590   2.488  0.1178  0.0427 -0.3491
14755W        W57668  18.625  27.295   9.003 -0.3083  0.2614  0.2128
14756W        W57669  22.742  14.333   5.496  0.0148 -0.0882 -0.2008
14757W        W57670  25.361  13.960   9.503  0.0346  0.0674 -0.0426
14758W        W57671  23.930  18.871  26.368 -0.1292 -0.0033 -0.1604
14759W        W57672  20.448  18.283  29.759 -0.1209  0.3051  0.3126
14760W        W57673  14.977  15.308  23.771  0.1138 -0.2325  0.2203
14761W        W57674  25.344  27.211  24.706  0.0909 -0.4071  0.1092
14762W        W57675  15.331   6.982  28.341  0.1377  0.1022  0.0271
14763W        W57676  19.507  12.441  20.410  0.1254  0.1471  0.0787
14764W        W57677  22.236  13.387   4.583  0.1067  0.2716 -0.2596
14765W        W57678   7.776  27.631   5.917 -0.1187  0.1797  0.2428
14766W        W57679  18.524  19.166   3.860 -0.0531 -0.0308 -0.2307
14767W        W57680  26.128   7.372   2.472 -0.0792 -0.0274 -0.1390
14768W        W57681  23.136  29.906   5.668  0.0759 -0.0106  0.1786
14769W        W57682  15.401  10.816   5.938 -0.0286 -0.0099  0.0956
14770W        W57683  19.305  20.457  26.489  0.2658 -0.1188 -0.0201
14771W        W57684  19.701  32.698   5.478  0.2548 -0.2429 -0.0111
14772W        W57685  11.680  19.298   3.768  0.0366  0.0314 -0.2576
14773W        W57686  20.062  21.764   2.026  0.0804  0.2768  0.0780
14774W        W57687  21.287  19.368   5.465 -0.1630 -0.0005  0.1510
14775W        W57688  26.829  18.752   1.592  0.0578  0.1890 -0.1750
14776W        W57689  15.117  33.240   4.844  0.3177  0.3372 -0.0394
14777W        W57690  27.423  22.092   8.224 -0.4666 -0.1345 -0.0816
14778W        W57691  18.999  21.669   5.101  0.0494 -0.3275 -0.2680
14779W        W57692  15.904  17.829   6.385  0.0836  0.1033  0.0392
14780W        W57693  20.886  17.286   3.753 -0.2627  0.4334  0.1410
14781W        W57694  18.916  20.949   5.188 -0.3031  0.1197 -0.1148
14782W        W57695  27.538  16.034   7.691 -0.1265  0.0262  0.3666
14783W        W57696  14.416   9.082   0.918 -0.0865  0.2215 -0.3895
14784W        W57697  17.291  15.221  27.009  0.1768 -0.4188  0.0290
14785W        W57698  28.672  10.564   5.091  0.0082 -0.3744 -0.0151
14786W        W57699   7.976  17.740   6.659  0.2598 -0.1136  0.3036
14787W        W57700  24.541  17.458   4.451 -0.0528  0.1165  0.0599
14788W        W57701  20.607  25.064   6.606 -0.2325 -0.1294  0.1756
14789W        W57702  22.178  11.856   1.392 -0.1367 -0.0215  0.1475
14790W        W57703  23.790  12.282   3.918 -0.0367 -0.1341  0.0514
14791W        W57704  24.583  22.841   8.269 -0.0096 -0.1725 -0.0502
14792W        W57705   3.797   4.880  27.730 -0.2150  0.0548 -0.1634
14793W        W57706  17.456  15.256   0.081 -0.2012  0.3493 -0.1908
14794W        W57707  21.508  21.296   4.464  0.2264  0.3949 -0.0819
14795W        W57708  11.105  26.592   6.702  0.2214  0.2612 -0.1437
14796W        W57709  20.172  29.218   4.763  0.2758 -0.1802  0.1005
14797W        W57710  15.034  17.899   7.394 -0.3887 -0.0667  0.1463
14798W        W57711  23.344   8.218   2.543 -0.3055  0.2759 -0.1416
14799W        W57712  28.133  24.238  25.692  0.0047 -0.1412  0.1235
14800W        W57713  24.277  23.574  25.178 -0.4258  0.2438  0.0684
14801W        W57714  12.476  10.351   3.849  0.0238  0.0528 -0.2468
14802W        W57715  22.803  15.417   6.386 -0.2723 -0.0226 -0.0028
14803W        W57716  19.107  23.534   4.771  0.1622 -0.0635  0.2263
14804W        W57717  16.578  17.374  28.750  0.0643  0.2077  0.1775
14805W        W57718  14.049   9.165   8.969 -0.3214 -0.2067  0.1228
14806W        W57719  15.417  16.094   5.436 -0.2183  0.0324  0.0881
14807W        W57720  18.141   6.318   9.467 -0.1583  0.0466  0.0689
14808W        W57721  13.887  22.386   3.242  0.5376 -0.1908  0.0268
14809W        W57722  14.443  21.728   0.875 -0.2500  0.2610 -0.2147
14810W        W57723  22.057   9.998   7.091  0.0381 -0.0149  0.1390
14811W        W57724  12.895  18.309   8.469  0.2518  0.2709  0.2164
14812W        W57725  14.221   9.220   6.627 -0.0649 -0.0054  0.0256
14813W        W57726  29.592  26.771   5.965 -0.0433  0.1520 -0.0386
14814W        W57727  26.696  21.476   8.589  0.0952  0.2556 -0.3349
14815W        W57728  16.140   1.866  29.539  0.0809  0.2399  0.1560
14816W        W57729   3.000  28.308  27.303 -0.0628  0.1505  0.0490
14817W        W57730  21.909  14.012   7.283  0.3716 -0.0187  0.1881
14818W        W57731  12.514  25.914   7.287  0.1344 -0.1830 -0.0220
14819W        W57732  19.778  15.109  29.059  0.0405 -0.3641 -0.0217
14820W        W57733  15.868  19.337  26.645 -0.0623  0.0636 -0.0336
14821W        W57734  27.110  10.047   8.809 -0.1837  0.0332 -0.2742
14822W        W57735  14.326  20.068  24.671  0.3044 -0.0753 -0.2902
14823W        W57736  16.556  24.511   5.660 -0.2097  0.1124  0.0508
14824W        W57737  24.690  11.616   7.217 -0.0264  0.1534 -0.0118
14825W        W57738  26.965  13.832   8.833 -0.1812 -0.1865 -0.0031
14826W        W57739  14.886  22.284   4.557 -0.3012  0.2393  0.0333
14827W        W57740  21.757   8.395   5.002  0.0658 -0.1516 -0.1185
14828W        W57741  20.393  16.652  28.854  0.0559  0.1646  0.1317
14829W        W57742  27.957  17.781   7.205  0.4217 -0.2027 -0.1873
14830W        W57743   6.085  16.134   8.603 -0.1265 -0.2333 -0.3310
14831W        W57744  24.431  16.150  23.368  0.3172  0.0412  0.0614
14832W        W57745  10.135   9.839   8.887  0.3283  0.1501 -0.0844
14833W        W57746  18.605  28.813   4.379 -0.0691 -0.2898 -0.0617
14834W        W57747  22.881  24.471   4.555  0.1870 -0.0095  0.1444
14835W        W57748  13.194  10.371   3.242 -0.1288  0.3213 -0.0870
14836W        W57749  28.299  20.502   7.596 -0.1381 -0.0490  0.0191
14837W        W57750  17.251  24.961   2.490  0.1952 -0.1280 -0.1886
14838W        W57751  12.347  16.799  27.618 -0.1383 -0.0597  0.0288
14839W        W57752  20.564  13.825   6.504  0.1700  0.2521 -0.1364
14840W        W57753  20.381  15.330   4.288  0.2503  0.1383  0.1710
14841W        W57754  13.670  23.240  28.345 -0.2225 -0.1408  0.1453
14842W        W57755  25.817  10.980   5.375  0.2382  0.1869  0.1225
14843W        W57756  31.128  21.641   5.397  0.0472  0.0709 -0.1222
14844W        W57757  10.956  27.752   5.278  0.0961 -0.0216  0.2418
14845W        W57758  18.691  16.864  28.552  0.2552 -0.0018  0.1729
14846W        W57759  19.085  22.498   1.538  0.1999  0.0682  0.1829
14847W        W57760  23.892  18.235   6.086  0.2195 -0.0217 -0.2348
14848W        W57761  17.377  14.321  22.248 -0.2014  0.1733 -0.2571
14849W        W57762  18.487  20.764  29.307 -0.1159  0.2236  0.1655
14850W        W57763  11.890  18.239  29.720  0.0076  0.1152 -0.0955
14851W        W57764  13.980  27.318   7.534 -0.1564  0.2787  0.0535
14852W        W57765  27.340  21.064   8.308  0.0072 -0.0195  0.0162
14853W        W57766  19.825  13.705   6.052  0.2133  0.0030  0.2427
14854W        W57767  17.976  18.110   2.469 -0.3755 -0.0048 -0.0311
14855W        W57768  20.052  18.917   8.873  0.0326  0.0418 -0.0195
14856W        W57769  20.776  22.188   7.788  0.2047 -0.0354 -0.0987
14857W        W57770  16.240   6.940   4.214  0.0579  0.1269 -0.1552
14858W        W57771  19.289  15.850   6.315  0.0822  0.0302  0.1722
14859W        W57772  16.328  14.034   2.404  0.0479 -0.0168 -0.0153
14860W        W57773  15.082  28.677   5.653  0.0515  0.1052 -0.1642
14861W        W57774  11.883  18.337  19.779 -0.1456  0.1127 -0.0261
14862W        W57775  33.219  24.230   6.023  0.2698 -0.1200  0.0402
14863W        W57776  17.810  21.970   7.236  0.1850 -0.0232 -0.0674
14864W        W57777   7.280  21.292   7.491 -0.1418  0.1070  0.2289
14865W        W57778  24.272   5.647  10.205  0.0381 -0.0884 -0.4010
14866W        W57779  20.247  24.757   3.243 -0.0288 -0.0911 -0.0367
14867W        W57780  17.651   9.518   2.310 -0.2934  0.1915 -0.0160
14868W        W57781  22.284  15.832   8.499  0.0058  0.1370 -0.0044
14869W        W57782  18.754  16.380   5.848 -0.2042  0.0141 -0.0221
14870W        W57783  20.047   9.206   4.407  0.1034  0.2040  0.3421
14871W        W57784  14.806  11.147   2.800 -0.2063  0.0424  0.0860
14872W        W57785  21.349  13.425   8.678 -0.1558  0.0611  0.4545
14873W        W57786  20.136  25.891   7.672  0.1606 -0.0242 -0.0198
14874W        W57787  22.455  27.377   5.707 -0.0376 -0.0488 -0.0980
14875W        W57788  16.707  16.946  27.901 -0.0083 -0.2660  0.3443
14876W        W57789  12.675  18.316   1.521  0.1276  0.0020 -0.2856
14877W        W57790  22.580  14.840   5.613  0.0748  0.2170  0.1045
14878W        W57791  14.565  16.912   7.994  0.2177 -0.0888 -0.0903
14879W        W57792  17.613  24.870   7.424  0.2373 -0.1653 -0.2763
14880W        W57793  19.642  34.087   7.817 -0.0549 -0.0781  0.0810
14881W        W57794  33.395  26.896   0.167 -0.2079  0.0712 -0.4667
14882W        W57795  33.579  18.892   8.241 -0.2341 -0.2366 -0.2720
14883W        W57796  12.315   5.314   5.871 -0.2603 -0.2086 -0.0290
14884W        W57797  17.500  20.030   7.906 -0.1463 -0.1239 -0.1043
14885W        W57798  24.382  15.393   0.066 -0.0557  0.0783  0.2481
14886W        W57799  10.020  19.713  27.306 -0.0744 -0.0424  0.1176
14887W        W57800   1.894  17.283  24.416 -0.1356  0.0804  0.2329
14888W        W57801  18.885  18.771  28.537 -0.1417 -0.1422  0.2549
14889W        W57802  24.300   7.997   1.111  0.2723 -0.0721 -0.1752
14890W        W57803  11.907   1.547   6.723  0.0350 -0.1714 -0.2706
14891W        W57804  21.261  14.799   7.561  0.2569 -0.1041 -0.0474
14892W        W57805  21.055   3.186   3.029  0.0685  0.0337 -0.0174
14893W        W57806  20.940  32.070   8.506 -0.1658  0.2382 -0.2433
14894W        W57807  21.126  19.628   6.256  0.1025  0.0258  0.3210
14895W        W57808  13.890  27.622   4.502 -0.1329  0.0204 -0.2411
14896W        W57809  26.304  17.793  29.422  0.2463 -0.0131 -0.1197
14897W        W57810  11.860   9.688   5.983 -0.1844  0.0171 -0.2631
14898W        W57811  11.973  32.565   7.571  0.2573  0.0517 -0.0588
14899W        W57812  17.820  18.675   6.371 -0.1432  0.1440 -0.0314
14900W        W57813  13.818  18.034   4.117 -0.0676  0.0108 -0.1615
14901W        W57814  19.335  25.856   5.791  0.2273 -0.0540  0.3187
14902W        W57815  27.975  16.358   3.968 -0.1796 -0.0169 -0.0414
14903W        W57816  18.093  18.011  24.467  0.4761 -0.3651 -0.0324
14904W        W57817  12.642   9.670  28.527  0.3214  0.1649  0.2598
14905W        W57818  24.396  14.715   5.911  0.2755 -0.5155  0.4284
14906W        W57819  25.176  21.616   6.936 -0.2836  0.0739 -0.1754
14907W        W57820  18.552  25.542   4.147 -0.1157  0.2221  0.1874
14908W        W57821  19.263  18.472   2.533  0.1356  0.1842  0.2008
14909W        W57822  12.666  24.661   7.289  0.0300  0.0600 -0.3396
14910W        W57823  14.946  18.743   3.436 -0.0391  0.0759  0.2006
14911W        W57824  26.781  14.315   7.994  0.2294  0.2332 -0.0606
14912W        W57825  23.750  16.468   5.224 -0.0277 -0.0228  0.0442
14913W        W57826  10.179  10.791   8.836 -0.1349  0.0656 -0.1166
14914W        W57827  17.728  12.845  27.949  0.2276 -0.1074  0.2921
14915W        W57828  18.866  25.878   5.356  0.1326 -0.1999 -0.0861
14916W        W57829  18.717  17.509   8.538  0.2046 -0.0363  0.0813
14917W        W57830  12.770   8.914   8.053 -0.1678 -0.1112  0.0973
14918W        W57831  24.784  13.614   8.272 -0.0324  0.2409 -0.1859
14919W        W57832  27.348  19.431   7.044 -0.0604  0.1585  0.4309
14920W        W57833  21.658  18.009  26.318  0.2910  0.0289  0.1268
14921W        W57834  20.432  23.957   5.892  0.2633 -0.2266  0.1935
14922W        W57835  32.634  23.148  27.914  0.0750 -0.0077  0.1773
14923W        W57836  24.055  19.569   7.976 -0.0783  0.0693  0.1766
14924W        W57837  25.205  23.589   5.656  0.0830  0.3053  0.1770
14925W        W57838  12.617  20.403   3.133  0.1187 -0.1921 -0.2335
14926W        W57839  20.319  15.960   3.203 -0.1157 -0.0161 -0.0495
14927W        W57840  18.698  15.535   2.064 -0.0681  0.1010 -0.0542
14928W        W57841  19.018  18.823   6.717 -0.0943 -0.0495 -0.0821
14929W        W57842  14.700  15.310   7.973  0.0558  0.3049  0.1351
14930W        W57843  18.950   2.619   3.437  0.1028  0.1114 -0.1464
14931W        W57844  20.098  20.346   7.510  0.0460 -0.2566  0.0615
14932W        W57845  19.414  16.351   5.074  0.0128 -0.2161  0.1355
14933W        W57846  27.932  22.877  22.825  0.1390  0.1199 -0.2064
14934W        W57847  16.882  15.964   6.760  0.1378 -0.0804  0.2720
14935W        W57848  14.571  25.072   3.379 -0.1155  0.2078 -0.0188
14936W        W57849  27.790  24.470   7.662 -0.1613  0.0642 -0.1226
14937W        W57850  13.558  24.927   6.244  0.2796 -0.1066  0.2620
14938W        W57851  21.480  21.473   8.129  0.3786 -0.2666  0.1081
14939W        W57852  32.170  31.825  28.758 -0.2840 -0.1904 -0.0551
14940W        W57853  10.991  26.947  10.577 -0.0452  0.0023  0.3501
14941W        W57854  21.220  13.575   2.065  0.1763 -0.1577 -0.1020
14942W        W57855  18.156  22.267   1.679  0.2232 -0.0352 -0.2336
14943W        W57856  16.522  17.472  24.982 -0.3734  0.1616  0.2195
14944W        W57857  17.752  16.151   1.910 -0.3527 -0.0130  0.2325
14945W        W57858  16.654  31.056  10.708  0.0526  0.1068  0.0852
14946W        W57859  20.439  26.512   6.320 -0.1825  0.3172 -0.3644
14947W        W57860  24.364  13.500   7.807 -0.1710  0.1520  0.0089
14948W        W57861  16.331  15.418   3.086  0.2324 -0.0344 -0.1277
14949W        W57862  24.918  26.759   5.326 -0.0505 -0.0697 -0.2522
14950W        W57863  18.192  14.405   1.360 -0.0694  0.2623  0.0402
14951W        W57864  24.049  13.015  27.376 -0.2174 -0.0581  0.0166
14952W        W57865  23.716  21.366   2.831  0.3020 -0.1853 -0.0094
14953W        W57866  15.009  22.661   7.946  0.1154 -0.0562  0.0269
14954W        W57867  18.972   9.139  29.567 -0.0756 -0.0951 -0.1593
14955W        W57868  16.132  23.395   2.434 -0.0714 -0.1576  0.1239
14956W        W57869  23.118  25.218  23.116 -0.1891 -0.0259  0.0905
14957W        W57870  31.772  27.000   6.345  0.0323  0.0095 -0.0855
14958W        W57871  15.560  26.766   9.625 -0.0668 -0.4143  0.4151
14959W        W57872  19.301  18.513   7.917 -0.2342 -0.0844  0.1378
14960W        W57873  24.619  16.668   8.966  0.0854  0.0207  0.0931
14961W        W57874  22.090  26.749   8.610  0.1597 -0.1978 -0.0266
14962W        W57875  19.414  16.891  26.474 -0.0701 -0.0556  0.0332
14963W        W57876  27.206  29.369   8.906 -0.0619 -0.2011  0.0471
14964W        W57877  25.884  18.006   6.762  0.3063  0.2063 -0.2179
14965W        W57878  16.288  21.215   6.716 -0.0899 -0.0105  0.3424
14966W        W57879  26.827  16.618   8.584  0.3591  0.2168 -0.3049
14967W        W57880  26.712  19.045   8.456  0.1863 -0.0422  0.1044
14968W        W57881  18.346   9.452   4.225 -0.0584  0.1474  0.3354
14969W        W57882  19.616  21.728   4.212 -0.1841  0.2584 -0.0932
14970W        W57883  18.075  26.828  25.051 -0.0183 -0.1812 -0.0267
14971W        W57884  23.559  20.446   8.137 -0.3377  0.1307  0.1179
14972W        W57885   9.167  20.051   2.112 -0.0011  0.1992 -0.0941
14973W        W57886  16.734  16.771   8.243  0.3306  0.0593 -0.0434
14974W        W57887  20.693  14.426   5.363 -0.3069 -0.1298  0.2325
14975W        W57888  20.138  15.739   0.207 -0.1232  0.0499  0.3773
14976W        W57889  21.725  16.909   4.049 -0.1816 -0.2582 -0.0241
14977W        W57890  10.497  12.128   7.299  0.2965 -0.0529 -0.1602
14978W        W57891  28.517  13.438   9.221  0.1828 -0.1374 -0.1266
14979W        W57892  17.217   7.877   4.565  0.0791  0.3891 -0.1437
14980W        W57893  21.499  23.424   5.468 -0.0697 -0.1339  0.0528
14981W        W57894  17.542  10.040   5.157 -0.0045  0.1829  0.1526
14982W        W57895  18.101  20.084   5.136  0.1440 -0.2155 -0.0515
14983W        W57896  12.659  27.138  28.788  0.1342  0.1705  0.4653
14984W        W57897  15.852  17.751   7.982  0.1118 -0.1114  0.1072
14985W        W57898  19.931  23.154   8.567 -0.0751  0.2160 -0.1088
14986W        W57899  16.789  17.948   0.155 -0.1356  0.0126  0.1476
14987W        W57900  21.878  20.736   5.785 -0.1426 -0.3724 -0.1574
14988W        W57901   8.083  17.257   6.599 -0.1069  0.2935 -0.0033
14989W        W57902  17.665  19.621  25.974 -0.2600 -0.2155 -0.0357
14990W        W57903  17.574  22.037   3.133 -0.1213 -0.1117 -0.0890
14991W        W57904  14.702  19.021   4.951  0.0976  0.0562  0.0477
14992W        W57905  19.119  19.948   1.027 -0.0404  0.0975  0.1988
14993W        W57906  11.294   9.000   2.595 -0.0775 -0.1669  0.0508
14994W        W57907  18.728   5.755   4.357  0.2071 -0.0866  0.0909
14995W        W57908  11.158  23.283   9.213  0.3043 -0.2772  0.1089
14996W        W57909  17.277  22.241   7.025  0.0394 -0.0043  0.2009
14997W        W57910  12.567  20.565  27.091  0.0963 -0.0382 -0.0593
14998W        W57911  18.525  15.529   7.868  0.0587 -0.0927 -0.0493
14999W        W57912  20.528  19.797  27.185  0.2671 -0.3290  0.0047
15000W        W57913  19.848  26.701   0.509 -0.1878  0.5528 -0.1255
15001W        W57914  19.718  24.514  25.257 -0.1725  0.0709 -0.1357
15002W        W57915  20.894  13.168  17.101 -0.5461  0.2515  0.3201
15003W        W57916  17.427  23.898   5.445  0.3025  0.1167 -0.0661
15004W        W57917  13.719  19.235   6.802  0.0950  0.0982  0.3349
15005W        W57918  17.356  18.499   6.311  0.2051 -0.0004  0.1129
15006W        W57919  16.156  16.260   1.936  0.0921  0.0579 -0.3297
15007W        W57920  20.745  16.141   7.274  0.1205  0.0765 -0.0111
15008W        W57921  30.089  24.992   9.450 -0.1486  0.1802  0.0027
15009W        W57922  17.034  16.216   6.370  0.2249 -0.0418  0.0657
15010W        W57923  17.384  18.573   7.706 -0.1304 -0.1800  0.3073
15011W        W57924  22.258  19.909   4.730 -0.1759 -0.2352 -0.2724
15012W        W57925  10.340  17.476   8.551 -0.2295 -0.2050 -0.1002
15013W        W57926  16.783  30.819   4.383  0.0385 -0.1014  0.2264
15014W        W57927  22.215  13.173   5.124 -0.4583 -0.0703  0.0997
15015W        W57928  14.364  17.057   2.644 -0.0370  0.0635  0.0078
15016W        W57929  28.455  20.049   5.724 -0.1320  0.1719 -0.2844
15017W        W57930  17.762  19.353  24.816 -0.4256 -0.0052 -0.0948
15018W        W57931  16.612  13.653   6.796  0.0792 -0.1398  0.1351
15019W        W57932  13.160  27.967   4.587  0.2133 -0.2285  0.2282
15020W        W57933  13.512  21.207   3.815  0.0912 -0.2711  0.3289
15021W        W57934  17.606  17.707   6.596  0.0099 -0.0542  0.2171
15022W        W57935  19.431  21.973   5.072 -0.0643  0.2026 -0.0651
15023W        W57936  11.211  19.625   5.909 -0.1775  0.1495  0.1332
15024W        W57937  16.782  12.043  27.451 -0.3660  0.0407  0.0269
15025W        W57938  11.355  22.379   8.496 -0.1698 -0.0810 -0.0029
15026W        W57939  28.043  25.318   8.688 -0.3428  0.0089  0.0843
15027W        W57940  14.860  21.880   4.230 -0.0883 -0.1291  0.5526
15028W        W57941  12.170  10.753   7.841 -0.2682  0.2644 -0.0851
15029W        W57942  27.408  21.109   3.435  0.0447 -0.0286 -0.0793
15030W        W57943  24.161  21.260   9.020  0.2128 -0.1248 -0.2137
15031W        W57944  18.348   8.341  29.463 -0.4763  0.1890 -0.0731
15032W        W57945  25.091  19.982   4.025  0.0273 -0.3010 -0.3882
15033W        W57946  20.377  17.772   8.195  0.3266 -0.0148 -0.0906
15034W        W57947  18.019  21.074  25.957 -0.2880 -0.0177  0.3072
15035W        W57948  14.492  11.252   3.698 -0.0014 -0.1217  0.1949
15036W        W57949  21.558  27.683  24.767  0.3419  0.1384 -0.0970
15037W        W57950  21.482  26.002  25.192 -0.2919 -0.0090 -0.0441
15038W        W57951  21.622  15.709   4.328  0.1533  0.1285  0.1668
15039W        W57952  21.545  11.451   7.331 -0.5643  0.2733 -0.2153
15040W        W57953  18.742   0.666   1.065 -0.0787 -0.0673 -0.0194
15041W        W57954  20.827  17.953  25.742 -0.0120  0.0171  0.0389
15042W        W57955  30.104  13.861   3.112  0.2256 -0.2694 -0.2685
15043W        W57956  19.581  17.112   3.144  0.0504 -0.2032  0.3005
15044W        W57957  23.330  14.383   7.693 -0.0244  0.2673 -0.2961
15045W        W57958  19.537  11.741   4.608 -0.1188  0.3689 -0.1963
15046W        W57959  26.002  16.815   9.597  0.5259  0.0320 -0.0950
15047W        W57960  22.059  19.574   6.553 -0.0105 -0.1206 -0.1994
15048W        W57961  22.987  20.874   8.645 -0.3166 -0.0909 -0.1746
15049W        W57962  20.195  27.040   7.469 -0.0240  0.0649 -0.1768
15050W        W57963  18.171  16.966   5.472  0.1010  0.0423 -0.0160
15051W        W57964  22.091   6.833   7.735  0.0934 -0.1609 -0.0828
15052W        W57965  17.781  29.668   2.012 -0.3084  0.1319  0.3923
15053W        W57966   0.797  11.553   2.727 -0.0620  0.2855 -0.2123
15054W        W57967  18.099  16.707  26.251 -0.1889  0.1043 -0.2188
15055W        W57968  24.650  27.244   4.644 -0.1689  0.0147 -0.3460
15056W        W57969  18.500  16.014  25.119  0.3449  0.1003 -0.0157
15057W        W57970   4.652  14.000   4.469 -0.1009  0.1005  0.0009
15058W        W57971  26.088  11.957  26.973 -0.3560 -0.2268 -0.3968
15059W        W57972  25.526  11.169   7.716  0.1032 -0.2225 -0.2434
15060W        W57973  14.378  21.643  28.304  0.4561 -0.1801  0.2172
15061W        W57974  21.023  20.211   5.628 -0.3773  0.1034  0.0360
15062W        W57975  17.955  22.117   1.206  0.0645 -0.1673  0.0459
15063W        W57976  30.482  30.452   4.232 -0.1758 -0.3221  0.0683
15064W        W57977  13.346   2.600   2.556  0.1150  0.2891 -0.1240
15065W        W57978  17.931  19.793   4.299  0.0064  0.3831 -0.0749
15066W        W57979  18.050  15.516   3.859  0.0355  0.0050  0.0590
15067W        W57980  18.335  14.357  26.724  0.1404 -0.0676 -0.0076
15068W        W57981  18.053  15.112  29.583 -0.0505  0.2686 -0.2555
15069W        W57982   8.909  16.722   3.499 -0.1261 -0.1811  0.0225
15070W        W57983  29.138  28.595   6.452  0.1802  0.0257  0.0414
15071W        W57984  18.536  15.865  28.822  0.0156  0.0385  0.1304
15072W        W57985  18.822  28.269   5.039 -0.3028 -0.3559  0.1525
15073W        W57986  16.443  19.719   5.988  0.1408 -0.1152 -0.2637
15074W        W57987  12.466  21.340   6.844  0.2201 -0.0406 -0.0946
15075W        W57988  12.491  21.985   9.124  0.4956  0.2335  0.1087
15076W        W57989  13.180  23.943   3.374  0.1571 -0.0464 -0.0448
15077W        W57990   6.343  24.112   3.030 -0.1253  0.0385  0.1781
15078W        W57991  24.383  14.716   3.994  0.2929 -0.0634  0.2091
15079W        W57992  29.060   8.613   6.649  0.2021 -0.0545 -0.0434
15080W        W57993  27.699  26.513   1.450 -0.2401  0.0218  0.3649
15081W        W57994  28.670  16.978   7.263 -0.0302  0.0238  0.1355
15082W        W57995  27.041  23.236   1.971  0.0582  0.0164 -0.1675
15083W        W57996  21.674  19.550  26.132  0.2519  0.0046 -0.0684
15084W        W57997  19.029  12.065   5.184 -0.2378  0.3259  0.1009
15085W        W57998  20.597  28.193   3.409 -0.3696  0.0125  0.0235
15086W        W57999  22.658  21.632   9.160 -0.3896 -0.0167 -0.1848
15087W        W58000  25.229   9.612   2.091  0.4149 -0.1853 -0.0585
15088W        W58001  32.764  17.879   5.623  0.0273 -0.0933 -0.3186
15089W        W58002  10.589  33.275   8.703  0.2435 -0.0670 -0.1015
15090W        W58003  19.904  22.981   8.092  0.0687  0.0601  0.0436
15091W        W58004   7.942  19.760   3.024 -0.0136 -0.0262 -0.2049
15092W        W58005  15.681  20.687   1.456  0.1970  0.1149 -0.3090
15093W        W58006  25.394  11.866   1.599  0.1472 -0.0103  0.0594
15094W        W58007  14.236  34.265   1.302  0.0257  0.3758  0.1415
15095W        W58008  27.982  11.743  10.264  0.1828 -0.0491  0.0840
15096W        W58009  28.727   5.969   6.331  0.0498  0.2821 -0.0750
15097W        W58010  14.940  15.314   5.678  0.2125 -0.1677 -0.2533
15098W        W58011   0.915  30.938   1.616 -0.0342 -0.3644 -0.1419
15099W        W58012  12.479  17.901  26.835  0.0996  0.0230  0.1980
15100W        W58013  34.332  17.705   5.686  0.0520  0.1560  0.1271
15101W        W58014  21.594  18.933   4.227  0.2922  0.1624 -0.1239
15102W        W58015  16.663  14.450   2.622  0.0314 -0.2320 -0.0626
15103W        W58016  24.847  18.366   4.644  0.1560  0.0307 -0.4272
15104W        W58017  15.628   3.858   3.634  0.3461 -0.1153 -0.1276
15105W        W58018  23.129  18.591   6.409  0.3417  0.0354  0.0734
15106W        W58019  16.952  22.808   4.889 -0.0609 -0.3795  0.0584
15107W        W58020   5.214   9.078   3.263  0.0941 -0.0510  0.1887
15108W        W58021  25.770  15.353  27.071  0.0891  0.1226  0.0563
15109W        W58022  28.006  28.921   1.811  0.1597  0.0339  0.0596
15110W        W58023  16.593  22.501   4.841  0.2290 -0.2343 -0.2010
15111W        W58024  25.994  30.990   3.971 -0.1513 -0.1117 -0.1663
15112W        W58025  17.996  13.634   1.020 -0.0063  0.0894  0.3444
15113W        W58026  19.680  19.022   7.378 -0.1358 -0.3310  0.1941
15114W        W58027  17.716  16.739   8.080 -0.0974  0.0340  0.0034
15115W        W58028  18.425  21.561  27.700 -0.2709 -0.1059 -0.3687
15116W        W58029  17.757  22.102  26.768  0.2803  0.1026 -0.0317
15117W        W58030  20.862  11.668  27.959  0.2321  0.0281  0.4264
15118W        W58031  19.198  17.752  25.911  0.0667 -0.1366  0.1479
15119W        W58032  15.791  21.386   5.227 -0.0939 -0.1056  0.1586
15120W        W58033  19.646  16.989   7.809 -0.1073 -0.2534  0.0641
15121W        W58034  20.078  21.251  24.933 -0.0742 -0.0809 -0.2273
15122W        W58035  21.953  26.262   1.864 -0.0361  0.3999  0.0731
15123W        W58036  23.699  16.376   6.733  0.0878 -0.0829  0.0316
15124W        W58037  19.311  24.760   6.139  0.0920  0.0843  0.0483
15125W        W58038  10.243  23.591   0.073 -0.0804 -0.1012 -0.3151
15126W        W58039  18.945  18.261   5.486 -0.1358 -0.1747  0.4455
15127W        W58040  21.032  26.256   3.781 -0.2000  0.1363  0.0458
15128W        W58041  26.404  16.390   8.261  0.0634 -0.0814  0.0092
15129W        W58042  20.451  11.874  25.312  0.1039 -0.1030 -0.1581
15130W        W58043  24.156  12.640   7.875 -0.2243  0.1227  0.1308
15131W        W58044  20.130  22.053   2.893  0.3148  0.1003 -0.0653
15132W        W58045  26.955  19.753  25.407  0.0991 -0.3214 -0.2056
15133W        W58046  21.135  26.782   0.225  0.2818 -0.2188 -0.4760
15134W        W58047   7.214  21.257   8.221 -0.0770 -0.0185 -0.0864
15135W        W58048  15.132  19.966  29.204  0.0588  0.1400 -0.2484
15136W        W58049  13.062  21.045  29.697  0.1193  0.0236 -0.1682
15137W        W58050  17.553  26.343   4.916  0.7329  0.1131  0.2925
15138W        W58051  14.535  25.871   5.679 -0.1820  0.0286  0.2800
15139W        W58052  20.755  22.568   6.634 -0.1612  0.1997 -0.0380
15140W        W58053  16.972  15.748   5.827  0.2807 -0.0505 -0.1675
15141W        W58054  17.403  28.663  28.242 -0.0991  0.0716  0.0536
15142W        W58055  26.588  12.949   4.611 -0.0186  0.0798 -0.2495
15143W        W58056  12.452  25.091  27.434  0.0880 -0.0216 -0.4092
15144W        W58057  16.804  27.286   4.852  0.0012  0.1443  0.1911
15145W        W58058  21.373  22.101   3.202 -0.4207  0.1914 -0.2183
15146W        W58059  15.465  28.227   4.411  0.2190  0.0293  0.1881
15147W        W58060  10.572  27.260   8.124 -0.0210 -0.0335 -0.1747
15148W        W58061   2.757   6.394  28.873  0.1622 -0.0262  0.0506
15149W        W58062  24.540   6.687   9.035 -0.1716  0.1885 -0.0807
15150W        W58063  27.391  20.681   7.201 -0.0225 -0.0990  0.1064
15151W        W58064  16.793  17.425   2.870  0.1339 -0.1763 -0.1895
15152W        W58065  17.958  24.276   4.855 -0.0361  0.1091  0.0362
15153W        W58066   3.392  16.491   9.152 -0.2589 -0.0506  0.0235
15154W        W58067  29.449  13.675   6.879 -0.1846 -0.1887  0.2743
15155W        W58068   8.622  21.535   4.976 -0.0713  0.1536  0.0876
15156W        W58069  31.707  15.867   9.594 -0.0140 -0.0717 -0.1996
15157W        W58070   4.730  13.956   2.779 -0.1188 -0.0685 -0.0386
15158W        W58071  22.050  13.636   8.037  0.3338 -0.0574 -0.0811
15159W        W58072  23.308  24.837   8.576 -0.2365  0.1571  0.0733
15160W        W58073  12.174   3.304  10.268  0.2597  0.1230 -0.3052
15161W        W58074  24.245  16.120   4.455  0.1413 -0.0224 -0.1913
15162W        W58075  13.497  25.868   6.032  0.2676 -0.1314  0.2746
15163W        W58076  29.063  23.003   7.679 -0.2000  0.1164  0.2150
15164W        W58077  15.799  17.306  22.535 -0.1889  0.3667  0.1100
15165W        W58078  20.402  32.136   6.063  0.0537  0.0429  0.3151
15166W        W58079  28.687  16.392   6.801  0.2642 -0.0327  0.0214
15167W        W58080  21.004  14.980   5.199  0.2538 -0.2845 -0.0756
15168W        W58081  16.997  19.210  29.070 -0.1250 -0.4363 -0.0592
15169W        W58082  26.297  31.115   5.680  0.0065  0.2695 -0.2460
15170W        W58083  20.771  11.288  29.237 -0.1331 -0.0804  0.2315
15171W        W58084   0.001  21.796   6.094 -0.1308 -0.0068 -0.3082
15172W        W58085  12.734   6.653   4.331 -0.1081  0.2352 -0.1136
15173W        W58086  21.994  14.660   1.791 -0.0235 -0.1258  0.0091
15174W        W58087  27.416  15.843  27.076  0.3749  0.0909 -0.1451
15175W        W58088  17.865  24.587   6.143 -0.0551  0.0297  0.1487
15176W        W58089  20.714  19.845   7.772 -0.0121  0.1164 -0.0359
15177W        W58090  32.916  10.464   7.981 -0.1849  0.2142 -0.3164
15178W        W58091   7.883   2.761  12.264  0.0207 -0.0046  0.1439
15179W        W58092  17.052  13.189  28.681 -0.0777 -0.2658 -0.3668
15180W        W58093  14.964  28.025   5.179 -0.1044 -0.1640 -0.0548
15181W        W58094  18.972  14.950   4.852 -0.3357  0.2675  0.2720
15182W        W58095  14.018  29.445   0.878  0.4637  0.0430 -0.0401
15183W        W58096  15.562  16.113   4.080  0.1028  0.2525 -0.0899
15184W        W58097  15.183  24.981  29.658 -0.0533  0.2784 -0.3883
15185W        W58098  18.250  21.493   2.035 -0.0724  0.0099 -0.1371
15186W        W58099  23.968  27.038  29.466 -0.3544 -0.1091 -0.2263
15187W        W58100  28.052  28.775   1.354  0.1881  0.1758 -0.2290
15188W        W58101   7.940  20.283  24.559 -0.0062  0.0199 -0.0700
15189W        W58102  13.763  20.445  28.340  0.0438  0.1265 -0.0675
15190W        W58103  13.787   8.553   7.968 -0.1536  0.1454 -0.2546
15191W        W58104  14.980  26.103  24.477 -0.0679 -0.1793  0.0601
15192W        W58105  22.423  25.328   0.728 -0.1500 -0.1615 -0.0822
15193W        W58106  30.333   4.609  25.957  0.0129  0.0870  0.0533
15194W        W58107  15.511  27.187  28.806 -0.5341 -0.1800 -0.1566
15195W        W58108  14.884  26.430   9.922 -0.0140 -0.2412 -0.2259
15196W        W58109  18.314  18.061   2.946 -0.0961  0.4828  0.1826
15197W        W58110   6.313  28.660   9.629  0.1281 -0.1787  0.0090
15198W        W58111  20.018  30.830   6.351  0.0416  0.0856 -0.1397
15199W        W58112  25.075  29.105   7.335 -0.0013  0.2160 -0.0185
15200W        W58113  12.236  21.714   4.841 -0.0406 -0.2534  0.0253
15201W        W58114  17.739   1.847   4.886  0.0006 -0.0732 -0.1844
15202W        W58115  17.969  17.203  26.197 -0.1400 -0.1318  0.1373
15203W        W58116  16.184  20.858  24.012 -0.0149 -0.0201  0.2144
15204W        W58117  26.395  32.577  26.537 -0.1757  0.2591 -0.3476
15205W        W58118  18.682  17.469  28.477  0.1545 -0.0640 -0.0066
15206W        W58119  17.992   3.755   8.654  0.0932  0.0371 -0.2635
15207W        W58120  21.011  12.807  27.412  0.2562  0.1644  0.0883
15208W        W58121  22.940  16.590  14.168  0.1039  0.2569 -0.3076
15209W        W58122  26.081  28.077  26.673 -0.1833  0.0005 -0.3353
15210W        W58123  19.749  22.727   4.939  0.1062 -0.1286 -0.2049
15211W        W58124  20.234  26.026  22.362 -0.1660 -0.0978  0.2057
15212W        W58125  18.888  34.005   4.299 -0.0008 -0.0351 -0.0294
15213W        W58126  17.709  18.784   5.075  0.2832  0.3662  0.2704
15214W        W58127  15.756  24.306   6.201  0.1798  0.2711 -0.1386
15215W        W58128  15.339  23.311   0.506  0.0240  0.1909 -0.1800
15216W        W58129  19.119  28.459   0.480  0.0281 -0.1926  0.1195
15217W        W58130  24.959  22.595   0.091 -0.1070  0.1267  0.2382
15218W        W58131  20.011  27.617  10.009  0.0593  0.0712  0.1881
15219W        W58132  18.907  15.119   1.924  0.1189  0.3664  0.1301
15220W        W58133  29.811  25.064   4.083  0.0614  0.3839 -0.2635
15221W        W58134  18.834  22.429   0.477  0.2495 -0.0890  0.0764
15222W        W58135  12.607  23.805  24.071  0.1324 -0.0811  0.0741
15223W        W58136   0.991  28.199   8.505 -0.1818  0.1663  0.2162
15224W        W58137  17.179  17.185  23.551  0.0948  0.0568  0.2600
15225W        W58138  23.355  34.095   1.148 -0.2116  0.2654 -0.1179
15226W        W58139  23.538  21.808  26.641  0.0753  0.5321 -0.3340
15227W        W58140  20.982  27.602  25.880 -0.2204 -0.1571 -0.2646
15228W        W58141  14.259  22.695   3.835  0.0999 -0.1885  0.1719
15229W        W58142  21.351  26.474   5.769  0.3480  0.2147 -0.2343
15230W        W58143  13.473  26.344   1.955 -0.0354 -0.1800 -0.3562
15231W        W58144  24.124  21.899   0.101  0.3371  0.0564  0.0246
15232W        W58145  31.337  27.440   6.709 -0.1694  0.3904 -0.1015
15233W        W58146  12.435  16.572  23.833 -0.0541 -0.0486 -0.2315
15234W        W58147  12.715  28.106  25.435  0.4131 -0.0045 -0.0450
15235W        W58148   0.325  18.427  25.315  0.0760  0.0293  0.1064
15236W        W58149  23.761  21.997  27.218 -0.1708  0.3963  0.0514
15237W        W58150  26.543  31.189  28.882  0.0312  0.0709  0.1437
15238W        W58151  20.844  31.703   2.383 -0.0635 -0.2123  0.1686
15239W        W58152  13.093  27.695  10.193 -0.0301 -0.1177 -0.1363
15240W        W58153  25.262  27.206  27.022 -0.0235  0.1211 -0.0000
15241W        W58154  17.409  15.342   1.002  0.4243  0.0917 -0.0585
15242W        W58155  12.919  26.886   6.127  0.1012 -0.0520 -0.2871
15243W        W58156  16.716  20.016   6.285  0.0973 -0.0730  0.2039
15244W        W58157  12.599  26.058  22.142 -0.1393 -0.6714  0.0219
15245W        W58158  26.151  26.829  19.036 -0.4322 -0.2740  0.0986
15246W        W58159  26.483  18.427  12.658 -0.0591  0.0915 -0.0231
15247W        W58160  26.647  14.219   9.082  0.1780  0.3056 -0.4376
15248W        W58161  19.026  23.327  22.155 -0.1290  0.0387 -0.1703
15249W        W58162  21.129  22.208   6.316  0.1435  0.0581  0.0632
15250W        W58163  10.847  19.771  26.801  0.1065 -0.0306 -0.0741
15251W        W58164  22.569  14.647  27.415 -0.2007 -0.0078  0.3659
15252W        W58165  21.840  13.554   3.399 -0.1519  0.0139  0.1116
15253W        W58166  14.970   0.364   7.754 -0.1010  0.0253  0.0517
15254W        W58167  24.880   2.886   8.214  0.2055 -0.2062 -0.1674
15255W        W58168  25.497  16.042   6.444  0.0881  0.1052  0.2149
15256W        W58169  13.944  15.124  27.340  0.0999  0.1707  0.0182
15257W        W58170  18.397  22.571  25.586 -0.0244 -0.0766 -0.0195
15258W        W58171  19.504  10.539   2.969  0.0825 -0.0006  0.1027
15259W        W58172  18.672  23.927  21.188  0.1675  0.0817  0.2373
15260W        W58173  21.890  23.890   8.324  0.2334 -0.0683  0.3147
15261W        W58174  15.985  17.240   1.971 -0.0364 -0.2346 -0.1681
15262W        W58175  21.808   2.045  28.483  0.3693 -0.3701  0.0927
15263W        W58176  21.254  31.106   2.805  0.0131  0.2013 -0.1809
15264W        W58177   7.980  30.536   2.199  0.3050 -0.0730 -0.1489
15265W        W58178  23.422  21.371   3.679 -0.1456 -0.1648  0.1674
15266W        W58179  17.055  34.260  26.639 -0.0356  0.0837  0.2419
15267W        W58180  23.424  25.398   2.637 -0.0983  0.1760 -0.4366
15268W        W58181  11.918  23.731   7.300  0.0385 -0.0035 -0.3156
15269W        W58182  21.768  23.242  29.396 -0.4806  0.2251 -0.2069
15270W        W58183   8.317  15.598   6.026  0.0822  0.1386  0.2186
15271W        W58184  11.595  19.196   4.726 -0.0679 -0.2075 -0.1937
15272W        W58185  12.334  19.772  27.687  0.3044 -0.1873 -0.3571
15273W        W58186  19.780  16.348   2.481  0.0775 -0.1538 -0.0060
15274W        W58187  13.502  27.663  26.804  0.0602  0.0208 -0.1134
15275W        W58188  19.238  28.077  27.331  0.0668  0.0347  0.0391
15276W        W58189  14.952  19.906  21.618  0.3210 -0.4359 -0.2479
15277W        W58190  23.239  10.292  14.741 -0.4020  0.3022 -0.1172
15278W        W58191  25.283  15.205   2.429  0.1200 -0.2736 -0.1499
15279W        W58192  19.676   1.247  26.239 -0.4090 -0.0613 -0.0310
15280W        W58193  18.404  20.009  23.597  0.1223  0.6144 -0.1963
15281W        W58194  25.051  29.150   7.837 -0.1988  0.0180 -0.1334
15282W        W58195   9.953  31.659   6.217 -0.0866  0.0130 -0.1927
15283W        W58196  19.735  23.961  26.529 -0.0942 -0.4089 -0.0902
15284W        W58197  17.955  26.387   2.182 -0.0032  0.0709  0.4223
15285W        W58198  11.827  20.696   6.591 -0.0084  0.3960 -0.1045
15286W        W58199   6.110  19.593   5.013 -0.1270  0.0798 -0.3312
15287W        W58200  25.575  20.822   0.942 -0.1025  0.3727 -0.0081
15288W        W58201  20.596  19.918  19.035 -0.4364  0.2415  0.0581
15289W        W58202  19.676  20.293   0.453 -0.0123 -0.0426  0.2761
15290W        W58203  14.135  30.923   6.561 -0.0473  0.2252  0.0117
15291W        W58204  27.416  28.278  16.586 -0.2173 -0.0777  0.1048
15292W        W58205  19.387  11.838   3.122 -0.2380 -0.0019  0.2652
15293W        W58206  31.317  18.246   7.480  0.0531  0.0057 -0.0262
15294W        W58207  25.589  15.781   1.770  0.1224  0.1308 -0.2027
15295W        W58208  23.129  32.476   7.558 -0.1903 -0.1254 -0.1225
15296W        W58209  18.441  28.600   4.947 -0.3015 -0.0701 -0.0501
15297W        W58210  18.170  15.249  27.123 -0.0774  0.3639  0.2747
15298W        W58211  25.320  23.553  29.531 -0.0920 -0.0760  0.1810
15299W        W58212  25.143  20.726   6.909  0.0015 -0.0352  0.2907
15300W        W58213  21.388  22.200   4.167 -0.0283 -0.0455 -0.1655
15301W        W58214  12.751  15.243   1.564 -0.0291  0.0437  0.3014
15302W        W58215  19.675  31.061  27.232 -0.1238 -0.3416  0.0801
15303W        W58216  21.195  24.564   0.308  0.2913 -0.2086  0.0363
15304W        W58217  18.345  27.756   3.303 -0.2359  0.2093 -0.1035
15305W        W58218  14.854  22.449  29.194  0.0582 -0.1465 -0.2877
15306W        W58219  19.381  18.976   4.664 -0.1709  0.0236 -0.0409
15307W        W58220  24.559  29.845  26.139  0.0522  0.2899  0.0983
15308W        W58221  21.037  28.740   4.772 -0.4024 -0.3409 -0.1156
15309W        W58222  14.256  31.832   9.410 -0.0138  0.0949  0.2708
15310W        W58223  29.682  26.364   8.518  0.2350  0.1882 -0.0499
15311W        W58224  19.040  24.878  28.957 -0.1068  0.1466 -0.1380
15312W        W58225  15.470  25.194  27.999  0.2318  0.3231  0.0900
15313W        W58226  23.840  21.512   4.892 -0.2435 -0.1119  0.0189
15314W        W58227  20.068  20.047  24.610  0.4378  0.1581 -0.1375
15315W        W58228  26.843  19.456  28.555  0.2404 -0.2752  0.0176
15316W        W58229  16.506  25.277   4.246  0.2875 -0.1133 -0.2975
15317W        W58230  23.625  23.353   7.971 -0.0858  0.1293 -0.0638
15318W        W58231  16.696  26.342   6.936 -0.0591  0.1353 -0.0494
15319W        W58232  27.040  23.615  24.268  0.4038 -0.2058 -0.4139
15320W        W58233  12.532  22.699   0.300  0.0678 -0.1276 -0.2526
15321W        W58234  17.955  22.429  19.682  0.1243 -0.2619  0.3593
15322W        W58235   9.436  27.984   3.443  0.3626  0.2128 -0.3552
15323W        W58236  19.897   9.172  14.775 -0.0197  0.0454 -0.0719
15324W        W58237  25.469  24.178   2.248  0.1168 -0.0209  0.0008
15325W        W58238  17.476  28.601   0.208  0.1962 -0.2672 -0.2155
15326W        W58239  16.233  17.129   6.456  0.0990 -0.0385  0.3526
15327W        W58240  14.251  24.911  17.350  0.0046 -0.1726 -0.0929
15328W        W58241  25.159  26.835   6.746 -0.1880 -0.0362 -0.1800
15329W        W58242  19.371  20.908  22.722  0.1386 -0.1050 -0.2851
15330W        W58243  12.742  25.748   4.438 -0.1903 -0.1438  0.2877
15331W        W58244   8.252  26.324  28.941 -0.5082 -0.0626 -0.3211
15332W        W58245  22.129  24.351   7.140 -0.2316  0.1958  0.0853
15333W        W58246  17.553  19.831   1.640 -0.2325  0.3670 -0.2904
15334W        W58247  23.073  25.390   3.483  0.0038 -0.1228  0.0871
15335W        W58248  17.563  26.691  25.124  0.0429  0.1873  0.0260
15336W        W58249  24.385  22.584   7.079 -0.0691 -0.1074  0.0445
15337W        W58250   9.895  29.223   7.221 -0.1538  0.0677  0.1752
15338W        W58251  23.930  24.580   2.840  0.1161  0.0628  0.1268
15339W        W58252  17.967  33.819   0.666 -0.1874 -0.2454  0.1142
15340W        W58253  13.358  23.915  26.929 -0.0354  0.0084  0.0095
15341W        W58254  23.189  30.893   3.751  0.1362 -0.1025  0.1412
15342W        W58255  22.642  25.644   3.576  0.3170 -0.0807 -0.1910
15343W        W58256   8.498  20.381   5.785 -0.4100  0.0900  0.0281
15344W        W58257  18.095  28.763  26.595 -0.0193  0.0022 -0.0733
15345W        W58258  27.612  17.635  27.138  0.0090  0.2018  0.3625
15346W        W58259  19.391  14.859   4.440  0.2611  0.0870 -0.2691
15347W        W58260  23.758  29.733  13.069 -0.2108  0.0458  0.2066
15348W        W58261  20.651  21.928  22.669  0.2247 -0.1481  0.0085
15349W        W58262  23.621  30.346  26.924  0.4326  0.1283  0.0120
15350W        W58263  22.028  27.562   1.096 -0.1432 -0.1243  0.1545
15351W        W58264  28.021  14.102  27.746  0.0749  0.1115 -0.0738
15352W        W58265  14.388  20.629  29.467  0.2796 -0.1404 -0.0744
15353W        W58266   6.639  23.217   5.553 -0.0388 -0.0343  0.1706
15354W        W58267  13.592  18.765   2.134  0.0130 -0.0935 -0.0099
15355W        W58268  24.276  18.740  26.035  0.0270 -0.1339 -0.0257
15356W        W58269  21.336  28.984   8.978 -0.3307  0.1336  0.2007
15357W        W58270   1.941  25.632   0.262 -0.0834 -0.0258 -0.0170
15358W        W58271  10.845  18.849  24.020  0.2977 -0.0726 -0.0186
15359W        W58272  22.344  27.950  28.034 -0.1952 -0.0141  0.5595
15360W        W58273  33.822  33.841   7.992  0.0688  0.0945  0.1485
15361W        W58274  12.668   8.956  28.022 -0.0833 -0.2485  0.1999
15362W        W58275  20.486   0.365   2.889  0.5100 -0.1659  0.1193
15363W        W58276  14.977  21.581  26.019 -0.2682 -0.0857 -0.0325
15364W        W58277  25.675   3.974   7.443  0.1886  0.0426  0.2422
15365W        W58278  20.570  17.212   5.097  0.2704 -0.2196  0.0657
15366W        W58279  32.490  21.968   3.391 -0.1614  0.1515 -0.1343
15367W        W58280  23.269   3.922   2.467  0.0645 -0.0499  0.3848
15368W        W58281  19.007  24.525  28.370 -0.0819 -0.0689 -0.2700
15369W        W58282  23.710  20.212   0.235  0.0408  0.1845  0.3957
15370W        W58283  21.971  17.850   5.383 -0.1587  0.0042 -0.2031
15371W        W58284  24.548  19.407   3.352  0.2057 -0.2222 -0.1816
15372W        W58285   2.767  25.727   9.119  0.0392 -0.2212  0.2931
15373W        W58286   6.437  16.562   7.988  0.3615  0.0122  0.1168
15374W        W58287  18.256  34.097   6.277 -0.0441 -0.1138  0.0556
15375W        W58288  12.486  12.239   8.465  0.1448 -0.1060  0.3965
15376W        W58289  16.117  18.237   5.354  0.0958  0.1311 -0.1771
15377W        W58290  17.219  27.021   8.495 -0.1151 -0.0054  0.0731
15378W        W58291  15.290  24.720   5.373 -0.0831  0.0821 -0.0748
15379W        W58292   2.339  27.680   6.329  0.1651  0.3416 -0.2148
15380W        W58293  23.712  22.261   0.392 -0.3288  0.5946  0.2476
15381W        W58294  32.068  23.158   2.292 -0.1440 -0.0960 -0.1192
15382W        W58295  11.491  32.985  19.531  0.3928  0.1030  0.2199
15383W        W58296  26.840  26.871  26.535 -0.2417  0.1928  0.0569
15384W        W58297  17.203  24.335  27.676 -0.1730 -0.2242  0.2380
15385W        W58298  31.243  17.733   4.046  0.0113  0.2417 -0.0627
15386W        W58299  21.564  15.838  21.132  0.1519  0.0713 -0.3002
15387W        W58300  15.378  34.222   0.853 -0.1259  0.1232 -0.0040
15388W        W58301   7.428  28.775  28.697 -0.1077  0.2647 -0.3967
15389W        W58302  22.652  21.926  27.686 -0.2255  0.0827  0.0107
15390W        W58303  20.633  22.506   0.692  0.2082 -0.0322 -0.3966
15391W        W58304  16.888  26.444  19.599 -0.0811  0.0760 -0.3365
15392W        W58305  15.116  18.209   2.072 -0.1455  0.1854  0.2589
15393W        W58306  18.684  29.653   6.687  0.1143  0.0744 -0.1439
15394W        W58307  13.030  17.140  28.787  0.0041  0.1988 -0.0016
15395W        W58308  14.020  17.148   5.617 -0.3268  0.0905  0.0902
15396W        W58309   9.870  24.274  24.668 -0.0413  0.2027  0.0737
15397W        W58310  17.401  25.589  29.392  0.0535 -0.0345  0.4211
15398W        W58311  22.529  18.734   4.643 -0.1023  0.2581  0.0609
15399W        W58312  13.014  18.719  28.471  0.1841 -0.3085 -0.0476
15400W        W58313  16.413  20.297   4.947  0.0286 -0.1869  0.3105
15401W        W58314   5.228  15.139  28.526 -0.0285 -0.1262 -0.4238
15402W        W58315  13.313  29.317   7.089  0.1970 -0.1349 -0.3793
15403W        W58316  33.530  15.687   5.598 -0.0900  0.0549 -0.0751
15404W        W58317  11.739  31.151   1.521 -0.0618 -0.2235 -0.0730
15405W        W58318  23.378  23.172   3.485 -0.2465  0.1198  0.1602
15406W        W58319  21.695  22.333  25.675 -0.0521 -0.0778  0.1977
15407W        W58320  11.647  30.294   1.654 -0.0490  0.2365 -0.3512
15408W        W58321  32.858  17.765  24.623  0.0462  0.4665 -0.1982
15409W        W58322  12.531  30.570   3.361  0.0886  0.3413  0.2188
15410W        W58323  22.334  22.800  22.535  0.0762  0.1461 -0.0689
15411W        W58324  32.158  20.571   5.443  0.1195 -0.0640  0.1235
15412W        W58325  17.513  17.908   5.123 -0.0410  0.0517 -0.1581
15413W        W58326  27.942  27.268   8.227  0.0562 -0.1156 -0.0511
15414W        W58327  18.301  18.679   5.117  0.1078 -0.2129  0.1932
15415W        W58328  11.949  23.667   1.722  0.3654  0.1112  0.2251
15416W        W58329  15.234  14.127  20.361 -0.3346  0.0500  0.1115
15417W        W58330  25.306  20.552   1.291  0.0277 -0.1668 -0.0932
15418W        W58331  20.896  23.642  22.909 -0.1869  0.0056  0.3052
15419W        W58332  22.601  23.926   5.918 -0.0267 -0.1516  0.0420
15420W        W58333   9.199  27.371  23.096  0.0677 -0.0515  0.1369
15421W        W58334  14.328  19.449   1.181 -0.1183 -0.0236 -0.0675
15422W        W58335  16.271  34.051   3.018  0.0699  0.1476  0.2285
15423W        W58336  21.655  19.594  26.645 -0.0625  0.4654 -0.1529
15424W        W58337  27.027   0.181   2.043 -0.1500  0.1550 -0.2956
15425W        W58338  32.205  29.923  27.008  0.0056 -0.2466  0.1919
15426W        W58339  15.466   7.399  29.345  0.0285  0.2926 -0.1247
15427W        W58340  23.753  24.420   4.725  0.1301  0.1186  0.2775
15428W        W58341  12.509  22.265  29.531  0.0158 -0.0202  0.0738
15429W        W58342  10.875  22.975   9.715 -0.1672 -0.2202  0.0577
15430W        W58343  24.890  29.567   3.510  0.2373  0.1825  0.2871
15431W        W58344  15.821  23.095  17.498 -0.3581 -0.2618 -0.0075
15432W        W58345  17.864  18.679  25.986 -0.3561  0.0832  0.1354
15433W        W58346  16.069  21.683   4.833  0.1486  0.3047 -0.4143
15434W        W58347  21.553  21.435   7.000 -0.1158  0.1517 -0.1053
15435W        W58348  18.540  20.094  20.343 -0.2813  0.0141  0.2641
15436W        W58349  13.952  21.886   6.346  0.0261  0.0308 -0.2013
15437W        W58350  23.906  16.113  29.404  0.1410  0.1592 -0.1142
15438W        W58351  28.153  18.750   5.611 -0.0223 -0.1668  0.0388
15439W        W58352  18.996  23.956   2.922  0.2107 -0.3003  0.1682
15440W        W58353  11.960  28.412  28.489  0.0762  0.2061  0.0141
15441W        W58354  28.305  17.511   7.466 -0.2501 -0.0626 -0.1307
15442W        W58355  20.450  21.616   6.864  0.2099  0.3271 -0.1741
15443W        W58356  26.587  18.432   8.562 -0.1983 -0.0361 -0.0194
15444W        W58357   7.992  29.642   0.513  0.0224 -0.0427 -0.1702
15445W        W58358  22.930  21.528  28.539 -0.1188  0.0812  0.0207
15446W        W58359  17.279  15.614  24.281  0.0266 -0.0421  0.2550
15447W        W58360  28.284  22.620  29.141 -0.2731 -0.0110 -0.0110
15448W        W58361  25.699  29.251  24.582 -0.0818 -0.4876 -0.1834
15449W        W58362  20.913  12.913   4.061 -0.0656 -0.0638  0.0039
15450W        W58363  20.877   2.297   3.525  0.2785  0.1458  0.4116
15451W        W58364  16.183  23.887   7.955  0.0071  0.3270 -0.1991
15452W        W58365  33.568  18.437  29.164 -0.0735 -0.0139 -0.2472
15453W        W58366  28.170   4.638   5.071 -0.0237 -0.1094 -0.3210
15454W        W58367  16.363  23.525   9.561 -0.2209 -0.0882  0.0420
15455W        W58368  24.328  12.343  26.540 -0.2875 -0.0184 -0.2309
15456W        W58369  23.686  23.776   6.728 -0.1060  0.3276  0.2340
15457W        W58370  14.664  26.418   3.203 -0.0922 -0.2324 -0.0934
15458W        W58371   7.255  24.217   9.456  0.3110 -0.4223 -0.2251
15459W        W58372  18.745  19.701   0.374  0.0629 -0.0153  0.1389
15460W        W58373  17.037  25.040   5.164 -0.0990 -0.1866  0.0338
15461W        W58374  13.118  15.801  27.757 -0.1004 -0.1415  0.1432
15462W        W58375  21.938  24.177  26.299  0.0888  0.2253 -0.0179
15463W        W58376  15.586  26.018  22.340 -0.1466  0.3284 -0.0077
15464W        W58377  17.782  32.172  28.864  0.1479 -0.2755 -0.1142
15465W        W58378  31.780  19.563   5.046 -0.1647  0.3348 -0.0574
15466W        W58379  17.893  23.565  29.701  0.0347 -0.2071 -0.3271
15467W        W58380  24.587  16.739   7.960  0.1874  0.3831 -0.2780
15468W        W58381  18.233  27.201   7.653 -0.0446 -0.4424  0.2585
15469W        W58382  17.157  20.016   2.495  0.0115  0.0305  0.1129
15470W        W58383  30.937  23.388   6.354 -0.0153  0.1926 -0.2221
15471W        W58384  22.612  33.337   4.428  0.0477 -0.2385 -0.2704
15472W        W58385   9.715  13.621   3.968  0.0326 -0.3258  0.1445
15473W        W58386  28.828  17.420  26.242  0.1399  0.2175  0.1080
15474W        W58387  12.724  26.302   5.573 -0.3335  0.1091 -0.1345
15475W        W58388  19.088  32.870   6.615 -0.2456 -0.0734  0.1638
15476W        W58389  14.864  28.131  29.277 -0.2273  0.2286 -0.0202
15477W        W58390  24.079  17.856  26.073  0.1056 -0.3183  0.1896
15478W        W58391  27.142  21.706   7.845  0.0733  0.0683  0.2021
15479W        W58392  27.923  34.036  25.585  0.4291  0.0932  0.1680
15480W        W58393  26.409  21.819   6.816 -0.0939  0.2718  0.0876
15481W        W58394   9.498  22.336  25.071  0.1437  0.3450 -0.0574
15482W        W58395  19.814  18.572   3.835  0.1411  0.0057  0.0814
15483W        W58396  24.567  20.168  21.119 -0.0715  0.0501 -0.1898
15484W        W58397  18.298  25.470  22.436 -0.0421 -0.1211 -0.1161
15485W        W58398  24.821  33.246   0.516  0.0140  0.0656  0.0856
15486W        W58399   4.177  26.923  21.318  0.0455 -0.1099 -0.1206
15487W        W58400   7.450  19.072  28.290  0.0600 -0.2592 -0.1641
15488W        W58401  13.176  18.746   8.418 -0.1734 -0.0275 -0.0159
15489W        W58402  23.255  33.630   6.986  0.2224  0.0487  0.0366
15490W        W58403  20.247  15.846   1.140 -0.1701  0.0343  0.0883
15491W        W58404  19.027  19.882  21.544  0.0349  0.1404  0.1067
15492W        W58405  19.400  19.133   3.784  0.0283 -0.0918 -0.1568
15493W        W58406  27.599  26.631   5.711  0.0189  0.2068 -0.0074
15494W        W58407  30.160  22.626  24.973 -0.0653 -0.1216  0.1881
15495W        W58408  16.014  31.637   2.902  0.0653  0.0378  0.1431
15496W        W58409  29.042  18.751   2.448 -0.1089  0.2010  0.2399
15497W        W58410   1.948  31.008   5.607 -0.1955  0.3125  0.0004
15498W        W58411  23.584  17.205  25.686  0.3094 -0.1067 -0.1550
15499W        W58412  18.627  24.449   8.440  0.0009 -0.1914 -0.1739
15500W        W58413  16.203  25.083   4.571 -0.0657  0.1022  0.0546
15501W        W58414  16.559  24.781  28.902  0.1191  0.0081  0.2670
15502W        W58415  30.403   7.437   2.030  0.0690  0.1057  0.2874
15503W        W58416  19.101  20.926  23.960 -0.0073  0.0614  0.0162
15504W        W58417  25.351  29.868  27.425 -0.3297  0.1772 -0.0693
15505W        W58418  20.198  21.169   3.493 -0.2510 -0.1381 -0.1363
15506W        W58419  14.664  32.705   9.218 -0.1534  0.3003 -0.0836
15507W        W58420  23.789  21.448   3.343 -0.3138  0.1352 -0.0061
15508W        W58421  15.115  28.592  29.208  0.0236  0.0482 -0.2930
15509W        W58422  17.323  33.222   8.635  0.1303  0.1365 -0.1868
15510W        W58423  18.399  32.441  25.160 -0.0729  0.2933  0.1534
15511W        W58424  31.836  27.872   4.347  0.0617 -0.3560 -0.3457
15512W        W58425  20.675  26.268  23.610 -0.1708 -0.0817 -0.1706
15513W        W58426  18.764  25.421   5.146 -0.0892  0.2170  0.0037
15514W        W58427  19.204  26.609  29.361 -0.0841  0.0163 -0.1384
15515W        W58428   6.678  31.170   9.426 -0.2700 -0.0055 -0.2432
15516W        W58429  20.321  26.117   7.174 -0.0204  0.0993  0.1598
15517W        W58430  16.801   4.692   3.314  0.1180 -0.2878  0.1940
15518W        W58431  19.794  21.284   2.677  0.1019 -0.0107  0.1129
15519W        W58432  22.936  23.953   5.465  0.0614 -0.5620 -0.1478
15520W        W58433  21.253  31.581   8.573 -0.1354 -0.1625  0.2279
15521W        W58434  26.194  16.362  21.325  0.0022 -0.2732  0.1599
15522W        W58435   5.718  11.845  27.153  0.1838  0.0734  0.2314
15523W        W58436  24.454  17.252  28.702  0.0388 -0.1467 -0.1254
15524W        W58437  24.301  33.134  28.776 -0.0001 -0.3663  0.0161
15525W        W58438  18.902  16.532   2.045  0.1840 -0.2715 -0.4218
15526W        W58439  25.090  24.367   7.598 -0.1993  0.1780  0.0020
15527W        W58440  19.328  19.001   2.958  0.2204 -0.1730  0.1904
15528W        W58441  14.379  25.378  19.652  0.0412 -0.0561  0.0037
15529W        W58442  27.445  21.766   2.523  0.0853 -0.2629  0.0907
15530W        W58443  16.026  16.771  24.874 -0.1539 -0.2481 -0.3155
15531W        W58444  22.812  10.030   1.355  0.0427 -0.0221  0.1450
15532W        W58445  18.363  25.228  22.842 -0.1579  0.0671  0.2532
15533W        W58446  16.136  22.117  25.683 -0.0094  0.1629  0.3387
15534W        W58447  21.331  27.173   8.586 -0.2917  0.0416 -0.1944
15535W        W58448   8.407  22.478   4.533  0.1114 -0.1342  0.2594
15536W        W58449  16.176  27.507   4.915  0.0080 -0.1288 -0.2932
15537W        W58450  18.278  30.495   5.928 -0.0169 -0.0581 -0.3505
15538W        W58451  27.393   4.419   1.273  0.2107  0.3267  0.2954
15539W        W58452  18.039  18.099   0.472  0.3357 -0.1859  0.3598
15540W        W58453  11.359  21.512  26.871  0.2092  0.0174 -0.2716
15541W        W58454  17.789  15.808   1.335 -0.2464  0.1862 -0.2394
15542W        W58455  24.356  24.783  26.910  0.3138 -0.1131  0.1180
15543W        W58456  17.414  14.083  27.241  0.1635 -0.1393 -0.0524
15544W        W58457  24.309  32.081  25.153  0.0103 -0.2782  0.1315
15545W        W58458  15.976  26.121   0.810 -0.1098  0.3075 -0.2759
15546W        W58459  20.982  22.869   7.027  0.1976 -0.1502 -0.0233
15547W        W58460  14.137  22.138   2.247 -0.2260 -0.0289 -0.1514
15548W        W58461  30.825  28.285  21.935  0.0321 -0.1492 -0.4313
15549W        W58462  16.196  20.376   0.717 -0.1065  0.2953 -0.2375
15550W        W58463  23.803  19.674   0.714  0.1911 -0.1623 -0.1766
15551W        W58464  12.001  27.796  25.780 -0.0930  0.2958  0.1297
15552W        W58465  21.115  30.773  28.690 -0.1779  0.5368  0.1888
15553W        W58466  15.907  18.129   4.796 -0.2184  0.1656 -0.1636
15554W        W58467  20.853  30.754  20.553 -0.0664 -0.2962  0.4456
15555W        W58468  22.429  21.489  25.210 -0.0355 -0.0365 -0.1319
15556W        W58469  29.354  17.957   2.363  0.2625 -0.1801 -0.0120
15557W        W58470   9.939  18.161   1.965  0.2641  0.0116  0.0998
15558W        W58471  20.183  20.984   1.693 -0.0869 -0.0923  0.2708
15559W        W58472  26.877  15.064   3.230 -0.1008 -0.1044  0.2707
15560W        W58473  16.786  20.884  26.529  0.1961 -0.2155 -0.1382
15561W        W58474  17.994  12.438  14.362 -0.1299  0.2531  0.1583
15562W        W58475  11.573  10.244   9.401 -0.3528 -0.3983 -0.3354
15563W        W58476  28.684  24.536   6.067 -0.0814 -0.0727  0.1569
15564W        W58477  26.937  28.669   7.970 -0.2369 -0.0466 -0.2615
15565W        W58478  23.753  21.845   2.654  0.3232  0.0080 -0.0674
15566W        W58479  29.447  34.355   4.723  0.0373  0.3222  0.2484
15567W        W58480  18.457  32.368  28.528  0.0789  0.3743  0.0202
15568W        W58481  17.553  33.420   1.472  0.0340  0.2504  0.0531
15569W        W58482  15.896  26.301  27.829  0.0753 -0.1900  0.4510
15570W        W58483   8.488  14.224   1.938  0.2828  0.0306  0.0022
15571W        W58484  19.285  15.152   1.618 -0.0219  0.3919  0.0042
15572W        W58485  29.543  21.482   1.383 -0.1672 -0.1555  0.0585
15573W        W58486   6.773  26.502  22.701  0.1197  0.1967  0.0326
15574W        W58487  19.824  31.690  28.578 -0.1936  0.0331 -0.2076
15575W        W58488  14.194   2.681   0.716 -0.0710  0.1291 -0.2334
15576W        W58489  16.712  17.907  23.280  0.1205  0.0100 -0.3728
15577W        W58490  17.360  25.464   1.613  0.1191 -0.1164  0.0538
15578W        W58491  18.730  12.873   8.648 -0.1910  0.2749 -0.1847
15579W        W58492  11.660  18.391  20.275 -0.0722  0.0897 -0.1774
15580W        W58493  16.948  26.461  28.309 -0.2368  0.1596  0.1146
15581W        W58494  26.046  18.606   2.677  0.0522 -0.0225  0.1672
15582W        W58495  14.233  15.512   0.050 -0.3186 -0.0453 -0.0591
15583W        W58496  17.535  25.366   4.488  0.2307  0.1369 -0.1234
15584W        W58497  20.645  22.384   1.564  0.0266 -0.4793 -0.0128
15585W        W58498   9.878  27.879   1.508  0.1801 -0.1022 -0.2639
15586W        W58499  26.248  18.644   3.581  0.0389  0.3224  0.4200
15587W        W58500  20.096  28.831   8.623 -0.2791  0.1247  0.1267
15588W        W58501  22.392  29.793   3.349 -0.0107  0.1996  0.1206
15589W        W58502  16.466  20.624   4.074 -0.1059  0.0324  0.2460
15590W        W58503  27.009  30.426   2.535 -0.3575 -0.2555  0.4248
15591W        W58504  30.972  24.763   4.241 -0.3815 -0.0898  0.1102
15592W        W58505  15.996  17.822   8.445 -0.0266  0.0886  0.1785
15593W        W58506  22.356   1.205   8.112  0.0528 -0.0153  0.3043
15594W        W58507  19.323  22.909   6.541  0.3424  0.0829  0.1119
15595W        W58508  23.179  23.873   1.460 -0.2044 -0.2851  0.2867
15596W        W58509  21.098   6.671   9.659 -0.1278  0.2243 -0.0521
15597W        W58510  28.757  27.434  28.448  0.0533  0.2567 -0.1420
15598W        W58511  23.923  22.279   1.361 -0.2392 -0.0195 -0.0636
15599W        W58512  21.719   5.484   5.736 -0.3546  0.3553 -0.0514
15600W        W58513  21.864  16.482  28.762  0.0094 -0.0967  0.0523
15601W        W58514  24.126  32.801   2.308 -0.0501  0.4968  0.0760
15602W        W58515  22.070  21.922   6.206  0.0957  0.1002 -0.2686
15603W        W58516  16.770  22.407  21.354 -0.0705 -0.1322 -0.1798
15604W        W58517  18.633  24.230  27.265 -0.0995 -0.0957  0.0061
15605W        W58518  17.918  21.636   3.197 -0.0832 -0.2504  0.2124
15606W        W58519  22.774  27.980   8.469 -0.0495  0.0390  0.1404
15607W        W58520  12.999  27.654   5.046  0.0597  0.1712 -0.1837
15608W        W58521  24.684  33.007   8.817 -0.2704  0.3609 -0.1217
15609W        W58522  20.765  25.969   8.125  0.2636 -0.1438 -0.1417
15610W        W58523  17.179  19.117   1.077 -0.2328 -0.0890  0.1755
15611W        W58524  16.972  25.709   8.491 -0.2916  0.1287  0.0463
15612W        W58525  15.280  19.797  27.067  0.1531 -0.2451  0.2359
15613W        W58526  12.921  31.250  26.137 -0.4062  0.0103 -0.0569
15614W        W58527  23.958  21.823   3.679 -0.0484 -0.1628 -0.1217
15615W        W58528  25.919  16.898   3.080 -0.0174 -0.0329  0.1634
15616W        W58529   7.684  31.052   2.398  0.0367  0.0302 -0.0156
15617W        W58530  17.845  27.204  10.715  0.2585 -0.0134  0.0487
15618W        W58531  18.401  20.848   0.921  0.1131  0.0213  0.1115
15619W        W58532  22.546  29.586   7.487 -0.0281  0.2242  0.1563
15620W        W58533  23.726  19.562   8.820  0.1348 -0.0483 -0.3041
15621W        W58534  29.677  21.785   4.172 -0.0064 -0.1115  0.1347
15622W        W58535   5.226  25.364  29.664 -0.4144 -0.0152  0.0356
15623W        W58536  15.031  24.735   7.690 -0.2439  0.0251  0.0436
15624W        W58537  24.275  26.154   7.445 -0.1009 -0.0402  0.1196
15625W        W58538  19.666  32.641  26.601 -0.1334 -0.0989 -0.0212
15626W        W58539  11.293  26.585  25.366 -0.2708  0.1992  0.3888
15627W        W58540  18.109  28.012   8.877  0.2327  0.2849  0.2845
15628W        W58541  25.934  18.164   1.460 -0.0922  0.1320  0.0742
15629W        W58542   9.758  31.248   8.608 -0.2712 -0.1082 -0.0703
15630W        W58543  22.069  25.618   2.473 -0.1911  0.3576 -0.0946
15631W        W58544  19.622  23.469   2.527 -0.1709 -0.0589  0.0771
15632W        W58545  15.491  27.965   1.305 -0.1017 -0.3496  0.1498
15633W        W58546  27.537  25.596   3.548  0.2010 -0.2094  0.1512
15634W        W58547  33.929   1.073   9.755 -0.2078  0.1769 -0.0465
15635W        W58548  23.451  17.158   2.379 -0.1407  0.3687  0.3341
15636W        W58549  21.111  20.470   0.449  0.0012 -0.0581  0.0243
15637W        W58550  16.588  26.992   7.624 -0.6568 -0.1101 -0.0933
15638W        W58551  11.570  28.817   9.597  0.2565  0.0026 -0.3075
15639W        W58552  10.769  28.344   6.533  0.0459 -0.0249 -0.0857
15640W        W58553  24.258  18.469   0.982 -0.1452 -0.1086 -0.2024
15641W        W58554  17.719  17.856   4.689  0.3950 -0.4424 -0.2340
15642W        W58555  22.388  25.305  29.653 -0.3839  0.0895 -0.1397
15643W        W58556  19.925  29.303   8.720  0.3192 -0.1526  0.2465
15644W        W58557   0.438  24.048   1.072  0.3661  0.1535  0.0992
15645W        W58558  20.943  15.584  25.346  0.0685 -0.0222 -0.2732
15646W        W58559  21.551  26.259   7.720  0.0458  0.1073  0.2026
15647W        W58560  22.561  26.839   5.812 -0.0018  0.0106  0.0481
15648W        W58561  15.092  25.971  10.514  0.1883  0.0106  0.3668
15649W        W58562  29.354  13.135   1.475 -0.0998  0.0788 -0.2705
15650W        W58563  32.229  25.158   6.843  0.0473  0.1297 -0.2754
15651W        W58564  20.341  30.950   5.018  0.0262  0.0340  0.1490
15652W        W58565  19.507  10.813  26.764 -0.1740  0.0617 -0.2738
15653W        W58566  23.473  21.980   4.908  0.3205 -0.4419  0.2492
15654W        W58567  17.357  23.311  28.324  0.1109  0.0287  0.3247
15655W        W58568  17.057  28.482   1.631 -0.0893  0.1763 -0.0543
15656W        W58569  21.525  16.237  19.976  0.1223  0.2260 -0.1510
15657W        W58570  24.835  16.106   8.139  0.0384  0.1533  0.0195
15658W        W58571  19.558  13.774   8.743 -0.1200 -0.0110  0.2501
15659W        W58572  13.400  14.690  29.749 -0.0066  0.2389  0.0625
15660W        W58573  17.758  24.074  23.518 -0.1462 -0.1738  0.0542
15661W        W58574  18.198  20.197   2.348 -0.1218 -0.1270 -0.4288
15662W        W58575  23.940  26.728   3.153 -0.0575 -0.3002  0.3970
15663W        W58576   1.728  20.887   1.900  0.1227  0.3327 -0.0340
15664W        W58577  15.519  29.786   8.605 -0.1462  0.0743  0.4768
15665W        W58578  22.930  21.871   2.097  0.1351  0.0867 -0.1479
15666W        W58579  13.900  29.496   4.937 -0.3700 -0.1198  0.1639
15667W        W58580  15.926  21.914  19.347 -0.0357  0.0123  0.1361
15668W        W58581  16.197  29.265   2.468  0.2050  0.2643 -0.3317
15669W        W58582  17.383  28.968   4.479  0.3200 -0.1891  0.2494
15670W        W58583  26.368  24.286   4.314 -0.0977  0.4903  0.1237
15671W        W58584  22.919  21.025   7.542  0.2282  0.1050 -0.2315
15672W        W58585  18.166  16.285   7.514 -0.1160  0.0373 -0.0870
15673W        W58586  16.563  31.380  28.348  0.2694  0.4114  0.1764
15674W        W58587  16.205  16.829   4.095  0.2381  0.3093 -0.0102
15675W        W58588  27.020  13.298   6.821  0.1249 -0.1107 -0.0116
15676W        W58589  15.421  20.847   1.009 -0.2568 -0.1421  0.0730
15677W        W58590  14.619  21.580   6.954 -0.0193 -0.1805 -0.1734
15678W        W58591  13.171  22.616   1.563 -0.1044 -0.0003 -0.2537
15679W        W58592  13.753  22.269   6.720 -0.1290  0.0231  0.1043
15680W        W58593  15.669  15.607   5.524 -0.2583 -0.2550 -0.2715
15681W        W58594  23.521  18.472  28.046 -0.0786 -0.3191  0.2042
15682W        W58595   7.099  19.275  29.141 -0.2375  0.0896 -0.1128
15683W        W58596  25.740  17.889   3.181  0.0209  0.4431 -0.2513
15684W        W58597  15.337  31.489  10.902 -0.0103 -0.0861  0.3417
15685W        W58598   7.656  24.891  18.265 -0.2308  0.3206 -0.0357
15686W        W58599  26.991  20.466   3.237 -0.0239  0.2977  0.0764
15687W        W58600  11.988  19.995   4.368  0.3194  0.1312 -0.1685
15688W        W58601  17.806  29.693   5.503 -0.0704  0.0609 -0.3712
15689W        W58602  18.371  28.011   5.540  0.0310 -0.0543  0.2303
15690W        W58603  20.412   9.275  26.995 -0.0507  0.0210 -0.1051
15691W        W58604  18.737  21.733  27.243 -0.0100 -0.0915  0.0571
15692W        W58605  23.287  17.200   1.820  0.0746 -0.0879 -0.0150
15693W        W58606  18.292  24.517  28.976 -0.1058 -0.0409 -0.0177
15694W        W58607  16.202  28.317  11.091  0.2367 -0.0350 -0.0096
15695W        W58608  19.146  17.498  27.918 -0.1348 -0.0036  0.1144
15696W        W58609  16.457  18.651   4.426  0.0317 -0.1901  0.0683
15697W        W58610  21.743  18.117   2.438 -0.2472  0.1383  0.1915
15698W        W58611  18.833  18.850  29.031 -0.1774 -0.0627  0.2732
15699W        W58612  28.373  25.275   7.461 -0.3407  0.1375 -0.1965
15700W        W58613   0.124  21.730   2.441 -0.3200  0.0984  0.2711
15701W        W58614  20.855  24.205   0.280 -0.0425  0.0980 -0.1348
15702W        W58615  17.710  24.686   8.388 -0.3845  0.0518  0.0434
15703W        W58616   7.784  30.781   8.071  0.1276  0.0259 -0.0589
15704W        W58617  15.294   9.154  27.427  0.3400  0.0810 -0.3881
15705W        W58618  23.933  12.835  26.538 -0.0800  0.2124 -0.1312
15706W        W58619  25.806  23.727  27.271 -0.0621 -0.2115  0.2908
15707W        W58620  13.187   8.922   3.849  0.0721 -0.0886 -0.0729
15708W        W58621  24.215  27.959   9.062  0.2225 -0.3034 -0.2030
15709W        W58622  15.447  34.330   6.321  0.1425 -0.0493 -0.1325
15710W        W58623  21.216  23.638   1.967  0.0992  0.0384  0.0796
15711W        W58624  21.450  14.004   3.479  0.2463  0.0855 -0.0354
15712W        W58625  20.289  16.557   4.614  0.2279 -0.2283  0.2885
15713W        W58626   6.283  10.346   0.298  0.1868 -0.2192 -0.0461
15714W        W58627  21.750  25.308   6.996  0.1092 -0.0135 -0.1914
15715W        W58628  18.153  19.557  22.800 -0.1824  0.1296 -0.2313
15716W        W58629  12.867  13.937   6.682 -0.1637 -0.0242 -0.0563
15717W        W58630  11.675  30.943   0.841  0.4156 -0.1449  0.2605
15718W        W58631   9.456  29.174   7.665  0.1097 -0.1995  0.3403
15719W        W58632  18.207  32.360   4.603  0.1145 -0.2016  0.0972
15720W        W58633   4.717  25.726   2.818  0.0192 -0.2178  0.1610
15721W        W58634  14.043   5.522   1.508  0.2059  0.1911  0.0524
15722W        W58635  16.017  22.788   6.757 -0.0350 -0.1303 -0.4317
15723W        W58636  26.590  29.653   6.643 -0.1288 -0.1161  0.1205
15724W        W58637  12.182  24.330   7.456 -0.1931 -0.1397 -0.0393
15725W        W58638  16.279  26.217  10.119 -0.0496 -0.2881  0.1037
15726W        W58639  12.723  29.115  15.815  0.3953 -0.1685  0.3696
15727W        W58640  22.687  22.026   7.082 -0.1305  0.2463 -0.0233
15728W        W58641  19.576  28.359   0.046 -0.0690 -0.2409  0.0218
15729W        W58642  23.515  21.283   8.056 -0.0448  0.4219  0.0566
15730W        W58643   7.632  16.166   7.154 -0.0916  0.1606  0.0156
15731W        W58644  15.851  27.743   1.608  0.1568  0.1483 -0.0533
15732W        W58645  24.610  23.991  26.391 -0.1691  0.3171  0.0201
15733W        W58646  21.342  15.809   6.613  0.0941  0.2857 -0.2092
15734W        W58647  26.259  16.902  10.032  0.0407  0.1828  0.2076
15735W        W58648  14.862   0.597  27.451  0.1919 -0.2178  0.0787
15736W        W58649  25.546  32.556  25.942  0.1972 -0.0074  0.1936
15737W        W58650  15.632  28.028  28.657 -0.1573 -0.0493 -0.0336
15738W        W58651  20.787  21.693   8.739  0.1518  0.2632  0.0748
15739W        W58652  16.987  23.690   6.313 -0.2364 -0.3633 -0.0461
15740W        W58653  26.143  17.472   2.321 -0.1140  0.0508  0.2081
15741W        W58654  23.437  12.541  29.530 -0.1289 -0.0354  0.1148
15742W        W58655  16.078  15.579   8.708  0.2236  0.0358 -0.1625
15743W        W58656  12.179  34.461  28.139 -0.1759  0.2873  0.0306
15744W        W58657  15.502  24.121   3.705  0.0880 -0.5728  0.0736
15745W        W58658  23.128  24.666   0.388  0.1137 -0.2555  0.0645
15746W        W58659  20.580  20.743  29.061  0.2147  0.0595 -0.0652
15747W        W58660  19.574  24.809  29.618 -0.0215  0.1804 -0.2673
15748W        W58661  24.371  21.448   0.905  0.0263  0.2499 -0.1161
15749W        W58662  12.051  29.644   3.673  0.1205  0.0829  0.0331
15750W        W58663  18.339  27.768  21.715 -0.2296  0.0103 -0.0950
15751W        W58664  15.298  31.176   4.241  0.3722  0.3320 -0.1017
15752W        W58665  17.601  33.550   0.904  0.2626 -0.3712 -0.0844
15753W        W58666  19.466  19.846  25.297 -0.0873  0.3202  0.2752
15754W        W58667  20.040  14.014  27.267  0.1570 -0.1236  0.1659
15755W        W58668  20.628  24.754   6.159 -0.0310  0.1403  0.1065
15756W        W58669  18.135  21.270   5.713  0.0988 -0.2775 -0.1508
15757W        W58670  25.339   0.524   2.983  0.2393  0.1821 -0.0465
15758W        W58671  15.859  22.581  27.578  0.4081 -0.1536 -0.2981
15759W        W58672  23.382  20.735   3.474  0.0743  0.2028  0.0995
15760W        W58673  24.219  24.765   2.380  0.1197  0.3229 -0.0435
15761W        W58674  23.077  23.250   6.512 -0.4268 -0.1514  0.2162
15762W        W58675  20.394  22.436   8.043 -0.2339 -0.0962  0.0378
15763W        W58676  28.926  19.514   3.344 -0.1811  0.3340 -0.0852
15764W        W58677  26.216  12.461   6.675  0.1031  0.0631 -0.3544
15765W        W58678  26.063  15.876   6.967 -0.1570 -0.0092  0.0699
15766W        W58679  20.860   6.071   5.626 -0.2753 -0.0391 -0.4022
15767W        W58680  19.808  21.104   8.874 -0.2024 -0.0390  0.1653
15768W        W58681  17.441  26.165   9.028 -0.0635 -0.2212 -0.0618
15769W        W58682  23.344  17.992   2.351 -0.0207  0.3330  0.1126
15770W        W58683  17.258  25.250   6.111  0.0612  0.1492  0.0032
15771W        W58684  11.623  24.593   8.895 -0.1942  0.3413  0.0548
15772W        W58685  30.035  20.358   5.913  0.0527 -0.0111 -0.0323
15773W        W58686  12.239  22.542  22.978 -0.2723 -0.1908  0.3240
15774W        W58687  13.489  15.840   2.112 -0.1848 -0.0238 -0.0455
15775W        W58688  18.049  24.792  26.409 -0.0655 -0.1030 -0.0580
15776W        W58689  15.308  25.214   5.157  0.2331  0.2349  0.0452
15777W        W58690  15.871  18.861  22.257 -0.1458  0.1950  0.2114
15778W        W58691  11.824  15.016   2.422  0.0565 -0.0739  0.1251
15779W        W58692  24.326   4.270   9.979  0.0684  0.0246 -0.1127
15780W        W58693  19.317  21.258   3.540  0.1491 -0.1277 -0.1374
15781W        W58694  23.594  22.401  22.792 -0.2184 -0.2975  0.3286
15782W        W58695  19.134  25.601   1.998  0.2857 -0.1499  0.2438
15783W        W58696  16.386  28.960  28.598 -0.1908  0.0633 -0.1951
15784W        W58697  21.265   1.699   9.017 -0.1028  0.0174  0.0168
15785W        W58698  17.561   7.081  27.297  0.1673 -0.4757 -0.1454
15786W        W58699  16.007  27.517   2.319  0.1237  0.0960 -0.2313
15787W        W58700  12.759  15.090   8.151  0.1344 -0.1617 -0.0471
15788W        W58701  16.916  14.335  29.230 -0.0330 -0.0610 -0.0465
15789W        W58702  12.983  20.119  25.839  0.0293  0.0378 -0.1530
15790W        W58703  17.158  14.738   4.306  0.2469 -0.1463  0.0690
15791W        W58704  27.787  20.261   9.595 -0.1264  0.1545  0.2112
15792W        W58705  25.406  19.166   8.529 -0.1431  0.1802 -0.1343
15793W        W58706  14.175  10.849   0.670  0.0537 -0.1512  0.2836
15794W        W58707  22.435  13.181   2.877 -0.0402  0.0457  0.0173
15795W        W58708  23.433  27.478   3.559  0.3876 -0.3698  0.2496
15796W        W58709  17.643  25.973   4.000 -0.0007  0.0540  0.0698
15797W        W58710  13.369  21.593   1.654 -0.0041  0.1705  0.0932
15798W        W58711  11.493  32.991  29.349 -0.1845  0.2667  0.1389
15799W        W58712  22.828  19.977   7.419 -0.0103  0.2848  0.2381
15800W        W58713  16.550   0.004   5.783  0.1143 -0.1129  0.0835
15801W        W58714  13.905  16.991   2.358  0.0497  0.2096  0.0889
15802W        W58715  25.961  20.127  29.136  0.1935  0.3706 -0.2003
15803W        W58716  17.013  27.023   6.556  0.0146  0.0393  0.0910
15804W        W58717  20.676  20.302  28.863  0.2697  0.1397 -0.0241
15805W        W58718  19.838  27.324   6.376  0.2604  0.1235  0.0281
15806W        W58719  17.587  30.167  10.977 -0.0456 -0.0299  0.2361
15807W        W58720  20.969  18.565   7.672  0.3556 -0.1769  0.0350
15808W        W58721  18.100  21.218  21.242 -0.0380  0.1238 -0.0097
15809W        W58722  18.800  20.866   7.700  0.0600  0.1736 -0.1376
15810W        W58723  24.173  16.694   9.828  0.1171 -0.2134  0.0295
15811W        W58724  22.507  21.296   4.581  0.2296  0.1621 -0.2771
15812W        W58725  18.842  17.788   8.064  0.1323 -0.0394 -0.1355
15813W        W58726  19.509  16.203   1.976 -0.1084 -0.2475 -0.0042
15814W        W58727  23.435  25.535   1.584 -0.1736  0.1893  0.2683
15815W        W58728   9.240  33.824  10.425  0.0713 -0.0213 -0.0250
15816W        W58729  22.342  23.382   4.608  0.1059 -0.4000 -0.2110
15817W        W58730  15.111  23.216   7.476 -0.2743 -0.3182 -0.0709
15818W        W58731  26.352  19.796   2.263 -0.1835 -0.0117 -0.1376
15819W        W58732  19.102  16.301   6.239 -0.1668 -0.0335  0.1979
15820W        W58733  24.405  26.552   2.950 -0.3169  0.0743 -0.2162
15821W        W58734  16.532   6.015  29.384  0.0678  0.1708  0.3476
15822W        W58735  12.250  31.399   1.383 -0.3260  0.1592  0.2168
15823W        W58736  27.036  32.395   9.505  0.1220  0.1142  0.1284
15824W        W58737  29.858  21.381   0.445 -0.0481 -0.2283  0.0361
15825W        W58738  20.548  16.154  28.677 -0.0830  0.1560  0.0594
15826W        W58739  20.868  25.314   2.505 -0.0950  0.1764 -0.4205
15827W        W58740  21.768  31.254   3.327  0.1224  0.0366 -0.1939
15828W        W58741  16.894  18.366  25.333 -0.2215  0.0413  0.3491
15829W        W58742  10.307  26.900   8.381 -0.2061  0.2301  0.1976
15830W        W58743  19.396   1.595   9.733 -0.1221  0.1148  0.0781
15831W        W58744   6.792  25.813   9.091  0.0458 -0.1417  0.2280
15832W        W58745  14.933  21.165   2.049 -0.0214 -0.1140  0.0610
15833W        W58746  26.529  27.916   3.453 -0.0958  0.1557 -0.0500
15834W        W58747  22.527  25.832  28.949  0.1561  0.3129 -0.1282
15835W        W58748  28.286  13.427  10.089 -0.1418  0.0719 -0.0437
15836W        W58749  18.035  22.313   5.967  0.0875 -0.2393 -0.3264
15837W        W58750  12.033  15.271  27.664  0.4097 -0.1618  0.3374
15838W        W58751  20.723  23.585   8.208 -0.0943  0.1699 -0.0824
15839W        W58752  28.529   1.604  19.963 -0.0982 -0.0758 -0.0065
15840W        W58753  10.874   7.902   7.617 -0.0285 -0.1209  0.0758
15841W        W58754  22.154  25.940  27.284  0.2417 -0.0615 -0.0050
15842W        W58755  17.811  25.951   1.206 -0.1199 -0.1321 -0.2638
15843W        W58756  23.431  11.894   6.332  0.1254 -0.0917 -0.1231
15844W        W58757  13.089   4.510   5.276 -0.0010 -0.1565 -0.1656
15845W        W58758  30.973  17.304   4.178 -0.3163 -0.2818  0.0573
15846W        W58759  17.479  14.876   5.639  0.2283  0.0661  0.2099
15847W        W58760  17.443  22.185   1.625  0.1527 -0.0119 -0.1727
15848W        W58761  28.296  28.623   2.407  0.4090  0.0490 -0.0796
15849W        W58762  26.129  21.789   7.994  0.1386  0.1969  0.1867
15850W        W58763  22.739  28.894   8.471  0.1555 -0.2624 -0.0308
15851W        W58764  28.559  21.769   2.263  0.1898  0.1846  0.2530
15852W        W58765  16.969  34.190   9.269  0.1703  0.0049  0.2308
15853W        W58766  19.816  22.702   5.444  0.1660  0.3188 -0.2776
15854W        W58767   9.255  28.475  11.216  0.1141  0.1069  0.2106
15855W        W58768  11.910  27.655  10.838  0.1127  0.3584 -0.1056
15856W        W58769  23.264  17.904   1.711  0.0814 -0.0896  0.0283
15857W        W58770  16.804  19.095  22.070 -0.0166 -0.1496  0.0393
15858W        W58771  33.108  18.691   2.488 -0.0729  0.0036  0.3564
15859W        W58772  16.528  26.049   5.043  0.1079 -0.0086 -0.1694
15860W        W58773  24.592  16.230   6.442  0.3608 -0.3238  0.0388
15861W        W58774  14.687  14.545   5.571  0.0686  0.0627 -0.0935
15862W        W58775  15.731  11.306   1.745 -0.1588 -0.1564 -0.1820
15863W        W58776  20.003  18.839  26.096  0.1646 -0.5146  0.0668
15864W        W58777  15.130  27.305   4.357 -0.2750 -0.0141  0.0645
15865W        W58778   4.832  22.935   0.795  0.1646  0.5600  0.2084
15866W        W58779  20.294  13.269   0.171  0.1993  0.0192 -0.1631
15867W        W58780  14.325  23.754  19.478 -0.1958 -0.0701  0.0423
15868W        W58781  22.630  26.535   6.299  0.0118 -0.2092 -0.0696
15869W        W58782  20.420   3.661  24.770 -0.3021  0.1482 -0.0875
15870W        W58783  13.872  30.619   4.719 -0.0608  0.4270  0.2139
15871W        W58784  16.245  25.647   5.277 -0.1241 -0.0889 -0.2648
15872W        W58785  15.782  22.918   0.297  0.2696 -0.0112  0.1640
15873W        W58786  29.731  21.740  28.649  0.3506  0.1165  0.2005
15874W        W58787  31.809   9.962  23.395  0.4474  0.0700 -0.0457
15875W        W58788  23.568  32.563   8.601  0.3461  0.0762 -0.1602
15876W        W58789  18.475  27.024   1.648  0.0751  0.0283 -0.2067
15877W        W58790  18.157   9.911  22.456 -0.0154  0.0166 -0.0010
15878W        W58791  17.494  17.370   6.248 -0.2996  0.0042 -0.0363
15879W        W58792  23.747  12.812   8.121  0.1530  0.0042 -0.2126
15880W        W58793  24.720  26.616   7.489  0.0187 -0.2051 -0.0142
15881W        W58794  18.794  16.474   0.019  0.0604  0.2497  0.1943
15882W        W58795  20.767  17.353   8.222  0.4489 -0.2376 -0.0540
15883W        W58796  19.500  22.538   7.366  0.2445 -0.0379 -0.3776
15884W        W58797  20.605  21.889  26.152  0.1240 -0.0481  0.0127
15885W        W58798  23.022  20.340   1.367  0.1760 -0.0819 -0.2747
15886W        W58799  30.181  18.892   8.873 -0.1163  0.2688 -0.1398
15887W        W58800  14.638  26.725   5.836  0.0938 -0.0888 -0.0049
15888W        W58801  24.614  28.308   7.466 -0.1933 -0.0065 -0.1025
15889W        W58802  23.034  18.958   4.136 -0.1603  0.0443 -0.0866
15890W        W58803  29.136  19.844   5.083 -0.2496 -0.1441  0.2816
15891W        W58804  20.532  15.020   7.497  0.0587 -0.0486  0.2847
15892W        W58805  26.622  32.535  28.027  0.1357 -0.0095  0.1468
15893W        W58806  16.496  14.918   7.530  0.0309  0.4880  0.2583
15894W        W58807  21.393   7.257   1.083 -0.1016  0.0834 -0.1140
15895W        W58808  14.037  25.942  29.496  0.1579  0.0565 -0.4533
15896W        W58809  26.333   4.018  23.261 -0.0098  0.2887 -0.1490
15897W        W58810  23.491  17.303   8.266  0.1786  0.1425  0.0828
15898W        W58811  33.607  16.324   2.510  0.2530 -0.1732  0.0106
15899W        W58812  22.394  28.249   3.404  0.0471 -0.0420  0.1498
15900W        W58813  15.360  12.900  28.376  0.0474 -0.1521 -0.0963
15901W        W58814  25.784  23.286   9.041  0.1916 -0.1661 -0.5501
15902W        W58815  24.368  20.831  18.606  0.0574 -0.2386 -0.0386
15903W        W58816  18.234  22.700   0.097  0.1217  0.0345 -0.3574
15904W        W58817  18.707  21.053   3.705 -0.3547  0.1177  0.0869
15905W        W58818   1.722   1.501   2.605  0.0165 -0.0065 -0.2652
15906W        W58819  21.445  13.347  26.509 -0.0061 -0.2011  0.2765
15907W        W58820  20.473  18.045  22.178  0.2333 -0.1373 -0.1356
15908W        W58821  22.550   6.813  27.757 -0.1180  0.0832  0.0510
15909W        W58822  24.693  27.916   2.942  0.1428  0.0549 -0.0676
15910W        W58823  27.898  17.336   5.862  0.1877  0.4120 -0.0000
15911W        W58824  17.315  16.412   0.570 -0.2401  0.0446 -0.1564
15912W        W58825  25.751  27.352   7.916 -0.1428  0.0724 -0.1599
15913W        W58826  11.762  19.580   4.963 -0.2857  0.0960 -0.2964
15914W        W58827  18.220  27.626   8.504  0.1740 -0.0359  0.4354
15915W        W58828  16.603  21.977  29.208  0.0728  0.2396  0.0808
15916W        W58829  19.277  26.496   1.814  0.0731 -0.0357  0.0455
15917W        W58830  25.172  22.101   8.259  0.2804 -0.0672  0.6512
15918W        W58831  22.963   1.089   6.377  0.0148 -0.4193  0.1030
15919W        W58832  23.303  32.016   7.249  0.1542  0.1025 -0.0923
15920W        W58833  16.326  17.666   6.526  0.1119  0.1938  0.0646
15921W        W58834  29.968  23.026  29.498  0.3646 -0.2168  0.2936
15922W        W58835  14.246  20.567   0.263 -0.0454 -0.0470 -0.1218
15923W        W58836  18.103  20.971  24.499  0.0966 -0.2302 -0.0123
15924W        W58837  10.952  27.322   1.010  0.0869 -0.0516 -0.0645
15925W        W58838  22.262  26.475   8.246  0.0474 -0.0430 -0.2753
15926W        W58839  25.321  22.622   4.563  0.0365  0.2887  0.1766
15927W        W58840  10.703  31.253   6.335 -0.2012  0.0033 -0.1314
15928W        W58841  27.883  11.401   4.378 -0.2304  0.4954  0.0000
15929W        W58842  19.495  17.245   4.987 -0.2548  0.1173  0.0131
15930W        W58843  28.903  14.655   2.250 -0.1790  0.3013 -0.1489
15931W        W58844  24.233  21.224  24.914  0.0335 -0.2100 -0.2903
15932W        W58845  13.626  10.764   0.605 -0.3447 -0.4074 -0.5082
15933W        W58846  20.335  28.295   4.733 -0.1052 -0.0880  0.3069
15934W        W58847   0.850  14.105   8.356 -0.2454  0.0337 -0.3011
15935W        W58848  20.057  22.822   2.113 -0.0422  0.1467 -0.0735
15936W        W58849  19.594  25.543   6.117 -0.0723 -0.3203 -0.2609
15937W        W58850  17.078  26.748   2.261 -0.1900 -0.3252  0.0516
15938W        W58851  17.422  17.954   4.141  0.0636  0.0664  0.0863
15939W        W58852  18.883  23.172   7.572 -0.0625  0.0374 -0.1772
15940W        W58853  19.812   5.303   2.034  0.3408 -0.0694 -0.0353
15941W        W58854  17.747  25.561  26.864  0.0816 -0.2394 -0.5869
15942W        W58855  23.962  26.127   8.447  0.0314  0.0558 -0.2099
15943W        W58856  27.797  18.787   1.924  0.0371  0.1414 -0.0585
15944W        W58857  18.098  13.086   8.126  0.0303  0.2089  0.0925
15945W        W58858  14.289  17.898   3.453 -0.2030  0.0733  0.3602
15946W        W58859  24.499  31.586   4.277  0.3160  0.0700 -0.0067
15947W        W58860  12.833  21.471   4.008  0.0728 -0.1758 -0.1159
15948W        W58861  17.385  20.772  21.724  0.1395 -0.1172  0.3228
15949W        W58862  11.132  23.255   1.533 -0.0087 -0.0735 -0.1500
15950W        W58863  22.809  19.172  24.113 -0.0469  0.0533  0.1619
15951W        W58864  20.343  19.595   6.248 -0.2522 -0.0729  0.0112
15952W        W58865  21.152  33.016   8.590 -0.0761 -0.0360  0.1202
15953W        W58866  24.298  20.993   5.473  0.1138  0.2501  0.3235
15954W        W58867  34.037   8.571   1.140  0.3569 -0.1088 -0.2642
15955W        W58868  23.489  22.129   4.379 -0.4693  0.1776  0.2594
15956W        W58869  18.799  14.540   2.171  0.2388 -0.2870  0.0093
15957W        W58870  18.117  20.617  26.817 -0.0010  0.0686 -0.2300
15958W        W58871  15.526  32.689   5.862 -0.0792 -0.4053 -0.0234
15959W        W58872  21.734  25.218   5.448 -0.0333 -0.1687 -0.1935
15960W        W58873  16.415  32.810  10.127  0.0923 -0.0714 -0.1290
15961W        W58874   6.983  23.557   8.753  0.0679 -0.1496  0.1890
15962W        W58875  20.693  12.988   1.929  0.1373 -0.0303 -0.2007
15963W        W58876  27.590  32.717   5.219  0.2331 -0.3676  0.1805
15964W        W58877  16.218  27.065   2.274 -0.0081  0.1926  0.0643
15965W        W58878   9.361  17.391   7.212  0.3729 -0.0731  0.3354
15966W        W58879   8.242  29.152   6.596 -0.1246  0.2114  0.0475
15967W        W58880  14.823  26.884  10.768  0.1643 -0.0727 -0.1171
15968W        W58881  20.218  16.315  29.147 -0.0546 -0.0407  0.0875
15969W        W58882  19.489  14.478   6.768  0.1499 -0.0256 -0.1056
15970W        W58883  18.089  24.209   2.330  0.0452 -0.1766 -0.0705
15971W        W58884  22.339  18.557   1.021 -0.0865 -0.0811 -0.3802
15972W        W58885  14.369  30.155   4.363 -0.2987  0.2934 -0.1462
15973W        W58886  22.752  32.543   5.994 -0.1812 -0.1874 -0.3429
15974W        W58887  19.189  19.075  23.794  0.1322  0.1276 -0.2624
15975W        W58888  20.923  25.618   0.094 -0.0268  0.3469 -0.3590
15976W        W58889  21.104   7.849   1.889 -0.0928 -0.4606 -0.0363
15977W        W58890  12.831  15.685   6.971 -0.1220 -0.2788  0.1851
15978W        W58891  19.607  10.861   7.766 -0.0347  0.2373 -0.1504
15979W        W58892  23.256  28.340  28.451 -0.1549 -0.0505 -0.0405
15980W        W58893  17.361  25.267   7.511 -0.0543  0.3086  0.0757
15981W        W58894  21.412  22.927  27.109  0.1269  0.0139 -0.4575
15982W        W58895  22.749  27.538   3.442  0.3322 -0.0347  0.3850
15983W        W58896  22.504  18.822   7.131  0.3194 -0.1220 -0.0769
15984W        W58897  22.260  29.372   5.676 -0.0399  0.0798 -0.0092
15985W        W58898  15.048   1.129   0.768  0.0025 -0.0672 -0.0399
15986W        W58899  20.459  25.784   6.788 -0.1629  0.0460 -0.0512
15987W        W58900   0.325  25.520   7.805 -0.1696 -0.0823  0.0070
15988W        W58901  21.378  25.500   8.081  0.3620 -0.2268  0.2384
15989W        W58902  14.685  28.303  24.669  0.0364 -0.2950 -0.1389
15990W        W58903  13.977  31.887   6.964  0.1225 -0.0085  0.1969
15991W        W58904  16.972   6.457  27.338  0.1065 -0.1522 -0.0230
15992W        W58905   8.661  28.776  10.060  0.0452 -0.0931 -0.2466
15993W        W58906  17.565  26.291   5.824  0.2491 -0.2157 -0.2847
15994W        W58907  26.054  23.023   3.843 -0.0644 -0.1285  0.1538
15995W        W58908  20.644  19.026  25.372  0.3198 -0.0253 -0.0585
15996W        W58909  21.117  30.032   7.645  0.2168  0.0768 -0.0518
15997W        W58910  10.390   0.776  12.579 -0.1536 -0.0520  0.0694
15998W        W58911  14.875  27.188   1.031  0.2108 -0.0528 -0.0553
15999W        W58912  18.931  25.769   3.914  0.2011  0.2147  0.1522
16000W        W58913  14.412  23.275   5.755  0.3499 -0.0708 -0.1783
16001W        W58914  23.074  16.967   8.202 -0.0296 -0.1321  0.1554
16002W        W58915  21.892  22.592   6.807  0.4097  0.0030  0.0836
16003W        W58916  24.863  30.103   6.195 -0.0151  0.0321  0.1434
16004W        W58917  29.309  23.334   4.624 -0.1671 -0.0021  0.0980
16005W        W58918  18.660  18.795   5.731 -0.0345 -0.2087 -0.1997
16006W        W58919  18.343  28.897   7.716  0.1937 -0.2364 -0.2096
16007W        W58920  18.493  14.455  29.406  0.1169 -0.1488  0.0624
16008W        W58921   2.181  33.347   3.912  0.1007  0.1539 -0.3627
16009W        W58922  24.395  21.899   7.481 -0.1687  0.1223  0.0800
16010W        W58923  15.862  31.557   9.103 -0.1416  0.0878  0.1168
16011W        W58924  18.528  33.389   8.743  0.0626 -0.0994 -0.1924
16012W        W58925  14.806  29.025  26.660  0.1527 -0.2120  0.0148
16013W        W58926  20.160  18.838   7.128  0.0140  0.0744  0.0117
16014W        W58927  14.761  24.880  21.425  0.2167  0.0260 -0.2084
16015W        W58928  18.464  27.523  22.583 -0.1791  0.0061  0.3421
16016W        W58929  22.000  20.690  28.964 -0.0223  0.0954 -0.2167
16017W        W58930  21.163  26.599   8.698  0.2235 -0.0405  0.1674
16018W        W58931  16.945  22.678   3.350 -0.2609 -0.1166  0.0704
16019W        W58932  23.818  22.963   5.581  0.1402  0.0457 -0.0774
16020W        W58933  16.666  16.878   7.784  0.0044  0.2814  0.2018
16021W        W58934  16.908  25.558   4.323 -0.2233  0.1114 -0.0588
16022W        W58935   0.757  31.718   8.050  0.1970  0.2043  0.0077
16023W        W58936  26.481  23.517   6.841 -0.0257  0.0485 -0.0083
16024W        W58937  24.101  21.409   6.365  0.1147 -0.0247  0.1677
16025W        W58938  28.843  28.159   3.457  0.0187  0.2322  0.0182
16026W        W58939  19.541  22.977   7.008 -0.2355 -0.2367  0.4001
16027W        W58940  28.402  22.290   6.399  0.1585  0.0652 -0.0547
16028W        W58941  25.047  12.043  25.409  0.0858  0.0028 -0.1453
16029W        W58942  20.353  18.544   4.787  0.2568  0.1271  0.3607
16030W        W58943  22.607  23.381   7.038  0.0893 -0.0260 -0.2042
16031W        W58944  17.442  13.121   0.113  0.2209  0.1407  0.0617
16032W        W58945  22.243  20.681   7.315 -0.0592 -0.0403 -0.1973
16033W        W58946  26.521  22.350   3.397 -0.3269  0.3324 -0.4389
16034W        W58947  26.628  19.325   2.984  0.0215 -0.1847 -0.2275
16035W        W58948  17.517   2.070   8.005  0.1432  0.0903 -0.2626
16036W        W58949  25.871  17.621   4.749 -0.0450  0.0869 -0.1110
16037W        W58950   6.687  26.166   8.789 -0.3761 -0.1411  0.1680
16038W        W58951  29.171  25.883   2.909 -0.0810 -0.0013 -0.1403
16039W        W58952  29.108  23.043   2.078  0.1042 -0.0781  0.5914
16040W        W58953  19.174  20.444  28.024 -0.0417  0.2589  0.4378
16041W        W58954  23.223  19.795  29.508  0.0031  0.3640 -0.0356
16042W        W58955  11.024  19.961   4.934 -0.1988 -0.0749  0.0837
16043W        W58956  14.010  28.494  28.743  0.2606  0.0691  0.2312
16044W        W58957  17.928  14.583   4.434  0.4593 -0.1309  0.0899
16045W        W58958  17.522  22.229   2.505  0.0204 -0.2148 -0.0683
16046W        W58959  23.399  14.541   8.301 -0.0810  0.2270  0.2033
16047W        W58960  22.617  24.494   0.343 -0.3554 -0.1184  0.1147
16048W        W58961  27.038  31.034   4.119 -0.0891 -0.1307 -0.0172
16049W        W58962   7.682  24.143   0.813  0.0942 -0.1472  0.0752
16050W        W58963  10.797  11.125  25.783 -0.1602 -0.1203  0.1632
16051W        W58964  19.377  20.476  23.146  0.1556  0.1115  0.1497
16052W        W58965  15.865  18.770  27.109 -0.1636 -0.1838  0.1936
16053W        W58966  26.429  30.279   1.054  0.1351 -0.2987  0.2258
16054W        W58967  21.521  23.179   8.125  0.0464 -0.2055  0.0151
16055W        W58968  11.759  20.528   8.617  0.1037 -0.1923 -0.1654
16056W        W58969  23.486  28.061   3.732  0.0940 -0.2048  0.0414
16057W        W58970  10.415  20.979  28.688 -0.1857  0.1756  0.2347
16058W        W58971  12.515  19.759   8.576 -0.0305  0.1507 -0.2511
16059W        W58972  13.635  24.008   4.212  0.0820  0.1238  0.1867
16060W        W58973  24.613  10.476   5.846  0.0917  0.3691  0.1081
16061W        W58974  27.531  22.067   3.480 -0.0625  0.0614 -0.2711
16062W        W58975  16.199  23.388   0.234 -0.1136  0.2716 -0.3701
16063W        W58976  13.201  31.649   9.661 -0.0859 -0.0110  0.0773
16064W        W58977  18.399  28.731   7.192 -0.1832  0.2688 -0.2620
16065W        W58978  17.855  22.851   9.276 -0.0183 -0.2862 -0.2373
16066W        W58979  14.638  25.669   1.832 -0.0520 -0.1134 -0.3410
16067W        W58980  20.713  16.207   4.770  0.1931  0.1397  0.2023
16068W        W58981  11.551  22.400  27.444 -0.1887 -0.0574  0.0584
16069W        W58982  19.516  31.119   3.217 -0.0572  0.1772 -0.1104
16070W        W58983  13.627  26.160   6.404 -0.0630  0.1381 -0.0983
16071W        W58984  15.983  27.045   6.710 -0.1194 -0.1222 -0.1265
16072W        W58985  18.837  25.246   1.975  0.0112  0.0289  0.0353
16073W        W58986  25.887  19.474   7.868 -0.0096  0.0164 -0.1142
16074W        W58987  22.030  23.130  25.285 -0.0731  0.1186  0.0870
16075W        W58988  21.677  21.119   7.765 -0.0005 -0.0528  0.4471
16076W        W58989  13.008  17.621   2.827 -0.1498 -0.1760  0.0620
16077W        W58990   0.892  26.006   0.551 -0.2546 -0.1467 -0.2811
16078W        W58991  17.996  17.437   3.747  0.2608 -0.1142 -0.1117
16079W        W58992  18.557  23.140   4.287  0.0015 -0.0423 -0.1479
16080W        W58993  19.941  22.128   4.257  0.0360  0.0661  0.0455
16081W        W58994  14.221  26.048  10.823  0.0482  0.0950 -0.1776
16082W        W58995  19.052  27.884   9.058  0.0976 -0.0191  0.0217
16083W        W58996  25.841  29.573   9.090  0.2919 -0.0859  0.1294
16084W        W58997   6.225  28.710   6.215 -0.3322  0.2779 -0.1745
16085W        W58998  14.961  19.559   6.453  0.1829 -0.1849 -0.2110
16086W        W58999  26.616   0.134   9.880  0.2064 -0.2688  0.1081
16087W        W59000  16.390  24.118  28.375 -0.0571 -0.0443  0.1031
16088W        W59001  18.664  33.512   1.214 -0.1137 -0.1091 -0.1476
16089W        W59002  18.357  18.129  29.167 -0.0004 -0.0512  0.0517
16090W        W59003  23.069  26.994   7.296 -0.0973  0.0202  0.0750
16091W        W59004  14.633  23.977   3.407  0.1592  0.3060 -0.0690
16092W        W59005  18.106  26.669   7.046  0.2289  0.0825  0.2725
16093W        W59006  25.432  19.216   7.969 -0.2301  0.0070  0.2031
16094W        W59007  24.762  15.482   8.146 -0.2335  0.0794 -0.1613
16095W        W59008  13.323  19.136   5.704  0.0699 -0.3623  0.2613
16096W        W59009   8.091  11.266   8.223 -0.0493  0.0660  0.1811
16097W        W59010   6.443  20.790   1.227 -0.0583 -0.1649  0.3807
16098W        W59011  25.991  22.730   6.707  0.3963  0.0044  0.1695
16099W        W59012  27.767  29.541   9.785  0.2532  0.0016  0.0873
16100W        W59013  21.898  18.973  28.962 -0.0759  0.0446  0.0751
16101W        W59014  17.173  29.187   6.478 -0.0294 -0.2121 -0.1813
16102W        W59015  21.149  19.056   7.466  0.2148 -0.1367 -0.4160
16103W        W59016  17.943  26.912   2.934  0.2109 -0.1048 -0.0086
16104W        W59017  19.212  29.803  28.385 -0.2234 -0.3792 -0.1538
16105W        W59018  19.453  23.247   8.186 -0.1300 -0.1490 -0.3117
16106W        W59019  22.280  25.209   5.339  0.0441  0.1024  0.1171
16107W        W59020   9.798  18.234   7.491  0.1769 -0.0356  0.1488
16108W        W59021  17.767  16.340  28.381 -0.1105 -0.1616  0.0178
16109W        W59022  16.508  20.735   6.685 -0.0438  0.0987  0.0910
16110W        W59023  18.082  29.267   2.092  0.0639  0.2057 -0.3159
16111W        W59024  19.367  16.206   7.285 -0.1935  0.0098 -0.0805
16112W        W59025   8.452  19.711   9.763 -0.2034 -0.1406  0.1042
16113W        W59026   9.950  21.784   2.120  0.1748 -0.2581 -0.2913
16114W        W59027  16.435  20.228  27.508 -0.1720  0.1396 -0.0257
16115W        W59028  23.807  19.107   3.685  0.1568  0.1075 -0.3528
16116W        W59029  26.707   0.192   8.659  0.4417 -0.2187  0.1636
16117W        W59030  10.349  29.849   8.747  0.0969  0.4161 -0.0168
16118W        W59031  17.320  22.787   0.878 -0.2063 -0.0482 -0.0802
16119W        W59032  28.675  23.191   3.632 -0.0615 -0.1653  0.0224
16120W        W59033  28.993  23.318   3.122 -0.2497  0.0771 -0.2946
16121W        W59034  17.911  25.520   4.061  0.4548 -0.2380 -0.2272
16122W        W59035  15.144  11.090   8.177  0.4468  0.1200 -0.3589
16123W        W59036  22.243  33.835   8.920  0.5601 -0.3084  0.2801
16124W        W59037  16.807  14.823   5.744 -0.0295 -0.0356 -0.0453
16125W        W59038  28.971  18.874   7.304  0.2262  0.1989  0.3131
16126W        W59039  18.588  29.636   9.992 -0.2920  0.2792  0.0710
16127W        W59040  15.836  21.261   3.315 -0.0013  0.1686  0.2130
16128W        W59041  16.709  13.781  21.647  0.2663  0.0773  0.0433
16129W        W59042  16.491  30.453   5.584 -0.2271  0.2596  0.2459
16130W        W59043  16.817  33.770  11.297 -0.1009 -0.0906  0.3883
16131W        W59044  14.649  33.192   5.946 -0.1225 -0.0821  0.4754
16132W        W59045  12.202  26.823   7.651 -0.5415  0.1525  0.1851
16133W        W59046  13.076  20.514   3.771  0.0872  0.2318 -0.2960
16134W        W59047  23.229  27.372   7.978 -0.3275  0.0769 -0.0586
16135W        W59048  14.872  17.124   7.715 -0.1499 -0.2508 -0.0505
16136W        W59049  22.093  27.244   8.056 -0.0237 -0.1881  0.1507
16137W        W59050   8.916   4.397   8.407  0.2577 -0.1726 -0.0370
16138W        W59051  16.903  22.232   6.341 -0.1805 -0.0979 -0.1012
16139W        W59052  10.706  23.459   9.456  0.0088  0.0152  0.0951
16140W        W59053  30.239   1.925   9.505 -0.0771 -0.1240  0.1104
16141W        W59054  20.386  17.054   8.530  0.0103 -0.1167 -0.0493
16142W        W59055  23.434  33.442   8.799  0.0442  0.1745  0.0473
16143W        W59056  21.621  28.459   2.359 -0.0468 -0.2960 -0.0767
16144W        W59057  18.803  19.129  27.423  0.3479 -0.0113 -0.0125
16145W        W59058  21.888  30.431   8.936 -0.4134  0.3888  0.0216
16146W        W59059  18.638  31.799   0.127 -0.2062  0.0704  0.0124
16147W        W59060  19.625  21.594   7.044  0.1900 -0.3450 -0.0884
16148W        W59061  16.331  29.717   6.047  0.0994  0.4387  0.0415
16149W        W59062  21.418  30.074   3.725  0.2734  0.0283 -0.1322
16150W        W59063  29.590  28.847   0.586  0.0041 -0.0248 -0.0066
16151W        W59064  17.179  18.826  27.321 -0.0050 -0.1766  0.0491
16152W        W59065  15.793  16.154  28.887 -0.2889  0.1262  0.0340
16153W        W59066  20.727  31.810   1.464  0.1621  0.0964  0.0021
16154W        W59067  21.753  18.343   1.130 -0.0155 -0.0784 -0.1169
16155W        W59068  17.583  21.779   1.136 -0.2479  0.0290  0.1242
16156W        W59069  13.872  32.120   5.873 -0.0864 -0.3604  0.2615
16157W        W59070  20.667  16.325   6.279 -0.0136  0.1803  0.0033
16158W        W59071  16.538  16.985   6.057  0.0116 -0.2150 -0.1613
16159W        W59072  14.425  22.808   6.019 -0.0359 -0.1951  0.0437
16160W        W59073  14.405  25.331   4.878  0.1640  0.0634 -0.0416
16161W        W59074  22.376  16.129  26.500 -0.2487 -0.1006  0.1469
16162W        W59075  14.149  19.167   0.028  0.1106 -0.0764 -0.1197
16163W        W59076  25.857  23.317   8.514  0.0461  0.1311 -0.0710
16164W        W59077  30.951  25.267   6.296 -0.1438  0.1516  0.0374
16165W        W59078  24.474  20.764   1.177 -0.1502  0.0985 -0.2332
16166W        W59079  17.755  32.276   8.127 -0.0435  0.0862  0.0086
16167W        W59080  18.641  12.275   7.977  0.3576 -0.2739 -0.1044
16168W        W59081  19.815  10.203   7.720 -0.0902  0.0821  0.0538
16169W        W59082  17.459  15.951   7.372  0.1767 -0.1703  0.0898
16170W        W59083  24.098  16.544   7.791  0.2093 -0.3689  0.0425
16171W        W59084  17.043   6.244   6.954 -0.0464 -0.0392  0.1532
16172W        W59085  20.449   7.537   5.277 -0.0514 -0.1659  0.0704
16173W        W59086  19.733  18.255   7.860  0.0278 -0.1866 -0.0474
16174W        W59087  21.988  24.330   8.027  0.3665 -0.3094  0.0146
16175W        W59088  23.385  26.440   7.807  0.3563 -0.5101  0.0494
16176W        W59089  25.257  29.872   5.272 -0.0506  0.0839  0.2936
16177W        W59090  31.606  15.411   9.815  0.0841  0.2507 -0.1304
16178W        W59091  21.992  13.695   5.093 -0.2885 -0.1589 -0.1009
16179W        W59092  22.891  18.159   3.477  0.0374 -0.1110 -0.0916
16180W        W59093  27.996  29.843  24.814 -0.1612 -0.1111  0.1087
16181W        W59094   3.694  19.431   1.038  0.1145  0.3713 -0.2471
16182W        W59095  33.455  25.345   7.511  0.1151  0.3165  0.1504
16183W        W59096  12.303  29.470  10.604  0.0112 -0.2094 -0.0307
16184W        W59097  17.862  20.855   5.811 -0.1640  0.3962 -0.0957
16185W        W59098  20.310  22.267   7.548  0.1195  0.0781  0.0838
16186W        W59099  27.140  26.494   5.089  0.2242 -0.1020  0.0493
16187W        W59100  12.245  22.493   3.269 -0.1473 -0.1542 -0.0389
16188W        W59101  20.606   8.300  25.825 -0.1584 -0.0536 -0.0961
16189W        W59102  15.587  27.260   4.088 -0.2850  0.1494  0.0759
16190W        W59103  28.894  28.825   9.007 -0.0465  0.0219  0.1331
16191W        W59104  12.444  16.797   2.850  0.1100 -0.1639  0.0423
16192W        W59105  11.911  26.446   6.186 -0.1447  0.2436  0.1105
16193W        W59106  14.310  25.408   7.667 -0.5182  0.0103  0.3369
16194W        W59107  13.726  19.517  27.406  0.1213 -0.0239 -0.1971
16195W        W59108  19.801  20.338   5.867 -0.1407 -0.1768  0.2291
16196W        W59109  30.673  15.206   6.635  0.1290  0.3219  0.0682
16197W        W59110  17.097  29.195  10.920 -0.2121  0.1932  0.0632
16198W        W59111   9.730  24.478   2.742 -0.0721 -0.0272  0.0915
16199W        W59112  25.643  14.168   8.003  0.1082 -0.4235 -0.3398
16200W        W59113  28.762   1.759   1.048  0.2571  0.1540  0.0378
16201W        W59114  16.099  20.098   6.014  0.2449 -0.4815  0.1289
16202W        W59115  17.257  28.597   8.796 -0.1014  0.0544  0.1608
16203W        W59116  15.990  18.616   5.639  0.2846 -0.2425 -0.0599
16204W        W59117  26.273  22.562   3.844  0.1152  0.1862  0.0518
16205W        W59118  22.516  32.351   2.555  0.1238 -0.0510 -0.2014
16206W        W59119  11.247  19.205   6.246  0.0977  0.1438  0.0172
16207W        W59120  16.083  14.151  28.335  0.1879 -0.2476  0.2027
16208W        W59121  20.070  22.512   4.627 -0.2051  0.0076 -0.1709
16209W        W59122  17.374  22.555  28.848 -0.3438  0.2322  0.1701
16210W        W59123  18.552  23.997   7.408 -0.0091 -0.0540  0.0596
16211W        W59124  22.974  29.173   8.908  0.0504 -0.0012  0.2458
16212W        W59125  31.603  21.095  21.708 -0.0059 -0.3055  0.1518
16213W        W59126  26.660  18.501   6.226  0.3859  0.0118  0.2687
16214W        W59127  15.217  17.465   1.442 -0.1518  0.0380  0.0200
16215W        W59128  12.448  24.909  10.047 -0.2042  0.2099 -0.1242
16216W        W59129  20.917  24.507   7.801  0.3276  0.1806  0.1694
16217W        W59130  17.065  31.768   5.330 -0.0969  0.0655  0.0127
16218W        W59131  17.287  14.363  29.603 -0.0639  0.1588 -0.2723
16219W        W59132  11.360  26.656   9.473  0.0135  0.4809  0.0447
16220W        W59133  14.940  25.059   5.539 -0.1822  0.1017  0.2168
16221W        W59134  18.479  17.136   6.180 -0.1143 -0.1150 -0.0069
16222W        W59135  23.799  17.477   0.796  0.0342 -0.0468  0.1628
16223W        W59136  15.895  17.796   3.565 -0.0530 -0.2168 -0.0259
16224W        W59137  18.909  16.778   6.140 -0.2979  0.0447 -0.1217
16225W        W59138  13.653  26.822  11.234 -0.0479 -0.0827  0.0006
16226W        W59139  24.730  23.205  28.851 -0.4163  0.1160 -0.0144
16227W        W59140  14.870  24.414   4.140 -0.0126  0.0893  0.0797
16228W        W59141  32.360  24.838   3.817 -0.2427 -0.2191 -0.1869
16229W        W59142  14.816  24.678   0.590  0.3566  0.0369  0.2319
16230W        W59143  24.591  20.422   8.151  0.1888 -0.0641  0.1679
16231W        W59144  29.378  18.953   7.658 -0.1958  0.3774  0.2632
16232W        W59145  30.528  17.641   4.611  0.3032  0.3134  0.0141
16233W        W59146  14.728  23.517   7.374  0.0036 -0.2657 -0.1133
16234W        W59147  13.192  24.977   1.800 -0.1699 -0.3516  0.0501
16235W        W59148  28.815  20.077   6.626 -0.2262 -0.1735  0.0845
16236W        W59149  29.202  27.652  28.458 -0.1688  0.1388  0.0410
16237W        W59150  15.025  18.372   3.757 -0.2416  0.0044  0.1633
16238W        W59151  20.891  26.681   3.600 -0.2518 -0.2043  0.0647
16239W        W59152  27.345  21.080   4.956  0.4846  0.1856  0.2899
16240W        W59153  25.216  17.533   6.021 -0.0523  0.2815  0.0014
16241W        W59154  21.669  24.555   7.158 -0.2196  0.1565  0.1148
16242W        W59155  23.579  25.316   3.472  0.1185  0.2536  0.2798
16243W        W59156  22.778  24.500  29.140  0.1972 -0.0710  0.0285
16244W        W59157  15.980  31.506  10.267 -0.0264 -0.3103 -0.0003
16245W        W59158   8.744  21.724   9.098 -0.0670 -0.0409 -0.2517
16246W        W59159  30.049  13.764   1.101 -0.1060 -0.1084 -0.2036
16247W        W59160  16.151  19.550   7.182  0.3182  0.2418  0.3239
16248W        W59161  32.438  27.331   2.317  0.0726 -0.0331  0.0722
16249W        W59162  24.667  24.487   6.105 -0.1906 -0.2274 -0.3641
16250W        W59163  13.358  34.093   5.867  0.0690 -0.0615  0.3401
16251W        W59164  21.913  30.777   5.078  0.3966  0.1731  0.2485
16252W        W59165  18.730  12.539  27.742 -0.1413 -0.0540 -0.1236
16253W        W59166  18.827  15.836  24.516 -0.0418 -0.1216 -0.1075
16254W        W59167  16.434  15.045   1.969 -0.1365  0.1231  0.0670
16255W        W59168  19.354  26.279   4.602  0.0189  0.1837  0.3033
16256W        W59169  13.679  15.380   5.226 -0.0170  0.0971 -0.0277
16257W        W59170  13.173  19.987   9.107  0.2127 -0.1337  0.0509
16258W        W59171  21.114  25.678   3.714  0.0312 -0.2173 -0.0511
16259W        W59172  23.392  17.919   3.496 -0.0047  0.0710  0.1007
16260W        W59173  21.449  26.859   3.181  0.1316 -0.4614 -0.1192
16261W        W59174  20.455  22.792   6.255  0.0521  0.1862 -0.0880
16262W        W59175  21.136  19.194  28.089  0.4041  0.0885 -0.4087
16263W        W59176  21.693  32.446   8.478 -0.0459 -0.1944 -0.0095
16264W        W59177  30.639  28.605  29.507 -0.0236 -0.1503 -0.0175
16265W        W59178  14.718  33.609  11.420 -0.0718 -0.0326  0.1177
16266W        W59179  23.356  21.447   5.033 -0.0797 -0.1763 -0.0561
16267W        W59180  25.782  24.029   8.164  0.1832  0.1449 -0.0000
16268W        W59181  22.658  28.596   8.009  0.0253 -0.2553 -0.1741
16269W        W59182  23.823  24.293   2.008 -0.2509 -0.3029  0.2170
16270W        W59183  21.084   0.756  29.724  0.1766  0.0282 -0.0670
16271W        W59184   6.057  28.327   3.834  0.4511  0.0315 -0.2602
16272W        W59185  23.378  24.404   4.397 -0.2280  0.1659 -0.0812
16273W        W59186  22.922  14.134   8.818  0.2055 -0.1148  0.0399
16274W        W59187  31.369  27.347   5.287 -0.0682 -0.3361 -0.0295
16275W        W59188  20.593  18.259   5.439  0.0988 -0.1186 -0.0466
16276W        W59189  17.935  24.095   1.223  0.1088  0.3653 -0.0827
16277W        W59190  12.358  28.381   4.262  0.0218 -0.1451  0.2443
16278W        W59191  14.206  27.849   0.906  0.0708  0.2305  0.2729
16279W        W59192  24.244  15.670   4.692 -0.2075 -0.0566  0.3762
16280W        W59193  23.504  16.482   3.962  0.2117 -0.1882 -0.5595
16281W        W59194  25.118  26.412   8.789 -0.2301  0.0818 -0.0426
16282W        W59195  23.600  16.572  27.145  0.1695  0.1790 -0.0468
16283W        W59196  19.315  25.115   8.621 -0.1629 -0.3153 -0.0060
16284W        W59197  12.176  13.923  26.002  0.0455  0.0477  0.0065
16285W        W59198  31.742  23.083   9.778  0.2776 -0.1367 -0.0693
16286W        W59199  11.791   3.003   8.199  0.3852  0.1072 -0.2500
16287W        W59200  23.155   0.730   0.953  0.3398 -0.2286  0.0288
16288W        W59201  27.784  27.328   6.692  0.1007 -0.2270  0.3687
16289W        W59202  15.887  21.479   7.640  0.1654  0.1932  0.3105
16290W        W59203  19.014  28.053  25.062  0.3061 -0.2034 -0.1574
16291W        W59204  15.292  27.049   7.752 -0.0715  0.1402  0.3456
16292W        W59205  18.488  23.133   8.765  0.5196 -0.2426 -0.1886
16293W        W59206  15.577  33.510   6.339  0.0211 -0.0062 -0.2025
16294W        W59207  28.626   0.066  23.591 -0.1820 -0.0520  0.1315
16295W        W59208  11.049   0.507  10.575  0.1225 -0.0424  0.1932
16296W        W59209  27.793   1.926   5.504  0.1369  0.1496  0.0608
16297W        W59210  13.520  31.661  11.055 -0.1259  0.3501 -0.0507
16298W        W59211   6.072  28.330   2.487 -0.0731 -0.1432  0.0957
16299W        W59212  20.838  32.290   3.620 -0.0785 -0.0272  0.2460
16300W        W59213  17.813  29.685   3.018 -0.0430 -0.1136  0.2366
16301W        W59214  25.566  25.152   7.524  0.1363  0.1514  0.0041
16302W        W59215  14.128  21.262   7.462 -0.2108  0.0934 -0.1976
16303W        W59216  16.996  25.815   9.479 -0.4141 -0.1748 -0.2259
16304W        W59217  17.275   5.661  23.083 -0.0860  0.1227 -0.0729
16305W        W59218  16.306  19.233   6.238  0.1655  0.1183 -0.0300
16306W        W59219  12.701  30.335   8.188  0.1241  0.0224 -0.0508
16307W        W59220  19.230  28.832   6.868  0.2380  0.0572 -0.3132
16308W        W59221  30.247  29.413   5.800 -0.0799  0.0003 -0.0648
16309W        W59222   8.745  29.914   2.680  0.1831  0.0693  0.2078
16310W        W59223  20.337  24.241  29.781 -0.2364  0.1190  0.1837
16311W        W59224  22.640  21.396  22.749  0.2524 -0.1426  0.1205
16312W        W59225  27.043  27.578   6.178  0.0257 -0.3706  0.1281
16313W        W59226  30.559  25.974   5.285 -0.0213  0.3086  0.1124
16314W        W59227  21.285  22.660   3.576 -0.1283 -0.1428 -0.0399
16315W        W59228  15.364   2.914   7.637 -0.1275  0.0578  0.1115
16316W        W59229  27.211  29.871   9.043 -0.1905 -0.2209 -0.0342
16317W        W59230  28.692   0.518   0.809 -0.1172 -0.1085  0.2435
16318W        W59231  10.023   6.899   4.784  0.1992  0.2977 -0.0014
16319W        W59232  21.928  23.912  25.899 -0.0901 -0.2731  0.1405
16320W        W59233  29.069  30.638   2.302  0.0514  0.0809 -0.0023
16321W        W59234  34.442  29.643   4.036  0.0204  0.0701 -0.0124
16322W        W59235  26.173  25.923   5.828 -0.2516  0.0084 -0.1200
16323W        W59236  14.567  32.383   1.905 -0.0298 -0.1006 -0.0942
16324W        W59237  16.302  31.446   8.930 -0.1570 -0.0981 -0.1057
16325W        W59238  29.084  22.255   0.752  0.2450  0.0155 -0.0455
16326W        W59239  21.512  22.819   2.012  0.2144 -0.0448 -0.2198
16327W        W59240  24.688  25.664   2.062  0.5752 -0.1451 -0.0499
16328W        W59241  22.584  34.130  18.581 -0.0760 -0.1888 -0.1526
16329W        W59242  24.307  24.673   6.931 -0.2231  0.0069  0.2707
16330W        W59243  17.193   2.632   1.527  0.0617 -0.3558 -0.3344
16331W        W59244  14.815  21.849   7.921 -0.4559 -0.1227  0.0648
16332W        W59245  11.285  25.456  27.162  0.2307  0.0411  0.3261
16333W        W59246   2.835  30.146   5.370 -0.0443 -0.1106 -0.0465
16334W        W59247  15.972  28.353   2.961  0.0562 -0.1267  0.1155
16335W        W59248  15.708  34.254   3.238 -0.0039 -0.0293 -0.0435
16336W        W59249  18.687  20.485   8.417  0.0965 -0.0463 -0.2068
16337W        W59250  17.142  22.384  24.569  0.0541  0.0715 -0.3043
16338W        W59251  17.223  25.013   0.269  0.2346 -0.0172  0.1058
16339W        W59252  24.282  13.674   4.145  0.1098  0.0900  0.1701
16340W        W59253  16.230  20.835   1.494  0.1447 -0.1076 -0.1923
16341W        W59254  19.286  26.724   3.582 -0.0988  0.2570 -0.0147
16342W        W59255  23.130  26.665   5.375  0.0052  0.2582 -0.3548
16343W        W59256  23.413  22.733   2.570 -0.1684  0.1324 -0.1051
16344W        W59257  18.004  25.464   4.943 -0.3495  0.1415 -0.2202
16345W        W59258  22.142  33.419  28.925  0.1489  0.2024 -0.1628
16346W        W59259  10.358  24.106   8.012  0.1288 -0.1897 -0.0839
16347W        W59260  20.791  17.601   4.854  0.2382 -0.1470 -0.0492
16348W        W59261  23.450  22.251   2.793 -0.0776  0.0204  0.0693
16349W        W59262  13.903  33.537   6.923 -0.0946  0.2411 -0.1703
16350W        W59263  13.441  31.726   0.246  0.1070 -0.2278  0.2570
16351W        W59264  23.988  24.683   7.351 -0.0284  0.0542  0.1792
16352W        W59265  28.816   5.279   5.163  0.5459  0.1381  0.0242
16353W        W59266  31.821  30.807   4.687  0.1148 -0.1654  0.1181
16354W        W59267  28.552   0.213   1.265  0.1807  0.3167 -0.2237
16355W        W59268  26.599  26.261  29.271 -0.2670 -0.0216  0.3541
16356W        W59269  25.710   1.976  27.724  0.0330 -0.0200 -0.0097
16357W        W59270  19.426  24.230   2.976 -0.0501  0.1338 -0.2108
16358W        W59271  11.946  25.688  28.495 -0.0581  0.1383  0.0749
16359W        W59272  25.818  32.795   6.777 -0.0516 -0.2137 -0.1556
16360W        W59273  15.160  28.136   3.261 -0.0574 -0.0084 -0.3106
16361W        W59274  22.365  34.276   5.624 -0.3181 -0.1520 -0.1784
16362W        W59275  22.258   0.669   5.842  0.0980 -0.3148 -0.0628
16363W        W59276  13.214   0.023  24.055  0.2633  0.2014 -0.3781
16364W        W59277  20.007  24.478  24.265  0.0560  0.0900  0.3835
16365W        W59278  24.316  28.968  27.970  0.0212  0.1912  0.1273
16366W        W59279  15.973   7.887  23.538  0.2819 -0.2385  0.1366
16367W        W59280  16.406  27.886  26.539  0.2311  0.1315 -0.0628
16368W        W59281  22.557  19.878  21.270  0.1336  0.2773 -0.0487
16369W        W59282  33.926  29.119  28.883 -0.1515  0.1408  0.1989
16370W        W59283  22.215  15.579   1.504  0.2847  0.1461  0.2222
16371W        W59284  24.494  21.221   3.815  0.3583 -0.3717 -0.0206
16372W        W59285  14.327  26.350   5.855 -0.1054  0.2229 -0.1262
16373W        W59286  29.310  24.929  22.253  0.3033  0.0767  0.0982
16374W        W59287  17.602  19.532  22.644  0.1196 -0.1380 -0.1789
16375W        W59288  30.977  24.171   3.618  0.2682 -0.0573 -0.2843
16376W        W59289  17.422  23.701   7.064  0.2365  0.1745 -0.1167
16377W        W59290  16.573  24.552   6.668  0.1267  0.0886  0.1947
16378W        W59291  15.536  33.441   8.343 -0.0448 -0.4394 -0.0948
16379W        W59292  17.220  32.629   1.905 -0.0270  0.0508  0.4560
16380W        W59293  13.410  27.449   9.813  0.5312  0.1357 -0.2450
16381W        W59294  15.654  22.059   0.203 -0.1782  0.0231  0.0006
16382W        W59295  11.402  31.891  27.111 -0.2448 -0.0170 -0.4161
16383W        W59296  18.451  32.579   4.982 -0.3240  0.0854 -0.0956
16384W        W59297  13.290  22.959  29.376  0.3754 -0.3035  0.1658
16385W        W59298  28.597   3.021   7.866  0.0329 -0.1327 -0.4919
16386W        W59299  17.353  16.505   1.942  0.0129 -0.2318 -0.2242
16387W        W59300  13.074  24.653  21.268  0.0652  0.1161 -0.0130
16388W        W59301  14.837  30.154   9.293  0.0300 -0.1171 -0.0320
16389W        W59302   5.552  24.089   2.680  0.1053 -0.4201  0.0605
16390W        W59303  25.668  16.042   7.566 -0.1117  0.0447  0.2189
16391W        W59304   9.142  13.823   0.452  0.2002  0.2383  0.3055
16392W        W59305  31.007  17.863   5.057  0.1317  0.1857  0.0285
16393W        W59306  15.265  23.612  20.901  0.1118 -0.1925 -0.4168
16394W        W59307  32.317   9.339  26.244  0.0376 -0.2168  0.1972
16395W        W59308  20.498  15.642   0.687 -0.0151  0.0333  0.1930
16396W        W59309  19.833  22.571   6.016  0.3644 -0.0465  0.1256
16397W        W59310  15.879  31.087   5.000  0.0966 -0.1169 -0.0199
16398W        W59311  12.715  25.977  28.789  0.2893 -0.1019 -0.0772
16399W        W59312  26.215  23.660  25.821  0.0960 -0.3355  0.0221
16400W        W59313  32.750  28.147   4.985 -0.1592 -0.4760  0.0114
16401W        W59314  12.905  23.250  10.349 -0.1784 -0.0138 -0.2120
16402W        W59315   6.856  19.761  27.227 -0.0051 -0.1393 -0.1493
16403W        W59316  21.311   3.133   9.434 -0.1483 -0.0822  0.1853
16404W        W59317  21.699  32.712  28.054  0.3763  0.3665 -0.1262
16405W        W59318  12.259  25.366   1.346 -0.0563 -0.0797  0.0208
16406W        W59319  25.365  23.249  15.713  0.1101  0.3535  0.0759
16407W        W59320  16.450  30.714   0.309  0.0487  0.1821 -0.3224
16408W        W59321  17.095   6.506   6.069 -0.0361  0.1873  0.2671
16409W        W59322  23.174  16.861   6.330  0.1200 -0.2498 -0.1577
16410W        W59323  19.107  22.251  23.240  0.2414 -0.4129 -0.1520
16411W        W59324  11.317  31.026   6.969  0.2552  0.3616  0.2960
16412W        W59325  18.498  13.942   1.226 -0.0886 -0.2116 -0.2759
16413W        W59326  16.161  27.106  25.398 -0.1126 -0.1110  0.2954
16414W        W59327  26.666  32.370   3.385 -0.1332  0.3174 -0.0402
16415W        W59328  24.553   1.876   4.239 -0.0103 -0.2506 -0.2903
16416W        W59329  13.058  15.704  20.201  0.0454  0.0794  0.0062
16417W        W59330  17.535  18.963  28.612 -0.1983 -0.0018 -0.1465
16418W        W59331  19.699   2.458  24.556  0.1134  0.0137 -0.1608
16419W        W59332  25.256  29.695   4.791  0.0262  0.0761 -0.0470
16420W        W59333  15.800  20.724  26.091 -0.2348  0.1032  0.0565
16421W        W59334  20.790   2.262   9.449  0.3183 -0.1629  0.1612
16422W        W59335  16.507  27.608   3.861  0.0061 -0.3270 -0.3360
16423W        W59336  17.356  30.661   4.520  0.2537 -0.1901  0.0821
16424W        W59337   9.573  28.405  10.380 -0.1511  0.3272 -0.0936
16425W        W59338  21.592  16.480  26.922 -0.2979  0.0807 -0.0051
16426W        W59339  24.203  24.265  24.022 -0.3344 -0.0170  0.0194
16427W        W59340  15.634  22.839  18.457  0.4191 -0.0535 -0.2676
16428W        W59341  15.587  27.675   6.842  0.2925  0.0836 -0.1006
16429W        W59342  27.065  24.385   4.244  0.0427  0.1096 -0.1240
16430W        W59343  23.187  23.074  26.019 -0.1199  0.2220 -0.0456
16431W        W59344  13.766  18.738  28.403  0.1160 -0.0691 -0.3438
16432W        W59345  31.643  16.986   1.863 -0.2399 -0.2281  0.1761
16433W        W59346  16.907  27.345  17.662 -0.3509  0.2976 -0.2659
16434W        W59347  19.892  24.984  25.297  0.1449 -0.2564 -0.2593
16435W        W59348  24.529  29.879  24.195 -0.1002 -0.3623  0.0247
16436W        W59349  17.699  30.244   0.903  0.1482  0.1979 -0.0634
16437W        W59350  20.365  17.946  28.339 -0.0920 -0.0725  0.0902
16438W        W59351  16.327  30.850   5.797 -0.0836  0.2874 -0.1060
16439W        W59352  19.918  21.972  29.537 -0.1374  0.0486 -0.0399
16440W        W59353   0.454  29.644  21.816 -0.0042 -0.3293 -0.0563
16441W        W59354  16.005  20.797   3.442 -0.1461 -0.0569  0.0646
16442W        W59355  24.746  30.173  26.410  0.1263  0.1108 -0.1999
16443W        W59356   8.087  20.210   6.508 -0.1124 -0.3653  0.1094
16444W        W59357  22.703  30.522   2.037 -0.2800  0.1147 -0.1526
16445W        W59358  20.442  30.324  29.679 -0.0741  0.0649 -0.2874
16446W        W59359  10.836  32.216   8.448 -0.2690  0.0059 -0.0218
16447W        W59360  14.999   0.916   2.658  0.1245 -0.1265  0.0334
16448W        W59361  18.907  23.651  27.938 -0.0239  0.0131 -0.1032
16449W        W59362  27.308   0.448  28.086 -0.0312  0.2930 -0.0077
16450W        W59363   8.837  28.780   3.659 -0.3481  0.0437 -0.2065
16451W        W59364  31.811  25.927   7.022 -0.1428  0.1272 -0.0034
16452W        W59365  21.445  23.623   8.340 -0.0548  0.0635 -0.0727
16453W        W59366  25.524  26.134  28.446 -0.2172 -0.0572 -0.0173
16454W        W59367  20.200  25.992   2.623  0.1966  0.1286  0.1664
16455W        W59368  20.467  17.609  28.732  0.1433 -0.0429 -0.0564
16456W        W59369  27.171  18.881   4.007  0.3722  0.0358 -0.1528
16457W        W59370  18.948  33.044  27.896 -0.1218 -0.0969  0.3275
16458W        W59371  23.701  24.061   3.201 -0.1262 -0.1027 -0.2184
16459W        W59372  25.132  27.238   1.560 -0.0570 -0.2372 -0.1376
16460W        W59373  20.975  17.309   3.268  0.0353  0.0733  0.1221
16461W        W59374  19.375   0.099  28.622  0.0984 -0.1834 -0.0398
16462W        W59375  15.624  22.562  28.623 -0.0078  0.0698  0.1567
16463W        W59376  19.917  29.147  25.191  0.0331  0.0578 -0.0904
16464W        W59377  10.509  33.441   4.897  0.0513  0.0296 -0.0255
16465W        W59378  15.929  28.249   4.312  0.0557  0.0749  0.0637
16466W        W59379  18.756  26.109  26.249  0.0474 -0.2020  0.1649
16467W        W59380  12.538  27.725   3.382 -0.0777 -0.1733  0.1560
16468W        W59381  23.633  22.602   3.389  0.0631  0.1888 -0.0892
16469W        W59382  15.449  12.415   1.739  0.0279  0.2845  0.0146
16470W        W59383  21.358  22.689   5.375 -0.1681  0.0445 -0.2709
16471W        W59384  15.376  29.626   3.711 -0.1670  0.0820  0.3522
16472W        W59385  18.660  16.279  22.307 -0.2301 -0.0256 -0.0668
16473W        W59386   9.011  28.903  11.038  0.0157  0.0372  0.4899
16474W        W59387  18.204  22.813   6.784  0.0399  0.0226  0.4278
16475W        W59388  27.392   7.142   6.795  0.0027 -0.2063  0.0535
16476W        W59389  26.417  26.504   6.521  0.0480 -0.1244 -0.1862
16477W        W59390  15.101   0.452  21.963 -0.2478  0.1101  0.2223
16478W        W59391  17.680   1.312  21.372 -0.3736  0.0274 -0.1847
16479W        W59392  31.953   8.795   0.348 -0.2814 -0.0421 -0.0381
16480W        W59393  16.700  27.865  24.364  0.0891  0.0445 -0.0539
16481W        W59394  19.309   6.616  29.585 -0.0164 -0.1231 -0.0936
16482W        W59395  23.514  31.898   8.992  0.2308 -0.0006  0.1920
16483W        W59396  21.282  30.260  29.158 -0.0248 -0.0435 -0.1489
16484W        W59397  20.904  19.172   5.732  0.0004 -0.0100  0.2777
16485W        W59398  12.851  19.268  24.166 -0.1414 -0.3388  0.1744
16486W        W59399  12.373  29.203   5.490 -0.2106 -0.1760 -0.2219
16487W        W59400  29.969  28.533   0.723 -0.0838  0.2644 -0.0530
16488W        W59401  14.738  29.487   8.374  0.3739 -0.0431 -0.0179
16489W        W59402  32.244  23.293   4.709 -0.0570 -0.0514 -0.4145
16490W        W59403  30.796  26.672   3.134 -0.0130  0.4742  0.0645
16491W        W59404  20.209  23.196   1.605 -0.1019 -0.2329  0.1327
16492W        W59405  14.893  22.328  16.064 -0.2620  0.1989 -0.2027
16493W        W59406  19.109  24.242  26.356 -0.3425  0.1612  0.0155
16494W        W59407  15.295  34.040  26.171  0.3174  0.0627 -0.2262
16495W        W59408  20.293  25.189   7.010  0.0324 -0.0652  0.3354
16496W        W59409  17.789  23.723   2.543  0.0957  0.2036  0.2762
16497W        W59410  17.991  20.580  25.119  0.0957 -0.1092 -0.0106
16498W        W59411  19.119  32.088  27.741 -0.1046  0.1419  0.0279
16499W        W59412  15.498  23.722   9.132 -0.2192 -0.0954  0.0568
16500W        W59413  12.665   4.371   5.919 -0.0013 -0.1105 -0.0033
16501W        W59414  25.754  28.050   6.154 -0.1979 -0.2968 -0.0368
16502W        W59415  10.589  21.700   4.678  0.0735 -0.1112  0.2460
16503W        W59416   9.145  22.859  18.309  0.0109 -0.1305 -0.3198
16504W        W59417  19.784  26.176  26.630 -0.3567 -0.2226  0.2708
16505W        W59418  19.820  22.480  18.786  0.0248  0.0125  0.0933
16506W        W59419  25.055  30.451   9.366  0.5508 -0.1810  0.0584
16507W        W59420  17.222  29.817   2.024 -0.0754 -0.0427 -0.2365
16508W        W59421  14.631  28.806   5.948  0.0107  0.2710  0.3024
16509W        W59422   7.827  26.093   0.691  0.0141  0.2927 -0.3422
16510W        W59423  17.008  30.461   7.198  0.0880 -0.1321  0.1502
16511W        W59424  17.687   3.006   5.174 -0.1685 -0.1684 -0.3423
16512W        W59425  18.861   0.031  27.964 -0.0873 -0.1501 -0.1863
16513W        W59426  26.184   2.432  29.533 -0.0219  0.1488  0.0430
16514W        W59427  20.111  13.983  22.887 -0.1477 -0.1864  0.0108
16515W        W59428  21.541  27.421   1.425 -0.4238 -0.2821  0.3909
16516W        W59429  29.228  25.986  17.120  0.2654  0.1080 -0.1428
16517W        W59430  21.515  33.827   2.964  0.0266  0.0649 -0.2217
16518W        W59431  17.815  22.027  26.115  0.0161  0.3282  0.0250
16519W        W59432  23.576  33.594  26.934  0.0384  0.0480 -0.1733
16520W        W59433  10.707  29.113   7.286  0.1539  0.2199  0.1153
16521W        W59434  17.859  27.766   2.518 -0.0991 -0.0031 -0.4530
16522W        W59435  17.357  26.929  28.651 -0.1321 -0.1823  0.1580
16523W        W59436  21.814   1.137   0.411  0.0455 -0.0303  0.1750
16524W        W59437  23.218  33.521   7.675 -0.1629  0.1892  0.1319
16525W        W59438  26.120  23.180   5.739 -0.0452  0.0748 -0.1124
16526W        W59439   9.488   6.031  22.426  0.1156 -0.0511 -0.0051
16527W        W59440  14.611  26.891   7.115  0.3830  0.0384  0.1730
16528W        W59441  19.134  24.511  29.447 -0.1424 -0.1290  0.0385
16529W        W59442  26.830  30.474   0.017 -0.4176  0.0738 -0.3213
16530W        W59443  21.907  24.428   1.951  0.4408  0.1151 -0.3078
16531W        W59444  19.537  32.804   0.400 -0.0995 -0.0616  0.5005
16532W        W59445   7.028  28.810   5.158 -0.1623  0.0401 -0.1567
16533W        W59446  12.298  25.747   8.875 -0.0024 -0.2241  0.1011
16534W        W59447  23.072  16.788  26.412  0.0086  0.1215 -0.5348
16535W        W59448   5.655  16.381   2.720  0.0321 -0.1143  0.1826
16536W        W59449  19.951  20.340  23.003 -0.1347 -0.1995 -0.2286
16537W        W59450  25.705  25.673   0.145  0.1303 -0.4101  0.0258
16538W        W59451  21.803  30.298   8.440 -0.0507 -0.1228 -0.1580
16539W        W59452  25.435  34.109  27.088  0.3436 -0.0727  0.4136
16540W        W59453  17.948  18.031   3.927  0.1340 -0.0651  0.1645
16541W        W59454  12.958  23.518   0.705 -0.4295 -0.0949 -0.0436
16542W        W59455  19.545  30.484   0.058  0.0646 -0.1792 -0.2146
16543W        W59456  19.485  31.214   1.642 -0.3291  0.0348 -0.2506
16544W        W59457  23.359  24.153  27.508 -0.1670 -0.0046  0.0831
16545W        W59458  18.613  22.513   1.729  0.2177 -0.1958  0.2976
16546W        W59459  29.875  27.048   7.711 -0.1071 -0.1399  0.3393
16547W        W59460  14.656  34.417   2.765 -0.0886 -0.1157  0.0391
16548W        W59461  22.619  22.425   3.664  0.0519  0.1560 -0.2933
16549W        W59462  26.084   7.254   4.267 -0.0245  0.0099  0.0957
16550W        W59463  25.786   4.615   9.159  0.0395 -0.0653 -0.4050
16551W        W59464  31.734  17.491   0.330 -0.2977  0.0249 -0.3823
16552W        W59465  32.650  34.219   3.302 -0.3029 -0.0173  0.2517
16553W        W59466  17.968  20.495  26.060  0.0301 -0.0937  0.0232
16554W        W59467  14.760  31.478   8.018 -0.0769  0.0523  0.0640
16555W        W59468  24.230  25.329  27.258  0.0044  0.0784  0.0109
16556W        W59469  21.794  25.615   2.035 -0.2247 -0.1713 -0.1550
16557W        W59470  30.748  21.133   4.665  0.2468 -0.2758  0.0054
16558W        W59471  14.758  32.111  10.514 -0.0113  0.0440  0.3111
16559W        W59472  19.523  21.668  21.344 -0.3152  0.0614  0.0983
16560W        W59473  12.825  15.668   0.929  0.4802 -0.0893 -0.2969
16561W        W59474  17.842  20.883  25.575 -0.0717  0.0062  0.0416
16562W        W59475   9.673  27.952  10.227 -0.1317 -0.0015  0.4091
16563W        W59476  14.821  20.799  20.448  0.1757  0.0036 -0.1647
16564W        W59477  19.277   6.643  25.551  0.0193  0.0001  0.0458
16565W        W59478  24.909  21.134  28.195  0.1624  0.0536  0.2295
16566W        W59479  10.239   2.836  29.218  0.0601  0.0957  0.2068
16567W        W59480  12.928  23.833   7.439  0.1988  0.1546 -0.0696
16568W        W59481  26.545  31.482  17.637 -0.0371  0.0472 -0.2383
16569W        W59482  23.232  27.289   6.949  0.1581 -0.3497 -0.1800
16570W        W59483  14.014  32.359   2.775  0.4948 -0.0045 -0.0480
16571W        W59484  12.457  28.750   4.565 -0.2102 -0.0608  0.0094
16572W        W59485  15.312  26.556  26.371 -0.2284  0.2018  0.2110
16573W        W59486  21.836  27.673  26.157  0.2011  0.2712  0.1126
16574W        W59487  29.369  33.887  17.774  0.0731 -0.3245  0.2265
16575W        W59488  30.509  30.606   6.247 -0.1512  0.1530 -0.0324
16576W        W59489  15.336  33.317   3.516  0.1073  0.5224  0.0897
16577W        W59490  17.931  32.069  27.152  0.3569  0.1351  0.0911
16578W        W59491  19.490  25.252   3.337  0.1487  0.1205  0.3065
16579W        W59492  24.246   1.628  23.277 -0.0922 -0.0618 -0.2611
16580W        W59493  13.400  20.927  16.183  0.2672  0.0485 -0.1741
16581W        W59494  28.503  20.621   0.434 -0.2716  0.2964 -0.1969
16582W        W59495  25.468   3.935   9.262  0.0218 -0.2697 -0.0797
16583W        W59496  29.421  13.366   8.273 -0.1130 -0.1884  0.0860
16584W        W59497  24.050  31.333  25.055 -0.2521 -0.2889  0.2580
16585W        W59498  29.642  23.649   6.322 -0.0667 -0.1875  0.3490
16586W        W59499  26.932  32.141   1.563  0.4706  0.2358 -0.0108
16587W        W59500  20.224  24.671   2.363  0.0433 -0.0007 -0.0191
16588W        W59501  15.019  20.884  22.811 -0.2629  0.3282  0.1885
16589W        W59502  19.590  18.912   1.154 -0.0053 -0.1186 -0.0935
16590W        W59503  32.044   8.555   7.495 -0.0148 -0.1468  0.1587
16591W        W59504  20.430  27.620   0.537 -0.1834 -0.0340 -0.1720
16592W        W59505  13.143   1.781   6.795 -0.0264 -0.1002  0.0907
16593W        W59506  14.051  27.457  27.713 -0.2746 -0.0795 -0.4012
16594W        W59507  14.197  21.639  20.356  0.2936  0.0168 -0.4373
16595W        W59508  22.803  31.242   6.883 -0.3118  0.2203  0.1259
16596W        W59509  19.874  14.379  16.864  0.3988  0.2206 -0.1347
16597W        W59510  21.540  23.397  22.124 -0.2532 -0.0223  0.1412
16598W        W59511  19.153  13.332  22.549  0.0418  0.0457 -0.0384
16599W        W59512  21.604  29.793   4.359  0.0925 -0.2698 -0.2126
16600W        W59513  13.917   3.280  27.193  0.1659  0.1197  0.2040
16601W        W59514  20.009  24.620  29.780  0.1071  0.2141  0.1054
16602W        W59515  10.837  32.142   9.965 -0.2053 -0.0503 -0.0257
16603W        W59516  11.476  28.797   2.051  0.0713  0.2380 -0.2246
16604W        W59517  33.433   1.026   7.118 -0.0870  0.1238  0.2472
16605W        W59518  34.252   0.301  25.571 -0.0578 -0.1244 -0.1933
16606W        W59519  22.083  23.618  25.370 -0.2606  0.3305 -0.2489
16607W        W59520  16.222  27.463   7.379  0.0072 -0.1890  0.1089
16608W        W59521  25.192  31.713   4.758 -0.2091 -0.1934  0.0789
16609W        W59522  17.319  22.784  23.440 -0.0494 -0.0556 -0.2685
16610W        W59523  13.784  33.244  11.522  0.0449  0.2742 -0.2351
16611W        W59524  10.105  32.832  10.979 -0.2106  0.5415  0.0080
16612W        W59525  20.738  18.970  28.457 -0.0199 -0.0328  0.1286
16613W        W59526  24.109  17.433  21.017  0.1539  0.0622 -0.0663
16614W        W59527  28.461   2.049   8.911  0.0094 -0.1514  0.2159
16615W        W59528  14.097   7.033   2.563  0.0519 -0.0089  0.0392
16616W        W59529  14.040  24.285  29.252  0.1542 -0.1839  0.2102
16617W        W59530  17.820  29.253  26.330  0.2756 -0.2050  0.3370
16618W        W59531  25.797  23.304   2.311 -0.0534  0.0218 -0.4064
16619W        W59532  19.336  25.472   5.439  0.1388 -0.1484 -0.0496
16620W        W59533  20.497  22.098   7.089  0.0676  0.0051  0.1193
16621W        W59534  15.997   2.640  28.614  0.2481 -0.0178  0.2967
16622W        W59535  20.523  16.239  13.351 -0.3171 -0.0684  0.0360
16623W        W59536  11.184  31.498   4.166  0.0304 -0.0232 -0.1315
16624W        W59537  16.443   1.174   6.586 -0.0965 -0.1634 -0.1189
16625W        W59538  17.178  25.083  25.846  0.1999 -0.3893 -0.4421
16626W        W59539  22.799  27.251  26.394 -0.1290 -0.0877 -0.0090
16627W        W59540  25.911  31.230  25.395 -0.0509 -0.2213 -0.1095
16628W        W59541  15.231  20.805  22.093  0.1936 -0.0984  0.1805
16629W        W59542   1.376  27.734   5.805  0.1371  0.1454 -0.1584
16630W        W59543  22.707   4.025  27.985 -0.1238 -0.1547  0.3645
16631W        W59544  12.488  16.418  16.029  0.1615  0.0928 -0.0805
16632W        W59545  24.185  25.276   6.578  0.0860 -0.0636 -0.0813
16633W        W59546   4.919   1.218  22.424  0.3688  0.1203 -0.1509
16634W        W59547  18.392  21.408  20.747  0.0751 -0.0165 -0.4362
16635W        W59548  24.606  17.775  24.816  0.0070 -0.1612  0.0472
16636W        W59549  26.977  32.477  28.969 -0.1656  0.0568 -0.1590
16637W        W59550  22.007  33.098  27.736  0.1216  0.2028  0.1142
16638W        W59551  21.220  31.930   1.414  0.1394  0.0288  0.3003
16639W        W59552  18.171  21.240  19.378 -0.0423 -0.0518  0.0494
16640W        W59553  20.910  18.260  21.547 -0.0945  0.0192 -0.0757
16641W        W59554  14.145   2.468   1.817  0.0363  0.1361 -0.0578
16642W        W59555  28.206   8.725  29.476 -0.1306 -0.1341 -0.2026
16643W        W59556  15.614  24.495  24.837 -0.3377  0.2212 -0.0008
16644W        W59557  15.687  30.245   6.317 -0.1913  0.0991  0.1276
16645W        W59558  25.742  33.014   7.241  0.0575 -0.1261 -0.1943
16646W        W59559  22.768  24.327   7.283 -0.1635  0.0198  0.1417
16647W        W59560  20.317  22.870  18.436  0.1815 -0.1503 -0.0193
16648W        W59561  20.883  22.103   0.318 -0.1123  0.0402  0.1020
16649W        W59562  30.828  21.586   9.230 -0.0463  0.1721  0.0174
16650W        W59563  21.824  29.794   2.273 -0.2079  0.3795 -0.3992
16651W        W59564  15.847  13.574  27.787 -0.0174  0.1812 -0.3993
16652W        W59565  19.599  25.780   8.909  0.1036 -0.0608 -0.2178
16653W        W59566  24.408  23.137   1.146 -0.0941 -0.1748  0.1484
16654W        W59567  18.784  20.974   7.081 -0.0824 -0.1371  0.0390
16655W        W59568  26.720  24.838  27.054 -0.0996  0.0864 -0.0433
16656W        W59569  19.866  28.766   1.012  0.0071 -0.3214 -0.0177
16657W        W59570  17.667  20.425  25.665 -0.1917 -0.0694 -0.2584
16658W        W59571  26.676  24.871   2.252 -0.2537  0.2500 -0.0613
16659W        W59572  28.484  25.244   3.027 -0.0735 -0.2221  0.1212
16660W        W59573  13.896  17.754   0.342 -0.1226  0.2416 -0.1215
16661W        W59574   6.749   4.549   2.792  0.0033  0.0536  0.3665
16662W        W59575  25.715   5.357  25.925  0.2382  0.0834 -0.2404
16663W        W59576  18.811  32.198   2.002 -0.2176  0.2312  0.2673
16664W        W59577  17.884  24.953   3.908  0.1223 -0.0409  0.0590
16665W        W59578   5.529   1.930   5.554  0.0993 -0.0492 -0.1156
16666W        W59579   9.247  25.289   1.306  0.2727 -0.1255 -0.0926
16667W        W59580  24.067  17.804   5.113 -0.0008  0.1342 -0.2329
16668W        W59581  16.640  21.285  19.928 -0.1708  0.1662 -0.0696
16669W        W59582  25.592  27.501   6.140 -0.1948  0.1688 -0.2858
16670W        W59583  11.819  31.713  25.490  0.1581  0.2291  0.0198
16671W        W59584  10.319  30.066   0.052  0.1457 -0.0702 -0.1066
16672W        W59585  21.137  23.207  28.657  0.2201  0.1645 -0.1069
16673W        W59586  23.499   5.553  28.937 -0.0640 -0.3999  0.0436
16674W        W59587  22.162  18.408   1.548 -0.0991 -0.0485 -0.0217
16675W        W59588  16.987  33.564   2.170 -0.2086  0.1780 -0.1797
16676W        W59589  16.398  25.061   8.335  0.0012 -0.1269 -0.2336
16677W        W59590  26.647  25.191   5.457 -0.0058 -0.0683  0.1059
16678W        W59591  16.206   7.421   6.087 -0.0553 -0.0489  0.1988
16679W        W59592  22.279  33.190   9.463 -0.1178 -0.1490 -0.0764
16680W        W59593  20.411  26.378  29.442  0.1797  0.2129  0.1856
16681W        W59594  17.931  19.723  28.949 -0.0255 -0.0833 -0.4006
16682W        W59595  22.801  31.997   1.407  0.2551  0.1654 -0.1993
16683W        W59596  21.296  34.347  20.615  0.1226  0.0615 -0.0500
16684W        W59597  29.066  21.463   8.042 -0.1142  0.2271  0.1385
16685W        W59598  26.921  31.809   6.697  0.1453 -0.1201  0.0500
16686W        W59599  22.500  24.301  20.079  0.1790  0.0213  0.3503
16687W        W59600  26.471  33.435   5.906  0.0725  0.0010 -0.1644
16688W        W59601  27.696  21.803   7.858  0.1044  0.0705  0.1628
16689W        W59602  30.645  33.090  10.052 -0.2276  0.0760 -0.1916
16690W        W59603  25.514  28.697  26.851 -0.1957 -0.0269 -0.2375
16691W        W59604  32.926   1.307   1.070  0.0479 -0.1603  0.0089
16692W        W59605  19.899  26.954  28.822 -0.0346 -0.0821  0.1452
16693W        W59606  18.911  29.473   0.900  0.2262  0.3237 -0.0165
16694W        W59607  21.459   6.105   7.636  0.2124  0.1646  0.3623
16695W        W59608  19.580  29.294   4.339  0.0476  0.1173 -0.0506
16696W        W59609  19.927  18.244   3.179  0.1977 -0.4278 -0.3195
16697W        W59610   3.770  33.230   1.989 -0.1444 -0.0389  0.3559
16698W        W59611  28.585   1.645   3.231  0.0125  0.0181  0.4047
16699W        W59612  16.558  23.421   4.087 -0.2020  0.0302  0.1328
16700W        W59613   9.981  32.305   9.606 -0.1150 -0.0064 -0.1367
16701W        W59614  26.184  23.132   6.990  0.0092 -0.1406 -0.1084
16702W        W59615  14.490  34.307   4.199  0.1908  0.3184  0.1271
16703W        W59616  21.408  29.276   9.510 -0.0204  0.1422  0.5166
16704W        W59617  20.933  31.603   5.004  0.0144  0.0666  0.1655
16705W        W59618  22.305  31.157   6.932  0.2417  0.1275  0.2559
16706W        W59619  28.230  27.596   0.841 -0.1667 -0.0142  0.1105
16707W        W59620  17.923  23.181  27.870 -0.2622 -0.0568 -0.4127
16708W        W59621  13.632  21.529  28.624 -0.3453  0.0188  0.2158
16709W        W59622  16.383  30.145   2.175 -0.0707  0.0993 -0.2237
16710W        W59623  19.848  25.110  27.709  0.1704 -0.1664 -0.1847
16711W        W59624  17.363  30.246  10.511 -0.0879  0.2135 -0.1574
16712W        W59625  14.646   1.739   4.961  0.2045  0.1218 -0.0234
16713W        W59626  24.783   8.051   1.008  0.3044  0.3259  0.0041
16714W        W59627  12.470  20.472   6.897 -0.0939  0.0433 -0.1367
16715W        W59628  24.907   4.369   8.430 -0.0015  0.0833 -0.1305
16716W        W59629  17.341  28.862   6.027  0.2674  0.1458 -0.0292
16717W        W59630  18.199  26.131  23.947  0.3187  0.0371  0.3271
16718W        W59631  17.525   2.097  10.231 -0.3444  0.1453  0.0653
16719W        W59632  13.152  34.077   7.604 -0.1293 -0.2304 -0.1979
16720W        W59633  25.891  12.847   7.766  0.2920 -0.1191 -0.0395
16721W        W59634  13.120  20.069   3.929 -0.2925  0.0097  0.3600
16722W        W59635   3.879  28.608   7.239  0.3174  0.3061 -0.1194
16723W        W59636   6.573   1.575  10.774  0.2456 -0.0443 -0.3692
16724W        W59637  21.554  26.339   7.203 -0.1494 -0.0127  0.2588
16725W        W59638  15.324  23.149  28.180 -0.2286 -0.0925 -0.0892
16726W        W59639  16.389  23.449   4.895  0.1175  0.0036  0.2448
16727W        W59640  21.425  24.176   6.966  0.0048  0.0097  0.5734
16728W        W59641  10.813  26.167  26.314  0.3247  0.2207  0.0461
16729W        W59642  26.325  32.553  10.119  0.0161 -0.0855  0.2024
16730W        W59643  19.961   2.271  13.520  0.2890 -0.1924  0.1525
16731W        W59644  16.999  27.981   8.573  0.0408  0.2646  0.2094
16732W        W59645  10.588  29.556   4.733 -0.1816  0.0656  0.1670
16733W        W59646  28.369   4.478   1.344 -0.0790  0.2563  0.0830
16734W        W59647  13.361  18.321   8.701 -0.0487 -0.1487 -0.2127
16735W        W59648  13.324  24.316   5.126  0.0043  0.3110  0.3426
16736W        W59649  22.856  19.212   8.271  0.0943  0.1327  0.3431
16737W        W59650  18.567  23.740  28.520  0.0020  0.0983 -0.0935
16738W        W59651  12.231   0.805   5.368  0.0389  0.2931  0.0147
16739W        W59652  22.239  27.496   4.274 -0.3715 -0.0958  0.0472
16740W        W59653  18.455  17.361   4.319 -0.1302 -0.3911 -0.2627
16741W        W59654  23.126  29.393   2.147  0.0036 -0.0183  0.2107
16742W        W59655  29.049  32.044  26.309 -0.3583  0.0181  0.0658
16743W        W59656  15.148  23.161   4.869  0.0618 -0.0108  0.1079
16744W        W59657  15.182   1.006  29.724 -0.2127 -0.2780 -0.2377
16745W        W59658  19.364  25.210   7.507  0.1438  0.0163  0.1007
16746W        W59659  28.974  29.422   3.279 -0.0823 -0.2073  0.0609
16747W        W59660  24.906  26.470   6.974 -0.0957  0.0363  0.3005
16748W        W59661  24.506  22.369   5.243 -0.0709 -0.3286  0.3042
16749W        W59662  11.451  29.330  29.445 -0.3352  0.0380  0.1371
16750W        W59663  17.633  20.593  22.590 -0.3318 -0.1865 -0.0992
16751W        W59664  21.228  32.466   8.577 -0.1101 -0.0912  0.4752
16752W        W59665  20.421  25.476   7.999 -0.2122 -0.0623  0.1227
16753W        W59666  21.154  21.593  26.930 -0.0355 -0.1124 -0.1358
16754W        W59667  23.715  25.564   6.888  0.1131 -0.0916 -0.1555
16755W        W59668  33.506  27.429  23.075 -0.5380 -0.1307 -0.0489
16756W        W59669  17.808  21.984   6.238  0.1011  0.0689 -0.4509
16757W        W59670  29.305  23.404   2.749 -0.1845 -0.0989 -0.0814
16758W        W59671  16.327  22.745   8.794  0.1335 -0.0592 -0.0461
16759W        W59672  27.818  31.073   6.910  0.0086  0.1739  0.0172
16760W        W59673  20.538  21.913  22.171  0.1231  0.2162  0.2715
16761W        W59674  21.768  25.330  26.969  0.0122  0.0989  0.0271
16762W        W59675  18.232  21.691  22.236  0.1271  0.5795 -0.2467
16763W        W59676  16.620  27.393  27.717 -0.1340  0.0727 -0.1998
16764W        W59677  11.288  29.204   4.891  0.4166  0.1480  0.0425
16765W        W59678  23.188  21.876  24.604 -0.3377  0.0390  0.1546
16766W        W59679  25.059  20.048   0.565  0.2579  0.0877  0.0552
16767W        W59680  24.329  24.710   3.668  0.1032 -0.0027  0.1747
16768W        W59681  14.215  24.312   8.836 -0.3481  0.0508 -0.1047
16769W        W59682  17.725  33.392   8.100 -0.1691  0.0764  0.1797
16770W        W59683  29.762   3.765   6.764  0.0846 -0.1414 -0.5091
16771W        W59684   0.831  28.890  27.050 -0.1534 -0.1552 -0.0754
16772W        W59685  28.487  24.006   8.653  0.1605  0.0013 -0.2565
16773W        W59686  20.594  25.191   0.397 -0.4770  0.0940 -0.2128
16774W        W59687  14.883  26.115   6.758  0.0082 -0.1498  0.0774
16775W        W59688  27.826  28.840  28.003  0.1672  0.0315  0.2656
16776W        W59689  17.563   1.177   2.960 -0.1056 -0.2079  0.1924
16777W        W59690  16.024  28.735   0.364 -0.3927 -0.0995  0.0393
16778W        W59691  11.563  21.922  24.477  0.0983 -0.0924 -0.0096
16779W        W59692  10.481  24.498   8.388 -0.2703 -0.3173 -0.0524
16780W        W59693  24.587  33.254   4.107  0.2014  0.3183  0.1424
16781W        W59694   5.480  18.960  29.654 -0.3542 -0.1393 -0.0966
16782W        W59695  16.022  28.855   5.958 -0.0258  0.2323 -0.0728
16783W        W59696  19.772  26.137   6.456  0.0064 -0.4759  0.1750
16784W        W59697  21.096  25.821   2.642  0.0104 -0.0270  0.3793
16785W        W59698  20.718  23.092   5.919 -0.1467 -0.2314  0.0942
16786W        W59699  27.320  23.906   0.698 -0.0552  0.1913 -0.0247
16787W        W59700  10.689   4.967   7.362 -0.4198  0.0965 -0.0506
16788W        W59701  23.672  23.629   4.736 -0.0662  0.2581  0.0151
16789W        W59702  26.218  25.515   5.559 -0.0498 -0.3237 -0.0346
16790W        W59703  25.914  25.944   4.999 -0.3112  0.1493 -0.3258
16791W        W59704  16.934  19.953   5.756  0.0794 -0.0743 -0.1958
16792W        W59705  22.455  13.987   5.885 -0.0409 -0.2068  0.3071
16793W        W59706  29.125  15.305   7.249 -0.0014  0.1017  0.0882
16794W        W59707  15.371  20.266  26.968  0.0166 -0.2090 -0.2352
16795W        W59708  26.985   5.870  28.438  0.0578 -0.2038  0.3256
16796W        W59709  23.415  25.932   5.532 -0.0191 -0.0270  0.2396
16797W        W59710  13.963  31.598   1.408  0.0646 -0.2599 -0.0419
16798W        W59711  21.198  26.355   1.665  0.0186 -0.0241 -0.1520
16799W        W59712  15.654  29.082  27.022  0.3098  0.1317  0.1399
16800W        W59713  26.134  21.423   6.962  0.1407  0.0753  0.1809
16801W        W59714  12.520  26.015   3.612  0.0310 -0.3608  0.0340
16802W        W59715  26.951  26.251   3.334  0.0692 -0.0707  0.0216
16803W        W59716  23.930  32.005  10.187 -0.2080 -0.0841 -0.0705
16804W        W59717  14.125  25.249   3.403 -0.0828  0.0892  0.1053
16805W        W59718   4.056  28.010   6.907  0.1300  0.0463  0.2042
16806W        W59719  27.047  30.319  25.786 -0.0161 -0.0603 -0.0163
16807W        W59720  19.616  31.309   8.767 -0.1527  0.0051 -0.0477
16808W        W59721  11.210  29.821   7.109  0.0543 -0.0657  0.1580
16809W        W59722  10.000  20.279   0.022 -0.0278 -0.2699 -0.0262
16810W        W59723  20.568  22.821  29.712 -0.1520 -0.0194 -0.4719
16811W        W59724  32.545  11.853   2.427  0.1906 -0.4482  0.0300
16812W        W59725  28.162  32.686   6.008  0.1500  0.2007 -0.1267
16813W        W59726  19.997  25.680   1.628 -0.0810  0.1588  0.1353
16814W        W59727  14.593  28.532   0.381 -0.0313  0.0251  0.1064
16815W        W59728  20.938  32.796   6.266  0.4087 -0.1694  0.0351
16816W        W59729  13.446  22.665   2.533 -0.2638  0.1049  0.0942
16817W        W59730  20.102  28.045   4.322  0.2486 -0.1454 -0.0536
16818W        W59731  22.407  20.978   8.561 -0.3488 -0.1982  0.0949
16819W        W59732   4.774  22.827   4.309 -0.1766 -0.1282  0.0714
16820W        W59733  15.165  24.533   4.616 -0.1508 -0.0379 -0.2489
16821W        W59734  16.936  25.633  29.424 -0.0217  0.0985 -0.0747
16822W        W59735  10.845   8.227  22.906  0.1342 -0.0757 -0.0567
16823W        W59736  18.403  24.451   2.649  0.1272  0.0972  0.2145
16824W        W59737  28.384  25.177   3.514  0.1340  0.1936  0.0726
16825W        W59738  21.274  13.369  24.589 -0.1281  0.0386 -0.0496
16826W        W59739  15.812  32.422  11.149 -0.0394 -0.2546 -0.0576
16827W        W59740  25.656  22.742   1.691  0.4178 -0.1739  0.2446
16828W        W59741  20.958  18.581   3.045  0.1246 -0.2542  0.3260
16829W        W59742  14.671  21.550   6.098  0.1602 -0.4830  0.2151
16830W        W59743  18.056  24.956   0.299 -0.1992  0.1799 -0.0994
16831W        W59744  28.798  32.147  24.161 -0.1663 -0.2443 -0.0697
16832W        W59745  20.842  19.919  28.027 -0.1715 -0.2753 -0.0356
16833W        W59746  20.024  20.601   5.430  0.0989 -0.1756 -0.0667
16834W        W59747  10.632  20.890  28.186 -0.0550 -0.0942 -0.2045
16835W        W59748  13.018  26.726  29.725  0.0755 -0.0851  0.1676
16836W        W59749   1.617  25.035  28.789 -0.1517 -0.0596  0.0521
16837W        W59750  17.763  27.815   1.760  0.1473 -0.1611  0.0223
16838W        W59751  18.289   0.348   8.752 -0.2655 -0.4216 -0.2387
16839W        W59752  26.983  22.619   1.340 -0.4059 -0.0261  0.2226
16840W        W59753  20.365  20.310   1.881  0.3079  0.1520 -0.1586
16841W        W59754  20.138  28.810  27.952 -0.1650 -0.0090  0.0993
16842W        W59755  28.806  25.987   3.345 -0.1509  0.0567  0.1156
16843W        W59756  18.231  22.236   3.921 -0.2650  0.2260 -0.0747
16844W        W59757  27.509  20.682  24.310  0.2582  0.1232  0.1069
16845W        W59758  20.611  25.944  29.665 -0.0047  0.0128 -0.1126
16846W        W59759  21.449  33.834   4.867 -0.0120  0.1435 -0.0056
16847W        W59760  10.619  33.917  29.476 -0.0734 -0.1679 -0.0399
16848W        W59761  26.548  25.784   2.045 -0.1579 -0.1906 -0.2412
16849W        W59762  15.034  29.198   6.000 -0.0563  0.1765  0.1248
16850W        W59763  26.592  21.712   6.090  0.0733 -0.2250  0.0413
16851W        W59764  20.616  31.331   5.288 -0.2218 -0.3415 -0.3914
16852W        W59765  28.630  14.929   6.433 -0.0622 -0.2094 -0.1267
16853W        W59766  22.009  28.571   6.517  0.0613 -0.2511  0.1369
16854W        W59767  23.860  29.941   0.342  0.0690 -0.0363  0.1401
16855W        W59768  16.604  15.089  28.966  0.2250 -0.0400  0.0638
16856W        W59769  14.500  12.261   8.005 -0.0937  0.2639  0.0118
16857W        W59770  21.497   0.950   9.285 -0.0355 -0.2326  0.0124
16858W        W59771  20.838   0.164   3.817  0.1923  0.1155  0.0244
16859W        W59772  15.047  23.476   8.365  0.0378 -0.0515 -0.0752
16860W        W59773  17.986  20.697   4.739  0.0703 -0.1492  0.0002
16861W        W59774  19.203  20.469   8.571 -0.0941  0.1162  0.2170
16862W        W59775  21.839   4.081  25.578 -0.0302  0.1615 -0.0461
16863W        W59776  13.561  29.870   9.832 -0.1478 -0.1623 -0.1019
16864W        W59777  24.084   9.552   3.225 -0.1256  0.1831  0.1477
16865W        W59778  20.609  28.649   5.468 -0.0897  0.6727  0.1587
16866W        W59779  21.436  25.575  19.446  0.1623  0.2268 -0.1088
16867W        W59780  25.923  22.215   7.596 -0.2263  0.0880  0.2069
16868W        W59781   8.913  24.426  28.886 -0.1248  0.0063  0.2141
16869W        W59782  23.039  17.490  18.455  0.1796  0.1348  0.1850
16870W        W59783  18.397  32.264  25.710  0.2969  0.0839 -0.0242
16871W        W59784  16.793  28.743   5.825 -0.0294  0.1332 -0.0015
16872W        W59785  20.814  23.778   9.168 -0.0365  0.1328  0.1688
16873W        W59786  17.742  13.951   6.159 -0.1036 -0.0669 -0.1315
16874W        W59787  25.116  29.671   0.605 -0.0264 -0.1563  0.1973
16875W        W59788  29.939  29.902   6.018 -0.1866  0.0528  0.1179
16876W        W59789  22.356   2.959  25.662  0.0434  0.1175 -0.2027
16877W        W59790  10.891  29.321   8.205  0.0317  0.0124  0.2350
16878W        W59791  13.947   6.707   8.628 -0.3330 -0.1291  0.2090
16879W        W59792  24.178  27.066   4.534  0.0099 -0.0299 -0.1215
16880W        W59793  31.066  30.601   9.707  0.1844 -0.1841 -0.0415
16881W        W59794  26.593  23.666  28.367  0.0568  0.1079 -0.2958
16882W        W59795  14.823  28.198  11.009 -0.1693  0.1087 -0.1131
16883W        W59796  16.485  29.150   5.832  0.0161 -0.2336  0.1157
16884W        W59797  21.284  27.202   6.354  0.0158 -0.1773  0.1237
16885W        W59798  17.903   7.151   8.324 -0.2460  0.1773  0.1798
16886W        W59799  23.879  29.276   0.437 -0.0629 -0.0981  0.0721
16887W        W59800  30.456  34.319  27.289 -0.1623 -0.1584 -0.3419
16888W        W59801  17.170  12.714   2.308  0.3576  0.0183 -0.5838
16889W        W59802  26.239  34.216  28.871 -0.2700  0.2730 -0.2099
16890W        W59803  14.674  25.647   8.795 -0.1207 -0.0706  0.2035
16891W        W59804  21.427  26.390  25.505 -0.1151 -0.2575  0.0799
16892W        W59805  24.097  11.748   1.922  0.0699 -0.2005  0.1430
16893W        W59806  28.073  31.399  27.123  0.2372 -0.2987  0.1108
16894W        W59807  24.637  27.372   1.522  0.1138 -0.0275 -0.1192
16895W        W59808  21.825  30.556  16.158 -0.3353  0.0671  0.0836
16896W        W59809  15.050  17.747  25.243 -0.1062 -0.0928 -0.2497
16897W        W59810   9.202  26.436   1.607 -0.1014  0.0606  0.3329
16898W        W59811  22.612  29.610   2.125 -0.0620  0.0711  0.1747
16899W        W59812  22.806   6.523   9.095  0.1132  0.1367 -0.0144
16900W        W59813  29.137   3.385   4.558 -0.0950 -0.0147  0.0584
16901W        W59814  10.326  24.097   2.346 -0.1222  0.0435  0.0648
16902W        W59815  19.580  22.923  29.740  0.4608 -0.0149 -0.0326
16903W        W59816  15.231  24.642   9.485  0.2312 -0.0405  0.1485
16904W        W59817  22.959  26.604   7.632 -0.1965 -0.1217 -0.0489
16905W        W59818  28.671  31.056   2.850  0.1387  0.4395  0.0998
16906W        W59819  19.149  22.743   8.974 -0.1366 -0.1080  0.0851
16907W        W59820  25.823   3.919   0.783  0.0097  0.3647  0.0817
16908W        W59821  21.441  28.818  26.367  0.2665 -0.0117 -0.2755
16909W        W59822  20.206  15.640   2.119 -0.1834  0.2261  0.0536
16910W        W59823  19.553   2.286   4.373  0.1125 -0.3380 -0.2149
16911W        W59824  20.419  31.651   0.988 -0.0726  0.0676  0.1325
16912W        W59825  19.258  23.623   3.393 -0.1533 -0.3348 -0.2907
16913W        W59826  19.793  28.764   1.857 -0.1577  0.0086 -0.0443
16914W        W59827  28.361  24.255  27.338 -0.1398 -0.1663 -0.0730
16915W        W59828  10.495  29.374   8.905 -0.0812 -0.2941 -0.0939
16916W        W59829  33.888  25.228   1.863 -0.0275  0.0631  0.0099
16917W        W59830  25.483  27.417   4.649  0.0016  0.2980  0.2989
16918W        W59831  22.728  31.251   2.740 -0.0665 -0.1851  0.0073
16919W        W59832  24.922  18.689   2.429 -0.1681 -0.0097 -0.1408
16920W        W59833  23.312   2.036  27.527 -0.1324  0.0545 -0.1103
16921W        W59834  18.344  20.616  18.141 -0.2201 -0.0743  0.0285
16922W        W59835  26.560   3.661   0.613 -0.2125  0.1004 -0.1427
16923W        W59836  29.122  29.272   7.935 -0.1855  0.1204  0.1320
16924W        W59837  13.856  33.027   2.809 -0.2972  0.0094  0.0626
16925W        W59838  24.734  27.397  29.116 -0.0192 -0.3914 -0.2640
16926W        W59839  16.451  32.584   9.337  0.0866 -0.0232  0.1368
16927W        W59840  13.213   4.802   0.171 -0.1305 -0.5921 -0.0132
16928W        W59841  23.977  22.716   6.798  0.0210  0.1107  0.0791
16929W        W59842  17.028   2.173   3.108  0.1588  0.2232  0.0576
16930W        W59843  19.339  21.692   3.706  0.2065 -0.0854  0.2936
16931W        W59844  15.092  29.505   8.727 -0.2572 -0.0046  0.1632
16932W        W59845  16.237  27.447   6.315 -0.0634 -0.1336 -0.2759
16933W        W59846  12.681  25.132   7.337 -0.0450 -0.4791  0.1340
16934W        W59847  30.091  23.821   2.741 -0.2126 -0.1453  0.2087
16935W        W59848  19.714  30.802  27.709  0.0553  0.0287  0.2196
16936W        W59849  21.556  21.163   3.993 -0.0672  0.0534 -0.2670
16937W        W59850  26.165  23.986   6.821  0.0403 -0.1466 -0.2039
16938W        W59851  27.497  27.441   2.392  0.0243 -0.1539  0.2885
16939W        W59852  25.678   6.081   8.494  0.3995 -0.3522 -0.1226
16940W        W59853  21.231  31.155   1.311 -0.2051 -0.1977  0.1782
16941W        W59854   7.989  24.683  29.220  0.1636  0.2059 -0.0313
16942W        W59855  16.381  27.469   8.507 -0.0793  0.1960  0.1832
16943W        W59856  28.771  29.726   5.736 -0.2913 -0.3434  0.0775
16944W        W59857  17.269  22.125  26.640  0.1970 -0.0503 -0.0356
16945W        W59858  31.892  21.241   9.700  0.2654  0.0357 -0.1299
16946W        W59859  24.025  22.479   5.858  0.1152 -0.0773  0.0454
16947W        W59860  21.311  30.220   6.246  0.1176  0.6207  0.1762
16948W        W59861  24.107  19.320   2.574 -0.4384  0.1540 -0.3510
16949W        W59862  20.917  14.930   3.433  0.0582  0.2865 -0.1387
16950W        W59863  20.493  29.094   8.661 -0.1312  0.0213  0.2304
16951W        W59864  15.141  29.906  29.615 -0.0889  0.0945 -0.2195
16952W        W59865  22.975  33.396   3.294 -0.3097  0.1277  0.1846
16953W        W59866  12.152  24.492  29.488  0.1546 -0.1521 -0.2060
16954W        W59867  22.279  23.987  28.405 -0.2785 -0.1685  0.0236
16955W        W59868  26.991  13.587   6.350 -0.2984 -0.2333 -0.2057
16956W        W59869   5.644  32.615  26.321  0.2507 -0.1573  0.2196
16957W        W59870  17.058  22.783   1.798  0.0606 -0.1525 -0.0803
16958W        W59871  13.014  32.247   7.306  0.0369  0.4014 -0.1872
16959W        W59872  18.283  33.821  25.736 -0.0426  0.1372 -0.2786
16960W        W59873  12.913  24.337   7.504 -0.1798 -0.2265  0.4401
16961W        W59874  24.714  15.186   3.748  0.1931 -0.1808  0.0163
16962W        W59875  22.310   1.300  26.577  0.0865 -0.1467  0.1628
16963W        W59876  15.986  14.592  27.509  0.2381 -0.0249 -0.2773
16964W        W59877  34.347  33.766   4.796 -0.1937 -0.1294  0.0928
16965W        W59878  21.425  17.096   8.192 -0.2151  0.3527 -0.2431
16966W        W59879  17.462  32.965  27.752 -0.0784  0.0952 -0.1346
16967W        W59880  22.623  23.965  29.153 -0.1398  0.0457 -0.0528
16968W        W59881  16.643  22.135  23.238 -0.1638 -0.1872 -0.1658
16969W        W59882  23.408  13.314   7.370  0.0599  0.1921  0.1005
16970W        W59883  12.381  27.314   3.189  0.0362  0.1139  0.3645
16971W        W59884  18.434  22.533  23.165 -0.0022 -0.0713  0.0122
16972W        W59885  15.120  23.395   2.667  0.0176 -0.1361 -0.1226
16973W        W59886  27.403   0.926   6.305 -0.0050 -0.0254 -0.1739
16974W        W59887  22.674   4.959   4.046  0.3381 -0.0370  0.0512
16975W        W59888  26.195  27.941   1.928 -0.0767 -0.0856  0.0195
16976W        W59889  19.349  24.633   0.823  0.5448  0.2378 -0.0551
16977W        W59890  26.493  25.244  26.958 -0.2532  0.1560 -0.1312
16978W        W59891  28.214  33.549   7.624 -0.1074 -0.2007 -0.0312
16979W        W59892  17.492  22.616   4.605 -0.0396 -0.1782 -0.2159
16980W        W59893  16.934  24.022  26.438  0.0043  0.0853 -0.1128
16981W        W59894  25.421  21.843  29.611  0.2139 -0.2708  0.1561
16982W        W59895  17.719  19.911   3.720  0.1421  0.0756  0.0039
16983W        W59896  14.133  33.945  10.506  0.1579 -0.1003  0.0809
16984W        W59897  19.194  16.288  29.493  0.0269  0.1586 -0.2067
16985W        W59898  17.487  23.559   7.876  0.0904  0.1504 -0.2105
16986W        W59899  17.646  18.333   0.126 -0.0254 -0.1046 -0.0581
16987W        W59900  26.435  18.730   7.611  0.1977 -0.0613 -0.0119
16988W        W59901   8.590  34.038  11.212 -0.2862  0.1780 -0.0442
16989W        W59902  15.083  30.573   4.776 -0.1594  0.0836  0.2117
16990W        W59903  13.031  21.920  29.062 -0.0833  0.2304 -0.3924
16991W        W59904  16.837  27.825   2.326 -0.0202  0.0848 -0.0246
16992W        W59905  24.674  26.740  22.557 -0.5029  0.0283 -0.1814
16993W        W59906  17.053  27.716   5.204 -0.1934 -0.2712 -0.3141
16994W        W59907  22.975   8.642   9.473  0.2032  0.0887  0.0531
16995W        W59908  15.945  30.919  25.272 -0.0704 -0.0361 -0.2954
16996W        W59909  18.066  29.499   4.651 -0.2936  0.4158  0.0195
16997W        W59910   4.793   4.697   8.512  0.1056  0.1116 -0.0256
16998W        W59911  18.123  22.792  23.471  0.0694  0.1548  0.0123
16999W        W59912  18.487  24.697   4.638 -0.1190  0.1053  0.3395
17000W        W59913  25.670  24.984   4.451  0.1630  0.0855  0.1524
17001W        W59914  25.917  33.920   6.356  0.1674  0.0212  0.3289
17002W        W59915  16.279  31.140   9.486  0.3326  0.2875  0.2375
17003W        W59916  20.352  27.816   2.310 -0.1526 -0.2365  0.3735
17004W        W59917  14.386  26.542   1.881 -0.0506 -0.1612 -0.1512
17005W        W59918  11.691  22.008   6.646  0.4576  0.0694 -0.1219
17006W        W59919  20.162  10.118   4.337 -0.1076 -0.1052  0.0982
17007W        W59920  15.046   7.024   9.744  0.0650  0.2446 -0.0708
17008W        W59921  15.787  26.173   1.750  0.2680  0.2942  0.2030
17009W        W59922  32.129  29.922   4.719  0.0956  0.3028  0.3290
17010W        W59923   7.989  23.423  28.788 -0.0773  0.1943 -0.2587
17011W        W59924   7.901  23.664   6.159  0.3033  0.0432  0.2072
17012W        W59925  16.812   2.088   2.141 -0.1971  0.2345  0.1544
17013W        W59926  16.010  17.390   7.268  0.0775 -0.0949 -0.0219
17014W        W59927  24.730  29.580   2.276 -0.0854 -0.2373  0.0162
17015W        W59928  28.248   2.541   5.402  0.1051 -0.1842 -0.2851
17016W        W59929  15.870  32.913   4.422  0.1350  0.0728  0.4276
17017W        W59930  19.337  33.523   1.828  0.1618  0.1401 -0.3188
17018W        W59931  13.292  22.845  25.083  0.1418 -0.0835 -0.1503
17019W        W59932  12.943  28.287  27.568  0.2784  0.2472 -0.6173
17020W        W59933  10.688  20.101  29.426  0.2456  0.3181  0.0358
17021W        W59934  19.065  23.278   9.033  0.0658  0.2706 -0.0096
17022W        W59935  21.134  27.345   6.853 -0.1126  0.0468  0.0574
17023W        W59936  19.475  33.774  23.225  0.4176  0.0061 -0.0672
17024W        W59937  25.157   3.634   9.639 -0.1010  0.0563 -0.1025
17025W        W59938  24.043  18.326   1.745  0.2860  0.2601 -0.2589
17026W        W59939  24.305  29.352  28.656  0.0682  0.1944 -0.1449
17027W        W59940  11.936  25.309   2.291 -0.1325  0.0513 -0.1915
17028W        W59941  13.043   2.909   3.684  0.1635  0.1422 -0.1802
17029W        W59942  21.326   3.026  10.719 -0.3196 -0.0510  0.4168
17030W        W59943  19.501   3.145   6.656  0.4117  0.0232  0.0925
17031W        W59944  28.003  29.429   7.804  0.0629 -0.1024 -0.2537
17032W        W59945  11.751  23.625   7.913  0.0463  0.3040  0.1360
17033W        W59946  25.264   2.841   8.550 -0.0814 -0.1388 -0.1003
17034W        W59947  22.152  18.420   9.036 -0.0753 -0.0426 -0.0498
17035W        W59948  28.986  22.426   7.766 -0.0703 -0.0304 -0.3693
17036W        W59949  20.040  23.376   7.756 -0.1415 -0.0584 -0.1584
17037W        W59950  19.718  17.881  26.781 -0.0722 -0.2029 -0.2989
17038W        W59951  16.814  31.338   4.750 -0.0527  0.0293  0.0055
17039W        W59952  29.372  28.629   7.464 -0.2133  0.1495  0.3477
17040W        W59953  16.439   2.774   8.548  0.1685  0.2052 -0.1154
17041W        W59954  13.687  27.970   8.368 -0.0186 -0.1794  0.3516
17042W        W59955  17.492  17.575  27.890  0.0507 -0.1957 -0.1298
17043W        W59956  12.715  21.635  26.827  0.0141 -0.1648 -0.3212
17044W        W59957  18.849  19.433   8.054  0.0087  0.1258  0.0066
17045W        W59958  10.305  25.759   3.175  0.1821 -0.0827  0.0526
17046W        W59959  14.348  33.416  10.618  0.0620 -0.3376 -0.4926
17047W        W59960  15.019  23.838  26.957 -0.1080  0.0951 -0.0832
17048W        W59961  17.446  23.282  24.024 -0.0129 -0.0454 -0.3069
17049W        W59962  16.380  18.103   6.189  0.0886 -0.1089  0.1078
17050W        W59963  12.631  21.108   8.998 -0.0693  0.3023  0.0670
17051W        W59964  24.880  26.435   3.633  0.2895 -0.1292 -0.1126
17052W        W59965  20.134  11.993  25.738  0.3034 -0.4257 -0.0926
17053W        W59966  13.458  29.343   7.568 -0.4487  0.0538  0.1985
17054W        W59967  25.244   3.305   6.542 -0.2237 -0.1236 -0.0558
17055W        W59968  18.718  24.784  24.740  0.2137  0.4670  0.0880
17056W        W59969  12.991  28.781  20.334  0.0230 -0.3275 -0.2082
17057W        W59970  19.857  20.744   7.250 -0.0253  0.0133 -0.2261
17058W        W59971  21.955  28.900   1.747  0.0376 -0.3152 -0.2480
17059W        W59972   8.315  32.512   3.764  0.2327 -0.1443  0.0932
17060W        W59973  23.135  30.447   7.308  0.1649  0.2202  0.1253
17061W        W59974  25.971  22.774   9.198 -0.0601 -0.2796 -0.1420
17062W        W59975  23.288  32.093   5.489  0.1066 -0.1519 -0.0861
17063W        W59976  15.732  27.721  29.082  0.0026  0.0373 -0.1769
17064W        W59977  14.239  28.124  10.403  0.1259  0.0701 -0.1968
17065W        W59978  25.052  23.814   1.999  0.1233 -0.0676  0.1479
17066W        W59979  16.978  21.418  27.793  0.0113  0.0514 -0.5614
17067W        W59980  10.555  24.689   6.509 -0.0837 -0.2348  0.0503
17068W        W59981  13.522  29.576  10.906 -0.0130 -0.3091  0.2552
17069W        W59982  12.428  26.828   4.270  0.3266 -0.2560 -0.0091
17070W        W59983  20.547  25.815   8.540 -0.0283 -0.0520  0.0265
17071W        W59984  17.399  27.530   9.733  0.0130  0.0695  0.4405
17072W        W59985  19.889   3.393   7.563  0.0244  0.4134  0.0143
17073W        W59986  17.392   2.054   2.276 -0.2470 -0.2281 -0.0348
17074W        W59987  22.993  28.688   1.513  0.1836  0.0190 -0.1324
17075W        W59988  16.022  27.246  10.373 -0.2415 -0.0078  0.0969
17076W        W59989  10.656  28.596   7.055  0.0578  0.0211  0.1358
17077W        W59990  27.093  29.856   6.631 -0.0219  0.1039 -0.1889
17078W        W59991  17.364  24.865   3.820 -0.1464 -0.0207  0.1049
17079W        W59992  25.364  22.850   3.763  0.1488  0.0910 -0.0715
17080W        W59993  21.239  27.782   3.185 -0.0297 -0.2702 -0.1465
17081W        W59994  27.208  23.195   0.659  0.1577  0.1669 -0.0383
17082W        W59995  25.319  25.563   3.626 -0.2228  0.3693 -0.3158
17083W        W59996  22.473  30.993  26.795  0.0517  0.1463  0.0256
17084W        W59997  19.758  33.510  27.558 -0.1963  0.1213 -0.1694
17085W        W59998  18.777  32.762   9.526  0.0108 -0.0920 -0.2860
17086W        W59999  13.374  18.964  29.094  0.0443  0.0182 -0.0627
17087W        W60000  14.907  34.333   6.143 -0.0841  0.0582 -0.0899
17088W        W60001  20.281  29.342   7.299 -0.3491 -0.0979  0.1351
17089W        W60002  15.127  30.443  10.874 -0.2739 -0.0126  0.0769
17090W        W60003  23.882  28.694   4.885 -0.0763 -0.0560 -0.2177
17091W        W60004  20.392  31.696  10.185  0.1904 -0.2315 -0.0529
17092W        W60005  17.910  28.793   7.030  0.2047  0.1005  0.0550
17093W        W60006  12.305   1.460   8.729 -0.4637  0.2536 -0.1668
17094W        W60007  10.697  29.302   9.770  0.0351 -0.1502  0.3448
17095W        W60008  15.361  28.004   5.900 -0.0313  0.0138  0.0868
17096W        W60009  25.833  31.725   9.261 -0.1963 -0.0733  0.0138
17097W        W60010  22.290  22.354   7.067  0.0241 -0.0035  0.1400
17098W        W60011  16.523  27.206   3.512  0.3610 -0.4320 -0.0064
17099W        W60012  16.451  26.930   6.092 -0.0780 -0.1195 -0.1715
17100W        W60013  17.540  29.305   5.450 -0.0422  0.1085 -0.0467
17101W        W60014  27.080  20.576   4.087 -0.1493  0.0644  0.2461
17102W        W60015  15.030  26.679   6.115  0.0618 -0.2098 -0.4017
17103W        W60016  33.147  28.100  27.745  0.1268  0.0503 -0.0235
17104W        W60017  18.404  19.569  23.865 -0.0499  0.1103  0.0430
17105W        W60018   6.054  26.344   7.565  0.3109  0.3081 -0.2025
17106W        W60019  17.279  27.204   6.989  0.0635 -0.0771  0.1865
17107W        W60020  25.530  16.180  29.113 -0.0561  0.1585 -0.2400
17108W        W60021  20.026  31.017   3.968 -0.1691  0.0703  0.4867
17109W        W60022  25.467  26.057   2.463  0.0200 -0.0113 -0.0885
17110W        W60023  26.245  31.970   8.201  0.0852 -0.3705 -0.1029
17111W        W60024  26.184  24.290   8.869  0.2526  0.0332  0.0334
17112W        W60025  27.510  20.778   4.244 -0.0810 -0.0603 -0.4039
17113W        W60026  14.219  28.686  10.565  0.0120 -0.0860 -0.1182
17114W        W60027  24.417  23.202   4.890  0.1770 -0.1990 -0.1314
17115W        W60028  15.638  24.803  27.715 -0.1882 -0.2281  0.1156
17116W        W60029  26.765  29.584   9.216 -0.1482  0.3126  0.1803
17117W        W60030  24.016   4.082   0.333  0.3626  0.1583  0.0746
17118W        W60031  28.308  14.620   8.623  0.3423  0.0137  0.3655
17119W        W60032  31.886  30.703   9.606 -0.2995  0.0046 -0.0455
17120W        W60033  20.273   3.180  27.841 -0.2912 -0.2766 -0.2461
17121W        W60034  23.332  23.384   6.922 -0.1213 -0.0370 -0.1041
17122W        W60035  17.816  26.140   7.622  0.3892  0.1239  0.0844
17123W        W60036  11.808  26.758   3.201 -0.0049  0.2102  0.0988
17124W        W60037  18.131   3.063  29.141  0.1685  0.4951 -0.0163
17125W        W60038  11.450  34.389   8.823 -0.0538 -0.1749 -0.1512
17126W        W60039  16.385  32.659  26.315  0.1061  0.1949  0.3871
17127W        W60040  26.763  32.934   7.373 -0.4398  0.0678 -0.1541
17128W        W60041   4.783  23.164   9.388  0.4035 -0.1185  0.0770
17129W        W60042  20.157  32.352   5.210 -0.1687 -0.0578  0.0604
17130W        W60043  24.142  10.664   8.200  0.0997 -0.0874 -0.0757
17131W        W60044  16.207  26.767   9.635 -0.2359  0.0713 -0.1252
17132W        W60045  27.871  28.096   3.070 -0.2441  0.1072  0.0109
17133W        W60046  16.366  19.991  24.591 -0.2137  0.3065  0.0159
17134W        W60047  15.815  24.167   9.235  0.2362 -0.0851 -0.0302
17135W        W60048  20.858   2.427   5.030  0.2503  0.3173 -0.0284
17136W        W60049  23.083  29.564   6.541  0.2435 -0.1799 -0.1812
17137W        W60050  19.016  28.873   8.977 -0.1090  0.3318 -0.0909
17138W        W60051  16.140  30.339   9.802  0.0901 -0.0851  0.2802
17139W        W60052  21.262  31.273   4.764  0.0151 -0.2285 -0.1062
17140W        W60053  20.560  22.688   3.073  0.0983 -0.0921 -0.2024
17141W        W60054  14.238  25.243   5.715 -0.1247 -0.2217 -0.0872
17142W        W60055  22.029  24.626   1.033  0.0079 -0.1592 -0.2520
17143W        W60056  21.329  18.924  20.964 -0.0970 -0.1876 -0.0545
17144W        W60057  28.672  11.317   1.803 -0.1237  0.0624 -0.3031
17145W        W60058  26.984  33.181  24.820  0.1595  0.1258  0.2341
17146W        W60059  27.897  26.529   7.556  0.0431 -0.2260  0.0441
17147W        W60060  23.251  24.024   7.756 -0.1521 -0.1115  0.1893
17148W        W60061  27.388  31.842   6.538  0.0102  0.0099  0.1272
17149W        W60062  18.104  17.817   6.567  0.0372 -0.0052  0.1106
17150W        W60063  22.837   9.055   6.936 -0.2061 -0.0052  0.4985
17151W        W60064  21.208   1.910   1.383  0.0053  0.0644 -0.3628
17152W        W60065  31.127  23.867  20.984  0.2051  0.3521 -0.0037
17153W        W60066  11.616  32.526   8.425  0.0737  0.1286  0.0088
17154W        W60067  24.435  29.867   7.294 -0.0131  0.0214 -0.0925
17155W        W60068  22.688  28.776  29.150 -0.1425 -0.2474  0.1222
17156W        W60069  19.766  28.342   6.415 -0.0410  0.4220  0.2886
17157W        W60070  28.370  23.918   2.666  0.1255 -0.1511 -0.1770
17158W        W60071  18.184  30.118   8.076  0.2473  0.0019 -0.0963
17159W        W60072  15.016  31.583  10.539 -0.1063 -0.0326  0.1553
17160W        W60073  20.900  26.001   3.356 -0.1375  0.2904  0.2487
17161W        W60074  15.627  19.212   7.010  0.2608 -0.0757 -0.0490
17162W        W60075  18.569  24.472  28.124  0.2289 -0.0568  0.0333
17163W        W60076  24.801  30.701   4.676  0.0584 -0.4409  0.1041
17164W        W60077  15.816  28.099   5.718 -0.2050  0.1495  0.0400
17165W        W60078  13.205  34.014   6.570  0.1546  0.0354 -0.0463
17166W        W60079  19.051  14.804   8.010  0.0051 -0.3654  0.0012
17167W        W60080  17.351  27.700   3.719 -0.0296  0.0950 -0.2337
17168W        W60081  26.682  27.230   7.458 -0.0483 -0.0794 -0.1544
17169W        W60082  17.239  28.926   7.550  0.0010 -0.1602 -0.1273
17170W        W60083  23.255  23.206   8.325  0.1646  0.2095 -0.0898
17171W        W60084  13.900  21.112  25.272 -0.0964  0.1071 -0.3439
17172W        W60085  12.272  20.240  27.623  0.3265 -0.3276  0.1080
17173W        W60086  19.373   1.052   0.571  0.0746 -0.0525  0.1567
17174W        W60087  23.401  22.628   4.756 -0.1375  0.0402  0.2468
17175W        W60088   7.796  21.879   5.407 -0.1919 -0.2589 -0.1294
17176W        W60089  31.127  26.449   9.358  0.4526 -0.1363 -0.2107
17177W        W60090  23.649  34.350   9.262  0.1404 -0.1852  0.3095
17178W        W60091  15.062  34.277   4.728  0.0212  0.1517 -0.0423
17179W        W60092  17.285  30.097   3.079  0.3258  0.0309 -0.0717
17180W        W60093  14.053  31.235  10.614  0.1508 -0.3475  0.0870
17181W        W60094  10.634  33.050  28.332  0.3030 -0.0434 -0.0183
17182W        W60095  29.638  31.423   3.928 -0.1106 -0.1228  0.0707
17183W        W60096  11.428  22.095   4.335  0.1612  0.2258  0.1743
17184W        W60097  20.037   1.291   7.410  0.2209 -0.2932 -0.0580
17185W        W60098  23.561  22.508   7.109  0.1306 -0.1563 -0.1227
17186W        W60099  15.664  20.180  25.183 -0.0106 -0.2093  0.0359
17187W        W60100  24.109   6.830   8.833 -0.1729  0.1692 -0.0094
17188W        W60101  20.239  16.298   5.109 -0.0152 -0.2296  0.0176
17189W        W60102  18.083   0.202   4.357  0.5136 -0.1754 -0.0945
17190W        W60103  16.493  31.362   9.908  0.1418 -0.2692 -0.2969
17191W        W60104   7.088  32.673  12.214  0.0822  0.0867  0.1441
17192W        W60105  15.064   1.581   4.740  0.0161  0.2936  0.1444
17193W        W60106  20.358  25.591   0.719  0.1177  0.0123 -0.0544
17194W        W60107  22.525  33.637   1.951  0.0586  0.2958 -0.4741
17195W        W60108  14.998  29.368   2.573  0.1221 -0.0636 -0.0654
17196W        W60109  30.603  23.640  25.837 -0.0537 -0.0137  0.0323
17197W        W60110  18.151  16.344   6.503  0.1681  0.0543 -0.2514
17198W        W60111  26.294  26.912   5.038  0.1200  0.1019 -0.0127
17199W        W60112  25.504  25.888   3.968 -0.0917 -0.1132  0.0143
17200W        W60113  31.250  23.780   0.145 -0.0077  0.3787 -0.0390
17201W        W60114  19.461   5.940  28.749 -0.1675 -0.0710 -0.0188
17202W        W60115  32.272  18.138   1.705 -0.0482  0.0946 -0.1042
17203W        W60116  27.129  22.829   8.937 -0.2693 -0.2507  0.0857
17204W        W60117  17.095  25.444   3.331  0.2109  0.1282  0.1040
17205W        W60118  22.313  28.001   1.785 -0.0603  0.0168  0.1415
17206W        W60119   8.464   7.086   0.180  0.2363 -0.0188 -0.2119
17207W        W60120  24.133  18.854  25.450  0.0163  0.1290  0.3841
17208W        W60121  14.154  32.485   3.306 -0.1277 -0.0584  0.1545
17209W        W60122  14.315  22.891  29.492  0.0004  0.2046 -0.1779
17210W        W60123  13.782  33.287  25.737  0.0308 -0.0786 -0.1307
17211W        W60124  15.467  29.933  10.204 -0.0978 -0.1328  0.0373
17212W        W60125   1.226  25.702   2.445  0.1462  0.3203 -0.0969
17213W        W60126  16.920   7.757   8.768 -0.0298  0.0885  0.5197
17214W        W60127  28.626  27.509   1.705 -0.1622 -0.0058 -0.1459
17215W        W60128  15.677  27.604   5.029 -0.1419  0.2794 -0.1276
17216W        W60129  19.374  27.809   7.146 -0.3445  0.1408  0.1162
17217W        W60130  22.790   7.427   2.922 -0.1381  0.3144 -0.3601
17218W        W60131  23.482  20.106   5.541  0.1659  0.1222  0.0764
17219W        W60132  20.654  21.294   3.798  0.1361 -0.0184 -0.1237
17220W        W60133  19.285  33.010   3.074 -0.0240 -0.1609 -0.1003
17221W        W60134  19.685  32.845   9.941  0.0178  0.0787 -0.2996
17222W        W60135  19.311  28.413   4.945 -0.1977  0.0675 -0.1973
17223W        W60136  19.886  28.536   8.971 -0.0937  0.4670  0.0911
17224W        W60137   8.546   1.496   3.713 -0.4429 -0.0663  0.1817
17225W        W60138  27.235  21.402   5.301 -0.1735  0.1702 -0.0998
17226W        W60139  19.701  26.205   0.892 -0.1183  0.0455  0.2454
17227W        W60140  23.015  30.204   8.183 -0.0078 -0.3898 -0.0870
17228W        W60141  16.830  22.047   7.233  0.0388  0.0697  0.1026
17229W        W60142  18.141  24.370  26.698  0.0262  0.0208 -0.1799
17230W        W60143  16.315   7.233   6.629 -0.0358  0.1655 -0.0541
17231W        W60144  20.452  26.715   8.004  0.4084  0.0821 -0.0831
17232W        W60145  11.034   3.969   9.863 -0.4784 -0.1940  0.0489
17233W        W60146  16.959  26.625   8.436 -0.2197 -0.0591 -0.0366
17234W        W60147  19.050   2.938   4.834 -0.4139 -0.3015 -0.2760
17235W        W60148  26.066  29.946   8.503 -0.1623  0.1556  0.1724
17236W        W60149  21.628  24.761   8.348 -0.0314 -0.0114 -0.0750
17237W        W60150  31.379   1.204   0.596  0.1086 -0.1758  0.0406
17238W        W60151  21.393  16.078   4.585  0.1132  0.2008  0.0003
17239W        W60152  21.812  28.069   6.547 -0.2058  0.0654  0.1228
17240W        W60153   9.376  24.987   1.701 -0.3319 -0.1188  0.1269
17241W        W60154  25.631  29.925   8.749  0.3448 -0.1868  0.1519
17242W        W60155  22.776  26.745   4.382  0.0509 -0.3249 -0.0265
17243W        W60156  23.839  17.478   7.890 -0.1853 -0.0918  0.1917
17244W        W60157  31.535  21.880   5.353 -0.1854  0.1497  0.2102
17245W        W60158  11.707  21.269   0.274 -0.2206  0.3111  0.0513
17246W        W60159  18.425   4.961   7.892  0.1311  0.0627 -0.0734
17247W        W60160   7.151  22.978   9.296 -0.1095 -0.0284 -0.3106
17248W        W60161  21.284  30.304   8.363  0.1574 -0.2593 -0.1159
17249W        W60162  16.464  26.350   5.509 -0.2061  0.0178  0.0505
17250W        W60163  14.168   3.922  10.874 -0.0165  0.0981  0.0032
17251W        W60164  13.132  22.978  26.372 -0.0211 -0.0124 -0.0506
17252W        W60165  16.897  21.524   7.376  0.2746 -0.0559  0.0829
17253W        W60166  21.895  12.080   6.187 -0.1252  0.1274 -0.0351
17254W        W60167   2.393  26.099   0.848 -0.0472  0.1826 -0.1874
17255W        W60168   9.344  24.380   8.472  0.4324  0.1152 -0.0837
17256W        W60169  10.551  25.700   1.291  0.0170 -0.0014  0.1986
17257W        W60170  17.486  28.299  10.727 -0.0232  0.0263 -0.1268
17258W        W60171   4.938  27.000   9.569  0.2040  0.0688  0.3739
17259W        W60172  19.188  27.053   8.465  0.0368 -0.1467 -0.2128
17260W        W60173   9.540  26.243   1.144 -0.0087 -0.1930  0.0491
17261W        W60174  14.014  25.431   9.683  0.3398 -0.0806  0.1219
17262W        W60175  21.604  26.224   4.698  0.1801 -0.2684  0.0244
17263W        W60176  22.192  22.049   7.868 -0.1546  0.0995 -0.1328
17264W        W60177  30.084  30.664   9.375 -0.1949  0.0551  0.1162
17265W        W60178  20.753  31.830   5.961  0.0246  0.2256 -0.1341
17266W        W60179   7.944  30.095  10.878 -0.1063 -0.2568  0.0782
17267W        W60180  14.274  31.931   8.684 -0.1461  0.1194 -0.0654
17268W        W60181   6.047  21.446   4.342 -0.2051 -0.1789 -0.0745
17269W        W60182  19.481  24.223   5.882 -0.2959 -0.2140 -0.0714
17270W        W60183  21.666  23.153   3.905 -0.1002 -0.1112 -0.1412
17271W        W60184  18.359  26.318   9.363 -0.0992  0.1781  0.2751
17272W        W60185  10.280  26.680  11.514  0.0010 -0.2537  0.0640
17273W        W60186  16.715  30.153  10.615  0.0809  0.0213  0.2040
17274W        W60187  26.338  30.977   9.047 -0.0169 -0.2707  0.0579
17275W        W60188  26.501  31.213   7.470  0.1640  0.2626 -0.0059
17276W        W60189  20.717  24.221   4.608  0.0756  0.2102 -0.0456
17277W        W60190  16.399  34.068  26.054  0.1218 -0.0551 -0.1856
17278W        W60191  13.865  25.270   6.488  0.2288  0.1533 -0.0978
17279W        W60192  17.100  22.345   4.961 -0.2634 -0.2179 -0.1335
17280W        W60193  26.500  28.641   7.720 -0.0675 -0.1277 -0.3502
17281W        W60194  11.415  23.759   9.077 -0.1005  0.2203  0.1065
17282W        W60195  17.461   1.620   5.434 -0.0840 -0.0497  0.2953
17283W        W60196  21.624  25.841   6.934 -0.0275 -0.2143 -0.3272
17284W        W60197  21.226  28.186   0.968 -0.1003  0.1344  0.0168
17285W        W60198  17.564  25.462   2.545 -0.1632  0.4139  0.3797
17286W        W60199  14.498   0.362   7.553 -0.0862  0.0355  0.3793
17287W        W60200  12.064  33.433  11.004 -0.0303  0.3787  0.0852
17288W        W60201   6.510   3.649   5.676  0.0101  0.1311 -0.0044
17289W        W60202  29.772  20.064   2.828  0.1165  0.2211 -0.1342
17290W        W60203  18.850  18.692   2.127  0.1675 -0.3461  0.2317
17291W        W60204  21.113  19.792   8.229  0.0012 -0.1549 -0.0059
17292W        W60205  14.791   6.072   4.080  0.0326  0.0187  0.3264
17293W        W60206  24.469  29.947   7.781 -0.0172 -0.0506 -0.0622
17294W        W60207  20.480  21.161   3.066  0.1121 -0.0435  0.2115
17295W        W60208  17.421  25.542   8.180 -0.0782 -0.0658  0.1596
17296W        W60209   8.252  33.766  29.537  0.2016  0.2859 -0.1900
17297W        W60210  25.153  23.461   3.770 -0.2191 -0.0216  0.0925
17298W        W60211  29.293  28.162   4.686 -0.0755  0.2104 -0.4580
17299W        W60212  18.614  23.888   1.657  0.0217 -0.0860 -0.2516
17300W        W60213  20.792  25.120   4.789  0.0957  0.1611 -0.2816
17301W        W60214  18.682   1.494   5.438  0.1358 -0.1057 -0.1094
17302W        W60215  24.092   0.573   7.259 -0.2712 -0.1029 -0.0541
17303W        W60216  15.152  26.919   9.209  0.0738  0.2998 -0.0021
17304W        W60217  15.998   0.323   9.011 -0.0206  0.0210 -0.3030
17305W        W60218   5.961  33.008   1.482  0.0407  0.1300  0.0721
17306W        W60219  27.177  25.083   7.031 -0.2651  0.1669 -0.0786
17307W        W60220  21.933   1.239   3.110 -0.0873  0.2821 -0.2748
17308W        W60221  16.932  27.473   5.684  0.0501 -0.0399  0.1228
17309W        W60222   9.060  25.946  28.460  0.2232  0.3997 -0.0732
17310W        W60223  27.439  28.125   3.882  0.0265 -0.0973 -0.0190
17311W        W60224  13.607  24.099  27.389  0.0674 -0.2912 -0.2999
17312W        W60225   7.401  25.699   4.523  0.1047  0.0275  0.0344
17313W        W60226  24.017  26.488  28.707 -0.0394 -0.1943 -0.0547
17314W        W60227  24.664  27.362   6.480 -0.0606 -0.0808  0.3417
17315W        W60228  23.676  25.078   2.896 -0.1462 -0.0644 -0.1349
17316W        W60229  16.711  28.816   9.010 -0.1290 -0.0111 -0.2113
17317W        W60230  12.917  23.989   6.809  0.0776 -0.3465 -0.0390
17318W        W60231  25.203  28.400   4.595 -0.0283 -0.0670  0.0721
17319W        W60232  16.071  30.452   7.532 -0.3189 -0.0069  0.1016
17320W        W60233  20.898  32.316   6.084  0.2548 -0.1328 -0.1766
17321W        W60234  33.884   0.170  28.693 -0.1372  0.0427  0.0651
17322W        W60235  17.346  22.094   6.504  0.2794  0.2025  0.0675
17323W        W60236  14.245   1.847   8.686  0.0737 -0.0293  0.2303
17324W        W60237  20.881  29.344   3.739 -0.0690  0.0944  0.1391
17325W        W60238  13.380  27.113   6.351 -0.1778  0.0400 -0.0316
17326W        W60239   7.763  30.402   7.401 -0.1646  0.2620  0.4855
17327W        W60240  26.893  25.766   4.105 -0.2102 -0.2411 -0.0796
17328W        W60241  22.559  19.367   1.419  0.2083 -0.0462 -0.2671
17329W        W60242  17.734  28.190   9.826 -0.4342 -0.3048 -0.0522
17330W        W60243  18.993  23.450   4.238 -0.1202  0.0512  0.1441
17331W        W60244  15.230  27.780   0.348 -0.0589  0.0535 -0.1456
17332W        W60245  18.439  16.382   2.341  0.1304  0.1635 -0.1747
17333W        W60246  20.931  18.843   6.124 -0.2372 -0.0592 -0.2270
17334W        W60247  31.716  21.157  27.719 -0.0307  0.2108 -0.0814
17335W        W60248  13.424  28.661  25.627  0.2965  0.0911 -0.1075
17336W        W60249  25.729  23.980   7.043 -0.1399  0.0041  0.1888
17337W        W60250   6.902  21.251   5.768  0.1216 -0.0544  0.0021
17338W        W60251  20.222  27.603   9.253  0.0537  0.1897 -0.3022
17339W        W60252  25.134  31.211   6.993 -0.5570  0.1419  0.1152
17340W        W60253  21.108  18.006   5.943 -0.1353  0.4128 -0.0505
17341W        W60254  19.540  27.977   4.550 -0.1683  0.0997 -0.0479
17342W        W60255  11.572  33.669   1.201  0.0453  0.1215  0.2995
17343W        W60256  18.398  30.443   6.434 -0.1444 -0.0085 -0.1141
17344W        W60257  15.372  26.840  24.815 -0.2183 -0.1784 -0.2150
17345W        W60258  10.384   5.733  12.422  0.2802 -0.1647  0.0961
17346W        W60259  25.219  27.272   0.141 -0.0722 -0.1596 -0.0896
17347W        W60260   4.534  28.138   1.453 -0.2085 -0.5130  0.0904
17348W        W60261  25.708  32.757   6.089  0.1326  0.0066  0.1277
17349W        W60262  18.877  16.696   1.567  0.0693  0.1974 -0.1711
17350W        W60263  16.956  25.889   6.981  0.0347  0.0051 -0.0634
17351W        W60264  23.250  23.546   3.815 -0.2952  0.1177 -0.1721
17352W        W60265  17.601  24.613   4.788  0.2444 -0.0842  0.3048
17353W        W60266  18.078  23.269   9.083  0.3685 -0.2605 -0.0876
17354W        W60267   9.484  27.916   6.848 -0.1921 -0.1667 -0.0377
17355W        W60268  14.942   6.126  28.988  0.0730 -0.0317  0.1103
17356W        W60269  20.861  25.405   7.730 -0.1195  0.2767 -0.2061
17357W        W60270  24.068  24.818   7.922  0.1645  0.0880  0.0422
17358W        W60271  17.120  30.651  23.146  0.0449 -0.0921 -0.3661
17359W        W60272  18.851  29.134   4.762 -0.1681  0.0259  0.0423
17360W        W60273  21.688  29.316   6.085 -0.4830  0.2992  0.1469
17361W        W60274  11.471  32.608   7.395 -0.1097  0.2016 -0.0348
17362W        W60275  22.956  34.480   6.988  0.0093  0.0716 -0.2599
17363W        W60276  23.064  13.467   6.414 -0.0411  0.0231  0.0434
17364W        W60277  25.196  20.376   7.267  0.0348 -0.3233 -0.1626
17365W        W60278  26.117  28.433   7.473  0.3172  0.2121 -0.1796
17366W        W60279  26.275  27.462   3.538  0.0880  0.1586 -0.1982
17367W        W60280  18.952  24.332   6.160  0.1558 -0.0323 -0.2265
17368W        W60281   8.377  30.120   7.329  0.1912  0.3043  0.1993
17369W        W60282  21.122  32.348   8.100 -0.0635 -0.0436 -0.0497
17370W        W60283  27.903  31.270  29.070 -0.1123 -0.0378 -0.0377
17371W        W60284  29.495  23.814   5.351 -0.1736 -0.0071  0.1902
17372W        W60285  20.728  20.904   2.419  0.0455  0.1370  0.0434
17373W        W60286  21.367  26.098  28.733  0.0780  0.2388  0.1636
17374W        W60287  30.730  25.576   5.830 -0.1018 -0.0251 -0.1498
17375W        W60288  25.480  33.512   5.736  0.0325  0.0842 -0.0011
17376W        W60289   9.422  24.133   1.258  0.0705  0.2698 -0.1537
17377W        W60290  19.644  20.661   0.883  0.1527  0.2252 -0.1073
17378W        W60291  19.185  21.695   0.975 -0.0772 -0.2412  0.0090
17379W        W60292  11.937   0.518   9.820 -0.2418  0.1041  0.1235
17380W        W60293  18.077  25.350   5.831  0.1956  0.0302  0.4536
17381W        W60294   9.626  21.412   7.925  0.1945  0.1277 -0.0526
17382W        W60295  12.633  26.915   5.173 -0.1242 -0.1556 -0.3253
17383W        W60296  31.646  27.493   2.481  0.1766 -0.2747 -0.0091
17384W        W60297  14.421  17.259   6.646 -0.1121  0.1932  0.1292
17385W        W60298  24.433   0.735   8.595 -0.0397  0.0697  0.3719
17386W        W60299   9.929  27.240   6.327  0.0192 -0.1643  0.3892
17387W        W60300  13.826   1.014   6.281  0.0211 -0.0375  0.2504
17388W        W60301  19.436  16.758   4.639 -0.1439 -0.1468 -0.3458
17389W        W60302  26.866  17.086   0.958  0.1413 -0.2207  0.0965
17390W        W60303  11.613  21.336   1.679  0.1868 -0.0431 -0.2255
17391W        W60304  13.823  24.014   6.469 -0.0793  0.2392 -0.0382
17392W        W60305  20.253  17.499   0.117  0.0338 -0.3929 -0.2726
17393W        W60306  18.231  25.487   9.760 -0.2872 -0.0251 -0.2217
17394W        W60307  18.828  26.852   3.361 -0.2986 -0.2024  0.3667
17395W        W60308  14.791  26.995  10.202  0.1534  0.0255  0.1467
17396W        W60309  16.939  24.079   0.160 -0.0550  0.0325  0.0458
17397W        W60310  32.611  24.936   4.572 -0.0481  0.0473  0.3326
17398W        W60311  24.916  13.057   6.825  0.0302  0.0731 -0.2196
17399W        W60312  18.421  19.037   4.704  0.0436  0.0273 -0.1937
17400W        W60313  15.464  27.326  21.318  0.3081  0.1781 -0.3121
17401W        W60314  25.522  21.870   2.885  0.1208 -0.0692  0.0715
17402W        W60315  26.602  14.739   5.049  0.0968  0.3199  0.0042
17403W        W60316  17.088  25.766   3.891 -0.0930  0.0760 -0.0352
17404W        W60317  22.435   0.564  28.604  0.2195  0.0903 -0.1859
17405W        W60318  13.610  33.240  11.034 -0.0994  0.2701  0.2082
17406W        W60319  17.321  32.452  27.693 -0.1267  0.1003  0.0150
17407W        W60320  19.403  27.173  28.316 -0.2151  0.1090 -0.1397
17408W        W60321  24.573   1.123  26.107 -0.0064  0.0708  0.1718
17409W        W60322  12.738   2.174   5.129  0.0775 -0.0466 -0.0268
17410W        W60323  17.698   2.954  27.427 -0.4189  0.0766 -0.2057
17411W        W60324   7.155  26.924  22.745  0.2607 -0.1752 -0.0195
17412W        W60325  20.258  27.572   8.303 -0.0258  0.0448  0.2750
17413W        W60326  21.591   2.120  24.074  0.0592 -0.2953  0.1287
17414W        W60327  18.208  22.724  27.872 -0.2717  0.1835  0.0653
17415W        W60328  21.126  30.150  27.389  0.2671  0.0513  0.3811
17416W        W60329  24.848   1.650   8.275 -0.1657  0.3347  0.1425
17417W        W60330  28.324  25.685   3.900  0.1167 -0.2449 -0.2623
17418W        W60331  20.791  26.489   5.056  0.1397 -0.0798  0.0344
17419W        W60332  20.472  31.535  28.777  0.4532  0.2465  0.2251
17420W        W60333  19.694   5.767   2.278 -0.0601 -0.1332  0.0044
17421W        W60334  18.795  33.233  28.752 -0.0672 -0.0051  0.0776
17422W        W60335  15.356  30.241   0.533 -0.2294 -0.2697  0.0051
17423W        W60336  17.635  23.458   5.317  0.1136  0.0463 -0.0844
17424W        W60337  19.494   7.893   2.081 -0.2023 -0.1539 -0.3354
17425W        W60338  26.392   2.644   4.407 -0.1151  0.1196 -0.1165
17426W        W60339  19.751  27.264   7.630  0.1531 -0.2526 -0.0982
17427W        W60340  20.462  32.588  27.411  0.2090 -0.0926 -0.1642
17428W        W60341   1.568  25.215   8.204  0.0417 -0.1114  0.1957
17429W        W60342  15.776  28.883   2.314  0.5299  0.1891  0.2878
17430W        W60343  19.906  11.912   8.277 -0.2078  0.3128 -0.1723
17431W        W60344  17.142   6.395   4.672  0.1001 -0.3007 -0.0248
17432W        W60345  20.419   2.951   9.043  0.0956 -0.2691  0.1268
17433W        W60346  13.905  31.747   1.869  0.0536  0.2614  0.2705
17434W        W60347  14.787  22.200  24.381  0.1631  0.2087 -0.1963
17435W        W60348  18.744  22.091   6.744  0.1444  0.0532 -0.2942
17436W        W60349  16.849  33.390   4.543  0.1681 -0.0093 -0.1444
17437W        W60350  16.045   1.525  23.312  0.1967 -0.0431  0.1012
17438W        W60351  23.706   2.936  25.803 -0.2869 -0.1983  0.0002
17439W        W60352  11.145  26.130  25.417 -0.0817 -0.0120  0.2516
17440W        W60353  22.537  31.249   0.962 -0.0172 -0.3145 -0.0634
17441W        W60354  11.646  33.055   0.944 -0.3105  0.0915 -0.1836
17442W        W60355  31.796  19.963   7.392 -0.6069 -0.0973 -0.1129
17443W        W60356  16.364  31.338   5.936 -0.1281 -0.1027  0.1198
17444W        W60357  18.043   4.882   6.771  0.0934  0.0094  0.1693
17445W        W60358  26.659  33.161  25.887  0.0211  0.0110  0.0527
17446W        W60359  28.092  12.157   5.048  0.0571 -0.0708  0.4054
17447W        W60360  27.992  10.206  24.649  0.0843  0.0577  0.0113
17448W        W60361  11.748  32.349   6.615  0.1403 -0.1272 -0.1100
17449W        W60362  26.056  26.785   2.254 -0.1062  0.0105  0.0585
17450W        W60363  14.569  18.280  29.652  0.0176  0.1649 -0.6097
17451W        W60364  18.554   3.001   1.305 -0.1119  0.3977  0.1409
17452W        W60365  12.349   2.866  20.691 -0.1059 -0.0421  0.1046
17453W        W60366  21.160  24.219  22.927  0.1659 -0.0662 -0.2317
17454W        W60367  14.287  12.206   5.067  0.3120 -0.2567  0.0196
17455W        W60368   6.185  29.017  24.470  0.1629 -0.0185 -0.0133
17456W        W60369  10.137  27.586  11.683 -0.1600 -0.2759  0.0590
17457W        W60370  18.378   4.033   6.128  0.1109  0.0189  0.2105
17458W        W60371  28.314  20.777  23.591  0.3082  0.1041 -0.0380
17459W        W60372  28.332  31.273   1.640  0.0158  0.1313 -0.0667
17460W        W60373   0.289  13.503   4.206 -0.1239 -0.1999  0.0493
17461W        W60374  14.082  25.516  26.747  0.0332  0.0580 -0.2738
17462W        W60375  21.118  25.698   6.016 -0.0411  0.2852 -0.0604
17463W        W60376  15.591  34.166   2.701  0.0876  0.0956  0.0746
17464W        W60377  17.218  25.532   4.804 -0.0837  0.0826 -0.1368
17465W        W60378  14.009  26.426  26.407  0.3426 -0.1511  0.3409
17466W        W60379  19.910  33.968  26.416 -0.5358 -0.2666 -0.1202
17467W        W60380  12.007  25.151   5.691 -0.0099  0.1428  0.0201
17468W        W60381  17.550  28.303   8.453  0.1186 -0.0899 -0.3397
17469W        W60382  28.125   4.155   5.247 -0.4194  0.0654 -0.2163
17470W        W60383   0.695  29.325   4.562 -0.1925 -0.0807  0.0764
17471W        W60384  12.454  20.701   2.345  0.0649 -0.3130 -0.1398
17472W        W60385  24.708  32.041   0.617  0.0592 -0.0969  0.0231
17473W        W60386  16.816  20.003   1.267 -0.2403  0.1390 -0.1155
17474W        W60387  27.781  24.692   3.694  0.2376  0.2042 -0.2601
17475W        W60388  19.107  19.413  21.747  0.0404 -0.3315 -0.2359
17476W        W60389  22.965  29.954   0.068  0.0456  0.0566 -0.0330
17477W        W60390  25.164  27.071  27.529 -0.1964  0.3142  0.1266
17478W        W60391  22.901   5.534   7.457 -0.1365  0.0997  0.0056
17479W        W60392  27.553   9.069  19.333 -0.1852 -0.3808 -0.0394
17480W        W60393  26.885  31.060  22.589 -0.0887  0.0230 -0.1091
17481W        W60394  16.422  10.349  24.293  0.0736  0.0122  0.0578
17482W        W60395  24.647   0.967   0.767 -0.2667 -0.2741 -0.1064
17483W        W60396  15.145  27.395   3.018 -0.3713 -0.2670  0.0875
17484W        W60397   9.585  29.665   6.212 -0.0079  0.0542  0.0293
17485W        W60398  26.791  24.787   5.185  0.0489 -0.0824  0.1131
17486W        W60399  18.078   7.364   6.009  0.0687  0.1472 -0.0811
17487W        W60400  23.844  24.785  16.044  0.2731 -0.0257 -0.1948
17488W        W60401  24.394   1.305  25.184 -0.1728  0.3899  0.1436
17489W        W60402  15.921  21.159  16.835  0.3290  0.1394  0.1414
17490W        W60403  22.325  19.188   8.370  0.1757 -0.0688 -0.0344
17491W        W60404   7.742  34.477  27.652 -0.2358  0.1924  0.1606
17492W        W60405  29.596  31.200   3.190  0.0015 -0.0445 -0.0339
17493W        W60406  22.907  32.482   1.355  0.2738 -0.2766  0.0215
17494W        W60407  17.175   1.731   6.773  0.1140  0.2170  0.2158
17495W        W60408  14.751  32.992   2.420  0.2688 -0.0367 -0.1157
17496W        W60409  28.903  30.601   5.357  0.2711 -0.1577  0.0833
17497W        W60410  31.117   8.287   5.505 -0.0062  0.2282  0.0134
17498W        W60411  20.691   6.025   3.151  0.1255 -0.1627  0.0904
17499W        W60412  24.069  27.297   2.948 -0.2083  0.1151 -0.1619
17500W        W60413  20.843  31.251  21.756 -0.0274  0.3923  0.0900
17501W        W60414  19.657  19.921  19.542  0.0338 -0.0811 -0.1258
17502W        W60415   6.163  22.186   0.458  0.0792  0.1980 -0.1426
17503W        W60416  14.090  30.681  25.747  0.1021  0.0883  0.2210
17504W        W60417   8.162  30.841   4.065 -0.2318  0.0496 -0.1185
17505W        W60418  21.943  30.933  19.457 -0.0566  0.0284  0.0554
17506W        W60419  22.876  11.411   7.054 -0.1141 -0.2276 -0.0104
17507W        W60420  23.947  22.469  20.581  0.3476 -0.0785  0.4203
17508W        W60421  27.454  32.561   7.676  0.1972  0.0023  0.0652
17509W        W60422  23.977  19.319  26.080 -0.1913  0.4371 -0.2880
17510W        W60423  17.791  23.265  29.297  0.0503  0.2640  0.1293
17511W        W60424  22.622  31.590   6.103  0.0275  0.3113  0.0405
17512W        W60425  22.969  30.570  29.730  0.0169  0.0513  0.1570
17513W        W60426  11.693   4.655   7.296  0.1696  0.0003 -0.0549
17514W        W60427  18.694  34.352   6.693 -0.2479  0.2653  0.3409
17515W        W60428  17.103  21.843  13.081 -0.0846 -0.0771  0.0452
17516W        W60429  26.426  28.818  27.453 -0.2946 -0.3311  0.1067
17517W        W60430   9.239  25.780  25.901 -0.0179 -0.0051 -0.0221
17518W        W60431  13.700  33.857  10.264  0.1988  0.2877  0.2278
17519W        W60432   3.335  32.932   4.774  0.0119  0.1338 -0.2606
17520W        W60433  17.607  27.413  20.386  0.0693 -0.0068 -0.1434
17521W        W60434  22.151  34.153  10.278 -0.0641 -0.1252  0.1493
17522W        W60435  29.460  34.030  23.641 -0.0367 -0.1612  0.2379
17523W        W60436  27.655  23.629  23.621 -0.0205  0.0553 -0.2272
17524W        W60437  22.524  27.309   3.009 -0.3490  0.2100  0.0764
17525W        W60438   2.459   5.924  25.918  0.0207 -0.3734  0.1638
17526W        W60439  27.955  33.264   8.858  0.0395 -0.2590 -0.2557
17527W        W60440  23.186   0.278   5.951 -0.2390 -0.1160  0.1996
17528W        W60441  12.482  29.058  10.222  0.0069 -0.0084  0.2500
17529W        W60442  26.146   0.897  27.052  0.2794 -0.1045 -0.1855
17530W        W60443  22.834  31.073   7.985  0.2049 -0.1153 -0.0508
17531W        W60444  22.461   4.981   3.460  0.3450  0.0461 -0.0011
17532W        W60445  21.957  22.834   0.844  0.0870 -0.2367  0.0582
17533W        W60446  21.944  27.075   1.283 -0.2272  0.1482  0.1984
17534W        W60447  19.523  21.877  16.626  0.2353 -0.2842  0.2539
17535W        W60448  22.665  29.171   4.685 -0.1729  0.1793  0.0858
17536W        W60449  17.111  18.702  23.074 -0.0170 -0.1717  0.1541
17537W        W60450  24.347   8.440  21.836  0.0597  0.1197  0.4170
17538W        W60451  14.135  30.435  10.073 -0.2077  0.0879 -0.1320
17539W        W60452  17.193  34.359  16.580  0.4701 -0.0819  0.1464
17540W        W60453  11.159  32.667   4.597  0.0544  0.4125 -0.1997
17541W        W60454  19.447  22.429   5.240  0.3134  0.0432  0.0511
17542W        W60455  18.069  27.918   0.138  0.1134  0.0686  0.3211
17543W        W60456  19.567  30.110   0.867  0.1797 -0.0647 -0.0412
17544W        W60457  29.626   6.473   9.921 -0.0086  0.1474 -0.0834
17545W        W60458  16.496  28.301  25.721  0.1091  0.0522 -0.3972
17546W        W60459  13.032  25.982   5.774 -0.1451 -0.0717 -0.0017
17547W        W60460  17.838  33.284   8.574  0.1429  0.1570 -0.2303
17548W        W60461  26.091  29.714   0.708  0.2547 -0.0299 -0.2455
17549W        W60462   8.519   3.893   7.911  0.1129 -0.2221 -0.0399
17550W        W60463   0.956   1.236   3.071 -0.0586 -0.0990  0.5158
17551W        W60464  28.610  22.922   8.463  0.2240 -0.1683  0.0158
17552W        W60465  33.522  20.787   2.069 -0.1183 -0.2720  0.1454
17553W        W60466  24.665   0.120   8.226  0.0378 -0.0936 -0.0662
17554W        W60467  17.649  22.174  19.997 -0.2144  0.4383  0.1282
17555W        W60468  14.415  20.242   0.662 -0.0877 -0.1268 -0.1827
17556W        W60469  19.870  27.840   1.270 -0.1491 -0.1456 -0.0491
17557W        W60470  28.447   6.626   6.590 -0.1829  0.1100  0.5390
17558W        W60471  11.345   8.602  19.789 -0.0254  0.2268  0.0749
17559W        W60472  21.851   0.005  27.217  0.2054  0.2453  0.2883
17560W        W60473  23.293   7.475   8.024  0.1624 -0.0254  0.2241
17561W        W60474  21.940  33.522   0.995 -0.1494 -0.0659  0.3431
17562W        W60475  18.088  19.937  27.215 -0.1871  0.0552 -0.0676
17563W        W60476  13.088  23.478  20.652  0.1519 -0.2987  0.0335
17564W        W60477   3.524  10.837   4.153 -0.0608 -0.2255 -0.0876
17565W        W60478  18.959  24.828   1.400  0.3415 -0.0045 -0.2251
17566W        W60479  16.053  21.968  29.115 -0.1977  0.0984  0.0996
17567W        W60480  31.053   4.803   5.119  0.1074  0.1842 -0.0167
17568W        W60481  31.645  32.213  10.699  0.2603  0.0585 -0.1456
17569W        W60482  24.587  26.021   4.004 -0.0570  0.0251  0.1240
17570W        W60483  11.640  23.585  24.320 -0.2935  0.2696 -0.0403
17571W        W60484  17.189  31.149   4.476 -0.2748 -0.0690 -0.2965
17572W        W60485  12.241  31.651   7.115 -0.1707  0.1903  0.1689
17573W        W60486  24.767   4.478  24.771  0.1052  0.0502 -0.0404
17574W        W60487  21.995  31.870   1.830 -0.1182 -0.0265 -0.0461
17575W        W60488  30.210   2.687  24.839  0.3487 -0.4311  0.1324
17576W        W60489  16.548  31.609  20.950 -0.0581  0.3168  0.0619
17577W        W60490  30.680  33.444   9.162  0.2155 -0.3192 -0.3218
17578W        W60491  18.895  21.598  22.765  0.0116 -0.1975  0.1412
17579W        W60492  20.852   9.075  27.012 -0.1236 -0.2782 -0.1749
17580W        W60493  18.828  30.506  29.284  0.1726  0.0538 -0.2104
17581W        W60494  28.420  30.839   9.669  0.1598  0.0520 -0.2538
17582W        W60495   2.524  23.134  28.392  0.2396  0.2347 -0.1698
17583W        W60496  13.123  22.189  22.850 -0.0880  0.0913 -0.3527
17584W        W60497   4.674  32.148   3.609  0.1964  0.1650  0.0510
17585W        W60498  18.438  28.932  18.916  0.0500  0.1975 -0.1619
17586W        W60499  24.054  30.784  24.343  0.0803 -0.3349  0.1001
17587W        W60500  17.213  30.739   1.529  0.1344 -0.0068  0.1200
17588W        W60501  16.737   5.029  22.439 -0.1156  0.0286  0.0253
17589W        W60502  21.973  16.576  26.488 -0.4006  0.0436  0.2442
17590W        W60503   9.533  32.551   4.184  0.0825 -0.0729  0.0108
17591W        W60504  24.192  24.704   8.365 -0.1220 -0.0928 -0.0612
17592W        W60505   5.261  32.608   5.542  0.1719  0.1409  0.1494
17593W        W60506  33.197  25.703   6.646 -0.2673  0.1942 -0.0887
17594W        W60507  26.865  26.148  20.750 -0.0725 -0.0298  0.2284
17595W        W60508  17.115   4.367   4.556  0.0459  0.0489  0.2079
17596W        W60509  28.841  32.233  25.840  0.0080 -0.0896 -0.0441
17597W        W60510  33.091  32.331  10.466  0.0082 -0.0652  0.0261
17598W        W60511  23.712  23.553   3.456  0.0213 -0.0245 -0.1162
17599W        W60512  24.213   7.157  29.035 -0.0873 -0.0899 -0.0899
17600W        W60513  21.625  20.780  24.040  0.0301  0.2260  0.2421
17601W        W60514  17.028   1.434   2.337 -0.0673  0.1488 -0.1679
17602W        W60515  24.628  30.956   8.070 -0.0296 -0.3035  0.2074
17603W        W60516  16.070  24.220   2.203  0.4451 -0.2025 -0.2358
17604W        W60517  25.723  28.360   5.800 -0.0928  0.1542 -0.2065
17605W        W60518  18.682  31.045   0.483 -0.2724 -0.0629  0.3805
17606W        W60519  22.627   4.630   8.576 -0.0336  0.0821  0.3196
17607W        W60520  20.490  28.058   0.340  0.0755  0.0676  0.0769
17608W        W60521  25.276  28.587   1.102  0.2892  0.0800 -0.2785
17609W        W60522  12.878  22.646  23.458  0.0994  0.0265 -0.1171
17610W        W60523  10.602  29.136   7.793  0.0926  0.1258  0.3589
17611W        W60524  21.874  20.868   2.534 -0.2676  0.0242 -0.1537
17612W        W60525  33.074  33.109   7.910  0.4901 -0.1959 -0.2193
17613W        W60526  27.699  23.949   8.235 -0.1053  0.0322 -0.0502
17614W        W60527  13.292   6.337   0.144 -0.1933  0.0165  0.0448
17615W        W60528  29.825   0.851  10.070  0.2442 -0.0564 -0.2674
17616W        W60529  19.811  20.833  28.632  0.1518  0.3711 -0.0704
17617W        W60530  23.503  32.736  28.724  0.1036 -0.1032 -0.1621
17618W        W60531   3.746   1.630  12.139 -0.2292 -0.0411 -0.0834
17619W        W60532  12.262   5.881  24.581 -0.0589 -0.2445  0.1010
17620W        W60533  22.959  29.678  27.673 -0.0472 -0.0077  0.1287
17621W        W60534  11.499   0.267  22.356  0.1600 -0.0581 -0.0457
17622W        W60535  29.730  24.800   5.143  0.3358  0.0681  0.0679
17623W        W60536  30.990   6.074   3.884 -0.3277 -0.0442  0.3241
17624W        W60537  29.027  31.754   1.051  0.0311  0.2747  0.1346
17625W        W60538  12.447  26.636   3.390  0.0585  0.1271 -0.0344
17626W        W60539  16.057   1.995   6.961 -0.2288  0.1229 -0.0405
17627W        W60540  29.460   2.874   1.808 -0.3737 -0.0200  0.0111
17628W        W60541  21.155   5.260  17.245 -0.1022 -0.1896 -0.0279
17629W        W60542  20.578  27.770   6.378 -0.1740 -0.3283 -0.3835
17630W        W60543  34.360  20.603   7.888 -0.1399 -0.3844  0.3932
17631W        W60544  15.782  23.644  21.083  0.2260 -0.0849 -0.1232
17632W        W60545  23.170  18.924  24.329  0.2504  0.1818  0.0288
17633W        W60546  24.452   3.555   4.982  0.1128 -0.1674 -0.2495
17634W        W60547  27.104   0.303   5.555  0.1835  0.0485  0.2543
17635W        W60548  24.743  29.045   2.195  0.0998  0.0446  0.1342
17636W        W60549  17.453  18.427  29.353 -0.0227  0.0885 -0.0648
17637W        W60550  15.001  30.499  27.827 -0.2446 -0.0341 -0.3702
17638W        W60551  10.337   0.779  20.444  0.0973  0.1448 -0.2274
17639W        W60552  22.181  33.253   1.363  0.1030 -0.1120 -0.1725
17640W        W60553  16.028   3.359   4.165 -0.0772  0.1829 -0.1848
17641W        W60554  14.258   3.229   3.503 -0.0221 -0.0701 -0.2005
17642W        W60555  12.156  23.486   0.846  0.0826 -0.0923  0.4748
17643W        W60556  24.923  19.930   2.644 -0.0331  0.0300 -0.2837
17644W        W60557  17.808  26.716   4.779  0.2779 -0.2383 -0.2314
17645W        W60558  20.360  28.537   8.933  0.1749  0.0613  0.2494
17646W        W60559  26.811   2.594  24.522 -0.0833  0.1877 -0.0547
17647W        W60560  10.430  29.164  29.210 -0.1395 -0.1340  0.1924
17648W        W60561  17.438   7.237  25.803 -0.1804 -0.1257 -0.2251
17649W        W60562   8.212  31.706  26.778 -0.1721  0.1319  0.0549
17650W        W60563  21.377  30.439   2.627 -0.0794 -0.1234  0.2230
17651W        W60564  21.963  18.063   3.550  0.1188 -0.0065  0.1071
17652W        W60565  20.395   2.723  26.910  0.2796  0.0902 -0.0196
17653W        W60566  11.376  30.174   4.913  0.2351  0.1609 -0.2636
17654W        W60567  18.133  33.209   9.034  0.0673 -0.0118 -0.1035
17655W        W60568  17.594   6.451  27.039  0.0201 -0.0141 -0.1584
17656W        W60569  24.286  27.378   3.369 -0.1899  0.0968 -0.0703
17657W        W60570  17.526   1.041   4.263  0.0523 -0.0328  0.1745
17658W        W60571  18.958  21.513   8.850  0.1186  0.3199  0.0065
17659W        W60572  16.160   0.948  26.850 -0.0080  0.7064  0.0434
17660W        W60573   8.013   0.957   9.396  0.0009 -0.0414 -0.0909
17661W        W60574  22.642  28.596  27.909  0.2375 -0.2284  0.2807
17662W        W60575  25.234   0.783   9.821 -0.0337  0.1678 -0.2653
17663W        W60576  15.944  34.430  21.206 -0.0462 -0.0179  0.0812
17664W        W60577  19.381  23.468   6.409  0.1916  0.1955  0.2485
17665W        W60578  26.494  31.238   7.008  0.1020 -0.1698  0.0278
17666W        W60579  22.546  29.368  26.913  0.0735  0.5704  0.1512
17667W        W60580  21.858   3.767  29.302  0.1913  0.1416  0.0723
17668W        W60581  29.491   4.771   5.862 -0.0011 -0.2984  0.1237
17669W        W60582  13.050  32.051  26.328  0.0002  0.0932  0.4888
17670W        W60583  23.650  29.139   3.370 -0.0978  0.1501  0.2171
17671W        W60584  25.954  28.104   1.060  0.1401 -0.1535 -0.1618
17672W        W60585  22.661  27.808  28.991 -0.0167 -0.3367  0.2589
17673W        W60586  19.325  26.312  26.887 -0.1219 -0.1515 -0.0441
17674W        W60587  19.503  25.114   6.474 -0.0373 -0.0493  0.2664
17675W        W60588  12.958   1.889  28.842  0.3321  0.3312  0.0121
17676W        W60589  13.981   2.362  15.875 -0.1865  0.0574 -0.2640
17677W        W60590   8.473  20.213   0.047  0.0269 -0.2211  0.1423
17678W        W60591  11.810  33.659  26.544 -0.1225  0.2525 -0.1368
17679W        W60592  12.834  34.128   6.242  0.0520  0.0924  0.4784
17680W        W60593  30.690   1.146  10.409  0.0489  0.0706  0.4467
17681W        W60594  24.486  29.620  29.105 -0.0291 -0.0314  0.2637
17682W        W60595  22.338  27.397   7.676 -0.0075  0.0748  0.0549
17683W        W60596  19.501   4.596  26.485 -0.2886 -0.1281 -0.3586
17684W        W60597  14.839  30.732   1.280 -0.1689  0.0256 -0.1966
17685W        W60598  30.593   1.837  22.260  0.1075 -0.1351 -0.2726
17686W        W60599  14.224  22.779  17.165 -0.1268  0.1263  0.2925
17687W        W60600  21.036  24.238  27.338 -0.1522 -0.1944 -0.0032
17688W        W60601  25.515  25.465   3.059 -0.1285  0.2483 -0.0004
17689W        W60602  26.786  32.441   5.348  0.1877  0.1885  0.0683
17690W        W60603  25.229  30.762  20.359 -0.2746 -0.3572  0.1458
17691W        W60604  22.227   8.796   7.320  0.0715  0.0298  0.3200
17692W        W60605  19.036  33.424  10.039  0.0494 -0.3164 -0.0949
17693W        W60606  11.223  32.608   9.836  0.2420 -0.0065 -0.0092
17694W        W60607  21.974  23.361   0.838 -0.0431  0.2388  0.1698
17695W        W60608   0.134  32.958   8.460 -0.0001  0.2122  0.2710
17696W        W60609  15.216  30.175   3.046 -0.4339 -0.0522 -0.0465
17697W        W60610  15.898   8.173   4.166 -0.0151  0.2221  0.2285
17698W        W60611  11.577   1.112   1.264  0.0415 -0.4352  0.0964
17699W        W60612  13.901  31.133   8.266 -0.0189 -0.1613 -0.2220
17700W        W60613  20.265  29.066   1.281  0.3456 -0.2443 -0.1169
17701W        W60614  25.849  32.414   2.749 -0.1438 -0.0298 -0.0362
17702W        W60615  18.855  29.063  28.794 -0.0275 -0.3933  0.2587
17703W        W60616  22.452   6.284   4.233  0.0192  0.0319  0.1043
17704W        W60617  15.675  19.459  26.127  0.0959  0.1548  0.1751
17705W        W60618  13.720  28.952   7.510  0.1369  0.2136 -0.3991
17706W        W60619   6.926  31.524   0.004 -0.3238  0.0639  0.1790
17707W        W60620  11.298   1.866  28.980 -0.1970 -0.1971 -0.3377
17708W        W60621  21.311  33.951  24.416 -0.0878 -0.0061  0.3367
17709W        W60622  30.381  32.367   8.077 -0.2459 -0.3181 -0.0848
17710W        W60623  21.273   7.985   2.840 -0.0100  0.1044  0.1810
17711W        W60624  27.024   3.253   4.681 -0.2457 -0.3072 -0.0100
17712W        W60625  28.742   5.928   8.052  0.0886 -0.1273 -0.0496
17713W        W60626  18.355  26.416  24.870  0.0449 -0.1475  0.0477
17714W        W60627  21.882  30.304   4.854  0.2134 -0.1883  0.2557
17715W        W60628  23.374   2.307   2.372 -0.0819  0.1755 -0.0032
17716W        W60629  17.197  32.203  20.568 -0.2246  0.3656  0.0764
17717W        W60630  27.027   4.351  24.646 -0.3528  0.0716  0.0732
17718W        W60631  15.178   4.146   3.703  0.0548 -0.2459 -0.1386
17719W        W60632  23.036  32.257  28.130  0.0855  0.3229 -0.1111
17720W        W60633  17.615  29.048   2.129 -0.3544  0.2388 -0.1133
17721W        W60634  12.684   0.220  10.779 -0.1776  0.1943 -0.2259
17722W        W60635  19.024  24.145   5.666  0.3272 -0.1268 -0.1740
17723W        W60636  13.222   1.366  17.852 -0.0085  0.0260 -0.0735
17724W        W60637  28.447   0.928   0.412  0.0186 -0.1655 -0.1281
17725W        W60638  20.376  19.687  28.521  0.0045  0.3147 -0.1164
17726W        W60639  14.631  28.583  27.071 -0.3162  0.2199 -0.1364
17727W        W60640  13.711  25.556   9.294 -0.1868 -0.0778  0.1497
17728W        W60641  28.923   6.556  22.158 -0.3641  0.1366  0.0856
17729W        W60642  23.203   1.776   9.071  0.0466  0.1854  0.1050
17730W        W60643  24.400  31.373   2.044 -0.1435 -0.0449 -0.2848
17731W        W60644   9.743  30.933   1.907  0.1968  0.2429  0.0107
17732W        W60645  18.196  27.935  25.716 -0.2453  0.2237 -0.0316
17733W        W60646  31.005   5.377   4.321 -0.1833  0.0360 -0.1660
17734W        W60647  12.645  30.044   3.040 -0.0298 -0.1326  0.4088
17735W        W60648  24.953  31.142  28.715 -0.0777 -0.0941  0.2868
17736W        W60649  29.898  23.626  25.975 -0.5182  0.0031  0.0802
17737W        W60650  28.784  13.242  20.125 -0.0262 -0.1336 -0.0195
17738W        W60651  21.066   1.416   7.093  0.0613  0.0978 -0.2163
17739W        W60652   9.032  20.124   3.666 -0.0686  0.1056  0.3999
17740W        W60653  17.652  28.823   8.428  0.2084 -0.0905  0.0489
17741W        W60654  27.780  20.434   5.714 -0.0977  0.0801 -0.1273
17742W        W60655  28.791  28.215   4.719  0.0229 -0.2723 -0.1110
17743W        W60656  17.287   9.735   0.508  0.2365 -0.2344 -0.3610
17744W        W60657  25.218  29.232  22.276  0.3250 -0.1038 -0.0665
17745W        W60658  28.043  33.263   0.402 -0.3042 -0.0008 -0.0530
17746W        W60659  20.552  33.370   6.796  0.0292  0.0501 -0.2636
17747W        W60660   2.219   5.008   2.100  0.1902  0.0497  0.0862
17748W        W60661  19.838  29.685   0.262  0.0540 -0.0368 -0.0687
17749W        W60662  28.457  29.566   9.571 -0.0485  0.2587 -0.2813
17750W        W60663  25.490   1.068   0.514 -0.0544 -0.0273  0.2338
17751W        W60664  12.024  33.362   9.173  0.0470  0.1265 -0.0246
17752W        W60665  16.735  32.707  28.612  0.2509  0.1168  0.0608
17753W        W60666  16.742  26.229  27.004  0.0595  0.0374 -0.0784
17754W        W60667  29.145   3.075   5.326  0.1789  0.0622 -0.1437
17755W        W60668  20.712  23.022  25.659 -0.1280 -0.1676  0.0843
17756W        W60669  18.215  26.149   2.577  0.1299 -0.3048 -0.0084
17757W        W60670  13.872   1.446  11.724 -0.2508 -0.1620 -0.0285
17758W        W60671  17.139   0.081  22.668 -0.1150 -0.2127  0.1606
17759W        W60672  15.167  31.661  23.147  0.2039  0.0842  0.0790
17760W        W60673  11.766  17.445  25.587  0.2994  0.0683 -0.0208
17761W        W60674  23.115  32.099   6.773 -0.1611 -0.1964  0.0812
17762W        W60675  29.712  28.409   2.693 -0.0827  0.0097 -0.0432
17763W        W60676  12.600  26.940  24.083  0.2665 -0.0466 -0.0211
17764W        W60677  18.480   2.064   4.931  0.2355  0.0414 -0.2503
17765W        W60678  21.744  28.383   7.986  0.2606 -0.1224 -0.2620
17766W        W60679  27.265  32.912  18.148  0.2264  0.2980  0.0417
17767W        W60680  22.524  32.880   5.293  0.1335  0.2327  0.3165
17768W        W60681  20.811   2.848  15.300 -0.0077 -0.0914  0.1995
17769W        W60682  14.187  19.011  29.260 -0.0170 -0.0393  0.1679
17770W        W60683  14.704   0.099   5.716 -0.2926 -0.1655 -0.5879
17771W        W60684  26.085  29.571   4.340  0.2269 -0.0490  0.3631
17772W        W60685  18.116   6.210   6.136 -0.1360 -0.1273  0.1512
17773W        W60686  16.057   3.089  18.927 -0.1405 -0.1225  0.0479
17774W        W60687  17.826   1.343   0.091 -0.2681  0.0593 -0.2419
17775W        W60688  27.082  28.600   1.692  0.0885  0.2196  0.0065
17776W        W60689  10.550  26.884   9.165 -0.1834 -0.0933 -0.0530
17777W        W60690  23.547   2.262   5.803 -0.3538 -0.0360  0.0876
17778W        W60691  13.016  25.853   2.427  0.2671 -0.1369  0.1440
17779W        W60692  19.739  21.856  26.466  0.1113 -0.3126 -0.1500
17780W        W60693  21.394  32.738  23.369 -0.1178  0.1439 -0.1019
17781W        W60694  20.093  25.791  27.013 -0.5458  0.1220 -0.0146
17782W        W60695  17.992  27.732  28.067 -0.0527 -0.0580  0.3336
17783W        W60696  26.024   0.357   5.201 -0.0678 -0.2176  0.1133
17784W        W60697  16.610  28.942  29.099  0.2674 -0.0604 -0.0107
17785W        W60698  27.992  30.042   0.098 -0.1624  0.0599 -0.1750
17786W        W60699  17.948  34.489   0.003  0.1433  0.0962  0.0422
17787W        W60700  15.304  25.503  28.874  0.0447  0.4021 -0.0543
17788W        W60701  18.834  26.237   9.245  0.1384 -0.0271 -0.0061
17789W        W60702  31.871  30.606   0.163  0.1356  0.0457  0.1162
17790W        W60703  28.291  27.348   5.590 -0.2161 -0.2598  0.1212
17791W        W60704  17.616  18.628  24.616 -0.1790  0.2709  0.1465
17792W        W60705  30.634  31.560   4.711 -0.2222 -0.1636 -0.4939
17793W        W60706  19.370  31.112   5.770  0.1422  0.0996  0.3066
17794W        W60707  16.232   0.838   2.105 -0.0662 -0.1394  0.1338
17795W        W60708  28.701  20.754   4.019 -0.3757  0.1342 -0.0985
17796W        W60709  19.989   4.956   5.849  0.1583  0.1480  0.0167
17797W        W60710  22.927  26.088  27.349  0.2616 -0.0558 -0.0124
17798W        W60711   9.904   1.893   8.404 -0.1736 -0.2586 -0.1175
17799W        W60712  21.215   2.354   6.860 -0.2590  0.2078 -0.0945
17800W        W60713  21.231  33.865  25.220 -0.1306 -0.1096 -0.2524
17801W        W60714  26.410  21.072   7.202 -0.0135  0.0772 -0.1011
17802W        W60715  24.977  27.280  20.684 -0.0565  0.0259 -0.0417
17803W        W60716  23.228  34.285  27.238 -0.1516 -0.1281  0.0615
17804W        W60717  20.882   8.666   4.281  0.0686  0.5778  0.1016
17805W        W60718  20.323  30.722  22.172  0.0713 -0.0611 -0.0266
17806W        W60719  24.153  28.276   4.968  0.4322  0.0123 -0.3262
17807W        W60720  19.077  20.624   5.664  0.1766 -0.0281  0.1175
17808W        W60721  21.174  33.346   5.004 -0.1454 -0.1737 -0.0607
17809W        W60722  27.949  31.175   1.221  0.2869 -0.2052 -0.0720
17810W        W60723  24.900  32.218   2.611 -0.1559 -0.1227  0.1393
17811W        W60724  16.181  33.546  10.014  0.1239  0.3473  0.0849
17812W        W60725  15.392  29.179   2.782  0.0781 -0.1613 -0.0111
17813W        W60726  22.342   0.170   0.525 -0.0972  0.0158 -0.0357
17814W        W60727  11.310  29.401  10.186 -0.1494  0.2525  0.0937
17815W        W60728  15.607   0.217  28.682 -0.1129  0.3421 -0.0973
17816W        W60729  19.439  32.049   1.963  0.0540  0.2122  0.4028
17817W        W60730  17.650  25.240   0.441 -0.0526  0.1374 -0.2226
17818W        W60731  21.279  21.052   7.321  0.0507  0.0180 -0.1828
17819W        W60732  15.644   2.889   4.866  0.1310 -0.0510  0.0402
17820W        W60733  17.226   3.983   5.762 -0.1916  0.0777 -0.2251
17821W        W60734  27.823  30.629   9.134  0.0429  0.0949 -0.1778
17822W        W60735  21.290  33.742  26.399  0.2096 -0.1286 -0.0183
17823W        W60736  10.019  31.534  11.118 -0.0338  0.3678  0.0562
17824W        W60737  22.724  18.573   6.121 -0.0952 -0.1211 -0.1226
17825W        W60738  14.985  22.885   8.468 -0.1514 -0.0193  0.0239
17826W        W60739   9.485  31.606   9.685 -0.4589  0.2999  0.1015
17827W        W60740  13.592  21.627  26.691 -0.2079 -0.2184  0.2511
17828W        W60741  12.021  27.334   8.845 -0.2599  0.0680 -0.0374
17829W        W60742  21.006  18.685  21.850  0.1863 -0.0704 -0.1524
17830W        W60743  27.220  25.165   0.458  0.2207  0.0051 -0.0610
17831W        W60744  19.289  29.772   6.071  0.1330 -0.0927 -0.0094
17832W        W60745  18.905   2.361   2.969  0.1991  0.0960  0.1517
17833W        W60746  14.681  28.496  10.641 -0.1774 -0.0795  0.0515
17834W        W60747  21.222  32.018   2.319 -0.0436  0.3329  0.0148
17835W        W60748  25.903  29.763   2.624 -0.1485 -0.0640 -0.2156
17836W        W60749  21.804  32.513  26.234  0.0525  0.2012  0.0927
17837W        W60750  25.994  27.769   7.393 -0.0132 -0.1445  0.2925
17838W        W60751  26.784  27.299   8.979 -0.1098 -0.0489  0.0993
17839W        W60752  22.469  25.709   5.437 -0.1303 -0.1231 -0.3383
17840W        W60753  27.784   0.103   8.338  0.1913 -0.0078  0.0889
17841W        W60754   5.851   6.307   4.661  0.2408  0.0946 -0.0574
17842W        W60755  19.940   0.727   5.899  0.0340 -0.0974  0.2020
17843W        W60756  24.706   7.930  25.873  0.2723 -0.0693 -0.0886
17844W        W60757  17.719  31.672   6.224  0.0503  0.2287  0.0787
17845W        W60758  27.868  34.279  29.492  0.2031 -0.0257  0.1650
17846W        W60759  22.301  34.052   8.427 -0.1583 -0.3544 -0.2345
17847W        W60760  18.287  29.451   5.424 -0.0749 -0.0495 -0.0649
17848W        W60761  24.699   4.333   0.784 -0.0380 -0.0266  0.0860
17849W        W60762  16.163  33.896   3.849 -0.0022 -0.4807 -0.2014
17850W        W60763  31.514  30.737   4.302  0.0624 -0.0756 -0.2304
17851W        W60764  21.652   4.028   2.391  0.0632  0.2822  0.2139
17852W        W60765  16.924  19.006   5.432 -0.0577 -0.0684 -0.1779
17853W        W60766  30.009   7.027   6.226  0.2191  0.0541  0.0488
17854W        W60767  18.629  30.570   8.720 -0.2353 -0.2665  0.2479
17855W        W60768  21.388  31.686   6.557  0.0188 -0.1924  0.0061
17856W        W60769   0.078  27.679   0.113 -0.1613 -0.0012 -0.0509
17857W        W60770  15.773  31.635   6.756 -0.1508 -0.0991  0.1707
17858W        W60771   8.292  34.089   5.902  0.1634 -0.1523  0.1108
17859W        W60772  33.517  26.273   5.140  0.1433  0.2396 -0.3875
17860W        W60773  20.024  33.224  26.710  0.0119 -0.2126 -0.1579
17861W        W60774  20.061  24.993   8.595  0.0450  0.1225  0.0866
17862W        W60775  10.715   0.891  22.191 -0.1377 -0.0014 -0.0873
17863W        W60776  23.240  31.412  22.760 -0.1914  0.1270 -0.0908
17864W        W60777  16.979   5.131   2.439 -0.2232 -0.0275  0.1846
17865W        W60778  14.639   1.469  10.117  0.2861  0.0778 -0.2253
17866W        W60779  15.399   8.898   5.258 -0.1493  0.1023 -0.0481
17867W        W60780  24.131  33.335   8.074 -0.2758 -0.1216  0.0844
17868W        W60781   9.899  27.742  11.211  0.5558 -0.0768  0.2132
17869W        W60782  10.127  27.902   2.007 -0.4430  0.0865 -0.1882
17870W        W60783  27.422  25.245   5.645  0.1098 -0.1881 -0.0818
17871W        W60784   3.452   2.072   7.064 -0.0207  0.2540 -0.2789
17872W        W60785  24.566  28.053  28.228 -0.0611 -0.3104 -0.2615
17873W        W60786  24.733  20.019  26.356 -0.2480 -0.2755  0.0652
17874W        W60787  20.674   3.405  27.651  0.3197 -0.1148  0.2097
17875W        W60788  17.475  29.856   2.631  0.2416  0.0822  0.1153
17876W        W60789  27.978  31.684   4.352 -0.1492  0.0775  0.1440
17877W        W60790  16.947  29.091  27.433 -0.0814  0.2509 -0.2150
17878W        W60791  23.898  26.586   7.061  0.1842 -0.0469 -0.0262
17879W        W60792  14.238  29.905  28.304  0.1155 -0.1318  0.0184
17880W        W60793  20.406  26.886   1.386 -0.1744 -0.2584  0.2345
17881W        W60794  19.016  22.661   2.967  0.1983 -0.1890  0.3477
17882W        W60795  19.888  26.278   8.500  0.0922  0.1867  0.1067
17883W        W60796  25.419  30.219   2.295  0.1053  0.1349 -0.3326
17884W        W60797  19.610  30.685   7.143 -0.0448  0.2297  0.1071
17885W        W60798  25.425   5.783   8.776 -0.0195 -0.0622  0.0866
17886W        W60799  19.679   3.147  26.335 -0.0112  0.0754 -0.3450
17887W        W60800  12.372  27.318  10.855 -0.2252  0.1090 -0.0624
17888W        W60801  18.718  28.643  27.806  0.1084 -0.1594 -0.0627
17889W        W60802  29.989  34.267   5.620 -0.0479  0.2237  0.1661
17890W        W60803  15.933  22.896   2.492 -0.1346 -0.3184  0.3990
17891W        W60804  15.758  32.647   3.988 -0.0178 -0.2330 -0.3010
17892W        W60805  16.318  27.954   0.127  0.3790  0.1693 -0.4391
17893W        W60806   6.395  18.716  29.390  0.1137 -0.0599  0.1351
17894W        W60807   8.700   3.021   5.883 -0.0928  0.3584  0.0050
17895W        W60808  20.244   2.300   0.498  0.2576 -0.1855 -0.0341
17896W        W60809  14.536  11.880   8.824 -0.0327 -0.0137 -0.1671
17897W        W60810  15.059  33.767   0.878 -0.1630 -0.1208 -0.2099
17898W        W60811   8.710  24.379   1.561  0.0617 -0.0244  0.0365
17899W        W60812   9.471   1.068  11.252  0.3984  0.0297  0.1510
17900W        W60813  13.147  21.874   5.722  0.0356 -0.4172 -0.0228
17901W        W60814  23.882   2.017   3.241 -0.0818 -0.0325 -0.1902
17902W        W60815  13.128  31.406   1.171  0.0572 -0.0775 -0.3097
17903W        W60816  23.133  24.655   2.156  0.1132  0.3312 -0.1598
17904W        W60817  24.470  29.042  28.991  0.0930  0.1221 -0.0909
17905W        W60818  32.864  21.744  28.238  0.0632  0.1964 -0.1046
17906W        W60819  20.971  20.177  17.787 -0.2384 -0.2785 -0.1135
17907W        W60820  13.051  20.449  25.481 -0.1406 -0.1050  0.3250
17908W        W60821  26.868  23.509   5.943 -0.1436 -0.1613  0.1108
17909W        W60822  13.804  29.726  11.296  0.2316 -0.0476  0.2339
17910W        W60823  18.256  33.802   1.107 -0.0962 -0.2135 -0.0243
17911W        W60824  18.084  25.561   6.303  0.0588  0.0491 -0.1715
17912W        W60825  21.179  31.035   6.042 -0.1674  0.2358  0.0312
17913W        W60826  28.589   6.115   0.343  0.0055 -0.2016 -0.0148
17914W        W60827  12.621   9.095  18.258 -0.0579 -0.0659 -0.0388
17915W        W60828  13.227  27.489  11.043  0.0411  0.2432 -0.0088
17916W        W60829  25.469  30.662   9.075 -0.1628  0.1484 -0.1146
17917W        W60830  16.225  34.100   5.666  0.1724 -0.1421  0.0880
17918W        W60831   4.558  33.942  28.100  0.0143 -0.1821  0.1453
17919W        W60832  18.772  27.536   2.453  0.1597  0.1660 -0.1215
17920W        W60833  13.212  26.554   4.667 -0.0454 -0.2326  0.1903
17921W        W60834  26.983  31.088   6.769  0.1564 -0.1402  0.2682
17922W        W60835  24.409  29.596   6.837  0.3831  0.0499 -0.0356
17923W        W60836  13.271  28.177   5.874  0.2322 -0.1744  0.2297
17924W        W60837   3.084   0.423   3.588 -0.2008 -0.1599  0.0699
17925W        W60838  14.324  30.551  26.176 -0.0046  0.0911  0.0870
17926W        W60839  29.070  11.917   6.697 -0.1938 -0.2668 -0.1683
17927W        W60840  16.879  29.736   8.731  0.3100 -0.1810  0.5355
17928W        W60841  30.222  11.138   6.343 -0.1892 -0.0439 -0.2223
17929W        W60842  18.815  29.067   1.495 -0.0369  0.1475 -0.3970
17930W        W60843  14.717  29.866   8.743 -0.3860 -0.0251  0.0600
17931W        W60844  10.104  22.918   4.237  0.1245  0.2899  0.0229
17932W        W60845  19.916   2.246  10.396  0.0775 -0.6210 -0.3443
17933W        W60846  22.029   4.319   6.075 -0.2480 -0.1220  0.1988
17934W        W60847  17.888  10.204   2.183 -0.1590  0.0205  0.2860
17935W        W60848  18.209  14.793   7.387  0.1930 -0.1147 -0.3149
17936W        W60849  18.055   2.567  29.748 -0.1441 -0.0549 -0.0468
17937W        W60850  26.816  28.557   0.786 -0.0566  0.0006  0.3460
17938W        W60851  19.047  33.341   8.567  0.1954 -0.0138 -0.1378
17939W        W60852  16.728   1.839   7.681 -0.0413 -0.0734 -0.0411
17940W        W60853  18.435  29.948   3.617 -0.1421 -0.0995  0.3309
17941W        W60854  16.084   0.853   1.580  0.3115  0.2091 -0.1179
17942W        W60855  21.537  21.397  27.062 -0.0683  0.1804  0.0138
17943W        W60856  14.517  33.960   6.473 -0.2170 -0.2218  0.1957
17944W        W60857  20.471   2.966   2.974  0.1261  0.1365  0.1342
17945W        W60858  25.005  31.447   9.099  0.2833  0.0984 -0.1513
17946W        W60859  17.397  25.702   1.090  0.1277 -0.1218  0.2092
17947W        W60860  13.069   0.570  10.033 -0.0268 -0.1339 -0.1738
17948W        W60861  21.467  25.634  29.626 -0.0573 -0.0166  0.2976
17949W        W60862  23.161   1.266  25.812 -0.1940  0.2901  0.1983
17950W        W60863  29.933  34.451   3.907 -0.2336 -0.2224  0.0901
17951W        W60864  17.569  31.742  28.980  0.0213  0.1656  0.3340
17952W        W60865  19.045  20.013  20.429  0.1520  0.1594 -0.1214
17953W        W60866  20.246  29.882   8.227 -0.4396  0.4049  0.0066
17954W        W60867  20.220  31.706   4.405 -0.1733  0.0567 -0.1517
17955W        W60868  21.595  31.222   6.318 -0.1341 -0.1420 -0.0732
17956W        W60869  19.073  30.701   5.884  0.1765  0.4030  0.1120
17957W        W60870  24.864  32.188  19.579 -0.1778 -0.1459 -0.1184
17958W        W60871  16.440  30.133  10.202  0.1409  0.0807 -0.0814
17959W        W60872  18.904  32.040  29.258 -0.1196  0.2601 -0.1320
17960W        W60873  21.115  34.356   5.721  0.0709 -0.2408 -0.1122
17961W        W60874  16.934  27.403   3.754 -0.2509 -0.2607 -0.1946
17962W        W60875  18.595  29.145   8.831 -0.2615  0.1007  0.0427
17963W        W60876  14.198  23.928   7.922  0.1422 -0.1124 -0.0196
17964W        W60877  32.834   1.260   4.434  0.0984 -0.1644 -0.0424
17965W        W60878  18.125  30.850   0.314  0.0583  0.0497 -0.0409
17966W        W60879  17.033   4.784   7.466  0.1159 -0.4317  0.1398
17967W        W60880  21.482   2.167   1.734 -0.2171 -0.1732  0.0663
17968W        W60881  15.447  33.722   7.201 -0.2536  0.3018  0.4298
17969W        W60882  16.952  22.502   0.989 -0.0099 -0.1531  0.0197
17970W        W60883   9.705  31.914   5.096 -0.2363  0.2596 -0.3825
17971W        W60884   5.753  19.925   4.805  0.2301 -0.2217 -0.2598
17972W        W60885  19.353  30.291   7.112  0.1164 -0.0383 -0.1702
17973W        W60886  21.703  29.538   6.670 -0.1638  0.2220 -0.0221
17974W        W60887  21.088  33.630   8.817 -0.1302  0.0581  0.2105
17975W        W60888  20.359  27.828   7.223  0.4185 -0.1036  0.1832
17976W        W60889  22.809  30.289  29.340  0.2753  0.1543 -0.0136
17977W        W60890   5.326  34.038   8.440 -0.2003 -0.3793  0.0913
17978W        W60891  17.172   0.338   6.450  0.1956 -0.0290  0.1990
17979W        W60892  16.678  21.134   0.755 -0.1417 -0.0123 -0.0235
17980W        W60893   0.529  26.536  27.905 -0.0657 -0.1423 -0.1840
17981W        W60894  10.856  32.803  21.770 -0.0871  0.1185 -0.0901
17982W        W60895  16.871  28.381  27.407 -0.2127  0.2050  0.1428
17983W        W60896  16.373  27.069   4.944 -0.2187  0.0837  0.1526
17984W        W60897  11.477   1.827   7.175 -0.0079 -0.1007 -0.0329
17985W        W60898  23.551  25.030  29.135 -0.1852  0.1188  0.1744
17986W        W60899  12.012   0.862  25.852 -0.0360 -0.0526  0.0014
17987W        W60900  15.704  33.221  10.689 -0.1719 -0.0788  0.2329
17988W        W60901  25.164   5.370   6.644 -0.0618 -0.0025  0.2112
17989W        W60902  13.304  29.254   9.374  0.0451 -0.1959  0.1778
17990W        W60903  22.284   0.033   4.504 -0.0858 -0.0476  0.1630
17991W        W60904  13.621  21.826   4.734  0.1705  0.0238  0.0604
17992W        W60905  18.192  20.890   6.248 -0.1445 -0.2399 -0.0584
17993W        W60906  18.100  29.835   8.525 -0.0286  0.3181  0.0693
17994W        W60907  18.787   2.985   3.060 -0.3210 -0.1964  0.1434
17995W        W60908  18.316  33.873   4.816  0.0645 -0.1276  0.1396
17996W        W60909  14.925  30.861   4.130  0.1459  0.3093 -0.2684
17997W        W60910  16.929   4.975  23.405  0.2779 -0.0329 -0.1262
17998W        W60911  21.217  31.824   4.538 -0.1582  0.1115  0.1633
17999W        W60912  16.781  19.496  27.025 -0.0409 -0.0402 -0.1395
18000W        W60913  20.692  31.197   7.267  0.0578  0.1545 -0.1445
18001W        W60914  21.006  25.546   0.629 -0.0133  0.3417 -0.0113
18002W        W60915   1.533  23.821   5.639  0.3567  0.0589 -0.0557
18003W        W60916   8.995   5.061  10.206 -0.0249 -0.2842 -0.0613
18004W        W60917  33.030  27.312   6.744  0.4640 -0.0463  0.3710
18005W        W60918  15.281   1.295   3.042  0.2868  0.0092  0.1589
18006W        W60919  31.129   1.316   4.876  0.1812  0.0333 -0.2788
18007W        W60920  10.836   0.157  26.957  0.1131  0.0024 -0.1614
18008W        W60921  11.860   1.114   1.724 -0.0902 -0.0754  0.1307
18009W        W60922  13.991  25.126  28.079 -0.0006 -0.2868  0.0630
18010W        W60923  12.710   5.777   7.614 -0.1316  0.0315  0.1874
18011W        W60924  13.748  31.590   7.309 -0.2366 -0.1623  0.0572
18012W        W60925  23.740  21.289   5.542  0.2002 -0.1637 -0.1977
18013W        W60926  22.840  22.729   2.235  0.1772  0.1614 -0.0192
18014W        W60927  20.994  15.851  23.867  0.1098  0.2287  0.2401
18015W        W60928  16.535  20.771   1.055  0.1476  0.2079  0.0854
18016W        W60929  14.673  29.891   9.765 -0.4306  0.0064  0.1682
18017W        W60930  16.885   2.096   9.382 -0.0300 -0.0679  0.1188
18018W        W60931  20.823  25.267   5.753 -0.0814  0.0739 -0.0104
18019W        W60932  10.950  31.218   0.178  0.2717  0.0728  0.1147
18020W        W60933  32.142  32.568   2.762 -0.1007  0.0307 -0.1789
18021W        W60934  26.526  32.358   7.272  0.0300 -0.0312  0.0766
18022W        W60935  16.126  21.844  28.660 -0.3364  0.1303 -0.1242
18023W        W60936  16.957   2.133   8.805 -0.1830 -0.1757 -0.0622
18024W        W60937  21.237  26.470   1.109 -0.3271  0.1785 -0.2325
18025W        W60938  17.283  21.574   7.816  0.1200  0.0051 -0.2106
18026W        W60939  16.120  29.448   9.658 -0.2766  0.0728  0.1002
18027W        W60940  21.875   0.970   9.611  0.0515  0.2304 -0.0502
18028W        W60941  26.454  22.790   1.631  0.2884  0.2983 -0.1828
18029W        W60942  10.456  31.120   0.441 -0.2055 -0.0916 -0.1506
18030W        W60943  12.840   5.615  11.675 -0.4149  0.0803 -0.0492
18031W        W60944  18.006   8.318   4.302  0.1271 -0.1789  0.0529
18032W        W60945  19.165  34.129  25.491 -0.1450  0.3353 -0.1551
18033W        W60946  21.131  26.466   6.306 -0.0293  0.3870 -0.1556
18034W        W60947  27.887  28.651  26.725  0.0920  0.4160 -0.2324
18035W        W60948   2.936   6.092  26.009  0.0029 -0.0898 -0.0990
18036W        W60949  24.683  27.815   7.744 -0.0856  0.2123  0.0791
18037W        W60950  14.622  32.892   7.310  0.4006 -0.2545 -0.0262
18038W        W60951  23.915   6.114   9.427 -0.3801 -0.1084  0.0780
18039W        W60952  25.416  28.367  21.357 -0.2394 -0.0416 -0.0577
18040W        W60953  33.169  32.073   4.672 -0.1217  0.0059 -0.1235
18041W        W60954  24.787  23.437   5.141 -0.2817 -0.0740  0.1441
18042W        W60955  24.091  22.085   7.812  0.0145 -0.0205 -0.0024
18043W        W60956  16.690  32.292   5.628  0.0609  0.0950  0.1841
18044W        W60957  26.352  27.054   0.033 -0.1099 -0.1631 -0.0904
18045W        W60958  17.769  32.111   7.587  0.2186 -0.1187 -0.2300
18046W        W60959  18.650  34.327   1.550  0.2239  0.3588 -0.0026
18047W        W60960  26.969  27.218   2.944  0.2398  0.1065 -0.1526
18048W        W60961   7.552  29.018   5.210 -0.3663  0.1996 -0.2955
18049W        W60962  18.565  29.415   2.411  0.1445  0.0459  0.0295
18050W        W60963  21.583  30.696   7.104  0.0804 -0.2419  0.1258
18051W        W60964  29.346  32.406   7.981  0.1940 -0.0033 -0.0868
18052W        W60965  21.785   9.123  25.142  0.2581 -0.2446 -0.0039
18053W        W60966  13.671   1.976  23.487 -0.5006 -0.2628  0.1659
18054W        W60967  22.589   1.409   9.990  0.0541  0.2557 -0.0246
18055W        W60968  20.750  21.958   3.625 -0.0327  0.0968 -0.0570
18056W        W60969  18.550  12.344   8.989 -0.0576 -0.0491  0.3540
18057W        W60970  20.570  26.899   2.627  0.2498  0.0541  0.1795
18058W        W60971  16.340  30.043   8.514 -0.0138  0.0010 -0.1626
18059W        W60972  14.967  26.661   2.707 -0.0483  0.0661  0.1704
18060W        W60973  13.130  30.655   5.154  0.3391 -0.4826  0.0979
18061W        W60974  14.731   8.024   2.777 -0.0362  0.0895  0.1168
18062W        W60975  18.697  16.352  27.361  0.0704  0.0891 -0.0781
18063W        W60976  22.357  29.403   0.506 -0.3619  0.2509 -0.2289
18064W        W60977  22.995   2.708   8.265  0.0073  0.2209  0.1788
18065W        W60978  10.739   4.748   2.442 -0.1862 -0.0861  0.0464
18066W        W60979  26.801  22.556   6.989  0.0824 -0.1309  0.0537
18067W        W60980  19.333   1.264  27.134  0.1331  0.0271 -0.1253
18068W        W60981  24.543  32.357   6.564 -0.2111 -0.0474  0.1513
18069W        W60982  20.695   2.716   8.057  0.0368  0.0821  0.0850
18070W        W60983  20.148  28.291   5.190 -0.0727  0.0900  0.0953
18071W        W60984  18.004  29.171   3.088  0.3747  0.1564 -0.0623
18072W        W60985  27.222  22.688  15.084 -0.0695  0.0306  0.2406
18073W        W60986  18.202  24.693   3.625  0.2706 -0.0672  0.0339
18074W        W60987  14.351  25.585   6.793  0.0350  0.0239 -0.1020
18075W        W60988  26.416   0.412   3.677 -0.2596  0.0089  0.1235
18076W        W60989   8.896   3.505  10.394 -0.2620 -0.1500  0.0537
18077W        W60990  25.124   2.738   7.815  0.2338 -0.2239 -0.2841
18078W        W60991  15.767  28.446  25.226 -0.2962  0.0210  0.0062
18079W        W60992  20.698  27.358   6.557 -0.0595  0.2070 -0.0996
18080W        W60993  18.335   0.623   5.016  0.0736 -0.0567 -0.3015
18081W        W60994  19.356  22.139   1.192 -0.0302 -0.5537 -0.0507
18082W        W60995  24.953  30.874   0.201  0.1675  0.1534 -0.1577
18083W        W60996  11.671  26.964  10.225 -0.0826 -0.1584  0.1788
18084W        W60997  11.883  29.004   8.264  0.0205 -0.1893  0.0378
18085W        W60998  16.123  32.046  28.785  0.0649  0.1812  0.1368
18086W        W60999  15.472  30.602   6.028 -0.2614 -0.0372  0.1530
18087W        W61000  29.560   1.230   1.296  0.1229  0.1490 -0.2598
18088W        W61001  17.536  32.511   3.063  0.0134 -0.1955  0.0067
18089W        W61002   4.805  24.841   2.408  0.0321  0.1392 -0.4001
18090W        W61003  20.929  18.998   0.533 -0.0821 -0.3845  0.1558
18091W        W61004  19.794  20.139   4.476 -0.2904 -0.1052  0.1086
18092W        W61005  23.857   3.188   5.786 -0.1595  0.1052 -0.3968
18093W        W61006  21.410  34.176  27.858  0.1952  0.1489 -0.0490
18094W        W61007  14.015   2.545   2.780 -0.1023  0.0309  0.0265
18095W        W61008  17.843  29.759   6.133  0.1904  0.2542 -0.2235
18096W        W61009  14.729  27.937   3.171  0.2103 -0.5200  0.1908
18097W        W61010   5.283  34.210   3.278 -0.0942 -0.0847  0.0774
18098W        W61011  22.455  31.844   8.026 -0.2337  0.1254 -0.1041
18099W        W61012  12.146   2.291   5.118 -0.0811 -0.0540 -0.0870
18100W        W61013   3.129  19.528   0.959 -0.5302  0.1116  0.0793
18101W        W61014   7.351  28.531  24.945 -0.1179  0.3025  0.0652
18102W        W61015  28.117  28.605  25.732  0.2414 -0.0598 -0.1391
18103W        W61016  30.847  34.225   7.331  0.2287 -0.0457  0.0386
18104W        W61017  13.415   3.365   9.091 -0.0376  0.1695 -0.0651
18105W        W61018  13.781  28.804   2.016 -0.0217  0.1870 -0.2303
18106W        W61019  30.631   7.208   4.472  0.0151  0.3131 -0.0521
18107W        W61020   9.251  32.705   6.963  0.3476 -0.0910  0.0571
18108W        W61021  17.612  32.585   6.260 -0.1626 -0.0264  0.5030
18109W        W61022  16.752   2.087   6.274 -0.0071  0.1432 -0.1071
18110W        W61023  19.111   8.428   4.027 -0.0351 -0.0593 -0.2917
18111W        W61024  29.424  25.122   5.511  0.2229  0.0720 -0.4463
18112W        W61025  20.504   1.000   8.812 -0.4411 -0.1214 -0.2367
18113W        W61026  19.657  33.056   6.594  0.0598  0.1426  0.0367
18114W        W61027  12.194  32.364  27.452 -0.0886  0.0338  0.3658
18115W        W61028  24.200   0.242   6.910  0.2054  0.1465  0.1708
18116W        W61029  24.355  27.667   6.073 -0.1995 -0.0178 -0.3201
18117W        W61030  17.994  25.866   8.436 -0.2199  0.1078  0.1975
18118W        W61031  22.606  21.094   7.205 -0.0879 -0.2386 -0.1326
18119W        W61032  14.084   7.113   3.897  0.0282  0.1992  0.0558
18120W        W61033  19.489   0.388  10.306 -0.0091  0.0522  0.1473
18121W        W61034  19.432  30.858   6.210  0.0043 -0.0331 -0.0193
18122W        W61035  26.421  20.768   6.111 -0.0966 -0.0136 -0.0955
18123W        W61036  10.446  24.715  24.866  0.1898  0.0264 -0.1732
18124W        W61037  32.059  26.968   0.947  0.3575  0.0764  0.0932
18125W        W61038  20.424  23.899  25.735  0.1774 -0.1216 -0.1270
18126W        W61039  26.097  26.987  27.617  0.0541 -0.2866 -0.0619
18127W        W61040  27.177  31.997   2.252  0.0159  0.0176 -0.0361
18128W        W61041  25.496   4.727  28.878 -0.0855 -0.1459 -0.0922
18129W        W61042  19.921  28.904  27.515 -0.0844 -0.1108  0.0776
18130W        W61043  15.525  31.077   3.141 -0.1066 -0.2262 -0.0888
18131W        W61044  23.081  13.819   4.231  0.0874  0.0438  0.0244
18132W        W61045   4.819  32.133   0.366 -0.3476 -0.0749 -0.1172
18133W        W61046  21.866  25.225   0.221 -0.0611 -0.3686 -0.1056
18134W        W61047  13.070   6.502  10.563 -0.2930  0.2339  0.0072
18135W        W61048  11.386  20.586   4.699 -0.1852  0.0819 -0.0034
18136W        W61049  19.461  21.146   6.488 -0.2957 -0.0430  0.0229
18137W        W61050  27.354  24.327   3.829  0.1592 -0.0389 -0.5185
18138W        W61051  17.962   0.779   8.556  0.1535 -0.2113 -0.2428
18139W        W61052  14.975   2.466   8.384 -0.0085 -0.1460 -0.1207
18140W        W61053  14.241  26.913   6.083 -0.3900  0.2594 -0.2489
18141W        W61054  20.791  25.223   7.168 -0.2319 -0.2203  0.1959
18142W        W61055  15.744  30.455  11.627 -0.0037 -0.0367 -0.0394
18143W        W61056  15.581   5.363  29.092  0.1661 -0.0361 -0.1374
18144W        W61057  15.472  12.363   0.926  0.0347 -0.1018  0.2980
18145W        W61058  25.357   7.884  27.494  0.0680  0.1298 -0.3340
18146W        W61059  26.489  26.968   3.906 -0.0772 -0.2358  0.0046
18147W        W61060   1.043   1.746   3.810  0.2298  0.0236  0.2470
18148W        W61061  16.672  31.963   0.662 -0.1477 -0.0754 -0.0129
18149W        W61062  29.944   7.260   7.390 -0.1919 -0.1088  0.2889
18150W        W61063  22.571  32.237  27.864  0.3194 -0.1425  0.5628
18151W        W61064  22.432   1.716   5.419 -0.3182  0.2820  0.0110
18152W        W61065  23.333  19.139   2.906 -0.0315 -0.1618  0.1108
18153W        W61066  13.940  32.217   7.838 -0.0992  0.0110 -0.1517
18154W        W61067  20.118  33.054   5.731 -0.2794  0.0948 -0.0640
18155W        W61068  23.100  25.585   6.878  0.1839 -0.2780 -0.0728
18156W        W61069  17.090  22.188   5.408  0.4486  0.1972  0.1775
18157W        W61070  18.246  26.407   4.020 -0.0232 -0.1209 -0.0062
18158W        W61071  20.187  30.781  10.005  0.2306 -0.0722 -0.0806
18159W        W61072  10.075  26.304   7.251 -0.0909 -0.3933 -0.1388
18160W        W61073  14.459   4.922   0.731 -0.1405  0.3327  0.2192
18161W        W61074  28.866  28.434   8.521  0.1615  0.0128 -0.0610
18162W        W61075  16.018   2.764  25.786  0.0397 -0.1283 -0.0929
18163W        W61076  25.884  23.536   8.008  0.0499 -0.2808 -0.4093
18164W        W61077  14.849   6.579   5.267  0.0675 -0.0247  0.2438
18165W        W61078  17.599  30.953   2.780  0.1205 -0.1374 -0.1921
18166W        W61079  26.525  27.557  29.724  0.3602  0.2140  0.0003
18167W        W61080  14.635  30.091   0.629  0.1381 -0.0875 -0.2915
18168W        W61081  14.583  31.740   7.597 -0.1955 -0.0006 -0.0822
18169W        W61082  22.062  29.201  27.262 -0.1433 -0.1034  0.1011
18170W        W61083  24.371  11.480   4.637  0.0636 -0.0611  0.3310
18171W        W61084  29.115  31.939  29.525 -0.1978  0.0770 -0.2449
18172W        W61085  19.913  29.062   7.187  0.0161 -0.0384  0.1117
18173W        W61086  25.356   5.676   7.275  0.1904  0.3944 -0.2125
18174W        W61087  20.748   1.472   8.801  0.1935  0.1080 -0.1309
18175W        W61088  27.958  24.160   6.198 -0.2620  0.4008  0.3411
18176W        W61089  27.389  28.709  26.796 -0.1529  0.3224  0.1481
18177W        W61090  11.072  30.367   9.162 -0.0319  0.1136  0.4661
18178W        W61091  16.339   0.921  10.700 -0.0354 -0.1069  0.0714
18179W        W61092  23.724   0.279   5.152  0.0107 -0.0156  0.0458
18180W        W61093  21.808  29.339   3.926 -0.4229 -0.3515 -0.0619
18181W        W61094  13.040  31.974   5.719  0.2373 -0.0214 -0.0807
18182W        W61095  21.202  28.559   8.267  0.2505  0.2845 -0.0055
18183W        W61096  20.741  23.770   7.541  0.0698  0.4884 -0.0332
18184W        W61097  22.069  24.366   9.020  0.0666 -0.3801  0.0893
18185W        W61098  17.614   8.196   8.152  0.1194 -0.0693 -0.1460
18186W        W61099   4.111  30.488   1.797 -0.1625  0.0515  0.2775
18187W        W61100  26.751   5.871  20.175  0.0573  0.1867  0.0714
18188W        W61101  20.467  18.540   6.870  0.2749 -0.0250 -0.1272
18189W        W61102  30.088  31.312  10.271  0.0334 -0.0190  0.2127
18190W        W61103  19.813  26.554   1.823  0.2089  0.0782  0.2939
18191W        W61104  18.874  32.163   8.609 -0.0932 -0.0901 -0.1422
18192W        W61105  18.389  33.371   4.646  0.2345 -0.1686  0.2830
18193W        W61106   2.809  25.627   4.579  0.0011  0.0361  0.1552
18194W        W61107  15.984  25.208   6.225 -0.2092 -0.1149 -0.2072
18195W        W61108  10.641  23.550   7.232 -0.2523 -0.1812 -0.1152
18196W        W61109  18.713  22.301  24.221 -0.0112 -0.0963 -0.0406
18197W        W61110   9.514  27.465   3.509  0.0106  0.1051 -0.1600
18198W        W61111  14.363  24.083  25.768 -0.2221 -0.0265  0.3938
18199W        W61112  12.162  33.984  13.083 -0.1271 -0.0366  0.0393
18200W        W61113  21.685   3.205   6.193 -0.1052 -0.0072  0.0760
18201W        W61114  20.383  33.843   7.829 -0.0615  0.0225 -0.2483
18202W        W61115  20.585  27.290   7.064  0.1884 -0.1197 -0.1076
18203W        W61116  14.530   2.111   7.286 -0.2460  0.1123  0.1089
18204W        W61117  15.648  26.885  26.228 -0.2299  0.1418 -0.0231
18205W        W61118   7.348  26.342   6.049  0.0524 -0.2941  0.1760
18206W        W61119  21.590  27.257   3.771 -0.1910 -0.0594 -0.1179
18207W        W61120  14.356  33.391   1.216 -0.0711 -0.0023  0.2518
18208W        W61121  29.638  21.438   1.886 -0.3635  0.3598 -0.2375
18209W        W61122  16.583   3.373   8.256  0.4556 -0.1253 -0.1389
18210W        W61123  28.747   8.858   9.287 -0.0084  0.0752  0.2319
18211W        W61124   5.179  30.730   7.670  0.3185 -0.2396  0.0816
18212W        W61125  20.736   0.599   8.515 -0.0581  0.4478 -0.0557
18213W        W61126  26.844  24.322  27.852  0.1032  0.0616  0.0472
18214W        W61127  18.918  28.561   9.866 -0.0651 -0.0132 -0.1483
18215W        W61128  24.307   0.137   7.397  0.1791 -0.2396 -0.0249
18216W        W61129   5.652  30.497  11.350  0.1466 -0.3852  0.0949
18217W        W61130  30.730  21.917   3.163  0.0417  0.4006  0.0232
18218W        W61131  29.673  32.000   7.818  0.1146  0.1370  0.2489
18219W        W61132  15.004  28.429   0.971 -0.0677 -0.1556 -0.1945
18220W        W61133  13.331  33.771   8.092  0.1362 -0.1947  0.2792
18221W        W61134  11.301   8.365  10.198 -0.0908  0.2723  0.2161
18222W        W61135  16.264   0.455   2.578 -0.3061 -0.0246 -0.0408
18223W        W61136  28.403  25.852   5.008  0.3635 -0.0210 -0.1390
18224W        W61137  20.866  28.690   7.955  0.1762 -0.0108 -0.1165
18225W        W61138  18.049   1.239   8.856 -0.0449  0.1560  0.1403
18226W        W61139  18.040   1.357   7.778  0.2569 -0.1129  0.0700
18227W        W61140  20.916  32.652   5.694 -0.0918  0.0402  0.3654
18228W        W61141  27.851  13.765   9.682  0.1317 -0.2826  0.0820
18229W        W61142  20.629   1.481   4.876 -0.2677 -0.1022  0.4592
18230W        W61143  19.115  27.928   0.074 -0.2084 -0.3041  0.2392
18231W        W61144  21.562   2.566   7.159  0.0194 -0.0055 -0.1413
18232W        W61145  16.728   2.401   8.299 -0.0343  0.5110  0.1383
18233W        W61146  21.255  32.249   3.187 -0.0399 -0.0454 -0.0874
18234W        W61147  26.831  32.060   6.295  0.1164 -0.3289 -0.0982
18235W        W61148  20.813   4.993   3.436 -0.0766 -0.1041  0.1314
18236W        W61149  25.629  30.267   3.253  0.0790  0.1646 -0.1318
18237W        W61150  14.486  29.234   1.641  0.0814 -0.0236 -0.1053
18238W        W61151  17.803  25.579   5.413  0.0701  0.3008 -0.4143
18239W        W61152  25.062  32.755   5.805 -0.2026 -0.1087 -0.0800
18240W        W61153  14.936   5.164   8.958 -0.1989 -0.0856 -0.4359
18241W        W61154  12.270  33.717  26.348  0.3996  0.2198  0.0884
18242W        W61155  28.538  25.458   4.314  0.1669  0.2276  0.0406
18243W        W61156  15.482  33.958   6.671  0.1472  0.0111  0.0526
18244W        W61157  17.664  30.773   5.525 -0.0304  0.2793 -0.1149
18245W        W61158  15.714  18.187   7.341 -0.3582  0.0181  0.1530
18246W        W61159  19.409   5.326   6.523  0.0196  0.2422 -0.0853
18247W        W61160  10.218  25.940  27.956  0.2355  0.1856  0.2888
18248W        W61161  10.488   4.959  11.280  0.1198  0.0329 -0.0491
18249W        W61162  30.228  29.193   2.787  0.1779 -0.0612  0.2294
18250W        W61163  10.411   3.104   5.055 -0.0210  0.2533 -0.2549
18251W        W61164  12.153  29.181  11.033 -0.1227 -0.0293 -0.0652
18252W        W61165  25.345  31.817   9.249 -0.0377  0.1251  0.2213
18253W        W61166   0.621  24.147   1.553 -0.0505 -0.1168 -0.0304
18254W        W61167  22.316  32.323  28.725 -0.2489 -0.1100  0.1783
18255W        W61168  22.319  27.233   6.624  0.0706 -0.1576  0.0349
18256W        W61169  10.219  30.074  10.360 -0.0018  0.2521  0.1893
18257W        W61170  25.718  19.953   7.887 -0.2693  0.1144 -0.2572
18258W        W61171  18.763   8.669   5.948  0.1979  0.3691 -0.0173
18259W        W61172  15.546  21.179  21.906  0.0529  0.2570  0.0908
18260W        W61173  17.783  20.598   3.198 -0.0074 -0.2680 -0.0509
18261W        W61174  19.394   0.938  10.227  0.0785  0.0783 -0.0015
18262W        W61175  24.399   1.271   8.439 -0.1274 -0.0894 -0.1961
18263W        W61176  19.095  23.165  29.151 -0.0645 -0.1297  0.1544
18264W        W61177  11.877   8.392   4.668 -0.0125 -0.1244  0.2147
18265W        W61178  18.013  27.953   7.122  0.1052 -0.0813 -0.2008
18266W        W61179  23.514  23.413   7.442 -0.0330  0.0458  0.0484
18267W        W61180  15.181   7.360   7.399 -0.0917  0.2447  0.0010
18268W        W61181  19.617  33.252   3.855  0.0199 -0.2441  0.0629
18269W        W61182   7.466   6.086  12.568  0.1638 -0.0540  0.0373
18270W        W61183  18.219  27.995   4.438  0.1585 -0.0079  0.0649
18271W        W61184   8.742  28.961  11.416  0.1938  0.2536  0.5249
18272W        W61185  25.616  34.399   5.511 -0.1061  0.0293 -0.0595
18273W        W61186  13.066   3.472   5.309 -0.0861 -0.1355 -0.0037
18274W        W61187  15.932  33.701   5.719  0.3124  0.0858 -0.0427
18275W        W61188  14.973  22.598   5.945 -0.0220 -0.3131  0.3626
18276W        W61189  19.610  32.446   9.483  0.0905 -0.1531 -0.2222
18277W        W61190  28.895  24.570   6.524  0.1162  0.0687 -0.1367
18278W        W61191  20.606  27.605   8.886 -0.1464 -0.2347  0.1031
18279W        W61192  20.666  29.296   7.619  0.2112  0.0278 -0.0691
18280W        W61193  16.373  27.500   9.271 -0.1050 -0.2386 -0.2545
18281W        W61194  18.205  30.006   3.138 -0.0673  0.3443 -0.1170
18282W        W61195  20.156  29.586   3.062 -0.1542 -0.1054  0.1746
18283W        W61196  18.331  25.638   3.644  0.0628  0.3988 -0.1447
18284W        W61197  29.342  30.001   0.166  0.0489  0.1689  0.1905
18285W        W61198  25.248   2.907   4.916 -0.2481  0.0099  0.0817
18286W        W61199  21.154  34.093   1.853 -0.1002  0.0983 -0.2498
18287W        W61200  16.209  31.556   7.544  0.1418 -0.2683 -0.1539
18288W        W61201  10.577  11.656   5.468 -0.0292 -0.2959  0.0937
18289W        W61202  25.781  33.391   3.788 -0.3632 -0.0864  0.1505
18290W        W61203  20.633   0.055   9.948  0.2614  0.0374  0.0740
18291W        W61204  31.826  19.148   4.483 -0.1083  0.0517 -0.2735
18292W        W61205  16.997  25.494   2.592  0.2051  0.0145  0.3623
18293W        W61206  12.628  23.787  26.323 -0.0035  0.4011  0.3336
18294W        W61207  20.437  31.143   2.204 -0.0643  0.0378  0.0452
18295W        W61208  12.745  30.959   4.854 -0.3009  0.1967 -0.0514
18296W        W61209  18.442  29.697   9.212 -0.0188 -0.0721 -0.3711
18297W        W61210   6.860  32.149   3.656  0.1793  0.0039  0.2185
18298W        W61211  10.836   0.065   7.548 -0.2405 -0.1665  0.1374
18299W        W61212  18.128  25.085   4.325 -0.0177 -0.1844 -0.0615
18300W        W61213  16.878   0.318  10.246  0.3691  0.1234  0.0440
18301W        W61214  13.449   0.635   9.147 -0.2345 -0.0507  0.2523
18302W        W61215  19.494  30.952   5.314  0.1166  0.0446 -0.0387
18303W        W61216  15.582  31.209   5.357  0.0096 -0.3250  0.0063
18304W        W61217  14.650  30.778  10.039 -0.3042 -0.2763 -0.0467
18305W        W61218  24.510   1.213  10.719  0.1952 -0.1552 -0.0982
18306W        W61219  17.470  24.210  27.252 -0.3054  0.2971  0.2006
18307W        W61220  29.094  27.420   1.823 -0.2344 -0.5310 -0.2622
18308W        W61221  20.755   4.674   7.033 -0.2080  0.1882 -0.2775
18309W        W61222  19.201  30.861   8.427 -0.1067  0.2278 -0.2133
18310W        W61223  21.616   3.217   9.050  0.1846  0.4338 -0.1713
18311W        W61224  14.502  33.276   8.221  0.1814 -0.0464 -0.0936
18312W        W61225  29.200  27.630   9.550 -0.0494 -0.2029  0.2832
18313W        W61226  11.014  33.241   1.864 -0.1363  0.2207 -0.0789
18314W        W61227  22.103  31.457   6.285  0.2087 -0.3316 -0.2227
18315W        W61228  18.802  27.260  28.977 -0.2612  0.0252 -0.0105
18316W        W61229  18.353  29.332   9.637  0.1884 -0.1482  0.0183
18317W        W61230  24.065  33.234   0.501  0.3157  0.0430  0.0393
18318W        W61231  21.225  14.562   8.123  0.0256 -0.0185  0.1575
18319W        W61232  20.385  30.663  29.273 -0.0829  0.0511  0.0559
18320W        W61233  13.056   5.797  29.033  0.1670  0.2835  0.0939
18321W        W61234  26.586  27.531  28.401  0.1806  0.3223  0.3573
18322W        W61235  25.944  29.351   5.623  0.2329 -0.0391  0.3072
18323W        W61236  16.350   0.353   4.157  0.0823  0.1794 -0.1837
18324W        W61237  14.488  22.213   8.660  0.3976  0.0606  0.2813
18325W        W61238  31.226  29.054   0.869 -0.1581  0.2498 -0.0809
18326W        W61239  25.054  25.212   4.808 -0.1482 -0.2135  0.1953
18327W        W61240  23.479   1.737   2.955  0.2978 -0.2479 -0.1412
18328W        W61241  13.079  26.979   6.721  0.0373  0.2949  0.0529
18329W        W61242  15.087  31.933   9.265  0.1697 -0.1672 -0.1998
18330W        W61243  25.244  31.239   4.524 -0.2136 -0.1199  0.1461
18331W        W61244  13.528  27.352   8.337  0.0977  0.0900 -0.2543
18332W        W61245  11.381  28.721  10.079 -0.2337 -0.0093  0.0284
18333W        W61246  23.256  33.022   1.715  0.0096  0.1555  0.2424
18334W        W61247   7.662  33.660   6.763 -0.1312 -0.1964 -0.0607
18335W        W61248   7.152  29.586   8.777 -0.3032 -0.0034  0.2495
18336W        W61249  32.474  26.798   9.620  0.0124 -0.1073 -0.0726
18337W        W61250  12.674  32.496  27.547 -0.1996 -0.0386 -0.1233
18338W        W61251  10.611  33.063  10.062 -0.0198  0.0059  0.4032
18339W        W61252  18.318  17.017   0.555 -0.1243 -0.2132 -0.0975
18340W        W61253  14.982   0.857   7.758 -0.1268  0.1293  0.1113
18341W        W61254  33.904   4.114   6.031 -0.4538 -0.1681 -0.1149
18342W        W61255  18.480  33.128   9.794 -0.1212  0.0105 -0.1601
18343W        W61256  29.465  31.405   7.185  0.0035 -0.0814 -0.1453
18344W        W61257   8.990  31.598   9.438  0.1816  0.0427 -0.0708
18345W        W61258  11.814   0.953  12.427 -0.1851  0.0269 -0.3011
18346W        W61259  15.688  32.148  10.765  0.2393 -0.0902  0.1955
18347W        W61260  20.837  25.791   7.146  0.2083 -0.1319 -0.2511
18348W        W61261  22.208  27.526   4.753 -0.0752  0.0347  0.1822
18349W        W61262  19.085   3.925   7.204 -0.0278  0.2521 -0.0755
18350W        W61263  16.769   3.333   3.505  0.0155  0.1064  0.0861
18351W        W61264   7.224  34.020   8.315 -0.1065 -0.2838 -0.1565
18352W        W61265  23.867   3.960  10.031  0.1015  0.2211  0.1116
18353W        W61266  16.846  27.066   9.676  0.0088  0.1688  0.0385
18354W        W61267  18.906  25.549   8.273  0.0867  0.1150  0.0385
18355W        W61268  10.414   1.288  10.212 -0.0374 -0.0491 -0.1685
18356W        W61269  15.433  16.922   0.755  0.0042 -0.0414  0.0345
18357W        W61270  28.631   7.029   5.593 -0.2626  0.1581  0.0113
18358W        W61271  33.373  12.696  25.012  0.2515  0.2286  0.2679
18359W        W61272  23.646  27.129   7.209 -0.1787 -0.2648  0.4204
18360W        W61273  25.407  25.521   6.831  0.2195  0.0045 -0.0249
18361W        W61274  16.441  22.065   2.629 -0.0579 -0.2055 -0.1895
18362W        W61275   4.269   2.261   7.276 -0.3162  0.1134  0.1346
18363W        W61276  19.758   3.831   7.825  0.0258 -0.2028  0.0139
18364W        W61277  21.850  26.279   5.852  0.0733 -0.2053  0.1251
18365W        W61278  10.728   4.092   9.497  0.0913 -0.1537  0.2443
18366W        W61279  17.385  20.793   6.965  0.0472  0.3376  0.0342
18367W        W61280   4.988   5.786   2.781  0.0141 -0.1089 -0.0658
18368W        W61281  23.352  32.339   1.185 -0.2061 -0.1402 -0.0267
18369W        W61282  17.568  22.773   1.866  0.0660  0.1684  0.1004
18370W        W61283  31.271   1.633   4.371  0.2128  0.0880  0.2392
18371W        W61284  26.513  24.029  25.675 -0.2354 -0.1035  0.1043
18372W        W61285  16.866  21.294  29.671 -0.1333 -0.2923  0.1603
18373W        W61286  30.509   4.846   8.267 -0.0799  0.1125  0.0067
18374W        W61287   1.869  32.681   4.769 -0.0164  0.0973 -0.2015
18375W        W61288  14.257   0.738   9.281  0.2461  0.1068 -0.2275
18376W        W61289  21.582   1.626   7.298  0.2091  0.0953 -0.2827
18377W        W61290  33.283  33.504   8.140 -0.2044 -0.1452 -0.1473
18378W        W61291  19.277  25.061  29.331  0.2928 -0.1197  0.1410
18379W        W61292  22.281  32.755   4.488  0.0143 -0.1113 -0.0673
18380W        W61293  16.562  32.789   7.183 -0.2985 -0.1207 -0.0811
18381W        W61294  13.423  26.869   7.092  0.1252  0.0299 -0.2158
18382W        W61295  10.884  30.655   3.357 -0.1312 -0.2152 -0.0116
18383W        W61296  15.199  31.890   3.166 -0.0927  0.1961  0.1026
18384W        W61297  20.333   5.312   6.464 -0.0570  0.1044  0.0620
18385W        W61298  24.791  29.670   5.490 -0.1660  0.2525 -0.1255
18386W        W61299  27.021  22.501   2.498  0.4057 -0.3619  0.0015
18387W        W61300  18.112   1.846   5.192  0.0747 -0.0212 -0.1224
18388W        W61301  18.739  33.253   6.265 -0.2809 -0.1732 -0.0408
18389W        W61302  20.857  31.882  10.238  0.1781  0.0724 -0.0633
18390W        W61303  20.043   1.563   8.176 -0.1941  0.0653  0.5523
18391W        W61304  26.490  34.325   3.008 -0.0738 -0.2318 -0.1481
18392W        W61305  25.332   2.109   5.420 -0.1384 -0.1217  0.1399
18393W        W61306  15.457  26.691   0.267  0.0011 -0.0038  0.1967
18394W        W61307  14.945   1.322   4.299  0.0798 -0.2477 -0.1052
18395W        W61308  16.389  34.280   4.100 -0.0608 -0.0047 -0.2469
18396W        W61309   3.452  26.680   6.934 -0.1000  0.0459  0.0140
18397W        W61310  20.329  34.033   5.187  0.1595  0.1532 -0.2961
18398W        W61311  12.583  24.159   7.188 -0.0601 -0.0721 -0.0232
18399W        W61312  23.310  30.164   4.296  0.1945 -0.1411 -0.0733
18400W        W61313  11.032   3.275   8.801  0.1422 -0.3499 -0.1427
18401W        W61314  25.589   1.457   8.855  0.2440 -0.0635 -0.0183
18402W        W61315  15.189  27.286   0.158  0.0462  0.3940 -0.0767
18403W        W61316  12.623  13.846   9.113 -0.0642  0.0246  0.0411
18404W        W61317  11.961  22.637   8.794  0.1167 -0.2031  0.0659
18405W        W61318  25.056  29.488   6.995 -0.1568  0.1882  0.0390
18406W        W61319  25.718  30.760   9.592 -0.0850 -0.2732 -0.1017
18407W        W61320   9.503   1.366   6.134 -0.1999 -0.0047  0.3178
18408W        W61321   9.366   2.786  11.613 -0.3286  0.0163  0.1185
18409W        W61322  14.382  24.599   0.891  0.0410  0.0464 -0.3534
18410W        W61323  19.569  34.394  10.306 -0.0399 -0.0754  0.1175
18411W        W61324  12.113   4.702   3.882 -0.1292 -0.2723  0.0633
18412W        W61325  24.102   1.682   5.021  0.1255 -0.1046  0.3170
18413W        W61326  11.791  34.255  12.733 -0.0126 -0.1717  0.1573
18414W        W61327  28.101  30.249   4.331 -0.0547  0.1618 -0.1365
18415W        W61328  26.783   6.125   5.920  0.0499 -0.3577 -0.0099
18416W        W61329  13.025   4.707   3.324  0.1765 -0.1942  0.0026
18417W        W61330  23.263   1.949   9.543  0.1945 -0.0816 -0.1427
18418W        W61331  10.060  28.349   1.799  0.2516  0.2795 -0.2359
18419W        W61332  26.254  26.718   7.010  0.1046 -0.0638  0.0999
18420W        W61333  29.452  29.991   1.991 -0.1634  0.0604 -0.1286
18421W        W61334  16.481   0.730  10.191 -0.0144 -0.2050 -0.1155
18422W        W61335  32.574  26.031   9.088  0.1993  0.2075 -0.4019
18423W        W61336  19.234   0.083   7.226 -0.0917 -0.2378 -0.0679
18424W        W61337  22.861  19.100   6.518 -0.0456  0.1224 -0.1760
18425W        W61338  25.530  32.251   9.248  0.0258 -0.2065  0.3427
18426W        W61339  17.484  25.587   3.098 -0.1760 -0.0131 -0.0581
18427W        W61340  19.800  30.266   9.882 -0.1347 -0.1772 -0.0196
18428W        W61341  10.893  30.342  28.953 -0.3033 -0.1086 -0.1131
18429W        W61342  15.570   0.217   5.218  0.0264 -0.1718 -0.2644
18430W        W61343  23.563  33.811   4.076 -0.1402  0.2693 -0.3831
18431W        W61344  27.333  25.845   2.728 -0.2534 -0.0103  0.2004
18432W        W61345  19.419  27.646   5.648  0.0358 -0.3609 -0.3211
18433W        W61346  11.736  32.841  10.002  0.0520  0.1141 -0.0326
18434W        W61347  21.557   5.512   6.181 -0.1072  0.1350 -0.2922
18435W        W61348  14.549  13.884   7.714 -0.1718  0.1068 -0.2465
18436W        W61349  13.674  33.354   6.475  0.0174  0.1927 -0.3567
18437W        W61350  31.583  29.241   7.341 -0.2234  0.1169  0.2558
18438W        W61351  20.888  29.465   6.299  0.0674 -0.3627 -0.0538
18439W        W61352  25.887  28.968   4.495  0.2855  0.1181  0.1379
18440W        W61353  20.417   3.398   4.631 -0.2602 -0.2161  0.0911
18441W        W61354  29.406  32.932   3.652  0.0090 -0.0528 -0.2314
18442W        W61355  11.257  30.174   9.570 -0.2314  0.0726  0.1482
18443W        W61356  20.696  31.523   7.727 -0.0871 -0.2030 -0.2228
18444W        W61357  24.504  31.742   3.782  0.1161 -0.1140  0.1467
18445W        W61358  25.803   5.325  24.486  0.2215 -0.0212 -0.1662
18446W        W61359  16.842   4.033   6.880  0.0816 -0.0393  0.0236
18447W        W61360  22.354  30.430   5.890 -0.2443 -0.0642  0.2506
18448W        W61361  19.256  29.219   8.104 -0.3116  0.1909  0.0648
18449W        W61362  25.060  33.877  28.239 -0.2401 -0.0713 -0.0471
18450W        W61363  17.504  34.417   6.249 -0.0875  0.3186 -0.0867
18451W        W61364  12.856  28.702   7.630 -0.0726  0.1116 -0.0604
18452W        W61365  22.408   3.751   9.040 -0.0589 -0.0126  0.2113
18453W        W61366  21.377  29.427   3.523  0.0934 -0.0078 -0.0799
18454W        W61367  12.251  33.866   0.492  0.2478 -0.2816 -0.0703
18455W        W61368  20.296  32.345   6.547 -0.0361 -0.1037 -0.1208
18456W        W61369  23.935  29.148   6.289  0.3174 -0.0302  0.2459
18457W        W61370  16.206  10.078   5.204  0.2951  0.1159  0.2827
18458W        W61371  15.940   2.488  11.227  0.0674 -0.0667 -0.1866
18459W        W61372  18.782  30.595   4.579 -0.1588 -0.3101  0.2283
18460W        W61373  21.203  13.606  28.263 -0.1026  0.0841 -0.0402
18461W        W61374  12.006   2.012  10.411 -0.4690 -0.1359 -0.0309
18462W        W61375  25.051   0.251  28.732 -0.0416 -0.3815  0.0736
18463W        W61376  13.847   5.683   7.000  0.5218 -0.0116  0.0960
18464W        W61377  10.357  31.113  24.533 -0.1199  0.2004  0.1795
18465W        W61378   9.063  32.169  28.542  0.0534 -0.4026 -0.2355
18466W        W61379   8.183  27.991   8.094 -0.3717  0.0673  0.1326
18467W        W61380  32.346   5.306   3.633  0.2311  0.3936  0.2518
18468W        W61381   7.786  30.977   0.957  0.1930  0.1378 -0.1331
18469W        W61382  24.487  18.870   5.713  0.1592 -0.1432  0.2143
18470W        W61383  19.634  20.188   1.833  0.0030  0.2328  0.2850
18471W        W61384   0.230   8.731  19.119 -0.3613 -0.0160 -0.1632
18472W        W61385  20.782  24.928   1.282  0.1075 -0.0191  0.1271
18473W        W61386  18.238   3.448   9.808 -0.2455 -0.2047  0.1423
18474W        W61387  15.980  23.252   7.063 -0.0526  0.0773 -0.0743
18475W        W61388  33.700   0.458  10.852 -0.3204  0.0384 -0.0644
18476W        W61389  12.464  32.329   8.957 -0.1268  0.0575  0.0201
18477W        W61390  21.558   4.995   0.609  0.0320  0.3360  0.1200
18478W        W61391  22.997   3.640  28.064  0.0054  0.0666 -0.0778
18479W        W61392  31.239  31.883   5.143 -0.1670 -0.2280  0.2508
18480W        W61393  19.729   0.811   9.289 -0.3459 -0.2377 -0.1049
18481W        W61394  12.403  30.911  11.463  0.0186 -0.1124  0.1836
18482W        W61395  21.040   2.890   9.838 -0.1345 -0.0474 -0.0609
18483W        W61396  28.632   7.853   8.496 -0.1083 -0.0387 -0.0950
18484W        W61397  16.349  21.141  27.085  0.1160  0.0756 -0.2364
18485W        W61398  27.277   6.740   7.591  0.2242 -0.1160  0.3013
18486W        W61399  26.726  34.123   9.312  0.0796  0.0539  0.5315
18487W        W61400  23.993  25.370  21.515  0.0124  0.2337  0.0644
18488W        W61401  27.737   5.015   3.322  0.1158 -0.2431  0.0043
18489W        W61402  16.618  29.344   3.839  0.2211 -0.1323  0.0693
18490W        W61403  13.860  33.028  10.636  0.4031  0.1113 -0.1644
18491W        W61404  12.003  32.780  28.261  0.0536 -0.2855  0.0458
18492W        W61405  17.649   4.159   8.022 -0.1108 -0.2025 -0.0847
18493W        W61406  20.493   4.830   3.104 -0.0884 -0.0451  0.1493
18494W        W61407  23.591   3.604   9.643 -0.0187 -0.1425  0.0765
18495W        W61408  24.036  32.011   9.257  0.1799 -0.0848  0.3067
18496W        W61409  25.445  11.581   7.461 -0.1373  0.0890 -0.4512
18497W        W61410   6.561  29.938   3.654  0.1277 -0.1316  0.2528
18498W        W61411  30.127  25.254   7.003 -0.2131 -0.1263  0.0514
18499W        W61412  20.296   1.360   9.983  0.2211 -0.1160 -0.0613
18500W        W61413  30.395   0.059   6.310  0.1587  0.1352  0.2804
18501W        W61414  17.654  31.266  29.216 -0.1377 -0.0150  0.2444
18502W        W61415  11.586  29.643   8.917  0.2308 -0.1900 -0.0783
18503W        W61416  24.715  25.351   5.622  0.0707 -0.1984  0.0893
18504W        W61417  26.947  20.975   7.420  0.1264 -0.2994 -0.1533
18505W        W61418  17.562  31.690   1.997  0.3130  0.2833 -0.0254
18506W        W61419  22.058  21.976   4.504 -0.0159 -0.1246 -0.1244
18507W        W61420  16.486  29.677   9.970  0.1582  0.4746 -0.1319
18508W        W61421  15.535  31.523   3.941  0.0558  0.1049  0.0388
18509W        W61422  10.692  31.753   6.523 -0.3696 -0.1163 -0.2073
18510W        W61423  18.929  29.551   1.655 -0.0080  0.1359 -0.0427
18511W        W61424  19.860  21.246   2.159  0.0222  0.1781 -0.1430
18512W        W61425  23.870   1.350   1.521 -0.1455 -0.1761  0.2397
18513W        W61426  34.257  31.873  29.211  0.1389 -0.2263 -0.1264
18514W        W61427  12.877   7.791   5.629 -0.1666  0.3671 -0.4541
18515W        W61428  15.452  31.135   9.189 -0.0867  0.3808 -0.0829
18516W        W61429  28.313  26.056   1.423 -0.1333 -0.2570 -0.0016
18517W        W61430  29.739   3.601  28.471  0.0162  0.1253 -0.1492
18518W        W61431  19.919  32.748  27.001 -0.1871  0.1599  0.1138
18519W        W61432  20.283  31.878   7.637 -0.1844 -0.0498  0.2025
18520W        W61433  15.321  31.484   8.814  0.2608  0.3668  0.2718
18521W        W61434  31.127  32.393   1.769 -0.0573 -0.1110  0.4153
18522W        W61435  14.475  26.415   4.834 -0.1670 -0.0013  0.0396
18523W        W61436   8.697  32.549  27.577  0.1981 -0.0113  0.0219
18524W        W61437  13.628   1.724   1.373 -0.0302 -0.3822 -0.2716
18525W        W61438  28.260  29.936   5.624  0.1000  0.2802 -0.1991
18526W        W61439  10.267   3.473   2.424 -0.3569  0.2524  0.0786
18527W        W61440  27.848  31.668   1.414  0.1675  0.3516 -0.0473
18528W        W61441  26.834  27.971   6.263 -0.1781 -0.1423 -0.1647
18529W        W61442  11.821   2.059   5.571  0.1363 -0.4544 -0.1843
18530W        W61443  22.330  30.950   1.252 -0.2589  0.2537  0.0676
18531W        W61444  23.187  32.217  21.087  0.2404  0.0443  0.5777
18532W        W61445  20.629  31.078  27.004  0.3552  0.0593  0.0340
18533W        W61446  18.237   0.362  25.459  0.2244  0.0296  0.0839
18534W        W61447  26.850   5.338  29.524  0.2727  0.1293 -0.1271
18535W        W61448  14.222   3.305  28.555 -0.1183  0.1061 -0.0921
18536W        W61449  24.847  31.621  27.341  0.1882  0.0693  0.2032
18537W        W61450  18.752  33.627  29.114  0.0499 -0.2825  0.1366
18538W        W61451  11.960   1.376   3.885  0.1356 -0.1198 -0.1172
18539W        W61452  19.881   3.918   3.021 -0.0093 -0.0588 -0.4722
18540W        W61453  29.657   3.034   1.334 -0.0251  0.0066  0.0599
18541W        W61454  17.514  32.398  26.456  0.3074 -0.0649  0.1230
18542W        W61455   8.789   4.875  27.777 -0.1332 -0.3233  0.0153
18543W        W61456  26.053  26.302   2.988 -0.1162  0.1961 -0.0725
18544W        W61457  14.702  27.702   3.624  0.0849  0.0055 -0.0769
18545W        W61458  28.933  29.754  20.636  0.0328  0.1422  0.0642
18546W        W61459  24.069  33.986  24.508  0.3962  0.2905 -0.0382
18547W        W61460  19.284   2.627  27.030 -0.1343  0.0339 -0.0416
18548W        W61461  18.004   1.744  23.978 -0.0318  0.3882  0.0580
18549W        W61462  32.221   9.127   1.046  0.0761  0.0936 -0.1856
18550W        W61463   8.970   4.836   5.516 -0.0542 -0.0040 -0.1015
18551W        W61464  30.392   6.412  24.950 -0.0469  0.0270 -0.0325
18552W        W61465  21.271  33.060   2.322 -0.1857  0.4350  0.2518
18553W        W61466  29.526  27.232   3.599  0.1489  0.1365  0.1826
18554W        W61467  26.760  25.407   0.893 -0.1564  0.2461  0.2689
18555W        W61468  29.665  33.960   9.674  0.3250 -0.2427 -0.3460
18556W        W61469  22.343  33.332  28.467 -0.0021 -0.1434  0.2861
18557W        W61470  19.585   1.877  23.252 -0.1288  0.2499 -0.1078
18558W        W61471  15.391   1.754   4.089 -0.0092 -0.0703  0.0768
18559W        W61472  32.718  30.844  27.716  0.0551  0.1031  0.2348
18560W        W61473  20.104  31.674  29.372  0.4253  0.1571  0.2178
18561W        W61474  22.086   5.579   7.160  0.2552 -0.1049  0.1293
18562W        W61475  19.651   2.900   0.263 -0.1360  0.1079  0.0277
18563W        W61476  20.004   4.048   1.253 -0.0916 -0.3761  0.0430
18564W        W61477  19.036  33.397  29.584  0.4207  0.1778  0.1168
18565W        W61478  23.630  11.116   3.967 -0.1878  0.0661  0.2171
18566W        W61479  28.403   6.083   6.727  0.0882  0.0050 -0.0237
18567W        W61480  19.132  23.217  29.738  0.1468 -0.1250  0.0530
18568W        W61481  20.249  21.209   1.173  0.0290  0.0957 -0.0395
18569W        W61482  23.072  29.859   2.424 -0.3740 -0.0248 -0.1542
18570W        W61483  21.069  30.980  27.885  0.0004  0.1475 -0.0679
18571W        W61484  21.401   7.422   5.917 -0.0133  0.0833  0.2237
18572W        W61485  14.419   7.742   0.412 -0.0267 -0.3773 -0.3754
18573W        W61486  14.503  31.141  28.347  0.0021  0.5289 -0.1526
18574W        W61487  16.567   1.236   7.060  0.1550 -0.0962  0.0279
18575W        W61488  30.801  34.220  24.908 -0.0658  0.1788 -0.2813
18576W        W61489  12.816   1.168  25.850 -0.0413 -0.2246 -0.3237
18577W        W61490  15.593   4.392   9.721 -0.0327  0.1889  0.1598
18578W        W61491  26.184   5.273   5.470  0.3765 -0.5078  0.2669
18579W        W61492  24.171   8.112  17.164  0.1298  0.1210  0.2115
18580W        W61493  11.654  16.539   2.099 -0.2073 -0.0961 -0.3004
18581W        W61494  22.608   0.470   4.188 -0.0820 -0.0232 -0.3336
18582W        W61495  19.046  17.280   0.014 -0.0837 -0.0143  0.0023
18583W        W61496  25.128  23.062   1.137  0.2290 -0.2380  0.2484
18584W        W61497  13.777   2.209   6.119 -0.1785 -0.0982  0.0887
18585W        W61498  14.929  24.105   2.003 -0.1412 -0.2415  0.0742
18586W        W61499  14.081  31.302   6.298  0.0882 -0.0782  0.2528
18587W        W61500  19.714  32.748  24.494  0.4016  0.1160 -0.0360
18588W        W61501  21.383  27.217  26.822 -0.1585 -0.1231  0.1334
18589W        W61502  26.407  10.999   5.347  0.3309 -0.0868  0.0984
18590W        W61503  24.231  30.650  29.441  0.0597 -0.0624  0.2189
18591W        W61504  24.366   0.999   0.369 -0.2568 -0.0400 -0.2919
18592W        W61505  28.226  27.728   1.938  0.5158  0.2120 -0.1187
18593W        W61506  23.401  29.008   4.547  0.0269 -0.0294 -0.0722
18594W        W61507  20.846  27.473  28.427  0.1052  0.0231 -0.0327
18595W        W61508  12.299   1.992   1.865 -0.2579 -0.0317  0.1644
18596W        W61509  22.800  25.675  24.844 -0.0586  0.0078  0.2789
18597W        W61510  16.240  32.514   5.344  0.0312 -0.3590  0.0733
18598W        W61511  15.713   2.931   2.477 -0.0442 -0.1573 -0.1990
18599W        W61512  25.198  31.313  27.511 -0.0731  0.0505  0.0566
18600W        W61513  20.618   1.080   4.115  0.2672  0.0103  0.0887
18601W        W61514  11.852  29.911   4.883  0.0519 -0.1504 -0.3117
18602W        W61515  15.920   3.933   6.802 -0.2752 -0.0831 -0.1355
18603W        W61516  13.183   3.374   4.402  0.0452 -0.0303  0.1596
18604W        W61517  17.866  31.446   1.720  0.2784 -0.0631  0.0419
18605W        W61518  17.373  22.654  26.701 -0.2331 -0.0644 -0.0606
18606W        W61519  16.553  31.917  29.133 -0.3550 -0.0259 -0.2207
18607W        W61520  21.614   1.299   2.626  0.1862  0.1182  0.0363
18608W        W61521  18.180  26.835  27.887 -0.0933  0.0227 -0.1039
18609W        W61522  25.081  31.038   1.243 -0.0692  0.1990 -0.0467
18610W        W61523  27.597  30.377   0.721 -0.1116 -0.3845  0.0718
18611W        W61524  25.730  28.897   5.721 -0.1036 -0.2192 -0.6760
18612W        W61525  26.111   4.099   6.651 -0.0168  0.1477 -0.1300
18613W        W61526  19.673   5.274   8.526  0.2076 -0.0541  0.1595
18614W        W61527  15.142   8.473   7.956  0.0485  0.0057  0.1043
18615W        W61528   8.908  31.572   2.101 -0.2310 -0.0362 -0.3200
18616W        W61529   7.446  33.038   2.990 -0.1813 -0.1107 -0.1118
18617W        W61530  20.732  11.311  22.946  0.1338 -0.0179 -0.0502
18618W        W61531  13.060  33.546   1.511 -0.1589 -0.1940 -0.1686
18619W        W61532  24.154  32.763   7.572 -0.0042 -0.0260  0.0824
18620W        W61533  25.184   2.244   8.348 -0.3353 -0.2248  0.0168
18621W        W61534  24.422  27.604  25.858 -0.1558 -0.4297 -0.1164
18622W        W61535  29.346   0.767   7.970 -0.2731 -0.2756 -0.4051
18623W        W61536  22.954  21.848   2.599  0.2693  0.1053 -0.2766
18624W        W61537  21.244  18.499   3.454  0.0312 -0.0926 -0.0091
18625W        W61538  20.474  26.773  28.972 -0.0168  0.1079  0.1053
18626W        W61539  12.638  33.453   2.996  0.0535 -0.3829  0.0130
18627W        W61540  18.879   1.502  24.457 -0.2088  0.0064 -0.0133
18628W        W61541  16.270  33.529   2.749  0.2161 -0.1469  0.0678
18629W        W61542  22.206   5.343  29.583  0.0092  0.3794 -0.4263
18630W        W61543  10.986  31.344   5.300 -0.3278  0.1430  0.1932
18631W        W61544  22.083  31.510   8.222  0.3532 -0.0315 -0.2495
18632W        W61545  27.557  31.984   4.274  0.0039  0.0085 -0.1247
18633W        W61546  20.771  29.365  26.919  0.0380 -0.1406  0.1616
18634W        W61547   2.629   0.025   2.502 -0.1373 -0.2280 -0.0710
18635W        W61548  25.240  27.366   3.157 -0.0392 -0.1428  0.2289
18636W        W61549  26.938  26.459   7.436  0.0653  0.2401  0.3962
18637W        W61550  22.990  29.623   1.000  0.0189 -0.1751 -0.3219
18638W        W61551  21.958  33.048   0.843 -0.3697 -0.1190  0.1244
18639W        W61552  20.172  13.767   1.219  0.1591 -0.0482  0.0647
18640W        W61553  19.168   5.645  27.380 -0.0822  0.0108  0.0570
18641W        W61554  13.814  26.745   4.654 -0.2440  0.0363  0.2642
18642W        W61555  15.641   6.021  28.132  0.0850  0.0372 -0.1509
18643W        W61556  11.769   3.079   0.282  0.0315  0.0139  0.2102
18644W        W61557   2.405   3.446   1.379  0.0380  0.1356  0.0016
18645W        W61558  24.323  14.975  25.628  0.1162 -0.2454  0.4918
18646W        W61559  18.886   3.186   5.285  0.2402 -0.3635  0.2225
18647W        W61560  22.062  12.141   7.188 -0.2108 -0.1565 -0.0987
18648W        W61561  24.444   1.803  25.116 -0.0806 -0.0837 -0.0013
18649W        W61562  19.038   1.214  21.993  0.1435 -0.1228 -0.0463
18650W        W61563  16.813  33.365   9.413 -0.1596  0.1143 -0.0318
18651W        W61564  16.200  33.462  29.168  0.0113  0.0582 -0.1727
18652W        W61565  12.208  25.705   0.410  0.0908  0.0422 -0.2072
18653W        W61566  12.042  26.367   3.358  0.2098 -0.0792 -0.1314
18654W        W61567  23.651  33.197   3.075 -0.0229  0.2119  0.1364
18655W        W61568  22.041   3.590   0.472 -0.0404  0.1042 -0.0026
18656W        W61569  30.966   7.785  28.324  0.1154  0.3062  0.0024
18657W        W61570  21.972  27.953   5.389 -0.1983 -0.3275 -0.3397
18658W        W61571   9.177  31.376   1.178  0.0676  0.0103  0.1023
18659W        W61572  23.478  30.424   9.111  0.0370  0.1354 -0.0340
18660W        W61573  23.627  32.101   3.563 -0.0767 -0.1327 -0.1996
18661W        W61574  17.572  29.314   1.302 -0.0789 -0.4720  0.2768
18662W        W61575  23.467   1.296   5.437  0.0240 -0.4411 -0.0564
18663W        W61576  20.061  11.040   3.123 -0.2629 -0.0078 -0.0042
18664W        W61577  16.844   0.260   4.436  0.2412 -0.2348 -0.3340
18665W        W61578  14.201  30.911   0.408  0.0177  0.0703 -0.0321
18666W        W61579  19.039   3.685   7.620  0.1569  0.1364 -0.2310
18667W        W61580  11.277   4.524  26.353 -0.1223 -0.1299 -0.0287
18668W        W61581  16.016  34.488   2.872  0.1841 -0.0824 -0.0566
18669W        W61582  16.288  25.885  27.060 -0.2494 -0.3555  0.3925
18670W        W61583  14.886  28.718   4.510 -0.0776  0.1009 -0.5034
18671W        W61584  13.067  32.690   4.152 -0.1759  0.0200  0.0149
18672W        W61585  18.375  28.375  26.603  0.1345  0.1672  0.0431
18673W        W61586  20.950   2.731   0.946 -0.0177 -0.1698 -0.1675
18674W        W61587  32.592   5.837   1.131  0.2428 -0.0214  0.0754
18675W        W61588  23.370   2.520   6.288 -0.0558  0.1223  0.0760
18676W        W61589  18.386  24.722  28.512 -0.0522 -0.1615  0.0426
18677W        W61590  23.649  30.460   7.215  0.2033 -0.0582  0.0889
18678W        W61591  24.639   1.276  19.965  0.0831 -0.1991 -0.0215
18679W        W61592  19.643  23.617  26.205 -0.1615 -0.0635 -0.0869
18680W        W61593  25.210   3.631   0.183 -0.3654 -0.0956 -0.1532
18681W        W61594  26.652  30.005  29.335 -0.2530  0.1295 -0.2724
18682W        W61595  14.705   3.089   5.438 -0.0894  0.0833 -0.3359
18683W        W61596  29.794   4.437   6.054  0.2304  0.0350  0.0551
18684W        W61597  22.465  28.561  20.638 -0.1206 -0.1856 -0.0286
18685W        W61598  17.230  30.761   3.939 -0.0130  0.0476  0.0440
18686W        W61599  19.360  23.071   0.553  0.3282  0.3407 -0.0443
18687W        W61600  21.333  34.119  18.220 -0.1280 -0.0050 -0.1243
18688W        W61601  18.958  25.477   1.031  0.1685  0.1547  0.2267
18689W        W61602  16.762  31.456   3.133 -0.2525  0.0933  0.1930
18690W        W61603  26.440   1.237  22.861  0.3641 -0.0146 -0.0207
18691W        W61604  17.526  32.445  28.154 -0.1624 -0.0068  0.0338
18692W        W61605  13.386  26.986   4.652 -0.1316 -0.0439  0.0730
18693W        W61606  28.704   3.132   4.345  0.2584  0.1601  0.1030
18694W        W61607  14.540  28.695  25.704 -0.1178  0.1476  0.1277
18695W        W61608  14.203  26.281  19.547  0.3619  0.0466 -0.1358
18696W        W61609  19.693   3.836  24.710 -0.1503 -0.0354  0.0152
18697W        W61610   0.037  17.620   6.681 -0.0035 -0.0496 -0.0530
18698W        W61611  21.865  31.999   7.322 -0.1801 -0.1122  0.0725
18699W        W61612  14.856  32.539   2.809 -0.0933  0.1961 -0.1936
18700W        W61613  11.410  34.167  11.051 -0.0153  0.1433  0.0842
18701W        W61614  22.629   1.548   1.575  0.0937  0.1943 -0.1706
18702W        W61615  28.527   3.591  10.179  0.0306  0.0490  0.1857
18703W        W61616  15.936  33.442  25.458  0.0818 -0.1015 -0.4119
18704W        W61617  18.232  30.470   1.847 -0.0546  0.1457  0.0866
18705W        W61618  23.881  33.597   4.509 -0.0814  0.2526 -0.1012
18706W        W61619  17.362  32.043  26.150  0.3379 -0.1612 -0.2359
18707W        W61620  31.922  10.334   8.971 -0.0648 -0.2503  0.0111
18708W        W61621  16.113   3.447  17.573  0.3376  0.2780  0.0536
18709W        W61622  28.334  33.336  11.281  0.2251 -0.1865 -0.3845
18710W        W61623  21.572  24.789  29.110  0.1629  0.1727  0.1175
18711W        W61624  24.240  15.588  28.840 -0.2037  0.2144  0.0431
18712W        W61625  19.944   3.597   8.618  0.2354  0.0385  0.0371
18713W        W61626  19.939   4.373   0.121  0.0380 -0.2553  0.1467
18714W        W61627  23.370  28.789   0.954 -0.0422  0.1640 -0.1839
18715W        W61628  10.415   5.123   5.664  0.1549 -0.2460  0.0258
18716W        W61629  15.343  24.314   1.071 -0.1745 -0.1739 -0.1079
18717W        W61630  27.421  32.454   2.314 -0.0746 -0.0220 -0.0361
18718W        W61631  31.556  34.128   0.373  0.0343  0.0947 -0.3642
18719W        W61632  20.673   3.749   8.247 -0.2127 -0.1545  0.1318
18720W        W61633  19.525   3.535  26.048 -0.2415  0.2772  0.2681
18721W        W61634  24.171   2.423   8.345  0.0375  0.0997  0.1071
18722W        W61635  25.368   4.732   2.894  0.0238  0.2742 -0.0598
18723W        W61636  25.652  29.022  26.259  0.0268 -0.2522  0.0703
18724W        W61637  14.977   1.471  28.650  0.4456 -0.0895  0.3418
18725W        W61638  15.460  27.346   1.601  0.2416 -0.4463 -0.2161
18726W        W61639  32.782   1.043   0.218  0.2028 -0.2879  0.2763
18727W        W61640  17.986   8.642  28.132 -0.1072 -0.0470 -0.1633
18728W        W61641  28.743   4.105   1.421  0.0753 -0.4021  0.1413
18729W        W61642  19.746   2.503   2.396 -0.0260  0.4574  0.1091
18730W        W61643  29.518  12.694   5.808 -0.0010 -0.3343 -0.0404
18731W        W61644  11.983  32.022   0.127 -0.2838 -0.1322 -0.2341
18732W        W61645  27.063  30.483   5.078 -0.0641  0.1177  0.0857
18733W        W61646  12.406   1.590  11.886 -0.1007 -0.1228 -0.2051
18734W        W61647  21.645  32.339   1.790 -0.0652  0.2203  0.0678
18735W        W61648  24.319   4.215   4.658  0.1062 -0.0143  0.1155
18736W        W61649  16.387  24.361   3.189  0.3370 -0.0234 -0.3669
18737W        W61650  16.380  28.566   7.664  0.0149  0.1168  0.2249
18738W        W61651  23.142  32.211  24.783 -0.0184 -0.1235 -0.1034
18739W        W61652  12.634   3.758   8.115 -0.0029  0.1977  0.1530
18740W        W61653  15.655   7.102   2.995  0.2522  0.0773  0.0009
18741W        W61654   9.930  26.299   6.211 -0.1300  0.1100  0.0286
18742W        W61655  28.925  10.522   7.362  0.0039  0.0215 -0.3074
18743W        W61656  15.407   0.736   5.104  0.2058  0.2209 -0.3695
18744W        W61657  20.237   4.997  10.039 -0.0984 -0.1744 -0.0320
18745W        W61658  27.814  31.933   7.506  0.0649 -0.1404 -0.2694
18746W        W61659  19.353  29.959   8.757 -0.1424  0.1501 -0.1349
18747W        W61660  20.714  33.286   1.616  0.2135  0.1290 -0.0876
18748W        W61661  12.997  24.101   1.972 -0.0176 -0.0405  0.1057
18749W        W61662  17.621  25.069   2.883  0.2779  0.0831  0.2183
18750W        W61663  16.851   3.182   3.048 -0.1094  0.2709 -0.2031
18751W        W61664  13.950  32.801   8.979  0.0515  0.0689  0.3144
18752W        W61665  32.939   2.108   3.696 -0.2759  0.1869  0.0126
18753W        W61666   0.170  27.583   6.522  0.0869 -0.3296 -0.4335
18754W        W61667   2.336  30.211  28.736  0.0396 -0.0638  0.1776
18755W        W61668  19.149   4.644   5.262  0.0697  0.2289 -0.1174
18756W        W61669  11.326  31.200   5.855  0.1207 -0.0295  0.0167
18757W        W61670  23.573   1.008   9.101  0.0887 -0.3308 -0.2855
18758W        W61671  25.298  27.476   4.129  0.1706 -0.0289  0.1908
18759W        W61672  28.447   4.559  29.454  0.0155 -0.0611 -0.2189
18760W        W61673  15.962   1.489   4.579 -0.3014  0.3603 -0.3222
18761W        W61674  23.510  23.829   6.223 -0.1198 -0.2306 -0.0159
18762W        W61675  11.988   4.387  23.371 -0.1529 -0.1583 -0.0759
18763W        W61676  29.169  32.609  10.811  0.2423 -0.1633  0.3248
18764W        W61677  14.327  26.269   7.612 -0.3560 -0.1818  0.0874
18765W        W61678  28.478   3.754   8.517 -0.1185  0.1433  0.1701
18766W        W61679  21.101  22.882   2.294  0.2888 -0.1310 -0.0570
18767W        W61680  14.560   1.893   1.433  0.3118  0.0684 -0.1478
18768W        W61681  26.133  28.114   9.229  0.3804 -0.1220  0.2617
18769W        W61682   5.652  22.396   0.966  0.3130 -0.2690 -0.1898
18770W        W61683  22.322   2.528   2.316 -0.0229 -0.0702  0.1172
18771W        W61684  30.340   4.149  10.118 -0.0541  0.1550  0.2039
18772W        W61685  32.897  27.348   7.847 -0.0461 -0.2254 -0.4158
18773W        W61686  17.269  14.317   8.149  0.0223 -0.1302 -0.2281
18774W        W61687  11.487  33.556   6.376  0.2995 -0.0340  0.1382
18775W        W61688  23.429  34.049   8.457 -0.0297 -0.0850 -0.0804
18776W        W61689   7.476  34.235  11.576 -0.1800 -0.2335  0.0864
18777W        W61690  17.047   4.329   0.873  0.1506  0.2951  0.1431
18778W        W61691  21.848  25.827   3.242 -0.1534  0.0534  0.0399
18779W        W61692  12.439  30.425   1.783 -0.0801  0.0422 -0.2606
18780W        W61693  16.387  25.393  28.447 -0.1328 -0.3022  0.0047
18781W        W61694  27.189   3.065   3.956 -0.0665 -0.1800  0.1196
18782W        W61695   0.109   4.952   5.102 -0.0456 -0.1135 -0.0046
18783W        W61696  18.851   7.829   5.414  0.2930 -0.1827 -0.0557
18784W        W61697  10.630  33.587   5.634 -0.0968  0.1794 -0.0959
18785W        W61698  19.837  29.544   8.082 -0.0400  0.2087 -0.0673
18786W        W61699  24.735  16.656  22.217 -0.1280  0.3100 -0.0330
18787W        W61700  29.967  13.808   1.603 -0.2536 -0.0182 -0.0666
18788W        W61701  25.600   1.590   4.217 -0.0763  0.2168 -0.2624
18789W        W61702  32.378  16.338  22.879 -0.1685  0.0085  0.3352
18790W        W61703  19.299   6.358   7.062 -0.0063  0.0607 -0.1783
18791W        W61704   5.296   6.264  10.484 -0.1302  0.3442  0.0414
18792W        W61705  23.595  26.729   4.251  0.0591 -0.1341  0.1866
18793W        W61706  34.006  26.897   2.018 -0.1486 -0.3245  0.1201
18794W        W61707  30.358  24.640   2.257  0.4405  0.0465  0.2372
18795W        W61708  25.436  26.649   6.371 -0.0811 -0.1066  0.1384
18796W        W61709  21.679  31.107   4.289  0.4074 -0.1067  0.1208
18797W        W61710  29.287   7.679  29.638 -0.2236  0.0360 -0.1375
18798W        W61711  24.058   5.971   6.675  0.0503 -0.1079  0.2066
18799W        W61712  21.066  25.471   4.980  0.1170  0.0713  0.1568
18800W        W61713  27.105  32.070  29.441 -0.2305 -0.0523  0.0003
18801W        W61714  24.548  31.388   7.749  0.1113  0.0744 -0.2715
18802W        W61715  21.094   1.701   0.098  0.2083 -0.1359  0.1332
18803W        W61716  13.248  10.542   9.713 -0.0154 -0.0673 -0.1349
18804W        W61717  13.503   1.960   7.062 -0.0500 -0.4221  0.0730
18805W        W61718  18.561  33.956  24.256  0.2437  0.2462  0.1028
18806W        W61719  19.769   9.168   4.955  0.2039 -0.3056  0.0837
18807W        W61720  18.784  26.037   8.038  0.0449  0.0988 -0.0550
18808W        W61721  30.660   9.258  11.049  0.1931 -0.0893  0.0187
18809W        W61722  25.794  19.377   4.872  0.1446  0.1795  0.0323
18810W        W61723  17.862  33.888   9.647 -0.0847  0.1518  0.1169
18811W        W61724  17.777   5.185   9.477 -0.0006 -0.2954  0.4842
18812W        W61725  13.708   1.371   5.724  0.0906  0.1206 -0.1064
18813W        W61726  17.987  10.504   4.912 -0.2020 -0.2578 -0.1621
18814W        W61727  28.175  30.050  23.533  0.3576 -0.2849 -0.3181
18815W        W61728  30.815  32.548  28.462  0.0581 -0.1165  0.2390
18816W        W61729  11.894   1.154  10.171  0.3172  0.5952  0.0172
18817W        W61730  13.341  33.948   9.428  0.0077 -0.0114 -0.1228
18818W        W61731  15.182  32.466   7.108 -0.0802  0.2627 -0.0261
18819W        W61732   9.579  31.132  28.140 -0.0390  0.1723  0.1869
18820W        W61733  23.340   0.462  29.755  0.1103  0.1756 -0.1583
18821W        W61734  18.180  28.893   0.809  0.0585 -0.4625  0.4178
18822W        W61735  34.308  33.042  28.052  0.1542  0.3353  0.2360
18823W        W61736  24.068  27.690   7.083  0.0804 -0.1327  0.1040
18824W        W61737  33.129  30.784   9.233 -0.2061  0.2609  0.0768
18825W        W61738  20.262   6.228   8.473  0.1200  0.0888  0.2170
18826W        W61739  14.458   2.393   5.019  0.0919  0.0777  0.1434
18827W        W61740  17.428   2.719   4.694  0.1676  0.1369  0.0132
18828W        W61741  12.506  30.309  21.850  0.4413  0.2971  0.1533
18829W        W61742  14.776  10.174   7.452  0.4130  0.1328 -0.1767
18830W        W61743  25.865  29.185   4.052 -0.1362 -0.0385  0.2879
18831W        W61744  33.390  30.549   2.015 -0.0541 -0.2285  0.0445
18832W        W61745  28.628   8.226   6.501  0.0692 -0.1617 -0.1545
18833W        W61746   2.906   0.326  29.722 -0.1515  0.0201  0.0135
18834W        W61747  23.668   8.133  26.391  0.3307 -0.0298  0.0544
18835W        W61748  21.063   1.388   8.210 -0.1812  0.0186 -0.0477
18836W        W61749  16.237  27.466   6.839  0.2569  0.1217 -0.2198
18837W        W61750  19.501  31.294   4.656  0.1577 -0.0553  0.1935
18838W        W61751  18.115  29.205   7.248  0.0909  0.1564 -0.0305
18839W        W61752  23.330  24.158  21.974 -0.2577 -0.0041 -0.1881
18840W        W61753  28.018  32.217   6.056  0.0369  0.2280 -0.2027
18841W        W61754  19.265  27.286   5.223  0.0371  0.0967  0.0347
18842W        W61755  25.993   8.395   9.734 -0.0412 -0.1659 -0.1397
18843W        W61756  17.865  11.688   8.854  0.3382 -0.1565  0.1050
18844W        W61757  23.847   1.001   7.388  0.3247  0.1034  0.0606
18845W        W61758  15.764  30.931   9.486 -0.2255  0.0207  0.0769
18846W        W61759  27.670  29.228   2.824  0.3428  0.0934  0.0867
18847W        W61760  17.532  31.127  25.849  0.1561 -0.0937  0.2340
18848W        W61761  14.741  29.312  27.049 -0.2948 -0.0754 -0.1045
18849W        W61762  15.562  21.971  24.952 -0.3896 -0.2354 -0.1471
18850W        W61763  10.571  30.963  29.745 -0.3700 -0.2376 -0.1591
18851W        W61764  33.874   6.733   1.333 -0.0618 -0.1731  0.1119
18852W        W61765  14.378   0.247   9.015  0.0565  0.2485  0.0376
18853W        W61766  25.198  33.055   1.902  0.1404 -0.0320 -0.3552
18854W        W61767  12.056  10.770   2.263 -0.1120  0.1220  0.1142
18855W        W61768  18.820   5.796   1.779 -0.2335 -0.0415  0.0218
18856W        W61769  19.571  31.229  26.407  0.0045  0.3858  0.2646
18857W        W61770  30.723   4.502   4.447  0.3505 -0.3951 -0.0473
18858W        W61771  21.715  22.290   3.726  0.0486  0.0088  0.0282
18859W        W61772  24.810  11.890  27.287  0.2584 -0.0684  0.0199
18860W        W61773  30.954  30.377   4.400  0.0105 -0.2891 -0.4468
18861W        W61774  19.816   1.681   1.429 -0.0955 -0.0257  0.1095
18862W        W61775  16.353   1.824   6.492 -0.4113 -0.1440 -0.1554
18863W        W61776  21.034   4.023   9.605  0.0937  0.0049  0.2467
18864W        W61777  31.958  30.122   9.861  0.0666  0.3014  0.0049
18865W        W61778  19.019  33.498   5.318  0.2624  0.1847  0.0692
18866W        W61779  26.881  31.502   5.727 -0.0552 -0.0458 -0.1394
18867W        W61780  26.232   5.816   8.556 -0.1122  0.0509  0.0454
18868W        W61781  31.932  26.006   6.373  0.0824  0.0819  0.1109
18869W        W61782  32.864  34.079  29.519  0.0715 -0.3197  0.0540
18870W        W61783  25.390   3.059   4.469  0.1900 -0.2242  0.1093
18871W        W61784  25.005   2.115   9.795  0.3825 -0.1928  0.2320
18872W        W61785  16.956  32.968  27.703  0.0822 -0.1213 -0.2750
18873W        W61786  21.754  32.784   6.458  0.3131 -0.0208 -0.0667
18874W        W61787  12.291  28.897   5.047 -0.0619  0.1401 -0.0636
18875W        W61788  25.521  24.942   8.946  0.1414  0.3119 -0.3125
18876W        W61789  20.868  29.992   3.813 -0.0295  0.1242 -0.0923
18877W        W61790  17.391   0.426   7.279  0.2734 -0.2975 -0.5671
18878W        W61791  24.123  12.886   5.000 -0.2595 -0.1589  0.1735
18879W        W61792  17.886  28.206   1.418 -0.0430  0.0495 -0.0626
18880W        W61793  11.819  26.794   9.651 -0.2781 -0.0020  0.0637
18881W        W61794  17.722  29.263   9.165 -0.3158 -0.1002 -0.0397
18882W        W61795  28.804   2.135   8.451 -0.1682 -0.0108  0.1208
18883W        W61796  24.976  26.075   2.281  0.0158  0.0358  0.0979
18884W        W61797  30.936   1.824  23.452 -0.1235  0.0034 -0.0263
18885W        W61798  18.495  31.620   4.464  0.0477 -0.1983  0.4578
18886W        W61799  27.589   2.023   2.419 -0.0770  0.1154 -0.1233
18887W        W61800  26.639  20.902   1.412 -0.0042 -0.0789  0.1233
18888W        W61801   9.446  30.538  10.644  0.3490 -0.0334 -0.2354
18889W        W61802  15.314  31.794   0.357  0.0204 -0.0113 -0.1209
18890W        W61803  14.719   3.678   7.486  0.1443 -0.1443 -0.3309
18891W        W61804  20.426  24.114  29.335  0.1620 -0.3677  0.0641
18892W        W61805  14.759  31.830  10.044 -0.2147 -0.1825  0.1709
18893W        W61806  27.832  11.013   4.876  0.0332  0.1160  0.0758
18894W        W61807  23.930   8.192   0.696  0.2423  0.1047  0.2971
18895W        W61808  22.240  28.666   3.119  0.1408 -0.2389  0.0607
18896W        W61809  24.416  28.665   3.501  0.2733  0.3798  0.0888
18897W        W61810  15.090  32.457  10.603  0.1705 -0.1700 -0.2425
18898W        W61811  16.220   1.665   9.004  0.3139 -0.0107  0.0488
18899W        W61812   9.964  26.867   8.001  0.2129  0.3045  0.3471
18900W        W61813  14.688   6.241  25.902 -0.2102  0.1215 -0.2535
18901W        W61814  19.288   0.355   1.587 -0.2331  0.0949 -0.0694
18902W        W61815  21.018  18.698  16.057 -0.0977 -0.1881 -0.0210
18903W        W61816   8.440   5.692  29.533  0.3695  0.1842 -0.1284
18904W        W61817  26.815   2.446   4.615  0.3035  0.1253 -0.1857
18905W        W61818   9.256  28.408  27.790  0.3655 -0.2285 -0.0785
18906W        W61819  25.081  27.522  24.996 -0.3480 -0.0294 -0.0660
18907W        W61820  29.485   2.934   8.239  0.0812  0.0169 -0.0004
18908W        W61821  19.786  27.197   4.146  0.2072  0.1132  0.2213
18909W        W61822  20.494   8.122  29.062 -0.3258 -0.1121 -0.0651
18910W        W61823  20.703  32.532   3.089 -0.2987  0.0077  0.3480
18911W        W61824  20.634  21.936   8.290 -0.1910  0.2875  0.0203
18912W        W61825  31.555   3.038   2.553  0.0815 -0.0364 -0.0017
18913W        W61826  30.231   1.591  27.116  0.1137 -0.1268  0.2051
18914W        W61827  21.431   0.488   6.759 -0.2653  0.2509 -0.0884
18915W        W61828  24.665   7.024   2.040  0.0733 -0.1164  0.2047
18916W        W61829  25.363  33.717  21.875  0.3203  0.0419  0.1034
18917W        W61830  11.687  25.950   1.725  0.1543  0.0817  0.1440
18918W        W61831  24.075   5.647   7.143  0.2811 -0.4315  0.1110
18919W        W61832  18.079  10.119   6.553 -0.5641  0.2638 -0.0503
18920W        W61833  15.149  16.975  28.616 -0.0400  0.1225  0.0291
18921W        W61834  22.836   1.879  28.724 -0.1314  0.0760  0.0965
18922W        W61835   8.730  33.523   5.524  0.1874  0.0692  0.2106
18923W        W61836  13.600  18.737   0.204  0.2267  0.0025 -0.1762
18924W        W61837  15.409  27.233   5.342 -0.1250 -0.2989 -0.0869
18925W        W61838  14.376  28.762   6.468  0.1314 -0.0708  0.3044
18926W        W61839  31.785  11.144   6.315 -0.0754  0.1056  0.0702
18927W        W61840  11.808   4.521  11.380 -0.2667 -0.3229  0.3210
18928W        W61841  10.744  34.404   9.277 -0.1357 -0.0607 -0.1500
18929W        W61842  20.466  23.676  24.766 -0.5204 -0.0206  0.1952
18930W        W61843  18.433  32.455   1.064  0.1108 -0.1548 -0.0023
18931W        W61844  24.812   0.398   8.737 -0.0338 -0.0392  0.2558
18932W        W61845   7.786  29.779  26.360  0.1754 -0.2007  0.1166
18933W        W61846   7.898   0.640  10.333  0.0188  0.1682 -0.2543
18934W        W61847  21.506  21.491  28.850  0.0447  0.0286  0.0409
18935W        W61848  20.773  32.436   4.083 -0.1059  0.2266 -0.1773
18936W        W61849  18.660  19.695   5.394 -0.1269 -0.2252  0.0399
18937W        W61850  20.727  23.913  27.809 -0.1825 -0.1040 -0.0969
18938W        W61851  16.980  28.789   6.844  0.0738  0.0903  0.2644
18939W        W61852  22.938  29.446   7.096 -0.1112  0.2685  0.1293
18940W        W61853  23.268   4.799   6.427  0.2773 -0.2216  0.0065
18941W        W61854  29.027  28.516   4.349 -0.0240 -0.1585  0.1069
18942W        W61855  20.117  12.924   5.130 -0.0050 -0.1780 -0.0921
18943W        W61856  18.747   4.108   3.810  0.0308  0.1385  0.1254
18944W        W61857  26.120   0.387   7.179  0.2816 -0.3809  0.1955
18945W        W61858  14.277  31.005   4.814  0.1976 -0.0174  0.1305
18946W        W61859   1.499  12.706  28.990 -0.1114  0.2846 -0.2001
18947W        W61860  23.344   4.929   8.941 -0.1506 -0.2524 -0.1039
18948W        W61861  11.277   4.267   6.172 -0.0833 -0.0036 -0.2099
18949W        W61862  22.898  11.952  26.021 -0.0945 -0.0187  0.1640
18950W        W61863  11.790   1.255  12.072 -0.1468 -0.0456 -0.1473
18951W        W61864  30.315  14.974   8.299 -0.0658  0.0220 -0.2561
18952W        W61865  30.506   8.336   6.653 -0.1621 -0.4298 -0.4879
18953W        W61866  16.935  30.693   5.805  0.1899  0.2295  0.1654
18954W        W61867  16.041  29.521  25.356  0.0511 -0.1051 -0.2062
18955W        W61868  21.829   5.272  10.906 -0.1073  0.1870  0.1624
18956W        W61869   9.384  25.191   7.214  0.1010 -0.2603 -0.0007
18957W        W61870   5.715  24.670   3.864 -0.0912 -0.1697 -0.0681
18958W        W61871  22.682  24.665   6.495 -0.1755  0.2961 -0.3062
18959W        W61872  23.871  30.668   6.034  0.0476  0.2060 -0.1478
18960W        W61873   8.975  27.975  11.332  0.0402 -0.1782 -0.0134
18961W        W61874  25.391  33.534   4.510 -0.1605 -0.0346  0.1498
18962W        W61875  26.487   8.924   8.218 -0.0500  0.0084  0.1793
18963W        W61876  16.769  33.908   8.319 -0.1297 -0.0915  0.1447
18964W        W61877  23.957  31.556   4.466  0.0491 -0.3093  0.0416
18965W        W61878  10.567   2.196  10.529  0.2820  0.0018 -0.0515
18966W        W61879  21.628   4.113   8.373  0.0880 -0.2459 -0.1311
18967W        W61880  13.064   0.471  12.273 -0.0233 -0.0284  0.0311
18968W        W61881  19.764  28.897   4.676  0.0445 -0.1340 -0.1408
18969W        W61882  10.364  26.706   1.230  0.1039  0.0030 -0.3282
18970W        W61883   7.894  23.655   3.869 -0.0693  0.2010  0.1666
18971W        W61884  14.994  33.272  29.362  0.0059 -0.0334 -0.1425
18972W        W61885  27.824  26.940   5.296  0.0390 -0.2956  0.0451
18973W        W61886   0.632   8.439   9.658  0.0376  0.2094  0.0791
18974W        W61887   2.312  24.422   9.887  0.1713 -0.0017 -0.1097
18975W        W61888  22.277  27.057   5.003 -0.1336  0.0506  0.0467
18976W        W61889  19.501  10.612   5.415  0.0756  0.1832  0.2316
18977W        W61890   6.861  34.314   9.366  0.2367  0.0864 -0.2621
18978W        W61891  23.713   3.500   8.873 -0.1541  0.1131 -0.1676
18979W        W61892  12.126   2.505  11.147  0.1146 -0.2161  0.2982
18980W        W61893  25.323  11.927   3.624 -0.0669 -0.1430 -0.1757
18981W        W61894  19.887   4.622   3.369  0.1027  0.1159 -0.0055
18982W        W61895  16.088   5.618  23.713  0.0849 -0.0312 -0.0949
18983W        W61896  10.411   2.829   5.500  0.1106  0.0456 -0.0002
18984W        W61897  16.619  22.257  27.413  0.0369 -0.0704 -0.1071
18985W        W61898  13.879   3.978   2.288  0.0896  0.0759  0.2288
18986W        W61899  29.622  27.885   0.751  0.0143  0.0529  0.1006
18987W        W61900   0.083  10.049   3.469  0.0992 -0.0602 -0.0351
18988W        W61901  16.874  27.032  10.195 -0.4091  0.1148 -0.1932
18989W        W61902  13.417   6.421  26.871 -0.1665 -0.1279  0.3910
18990W        W61903  10.389   1.658  11.188 -0.2640  0.0729  0.1766
18991W        W61904  26.915   4.239  29.574  0.2541  0.0179  0.1261
18992W        W61905  31.625  30.776   7.727  0.0873 -0.0182 -0.0916
18993W        W61906  24.689  29.538   0.280  0.0502  0.0436  0.1357
18994W        W61907  18.143   8.527   8.354  0.0193 -0.1114 -0.1133
18995W        W61908  14.945  31.378   6.321 -0.0203  0.0293 -0.1996
18996W        W61909  21.637  17.144   5.959  0.3279 -0.2231 -0.0797
18997W        W61910  19.189   2.490   9.171  0.0705 -0.3245 -0.0552
18998W        W61911  14.343   2.344   6.911  0.0443 -0.0745  0.0729
18999W        W61912   6.294   5.563  10.517  0.0529  0.2332 -0.2632
19000W        W61913  23.825  32.972   8.354 -0.5030  0.1370 -0.0596
19001W        W61914   9.433  26.431  11.835  0.1771  0.1452 -0.1911
19002W        W61915  26.902  33.512   8.667 -0.0017  0.0674 -0.0052
19003W        W61916  27.011   8.479   1.472  0.0351  0.2549 -0.0060
19004W        W61917  19.787   4.767   1.932  0.1533  0.0387  0.1913
19005W        W61918  18.113  29.473   8.914  0.1874 -0.1493  0.0771
19006W        W61919  16.976  31.832   7.061 -0.3776 -0.4565 -0.2906
19007W        W61920   7.745  26.777  10.868  0.4695  0.0946 -0.1363
19008W        W61921  24.533   4.031   8.678  0.0028 -0.0712  0.0415
19009W        W61922  23.831   9.918   4.694  0.3277  0.2667 -0.1895
19010W        W61923  24.457   9.620   2.724  0.2624  0.1220  0.0729
19011W        W61924   0.010   3.383   7.742  0.1188 -0.1632  0.0294
19012W        W61925  27.500   0.617   7.234 -0.1880 -0.0662 -0.0979
19013W        W61926  13.523   4.298  10.761 -0.3709  0.0761  0.0037
19014W        W61927  15.785  33.016   6.597  0.1124  0.2178 -0.4940
19015W        W61928  23.303  29.424   3.133 -0.2946 -0.1086 -0.0539
19016W        W61929  13.216  22.276   4.220  0.0137 -0.2464 -0.0850
19017W        W61930  12.153   4.800  12.208 -0.2286  0.2437  0.3222
19018W        W61931  25.485   6.537   5.172  0.1204 -0.0995 -0.0974
19019W        W61932  31.556  21.843   2.251  0.2214  0.1618  0.0828
19020W        W61933  31.305   5.471   8.686  0.0541  0.1905 -0.1097
19021W        W61934  22.224   4.628   4.553  0.1376  0.0230 -0.2480
19022W        W61935  19.741  29.494   7.489  0.0173  0.1237 -0.0604
19023W        W61936  15.718  32.349   2.770 -0.0383 -0.1702 -0.1935
19024W        W61937  29.519   4.250  26.558 -0.2515 -0.1227 -0.0165
19025W        W61938  11.856   9.077   8.001 -0.3421 -0.1927  0.1427
19026W        W61939  30.930   6.346   0.338  0.1272  0.1646 -0.1588
19027W        W61940  14.742  30.385   8.000  0.2233 -0.1459 -0.1268
19028W        W61941  11.322  34.397  18.959 -0.1781  0.0716 -0.1012
19029W        W61942  27.517  33.800   8.037 -0.1242 -0.1541 -0.2452
19030W        W61943  31.944   9.413   6.363  0.1626  0.0703 -0.0507
19031W        W61944  13.624   4.395   7.445  0.0602 -0.3966 -0.0574
19032W        W61945   8.225   1.539  11.208  0.3171 -0.1247 -0.0049
19033W        W61946  20.105   4.437   6.582 -0.3595 -0.0819  0.3169
19034W        W61947   2.058  34.194   3.195  0.0446  0.2739 -0.0021
19035W        W61948  10.811  28.798  10.101 -0.0760  0.2809  0.0324
19036W        W61949  26.432  28.402   3.208 -0.3951  0.5200  0.0188
19037W        W61950  13.888  27.588   7.982 -0.0852  0.0269  0.0612
19038W        W61951  19.327  31.553   6.598  0.0716  0.2595  0.0094
19039W        W61952  13.862   1.890  10.197  0.2422  0.1853  0.2137
19040W        W61953   8.316   7.811  28.498 -0.0421  0.1043  0.0556
19041W        W61954  11.619   3.233   9.590 -0.1164 -0.3959  0.0896
19042W        W61955  22.315  12.305   8.722  0.1433  0.0949  0.0261
19043W        W61956  21.286   4.155   5.873  0.0515  0.2454 -0.1334
19044W        W61957  31.779   8.104  28.065 -0.2180 -0.1336  0.2004
19045W        W61958  24.551  25.471   4.104  0.1349 -0.0784  0.1192
19046W        W61959  16.599   1.663  29.057 -0.2432  0.0909 -0.3019
19047W        W61960  23.463   0.634   4.716 -0.1588 -0.2453 -0.0585
19048W        W61961  14.255   5.222   7.596  0.1819 -0.1215 -0.1864
19049W        W61962  27.830   3.118   8.276  0.1714 -0.0083 -0.0278
19050W        W61963  30.833   5.445   8.503  0.4352  0.0224 -0.3932
19051W        W61964  26.637   5.118   3.910  0.1572 -0.2316 -0.0053
19052W        W61965  27.549   1.484   6.784 -0.0870 -0.3609 -0.0373
19053W        W61966  22.881  10.373   6.740 -0.0291 -0.5379 -0.1512
19054W        W61967   7.991  32.638   7.498  0.0405 -0.1016 -0.0426
19055W        W61968  27.710   1.755  10.317 -0.0357  0.1233  0.3088
19056W        W61969  13.929   8.869   9.418  0.1164  0.0786  0.0053
19057W        W61970  16.255  31.393  10.797  0.0637 -0.2015  0.2280
19058W        W61971  15.041  21.827   0.349  0.1485  0.3307  0.0205
19059W        W61972  18.815  34.201   8.215  0.0692 -0.0328 -0.1345
19060W        W61973  14.825  32.140   8.022 -0.0835 -0.0379  0.0667
19061W        W61974  22.022   4.489  27.107  0.0850 -0.0344  0.3577
19062W        W61975  17.373   2.999   3.232 -0.5225  0.3005 -0.1542
19063W        W61976  22.628  30.494   7.496 -0.3911 -0.2124 -0.1865
19064W        W61977  26.902  32.018   4.139  0.0418  0.2423  0.0430
19065W        W61978  28.095   1.139   3.809  0.0693 -0.0251  0.4390
19066W        W61979  19.313  33.397   6.486  0.0052 -0.2788  0.2518
19067W        W61980  22.086  29.898   6.764  0.0524  0.1083 -0.2073
19068W        W61981   0.527  10.614   1.148 -0.0848 -0.2831 -0.0847
19069W        W61982  16.216  23.207  21.431 -0.1192  0.2409  0.1780
19070W        W61983  21.812  12.362  27.158  0.0354 -0.2946 -0.3481
19071W        W61984  28.572   1.411   7.468 -0.5584  0.1749  0.0127
19072W        W61985  25.281   0.590   8.874  0.1306  0.1707  0.2095
19073W        W61986  23.563   7.822   7.710  0.0397  0.0168 -0.2490
19074W        W61987  19.862   0.048  28.384  0.1874  0.1815  0.0847
19075W        W61988  29.164  29.067  29.469  0.1490  0.1247 -0.0286
19076W        W61989  16.548   2.487   3.156 -0.0698 -0.0107  0.1124
19077W        W61990  20.001  11.822   6.818 -0.0531 -0.2519  0.1296
19078W        W61991  28.195  25.781   2.887  0.0444 -0.2911 -0.2032
19079W        W61992  16.040   4.251   9.516 -0.0559 -0.0311 -0.0557
19080W        W61993  25.737  31.279   4.395  0.0595 -0.0583 -0.1361
19081W        W61994  34.438   1.067   9.547  0.3276  0.1464 -0.1792
19082W        W61995  23.316  31.869   9.444 -0.3110  0.1792  0.3050
19083W        W61996  21.797  10.186  27.288  0.2886 -0.0503 -0.2183
19084W        W61997  33.132  27.760   5.825  0.0445  0.1046  0.1768
19085W        W61998  22.637  11.698   8.287 -0.2383 -0.2750  0.4402
19086W        W61999  11.923   3.509   6.160 -0.1661 -0.1180  0.1102
19087W        W62000  19.802  17.548   6.523 -0.0881 -0.0635 -0.0509
19088W        W62001   8.985  34.377   9.765 -0.1124  0.2435 -0.0327
19089W        W62002  17.020  33.825   9.554 -0.2564 -0.1016 -0.0708
19090W        W62003  17.301   4.553   7.060  0.1027  0.1877 -0.1190
19091W        W62004  30.822   7.514   1.665  0.1435  0.0214 -0.1408
19092W        W62005  29.597   6.609  11.297 -0.0420 -0.2286  0.2678
19093W        W62006  29.839   7.874  10.911  0.0508  0.0689  0.1484
19094W        W62007  24.894   7.127   9.216  0.0423 -0.1123  0.2096
19095W        W62008  18.761  34.262   3.377  0.1514 -0.1553  0.0115
19096W        W62009  31.466   4.141   2.389 -0.2537 -0.0444 -0.1538
19097W        W62010  11.355   3.113  11.653 -0.1361  0.2948  0.2149
19098W        W62011  17.981  30.094  10.353 -0.1321 -0.1002  0.2054
19099W        W62012  26.175  11.290   2.071  0.0353 -0.1803  0.0350
19100W        W62013  14.503  33.833   5.454  0.1006 -0.2158  0.1866
19101W        W62014  17.485   7.322   1.086 -0.0962  0.3495  0.0381
19102W        W62015  19.062   8.321   5.734  0.1694  0.0828  0.0586
19103W        W62016  16.732  33.182   1.968 -0.1439 -0.0722 -0.1237
19104W        W62017  12.164  34.382  10.614  0.1794  0.0770  0.1409
19105W        W62018  28.000   8.407   2.614  0.1544 -0.0261 -0.0872
19106W        W62019  13.610  30.071  10.796  0.1144 -0.0631 -0.2196
19107W        W62020   9.475  26.602  10.541 -0.0099 -0.3064 -0.2862
19108W        W62021  32.267   0.572   6.198 -0.3059 -0.1521  0.1643
19109W        W62022   9.446  23.683   4.179 -0.2803  0.0541  0.1516
19110W        W62023  18.887  14.955   7.552 -0.1791 -0.2529 -0.0845
19111W        W62024  14.983  22.746   4.611  0.0071 -0.4063 -0.3780
19112W        W62025  28.892  17.167  28.070 -0.1040  0.2232 -0.1558
19113W        W62026   9.208   4.777   7.443 -0.1704 -0.0251  0.7106
19114W        W62027  18.803   4.328   5.974  0.0013  0.1264  0.0112
19115W        W62028  26.397   1.858   7.895  0.0418 -0.0193 -0.1064
19116W        W62029   2.574   9.577   7.191  0.0907 -0.0452  0.0514
19117W        W62030  29.608  30.175   0.572 -0.0898  0.2164 -0.1441
19118W        W62031  34.372   5.788   3.935  0.0998 -0.0834  0.0320
19119W        W62032  10.678  24.959   6.969 -0.1793 -0.2719  0.4586
19120W        W62033  19.629   6.123   7.378  0.2294 -0.0448 -0.1021
19121W        W62034  20.740   0.496   9.119 -0.0627  0.1625 -0.0531
19122W        W62035  14.696  32.336  27.280 -0.0211 -0.0385  0.1848
19123W        W62036  27.702   4.374   3.542 -0.2359 -0.2852 -0.0589
19124W        W62037  13.363   5.818   4.314 -0.1817  0.3008  0.2686
19125W        W62038   2.159   2.892  27.577  0.0577 -0.1745  0.4038
19126W        W62039  26.453  29.488   3.320  0.0664 -0.0104 -0.2320
19127W        W62040  25.498  26.998   4.313 -0.2124 -0.3088 -0.0101
19128W        W62041  18.196  25.934   0.697  0.1552 -0.2246 -0.3703
19129W        W62042  15.454   1.797   1.598 -0.1601  0.2787 -0.1642
19130W        W62043  24.234  14.144  19.127  0.1781  0.0052 -0.3565
19131W        W62044  14.759   0.405   6.895  0.2923 -0.0029  0.0738
19132W        W62045   0.758   8.321  24.105  0.1486  0.0046  0.0145
19133W        W62046  28.059   0.555  25.747  0.1339 -0.1060 -0.0078
19134W        W62047  33.859  23.478   1.330  0.1725 -0.2125 -0.0340
19135W        W62048  24.375   5.921  29.517 -0.0847 -0.0019 -0.3499
19136W        W62049  28.638  33.818  29.105  0.2319 -0.1457  0.2479
19137W        W62050  23.080   4.074  21.281  0.2121 -0.2653 -0.1895
19138W        W62051  20.485   5.088  23.320 -0.2083 -0.2159  0.1548
19139W        W62052  32.870  13.840   5.484 -0.1135  0.0999 -0.0881
19140W        W62053  26.945   7.495   1.031 -0.1042  0.2821 -0.1589
19141W        W62054  13.548  11.911   2.274  0.0394 -0.0110 -0.0736
19142W        W62055  20.068  11.403   2.716 -0.2087  0.1728 -0.2165
19143W        W62056  34.476  25.159   4.547  0.2126 -0.2549 -0.0743
19144W        W62057  27.119   2.209   2.331 -0.3179  0.1491  0.1062
19145W        W62058  20.183  33.882   2.379 -0.3675  0.0948  0.0981
19146W        W62059  31.951   1.843  25.797  0.0981 -0.3487  0.1556
19147W        W62060  28.046   1.587  24.079 -0.2060  0.1505  0.1859
19148W        W62061  12.865  29.640   1.214 -0.1106 -0.0649 -0.1854
19149W        W62062  25.277   2.545  24.989  0.1274 -0.1955 -0.2955
19150W        W62063   0.515   0.983   4.999  0.1167 -0.2397 -0.1368
19151W        W62064  27.731  27.718   8.102  0.1824 -0.4175  0.0944
19152W        W62065  25.916  31.937   2.663  0.4661 -0.0632  0.1111
19153W        W62066  22.584  28.640   4.375  0.0087 -0.3071  0.3046
19154W        W62067  32.306   7.714  23.901  0.0072  0.0954  0.2474
19155W        W62068  17.607   3.588   4.324  0.3527 -0.0980  0.3521
19156W        W62069  30.082  28.626   4.769  0.0671  0.2628  0.1641
19157W        W62070  16.421  28.889  22.763  0.1504  0.0500 -0.1699
19158W        W62071  27.128   1.745   6.414 -0.0284 -0.0388  0.2695
19159W        W62072  19.500   1.083   5.715 -0.1766  0.1955  0.0149
19160W        W62073  23.179   2.392   5.452 -0.0304 -0.0275 -0.1972
19161W        W62074  30.726  10.365   7.053  0.0788  0.1305  0.0002
19162W        W62075  18.784   7.401  19.224  0.2566 -0.2997  0.1393
19163W        W62076  32.476   3.390   5.218 -0.1708  0.1426  0.0917
19164W        W62077  24.947   2.081   3.380  0.0633 -0.2021  0.1197
19165W        W62078  21.716  10.167  29.410  0.0225 -0.0621  0.2524
19166W        W62079   0.859  12.375   3.037  0.2415 -0.0120 -0.2558
19167W        W62080  24.647  14.621  25.236  0.1376 -0.0605 -0.2677
19168W        W62081   3.624  27.638   4.678  0.0322  0.0068 -0.0217
19169W        W62082  19.423   6.495  22.047 -0.1972 -0.0737  0.0620
19170W        W62083  12.412  23.070  29.747 -0.1061  0.0348  0.0599
19171W        W62084  25.912  34.453  15.560  0.1167  0.1758  0.0487
19172W        W62085  15.030   7.264   8.629  0.0555 -0.0700 -0.0284
19173W        W62086  23.467  25.026   2.119 -0.1084 -0.1627 -0.2225
19174W        W62087  18.345  25.519  25.558  0.0676  0.0691  0.0966
19175W        W62088  29.044  29.513  26.361 -0.0590  0.1906  0.1092
19176W        W62089  33.160   4.935  18.879 -0.2541  0.1689 -0.0301
19177W        W62090  21.822  24.662  28.231 -0.0102  0.2407  0.1018
19178W        W62091  18.864   2.710   3.903  0.0965  0.1852  0.0701
19179W        W62092  20.535  33.641   2.747  0.1255  0.2924  0.4529
19180W        W62093  22.940  33.893   7.514 -0.2672  0.1262  0.1900
19181W        W62094  24.310  10.948   5.824  0.0012  0.3480 -0.3240
19182W        W62095  28.780  13.855   7.812 -0.0960 -0.0924 -0.1882
19183W        W62096  26.211  33.310  28.098  0.4423  0.1299  0.0451
19184W        W62097  17.517  31.885  28.006 -0.0240 -0.1486 -0.1469
19185W        W62098  30.274   3.384   0.081  0.0011 -0.4267  0.4380
19186W        W62099  18.629   0.063   5.101  0.1599  0.2192 -0.0141
19187W        W62100  25.133   2.489   9.461  0.1478 -0.0190 -0.5461
19188W        W62101  29.395   3.103   7.741  0.1589 -0.0111 -0.0385
19189W        W62102   2.348   2.227   6.215  0.0614  0.0497 -0.3923
19190W        W62103  25.109   8.625  28.299 -0.1736  0.2617 -0.0099
19191W        W62104  29.817   3.228   6.791  0.0571 -0.0080  0.0087
19192W        W62105  19.201  32.314   2.342 -0.2600  0.1966  0.1388
19193W        W62106  27.676  26.903  17.779 -0.1977  0.0816 -0.1551
19194W        W62107  31.328   8.577  10.070 -0.1347 -0.0741 -0.0374
19195W        W62108  18.095   3.075  14.889  0.2051 -0.0452  0.1709
19196W        W62109  21.992   0.294   4.877 -0.3283 -0.0523  0.1165
19197W        W62110  22.265   7.838   4.913 -0.0185  0.0514 -0.0913
19198W        W62111  16.179   0.140   4.972  0.0729 -0.1150  0.1791
19199W        W62112  24.840  14.133   9.533  0.0739  0.0037 -0.0440
19200W        W62113  19.534   5.336   2.637 -0.0693 -0.2073  0.4631
19201W        W62114  15.283   4.525   0.992 -0.1240  0.1062 -0.0223
19202W        W62115  27.950   3.736  26.446 -0.0181  0.2341 -0.0576
19203W        W62116  29.078  25.820   1.858 -0.1063 -0.0193  0.0603
19204W        W62117  27.282  31.636   4.091  0.1205  0.0672 -0.0762
19205W        W62118  22.147  34.130   0.692  0.1377 -0.4562  0.0195
19206W        W62119  29.883   8.176   0.586 -0.2398  0.2891 -0.1313
19207W        W62120  25.058  30.925   3.577  0.0214  0.3612 -0.2244
19208W        W62121  22.990  34.337   2.686 -0.0444 -0.1171  0.0894
19209W        W62122  20.304   1.694   7.194  0.0605  0.3182  0.1291
19210W        W62123  33.985  29.980   6.766  0.0328  0.2344 -0.1732
19211W        W62124  25.194  23.862  28.089 -0.0200 -0.2620  0.0290
19212W        W62125  21.900  11.342  28.728 -0.0644  0.0271 -0.1999
19213W        W62126  27.647   8.340   4.949  0.1994 -0.3490  0.0362
19214W        W62127  17.821   0.577  26.910  0.0923 -0.1580 -0.0902
19215W        W62128  15.756   7.919  29.336  0.2020  0.0994  0.4074
19216W        W62129  28.869  26.405   9.226  0.1158 -0.0032 -0.0061
19217W        W62130  16.848  32.226   7.988 -0.2053 -0.2178  0.1420
19218W        W62131  23.120  30.497   7.819  0.2704  0.4921  0.1178
19219W        W62132  34.321   8.198  29.136  0.0383 -0.4012 -0.2247
19220W        W62133  15.554  21.021  13.457 -0.1337 -0.4091  0.2461
19221W        W62134  14.904   6.015   3.335 -0.1799 -0.3051  0.1534
19222W        W62135   0.675  31.259   6.621 -0.0940  0.3423  0.2505
19223W        W62136  29.469  13.693  28.438 -0.1876  0.0104 -0.1178
19224W        W62137  22.139  32.086  29.668  0.3950  0.2173 -0.1455
19225W        W62138  19.036   4.302  25.658 -0.0184 -0.3387  0.3225
19226W        W62139  23.076   1.081   3.512  0.1809 -0.4988  0.1671
19227W        W62140  13.594   2.986  15.622 -0.3179 -0.0437  0.3245
19228W        W62141  22.927   7.759  28.665  0.4267 -0.0277 -0.0381
19229W        W62142  15.685   6.329  25.295  0.0481  0.1501 -0.1725
19230W        W62143  25.182  19.770  26.211 -0.2189  0.0058  0.0237
19231W        W62144  20.888  29.898   5.151 -0.0400  0.0933  0.0747
19232W        W62145  29.990   1.745   0.127  0.2977  0.0672 -0.2536
19233W        W62146  17.118  28.301   1.107 -0.0272  0.1955  0.1124
19234W        W62147  21.571   5.663   7.428 -0.2290 -0.1581  0.1448
19235W        W62148  22.374   3.799   7.956 -0.2392  0.2022 -0.0534
19236W        W62149  20.113   1.900   5.784  0.0939 -0.1752  0.1961
19237W        W62150  27.028  33.845   7.184  0.0853 -0.0501  0.1322
19238W        W62151  22.065   2.326   6.440  0.2403 -0.0973  0.0360
19239W        W62152  28.587  12.490   7.514  0.0672 -0.1129  0.1246
19240W        W62153  19.314   4.268   5.726  0.0243  0.0068 -0.0129
19241W        W62154  11.663  27.268   9.777 -0.1476  0.1622 -0.0533
19242W        W62155  32.535   5.163  27.832 -0.0591 -0.1289 -0.0619
19243W        W62156  23.270  32.818   6.275 -0.0845  0.0784 -0.0279
19244W        W62157  24.024  33.865   1.944  0.0333  0.0844 -0.2815
19245W        W62158  19.292  30.880   3.933  0.1775  0.0564 -0.1409
19246W        W62159  22.922  14.262  21.715 -0.2621  0.1522 -0.0989
19247W        W62160  24.335   3.916   7.318  0.0747 -0.1525 -0.2755
19248W        W62161  24.544  29.749   3.206 -0.0749 -0.2251 -0.0679
19249W        W62162  27.651   6.946   8.557  0.3503 -0.3897  0.1818
19250W        W62163  19.557  32.519  10.274 -0.2938  0.0426 -0.1153
19251W        W62164  26.091   5.837   1.174  0.1150  0.1729 -0.0104
19252W        W62165  23.071   1.677   5.029  0.0333 -0.2129 -0.0918
19253W        W62166  23.718  28.533  28.263  0.3009  0.0399 -0.0215
19254W        W62167  17.015  32.546   9.585  0.1663 -0.3993  0.5268
19255W        W62168   1.972  24.562   4.721  0.1948  0.0134  0.1021
19256W        W62169  22.100  31.962   3.888 -0.1235  0.0018 -0.1679
19257W        W62170  29.897   3.834   0.072  0.2004  0.2519 -0.1254
19258W        W62171  12.239   1.986  29.151  0.0360 -0.1237 -0.0157
19259W        W62172  26.537  13.705  21.377  0.0941 -0.0549 -0.1132
19260W        W62173  23.778   6.434   9.009  0.0017  0.1843  0.1014
19261W        W62174  23.988  30.705   5.331  0.0064 -0.1256  0.1129
19262W        W62175  28.197   2.289  21.098  0.2475  0.0445 -0.0519
19263W        W62176  21.734  33.160   6.149  0.0809  0.1418  0.1073
19264W        W62177  19.857  34.299  21.695  0.3138 -0.2527 -0.2261
19265W        W62178  19.970   0.323  22.382 -0.1431  0.0164  0.1856
19266W        W62179  22.779  30.044   7.609  0.2209 -0.1471  0.1768
19267W        W62180  17.652  32.393  22.807  0.3455  0.0627 -0.2239
19268W        W62181  21.364   6.559  24.177 -0.0176  0.0029  0.0246
19269W        W62182  24.445   3.750  27.987 -0.0801 -0.1283 -0.3360
19270W        W62183  19.852   0.214   4.780 -0.4439  0.2912 -0.1324
19271W        W62184  16.124   0.923   3.168 -0.1132 -0.1568  0.2118
19272W        W62185  22.721   7.173  22.061 -0.0947 -0.0015  0.3640
19273W        W62186  25.039   6.208   1.859  0.1396 -0.0842 -0.1611
19274W        W62187  31.875  10.154  26.444  0.2126 -0.2807 -0.0659
19275W        W62188  21.179  28.234   5.382 -0.1416  0.0886  0.0985
19276W        W62189  22.703  23.838   7.244 -0.0543  0.0543 -0.2378
19277W        W62190   1.267  33.590   4.346  0.0834 -0.1829 -0.0914
19278W        W62191  15.942  29.518   2.826 -0.2281  0.1283  0.0237
19279W        W62192  20.200  10.094   1.197 -0.0286  0.0422  0.2402
19280W        W62193  21.690  32.645   0.927  0.2507  0.1869  0.0015
19281W        W62194  25.541   5.548   6.849  0.0660 -0.0857  0.0250
19282W        W62195  26.896   5.878   3.280  0.3578  0.1507  0.1646
19283W        W62196  24.707  26.969   6.802 -0.0203  0.4159  0.0500
19284W        W62197  18.945   4.604   3.090  0.1270 -0.0195 -0.0114
19285W        W62198  14.870  13.005  24.917 -0.0756 -0.0675  0.1533
19286W        W62199  27.164   3.249  26.321  0.0277  0.2234  0.1463
19287W        W62200  30.795  26.831   2.155  0.1522 -0.4154 -0.0778
19288W        W62201  17.706   0.166   6.726 -0.0025 -0.1613 -0.2620
19289W        W62202  19.827  32.119  22.998  0.2299  0.1717  0.3373
19290W        W62203  33.688   0.632   2.938  0.1393 -0.0987 -0.1191
19291W        W62204   2.094   7.537  28.625  0.1467 -0.1320 -0.2153
19292W        W62205  29.637   2.998   2.486 -0.0869 -0.1899 -0.0843
19293W        W62206  24.911  28.709   1.893  0.0069 -0.2934  0.1584
19294W        W62207  19.966   6.514   8.140 -0.0687 -0.0069 -0.0002
19295W        W62208  28.702   5.189   1.352 -0.0820 -0.1819 -0.2970
19296W        W62209  25.624  26.321   4.712 -0.0928 -0.1505  0.2453
19297W        W62210  20.803  11.592  27.459  0.1285 -0.1201  0.1104
19298W        W62211  18.230   4.324   7.323  0.1748 -0.0184 -0.0117
19299W        W62212  18.713  30.301   5.895 -0.1019 -0.2158  0.1254
19300W        W62213  25.319  34.032   8.614  0.0071  0.0793  0.1183
19301W        W62214  27.850   6.860   7.119  0.0702 -0.1656 -0.3827
19302W        W62215  21.461   3.104  25.683  0.0254 -0.0010 -0.0996
19303W        W62216  16.086  31.723  29.165  0.3726 -0.0172  0.0023
19304W        W62217  21.902  11.188   4.845  0.1021 -0.2044 -0.0157
19305W        W62218  12.655  29.513  10.243  0.2212 -0.0031  0.2975
19306W        W62219  24.706  30.210   8.476  0.0515 -0.4101  0.0259
19307W        W62220  24.234   3.458  26.836 -0.1273  0.0583 -0.0789
19308W        W62221  18.994   2.901   2.505 -0.4681  0.1845 -0.1853
19309W        W62222  34.151   0.018   6.261  0.2644  0.3016 -0.1834
19310W        W62223  21.503  31.589  23.759  0.3468  0.3078  0.1494
19311W        W62224  23.791  34.416   6.623  0.2076  0.1040  0.1147
19312W        W62225  14.771   5.310   5.688 -0.1299 -0.0074 -0.1607
19313W        W62226  15.134   5.516   1.131 -0.0440 -0.0042  0.0378
19314W        W62227   1.607  10.809   1.047 -0.0227  0.3422 -0.0921
19315W        W62228  22.463   2.928   2.103  0.2467 -0.0264 -0.2337
19316W        W62229  25.172   3.626  24.485  0.0864  0.0608 -0.1412
19317W        W62230  20.353  31.398   2.769 -0.0669  0.0642  0.2473
19318W        W62231  17.773  30.445   0.373 -0.3207 -0.3266  0.0395
19319W        W62232  17.090   4.722  23.884 -0.2243 -0.2184 -0.0454
19320W        W62233  26.954  28.604   2.949 -0.2252  0.0632  0.4570
19321W        W62234  23.050  28.381   4.404 -0.1378 -0.1948 -0.0516
19322W        W62235  27.776   5.660   8.167  0.1381 -0.0217  0.1344
19323W        W62236  21.672   6.694   3.784 -0.3484 -0.1951 -0.1108
19324W        W62237  25.209  30.965  22.638 -0.3481  0.2860  0.1432
19325W        W62238  29.977  30.134   3.922  0.0248 -0.0192  0.1625
19326W        W62239  29.660  27.503  23.745 -0.1963 -0.2841 -0.0735
19327W        W62240  27.355   5.646   6.423 -0.0707 -0.2843  0.0744
19328W        W62241  19.123  32.000   1.539 -0.2426 -0.1491  0.0038
19329W        W62242   0.967  31.584  10.606  0.0752  0.1002 -0.0120
19330W        W62243  24.836  12.022   5.756  0.0060 -0.2159 -0.1277
19331W        W62244  21.298   1.651   4.177  0.2322 -0.0661  0.2805
19332W        W62245  21.273  20.386   1.864 -0.2014  0.2191  0.4103
19333W        W62246  30.590  32.178   6.871  0.1891 -0.0303 -0.2243
19334W        W62247  33.418   9.749   7.311 -0.2802  0.0381 -0.0172
19335W        W62248  22.244   0.958   5.361  0.1485  0.3176  0.0027
19336W        W62249  14.759  31.053  23.857  0.0441 -0.0352  0.0147
19337W        W62250  29.847   4.155   2.702 -0.0968 -0.0535 -0.4718
19338W        W62251  30.970  11.765   2.734 -0.2715 -0.1393 -0.0149
19339W        W62252  13.749   6.289  23.497 -0.0706 -0.1465 -0.2196
19340W        W62253  33.699   6.230  28.327 -0.3084  0.1191 -0.1578
19341W        W62254  19.343   6.229   5.522 -0.2099  0.1303  0.2014
19342W        W62255  28.598   1.212  27.474 -0.0184  0.0682  0.0339
19343W        W62256  10.809  27.782  28.397  0.1695 -0.2887 -0.0531
19344W        W62257  30.855  31.105   9.085  0.0623  0.5362  0.1261
19345W        W62258  18.688  12.884   6.262  0.1451  0.0096  0.0702
19346W        W62259  28.751   0.200   9.418  0.3362  0.3041 -0.1300
19347W        W62260   6.694  30.717   2.462 -0.0576  0.0680  0.1187
19348W        W62261  18.311   7.017  23.244 -0.0832  0.0358  0.2776
19349W        W62262  23.725  34.074   1.616 -0.0237 -0.1450  0.1385
19350W        W62263  21.982  27.637   6.567 -0.0137 -0.0708 -0.1018
19351W        W62264  24.901  10.596   2.294 -0.0872  0.1504  0.4453
19352W        W62265  20.506   3.433   7.326 -0.0566 -0.3269 -0.2032
19353W        W62266  21.729  33.699   8.854  0.0941 -0.3205 -0.1306
19354W        W62267  30.319   5.394  28.827  0.0040 -0.0505  0.1198
19355W        W62268  31.258  34.358   5.579 -0.0958  0.1185 -0.1018
19356W        W62269  24.279  27.937  15.424  0.0250  0.0987 -0.1910
19357W        W62270  26.053  31.274   2.718 -0.3557  0.3925 -0.0589
19358W        W62271  26.925   4.654   1.296  0.1547  0.2947 -0.2403
19359W        W62272  25.975  33.246   6.874 -0.1288  0.0929 -0.3085
19360W        W62273  28.120  25.111   6.979 -0.0671  0.1025 -0.3182
19361W        W62274  25.988   1.043   0.395 -0.0763 -0.3607 -0.0213
19362W        W62275  10.832   6.499  16.533  0.1187  0.2098  0.1510
19363W        W62276  26.234  29.875  27.549 -0.0168  0.1111 -0.3337
19364W        W62277   9.768  33.607   2.597  0.0838  0.3102 -0.1405
19365W        W62278  21.576   4.437   6.288  0.0250  0.0886 -0.0016
19366W        W62279  16.259  11.930  29.690 -0.0316  0.1311 -0.0086
19367W        W62280  20.276  32.259   0.735  0.1200 -0.0944  0.0436
19368W        W62281  21.950  10.551  26.571 -0.0931 -0.2354  0.1647
19369W        W62282  26.951   5.588   2.257  0.0319 -0.0995 -0.0786
19370W        W62283  21.112  31.825  22.916  0.0626  0.2378 -0.0869
19371W        W62284  28.865   0.296  28.414  0.2246  0.2543 -0.2251
19372W        W62285  20.321  31.756  27.400  0.1348 -0.1396  0.2386
19373W        W62286   0.288   0.787  27.343 -0.0029 -0.2099  0.3903
19374W        W62287  23.594   8.850   1.326 -0.0558  0.5879 -0.0159
19375W        W62288  24.392   2.401   3.259 -0.1044  0.1389 -0.0988
19376W        W62289  27.917   1.411   5.711 -0.1768  0.0514  0.1748
19377W        W62290  19.021  27.228   5.768  0.0846 -0.0304 -0.2402
19378W        W62291  27.750   5.894   5.666 -0.0172 -0.0247  0.2350
19379W        W62292  17.305   1.242  25.838  0.1067 -0.0357 -0.0951
19380W        W62293  11.253   3.309  23.503 -0.2555  0.0163  0.1193
19381W        W62294  22.437   3.441   9.460  0.0665  0.2043 -0.1439
19382W        W62295  13.219   4.646   9.059 -0.3929 -0.2110 -0.1542
19383W        W62296  15.792  31.797   0.419 -0.0453  0.1137  0.1108
19384W        W62297  31.573   3.494   4.955  0.0915  0.3079 -0.1716
19385W        W62298  19.079   1.217   5.271 -0.0440 -0.0314  0.2453
19386W        W62299  25.476   4.019   7.009 -0.0104  0.1670  0.1017
19387W        W62300  12.903   2.157  29.646 -0.0552  0.0518  0.1805
19388W        W62301  29.420   2.678   3.948 -0.0604  0.0541 -0.1346
19389W        W62302  28.531  32.206  22.752  0.2714 -0.1871 -0.0053
19390W        W62303  21.665  33.897  29.198 -0.1321 -0.0127 -0.2144
19391W        W62304  30.049  26.531   2.458 -0.3080 -0.5081 -0.0027
19392W        W62305  24.592   2.092   7.299  0.1522 -0.3268  0.0881
19393W        W62306   2.025  10.888   5.539 -0.0429  0.0041  0.2857
19394W        W62307  21.510   2.540  28.866  0.1607 -0.1959  0.0432
19395W        W62308  29.622   1.546  11.382 -0.2144 -0.0735  0.2894
19396W        W62309  32.982   3.663   8.548 -0.1341 -0.2257 -0.2460
19397W        W62310  15.900   9.120   7.301 -0.1109 -0.0289  0.0450
19398W        W62311  21.365  29.271  29.393 -0.0796  0.1438  0.2200
19399W        W62312  25.761   3.750   2.613  0.0423 -0.2621 -0.0549
19400W        W62313  28.660   6.888   8.780  0.0681 -0.0717 -0.0008
19401W        W62314  15.978   1.370  10.632 -0.1458 -0.0934  0.1196
19402W        W62315  29.801  10.957   4.449 -0.2014 -0.2084  0.1573
19403W        W62316  34.101   1.176  29.267 -0.2181  0.2520 -0.0943
19404W        W62317  30.451   6.442  28.839  0.0385  0.3544  0.0284
19405W        W62318  33.209   7.002  26.244  0.1211 -0.0113 -0.0767
19406W        W62319  17.125  34.448  27.773 -0.3395  0.0468  0.1390
19407W        W62320  25.225  10.992   2.102  0.0607 -0.0598 -0.0508
19408W        W62321  10.887   6.434  27.887 -0.1437  0.1733  0.0563
19409W        W62322  13.631  32.656  22.829 -0.0786 -0.3487  0.0530
19410W        W62323  26.124   0.037   0.269  0.1692 -0.1554 -0.0373
19411W        W62324  15.609   7.234  25.663 -0.0246  0.1967 -0.3727
19412W        W62325  28.150  13.819   5.912 -0.0382 -0.1456 -0.1166
19413W        W62326  21.622  10.771   3.526  0.1515  0.0632  0.1312
19414W        W62327  17.443  23.882   1.028 -0.0605  0.0108 -0.1759
19415W        W62328  25.189   0.231  26.395  0.2417 -0.1715 -0.2654
19416W        W62329  16.886  25.802  23.030 -0.1479  0.3907  0.1599
19417W        W62330  26.050  30.267   2.450  0.0454 -0.1311  0.0336
19418W        W62331  20.926   0.667   3.971  0.0723 -0.2298 -0.2421
19419W        W62332   9.424   3.647   2.030 -0.0359 -0.2734 -0.1714
19420W        W62333  18.141   6.379   8.098  0.1077  0.1617 -0.1617
19421W        W62334  28.164  24.795   3.183  0.2269 -0.1437  0.2780
19422W        W62335  29.557   4.526   1.386 -0.0170  0.1660  0.0218
19423W        W62336  28.355   5.776   7.491  0.1242  0.2172 -0.3406
19424W        W62337  30.728  18.868   1.356 -0.3848 -0.1609  0.2484
19425W        W62338  22.769   0.114  29.276  0.0151  0.1175 -0.0207
19426W        W62339  25.834   1.218   3.314  0.0492  0.1501 -0.0130
19427W        W62340  22.788  30.360   8.576 -0.0430 -0.0202 -0.1119
19428W        W62341  18.296   1.494   3.074  0.1564 -0.2731  0.0040
19429W        W62342  19.217  30.707  28.918  0.2489 -0.2007  0.0438
19430W        W62343  29.802   1.486  22.878 -0.3212  0.0254 -0.2897
19431W        W62344  22.872   8.715   7.349  0.1432  0.1319 -0.0255
19432W        W62345  25.338  31.442   6.060  0.1449 -0.3578  0.2125
19433W        W62346  17.010  33.141  28.730 -0.0731  0.0695 -0.0290
19434W        W62347  27.338   2.375  21.227  0.0685 -0.2957  0.3376
19435W        W62348  29.472  27.373   3.082  0.0089  0.4046 -0.1762
19436W        W62349  29.075   1.645   7.522 -0.3502  0.0217 -0.0824
19437W        W62350  31.310   2.610   3.366 -0.0629 -0.1060 -0.0712
19438W        W62351  17.190   0.873   8.015  0.2214 -0.2492  0.2344
19439W        W62352   4.354   3.699  29.662  0.0878  0.0197  0.0651
19440W        W62353  24.052  33.309   7.587  0.0630 -0.2372  0.4333
19441W        W62354  27.242   5.992   1.266 -0.0717 -0.1334 -0.4168
19442W        W62355  24.207   2.829   5.694 -0.0717 -0.1802 -0.0050
19443W        W62356  24.323  34.260   3.024 -0.2424  0.1155 -0.2360
19444W        W62357  17.381  33.541   7.834  0.1275 -0.0507 -0.2065
19445W        W62358  30.214   3.922  25.489 -0.0159 -0.2092  0.0847
19446W        W62359  19.485   2.268  29.060  0.0346 -0.1837  0.0342
19447W        W62360  28.392  33.295   6.645 -0.1608  0.0178 -0.0211
19448W        W62361  33.564  33.249   0.302 -0.1154  0.2249 -0.0082
19449W        W62362   2.257   9.554   3.246 -0.0976  0.2835  0.2184
19450W        W62363  22.915   6.207   1.818  0.0533 -0.0597  0.2060
19451W        W62364  26.335   2.507   4.913  0.0670 -0.1085  0.0707
19452W        W62365  19.755  30.131  28.903  0.1370  0.0544  0.1128
19453W        W62366  28.862   2.852   6.665  0.1960  0.0878 -0.0197
19454W        W62367  32.717  13.030   3.394  0.0036  0.3064 -0.3082
19455W        W62368  25.844   4.589   5.820  0.0571 -0.1617  0.4563
19456W        W62369  25.498   3.135   3.934  0.2694 -0.2044  0.0845
19457W        W62370  11.419   6.776   6.875 -0.0216  0.5147  0.2559
19458W        W62371  23.951  19.913  28.761 -0.1754  0.2144  0.1639
19459W        W62372  12.029  30.093  28.920  0.0079  0.1488 -0.1989
19460W        W62373   0.712   1.350  20.942 -0.0902 -0.1468 -0.2382
19461W        W62374  25.584  32.944  28.800  0.0656 -0.0335 -0.2022
19462W        W62375  17.764  29.484   2.532  0.0113 -0.0714  0.1322
19463W        W62376  18.813   1.135   7.318 -0.0687 -0.0007 -0.1316
19464W        W62377  28.789  27.826   5.431  0.1275  0.1725 -0.1655
19465W        W62378  24.283   6.589   3.512 -0.2727  0.2326  0.2905
19466W        W62379  25.224   5.942  10.544 -0.1088 -0.2508 -0.1949
19467W        W62380  24.407   0.277  25.394 -0.0964 -0.3260  0.0136
19468W        W62381  15.544  31.900   8.894 -0.0408  0.1592  0.2266
19469W        W62382  22.990  27.133   3.255 -0.1487 -0.1459  0.3494
19470W        W62383   2.091  23.654   5.009  0.1249 -0.1328 -0.0223
19471W        W62384  28.768   3.074  27.291 -0.0824 -0.3186 -0.2477
19472W        W62385  26.794   1.632   6.979 -0.0461  0.0003 -0.0024
19473W        W62386   7.951   0.501  12.304  0.0776  0.0753  0.0973
19474W        W62387  32.774   4.596   3.394 -0.0234  0.0981 -0.0527
19475W        W62388  26.956   0.402   3.698 -0.3048  0.0696 -0.3176
19476W        W62389   4.080   0.803   5.404 -0.0078 -0.1845  0.0507
19477W        W62390  29.289   0.909   3.268 -0.3092  0.1866  0.0534
19478W        W62391  19.536   4.371  29.414  0.0695 -0.2051 -0.2496
19479W        W62392  31.408  10.374  19.944 -0.3595  0.1411  0.0077
19480W        W62393  26.486   7.621  26.706  0.0195 -0.1364 -0.0831
19481W        W62394  29.831  32.247  22.463  0.0304 -0.3554 -0.0154
19482W        W62395  27.071  31.532   3.188 -0.0059 -0.2015 -0.0265
19483W        W62396  24.628  31.724   1.690 -0.0767  0.1419  0.3292
19484W        W62397   6.609  28.047  27.958 -0.2060  0.0983 -0.1026
19485W        W62398  15.161  28.327  24.780 -0.1246 -0.4107 -0.1337
19486W        W62399  23.125   5.727  29.673  0.1711 -0.2463 -0.1221
19487W        W62400  15.583   2.691  28.284 -0.0295 -0.3020  0.0086
19488W        W62401  25.938   1.066  27.720 -0.0579 -0.0438 -0.0074
19489W        W62402  29.867   5.350  29.743  0.0886 -0.1742  0.2571
19490W        W62403  25.624   5.899  27.226 -0.0078 -0.1248 -0.0483
19491W        W62404   4.567   1.448   2.998 -0.0137 -0.0029  0.0538
19492W        W62405  23.567   4.490   7.253  0.0704  0.0604  0.2316
19493W        W62406  27.330   9.683  20.853 -0.0084 -0.1457 -0.0030
19494W        W62407   1.277   9.334   8.810  0.2959 -0.3139 -0.0066
19495W        W62408  22.016  27.401   1.654 -0.1154 -0.0801  0.1035
19496W        W62409  19.677   7.725   5.997 -0.1596  0.0494 -0.0303
19497W        W62410  22.174  13.556  29.525 -0.0558  0.2823  0.3985
19498W        W62411  29.999  10.137   5.685  0.1398  0.1454 -0.0777
19499W        W62412  24.822   3.500   1.575  0.3340  0.1662  0.2066
19500W        W62413  22.638   7.098  28.969  0.1078 -0.1359  0.5192
19501W        W62414  30.600   7.171  20.726  0.3997 -0.0079  0.4487
19502W        W62415  13.337  26.823  24.436 -0.0858 -0.1876 -0.0600
19503W        W62416  15.686  24.122   0.263  0.1523 -0.1900 -0.2181
19504W        W62417  23.864  34.441   2.961 -0.1982  0.3010  0.0899
19505W        W62418  13.549  28.285   1.213  0.2250  0.0779  0.0617
19506W        W62419  33.588  34.112   3.277  0.0703  0.3159 -0.3648
19507W        W62420  15.605   0.966  17.497 -0.1718  0.1436  0.2723
19508W        W62421  15.318   3.383   8.877 -0.2057  0.1688  0.1002
19509W        W62422  22.041   4.140   5.176 -0.1364 -0.1057  0.2253
19510W        W62423  21.521   6.880   6.411  0.0327  0.2726  0.3621
19511W        W62424  20.499   8.419   4.878 -0.1802  0.1576  0.2945
19512W        W62425  28.621  17.931  22.638 -0.2898 -0.0417 -0.0450
19513W        W62426  25.874  27.271  29.777 -0.0359  0.0719  0.2923
19514W        W62427  34.251  31.032   8.754  0.0200 -0.1911 -0.1265
19515W        W62428  25.484   2.441   4.422 -0.1852  0.0174 -0.1949
19516W        W62429  24.307  31.906   0.916  0.2911 -0.0035  0.2989
19517W        W62430  22.874  23.921   4.962  0.1356  0.0015  0.1041
19518W        W62431  29.167   0.485  29.648  0.1529 -0.0817  0.2410
19519W        W62432  16.236   3.334   2.158 -0.3540  0.0218 -0.2737
19520W        W62433  21.108  28.058   1.946  0.1652  0.0936  0.1028
19521W        W62434  25.576   9.436   3.404  0.1451  0.1456 -0.3190
19522W        W62435  31.366   5.102   6.973  0.1617 -0.0440  0.0066
19523W        W62436  24.807  28.587   3.792 -0.1252  0.0241 -0.2183
19524W        W62437  30.403  26.158   6.539 -0.2329  0.0916  0.1257
19525W        W62438  29.675   6.655   2.976 -0.0865 -0.0224 -0.3413
19526W        W62439  23.727  33.856   5.201 -0.1697 -0.0831  0.4955
19527W        W62440  30.395  34.348   5.327  0.0345 -0.5016 -0.0052
19528W        W62441   7.947   0.792   2.692 -0.0157 -0.0347  0.1020
19529W        W62442   1.226   9.664  29.662  0.3180  0.2721 -0.0780
19530W        W62443  29.791   5.057  10.705  0.2754  0.1031  0.0476
19531W        W62444  24.176   0.841   5.156 -0.2337 -0.0164 -0.1455
19532W        W62445  32.031   2.076   0.194 -0.1564  0.0181 -0.1346
19533W        W62446  23.981  34.204  10.157  0.0740  0.4173  0.2803
19534W        W62447  23.398   3.229   0.184 -0.0779 -0.0854  0.3413
19535W        W62448  22.311   9.304   8.398 -0.1829 -0.1307 -0.2385
19536W        W62449  24.771   7.620  24.442 -0.2190 -0.0230 -0.0291
19537W        W62450  21.784   3.638   5.369  0.1287 -0.2348  0.1710
19538W        W62451  17.317   0.978  10.772  0.0512 -0.1020  0.0409
19539W        W62452  22.995   5.795   6.260 -0.2089  0.0165 -0.3187
19540W        W62453  28.513  14.063   2.699  0.2309  0.2468 -0.0346
19541W        W62454   2.531   9.258  11.353 -0.3106 -0.1092 -0.1706
19542W        W62455  25.838   3.589   9.182 -0.1435 -0.2378  0.0176
19543W        W62456  22.823   6.411   3.889  0.0207  0.1102 -0.0349
19544W        W62457  21.133   7.292   6.717  0.2124 -0.1169 -0.0531
19545W        W62458  14.577  31.592   8.463 -0.0130 -0.1129  0.5561
19546W        W62459  30.328   0.765  10.615  0.0885 -0.2513  0.0371
19547W        W62460  21.271   7.500   7.190 -0.1604 -0.0426 -0.3482
19548W        W62461  22.692   1.652   8.931  0.1949 -0.0676  0.1874
19549W        W62462  34.436   8.436  28.054 -0.2881  0.3059 -0.0385
19550W        W62463  14.311  31.922   2.688 -0.1881  0.0202  0.3774
19551W        W62464  26.506  29.929   5.827 -0.2206  0.1920 -0.0095
19552W        W62465  32.149   7.852   3.794  0.0306  0.0330  0.0919
19553W        W62466  30.761  10.986   7.755  0.3397  0.3288 -0.1393
19554W        W62467  25.735  17.226  26.726 -0.1059 -0.1560 -0.0793
19555W        W62468  16.965   0.846  10.083  0.0670 -0.0859 -0.1774
19556W        W62469  28.613  20.074   7.649  0.1714 -0.2982 -0.0477
19557W        W62470  25.118  32.041   5.843 -0.0358  0.1539  0.3979
19558W        W62471  13.671   5.597   4.696 -0.0767 -0.1790  0.1140
19559W        W62472   6.273   1.778   7.308 -0.1384  0.0295  0.3757
19560W        W62473  24.942   9.186   7.594 -0.0614  0.1826  0.3433
19561W        W62474  31.871  32.136   9.229 -0.0650 -0.2125 -0.0898
19562W        W62475  21.268   9.178   9.597  0.0583 -0.2802 -0.4171
19563W        W62476  19.157   2.823   7.115 -0.2619  0.1930  0.1483
19564W        W62477  18.107   4.972   3.145 -0.2502  0.1270  0.0294
19565W        W62478  13.760  33.271   8.830 -0.2005  0.1045 -0.2000
19566W        W62479   0.059   2.266  26.523  0.0537  0.3097  0.0488
19567W        W62480  27.439  11.578   4.102 -0.0128 -0.2681 -0.2841
19568W        W62481  23.568  33.947   9.498 -0.0655 -0.0189  0.1226
19569W        W62482  25.732   0.345   9.118  0.2823 -0.2412  0.3807
19570W        W62483  28.762   3.695  23.157  0.1679 -0.2044 -0.2231
19571W        W62484  31.319   3.924  29.365 -0.2306 -0.1348  0.0385
19572W        W62485  27.358  12.540   1.086  0.0739  0.0791 -0.0614
19573W        W62486  21.690  31.598   1.429  0.0789  0.0967 -0.2338
19574W        W62487   0.132   4.131  12.099  0.0971 -0.3013  0.0882
19575W        W62488  24.879  32.459   3.267  0.3356 -0.3010 -0.0684
19576W        W62489  24.706   0.325   4.550  0.2207 -0.1918 -0.0548
19577W        W62490   3.012  16.599   8.636 -0.2064  0.1052 -0.1271
19578W        W62491  20.969  30.365   8.796  0.0823  0.0962  0.0218
19579W        W62492  10.983  25.681  29.558 -0.2508 -0.3316 -0.0682
19580W        W62493  15.707  13.510  29.130 -0.1085  0.4082 -0.3666
19581W        W62494   2.125   7.599  11.331  0.2709  0.4176 -0.0721
19582W        W62495  29.611   2.283   9.082 -0.1035 -0.2051  0.0123
19583W        W62496  21.365  29.693   6.057  0.0001 -0.1453 -0.0907
19584W        W62497  31.641   0.296  11.179  0.3771  0.1644 -0.0186
19585W        W62498  24.150   9.570   7.974 -0.1880 -0.1999 -0.0069
19586W        W62499  23.521  34.486   3.407 -0.0020 -0.2848 -0.2473
19587W        W62500  24.228   6.267   7.413 -0.0445  0.0403  0.0533
19588W        W62501   1.077   1.326   1.598 -0.0161  0.2764 -0.0183
19589W        W62502  12.345  33.642  11.976 -0.0314  0.1662 -0.2846
19590W        W62503  20.684  12.318   7.238  0.1916 -0.2311  0.0900
19591W        W62504  22.688   3.418   1.878 -0.0334 -0.2416 -0.0532
19592W        W62505   5.480  33.281   7.307 -0.0938 -0.3779 -0.0305
19593W        W62506  30.431   2.836  26.978 -0.0145  0.2294  0.0357
19594W        W62507  27.771   9.429   1.818  0.0701  0.4829 -0.0023
19595W        W62508  17.696   5.674   8.424  0.0705  0.3939  0.0008
19596W        W62509  23.150   4.913   6.895 -0.0172  0.2672 -0.1338
19597W        W62510  16.379  32.768   0.298 -0.2739  0.0098 -0.2141
19598W        W62511  17.285   6.914  24.115 -0.2051  0.0289  0.2266
19599W        W62512  25.309   2.264   2.718 -0.0087  0.2745 -0.0920
19600W        W62513  30.619   3.307  29.536  0.2337 -0.1277  0.0577
19601W        W62514   6.106  27.330  27.499 -0.2056 -0.0923 -0.2075
19602W        W62515  21.653  32.574   5.612 -0.2534  0.2200  0.2502
19603W        W62516   5.344   4.652   8.665 -0.2018  0.1517 -0.3696
19604W        W62517  22.513  33.732   3.293  0.3824 -0.2634  0.0715
19605W        W62518  22.969  30.710   8.308 -0.0267 -0.0885  0.3134
19606W        W62519  33.122  32.217  27.953 -0.0637 -0.1989  0.0213
19607W        W62520  25.489  31.534   6.514  0.1365 -0.1679  0.1728
19608W        W62521  20.886  19.818  20.092 -0.4982 -0.3123 -0.2455
19609W        W62522  26.546  22.922   5.630 -0.0819 -0.3055  0.0456
19610W        W62523  25.853   4.496   3.031  0.0078 -0.3280 -0.2638
19611W        W62524   5.521   5.232   7.711  0.0210 -0.0227  0.0666
19612W        W62525   2.703  30.965   4.837  0.0812 -0.0574 -0.1958
19613W        W62526  24.603   6.335   5.387 -0.0232  0.0227  0.3378
19614W        W62527  24.813  11.290   8.181  0.2025  0.0053  0.0605
19615W        W62528  30.063  34.293   2.309  0.1520 -0.2542  0.5202
19616W        W62529  16.534   2.917  29.717  0.1228 -0.2468 -0.1943
19617W        W62530  30.092   4.035   7.148  0.0640  0.3161  0.3293
19618W        W62531   3.585  31.730   2.527  0.0545 -0.2378 -0.0531
19619W        W62532  26.900  10.554   6.687 -0.0922  0.3321  0.0357
19620W        W62533   2.162   1.285   0.121  0.1181  0.0128  0.0654
19621W        W62534  26.677  10.435   2.624 -0.0644 -0.0257 -0.0454
19622W        W62535   9.848   7.532   7.204 -0.2111  0.1461  0.0469
19623W        W62536  22.473  26.067   6.461  0.2331  0.2081  0.0680
19624W        W62537   7.724   2.544  11.495 -0.0849 -0.2120 -0.1320
19625W        W62538  33.330  31.406   1.903  0.3055 -0.3371  0.0773
19626W        W62539  22.960  30.602   6.551 -0.3173  0.0392  0.1274
19627W        W62540  30.616   0.285   0.427 -0.1657 -0.2668 -0.1434
19628W        W62541  16.357  10.415   5.959  0.0178  0.1681  0.2731
19629W        W62542  21.641  30.719   8.212 -0.2825 -0.0600 -0.1888
19630W        W62543  27.838  28.965  29.776  0.0159  0.2517 -0.1942
19631W        W62544  24.556   2.394   0.181 -0.2115  0.1087 -0.0284
19632W        W62545  15.614   1.052   3.737 -0.1569  0.1298  0.0741
19633W        W62546  28.185   4.060   2.057 -0.4231 -0.1822 -0.0426
19634W        W62547  30.175   3.643   8.166  0.2072  0.1060 -0.1234
19635W        W62548  16.531   2.546   3.957 -0.2352  0.0420 -0.2269
19636W        W62549  29.941  27.413  28.102 -0.1349 -0.2416 -0.0575
19637W        W62550  21.877   4.054  17.940 -0.2120  0.1849 -0.1742
19638W        W62551  18.792   5.174   4.363  0.3039  0.1885  0.3026
19639W        W62552  27.777   5.014   7.016 -0.2416 -0.0411  0.2332
19640W        W62553  19.157  33.458   4.457 -0.3006  0.1145 -0.2029
19641W        W62554  15.301  12.228  26.335 -0.2704 -0.2170  0.0720
19642W        W62555  30.846  26.334   7.877 -0.2791 -0.1537 -0.0160
19643W        W62556  21.872   1.224   6.061 -0.2630 -0.1145 -0.4245
19644W        W62557  28.984   8.834  10.715  0.2255 -0.2655  0.1854
19645W        W62558  30.404   6.552   0.193  0.0801  0.1258  0.0105
19646W        W62559  24.090  33.056   7.084  0.0181  0.0568 -0.0002
19647W        W62560  31.365   0.187   1.187 -0.0414  0.3206  0.3571
19648W        W62561  32.884  15.924   8.310  0.2470  0.3462  0.2746
19649W        W62562  24.682  11.328   5.927 -0.1903 -0.0086 -0.0734
19650W        W62563   4.643   5.547  12.856 -0.1725  0.0276 -0.2128
19651W        W62564  14.389   6.368   3.257  0.1200 -0.0580 -0.0978
19652W        W62565  28.492  25.320   1.213 -0.0695 -0.2682  0.2348
19653W        W62566  21.767  28.747   4.205 -0.1090  0.2627  0.3935
19654W        W62567  24.538  31.667  26.365 -0.0896 -0.1819  0.1639
19655W        W62568  25.083  29.046   1.103  0.1420 -0.1157 -0.3225
19656W        W62569  23.830   3.329  27.875 -0.1448 -0.1434  0.1230
19657W        W62570  12.706  32.628   5.926  0.0025 -0.0955 -0.0876
19658W        W62571  16.001   6.465   4.257  0.0556 -0.1449 -0.1606
19659W        W62572   0.968  29.082   1.864 -0.2923  0.0155 -0.0624
19660W        W62573  26.949  33.961  26.962  0.2028 -0.0651 -0.1586
19661W        W62574  20.393   7.866   9.032  0.0225  0.1709 -0.0732
19662W        W62575  21.415  10.911   7.082 -0.3710  0.3260 -0.1465
19663W        W62576  23.390  31.729   4.490 -0.0064  0.1706 -0.1247
19664W        W62577  18.793   2.669  28.086  0.2056 -0.0158 -0.2302
19665W        W62578   1.177   8.336  10.663  0.0080  0.0025  0.1525
19666W        W62579  31.914   3.694  19.266  0.0347 -0.3078  0.1571
19667W        W62580  21.552  23.732   0.542 -0.1462  0.0040 -0.0421
19668W        W62581  23.980   8.311   6.109  0.3608  0.0986  0.0198
19669W        W62582  27.274  13.619   2.602 -0.2922 -0.0532  0.2441
19670W        W62583  19.938   7.032   7.699  0.3416 -0.0336  0.1072
19671W        W62584  24.622  30.582   3.577 -0.0672  0.0020  0.0238
19672W        W62585  15.656  32.895   9.203  0.1686 -0.0955 -0.0601
19673W        W62586  17.588   4.107   8.589 -0.4435  0.0391  0.0271
19674W        W62587  18.400   5.359   8.229  0.3359  0.3135  0.1218
19675W        W62588  31.522   6.330   5.038 -0.1511  0.1258  0.1905
19676W        W62589  13.375   1.232   7.860 -0.0645  0.1831 -0.1611
19677W        W62590  17.558  33.669   8.746  0.2260 -0.1824  0.0065
19678W        W62591  32.925  33.538   9.076 -0.2633  0.1668 -0.1159
19679W        W62592  24.120  10.651   5.271  0.0252 -0.1126  0.1615
19680W        W62593  27.450  12.846   2.789  0.0297 -0.2049  0.2398
19681W        W62594  20.328  34.012   5.668  0.0526  0.3504  0.0779
19682W        W62595  20.643   6.885   1.689  0.0338 -0.1952 -0.0928
19683W        W62596  23.491   5.402   2.815  0.1846 -0.1105  0.0363
19684W        W62597  17.949   9.185   0.119  0.1798  0.0677  0.1150
19685W        W62598  17.457  34.153  10.720 -0.0445  0.1852 -0.2734
19686W        W62599  23.357  22.343   6.031  0.2878 -0.2527  0.0224
19687W        W62600  15.105  25.869   1.521 -0.1813  0.3570  0.1073
19688W        W62601  25.875  34.139   3.403 -0.1605 -0.1432 -0.2158
19689W        W62602  19.879   0.545   7.319  0.0316  0.2175  0.0666
19690W        W62603  27.375   3.721   3.792 -0.0072  0.0162  0.0454
19691W        W62604  21.800  12.365  24.300  0.0033  0.0937  0.2211
19692W        W62605  21.442  33.283   8.936  0.0386 -0.0394 -0.0510
19693W        W62606  27.900   3.591   9.643  0.1029 -0.0277 -0.3241
19694W        W62607  19.549  27.255   2.010  0.0388 -0.1092 -0.1582
19695W        W62608  28.031   4.507   2.542  0.0556 -0.0260  0.2169
19696W        W62609   1.220  33.057   0.664  0.0342 -0.4254 -0.0482
19697W        W62610  29.385   4.501   4.009  0.1329  0.6037  0.0075
19698W        W62611  17.818   5.691   4.210  0.0064 -0.1114  0.1754
19699W        W62612  27.762   6.968   7.605 -0.2539  0.4028 -0.1059
19700W        W62613  32.441   0.767   7.589 -0.0513 -0.3065  0.0720
19701W        W62614  18.710   1.931   2.322  0.0621  0.0593 -0.2562
19702W        W62615   2.910   4.758   3.641  0.1817  0.2187 -0.0848
19703W        W62616  23.797  32.926   7.908 -0.0028  0.0592  0.2096
19704W        W62617  19.977   6.713   4.810  0.0800 -0.0029  0.0119
19705W        W62618  17.332   4.787   9.611 -0.0099 -0.0522 -0.1734
19706W        W62619  12.417   0.617   6.294  0.1161 -0.1062  0.4393
19707W        W62620  20.357  28.301   2.888  0.1450  0.1576 -0.0573
19708W        W62621  23.846  32.058   9.698 -0.2765  0.3377  0.2992
19709W        W62622  27.075  31.871   9.954  0.3742 -0.1169  0.2759
19710W        W62623  22.870  27.517   5.414  0.1947 -0.0493 -0.1184
19711W        W62624  25.376   0.056   0.600 -0.2189 -0.0662 -0.0639
19712W        W62625   2.225  10.450   8.670  0.1627 -0.1892  0.1723
19713W        W62626  15.798  29.136   6.344  0.3501 -0.0084  0.1892
19714W        W62627   4.292  31.473   9.172 -0.1698  0.2435  0.1277
19715W        W62628  15.822  12.804  29.274 -0.2302 -0.2163  0.0122
19716W        W62629  22.676  34.457   9.669 -0.1573 -0.0943 -0.0270
19717W        W62630  21.691   3.509   0.046 -0.0525 -0.0200 -0.0961
19718W        W62631  28.100  30.445   8.338  0.0725 -0.2629 -0.1970
19719W        W62632  13.186   3.473  29.296 -0.0260  0.4349  0.3026
19720W        W62633  20.860   1.540  28.594 -0.1882 -0.1855 -0.0742
19721W        W62634  26.408   7.285   6.621  0.0447  0.2637 -0.0209
19722W        W62635  20.438  26.021   3.787  0.0404  0.0076  0.0291
19723W        W62636  27.206  10.726  28.879  0.3045  0.2407  0.0900
19724W        W62637  26.060  13.097  27.328  0.1147 -0.1628 -0.0231
19725W        W62638   2.204   8.135   8.608  0.2967  0.1004  0.0718
19726W        W62639  17.205   0.377   7.992  0.1408 -0.0570 -0.4198
19727W        W62640  20.929   1.257  17.537  0.2442  0.0009  0.0732
19728W        W62641  25.095  11.724  22.905  0.2396  0.1131 -0.1979
19729W        W62642  20.846  28.940   2.728 -0.1901 -0.0775 -0.1501
19730W        W62643  27.536   3.377   9.974  0.1138 -0.2805 -0.0770
19731W        W62644   2.890  25.656  28.599 -0.0055 -0.2997 -0.3047
19732W        W62645  26.809  34.227   8.461 -0.1466 -0.0488  0.0654
19733W        W62646  21.767   3.665   9.192  0.1838 -0.1630  0.2051
19734W        W62647  16.024  24.208   3.594  0.1069 -0.0801  0.1338
19735W        W62648  29.997   0.801   7.135  0.1528  0.2261 -0.0106
19736W        W62649  32.049  34.424   9.854 -0.0571 -0.0013 -0.1778
19737W        W62650  30.602   8.212   5.442 -0.1266  0.0151 -0.2223
19738W        W62651  23.134  30.455   5.591 -0.0226 -0.0026 -0.2512
19739W        W62652  29.310   6.795   8.028 -0.1733 -0.1841 -0.1089
19740W        W62653  28.766  32.785   8.655  0.0524  0.1077 -0.1668
19741W        W62654  30.375   1.134  11.893  0.0795  0.0830 -0.1317
19742W        W62655  25.960  34.312   7.098  0.1903 -0.0503  0.0136
19743W        W62656  25.926  26.227  20.534 -0.0972 -0.0241 -0.5798
19744W        W62657  20.630  32.990   8.152  0.1530  0.1804 -0.3720
19745W        W62658  16.009   0.365   5.796 -0.2206 -0.0818  0.0091
19746W        W62659  33.756  12.304  10.182 -0.1219  0.0498  0.1158
19747W        W62660  12.918   3.001   9.780 -0.0168 -0.2424  0.0282
19748W        W62661  18.850  29.285   4.028  0.2319  0.0509  0.2754
19749W        W62662  26.025  31.434   6.443 -0.1387  0.3255  0.2544
19750W        W62663  28.999  34.101   8.702  0.0486  0.0774  0.2518
19751W        W62664  21.298   2.054   5.950 -0.1547 -0.1996 -0.0927
19752W        W62665  28.405  31.903   4.660 -0.0538 -0.1456  0.1205
19753W        W62666  18.497   3.035   9.658 -0.0790  0.0664 -0.1043
19754W        W62667  31.473   5.961   3.652  0.4172 -0.3356  0.0730
19755W        W62668  19.297  25.894   0.930 -0.2765  0.3095  0.2385
19756W        W62669  16.097  34.114   1.963 -0.1081  0.2377  0.1025
19757W        W62670  29.723   8.215  24.431 -0.2031 -0.0497 -0.3166
19758W        W62671  24.598   7.272  29.324 -0.0677  0.0932  0.1092
19759W        W62672  16.552  10.253   0.465  0.3510 -0.0948  0.3458
19760W        W62673  21.355  10.226   0.232 -0.1468 -0.2721 -0.4699
19761W        W62674  28.257  32.462   0.533  0.0569 -0.0465 -0.4222
19762W        W62675  32.419   5.743  10.502 -0.2416  0.1771 -0.0500
19763W        W62676   8.609  34.432  28.687  0.2610 -0.1425 -0.0686
19764W        W62677  30.892  11.922   7.439  0.0653 -0.1157  0.0904
19765W        W62678  31.295   1.563   2.898 -0.0991  0.2352  0.1826
19766W        W62679  16.112   1.592   0.227 -0.2404  0.2127  0.2540
19767W        W62680  19.286  25.809   4.331 -0.0840 -0.0455 -0.1385
19768W        W62681   3.367   9.959  28.036  0.0782  0.0116  0.2259
19769W        W62682  25.744  34.475   8.761 -0.0228 -0.2022  0.2679
19770W        W62683  23.583   3.890   8.416  0.1559  0.2194 -0.1689
19771W        W62684  18.245  18.577   6.013  0.0594 -0.0550  0.3047
19772W        W62685  17.526  31.078   3.637  0.2381 -0.1110  0.3923
19773W        W62686  12.421   3.690  10.060 -0.0249  0.1767 -0.0344
19774W        W62687  32.319   3.004   9.552 -0.0500  0.0862  0.1586
19775W        W62688  17.975   8.146  28.372 -0.1669 -0.0091 -0.1227
19776W        W62689  26.715   0.921   5.170 -0.4447 -0.3189  0.0433
19777W        W62690  24.860  16.819  25.779 -0.2591 -0.0941 -0.1983
19778W        W62691  24.905  29.420   4.030  0.0670  0.1092  0.0960
19779W        W62692  32.803   7.789   6.667  0.2213  0.3606 -0.1550
19780W        W62693   1.174  11.496   2.338 -0.0089 -0.3166  0.1610
19781W        W62694  33.642  20.530  26.710  0.0901  0.1568  0.0219
19782W        W62695  25.322   3.695   3.947  0.0237  0.0064 -0.0259
19783W        W62696   4.652   2.747  29.346 -0.0221 -0.2952 -0.1509
19784W        W62697  27.794  29.077   3.288  0.3386  0.1505 -0.2695
19785W        W62698  17.511  10.578   5.825 -0.0885 -0.2109  0.0370
19786W        W62699  18.793   1.096  28.586  0.0162 -0.3751 -0.0070
19787W        W62700  33.736   3.284   9.023 -0.1249  0.3488 -0.0475
19788W        W62701  28.285   3.115   5.591 -0.0694  0.1761 -0.3274
19789W        W62702  31.974   4.689   1.180 -0.2148 -0.0480  0.0421
19790W        W62703   7.549  32.333  26.939 -0.0894  0.1859  0.0452
19791W        W62704  18.991  23.489   3.005  0.0329 -0.0560  0.0043
19792W        W62705  22.897  12.080   5.610 -0.0430  0.0629 -0.0400
19793W        W62706  22.707   7.137   7.133 -0.0134  0.1318  0.2392
19794W        W62707  23.022  10.699  28.648  0.0066 -0.1118  0.0232
19795W        W62708  22.118  32.763   8.936  0.0993 -0.0938  0.2097
19796W        W62709  23.260   6.982   5.731  0.2125 -0.1863 -0.0369
19797W        W62710  31.759   9.014   5.984 -0.0254  0.1502  0.1674
19798W        W62711  20.670   1.462  26.452 -0.0862  0.0571  0.0716
19799W        W62712  33.884  10.046   7.996  0.2412 -0.0482 -0.0384
19800W        W62713  14.821   3.965  27.713 -0.0344  0.1398  0.2462
19801W        W62714  18.420   5.342  27.386  0.1313 -0.3960 -0.1043
19802W        W62715  25.869  10.487   8.415 -0.0816 -0.0552 -0.0040
19803W        W62716  32.524   1.306   9.796  0.2085  0.1212 -0.0253
19804W        W62717  27.422  29.496   4.646  0.1006  0.3036 -0.2709
19805W        W62718  16.260  28.840   1.292  0.5007  0.0004  0.2502
19806W        W62719   2.058   0.088   2.441 -0.0345 -0.2342 -0.0031
19807W        W62720  14.764  12.583  29.687  0.0664  0.0511 -0.1950
19808W        W62721  23.736  27.605   5.878 -0.1206  0.1125  0.3645
19809W        W62722  22.386   5.242   4.471 -0.0968  0.0004 -0.2767
19810W        W62723  13.450   3.484   8.594 -0.3615 -0.1750  0.2107
19811W        W62724  19.515  30.252   7.892 -0.0654 -0.2001 -0.1165
19812W        W62725  25.712   3.112   7.397 -0.2861  0.2227 -0.1647
19813W        W62726  20.019   1.088   7.954  0.2227  0.1174 -0.0852
19814W        W62727  32.000   0.358   6.575  0.0763 -0.2386  0.0625
19815W        W62728  33.412   1.415   0.720  0.2948 -0.1574  0.0180
19816W        W62729  22.722   4.453   6.881  0.0346 -0.0350 -0.0989
19817W        W62730  26.103   2.018   6.393 -0.1577  0.0276  0.2683
19818W        W62731  18.737   7.741  26.595  0.3484  0.2411  0.0558
19819W        W62732  28.338  34.275  23.321 -0.1454  0.0564  0.0088
19820W        W62733   0.632   2.388  11.724 -0.1829  0.3107 -0.1571
19821W        W62734  20.364  33.446   9.681 -0.0640 -0.0937  0.1902
19822W        W62735  28.000   2.038   9.069 -0.1407 -0.1521  0.0309
19823W        W62736  29.396   3.662  29.298  0.1798 -0.1253 -0.1092
19824W        W62737  25.857  28.584   2.329  0.1915 -0.1912 -0.3343
19825W        W62738   8.009   1.063   7.204 -0.1344  0.0550  0.0367
19826W        W62739  29.915   8.830   5.805 -0.1782  0.0632  0.0039
19827W        W62740  30.223   0.213   9.233  0.0567 -0.0290  0.1472
19828W        W62741  19.368  34.100  29.654 -0.1521  0.2167 -0.0003
19829W        W62742  22.142  11.478   0.993  0.1332  0.1659  0.1983
19830W        W62743   1.065   2.448  11.280  0.1737  0.1654 -0.2709
19831W        W62744  34.056  24.158   3.823 -0.3725  0.0016 -0.0181
19832W        W62745  24.064   3.431  22.828 -0.0107 -0.2956  0.2685
19833W        W62746  27.493  31.588  28.735  0.1734 -0.1462  0.0586
19834W        W62747  13.650   5.193  10.753 -0.1671  0.5005 -0.0047
19835W        W62748  16.533   7.188   7.118 -0.0625  0.1516 -0.0515
19836W        W62749  23.922  28.594   6.300  0.0746  0.0460  0.1143
19837W        W62750  16.736   0.733   2.593  0.0452  0.0732  0.3284
19838W        W62751   2.879   4.631   8.223  0.4654  0.1913  0.0026
19839W        W62752  15.793  31.241   2.701 -0.2791  0.1687 -0.2820
19840W        W62753  14.891  34.446  29.280 -0.0556 -0.3063  0.0909
19841W        W62754  18.721   1.506  29.077  0.1103  0.1235  0.0169
19842W        W62755  21.751  33.773  27.950  0.3566 -0.1413 -0.0341
19843W        W62756  14.606  33.169   4.042  0.0771  0.2181 -0.2548
19844W        W62757  29.357   4.605   5.171  0.1367  0.0902 -0.1762
19845W        W62758  26.047  16.014   0.464 -0.6537 -0.0313  0.0295
19846W        W62759  25.619  33.891   5.315  0.2894 -0.2222  0.0958
19847W        W62760  17.753  27.684  29.518  0.2780 -0.0270  0.1860
19848W        W62761  26.880  30.845  29.029 -0.0459 -0.0686  0.1102
19849W        W62762  27.920  14.487   7.904  0.1709 -0.2001  0.0850
19850W        W62763  18.144  27.428   1.655  0.2437 -0.2032  0.0062
19851W        W62764  24.316  32.350   9.837 -0.0011  0.0499  0.0542
19852W        W62765   3.296   1.314  10.112 -0.0024 -0.3217 -0.2166
19853W        W62766  29.041   4.524   7.872  0.3497  0.2045 -0.0385
19854W        W62767  13.652   5.861   3.653  0.2635  0.1344 -0.2606
19855W        W62768  27.003  11.116  27.175 -0.4686  0.2258  0.1650
19856W        W62769   0.213  26.971  10.117  0.1036  0.1443  0.1164
19857W        W62770  13.733  28.734   8.697  0.0317 -0.2135  0.0456
19858W        W62771  22.924   9.972   8.813 -0.2484 -0.2753 -0.1558
19859W        W62772  29.826   3.257   7.653  0.1819 -0.0474 -0.1858
19860W        W62773  29.139  32.006  29.019 -0.1532  0.0122  0.2033
19861W        W62774  25.341  14.375   9.808  0.0924  0.0894 -0.1069
19862W        W62775  31.941  17.029  28.346  0.0488 -0.0539  0.0203
19863W        W62776  27.034   5.630   1.634 -0.1136  0.1881 -0.0474
19864W        W62777  19.978  27.194  26.764 -0.3052 -0.3892 -0.0574
19865W        W62778  27.366   7.042  10.038 -0.2736 -0.3004  0.0868
19866W        W62779  32.084  13.407   4.725  0.0387  0.2139  0.0845
19867W        W62780  23.801  10.256   4.288 -0.1198 -0.1296 -0.1864
19868W        W62781  26.406  11.639   2.867  0.4272  0.1053 -0.1089
19869W        W62782  23.764   0.743   0.013  0.2389  0.1202 -0.4089
19870W        W62783  14.991   4.419   2.581 -0.0493  0.0494 -0.0408
19871W        W62784  23.271   5.916   1.733 -0.0310  0.0059  0.0783
19872W        W62785  21.099  28.608  23.802  0.2101 -0.2563 -0.0421
19873W        W62786  13.744  30.215   0.768  0.0714 -0.0315 -0.2062
19874W        W62787  19.570   3.338   2.383 -0.1887  0.1992 -0.0421
19875W        W62788  20.470   0.369   4.798 -0.4201  0.1995  0.0349
19876W        W62789  17.741   9.776   9.529  0.1597  0.1629  0.2577
19877W        W62790  31.737   6.012  11.371 -0.0264 -0.1531  0.3333
19878W        W62791  21.123   2.243   5.476 -0.3238  0.2294  0.4684
19879W        W62792  22.398  10.085   3.478  0.1959 -0.1607 -0.1852
19880W        W62793  19.910   5.716   7.224 -0.1494 -0.0783 -0.0044
19881W        W62794  21.295   5.057   9.241 -0.0209  0.0436 -0.1858
19882W        W62795  18.596  26.797   9.164  0.1706 -0.1314 -0.0627
19883W        W62796  19.684   2.664   4.007 -0.0911 -0.0721  0.0767
19884W        W62797  23.646   6.577   1.185 -0.1289 -0.0981 -0.0332
19885W        W62798  33.231  12.690   6.661  0.2655 -0.2324 -0.0524
19886W        W62799  12.538  31.857  11.910 -0.1478 -0.0352  0.2180
19887W        W62800  21.735   0.606   7.617 -0.0082 -0.3196  0.0067
19888W        W62801  20.730  33.267  23.115  0.0601  0.0196 -0.2296
19889W        W62802  29.723   1.169   9.575 -0.0000 -0.0326  0.1956
19890W        W62803  24.560   4.580   2.992  0.2972  0.0140  0.1457
19891W        W62804  12.240  25.533  28.920 -0.1208 -0.1674  0.0554
19892W        W62805  23.180  10.804   1.095  0.1901  0.2584 -0.1678
19893W        W62806   1.128  11.448   1.482  0.1273  0.2315 -0.3335
19894W        W62807  28.496  27.502   0.344  0.2828 -0.0197 -0.2297
19895W        W62808  27.941   7.517   3.427  0.1047  0.0657  0.2685
19896W        W62809  26.758  28.800   3.455 -0.2293  0.0287  0.0198
19897W        W62810  31.811  11.471   2.917 -0.1234 -0.1901  0.0316
19898W        W62811   7.228   1.573   2.880  0.1040  0.0797  0.0272
19899W        W62812  15.684  13.616   6.757  0.3074 -0.2730  0.2981
19900W        W62813  20.402   0.203   1.967  0.3971  0.1129 -0.0117
19901W        W62814  33.378   7.972  28.746 -0.1156 -0.0920  0.0290
19902W        W62815  10.500  10.567   3.760 -0.3086 -0.1299  0.0578
19903W        W62816  21.069   5.055   9.641 -0.0896  0.0527  0.2447
19904W        W62817  21.104   9.976   5.170 -0.0772 -0.3088  0.0095
19905W        W62818  27.602   2.865   5.783  0.0412 -0.0343 -0.2169
19906W        W62819  24.458   0.678   6.900  0.1963 -0.0290  0.0225
19907W        W62820  23.482  33.957   8.985 -0.0892  0.2570 -0.2840
19908W        W62821  27.762   7.328  10.196 -0.0751 -0.4015 -0.1452
19909W        W62822  27.237  11.123   3.706 -0.0116 -0.0526 -0.1686
19910W        W62823  30.411   4.664   9.451 -0.1852 -0.0761 -0.7208
19911W        W62824  21.258   4.251   8.706  0.1092 -0.0096 -0.1509
19912W        W62825  20.321  30.191  28.411 -0.0119 -0.0855 -0.0188
19913W        W62826  27.114  31.510   8.246  0.1915  0.1251 -0.0303
19914W        W62827  33.446  27.900  28.978  0.3122  0.2908  0.2450
19915W        W62828  31.793  33.067   8.764  0.1938 -0.2386  0.3145
19916W        W62829  30.948   5.362   6.498  0.2849  0.0595 -0.1558
19917W        W62830  20.203   5.928   5.243 -0.0464  0.2945  0.1831
19918W        W62831  15.458  26.923   1.778 -0.3171  0.1949 -0.1892
19919W        W62832  12.091   5.707   9.959  0.1576  0.0402 -0.4844
19920W        W62833  13.673   4.499   6.138  0.0730  0.0798  0.2695
19921W        W62834  21.973   7.480   9.424 -0.1121 -0.4300 -0.2056
19922W        W62835  26.262  33.497   4.822 -0.2020 -0.0312 -0.2447
19923W        W62836  26.488   9.853   6.250 -0.0306  0.0465  0.1165
19924W        W62837  16.458  27.441  10.185 -0.1484 -0.1679  0.1482
19925W        W62838  20.759  11.933   4.860  0.1701  0.1589 -0.0460
19926W        W62839   1.088   0.313   6.128  0.2783 -0.2449  0.2582
19927W        W62840  31.106  12.445  28.929  0.0820 -0.1491 -0.3597
19928W        W62841  20.038  22.347   7.088  0.3123  0.0766 -0.0779
19929W        W62842  11.032   8.753   3.268 -0.1786 -0.0654  0.0405
19930W        W62843   9.111  31.128  11.452 -0.0722 -0.2179  0.2801
19931W        W62844  19.017   3.568   6.181 -0.0945 -0.0248  0.0812
19932W        W62845  27.223   2.162   8.426  0.2430 -0.2874 -0.0719
19933W        W62846  19.135  26.731  28.241  0.1804 -0.2336 -0.1297
19934W        W62847  17.911   3.703  29.710 -0.0368  0.2087 -0.0587
19935W        W62848  18.021   5.099  10.626 -0.0384  0.0899 -0.2170
19936W        W62849   0.538   2.175   6.718  0.2419 -0.0217 -0.1441
19937W        W62850  18.708  29.526   2.950  0.2911 -0.0936  0.1324
19938W        W62851  20.115   6.033   2.530  0.2932  0.4763  0.0891
19939W        W62852  15.044  27.086   1.501  0.2733 -0.2052  0.5525
19940W        W62853  20.959  26.285   2.901  0.0492  0.3457 -0.0292
19941W        W62854  32.138   6.435  10.566 -0.2932  0.2702 -0.2296
19942W        W62855  28.583   5.773   2.709  0.2537  0.1352  0.2584
19943W        W62856  18.174  30.321   3.814 -0.1429  0.1117  0.0697
19944W        W62857  23.411   9.277  29.082 -0.0717  0.0274 -0.1532
19945W        W62858   9.897   1.189  10.045 -0.1140  0.0097  0.0735
19946W        W62859  20.829  15.234   5.660  0.2420  0.0515 -0.3355
19947W        W62860  22.314   4.412   9.537  0.1144 -0.0715  0.0410
19948W        W62861   3.886  16.721   6.163 -0.4021 -0.3205  0.1336
19949W        W62862  18.340  31.471   8.946 -0.1248  0.0302  0.2291
19950W        W62863  14.160  30.909   7.058  0.2728 -0.1691 -0.0415
19951W        W62864  22.629  32.413   7.461 -0.0601  0.2053  0.3648
19952W        W62865  15.157  33.346   4.337  0.1619 -0.1372 -0.2197
19953W        W62866  25.087  34.242   7.806 -0.0330  0.2035  0.0852
19954W        W62867  22.797   8.458   1.772 -0.1557 -0.2123  0.0298
19955W        W62868  28.748   2.745  28.642 -0.1566  0.1925  0.1345
19956W        W62869   9.962  33.418  27.812 -0.0255 -0.1553  0.2348
19957W        W62870  27.025   8.399   5.324  0.2919  0.2395  0.1714
19958W        W62871  25.033   2.846   6.853 -0.0827 -0.1321 -0.1062
19959W        W62872  33.771  28.199   6.476  0.0751 -0.0180  0.2565
19960W        W62873  22.188  33.046   6.336  0.0935 -0.0571  0.0767
19961W        W62874  11.691   4.510   4.118 -0.0178  0.0514 -0.2670
19962W        W62875  27.336  10.042   9.440 -0.1688  0.2116  0.0626
19963W        W62876  24.828   1.021   8.393 -0.0961 -0.0253  0.0091
19964W        W62877  31.862   4.820   6.208 -0.2936 -0.1208  0.0741
19965W        W62878  31.024   9.389   1.954 -0.0145 -0.1752 -0.0207
19966W        W62879  31.599  12.533   3.642 -0.2163 -0.1062  0.0777
19967W        W62880  19.385   4.614   4.191  0.2273 -0.1789 -0.1615
19968W        W62881  15.733   8.082   1.421  0.4332  0.1164 -0.1184
19969W        W62882  18.720  22.108   7.228 -0.3640 -0.0988 -0.1293
19970W        W62883  27.358   5.386   7.471  0.0095 -0.0546  0.0868
19971W        W62884  27.437  33.757   4.567 -0.2586 -0.0766  0.3459
19972W        W62885  13.278   2.553  29.582  0.0699  0.1989 -0.2527
19973W        W62886  27.274  31.855   5.596 -0.0429 -0.0797 -0.1531
19974W        W62887  32.889  13.710   6.793  0.2500  0.1987 -0.1880
19975W        W62888  20.662  31.608   8.457 -0.0612 -0.0951  0.1834
19976W        W62889  30.694   5.669   7.784  0.1700 -0.0316  0.1650
19977W        W62890  29.252  31.531   0.439 -0.0569 -0.2848 -0.1892
19978W        W62891  30.946   0.680   4.078 -0.0929  0.1007  0.1086
19979W        W62892  31.166   2.985  10.463 -0.0117  0.1832  0.2071
19980W        W62893   7.085  10.471   3.451  0.0337 -0.3385 -0.2105
19981W        W62894  29.114  26.986   3.517 -0.0808  0.0585 -0.0281
19982W        W62895  30.389   0.722   8.013 -0.0984  0.0666 -0.1659
19983W        W62896  17.750  25.088   6.189  0.1650  0.0016  0.2011
19984W        W62897  26.982  33.944   0.404  0.1324  0.2867 -0.3438
19985W        W62898  26.356  14.098   8.029 -0.0334  0.0675  0.0677
19986W        W62899  33.771  15.492   8.057 -0.2639 -0.0948  0.0110
19987W        W62900  23.882   4.185   1.538  0.0622 -0.0050  0.0084
19988W        W62901  27.471   1.264   9.198 -0.1833 -0.0309  0.0212
19989W        W62902  31.400   8.717   6.739  0.0133 -0.0508  0.2958
19990W        W62903   1.562  16.026   0.332 -0.0127 -0.1060 -0.1390
19991W        W62904  23.670   5.299   8.812 -0.5113  0.0999 -0.2993
19992W        W62905  29.812   2.335   3.699 -0.2794  0.2979 -0.1798
19993W        W62906  17.945   6.688   8.530  0.2707  0.1708 -0.3146
19994W        W62907  11.777   7.014   7.771  0.1054 -0.0497 -0.0657
19995W        W62908  26.371  26.318   7.405 -0.0348  0.1976 -0.2187
19996W        W62909  24.493   5.120   7.859 -0.1422  0.0886 -0.0451
19997W        W62910  23.342  15.833   2.099  0.0697 -0.1163  0.2699
19998W        W62911  24.465   1.550   7.018  0.2050 -0.2380 -0.0800
19999W        W62912  25.369  12.213   8.300  0.3050  0.0389 -0.1047
20000W        W62913  31.097   3.502  27.313  0.3252  0.1100 -0.1457
20001W        W62914   9.811   0.797   9.216  0.0725 -0.2746  0.1800
20002W        W62915   1.167   3.251   1.931 -0.0471 -0.3895  0.3409
20003W        W62916  34.393   1.097   1.784 -0.2203 -0.1561 -0.3411
20004W        W62917  24.731   0.210   6.925  0.0096 -0.0112 -0.2024
20005W        W62918  25.749  29.968   6.213  0.1118 -0.0615  0.2279
20006W        W62919  29.176   1.141   8.391 -0.0780 -0.2177  0.2808
20007W        W62920  17.858  27.178  28.144 -0.2039  0.0513  0.1729
20008W        W62921  21.271  31.106   3.359  0.0748 -0.2028  0.1586
20009W        W62922  25.074   7.247   5.526 -0.2812  0.0583  0.5912
20010W        W62923  26.934   4.030  29.146 -0.1368  0.2296 -0.0129
20011W        W62924  23.728   9.361   7.801  0.0651 -0.5535 -0.0808
20012W        W62925  24.881  30.106   7.466  0.3433 -0.0103  0.4314
20013W        W62926  30.185  34.456   0.593 -0.2042  0.0275 -0.2913
20014W        W62927  27.067  28.603  29.292 -0.0471  0.0851  0.1014
20015W        W62928  28.342   0.263   3.919 -0.0987  0.1864 -0.0718
20016W        W62929  25.950  32.421   6.447  0.3744 -0.2636 -0.1212
20017W        W62930  33.111   3.322   7.743 -0.1785 -0.1482  0.1352
20018W        W62931  25.174  33.480   6.608 -0.1965  0.0830 -0.0769
20019W        W62932  29.799   9.126   5.422 -0.0478  0.2422 -0.0283
20020W        W62933   1.810   9.127  10.222  0.0714 -0.1692 -0.1932
20021W        W62934  21.275  16.209   7.655 -0.2945 -0.1268 -0.1386
20022W        W62935  20.761   8.748   3.593 -0.2067 -0.2717  0.0607
20023W        W62936  33.584  17.089   8.713 -0.1544  0.1041 -0.3832
20024W        W62937   3.432  11.143  29.408 -0.0943 -0.1925  0.1303
20025W        W62938   9.000   0.640   6.496 -0.2666  0.3827 -0.0942
20026W        W62939   1.885   0.673  26.141  0.0602 -0.1816 -0.2990
20027W        W62940  22.090   4.660   2.023 -0.1877 -0.1957 -0.0921
20028W        W62941  14.233  32.244   4.351  0.2227 -0.3237  0.0547
20029W        W62942  29.940  32.552   7.321 -0.1928 -0.0844  0.3080
20030W        W62943  24.707  20.183   5.248  0.0990  0.0692 -0.0725
20031W        W62944  22.117  28.507   2.450 -0.1893  0.0985  0.0053
20032W        W62945  26.560   3.251   9.789 -0.0436  0.0384  0.2491
20033W        W62946  28.702   3.357   9.276 -0.0751 -0.1799  0.2069
20034W        W62947   4.772   8.098  10.278  0.2794  0.2061  0.2788
20035W        W62948  25.840   8.218   4.434  0.1251  0.0071 -0.0330
20036W        W62949  13.858  26.095   1.604 -0.3049 -0.2169 -0.2001
20037W        W62950  25.593   0.272   9.610  0.0717 -0.4789 -0.3073
20038W        W62951   9.446   9.831   3.779  0.1238 -0.0215 -0.0374
20039W        W62952  32.593  32.076   8.668 -0.3478 -0.0460  0.1139
20040W        W62953  20.969  32.891   1.959 -0.1513 -0.1043  0.1103
20041W        W62954  27.048   2.350   3.661 -0.1671 -0.0064  0.1462
20042W        W62955  19.413  32.546   6.705 -0.0494  0.0883 -0.1010
20043W        W62956  29.928  10.063   1.634  0.0699 -0.2319  0.0465
20044W        W62957  16.851   4.490   2.751  0.0319  0.1804 -0.1754
20045W        W62958   7.488   8.390   5.869  0.0273 -0.0867  0.1090
20046W        W62959  34.115  28.706   7.249 -0.1059  0.1877  0.2651
20047W        W62960  28.597   0.892  10.166  0.1843 -0.0043  0.0434
20048W        W62961  25.605   3.624   6.734 -0.2097 -0.0290 -0.1536
20049W        W62962  24.654   6.504   2.094  0.0091 -0.2198  0.0454
20050W        W62963  26.176   5.408   9.478  0.1916 -0.0801 -0.0123
20051W        W62964   5.411  31.356   9.944  0.1789  0.0362 -0.2186
20052W        W62965  14.704   3.295   9.825  0.5042  0.4791 -0.2026
20053W        W62966  15.422   0.191   7.354  0.1079  0.0208  0.0622
20054W        W62967   3.182   3.823   6.909  0.0739  0.0130 -0.0752
20055W        W62968  27.286  28.732   3.993  0.2045 -0.1348  0.0701
20056W        W62969  26.956   5.142   4.959  0.1919  0.0659 -0.0156
20057W        W62970   1.136   1.499  10.986  0.0073  0.0924 -0.0482
20058W        W62971  24.485   2.391   3.735 -0.2158 -0.0729  0.2108
20059W        W62972  33.734   0.704  10.017  0.2206  0.0103 -0.1927
20060W        W62973  25.708   1.919   2.791  0.1026  0.1748  0.1485
20061W        W62974  25.615   8.782  27.655  0.3628  0.0994  0.3598
20062W        W62975  29.899   2.754   7.363  0.0545  0.1156  0.2672
20063W        W62976  30.212   1.907   6.383  0.1053 -0.0449 -0.3764
20064W        W62977  26.663  10.699   0.249  0.1232  0.0230  0.1235
20065W        W62978  27.036   2.698   9.123  0.0676 -0.1713  0.0887
20066W        W62979  13.618  32.337   3.086  0.3258 -0.2663 -0.3461
20067W        W62980  22.209  10.955   5.944 -0.4532 -0.0173 -0.1397
20068W        W62981  12.075   4.800  11.712 -0.0862  0.0428  0.0475
20069W        W62982  21.053  21.872  27.737 -0.1568  0.0784  0.4716
20070W        W62983  32.358   2.328   4.743 -0.2398 -0.2283  0.1027
20071W        W62984  16.577   8.229   5.571 -0.2833  0.2961  0.2186
20072W        W62985  23.667  31.631   6.243  0.0371 -0.1243  0.3893
20073W        W62986  20.401   8.432  29.547 -0.3255  0.1646  0.0715
20074W        W62987  17.711   2.813   9.016 -0.3420 -0.3192  0.0948
20075W        W62988  17.860   1.672   6.943  0.2086  0.0759 -0.0080
20076W        W62989  21.205  30.606  29.598  0.3445  0.2624  0.1366
20077W        W62990  26.428   4.959   5.173  0.0563  0.2181 -0.1382
20078W        W62991  24.522  10.479   3.070 -0.0809 -0.1180  0.1610
20079W        W62992  19.040   4.101  10.076 -0.1524 -0.0414  0.0442
20080W        W62993   6.086  31.987   5.225  0.3424 -0.3503 -0.3088
20081W        W62994  13.289  29.023  23.062  0.1268 -0.1482 -0.0576
20082W        W62995  25.127  32.820   8.013 -0.0656 -0.3219  0.0496
20083W        W62996  31.684   2.585   8.005  0.4631  0.0470  0.0591
20084W        W62997  20.514  23.413   0.612  0.0701 -0.1588 -0.0139
20085W        W62998  17.296   1.693   9.723  0.2237 -0.0893  0.1380
20086W        W62999  22.583   4.469   5.802 -0.0321  0.0427  0.1093
20087W        W63000  31.257  33.338   7.365 -0.1102  0.0527  0.0846
20088W        W63001  28.384  30.308   7.915  0.1859  0.0210 -0.0912
20089W        W63002  29.093   7.008   9.459  0.2147 -0.0137  0.0584
20090W        W63003  20.212   5.799   8.182 -0.1063 -0.1372  0.0142
20091W        W63004  28.660   5.951   8.580 -0.1170  0.0224  0.1760
20092W        W63005  28.724  29.894   8.223  0.2271 -0.0286  0.4361
20093W        W63006  29.223   0.546   7.442 -0.1086 -0.0882 -0.1764
20094W        W63007  21.313   0.464   2.034  0.0506 -0.1470 -0.0927
20095W        W63008  22.054  33.514   8.482  0.0503 -0.0270  0.2289
20096W        W63009  14.989   4.101   7.338  0.0436  0.1543  0.0234
20097W        W63010  25.387  25.829   5.512 -0.4652  0.0336 -0.1705
20098W        W63011  21.396   9.607   4.588  0.3466  0.0191 -0.1655
20099W        W63012   4.625  31.797   8.938  0.0345  0.0136 -0.3160
20100W        W63013  28.453  34.170   2.506  0.0927 -0.3357 -0.1188
20101W        W63014  19.727   2.213  29.530  0.4298  0.1032  0.1571
20102W        W63015  22.291  32.429   5.597 -0.1737 -0.0053  0.0512
20103W        W63016  18.024   8.024   1.366  0.2192  0.1197  0.0687
20104W        W63017  16.722  30.769   1.280  0.0131 -0.0126 -0.0364
20105W        W63018  20.376   1.434   9.188  0.0450  0.0440 -0.2303
20106W        W63019  23.948  33.223   1.002 -0.1002 -0.1013 -0.2203
20107W        W63020  26.109  13.943   5.107 -0.0818  0.0186  0.0084
20108W        W63021   6.654  14.521   6.997  0.1308 -0.1586 -0.0016
20109W        W63022  32.860  12.385   5.816 -0.1601  0.1910  0.2343
20110W        W63023  30.424   1.922   5.025 -0.1207 -0.1843 -0.0110
20111W        W63024  29.162  30.432   6.669  0.0910 -0.1898  0.1337
20112W        W63025  31.251  19.359   5.730 -0.0822  0.1507 -0.1603
20113W        W63026  34.282  34.149  10.381  0.2982 -0.3092 -0.0750
20114W        W63027  20.885   7.836   3.997  0.1323  0.0943  0.0589
20115W        W63028  14.733   1.288   4.912  0.2535 -0.2836 -0.2576
20116W        W63029  16.827  29.533   1.831  0.2726  0.2782  0.0844
20117W        W63030  20.403  13.601   7.053  0.2253  0.1459  0.1513
20118W        W63031  11.785  28.650   8.779  0.1972  0.2267 -0.1716
20119W        W63032  13.421  33.598   9.039 -0.4224 -0.1530 -0.0869
20120W        W63033  34.067  32.874   6.321 -0.0357  0.3392  0.0501
20121W        W63034  27.315   2.014   5.906 -0.0735  0.0313 -0.2060
20122W        W63035  14.881   0.657  11.176 -0.1069 -0.1606  0.1273
20123W        W63036  25.326  23.512   6.715 -0.1029  0.1084 -0.0482
20124W        W63037  17.943  26.817   9.372  0.0407 -0.3468  0.2971
20125W        W63038   0.688   7.018  11.649  0.0826  0.1577 -0.0409
20126W        W63039  20.377  30.004   2.905  0.3368 -0.0777  0.0501
20127W        W63040  15.612   5.251   3.584  0.1298  0.0716  0.0107
20128W        W63041  22.767   0.040   9.123  0.0774 -0.1580 -0.1299
20129W        W63042   9.734  34.445   4.773 -0.0887  0.1141  0.1002
20130W        W63043  34.043   4.973   6.722  0.1425  0.1953  0.2408
20131W        W63044  33.543   7.584   4.811 -0.1452 -0.0991 -0.0284
20132W        W63045  32.226   2.946   5.883  0.0878  0.2169  0.1897
20133W        W63046  22.016   8.575   6.538  0.0424  0.0602 -0.0361
20134W        W63047  24.452   2.618   1.838 -0.0916  0.2561  0.0590
20135W        W63048  16.968   1.966   8.077  0.0026  0.1538 -0.1453
20136W        W63049   3.773   6.452  28.511 -0.1840 -0.0313  0.3269
20137W        W63050  15.780   5.967   8.254 -0.2399  0.0367 -0.0421
20138W        W63051  24.180  20.073   8.087 -0.2399 -0.1579 -0.0306
20139W        W63052  31.993  14.133   7.662  0.0935 -0.0280 -0.0552
20140W        W63053   4.997  31.071   9.862  0.4064  0.2029 -0.0256
20141W        W63054  28.300   5.098  28.233  0.2153 -0.0208 -0.0937
20142W        W63055  22.797   5.885   5.763 -0.1025  0.5785  0.1176
20143W        W63056  24.650  29.114   3.276  0.1542  0.0494 -0.0178
20144W        W63057  24.831   1.380   8.722 -0.0748 -0.3076  0.2144
20145W        W63058  23.529  24.904   1.496 -0.2075 -0.2506 -0.2449
20146W        W63059  15.493  24.572   0.072 -0.3181 -0.0793  0.2369
20147W        W63060  34.146  15.478  27.851 -0.1050  0.0117  0.0494
20148W        W63061  14.411   1.170   7.076 -0.1750 -0.0100 -0.1703
20149W        W63062  32.627   4.748  10.261  0.3053 -0.2800  0.0705
20150W        W63063  20.952  20.326  29.310 -0.2240  0.0315  0.0357
20151W        W63064  28.376   0.035   0.805  0.1434 -0.0159  0.2603
20152W        W63065  23.792  27.106   6.064 -0.0502 -0.0935 -0.0886
20153W        W63066  26.333   0.713   2.985  0.0478 -0.1162  0.2042
20154W        W63067  24.489  26.489   4.057  0.1758 -0.2808 -0.0048
20155W        W63068  32.143   4.261   2.506 -0.0836  0.0733 -0.0745
20156W        W63069  19.847  32.938   8.529  0.1906  0.1295  0.0529
20157W        W63070  24.947  12.912   3.781  0.0556  0.0353 -0.1138
20158W        W63071  13.748  32.829   3.426 -0.0441 -0.1345 -0.0732
20159W        W63072  17.311   2.748   8.634  0.0828 -0.0205  0.0606
20160W        W63073   4.522  32.042   9.851  0.0826  0.1404  0.2786
20161W        W63074  24.530   1.429   3.563  0.2274 -0.1664  0.2984
20162W        W63075  21.533   6.337   2.992  0.1694 -0.3272 -0.2941
20163W        W63076  33.037  32.519   7.854  0.1759 -0.0424 -0.3930
20164W        W63077  15.306   3.670   1.257 -0.0404 -0.0740  0.0394
20165W        W63078   2.281   1.793   8.063  0.1205  0.1550  0.2414
20166W        W63079  20.895   8.344   1.197 -0.1468  0.0795  0.0867
20167W        W63080   4.799   4.936   3.372 -0.0679 -0.0213 -0.0044
20168W        W63081  34.242   3.269   6.455  0.0744  0.2247  0.1882
20169W        W63082  23.345   3.163   5.909 -0.1739  0.0581  0.0278
20170W        W63083  24.138  27.116   7.110 -0.1148 -0.0370  0.2439
20171W        W63084  27.635   6.132   7.265  0.0414  0.3068  0.0756
20172W        W63085  19.501  11.096   6.227  0.1845 -0.0691 -0.1391
20173W        W63086   1.565   2.268   8.130 -0.0080 -0.0694  0.0900
20174W        W63087  19.794  33.406   2.424 -0.0941 -0.1315 -0.1407
20175W        W63088  31.824   1.263   8.384  0.0836 -0.1463  0.3672
20176W        W63089  22.038  29.498   7.675 -0.0914  0.0807  0.1384
20177W        W63090  23.582   8.838   5.379  0.1327 -0.1495  0.0941
20178W        W63091  16.480  12.611   6.845 -0.2870  0.0757  0.0018
20179W        W63092  13.235   4.112   7.427  0.3346 -0.0020  0.0214
20180W        W63093  30.976  33.707   9.448 -0.0040 -0.2796 -0.1153
20181W        W63094  31.474  33.744  10.383  0.0028  0.1890  0.2074
20182W        W63095  25.494   0.462   8.396  0.1079 -0.0231  0.1430
20183W        W63096  25.348   2.089  28.122  0.0244  0.0148 -0.1250
20184W        W63097   1.486   4.247   6.155  0.1284  0.0067 -0.0335
20185W        W63098  28.105   6.158   8.946 -0.2013 -0.0900  0.1957
20186W        W63099  25.617   3.223   5.631 -0.0346  0.3937 -0.0687
20187W        W63100  32.724   1.329   4.913 -0.1750  0.0667 -0.0676
20188W        W63101  22.349   0.942   3.214  0.2087 -0.0328  0.0761
20189W        W63102   4.755   6.628   4.017  0.2267  0.1389 -0.1438
20190W        W63103  11.131   5.970   5.281 -0.0634  0.0178 -0.3560
20191W        W63104  24.259   5.789   1.775 -0.2504 -0.1323 -0.2455
20192W        W63105  13.796  16.158   2.384  0.0306  0.0923 -0.1790
20193W        W63106  30.823   3.370   3.552  0.1904  0.0474  0.2516
20194W        W63107  14.652   5.690   9.457  0.2587  0.2684  0.0862
20195W        W63108  17.661   9.721   0.171  0.0655 -0.0854 -0.2371
20196W        W63109  15.769  30.506   7.893  0.0071 -0.0873 -0.1343
20197W        W63110  26.326  33.438   4.116 -0.1161 -0.1110  0.2310
20198W        W63111  24.152  27.200  19.578  0.0742 -0.0064  0.1541
20199W        W63112  33.166   8.234  10.515 -0.1920  0.2601  0.2008
20200W        W63113  31.735  29.200   5.389  0.0054 -0.2097  0.4384
20201W        W63114  17.928   9.695   5.230 -0.3268 -0.2157  0.1511
20202W        W63115  24.785  29.137   5.620 -0.0664 -0.0152  0.0732
20203W        W63116  27.460   4.183  10.312  0.3820 -0.1647  0.1159
20204W        W63117   0.044  33.358   4.701  0.1992  0.0109  0.2099
20205W        W63118  17.707   8.342   0.096  0.3474 -0.2218  0.2973
20206W        W63119  24.134  10.905   6.657  0.0495  0.2451  0.1124
20207W        W63120  32.089   1.897   9.069 -0.0199  0.0351 -0.0854
20208W        W63121  21.045   9.609   8.799  0.0511  0.2021 -0.1211
20209W        W63122  26.969  32.825   7.942 -0.1064  0.2716  0.2583
20210W        W63123  20.895   1.836   8.428  0.1873  0.0412 -0.1877
20211W        W63124   5.848  33.837   6.003 -0.1155  0.2612  0.0147
20212W        W63125  29.964   2.338   5.207 -0.3082 -0.1016  0.0406
20213W        W63126  22.176   5.090   7.073 -0.4973  0.5016  0.0643
20214W        W63127  30.478   9.738   5.888  0.0410 -0.2374 -0.0852
20215W        W63128  25.719  32.923   2.053 -0.0793 -0.1534  0.0788
20216W        W63129  33.023   2.215   7.971  0.0448  0.1248 -0.3274
20217W        W63130  23.801  27.026   1.146  0.1242 -0.2472 -0.0186
20218W        W63131   0.528   1.409   7.198 -0.1637 -0.1180 -0.1188
20219W        W63132  29.436   8.484   0.351  0.2544 -0.3958 -0.1992
20220W        W63133  18.570  31.183   5.301 -0.0452 -0.1924 -0.0007
20221W        W63134  26.112   2.665   9.044 -0.2710 -0.2353 -0.0966
20222W        W63135  20.012  32.558   8.760 -0.1163  0.1511 -0.0160
20223W        W63136  26.738  10.522  27.767  0.3210  0.0960 -0.0741
20224W        W63137   1.477   5.964  10.553  0.0432  0.1733 -0.0814
20225W        W63138  23.087  10.752   8.312  0.0675  0.0688  0.2532
20226W        W63139  29.168   5.814   3.946  0.3459  0.3072 -0.0058
20227W        W63140  10.873  33.197  27.862 -0.0279 -0.4384 -0.1604
20228W        W63141  22.821  27.419   6.598  0.2369  0.1667 -0.0172
20229W        W63142  30.919   0.612   7.789  0.0035 -0.1686 -0.1161
20230W        W63143  24.476  30.335   8.102  0.6865  0.2435  0.1449
20231W        W63144  15.729   2.752   7.906 -0.0752  0.0317 -0.2206
20232W        W63145  16.002  14.731   0.577  0.1450 -0.2789  0.3442
20233W        W63146  15.295  13.665  22.897  0.0546 -0.0818 -0.1255
20234W        W63147   8.571  14.041   4.597  0.0987  0.0291  0.0593
20235W        W63148  20.380  15.750   5.389 -0.0153  0.5088  0.0220
20236W        W63149  30.513   2.997   2.507 -0.2546 -0.0475  0.0713
20237W        W63150  24.270   9.454   6.876  0.0449 -0.2027 -0.1184
20238W        W63151  32.886   6.682   0.328 -0.1594  0.2525 -0.1648
20239W        W63152  27.317  32.570  26.863  0.3563 -0.0060 -0.2675
20240W        W63153  18.772  29.663  27.832  0.1265 -0.1579  0.1785
20241W        W63154  19.349   1.531   5.075  0.0479 -0.0384  0.1883
20242W        W63155  20.179   5.133   4.418  0.0393 -0.0666  0.0151
20243W        W63156  21.247   3.754   8.990  0.0281 -0.2167  0.3672
20244W        W63157  19.370   0.659  22.816 -0.2373  0.0542 -0.0864
20245W        W63158  20.527  12.148   6.209  0.2837  0.1720 -0.1323
20246W        W63159  23.564  34.060   9.981  0.0565 -0.0216 -0.0707
20247W        W63160   1.213   1.992   5.736 -0.0343 -0.3094 -0.2709
20248W        W63161  22.354  25.404   2.840  0.1220 -0.0093  0.0232
20249W        W63162  29.736  33.970  27.235  0.0233 -0.1047  0.2039
20250W        W63163  13.891  29.650  29.655  0.2741 -0.2046 -0.0212
20251W        W63164  19.409  32.734   1.204  0.2504 -0.0290 -0.0020
20252W        W63165  24.905   1.395  28.165 -0.0118 -0.1702 -0.3986
20253W        W63166  27.202  11.127  29.283  0.2271 -0.3663  0.0683
20254W        W63167  26.166   5.028   3.838 -0.2399 -0.1365  0.0897
20255W        W63168  10.997   3.700   5.576 -0.1742 -0.1851 -0.1422
20256W        W63169  20.154  28.423   0.552 -0.1221  0.0434 -0.0997
20257W        W63170  31.519  17.466  29.156 -0.2672  0.0317  0.0174
20258W        W63171  28.913  15.019   0.645 -0.0605  0.0681  0.3301
20259W        W63172  19.504  11.485   0.724  0.1215  0.1184 -0.0607
20260W        W63173   0.894  33.071   7.542  0.3914 -0.4639  0.3886
20261W        W63174  20.022   5.801   6.034 -0.5351 -0.1214 -0.0020
20262W        W63175  22.724  12.411   2.436 -0.0201  0.1657  0.2377
20263W        W63176  24.515   4.576   7.638  0.2291  0.1762  0.0659
20264W        W63177  29.427   4.014   4.931 -0.2073  0.1770 -0.1797
20265W        W63178  28.218  33.673   6.383 -0.1368  0.2047 -0.1142
20266W        W63179  19.525  12.524  24.184  0.0679  0.1441 -0.1917
20267W        W63180  27.033  14.011   9.920 -0.2234 -0.3488 -0.0719
20268W        W63181  20.037   4.240   9.333 -0.1088 -0.0770  0.0809
20269W        W63182  23.351   9.425   8.644  0.1804 -0.1718  0.1266
20270W        W63183  29.592  18.015  25.523  0.1378 -0.1037  0.1972
20271W        W63184  23.757   3.373   0.573  0.2064 -0.1156 -0.1871
20272W        W63185   8.743   1.020   4.824  0.2590 -0.2419  0.2226
20273W        W63186  20.713   4.429   7.457 -0.0681  0.3698 -0.2586
20274W        W63187  27.183   0.376   0.240 -0.1734  0.1257 -0.0261
20275W        W63188  23.057  10.864   3.847 -0.1705 -0.0435  0.0080
20276W        W63189  22.466  20.772   1.750  0.1383 -0.1021  0.0795
20277W        W63190  23.041   4.844  25.918  0.0812 -0.1241  0.2775
20278W        W63191  17.686  27.923  26.330 -0.1667 -0.2867  0.0799
20279W        W63192  28.493   6.440   8.794  0.0686  0.1007 -0.3227
20280W        W63193  27.957   4.138   0.802  0.5828  0.0542  0.1768
20281W        W63194   0.408   5.459   7.606  0.0067 -0.0947 -0.0237
20282W        W63195  21.190   4.226   3.184  0.0461  0.1472  0.0433
20283W        W63196  26.201   3.904   9.963 -0.0875  0.0996 -0.0074
20284W        W63197  23.391   8.121   9.173 -0.2460  0.0244  0.3403
20285W        W63198  31.755  12.023  26.824 -0.1597 -0.1345 -0.1144
20286W        W63199  24.297   6.698   9.953  0.0166 -0.1620 -0.0008
20287W        W63200  26.550   2.462   7.692  0.3354 -0.0330 -0.1187
20288W        W63201  12.306   0.445   8.449  0.0844 -0.1549  0.0791
20289W        W63202  15.163   6.333   4.312 -0.1158 -0.1193  0.2110
20290W        W63203  26.959  14.020   4.658 -0.3025  0.1119  0.2176
20291W        W63204  26.683   5.332   6.759 -0.0072  0.2706  0.3275
20292W        W63205  22.088   3.065   5.793  0.3318  0.0946  0.0993
20293W        W63206  18.905   1.701   2.692  0.0685 -0.0707 -0.0022
20294W        W63207  21.950   7.232   3.537 -0.0414  0.1049 -0.4653
20295W        W63208   9.002   2.677  29.542  0.0860  0.1152 -0.0105
20296W        W63209  21.447   4.741   2.602 -0.1205 -0.0823 -0.1158
20297W        W63210  21.242  30.517  26.545  0.3098  0.3259  0.1061
20298W        W63211   0.970   9.772   0.662  0.1757  0.1719 -0.1146
20299W        W63212  24.477   4.077   0.421 -0.1738 -0.0181  0.1631
20300W        W63213  19.741  11.650  27.337  0.2395 -0.1045 -0.2128
20301W        W63214  18.880   1.790  22.669  0.1461 -0.1546  0.2058
20302W        W63215   2.375  11.907   1.826  0.1103 -0.1577 -0.0559
20303W        W63216  25.594   6.729   6.053  0.3060  0.5167 -0.1916
20304W        W63217  24.638  33.302  19.719  0.0585  0.1162  0.0169
20305W        W63218  21.508  14.005  27.221 -0.0540  0.1644  0.4364
20306W        W63219  28.825  18.809  22.733 -0.2421  0.3736  0.3440
20307W        W63220  16.105  11.851   5.116 -0.0876 -0.3957  0.3013
20308W        W63221  24.697   5.092  22.981  0.0753  0.0621  0.3386
20309W        W63222  22.376   1.277  27.085 -0.1398 -0.0517  0.1608
20310W        W63223  24.329  11.114   1.289 -0.1402 -0.4054  0.1711
20311W        W63224  19.089  32.664   0.237 -0.0771 -0.0461  0.1368
20312W        W63225  32.521   3.455   4.709  0.0722  0.1498 -0.3436
20313W        W63226  12.643   5.284  17.526 -0.0796  0.1918  0.1515
20314W        W63227  28.898   8.585   5.658  0.2879  0.4721  0.0365
20315W        W63228  20.981   8.928   3.172  0.2137 -0.2421  0.4504
20316W        W63229  28.124  34.141   3.502  0.0059  0.2058  0.0206
20317W        W63230  21.095   2.951  28.922  0.2851 -0.0968 -0.0220
20318W        W63231  23.805   4.183  29.191  0.1757  0.1857  0.3395
20319W        W63232  18.305   9.933  26.611 -0.1503  0.0598 -0.2417
20320W        W63233  32.860  25.008  29.270  0.0258 -0.0436  0.3562
20321W        W63234  32.346   7.916   8.741 -0.4235 -0.0379 -0.0227
20322W        W63235   2.010  11.365   3.450 -0.1495  0.1512  0.2204
20323W        W63236  27.421   8.628  10.313 -0.3683  0.0126  0.1331
20324W        W63237  16.658   1.488   2.844 -0.0795  0.1535  0.1089
20325W        W63238  11.585   7.178  20.149  0.1277  0.2420 -0.3137
20326W        W63239  21.004  28.658   4.173  0.1801  0.1606 -0.1585
20327W        W63240  27.597   2.453   0.666  0.2076 -0.0092  0.2046
20328W        W63241  30.869  13.286  19.454  0.0369 -0.0998 -0.1375
20329W        W63242  23.211  11.185  23.478 -0.0606  0.1213  0.1249
20330W        W63243  22.141   5.374   3.398 -0.2915  0.1810 -0.1027
20331W        W63244  14.629   7.975  16.510  0.2265  0.1426  0.0638
20332W        W63245  29.219  32.825   1.912 -0.0694  0.1177  0.1657
20333W        W63246  28.322  26.947  19.535 -0.1019 -0.2117  0.2149
20334W        W63247  24.751   4.944  22.520  0.0825  0.1094  0.1608
20335W        W63248   2.239   6.263  24.759 -0.2800  0.2455  0.2364
20336W        W63249  20.942  27.385  25.246  0.2851  0.1953  0.1108
20337W        W63250  11.899   2.746   0.709 -0.1341 -0.4761 -0.0832
20338W        W63251  21.892  10.459   0.647  0.3210  0.1331  0.1998
20339W        W63252  23.801   5.539   0.904 -0.1758 -0.1471 -0.1160
20340W        W63253  22.347  14.656   2.851  0.1055  0.2201  0.0408
20341W        W63254  21.595   9.594  28.641  0.3606  0.0326 -0.0176
20342W        W63255  28.186   9.389   7.352 -0.0009 -0.0730 -0.3693
20343W        W63256  20.470  10.106  27.403 -0.1745  0.0332 -0.1571
20344W        W63257   0.141   2.627   5.035 -0.1603  0.2408  0.1069
20345W        W63258  29.490  13.417   4.281  0.0021  0.1104  0.0054
20346W        W63259  23.422   0.492  24.611  0.4886  0.1711 -0.1952
20347W        W63260  14.285  29.158   0.287  0.3298  0.2424 -0.2676
20348W        W63261  19.773  16.309  29.032  0.1963 -0.2395  0.0532
20349W        W63262  22.473  11.839  25.421  0.1590 -0.0126  0.0749
20350W        W63263  30.381   5.029   2.995  0.0787 -0.0440  0.1276
20351W        W63264  25.584   4.320   2.138 -0.2207  0.0111  0.2263
20352W        W63265  19.842   7.562   1.857  0.0263  0.1472 -0.1025
20353W        W63266  20.218   8.646  25.853  0.2154 -0.1024  0.0080
20354W        W63267  29.017  30.421   2.879 -0.0804 -0.2467  0.2369
20355W        W63268  26.012   2.225   3.278 -0.1239  0.0849  0.2054
20356W        W63269  12.114   7.205   5.717 -0.2090  0.2978  0.1221
20357W        W63270  32.106   8.675  29.216  0.0154  0.0471  0.1927
20358W        W63271  31.762   6.845  23.425 -0.2522 -0.2537 -0.1470
20359W        W63272  15.485   6.343  27.210  0.2755 -0.0367  0.1225
20360W        W63273  19.871  13.939   8.286  0.0686 -0.1226  0.1648
20361W        W63274  15.817  10.588   4.687  0.3271  0.0074 -0.1847
20362W        W63275  26.575  33.129   8.001 -0.1307 -0.1188 -0.2558
20363W        W63276  16.769   0.376   3.445  0.0538  0.0135  0.1472
20364W        W63277  21.529  23.282   1.667  0.0156  0.0104  0.2207
20365W        W63278  21.080   0.745  28.116  0.0432 -0.1641  0.1253
20366W        W63279  24.190   2.054  25.456  0.2250 -0.0139 -0.0064
20367W        W63280  25.368  13.255   1.422 -0.1268 -0.2535 -0.0035
20368W        W63281  23.491   9.651   5.784 -0.0397  0.1949 -0.1290
20369W        W63282  31.742   9.801   8.211 -0.0121 -0.1908  0.0191
20370W        W63283  16.866   9.279  20.826  0.1840 -0.0687  0.0210
20371W        W63284  30.427  31.262  27.119 -0.3000  0.1139  0.0155
20372W        W63285   9.738  34.056  29.114  0.1060  0.2837 -0.0478
20373W        W63286  29.325  25.223  16.971  0.1062 -0.1578  0.1125
20374W        W63287  26.497  28.554  23.535  0.1497  0.0376 -0.0830
20375W        W63288  18.147  12.973   5.961 -0.1601  0.0861 -0.2125
20376W        W63289  23.517   9.706  21.564 -0.0114  0.2876 -0.1141
20377W        W63290  22.422  28.892  22.818  0.0046  0.2298  0.1950
20378W        W63291  33.374  14.251   4.055 -0.0290 -0.1731  0.0285
20379W        W63292  33.747  13.459  27.990 -0.1314  0.0608 -0.1813
20380W        W63293  25.065   2.509   4.668  0.0803 -0.4012  0.2791
20381W        W63294  19.175  29.939  24.175 -0.0139  0.3022  0.0790
20382W        W63295  29.389   8.034   7.108  0.2396  0.0716 -0.0504
20383W        W63296  30.789   4.963   4.685  0.0139 -0.1090 -0.0655
20384W        W63297  31.553   9.772  11.560  0.1855 -0.3370 -0.1169
20385W        W63298  29.194   1.959   1.506  0.3809  0.0348  0.0649
20386W        W63299  18.471   6.486  29.714  0.0887 -0.2408  0.2753
20387W        W63300   2.689   5.284   9.310  0.2726 -0.0617  0.3089
20388W        W63301  12.074   0.600  27.504 -0.0196  0.1059 -0.3375
20389W        W63302  24.695   7.007   4.783 -0.0455 -0.0343  0.1042
20390W        W63303  17.997  21.260   0.328 -0.2406 -0.0151 -0.0194
20391W        W63304  16.698   2.280  26.751  0.0928 -0.0776 -0.1178
20392W        W63305  28.109  19.127   0.295  0.1130 -0.2206  0.0845
20393W        W63306  24.955  10.884   5.083 -0.5675 -0.3047 -0.0268
20394W        W63307  12.279  31.008   3.432  0.3123 -0.0439 -0.0837
20395W        W63308  19.022   6.936   4.918 -0.4329 -0.0609 -0.1421
20396W        W63309  22.254  11.720  28.544  0.2392 -0.2815  0.3381
20397W        W63310  13.883   4.523   1.683 -0.2719 -0.1078  0.1149
20398W        W63311  28.235   9.311  24.653 -0.4909  0.0626  0.3870
20399W        W63312  19.948   5.278   6.882 -0.1271 -0.0770  0.1581
20400W        W63313  30.118   8.941   7.941  0.2589  0.5252 -0.0384
20401W        W63314  21.745  32.208  27.208  0.1452  0.0917  0.0218
20402W        W63315  24.766  32.586   9.043  0.0421  0.0242  0.0133
20403W        W63316  33.909   1.123   4.386 -0.0644 -0.0684 -0.2995
20404W        W63317  15.275  30.811  22.543  0.0860 -0.1714  0.4167
20405W        W63318  24.081   1.172   3.508 -0.0139 -0.0210  0.0039
20406W        W63319  33.063  32.203   2.439 -0.3564  0.0362 -0.2278
20407W        W63320  20.152   2.830  27.446 -0.0410 -0.1346 -0.0557
20408W        W63321  20.742  14.406  27.776  0.0376  0.2207  0.2386
20409W        W63322  20.918   2.593  25.449 -0.2473 -0.0740 -0.1375
20410W        W63323  21.555   6.855   9.359  0.0450 -0.3741  0.0259
20411W        W63324  18.000  10.184  15.644  0.1993 -0.5325 -0.3014
20412W        W63325  22.933   4.988   7.425 -0.0398 -0.2583 -0.0259
20413W        W63326  28.581  13.554   6.158  0.0555 -0.1656 -0.2312
20414W        W63327  26.004   1.243   9.715 -0.2495 -0.2127 -0.1827
20415W        W63328  24.682  10.053  16.699 -0.1032 -0.1919 -0.1874
20416W        W63329  24.309   5.859   8.274 -0.2657 -0.0908 -0.1888
20417W        W63330  22.193   7.719   6.128  0.2708  0.3040  0.2051
20418W        W63331  20.976  15.684  29.646  0.4475 -0.1255 -0.0789
20419W        W63332  31.000   0.247   8.595 -0.1557  0.0290  0.1456
20420W        W63333  29.394   7.529  27.350  0.1951  0.0540 -0.0362
20421W        W63334  30.863   4.855   6.604  0.0587 -0.1087  0.2408
20422W        W63335  27.481  17.979   5.004  0.1735  0.0471  0.1619
20423W        W63336   0.724  10.385  23.250  0.0479  0.0946  0.0212
20424W        W63337  31.288  34.047   8.530 -0.1195 -0.3352  0.2365
20425W        W63338   9.914  13.285  26.993 -0.0059  0.0722  0.3505
20426W        W63339  17.711  31.183   8.025 -0.0694 -0.0025 -0.1248
20427W        W63340  18.020  10.631   7.526 -0.1119  0.0567 -0.2592
20428W        W63341  19.534   9.803   0.200 -0.1414 -0.0028  0.1901
20429W        W63342  21.870  11.901   0.198 -0.0902  0.0305 -0.0526
20430W        W63343  25.837   1.255  22.734  0.2304  0.0272  0.1242
20431W        W63344  16.898   4.339   2.235 -0.2273 -0.1578 -0.2168
20432W        W63345  16.271   3.641   7.418 -0.0633 -0.1414  0.2133
20433W        W63346  29.788   5.448   7.228 -0.0211  0.1972  0.1128
20434W        W63347  24.482  16.594  21.721 -0.0595  0.4404  0.1112
20435W        W63348  16.959   3.663   6.201 -0.2506 -0.2722 -0.2245
20436W        W63349  24.742  33.695   0.758  0.1092 -0.0817 -0.0898
20437W        W63350   8.765   1.407   9.588  0.2746 -0.2046 -0.5693
20438W        W63351   0.868  15.476  29.081 -0.2429 -0.0066  0.0063
20439W        W63352  31.742   5.226   7.834  0.0907 -0.0261  0.2888
20440W        W63353  20.155   1.167  22.515 -0.1437 -0.0111  0.0245
20441W        W63354  24.960  31.200  27.006 -0.1070  0.3610 -0.1851
20442W        W63355  14.258  28.591   3.454 -0.0760  0.0438 -0.1128
20443W        W63356  23.786   6.016  29.687 -0.1144  0.3885 -0.1595
20444W        W63357  17.915   1.298   7.233 -0.1249 -0.0099 -0.0811
20445W        W63358  28.994   0.068  28.869 -0.0027 -0.0334  0.0065
20446W        W63359  26.286   0.579   0.525 -0.1950  0.0531  0.1333
20447W        W63360  28.930  25.051   0.450 -0.2374  0.0820 -0.0184
20448W        W63361  28.219   8.358   0.923  0.1384 -0.0448  0.0902
20449W        W63362  15.069   3.164  18.872  0.2101 -0.0911  0.2357
20450W        W63363  30.549  33.338  27.932 -0.3761 -0.4758 -0.0340
20451W        W63364  26.068   5.927   4.936  0.0426 -0.0627  0.0052
20452W        W63365  19.726   4.970   6.506  0.0443 -0.1925 -0.2299
20453W        W63366  26.771   6.364   9.451 -0.1437  0.3188  0.1228
20454W        W63367  11.027   1.878   3.232 -0.0530 -0.0529 -0.3087
20455W        W63368  25.724  13.694   7.996 -0.2741  0.0573  0.2256
20456W        W63369  20.827   2.897   9.365  0.1138  0.1468  0.1523
20457W        W63370  20.048  23.298  28.538 -0.1548 -0.2203 -0.0112
20458W        W63371  24.827   9.273   8.447  0.0429 -0.1199  0.0937
20459W        W63372  10.779   9.027   0.850 -0.2365 -0.0326  0.1901
20460W        W63373  30.911   6.547   6.569  0.1257  0.2491 -0.1754
20461W        W63374  23.364  11.289   4.821  0.3075 -0.0367  0.0291
20462W        W63375  12.002   5.881   4.340  0.0064  0.1934  0.0230
20463W        W63376  24.850  29.650   8.084 -0.0357 -0.1194 -0.1663
20464W        W63377  27.810   2.657   8.478 -0.1403 -0.0907  0.0053
20465W        W63378  31.815   8.459   9.796 -0.1300  0.0907  0.1866
20466W        W63379  17.765   5.426   7.955  0.0512 -0.1080 -0.0986
20467W        W63380   1.098   5.217   4.603  0.0989  0.0766 -0.1113
20468W        W63381  21.645   5.771  25.321  0.1561  0.0138 -0.0295
20469W        W63382  24.783  10.702   6.790 -0.0109 -0.0777  0.1064
20470W        W63383  22.361  32.937   5.794  0.0760  0.5381 -0.1089
20471W        W63384  16.800   7.121  24.282 -0.2072 -0.1008 -0.2099
20472W        W63385  17.472  10.688  28.532  0.0114  0.2403 -0.1899
20473W        W63386  34.267  32.349  28.784 -0.3078 -0.2278 -0.1163
20474W        W63387  14.911   7.351   1.918  0.0172  0.0250  0.1158
20475W        W63388  22.297   5.258   9.166  0.1435  0.0404  0.0924
20476W        W63389  19.401   5.340  25.714  0.0752 -0.2678  0.0134
20477W        W63390   6.255   4.723  29.703  0.2029 -0.4617 -0.0631
20478W        W63391  21.910   6.006   2.632 -0.3510 -0.0267 -0.0503
20479W        W63392   6.155   6.780   2.147 -0.0323  0.2248  0.4778
20480W        W63393  21.534  29.870   8.352 -0.0585 -0.2179  0.0797
20481W        W63394  28.660  12.909  19.771 -0.0516  0.1287  0.0871
20482W        W63395  27.219   5.578  24.010 -0.2206 -0.0345  0.1379
20483W        W63396  26.955  10.399   4.467  0.1619 -0.3428 -0.1237
20484W        W63397  20.809  12.870   0.227 -0.0309  0.3190  0.1126
20485W        W63398  21.732   2.638   2.852 -0.1529 -0.0198  0.0162
20486W        W63399  31.928  24.762  26.494 -0.0204  0.0950 -0.1718
20487W        W63400  20.375  25.585  22.495  0.0620 -0.1901  0.1127
20488W        W63401  23.855  34.280   9.685 -0.3404 -0.4019 -0.2320
20489W        W63402  17.873  27.992  29.010 -0.2978  0.0547 -0.0227
20490W        W63403  26.051   1.081   4.659  0.0249 -0.2521 -0.0988
20491W        W63404  23.919   4.418  29.678  0.0663  0.0459 -0.1082
20492W        W63405  28.273   6.780  10.879  0.3145 -0.2055 -0.1592
20493W        W63406  25.234   8.910   2.736 -0.0857 -0.1152 -0.0263
20494W        W63407  19.289   7.339   1.769  0.1338 -0.3337 -0.0321
20495W        W63408  15.799  29.013   2.980  0.2942 -0.1549  0.1060
20496W        W63409  16.134   0.799   9.215  0.2536  0.2243  0.1697
20497W        W63410  24.313   5.002   2.864  0.0300  0.0281  0.1578
20498W        W63411  25.913   6.675  28.544  0.3633  0.1598 -0.0143
20499W        W63412  29.924  34.281   4.439  0.2001  0.0232 -0.4477
20500W        W63413  23.261   0.745   7.887 -0.0379 -0.0289  0.1594
20501W        W63414  23.486  29.927   7.224 -0.2561 -0.0474  0.0879
20502W        W63415  25.187  34.356  26.062  0.0796 -0.0438 -0.3268
20503W        W63416  16.435  30.890  28.534 -0.3274 -0.0702  0.2510
20504W        W63417  21.103  32.583  21.943 -0.0775 -0.0412  0.2124
20505W        W63418  23.499   8.124  27.522 -0.0206 -0.1413 -0.0479
20506W        W63419  16.788   7.029   6.652 -0.0475  0.2097 -0.1731
20507W        W63420  32.124  11.402   1.839  0.1563  0.0980  0.2141
20508W        W63421  27.444  17.963  23.547  0.1403  0.2714  0.3559
20509W        W63422  19.066   2.276  29.512 -0.1440  0.1711  0.1457
20510W        W63423  30.716   3.531   5.685 -0.0119 -0.0976  0.2060
20511W        W63424  23.244  16.767  27.408 -0.3379 -0.1139  0.2669
20512W        W63425  23.730  31.156   7.324 -0.2857 -0.0987  0.0825
20513W        W63426   2.057  24.030  24.909  0.0893 -0.3081 -0.0447
20514W        W63427  33.145  10.286   5.166 -0.2579  0.2286 -0.2228
20515W        W63428  18.986  29.395  27.455 -0.1326  0.1473  0.0177
20516W        W63429  29.674  12.872   7.640  0.3367  0.1401  0.0521
20517W        W63430  24.723  29.112   6.842 -0.0135  0.3058 -0.0379
20518W        W63431  19.145  13.760  26.829 -0.0389  0.1612  0.3107
20519W        W63432  18.915  31.235   3.839  0.2395 -0.0487 -0.0132
20520W        W63433  16.863  27.021   3.225 -0.0981 -0.0321 -0.1257
20521W        W63434  17.878   7.232   0.386 -0.0407  0.2832 -0.1466
20522W        W63435  21.869  13.755  28.695  0.0194 -0.1374  0.0921
20523W        W63436  31.896  31.482   0.209  0.1574 -0.1222  0.1300
20524W        W63437  32.220  27.078   1.710  0.0434 -0.1738  0.1886
20525W        W63438   1.015   9.291   0.813  0.1586 -0.1391 -0.0088
20526W        W63439  23.625   1.265   0.044 -0.0130  0.1184  0.3145
20527W        W63440  33.678   4.010   5.642 -0.3497 -0.3112 -0.0276
20528W        W63441  17.839   3.309  24.884  0.0623  0.0036  0.2530
20529W        W63442  23.638  14.616   3.828 -0.2348  0.1489 -0.2199
20530W        W63443  25.822   6.564   0.308 -0.1300 -0.3089 -0.0450
20531W        W63444  19.033   8.234   2.147  0.1894 -0.4056 -0.1360
20532W        W63445  21.579   8.956   0.765  0.1547 -0.0532  0.0323
20533W        W63446  17.443   0.998   0.788  0.0068 -0.1728  0.1332
20534W        W63447  20.238   0.624   3.298 -0.2593  0.0703 -0.1735
20535W        W63448  30.479   1.253   0.888  0.1533  0.1185 -0.2097
20536W        W63449  31.731  15.374   3.737 -0.2870 -0.1083 -0.1758
20537W        W63450  21.673   3.742   7.420 -0.0175 -0.2195  0.3341
20538W        W63451  21.329  34.073   7.267 -0.0607 -0.0809 -0.2191
20539W        W63452  30.024  12.170   6.985 -0.1841  0.0480  0.4166
20540W        W63453  19.286  26.765   0.501 -0.0364 -0.0652 -0.0722
20541W        W63454  25.213   0.112   2.014 -0.5700  0.1227 -0.2536
20542W        W63455  20.153   7.069  26.144  0.2764  0.1802 -0.1270
20543W        W63456  25.336  31.672   3.370  0.0134 -0.3184  0.4062
20544W        W63457  23.550   1.509  25.596 -0.2464 -0.1449  0.1606
20545W        W63458  13.959  12.771  29.539 -0.0100 -0.3180  0.1793
20546W        W63459  23.841  16.476   7.195 -0.0345 -0.2111 -0.2051
20547W        W63460  22.882   3.005   6.247  0.0251 -0.0986  0.0977
20548W        W63461   1.005  31.105   9.301 -0.0061  0.0692 -0.1412
20549W        W63462  15.343   3.421  25.578  0.1094 -0.2741 -0.0408
20550W        W63463  21.589   9.916   5.810 -0.0297  0.2969 -0.0568
20551W        W63464  27.044   7.648   4.747  0.2975  0.1111 -0.1125
20552W        W63465  29.136  12.027  17.654  0.2833  0.0899  0.2428
20553W        W63466  18.819   7.438   0.132  0.3075 -0.1011  0.0292
20554W        W63467  20.120   1.071   6.547 -0.1223 -0.1245  0.2026
20555W        W63468  16.815   1.444   5.020  0.0340  0.1511  0.0306
20556W        W63469  25.818   3.159  27.055 -0.1759 -0.0665 -0.0542
20557W        W63470  27.884   5.840   6.701  0.0782 -0.1732  0.1812
20558W        W63471  20.198   6.940   3.700 -0.2735  0.1262  0.4764
20559W        W63472  26.027  15.336  25.644  0.2603  0.1572  0.0850
20560W        W63473  21.164   4.496  29.149 -0.2033  0.2911 -0.1347
20561W        W63474  18.443  15.505  25.888  0.0920 -0.1127 -0.0508
20562W        W63475  27.557  29.806  29.645  0.1172 -0.3526  0.0345
20563W        W63476  28.216   9.907   0.286  0.5458 -0.0882 -0.0641
20564W        W63477  29.995  13.941   6.777  0.1212  0.0685  0.1432
20565W        W63478   9.730   5.795  10.593 -0.2427  0.2395  0.0805
20566W        W63479  17.520  27.728   5.042 -0.2112 -0.0509  0.2523
20567W        W63480  26.530   3.197   4.452 -0.1584  0.1342  0.4043
20568W        W63481  11.530  13.825   0.665 -0.3551 -0.1412 -0.2524
20569W        W63482  25.067   2.807  28.706  0.3841  0.0366 -0.1365
20570W        W63483   0.894   3.708   4.500 -0.1249  0.3490 -0.1137
20571W        W63484  19.826   6.590   5.997 -0.2576 -0.0574 -0.0439
20572W        W63485  28.336  18.886  22.522 -0.0384 -0.1217 -0.2491
20573W        W63486  17.079  32.839   0.750 -0.0143  0.1029 -0.0106
20574W        W63487  20.239  33.891  10.651  0.2088  0.4526  0.0352
20575W        W63488  30.736   4.580   3.931 -0.2388  0.1638 -0.0982
20576W        W63489  19.795   2.494   9.476  0.1784  0.0722 -0.1364
20577W        W63490  26.974  29.068   5.498  0.0565  0.1647 -0.0721
20578W        W63491  34.364  11.432  29.357 -0.0161  0.0057  0.0502
20579W        W63492  21.908  17.973   1.451 -0.1154 -0.1625 -0.0649
20580W        W63493  22.114   6.699   0.165  0.0964 -0.0610 -0.1581
20581W        W63494  29.499  30.493   2.138  0.2548 -0.1152  0.0405
20582W        W63495  22.893  17.833   0.582 -0.0860 -0.1319 -0.1011
20583W        W63496  23.040  29.725   4.061  0.3914 -0.2911 -0.2559
20584W        W63497  26.786  15.904   3.549 -0.1639  0.0616  0.0527
20585W        W63498  18.423   2.137   2.738  0.0523  0.1226  0.0952
20586W        W63499  28.714   1.799  29.641 -0.1708  0.1771 -0.4392
20587W        W63500  24.115  10.483  29.082  0.2722  0.2375  0.2220
20588W        W63501  20.751  13.290   6.806  0.2095 -0.2194 -0.0950
20589W        W63502  20.479   6.037  29.384 -0.0400 -0.1211  0.0103
20590W        W63503  26.322   7.511  28.032  0.1489 -0.2384  0.2245
20591W        W63504  23.637  10.078  24.262 -0.2075 -0.0071  0.0289
20592W        W63505  19.232   1.215  26.563 -0.1166 -0.2920  0.1299
20593W        W63506  26.337  10.882   9.202  0.0152 -0.2057 -0.0261
20594W        W63507  31.179  34.065   6.052  0.2088  0.0805  0.0993
20595W        W63508  29.438   3.860   9.243  0.1051  0.0450 -0.1345
20596W        W63509  23.920  15.889  25.873 -0.3792 -0.1048  0.2010
20597W        W63510  18.342  16.280  29.587 -0.0740 -0.2719  0.0248
20598W        W63511  18.012   1.566  29.432  0.0152 -0.0424 -0.0447
20599W        W63512  27.761  18.595  24.061  0.0589 -0.0841 -0.1667
20600W        W63513  19.050   1.210  23.389 -0.1940 -0.0703  0.3370
20601W        W63514  15.972  33.499   4.195 -0.4347  0.1750 -0.2943
20602W        W63515  30.860   8.938  25.912 -0.0998 -0.0550 -0.0035
20603W        W63516   0.796   1.345   4.593 -0.0102 -0.1696  0.2447
20604W        W63517  10.109  23.114   0.055  0.1201  0.2823  0.2346
20605W        W63518  24.729  32.237  20.732  0.2467 -0.1469  0.1361
20606W        W63519  26.574   1.250   3.843  0.0587  0.0918  0.0148
20607W        W63520  19.430   2.965   9.366  0.0182 -0.0936  0.0556
20608W        W63521  22.526  12.122   8.036 -0.0681 -0.2961 -0.0550
20609W        W63522  25.776  15.707   9.724 -0.3068  0.0852 -0.1739
20610W        W63523  20.787  13.323  21.983  0.2024  0.0317  0.1121
20611W        W63524  30.624  13.428   8.855  0.0408 -0.0393  0.1571
20612W        W63525  30.087   8.122  10.581  0.0268  0.2346 -0.0066
20613W        W63526  28.015  13.066   0.089  0.1159  0.1702  0.0660
20614W        W63527  22.474   3.249   2.832  0.1554  0.1246 -0.3351
20615W        W63528  32.643   9.005   4.399  0.1082  0.0744 -0.2335
20616W        W63529  12.110   7.954   6.536  0.1218  0.3772 -0.1683
20617W        W63530  24.981  13.014   4.278 -0.0436  0.1466 -0.1892
20618W        W63531  30.939  22.530   4.422 -0.2480 -0.2249 -0.1565
20619W        W63532  21.528  10.807  26.665 -0.3122 -0.0263  0.0365
20620W        W63533  25.891   9.472   8.268  0.1135  0.2365 -0.2335
20621W        W63534  18.472   9.088  26.813 -0.1240  0.2629 -0.3060
20622W        W63535  18.910  33.884  16.306 -0.0245 -0.5794  0.2365
20623W        W63536  20.150   7.195   2.256  0.2113 -0.0379 -0.2473
20624W        W63537  25.475   5.316   0.830  0.2140  0.1179 -0.1587
20625W        W63538  27.134   6.014   9.765 -0.0606 -0.2271 -0.0571
20626W        W63539  32.929   9.834   7.299 -0.1509  0.2704 -0.2799
20627W        W63540  25.784   0.958   4.187 -0.1525 -0.1972  0.0761
20628W        W63541  18.501   3.370   3.110  0.0402  0.1716  0.2715
20629W        W63542  21.954  13.134  21.279  0.2466  0.4066 -0.0069
20630W        W63543  13.693  11.524   4.644 -0.1490 -0.1304 -0.0454
20631W        W63544  31.998   3.515  28.943  0.2221 -0.2448  0.1281
20632W        W63545  33.111   6.145   5.513  0.2769 -0.2539 -0.1797
20633W        W63546  29.531   1.457   8.210  0.0646 -0.2556  0.1611
20634W        W63547   8.799   8.221  12.279 -0.1582  0.1860  0.1554
20635W        W63548  19.266   5.773   7.208 -0.1106 -0.2193  0.0973
20636W        W63549  29.228   5.441   4.457 -0.2719  0.0622 -0.1406
20637W        W63550  26.345  29.829   9.075  0.0374  0.3880 -0.0839
20638W        W63551  20.542   0.975   4.793  0.0283  0.0997 -0.1688
20639W        W63552  27.270   4.510   5.368 -0.1968 -0.1529 -0.0110
20640W        W63553  30.458   4.983  28.595  0.0145 -0.3270  0.1615
20641W        W63554  23.536  13.527   8.341 -0.1949  0.3777  0.0977
20642W        W63555  24.096   8.727  26.814 -0.3000  0.0580 -0.0181
20643W        W63556  27.921   6.168  26.604 -0.0420 -0.0179 -0.2075
20644W        W63557  29.855  30.465  21.658  0.2471 -0.0436  0.1299
20645W        W63558  19.122  30.989   3.421  0.0830 -0.3168  0.0304
20646W        W63559   6.973   2.366  10.952 -0.1140 -0.3774 -0.1678
20647W        W63560  14.476   8.872   6.072  0.1439 -0.2273  0.0718
20648W        W63561  16.682  29.817   0.359  0.0069  0.1593  0.0116
20649W        W63562  29.479   5.927  28.902 -0.0423  0.0869 -0.2367
20650W        W63563  24.630  19.388   6.366  0.1860 -0.1447 -0.2550
20651W        W63564  19.009  33.575   7.315  0.1274  0.0305 -0.1962
20652W        W63565  32.123  11.517   6.611  0.2115  0.0591 -0.0177
20653W        W63566  17.621   4.423   9.969  0.0410  0.0836 -0.0095
20654W        W63567  31.236   2.791   5.300  0.0334 -0.0240  0.1472
20655W        W63568  16.617   6.952   8.523  0.0380  0.2804  0.0994
20656W        W63569  18.748   0.362   1.931  0.0480  0.1056  0.0639
20657W        W63570  30.968  27.580   2.394  0.0888  0.2350 -0.0572
20658W        W63571  24.867   1.912   6.896  0.0473 -0.0666  0.3347
20659W        W63572  19.451  32.311   0.229  0.0220  0.0035 -0.0805
20660W        W63573  19.385   6.473   4.888 -0.0529  0.1379  0.0390
20661W        W63574  29.818   4.569   5.539  0.1611 -0.2010  0.0742
20662W        W63575  20.514  11.489   2.800 -0.1219  0.2445 -0.0638
20663W        W63576  20.745  30.455   5.860  0.2676  0.0283  0.0712
20664W        W63577  25.412   4.759   0.854  0.1436  0.0211  0.4108
20665W        W63578  30.000   4.596   6.915 -0.1019  0.3879  0.3371
20666W        W63579  23.544  10.551   3.001  0.2566 -0.1246  0.1512
20667W        W63580  25.763   4.575   1.591  0.1207  0.0636 -0.1321
20668W        W63581  25.538  10.838   0.284 -0.3364 -0.0022 -0.0114
20669W        W63582  11.927  13.058  28.854 -0.2209  0.1230  0.2107
20670W        W63583  13.088   5.347   9.046  0.0574  0.0134 -0.1917
20671W        W63584  23.087   4.001   9.694 -0.1728 -0.0869  0.0977
20672W        W63585  25.266  11.155   8.207 -0.1506 -0.0371 -0.2008
20673W        W63586  17.668   4.727  23.818  0.1043 -0.2526 -0.0445
20674W        W63587   2.414   3.761   8.512 -0.2038 -0.0747  0.0741
20675W        W63588  23.987   0.669   4.705  0.3478 -0.1332  0.0364
20676W        W63589  26.889   5.304   3.137 -0.0782  0.4274 -0.2955
20677W        W63590  20.250  13.646   8.227 -0.0756 -0.0503 -0.6322
20678W        W63591  18.613   6.095   8.206 -0.1663  0.2105  0.0247
20679W        W63592  27.319   0.375   8.095  0.1005  0.1616 -0.0848
20680W        W63593  33.399   7.938   2.400 -0.0210 -0.0603 -0.0988
20681W        W63594  23.625   4.973   3.298  0.1852 -0.1676 -0.0053
20682W        W63595  24.545   7.205   8.835 -0.2602 -0.2294  0.0372
20683W        W63596  29.644   3.663   7.912  0.0376 -0.2943 -0.0876
20684W        W63597  19.726   7.079   1.949  0.1399 -0.3127 -0.2058
20685W        W63598  24.120  34.285   6.228 -0.0975 -0.0567 -0.2928
20686W        W63599  31.669   5.172   8.433 -0.2824 -0.1408 -0.0177
20687W        W63600  21.541   1.872   9.808 -0.0710  0.0357 -0.1618
20688W        W63601  14.210  16.578   4.778 -0.0583  0.3680 -0.2369
20689W        W63602  20.936   7.236   1.362  0.5621 -0.3034 -0.2342
20690W        W63603  24.667   5.969   9.005 -0.1288  0.0635 -0.1309
20691W        W63604  16.106   7.358   3.196  0.2173  0.2107 -0.0244
20692W        W63605  10.317   5.573   1.694 -0.2510 -0.1632 -0.0586
20693W        W63606  21.793  32.632  10.058  0.1185 -0.4815  0.3383
20694W        W63607  19.105  33.096   3.989  0.2673  0.1878 -0.0193
20695W        W63608  20.981  15.025   2.889 -0.0556 -0.0695 -0.0882
20696W        W63609   1.898   8.349   6.825  0.1402 -0.1566  0.1960
20697W        W63610  19.433  14.010   2.516  0.1648 -0.1360  0.0525
20698W        W63611  23.876  34.114   5.782  0.0255 -0.0643  0.1169
20699W        W63612   0.117   6.163   9.400 -0.0120 -0.0622 -0.0200
20700W        W63613  26.126  15.474   8.307 -0.2701  0.0115 -0.0995
20701W        W63614  28.572   4.744   6.714 -0.0308  0.2300 -0.0747
20702W        W63615  29.011   8.125  29.430 -0.3839  0.2883  0.2524
20703W        W63616  11.516  26.792   6.123 -0.0601  0.2551  0.1785
20704W        W63617  17.210  16.708  26.646 -0.0658 -0.0738  0.2998
20705W        W63618  23.563   9.760  18.873  0.0582  0.0693  0.2911
20706W        W63619  21.467   7.007   6.936  0.2130  0.1397 -0.1769
20707W        W63620  21.214   3.682   0.256 -0.0003  0.0363 -0.0594
20708W        W63621  27.343  16.246   8.111  0.1204 -0.0312  0.0396
20709W        W63622  23.580   1.780   4.204 -0.1896  0.2985  0.0940
20710W        W63623  28.689  31.600   6.126 -0.2858 -0.1869  0.1218
20711W        W63624  15.182   5.662  10.080  0.0133 -0.0709 -0.3591
20712W        W63625  27.723   3.944   9.351  0.1856 -0.0256  0.1433
20713W        W63626  22.562   8.518   5.761  0.2253 -0.0591  0.0127
20714W        W63627  28.215  11.341   6.476 -0.1237 -0.2668 -0.1991
20715W        W63628  27.976   9.730   8.323  0.3784 -0.0689 -0.2941
20716W        W63629   1.231  12.433  28.469  0.0520  0.1900  0.0188
20717W        W63630  23.964  16.004   6.922 -0.1216  0.0356  0.0116
20718W        W63631  30.584  15.527  26.154 -0.0743  0.1024 -0.2517
20719W        W63632  22.172   9.480   6.488 -0.1350  0.1535  0.1447
20720W        W63633  30.597  11.268   3.916 -0.1175  0.0712 -0.1755
20721W        W63634  24.613  11.099  29.065 -0.1091 -0.0218  0.0565
20722W        W63635  24.387   4.906  28.026  0.0177 -0.1384 -0.0399
20723W        W63636  25.149  12.709   7.197  0.0535 -0.0607  0.0214
20724W        W63637  18.698   3.728  10.700  0.0595 -0.1176  0.0747
20725W        W63638   8.349   7.141   3.341  0.0808  0.2069 -0.3554
20726W        W63639  21.031   9.191   6.790 -0.0286  0.1424  0.2805
20727W        W63640  33.823  12.684   5.973 -0.0151 -0.1119  0.0397
20728W        W63641  19.773   4.005   5.971 -0.1046 -0.0663 -0.0629
20729W        W63642  10.834   8.820  25.057  0.2093  0.0473 -0.0177
20730W        W63643  25.395   8.218   5.767  0.0627  0.0364  0.0106
20731W        W63644  27.411  11.741   6.038  0.1427  0.0505 -0.1993
20732W        W63645  26.302   6.298  28.768  0.1339 -0.0807 -0.3731
20733W        W63646  20.485   5.310   8.218  0.5051 -0.3954  0.1362
20734W        W63647  12.013   9.510   7.518 -0.2869 -0.0645  0.2130
20735W        W63648  23.154   1.553   0.181  0.0739 -0.0585  0.1990
20736W        W63649  23.143  13.290  28.429 -0.0630  0.0671  0.0139
20737W        W63650  26.870  11.816   4.965 -0.1199  0.1600  0.2760
20738W        W63651  19.598  12.837   1.002  0.1257 -0.2227 -0.1893
20739W        W63652  11.108   0.978   8.054  0.1843 -0.1514  0.0981
20740W        W63653  13.376   8.336   6.195  0.4612  0.1758  0.0066
20741W        W63654  27.262   8.459   1.921  0.1967  0.0780  0.2011
20742W        W63655  19.508  12.252   8.394 -0.2668  0.1754  0.1330
20743W        W63656  23.025   4.593   8.867  0.1711 -0.1351  0.0389
20744W        W63657  19.614   2.315   6.238 -0.0030  0.2802  0.1015
20745W        W63658  28.125   6.854   9.577 -0.0344  0.5528  0.0743
20746W        W63659  16.446   7.557   1.837  0.2375 -0.0190 -0.0031
20747W        W63660  26.799  10.265   7.633  0.0443 -0.1722  0.0431
20748W        W63661  29.098   5.720   4.868  0.4455  0.2605 -0.0763
20749W        W63662  26.480   4.403   5.024 -0.1078  0.0658  0.0951
20750W        W63663  24.543  12.210   8.861 -0.0818 -0.2022 -0.0402
20751W        W63664  18.985   6.556   6.501 -0.2725  0.3657  0.2867
20752W        W63665  14.957   4.087   1.147 -0.1655 -0.3880 -0.0643
20753W        W63666  21.722   6.523   8.958 -0.0115  0.1551  0.0080
20754W        W63667  13.685   6.625   6.581 -0.0007 -0.0104 -0.0277
20755W        W63668  23.215   1.705  20.754  0.2851 -0.2004 -0.2070
20756W        W63669  18.555   1.878  27.395  0.1896  0.0265  0.1195
20757W        W63670  33.468   4.245   0.611 -0.0169 -0.4083  0.4091
20758W        W63671  15.489   4.040   7.065 -0.1477  0.1607  0.1803
20759W        W63672  24.609   3.640   6.888 -0.1788  0.0729 -0.4733
20760W        W63673  15.170  29.070  28.344  0.0282 -0.2417  0.0317
20761W        W63674  19.186   6.775   1.683  0.0363  0.3470 -0.3646
20762W        W63675  21.033  33.383  21.570 -0.0347 -0.1470 -0.0335
20763W        W63676  23.191   4.429   3.795  0.0248 -0.3148 -0.1443
20764W        W63677  25.786   7.489   9.262  0.0452 -0.0219 -0.0558
20765W        W63678  26.014   7.967  29.253 -0.1838 -0.3622 -0.1684
20766W        W63679  24.421   8.410   3.984  0.1651  0.1888  0.0313
20767W        W63680  31.239  11.019   7.901 -0.0147  0.1225  0.1756
20768W        W63681  26.465  10.807   6.607 -0.0121 -0.2042 -0.0533
20769W        W63682  24.381   8.909   7.672 -0.0387  0.0125 -0.1707
20770W        W63683  23.224  16.605   6.808 -0.3610  0.0784 -0.0003
20771W        W63684  18.415   0.947  10.310  0.2525  0.2113  0.1714
20772W        W63685  25.899  33.372   1.358  0.0550 -0.0279  0.0988
20773W        W63686  11.365  32.135   5.404  0.2578 -0.0561 -0.1055
20774W        W63687  17.399   4.705   8.213  0.0919 -0.0572  0.0647
20775W        W63688  25.076   7.356   8.782  0.1308  0.0454  0.2901
20776W        W63689  24.020  28.240   2.392 -0.2330 -0.2279 -0.0061
20777W        W63690  24.205  14.950  27.217  0.2212  0.1888  0.3459
20778W        W63691  30.076   4.564   2.908  0.0454  0.1075 -0.1290
20779W        W63692  19.907  32.203   6.261  0.0955 -0.0989 -0.1678
20780W        W63693  29.994  18.390  28.529  0.1037  0.0921  0.0022
20781W        W63694  26.603   8.628   9.472  0.0752  0.1168 -0.3594
20782W        W63695  20.375  27.780   5.873  0.4243  0.2325  0.0276
20783W        W63696  23.136   9.344  24.752 -0.0812 -0.2622 -0.0824
20784W        W63697   7.490   8.458   1.558  0.1511 -0.2437 -0.1733
20785W        W63698  24.527  17.064  23.667 -0.0406  0.1410  0.2140
20786W        W63699  27.771  19.370  17.299  0.0908  0.2810  0.2107
20787W        W63700  20.687  34.206   7.663  0.0255 -0.0970  0.0007
20788W        W63701  33.218   3.824   7.538  0.1170  0.1419 -0.0915
20789W        W63702  18.358   6.833   3.752 -0.2897 -0.2139  0.2411
20790W        W63703  21.047  33.543   9.348 -0.2641 -0.0964 -0.0111
20791W        W63704  32.804   8.618   9.005 -0.2037  0.3634 -0.2786
20792W        W63705  21.183  10.814   8.176  0.1940 -0.0256  0.2437
20793W        W63706  20.127  18.389  23.200  0.0423  0.2493 -0.1111
20794W        W63707  33.988   6.001  29.412  0.0016  0.3914 -0.0487
20795W        W63708  21.301   2.569   9.575  0.0923  0.1370 -0.0659
20796W        W63709   3.846   6.911  10.956 -0.1177  0.0423  0.0557
20797W        W63710  14.822   8.902   8.930 -0.3717  0.1637  0.2021
20798W        W63711  11.419   1.083   3.129 -0.0615 -0.1687 -0.0619
20799W        W63712  22.573   6.677   6.252  0.1852  0.0576  0.1984
20800W        W63713  13.087   1.715   9.529 -0.1173  0.3282 -0.0114
20801W        W63714  20.264   8.005   4.637 -0.0056 -0.1010 -0.0166
20802W        W63715  26.914   3.436  25.283  0.0266  0.1586 -0.0193
20803W        W63716   0.070   6.024  11.571 -0.3337  0.2458 -0.0711
20804W        W63717   2.704  33.790   2.117 -0.1200 -0.1916 -0.2685
20805W        W63718  24.054   4.638   7.842  0.1180  0.0117  0.1535
20806W        W63719  24.903  15.082   8.472 -0.1493  0.1943  0.0186
20807W        W63720  17.167   8.815   8.069  0.1933  0.3930  0.0431
20808W        W63721  24.506   4.781  29.591  0.0606 -0.3155 -0.1259
20809W        W63722  20.427  34.419  20.664  0.1950  0.1074  0.0074
20810W        W63723  13.046   0.245   9.089  0.1748  0.0593 -0.1325
20811W        W63724  25.021   9.841   5.992  0.2474  0.2559 -0.2496
20812W        W63725  16.370   3.847   6.608 -0.0056  0.1698 -0.0636
20813W        W63726  26.290   8.596  28.568  0.2518  0.2171  0.0558
20814W        W63727  20.931  10.014   0.411 -0.2268 -0.3091 -0.2249
20815W        W63728  23.738   1.093  27.454  0.0158  0.2101 -0.2002
20816W        W63729  20.131   7.648   9.449  0.1421 -0.0863 -0.1166
20817W        W63730  25.307   8.096   7.248 -0.0371 -0.1339  0.1468
20818W        W63731  30.757  12.555   6.082  0.0544  0.1096  0.2974
20819W        W63732  21.574   6.551  26.251  0.0091  0.2118  0.1797
20820W        W63733  15.054   2.762  10.529 -0.1179  0.1513  0.0471
20821W        W63734  23.313  10.989   0.601  0.1150 -0.1271 -0.1931
20822W        W63735  23.574   4.089   6.010 -0.1384  0.1937  0.3255
20823W        W63736  26.797   6.949   6.478 -0.1213 -0.2187  0.0972
20824W        W63737  23.840   6.327  26.497  0.0191  0.1751  0.0045
20825W        W63738  29.186  19.335   8.000 -0.1644  0.0572  0.3505
20826W        W63739  29.322  33.488   7.513 -0.0914  0.2584  0.0327
20827W        W63740  20.973   3.264   6.631  0.1968  0.1453  0.4913
20828W        W63741  25.553  13.314   0.264 -0.2653 -0.0275 -0.0818
20829W        W63742  19.777   5.259  10.091  0.0556 -0.1508 -0.0802
20830W        W63743  24.555   4.674  10.498  0.0002  0.1463 -0.1810
20831W        W63744  13.484  31.318   6.383  0.1586  0.0764 -0.5072
20832W        W63745  30.814   0.536   3.555 -0.4381  0.1634  0.1449
20833W        W63746  19.450   6.526   3.643  0.1735  0.0077 -0.0131
20834W        W63747  19.628  15.838  29.450  0.3078  0.1700 -0.0376
20835W        W63748  29.635  22.196   2.012 -0.0353  0.3026 -0.0791
20836W        W63749  18.834  11.085   5.913  0.2620 -0.0391 -0.1269
20837W        W63750  15.512   1.308  10.989  0.0629 -0.1814  0.1178
20838W        W63751  24.328  33.729   2.952 -0.1200 -0.1688 -0.4118
20839W        W63752  27.428   5.736   1.931 -0.1086 -0.1907  0.0371
20840W        W63753  25.352   3.636  10.114 -0.0320  0.0721 -0.0702
20841W        W63754  32.486  15.712   9.200  0.2425  0.0640  0.1066
20842W        W63755  14.251   9.823   5.562  0.0258 -0.0353 -0.6072
20843W        W63756  26.496   7.685   9.663  0.5331 -0.1146 -0.0681
20844W        W63757  20.595   9.496   6.808 -0.2341  0.0749 -0.3183
20845W        W63758   1.266   8.633   3.233  0.0172 -0.0276 -0.1117
20846W        W63759  19.212  10.753   5.851  0.0117 -0.1895  0.1401
20847W        W63760  27.095   4.934   4.036  0.0106  0.0109 -0.4395
20848W        W63761  16.255  11.439  29.243 -0.0530  0.1564  0.1417
20849W        W63762  17.100   3.439   9.602 -0.0684 -0.0269  0.0453
20850W        W63763  18.135  34.412   4.764 -0.2846 -0.1159  0.1981
20851W        W63764  27.830  11.499   7.592  0.3095  0.0184 -0.1777
20852W        W63765  24.636   5.228   2.482 -0.2698 -0.4934  0.0529
20853W        W63766  22.774   3.543   9.847 -0.3353 -0.3877 -0.0485
20854W        W63767  15.695  19.163  29.281 -0.1687  0.0811  0.0627
20855W        W63768  22.153   9.015   0.832  0.1696 -0.2446  0.0593
20856W        W63769  24.419   1.011   9.442  0.2678  0.0221 -0.1760
20857W        W63770  23.506   9.790   5.106 -0.1235 -0.0357 -0.0317
20858W        W63771  13.467  34.122   3.546 -0.1332  0.0094  0.3260
20859W        W63772  19.217  13.938   6.426  0.1791 -0.1871 -0.2860
20860W        W63773  23.880   7.301   5.543  0.1299 -0.0574  0.1152
20861W        W63774  14.383   8.098  26.949 -0.1074 -0.0375  0.1606
20862W        W63775  20.504   5.233   2.621  0.3102  0.0433  0.2290
20863W        W63776  17.626  29.790   4.502 -0.3184 -0.1665  0.0059
20864W        W63777  18.245  13.424  25.500 -0.0973  0.2114 -0.0751
20865W        W63778   2.346   1.101  11.239  0.1822  0.1370  0.5292
20866W        W63779  29.807  28.490   7.170 -0.0246 -0.1619  0.2196
20867W        W63780  16.809   9.401  28.227 -0.0755 -0.1350 -0.0499
20868W        W63781  27.497  34.415   7.950 -0.2552 -0.1189 -0.1295
20869W        W63782  21.651  30.051   1.594  0.3804  0.1369  0.0627
20870W        W63783  26.186  34.242   9.426 -0.0552 -0.1443  0.2173
20871W        W63784  28.511  17.132   4.922 -0.1524 -0.0897  0.1226
20872W        W63785  21.910  10.044  28.592 -0.7887 -0.2380  0.1535
20873W        W63786  32.814   9.914   9.383  0.3157  0.2020  0.0609
20874W        W63787  26.691   0.582   5.584 -0.3605  0.0806 -0.1083
20875W        W63788  23.486   6.113   8.377  0.1950 -0.1471  0.3442
20876W        W63789  11.424   8.025  10.522 -0.1596  0.3911  0.1380
20877W        W63790  29.213  12.046   5.790  0.3047  0.1246  0.1186
20878W        W63791   1.221  14.936   8.034  0.1282 -0.3976 -0.0761
20879W        W63792  30.833  12.052  28.869  0.1181  0.2155  0.2992
20880W        W63793  25.327   8.345   8.470 -0.0796  0.0840 -0.3419
20881W        W63794  23.770  33.544   8.392 -0.0087 -0.0699  0.0246
20882W        W63795   4.893  32.201   7.994  0.0160 -0.0519  0.0747
20883W        W63796   7.674   7.041  22.768 -0.1339  0.1679  0.0625
20884W        W63797  18.326  11.242  28.226 -0.1073 -0.0795 -0.0916
20885W        W63798  20.352   3.159   6.021 -0.1872  0.0994  0.0515
20886W        W63799  20.882  20.832   3.068 -0.3965 -0.1378  0.3918
20887W        W63800  23.702  14.620   5.398  0.3436 -0.2561 -0.0899
20888W        W63801  20.797  13.826  28.330 -0.0032  0.1290 -0.2371
20889W        W63802  25.031   1.618   7.238 -0.1925  0.3062 -0.1221
20890W        W63803  28.857   2.839   8.962 -0.2090  0.1080  0.0534
20891W        W63804  31.551  12.885   4.744  0.1941  0.2810 -0.0650
20892W        W63805  25.745   7.378   0.808  0.1113  0.1105 -0.0313
20893W        W63806  34.266   9.483  10.753  0.2007  0.1528 -0.1823
20894W        W63807  33.124   5.075   8.912 -0.2373  0.1106 -0.1157
20895W        W63808  17.352  10.173   0.940 -0.0370  0.1575  0.0220
20896W        W63809  15.223   9.172  29.087  0.1655  0.0991 -0.0880
20897W        W63810  24.613  16.993   6.875  0.1425 -0.0377 -0.1856
20898W        W63811  28.180   6.934   0.631 -0.3056  0.0228 -0.1067
20899W        W63812  33.582  32.695   3.313  0.3083  0.0322 -0.3362
20900W        W63813  20.702  14.544   1.526 -0.2019 -0.1618 -0.2341
20901W        W63814  26.399   5.974   2.512  0.0847  0.0448  0.0879
20902W        W63815  21.396  12.705   6.300  0.2432 -0.0091 -0.0123
20903W        W63816  16.240   2.254  25.271  0.1151  0.1282 -0.1782
20904W        W63817  21.603  34.405   3.876 -0.1285  0.2942 -0.3845
20905W        W63818  30.468   1.699   9.862  0.1546  0.0761 -0.1367
20906W        W63819  18.030   5.009   0.174 -0.1242 -0.1973 -0.2095
20907W        W63820  26.108   3.186   3.150  0.1028 -0.0607  0.0623
20908W        W63821  17.075  11.441  24.978  0.1359  0.0986 -0.2170
20909W        W63822   8.366   3.409   7.829  0.2733  0.0132  0.0457
20910W        W63823  30.300   2.054   0.387  0.0233 -0.3025 -0.0149
20911W        W63824  30.906  16.700   6.400 -0.0480  0.0891 -0.0079
20912W        W63825  22.825   9.874   2.227  0.4350  0.1654 -0.0731
20913W        W63826  25.123  31.607   0.928  0.2661  0.0862  0.3400
20914W        W63827  16.148  32.987  24.722 -0.0218  0.2584 -0.2545
20915W        W63828   0.428   8.403   5.403  0.0549 -0.0726 -0.1016
20916W        W63829  33.469  14.990   8.112 -0.1493  0.0592  0.1875
20917W        W63830  26.926   7.847  28.890 -0.0500 -0.0821 -0.0762
20918W        W63831  16.976  10.260   6.283 -0.4605 -0.2067 -0.0488
20919W        W63832   4.044   3.663   7.125  0.0968  0.0301  0.2239
20920W        W63833  25.145   2.841   6.149  0.2874 -0.2987  0.0290
20921W        W63834  22.095  28.992   2.633 -0.1596 -0.0814  0.0913
20922W        W63835  26.529   9.341  29.268 -0.0558  0.1446 -0.1567
20923W        W63836  21.145   6.652   9.090  0.3596 -0.2097  0.0818
20924W        W63837  21.136   6.335   8.471 -0.1191  0.5066 -0.1164
20925W        W63838  19.106  12.616   4.113  0.0643 -0.0610 -0.0661
20926W        W63839  13.634  17.963   7.622 -0.1095  0.0451 -0.1670
20927W        W63840  29.985   3.962   9.848 -0.1293  0.1447  0.1882
20928W        W63841  22.945  15.721  24.731 -0.0810 -0.4247  0.2722
20929W        W63842  16.177  12.724   6.476 -0.1895 -0.0264  0.0101
20930W        W63843  32.108  11.091   4.960  0.0231  0.0712  0.1208
20931W        W63844  19.863  12.605  20.726 -0.0642  0.0043  0.0763
20932W        W63845   7.246   7.125  26.488  0.0764 -0.3034  0.0839
20933W        W63846  23.589  31.159   6.527  0.2129 -0.3790 -0.0590
20934W        W63847   1.784  12.415   7.688  0.0599  0.1206 -0.0753
20935W        W63848  21.295   5.906  20.937 -0.1016  0.1339  0.2937
20936W        W63849   9.421   3.825   4.030 -0.0819 -0.0732 -0.0930
20937W        W63850  32.734  14.054   9.376 -0.0577  0.1406  0.0854
20938W        W63851  26.232   2.964   6.730 -0.2319  0.1934  0.0846
20939W        W63852  13.409   3.050   2.237 -0.0264 -0.0667 -0.1362
20940W        W63853  22.785   5.142   0.173 -0.1230 -0.0888  0.1038
20941W        W63854   3.044   9.425   6.830 -0.0402 -0.1131 -0.0917
20942W        W63855  29.405  16.654   8.628  0.0850  0.0366  0.1177
20943W        W63856  28.901  31.966   4.956  0.4430  0.2479 -0.1834
20944W        W63857  30.590   5.738   6.847 -0.0808  0.1941 -0.2370
20945W        W63858  13.574  34.440   9.429 -0.1274 -0.0435 -0.0824
20946W        W63859  22.774  19.208  23.466 -0.0640  0.0207  0.4055
20947W        W63860  21.576   5.877   9.569 -0.2428 -0.0067  0.3658
20948W        W63861   2.394  12.391   6.480 -0.5464  0.1730 -0.0360
20949W        W63862  31.144  17.338  23.931 -0.2688 -0.0139  0.1098
20950W        W63863  26.865  17.306  27.232 -0.1115 -0.1885  0.3311
20951W        W63864  33.241   5.413   6.970 -0.3595 -0.1127  0.1149
20952W        W63865  29.427   5.334   2.852  0.1034  0.2103  0.0544
20953W        W63866  22.663   2.839   2.621  0.2556 -0.1713 -0.2978
20954W        W63867  22.332   9.042   3.365 -0.1766 -0.0782 -0.0511
20955W        W63868  21.123   5.251   7.065 -0.0470 -0.1711  0.1357
20956W        W63869   2.189   2.999   4.613 -0.1324  0.1678  0.1250
20957W        W63870  31.991   7.287   0.153 -0.1474  0.0642  0.0948
20958W        W63871  23.493  14.266   0.333  0.1402 -0.1375 -0.0059
20959W        W63872  29.754  11.798   4.052 -0.1524 -0.0846 -0.2941
20960W        W63873  11.400  15.240   3.689 -0.2238  0.0222 -0.0800
20961W        W63874  29.409   5.336  26.546 -0.0917  0.0677  0.0508
20962W        W63875  19.027  34.236  21.238  0.1795 -0.1261  0.0898
20963W        W63876  25.445   4.298   8.936 -0.1279 -0.1322 -0.1292
20964W        W63877  23.920   8.788   7.543  0.0374 -0.0597  0.1301
20965W        W63878   4.594   9.581  10.730 -0.2756 -0.1591  0.0188
20966W        W63879  12.496   1.090   2.629  0.0838 -0.0131  0.1589
20967W        W63880  21.685   7.009   2.011  0.0588 -0.0635  0.2822
20968W        W63881  28.132  31.397  25.622  0.1593  0.0607  0.0293
20969W        W63882  24.596   0.213   5.775  0.3315 -0.2299  0.1622
20970W        W63883  27.460  15.253   4.875  0.0627 -0.3300 -0.0356
20971W        W63884  21.483  32.072  26.196  0.1345 -0.2159  0.1056
20972W        W63885  31.782  23.989   5.641  0.0332  0.1184  0.2039
20973W        W63886  24.214  18.146   7.680  0.0761  0.2066 -0.0165
20974W        W63887  29.560   4.442  28.700  0.2175 -0.0065 -0.3231
20975W        W63888  32.068  23.098   5.392 -0.3867 -0.0852  0.1954
20976W        W63889  29.506  11.141   6.745 -0.1664  0.0760  0.0919
20977W        W63890  18.058   2.080  27.547  0.0336  0.2416 -0.0919
20978W        W63891  24.423   4.213   6.956  0.0594  0.0391  0.3306
20979W        W63892  30.549  24.364   7.719  0.2154  0.0117  0.0192
20980W        W63893  28.084   9.959  27.850  0.0821  0.0553 -0.0133
20981W        W63894  12.415  25.730  21.796  0.0854  0.0482  0.1695
20982W        W63895  25.303   5.358   4.613  0.2306 -0.0202  0.2629
20983W        W63896   1.352  31.088  28.278  0.1737 -0.2482  0.0018
20984W        W63897  21.198  30.606   5.838 -0.0587 -0.0507  0.1165
20985W        W63898  16.453  28.540   6.147  0.1950 -0.0586 -0.2695
20986W        W63899  19.392  10.363   9.107  0.3651 -0.0600 -0.3834
20987W        W63900  28.142  11.787   8.502  0.0603  0.1030  0.0276
20988W        W63901  27.331   7.353   9.533  0.1012 -0.2516  0.0525
20989W        W63902  17.057   9.090  28.554 -0.0755 -0.2302  0.1353
20990W        W63903  26.003   5.302   5.051 -0.3455  0.0402 -0.2222
20991W        W63904  17.977   5.230   7.520  0.1442 -0.1581 -0.0115
20992W        W63905  21.528  25.707  24.121 -0.3433  0.1445 -0.1345
20993W        W63906   9.348  33.567   0.484  0.1681 -0.1472 -0.0585
20994W        W63907  22.724   4.826   7.812 -0.2916  0.1949 -0.0986
20995W        W63908  24.331   8.685   9.013  0.1795  0.0369 -0.0331
20996W        W63909  24.816  14.916   2.763 -0.0250  0.0646 -0.0069
20997W        W63910  29.692   6.905   5.418 -0.0722 -0.2299 -0.2905
20998W        W63911  13.004  33.710  23.901 -0.1300 -0.5639 -0.3726
20999W        W63912  24.680  11.775   9.274 -0.0018 -0.0581 -0.2422
21000W        W63913   0.155   4.230   7.311 -0.1428 -0.1023 -0.1941
21001W        W63914  28.234  10.902   7.855 -0.4272 -0.2221  0.0128
21002W        W63915  26.161  14.525   1.356  0.2834 -0.0802 -0.0030
21003W        W63916  27.681  12.079   1.733  0.1037  0.0606 -0.0605
21004W        W63917  20.997   0.286   0.528 -0.2358  0.0876  0.0159
21005W        W63918  32.333   7.870   1.951 -0.2113 -0.1521 -0.1483
21006W        W63919  29.757  16.896   8.845 -0.0870  0.2067  0.0722
21007W        W63920  23.616   2.682   2.671  0.0767 -0.2134 -0.0343
21008W        W63921  29.740   5.831   3.741  0.0027 -0.2815 -0.0725
21009W        W63922  29.786   9.764   6.490  0.2871 -0.0994  0.1460
21010W        W63923  21.707   2.067  26.389 -0.1799  0.1983 -0.2811
21011W        W63924  24.421   0.846   8.077 -0.3700 -0.0512 -0.4219
21012W        W63925  21.908   8.614   7.016  0.2574 -0.4251 -0.1109
21013W        W63926  26.505  10.710   8.465 -0.0906 -0.1405  0.1367
21014W        W63927  14.647   2.984   2.555  0.0866  0.1662  0.1392
21015W        W63928  15.057   3.528   7.114  0.1022 -0.0033 -0.1468
21016W        W63929  23.782   4.872   8.577  0.0451 -0.0572 -0.0828
21017W        W63930  13.397   5.763   2.494  0.2186 -0.2574 -0.1785
21018W        W63931  26.127  21.145  29.042  0.0086 -0.0531 -0.0306
21019W        W63932  31.050   7.767   3.713 -0.0149  0.0195 -0.2663
21020W        W63933  25.788  14.232   9.500  0.0612 -0.0911  0.0939
21021W        W63934  22.332  10.988   3.153 -0.2929  0.1943  0.0855
21022W        W63935   1.288   8.806  10.932 -0.0725  0.0723 -0.1097
21023W        W63936  25.074   8.612  27.025 -0.1191  0.3225 -0.1003
21024W        W63937   1.374   3.430   5.479  0.3761 -0.0122 -0.0423
21025W        W63938  19.291  34.002   5.349 -0.2636 -0.2306  0.0204
21026W        W63939  27.251   0.002   1.610  0.0800  0.0486  0.0855
21027W        W63940  22.854   7.299  26.283 -0.2078  0.1433 -0.2078
21028W        W63941  28.407  18.759   4.841 -0.0272 -0.2348 -0.0616
21029W        W63942  23.455   2.432   1.534  0.2107  0.0041 -0.3598
21030W        W63943  26.535   4.057  21.395 -0.1161 -0.2051 -0.0354
21031W        W63944  33.914  32.797   8.946 -0.3622  0.0423 -0.1848
21032W        W63945  23.454   2.499   8.322 -0.5013  0.0504 -0.1420
21033W        W63946  26.919   5.822   6.752 -0.2087 -0.2057  0.1509
21034W        W63947  14.912   4.451   4.932 -0.2846  0.2141 -0.4536
21035W        W63948  30.160   3.218   7.146 -0.1161  0.2087  0.1692
21036W        W63949  19.301  14.945   6.915 -0.3216  0.0115 -0.1145
21037W        W63950   3.222  10.567   8.476  0.0630  0.1361  0.0584
21038W        W63951  23.596   5.795   5.901 -0.3721  0.2357  0.0343
21039W        W63952  27.875  12.841   9.439 -0.2475 -0.2431  0.2473
21040W        W63953  25.820   0.151   2.189  0.1289 -0.0594  0.1614
21041W        W63954  32.505   2.117   8.059  0.3264  0.0758  0.2109
21042W        W63955  15.472   3.925   9.742 -0.0556  0.0729 -0.1169
21043W        W63956  28.953   4.566   9.421  0.0521 -0.0966 -0.1263
21044W        W63957  18.909  32.116   2.810  0.0387  0.3184 -0.0053
21045W        W63958  30.484   3.889   2.176 -0.1260  0.3167 -0.0375
21046W        W63959  24.345  34.316   9.687 -0.1202 -0.0715  0.1044
21047W        W63960  10.483  29.931  11.500 -0.0649  0.2224  0.0574
21048W        W63961  19.816   8.831   1.828 -0.0438  0.2668  0.0766
21049W        W63962  24.077   5.557   3.777 -0.1146  0.0745  0.0190
21050W        W63963  20.197   4.400   8.846  0.1424  0.1575  0.2606
21051W        W63964  24.229   5.319   9.153  0.1024 -0.0656 -0.0739
21052W        W63965  30.528   5.107   6.253 -0.0143 -0.0423 -0.2880
21053W        W63966  27.832   9.643   0.674 -0.1434 -0.3733  0.2616
21054W        W63967  22.063  10.940   9.107 -0.1570 -0.3290  0.0712
21055W        W63968   2.702   1.124  10.193  0.0172  0.2523  0.1944
21056W        W63969  28.477   4.554   4.496  0.1676  0.3229  0.1598
21057W        W63970  25.212   9.858   4.050  0.1281  0.2686  0.2639
21058W        W63971  12.525  10.772   7.512 -0.3175 -0.2773 -0.0664
21059W        W63972  20.119   8.835   2.298 -0.2150  0.2913  0.0991
21060W        W63973  33.712   2.110   7.805 -0.2899  0.1722 -0.1689
21061W        W63974  23.577   4.879   5.103 -0.2808 -0.0283  0.3603
21062W        W63975  19.760  29.901   6.003 -0.4581  0.1667  0.2629
21063W        W63976  22.095  32.160   9.182 -0.0834 -0.0401 -0.0153
21064W        W63977  27.306   7.648   4.251  0.1544  0.2156  0.1201
21065W        W63978  24.061  34.263   7.163 -0.1795 -0.0869 -0.2164
21066W        W63979  13.923   7.432  28.294 -0.0564  0.2204  0.0733
21067W        W63980  18.550  23.972  24.571 -0.0016  0.0410 -0.3276
21068W        W63981  21.505   0.095   7.497  0.1427  0.1495  0.1923
21069W        W63982  27.868  10.743   7.440 -0.5250  0.1195 -0.2449
21070W        W63983   2.666   5.143  10.456 -0.1009  0.0079  0.1621
21071W        W63984  18.385   2.228   9.091 -0.0050 -0.1734 -0.0907
21072W        W63985  14.587   7.661   6.972 -0.0930 -0.0644 -0.3639
21073W        W63986  30.055   7.608   5.552  0.1371  0.0145 -0.1705
21074W        W63987  18.644   7.355   1.828  0.0284 -0.1270  0.1885
21075W        W63988  19.301   1.819   7.355 -0.0899 -0.0642 -0.0305
21076W        W63989  11.415   4.301  11.831  0.0770  0.0399 -0.2812
21077W        W63990  17.724   1.415   5.940 -0.0104  0.2291  0.0918
21078W        W63991  32.335   3.747  10.233 -0.0203  0.1040  0.1438
21079W        W63992   0.149   5.136   4.611  0.1068  0.1362 -0.0238
21080W        W63993  30.917  33.205   7.819 -0.2055 -0.0394 -0.0774
21081W        W63994  25.674   4.458   0.514  0.0135  0.0729  0.0044
21082W        W63995  20.932   6.375  26.555  0.1258 -0.2036  0.1872
21083W        W63996  25.279   0.492   7.095  0.2272 -0.1689 -0.0999
21084W        W63997  28.739   5.430   0.146 -0.0352 -0.4506 -0.2983
21085W        W63998  20.372  17.032   2.446  0.1702 -0.1944 -0.0985
21086W        W63999  10.663   7.119  28.433  0.1132  0.1178 -0.0341
21087W        W64000  16.558   6.292   3.768 -0.0706  0.4240 -0.2536
21088W        W64001  24.724  28.242   5.343 -0.2626 -0.2231 -0.0904
21089W        W64002  21.591  12.517   7.151 -0.0185  0.1704  0.1623
21090W        W64003  28.441  12.924   0.742 -0.2308 -0.0841 -0.1553
21091W        W64004  18.476   9.258  27.270  0.0011 -0.0422  0.3891
21092W        W64005  19.465   3.234  29.410  0.1536 -0.0421 -0.0084
21093W        W64006  21.191  29.675   8.044  0.3013 -0.0164 -0.1758
21094W        W64007  20.077   3.213   9.761 -0.0646  0.3168 -0.1693
21095W        W64008  16.115  33.070   9.214  0.3289 -0.1229  0.0120
21096W        W64009  16.594   6.639   4.104 -0.1400  0.0849 -0.0097
21097W        W64010  28.329  10.426   8.474 -0.0891 -0.1915 -0.1248
21098W        W64011  19.107  11.489  27.468  0.2693  0.1581  0.2970
21099W        W64012  22.593  13.352   6.270 -0.1071  0.0334 -0.0858
21100W        W64013  34.054  11.032  10.240  0.0096  0.1824 -0.0783
21101W        W64014  21.582   6.760   4.294  0.1261  0.1114 -0.2115
21102W        W64015   4.054   4.104   9.010 -0.3449 -0.0481  0.0992
21103W        W64016  23.382  13.409   5.602  0.1106  0.3440 -0.4067
21104W        W64017  26.767   9.043   6.589 -0.0343  0.1676 -0.2034
21105W        W64018  27.423  17.606   4.460  0.1109  0.1478 -0.2323
21106W        W64019  19.708  14.431   5.064 -0.3801 -0.1979  0.1629
21107W        W64020  17.304   3.358   7.454  0.0214 -0.0187 -0.0122
21108W        W64021  18.224  27.048   5.727  0.1740 -0.0757  0.0823
21109W        W64022  13.289  25.404  29.323  0.0620 -0.1533  0.1372
21110W        W64023  11.636  33.081   8.228  0.1616  0.0624  0.3070
21111W        W64024  16.781   2.661   7.005 -0.0581  0.5295 -0.1212
21112W        W64025   0.654   4.454   6.344  0.1412 -0.0698  0.0964
21113W        W64026  23.011   1.705   7.402 -0.1666  0.1928  0.1685
21114W        W64027  31.521  10.394   9.475  0.0858 -0.0536 -0.2763
21115W        W64028  22.171  10.968   5.383 -0.1798 -0.1036  0.0034
21116W        W64029  26.901  33.657   9.176  0.0085  0.2772  0.0864
21117W        W64030  17.673  18.767  22.470 -0.0722 -0.2331  0.1760
21118W        W64031  28.362   1.621   5.054 -0.1700  0.2247  0.0358
21119W        W64032  16.320   9.748   7.560 -0.1032  0.2133 -0.1049
21120W        W64033  23.575  33.601  28.606 -0.1129  0.0810  0.4027
21121W        W64034  24.944   9.620   7.832 -0.1715 -0.0212 -0.0712
21122W        W64035   3.220   8.918   8.472 -0.0170 -0.2978  0.1501
21123W        W64036  32.258  10.871   5.780  0.0064  0.2870 -0.0077
21124W        W64037  22.539   7.129  10.351  0.0960  0.0692 -0.2953
21125W        W64038  23.933   3.019   8.921 -0.0194  0.1906  0.2211
21126W        W64039  27.509   7.691   9.865 -0.0767  0.0257  0.0313
21127W        W64040  27.878  11.977   6.348  0.0139 -0.0792 -0.2477
21128W        W64041  20.792  34.104  26.138  0.1655 -0.1637  0.1374
21129W        W64042  33.109   5.463   3.506 -0.1022  0.0542  0.0720
21130W        W64043  19.934  31.544   4.795 -0.1656 -0.0735 -0.2313
21131W        W64044   3.756   2.031   2.510 -0.1359  0.2102  0.0505
21132W        W64045  24.702   4.232   6.010 -0.2499 -0.0317 -0.1409
21133W        W64046  29.065   7.244   8.040  0.0186  0.3260 -0.2878
21134W        W64047  25.008  14.430   2.776 -0.2096  0.3256  0.0837
21135W        W64048   7.779   7.554   3.272 -0.3113 -0.1138  0.2162
21136W        W64049  24.863   8.669   7.697 -0.3118  0.1207 -0.1369
21137W        W64050  23.340   6.753   4.397  0.2473  0.5129  0.0212
21138W        W64051  17.788   1.687   7.494  0.3005 -0.0607 -0.1233
21139W        W64052  20.574  33.828   6.752  0.3325 -0.1535 -0.1499
21140W        W64053   0.699  26.977   4.773 -0.1589 -0.1130 -0.1675
21141W        W64054   0.655   8.373   3.834  0.1530  0.1083 -0.1926
21142W        W64055  15.875  29.389   3.818 -0.0914  0.1252  0.0202
21143W        W64056  21.252   1.549   1.723  0.0045  0.1033  0.1866
21144W        W64057   3.399   5.977  11.005 -0.0423 -0.1069  0.0031
21145W        W64058  29.943   0.078   4.808 -0.1645  0.0937  0.2646
21146W        W64059   0.667  10.568   5.413 -0.0288  0.2398  0.0670
21147W        W64060   5.606   5.194  11.489 -0.3969 -0.1052  0.0468
21148W        W64061  20.292   3.546   7.833  0.1465 -0.3141 -0.0569
21149W        W64062  16.540   6.016   9.981  0.0669  0.0821 -0.0841
21150W        W64063  24.246  10.219   3.968  0.0919  0.0199 -0.2598
21151W        W64064  28.548   7.243   0.385 -0.0145 -0.0745  0.0239
21152W        W64065  25.616   6.970   9.493 -0.2673  0.0875  0.2184
21153W        W64066  27.297  10.512   3.537  0.0014  0.0673 -0.0805
21154W        W64067  19.126   2.256   5.674 -0.3678  0.0618 -0.0096
21155W        W64068  24.200  14.340   4.884  0.1025 -0.0929 -0.2229
21156W        W64069  25.216  14.384   6.133  0.2256  0.0229  0.0504
21157W        W64070  18.895  33.597   2.261 -0.0758  0.0529 -0.4518
21158W        W64071  30.560   7.558   8.141  0.1119 -0.5512  0.1800
21159W        W64072  21.911   6.599  21.424 -0.2013  0.2923 -0.0540
21160W        W64073  26.577   6.832   9.451 -0.1316  0.0556 -0.1215
21161W        W64074  15.181  12.181  26.918  0.2505 -0.1103 -0.1340
21162W        W64075  19.619   2.177   6.794 -0.1321  0.0557  0.2008
21163W        W64076  12.847   3.663  10.488  0.0093 -0.3211  0.0895
21164W        W64077  32.544   2.981   0.402 -0.2970 -0.0067 -0.0752
21165W        W64078  10.195   3.395   9.574  0.0438  0.0702  0.0138
21166W        W64079  27.851   4.596   5.493  0.0298 -0.2259 -0.0164
21167W        W64080  25.884   4.180   3.448 -0.1635  0.1451  0.0723
21168W        W64081  19.386   3.783   3.063 -0.1386 -0.1309 -0.0202
21169W        W64082  23.606  34.184   2.562 -0.0450  0.0489 -0.0765
21170W        W64083   6.897   0.347   2.552 -0.1954 -0.0544  0.2488
21171W        W64084  30.779  32.078   8.512  0.2818  0.0187 -0.2061
21172W        W64085  20.878   7.747   6.819 -0.2468 -0.0652  0.3455
21173W        W64086  13.769   4.287   9.731  0.0831  0.0677 -0.1147
21174W        W64087  20.669  30.938   6.137 -0.3945  0.1730 -0.2725
21175W        W64088  18.812   7.818   3.837  0.0469 -0.0789 -0.1949
21176W        W64089  17.572   0.415   9.372  0.0209  0.2001  0.3741
21177W        W64090  20.460   3.494   0.046 -0.2245 -0.0121  0.0935
21178W        W64091  19.159   1.529   8.688 -0.1522 -0.2159 -0.0591
21179W        W64092  29.039   3.018   8.117 -0.2305  0.0032 -0.1463
21180W        W64093  20.749  33.262   6.301  0.2014  0.1011 -0.0421
21181W        W64094  31.359   8.451  11.087  0.0857  0.2320 -0.2218
21182W        W64095  27.242   0.726   8.533  0.1957  0.1198  0.1625
21183W        W64096  23.848  14.693   5.969 -0.2453 -0.3398  0.1124
21184W        W64097  20.823   7.036   8.927 -0.0712 -0.0675  0.1218
21185W        W64098  15.908   3.136   1.501  0.0991  0.1957  0.1178
21186W        W64099  30.620   3.553   9.939  0.2649  0.0967 -0.2243
21187W        W64100  26.524   5.065   2.136  0.2988  0.1315  0.1659
21188W        W64101  11.642  30.139   4.478  0.0570 -0.0127 -0.0122
21189W        W64102  30.380  32.787  28.497 -0.1001 -0.1128  0.2280
21190W        W64103  20.248   5.864   0.509  0.0767  0.1226 -0.0086
21191W        W64104  24.082   4.343   7.380 -0.0699 -0.1789 -0.2722
21192W        W64105  14.898   6.496   8.868 -0.0015  0.2762  0.0647
21193W        W64106  14.235  29.517   9.646  0.2360  0.0018 -0.3518
21194W        W64107  31.213   8.502   8.691 -0.1065 -0.1012 -0.2586
21195W        W64108  29.685   6.967  10.332  0.0652  0.1106 -0.0589
21196W        W64109  26.095   6.924   6.908  0.2941 -0.1228  0.0220
21197W        W64110  21.632   1.101  10.350  0.2797  0.2300 -0.0021
21198W        W64111  23.959   5.091  25.774 -0.2493  0.2419  0.2943
21199W        W64112   1.356  33.003   8.290  0.0555  0.1836 -0.0212
21200W        W64113  21.624   5.345   4.490 -0.0974 -0.0719 -0.2375
21201W        W64114  14.741  33.959   0.457 -0.1746  0.0202  0.0763
21202W        W64115  19.055  11.322  28.817  0.0591 -0.1993  0.1054
21203W        W64116  30.929   0.957  25.145 -0.1965 -0.2663 -0.1353
21204W        W64117  34.184   5.270  26.109 -0.4110 -0.2787 -0.2175
21205W        W64118  28.683   3.447   5.235  0.0836 -0.3722 -0.0972
21206W        W64119  18.017  11.268   5.569 -0.0184 -0.4042  0.0158
21207W        W64120  31.494   3.019  11.256 -0.4680  0.1718  0.2062
21208W        W64121   2.728   3.211   8.424  0.4425  0.0946  0.3028
21209W        W64122  31.533   8.235   5.664 -0.0046  0.0407  0.3060
21210W        W64123  27.004  12.058   5.896  0.0336 -0.1312 -0.0893
21211W        W64124  25.142  12.058   5.355 -0.0018  0.1893 -0.0412
21212W        W64125  23.422  23.424  29.099  0.2546 -0.0744 -0.1159
21213W        W64126  22.712  32.961   8.446  0.1407 -0.3166 -0.1284
21214W        W64127  28.324   3.392   8.808 -0.3572 -0.2250  0.0896
21215W        W64128  26.298   8.962   7.264 -0.0742 -0.0921 -0.0806
21216W        W64129  14.549   6.645  28.425  0.1691 -0.0997 -0.3302
21217W        W64130  16.528   7.474  25.969  0.2024  0.3341  0.2020
21218W        W64131  20.730  34.167   5.405 -0.2962 -0.3794 -0.1310
21219W        W64132  16.670  11.421   5.393  0.0252 -0.0455 -0.2246
21220W        W64133  25.218   1.762   5.017 -0.1034 -0.2783  0.0504
21221W        W64134  26.996  32.494   8.544  0.0995 -0.1231  0.1265
21222W        W64135  15.021  33.103   6.918  0.2502  0.2909 -0.0423
21223W        W64136  14.120   6.401   1.657 -0.3248  0.3708  0.4248
21224W        W64137  25.693   7.783   6.616 -0.3991 -0.0158  0.1636
21225W        W64138  18.470   6.061   7.658  0.4031  0.0788  0.1953
21226W        W64139  13.825   1.703   7.787  0.2131  0.1770 -0.1626
21227W        W64140  25.205  23.991   3.802 -0.5003  0.2267 -0.2438
21228W        W64141  33.675   5.735   7.811 -0.0998 -0.1938  0.0760
21229W        W64142  22.454   9.974   7.449  0.3786 -0.1956 -0.2456
21230W        W64143  27.815   0.733   9.910 -0.1538  0.1226  0.1390
21231W        W64144  25.830   8.170   3.440 -0.1871  0.2925  0.0544
21232W        W64145  28.692   6.087   7.300 -0.0977  0.1064  0.4392
21233W        W64146  22.371   7.622   7.986 -0.1793 -0.0157  0.1245
21234W        W64147  14.203   3.964   8.241  0.0598  0.2271  0.2620
21235W        W64148  26.676   1.115   6.992  0.0849 -0.5162 -0.1198
21236W        W64149  17.906  32.227   5.917 -0.0697 -0.2704 -0.0642
21237W        W64150  27.656   6.937   0.546 -0.1214 -0.1780  0.2521
21238W        W64151  31.126  13.140   3.507  0.0149  0.2597 -0.1257
21239W        W64152  27.760   9.549   9.571  0.1338 -0.1598 -0.0972
21240W        W64153   3.181  34.203   9.139  0.1551 -0.1624  0.1484
21241W        W64154  21.369  11.119   7.657  0.3941 -0.0834  0.1422
21242W        W64155  23.865  20.667   8.811 -0.1782  0.0261  0.1601
21243W        W64156  33.856   9.871   9.380  0.2420 -0.1305 -0.1527
21244W        W64157  21.362   8.435   6.977 -0.0615 -0.0044  0.0278
21245W        W64158  22.387  34.180  29.154 -0.2242 -0.0329  0.1426
21246W        W64159  16.332  11.435   6.857  0.0399  0.0624 -0.3747
21247W        W64160  11.039  11.975   0.492 -0.1145 -0.0404  0.1985
21248W        W64161   3.035   9.774   7.293 -0.2222  0.0048 -0.0682
21249W        W64162  19.485   5.908   3.293 -0.4155  0.3372 -0.2115
21250W        W64163  14.198   6.586   6.496 -0.1574 -0.1866 -0.0591
21251W        W64164  31.570   9.365   7.661  0.0866 -0.0089 -0.0149
21252W        W64165   1.501   8.539   7.442  0.1063  0.2405 -0.1840
21253W        W64166  13.694  11.151   7.148 -0.1442 -0.0198 -0.0743
21254W        W64167  27.080  12.093   6.544 -0.1124 -0.0514  0.0576
21255W        W64168  22.939   5.967   4.837 -0.0898  0.1584 -0.0451
21256W        W64169  25.584  11.251   7.030  0.0497  0.3586 -0.0628
21257W        W64170   9.510   0.955   4.844 -0.2896  0.4404 -0.1248
21258W        W64171  23.699   8.295   8.116 -0.0822  0.1650  0.0298
21259W        W64172   0.185   4.527   9.409 -0.1266 -0.1284  0.3069
21260W        W64173  34.049   2.004  12.342  0.2790 -0.1596  0.1095
21261W        W64174  31.754   5.489   6.657 -0.0203  0.1297 -0.3941
21262W        W64175  31.263   0.153   7.550  0.0287  0.0427  0.1445
21263W        W64176  12.134   1.022  11.574 -0.0334 -0.1042 -0.3151
21264W        W64177  27.047  10.756   2.651  0.2762  0.3047 -0.1567
21265W        W64178  23.121  26.835   4.071 -0.3227 -0.0155  0.1564
21266W        W64179  14.479  28.074  27.296  0.2247  0.4484 -0.2103
21267W        W64180  24.172  10.536   9.070 -0.0927  0.1370 -0.0808
21268W        W64181  32.010   2.177  11.136  0.4192 -0.0737 -0.1756
21269W        W64182  21.018  29.634   5.641 -0.3492 -0.3246 -0.2961
21270W        W64183   0.665   3.124   8.642 -0.1918  0.1610  0.2048
21271W        W64184  23.110   3.657   3.293 -0.3011  0.1905 -0.4311
21272W        W64185  25.138  16.042   1.717 -0.0169 -0.0697  0.0296
21273W        W64186  19.946   5.362   9.663 -0.2410 -0.1725  0.2863
21274W        W64187   8.955  31.407   9.961  0.0687 -0.0052  0.0501
21275W        W64188  17.922  10.485   9.383 -0.1481 -0.1134 -0.0120
21276W        W64189  19.496   7.969   5.601  0.0876 -0.1477  0.3334
21277W        W64190   3.624   6.190  10.014  0.0009  0.1081 -0.0606
21278W        W64191  16.667   7.062   2.009  0.1766 -0.2643 -0.2470
21279W        W64192  18.033  31.727   1.205  0.1544  0.0628  0.0965
21280W        W64193  11.591   4.586   5.867  0.2681 -0.1416 -0.0209
21281W        W64194  23.809  33.339   5.379  0.0424  0.3629  0.1151
21282W        W64195  33.457   0.773   6.589  0.0753 -0.0154 -0.0086
21283W        W64196  16.847  32.702   5.335 -0.1609 -0.3154 -0.2228
21284W        W64197   0.877  13.322   7.602  0.2364  0.0804 -0.2134
21285W        W64198  31.194   2.876   3.742  0.1782 -0.3371 -0.0531
21286W        W64199  16.522  10.905   8.162 -0.3196  0.2396 -0.0204
21287W        W64200  29.900  32.061   6.201 -0.2246  0.1105  0.1877
21288W        W64201  26.929   3.916   0.223  0.1468 -0.0076  0.2897
21289W        W64202  33.099   4.160   6.176 -0.1243  0.0271 -0.2151
21290W        W64203  23.286  33.743   8.090 -0.2839  0.1244  0.2023
21291W        W64204  29.680   8.013  26.957 -0.2601  0.0395  0.0492
21292W        W64205  17.071   5.762   6.727  0.0459 -0.0327 -0.2576
21293W        W64206  23.299   6.407   9.947 -0.3428 -0.3194 -0.1619
21294W        W64207  18.218   5.083   3.650 -0.3763 -0.1757 -0.2181
21295W        W64208  22.239   1.853   4.391 -0.2017 -0.2703 -0.3330
21296W        W64209  29.424  32.509   3.184 -0.0501 -0.5296 -0.0512
21297W        W64210  27.945  13.364  28.788  0.3074 -0.0620 -0.1479
21298W        W64211  33.255   1.711  11.882  0.0823  0.1035  0.3870
21299W        W64212   4.661  10.674  12.092  0.0739 -0.2489  0.0396
21300W        W64213  25.953   4.131   9.147  0.0160  0.1274 -0.0404
21301W        W64214  19.751   2.515   8.556 -0.0865  0.1202 -0.0868
21302W        W64215  22.828   1.766   2.026  0.0817  0.0666 -0.3030
21303W        W64216  18.173  28.828   5.421  0.5144  0.4035  0.1111
21304W        W64217  14.789  17.247   1.302  0.4404 -0.0253 -0.3805
21305W        W64218  13.434   4.552   4.460 -0.0345 -0.0880  0.2626
21306W        W64219  19.451   6.441   4.329  0.1580  0.2023 -0.2069
21307W        W64220  21.886  33.251   5.124  0.2354 -0.2931  0.0195
21308W        W64221  25.153  33.970   4.150 -0.2977  0.1654  0.1637
21309W        W64222  12.013   5.134   6.621  0.1127  0.0254  0.0973
21310W        W64223  20.022  31.093   4.615  0.1188  0.1062 -0.0928
21311W        W64224  25.941   6.859   6.419  0.0148 -0.1195 -0.0754
21312W        W64225  30.495   8.240   8.904  0.3215 -0.1165 -0.0782
21313W        W64226  26.846  12.286  29.721  0.2464 -0.2073 -0.2246
21314W        W64227  20.678  15.212   3.855 -0.3401  0.0042 -0.1042
21315W        W64228  29.331   2.743   9.079  0.1182  0.1911 -0.1118
21316W        W64229  26.388   8.680  27.635  0.0349 -0.0810  0.0861
21317W        W64230  25.110  13.037  29.371  0.1097 -0.1337  0.3177
21318W        W64231  23.775   9.250   5.809  0.4888 -0.4320  0.2916
21319W        W64232  15.647  19.394   0.131  0.1162  0.0069 -0.0794
21320W        W64233  24.589  33.630  10.368  0.3326  0.2767  0.3101
21321W        W64234  26.653   5.565   1.311  0.1014  0.0703  0.1657
21322W        W64235  20.729   8.324   3.863  0.0132  0.1504 -0.3085
21323W        W64236  28.610   7.947   5.470 -0.0573 -0.0635 -0.1710
21324W        W64237  14.228   8.944   8.348  0.1719  0.2083 -0.3519
21325W        W64238  17.976   7.647   2.997  0.1673  0.2109  0.1423
21326W        W64239  22.590  13.946   4.523  0.1750  0.1959  0.2584
21327W        W64240  19.238  28.588   6.407 -0.1130  0.2684  0.0310
21328W        W64241  24.368  28.641   2.442  0.0484 -0.1256  0.2276
21329W        W64242  17.525   0.827   6.508  0.0912  0.0068 -0.0953
21330W        W64243  24.982   2.367   7.115  0.0428 -0.1422  0.0302
21331W        W64244  29.438   8.260   9.614  0.2166 -0.2315  0.1647
21332W        W64245  21.668  10.463   7.940  0.0595  0.2213 -0.3416
21333W        W64246  17.019   8.408   5.553  0.3036  0.1280 -0.2676
21334W        W64247  26.204   6.265  10.186 -0.0049  0.0845  0.3060
21335W        W64248  18.786  24.475  29.047 -0.2835  0.1757 -0.1501
21336W        W64249  24.287  13.639   0.656 -0.1826  0.2928 -0.0433
21337W        W64250  19.751  12.260   6.930 -0.0964  0.2189 -0.2807
21338W        W64251  24.801  34.012   2.892  0.2419 -0.2889 -0.0051
21339W        W64252  12.856   1.515   3.571  0.0580  0.1217  0.3506
21340W        W64253  26.639   0.449   7.764  0.3159 -0.2120  0.2088
21341W        W64254  26.325  16.634   1.289  0.0561  0.2541 -0.0796
21342W        W64255  30.501  11.305   9.895 -0.0450  0.0218 -0.1041
21343W        W64256  21.952   6.756   6.858  0.1629 -0.1263 -0.1411
21344W        W64257  24.972  18.849   5.494  0.1860  0.1403  0.0184
21345W        W64258  16.570   3.816  26.465  0.3274 -0.0783 -0.2371
21346W        W64259  24.381  12.767   2.641 -0.3360 -0.2204  0.1720
21347W        W64260  27.227  10.547  22.042 -0.1936  0.1460  0.2884
21348W        W64261  19.114  10.035  22.131 -0.4365  0.0789 -0.2013
21349W        W64262   8.693   6.628   5.038 -0.0678 -0.0085  0.0122
21350W        W64263  14.002  11.891   4.454  0.0893  0.0573  0.4164
21351W        W64264  22.985  15.901   9.162 -0.1246 -0.1175  0.1137
21352W        W64265  15.216   9.782   1.339  0.1244  0.3388 -0.1387
21353W        W64266   2.251  10.718  29.457  0.3209 -0.1771  0.2492
21354W        W64267   2.163  16.007   1.276  0.3382  0.0439 -0.1030
21355W        W64268  26.685   6.282  23.964  0.2223 -0.1823  0.2593
21356W        W64269  15.991   9.776   0.778 -0.0025  0.0496  0.1740
21357W        W64270  24.400   2.997   8.625  0.2603  0.1240 -0.2865
21358W        W64271  20.121  10.851   8.613  0.0830 -0.0656 -0.0972
21359W        W64272  12.946   7.812  29.230 -0.0152 -0.2697 -0.3533
21360W        W64273  23.207  12.071  27.325  0.4089 -0.1549  0.0880
21361W        W64274  30.501  19.260   4.394 -0.0930 -0.2496 -0.0539
21362W        W64275  26.701   3.679   1.162  0.3016 -0.2049 -0.1653
21363W        W64276  18.637  31.755   9.902  0.4541 -0.0415 -0.0689
21364W        W64277  20.239   7.542  26.379  0.0522  0.1113 -0.3023
21365W        W64278  11.944   3.330  24.041 -0.0308  0.0474 -0.1891
21366W        W64279  19.352   3.306   4.660 -0.1578  0.2061  0.1647
21367W        W64280  24.215  33.134   8.612 -0.0463 -0.0525 -0.0095
21368W        W64281  30.120   7.861   9.034  0.1048 -0.1317  0.0746
21369W        W64282  16.175   6.222  28.218  0.2019  0.0934  0.0304
21370W        W64283  17.241   5.882  24.407  0.0724 -0.2364 -0.0630
21371W        W64284  23.364   8.822  15.419 -0.3752 -0.1466  0.0025
21372W        W64285  23.752   5.648  28.530  0.0984  0.2217  0.3654
21373W        W64286  20.650   0.648   1.502  0.0809  0.2570  0.0465
21374W        W64287  16.422   5.486  21.720 -0.1110  0.1015 -0.0630
21375W        W64288  17.084   4.122  25.533  0.1358 -0.1062  0.0456
21376W        W64289  21.892   6.395   8.033  0.3302 -0.0994 -0.1563
21377W        W64290  29.363   4.107   8.792 -0.2743  0.0696  0.0243
21378W        W64291  14.781   6.369   6.389  0.0557 -0.1831  0.0890
21379W        W64292  23.897  32.326   1.641  0.1852 -0.0095  0.2365
21380W        W64293  19.662  30.328   5.144  0.0988  0.0182  0.0366
21381W        W64294  28.454   9.931   1.838 -0.0091 -0.1690  0.0924
21382W        W64295  23.881  14.130   4.485  0.0558 -0.0655 -0.1358
21383W        W64296  17.329   4.488  19.427 -0.1287  0.0181  0.2379
21384W        W64297  16.191   6.929  18.954  0.1083 -0.1025 -0.2045
21385W        W64298  15.567  32.556   7.412 -0.0866  0.4411 -0.0408
21386W        W64299  30.291  20.871  27.732 -0.3001  0.2734 -0.0130
21387W        W64300  20.198  10.906   3.957  0.3771  0.4859 -0.3199
21388W        W64301  22.940  12.757   7.149  0.5701 -0.0735  0.2204
21389W        W64302  23.365  11.943  22.275 -0.1103 -0.1386 -0.0402
21390W        W64303  16.116  12.573  26.438 -0.0550  0.5505  0.0036
21391W        W64304  27.221  11.904  26.902  0.1997  0.0332  0.0673
21392W        W64305  20.292  16.991  26.244  0.1609  0.0400 -0.0969
21393W        W64306  31.938  14.436  29.507 -0.0882 -0.1093 -0.1079
21394W        W64307  28.805   9.383  10.016 -0.3839  0.0411  0.1661
21395W        W64308  30.244   5.035   7.275  0.0963 -0.0752  0.2440
21396W        W64309  15.277   0.555  25.806 -0.0591  0.1316 -0.0902
21397W        W64310  20.135   2.191   2.320 -0.4047  0.0189 -0.1459
21398W        W64311  15.899   8.349   9.113  0.2240 -0.0383 -0.0641
21399W        W64312  14.525   5.180   8.734  0.1578 -0.0246  0.3391
21400W        W64313   9.752  32.878  28.508 -0.1184  0.2785 -0.1094
21401W        W64314  27.779  20.336  29.424 -0.5438 -0.2305  0.2229
21402W        W64315  24.720   0.861  23.285 -0.2051 -0.3035 -0.1628
21403W        W64316  23.149  10.054  25.376 -0.1829 -0.1967  0.0121
21404W        W64317  26.476  32.476  27.160  0.1994 -0.0973 -0.2094
21405W        W64318   6.076   7.373  29.269 -0.1163  0.2055  0.2026
21406W        W64319  12.491   3.041  25.315  0.1034  0.3481 -0.0320
21407W        W64320  22.888  11.417   2.207  0.2209 -0.1171 -0.0997
21408W        W64321  23.290  13.319   2.352  0.2582  0.0246 -0.1686
21409W        W64322   2.637  14.242  23.625 -0.3604  0.1682 -0.2776
21410W        W64323  30.510  13.459   0.093  0.0672  0.0281  0.1751
21411W        W64324  19.227   0.334   3.620 -0.0586  0.1833  0.0214
21412W        W64325  21.969   5.078   4.178  0.0689 -0.1110  0.4389
21413W        W64326  29.168  10.336   2.206  0.1750  0.2360  0.0190
21414W        W64327  29.892   5.180   5.516 -0.1206 -0.0709  0.4122
21415W        W64328  29.530  32.547  19.868  0.1491  0.0156 -0.2743
21416W        W64329  28.134  13.110   8.462 -0.0919 -0.0434 -0.1547
21417W        W64330  21.020   9.729   8.243 -0.1711  0.0367 -0.0808
21418W        W64331  18.411  13.393   6.100 -0.0095 -0.1757  0.0209
21419W        W64332  29.926   7.302  21.165  0.1122  0.1964  0.2436
21420W        W64333  25.923  16.696  24.936 -0.0540  0.1790  0.2095
21421W        W64334  14.709   5.786  10.309  0.1226 -0.1835  0.2810
21422W        W64335   9.484   7.397   0.769 -0.1430  0.0341  0.0298
21423W        W64336  19.308   8.653   1.267 -0.1958  0.2258  0.0313
21424W        W64337  20.372   8.104   6.156  0.0258 -0.1200 -0.3410
21425W        W64338  26.337  34.027  23.739  0.3045  0.0950 -0.1139
21426W        W64339  23.607  13.652   4.630 -0.0591  0.3320  0.1212
21427W        W64340  29.849  34.125  27.755  0.2175 -0.0532 -0.0989
21428W        W64341  18.850  32.764   0.994 -0.1630 -0.1186 -0.0129
21429W        W64342  12.190   9.041   2.497  0.2361 -0.0867  0.0018
21430W        W64343   5.379  10.674  10.089 -0.1438 -0.0988  0.2169
21431W        W64344  29.966   1.193  28.498  0.5378  0.2199  0.0876
21432W        W64345  18.472   2.358   3.763 -0.0656  0.3103 -0.1034
21433W        W64346  19.699   4.467  28.268  0.2859  0.1369  0.1706
21434W        W64347  20.442  17.838  29.611  0.0210  0.2071 -0.0100
21435W        W64348  29.159   5.325  23.452  0.1164 -0.2192  0.3765
21436W        W64349  26.220   8.820  28.133 -0.0582  0.0777  0.2520
21437W        W64350  31.102   5.021  10.420 -0.0768 -0.0183 -0.1931
21438W        W64351  22.158   8.206   6.863  0.1404 -0.0510  0.1467
21439W        W64352  20.956  10.251   1.003 -0.0241  0.4176  0.1060
21440W        W64353  16.987  11.327  29.262  0.1249 -0.0353 -0.0436
21441W        W64354  15.373  30.286  25.690  0.0162  0.1217  0.0085
21442W        W64355  17.598  29.858  26.358 -0.2211  0.2170  0.0014
21443W        W64356  19.712  13.175  19.859  0.1925 -0.0072  0.0334
21444W        W64357  19.895   5.722   2.850 -0.2533 -0.0872  0.1037
21445W        W64358  22.859  31.737  28.010  0.2115 -0.1632 -0.3929
21446W        W64359  27.110  12.584   6.256 -0.0421 -0.2240 -0.0579
21447W        W64360  20.559  30.691   7.111  0.0334  0.0912 -0.0360
21448W        W64361  26.162  12.769   9.077  0.2854 -0.0844 -0.0905
21449W        W64362  27.961  13.439   2.243  0.0495  0.1630  0.1980
21450W        W64363  22.767   7.171  21.386 -0.2125 -0.1876  0.0468
21451W        W64364  24.659  10.334   7.163  0.0828 -0.3558  0.0082
21452W        W64365  24.168   6.713  24.897  0.0341  0.0861 -0.0961
21453W        W64366  30.690  13.422   6.365 -0.1363  0.2196 -0.1729
21454W        W64367  23.761  13.391   2.298 -0.0092  0.1494  0.0400
21455W        W64368  29.318  10.056  25.384 -0.0768  0.2510  0.0659
21456W        W64369  18.971   9.325   2.370 -0.4118 -0.1589 -0.1663
21457W        W64370  25.423  13.821   2.138 -0.1363 -0.0287  0.0569
21458W        W64371  30.744   6.688   5.528  0.4496 -0.0514  0.0766
21459W        W64372  26.206  13.591  27.946  0.0494  0.3258 -0.1326
21460W        W64373  21.961  11.887   2.234  0.0756  0.0540 -0.2573
21461W        W64374   3.284  11.214   3.752  0.2285 -0.1946 -0.0158
21462W        W64375  13.938  15.290  29.322 -0.0296  0.2166  0.4626
21463W        W64376  27.977  14.515   2.351 -0.4205 -0.2397 -0.0885
21464W        W64377  19.396  29.379   8.952 -0.1820  0.5360 -0.1624
21465W        W64378  20.046   3.896  27.564 -0.2584 -0.4523  0.2013
21466W        W64379  25.031  13.575  24.149  0.1242  0.0177  0.0323
21467W        W64380  25.775   5.849   9.088 -0.1390  0.0634  0.0019
21468W        W64381  12.879  10.880   5.083  0.0790  0.1991 -0.2800
21469W        W64382  23.303   2.851   5.376 -0.3687  0.0186  0.1491
21470W        W64383  32.568   7.539   4.595  0.0026  0.0242 -0.0300
21471W        W64384  28.142  18.574   7.693  0.1435  0.0348 -0.1734
21472W        W64385  19.233  11.738  23.295 -0.2756  0.1954 -0.2261
21473W        W64386  33.349   2.057  16.960  0.0394  0.0871 -0.0298
21474W        W64387  23.728   3.857  25.062  0.1146 -0.1170 -0.2554
21475W        W64388  13.587   2.975  26.395  0.1575 -0.0176 -0.1271
21476W        W64389  16.433  13.145  21.991  0.0234  0.1274  0.2627
21477W        W64390  23.047   2.579   7.360  0.2082  0.1222 -0.0641
21478W        W64391  16.694  11.276  25.295 -0.0896 -0.3785  0.1654
21479W        W64392  26.862  13.467  20.428 -0.0166 -0.1203  0.2365
21480W        W64393  18.704  14.887   6.163 -0.2414  0.0543  0.1147
21481W        W64394  32.705  15.870  28.875  0.1539 -0.1156  0.1314
21482W        W64395  29.403  12.168  26.686  0.2272  0.1820 -0.0221
21483W        W64396  16.399   2.040  15.479 -0.1992 -0.0045  0.1696
21484W        W64397  16.928   5.827  26.839  0.0471 -0.0363  0.1666
21485W        W64398  25.486  12.219  29.108 -0.1500  0.2601 -0.3630
21486W        W64399   9.248   4.782  29.106 -0.1849  0.0640  0.0902
21487W        W64400  23.308   4.848  26.425 -0.1474 -0.3167 -0.2081
21488W        W64401  30.225  17.182  27.601  0.1353 -0.1825 -0.0206
21489W        W64402  20.898   5.140   2.919  0.1680 -0.1907  0.0993
21490W        W64403  11.020   3.144   3.247  0.0780  0.2528  0.1659
21491W        W64404  26.276  11.229   8.861 -0.1562 -0.0851 -0.1729
21492W        W64405  29.507  20.784   8.568  0.0069 -0.0965 -0.0935
21493W        W64406  26.159  11.546  28.284  0.0621  0.0319 -0.2773
21494W        W64407  26.111   8.281   8.787  0.4855 -0.2385 -0.1870
21495W        W64408  10.798  32.831   3.584  0.3094 -0.1121 -0.1333
21496W        W64409  26.283  14.399   2.384 -0.1760  0.1844 -0.0781
21497W        W64410  26.579   6.225  27.566 -0.1643  0.0752 -0.0792
21498W        W64411  22.970  14.333  25.840 -0.1208  0.2787  0.2131
21499W        W64412  24.979   7.566  27.972 -0.0584 -0.0246 -0.1073
21500W        W64413  20.986   1.629  23.595 -0.0467  0.1513  0.0855
21501W        W64414  22.066   4.983  26.568  0.4330  0.0586  0.2229
21502W        W64415  19.085  12.419   4.540  0.2016 -0.2008 -0.0867
21503W        W64416  21.362  32.207   3.740  0.0347 -0.1408  0.2270
21504W        W64417  25.248  13.929  26.874  0.3017 -0.0045  0.4347
21505W        W64418  22.872  17.446   7.390 -0.2026  0.0152  0.1541
21506W        W64419  24.115   3.692   6.942  0.1254  0.0889 -0.1600
21507W        W64420  21.423   7.125  16.515 -0.2098  0.2673  0.2326
21508W        W64421  23.886   3.399   6.567 -0.0005 -0.1001 -0.0071
21509W        W64422  19.398  11.997  27.471  0.2106  0.2137  0.0241
21510W        W64423  26.427   9.334  25.965  0.0051 -0.1094 -0.1664
21511W        W64424  15.095   6.733   9.312 -0.1460  0.1626 -0.3166
21512W        W64425  23.697   5.898   4.087  0.0098  0.4445  0.1806
21513W        W64426  32.717  14.288   0.872 -0.2531  0.0259 -0.0377
21514W        W64427  28.043  27.252  21.600 -0.0687  0.0198  0.1185
21515W        W64428  20.975   6.277   1.436  0.1978  0.3238 -0.0393
21516W        W64429  14.852   2.627   2.160  0.0120 -0.0047 -0.0276
21517W        W64430  23.264   8.519  28.463  0.1274  0.4911 -0.2947
21518W        W64431   2.357   7.085  29.502 -0.0191  0.2501  0.2417
21519W        W64432  28.171   5.324   7.338 -0.3503 -0.1876  0.0591
21520W        W64433  14.451   7.454   1.972  0.2071 -0.0540  0.2698
21521W        W64434  15.811   2.042  21.628 -0.0356 -0.1802 -0.1195
21522W        W64435  24.510   6.849   5.221  0.1063  0.1827 -0.3943
21523W        W64436  20.693  14.856  28.081  0.0575 -0.1979 -0.1104
21524W        W64437  20.878   5.092   5.569 -0.2125 -0.0463  0.0838
21525W        W64438  23.591  12.790  29.120  0.3885 -0.1050  0.2438
21526W        W64439  24.209  13.733  27.401  0.1318 -0.0972 -0.0120
21527W        W64440  20.202   2.911   4.536  0.3322  0.1795 -0.0422
21528W        W64441  27.934  16.465   2.734  0.1009  0.1779  0.0791
21529W        W64442  17.134   6.742   8.816 -0.2092 -0.2176  0.0789
21530W        W64443   8.656   3.060   8.331  0.2565  0.1968 -0.1780
21531W        W64444  16.002   1.441  24.538  0.0157 -0.1639  0.0948
21532W        W64445   4.942   9.800   8.094 -0.0492 -0.1666 -0.0137
21533W        W64446  23.761   0.060   8.137  0.2210  0.0977 -0.1641
21534W        W64447  22.308  13.271   0.447  0.1340 -0.2495  0.2850
21535W        W64448  16.658   7.033   5.194 -0.2689 -0.0837 -0.1384
21536W        W64449  31.888   1.034   5.445  0.0190  0.0437 -0.0827
21537W        W64450  30.497  10.608   7.485  0.3135 -0.2452 -0.4037
21538W        W64451  21.219  18.385  23.197  0.1785  0.1235 -0.1556
21539W        W64452  21.398  13.766   4.288 -0.1351  0.2954  0.2934
21540W        W64453  27.348  31.616   1.064  0.2013 -0.2227  0.1928
21541W        W64454  13.278  32.597  29.468 -0.1111 -0.1464  0.0340
21542W        W64455  28.857   7.197   6.089  0.0136 -0.0135 -0.0812
21543W        W64456  18.338  34.194  29.481  0.1893  0.1320 -0.1810
21544W        W64457  29.099   8.180  10.141 -0.1007  0.1759 -0.0568
21545W        W64458  11.070  12.377  26.366 -0.0308 -0.2242  0.2371
21546W        W64459  19.514  12.358   8.918 -0.0306  0.0963  0.0939
21547W        W64460  28.142  22.872   4.286 -0.0894 -0.3195 -0.2298
21548W        W64461  23.556  30.550   3.485 -0.0513 -0.1122  0.2765
21549W        W64462  24.092   3.745  27.668 -0.0507  0.0476  0.1054
21550W        W64463  29.122  31.517  29.141  0.0761 -0.2203 -0.2675
21551W        W64464  15.959   5.316   9.917  0.0153  0.0859 -0.0589
21552W        W64465  26.638  17.879   2.221 -0.1043 -0.1161  0.2134
21553W        W64466  25.999   8.723   2.163 -0.1178 -0.0367 -0.0214
21554W        W64467  29.377   9.158   2.410 -0.0455 -0.0462 -0.3389
21555W        W64468   8.121   3.962   4.618  0.2016 -0.2450 -0.0264
21556W        W64469  19.082  34.422   1.839 -0.0908  0.1372  0.1287
21557W        W64470  22.692  15.057   0.726  0.1859  0.2130  0.0943
21558W        W64471  21.082   9.833  25.207 -0.2381 -0.1328 -0.1169
21559W        W64472  28.857  13.236  28.999  0.1412 -0.2064  0.1786
21560W        W64473  32.400  16.502   5.380 -0.0998 -0.1645 -0.0107
21561W        W64474  23.756   2.955   7.292 -0.2698 -0.0654 -0.1416
21562W        W64475  10.970   8.887   6.106 -0.0810  0.1104  0.0114
21563W        W64476  21.504   8.105   8.066 -0.1514 -0.0427 -0.1459
21564W        W64477  26.524   4.867   7.721 -0.2304 -0.0412  0.0583
21565W        W64478  22.184  10.235  22.135 -0.2012  0.0243 -0.0203
21566W        W64479  19.046  25.346   1.531  0.2237 -0.0245  0.3701
21567W        W64480  16.167   7.181  28.736 -0.0159 -0.0640  0.4255
21568W        W64481  30.538  34.294  27.939 -0.1908  0.1785  0.0249
21569W        W64482  24.302  12.932  20.967  0.0058  0.1146  0.0013
21570W        W64483  11.153   4.036  24.540  0.2474 -0.2821  0.0399
21571W        W64484  31.273  19.036   9.183 -0.3719 -0.1925 -0.0406
21572W        W64485  21.035   5.614   9.608  0.1107 -0.0378  0.2494
21573W        W64486  11.291   8.499  26.588 -0.0341 -0.1250 -0.2399
21574W        W64487  24.296   7.223  10.011 -0.2404  0.0453 -0.2033
21575W        W64488  20.878   8.575  23.010 -0.1801 -0.2296 -0.2358
21576W        W64489  33.196  28.991   3.579  0.0985  0.3587 -0.1780
21577W        W64490   9.665   7.775   0.004  0.0552  0.1077  0.4402
21578W        W64491  21.610   7.403   6.595 -0.2832 -0.1876 -0.1557
21579W        W64492  21.741  12.442   7.666 -0.1965 -0.0753  0.1654
21580W        W64493  25.204  11.364  26.785  0.0650  0.0635 -0.1693
21581W        W64494  17.798  34.149   0.989  0.0457 -0.2973 -0.0362
21582W        W64495   1.149   0.607  24.321 -0.0550  0.1666  0.0024
21583W        W64496  32.672   3.161  24.172  0.1982 -0.1914  0.0221
21584W        W64497  21.315   0.355   2.573 -0.2675 -0.4183  0.0831
21585W        W64498  15.684   3.247  24.207  0.2176 -0.2278  0.1187
21586W        W64499  17.884  11.183  27.982 -0.1507  0.2875 -0.3044
21587W        W64500  28.758   6.728  23.531 -0.2048  0.1021 -0.1223
21588W        W64501  30.905  18.569   1.762  0.3771 -0.1920  0.0682
21589W        W64502  17.396   4.547  25.707 -0.1220 -0.0626  0.0850
21590W        W64503  27.266  30.885   5.283 -0.0276 -0.0318 -0.2284
21591W        W64504  33.614  15.845  28.032  0.1780 -0.0305  0.1302
21592W        W64505  24.661  10.277   9.775  0.0960  0.3847 -0.1623
21593W        W64506  17.594   8.922  21.992  0.2270  0.1046 -0.0418
21594W        W64507   9.436   5.322  29.015  0.2405 -0.0255  0.0642
21595W        W64508  27.155  33.699  19.444  0.0491  0.0542 -0.1238
21596W        W64509  22.132   0.385  26.943 -0.2574 -0.0569 -0.2513
21597W        W64510  28.133  12.271   8.437 -0.1026 -0.0666 -0.0038
21598W        W64511  24.355  11.485   2.221  0.0810 -0.1023  0.0427
21599W        W64512  26.522   1.669  28.276  0.1415  0.1539  0.0639
21600W        W64513  18.418   0.887   8.792  0.1226  0.0645 -0.3692
21601W        W64514  29.898   9.509   1.569 -0.0522  0.2199  0.1044
21602W        W64515  20.980   9.544   7.707 -0.1295  0.0505  0.0571
21603W        W64516  15.675   8.354  27.167 -0.2063  0.0613 -0.0392
21604W        W64517  22.994   1.620   8.456  0.1412 -0.1405 -0.2209
21605W        W64518  19.424  11.663   2.210  0.0419 -0.0077  0.0882
21606W        W64519  15.666   4.153  17.718 -0.0775 -0.0887 -0.2997
21607W        W64520  24.359  10.032  23.438 -0.1949  0.0289 -0.1093
21608W        W64521  27.777  10.008   3.840  0.0869 -0.3415 -0.0472
21609W        W64522  20.569  14.854  26.963  0.1948 -0.2054  0.3659
21610W        W64523  18.338  31.801   4.924 -0.0145 -0.0020 -0.1068
21611W        W64524  28.830  17.746  29.753 -0.0199 -0.0396 -0.1360
21612W        W64525  15.359   0.297  25.317  0.1805  0.1669  0.2739
21613W        W64526  13.496   5.622   2.942  0.0865  0.1104  0.3347
21614W        W64527  21.533  11.882  27.309  0.6152 -0.2153 -0.1743
21615W        W64528  16.673  21.458  23.139 -0.4668  0.0825 -0.0246
21616W        W64529  23.251  22.550   5.600  0.0498 -0.0480  0.0079
21617W        W64530  19.432  34.409  22.395  0.1382  0.0660 -0.1830
21618W        W64531  19.251  14.202  22.937 -0.1641 -0.1191  0.4438
21619W        W64532  12.786  16.924  20.976  0.3356  0.4083  0.1548
21620W        W64533  15.246  28.378  28.436  0.1306  0.2718  0.2690
21621W        W64534  22.816  14.893   2.118  0.0201  0.0696 -0.0045
21622W        W64535  32.614  31.422   6.715 -0.1072 -0.3053  0.3429
21623W        W64536  22.488  12.450  23.755 -0.0406 -0.4392  0.1265
21624W        W64537  22.580   4.146  26.983 -0.0928  0.1191  0.0954
21625W        W64538  23.635  29.633  27.158 -0.0786 -0.0009 -0.2073
21626W        W64539  21.532  29.395   5.040 -0.0204 -0.1015 -0.0107
21627W        W64540  31.852  16.649  22.359  0.0386  0.1637  0.0625
21628W        W64541  22.614   5.855   1.446  0.3572 -0.0742 -0.4962
21629W        W64542  22.497  34.049   9.863 -0.2908 -0.0651 -0.0168
21630W        W64543   6.124  11.089   5.025 -0.0089 -0.3305 -0.0063
21631W        W64544  25.264  10.822   9.137 -0.0850 -0.2470 -0.1815
21632W        W64545  17.408  20.135   3.266  0.0626 -0.0843 -0.1211
21633W        W64546  26.830   2.656  26.856  0.0619  0.0771 -0.0494
21634W        W64547  23.878  17.529  23.047 -0.1621 -0.0832 -0.3294
21635W        W64548  17.258  11.787   7.974  0.2523 -0.0185 -0.0183
21636W        W64549  21.195  11.194  16.148 -0.1193  0.0928  0.4184
21637W        W64550  30.115  12.368   4.808 -0.3659 -0.1195  0.2262
21638W        W64551  25.372   7.378   4.064 -0.2473  0.3164 -0.2066
21639W        W64552  20.615  16.067  29.551  0.1184 -0.2245  0.2401
21640W        W64553  24.176   7.595   9.018 -0.1063 -0.0383 -0.0711
21641W        W64554  22.630   5.869   6.571  0.1916  0.0540  0.0124
21642W        W64555  19.967  12.748   7.874  0.0255 -0.0115  0.0619
21643W        W64556  10.316  14.020   3.724 -0.2185  0.1871 -0.0287
21644W        W64557  16.662  12.606  29.331 -0.0464  0.0983  0.0122
21645W        W64558  28.690  12.208   9.866  0.4055 -0.0373  0.1188
21646W        W64559  19.604   6.727  27.454  0.0554 -0.4250 -0.0650
21647W        W64560  27.466   6.901   0.111  0.1687  0.2918 -0.0097
21648W        W64561  27.729  15.938   3.707  0.1684  0.2520 -0.0130
21649W        W64562  26.256  15.032  27.929 -0.2257  0.0360 -0.0905
21650W        W64563  26.317  12.949   5.097 -0.1683 -0.3342  0.1121
21651W        W64564   1.361   4.311   0.849 -0.0895 -0.0453 -0.0930
21652W        W64565  20.771   6.130   7.498  0.1390  0.1581 -0.2009
21653W        W64566  17.401   1.847  23.388 -0.0711  0.2650 -0.0675
21654W        W64567  26.642  12.342   9.179  0.0889 -0.2946 -0.0043
21655W        W64568  26.050  30.706  29.725 -0.2123 -0.1287 -0.1306
21656W        W64569  23.449   1.826  26.562 -0.2271  0.2263  0.1640
21657W        W64570  19.944  16.739  21.944 -0.0721 -0.1689  0.1393
21658W        W64571  25.471  15.907   3.851 -0.4181 -0.0152  0.0782
21659W        W64572  25.262  11.523   0.678  0.3817 -0.2960  0.2455
21660W        W64573  17.574  11.957  19.872  0.2255  0.1450 -0.0770
21661W        W64574  20.399  33.249  18.643  0.1036 -0.0393  0.1037
21662W        W64575  21.393   9.563   6.746  0.1161 -0.0789 -0.0122
21663W        W64576  15.687   7.899  22.030 -0.0641 -0.1289  0.1164
21664W        W64577  20.444   7.971   0.563 -0.0506  0.0394  0.0117
21665W        W64578  23.471  10.850  29.508  0.0506 -0.2304 -0.1054
21666W        W64579  29.829   2.240   3.149 -0.2605 -0.0093 -0.1039
21667W        W64580  30.568  30.598   9.533  0.2421  0.1789 -0.0377
21668W        W64581  13.721  15.485   0.162  0.5396 -0.1017  0.2571
21669W        W64582  19.634  10.435   1.264  0.0110 -0.3004  0.0552
21670W        W64583  23.385  32.451  22.004 -0.1217  0.0185  0.0614
21671W        W64584  33.930   4.257   0.528  0.0968 -0.1113  0.0791
21672W        W64585  26.030  26.348  26.506 -0.0463  0.1737 -0.1110
21673W        W64586  13.389   4.976   0.666 -0.1624  0.2668 -0.0472
21674W        W64587  18.014  10.509  29.133  0.0352 -0.2195 -0.0186
21675W        W64588   0.738  11.142   3.070  0.1042 -0.0543  0.0313
21676W        W64589  17.697   5.607   7.344  0.0683  0.2123 -0.0026
21677W        W64590  29.326  22.965   1.144  0.0711 -0.6058 -0.0332
21678W        W64591  29.206   9.519  21.350  0.0902 -0.1246  0.0696
21679W        W64592  20.493  33.456   3.421 -0.0541 -0.1839  0.0958
21680W        W64593  19.006   2.292  10.029  0.3593 -0.4910 -0.3389
21681W        W64594  28.398  12.234  28.435  0.1857 -0.2048 -0.0069
21682W        W64595  21.908  33.852   3.328  0.0501  0.1064 -0.0649
21683W        W64596  21.026   2.468  28.736  0.0036 -0.2608  0.1476
21684W        W64597  19.016   5.959   5.271  0.0492 -0.1592 -0.0155
21685W        W64598  19.805  23.351   6.109  0.0565  0.3246  0.1839
21686W        W64599  27.826   5.562  29.039 -0.1291  0.0136  0.0693
21687W        W64600  23.661   1.626   7.680  0.1634  0.1083  0.1667
21688W        W64601  21.226  10.022   2.228 -0.1249  0.0590  0.1928
21689W        W64602  25.196   6.519   6.195  0.1619  0.0110  0.0092
21690W        W64603  28.162   6.894  17.667  0.1869 -0.3918 -0.0250
21691W        W64604  25.368   0.865   6.793  0.0558 -0.1350 -0.0327
21692W        W64605  24.747   8.778   1.542  0.0146 -0.0086 -0.7441
21693W        W64606  21.426  15.735   3.411  0.1787  0.1050  0.0284
21694W        W64607  14.827   4.714   8.622 -0.1247  0.2590  0.1777
21695W        W64608   7.527   1.442  28.500  0.1140  0.0473 -0.1288
21696W        W64609  15.409   9.243   9.589  0.1204 -0.3109 -0.1635
21697W        W64610  14.449   7.249   4.800  0.0942 -0.1009 -0.1547
21698W        W64611  16.123   8.649   7.015 -0.0263 -0.0531  0.1764
21699W        W64612  27.091   2.718  28.914  0.4835 -0.2073  0.0669
21700W        W64613  16.763  11.829  23.990 -0.1658  0.1325 -0.2571
21701W        W64614  15.041  32.283  11.879  0.1315 -0.0556 -0.2035
21702W        W64615  20.287   7.492   2.815  0.1754  0.1537  0.2229
21703W        W64616  17.232  15.061  28.862 -0.0674 -0.0194  0.0640
21704W        W64617  26.689  14.069   3.127 -0.0573 -0.2978  0.0845
21705W        W64618  18.125   0.990   4.130  0.2533  0.1599  0.4434
21706W        W64619  15.451   3.779  25.885  0.0006  0.2024  0.3615
21707W        W64620  19.582   5.765   6.286 -0.0351 -0.0901 -0.1166
21708W        W64621  24.521  10.554  25.137  0.0667  0.0819  0.0829
21709W        W64622  20.542  13.927  19.032  0.2381 -0.3445 -0.0386
21710W        W64623  10.532   9.950   2.728  0.2501 -0.2065 -0.0463
21711W        W64624  21.377   8.814  23.179  0.3199 -0.0216  0.0198
21712W        W64625  21.038  28.489  21.770  0.0559  0.0204  0.0253
21713W        W64626  24.605  22.397  16.837 -0.2517 -0.1898  0.0401
21714W        W64627  24.621   7.527   3.592 -0.1407  0.0328 -0.1247
21715W        W64628  21.396   8.351   4.592 -0.0334 -0.1608 -0.3818
21716W        W64629  20.444   5.763   3.530  0.0107 -0.0697 -0.0226
21717W        W64630  23.272  25.707   3.056 -0.0513 -0.3718  0.3176
21718W        W64631  28.532   7.183   7.819 -0.0133  0.0805 -0.0213
21719W        W64632  18.922   1.270   1.324  0.1864 -0.2995 -0.1313
21720W        W64633  28.583  22.672   7.424 -0.2932 -0.3488  0.2593
21721W        W64634  17.874   7.177  26.423 -0.1990 -0.0448  0.0210
21722W        W64635  32.379   6.642   2.804  0.0169  0.0518 -0.1054
21723W        W64636  28.492  15.393   6.404 -0.5076  0.1097 -0.0032
21724W        W64637  23.205  14.483   3.088 -0.3082  0.1804 -0.0766
21725W        W64638  29.778  12.442  27.113  0.5429  0.2719  0.1201
21726W        W64639  12.622   5.019   1.351  0.1703 -0.0891 -0.0576
21727W        W64640  18.133  15.433   0.228  0.1370  0.0798 -0.0945
21728W        W64641  13.415  31.507  18.323 -0.2264  0.1476 -0.1777
21729W        W64642  10.850  10.879  29.533 -0.0067  0.0140  0.0716
21730W        W64643  17.390   1.037  10.278  0.0895 -0.6302  0.1638
21731W        W64644  27.455  17.058  25.171 -0.1363  0.0768 -0.0524
21732W        W64645   3.962  13.502   1.647 -0.1918  0.1096  0.2522
21733W        W64646  20.658  14.333   6.335 -0.1117 -0.2557 -0.2282
21734W        W64647  20.375  14.233  26.429 -0.0368  0.0639 -0.1948
21735W        W64648  22.239  11.494   8.511  0.1326  0.4068 -0.1638
21736W        W64649  28.837  13.328   8.037 -0.2138  0.0204 -0.2505
21737W        W64650   6.679   4.477   0.825 -0.0008  0.1724  0.1956
21738W        W64651  27.185   7.423   2.664  0.2852  0.4185 -0.1284
21739W        W64652  23.799   6.891  27.330  0.2903  0.2178  0.1619
21740W        W64653  23.883   2.867  24.954  0.0878  0.1370  0.2621
21741W        W64654  18.365   3.835   0.870  0.0826  0.2073 -0.1187
21742W        W64655  29.765   9.503   5.916  0.1986 -0.0412 -0.1007
21743W        W64656  19.979  13.231  22.140  0.0266 -0.1380 -0.0745
21744W        W64657  23.157  13.115   1.765  0.4792 -0.3090 -0.4094
21745W        W64658  27.787  10.785   9.502  0.1202  0.3917 -0.2015
21746W        W64659  28.263   1.569   7.118 -0.2017  0.1306  0.2378
21747W        W64660  23.169  11.735   1.982 -0.4389 -0.0781 -0.0396
21748W        W64661  18.294   6.664   5.499 -0.0046  0.1475 -0.0784
21749W        W64662  17.214   2.083  10.854 -0.2649  0.1728  0.0928
21750W        W64663  31.233  23.258   5.812 -0.0793  0.2762  0.1579
21751W        W64664   4.673  27.482  27.035 -0.0828  0.0100 -0.1546
21752W        W64665  16.007  16.916   6.947 -0.0264  0.0961  0.0332
21753W        W64666  11.439  34.077   7.585  0.4042 -0.2678  0.3717
21754W        W64667  23.304  10.494   1.976 -0.1103  0.0522 -0.0143
21755W        W64668  13.372   4.438  23.898  0.2054  0.2624  0.0058
21756W        W64669  20.344  12.619   1.950 -0.0657 -0.0876 -0.1532
21757W        W64670  22.772   1.267   4.034 -0.2566  0.1599 -0.3262
21758W        W64671  21.784  10.790   6.189 -0.1963  0.0562  0.1441
21759W        W64672  19.027  12.969  27.623  0.0513 -0.3340 -0.1046
21760W        W64673  22.589   7.503   1.091 -0.1402 -0.0728  0.0126
21761W        W64674  24.814  14.973   7.433  0.3118 -0.1756 -0.1115
21762W        W64675  28.416  10.816  23.905 -0.0526  0.2731  0.1952
21763W        W64676  21.826  15.844   6.714  0.3343  0.0361 -0.1867
21764W        W64677  20.877  10.112   7.405 -0.1790  0.3449 -0.0809
21765W        W64678  24.291  20.777   7.271 -0.0736 -0.1056  0.1814
21766W        W64679  23.519   6.191   6.639 -0.0892  0.1300 -0.0043
21767W        W64680  25.493   8.717   8.216 -0.1427  0.0733 -0.1074
21768W        W64681  28.647  13.621   4.468  0.2473  0.0851  0.1418
21769W        W64682   5.083  14.274   6.476  0.2956 -0.2436 -0.0946
21770W        W64683  17.600   6.903   9.053 -0.0165  0.0971  0.3288
21771W        W64684  20.370  15.671  22.874  0.1731  0.2167  0.1309
21772W        W64685  18.861   8.123  24.202 -0.1263  0.0943 -0.0137
21773W        W64686  18.625   2.639   9.944 -0.1162 -0.0320 -0.1788
21774W        W64687  17.547   7.862  28.271  0.1642  0.1466  0.1762
21775W        W64688  33.032  17.819   1.409  0.0618  0.0581  0.1310
21776W        W64689  20.125  14.151   4.773  0.0075  0.0808 -0.1818
21777W        W64690  27.935   9.495  27.472 -0.0731  0.1615  0.2265
21778W        W64691  24.656  13.957  29.401  0.0379 -0.1716 -0.1161
21779W        W64692  29.043   7.675   5.495  0.2346 -0.0738 -0.1634
21780W        W64693  26.980  12.203  28.313 -0.1745  0.2217  0.0869
21781W        W64694  22.530  13.419   7.303 -0.0183  0.1403  0.1700
21782W        W64695  15.845  17.152   0.923  0.2937 -0.0565  0.0676
21783W        W64696  17.621  14.178   7.836 -0.1170  0.0454  0.1706
21784W        W64697  16.735   9.804   7.265  0.0715  0.0243  0.0752
21785W        W64698  24.546   8.133   7.957 -0.0113 -0.0013 -0.3982
21786W        W64699  20.435   4.001  10.184  0.1102  0.1564 -0.0737
21787W        W64700  32.158  13.977  10.012 -0.1470  0.0967  0.0720
21788W        W64701  25.535  16.491   7.757 -0.1365 -0.1010 -0.3934
21789W        W64702  21.832  29.945  21.128  0.2210 -0.2160 -0.1517
21790W        W64703   0.199   7.517   7.821 -0.1270  0.0518  0.0417
21791W        W64704  20.322  30.002   4.576 -0.3690  0.2301  0.4827
21792W        W64705  33.676   7.445   8.042  0.0908 -0.0193 -0.0768
21793W        W64706  19.956  31.713  26.103 -0.0325 -0.0162 -0.2693
21794W        W64707  24.991  17.971   7.113 -0.1217  0.2443 -0.2235
21795W        W64708  32.483  16.343   7.568 -0.1195 -0.0886 -0.3107
21796W        W64709  30.953   4.709   7.669  0.0649  0.0871 -0.0741
21797W        W64710  26.283   3.001  26.682  0.2100  0.1239 -0.0211
21798W        W64711  20.194  14.023   6.145  0.1615 -0.0719  0.0706
21799W        W64712  18.042  17.440  27.003 -0.1820 -0.2328 -0.2059
21800W        W64713  21.063   4.632   8.296  0.0575 -0.0237  0.0457
21801W        W64714  25.389  21.779  23.463  0.2747  0.0391 -0.0012
21802W        W64715  20.150  10.586  29.418 -0.1528 -0.0746 -0.1203
21803W        W64716  19.426  13.931   8.005 -0.3782 -0.1703  0.1516
21804W        W64717  14.520   9.644   5.216  0.1648 -0.0652  0.0623
21805W        W64718  33.465   5.829   5.204 -0.0380  0.1182  0.2028
21806W        W64719  30.624  10.398   5.191 -0.0509 -0.1965 -0.0029
21807W        W64720  29.498   5.859   8.658  0.3194  0.0598 -0.1583
21808W        W64721  21.104   9.178   4.577  0.0576 -0.3254  0.0257
21809W        W64722  27.096  10.827   5.871 -0.0879 -0.0512  0.4305
21810W        W64723  30.672   8.538   5.081  0.1352 -0.3673 -0.1063
21811W        W64724  12.024  13.814   5.933 -0.3424 -0.1322 -0.2268
21812W        W64725  30.643  12.568   7.740  0.0202  0.0059 -0.0722
21813W        W64726  29.814   9.706   4.644  0.0476 -0.0046 -0.1865
21814W        W64727  17.144  13.585   5.036  0.1160 -0.1157  0.2699
21815W        W64728  23.275   9.478   3.820 -0.1585  0.0802 -0.0201
21816W        W64729  18.715  29.768   2.039  0.0866 -0.2565  0.1162
21817W        W64730  16.960   3.805  27.907 -0.4177  0.1619  0.0621
21818W        W64731  24.450   4.337   8.247 -0.1461 -0.0586  0.1392
21819W        W64732  18.592  19.946   2.780  0.1870  0.2038  0.2903
21820W        W64733  22.176   3.877   6.288 -0.0692 -0.2123  0.1025
21821W        W64734  17.771   6.294   5.305  0.3330  0.0136 -0.1429
21822W        W64735  11.938   2.672   6.118 -0.2559 -0.1602 -0.0769
21823W        W64736  22.822  18.258   5.463 -0.2593  0.0462  0.4006
21824W        W64737  12.103  16.541   7.135  0.0726  0.0172  0.0844
21825W        W64738  18.546  33.749   8.374 -0.3008 -0.2443 -0.0477
21826W        W64739  29.000   6.368   1.083 -0.3603 -0.2944  0.1024
21827W        W64740  25.031   4.326   9.346 -0.3327 -0.1223  0.1006
21828W        W64741  29.524   5.938  28.398 -0.1518  0.0768 -0.0929
21829W        W64742   1.891  20.057   6.029  0.1126 -0.1480 -0.3265
21830W        W64743  25.713  32.713   4.520  0.1286  0.1536 -0.1581
21831W        W64744  17.363   3.368   7.942 -0.2198  0.1888 -0.0681
21832W        W64745  22.274  15.416  28.209  0.2656 -0.0057 -0.2517
21833W        W64746  32.556  17.958   2.539  0.1587 -0.2865  0.1283
21834W        W64747  18.986  11.526   1.288 -0.3521 -0.1264 -0.1709
21835W        W64748  21.591   1.520   5.062  0.0051 -0.1117  0.0168
21836W        W64749  23.942  10.611  29.519 -0.0809  0.0244  0.1685
21837W        W64750  29.500   7.228   4.548 -0.2832 -0.0913 -0.0744
21838W        W64751  24.816  10.834   8.374  0.0585  0.0172 -0.2351
21839W        W64752   3.401   5.788   9.390 -0.1163 -0.2206 -0.0317
21840W        W64753  29.075   7.825   3.572 -0.0847 -0.0809 -0.3188
21841W        W64754  33.883  11.768   3.163 -0.0517 -0.0857 -0.3163
21842W        W64755  11.465   2.762  27.879  0.2440 -0.3547  0.0818
21843W        W64756  21.212  16.983   4.527  0.0124  0.1196 -0.2309
21844W        W64757  12.169  11.811  25.930 -0.2584 -0.1600  0.2302
21845W        W64758  12.593   9.124   0.976  0.0504 -0.0621  0.3844
21846W        W64759  31.089  20.867   9.778 -0.3505  0.0088 -0.2211
21847W        W64760  21.746  14.426   7.654  0.1471 -0.0930 -0.0504
21848W        W64761  19.987  11.845  27.772 -0.0374 -0.1564  0.0660
21849W        W64762  33.395   3.552   0.850  0.1591 -0.0654  0.0058
21850W        W64763  20.632   9.128   5.490  0.1889 -0.1295 -0.2692
21851W        W64764  22.934   7.757   5.674  0.0208  0.1046 -0.1143
21852W        W64765  29.685  16.283  10.068 -0.0918  0.0369  0.0690
21853W        W64766  17.532  11.586   3.944 -0.0244 -0.0061  0.1271
21854W        W64767  20.240  12.059   3.272 -0.1978 -0.0855 -0.1750
21855W        W64768  24.352   4.405   5.687 -0.3874  0.1472  0.1340
21856W        W64769  23.879  12.553   6.709  0.1656  0.0365  0.0767
21857W        W64770  13.781   5.990  10.285  0.3522 -0.2393  0.1113
21858W        W64771  16.179   6.917   0.796 -0.2708 -0.1191 -0.2367
21859W        W64772  19.713   4.381  27.041 -0.1470 -0.2012  0.3902
21860W        W64773  21.133   9.024   7.298 -0.1019  0.1167 -0.2739
21861W        W64774  20.301  33.051   1.309  0.0631  0.0883 -0.0990
21862W        W64775  18.926   1.050   4.771  0.4174  0.2284  0.1200
21863W        W64776  31.854  15.631   7.031 -0.1860  0.1278  0.2808
21864W        W64777  22.842  34.166   1.222 -0.1711  0.1240  0.1474
21865W        W64778  15.551   7.496  24.195 -0.0073 -0.1971  0.2110
21866W        W64779  34.072   5.321  10.225 -0.1565 -0.2478 -0.2644
21867W        W64780  25.247  11.512   1.185 -0.2228  0.0665 -0.2698
21868W        W64781  15.699   8.797   8.808  0.0826  0.2035  0.0668
21869W        W64782  22.175   4.880   8.845  0.0160 -0.1339  0.1481
21870W        W64783   6.168   3.198   4.442  0.1296  0.0820 -0.1178
21871W        W64784  15.442  12.920   1.246  0.0323 -0.5222 -0.0430
21872W        W64785  23.188   7.751   5.253 -0.1161  0.0361 -0.4822
21873W        W64786  32.770   9.367  10.565  0.0020 -0.0491  0.0389
21874W        W64787   5.066   8.632   5.092 -0.1029 -0.0380  0.1309
21875W        W64788  31.023  18.251   2.688  0.1911 -0.2182 -0.1962
21876W        W64789  33.078   6.757  24.167  0.0095 -0.3669  0.0475
21877W        W64790  20.878  19.700   7.201  0.0986 -0.2231 -0.2306
21878W        W64791  18.549   7.612   7.612  0.1420  0.0525 -0.0256
21879W        W64792   5.831   7.034   7.120 -0.3237 -0.0967  0.2492
21880W        W64793  11.197  18.304   7.161 -0.0862 -0.1389  0.2729
21881W        W64794  31.063   6.177   9.719  0.1304 -0.2802  0.1298
21882W        W64795  17.680  11.179   1.392 -0.1268  0.2163  0.3503
21883W        W64796  11.252   5.686  28.802  0.3436 -0.1047 -0.3971
21884W        W64797  31.531  19.279  25.476  0.1163  0.2146  0.1821
21885W        W64798  26.614   6.114   7.090 -0.0356  0.1177  0.4259
21886W        W64799  17.337  13.916   4.327  0.1818  0.1343 -0.0877
21887W        W64800  24.413  11.947   8.442  0.0465 -0.2141  0.2439
21888W        W64801  26.298   9.235   4.266 -0.2179 -0.0695  0.0137
21889W        W64802  18.469  10.430   4.700  0.0590  0.0394  0.0851
21890W        W64803  17.948  16.573  29.705  0.1699 -0.1571 -0.2278
21891W        W64804  26.759   5.560   4.595  0.2220 -0.3578 -0.1642
21892W        W64805  20.861  14.106  26.582  0.1371  0.1669  0.0191
21893W        W64806  23.467   7.426   9.772 -0.0131  0.1912  0.0673
21894W        W64807  21.439   8.887   8.745 -0.1656 -0.0522 -0.0073
21895W        W64808  20.630  18.941   7.416  0.0455 -0.1334  0.0544
21896W        W64809  20.436   1.914  27.448  0.1208 -0.1705  0.0185
21897W        W64810  20.954   9.801  29.183  0.1476 -0.0080 -0.2020
21898W        W64811   0.763  14.670   3.848  0.1645  0.1038  0.1950
21899W        W64812  14.006   8.301   2.152 -0.0222 -0.0466 -0.0614
21900W        W64813  34.165   8.156   2.682  0.1026  0.2633  0.0969
21901W        W64814  10.924   9.517   7.849 -0.1117 -0.0871 -0.2482
21902W        W64815  16.620  13.697  23.784  0.0777  0.1469 -0.0291
21903W        W64816  18.145   8.000   3.360  0.3262 -0.2405 -0.0155
21904W        W64817  19.936  16.412   5.486 -0.0726  0.3967  0.1705
21905W        W64818  17.153  10.654   2.759  0.1711  0.2255  0.0895
21906W        W64819  26.950  17.230   8.852  0.2407 -0.1371  0.2315
21907W        W64820  19.457  22.194   3.355 -0.0144  0.0582 -0.5572
21908W        W64821  30.821  13.539   3.632  0.4342  0.0350  0.1115
21909W        W64822  23.188  19.039   5.388  0.0434  0.0532  0.0745
21910W        W64823  26.287   3.390   0.983 -0.0122 -0.0815 -0.1603
21911W        W64824  26.445   9.143  20.842  0.0521  0.0208  0.1991
21912W        W64825  22.359   6.776  25.631  0.2182  0.1142 -0.0131
21913W        W64826  20.755   9.581  27.922  0.0146 -0.1133 -0.3346
21914W        W64827  27.080  12.960   5.455 -0.1079 -0.0684 -0.0126
21915W        W64828  22.362   9.210   6.960  0.2205 -0.0026  0.0583
21916W        W64829  33.694   8.444   9.825 -0.2646  0.2038 -0.0438
21917W        W64830  26.867  20.304   4.689  0.0073  0.0379  0.3358
21918W        W64831   6.357   8.120   6.696  0.0752 -0.1251 -0.0836
21919W        W64832  14.912  31.846   6.276 -0.1936 -0.1712  0.0320
21920W        W64833  15.500   5.169   4.198  0.2030  0.0314 -0.3914
21921W        W64834  34.437  34.292   5.771 -0.0854 -0.0286 -0.1955
21922W        W64835  28.325   4.722   0.142 -0.1599  0.2679 -0.2413
21923W        W64836  13.022  15.092   0.048 -0.1125  0.0663 -0.0310
21924W        W64837  18.979  31.296  26.993 -0.0207 -0.6658 -0.3267
21925W        W64838  21.534  25.597  27.951  0.1517 -0.2097 -0.0962
21926W        W64839  21.531   9.770  27.422  0.0214  0.2416 -0.1359
21927W        W64840  21.077   6.500  27.857 -0.2206  0.0682 -0.2893
21928W        W64841  24.072  17.147  29.712  0.2192 -0.0231  0.0151
21929W        W64842  24.559   1.231   9.891  0.3237 -0.1229  0.0860
21930W        W64843  26.156  16.055   7.431  0.2547  0.0083  0.2996
21931W        W64844  23.402   3.502   4.447  0.2776 -0.1766 -0.2868
21932W        W64845  22.844   7.664   7.062  0.0298  0.3725  0.0991
21933W        W64846  12.972  23.496   1.213 -0.0818  0.2892 -0.3279
21934W        W64847  25.278  12.304   6.962 -0.0974  0.2728  0.1389
21935W        W64848  28.486   8.217   0.413 -0.0224 -0.0031 -0.0791
21936W        W64849  21.561   4.723   3.558 -0.1478  0.2264  0.0484
21937W        W64850  23.177  12.044   8.169  0.2632  0.1175 -0.1284
21938W        W64851  22.745  10.133   4.420 -0.0452  0.1415  0.0678
21939W        W64852  22.562  16.221  25.365 -0.0092  0.1512  0.1713
21940W        W64853  23.928  34.175   0.996 -0.2508  0.2865  0.0987
21941W        W64854  29.734   1.833   4.280 -0.0447  0.0683 -0.2753
21942W        W64855  15.503   6.631   7.185  0.0772 -0.3088  0.2720
21943W        W64856  14.885  13.496   8.649 -0.0663 -0.0745 -0.0410
21944W        W64857  14.787  10.781   6.661  0.0273  0.0849  0.1047
21945W        W64858  21.025  12.002   3.503  0.0471  0.2220  0.2732
21946W        W64859  22.759   3.172   6.881  0.2616  0.0249 -0.0373
21947W        W64860  10.937  12.597  28.680  0.0297 -0.1123  0.0711
21948W        W64861  31.453   1.762   6.151 -0.0026  0.0584  0.1490
21949W        W64862  18.302  10.706   1.079 -0.1989 -0.0194  0.4299
21950W        W64863  32.150   5.406   7.581 -0.1924 -0.0936  0.0532
21951W        W64864  13.171  32.564  23.785  0.5188 -0.4088  0.0130
21952W        W64865  30.140   5.416  10.746  0.0395 -0.0460  0.0860
21953W        W64866  24.776   1.808   7.800  0.0510  0.0347 -0.0698
21954W        W64867  20.185  12.558   3.336  0.0915  0.0538 -0.1381
21955W        W64868  27.621  10.832   7.005 -0.0627 -0.1656  0.0348
21956W        W64869  28.050   4.090   8.949 -0.0172  0.0756 -0.1081
21957W        W64870  22.771  14.842  23.362 -0.1131  0.0095  0.2056
21958W        W64871  12.124   0.433   0.412  0.0597  0.3122  0.2555
21959W        W64872  23.076  20.103   3.040  0.0458  0.0673  0.2027
21960W        W64873  15.273  18.451  29.634  0.2448 -0.1639  0.1655
21961W        W64874  14.604  10.764   3.508 -0.1361  0.2358  0.3394
21962W        W64875  26.708  17.388   9.291 -0.2283 -0.3932 -0.1050
21963W        W64876  26.013  17.460   3.211  0.0331 -0.0331 -0.0486
21964W        W64877  18.294  21.728   3.486  0.3425 -0.0459  0.0446
21965W        W64878  28.548  10.822  10.047 -0.2359 -0.0675  0.2939
21966W        W64879  29.890   5.336   6.287  0.0049 -0.4797  0.1458
21967W        W64880  14.000  10.725   7.168 -0.1058 -0.1152  0.0453
21968W        W64881  27.700  11.055   7.873  0.0530 -0.2286 -0.0137
21969W        W64882  32.120   7.766   0.141 -0.1402 -0.1359  0.0113
21970W        W64883  24.433  31.639   9.197 -0.3813 -0.2945 -0.1887
21971W        W64884   5.197   9.851   7.594  0.0006 -0.0397  0.1230
21972W        W64885  22.843  25.153  28.390 -0.0580 -0.2432 -0.0473
21973W        W64886  20.322  12.973   3.121 -0.3193 -0.1526 -0.0506
21974W        W64887  33.705   5.403  10.513  0.2081 -0.2436 -0.1225
21975W        W64888   1.904  12.374   2.521  0.0031 -0.1058 -0.1884
21976W        W64889  20.658  10.770   6.609 -0.0287 -0.0430 -0.0670
21977W        W64890  26.560   6.010   8.972  0.4686 -0.2657 -0.0606
21978W        W64891  31.758   5.691  28.116  0.2564  0.1210  0.1363
21979W        W64892  11.539  10.519   0.557  0.0706  0.0956  0.1232
21980W        W64893  25.363  11.681   3.085  0.1128 -0.0254  0.3209
21981W        W64894  30.363   5.277   8.507  0.1464 -0.2403  0.2459
21982W        W64895   1.629  20.798   6.573  0.2308  0.1907  0.3279
21983W        W64896  12.123  10.320   4.830  0.1643 -0.1067  0.2681
21984W        W64897  19.714   3.707   1.554 -0.2755 -0.0654  0.2255
21985W        W64898  21.229  11.416  29.129 -0.2554 -0.3256  0.3757
21986W        W64899   9.620   5.309  10.600 -0.1122  0.1178  0.0533
21987W        W64900  21.529   4.230   7.387 -0.0717 -0.0458  0.1918
21988W        W64901  28.862   6.094  10.924 -0.3262  0.1695 -0.0220
21989W        W64902  19.705   8.031   2.517 -0.0401  0.2926  0.0945
21990W        W64903  22.119  13.758  24.671  0.1551  0.0329  0.1361
21991W        W64904  30.924  11.205   7.280 -0.0287  0.2233  0.0408
21992W        W64905  30.861   7.197  27.659  0.5015 -0.0480  0.4659
21993W        W64906  34.204   7.731   6.168 -0.1372  0.1471  0.2605
21994W        W64907  26.844  15.207  26.743 -0.0193  0.0423 -0.0369
21995W        W64908   0.606   1.819   4.058  0.1940  0.0618  0.1995
21996W        W64909  11.538  14.027   4.684  0.0498  0.0507  0.1315
21997W        W64910  14.546  16.897   5.542 -0.0927 -0.1060  0.2766
21998W        W64911  22.992  18.381   4.941 -0.1522 -0.1885 -0.0569
21999W        W64912   1.392   6.599   8.647 -0.2640  0.0785 -0.1108
22000W        W64913  30.073  32.865   9.947  0.3617 -0.0398  0.1246
22001W        W64914  18.214  10.662  27.556  0.1683  0.4284 -0.0076
22002W        W64915  27.970  18.327   1.898  0.3456 -0.2609  0.0073
22003W        W64916  21.893  20.690   7.799 -0.0364 -0.0827  0.1990
22004W        W64917  30.025   6.047   0.801  0.0723  0.1954  0.1325
22005W        W64918  20.138   9.752   7.175  0.0243  0.0271 -0.5120
22006W        W64919  33.239  15.048  25.641  0.1092  0.0153  0.0860
22007W        W64920  14.466   2.773   6.677 -0.0328  0.2478 -0.0222
22008W        W64921  29.207  12.481   9.653 -0.0031 -0.1057  0.2131
22009W        W64922   1.052   9.243  11.090 -0.3325 -0.2169 -0.1724
22010W        W64923  26.130  11.725   8.657 -0.1464 -0.0102 -0.3667
22011W        W64924  15.294  32.271   0.720  0.2621 -0.0053 -0.1889
22012W        W64925  22.447  18.904  21.717 -0.1884 -0.1398 -0.2341
22013W        W64926  11.410  17.033   9.235 -0.0806 -0.3476 -0.1813
22014W        W64927   1.331  14.188  27.527 -0.0024 -0.1317 -0.0466
22015W        W64928  24.372  13.097  26.677 -0.2806 -0.2917  0.0348
22016W        W64929  29.737  10.663   6.930  0.0581  0.0181  0.0152
22017W        W64930  24.325  12.387   4.313  0.1357 -0.1556  0.0909
22018W        W64931  28.715   8.005   3.160  0.3300 -0.1614 -0.2492
22019W        W64932  33.186  18.321   9.609 -0.3412 -0.0643  0.1670
22020W        W64933  19.351   3.676  29.653 -0.3027 -0.0868 -0.1054
22021W        W64934  18.562   9.499   8.952 -0.5235 -0.0869 -0.0284
22022W        W64935  25.303  15.741  28.888  0.1607 -0.0558 -0.0787
22023W        W64936  28.670   5.695   4.197  0.1656 -0.1853  0.1430
22024W        W64937  33.193  16.750   7.921 -0.2610 -0.0664 -0.0411
22025W        W64938  25.549  13.246   8.275  0.0610 -0.0015 -0.1628
22026W        W64939  30.349  11.640   6.355 -0.0900 -0.1215  0.0443
22027W        W64940  20.970  13.968   5.054  0.1379 -0.1293 -0.0752
22028W        W64941  23.256  16.365   1.962 -0.0495  0.0654  0.3851
22029W        W64942  21.337  10.113   8.008  0.1057  0.0881  0.0354
22030W        W64943  30.257  11.645  29.738  0.0923  0.0713 -0.0305
22031W        W64944  26.949  12.115   8.266  0.2720  0.1445 -0.2324
22032W        W64945  28.630  13.737   1.333  0.0301  0.0747  0.0702
22033W        W64946  14.426   4.546   4.754  0.1262 -0.2183  0.0520
22034W        W64947  30.434   0.489   2.837 -0.2772  0.0575  0.1058
22035W        W64948  23.555   8.626  29.309  0.0023  0.1599 -0.1273
22036W        W64949  20.420  15.027   2.076  0.0158 -0.1601 -0.1101
22037W        W64950   4.349   3.222   3.120  0.1085 -0.1435 -0.3400
22038W        W64951  30.283   9.825   7.264 -0.0826 -0.0009 -0.0225
22039W        W64952  28.708   3.871   7.996  0.0258 -0.1621 -0.1041
22040W        W64953   1.302  13.218   4.029  0.1278  0.0578  0.0055
22041W        W64954  27.295   6.541   9.877 -0.0555 -0.0274  0.0241
22042W        W64955  23.906  14.821  28.481  0.1182 -0.0396  0.2376
22043W        W64956  25.411  19.341   4.436 -0.0564 -0.2155  0.0406
22044W        W64957  20.548   7.771   9.758 -0.2417  0.0633 -0.0359
22045W        W64958  28.598  24.837   6.971  0.2225  0.3298 -0.0084
22046W        W64959   0.115   2.208   8.134  0.0663  0.0444  0.2750
22047W        W64960  30.936   2.192  26.342 -0.0755 -0.0279 -0.2687
22048W        W64961  25.250   7.139   7.368  0.0651 -0.1383  0.2673
22049W        W64962  22.157  20.859  24.815  0.0610  0.1691  0.0025
22050W        W64963  20.399   2.631   6.848  0.0161  0.2341 -0.1046
22051W        W64964  12.780   8.792  28.999  0.3426 -0.1477  0.0911
22052W        W64965  28.461   8.151   2.688 -0.2290 -0.1704 -0.1069
22053W        W64966  30.831   7.038   7.978  0.0230 -0.0013 -0.2492
22054W        W64967  21.053   5.819  10.032  0.2403  0.1467  0.0552
22055W        W64968  18.788   9.925   2.032 -0.1707  0.1690 -0.1525
22056W        W64969  20.377   9.746   8.898 -0.1224  0.2572  0.0662
22057W        W64970  18.133  11.263  20.908 -0.3256  0.0981  0.2551
22058W        W64971   0.163  13.127   6.242  0.3898  0.1665 -0.1576
22059W        W64972  30.785   5.493   5.906 -0.6662  0.1007 -0.2583
22060W        W64973  26.475  11.245  29.460 -0.2027  0.3398 -0.1479
22061W        W64974  16.787  17.952  28.349 -0.0840 -0.1369 -0.2801
22062W        W64975  19.018  14.179  29.588  0.2324 -0.2241  0.0122
22063W        W64976  17.721  14.503   3.458 -0.1994  0.0565  0.1381
22064W        W64977  22.815  15.501  28.099 -0.1784  0.1338  0.3460
22065W        W64978  26.468   7.206   5.321 -0.0675  0.1275  0.0531
22066W        W64979  19.534   8.866  28.389  0.5467  0.4156 -0.3480
22067W        W64980   8.205   7.732   6.451 -0.5019  0.1635  0.0156
22068W        W64981  16.519  10.296  25.195 -0.3800 -0.2066  0.0168
22069W        W64982  19.995  13.434   7.346 -0.4064  0.2671 -0.5055
22070W        W64983   8.371  17.243  27.264 -0.2212 -0.1132 -0.0183
22071W        W64984   3.045   6.088   2.481  0.0483  0.5408 -0.4175
22072W        W64985  28.331   5.491   1.687  0.0038  0.1687 -0.0766
22073W        W64986  25.604   2.682   7.610 -0.3955 -0.0801  0.0959
22074W        W64987  26.505  24.716  18.750 -0.1376 -0.4510 -0.1049
22075W        W64988  28.292   9.862  29.115  0.0561  0.1677  0.0769
22076W        W64989  16.853   6.619   3.218  0.1015  0.1496 -0.0085
22077W        W64990  30.895   2.080   7.870 -0.2750  0.0544 -0.0093
22078W        W64991  16.022   4.899   1.613 -0.1307  0.3137 -0.0103
22079W        W64992  28.155  15.334   1.313 -0.2269  0.0520 -0.0017
22080W        W64993  27.446  10.364   6.586 -0.1048 -0.0763 -0.0950
22081W        W64994   5.642   8.266  12.885  0.1271 -0.1093  0.1112
22082W        W64995  23.216  17.682   7.680  0.0689  0.1209  0.3963
22083W        W64996  21.475  15.755   9.370  0.0228  0.0842 -0.0093
22084W        W64997  28.229  10.393   8.005  0.1205 -0.4047 -0.3097
22085W        W64998  26.686  17.770   7.939  0.1311  0.1367 -0.1797
22086W        W64999  30.774  15.204   2.939  0.1397 -0.1081 -0.0806
22087W        W65000  12.711   7.776   9.821 -0.1481  0.2556  0.0217
22088W        W65001  28.357  16.093   0.173  0.1320 -0.3312 -0.1062
22089W        W65002  32.559  33.443   7.118 -0.0542 -0.0536 -0.6620
22090W        W65003  21.430  10.168   0.833 -0.0805 -0.0643  0.2017
22091W        W65004   9.224  17.951   7.888  0.0665  0.2540 -0.1737
22092W        W65005  21.987   8.223   8.140  0.1312 -0.0319 -0.0826
22093W        W65006  20.953  10.476   4.375  0.0153  0.1885  0.0067
22094W        W65007  10.259  17.314  25.720  0.3418  0.3145 -0.1003
22095W        W65008  15.304   1.830   3.628 -0.0108  0.0937  0.0338
22096W        W65009  30.172  21.106   4.567 -0.3204 -0.1045 -0.1680
22097W        W65010  21.115  13.660  24.151  0.4693 -0.1286 -0.0092
22098W        W65011  20.272  13.141   6.454 -0.2420 -0.1048 -0.2389
22099W        W65012  27.433  17.563  23.303  0.2180  0.0250 -0.0467
22100W        W65013  20.234   9.835  27.034 -0.3369 -0.0012  0.3042
22101W        W65014  24.333   1.586   8.893 -0.0957  0.1274 -0.0512
22102W        W65015  32.545   5.876   6.975 -0.2637  0.1062 -0.2050
22103W        W65016  30.717  14.122  27.357 -0.1830 -0.1849  0.5549
22104W        W65017  22.522  12.853   7.398  0.4623  0.2740  0.1381
22105W        W65018  16.518  28.396   8.218 -0.1716 -0.2132 -0.1271
22106W        W65019  23.097  15.117   3.476 -0.0201 -0.0956 -0.0257
22107W        W65020  14.138   5.957  23.633 -0.1770  0.0187 -0.1939
22108W        W65021  15.558   5.869   2.864  0.1687  0.0488  0.2393
22109W        W65022  19.845  13.554   0.101 -0.2980  0.1485 -0.2889
22110W        W65023  23.895   5.650  29.284  0.0156  0.1498 -0.0185
22111W        W65024  18.767   3.580   7.239  0.1091  0.2719  0.0653
22112W        W65025  28.223  20.794   8.064  0.0816 -0.1015  0.0810
22113W        W65026  21.496  14.869   3.227 -0.2778 -0.0389  0.3098
22114W        W65027  25.378   5.374   5.507  0.0820  0.0917  0.0166
22115W        W65028   3.657  10.255   6.426  0.2906  0.1901  0.0921
22116W        W65029  12.960   0.942   6.989  0.2084 -0.2638 -0.1247
22117W        W65030  14.449  17.465   3.584  0.0102  0.1133  0.1420
22118W        W65031  24.529   4.474   5.162 -0.1931  0.0027  0.2850
22119W        W65032  31.022   6.794   7.419  0.3011 -0.1275  0.2291
22120W        W65033  18.775   0.306   7.121 -0.1142  0.2828 -0.1868
22121W        W65034  32.525   1.457  28.107  0.2134 -0.0284  0.0821
22122W        W65035  25.351  16.673  28.607 -0.2569  0.0009 -0.1131
22123W        W65036  24.044  34.489  28.391  0.1087 -0.1341  0.0904
22124W        W65037  27.477  13.371   5.285 -0.1358  0.0690 -0.0736
22125W        W65038  31.767  15.072   7.789  0.0487 -0.1787  0.2516
22126W        W65039  25.353   3.125   8.110  0.0742  0.1547  0.2089
22127W        W65040  26.451  13.876   2.410  0.0476  0.1314  0.2788
22128W        W65041  20.757  32.899  29.037 -0.3114  0.0098  0.0480
22129W        W65042  27.662  13.157   9.016 -0.0561 -0.3038 -0.2155
22130W        W65043  21.147  16.715  26.074 -0.0067  0.3697  0.1784
22131W        W65044  26.724   8.340   0.553 -0.3411  0.0767 -0.1007
22132W        W65045  31.039  12.217  27.434 -0.3070 -0.0763  0.0661
22133W        W65046  27.556  10.000   7.997  0.0776  0.1170 -0.1881
22134W        W65047  26.309   4.067   7.278  0.0173 -0.0639  0.0809
22135W        W65048   1.715   6.310  11.877  0.1812  0.1496 -0.1199
22136W        W65049  34.246  13.408   6.527 -0.0800  0.4556 -0.2276
22137W        W65050  32.231   5.651  22.213 -0.3699  0.0067  0.1990
22138W        W65051  22.738   6.941   8.398  0.1402 -0.0071 -0.0903
22139W        W65052  24.261   2.531   7.546 -0.2029  0.0063 -0.2502
22140W        W65053  22.405   7.176   2.707 -0.3192  0.1371  0.0374
22141W        W65054  24.694  12.859   0.204 -0.2402 -0.2869  0.1597
22142W        W65055   3.634  15.594  29.581  0.1131 -0.0163 -0.3666
22143W        W65056  23.843   3.751  10.507 -0.0189 -0.0593 -0.5251
22144W        W65057  24.190   6.444   2.432  0.1970 -0.0594  0.0144
22145W        W65058  20.871   8.744   0.895  0.1846 -0.1998 -0.1652
22146W        W65059  27.780   8.572   1.922  0.0558  0.0761 -0.2331
22147W        W65060  23.708   3.420   3.732  0.3026  0.1031 -0.3031
22148W        W65061  30.950  14.744  28.592  0.1927 -0.2783  0.1357
22149W        W65062   2.937  20.860   2.591  0.0423  0.0103  0.0907
22150W        W65063  23.434  13.639   6.943  0.3479 -0.4441  0.2559
22151W        W65064  23.120   5.239  29.552 -0.0080  0.1459  0.2653
22152W        W65065  16.930   3.993   9.672 -0.1666  0.0114 -0.0964
22153W        W65066  20.352  12.522   4.785 -0.0043  0.0177 -0.2604
22154W        W65067  34.373  11.486   2.460  0.3091 -0.0457 -0.0327
22155W        W65068   2.855  11.369   6.094  0.2699 -0.0803  0.0294
22156W        W65069  19.126  14.312   0.961 -0.1107  0.0993  0.2437
22157W        W65070  29.958   8.485   9.750  0.1800  0.1986  0.1572
22158W        W65071  32.361   6.222   8.688 -0.2963 -0.0922  0.2502
22159W        W65072   2.236  10.121  10.120 -0.2956  0.0084 -0.0485
22160W        W65073  11.671  21.367  24.666 -0.2994  0.1368  0.1846
22161W        W65074  14.166   8.498   9.532  0.1637  0.3469  0.3700
22162W        W65075  18.815  11.844   3.641  0.0275 -0.1152  0.1696
22163W        W65076  27.530   2.429   9.129  0.0576 -0.2794  0.0781
22164W        W65077  24.204   8.663   6.412  0.0490  0.2264 -0.1651
22165W        W65078  28.265   0.874   9.765 -0.1305 -0.2662 -0.0480
22166W        W65079  18.874  11.574   4.216 -0.0892 -0.3046  0.4367
22167W        W65080  21.191  21.868   5.137 -0.2193  0.1215 -0.2579
22168W        W65081  27.364  33.572   9.537  0.0880  0.1706  0.1841
22169W        W65082  29.507   6.311   7.973 -0.0253 -0.0885 -0.0581
22170W        W65083  22.846  11.053   4.646 -0.0685 -0.2224  0.2119
22171W        W65084  17.670   8.741   4.421 -0.1615  0.2435 -0.0123
22172W        W65085  29.109  14.909   1.592  0.1272 -0.2430 -0.1932
22173W        W65086   0.557   1.972   7.131  0.3191 -0.4546 -0.2463
22174W        W65087  13.430   9.398   8.291 -0.2366  0.0644 -0.0843
22175W        W65088  29.993  13.040   9.533  0.1933  0.0262  0.1175
22176W        W65089  31.578   7.178   3.672 -0.2389 -0.2227 -0.1528
22177W        W65090  19.164   9.170   4.641 -0.1936  0.2410  0.2637
22178W        W65091  14.109   8.005   9.331 -0.3209  0.2222 -0.0541
22179W        W65092  14.911   7.719   6.520  0.0356  0.1123  0.1056
22180W        W65093  27.004   8.432   6.291  0.0622 -0.1864 -0.0436
22181W        W65094   8.642   2.659  10.048 -0.1318  0.1310 -0.1193
22182W        W65095   4.392  33.489   9.068 -0.1550  0.1610  0.2473
22183W        W65096  28.901   7.520   3.194 -0.0342  0.1487 -0.2400
22184W        W65097   1.117  12.480   2.380  0.2126 -0.0309 -0.1334
22185W        W65098  29.640  10.812   9.204 -0.0905 -0.3142  0.0290
22186W        W65099  10.957   6.461   7.053 -0.0393 -0.0654  0.0689
22187W        W65100  33.072  10.183   9.798  0.1100 -0.0816 -0.1367
22188W        W65101  17.232  14.467  28.710 -0.2815 -0.1832  0.1188
22189W        W65102  17.672  17.712   0.721  0.1334 -0.0924  0.0444
22190W        W65103  30.530  15.077   8.792 -0.1783  0.3244  0.2303
22191W        W65104  21.896  14.607   6.128  0.1192 -0.0336  0.0490
22192W        W65105  21.178   1.220   4.950 -0.2497 -0.0638 -0.2640
22193W        W65106  20.520  12.204   5.198  0.2249 -0.0837 -0.6320
22194W        W65107  24.396   5.626   4.202 -0.1919  0.0624  0.0083
22195W        W65108  18.209   5.485   3.315  0.0763 -0.0890  0.0199
22196W        W65109  32.298  14.143   2.388  0.0596 -0.1543  0.1714
22197W        W65110  20.369  20.697   7.253 -0.0441 -0.0341 -0.1422
22198W        W65111   4.682  14.598   4.113 -0.0436  0.0966 -0.0078
22199W        W65112  32.219   9.273   5.897  0.2619  0.1513  0.1897
22200W        W65113  20.313  13.947  28.191  0.2407  0.1276 -0.0054
22201W        W65114  18.099  15.345  24.582 -0.2317 -0.1558 -0.2964
22202W        W65115  25.112   5.678   6.090 -0.1656  0.3154 -0.0462
22203W        W65116  21.724   5.618   8.898 -0.1820  0.2237 -0.1276
22204W        W65117  22.373   2.310  10.322 -0.0907  0.0275  0.1744
22205W        W65118  31.462  11.337   4.211 -0.4456 -0.2727  0.0156
22206W        W65119  19.350  15.537   2.085 -0.1934  0.2961 -0.3144
22207W        W65120  25.751  14.123   4.538  0.1202 -0.4105  0.0819
22208W        W65121  24.931   6.079   6.332  0.2418  0.0169  0.2678
22209W        W65122  23.390   2.654   7.038  0.0471 -0.3191  0.1404
22210W        W65123  27.062  10.229  29.736 -0.0456 -0.2984 -0.0701
22211W        W65124  11.425  27.810  12.217  0.2406  0.1104 -0.0752
22212W        W65125  13.870  33.512  10.666  0.0241 -0.1719 -0.1230
22213W        W65126  21.235   3.754  23.518 -0.0396 -0.2386 -0.0483
22214W        W65127  32.892   9.886   4.945  0.0492 -0.3690 -0.0463
22215W        W65128  29.314  17.500  25.393  0.0341 -0.3121 -0.2764
22216W        W65129  15.877  11.046   5.530  0.1229 -0.0217  0.3541
22217W        W65130  25.546   1.072   5.681  0.0088  0.1237  0.2727
22218W        W65131  22.136   7.780   5.591 -0.1180 -0.0482  0.1910
22219W        W65132  18.133   9.404   4.700  0.0926  0.1528 -0.0920
22220W        W65133  18.491   9.486   2.624  0.2166 -0.2370  0.2976
22221W        W65134  34.378   3.466   6.017  0.0237  0.1115 -0.0724
22222W        W65135  25.106   8.479   5.209  0.3952 -0.0555 -0.1127
22223W        W65136  30.427  13.015   4.086 -0.1591  0.0008 -0.1071
22224W        W65137  32.455  12.804   6.397  0.0306  0.2055 -0.4965
22225W        W65138   5.302  17.718   5.021 -0.1937 -0.0083  0.3763
22226W        W65139  34.351  11.431  10.318  0.1744  0.0322 -0.2409
22227W        W65140  29.416   9.831   7.988 -0.0533 -0.0792  0.0309
22228W        W65141  28.512   0.238   2.530 -0.1168 -0.0884 -0.0070
22229W        W65142  21.531   8.695   7.332 -0.2094 -0.1425  0.0981
22230W        W65143  23.434  29.895   6.716  0.1221  0.3336 -0.2246
22231W        W65144  15.050  19.680   5.358  0.1695  0.2895  0.3398
22232W        W65145  21.274  13.032   9.014 -0.1870 -0.0236 -0.3146
22233W        W65146  30.486  30.563   6.866 -0.1537 -0.0271  0.0196
22234W        W65147  16.051   1.175   8.294  0.0222  0.0203  0.1999
22235W        W65148  31.104  11.906  29.340 -0.0777  0.1243 -0.0331
22236W        W65149  27.464  12.903   7.833  0.0333  0.0339 -0.0593
22237W        W65150  16.004  32.614   5.904 -0.2883 -0.0699  0.3779
22238W        W65151  23.320  11.290   9.011 -0.0428  0.1624 -0.2467
22239W        W65152  13.055  26.518   7.084  0.2014  0.0280 -0.2126
22240W        W65153  20.680  29.837   7.297 -0.0001  0.1045  0.0308
22241W        W65154  22.731  17.026   6.081 -0.1813  0.0271 -0.1088
22242W        W65155  28.813   5.280   4.693  0.1656  0.1065 -0.0843
22243W        W65156  31.249   3.855   9.741 -0.0329 -0.1822 -0.3302
22244W        W65157  24.701  14.681   0.360 -0.0393  0.0187  0.1792
22245W        W65158  25.209  33.356   0.189 -0.2134  0.0426 -0.2824
22246W        W65159  17.932  10.472   0.688 -0.0830  0.3892  0.1186
22247W        W65160  33.316   9.065   6.671  0.1942  0.2429  0.0943
22248W        W65161  28.700  15.058  10.450  0.0182  0.0870 -0.0431
22249W        W65162  22.029  34.484   5.262  0.1021 -0.2211  0.1276
22250W        W65163  20.462  31.178   0.917 -0.1128 -0.1151 -0.4033
22251W        W65164  21.967  10.439   8.959 -0.0042  0.3863 -0.1569
22252W        W65165  27.920   5.689   8.944  0.2469  0.0927  0.0629
22253W        W65166  25.420   6.478   9.527 -0.2776 -0.0333  0.1994
22254W        W65167  31.389  12.334   4.665 -0.3190  0.2073  0.2313
22255W        W65168  34.117   8.973  10.803 -0.0182  0.0563  0.3038
22256W        W65169  20.320  31.973   1.724 -0.2808 -0.1372 -0.1119
22257W        W65170  20.498  11.022   3.506 -0.0714 -0.2615  0.1144
22258W        W65171   0.739   5.761  11.042 -0.1650  0.0469  0.1758
22259W        W65172  31.255  11.475   4.734  0.1846  0.0738  0.4182
22260W        W65173  26.813  10.408  10.254  0.0432  0.0318  0.1155
22261W        W65174  26.332   6.789   4.383  0.2308 -0.1017  0.3381
22262W        W65175  28.480   2.884   9.482  0.1070 -0.2606  0.0304
22263W        W65176  20.960  10.973   5.250 -0.1055 -0.1255 -0.2052
22264W        W65177  23.287   2.711   8.764  0.0602  0.0995 -0.2652
22265W        W65178  25.645  18.646  29.624 -0.1843  0.1985 -0.3421
22266W        W65179  20.758  15.866  24.739  0.0357  0.0933 -0.2273
22267W        W65180  30.134   5.060   9.666  0.0592 -0.2420  0.3409
22268W        W65181  31.557  29.728   6.645 -0.1637 -0.1372  0.3020
22269W        W65182  14.396  18.883   5.379  0.2643 -0.1110  0.1657
22270W        W65183  16.939   9.479   9.389  0.1392 -0.0477  0.0949
22271W        W65184  20.853   3.956   8.757 -0.0451 -0.0587 -0.0391
22272W        W65185  26.094  11.296   1.546  0.0314 -0.1987  0.0469
22273W        W65186  16.529  10.154   8.737  0.1413  0.0397  0.0169
22274W        W65187  26.171  28.509   4.479 -0.2023  0.0485 -0.1198
22275W        W65188  12.865  11.848   4.651 -0.1105 -0.3517 -0.2036
22276W        W65189  15.846  30.100   5.259  0.2630  0.1115  0.0392
22277W        W65190  22.077  10.436   3.771 -0.0685  0.1799 -0.2305
22278W        W65191  27.050  12.686   4.664 -0.0881  0.2121 -0.2128
22279W        W65192  27.980  11.063   3.355  0.2711  0.0415  0.0600
22280W        W65193  34.150   7.953   6.653  0.0439  0.0606  0.0827
22281W        W65194  24.083   6.621   1.617 -0.1639 -0.3288 -0.1532
22282W        W65195  32.263  14.353   6.334  0.0686 -0.1728  0.0435
22283W        W65196  15.481   3.417   3.342  0.0356  0.0481 -0.3208
22284W        W65197  13.927   4.693  10.663  0.4060 -0.0061 -0.2270
22285W        W65198   3.456   3.150  12.922 -0.0386 -0.0949 -0.0798
22286W        W65199  11.913  34.061   0.987 -0.0480  0.1804  0.2901
22287W        W65200  23.430  20.374   8.754 -0.3758 -0.1139 -0.0371
22288W        W65201  31.470  10.077   2.424 -0.1713  0.0270 -0.0458
22289W        W65202  26.380   7.496   1.632  0.1340  0.1416 -0.0843
22290W        W65203  33.293   6.112   7.661 -0.1486 -0.0406  0.5535
22291W        W65204  31.645  14.313   6.053 -0.1643  0.1014 -0.0253
22292W        W65205  32.137   2.918   0.875 -0.0825 -0.0528  0.3299
22293W        W65206  31.239  14.178   8.804  0.1102  0.0245  0.1147
22294W        W65207  27.960  30.992   9.640 -0.2873 -0.0688 -0.1726
22295W        W65208  25.802   4.112   6.015 -0.3189  0.1377  0.0607
22296W        W65209  10.188   2.559  10.674 -0.0967 -0.0996 -0.2691
22297W        W65210   0.262   3.031  11.112 -0.3941 -0.0416  0.0336
22298W        W65211  19.012  32.165   5.826 -0.2062  0.0067 -0.1489
22299W        W65212  19.243   4.074   2.708 -0.0538  0.1022 -0.0117
22300W        W65213  32.529   6.149  10.231  0.1092  0.1312  0.0240
22301W        W65214  23.989  32.979   4.542 -0.0271  0.2202  0.0393
22302W        W65215  29.366  28.571   6.893  0.0725 -0.0583  0.0721
22303W        W65216  13.802  17.183   8.245 -0.4173  0.2064 -0.2574
22304W        W65217  26.939   9.505   6.390 -0.0713  0.0766  0.1345
22305W        W65218  33.940   2.719  11.444  0.4557 -0.2223  0.0938
22306W        W65219  19.176   7.966   6.056  0.1863 -0.1335 -0.0485
22307W        W65220  15.559   0.692   9.953  0.1272  0.1699 -0.1444
22308W        W65221  30.526  32.893  11.102  0.0225  0.1091  0.1978
22309W        W65222  14.992   0.876   3.882 -0.2242 -0.1703  0.3633
22310W        W65223  33.164  17.641   7.973 -0.2562  0.0050  0.0335
22311W        W65224  23.212  11.824   6.831 -0.0096 -0.2753  0.1190
22312W        W65225  26.682  13.678   3.445 -0.0861 -0.0957 -0.0312
22313W        W65226   3.529   8.529   8.416  0.0598  0.2024 -0.0988
22314W        W65227  30.866   7.564   3.322  0.2358 -0.0338  0.2394
22315W        W65228  16.244  15.995  29.704  0.1810  0.2260 -0.3486
22316W        W65229  18.007   8.379   7.879  0.0073 -0.1431  0.0174
22317W        W65230  31.271   5.353   8.074  0.3052  0.0723 -0.1285
22318W        W65231  18.477   6.701   8.746 -0.1578  0.1256  0.2076
22319W        W65232  19.805  12.736   7.237  0.2645  0.1915  0.2276
22320W        W65233  20.710   6.538   8.231  0.3477 -0.0409  0.3331
22321W        W65234  27.321  10.519   9.869  0.2192 -0.0404  0.2304
22322W        W65235  19.219  11.686   1.698  0.0703  0.1806 -0.1801
22323W        W65236  32.143   5.864   1.318  0.1127  0.2039 -0.4966
22324W        W65237  27.673  13.428   4.487 -0.1686  0.0369  0.0405
22325W        W65238  13.271   2.763   7.389 -0.0027  0.1875  0.3609
22326W        W65239  30.029  11.034   4.991  0.3697 -0.1461  0.0113
22327W        W65240   1.465   6.591  10.036  0.1044  0.3102 -0.0237
22328W        W65241  21.012  14.496   4.407 -0.1169 -0.0209 -0.1205
22329W        W65242  23.826   8.940   6.818 -0.1972 -0.0984 -0.1446
22330W        W65243  18.395   8.925   8.596  0.0533  0.0929 -0.0745
22331W        W65244  32.223  10.214   4.037 -0.1478 -0.2060  0.0450
22332W        W65245  27.531   1.280   8.177 -0.0776 -0.1582  0.1715
22333W        W65246  12.592   5.336   1.782  0.3346  0.3075  0.0228
22334W        W65247   3.015  13.138   7.587  0.0509  0.4266 -0.0679
22335W        W65248   2.443   9.141  28.893 -0.2518  0.1579  0.1327
22336W        W65249   9.431   6.301   9.595  0.2692  0.3091 -0.1818
22337W        W65250  33.998  33.820  10.798 -0.0787 -0.1241  0.0276
22338W        W65251  19.461   2.201   8.804  0.0729  0.0912  0.1437
22339W        W65252  30.502   5.976   7.386  0.0123 -0.0309  0.2854
22340W        W65253  25.647   8.466   7.289  0.5450 -0.3486  0.0589
22341W        W65254  19.339  33.494   9.242  0.0679 -0.2282  0.0691
22342W        W65255  26.451  33.811   5.585 -0.3249 -0.0585  0.0554
22343W        W65256  20.937  11.382   5.514 -0.1156 -0.2913  0.0142
22344W        W65257  25.322   8.394   7.796  0.0118  0.0353  0.0404
22345W        W65258   0.947   5.762   4.143  0.1287  0.0908  0.1797
22346W        W65259  30.506  18.147   2.631  0.0578 -0.0545  0.0658
22347W        W65260  27.209  20.450  27.584 -0.0514 -0.1300 -0.2012
22348W        W65261  34.121   1.910  11.108 -0.4935  0.0859  0.4743
22349W        W65262  21.808   7.623   7.111 -0.2351 -0.1095  0.1308
22350W        W65263  33.427   6.065   8.730  0.0275  0.1199  0.2137
22351W        W65264  22.819   0.737  10.043 -0.2840  0.2303  0.0275
22352W        W65265  24.934  14.493   1.820  0.2203 -0.0967 -0.0693
22353W        W65266  22.985   6.542  29.679  0.3546  0.0240 -0.2203
22354W        W65267  11.772   9.714   4.694 -0.2326  0.0209 -0.2929
22355W        W65268  18.197   4.890   9.585 -0.0733 -0.1424 -0.1188
22356W        W65269  30.147  17.439   9.832  0.0058  0.1083  0.0472
22357W        W65270  26.513  10.473   8.999 -0.0402  0.1222  0.2217
22358W        W65271  20.824  13.472   6.250 -0.1167  0.2856  0.0405
22359W        W65272  19.458  24.556   7.362 -0.2364  0.2736 -0.3542
22360W        W65273  21.437  13.791  25.756  0.2416  0.0651 -0.0710
22361W        W65274  26.297   5.792   5.384 -0.0230 -0.0997 -0.1314
22362W        W65275   0.379   9.544   1.876  0.0708 -0.2418  0.0827
22363W        W65276  33.176   6.545  10.118  0.2017 -0.2650  0.2671
22364W        W65277  25.416   3.321   6.069  0.1251  0.4022 -0.2390
22365W        W65278  12.000   5.402   8.547  0.0097  0.3074 -0.2230
22366W        W65279  24.088   5.411   8.070 -0.0708 -0.3640 -0.3390
22367W        W65280  34.352   9.187   3.793  0.0967 -0.2257 -0.0217
22368W        W65281   1.332  30.072   7.063  0.3828  0.0915 -0.1703
22369W        W65282   1.081   3.061   8.971 -0.0977 -0.0065 -0.0397
22370W        W65283  21.522   3.940   6.249  0.1301  0.2067  0.1660
22371W        W65284  24.525  15.214   0.524 -0.2315 -0.0731 -0.1381
22372W        W65285  29.565  15.407   6.383 -0.1888  0.0890 -0.1946
22373W        W65286  24.774  15.063   6.856  0.2639 -0.1195  0.2118
22374W        W65287  20.038  16.057  22.922  0.0181  0.0690 -0.0548
22375W        W65288  31.129   3.403   4.456  0.3383 -0.0795 -0.4793
22376W        W65289   4.800   8.222  17.983  0.0593 -0.1127  0.0020
22377W        W65290  30.618   2.878   3.788  0.0200 -0.1337 -0.0804
22378W        W65291  26.883  16.364   1.172  0.1379 -0.0458  0.2411
22379W        W65292   5.685  12.379   9.417 -0.1137  0.1028  0.2938
22380W        W65293   0.964   3.375   2.758  0.2101 -0.2047  0.0035
22381W        W65294  31.853   8.367  11.523  0.2030 -0.1704  0.0838
22382W        W65295  16.730  33.212   0.219 -0.0343  0.2695 -0.2952
22383W        W65296  16.980  33.282   6.990  0.3700  0.1817 -0.3315
22384W        W65297  19.396   8.572   4.873  0.1028 -0.0408  0.0787
22385W        W65298  29.163   3.458   9.503  0.1081  0.1113  0.1798
22386W        W65299  29.251  11.642   9.694 -0.0224  0.0969 -0.0653
22387W        W65300  30.474  33.682   9.568  0.2126  0.1904  0.0547
22388W        W65301  28.738   8.211   9.818  0.0585 -0.1342  0.0546
22389W        W65302  28.219   3.117   4.294 -0.1748 -0.2661  0.3579
22390W        W65303  34.462   8.888   7.302  0.1984 -0.2082 -0.3033
22391W        W65304  24.398   9.222  29.269 -0.1360 -0.1116 -0.0102
22392W        W65305  24.352  11.548   8.107 -0.0523 -0.3336  0.3261
22393W        W65306   6.295  31.580   6.508  0.1789 -0.2571  0.0996
22394W        W65307  21.655   7.915   9.036  0.0538  0.1050 -0.0921
22395W        W65308  27.775   7.726   8.118 -0.2563 -0.0050 -0.0037
22396W        W65309  28.208   7.161   9.951  0.3084 -0.1608 -0.3118
22397W        W65310  23.169  11.796   9.599  0.0297 -0.0230  0.0506
22398W        W65311  19.782   2.864   7.715  0.0391  0.1635 -0.0401
22399W        W65312   4.667   5.655  29.411 -0.2550  0.1080  0.0120
22400W        W65313  22.217  33.659   4.193  0.0856  0.3624 -0.2358
22401W        W65314   7.905   5.038  13.364  0.1495  0.1195  0.0303
22402W        W65315  20.106   6.347  29.596  0.1573  0.1403  0.2119
22403W        W65316  23.666  10.732   6.962 -0.0080  0.1200  0.3139
22404W        W65317  31.454  10.500   8.984 -0.0374  0.1768  0.1200
22405W        W65318  29.268   2.272   9.521  0.1613 -0.1766  0.0297
22406W        W65319  26.244  32.670   9.613 -0.1646 -0.0444  0.0400
22407W        W65320  22.718   4.540   3.175 -0.2987 -0.0340 -0.0746
22408W        W65321  33.875  14.873   4.708 -0.0992  0.0859 -0.0618
22409W        W65322  26.979   4.961   3.543  0.0570  0.2112  0.4900
22410W        W65323  27.711  11.417   9.996  0.1296  0.1970 -0.1090
22411W        W65324  20.202  10.538  27.335 -0.1251 -0.1246 -0.1240
22412W        W65325   1.548  15.956   1.706 -0.3186 -0.1808  0.1288
22413W        W65326  31.025   2.453   9.883  0.2095 -0.1164  0.0469
22414W        W65327   0.495  11.332   7.980  0.2710  0.2832  0.1438
22415W        W65328  18.852  23.684   5.867  0.0394 -0.2710  0.2225
22416W        W65329   9.825   4.008  12.086 -0.0006  0.1508  0.0721
22417W        W65330  29.993   9.615   6.895 -0.0129  0.3475 -0.2677
22418W        W65331  29.301  20.357   8.537  0.0688 -0.2617 -0.1511
22419W        W65332   0.911  10.292   0.436 -0.0452  0.3569  0.3385
22420W        W65333  28.335  10.327   5.426 -0.1869 -0.3465 -0.1187
22421W        W65334   0.421  23.736   3.964 -0.0083  0.0745  0.1960
22422W        W65335  22.044  27.335   3.170 -0.2930  0.0750  0.2743
22423W        W65336  29.349   2.612   6.455  0.0844 -0.1742 -0.0703
22424W        W65337  26.942  13.797   2.220  0.2071  0.3077  0.0810
22425W        W65338  20.611  16.515   2.000 -0.2081 -0.1432 -0.0120
22426W        W65339  32.771  10.851   4.258  0.1850  0.2733  0.1377
22427W        W65340  25.033  21.983  24.535 -0.1990  0.0890 -0.2352
22428W        W65341  24.067  19.231   7.110 -0.0320 -0.0211  0.2713
22429W        W65342   4.152   5.305   6.677 -0.1349 -0.0917 -0.0890
22430W        W65343  25.762  33.424   1.954  0.0792  0.1601 -0.5031
22431W        W65344  24.203   7.902   6.455  0.0651  0.0419  0.0899
22432W        W65345  32.156   6.498   9.100  0.0192 -0.0662 -0.1378
22433W        W65346  19.406   4.755   3.509  0.2567 -0.2567 -0.2416
22434W        W65347  19.217  15.582   5.912  0.0233 -0.0029  0.0426
22435W        W65348  27.327   9.928   5.728 -0.1075 -0.5157 -0.0437
22436W        W65349  18.624   1.926   7.871 -0.1951  0.0501  0.1583
22437W        W65350  32.282  16.547   6.112  0.1076 -0.0855  0.0410
22438W        W65351  15.603  14.562   6.484  0.0006 -0.0998 -0.5199
22439W        W65352   1.711  11.385   9.299  0.2637 -0.2339 -0.0749
22440W        W65353  18.055  12.576   7.102 -0.0462  0.0328  0.1991
22441W        W65354  24.228   7.212   5.945  0.3151  0.2104  0.0660
22442W        W65355   4.362  21.047   5.393  0.4229 -0.0513 -0.0535
22443W        W65356  25.084  17.140   7.483 -0.1836 -0.2930  0.2713
22444W        W65357  23.928   2.536   3.076  0.1237  0.2263  0.0461
22445W        W65358  31.806   8.527   1.596  0.2313  0.0002 -0.0859
22446W        W65359  23.038  11.827   7.327 -0.2611 -0.2385 -0.3380
22447W        W65360  25.738  10.828  29.424  0.0273 -0.3947  0.0723
22448W        W65361  20.304  23.631   3.953  0.1834 -0.1356 -0.0808
22449W        W65362  27.578   6.252   6.757 -0.0210 -0.2423 -0.1558
22450W        W65363  19.008  14.387   8.351 -0.0390 -0.0710 -0.1652
22451W        W65364  23.137  33.646   9.201 -0.3122 -0.1806  0.0742
22452W        W65365  26.489   8.455   6.076  0.0303  0.1945  0.1337
22453W        W65366  12.707   2.656   4.870  0.0423 -0.0221 -0.3833
22454W        W65367   2.107  21.880  21.956 -0.2585  0.1185 -0.2457
22455W        W65368  20.611   9.470   0.075  0.1238 -0.4578 -0.3769
22456W        W65369  33.588   8.726  16.868 -0.0156 -0.1656 -0.2169
22457W        W65370  25.088  13.538  20.742 -0.2878 -0.0272  0.0900
22458W        W65371  21.833  11.925   4.542 -0.0926  0.0194 -0.0499
22459W        W65372  21.477   8.937  25.592 -0.1875  0.3795 -0.0046
22460W        W65373  20.051  13.361   3.240  0.2884  0.0391 -0.1573
22461W        W65374  20.635   9.460  29.346 -0.2216  0.0388 -0.1641
22462W        W65375  23.536  21.048   0.062 -0.1810  0.0432  0.0290
22463W        W65376  10.769   0.200   0.285  0.1067 -0.0765  0.2416
22464W        W65377  28.982  12.000   9.499  0.0236 -0.2043 -0.1016
22465W        W65378  18.330   8.052   9.014  0.0780  0.3884 -0.1895
22466W        W65379  24.552   5.278  25.053  0.3597  0.0975 -0.0312
22467W        W65380  22.689  11.215   8.275  0.1964 -0.1666  0.3157
22468W        W65381  19.484  12.623   7.582  0.2549  0.0402 -0.1315
22469W        W65382  12.034  21.320   3.448  0.1496  0.3702  0.3211
22470W        W65383  26.521  12.549   8.766  0.1218 -0.2693 -0.0790
22471W        W65384  13.575  22.295   7.525 -0.0122  0.0005 -0.2056
22472W        W65385  33.026  23.549   7.342  0.1318  0.1389  0.1637
22473W        W65386  23.743   0.462   1.670  0.1482 -0.3318  0.1321
22474W        W65387  26.488  26.508  26.296 -0.0737  0.0184 -0.2368
22475W        W65388  27.787  19.370  27.940 -0.1110 -0.1392 -0.0987
22476W        W65389  27.155  11.206   2.319 -0.0299 -0.2005 -0.0253
22477W        W65390  23.992   9.521  25.216 -0.0310  0.0875 -0.0673
22478W        W65391   9.294   4.370  28.768 -0.0977  0.1941  0.1684
22479W        W65392  22.752   0.299   1.791 -0.1612 -0.1103 -0.2962
22480W        W65393  16.116  10.665  18.043  0.1874  0.0435 -0.1088
22481W        W65394  30.411  15.952   8.264 -0.3548  0.1397  0.2115
22482W        W65395   2.817   3.841   9.421  0.0598  0.1111  0.4998
22483W        W65396  32.378  12.325   1.015  0.1296  0.2596  0.2416
22484W        W65397  16.195  14.077   3.605  0.1985 -0.0119 -0.1765
22485W        W65398  14.549  12.130  28.559  0.0963 -0.2961  0.1943
22486W        W65399  19.095   9.377   5.692  0.0040  0.0978 -0.0275
22487W        W65400  22.075  17.672  29.597 -0.1570 -0.0747 -0.3476
22488W        W65401  32.212  17.486   2.331  0.0992  0.0929  0.0112
22489W        W65402  20.269  10.055   7.890  0.1517  0.3493  0.0352
22490W        W65403   6.445   6.673  10.638 -0.3673 -0.1942 -0.0117
22491W        W65404  33.127  20.530  20.776  0.3570 -0.2450  0.0499
22492W        W65405  25.861  27.822  28.290  0.0638  0.0912 -0.1584
22493W        W65406  23.526   9.099   0.337  0.0418 -0.0351 -0.1276
22494W        W65407  12.276   8.775   8.072  0.3422 -0.0129 -0.1467
22495W        W65408  14.318  13.108   2.166 -0.0696 -0.0443 -0.0416
22496W        W65409  17.803  10.276  28.428  0.5577  0.0736 -0.2235
22497W        W65410  31.666   4.379   0.919 -0.4092 -0.2080 -0.0379
22498W        W65411  19.751  15.847   8.154 -0.0657  0.3145 -0.2650
22499W        W65412  20.977   8.697   6.808  0.2596 -0.2506  0.1286
22500W        W65413  27.911  18.280   6.856  0.2414 -0.0922 -0.0849
22501W        W65414  18.341   3.801   2.464 -0.2801 -0.0307  0.0275
22502W        W65415  11.924   6.367  21.482  0.1332 -0.0535 -0.4145
22503W        W65416  24.667   9.601  26.076 -0.0048  0.0582  0.1907
22504W        W65417  16.655  17.401   5.855 -0.0534  0.0878 -0.3087
22505W        W65418  22.228   7.660   3.450  0.1859  0.0173 -0.2046
22506W        W65419  15.518  10.464   5.524 -0.0466  0.0645 -0.0100
22507W        W65420  19.734   9.650   5.865  0.1111 -0.0615 -0.1352
22508W        W65421  29.575   6.828   8.441 -0.1949 -0.0272  0.3259
22509W        W65422  19.068   5.306   1.584  0.1106  0.2590  0.0564
22510W        W65423  18.007  15.462  28.721 -0.1452 -0.1235  0.2276
22511W        W65424  16.450   3.058   9.049 -0.3861  0.1426 -0.1673
22512W        W65425  25.640  11.193   3.162 -0.0698  0.1656  0.2374
22513W        W65426  31.229  21.034   1.906  0.2960 -0.2267 -0.0736
22514W        W65427  25.750  19.188  26.877  0.0342 -0.0897  0.0110
22515W        W65428  23.693  14.569  24.345 -0.1010  0.3256  0.0235
22516W        W65429  17.843  16.363   2.365 -0.0882  0.4950 -0.2269
22517W        W65430  25.221   5.185   2.706  0.1750  0.2745 -0.1516
22518W        W65431  24.545   2.670   1.300 -0.1272  0.2124 -0.3099
22519W        W65432  34.200  24.118   2.030  0.0511 -0.0819  0.2234
22520W        W65433  17.312  15.304  23.904  0.0784  0.1598  0.0427
22521W        W65434  28.126  18.768  27.005  0.0177  0.2439  0.0343
22522W        W65435  22.993   7.725   1.862  0.0198 -0.1331 -0.0170
22523W        W65436  18.416   9.160  23.049 -0.0022 -0.2351  0.1712
22524W        W65437  29.986  20.863  28.714  0.0985  0.0932  0.0079
22525W        W65438  12.120  12.286  22.934 -0.1620  0.0969  0.3257
22526W        W65439   9.824   2.483   3.559  0.2489 -0.3436 -0.1922
22527W        W65440  21.640   7.432  23.163  0.0398 -0.1234  0.3693
22528W        W65441   9.492  15.022  19.276 -0.1182 -0.1045 -0.0346
22529W        W65442  25.289  21.081   4.682  0.0047 -0.1741 -0.2554
22530W        W65443  14.510   8.073  20.840  0.2015 -0.1549  0.0609
22531W        W65444  15.704  23.796   6.208  0.1984  0.4090 -0.0294
22532W        W65445  12.557  13.127   8.459  0.2886  0.0204  0.0768
22533W        W65446  23.309  14.412  22.570 -0.1728  0.1793  0.2655
22534W        W65447  26.580  14.422   6.482  0.1092  0.0923 -0.0663
22535W        W65448  15.455   8.515   1.265 -0.0339 -0.0275  0.1630
22536W        W65449  16.834  11.796  25.493 -0.0808 -0.2113 -0.1060
22537W        W65450  22.062  15.030   7.863  0.0221  0.3424  0.2073
22538W        W65451  18.374  12.850   6.856  0.0887  0.2786  0.0289
22539W        W65452  29.042   9.654   0.634  0.4203 -0.0302  0.0815
22540W        W65453  19.519   1.451   1.014 -0.0116  0.1819 -0.0351
22541W        W65454  19.837   6.129  25.196  0.4715  0.1547  0.3267
22542W        W65455  23.779  22.515  23.973 -0.2400 -0.0051  0.1550
22543W        W65456  27.187  16.326  29.295  0.0107 -0.0818 -0.2012
22544W        W65457  25.656  14.624   5.340  0.0675 -0.1369 -0.1038
22545W        W65458  26.112  13.486  28.556  0.0444 -0.3161  0.1421
22546W        W65459  22.072  12.138   2.816  0.5382  0.2570  0.1194
22547W        W65460  16.626   4.065  27.414 -0.1008 -0.2012  0.1549
22548W        W65461  25.001  14.707  24.367  0.5332 -0.3892  0.3217
22549W        W65462  21.200   4.810   1.987  0.1047  0.1717  0.1817
22550W        W65463  19.208   8.187   8.685 -0.0693  0.3385 -0.2610
22551W        W65464  14.473   6.481  17.755  0.0899  0.3400  0.1742
22552W        W65465  10.687   8.751   1.939  0.0478 -0.1404  0.0126
22553W        W65466  16.052   0.999   4.702  0.0500 -0.3193  0.0013
22554W        W65467  11.876  15.475  26.105  0.0709 -0.0554 -0.1885
22555W        W65468  18.352  11.111   5.928 -0.2097 -0.1331  0.0666
22556W        W65469  22.081   8.731  25.507  0.1122 -0.0701 -0.1446
22557W        W65470  28.373  14.675   7.776 -0.1771  0.2459  0.1704
22558W        W65471  23.160   7.802   9.528  0.1040  0.1413  0.1934
22559W        W65472  26.515  32.898   4.078 -0.0691  0.0636 -0.0121
22560W        W65473  19.466   8.952  29.780 -0.2302  0.4127  0.3250
22561W        W65474  16.009  16.363  29.341  0.1790  0.0881  0.0907
22562W        W65475  18.850   7.815  23.283  0.1868 -0.0405 -0.0369
22563W        W65476  22.248  11.493  26.886 -0.0897  0.2067 -0.3125
22564W        W65477  22.510   3.646  16.551 -0.1732 -0.0547  0.0141
22565W        W65478  24.789  13.733  21.251 -0.2117 -0.2706 -0.1034
22566W        W65479  24.746  19.808   4.809 -0.0501 -0.1460  0.0274
22567W        W65480  19.050  13.693   5.259  0.2334  0.3479  0.2642
22568W        W65481  30.516  18.507   0.475  0.0890 -0.0081  0.0041
22569W        W65482  24.695   7.725   9.149 -0.0475  0.0951 -0.2810
22570W        W65483  25.223   8.869  28.780  0.2080 -0.1413 -0.1055
22571W        W65484  28.789  20.402   4.513  0.1648  0.0730 -0.0191
22572W        W65485  14.326  10.340  23.616 -0.0784  0.0753  0.2324
22573W        W65486  22.183   6.579   2.088 -0.0756  0.1199  0.2529
22574W        W65487  28.563   6.394   8.266  0.3812  0.0252  0.0684
22575W        W65488  14.907  14.658  25.824 -0.2277  0.1793  0.2487
22576W        W65489  16.864  11.468   0.475  0.0372 -0.5205  0.1822
22577W        W65490  17.698  19.203  22.100 -0.5377  0.0479 -0.0258
22578W        W65491   4.855  11.381   1.870 -0.0509  0.1650 -0.1713
22579W        W65492  12.966  34.313   8.077  0.2105 -0.2824 -0.0632
22580W        W65493  17.052  12.709  28.888 -0.0019  0.1641  0.0579
22581W        W65494  17.911  11.377   2.754 -0.3287 -0.0169 -0.1589
22582W        W65495  24.205   4.416  27.145 -0.1921  0.2894 -0.1625
22583W        W65496  26.542  17.339   4.120  0.0570  0.2687  0.0427
22584W        W65497  23.492   5.764   2.385 -0.0055  0.1812  0.2246
22585W        W65498  19.953   7.875   2.991  0.2503 -0.1175 -0.1283
22586W        W65499   9.200  12.282  29.445  0.1072 -0.2602  0.0088
22587W        W65500  30.565  21.977  26.602 -0.0897 -0.0361 -0.3424
22588W        W65501  19.885   5.478   4.212  0.0132 -0.1475  0.3163
22589W        W65502  25.564  28.660   4.863  0.1633  0.0791 -0.0870
22590W        W65503  21.153  16.404   2.728 -0.2665 -0.1390  0.1021
22591W        W65504   9.691   9.388  23.059 -0.1418  0.2249  0.0843
22592W        W65505  27.071  13.477   5.595 -0.0841  0.0478 -0.1943
22593W        W65506  20.455   8.780   4.046  0.1564  0.4137 -0.1808
22594W        W65507  15.277   8.591   9.056  0.1975  0.0257 -0.2489
22595W        W65508  18.424   6.025  26.778 -0.0577 -0.2531  0.3092
22596W        W65509  27.273   9.782  29.747 -0.1125 -0.0523 -0.0021
22597W        W65510  25.182  18.147   1.050  0.1617 -0.0164  0.3604
22598W        W65511  22.108  33.819   7.371  0.2774 -0.0830  0.0459
22599W        W65512  31.471  12.659   7.906  0.2145  0.0596  0.1670
22600W        W65513  10.147   0.748   6.269  0.0777 -0.0658 -0.0622
22601W        W65514  27.104   4.643   9.377  0.1827  0.0252 -0.1380
22602W        W65515  22.679  12.429  25.760  0.0036  0.1903  0.3845
22603W        W65516  21.779  11.741  28.403  0.2146 -0.1427  0.2584
22604W        W65517  25.711   1.534  25.356 -0.0761 -0.0493 -0.0637
22605W        W65518  32.677  13.857   2.362 -0.3655  0.2665 -0.2298
22606W        W65519  22.174  15.728  22.131  0.0491 -0.1855 -0.2984
22607W        W65520  17.739  19.204   1.765 -0.0431 -0.1762 -0.2912
22608W        W65521  29.822  14.005  27.231 -0.0149  0.4007 -0.3149
22609W        W65522  27.067  21.512  20.759 -0.3721  0.0493 -0.1213
22610W        W65523  28.595   5.542  15.863  0.2567 -0.1535  0.1014
22611W        W65524  31.001  10.526   1.706  0.3022 -0.0987 -0.1995
22612W        W65525  17.065  17.266   4.992 -0.3358 -0.1064 -0.0060
22613W        W65526  26.934   7.884   7.298 -0.1020  0.1518  0.2301
22614W        W65527  18.294  10.636  23.322 -0.0391  0.1293  0.0530
22615W        W65528  16.749   3.577  28.928 -0.1883  0.3095 -0.2088
22616W        W65529  24.461  13.694   6.881 -0.2933  0.1890 -0.1384
22617W        W65530  19.010  11.348  25.598  0.0749  0.3237  0.0418
22618W        W65531  18.925  15.634  23.454  0.0512 -0.0999  0.0573
22619W        W65532   2.869   7.784  19.244 -0.0371 -0.0479  0.1908
22620W        W65533   1.934  20.094   3.851 -0.0506  0.1466 -0.2606
22621W        W65534  22.768   9.040   0.579 -0.0645  0.2434 -0.0669
22622W        W65535  15.311   6.953  10.674  0.1802 -0.0120 -0.1644
22623W        W65536  34.452  13.337  28.249  0.0086  0.0947 -0.0944
22624W        W65537  18.549  12.596  21.628 -0.1056  0.0787  0.0386
22625W        W65538  14.890  13.240  20.274 -0.1467  0.0516 -0.1108
22626W        W65539  29.382   8.210   8.440 -0.0270  0.1837 -0.0456
22627W        W65540  21.284  22.460   9.037 -0.0453  0.1241 -0.0189
22628W        W65541  20.267  18.646  26.500  0.1220  0.1492 -0.1035
22629W        W65542  15.800   9.762  23.570  0.0135 -0.0341  0.0912
22630W        W65543  23.850  12.307   4.453  0.1328  0.1360 -0.1765
22631W        W65544  14.050  14.005   8.340  0.1732  0.0028  0.0287
22632W        W65545  19.647   8.427  27.132 -0.3089  0.3517 -0.1356
22633W        W65546  13.645   9.028   0.952 -0.1337  0.1766  0.2940
22634W        W65547  13.766   9.418  27.079  0.2095  0.1246  0.2734
22635W        W65548  30.687  19.329   7.381 -0.1752  0.0390 -0.2907
22636W        W65549  15.582   9.067   0.417  0.0543 -0.1426 -0.0627
22637W        W65550  13.847   7.789   2.296  0.1278  0.1895 -0.0340
22638W        W65551  27.572  14.601   8.251 -0.1256  0.3432 -0.2274
22639W        W65552  26.300   6.998   4.881 -0.0329  0.2470  0.1795
22640W        W65553  21.901  10.250   4.828  0.0455 -0.0727 -0.0743
22641W        W65554  29.247  12.448  27.768  0.2766  0.1306 -0.0737
22642W        W65555  22.673   8.591   9.118  0.2414  0.2087  0.0359
22643W        W65556  18.458  15.011  25.978 -0.1257  0.2491 -0.1190
22644W        W65557  18.052  14.942  24.800  0.1942 -0.0025  0.2393
22645W        W65558  24.788  18.601   0.873 -0.1010  0.0139 -0.0396
22646W        W65559  26.562  13.770   4.931  0.0508  0.1790  0.2840
22647W        W65560  19.475  15.617   5.500  0.1013  0.0160 -0.4107
22648W        W65561  15.593   8.887  29.686  0.0094  0.0655 -0.2291
22649W        W65562  23.597  12.351   6.298  0.1131  0.0457  0.0734
22650W        W65563  17.798   2.712  22.246 -0.0972 -0.0208  0.0815
22651W        W65564  23.925  17.216  25.205  0.0193 -0.0557  0.0866
22652W        W65565  21.823  34.474   4.321 -0.2228  0.2387 -0.1918
22653W        W65566  20.110  17.381  22.744  0.0986  0.1968 -0.0176
22654W        W65567  19.455   8.907  26.978 -0.0576  0.0467  0.0908
22655W        W65568  18.155  12.340   4.806 -0.0513 -0.1718 -0.3491
22656W        W65569  18.619  17.391  22.138 -0.0074  0.0662 -0.0512
22657W        W65570  18.745  12.089  20.675 -0.3642 -0.3163  0.0050
22658W        W65571  25.980   9.763  23.142  0.1487 -0.2870  0.2306
22659W        W65572  24.695  17.287   7.745 -0.0378  0.1931  0.0668
22660W        W65573  33.257  14.669   1.673 -0.1258  0.2339 -0.3539
22661W        W65574  27.212  15.413   3.229  0.0574  0.1478 -0.4041
22662W        W65575  14.016   5.227   8.809 -0.0534 -0.1330  0.2377
22663W        W65576   5.143   5.824  10.155  0.3312  0.1257  0.1130
22664W        W65577  22.805  19.084  29.032  0.1102 -0.0418 -0.0245
22665W        W65578  23.945   3.621   9.291  0.0693  0.0088 -0.0216
22666W        W65579  24.003  12.624  22.251  0.2527 -0.0734  0.0108
22667W        W65580  16.451   5.621   6.040 -0.0372  0.0706 -0.0180
22668W        W65581  19.260   7.222  22.937  0.0265  0.1433 -0.0961
22669W        W65582  32.581  17.433  24.869 -0.0292 -0.0361  0.0226
22670W        W65583  20.429   8.179  22.975 -0.2157 -0.5035 -0.1094
22671W        W65584  13.761  18.662  25.231 -0.0433  0.3413  0.1039
22672W        W65585  20.263   5.075  21.791  0.1040  0.2890  0.0956
22673W        W65586  22.930   7.354   9.577  0.3549 -0.3616 -0.1696
22674W        W65587  21.973  28.960  17.925 -0.1837  0.0734  0.1114
22675W        W65588  24.218  12.299  17.250  0.0785  0.0089  0.1333
22676W        W65589  14.593  15.158   7.053  0.0283 -0.0230  0.1052
22677W        W65590  22.985  15.742  29.605 -0.1116  0.0166 -0.1922
22678W        W65591  18.953   7.049   2.044 -0.2302 -0.2490  0.2119
22679W        W65592  16.230   9.212   1.113 -0.1170 -0.1522  0.1547
22680W        W65593  17.289   5.674  27.398  0.0108 -0.0068 -0.1087
22681W        W65594  17.999  29.320  22.578  0.2936 -0.1864 -0.3874
22682W        W65595  20.817  17.753  26.162 -0.0404  0.0029 -0.2870
22683W        W65596  27.745  32.486   5.719  0.1254 -0.3297 -0.0204
22684W        W65597  22.828  15.642   2.943  0.1448 -0.1221 -0.2327
22685W        W65598  17.381  16.840   4.897 -0.2015  0.0080 -0.0655
22686W        W65599  23.309   1.974   3.384 -0.0182  0.2176  0.2615
22687W        W65600  18.321   9.228   3.041 -0.0529  0.1513  0.2629
22688W        W65601  31.408  14.266   7.547 -0.2718 -0.0769 -0.0560
22689W        W65602  26.221  12.906   6.344 -0.1640  0.1870 -0.1463
22690W        W65603  12.545  17.499   0.961 -0.0308 -0.0232  0.0988
22691W        W65604  22.838  17.105   7.786 -0.5574 -0.1585 -0.1289
22692W        W65605  30.049  27.876   9.306  0.0493 -0.1301  0.3054
22693W        W65606  21.019  16.421  23.851  0.0033 -0.1068  0.2083
22694W        W65607   6.165   9.937  28.595 -0.0395 -0.1282  0.2302
22695W        W65608  25.905  10.006  17.592 -0.2306 -0.3131 -0.3372
22696W        W65609  24.136  19.213   6.583  0.1248  0.1789  0.0328
22697W        W65610  17.906   1.267   3.300 -0.2231  0.2064 -0.0987
22698W        W65611  26.074   9.061  28.555 -0.1786 -0.3480  0.0369
22699W        W65612  14.931   6.489  27.170  0.2193  0.0118  0.5510
22700W        W65613  24.570  20.498   5.627 -0.1707  0.0257 -0.0228
22701W        W65614  21.018  10.783   7.455 -0.3129 -0.3010  0.1857
22702W        W65615  15.362   9.663   3.798  0.1274  0.0646 -0.6637
22703W        W65616  11.682  22.221  28.134 -0.1149 -0.0738  0.1352
22704W        W65617  15.329  12.192  25.222 -0.0448  0.0104  0.3799
22705W        W65618  29.660  24.005  23.670  0.0697  0.0568  0.1756
22706W        W65619  29.032  13.850   2.525  0.2272 -0.0783 -0.2377
22707W        W65620  17.841  17.342  20.544 -0.0026  0.1127 -0.2898
22708W        W65621  14.563   7.002   3.889  0.1808  0.0195 -0.0196
22709W        W65622  14.722  10.841  27.654 -0.0613  0.1493  0.1588
22710W        W65623  15.442   6.823   2.598  0.1775  0.2687 -0.0445
22711W        W65624  21.511  12.709   3.924  0.0759 -0.0338  0.4122
22712W        W65625   7.407   8.987  28.172 -0.0602 -0.0860 -0.2093
22713W        W65626  22.787   9.555  25.178  0.2622 -0.1008 -0.0054
22714W        W65627  32.469   8.730  29.572 -0.3934 -0.1873  0.0248
22715W        W65628  26.860  11.427   3.234  0.5000 -0.2808  0.0434
22716W        W65629  23.068  12.470   3.461 -0.1103 -0.0432  0.1224
22717W        W65630  17.734  16.356   6.233  0.0400 -0.1298  0.0639
22718W        W65631  18.468  16.515   1.358 -0.1740  0.0128 -0.0279
22719W        W65632  32.573   6.389   5.103 -0.2008  0.1528 -0.0132
22720W        W65633  29.394  20.466   2.533  0.1796 -0.1996 -0.1113
22721W        W65634   1.190  11.590   4.567  0.0495 -0.1244  0.1415
22722W        W65635  29.796  15.468  26.665 -0.3457 -0.2214  0.0834
22723W        W65636  26.037  20.273   8.229  0.0656  0.3182  0.4315
22724W        W65637  14.182   6.224  21.901 -0.1689  0.1447  0.0253
22725W        W65638  25.082   2.278   3.850  0.3289 -0.1337 -0.0846
22726W        W65639  26.917  15.621   5.845 -0.1887  0.0311  0.0712
22727W        W65640  22.638   6.769   7.638  0.1942  0.0935 -0.0729
22728W        W65641  15.242  10.072  23.952  0.1939  0.1843 -0.0051
22729W        W65642  14.916   9.394  27.648 -0.0835  0.2974  0.3576
22730W        W65643  21.363  12.473   0.848 -0.1049 -0.0222 -0.1189
22731W        W65644  26.536  21.622  29.735 -0.2645 -0.1210 -0.1904
22732W        W65645  14.720  12.140   4.492 -0.0187 -0.2494 -0.1306
22733W        W65646  20.638  31.800   3.667 -0.1061  0.4472  0.0443
22734W        W65647  20.598  17.336  29.547 -0.2642  0.1147  0.0695
22735W        W65648  15.686   4.799  21.946 -0.0129 -0.3026  0.1939
22736W        W65649  13.673   3.460   5.636  0.3853 -0.2756  0.0414
22737W        W65650  18.234  14.161   4.730 -0.0493  0.1874  0.3534
22738W        W65651  19.668  14.744   6.013 -0.1540  0.0047  0.0429
22739W        W65652  25.345   9.407   4.495 -0.3063 -0.0506  0.0544
22740W        W65653  21.106  12.389  24.630  0.1405 -0.2108  0.2599
22741W        W65654  21.039  16.216   5.935  0.0731 -0.1309 -0.0433
22742W        W65655  26.990  11.882  29.444  0.1743  0.0409  0.3277
22743W        W65656  25.247   9.966   1.570 -0.1830 -0.1102 -0.0342
22744W        W65657  15.899  17.434  27.172 -0.0987  0.0119 -0.0042
22745W        W65658  24.404   7.753   4.165 -0.0990  0.2038 -0.4419
22746W        W65659  24.003   6.357  28.692  0.3171 -0.1836  0.1077
22747W        W65660  22.625  20.330   2.454  0.4365 -0.0850 -0.1040
22748W        W65661  29.069  14.782   2.794  0.1255 -0.1794 -0.1606
22749W        W65662  23.897  20.129   6.626 -0.1771  0.2788 -0.2729
22750W        W65663  31.058  24.782  25.238  0.0659 -0.2156  0.0900
22751W        W65664  16.794   8.862   1.746 -0.0729 -0.1294 -0.0608
22752W        W65665   0.936  14.116  27.036 -0.0741  0.2110  0.1486
22753W        W65666  31.844   2.134  27.955  0.1813  0.2174  0.2405
22754W        W65667  33.088   1.258   6.558 -0.0539  0.2878  0.1142
22755W        W65668  27.715  19.809   8.387 -0.1919 -0.1864  0.2141
22756W        W65669  11.068  17.042  25.493 -0.0949 -0.0223  0.0374
22757W        W65670  18.814  19.560   8.695 -0.1514 -0.0349 -0.0057
22758W        W65671   1.464   5.540   1.070  0.0151 -0.2159  0.1194
22759W        W65672  24.103  33.018   6.049  0.1153 -0.0386 -0.1272
22760W        W65673  30.959   9.105  18.083  0.0192 -0.3157  0.2008
22761W        W65674  19.112   5.435   4.644 -0.0320 -0.3115  0.2363
22762W        W65675  29.812  12.391   3.087  0.0358 -0.0243 -0.0991
22763W        W65676  17.974   7.199   0.886 -0.0133 -0.4827  0.0029
22764W        W65677  22.209  14.466  26.639 -0.2525  0.1611  0.1791
22765W        W65678  23.891  19.517   1.254 -0.0482  0.2892  0.2170
22766W        W65679  22.580   6.985  18.164  0.2707 -0.3355 -0.2218
22767W        W65680  34.459   9.571   4.117 -0.0495  0.4339  0.1078
22768W        W65681  21.006  20.687   1.372  0.1334  0.1773 -0.0989
22769W        W65682  24.196  16.461   6.024 -0.0121  0.1037 -0.1684
22770W        W65683  18.903   9.649   4.605 -0.0655 -0.3239  0.1414
22771W        W65684  23.116   6.046  27.689 -0.0821 -0.0334  0.0647
22772W        W65685  28.796  15.936   0.920  0.1943 -0.1910  0.0213
22773W        W65686  22.693  10.161   5.421  0.3965 -0.1071 -0.3077
22774W        W65687  28.258  23.175   8.202 -0.0713  0.1162 -0.0347
22775W        W65688  29.322  14.917   1.048 -0.0119  0.0285  0.2015
22776W        W65689  19.710  10.164  24.189 -0.2205 -0.1370  0.0035
22777W        W65690  15.264   4.272  25.808  0.2206  0.1600 -0.1528
22778W        W65691  16.513  18.720  27.989 -0.0414 -0.1958  0.0829
22779W        W65692  32.809   9.321   6.772  0.3468 -0.1334 -0.2799
22780W        W65693  33.483  11.756   0.261 -0.2223 -0.2424  0.1699
22781W        W65694  19.472   9.365  26.616  0.2778  0.1004 -0.3333
22782W        W65695  29.613   6.118   4.157 -0.0579  0.1010  0.3776
22783W        W65696  20.143  14.530   9.335  0.0221 -0.1746 -0.1319
22784W        W65697  25.458  15.203   5.866  0.0570 -0.2553 -0.0772
22785W        W65698  13.320  14.584  26.169 -0.3568 -0.0797 -0.0094
22786W        W65699  16.506  15.889   5.623 -0.0053 -0.1137  0.0089
22787W        W65700  28.676  16.381  23.573 -0.2004 -0.3305 -0.2435
22788W        W65701  11.286   7.622  22.527 -0.1467 -0.0055 -0.2311
22789W        W65702  16.466   7.881  10.063  0.2276 -0.3100 -0.3259
22790W        W65703  19.086  13.465   6.484  0.2370 -0.0165 -0.2442
22791W        W65704  33.087   7.606   1.853  0.0233 -0.0598  0.3621
22792W        W65705  24.399  13.583  25.013 -0.1376  0.1164 -0.2595
22793W        W65706  27.710   6.582  26.424  0.1563 -0.2734 -0.0269
22794W        W65707  15.281  19.317  27.287 -0.0700  0.2145 -0.0079
22795W        W65708  19.723   9.636  29.529  0.0213  0.3150 -0.0653
22796W        W65709  20.957  18.726   6.779 -0.0493  0.2785  0.0210
22797W        W65710  17.793   1.701  27.689 -0.2222 -0.0975  0.0186
22798W        W65711  28.497  12.636   5.995 -0.5501  0.3125  0.1942
22799W        W65712  28.265  15.740   4.059 -0.0735 -0.0124  0.2434
22800W        W65713  29.300  17.094  24.039  0.0567  0.0392  0.2752
22801W        W65714  22.778  13.262  26.164 -0.0065 -0.2634  0.0955
22802W        W65715  32.214  24.655   2.872 -0.1075  0.1861  0.3812
22803W        W65716  26.863   1.651  26.890 -0.0026  0.0955  0.0060
22804W        W65717  16.635  33.173  28.281 -0.0823 -0.0601 -0.1243
22805W        W65718  31.330  17.014   0.454 -0.1174  0.0948 -0.1412
22806W        W65719  27.044  25.763  17.967 -0.0807  0.0790 -0.0316
22807W        W65720  19.330   9.273   8.682 -0.0551 -0.0678 -0.1419
22808W        W65721  24.706  10.704   1.255 -0.2314 -0.2381  0.0978
22809W        W65722  26.490   9.375  16.599 -0.2978  0.0504 -0.1520
22810W        W65723  24.703  33.739   4.264  0.1106  0.0885 -0.1758
22811W        W65724  14.830   3.540   1.386 -0.0655  0.0104  0.0076
22812W        W65725  22.178  18.593   6.827  0.1398  0.0553  0.1459
22813W        W65726  16.675  13.044  29.528  0.0502  0.0798  0.2472
22814W        W65727  22.851  10.920   0.710 -0.1161 -0.0646  0.3966
22815W        W65728  25.055   2.861   7.327  0.1863  0.2467  0.0027
22816W        W65729  24.352  18.287   2.749  0.1363  0.0875 -0.2057
22817W        W65730  16.316  10.053  29.561 -0.0197 -0.0243  0.0303
22818W        W65731  28.335  17.241   5.608  0.1088 -0.3826 -0.0353
22819W        W65732  10.758  16.743   7.427 -0.0719 -0.1740 -0.2278
22820W        W65733  23.208  12.694  20.884  0.0928 -0.1234  0.0790
22821W        W65734  21.413  16.540   0.311 -0.1090  0.0500 -0.1508
22822W        W65735  18.734   0.800   2.936 -0.1684 -0.2349 -0.2091
22823W        W65736  19.344  11.233   1.808  0.1596 -0.0735 -0.1974
22824W        W65737  15.423   8.321   7.548  0.1559 -0.0516 -0.2184
22825W        W65738  32.687  22.308  27.903 -0.3286  0.4735  0.0866
22826W        W65739  12.527  32.940   4.077  0.2242  0.0897  0.0384
22827W        W65740  29.256  21.804  21.059  0.0995 -0.4750  0.2542
22828W        W65741  27.971   7.664  27.874  0.1395  0.0753  0.1207
22829W        W65742  33.684  21.684   0.148 -0.1837 -0.1376  0.0217
22830W        W65743  26.551  11.274   6.350 -0.1070  0.1780 -0.1729
22831W        W65744  13.679  22.281   6.026 -0.0653  0.4012 -0.1093
22832W        W65745  17.128  14.731  27.142  0.0460 -0.2087  0.1635
22833W        W65746  17.659   6.465   7.379  0.0138  0.0819 -0.0058
22834W        W65747  14.469   2.226   2.328 -0.0265  0.1518 -0.1015
22835W        W65748  18.834  13.373  25.554  0.0924 -0.1100  0.0941
22836W        W65749  24.486  13.307   1.911 -0.0747 -0.2754 -0.0881
22837W        W65750  24.729  16.512  29.140  0.3459 -0.1749  0.0263
22838W        W65751  16.335   2.402  15.899  0.0557 -0.2320  0.0423
22839W        W65752  27.419   6.618   4.587  0.3343 -0.3292  0.0240
22840W        W65753  28.289  14.514   0.094  0.1483  0.1670  0.3807
22841W        W65754  34.047  18.164   2.043  0.3406  0.2443 -0.0533
22842W        W65755  32.342   1.804   7.711  0.1093 -0.0003 -0.0139
22843W        W65756  20.949   8.506  24.880 -0.2560 -0.3393 -0.0541
22844W        W65757  24.245  16.561   9.227  0.2519  0.1869 -0.0240
22845W        W65758  18.847  11.048  25.144  0.2269  0.2368  0.1660
22846W        W65759  28.318  14.494  24.754 -0.2945  0.2536  0.3939
22847W        W65760  24.294   7.975   3.717 -0.1669  0.1279  0.1168
22848W        W65761   2.367  10.737   9.443  0.1636  0.1013  0.1593
22849W        W65762  14.645  32.260  11.555 -0.1010  0.2214  0.3737
22850W        W65763  21.087  16.333   2.235 -0.0509  0.2441 -0.0389
22851W        W65764  18.524  12.297  21.989  0.2456  0.6237 -0.2285
22852W        W65765  18.136  23.633   7.094 -0.0138 -0.3474  0.0004
22853W        W65766   6.048  12.802   2.359  0.1075 -0.3208  0.0070
22854W        W65767  22.841   2.402   6.963  0.2081 -0.1748 -0.0912
22855W        W65768  18.947   7.336   5.199 -0.0387 -0.1556  0.2382
22856W        W65769  24.655   6.221   2.750  0.2378 -0.0253 -0.0871
22857W        W65770  21.200  18.903   8.614  0.5392 -0.2002  0.1489
22858W        W65771  21.561  16.397   7.322  0.0385 -0.1884 -0.1914
22859W        W65772  21.038  16.529   5.575 -0.1190 -0.4184 -0.1906
22860W        W65773  17.864  14.406   6.370 -0.0120 -0.3581  0.1276
22861W        W65774  26.502   8.357  27.235  0.1003  0.3929  0.3570
22862W        W65775  23.731  12.976   3.151 -0.0079  0.0409 -0.3081
22863W        W65776   6.562  19.497  25.842 -0.2551  0.0652  0.5074
22864W        W65777  22.107  21.504   7.871  0.0157  0.1740 -0.2698
22865W        W65778  23.051   2.186   0.201 -0.0272 -0.0408  0.0770
22866W        W65779  30.467  18.962   5.461 -0.1178 -0.0310  0.0748
22867W        W65780   5.546  12.632   4.512 -0.0999  0.0921 -0.4251
22868W        W65781  17.457   7.561   2.897 -0.1992  0.2947 -0.0672
22869W        W65782  28.752  18.246   0.182  0.3822 -0.0277  0.1673
22870W        W65783  27.147  17.480   3.384  0.1869 -0.2186 -0.0592
22871W        W65784  27.195  13.151   4.916  0.0393  0.0908 -0.0269
22872W        W65785  25.898   9.789   9.365 -0.5490  0.0757  0.1995
22873W        W65786  32.540   8.757  28.968  0.0667  0.2044  0.0350
22874W        W65787  16.252  27.786  11.105  0.0976 -0.0644  0.0619
22875W        W65788  29.296   9.017  10.046 -0.1849 -0.2396  0.4447
22876W        W65789  19.945  15.533   1.331  0.0060 -0.1944 -0.0735
22877W        W65790  27.587  11.463   8.307 -0.0389  0.0417  0.1043
22878W        W65791  18.507  19.295   0.537 -0.2298 -0.1008  0.2078
22879W        W65792  31.688  24.854   4.516 -0.0031 -0.0149  0.3238
22880W        W65793  13.703  26.275   5.880 -0.1046 -0.1698  0.3668
22881W        W65794  18.220  12.252   8.161  0.2934  0.1853  0.1807
22882W        W65795  24.156   8.271  17.908  0.0065  0.2670  0.0946
22883W        W65796  15.805   9.294  19.018 -0.0709  0.1097  0.2862
22884W        W65797  26.546  12.581   1.394  0.0651 -0.2447 -0.0865
22885W        W65798  24.514   6.808   5.738 -0.0318  0.0052  0.6112
22886W        W65799  25.843  12.251   8.084 -0.0511 -0.1902 -0.0239
22887W        W65800  26.561   7.166   7.936  0.0823 -0.0364 -0.0460
22888W        W65801  24.217   2.796   6.630 -0.1000 -0.1035 -0.0140
22889W        W65802  23.773   8.195   8.614 -0.0668 -0.1070  0.0397
22890W        W65803  18.619  18.508   3.299 -0.0954  0.1319 -0.2709
22891W        W65804  19.274  15.105   5.506  0.0709  0.0174  0.0109
22892W        W65805  17.323   5.556   7.722  0.3064  0.2276 -0.0407
22893W        W65806  23.217   2.236   4.967  0.0065 -0.1596 -0.0157
22894W        W65807  26.897   8.844   1.848  0.2343  0.1208  0.4398
22895W        W65808  14.287  25.281   7.193 -0.4900 -0.2491 -0.1514
22896W        W65809  25.795  11.617  23.423  0.1453 -0.2230 -0.1337
22897W        W65810  18.584  16.675   4.016 -0.1312 -0.1055  0.3038
22898W        W65811   2.765   8.984   8.133  0.4456  0.3005 -0.0704
22899W        W65812  20.995   9.446   3.162  0.0520 -0.0342 -0.3070
22900W        W65813  27.709   4.008   6.334 -0.0718  0.0053  0.0425
22901W        W65814  29.896  14.905  29.481  0.1387 -0.0098  0.0182
22902W        W65815  22.073  15.069   8.484 -0.1808 -0.2927 -0.0035
22903W        W65816   9.024   5.274   7.594  0.0221 -0.0952 -0.2823
22904W        W65817  19.431   0.430   7.707 -0.1414 -0.0425 -0.0157
22905W        W65818  23.774   1.728  23.097  0.2439  0.1296  0.0785
22906W        W65819  32.282  10.333  22.088  0.0438 -0.2480  0.1341
22907W        W65820   6.411   5.586   3.801  0.1258  0.0311 -0.1576
22908W        W65821  21.675  12.736   5.198  0.0423 -0.1875 -0.0374
22909W        W65822  24.468   5.239   6.593 -0.0043  0.1252 -0.0623
22910W        W65823  13.905   7.123   7.341 -0.3660  0.1345  0.0164
22911W        W65824  31.539  11.947   6.964  0.0638  0.0770  0.0558
22912W        W65825   4.785   7.538   8.667 -0.1010 -0.3410  0.2346
22913W        W65826  13.756  17.246   4.784  0.0502 -0.1874 -0.0773
22914W        W65827  22.070   9.302   6.043 -0.3010 -0.0726 -0.0007
22915W        W65828  13.976  24.655  10.011  0.3231 -0.1398 -0.0466
22916W        W65829  18.007  19.258   3.359  0.1638  0.3243  0.0163
22917W        W65830  23.234   0.424   6.978  0.1146  0.0439 -0.0569
22918W        W65831  31.289   9.913   6.978 -0.3869  0.0625  0.2890
22919W        W65832  22.756   9.290   5.539 -0.0890  0.0387  0.0578
22920W        W65833  20.413  12.633   8.639  0.1035 -0.0830 -0.0768
22921W        W65834  25.394   7.220  29.669 -0.2479 -0.0063 -0.3255
22922W        W65835  26.770   7.394   7.169  0.1715  0.0734 -0.0336
22923W        W65836  16.447   8.474  24.763  0.1766  0.1867 -0.0717
22924W        W65837  19.917   4.449  28.900  0.0901  0.1010  0.0256
22925W        W65838   4.052  14.029   3.578  0.2016 -0.1969  0.2510
22926W        W65839  22.073  10.324  29.007  0.1194 -0.1943  0.1778
22927W        W65840  19.609  11.514  28.351 -0.0938  0.0466 -0.1046
22928W        W65841  23.707  10.922   4.445  0.0245 -0.0852  0.1421
22929W        W65842  24.110   4.749   5.348  0.1771  0.2232 -0.1169
22930W        W65843  27.255  18.430   7.189  0.1403  0.5705  0.2378
22931W        W65844  21.129   1.553   7.544  0.1572 -0.2773  0.2132
22932W        W65845  28.501   7.184  27.807 -0.0858  0.1956  0.1979
22933W        W65846  23.629   9.972   6.544 -0.0987  0.2369  0.0393
22934W        W65847   1.333   8.363  24.998 -0.0176  0.5217  0.1278
22935W        W65848  27.103  21.103   7.862 -0.1453 -0.0557 -0.2125
22936W        W65849  16.659  10.704   1.129 -0.1261  0.1165 -0.4169
22937W        W65850  20.455  14.653   0.646 -0.3044  0.0372 -0.0126
22938W        W65851  10.246  12.185   9.855 -0.0445  0.0985  0.1226
22939W        W65852  12.597  13.526   7.667 -0.3294  0.2615 -0.0028
22940W        W65853  28.457   7.290  29.153  0.1029  0.1432 -0.0638
22941W        W65854  28.561  12.963   3.437 -0.1900 -0.4520  0.0800
22942W        W65855  25.082   6.942   4.023  0.2011 -0.0150  0.1223
22943W        W65856  18.965  10.271   6.768 -0.0547 -0.2168 -0.3320
22944W        W65857  13.613   4.727   1.157 -0.1460  0.1685 -0.2447
22945W        W65858  19.108  22.725   7.603  0.0212 -0.1730 -0.0863
22946W        W65859  14.194  11.520   5.138 -0.3273  0.2787 -0.0979
22947W        W65860  24.745  22.802  20.640  0.1290  0.2389  0.1799
22948W        W65861  19.475   7.207  27.320  0.0319 -0.0392  0.0493
22949W        W65862  30.395  14.676   5.554  0.1536  0.0284 -0.1243
22950W        W65863  13.189   5.056  11.012  0.0559  0.2325  0.3836
22951W        W65864  28.522  18.487  26.869  0.4061  0.2656 -0.1560
22952W        W65865  18.932   7.681   1.614  0.2067 -0.4983 -0.2695
22953W        W65866  22.243   8.782  27.205  0.1308 -0.3954  0.0846
22954W        W65867  32.515  12.108   5.258 -0.0603  0.1551  0.2592
22955W        W65868  16.213  20.254   2.710 -0.1902  0.1325  0.0232
22956W        W65869  19.086  17.925   8.496  0.0115  0.3152  0.1284
22957W        W65870  18.442   8.181  25.566 -0.3518 -0.1926  0.0451
22958W        W65871  24.260   6.452   6.524 -0.0533 -0.0301  0.2187
22959W        W65872  16.215   8.193   8.754 -0.3372  0.0898 -0.0449
22960W        W65873  27.486  20.572  17.565 -0.2939 -0.1465 -0.0005
22961W        W65874  20.208  14.557   5.319 -0.2298  0.0350  0.0762
22962W        W65875  26.027  21.434  23.388 -0.3258 -0.0305  0.1316
22963W        W65876  22.080  16.114   8.114 -0.2522 -0.0076  0.0598
22964W        W65877  11.721   2.365  11.379  0.0235  0.2024  0.3364
22965W        W65878  14.861   8.453   2.555 -0.3499  0.3328 -0.1671
22966W        W65879  20.276  16.190   7.142  0.0928  0.2178  0.3438
22967W        W65880  23.281   8.326   9.703 -0.3192 -0.0853 -0.1857
22968W        W65881  17.593   8.561   1.298 -0.1743 -0.0164 -0.0652
22969W        W65882  21.437  11.397  28.633 -0.1835  0.0344  0.1058
22970W        W65883  25.686  17.228   3.790 -0.0576 -0.0285  0.0442
22971W        W65884  16.309  16.835  22.549 -0.1344  0.3023  0.0388
22972W        W65885  32.587   8.905   0.609 -0.0434  0.1413 -0.1743
22973W        W65886  32.104  15.412   4.174  0.1166  0.1892  0.0189
22974W        W65887  29.276  18.299   8.328 -0.3383 -0.3913  0.0899
22975W        W65888  19.415  17.626   7.403 -0.2918  0.0683 -0.2769
22976W        W65889  22.817  32.877   7.467  0.1422  0.3799  0.0996
22977W        W65890  14.058   7.116   6.499  0.1355 -0.3449 -0.1196
22978W        W65891  27.681  16.357   0.694  0.3612 -0.0388  0.1704
22979W        W65892  31.110  13.535  29.453 -0.4849 -0.0400  0.2386
22980W        W65893  29.057  16.769   0.682  0.0517 -0.2306 -0.1119
22981W        W65894  23.911  15.219   4.077 -0.2967  0.1056  0.2257
22982W        W65895  20.372  22.036   3.953  0.2378 -0.0018 -0.3661
22983W        W65896  23.432  10.643   4.115  0.0064  0.1444 -0.1576
22984W        W65897  19.217   3.217   0.575 -0.3269 -0.0267  0.4300
22985W        W65898  28.791  16.105   7.260  0.0803  0.0145  0.0555
22986W        W65899   9.379  23.565   3.106 -0.0040  0.1541 -0.1497
22987W        W65900  18.860  11.632   0.801 -0.0899 -0.1614 -0.1081
22988W        W65901  32.359   0.591  25.581 -0.2071  0.0195 -0.4320
22989W        W65902  26.528  16.658  21.052 -0.0089  0.0455 -0.0844
22990W        W65903  26.812  16.145   7.337  0.1692 -0.2425  0.1358
22991W        W65904  30.292  17.050   6.918 -0.0886 -0.0876 -0.1155
22992W        W65905  15.840  23.046  28.242 -0.4533 -0.0416  0.1004
22993W        W65906  15.043   7.731  29.262 -0.3057 -0.0566  0.1251
22994W        W65907   5.813  33.226   8.711 -0.0556 -0.0452  0.3717
22995W        W65908  13.359   5.978   9.695 -0.3410 -0.1776 -0.0082
22996W        W65909  29.205   7.578   7.078  0.1744  0.0231  0.0237
22997W        W65910  18.873   5.968   3.889  0.0099  0.0877  0.0929
22998W        W65911  27.122  12.369   8.720  0.0795 -0.1794  0.0713
22999W        W65912  23.831   2.575   4.782 -0.2052 -0.0457  0.3768
23000W        W65913  20.100  13.631   6.471 -0.1573 -0.0946 -0.0465
23001W        W65914  25.561  12.673   7.429 -0.0161  0.2392  0.0715
23002W        W65915  29.858   5.812   6.409 -0.2017  0.0050 -0.1322
23003W        W65916  25.284  12.075  10.391  0.0296  0.1213 -0.1706
23004W        W65917  27.167  17.776   0.698 -0.0327 -0.1214  0.1770
23005W        W65918  27.495  10.306  27.690  0.1688  0.3876  0.0810
23006W        W65919  20.237  14.021  29.598  0.2315  0.1329 -0.2403
23007W        W65920  28.252   9.459  27.836 -0.0076 -0.0185 -0.3815
23008W        W65921  30.005   8.562   6.556  0.0666  0.0431 -0.0080
23009W        W65922  28.197   2.492   7.879 -0.0565 -0.0880 -0.0827
23010W        W65923  34.254  11.856  28.517  0.0387  0.3026 -0.2072
23011W        W65924  15.567   4.133   4.208  0.2585 -0.1548 -0.2829
23012W        W65925  23.063  10.334   5.810 -0.0383 -0.1139 -0.0503
23013W        W65926  26.700  33.639   4.536  0.0091 -0.1509 -0.1905
23014W        W65927  12.611  19.344   4.636 -0.1333 -0.0416 -0.0131
23015W        W65928  18.211   2.934   9.090  0.0830 -0.0850  0.4227
23016W        W65929  18.548  12.355   2.499  0.2182  0.4032 -0.0455
23017W        W65930  12.737  18.831   6.887  0.1953 -0.1765 -0.0827
23018W        W65931  19.909   8.711   9.183 -0.0406  0.0492  0.1280
23019W        W65932  25.553  14.188   0.666  0.1185 -0.2062  0.1734
23020W        W65933  25.400  10.602  15.555 -0.0819 -0.3100 -0.1688
23021W        W65934  17.983  14.451  24.580 -0.1609 -0.2549 -0.0646
23022W        W65935  32.955  17.660   2.217  0.0309  0.0523  0.3039
23023W        W65936  18.404  11.341  26.627 -0.0415  0.1605 -0.2190
23024W        W65937  21.152  14.450   6.388  0.0884 -0.1266 -0.1588
23025W        W65938  13.228  20.433  13.861  0.3827 -0.1165 -0.0342
23026W        W65939  25.013  19.470   8.161  0.0749  0.1188 -0.1210
23027W        W65940  28.022  20.717  21.110  0.0792 -0.3126  0.3158
23028W        W65941  25.151  18.799  25.485  0.0212 -0.1943  0.0616
23029W        W65942  21.011   9.752   7.066 -0.0784 -0.1504 -0.0525
23030W        W65943  31.850  14.848   2.896 -0.4761 -0.2420 -0.0531
23031W        W65944  14.275   2.554  26.126 -0.1771  0.1006  0.0078
23032W        W65945  10.155  11.347   4.864  0.0214 -0.2585  0.0856
23033W        W65946  17.550   8.711   3.911 -0.0824 -0.1864 -0.3260
23034W        W65947  17.367  11.253   6.759 -0.3183  0.2017  0.0213
23035W        W65948  18.441   9.193   8.175 -0.4021  0.1788 -0.2605
23036W        W65949  16.743  26.914  25.416  0.0144 -0.1297  0.1564
23037W        W65950  13.151   8.728   9.715  0.1679 -0.0657  0.3639
23038W        W65951   0.462  15.764   8.777 -0.1054  0.1276 -0.0039
23039W        W65952  22.480   6.113   4.710  0.2102 -0.1185  0.2223
23040W        W65953  16.898  30.148   2.206 -0.3655  0.0921 -0.0711
23041W        W65954  26.585   7.235   1.225 -0.2917 -0.4320 -0.1474
23042W        W65955  24.598  10.205   8.896 -0.3857  0.1735 -0.1515
23043W        W65956  25.981  11.292   4.778  0.1970 -0.5988 -0.0190
23044W        W65957  17.529  34.201  25.786 -0.0036 -0.3251 -0.1380
23045W        W65958  21.338  11.890  28.348  0.0448  0.3129  0.0141
23046W        W65959  27.917  15.900   6.811 -0.1633 -0.0332 -0.2018
23047W        W65960   5.364  17.268   8.768  0.2741  0.3176 -0.0299
23048W        W65961  26.749  19.428   5.891 -0.0281 -0.1622 -0.1269
23049W        W65962  28.513  12.293  25.233 -0.0218 -0.0249 -0.1972
23050W        W65963  22.892   5.989   4.330  0.0820 -0.1473 -0.1956
23051W        W65964  24.791  16.326   3.351  0.1350 -0.3860  0.1727
23052W        W65965  15.760  19.953   6.552  0.0162  0.1177  0.1342
23053W        W65966  21.517  12.255  29.059 -0.0686  0.1497  0.1915
23054W        W65967  25.035   8.080  27.872 -0.0465  0.4047 -0.3159
23055W        W65968   5.360   7.349   5.201  0.0848  0.2507 -0.0031
23056W        W65969  23.513   2.913   3.927 -0.0437  0.0476 -0.0580
23057W        W65970  12.186  11.747  26.416 -0.3043 -0.1009  0.1518
23058W        W65971  19.203  14.786  20.480  0.1614  0.2530 -0.2015
23059W        W65972  27.742  19.997   6.631 -0.2118 -0.2409  0.0443
23060W        W65973  11.306   7.601  10.743  0.1261 -0.2153  0.2651
23061W        W65974  33.065  12.782   7.184  0.2702 -0.1682  0.0171
23062W        W65975  20.863  15.433  28.058  0.1925 -0.0986 -0.3426
23063W        W65976  26.683   7.084   4.061  0.0248  0.0665  0.0112
23064W        W65977  20.121  12.798  28.602  0.1435  0.0460 -0.3737
23065W        W65978  19.555  18.678  26.686  0.1101 -0.2336  0.0306
23066W        W65979  26.047   4.799   7.984  0.0649  0.0100 -0.0801
23067W        W65980  10.914  25.859   5.328  0.0769 -0.0960 -0.0876
23068W        W65981  22.511  33.789   5.390  0.2592  0.0192 -0.0129
23069W        W65982  19.961  12.320  27.017  0.1058  0.1537 -0.0497
23070W        W65983  26.586  25.270   8.020  0.2447 -0.1741  0.0259
23071W        W65984  18.713  12.290   4.905 -0.2723 -0.0007 -0.0480
23072W        W65985  24.180  11.951   2.406 -0.0150  0.1139  0.4548
23073W        W65986  32.178  12.455   8.553 -0.2085  0.0016  0.1132
23074W        W65987  19.937  14.228   5.703  0.0136  0.5059  0.0026
23075W        W65988   0.331   8.001   3.399 -0.0770 -0.1748  0.1156
23076W        W65989   4.325   6.700   5.883 -0.0531  0.1631 -0.2153
23077W        W65990  25.507   3.075   1.292 -0.0770  0.0146 -0.3083
23078W        W65991  23.575   7.641   9.266 -0.1480  0.3299 -0.0402
23079W        W65992  21.972  17.556  19.726  0.2973 -0.1943 -0.2753
23080W        W65993  19.553  10.048  26.454  0.3235 -0.0443 -0.4822
23081W        W65994  25.935  13.863   4.114 -0.0721 -0.2568 -0.1584
23082W        W65995  22.045  15.268   6.987 -0.0449  0.1230  0.0825
23083W        W65996  23.711  33.561   7.858  0.1598  0.3108  0.1525
23084W        W65997  20.169  20.090   2.273  0.3125  0.3638 -0.1117
23085W        W65998  29.699  34.210   0.248 -0.2253 -0.0283  0.2532
23086W        W65999  26.691   6.093   0.517 -0.0371  0.3569 -0.1137
23087W        W66000  20.118  13.133  26.217 -0.0422 -0.2903  0.0900
23088W        W66001  11.328  11.246   3.825 -0.2393 -0.4081 -0.2719
23089W        W66002  21.254   2.705   8.352  0.0302 -0.3581 -0.1699
23090W        W66003  22.042   7.416   2.173 -0.2734  0.2218 -0.1510
23091W        W66004  33.048  11.556   5.957  0.1468 -0.0236 -0.2256
23092W        W66005  19.181   6.532  28.438 -0.1716  0.2543 -0.1456
23093W        W66006  21.144  15.215  23.975 -0.3091  0.0951 -0.1876
23094W        W66007  25.855  18.190   0.648 -0.2527 -0.2372  0.5308
23095W        W66008  32.772   8.099   8.735 -0.2493  0.0266 -0.1168
23096W        W66009  24.663  19.698   3.908 -0.3528  0.0129 -0.0436
23097W        W66010  27.478  12.922   9.777 -0.0719  0.0415  0.0187
23098W        W66011  20.828  16.459   5.162  0.3018  0.0000 -0.0144
23099W        W66012  22.555  11.754  23.612 -0.0889 -0.3979 -0.0044
23100W        W66013  27.244  10.969   9.607  0.3337 -0.1644 -0.2359
23101W        W66014  23.252  13.951   5.690 -0.1384  0.3409 -0.3077
23102W        W66015  23.970  17.879   3.568 -0.0265 -0.2831  0.2889
23103W        W66016  20.026  11.404   0.902  0.2635  0.2197 -0.0165
23104W        W66017  29.279  12.914  10.075 -0.0240  0.0093  0.0644
23105W        W66018  13.234   8.135  25.654  0.1626  0.0132  0.0173
23106W        W66019  21.049  10.196  25.539  0.1318 -0.3525 -0.1894
23107W        W66020  22.602   8.311   0.300 -0.4133  0.1505 -0.1523
23108W        W66021  27.815   5.302   4.564  0.2307  0.0743  0.3140
23109W        W66022  20.284  14.472   1.996 -0.1110  0.3679  0.0529
23110W        W66023  33.585  20.837   3.597 -0.0846 -0.1827  0.2368
23111W        W66024  15.904   6.258  28.627  0.2199  0.0352 -0.0048
23112W        W66025  22.764   9.630  22.421 -0.1648 -0.2314 -0.1271
23113W        W66026  24.818  15.991   7.287  0.1094  0.1875  0.0169
23114W        W66027  17.263  13.808   8.035 -0.1655 -0.5882  0.0161
23115W        W66028   4.327  12.144   2.039 -0.5239 -0.1896  0.0501
23116W        W66029  13.542  14.883   3.895 -0.1323  0.3475  0.2249
23117W        W66030  24.829  33.846   6.836 -0.0780  0.1215 -0.0840
23118W        W66031  17.418   8.236   9.555 -0.2283 -0.1108 -0.1024
23119W        W66032  30.739  13.532  24.412 -0.0597 -0.4270  0.1292
23120W        W66033  14.723  14.491   0.044 -0.1885 -0.2452  0.3265
23121W        W66034  12.081   7.194   1.109 -0.1427 -0.1743  0.3415
23122W        W66035  16.148  34.162  25.541 -0.0030 -0.2198 -0.0900
23123W        W66036  14.706  16.275   2.660 -0.0080  0.4054  0.3911
23124W        W66037  25.711  12.858   6.278  0.1476 -0.1229 -0.2835
23125W        W66038  24.514  22.487   7.843  0.3150  0.0276  0.2109
23126W        W66039  29.225  19.671  29.125  0.1571  0.1133 -0.1068
23127W        W66040  23.686  14.117  28.997 -0.0422 -0.0392  0.2711
23128W        W66041  17.262  17.533   1.626 -0.0696 -0.1015  0.1722
23129W        W66042  21.206  14.990   8.317  0.0571  0.5018  0.2268
23130W        W66043  12.081  18.718   5.096 -0.1236  0.0126  0.0115
23131W        W66044  25.331  14.299   1.521 -0.0515  0.4431  0.0104
23132W        W66045  10.280   8.637   8.224 -0.1630  0.0523 -0.0947
23133W        W66046  11.808   9.319   7.063  0.0650 -0.3500  0.0561
23134W        W66047  25.738  12.336   7.101 -0.1829 -0.0743 -0.2064
23135W        W66048  20.486  15.014   6.079  0.2835 -0.1028 -0.0055
23136W        W66049  24.431  13.017   7.504  0.0097 -0.1012 -0.0329
23137W        W66050  34.443   6.238   0.140 -0.2690  0.0448 -0.1397
23138W        W66051  30.358   4.331   3.745 -0.1756 -0.1813 -0.3825
23139W        W66052   0.733  19.408   2.690 -0.1096 -0.0487  0.0601
23140W        W66053  23.725  15.654   4.778 -0.3566  0.5031 -0.1344
23141W        W66054  20.994   8.993   5.221  0.2704  0.1297  0.2413
23142W        W66055  18.616   6.919   2.936 -0.1282  0.0806  0.0561
23143W        W66056  17.574  17.761  25.010 -0.0787  0.1363 -0.3474
23144W        W66057  16.080  25.915   7.402 -0.0099  0.0412 -0.0276
23145W        W66058  24.510  12.754   2.134  0.1328  0.0551 -0.1496
23146W        W66059  23.296  15.712   4.510  0.2349  0.0046 -0.2290
23147W        W66060  32.750  10.682   7.526  0.3267  0.3133 -0.1266
23148W        W66061  15.997  21.482  27.253  0.0755 -0.0266  0.2023
23149W        W66062  31.945  10.705   5.293 -0.0223  0.0100  0.0828
23150W        W66063  24.200  14.131  28.774  0.1097 -0.3369  0.2429
23151W        W66064  26.444  18.846   8.105 -0.0536 -0.0368  0.0136
23152W        W66065  20.549   9.845   3.848 -0.2333  0.0426 -0.2019
23153W        W66066  14.130  17.603  25.558 -0.0512  0.2526  0.1118
23154W        W66067  19.080  20.911  27.718 -0.0016  0.0165  0.3616
23155W        W66068  26.410  13.719   7.593 -0.2893 -0.0313 -0.2177
23156W        W66069  17.727   9.083   7.723  0.2623  0.3534  0.4379
23157W        W66070  16.119  10.193  25.483  0.0886 -0.1238  0.1611
23158W        W66071  30.190  19.246   2.857  0.1864 -0.1805 -0.0322
23159W        W66072  16.560   6.769   3.579  0.2091 -0.4607 -0.1644
23160W        W66073  25.235  11.786   4.194 -0.1973 -0.1569 -0.1047
23161W        W66074  24.700  15.474   7.206  0.1793  0.2762 -0.0270
23162W        W66075  33.737  12.154   6.200  0.1087 -0.0714 -0.1853
23163W        W66076  17.382   7.578  27.240  0.1000 -0.1889 -0.1305
23164W        W66077  20.721  15.133   9.195 -0.1688  0.0395 -0.0311
23165W        W66078  21.044  15.436   6.829 -0.0961  0.2116  0.1410
23166W        W66079  23.506  13.337   0.360 -0.0231 -0.1661 -0.1301
23167W        W66080  27.821  11.874   9.390 -0.0946  0.1969 -0.2393
23168W        W66081  28.170  11.888   0.595 -0.0246 -0.5738  0.0667
23169W        W66082  27.108   8.246   2.737  0.2292 -0.0723  0.2814
23170W        W66083  24.107   9.070   8.053 -0.1293  0.1172 -0.1713
23171W        W66084  18.327  15.831  27.842  0.4393 -0.1749  0.2398
23172W        W66085  29.625   7.932   1.082  0.1675  0.2843  0.2601
23173W        W66086  21.405  14.119  26.077 -0.0095 -0.0123 -0.0367
23174W        W66087  25.406  12.863   9.320  0.2221  0.1982 -0.1113
23175W        W66088  24.594  17.650   9.487 -0.3504 -0.0137  0.2591
23176W        W66089  32.731  19.977   4.917 -0.0083  0.1299 -0.0096
23177W        W66090  30.506   8.087   8.106 -0.3875  0.0178 -0.2273
23178W        W66091  15.607  33.339   5.627 -0.0240 -0.0751  0.0215
23179W        W66092  22.657  31.129   7.402 -0.1443 -0.1349  0.0672
23180W        W66093  26.705   8.278  16.646  0.0964 -0.0128 -0.0873
23181W        W66094  27.992  15.074   6.369 -0.1401  0.2168  0.2441
23182W        W66095  23.297   9.726   2.144 -0.5052 -0.4092  0.2234
23183W        W66096  20.625  33.248   2.151 -0.0255 -0.0355  0.1113
23184W        W66097  26.690  11.711   8.188 -0.0830  0.5687  0.2033
23185W        W66098  24.135   6.066   3.838  0.1537 -0.0233  0.1298
23186W        W66099  18.704  15.277   1.466 -0.0337 -0.1212  0.0338
23187W        W66100  29.510  18.054   7.385 -0.1556 -0.2919  0.1699
23188W        W66101  16.072  11.858   6.462 -0.0540  0.0766 -0.0715
23189W        W66102  23.254  13.367   7.830  0.0709 -0.1179 -0.2643
23190W        W66103  18.464  12.458   8.516 -0.0389  0.0057 -0.3407
23191W        W66104  27.990   8.932   7.684  0.2145  0.0775 -0.1870
23192W        W66105  17.491  15.479   3.900 -0.0251 -0.0079  0.0810
23193W        W66106  14.900   8.131   0.490 -0.0589 -0.0040  0.0132
23194W        W66107  30.304  18.103  24.284 -0.0304 -0.1868  0.1004
23195W        W66108  27.817  15.822   4.764  0.1832  0.1139  0.1064
23196W        W66109  20.728   7.425   7.160  0.0761 -0.1647  0.0239
23197W        W66110  29.850   8.556   7.081 -0.0006  0.0628 -0.1625
23198W        W66111  13.521  16.191   4.656  0.4542 -0.1425  0.0284
23199W        W66112  22.605  16.866   8.222 -0.1719  0.2123 -0.1965
23200W        W66113  21.864   8.801   8.953  0.0633  0.0155 -0.1639
23201W        W66114  18.954  33.717   4.817 -0.4341  0.1881 -0.1579
23202W        W66115  13.510  19.934   4.418 -0.1285  0.1526 -0.2462
23203W        W66116  17.367  14.237   6.701  0.1728  0.1499 -0.2124
23204W        W66117  24.799   9.882  28.417  0.0591  0.1209 -0.1807
23205W        W66118  26.069  10.762   8.783 -0.2475 -0.0425  0.0307
23206W        W66119  18.718  12.943   2.784 -0.0432  0.3423  0.2623
23207W        W66120  20.956  13.029   7.980 -0.3035 -0.1750 -0.1699
23208W        W66121  15.836  11.787  27.939  0.2415  0.2454 -0.0970
23209W        W66122  21.435   6.273  25.120 -0.2160  0.1434 -0.2222
23210W        W66123  17.585  14.963   3.262 -0.3924 -0.2739 -0.1887
23211W        W66124  17.492   4.252  10.458  0.0258  0.0997 -0.0924
23212W        W66125  25.931  30.660   3.506  0.0121 -0.1947 -0.0014
23213W        W66126  14.020  23.708   4.057  0.2881 -0.2376 -0.1448
23214W        W66127  19.823  12.590   4.792 -0.1727 -0.3441 -0.2405
23215W        W66128  23.420  12.594   7.131  0.2016  0.1091 -0.1561
23216W        W66129  32.096  15.015   5.517 -0.2092  0.0713  0.0074
23217W        W66130  25.794   6.897   8.215  0.2060 -0.1141  0.1150
23218W        W66131  13.398  12.964   3.307 -0.0497  0.2739 -0.1554
23219W        W66132  23.419  16.051   8.446  0.0027 -0.0757  0.0649
23220W        W66133  23.067   4.989  10.154  0.2958 -0.1953 -0.0563
23221W        W66134  15.117   7.649   6.024  0.1083 -0.1846  0.0498
23222W        W66135  13.215   0.657   7.373 -0.3735  0.0121 -0.1006
23223W        W66136  23.782  10.870   5.665  0.1361 -0.1933 -0.0458
23224W        W66137  33.944   8.507   5.331  0.0557 -0.0214  0.3456
23225W        W66138  29.149  13.210   7.593 -0.0406  0.0227 -0.4291
23226W        W66139  27.437  16.328   3.918  0.1218 -0.0489 -0.2636
23227W        W66140  31.115  10.482   9.883  0.0384  0.1110  0.0936
23228W        W66141  14.294   0.108   5.389 -0.1766 -0.2076  0.2054
23229W        W66142  18.823  14.197   5.543 -0.3529  0.3897 -0.1056
23230W        W66143  27.341   4.718  10.042  0.2616  0.3043  0.3618
23231W        W66144  26.183  19.863   3.510  0.0148  0.2545  0.1910
23232W        W66145  21.893  12.962  27.989 -0.0333 -0.0713 -0.0641
23233W        W66146  18.691  11.185  29.109  0.1075 -0.0056 -0.0878
23234W        W66147  22.832  19.833   7.899  0.0531  0.3616 -0.0344
23235W        W66148  25.608  10.364   4.561 -0.1624 -0.4419 -0.3122
23236W        W66149  27.430  19.054  28.091  0.1492 -0.0871 -0.0373
23237W        W66150  18.705  16.229  28.532 -0.1204 -0.1407 -0.0814
23238W        W66151  18.134  15.612   2.647 -0.0266 -0.1959  0.1674
23239W        W66152  19.175  10.829   8.126 -0.0049 -0.0762  0.1913
23240W        W66153  20.325  20.704   8.786  0.2613 -0.0667 -0.3794
23241W        W66154  14.319   5.360   2.276  0.0907  0.3845 -0.2498
23242W        W66155  33.548  16.620   5.662 -0.1043 -0.2899 -0.1340
23243W        W66156  31.521  13.988  27.128  0.4070  0.2221  0.3566
23244W        W66157  24.788  16.957   9.271 -0.1786  0.2160 -0.0586
23245W        W66158  14.098   9.549   0.410 -0.0049 -0.1342 -0.1385
23246W        W66159  31.489   7.861  10.951  0.0602 -0.2423 -0.1194
23247W        W66160   8.176  12.090   7.582 -0.1897  0.3028  0.1779
23248W        W66161  24.285  16.805   1.918 -0.0432  0.0003 -0.0159
23249W        W66162  18.071   5.536   4.761  0.0722 -0.0076  0.4296
23250W        W66163  20.513   7.594   0.109 -0.1091  0.0851  0.1354
23251W        W66164  25.164  12.244   6.227  0.0357 -0.3443 -0.0159
23252W        W66165  21.248  10.946   3.188  0.2648  0.0642  0.2109
23253W        W66166  26.176   8.955   3.305  0.0657 -0.2225 -0.0539
23254W        W66167  27.705  18.405   5.295  0.1258  0.0033  0.1846
23255W        W66168  24.571  12.817   7.968  0.2181  0.1112  0.0011
23256W        W66169  20.969  11.638  24.046 -0.0382 -0.3025 -0.1087
23257W        W66170  13.237  10.109   7.194  0.0335  0.0091 -0.0593
23258W        W66171  34.448  19.016   9.737 -0.1251 -0.1279 -0.1381
23259W        W66172  12.230  12.302   8.033  0.1082  0.2274  0.0186
23260W        W66173  29.020  11.962   3.412 -0.0811 -0.0115 -0.0195
23261W        W66174  27.009   4.315  10.219 -0.2052 -0.2681 -0.2739
23262W        W66175  17.447  10.030   6.154  0.1851  0.0788  0.0338
23263W        W66176  16.529   7.978   9.542 -0.0243 -0.0088 -0.1627
23264W        W66177  32.734   6.734   8.257  0.0333  0.0430 -0.1587
23265W        W66178  29.309  12.934   7.970 -0.0832  0.0266 -0.1764
23266W        W66179  25.865  12.809   0.243 -0.0464  0.1378  0.0614
23267W        W66180  24.681  16.396   8.521  0.1665 -0.0098  0.1742
23268W        W66181  32.896   4.980   5.077  0.0860  0.1827  0.1002
23269W        W66182  25.015  13.486   5.927 -0.2702  0.0385  0.2094
23270W        W66183  13.453  20.584   2.594 -0.3324 -0.0718 -0.0707
23271W        W66184  25.884  24.097  28.439  0.1400 -0.0960 -0.0330
23272W        W66185  22.610   6.434   5.602 -0.1925 -0.0890  0.0823
23273W        W66186  14.712   9.745  29.604  0.1317 -0.0141 -0.1363
23274W        W66187   2.614  10.875   7.699  0.2937 -0.2174 -0.1118
23275W        W66188  25.897   5.908   5.875  0.0147 -0.0446 -0.1730
23276W        W66189  29.457  13.662   2.383 -0.0763 -0.0754 -0.3387
23277W        W66190  31.059  10.973   4.968 -0.0068  0.0340 -0.2857
23278W        W66191  32.767   5.765  12.546  0.3758 -0.0367  0.0946
23279W        W66192  17.903   5.196   8.343 -0.1056  0.0670  0.0736
23280W        W66193   0.832   8.030   4.553 -0.2044  0.3037  0.4271
23281W        W66194  20.057  13.357   5.669 -0.3831  0.1188 -0.2408
23282W        W66195  24.958   3.800  29.164 -0.1369  0.1829 -0.0438
23283W        W66196  20.964   3.248  24.853 -0.2136  0.2069  0.0705
23284W        W66197   6.159  12.649   5.171 -0.1795  0.3266 -0.0749
23285W        W66198  28.180   8.951  10.960 -0.0622  0.1390  0.2833
23286W        W66199  32.241  23.933   5.854  0.0821 -0.0242  0.4321
23287W        W66200  26.797   6.574   7.367  0.1578  0.1433  0.0685
23288W        W66201  27.406  11.211   3.284 -0.1466 -0.0792  0.1944
23289W        W66202  31.802  34.362  27.092 -0.0611 -0.1868 -0.1238
23290W        W66203  22.138   5.363   8.637 -0.0025  0.0140  0.0593
23291W        W66204   3.938  10.696   5.423 -0.0008 -0.1141  0.1988
23292W        W66205  12.608   6.021   1.325 -0.2331  0.1038  0.3399
23293W        W66206   9.801  14.345   8.123 -0.0252  0.1403 -0.3174
23294W        W66207  28.107  22.856   7.305  0.2862 -0.1585 -0.2555
23295W        W66208  14.894  10.827   4.816  0.3329  0.1042 -0.1502
23296W        W66209  23.136  14.309   6.370 -0.3211 -0.1868 -0.0168
23297W        W66210  28.178  13.050   9.082 -0.1085  0.0115 -0.1922
23298W        W66211  22.040  19.818   8.511 -0.2734 -0.0023  0.0517
23299W        W66212  25.301   3.813   6.214  0.0784  0.1927 -0.1685
23300W        W66213  27.226  23.014   7.092  0.1397  0.0166 -0.0813
23301W        W66214  30.095  11.543   8.153  0.0904 -0.0286  0.3467
23302W        W66215  26.586  16.207   7.816  0.0812 -0.1779 -0.1938
23303W        W66216  23.523   5.641  26.448 -0.2724  0.3690  0.0104
23304W        W66217  28.409   8.071   8.888 -0.3596 -0.0399 -0.0753
23305W        W66218  30.455  32.763   3.606 -0.1404  0.1543  0.3149
23306W        W66219  27.390   4.407   7.696  0.1806 -0.3384 -0.1177
23307W        W66220  29.361  21.274   3.027  0.1689  0.2506  0.0998
23308W        W66221  21.471  10.864   1.434  0.0253  0.0478 -0.0108
23309W        W66222   3.981  11.291   9.027 -0.1860  0.2186 -0.1804
23310W        W66223   3.759   4.991   9.192 -0.0337  0.0944  0.1018
23311W        W66224  15.153   5.737  10.917 -0.1839  0.0250  0.0354
23312W        W66225  27.755   9.018   6.152  0.1164 -0.3719  0.1769
23313W        W66226  23.174   1.526   7.838 -0.1783 -0.0791 -0.4257
23314W        W66227  27.113  23.388  27.523  0.0721  0.2000 -0.1664
23315W        W66228  18.935  14.305   3.585 -0.0772 -0.0313 -0.1878
23316W        W66229  15.278  18.568  25.930  0.1293 -0.1023  0.1725
23317W        W66230  28.932  12.884   8.369 -0.0270 -0.0779  0.2000
23318W        W66231  22.524  12.708   9.008 -0.1392  0.0845  0.1877
23319W        W66232  25.454   2.545   0.811 -0.0587  0.0211  0.0606
23320W        W66233  28.265  22.171   1.986  0.1498 -0.0338  0.4675
23321W        W66234   1.245  12.835   9.476 -0.0718  0.0500  0.0044
23322W        W66235   7.684  16.017  29.386 -0.3719  0.2576  0.2444
23323W        W66236  18.384   3.453   8.771  0.0862 -0.1961 -0.2401
23324W        W66237  24.760   8.386   4.851  0.4040 -0.2319  0.1532
23325W        W66238  22.704  13.033  29.049  0.0139  0.1033 -0.5218
23326W        W66239  18.603   8.977   2.224  0.1966  0.2238 -0.0129
23327W        W66240  25.774   4.050   4.018  0.2612  0.2311  0.1235
23328W        W66241  30.249   7.596   7.714  0.2707 -0.1040  0.2410
23329W        W66242  20.380   7.669   6.756 -0.2937  0.1272 -0.0468
23330W        W66243  23.796   4.175   6.942 -0.0330  0.0809 -0.1717
23331W        W66244  23.041  17.532  28.018 -0.0330  0.1046 -0.0463
23332W        W66245  21.653  13.902   7.746 -0.0928 -0.1590 -0.0374
23333W        W66246  29.223  15.072   5.781 -0.2798 -0.0889 -0.5155
23334W        W66247  20.728  16.748   3.775 -0.0518 -0.3591  0.2057
23335W        W66248  32.572  13.462   0.523  0.1335  0.1837  0.0673
23336W        W66249  31.139  12.981   1.514  0.2423  0.3244 -0.2163
23337W        W66250  30.817  16.763   7.688 -0.1632 -0.1485 -0.1539
23338W        W66251  10.723  13.459   7.687 -0.2892 -0.2616  0.4028
23339W        W66252   4.167  21.164   6.917 -0.4367  0.1097 -0.1955
23340W        W66253  26.955  10.023   1.322 -0.1597 -0.1110  0.0605
23341W        W66254  27.569  26.880   8.136 -0.0221 -0.0442 -0.0236
23342W        W66255  27.657  10.243   8.904  0.1506  0.1970  0.1194
23343W        W66256  29.767   9.734   9.522 -0.0962  0.0286  0.0175
23344W        W66257   3.542   2.912   8.017 -0.0300  0.1919 -0.1342
23345W        W66258  34.116  15.185   8.913 -0.0845  0.2332 -0.2449
23346W        W66259  20.317   4.794   9.221  0.0425  0.2004 -0.2162
23347W        W66260   9.034  16.057   9.021 -0.0521  0.1709  0.0509
23348W        W66261  21.354   6.708   4.787 -0.0010  0.1946 -0.1662
23349W        W66262  21.739  15.973   0.167  0.1339 -0.2305 -0.4392
23350W        W66263  28.180  23.221   9.174  0.4362  0.1700  0.0656
23351W        W66264  18.907   8.069   7.680  0.0415  0.0786 -0.0128
23352W        W66265  28.942  16.966   9.206  0.3173 -0.2732 -0.0571
23353W        W66266  31.796   7.240  10.571  0.1008  0.0462 -0.0544
23354W        W66267  19.097   8.067   0.371  0.1363  0.4439  0.5223
23355W        W66268  23.099  13.124   6.040 -0.1305  0.1344 -0.1051
23356W        W66269  29.114  16.750   1.332 -0.1149  0.1828  0.2304
23357W        W66270  19.561  19.469   5.541 -0.0998  0.1963 -0.0812
23358W        W66271  23.855   9.005  29.093  0.0057  0.1462 -0.3801
23359W        W66272  14.756  10.952  25.131  0.2142 -0.0491  0.1049
23360W        W66273  20.656   3.020   7.141  0.0385 -0.1207 -0.1094
23361W        W66274  29.495  22.943   9.270  0.0489  0.1178 -0.1413
23362W        W66275  29.086  14.121   5.030 -0.1340  0.1010 -0.1258
23363W        W66276   9.592  15.768   4.375  0.0017 -0.0981 -0.0677
23364W        W66277   2.665  15.360   6.708  0.0039  0.2296  0.3800
23365W        W66278  18.936   2.637   0.093  0.0852  0.1395 -0.1779
23366W        W66279  26.005   8.837   5.820  0.2346  0.0680 -0.0974
23367W        W66280  20.212  18.319   6.472 -0.0873 -0.0859 -0.3738
23368W        W66281  17.650   4.704   4.639  0.1844 -0.0026  0.2036
23369W        W66282  27.029  12.874   8.804 -0.2093  0.2513  0.0455
23370W        W66283  14.263   6.909   8.975 -0.3351  0.1731  0.0526
23371W        W66284  24.320   2.541   8.891  0.0056 -0.2678 -0.1475
23372W        W66285  27.122  20.377   8.851 -0.2808  0.0331 -0.0805
23373W        W66286  23.315  12.283   4.089  0.0773  0.0433 -0.0271
23374W        W66287  23.259   3.207   9.846 -0.0454  0.0330  0.1916
23375W        W66288  33.221   2.505   5.237  0.1728 -0.3944 -0.1153
23376W        W66289  34.431   8.297   5.414 -0.3498  0.2500  0.1564
23377W        W66290  22.823  18.009   7.607  0.0182  0.0698  0.1911
23378W        W66291   2.328   4.699   1.217  0.6220  0.2962  0.1807
23379W        W66292  26.856  12.841   6.702  0.2786  0.1357  0.1962
23380W        W66293  22.337  26.685  25.704 -0.0230  0.2790  0.2507
23381W        W66294  32.801   2.348  10.049  0.1297  0.0563  0.0277
23382W        W66295  28.706   7.264  10.206 -0.2304  0.1157 -0.1781
23383W        W66296  25.562   6.440   8.039  0.2278 -0.1408 -0.0993
23384W        W66297   0.012   9.414   9.083 -0.1053  0.1135 -0.1762
23385W        W66298  29.382   3.038   4.318  0.4140 -0.0856 -0.0140
23386W        W66299  20.309  10.099   9.288 -0.1938 -0.0850 -0.2889
23387W        W66300  31.205   3.207  10.896 -0.4173 -0.1620  0.0358
23388W        W66301  28.963  18.021   4.929  0.2952 -0.0348  0.0761
23389W        W66302  26.106  31.080   1.501  0.3057 -0.0690  0.1177
23390W        W66303  29.366   5.607   7.531 -0.0235  0.1831 -0.1567
23391W        W66304  22.337   9.106   8.862 -0.1905  0.3848  0.0390
23392W        W66305   3.456   0.743   6.314  0.1603  0.2056  0.0442
23393W        W66306  15.861  15.603   0.751  0.1461 -0.3934 -0.0775
23394W        W66307  30.194   5.396   2.217 -0.0945  0.0506 -0.0436
23395W        W66308  29.627  11.837   6.202  0.0342  0.0509  0.0982
23396W        W66309  17.397   9.014   4.713  0.0415  0.4012  0.1406
23397W        W66310  27.995   4.923   6.122 -0.1294 -0.1080  0.0284
23398W        W66311  29.442   7.562  10.989 -0.0236  0.1187  0.3103
23399W        W66312  12.553  16.075   7.102 -0.1135 -0.0988 -0.0311
23400W        W66313  17.900  17.042  28.702 -0.0828  0.1438 -0.2159
23401W        W66314  27.157  14.606  25.386  0.0236  0.0131 -0.1883
23402W        W66315  28.308  13.862   9.092  0.1497  0.4566 -0.1016
23403W        W66316  22.554   9.395   6.011 -0.3774 -0.0831  0.2622
23404W        W66317  10.442  16.186   3.566 -0.0929  0.0894  0.1440
23405W        W66318  23.591   4.569   9.568 -0.1437 -0.2802 -0.1383
23406W        W66319  26.816   4.348   3.102  0.3626  0.1043 -0.0440
23407W        W66320  31.550  10.988  27.888 -0.0672  0.0684  0.0536
23408W        W66321  11.932  12.840   2.860  0.1213  0.0984 -0.0355
23409W        W66322  15.514  17.671   8.327 -0.1803  0.0375 -0.0528
23410W        W66323  30.021   9.225   4.964 -0.0345 -0.1341  0.2389
23411W        W66324  28.094   2.452   8.820 -0.1771  0.0941 -0.0168
23412W        W66325  14.902  31.978   3.620 -0.1484  0.3161 -0.2865
23413W        W66326  22.697   9.558   7.673 -0.0270 -0.4001 -0.0136
23414W        W66327  30.277  16.893   8.485  0.0782 -0.0601 -0.0655
23415W        W66328  33.408  13.295  10.267 -0.1101  0.2707 -0.0657
23416W        W66329   4.016   3.578  10.890  0.0283 -0.2100  0.2209
23417W        W66330  32.386   7.217   1.021  0.0243 -0.1206 -0.0970
23418W        W66331  27.738   8.204   8.149  0.3658 -0.0976 -0.1752
23419W        W66332  23.989   6.058   5.362 -0.5100 -0.0930 -0.1587
23420W        W66333  33.368  10.598   9.956  0.1401 -0.0786  0.0450
23421W        W66334  27.148  16.138   6.895 -0.0873  0.0823  0.1387
23422W        W66335  24.514  10.526   4.944  0.0145 -0.0639 -0.0115
23423W        W66336  27.908  14.962   7.728 -0.1591 -0.0436 -0.0202
23424W        W66337   6.708  15.461   8.635  0.1234  0.1757  0.2850
23425W        W66338  22.400   6.704   8.725  0.1713  0.0110  0.0337
23426W        W66339  33.590  12.903   4.745 -0.2655  0.1726  0.2343
23427W        W66340  14.565  15.087  28.601 -0.1160 -0.1671 -0.0679
23428W        W66341  20.368  15.670   7.446 -0.1314 -0.0748 -0.1266
23429W        W66342  34.088  10.743   5.328 -0.1593  0.0869  0.3644
23430W        W66343  16.357   5.353   5.195  0.1665 -0.1599 -0.1789
23431W        W66344  31.622  13.464   4.733  0.1528 -0.3494  0.0256
23432W        W66345  24.194  16.952   6.274 -0.0871  0.1327 -0.0468
23433W        W66346  29.579   0.488   7.123 -0.1719 -0.0686 -0.1034
23434W        W66347   0.751  12.902   6.953  0.2511 -0.1935 -0.2025
23435W        W66348  27.913   7.174   6.693 -0.1423 -0.0043  0.3035
23436W        W66349  24.277  26.162  28.391  0.1530 -0.2026 -0.1917
23437W        W66350  14.833  26.563   9.083 -0.0522  0.0373 -0.1572
23438W        W66351  28.774   9.334   7.341  0.0399  0.1006  0.2791
23439W        W66352  21.566  14.874   3.752  0.1825 -0.1691  0.2873
23440W        W66353  22.688  15.414   9.098 -0.0879  0.0501  0.0895
23441W        W66354  10.092   6.617   5.898 -0.1603 -0.0711  0.4035
23442W        W66355  33.755  15.929   0.875 -0.2625  0.2265 -0.0505
23443W        W66356  15.265  23.401   7.934 -0.1624 -0.1086  0.2379
23444W        W66357  27.215  11.682   1.606  0.2709 -0.0740  0.0298
23445W        W66358  16.104  16.978   2.325  0.2732  0.1137  0.3045
23446W        W66359  21.885  17.968  26.933  0.0874  0.2488 -0.1024
23447W        W66360  34.184  11.276   9.800 -0.1605 -0.3053 -0.0774
23448W        W66361  23.361  20.538  24.148  0.0689 -0.2129  0.1276
23449W        W66362   0.087  20.576   3.641  0.1602 -0.0608  0.0665
23450W        W66363  21.473   8.683   6.516  0.2004 -0.0516 -0.1455
23451W        W66364  30.507  20.344   1.606 -0.0597 -0.0395 -0.1846
23452W        W66365  30.192   5.908   2.273 -0.0840 -0.1611  0.2489
23453W        W66366  27.268  10.143   4.010 -0.2436  0.3007  0.0304
23454W        W66367  26.770   8.525   9.009 -0.0163  0.0018  0.4178
23455W        W66368  26.613  23.875  27.938 -0.4851  0.0812  0.2051
23456W        W66369  30.997   1.284  26.464 -0.0942 -0.1420 -0.0609
23457W        W66370  26.385  16.423   3.826  0.4148 -0.1887 -0.2390
23458W        W66371  34.196   4.738   5.435  0.3221  0.0906 -0.2818
23459W        W66372  18.375  16.092   7.918 -0.0483 -0.4811 -0.1432
23460W        W66373  24.752  14.009   7.054 -0.3789  0.2307  0.0069
23461W        W66374  18.694  10.218   5.162 -0.1622  0.2326 -0.0387
23462W        W66375  23.261  16.023   4.027  0.2071  0.1283  0.0322
23463W        W66376   1.136  10.203   1.652  0.1480 -0.0960  0.1362
23464W        W66377  26.800  23.088   9.246  0.0955  0.2496  0.1173
23465W        W66378  18.123  20.607   7.696  0.1850  0.3356 -0.0331
23466W        W66379  26.482  15.158   9.388 -0.1895 -0.2450 -0.2677
23467W        W66380  16.999   7.369   7.832 -0.0947 -0.0566 -0.3211
23468W        W66381  18.555  11.924   2.881  0.1182 -0.2032 -0.3614
23469W        W66382   4.617   3.724   9.426 -0.1112 -0.4563  0.1072
23470W        W66383  23.029  18.036   8.071 -0.3014 -0.0578  0.1035
23471W        W66384  31.868  13.825   4.482 -0.0733 -0.2250 -0.4876
23472W        W66385  19.983  18.137  25.599  0.0501  0.1431  0.0844
23473W        W66386  14.014   8.452  19.901 -0.1893 -0.2383  0.0178
23474W        W66387  20.963  15.856   6.276  0.2968 -0.0137 -0.0946
23475W        W66388  21.039   6.604   4.396 -0.3623  0.0522 -0.1515
23476W        W66389  34.045   6.136   8.689  0.1602 -0.0177  0.2654
23477W        W66390   9.803   4.559   1.257 -0.1917  0.1632 -0.0898
23478W        W66391  26.287   3.094   8.478  0.0914  0.1189  0.1338
23479W        W66392  25.578   9.553   7.042  0.0151 -0.2604 -0.1927
23480W        W66393  32.431   4.197  28.381 -0.0294 -0.1774  0.0056
23481W        W66394  31.207   8.786   4.628 -0.0858 -0.0617  0.1990
23482W        W66395  16.928  31.830   3.905 -0.0025  0.1264 -0.0544
23483W        W66396  21.927  12.552   6.250 -0.2052  0.2049 -0.6282
23484W        W66397  18.657   3.395   0.633  0.1454 -0.0954  0.0860
23485W        W66398  16.488  16.269   0.270  0.2324  0.1274  0.1369
23486W        W66399  26.201   6.708   5.458  0.1177 -0.0992  0.0069
23487W        W66400  16.456   9.077   8.242 -0.2157 -0.2627  0.0411
23488W        W66401   2.392   9.101  10.225 -0.0709  0.0589  0.0566
23489W        W66402  20.979  10.824   1.162 -0.0357 -0.3442 -0.2593
23490W        W66403  21.332  10.700  27.844 -0.0158 -0.0133 -0.6799
23491W        W66404  20.274   7.120   3.153 -0.0015 -0.4026  0.0308
23492W        W66405  21.047  11.268   8.164  0.2192  0.1149 -0.0968
23493W        W66406  20.638  14.879   4.307 -0.4077 -0.2114 -0.1865
23494W        W66407  31.459   6.750  10.075  0.0322  0.0601  0.0997
23495W        W66408  21.632  13.258   1.955 -0.1882 -0.3112  0.0473
23496W        W66409  30.084  13.882   5.040 -0.2305  0.1687  0.3013
23497W        W66410  30.085  30.609   3.858 -0.0774 -0.1104  0.1283
23498W        W66411  25.044  14.009   9.123  0.3675  0.3913 -0.0803
23499W        W66412  25.483   8.036   8.103 -0.1517  0.0210 -0.0982
23500W        W66413  10.135   7.259   9.663  0.5229  0.1544  0.0788
23501W        W66414  32.891  12.806  28.658 -0.0150 -0.1985 -0.0918
23502W        W66415  33.148  13.333   4.231 -0.2421 -0.2008 -0.4076
23503W        W66416  32.314   9.219   9.327 -0.0108 -0.0174  0.2250
23504W        W66417   9.868  20.069   9.228  0.0396 -0.2756 -0.1369
23505W        W66418  24.963  23.183   8.356  0.0684 -0.1016  0.0140
23506W        W66419  31.810  16.307   6.262  0.0362 -0.1365 -0.1436
23507W        W66420  32.268   5.686   6.594 -0.1522 -0.1579  0.2007
23508W        W66421  32.725   4.426  10.876 -0.0218  0.1078 -0.2082
23509W        W66422  19.384  20.802   7.191  0.0572  0.2520 -0.1419
23510W        W66423  31.644  14.704   7.433  0.1547  0.0138  0.4337
23511W        W66424  28.535  14.675   2.677 -0.3264  0.1833 -0.1623
23512W        W66425  29.762   9.261  10.383  0.2149 -0.1455 -0.2212
23513W        W66426   7.807  15.096   6.389  0.4407 -0.0753 -0.0039
23514W        W66427  21.459  14.853   5.413  0.1525  0.0962 -0.1232
23515W        W66428  22.499  17.020   5.441 -0.1843 -0.2183  0.0315
23516W        W66429  23.151   7.342  29.037  0.1174  0.0476 -0.3490
23517W        W66430  29.329   1.629   5.443 -0.3030 -0.2145 -0.2799
23518W        W66431  31.580   5.525   2.337  0.1501  0.2237 -0.1132
23519W        W66432  31.801   5.516   3.821  0.0051 -0.0063  0.1832
23520W        W66433  23.965   2.459   3.576 -0.1909  0.3108 -0.4389
23521W        W66434  22.668  13.271   8.802  0.0698  0.0699 -0.0380
23522W        W66435  31.138  12.865   8.610  0.0313  0.1088 -0.0337
23523W        W66436  26.683  13.848  29.459 -0.0345 -0.1726 -0.0761
23524W        W66437  19.699  18.338   6.130  0.1499 -0.0370  0.0628
23525W        W66438  21.618   6.388  10.287  0.2213  0.1450  0.0315
23526W        W66439  25.084  11.582   5.511  0.1424  0.2072 -0.4130
23527W        W66440   0.531   5.033   7.889  0.3092 -0.3113 -0.2528
23528W        W66441  28.350  19.285   8.235  0.1950  0.0844  0.1196
23529W        W66442  23.709  16.092   4.338 -0.0586 -0.0543  0.0600
23530W        W66443  27.431  33.692   1.873  0.4819  0.0120 -0.0193
23531W        W66444  27.723  19.767   7.268  0.2172 -0.1712  0.0530
23532W        W66445  29.291  18.410   3.248  0.1534 -0.0765 -0.1746
23533W        W66446  14.483   1.201   5.434  0.0094 -0.0587 -0.0893
23534W        W66447  26.879  11.240   5.069 -0.1317 -0.2379 -0.1107
23535W        W66448  29.140  10.919   5.290 -0.3484  0.0853  0.0918
23536W        W66449  20.431   5.810   6.336 -0.0212 -0.0652  0.1806
23537W        W66450  25.952  10.080  10.126 -0.5750 -0.1908 -0.0001
23538W        W66451  23.133  11.632   5.389 -0.1098 -0.1381  0.2439
23539W        W66452  19.749   4.356   2.816  0.1054  0.0143 -0.1677
23540W        W66453  23.046  17.042   5.646  0.0893  0.2023  0.0922
23541W        W66454  20.458  17.515   0.633  0.1148  0.2098  0.2074
23542W        W66455  33.232   2.272  10.526 -0.0929  0.1321 -0.1717
23543W        W66456  26.795  19.050   6.289 -0.0397 -0.5267 -0.4153
23544W        W66457  18.884  17.081   0.774  0.1685  0.1005  0.0632
23545W        W66458  20.001  16.286   1.039  0.2118 -0.2586 -0.0963
23546W        W66459  16.846  13.741   7.277  0.1418 -0.1533 -0.0712
23547W        W66460  26.629   9.464  27.847 -0.1424  0.2696 -0.0364
23548W        W66461  16.977   7.844   5.511  0.1828 -0.0789 -0.1663
23549W        W66462  23.838   9.525   8.854 -0.1229 -0.0658  0.1603
23550W        W66463  10.958   6.834   6.610 -0.0792  0.1877 -0.0022
23551W        W66464  19.817   6.220   9.943 -0.0307  0.3124  0.1582
23552W        W66465  25.666   8.125   2.424 -0.5066  0.1498  0.0909
23553W        W66466  28.690  19.256   4.225  0.0747  0.1889  0.0094
23554W        W66467  26.355   3.825   9.190 -0.1543  0.0262 -0.0570
23555W        W66468  27.655  21.282   7.925 -0.4465  0.0007  0.2002
23556W        W66469  27.131   2.151   8.960 -0.3461  0.2702  0.0606
23557W        W66470  33.009   8.030  11.262  0.3115 -0.0868 -0.3582
23558W        W66471   5.419  10.137  10.305 -0.1039  0.3239 -0.0915
23559W        W66472  23.437   4.983   7.442  0.0141  0.0596  0.4930
23560W        W66473  22.016   8.792   7.861  0.1905  0.4480 -0.2428
23561W        W66474  33.171  11.308   5.045 -0.1406  0.0595  0.1928
23562W        W66475  26.104   7.690   8.787  0.0412 -0.1021 -0.1553
23563W        W66476  33.063  20.493   3.697 -0.0537 -0.0430  0.0616
23564W        W66477  19.072  16.371  25.309  0.0249  0.3121 -0.0606
23565W        W66478  20.094  13.590  21.541  0.2979  0.1020  0.0088
23566W        W66479  22.908  17.420   1.089  0.2352  0.0238 -0.4575
23567W        W66480   7.196   7.237  29.632  0.1189  0.3002  0.0806
23568W        W66481  22.725  15.751   8.754  0.2280  0.0867 -0.2209
23569W        W66482  24.767   9.592  28.941  0.0524 -0.0600 -0.2228
23570W        W66483  21.601   9.104   7.721  0.2210  0.1315  0.1512
23571W        W66484  28.342  14.385  10.858  0.0522  0.1448  0.1459
23572W        W66485  28.614  18.445   5.598 -0.0415  0.1356  0.1674
23573W        W66486  29.785   9.146   8.279 -0.2505  0.0008 -0.2376
23574W        W66487  19.139   7.053  28.568 -0.3155  0.0954  0.0124
23575W        W66488  21.998  17.584   2.548  0.3764  0.2591 -0.0316
23576W        W66489  30.174  16.201  26.508 -0.1206  0.3648 -0.0417
23577W        W66490  17.511  15.669  27.721 -0.0104  0.1261 -0.1878
23578W        W66491  30.267  20.998   3.019  0.4886  0.1793  0.0763
23579W        W66492  27.953  16.302   4.662  0.2117  0.3684  0.3053
23580W        W66493  16.243  16.577   3.564 -0.0580 -0.3194 -0.0269
23581W        W66494  23.977  17.823   6.932 -0.0485 -0.1342  0.1356
23582W        W66495  23.301  22.003   5.349 -0.0092 -0.1210  0.4737
23583W        W66496  20.895  18.333  15.755  0.1344  0.3668  0.2035
23584W        W66497  33.789  12.780  27.152 -0.0573  0.2218  0.1295
23585W        W66498  19.658  21.143  25.377 -0.1475 -0.1832  0.0443
23586W        W66499   5.153  12.065   1.754 -0.0813 -0.2335 -0.1428
23587W        W66500  25.139  14.144   8.043  0.1666 -0.0571  0.0590
23588W        W66501  18.210  14.123  27.930 -0.0417 -0.4945  0.1890
23589W        W66502  25.205  16.504  24.892  0.0503 -0.0317  0.0916
23590W        W66503  22.085  16.616   4.235 -0.0900  0.2311 -0.0923
23591W        W66504  27.281  14.292   0.805  0.1520  0.0403 -0.2429
23592W        W66505  21.031  19.520  24.198 -0.0594 -0.1263 -0.0861
23593W        W66506  11.768  12.663   0.619 -0.3563  0.1644  0.1648
23594W        W66507  15.061  11.388  29.248 -0.0256 -0.1953 -0.1940
23595W        W66508  25.116  20.042   8.066  0.0787 -0.0486  0.0275
23596W        W66509   0.674  15.929  24.471  0.0403  0.1003  0.1197
23597W        W66510  23.928  12.315   8.222 -0.5406  0.1450  0.0974
23598W        W66511  21.799  15.180  28.774  0.0146 -0.3095  0.3810
23599W        W66512  20.370  27.028   8.462  0.0873 -0.1954 -0.1345
23600W        W66513  22.750  12.132   3.024  0.0136  0.3597 -0.1397
23601W        W66514  15.915   6.727   5.391 -0.0951  0.0039  0.2348
23602W        W66515  19.176  15.945  26.362  0.1780  0.0889 -0.1517
23603W        W66516  30.684  16.320   8.020  0.1767  0.1683  0.0168
23604W        W66517  19.630  15.479   8.526 -0.1087 -0.1356 -0.2659
23605W        W66518  20.856  12.978  26.976  0.2884 -0.3435  0.0893
23606W        W66519  16.075  10.489  28.204  0.1522 -0.0671  0.0963
23607W        W66520  29.477   7.257  23.060  0.2720  0.1738  0.0497
23608W        W66521  23.263  18.222   0.330 -0.0138 -0.3212  0.0586
23609W        W66522  32.057  26.631   3.513 -0.0345 -0.3306  0.2009
23610W        W66523  16.230  12.766   3.204 -0.0930 -0.0058 -0.3838
23611W        W66524  32.043  10.533   9.452  0.1648  0.2503 -0.0097
23612W        W66525  27.886  10.152  29.152 -0.0867  0.3145 -0.0057
23613W        W66526  29.992  12.492   2.047 -0.1064 -0.0154 -0.0448
23614W        W66527  14.950   9.001   2.461  0.1938  0.3308  0.2312
23615W        W66528  25.389  11.047  25.243 -0.0037  0.1422 -0.2053
23616W        W66529  17.972  24.119  24.780  0.1439  0.1103  0.0352
23617W        W66530  26.943  11.972   9.143  0.0688 -0.4611 -0.0453
23618W        W66531  22.888   9.308   6.471  0.0641 -0.2086 -0.2054
23619W        W66532  16.317  18.928   5.180 -0.3145 -0.1249 -0.4526
23620W        W66533  19.807  22.164  25.233  0.2027 -0.0560 -0.0380
23621W        W66534  14.131  14.397   6.694  0.0209  0.2193  0.4069
23622W        W66535  31.914  20.726   3.625 -0.0322  0.2378  0.2165
23623W        W66536  16.423  19.853  29.687 -0.3248 -0.1249 -0.0922
23624W        W66537  22.177   8.224  24.934  0.0626  0.1799 -0.1814
23625W        W66538  22.510  17.284  24.149 -0.2226 -0.1830  0.2011
23626W        W66539  24.001  16.011   7.838 -0.2851  0.0699  0.1967
23627W        W66540  15.402  18.104   7.681  0.1435 -0.0295  0.5019
23628W        W66541  26.704  23.529   1.751 -0.0835 -0.1784  0.2569
23629W        W66542  21.184  27.606   7.729 -0.1416  0.0506 -0.1605
23630W        W66543  22.529  16.552   0.471  0.1833 -0.2811  0.0301
23631W        W66544  21.156  18.463  28.902  0.3189 -0.0765  0.1152
23632W        W66545  15.446   7.975  26.783  0.4287 -0.2285  0.0273
23633W        W66546  25.683  15.062  20.164  0.1008 -0.3592 -0.3065
23634W        W66547  23.585  10.510  25.477  0.2857 -0.0519 -0.1829
23635W        W66548   0.993  16.304   7.936  0.3384  0.0350  0.3016
23636W        W66549  32.164  13.662   2.317 -0.2003  0.0920 -0.0834
23637W        W66550   9.687   3.275   5.158  0.1503  0.0174  0.1068
23638W        W66551  21.919   8.247  25.486 -0.1476 -0.0847  0.1614
23639W        W66552  29.084  13.585   6.001 -0.0911 -0.0676 -0.1445
23640W        W66553  28.365  16.030  28.630  0.0997  0.0497 -0.1632
23641W        W66554  18.911   5.959   6.829  0.1130  0.1183  0.1950
23642W        W66555  20.621  16.791  29.359  0.0495  0.0005  0.1042
23643W        W66556  21.596   6.993   2.583  0.0681 -0.1783  0.2227
23644W        W66557  18.874  17.712  25.476 -0.0981 -0.1311 -0.3167
23645W        W66558  21.184  28.110  25.753 -0.3532 -0.2102 -0.0072
23646W        W66559  19.774   5.837   1.351  0.2265 -0.1404 -0.2883
23647W        W66560  24.883  11.755  28.624  0.0579 -0.0280 -0.3104
23648W        W66561  25.889  15.710  24.963 -0.2653  0.1684 -0.0862
23649W        W66562  23.647  15.943   2.538  0.1036 -0.2916  0.1722
23650W        W66563  23.735  19.119  20.141 -0.0910 -0.1511 -0.0745
23651W        W66564  30.515  12.148  25.315  0.2578  0.1086  0.4620
23652W        W66565  17.069  17.399  20.526  0.1032  0.0546  0.1346
23653W        W66566  28.690  21.803   2.943 -0.0879  0.0726 -0.1237
23654W        W66567  25.522  22.778   5.049  0.0054  0.0477  0.3688
23655W        W66568   4.476  15.775  24.709 -0.3348  0.2327  0.2010
23656W        W66569  18.036  11.941   4.455 -0.1030  0.0108  0.2984
23657W        W66570  18.188   8.617  26.864 -0.1838 -0.0292  0.0498
23658W        W66571  20.085  13.652  16.664 -0.0711 -0.0570 -0.4279
23659W        W66572  18.252  11.361  26.145 -0.2210 -0.2304  0.1151
23660W        W66573  18.530  17.373   0.918 -0.0068 -0.4749  0.0584
23661W        W66574  30.450  19.140  21.821 -0.1503 -0.2108  0.2624
23662W        W66575  29.335  13.661   3.776 -0.2053 -0.2265  0.0129
23663W        W66576  22.113   7.649   1.272 -0.1305 -0.2716  0.3770
23664W        W66577  13.474   2.846  20.967 -0.3349  0.0662 -0.1334
23665W        W66578  22.553  22.857  29.635 -0.0775 -0.1520 -0.3160
23666W        W66579  26.003  23.853   3.068 -0.1000  0.1031 -0.3301
23667W        W66580  30.595  22.929   3.028  0.1211 -0.3640  0.2285
23668W        W66581  31.673  10.775  28.805 -0.0329 -0.1080  0.0154
23669W        W66582  31.303  14.673   0.171  0.0574  0.0492  0.1703
23670W        W66583  11.620  12.560   1.068  0.0749  0.2824  0.1744
23671W        W66584  19.203  22.526  25.049 -0.1499 -0.3402 -0.0620
23672W        W66585  18.121  20.262   3.681  0.2616 -0.0049  0.1421
23673W        W66586  19.132  25.996  25.327 -0.0141  0.2178  0.0617
23674W        W66587  31.897  12.379  22.325 -0.2673 -0.0995  0.1488
23675W        W66588  17.638  17.890  12.962 -0.4577 -0.0608 -0.0658
23676W        W66589  22.308  22.700  20.941  0.1417 -0.1762 -0.0880
23677W        W66590  33.459  14.990  24.208 -0.4322  0.3075  0.0439
23678W        W66591  19.246  11.087  28.419  0.0990  0.1056  0.2728
23679W        W66592  27.626  15.704  29.586 -0.2129  0.1162  0.2110
23680W        W66593  20.972   8.216   6.718  0.1190 -0.0320  0.0871
23681W        W66594   2.377  18.635   6.807 -0.1322 -0.1751  0.0552
23682W        W66595  12.838  10.829   2.238  0.0221 -0.0267  0.4724
23683W        W66596  22.635  13.632  29.401 -0.0570  0.2287 -0.0726
23684W        W66597  27.702  14.798   4.253 -0.0447  0.1346 -0.2801
23685W        W66598  25.616  25.843   6.039 -0.1106  0.2483 -0.1119
23686W        W66599  23.252  17.924   5.401 -0.1033 -0.2111 -0.1429
23687W        W66600  24.141   9.904   6.470 -0.1677  0.1029 -0.0116
23688W        W66601  28.534  14.196  23.046 -0.2339  0.2185 -0.1624
23689W        W66602  12.495  11.911   0.970  0.1588 -0.0484  0.0217
23690W        W66603  27.654  17.686   0.860  0.0252 -0.0504 -0.2070
23691W        W66604  29.049  10.813   8.230  0.1703  0.0356 -0.1208
23692W        W66605  18.449  27.099   4.089  0.0033 -0.1668 -0.0902
23693W        W66606  16.391  16.019   4.381  0.1089  0.0679  0.0195
23694W        W66607  13.286  20.069  22.870  0.4047  0.1936  0.0032
23695W        W66608  16.463  30.149  24.862 -0.2003  0.2941 -0.0014
23696W        W66609  23.387  19.329  29.680 -0.0935 -0.0354 -0.1650
23697W        W66610  21.583  14.871   1.594  0.0590  0.1734 -0.2427
23698W        W66611  30.267  15.178  26.478 -0.2709 -0.2955  0.1690
23699W        W66612  22.432  17.959  29.766  0.1397 -0.0141  0.2559
23700W        W66613  19.119  23.988  28.670  0.0326 -0.1462  0.0284
23701W        W66614  21.965  11.072   0.802  0.0802  0.0546  0.0217
23702W        W66615  20.019  18.750  24.693  0.0094 -0.2167 -0.2036
23703W        W66616  19.154  25.724  24.082  0.2316 -0.2720  0.2540
23704W        W66617  21.811  16.737   7.048  0.4051  0.3211 -0.0089
23705W        W66618  21.445  13.578  29.102  0.0593 -0.0258  0.0351
23706W        W66619  21.504   9.405   8.491 -0.0645 -0.0316 -0.0418
23707W        W66620  21.410  30.324   4.911  0.1200 -0.0502  0.1752
23708W        W66621  20.316  18.944  23.287  0.2647  0.0382  0.2162
23709W        W66622  26.257  27.826  25.475 -0.2260  0.0609  0.0566
23710W        W66623  30.195  14.057  28.640  0.2058  0.1434 -0.1317
23711W        W66624  30.788  19.892  27.201  0.1201 -0.0300  0.0611
23712W        W66625  19.629  13.299   5.252  0.3277 -0.1117 -0.0083
23713W        W66626  11.799  27.848  29.485  0.0018  0.0100  0.1273
23714W        W66627   9.332  12.318   3.929  0.2214 -0.0492 -0.3398
23715W        W66628  17.675   5.486  25.748  0.2085 -0.0476  0.1077
23716W        W66629  22.007   2.567   7.384 -0.2021  0.0899 -0.1027
23717W        W66630  33.045  18.700   8.216  0.2083  0.1696  0.1408
23718W        W66631  16.954   4.068   8.846 -0.0966  0.1007 -0.0771
23719W        W66632  15.789  14.287  25.779 -0.1377 -0.0098  0.0887
23720W        W66633   9.777  11.570   6.595 -0.0713  0.4602  0.1364
23721W        W66634  26.447   6.479  25.263  0.0676 -0.2215  0.1552
23722W        W66635  26.446  16.932   7.160 -0.0047 -0.0491 -0.0876
23723W        W66636  15.013  15.339   0.965  0.0019  0.3032  0.1707
23724W        W66637  27.182  13.297  28.578 -0.0024 -0.0371 -0.1763
23725W        W66638  11.469   4.915  24.678 -0.3854  0.3465  0.0301
23726W        W66639  22.368  12.110  25.046  0.1725  0.1510  0.0533
23727W        W66640  16.728  10.554  21.740  0.0673 -0.1883  0.0342
23728W        W66641  28.421   9.674   4.816  0.1085 -0.3136 -0.0703
23729W        W66642  21.932  10.866  29.150 -0.2802  0.1097  0.0631
23730W        W66643  19.352  13.741   2.923  0.0655  0.0872  0.0680
23731W        W66644  15.864  12.096   7.135  0.0991 -0.0651  0.0525
23732W        W66645  24.917  13.845   4.604 -0.0132 -0.2240  0.1160
23733W        W66646  18.058  20.183   4.602 -0.2681 -0.0883  0.0602
23734W        W66647  31.355   7.824  28.799  0.0034  0.1309 -0.1514
23735W        W66648  16.696  20.596  22.732 -0.1511 -0.3713 -0.0544
23736W        W66649  15.322  10.260  25.919 -0.3272  0.0319  0.1121
23737W        W66650  28.841  19.233  18.774 -0.1309  0.0614  0.0177
23738W        W66651  31.452  14.008  25.429 -0.0477  0.5600 -0.0417
23739W        W66652  34.030  18.427  25.152  0.0518  0.0866  0.0579
23740W        W66653  33.027  19.684   2.936 -0.1490 -0.2070 -0.1315
23741W        W66654  24.723  28.681   6.510 -0.1053 -0.0338 -0.1772
23742W        W66655  23.746   8.576  27.282  0.4254  0.0555 -0.0672
23743W        W66656  25.398  13.421   7.721  0.1418 -0.0231 -0.0503
23744W        W66657  12.424   8.618   2.402 -0.1286  0.2398  0.1805
23745W        W66658  14.759  24.626   7.310  0.1631  0.0557 -0.0441
23746W        W66659  28.031  24.623   6.822  0.0250 -0.0570 -0.2825
23747W        W66660  24.523   7.730   6.003  0.1517 -0.1143 -0.1339
23748W        W66661  16.897  17.307   0.348 -0.0603 -0.3000  0.5481
23749W        W66662  26.033  14.280  29.636 -0.2770 -0.4057  0.0392
23750W        W66663  29.422  22.729  23.934  0.0328 -0.0833 -0.0978
23751W        W66664  31.593  11.405   3.383 -0.1957 -0.2097 -0.1417
23752W        W66665  20.628  29.697  26.369 -0.1824 -0.4619 -0.2804
23753W        W66666  27.780  23.776  25.258  0.1150 -0.1089 -0.2730
23754W        W66667  21.688   8.183   6.462 -0.0225 -0.2558  0.0714
23755W        W66668  22.500  18.624   3.494  0.5832 -0.1077  0.1057
23756W        W66669  27.849  17.509   0.428  0.0236 -0.1381 -0.1239
23757W        W66670  34.279  25.954  17.783 -0.0216  0.1773  0.0350
23758W        W66671  17.726  27.201  22.300  0.0377  0.1863 -0.3212
23759W        W66672  18.631  12.735   4.600  0.0710  0.1684  0.1035
23760W        W66673  17.639  23.911  25.329  0.1431 -0.2030 -0.0121
23761W        W66674  19.840  12.848   3.554  0.0751 -0.1208 -0.0923
23762W        W66675  22.491  23.195  28.701 -0.2378 -0.0069 -0.0943
23763W        W66676  12.470  16.629   5.201  0.2418 -0.1425  0.0902
23764W        W66677   1.188   9.340  24.872 -0.0484 -0.0180  0.4011
23765W        W66678  22.945  10.124  28.504 -0.0972 -0.3164  0.0755
23766W        W66679  21.913  12.241  29.521 -0.2308  0.0128  0.0338
23767W        W66680  14.795  18.663   8.049 -0.0476 -0.0453  0.0135
23768W        W66681  27.218  13.166  18.888  0.1603 -0.0388 -0.1025
23769W        W66682  17.840   3.307  16.014  0.1473  0.2698  0.1323
23770W        W66683  32.366  12.505  25.755  0.0222  0.1580  0.2988
23771W        W66684  19.053  21.189  19.279 -0.1812  0.0436  0.0119
23772W        W66685  28.521   8.950  28.497  0.0424 -0.2423  0.1528
23773W        W66686  17.483  14.499   2.991 -0.5393 -0.3661 -0.1982
23774W        W66687  26.589  20.050  22.500 -0.0817  0.0532  0.0297
23775W        W66688  15.288  24.095   6.233  0.2322  0.1228 -0.0828
23776W        W66689  19.168   9.078  26.222  0.0551 -0.0096  0.0190
23777W        W66690  17.876  17.357   5.434  0.0348  0.2367  0.1420
23778W        W66691  16.996   8.559   2.860  0.1009 -0.0123 -0.0037
23779W        W66692  21.238  15.011  23.455  0.1193 -0.3783 -0.0058
23780W        W66693  22.800  15.977  18.969 -0.0698  0.1673 -0.2770
23781W        W66694  25.633  26.898  27.764  0.2253 -0.0630  0.2417
23782W        W66695  31.893  27.188   8.173 -0.0488  0.3941 -0.0978
23783W        W66696  21.354  14.330  27.579 -0.0160  0.0017  0.1478
23784W        W66697   9.825  30.864  10.191 -0.1772 -0.1516 -0.0348
23785W        W66698  19.700   8.105   4.925  0.0135  0.0553  0.0260
23786W        W66699  20.764  23.315   4.068  0.0064 -0.3167  0.0465
23787W        W66700  28.388  16.949   9.142  0.0141 -0.1700  0.1644
23788W        W66701  22.831  17.596   4.620  0.0944  0.0333 -0.2018
23789W        W66702  17.254   9.622   6.461  0.1122  0.2173 -0.1204
23790W        W66703  13.084  15.972   4.673 -0.1207 -0.1631 -0.2215
23791W        W66704   7.795  12.605  29.179  0.3372  0.0594  0.1139
23792W        W66705  30.805  25.583  28.655 -0.0722 -0.2294  0.0521
23793W        W66706  23.834  18.159   8.034 -0.0650 -0.1623 -0.0260
23794W        W66707  31.249  16.840  29.078 -0.0471  0.1860 -0.0594
23795W        W66708  28.511  17.401   6.063 -0.4250 -0.0281  0.3644
23796W        W66709   0.920  21.890  28.054 -0.0855  0.2776  0.4034
23797W        W66710  20.832  13.440   4.354  0.2389 -0.1326 -0.1643
23798W        W66711  25.993  14.710  23.358  0.0556 -0.1546 -0.0280
23799W        W66712  19.242  14.002   3.863  0.0203 -0.0490 -0.0986
23800W        W66713  25.978  15.534  17.733 -0.1500  0.2137  0.0055
23801W        W66714  33.301  14.130   1.558  0.0170  0.1310  0.0925
23802W        W66715  20.987  14.731   5.688  0.1963 -0.2667  0.2076
23803W        W66716  26.259  15.520   0.812 -0.2006 -0.2379 -0.0799
23804W        W66717  30.248  25.585   5.411  0.1425 -0.0283  0.2724
23805W        W66718   0.332  15.174  22.855 -0.1113  0.1226  0.1676
23806W        W66719  32.723  14.658   7.336 -0.1588 -0.1456  0.1193
23807W        W66720  19.824  15.449  23.765  0.0778 -0.2213 -0.0259
23808W        W66721  21.758  17.908  25.225  0.0344 -0.0057 -0.1408
23809W        W66722  26.282   9.300   7.997  0.1397  0.2198 -0.0129
23810W        W66723  11.536  29.243  11.377  0.0226 -0.1020  0.2830
23811W        W66724  19.724  22.849   0.808 -0.2632  0.1035 -0.1412
23812W        W66725  17.887   7.360  28.815  0.2363 -0.1356  0.1509
23813W        W66726  21.174   5.407   6.519 -0.2544  0.0505 -0.3351
23814W        W66727  33.474  14.580  26.916 -0.0238 -0.3559  0.1622
23815W        W66728  32.377  18.682   5.109  0.1979  0.3212 -0.0687
23816W        W66729  27.574  12.311  26.816 -0.1201 -0.0356  0.2442
23817W        W66730  18.715  24.555   1.031  0.0851 -0.1896  0.0747
23818W        W66731  18.005  16.807   6.253  0.0062  0.0473 -0.3246
23819W        W66732  20.651   6.007  26.838  0.2691  0.1518  0.6623
23820W        W66733  24.908  10.048   3.058  0.0077 -0.2580  0.0407
23821W        W66734  21.559  17.363  23.054 -0.0601  0.0111 -0.0402
23822W        W66735  21.866   4.512   4.163 -0.2016 -0.0614 -0.0971
23823W        W66736  30.392  20.429   6.840  0.0661 -0.0703  0.2832
23824W        W66737  25.793  14.821   8.775  0.1181  0.0414  0.2875
23825W        W66738   4.889   6.604  23.876 -0.1522  0.1370 -0.0314
23826W        W66739  21.831  14.706   2.917  0.0584 -0.0768 -0.1541
23827W        W66740  23.996  17.264   4.616  0.1735 -0.1073 -0.0336
23828W        W66741   2.311   9.263  23.226  0.1049  0.1119 -0.1932
23829W        W66742  21.950  14.003   3.742 -0.3752 -0.2544 -0.3066
23830W        W66743  27.889   8.382  10.293 -0.0830 -0.1435 -0.0104
23831W        W66744  23.387  13.868   3.281 -0.1080 -0.0375 -0.2369
23832W        W66745  20.500   6.188  16.409 -0.0069  0.4882 -0.0393
23833W        W66746  22.395  20.198  21.671 -0.0109 -0.1845  0.2138
23834W        W66747  26.126  30.768  25.399 -0.0389  0.1389 -0.2791
23835W        W66748  31.861  21.173  29.398  0.0198 -0.3661  0.1480
23836W        W66749  19.969  19.945  21.771 -0.1528  0.2682  0.1638
23837W        W66750  30.802  18.544   6.760 -0.0857  0.1539 -0.1638
23838W        W66751  11.681  23.563   3.411  0.0786  0.0389  0.2478
23839W        W66752  32.424   8.475   3.189 -0.0019 -0.1515 -0.3663
23840W        W66753  15.295  11.836  23.351  0.1417  0.3943 -0.0258
23841W        W66754   1.818  12.018   5.195  0.2042 -0.1822  0.0661
23842W        W66755  16.086  26.182  23.722  0.4482 -0.2818 -0.1048
23843W        W66756  20.732  19.744   2.920 -0.0783 -0.2566  0.0095
23844W        W66757  18.008   0.849   3.599  0.0730 -0.1024  0.0991
23845W        W66758  26.025  21.668   6.534  0.0197 -0.1887  0.0456
23846W        W66759  23.010  23.752   0.974  0.1676  0.1417  0.0983
23847W        W66760  21.538  11.628   3.096  0.1729  0.2266  0.1074
23848W        W66761   0.553   2.770   6.359 -0.0556 -0.1665 -0.1443
23849W        W66762  29.376  17.067   7.058  0.0646  0.1500  0.2005
23850W        W66763  20.544  15.219  27.321  0.0532  0.0869  0.0444
23851W        W66764  27.247   9.291  27.806 -0.0039 -0.1018  0.3081
23852W        W66765  16.704  24.184   7.599 -0.0049  0.3184  0.0060
23853W        W66766  16.224  17.087  26.091 -0.1809  0.0071  0.1452
23854W        W66767  21.386   0.638   6.250 -0.1110 -0.1279  0.2094
23855W        W66768  28.071  21.535  16.036  0.0865 -0.0994  0.0124
23856W        W66769  15.283  10.830   7.040  0.2223 -0.1961 -0.0447
23857W        W66770  22.640  25.599  17.240  0.0786 -0.0812  0.0641
23858W        W66771  19.298  19.658  27.046  0.0087 -0.0233  0.3303
23859W        W66772  30.137  13.077  25.017  0.0549  0.1433 -0.2733
23860W        W66773  33.789  17.231   0.574  0.1866  0.1917  0.1130
23861W        W66774  16.394  28.009  28.951  0.0914 -0.1564  0.0567
23862W        W66775  22.472  11.773  29.085 -0.3287  0.4655  0.1375
23863W        W66776  21.769   1.925   8.289 -0.1892 -0.0259  0.0177
23864W        W66777  21.044  30.964  29.181 -0.0046 -0.0168  0.0417
23865W        W66778  23.299  25.990   4.726  0.1608  0.1036  0.4620
23866W        W66779  27.825  17.971  26.779  0.0732  0.4042  0.0500
23867W        W66780  25.545  18.479   4.033  0.0234  0.1548  0.0917
23868W        W66781  14.226  10.085  26.474  0.1588  0.4245  0.2850
23869W        W66782  24.697  21.251   2.728  0.0992 -0.0549 -0.0103
23870W        W66783  21.413   8.250   7.560  0.2876  0.0696 -0.2050
23871W        W66784  20.155  12.730   6.219 -0.0985 -0.3159  0.0051
23872W        W66785  15.414   8.108  23.048  0.1620 -0.2030 -0.1928
23873W        W66786  16.972  20.078  26.097 -0.1908 -0.0138 -0.3412
23874W        W66787  19.871  25.887   4.257  0.1292  0.2885  0.1925
23875W        W66788  12.938   0.809  28.641 -0.1795  0.0547 -0.0054
23876W        W66789  21.910  16.279   5.306  0.0848 -0.5965  0.2602
23877W        W66790  21.482  17.981  23.623  0.0429 -0.0137 -0.2101
23878W        W66791  16.581  13.941  26.907 -0.6121  0.0818  0.1842
23879W        W66792  22.365  11.200   7.285  0.2217 -0.4050 -0.1324
23880W        W66793  32.340  21.869   5.666  0.0945  0.0579 -0.0586
23881W        W66794  18.903  13.096   4.219 -0.0652 -0.1292 -0.4330
23882W        W66795  22.272  20.580   2.147  0.0558  0.0065 -0.0116
23883W        W66796   0.646  19.401   1.695  0.0090  0.2413  0.1483
23884W        W66797  13.288  12.394   8.626 -0.2197  0.1114 -0.0864
23885W        W66798  26.546   9.224   0.599  0.1870  0.0763 -0.2009
23886W        W66799  24.498  12.811   3.553  0.0382  0.0782 -0.2755
23887W        W66800  20.039   5.671  29.134 -0.1943 -0.1847 -0.1690
23888W        W66801   6.406  10.633  29.224  0.3555  0.2430 -0.0580
23889W        W66802  20.073  30.990  27.889 -0.0761  0.0389 -0.2078
23890W        W66803  25.644  19.193   6.417 -0.1988 -0.1224  0.4587
23891W        W66804  27.837  12.275   1.294  0.0362  0.1750 -0.0733
23892W        W66805  23.627  33.686   5.659 -0.2179  0.0544 -0.1744
23893W        W66806  14.263   6.749   7.555  0.0432  0.1922 -0.2329
23894W        W66807  22.462  30.778   6.672  0.3086  0.0737  0.1146
23895W        W66808  27.608   6.768   9.605  0.0132  0.2213  0.4295
23896W        W66809  33.621  19.416   3.738 -0.0330 -0.5388  0.1451
23897W        W66810  19.363  17.532   7.872 -0.0018  0.1231  0.2104
23898W        W66811  17.571  20.197   2.798  0.1431  0.5018  0.2160
23899W        W66812  17.707  19.144  25.678 -0.3155 -0.0373 -0.0787
23900W        W66813  28.190  19.659   8.962  0.2239 -0.0361  0.4923
23901W        W66814  14.833   9.350  27.084  0.0096  0.0685  0.5033
23902W        W66815   9.586  18.726   3.529 -0.3470  0.2210 -0.1476
23903W        W66816  27.730  13.950  25.076  0.0279 -0.0876 -0.1084
23904W        W66817  21.458  17.470   0.143 -0.2437  0.0000 -0.0007
23905W        W66818  30.612  22.738   8.742  0.0733 -0.1699 -0.0728
23906W        W66819  20.297   7.834   1.783  0.1181  0.1110  0.2531
23907W        W66820  19.114   7.978  27.393  0.1571  0.3425  0.1555
23908W        W66821  22.001  17.280   7.270  0.1572  0.2260 -0.0514
23909W        W66822  22.677  19.107  25.082  0.3358 -0.3194 -0.1477
23910W        W66823  12.143   1.189  24.673  0.3101  0.2303  0.1725
23911W        W66824  19.112  21.838  29.165 -0.1243  0.1014  0.0445
23912W        W66825  18.261  24.463   5.411  0.5186 -0.1269 -0.1239
23913W        W66826   9.861  11.617   1.065  0.1199  0.1951  0.1404
23914W        W66827  21.658  25.589   6.005 -0.0623 -0.2011 -0.0395
23915W        W66828  22.685  14.208   2.859 -0.0283  0.1401 -0.0232
23916W        W66829  18.263  33.240   6.161  0.3140 -0.5951 -0.2644
23917W        W66830  24.650  31.097  21.815  0.0455  0.1180 -0.0999
23918W        W66831  19.031  12.014   7.201  0.0272 -0.2372 -0.5028
23919W        W66832  22.812  22.705   7.724 -0.0212  0.1294 -0.0166
23920W        W66833  28.573   6.686  29.205  0.0539 -0.2622  0.0807
23921W        W66834  22.831  18.387   4.253 -0.0408 -0.4752 -0.2074
23922W        W66835  28.037   9.213   1.335  0.3349  0.1919 -0.1935
23923W        W66836  30.202  24.592  26.900 -0.0803 -0.2450  0.0595
23924W        W66837  15.388  10.486   0.296  0.1762 -0.1647  0.0270
23925W        W66838  17.969  17.142  23.242 -0.0351 -0.2358  0.0848
23926W        W66839  15.561  16.715   2.672  0.0293 -0.1593 -0.4582
23927W        W66840  25.362  20.604   8.666  0.0892  0.2826  0.1567
23928W        W66841  32.658  20.021  29.364 -0.3788 -0.3001  0.0990
23929W        W66842  24.623  29.725   4.644  0.0235  0.1670 -0.2430
23930W        W66843  16.586  22.454  27.911 -0.0037  0.2028  0.2161
23931W        W66844  19.228  12.980   6.358 -0.0735 -0.0659  0.0151
23932W        W66845  16.768   7.426   8.293 -0.2997  0.1433 -0.1597
23933W        W66846  23.924   4.907  28.181 -0.3358  0.1392 -0.1424
23934W        W66847  29.352  14.438   1.331  0.0622  0.0875 -0.1629
23935W        W66848  16.021  24.887  20.732  0.2799 -0.1993 -0.1649
23936W        W66849  15.188  23.948  26.145 -0.0509  0.0119  0.1561
23937W        W66850  31.449  13.790  15.140  0.1517  0.0924 -0.1834
23938W        W66851  19.459  17.651  27.130 -0.0887 -0.0669  0.1569
23939W        W66852  25.266   4.479   1.696  0.1269  0.0297  0.2296
23940W        W66853  23.430  19.415  20.714 -0.1106 -0.0773  0.1827
23941W        W66854  22.462  15.478   2.662  0.0699 -0.0884 -0.0409
23942W        W66855  21.367   7.442   7.994  0.2376  0.0895 -0.0251
23943W        W66856  21.498  15.866   5.554  0.1638 -0.2123  0.0752
23944W        W66857  31.283  23.343  28.734 -0.0368 -0.0884 -0.3667
23945W        W66858  25.966  13.538  20.033 -0.3135 -0.1063 -0.0095
23946W        W66859  20.635  18.184   1.837 -0.1814  0.0062 -0.0515
23947W        W66860  29.294   4.323   1.806 -0.0350  0.0810 -0.0818
23948W        W66861  24.137  17.974  25.535 -0.4518 -0.3351  0.5030
23949W        W66862  27.087  21.521   2.234 -0.1151  0.3051  0.0203
23950W        W66863  33.322  10.362  10.411  0.0945 -0.1029  0.1532
23951W        W66864  30.303  18.289   3.469  0.2032 -0.2666 -0.2078
23952W        W66865  31.342  21.415   7.044 -0.0217  0.0516 -0.1739
23953W        W66866  23.609  14.376   2.212 -0.2206  0.1736 -0.3677
23954W        W66867  23.245  17.040   1.273  0.2127  0.0136 -0.5502
23955W        W66868  19.158  18.513  27.036 -0.0276  0.0691 -0.3339
23956W        W66869  17.003   1.029  24.856  0.1184 -0.4845  0.1511
23957W        W66870  15.640  22.212  29.435 -0.0389  0.0070 -0.1319
23958W        W66871  25.470  16.611  14.407  0.2294 -0.1198 -0.0251
23959W        W66872  21.706  19.262  25.731 -0.0118 -0.0663 -0.0411
23960W        W66873  22.170  12.501  28.027 -0.1648 -0.1493  0.2014
23961W        W66874  28.149  21.430  29.104  0.1200 -0.0935 -0.0818
23962W        W66875  20.077   4.091   0.785 -0.0521  0.2418  0.1007
23963W        W66876  29.312   3.282   8.531  0.4362 -0.0728  0.0285
23964W        W66877  29.157  23.498   7.726 -0.1360  0.4100  0.0022
23965W        W66878  21.112  15.883   8.670  0.1884 -0.0838 -0.2639
23966W        W66879  28.651  16.598   9.323  0.0132  0.0068  0.0596
23967W        W66880  22.933   7.987   1.423  0.1254 -0.5391 -0.0390
23968W        W66881  20.465   9.940   0.293 -0.0397  0.0079 -0.0342
23969W        W66882  27.783  18.760   8.153 -0.0730  0.1027  0.1557
23970W        W66883  13.898  15.050   2.678  0.2806 -0.1139  0.0281
23971W        W66884  30.044  22.580   4.499  0.0848  0.0211  0.0147
23972W        W66885  18.650  33.817   2.697 -0.0364 -0.0055  0.1529
23973W        W66886  31.886  20.819  22.130  0.0771 -0.1030 -0.1920
23974W        W66887  19.433  14.487   8.122 -0.1760  0.1330 -0.0289
23975W        W66888  19.002  13.002   5.426  0.0361  0.2036 -0.2361
23976W        W66889  15.153  14.175   0.701  0.1025  0.3769  0.0702
23977W        W66890  23.261  16.165   7.955  0.1492 -0.1382  0.1182
23978W        W66891  20.698  21.309   7.970  0.3835  0.0597 -0.0572
23979W        W66892  19.588  12.962   5.672  0.1135 -0.0297  0.0255
23980W        W66893  22.316  10.138   8.112 -0.1267  0.0741  0.0536
23981W        W66894  28.385  17.133  23.233 -0.0928  0.1472  0.0689
23982W        W66895  19.829  22.009   8.803  0.1587  0.2739  0.5002
23983W        W66896  12.568  14.532   8.143 -0.1383 -0.1223  0.1323
23984W        W66897  26.237  25.009   6.807  0.4676 -0.5005  0.0885
23985W        W66898  27.197  17.298   2.406  0.2912 -0.0442 -0.2838
23986W        W66899   6.641  23.097  26.356 -0.2049  0.0567 -0.2826
23987W        W66900  18.101   8.831   7.432 -0.2706 -0.1904  0.1585
23988W        W66901  16.413  22.057   7.546 -0.1692  0.2708 -0.0523
23989W        W66902  18.613  14.114  28.838  0.3834  0.0283  0.1757
23990W        W66903  26.849  20.791  28.209 -0.1455  0.1592 -0.0704
23991W        W66904  22.962  20.477   7.809 -0.3171 -0.1245  0.1070
23992W        W66905  17.692  16.409   7.146  0.2665  0.0969 -0.2648
23993W        W66906  30.579   6.849   0.557 -0.0422 -0.2386  0.1387
23994W        W66907  23.212  13.441  26.303 -0.0441 -0.2289 -0.2107
23995W        W66908  21.896  23.660  28.165  0.1893 -0.2507  0.2675
23996W        W66909  24.392  33.809  20.408 -0.0733  0.0873  0.4649
23997W        W66910  32.679   9.042   6.069 -0.1671  0.0799 -0.4079
23998W        W66911   0.669  15.353   3.232  0.0095  0.1651 -0.0332
23999W        W66912  18.264  19.677  25.531  0.0489 -0.0912 -0.1164
24000W        W66913  19.427  23.206   8.690  0.0007 -0.0254 -0.1191
24001W        W66914  27.405  13.455   5.977 -0.1468 -0.3325  0.2214
24002W        W66915  32.446  13.826   0.913  0.1063 -0.0524 -0.0927
24003W        W66916  27.331  12.198   3.308 -0.2235  0.0699  0.1386
24004W        W66917  18.004  12.252  26.947  0.2545  0.1566  0.0989
24005W        W66918  20.729   7.395   8.003 -0.0558  0.3312  0.1951
24006W        W66919  18.881  19.000   4.724 -0.0538 -0.0917  0.0226
24007W        W66920  12.994  17.056   7.852 -0.2368 -0.0693 -0.0005
24008W        W66921  28.380  28.955   1.071 -0.3059  0.0742 -0.1145
24009W        W66922  24.468  19.574   6.801  0.0876  0.2225 -0.0192
24010W        W66923  29.909  15.647   1.505 -0.0525  0.0714  0.2956
24011W        W66924  26.581  17.164   1.554 -0.0943  0.0005 -0.3036
24012W        W66925   8.735  12.064  23.935 -0.1099 -0.0829  0.0331
24013W        W66926  30.822   0.615   4.867 -0.2325 -0.0178 -0.1311
24014W        W66927   1.263  16.865  29.001  0.3871 -0.2503 -0.2748
24015W        W66928  27.956  19.432   8.551 -0.0493 -0.0129 -0.1719
24016W        W66929  19.205  10.230   3.436  0.0988  0.2402  0.3469
24017W        W66930  24.103   7.387  26.561 -0.0804  0.2341  0.0133
24018W        W66931  17.879  11.606   1.584 -0.0540 -0.0465 -0.4412
24019W        W66932   0.472   9.680   5.944 -0.1103  0.1422 -0.3731
24020W        W66933  19.316  14.359   2.874  0.0527 -0.2022 -0.0376
24021W        W66934  23.358  11.486   3.084 -0.4374 -0.1334  0.4643
24022W        W66935  11.981  24.717   6.017 -0.0723 -0.2863  0.1530
24023W        W66936  13.899  17.976   5.286 -0.0585 -0.0878  0.0154
24024W        W66937  21.111   5.742  28.202  0.1138  0.2461  0.3018
24025W        W66938  29.484  10.422   9.503 -0.2233  0.0689  0.1988
24026W        W66939  19.860  19.269   4.978 -0.5126  0.0394 -0.0672
24027W        W66940  28.396  19.093  26.043 -0.3253  0.0235 -0.0212
24028W        W66941  21.874  15.487  26.347  0.2638 -0.2004  0.1833
24029W        W66942  14.802  20.429   3.691  0.2988 -0.0539 -0.1007
24030W        W66943  14.505  18.521   6.571 -0.0941  0.1203 -0.0513
24031W        W66944   4.251  21.109   2.439 -0.0231 -0.1311  0.1329
24032W        W66945  30.103  14.438   8.320 -0.1096 -0.0938 -0.6832
24033W        W66946  19.680  16.951  27.753  0.2161  0.0333 -0.2121
24034W        W66947  20.067  27.658  27.718 -0.0074  0.5635  0.1736
24035W        W66948  25.358   9.458   6.108 -0.2010 -0.1229 -0.0426
24036W        W66949  27.314  11.186   4.484 -0.1361  0.0043  0.2045
24037W        W66950  19.958  11.360  29.601 -0.1138 -0.2045 -0.3437
24038W        W66951  16.355  17.690  27.207 -0.1960  0.0384  0.0365
24039W        W66952  12.033  17.946  27.169 -0.3320 -0.0228  0.0142
24040W        W66953  29.236  16.153   7.471  0.0054  0.2977 -0.2823
24041W        W66954  21.274  15.147   1.852  0.2076 -0.1845 -0.1672
24042W        W66955  26.962  13.673  24.251 -0.0565  0.1007  0.0049
24043W        W66956  28.705  16.871   5.402  0.0549 -0.1287 -0.2173
24044W        W66957  21.311  17.692   3.049  0.2849 -0.0297 -0.0166
24045W        W66958  20.937  15.786   2.328  0.0475  0.4707 -0.0035
24046W        W66959  21.962  24.176   1.518  0.0159  0.1308 -0.0907
24047W        W66960  11.915   6.245  27.873  0.1357 -0.0444  0.0217
24048W        W66961  22.956  13.632   4.681 -0.1758  0.0207  0.0045
24049W        W66962  18.111   7.436   4.733  0.3150  0.1542  0.2285
24050W        W66963  15.521  18.659   6.350  0.0767  0.0081  0.0397
24051W        W66964  23.329  24.816   4.665  0.0990 -0.2767 -0.0250
24052W        W66965  19.442  15.740  21.572  0.0879  0.1620  0.2973
24053W        W66966  18.415   8.080  28.587  0.0672 -0.3190 -0.3180
24054W        W66967  23.042  17.879  23.642 -0.0748  0.3056  0.0594
24055W        W66968  27.028  24.923  23.896 -0.0805 -0.3983  0.1103
24056W        W66969  27.181  27.722   2.149 -0.2164 -0.3225 -0.1360
24057W        W66970  18.029  12.673   8.382 -0.0212 -0.2855  0.0172
24058W        W66971  18.700  20.168   3.792 -0.2178  0.0846 -0.0747
24059W        W66972  22.281  17.989   1.766  0.0970  0.0672 -0.0087
24060W        W66973  28.063  16.430   6.983  0.2032  0.0204 -0.4552
24061W        W66974  22.298  11.252   1.962  0.0714  0.2875 -0.1639
24062W        W66975  14.948  24.369   3.422  0.1051 -0.1959  0.1006
24063W        W66976  24.500  19.875   3.478 -0.0234 -0.1572  0.3656
24064W        W66977  26.363   9.292  28.208  0.2002 -0.1193 -0.0659
24065W        W66978  20.258  17.105  18.428 -0.4272  0.1203 -0.1624
24066W        W66979  22.406  13.384   8.284 -0.2385  0.1999  0.0270
24067W        W66980  27.953  21.437   7.564 -0.0325  0.1884  0.0012
24068W        W66981  22.016  12.121   7.922  0.5611 -0.2971 -0.1591
24069W        W66982  18.721  30.237   6.788  0.1588 -0.0424  0.1295
24070W        W66983  27.027  14.705   6.561  0.0162 -0.2961 -0.3227
24071W        W66984  18.546  18.048   4.971 -0.0300 -0.3495 -0.2340
24072W        W66985  20.188  25.807  24.170  0.0124  0.0015 -0.1019
24073W        W66986  17.706  11.991  23.447 -0.2564  0.0489 -0.1759
24074W        W66987  20.828  18.123  24.930 -0.2013  0.1479  0.0158
24075W        W66988  14.726  20.736   2.372  0.1946 -0.0425  0.2190
24076W        W66989   9.684  18.218   4.702  0.1221 -0.0811  0.4640
24077W        W66990  26.832  15.034   1.419 -0.0772  0.0800  0.0236
24078W        W66991  16.643  19.348   7.622  0.0370 -0.3653  0.2777
24079W        W66992  27.481  18.001   8.594  0.1028  0.0541 -0.0658
24080W        W66993  19.724  20.326   6.863  0.0837  0.0691  0.2430
24081W        W66994  27.609  19.101   6.198 -0.1235  0.2181  0.4806
24082W        W66995  21.172  20.317   0.930 -0.0524 -0.3873 -0.0807
24083W        W66996  23.536  19.770   6.751 -0.2156 -0.1366  0.0018
24084W        W66997  11.934  11.826   0.126  0.1581 -0.0969 -0.0062
24085W        W66998  27.697  20.575  27.354 -0.2683  0.3973  0.1284
24086W        W66999  15.506  15.132   1.860 -0.3326  0.1203 -0.0673
24087W        W67000  12.737  25.570   7.567 -0.0933  0.1625  0.0503
24088W        W67001  19.133   3.319   2.759  0.0162 -0.2708  0.0797
24089W        W67002  20.003  15.093  27.509  0.0938  0.1418 -0.2297
24090W        W67003  25.350  12.230  24.900  0.0723 -0.0009 -0.1588
24091W        W67004  21.847  14.323  29.208  0.1038 -0.1016 -0.1966
24092W        W67005  21.602  18.738   0.918 -0.0997  0.0150 -0.1718
24093W        W67006  18.485   8.527   7.565 -0.0048 -0.0199  0.1233
24094W        W67007  20.030  17.275   5.029 -0.1362  0.4152  0.1022
24095W        W67008  20.084  12.309   5.976  0.0001  0.1916  0.3206
24096W        W67009  12.495  11.279   9.455  0.0389 -0.0411 -0.2122
24097W        W67010  17.034  16.166  23.833 -0.0297  0.1555  0.1372
24098W        W67011  23.258  12.266   4.761  0.0373 -0.0712 -0.1023
24099W        W67012  12.686  19.786   7.550 -0.1735 -0.0221  0.2184
24100W        W67013  30.741  13.065   2.737 -0.0151  0.2387 -0.0895
24101W        W67014  28.294  15.433   5.966  0.1224 -0.0190 -0.1595
24102W        W67015  20.768   6.507   7.187 -0.4533 -0.1074  0.2965
24103W        W67016  27.005  29.481   6.965  0.2716  0.4267 -0.1297
24104W        W67017  24.396   3.134  29.684 -0.1275  0.3873 -0.0302
24105W        W67018  21.196   5.854   5.120 -0.0505  0.2083 -0.3649
24106W        W67019  23.643  18.230   0.668 -0.0043  0.0539 -0.1677
24107W        W67020  18.516  16.856   8.124  0.0257  0.0866 -0.2080
24108W        W67021  21.529  13.788  21.425  0.5676  0.1474 -0.2802
24109W        W67022  15.814  19.026  28.348 -0.0883  0.1931  0.2228
24110W        W67023  23.891  21.753   8.737 -0.2385 -0.3898  0.0200
24111W        W67024  28.967  23.084   6.706  0.0971 -0.1505 -0.2495
24112W        W67025  28.034  18.708   6.092  0.0831  0.5015  0.2404
24113W        W67026  32.818  19.167  25.968 -0.1156  0.0822 -0.1212
24114W        W67027  25.476   6.066  28.489  0.0253  0.0924  0.2427
24115W        W67028  26.600  10.559   5.089 -0.1318 -0.1174 -0.1962
24116W        W67029  18.064  18.107  29.769 -0.2031  0.1975 -0.3555
24117W        W67030  34.377  18.153   8.430  0.1123  0.0885  0.0653
24118W        W67031  16.405  13.284   3.921 -0.0266 -0.1610 -0.2231
24119W        W67032  22.060  16.282   5.862 -0.1001  0.0237 -0.0216
24120W        W67033  19.303   8.768   3.551  0.0096 -0.3863 -0.3385
24121W        W67034  25.061   5.681   9.681  0.0912 -0.0662  0.1185
24122W        W67035  20.363  22.424  25.563  0.0992  0.2130 -0.0789
24123W        W67036  27.041  15.049   5.079 -0.0728  0.1532 -0.0561
24124W        W67037  18.414  13.338  23.735  0.2051  0.2434  0.2895
24125W        W67038  22.305  13.750   1.491  0.2347  0.1316  0.1485
24126W        W67039  20.699   7.323   3.317 -0.3057  0.0688 -0.1073
24127W        W67040  21.113  17.324   0.440  0.1431  0.3661 -0.1140
24128W        W67041  30.790  23.093   1.581  0.1279  0.0145 -0.0331
24129W        W67042  16.244  26.422   1.631 -0.0632  0.1512 -0.0365
24130W        W67043  13.331  21.725  28.171  0.3092 -0.0281  0.4224
24131W        W67044  13.221  24.529   3.556  0.1967  0.0951 -0.1181
24132W        W67045  27.470  13.721   4.864  0.2823 -0.3514  0.0065
24133W        W67046  13.562  11.258   0.336  0.2934  0.1778 -0.1077
24134W        W67047  29.882  20.972  27.348  0.3096  0.1162  0.1604
24135W        W67048  25.820  14.703  25.098 -0.3306 -0.1597  0.2635
24136W        W67049  19.052  12.759  22.495  0.0691  0.0427 -0.4252
24137W        W67050  23.985  17.816   5.917  0.0664  0.0172 -0.1104
24138W        W67051  17.014  19.364   3.107  0.0577 -0.2974  0.1380
24139W        W67052   9.697  16.211   7.068  0.2325 -0.0761  0.1153
24140W        W67053   3.111  16.944   1.174 -0.0531  0.0172  0.0171
24141W        W67054  18.740  16.820  21.851  0.1676  0.1164 -0.0019
24142W        W67055  20.780  15.975   0.323 -0.1894 -0.2659  0.1359
24143W        W67056   2.215  18.338  28.174  0.0480 -0.2260  0.1243
24144W        W67057  26.398  10.793  29.615 -0.0524  0.0716 -0.2168
24145W        W67058  26.325   3.419   1.574 -0.0182  0.1286  0.2922
24146W        W67059  31.650  18.134   3.983  0.1131 -0.3062  0.0958
24147W        W67060  23.720  19.064   7.976 -0.0066 -0.1469  0.0281
24148W        W67061  25.110  13.888   9.933  0.0364  0.0817  0.2248
24149W        W67062  16.909   5.923  10.358  0.0352  0.0649  0.2589
24150W        W67063  25.519   8.535  22.249  0.1886 -0.0871  0.0754
24151W        W67064  19.861   3.323   1.839 -0.0842  0.2244  0.1095
24152W        W67065  17.740  19.533  26.531  0.0879 -0.4241 -0.1227
24153W        W67066   5.398  20.286   5.961  0.1031  0.4405 -0.2032
24154W        W67067  32.010  17.579   6.879  0.1882 -0.0865  0.2136
24155W        W67068  20.450  13.447   9.111 -0.2029  0.0679 -0.1964
24156W        W67069  15.538  21.668  27.201  0.1153 -0.1140  0.1082
24157W        W67070  24.341   5.165   3.971 -0.2970  0.0470 -0.0530
24158W        W67071  29.385  17.676   9.940 -0.0217  0.1275 -0.0981
24159W        W67072  23.610  30.338   7.735 -0.2841  0.1800  0.0923
24160W        W67073   6.960  18.595  24.620 -0.2713  0.4308  0.0187
24161W        W67074  22.257  15.409   3.276  0.4061 -0.0454  0.4436
24162W        W67075  27.321   2.183   7.917 -0.0093  0.1339  0.1074
24163W        W67076  20.354  10.310  23.741  0.2675 -0.2288  0.1407
24164W        W67077  23.668  23.958   4.365  0.2935  0.0345 -0.0378
24165W        W67078  13.382  13.698   5.507 -0.2019  0.0044  0.2238
24166W        W67079  33.954  16.397   5.990  0.0447  0.1690 -0.0433
24167W        W67080  20.297  26.237   0.164 -0.0347 -0.0709  0.0463
24168W        W67081  27.084  10.309   2.399 -0.3276  0.1924 -0.0346
24169W        W67082  21.120  18.530   1.756  0.1845  0.0808 -0.1564
24170W        W67083  18.982   7.177   2.608  0.0328 -0.0158  0.0869
24171W        W67084  14.807  21.766  26.653 -0.1477  0.0758  0.1323
24172W        W67085  27.215   9.673   9.838 -0.0333 -0.1762 -0.0316
24173W        W67086  26.072   5.872   2.066  0.0068 -0.0644 -0.2927
24174W        W67087   1.657  21.986   7.540  0.0483  0.0269 -0.1737
24175W        W67088  23.127  15.497   8.314 -0.3732 -0.0590  0.0528
24176W        W67089  18.035  16.213   5.343  0.1586  0.2190 -0.1030
24177W        W67090  30.300   5.453   5.439 -0.3115  0.0459 -0.2100
24178W        W67091  30.480  16.445   5.695 -0.2628 -0.0684 -0.2775
24179W        W67092  15.346  17.450   5.398  0.2413  0.2890  0.1864
24180W        W67093  24.861   6.538   4.338  0.0601  0.1142 -0.0468
24181W        W67094  26.566  24.326   8.028 -0.0939  0.0218  0.3575
24182W        W67095  29.325  29.744   5.606  0.0499 -0.2565 -0.0221
24183W        W67096  21.620  13.633   3.841  0.0709  0.0688 -0.1782
24184W        W67097  22.664  12.369  28.226 -0.2893 -0.1180  0.0970
24185W        W67098  34.229   0.414   7.870  0.0909 -0.0212  0.1438
24186W        W67099  16.425   8.879   3.476 -0.2288  0.2409  0.2480
24187W        W67100  29.402  22.282   0.197 -0.4308  0.0637  0.1264
24188W        W67101  25.383  18.163   1.523  0.3132 -0.1325  0.0219
24189W        W67102  18.325  17.382   8.286  0.1019  0.0561 -0.0438
24190W        W67103  29.892  22.944   2.763  0.2480  0.1313  0.3718
24191W        W67104  10.040   6.657   1.849 -0.1320  0.1490 -0.1771
24192W        W67105  27.685  14.698   2.715  0.3000  0.0383 -0.4487
24193W        W67106  23.575  14.862   4.282 -0.2419 -0.1906 -0.4713
24194W        W67107  19.593   5.612   7.581 -0.1898  0.0190  0.4621
24195W        W67108  17.557  14.530  27.365  0.1191 -0.3366 -0.0259
24196W        W67109  17.028  13.222  21.746  0.1592  0.0074  0.3446
24197W        W67110  31.208  21.078   1.401  0.0731  0.0762 -0.0908
24198W        W67111  29.906  15.227  26.096  0.0241 -0.0879  0.2333
24199W        W67112  14.589  13.329   4.933  0.1372 -0.1949 -0.0182
24200W        W67113  25.154  13.065   2.360 -0.0183 -0.1996 -0.2699
24201W        W67114  16.397   9.843   4.783  0.1384 -0.1292  0.2155
24202W        W67115  28.544  20.237   7.156 -0.0701  0.3588  0.3815
24203W        W67116  18.436  28.050   6.005  0.1105 -0.0483 -0.4068
24204W        W67117  24.943  25.866  25.379  0.4269  0.2373 -0.1077
24205W        W67118  19.642  20.315   2.406 -0.1913  0.2666 -0.1984
24206W        W67119  18.114  15.782   7.580 -0.3033 -0.0494 -0.1911
24207W        W67120  22.105  13.776   4.236 -0.4003 -0.1836  0.0404
24208W        W67121  20.437  18.717   6.250  0.1475  0.4701 -0.2222
24209W        W67122  27.323  13.406   4.043  0.2474 -0.2123 -0.5137
24210W        W67123  20.595  15.407  26.169 -0.0275 -0.1188 -0.1304
24211W        W67124  20.620  11.557   4.572 -0.2632 -0.1321  0.1484
24212W        W67125  18.178  18.066   5.930 -0.0403  0.0261 -0.0852
24213W        W67126  13.911  11.970  21.060  0.3324 -0.2232  0.0557
24214W        W67127  20.386   4.348  27.332 -0.6293  0.1813  0.0994
24215W        W67128  25.309  12.435   0.762 -0.2931  0.2409  0.2298
24216W        W67129  18.790  14.703   5.686 -0.0399 -0.0847  0.1127
24217W        W67130   4.700  30.153  29.026 -0.0779 -0.0438 -0.0601
24218W        W67131  25.047  34.365   6.184 -0.1288  0.2750  0.1291
24219W        W67132  16.506  19.690  24.242 -0.2256 -0.0854  0.2229
24220W        W67133  22.405  25.992  24.564  0.2608  0.0271 -0.1692
24221W        W67134  24.901  16.909   8.376 -0.1382 -0.1845  0.0833
24222W        W67135  18.867  13.360   4.672  0.2377 -0.0517  0.0300
24223W        W67136  23.158  32.057   0.088  0.1264 -0.4034  0.0189
24224W        W67137  31.776  10.975   7.906  0.2029 -0.0711  0.1494
24225W        W67138  22.026  15.603   2.782  0.3979  0.0590  0.2545
24226W        W67139  21.370   0.764   0.475  0.1005  0.3261  0.1416
24227W        W67140  28.793  29.843   2.782  0.1722 -0.0443 -0.0911
24228W        W67141  16.003   7.226   5.686 -0.0938  0.1015  0.0853
24229W        W67142  29.449  16.034   3.656  0.1275 -0.0208 -0.0505
24230W        W67143  33.108  15.537   2.165 -0.1479 -0.0519  0.2301
24231W        W67144  16.211  21.501  29.108 -0.0737  0.0897 -0.1281
24232W        W67145  17.449  16.269   4.033  0.0981  0.1027  0.0398
24233W        W67146  21.832  22.153   7.067 -0.1223  0.1178 -0.6547
24234W        W67147  27.519  14.615  24.044 -0.0486  0.4804 -0.1806
24235W        W67148  16.839  15.383   8.111  0.4088 -0.0540  0.0959
24236W        W67149   4.204  27.587  10.174 -0.1242  0.0246 -0.2425
24237W        W67150  19.545  24.130  25.643  0.1055 -0.0271  0.0533
24238W        W67151   6.013  18.641   4.469 -0.0219 -0.3116 -0.0246
24239W        W67152  27.058  23.016  26.824  0.0253 -0.1476  0.1716
24240W        W67153  30.274  21.132   3.485 -0.3016 -0.0945  0.0762
24241W        W67154  24.072   8.219   5.305 -0.0154 -0.0318  0.0277
24242W        W67155  17.796   4.821  26.214  0.1021  0.0546  0.0407
24243W        W67156  31.117  15.681   1.998  0.4504  0.0476 -0.0215
24244W        W67157  11.037  13.944   8.790 -0.1215  0.0331 -0.0620
24245W        W67158  29.631   9.884  27.075 -0.0505  0.0848 -0.1466
24246W        W67159  32.372  13.675   6.792 -0.0422 -0.3918 -0.1477
24247W        W67160  30.344  21.785  22.509 -0.1278 -0.2221  0.0104
24248W        W67161  17.502  25.770   7.578 -0.1347  0.1585  0.0197
24249W        W67162  19.763  22.391  26.439 -0.2185  0.3365  0.3572
24250W        W67163  19.033  12.476  19.661 -0.0748 -0.2378 -0.1421
24251W        W67164  29.658   7.272   9.310  0.0171 -0.0168 -0.2530
24252W        W67165  23.955  17.012  26.544  0.1563 -0.0065  0.0951
24253W        W67166  27.383  16.723   5.236 -0.4025 -0.3218 -0.1385
24254W        W67167  18.406  17.085   3.653  0.1730  0.0940 -0.0363
24255W        W67168  30.726  18.505   3.426  0.1622 -0.2614 -0.3412
24256W        W67169   8.735   8.690   1.022  0.0378  0.2842 -0.3644
24257W        W67170  11.691  30.746   5.633 -0.1640  0.2208  0.0239
24258W        W67171  20.425  27.343   3.010 -0.1306  0.2319  0.0981
24259W        W67172  27.213  14.189   3.803 -0.0569 -0.2895  0.0214
24260W        W67173  17.021  15.400  24.650 -0.1219  0.1814 -0.1010
24261W        W67174  17.636  29.119   7.276 -0.0757  0.0996 -0.0524
24262W        W67175  29.210  19.212   4.424 -0.0429  0.0211 -0.1426
24263W        W67176  17.306  14.343  23.595 -0.0196  0.1423 -0.0016
24264W        W67177  18.374   3.462   3.689  0.0725  0.0254  0.0538
24265W        W67178  17.660  18.823   2.745 -0.2863  0.0304 -0.1724
24266W        W67179   2.738  16.467   6.043 -0.5888  0.1225  0.2060
24267W        W67180  17.070  18.708  23.556 -0.1469 -0.2401 -0.0021
24268W        W67181  23.755  15.762  28.434  0.3590 -0.0068  0.0131
24269W        W67182  21.549  11.630   4.802 -0.1675  0.0212  0.0348
24270W        W67183  28.504  12.871  29.067 -0.1634 -0.1441  0.1262
24271W        W67184  22.427  16.972  20.812 -0.1373  0.0812  0.1315
24272W        W67185  21.490  14.154   6.127  0.3481 -0.0112 -0.1154
24273W        W67186  29.652  17.591   7.856  0.2038  0.0089  0.1783
24274W        W67187  28.875   9.503  10.842 -0.0121  0.2910 -0.2542
24275W        W67188  31.074  15.074   5.249 -0.0248  0.0063  0.0260
24276W        W67189  29.115  24.788   1.976 -0.2644  0.0346  0.1618
24277W        W67190  19.243  11.303   3.204 -0.2959 -0.2355 -0.2570
24278W        W67191  33.433  22.289   4.058  0.3761 -0.3419  0.0858
24279W        W67192  24.674  18.875   7.974 -0.0962 -0.1455 -0.1862
24280W        W67193  13.923  12.360  26.861  0.4208 -0.1852  0.1728
24281W        W67194  19.558   4.037   5.143  0.2181 -0.1417  0.1546
24282W        W67195  33.800  21.941  14.402 -0.0687  0.3775  0.0075
24283W        W67196  32.075  18.312   5.776 -0.2050  0.1224 -0.0357
24284W        W67197  18.598  25.050   7.701 -0.1009 -0.0296  0.0592
24285W        W67198  21.529  16.658  28.007 -0.0551  0.1924 -0.0558
24286W        W67199  26.464  12.468   2.390  0.0532 -0.2283  0.0009
24287W        W67200  18.219   8.358   2.524  0.0741  0.1497 -0.1666
24288W        W67201  24.814  12.122   3.467  0.1063 -0.2234 -0.1310
24289W        W67202  24.103  14.380   2.788 -0.2438 -0.1980  0.1249
24290W        W67203  17.522  14.417   2.439  0.1088 -0.1854  0.0065
24291W        W67204  32.704  27.682   5.420 -0.0309 -0.0663 -0.1647
24292W        W67205  20.641  26.926  25.426  0.1048  0.2631  0.3298
24293W        W67206  28.072  15.563   3.086 -0.2771 -0.1508 -0.1433
24294W        W67207  33.528  15.791   1.304 -0.1429  0.1139 -0.0066
24295W        W67208   9.158   7.431   6.156  0.0092 -0.0858  0.2796
24296W        W67209  22.480   8.594   7.667  0.3064  0.1240 -0.0259
24297W        W67210  28.573  20.640  29.236 -0.1062  0.0372  0.0737
24298W        W67211  24.315   7.993   8.778 -0.2667  0.0099  0.2441
24299W        W67212  25.433  21.292   6.271  0.3245  0.2820  0.4355
24300W        W67213  16.059  15.253   7.979 -0.2631 -0.2579  0.0579
24301W        W67214  15.890  30.597  27.351 -0.1128  0.1205 -0.1899
24302W        W67215  18.514  11.413   2.543  0.5430 -0.1715 -0.2595
24303W        W67216  17.769  21.209   4.107 -0.0818  0.0703 -0.2042
24304W        W67217  33.393  20.857   2.550  0.2326 -0.0795 -0.1562
24305W        W67218   9.536  21.914   7.771 -0.0522 -0.4037 -0.2639
24306W        W67219  30.916  11.566   4.324 -0.0528  0.0586 -0.0128
24307W        W67220  26.132  22.462   3.139  0.1657 -0.2510 -0.0082
24308W        W67221  23.517  21.083   4.600  0.3561  0.1237 -0.0576
24309W        W67222  25.859  19.555   7.391 -0.1272  0.1310 -0.0876
24310W        W67223  24.020  18.675  28.219 -0.1180 -0.0822  0.2366
24311W        W67224  19.670  14.655   3.068  0.2281  0.3608  0.0385
24312W        W67225  14.557  11.287  29.598  0.0302 -0.1250 -0.4008
24313W        W67226  29.943  21.763   2.917 -0.2738 -0.0269 -0.0985
24314W        W67227  23.205  14.429   3.574 -0.0201  0.1658  0.0266
24315W        W67228  27.061  13.427   9.253  0.0241  0.0419 -0.0237
24316W        W67229  20.243  16.450   6.683 -0.0167  0.0636  0.0821
24317W        W67230  22.468  27.129   8.522 -0.1888  0.3753 -0.1092
24318W        W67231  19.854  14.949  25.597 -0.2091  0.0917 -0.0162
24319W        W67232  21.479  13.922   7.006  0.2250 -0.1148 -0.1311
24320W        W67233  23.154  25.215   0.831 -0.2767 -0.1700 -0.1356
24321W        W67234  22.946  14.584   7.933  0.0295  0.0116 -0.0178
24322W        W67235  27.671  33.882   7.185 -0.1292 -0.1185 -0.0369
24323W        W67236   7.649  16.883   9.489 -0.2364 -0.0739  0.2156
24324W        W67237  19.539  16.363   1.202 -0.2876  0.0201 -0.2602
24325W        W67238  24.504  15.219   5.890  0.2929  0.2167  0.0321
24326W        W67239  19.712  14.619   1.110  0.0001  0.0109 -0.2891
24327W        W67240  21.836   7.877   5.151  0.2119  0.0814  0.2677
24328W        W67241  23.147  16.525   1.210 -0.0895  0.3852  0.0314
24329W        W67242  19.736  21.991   6.788  0.1144  0.3368 -0.1173
24330W        W67243  14.280  18.644   4.810  0.0855 -0.0912 -0.1460
24331W        W67244  23.336  20.524   2.920  0.0799  0.2077 -0.2621
24332W        W67245  27.116  13.075   8.224 -0.1084 -0.0510  0.1361
24333W        W67246  26.605  12.000   8.701 -0.1315 -0.2441 -0.2303
24334W        W67247  27.135   7.823   6.590  0.0022 -0.0455 -0.0817
24335W        W67248  29.250  19.217   2.600  0.0655 -0.0330  0.0394
24336W        W67249  27.961  13.727   8.326 -0.0468  0.0372  0.1757
24337W        W67250  20.264  11.750  29.340  0.0853 -0.1679  0.0674
24338W        W67251  27.525  10.634   0.834  0.0059  0.0988 -0.2721
24339W        W67252  30.088   7.709  22.454  0.0855 -0.0581 -0.0128
24340W        W67253  28.976  17.269   5.816  0.0542  0.0218  0.0750
24341W        W67254  15.041  15.347   2.111  0.0218 -0.1401 -0.0650
24342W        W67255  22.479  14.032   1.939  0.0118 -0.1750  0.0068
24343W        W67256  22.818  13.152   3.201  0.0225 -0.0282 -0.3722
24344W        W67257  18.723  26.791   5.771  0.2963  0.1099 -0.1750
24345W        W67258  16.790  15.772  24.360  0.1024 -0.1617 -0.1433
24346W        W67259  21.285   2.628   5.824 -0.2325 -0.2702 -0.2892
24347W        W67260  25.219  14.667   0.940  0.0108 -0.0837 -0.0068
24348W        W67261   2.402  27.021   2.820 -0.0919 -0.1827 -0.1410
24349W        W67262  20.883  19.327   0.982  0.0377 -0.0635  0.0075
24350W        W67263  26.426  15.598   2.226 -0.5009 -0.3774  0.1444
24351W        W67264  19.083  11.989   2.647 -0.3159 -0.2301  0.1131
24352W        W67265  34.378  18.613   7.061  0.3749  0.0255 -0.2051
24353W        W67266  17.962   8.405   6.661  0.2248  0.4121 -0.1896
24354W        W67267  24.707  11.808   2.377 -0.1556 -0.2984 -0.1632
24355W        W67268  19.001   2.716   0.720 -0.2715 -0.1569 -0.0244
24356W        W67269  16.675  12.193   3.495  0.0765  0.0346 -0.2891
24357W        W67270  15.229  17.469   7.544 -0.3247  0.0585 -0.1887
24358W        W67271  19.664  18.624   7.066 -0.1204 -0.2155 -0.0961
24359W        W67272  22.812   9.351   8.764 -0.1193  0.1837 -0.0682
24360W        W67273  24.415  17.755   0.951 -0.1620  0.0467  0.0427
24361W        W67274  20.975  23.065   5.394 -0.1938 -0.0092  0.1705
24362W        W67275  28.866  19.484  10.008  0.0174  0.0049 -0.0105
24363W        W67276  28.266  18.768   8.538 -0.0683  0.0914 -0.0848
24364W        W67277  25.099  12.752   1.536  0.0199  0.0242  0.5680
24365W        W67278  20.698  13.926   5.994 -0.0425  0.0045 -0.0938
24366W        W67279  15.107   8.997   7.941 -0.0794  0.5608 -0.1441
24367W        W67280  20.717  33.040   2.998 -0.1665 -0.2166 -0.0758
24368W        W67281  22.535  10.898   7.828  0.1329  0.3169 -0.0465
24369W        W67282  22.946  18.437  26.406 -0.0402 -0.3485  0.3300
24370W        W67283  26.473  12.532   0.145  0.3643 -0.0859 -0.0196
24371W        W67284  31.726  25.128   7.321  0.0394  0.1501 -0.4593
24372W        W67285  19.110  15.970  22.404 -0.2235 -0.2097 -0.0625
24373W        W67286  28.869   6.596   9.175  0.0183 -0.2407 -0.1802
24374W        W67287  21.258   6.467   3.951 -0.0063 -0.2483  0.2507
24375W        W67288   0.412  16.940  26.137  0.1253 -0.0996 -0.2823
24376W        W67289   3.936  14.486  28.359 -0.3176 -0.1137  0.1597
24377W        W67290  25.620  18.213   7.342 -0.0942 -0.0116 -0.0202
24378W        W67291  18.664  11.775   4.924 -0.1120  0.0943  0.1682
24379W        W67292  25.147  29.800   4.273  0.1821 -0.2625  0.1446
24380W        W67293  18.285  20.999   4.224  0.1585  0.1667  0.0862
24381W        W67294  17.639  13.943   5.245  0.2317 -0.0838  0.0039
24382W        W67295  30.798  15.457   5.485  0.1263 -0.0513  0.2938
24383W        W67296  13.242   5.868  28.011  0.0684 -0.1323  0.2180
24384W        W67297  26.404   3.430  28.219 -0.1708 -0.3130  0.0443
24385W        W67298  25.126  12.434   5.757 -0.1047 -0.1192  0.0433
24386W        W67299  31.669  16.589   1.528  0.2035  0.3707 -0.2178
24387W        W67300  33.889  13.070   6.722 -0.0236  0.2327  0.2983
24388W        W67301  18.379  32.076   7.070 -0.0350 -0.2220  0.1884
24389W        W67302  25.565  12.463   5.963 -0.0959  0.2184  0.0082
24390W        W67303  18.933   1.393   9.499  0.0933 -0.1578 -0.3666
24391W        W67304  21.289  16.889   2.411 -0.0761  0.2297 -0.1489
24392W        W67305  13.317  19.548   6.676  0.0219 -0.2442  0.2588
24393W        W67306   0.505  12.340   8.450 -0.0745  0.0160 -0.0197
24394W        W67307  20.502  13.776   3.859  0.1419 -0.3430 -0.0542
24395W        W67308  25.099  11.206   8.662  0.1442 -0.1216  0.1535
24396W        W67309  19.652  22.593   4.241  0.1643  0.0838 -0.1861
24397W        W67310  13.823  16.492  29.716 -0.0377  0.1247  0.1765
24398W        W67311  23.241   7.899   6.885  0.0744 -0.3936 -0.0261
24399W        W67312  19.423  18.342   0.221  0.0925  0.4862  0.0670
24400W        W67313  30.935  20.353   3.415 -0.0939  0.0854  0.3846
24401W        W67314  20.287  16.453   2.417  0.0384 -0.3753 -0.0234
24402W        W67315  20.972  22.089   6.850 -0.1771 -0.0271 -0.0420
24403W        W67316  22.473   7.314   3.727  0.0750  0.1459  0.0766
24404W        W67317  24.474   8.264   6.200  0.1418  0.0765  0.0705
24405W        W67318   5.696  16.205   7.831  0.1380 -0.2283  0.3714
24406W        W67319  15.178  10.199  27.120  0.0006  0.0815 -0.1927
24407W        W67320   8.806  23.054  28.947 -0.2394  0.1107  0.3397
24408W        W67321  28.652  10.339  10.051  0.2180  0.1854 -0.1383
24409W        W67322  15.338  12.830   8.334  0.1074 -0.0403  0.0114
24410W        W67323  22.679   7.472   8.819  0.0607  0.1584 -0.0064
24411W        W67324  18.233  18.606  29.771  0.1364  0.2623 -0.3987
24412W        W67325  29.707  12.476   3.754  0.0874  0.1012 -0.1660
24413W        W67326  22.352  17.742   6.123  0.1239  0.1101  0.0093
24414W        W67327  29.652  12.369   5.026 -0.0795  0.0410  0.2381
24415W        W67328  10.378   6.860   9.858 -0.0356  0.2327  0.1043
24416W        W67329  20.803  11.892   2.201 -0.1013 -0.0200 -0.1484
24417W        W67330  20.993   0.301   6.066 -0.0352  0.1900  0.1899
24418W        W67331  16.807   6.710   7.108 -0.2734 -0.1199 -0.1072
24419W        W67332  34.261   8.264   0.817  0.1457  0.0200 -0.2984
24420W        W67333  18.653  13.303   5.560 -0.0787  0.0376 -0.1092
24421W        W67334  15.510  13.134   7.895 -0.1436 -0.0912 -0.0252
24422W        W67335  25.440  21.799   5.318  0.3412  0.0281  0.0265
24423W        W67336  22.343   5.294   1.107 -0.0275 -0.0611 -0.0539
24424W        W67337  32.953  12.788   9.500  0.2657 -0.0134 -0.0372
24425W        W67338  22.452  18.521  28.270  0.0443 -0.0274  0.0163
24426W        W67339  11.755  13.802  29.398  0.3941 -0.0752  0.0739
24427W        W67340  23.680  16.894   3.224  0.0735  0.1384  0.0260
24428W        W67341  26.333  13.224   9.296  0.0368  0.0164  0.1482
24429W        W67342   2.116  13.653  26.962  0.2259  0.2664 -0.2741
24430W        W67343  22.342   8.969   6.507  0.0955 -0.0445  0.1713
24431W        W67344  28.728   8.818  25.808  0.0212  0.1417  0.3471
24432W        W67345  18.854  18.951   8.122  0.1375  0.1362  0.2799
24433W        W67346   2.263   7.127   7.259 -0.0299  0.2858  0.3118
24434W        W67347  17.002  14.828   2.773 -0.0438  0.2185  0.2222
24435W        W67348  21.757  25.676   0.976 -0.2423 -0.2924 -0.2521
24436W        W67349  27.830  12.476   6.131  0.0332 -0.0590 -0.0420
24437W        W67350  17.415  18.119   2.909  0.0699  0.4338 -0.1859
24438W        W67351  20.232   4.255   3.141 -0.0228 -0.1231  0.1352
24439W        W67352  30.339  22.010   1.408  0.2167 -0.1865  0.0913
24440W        W67353  23.482  15.178   5.568  0.0306  0.0026  0.1707
24441W        W67354  17.584   3.405   3.492 -0.2139  0.3965 -0.2477
24442W        W67355  18.286  17.563  27.458  0.0486  0.1137 -0.1034
24443W        W67356  24.124  17.012   5.388  0.2156 -0.1096  0.1011
24444W        W67357  17.250  16.082  27.591  0.1366  0.0978  0.2899
24445W        W67358  26.253   6.261   5.702 -0.0926 -0.2263 -0.3036
24446W        W67359  27.597  14.231   8.799  0.2330  0.1595  0.1946
24447W        W67360  30.846  14.559   6.572  0.0371 -0.2430  0.0362
24448W        W67361  18.919  15.369   6.291 -0.0861  0.0749  0.0995
24449W        W67362  15.858  11.544   6.933 -0.0273  0.4477 -0.0326
24450W        W67363  17.512   4.635   7.709 -0.0023 -0.3410 -0.0070
24451W        W67364  18.790  19.213   6.014 -0.1813  0.1147 -0.0765
24452W        W67365  17.166  14.594  27.609 -0.3028 -0.0905 -0.0319
24453W        W67366  15.020  14.740  28.479  0.0951  0.0796 -0.3037
24454W        W67367  23.804  18.356   2.729 -0.1416  0.0732 -0.0221
24455W        W67368  21.985   6.807   8.543  0.0630 -0.3905 -0.0530
24456W        W67369  28.354  14.179   7.900 -0.3076  0.2131  0.2139
24457W        W67370  19.715  18.745   4.909  0.0218 -0.1711  0.0724
24458W        W67371  21.727  19.843   4.522  0.0641 -0.2920  0.1031
24459W        W67372  15.603  20.455  24.316  0.0307  0.1775  0.1434
24460W        W67373  19.531  20.237   2.896 -0.0297 -0.1543 -0.1486
24461W        W67374  25.874  12.837   9.457  0.2206 -0.3916  0.1403
24462W        W67375  18.821  11.794   2.241  0.1033 -0.0702 -0.3340
24463W        W67376  27.318   4.041   6.793  0.1403 -0.1179 -0.2273
24464W        W67377   1.292  11.111   9.013 -0.0965  0.2342  0.1550
24465W        W67378  23.781  20.679   7.302  0.1751 -0.3248 -0.1295
24466W        W67379  20.766  21.651   0.396  0.0964  0.1721 -0.2372
24467W        W67380  28.030  15.384  25.108 -0.0347 -0.0363 -0.0498
24468W        W67381  14.953  12.022   1.597 -0.1885  0.1379 -0.1219
24469W        W67382  19.791  23.791   6.565  0.0177  0.1064 -0.0606
24470W        W67383  26.619  10.243   8.593 -0.3191  0.1165  0.1173
24471W        W67384  22.094  17.988   6.656  0.2198 -0.0257  0.1879
24472W        W67385   0.613  24.533   2.983 -0.1443 -0.4022  0.0434
24473W        W67386  19.265  11.650   7.736 -0.0704 -0.0780 -0.2466
24474W        W67387  31.002  24.592   3.345 -0.1803  0.0342 -0.2100
24475W        W67388  22.808  19.178   8.779 -0.0188  0.1380  0.0038
24476W        W67389  29.678   5.558   9.635 -0.0807  0.0120 -0.3279
24477W        W67390   2.863   3.179   8.950 -0.4103 -0.1997  0.1341
24478W        W67391  22.875  16.967   0.981 -0.2836 -0.0605  0.0589
24479W        W67392  23.640  25.825   3.850  0.1414 -0.2211 -0.0602
24480W        W67393  29.796   9.708  10.110 -0.1266 -0.1863 -0.1270
24481W        W67394  30.006  17.367   2.638 -0.2370 -0.0890  0.2759
24482W        W67395  21.945  11.827   3.391 -0.0927  0.0895  0.2520
24483W        W67396  27.418  18.722   8.470  0.0459 -0.0438 -0.4744
24484W        W67397  26.668  19.448   0.061 -0.0039  0.0308  0.3805
24485W        W67398  25.509  17.102   6.937 -0.2279  0.1118  0.0962
24486W        W67399  19.298   8.057   6.914  0.3398 -0.0772  0.0098
24487W        W67400  22.422  13.780   3.062  0.1703  0.1069 -0.0390
24488W        W67401  15.170  19.781   2.959 -0.2955  0.0456  0.1508
24489W        W67402   4.146  19.189   7.139 -0.0047 -0.0490  0.1852
24490W        W67403  32.599   8.002   4.680 -0.0020 -0.1386 -0.1101
24491W        W67404  20.460  19.965  25.594 -0.1363 -0.2248 -0.1427
24492W        W67405  27.497  16.766   6.231  0.1071  0.0417 -0.0959
24493W        W67406  25.912  20.873   6.960 -0.0159 -0.0985  0.3333
24494W        W67407  18.134  26.397  10.141  0.1283  0.2876  0.3825
24495W        W67408   9.414  16.135   0.894  0.2886  0.0512 -0.0636
24496W        W67409  14.851  25.905   8.340  0.2037 -0.0969  0.1665
24497W        W67410  31.121   9.177   7.562  0.0640 -0.0630 -0.1790
24498W        W67411   9.862  11.199   3.791 -0.3265 -0.1703 -0.3922
24499W        W67412  22.860   9.390   4.042 -0.0478 -0.3142  0.1505
24500W        W67413  25.662  14.081   5.325  0.1464 -0.0856 -0.0217
24501W        W67414  24.077  15.914   6.414 -0.3805 -0.6220 -0.3089
24502W        W67415  12.884   7.126  26.884 -0.2274  0.0159 -0.2552
24503W        W67416  16.144  13.031   4.643  0.1555  0.2347 -0.0113
24504W        W67417  23.964  15.387   6.522 -0.0690 -0.4916 -0.0712
24505W        W67418  25.414   9.369   7.597 -0.2110  0.0898 -0.0101
24506W        W67419  27.066  18.046   6.383 -0.2260 -0.2295 -0.1762
24507W        W67420   1.840  20.081   6.947  0.1474  0.0422  0.3239
24508W        W67421  16.654   8.537  28.487 -0.2564 -0.1074 -0.2819
24509W        W67422  17.592  24.221   8.373 -0.0754 -0.1080 -0.2007
24510W        W67423  19.704  11.596   1.794  0.0293 -0.1166 -0.1050
24511W        W67424  21.718   7.044   8.119  0.1304 -0.0097 -0.3493
24512W        W67425  27.479  17.432   0.063  0.2352  0.0492  0.1935
24513W        W67426  16.737   8.528  28.964 -0.1401 -0.3340 -0.0038
24514W        W67427  33.592  14.211   3.295 -0.1623  0.0747 -0.0348
24515W        W67428  17.741  10.461   6.284  0.0315 -0.1855  0.0234
24516W        W67429  29.325   8.645   7.188  0.1040 -0.1831 -0.0653
24517W        W67430  20.239  11.272   6.599 -0.0079  0.0329 -0.2369
24518W        W67431   0.487  16.765   9.185  0.2073 -0.1009  0.0889
24519W        W67432  22.625  25.243   3.208 -0.0298 -0.2737 -0.0933
24520W        W67433  14.876  23.184   6.001  0.0137  0.0485  0.3015
24521W        W67434  18.224  19.305   6.719 -0.3755  0.0409 -0.2948
24522W        W67435  18.142  22.588   5.503  0.3337  0.0613 -0.4167
24523W        W67436  13.972  12.710   8.142 -0.1873  0.2829  0.0025
24524W        W67437  24.960  13.032   9.392  0.1131 -0.0308 -0.1889
24525W        W67438  24.476  21.320   4.820 -0.1050 -0.0251  0.2580
24526W        W67439  27.305  15.729   4.180 -0.0272  0.1979 -0.2220
24527W        W67440  18.902  31.596   2.843 -0.2428  0.2032 -0.2640
24528W        W67441  19.115  20.808  29.377  0.1492  0.5969  0.1367
24529W        W67442  18.305  11.718   3.554 -0.1194  0.1307 -0.3128
24530W        W67443  26.320  22.343   6.785 -0.0981  0.0102  0.2618
24531W        W67444   7.515  12.337   8.268 -0.2823 -0.1953 -0.0225
24532W        W67445  22.993  20.880   5.223  0.0172  0.1079  0.0482
24533W        W67446  33.554  15.842   4.512 -0.0916 -0.1364 -0.2812
24534W        W67447  25.043   9.473   0.563  0.1900  0.0944 -0.1254
24535W        W67448  16.021  18.191   1.753 -0.2346 -0.2747  0.0840
24536W        W67449  21.739  13.009   6.480 -0.4817  0.4510  0.4019
24537W        W67450  24.098  16.499   6.548  0.1587  0.0531  0.0912
24538W        W67451  20.586  10.779  29.001  0.1571  0.0633 -0.0290
24539W        W67452  13.706  21.378   2.123  0.1495  0.0896  0.1442
24540W        W67453  17.024  17.100  28.683 -0.1832  0.1011  0.2913
24541W        W67454  27.139   9.462   7.523  0.1884 -0.3741  0.4200
24542W        W67455  23.738   8.821   6.307  0.0191 -0.1031 -0.0931
24543W        W67456  28.324  14.316   1.878  0.1092 -0.1814 -0.3375
24544W        W67457  20.421   1.861   8.174  0.1957  0.4194 -0.2589
24545W        W67458   1.102  20.933   4.138  0.2699  0.0319 -0.0136
24546W        W67459  16.091  19.267   0.348 -0.0536  0.1879  0.0593
24547W        W67460  26.244  14.240   6.109 -0.0232  0.0310 -0.1831
24548W        W67461  29.508   9.517   0.622 -0.0528  0.2109  0.1309
24549W        W67462  28.286  13.309   6.501 -0.0951  0.1705 -0.1003
24550W        W67463  22.208  10.742   4.800 -0.0101 -0.4260  0.1280
24551W        W67464  26.523  13.205  10.103 -0.1040  0.2667 -0.3072
24552W        W67465  22.182  15.801   7.072  0.4511  0.1467 -0.0702
24553W        W67466  25.291   9.269   0.922  0.1087  0.0047  0.4503
24554W        W67467  29.813  18.663   9.600  0.3083  0.0517 -0.3032
24555W        W67468  27.957   5.940   4.947  0.0401 -0.2457 -0.3224
24556W        W67469  16.474  18.928   2.326  0.0189  0.0728 -0.0346
24557W        W67470  22.441  11.595  25.940  0.2694 -0.0320  0.1957
24558W        W67471  32.976  16.802   2.194  0.1206  0.0126  0.1268
24559W        W67472  19.702   4.860   2.916  0.0983  0.2900  0.1901
24560W        W67473  17.339  12.108   2.225  0.2304  0.0954 -0.0770
24561W        W67474   1.675   8.057   3.018 -0.1120 -0.0140 -0.0855
24562W        W67475  31.273   5.958   2.366 -0.0874  0.4301 -0.1781
24563W        W67476  19.843   6.903  25.640  0.0940  0.1343 -0.3849
24564W        W67477  24.344   8.662   9.813  0.0227 -0.3574  0.1535
24565W        W67478  21.725  21.038   2.084  0.1343  0.0096 -0.0055
24566W        W67479  23.853  13.878   7.212  0.0158 -0.1583 -0.0804
24567W        W67480  22.964  15.311   5.339  0.1046 -0.2751 -0.3097
24568W        W67481  29.937  21.049  25.938 -0.0446  0.0100 -0.2408
24569W        W67482  19.758  21.281   4.967  0.0879 -0.3939 -0.0570
24570W        W67483  20.081   7.807   7.148  0.2875 -0.1342  0.3043
24571W        W67484  20.875  10.271   2.613  0.3351 -0.1229  0.1634
24572W        W67485   1.801  14.590  24.368  0.3668  0.3758  0.0621
24573W        W67486  31.293  10.231   3.570  0.0666  0.0674 -0.2164
24574W        W67487  23.046   9.842   4.184  0.0555  0.0682  0.2620
24575W        W67488  29.472  22.076   8.411 -0.0018 -0.1801  0.0373
24576W        W67489  21.612  14.270   2.486 -0.2221 -0.0119  0.4215
24577W        W67490  23.900  10.142   8.778 -0.3199 -0.0321  0.1607
24578W        W67491  28.983  16.486   8.964  0.0822 -0.0612  0.0194
24579W        W67492  23.446  14.911  27.619 -0.0961 -0.4135 -0.4186
24580W        W67493  26.151  25.872   3.995 -0.1639  0.4367 -0.0755
24581W        W67494  15.181  16.797  29.054  0.2680 -0.0988 -0.1769
24582W        W67495  16.147  12.231   1.327 -0.1144 -0.0032 -0.2232
24583W        W67496  25.303  18.070   4.754  0.0265 -0.1334  0.0465
24584W        W67497  23.776  14.979   6.967  0.0366 -0.1785 -0.0701
24585W        W67498  29.930  17.909   2.013 -0.1760 -0.0039 -0.1910
24586W        W67499  26.025  21.303  26.199  0.1365 -0.2933 -0.1911
24587W        W67500  33.470  20.434   7.909 -0.2692 -0.1186 -0.0803
24588W        W67501  30.030  21.005   8.436  0.2538 -0.1983  0.2363
24589W        W67502  20.902  16.877   8.168  0.1670 -0.0744  0.2310
24590W        W67503  21.379   6.084   1.782  0.3399 -0.1907 -0.2318
24591W        W67504  20.041  24.672   5.341  0.0536  0.0844  0.1598
24592W        W67505  18.914  15.305   0.839  0.2942 -0.0468  0.0713
24593W        W67506  23.925  26.923  24.202  0.0488  0.1722 -0.5221
24594W        W67507  27.023  13.578   5.039  0.1523  0.0497  0.0194
24595W        W67508  13.451  20.441  27.091  0.0164  0.0621 -0.0220
24596W        W67509  29.282  15.531   4.454  0.0046  0.0353 -0.2414
24597W        W67510  22.473  15.146   5.206 -0.1289  0.2129 -0.0329
24598W        W67511  18.416   7.213   5.063  0.2647  0.0754  0.0756
24599W        W67512  18.438  20.149   1.900  0.1413  0.2653 -0.1209
24600W        W67513  16.390  21.153   7.759 -0.0651  0.0442 -0.0118
24601W        W67514  27.924  18.360  27.240  0.1450  0.1192  0.2923
24602W        W67515  17.938  13.682  28.585  0.1524  0.1046  0.3312
24603W        W67516  23.659   7.265   1.222  0.1860 -0.1554 -0.0931
24604W        W67517  21.475  18.344   8.874 -0.0118 -0.0250 -0.0613
24605W        W67518  16.160  19.935  28.201  0.1251 -0.0568  0.1442
24606W        W67519  27.610   8.743   9.156 -0.2790  0.1520  0.0548
24607W        W67520  16.835   7.380  10.210 -0.5303  0.0369  0.0968
24608W        W67521  20.237   6.743   8.445 -0.1648 -0.0016  0.3065
24609W        W67522  22.036  15.762   4.666 -0.1617  0.1761  0.2309
24610W        W67523  23.397  12.762  22.875  0.1032 -0.0141  0.1502
24611W        W67524  27.374  16.925   9.257 -0.3826  0.1314  0.1260
24612W        W67525  22.776  14.028   4.996 -0.1142  0.1823 -0.1740
24613W        W67526  21.015  17.798  27.602 -0.2867 -0.2289  0.0402
24614W        W67527  20.683  11.855   3.150 -0.0061 -0.1578 -0.2095
24615W        W67528  21.690   2.499  21.540  0.0965 -0.2447  0.2367
24616W        W67529  27.893   7.520   5.824  0.1594 -0.2243 -0.2460
24617W        W67530  15.839   9.860   7.448 -0.3265 -0.2210 -0.0644
24618W        W67531  18.516  23.705  27.564 -0.3342 -0.0904 -0.2102
24619W        W67532  20.532  11.385   1.851  0.0566 -0.0065  0.0143
24620W        W67533  27.805  20.952   3.731  0.3852 -0.1269  0.3031
24621W        W67534  16.777  15.170   6.220 -0.1315  0.1974 -0.2385
24622W        W67535  14.813  12.871   4.056 -0.1409 -0.3568 -0.2636
24623W        W67536  20.363  15.304  21.682  0.1372 -0.1466  0.0504
24624W        W67537  18.256  18.260   6.428  0.1984 -0.0640 -0.0184
24625W        W67538  14.023  13.183   4.873  0.8347 -0.5049  0.1132
24626W        W67539  22.291  13.866   2.512 -0.0068 -0.2794 -0.0013
24627W        W67540  15.120  27.649   8.991 -0.3223 -0.1825  0.0360
24628W        W67541  17.674  10.905   3.474 -0.1575 -0.0356  0.2286
24629W        W67542  34.259  17.070   7.588 -0.0472 -0.1304  0.0482
24630W        W67543  22.310  16.787   3.217 -0.2324  0.2018 -0.1236
24631W        W67544  20.792   3.623   6.961  0.0605 -0.0292  0.3790
24632W        W67545  23.950   7.802   2.086 -0.0994  0.0269  0.0114
24633W        W67546  16.677  14.386   5.504 -0.0303  0.0593  0.0660
24634W        W67547   8.877  19.652   1.895  0.1696 -0.1717 -0.2295
24635W        W67548  18.310  12.692   3.579 -0.1024 -0.1294 -0.2603
24636W        W67549  20.561  13.791   8.644 -0.1306 -0.1996 -0.0376
24637W        W67550  14.809   7.566   9.730  0.0209  0.1288  0.4138
24638W        W67551  17.700   7.719   7.352 -0.1064 -0.0682  0.2713
24639W        W67552  33.229  23.907  29.631  0.1792  0.2284  0.0307
24640W        W67553   7.052  11.835   0.672 -0.0737  0.1629 -0.5916
24641W        W67554  21.765   9.786   7.589 -0.2371  0.0213 -0.0091
24642W        W67555  27.116  18.197   5.515  0.2533 -0.0718  0.0326
24643W        W67556  24.093  18.972   4.342 -0.2258  0.3732 -0.0963
24644W        W67557   1.355  23.980   4.278 -0.2398 -0.3969 -0.2583
24645W        W67558  14.633  15.815   7.961 -0.1656  0.1594  0.0420
24646W        W67559  16.477  22.379  28.979 -0.0911  0.0693  0.0490
24647W        W67560  16.498  15.940   2.226 -0.0870 -0.0905  0.2156
24648W        W67561  21.198  26.460   3.292  0.0459  0.1035  0.0604
24649W        W67562  20.836  24.313   7.129  0.1225  0.0400 -0.0116
24650W        W67563  11.268   9.307  23.435  0.1577  0.2621  0.2549
24651W        W67564  19.603   6.114   0.655 -0.1046  0.0664 -0.0601
24652W        W67565  18.882  18.349   4.164  0.3813  0.1759  0.1479
24653W        W67566  18.698  13.578   7.474  0.1083 -0.0539 -0.0436
24654W        W67567  19.386  12.363   4.918  0.0303 -0.1485 -0.2398
24655W        W67568  26.873  20.196   7.888 -0.1506 -0.1166  0.2581
24656W        W67569  20.769  15.150   8.312 -0.2190 -0.1408 -0.1145
24657W        W67570  16.906  28.011   5.590  0.3288 -0.3625 -0.2857
24658W        W67571  22.159  15.090   2.859 -0.0858 -0.0687 -0.4797
24659W        W67572  19.286  13.618   0.483  0.0374 -0.5414 -0.0542
24660W        W67573  25.916  19.944   2.403 -0.0505 -0.1745 -0.2431
24661W        W67574  17.348  16.227   6.837 -0.1662 -0.0850 -0.0939
24662W        W67575  30.965  16.369   9.011 -0.0580  0.1035 -0.2492
24663W        W67576  31.598  22.232   8.542 -0.0790  0.1817  0.0772
24664W        W67577  13.856   6.850   9.845  0.1561  0.0966  0.0862
24665W        W67578  17.043  22.766   5.374  0.0783 -0.0240 -0.0603
24666W        W67579  27.597  14.105   8.144  0.2892 -0.1803  0.0808
24667W        W67580  13.608  21.274   7.842 -0.0002  0.2359  0.2687
24668W        W67581  30.162   9.769   3.940 -0.0721  0.0156 -0.0951
24669W        W67582  20.440  13.238   8.629 -0.0259 -0.6140  0.0073
24670W        W67583  28.774  23.516   6.421 -0.6856  0.0157  0.0544
24671W        W67584   9.306   4.276   6.233  0.2123 -0.1105  0.0927
24672W        W67585  21.837  12.505  19.903  0.1614 -0.2921  0.3753
24673W        W67586  23.946  11.822   8.309  0.0460  0.0157  0.0510
24674W        W67587  20.478  11.737  26.146 -0.1895 -0.1994  0.1461
24675W        W67588  20.139   8.323   8.007  0.1758 -0.1308 -0.0888
24676W        W67589  31.416  22.523   2.889  0.0279 -0.0464 -0.0707
24677W        W67590  27.000  23.351  28.573  0.1769  0.1849 -0.0951
24678W        W67591  22.227  17.567   7.632 -0.4087  0.1439 -0.1335
24679W        W67592  17.726   3.355   6.147 -0.0103  0.0471  0.0637
24680W        W67593  22.166  21.405   6.059  0.1325  0.1936 -0.1148
24681W        W67594  24.623  10.706   6.277 -0.1900 -0.0663 -0.0432
24682W        W67595  21.135  16.093   1.381  0.0086 -0.0706  0.0242
24683W        W67596  19.968  22.515  27.569 -0.0176  0.1110  0.2048
24684W        W67597  15.704  26.386   5.603 -0.3206  0.0348  0.3784
24685W        W67598  22.262  23.713   6.802 -0.1315  0.1280  0.0487
24686W        W67599  28.444  15.730   1.677  0.3975 -0.0301 -0.0644
24687W        W67600  21.281  27.277  24.442  0.0868  0.0672  0.1435
24688W        W67601  28.283  19.591  26.035 -0.1604  0.0291  0.2461
24689W        W67602  22.008  18.117   0.224 -0.0764 -0.2525  0.2261
24690W        W67603  26.405  17.280  27.467  0.1904 -0.1271  0.1561
24691W        W67604  20.134  17.737   4.215  0.1071  0.0910 -0.2894
24692W        W67605  20.734  19.252   5.244 -0.5431  0.1489 -0.0532
24693W        W67606   0.094  17.884   7.637 -0.0754 -0.1548 -0.0916
24694W        W67607  31.198  15.985   5.336 -0.1608  0.0242  0.2206
24695W        W67608  31.635  30.514  25.841  0.0348  0.0735 -0.0002
24696W        W67609  23.243  23.340  27.118  0.1754 -0.1030  0.4335
24697W        W67610  15.519  28.988   5.968 -0.1357  0.0996  0.0620
24698W        W67611  29.529  21.315  22.298  0.0900  0.0121 -0.1129
24699W        W67612  21.741  14.737  28.254 -0.1403  0.0059 -0.2415
24700W        W67613  17.582  16.624  29.285  0.0634  0.0957 -0.0362
24701W        W67614  21.161  16.108   0.122 -0.0476  0.4257 -0.2170
24702W        W67615   9.704  27.411   9.286  0.0221  0.0674 -0.0449
24703W        W67616  21.866  28.713  26.054  0.0497 -0.1336 -0.2265
24704W        W67617  31.057  21.719  25.883 -0.0300 -0.2892 -0.0645
24705W        W67618  10.467  14.014   4.592  0.0751 -0.0648 -0.2148
24706W        W67619  13.747  22.659  27.290  0.1763  0.1744  0.0484
24707W        W67620  15.424  28.383   2.902 -0.0674 -0.1753 -0.0506
24708W        W67621   1.332  21.300  27.213 -0.2065  0.0595  0.1500
24709W        W67622  25.827  32.177   8.337 -0.0550 -0.1574 -0.3113
24710W        W67623   7.141  26.090   3.462  0.0444  0.1529 -0.2164
24711W        W67624  19.491  11.143  27.608  0.1715 -0.0812 -0.2115
24712W        W67625   0.847  16.865  29.360  0.1248  0.1110 -0.2944
24713W        W67626  22.566  20.438   1.217 -0.0697  0.1302  0.2667
24714W        W67627  23.958  14.346   0.180  0.0784 -0.1486 -0.0919
24715W        W67628  25.238   9.994  23.522  0.0517 -0.1667  0.0803
24716W        W67629  24.704  13.548  27.608 -0.1046 -0.1442  0.0558
24717W        W67630  26.897  16.348   9.068 -0.3008  0.0716  0.2462
24718W        W67631  11.465  17.923   4.317 -0.0030 -0.0481 -0.1133
24719W        W67632  18.613  20.488   5.320 -0.0000 -0.1461  0.1928
24720W        W67633  14.835  23.345  29.065 -0.2324 -0.0968 -0.0283
24721W        W67634  20.187  21.686  16.370  0.0579 -0.1162  0.0063
24722W        W67635  26.032  26.065  21.843 -0.1780 -0.2792 -0.0564
24723W        W67636  21.661  23.295   4.623 -0.2472 -0.1387  0.2641
24724W        W67637  22.348   1.053  15.156  0.4002 -0.2220  0.0290
24725W        W67638  33.508  14.671   2.173 -0.0559 -0.0567 -0.0080
24726W        W67639  25.766  29.956  28.669  0.3241  0.1988  0.0586
24727W        W67640  28.052  20.131   2.083  0.0176 -0.0964  0.1773
24728W        W67641  18.258  23.460  28.249 -0.1850  0.3223 -0.1040
24729W        W67642  17.672  21.006  22.951 -0.0954  0.4123 -0.0654
24730W        W67643  26.443  26.713  25.873 -0.1415  0.0434 -0.0597
24731W        W67644  27.155  24.874   4.756 -0.4094 -0.0329  0.2884
24732W        W67645  19.405  16.496   0.160  0.3113  0.3577 -0.1031
24733W        W67646  25.179  23.313  19.166 -0.1408  0.0990  0.0299
24734W        W67647  26.999  22.325   0.739  0.3653 -0.1218  0.0140
24735W        W67648  25.193   5.500  29.349 -0.0742 -0.0314  0.1701
24736W        W67649  24.905  19.991  26.887 -0.1354 -0.0516 -0.3094
24737W        W67650  14.471  21.214  20.459 -0.1074  0.0686  0.0909
24738W        W67651  29.738  18.339   3.435 -0.0753  0.1856  0.1538
24739W        W67652  22.556  12.611   1.973 -0.1326 -0.1995 -0.0298
24740W        W67653  23.861  24.816   3.811 -0.0917 -0.1837 -0.0578
24741W        W67654  21.402  31.081   2.318 -0.0980  0.0520 -0.0643
24742W        W67655  31.015  24.239  28.982  0.1393  0.1819 -0.3880
24743W        W67656  20.468  33.465  29.626 -0.0858 -0.1911  0.0422
24744W        W67657  31.198  22.392   3.792  0.2586  0.0572  0.2731
24745W        W67658  26.630  25.597  23.083 -0.0717  0.0199  0.1474
24746W        W67659  16.906  20.691  19.205  0.0248 -0.0196  0.0361
24747W        W67660  30.242  15.130   0.617  0.4317  0.1010 -0.0706
24748W        W67661  22.563  24.762   7.069 -0.0747 -0.3095 -0.2372
24749W        W67662  18.045  16.816   1.438  0.0370 -0.2366  0.0162
24750W        W67663  13.966  16.967  17.085 -0.0885 -0.2947 -0.3488
24751W        W67664  17.574  19.897  29.646  0.0895 -0.1858  0.4836
24752W        W67665   7.364  24.123   0.423  0.2423  0.2430  0.1949
24753W        W67666  27.702  23.542  29.553  0.0639 -0.1306  0.1388
24754W        W67667  33.816  23.570   4.387  0.1759 -0.4008 -0.0940
24755W        W67668  23.309  18.956   1.961  0.0382  0.2207 -0.1275
24756W        W67669  13.808   3.138  10.150  0.0625  0.2432  0.2703
24757W        W67670  18.427  31.168   6.592  0.0524 -0.1371  0.1928
24758W        W67671  26.415  13.539   8.059  0.0030  0.0251 -0.1435
24759W        W67672  18.989   1.595  24.914 -0.3020  0.2056 -0.0511
24760W        W67673  31.058  17.759   4.552  0.1246  0.1305 -0.3356
24761W        W67674  30.618  24.355   5.407 -0.2088 -0.1358  0.1699
24762W        W67675  23.484  21.286   1.814  0.1086 -0.1067  0.0057
24763W        W67676  22.654  21.314   3.148  0.1358 -0.1403 -0.1398
24764W        W67677  15.506  25.458   6.080 -0.0115  0.0310 -0.0429
24765W        W67678  29.705  19.085  27.496 -0.3761 -0.1542 -0.2225
24766W        W67679  18.893  23.053  27.729 -0.5479 -0.0199 -0.1276
24767W        W67680  21.290  22.426  17.363 -0.2249 -0.0908 -0.0828
24768W        W67681  23.959  15.644   3.701 -0.2241  0.0957 -0.0114
24769W        W67682  22.184  29.883  22.893  0.0558 -0.2339  0.1430
24770W        W67683  23.905   3.914  26.106  0.1484  0.0932  0.1025
24771W        W67684  28.922  30.792   9.435 -0.2448  0.0794  0.2926
24772W        W67685  19.077  23.959  25.442  0.0172 -0.0859 -0.0112
24773W        W67686  25.668  20.556  25.577  0.2695 -0.2245 -0.1056
24774W        W67687   3.414  12.903   8.310  0.0722  0.0124  0.0873
24775W        W67688  19.270  24.398   2.547  0.2393 -0.2570  0.1134
24776W        W67689  23.559  19.690   7.225  0.0712 -0.1952  0.0945
24777W        W67690  27.469  25.928   4.124  0.1544 -0.0303 -0.1454
24778W        W67691  18.894  27.204   0.414 -0.0920 -0.2139  0.0709
24779W        W67692   0.318  23.991  20.559  0.1284  0.0207  0.1061
24780W        W67693  22.173  16.268   0.340  0.0188  0.0270 -0.1289
24781W        W67694  24.432  20.362  27.063 -0.1325 -0.4803 -0.0644
24782W        W67695  21.412  30.755   4.114 -0.4172 -0.0087 -0.3348
24783W        W67696  13.561  22.432   4.624  0.1136  0.1160  0.0426
24784W        W67697  17.765  30.900  10.120 -0.0528  0.1665  0.0167
24785W        W67698  17.709  16.839   5.349  0.3887  0.2521  0.0730
24786W        W67699  14.239  25.245  10.559  0.0206  0.0319 -0.3605
24787W        W67700  14.860  17.404   6.325  0.3138 -0.2776  0.4926
24788W        W67701  18.823  13.133  29.691 -0.0035  0.1937  0.0469
24789W        W67702  21.178  19.822   4.655  0.0642 -0.2263 -0.3368
24790W        W67703  24.197  15.256   2.275 -0.0733  0.0092 -0.0661
24791W        W67704  23.320  24.441   6.498  0.1218 -0.0558  0.3765
24792W        W67705  27.100  18.296   8.627  0.2816  0.2668  0.3482
24793W        W67706  21.068  18.910  29.164 -0.1365  0.0098  0.1406
24794W        W67707  22.036  14.206   2.206  0.2623 -0.1398 -0.0471
24795W        W67708  17.092   2.441  19.498  0.2158  0.0313 -0.0392
24796W        W67709  27.095  14.601   3.499  0.1609 -0.3618 -0.1158
24797W        W67710  23.298  15.098   6.905  0.2838 -0.1033  0.4002
24798W        W67711  22.958  28.104   7.923  0.0629 -0.1182 -0.0815
24799W        W67712  17.151  26.159   8.540  0.0720 -0.1825 -0.0940
24800W        W67713  20.841  16.820  28.829 -0.1708 -0.1573  0.2445
24801W        W67714  23.839  24.073  25.667 -0.0084  0.1781  0.0196
24802W        W67715  18.058  28.011  26.668  0.1035  0.1145 -0.2436
24803W        W67716  24.811  18.131  27.909  0.1366 -0.0385 -0.0857
24804W        W67717  26.802  16.339   2.270 -0.0523 -0.0115 -0.2066
24805W        W67718  18.519   8.476   0.407  0.2892  0.0507  0.1111
24806W        W67719   5.708  22.769  27.432  0.0283 -0.2410  0.0095
24807W        W67720  19.945   2.929   0.973  0.0123  0.1927  0.0505
24808W        W67721  17.107  31.268   7.493  0.1148 -0.0186  0.1767
24809W        W67722  30.704  26.092  21.493  0.1397 -0.0014 -0.3537
24810W        W67723  28.134  11.524   4.935 -0.1019 -0.0003  0.0179
24811W        W67724  20.058  19.378   1.954  0.2115  0.2030 -0.1336
24812W        W67725  11.172  10.442   4.588  0.1449 -0.0430  0.1226
24813W        W67726  31.062  16.850   3.967 -0.1353 -0.0286  0.1530
24814W        W67727  25.117  14.682   4.807 -0.0067  0.1738 -0.2902
24815W        W67728  28.668  16.655   3.706 -0.0591  0.1122 -0.0858
24816W        W67729  16.128  13.570  25.779 -0.0208  0.5430  0.0076
24817W        W67730  20.900  25.153   4.279 -0.0470  0.2214  0.1560
24818W        W67731  21.051  28.767   5.719  0.0369 -0.0814  0.2070
24819W        W67732  29.741  19.646   6.664 -0.0880 -0.1300  0.0402
24820W        W67733  24.901  13.037   0.635 -0.3053 -0.0291 -0.2555
24821W        W67734  27.601  13.942   1.465  0.2487 -0.2612  0.1796
24822W        W67735  25.525  14.859   8.329  0.0519  0.3064 -0.1201
24823W        W67736  19.083  26.354   4.106  0.0109 -0.0669 -0.3113
24824W        W67737  23.857  20.031   8.975  0.1511  0.3055  0.0050
24825W        W67738  24.149  14.642   4.463 -0.0224 -0.1505 -0.0037
24826W        W67739  13.439  22.626   5.098 -0.0615  0.0366 -0.1650
24827W        W67740  23.741  11.747  26.662  0.3557 -0.0282 -0.2305
24828W        W67741  26.093  26.090   7.765 -0.0924  0.2469 -0.2067
24829W        W67742  34.174  12.284  23.796 -0.3641 -0.1612 -0.0748
24830W        W67743  25.968  19.102   1.072 -0.1672  0.0229 -0.3254
24831W        W67744   1.175   8.637   0.477  0.0767  0.2014 -0.1878
24832W        W67745  17.500  19.874  25.184  0.0000  0.0385 -0.0742
24833W        W67746  20.096  20.845  26.667 -0.0253  0.0821  0.0741
24834W        W67747  13.739  28.376   3.832  0.1028 -0.0255  0.1862
24835W        W67748  27.290  15.783  29.087 -0.1250 -0.1699  0.0761
24836W        W67749  33.733  23.262   3.509  0.0345 -0.0420  0.1224
24837W        W67750  19.785  16.403  25.627 -0.0502  0.0834 -0.2049
24838W        W67751  18.266  19.731  24.565  0.0738 -0.0663 -0.2506
24839W        W67752  22.353  25.123   6.738  0.1040  0.1687  0.3008
24840W        W67753  30.309  26.997   2.298  0.1085  0.3040 -0.3779
24841W        W67754  23.407  19.701  27.229 -0.1246  0.3245 -0.0357
24842W        W67755  23.216  10.320  27.544 -0.0620 -0.1015 -0.0363
24843W        W67756  26.555  25.137  28.503 -0.2934 -0.2806  0.3612
24844W        W67757  25.154  25.092   4.325 -0.2392  0.0791 -0.0901
24845W        W67758  26.078  18.605   1.215  0.2906  0.2403  0.0922
24846W        W67759  24.017  26.658   6.203  0.1718 -0.0823  0.1394
24847W        W67760  25.306  10.221   8.486 -0.1966  0.0044 -0.2993
24848W        W67761  21.376  23.964   5.405  0.0693  0.0756 -0.3712
24849W        W67762  29.087   7.933  28.861 -0.1344  0.3957  0.3367
24850W        W67763  22.113  12.408   1.308  0.3526  0.2392 -0.1720
24851W        W67764  17.511  20.966  16.059  0.0544 -0.0023 -0.0027
24852W        W67765  21.259  29.172   5.942  0.3637  0.2956  0.4464
24853W        W67766  17.483  21.633  20.169 -0.0836  0.2841 -0.0519
24854W        W67767  16.090  19.579  27.301 -0.4559 -0.3250  0.0536
24855W        W67768  21.752  18.571  17.275 -0.1758 -0.0489 -0.0002
24856W        W67769  28.352  17.868   5.751  0.0446  0.1168 -0.1341
24857W        W67770  13.439  20.047  21.929 -0.0979  0.0367 -0.6485
24858W        W67771  33.298  26.504   7.860 -0.0709  0.0320  0.0302
24859W        W67772  20.331  22.241   9.080  0.0903  0.2849 -0.1012
24860W        W67773  16.074   6.844  22.698 -0.1036 -0.2345  0.0561
24861W        W67774  27.768  25.419   0.083 -0.1545  0.0731  0.2315
24862W        W67775  13.452  26.055   2.406 -0.0215  0.1830  0.1014
24863W        W67776  30.301  23.229   3.510  0.1539  0.1535  0.1002
24864W        W67777  31.572  25.124  29.343 -0.0239 -0.1477  0.0148
24865W        W67778  25.371  18.843  27.193  0.2473 -0.1394 -0.3007
24866W        W67779  27.997  19.126  28.894  0.0467  0.0478 -0.2907
24867W        W67780  26.224  18.698  29.735  0.4995 -0.0164 -0.0804
24868W        W67781  16.030  18.099   2.699 -0.1266  0.3147  0.0088
24869W        W67782  15.460  17.113   6.870 -0.1281 -0.1162 -0.1253
24870W        W67783  15.253  19.468  28.310 -0.1150 -0.0561 -0.1353
24871W        W67784  18.237  22.346  29.444  0.1404 -0.1465  0.0581
24872W        W67785  19.921  22.845  27.195  0.1617  0.2287 -0.0751
24873W        W67786  26.042  10.826   1.771  0.0845 -0.0825  0.2408
24874W        W67787  19.191  20.018   4.474 -0.0626 -0.1056 -0.0618
24875W        W67788  25.024  11.481  25.931  0.0976  0.0117 -0.1296
24876W        W67789  26.305  19.283   4.388  0.1848  0.1889 -0.1186
24877W        W67790  20.063  23.738  28.707 -0.0831  0.0970 -0.0848
24878W        W67791  20.782  19.403  14.347 -0.2068 -0.2772  0.0897
24879W        W67792  25.348  34.283  29.323 -0.1628  0.1358 -0.0389
24880W        W67793  18.253  18.491   8.448  0.1691  0.1759  0.1141
24881W        W67794  34.330  10.647  25.892  0.1200 -0.3319 -0.2023
24882W        W67795  23.101  24.900   4.222  0.0959 -0.0245 -0.0627
24883W        W67796  28.408  25.694   3.421  0.1324 -0.1684  0.1447
24884W        W67797  21.677  20.434   8.237  0.1025  0.1388 -0.0430
24885W        W67798  20.355  29.384  23.687  0.0850 -0.2079 -0.1557
24886W        W67799  21.376  19.063  26.014 -0.4605  0.0716 -0.0866
24887W        W67800  18.963  13.440   7.899 -0.1846 -0.2492  0.2536
24888W        W67801  32.160  23.428  27.456 -0.2199  0.1477  0.1752
24889W        W67802  26.434  15.376  27.050 -0.0051 -0.3345  0.1553
24890W        W67803  20.405  30.875  27.458 -0.0152 -0.1661  0.0398
24891W        W67804  28.103  21.263   6.486 -0.2967 -0.0087  0.1700
24892W        W67805  20.932  10.544   3.413 -0.0961 -0.2001 -0.3512
24893W        W67806  19.554  13.993  27.459  0.2777 -0.3195 -0.1001
24894W        W67807  26.228  18.082   5.163  0.1735 -0.1491  0.0164
24895W        W67808  24.668   5.425  22.675  0.4774 -0.1608 -0.0899
24896W        W67809  21.869  11.442   2.313 -0.0573 -0.1483 -0.1272
24897W        W67810  18.215  14.700   0.892  0.1479 -0.2547  0.2000
24898W        W67811  18.979  17.297   6.553  0.2827  0.0765 -0.2141
24899W        W67812  24.969  22.100   0.049  0.0204 -0.0837  0.2783
24900W        W67813  31.263  11.769  23.859  0.4968 -0.0004  0.3289
24901W        W67814  19.534  19.389  27.407  0.0306  0.0221  0.2574
24902W        W67815  23.100  22.667  25.687 -0.1149  0.1818  0.0036
24903W        W67816  18.611  21.729   6.016  0.0439 -0.0476 -0.2176
24904W        W67817   9.627  33.717   1.974  0.2465 -0.0867 -0.0339
24905W        W67818  27.744  10.448   2.706 -0.3878 -0.0457 -0.2222
24906W        W67819  34.251  29.747   7.635 -0.3066 -0.0680 -0.2760
24907W        W67820  20.133  19.334  26.229  0.1351  0.0751  0.0739
24908W        W67821  20.420   4.091   6.625  0.0167  0.2745  0.3327
24909W        W67822  21.971  23.286  20.420 -0.3606 -0.2604 -0.3124
24910W        W67823  26.562  20.971  24.699  0.1044  0.0663 -0.0026
24911W        W67824  26.282  19.970   4.642  0.1656 -0.0142 -0.2690
24912W        W67825   9.872  10.355   8.889 -0.1982 -0.0767  0.0405
24913W        W67826  13.594  19.662   7.109 -0.0810 -0.1271  0.2611
24914W        W67827  27.171  22.492  25.105  0.2266  0.1946  0.2784
24915W        W67828   1.337  33.117   4.120  0.0689  0.1027 -0.1063
24916W        W67829  18.602  22.310  19.191  0.0624 -0.2708 -0.1955
24917W        W67830  30.628  11.935  24.228  0.0385  0.0726  0.0775
24918W        W67831  20.441  16.357  22.795 -0.0060 -0.0450  0.0014
24919W        W67832  19.693  23.286   0.273  0.0441 -0.4305 -0.1134
24920W        W67833  24.862  33.578  29.098 -0.1708 -0.0952 -0.0258
24921W        W67834  28.057  32.834  27.507 -0.2607  0.0360 -0.0392
24922W        W67835  26.197  16.572   2.810  0.0138  0.0972 -0.2019
24923W        W67836  18.163  10.909   8.438  0.1433 -0.1199 -0.2446
24924W        W67837  22.645  17.430   5.775  0.1268  0.3253 -0.3405
24925W        W67838   3.207  16.711   2.273 -0.1105 -0.0272 -0.1966
24926W        W67839  23.495  32.632   1.549 -0.1445  0.0266 -0.1028
24927W        W67840  21.935  18.652  24.605  0.2127 -0.1339 -0.0964
24928W        W67841  33.274  16.573  10.336  0.1245 -0.1790  0.1507
24929W        W67842  22.961  28.202  29.721  0.2296  0.1029  0.1409
24930W        W67843  20.379  16.440  24.545 -0.1165 -0.3161 -0.1924
24931W        W67844  25.173  20.204   8.954  0.0238 -0.0814  0.2460
24932W        W67845  20.113  26.332   4.131 -0.0995 -0.2267 -0.1451
24933W        W67846  25.710  26.640   5.858  0.0139 -0.0465 -0.2187
24934W        W67847  11.413  24.195   5.180  0.1205  0.0447 -0.1204
24935W        W67848  21.851  15.784   3.801  0.0814 -0.0656  0.2504
24936W        W67849  24.749   6.549   6.625 -0.1964  0.0100  0.1592
24937W        W67850   0.594  19.751   6.653  0.2441 -0.0214 -0.1232
24938W        W67851  31.545  30.109   5.447  0.0488  0.1052  0.0261
24939W        W67852  18.797  18.281  27.852  0.0869  0.1013  0.2999
24940W        W67853  18.149  15.989   2.142 -0.1117  0.0574  0.1168
24941W        W67854  21.481  17.778   4.987  0.0631 -0.2213 -0.1752
24942W        W67855  26.973   9.394  20.621 -0.2033 -0.0612 -0.1529
24943W        W67856  22.706  25.249   1.123  0.2454 -0.2985  0.2409
24944W        W67857  19.544  19.808   4.166  0.2804 -0.0677  0.2020
24945W        W67858   7.691  12.222   6.776 -0.0139  0.0904  0.0753
24946W        W67859  17.872  16.912  27.133 -0.0202  0.2284 -0.1479
24947W        W67860  30.799   7.983   4.243 -0.0744  0.0961 -0.0213
24948W        W67861  23.817  17.197   1.780  0.0396 -0.3009  0.1637
24949W        W67862  25.622  22.558   5.958  0.0728 -0.1570 -0.4334
24950W        W67863  29.831  17.871   3.297 -0.2848  0.0505 -0.1711
24951W        W67864  28.335  22.193   4.938  0.2127  0.1037  0.2231
24952W        W67865  17.629   9.535  24.595  0.1840 -0.2385  0.1102
24953W        W67866  18.813  19.918   2.289  0.2143  0.2537 -0.2695
24954W        W67867  21.650  13.201  16.500  0.1637 -0.1242  0.0824
24955W        W67868  25.846  12.166   0.808 -0.1824 -0.1711 -0.1990
24956W        W67869  30.441  23.933   5.221 -0.2494 -0.0959  0.0732
24957W        W67870   2.511  23.438  24.413  0.0830 -0.3902  0.3419
24958W        W67871  22.721  13.168   4.765  0.0468  0.2098 -0.0669
24959W        W67872  21.189  32.341   1.752 -0.1770  0.3451  0.0076
24960W        W67873  18.598  19.876  25.850  0.3732  0.0588  0.0713
24961W        W67874  18.676  20.684  16.033  0.3545  0.3998 -0.2622
24962W        W67875  29.321  26.648  28.864 -0.0122  0.1084 -0.2325
24963W        W67876  18.430   2.789   5.886 -0.0727 -0.1632  0.1522
24964W        W67877  23.064  23.500   5.778  0.0233  0.2204 -0.4886
24965W        W67878  23.718  20.059  25.317 -0.0093 -0.1719  0.0534
24966W        W67879  19.334  14.191   7.417  0.0776 -0.0846  0.1098
24967W        W67880  25.221  17.109  29.638  0.2653  0.1050 -0.0919
24968W        W67881  23.547  12.536   2.907  0.0540 -0.0916 -0.1672
24969W        W67882  24.778  13.989  28.869 -0.0069  0.1613 -0.0443
24970W        W67883  24.420  22.402  27.996  0.3845  0.1669  0.1067
24971W        W67884  27.967  28.521   7.412 -0.1817  0.0948 -0.0234
24972W        W67885  27.597  27.144  27.209 -0.6173  0.2357 -0.0470
24973W        W67886  15.002  25.262   3.067 -0.0349  0.0214  0.1075
24974W        W67887  23.021  18.847  21.619 -0.0900 -0.0250 -0.0142
24975W        W67888  22.046  27.198  27.986 -0.1229 -0.2671  0.0549
24976W        W67889  28.422  14.267   0.547 -0.0670  0.1075  0.4350
24977W        W67890  25.666  16.561   0.586 -0.0574 -0.0764 -0.0384
24978W        W67891  24.928  22.124   1.165  0.0611  0.0015  0.2141
24979W        W67892  18.300  22.637  17.827  0.1429  0.2138  0.2019
24980W        W67893  25.045  23.246   7.864 -0.0093  0.2246  0.0066
24981W        W67894  15.863  23.732   0.920  0.1624 -0.0545  0.1164
24982W        W67895  10.925  19.958   0.824 -0.1692 -0.1259  0.2199
24983W        W67896  17.955  15.973  22.754 -0.1735 -0.0694 -0.2751
24984W        W67897  26.231  29.864  28.414 -0.1392  0.1823  0.1564
24985W        W67898  23.682  14.927  29.350  0.2017 -0.0988 -0.0066
24986W        W67899  16.855  13.043  27.008  0.1004  0.0830 -0.1599
24987W        W67900  10.678  16.423   0.575  0.3234 -0.0355  0.3495
24988W        W67901  29.051  24.207  14.708 -0.0562  0.3439  0.3077
24989W        W67902  20.856  19.019  25.847  0.0112 -0.1760  0.1738
24990W        W67903  28.021  25.304  24.477 -0.1497 -0.1002  0.0489
24991W        W67904  26.133  25.114   0.115  0.2567 -0.0800  0.2975
24992W        W67905  19.613  14.294   2.053  0.1415 -0.0691  0.3031
24993W        W67906  31.788  22.005  29.011 -0.2787  0.1913  0.1511
24994W        W67907  23.878  16.060   0.312  0.1594 -0.2949 -0.1431
24995W        W67908  20.936  24.001  29.249 -0.1592  0.1610 -0.3047
24996W        W67909  25.957  30.543  21.440  0.0934  0.1189 -0.0987
24997W        W67910  18.803  11.044   3.428  0.1638 -0.0911  0.0973
24998W        W67911  25.149  18.499  18.562  0.1596 -0.1433 -0.0130
24999W        W67912  31.512  13.340   5.238  0.0394  0.1985 -0.0629
25000W        W67913  28.104  17.488   8.049  0.5351  0.0653  0.1228
25001W        W67914  17.877  21.189   4.636 -0.0105  0.0540 -0.1123
25002W        W67915  30.063  21.986   7.193 -0.2931  0.1254 -0.0880
25003W        W67916  21.904  15.476   0.129 -0.1607  0.3698 -0.2791
25004W        W67917  26.192  22.477   4.962  0.0057 -0.1762 -0.0507
25005W        W67918  21.264  15.368  22.163  0.4979 -0.3227 -0.1831
25006W        W67919  22.472   9.658   4.140 -0.0336 -0.0896  0.1014
25007W        W67920  18.979  18.339  22.949 -0.1213  0.0261 -0.0460
25008W        W67921  23.175  21.140   0.492 -0.0481 -0.1735 -0.3836
25009W        W67922  23.782  32.950   1.797 -0.2384  0.1744  0.2423
25010W        W67923  23.133  18.141   7.213 -0.4636 -0.2152  0.0907
25011W        W67924  17.133  20.115   0.842  0.1580  0.1003  0.4940
25012W        W67925  15.984  30.890  29.333 -0.0727 -0.1189 -0.1931
25013W        W67926   1.433  14.240  26.926  0.0069  0.0524 -0.0407
25014W        W67927  27.534  22.005  20.227 -0.0560 -0.0891  0.3622
25015W        W67928  27.080  27.482   1.621 -0.3046  0.0377  0.0823
25016W        W67929   4.548  17.128  29.058 -0.0381 -0.1069  0.1277
25017W        W67930  18.733  22.750   0.870 -0.0164  0.3370 -0.1112
25018W        W67931  22.108  21.556   6.509 -0.1669  0.1556 -0.0087
25019W        W67932  14.873  23.503   0.288 -0.1049 -0.0161  0.1641
25020W        W67933  26.094  19.826  25.853  0.0476  0.0206  0.0285
25021W        W67934  30.110  21.869  27.687  0.1124  0.0750 -0.4254
25022W        W67935  16.290  25.990   5.736 -0.0858 -0.4243 -0.1370
25023W        W67936  21.203  13.479   6.601 -0.0174 -0.2048  0.0489
25024W        W67937  24.555  14.422   2.440  0.0360  0.0422 -0.2364
25025W        W67938  23.054  32.514   8.482 -0.0433 -0.1460 -0.1841
25026W        W67939  25.099  28.228   7.201  0.2550 -0.1936  0.0095
25027W        W67940  19.191  18.084   5.091 -0.1172 -0.4281  0.0261
25028W        W67941  21.824  19.626  27.596 -0.0162 -0.0741  0.2968
25029W        W67942  32.700  19.155  27.340 -0.0841 -0.1114  0.1493
25030W        W67943  18.900  16.314   5.329  0.1013  0.2950 -0.0987
25031W        W67944  26.640  12.658  21.561 -0.0385  0.1139  0.1615
25032W        W67945  29.725  30.706  21.268  0.1803  0.1718 -0.0442
25033W        W67946  29.107   5.638  28.655 -0.5059 -0.3281  0.1841
25034W        W67947  27.933  20.866  24.543 -0.0032 -0.0563  0.1114
25035W        W67948  16.631  24.695   5.222 -0.0750  0.0166  0.0401
25036W        W67949  17.286  16.875  23.173  0.3968  0.4034  0.2767
25037W        W67950  21.148  15.562   1.565  0.0290 -0.0585 -0.1553
25038W        W67951  22.956  24.131   1.973  0.1499 -0.0532 -0.0580
25039W        W67952  19.765  26.954   7.236  0.0059  0.2850 -0.0327
25040W        W67953  28.405  16.586   7.362 -0.0639 -0.1416 -0.0032
25041W        W67954  13.340  24.710   9.933 -0.0139  0.1112  0.1255
25042W        W67955  25.177  28.058  22.029  0.1156 -0.1870  0.3465
25043W        W67956  18.191  19.071  23.935  0.2718  0.2873 -0.2402
25044W        W67957  19.040  14.143  21.813  0.1053 -0.0590  0.0025
25045W        W67958  21.394  25.392  17.648  0.0654 -0.1171  0.0265
25046W        W67959  12.202  24.298  24.803 -0.1401  0.1858  0.2984
25047W        W67960  27.726  22.797   7.054  0.2502  0.0099  0.1118
25048W        W67961  26.016   6.286   2.397  0.2785  0.2218  0.1178
25049W        W67962  18.685  23.527  29.519  0.1652  0.0081  0.1340
25050W        W67963   7.718  21.874   3.842 -0.1570 -0.0835 -0.1323
25051W        W67964  21.744  10.173  27.958 -0.1782 -0.1708  0.0274
25052W        W67965  23.983  21.664  26.412  0.0448 -0.0282  0.0337
25053W        W67966   0.971  23.849   1.049 -0.3770  0.2985 -0.1638
25054W        W67967  25.588  13.204  29.581 -0.0155  0.5270 -0.1935
25055W        W67968  25.767  20.115   5.816 -0.1402  0.0253  0.0239
25056W        W67969  26.502   8.819   3.834 -0.3367  0.1198 -0.2194
25057W        W67970  19.772  18.000  26.064  0.3407  0.1528  0.2107
25058W        W67971  30.451  20.308  26.436 -0.2314 -0.2688  0.0208
25059W        W67972  21.490  19.653  27.188  0.2400  0.0018  0.0133
25060W        W67973  32.024  30.185   8.816  0.1612  0.3228 -0.1218
25061W        W67974   1.627  24.455   8.494  0.3981  0.0780  0.1477
25062W        W67975  28.476  25.579   6.407  0.4104 -0.1101  0.5456
25063W        W67976   4.346  18.275   2.864 -0.0605  0.1546  0.1726
25064W        W67977  27.810  27.180   0.159 -0.0203  0.1557 -0.2729
25065W        W67978   4.697  19.763   6.042 -0.2454 -0.0764  0.2482
25066W        W67979  27.317  19.573   1.694  0.0174 -0.1942  0.1606
25067W        W67980  20.309  11.198   4.418 -0.2627  0.1705  0.1633
25068W        W67981  21.745  22.752  29.245 -0.1039  0.2179  0.1797
25069W        W67982  15.505  22.001   1.546 -0.0004  0.1650 -0.0877
25070W        W67983   1.298  11.133  25.668  0.0797  0.1473 -0.1564
25071W        W67984   6.329   3.406   1.846  0.3417 -0.2026 -0.0078
25072W        W67985  17.636  16.804  26.124  0.0395  0.0565 -0.1950
25073W        W67986  12.634  23.282   1.574 -0.0461  0.1519 -0.0019
25074W        W67987  20.102  16.880   7.575  0.1224 -0.0477  0.0674
25075W        W67988  31.755  16.614   1.041  0.2289 -0.1827 -0.2023
25076W        W67989  31.703  23.673   3.827  0.0128 -0.1870 -0.3059
25077W        W67990  16.172  17.826  23.952 -0.2682 -0.0502  0.2925
25078W        W67991  19.179  20.261  25.261 -0.2388 -0.3317  0.1518
25079W        W67992  27.475   8.090   4.470 -0.1322 -0.2682 -0.0329
25080W        W67993  19.408  20.479   3.397 -0.0515 -0.1778  0.2778
25081W        W67994  22.698  20.301   6.026 -0.0725 -0.2673  0.0996
25082W        W67995  27.668  23.412   1.826 -0.3092  0.0268  0.2801
25083W        W67996  20.210  24.362   4.539 -0.0309  0.0595 -0.1644
25084W        W67997  10.399  22.893  26.103 -0.4160  0.0168  0.1507
25085W        W67998  24.527  18.425   2.197 -0.1762  0.1261 -0.1466
25086W        W67999  14.349  31.349   1.745  0.2480  0.0985  0.4072
25087W        W68000  20.970  23.125  29.693 -0.1923  0.2257  0.1890
25088W        W68001  21.024  18.312  25.364  0.2318 -0.3438  0.2347
25089W        W68002  21.869  32.404  19.414 -0.1169 -0.4782  0.0236
25090W        W68003  25.500  10.704   3.169  0.5288 -0.1531 -0.0819
25091W        W68004  28.381  26.020  25.143  0.0232 -0.0743 -0.1246
25092W        W68005  29.725   8.736   2.214 -0.2669  0.1231 -0.2742
25093W        W68006  33.929  25.614   3.872  0.1701 -0.0944  0.1672
25094W        W68007  16.805  32.209   1.986  0.1432  0.0565 -0.0377
25095W        W68008  14.015  20.516  24.803 -0.1462 -0.0157 -0.0343
25096W        W68009  19.578  23.866   1.080 -0.0126  0.1422  0.0636
25097W        W68010  30.459  19.130   2.356 -0.0894  0.1436  0.3951
25098W        W68011  18.861  15.662   3.914  0.0841 -0.0274 -0.0178
25099W        W68012  24.654  17.424  27.280  0.2993  0.0453  0.1572
25100W        W68013  16.688  16.125   4.809  0.1625 -0.2397  0.3100
25101W        W68014  16.149  24.691   5.429 -0.0951  0.0260  0.0983
25102W        W68015  23.985  22.244   6.750 -0.1031  0.0336  0.0456
25103W        W68016  20.351  25.598   0.196  0.3332 -0.0195  0.1073
25104W        W68017  26.036  28.683  28.262 -0.3565 -0.0029 -0.0109
25105W        W68018  24.440  18.362   6.133 -0.0086  0.3647 -0.4823
25106W        W68019  16.187  20.977  24.853  0.1284  0.0259 -0.0086
25107W        W68020  19.679  20.454  24.355 -0.0118  0.0009 -0.0524
25108W        W68021  24.999  31.106   7.735 -0.1555 -0.3124  0.1767
25109W        W68022  17.377  25.984  20.540 -0.0435  0.3765  0.0915
25110W        W68023  18.073  19.037   2.089 -0.2176  0.1037  0.3329
25111W        W68024  30.751  23.228   7.986 -0.1573  0.1180  0.2197
25112W        W68025  16.772  17.335  28.279 -0.1141 -0.0408 -0.1699
25113W        W68026  19.849  12.196  18.888  0.0840  0.1015  0.2210
25114W        W68027  19.400  17.511   3.345 -0.0784  0.3041  0.1852
25115W        W68028  24.158  20.537  25.869  0.0595 -0.0064 -0.0909
25116W        W68029  26.799  23.760   3.525 -0.3056  0.3157  0.0950
25117W        W68030  22.807  33.548   6.699  0.1279  0.1317  0.4480
25118W        W68031  16.215  16.615   7.708 -0.0983  0.0591  0.0940
25119W        W68032  24.031  13.559  28.749  0.2768 -0.5269 -0.2548
25120W        W68033  27.905  15.212   3.921  0.1015 -0.0699 -0.0318
25121W        W68034  30.686  17.559   3.201  0.1352  0.0278 -0.1302
25122W        W68035  22.350  10.199   0.571  0.0843  0.1157 -0.1269
25123W        W68036  19.567  19.909   0.869  0.1444  0.0783  0.0797
25124W        W68037  33.715  31.051  26.656  0.2653  0.1749 -0.0016
25125W        W68038  23.903  21.944   4.581 -0.1651  0.0623  0.1693
25126W        W68039  14.065  23.135   1.877  0.0855  0.1934  0.2168
25127W        W68040  17.522  18.566   6.793 -0.0903  0.1111 -0.2232
25128W        W68041  17.884  15.050  23.780  0.1584  0.0115 -0.2097
25129W        W68042  18.726   1.955   0.768 -0.0371 -0.0572  0.2732
25130W        W68043  26.402  15.274   6.769 -0.2012  0.2783  0.1047
25131W        W68044  25.957  34.065   4.718 -0.0332  0.0791 -0.3506
25132W        W68045  28.287  23.730   6.333  0.3878  0.2464 -0.1821
25133W        W68046  26.588  33.068  26.427 -0.1677 -0.0441 -0.0424
25134W        W68047  16.341  29.646  28.074 -0.5494 -0.1283  0.0465
25135W        W68048  27.749  22.234   6.964 -0.2801 -0.1153 -0.4840
25136W        W68049  22.673  13.695   8.586 -0.2993 -0.1642 -0.1971
25137W        W68050   8.139  31.855   7.190 -0.2407 -0.0835 -0.3269
25138W        W68051  14.063  27.267   9.153 -0.0174 -0.1281 -0.2345
25139W        W68052  14.649  12.892   5.614 -0.1400 -0.3229  0.0196
25140W        W68053  20.072  16.965   4.193 -0.1887 -0.0642 -0.1987
25141W        W68054  25.109  17.707   2.335  0.0103  0.1381 -0.1297
25142W        W68055   2.080  12.321  11.342  0.3295 -0.1027 -0.0865
25143W        W68056  25.025  20.003   7.572 -0.0772  0.1744  0.0532
25144W        W68057  23.338  11.414   7.223 -0.1309  0.1709 -0.1367
25145W        W68058  24.620  25.778  24.986 -0.0038  0.1901  0.1810
25146W        W68059  26.158  24.008   0.093  0.3278  0.2418  0.0290
25147W        W68060  10.473  23.176   5.693  0.0852  0.0059 -0.0635
25148W        W68061  30.063  19.735   9.076 -0.1731  0.3549  0.0368
25149W        W68062  22.160  12.505   8.242  0.6624 -0.0390  0.1967
25150W        W68063  20.146  19.460   6.699  0.0478 -0.1894 -0.2195
25151W        W68064  21.569  19.362  29.210  0.2975  0.2098 -0.1811
25152W        W68065  18.122  31.957   8.028  0.0818  0.3768  0.1072
25153W        W68066  25.346  18.353   8.079 -0.0696 -0.2443 -0.0294
25154W        W68067  26.984  14.141   6.444 -0.0493 -0.1602  0.1411
25155W        W68068  18.639  22.573   4.706 -0.2353  0.1126 -0.2927
25156W        W68069  19.917  10.629   8.163 -0.3588  0.2021  0.2640
25157W        W68070   0.012  17.121   9.256  0.0660 -0.0139  0.1293
25158W        W68071  23.916  17.575  29.286  0.1489  0.1223 -0.0248
25159W        W68072  18.799  24.979   3.070 -0.1929 -0.0032 -0.0533
25160W        W68073   0.243   0.616   6.835 -0.1465 -0.1427 -0.1754
25161W        W68074  23.372   1.232   1.039 -0.3282 -0.3165  0.1063
25162W        W68075  24.182  21.528   4.461 -0.0567  0.0436  0.1545
25163W        W68076  30.253  18.870   3.488  0.3338 -0.2564  0.0685
25164W        W68077  19.623  29.021   7.754 -0.2703 -0.2717  0.0378
25165W        W68078  24.615  17.507  26.353 -0.0935  0.1402  0.0281
25166W        W68079  25.180  20.493   8.153 -0.2727  0.1689 -0.1249
25167W        W68080  24.895  26.894   2.746 -0.2415  0.4315  0.2676
25168W        W68081  25.131   8.572   7.207 -0.0015 -0.1011 -0.0344
25169W        W68082  34.267  19.176   6.301 -0.1089 -0.1451  0.2263
25170W        W68083  17.658  30.764   6.158  0.1705  0.0973  0.0322
25171W        W68084  17.173  21.245   7.069 -0.1440 -0.2182  0.1788
25172W        W68085  20.135  14.826  25.123  0.1265 -0.1019  0.1958
25173W        W68086  27.529  25.241   8.764 -0.1561  0.1053  0.0415
25174W        W68087  28.440  20.926   5.919 -0.1855 -0.1234  0.3303
25175W        W68088  21.249  20.111   6.228 -0.3436  0.0510 -0.0813
25176W        W68089  26.836  17.780  25.109  0.0299 -0.1640 -0.2365
25177W        W68090  18.267  18.759   7.327  0.0495  0.0739 -0.1914
25178W        W68091  16.638  19.523   5.588 -0.0553  0.1406  0.1273
25179W        W68092  16.140  23.320  25.341 -0.3127 -0.1230 -0.0349
25180W        W68093  21.811  26.046   9.052  0.0097 -0.2120 -0.0425
25181W        W68094  30.442  21.693   7.208  0.0647 -0.1590 -0.2453
25182W        W68095  29.913  18.998   5.617 -0.0037 -0.1177 -0.0861
25183W        W68096  30.802  12.528   7.293 -0.2073  0.3169  0.1003
25184W        W68097  19.352  13.670  21.765 -0.1790  0.0572  0.2528
25185W        W68098  30.206  28.765   1.081 -0.1306 -0.1280 -0.2001
25186W        W68099  21.580  16.084   8.032  0.0392  0.0488  0.0549
25187W        W68100  27.241  20.918   6.650 -0.1280 -0.2574  0.0032
25188W        W68101  22.156  10.567   3.201  0.2928  0.2477  0.1910
25189W        W68102  17.753  10.164  21.903  0.1199 -0.0167 -0.1746
25190W        W68103  19.702  14.563  29.113  0.0617 -0.0783 -0.3378
25191W        W68104  22.291  31.908   5.440 -0.1802  0.2181 -0.1247
25192W        W68105  21.781  18.723  25.761 -0.1358 -0.2277  0.0281
25193W        W68106  22.691  20.896   2.200  0.2917 -0.1807  0.4598
25194W        W68107  28.981  22.483   9.900 -0.1322 -0.1021  0.0086
25195W        W68108  25.797  21.501   8.828  0.0350 -0.0515 -0.3841
25196W        W68109  19.041  19.864   4.030 -0.3802 -0.3229  0.0925
25197W        W68110  22.770  16.049   3.239  0.2304  0.1818 -0.1127
25198W        W68111  19.312  15.348   5.008 -0.0246  0.1419  0.2511
25199W        W68112  20.907   2.968   2.598 -0.0422 -0.2664  0.3170
25200W        W68113  31.835  27.076   9.574 -0.1232 -0.0135  0.0634
25201W        W68114  24.978  20.066   2.075  0.1976  0.1811 -0.1146
25202W        W68115  17.326  19.383   1.988  0.0666  0.3910  0.2752
25203W        W68116  27.094  20.592   1.418  0.1926  0.0739 -0.2769
25204W        W68117  24.750  19.778   3.058  0.1948  0.2403  0.0793
25205W        W68118  22.085  12.500   1.817 -0.0446  0.0147 -0.0713
25206W        W68119  16.614  21.371   2.133 -0.0939  0.0971  0.0912
25207W        W68120  20.609  18.919  24.175  0.0942  0.0032  0.1383
25208W        W68121  15.720  26.172   2.895  0.4056 -0.3750  0.2313
25209W        W68122  16.563  20.245   6.895 -0.0417  0.1254 -0.1849
25210W        W68123  26.715  16.888  26.903  0.1922 -0.1727  0.3883
25211W        W68124  26.914  12.109   5.362  0.0898 -0.0700 -0.5102
25212W        W68125  18.124  25.949   3.957  0.0432  0.0610  0.4230
25213W        W68126  28.494  20.523   4.896 -0.1234  0.1954 -0.2614
25214W        W68127  10.884  21.592   1.672 -0.0669  0.0452  0.2430
25215W        W68128  10.162  18.769   7.857  0.3056 -0.0700  0.1506
25216W        W68129  19.493  27.105   4.574  0.1606 -0.0180  0.0536
25217W        W68130  18.864  18.285   8.235  0.1591  0.0539 -0.1792
25218W        W68131  15.706  22.964   2.971  0.0698 -0.0616  0.0592
25219W        W68132  17.458  20.945  28.238  0.2049  0.0357 -0.2367
25220W        W68133   3.253  26.511   3.312  0.2097 -0.1276  0.1602
25221W        W68134  26.116  15.913  10.032  0.1447  0.1542 -0.1163
25222W        W68135  26.914  27.072   6.262  0.0384  0.0657  0.4735
25223W        W68136  30.341  20.802  21.767  0.0940  0.0018  0.1356
25224W        W68137  29.010  21.408   6.998 -0.1767 -0.4748 -0.4666
25225W        W68138  20.616  28.965   5.062 -0.2592  0.2860  0.1670
25226W        W68139  29.660  25.487   3.897  0.2314  0.2206  0.2268
25227W        W68140  18.561  21.210   6.038  0.1738 -0.3533  0.2965
25228W        W68141  23.910  11.063   6.116 -0.0349 -0.1023 -0.1763
25229W        W68142  20.363  12.567   5.557 -0.1350 -0.1111  0.0655
25230W        W68143  16.887  12.280  24.197 -0.0489  0.1213  0.2742
25231W        W68144  19.498  17.086   1.306 -0.0343  0.2026 -0.0926
25232W        W68145  26.156  18.085   8.664 -0.0008  0.5071 -0.0979
25233W        W68146  13.573  18.903   7.196 -0.0779 -0.2971 -0.0494
25234W        W68147  14.585  20.091   6.619  0.0843  0.0753 -0.1655
25235W        W68148  22.391  19.982   2.098  0.1688  0.0146 -0.0271
25236W        W68149  30.656  25.687   9.617 -0.1754 -0.2629 -0.2479
25237W        W68150  18.516  16.001   7.363  0.1906  0.2271  0.0466
25238W        W68151  28.593  19.132   3.217  0.2316 -0.0581 -0.0926
25239W        W68152  19.577  20.727   2.774  0.3416  0.1998  0.0791
25240W        W68153  23.026  22.229  28.777 -0.0725 -0.2605  0.0226
25241W        W68154  23.315  27.437   0.768  0.1096 -0.3039  0.0576
25242W        W68155  22.155  22.819  28.759 -0.0384 -0.0035  0.3607
25243W        W68156  21.123  17.997   4.613  0.1647 -0.1687 -0.0207
25244W        W68157  25.887  23.708   3.887  0.1013 -0.1345  0.0929
25245W        W68158  28.471  27.565   9.587  0.0931 -0.1686 -0.4223
25246W        W68159  12.397  28.402   1.778  0.0305  0.1375  0.1311
25247W        W68160   9.259  26.397   7.004  0.1656 -0.3094  0.0250
25248W        W68161  25.152  16.031   8.612  0.0313  0.2670 -0.0280
25249W        W68162  23.058  13.977   3.734 -0.3066  0.0264  0.2170
25250W        W68163  17.621  28.592  10.379  0.0877  0.1839 -0.1330
25251W        W68164  27.661  13.542   3.592  0.2192  0.1407  0.1120
25252W        W68165  23.745  26.889   1.635  0.2028 -0.1368  0.0841
25253W        W68166  21.522  22.643   8.153  0.0959  0.0669 -0.2551
25254W        W68167  22.618  21.709   6.087  0.0036  0.0186 -0.1574
25255W        W68168  29.535  22.457   1.034  0.2942 -0.2090  0.0673
25256W        W68169  13.371  10.987   0.996 -0.0293  0.3144 -0.2199
25257W        W68170  14.801  27.590   2.700  0.1818 -0.1134  0.4110
25258W        W68171  27.561  21.924   5.933 -0.2120 -0.3173 -0.1374
25259W        W68172  22.756  13.455  25.721  0.1216 -0.2490  0.2621
25260W        W68173  18.315  26.725   0.920 -0.3095  0.0037  0.1695
25261W        W68174  23.538  17.123   4.923  0.0476  0.0018  0.0757
25262W        W68175  23.011  21.497   3.419 -0.0889 -0.0681 -0.2539
25263W        W68176  19.174  30.506   8.827  0.3327 -0.0667  0.0360
25264W        W68177  18.411  15.015   0.154  0.0842  0.1523  0.1577
25265W        W68178  26.675  29.253   3.730  0.0167  0.0776 -0.0447
25266W        W68179  18.795  14.075  24.783 -0.2835  0.3370 -0.2930
25267W        W68180  30.419  19.363   9.048 -0.1506 -0.0019 -0.1802
25268W        W68181  23.118  23.172   2.583  0.1901  0.0648 -0.2016
25269W        W68182  14.249  16.881   1.996 -0.0775  0.0758  0.2479
25270W        W68183  15.823   8.593   2.893  0.5003 -0.0239  0.0658
25271W        W68184  27.586  16.762   8.172  0.0790 -0.0875  0.0028
25272W        W68185  32.389  10.034  26.391 -0.2813  0.0979  0.0385
25273W        W68186  26.233  15.578   0.295 -0.2490  0.2043 -0.0004
25274W        W68187  16.074   8.103   3.712  0.1574 -0.0052 -0.0879
25275W        W68188  22.377  22.951   5.309  0.0160 -0.2147 -0.0066
25276W        W68189  18.945  14.054  23.853 -0.2964 -0.1337 -0.1103
25277W        W68190   4.430  19.116   3.521 -0.0084 -0.2308  0.1954
25278W        W68191  26.726  26.134   8.512 -0.2651  0.0376  0.2534
25279W        W68192   6.560  21.438   5.363  0.3007  0.1397  0.1220
25280W        W68193  18.719  12.598   1.375 -0.3536  0.0628  0.0749
25281W        W68194  31.984  18.490   7.152 -0.0886 -0.0237  0.4173
25282W        W68195  22.204  19.993   4.179 -0.2141 -0.0819 -0.2607
25283W        W68196  30.676  15.856   2.325 -0.4577  0.1881 -0.2980
25284W        W68197  21.488  15.724   1.100 -0.0488 -0.2685  0.1984
25285W        W68198  19.357  11.011   2.829  0.1077 -0.1057 -0.2265
25286W        W68199  21.968  18.720   0.139 -0.0157 -0.0458 -0.0048
25287W        W68200  18.106  13.819   5.047 -0.1521  0.1069  0.3029
25288W        W68201  30.513  23.327   1.993 -0.0744  0.0088  0.3245
25289W        W68202  22.337  34.375   8.890 -0.1188  0.1889  0.0653
25290W        W68203  22.392  22.622   2.922  0.1215 -0.0719  0.0822
25291W        W68204  11.440  17.115   6.019  0.1107  0.2103  0.1954
25292W        W68205  25.514  25.414   1.781 -0.0739 -0.2333 -0.0799
25293W        W68206  23.256  22.282   3.243 -0.0441  0.3539 -0.1684
25294W        W68207  13.321  12.805   6.325 -0.0627 -0.1894  0.0901
25295W        W68208  15.089  24.861   2.322  0.1169 -0.0652  0.1757
25296W        W68209  24.271  12.460   1.394  0.2459  0.1468 -0.0254
25297W        W68210  26.094  23.995   5.949  0.0632 -0.1618  0.0487
25298W        W68211  29.236  20.113   6.191  0.2490  0.3029  0.0052
25299W        W68212   9.902  22.133   5.126 -0.0035 -0.4629  0.1132
25300W        W68213  31.929  18.728   8.919 -0.1009  0.0233  0.0979
25301W        W68214  23.823  18.475   7.625 -0.1822 -0.1359  0.0021
25302W        W68215  23.089  25.658   5.015 -0.1435  0.1295  0.1586
25303W        W68216  29.140  19.139   5.842 -0.2365 -0.0134 -0.2185
25304W        W68217  28.420  27.249   8.010  0.2094 -0.1240 -0.0969
25305W        W68218  22.015  18.952   7.890  0.0860 -0.2940  0.2945
25306W        W68219  22.119  18.762  22.758 -0.3557 -0.1014 -0.1183
25307W        W68220  30.418  21.518   4.625 -0.0113 -0.1849 -0.0147
25308W        W68221  29.061  19.757   7.746 -0.0513 -0.4433 -0.1168
25309W        W68222  23.513  32.177   3.060  0.3057 -0.0005 -0.1606
25310W        W68223  30.080  16.082   4.667  0.1006  0.1199  0.1152
25311W        W68224  23.293   8.095   0.595  0.2701  0.0445  0.0002
25312W        W68225  13.792  15.149   6.941  0.1355  0.3385  0.0745
25313W        W68226   3.016  17.724   6.039  0.0817  0.4395  0.0326
25314W        W68227  33.340  28.616   3.878 -0.0471 -0.2346 -0.0951
25315W        W68228  22.514  22.121   4.791  0.1667 -0.0026 -0.1654
25316W        W68229  32.649  21.819   6.639 -0.1455  0.1340  0.0819
25317W        W68230  30.589  12.047   2.745  0.2058 -0.1307  0.4818
25318W        W68231  16.668  11.075   1.472 -0.1069  0.0347  0.2231
25319W        W68232  17.417  19.732   2.902 -0.2235 -0.1062  0.1513
25320W        W68233  18.732  14.028  26.790  0.0027  0.0903 -0.0880
25321W        W68234  24.672  14.132   8.438 -0.1476 -0.0884  0.1171
25322W        W68235  25.253  26.214  25.396 -0.0580 -0.3158 -0.1272
25323W        W68236  22.747  11.613   5.736 -0.1508 -0.0016  0.0215
25324W        W68237  18.588  16.477   4.536 -0.1563 -0.0225 -0.2883
25325W        W68238  23.143  13.788  28.534  0.1120  0.1735  0.1187
25326W        W68239  27.900  12.968   2.148 -0.2583  0.1340  0.0990
25327W        W68240  22.479  29.685   2.613 -0.0349 -0.2973 -0.1429
25328W        W68241  19.029  20.324   7.072  0.0923 -0.1399  0.2040
25329W        W68242  28.275  12.172   3.042 -0.0740 -0.1189  0.3104
25330W        W68243  10.562  22.901   3.569 -0.4351 -0.1443  0.1050
25331W        W68244  17.496  13.514   0.437  0.2501 -0.1576 -0.0545
25332W        W68245  31.770  28.948  29.714 -0.0144 -0.3521 -0.3162
25333W        W68246  25.116   7.656   0.943  0.0612 -0.1691  0.5449
25334W        W68247  18.563  11.361  25.332 -0.0795 -0.0393 -0.0862
25335W        W68248  15.003  18.424   2.981  0.1142 -0.1242 -0.1857
25336W        W68249  22.148  22.442   4.655  0.1774  0.2843  0.0613
25337W        W68250  27.473  22.064   8.716 -0.3027 -0.2586 -0.1505
25338W        W68251  17.272   8.610   2.420  0.1330  0.0784  0.0314
25339W        W68252  26.694  16.325   4.237 -0.1560 -0.2269 -0.1901
25340W        W68253  31.381  29.568  28.363 -0.0309 -0.2915  0.0662
25341W        W68254  19.154  14.545   3.955 -0.1208 -0.0183  0.1558
25342W        W68255  21.014  23.870   3.173 -0.0195 -0.1609 -0.2205
25343W        W68256  26.769  22.317   6.507  0.0653  0.3298 -0.1026
25344W        W68257  17.863  18.081   1.033 -0.3291 -0.0986 -0.0952
25345W        W68258  22.887  21.458   6.469 -0.1999 -0.0803  0.0680
25346W        W68259   1.572  33.404   0.650  0.2227  0.0010  0.3011
25347W        W68260  15.496  22.432   3.185 -0.1064 -0.0622 -0.1417
25348W        W68261  19.973   0.340   9.302  0.2795  0.1572  0.0898
25349W        W68262  27.899  13.481   6.186 -0.1782 -0.1335 -0.0053
25350W        W68263  14.674  19.322   5.393 -0.3615  0.2819  0.2715
25351W        W68264  16.356  22.596   7.623 -0.0316 -0.0782 -0.1718
25352W        W68265  12.444  29.924  11.572  0.0861 -0.3181 -0.0704
25353W        W68266  20.102  16.587  28.224  0.0791 -0.0991 -0.0349
25354W        W68267   0.001  10.019   8.402 -0.2492  0.1941  0.2897
25355W        W68268  15.305  23.740  28.776  0.1412  0.0725 -0.2509
25356W        W68269  28.333  15.902  25.138  0.0054  0.2656 -0.2486
25357W        W68270  18.653  20.499   7.365 -0.1803 -0.1110 -0.1415
25358W        W68271  20.201  20.942   4.976 -0.2198  0.4144 -0.0972
25359W        W68272  29.349  17.873   0.766  0.2530 -0.1562  0.0688
25360W        W68273  17.702  21.619  18.408 -0.2981 -0.3710 -0.0992
25361W        W68274  28.510  23.180   4.107  0.2548 -0.1896  0.0113
25362W        W68275  17.890  19.180  27.472 -0.0325 -0.3827  0.2639
25363W        W68276  28.185  15.665   8.395  0.0722 -0.3146 -0.2764
25364W        W68277  23.635  14.638   2.642  0.1235  0.0217  0.2225
25365W        W68278  26.606   7.942   6.576  0.4129  0.1512 -0.1509
25366W        W68279  23.770  27.002   6.693  0.0666 -0.1126 -0.2693
25367W        W68280  19.947  17.029   8.727  0.1318  0.0056 -0.1671
25368W        W68281  22.027  24.655  27.756 -0.1444  0.1097 -0.2467
25369W        W68282  24.989  17.586  21.203  0.0275 -0.0079 -0.2633
25370W        W68283  23.825  28.970   7.251  0.1132 -0.3440 -0.3584
25371W        W68284  32.128  30.169   4.141  0.1196 -0.1479  0.0204
25372W        W68285  15.268  29.443  10.415  0.0257  0.0762 -0.1035
25373W        W68286   5.234  32.331   2.374 -0.0114 -0.2153 -0.2354
25374W        W68287  16.816   9.836  29.494 -0.1505  0.1393 -0.1385
25375W        W68288  20.983  19.976   3.820  0.0949  0.0109 -0.1141
25376W        W68289  20.163  23.014   4.865 -0.1695 -0.1435 -0.2545
25377W        W68290  22.643  16.597   3.581 -0.3009 -0.3129 -0.1046
25378W        W68291  10.762  25.355  27.510  0.4572  0.2695 -0.1766
25379W        W68292  20.913  25.987   4.222 -0.1385  0.2165  0.0946
25380W        W68293  25.131  24.558  29.334 -0.0637  0.1257 -0.2319
25381W        W68294  14.408  16.228  23.737  0.0201  0.1979  0.1955
25382W        W68295  26.056  27.304   5.213  0.0874 -0.1259 -0.0836
25383W        W68296  33.624  26.139   0.558 -0.0412  0.0124 -0.0045
25384W        W68297  20.112  17.008   1.291 -0.0683  0.1730 -0.1349
25385W        W68298  30.842  15.754   5.093  0.3654  0.0194 -0.0306
25386W        W68299  32.672  18.814   7.325 -0.1446 -0.2209 -0.3127
25387W        W68300  22.289  23.748   8.064 -0.4483 -0.0006 -0.3602
25388W        W68301  27.756  23.605   7.343 -0.0102  0.4531  0.0770
25389W        W68302  24.298  11.690   5.630  0.0174 -0.0421  0.1322
25390W        W68303   9.737  20.924   1.427  0.1533 -0.4620 -0.1797
25391W        W68304   2.830   2.041   7.069  0.0308 -0.2449 -0.2126
25392W        W68305  14.895  24.212  28.724  0.1323  0.0454 -0.0718
25393W        W68306  18.265  30.032   6.605 -0.1484  0.2031  0.0024
25394W        W68307  31.539  23.889   5.157 -0.1058  0.0103  0.0445
25395W        W68308  23.304  23.316  25.026 -0.1915  0.0267 -0.0033
25396W        W68309  20.547  31.642  29.512 -0.0353 -0.0676  0.1113
25397W        W68310  15.935  21.515   5.719 -0.0949  0.0902 -0.3270
25398W        W68311  24.659  19.900   8.231 -0.1919 -0.1263  0.0122
25399W        W68312  28.430  24.849   4.543 -0.0682 -0.2111  0.0976
25400W        W68313  24.459  33.538  25.169  0.0662 -0.0856 -0.0886
25401W        W68314  19.385  15.009  25.580 -0.0772  0.0681  0.1391
25402W        W68315  21.641  17.964   5.778 -0.1084  0.0125  0.0555
25403W        W68316  20.004  11.301   1.485  0.1012 -0.1407  0.3150
25404W        W68317  21.624  28.821   5.758 -0.3498 -0.2172 -0.1493
25405W        W68318  24.800  11.773   8.085  0.1200  0.0026 -0.1993
25406W        W68319  27.796  15.891   4.208  0.2791  0.1214 -0.0478
25407W        W68320  25.094  25.972   5.854 -0.1584  0.1014 -0.0115
25408W        W68321  31.913  16.444   2.923 -0.2233 -0.1661  0.0693
25409W        W68322   2.347  19.497   8.414  0.0190 -0.1849  0.1994
25410W        W68323  26.530  20.347   5.032 -0.0118  0.3527  0.0389
25411W        W68324  18.822  22.129   8.830 -0.3130 -0.1728 -0.2841
25412W        W68325  28.616  20.457   5.587 -0.1229  0.0694 -0.1544
25413W        W68326  21.520  13.899   5.123  0.0631  0.2530  0.1361
25414W        W68327  21.776  11.851   5.540 -0.0289  0.2073  0.1006
25415W        W68328  21.757  11.229   1.241  0.1325  0.0571  0.1549
25416W        W68329  24.953  20.551  27.097 -0.3984 -0.2360 -0.1502
25417W        W68330  22.093  24.326  24.833  0.3442  0.0049  0.2743
25418W        W68331  16.777  21.299   1.668  0.3365  0.0837  0.3447
25419W        W68332  14.431  19.356   1.801 -0.0537  0.1269 -0.4619
25420W        W68333  19.512  14.673   0.604 -0.0209 -0.2708  0.0943
25421W        W68334   5.744  17.832  26.123 -0.0742  0.0124 -0.0198
25422W        W68335  32.410  21.944   8.758  0.0905  0.2488  0.1148
25423W        W68336  11.560   7.803   1.671  0.1884  0.1490  0.1982
25424W        W68337  16.194  33.644   6.200 -0.0232 -0.1527 -0.1948
25425W        W68338  19.823  17.881   6.152 -0.1538  0.3859 -0.2970
25426W        W68339  21.396   8.900  29.682 -0.2211  0.0740  0.1264
25427W        W68340  21.656  28.085  25.388  0.0496  0.4882 -0.3845
25428W        W68341  16.055  10.107  27.247 -0.1220 -0.0408 -0.2305
25429W        W68342  29.728  17.110   7.412 -0.1056 -0.1181 -0.2890
25430W        W68343  25.826  21.912   2.342 -0.2389 -0.2207 -0.2090
25431W        W68344  11.725  21.624   4.167  0.0949 -0.0108 -0.1209
25432W        W68345  29.463  22.378   1.564  0.0678  0.0857  0.1061
25433W        W68346  19.499  25.389   1.016 -0.0286 -0.1725  0.1971
25434W        W68347  14.434  19.725   7.583  0.1752 -0.0898 -0.0193
25435W        W68348  20.140   3.821   8.228 -0.3836  0.1027  0.0640
25436W        W68349  30.138  24.934   3.737 -0.0336  0.0825 -0.3115
25437W        W68350  20.459  14.205  22.046  0.1013  0.0155  0.1290
25438W        W68351  21.400  23.258   0.149 -0.0575 -0.2088 -0.1896
25439W        W68352  29.168  31.483   6.197  0.1522 -0.1582 -0.3756
25440W        W68353  20.148  25.772   4.997  0.0910  0.5564 -0.1239
25441W        W68354  20.498  27.684  29.457 -0.2081 -0.0535  0.0239
25442W        W68355  23.728  15.586   8.981  0.0938  0.0143 -0.0905
25443W        W68356  27.645  14.595   3.259  0.1799 -0.0472  0.0895
25444W        W68357  20.523  17.956  21.687  0.4654 -0.0541 -0.1271
25445W        W68358  25.236  19.283   5.782  0.0883  0.0137  0.2720
25446W        W68359  28.728  18.279   9.758 -0.2507 -0.0935 -0.1229
25447W        W68360  12.494  24.681   6.413 -0.1464 -0.1291  0.2454
25448W        W68361  21.283  16.784   1.907  0.1759 -0.0771 -0.1930
25449W        W68362  13.453  29.802   4.784 -0.1718  0.1811 -0.1230
25450W        W68363  32.058  15.177  21.066 -0.1005  0.1710  0.1028
25451W        W68364  19.743  22.859  23.472  0.0812  0.2783 -0.1408
25452W        W68365  18.439  21.955   8.633  0.0975 -0.2883  0.3828
25453W        W68366  32.121   0.177   3.329  0.0719 -0.0276  0.1263
25454W        W68367  14.782  21.458   5.093  0.2782  0.2952 -0.0845
25455W        W68368  12.101  29.877  28.503 -0.1304 -0.3598  0.0979
25456W        W68369  25.418  12.700   3.987  0.2360  0.0944 -0.0301
25457W        W68370  25.769  23.899   7.603  0.3801 -0.2968 -0.1693
25458W        W68371  14.864   6.191  10.062  0.0108  0.0566 -0.0790
25459W        W68372  19.301  21.185   4.895  0.2241 -0.0577 -0.0333
25460W        W68373  21.589   2.916   8.046 -0.0303  0.1104  0.0401
25461W        W68374  32.552  21.515  23.230 -0.2918 -0.1515 -0.0427
25462W        W68375  22.388  16.509   5.476  0.1308  0.0186 -0.3596
25463W        W68376  18.999  33.783  28.707 -0.3475  0.2286 -0.2305
25464W        W68377  23.293  29.300   9.246 -0.1286 -0.1245  0.1768
25465W        W68378  26.486  20.915   7.707  0.0904 -0.3594  0.1378
25466W        W68379  25.640  32.424   7.990 -0.3351  0.1477 -0.2390
25467W        W68380  20.940  14.645   3.899  0.0549 -0.3152  0.1010
25468W        W68381  23.801  25.408   4.561 -0.0136  0.0568 -0.1477
25469W        W68382  15.430  12.418   7.999 -0.1502  0.0951  0.2170
25470W        W68383  18.759  11.040  26.710  0.1227 -0.2999 -0.0763
25471W        W68384  22.206  34.011   6.915  0.2275 -0.0803 -0.0660
25472W        W68385  18.447  10.745   1.715  0.1181  0.3103  0.2733
25473W        W68386  26.382  17.971   9.092  0.1670  0.1781  0.0728
25474W        W68387  25.609  18.011   9.479  0.4297 -0.0501  0.0228
25475W        W68388  33.101  31.331   1.413 -0.2802 -0.0404  0.0929
25476W        W68389  25.351  17.038   4.268  0.0386  0.1028  0.0109
25477W        W68390  13.448  19.788  19.556  0.0251  0.1702  0.3862
25478W        W68391  28.292  18.327   7.280 -0.3504 -0.1227  0.1780
25479W        W68392  15.715  17.485   1.515 -0.2934 -0.0961 -0.0219
25480W        W68393  21.446  32.808   8.237  0.0205  0.0824 -0.0862
25481W        W68394  18.752  25.720   1.714 -0.0419  0.0724 -0.0681
25482W        W68395  31.032  16.364   4.197  0.2247 -0.0517 -0.0228
25483W        W68396  24.489  13.802   1.128 -0.0775  0.3247 -0.0811
25484W        W68397  20.368  19.751   3.656  0.0258  0.2798  0.1701
25485W        W68398  28.306  26.454   5.700 -0.1312 -0.0803 -0.1600
25486W        W68399  22.332  19.565   2.641  0.3575  0.1107 -0.1399
25487W        W68400  23.897  16.842   5.878  0.6952  0.0477 -0.1693
25488W        W68401  23.804  20.592   6.333 -0.2164  0.0481 -0.2030
25489W        W68402  19.198  16.679   0.783 -0.1215 -0.0807 -0.2490
25490W        W68403   9.043  10.217   4.601 -0.0093 -0.2091 -0.1743
25491W        W68404  22.430  15.801   9.091 -0.0170 -0.3287 -0.0544
25492W        W68405  20.439  26.996   1.855 -0.1000 -0.1306 -0.4042
25493W        W68406  22.019  13.019   0.868 -0.1209 -0.0484 -0.0293
25494W        W68407   0.547  27.738   8.924  0.2384 -0.1495  0.0813
25495W        W68408  23.848  20.074   6.026 -0.1498 -0.2361  0.1696
25496W        W68409  28.751  22.429   2.987 -0.1030  0.0752  0.2582
25497W        W68410  22.586  29.342  28.982  0.0547  0.0152 -0.0775
25498W        W68411  17.487  24.123   0.578  0.0366 -0.2077 -0.0214
25499W        W68412   0.334  21.075   7.797  0.0654 -0.4012 -0.0934
25500W        W68413  20.246  16.176  26.502  0.0742  0.1831 -0.2356
25501W        W68414  22.498  20.287   7.608  0.0005  0.1792  0.1893
25502W        W68415  17.310  13.527   5.521  0.0313 -0.0827  0.0763
25503W        W68416  31.795  10.311  24.448  0.2264  0.3310 -0.0697
25504W        W68417  30.989  19.903   3.968 -0.0636 -0.1788 -0.2480
25505W        W68418  14.921  11.730  29.518  0.1889 -0.3118  0.0845
25506W        W68419  15.581  16.588   4.833 -0.0313  0.0820 -0.1135
25507W        W68420  28.413  33.278  27.663 -0.0117 -0.1723  0.2592
25508W        W68421  19.794  28.415   4.732 -0.0772 -0.1249 -0.0941
25509W        W68422  23.233  23.914   7.247 -0.1519 -0.0357 -0.0043
25510W        W68423  23.091  21.777   8.777 -0.4795  0.1646 -0.0885
25511W        W68424  24.519  20.009   5.726 -0.1586 -0.2269  0.2422
25512W        W68425  24.781  13.294   6.348  0.1840 -0.0349  0.5431
25513W        W68426   6.954   1.314   3.751 -0.0321 -0.1353  0.0593
25514W        W68427  18.682  17.862   4.191 -0.0797  0.1528 -0.1182
25515W        W68428  17.999  12.698   6.594  0.2734 -0.1477 -0.0347
25516W        W68429  23.403  12.707   1.008  0.0080 -0.0555  0.0978
25517W        W68430  24.357  22.451   2.385  0.1048 -0.0245  0.1221
25518W        W68431  17.713  21.267  20.885  0.0652  0.2313  0.1003
25519W        W68432  21.283  18.675   3.910 -0.4662  0.2642  0.0623
25520W        W68433  31.090  19.437   3.522  0.0049  0.3213  0.1957
25521W        W68434  20.100  19.962   4.885  0.4308  0.0709  0.1982
25522W        W68435  25.734  29.123   8.286  0.3290  0.2383 -0.1471
25523W        W68436  16.958  20.766   6.110 -0.1584  0.0770  0.2370
25524W        W68437  28.633   3.775   9.012 -0.2504 -0.1061  0.0447
25525W        W68438  14.472  16.107   4.686 -0.0514  0.0942  0.2142
25526W        W68439  12.654  27.348   9.162 -0.0611  0.0129  0.2405
25527W        W68440  26.907   9.751   7.108 -0.0907  0.1014  0.0591
25528W        W68441  31.665  17.106   9.663 -0.0848 -0.5180 -0.0666
25529W        W68442  25.956   7.465   3.017  0.1323  0.1019 -0.1379
25530W        W68443  32.483  19.284  25.607  0.2404 -0.1167 -0.0642
25531W        W68444  25.121  17.288  28.815  0.0650 -0.2099 -0.3562
25532W        W68445  16.131  26.586   5.754  0.2395 -0.1952  0.1237
25533W        W68446  28.029  19.173   5.865  0.1796 -0.2875  0.2133
25534W        W68447  31.344  11.834   4.352 -0.2336 -0.5813 -0.4989
25535W        W68448  21.083  24.679   6.424 -0.2510  0.0595  0.1006
25536W        W68449  21.583  16.347  25.136 -0.3827 -0.0383 -0.2432
25537W        W68450  30.056  15.299   8.738  0.0772 -0.1175 -0.0931
25538W        W68451  14.174  12.379   1.794  0.3255  0.1831  0.0807
25539W        W68452  22.451  12.907   8.131 -0.1990 -0.0073  0.3278
25540W        W68453  20.994  17.570   0.797  0.0812  0.2267 -0.0736
25541W        W68454  15.429  18.932  29.720  0.2339  0.3529 -0.1125
25542W        W68455  12.126  20.932  29.225  0.0164 -0.1633 -0.1925
25543W        W68456  18.723  10.904   3.933  0.2569  0.0953  0.1182
25544W        W68457  25.338  26.897   5.589 -0.1150 -0.0122  0.3163
25545W        W68458  25.870  16.000   9.165  0.0798  0.0122 -0.2326
25546W        W68459  14.779  12.307  26.609 -0.1531 -0.1970 -0.1703
25547W        W68460  25.208  14.791   7.140 -0.1471 -0.0094 -0.4576
25548W        W68461  14.775   5.579   6.150 -0.2333 -0.1243  0.2918
25549W        W68462  25.493  19.560   2.104  0.2377  0.1904 -0.2617
25550W        W68463  29.537   4.246  25.382  0.0908  0.0669 -0.1620
25551W        W68464  29.380  13.259   5.149 -0.1961  0.2529 -0.0623
25552W        W68465  10.205  12.498   6.316 -0.2845  0.3070  0.0457
25553W        W68466  24.858  23.650   6.495  0.2096 -0.1425 -0.0786
25554W        W68467  20.638  20.847   5.970  0.0992  0.1193  0.3135
25555W        W68468  23.780  24.222   6.397 -0.0678  0.1562 -0.0548
25556W        W68469  25.485  19.629   8.227  0.1211 -0.3337  0.1396
25557W        W68470  27.943  25.852   3.454 -0.2469 -0.0779  0.0827
25558W        W68471  21.382  17.775   7.109  0.0720  0.0804  0.1615
25559W        W68472  17.101  13.124  23.102  0.2881  0.1688 -0.1888
25560W        W68473  24.056  17.547   1.200  0.2164 -0.1487 -0.1193
25561W        W68474   2.665  18.813   3.336 -0.2443 -0.1950  0.0654
25562W        W68475  25.794  27.392   3.808  0.2360  0.2193 -0.0458
25563W        W68476  30.695  18.630   8.567 -0.1920 -0.1081 -0.2718
25564W        W68477  29.600  13.360   7.755 -0.1199  0.2143 -0.0782
25565W        W68478  11.964  20.046   5.004 -0.1164  0.3276  0.0195
25566W        W68479  21.644  24.832   4.856 -0.1654  0.1768 -0.3685
25567W        W68480  21.949  30.667   5.601  0.0168  0.0676 -0.0678
25568W        W68481   3.330  28.582   9.691 -0.1942 -0.1317 -0.0104
25569W        W68482  21.648  15.252   2.972 -0.0597  0.1283  0.2801
25570W        W68483  27.976  28.832   2.844 -0.2361  0.0510  0.4047
25571W        W68484  22.140  16.776   3.746 -0.2025  0.3205  0.1076
25572W        W68485  24.995  19.957   5.610 -0.0986 -0.1973  0.2956
25573W        W68486  20.390  27.243   5.720 -0.1678  0.3413 -0.3412
25574W        W68487  14.193  15.169   2.285  0.0241 -0.1077  0.1261
25575W        W68488  26.541  24.676  25.462  0.1371 -0.0721  0.2876
25576W        W68489  16.958  16.208   5.863  0.2890  0.1302 -0.1922
25577W        W68490  18.137  15.292   7.535 -0.2804  0.0447 -0.1148
25578W        W68491  27.871  12.737   8.162  0.0462 -0.0931 -0.1853
25579W        W68492  20.753  19.925  23.934  0.2999 -0.1224 -0.1627
25580W        W68493  29.901  20.506   1.006  0.1763 -0.0274  0.0202
25581W        W68494  20.040  15.497   0.796  0.0429  0.1729 -0.4338
25582W        W68495  12.553  30.813   8.391 -0.1005 -0.3003 -0.2140
25583W        W68496  13.964  23.475   0.261 -0.1862  0.2232 -0.1825
25584W        W68497  26.141  14.551   7.901  0.3658 -0.3074  0.0580
25585W        W68498  30.727  32.313   5.226  0.2518 -0.0160  0.1575
25586W        W68499  24.024  18.619   4.665 -0.0262  0.0835  0.0072
25587W        W68500  18.347   8.516   7.052  0.0629  0.2593  0.2755
25588W        W68501  22.031   6.861   1.714  0.2260 -0.0231 -0.0110
25589W        W68502  28.037  14.261   7.452  0.0020 -0.0800 -0.1259
25590W        W68503  26.609  18.166   4.129 -0.2908  0.0297 -0.2611
25591W        W68504  23.087  20.917   1.810  0.0585 -0.4434 -0.0354
25592W        W68505  21.484  13.574  27.806 -0.1270  0.0230  0.2702
25593W        W68506  18.734  20.908   3.215 -0.1437  0.1724  0.1227
25594W        W68507   4.993  12.554   8.501  0.2042  0.1305 -0.2647
25595W        W68508  28.718  21.720   7.207  0.1156  0.1150 -0.0438
25596W        W68509  22.100  18.164   6.019 -0.2935  0.1527  0.1207
25597W        W68510  26.693  19.581   6.600 -0.1853  0.0551  0.4056
25598W        W68511  24.956  12.329   4.999  0.3470 -0.0274 -0.2748
25599W        W68512  30.145  21.931   8.925 -0.1559 -0.0065  0.1828
25600W        W68513  29.606  17.067   1.956  0.2553  0.3681  0.1104
25601W        W68514  16.728  21.542   7.847  0.2260 -0.0963  0.1089
25602W        W68515  21.299  17.440   8.502  0.1274  0.2018 -0.1276
25603W        W68516  24.647  16.698   6.282 -0.0631  0.1544  0.1699
25604W        W68517  19.837  16.665   6.353 -0.2934  0.1571  0.1489
25605W        W68518  11.092  24.234   3.953  0.2850  0.1330 -0.0548
25606W        W68519  19.767  19.331   3.455 -0.1769  0.1382 -0.0644
25607W        W68520  11.596  30.096  28.256 -0.0344 -0.1253 -0.1406
25608W        W68521  28.765   9.539  29.484  0.0124 -0.1571 -0.1265
25609W        W68522  25.714  18.845   8.723  0.4608  0.0408  0.0161
25610W        W68523  24.651  16.333  29.613 -0.0085 -0.1416 -0.0623
25611W        W68524  18.753  18.348   1.800 -0.1728  0.0178 -0.2583
25612W        W68525  22.320  15.868   4.153  0.2505  0.1143 -0.2655
25613W        W68526  21.665  21.518   1.181 -0.0939 -0.0375 -0.0130
25614W        W68527   1.285  21.719   5.667  0.1619  0.1311 -0.1548
25615W        W68528  25.523  20.099   8.374 -0.1066 -0.1455 -0.3656
25616W        W68529  25.299  18.292   3.427  0.0716  0.2504  0.5053
25617W        W68530  25.679  18.520   7.730 -0.0907 -0.0409 -0.2869
25618W        W68531  25.051  30.069   6.777  0.0150 -0.1464  0.0393
25619W        W68532  27.291   9.059   6.341  0.2015 -0.0637  0.1563
25620W        W68533   1.594  17.936   1.434  0.0406 -0.1724  0.1229
25621W        W68534  17.952  18.311   1.947 -0.2021 -0.0279 -0.2119
25622W        W68535  29.839  16.703   1.633 -0.2876  0.1788 -0.2198
25623W        W68536  22.519  28.724   1.774  0.0739 -0.0566 -0.2011
25624W        W68537  18.573  22.155   4.389  0.1180  0.0045 -0.1039
25625W        W68538  18.084  19.513   0.928 -0.0170 -0.0312 -0.0079
25626W        W68539  20.208  21.646  28.218 -0.0226 -0.1056  0.0240
25627W        W68540   0.359  17.393   4.034  0.1709  0.3443  0.0144
25628W        W68541   6.753  24.353   2.187  0.0952  0.0859  0.2082
25629W        W68542  22.778  21.368   8.702  0.2013  0.0214  0.1009
25630W        W68543  25.867  13.224   9.184 -0.0465  0.0902 -0.0333
25631W        W68544  22.790  15.932   7.066  0.1832  0.3149 -0.2266
25632W        W68545  20.862  18.166  29.282  0.3147  0.0968  0.1168
25633W        W68546  23.798  11.303   7.415  0.0271 -0.0148  0.1050
25634W        W68547  16.327  20.347   6.479 -0.0605  0.0926  0.0356
25635W        W68548  24.305  17.969   8.587 -0.0719 -0.0762 -0.2071
25636W        W68549  23.162  20.914   7.928 -0.1263 -0.1735 -0.1173
25637W        W68550  12.666  14.980   6.702 -0.1712 -0.2738 -0.3663
25638W        W68551  28.562  15.115   1.541  0.1229  0.0494 -0.0657
25639W        W68552  13.679   6.807   5.226  0.0946 -0.0591 -0.0960
25640W        W68553  29.765  20.436   7.598  0.0660 -0.2498  0.0151
25641W        W68554  18.392  12.122   0.136  0.0461  0.1145  0.0666
25642W        W68555  30.361  27.251   3.617  0.2415 -0.0097 -0.2228
25643W        W68556  29.090  12.515   8.685 -0.0934 -0.2563  0.0550
25644W        W68557  14.026  24.337   3.052 -0.1681  0.1846  0.0950
25645W        W68558   8.525  10.421   9.565 -0.2984 -0.1319 -0.1331
25646W        W68559   7.400  19.802   3.235 -0.0606 -0.0656  0.2227
25647W        W68560   9.319  17.176   4.216  0.0473  0.0428  0.0292
25648W        W68561  21.892  20.693   4.909 -0.3365 -0.2188 -0.0018
25649W        W68562  15.712  12.011   8.321  0.1422  0.1297 -0.1547
25650W        W68563  33.105  18.896   2.964 -0.3631 -0.0269 -0.0961
25651W        W68564  28.928   8.345   4.003 -0.2320 -0.0052  0.3044
25652W        W68565  23.233   4.588   3.194 -0.0002  0.2209 -0.1896
25653W        W68566  14.304  22.222  25.714 -0.0860 -0.4003 -0.0750
25654W        W68567  22.702  20.377   2.954  0.0390  0.2217  0.0551
25655W        W68568  22.521  14.146   0.275  0.2778 -0.1554  0.0356
25656W        W68569  29.359  14.652   2.298 -0.2139 -0.0422  0.2012
25657W        W68570  25.433  21.426   5.730  0.2507 -0.3654 -0.1747
25658W        W68571  19.395  25.442   8.268  0.1643  0.0242 -0.0678
25659W        W68572  21.395  24.259   6.160 -0.0404  0.1625  0.1648
25660W        W68573   2.802  18.675  10.344  0.1540 -0.0657 -0.1300
25661W        W68574  24.910  28.443   7.826  0.0863  0.1108 -0.4170
25662W        W68575  34.200  13.959  29.079  0.0215 -0.0154  0.0679
25663W        W68576  29.310   9.751   2.719  0.0239  0.0905  0.3235
25664W        W68577  33.761  22.537   5.966  0.1636 -0.0289  0.2673
25665W        W68578  17.647  20.706   4.374  0.1644 -0.2259  0.0973
25666W        W68579  28.547  23.815   6.785  0.0197 -0.2606 -0.2494
25667W        W68580  24.013  26.247   2.761  0.0070  0.1472  0.3187
25668W        W68581  25.468  20.388  28.302 -0.0539  0.0686  0.3386
25669W        W68582  18.673  10.403   7.960  0.0057 -0.0808  0.0065
25670W        W68583  27.314  22.958   3.521  0.0782 -0.2635  0.2428
25671W        W68584  23.155  16.499   8.336 -0.0230  0.1146 -0.2676
25672W        W68585  12.565  16.298   3.650  0.2167 -0.0327 -0.0851
25673W        W68586  12.386  24.093  21.258 -0.1087 -0.5228  0.0773
25674W        W68587  16.362  27.340   5.774 -0.0045 -0.0177  0.1952
25675W        W68588  19.709  19.197   1.608  0.0292  0.4518 -0.0377
25676W        W68589  22.832  31.696   3.203 -0.0816  0.2112  0.1848
25677W        W68590  28.918  23.075   5.695 -0.0091 -0.0094 -0.1682
25678W        W68591  25.067  24.540   2.942 -0.0418 -0.0871  0.3595
25679W        W68592  11.479  15.740   8.946 -0.0697 -0.5072 -0.2348
25680W        W68593  23.298  26.791   3.514 -0.1176  0.1174 -0.1423
25681W        W68594  24.490  12.299   2.502  0.2997 -0.0641 -0.1863
25682W        W68595  21.477  27.256  25.500  0.0577 -0.0750 -0.0190
25683W        W68596  21.720  18.492   3.078 -0.1429 -0.0231 -0.1081
25684W        W68597  19.728  12.149   3.372 -0.0011  0.2604  0.0378
25685W        W68598  16.898  27.921   3.864 -0.1271  0.2178  0.1602
25686W        W68599  24.467  12.452   7.541 -0.1226 -0.1657  0.0876
25687W        W68600  24.991  27.101   7.648  0.0750  0.0795 -0.0520
25688W        W68601  16.525  18.301   7.870  0.0518 -0.1405  0.0708
25689W        W68602  21.667  14.125   4.444  0.0438 -0.5152  0.2904
25690W        W68603  23.874  15.669  29.714  0.0342  0.3250 -0.1816
25691W        W68604  16.634  23.160   0.249 -0.0769  0.0851 -0.0555
25692W        W68605  32.911  22.208   9.157 -0.3232 -0.0332  0.2134
25693W        W68606  18.132  20.527   5.368  0.3666 -0.5032  0.0915
25694W        W68607  19.615  19.128  25.932  0.1609  0.5114 -0.0298
25695W        W68608  16.918  18.878   7.027 -0.1326  0.1977  0.0865
25696W        W68609  23.598  15.251  26.409 -0.0271  0.1835 -0.0738
25697W        W68610  32.609  16.570   9.648 -0.1153 -0.0914  0.0713
25698W        W68611  12.898  33.079   5.278  0.3987 -0.0708 -0.0154
25699W        W68612  14.840  16.068  28.433 -0.1939  0.1279 -0.2875
25700W        W68613  22.269  28.730  26.381  0.2290  0.0418 -0.0776
25701W        W68614  19.532  16.456   4.003  0.1817 -0.1912 -0.0983
25702W        W68615  18.412  16.422  29.051 -0.0847 -0.3330  0.1331
25703W        W68616  31.493  22.702   6.555 -0.0194 -0.0745 -0.0761
25704W        W68617  13.749  24.446   7.241  0.1266  0.0567 -0.0405
25705W        W68618  17.116  18.659  24.721 -0.1294  0.3222  0.0241
25706W        W68619  15.280  18.394   4.160 -0.1991 -0.4707 -0.0547
25707W        W68620  24.797  14.615   8.141 -0.0010  0.2326 -0.3488
25708W        W68621  23.488  23.814   5.640 -0.2038  0.0215  0.1973
25709W        W68622  31.610  19.712   1.458  0.2081 -0.1288  0.4288
25710W        W68623  20.779  22.790   7.520 -0.0900 -0.0296 -0.2352
25711W        W68624  20.116  16.027   5.794 -0.0172  0.0750 -0.1472
25712W        W68625  27.654   0.492   3.332 -0.4538 -0.1782 -0.2136
25713W        W68626  29.724  21.136   4.806  0.1145 -0.0426 -0.0863
25714W        W68627  22.951  20.914   3.169  0.0924 -0.3193  0.2871
25715W        W68628  32.284  18.884   9.672  0.0198  0.2083  0.0790
25716W        W68629  17.844  21.175   3.157  0.0543 -0.0918  0.0015
25717W        W68630  33.020  15.045   9.856 -0.2948  0.3352 -0.2326
25718W        W68631  19.208  13.812   0.928  0.1890  0.1325  0.2009
25719W        W68632  30.080  28.094   7.841  0.0310 -0.1300  0.0818
25720W        W68633  23.960  20.365  26.847  0.3353 -0.0439  0.1348
25721W        W68634  32.445  22.168   4.088 -0.1086 -0.1889 -0.3383
25722W        W68635  11.583  26.589   5.236 -0.1649 -0.0479  0.2821
25723W        W68636  15.183  16.915  29.573 -0.1410  0.3751  0.1981
25724W        W68637  11.195  25.021   8.463 -0.5077 -0.2320  0.0420
25725W        W68638  15.719  28.494   3.888  0.1824 -0.0516  0.1500
25726W        W68639   2.255  24.030   7.618 -0.1584 -0.2169 -0.1713
25727W        W68640  15.768  20.895   4.707 -0.2646 -0.0379 -0.1351
25728W        W68641  24.679  13.375   0.902 -0.1322  0.0601 -0.2989
25729W        W68642  16.113  22.634   1.806 -0.1851  0.0852 -0.2925
25730W        W68643  22.761  25.669   6.313 -0.1589  0.0636  0.0347
25731W        W68644  23.911  23.619   2.979 -0.2386  0.4206 -0.0642
25732W        W68645  22.537  10.573   3.536  0.1810  0.2603 -0.1575
25733W        W68646  33.830  18.053   8.470 -0.0209  0.0603 -0.0586
25734W        W68647  30.032  12.875   3.745  0.2273  0.3153  0.0586
25735W        W68648  24.075  23.570   4.393  0.1181 -0.0167  0.0416
25736W        W68649  30.243  27.337   6.994 -0.1042  0.0692 -0.3876
25737W        W68650  26.603  20.614   6.540  0.0492  0.1779 -0.0057
25738W        W68651  16.073  23.549   7.584  0.2540  0.3852  0.2897
25739W        W68652  12.028   8.101   4.282 -0.1524 -0.1929  0.0153
25740W        W68653  25.360  23.588   6.219  0.1846  0.1029  0.0767
25741W        W68654  16.263   7.549   0.442  0.2192 -0.3104 -0.2720
25742W        W68655  18.170  13.126   3.741 -0.1517 -0.0541  0.2020
25743W        W68656  21.719  13.331   7.839  0.2667 -0.2747 -0.1908
25744W        W68657  23.904  20.808  27.790 -0.1620 -0.0665  0.1970
25745W        W68658  18.660  13.134   8.112  0.1317 -0.3383 -0.2558
25746W        W68659  17.329  11.304   4.360  0.0105  0.0388  0.0793
25747W        W68660  21.600  11.212   4.404 -0.0457 -0.1079 -0.2483
25748W        W68661  31.855  23.893   4.757 -0.4421 -0.0379 -0.3196
25749W        W68662  19.203  21.875   6.964  0.0718  0.0708 -0.0106
25750W        W68663  25.960  21.992   1.771 -0.0222  0.1505  0.4311
25751W        W68664  24.744  11.040   3.224  0.2474  0.0990 -0.1347
25752W        W68665   2.443  20.242   5.354  0.1264 -0.0706  0.4222
25753W        W68666  24.980  13.404   2.944 -0.1142  0.0777 -0.0199
25754W        W68667  15.337  14.947   2.276  0.0894 -0.2338 -0.1064
25755W        W68668  28.648  25.319   0.052  0.0914  0.1053 -0.3354
25756W        W68669  25.173  10.887   0.733  0.0529  0.1557  0.0920
25757W        W68670  27.097  21.832   4.281  0.0478  0.2600 -0.2801
25758W        W68671  24.757  27.937   6.308  0.4324 -0.0318  0.0601
25759W        W68672  17.557   8.582   8.627  0.0610 -0.1730  0.0914
25760W        W68673  29.931  29.826   6.843  0.0432  0.1827  0.2858
25761W        W68674  17.220  28.902   5.495 -0.0616 -0.2895  0.2288
25762W        W68675  20.791   4.269   2.860 -0.1058 -0.0777 -0.0099
25763W        W68676  25.328  17.251  27.765  0.0122 -0.0982 -0.1615
25764W        W68677   0.431  10.148   5.958 -0.0358 -0.0790 -0.0851
25765W        W68678  14.179  23.436   3.131 -0.1004  0.6230  0.0853
25766W        W68679  31.970  24.867   7.732 -0.4246 -0.1192  0.1850
25767W        W68680  26.710  14.642   2.618  0.3303  0.1948 -0.1066
25768W        W68681  29.812  13.038   8.144 -0.2627 -0.0478  0.1189
25769W        W68682  12.122  23.551  28.911  0.1436 -0.5935 -0.1391
25770W        W68683  13.917  11.836   3.216  0.2431 -0.0212 -0.2775
25771W        W68684  29.288  12.041   2.170 -0.0181 -0.5709  0.3988
25772W        W68685  28.338  18.103   2.392 -0.1990  0.0107  0.3450
25773W        W68686  30.154  27.455   4.844 -0.0405  0.0528 -0.2516
25774W        W68687  17.870  21.641   7.932 -0.2557 -0.2057  0.1103
25775W        W68688  26.294  31.347  25.762 -0.0119 -0.1234  0.1207
25776W        W68689  34.330  11.936  27.488 -0.1023 -0.2222  0.2434
25777W        W68690  27.929  22.676  24.929 -0.0389 -0.3292 -0.2251
25778W        W68691  27.664   2.198   8.698 -0.3327  0.0361 -0.0859
25779W        W68692  20.253  19.647   8.247 -0.0089  0.1507 -0.2369
25780W        W68693  26.165  15.153   7.186  0.0449 -0.0028  0.1038
25781W        W68694   7.470  21.731  26.866  0.0067 -0.0333  0.0668
25782W        W68695  19.569  13.833   4.167  0.0653 -0.0075 -0.2739
25783W        W68696  26.519  16.014  21.583  0.4063  0.1713  0.1908
25784W        W68697  26.896  14.742  22.859 -0.1400  0.3044 -0.0329
25785W        W68698  26.698  24.376   2.140 -0.0624  0.2120 -0.3348
25786W        W68699  28.632  18.863   1.974  0.0149 -0.0554 -0.4946
25787W        W68700  23.216  19.456   1.841 -0.2153  0.0666 -0.1692
25788W        W68701  15.457   3.330   2.277  0.0453 -0.3796  0.0307
25789W        W68702  31.887  23.412   1.902 -0.0321  0.1246 -0.0051
25790W        W68703  24.764  10.570   4.044 -0.1020 -0.1330  0.2095
25791W        W68704   9.820  28.811   6.323  0.0410  0.1486 -0.2404
25792W        W68705  28.259  29.996  27.026  0.2065  0.3263  0.1441
25793W        W68706  21.492  23.894  29.423  0.3954  0.0274 -0.3395
25794W        W68707  27.519   3.646  10.392  0.1677  0.1861 -0.0957
25795W        W68708  20.497  18.275  21.233  0.3474 -0.0623 -0.0696
25796W        W68709  26.618  18.161  14.808 -0.0040 -0.1469 -0.2549
25797W        W68710  32.317  31.458  29.154 -0.3569 -0.0822 -0.0004
25798W        W68711  32.115  31.205   6.808  0.1547 -0.1566 -0.1132
25799W        W68712  14.488  26.632   4.220 -0.0726  0.1558  0.2050
25800W        W68713  17.623  27.315   6.540  0.0366  0.3065 -0.2103
25801W        W68714  20.917  23.459  27.844 -0.0563  0.2480 -0.1599
25802W        W68715  22.466   0.363   8.634  0.4204 -0.3443  0.3852
25803W        W68716  15.875  23.656   4.842 -0.0046 -0.2601  0.1068
25804W        W68717  21.625  20.205   4.935  0.0778  0.1499  0.3524
25805W        W68718  24.940  27.876   6.869 -0.3487 -0.1458 -0.2924
25806W        W68719  17.409   1.432  21.786 -0.1861  0.2479  0.1149
25807W        W68720  25.116  26.433  21.275 -0.0233  0.4709  0.0881
25808W        W68721  24.203  32.489   9.401  0.0500 -0.0589 -0.2837
25809W        W68722   9.709  26.591  22.583  0.1019 -0.0942  0.0250
25810W        W68723  27.045  27.380  25.490  0.0380 -0.2563  0.2066
25811W        W68724  12.285  17.554   4.737  0.2600  0.0371  0.0326
25812W        W68725  26.616  33.050  19.448 -0.2540 -0.0219 -0.1080
25813W        W68726  27.698  17.072   8.568  0.0916 -0.3739  0.0419
25814W        W68727  20.834  22.526  25.525  0.1333 -0.0564 -0.2219
25815W        W68728  23.687  18.354   1.141 -0.0406 -0.2902 -0.1788
25816W        W68729  17.558  20.808  25.980  0.0637  0.1524 -0.2247
25817W        W68730  28.476  12.156   0.271  0.1130  0.2427 -0.2124
25818W        W68731  22.370  10.229   1.660 -0.1116  0.2662 -0.2045
25819W        W68732  22.217   9.782   0.823 -0.0631  0.1322 -0.0921
25820W        W68733  18.231  28.635   6.210  0.1267 -0.0749 -0.1257
25821W        W68734  30.493   5.471   3.243 -0.0114  0.1267 -0.2305
25822W        W68735  29.397   0.849   9.827  0.0707  0.3883  0.2578
25823W        W68736  26.382  28.535   8.217 -0.1102  0.2348 -0.2278
25824W        W68737  20.854  22.678  26.037  0.0230 -0.0206  0.0944
25825W        W68738  24.612  27.739  29.494  0.0260  0.0349 -0.0682
25826W        W68739  31.655  15.058   4.222 -0.0968 -0.0458  0.0402
25827W        W68740  18.933   8.567   5.222 -0.1361 -0.1443 -0.1537
25828W        W68741  20.358  25.459   9.494 -0.1855 -0.2617 -0.2481
25829W        W68742  26.293  26.386   0.570 -0.1433  0.2009  0.1735
25830W        W68743  10.257  19.087  25.254  0.3646 -0.1935 -0.1549
25831W        W68744  24.750  25.939   1.317  0.3802 -0.0614 -0.2529
25832W        W68745  24.701  14.666  21.554  0.2540  0.0875 -0.1048
25833W        W68746  22.290  16.295   3.361 -0.2447 -0.3272  0.0622
25834W        W68747  16.938  30.696  15.754 -0.1240  0.2644 -0.1526
25835W        W68748  19.241  13.559  27.298 -0.0327  0.1113 -0.1343
25836W        W68749  19.900  18.494   1.969 -0.0095  0.1390 -0.0122
25837W        W68750  33.612  27.584  25.049 -0.3467 -0.1986 -0.0306
25838W        W68751  32.250  16.753  23.171 -0.3036 -0.3649  0.3324
25839W        W68752  27.226  18.099  29.557  0.0101  0.0934 -0.1618
25840W        W68753  26.123  23.003   7.703  0.2549 -0.0337 -0.1252
25841W        W68754  29.657  23.922  29.192 -0.2716  0.2814 -0.1991
25842W        W68755   4.861  27.321  19.650  0.1160  0.0222 -0.0828
25843W        W68756   1.038  15.645  25.952  0.0786  0.1898 -0.0246
25844W        W68757  22.646  25.359   1.858  0.2603  0.0384  0.2141
25845W        W68758  20.607  24.285  23.521 -0.0005  0.1264 -0.0928
25846W        W68759  22.024  31.536   9.804  0.2161 -0.0594  0.0929
25847W        W68760  19.444  14.127   0.603  0.0969  0.1084 -0.0992
25848W        W68761  21.541  17.457  27.711  0.0434 -0.2029 -0.0652
25849W        W68762  27.686  26.869   3.898  0.0883  0.2017  0.0842
25850W        W68763  30.539  26.230   4.029  0.3696  0.0799  0.3213
25851W        W68764  19.339  26.781   7.057 -0.0689 -0.2269  0.1679
25852W        W68765  20.656  21.654   4.140 -0.1163 -0.1097  0.5386
25853W        W68766  18.619  21.356   4.983  0.0009  0.3974 -0.1796
25854W        W68767  17.361  14.368  28.210 -0.0768  0.0908  0.1801
25855W        W68768  23.507  30.565   5.148  0.0806  0.1608  0.0579
25856W        W68769  33.110  33.904   3.845  0.4402 -0.1868  0.0015
25857W        W68770  17.843  24.073  28.983  0.0049 -0.0119 -0.0576
25858W        W68771  12.513  31.547  27.981  0.0273  0.1877  0.0889
25859W        W68772  33.487  33.440  10.316 -0.2214 -0.1350 -0.0453
25860W        W68773   8.946  25.638  20.267  0.0206 -0.2229 -0.2710
25861W        W68774  28.715  29.075  26.933 -0.1576 -0.1776 -0.0180
25862W        W68775  12.759  25.569   3.232 -0.1052 -0.0891 -0.3332
25863W        W68776  17.673  29.036   4.026  0.1964  0.1159 -0.1655
25864W        W68777  21.311  28.462  27.380 -0.1406  0.1617  0.0929
25865W        W68778   9.538  25.901  23.613  0.1106  0.0774  0.1859
25866W        W68779  14.934  23.398  22.863 -0.2122  0.1993  0.1345
25867W        W68780  15.767  18.536   5.123  0.0572  0.3077  0.0099
25868W        W68781  20.666  27.378   8.302 -0.1169 -0.1087  0.1279
25869W        W68782  24.133  32.268  29.763 -0.2021 -0.0568  0.2704
25870W        W68783  27.358  19.242   4.207 -0.0321  0.2222 -0.0057
25871W        W68784  16.522  18.491   2.581  0.1204  0.1292  0.1150
25872W        W68785  24.192  26.724   0.886  0.0193  0.1073  0.0169
25873W        W68786  26.622  23.394   5.445 -0.1057 -0.1698  0.0583
25874W        W68787  16.834  18.083  26.777 -0.2377  0.6028 -0.5309
25875W        W68788  17.045  32.303   5.118 -0.0920 -0.0451 -0.0576
25876W        W68789  13.654  31.532   8.522  0.2313 -0.3519  0.0568
25877W        W68790   9.828  20.172  28.612  0.1440  0.3107 -0.1170
25878W        W68791  13.595  25.278   1.070 -0.1010  0.0532  0.0037
25879W        W68792  30.541  22.516   5.900  0.1589  0.0657  0.1447
25880W        W68793  28.428  26.189   3.813  0.1086  0.1248  0.1035
25881W        W68794  20.022  17.157  22.307  0.0192  0.0824 -0.1991
25882W        W68795  13.073  30.795   8.643  0.2133 -0.3678 -0.0877
25883W        W68796  16.738  13.309   2.502  0.0594  0.2891  0.2245
25884W        W68797  22.135  27.760  26.953  0.0885  0.0215 -0.1904
25885W        W68798  26.628  18.714   4.877 -0.2068 -0.1253  0.0026
25886W        W68799  32.884  31.215   5.291  0.3301 -0.0991  0.0372
25887W        W68800  20.689  19.173  26.297 -0.1860 -0.2173 -0.4682
25888W        W68801  23.124  33.236   1.293 -0.1655  0.0886  0.0268
25889W        W68802  20.721   1.595   5.362  0.0345 -0.2585 -0.0909
25890W        W68803  20.710  28.082  25.969  0.1537  0.2758 -0.2121
25891W        W68804  22.074  30.534  28.986  0.0859 -0.3945  0.0070
25892W        W68805  11.362  25.215   4.959  0.3717 -0.2586  0.0325
25893W        W68806  29.581  22.358  26.433  0.0948 -0.2261 -0.2688
25894W        W68807   4.033  22.617  29.148 -0.1349 -0.0022 -0.1470
25895W        W68808  15.405  29.641  19.001  0.0027 -0.0286  0.0605
25896W        W68809  14.885  11.866  26.161  0.0305  0.2593  0.1122
25897W        W68810  21.450  17.606   6.029  0.1721 -0.1764  0.3199
25898W        W68811  19.630  14.974  25.131  0.2470 -0.3667 -0.1950
25899W        W68812  24.028  22.174  23.179 -0.1387 -0.0377 -0.0137
25900W        W68813  17.251  27.240   5.333  0.3170  0.1691 -0.0359
25901W        W68814  18.556  19.379  26.025  0.1529 -0.0615 -0.0761
25902W        W68815  25.898  21.000   7.792  0.4019  0.3418  0.2894
25903W        W68816  21.132  27.072   7.553 -0.0319 -0.0065 -0.2445
25904W        W68817  16.645  30.508   2.442  0.0929 -0.4285  0.1366
25905W        W68818  13.892  29.110  29.732  0.2795 -0.2741 -0.0286
25906W        W68819  23.581  26.456   5.520 -0.1571 -0.0222 -0.3108
25907W        W68820  17.883  21.857  19.642 -0.0740  0.2095 -0.0461
25908W        W68821   1.804  27.966  25.625 -0.3145 -0.1192 -0.2333
25909W        W68822  21.879  33.968   9.316 -0.1729  0.1613  0.0687
25910W        W68823   2.754  22.307   6.384 -0.1424  0.0589 -0.1932
25911W        W68824  26.222  19.310  28.577 -0.0275 -0.0589 -0.0300
25912W        W68825  26.949  28.196   3.202  0.2021 -0.0061  0.0004
25913W        W68826  26.053  16.860   5.479  0.0069 -0.0261 -0.1362
25914W        W68827  21.339  28.404   4.927  0.0534  0.0921  0.0686
25915W        W68828  20.591  20.663  28.247 -0.0673  0.1089 -0.2595
25916W        W68829  23.300  21.702   1.254 -0.3897 -0.1504  0.1619
25917W        W68830   3.356   2.424  23.764  0.1928 -0.0762 -0.1684
25918W        W68831  20.182  31.301   6.535 -0.2287  0.5492  0.1557
25919W        W68832  17.636  19.145   3.687  0.1697 -0.0573 -0.1985
25920W        W68833  22.242  20.725  26.952 -0.1456  0.0404 -0.0429
25921W        W68834  18.496  25.326   0.448  0.0542  0.0387 -0.1434
25922W        W68835  16.092  30.271   7.017 -0.1555 -0.2174 -0.2981
25923W        W68836  20.427  25.296   4.404  0.2076 -0.0181 -0.0570
25924W        W68837  12.626  29.113  25.290  0.0837  0.2444  0.0404
25925W        W68838  23.927   8.336   9.800 -0.4068  0.0572 -0.2718
25926W        W68839  22.692  22.395   6.726 -0.0908 -0.0310 -0.2236
25927W        W68840  28.786  28.746   6.157 -0.3152  0.3907 -0.2825
25928W        W68841  21.164  26.784  28.295 -0.0655 -0.1607  0.0407
25929W        W68842  21.896  27.706   8.240  0.2176 -0.1094  0.2625
25930W        W68843  27.339  26.348  17.250  0.0206  0.0017  0.0513
25931W        W68844  26.577  31.780   7.150 -0.0248  0.0329  0.2261
25932W        W68845  12.354  29.689  29.009 -0.0123 -0.1489 -0.0944
25933W        W68846  28.255  15.327   3.579  0.0818  0.1085  0.1419
25934W        W68847  31.294  23.047   8.797 -0.0398  0.0712 -0.1300
25935W        W68848  17.725  26.445   3.710 -0.1018 -0.2499 -0.1030
25936W        W68849  19.077  26.941  29.751 -0.0979 -0.0968 -0.0068
25937W        W68850  25.518  15.876  28.065 -0.1328 -0.0539 -0.3269
25938W        W68851  29.560   4.051  27.794  0.3233 -0.1038 -0.0510
25939W        W68852  17.335  10.755   6.380  0.0322 -0.0089  0.1908
25940W        W68853  21.916  10.474  28.309  0.0020 -0.0957  0.0747
25941W        W68854  23.048  18.738   4.557  0.2419  0.0172 -0.0135
25942W        W68855  31.098  19.971   8.497 -0.2595  0.3351  0.0874
25943W        W68856  17.958  20.090  25.329 -0.0800  0.0524  0.0925
25944W        W68857  13.322  10.560  22.848 -0.1897 -0.0505  0.1033
25945W        W68858  26.790  30.441  26.532 -0.0486 -0.0125 -0.0544
25946W        W68859  29.206  27.973   5.660  0.1248 -0.2076 -0.2771
25947W        W68860  19.919  33.668  23.455 -0.1165 -0.0536 -0.3251
25948W        W68861  23.776  20.772   5.832 -0.0797  0.2123 -0.0946
25949W        W68862  21.318  33.831   0.794  0.1703 -0.1081 -0.1028
25950W        W68863  21.629  21.304  25.282 -0.0346  0.3093  0.1664
25951W        W68864  20.025  18.613  27.521 -0.2832  0.2081 -0.2826
25952W        W68865  23.339  15.374  27.440 -0.1030  0.1382 -0.0466
25953W        W68866  16.568  30.998   3.381  0.1543 -0.6029  0.1520
25954W        W68867  18.115  26.016  28.066  0.0607 -0.2490  0.2561
25955W        W68868  16.849  11.926   0.873 -0.0007 -0.2791  0.1061
25956W        W68869  18.309  24.335   3.141 -0.2901 -0.1507 -0.2724
25957W        W68870  31.974  20.935   1.302  0.0057 -0.1850  0.0585
25958W        W68871  23.071   8.727  28.033 -0.0377  0.1377  0.3260
25959W        W68872  23.383  30.671   1.898  0.3135  0.2056  0.1834
25960W        W68873  14.170  24.449   6.361  0.2717 -0.2345 -0.4817
25961W        W68874  12.473  16.072   1.095  0.0405  0.1634 -0.1134
25962W        W68875  13.676  25.908  29.114 -0.0696  0.0278  0.2247
25963W        W68876  29.871   1.225  19.997 -0.0554  0.0084  0.2788
25964W        W68877  29.220  26.805   6.652 -0.3587 -0.0152  0.2910
25965W        W68878  23.360  27.770   7.789  0.3618 -0.0491  0.0347
25966W        W68879  17.711   2.664   8.300 -0.1525  0.1802  0.0023
25967W        W68880  17.634  30.515  27.726  0.3410  0.1072 -0.1189
25968W        W68881  33.072  20.220   1.487  0.0409 -0.0178  0.1069
25969W        W68882  25.356  20.926   5.662 -0.4427  0.0216 -0.0684
25970W        W68883  12.750  21.532  28.868 -0.2954 -0.0678  0.2012
25971W        W68884  25.890  30.867   0.420  0.0756 -0.0085 -0.1147
25972W        W68885  19.178  20.787  21.543  0.0739  0.4365  0.1724
25973W        W68886  23.110  28.473  29.297  0.2996  0.3710 -0.2307
25974W        W68887  18.485  24.182   0.565 -0.4885 -0.0123 -0.1919
25975W        W68888  20.486  32.789   1.865 -0.4133  0.0290 -0.1218
25976W        W68889  25.271  28.844   1.526 -0.1719  0.0464  0.1204
25977W        W68890  28.782  27.110   0.048 -0.1317 -0.0286 -0.0785
25978W        W68891  15.977  15.296   5.121 -0.2645 -0.0695 -0.0034
25979W        W68892  23.011  22.137   0.037 -0.2574 -0.0936  0.0205
25980W        W68893  24.346  28.364   1.058 -0.0207 -0.1751  0.1345
25981W        W68894  33.957  26.945   3.665 -0.3775 -0.0366  0.0156
25982W        W68895  25.329  25.053   2.390 -0.3504  0.2109 -0.1091
25983W        W68896  13.824  16.956  24.173 -0.2803 -0.2487 -0.2213
25984W        W68897  19.599  16.983  28.443  0.0055  0.1167  0.1270
25985W        W68898  13.335  27.881  10.600  0.0317 -0.0823 -0.0310
25986W        W68899  25.600  20.867   5.181  0.1843  0.0761 -0.0702
25987W        W68900  18.050  16.645  26.758  0.0609 -0.0623  0.1413
25988W        W68901  22.213  26.758  27.071  0.2511 -0.1791  0.0824
25989W        W68902  22.234  22.649   3.377  0.0141  0.2012 -0.1187
25990W        W68903  33.367  12.274   1.902 -0.0210  0.1062  0.0656
25991W        W68904  23.380  18.076   8.932 -0.5057 -0.2992 -0.0243
25992W        W68905  14.934  20.964   1.020 -0.1508 -0.0225 -0.0157
25993W        W68906  15.229  22.754   0.508  0.0497 -0.1791  0.3325
25994W        W68907  11.285  16.878  21.246  0.1456 -0.1083  0.1605
25995W        W68908  28.960  26.363  28.637  0.3543  0.3621 -0.0350
25996W        W68909  19.259  22.949   4.155  0.0227 -0.1654 -0.1651
25997W        W68910  18.982  21.429   7.873  0.1101 -0.3120  0.0692
25998W        W68911  19.595  22.498   6.713  0.0486  0.1817 -0.0013
25999W        W68912  22.780   3.124  16.823 -0.3367 -0.0708  0.0845
26000W        W68913  20.635  30.805   1.210 -0.3105 -0.2839 -0.3187
26001W        W68914  21.211  28.488   0.428 -0.1870  0.1668 -0.2843
26002W        W68915  22.063   5.384   2.131 -0.1610  0.0029  0.4184
26003W        W68916  18.510  34.256  28.175  0.0756  0.1050 -0.2501
26004W        W68917  24.659  32.070   5.402 -0.1717  0.3168 -0.2367
26005W        W68918  29.363  12.217  27.240 -0.1736  0.2396 -0.1102
26006W        W68919  30.184  21.971  25.081 -0.3700 -0.0101 -0.1179
26007W        W68920   2.351  18.946  21.629 -0.1958 -0.1226  0.1828
26008W        W68921  20.435  20.988   8.141  0.1581  0.3484  0.0114
26009W        W68922  30.740  19.906   2.864  0.0797 -0.3844 -0.0799
26010W        W68923  21.977  21.571   5.202  0.2531  0.1582  0.0975
26011W        W68924  15.447  10.701   8.028 -0.3792  0.2186 -0.0238
26012W        W68925  23.559  32.373   0.738  0.1173  0.0635 -0.2419
26013W        W68926  18.168  19.072   5.870  0.1368 -0.1067 -0.2242
26014W        W68927  27.940  20.939   8.957  0.1060  0.0893 -0.0850
26015W        W68928  25.623  27.076   2.283 -0.2989 -0.1225 -0.1099
26016W        W68929  20.811  18.340   6.488 -0.1921 -0.1959  0.2952
26017W        W68930  20.002  26.143   5.463  0.1557 -0.0461 -0.2451
26018W        W68931  11.144   9.968   9.502  0.2732 -0.0731 -0.4427
26019W        W68932  18.669  24.752   6.119 -0.3787 -0.3708 -0.1230
26020W        W68933  15.152  26.204  28.440 -0.0563  0.0361  0.2505
26021W        W68934  16.035  23.884  19.458  0.2826 -0.1154  0.2492
26022W        W68935  28.668  11.536   9.523 -0.1887  0.1079  0.3217
26023W        W68936  13.925  27.050   7.035  0.0569  0.2401  0.0096
26024W        W68937  20.135  21.033  29.029 -0.0061  0.0639 -0.1485
26025W        W68938  16.140  29.859  29.340 -0.0845  0.0538 -0.1738
26026W        W68939  25.091  24.255   1.717 -0.0364  0.0779 -0.1117
26027W        W68940  21.287  22.689   6.474  0.0132  0.3180 -0.3429
26028W        W68941  12.937  15.333   4.653 -0.1180  0.1838 -0.0823
26029W        W68942  22.804  18.896  19.649 -0.2108 -0.2289  0.0601
26030W        W68943  20.863  29.379  29.297 -0.0054  0.2578 -0.0202
26031W        W68944  31.381  21.724   8.105  0.1112  0.0814 -0.2273
26032W        W68945  23.925  14.699  27.567 -0.1754  0.1192 -0.1172
26033W        W68946  33.289  27.954   2.196  0.1038  0.0085  0.0488
26034W        W68947  17.663  23.852  22.090 -0.1771 -0.0437  0.0594
26035W        W68948  14.398  23.494   4.355 -0.0627 -0.1593 -0.2317
26036W        W68949  21.033  31.197  26.098 -0.2382 -0.3352 -0.0123
26037W        W68950  25.121  19.318   6.354  0.0696  0.0204 -0.1072
26038W        W68951   1.776  29.374   7.466 -0.2135 -0.1044 -0.0495
26039W        W68952  27.430  18.834   5.091  0.0378 -0.0429  0.0581
26040W        W68953  30.804  20.839  23.632  0.3281  0.0485  0.2059
26041W        W68954  20.539  26.985  28.226  0.2252 -0.1069 -0.1318
26042W        W68955  17.155  18.033  29.181  0.2751 -0.2204  0.1538
26043W        W68956   0.465  18.170   0.709  0.1142  0.1377  0.0788
26044W        W68957  16.644  19.909  28.497  0.1976 -0.0495  0.1190
26045W        W68958  33.031   2.950   6.474  0.2137  0.2679 -0.0068
26046W        W68959  19.057  32.715  22.060  0.0450  0.2055  0.0345
26047W        W68960   7.669  30.258  27.299 -0.0017 -0.0739 -0.0208
26048W        W68961  24.569  31.547   3.341  0.2237 -0.3055 -0.0726
26049W        W68962  21.683  24.260   2.741  0.1699 -0.2332  0.0551
26050W        W68963  23.398  17.885   5.915  0.0920 -0.2370  0.1591
26051W        W68964  19.978  17.387   1.051 -0.0292  0.1606 -0.0005
26052W        W68965  23.831  16.771  24.416 -0.1862  0.0459 -0.1563
26053W        W68966  24.897  30.176  22.019  0.1935 -0.0570 -0.2548
26054W        W68967  13.860   9.971   8.645  0.1419  0.1569  0.4417
26055W        W68968  23.832  23.379  27.875 -0.5481 -0.2086 -0.3214
26056W        W68969  24.505  31.089  24.784 -0.1815 -0.5083  0.0164
26057W        W68970  27.200  23.110  28.215  0.1366  0.1682 -0.3551
26058W        W68971  26.859  29.387   2.339 -0.1150 -0.2433  0.0013
26059W        W68972  19.475  12.443  28.253  0.0720  0.3589 -0.1678
26060W        W68973  22.947  27.518   6.055 -0.0480  0.0840  0.1455
26061W        W68974  27.309  24.040  24.508  0.2093 -0.3573  0.0618
26062W        W68975   3.753  20.334   8.625 -0.0548 -0.0499  0.0349
26063W        W68976  20.007  26.735   4.995  0.1883  0.1017 -0.1447
26064W        W68977  26.305  22.405   8.715  0.1583  0.1739  0.2968
26065W        W68978  20.562  23.383  23.785  0.3500 -0.2802  0.2104
26066W        W68979  30.899  26.388   5.303  0.1088  0.0346 -0.0071
26067W        W68980  19.684  10.415   3.430  0.4150 -0.0414 -0.2531
26068W        W68981  20.055  33.645   3.688 -0.0528  0.2253 -0.1279
26069W        W68982  19.999  28.425  27.699  0.0194 -0.0145  0.0039
26070W        W68983  20.246   4.738   2.138  0.0388  0.2206  0.2132
26071W        W68984  20.604  23.835   0.903  0.1227 -0.0459  0.2611
26072W        W68985  15.707   8.965   5.760 -0.2648 -0.0447  0.0146
26073W        W68986  16.167   0.264  22.813  0.0243  0.1354  0.1154
26074W        W68987  21.990  28.377  25.633  0.4181 -0.1005  0.1053
26075W        W68988  13.686  21.099  28.411  0.2519 -0.3220 -0.2407
26076W        W68989  25.769  25.862   1.873 -0.1613  0.0148 -0.0799
26077W        W68990  18.468  23.920  28.040  0.3344  0.1802 -0.4060
26078W        W68991   2.610  22.595   3.920  0.0514  0.0828  0.2328
26079W        W68992  13.507   8.777   7.018 -0.4470  0.1200  0.0964
26080W        W68993  22.004  27.950   7.795  0.3092 -0.0495  0.0641
26081W        W68994  26.391   2.170   1.027  0.0399  0.1304 -0.0618
26082W        W68995  15.532  30.093   8.156 -0.2646 -0.0874  0.0066
26083W        W68996  28.039  26.825  13.892 -0.1584 -0.2267  0.2542
26084W        W68997  19.068  20.745  21.026  0.1972 -0.3228 -0.1886
26085W        W68998  19.487  15.823   3.267  0.5431 -0.2156 -0.2513
26086W        W68999  21.806  31.642   2.292 -0.3122 -0.3108  0.3056
26087W        W69000  29.918  22.599  27.381 -0.1473 -0.0817  0.2933
26088W        W69001  21.083  21.460   6.985  0.0694 -0.3533  0.2132
26089W        W69002  12.388  12.577   5.322 -0.2957  0.2645  0.0707
26090W        W69003   0.132  25.056   3.528  0.0641  0.0247  0.0711
26091W        W69004  20.863  32.514  21.376  0.2587  0.2072 -0.0878
26092W        W69005  25.442  26.996  29.521  0.0434  0.2470 -0.0133
26093W        W69006  14.845  12.735  23.856  0.0253 -0.0786  0.2026
26094W        W69007  13.844  21.596   1.634 -0.1558  0.0241 -0.0391
26095W        W69008  24.019  29.036  28.450  0.0712  0.1955  0.3864
26096W        W69009  21.704  24.231   5.645  0.1021 -0.1087 -0.1668
26097W        W69010  21.848  28.899   2.242  0.0987 -0.2112  0.0345
26098W        W69011  12.608  13.507   6.590  0.2303  0.1725  0.2459
26099W        W69012  26.126  25.278  25.825 -0.1143 -0.0617  0.5342
26100W        W69013  18.211  15.441   2.191 -0.1360 -0.2062  0.5676
26101W        W69014  30.672  24.251   0.863 -0.3469  0.0451  0.1349
26102W        W69015  30.682  23.494   7.557 -0.0047 -0.2508  0.0346
26103W        W69016  30.028  24.232   4.056 -0.2327  0.1234  0.0390
26104W        W69017  24.810  31.074  28.110 -0.0571 -0.0805  0.0729
26105W        W69018  29.366  25.772   6.735 -0.2122 -0.2374  0.2646
26106W        W69019  18.248  31.786   1.663  0.0752  0.1748 -0.0228
26107W        W69020   6.486  22.153  29.244 -0.1239  0.0035  0.4059
26108W        W69021  21.383  16.630  24.796 -0.1846 -0.1270 -0.0086
26109W        W69022  24.005  23.638   8.139  0.1363  0.1040  0.0462
26110W        W69023  18.661  18.711   6.283  0.0010  0.2210  0.1876
26111W        W69024  25.348  28.031   4.935 -0.1125  0.0242 -0.2121
26112W        W69025  18.663  12.456   3.911  0.2415  0.1162  0.0816
26113W        W69026  19.612  31.112   8.278  0.1469 -0.1340  0.2644
26114W        W69027  19.952  24.072   8.219  0.1297  0.0082 -0.0236
26115W        W69028  26.777  17.505   1.878  0.2984  0.0503 -0.2785
26116W        W69029  20.830  24.714   3.294 -0.3432  0.0644  0.2439
26117W        W69030  24.833  16.288   1.298  0.0394  0.2057 -0.0707
26118W        W69031  19.853  30.649   2.329  0.0576  0.1779  0.2786
26119W        W69032  12.872  14.664   5.500  0.1809  0.0192 -0.3225
26120W        W69033  20.865  25.403   8.756  0.0810 -0.1218  0.5696
26121W        W69034  26.978   2.034  22.948  0.1526 -0.1037  0.1234
26122W        W69035  17.800  30.641  21.546 -0.0011  0.0847  0.2000
26123W        W69036  22.774  26.781  28.010 -0.1643 -0.0048 -0.3503
26124W        W69037  26.089  26.514  24.393  0.3624  0.2629  0.1163
26125W        W69038  23.606  17.468  26.592  0.1084 -0.0694  0.0821
26126W        W69039  20.061  26.350  27.007  0.0939 -0.0118  0.1079
26127W        W69040   2.394  17.897  25.330  0.0931  0.0053  0.1551
26128W        W69041  13.062  27.176   5.010  0.1249  0.1510 -0.1518
26129W        W69042  14.455  21.460  29.595 -0.4293 -0.0786  0.0477
26130W        W69043  24.160  29.133  13.347  0.3811  0.1580  0.0139
26131W        W69044  17.152  28.320   6.923  0.0999  0.3031 -0.0755
26132W        W69045  13.115   1.843   2.296  0.1284 -0.0426 -0.0211
26133W        W69046  21.406  25.461   1.757 -0.0507  0.1321 -0.3080
26134W        W69047  22.217  33.100   3.698 -0.1055  0.1735  0.0487
26135W        W69048  25.819  22.282  24.714 -0.1950  0.0300  0.0757
26136W        W69049  11.222  25.149   0.553 -0.1951  0.1332 -0.1086
26137W        W69050  14.694  24.866  20.165 -0.0033  0.3216  0.2991
26138W        W69051   2.739  14.138   0.133  0.0629 -0.1444  0.2473
26139W        W69052  20.287   9.332   2.460 -0.0928  0.1823  0.1592
26140W        W69053  14.043  20.294  29.612 -0.1153 -0.1795 -0.3382
26141W        W69054  17.687  18.343   5.915 -0.0736 -0.0791 -0.1320
26142W        W69055  32.783  28.724   3.936  0.1788 -0.1727  0.0516
26143W        W69056  13.725  11.394   2.203  0.2917  0.2259  0.0320
26144W        W69057  31.249  27.478   2.745  0.0907  0.1035  0.0972
26145W        W69058  31.199  27.428   9.273 -0.1926  0.1318  0.1098
26146W        W69059  18.666  26.184   0.801 -0.1750  0.1187  0.1564
26147W        W69060  13.899  27.797  26.477  0.2006 -0.2795  0.0262
26148W        W69061  19.147  17.246  28.366 -0.1127  0.0107 -0.1624
26149W        W69062  13.732  30.161   7.462  0.0711 -0.0674 -0.0232
26150W        W69063  29.635  21.806   0.268 -0.0870 -0.0908 -0.1343
26151W        W69064   9.341  22.368   5.821 -0.1715 -0.7322  0.3554
26152W        W69065  21.722  30.022   6.407 -0.2954  0.0703 -0.2779
26153W        W69066  27.642  21.115   5.373 -0.0294 -0.4033 -0.0010
26154W        W69067  29.623  24.935   2.009 -0.1429  0.0430 -0.0997
26155W        W69068  21.000  17.287   6.721  0.1546 -0.1090  0.0120
26156W        W69069  21.077  28.847   3.729 -0.0102 -0.0672 -0.1732
26157W        W69070  21.030  18.644  27.975 -0.0288 -0.1447  0.0057
26158W        W69071  12.576  27.946   2.528 -0.3754  0.0861 -0.1287
26159W        W69072  14.159   1.413  10.081  0.2205  0.0106 -0.0505
26160W        W69073  22.939  30.620   5.159  0.0653 -0.2069  0.0199
26161W        W69074  30.917  21.472  28.814  0.0322  0.0240  0.1334
26162W        W69075  24.322  24.123   0.832  0.2690 -0.0866  0.2290
26163W        W69076  16.782  24.259  27.968  0.0001 -0.0028 -0.2668
26164W        W69077  24.568  11.577  28.187 -0.6109 -0.1111 -0.1445
26165W        W69078  21.958  22.849  29.735 -0.1579  0.2418  0.1304
26166W        W69079  17.627  25.965   0.061  0.2451 -0.0335 -0.2185
26167W        W69080  22.072   3.855   0.941  0.0653 -0.0097  0.0002
26168W        W69081  16.269  22.863   5.961  0.1906  0.2403  0.0278
26169W        W69082  32.637  28.157  24.499 -0.1436  0.3096 -0.2292
26170W        W69083  27.860  27.548  27.402 -0.0853  0.1789 -0.3543
26171W        W69084  22.095  22.101   1.961 -0.0012  0.1251 -0.5032
26172W        W69085  21.032  28.491  22.303  0.0265 -0.0134 -0.1343
26173W        W69086  24.134  17.044   3.363 -0.2625 -0.3809  0.0176
26174W        W69087  22.811  23.891   3.834 -0.3982 -0.2427  0.1256
26175W        W69088  17.161  26.879  29.457 -0.1259  0.1306  0.2228
26176W        W69089  20.356   0.429  27.348 -0.1934 -0.0222  0.0792
26177W        W69090  24.108  23.544   3.776  0.1736 -0.1768  0.0863
26178W        W69091   6.725  20.238  23.234  0.1169  0.3617 -0.3656
26179W        W69092  19.338  31.659  26.226 -0.0088 -0.0453 -0.0099
26180W        W69093  29.561  31.931   6.925  0.2267 -0.0465 -0.1385
26181W        W69094   7.394  16.825   7.813 -0.0634 -0.1264  0.2755
26182W        W69095  17.741  20.845   7.339 -0.1709  0.3605 -0.2350
26183W        W69096  18.799  21.700  22.267  0.0805  0.0437 -0.0242
26184W        W69097  26.778  19.873   7.506 -0.1738  0.4799  0.0086
26185W        W69098  25.461  18.954   6.872 -0.1517 -0.2122 -0.1860
26186W        W69099  28.292  19.164   7.300 -0.4790 -0.0893  0.0462
26187W        W69100  17.037  11.459   8.799  0.1168 -0.1411  0.0300
26188W        W69101  28.589  19.400   9.179  0.2901  0.0906  0.1546
26189W        W69102  17.988  15.046   3.873 -0.0213  0.1833 -0.0530
26190W        W69103  23.091  19.342   2.356 -0.1580  0.0813 -0.2477
26191W        W69104  18.753  14.045   0.768 -0.0973  0.0827  0.1298
26192W        W69105  29.821  34.219   0.799  0.3798  0.2592 -0.0743
26193W        W69106  33.503  25.261   7.984  0.0491 -0.0816  0.1468
26194W        W69107  25.291  27.093   8.059 -0.0690 -0.0036  0.1274
26195W        W69108  33.634  24.074   5.551  0.2523  0.0801  0.2195
26196W        W69109  17.959  12.230  29.011 -0.1623  0.4008  0.0472
26197W        W69110  19.085  22.009   1.577 -0.0338 -0.1703  0.1830
26198W        W69111  24.217  22.441  29.243  0.2101 -0.0858 -0.0589
26199W        W69112  26.609  32.206   9.539  0.1636 -0.0308 -0.0741
26200W        W69113  19.092  20.945  27.164  0.1227  0.0267 -0.0540
26201W        W69114  26.303  29.416   9.391 -0.2071 -0.3407  0.0463
26202W        W69115  26.190  18.862   7.068  0.0310  0.0230  0.1645
26203W        W69116  25.798  21.228   5.413 -0.2022 -0.1514 -0.0139
26204W        W69117  33.111  27.098   5.157  0.1262 -0.0469 -0.2717
26205W        W69118  13.505  26.081   4.962 -0.1770 -0.0550 -0.2441
26206W        W69119  20.923  27.657   7.310  0.1168  0.2413  0.0391
26207W        W69120  30.322  27.085  29.050  0.1949  0.2124 -0.1801
26208W        W69121  16.142  19.830   3.263  0.0639 -0.1721  0.0295
26209W        W69122  29.152  19.905   0.309  0.2606 -0.1050 -0.3014
26210W        W69123  25.912  22.618   5.354 -0.0870  0.0139  0.1684
26211W        W69124  13.495  21.475   6.899  0.1770  0.0195  0.0338
26212W        W69125  23.088  24.772   7.286  0.2680 -0.0718  0.0570
26213W        W69126  27.115  26.181   6.398  0.1060 -0.1308  0.0442
26214W        W69127  24.668  14.686   9.357 -0.2787 -0.1466 -0.1915
26215W        W69128  27.256  25.891  26.699 -0.0257  0.1688  0.0712
26216W        W69129  30.443  29.988   7.043 -0.1431  0.0620 -0.0970
26217W        W69130  18.490  19.099   7.759  0.1384 -0.1658  0.0425
26218W        W69131  26.338  14.254   2.882 -0.2928  0.1907  0.1012
26219W        W69132  27.999  17.230   4.868  0.1643 -0.0219  0.1938
26220W        W69133   8.709  22.341   2.783 -0.0166 -0.0583 -0.2870
26221W        W69134  19.675  30.309   8.891  0.1940 -0.2605  0.0354
26222W        W69135  16.083  27.684   2.777  0.0928  0.2808  0.2843
26223W        W69136  29.561  18.933   5.242 -0.3094  0.1087  0.2108
26224W        W69137  23.258   0.157  27.630  0.0274  0.0938  0.1564
26225W        W69138  30.871  21.273   3.815 -0.2179 -0.1857  0.3450
26226W        W69139  21.203  19.411   4.935  0.1828 -0.1833 -0.0017
26227W        W69140  26.388  19.136   3.897 -0.3478  0.2232  0.0734
26228W        W69141  27.990  29.471   8.949  0.1434  0.3152  0.2612
26229W        W69142  14.489  33.541  29.718 -0.0856  0.3483 -0.2227
26230W        W69143  26.401  28.240  29.671 -0.2789 -0.0333  0.2562
26231W        W69144  17.511  21.474   2.880 -0.2925  0.1783 -0.1145
26232W        W69145   2.263  22.705   9.389 -0.1883 -0.0998 -0.0222
26233W        W69146   3.244  21.450  27.348 -0.2402  0.0822 -0.0677
26234W        W69147  16.842  31.150   1.775  0.1514  0.1934  0.1757
26235W        W69148  10.861  29.405   2.451 -0.0818  0.0503  0.1886
26236W        W69149  13.190  25.809  28.690 -0.1198  0.5658 -0.4297
26237W        W69150  22.268  26.357  26.264  0.2067  0.0391  0.0844
26238W        W69151  31.339  20.452  25.216 -0.1010 -0.1916  0.2226
26239W        W69152  13.902  26.184   2.136 -0.0453  0.0488  0.2890
26240W        W69153  29.353   0.821   2.445  0.0612  0.2885  0.1019
26241W        W69154  33.506  20.965   6.503 -0.3128 -0.1071 -0.1680
26242W        W69155  34.103  21.189   3.566  0.3461  0.3502  0.1882
26243W        W69156  26.779  23.421  29.737 -0.0575 -0.1814  0.0079
26244W        W69157  27.496  29.067   4.350  0.2520 -0.2376  0.3182
26245W        W69158  22.016  28.885   3.531  0.1395  0.0746  0.1631
26246W        W69159  27.231  28.572   3.429 -0.1111 -0.2015 -0.0199
26247W        W69160  27.828  14.244  24.136 -0.0503  0.0004  0.2107
26248W        W69161  29.220   0.025   7.397 -0.0651 -0.1194  0.2372
26249W        W69162  24.599  14.655   4.738 -0.0585 -0.2502 -0.1301
26250W        W69163  25.776   5.064  29.393  0.0285  0.1656  0.2626
26251W        W69164  21.839  17.304   3.742  0.2864 -0.0148 -0.1348
26252W        W69165  24.350  16.462   2.279  0.0482 -0.1146  0.4946
26253W        W69166  18.091  14.982   0.512  0.2715  0.0815  0.0348
26254W        W69167  22.784  15.556   3.514  0.1128 -0.0581 -0.2741
26255W        W69168  24.038  29.857   5.958  0.0601  0.0442 -0.0066
26256W        W69169  27.194  24.788   7.470 -0.1673  0.2800  0.2667
26257W        W69170  18.657  31.209   3.204  0.0754 -0.0586  0.1097
26258W        W69171  12.840  26.858   3.738 -0.0222  0.0489 -0.1907
26259W        W69172  28.529  26.940   1.642 -0.0710 -0.0706  0.2316
26260W        W69173  23.729  17.360   3.470  0.2076  0.0596  0.2236
26261W        W69174  20.419  27.171   9.610  0.2343  0.0212 -0.0741
26262W        W69175  25.350  18.874   1.041  0.2918 -0.1135  0.0764
26263W        W69176  22.030   9.399   2.395  0.2499  0.0618 -0.0528
26264W        W69177  23.985  26.156   3.274 -0.0563 -0.2668  0.3691
26265W        W69178  28.145  24.151   5.039  0.0702  0.0501  0.0356
26266W        W69179  24.727  28.204   3.363  0.0617 -0.0617  0.1005
26267W        W69180  20.943  24.029  25.037  0.0659 -0.0479 -0.0535
26268W        W69181   1.842  16.375   6.819  0.1044  0.0217 -0.1065
26269W        W69182  21.782  23.976   6.125 -0.0785 -0.3311 -0.3068
26270W        W69183  29.589   8.148   7.978  0.0012  0.0551  0.1003
26271W        W69184  22.728  28.008   3.654 -0.3430 -0.1425  0.2137
26272W        W69185  30.721  26.725   7.558  0.0634  0.2011  0.1056
26273W        W69186  18.163  13.990   5.561  0.3387  0.0268 -0.1756
26274W        W69187  24.422  32.013   3.008 -0.0595 -0.0158 -0.2833
26275W        W69188  26.191  18.888   8.549 -0.0828 -0.2540 -0.2991
26276W        W69189  16.876  28.006  18.271 -0.0825 -0.2285  0.0811
26277W        W69190  22.080  17.463   0.743 -0.1507  0.3422  0.2118
26278W        W69191  21.250   1.866  29.394 -0.3182  0.0603 -0.2390
26279W        W69192  25.758  24.818   2.370 -0.1248 -0.2223  0.1021
26280W        W69193  19.390  17.835   6.374  0.0204 -0.1238  0.0924
26281W        W69194  23.168  21.593  24.187 -0.0612 -0.1733  0.0359
26282W        W69195  20.628  15.735   4.060  0.5395 -0.0893  0.0073
26283W        W69196  12.703  14.294   4.021  0.2573  0.0824 -0.0086
26284W        W69197  19.291  26.169   2.841  0.0976 -0.0671  0.0187
26285W        W69198  28.604  29.119   2.335  0.2077 -0.1331  0.0081
26286W        W69199  25.337  21.731   3.748 -0.0890 -0.1468  0.0749
26287W        W69200  14.534  22.020   0.268  0.2075  0.0095  0.2892
26288W        W69201  19.154  12.832  28.137  0.3063 -0.2163  0.0128
26289W        W69202   7.594  28.717  24.401  0.0019  0.0134 -0.3682
26290W        W69203  19.355  21.777  26.221  0.0271 -0.0424 -0.2068
26291W        W69204  13.701  24.821  22.831  0.0352 -0.2133 -0.0408
26292W        W69205  28.542   9.532   8.301 -0.2969  0.0557  0.0114
26293W        W69206  20.195  24.703  28.943  0.3209 -0.1499 -0.1850
26294W        W69207  16.100  21.481   3.676  0.0399  0.0120 -0.1811
26295W        W69208  20.032  17.210  21.774  0.2864 -0.1977  0.0512
26296W        W69209  27.375  16.974   5.838 -0.3654  0.1920  0.1792
26297W        W69210  30.032  34.117  29.620 -0.0175  0.0405  0.0896
26298W        W69211  21.290  27.931   1.434 -0.0897 -0.1344  0.0702
26299W        W69212  18.380  29.711   7.098 -0.1256 -0.0211  0.0723
26300W        W69213  16.913  16.663   4.766  0.1886 -0.0075  0.2418
26301W        W69214  23.871  24.512   4.237 -0.0348 -0.0777 -0.0906
26302W        W69215  25.790  16.041  26.004 -0.0322 -0.0789  0.1551
26303W        W69216  11.125  26.133  22.750 -0.2072  0.1745  0.1011
26304W        W69217  23.216  16.755  25.902  0.2835 -0.1431 -0.0076
26305W        W69218  22.220  34.267   7.604 -0.0418  0.3139  0.1981
26306W        W69219   0.521  26.367   4.028  0.1093  0.3751 -0.0552
26307W        W69220  20.413  17.083   7.255  0.0127 -0.3006 -0.1351
26308W        W69221  23.083   2.061   5.917 -0.0368  0.0306 -0.0420
26309W        W69222  25.081  20.966   2.931 -0.2160 -0.2982 -0.1872
26310W        W69223  26.306  20.248   0.434 -0.2878 -0.1679  0.0204
26311W        W69224  22.232  12.998   0.044  0.0562  0.1176  0.1304
26312W        W69225  28.739  28.963   8.014  0.2618 -0.0268  0.0899
26313W        W69226   3.413  20.723  28.192 -0.0657  0.3260 -0.1523
26314W        W69227  26.726  25.686  28.725  0.0688  0.3199 -0.1098
26315W        W69228  32.953  23.036   0.535 -0.0496  0.2782 -0.4254
26316W        W69229  31.109  22.568   7.146 -0.1105 -0.0276  0.0770
26317W        W69230  21.447  24.890   4.289  0.2330 -0.1146 -0.2246
26318W        W69231  20.546  24.275   4.118 -0.1030 -0.1950 -0.3576
26319W        W69232  14.517  30.211  27.981 -0.0984 -0.2172 -0.1689
26320W        W69233  28.572  22.267   5.954 -0.3003 -0.0659  0.3166
26321W        W69234  29.969  33.388   8.122  0.0415 -0.0234  0.0544
26322W        W69235  23.073  17.218  28.436 -0.2161  0.1472 -0.2917
26323W        W69236  19.175  21.820  28.327  0.2913  0.1862 -0.0026
26324W        W69237  27.483  27.692   0.285 -0.4258  0.0029 -0.2809
26325W        W69238   7.624  12.348  10.439  0.1543 -0.3337 -0.2795
26326W        W69239  10.825  22.527   1.166 -0.0237 -0.0171  0.0536
26327W        W69240  16.547  22.639   4.352 -0.0518  0.2619  0.3276
26328W        W69241  19.843  26.075   4.734  0.1281  0.0692  0.5180
26329W        W69242  16.547  12.358   6.262 -0.1080 -0.1437 -0.1775
26330W        W69243  19.733  17.948   1.093 -0.0024 -0.2384 -0.4121
26331W        W69244  26.416  17.337   7.399 -0.3025  0.0782 -0.1845
26332W        W69245  19.659  16.778  26.875 -0.3428  0.2551  0.0670
26333W        W69246  33.943  26.662  28.937 -0.1770  0.3895 -0.3467
26334W        W69247   0.029  11.614   0.601  0.2096  0.0886 -0.2089
26335W        W69248  22.269  22.465   7.626 -0.0478 -0.0580  0.1211
26336W        W69249  23.329  22.484   7.625  0.2090  0.1098 -0.0006
26337W        W69250  23.070   0.970  27.957  0.0850  0.0541 -0.0143
26338W        W69251  30.291  24.688   1.748  0.1500  0.0447  0.0874
26339W        W69252  32.622  19.694   3.909 -0.1403  0.2669  0.2689
26340W        W69253  22.589  22.568   0.240  0.2113  0.0664  0.0235
26341W        W69254  15.483  21.828   1.986 -0.2793  0.0510  0.4394
26342W        W69255  12.503  33.247  25.308 -0.0040  0.4435  0.0236
26343W        W69256  19.031  32.928   6.111 -0.1095 -0.1557  0.0088
26344W        W69257  33.520  22.483  26.094 -0.1886  0.0475 -0.1211
26345W        W69258  27.367  24.392   2.797  0.1474 -0.0833  0.2310
26346W        W69259  14.276  15.659   4.378  0.1674 -0.0773 -0.0538
26347W        W69260  22.312  25.138   7.865  0.0797 -0.0002  0.0644
26348W        W69261  33.955  15.006  28.399  0.0801 -0.0459  0.3281
26349W        W69262  22.037  19.315   5.225  0.4289  0.1511 -0.1507
26350W        W69263  19.899  13.071   8.873 -0.2465 -0.0870  0.0095
26351W        W69264  15.014  11.453  25.736 -0.1051 -0.0758  0.1301
26352W        W69265  26.544  18.388   5.407 -0.1488  0.1268 -0.0947
26353W        W69266  17.674  25.938   8.068 -0.1413  0.0932 -0.0664
26354W        W69267  15.671  18.797   4.217  0.0552  0.1611  0.0477
26355W        W69268   0.786  27.184   8.013  0.3147  0.0240 -0.2442
26356W        W69269  16.702  20.134   4.032  0.1082 -0.3008  0.0889
26357W        W69270  21.746  24.276   7.555 -0.2910  0.1696 -0.0427
26358W        W69271  17.375  13.851  28.012  0.2078  0.0442 -0.1809
26359W        W69272  30.510  22.771   3.502 -0.1513 -0.2406 -0.1356
26360W        W69273  25.595  21.162   3.040 -0.4453  0.1203  0.0867
26361W        W69274  22.343  28.604  25.391 -0.1102  0.0368  0.0703
26362W        W69275  25.583  25.393   5.854  0.0947 -0.4479 -0.0413
26363W        W69276  30.342  29.904   5.657 -0.2025  0.1353 -0.0645
26364W        W69277  27.475  17.763  22.704 -0.3914 -0.2939  0.1251
26365W        W69278   5.662   5.351  29.231 -0.0757  0.0477 -0.0091
26366W        W69279  22.885  23.570   1.868 -0.2750  0.0689 -0.2977
26367W        W69280  26.310  25.375   8.715 -0.1928 -0.2095 -0.1742
26368W        W69281  25.200  26.471  27.518 -0.1674 -0.0781  0.0725
26369W        W69282   0.904  23.791   7.744  0.1551 -0.2197 -0.0155
26370W        W69283  19.488  33.408   5.426  0.1614 -0.1221  0.0033
26371W        W69284  24.771  20.192   6.166  0.0560 -0.3117 -0.0398
26372W        W69285  28.193  12.048   1.566  0.0358  0.0157 -0.0196
26373W        W69286  28.892  21.452   6.417 -0.4508 -0.0347  0.1329
26374W        W69287  20.715  19.450   4.494  0.1413 -0.2518 -0.4639
26375W        W69288  25.579  22.344   2.008 -0.0344 -0.2348  0.2402
26376W        W69289  27.306  18.964   1.791  0.1344  0.0288  0.1935
26377W        W69290  23.453  17.754   7.161  0.0893 -0.1065  0.0088
26378W        W69291  16.080  28.417   6.570  0.2620  0.0280 -0.0916
26379W        W69292  23.318  16.763   3.613  0.3000  0.0627  0.1785
26380W        W69293  15.874  23.978  28.474 -0.2047 -0.1075  0.3060
26381W        W69294   5.166  11.835   9.914 -0.0363 -0.1586  0.0964
26382W        W69295  18.625  14.564   3.160 -0.1997 -0.1963 -0.2779
26383W        W69296  19.688  15.301   2.935  0.0551  0.2005  0.0128
26384W        W69297  19.148  18.628   8.778  0.1435  0.1489  0.1661
26385W        W69298  33.778  14.378  26.430 -0.0272  0.0540  0.2447
26386W        W69299  24.235  16.239   7.433 -0.1517 -0.0162  0.1224
26387W        W69300  10.196  30.731   1.594 -0.2393 -0.0927  0.0322
26388W        W69301  30.768  23.770   8.855 -0.0504  0.0971  0.0842
26389W        W69302  25.819   6.348  15.152 -0.0539 -0.0548  0.0259
26390W        W69303  29.866  19.811   8.562 -0.0182  0.1274  0.0127
26391W        W69304  16.129  13.452   0.135 -0.1358  0.1038  0.2659
26392W        W69305  27.990  24.479  23.381  0.0104 -0.0431 -0.1640
26393W        W69306  25.043  19.549   2.347 -0.0666 -0.2016 -0.1730
26394W        W69307  28.078  23.679  29.238  0.2480 -0.0905 -0.0343
26395W        W69308  12.259  16.329   2.786  0.2304 -0.0530 -0.2167
26396W        W69309  31.404  18.694  27.822  0.2701 -0.0465 -0.0297
26397W        W69310  23.348  28.794   5.593  0.0915 -0.5077 -0.0939
26398W        W69311   0.281   2.532  10.737 -0.0789  0.0387  0.2943
26399W        W69312  21.976  22.502   1.649 -0.1828 -0.0551 -0.1965
26400W        W69313  18.006  17.110   7.973 -0.0212  0.0017 -0.2469
26401W        W69314  24.076  22.645  28.282 -0.0560 -0.0725 -0.1741
26402W        W69315  17.889  17.226   5.983  0.0570 -0.0649 -0.1495
26403W        W69316  26.018  30.197   4.957  0.0501 -0.1350 -0.0736
26404W        W69317  25.666  26.368   7.860 -0.0249 -0.1205  0.2839
26405W        W69318  21.131  25.608  22.093  0.0358  0.4487  0.4017
26406W        W69319  22.905  28.291   2.648 -0.1975  0.0094 -0.0576
26407W        W69320  25.003  31.546   7.928 -0.0290 -0.0230  0.1605
26408W        W69321  33.486  13.726   7.691 -0.0556  0.2511 -0.0409
26409W        W69322  16.854  13.333   3.548  0.0421 -0.2194  0.1534
26410W        W69323  25.265  25.681   8.184  0.0491 -0.1453  0.4273
26411W        W69324  21.739  22.574   3.158 -0.2836 -0.2894 -0.1324
26412W        W69325  19.091  20.149  22.815 -0.1744 -0.0166  0.2019
26413W        W69326  28.553  25.414  28.988 -0.3921  0.2237  0.0858
26414W        W69327  23.931  15.051   0.813 -0.2530  0.2393 -0.0176
26415W        W69328  30.590  20.324   7.268 -0.1488 -0.1056 -0.0747
26416W        W69329  32.056  32.668   6.982  0.1319 -0.2457  0.0257
26417W        W69330  19.309  24.126  25.036 -0.1712  0.0788  0.1573
26418W        W69331   8.076  19.050   8.331 -0.1360 -0.0539 -0.1639
26419W        W69332  33.308  14.499   3.673  0.2210 -0.0448 -0.0944
26420W        W69333  23.774  19.003   1.801  0.2952 -0.0041 -0.0690
26421W        W69334  29.491  25.850   8.604  0.3072  0.0898  0.2140
26422W        W69335  21.472  10.383   8.631 -0.1418  0.2589  0.1112
26423W        W69336  17.789  26.769  23.269  0.1316  0.0744  0.1997
26424W        W69337  17.676  10.247   7.677  0.0912  0.0929  0.2320
26425W        W69338  16.960  12.359  28.463  0.2284 -0.0145 -0.1979
26426W        W69339  24.519  25.370   0.614 -0.1724 -0.0311 -0.0591
26427W        W69340  26.015  34.484  24.371 -0.0454 -0.2811  0.0073
26428W        W69341  28.435  31.559   2.702  0.0454  0.2053 -0.2690
26429W        W69342  31.244  24.482   0.998  0.0744  0.1837 -0.1012
26430W        W69343  15.395   0.043  10.700 -0.0614 -0.1606 -0.1426
26431W        W69344  19.276  16.769  27.478  0.0995  0.0351 -0.0203
26432W        W69345  23.638  28.977  23.228 -0.3104 -0.0263  0.0360
26433W        W69346  32.467  29.902   2.434 -0.2785  0.0441  0.0836
26434W        W69347  14.049  26.347  10.414  0.2631  0.2437  0.0394
26435W        W69348   5.594  32.228  28.623  0.0228  0.1155  0.0680
26436W        W69349  18.171  25.756  27.602  0.1913  0.5649 -0.0387
26437W        W69350  28.643  24.708   4.114  0.0557 -0.2705 -0.1643
26438W        W69351  26.577  25.464  25.041 -0.0371 -0.2096 -0.3180
26439W        W69352  29.197  21.895   5.667  0.1938 -0.0023 -0.1617
26440W        W69353  21.882  30.067   0.113 -0.2199  0.0464 -0.0849
26441W        W69354  29.722  26.610   0.564 -0.0543 -0.3098  0.1015
26442W        W69355  25.018  26.939   4.887 -0.1914 -0.2492  0.1888
26443W        W69356  12.099  31.252  27.160  0.0624 -0.1997 -0.1943
26444W        W69357  27.057  26.275   4.045  0.6092  0.1553 -0.0182
26445W        W69358  27.720  29.081   6.791  0.0118 -0.1020 -0.0356
26446W        W69359  20.695   1.072   3.585  0.0565  0.0875 -0.1958
26447W        W69360  23.191   3.567   8.565  0.0304 -0.0278  0.0373
26448W        W69361  22.865  20.643   4.700 -0.5862 -0.1453 -0.0645
26449W        W69362  22.576  20.237   4.475  0.1463 -0.1342  0.3350
26450W        W69363  21.413  22.299   6.749  0.0183 -0.2606 -0.1471
26451W        W69364  21.781  30.999   1.379  0.2026 -0.1299 -0.1585
26452W        W69365  20.985  21.865   2.969 -0.0497  0.1482 -0.0440
26453W        W69366  12.119  26.805  19.702  0.3821  0.3466  0.2589
26454W        W69367  21.092  24.960   7.556  0.0417  0.2022  0.2458
26455W        W69368  28.238  24.686  21.370 -0.0889 -0.0406  0.0033
26456W        W69369  25.030  16.295   5.002 -0.2739  0.1288  0.1365
26457W        W69370  25.842   0.285   6.236  0.0056 -0.2727 -0.1701
26458W        W69371  24.749  18.446  24.405  0.0610  0.0679  0.2451
26459W        W69372  13.461  31.916   7.707 -0.0927  0.0599  0.2375
26460W        W69373  13.791  25.656   1.405 -0.0319 -0.1399  0.0187
26461W        W69374  10.950  28.311  10.166  0.2174 -0.0231  0.1872
26462W        W69375  22.521   3.693   6.997 -0.2995  0.1205 -0.2996
26463W        W69376  20.563  26.384   3.200  0.1294  0.2582 -0.1819
26464W        W69377  27.464  27.912   8.661  0.0974  0.4043  0.4561
26465W        W69378  21.326  19.166   0.775  0.0417 -0.0975 -0.1248
26466W        W69379  17.389  24.945   6.570  0.3192  0.2517  0.1373
26467W        W69380   4.887  23.607   1.816 -0.0002  0.0318  0.0095
26468W        W69381   4.147  13.649   4.339 -0.2342 -0.0681 -0.3549
26469W        W69382  24.304  13.677   8.394  0.5401  0.0636 -0.2316
26470W        W69383  31.314  32.224   4.423 -0.2139 -0.4003 -0.4977
26471W        W69384  18.323  33.979   7.953 -0.3022 -0.4318 -0.0789
26472W        W69385  12.534  26.487  28.760 -0.0061 -0.1204 -0.0653
26473W        W69386  22.326  16.886   0.838  0.1379 -0.5482 -0.1011
26474W        W69387  24.838  23.378   6.943 -0.1869  0.2349  0.0890
26475W        W69388  16.848  23.337   3.585  0.2891  0.3631 -0.1134
26476W        W69389  29.790  31.493   4.913 -0.0491 -0.4342  0.0126
26477W        W69390  30.449  18.241  26.194  0.1648  0.0661 -0.0163
26478W        W69391  20.113  18.885   1.649  0.2769 -0.4184  0.3869
26479W        W69392  23.032  24.105   2.460 -0.1257  0.3483  0.0953
26480W        W69393  19.705  25.201  29.027  0.0006 -0.0017  0.0826
26481W        W69394  10.996  29.927  10.534  0.0769  0.0286 -0.1909
26482W        W69395  18.570  23.231   4.800  0.3308 -0.2220  0.0078
26483W        W69396  19.195  23.827   2.489 -0.1495 -0.0759  0.3822
26484W        W69397  27.809  16.628   7.404  0.2064 -0.3761  0.0272
26485W        W69398  25.890  14.856   5.018  0.2637  0.0409  0.2250
26486W        W69399  28.606  27.836   8.348 -0.0461 -0.2298  0.2361
26487W        W69400  26.425  16.252   0.208  0.0746  0.1494 -0.2656
26488W        W69401  30.773   3.077   9.925  0.0256 -0.1757  0.1063
26489W        W69402  24.616  23.899   8.399  0.1543  0.2817  0.0759
26490W        W69403  23.278  27.884   6.524  0.0062  0.0745 -0.0348
26491W        W69404  26.393  26.584   8.651 -0.3646  0.0808  0.0962
26492W        W69405  17.011   0.719   3.066 -0.1888 -0.0266 -0.0846
26493W        W69406  26.725  31.119   3.754 -0.0064  0.1045 -0.1494
26494W        W69407  17.413  27.868   7.365 -0.0649 -0.0537 -0.2736
26495W        W69408  28.908  19.124   1.631  0.0396  0.0263  0.1869
26496W        W69409  24.123  23.700   6.413 -0.2279  0.1251 -0.0229
26497W        W69410  17.508   3.512   1.931  0.2453  0.0536 -0.0679
26498W        W69411  25.381  28.856   8.567  0.1613 -0.0201 -0.0670
26499W        W69412  21.742  13.304   4.231  0.0601 -0.0829  0.2875
26500W        W69413  20.467  20.175  28.429  0.2176 -0.0999  0.6172
26501W        W69414  29.101  18.444  27.046 -0.0528  0.2188 -0.2560
26502W        W69415  21.096  25.120   3.283  0.3027  0.4280  0.0183
26503W        W69416  29.003  20.566   2.973  0.1261 -0.0202  0.1158
26504W        W69417  26.089  26.879   4.245 -0.1391 -0.1468  0.1092
26505W        W69418   8.781  26.673   6.275 -0.4206  0.0641  0.3006
26506W        W69419   7.419  22.620   7.666 -0.0702 -0.0363  0.0819
26507W        W69420   3.993  21.598   1.596  0.0036 -0.0125 -0.2829
26508W        W69421  26.206  18.497   4.884 -0.0397 -0.1910  0.3375
26509W        W69422  28.807  14.749   4.089  0.2407 -0.0754 -0.0699
26510W        W69423  23.696   2.084  25.555  0.2013  0.2137  0.0474
26511W        W69424  23.374  20.062   0.762 -0.0559 -0.2355 -0.2530
26512W        W69425  16.124  16.648   6.352 -0.4413  0.0716  0.0751
26513W        W69426  26.072   1.629   8.845  0.1491 -0.0768  0.2407
26514W        W69427  27.251   0.183  25.630 -0.3330  0.0402 -0.4544
26515W        W69428  13.343  30.555   3.743  0.1989 -0.1056  0.2037
26516W        W69429   9.805  24.254   7.761 -0.3388  0.2647  0.2065
26517W        W69430   2.938  24.699   8.677 -0.1964  0.1925  0.2362
26518W        W69431  23.033  17.906   3.082 -0.0144 -0.1550  0.0536
26519W        W69432  33.630  17.654   8.131 -0.4991 -0.2606  0.1346
26520W        W69433  30.751  31.618   3.164  0.1713 -0.1728  0.1298
26521W        W69434  19.044   1.073  24.808 -0.1163 -0.1792 -0.2263
26522W        W69435  21.150  23.404   7.375 -0.2541  0.0785 -0.1175
26523W        W69436  31.115  24.713   6.100 -0.0971  0.2503 -0.2159
26524W        W69437  17.315  32.075   7.818 -0.1058  0.0726 -0.0230
26525W        W69438  19.014  17.954   0.225  0.0530 -0.2479 -0.1023
26526W        W69439  21.183  21.336   2.880  0.0003 -0.0303 -0.1070
26527W        W69440  22.166  33.828   7.949  0.2859 -0.2638 -0.2587
26528W        W69441  21.251  17.266   2.760  0.0715  0.0012  0.2247
26529W        W69442  18.414  17.891  28.389 -0.2020 -0.0253  0.0542
26530W        W69443   7.970  30.566   6.824  0.0686  0.2825  0.1537
26531W        W69444   0.019  10.140   2.567  0.2097 -0.1446  0.0612
26532W        W69445  29.358  15.913   8.345  0.0701 -0.0087  0.2370
26533W        W69446  24.318  24.131   7.036 -0.0121  0.2209  0.4213
26534W        W69447  20.687  22.129   4.351 -0.0299 -0.0257  0.0981
26535W        W69448  15.688  25.531   3.699  0.2742 -0.0575  0.1376
26536W        W69449  25.865  20.255   3.621 -0.0099  0.2545  0.2101
26537W        W69450  18.152  18.257   7.912  0.0642 -0.0303  0.2852
26538W        W69451  14.740  25.724   4.681  0.2021 -0.1205  0.2708
26539W        W69452  14.132  34.085   5.289 -0.1868 -0.2948 -0.3220
26540W        W69453  17.295   0.280   3.950  0.4768  0.0171  0.1120
26541W        W69454  18.452  20.887   5.674 -0.0120  0.0513  0.0394
26542W        W69455  23.599  18.315   5.709 -0.0415  0.0067 -0.1567
26543W        W69456  15.341  28.901   3.278 -0.2860  0.3440 -0.1943
26544W        W69457  25.079   9.452  26.479  0.1147  0.1905  0.0664
26545W        W69458  17.762  25.811  28.438  0.0597  0.2772  0.2726
26546W        W69459  16.479  30.427  28.681 -0.0681  0.1988 -0.1689
26547W        W69460  15.874  24.148   4.274 -0.0106 -0.0309  0.1131
26548W        W69461  22.643  31.228  27.272  0.0163  0.1695  0.0777
26549W        W69462  27.592  17.135  25.656  0.3812 -0.1801  0.0343
26550W        W69463  22.994  27.902   0.726 -0.1308 -0.0675 -0.0208
26551W        W69464  29.644  20.077   9.058  0.1649 -0.2019 -0.1278
26552W        W69465  26.999  26.548   8.623  0.0276 -0.0633 -0.1816
26553W        W69466  22.894  20.406   5.097  0.0785 -0.0318  0.0405
26554W        W69467  27.970  25.925   7.585  0.1247  0.1160 -0.0016
26555W        W69468  14.639  16.283   7.570  0.0554 -0.2591  0.0046
26556W        W69469  27.471  15.755  25.535 -0.2964  0.2670  0.1089
26557W        W69470   5.029  21.382   2.495  0.0610  0.1475  0.2966
26558W        W69471  19.461  19.969   4.884  0.1414 -0.2891 -0.3586
26559W        W69472  32.560  28.238   7.756  0.1738 -0.1004  0.2601
26560W        W69473  17.339  33.821   1.258  0.1545 -0.1907  0.0251
26561W        W69474  26.758  26.928   5.787  0.1400  0.0544 -0.2183
26562W        W69475   1.918  32.917   7.592 -0.1663 -0.0642  0.0023
26563W        W69476  18.503  17.817   1.189 -0.0248  0.0773  0.1356
26564W        W69477  26.102  19.187  22.516 -0.1322  0.2612  0.0207
26565W        W69478  11.651  25.426  10.054 -0.0186  0.0814  0.0196
26566W        W69479  20.565  17.380  27.876 -0.1438 -0.2432  0.3156
26567W        W69480  19.828  22.068   3.775  0.0478  0.1822 -0.1235
26568W        W69481  21.207  12.004   0.955 -0.3936 -0.2949 -0.2802
26569W        W69482  31.293  25.178   4.438  0.1232  0.0372  0.1776
26570W        W69483   8.358  21.410   8.977  0.3200  0.1084  0.2645
26571W        W69484  30.951  26.673  29.373  0.0638  0.1717  0.2117
26572W        W69485  28.448  15.765   2.572  0.2239  0.2146  0.2732
26573W        W69486  22.976  14.833  26.082  0.0999  0.1153  0.2516
26574W        W69487  10.027  16.848  26.300  0.0984  0.1236  0.3126
26575W        W69488  17.066  13.971  24.471 -0.4472  0.0244  0.0104
26576W        W69489  18.234  26.263   3.544  0.0338  0.1759 -0.2430
26577W        W69490  27.103  26.506   7.984  0.2390 -0.2547 -0.2556
26578W        W69491  11.686  26.933   7.549  0.1809  0.2575 -0.0485
26579W        W69492  30.675  11.324   2.565  0.1425 -0.0579  0.2448
26580W        W69493   0.230  12.186  10.009 -0.0637 -0.0782  0.1908
26581W        W69494  29.136   1.438   0.730  0.1306  0.0359 -0.0539
26582W        W69495  15.888  33.403   7.136  0.2247 -0.1353 -0.0383
26583W        W69496  19.503  26.807   2.193  0.0551 -0.0587  0.3381
26584W        W69497  26.004  24.461   7.643  0.3673 -0.2013  0.1120
26585W        W69498  13.520  21.823   7.847 -0.2175  0.0350  0.2894
26586W        W69499  26.258  30.114  27.990 -0.2633 -0.3747  0.3102
26587W        W69500  25.096  29.332   6.517 -0.1059 -0.2992  0.0541
26588W        W69501  27.584   0.613   5.820 -0.1532  0.2356 -0.2389
26589W        W69502  22.961  25.794   5.647  0.0343 -0.0597 -0.1630
26590W        W69503  21.474  23.765   6.642  0.0714 -0.1234  0.0299
26591W        W69504  30.185  16.410   1.193  0.2989 -0.0186  0.1691
26592W        W69505  15.238  22.920   2.881 -0.5389 -0.3732  0.1870
26593W        W69506  16.881  15.741   8.625  0.0622  0.0020 -0.0162
26594W        W69507  20.564  15.480   0.149  0.4169 -0.0955  0.1665
26595W        W69508   6.149  16.884   2.077 -0.0857 -0.0901  0.2191
26596W        W69509  26.845  19.470   7.180 -0.0206 -0.2289  0.0205
26597W        W69510  16.324  27.417  29.086  0.3025  0.0589 -0.0030
26598W        W69511  18.506   4.378  10.177  0.0549  0.1105 -0.0906
26599W        W69512  24.172  22.757   4.603 -0.0065  0.0900  0.1247
26600W        W69513  24.024  27.643  28.721 -0.0562 -0.0002 -0.1877
26601W        W69514  19.834  26.802   7.758 -0.1445  0.0953 -0.0489
26602W        W69515  32.313  25.139   1.778 -0.0686  0.0270  0.1663
26603W        W69516  11.490  32.016   6.394  0.3297 -0.1703 -0.1273
26604W        W69517  16.645  14.688   6.234  0.0407  0.0250  0.1143
26605W        W69518  25.212  24.454   8.853  0.3012 -0.0089 -0.2069
26606W        W69519  22.308   0.869   9.305 -0.2030 -0.1827  0.1576
26607W        W69520  19.830  15.742   1.760  0.1113  0.3853  0.0855
26608W        W69521  18.900  29.685   7.601 -0.1856  0.1808 -0.2800
26609W        W69522  26.792  26.969   1.236  0.0374 -0.1571 -0.3977
26610W        W69523  15.920  13.631   1.037 -0.1706 -0.4186  0.0153
26611W        W69524   1.918  33.115   3.507 -0.3341 -0.0112  0.1247
26612W        W69525  32.402  19.611   6.904 -0.0333  0.2962 -0.0271
26613W        W69526  28.601  23.345   7.856 -0.3380  0.1611 -0.1309
26614W        W69527  21.184  20.004   5.163 -0.1467 -0.0200  0.0388
26615W        W69528  21.249  26.807   5.419  0.0971  0.0270  0.3321
26616W        W69529  22.645  27.130   6.192 -0.2828  0.3197  0.2302
26617W        W69530  19.111  22.381   7.939 -0.2401  0.2199  0.0617
26618W        W69531  27.582  25.885   6.402 -0.1219  0.2571  0.1419
26619W        W69532  24.206  25.171   2.751 -0.4382 -0.2104  0.0944
26620W        W69533  16.472  18.836   7.791 -0.3759  0.0342  0.1243
26621W        W69534  22.304  25.582   3.977 -0.0080  0.0370  0.0546
26622W        W69535  22.991  10.592  29.543 -0.0942  0.0593 -0.0605
26623W        W69536  15.315  25.142   4.647  0.1454  0.2652 -0.0819
26624W        W69537  26.577  15.463   8.075 -0.3026 -0.1627  0.1644
26625W        W69538  18.554  14.648   4.760 -0.0803  0.1053 -0.0666
26626W        W69539  24.816  17.644   3.990  0.1160 -0.3185  0.1690
26627W        W69540  23.471  25.142   5.920  0.1592  0.2124  0.0765
26628W        W69541  31.466  13.676   2.372  0.1302  0.1884  0.0556
26629W        W69542  27.588  21.441   5.747 -0.4780 -0.2563 -0.0600
26630W        W69543   1.593  25.876   7.169 -0.0359  0.0653 -0.0464
26631W        W69544  29.973  30.360   8.143  0.2420 -0.0110 -0.0099
26632W        W69545  25.532  30.397   6.510  0.3650 -0.1045 -0.3007
26633W        W69546  18.375  20.209  26.127  0.1694  0.0191  0.1811
26634W        W69547   9.590  11.981   0.597  0.3248  0.0227 -0.2564
26635W        W69548  22.573  21.371   5.126 -0.0504 -0.1935  0.2839
26636W        W69549  23.946  17.991   0.995  0.1495  0.0306 -0.4632
26637W        W69550  22.506  20.678   6.295  0.0404  0.0788 -0.0024
26638W        W69551  28.818  25.617   1.469 -0.0342  0.0925 -0.0944
26639W        W69552  14.762  24.568  27.658  0.0451 -0.2586 -0.1468
26640W        W69553  25.410  24.456   3.753 -0.1340  0.3349 -0.2410
26641W        W69554  33.420  21.858   7.981  0.2130 -0.0877 -0.2240
26642W        W69555  30.117  28.174   9.794 -0.0200  0.0635  0.3979
26643W        W69556  32.181  31.558   6.420  0.2804 -0.0696 -0.1570
26644W        W69557  22.790  25.885   4.020 -0.3315 -0.0324 -0.1454
26645W        W69558  17.402   3.886   9.339 -0.0980  0.1351 -0.0602
26646W        W69559  19.942  23.030   1.244 -0.1619  0.1853  0.0876
26647W        W69560  25.626  19.875   6.832 -0.0996 -0.0390  0.0615
26648W        W69561  29.323  29.073  27.729 -0.0549  0.2562  0.1386
26649W        W69562  13.850   4.302   6.613 -0.0721  0.0598  0.1406
26650W        W69563  18.655  27.761   8.744 -0.0038 -0.1660  0.0471
26651W        W69564  29.320  30.190  27.519  0.3102 -0.3124  0.2389
26652W        W69565  24.951  19.703   6.059 -0.1895  0.2726  0.1390
26653W        W69566  12.611  33.204   7.128  0.2355 -0.1806 -0.5937
26654W        W69567  20.513  16.293   1.431 -0.2741  0.1196 -0.0543
26655W        W69568  21.048  23.157   6.309 -0.2420  0.1320  0.1510
26656W        W69569  26.429  33.276   1.386  0.3040 -0.2336 -0.0595
26657W        W69570  27.849  15.725   7.400  0.0088  0.1398  0.2026
26658W        W69571  23.848  28.144  27.596 -0.0186  0.0545 -0.0140
26659W        W69572  28.434  24.632   5.653  0.2159 -0.1346 -0.0824
26660W        W69573  33.882  30.015   7.799  0.3212  0.0620 -0.0612
26661W        W69574  19.556  21.720   0.575 -0.0403  0.0549 -0.1729
26662W        W69575  31.960  18.245   8.065  0.1621  0.0061  0.1625
26663W        W69576  23.411  31.587   6.757 -0.2623  0.2484  0.4118
26664W        W69577  27.463  18.965   2.259 -0.1557 -0.0212  0.1065
26665W        W69578  33.869  27.220   7.775 -0.1698 -0.1805  0.0567
26666W        W69579  18.896  27.570   6.950  0.0250  0.0134  0.2326
26667W        W69580  18.147  15.226   7.008 -0.1732 -0.1349  0.1551
26668W        W69581  18.692  18.415   8.705 -0.1182 -0.0051  0.2221
26669W        W69582  20.847  28.648  28.419 -0.2136  0.3090  0.2335
26670W        W69583  23.990  24.501   5.158 -0.2174  0.1287 -0.0240
26671W        W69584  19.556  34.437   0.883 -0.2532  0.0538  0.0809
26672W        W69585  29.041  30.015   9.162 -0.1573 -0.3775  0.1780
26673W        W69586   1.918  33.336   7.824  0.0951 -0.1568 -0.1016
26674W        W69587  22.248  28.447  29.274 -0.0736  0.0108 -0.2763
26675W        W69588  22.227  14.605   8.554 -0.2871  0.2453  0.1653
26676W        W69589  17.690  23.641   5.779 -0.0651 -0.2391  0.1667
26677W        W69590  24.696  20.721   4.176 -0.2455 -0.0023 -0.3444
26678W        W69591  19.613  24.936   5.282 -0.2706 -0.1477  0.1409
26679W        W69592  14.452  17.767   6.444  0.1448 -0.2732 -0.2102
26680W        W69593  22.536  17.924   5.701  0.2066  0.0672 -0.0884
26681W        W69594  25.417  22.608   7.531 -0.0314  0.0406  0.0705
26682W        W69595   1.777  19.263   4.980 -0.2898  0.1441 -0.1005
26683W        W69596  24.109  17.041   7.887 -0.3742  0.2861 -0.2397
26684W        W69597  26.309  33.971   6.007  0.0993 -0.2823  0.1647
26685W        W69598  26.368  18.857  27.394 -0.2049  0.2974  0.0927
26686W        W69599  15.385  14.386   2.351  0.2761  0.0733 -0.1773
26687W        W69600  15.912  25.371   5.674  0.1675 -0.1001 -0.1069
26688W        W69601  19.483  22.041   7.793 -0.1656 -0.2155 -0.1274
26689W        W69602  20.201  31.594   8.014 -0.0173  0.0983 -0.1062
26690W        W69603  34.210  24.193  29.420  0.4491  0.3703  0.0005
26691W        W69604  33.422  10.909  24.533 -0.0076  0.1588  0.0246
26692W        W69605  19.675  19.703  28.937 -0.2208  0.1838 -0.2508
26693W        W69606  24.408  23.679  28.099  0.3172  0.0289 -0.0080
26694W        W69607  20.367  21.196  23.646 -0.0732  0.0538 -0.1890
26695W        W69608  25.342  13.775   1.424  0.1028 -0.0010 -0.2832
26696W        W69609  17.789  32.409   1.716 -0.1372  0.0260  0.1935
26697W        W69610  29.180  15.589   8.678  0.0210 -0.0543 -0.4417
26698W        W69611  25.455  10.103   3.031 -0.0518  0.0678 -0.0122
26699W        W69612  33.211  23.302   3.566  0.2151 -0.0343 -0.0568
26700W        W69613  19.155  32.368   7.203  0.0500 -0.1007 -0.1099
26701W        W69614  22.957  19.181   3.645  0.0133  0.2804  0.5823
26702W        W69615  23.413  28.554   3.960  0.1048 -0.2081  0.0071
26703W        W69616  21.445  24.795   0.791  0.2672 -0.4120  0.0492
26704W        W69617  21.131  17.416  28.050  0.4577 -0.1727 -0.5527
26705W        W69618  18.176  17.187   2.102 -0.0155 -0.1608  0.3301
26706W        W69619  27.773  19.151   7.292 -0.0713  0.2277 -0.0594
26707W        W69620  28.307  16.593   7.860 -0.0563  0.2148  0.1681
26708W        W69621  18.278  23.968   6.708 -0.1815 -0.0362  0.0574
26709W        W69622  23.169  17.736  25.884  0.0364 -0.0705  0.1758
26710W        W69623  23.793  26.003   7.879  0.0811 -0.1682  0.0201
26711W        W69624  16.003  33.798   7.588  0.2634  0.0365  0.1473
26712W        W69625  15.596  21.642   3.642 -0.3450  0.0872  0.5206
26713W        W69626  19.297  20.246   6.581  0.0605 -0.0357 -0.2523
26714W        W69627  20.603  24.347   9.174 -0.3286  0.0774  0.1069
26715W        W69628   8.935  27.098   6.544  0.0890  0.0661  0.1844
26716W        W69629  23.203  27.380   4.772 -0.1017  0.1005  0.0310
26717W        W69630  15.127  20.461  27.345  0.2698  0.1806  0.0744
26718W        W69631  33.316  21.117  28.806 -0.0412  0.4248  0.2298
26719W        W69632  17.405  17.345  24.439  0.1330  0.0756 -0.0770
26720W        W69633  19.836  30.184   6.897  0.3512 -0.2440  0.3180
26721W        W69634  27.143  19.789   1.219  0.2113  0.2887 -0.1639
26722W        W69635  15.761  12.400  25.447 -0.1469 -0.1346  0.0920
26723W        W69636   4.082  18.967   6.134  0.2656 -0.1092  0.0117
26724W        W69637  19.381  16.039   8.577 -0.3845 -0.2627  0.0946
26725W        W69638  12.286  24.508   4.690 -0.1772  0.0906  0.1352
26726W        W69639  12.949  29.133   9.909 -0.0892 -0.0363  0.1797
26727W        W69640  29.030  25.562   3.282  0.1259 -0.0641  0.1114
26728W        W69641  20.384  33.595  25.467 -0.2584  0.2502  0.0536
26729W        W69642  21.817  33.833   6.641 -0.0939 -0.0182 -0.1486
26730W        W69643  11.795  20.245   0.672  0.0933 -0.0533  0.1183
26731W        W69644  22.120  13.413   3.842  0.0168 -0.0820 -0.2192
26732W        W69645  23.261  22.980   0.603  0.1297  0.1696 -0.0603
26733W        W69646  22.635  19.454   0.799 -0.1162  0.1726 -0.3037
26734W        W69647  29.727  32.589   5.146 -0.1939  0.2663 -0.0316
26735W        W69648  23.345  19.054   4.833  0.0680  0.0072  0.1730
26736W        W69649   0.786   3.020   3.032 -0.1749  0.1246  0.1398
26737W        W69650   1.430  33.390   3.475  0.1283  0.1104 -0.2168
26738W        W69651  23.832  28.885   5.868 -0.0885  0.0949 -0.1221
26739W        W69652  21.154  28.431   7.264  0.0245  0.1079  0.1082
26740W        W69653  16.690  24.616   0.915 -0.0168  0.4808 -0.1629
26741W        W69654  20.825  17.827   5.554 -0.2094 -0.0860  0.1375
26742W        W69655  30.864   0.846   3.148  0.0017  0.0310 -0.1082
26743W        W69656  15.822  22.595   8.041  0.2616 -0.3213  0.3041
26744W        W69657   3.196  21.448  28.997  0.1242  0.2212 -0.2419
26745W        W69658  27.030  32.216   8.984 -0.0809 -0.2302 -0.2668
26746W        W69659   5.076  18.775   9.772 -0.1519 -0.0616  0.0325
26747W        W69660  22.325  20.763   4.479  0.0428 -0.4010  0.0222
26748W        W69661  24.369  20.258  26.594  0.1664 -0.0600 -0.1445
26749W        W69662  21.993  23.648  24.133 -0.1261 -0.1101 -0.1305
26750W        W69663  31.511  25.308   1.363  0.0737 -0.0684 -0.3935
26751W        W69664  26.691  20.593   5.449  0.1769 -0.1586 -0.1706
26752W        W69665  23.679  27.201   8.101 -0.2029  0.2314  0.2376
26753W        W69666  25.515  17.979   3.862  0.2766 -0.1517 -0.0442
26754W        W69667  18.706  22.596   7.335  0.2284  0.0445 -0.0613
26755W        W69668  18.328  19.931   6.323 -0.2367 -0.3074  0.0758
26756W        W69669  28.803  22.344   9.164 -0.2082  0.1163 -0.4123
26757W        W69670  13.386  29.105   6.346 -0.2315 -0.1058 -0.1977
26758W        W69671  26.072  16.367   7.843 -0.2948  0.2911  0.0212
26759W        W69672  26.114  18.474   8.326  0.1597  0.2682 -0.1656
26760W        W69673  30.456  21.694   7.746 -0.0512 -0.0204 -0.0676
26761W        W69674  21.219  30.647   7.908  0.0374 -0.0049 -0.0867
26762W        W69675  29.766  28.827   1.351 -0.0551  0.4541 -0.1549
26763W        W69676  17.908  26.214   1.751 -0.0171  0.0222  0.1272
26764W        W69677  23.708  24.717   8.210 -0.0602 -0.4116 -0.0282
26765W        W69678  32.310  25.293   5.898  0.2955 -0.0405  0.0265
26766W        W69679  31.452   2.383   8.453  0.0758 -0.2352 -0.0910
26767W        W69680  33.508  28.322   2.489  0.1322  0.3473  0.0756
26768W        W69681  32.554  13.925   3.174  0.0803 -0.1756  0.2432
26769W        W69682  22.762  32.051  28.994  0.0328  0.0828  0.2702
26770W        W69683  21.865  21.060   8.953 -0.1690 -0.2806 -0.1624
26771W        W69684  26.488  16.884   6.010  0.1382 -0.1153 -0.1447
26772W        W69685  22.848  24.635  28.214  0.1899  0.0170  0.1263
26773W        W69686   8.192   0.820   7.617 -0.2182  0.1548 -0.1313
26774W        W69687  25.566  24.302   7.373 -0.0617  0.0709  0.1307
26775W        W69688  32.597  21.517  27.875 -0.2985  0.2722 -0.1173
26776W        W69689  23.188  32.978   7.131  0.0248 -0.1102  0.1477
26777W        W69690  20.181  21.363   7.970 -0.2197  0.1405 -0.4243
26778W        W69691  32.349  19.789   3.441 -0.0434  0.1084 -0.0529
26779W        W69692  20.801  33.385  28.701 -0.2900  0.2979  0.0021
26780W        W69693  25.812  18.572   6.779 -0.1175  0.4350 -0.0077
26781W        W69694  32.043  16.685   8.743  0.1183 -0.0845  0.0109
26782W        W69695  27.598  28.754   6.389  0.0293  0.1291 -0.2344
26783W        W69696  16.297   4.832   3.355 -0.3073  0.4361 -0.6204
26784W        W69697  28.307  30.766   0.992 -0.1340 -0.3456  0.0877
26785W        W69698  25.035  32.264   9.194  0.1602  0.0841 -0.0510
26786W        W69699  17.263  24.104   1.866  0.1025  0.1444  0.1309
26787W        W69700  16.563  26.464   9.680 -0.0358  0.2848  0.3254
26788W        W69701  19.585  14.357   4.269  0.5816  0.1451 -0.2370
26789W        W69702  17.959  25.312   3.093  0.0892 -0.0926  0.3814
26790W        W69703  29.460  30.646   4.554  0.0868  0.0316  0.2139
26791W        W69704  21.320   1.051   6.856  0.2578 -0.1079  0.1721
26792W        W69705  21.989  28.039   7.076 -0.3567  0.2324  0.0003
26793W        W69706  17.616  21.875   2.121 -0.0046  0.3642  0.0668
26794W        W69707  24.944  22.002   4.010 -0.2370 -0.1061 -0.0207
26795W        W69708  13.260   2.994   8.381 -0.2384 -0.2633 -0.1626
26796W        W69709  11.025  25.701  28.663 -0.0008  0.1095  0.3617
26797W        W69710  23.647  28.136   8.162 -0.3458 -0.2493 -0.1513
26798W        W69711  20.103  29.102   7.796 -0.0741 -0.1816  0.2552
26799W        W69712  28.076  16.089   5.200  0.2878  0.1219  0.2925
26800W        W69713  25.730  32.897   5.035  0.0352 -0.1239 -0.0932
26801W        W69714  25.771   8.034   2.953 -0.1866  0.2009  0.0402
26802W        W69715  27.014  29.905   0.438 -0.0319  0.0864 -0.0905
26803W        W69716  21.960  22.418   8.068  0.1112 -0.2204 -0.1751
26804W        W69717  30.433  28.281   5.995  0.0319  0.1875  0.3635
26805W        W69718  16.194  21.818   4.104  0.0685  0.1824 -0.0049
26806W        W69719  18.560  17.020   3.000  0.1915  0.1039  0.2532
26807W        W69720  33.153  30.798   8.279 -0.0331  0.2253 -0.1982
26808W        W69721  15.767  16.967   6.483  0.0223  0.1611 -0.2662
26809W        W69722  17.971  12.253   8.699  0.0790  0.1455 -0.1356
26810W        W69723  19.070  26.757   5.302 -0.0540 -0.2235 -0.1895
26811W        W69724  17.467  26.497   0.488 -0.1643  0.3832  0.0110
26812W        W69725  31.508   2.975   9.185  0.0336 -0.4215  0.3043
26813W        W69726  25.618   7.659   6.094  0.4118  0.1862 -0.2456
26814W        W69727  32.760  23.972   5.871 -0.0400  0.0368  0.0738
26815W        W69728   5.417  33.716   6.306  0.0061  0.2868 -0.0265
26816W        W69729  19.399  13.610  29.133 -0.3425 -0.0513 -0.0803
26817W        W69730  25.411  13.235   1.976 -0.1660  0.3229 -0.4037
26818W        W69731  25.793   6.502   7.098  0.2468  0.2822  0.1674
26819W        W69732  17.808  18.261   4.330  0.0449 -0.2101  0.3792
26820W        W69733  29.825  28.737   8.905  0.0932  0.1287  0.1781
26821W        W69734  25.881  22.149   6.640 -0.2938 -0.3466 -0.0121
26822W        W69735  26.656  22.221   6.023  0.1535  0.0798  0.0115
26823W        W69736  20.116   5.235   7.324 -0.1155 -0.0617 -0.1489
26824W        W69737  20.708  23.436   7.137 -0.0173  0.2458 -0.0657
26825W        W69738  27.661  24.840   7.290  0.2100  0.3538  0.1014
26826W        W69739  10.330  21.006   4.990 -0.0368  0.2282  0.1010
26827W        W69740  15.141  33.391   6.085 -0.4536  0.0443 -0.3154
26828W        W69741  18.150  29.126   6.213  0.0145  0.1501  0.1590
26829W        W69742  19.734  23.584   3.325  0.1575 -0.0976 -0.2305
26830W        W69743  25.302  24.773   4.701 -0.1285  0.1215  0.0553
26831W        W69744  33.086   7.059   5.311  0.0039  0.1377  0.1989
26832W        W69745  21.348  19.416   2.797 -0.1534  0.1696  0.1866
26833W        W69746  31.171  22.602   7.861  0.0308  0.1609 -0.1491
26834W        W69747  28.664  18.375   4.604  0.0717  0.0109  0.1669
26835W        W69748  28.748  29.270   4.911  0.0922  0.0369  0.2794
26836W        W69749  26.213  13.247   8.756 -0.0974  0.0503  0.0326
26837W        W69750  14.848  20.496  28.108  0.1362  0.0612 -0.2341
26838W        W69751  19.149  29.721   6.539  0.5381 -0.1614  0.0483
26839W        W69752  25.693  26.868   7.938 -0.2803 -0.1916  0.3854
26840W        W69753  21.449  26.773   4.735  0.0647 -0.0705  0.0137
26841W        W69754  19.964  19.829   3.269  0.1655 -0.2023  0.0201
26842W        W69755  14.486   0.402  27.696  0.0811  0.3576  0.1150
26843W        W69756  23.241  24.725   7.850 -0.0837  0.3086  0.1382
26844W        W69757  22.873  31.730   2.598  0.2955 -0.0663  0.2094
26845W        W69758   0.014   1.070   8.983  0.0056  0.0852  0.0733
26846W        W69759  18.513  26.419   2.259 -0.0492 -0.2782  0.0666
26847W        W69760  19.188  17.721   4.318 -0.1712  0.4032 -0.0925
26848W        W69761  30.055  32.356  26.383  0.3163  0.0630  0.2927
26849W        W69762  34.141  29.785   9.083 -0.0913  0.3851  0.2836
26850W        W69763  22.381  25.261   9.008 -0.0701 -0.0811  0.0500
26851W        W69764  20.662  29.842   2.408 -0.1473 -0.0143  0.1625
26852W        W69765  20.273  15.850   1.649 -0.1425 -0.2431 -0.2258
26853W        W69766  29.070  26.788   4.028  0.3148  0.1189 -0.1561
26854W        W69767  23.042  34.223   8.214  0.4456  0.1112  0.1309
26855W        W69768  26.008  24.924   6.308 -0.1932  0.3577  0.0494
26856W        W69769  24.464  29.822   8.311  0.0463  0.2460  0.0081
26857W        W69770  21.230  17.536   4.618 -0.4019  0.1937 -0.0631
26858W        W69771  24.140   0.141   9.982  0.2270 -0.2803 -0.0621
26859W        W69772  20.923  21.263   6.094 -0.0576 -0.0237 -0.3477
26860W        W69773  29.483  24.212   8.932 -0.2924 -0.1672  0.1329
26861W        W69774  22.216  20.011   6.801 -0.0100  0.2815  0.2997
26862W        W69775  18.457  21.510   6.421 -0.0757  0.2604  0.0509
26863W        W69776  14.792  23.749   5.841 -0.1394 -0.1493  0.2263
26864W        W69777  27.295   1.801   4.563  0.3446  0.0116  0.2578
26865W        W69778  16.703  26.379   8.911  0.3786 -0.1899  0.3359
26866W        W69779  16.877  23.066   8.224  0.2818  0.1165 -0.0083
26867W        W69780  29.374  24.832   4.623  0.0610 -0.1836  0.0410
26868W        W69781  31.364  27.006   9.467  0.0511 -0.1529 -0.0533
26869W        W69782  28.951  25.880   8.839  0.1883 -0.0011 -0.0998
26870W        W69783  25.127   1.703   5.725 -0.2094 -0.3728 -0.1691
26871W        W69784   1.703  20.568   8.134 -0.1434 -0.0223 -0.0052
26872W        W69785  19.746  13.299   0.929 -0.0050 -0.2108 -0.1062
26873W        W69786  26.446  19.836   8.367 -0.2061  0.0938  0.2859
26874W        W69787  24.375  31.007   4.835  0.3214 -0.1093  0.0090
26875W        W69788  28.112  18.637   8.976 -0.2228  0.1430  0.1138
26876W        W69789  19.782  21.099   6.928  0.0967 -0.1440 -0.2521
26877W        W69790  34.157  21.359   1.143 -0.4959  0.2885  0.2433
26878W        W69791  24.589  18.673   5.257  0.2967 -0.0108 -0.0857
26879W        W69792  23.428  27.548  22.532  0.1737  0.3068 -0.1993
26880W        W69793  32.964  29.633   6.171  0.5747  0.0935 -0.0709
26881W        W69794  15.206   4.404   8.483  0.0442  0.1588 -0.3802
26882W        W69795  23.559  23.267   6.375  0.0602 -0.0670 -0.2287
26883W        W69796  14.290   6.580  10.634  0.0102  0.0528 -0.0065
26884W        W69797  31.087  30.768   8.227  0.0378  0.0232  0.2785
26885W        W69798  26.091   2.464   2.433 -0.0296 -0.2611  0.0331
26886W        W69799  31.075   5.001  28.869 -0.1105 -0.2052 -0.3681
26887W        W69800  23.303  29.579   3.624 -0.0719  0.0831  0.0841
26888W        W69801  23.751  19.271   3.197 -0.0021  0.0564  0.0759
26889W        W69802  20.110  34.319   7.610 -0.0592  0.1248 -0.0920
26890W        W69803   4.764  18.662  29.124 -0.0361 -0.4383  0.0139
26891W        W69804  18.670  33.418   5.667  0.0711  0.1357  0.0350
26892W        W69805  30.384  23.207   9.749 -0.0585 -0.0625  0.2038
26893W        W69806  27.948  31.734   2.419  0.2069 -0.1397  0.1109
26894W        W69807  25.479  27.656   1.497  0.1248 -0.1086  0.3833
26895W        W69808  17.154  21.358   5.904 -0.0306 -0.1240 -0.1965
26896W        W69809  20.730  26.126  22.592  0.2364 -0.0714 -0.0584
26897W        W69810  32.580  16.101   5.064 -0.0853 -0.1024  0.0532
26898W        W69811  21.112  22.133   1.212 -0.0113 -0.1358 -0.1696
26899W        W69812  19.612   7.193  29.471  0.1265  0.0380 -0.1452
26900W        W69813  30.790  29.166  28.883  0.3426  0.2653 -0.2198
26901W        W69814  21.656  19.173  29.758  0.1965 -0.0221  0.1949
26902W        W69815  21.313   2.712   0.625 -0.1083  0.0185  0.0690
26903W        W69816  22.212  25.573  26.947  0.0139  0.0475 -0.3635
26904W        W69817  18.357  28.031  18.639  0.1410  0.1622  0.0720
26905W        W69818  22.036  20.504  21.837  0.1285 -0.2536 -0.0294
26906W        W69819  24.442  30.652   0.156  0.1570 -0.0075 -0.0957
26907W        W69820  27.994  29.276   1.435  0.0471  0.1487  0.1792
26908W        W69821  18.215   4.232   1.145 -0.0006 -0.1868 -0.3553
26909W        W69822  28.566  31.682  26.854  0.0432  0.0003  0.1026
26910W        W69823  17.716  34.449  24.431 -0.0745  0.1280  0.0122
26911W        W69824  34.489  20.361   0.357  0.1395 -0.0446 -0.0393
26912W        W69825  12.980  22.792  28.750  0.0488 -0.0605  0.1083
26913W        W69826  23.956  22.061   4.108 -0.1837 -0.1032  0.0990
26914W        W69827  20.441  30.662   8.700 -0.0117 -0.0398 -0.0153
26915W        W69828  26.889  24.208  24.778  0.0100  0.3814 -0.3562
26916W        W69829  16.764  29.232   2.367 -0.2504  0.3909 -0.0721
26917W        W69830  20.134   0.871  25.434 -0.0548  0.0417  0.0708
26918W        W69831  24.760   3.116   4.905 -0.1855  0.0980 -0.4805
26919W        W69832  19.471  23.723   2.933  0.0368 -0.1810 -0.1732
26920W        W69833  15.958  23.314   8.504  0.0751 -0.4840 -0.0240
26921W        W69834  20.816  31.054   1.723 -0.2891  0.1188 -0.1391
26922W        W69835  18.245  21.992  19.104 -0.2360 -0.3572 -0.1265
26923W        W69836  16.225  21.737   2.107 -0.3877  0.1583  0.0681
26924W        W69837  32.891  25.647   1.541  0.1753 -0.1842  0.0599
26925W        W69838  24.534   1.913  29.772 -0.0483  0.1734  0.2783
26926W        W69839  17.272  19.082   2.686  0.1390  0.0471 -0.1264
26927W        W69840  14.117   8.553  22.218 -0.0972 -0.0248 -0.0871
26928W        W69841  17.105   9.926   6.939  0.2170  0.1083  0.0730
26929W        W69842  26.960  25.568   2.790  0.1592  0.4437  0.0849
26930W        W69843  22.453  33.177   4.894 -0.3603  0.1321 -0.0204
26931W        W69844  16.354  24.342  23.020 -0.0354  0.0167  0.0642
26932W        W69845  12.459  30.956   1.619 -0.2647  0.3393  0.2462
26933W        W69846  24.132  30.536   4.876 -0.0853 -0.3039  0.1929
26934W        W69847  30.275  33.935   7.429 -0.1569  0.0824 -0.0836
26935W        W69848  29.436   1.367   1.856 -0.0820 -0.2477 -0.2598
26936W        W69849  10.719  26.547  10.164  0.1417  0.0393 -0.1086
26937W        W69850  18.839  32.833   2.536 -0.1273 -0.1529  0.2032
26938W        W69851  18.357  18.904  26.107 -0.0267  0.0069 -0.0009
26939W        W69852  10.797  29.935  28.222  0.4196  0.2169 -0.3181
26940W        W69853   4.844  20.175   1.131 -0.0008 -0.1658  0.1780
26941W        W69854  18.834   0.570  25.325 -0.3435 -0.1154  0.1131
26942W        W69855  13.166  26.979  11.048 -0.1431 -0.2825 -0.0499
26943W        W69856  18.188  21.211  17.363 -0.2220  0.0013  0.1842
26944W        W69857  28.578  25.479   8.728  0.0318  0.1745 -0.1312
26945W        W69858  19.604   3.653   4.325  0.2358  0.0385  0.1973
26946W        W69859  20.902  31.328  28.677  0.0896 -0.0022 -0.0686
26947W        W69860  22.055  25.860   7.336 -0.2990  0.1491 -0.1388
26948W        W69861  23.014  26.054  24.542  0.3282 -0.1797 -0.2225
26949W        W69862  23.803   0.276   8.602 -0.3724 -0.0865  0.3029
26950W        W69863   2.445  33.615  29.558  0.1722  0.3942 -0.1653
26951W        W69864  18.445  24.347  25.837 -0.0933 -0.1883  0.3854
26952W        W69865  24.756  25.078  27.811  0.0917  0.0277 -0.0232
26953W        W69866  19.878   0.987   0.778 -0.3069 -0.0772  0.2920
26954W        W69867  16.657  20.652  25.698  0.1208 -0.0533 -0.0002
26955W        W69868  29.965   0.135   7.060  0.0004 -0.0874  0.0358
26956W        W69869   4.279  32.246   3.852  0.2267 -0.0090  0.0101
26957W        W69870  14.427  19.969   7.120  0.0825 -0.0555  0.1622
26958W        W69871  29.183  31.195  27.824 -0.1630  0.0595 -0.0692
26959W        W69872  20.891  28.221   1.460  0.1205  0.1496 -0.2909
26960W        W69873  20.557   8.291   4.320  0.3365  0.1207 -0.0236
26961W        W69874   2.966  25.215  29.496 -0.1662  0.3203  0.1015
26962W        W69875  29.944  18.857   1.543 -0.0376 -0.2926  0.1723
26963W        W69876  15.451  31.371  28.468 -0.0365  0.0556  0.1104
26964W        W69877  28.462   4.107  26.285 -0.1869  0.2560 -0.0521
26965W        W69878  19.217  28.509   7.563 -0.0075  0.0497  0.0787
26966W        W69879  29.677  22.219  25.065  0.0743  0.0074  0.0086
26967W        W69880  19.071  34.433  29.406 -0.0976 -0.5472 -0.2590
26968W        W69881  23.000  21.478   1.883 -0.2055  0.0488  0.1953
26969W        W69882  19.055  26.817  28.883  0.1721  0.0959  0.2557
26970W        W69883  21.814   1.505   6.441  0.2658  0.0194  0.2086
26971W        W69884  29.244  22.945   4.290 -0.0977  0.3535  0.0823
26972W        W69885  25.378  31.146   8.934  0.1329  0.0701  0.0992
26973W        W69886  18.896  30.524   7.296  0.2470  0.1372  0.2894
26974W        W69887  19.845  33.824   0.571 -0.0292  0.0607  0.0433
26975W        W69888  15.813  19.495  22.912  0.1387  0.1163 -0.1188
26976W        W69889  31.118   1.457   7.084  0.0249 -0.2164  0.0605
26977W        W69890  13.505  28.504   8.352 -0.3218 -0.2589  0.1295
26978W        W69891  17.332  27.665   0.458  0.1653  0.3623  0.1980
26979W        W69892  27.477   1.647   4.098  0.3818 -0.0414  0.0422
26980W        W69893  25.226  19.574   4.834 -0.3233 -0.1366  0.5198
26981W        W69894   2.654  14.966   0.633 -0.0025  0.0971  0.2515
26982W        W69895  30.551   5.942   4.234  0.1683  0.2785  0.2134
26983W        W69896  17.927  20.084  29.367  0.1200  0.4096  0.1865
26984W        W69897  32.264  29.065   2.482  0.6169 -0.1985  0.0547
26985W        W69898  15.779  26.389   7.406  0.2243 -0.0819 -0.3028
26986W        W69899  22.919  29.253   5.592  0.2632  0.0529 -0.2219
26987W        W69900  25.853  30.833   2.454 -0.2424  0.0685  0.0159
26988W        W69901  28.247  24.882  19.238  0.3621 -0.2096  0.0229
26989W        W69902  18.561  17.860  25.943 -0.0826 -0.1013 -0.1105
26990W        W69903  19.131  22.158   7.504  0.2343 -0.5716 -0.1963
26991W        W69904  14.152  26.032  17.324 -0.4141 -0.0444 -0.1280
26992W        W69905  27.702  18.623   6.453  0.1617  0.0387  0.1256
26993W        W69906  22.414  18.321  26.288 -0.1066  0.0802  0.0240
26994W        W69907   2.489   5.464   7.438  0.2616 -0.0164  0.3877
26995W        W69908  24.895  24.131   8.006  0.1407 -0.0468  0.1778
26996W        W69909  18.069  25.437   0.812 -0.0014 -0.1305  0.2445
26997W        W69910  21.839  17.277   5.446 -0.0747  0.2626 -0.1566
26998W        W69911  16.085  21.677   0.158 -0.0296 -0.0584 -0.1710
26999W        W69912  13.243  30.995   2.303  0.1124  0.1734 -0.1331
27000W        W69913  23.833  29.543  17.362 -0.1796  0.2641 -0.2287
27001W        W69914  27.034  26.156   2.374  0.2114  0.0781 -0.2632
27002W        W69915  23.939  30.833  22.413 -0.0367  0.0051 -0.2545
27003W        W69916  25.720   1.433  29.328 -0.1244 -0.0759 -0.0260
27004W        W69917  21.641  20.814  22.499  0.0632 -0.1582  0.0619
27005W        W69918  26.906  24.316   7.274  0.4374 -0.1386  0.1012
27006W        W69919  34.126  34.387   4.618  0.3070 -0.0571  0.0438
27007W        W69920  20.694  27.455   2.656 -0.0783  0.2463 -0.1922
27008W        W69921  33.074  28.577   4.317 -0.1107  0.2119 -0.1995
27009W        W69922   5.777  20.307  18.734  0.3737  0.1663  0.0227
27010W        W69923  16.463  25.767  24.897  0.0236 -0.0377  0.2183
27011W        W69924  32.252  33.120   6.827 -0.0576  0.2734  0.0187
27012W        W69925  23.371  27.485   5.519  0.0754  0.0892  0.2346
27013W        W69926  20.253  24.892   1.326 -0.3528  0.2604  0.2237
27014W        W69927  27.843  26.508  22.779 -0.0045  0.2815  0.1257
27015W        W69928  14.754  28.588  23.544 -0.1173 -0.2193 -0.1217
27016W        W69929  17.044  23.966   4.681  0.2706 -0.3211  0.1149
27017W        W69930   0.221  24.080   7.052  0.2726  0.0442  0.0159
27018W        W69931  25.727  20.310   1.260  0.0257 -0.0249 -0.0336
27019W        W69932  28.717  27.381   5.132 -0.1457  0.1549 -0.0454
27020W        W69933  31.297  22.964   1.264  0.2876 -0.1222 -0.2684
27021W        W69934  20.300  30.358   4.912  0.0660 -0.2096  0.0031
27022W        W69935  22.540  27.777  22.156  0.0512  0.1628 -0.1522
27023W        W69936  11.882  29.061  29.619 -0.0211  0.0298 -0.1657
27024W        W69937  11.503  19.313  24.176 -0.0191  0.1804  0.0301
27025W        W69938  18.046  26.175   7.144  0.0924  0.0203  0.1971
27026W        W69939  31.803  26.703   1.868  0.0200 -0.2101  0.1335
27027W        W69940  21.062  10.070  28.720  0.2313  0.0761  0.0312
27028W        W69941  17.890  24.089  28.129  0.2302 -0.0635 -0.0894
27029W        W69942  30.155  18.491  20.524 -0.1312  0.1281 -0.2314
27030W        W69943  32.066  12.105   7.021  0.1486  0.0212 -0.1014
27031W        W69944  30.563  32.611   1.582  0.1085 -0.0541 -0.0631
27032W        W69945  17.410  21.581   1.557  0.4987 -0.0761 -0.0279
27033W        W69946  23.815  17.856   2.443  0.1401 -0.0243 -0.0620
27034W        W69947   5.690   0.584   4.128  0.0579 -0.0004  0.0748
27035W        W69948  31.411  20.751   5.303  0.0043  0.1346 -0.1973
27036W        W69949  10.530  28.398   9.271 -0.1656  0.0464 -0.3550
27037W        W69950  22.667  18.365   7.931 -0.0145 -0.2174  0.0652
27038W        W69951  23.909  19.804   2.302 -0.0734 -0.1246  0.0811
27039W        W69952  30.905  28.905  19.389 -0.1194 -0.0639 -0.2747
27040W        W69953  27.566  30.483  25.849 -0.2064 -0.0651 -0.1005
27041W        W69954  16.534   2.192   7.159 -0.2468 -0.1636 -0.1050
27042W        W69955  22.072  33.930  29.498  0.0253 -0.1143 -0.2130
27043W        W69956  14.369  18.999  27.374  0.2642  0.0318 -0.2930
27044W        W69957  13.204  14.098  24.694  0.0936 -0.0755  0.0716
27045W        W69958  32.170  19.899  29.014  0.1808 -0.4488 -0.1186
27046W        W69959  27.170  20.170  25.613  0.0958  0.1775 -0.2442
27047W        W69960  21.074  32.325  26.138  0.0968 -0.1131 -0.0801
27048W        W69961  19.133  22.896  26.733  0.2819  0.1579  0.1108
27049W        W69962  26.102  21.148   2.817  0.1510 -0.0174 -0.0637
27050W        W69963  20.877  30.652   8.382 -0.2938 -0.1623 -0.3805
27051W        W69964  18.228  22.523   2.087  0.0998 -0.0799 -0.0983
27052W        W69965  21.380  20.520   7.323  0.2354 -0.2483  0.0322
27053W        W69966  28.504   6.337   1.322 -0.1512 -0.2552 -0.0886
27054W        W69967   3.780  27.310   2.842 -0.1917  0.1298  0.0659
27055W        W69968  31.846  27.291  28.460 -0.2761 -0.2361  0.0920
27056W        W69969  20.253  25.913   3.320  0.2337  0.1384  0.1766
27057W        W69970  32.549  28.292   0.248  0.0578 -0.0810  0.0143
27058W        W69971   0.513  16.484  24.388 -0.1555 -0.3161 -0.0219
27059W        W69972  22.993  28.839   5.969  0.2408 -0.0116 -0.1689
27060W        W69973  23.321  30.263  29.472 -0.3568  0.0616  0.0721
27061W        W69974  16.443  30.480  26.504  0.1945 -0.2572 -0.0315
27062W        W69975  16.690  32.914   9.682 -0.0245  0.1861 -0.0415
27063W        W69976  30.308  26.226   9.546 -0.1075  0.1980 -0.0458
27064W        W69977  24.156  29.055   7.743  0.0430  0.0572 -0.1796
27065W        W69978  14.206  30.008   8.905 -0.0248 -0.1798 -0.1974
27066W        W69979  22.744  15.919   6.558 -0.1897  0.0991  0.0824
27067W        W69980  11.812  29.241  24.841 -0.0627  0.1338 -0.0635
27068W        W69981  33.473  20.467   9.250  0.2544  0.3450  0.3208
27069W        W69982  20.524  25.183  26.717  0.1137  0.0486  0.1851
27070W        W69983  21.869  27.253   6.978  0.0006 -0.0904  0.1931
27071W        W69984  14.950  23.880   3.814  0.2336 -0.1544  0.0656
27072W        W69985  19.912   1.311   1.770 -0.0766  0.0266  0.1962
27073W        W69986  17.332  24.128   2.769  0.2852 -0.1223  0.4002
27074W        W69987  22.940  29.526   2.802  0.3610  0.3023  0.2362
27075W        W69988  14.724  20.431  24.550  0.1181  0.1919 -0.2435
27076W        W69989  18.522  22.365  27.783 -0.2547  0.1809  0.0150
27077W        W69990  20.123  18.356  26.047 -0.2621  0.4545  0.2764
27078W        W69991  19.560  30.155  22.550  0.4147 -0.2436  0.3702
27079W        W69992  15.867  34.045  24.563  0.0734 -0.0262  0.3165
27080W        W69993  23.709  16.562  29.285 -0.0731  0.1560  0.0157
27081W        W69994  23.824  25.859   1.731 -0.4288 -0.2398 -0.0425
27082W        W69995  23.419  20.266  24.997 -0.2732 -0.1992  0.0478
27083W        W69996  13.978  30.037   6.995 -0.0229 -0.2019 -0.0709
27084W        W69997  18.538  28.654   8.704 -0.0425  0.0529  0.3997
27085W        W69998  31.303   0.258   5.037 -0.0957  0.0178  0.2544
27086W        W69999  27.948  22.965   6.598  0.0333 -0.2281  0.2073
27087W        W70000  18.593  20.416  28.655 -0.3226 -0.2260 -0.0672
27088W        W70001  16.231  12.667  25.475  0.0971 -0.0100 -0.3752
27089W        W70002  24.758   7.401   2.455  0.2019  0.0201 -0.0071
27090W        W70003  20.730  23.091   8.444 -0.0504  0.3017  0.3290
27091W        W70004  31.570  23.500   3.072 -0.1909 -0.2091 -0.0338
27092W        W70005  19.365   0.928  26.032  0.2121 -0.1625  0.0499
27093W        W70006  14.492  31.858   7.075  0.1046 -0.2125 -0.2131
27094W        W70007  22.866  23.293   0.831  0.0356  0.0936 -0.1685
27095W        W70008  18.168  33.314  28.221 -0.0898  0.0321  0.3731
27096W        W70009  25.560   2.076   4.084  0.2497  0.1333 -0.2653
27097W        W70010  26.804  19.181   4.242  0.2982  0.0885  0.0627
27098W        W70011  21.418  12.154  26.835  0.0381  0.0680  0.0750
27099W        W70012  23.854  22.683   2.883  0.1523  0.2400  0.0047
27100W        W70013  16.513   1.308  28.396 -0.1157  0.0857 -0.2650
27101W        W70014  24.112  28.475   5.814  0.2824  0.0803 -0.0236
27102W        W70015  10.942  27.000   9.532  0.0887 -0.1304  0.2380
27103W        W70016  29.068  33.506   5.264  0.1727 -0.0021  0.0931
27104W        W70017  11.908  23.138   8.621 -0.0622 -0.1196 -0.1399
27105W        W70018  22.336  20.477  29.301  0.0317  0.0467 -0.0738
27106W        W70019  22.046  15.437   4.112  0.1431 -0.3566 -0.0166
27107W        W70020  33.312  22.436   3.562  0.1464 -0.1802  0.2431
27108W        W70021  22.413  22.794   5.970  0.0060 -0.0907 -0.2057
27109W        W70022  21.366  13.309   6.167  0.1632  0.0873 -0.0068
27110W        W70023  31.069  33.798  28.058  0.1116  0.0537 -0.3323
27111W        W70024  32.296  29.134  22.309 -0.2451 -0.3594 -0.2941
27112W        W70025  26.164  19.166  29.325 -0.3198 -0.3381  0.1836
27113W        W70026  13.447  32.886   9.788 -0.1355  0.0284 -0.1190
27114W        W70027  17.483  17.042   5.721 -0.3135 -0.0053 -0.0896
27115W        W70028  21.334   1.960   6.563 -0.0202 -0.1739  0.0818
27116W        W70029  26.271  29.933   1.982 -0.1297 -0.0567 -0.3143
27117W        W70030   2.131  13.842   4.219  0.0225  0.1074 -0.1818
27118W        W70031  29.759  26.409   9.005 -0.0341  0.0401  0.0570
27119W        W70032  19.845  25.333   5.081  0.1434 -0.3145 -0.1494
27120W        W70033   2.303  33.699   7.013 -0.1619 -0.0679  0.0529
27121W        W70034  20.836  32.309  29.767 -0.1111  0.1629 -0.3162
27122W        W70035  25.828  30.057   6.743 -0.1607 -0.2487 -0.1447
27123W        W70036  34.072  17.460  28.017 -0.0148 -0.2695  0.2032
27124W        W70037   0.080  27.869   7.984 -0.2785  0.0289  0.1443
27125W        W70038  27.929  27.849  28.739  0.1038 -0.0504 -0.3704
27126W        W70039  27.041  22.243  26.785  0.0790 -0.1106 -0.1685
27127W        W70040  14.759  34.462   9.309  0.2013  0.1581 -0.0170
27128W        W70041   2.086  22.975   1.907  0.1745 -0.1416 -0.2312
27129W        W70042  21.224  23.693   0.041  0.1219 -0.0106 -0.0391
27130W        W70043  25.510   5.145  10.600  0.0208 -0.0920 -0.4840
27131W        W70044  29.421  26.067  24.699  0.2413  0.0472 -0.1138
27132W        W70045  15.460   8.302   8.647  0.0942  0.0125  0.2365
27133W        W70046  32.209  25.628   5.250  0.0364  0.2927 -0.1293
27134W        W70047  21.233  32.613  22.515  0.1294 -0.0937  0.1076
27135W        W70048  24.581  24.483   2.669 -0.0106  0.3158  0.2385
27136W        W70049  22.928  27.098  24.861  0.0540  0.0261 -0.1177
27137W        W70050  20.690  23.591  26.533 -0.4585 -0.0520  0.0023
27138W        W70051  25.952  28.391   6.554  0.0767  0.0306  0.3366
27139W        W70052  16.102  31.463   4.030  0.2218 -0.1292 -0.0497
27140W        W70053  22.918  18.439  27.915  0.0811 -0.0276 -0.3081
27141W        W70054  32.447  24.404  28.591 -0.0540  0.1089  0.0877
27142W        W70055  13.243  32.099  27.608 -0.0583  0.0052  0.0313
27143W        W70056  32.412  27.945  24.888 -0.2757  0.3060 -0.1745
27144W        W70057  22.918  23.564   4.267  0.0767 -0.1900 -0.0142
27145W        W70058  24.480  26.925   7.857  0.2132 -0.1224  0.0838
27146W        W70059  23.423  29.757   2.798 -0.1615  0.0955  0.3390
27147W        W70060  21.736  21.824  26.806 -0.2087  0.0567  0.0133
27148W        W70061  29.418  32.014   2.004 -0.0310 -0.3243  0.0560
27149W        W70062  24.032  27.015   5.114 -0.1536 -0.2408  0.1206
27150W        W70063  19.857  11.850  26.129  0.0928  0.0814  0.1921
27151W        W70064  21.987  22.080   1.418  0.0943  0.0062  0.1343
27152W        W70065  24.909  32.989   9.363 -0.0214 -0.1057 -0.1269
27153W        W70066  20.016  32.827   7.464  0.0704 -0.2298  0.5715
27154W        W70067  24.558   0.918   1.921 -0.1239  0.1251 -0.0950
27155W        W70068  25.556  23.248   5.852  0.0211  0.4169  0.0222
27156W        W70069  17.975  29.199   5.139 -0.0290  0.3490 -0.4010
27157W        W70070  28.277  25.940   5.691 -0.3744 -0.0825 -0.2816
27158W        W70071   2.107  26.896  26.589  0.1112 -0.2796 -0.0151
27159W        W70072  25.295  32.823   5.347  0.0946  0.0324  0.0424
27160W        W70073  15.776  28.701  23.109  0.1395 -0.0802 -0.2135
27161W        W70074  15.881  21.695   0.609 -0.0233 -0.0073  0.2449
27162W        W70075  16.933  26.992  28.424 -0.0436  0.1927  0.1764
27163W        W70076  24.692  12.426   3.843  0.4390 -0.0322 -0.1856
27164W        W70077  31.492   4.624   7.122 -0.3248  0.0721  0.1454
27165W        W70078  15.531  29.450   4.167 -0.0757  0.2175  0.3069
27166W        W70079  25.939  18.464   4.456 -0.1191  0.3550 -0.3222
27167W        W70080  24.174  32.261   0.620 -0.1077  0.1113 -0.0477
27168W        W70081  18.786  31.594  28.107  0.3046  0.2637  0.0442
27169W        W70082  24.810  33.415   2.198 -0.0912  0.0004  0.0317
27170W        W70083  16.164  31.079  25.670  0.1939 -0.0483 -0.2498
27171W        W70084  22.880  24.678   0.839 -0.0123 -0.0562 -0.0871
27172W        W70085  30.418   5.032  27.545 -0.0431  0.0064 -0.0600
27173W        W70086  17.743   1.850   4.310  0.0099  0.0160 -0.1519
27174W        W70087  26.328  24.768  22.487  0.3935  0.1499 -0.0655
27175W        W70088  30.852  30.828   4.079 -0.3013  0.0079  0.0871
27176W        W70089  27.086  28.031   1.549  0.1810  0.1013 -0.2591
27177W        W70090  21.298  27.730  25.259 -0.3355  0.1865 -0.0565
27178W        W70091  21.481  23.125  22.561  0.1269  0.2787 -0.1995
27179W        W70092  22.044   8.122   3.222  0.0088  0.0312 -0.2139
27180W        W70093  23.904   2.788  10.248  0.0406  0.0073  0.4589
27181W        W70094  17.608  28.549   6.673  0.0353  0.0439 -0.2627
27182W        W70095  33.535   2.243   9.056  0.1290  0.0053 -0.1020
27183W        W70096  17.615  22.581   6.899 -0.0408 -0.2245  0.2129
27184W        W70097  29.014  21.593   3.260  0.0371 -0.1674  0.1884
27185W        W70098  12.184  25.916   6.898  0.1754  0.2937 -0.0856
27186W        W70099   2.458  27.706   9.890  0.0753 -0.1083 -0.0133
27187W        W70100  27.680   8.474  22.254  0.1828 -0.0444  0.1853
27188W        W70101  29.552  21.073   8.119 -0.4277 -0.1260 -0.0349
27189W        W70102  18.389  32.426   0.082 -0.1359 -0.0206  0.0444
27190W        W70103  18.914  25.106   6.393 -0.1650 -0.0947  0.2219
27191W        W70104  26.816  27.778   4.879  0.0942 -0.1863 -0.1845
27192W        W70105  25.325  32.902  26.619  0.1721 -0.1517  0.3431
27193W        W70106  20.938  28.803   8.647 -0.2047 -0.1945  0.1532
27194W        W70107  29.248  22.331   4.996  0.0393  0.0334 -0.0861
27195W        W70108  22.789  19.660   1.815 -0.1448 -0.0425  0.0588
27196W        W70109  22.312  20.655   2.681  0.1075  0.0031  0.0169
27197W        W70110  26.245   7.015  23.375  0.0699 -0.0631 -0.2128
27198W        W70111  21.289  23.989   7.400  0.1039 -0.0409  0.1122
27199W        W70112  32.753   1.221  29.057 -0.1157 -0.0732 -0.1419
27200W        W70113  25.667  33.165   6.385  0.0631  0.2730 -0.0607
27201W        W70114  14.313  19.563  22.325 -0.1239  0.2197  0.1209
27202W        W70115  19.928   3.500  29.524  0.0478  0.0476  0.3696
27203W        W70116  19.774  26.117  16.508  0.2549  0.2967 -0.0277
27204W        W70117  25.333  24.595   2.036  0.2217 -0.4068  0.1953
27205W        W70118  26.606  23.001   7.940 -0.2138  0.1082  0.1023
27206W        W70119  21.640  29.953   0.559 -0.0974  0.1104 -0.1690
27207W        W70120  13.740  21.919   3.005 -0.1165 -0.3219  0.2935
27208W        W70121  19.297  28.124   8.426  0.1183 -0.1048  0.2871
27209W        W70122  17.483  26.767  28.140  0.0976  0.0493 -0.3414
27210W        W70123  13.001  18.467  27.988  0.1869  0.1458  0.2367
27211W        W70124  18.219  33.291   1.592  0.3384 -0.1779 -0.0072
27212W        W70125  17.384  26.872  27.218  0.0251  0.1408  0.0863
27213W        W70126  26.078   1.144   5.827  0.1729  0.1292  0.1898
27214W        W70127  14.469  28.731   2.924  0.1540 -0.0068 -0.2409
27215W        W70128  22.238  15.473  28.720 -0.2363 -0.0269  0.2193
27216W        W70129  24.297  26.432  20.857 -0.1714 -0.4247 -0.0312
27217W        W70130  23.921  20.872   2.955 -0.0643 -0.0808  0.2035
27218W        W70131  23.637  25.446   7.790  0.0066  0.1079 -0.0988
27219W        W70132  24.041  18.565  20.120 -0.1388  0.2299  0.2009
27220W        W70133  28.506  23.464   5.530  0.0472 -0.0295 -0.4238
27221W        W70134  21.565  17.762  18.650  0.0311 -0.0625  0.1536
27222W        W70135  16.396  32.114  29.598  0.0321 -0.3012 -0.0470
27223W        W70136  12.062  26.205  28.630 -0.0635  0.0241 -0.3737
27224W        W70137  22.924  17.019   3.577 -0.1825 -0.1891 -0.2345
27225W        W70138  22.583  24.279   6.817 -0.0996  0.4071 -0.2916
27226W        W70139  23.249  22.113   0.505 -0.0678 -0.1058 -0.1164
27227W        W70140   3.951  26.861   7.265 -0.1128  0.1504  0.0437
27228W        W70141  23.454   3.400  25.336 -0.3571  0.2085  0.0395
27229W        W70142  27.020  20.259   5.131  0.1385  0.3237 -0.2196
27230W        W70143  15.651  27.322  25.417 -0.2193  0.2914 -0.1694
27231W        W70144  21.443  32.051   8.420 -0.1471 -0.3523 -0.0619
27232W        W70145   1.384  29.842   8.036  0.3126  0.0167  0.1892
27233W        W70146  16.206  24.777  23.698 -0.0615 -0.3063  0.0769
27234W        W70147  19.744   6.139   6.919 -0.0113 -0.2701 -0.0322
27235W        W70148  24.332  18.359  21.323  0.1907 -0.1112 -0.1311
27236W        W70149  34.015  29.882  27.865 -0.1261 -0.0374  0.0522
27237W        W70150  13.348  24.502  24.423 -0.1271  0.0923 -0.2676
27238W        W70151  25.043  23.429   4.642 -0.2674  0.0142 -0.2035
27239W        W70152  27.058  26.647   2.546  0.2252  0.0148  0.1963
27240W        W70153  26.600  25.884   2.509  0.2190  0.2269 -0.0895
27241W        W70154  16.618  20.402   5.372 -0.3887 -0.1694  0.2129
27242W        W70155  18.065  23.738  22.596 -0.3230  0.0085 -0.0102
27243W        W70156  10.297  26.554  26.806  0.3401 -0.1420  0.2063
27244W        W70157  24.736  19.520  26.135  0.4196  0.1143  0.1259
27245W        W70158  21.494  29.416   0.521 -0.0018 -0.1253  0.0099
27246W        W70159  27.342   1.521  10.538  0.2372 -0.2220 -0.1920
27247W        W70160  25.346  25.225  16.143 -0.0669 -0.1453  0.1260
27248W        W70161  32.616  20.570  23.803 -0.2178 -0.2414  0.0680
27249W        W70162  12.616  24.194  24.482  0.0960 -0.1736 -0.1334
27250W        W70163   3.636   0.061   9.916 -0.2022  0.2812  0.1012
27251W        W70164  21.860  29.438  19.829 -0.0809  0.0562  0.3675
27252W        W70165  21.967  24.330  28.627 -0.0736  0.4299  0.2753
27253W        W70166  30.122  27.326  25.341  0.2088 -0.0179  0.1377
27254W        W70167  23.996  26.534   5.263  0.0873 -0.2219 -0.0160
27255W        W70168  22.172  23.528   2.652  0.2699  0.0696  0.0464
27256W        W70169  22.416  25.857  28.146  0.2317 -0.4457  0.3991
27257W        W70170  14.854  24.106  27.416 -0.1928 -0.0205  0.0891
27258W        W70171  27.825  26.755   8.566  0.0591 -0.3370 -0.1826
27259W        W70172  25.214   2.854  10.151 -0.0768  0.2395 -0.0886
27260W        W70173  17.467  28.480   3.915  0.1657 -0.1066  0.1410
27261W        W70174  15.329  22.255   7.914 -0.1985  0.0122 -0.1253
27262W        W70175  33.543  32.164   5.433 -0.1075 -0.1241 -0.3101
27263W        W70176  21.475  33.007   6.965 -0.0837 -0.0036  0.0616
27264W        W70177  28.309  29.603   6.012 -0.1624 -0.2914  0.0908
27265W        W70178  33.078  32.008   6.365  0.0057 -0.1108  0.1554
27266W        W70179   0.825   2.020   9.978  0.1469  0.0384 -0.1064
27267W        W70180  16.778  25.882   5.539  0.1796 -0.0320  0.1532
27268W        W70181  22.780  17.379   0.008 -0.0531  0.1159 -0.0927
27269W        W70182  15.120  22.294  20.900 -0.1045 -0.0876  0.0398
27270W        W70183  20.975  27.126   9.595  0.3766 -0.3388 -0.0118
27271W        W70184  29.864   1.233  29.092  0.0228 -0.4476  0.0215
27272W        W70185  16.578  31.887  10.024 -0.0121  0.0781 -0.1808
27273W        W70186  19.371  28.097  22.701 -0.1796  0.0414 -0.3336
27274W        W70187  16.416  33.329   7.132  0.0113  0.2024 -0.0054
27275W        W70188  33.285  30.499   2.570  0.0433 -0.0530 -0.1567
27276W        W70189  24.568  29.184  29.569 -0.0495 -0.3455 -0.2517
27277W        W70190  27.380  32.086  22.647  0.3116 -0.0829  0.1537
27278W        W70191  32.569  32.060   9.614 -0.2784  0.0484  0.2659
27279W        W70192  20.546   2.406  28.936  0.0927 -0.1391 -0.0886
27280W        W70193  21.515  23.996   1.410  0.0970 -0.0484  0.2130
27281W        W70194  31.486   3.474   8.368 -0.2997  0.1979 -0.2151
27282W        W70195  25.894  31.866  28.963  0.0443  0.0516  0.0259
27283W        W70196  29.503  32.350   7.532  0.2883 -0.1940  0.3255
27284W        W70197  27.322  26.981   8.734  0.2566  0.0330 -0.4392
27285W        W70198  18.646  22.521  29.210  0.0066  0.1478 -0.0261
27286W        W70199  16.086  26.918   3.346  0.1744  0.1190  0.0128
27287W        W70200  23.865  34.322   5.317  0.0993 -0.2136 -0.2767
27288W        W70201  29.432  26.379   3.837  0.3240 -0.0128 -0.3337
27289W        W70202  14.081  29.710   6.060 -0.2748  0.3004  0.0320
27290W        W70203  33.746  34.473   3.018  0.1993  0.1186 -0.1345
27291W        W70204  28.006   2.856   3.367 -0.2333  0.3448 -0.2894
27292W        W70205  24.622  19.928  28.496 -0.2401 -0.0671 -0.2944
27293W        W70206  25.980  18.121   2.813  0.1306 -0.1157 -0.0442
27294W        W70207  21.194  23.484  26.949  0.4159  0.2379  0.2608
27295W        W70208  28.251  27.483  29.164 -0.2538  0.0423 -0.2928
27296W        W70209  22.963  22.875   6.796  0.2588  0.2947 -0.0497
27297W        W70210   5.557  30.679   8.179  0.2223 -0.0964 -0.0074
27298W        W70211  18.531  26.701   7.379 -0.2582  0.0710 -0.2075
27299W        W70212  26.589  25.127   0.381 -0.0656  0.0233 -0.3024
27300W        W70213  17.180   0.158   5.847 -0.2211 -0.1675 -0.0238
27301W        W70214  23.728  31.115   9.388  0.1090 -0.0317 -0.0118
27302W        W70215  26.125  23.677   5.586 -0.1344  0.0709 -0.0235
27303W        W70216  31.270  27.243   1.291  0.2361  0.2088 -0.1064
27304W        W70217  25.878  24.237  29.466 -0.0131  0.1175 -0.0550
27305W        W70218  21.055  20.586  27.365 -0.1935  0.0212 -0.2815
27306W        W70219  29.003  29.906   8.658 -0.1854  0.1228  0.2213
27307W        W70220  27.380  26.727   7.475 -0.0903 -0.2819 -0.3112
27308W        W70221  20.073  22.099  26.180  0.0939 -0.3377  0.3030
27309W        W70222  31.490  32.246   2.622 -0.1422  0.1138  0.4215
27310W        W70223  11.994  31.047   4.149  0.2573  0.1655  0.0177
27311W        W70224  28.510  23.878   4.823 -0.1664  0.1417 -0.1532
27312W        W70225  20.944   5.320   2.464  0.3334 -0.0491  0.0772
27313W        W70226  24.518  22.313   4.038  0.0414 -0.0337 -0.1316
27314W        W70227  30.120  25.332   7.844 -0.1248 -0.1554  0.0353
27315W        W70228  19.879  27.503   5.435  0.0302 -0.1583 -0.1460
27316W        W70229   6.648   1.703   5.042  0.4731  0.2013 -0.0277
27317W        W70230  31.401  24.344   5.408 -0.1790  0.2923  0.0212
27318W        W70231  20.726  28.425   9.531  0.0547 -0.4338 -0.3418
27319W        W70232  31.824  22.900   6.034 -0.0216  0.0188 -0.2291
27320W        W70233  28.011  23.030   1.823  0.0561  0.0379  0.1051
27321W        W70234  27.590  22.836   4.189  0.1634 -0.0210 -0.2218
27322W        W70235  24.638   2.503   6.809  0.3457 -0.2615 -0.2073
27323W        W70236  32.208   3.787   1.191 -0.0422  0.0817 -0.1488
27324W        W70237  19.951  21.401   6.548  0.0508 -0.2396  0.1596
27325W        W70238  29.953   9.294   7.659  0.1563  0.2122  0.2951
27326W        W70239   9.406  24.712   0.998 -0.2082 -0.2161  0.2947
27327W        W70240  14.973  31.885   7.258 -0.2894  0.1532  0.0730
27328W        W70241  27.480  28.282   0.504  0.0698 -0.1080 -0.0446
27329W        W70242  27.094  22.828   4.014 -0.3118  0.2252 -0.2471
27330W        W70243  20.684  24.724   7.454  0.2643  0.0199  0.1184
27331W        W70244  33.986  17.816   4.688 -0.2125 -0.4220  0.2625
27332W        W70245   0.017  27.668   4.701 -0.1569 -0.2466  0.1404
27333W        W70246  10.940  21.647   8.935 -0.1959 -0.0555  0.1020
27334W        W70247  20.926  20.552   3.979  0.4249 -0.0312  0.0630
27335W        W70248  20.979  19.822  29.366 -0.1076 -0.0767 -0.0826
27336W        W70249   2.026  26.663   7.091  0.0400  0.2505  0.1123
27337W        W70250  22.530  21.336   7.690  0.0681 -0.1262  0.0142
27338W        W70251  21.598  34.212   6.816  0.1345 -0.1065  0.1844
27339W        W70252  23.341  24.320  19.688 -0.0475  0.0153 -0.2431
27340W        W70253  26.666  30.377   2.976 -0.1384 -0.0631 -0.0909
27341W        W70254  18.183  19.124   4.238  0.1212  0.1152  0.3106
27342W        W70255  20.390  19.172   3.488  0.2275 -0.0754 -0.1876
27343W        W70256  22.020  22.788   7.258  0.1126 -0.2150  0.0661
27344W        W70257  21.875  17.792   2.081 -0.1034 -0.0562 -0.2493
27345W        W70258  20.973  24.188   5.193  0.2322 -0.3694  0.0836
27346W        W70259  20.127   1.900   6.748  0.2522 -0.0182 -0.3174
27347W        W70260  29.781  26.798   8.171 -0.1914 -0.0076  0.0886
27348W        W70261  22.165  23.089   6.273  0.0122 -0.1978  0.2734
27349W        W70262  28.394  32.600   4.602  0.1219 -0.0947  0.0485
27350W        W70263  17.852  20.031   0.244  0.1429  0.2141  0.4734
27351W        W70264  25.250   3.262   5.259 -0.0004 -0.0251  0.4025
27352W        W70265  13.762  20.912  24.883 -0.1399 -0.0981  0.1295
27353W        W70266  27.846  29.636  23.327  0.1475 -0.1696 -0.2727
27354W        W70267   7.304  29.178  28.069  0.2805  0.2998  0.3766
27355W        W70268  19.218  18.601  25.463  0.1607  0.0247  0.1145
27356W        W70269  25.227  31.569   2.434 -0.3345 -0.1419  0.3255
27357W        W70270  32.766   6.423  28.500  0.0054 -0.0179  0.2615
27358W        W70271  25.392  23.642   7.801  0.1144  0.1277  0.2720
27359W        W70272  14.298  22.061   9.074 -0.1374  0.0048  0.0768
27360W        W70273  20.492   5.496   4.937  0.3380  0.0938  0.0761
27361W        W70274   1.929  29.784  23.919 -0.1412 -0.0860 -0.1244
27362W        W70275  24.514  20.089   6.760 -0.1139  0.0718  0.0980
27363W        W70276  24.480  21.209   2.191  0.1389  0.1156  0.2106
27364W        W70277  22.675  19.648  29.087 -0.0465 -0.0529 -0.2133
27365W        W70278  20.034  28.476  27.151 -0.1739  0.4893  0.0848
27366W        W70279  31.559  30.931   1.274  0.1137  0.0690 -0.1953
27367W        W70280  25.385  17.021  26.032 -0.0529 -0.0107  0.1558
27368W        W70281  20.259  28.512   1.110  0.2260 -0.0896  0.0149
27369W        W70282  20.268  25.096   0.817  0.1250  0.0890  0.3476
27370W        W70283  17.656  27.533   4.585  0.2486 -0.0543 -0.1787
27371W        W70284  33.235  33.840  10.049  0.0078  0.1658  0.1001
27372W        W70285  21.156  28.611   2.934 -0.0710 -0.2175 -0.1543
27373W        W70286  16.809   0.290   7.200  0.0342 -0.3632 -0.2599
27374W        W70287  16.875  28.610   7.367  0.1466  0.0293 -0.0615
27375W        W70288  23.404  33.281   3.964  0.2106  0.0065  0.1874
27376W        W70289   6.588  27.794   4.214 -0.0061 -0.0276 -0.2108
27377W        W70290  29.121  24.291   8.228  0.0431 -0.0291 -0.0569
27378W        W70291  26.309  13.656   9.608  0.0000 -0.2849  0.2106
27379W        W70292   3.902  23.481   9.332  0.0235 -0.0228  0.2269
27380W        W70293  18.900  24.948   4.742  0.0906  0.3787  0.1379
27381W        W70294  26.556   0.607   6.882  0.1842 -0.3688  0.2482
27382W        W70295  28.086   8.982   3.692 -0.0780  0.1055  0.2615
27383W        W70296  12.780  30.418   7.601  0.0113  0.1673  0.1727
27384W        W70297  10.095  16.932   5.297  0.2438 -0.3533 -0.0353
27385W        W70298   3.132  16.985   8.398 -0.5449  0.1499  0.3497
27386W        W70299   1.871  25.472   1.341 -0.0287 -0.1260  0.0042
27387W        W70300  23.733  33.576   9.243  0.0881  0.1791  0.0789
27388W        W70301   5.857  31.529   4.376 -0.0630  0.1232 -0.0699
27389W        W70302  25.209  26.576   4.660  0.1222  0.1877 -0.1692
27390W        W70303  24.531  30.842   7.574 -0.0735  0.1660  0.2293
27391W        W70304  25.480  29.139  25.014 -0.0466 -0.1009 -0.3566
27392W        W70305  26.607  24.495   0.926 -0.0398  0.1064 -0.1451
27393W        W70306  31.093   1.910  11.173  0.3886 -0.2040 -0.1387
27394W        W70307  30.287  32.360   6.460  0.1563  0.2569  0.1215
27395W        W70308  28.248  32.926   0.062 -0.0370 -0.1114 -0.3041
27396W        W70309  26.921  22.558   5.779 -0.0088  0.0439  0.0603
27397W        W70310  23.730   0.741   6.970  0.0752  0.0328  0.2603
27398W        W70311   1.537  32.764   6.545  0.3589 -0.1800  0.2603
27399W        W70312  23.608  21.430   6.053 -0.1014 -0.0719 -0.4338
27400W        W70313  28.179   3.791  23.398 -0.2170  0.0365 -0.0657
27401W        W70314  13.625  16.586  25.895  0.0120 -0.2621  0.0506
27402W        W70315  29.562  33.000   4.722  0.1154  0.2197 -0.1245
27403W        W70316  27.300  21.775   0.348 -0.0813 -0.5939 -0.2272
27404W        W70317  23.757  32.693   6.011 -0.0925 -0.0181  0.1439
27405W        W70318  25.798  23.013   8.134 -0.2753  0.0211 -0.1088
27406W        W70319  15.258  14.924   1.237 -0.0863  0.1055  0.1921
27407W        W70320  14.792  15.634  21.887  0.0072  0.2908  0.3057
27408W        W70321  20.862  30.261   8.038  0.2421 -0.3589 -0.1075
27409W        W70322  33.038  23.999   7.107 -0.2425 -0.2015  0.1030
27410W        W70323  33.331  32.104  29.015  0.3883  0.0424  0.1842
27411W        W70324  20.541  22.637   8.824  0.2915  0.0921  0.0479
27412W        W70325  14.401  26.942   0.573  0.0103  0.0603  0.1257
27413W        W70326  27.119  24.138   4.668  0.0608  0.0085 -0.1626
27414W        W70327  20.340  28.689  27.448 -0.2756 -0.0303  0.2451
27415W        W70328  17.125  28.527   4.425  0.0515  0.4188 -0.0905
27416W        W70329  23.554  20.962   3.976  0.0562 -0.0118 -0.3587
27417W        W70330  20.037  17.963  22.399  0.0293 -0.2393 -0.0145
27418W        W70331   5.237  26.964  22.491  0.0651  0.0642 -0.1306
27419W        W70332  24.115  31.275   9.123 -0.2059 -0.2071 -0.1084
27420W        W70333  21.558  29.067  28.102  0.0641  0.0040  0.0553
27421W        W70334  32.892  29.218   4.876 -0.0019 -0.0209  0.0139
27422W        W70335  24.543  13.045  21.511  0.0054  0.1697  0.0695
27423W        W70336  31.942  23.663   3.383 -0.0903  0.1190 -0.0229
27424W        W70337  27.651   0.417   8.700  0.1039  0.0750  0.0795
27425W        W70338  28.318  33.043   2.134 -0.1047  0.2473 -0.2863
27426W        W70339  20.908  17.336  27.548  0.1845  0.3895  0.2902
27427W        W70340   0.010  23.120   4.069  0.1384 -0.3174  0.0973
27428W        W70341  28.804  23.479   7.048 -0.0009  0.3342  0.1363
27429W        W70342  16.497  27.914   8.626 -0.1902 -0.0035  0.0464
27430W        W70343  18.436  23.225  27.793  0.2783 -0.0160 -0.1638
27431W        W70344  25.863  16.250   9.662 -0.0885 -0.2005  0.0749
27432W        W70345  22.143  27.278   6.081 -0.1602  0.1407 -0.0420
27433W        W70346  30.307  22.566   2.688 -0.1280  0.0844 -0.3232
27434W        W70347  15.929  23.481   1.331 -0.3771  0.0786 -0.2728
27435W        W70348  14.277  29.413   2.246  0.1329 -0.2122  0.1526
27436W        W70349  16.809  27.090   5.373  0.1182 -0.1706  0.2178
27437W        W70350  24.671  32.340   5.847  0.1510  0.3371  0.2177
27438W        W70351  15.585  28.505   5.913 -0.0700  0.1385  0.0431
27439W        W70352  17.397  18.602  26.962  0.0303  0.0718 -0.0422
27440W        W70353  25.189  24.039   0.346 -0.1699  0.0854  0.3150
27441W        W70354  19.915  25.278   1.335 -0.1415 -0.1704 -0.2876
27442W        W70355  26.549   1.102   4.732 -0.2588  0.1116  0.2892
27443W        W70356  16.913  33.213   5.772  0.1901  0.1853  0.1526
27444W        W70357   1.180   8.097   3.044  0.1617 -0.1100 -0.1869
27445W        W70358  21.501  18.755  29.197  0.1308  0.1514  0.1417
27446W        W70359  22.653  21.476   6.894 -0.2246  0.0050  0.0419
27447W        W70360  21.162  23.360   6.874 -0.2713 -0.2005  0.1153
27448W        W70361  19.052  21.453  27.464 -0.0109 -0.2694  0.0757
27449W        W70362  22.436  29.598   7.968 -0.2747  0.0256  0.1551
27450W        W70363  28.114   5.852   1.429  0.4166  0.2417  0.2061
27451W        W70364  29.070  24.933   6.911 -0.0629 -0.1098 -0.0553
27452W        W70365  14.766  23.677   6.351 -0.0869 -0.2415  0.0993
27453W        W70366  30.010  27.652   9.776 -0.3583  0.0235  0.0027
27454W        W70367  25.115  20.403   2.427  0.3134  0.1574  0.2569
27455W        W70368  23.360  24.702   0.817 -0.0178 -0.0643 -0.1193
27456W        W70369   7.374  28.794  10.194 -0.3497 -0.0306 -0.1822
27457W        W70370  25.402  25.190   6.328 -0.2236 -0.0158 -0.1250
27458W        W70371  20.239  13.289   1.078 -0.0920 -0.1015  0.0993
27459W        W70372  23.668  32.049   8.477 -0.2000  0.0795 -0.1439
27460W        W70373  29.497  18.635   4.247  0.0630 -0.1269  0.0550
27461W        W70374  25.630  26.261  27.305 -0.0226  0.0779  0.0311
27462W        W70375  20.135  18.268   2.424 -0.0905  0.4202 -0.0825
27463W        W70376  17.629  30.654   8.631 -0.2118  0.0763 -0.0103
27464W        W70377  14.525  17.297   4.142  0.0573  0.1589 -0.2029
27465W        W70378  27.113  26.028   8.173  0.1640 -0.3309  0.0137
27466W        W70379  28.733   4.630   7.319  0.1234  0.3344 -0.0337
27467W        W70380  21.435  29.007   3.106  0.1044  0.0819 -0.1466
27468W        W70381  20.218  15.353   5.187  0.0029  0.0684  0.1682
27469W        W70382  26.103  27.043   5.828 -0.2234  0.1955  0.0574
27470W        W70383  23.285  30.011   7.720 -0.1830  0.0155 -0.1989
27471W        W70384   7.867  25.550   1.573  0.2151 -0.1256 -0.0461
27472W        W70385  17.877   3.548   7.838 -0.0733  0.0394 -0.2206
27473W        W70386  18.407  32.101   3.721 -0.0389 -0.1296  0.0819
27474W        W70387  26.200  22.483   4.368 -0.1344  0.0302 -0.0939
27475W        W70388  20.578  33.258   5.017 -0.4104  0.2013  0.2260
27476W        W70389  21.865  29.833   4.777  0.1889 -0.1585 -0.0493
27477W        W70390  18.288  23.967   0.068 -0.2011 -0.0217 -0.1455
27478W        W70391  20.388  26.751  26.900 -0.0056 -0.1726 -0.1940
27479W        W70392  28.766  33.812   4.993  0.1800 -0.1956 -0.3619
27480W        W70393  19.985  25.709  25.676  0.1169 -0.0763 -0.3179
27481W        W70394  21.311  24.143   7.916  0.1283  0.1087  0.1098
27482W        W70395  24.942  26.159   8.405 -0.0739  0.0906  0.1068
27483W        W70396  22.461  26.318   4.626  0.0167 -0.3366  0.1403
27484W        W70397  17.088  34.223   6.564 -0.0180  0.0497 -0.1889
27485W        W70398  30.800  21.352   2.493 -0.3941  0.0783 -0.3467
27486W        W70399  22.944  24.515   8.357 -0.0414 -0.0335  0.0931
27487W        W70400  19.789  21.629  17.995 -0.1785  0.0743 -0.0230
27488W        W70401  16.436  23.482   7.076 -0.0363 -0.0086 -0.0239
27489W        W70402  22.410  24.770   3.999 -0.0223  0.1360 -0.1200
27490W        W70403  26.473  22.286   2.736  0.0616  0.0847 -0.1703
27491W        W70404  22.575  25.229   4.146  0.1015 -0.1498 -0.2264
27492W        W70405  26.217  28.068   6.334  0.1007 -0.1730 -0.0921
27493W        W70406  14.472  29.690   3.312  0.1197  0.2646  0.1067
27494W        W70407  24.886   1.439  27.024 -0.0342  0.3676 -0.0034
27495W        W70408  33.211  29.250  27.713  0.3237 -0.1720 -0.3722
27496W        W70409  25.980   3.111   4.203 -0.0353 -0.0609 -0.2326
27497W        W70410  27.900  30.213   7.861  0.0950  0.2990  0.3177
27498W        W70411  30.617  17.110   4.445 -0.1356 -0.3375 -0.2117
27499W        W70412  30.147  24.398   8.079  0.0168 -0.1444  0.0226
27500W        W70413  24.625   0.587   2.851 -0.1058 -0.1935 -0.3101
27501W        W70414  30.756  27.037   9.666  0.0595  0.0928  0.2199
27502W        W70415  21.221  33.267  23.180  0.1806  0.2486  0.2829
27503W        W70416  26.872  29.085   1.575  0.0298  0.2058 -0.0361
27504W        W70417  22.544  32.774   7.057 -0.3774 -0.3331 -0.1925
27505W        W70418   3.977  17.536   3.309 -0.2105 -0.1532  0.1988
27506W        W70419  26.013  10.383   1.931  0.0304 -0.0395  0.1329
27507W        W70420  18.806   9.473   7.894 -0.0876 -0.1469 -0.1454
27508W        W70421  25.280  32.480   7.650 -0.1563 -0.2037 -0.5758
27509W        W70422  27.261  28.300  29.683 -0.1740 -0.1677  0.1631
27510W        W70423  19.464  24.683  25.748 -0.0807  0.1095  0.0135
27511W        W70424  24.189  29.397   8.650  0.5723 -0.1048  0.2706
27512W        W70425  15.010   2.122   4.767 -0.1783 -0.0560 -0.1623
27513W        W70426  27.186  24.015   5.418  0.0656 -0.0822 -0.1444
27514W        W70427  10.366  25.448   8.297  0.1099  0.0177  0.2613
27515W        W70428  27.610   2.576   3.141  0.0760 -0.2116 -0.0655
27516W        W70429  18.376  31.339  10.214  0.3363 -0.0129  0.1126
27517W        W70430  16.971  23.235   5.624 -0.3661 -0.0500  0.2521
27518W        W70431  19.274  19.370   8.391 -0.0598 -0.0884 -0.1023
27519W        W70432  15.391  21.975   2.438 -0.1462  0.1048 -0.2062
27520W        W70433  31.339  15.137   9.114 -0.1956  0.3852  0.2960
27521W        W70434  21.325  21.745  26.483  0.0437  0.0764 -0.0333
27522W        W70435  30.765  25.664   4.842  0.0405 -0.3303 -0.0587
27523W        W70436  31.606  28.036  29.033  0.0380  0.1775 -0.1007
27524W        W70437  31.415  21.518   2.648 -0.0861 -0.1998 -0.0235
27525W        W70438  24.436  24.915   5.877  0.0501  0.1689  0.2078
27526W        W70439  22.451  22.867   7.048 -0.0894  0.3131  0.1978
27527W        W70440  24.583  21.385  25.253  0.0087 -0.5169 -0.0105
27528W        W70441  27.190  28.882   7.582 -0.0467  0.0167 -0.4400
27529W        W70442  26.092  27.198   2.003  0.4820 -0.1697  0.0277
27530W        W70443   0.976  23.794  28.178 -0.1290 -0.2464 -0.0206
27531W        W70444  23.124  31.290  28.570 -0.0271 -0.1206  0.1996
27532W        W70445  27.963  31.106   9.007 -0.2397  0.0912 -0.4341
27533W        W70446  15.340  24.982   8.682  0.0203 -0.3083 -0.2388
27534W        W70447  17.632   0.586  25.187 -0.0153 -0.1755  0.1633
27535W        W70448  24.510  26.612  28.549  0.1945  0.0767  0.0682
27536W        W70449  17.614  18.237  25.951  0.1862  0.1087  0.2376
27537W        W70450  22.902  33.170   2.146 -0.1466  0.4701  0.0531
27538W        W70451  28.190   1.682   3.924 -0.1438  0.2710  0.5491
27539W        W70452  19.984  21.110  27.628 -0.1190 -0.2053  0.1554
27540W        W70453  22.159  31.661   5.836 -0.1079 -0.0878  0.2494
27541W        W70454  15.119  26.097  29.512 -0.2723  0.1653  0.1122
27542W        W70455  29.080  28.381   2.103 -0.0798 -0.0542  0.4633
27543W        W70456  29.226  28.008   1.070  0.3799  0.1717  0.1727
27544W        W70457  22.401  27.865   7.378  0.0109 -0.3602 -0.2096
27545W        W70458  17.992   0.234  28.816  0.1767  0.3349 -0.1501
27546W        W70459  18.793  27.651   9.417  0.1612  0.0900  0.1930
27547W        W70460  34.141  25.954   2.537  0.0266 -0.3183  0.0414
27548W        W70461  25.163  29.698   8.960  0.0713  0.0339  0.0440
27549W        W70462  21.542  25.372   5.003 -0.2144  0.0907 -0.3742
27550W        W70463  32.733  27.800   7.839  0.3513 -0.0638  0.1207
27551W        W70464   8.067  33.228   8.399 -0.0251 -0.2367  0.3032
27552W        W70465  26.746  30.464   7.266 -0.0373 -0.4104 -0.0893
27553W        W70466  28.372  29.477   8.563 -0.1742 -0.2114  0.2171
27554W        W70467  16.427  24.979   6.908 -0.0122  0.1677 -0.2816
27555W        W70468  26.527  30.742  28.640  0.2774 -0.0942  0.1269
27556W        W70469  31.617  29.458   8.331 -0.2719  0.1121  0.1280
27557W        W70470  16.880  18.759   3.903 -0.1616 -0.1779 -0.1067
27558W        W70471  20.058   9.700  19.589  0.2313  0.0120 -0.1796
27559W        W70472  20.147  22.483   0.537  0.0144  0.3064  0.0914
27560W        W70473  30.906   3.674   6.131 -0.1253  0.0794 -0.0660
27561W        W70474  24.230  27.446  29.712  0.0979 -0.3338 -0.0031
27562W        W70475  20.488  19.477   5.784 -0.1440  0.1175  0.0478
27563W        W70476  21.970  23.580   6.437 -0.3427 -0.2963 -0.1670
27564W        W70477  21.362  33.956   5.940  0.1628  0.3572  0.0359
27565W        W70478  29.657   0.799   8.403 -0.1068 -0.0183 -0.3341
27566W        W70479  25.079   1.220   9.989  0.0312 -0.1355  0.2302
27567W        W70480  24.312  29.822  18.323 -0.0671 -0.0064  0.2316
27568W        W70481  25.843  27.367  25.550 -0.3481  0.4213  0.0501
27569W        W70482  24.912  30.535   7.730 -0.2450 -0.0477 -0.0983
27570W        W70483  22.286  31.412   2.564  0.0136 -0.1292  0.1771
27571W        W70484  19.295  19.795   2.590 -0.1985 -0.1097  0.2324
27572W        W70485  26.171  18.481   8.959 -0.0797 -0.1740 -0.0369
27573W        W70486  25.941   2.268   4.772 -0.1820  0.2305 -0.0623
27574W        W70487  28.963  29.105   6.441 -0.1186 -0.0936  0.1351
27575W        W70488  27.683  31.391   8.118  0.4447 -0.0715  0.0683
27576W        W70489  25.739  21.799   4.638 -0.1641 -0.0398  0.1447
27577W        W70490  19.746  22.991  24.363 -0.0893  0.1263  0.1741
27578W        W70491  21.733  20.438  28.031 -0.3672 -0.4120 -0.1808
27579W        W70492  22.014  31.541   7.286 -0.3879 -0.2915  0.1035
27580W        W70493  26.703  33.427   7.524 -0.1326 -0.1441  0.1177
27581W        W70494  12.270  32.422   9.890  0.1313  0.0287  0.0059
27582W        W70495  17.188  23.100  26.626 -0.0265  0.4394 -0.1917
27583W        W70496  23.585  23.856  28.295 -0.1696  0.1877  0.0282
27584W        W70497  19.106  24.677  26.092 -0.0869 -0.0860  0.2588
27585W        W70498  23.155  23.563   7.895  0.0078 -0.1920 -0.2916
27586W        W70499  19.322  32.809  27.071 -0.0178  0.2369  0.0328
27587W        W70500  25.123  19.999  28.101 -0.1108 -0.3582  0.2840
27588W        W70501  30.349  24.182   2.535  0.0308  0.1452 -0.2662
27589W        W70502  27.034  31.922   9.387  0.0941  0.0048  0.1616
27590W        W70503  19.579  29.211   2.313  0.0935 -0.2625 -0.0058
27591W        W70504  17.922  19.588   5.827  0.0884  0.1164 -0.1197
27592W        W70505  17.991  22.369  21.520 -0.0445  0.1908  0.1307
27593W        W70506  27.059  25.476  29.324  0.0485 -0.2211 -0.0635
27594W        W70507  18.151  26.393   8.414 -0.0913 -0.0542 -0.1631
27595W        W70508  17.336  21.520   2.346  0.1607  0.0142 -0.2473
27596W        W70509  15.560  30.440   0.968 -0.0278  0.3212  0.0418
27597W        W70510  21.431  15.248   5.039 -0.1836 -0.2733 -0.3101
27598W        W70511  20.386  26.371   8.365 -0.0690 -0.2153  0.1201
27599W        W70512  14.551  32.777   1.249 -0.0977  0.0765 -0.0756
27600W        W70513  32.837  28.717   5.778  0.1848 -0.1016 -0.0838
27601W        W70514  21.851  22.466   2.269  0.1744 -0.1202  0.3000
27602W        W70515  17.916  24.951   2.440  0.0007 -0.1094 -0.0304
27603W        W70516  29.370  26.365  25.366 -0.0377  0.1100  0.2675
27604W        W70517  20.451  13.836   4.349  0.2692 -0.0645  0.0976
27605W        W70518  25.219  24.774   3.456 -0.2421 -0.0188  0.0127
27606W        W70519  26.928   5.486   4.113 -0.5032 -0.2334 -0.0987
27607W        W70520  25.527  32.958   7.698  0.0249  0.0279 -0.0788
27608W        W70521  25.567  32.278  27.189 -0.1007 -0.0338 -0.0432
27609W        W70522  19.228   3.334   8.661  0.0838 -0.2013  0.0217
27610W        W70523  23.665  20.973   0.586  0.1300 -0.1519 -0.0451
27611W        W70524  18.148  21.203   2.611  0.0584 -0.2627 -0.0231
27612W        W70525  18.611  26.910   2.308  0.1143  0.2009  0.2140
27613W        W70526  28.191   2.603   9.871  0.2248  0.3546 -0.0040
27614W        W70527  11.907  28.583   7.078  0.3591 -0.1225 -0.1279
27615W        W70528  23.332  26.045   6.038 -0.1222 -0.2511 -0.0170
27616W        W70529  10.841  32.604  11.410  0.0527  0.2140 -0.0801
27617W        W70530  18.223  25.075   8.044  0.0730  0.1311  0.1013
27618W        W70531  20.708  34.372   9.495  0.0196  0.0798  0.0941
27619W        W70532  27.756  31.113   2.288 -0.2394  0.2213 -0.4152
27620W        W70533  17.933   1.780  28.158 -0.0938 -0.1466  0.0710
27621W        W70534  25.927  24.422   6.924 -0.1341  0.1155 -0.2533
27622W        W70535  14.671  32.299   1.476 -0.1972  0.3818 -0.0887
27623W        W70536  25.606  29.475   0.427 -0.0814  0.3502  0.2990
27624W        W70537  27.883  25.203   3.641 -0.2187 -0.1981  0.0722
27625W        W70538  27.337  32.230   6.036  0.1228 -0.0475  0.1435
27626W        W70539  20.071  13.786  25.056 -0.0399  0.0783  0.1056
27627W        W70540  18.979  33.023   0.631 -0.1836 -0.2322 -0.1419
27628W        W70541  15.396  28.984   8.775  0.1140  0.2037  0.1168
27629W        W70542  11.028  24.498  27.434  0.1345  0.2115 -0.3409
27630W        W70543  18.326  30.371   5.430 -0.1350 -0.0543  0.0065
27631W        W70544  18.468  33.705   6.613 -0.0067  0.0725  0.0767
27632W        W70545   3.095  16.915   6.416  0.0480 -0.2271  0.0470
27633W        W70546  33.692  22.571   9.384  0.0451 -0.1816 -0.2649
27634W        W70547   1.611  16.477   7.302  0.0814 -0.0510 -0.1353
27635W        W70548  25.597  21.420  25.875  0.1758 -0.2446 -0.2419
27636W        W70549  19.345  16.672   1.759  0.0966 -0.3918 -0.3611
27637W        W70550  24.798  20.932   5.570 -0.0096  0.1395 -0.1055
27638W        W70551  20.592  20.465  25.800 -0.2086 -0.5244 -0.3661
27639W        W70552  29.236  10.785   6.866  0.0261 -0.2992 -0.0107
27640W        W70553  25.505  22.198   4.932 -0.2063  0.0375  0.0264
27641W        W70554  24.398   8.986   0.422 -0.1850  0.2673  0.1919
27642W        W70555  26.991  25.415   5.773 -0.2608 -0.0210 -0.1614
27643W        W70556  28.591  29.269  28.850 -0.1900 -0.0545  0.2200
27644W        W70557  26.127   2.198   1.955 -0.0223  0.1678 -0.0849
27645W        W70558  23.478  15.447   1.788 -0.0465 -0.2003  0.4173
27646W        W70559  28.434  12.641   2.095  0.4043 -0.1361  0.1013
27647W        W70560  22.839   2.508   4.699  0.0067 -0.1133  0.2699
27648W        W70561  19.543  21.343  25.960  0.3732 -0.0369 -0.2323
27649W        W70562  20.091   4.299   5.072  0.4164  0.0676 -0.1131
27650W        W70563  30.593  31.089   8.065  0.1079 -0.0370 -0.1653
27651W        W70564  17.898  27.281   2.438 -0.1544  0.0454 -0.3202
27652W        W70565  15.038  24.395   2.501 -0.1717 -0.1376  0.0223
27653W        W70566  28.871   2.173   5.912 -0.1319  0.0632 -0.2757
27654W        W70567  27.976  24.540  24.731 -0.1334 -0.1642 -0.0502
27655W        W70568  13.059  30.941   3.835  0.4012  0.2378  0.0008
27656W        W70569   1.133   0.956  10.826 -0.3156 -0.1896 -0.2380
27657W        W70570  27.305  30.175  26.238 -0.0487 -0.2557  0.0488
27658W        W70571   1.425   7.475   5.287  0.3176 -0.0073 -0.0254
27659W        W70572  24.423  25.807   1.636 -0.0252 -0.1898  0.1007
27660W        W70573  22.753  32.119   8.354  0.3541 -0.0822 -0.3256
27661W        W70574  21.472  31.894   1.814  0.1140 -0.1602  0.2365
27662W        W70575  26.529  28.368   6.069  0.1399  0.1380 -0.2087
27663W        W70576  33.261  32.788  24.650 -0.4205 -0.4237 -0.1118
27664W        W70577  33.970   7.062   7.778  0.0448  0.1052  0.2759
27665W        W70578  15.963  30.974  27.817  0.1501  0.2152 -0.1915
27666W        W70579  12.992  26.093   9.561  0.1457 -0.0455 -0.0954
27667W        W70580  19.253  34.356   3.374 -0.1476  0.0837  0.2732
27668W        W70581  21.965  22.363  29.035 -0.0111  0.2322  0.1750
27669W        W70582  26.827  27.572   7.140  0.0190  0.0613  0.2367
27670W        W70583  18.331  18.825  27.302 -0.1114  0.0473  0.0973
27671W        W70584  19.080  26.980   1.837  0.0356  0.1629  0.1398
27672W        W70585  17.226  20.534   4.666  0.0098  0.1077  0.1908
27673W        W70586  27.769  22.349   5.611  0.1389 -0.0016  0.0808
27674W        W70587  27.487   3.420   9.341 -0.0360  0.0987 -0.2104
27675W        W70588  29.133   9.291   2.838 -0.2855 -0.3853 -0.1545
27676W        W70589  24.934  20.132   3.443  0.1590  0.1923  0.1160
27677W        W70590  31.248  13.017  20.427 -0.0551  0.1773 -0.0106
27678W        W70591  22.567  24.360   4.927 -0.0559  0.2303  0.3193
27679W        W70592  32.384  18.725   3.293  0.2937 -0.3458 -0.0288
27680W        W70593  14.937  32.857   5.024  0.3779  0.1189 -0.0850
27681W        W70594  16.761  31.197   1.006  0.0630  0.0204 -0.2185
27682W        W70595  25.248  18.333  22.243 -0.1631  0.2227 -0.2430
27683W        W70596  18.624  27.610   5.835 -0.4781  0.1202  0.1997
27684W        W70597  17.506  27.929   6.131 -0.4488 -0.0515 -0.0581
27685W        W70598  15.371  10.107   6.392  0.1032 -0.2179  0.2047
27686W        W70599  28.463  18.618   4.204  0.2423 -0.3453  0.0501
27687W        W70600  24.315  25.357  22.926 -0.0284  0.1988  0.1395
27688W        W70601  17.821  22.786   2.365  0.0445  0.1250  0.0683
27689W        W70602  31.877   5.949   8.799  0.1766 -0.1205 -0.0965
27690W        W70603  20.783   0.260   7.996  0.2598  0.2037  0.3307
27691W        W70604  17.966   1.069  29.301  0.0656 -0.0339 -0.2052
27692W        W70605  16.286  24.111   2.813 -0.0168 -0.3748  0.0887
27693W        W70606   9.487  31.623   8.740 -0.0352 -0.1421  0.1159
27694W        W70607  20.384  25.107   7.645 -0.0478 -0.1491 -0.1966
27695W        W70608  30.799   0.438   2.130 -0.0882  0.1735 -0.4667
27696W        W70609  30.090  29.974   7.859 -0.4098  0.1628  0.0704
27697W        W70610  22.647  34.082   2.963 -0.2527 -0.1207 -0.0456
27698W        W70611  32.636  34.077   9.407  0.0291 -0.1069 -0.0786
27699W        W70612  19.515   6.969   6.128 -0.0289 -0.0575 -0.1682
27700W        W70613  14.793  20.671   7.148 -0.1960 -0.0803  0.0069
27701W        W70614  24.146  26.184   1.865 -0.0744  0.0537 -0.2652
27702W        W70615  18.605  31.579   7.812  0.3586 -0.1368  0.0246
27703W        W70616   9.805  21.852  22.757 -0.2500 -0.0904  0.2550
27704W        W70617  20.532  27.166   3.544 -0.0464 -0.0885 -0.1053
27705W        W70618  30.901  22.466   2.847 -0.0457 -0.2745 -0.4125
27706W        W70619  26.122  33.087   7.746  0.3169 -0.2053  0.1094
27707W        W70620  27.938  27.932   9.366 -0.1816  0.1783  0.0841
27708W        W70621  28.789  32.450   6.698 -0.1660  0.0226  0.0386
27709W        W70622  32.543  33.354   8.696  0.1500 -0.0213  0.0310
27710W        W70623  21.503  18.922   2.793 -0.0919  0.1500 -0.0652
27711W        W70624  19.402   2.654   6.661 -0.1068 -0.1954  0.3691
27712W        W70625  12.087  30.167   1.374  0.3264 -0.0612  0.1514
27713W        W70626  18.991  29.957   0.771 -0.1428  0.1930  0.3582
27714W        W70627  16.888  22.245   3.622  0.0874 -0.0335  0.1718
27715W        W70628  21.640   1.698   3.006 -0.1271  0.0084 -0.1794
27716W        W70629  25.514  33.107  10.220 -0.1469  0.0301  0.1015
27717W        W70630  15.869  23.105   4.704 -0.0149 -0.0056 -0.2369
27718W        W70631  22.834  26.941   1.444 -0.2622  0.2549  0.0827
27719W        W70632  28.648  29.795   5.226 -0.2796 -0.0970 -0.0437
27720W        W70633  16.721   4.749   4.616 -0.3340 -0.1144  0.2628
27721W        W70634  20.513  21.376  29.103  0.0110 -0.2626 -0.1780
27722W        W70635  29.991  33.349   5.209  0.1360  0.0480  0.0248
27723W        W70636  19.080  27.121   2.375  0.2352  0.2133 -0.1817
27724W        W70637  30.309  27.133   7.499 -0.0476 -0.0662  0.0797
27725W        W70638  20.105  19.463   7.751  0.1822 -0.0371 -0.0258
27726W        W70639  20.779  34.060   2.312  0.0753 -0.0310  0.5777
27727W        W70640  16.365  26.421  27.303 -0.1127 -0.1234  0.0869
27728W        W70641  28.146  24.858  28.188 -0.0016 -0.1702  0.0960
27729W        W70642  19.353   5.723   5.614 -0.2205  0.0340 -0.0337
27730W        W70643   9.846  23.184   2.238  0.0657 -0.0914  0.0224
27731W        W70644  32.430  34.077   9.852  0.1027 -0.2210 -0.0859
27732W        W70645  17.987   8.673   8.896  0.0703 -0.0574  0.1480
27733W        W70646  14.828  31.242  10.217  0.1436  0.0210  0.0986
27734W        W70647  24.292  18.571   3.256 -0.1606 -0.1747  0.0830
27735W        W70648  29.839  29.131  25.895 -0.2646  0.2523 -0.0995
27736W        W70649  23.266  20.535   4.350 -0.0671  0.0513  0.0419
27737W        W70650  18.608   2.196   4.397  0.1704  0.1506 -0.2153
27738W        W70651  18.111  29.158   1.247  0.1306  0.0788 -0.0995
27739W        W70652  14.022  24.955   6.064  0.1819  0.0114  0.0397
27740W        W70653  24.759   1.562   6.078 -0.2539 -0.1479 -0.1003
27741W        W70654  13.359  25.397   6.189  0.1046  0.2360  0.1138
27742W        W70655  24.977  31.256   4.088  0.4494  0.0194 -0.3590
27743W        W70656  26.102  31.054   6.801 -0.1222  0.0956 -0.1358
27744W        W70657  14.542  23.914  21.377  0.3610 -0.0483 -0.6455
27745W        W70658  16.972   1.245   8.916  0.0266 -0.0754  0.1114
27746W        W70659  18.506  28.460   5.416 -0.0603 -0.1733 -0.2622
27747W        W70660  28.676  28.661   3.526 -0.0321 -0.0346 -0.0195
27748W        W70661  17.266  26.486   1.868 -0.0770 -0.2454 -0.3829
27749W        W70662  17.990  27.236   4.812 -0.2037  0.4913  0.0811
27750W        W70663  20.990  31.457   3.526  0.2844  0.4032  0.1158
27751W        W70664  11.969  29.649   5.479  0.0151  0.0951 -0.0476
27752W        W70665  32.337  30.602   8.934  0.1369 -0.3165  0.2303
27753W        W70666   0.160  28.690   2.267 -0.1263  0.2903  0.1251
27754W        W70667  16.134   3.469   3.085  0.2101 -0.0807 -0.1183
27755W        W70668  28.903  25.659   5.186 -0.0601  0.0656  0.0625
27756W        W70669  23.526  29.795   4.057 -0.1300 -0.2391 -0.0371
27757W        W70670  15.703   1.833   6.616  0.1000 -0.3241 -0.3292
27758W        W70671   0.668   4.623  10.196  0.2351  0.1107 -0.0704
27759W        W70672  33.001  24.714   5.895  0.4033  0.1035 -0.1292
27760W        W70673  30.572  28.120   7.559 -0.0793 -0.2159 -0.1292
27761W        W70674  20.367  30.494   8.174 -0.1006  0.1585 -0.3609
27762W        W70675  18.694  19.988   7.173 -0.0297 -0.0726  0.0632
27763W        W70676  16.901   4.409   5.458  0.1324 -0.0992 -0.0912
27764W        W70677  25.284  22.786   2.977 -0.2572  0.1256  0.1491
27765W        W70678  20.009  29.876   0.764 -0.0416 -0.1163  0.1228
27766W        W70679  20.573  30.744   4.559 -0.0771 -0.2146 -0.0117
27767W        W70680  26.133  32.173   2.261  0.0617 -0.0993  0.0278
27768W        W70681  23.903  28.470   8.831 -0.0239 -0.1831  0.1697
27769W        W70682  12.971   1.965   8.178  0.3125  0.5020 -0.0955
27770W        W70683  26.497  25.839   7.042 -0.3431  0.0373 -0.2153
27771W        W70684  15.636   1.220   4.902 -0.0437 -0.0639 -0.3395
27772W        W70685  13.726  32.687   6.808 -0.1112  0.0850 -0.3575
27773W        W70686  28.010   3.814   4.511  0.0254  0.0155  0.1665
27774W        W70687  20.968   5.777  26.508 -0.3306  0.1545 -0.2999
27775W        W70688  18.476  29.491   4.995  0.2000  0.3421 -0.0728
27776W        W70689  26.190   3.300   5.508  0.0384  0.2049  0.3048
27777W        W70690  26.447   3.546   8.768 -0.2742  0.1377 -0.1819
27778W        W70691  19.582  18.513   2.974  0.4647 -0.1040 -0.1085
27779W        W70692  24.712  34.358   7.316 -0.0437 -0.0195 -0.0999
27780W        W70693  28.756  30.369   9.598  0.4775  0.2204 -0.2716
27781W        W70694  27.576  31.254   7.313  0.3775  0.0897  0.0490
27782W        W70695  25.213  33.699   7.142  0.1490  0.1387  0.0051
27783W        W70696  22.972  28.935   2.237 -0.0781 -0.2019  0.3586
27784W        W70697  14.932  25.038   8.071  0.1423 -0.0364 -0.0910
27785W        W70698  22.716  31.748   3.740  0.3287  0.2820  0.4531
27786W        W70699  26.513  26.800   7.665  0.1402  0.0324 -0.0589
27787W        W70700  20.606  30.165   8.509 -0.1538  0.1789 -0.0609
27788W        W70701  28.711  19.353   7.109  0.1072  0.0517 -0.3599
27789W        W70702  16.838  29.285  10.006  0.0548 -0.1248  0.2755
27790W        W70703  19.424  29.455   4.786  0.0642 -0.3840 -0.1756
27791W        W70704  27.541  24.252  26.412 -0.0551 -0.2522  0.2998
27792W        W70705  24.998  21.685   5.517 -0.4054  0.2706  0.3118
27793W        W70706  19.035  23.443   8.063  0.1599 -0.1832 -0.1329
27794W        W70707  19.383  23.830  27.590  0.5967 -0.1931  0.0609
27795W        W70708  28.344  18.332   6.043 -0.0020 -0.3275 -0.0334
27796W        W70709  29.668  32.536   8.759  0.2199 -0.1574 -0.5484
27797W        W70710  21.726  25.272   2.540 -0.2960 -0.2721 -0.0322
27798W        W70711  29.038  30.172   3.882 -0.3084  0.2415  0.1013
27799W        W70712  26.499  28.006   2.904 -0.1841 -0.1484  0.1678
27800W        W70713  34.183   2.305   2.595 -0.1165 -0.0974  0.1283
27801W        W70714  29.476  20.145  28.953  0.0522  0.2500 -0.0985
27802W        W70715  19.015  24.370   3.839 -0.0810  0.1497  0.1046
27803W        W70716  21.568  27.381   9.041 -0.1404 -0.1693 -0.2725
27804W        W70717  26.159  29.894   1.244 -0.1465  0.1975 -0.2316
27805W        W70718  12.932  29.877   5.414  0.1200 -0.4261 -0.2227
27806W        W70719  32.097   0.071  11.163 -0.1596 -0.1576 -0.0893
27807W        W70720  24.389  31.422   8.757 -0.2641 -0.1277  0.2227
27808W        W70721  18.580  27.530   3.703  0.0352  0.0675  0.1731
27809W        W70722  21.600  32.144   6.788  0.2118  0.3934  0.1677
27810W        W70723  17.816  28.784   5.828  0.0381 -0.1539  0.0264
27811W        W70724  24.456  33.008   9.613 -0.0736  0.0858  0.2698
27812W        W70725  19.338  18.639   3.884  0.0123 -0.2305  0.0204
27813W        W70726  21.579   1.380   8.219  0.2085 -0.2006 -0.0377
27814W        W70727  18.552  27.279   3.285  0.3222  0.0084  0.5766
27815W        W70728  18.390   1.263   7.198 -0.1417  0.1580 -0.0769
27816W        W70729  21.291  27.554   4.087 -0.1842  0.1626  0.0353
27817W        W70730  12.054  26.564   4.902  0.2061 -0.0538 -0.1840
27818W        W70731  20.861  25.430   9.354 -0.3493  0.1735  0.1435
27819W        W70732   1.081  25.135  28.719 -0.1022 -0.0478  0.3038
27820W        W70733  23.027  18.551   6.928  0.0681 -0.0455 -0.3442
27821W        W70734  25.634  27.702   0.950 -0.0204 -0.0398 -0.2316
27822W        W70735  18.612  22.151   4.986 -0.0044 -0.0459 -0.3139
27823W        W70736  26.092  25.827   7.313 -0.0471 -0.0281  0.1938
27824W        W70737  29.403  27.306   7.438 -0.2027 -0.0986  0.0378
27825W        W70738  24.623  32.000  26.989 -0.1225 -0.1292 -0.2725
27826W        W70739  30.044  25.954   4.221  0.0064  0.0735 -0.2024
27827W        W70740  27.526  30.666   5.665  0.2056  0.0622  0.0900
27828W        W70741  29.022  27.080   7.685 -0.0587  0.0374 -0.1321
27829W        W70742  26.992  27.869   3.761  0.2583 -0.0983  0.1588
27830W        W70743  12.509  23.740   1.804  0.2250  0.0516  0.4696
27831W        W70744   2.185  29.324   9.006  0.0478 -0.3462  0.0506
27832W        W70745  21.943   5.130   4.786 -0.0050 -0.1206  0.3931
27833W        W70746   0.439  26.760   3.201 -0.0330 -0.1909 -0.0332
27834W        W70747  15.096  27.112   6.434 -0.0150 -0.0193 -0.2068
27835W        W70748  16.796  28.491   8.620 -0.0752 -0.1287 -0.1168
27836W        W70749  19.515  27.175   5.676  0.0488  0.1695 -0.0428
27837W        W70750  29.286   4.296   0.323  0.0439  0.0149 -0.0638
27838W        W70751  17.877   5.303   6.958  0.3858  0.2621 -0.1757
27839W        W70752  27.941  22.457   4.024  0.0261  0.3402  0.0608
27840W        W70753  30.755  33.328   5.792  0.1233 -0.2485  0.1057
27841W        W70754  26.895  11.616   2.089 -0.0627 -0.2668 -0.0092
27842W        W70755  11.573   3.378  10.221 -0.1408  0.0822  0.1290
27843W        W70756  24.086  27.413   2.375 -0.1545  0.1472 -0.0682
27844W        W70757  25.834   1.586   9.303  0.1044 -0.0921 -0.1074
27845W        W70758  25.663  29.583  29.744 -0.2146 -0.1048 -0.0167
27846W        W70759  18.529  33.428   3.142  0.2744  0.2681  0.0013
27847W        W70760   9.433   3.906  13.999  0.1983 -0.0891  0.1112
27848W        W70761  23.437  19.322   9.135  0.3430  0.1291  0.1317
27849W        W70762  23.626  28.306   1.981  0.1188  0.0197  0.0532
27850W        W70763  21.510  28.891   3.581 -0.0869  0.1308 -0.0627
27851W        W70764  15.437  26.279   3.872  0.2037 -0.0660  0.0516
27852W        W70765  11.643   1.835   4.206 -0.0714  0.1650 -0.0119
27853W        W70766  21.909  22.828   2.726  0.0576  0.2046 -0.2453
27854W        W70767  11.074  29.649   4.943 -0.2356 -0.5151  0.5238
27855W        W70768  12.952  29.224   7.541  0.1363  0.0303 -0.1854
27856W        W70769  16.880   0.293  10.779 -0.1088 -0.2024 -0.0235
27857W        W70770  25.370  29.285   4.013 -0.0315  0.3413 -0.1289
27858W        W70771  26.781  24.785   7.146  0.1323  0.0389 -0.2178
27859W        W70772  29.621  28.519   6.378  0.3072 -0.2525  0.0206
27860W        W70773  17.254  29.438   8.968 -0.0060 -0.2502  0.0559
27861W        W70774  26.375  18.757   4.406 -0.0277  0.0165 -0.5642
27862W        W70775  22.210  31.660   0.158 -0.2076 -0.0548  0.0213
27863W        W70776  29.314  29.065   7.020 -0.6645  0.2123  0.1181
27864W        W70777  18.720  30.821   4.040  0.3365 -0.0758  0.1653
27865W        W70778  19.702  32.171   6.934 -0.1355 -0.0355 -0.0201
27866W        W70779  23.628  31.221  28.875 -0.0553  0.0605 -0.0188
27867W        W70780  20.213  19.138   8.092  0.0170 -0.1689 -0.0474
27868W        W70781  24.497  23.280  27.738 -0.1194 -0.1897  0.1350
27869W        W70782  18.065  31.114   9.201  0.0710  0.1040 -0.1926
27870W        W70783  22.761  18.747   5.594  0.0467 -0.0095  0.2945
27871W        W70784  19.944  25.507  27.377  0.1120 -0.4165  0.1775
27872W        W70785  24.289  24.639  29.338  0.1005  0.0193 -0.2974
27873W        W70786  25.163   6.303   6.824 -0.1413  0.1243 -0.3619
27874W        W70787  16.031  26.168   5.288 -0.0155 -0.1032  0.0189
27875W        W70788  28.331  32.004   3.583  0.2192 -0.3890  0.0213
27876W        W70789  24.449  27.885   6.746 -0.0740 -0.1562  0.2495
27877W        W70790  11.845  27.790   0.325  0.1467  0.1059 -0.1824
27878W        W70791  22.599   1.982   8.566  0.1298 -0.3266  0.0727
27879W        W70792  16.175  28.074   9.057 -0.0988  0.1940  0.1004
27880W        W70793  15.029  29.522   4.000 -0.0665 -0.0460  0.0654
27881W        W70794  21.313  23.014   4.415 -0.0102  0.0257 -0.0526
27882W        W70795  19.321  28.893   4.880  0.1350 -0.2455  0.2692
27883W        W70796  22.456   0.322  26.065 -0.1896 -0.1122  0.2699
27884W        W70797  25.616   1.588   6.060  0.3243  0.1052 -0.0519
27885W        W70798  26.644  26.550   5.157  0.0130 -0.2763  0.0285
27886W        W70799  19.284  27.549   6.654 -0.1698  0.4534  0.3249
27887W        W70800  16.547  29.084  10.834  0.2421  0.0033 -0.1970
27888W        W70801  16.418   4.994   8.493  0.1262  0.0542  0.3967
27889W        W70802  28.350  23.363   6.659  0.0893 -0.2905  0.0845
27890W        W70803  27.829  25.578   1.796 -0.1703 -0.1250 -0.0095
27891W        W70804  24.974  23.288   6.067  0.0025 -0.1636 -0.0728
27892W        W70805   4.807  23.099   8.332  0.1765 -0.0652  0.0792
27893W        W70806  10.673  30.420   4.813  0.0649 -0.1968  0.0000
27894W        W70807  29.173  29.065  10.005  0.3667 -0.1591 -0.0316
27895W        W70808  26.973  26.945   7.113 -0.0172  0.0245  0.0057
27896W        W70809  18.709  31.091   8.735 -0.0071 -0.1642 -0.0731
27897W        W70810  20.334  23.249   8.120 -0.0223  0.2624 -0.3343
27898W        W70811  24.377  33.275   3.484 -0.0712 -0.1993  0.1931
27899W        W70812  25.683   0.158   3.261 -0.0576  0.0691 -0.2058
27900W        W70813   1.696  24.872   3.741  0.2814 -0.1710  0.1096
27901W        W70814  23.512   2.945   1.573  0.0900 -0.3372 -0.2563
27902W        W70815  14.929  29.273   7.476 -0.0411  0.0231  0.2877
27903W        W70816  25.879  19.450   5.820 -0.0223 -0.0738  0.0392
27904W        W70817  18.572  30.876   6.126  0.1723 -0.0481 -0.0327
27905W        W70818  22.454  29.755   3.875  0.0286 -0.0269 -0.1829
27906W        W70819  25.436  29.396   8.046  0.0374  0.0681 -0.1384
27907W        W70820  24.717  28.826   7.567  0.1848  0.1749 -0.0000
27908W        W70821  13.618   2.260   4.693 -0.1816  0.0857 -0.3207
27909W        W70822  11.724  31.006   8.729  0.0393  0.0451 -0.0768
27910W        W70823  31.641  22.674   8.800  0.0931  0.2195  0.0909
27911W        W70824  21.095  24.842   2.882  0.2345 -0.1709  0.0024
27912W        W70825  13.910  29.240   5.804 -0.2325 -0.1512 -0.0882
27913W        W70826  28.294  19.531   5.141 -0.1303 -0.0578  0.1291
27914W        W70827  23.719  23.541   2.486 -0.3275  0.1813  0.1732
27915W        W70828  22.987  29.090   1.160 -0.1161 -0.2774  0.1096
27916W        W70829  19.308  26.242   0.526  0.0831  0.1823 -0.1085
27917W        W70830  28.897  22.557   5.607 -0.0389  0.1259  0.1398
27918W        W70831  17.264  27.850  28.299  0.3887  0.0252  0.0966
27919W        W70832  24.755  26.319   5.736 -0.2873 -0.1887 -0.2457
27920W        W70833   4.001  26.324   2.101  0.0249 -0.1415  0.0088
27921W        W70834  10.746  26.506  25.329 -0.1758 -0.0449  0.1152
27922W        W70835  28.037  32.949   6.990  0.0734 -0.1548  0.2044
27923W        W70836  18.980  34.060   2.965  0.0588  0.0453  0.1239
27924W        W70837  29.370   0.104  28.489  0.1913 -0.3109  0.1350
27925W        W70838  20.110  26.809   4.247  0.3831  0.2478 -0.4046
27926W        W70839  14.194   0.207   2.310 -0.1963  0.1563  0.0425
27927W        W70840  29.308  28.193   8.693  0.1848  0.0962  0.0771
27928W        W70841  15.464  23.802   4.106 -0.1906  0.1792 -0.0584
27929W        W70842  20.591  33.284  23.770 -0.3121  0.2873  0.2370
27930W        W70843  31.315  15.212   8.043 -0.4896  0.0138 -0.0725
27931W        W70844  17.172  25.956   8.026 -0.0423 -0.4224 -0.2775
27932W        W70845  22.800  31.507   8.164 -0.0680  0.2463  0.2456
27933W        W70846  23.028  29.595   7.615 -0.0529 -0.2323 -0.0934
27934W        W70847  14.189  34.127   3.076  0.1361 -0.0128  0.1948
27935W        W70848  15.986  22.897   3.401  0.0334  0.3270  0.0735
27936W        W70849  18.107  19.049   0.751  0.0581 -0.0305 -0.0955
27937W        W70850  17.833  31.447   8.897  0.1365 -0.1565  0.0005
27938W        W70851  33.819  23.547   6.288  0.0623  0.0529  0.1476
27939W        W70852  22.951  31.151   8.663  0.3085 -0.2095  0.0811
27940W        W70853   4.835  34.204   5.752  0.1829  0.2189  0.0460
27941W        W70854   4.811  28.599   8.710  0.0158 -0.2737 -0.0278
27942W        W70855  26.799  31.730   7.631 -0.0238 -0.2655  0.1181
27943W        W70856  33.684  24.621   4.508  0.2893  0.0044  0.3413
27944W        W70857  30.486  32.056   7.314  0.0349  0.0746 -0.0401
27945W        W70858  21.575   5.361   7.039 -0.0867 -0.0527  0.1470
27946W        W70859  14.815  31.305   5.088  0.2839 -0.0891 -0.0673
27947W        W70860  18.853  26.428   2.705  0.0259  0.2210 -0.1385
27948W        W70861  32.381  20.349   9.453 -0.0173 -0.0629  0.1422
27949W        W70862  23.574   7.631   2.422  0.0325  0.0847  0.0045
27950W        W70863  18.537  10.969   8.806 -0.2686  0.1686  0.2232
27951W        W70864  23.800  23.059   7.141  0.0065 -0.1143 -0.0316
27952W        W70865  28.203  23.686   7.569 -0.1909 -0.0936 -0.2301
27953W        W70866  23.797   1.189   2.126  0.0103 -0.2115 -0.1481
27954W        W70867  20.039  22.515   3.023  0.1523  0.0555  0.0913
27955W        W70868  20.829   5.085   8.499 -0.1190  0.0316 -0.3479
27956W        W70869  33.670   0.232   7.522 -0.4218  0.1069  0.1141
27957W        W70870  31.463  26.232   5.230  0.3281  0.1267 -0.1112
27958W        W70871   1.120  22.020   4.761  0.1100  0.2202  0.1472
27959W        W70872  25.563  28.255   0.649  0.1842 -0.1168 -0.2519
27960W        W70873  24.846  22.182  27.946 -0.2067 -0.2496 -0.1723
27961W        W70874  19.281  19.564  28.521 -0.0960  0.1800  0.2331
27962W        W70875  15.821   3.413  11.470 -0.1401  0.1706  0.1479
27963W        W70876  32.328  24.336   4.941  0.0696  0.0913 -0.0237
27964W        W70877  26.905   1.905   7.783  0.1556 -0.0577 -0.0407
27965W        W70878  32.825   8.460   1.914 -0.1186 -0.1074 -0.0614
27966W        W70879  23.206  31.121   2.952 -0.1321  0.0252 -0.0252
27967W        W70880  16.877   0.404   9.755  0.0728  0.3279 -0.1271
27968W        W70881  18.850  23.927   8.121 -0.0469 -0.2530 -0.2102
27969W        W70882  27.024   9.622  25.125  0.0779 -0.2390 -0.1495
27970W        W70883  26.832   1.463   3.423  0.1925  0.0608 -0.0879
27971W        W70884  21.509   1.408   5.528 -0.1679 -0.1395  0.0339
27972W        W70885  19.613  28.730   9.731  0.1093  0.0198  0.1505
27973W        W70886  19.842  31.732   6.473 -0.0531 -0.0382  0.0558
27974W        W70887  31.608  31.092   9.792 -0.0271  0.0319 -0.1571
27975W        W70888  32.788  28.713   7.891  0.0535  0.0950  0.1941
27976W        W70889  33.471  31.603   5.999 -0.3049 -0.0529 -0.3071
27977W        W70890  18.457  28.153   6.525 -0.3304 -0.0414  0.3077
27978W        W70891  20.427  31.216   4.361 -0.2386  0.0996 -0.0842
27979W        W70892  13.522   2.997   6.985 -0.0723 -0.2437  0.1780
27980W        W70893  25.610   0.473   4.221  0.0364  0.1293 -0.0016
27981W        W70894  21.199  31.072  26.520  0.1375 -0.2171 -0.2619
27982W        W70895  16.882   0.762  10.570 -0.3076  0.0605 -0.2006
27983W        W70896  16.454  19.057   1.493 -0.2303  0.3529 -0.2421
27984W        W70897  31.601  23.385  29.771 -0.0347  0.1879 -0.1599
27985W        W70898  26.545  28.271   9.585  0.2221  0.0903 -0.4779
27986W        W70899  19.136  16.799  28.709  0.1385  0.0922 -0.1811
27987W        W70900  23.772  27.577   7.445 -0.1929  0.1342 -0.1760
27988W        W70901  24.850  27.930  29.085 -0.0721 -0.0822 -0.3959
27989W        W70902  33.426   5.678   2.283 -0.0017 -0.0143  0.0354
27990W        W70903  22.182  32.585   8.201 -0.1013  0.2111 -0.0253
27991W        W70904   7.098  28.397   9.292  0.2034  0.0190  0.5976
27992W        W70905  21.454  30.182   2.069 -0.0947  0.0472  0.0643
27993W        W70906  20.191   0.796  29.652  0.1366  0.0293 -0.2431
27994W        W70907  13.386   1.356  11.566 -0.0219  0.0377 -0.0912
27995W        W70908  20.870  29.584   9.089  0.0685  0.3080  0.0130
27996W        W70909  26.020  27.833   3.671 -0.2176  0.0729  0.1410
27997W        W70910  26.191  30.736   8.601 -0.1232  0.0229 -0.2331
27998W        W70911  30.626  27.052  10.120 -0.0358 -0.3138  0.1591
27999W        W70912  28.272  14.767   3.828 -0.0052 -0.1255  0.4315
28000W        W70913  30.325  28.948   8.510 -0.0456 -0.1741  0.2913
28001W        W70914  29.695  31.586   6.067  0.0053  0.3323  0.0200
28002W        W70915  25.677  28.229   7.479  0.0201  0.0188 -0.1172
28003W        W70916  15.720   5.009   4.669 -0.0355 -0.1316  0.3650
28004W        W70917  28.780  23.195  25.255 -0.3128 -0.4430  0.4067
28005W        W70918  19.227   0.683   4.628  0.0971  0.1518  0.2351
28006W        W70919  27.268  27.151   1.940  0.0190  0.2161 -0.2109
28007W        W70920  13.354  26.753  26.994 -0.4849  0.1216  0.0099
28008W        W70921  29.567  27.107   4.789 -0.1039  0.0114  0.0965
28009W        W70922  18.213  33.191   5.589  0.0232 -0.0557  0.2401
28010W        W70923  24.943  28.788  28.912 -0.0623  0.0921  0.0806
28011W        W70924  12.809  31.044  19.486  0.2623  0.3843  0.1137
28012W        W70925  24.728  31.175   1.703  0.0271 -0.0634  0.1123
28013W        W70926   3.188   1.231  11.489  0.0480 -0.0977  0.1204
28014W        W70927  22.333  25.904   2.907 -0.1553  0.0936 -0.1406
28015W        W70928  26.156  23.608   2.652 -0.3510 -0.1073 -0.0777
28016W        W70929   8.331  30.703   4.939  0.0091  0.0623  0.0629
28017W        W70930  21.236   2.630   2.835 -0.1051  0.3372  0.2129
28018W        W70931  21.555  30.265   4.309  0.2428 -0.0889  0.0079
28019W        W70932  26.907  30.748   1.573  0.2886 -0.3549 -0.0927
28020W        W70933  12.434  22.909   6.111 -0.2115  0.0026 -0.2736
28021W        W70934   3.121  31.866  25.838 -0.3353  0.0946  0.0711
28022W        W70935  11.905  26.549   4.120  0.2010 -0.1368  0.1017
28023W        W70936  21.198  26.898  25.303 -0.1400  0.0132 -0.2631
28024W        W70937  18.577  27.824  20.303  0.0224 -0.3489  0.0369
28025W        W70938  20.393  18.745  27.105  0.2228 -0.1853  0.0722
28026W        W70939  29.409   1.039  21.194  0.1305 -0.0153  0.1460
28027W        W70940  31.480  25.727   8.358  0.2621 -0.0753  0.0344
28028W        W70941  22.183  20.145   3.650 -0.0330 -0.0855 -0.0652
28029W        W70942  34.108   0.233  12.188 -0.1402 -0.0611 -0.1061
28030W        W70943  28.241  27.473   6.562 -0.0032 -0.0071  0.0128
28031W        W70944  21.175  23.786   6.223  0.0952  0.1521  0.0622
28032W        W70945  17.134   0.148  25.055 -0.4118  0.1994  0.1386
28033W        W70946  28.535   2.013   6.890 -0.1022  0.0018  0.0676
28034W        W70947  25.175  29.907   5.831  0.1643 -0.0899  0.2252
28035W        W70948  24.179  31.073   7.844  0.0909  0.0145 -0.0134
28036W        W70949  21.758   0.193   3.494 -0.0650 -0.0447 -0.2447
28037W        W70950  28.957   9.320  29.040 -0.1941  0.2091  0.2988
28038W        W70951  19.941  31.174   2.418 -0.0080 -0.2283  0.2850
28039W        W70952  20.827  32.153   5.587  0.1010  0.2990 -0.0097
28040W        W70953  25.827  26.969   6.920 -0.1481  0.0769  0.0535
28041W        W70954  34.477   1.955  28.145  0.0756 -0.0606  0.2737
28042W        W70955  20.708  19.098  27.753 -0.0286  0.1492 -0.0660
28043W        W70956  20.891   4.104   5.514  0.3183  0.0845  0.1354
28044W        W70957  26.082  28.151  22.300  0.0229 -0.1558 -0.1518
28045W        W70958  24.448  32.060  29.336  0.0117  0.0216 -0.1421
28046W        W70959  21.905   0.785   4.069 -0.1830 -0.1882 -0.0027
28047W        W70960   0.073  25.050  29.324 -0.0172 -0.0014  0.3060
28048W        W70961  24.337   9.033  28.772 -0.1021  0.2250  0.1460
28049W        W70962  25.032  28.705  23.391 -0.0009 -0.1660  0.2427
28050W        W70963  11.780   2.245   0.584  0.0930  0.1896 -0.0500
28051W        W70964  25.650  33.864   4.060  0.1197 -0.0175  0.1151
28052W        W70965  21.422  29.302  26.340  0.1581 -0.2637 -0.2160
28053W        W70966  20.810  24.384  29.581  0.2464  0.0635 -0.1044
28054W        W70967  14.161  31.626  26.054  0.0939 -0.3555  0.1660
28055W        W70968  20.049   2.370   4.253  0.2450  0.0314 -0.0559
28056W        W70969  26.407  31.732   0.532 -0.1917 -0.0517 -0.0809
28057W        W70970  26.864  33.365   2.727 -0.1225  0.2607  0.0606
28058W        W70971  19.022  25.046   6.896 -0.1294 -0.0319 -0.2183
28059W        W70972  27.955  25.549  27.787 -0.0683 -0.3243 -0.1735
28060W        W70973  15.229  32.235   0.109 -0.1236  0.2376 -0.0709
28061W        W70974  30.769  29.755   0.574  0.3771 -0.1370 -0.1274
28062W        W70975  20.548   3.549   5.735  0.2093  0.1314 -0.2159
28063W        W70976  19.079  23.567  28.427  0.1930  0.0119  0.3558
28064W        W70977  33.156   2.642   5.742 -0.1057  0.2664 -0.1632
28065W        W70978  20.812  26.794  25.000 -0.0127 -0.0349 -0.2475
28066W        W70979  17.082  20.066  24.977  0.1040  0.0610  0.0441
28067W        W70980  22.821  31.121   5.260 -0.0515 -0.0849  0.1239
28068W        W70981   3.976   0.759  29.417 -0.0322  0.1827  0.0544
28069W        W70982  31.358  18.786   4.025 -0.0583 -0.2046  0.2414
28070W        W70983  16.407  30.958   4.863 -0.0611  0.3947 -0.1965
28071W        W70984  23.799  28.648   6.787 -0.0104 -0.1420 -0.2433
28072W        W70985  33.902   2.864   6.597 -0.2941 -0.0086  0.0049
28073W        W70986  15.025  29.745   1.161  0.1997 -0.2427  0.0426
28074W        W70987  29.734  30.177   1.634  0.0059  0.0775 -0.0437
28075W        W70988  23.579   9.308  25.544 -0.0769 -0.2066  0.2882
28076W        W70989  20.646   5.258  27.353  0.0933 -0.1102 -0.0284
28077W        W70990  33.827  16.240   5.439 -0.0709 -0.0116  0.0960
28078W        W70991  22.413  23.467   0.380  0.2886  0.1059 -0.0599
28079W        W70992  21.800  15.735  27.773 -0.4726 -0.2647 -0.1058
28080W        W70993  28.949  24.154   5.977  0.0405  0.1992  0.2135
28081W        W70994  30.242  28.373   6.824  0.1447 -0.1489 -0.2091
28082W        W70995  28.767  29.383   0.295 -0.4115  0.0902 -0.1926
28083W        W70996  23.196   3.466   6.659 -0.1320 -0.2652  0.0857
28084W        W70997  10.168  19.165  27.371  0.3034  0.1510 -0.1067
28085W        W70998  13.819  33.973   5.783 -0.0071  0.0888  0.3734
28086W        W70999  22.029   6.385   7.470  0.1429 -0.1265 -0.3394
28087W        W71000  22.067  34.173   6.217  0.0967 -0.0264 -0.1881
28088W        W71001  27.395  31.389  19.237  0.1831  0.1898  0.0220
28089W        W71002  23.776  27.785   2.580 -0.0238  0.2512  0.0772
28090W        W71003  20.603   5.760  28.594  0.0231  0.5231 -0.1398
28091W        W71004  19.318   0.858   2.956 -0.2338 -0.0134  0.0715
28092W        W71005  21.274  25.522   7.064  0.2793  0.0938 -0.0666
28093W        W71006  28.426  28.940  24.861  0.1670 -0.3860  0.1609
28094W        W71007  23.331  31.980   6.163 -0.0072  0.4591 -0.1359
28095W        W71008  18.464  28.264   7.112  0.0386 -0.3084  0.0977
28096W        W71009   0.680   3.522  21.482  0.2712 -0.0312 -0.0158
28097W        W71010  33.046  18.074   1.873 -0.0739 -0.0045  0.1116
28098W        W71011  22.577  28.807   2.712  0.1155  0.2566  0.2238
28099W        W71012  20.925  17.696   1.915  0.2360 -0.2185  0.1406
28100W        W71013  19.991  30.244  25.216 -0.1559 -0.1698  0.2863
28101W        W71014  28.213  23.079   3.488 -0.0722 -0.3201 -0.1452
28102W        W71015  26.976  28.809   4.422 -0.2129 -0.1024 -0.1006
28103W        W71016  25.356  18.393   5.124  0.0787 -0.1360 -0.0426
28104W        W71017  18.724   3.433  27.891 -0.0743 -0.1429 -0.0331
28105W        W71018   1.345  21.450   0.173  0.1179 -0.1430  0.3280
28106W        W71019  25.242  32.196   9.625  0.1432  0.0687  0.1771
28107W        W71020  17.657  23.335  27.411 -0.0419 -0.0913  0.0715
28108W        W71021  30.704  32.477   7.261  0.0652 -0.1310 -0.3167
28109W        W71022  34.403   1.591  10.844  0.0818 -0.0450  0.1392
28110W        W71023  34.387  29.620   3.525 -0.0616 -0.0999  0.0785
28111W        W71024  22.186  33.406   9.956 -0.2655 -0.1651  0.0671
28112W        W71025  33.068  28.950  24.928 -0.1106 -0.2304  0.1388
28113W        W71026  22.798  26.958  27.354 -0.0278  0.1832 -0.2503
28114W        W71027  28.921   4.819   4.979 -0.1291 -0.1786  0.1990
28115W        W71028  24.342  25.344   6.061 -0.1648 -0.0721  0.1292
28116W        W71029  19.575  27.621   8.836  0.0642  0.0679 -0.2515
28117W        W71030  23.827  29.515  28.327 -0.2750  0.1463  0.0433
28118W        W71031  16.591  21.930  24.914 -0.2953  0.1656 -0.0814
28119W        W71032  28.240  30.306  19.553  0.0051 -0.1761 -0.1839
28120W        W71033  30.664  24.787   6.337 -0.2448 -0.0019  0.0080
28121W        W71034   0.737  27.999   7.347 -0.0683  0.1364 -0.0647
28122W        W71035  32.070  33.607   8.005 -0.1275  0.1799 -0.0995
28123W        W71036  18.593  24.915   7.140 -0.1817 -0.0309  0.0688
28124W        W71037  22.177  33.635   0.102  0.0771  0.0252  0.1469
28125W        W71038  21.222  24.897   1.579  0.1087 -0.1121 -0.1705
28126W        W71039  19.049  22.188  24.638  0.0065  0.1663  0.3769
28127W        W71040  16.356  25.103   7.386 -0.0192 -0.2648  0.2420
28128W        W71041  27.490  27.362  25.060  0.0929 -0.2290  0.3415
28129W        W71042   2.766  18.679   0.770 -0.1633 -0.0577 -0.4105
28130W        W71043  22.826  28.250   4.846  0.1805  0.1084  0.0480
28131W        W71044  22.204   5.750  18.622  0.0628  0.1619 -0.0959
28132W        W71045  21.765   0.858   5.641  0.1615 -0.1941 -0.0112
28133W        W71046  20.185  30.227   8.959 -0.0826  0.1252 -0.1073
28134W        W71047  25.203  21.084   8.489  0.0424 -0.1762  0.2064
28135W        W71048  23.265   0.498  10.245  0.0170 -0.0619  0.0848
28136W        W71049  22.111  11.686   6.622 -0.0202 -0.2569  0.0930
28137W        W71050  28.679  29.010  29.617 -0.4572 -0.3111  0.2609
28138W        W71051  21.821  24.056   5.155  0.0418  0.1752  0.3123
28139W        W71052  33.965  19.964   6.412  0.0518  0.0262  0.2382
28140W        W71053   2.803  32.998   5.933 -0.1282 -0.3253  0.0120
28141W        W71054  15.084  33.417   7.434 -0.0576  0.0925  0.1044
28142W        W71055  30.756  27.457   8.836 -0.4015  0.1406 -0.0007
28143W        W71056  15.562  23.019  23.927 -0.1961 -0.1306  0.2158
28144W        W71057  25.884  21.796  28.732  0.1164 -0.2827 -0.0837
28145W        W71058  19.982  28.201   2.521  0.0128  0.0652  0.0012
28146W        W71059  22.429  26.753  20.251 -0.3766 -0.2939 -0.2446
28147W        W71060  25.318  30.327  28.388  0.0402  0.1998  0.1287
28148W        W71061   6.222  20.590  15.513 -0.0881  0.1990 -0.1242
28149W        W71062  25.729  23.128   5.364  0.0874 -0.1818 -0.3673
28150W        W71063  29.541   2.152   5.310 -0.0658  0.0547  0.1088
28151W        W71064   1.692  16.338   5.815 -0.3193  0.2927  0.0718
28152W        W71065  23.012   1.643  27.437 -0.1486 -0.1494  0.3992
28153W        W71066  16.848  28.241   6.049 -0.0773  0.2807  0.1659
28154W        W71067  14.375  32.887  27.542 -0.1166 -0.1397  0.0271
28155W        W71068  32.763   1.932   0.128 -0.0647 -0.0713  0.1237
28156W        W71069  29.180  22.740   1.580 -0.3656 -0.3603  0.3191
28157W        W71070  20.497  20.429  18.670  0.1544 -0.1137  0.0391
28158W        W71071  17.226  32.250   6.781  0.3034 -0.1243 -0.1385
28159W        W71072  25.283  32.643  24.519 -0.1023 -0.0841  0.1876
28160W        W71073  23.114   4.455   5.514 -0.0508 -0.0563 -0.3144
28161W        W71074  28.482  25.803   0.294  0.0577  0.0610 -0.2195
28162W        W71075  19.705   4.119   3.500 -0.1293  0.3246 -0.0328
28163W        W71076  19.187  33.341  28.410 -0.0326 -0.0797  0.0270
28164W        W71077  25.003   1.518  20.168 -0.2217 -0.0002 -0.0602
28165W        W71078   5.175  19.786   9.355  0.0982  0.1280  0.0417
28166W        W71079  23.281  12.581   8.075  0.0230 -0.1010 -0.0712
28167W        W71080  28.436  23.991  28.626  0.0419  0.1702  0.0889
28168W        W71081  22.511  34.254   6.373  0.1402  0.0011 -0.2447
28169W        W71082  18.504  22.419  20.084 -0.1090 -0.0307 -0.0753
28170W        W71083  26.635  26.803  29.463  0.1313 -0.0314  0.2835
28171W        W71084  27.721  34.455   1.554  0.2594  0.3907  0.1235
28172W        W71085  30.986  33.497   4.502  0.1708 -0.0409 -0.2213
28173W        W71086  14.176  33.820   0.407 -0.1253  0.1715  0.3576
28174W        W71087  23.370  28.877  21.412  0.2416  0.1570  0.0079
28175W        W71088  12.862  32.657   4.650  0.1809 -0.2478  0.1270
28176W        W71089  34.047   1.439  28.807  0.1461 -0.0497 -0.0824
28177W        W71090  18.424  26.605  21.714  0.3483  0.1339 -0.4830
28178W        W71091  28.090  29.955  27.650 -0.0512  0.0789  0.2119
28179W        W71092  22.086  26.623  28.565 -0.0829  0.3270 -0.0633
28180W        W71093  15.335  21.100  26.953 -0.1497 -0.2667 -0.0791
28181W        W71094  25.818   1.460   5.574  0.1455 -0.0835  0.4730
28182W        W71095  28.830  31.194   0.314  0.3537 -0.1385  0.1436
28183W        W71096   1.951   7.482   9.137 -0.0003 -0.2224  0.4685
28184W        W71097  31.453  26.191   2.552  0.1150  0.1832 -0.1702
28185W        W71098  13.029  31.247   9.886 -0.1279 -0.1366 -0.2733
28186W        W71099  19.468   0.470   5.025 -0.3351 -0.0890  0.0101
28187W        W71100  19.085  27.118   0.895  0.0276 -0.0439 -0.0230
28188W        W71101  31.658   8.063   4.595 -0.0225 -0.0180 -0.1555
28189W        W71102  28.664  27.291  28.949 -0.0708 -0.0322 -0.1610
28190W        W71103  16.655  21.641   0.985  0.0701  0.0088 -0.1620
28191W        W71104  18.356   1.572   2.077 -0.2914  0.1140 -0.1283
28192W        W71105  21.747   3.208   2.111 -0.0244 -0.2497  0.0439
28193W        W71106  28.013  31.556  10.103 -0.0227  0.0754  0.2652
28194W        W71107  20.871   1.985   9.008  0.1350 -0.1569 -0.0202
28195W        W71108  15.501  17.694  28.832 -0.0093 -0.0298 -0.2560
28196W        W71109  30.783  32.085   3.071  0.1371  0.0546 -0.1913
28197W        W71110   1.640  14.607  21.156 -0.0394  0.1611  0.1079
28198W        W71111  17.189  21.816   4.315 -0.0887 -0.0675  0.1600
28199W        W71112  20.482   5.261   1.276  0.0148  0.0955 -0.0025
28200W        W71113  26.622  27.731  19.445 -0.5172 -0.1252  0.1600
28201W        W71114  23.070  21.877   7.608  0.1007 -0.4460 -0.2181
28202W        W71115   8.852   3.839   0.340 -0.2290  0.0755  0.0249
28203W        W71116  30.882  27.228  17.930 -0.0967  0.0374 -0.2316
28204W        W71117  30.711   6.579   3.606 -0.2190 -0.0424  0.1986
28205W        W71118  32.956  26.388  28.272 -0.1922  0.1438  0.1492
28206W        W71119   8.646  30.372   1.705 -0.2893  0.1199  0.2268
28207W        W71120  22.874  33.748   4.702 -0.4016  0.0176 -0.3183
28208W        W71121  13.002  25.906   0.255 -0.2629  0.4057 -0.1107
28209W        W71122   0.775  27.556  14.594  0.2234 -0.1252  0.3641
28210W        W71123  21.312  33.624   0.299 -0.2807 -0.0986  0.1008
28211W        W71124  24.436  29.823   6.297  0.0758  0.0594  0.0927
28212W        W71125  29.511  23.070   3.053  0.0788 -0.2184  0.0915
28213W        W71126  24.464  31.388  27.087 -0.1980 -0.0950 -0.0592
28214W        W71127  26.557   3.084   1.247  0.2754 -0.1961 -0.2418
28215W        W71128   1.773   4.247  10.541  0.1662 -0.2322 -0.0278
28216W        W71129  30.991  30.266  27.679  0.1887  0.1364  0.1090
28217W        W71130  10.630  25.343   5.584 -0.0044 -0.2672 -0.2927
28218W        W71131  26.738   1.142   5.683 -0.1187 -0.0251  0.2115
28219W        W71132  24.115  26.348  16.263  0.2374 -0.0353 -0.2876
28220W        W71133  16.880   8.474   9.390 -0.3181  0.0211  0.1341
28221W        W71134  24.042  28.668  27.365 -0.0148  0.1112  0.2249
28222W        W71135  25.585  23.167   7.706 -0.0957 -0.0292 -0.0778
28223W        W71136  14.397  26.179  27.973  0.0556 -0.1879 -0.1967
28224W        W71137  27.622  22.408  29.351 -0.0845 -0.2688 -0.0447
28225W        W71138  22.523   4.382   4.985 -0.3873  0.2502 -0.2763
28226W        W71139  25.926  26.313   3.722  0.1132 -0.0132 -0.0440
28227W        W71140  22.114  29.555   5.197 -0.0403  0.0070  0.2244
28228W        W71141  15.382  34.332   5.751  0.1031  0.0890 -0.0262
28229W        W71142  11.492  30.690   6.172  0.2610 -0.0247 -0.0117
28230W        W71143  17.902  28.549  29.659  0.1047 -0.0348 -0.2144
28231W        W71144  25.668  28.455   4.383 -0.0071  0.0807 -0.0329
28232W        W71145  19.090  32.953   8.021 -0.1583  0.1406  0.0505
28233W        W71146  18.782  30.730   0.989 -0.1826 -0.0600 -0.0011
28234W        W71147  26.624  29.471  29.286  0.3457  0.2186  0.2364
28235W        W71148  24.245  29.023   5.675 -0.0312  0.0095 -0.3027
28236W        W71149  12.647  24.022  22.667  0.2635  0.0296 -0.0349
28237W        W71150  18.432  19.403   0.017 -0.0304 -0.0017 -0.0410
28238W        W71151  11.924  28.441   3.069 -0.1495 -0.0155  0.0330
28239W        W71152  20.260  21.858  25.771  0.3927 -0.1235 -0.0450
28240W        W71153  29.877   0.696   9.601 -0.1351  0.1095  0.1177
28241W        W71154  28.194  30.773  26.502  0.2574 -0.0367 -0.2373
28242W        W71155   4.125   3.726   6.063 -0.1364  0.0754 -0.1430
28243W        W71156  33.411   2.849  10.178 -0.1639 -0.0249 -0.1742
28244W        W71157  22.852  27.540  19.404  0.2723 -0.1229 -0.2736
28245W        W71158  10.149  23.440   7.223  0.0181  0.1892  0.3001
28246W        W71159  22.266   2.160   8.240  0.2088 -0.0437 -0.2473
28247W        W71160  30.323  26.456  28.986 -0.2692  0.1143  0.0521
28248W        W71161  28.635  32.970   3.704  0.1645  0.1313  0.0887
28249W        W71162  32.669  32.290   6.470  0.1905  0.0364 -0.3045
28250W        W71163  12.629  29.872  10.752  0.1459  0.1024  0.0469
28251W        W71164  22.142   3.266   1.457  0.0099 -0.6260  0.1021
28252W        W71165   5.960  26.496   8.754 -0.2236 -0.0248  0.2260
28253W        W71166  21.155  23.142   1.292  0.4122 -0.4308  0.3191
28254W        W71167  28.359  23.476  17.371 -0.2360 -0.1158  0.1158
28255W        W71168  20.886  17.918  26.615 -0.3581 -0.0683 -0.1129
28256W        W71169  14.311   0.273   4.292 -0.0903 -0.0525 -0.0461
28257W        W71170  33.884  30.172   2.289 -0.0359  0.0061 -0.1013
28258W        W71171  27.290  28.952   5.079  0.1274 -0.1823 -0.2198
28259W        W71172  20.810   1.829   1.796  0.1035  0.1971 -0.1057
28260W        W71173   5.082  26.737  29.251 -0.0438 -0.3233  0.1727
28261W        W71174   2.290   5.390   8.130  0.2658  0.0859  0.0068
28262W        W71175  16.015   1.258   8.828  0.2048 -0.4304  0.0910
28263W        W71176  29.381  29.202   2.569 -0.4351  0.0173  0.1589
28264W        W71177  29.216   0.996   8.942  0.0485 -0.1394 -0.0980
28265W        W71178  33.910   3.412   6.843 -0.1359 -0.1251 -0.4422
28266W        W71179  23.070   3.560   2.194 -0.2147  0.0415  0.3893
28267W        W71180  21.631  25.116   7.932  0.0786 -0.0007 -0.0553
28268W        W71181  28.073  32.545  18.796  0.0811  0.1715 -0.0713
28269W        W71182  18.454  30.233  20.509  0.0974  0.0210  0.1892
28270W        W71183  17.434  33.921   0.560  0.1535  0.3531  0.1933
28271W        W71184  25.906   5.679  18.420  0.0667 -0.1551  0.0610
28272W        W71185  21.063   0.280   5.464 -0.1116 -0.2431 -0.1127
28273W        W71186  25.421  25.585   7.737  0.2574  0.2646 -0.0638
28274W        W71187  20.225  26.351   1.175  0.1975  0.2428 -0.0700
28275W        W71188  20.436  32.459   5.661 -0.1928  0.1568 -0.0163
28276W        W71189  22.472  33.061   8.996 -0.0068  0.0166  0.3128
28277W        W71190  21.290   0.017   7.031  0.0521  0.0589 -0.0838
28278W        W71191  12.661  25.657  29.136  0.0821  0.1533 -0.1772
28279W        W71192  23.080  33.194   6.019 -0.2097  0.2073  0.0142
28280W        W71193  30.922  27.034   1.615  0.2095  0.1125 -0.1605
28281W        W71194  12.437   6.036   6.305 -0.0008 -0.3750 -0.0537
28282W        W71195  17.705   5.163   1.179  0.1791 -0.1410 -0.2240
28283W        W71196  18.248   2.551   4.716  0.2469 -0.1298  0.0516
28284W        W71197  25.167  10.868   3.584 -0.0508 -0.0077  0.0816
28285W        W71198  16.720  10.721   4.696 -0.0383  0.0220 -0.1885
28286W        W71199  23.239  26.480   1.828  0.0766  0.0333 -0.0120
28287W        W71200  34.139   8.150   5.024 -0.0592  0.1711  0.1093
28288W        W71201  24.321  20.679   7.782  0.0018  0.3173 -0.2907
28289W        W71202  18.648  27.244  22.255 -0.1712  0.0526 -0.1652
28290W        W71203   0.796   5.853   3.186  0.0248 -0.0827 -0.1947
28291W        W71204  26.076  30.588  24.550 -0.0753 -0.1967 -0.2715
28292W        W71205  31.537   7.748   9.089  0.1186  0.1132  0.1567
28293W        W71206  20.539  27.452  27.210 -0.2993 -0.2025  0.0917
28294W        W71207  19.427  29.182  18.904  0.3027  0.0346  0.3137
28295W        W71208  29.988  31.022   5.216 -0.0641 -0.3171 -0.0718
28296W        W71209  27.400   0.584   9.415 -0.0289 -0.4492 -0.0079
28297W        W71210  28.573  29.836   2.057 -0.3914  0.1218 -0.1074
28298W        W71211  24.066  26.858   8.150  0.2129  0.2257  0.1273
28299W        W71212  19.246  22.587   0.987 -0.3174 -0.1845 -0.3392
28300W        W71213  22.869  23.442  22.519  0.0883 -0.3652  0.0348
28301W        W71214  17.121  26.693   5.388 -0.0815  0.1432  0.1660
28302W        W71215  11.961   3.826   2.380  0.3109  0.2285  0.3951
28303W        W71216  23.999  23.181  26.514 -0.0683  0.3045 -0.1930
28304W        W71217  19.453  26.974   9.457 -0.2105 -0.1201  0.0304
28305W        W71218  25.189  23.769   5.099 -0.0795 -0.0963 -0.2767
28306W        W71219  14.791  29.817   4.275 -0.0578  0.3997  0.0336
28307W        W71220  21.352  23.450   4.157 -0.1251 -0.1496 -0.0662
28308W        W71221  30.546  11.891   5.213 -0.0544  0.1822  0.2102
28309W        W71222  20.113  26.585  28.378 -0.0103 -0.2171 -0.3509
28310W        W71223  29.920  21.513   4.558 -0.1653 -0.1260 -0.3939
28311W        W71224  21.550  20.534   6.328 -0.1069  0.2733 -0.2279
28312W        W71225  26.068  23.366  29.283 -0.0490 -0.0715 -0.0150
28313W        W71226  23.923  24.828   0.998 -0.3811 -0.0073 -0.0467
28314W        W71227  22.704   1.393  29.762 -0.3324  0.2997  0.1509
28315W        W71228  20.926  24.073   1.251 -0.0968  0.2727 -0.1088
28316W        W71229  18.449  23.921   2.712  0.0746 -0.0640 -0.0207
28317W        W71230  22.722  13.346  24.130 -0.0540 -0.1456  0.0897
28318W        W71231  30.287  33.305  25.021  0.2043  0.0876  0.1138
28319W        W71232  16.793   5.527  22.347  0.1788  0.2733 -0.0368
28320W        W71233  29.066  29.545   1.533  0.2238  0.1888  0.0080
28321W        W71234  31.066   4.461   2.548  0.2508 -0.2378  0.0005
28322W        W71235  19.052   4.527   4.608 -0.3358 -0.0144  0.2160
28323W        W71236  22.560  30.431  26.762  0.1484 -0.0311  0.0951
28324W        W71237  23.215   6.847   8.468 -0.0548 -0.0586  0.0119
28325W        W71238  20.741  30.763   7.615 -0.1237  0.2735 -0.0539
28326W        W71239  18.971   2.466   8.573 -0.2138  0.4129 -0.2815
28327W        W71240   0.141   0.476  29.743 -0.1777  0.4406 -0.1249
28328W        W71241  22.493  26.199   7.567  0.0794  0.3127 -0.0308
28329W        W71242  25.652  30.989   1.298  0.2516  0.0294 -0.0001
28330W        W71243  24.570  24.216  29.260  0.0527 -0.1434 -0.3865
28331W        W71244  33.443  30.285   4.414  0.0666  0.1655 -0.0360
28332W        W71245   8.504  25.788   9.523 -0.1482  0.0992 -0.1714
28333W        W71246  15.184   8.370   0.866 -0.2214 -0.0406 -0.0119
28334W        W71247   2.068  22.219  23.268 -0.0656  0.1976 -0.0106
28335W        W71248  27.113  33.677  25.258 -0.0526  0.1752  0.1952
28336W        W71249  30.043  30.467  29.622 -0.1534 -0.0897  0.0447
28337W        W71250  24.092   3.395   2.128 -0.3431  0.1149  0.4045
28338W        W71251  28.609   1.891   7.554 -0.1333  0.0225  0.0241
28339W        W71252  33.249   7.762   8.204  0.0256  0.1365 -0.2595
28340W        W71253  31.122   0.050  25.908 -0.1570  0.0763 -0.2395
28341W        W71254   1.118   0.027   2.802  0.0206  0.1899 -0.1288
28342W        W71255  24.261  25.866   6.082  0.1324 -0.0792 -0.0360
28343W        W71256  34.334  10.032   5.782 -0.1490 -0.1507 -0.0483
28344W        W71257  27.401  30.967   8.066 -0.0675 -0.2569 -0.1123
28345W        W71258  27.126  22.417   8.421 -0.0857 -0.0274 -0.0789
28346W        W71259   0.104  24.788  27.434 -0.3583  0.1740 -0.2152
28347W        W71260  23.577  20.980  22.482  0.0954 -0.0189 -0.4498
28348W        W71261  22.766   7.707  16.848  0.0303 -0.2514  0.0153
28349W        W71262  18.368  20.114  23.111 -0.3146 -0.0927  0.1733
28350W        W71263  18.162  34.162   8.511 -0.0517  0.1658  0.2762
28351W        W71264  28.698  22.657   1.596 -0.0739 -0.1736  0.0108
28352W        W71265   0.165   7.900   6.883 -0.1405  0.0298  0.3351
28353W        W71266  17.559  31.443   5.305 -0.1902  0.3437 -0.1129
28354W        W71267  23.682  22.631  26.641 -0.3170 -0.4682  0.1918
28355W        W71268  23.101  14.581   0.560  0.4051  0.0535 -0.0695
28356W        W71269  16.171  23.976   1.291  0.0689 -0.2834  0.2836
28357W        W71270  17.935  17.486  22.800 -0.0159  0.0645 -0.2664
28358W        W71271  25.129  21.986  28.330 -0.1193  0.0839  0.0720
28359W        W71272  26.256  31.203   0.433 -0.3348 -0.0520 -0.0837
28360W        W71273  28.310  26.601   7.189  0.0843  0.1852  0.0921
28361W        W71274   6.184  24.603   6.275 -0.0338 -0.2317 -0.1985
28362W        W71275  16.842  24.560  29.230 -0.4637  0.0918  0.0453
28363W        W71276  23.532  27.035   3.879  0.2136 -0.2874  0.3508
28364W        W71277  15.651  32.690   0.006  0.1592  0.2873 -0.1951
28365W        W71278  18.238  18.943   6.381 -0.0678  0.0034 -0.1108
28366W        W71279  28.621  14.953   3.588 -0.3742  0.0831  0.3384
28367W        W71280  18.740  33.308   2.644 -0.0596 -0.3067 -0.0497
28368W        W71281  24.911   0.496   1.832 -0.2449 -0.0004 -0.0360
28369W        W71282  25.709   3.459   0.985 -0.0366 -0.1138 -0.1365
28370W        W71283  25.683  33.685   3.414 -0.1497  0.0037  0.0942
28371W        W71284  13.349   7.371  10.482  0.1532 -0.0452  0.0806
28372W        W71285   0.231  26.508  27.117 -0.0853 -0.3681  0.0755
28373W        W71286  29.661  20.791  28.330  0.0587 -0.0407  0.0425
28374W        W71287  13.919  30.106  22.791  0.0956 -0.0827 -0.0564
28375W        W71288  28.377  32.323  25.657  0.0791  0.0320 -0.1459
28376W        W71289  29.181  33.378   8.769  0.2658 -0.1647  0.1969
28377W        W71290  12.437  26.396   1.184 -0.1593 -0.2508 -0.2789
28378W        W71291  24.644  28.685   5.739 -0.0632 -0.0176  0.1543
28379W        W71292  19.925  30.616  29.560 -0.2733 -0.1746 -0.1714
28380W        W71293  17.118  21.783  22.412 -0.1811  0.0305  0.2001
28381W        W71294  18.524  28.585  19.305 -0.3035  0.0786  0.0689
28382W        W71295  14.769   1.813   7.695 -0.0224 -0.1937  0.0161
28383W        W71296  28.938  26.849   8.594  0.0095  0.1946  0.2012
28384W        W71297  15.118   0.671   6.743  0.0797  0.1170  0.0664
28385W        W71298  26.653  11.193   2.250 -0.1453 -0.2278 -0.0592
28386W        W71299  28.093   0.805   5.634 -0.0508  0.2428  0.1822
28387W        W71300  31.471  34.381   1.809  0.1179  0.1798  0.0703
28388W        W71301  11.917  34.470   0.676  0.2126  0.1017 -0.0734
28389W        W71302  19.886  23.175  25.979  0.2394 -0.1409  0.1848
28390W        W71303  21.649   2.529  18.432 -0.0647 -0.1145  0.1313
28391W        W71304  16.004   3.684   6.346 -0.1175 -0.2411 -0.0338
28392W        W71305  25.251  33.547   3.857  0.1820 -0.0138  0.0138
28393W        W71306  21.297  29.762   0.875 -0.0542  0.0274  0.5234
28394W        W71307  21.098  21.503   4.790 -0.2706  0.0695  0.1683
28395W        W71308  24.792   8.817  27.927  0.1025 -0.0618 -0.1749
28396W        W71309   7.933   1.289  27.003  0.1979  0.1068  0.0164
28397W        W71310  28.728  27.437  29.472 -0.2928  0.0239  0.0260
28398W        W71311  27.231  28.133   4.857 -0.2205  0.0314 -0.1770
28399W        W71312   0.110   9.107   6.199  0.2251  0.2386 -0.1609
28400W        W71313  18.452   3.571   6.359  0.4873  0.1133  0.2036
28401W        W71314  33.445  14.383   6.084 -0.2167 -0.0170 -0.2896
28402W        W71315  28.779  25.319   1.932  0.0546 -0.1208 -0.0518
28403W        W71316  28.002  23.241   7.036 -0.1593  0.0994  0.3069
28404W        W71317  32.100   5.176  28.570  0.0047 -0.0134  0.1166
28405W        W71318  29.619   8.021   9.996 -0.1592 -0.1221 -0.0960
28406W        W71319  16.913  21.541  25.887 -0.3839 -0.2449  0.1202
28407W        W71320  29.282   8.942   8.358 -0.5267 -0.1996 -0.1120
28408W        W71321  29.227  34.361   8.107  0.0147  0.4045 -0.1458
28409W        W71322  30.718   1.052   6.640 -0.0608 -0.0068 -0.3017
28410W        W71323  21.394  28.507  23.377  0.3848 -0.2134  0.1016
28411W        W71324  28.679  30.488   3.749  0.0238  0.1609 -0.0722
28412W        W71325  29.509   6.043   5.563 -0.2789 -0.0734  0.2742
28413W        W71326  13.929  29.584  10.156  0.0828 -0.0249 -0.1434
28414W        W71327  31.887  25.495   6.730 -0.0918  0.1980  0.0116
28415W        W71328  26.614  24.980   8.420 -0.1382 -0.1337  0.2464
28416W        W71329  30.151  33.646  21.156 -0.0430 -0.3373 -0.2953
28417W        W71330  24.279  31.517  23.613  0.0168 -0.1014 -0.1461
28418W        W71331  26.089  34.248  10.281 -0.1947  0.2343  0.1076
28419W        W71332   5.711   7.509   8.713 -0.3025 -0.0455 -0.3350
28420W        W71333  15.078   1.390   0.326 -0.0022 -0.1997 -0.2250
28421W        W71334  19.126  25.716   3.473 -0.0305 -0.1168  0.0955
28422W        W71335  21.205  32.788   7.753  0.4649 -0.0621  0.1254
28423W        W71336  19.203  34.211   4.871 -0.3597 -0.3861  0.0673
28424W        W71337  29.201  33.867   9.549 -0.3938  0.3415  0.1963
28425W        W71338   7.755  33.208  26.091 -0.1772  0.0037 -0.4161
28426W        W71339  31.451  30.531   9.368 -0.2444  0.0430  0.2978
28427W        W71340  26.736  31.451   9.203 -0.0246  0.2439  0.0144
28428W        W71341  29.046  27.654   4.394  0.1541 -0.0335 -0.3199
28429W        W71342  17.314   3.822   0.777  0.0814  0.2721  0.0649
28430W        W71343  26.291   7.779   1.204  0.0095  0.1859  0.2594
28431W        W71344  16.212  29.444   6.480 -0.0542 -0.0022  0.0674
28432W        W71345  21.779  29.923   5.406 -0.0881 -0.1115  0.3519
28433W        W71346  28.700  27.345   6.738  0.1410  0.2446 -0.0102
28434W        W71347  22.947   6.319   6.837 -0.1313 -0.2394  0.0132
28435W        W71348  13.353  30.349  25.366 -0.0032 -0.1026 -0.1581
28436W        W71349  20.705  20.153   4.816  0.1810 -0.0273 -0.1624
28437W        W71350  21.995   4.707   9.260  0.1133  0.0692  0.1331
28438W        W71351  33.814   5.921   9.428 -0.0140 -0.1750  0.0446
28439W        W71352  16.537  33.007   6.666 -0.1709 -0.2787  0.1333
28440W        W71353  19.333  33.620   1.215 -0.0587  0.0423 -0.1638
28441W        W71354  17.707  23.590  20.065 -0.1483  0.0585  0.1217
28442W        W71355  31.451  27.038   0.663 -0.0316 -0.0938  0.0040
28443W        W71356  18.331   6.570  28.517 -0.2298 -0.0513 -0.2476
28444W        W71357  23.320  27.753   5.115 -0.3742 -0.2128  0.0767
28445W        W71358  30.431  34.219   6.888 -0.0708 -0.4506 -0.0579
28446W        W71359  24.749   6.109   4.608 -0.0069 -0.1401  0.2974
28447W        W71360  22.829   2.745   3.645  0.1726 -0.1291  0.0707
28448W        W71361  26.703   2.927   6.583 -0.1018  0.0008 -0.3801
28449W        W71362   2.768  22.816  25.168  0.1285  0.3247 -0.1455
28450W        W71363  27.695  24.786  26.380  0.2960  0.0980 -0.1572
28451W        W71364  16.520  30.544  11.035 -0.2115  0.1131  0.2442
28452W        W71365  18.569  30.824   5.596 -0.2571 -0.0434 -0.4050
28453W        W71366  19.699   7.898   9.609 -0.0199  0.1712 -0.0578
28454W        W71367  24.975   6.955  16.832  0.1849  0.1546  0.1764
28455W        W71368  27.463  29.180   5.584  0.1494 -0.1672  0.3526
28456W        W71369  27.349  33.313   8.666 -0.3183  0.0373  0.1442
28457W        W71370  16.934  23.559  29.570  0.0936 -0.1765  0.0621
28458W        W71371   4.122   1.537   6.793 -0.1710  0.3068 -0.4169
28459W        W71372  18.032   4.510   6.353  0.2144 -0.1105 -0.0890
28460W        W71373  31.733   0.170   0.857  0.0966  0.0047 -0.0316
28461W        W71374  27.627  29.989   8.293 -0.0238 -0.0093  0.2752
28462W        W71375  27.987  28.241  27.469  0.1057  0.1598 -0.2234
28463W        W71376   2.637  29.359   5.925  0.1036 -0.1714  0.2277
28464W        W71377  24.767   2.515   7.557 -0.1383 -0.2056  0.2271
28465W        W71378  26.619  31.260   8.777  0.1944 -0.1362  0.2486
28466W        W71379  26.488  33.114   4.544 -0.1180  0.1333 -0.0652
28467W        W71380  22.822   0.010   5.322 -0.1397 -0.1895  0.0792
28468W        W71381  20.430  26.288   7.736  0.0780 -0.2478  0.0677
28469W        W71382  27.940  29.999   6.930 -0.1874  0.0242 -0.3909
28470W        W71383  16.900  25.037   6.975  0.0996  0.0412  0.0676
28471W        W71384  23.076  25.665   0.595  0.0943 -0.1411 -0.0408
28472W        W71385   0.802   6.297   4.170  0.3273  0.2701  0.2542
28473W        W71386  29.340   1.434   2.372 -0.0289  0.0668 -0.2951
28474W        W71387  29.279  33.287   1.811 -0.1448 -0.0500 -0.1507
28475W        W71388   8.187   1.822   1.438  0.2729  0.0900 -0.0712
28476W        W71389  13.970  31.952  21.573 -0.2282  0.2177  0.2623
28477W        W71390  20.820   0.700   5.644  0.0437  0.1878  0.1562
28478W        W71391  26.838  16.374   3.250 -0.0642 -0.1943 -0.1558
28479W        W71392  23.797   2.217   7.089  0.0185 -0.1111 -0.1425
28480W        W71393  28.240  32.130   8.176 -0.0404 -0.2782  0.3056
28481W        W71394  23.247  23.113   4.132 -0.4412  0.0025 -0.2515
28482W        W71395  18.325  17.493   1.633  0.1326 -0.0739  0.2582
28483W        W71396  18.108   9.634   0.344 -0.1060  0.1607  0.3150
28484W        W71397  28.386  32.508   3.156 -0.1125 -0.0048 -0.1582
28485W        W71398  18.634   1.631  10.906  0.0073  0.0108  0.0412
28486W        W71399  30.109  23.970  18.374 -0.2969  0.0934  0.2788
28487W        W71400  24.791  33.266   1.652  0.1990  0.0264  0.3282
28488W        W71401  10.140   2.867   9.888  0.0682  0.1261  0.0099
28489W        W71402  17.951  26.611   6.078  0.1181 -0.0552 -0.3822
28490W        W71403  13.064   2.859  10.559  0.2710  0.3812 -0.0468
28491W        W71404  17.392  11.302  27.614 -0.0737 -0.1590  0.1233
28492W        W71405  24.647   3.144   6.717 -0.0933 -0.3949 -0.1325
28493W        W71406  26.826  31.722  27.945  0.2065 -0.0838  0.1989
28494W        W71407  30.980   0.479   0.150  0.0862 -0.4138 -0.1084
28495W        W71408  27.849  24.898   2.767  0.2435  0.0910  0.0511
28496W        W71409  23.262  28.928   8.195  0.2738  0.1513 -0.2034
28497W        W71410  15.880  25.481  29.633 -0.1054 -0.2430  0.0377
28498W        W71411  18.277  30.789  28.409  0.1363  0.0745 -0.1196
28499W        W71412  23.065  17.092   5.119 -0.1885  0.0245 -0.1157
28500W        W71413   8.840   2.612   8.509  0.0833  0.1718 -0.2009
28501W        W71414  13.130   4.559   6.144  0.3049  0.0547 -0.1262
28502W        W71415  30.633   0.069   3.364  0.0495  0.3298 -0.1901
28503W        W71416  29.418  33.036   6.173 -0.1115 -0.1436  0.0193
28504W        W71417  25.576   2.972  24.799 -0.1074  0.3159 -0.0778
28505W        W71418  30.211   5.091  10.332  0.3574 -0.2190 -0.0346
28506W        W71419  25.966   3.296   6.952 -0.1910  0.1284  0.0297
28507W        W71420  25.178  26.470  19.833  0.2905  0.2237  0.0144
28508W        W71421  23.091  32.082  25.453  0.0942  0.0960  0.1830
28509W        W71422  24.031  33.781   7.470  0.0168  0.1209  0.1620
28510W        W71423  12.649  28.837  29.142 -0.0354  0.0807 -0.0715
28511W        W71424  24.120   5.828   5.846  0.0180  0.1865  0.1706
28512W        W71425  18.403  25.762   5.379  0.0463 -0.0226 -0.0971
28513W        W71426  32.683   2.287   4.123 -0.2145  0.1044 -0.0077
28514W        W71427  21.656  32.455   4.014 -0.1103 -0.1894 -0.0288
28515W        W71428  16.486   1.237   9.211  0.1098 -0.1784  0.0634
28516W        W71429  25.721  31.602   7.533 -0.0874 -0.1496 -0.0673
28517W        W71430  30.887  23.921   9.403  0.2274  0.2490 -0.1491
28518W        W71431  16.616  17.401   1.056 -0.1986 -0.0767  0.1185
28519W        W71432  27.163  29.419   5.131 -0.0694 -0.1437 -0.0361
28520W        W71433  24.286  30.909   7.100  0.2187  0.2795 -0.2887
28521W        W71434  17.698  33.920   4.796 -0.2492  0.1000 -0.2524
28522W        W71435  26.088   4.485   6.274  0.1635  0.2948 -0.1105
28523W        W71436  18.443  30.234   4.377 -0.2883 -0.2443 -0.1235
28524W        W71437  28.996  31.072   4.997  0.3038  0.1008 -0.1980
28525W        W71438  14.462   0.288   9.561 -0.0267  0.0649 -0.0516
28526W        W71439  23.430   1.302   2.454 -0.1791 -0.0582 -0.3351
28527W        W71440  28.392  31.319   9.825  0.1184  0.2921 -0.0876
28528W        W71441  21.499   2.077   8.868  0.1233  0.0942  0.1555
28529W        W71442  33.317  27.046   3.984  0.0207 -0.1910  0.3933
28530W        W71443  28.220  31.443   6.955  0.1768 -0.1529 -0.1136
28531W        W71444  19.872   0.714   0.307  0.2272  0.2696  0.6120
28532W        W71445  19.883  24.897  28.608  0.1006  0.0882 -0.1376
28533W        W71446  27.082  24.801   1.034  0.0970 -0.2891 -0.2250
28534W        W71447  20.499  26.499  27.394  0.0921  0.3592 -0.1252
28535W        W71448  30.008   5.353   4.001  0.0852  0.1718  0.2706
28536W        W71449  31.037  27.190   5.840  0.1291  0.2332 -0.0655
28537W        W71450  29.223  32.873   9.621  0.1880 -0.2458  0.1346
28538W        W71451  21.476  34.482   5.399 -0.1392  0.1559 -0.0363
28539W        W71452  29.145  20.314   3.668  0.0338  0.2080 -0.0906
28540W        W71453  11.381  33.780   2.622 -0.3654 -0.1337  0.0318
28541W        W71454  13.865   0.297   9.234 -0.0626  0.1815  0.2719
28542W        W71455   1.938  32.035   6.190  0.0081 -0.1703 -0.2732
28543W        W71456  19.723   2.937   3.322 -0.0887  0.0265 -0.3296
28544W        W71457  27.715   2.158   8.218 -0.2691 -0.2288 -0.3658
28545W        W71458  20.230   3.335   1.470 -0.0778 -0.0304 -0.3264
28546W        W71459  23.731  19.950   8.089  0.2274  0.0661 -0.0424
28547W        W71460  31.553   8.660   5.379  0.0138  0.3676  0.0958
28548W        W71461  19.911  19.813  28.424  0.1810  0.4226 -0.2086
28549W        W71462  30.845   3.063   5.379  0.2760 -0.0368  0.1006
28550W        W71463  29.077   8.102   5.737  0.1211 -0.0312  0.0681
28551W        W71464  24.370  25.576   4.583  0.0305 -0.0625  0.0729
28552W        W71465  20.292  33.177   9.222  0.1818  0.0439 -0.1267
28553W        W71466  26.042  10.929  10.492  0.1292 -0.0206  0.2701
28554W        W71467  23.043  30.702   8.906  0.1068  0.3214 -0.0835
28555W        W71468  33.447  30.913   4.132  0.2190 -0.2017 -0.1786
28556W        W71469   9.376  29.254   8.711 -0.1288 -0.1816  0.4673
28557W        W71470  26.541  25.562  28.241 -0.3602  0.0325  0.4410
28558W        W71471   0.815   2.573  10.761 -0.0904  0.3961 -0.2727
28559W        W71472  19.494  28.939   3.373  0.0736  0.2848  0.0003
28560W        W71473  21.880   2.725   3.507  0.1953  0.1410  0.1799
28561W        W71474  21.450  19.215  26.932  0.0609 -0.0176  0.0340
28562W        W71475  14.440  30.583   8.367  0.1498 -0.0594  0.2746
28563W        W71476  28.877   0.736  23.904 -0.0289 -0.4168  0.1401
28564W        W71477  11.121  26.430   1.257  0.3917 -0.2004 -0.2868
28565W        W71478  23.800  28.862   3.810 -0.0489 -0.3112  0.3010
28566W        W71479  25.959  22.438  25.382 -0.0867  0.0899  0.0316
28567W        W71480  20.838  26.008  29.201 -0.1951  0.1359 -0.1019
28568W        W71481  26.496   2.401   9.141  0.4154 -0.0568 -0.0740
28569W        W71482  21.148  20.682  20.478  0.1275 -0.1267 -0.2011
28570W        W71483  15.696  28.691   7.581  0.2023  0.0684  0.0261
28571W        W71484  25.891  31.090   8.325  0.0393 -0.0326 -0.0032
28572W        W71485  20.843   2.858   5.965  0.0412 -0.0774  0.1770
28573W        W71486  11.872  24.010  28.974  0.2702  0.0728 -0.0780
28574W        W71487   0.169   5.426   4.108 -0.0079  0.4217 -0.0534
28575W        W71488  13.942   2.192   9.650 -0.0072  0.3915  0.1713
28576W        W71489  26.063  10.914   0.910 -0.0417 -0.3885 -0.0240
28577W        W71490  27.425  19.186   3.684  0.0118 -0.0046  0.1901
28578W        W71491  26.684  31.022  25.628 -0.0474  0.1371 -0.4171
28579W        W71492  22.707  30.733   5.682 -0.2069 -0.1102  0.0050
28580W        W71493  17.624   6.829   9.542 -0.0972 -0.2724 -0.1349
28581W        W71494  28.788  29.917   4.761 -0.1688 -0.2840 -0.3302
28582W        W71495  26.654   4.653   0.846  0.0641 -0.2079  0.0671
28583W        W71496  25.737  32.328   0.940  0.2499  0.1462  0.0687
28584W        W71497  17.784   9.037   2.060 -0.1441  0.1844 -0.0084
28585W        W71498  23.663  29.234   2.233  0.0364 -0.1520  0.1200
28586W        W71499  22.884  30.787  29.269 -0.2062  0.1423  0.1722
28587W        W71500  28.510  26.979   5.817 -0.0102  0.0815 -0.3007
28588W        W71501   0.640  24.988   3.341  0.2035  0.2165  0.1657
28589W        W71502   8.328  29.743   8.105  0.0005 -0.0971  0.0542
28590W        W71503  32.325  33.274  10.424 -0.1282  0.0295 -0.0275
28591W        W71504  29.788  32.496  27.410 -0.2119  0.1582  0.0655
28592W        W71505  27.409   3.764   7.721 -0.0879 -0.0148  0.5259
28593W        W71506   2.089   0.297   0.411  0.3499 -0.1950  0.0308
28594W        W71507  29.383   9.047   0.488 -0.3743 -0.3839 -0.2569
28595W        W71508  15.884  31.997   2.222  0.0519 -0.0494 -0.2480
28596W        W71509  24.319   1.366   6.024  0.0699  0.2547  0.1214
28597W        W71510  23.413  29.954   8.182  0.0077 -0.1589 -0.0805
28598W        W71511  26.373  28.665   6.481  0.0129 -0.2402 -0.0449
28599W        W71512  18.459  32.638  10.092 -0.0438 -0.1533  0.1007
28600W        W71513  27.420   3.083   4.976  0.1396 -0.1366 -0.1681
28601W        W71514   1.198  33.846   1.906 -0.2186  0.1685  0.2344
28602W        W71515  23.365   8.637   4.725 -0.1983 -0.1018 -0.1631
28603W        W71516  18.631   0.098  29.691 -0.3903  0.0579  0.0308
28604W        W71517  18.566   4.702   4.558  0.0223  0.1467 -0.3289
28605W        W71518   0.241  25.984   3.298 -0.0118 -0.1874  0.3157
28606W        W71519  22.618  26.265  29.372  0.0416 -0.0781  0.0101
28607W        W71520  22.065  26.193   7.768  0.1651  0.3651  0.2856
28608W        W71521  19.312  27.813   9.621 -0.2653  0.0849 -0.2031
28609W        W71522  21.011  28.345   3.583 -0.0502 -0.5510  0.0430
28610W        W71523  13.258  25.606  26.099 -0.0746  0.1536  0.1443
28611W        W71524  26.898  34.376   3.904 -0.1659 -0.1350 -0.2339
28612W        W71525  25.077   5.730  28.747  0.1619 -0.1763 -0.1083
28613W        W71526  18.263  20.468   5.857 -0.2460 -0.0638 -0.1176
28614W        W71527  28.679  32.678   1.436  0.1319 -0.4082  0.2288
28615W        W71528  31.649  10.018   2.855 -0.2693 -0.0256  0.0410
28616W        W71529  31.317  26.393  26.891 -0.0047  0.2246 -0.0523
28617W        W71530  18.405  27.226   2.634 -0.2358 -0.1504 -0.0171
28618W        W71531  26.731  24.502   4.603 -0.1172 -0.2670 -0.0738
28619W        W71532   0.864  23.135   1.233 -0.0598 -0.0991  0.2351
28620W        W71533  20.848   0.071   4.965  0.3144  0.2021  0.4673
28621W        W71534   9.986   8.642   2.498 -0.4016 -0.0720  0.3297
28622W        W71535  33.861  33.338   8.072  0.1178  0.0623  0.0637
28623W        W71536  28.652  26.775   6.853 -0.0043 -0.0781  0.2168
28624W        W71537  31.298  27.089   7.483 -0.0465  0.1081 -0.1907
28625W        W71538  33.502  22.910   3.754 -0.3128 -0.0206 -0.2589
28626W        W71539  30.359  28.355   9.071 -0.1889  0.1129 -0.0351
28627W        W71540   7.780   1.564   4.244 -0.0671 -0.1349 -0.0324
28628W        W71541  21.660   3.474   8.195 -0.0071  0.1621 -0.1007
28629W        W71542  32.650  20.104  28.819 -0.1913 -0.4639 -0.0065
28630W        W71543  33.771  32.541   6.623  0.0772  0.1426  0.0805
28631W        W71544  31.875  26.370   5.482  0.0834  0.0149  0.1376
28632W        W71545  20.829  18.822  27.382 -0.3297  0.2441 -0.0301
28633W        W71546  19.754  25.314   7.849 -0.1652  0.1661  0.1641
28634W        W71547  18.204  28.520  22.122 -0.0366 -0.0875 -0.2747
28635W        W71548  32.786  32.604   5.124 -0.0837  0.1604  0.0231
28636W        W71549  30.731   1.441   9.496  0.0281  0.0674 -0.1218
28637W        W71550  26.630  32.149   7.805 -0.0103  0.0857  0.3088
28638W        W71551  24.794  31.237   4.700  0.0226 -0.1904  0.0614
28639W        W71552  11.865  30.377   7.507 -0.0847  0.1099 -0.0485
28640W        W71553  17.127  31.454  11.120  0.0793  0.2003  0.1266
28641W        W71554  16.760  27.342   6.266 -0.1025 -0.5231  0.0716
28642W        W71555  15.917  27.842  28.185  0.1618 -0.4941 -0.1390
28643W        W71556  24.631  24.870   5.440 -0.4080 -0.2364 -0.3181
28644W        W71557  23.368   1.811   4.631  0.0574  0.3702 -0.0582
28645W        W71558  18.944  28.274   6.780 -0.0865  0.1404 -0.2371
28646W        W71559  14.044  19.264  26.495  0.2504  0.0083  0.1834
28647W        W71560  31.438  24.067  24.629 -0.1388 -0.2041  0.1713
28648W        W71561  24.947  33.421  28.145  0.1848  0.2862 -0.1512
28649W        W71562  34.239   3.739   3.427 -0.0049 -0.3317 -0.1862
28650W        W71563  22.000  26.759  15.853 -0.1422  0.1332 -0.0843
28651W        W71564  29.173  25.334   4.677 -0.2704  0.0398 -0.1514
28652W        W71565  33.814   2.561  26.606  0.4951 -0.1364  0.1686
28653W        W71566  26.533  22.995   3.835  0.3285  0.1674 -0.0616
28654W        W71567  16.878  27.940   0.174  0.3243 -0.2361  0.2046
28655W        W71568  11.423  30.107  10.775  0.3253  0.4982 -0.1851
28656W        W71569  33.774  23.816   8.897  0.1206  0.3409  0.0027
28657W        W71570  28.006  34.127   9.953 -0.2691  0.3331 -0.0114
28658W        W71571  22.187  26.295  22.544  0.1247  0.2399 -0.0758
28659W        W71572  23.326  30.835  28.943 -0.0637  0.3878 -0.0131
28660W        W71573  20.423  29.151  29.699 -0.0982 -0.4728 -0.0723
28661W        W71574  24.422  26.252  24.827  0.3236 -0.0753  0.2453
28662W        W71575  20.470  28.852   6.350  0.2057 -0.1093 -0.1395
28663W        W71576  24.000   4.597   1.994 -0.3290 -0.2765  0.0634
28664W        W71577  21.436  28.555   8.761 -0.0209 -0.2260  0.1365
28665W        W71578  33.430  12.931  28.596 -0.3214 -0.0039 -0.2367
28666W        W71579  27.414  28.801   2.788 -0.1784  0.2568  0.0360
28667W        W71580  30.093   6.753   7.590 -0.0290  0.0057 -0.4527
28668W        W71581  26.333  30.019   7.981  0.0099 -0.0938  0.4045
28669W        W71582  25.005  29.131   8.900  0.1828  0.2185  0.0614
28670W        W71583   3.638  30.192  28.938  0.0173 -0.1543 -0.1002
28671W        W71584  18.792   3.902   6.523  0.1578 -0.0870 -0.1331
28672W        W71585  13.404  20.607  25.823  0.0769 -0.1168  0.0065
28673W        W71586  33.725   1.524   7.137  0.0334 -0.0920 -0.0489
28674W        W71587  30.425  28.009   5.581  0.1217 -0.0595  0.1737
28675W        W71588  16.976  33.118   8.953 -0.0057  0.0265 -0.1632
28676W        W71589   0.755  33.985   1.729 -0.1916  0.0278  0.0756
28677W        W71590  19.459   0.789   3.546 -0.1834  0.0653 -0.1803
28678W        W71591  32.418  19.082   7.673 -0.0959 -0.2145 -0.1895
28679W        W71592  13.509  26.873   1.522 -0.3246  0.0960  0.0733
28680W        W71593  26.538  31.944   0.080  0.1636 -0.1665 -0.0455
28681W        W71594  20.965  23.678   0.474 -0.1236  0.1968 -0.1346
28682W        W71595   2.988   5.876   5.541 -0.0466  0.1035  0.0464
28683W        W71596  22.010  31.108  25.938 -0.2300 -0.2928  0.3484
28684W        W71597   0.280  27.940   9.772  0.1103 -0.1186 -0.1153
28685W        W71598  25.655  31.322  24.881  0.1127  0.0510 -0.0611
28686W        W71599  12.551  31.537   8.599  0.0535  0.3114 -0.0977
28687W        W71600  27.246  30.177   2.166  0.3245 -0.2593 -0.1316
28688W        W71601  28.785  32.537  10.467 -0.0543  0.0073  0.1121
28689W        W71602  24.159  24.115   8.608 -0.3439  0.2434  0.0056
28690W        W71603  16.852  22.750  28.768  0.1401  0.0497  0.1393
28691W        W71604  22.327  27.310   7.143 -0.0626 -0.2659 -0.0856
28692W        W71605  19.562  33.907   6.345  0.1220 -0.0325 -0.1309
28693W        W71606   3.010  30.677   4.509 -0.0666 -0.1639 -0.2753
28694W        W71607  29.245  24.341   2.717 -0.1347 -0.1363  0.4057
28695W        W71608  25.876  29.526   7.868  0.0834  0.1133 -0.2717
28696W        W71609  18.606  32.919   5.860 -0.1650 -0.0135 -0.3344
28697W        W71610  27.890   0.459   4.788  0.1421 -0.0581 -0.3139
28698W        W71611  30.099  30.780   3.372 -0.0270  0.0458  0.0618
28699W        W71612  30.860   2.817   4.890  0.4896  0.1543 -0.1240
28700W        W71613  34.072  25.868   1.879 -0.0275  0.1245  0.1692
28701W        W71614  31.896   6.963   1.875  0.0384  0.0046  0.0978
28702W        W71615   3.121  31.648   1.093  0.0354  0.1441 -0.0413
28703W        W71616  17.980  31.704   5.809  0.0620  0.3393  0.2971
28704W        W71617  24.205  28.218   7.108 -0.0698 -0.0915 -0.1046
28705W        W71618  16.848   6.676  29.271  0.2328 -0.0090 -0.0261
28706W        W71619  16.371  23.029  26.852  0.2065 -0.1035 -0.0124
28707W        W71620  23.850  10.981   2.934  0.0624  0.1659 -0.0163
28708W        W71621  19.253   2.549   8.146  0.2358 -0.0394 -0.0097
28709W        W71622  26.844  25.669  26.904 -0.0149 -0.2637 -0.2771
28710W        W71623   0.495   7.905   9.701 -0.3275 -0.0169 -0.0460
28711W        W71624  27.665   0.158  10.041 -0.1230  0.1830  0.2285
28712W        W71625  23.597   4.347   6.456  0.2110  0.0671 -0.2632
28713W        W71626  25.074   4.295   6.405  0.2982 -0.1428 -0.2164
28714W        W71627  24.551  27.423   2.488  0.1441  0.1363 -0.0421
28715W        W71628  22.238  14.374   5.661  0.1106  0.0204  0.1817
28716W        W71629  17.398  31.190  22.695  0.2519  0.0558  0.1841
28717W        W71630  19.948  24.631   3.604 -0.3778  0.0256 -0.1562
28718W        W71631  20.185  10.683   2.345  0.1512  0.0616  0.0670
28719W        W71632  29.457   0.797   4.548 -0.1622  0.0170 -0.1092
28720W        W71633  22.288  23.666  24.544  0.1369  0.4940 -0.1407
28721W        W71634  26.347   5.109  10.189 -0.0363  0.1171 -0.2638
28722W        W71635  15.542   2.451   3.974  0.0025  0.1076 -0.1225
28723W        W71636  24.579  27.157   7.349  0.0940  0.1456 -0.1270
28724W        W71637  17.319  29.394   2.330 -0.1249  0.1342 -0.4104
28725W        W71638  23.915   1.683   1.167  0.1061  0.0854  0.2030
28726W        W71639  23.850  28.532   7.966  0.2292  0.1388 -0.0510
28727W        W71640  21.314  28.596   7.762  0.0154 -0.1215 -0.0804
28728W        W71641  24.549   0.971   3.405 -0.1219  0.0674  0.0225
28729W        W71642  12.287   2.945   8.618 -0.1640  0.2005  0.0239
28730W        W71643  23.128  26.161   2.859  0.1690 -0.0500  0.1361
28731W        W71644  21.597  15.384   6.635 -0.0362 -0.1001  0.2717
28732W        W71645  30.698  21.239   7.491  0.1264 -0.0922  0.1829
28733W        W71646  31.560   3.999   7.506  0.1185 -0.0814 -0.4517
28734W        W71647  20.514  31.060   8.406 -0.3288 -0.1868 -0.4728
28735W        W71648  18.921  28.747   7.954  0.0391  0.1804 -0.0843
28736W        W71649  29.335  31.056   8.279  0.2034 -0.2360  0.2797
28737W        W71650  18.890  29.017   5.870 -0.1948  0.0075 -0.1126
28738W        W71651  28.297  31.426  21.977 -0.0599 -0.1097  0.1321
28739W        W71652  25.337  34.450  10.601  0.1194 -0.1018 -0.5785
28740W        W71653  30.156  10.185   7.529  0.0609 -0.4080  0.0091
28741W        W71654  27.349   5.781   4.146  0.0882 -0.0893  0.0513
28742W        W71655  27.972  29.854   1.444 -0.0620 -0.1275  0.2614
28743W        W71656  31.070  26.147   3.271 -0.1023 -0.1443 -0.2858
28744W        W71657  32.136   3.313   1.213 -0.0077  0.4895 -0.2337
28745W        W71658  31.936  33.700   0.360  0.1393 -0.1767 -0.3481
28746W        W71659  17.091   2.383   4.432 -0.0963 -0.2381  0.2112
28747W        W71660  22.548  27.454  20.747 -0.2753 -0.1080 -0.1012
28748W        W71661  25.713  24.934   3.906  0.0674 -0.1785 -0.0120
28749W        W71662  22.006  30.898   9.126 -0.1346 -0.1745  0.2165
28750W        W71663  29.120  29.654   5.045 -0.2299 -0.2192  0.1178
28751W        W71664  14.638  34.494   6.643 -0.1557 -0.1208  0.2567
28752W        W71665  17.553   3.347   4.789  0.1782  0.1142 -0.0476
28753W        W71666  21.477  13.058  29.226 -0.1415  0.1374  0.1640
28754W        W71667  28.039  21.917   2.391 -0.2774  0.0475  0.1949
28755W        W71668  31.684   9.334  10.280 -0.0962  0.1052 -0.0983
28756W        W71669  22.472   2.793   7.130  0.0862 -0.3707 -0.1118
28757W        W71670  21.823  22.893   5.922  0.1175  0.0954  0.1596
28758W        W71671  17.117  15.295   5.686  0.1575  0.3176  0.2134
28759W        W71672  22.364  28.505  28.383 -0.4385 -0.1836  0.0776
28760W        W71673  20.936  32.423   7.505  0.2459  0.1223 -0.4590
28761W        W71674  16.051  30.827  11.490  0.0619 -0.2343  0.1419
28762W        W71675  31.479  24.738   5.765  0.3099  0.0099  0.0029
28763W        W71676  24.171   1.849   3.630  0.1510  0.2614  0.1147
28764W        W71677  12.190   6.666  28.487  0.0436 -0.1324  0.0841
28765W        W71678   1.610  26.104   1.769 -0.1941  0.0772  0.1846
28766W        W71679  29.972   7.136   3.627 -0.3481  0.1282 -0.0957
28767W        W71680  33.771  29.038   5.058  0.0763  0.0533  0.0955
28768W        W71681   7.427  31.229  10.863 -0.2748 -0.3595  0.0378
28769W        W71682  23.810   2.110   7.891 -0.0919 -0.1075  0.2884
28770W        W71683  21.860  26.944   1.774 -0.1112  0.0291 -0.1155
28771W        W71684  30.248   6.591   4.837  0.1039  0.1956 -0.1204
28772W        W71685  32.091  27.134   9.033 -0.3301  0.1406 -0.1827
28773W        W71686  22.304   3.376   3.480 -0.1016 -0.0133  0.1009
28774W        W71687  17.896  32.086  26.521 -0.0861  0.0474  0.0831
28775W        W71688  27.455  29.290   7.150 -0.1334  0.1630 -0.0764
28776W        W71689  23.303  30.379   6.826 -0.2814  0.0242 -0.1717
28777W        W71690  22.666   0.543   9.056 -0.0342 -0.0479 -0.0173
28778W        W71691  34.353   4.451   5.855 -0.1426 -0.0526  0.0218
28779W        W71692  28.720  18.386   6.413 -0.1850 -0.1209  0.0216
28780W        W71693   0.239   3.613  27.389  0.0493  0.2214 -0.0707
28781W        W71694  21.300   2.106   9.331  0.2927  0.0606  0.1830
28782W        W71695  10.294  27.639  25.411  0.1223  0.0551 -0.2251
28783W        W71696  26.080  29.550   3.725 -0.1975  0.1569 -0.1252
28784W        W71697  25.175   1.759   3.990  0.0450 -0.2917  0.0506
28785W        W71698  14.065  25.161   2.067  0.2698 -0.1216  0.1498
28786W        W71699  34.290   4.889   9.331  0.2799 -0.2245 -0.2939
28787W        W71700  29.827  25.612  21.072 -0.1357 -0.0285 -0.0014
28788W        W71701  26.296  30.712   0.799  0.0161 -0.0100 -0.1384
28789W        W71702  31.263   0.767   6.492  0.2691 -0.2198  0.1713
28790W        W71703  22.797   6.025  25.117  0.1307  0.1149 -0.1081
28791W        W71704  31.707   2.155   1.062 -0.0978  0.1006 -0.0280
28792W        W71705  15.157  27.070  28.399  0.0030  0.0751  0.0930
28793W        W71706  16.837  31.124  10.213  0.1875  0.0005 -0.0444
28794W        W71707  29.650   4.358  27.305  0.0899 -0.3446  0.3780
28795W        W71708  25.829   0.852   0.824  0.1761  0.1763 -0.1850
28796W        W71709  27.585   0.483   5.276  0.2312  0.0937  0.4462
28797W        W71710  22.981   3.329   9.469  0.2074 -0.1756 -0.0102
28798W        W71711  22.688   1.912   3.447 -0.1768  0.0061 -0.1581
28799W        W71712  27.946   2.268  10.149  0.0822 -0.1120 -0.0731
28800W        W71713  31.557   3.769  26.876 -0.1305 -0.0258 -0.1904
28801W        W71714  15.809  25.238   1.325  0.0369  0.0713 -0.0144
28802W        W71715  23.288   5.593   0.810  0.1290  0.0009 -0.1049
28803W        W71716  21.867  22.353   4.256  0.0760  0.0453  0.1382
28804W        W71717  23.017   4.400   0.128  0.0775  0.0729 -0.1624
28805W        W71718  18.909  30.333   5.437  0.0263  0.0264  0.2350
28806W        W71719  24.005  30.727   7.451 -0.3721 -0.0049 -0.0668
28807W        W71720  20.797   4.877  10.028 -0.2290  0.0515 -0.0848
28808W        W71721  20.308   0.982   7.044 -0.0584  0.0376 -0.0333
28809W        W71722  22.554  28.877   5.669  0.0489 -0.0238  0.0514
28810W        W71723  26.791  28.944   6.345 -0.3029  0.1928 -0.1052
28811W        W71724  32.887  30.487   0.860  0.1073 -0.0587  0.2644
28812W        W71725  21.233  18.472   6.065  0.1245 -0.1723  0.0920
28813W        W71726  18.979  30.840   7.712 -0.0180 -0.2140  0.0723
28814W        W71727  16.048  34.217   8.794 -0.0602  0.0047 -0.0864
28815W        W71728  23.753   2.165   9.460  0.0357  0.1594 -0.2927
28816W        W71729  30.798   2.951  23.329 -0.1344 -0.0678 -0.1194
28817W        W71730  31.423   1.034  11.232  0.0963 -0.2130  0.0469
28818W        W71731  24.335  22.861   5.760  0.1375 -0.0535 -0.3612
28819W        W71732  32.202   4.642   1.643 -0.3667 -0.1109 -0.1272
28820W        W71733   9.474  28.749   8.701  0.4565 -0.0239  0.1278
28821W        W71734   2.862  28.721   8.894 -0.2906 -0.2696  0.2109
28822W        W71735  33.900   3.252  27.261  0.2397 -0.1879 -0.0535
28823W        W71736  29.471  34.485   9.712 -0.1002  0.3328 -0.0854
28824W        W71737  27.710   3.878   4.942 -0.0923 -0.2331 -0.0830
28825W        W71738  28.366   3.810   3.050  0.2372  0.0381  0.2451
28826W        W71739  31.444   1.733   3.873  0.2193  0.1044 -0.1498
28827W        W71740  24.316   1.366   3.106  0.0156  0.0922 -0.0268
28828W        W71741  19.017  30.387   8.066 -0.0372  0.4197  0.1037
28829W        W71742   0.284  27.288   0.502 -0.1780 -0.3451 -0.1328
28830W        W71743  23.317  32.681   6.712 -0.2870  0.3915  0.2406
28831W        W71744  27.206   4.601   8.855  0.1135 -0.0609  0.0483
28832W        W71745  20.360  31.393  27.744 -0.3771 -0.2997 -0.0584
28833W        W71746  19.309  13.409   5.584 -0.1404 -0.3261 -0.2977
28834W        W71747   5.544   7.056  13.337 -0.0486  0.0811 -0.2816
28835W        W71748   2.807  28.403   9.219 -0.0602  0.2635  0.0508
28836W        W71749  21.466  32.132   5.302 -0.1708 -0.1823 -0.0618
28837W        W71750  22.667  27.304   4.878  0.1315  0.4047  0.2363
28838W        W71751  29.597  24.894   6.944  0.2395 -0.0756 -0.1972
28839W        W71752  21.890  34.242   7.213  0.0583 -0.0558 -0.2358
28840W        W71753  30.932  30.857  26.837 -0.2196  0.1432 -0.1307
28841W        W71754  22.519  30.522   4.345 -0.1119 -0.2301 -0.1004
28842W        W71755  25.737  10.349   5.965 -0.1047  0.2033  0.0186
28843W        W71756   6.396  17.097   8.056 -0.0142 -0.0316 -0.0016
28844W        W71757  31.153  28.825   9.512 -0.2321  0.1451  0.4878
28845W        W71758  29.179   9.144   7.162 -0.3153 -0.0092  0.1622
28846W        W71759  33.612   8.345   7.190 -0.0924 -0.0722 -0.1570
28847W        W71760  10.866   0.098  12.517  0.3108 -0.0199  0.0600
28848W        W71761  27.301  33.775   5.836  0.1523  0.0247 -0.0507
28849W        W71762  13.223   2.883  28.864  0.1007  0.0041 -0.0584
28850W        W71763  32.498  25.643   3.836 -0.1978 -0.0601  0.1595
28851W        W71764  28.215   1.011  22.626  0.0443  0.0832  0.0531
28852W        W71765  23.223  27.473   7.429  0.0168 -0.0970 -0.1509
28853W        W71766   0.609   7.366   8.582 -0.0101 -0.0400  0.2099
28854W        W71767  27.386   5.277   3.495 -0.0201 -0.0312 -0.1545
28855W        W71768  25.044  34.213   9.283 -0.2679  0.0588 -0.1518
28856W        W71769  33.255   6.607   6.222  0.0296 -0.1458  0.1847
28857W        W71770  26.788  29.193  27.330  0.1547  0.0151 -0.2339
28858W        W71771  19.847   7.353  24.023 -0.0479 -0.1252  0.0307
28859W        W71772  23.448  31.823   7.688  0.0916  0.3064  0.1338
28860W        W71773  29.682   3.719  10.317 -0.0020  0.4005 -0.0876
28861W        W71774   4.171   6.584   6.450  0.1799 -0.2887 -0.2426
28862W        W71775  13.825  24.061  27.993  0.0837 -0.0002  0.0661
28863W        W71776  12.022  16.714   8.041  0.2807  0.1093 -0.1109
28864W        W71777  22.097  31.533   9.184 -0.2165 -0.2305 -0.0208
28865W        W71778  21.853  23.991  27.172  0.1764  0.1278  0.1009
28866W        W71779  30.449  34.246   0.154 -0.0996 -0.3772  0.4471
28867W        W71780  19.364  31.138   7.670 -0.0724  0.0318  0.0648
28868W        W71781   1.093  13.862  29.418  0.0528 -0.1806 -0.2609
28869W        W71782  24.259  34.334   5.640  0.1122 -0.0068 -0.2511
28870W        W71783  30.315  28.254  29.300  0.2288  0.3756  0.3098
28871W        W71784  25.511   1.181   9.573 -0.0694 -0.6501  0.0272
28872W        W71785  27.057  31.392  28.888  0.1339 -0.1446  0.0535
28873W        W71786   6.939  26.802  29.706  0.0800 -0.1868 -0.0492
28874W        W71787  21.711  21.344   3.558 -0.1717 -0.2740 -0.3241
28875W        W71788  26.842  31.594   4.944 -0.1796  0.0217  0.6934
28876W        W71789  17.345  28.229  10.280  0.2503  0.2906  0.0647
28877W        W71790   5.566   1.329   5.070  0.2877  0.3745  0.1348
28878W        W71791  27.693  31.052   3.695 -0.1822  0.1632  0.2092
28879W        W71792  19.371  29.384   6.942 -0.2799  0.1102  0.0916
28880W        W71793  20.372  31.862   6.452  0.3683 -0.0901 -0.1065
28881W        W71794  18.935  28.247   1.824 -0.1726  0.1226 -0.2290
28882W        W71795  25.323  28.801   6.603  0.3070  0.1453  0.2338
28883W        W71796  21.533  32.599   9.555 -0.1799 -0.3211  0.1138
28884W        W71797  26.949   7.902   0.540  0.0558  0.0619 -0.3639
28885W        W71798  26.416  27.580   7.702 -0.2037 -0.1835 -0.0971
28886W        W71799   2.103  25.565   2.199  0.3724 -0.0586 -0.1060
28887W        W71800  13.462   2.063   6.522 -0.0410 -0.1301  0.1971
28888W        W71801  24.631  34.104   0.964 -0.1973 -0.0934 -0.0271
28889W        W71802  21.439  26.078   6.041 -0.0738  0.0631  0.0635
28890W        W71803  25.824  15.543   0.570 -0.0853  0.2096  0.0451
28891W        W71804  16.601  28.017   5.170  0.0220 -0.0079  0.0793
28892W        W71805  20.204  24.775   0.457  0.6375  0.1913  0.1036
28893W        W71806  27.237  31.369   5.300 -0.0028  0.1484 -0.2758
28894W        W71807  20.054  33.695   8.445  0.1732 -0.2627 -0.0384
28895W        W71808  33.328   6.940   3.622 -0.1838  0.2298  0.1776
28896W        W71809  27.927   1.128   9.079  0.1093  0.1603 -0.3239
28897W        W71810  22.852  25.543   4.505 -0.0018 -0.1031  0.0222
28898W        W71811  19.190  26.094   8.317  0.0448  0.2368  0.2211
28899W        W71812  33.694  11.036   9.874 -0.0594 -0.1468  0.0611
28900W        W71813  20.602  25.485  28.986 -0.1427  0.0674  0.0729
28901W        W71814  20.922   0.644   6.427 -0.6235  0.0241  0.1423
28902W        W71815  23.341   4.472  10.724  0.0918 -0.0924 -0.0085
28903W        W71816  25.010  23.683   4.209 -0.1997  0.1143 -0.6103
28904W        W71817  21.894  24.823   7.679  0.2008 -0.2064 -0.0161
28905W        W71818  22.754  31.667   8.624  0.4904  0.3917 -0.4649
28906W        W71819  23.842  28.032   6.746  0.1118  0.5298 -0.1211
28907W        W71820  15.493  32.994   8.254  0.1344  0.1229  0.1622
28908W        W71821  19.492  32.576   6.234  0.1446  0.0283 -0.0257
28909W        W71822   0.314  12.621  26.142  0.0022 -0.3134 -0.0685
28910W        W71823  16.310  11.334   2.296  0.1978 -0.0537 -0.0488
28911W        W71824   7.440  30.648  10.115 -0.0527 -0.2758 -0.2677
28912W        W71825  26.166  23.740   8.374 -0.0921  0.3458 -0.0911
28913W        W71826  32.906   0.129   3.330 -0.1391 -0.0527 -0.1419
28914W        W71827  20.318  24.318   7.971 -0.0492  0.0205  0.4160
28915W        W71828  18.429  28.935   2.317 -0.0582  0.0780  0.2059
28916W        W71829  28.545   3.695   0.110  0.1365 -0.0837  0.1708
28917W        W71830  14.015  34.393  11.114  0.0240  0.2052  0.0452
28918W        W71831  30.642  34.099   3.140  0.3534  0.1832 -0.0054
28919W        W71832  28.929   3.419   5.732 -0.0467  0.2899  0.3355
28920W        W71833  32.970  33.408   3.966 -0.2463  0.0214  0.0003
28921W        W71834  26.333  30.803   6.146 -0.0728  0.2267  0.0332
28922W        W71835  13.399  29.020   8.499  0.0867 -0.1492  0.2183
28923W        W71836   5.426  26.779  10.575  0.0486  0.1131  0.0508
28924W        W71837  27.788  32.999   5.937  0.3473 -0.2290  0.0666
28925W        W71838  17.416  28.697   8.015 -0.2377 -0.0365 -0.3499
28926W        W71839  22.851  21.438   4.247  0.1889  0.2674  0.2690
28927W        W71840  25.990  34.045   8.926 -0.1125  0.0352 -0.0192
28928W        W71841  21.939   2.346   9.066  0.1000  0.0962 -0.1335
28929W        W71842  22.236  30.637   2.222 -0.1104  0.4518  0.1813
28930W        W71843  22.051   0.875   2.205  0.1683 -0.2311  0.2795
28931W        W71844  19.256  27.542   4.681  0.1367  0.2709  0.0200
28932W        W71845  16.871   0.037   3.977 -0.0054  0.0180  0.1791
28933W        W71846  27.923  20.876  25.973 -0.1314 -0.3615  0.4348
28934W        W71847  17.438  31.611   2.565  0.0973  0.0738 -0.3200
28935W        W71848  21.820  33.101   8.234 -0.1616  0.1256 -0.0724
28936W        W71849  32.479  32.102   2.443  0.1309 -0.1779  0.0188
28937W        W71850  24.451  28.162   3.768  0.3401  0.1829 -0.1353
28938W        W71851  33.183  15.521  28.080 -0.3286 -0.1842 -0.2765
28939W        W71852  20.747   4.485   8.666  0.1122 -0.1315 -0.1755
28940W        W71853  30.962  26.783   7.961  0.0168  0.2040  0.2699
28941W        W71854  14.013  22.628   0.504 -0.1427 -0.1475 -0.0067
28942W        W71855  32.284   3.034   4.559  0.3064 -0.0873 -0.1844
28943W        W71856  30.036  22.826   3.781 -0.0542 -0.0949 -0.1283
28944W        W71857  17.894  21.841  28.340  0.2468  0.0769 -0.1147
28945W        W71858  21.644  27.051   7.912  0.0222  0.2257 -0.1285
28946W        W71859  25.827  34.413   3.854 -0.1267  0.0022 -0.4760
28947W        W71860  21.808  29.325   4.441 -0.2163 -0.2486 -0.0315
28948W        W71861  20.090  31.054   8.055 -0.2046  0.2106  0.2700
28949W        W71862  28.880   1.641   1.753  0.1025 -0.2056 -0.0744
28950W        W71863  20.650  25.378  28.411  0.1739 -0.0760 -0.2979
28951W        W71864  26.546  28.319   8.622 -0.0934 -0.6219 -0.0558
28952W        W71865  13.478   1.840   5.841  0.1754  0.0802 -0.0150
28953W        W71866  23.907  23.606   1.528 -0.1164 -0.2668 -0.1991
28954W        W71867  26.741  33.088   9.031 -0.0671 -0.1746  0.2367
28955W        W71868  28.346  17.120   7.791 -0.0024 -0.1927 -0.1377
28956W        W71869  21.547  23.468   1.113 -0.1556 -0.0924 -0.1199
28957W        W71870  25.172  29.900   8.496 -0.1780 -0.2137 -0.2578
28958W        W71871  34.076  21.470   4.069  0.0570  0.1514 -0.0468
28959W        W71872  32.246  33.702  25.531 -0.0210 -0.1538  0.1484
28960W        W71873  20.805   6.103   6.207  0.0951 -0.1904 -0.0325
28961W        W71874  26.293  27.876   8.820 -0.0448  0.0315 -0.4140
28962W        W71875  25.959  30.754   5.451 -0.2016 -0.1758  0.0292
28963W        W71876  27.559  34.180  10.275  0.1587  0.0316  0.3183
28964W        W71877  31.223   0.333   0.653  0.0117 -0.1071  0.1658
28965W        W71878  22.176  28.661   9.209  0.0117  0.0402  0.0625
28966W        W71879  18.937   0.569  10.774  0.4532 -0.0727 -0.1292
28967W        W71880  18.154   0.647   4.571 -0.4379  0.0198 -0.2830
28968W        W71881   3.677  32.051  10.307 -0.3182  0.0523  0.3075
28969W        W71882  22.346   4.883   8.229 -0.2502 -0.1434  0.3144
28970W        W71883  18.186   2.538   9.537 -0.0943 -0.3396 -0.2102
28971W        W71884  26.065   4.770   4.889  0.0674  0.1775 -0.1703
28972W        W71885  20.001  31.678   2.635  0.2079 -0.0412 -0.1662
28973W        W71886  24.507  25.662   6.496 -0.3959  0.3536  0.3098
28974W        W71887  16.786   8.179   5.091 -0.4112  0.2972  0.3947
28975W        W71888  23.622   0.092  10.066  0.3199  0.1970 -0.0269
28976W        W71889  20.726  33.876  27.456  0.1021 -0.0856  0.0213
28977W        W71890  25.385   0.247   3.720  0.2416 -0.0603 -0.1114
28978W        W71891  30.485  32.815   5.192  0.1480 -0.2335  0.0447
28979W        W71892  27.674   0.012   5.064  0.0289 -0.0776 -0.3378
28980W        W71893  30.051  10.068   2.661 -0.1032 -0.1139  0.0669
28981W        W71894  24.555  26.100   3.323  0.2561 -0.1704 -0.0102
28982W        W71895  16.544  25.239   7.883 -0.1540 -0.0870  0.1442
28983W        W71896  18.381  28.882   5.831  0.0550  0.1428 -0.1705
28984W        W71897   2.352   3.282   6.993 -0.1730  0.2878  0.2629
28985W        W71898  29.993  23.874   5.606 -0.1461  0.0142 -0.0506
28986W        W71899  13.980  29.779   8.545 -0.2204 -0.1221 -0.2155
28987W        W71900  31.400  33.598  11.610  0.0283 -0.0393  0.1375
28988W        W71901  19.161  30.871   0.234 -0.1883  0.1074 -0.4042
28989W        W71902   0.321   7.879  10.782  0.3247 -0.0181 -0.1250
28990W        W71903  25.564   6.991   6.956  0.1273  0.0142  0.5479
28991W        W71904   9.708  24.009   4.520 -0.1369  0.1381 -0.1311
28992W        W71905  19.518   4.461  22.586  0.0106  0.2881  0.0269
28993W        W71906  20.077   2.755   7.307  0.0231  0.0343  0.1076
28994W        W71907  31.120  28.285   8.611 -0.1995  0.1004  0.2661
28995W        W71908  29.229   3.563   8.113  0.2173  0.2939 -0.0777
28996W        W71909  11.064  25.126   5.734  0.3693  0.2096 -0.1328
28997W        W71910  25.869   7.362   1.442 -0.1587 -0.0050  0.2024
28998W        W71911  14.395  10.521   0.369 -0.1002  0.0453 -0.3414
28999W        W71912  26.928   3.743   9.249  0.2558  0.0733 -0.1440
29000W        W71913  29.094  26.050   4.504 -0.4942 -0.0342  0.0865
29001W        W71914  26.080   4.442   5.420 -0.0851  0.2428  0.2875
29002W        W71915  18.080  28.146  29.444  0.0917 -0.1608  0.1097
29003W        W71916  26.984  32.127   7.196  0.1991 -0.1807  0.6057
29004W        W71917   0.865   2.361   5.589 -0.0149  0.1065  0.1479
29005W        W71918  21.211  25.806   6.490  0.2587 -0.1479  0.0450
29006W        W71919  24.350  32.408   2.583  0.0002  0.1723 -0.0204
29007W        W71920  34.495  12.075   8.225  0.0246 -0.1405  0.2961
29008W        W71921  33.727   9.376   5.177 -0.2503 -0.4023 -0.2203
29009W        W71922  19.539   1.633   8.281 -0.0394 -0.2338  0.0086
29010W        W71923  33.204  24.707   3.575  0.2301 -0.3483 -0.0347
29011W        W71924  21.755   3.023   1.515  0.1608  0.0022 -0.0051
29012W        W71925  28.457  28.529   0.786  0.1292 -0.0032  0.1309
29013W        W71926  14.555  32.375   4.780  0.0837 -0.2939 -0.3431
29014W        W71927  10.500   1.156   2.585 -0.2889 -0.1095  0.0293
29015W        W71928  33.727  33.839   3.666 -0.2633 -0.1276  0.0636
29016W        W71929  18.682  24.976   4.296 -0.2416 -0.0548 -0.1298
29017W        W71930  29.714   7.525   6.914  0.3113  0.0766  0.1243
29018W        W71931  24.376   1.002   7.572 -0.3649 -0.1719  0.3373
29019W        W71932  30.545  18.644   2.456  0.1088  0.0387 -0.0247
29020W        W71933   1.631   6.804  11.901 -0.0652 -0.1147 -0.0434
29021W        W71934  21.160   4.510   7.200 -0.0324  0.1969  0.0913
29022W        W71935  24.660  28.908   5.163  0.1072  0.3711  0.0138
29023W        W71936  23.117  29.367   0.550  0.0534  0.3498  0.1127
29024W        W71937   2.880  26.585   6.230  0.1794 -0.0524 -0.0364
29025W        W71938  22.290  29.528   4.721 -0.1922  0.0340 -0.0119
29026W        W71939  23.923   5.759   9.031 -0.0521  0.0511 -0.1090
29027W        W71940  30.583   3.367   8.209 -0.0692  0.2134 -0.1786
29028W        W71941  11.522   5.035   8.421 -0.0132 -0.1070  0.1154
29029W        W71942  21.270  27.439   5.915  0.2174 -0.0211 -0.0581
29030W        W71943  16.352  23.576   8.867 -0.0927  0.1420  0.2165
29031W        W71944  27.667  29.898   4.441 -0.0268  0.3439  0.1394
29032W        W71945  20.770   1.289   0.757  0.2577 -0.0205 -0.2044
29033W        W71946   0.018  25.848   4.509  0.0559  0.2609  0.0116
29034W        W71947  24.274  20.853   0.518  0.0256  0.0280 -0.2304
29035W        W71948  29.470  30.131  25.692  0.2187 -0.0031 -0.3233
29036W        W71949  29.273  31.382   6.655  0.1107  0.2536  0.0965
29037W        W71950  22.297   0.138   6.152 -0.1661 -0.3371 -0.0324
29038W        W71951  26.237   3.529   5.082 -0.3375 -0.0190 -0.3699
29039W        W71952  25.288  32.439   1.484 -0.1180 -0.1590  0.2695
29040W        W71953  22.805  23.069   5.674  0.1506  0.0569 -0.1249
29041W        W71954  31.854  33.947   4.037 -0.0582  0.0386  0.2479
29042W        W71955  25.866  34.353   2.923  0.3054  0.1510  0.0873
29043W        W71956  25.340  33.134   9.051 -0.1794  0.0218 -0.1518
29044W        W71957  21.188   2.883   7.344 -0.1342 -0.1878  0.1055
29045W        W71958  25.740   5.392   1.256 -0.0248  0.3337  0.0728
29046W        W71959  28.824   3.319   8.752 -0.0059  0.2655  0.2905
29047W        W71960   0.171  29.706  27.556 -0.1558  0.1377  0.0928
29048W        W71961  34.379   6.855   8.040 -0.1529  0.1926  0.0419
29049W        W71962  33.397  14.833   3.996 -0.2494 -0.2464 -0.1946
29050W        W71963  25.391   5.281   9.680  0.0921  0.1722  0.0480
29051W        W71964  20.305  32.849  29.304  0.0594  0.0081 -0.1228
29052W        W71965  31.726  21.271   8.425  0.1423  0.0328  0.0123
29053W        W71966  25.156  34.332   2.439  0.0682 -0.0099  0.3194
29054W        W71967  25.850  29.182   2.437 -0.1180  0.1047  0.1601
29055W        W71968  14.514  22.987  27.610 -0.0878  0.3370  0.0130
29056W        W71969  12.899  29.889  11.725 -0.1645 -0.4273  0.0838
29057W        W71970  14.911  30.265   3.391 -0.0558 -0.0532  0.1675
29058W        W71971  32.627  28.435   4.389  0.3104 -0.0130 -0.2290
29059W        W71972  21.763  26.436   3.393  0.1444  0.1118 -0.0478
29060W        W71973   5.118   7.815   1.010 -0.0715 -0.0790 -0.1598
29061W        W71974  29.784  31.575   7.537  0.0294 -0.1655  0.0037
29062W        W71975  22.167   1.428   7.288 -0.1039  0.0041 -0.1029
29063W        W71976  22.032  24.988  29.308  0.0265  0.0097  0.1609
29064W        W71977  18.794   0.944   9.285  0.1067 -0.0459  0.0108
29065W        W71978  25.656  33.236   2.482 -0.0825  0.1541  0.3191
29066W        W71979  22.083   6.321   3.648 -0.2960 -0.0928  0.0077
29067W        W71980  21.273  26.937   2.473 -0.2934 -0.2652 -0.0894
29068W        W71981  26.225   1.335  28.638 -0.1255  0.0947  0.1092
29069W        W71982  23.053  19.648   0.847 -0.1086  0.2873 -0.0218
29070W        W71983  23.450   3.086   6.424 -0.2141  0.2950 -0.1071
29071W        W71984  26.260  26.573   3.484 -0.2269  0.3997 -0.2574
29072W        W71985  16.636  29.355   6.286 -0.0930  0.0617 -0.0289
29073W        W71986  21.325   0.262   3.885  0.0013  0.3975  0.0027
29074W        W71987  19.701  32.394   7.556 -0.2775  0.2479  0.4822
29075W        W71988  20.000  29.120   6.164  0.1565  0.1519 -0.1270
29076W        W71989  19.590  12.095   1.611  0.0135  0.2851  0.3221
29077W        W71990  17.968  28.288   4.150 -0.1803  0.0058  0.1174
29078W        W71991  13.065  30.721  27.885  0.0557 -0.0662 -0.0250
29079W        W71992   6.870   8.651   6.015 -0.2859 -0.0462 -0.1116
29080W        W71993  34.042  34.205   7.174 -0.2368  0.3079  0.0371
29081W        W71994   0.658  30.415   8.809  0.3774 -0.1790 -0.2784
29082W        W71995  23.630   0.016   6.067  0.1138 -0.3289  0.2814
29083W        W71996  26.089  31.427   8.815 -0.4782 -0.1686 -0.1654
29084W        W71997  26.814  28.558   6.705  0.1272  0.0441  0.1480
29085W        W71998  26.491   1.434   6.610  0.0006  0.0701  0.2229
29086W        W71999  26.994   4.765   8.371  0.2541  0.1913 -0.3446
29087W        W72000  25.153  25.318   2.800 -0.3234  0.1679  0.0279
29088W        W72001  23.222  11.441   0.216 -0.0310 -0.1666 -0.4349
29089W        W72002  17.467  34.140  26.283 -0.3218  0.0367 -0.0036
29090W        W72003  23.695  30.712   0.447 -0.1705 -0.0989 -0.0466
29091W        W72004  33.787   5.949   4.829  0.0437 -0.0377 -0.2951
29092W        W72005  32.583   2.262  11.186 -0.1272 -0.0094  0.0622
29093W        W72006  18.131  31.153  28.155 -0.4969  0.1784 -0.3640
29094W        W72007   4.768   3.017   3.325  0.0131  0.1033  0.0339
29095W        W72008  18.831  24.639  27.492 -0.1316 -0.0104  0.2027
29096W        W72009   9.831  29.801  12.172 -0.2718  0.2511 -0.2928
29097W        W72010  18.251   2.346   5.355 -0.0640 -0.0677 -0.1229
29098W        W72011  25.888  30.099   9.097  0.2161  0.0266  0.2831
29099W        W72012  26.273  23.741   7.295 -0.2345 -0.1401 -0.0744
29100W        W72013   3.282   2.210   9.484 -0.0193 -0.2263  0.0438
29101W        W72014  32.611   2.632   5.873 -0.0612  0.1921 -0.0119
29102W        W72015   6.346  25.375  28.806 -0.2697  0.0444  0.0032
29103W        W72016  23.288  24.729   2.707  0.0917  0.2265  0.1014
29104W        W72017  23.887   2.495   2.296 -0.2473  0.1509 -0.2599
29105W        W72018  31.137   1.637  23.020 -0.3567 -0.0289 -0.0301
29106W        W72019   2.391  32.961   5.439 -0.1976  0.0858  0.0915
29107W        W72020  32.922   1.477  10.327  0.0116  0.1881 -0.1062
29108W        W72021  13.330   9.724   6.434  0.1263  0.0553 -0.0546
29109W        W72022  20.905  32.480   8.944 -0.1979  0.0843 -0.1162
29110W        W72023  15.670  31.752   3.223  0.0644 -0.2949 -0.0103
29111W        W72024  25.164   1.598   1.236  0.3377 -0.1330  0.2412
29112W        W72025  12.967   4.212   1.145 -0.0389  0.0219 -0.0489
29113W        W72026   5.561  24.690   3.385 -0.2833 -0.1584  0.0725
29114W        W72027  18.164  33.081   5.080  0.1116 -0.0417  0.0372
29115W        W72028  22.240   3.039   9.838  0.0691 -0.2350 -0.3577
29116W        W72029  19.634  23.687   4.471  0.2669 -0.2457  0.2511
29117W        W72030  19.091  33.207   1.087 -0.1508 -0.3410 -0.2085
29118W        W72031  10.553  32.745   1.208 -0.4347  0.0334 -0.0520
29119W        W72032  24.005   1.446   7.387  0.2643 -0.2409  0.2275
29120W        W72033  22.185   5.674   6.506  0.0425  0.0194 -0.2169
29121W        W72034  16.796   0.839   9.391  0.0785 -0.2330 -0.2755
29122W        W72035   1.127   5.807  10.229 -0.0147 -0.0381  0.0250
29123W        W72036  15.041   4.512   3.341 -0.1548  0.1028 -0.1861
29124W        W72037  15.634  32.812  25.119  0.1135 -0.1082 -0.0893
29125W        W72038  22.945  30.663   2.723 -0.0158 -0.0619 -0.1034
29126W        W72039  29.945  30.504   7.647  0.1349 -0.0242 -0.1028
29127W        W72040   6.852  30.993  20.870  0.1329 -0.0557 -0.1846
29128W        W72041  28.027   0.274  27.483 -0.0765 -0.0357  0.0779
29129W        W72042  24.941  14.274   6.675  0.2122 -0.0880  0.0203
29130W        W72043  22.365  24.636   2.920  0.1084 -0.0630 -0.3421
29131W        W72044  17.849   6.219  24.231 -0.0242  0.1851  0.2215
29132W        W72045  21.506  31.571   3.669 -0.1303 -0.1711 -0.2552
29133W        W72046  24.764  31.217   3.039 -0.2724  0.5021 -0.1560
29134W        W72047  24.005   8.989   4.959 -0.0501  0.3612 -0.2374
29135W        W72048   9.070   7.189  10.473  0.1308 -0.0408  0.2354
29136W        W72049  26.348   7.033   6.194  0.0167 -0.0516  0.4130
29137W        W72050   9.065   7.250   7.624 -0.0092 -0.1293 -0.2432
29138W        W72051  24.729  34.157   5.639 -0.0652 -0.3455  0.1938
29139W        W72052   0.660  29.509   7.048  0.2618 -0.1376  0.0424
29140W        W72053  26.958  29.474  22.787 -0.0530  0.0745 -0.0306
29141W        W72054  26.294   4.412  28.160 -0.0575 -0.1632  0.3117
29142W        W72055  27.280   3.999  28.250 -0.0161  0.0783  0.0419
29143W        W72056  28.189  33.978   7.288 -0.2334 -0.1369 -0.0691
29144W        W72057  31.725   7.202   2.321  0.2236  0.1028 -0.1138
29145W        W72058  28.563   2.472  28.258  0.1855 -0.3122  0.3146
29146W        W72059  17.605   3.757  23.058 -0.0876 -0.2672 -0.0610
29147W        W72060  27.094  30.670   2.964  0.0715  0.0897  0.1938
29148W        W72061   1.071  33.687  27.083  0.0176 -0.0290  0.0993
29149W        W72062  30.634   2.862  22.451  0.1550  0.4982 -0.0721
29150W        W72063  21.562  26.068   1.305 -0.0855 -0.0346  0.3207
29151W        W72064  31.210  21.489   4.665  0.0146  0.0490  0.1305
29152W        W72065  24.711  32.789   6.770  0.0706 -0.2465  0.0845
29153W        W72066  18.033   2.309   3.436  0.2427  0.1112 -0.1671
29154W        W72067  32.682   0.506  28.316  0.1859 -0.0022 -0.1762
29155W        W72068   1.649  28.514   7.807 -0.1395 -0.1657  0.0862
29156W        W72069  20.507  33.377  29.080 -0.0276 -0.0187  0.1101
29157W        W72070  33.599  17.351  28.777  0.1482 -0.2913 -0.2263
29158W        W72071   2.019  27.921   3.718 -0.2754  0.1048 -0.2371
29159W        W72072  31.215  10.475   6.939 -0.1179 -0.1437 -0.4623
29160W        W72073  15.812  30.563  25.585  0.1230 -0.1603 -0.1118
29161W        W72074  20.357   4.285   7.112  0.2382 -0.0597 -0.1192
29162W        W72075  25.119  31.529   7.397 -0.2011 -0.3132 -0.1734
29163W        W72076  21.012  30.640   6.326  0.0402  0.0615 -0.2884
29164W        W72077  24.190  32.424   4.633  0.0168 -0.3731  0.0105
29165W        W72078  28.681   0.990  22.406  0.3183 -0.0034  0.0929
29166W        W72079   1.944  24.777   9.924  0.0314 -0.3368 -0.1472
29167W        W72080  13.683   1.735  11.246  0.3318  0.0491 -0.2826
29168W        W72081  26.667   2.375   0.022 -0.0795  0.0758  0.2874
29169W        W72082  25.099  28.339  29.454  0.2480 -0.2960  0.0479
29170W        W72083  25.737   0.448  21.464 -0.1490  0.0054  0.3368
29171W        W72084  24.762   0.448   7.350 -0.4119  0.2357  0.2750
29172W        W72085  14.139  27.504  22.813 -0.0231 -0.1762 -0.0488
29173W        W72086  31.453  26.642   0.269  0.0294  0.1876 -0.1269
29174W        W72087  22.262  32.313  25.184  0.1319 -0.1037 -0.1309
29175W        W72088  13.479   3.254   7.529 -0.1926 -0.0433  0.0261
29176W        W72089  28.458  27.175   3.250 -0.1336  0.1877  0.0266
29177W        W72090  10.321  28.840   7.510 -0.2603  0.2577 -0.0281
29178W        W72091  26.350   4.710   1.228  0.0686 -0.2278 -0.1064
29179W        W72092  24.645   0.536   0.998 -0.1358  0.1880  0.0964
29180W        W72093  25.023  27.254  27.960 -0.2936  0.0129 -0.4070
29181W        W72094  16.888  30.787   4.853  0.1579 -0.0042 -0.2064
29182W        W72095  23.169   8.167   4.584 -0.1493 -0.0454 -0.1457
29183W        W72096  22.534  28.449   3.860 -0.0161 -0.1990  0.1826
29184W        W72097  18.886   5.691  22.373 -0.1495 -0.1566  0.1440
29185W        W72098  23.853  27.190  28.027 -0.2292 -0.1526 -0.0417
29186W        W72099  27.833  30.504  23.653  0.3502  0.3430 -0.1858
29187W        W72100  22.221   8.645   3.863 -0.1575 -0.1535 -0.1727
29188W        W72101  30.292  31.833   3.098  0.3416  0.4653 -0.0052
29189W        W72102  24.038  25.022  27.616 -0.0370 -0.3651  0.1802
29190W        W72103  10.430   2.579   3.468 -0.1272 -0.3875  0.0833
29191W        W72104  29.253   4.750   4.626  0.1194 -0.2302  0.0370
29192W        W72105  19.895   3.687   3.851 -0.1122  0.2348  0.2065
29193W        W72106  18.375  25.238   3.342  0.1076  0.0263 -0.1261
29194W        W72107   6.220  32.563   2.498 -0.1945 -0.4303 -0.2739
29195W        W72108  13.600   3.003   5.448 -0.5101 -0.0002  0.1135
29196W        W72109  19.440   5.926   2.712 -0.0164 -0.1658  0.2362
29197W        W72110  23.420   6.404  29.244  0.1355 -0.1215 -0.1577
29198W        W72111  28.268  22.935  16.430  0.2212  0.0087 -0.2078
29199W        W72112   7.935   1.779   1.896  0.1019 -0.1081  0.0983
29200W        W72113  22.180   3.469   8.303  0.0256 -0.0696 -0.3600
29201W        W72114  30.964  28.724  26.166  0.0937  0.1208 -0.0453
29202W        W72115  24.785  32.395   0.133 -0.0837  0.1656 -0.1553
29203W        W72116  24.552   8.550   7.225  0.2134  0.0039 -0.1849
29204W        W72117   3.961  12.737   2.081 -0.1531 -0.2718 -0.3443
29205W        W72118  23.384   6.051   5.484 -0.0837 -0.0933 -0.0068
29206W        W72119  18.762   0.829   2.315  0.0260 -0.1440  0.0796
29207W        W72120  18.970   3.118   1.041  0.3104 -0.3358 -0.3170
29208W        W72121  22.726  34.372  25.971  0.2251  0.1088 -0.1480
29209W        W72122   5.719  32.943  25.452  0.0254 -0.0107 -0.4535
29210W        W72123  28.585  30.197   7.441  0.2717 -0.4222  0.2263
29211W        W72124  16.859  32.440   9.126  0.3280 -0.0894 -0.1056
29212W        W72125  22.614   3.627   5.821 -0.0773 -0.3206  0.1831
29213W        W72126  28.667   6.606   4.166  0.1284 -0.4639  0.0139
29214W        W72127  23.566   3.391   7.536  0.2080 -0.1381 -0.3001
29215W        W72128  20.598  21.683   5.179  0.0630  0.0480  0.0063
29216W        W72129  22.429  24.695   8.217  0.3384  0.1142  0.1397
29217W        W72130  20.687  28.470   0.543  0.0625 -0.0849 -0.0148
29218W        W72131  13.112  27.591  22.737  0.1651  0.0508  0.2469
29219W        W72132  18.773   6.002   0.048  0.2379  0.0969 -0.1881
29220W        W72133   1.324  27.105   7.951 -0.0654 -0.0430  0.0874
29221W        W72134  26.606  31.726   9.677 -0.0003  0.1189 -0.2346
29222W        W72135  23.380  32.981  28.304 -0.0667 -0.1191  0.0946
29223W        W72136  26.743   4.194   4.571  0.2186 -0.0897 -0.2740
29224W        W72137  18.452   3.445  26.229 -0.3665 -0.1897  0.0951
29225W        W72138   0.955  29.343  25.812  0.0947  0.0153  0.3172
29226W        W72139  33.883   3.553   5.806 -0.3045  0.1874 -0.0120
29227W        W72140  33.460  29.081   0.628  0.6254 -0.0054  0.0476
29228W        W72141  20.250  19.875  23.691 -0.1524 -0.0003  0.0317
29229W        W72142  16.837  32.278   8.515  0.1510 -0.1077  0.0297
29230W        W72143  15.242   0.260   4.811 -0.0060  0.0023 -0.1967
29231W        W72144  33.099  10.975  27.691 -0.1629  0.1814  0.2888
29232W        W72145  27.952   8.649   8.204 -0.2376  0.0267  0.3456
29233W        W72146  26.389  29.314  24.177  0.0282  0.1608 -0.3385
29234W        W72147  17.698  27.202   5.730  0.1185 -0.2517 -0.2643
29235W        W72148  20.077   7.749   9.954  0.0271 -0.3682  0.1396
29236W        W72149  25.339  14.683   8.845 -0.1608 -0.0304 -0.1613
29237W        W72150  17.074  34.398   1.551 -0.2898  0.1739  0.4174
29238W        W72151  31.104  28.671  20.176 -0.1178 -0.1791  0.1494
29239W        W72152  27.489   1.151   3.960 -0.1153 -0.0227 -0.0546
29240W        W72153  24.925  10.152  27.987 -0.1122  0.0684 -0.0369
29241W        W72154  26.769  31.779  26.527  0.3191  0.0394  0.0083
29242W        W72155  14.725   1.478   6.720 -0.1895  0.0604 -0.3770
29243W        W72156  26.495  11.876  23.839 -0.0880  0.3088  0.1139
29244W        W72157   4.130  33.094   4.185 -0.1126  0.0185 -0.3800
29245W        W72158  18.891  26.681   6.911  0.1782  0.1882  0.0078
29246W        W72159  12.119   1.233   2.249 -0.2979 -0.0142 -0.1446
29247W        W72160  27.883   2.896  28.154  0.0841 -0.0442  0.0059
29248W        W72161  27.982   5.140   9.100 -0.3148 -0.1372  0.4786
29249W        W72162  19.999  15.218  26.197 -0.3139 -0.1424 -0.2812
29250W        W72163  26.417   2.457  27.329  0.1266  0.1384  0.3115
29251W        W72164   0.877  10.103  10.614 -0.1200  0.0004  0.0645
29252W        W72165  23.391  31.490  27.059 -0.2392 -0.1774  0.0393
29253W        W72166  25.681  33.417  28.540  0.1743 -0.3445 -0.0639
29254W        W72167  27.956   0.151   8.995  0.1836  0.1203  0.1553
29255W        W72168  21.776   5.142   9.153 -0.0830 -0.2530  0.1365
29256W        W72169  27.098   4.428   0.870  0.0687 -0.2375 -0.2420
29257W        W72170  24.218  31.911   7.085 -0.1613 -0.2797  0.0483
29258W        W72171  12.571  31.034   1.107  0.0058  0.0681  0.1677
29259W        W72172  20.836  27.727   6.848 -0.2193  0.2879 -0.0903
29260W        W72173  19.321  29.561  22.125 -0.1482 -0.1209 -0.0165
29261W        W72174  25.837   1.269  27.240 -0.0464  0.1859 -0.2074
29262W        W72175  28.820  22.079   3.405  0.0169  0.0235  0.4055
29263W        W72176  15.428  32.994  29.325 -0.2417  0.1615 -0.0028
29264W        W72177  18.043   2.680  27.768 -0.2737  0.0451 -0.0797
29265W        W72178  16.864   4.317  20.691  0.1409 -0.1174 -0.1134
29266W        W72179  17.656   0.780  28.000 -0.0219  0.0853 -0.1449
29267W        W72180  22.040  12.834  20.813 -0.1683  0.2401 -0.3018
29268W        W72181   0.773   3.255   6.149  0.0050 -0.2261  0.3190
29269W        W72182  19.843   7.878   1.346 -0.2428 -0.0297  0.0817
29270W        W72183  23.554  30.656   4.577 -0.0591  0.2889  0.0333
29271W        W72184  27.421  10.262  29.011 -0.0380  0.1193 -0.4025
29272W        W72185   2.582  31.159   4.330  0.1202  0.1208 -0.0080
29273W        W72186  27.166  28.445   6.262 -0.1305  0.2234 -0.0978
29274W        W72187  27.755  33.162   9.735  0.0078 -0.0148 -0.1599
29275W        W72188  20.306  22.046  28.481 -0.2215 -0.1782  0.2163
29276W        W72189  28.829  26.783   0.858  0.0512  0.4778  0.0143
29277W        W72190   7.257  26.152   9.034  0.0368 -0.1875  0.2236
29278W        W72191  13.206   4.114   3.222 -0.1627  0.0381 -0.1299
29279W        W72192  30.469  24.319  29.614 -0.1093  0.3902 -0.0276
29280W        W72193  23.339  10.792   7.551 -0.2990  0.1067 -0.2733
29281W        W72194  20.078  10.006   3.644  0.1761 -0.1455 -0.1128
29282W        W72195  16.994  32.795   4.895 -0.2052 -0.0064  0.0287
29283W        W72196  17.317  18.440   1.133 -0.0407  0.3109 -0.2053
29284W        W72197  31.607   1.393   9.543  0.0504  0.0514 -0.1438
29285W        W72198  28.150   0.364   8.464 -0.0418 -0.0506  0.0355
29286W        W72199  17.655  31.327   9.882 -0.1733  0.1497 -0.0522
29287W        W72200  24.660  10.073  26.404 -0.3080 -0.0773 -0.1364
29288W        W72201  20.930  33.305   5.506 -0.4255  0.0438 -0.1710
29289W        W72202  21.474  24.954  28.634 -0.0348 -0.4240  0.0755
29290W        W72203  22.609  32.173  24.827  0.1698  0.4279  0.0086
29291W        W72204  23.562  34.371   0.509  0.1974  0.1285  0.1443
29292W        W72205  32.924   9.515   4.479 -0.1492 -0.0017  0.2288
29293W        W72206  21.177   2.171  27.960 -0.0165  0.2122  0.0315
29294W        W72207  16.801  32.889  18.795 -0.1248 -0.1553 -0.2102
29295W        W72208  31.862  34.448  10.307  0.1369  0.0637  0.0455
29296W        W72209  19.315  32.746   2.672  0.1176 -0.3123  0.0979
29297W        W72210   6.876   6.361   5.640  0.0383 -0.1789  0.2997
29298W        W72211  23.025  34.185  21.336  0.2273  0.0220  0.1737
29299W        W72212  15.469   3.239   7.226  0.2236 -0.1468  0.1853
29300W        W72213  29.343  32.386  28.127 -0.0715  0.0145  0.2226
29301W        W72214  15.485  29.744   5.440 -0.1758  0.1082  0.2344
29302W        W72215  22.557  31.141   2.243 -0.0142 -0.1044 -0.1557
29303W        W72216  31.916   6.655   7.482  0.0886 -0.1754 -0.0553
29304W        W72217  19.131   6.590  28.992 -0.2275  0.3596  0.3198
29305W        W72218  26.633  33.911   2.793 -0.2206 -0.0742 -0.0322
29306W        W72219  23.964  31.129   2.044 -0.0185  0.1548  0.1026
29307W        W72220  15.909  20.443   7.850  0.0042  0.1640  0.0420
29308W        W72221  22.472   0.670  27.205  0.1037 -0.1347  0.2076
29309W        W72222  21.358  25.230  29.246  0.2797 -0.0872 -0.0490
29310W        W72223  25.110   2.418   0.224 -0.1600  0.1132 -0.0702
29311W        W72224  20.491  33.597   4.603 -0.0976  0.1245  0.1313
29312W        W72225  33.322   6.040   0.876  0.2613 -0.2895  0.2132
29313W        W72226  27.542  34.079   6.145 -0.0234  0.1187 -0.3096
29314W        W72227  22.987  31.015  26.263  0.1140  0.1626  0.3305
29315W        W72228  24.264  30.599   4.417 -0.1336 -0.0190 -0.0880
29316W        W72229  18.441  26.745   6.609 -0.0370 -0.0490  0.0556
29317W        W72230  14.816  21.840  29.628  0.2809  0.0825  0.0682
29318W        W72231  27.344  14.059  29.153  0.0838 -0.1573 -0.4141
29319W        W72232  20.547  22.331   2.756 -0.0541 -0.2860 -0.1174
29320W        W72233  29.880   3.343   4.284  0.1019  0.0902  0.0795
29321W        W72234  31.998  33.715   9.482 -0.1385 -0.1418 -0.2265
29322W        W72235  29.566  16.554  25.214  0.1963 -0.1866 -0.0798
29323W        W72236  28.451   0.274   8.957  0.0877 -0.3488  0.1065
29324W        W72237  24.076  30.427   0.415  0.0959  0.0930 -0.4299
29325W        W72238   6.671  32.787   2.510  0.3399 -0.1624  0.0015
29326W        W72239   3.693  34.131   3.622  0.2290 -0.0917 -0.1389
29327W        W72240  31.769   1.791  20.462  0.1713  0.0662  0.4183
29328W        W72241  19.504   8.189   8.152 -0.0207  0.3136  0.0374
29329W        W72242  20.219   8.223   1.399  0.0581 -0.1373  0.0657
29330W        W72243  16.443  26.936  27.166  0.1244  0.2549 -0.1412
29331W        W72244   3.284  33.833   3.729 -0.0467  0.0222  0.0319
29332W        W72245  20.993  33.172   3.402  0.0221 -0.1214 -0.0913
29333W        W72246  29.815  32.051   2.318  0.0198 -0.1301 -0.1186
29334W        W72247  28.077  26.349  25.704 -0.2109 -0.1715  0.2054
29335W        W72248  29.657  33.948   2.413 -0.0362 -0.1180 -0.0228
29336W        W72249  27.541   7.262   0.978 -0.1014  0.0975  0.1424
29337W        W72250  21.466  20.759   1.160  0.0298  0.0319 -0.1321
29338W        W72251  14.260   1.984   4.111 -0.2624 -0.2601 -0.1182
29339W        W72252  17.855  33.235   0.586  0.1422  0.2064  0.0867
29340W        W72253  32.241   9.362  10.390 -0.2678 -0.3211  0.0753
29341W        W72254  28.556   4.436   2.262 -0.0474  0.0898  0.0679
29342W        W72255  30.210   7.185   7.944  0.2805 -0.0810 -0.2110
29343W        W72256  26.440  23.803   5.144 -0.2272  0.3465 -0.2194
29344W        W72257  21.161  30.087  21.878  0.1106 -0.3688 -0.3070
29345W        W72258  28.839  15.494   5.523 -0.0093 -0.0178  0.2494
29346W        W72259  16.003   3.367  27.921 -0.3643 -0.2902 -0.0569
29347W        W72260  19.681  30.121   3.742 -0.1276 -0.0543  0.3295
29348W        W72261  20.847   2.614   6.975 -0.0555  0.0380 -0.3549
29349W        W72262   1.602  33.486   8.170 -0.0854  0.1299  0.0286
29350W        W72263  23.594   7.707  28.897  0.2741  0.0436  0.0581
29351W        W72264  34.202  33.299  10.759 -0.2273  0.0049 -0.1401
29352W        W72265  32.379  32.620  28.483  0.0954  0.1693  0.0293
29353W        W72266  24.488  14.138   6.623  0.2074  0.0157 -0.0665
29354W        W72267  18.276  10.909   9.277 -0.0875 -0.0890 -0.1874
29355W        W72268  27.267   6.767   5.844 -0.2811  0.1712  0.2384
29356W        W72269   0.424  13.522   3.750  0.0547  0.0991 -0.2366
29357W        W72270  25.947   6.177   9.435 -0.1548 -0.3392  0.2495
29358W        W72271  32.981  12.305   7.328 -0.0339 -0.1706  0.0678
29359W        W72272  25.177   0.152   7.499 -0.1983 -0.1719 -0.0715
29360W        W72273  19.389   6.064   3.791  0.0542  0.2045  0.0578
29361W        W72274  20.217  10.372  26.844 -0.3047 -0.2204 -0.1847
29362W        W72275  33.052   7.691   7.342 -0.0459 -0.2849  0.0289
29363W        W72276   2.956   6.046   4.912 -0.1537 -0.0376  0.2023
29364W        W72277  15.974   1.051  29.222 -0.0484  0.0353  0.2238
29365W        W72278   1.882   2.849  28.076  0.3043 -0.1278 -0.0113
29366W        W72279   0.041   6.448  10.476  0.2430 -0.0258  0.2281
29367W        W72280  25.377   5.686   5.011  0.1263  0.1545 -0.3349
29368W        W72281  20.228   5.934   1.552  0.1049  0.0646 -0.0258
29369W        W72282  24.604   1.538   1.351  0.1508 -0.1421 -0.1811
29370W        W72283  18.682  22.618   6.844 -0.2127 -0.1500 -0.4120
29371W        W72284  24.919   4.795   2.585 -0.1707 -0.3268 -0.1193
29372W        W72285  30.176   2.287   0.777  0.2255  0.2562 -0.3100
29373W        W72286  32.994   8.295   5.125 -0.0628 -0.3428 -0.0178
29374W        W72287  24.684   5.542   5.859  0.3417 -0.0822  0.0335
29375W        W72288  11.776   3.998  11.556  0.0612  0.1155 -0.3594
29376W        W72289  21.064  13.389  18.115  0.1078  0.0074 -0.5028
29377W        W72290  26.113  28.679  28.794  0.1051 -0.2429  0.2167
29378W        W72291  13.958  28.839  22.309 -0.1834 -0.0420  0.0350
29379W        W72292  27.755   1.627   2.723 -0.0562 -0.3417  0.1489
29380W        W72293  21.926   2.791   5.019  0.2875  0.2239  0.0195
29381W        W72294  25.874  26.246  28.851 -0.0499  0.1383 -0.0620
29382W        W72295  29.536   5.317   3.818  0.3602  0.0260 -0.0610
29383W        W72296  13.820  31.372   4.108  0.3999 -0.0387  0.0033
29384W        W72297  31.642   8.084   2.632 -0.2561 -0.0083  0.0796
29385W        W72298  29.147  31.502   4.802 -0.1614 -0.4113  0.0717
29386W        W72299  27.257  34.337   4.330 -0.0423  0.0524 -0.2388
29387W        W72300  23.822   5.936   7.438  0.2146 -0.0085 -0.0689
29388W        W72301  25.228   1.476   2.101 -0.3005  0.1870 -0.1374
29389W        W72302  24.499  24.048  28.655  0.0803  0.1452  0.1662
29390W        W72303  20.082  31.361   9.213 -0.2862 -0.2727  0.1091
29391W        W72304  26.640   2.610  10.310 -0.2228 -0.0591 -0.0548
29392W        W72305  26.465   7.786  29.442  0.0599  0.1015 -0.1668
29393W        W72306  13.752   1.925   2.883 -0.0812  0.2553  0.0365
29394W        W72307  33.253   3.933   4.322 -0.2289 -0.0857  0.1403
29395W        W72308  28.276  12.734  25.126  0.2095 -0.0337  0.1665
29396W        W72309   3.413   2.434   5.023  0.1036  0.1122 -0.0732
29397W        W72310  25.751   2.384  10.237 -0.2600  0.3460 -0.0682
29398W        W72311  24.575  10.372  26.961  0.3583  0.0105  0.0924
29399W        W72312  27.149   4.097   5.729  0.1454 -0.1217  0.3799
29400W        W72313  19.780  28.956   8.217 -0.1611 -0.0577  0.1320
29401W        W72314   0.493  28.631   6.289  0.0274 -0.3563 -0.1022
29402W        W72315  15.420   4.731   3.728  0.1174 -0.1172  0.0899
29403W        W72316  26.101   0.268   9.938 -0.1339  0.3072  0.0419
29404W        W72317  31.481   0.296   6.485 -0.2353 -0.4714 -0.2748
29405W        W72318  28.634   4.467  27.722 -0.4435 -0.0615 -0.0979
29406W        W72319  27.267  29.840   7.457 -0.0637  0.0739  0.1022
29407W        W72320   2.356   2.251   9.191  0.1249 -0.0570  0.0292
29408W        W72321  18.971   5.379   5.250 -0.0102 -0.0046 -0.1827
29409W        W72322  32.296  31.664   2.732 -0.1007  0.1496  0.3777
29410W        W72323  26.526  11.511   5.297  0.1152 -0.0753  0.0030
29411W        W72324  16.011   4.669   2.428  0.0330 -0.0846  0.1290
29412W        W72325  22.194  13.066   6.937 -0.0361  0.1098  0.1137
29413W        W72326  20.152  33.190   4.528  0.0503  0.0444  0.0337
29414W        W72327  18.255   2.824   0.349 -0.0767 -0.0061  0.1696
29415W        W72328   5.761   3.367  10.755 -0.3472  0.2235 -0.0886
29416W        W72329  30.403   0.712  10.086  0.3055 -0.0500 -0.0956
29417W        W72330   2.203  12.870   4.143 -0.0350  0.0241  0.1055
29418W        W72331  14.617  27.316  29.051 -0.0198 -0.2690  0.0488
29419W        W72332  31.599   8.070   1.664  0.1725  0.1998 -0.4652
29420W        W72333  29.347   9.994   7.437  0.0092 -0.1796  0.1333
29421W        W72334  29.073   5.560  23.891  0.0488 -0.0014 -0.0177
29422W        W72335  16.312   3.389   5.468  0.0893 -0.0486 -0.1723
29423W        W72336  32.904  30.338   8.191  0.1083 -0.0971 -0.1895
29424W        W72337  26.446  10.215   5.894 -0.0386 -0.0432  0.0699
29425W        W72338  17.893  31.885   2.625 -0.0612  0.0800  0.0513
29426W        W72339  14.692  32.407   7.357  0.1093 -0.2833 -0.1164
29427W        W72340  18.768  32.042   6.754  0.0573 -0.2544  0.1932
29428W        W72341  18.164  23.610   6.014  0.0157  0.0690  0.2398
29429W        W72342   4.619   0.884   2.935  0.2492  0.4494  0.1650
29430W        W72343  14.197  34.331   2.608  0.1512  0.4189 -0.2306
29431W        W72344  12.469   1.446   3.947  0.0401  0.1001  0.3112
29432W        W72345  18.063  31.698   9.884  0.0653 -0.2280 -0.2058
29433W        W72346  19.756  29.602  28.202  0.1804  0.3710  0.0726
29434W        W72347  17.679  26.378   6.852  0.1634 -0.0024  0.0846
29435W        W72348  34.298  20.396  29.645  0.0583  0.0156  0.1476
29436W        W72349   5.139  33.194   8.261 -0.0493 -0.3175 -0.1175
29437W        W72350   8.221  32.248   6.928  0.0559 -0.0954 -0.2211
29438W        W72351  18.891  28.088   7.245  0.0369 -0.1696  0.1138
29439W        W72352  26.442  12.541   7.124  0.1766  0.0149 -0.3214
29440W        W72353  14.740   2.543   4.623  0.1645 -0.3083  0.0898
29441W        W72354  14.920   0.404  23.074 -0.1856  0.2651 -0.2330
29442W        W72355  20.831  34.283   7.085 -0.0982  0.3413  0.0787
29443W        W72356  24.509  27.073  29.463 -0.0569  0.1788  0.1903
29444W        W72357  23.802  30.313   8.757 -0.2477  0.2184 -0.1572
29445W        W72358  17.209   0.621   4.334  0.0366 -0.0159  0.2964
29446W        W72359  28.542  32.881   7.021 -0.2236 -0.2930  0.2193
29447W        W72360   0.475   9.408   0.505  0.1186 -0.2302 -0.1118
29448W        W72361  15.802  27.920  25.271 -0.0496 -0.0654 -0.1344
29449W        W72362  32.786  25.835   5.922 -0.0621 -0.3084  0.3508
29450W        W72363  32.258  29.012   5.153 -0.1154 -0.3388 -0.0286
29451W        W72364  23.722  32.890   4.086 -0.3770  0.1761 -0.1188
29452W        W72365  24.148   4.181   2.839  0.1689  0.2633 -0.1333
29453W        W72366  27.268   7.972   1.267 -0.2513  0.0199 -0.2736
29454W        W72367  23.537   2.191   9.961  0.0026  0.1586  0.1797
29455W        W72368  27.982  28.586   7.991  0.1311  0.1077 -0.0748
29456W        W72369   6.837   6.207  29.450  0.0324  0.2965 -0.0130
29457W        W72370  32.260  31.899   0.101 -0.1756  0.0289 -0.1251
29458W        W72371  23.762   1.877  28.006 -0.1105  0.2721  0.1118
29459W        W72372  23.017   0.731   1.904 -0.0278  0.0700 -0.1387
29460W        W72373  13.916   6.215   9.871  0.3831  0.1810 -0.1348
29461W        W72374  22.510  26.740   7.351 -0.4322  0.0580 -0.0047
29462W        W72375  18.792  28.597  29.073 -0.0733 -0.3133  0.1655
29463W        W72376  20.433  32.221  10.206  0.2065  0.1934  0.1715
29464W        W72377  19.540  28.823   7.322 -0.1049 -0.4709  0.2583
29465W        W72378  28.188  34.211  20.182 -0.4341 -0.1024  0.0869
29466W        W72379  32.836  23.584   2.694 -0.1685 -0.1246 -0.0781
29467W        W72380  27.069   2.523   0.568 -0.1293  0.1237 -0.1617
29468W        W72381  17.405  31.683   0.884 -0.0126  0.2589 -0.0046
29469W        W72382  33.955  26.290  19.334  0.1828  0.3327 -0.4606
29470W        W72383   5.617   6.407  28.494  0.0111 -0.2676 -0.0973
29471W        W72384  22.503   2.315   7.430 -0.2708  0.2770 -0.4466
29472W        W72385  23.234  13.005   3.487 -0.1351 -0.2010 -0.1178
29473W        W72386  24.088   1.376   7.894 -0.1598  0.2517 -0.0126
29474W        W72387  12.602  32.773   0.523 -0.0812 -0.0615 -0.2017
29475W        W72388  19.116  31.138   2.882 -0.4196 -0.1703  0.2606
29476W        W72389  26.291  33.844  29.465  0.1849  0.3493  0.2048
29477W        W72390  18.656  30.097  28.858 -0.3052 -0.1457 -0.2259
29478W        W72391  23.840  29.360   5.805  0.0937  0.2057  0.3780
29479W        W72392  31.221   3.278   6.444  0.0456  0.3172  0.1796
29480W        W72393  27.204  34.289   5.641 -0.1171  0.0729 -0.1226
29481W        W72394   3.798   7.409  10.825 -0.1936  0.0783 -0.0103
29482W        W72395  19.692  15.006  29.618 -0.0644 -0.5071 -0.2171
29483W        W72396  26.246  31.145   2.291  0.3054 -0.3137  0.3217
29484W        W72397  30.894   0.528   6.864 -0.1075 -0.4652  0.0510
29485W        W72398   1.134   8.721  10.356  0.2295  0.0569  0.1123
29486W        W72399  32.778  33.905   4.214  0.1916  0.0385  0.1529
29487W        W72400  28.749  25.754   5.649 -0.2233  0.2176  0.1559
29488W        W72401  23.792  25.613   6.021  0.0526 -0.2024  0.0699
29489W        W72402  24.934  27.969   8.113 -0.1793  0.0443 -0.0776
29490W        W72403  25.413  29.496   7.398 -0.0031  0.1854  0.1000
29491W        W72404  17.444   7.649   7.754 -0.0884  0.1025  0.0148
29492W        W72405   4.111   9.639  28.746  0.0385  0.1571  0.1737
29493W        W72406  29.768  30.946   2.342  0.1367  0.0238 -0.0860
29494W        W72407  29.393  23.906   8.448  0.0582 -0.1025  0.1729
29495W        W72408  24.307  27.539   7.567 -0.2662 -0.2850 -0.1398
29496W        W72409  31.951   2.371  22.484  0.2178  0.2525 -0.3933
29497W        W72410  17.786  34.169   6.596 -0.1412 -0.0513 -0.1095
29498W        W72411  24.976  29.599   7.588 -0.0432 -0.1648  0.0314
29499W        W72412  20.183   0.944   8.438 -0.0645 -0.0760  0.1126
29500W        W72413  32.914   2.515   7.403 -0.1636  0.1324 -0.0811
29501W        W72414  34.346  26.197   7.091  0.3993 -0.2458 -0.0484
29502W        W72415   1.110   2.598  27.751  0.0348 -0.0730  0.1380
29503W        W72416  15.088   0.126  24.443  0.1456 -0.4512 -0.2117
29504W        W72417  31.950   7.095  24.918 -0.2830  0.2777 -0.3543
29505W        W72418  27.494  21.803   3.969 -0.1644  0.0261  0.0667
29506W        W72419   1.838   7.520  24.457 -0.0909  0.0544 -0.0610
29507W        W72420  26.691  31.196   4.565 -0.1191 -0.1020  0.0873
29508W        W72421  20.561  32.461  29.304 -0.3236  0.1588 -0.0660
29509W        W72422  30.566  33.867  11.134 -0.0819 -0.2511  0.2538
29510W        W72423  30.552   5.475   4.461 -0.1500  0.1236  0.0600
29511W        W72424  33.962   4.884   3.415 -0.0286 -0.5711 -0.0253
29512W        W72425  29.698  29.119   8.085  0.0107 -0.1527  0.0191
29513W        W72426  24.399   1.750   5.487  0.1662  0.4363  0.0945
29514W        W72427  19.326  30.536   7.537 -0.3395  0.0961  0.1739
29515W        W72428  18.930   1.615  26.928  0.4434 -0.5207  0.1077
29516W        W72429  13.967  24.943  27.218 -0.2294 -0.2025  0.1847
29517W        W72430  15.589  33.372  26.913 -0.3946  0.0640  0.1594
29518W        W72431  17.719  14.507   7.443 -0.1840  0.1250 -0.1707
29519W        W72432  15.725   2.563   4.459 -0.1125 -0.0693  0.0778
29520W        W72433  33.936   6.219  11.999 -0.2494 -0.0500 -0.0313
29521W        W72434  25.248  30.055   1.344  0.0742  0.0027  0.1211
29522W        W72435  13.159  32.750   5.019 -0.0103  0.2575 -0.0196
29523W        W72436  27.110  31.178   8.675  0.1153  0.1745  0.0086
29524W        W72437  25.900  27.855   6.611  0.2067 -0.2544 -0.0375
29525W        W72438  21.481  25.939   5.134 -0.1774  0.0865 -0.0263
29526W        W72439   3.928   4.442   8.082 -0.0117  0.0142 -0.1873
29527W        W72440  14.163   1.506  10.974 -0.0726 -0.0647  0.0764
29528W        W72441  15.254  31.105  11.236 -0.4313 -0.2410  0.1682
29529W        W72442  33.374   8.985  10.023  0.0280  0.0230  0.0698
29530W        W72443  28.285   2.106   4.150  0.3385 -0.1457 -0.0905
29531W        W72444  30.239   7.472   6.024  0.1128 -0.2124 -0.0054
29532W        W72445   4.845   9.086   2.912  0.1165 -0.1051  0.0306
29533W        W72446  31.511  33.688   4.937 -0.2414 -0.2979 -0.0791
29534W        W72447  25.145   4.010   8.734 -0.1031 -0.0352 -0.1694
29535W        W72448  23.469   0.536   4.138  0.1565  0.0920  0.0400
29536W        W72449  13.074   1.252   5.270 -0.1678 -0.3269  0.3406
29537W        W72450  27.021   5.233   8.927  0.2334  0.2101  0.1176
29538W        W72451  27.549  32.586   2.778  0.2068 -0.1109 -0.3218
29539W        W72452  25.170   0.260   6.605 -0.1812  0.0626 -0.2384
29540W        W72453  19.188  27.899   2.974 -0.2330 -0.1636  0.1476
29541W        W72454  20.909  25.533   3.097 -0.0248  0.0791  0.3395
29542W        W72455  30.105   0.572   2.489 -0.2189 -0.1230 -0.2073
29543W        W72456  30.440  29.491  29.209  0.1044 -0.0782  0.4772
29544W        W72457  19.711   9.420   7.374  0.1145  0.4825  0.2388
29545W        W72458   1.326   0.843   6.870  0.1911 -0.2278  0.3034
29546W        W72459  18.695   7.574   9.195 -0.1768  0.2258  0.0156
29547W        W72460   7.181  32.485  11.286 -0.0281  0.1859  0.0601
29548W        W72461   2.924   7.524  12.481  0.0342  0.1467 -0.1831
29549W        W72462  27.434   7.999   7.792  0.0005  0.1411  0.1563
29550W        W72463  18.174  32.441   8.314 -0.0404  0.2950 -0.1596
29551W        W72464  30.173   2.315  10.307  0.0514 -0.2616  0.0234
29552W        W72465  29.394  25.316  29.425  0.3399 -0.0708  0.3109
29553W        W72466  32.885  23.890   8.070 -0.0083 -0.3705 -0.1121
29554W        W72467  29.614   1.710   7.117 -0.3333  0.4670 -0.0760
29555W        W72468  15.278  26.778   2.275  0.0043  0.2912  0.3160
29556W        W72469  32.433   3.005   2.183  0.5363  0.0058  0.0538
29557W        W72470   0.909   5.456  11.424 -0.1141 -0.0426 -0.0134
29558W        W72471   1.291   2.703   6.870 -0.0978  0.0392  0.2838
29559W        W72472  24.570  29.181   4.748 -0.1507 -0.0832  0.0191
29560W        W72473  16.118   1.760   5.009  0.2875 -0.0312  0.0642
29561W        W72474  20.053  28.491   8.187  0.0669  0.0299  0.1681
29562W        W72475  31.349   5.555   7.621  0.4131 -0.3122 -0.0663
29563W        W72476  25.827   4.538   6.720  0.1287 -0.0129 -0.0913
29564W        W72477  29.978  32.512   2.205  0.2233 -0.1916  0.4500
29565W        W72478   3.911   8.462   1.548  0.1177 -0.1232 -0.0760
29566W        W72479   1.827   0.902   0.408 -0.0374  0.2426  0.0590
29567W        W72480  26.347  14.941   1.515 -0.1580 -0.2821 -0.0990
29568W        W72481  25.446   4.433   5.438 -0.2189 -0.0606 -0.1439
29569W        W72482  28.558  27.849   6.378  0.1608 -0.1510 -0.3937
29570W        W72483  29.793   0.337   5.742 -0.2201 -0.0278 -0.0077
29571W        W72484   3.545   0.902   8.012  0.0018  0.0965  0.2584
29572W        W72485  24.938   6.235   3.834 -0.0164 -0.2000 -0.0797
29573W        W72486  14.063  11.391   3.430 -0.0727 -0.2794  0.1849
29574W        W72487  18.903  34.259   7.130  0.1892  0.0545 -0.2190
29575W        W72488  22.317   0.160   7.148 -0.0443  0.0525  0.3164
29576W        W72489  25.583  34.479   7.755  0.0342 -0.2114  0.2143
29577W        W72490  14.553   2.581  10.565 -0.4618 -0.0339  0.2317
29578W        W72491  14.165   0.694   7.537  0.3164  0.0081  0.0668
29579W        W72492  13.391  27.515   0.406 -0.1182 -0.5727  0.0174
29580W        W72493   1.609  24.317  10.827  0.1200  0.1490 -0.4442
29581W        W72494   8.407  31.924   2.620 -0.0218  0.3697 -0.1465
29582W        W72495  24.595  31.153   9.188 -0.0769  0.1305 -0.1795
29583W        W72496  18.822   3.635   8.917 -0.2195 -0.0365  0.0550
29584W        W72497  28.434  33.541   9.212  0.0887 -0.1186  0.2904
29585W        W72498  18.713   4.782   9.864  0.1363  0.0810 -0.2019
29586W        W72499  22.946  27.123   5.771 -0.0291 -0.1078 -0.0488
29587W        W72500   0.021   5.156  10.249  0.0423 -0.1481 -0.2561
29588W        W72501  10.292  13.006   1.245 -0.0097 -0.2040 -0.0973
29589W        W72502  24.319   3.106   9.819  0.0976  0.1192 -0.1156
29590W        W72503  26.366   2.105   4.523 -0.2393  0.1446 -0.0240
29591W        W72504  22.598   7.612   5.264 -0.2488 -0.0449 -0.0501
29592W        W72505  29.290  32.400   6.393 -0.0328 -0.0530  0.0503
29593W        W72506  26.019  27.910   3.164 -0.0573  0.1899 -0.4040
29594W        W72507  27.443   4.576   8.276 -0.0437  0.2918  0.1025
29595W        W72508   1.535  30.115  25.831  0.0654  0.0755 -0.2131
29596W        W72509  23.893   8.006   7.287 -0.0253  0.0355 -0.2861
29597W        W72510  23.567  31.754   5.749 -0.2799 -0.2370  0.1248
29598W        W72511  32.170   9.799   6.054 -0.2202 -0.0337 -0.0369
29599W        W72512  19.206  28.597   5.951  0.0611 -0.1067  0.0309
29600W        W72513  30.317   6.226  29.399 -0.1834 -0.1440  0.3142
29601W        W72514  28.526   5.925   9.117  0.1779  0.3244  0.3165
29602W        W72515  19.361   4.708   2.186 -0.1744 -0.1074 -0.2844
29603W        W72516  21.204  28.787  29.207 -0.2596 -0.0521  0.2077
29604W        W72517  25.446   5.859  10.062  0.1373  0.2244 -0.1804
29605W        W72518  25.673   1.129   6.190  0.3569 -0.0946  0.0747
29606W        W72519  20.441  32.906   8.822  0.0889 -0.1427 -0.0146
29607W        W72520  23.816   3.120   2.448 -0.1018  0.0817 -0.1811
29608W        W72521  27.171  24.769   5.506  0.1122  0.1610 -0.1700
29609W        W72522  26.938   7.717   9.375  0.2704 -0.0273 -0.1846
29610W        W72523  18.445   2.313   7.649  0.0488 -0.0004  0.3493
29611W        W72524   0.447   2.362   5.317 -0.2025 -0.3074  0.0748
29612W        W72525  13.597  30.113   8.492 -0.0704 -0.5435 -0.6127
29613W        W72526  29.121  30.544   3.466 -0.0681  0.0070  0.1478
29614W        W72527  17.429  33.973   1.732  0.1868 -0.0060  0.0541
29615W        W72528  25.045  25.948   3.712  0.0315 -0.0616 -0.0298
29616W        W72529  25.600   8.622   5.486 -0.0790  0.1771  0.5383
29617W        W72530  20.820  32.313   6.601 -0.0996  0.1731 -0.2235
29618W        W72531  30.380  33.874   9.056 -0.0210 -0.0154 -0.0893
29619W        W72532  31.014   9.016   6.038 -0.3425  0.1016  0.0386
29620W        W72533  13.117   8.156   2.545 -0.4937 -0.0189  0.1347
29621W        W72534  31.137   6.071   1.912  0.1184 -0.3959  0.0433
29622W        W72535  15.301  24.754  28.892 -0.3406 -0.0218  0.1219
29623W        W72536  19.094   1.576   0.704  0.0009 -0.1876 -0.2646
29624W        W72537  23.535   5.426   7.728 -0.1543 -0.1095  0.2200
29625W        W72538  19.229  19.408   6.137  0.2959 -0.2413 -0.0564
29626W        W72539  32.291   5.733  29.401 -0.2471 -0.1242 -0.1692
29627W        W72540  23.608  12.059   7.940 -0.1822 -0.1554  0.1744
29628W        W72541  28.654  33.683  10.405 -0.0377 -0.3095 -0.1697
29629W        W72542  21.799  26.659  24.386 -0.1745 -0.1029  0.0359
29630W        W72543  24.054  28.830   4.451  0.0227 -0.1447 -0.0347
29631W        W72544  23.858  26.753   4.768  0.2607 -0.0617  0.3565
29632W        W72545  29.658   2.434   4.802 -0.0579  0.0381 -0.0169
29633W        W72546   0.095  31.971  28.823 -0.0852 -0.1124  0.0754
29634W        W72547  17.147  30.793  25.758 -0.3718 -0.0130 -0.0583
29635W        W72548  28.185  30.746   7.684 -0.5436  0.0743  0.0619
29636W        W72549   1.388   6.293   6.586 -0.2271  0.0789  0.1430
29637W        W72550  24.219  14.773  29.313  0.0675  0.0608 -0.1650
29638W        W72551  27.933  30.915   5.089  0.0091 -0.1893  0.1034
29639W        W72552   8.858  31.880   5.666 -0.2757  0.3094 -0.1518
29640W        W72553  13.722  15.759  29.466 -0.2087  0.1823 -0.1643
29641W        W72554  18.361  30.669   1.318 -0.1456  0.0443  0.1250
29642W        W72555  32.138   8.803   4.105 -0.1174 -0.0839 -0.2572
29643W        W72556  32.496   6.235  10.837  0.2007  0.1056 -0.3674
29644W        W72557  32.063  27.595   3.292  0.0908 -0.4453 -0.2196
29645W        W72558  31.016   5.005   2.777  0.1258  0.1645 -0.0298
29646W        W72559  14.206   9.285   9.422 -0.3353 -0.2160  0.0007
29647W        W72560  24.897   5.156   6.255 -0.0055  0.0038 -0.1043
29648W        W72561  33.354   0.173  24.769  0.0669 -0.0177 -0.0910
29649W        W72562  25.865  28.921   6.534 -0.4799 -0.3122 -0.0783
29650W        W72563  15.693  10.852   4.176  0.0280 -0.0335  0.1004
29651W        W72564  12.751  32.039  12.338  0.1714 -0.0999  0.0219
29652W        W72565  31.057   1.872   0.684 -0.0991  0.0190  0.1267
29653W        W72566  26.805  31.899   8.190 -0.0672 -0.1993 -0.0374
29654W        W72567   3.908  22.493   4.986  0.1440 -0.0851 -0.2841
29655W        W72568  23.787  29.016   5.397 -0.1633  0.0945 -0.2844
29656W        W72569   6.262  11.390  26.476 -0.2238 -0.0319 -0.0134
29657W        W72570  29.110  10.380   6.030  0.0024  0.0634  0.3680
29658W        W72571  19.861   0.126   6.991  0.0403 -0.3574  0.0630
29659W        W72572  17.265  23.013   3.503 -0.1496 -0.0600 -0.0257
29660W        W72573  27.859  21.510   6.167  0.1127 -0.3510  0.1182
29661W        W72574  24.731   1.476   5.207  0.0418 -0.1214 -0.0534
29662W        W72575  14.330  30.001   6.366  0.4046 -0.0387  0.1214
29663W        W72576  33.445  33.728   6.682 -0.0381 -0.0520  0.0093
29664W        W72577  16.329  28.538   9.822 -0.5016  0.1633 -0.0558
29665W        W72578  20.114  26.996   3.775  0.1597 -0.0984  0.4000
29666W        W72579  26.191   3.769   5.741  0.1506 -0.0608 -0.3285
29667W        W72580   2.386   2.743  11.202  0.2909  0.2481  0.2150
29668W        W72581  11.461   8.940   7.028 -0.0695  0.0828  0.1644
29669W        W72582  29.714  32.739   6.439  0.0023  0.0305  0.0013
29670W        W72583  11.895   4.789   7.976 -0.0599  0.2126  0.0819
29671W        W72584   0.937   1.660   5.425  0.0447  0.2043  0.2795
29672W        W72585  18.103  32.155   9.274  0.3768 -0.0843 -0.1181
29673W        W72586  30.717  26.074   9.279 -0.0587 -0.2179 -0.1253
29674W        W72587  22.969   8.015   4.067  0.0905 -0.2224 -0.2192
29675W        W72588  19.086   3.727   8.282 -0.1497  0.0888 -0.1397
29676W        W72589  12.126  32.790  11.717  0.0230  0.0840  0.0472
29677W        W72590  17.785   7.671   5.681 -0.2818  0.3646 -0.1177
29678W        W72591  28.257   1.453   1.089 -0.2069  0.0661  0.0895
29679W        W72592  21.568  31.659   8.142  0.3935 -0.0603  0.1200
29680W        W72593   8.089   0.217   6.686  0.1114 -0.2505  0.0209
29681W        W72594  22.168  28.260   5.737 -0.0612  0.0128  0.0300
29682W        W72595   5.956   4.261  11.425  0.2848 -0.1687 -0.2221
29683W        W72596  25.761  32.643   5.520  0.0148 -0.2913 -0.0868
29684W        W72597  15.372  30.720   0.645 -0.0440  0.2080  0.2360
29685W        W72598   2.341   1.018   9.641  0.0619 -0.1174 -0.3162
29686W        W72599  26.728   7.473   5.684 -0.1771 -0.0398  0.1391
29687W        W72600  32.188  26.712   9.256 -0.0314 -0.2805  0.1799
29688W        W72601  26.061   0.740   6.268  0.1196 -0.1364  0.1950
29689W        W72602  26.824   2.126   6.862  0.1980  0.0221  0.0355
29690W        W72603   8.672  29.868  10.363  0.0780  0.2327  0.0498
29691W        W72604  24.890   4.212   9.795 -0.4047  0.2931  0.3699
29692W        W72605  14.456   2.780  11.889 -0.1438 -0.2624 -0.1082
29693W        W72606   1.292   8.965   7.134  0.1301 -0.1000  0.0114
29694W        W72607  18.034  31.373  25.913 -0.0231  0.6989  0.1975
29695W        W72608  25.045  28.745  27.939 -0.0181 -0.2679  0.1503
29696W        W72609  28.098  28.062   4.819  0.0398 -0.1434  0.1734
29697W        W72610  21.962   0.000   9.306  0.3579  0.1052 -0.0624
29698W        W72611  25.940   3.958   3.021  0.2655 -0.0250 -0.1943
29699W        W72612  23.418   0.710   5.281  0.0303  0.0673  0.2834
29700W        W72613  31.997  27.176   5.956  0.1218  0.2525 -0.1363
29701W        W72614  25.000   5.764   7.700 -0.3079 -0.1549 -0.1722
29702W        W72615  22.844   8.550   8.655  0.0897 -0.1511  0.1714
29703W        W72616  25.467   9.565  28.230 -0.0755  0.1605 -0.0504
29704W        W72617   7.915  33.399   7.965 -0.5021 -0.0804  0.0893
29705W        W72618  17.618  26.894   5.236  0.0301 -0.1121 -0.2016
29706W        W72619   0.119   8.683   9.380  0.3315 -0.0121 -0.2623
29707W        W72620  15.984  32.550  10.217 -0.1115 -0.1290 -0.1344
29708W        W72621  17.797  31.557   7.641  0.0028 -0.0458 -0.0890
29709W        W72622  27.036  18.151  27.330  0.2864  0.1129 -0.1204
29710W        W72623  20.114  24.511   8.463  0.0801  0.1560 -0.0363
29711W        W72624   4.216   7.916   6.434 -0.1073 -0.3257  0.1740
29712W        W72625  28.057  24.719   8.040  0.1205  0.1342  0.1650
29713W        W72626  28.196   3.969   8.107  0.0743  0.3400  0.2173
29714W        W72627  30.312   3.045   6.473  0.0876  0.1640 -0.0538
29715W        W72628  18.947  26.151   8.770 -0.1326  0.0249  0.2195
29716W        W72629   0.255  26.688   4.635  0.0095 -0.1539 -0.2451
29717W        W72630  24.275  22.565  24.905 -0.4383 -0.0337  0.1542
29718W        W72631   1.626  28.104   3.941 -0.2378  0.3484 -0.2955
29719W        W72632  30.377  12.216   7.459 -0.1319 -0.2846 -0.1839
29720W        W72633  27.469  29.082   2.319 -0.0444 -0.0123 -0.3669
29721W        W72634  32.027   2.888   6.376 -0.1810  0.0995  0.1088
29722W        W72635  20.983   2.306   7.385  0.1226 -0.1372 -0.0374
29723W        W72636  21.742  31.354   0.097  0.0607 -0.0575  0.2280
29724W        W72637  23.454  17.519   1.402 -0.1587  0.1715  0.0357
29725W        W72638  23.419  34.274  27.877 -0.4245 -0.1865  0.0742
29726W        W72639  31.016  33.821  10.324  0.2048 -0.0707  0.0144
29727W        W72640  27.061  30.165   3.633  0.2680 -0.0985 -0.1986
29728W        W72641  31.005  33.799   4.048 -0.2638  0.1058 -0.0891
29729W        W72642  16.813   1.947   4.994  0.0753 -0.1390 -0.1238
29730W        W72643  23.159   5.122   1.748  0.2420  0.1997 -0.2897
29731W        W72644  24.939   1.081  23.728  0.1162 -0.0595  0.1263
29732W        W72645  24.484   9.721   8.624 -0.0206  0.0173 -0.3068
29733W        W72646  29.094  33.623   7.016 -0.0739 -0.0993 -0.2201
29734W        W72647  20.246   2.492   7.783 -0.0556 -0.1839  0.0593
29735W        W72648  31.070   6.980   9.431  0.0361 -0.0912  0.1020
29736W        W72649  28.835   1.335   8.727 -0.1882  0.1553  0.1130
29737W        W72650  32.823   7.125  24.353  0.1529  0.2974  0.2076
29738W        W72651  33.690  33.412   5.452  0.1825  0.0053 -0.0670
29739W        W72652  31.595  13.159   1.598  0.3497 -0.1491 -0.2313
29740W        W72653   3.682  33.937  10.364  0.0890 -0.0846 -0.1632
29741W        W72654   1.144  32.025   0.968 -0.3117  0.0948 -0.0243
29742W        W72655  22.060  33.331   3.263  0.0207  0.0365  0.2396
29743W        W72656  34.489  33.776  10.714  0.1128  0.2206  0.1639
29744W        W72657  28.153   4.603   8.948  0.1070  0.0703  0.2132
29745W        W72658  23.099  32.080   2.889 -0.1100  0.0858 -0.5198
29746W        W72659  25.840   0.333  22.470  0.0599 -0.3069 -0.1542
29747W        W72660   3.368   0.530   7.676  0.0869 -0.2326 -0.1475
29748W        W72661  17.075   9.432  26.133 -0.0118  0.2097 -0.0087
29749W        W72662  31.945   0.894   4.869  0.3926  0.0521 -0.1660
29750W        W72663   4.564  33.084   8.221  0.3060  0.3072 -0.1058
29751W        W72664  32.850  29.912  20.368 -0.0385 -0.3315  0.1205
29752W        W72665  25.577   8.581   1.465  0.3810  0.0289 -0.1012
29753W        W72666  14.663   7.966   5.198  0.2774  0.1212  0.0106
29754W        W72667  24.689   4.555   0.273 -0.0241  0.1676 -0.1391
29755W        W72668  15.300  12.787   5.757 -0.1091 -0.4192  0.2087
29756W        W72669  32.373   4.794   9.587 -0.0517 -0.0484 -0.0618
29757W        W72670  23.225   4.852   8.432 -0.0446 -0.1553  0.0963
29758W        W72671  29.834   3.959  22.499 -0.1858  0.1000 -0.0429
29759W        W72672   9.483  31.325   0.816  0.0320 -0.3260 -0.2166
29760W        W72673  22.405  15.067  29.090 -0.3655  0.6469  0.3975
29761W        W72674  14.601  27.941  24.351 -0.0118  0.1499  0.0451
29762W        W72675  21.412   0.450   5.784  0.1572 -0.4996 -0.0442
29763W        W72676  27.961  11.956  23.003  0.0816 -0.1019  0.0225
29764W        W72677  30.305   7.155   4.061 -0.0270  0.1172 -0.2496
29765W        W72678   6.618  12.226   3.806 -0.0214 -0.0865 -0.0784
29766W        W72679  21.056  31.294   6.514 -0.0392  0.0029 -0.1258
29767W        W72680  24.935   1.245   1.653  0.4374  0.0032  0.1471
29768W        W72681  20.724   7.258  19.879 -0.2006  0.0319  0.0728
29769W        W72682   1.668   4.590   9.434  0.0891 -0.3219  0.0478
29770W        W72683  20.821   9.505  26.159  0.0087  0.1588  0.1610
29771W        W72684   6.005   8.390   2.410 -0.5374 -0.1379 -0.2649
29772W        W72685  30.054   6.064   8.763 -0.2333  0.1890  0.0663
29773W        W72686  20.425   9.568  27.435  0.0521  0.0975  0.0645
29774W        W72687   1.763   1.954  22.119  0.0201  0.1493 -0.2692
29775W        W72688  27.164  11.577   7.469 -0.2852  0.0475 -0.2050
29776W        W72689  11.577   2.761  25.500  0.0787 -0.0797 -0.2274
29777W        W72690  26.286  33.177   9.456  0.1122  0.1911  0.0620
29778W        W72691  24.177   5.356  28.309  0.2616 -0.3134 -0.2370
29779W        W72692   9.982   8.326  29.034  0.0522 -0.0150 -0.0359
29780W        W72693  16.557  21.551  28.297  0.1900 -0.1000  0.1341
29781W        W72694  32.994  33.930   2.380 -0.1933  0.0675 -0.1683
29782W        W72695   3.710   6.627   0.859  0.0244 -0.3321 -0.1512
29783W        W72696  19.234  28.976  24.868 -0.0841  0.0799  0.0996
29784W        W72697   3.753  11.766   7.494 -0.0819  0.1089  0.3022
29785W        W72698  20.497  11.369   0.773 -0.3036 -0.0449  0.0530
29786W        W72699   2.861  10.801  23.990 -0.3720  0.0089 -0.2416
29787W        W72700  27.998   7.044  28.520 -0.1910 -0.0367  0.3067
29788W        W72701  28.819  32.168   8.902  0.5221 -0.2346 -0.0410
29789W        W72702  28.900  30.358   8.278 -0.2225 -0.0649 -0.1997
29790W        W72703  26.707   1.951  24.599 -0.0999  0.2006 -0.1128
29791W        W72704  27.605   0.190   4.142  0.5010 -0.2060 -0.0335
29792W        W72705  31.766   3.360  25.229  0.1035 -0.2588 -0.2167
29793W        W72706  21.367  26.027   3.032 -0.0994 -0.1306 -0.3189
29794W        W72707  24.520   1.823   6.491 -0.0172  0.2264  0.3323
29795W        W72708  25.721   2.915   2.895 -0.3104 -0.0734  0.1569
29796W        W72709  20.651   9.998   6.880  0.0758  0.0191 -0.3502
29797W        W72710  26.545   4.413   6.525  0.4680  0.2373 -0.0059
29798W        W72711  19.968   0.374   6.244 -0.2565  0.2411  0.3396
29799W        W72712  18.379   3.920   8.964 -0.3932 -0.0136 -0.0977
29800W        W72713  27.505   2.494  29.152  0.1557  0.2570 -0.3044
29801W        W72714  22.744   6.987   8.914  0.2464 -0.1403  0.3068
29802W        W72715   6.173  32.219  27.406 -0.0890  0.0388  0.1396
29803W        W72716  29.006   8.273   0.194 -0.1057  0.2110  0.0067
29804W        W72717  24.542  12.785   6.524  0.0322  0.0477 -0.0467
29805W        W72718  28.610  10.255  24.668 -0.3031  0.1965 -0.2535
29806W        W72719  20.430  34.139   6.231 -0.0524  0.3288  0.2134
29807W        W72720  23.590  32.902  27.340 -0.0376  0.2394 -0.0691
29808W        W72721  14.039   9.574  29.012 -0.1033 -0.2472 -0.1172
29809W        W72722  22.427   0.524   6.427  0.1386  0.0856  0.2492
29810W        W72723  20.431  29.225   2.495  0.1475 -0.2866 -0.0868
29811W        W72724   3.099   1.672  24.796  0.3236 -0.1544  0.0185
29812W        W72725  18.601   0.663  28.183  0.1799 -0.1754  0.1884
29813W        W72726  20.332   5.075  26.998 -0.1644  0.0943  0.0358
29814W        W72727  16.384   5.597   2.225 -0.0649 -0.0200 -0.3260
29815W        W72728  21.285  14.305  20.509 -0.1664  0.0248  0.2055
29816W        W72729  33.058  28.621   1.049 -0.0458 -0.4010  0.0261
29817W        W72730  32.615   1.486   3.111 -0.3386  0.2418  0.1819
29818W        W72731  31.612   2.040   5.276 -0.1740  0.1321  0.0478
29819W        W72732  13.358  10.979   6.757 -0.0733  0.0570  0.2887
29820W        W72733  31.686   5.934   1.045 -0.2256 -0.0986 -0.2999
29821W        W72734  15.890  22.160  22.940 -0.3777  0.0988 -0.0131
29822W        W72735  34.289   1.446   2.577 -0.0319 -0.0680  0.0490
29823W        W72736  31.151  34.010   2.224 -0.2751 -0.3588  0.1240
29824W        W72737  17.367  12.449   7.178  0.3244  0.0674 -0.2216
29825W        W72738  16.841  31.361   4.220  0.3074 -0.0675 -0.0601
29826W        W72739  20.152  20.167  24.086 -0.0821  0.0914  0.0730
29827W        W72740  31.195   1.671   9.461 -0.0686  0.3962 -0.4854
29828W        W72741  26.352   8.363   1.200  0.1632  0.0717  0.1021
29829W        W72742  28.168   3.396   8.072 -0.3936  0.0232  0.2166
29830W        W72743  31.390  13.478   9.352 -0.0333 -0.1045  0.0333
29831W        W72744  32.057  28.423   8.427 -0.0647 -0.2928 -0.1785
29832W        W72745  25.996  21.406  24.738 -0.0964 -0.1655 -0.0215
29833W        W72746  21.810  33.965  21.979  0.2272  0.5532  0.0730
29834W        W72747  22.583  32.370   4.632 -0.1336 -0.2904 -0.0109
29835W        W72748  28.530   3.899  22.791  0.2036  0.1178 -0.1321
29836W        W72749  21.682   2.130   7.868  0.0152 -0.0965 -0.1185
29837W        W72750  20.230  30.900  25.253 -0.2562 -0.0885  0.2795
29838W        W72751  21.155  32.428   2.705  0.0571 -0.0082 -0.0633
29839W        W72752  34.312   2.888   6.858 -0.0189  0.0407 -0.3125
29840W        W72753  29.595  23.058   1.568  0.0990  0.2010 -0.2070
29841W        W72754  29.608  32.857  10.731  0.2343  0.3797  0.0104
29842W        W72755  30.865  34.455   6.067 -0.0232 -0.0935  0.0473
29843W        W72756   0.971   3.232  24.435 -0.3272 -0.1178  0.2274
29844W        W72757  28.598   5.198   6.907  0.1527  0.3753 -0.0284
29845W        W72758  12.225  20.698  21.855  0.0671  0.0720 -0.1586
29846W        W72759  33.883  13.746   0.967  0.2408 -0.3986 -0.1731
29847W        W72760  30.654   0.102  29.690  0.2017  0.2572  0.1036
29848W        W72761  27.834   6.302   2.715  0.1811  0.1617 -0.0081
29849W        W72762  24.650  29.741  28.590 -0.1471  0.3603 -0.1845
29850W        W72763  24.844   0.697   3.782  0.2270  0.0378  0.0713
29851W        W72764  16.709  32.900   6.215  0.1842 -0.1188  0.0596
29852W        W72765  27.021   8.501   9.868  0.2086  0.0132  0.1496
29853W        W72766   2.503   3.113   7.770  0.1725  0.0606 -0.2940
29854W        W72767   0.592  34.492   4.943  0.0396  0.1334  0.0286
29855W        W72768  28.858  27.171   1.331 -0.1092 -0.0181  0.0502
29856W        W72769   1.554   4.785  24.672 -0.1200  0.2751  0.0383
29857W        W72770  32.051   3.263   4.994 -0.1033 -0.1710 -0.0758
29858W        W72771  15.987  27.660  26.650  0.0821 -0.0930 -0.0698
29859W        W72772   4.589  33.501  22.952 -0.0208 -0.2474 -0.0078
29860W        W72773  31.581   6.417  29.518 -0.0490  0.2902 -0.0010
29861W        W72774  28.084   8.119   2.175 -0.1018  0.1176 -0.0176
29862W        W72775  22.586  30.068  28.599 -0.2409  0.0324  0.1190
29863W        W72776  29.819   0.298  22.925 -0.2171 -0.0182 -0.0362
29864W        W72777  20.952  32.633  17.804 -0.1653  0.0580 -0.1501
29865W        W72778  23.895  11.544   4.650  0.2231 -0.0550 -0.0105
29866W        W72779  18.568   5.593   3.624 -0.0997 -0.0434 -0.1412
29867W        W72780  33.442   7.611  10.360 -0.1459 -0.1330 -0.4550
29868W        W72781  20.136  30.928   7.205 -0.1491  0.2772  0.2907
29869W        W72782   2.352   2.640   9.920  0.1825  0.1291 -0.0166
29870W        W72783  25.229   6.066  25.685 -0.2398  0.1223  0.0920
29871W        W72784  23.878  30.695  26.392 -0.1114  0.2955 -0.0175
29872W        W72785  20.424   8.951   0.955 -0.1909  0.0853 -0.0856
29873W        W72786  24.295   0.691  28.824  0.0530  0.0319 -0.1137
29874W        W72787   1.332   3.384  27.064  0.0154  0.3089  0.1018
29875W        W72788  23.626  24.576   2.363 -0.3126  0.3955 -0.0320
29876W        W72789  18.801   9.335  27.732 -0.0074  0.0223  0.0691
29877W        W72790  27.976   7.755   0.099  0.1297  0.1656  0.1105
29878W        W72791  30.466  27.639   2.319 -0.0743 -0.2406 -0.2746
29879W        W72792   5.123  10.941  25.609  0.3527  0.1630  0.0070
29880W        W72793  30.146  27.692   3.701 -0.1079 -0.1719  0.2731
29881W        W72794  27.448  29.296   0.732 -0.0227  0.0924  0.0519
29882W        W72795  20.440   2.335   7.342  0.0654 -0.2133 -0.0347
29883W        W72796   0.816   6.250  12.616 -0.5528 -0.1188  0.1441
29884W        W72797  17.070  28.815   4.959 -0.2349 -0.1682 -0.1860
29885W        W72798  26.950   2.020   1.262 -0.0598 -0.0327 -0.3013
29886W        W72799  28.060   4.867   0.604 -0.0410  0.0891  0.2328
29887W        W72800  22.165  21.472   3.799 -0.0606  0.1292  0.1734
29888W        W72801  30.634  32.668   1.094  0.2824 -0.2433 -0.1849
29889W        W72802  14.687  31.810   1.114  0.0800  0.0784 -0.2173
29890W        W72803  16.488  31.653  19.828 -0.2259 -0.0836  0.0816
29891W        W72804  12.645  24.741   0.558 -0.0979 -0.2192 -0.3353
29892W        W72805  28.113   7.084   8.099 -0.1176  0.1395  0.0988
29893W        W72806  29.002  34.328   1.246  0.1269 -0.0173 -0.0073
29894W        W72807  27.567  28.657   9.618  0.0663  0.1503  0.1676
29895W        W72808  31.397  22.899  27.933  0.6095 -0.1145 -0.3542
29896W        W72809  16.974  31.808   7.604 -0.1515  0.0472  0.1127
29897W        W72810  34.109   9.823   6.522  0.3580  0.0229  0.2191
29898W        W72811  32.021   3.497   4.581  0.1246  0.0047  0.0744
29899W        W72812  15.635  15.823  25.246  0.1922  0.0621  0.1770
29900W        W72813  21.841   1.543  23.220  0.2254  0.0874 -0.1338
29901W        W72814  29.282  28.642  29.092 -0.0776  0.0980  0.2213
29902W        W72815  27.308   8.109   9.644 -0.0405 -0.0189 -0.0390
29903W        W72816   0.990  23.773   1.548 -0.2967  0.1886 -0.4601
29904W        W72817  22.216   3.166  29.466 -0.2220  0.2146 -0.0875
29905W        W72818  18.163  22.277  24.403 -0.0872  0.2521 -0.2215
29906W        W72819  23.959  19.492  26.591  0.3988 -0.0666 -0.2688
29907W        W72820  25.410   3.861  25.155 -0.2719  0.1263  0.1327
29908W        W72821  28.780   8.909  17.268 -0.3767 -0.0266 -0.0400
29909W        W72822  27.459  30.887   1.503  0.0843 -0.2402  0.2204
29910W        W72823  16.678   8.498   3.350 -0.1242  0.1432  0.2703
29911W        W72824  32.059   2.321  28.779 -0.1846 -0.2112 -0.0658
29912W        W72825  26.228  33.378  26.603  0.0437 -0.0510  0.1025
29913W        W72826  29.511   6.792   9.316  0.1388  0.1840  0.2039
29914W        W72827  20.403  29.398   3.896 -0.2532  0.2308  0.2779
29915W        W72828  24.653   2.896  27.805  0.1247 -0.2127  0.1117
29916W        W72829  32.943   1.158   3.862  0.1926  0.1777  0.1416
29917W        W72830  32.312   0.413   8.887  0.1167 -0.1965 -0.0052
29918W        W72831  27.087  18.426   6.022  0.2872  0.1150  0.1469
29919W        W72832  19.145  29.973  26.564  0.0598 -0.1336  0.0662
29920W        W72833  21.570   1.135  24.824 -0.4025 -0.0444 -0.1819
29921W        W72834  27.353  31.303   6.255  0.1986 -0.1648 -0.2874
29922W        W72835  25.692  30.646  27.471 -0.1214 -0.0202 -0.3589
29923W        W72836  31.610   2.491   5.539  0.6176  0.1560  0.0064
29924W        W72837  33.163  33.058   4.843 -0.3631  0.2082  0.3339
29925W        W72838  21.634  33.143   1.193  0.0054 -0.0406  0.0588
29926W        W72839   0.728   6.080   0.077  0.2326 -0.0489 -0.2056
29927W        W72840  33.222  31.992   8.834  0.0613  0.2596 -0.0297
29928W        W72841  28.738   1.995   6.389  0.0123 -0.3703  0.0566
29929W        W72842  11.092   4.561  20.555  0.2723  0.2430  0.0393
29930W        W72843   1.799   6.696   9.026  0.0463  0.0934 -0.3066
29931W        W72844  32.241  30.624   7.572 -0.0349  0.0334 -0.0725
29932W        W72845  20.624  31.541   0.567  0.1175  0.0477  0.1981
29933W        W72846  29.263  25.793   3.693 -0.1542 -0.0433  0.0924
29934W        W72847  33.365   6.170   8.214 -0.0984  0.3415  0.2360
29935W        W72848   5.797   0.593  28.156 -0.1609 -0.1053 -0.1101
29936W        W72849  21.273   5.565  27.145  0.1806 -0.0864 -0.0077
29937W        W72850  31.715   7.819   3.082  0.0128  0.1358 -0.0482
29938W        W72851  32.247  28.091   4.136  0.1539 -0.0805 -0.0210
29939W        W72852  23.626   3.453  25.792 -0.2196 -0.0022  0.4631
29940W        W72853  22.505   8.724   2.935 -0.0824 -0.1453 -0.0835
29941W        W72854  24.131   2.445  26.844 -0.0891  0.2521  0.0491
29942W        W72855  17.401  30.717   3.210  0.3119 -0.1947  0.0706
29943W        W72856  29.973   3.356  24.906  0.1307 -0.1169 -0.4674
29944W        W72857  29.732  34.385   1.648 -0.2117  0.1256 -0.0882
29945W        W72858  17.056  31.963   2.925  0.2519 -0.0795 -0.0847
29946W        W72859  28.095   4.271  28.624  0.1176  0.3965  0.0248
29947W        W72860  33.584   2.500  24.746  0.1513 -0.0156  0.1861
29948W        W72861  30.168  34.260  28.632  0.3108  0.1673 -0.2200
29949W        W72862  21.772   5.214   6.563 -0.0958  0.1616 -0.0621
29950W        W72863  25.485   8.500   2.931  0.1192 -0.2082 -0.0510
29951W        W72864  21.298  25.487  27.121  0.2357 -0.1092  0.0686
29952W        W72865  26.311   4.603   2.221 -0.3050 -0.0316 -0.1043
29953W        W72866   3.652   9.119   8.811  0.2195 -0.2759  0.2709
29954W        W72867  15.042   0.977  26.101 -0.0425 -0.1800  0.0437
29955W        W72868  23.914   0.448  28.585  0.3732 -0.1148 -0.1811
29956W        W72869  30.432   8.370   9.733 -0.0459  0.2484  0.3750
29957W        W72870  32.542   8.097  24.545 -0.1404 -0.0780  0.0255
29958W        W72871  23.597   4.064   3.911  0.1367 -0.0730 -0.1058
29959W        W72872  18.378  33.329   8.253 -0.2082  0.0981 -0.1017
29960W        W72873  25.331  34.066   5.906 -0.0132 -0.0110 -0.0435
29961W        W72874  33.915   9.180  26.170  0.0858 -0.0474 -0.2216
29962W        W72875  32.629  31.621   4.370  0.0868  0.2095  0.1551
29963W        W72876  22.325  10.874   6.384  0.1768 -0.3798 -0.0613
29964W        W72877  27.527  30.403   2.692  0.0538  0.1690 -0.0575
29965W        W72878  26.698  25.566   8.447 -0.0378  0.0682 -0.0747
29966W        W72879   1.403   1.457   3.382 -0.1394  0.0610 -0.0484
29967W        W72880  23.947   6.779  22.979  0.2115  0.3116 -0.5217
29968W        W72881  20.516   4.209   8.354 -0.1159  0.0579 -0.0829
29969W        W72882  25.648  21.383  23.734 -0.2269  0.0926  0.0646
29970W        W72883  24.455  27.872   1.207 -0.1154  0.1920  0.0467
29971W        W72884  11.051  30.435   5.167 -0.0826  0.3194  0.1172
29972W        W72885  24.885  32.871   0.854  0.3663 -0.0818 -0.1292
29973W        W72886  27.144  12.083   1.930  0.0669 -0.0125  0.1607
29974W        W72887  29.191   2.000   0.999  0.3296 -0.1577  0.2064
29975W        W72888  29.261  31.906   9.858  0.1599 -0.2995 -0.0298
29976W        W72889  23.165   2.779   6.663  0.1142 -0.2007 -0.3127
29977W        W72890  16.599  16.780  27.389  0.0979 -0.1649  0.0181
29978W        W72891  25.742   1.858   1.891 -0.0168  0.0628  0.0612
29979W        W72892   4.372   3.655   4.916  0.3911  0.1207 -0.2078
29980W        W72893  29.587  26.446   2.822  0.3965  0.0508  0.1506
29981W        W72894  13.186   3.597   5.774  0.3010 -0.1740 -0.1133
29982W        W72895  30.638  18.730   6.092  0.1230 -0.2348  0.0219
29983W        W72896  15.921  26.164  18.229 -0.1461 -0.1301 -0.4571
29984W        W72897  27.841   2.972  27.522 -0.2028 -0.1143  0.2881
29985W        W72898   4.742  26.736   8.467  0.2025  0.0767  0.0417
29986W        W72899   6.382   6.629   1.736 -0.5640 -0.2508 -0.0030
29987W        W72900  31.244   4.307  28.025 -0.0325 -0.1844 -0.0284
29988W        W72901  26.973   7.744  24.854  0.1517 -0.0710  0.0298
29989W        W72902  26.803  30.303   1.864  0.0847 -0.1003 -0.2797
29990W        W72903  20.296  33.570   6.407  0.1317 -0.0777  0.5532
29991W        W72904   1.527   2.320  23.909 -0.0299 -0.1669 -0.5674
29992W        W72905   3.874  31.553  10.421  0.2838 -0.2272 -0.0626
29993W        W72906  29.119  17.549  27.327 -0.1523  0.0747  0.3203
29994W        W72907  17.019   8.859   0.220  0.3191  0.0128 -0.2614
29995W        W72908  27.357   7.268  23.241  0.1847 -0.1535  0.1057
29996W        W72909  29.082  32.932   4.011 -0.1920 -0.0699  0.1628
29997W        W72910  28.151  15.221   8.660 -0.2741 -0.3146 -0.0790
29998W        W72911  26.172   7.219  26.672 -0.0143 -0.0325 -0.3071
29999W        W72912  29.490  15.497   0.227 -0.3316  0.0639  0.0688
30000W        W72913  15.831  27.219  29.229 -0.1279 -0.0416 -0.1651
30001W        W72914  26.967  11.392  26.748 -0.1555 -0.2648 -0.6689
30002W        W72915  13.117   0.365   5.010  0.0097 -0.3592 -0.1087
30003W        W72916  17.676  25.134  29.222 -0.0371 -0.1797  0.1555
30004W        W72917  34.327  34.105   0.404  0.1814 -0.1669  0.1984
30005W        W72918  26.812  14.336   2.279 -0.0700  0.1607  0.0973
30006W        W72919  26.788  33.459   5.497  0.3390  0.2399 -0.1068
30007W        W72920   6.818   5.222  21.914  0.1432  0.2601  0.1926
30008W        W72921  23.237  33.871  24.438 -0.0253 -0.2362  0.1250
30009W        W72922  24.094  31.962   3.467  0.0013 -0.1580  0.0716
30010W        W72923  18.119  27.338   1.151  0.0292 -0.1784  0.2167
30011W        W72924  22.368  12.804  29.287  0.0750 -0.0068  0.1266
30012W        W72925  22.069  29.560  27.633 -0.1758  0.0693  0.0767
30013W        W72926   0.737  11.416  24.278  0.1160 -0.3323  0.2212
30014W        W72927  25.213  33.501   0.678  0.1334 -0.1387 -0.0668
30015W        W72928   3.010   5.362   3.495 -0.2647 -0.0461 -0.1962
30016W        W72929  29.859  14.102   9.045 -0.1973 -0.4085  0.1083
30017W        W72930  22.237   3.131   4.352 -0.1338 -0.2433  0.2235
30018W        W72931   1.744  27.170   0.055 -0.0257  0.0068 -0.1878
30019W        W72932   0.911  31.324  28.707  0.0817  0.0551  0.2886
30020W        W72933  30.911  31.464   8.089  0.0427  0.0378 -0.0563
30021W        W72934   3.596   6.765  27.061 -0.3461 -0.1539  0.0106
30022W        W72935  23.496  10.331   3.458 -0.0243  0.1689  0.1799
30023W        W72936  19.736   3.024   4.352  0.0241 -0.2503 -0.2478
30024W        W72937  33.169   1.110   3.382  0.3355  0.2330  0.0654
30025W        W72938   0.720  32.324   6.195 -0.1716 -0.1107 -0.1718
30026W        W72939   4.112  18.117   3.384  0.2203 -0.1486  0.0422
30027W        W72940  23.664  11.716   7.063 -0.2612 -0.2293  0.1365
30028W        W72941  23.233   8.222   5.494 -0.3434 -0.2202 -0.0247
30029W        W72942  25.924  32.010  24.355  0.0156 -0.0755  0.0922
30030W        W72943  18.904   1.033   8.784  0.2376  0.1278  0.3367
30031W        W72944  22.929   6.474   3.070  0.2420 -0.1667 -0.0847
30032W        W72945  32.671   6.983   2.575  0.0665  0.2183  0.2120
30033W        W72946  22.580  28.263   7.652 -0.0603 -0.0178  0.2215
30034W        W72947   0.268   7.338   2.198 -0.0646  0.0507 -0.0196
30035W        W72948  22.530  33.989   0.294 -0.2820 -0.2139 -0.1496
30036W        W72949  28.164  30.200  28.694 -0.1847 -0.1250 -0.0587
30037W        W72950  29.930  22.056   1.008  0.2601 -0.3517 -0.0847
30038W        W72951  25.791  33.183   8.877  0.0714  0.0701  0.0682
30039W        W72952  29.970   1.710  18.069 -0.2316 -0.0883 -0.1206
30040W        W72953  29.494   9.728  24.563 -0.0743  0.2356  0.0179
30041W        W72954  31.960   5.526   5.191  0.1976  0.4827 -0.0300
30042W        W72955  16.487   0.902   8.362  0.0600 -0.2578 -0.0996
30043W        W72956  27.540  10.625   4.656  0.0961 -0.0663  0.0727
30044W        W72957  22.681   1.016  23.983 -0.0990  0.0453 -0.0898
30045W        W72958  24.811   5.956  26.594 -0.1490  0.1766 -0.2134
30046W        W72959  26.457  31.283  25.254 -0.5754  0.1035 -0.0446
30047W        W72960  26.962  34.462   9.009 -0.0141  0.1022 -0.0465
30048W        W72961  26.560   4.374  25.792  0.0508 -0.2005 -0.2556
30049W        W72962   4.580  10.097   9.202 -0.3826  0.1994  0.1337
30050W        W72963  25.952   2.978   3.661  0.2196  0.2460 -0.0772
30051W        W72964  19.744  31.048   0.703  0.0219  0.1976 -0.0222
30052W        W72965  26.934  34.046   4.618  0.2540  0.3935  0.2887
30053W        W72966  17.339   6.291  26.658 -0.1761 -0.1648 -0.3012
30054W        W72967  21.728  32.482  24.742  0.2397  0.0070  0.4955
30055W        W72968  27.450  11.062  28.504  0.1360 -0.1217 -0.1787
30056W        W72969  24.087   2.665   5.241 -0.1261  0.0728 -0.0107
30057W        W72970  27.825   3.672   1.338 -0.1018  0.3791  0.0028
30058W        W72971  19.093   6.744   1.137  0.2171  0.0034  0.1084
30059W        W72972  24.715   9.099  27.518  0.0094 -0.0497  0.1201
30060W        W72973  23.515   4.573   1.902  0.0293 -0.2090 -0.1746
30061W        W72974  17.991   6.049   1.244  0.1390  0.0151  0.1243
30062W        W72975  19.624  34.487  26.470  0.0730  0.0970  0.0161
30063W        W72976  13.413   6.857  22.621  0.2308 -0.1390 -0.1423
30064W        W72977  26.767  32.198  26.825 -0.0968 -0.1918 -0.2740
30065W        W72978  33.066  14.244  27.667 -0.0400 -0.2295 -0.2445
30066W        W72979  28.755   2.192  27.875  0.0166 -0.0866 -0.1604
30067W        W72980  21.417   3.305  23.815 -0.2250 -0.2959  0.2539
30068W        W72981  27.245  33.793   1.419 -0.0208  0.2830 -0.1603
30069W        W72982  26.928   3.372  22.283  0.3808 -0.0732  0.2953
30070W        W72983  23.611   1.405   4.559 -0.0555 -0.0054 -0.0270
30071W        W72984  20.079  28.464  28.916 -0.3943  0.3368 -0.0472
30072W        W72985  20.087  33.311   8.750 -0.2172  0.2703  0.2123
30073W        W72986  25.844  31.317   5.995  0.2645  0.1398 -0.2088
30074W        W72987  19.356   7.918  28.273 -0.2725  0.4424 -0.2807
30075W        W72988  22.223  12.577   5.075  0.0269 -0.2661  0.0376
30076W        W72989  30.291  11.613   3.666  0.6524  0.1127 -0.0793
30077W        W72990  29.917  12.543   6.579 -0.1049 -0.0982 -0.0523
30078W        W72991  29.680  33.905  10.677  0.0711  0.0037 -0.2700
30079W        W72992  25.090   2.646   5.706 -0.1502 -0.0920 -0.4825
30080W        W72993  24.131   1.444   2.407 -0.1816  0.2141 -0.0175
30081W        W72994   1.349   7.238  20.300  0.4178  0.1028  0.0390
30082W        W72995  18.951   3.043  20.705 -0.0940  0.3237  0.1266
30083W        W72996  28.266   8.841   9.759  0.2793 -0.0809  0.0945
30084W        W72997   2.980   2.914   5.855 -0.2105 -0.1180  0.2837
30085W        W72998  22.429   1.459  28.533  0.0292 -0.2075  0.0234
30086W        W72999  31.913   7.024  10.086 -0.1820  0.0194 -0.0095
30087W        W73000  21.997   7.499  23.582  0.1346  0.1641  0.3167
30088W        W73001   1.219   7.200  28.820  0.0336 -0.0146 -0.1471
30089W        W73002   3.733  31.692   5.902 -0.0834  0.0166 -0.0781
30090W        W73003  16.406   1.272  26.431  0.0573 -0.1110  0.1789
30091W        W73004  33.515   1.547   6.496  0.2555 -0.4226  0.1638
30092W        W73005  29.954   0.975   3.002 -0.2696  0.0380  0.1809
30093W        W73006  18.649   1.425   9.068 -0.2354  0.0003 -0.0492
30094W        W73007  28.246  10.172   4.976 -0.3297  0.2005  0.1113
30095W        W73008   1.082  13.852   1.088 -0.1071 -0.0528  0.0895
30096W        W73009  25.797  11.746   7.815 -0.0690  0.1668  0.3469
30097W        W73010  21.733   1.927   9.317  0.1864 -0.1962  0.0499
30098W        W73011  22.300  14.989   6.027 -0.0209 -0.0125 -0.2275
30099W        W73012   3.988   2.788   8.764 -0.1600  0.0158  0.1034
30100W        W73013  32.871   8.362  10.923 -0.0448  0.1161 -0.0396
30101W        W73014  29.169   1.528   1.204 -0.3597 -0.0695  0.1644
30102W        W73015  30.850  33.750   7.608 -0.0630 -0.0626 -0.0745
30103W        W73016   0.056  25.303  24.310 -0.0747 -0.0305 -0.0197
30104W        W73017  29.497  12.609   2.730 -0.2571  0.0314  0.0315
30105W        W73018  32.714   6.388   2.539 -0.1341 -0.0503 -0.0135
30106W        W73019  22.664  11.858   8.803 -0.0900 -0.2220 -0.2784
30107W        W73020  23.977   0.954  26.847 -0.1912  0.0631  0.0350
30108W        W73021  33.352   9.078   5.460 -0.1042  0.0845  0.0109
30109W        W73022  27.041   3.532  27.582 -0.0226 -0.1985  0.3387
30110W        W73023  25.117   3.430   3.565  0.0218 -0.3388  0.0680
30111W        W73024  28.392  13.336  29.200  0.3866 -0.0650 -0.3424
30112W        W73025  29.659  24.731   9.044  0.0431 -0.0546 -0.1647
30113W        W73026   0.983   4.845  28.359  0.3230  0.2927 -0.3001
30114W        W73027  16.799  33.603   3.933 -0.0917 -0.3088  0.0168
30115W        W73028  23.660  12.307  21.884 -0.0771  0.0223 -0.1916
30116W        W73029  28.988   3.362   1.784 -0.0528  0.1143  0.2554
30117W        W73030  26.955  31.322  26.394 -0.0772 -0.1750  0.0351
30118W        W73031  23.540   6.877   9.047 -0.0024 -0.2233 -0.0342
30119W        W73032  25.953  30.693   4.959 -0.2263  0.1838 -0.0108
30120W        W73033  26.081   5.944  26.852  0.2700 -0.1206 -0.5304
30121W        W73034   0.497   3.995   2.992 -0.0807  0.0072  0.0425
30122W        W73035  29.784   5.752  10.625 -0.1880  0.1883 -0.2386
30123W        W73036   2.097   3.093   1.856  0.0292  0.0396  0.2547
30124W        W73037  29.114   2.557   5.600  0.1009  0.0341  0.0683
30125W        W73038  24.588  25.950   4.928  0.1325 -0.1599 -0.0005
30126W        W73039   5.724   3.954  10.562 -0.0097 -0.0022 -0.2278
30127W        W73040  22.615   5.582   8.825 -0.4461 -0.0175 -0.0584
30128W        W73041  32.510   0.170   3.614  0.1740  0.0222  0.0234
30129W        W73042  27.927  34.474   3.813 -0.1834 -0.2438 -0.0548
30130W        W73043  32.677   2.752  10.977 -0.2499 -0.1306  0.1720
30131W        W73044   5.376   1.337   7.187 -0.1842 -0.1069  0.0780
30132W        W73045   8.321   4.935   4.760 -0.0690 -0.2626  0.2013
30133W        W73046   0.737   9.538  29.357 -0.0246 -0.3185 -0.1253
30134W        W73047  33.860  32.922   3.934  0.1334  0.1345  0.2519
30135W        W73048   1.268   6.178   4.404 -0.0253 -0.1954 -0.1347
30136W        W73049   0.397  17.821   6.455  0.0181  0.1725  0.0698
30137W        W73050  19.662   6.011   5.198 -0.2336 -0.3534 -0.3306
30138W        W73051  23.540   2.089   1.089  0.1919  0.0066  0.0500
30139W        W73052  21.381   0.815  29.333 -0.1103 -0.0546 -0.1086
30140W        W73053   0.358  27.603  23.372  0.0303  0.0295 -0.0301
30141W        W73054  32.017  29.735   2.106 -0.1201 -0.0855  0.1345
30142W        W73055  29.861   7.952  25.465 -0.1414  0.0036 -0.1173
30143W        W73056  18.714  26.788  29.281  0.2970  0.1294 -0.1716
30144W        W73057  29.712   2.345   8.078  0.0583 -0.0894 -0.0075
30145W        W73058  25.976  29.871   9.527 -0.1148 -0.0832 -0.0834
30146W        W73059  26.763  25.015   6.694 -0.1710  0.0688 -0.0602
30147W        W73060  22.404  30.380   9.111  0.0037  0.0438  0.1603
30148W        W73061  29.187   2.467   1.606  0.3665  0.1160 -0.2180
30149W        W73062  26.779  32.579  28.509  0.1067  0.1440 -0.0014
30150W        W73063  26.694   0.120   9.394  0.2494  0.0715  0.0740
30151W        W73064   3.533   6.856   8.910  0.0005 -0.1725 -0.1333
30152W        W73065  33.318  10.687   4.912  0.1645  0.0562 -0.0923
30153W        W73066  32.395   6.915   1.963  0.0958 -0.0416  0.2787
30154W        W73067  28.898  34.090  28.706  0.0288  0.2160  0.2015
30155W        W73068  32.702  10.544   5.927 -0.1262  0.0302  0.0043
30156W        W73069   2.945  26.117   9.330 -0.4943  0.3066 -0.2660
30157W        W73070  33.344   4.901   9.347  0.1199 -0.0655  0.0540
30158W        W73071  29.022  15.907   9.343 -0.2979  0.1335  0.1205
30159W        W73072  24.432   5.808   5.436 -0.0763  0.0749  0.3251
30160W        W73073   0.590   3.805   4.999  0.0066  0.0055  0.0768
30161W        W73074  33.176  34.464   7.521 -0.0950 -0.2805 -0.1226
30162W        W73075  21.563   7.417   2.189  0.3395 -0.1021  0.1759
30163W        W73076   8.611  30.096   5.188 -0.0101  0.0404  0.1073
30164W        W73077  33.204  33.797   2.813 -0.2031  0.0473  0.0918
30165W        W73078  21.291   5.139   8.326 -0.1870  0.0269 -0.3054
30166W        W73079  33.381  31.742   4.061 -0.1531  0.1375 -0.0002
30167W        W73080  31.195  13.424   6.321  0.1231 -0.0278  0.0961
30168W        W73081  21.367   3.632  29.319 -0.2125 -0.0953 -0.4728
30169W        W73082  28.493   2.272  10.055 -0.1098 -0.0755  0.1450
30170W        W73083  22.618   7.810   7.491 -0.2856  0.0874 -0.3409
30171W        W73084  33.238   8.834  10.935 -0.0763 -0.2032  0.3260
30172W        W73085  20.708   0.608  26.567 -0.2685  0.0896 -0.2671
30173W        W73086   1.929  27.714   7.720 -0.0204 -0.1197  0.1338
30174W        W73087   1.015   9.009   9.735 -0.3918  0.3046 -0.3109
30175W        W73088   1.570   6.068   0.118 -0.0621 -0.2055  0.3152
30176W        W73089  28.110  14.767  27.082 -0.1483 -0.2208  0.1769
30177W        W73090  25.493  34.332   4.978  0.0134  0.1824  0.0217
30178W        W73091  34.161   4.127   8.173  0.0213  0.2684  0.1104
30179W        W73092  27.949   9.881   1.991 -0.1517 -0.2580  0.4394
30180W        W73093  19.960   7.636   4.955  0.0813  0.1230 -0.0941
30181W        W73094  25.578  16.091   6.977 -0.0442  0.1474  0.1591
30182W        W73095   3.027   8.074   4.672 -0.1440  0.1082 -0.1356
30183W        W73096  22.835   0.368   2.291  0.1338 -0.1936 -0.0548
30184W        W73097   8.284  34.416  11.020  0.0930  0.0599 -0.3662
30185W        W73098  32.004   1.886   2.382  0.0127  0.0395  0.4888
30186W        W73099  31.368  30.451   8.842 -0.0386 -0.0594 -0.0535
30187W        W73100  30.602  25.518   1.647  0.1048 -0.1685  0.1607
30188W        W73101  25.964   2.351   5.403  0.0388  0.0815 -0.0741
30189W        W73102   1.836  24.670  29.095  0.2573  0.0454 -0.0830
30190W        W73103  30.022  31.428  29.509  0.2519 -0.2635  0.1176
30191W        W73104  26.779   7.082  10.335 -0.1920  0.1160 -0.3806
30192W        W73105  29.014  33.971  20.855 -0.0123 -0.0857 -0.1341
30193W        W73106   0.018   8.489   2.638  0.1744 -0.1693  0.0517
30194W        W73107  22.214   1.615   3.464 -0.3963  0.1072  0.3643
30195W        W73108  26.856   5.149  27.057  0.0229  0.1109  0.1215
30196W        W73109  22.216   0.589   3.667  0.1762 -0.0410 -0.0445
30197W        W73110  14.417   9.643   2.807 -0.0258  0.1015 -0.0663
30198W        W73111  28.205  29.748   4.247 -0.1263 -0.5570 -0.1611
30199W        W73112  34.265   3.720  11.176 -0.0743 -0.0605 -0.0695
30200W        W73113  27.229  12.599   8.207  0.3572  0.1183  0.3180
30201W        W73114   1.876  25.534  10.249 -0.0994 -0.2374  0.0168
30202W        W73115  32.400  10.285   8.256 -0.1557  0.0281  0.2542
30203W        W73116  30.634   4.399   2.000 -0.0216 -0.0794  0.0700
30204W        W73117  24.855   4.541   5.648  0.2180 -0.0693 -0.4133
30205W        W73118   4.575  10.616   5.906 -0.0630  0.1830 -0.1240
30206W        W73119   0.833   7.844   7.679 -0.0556  0.0057 -0.0860
30207W        W73120  27.888   4.229   1.280 -0.1961 -0.1107 -0.1065
30208W        W73121  29.418   0.891  10.321  0.0325  0.1454  0.1437
30209W        W73122  29.044   6.382   8.707  0.1111  0.1656  0.3756
30210W        W73123   4.339   3.037   7.899 -0.2131 -0.0996 -0.0277
30211W        W73124  33.271   2.422   9.943 -0.4473  0.0536 -0.1797
30212W        W73125  25.983   0.563   1.924 -0.1614  0.0260 -0.0174
30213W        W73126  32.959   4.360  11.319 -0.0726 -0.3484  0.0375
30214W        W73127  31.011   0.886   9.146  0.5334  0.0174  0.3230
30215W        W73128  32.245  33.761   3.736 -0.0879  0.2231 -0.1682
30216W        W73129  26.346  29.512   8.167  0.3236  0.2418  0.0911
30217W        W73130  33.169   3.958   2.625 -0.2438  0.0560 -0.1170
30218W        W73131  28.254   1.033   1.478  0.1199  0.0871 -0.0120
30219W        W73132  30.046  14.360   7.757 -0.1266  0.3850 -0.0051
30220W        W73133  34.437  30.454  28.157 -0.3114  0.2216  0.0191
30221W        W73134   4.619   6.455  12.630 -0.0916 -0.2091 -0.3471
30222W        W73135  23.975   8.851   0.196 -0.0957 -0.0439 -0.1639
30223W        W73136  30.474   0.455  24.457  0.0196 -0.0899 -0.1005
30224W        W73137  28.478   0.518   5.409  0.3470  0.2814  0.1685
30225W        W73138  25.427  10.435   7.607 -0.0687  0.1054  0.0255
30226W        W73139  25.845   6.185   1.573  0.2554  0.1179 -0.1967
30227W        W73140   2.217  10.680   4.602 -0.1331  0.1596 -0.0714
30228W        W73141   1.388   2.875  28.007 -0.2808 -0.1859 -0.1511
30229W        W73142   3.535   2.283   3.701 -0.3146 -0.0395  0.0338
30230W        W73143  26.086   6.154  27.416  0.0457 -0.1161  0.2580
30231W        W73144   6.367   7.116   1.838  0.0642  0.0282  0.0431
30232W        W73145  32.992   9.816   6.449 -0.0347  0.0530  0.0143
30233W        W73146  26.729   2.175   8.683  0.4576  0.1904 -0.0348
30234W        W73147  18.538  31.084   7.802 -0.1407 -0.0811 -0.0102
30235W        W73148  27.115  11.658   5.463 -0.0970 -0.0022 -0.1469
30236W        W73149  28.813   4.207   8.739  0.0989  0.2972 -0.3056
30237W        W73150  20.335  10.759   4.853 -0.0989 -0.0748  0.2805
30238W        W73151  26.512   4.740   6.069  0.0188  0.1840 -0.2258
30239W        W73152  33.202   9.096  10.518 -0.0682 -0.2371 -0.1535
30240W        W73153  23.425   6.628   6.881  0.0486 -0.2437  0.0017
30241W        W73154  19.253   1.924   4.129 -0.0719 -0.0468  0.0930
30242W        W73155  20.581  25.637   3.558 -0.0820  0.1314  0.0068
30243W        W73156  25.506  13.516   6.580 -0.1186 -0.1897 -0.2450
30244W        W73157   1.416  27.735  27.466  0.2316  0.1411 -0.0843
30245W        W73158  29.869  12.269   4.360 -0.0403  0.2112 -0.0981
30246W        W73159  20.400   2.331   5.944  0.1833  0.2150  0.1125
30247W        W73160   8.111  26.092   2.967  0.1154 -0.0899 -0.1068
30248W        W73161  23.785   4.575   9.010 -0.0258  0.1631  0.2411
30249W        W73162  30.706  30.125   6.599  0.0053 -0.0210 -0.0108
30250W        W73163  21.308  28.204  27.807  0.2189 -0.1320 -0.2118
30251W        W73164  11.185   4.452  25.795  0.0438  0.1262 -0.0045
30252W        W73165   0.047   3.781   8.044  0.1604 -0.0148 -0.2170
30253W        W73166  20.997   1.626   6.189 -0.4846  0.2206  0.0988
30254W        W73167  32.578  10.969   9.647 -0.1546  0.3250  0.3047
30255W        W73168  24.376  28.698   4.765 -0.2599  0.0278 -0.1754
30256W        W73169  29.893  31.134   9.462  0.1396 -0.0240 -0.2314
30257W        W73170  27.098   1.078  25.057  0.2093 -0.0292  0.0004
30258W        W73171  32.552  29.733  10.550  0.3058  0.0607  0.0435
30259W        W73172   5.577  33.895   3.012  0.2827  0.1462 -0.2732
30260W        W73173  34.039   3.714   6.353  0.0864 -0.3019 -0.1753
30261W        W73174  23.972   1.004   8.300 -0.2887  0.1710 -0.1105
30262W        W73175   6.684  30.230   6.358 -0.1357 -0.0710 -0.2513
30263W        W73176  28.580   7.731   9.950 -0.2351 -0.0275  0.2792
30264W        W73177  18.591   9.609   0.331  0.0623 -0.1660 -0.3843
30265W        W73178  34.055   5.726   7.306  0.2717  0.0745 -0.1698
30266W        W73179  18.803   1.366   4.337  0.1801  0.0973 -0.0829
30267W        W73180  33.040   6.790   4.095  0.1210  0.2595  0.0739
30268W        W73181  32.177  34.223   3.503  0.0604  0.0941 -0.0656
30269W        W73182  26.929  33.576  28.615  0.2253 -0.1923 -0.3180
30270W        W73183  30.613   7.622  27.930 -0.1106  0.0365 -0.0276
30271W        W73184  33.120  33.980   8.944 -0.2054 -0.2480  0.2451
30272W        W73185   2.689   6.301   7.776 -0.1567  0.0814 -0.1066
30273W        W73186   1.137  11.546   8.704 -0.0087 -0.1585 -0.1094
30274W        W73187  22.774   2.115   9.123  0.0084 -0.0189  0.1358
30275W        W73188  31.309  22.224   1.944 -0.1848 -0.1152  0.0467
30276W        W73189  28.495   7.436   8.260  0.1929  0.2400  0.1013
30277W        W73190   3.569  10.925   8.872  0.5559 -0.2062 -0.0096
30278W        W73191  19.061  13.718   2.172  0.2965  0.0040 -0.0904
30279W        W73192  32.533  32.335   5.544  0.2735  0.2329 -0.0548
30280W        W73193  22.671   8.983   8.499  0.2940 -0.2499  0.0978
30281W        W73194   2.393  33.238   1.278  0.4445  0.0069  0.2813
30282W        W73195  33.088   4.198  10.589 -0.1028  0.0131 -0.0422
30283W        W73196  24.612  33.268   8.279 -0.0091 -0.1864 -0.3235
30284W        W73197  16.337   6.664   1.282 -0.0591  0.0344 -0.1312
30285W        W73198  22.255  31.117   5.072  0.1583  0.2990 -0.0058
30286W        W73199  24.030  28.133  28.108  0.2622  0.3782 -0.4841
30287W        W73200   1.848   2.725  28.945 -0.1484  0.0445 -0.0334
30288W        W73201  23.719  33.914   6.939 -0.2123 -0.0588 -0.0062
30289W        W73202  26.070  27.516   6.178 -0.0000 -0.0069  0.0354
30290W        W73203   5.948  34.488   3.455 -0.0645 -0.3827  0.1695
30291W        W73204  29.157   1.944   4.160 -0.0437  0.2298 -0.0871
30292W        W73205  31.079   1.398  10.985  0.0816 -0.0112  0.1185
30293W        W73206  29.819   5.988   4.630  0.2542 -0.1121  0.3194
30294W        W73207  17.941  32.608   4.940  0.2914 -0.0420  0.1234
30295W        W73208  23.919   0.483   3.692  0.0576  0.0527  0.1158
30296W        W73209  17.176   7.322  20.006  0.2071  0.0645  0.0924
30297W        W73210  24.910  32.524   5.260 -0.0221 -0.3146  0.0994
30298W        W73211  26.366  10.209   7.993  0.1556  0.3416 -0.1414
30299W        W73212  31.147   3.314   9.160  0.1251 -0.2028 -0.0752
30300W        W73213  29.595  28.371   3.143 -0.0738  0.0783  0.1814
30301W        W73214  31.347   5.727   9.607 -0.0287 -0.0658 -0.0756
30302W        W73215  26.645   4.178   4.078  0.1203 -0.3352  0.0028
30303W        W73216  28.228  29.951   8.201  0.4263  0.0043 -0.0846
30304W        W73217  31.987  22.745   6.570 -0.0694 -0.1058  0.3283
30305W        W73218  19.662   2.681   9.001  0.2219 -0.0461  0.1809
30306W        W73219   1.801  16.646   9.412 -0.0356 -0.1967 -0.0453
30307W        W73220  30.330   5.199   7.784 -0.0414 -0.1690 -0.1697
30308W        W73221  32.622   8.368   1.311 -0.2397 -0.3472 -0.4339
30309W        W73222  28.697  12.511   0.524 -0.1833  0.1282  0.2630
30310W        W73223   3.689   2.157   1.227  0.1614  0.0499 -0.3618
30311W        W73224  26.153  32.471  24.235 -0.0789  0.1733  0.0329
30312W        W73225   1.995   2.702   8.331  0.0096 -0.1538  0.0685
30313W        W73226  31.169  28.709  22.080 -0.0388 -0.3255 -0.0506
30314W        W73227  24.175   5.067   2.221 -0.1941 -0.1454  0.3639
30315W        W73228  29.920   6.879   4.116 -0.0948  0.0959 -0.0823
30316W        W73229  22.661  31.508   9.493 -0.2630  0.1082  0.4282
30317W        W73230  21.709   7.924   1.492 -0.1466  0.0265 -0.2455
30318W        W73231   2.511   5.615  20.214  0.0471  0.0939  0.1247
30319W        W73232  33.650   3.936   7.950  0.2185 -0.0576  0.0703
30320W        W73233  26.671   3.592   4.918  0.0579 -0.0999 -0.1831
30321W        W73234  21.823  28.404   6.039  0.0424 -0.0058  0.1243
30322W        W73235   1.035  30.304   3.512 -0.0383  0.2338  0.0609
30323W        W73236  26.423  28.139   0.819  0.0169  0.4535  0.1113
30324W        W73237  28.447  30.835   9.134 -0.0718 -0.0831 -0.0422
30325W        W73238  33.038   1.856  10.765 -0.1741  0.1387  0.1731
30326W        W73239  26.412  30.416   9.007 -0.1557  0.0751 -0.2909
30327W        W73240  23.602   6.551   8.564  0.1898 -0.0985 -0.0026
30328W        W73241  21.610   4.390  28.641  0.2887  0.0737 -0.1868
30329W        W73242  25.835   7.083   7.445 -0.0792  0.0233 -0.3195
30330W        W73243  30.081  30.570   8.578 -0.0103 -0.0757  0.2048
30331W        W73244  15.873  20.994  27.079  0.0089 -0.1647 -0.1256
30332W        W73245  25.944   9.861   3.663  0.0967  0.0152  0.1967
30333W        W73246   1.047   2.809   7.280  0.6248  0.1251  0.2287
30334W        W73247  28.778   3.061  22.538  0.0449 -0.1927 -0.2153
30335W        W73248   1.023  10.717   7.364 -0.1515 -0.0457  0.0567
30336W        W73249  20.040   2.028   6.262  0.2864 -0.2853 -0.2861
30337W        W73250  32.792   4.240  22.850  0.2767  0.1346 -0.0308
30338W        W73251  25.592   4.849  23.090  0.1647 -0.1377 -0.0282
30339W        W73252  18.116   1.078   1.773 -0.1055  0.4013 -0.1473
30340W        W73253  22.264  11.329   3.898 -0.0704 -0.0702 -0.0546
30341W        W73254   1.193   1.226   7.261 -0.2901 -0.1053  0.2770
30342W        W73255  30.490   6.603  21.704 -0.1398  0.0799 -0.0693
30343W        W73256  22.279  19.625   3.292  0.3436  0.1036  0.1316
30344W        W73257  24.973   3.747   5.845 -0.1513 -0.1769 -0.0819
30345W        W73258   2.099   4.679  12.121  0.0534 -0.0872  0.1831
30346W        W73259  20.640   7.451  25.916  0.2899 -0.0604 -0.0012
30347W        W73260  31.239   9.270   8.047  0.0037  0.1553  0.1524
30348W        W73261  33.357   0.764  28.894 -0.2004  0.2051 -0.0679
30349W        W73262   3.560   5.427   9.011 -0.1472 -0.3911  0.0317
30350W        W73263  15.804   0.459   4.824  0.2816 -0.0997 -0.3727
30351W        W73264  22.713  32.938   1.150  0.1464 -0.0996 -0.0938
30352W        W73265  24.747  28.289   0.052  0.1782  0.0969  0.0641
30353W        W73266   1.549   7.894   7.179  0.3101  0.0029 -0.0493
30354W        W73267  29.317   5.430   8.482  0.1191 -0.0532 -0.0559
30355W        W73268   0.507   7.234   4.998  0.2233 -0.1919 -0.2554
30356W        W73269  34.132  24.563   9.592  0.4690  0.0852  0.0714
30357W        W73270  31.392  30.538   4.802 -0.1837 -0.0963 -0.0618
30358W        W73271  17.631  28.195   2.234 -0.1904 -0.0192 -0.2744
30359W        W73272  22.751   0.035   0.228  0.0612 -0.0336  0.1159
30360W        W73273  29.245  27.479  29.060  0.1193 -0.0279  0.1368
30361W        W73274  25.886   5.039   9.493 -0.2865 -0.1345  0.2639
30362W        W73275  33.566   6.483   2.283 -0.1099  0.2831  0.1647
30363W        W73276   5.006   0.782   0.658  0.0025 -0.1145  0.2478
30364W        W73277  29.986   7.613   0.802  0.0519  0.2663  0.1235
30365W        W73278  23.095  28.399  27.708 -0.0155 -0.1071 -0.1872
30366W        W73279  33.313   2.723  29.260  0.2092  0.0270 -0.1239
30367W        W73280  24.173   5.189   8.607  0.1245  0.0459 -0.3490
30368W        W73281  21.077   4.658   1.468 -0.1359 -0.2027 -0.0664
30369W        W73282  26.563  33.742   5.114  0.0955  0.3274 -0.4901
30370W        W73283  33.743  13.265   5.056  0.1290 -0.2297 -0.1378
30371W        W73284  33.059   6.970   6.574 -0.0205 -0.1059  0.1482
30372W        W73285  25.748   2.258   3.692 -0.3196  0.0301  0.1357
30373W        W73286  26.452  33.271   8.540  0.3889 -0.2266 -0.3657
30374W        W73287  25.301   8.286   3.736  0.1260  0.1639  0.2023
30375W        W73288  33.260   1.722   8.287  0.1494 -0.4892  0.0104
30376W        W73289  12.794   2.353   5.993 -0.2378 -0.2880  0.0339
30377W        W73290  24.438  33.957   7.194  0.2869 -0.3008  0.0256
30378W        W73291  31.132   8.099   1.183  0.1468  0.5859  0.0849
30379W        W73292  16.336  23.917   4.087 -0.0250 -0.1310  0.2341
30380W        W73293  31.350   5.897  10.104  0.0074  0.0653  0.1412
30381W        W73294  24.088   4.654   9.586 -0.1622  0.0656 -0.2389
30382W        W73295  20.461   4.900   8.735  0.2588 -0.1014  0.0377
30383W        W73296  28.234  19.694   0.218  0.2039  0.0567  0.1119
30384W        W73297  29.833   0.634   7.917 -0.0784 -0.2715  0.1825
30385W        W73298  20.798  18.409   7.238  0.0271  0.0989  0.1507
30386W        W73299  23.167   5.368   8.664  0.2067  0.1523 -0.3418
30387W        W73300   0.281  15.868   1.888  0.0552 -0.3700  0.1240
30388W        W73301   0.253   7.706   9.339  0.1754  0.3515 -0.0258
30389W        W73302  33.963   4.064   9.690 -0.1345  0.1410 -0.2320
30390W        W73303  23.237   9.495  28.678  0.3631  0.0751  0.0819
30391W        W73304   1.238   6.706  11.534  0.2670  0.2670 -0.1743
30392W        W73305   1.926   1.735   6.822  0.1855 -0.0709 -0.1846
30393W        W73306  19.042  32.426   6.400  0.2923 -0.2967 -0.1805
30394W        W73307  30.670   0.728  29.516  0.0921 -0.1399  0.0602
30395W        W73308  25.201   0.118   1.538 -0.0413 -0.1611  0.3306
30396W        W73309  26.772   5.485   9.779 -0.1462 -0.0862 -0.0533
30397W        W73310  26.658  28.722   5.746  0.1756  0.2372  0.3643
30398W        W73311  24.483   6.420   8.644 -0.1509 -0.0704  0.1717
30399W        W73312   0.126  12.684  25.250 -0.1734  0.0719  0.0081
30400W        W73313  27.480  22.789  29.725  0.1208 -0.4244  0.1042
30401W        W73314  23.538  33.863  23.082  0.2424 -0.2725 -0.0126
30402W        W73315   7.577   4.818  29.529  0.2761  0.2087 -0.0711
30403W        W73316  22.152  32.580   0.658  0.0851  0.1374  0.1989
30404W        W73317   3.809  25.332   2.548 -0.3694  0.1531  0.1296
30405W        W73318   2.575   5.200   2.788 -0.1267 -0.4553 -0.0546
30406W        W73319  31.086   2.373   5.371 -0.0717  0.1702  0.0753
30407W        W73320  21.212  12.036   3.007 -0.0782  0.0235 -0.0882
30408W        W73321  33.264   3.049  24.191  0.2138 -0.2297 -0.2836
30409W        W73322  26.810  26.394  29.679 -0.0395  0.1972 -0.2760
30410W        W73323  26.365  31.113   8.318 -0.1369 -0.3486 -0.0283
30411W        W73324  21.960  11.792   3.986 -0.1810 -0.1855 -0.2868
30412W        W73325  31.220   1.607   2.276  0.1215  0.1491 -0.0037
30413W        W73326  27.027   4.880  29.670 -0.2803  0.3548 -0.2021
30414W        W73327  30.483  33.267   6.764  0.3671 -0.1072  0.1040
30415W        W73328  18.123   9.900   4.122  0.2630  0.1909  0.2768
30416W        W73329  24.035   0.859   1.824 -0.0032 -0.0152 -0.4286
30417W        W73330  10.676  28.104   7.990 -0.0209 -0.1571 -0.3352
30418W        W73331  30.857  30.824   7.114  0.2135 -0.2482  0.1817
30419W        W73332   3.664   1.319   7.783 -0.2081  0.2096  0.2198
30420W        W73333  28.786   4.024   3.432 -0.0421  0.0612 -0.1951
30421W        W73334  32.992   5.435   0.060  0.0684  0.3984  0.0647
30422W        W73335   0.853   4.413  23.657 -0.1779  0.1438 -0.3394
30423W        W73336  31.703   1.509   7.478  0.2816 -0.1022 -0.0172
30424W        W73337   5.051   2.673  12.106  0.1230  0.2741 -0.2466
30425W        W73338  24.146  31.734  26.906 -0.2338  0.0986  0.3846
30426W        W73339  17.798  26.424   4.233  0.0836  0.3130  0.0605
30427W        W73340  22.852  15.139   1.212  0.4738 -0.2026 -0.1829
30428W        W73341  20.489  32.806   4.736  0.0128  0.0069  0.0281
30429W        W73342  22.722  16.509   5.825  0.0477 -0.0509 -0.1346
30430W        W73343  26.138  33.396   0.268  0.2860  0.0179  0.0639
30431W        W73344   1.174   4.519   1.821 -0.0606  0.0330 -0.0052
30432W        W73345  32.692   6.991   5.696  0.1879  0.2526 -0.4260
30433W        W73346  26.505   9.829  23.080  0.1660  0.1303  0.4340
30434W        W73347  13.725   5.953  28.226  0.0263 -0.0382  0.1204
30435W        W73348   8.271  26.734  23.927 -0.1961  0.0888  0.0778
30436W        W73349  24.546   3.887   9.758 -0.1422  0.0033  0.1729
30437W        W73350  32.120   8.827   8.255 -0.1223 -0.0875  0.0083
30438W        W73351  27.801  33.197   8.349 -0.1483  0.2686 -0.0625
30439W        W73352  17.803   3.204   3.032  0.1608  0.3196 -0.1942
30440W        W73353  29.752  32.611  26.927 -0.2771  0.2842 -0.0093
30441W        W73354   9.437   8.050  11.861 -0.1724 -0.0350 -0.1368
30442W        W73355  31.375  34.106  11.659 -0.0401  0.2061 -0.1856
30443W        W73356  17.906  28.698   4.956  0.0706 -0.1744  0.3166
30444W        W73357  29.869   2.323  10.750  0.1668  0.1883 -0.2357
30445W        W73358  28.552   4.527  26.469 -0.1716  0.1010 -0.1272
30446W        W73359  29.576   3.610   4.576 -0.0235  0.0633 -0.0134
30447W        W73360  17.822  24.197   2.848 -0.1197  0.0959  0.1339
30448W        W73361   5.131  31.012   2.135  0.3156  0.1904  0.3521
30449W        W73362   1.974   4.845   9.859  0.3061 -0.1067  0.0273
30450W        W73363   2.093  10.315   9.645 -0.1179 -0.1064 -0.2821
30451W        W73364  19.150  32.062   0.574  0.0151  0.2626  0.1340
30452W        W73365  27.278   6.391   8.418  0.0174  0.1367 -0.0761
30453W        W73366  31.690   3.468  11.070 -0.0525 -0.0043  0.0225
30454W        W73367  33.016   4.810  26.147  0.2116 -0.3175 -0.1633
30455W        W73368  27.713   1.890   9.848 -0.1763  0.1315 -0.4129
30456W        W73369  14.999  33.445   3.874 -0.3837  0.1060 -0.2166
30457W        W73370   0.833  27.208   9.544  0.0581 -0.0464  0.1569
30458W        W73371  14.911  20.048  27.242 -0.0427  0.0702 -0.1130
30459W        W73372   6.340   2.509  11.032  0.3309  0.1507 -0.3308
30460W        W73373   0.406   1.190   1.970  0.0230 -0.0854 -0.1408
30461W        W73374   1.001  31.134  23.071  0.0450 -0.0982  0.2021
30462W        W73375  22.735   6.576   2.087 -0.0465  0.1689 -0.0356
30463W        W73376   0.812  33.595   3.535 -0.4184 -0.1810  0.0688
30464W        W73377  30.604   0.052   3.864  0.0734 -0.1659 -0.0778
30465W        W73378  23.397  10.862   8.730  0.0737  0.0621 -0.1710
30466W        W73379  20.693  17.805   4.414  0.2909 -0.1524 -0.1868
30467W        W73380  22.836  31.937   5.213 -0.1920 -0.3042  0.0062
30468W        W73381  22.142  33.838  25.951  0.1584 -0.4030  0.1047
30469W        W73382   3.410   2.438  26.878  0.2824  0.1705  0.0598
30470W        W73383  30.354   7.834   4.086  0.0067  0.0034 -0.3029
30471W        W73384  22.536  32.357  27.264 -0.1206  0.0328  0.0587
30472W        W73385  25.697   1.034   8.127  0.0253  0.1238  0.2272
30473W        W73386   4.468   1.313   1.745 -0.1002  0.1220  0.2044
30474W        W73387  20.918   4.420   2.262 -0.0551 -0.3656  0.1302
30475W        W73388  27.336  11.110   5.537 -0.0330 -0.1254  0.0727
30476W        W73389  27.005   0.326   9.685 -0.1370  0.5155 -0.0806
30477W        W73390  21.403  26.970   1.071  0.0800 -0.2572 -0.2437
30478W        W73391   3.492  29.249   4.707  0.1774  0.0084  0.0678
30479W        W73392  21.367   6.340  29.039  0.1601  0.0567 -0.1729
30480W        W73393  33.800   2.303   6.468 -0.1648 -0.0980 -0.0423
30481W        W73394  26.821   7.056   7.536  0.0796  0.2146  0.0535
30482W        W73395  32.307   6.331   7.282  0.1165  0.2688 -0.1132
30483W        W73396  28.220   4.755   7.601  0.1964  0.0044  0.0154
30484W        W73397  15.564  33.463  11.123  0.3229 -0.0357 -0.0623
30485W        W73398   2.130  30.144  29.768  0.0480  0.0859  0.1422
30486W        W73399  22.353  31.995   3.423 -0.0894  0.1113  0.4676
30487W        W73400  34.318  33.698   3.743 -0.1101  0.0371 -0.1518
30488W        W73401   0.401   2.854  10.045 -0.0076  0.0988  0.1544
30489W        W73402  28.252   6.316   4.178 -0.0229  0.0598 -0.0942
30490W        W73403  15.607  30.187  11.224  0.2030  0.2320 -0.0877
30491W        W73404  20.290   9.801   5.586  0.1429 -0.0275  0.0202
30492W        W73405  31.776  11.250  10.057 -0.0881 -0.0805  0.0412
30493W        W73406  25.472  30.312   8.362 -0.0109  0.1472 -0.1998
30494W        W73407   4.155  22.627   2.535  0.3785 -0.0582  0.1547
30495W        W73408  27.251   2.577   2.682  0.0717 -0.1475 -0.1827
30496W        W73409  33.978   0.787   8.846 -0.0307 -0.3173 -0.1684
30497W        W73410  15.597   3.623   4.322  0.4490  0.1624  0.0676
30498W        W73411   8.918  31.611   2.620  0.0914 -0.0582 -0.3076
30499W        W73412   1.263   6.522   4.066 -0.0315 -0.1335 -0.0321
30500W        W73413  26.724  30.407   6.478  0.0286 -0.1229 -0.2318
30501W        W73414  34.486  16.156  27.105 -0.4120  0.3959  0.1123
30502W        W73415  24.711  24.700   3.304  0.3406  0.0381 -0.1390
30503W        W73416   2.357   2.038   8.692  0.1163 -0.0834  0.1297
30504W        W73417  34.156   7.343   0.734  0.2684  0.1054  0.0088
30505W        W73418  22.477   2.032   6.267  0.0949  0.2570 -0.0541
30506W        W73419  30.344  13.667   6.122 -0.1585 -0.2424 -0.1324
30507W        W73420  18.916  30.266   9.301  0.2982  0.0009 -0.0133
30508W        W73421  23.195  32.240   1.698 -0.1263 -0.0530  0.0840
30509W        W73422  23.790   1.785   8.960 -0.0126 -0.1514 -0.2224
30510W        W73423   2.288  34.136   2.671 -0.3449  0.3511  0.1511
30511W        W73424   0.884  32.278   9.305 -0.0917 -0.4754 -0.0056
30512W        W73425   3.804   2.354  22.738  0.1575 -0.0259 -0.0296
30513W        W73426  32.944  31.985  10.858 -0.0643 -0.2369  0.0668
30514W        W73427  23.254  29.255  27.667 -0.0302  0.1305 -0.1724
30515W        W73428  22.850   0.850   8.660  0.2024  0.0540 -0.3588
30516W        W73429  24.568  11.319   3.646  0.0963 -0.0374  0.0352
30517W        W73430  33.471  23.190   4.173 -0.0620 -0.0796  0.1508
30518W        W73431  22.332   2.873   3.436 -0.2736  0.1030 -0.2116
30519W        W73432  10.255   4.162   7.207  0.1402  0.4010 -0.0744
30520W        W73433  25.687   3.217   0.022 -0.2636 -0.0688 -0.0558
30521W        W73434  31.379  13.790   0.944 -0.0964 -0.1104 -0.3723
30522W        W73435  29.979   4.723   7.797 -0.1323 -0.0037  0.2260
30523W        W73436  30.769  34.194   5.632  0.2593 -0.0656 -0.1549
30524W        W73437  32.045   5.123   9.822  0.2459 -0.0212  0.1015
30525W        W73438  24.382   7.684  10.090  0.2355 -0.3868 -0.2746
30526W        W73439   3.300   8.945   7.540 -0.1797  0.0732 -0.0917
30527W        W73440  33.275  10.480   7.596  0.0826  0.0171  0.1833
30528W        W73441  24.350  16.545   6.993 -0.0288 -0.2060  0.0045
30529W        W73442  27.923   5.975  10.349 -0.6121  0.0106 -0.4567
30530W        W73443  27.739   3.590   8.042 -0.3921 -0.1877 -0.1802
30531W        W73444  27.408  28.670   9.161 -0.3116 -0.0108 -0.0989
30532W        W73445  33.974  11.782  23.663  0.1402 -0.1458 -0.1879
30533W        W73446  24.456  27.987   5.672 -0.0587 -0.0610 -0.0536
30534W        W73447  14.743  30.732   1.945  0.0445 -0.1978  0.3483
30535W        W73448  24.298  13.378   6.449 -0.0799 -0.0834 -0.0301
30536W        W73449  26.941   5.240   7.778 -0.2023 -0.2065 -0.0018
30537W        W73450  30.128   1.623  26.180 -0.3776  0.0148  0.0850
30538W        W73451  30.162   8.887   9.057 -0.2331 -0.1799  0.2125
30539W        W73452  30.022  10.173   8.728 -0.3388  0.2127 -0.4683
30540W        W73453   0.798  18.072   1.824 -0.0349 -0.1148  0.0899
30541W        W73454  20.429   0.648   5.296  0.2314 -0.2517 -0.1331
30542W        W73455  23.052  11.382   3.907  0.3619  0.1225 -0.2330
30543W        W73456  27.977   2.518   3.768  0.1388 -0.1809 -0.0466
30544W        W73457   5.595   9.133  13.916 -0.2102  0.0603 -0.1630
30545W        W73458  30.172   4.175   1.693 -0.1696  0.0991  0.0972
30546W        W73459  28.497   6.346   2.619 -0.0621 -0.0756 -0.0910
30547W        W73460   3.449  32.387   8.762 -0.4414 -0.0148 -0.1048
30548W        W73461   7.239  10.412   1.773 -0.0719 -0.1286  0.2687
30549W        W73462   5.189  12.271   6.899  0.0247 -0.1226  0.0634
30550W        W73463  25.336  32.955  27.853 -0.1374 -0.0157  0.1452
30551W        W73464  26.292   0.485   5.908  0.2638  0.1378 -0.2000
30552W        W73465  27.127  27.327   0.469 -0.3366  0.1763 -0.6694
30553W        W73466  26.105   0.041   1.142 -0.3919 -0.2092 -0.0100
30554W        W73467  23.308  30.176  28.572  0.2789 -0.2380 -0.1614
30555W        W73468  30.541  10.613   8.197 -0.0347 -0.2648 -0.1097
30556W        W73469   1.450  10.767   9.811  0.1780 -0.0243 -0.2908
30557W        W73470  25.863   0.668   3.769  0.2695 -0.0670  0.2995
30558W        W73471   5.506   6.669   9.423  0.1190  0.0901 -0.0741
30559W        W73472  22.329  32.886   7.755  0.1659 -0.2790 -0.0889
30560W        W73473  34.114   3.482   2.982 -0.1095  0.1431 -0.1031
30561W        W73474  28.120   0.119   9.889  0.0877  0.2177  0.0742
30562W        W73475  18.025   1.973   7.828  0.2131 -0.1603  0.0969
30563W        W73476   2.227   6.434  10.599 -0.1790 -0.0629  0.0077
30564W        W73477  29.617  25.741   1.884 -0.0182 -0.1249  0.0669
30565W        W73478  31.181  31.472   3.515 -0.0070 -0.1417 -0.1993
30566W        W73479   2.904  31.397   8.728  0.0165 -0.0421 -0.2731
30567W        W73480  23.455  17.027   5.964  0.0041 -0.0517 -0.1267
30568W        W73481  29.439   8.497  10.051 -0.1346 -0.0815  0.3262
30569W        W73482  25.662  14.718   7.877 -0.2428 -0.2321  0.1433
30570W        W73483  25.161   9.195   3.180  0.1594  0.1129 -0.3517
30571W        W73484  34.388   2.750  11.010  0.0229 -0.3451  0.1765
30572W        W73485   3.640  32.685   7.533  0.1053  0.1802  0.0337
30573W        W73486   0.648  11.762  10.361 -0.3886 -0.0776  0.1551
30574W        W73487  28.091  33.371   3.095  0.0445  0.3529 -0.1072
30575W        W73488   0.374   0.200  27.082 -0.1968  0.2951  0.2510
30576W        W73489   2.310   1.552  11.504  0.1782  0.1214 -0.0689
30577W        W73490  33.922  12.115   7.939 -0.0095 -0.2747  0.3914
30578W        W73491  24.665   2.840  26.453 -0.1090 -0.2704 -0.0859
30579W        W73492  30.536  26.329   7.031  0.3901  0.0637 -0.1977
30580W        W73493  29.008   3.829   1.102 -0.3042 -0.1713  0.1598
30581W        W73494  20.581   7.096   5.711  0.2187 -0.0158 -0.0936
30582W        W73495  21.595  31.837   4.096 -0.2299  0.0356 -0.0205
30583W        W73496  28.756  29.741   7.696 -0.1987 -0.0879 -0.0182
30584W        W73497  23.735  24.048   7.193  0.1980 -0.1759  0.2986
30585W        W73498  20.622  29.565   2.862  0.2690  0.1497  0.0625
30586W        W73499   9.717   9.337   9.465 -0.0052  0.2090  0.0747
30587W        W73500  28.212   5.503   4.883  0.2950 -0.0598  0.0344
30588W        W73501  32.836   5.503  10.690  0.0256  0.1112 -0.2968
30589W        W73502  31.599  33.857   6.315  0.1740 -0.2234 -0.0172
30590W        W73503  28.620   2.628   5.797 -0.1732 -0.1082 -0.0232
30591W        W73504  27.069   9.010   9.116  0.1474  0.4418  0.0798
30592W        W73505  30.802   0.269   4.299  0.1735 -0.2204  0.2803
30593W        W73506  26.057   1.832  28.147 -0.2850 -0.0706  0.2398
30594W        W73507  34.095   2.425  24.830 -0.0620  0.0863 -0.0405
30595W        W73508  24.791  33.749   8.355  0.1277  0.0406  0.0657
30596W        W73509   0.485   1.839   9.602  0.3348 -0.0369  0.0310
30597W        W73510  23.442  15.743   0.139 -0.2174  0.2231 -0.0607
30598W        W73511  26.579  32.115   8.616 -0.1525  0.1839  0.0065
30599W        W73512  32.834  32.479   7.347  0.3814  0.0624 -0.2805
30600W        W73513   8.500   5.076  13.928 -0.1025  0.1261  0.0031
30601W        W73514  25.610   8.630   3.939  0.0831 -0.2850 -0.1834
30602W        W73515   1.471   1.361   6.811 -0.1079  0.1507 -0.2644
30603W        W73516  31.862   8.971   9.580 -0.0090 -0.0500  0.1464
30604W        W73517  22.703   5.508   3.593 -0.3057 -0.0151  0.3041
30605W        W73518  33.204  24.986   7.306  0.3911  0.1761  0.1643
30606W        W73519  11.030  32.156   6.398  0.2342  0.0545  0.2543
30607W        W73520  21.829   5.220   7.489  0.1462 -0.1038  0.0395
30608W        W73521   0.437  30.766   1.513 -0.1384  0.1742  0.0392
30609W        W73522  27.725   7.159   4.174  0.2341  0.1860  0.1433
30610W        W73523  32.704   6.851   6.215 -0.0247  0.0627 -0.0805
30611W        W73524   2.842  10.770   1.638 -0.0852 -0.2607 -0.0885
30612W        W73525  32.536   1.113   1.587  0.0110  0.2462  0.2798
30613W        W73526   6.172  29.725  26.948 -0.1635 -0.0956  0.2098
30614W        W73527  24.383   2.726  10.166  0.4762  0.0663 -0.0354
30615W        W73528  21.689  12.694   8.122  0.2063  0.3904  0.2862
30616W        W73529  30.000  33.907   7.880  0.0568 -0.0189 -0.2247
30617W        W73530  28.407   0.801  10.606  0.0876 -0.2810 -0.0561
30618W        W73531  20.711  28.992   9.099  0.1352 -0.3670  0.0042
30619W        W73532  29.104  32.639  10.079 -0.2749  0.0695 -0.1114
30620W        W73533   1.754  31.500   9.758 -0.0382 -0.0019  0.4205
30621W        W73534  24.287  31.988   4.454 -0.0083  0.0031 -0.2282
30622W        W73535  29.277   4.972  10.201 -0.0914  0.1299 -0.1002
30623W        W73536  27.213  28.597  27.396 -0.1305  0.0034 -0.0586
30624W        W73537  27.709   1.379   3.170 -0.1780  0.2663  0.0431
30625W        W73538  18.805   3.733   3.421  0.2267 -0.2933  0.1649
30626W        W73539  20.480   0.269  10.401  0.2985  0.0230 -0.3633
30627W        W73540  22.696  14.608   8.358  0.1303  0.1612  0.1377
30628W        W73541   2.744   4.346   6.375  0.1508  0.0284 -0.2131
30629W        W73542  33.889   2.530   2.203  0.0590  0.0711  0.1892
30630W        W73543   2.859  26.618   8.779  0.2464 -0.2090  0.0637
30631W        W73544   1.334   1.776   8.124  0.0525 -0.0215  0.4358
30632W        W73545  31.008   8.637   4.129  0.0144 -0.2235 -0.1095
30633W        W73546  23.942  34.000   3.832  0.1993  0.1233 -0.1948
30634W        W73547  31.892   5.698   9.538 -0.3776 -0.2295  0.1004
30635W        W73548  34.409   1.823   9.070  0.1029 -0.2521  0.4276
30636W        W73549  19.589  33.779   4.075 -0.0104 -0.3690  0.1537
30637W        W73550  28.059   2.029   7.932  0.0152 -0.1040  0.2145
30638W        W73551   3.746  10.855   2.028  0.3849 -0.1227 -0.2192
30639W        W73552  25.443   3.612   8.855 -0.0802 -0.1434 -0.0032
30640W        W73553  26.367   6.001   6.161 -0.1805  0.2873  0.1224
30641W        W73554  32.899   3.194   4.975 -0.2024  0.3059 -0.0123
30642W        W73555   2.710  11.083   9.390  0.1371 -0.2228 -0.1223
30643W        W73556  27.268  16.433   7.253  0.4810  0.3049 -0.2423
30644W        W73557  21.224  17.418   7.885 -0.2374  0.0866 -0.0515
30645W        W73558  29.720   3.013  26.892 -0.2745  0.0062 -0.0081
30646W        W73559   0.146  10.964   1.260  0.2970  0.0687  0.2764
30647W        W73560  34.050   7.993  11.517 -0.0406  0.0072  0.2327
30648W        W73561   2.424   0.700  10.853 -0.0696 -0.2248  0.0077
30649W        W73562   9.345   8.863   8.588  0.2143  0.1353 -0.1855
30650W        W73563  27.779   1.570  29.402  0.0355  0.2965  0.2339
30651W        W73564  25.001   3.788   7.273  0.0736 -0.2730 -0.2410
30652W        W73565  18.584  30.563   7.777  0.0032 -0.1072 -0.0509
30653W        W73566   6.976   4.210   8.027 -0.0038  0.2750 -0.0004
30654W        W73567  28.394  27.061   7.494  0.1639  0.2757  0.2463
30655W        W73568  34.291   3.364  10.873 -0.0017  0.3774  0.1855
30656W        W73569  19.359   1.114   1.707 -0.2143 -0.1312 -0.1499
30657W        W73570   2.673   7.209   6.221  0.3078  0.0269 -0.1891
30658W        W73571  26.010  33.600   8.711  0.1567  0.1400  0.2002
30659W        W73572  21.058   8.659   8.379 -0.1624  0.0824  0.1237
30660W        W73573  28.474  34.368   9.662  0.2758 -0.0813 -0.0337
30661W        W73574  21.081   6.513   6.323  0.2532 -0.2058  0.1418
30662W        W73575  30.404   4.290   6.842 -0.1965 -0.2991  0.2067
30663W        W73576  32.108  33.809   6.210  0.0136  0.3494 -0.0494
30664W        W73577   4.557   9.021  10.749 -0.0027  0.4779 -0.0106
30665W        W73578  29.300   0.833   1.981  0.2588 -0.1071 -0.0203
30666W        W73579  30.472  32.467   9.299 -0.1598  0.1846  0.0464
30667W        W73580  29.602   7.743   4.508 -0.1009 -0.0823 -0.2458
30668W        W73581  28.821  32.268   4.534  0.2718  0.1804 -0.3798
30669W        W73582  30.880  31.722  10.435  0.2008  0.3273 -0.0858
30670W        W73583  23.420   8.065   2.045  0.0051 -0.3775  0.1447
30671W        W73584  10.164   1.098  11.042 -0.2131  0.1311  0.1306
30672W        W73585  24.730  26.072   6.747 -0.1393 -0.0354  0.1077
30673W        W73586  18.278   4.377   1.608 -0.2759 -0.0183  0.1434
30674W        W73587  26.349   8.514   3.468  0.1462  0.0052 -0.3397
30675W        W73588  31.009   6.058  28.738  0.1540 -0.1891  0.0667
30676W        W73589  27.906   0.918  10.840  0.0105  0.0969  0.0149
30677W        W73590  23.763  33.452   1.845 -0.0386 -0.0859  0.0119
30678W        W73591  27.370  30.282   4.774  0.3945 -0.0051  0.2440
30679W        W73592  16.295   3.076  26.565  0.2551 -0.1403 -0.0151
30680W        W73593   1.542   9.505   9.270  0.0773 -0.2409 -0.4787
30681W        W73594  24.116   3.606   7.650 -0.1521 -0.2915  0.1468
30682W        W73595  21.227  14.095   4.684  0.0597 -0.4903 -0.1056
30683W        W73596  30.174   1.194   1.963 -0.1232  0.1954 -0.3310
30684W        W73597  29.140  33.024   8.360 -0.2982  0.0378  0.0737
30685W        W73598   1.409  16.473   8.270  0.1723  0.0491 -0.1314
30686W        W73599   4.530   6.019   8.730  0.1046 -0.0935  0.0859
30687W        W73600  25.200   3.301   8.546 -0.0447 -0.1797 -0.2076
30688W        W73601  31.759   5.643   7.197 -0.1523  0.1748  0.1895
30689W        W73602  21.703  32.572   6.981 -0.1494 -0.0382  0.4732
30690W        W73603  26.219   2.712   6.345 -0.0785 -0.0977 -0.1525
30691W        W73604  33.022   4.857  11.596 -0.1530 -0.1024  0.0547
30692W        W73605  25.564   2.710  27.231 -0.0540 -0.1495 -0.4743
30693W        W73606  25.982   9.989   6.184  0.0694  0.0795  0.0262
30694W        W73607   9.085   2.299   7.779  0.1704  0.1589 -0.0967
30695W        W73608  28.206  10.822   0.472 -0.0901 -0.0664 -0.4530
30696W        W73609  27.914   3.355   3.320  0.1293  0.1562 -0.0868
30697W        W73610   3.725  11.389  10.597  0.1136  0.3019 -0.2360
30698W        W73611  32.683  33.610  10.072 -0.1451 -0.0167 -0.0564
30699W        W73612  32.765   2.326  10.633 -0.2582 -0.3925 -0.2439
30700W        W73613  28.711   4.868  20.389  0.0917 -0.0088  0.0178
30701W        W73614  25.961   8.290   5.380 -0.1564  0.2794 -0.0502
30702W        W73615   3.005   3.064   5.333 -0.2226 -0.0953  0.0574
30703W        W73616   1.290   5.482   9.855  0.2277  0.0792  0.1694
30704W        W73617  27.538  34.455   8.930  0.3954 -0.0892  0.0403
30705W        W73618  21.410  27.872   7.329 -0.3946 -0.0514  0.1362
30706W        W73619  22.288   2.225   9.411 -0.0125 -0.0144  0.2366
30707W        W73620  20.568   4.576   6.527  0.0022  0.0771  0.1609
30708W        W73621  19.006   0.723   3.366  0.1593  0.2455 -0.0346
30709W        W73622  22.170  19.249  27.409  0.1627 -0.1536 -0.0021
30710W        W73623   0.233   5.736  10.877  0.1164 -0.0178  0.0669
30711W        W73624   0.496  13.772   1.134 -0.0198  0.2116 -0.0166
30712W        W73625   3.929  26.475   6.843  0.2496 -0.0516 -0.2819
30713W        W73626  28.858  12.044   7.985  0.0649 -0.4695 -0.2474
30714W        W73627   3.585   2.925   5.673  0.1127 -0.2356  0.0027
30715W        W73628  27.599  31.460   3.363 -0.0936 -0.1261 -0.1488
30716W        W73629  25.794   9.373   5.860  0.0336  0.0120 -0.2914
30717W        W73630   1.713  33.538   8.672 -0.2350  0.1281  0.3426
30718W        W73631   0.350   3.369  10.350 -0.1183 -0.0562 -0.0684
30719W        W73632  27.252  30.714   3.682 -0.2360  0.0313 -0.1132
30720W        W73633  22.431  27.986   8.098  0.2657  0.0520 -0.0961
30721W        W73634   1.979   2.621  11.461 -0.0339 -0.0407  0.0573
30722W        W73635  22.498  11.356   6.148  0.0568  0.1768 -0.1151
30723W        W73636  21.698   9.899   4.342  0.0906  0.0965  0.0768
30724W        W73637  15.837   2.741   8.486 -0.1153  0.2904  0.1524
30725W        W73638  25.236   7.771   8.582 -0.2113 -0.1313 -0.1396
30726W        W73639  29.660   1.567  29.546 -0.1689 -0.3907  0.2282
30727W        W73640  33.821   1.741   9.070 -0.0919 -0.0404  0.1665
30728W        W73641  32.423   5.370  10.926  0.3271  0.1275  0.1053
30729W        W73642  24.154  33.097   5.044 -0.0738 -0.0930 -0.0698
30730W        W73643   7.637   4.899  12.481  0.0309  0.0090  0.0313
30731W        W73644  33.838  15.118   0.632 -0.3159 -0.3208 -0.0508
30732W        W73645  28.455   8.362  25.141 -0.1125  0.1214 -0.2443
30733W        W73646  30.590   5.203   9.840 -0.0234  0.2352 -0.0881
30734W        W73647   2.325   6.251  27.302 -0.0097  0.0897 -0.3635
30735W        W73648  25.607  29.519  28.802 -0.3165  0.3445 -0.4253
30736W        W73649  26.808   7.271   2.860  0.1492 -0.0681 -0.0999
30737W        W73650  29.078   4.574   2.281 -0.2536 -0.0030 -0.2994
30738W        W73651  34.154   3.822   4.865 -0.2953 -0.1204 -0.0834
30739W        W73652  27.779   9.888   6.703 -0.1604 -0.1299 -0.0828
30740W        W73653  33.607   5.011   3.023 -0.0149 -0.0486  0.0254
30741W        W73654  32.883   2.710  10.396 -0.1628 -0.2051  0.0302
30742W        W73655   5.323   8.083   3.032 -0.0183  0.1275 -0.1217
30743W        W73656  26.311   6.412   9.691 -0.1875  0.1075  0.2001
30744W        W73657  21.322  11.547   7.904 -0.2695  0.0035 -0.0590
30745W        W73658  31.120  31.720   7.690  0.0820  0.0175 -0.2238
30746W        W73659  22.224  26.226   3.280 -0.1478  0.1800  0.1587
30747W        W73660  28.054  33.775   8.928  0.0362 -0.0409 -0.2028
30748W        W73661  22.179   3.755   7.442 -0.3205 -0.1058  0.0030
30749W        W73662   0.319  30.514   7.911  0.3477  0.0869 -0.1569
30750W        W73663  30.874   0.668   5.372  0.2449  0.0600 -0.1482
30751W        W73664  28.081  28.988   5.421  0.0079 -0.0704 -0.1890
30752W        W73665   0.366  33.188   9.710  0.2970 -0.0861  0.0399
30753W        W73666  29.925  29.953   3.370 -0.0441  0.0019  0.1281
30754W        W73667  21.690   1.189   7.503 -0.0086 -0.0292  0.0845
30755W        W73668  20.488   1.342   8.307 -0.1591 -0.1735 -0.3038
30756W        W73669  19.676   6.545  27.934 -0.0961  0.2572  0.0819
30757W        W73670  30.622   0.155   9.510  0.0038  0.0962  0.1040
30758W        W73671   2.018   5.886   5.043 -0.2465 -0.2524 -0.0804
30759W        W73672   3.808  31.913  10.979  0.1060  0.1160  0.0169
30760W        W73673  25.882  34.368   9.773 -0.0055  0.0442 -0.0631
30761W        W73674  30.490   5.599  26.880 -0.1355  0.0203 -0.0715
30762W        W73675  30.422  20.745   8.804 -0.2470  0.0808 -0.1494
30763W        W73676   1.304   1.044   3.815 -0.0658 -0.1558 -0.0931
30764W        W73677  20.856   8.106   7.631 -0.0871  0.0773  0.0101
30765W        W73678   7.561   9.774   7.368  0.0893 -0.0371 -0.0891
30766W        W73679  18.895   6.217   5.657  0.1121  0.0194 -0.2865
30767W        W73680   5.599  28.283   8.120  0.1501  0.4852 -0.1034
30768W        W73681  21.524   8.254   4.092  0.1994 -0.1358  0.0226
30769W        W73682   4.005  28.491   9.824  0.2914 -0.0050 -0.1861
30770W        W73683  26.812  34.302  26.691 -0.4045  0.0641 -0.0355
30771W        W73684   0.814   1.345   5.078 -0.2362  0.0229  0.0492
30772W        W73685  18.575  15.505  24.994 -0.2465 -0.0790 -0.5550
30773W        W73686  28.613   0.347   9.872  0.4092 -0.1124  0.0685
30774W        W73687  30.505  11.285   5.916 -0.2597 -0.0280 -0.0854
30775W        W73688  20.539   7.704   8.391 -0.2549  0.0653 -0.1243
30776W        W73689   7.497  30.203  11.039  0.0958 -0.1840  0.0453
30777W        W73690  31.154  14.229   7.966  0.4806  0.0352 -0.1741
30778W        W73691  29.650  30.317   1.149  0.1697  0.1845 -0.2390
30779W        W73692  26.316   3.032   9.439 -0.1139 -0.0468  0.2353
30780W        W73693  27.934   4.181   3.048 -0.0052  0.1854  0.2103
30781W        W73694   1.937   0.839  11.328 -0.1516 -0.1168 -0.0626
30782W        W73695  30.964  23.426   9.658  0.1665 -0.0521 -0.1514
30783W        W73696  32.795   2.036   8.425 -0.1652  0.1651 -0.0908
30784W        W73697  31.856  25.503   5.919 -0.0800 -0.2010 -0.1285
30785W        W73698  25.498   2.391   4.974  0.3066 -0.2884  0.1178
30786W        W73699   0.234   3.216  11.641  0.3130 -0.3437  0.0948
30787W        W73700  26.702   1.809   1.665  0.1548  0.2544  0.1121
30788W        W73701  26.129  30.984   4.617 -0.2799 -0.1903 -0.2301
30789W        W73702  33.572   9.182   0.979 -0.3569 -0.0834 -0.0290
30790W        W73703  31.264   4.564   3.704  0.3226  0.0928  0.2785
30791W        W73704   3.690   5.749   6.916  0.1496  0.1706 -0.2024
30792W        W73705  27.598  12.590   6.574  0.1042  0.1724 -0.0068
30793W        W73706  25.912  12.454   1.221  0.2659 -0.1269  0.0217
30794W        W73707  23.153   9.018   0.009  0.1023  0.0598  0.3140
30795W        W73708  28.525   4.352   4.967 -0.0797  0.0581 -0.0565
30796W        W73709   1.461   4.062   7.637  0.0577  0.1149  0.1315
30797W        W73710  26.643  34.356   2.504  0.0684 -0.5086 -0.0607
30798W        W73711  34.292   6.092   4.810 -0.0483  0.1070  0.2209
30799W        W73712  30.245   6.537   8.957 -0.0872 -0.0758 -0.1513
30800W        W73713  21.619  27.921   5.944  0.0302  0.1350 -0.1320
30801W        W73714  23.594   0.747  27.069  0.3739 -0.0610  0.0383
30802W        W73715  26.714  15.227   6.032  0.3067  0.0417 -0.1431
30803W        W73716   8.425   4.739  11.581 -0.1413  0.0417 -0.1354
30804W        W73717   5.741  33.845   9.336 -0.0773  0.1490  0.1821
30805W        W73718   0.613   0.936   4.324  0.4821 -0.0179  0.1047
30806W        W73719   1.432   4.655  10.791 -0.1311 -0.0885 -0.0421
30807W        W73720  29.787   7.049   8.905 -0.1008 -0.0286 -0.0036
30808W        W73721  32.252   5.549  10.013  0.0448  0.0287 -0.1691
30809W        W73722  32.290   1.580   5.817 -0.0276 -0.0647 -0.1058
30810W        W73723   3.033  30.224   7.119  0.0440  0.0553 -0.0308
30811W        W73724  31.982   3.813  11.606 -0.0447  0.0396  0.1669
30812W        W73725  24.151  13.414   7.343  0.0919 -0.3967  0.1246
30813W        W73726  32.661  28.336   6.594  0.4540  0.3568  0.0480
30814W        W73727  29.207   6.026   7.740  0.0916 -0.0127  0.0783
30815W        W73728  32.402   6.734   8.643  0.0943 -0.2003  0.1151
30816W        W73729   2.772   9.655  26.638  0.2071  0.3924  0.2930
30817W        W73730  32.840   5.223   5.547 -0.1681  0.1036 -0.1431
30818W        W73731  33.325  12.497  10.331 -0.2683 -0.1788 -0.1105
30819W        W73732  20.843   0.014  23.812  0.0237  0.2361  0.3173
30820W        W73733  25.791   3.904   4.657 -0.2037  0.0742 -0.0852
30821W        W73734  30.756   0.238   7.332  0.1223 -0.0036  0.1087
30822W        W73735  31.548   1.295   3.642  0.0836  0.0631 -0.0315
30823W        W73736  32.662   1.345  28.590  0.0028 -0.0748  0.0803
30824W        W73737  19.340   7.898  29.225  0.1513  0.0523 -0.0871
30825W        W73738  29.726   9.178  25.947  0.2955 -0.4085 -0.1143
30826W        W73739  24.469  29.319   1.257  0.1685 -0.1149  0.1993
30827W        W73740   0.034   2.031   9.512 -0.1333  0.1553  0.2747
30828W        W73741  20.247   4.061   2.715 -0.2913  0.0488  0.0827
30829W        W73742  19.894   1.218  29.377 -0.0582 -0.7064 -0.0735
30830W        W73743  27.029  24.936   3.279 -0.1304  0.0557  0.1474
30831W        W73744  29.119  28.003   0.526  0.3079 -0.1547  0.2724
30832W        W73745   5.483   3.853   4.703 -0.2878  0.2300  0.0581
30833W        W73746  23.656  15.425  25.780  0.0947 -0.1635  0.3100
30834W        W73747  24.144   1.901   7.293  0.3944  0.5003  0.0443
30835W        W73748   3.441  12.231   6.650 -0.0492  0.3477  0.1428
30836W        W73749  25.300   6.740  20.638  0.1104 -0.4944 -0.0273
30837W        W73750  29.791   5.933   9.254  0.0520  0.0368  0.1184
30838W        W73751   6.144  12.240   9.724 -0.0687 -0.0344  0.3160
30839W        W73752  30.334  27.547   3.217  0.0083 -0.2517  0.1726
30840W        W73753  31.557  28.138  26.720  0.0640  0.1701 -0.2691
30841W        W73754   1.604  10.719  10.285 -0.0005 -0.0937  0.1643
30842W        W73755  28.066   5.745  26.363 -0.1039 -0.1125 -0.1049
30843W        W73756  29.632   2.891  25.493  0.0222 -0.0985 -0.1768
30844W        W73757  22.927  13.539   9.138 -0.3804 -0.0118  0.1163
30845W        W73758  23.984  11.833  26.168  0.1470 -0.1333 -0.2798
30846W        W73759  34.040   1.852   3.207  0.0487  0.0855 -0.2390
30847W        W73760  32.267   3.964   7.337  0.1848 -0.1783  0.1256
30848W        W73761  25.910  32.150   0.406  0.0291 -0.1651 -0.1855
30849W        W73762  28.604  14.334   7.339  0.0422  0.2335  0.0920
30850W        W73763  20.207   8.129   5.159 -0.2495  0.0503 -0.0565
30851W        W73764  26.415   9.096   1.743  0.1311 -0.1436  0.0367
30852W        W73765  13.873   2.976  28.872 -0.1283 -0.2028 -0.0094
30853W        W73766   0.752   1.195  10.529 -0.0724 -0.1706 -0.0251
30854W        W73767  13.971   5.485  19.522 -0.1503  0.5197  0.1371
30855W        W73768  18.953  13.872   8.124 -0.1376  0.0945  0.2074
30856W        W73769  29.978   6.068  25.765  0.2966 -0.0493  0.0429
30857W        W73770  22.653   4.763  23.938 -0.0246 -0.0628 -0.0880
30858W        W73771  33.392   9.264  25.162  0.2950  0.1803 -0.2644
30859W        W73772  19.480   1.446   4.065  0.1814  0.0375  0.3428
30860W        W73773  21.481   9.997  25.562 -0.0332 -0.2426  0.2417
30861W        W73774  29.401  16.049  28.442 -0.0851  0.2181  0.1304
30862W        W73775  20.452   5.495  29.502  0.0672 -0.1647 -0.0678
30863W        W73776  10.340   4.518  27.399 -0.1531 -0.0386 -0.5216
30864W        W73777   7.709   8.235   0.243  0.0771  0.2718 -0.0171
30865W        W73778  18.658   2.709   6.361  0.0396 -0.1208 -0.0725
30866W        W73779  26.951   3.023   2.545 -0.0290  0.1068 -0.2078
30867W        W73780   1.409   6.818  24.889  0.1883 -0.0490  0.1029
30868W        W73781  30.227   6.713  10.174  0.0129 -0.2383  0.0008
30869W        W73782  27.304   5.030   3.038  0.2430  0.0805 -0.0867
30870W        W73783   1.464   8.689   0.075 -0.0411  0.0369  0.0504
30871W        W73784  32.597   2.555   7.777  0.0191  0.0138 -0.1233
30872W        W73785  33.037  31.360   2.360  0.1508  0.1353  0.3361
30873W        W73786   0.956  33.023   4.493 -0.0838  0.0219  0.2243
30874W        W73787  28.931   1.107  25.354 -0.2443  0.2033  0.1147
30875W        W73788  14.065   5.312  24.927 -0.1027 -0.2407  0.1186
30876W        W73789  28.931  29.065   1.343 -0.1153  0.0582 -0.0960
30877W        W73790   1.048   6.979   7.955 -0.1408  0.1156 -0.0900
30878W        W73791  16.425  31.930  24.359 -0.0139  0.1838  0.2831
30879W        W73792  33.192   0.515   9.190  0.0469  0.0420 -0.2168
30880W        W73793  22.976  15.730   2.474  0.0839 -0.0401  0.0186
30881W        W73794  24.691   2.541   8.538 -0.0791  0.0118 -0.0535
30882W        W73795  21.792   3.585   2.608  0.0857  0.0774 -0.4781
30883W        W73796   3.802   2.695  10.337 -0.0562  0.0038 -0.0559
30884W        W73797  15.073   2.288  22.858 -0.0248  0.2487 -0.2357
30885W        W73798  26.034  30.610   1.221 -0.2855 -0.1402  0.0056
30886W        W73799  20.351   7.426   4.348  0.0406 -0.1921  0.0134
30887W        W73800  15.886   3.569  18.975 -0.0764  0.2110  0.3278
30888W        W73801  29.333   6.715  27.751  0.4176  0.1995 -0.0101
30889W        W73802  26.996  10.565   0.650 -0.0451  0.0547 -0.0468
30890W        W73803  32.264  11.594   7.747  0.2257 -0.0144  0.1349
30891W        W73804  30.706   8.747   8.796 -0.0501 -0.1156 -0.1280
30892W        W73805  30.031   4.695   1.571  0.2846  0.0022  0.0379
30893W        W73806  26.531  34.455   6.512 -0.2774 -0.2742  0.2099
30894W        W73807  34.133  11.672  29.720  0.5289 -0.0336 -0.2546
30895W        W73808  21.336  30.835  24.200  0.0156  0.2268 -0.0116
30896W        W73809   4.278   4.634  27.599  0.2361  0.1702  0.0486
30897W        W73810  26.187  14.249   4.346  0.0900  0.1063 -0.0537
30898W        W73811   0.776   4.588  11.750 -0.2543 -0.0723 -0.0544
30899W        W73812  16.005  15.416   6.537 -0.1161 -0.3103 -0.1597
30900W        W73813  16.293  33.533  27.973 -0.2876  0.0947 -0.5107
30901W        W73814   1.982   4.953   9.209  0.0131  0.2166  0.3117
30902W        W73815  22.629  20.854  29.103 -0.0661 -0.1779  0.1539
30903W        W73816  27.513  11.694   2.062  0.1210 -0.0057  0.2463
30904W        W73817  22.205   1.773  20.249  0.2119 -0.4454 -0.0424
30905W        W73818  24.286  33.987   1.375  0.2311 -0.0075 -0.1503
30906W        W73819  26.704   5.383  28.338  0.2363 -0.0959 -0.0720
30907W        W73820  30.495  13.015  22.536 -0.0551  0.0906  0.2166
30908W        W73821   1.792   1.766  25.892  0.0055 -0.2394  0.0057
30909W        W73822  30.889   1.671  21.843  0.0644 -0.4045  0.0564
30910W        W73823  29.179  17.975  17.950 -0.0913 -0.3061  0.0057
30911W        W73824  22.036   6.962   2.998 -0.1172  0.2130  0.2729
30912W        W73825  21.818  16.392   7.749 -0.0940 -0.0681  0.1060
30913W        W73826  31.561   3.582  23.333 -0.3131 -0.1316 -0.1646
30914W        W73827  27.086   1.331   6.668 -0.1380  0.0335  0.0213
30915W        W73828  15.920  31.548  28.627 -0.2317 -0.2668 -0.0682
30916W        W73829  28.310   9.283   4.093  0.1450 -0.1383 -0.0475
30917W        W73830  31.929   1.646  28.379 -0.0925 -0.0485 -0.3270
30918W        W73831  32.780  11.142   0.914 -0.0720  0.0778 -0.4214
30919W        W73832  15.960   5.728   3.497 -0.0501  0.0331  0.2274
30920W        W73833  30.327   2.725  10.641 -0.1584 -0.2266 -0.1323
30921W        W73834  19.913  13.091   1.413  0.1261  0.0539  0.0322
30922W        W73835  26.075  33.046  28.515  0.2766 -0.1559  0.1182
30923W        W73836  26.144  30.432  28.673 -0.0119 -0.3358 -0.3001
30924W        W73837  15.924  30.285   2.186  0.3482 -0.0692  0.1625
30925W        W73838  32.580  30.525   4.303  0.1598  0.5598 -0.1125
30926W        W73839  30.455   8.658  29.725 -0.0492  0.2035 -0.0517
30927W        W73840  17.519   4.420   2.743 -0.1140  0.1054 -0.1600
30928W        W73841  27.876  17.054   6.308 -0.3207 -0.2933  0.0306
30929W        W73842  30.108   4.083   6.486  0.2235  0.0021  0.2710
30930W        W73843  27.646   2.626  23.385  0.0806 -0.0868 -0.0936
30931W        W73844  26.533   8.765   1.386 -0.1155  0.2089  0.0707
30932W        W73845  32.867   8.730  25.862 -0.2427  0.0352 -0.0796
30933W        W73846  20.468  25.194   6.022 -0.0974 -0.0261 -0.0188
30934W        W73847  32.953   9.674  27.382  0.0968 -0.1524 -0.0333
30935W        W73848  31.380   5.877   1.452  0.2590  0.2087 -0.2368
30936W        W73849  25.173   0.826   2.618  0.2109 -0.0693  0.0525
30937W        W73850  25.878   9.022  21.869 -0.1619  0.2940  0.1471
30938W        W73851   8.859   1.277  24.872  0.1072 -0.1711 -0.1377
30939W        W73852   6.756  16.991   4.183  0.4069  0.1471  0.0758
30940W        W73853  32.377   5.120   5.333  0.3887 -0.0100  0.2067
30941W        W73854   5.175   7.503   3.712 -0.0834 -0.0891  0.0859
30942W        W73855  23.296  12.196   1.118  0.2337 -0.0758  0.1089
30943W        W73856  17.875   7.217  23.089  0.2475 -0.0776 -0.1202
30944W        W73857  24.817   4.490  21.069 -0.0927  0.2056 -0.0704
30945W        W73858   1.801  33.706  25.069 -0.1101 -0.3865  0.1851
30946W        W73859  23.284  33.648   5.061  0.0795 -0.0918 -0.1639
30947W        W73860  24.195   4.021  20.628  0.1281 -0.0211 -0.0928
30948W        W73861  26.497  18.956  23.348  0.1151 -0.1138  0.3954
30949W        W73862  31.416  33.288   1.321  0.0586 -0.3484 -0.2499
30950W        W73863  31.053  33.175  26.315 -0.2623  0.1713 -0.1338
30951W        W73864  30.693   7.301  21.742 -0.0853 -0.2615 -0.1001
30952W        W73865   5.148   3.405   2.917 -0.0797  0.0336  0.1232
30953W        W73866  26.201   8.972  19.599 -0.5129  0.3734 -0.2191
30954W        W73867  32.830   0.736   9.562 -0.2363  0.1058 -0.3510
30955W        W73868  16.942   5.837   2.905  0.0263  0.0509 -0.0628
30956W        W73869  26.665   4.662   4.125 -0.2517  0.0391 -0.0306
30957W        W73870  32.528   3.001   3.151  0.1398 -0.0115 -0.0165
30958W        W73871  14.826   3.043   1.454  0.0477 -0.1207  0.2036
30959W        W73872  28.216  11.712   5.998  0.3462 -0.2073 -0.0227
30960W        W73873  22.775  16.196   4.247  0.2318  0.3052  0.0508
30961W        W73874  27.652  14.045   9.316 -0.1522 -0.1383 -0.1338
30962W        W73875  25.095   3.166   5.704 -0.1435  0.0087 -0.3783
30963W        W73876  34.477  11.082   4.627 -0.2467 -0.1608 -0.0867
30964W        W73877  30.398   3.902   1.286 -0.0120  0.0066  0.3072
30965W        W73878  21.672   0.991  19.400  0.1621  0.1786  0.1081
30966W        W73879   4.146  26.780   2.390  0.2627 -0.1565  0.4859
30967W        W73880  31.073  34.231   1.580  0.3673  0.1323 -0.0353
30968W        W73881  30.271   1.188  25.851 -0.1248 -0.1788  0.0819
30969W        W73882  32.890  10.993   3.777  0.1761  0.2826  0.1123
30970W        W73883  30.040  33.258   1.835  0.1031 -0.0785  0.5503
30971W        W73884  29.084  27.675   2.428  0.1069  0.0800 -0.2320
30972W        W73885  24.661   8.476   5.434 -0.0733 -0.1528  0.0872
30973W        W73886  30.782  32.874  15.344 -0.0628  0.1099  0.1953
30974W        W73887  28.846  12.175  26.202  0.1214  0.1728  0.2255
30975W        W73888   0.266  16.770  28.131 -0.0152  0.1241 -0.0652
30976W        W73889  15.746  29.193   0.504  0.0336 -0.1545  0.0638
30977W        W73890  33.045  14.775  26.738  0.0220  0.3471  0.1585
30978W        W73891  26.609  10.100  24.235 -0.0818 -0.1268 -0.1723
30979W        W73892  19.089   4.163   5.184 -0.3440  0.2826  0.0206
30980W        W73893  34.284  14.424   5.787  0.1966  0.0977  0.1036
30981W        W73894  20.700  11.990  28.582  0.2137 -0.1463  0.0099
30982W        W73895  23.758   9.828   2.350 -0.0682  0.3272 -0.0007
30983W        W73896  25.004   8.043   5.436  0.0839  0.0172 -0.0183
30984W        W73897  16.240   5.671  29.607  0.0720  0.1699 -0.1391
30985W        W73898  25.097  32.997   3.860 -0.1456 -0.0982  0.1418
30986W        W73899  20.058  10.004   0.690  0.2094  0.1050  0.0804
30987W        W73900  30.714   4.420   8.528 -0.2506  0.4690  0.0056
30988W        W73901  31.103   1.070   3.575  0.0688 -0.2988  0.0213
30989W        W73902  18.381   8.234  28.115 -0.1490 -0.2514 -0.0154
30990W        W73903  15.170   6.983  25.928 -0.2822  0.2110  0.1821
30991W        W73904  24.885   9.750  24.155 -0.1484  0.0786  0.0269
30992W        W73905  19.814   8.362   0.019 -0.1068  0.0477  0.1297
30993W        W73906   0.013  10.617   5.130 -0.0881 -0.2106 -0.0764
30994W        W73907  30.360  30.375  10.316  0.1991 -0.0144 -0.3109
30995W        W73908  19.792   3.971   9.043 -0.1541  0.0103  0.3487
30996W        W73909  24.237  30.153  28.843 -0.0960  0.1378  0.2258
30997W        W73910  18.366   6.920  21.661 -0.0992  0.0937  0.0955
30998W        W73911  31.679   8.231  10.713  0.4575 -0.1000 -0.0893
30999W        W73912  30.692  12.560   8.406  0.1078 -0.0502 -0.0265
31000W        W73913  29.727   4.425   4.832 -0.1613 -0.1243  0.1392
31001W        W73914   9.267   3.974   0.743 -0.0068 -0.2503  0.4006
31002W        W73915   1.052   5.669   5.645 -0.4628  0.2077 -0.4725
31003W        W73916  20.063   6.539  27.561 -0.3151 -0.4211 -0.0206
31004W        W73917  15.485  32.302  29.429 -0.1439 -0.4404  0.0523
31005W        W73918  18.823   8.476  25.335 -0.2530 -0.0340 -0.1232
31006W        W73919  32.366   5.880   5.245 -0.2055 -0.1170 -0.0285
31007W        W73920  26.495  10.089   4.478 -0.1306 -0.1621 -0.0453
31008W        W73921  20.821  16.295   3.924 -0.0128 -0.1846 -0.0055
31009W        W73922  32.741  12.781  24.620 -0.0226  0.0587  0.1412
31010W        W73923  23.707  24.729   0.285  0.1010  0.1430  0.1456
31011W        W73924  16.751   3.905  18.547  0.2486 -0.0931  0.0281
31012W        W73925  24.224   5.875  28.514  0.2215  0.1294  0.2323
31013W        W73926  10.097  33.335  29.609  0.4857  0.0582 -0.0302
31014W        W73927  25.812   3.166   6.453 -0.0118  0.0215 -0.1491
31015W        W73928  24.006  29.619   7.404 -0.2720 -0.0013  0.0776
31016W        W73929  29.328   2.664   7.879 -0.3337  0.2957  0.0668
31017W        W73930  33.137   7.433   6.482  0.0655 -0.1148 -0.1278
31018W        W73931  25.236  14.975  27.832  0.1208  0.1652  0.3285
31019W        W73932  26.250   9.868   2.301 -0.0042  0.1996  0.4587
31020W        W73933  28.166  10.190  20.515 -0.0593 -0.1682 -0.1823
31021W        W73934  22.978   3.087  25.243 -0.0810  0.1384 -0.1448
31022W        W73935  29.175   7.080   1.179 -0.3346 -0.2477  0.0198
31023W        W73936  33.172  25.564   7.134  0.2302  0.3242  0.2012
31024W        W73937  15.286   2.508   7.882  0.2484  0.3517 -0.2610
31025W        W73938   0.936  11.997  28.758 -0.2230 -0.0146 -0.1993
31026W        W73939  24.858  30.673   1.754  0.1593  0.0548 -0.2472
31027W        W73940  21.338   5.592  26.186  0.0073 -0.0108 -0.1987
31028W        W73941  20.343  33.402  19.152  0.0524  0.2788  0.1937
31029W        W73942   0.549   8.058   0.416  0.0139  0.2531 -0.2764
31030W        W73943  27.677   9.995   0.269  0.1025 -0.2064  0.0048
31031W        W73944  27.098   9.307   6.801 -0.1075  0.0175  0.1087
31032W        W73945  14.306  12.735   6.080  0.0196 -0.2287 -0.3673
31033W        W73946  28.056   2.053  27.549  0.0794  0.1424  0.2152
31034W        W73947  23.381   9.100  27.815 -0.1586  0.1606  0.1172
31035W        W73948  29.672   2.545   9.587 -0.2779  0.6167 -0.2070
31036W        W73949   3.156   6.653   2.658  0.0371 -0.2322 -0.0328
31037W        W73950  29.458  14.919   0.520 -0.0168 -0.1349 -0.0597
31038W        W73951   0.979  29.321   0.409 -0.0396  0.0116  0.1340
31039W        W73952  25.656  10.352   1.596  0.2266  0.0099  0.3187
31040W        W73953  23.322  17.306   0.847  0.2611  0.2282  0.0823
31041W        W73954   2.391  18.374   8.765  0.2785 -0.1661 -0.3421
31042W        W73955  29.999  19.225   4.617 -0.0258 -0.0666  0.2362
31043W        W73956  26.516  13.765  25.173 -0.0949  0.4109 -0.0821
31044W        W73957  30.191   5.214   1.744  0.1101 -0.3040 -0.0171
31045W        W73958  32.880   3.321   6.765  0.1113  0.1215 -0.0658
31046W        W73959  31.756   5.663   5.632  0.2198  0.0254 -0.0302
31047W        W73960  22.793  28.424  27.264  0.1057  0.3982  0.0181
31048W        W73961  27.493   2.131   2.915 -0.0693 -0.1997 -0.0104
31049W        W73962  19.583   6.134   5.960  0.1399 -0.2355 -0.2449
31050W        W73963  31.459  24.190   8.460 -0.0485 -0.1657 -0.1825
31051W        W73964  26.481  31.988   1.629  0.0854  0.0429 -0.0479
31052W        W73965  23.930   7.825   4.456 -0.0253 -0.0885 -0.1644
31053W        W73966  31.916  33.805  28.292 -0.1333 -0.0959 -0.1159
31054W        W73967  28.533  15.034   8.921 -0.1683 -0.1173 -0.0171
31055W        W73968  23.029   1.261   1.542  0.1090 -0.5739 -0.0736
31056W        W73969  11.291  16.419  28.931 -0.2170  0.2272 -0.0606
31057W        W73970  22.210   0.739   4.900 -0.2669 -0.0249  0.2061
31058W        W73971  32.773   0.425   0.835 -0.0953 -0.0878 -0.1788
31059W        W73972  21.317   3.571  26.057 -0.1650 -0.1268  0.1223
31060W        W73973  21.552   5.153  29.048  0.3098 -0.1333 -0.0923
31061W        W73974  34.478   4.653   3.507  0.0364  0.4357 -0.0417
31062W        W73975  17.555  20.177   4.342  0.3411 -0.2014  0.0361
31063W        W73976  29.113   0.262   0.315  0.0314  0.2004  0.0679
31064W        W73977  23.634  14.728   0.490  0.2890  0.2475  0.0323
31065W        W73978  15.346   3.708   9.284 -0.0438  0.0513 -0.1067
31066W        W73979  33.497  32.990   9.875  0.0930  0.1570 -0.1633
31067W        W73980  12.955   3.232   7.273 -0.1404  0.2303  0.3619
31068W        W73981  29.660   5.163   4.391  0.0426  0.0326 -0.2200
31069W        W73982  29.243  13.982  25.007 -0.2574 -0.2886  0.1490
31070W        W73983  28.803   1.501  29.135  0.2746  0.0362  0.0209
31071W        W73984  29.514  33.225  29.533 -0.1704  0.0317 -0.1932
31072W        W73985  15.611   5.396   3.011  0.2158 -0.0157 -0.0994
31073W        W73986  30.677  30.981   4.663  0.3166 -0.4090  0.2299
31074W        W73987   6.574  28.494   4.803 -0.2778  0.0015  0.0343
31075W        W73988  34.030   4.469   0.104  0.1272  0.2734  0.0895
31076W        W73989  24.920  12.034   0.069  0.2387  0.0996 -0.0716
31077W        W73990   3.435  20.137  27.560  0.0155  0.2317 -0.0466
31078W        W73991  23.734  32.928   6.461  0.1983  0.2592 -0.1782
31079W        W73992  26.862   8.445  23.610 -0.0495  0.1366  0.2803
31080W        W73993  19.537   8.024   0.977  0.3453  0.0508 -0.1021
31081W        W73994  29.863   5.035   6.773  0.2118 -0.1738 -0.1941
31082W        W73995  20.281  22.069   4.776  0.1346 -0.0087  0.4465
31083W        W73996  25.470  11.353   4.057  0.1940  0.0327  0.0595
31084W        W73997  19.962   8.942   4.009  0.0912 -0.1212 -0.1993
31085W        W73998   5.979   3.732  25.100  0.0409  0.1429 -0.0768
31086W        W73999  32.432   4.316   4.671 -0.1566 -0.3802  0.1255
31087W        W74000  26.675  19.282  27.392  0.0428 -0.3716 -0.2713
31088W        W74001  27.510  12.790   4.844 -0.1670 -0.2236 -0.0627
31089W        W74002  18.487   7.126   2.242 -0.1024  0.1412  0.1423
31090W        W74003  30.301  29.097   7.512  0.2822  0.1198 -0.0763
31091W        W74004  32.371   5.262   2.871  0.0086  0.1543  0.0896
31092W        W74005  30.667  31.708  26.940  0.3927 -0.2380  0.1541
31093W        W74006   6.845   9.531   8.426 -0.0879 -0.1928  0.1383
31094W        W74007  33.985   9.015  29.357 -0.3257  0.3816  0.2568
31095W        W74008  25.201  11.789   9.459 -0.1358  0.0467 -0.1681
31096W        W74009  32.904  12.933   5.609  0.0025  0.0763  0.0900
31097W        W74010  32.299  31.062  29.413  0.2730 -0.4180  0.0820
31098W        W74011  23.344  11.392  28.946  0.2827 -0.0072  0.0964
31099W        W74012  26.329  11.290   6.833 -0.0220  0.0227 -0.1184
31100W        W74013   2.486   8.464  10.294 -0.2663  0.2659 -0.3804
31101W        W74014  22.541   3.361  28.412 -0.1014  0.1750 -0.1035
31102W        W74015  26.384  10.532   7.509 -0.1392  0.2269  0.0782
31103W        W74016  22.366   2.816   7.641  0.1402  0.0534  0.0366
31104W        W74017   0.505   6.670   6.830  0.0742  0.1659 -0.1518
31105W        W74018  23.714  31.012   3.685  0.2385 -0.2561  0.3767
31106W        W74019  23.202  16.058   6.818 -0.1359  0.2388 -0.2289
31107W        W74020  19.207   5.537   3.010  0.2532 -0.1590 -0.1288
31108W        W74021  31.934   1.391  29.690  0.2570  0.2680  0.0709
31109W        W74022  31.295  19.236  17.143 -0.2235 -0.0589 -0.2486
31110W        W74023  27.041  32.016   3.509  0.1691  0.1535  0.2481
31111W        W74024  20.467   8.416   0.989 -0.1056 -0.0414  0.2180
31112W        W74025  31.091  32.857   2.940  0.1267  0.1937 -0.0107
31113W        W74026  31.615   3.633   7.139  0.4662 -0.3214  0.0712
31114W        W74027   0.186  12.635   3.787  0.2467  0.1118 -0.0817
31115W        W74028  23.890  14.838   2.208 -0.0994  0.1824  0.1723
31116W        W74029   0.959   8.746  24.259  0.1712 -0.1063 -0.4830
31117W        W74030  31.119   3.862  20.660  0.2212 -0.2719  0.1949
31118W        W74031   0.429   4.117  29.119 -0.1537  0.1701  0.0397
31119W        W74032   4.210   8.579  22.498  0.3726 -0.1288 -0.1196
31120W        W74033  28.873   1.943   2.954 -0.2382 -0.0488  0.1120
31121W        W74034  22.935   0.823  28.479 -0.2177  0.0675 -0.3641
31122W        W74035  17.130   9.390   1.373  0.1321 -0.0022 -0.1658
31123W        W74036  22.347  17.041   0.384  0.3196  0.2093  0.1164
31124W        W74037  13.915  31.246  27.607 -0.0534 -0.2683  0.0163
31125W        W74038   3.754   4.422   4.329  0.0568 -0.2844  0.2712
31126W        W74039  23.297   6.126   6.049 -0.0184  0.1552 -0.0011
31127W        W74040  24.441  12.475  28.483  0.0818 -0.1513  0.2245
31128W        W74041  30.254   4.574   4.175  0.2547 -0.0420 -0.0275
31129W        W74042  33.599   0.561  21.137 -0.1980  0.0288  0.2609
31130W        W74043  18.978   1.654   1.702 -0.1813 -0.3822  0.0054
31131W        W74044  10.355   3.512  27.160 -0.1514 -0.0637 -0.0437
31132W        W74045  31.822   6.959   2.935  0.2659 -0.1934 -0.3954
31133W        W74046  29.083   5.621  28.127 -0.0521  0.0365 -0.1778
31134W        W74047   2.500  33.732  27.607  0.0492 -0.3257 -0.3367
31135W        W74048  32.974  17.279   3.814  0.0317  0.5276 -0.5107
31136W        W74049  28.553  31.856   1.273  0.2224 -0.0456  0.0833
31137W        W74050  30.804   4.767  26.197 -0.1296  0.0298 -0.1445
31138W        W74051  25.908   4.307   7.155 -0.1866  0.0134  0.0211
31139W        W74052  28.244  11.441  18.458 -0.2604  0.4247 -0.2087
31140W        W74053  26.242  17.981   1.065  0.0517  0.2921  0.2580
31141W        W74054  24.819  11.096  21.027  0.3116  0.0082 -0.3717
31142W        W74055  33.495   9.715  29.190 -0.1368 -0.1256  0.2397
31143W        W74056  20.423   2.853   3.501  0.4996 -0.0399  0.0369
31144W        W74057  28.524   9.848   3.757  0.0718  0.0921  0.2161
31145W        W74058  26.601  17.003   8.308  0.0615 -0.0979 -0.4031
31146W        W74059   3.304   4.859  11.274 -0.1258  0.1105 -0.0701
31147W        W74060   0.150   1.881  11.211  0.0074  0.2731 -0.0026
31148W        W74061  28.370  11.801   3.595 -0.1097 -0.1812 -0.0499
31149W        W74062  33.638   7.326  26.528 -0.2217  0.1331 -0.0502
31150W        W74063  26.500  30.607  26.857 -0.0716 -0.0865  0.0039
31151W        W74064  21.833   4.645  24.313  0.2706  0.2151  0.0267
31152W        W74065   0.010   3.167  27.454 -0.2010 -0.2886  0.1463
31153W        W74066  30.472   0.821  11.443  0.2229  0.1175  0.1150
31154W        W74067  24.168   3.177   6.950 -0.2096 -0.1279 -0.2406
31155W        W74068  25.406  11.957   5.851  0.1652  0.2458 -0.0235
31156W        W74069  23.643  29.845   5.644 -0.0345  0.0625  0.3685
31157W        W74070  29.645   6.295  29.436  0.0788  0.2076 -0.0013
31158W        W74071   4.947   1.313   5.971  0.1220  0.0322 -0.1507
31159W        W74072  17.930   6.009   7.848  0.0346  0.1879 -0.0203
31160W        W74073  17.758   8.925  22.949  0.2033 -0.1029 -0.1176
31161W        W74074  26.362   4.997   0.032 -0.2654 -0.1977 -0.0711
31162W        W74075  24.101  16.188  24.990  0.1936 -0.2666  0.1235
31163W        W74076  12.318   2.395   1.578 -0.0430  0.1309  0.2292
31164W        W74077  15.521   4.869  28.228  0.0525 -0.3535 -0.0317
31165W        W74078  22.330  33.845   3.748 -0.1852 -0.1918  0.0753
31166W        W74079  25.198  30.641  28.766 -0.1797 -0.2817  0.2336
31167W        W74080   1.259  33.619  20.117 -0.1511 -0.1926 -0.0804
31168W        W74081  23.096  33.549   1.891  0.1979 -0.1093  0.0226
31169W        W74082  31.611   5.618  25.686  0.2938  0.0944 -0.2320
31170W        W74083  18.130  32.195   1.382  0.1494  0.1447 -0.1355
31171W        W74084  30.986  14.351   5.968  0.0872  0.0436  0.3256
31172W        W74085  19.869  12.625  16.691  0.1092  0.1171  0.0575
31173W        W74086  21.707  16.291   6.855  0.0977  0.3520 -0.0718
31174W        W74087   4.289   6.090  18.154  0.1128  0.3828 -0.0673
31175W        W74088   6.144  33.533  24.145  0.1441 -0.1535 -0.0986
31176W        W74089  25.328  32.283   5.409  0.1720  0.1809  0.2460
31177W        W74090  18.356  32.219   6.480 -0.1472 -0.0872  0.1677
31178W        W74091  21.788   9.923   8.073 -0.4210 -0.0914 -0.2884
31179W        W74092  28.210  32.064  23.149  0.0143 -0.2690  0.4694
31180W        W74093   1.045   7.300   8.409  0.0385  0.0614  0.2862
31181W        W74094   0.795   8.719   5.238 -0.1185 -0.6472  0.3535
31182W        W74095  25.031  30.030  24.173 -0.1704  0.1664 -0.3529
31183W        W74096  18.461  32.472   2.901 -0.2143 -0.1232 -0.2140
31184W        W74097  23.997   5.973  20.921 -0.1846 -0.2455 -0.0661
31185W        W74098   6.609  28.288  29.491  0.0705 -0.5690 -0.2199
31186W        W74099  15.973   6.451   4.908  0.0225 -0.2246 -0.0480
31187W        W74100  23.596   5.038  20.819 -0.3021 -0.2050 -0.3115
31188W        W74101  17.823  16.726  13.861 -0.1534 -0.1306  0.2224
31189W        W74102  20.542  22.119   3.202 -0.5242  0.1057  0.1444
31190W        W74103  32.990  12.904  27.183 -0.3700  0.2355 -0.0942
31191W        W74104  30.327   5.226  18.998  0.3443 -0.2357 -0.0490
31192W        W74105  27.921  16.921  28.819 -0.0157  0.1453  0.2996
31193W        W74106  27.706   9.348   7.278  0.2035  0.2298  0.1043
31194W        W74107  32.077   1.899   6.085 -0.3360 -0.1184 -0.1930
31195W        W74108  22.567   0.678   8.285  0.0071  0.0760  0.1730
31196W        W74109  20.973  13.822   6.902 -0.1844 -0.0386  0.1355
31197W        W74110  30.824   8.706   2.360 -0.2507 -0.1235  0.3730
31198W        W74111  19.560  30.868   1.981 -0.1613 -0.2094  0.1703
31199W        W74112   2.088   4.776  24.888  0.2030 -0.1347  0.1452
31200W        W74113  31.545   3.194   3.030 -0.0543 -0.1588  0.2846
31201W        W74114  33.134   8.997   1.146  0.1979  0.0793  0.1358
31202W        W74115  11.315   0.151   7.428 -0.1011  0.0006 -0.1477
31203W        W74116   0.576  21.397  27.995 -0.1389  0.0242  0.0672
31204W        W74117  18.716  32.976   8.524 -0.1039 -0.2498  0.4634
31205W        W74118  32.226   8.521   2.332 -0.3189  0.3733  0.2211
31206W        W74119   3.247  33.737  29.105  0.2464 -0.2853 -0.0614
31207W        W74120  21.744   7.929  28.011 -0.1900 -0.1552 -0.0809
31208W        W74121  16.664   1.206  27.887 -0.0193 -0.1895  0.0413
31209W        W74122   8.006   8.526  28.672  0.1896 -0.3256  0.0448
31210W        W74123  26.425  11.091   7.403  0.4275  0.1617 -0.0106
31211W        W74124  28.867  34.112   5.840  0.1189  0.0642  0.2142
31212W        W74125  25.759  13.482   4.501 -0.1060  0.0837  0.0690
31213W        W74126  32.560  12.282   3.862  0.0727 -0.0696 -0.0274
31214W        W74127  22.371  10.622   0.829 -0.1805 -0.1405 -0.3381
31215W        W74128  28.148   9.243  26.632 -0.1628 -0.0511  0.1355
31216W        W74129   6.201  23.292   5.388 -0.2356 -0.2286  0.2662
31217W        W74130  25.422  33.533  28.152 -0.2654 -0.1650 -0.1706
31218W        W74131  17.217   9.955  24.006  0.1258 -0.3817  0.1079
31219W        W74132  30.829   9.553   2.732  0.0554 -0.2361  0.0127
31220W        W74133  26.026   8.396   2.597  0.0357 -0.1297 -0.1888
31221W        W74134  27.947   4.753  29.568  0.0151 -0.0117 -0.0281
31222W        W74135  16.812   9.907   6.572  0.1936 -0.1777  0.2978
31223W        W74136  32.158  23.274  27.964 -0.0080 -0.0179 -0.0716
31224W        W74137   0.118   9.084  10.788 -0.1978 -0.1547 -0.0779
31225W        W74138  29.107  32.827   6.635 -0.1271  0.1358 -0.2243
31226W        W74139  21.862   0.894  29.383 -0.2646 -0.0552 -0.0216
31227W        W74140  24.979  34.205   8.366 -0.0938  0.0989  0.1365
31228W        W74141  30.654   2.180  21.862 -0.1293  0.1056  0.1196
31229W        W74142  26.249   8.042  26.884 -0.0313  0.0708  0.1121
31230W        W74143   2.212  13.411   6.631 -0.0790 -0.2747 -0.1234
31231W        W74144  28.667   8.142  27.774 -0.2231 -0.0897  0.1063
31232W        W74145  31.831   6.141   7.411 -0.1566 -0.0827 -0.0487
31233W        W74146  25.750   8.967   6.734 -0.0461  0.2402 -0.0015
31234W        W74147  30.210   6.516  27.156  0.3618 -0.0921  0.0992
31235W        W74148  25.737  12.354   8.599  0.2036 -0.1580  0.1807
31236W        W74149  26.150  34.222   5.620 -0.1380  0.3724 -0.0085
31237W        W74150  20.557   4.271   9.184  0.0918 -0.0622  0.0545
31238W        W74151   3.615   9.920   1.975  0.2358  0.3216  0.0850
31239W        W74152  17.162  10.720   7.999 -0.0512 -0.1162 -0.0765
31240W        W74153  21.083   6.040   4.210  0.3141 -0.0264  0.0679
31241W        W74154  21.065  13.800   8.951 -0.1526  0.2501 -0.1844
31242W        W74155  21.967   4.921   1.072 -0.0265 -0.0093 -0.3765
31243W        W74156  33.749   6.424   5.998 -0.0507 -0.1755  0.3416
31244W        W74157  28.931   3.552   3.680 -0.0637  0.2784  0.3227
31245W        W74158  31.193  12.732   9.133 -0.2643  0.1626 -0.4036
31246W        W74159  27.193  13.092   6.403  0.1826  0.1876 -0.0659
31247W        W74160  10.183   0.624  11.781  0.3232 -0.2815 -0.1436
31248W        W74161  20.313  12.672   7.105 -0.0443  0.1769 -0.2023
31249W        W74162  17.942  26.444  26.552 -0.4388  0.1018 -0.2247
31250W        W74163  28.530   3.228   6.074 -0.1004  0.1309  0.0752
31251W        W74164  28.311  11.497   7.752 -0.0120 -0.0072  0.0819
31252W        W74165  26.909   6.147   7.633 -0.0665  0.1940 -0.2540
31253W        W74166  33.716  30.767   8.316 -0.0338  0.3580 -0.0118
31254W        W74167  32.136   1.406   7.935  0.0096 -0.0124 -0.0036
31255W        W74168  30.056  12.466   5.318  0.1938  0.0478  0.0729
31256W        W74169  27.116  12.475   9.219  0.0174 -0.1255 -0.0319
31257W        W74170  15.549   0.435   5.722 -0.1643  0.2352 -0.2679
31258W        W74171  26.460   8.253   7.045 -0.1789 -0.0574 -0.3654
31259W        W74172  32.553   1.847   3.925  0.3424 -0.0632 -0.1767
31260W        W74173  12.616  32.397  25.575 -0.0932  0.0363 -0.0528
31261W        W74174  29.059   5.112  28.626 -0.2321 -0.0223  0.0725
31262W        W74175   2.613   1.214   7.771  0.1211 -0.0680 -0.2304
31263W        W74176  19.752  16.666  27.363  0.1881 -0.1934 -0.1476
31264W        W74177  28.502   7.761   6.515 -0.0215 -0.1710  0.2227
31265W        W74178  32.543   1.412   2.111 -0.2303  0.0863  0.1613
31266W        W74179  27.393   1.227  28.506  0.2265  0.2540  0.1679
31267W        W74180   0.785   0.963   7.228  0.0666 -0.3792 -0.0577
31268W        W74181  16.929  10.305  25.923 -0.0976  0.1724 -0.0301
31269W        W74182  25.733   0.552  10.059 -0.3199 -0.0153 -0.2137
31270W        W74183   7.711  11.168  29.750 -0.0839 -0.2238 -0.1759
31271W        W74184  13.046  32.677   8.095 -0.0516 -0.0301 -0.2213
31272W        W74185   4.848   9.249   7.413 -0.3324 -0.0635  0.3138
31273W        W74186  19.902   0.609  27.438  0.2629 -0.1175  0.1375
31274W        W74187  22.904  12.815  28.320  0.0509  0.1023 -0.2322
31275W        W74188  17.871  12.192   0.057 -0.2630  0.0452  0.2838
31276W        W74189  28.095   3.608   2.281  0.0768  0.4914  0.0649
31277W        W74190  32.054  16.201   8.777 -0.0343  0.2139 -0.0127
31278W        W74191  31.947  31.113   4.344 -0.0214 -0.0123 -0.0856
31279W        W74192  24.930  32.125   1.636 -0.1936 -0.0183 -0.3574
31280W        W74193  23.683  15.048   8.827  0.3201  0.0744 -0.0837
31281W        W74194  14.914  34.102   9.619 -0.1003 -0.0488  0.0006
31282W        W74195  23.679   3.758  28.681 -0.1872  0.4658  0.1996
31283W        W74196  26.221   1.451   7.039 -0.1192 -0.0296  0.1903
31284W        W74197  17.628  34.354  28.235  0.1055 -0.1449  0.0644
31285W        W74198  30.802  12.741   4.154  0.1401  0.1440 -0.2886
31286W        W74199  13.608  12.160   8.391 -0.1262  0.0327  0.0459
31287W        W74200  19.893  31.514   8.436 -0.0288 -0.3642 -0.0256
31288W        W74201  10.575   2.638   5.896 -0.1833  0.0523  0.0442
31289W        W74202  23.655   8.265   4.426 -0.0290  0.0524  0.2320
31290W        W74203  17.634   9.410   8.670 -0.2030  0.0329  0.0304
31291W        W74204   2.522  34.014  28.101 -0.0460  0.1646 -0.0478
31292W        W74205  20.247  15.122   8.305 -0.0076  0.0290  0.1661
31293W        W74206  31.198  30.910   5.836 -0.2318 -0.0100  0.0191
31294W        W74207  23.979   2.834   4.012  0.0464  0.1019 -0.0343
31295W        W74208  26.022  28.277   7.988  0.0311  0.1452 -0.2531
31296W        W74209   3.712  28.821   3.300  0.0780 -0.4010 -0.1303
31297W        W74210  23.151  11.263   0.973 -0.3341  0.1811 -0.0109
31298W        W74211  31.995   2.809   6.942  0.0182  0.2388  0.0625
31299W        W74212   5.817  11.045   3.942 -0.0716 -0.0211 -0.1135
31300W        W74213   6.711  11.740   2.531  0.0666  0.3153 -0.0206
31301W        W74214  23.210  12.613   8.641 -0.1776  0.0399 -0.2777
31302W        W74215  28.749  31.097   7.136  0.1121 -0.0060 -0.1890
31303W        W74216  33.064  13.908   4.519 -0.0371  0.1806 -0.2529
31304W        W74217  26.474   7.378   9.974  0.1027  0.2913 -0.1758
31305W        W74218  25.251   4.212   5.944  0.1772  0.2483  0.1252
31306W        W74219  32.289  10.593   7.827  0.0725 -0.1240  0.2633
31307W        W74220  31.351   6.344   4.529 -0.0401  0.0723  0.0909
31308W        W74221  19.445   7.184   6.600  0.2916  0.0357 -0.3430
31309W        W74222  32.455   7.097  25.313 -0.2281  0.3250 -0.0480
31310W        W74223  21.450   1.503   6.046 -0.2399  0.1853  0.0662
31311W        W74224  26.584   2.425   3.263  0.0113  0.0579 -0.2410
31312W        W74225  27.537   4.885   2.640 -0.3776 -0.1080 -0.1421
31313W        W74226  28.043   6.494   8.073 -0.2046 -0.1564  0.3590
31314W        W74227   4.017   7.620   7.415 -0.1004  0.2950 -0.1653
31315W        W74228  24.835   5.100   6.957 -0.1102  0.1915 -0.0566
31316W        W74229  20.789   3.547   2.770 -0.0119  0.0867 -0.1226
31317W        W74230  20.175   4.124   3.849  0.1246  0.1403  0.1136
31318W        W74231  22.028  32.091   8.157 -0.2639  0.1158 -0.0413
31319W        W74232  31.534   3.843   1.946  0.2136  0.1355 -0.0925
31320W        W74233   0.992   4.073  11.136  0.0128  0.0512  0.0672
31321W        W74234  12.806   9.095   8.862  0.0933 -0.0220 -0.0855
31322W        W74235  31.862  32.459  10.221 -0.2150  0.1418  0.0907
31323W        W74236  32.688   4.581   6.944 -0.1741  0.4299  0.3668
31324W        W74237   3.758  15.599   2.717  0.1013  0.1173 -0.0405
31325W        W74238  25.684  34.301   0.952  0.0063 -0.0269  0.1150
31326W        W74239  26.861  10.350   9.756  0.1015  0.0279 -0.2173
31327W        W74240   9.467   4.953   3.703  0.1785 -0.2760  0.0808
31328W        W74241  30.691   8.814   3.783 -0.2175 -0.0430 -0.2616
31329W        W74242   4.646   8.011   8.657 -0.0178 -0.1837  0.1664
31330W        W74243  25.864   6.894   5.094  0.1683  0.2456 -0.1554
31331W        W74244  23.811   4.716   1.281 -0.0048  0.0561 -0.2511
31332W        W74245  28.202  31.325   2.257  0.1731  0.2465 -0.1791
31333W        W74246  26.793   3.513  21.104  0.1268  0.1353  0.1526
31334W        W74247  22.709  10.723   0.139 -0.0944  0.2469 -0.1590
31335W        W74248   1.447  13.255   7.459 -0.1953  0.1003 -0.3157
31336W        W74249  28.381  11.912   5.418  0.1604  0.1749  0.0960
31337W        W74250  29.691  12.809   4.659 -0.0605 -0.4377  0.0514
31338W        W74251   0.929   2.662   2.718  0.1985 -0.0443  0.0502
31339W        W74252  21.165  27.093   8.088 -0.1422  0.3328  0.1364
31340W        W74253   0.200   2.393   3.158 -0.1857  0.3398 -0.1176
31341W        W74254  32.412   9.833  24.883 -0.0602 -0.0107 -0.2191
31342W        W74255  21.376  15.458  27.121 -0.0059  0.2623  0.0625
31343W        W74256  23.515   6.604   8.063  0.1150  0.0429 -0.3041
31344W        W74257  29.200  16.348   4.681 -0.0107  0.0848  0.0197
31345W        W74258  30.544  34.189  10.678 -0.1605 -0.2303 -0.2432
31346W        W74259  29.821  14.314  29.005 -0.1579  0.1121  0.0344
31347W        W74260   8.158   0.229  12.726  0.2621  0.1769 -0.3306
31348W        W74261  26.272   3.908   1.030 -0.0582  0.1791  0.1182
31349W        W74262  19.237   9.450   0.484  0.0899  0.3859  0.5220
31350W        W74263  27.988   6.633   4.960 -0.1758 -0.2501 -0.0956
31351W        W74264  27.998  28.867  24.570 -0.2001  0.3422 -0.0188
31352W        W74265  24.379   3.468   6.456  0.1065 -0.1702  0.2108
31353W        W74266  30.119   2.972   2.194  0.2356  0.0308  0.2567
31354W        W74267  34.407   6.072   4.312  0.0639  0.0788  0.0278
31355W        W74268  34.386   1.194   8.527 -0.0919  0.0558  0.2137
31356W        W74269  21.552   0.131   8.999  0.1802  0.0630  0.0549
31357W        W74270  16.975   1.251   3.204 -0.1119  0.2312 -0.0886
31358W        W74271  22.254   4.757  26.110  0.0636 -0.0958 -0.0288
31359W        W74272  26.662  14.201  10.253  0.0839 -0.1185 -0.1874
31360W        W74273  11.960   6.697   5.644  0.1484 -0.2361  0.0990
31361W        W74274  22.970   6.890   6.750 -0.2744 -0.0542 -0.0666
31362W        W74275   1.494   9.733   3.972 -0.1194 -0.4171  0.1951
31363W        W74276  28.936  18.419   1.601 -0.3094 -0.2513 -0.0929
31364W        W74277  25.482   7.506   7.041 -0.0669 -0.0146  0.0928
31365W        W74278  31.359   5.362   2.839  0.1794  0.2125 -0.0766
31366W        W74279  32.459  25.290   4.870  0.1640  0.2069 -0.0822
31367W        W74280  26.801   8.151   9.581  0.3359  0.2600 -0.0208
31368W        W74281  32.002   5.161   4.096 -0.3014 -0.0605  0.0686
31369W        W74282  25.425   6.717  26.262 -0.1471  0.1988 -0.0214
31370W        W74283  32.888   5.763   4.427  0.2599  0.0889 -0.0607
31371W        W74284  32.604   1.368  29.565  0.1420 -0.0425 -0.0012
31372W        W74285  27.889   1.119  29.199 -0.1888  0.0537 -0.2066
31373W        W74286  26.437   8.470   5.514  0.0969 -0.2094 -0.0197
31374W        W74287  33.490  15.149  23.027 -0.1773  0.0724  0.1179
31375W        W74288  31.283   5.401  28.543  0.0088  0.0739  0.2693
31376W        W74289  16.535   7.285   5.728  0.0654 -0.0844 -0.0454
31377W        W74290  20.991  10.751   6.209 -0.1248  0.0173 -0.0481
31378W        W74291  25.091  16.410   6.437  0.3162 -0.1550 -0.3005
31379W        W74292  24.343   9.293   8.424 -0.0935  0.2165  0.1875
31380W        W74293  27.634   7.075   9.217  0.1865 -0.0846 -0.1755
31381W        W74294   8.046   9.981   6.622 -0.4597 -0.2699 -0.0199
31382W        W74295  27.407   3.037   8.741 -0.0718  0.1018 -0.1918
31383W        W74296  31.466   3.017   4.195 -0.0963  0.1149 -0.3266
31384W        W74297   2.427   4.561   4.517 -0.0293  0.1587 -0.1625
31385W        W74298   3.735  16.195  29.665 -0.0712  0.3559  0.5003
31386W        W74299  34.384   2.803   3.407  0.0352 -0.0566  0.1499
31387W        W74300  25.004   6.379  26.797 -0.0759  0.1006  0.1562
31388W        W74301  29.888  17.319   8.375 -0.1407 -0.0472 -0.2498
31389W        W74302  29.010   9.323   6.200 -0.0101 -0.0606  0.3251
31390W        W74303  17.965   6.885   7.310 -0.4803  0.2187  0.0512
31391W        W74304  27.526  33.661   8.932 -0.4087  0.0758 -0.1406
31392W        W74305  19.729  13.773   3.179 -0.0021  0.3541 -0.2478
31393W        W74306   6.719   8.716  12.012 -0.2883 -0.1488  0.0226
31394W        W74307  19.435  33.585  27.021  0.3051  0.1799  0.2491
31395W        W74308  22.608  32.295   6.810  0.0781 -0.0059 -0.1734
31396W        W74309   7.055   7.469  12.638  0.0288 -0.1401  0.2010
31397W        W74310  17.726  34.316   1.960 -0.2821  0.2475 -0.0612
31398W        W74311  21.358   7.988   4.938 -0.2716 -0.0157 -0.0185
31399W        W74312  30.147  14.737  22.941  0.1344  0.0081 -0.2301
31400W        W74313  18.672   4.844  28.829  0.1461  0.0964 -0.1820
31401W        W74314  32.363  11.615   5.122  0.1459 -0.0983  0.2484
31402W        W74315  14.449   5.359  20.829  0.1750 -0.1687 -0.0134
31403W        W74316  22.963  30.469   4.087 -0.0520 -0.2857 -0.0434
31404W        W74317  29.434  10.646   6.346 -0.0497  0.1437  0.2482
31405W        W74318  28.358   0.585   1.691  0.0586  0.3483  0.0424
31406W        W74319  29.125   7.871   9.713 -0.3708  0.0002 -0.3794
31407W        W74320  29.222  33.817  10.435  0.1431 -0.2606  0.1821
31408W        W74321  29.984   3.425   6.322 -0.4799 -0.0822  0.0557
31409W        W74322  28.809  14.087   4.638 -0.1046 -0.2682  0.1219
31410W        W74323  30.401   6.045   0.418  0.0992  0.2094 -0.1257
31411W        W74324  11.482   0.979  28.633  0.0818 -0.0003  0.0635
31412W        W74325  26.280  34.402   7.486 -0.0259  0.0325  0.0178
31413W        W74326  21.631  11.021  27.149 -0.0884  0.2000 -0.2430
31414W        W74327  31.504   3.603  25.679 -0.1527  0.1275  0.1669
31415W        W74328   2.215  10.745   1.837 -0.3162 -0.3505 -0.1973
31416W        W74329  28.040   4.131   6.870 -0.1112  0.1436  0.2965
31417W        W74330  25.301   8.088   4.245 -0.0611  0.1418 -0.3677
31418W        W74331   7.915   6.360  25.983 -0.1978 -0.1547 -0.0469
31419W        W74332  16.592   4.333   1.300 -0.0675  0.1382  0.1363
31420W        W74333  28.554   6.740   6.068 -0.3751 -0.0329  0.0016
31421W        W74334  29.323   7.576  28.336 -0.0955  0.1247 -0.2023
31422W        W74335  14.004  19.977   6.898  0.1557  0.0469 -0.2444
31423W        W74336  33.071  13.874  27.303 -0.0600  0.0363  0.2962
31424W        W74337  34.398  12.725   5.966 -0.1851 -0.3009  0.3722
31425W        W74338  13.793   0.648   9.618  0.2095  0.1756 -0.1793
31426W        W74339  31.685  13.587  19.141 -0.1614  0.3366  0.0028
31427W        W74340  15.242   0.656  22.469  0.0918 -0.1126 -0.1720
31428W        W74341  20.214  27.229   5.243 -0.0790  0.0021  0.0654
31429W        W74342  24.890  27.208   2.141  0.1010 -0.2632  0.2144
31430W        W74343  20.067  12.171   3.859 -0.3609  0.0707 -0.0368
31431W        W74344   6.105  14.138   4.067 -0.1151  0.0866 -0.2975
31432W        W74345  31.897   9.636  10.685  0.2772  0.1084 -0.0533
31433W        W74346   6.845   5.093   1.187 -0.2264  0.0684  0.2130
31434W        W74347  29.437  11.433  28.775 -0.1955 -0.1421  0.2149
31435W        W74348  27.403  31.579  29.286 -0.2314 -0.1165  0.1951
31436W        W74349  30.188   1.413   6.460 -0.1855  0.0844  0.2663
31437W        W74350   5.790  19.322   7.803 -0.0385 -0.1124 -0.0157
31438W        W74351  32.735   5.411   8.506  0.4866  0.4204 -0.0000
31439W        W74352  18.703  33.658   9.679  0.0621  0.1285 -0.0069
31440W        W74353  30.215  16.390  28.970  0.4918  0.1820 -0.1094
31441W        W74354  34.149   6.200  11.249  0.1252 -0.0017  0.1331
31442W        W74355  24.816   1.856  26.720 -0.1699  0.1669 -0.1683
31443W        W74356   5.458   8.690  27.274  0.0619  0.0511  0.1590
31444W        W74357  25.971   7.870   1.670 -0.1694  0.0100  0.3417
31445W        W74358  25.171   6.120   8.592 -0.2584 -0.2249  0.0735
31446W        W74359  18.463  33.018   1.210 -0.0567 -0.0602 -0.1367
31447W        W74360  24.185   7.148   4.914  0.0858 -0.0867 -0.3149
31448W        W74361  19.398   5.145  26.642  0.0688 -0.1257 -0.3215
31449W        W74362   0.805   8.065  23.281 -0.2150 -0.0960  0.1106
31450W        W74363  17.929   4.399   2.384 -0.0686  0.3349  0.2980
31451W        W74364   0.635   2.652  12.185  0.3101  0.1072  0.0268
31452W        W74365   2.316  11.092   9.889 -0.0631  0.0339 -0.1574
31453W        W74366  31.803  12.171   9.749  0.0259  0.1552 -0.1666
31454W        W74367  26.917  30.285   4.567  0.3662  0.0957 -0.1282
31455W        W74368  26.003  10.706   4.777 -0.1677 -0.1380  0.5555
31456W        W74369  27.208   1.839  10.061 -0.0866 -0.0083 -0.1692
31457W        W74370   1.052   6.166   8.233  0.0096  0.0272 -0.0119
31458W        W74371   3.961   9.100   2.246  0.0982 -0.3291 -0.0748
31459W        W74372  32.606   4.879   5.851 -0.4383  0.3504 -0.2190
31460W        W74373  26.146  13.580  24.873 -0.0532 -0.2800 -0.4850
31461W        W74374  13.317  15.052   7.123  0.3427  0.3023  0.2768
31462W        W74375  32.967  10.894  19.675 -0.2415  0.1578 -0.0835
31463W        W74376  34.282  14.093   4.876  0.0642  0.1147 -0.0045
31464W        W74377  20.696   6.580  28.533 -0.2338  0.1409 -0.0325
31465W        W74378  23.630  30.406  29.044 -0.0857 -0.1742 -0.1497
31466W        W74379  24.098   4.745   3.214  0.0426  0.1947 -0.2367
31467W        W74380  26.923   4.147   9.609  0.0246 -0.2018 -0.1764
31468W        W74381  26.961  34.127   6.119 -0.1139  0.1977 -0.0944
31469W        W74382  25.262   8.712  10.227  0.1478  0.0385 -0.1247
31470W        W74383  22.530   1.469   2.364 -0.3891 -0.1810 -0.3921
31471W        W74384   2.198   9.419   8.306  0.2403  0.0101 -0.0357
31472W        W74385  28.898   4.022   1.907  0.1046  0.0980  0.0589
31473W        W74386  30.923  32.894  27.350 -0.0424 -0.0589  0.2642
31474W        W74387  16.990  27.956  22.436 -0.1877  0.0097 -0.0941
31475W        W74388  24.313   9.353   9.001 -0.0616  0.0597 -0.5746
31476W        W74389   5.403   2.092   3.251  0.0565  0.0930  0.2693
31477W        W74390  30.594   9.422  28.090  0.0410 -0.0835  0.3648
31478W        W74391  22.685  14.327   3.695  0.1115 -0.0996 -0.2847
31479W        W74392  29.500   3.103   6.304  0.3954  0.0394  0.1960
31480W        W74393  15.646   2.045   5.801  0.0563 -0.2696  0.0425
31481W        W74394   1.060  17.155   6.541  0.0444  0.2860 -0.2389
31482W        W74395  26.355  31.928   5.047 -0.0807 -0.1455  0.2045
31483W        W74396  19.570  13.337   6.954 -0.0544 -0.0844 -0.0491
31484W        W74397  29.704   3.705  10.852 -0.0071 -0.3082 -0.0019
31485W        W74398  10.806  24.032   5.372  0.1070 -0.0629 -0.0468
31486W        W74399  19.238   8.154   9.943  0.0496 -0.1524 -0.2478
31487W        W74400  13.437  30.445   9.938 -0.1248 -0.0066  0.0879
31488W        W74401  19.263  10.135   7.693  0.1357  0.0051 -0.0086
31489W        W74402  29.232  33.774  24.542 -0.0834  0.0790  0.1978
31490W        W74403  31.137   3.928  11.445 -0.1762  0.0459 -0.0630
31491W        W74404  32.656   8.193   9.867  0.2195  0.1264  0.0842
31492W        W74405  30.035   3.615  23.903  0.0222  0.1404  0.1712
31493W        W74406  15.829  14.195  29.537  0.0079  0.0566 -0.3979
31494W        W74407  34.236   3.822   5.591 -0.0923 -0.0842 -0.1594
31495W        W74408  27.572   4.402   0.621 -0.0078  0.0603  0.0318
31496W        W74409  31.792   5.030   0.868  0.2163  0.1036 -0.1803
31497W        W74410   5.768   4.358  12.194  0.2932 -0.0349 -0.4935
31498W        W74411  24.332   6.649   7.002  0.0522  0.2788 -0.0613
31499W        W74412  24.228  14.784   0.112  0.1683  0.2200 -0.0431
31500W        W74413  14.803   6.953   8.946  0.3231 -0.2235 -0.0160
31501W        W74414  25.667   1.991   8.864 -0.4903  0.2163  0.0087
31502W        W74415  22.779  12.186  20.626 -0.0566  0.0537  0.2897
31503W        W74416  32.491   8.558   4.323 -0.1149 -0.1227 -0.1979
31504W        W74417  25.808   0.678   3.213 -0.1176  0.1160  0.1137
31505W        W74418  18.481   8.495   8.889 -0.1908 -0.1942 -0.1055
31506W        W74419  27.160  12.827  26.944  0.0791 -0.1350 -0.0815
31507W        W74420  27.773   9.004   9.618 -0.0875  0.2893 -0.0120
31508W        W74421  27.407  11.238   6.858  0.0989  0.0821  0.1670
31509W        W74422  28.281   9.700   9.357 -0.0009  0.0478 -0.3670
31510W        W74423  29.361  33.186  10.951 -0.0339  0.0681  0.2784
31511W        W74424  16.295  12.768   4.226 -0.1106  0.0594 -0.1780
31512W        W74425   1.695  11.966   2.727  0.1363 -0.0138 -0.1596
31513W        W74426  22.776   9.499   1.369 -0.3153  0.1840  0.1061
31514W        W74427  26.840   2.920   0.885 -0.1703  0.0676 -0.0382
31515W        W74428   4.067   2.445  29.744  0.0729 -0.0479  0.0315
31516W        W74429  25.104   0.345   9.682  0.0062 -0.1059 -0.2910
31517W        W74430  29.395   3.270   5.845 -0.0448  0.3197 -0.3650
31518W        W74431  22.613   1.272   8.533 -0.0281  0.4005  0.1357
31519W        W74432  32.082   2.554   9.530 -0.0773  0.1452  0.1400
31520W        W74433   0.150   1.043   7.094 -0.0476 -0.2236  0.0119
31521W        W74434  32.378   3.015  24.571 -0.2292  0.0271 -0.1181
31522W        W74435  24.084  14.733   8.717 -0.2531 -0.1464 -0.1315
31523W        W74436  31.839  10.035   9.335  0.0513 -0.1281  0.2129
31524W        W74437  22.936   0.489   2.784  0.0710 -0.0413 -0.1147
31525W        W74438  27.674   5.285   0.799  0.2152 -0.1382 -0.0402
31526W        W74439  32.770  31.752   2.680 -0.1238 -0.4604 -0.0711
31527W        W74440  33.575   1.018   5.240 -0.2261 -0.1881 -0.0543
31528W        W74441  18.109  26.890   1.344  0.0310  0.3475  0.2062
31529W        W74442  24.430  30.275   9.323  0.2235  0.3686 -0.0521
31530W        W74443   3.313   4.156   4.261 -0.1156 -0.3676  0.0250
31531W        W74444   2.376   6.374   8.144 -0.2562  0.1518 -0.1117
31532W        W74445  28.763   6.775   2.677 -0.1908  0.2795 -0.2589
31533W        W74446  23.290  14.990   3.914  0.0088  0.0719  0.0922
31534W        W74447  25.596   7.506   7.498  0.0455  0.0522 -0.0509
31535W        W74448  25.114   6.756   4.815  0.4621  0.1512 -0.0012
31536W        W74449  27.014   3.271   6.070 -0.0479 -0.0343 -0.2553
31537W        W74450  16.899   0.732   8.881  0.0363 -0.2642  0.0954
31538W        W74451  20.683  27.448   5.078  0.0183  0.1149  0.1969
31539W        W74452  27.915  16.269  27.606 -0.1042 -0.1002  0.2269
31540W        W74453  29.454  31.108   4.697 -0.3344  0.1678  0.0645
31541W        W74454   6.672  31.854   2.507 -0.1720 -0.1225  0.0629
31542W        W74455   3.922  13.073  27.622 -0.3002  0.1546  0.0775
31543W        W74456   3.828  11.568   7.960 -0.3345 -0.0186 -0.0612
31544W        W74457  25.854  15.049   1.258  0.1426  0.0576  0.0990
31545W        W74458  27.912   9.388   4.468  0.0532  0.0068  0.0878
31546W        W74459  20.091  12.868   4.480 -0.2853 -0.0373 -0.1412
31547W        W74460  12.403  31.554   6.362  0.2018 -0.1130 -0.1226
31548W        W74461   1.291   5.041   7.873  0.0211 -0.0854 -0.2373
31549W        W74462  27.915  10.735   1.170 -0.1719  0.1789 -0.1070
31550W        W74463  18.867  32.675   1.509 -0.1563  0.3781 -0.0130
31551W        W74464  17.416   6.750   1.061 -0.1059 -0.0464 -0.6092
31552W        W74465  33.018  14.523   8.171 -0.1315 -0.0004 -0.2421
31553W        W74466  29.883   0.076  10.606  0.3109  0.0142  0.0830
31554W        W74467  15.573  22.081   2.863  0.2686 -0.2329 -0.0852
31555W        W74468  31.476  12.502  23.025  0.0745  0.0948 -0.2375
31556W        W74469  27.898  22.432   3.458 -0.0423  0.2811 -0.1224
31557W        W74470   3.761   4.298   5.325  0.0750 -0.0515 -0.2472
31558W        W74471  24.176  10.174   7.402 -0.0445 -0.0868  0.4433
31559W        W74472  31.732   0.375  10.514 -0.1345 -0.0038 -0.1054
31560W        W74473   6.804   9.796  10.698 -0.0362  0.0021 -0.2662
31561W        W74474  28.105  12.211  25.758  0.0771 -0.3898  0.1065
31562W        W74475  32.281  13.870   5.471  0.3912 -0.3558 -0.3086
31563W        W74476  22.614  32.611  29.378 -0.0020  0.0953  0.0971
31564W        W74477  16.741  30.228  26.943 -0.0536  0.0012 -0.0317
31565W        W74478  28.764   5.752   3.678 -0.1586  0.3360 -0.0241
31566W        W74479  26.100  11.155   5.754  0.0691 -0.1705 -0.2011
31567W        W74480  20.772  31.646  26.433  0.1159  0.0510  0.1550
31568W        W74481   6.522   4.860   7.123  0.0885 -0.0662  0.1849
31569W        W74482  32.876  34.330   4.699  0.0149 -0.0213  0.3905
31570W        W74483  20.914  31.699   0.972  0.1550 -0.2426  0.1328
31571W        W74484  20.303  10.996   8.099 -0.2639 -0.2048 -0.2120
31572W        W74485   0.784  15.880   7.006  0.1879 -0.1062 -0.4097
31573W        W74486  24.957   7.658   4.114 -0.0928  0.0331 -0.2252
31574W        W74487  31.313   5.427   5.858 -0.0532  0.0103  0.2258
31575W        W74488  27.504  11.927   6.711  0.1544 -0.0419 -0.3057
31576W        W74489  27.819   5.398   9.509 -0.2906 -0.0568  0.2613
31577W        W74490  30.600   5.801  27.869 -0.1071  0.0262  0.1361
31578W        W74491  31.346   7.674  21.022 -0.0667 -0.0932 -0.0053
31579W        W74492  20.289   7.635  29.028 -0.1289 -0.3444  0.0522
31580W        W74493  12.650  32.253   5.590 -0.1852 -0.0073 -0.1594
31581W        W74494  30.491  14.301   9.567 -0.1761  0.2517 -0.1121
31582W        W74495  26.887   6.450   3.249  0.0118  0.0542 -0.0062
31583W        W74496  21.117  29.781  26.292 -0.1883  0.2899  0.3519
31584W        W74497  26.462  16.119   1.264  0.1223 -0.0023 -0.2155
31585W        W74498   1.976   8.702   1.707 -0.1818  0.1879  0.2131
31586W        W74499  27.852  15.178   6.844 -0.0896 -0.1066  0.0713
31587W        W74500  32.844   4.444   5.782  0.1489 -0.3374 -0.0224
31588W        W74501  23.417   7.473  10.306 -0.2150 -0.1727 -0.0667
31589W        W74502  29.166  29.923   6.540 -0.3492 -0.2603 -0.2397
31590W        W74503  24.746   9.187   4.461  0.0063 -0.1625  0.1451
31591W        W74504  31.246   2.558   4.177  0.0794 -0.2268 -0.1663
31592W        W74505  31.546  18.697  26.196 -0.2773  0.0763  0.5761
31593W        W74506  29.024   6.144   5.768 -0.2296 -0.3287  0.0921
31594W        W74507  21.301  33.245   3.750  0.0124  0.0611 -0.0206
31595W        W74508  21.142   6.134   6.747  0.1240  0.2780  0.3157
31596W        W74509  27.791  10.087  28.575 -0.0551  0.0251  0.0216
31597W        W74510  23.307   3.637   9.218  0.1561 -0.1304 -0.1175
31598W        W74511   0.052   3.799   2.915 -0.2347 -0.1509 -0.0040
31599W        W74512  21.338  11.154   9.063  0.2856 -0.0526  0.2269
31600W        W74513  28.463  19.336   3.651 -0.0533 -0.0607 -0.0297
31601W        W74514  24.857  30.651   0.969  0.0495  0.0285  0.1074
31602W        W74515  27.524   0.803   7.983  0.0497 -0.2013  0.1110
31603W        W74516  23.810   0.349   7.719 -0.2933 -0.0461  0.0383
31604W        W74517   2.695  10.287   8.622  0.1800  0.2499  0.0549
31605W        W74518  28.525  31.683   9.172  0.0070  0.3822 -0.0304
31606W        W74519  27.726  14.020   6.063  0.0497  0.3161 -0.3817
31607W        W74520  18.748  33.966   5.291 -0.0492 -0.1704 -0.3078
31608W        W74521  27.426   8.601  26.482 -0.0314  0.1628 -0.1378
31609W        W74522  33.008   9.782   4.044 -0.1844 -0.1035  0.0498
31610W        W74523   0.572   2.046   7.898  0.2447 -0.0287 -0.1472
31611W        W74524   4.585   5.240   5.004  0.0434  0.1592 -0.0434
31612W        W74525  25.701   6.807  27.929  0.4486 -0.4132  0.0216
31613W        W74526  27.829   7.965   6.921  0.0287  0.1097 -0.1545
31614W        W74527  25.014  11.543   2.711 -0.2492  0.4072  0.1109
31615W        W74528  28.104  23.226   7.697  0.0767 -0.0599  0.1180
31616W        W74529  25.569  14.519   7.405  0.2595  0.0514  0.2072
31617W        W74530  29.306   3.501   7.452 -0.0154 -0.0612  0.0612
31618W        W74531  27.145   1.683  28.739 -0.3287 -0.2589 -0.3570
31619W        W74532  29.169   2.856   2.347  0.1409  0.1897  0.2388
31620W        W74533  31.514  14.373   8.375 -0.2423  0.0852  0.0690
31621W        W74534   5.303  28.681   8.511 -0.0922 -0.0358  0.0989
31622W        W74535  33.170   5.841  11.719 -0.1489  0.1719 -0.0820
31623W        W74536  19.305  34.325   9.505  0.2615 -0.1341 -0.1970
31624W        W74537  28.933  10.459   4.491  0.1221  0.0156  0.0365
31625W        W74538  32.132  33.988   8.974  0.0084 -0.0269  0.0129
31626W        W74539   1.433   7.075   9.857 -0.3118 -0.0352 -0.1270
31627W        W74540  20.513   2.208   4.124 -0.1355 -0.0687 -0.2378
31628W        W74541  29.864  13.605   8.238 -0.0029  0.3599  0.0488
31629W        W74542  30.986  11.187   9.752 -0.0783 -0.4000  0.0100
31630W        W74543  23.297  33.328  10.182 -0.2913  0.0566  0.1761
31631W        W74544  32.842  12.497   3.448 -0.0598  0.0586  0.0610
31632W        W74545  31.945   8.553   9.298  0.0012  0.1557  0.2041
31633W        W74546   0.154  33.935  10.145  0.0157 -0.2211 -0.2996
31634W        W74547  21.353  32.061   7.354 -0.0431 -0.1122 -0.1340
31635W        W74548  30.203  25.863   7.975 -0.0668 -0.4158 -0.0552
31636W        W74549  29.626   8.624   7.807  0.0064  0.0780 -0.0722
31637W        W74550  33.075   0.305  10.355 -0.0526 -0.2142  0.1512
31638W        W74551  29.823  12.541   7.220  0.0221  0.0808  0.1855
31639W        W74552  21.566   0.464   8.599 -0.2443  0.0295  0.2951
31640W        W74553  29.109  27.322   4.764 -0.0799  0.0366 -0.0973
31641W        W74554  26.431   5.821   6.631  0.0727 -0.0611 -0.2135
31642W        W74555   1.356   2.091   9.213 -0.2003 -0.2613  0.1019
31643W        W74556  19.622   4.476   6.183  0.0341 -0.2419 -0.3126
31644W        W74557  20.716   6.977   9.396  0.2997  0.0149 -0.1407
31645W        W74558  26.238  11.916   3.676 -0.0094  0.4606 -0.0682
31646W        W74559  28.955  10.445   5.534  0.0234 -0.3655  0.1322
31647W        W74560  24.662  32.507   9.514  0.3733  0.1339  0.2713
31648W        W74561  31.239   8.519   2.610  0.2034 -0.0452 -0.0702
31649W        W74562  26.472   5.832   9.447  0.2114  0.4746 -0.0313
31650W        W74563  28.337  15.156   7.744  0.0961  0.1203  0.0076
31651W        W74564   2.846  13.495   7.874  0.0392  0.2161  0.1161
31652W        W74565  29.272   0.393   8.889  0.1863  0.0060 -0.0508
31653W        W74566  21.211  25.990   7.435  0.0374 -0.1520  0.0311
31654W        W74567  32.470  28.392   1.237 -0.2473 -0.3212 -0.0779
31655W        W74568  29.852  13.438   6.880  0.0887  0.1314  0.0224
31656W        W74569  24.372  17.342   8.181 -0.4261  0.4689  0.3197
31657W        W74570   1.008   8.125   5.952 -0.1718  0.2176 -0.2134
31658W        W74571  16.551  31.733   6.298  0.0454  0.0307  0.0563
31659W        W74572  23.895   0.231  25.328  0.2022  0.0024  0.3623
31660W        W74573  27.797   9.391   8.788  0.0404 -0.1504  0.1910
31661W        W74574  22.940  15.263   0.036 -0.0374 -0.1755  0.0425
31662W        W74575  23.017  34.256   8.717 -0.0102  0.2830  0.0066
31663W        W74576  27.235   5.933   8.211 -0.2802  0.0606  0.2629
31664W        W74577  28.864  31.478  10.553 -0.0412  0.1913 -0.2906
31665W        W74578  31.164   6.614   9.013  0.0308 -0.2245 -0.3195
31666W        W74579  34.392   5.000   5.943 -0.0108 -0.0638 -0.0313
31667W        W74580  19.247  31.677   7.826  0.1965 -0.0946 -0.2533
31668W        W74581  20.570  32.879   7.578 -0.1458  0.2345  0.3927
31669W        W74582  23.117  12.593   6.726 -0.1086 -0.1147  0.3553
31670W        W74583  25.203   7.903   6.282  0.0273  0.1857  0.1407
31671W        W74584  34.402  21.797  29.503 -0.1389 -0.1135  0.2790
31672W        W74585   1.553   3.341  11.472 -0.0346  0.1162  0.1218
31673W        W74586  28.047   6.542  10.428  0.1022 -0.0740  0.3761
31674W        W74587  23.976   4.206   8.137 -0.0962  0.0838 -0.3454
31675W        W74588   7.418   4.106   6.996 -0.3383  0.0186  0.1957
31676W        W74589  31.866   6.515   4.443  0.0613 -0.1459  0.0536
31677W        W74590  30.399  10.747  10.487 -0.1883 -0.1022  0.2951
31678W        W74591  24.971   4.816   6.601  0.2838  0.1061  0.0882
31679W        W74592  25.345  34.494   7.004  0.1239 -0.1004  0.4065
31680W        W74593  27.358   4.942   6.665 -0.5103  0.1287 -0.0333
31681W        W74594  27.869  13.347  21.339 -0.1332  0.1504 -0.1179
31682W        W74595   4.310  34.027   9.134 -0.1617  0.2830 -0.1990
31683W        W74596  24.875   8.477   8.995  0.1349 -0.1194 -0.1808
31684W        W74597  33.564   5.789   1.443 -0.0929 -0.0970 -0.0715
31685W        W74598  29.634  14.336   8.036  0.1080 -0.1085 -0.1554
31686W        W74599  20.555   8.863   7.204 -0.1341  0.0512 -0.1307
31687W        W74600  17.025   4.731   3.752  0.0250  0.1137 -0.1175
31688W        W74601  23.140   5.469   0.330  0.1166 -0.0245  0.0681
31689W        W74602  26.839  11.226   8.256 -0.3543  0.0186  0.1104
31690W        W74603  32.144  13.038   3.985  0.0463 -0.0408 -0.0832
31691W        W74604   1.382   4.603   7.392 -0.1369 -0.2890  0.1997
31692W        W74605  22.146  30.241  28.013 -0.1986 -0.0286  0.2358
31693W        W74606  24.898  11.171   6.418 -0.2935 -0.0510 -0.1678
31694W        W74607  11.186  10.605   6.363  0.1838  0.2462 -0.0198
31695W        W74608  26.696   2.994   7.556 -0.1762 -0.2775  0.1748
31696W        W74609  25.278   9.172   2.259  0.0243  0.2937 -0.1476
31697W        W74610  25.710   7.920  10.455  0.0401  0.1319  0.1225
31698W        W74611   2.200  11.634   8.959  0.3737  0.1729 -0.5087
31699W        W74612  34.192   6.716  11.042 -0.0755 -0.3250 -0.0247
31700W        W74613  19.738   1.326   5.303 -0.1377 -0.1021 -0.1209
31701W        W74614  24.673   7.958   3.305 -0.1026  0.0290 -0.0324
31702W        W74615  20.170   5.281   9.273  0.1243  0.0077  0.2795
31703W        W74616  29.368   8.469   5.854 -0.0035  0.1384 -0.1792
31704W        W74617  28.671  31.942   6.875  0.2625 -0.0065 -0.1288
31705W        W74618   2.164   9.248   6.989  0.0694 -0.0774  0.3869
31706W        W74619   4.293  11.832  11.024  0.2487 -0.2978  0.1163
31707W        W74620  16.502  32.288  28.142  0.1191  0.3999 -0.2062
31708W        W74621  32.799   9.545   2.501 -0.0715  0.0232 -0.1098
31709W        W74622  13.233  13.465   2.232  0.0778  0.0905 -0.1915
31710W        W74623  33.427  34.486   8.293 -0.1080 -0.0342 -0.0985
31711W        W74624  26.803  31.125   5.439  0.0774  0.1640 -0.3015
31712W        W74625  31.587   1.336   7.994  0.2268 -0.0935 -0.0098
31713W        W74626  21.990   0.653  10.497  0.4536  0.4296  0.3754
31714W        W74627  31.221  33.344   0.003 -0.0919 -0.2554  0.3118
31715W        W74628   3.669   5.794   3.774  0.0634  0.0412  0.3499
31716W        W74629   3.187   2.327  28.458 -0.0158  0.0440 -0.2662
31717W        W74630  14.338  27.320   4.336  0.0953  0.2551 -0.3022
31718W        W74631  26.678   6.371  29.390 -0.0962  0.2405  0.1640
31719W        W74632  30.246  15.397   4.276 -0.0767 -0.2590  0.0484
31720W        W74633  32.389   2.760  28.774  0.2847  0.0160 -0.3569
31721W        W74634   5.954  30.199   7.700 -0.1701  0.1810  0.1619
31722W        W74635  23.738   1.474   8.249 -0.2673 -0.0794  0.3973
31723W        W74636  26.402   6.663  24.226 -0.1759 -0.0424  0.0544
31724W        W74637   8.585   6.457   0.529 -0.0652 -0.1672  0.2531
31725W        W74638  33.613   8.074   9.445  0.0587  0.1261 -0.1386
31726W        W74639   2.483  34.214   7.234 -0.0447  0.1722  0.0895
31727W        W74640  25.796   3.746   5.178  0.1975  0.0370 -0.1251
31728W        W74641  22.145   3.535   9.926 -0.0641 -0.2599 -0.0260
31729W        W74642   5.319  12.929   8.020 -0.0883  0.0071 -0.1580
31730W        W74643  13.986   6.424   4.425  0.3609  0.0899 -0.1040
31731W        W74644   6.407  28.170   2.899 -0.1610  0.0707 -0.1338
31732W        W74645  25.840  25.022   7.877  0.0076 -0.1152  0.0073
31733W        W74646  31.909   2.097   9.503 -0.3122 -0.0162  0.3972
31734W        W74647  24.745  17.482   5.751  0.2028 -0.0089  0.0390
31735W        W74648   6.401   8.858  10.623  0.2145 -0.1005  0.0345
31736W        W74649  33.209   8.008   6.897  0.0751 -0.2685  0.1431
31737W        W74650   2.934  30.564   7.494 -0.1505 -0.0699  0.0602
31738W        W74651  27.403  15.629   6.882  0.0155  0.1424 -0.2818
31739W        W74652  33.177  11.252  10.288  0.4092  0.0485 -0.0370
31740W        W74653  33.087   8.493   7.858 -0.3344  0.1908 -0.0361
31741W        W74654  28.175  10.832   7.021 -0.1284  0.3225 -0.0215
31742W        W74655  11.836   7.553   9.807 -0.0327  0.0503  0.0616
31743W        W74656  32.823   8.925   5.190 -0.0870 -0.0116  0.1837
31744W        W74657  28.247  15.923   6.153 -0.4391  0.3030 -0.2184
31745W        W74658   4.463   7.426   5.557 -0.0637 -0.0613 -0.0767
31746W        W74659   6.930  28.595  11.506  0.0197 -0.0085 -0.1040
31747W        W74660  21.232  18.039   3.703 -0.0076  0.1784 -0.3511
31748W        W74661  22.861  10.257   1.840 -0.1534 -0.2270 -0.1607
31749W        W74662  29.446  27.865   5.158  0.0096 -0.3736  0.2190
31750W        W74663  29.679   6.423   7.434 -0.4400  0.2743 -0.3563
31751W        W74664  27.294  22.757   7.520 -0.0276  0.1141  0.0684
31752W        W74665  11.608  16.886   2.931  0.1310 -0.2334 -0.1283
31753W        W74666  19.286   4.459  10.426 -0.1424  0.1184  0.1765
31754W        W74667   1.582   9.657   0.264  0.2882 -0.1395  0.2439
31755W        W74668  15.956   0.429   7.633  0.0726  0.1009 -0.1826
31756W        W74669  24.322   3.574   1.729 -0.1159  0.1004  0.0699
31757W        W74670  21.813  33.947   8.400  0.1226  0.4170 -0.2086
31758W        W74671  29.616   0.475   6.204 -0.3476  0.3172 -0.3444
31759W        W74672  30.224   6.467   6.219  0.0943 -0.3411  0.0063
31760W        W74673  29.391   9.188   8.792 -0.3333 -0.0636  0.0424
31761W        W74674   1.043   8.055   3.876  0.0730 -0.1065 -0.1396
31762W        W74675  22.138   0.408  24.946  0.5037  0.2710 -0.2077
31763W        W74676   1.085   1.058   2.586 -0.1355  0.1214  0.1287
31764W        W74677  32.517   6.608  11.373 -0.0843 -0.2212 -0.1113
31765W        W74678  25.300   7.289   6.039  0.0524 -0.2207 -0.0790
31766W        W74679  18.832   1.640   8.262  0.1083 -0.0336  0.0138
31767W        W74680  27.507  13.029   0.756 -0.0809  0.2562  0.0514
31768W        W74681   6.004   5.445  12.322 -0.1130  0.2517  0.0449
31769W        W74682  19.204   4.574   7.753 -0.1730 -0.0095  0.0245
31770W        W74683  22.450   1.797   7.455 -0.0642 -0.1173  0.0299
31771W        W74684   1.730   3.472   4.043  0.1465 -0.0733 -0.1254
31772W        W74685  19.699  29.606  24.647 -0.2074 -0.1451  0.1415
31773W        W74686  23.312   1.714   2.235  0.0778 -0.0995  0.0394
31774W        W74687  27.846   0.012   1.999  0.0087  0.3150 -0.0227
31775W        W74688  29.918  13.511   5.856 -0.0228 -0.0334  0.1309
31776W        W74689  31.082  14.148   1.094  0.0386  0.1316 -0.1208
31777W        W74690  24.855   2.078   8.696 -0.0304 -0.1447  0.0097
31778W        W74691  30.134  10.365   5.168 -0.0967  0.3425 -0.0694
31779W        W74692   1.795  32.232   7.966  0.1120  0.0073 -0.1359
31780W        W74693  18.286  12.127   5.798 -0.0200  0.0611 -0.3210
31781W        W74694  27.884   0.263   7.275 -0.0129  0.2638 -0.0104
31782W        W74695  32.588  24.087   5.310 -0.1094 -0.1387 -0.1802
31783W        W74696  20.462  24.353   5.528 -0.1484 -0.3522  0.0196
31784W        W74697  26.795   5.758   8.087  0.1494 -0.0421 -0.0954
31785W        W74698  19.257   3.274   9.751  0.1854  0.0265  0.0338
31786W        W74699  19.904   7.601   7.814 -0.2018 -0.2668 -0.0929
31787W        W74700  25.700   7.615   2.602 -0.1804  0.0029  0.0799
31788W        W74701   3.203  22.450   5.496 -0.0404  0.1885 -0.1004
31789W        W74702   7.216   7.769  10.542  0.0361  0.0835 -0.1577
31790W        W74703  30.820  33.159   9.543  0.1851 -0.4120  0.0061
31791W        W74704  34.316  13.546   4.815 -0.0365 -0.0271 -0.0265
31792W        W74705  16.422   1.707  27.871 -0.2617  0.1429  0.1027
31793W        W74706  24.918  12.278   7.328  0.1148  0.2304 -0.0208
31794W        W74707  20.632  18.749  21.406 -0.1024 -0.0984  0.0319
31795W        W74708   9.481  15.447   3.933  0.2162  0.0888  0.3106
31796W        W74709  29.959  33.827   9.323 -0.0642  0.0448  0.1098
31797W        W74710  29.881   1.519   9.882  0.0995 -0.0474  0.0322
31798W        W74711   3.230   7.958  11.458  0.1321 -0.1896  0.0107
31799W        W74712  26.800   7.138   4.951 -0.0623 -0.1947 -0.0547
31800W        W74713  27.707   7.809   4.977  0.1936 -0.1486 -0.0565
31801W        W74714   2.805  16.114   7.270 -0.0737 -0.2897  0.2335
31802W        W74715  29.083   3.714   8.864  0.2520  0.1932 -0.0001
31803W        W74716  29.109  11.133   7.670 -0.3388  0.0338  0.3362
31804W        W74717  29.678  11.662  28.349  0.5546  0.1443 -0.0934
31805W        W74718   5.319  21.498   1.992  0.1182 -0.3481  0.2575
31806W        W74719  33.983   7.940   3.246 -0.1624 -0.0034 -0.1916
31807W        W74720   5.487  13.746   0.714 -0.1733  0.0641  0.0509
31808W        W74721  19.845  17.675   7.007 -0.0475  0.4605  0.0287
31809W        W74722  12.077   6.654   8.804  0.1318 -0.0617 -0.2921
31810W        W74723  24.842  31.863   9.367  0.1223  0.1630 -0.1554
31811W        W74724  31.414  20.058   2.100  0.1723  0.1214  0.1167
31812W        W74725   1.748  10.135   7.293 -0.1332 -0.1798  0.2949
31813W        W74726   4.289  11.521   5.336  0.0101 -0.0475  0.0939
31814W        W74727  19.331  11.754   6.288  0.2928 -0.2056 -0.1839
31815W        W74728  31.375  33.290   8.171  0.1702  0.1542  0.1195
31816W        W74729  19.973   3.166   2.742  0.0771  0.0351 -0.1801
31817W        W74730  18.669  32.227   8.047 -0.1428  0.0820  0.2940
31818W        W74731  24.458   3.789  28.951  0.2085  0.2955  0.3335
31819W        W74732  33.805   0.997   5.791  0.1085  0.2517 -0.0063
31820W        W74733   9.628  30.017  10.435 -0.2233  0.3550  0.1916
31821W        W74734  23.356  15.012   8.420 -0.2272 -0.0508 -0.3118
31822W        W74735  22.555   4.497   7.402 -0.2254 -0.0718 -0.1825
31823W        W74736  30.508   5.243   6.730  0.3181 -0.0229  0.0997
31824W        W74737   2.704  15.945   6.736  0.0854 -0.1751 -0.0194
31825W        W74738  29.153   1.110   6.610 -0.1202  0.0066 -0.1531
31826W        W74739  23.537  18.592   6.124 -0.2294 -0.1397 -0.1095
31827W        W74740  22.374   5.520   9.637 -0.1290 -0.0431  0.0444
31828W        W74741  30.236  11.752   6.794  0.0309  0.1059 -0.0774
31829W        W74742  21.054   5.930   0.195 -0.0189  0.1898  0.0721
31830W        W74743  33.929   6.663   8.847  0.2176  0.0962  0.3959
31831W        W74744   0.696   5.515  12.008 -0.1703 -0.1487 -0.2653
31832W        W74745  25.123   6.433   2.795  0.1230 -0.0942  0.1235
31833W        W74746  28.258   5.170   9.729  0.2659 -0.1005  0.1052
31834W        W74747  26.522  12.121  24.553 -0.0873  0.0563  0.0959
31835W        W74748   7.144   2.828   5.505  0.0169  0.0948 -0.2313
31836W        W74749   8.359   4.097  10.949  0.0374 -0.2240  0.0623
31837W        W74750  21.747  31.055  29.113  0.1087 -0.1228  0.1932
31838W        W74751  27.875   7.366   8.412  0.0171  0.1777 -0.0293
31839W        W74752  20.316  18.297   0.560 -0.0325 -0.0604 -0.1563
31840W        W74753  32.292   4.392  12.231  0.2654  0.1014 -0.0097
31841W        W74754  26.838   4.758   5.256 -0.1075  0.0444  0.4372
31842W        W74755   3.232   3.104  10.633 -0.0194 -0.1383 -0.0895
31843W        W74756  25.520  13.566   7.114 -0.1681  0.3215  0.2054
31844W        W74757  31.046  10.481   4.989  0.1531 -0.1075 -0.3285
31845W        W74758  29.658   1.431   9.134  0.5206  0.2670 -0.2317
31846W        W74759  26.317  11.648   7.446  0.1168 -0.2460  0.3139
31847W        W74760  31.499   1.032   9.274  0.0790 -0.2763  0.7685
31848W        W74761  33.231   5.692   6.269 -0.1016  0.0299  0.0399
31849W        W74762   0.728  10.050  11.201 -0.1653  0.0181  0.1100
31850W        W74763  34.286   0.510  28.591  0.0309  0.0606 -0.1454
31851W        W74764  28.763   8.472   8.550 -0.0614  0.0053  0.0319
31852W        W74765  33.348  33.604   8.666  0.0456  0.2680  0.0514
31853W        W74766  27.215   0.173   8.587  0.1658 -0.0625 -0.0268
31854W        W74767  27.645   2.182   4.561  0.2382  0.0821 -0.0503
31855W        W74768  32.952   1.783   5.089 -0.1845  0.0790 -0.0161
31856W        W74769  22.660   3.492   0.750 -0.2223 -0.0599 -0.0958
31857W        W74770  32.537   3.068  11.422 -0.0605  0.1094  0.1630
31858W        W74771  22.176  33.404   6.007 -0.3038 -0.0836  0.1448
31859W        W74772  29.278  13.673   5.481 -0.1958  0.0749 -0.2892
31860W        W74773   6.255   4.032  10.564  0.1773  0.1505  0.1548
31861W        W74774  33.617   6.306   1.514  0.1038 -0.1104  0.2319
31862W        W74775  13.029   2.952   5.281  0.0507 -0.1129  0.0259
31863W        W74776   1.739   2.287   5.238  0.0569 -0.2937  0.1471
31864W        W74777  25.324  10.395  28.772 -0.0236  0.0918  0.0085
31865W        W74778  28.267  32.308   9.640 -0.0068  0.0044 -0.1104
31866W        W74779   4.298   2.265  10.365 -0.0792 -0.1439  0.1753
31867W        W74780   3.182  34.270   9.646 -0.1275  0.3011 -0.0141
31868W        W74781  31.772  17.447   5.787 -0.1381 -0.1538 -0.1440
31869W        W74782  32.295  33.338  11.215 -0.0624  0.2973  0.0097
31870W        W74783  22.164   1.377   5.053  0.2169  0.3625 -0.1028
31871W        W74784  33.885   9.311  10.431  0.3185 -0.0515  0.0231
31872W        W74785  33.298  11.059   0.876 -0.2021 -0.1325  0.2266
31873W        W74786  28.691  33.695   9.566  0.0784  0.3557 -0.0241
31874W        W74787  25.998   6.916   0.660  0.3104  0.2832 -0.1605
31875W        W74788  28.221   7.319   3.801 -0.0636 -0.2114  0.2072
31876W        W74789  23.625  33.171   6.923  0.2334 -0.3925 -0.1979
31877W        W74790   6.514   7.607   5.245 -0.1644 -0.0265 -0.1064
31878W        W74791   1.577  21.990   5.092 -0.1898 -0.1610  0.1630
31879W        W74792  14.530  28.373   6.200  0.0369 -0.1904  0.1965
31880W        W74793   5.568  11.151   1.477  0.2914  0.1909  0.4235
31881W        W74794   2.503   5.043   5.852 -0.4233  0.2072 -0.2270
31882W        W74795   2.562   5.402   2.263 -0.0719  0.2297  0.0887
31883W        W74796  21.662  13.531   7.306 -0.2526 -0.0725 -0.0673
31884W        W74797  22.600  30.421   8.113 -0.0226 -0.1400  0.0289
31885W        W74798  32.580   0.562   8.514  0.0163  0.1411 -0.1899
31886W        W74799   2.818  11.508   0.039 -0.0740 -0.0359  0.0671
31887W        W74800   2.357  14.699   5.996 -0.3166 -0.0826  0.0207
31888W        W74801  23.981   6.681   9.403  0.1613 -0.0060  0.1650
31889W        W74802  30.900  34.393  10.310 -0.1615 -0.1592 -0.2126
31890W        W74803  22.877   5.148   9.342  0.2140  0.1836  0.2581
31891W        W74804  29.273  10.164   3.296 -0.0899  0.2363 -0.1996
31892W        W74805  30.613   4.852  10.514 -0.0386 -0.3376 -0.3750
31893W        W74806  34.177  30.155   8.718  0.0792  0.1680 -0.2173
31894W        W74807  19.746   7.033   6.935  0.0473 -0.0794 -0.0859
31895W        W74808  21.633  12.340   6.584  0.0121  0.1583 -0.2748
31896W        W74809  16.704   2.562   5.429  0.0082 -0.0313  0.0139
31897W        W74810   9.550   0.317   9.143  0.2575  0.0064 -0.1410
31898W        W74811  26.588   3.282   8.140  0.0833 -0.1315 -0.3045
31899W        W74812  29.038  13.615  10.344 -0.3003  0.1946 -0.2374
31900W        W74813  24.824   1.995   5.188 -0.2353 -0.1151 -0.0125
31901W        W74814  28.911   1.837   8.859 -0.1076  0.3750  0.0877
31902W        W74815  23.799   2.332   8.843  0.1337  0.1638 -0.2085
31903W        W74816  28.535  11.070   9.628 -0.1898 -0.4244 -0.1534
31904W        W74817  32.249   7.334   8.601 -0.1326  0.3218  0.2435
31905W        W74818  15.829  33.390   9.638  0.0544  0.2420 -0.1133
31906W        W74819  23.625   7.277   8.435 -0.2437 -0.0880 -0.3459
31907W        W74820  28.360  29.699   3.758 -0.1431 -0.1859 -0.0079
31908W        W74821  33.572   6.588  12.213  0.2626  0.1725 -0.2838
31909W        W74822  17.401  14.583   1.870  0.2367 -0.2887  0.3161
31910W        W74823  19.752   4.685   7.827  0.0158 -0.2380  0.1860
31911W        W74824   5.406   4.811   9.101  0.0310 -0.4493  0.1501
31912W        W74825  27.014   7.954  10.042  0.2914  0.1292 -0.1037
31913W        W74826  25.137   7.652   6.754 -0.0108  0.2169 -0.1190
31914W        W74827  23.737   7.281  22.071  0.2902 -0.2915  0.0510
31915W        W74828  28.393   1.239   2.372 -0.0209  0.0590  0.0848
31916W        W74829  24.065  16.771   0.351 -0.1608  0.0091 -0.2364
31917W        W74830  22.122   7.586  27.857 -0.0632 -0.0184 -0.3084
31918W        W74831  24.816   8.237   7.426  0.1881  0.0250  0.0628
31919W        W74832  29.828   8.378  28.898  0.2225  0.0071  0.0207
31920W        W74833  22.490  12.798   1.036 -0.1061  0.1449  0.0522
31921W        W74834  26.272  33.947   4.247 -0.0942  0.3336  0.2318
31922W        W74835  27.381  14.947   1.122  0.2153 -0.0071  0.3689
31923W        W74836   1.595   5.089   0.478  0.2951 -0.2939  0.1269
31924W        W74837   6.227   6.558  12.170  0.1518  0.0657  0.1706
31925W        W74838  20.917   8.035   9.498  0.1446  0.0530 -0.0869
31926W        W74839   1.832   4.391   7.499 -0.0849  0.0822 -0.0788
31927W        W74840   0.574   6.303   6.548  0.1463  0.1240  0.1882
31928W        W74841   6.022   5.578   9.531 -0.0701 -0.0490  0.0908
31929W        W74842  15.290   1.969   5.236  0.3792  0.1038 -0.2541
31930W        W74843  11.140  29.108  10.930 -0.3829 -0.0285 -0.1739
31931W        W74844  30.319   6.691   9.605  0.1962  0.1076 -0.0735
31932W        W74845  30.460   6.730   7.980 -0.1432 -0.2956 -0.0069
31933W        W74846  30.552  24.996   4.130  0.3360  0.1007 -0.0308
31934W        W74847  31.628   9.878   7.619 -0.1980  0.2626 -0.0659
31935W        W74848  16.653  29.276   6.756  0.1943 -0.0568  0.1049
31936W        W74849   2.092  11.435   3.939 -0.1322  0.1070 -0.2197
31937W        W74850  32.956   7.576  27.289  0.2358 -0.0343  0.2837
31938W        W74851  30.460  18.015   7.942 -0.0400  0.1905 -0.0351
31939W        W74852  28.824   6.932   4.982  0.1874  0.1313 -0.1529
31940W        W74853  17.718  10.735   8.550 -0.2920  0.0304  0.2720
31941W        W74854  15.672   2.152   1.918 -0.0316 -0.0191 -0.1278
31942W        W74855  29.530  10.024   0.628  0.0535 -0.0887 -0.0905
31943W        W74856   8.285  13.757   3.787 -0.1923 -0.1086 -0.0705
31944W        W74857  17.469   8.028  25.657 -0.0167 -0.2585 -0.2652
31945W        W74858  27.457  12.840  19.678 -0.1960 -0.0739  0.3988
31946W        W74859  16.996   3.170   7.025  0.0952 -0.1518 -0.2633
31947W        W74860  23.407  16.621  21.773 -0.0459  0.1596  0.2178
31948W        W74861  16.081  32.039  10.237 -0.2387  0.1703 -0.1104
31949W        W74862  24.503  19.496   1.951 -0.1056  0.1689  0.0734
31950W        W74863  26.380  33.366   6.466  0.2254 -0.4347  0.0748
31951W        W74864  32.067   8.999   5.306  0.2844  0.0871  0.1616
31952W        W74865   3.514  15.601  26.585 -0.1971  0.0626 -0.0107
31953W        W74866  28.422   6.364  29.675  0.3836  0.0015 -0.1404
31954W        W74867  15.149  30.767  10.005 -0.0940 -0.0093 -0.0421
31955W        W74868   0.267   4.575  29.243  0.2729  0.2359 -0.1775
31956W        W74869  25.712   3.298   2.380  0.0841  0.1849  0.0092
31957W        W74870  17.738   0.540  28.495  0.0004 -0.0903 -0.1129
31958W        W74871  34.356   3.608  29.660  0.0927 -0.0260  0.5260
31959W        W74872  25.580  11.136   0.830  0.0163 -0.1210 -0.0859
31960W        W74873  34.405   4.318  10.538 -0.1846  0.3080  0.1031
31961W        W74874  29.594   2.222   1.685 -0.2688  0.0184 -0.3216
31962W        W74875  21.608   2.017  19.119 -0.0715  0.1567  0.3898
31963W        W74876  21.282   0.825  26.453 -0.1063  0.0554 -0.2355
31964W        W74877   0.272  17.540   4.517  0.0223 -0.3683  0.1975
31965W        W74878  19.828  12.552  23.415  0.0683 -0.0023  0.0660
31966W        W74879  24.418   9.278  25.406 -0.0879 -0.0974  0.1775
31967W        W74880  19.553   3.922  22.645  0.3686 -0.0892 -0.2098
31968W        W74881  26.521  15.385  24.374  0.1343  0.0195 -0.0689
31969W        W74882  19.302  12.196   7.657 -0.2199  0.4631  0.1097
31970W        W74883  24.276  21.492   8.409  0.4798 -0.3237 -0.1289
31971W        W74884  25.407  14.661  18.972  0.1913 -0.0567  0.0480
31972W        W74885  24.759   8.628   3.643 -0.0703 -0.1010 -0.2456
31973W        W74886  26.658  20.342   6.973 -0.0083  0.0030 -0.3567
31974W        W74887  28.413  11.303   5.816 -0.0533  0.1048 -0.0431
31975W        W74888  21.924   3.807   6.986 -0.0247 -0.0607 -0.4370
31976W        W74889  34.153  12.983  27.953  0.1949  0.0351 -0.5364
31977W        W74890  21.077  11.228  29.605  0.1586  0.1529  0.4248
31978W        W74891  27.390  12.226   6.144  0.0552  0.0978  0.0022
31979W        W74892  23.668  18.442   8.648  0.4066 -0.1766 -0.0964
31980W        W74893   0.949   0.228  11.331  0.0747  0.0360 -0.1095
31981W        W74894  20.710  12.040   0.743 -0.0891  0.1725  0.0831
31982W        W74895  17.393   3.121   1.709  0.0831 -0.0768 -0.0781
31983W        W74896  26.091   9.960  19.408  0.1542 -0.2525 -0.2131
31984W        W74897  26.778  15.460   0.733  0.0917 -0.2645  0.3713
31985W        W74898  27.229   5.172  28.460 -0.1736  0.1964  0.1171
31986W        W74899  30.676  16.601  28.929  0.0158  0.3869  0.2187
31987W        W74900  18.390  17.749   2.456  0.0703 -0.1622 -0.1785
31988W        W74901  28.894  15.433   0.287 -0.0931 -0.1911  0.2487
31989W        W74902   0.215  26.372  26.650 -0.0041  0.3591 -0.4195
31990W        W74903  27.219   9.458   8.732 -0.1547 -0.3151  0.0820
31991W        W74904  25.845  15.951  27.644 -0.1709  0.4246  0.3037
31992W        W74905  23.241  13.747  29.733  0.1140 -0.0976 -0.0265
31993W        W74906  24.609  14.273   3.974 -0.0731 -0.1327 -0.1247
31994W        W74907  17.774  14.738  21.525 -0.3565 -0.2149  0.0005
31995W        W74908   0.320   4.840   1.762  0.1151 -0.1662  0.0407
31996W        W74909  27.981  10.492  27.752  0.0408  0.0797  0.1402
31997W        W74910  28.145   5.419   0.787  0.1225 -0.0212  0.1033
31998W        W74911  25.271   9.124  27.993  0.3518 -0.3936 -0.0087
31999W        W74912  18.701  14.735   3.875  0.0653 -0.1335  0.0838
32000W        W74913  24.784   9.079  24.375  0.2649  0.0084 -0.0490
32001W        W74914  32.539   7.191   8.201 -0.1784 -0.3336  0.1731
32002W        W74915  19.871   7.364   7.333  0.0079 -0.1349  0.0010
32003W        W74916  14.237   5.114   1.747 -0.2378 -0.0679  0.0522
32004W        W74917  16.111   4.085   1.280 -0.0869 -0.0372  0.2327
32005W        W74918  29.356  32.912  24.983 -0.0780 -0.4122  0.0106
32006W        W74919  14.741  11.531  28.573  0.4975 -0.1060 -0.1123
32007W        W74920  22.357  10.293   8.612  0.0589 -0.1037  0.0246
32008W        W74921  32.619   6.004   2.192  0.2431  0.4959  0.0531
32009W        W74922   1.373  23.317   3.356 -0.1023  0.2330 -0.2082
32010W        W74923  30.682   3.285   0.730 -0.2618  0.1308  0.4657
32011W        W74924  33.930  26.605  27.818  0.2387  0.3095  0.0407
32012W        W74925   0.054  12.993   3.382 -0.1340  0.0903  0.0742
32013W        W74926  23.544   8.907   4.356 -0.0480 -0.3900 -0.2712
32014W        W74927  31.602  12.786   2.576 -0.0415  0.2446 -0.2899
32015W        W74928  24.438  16.954   2.384 -0.1916 -0.0525  0.0027
32016W        W74929  25.924   7.797   5.150  0.3202 -0.1390  0.0870
32017W        W74930  21.930   5.353  17.027  0.1826  0.1115  0.2264
32018W        W74931  24.110  13.139   1.598 -0.0303 -0.1397 -0.1277
32019W        W74932  29.870   2.726   6.375 -0.0543 -0.0014  0.3010
32020W        W74933  21.036  10.806  29.368  0.0190 -0.0920  0.0381
32021W        W74934  25.362  11.577   7.982 -0.0167  0.1458  0.1192
32022W        W74935  24.589  12.082  24.893 -0.2095  0.1868 -0.0391
32023W        W74936  27.701   9.971  26.636 -0.2471 -0.0395  0.0392
32024W        W74937  28.343  10.120   2.334 -0.1358 -0.1508 -0.1214
32025W        W74938   2.939   7.413  19.890 -0.2667 -0.3166  0.2404
32026W        W74939  21.029  12.544   1.996 -0.1356 -0.0658 -0.0153
32027W        W74940  17.787   6.299   2.792 -0.2557  0.2551  0.2550
32028W        W74941  20.902   8.087   0.769  0.0263 -0.4243  0.1198
32029W        W74942  22.328   8.224   7.306  0.0464  0.1150 -0.2920
32030W        W74943  29.101  13.504  26.830 -0.2890  0.0347  0.1244
32031W        W74944  19.213  19.637  29.608  0.3650 -0.0338 -0.1471
32032W        W74945  28.651  10.647   9.237 -0.1204  0.3420 -0.0078
32033W        W74946  26.997  12.879  29.039 -0.0240  0.2857  0.0325
32034W        W74947  33.884   2.237   3.848 -0.1232 -0.0933 -0.1035
32035W        W74948  20.784   8.621  27.228  0.1024  0.1183  0.0759
32036W        W74949  32.715   6.801  23.717 -0.1374  0.3049 -0.0444
32037W        W74950  20.099  16.601   0.644  0.1533 -0.3431 -0.1254
32038W        W74951  19.277  19.058  27.703 -0.0364 -0.4303  0.2481
32039W        W74952  32.656   4.422   6.295 -0.1652  0.2327  0.4905
32040W        W74953  21.032  11.358   2.059 -0.1317 -0.0175 -0.2496
32041W        W74954  30.737   3.430  22.777 -0.2567 -0.1132  0.0206
32042W        W74955  14.509  12.771  29.352  0.2633 -0.2338 -0.1024
32043W        W74956  16.734  18.273  29.039 -0.0105 -0.0672  0.1085
32044W        W74957  24.224   4.810   9.139  0.1947 -0.0628 -0.2501
32045W        W74958   3.324  10.804   9.812 -0.2930  0.4091 -0.0415
32046W        W74959  29.295   5.516   5.290  0.1827 -0.0290 -0.3515
32047W        W74960  32.725   9.920   0.613 -0.2299 -0.0516  0.1146
32048W        W74961  23.910  10.788   7.355  0.3375  0.1762 -0.0538
32049W        W74962  23.711   4.507   3.040  0.0060 -0.0261 -0.0158
32050W        W74963  33.514  29.916   5.496 -0.0895 -0.0320 -0.0009
32051W        W74964  18.763  33.097  29.217 -0.0644 -0.1443 -0.0405
32052W        W74965  24.652   4.129   3.181 -0.0064  0.0928 -0.3114
32053W        W74966  23.963   3.265   8.467  0.2484  0.0275 -0.1555
32054W        W74967  18.799  12.866  19.510 -0.0851  0.0460 -0.0392
32055W        W74968  31.955   9.292   4.841 -0.0825 -0.0302 -0.0401
32056W        W74969   0.435  29.760  26.611 -0.1103 -0.5544 -0.0479
32057W        W74970  19.202  12.821  28.648  0.2504  0.1968 -0.1271
32058W        W74971  29.204   8.265   7.674 -0.1279 -0.1134  0.0463
32059W        W74972  15.157   9.178  28.525 -0.0815  0.0733  0.1013
32060W        W74973  32.580  20.932   3.078  0.3361  0.2900  0.1820
32061W        W74974  19.240  33.254   2.593  0.0684 -0.1060 -0.0402
32062W        W74975  28.394   9.107   0.909  0.1100  0.1217  0.0392
32063W        W74976  23.040  17.289   2.692 -0.2171  0.1933  0.0289
32064W        W74977  31.984   5.155   2.277 -0.0513 -0.2055  0.1473
32065W        W74978  16.490  11.750  25.080 -0.0124 -0.0957  0.0801
32066W        W74979   0.988  12.481  25.447 -0.0128  0.4636  0.1551
32067W        W74980  30.426   9.803   4.938  0.0390 -0.1184  0.0077
32068W        W74981  22.299   9.944  28.134  0.1769  0.1613 -0.0063
32069W        W74982  22.376   1.695   9.351  0.0276  0.1681 -0.0830
32070W        W74983  29.217   7.663   8.799 -0.0580 -0.1032  0.2479
32071W        W74984  23.685  12.126  28.801  0.0425 -0.1084 -0.1630
32072W        W74985  24.490  11.014   2.152 -0.0599 -0.4611 -0.0942
32073W        W74986  34.016  15.548   0.692  0.2114  0.3287 -0.2351
32074W        W74987  32.428   9.717  10.040  0.1524 -0.1542  0.2645
32075W        W74988  17.248  24.534   5.156 -0.0503  0.3010  0.1407
32076W        W74989  27.188   4.959  16.207 -0.0952  0.0795 -0.3694
32077W        W74990  22.655  12.148   6.781  0.2594 -0.2515 -0.1573
32078W        W74991  14.766   8.890  29.631  0.1114  0.1229 -0.2469
32079W        W74992   3.290  14.970  27.888 -0.0841  0.0959  0.1043
32080W        W74993   2.077   3.486   6.069 -0.2043 -0.2209  0.1854
32081W        W74994  27.973  15.691   5.591  0.1743  0.0341 -0.0503
32082W        W74995  30.507  12.845   0.784 -0.1806 -0.0993 -0.0129
32083W        W74996  24.324   7.112   6.804  0.1337  0.0457 -0.3452
32084W        W74997  19.838  10.183  25.541 -0.1695  0.2746  0.1299
32085W        W74998  30.205  24.425   3.606  0.3080  0.2202  0.1670
32086W        W74999  25.394  11.641  27.722 -0.0299 -0.4162 -0.2307
32087W        W75000  21.397  18.812  26.613  0.0370  0.0199 -0.1718
32088W        W75001  26.169   2.988  28.063 -0.3614  0.1268  0.2677
32089W        W75002  24.261  10.439  21.779 -0.3142 -0.0988 -0.3243
32090W        W75003   2.887  22.545  28.740  0.1384  0.1970  0.0615
32091W        W75004  27.093   4.590   4.342 -0.2908 -0.0385  0.2451
32092W        W75005   7.422   8.561  26.126 -0.1230  0.0783  0.1651
32093W        W75006  27.278   7.201  29.493 -0.4095  0.1472 -0.2690
32094W        W75007  26.174   7.662   3.418 -0.2500  0.4693 -0.0689
32095W        W75008  29.223  12.435  23.501  0.1075  0.1508 -0.1156
32096W        W75009  27.343  17.439  28.037 -0.0508 -0.0289 -0.0904
32097W        W75010   1.796   3.392   5.046 -0.0639 -0.1264  0.0224
32098W        W75011   5.390   5.083   1.075  0.3197  0.2223 -0.2276
32099W        W75012  24.692  18.027  25.442  0.0791 -0.3047  0.0934
32100W        W75013  29.181   7.883   4.014 -0.0862 -0.2817  0.0341
32101W        W75014  17.217   0.031  10.537  0.0445 -0.0915 -0.0860
32102W        W75015  27.969   0.786   4.284  0.2851 -0.0766  0.0124
32103W        W75016  27.836   7.860   1.608 -0.1080  0.1006 -0.0820
32104W        W75017  30.582  14.357   0.005  0.0480  0.0320  0.0684
32105W        W75018  29.698  10.364   7.373 -0.1455 -0.1538  0.0206
32106W        W75019  30.440  24.686  28.394 -0.0926 -0.2951 -0.1427
32107W        W75020  22.015  12.335   5.456 -0.0399  0.2044 -0.1655
32108W        W75021  28.623   2.987  25.881 -0.1344  0.1827  0.0544
32109W        W75022  28.713   3.882   5.844 -0.1253  0.1382 -0.1519
32110W        W75023  32.807  12.975  28.174 -0.0802 -0.1094  0.1197
32111W        W75024  22.399  13.245   1.252 -0.1194 -0.0500 -0.2072
32112W        W75025  32.600   4.101   4.046 -0.2692 -0.1218 -0.1748
32113W        W75026  20.184   9.455  24.316 -0.3903 -0.0975 -0.3317
32114W        W75027  29.528   7.889  28.011 -0.0040  0.1825  0.3871
32115W        W75028  29.657   5.324   1.816 -0.0403 -0.0207 -0.1915
32116W        W75029  17.234   1.050   0.110  0.1530  0.0294  0.4686
32117W        W75030  22.392   8.593   0.743  0.0473  0.2916 -0.0632
32118W        W75031  14.345  17.462  29.419 -0.4190  0.0726 -0.1164
32119W        W75032  33.217   3.996   1.051  0.1000 -0.1167  0.2225
32120W        W75033  16.695  24.560   6.196 -0.1140 -0.0770  0.1289
32121W        W75034  30.265   0.459   1.619 -0.1665  0.3798  0.0364
32122W        W75035  16.520  25.621  19.999  0.2281  0.1935 -0.1981
32123W        W75036   0.857   6.517   4.695 -0.0391 -0.1759  0.1344
32124W        W75037  22.658   9.128   7.458  0.1114  0.2638  0.2137
32125W        W75038  22.591  33.808  27.735  0.0335  0.1373  0.1287
32126W        W75039  33.519  12.735   1.860 -0.0186 -0.1242  0.1875
32127W        W75040  23.030   8.120   6.368  0.2424 -0.1827 -0.0881
32128W        W75041   0.862   7.094  22.314  0.1966  0.2108 -0.1624
32129W        W75042   5.761  15.031   5.468 -0.4086 -0.3754  0.0900
32130W        W75043  16.952   7.391  26.317  0.1275  0.0619 -0.1135
32131W        W75044  19.332  14.259  17.482  0.0423  0.1777  0.0977
32132W        W75045  25.902   4.232   5.035  0.0848 -0.3564 -0.1014
32133W        W75046  24.519  19.377   1.110  0.3061 -0.0406  0.2176
32134W        W75047  21.014   3.974  26.115 -0.0902  0.2080 -0.0249
32135W        W75048  27.694   1.669   7.991  0.0376  0.0934 -0.0054
32136W        W75049  30.595  16.662  27.195  0.3063 -0.0223 -0.1404
32137W        W75050  22.312   7.212  28.585  0.1536  0.0614 -0.0664
32138W        W75051  25.441   7.940  14.735 -0.1174  0.3754  0.2216
32139W        W75052  30.183  13.061  26.097 -0.1311 -0.2750  0.0358
32140W        W75053  30.703  13.965   6.239  0.1285 -0.0035 -0.0317
32141W        W75054  32.853   9.863   1.088  0.1493 -0.1684 -0.3165
32142W        W75055  26.137  21.682  27.017  0.2168  0.0090  0.0042
32143W        W75056  33.604   5.385   6.506 -0.1161  0.0204 -0.0285
32144W        W75057  34.238   4.746  29.160  0.0272 -0.0967 -0.0396
32145W        W75058  30.746   9.471   7.942 -0.0812 -0.0471  0.3581
32146W        W75059  21.978  20.761   3.062  0.0744  0.4503 -0.2222
32147W        W75060   2.342  13.964   5.331  0.2098 -0.1128  0.2882
32148W        W75061  20.752  12.366   2.373 -0.1437  0.1791  0.1073
32149W        W75062  26.238   6.719   8.010 -0.1354 -0.2880 -0.1850
32150W        W75063  26.105  34.389   4.332  0.0342 -0.0837  0.1347
32151W        W75064  33.466  16.386   7.115 -0.1561  0.1378  0.1126
32152W        W75065  22.635  16.509  18.774 -0.3575 -0.1417 -0.2464
32153W        W75066  26.741   3.541   6.513 -0.0793  0.0436 -0.1867
32154W        W75067  28.604   1.223   0.756 -0.2097 -0.3355  0.2573
32155W        W75068  30.178  19.487   1.976  0.1796  0.3155 -0.0784
32156W        W75069  28.760  18.260  25.932 -0.1134  0.0977  0.1126
32157W        W75070  16.052  12.901   3.809  0.1467  0.0285  0.4455
32158W        W75071  31.337  15.159   8.592  0.0052 -0.3246 -0.0606
32159W        W75072  32.055  10.867   1.721 -0.0721  0.2021 -0.2019
32160W        W75073   1.908   7.351  10.064  0.0239  0.0756  0.2180
32161W        W75074   2.537   3.624  27.402  0.1027 -0.0955  0.1307
32162W        W75075  33.288  23.220  23.510 -0.1498 -0.3479  0.0053
32163W        W75076  28.109   6.839   6.309 -0.1377 -0.0161  0.0596
32164W        W75077  25.202  10.366  26.035 -0.0432  0.3247  0.1527
32165W        W75078  22.170   4.507  24.788 -0.0244  0.0520  0.2208
32166W        W75079   6.209  19.077  23.674  0.2198 -0.1102 -0.2863
32167W        W75080  27.613   6.067   1.590  0.1636 -0.3827  0.1274
32168W        W75081  25.968   9.778   7.803 -0.3087 -0.1805  0.1260
32169W        W75082  30.044  10.225   3.158  0.1937  0.2687  0.3751
32170W        W75083   1.677   5.905  11.046  0.0094 -0.1593  0.3137
32171W        W75084   3.030   9.849   8.573 -0.0118 -0.2292 -0.1619
32172W        W75085  22.437   9.092   7.876  0.1535  0.2772 -0.1216
32173W        W75086  22.781   3.322  25.690 -0.1777  0.0400  0.0328
32174W        W75087  29.962  31.376   1.533  0.0115  0.2186  0.2225
32175W        W75088  18.758  13.790   5.860  0.2681  0.1001  0.0619
32176W        W75089   1.068   4.540  24.253 -0.2316  0.0697  0.2324
32177W        W75090  19.064   8.185   1.204 -0.0738 -0.6836  0.0415
32178W        W75091  20.161   9.652  29.312 -0.0070  0.0080 -0.0184
32179W        W75092  27.582  19.760   6.175  0.2522  0.0098  0.3270
32180W        W75093  30.277   0.896  27.697 -0.0943 -0.0489  0.1470
32181W        W75094  28.273   5.868  25.409 -0.1176  0.0298 -0.0676
32182W        W75095  23.399  33.646   1.472 -0.1796  0.4081 -0.1312
32183W        W75096  11.917   9.604   8.994  0.1452  0.0220  0.0662
32184W        W75097  19.780  31.852  29.091  0.0656  0.1613 -0.0123
32185W        W75098   1.374  10.222   3.889  0.0768  0.3699 -0.0570
32186W        W75099  26.223  11.828  27.819  0.3995 -0.1484 -0.2061
32187W        W75100  14.548  34.199  26.759 -0.0205  0.1471  0.2051
32188W        W75101  15.574   1.999   2.346 -0.0234  0.1824 -0.0753
32189W        W75102  22.436   6.742  26.635 -0.4616 -0.3202 -0.2442
32190W        W75103  20.347   1.722  29.442 -0.2297  0.0563 -0.1044
32191W        W75104   0.166  33.886   9.120 -0.2473 -0.0274  0.0673
32192W        W75105  30.570  15.712   2.971  0.3716 -0.2482  0.1066
32193W        W75106  23.656  10.162   2.016 -0.1820  0.3822  0.1340
32194W        W75107  30.976  12.196   3.594  0.0214 -0.1541 -0.0183
32195W        W75108  24.088   0.212   5.902 -0.2946 -0.2951 -0.0053
32196W        W75109  21.625   4.993   3.097  0.2631 -0.1205 -0.0752
32197W        W75110  19.628  16.210   6.320 -0.1397  0.1435 -0.1325
32198W        W75111   0.224  34.360   8.404  0.1451  0.3058  0.0170
32199W        W75112   1.924  10.367   2.004  0.0716  0.1114 -0.1303
32200W        W75113  26.902   2.486  25.350 -0.2759  0.0153  0.1335
32201W        W75114  25.554   7.199   3.256 -0.0669  0.0114  0.1425
32202W        W75115  18.139   6.353  25.885 -0.1013  0.2106 -0.1498
32203W        W75116  29.202   5.463   7.985 -0.0766 -0.1211  0.2028
32204W        W75117  30.068   5.168  20.234  0.1302 -0.0926  0.1265
32205W        W75118  22.287  15.660   6.524  0.1024 -0.0033 -0.0801
32206W        W75119  30.084  10.516  10.079 -0.4514 -0.2118  0.4923
32207W        W75120  23.893  12.184   9.539 -0.0881  0.0830  0.0656
32208W        W75121  26.805  18.709  27.464  0.1273  0.0248  0.2826
32209W        W75122  26.184  14.147   1.017  0.2273  0.1723 -0.1547
32210W        W75123  29.513   3.624   1.089 -0.1182  0.2353  0.2807
32211W        W75124  28.539  12.679   6.527  0.0034 -0.3676  0.1396
32212W        W75125  19.287   1.796   3.616  0.1959  0.1880 -0.1672
32213W        W75126  30.927   8.289   0.796 -0.2038 -0.0862 -0.0587
32214W        W75127  34.354   7.478  23.885 -0.1423  0.1330 -0.2150
32215W        W75128  15.749   0.318   1.465 -0.1222  0.1171 -0.1252
32216W        W75129   0.831   3.487  10.499 -0.1728  0.1188  0.1020
32217W        W75130  13.488   8.329  26.602  0.0553 -0.1980  0.1045
32218W        W75131  20.938   9.409  27.488 -0.0075 -0.1101  0.1140
32219W        W75132  22.698   6.443  27.007  0.2047 -0.2111  0.1511
32220W        W75133  22.202  15.169  29.596 -0.1702  0.1886  0.0025
32221W        W75134  27.601  12.372  27.815  0.0189  0.0356  0.2130
32222W        W75135  24.419  10.697  25.661 -0.1124 -0.0050  0.2466
32223W        W75136  24.564   7.182  27.938 -0.2029  0.0600  0.1851
32224W        W75137  20.314   8.016   2.631 -0.1461  0.0550  0.0863
32225W        W75138  13.374  13.777  24.348  0.3863  0.0030  0.2095
32226W        W75139   0.360  14.413  29.601  0.0764 -0.0464  0.1875
32227W        W75140  28.923  26.998   2.615 -0.0656 -0.1901  0.0404
32228W        W75141  27.527  15.523  28.319  0.3614 -0.4171  0.2408
32229W        W75142  15.627   9.199  24.306 -0.0461 -0.0192  0.0830
32230W        W75143  23.498   1.628  23.927  0.1448  0.2367  0.3657
32231W        W75144  28.681  24.452  25.881 -0.1690  0.1016 -0.1752
32232W        W75145  26.460   1.092   0.660 -0.4557  0.0887 -0.1953
32233W        W75146  11.454   6.793   4.781 -0.1711 -0.1134 -0.0585
32234W        W75147  32.417  16.753  29.419 -0.0227 -0.0565  0.0904
32235W        W75148  24.119  34.206  27.436 -0.1743  0.2588 -0.1072
32236W        W75149  25.821   8.404   4.920 -0.0861 -0.2026  0.3785
32237W        W75150  30.346   8.815  25.111 -0.1626  0.0472  0.0680
32238W        W75151  30.028   2.563   1.359 -0.1188  0.2277  0.0271
32239W        W75152  28.753   6.788   3.435  0.2758  0.1329  0.0624
32240W        W75153  10.776   0.610   4.507 -0.0603 -0.3113 -0.1804
32241W        W75154  27.601  11.986   4.309  0.3528 -0.0328  0.1998
32242W        W75155  23.952  14.500   1.802  0.1895 -0.2054 -0.1533
32243W        W75156  33.912   3.275  11.235  0.2732  0.1216 -0.2612
32244W        W75157  29.069  19.405   3.846  0.0665 -0.3105  0.2022
32245W        W75158  19.957  13.435  23.252  0.0356 -0.4567 -0.0756
32246W        W75159   1.211   4.650   6.188 -0.0369 -0.2116 -0.0519
32247W        W75160  22.052   9.818   6.033  0.2973  0.1080 -0.0304
32248W        W75161  31.496   9.303   2.211  0.0543 -0.1849 -0.0968
32249W        W75162  25.826   0.550   0.311 -0.0223 -0.2309  0.1848
32250W        W75163  32.884  25.936   2.652 -0.2751  0.0276  0.1574
32251W        W75164   3.271  17.941   4.384 -0.0583  0.0136 -0.1717
32252W        W75165   9.015   3.533  20.908 -0.0559 -0.2924  0.2851
32253W        W75166  11.608   5.958  17.376  0.2505  0.1712 -0.0259
32254W        W75167   2.244   4.959  11.663 -0.3197 -0.0711 -0.1578
32255W        W75168   3.054  12.598  23.154 -0.1780  0.2631  0.2997
32256W        W75169  31.273  18.788  21.898 -0.2101 -0.3148  0.0330
32257W        W75170  25.471  14.886  22.086 -0.3336 -0.0639 -0.2002
32258W        W75171  24.925   5.040   4.357  0.0479  0.2281  0.0479
32259W        W75172   4.032  31.830   2.161 -0.0971 -0.1485  0.2210
32260W        W75173  30.611  14.997  29.091 -0.0778  0.0150  0.1549
32261W        W75174  27.895  14.031   4.936 -0.0627  0.1415 -0.2560
32262W        W75175  31.223   5.594   1.945  0.3005  0.1643 -0.2286
32263W        W75176  20.071  14.991   9.114 -0.1921  0.0093  0.0031
32264W        W75177  29.956   2.120  26.010  0.1961  0.1077 -0.0934
32265W        W75178  23.930  18.528  26.737  0.2085  0.0738  0.0120
32266W        W75179  28.091  10.618   3.204 -0.0519  0.1123 -0.1750
32267W        W75180  13.719   3.139  16.111 -0.1186 -0.0638  0.1085
32268W        W75181  21.071  14.045  27.983 -0.0293 -0.1462  0.0798
32269W        W75182  22.388  12.028  24.077 -0.4274 -0.1292  0.2334
32270W        W75183  18.305   2.830  26.862 -0.0764  0.1715 -0.0417
32271W        W75184  14.088   9.840  28.269 -0.2706  0.1128 -0.2061
32272W        W75185  15.549  10.830  23.416  0.2232  0.2570 -0.0449
32273W        W75186  14.458   6.026   6.261 -0.0890  0.0806 -0.0440
32274W        W75187  29.713  12.185  24.438 -0.1909 -0.1253 -0.2291
32275W        W75188  18.014  13.540  24.007 -0.1370  0.0832  0.2641
32276W        W75189  31.860   3.703   3.661  0.0109 -0.0138  0.2403
32277W        W75190  29.842  25.002  22.047  0.3540  0.2247  0.2962
32278W        W75191  23.228  13.154  27.215 -0.1359 -0.1298  0.1690
32279W        W75192  14.847   4.463  24.639 -0.3452 -0.0228  0.1890
32280W        W75193   1.809   7.974   8.211  0.2695  0.1409  0.1352
32281W        W75194  24.843   5.556   4.372 -0.0748  0.4363 -0.3548
32282W        W75195  25.379  19.752  25.492 -0.0015 -0.0296 -0.2884
32283W        W75196  14.132   8.445  21.054  0.1812 -0.2730 -0.1718
32284W        W75197  23.961  29.075   1.706 -0.1590 -0.1030 -0.0229
32285W        W75198  28.292  33.902   5.623  0.0153  0.0472  0.0661
32286W        W75199  20.041  11.292  24.691  0.1024 -0.2744  0.1603
32287W        W75200  19.080   1.990   6.090 -0.1344  0.0739 -0.0716
32288W        W75201  28.069  10.726   2.328  0.3237  0.1807 -0.1803
32289W        W75202  24.139   8.860  19.180  0.2719  0.1713 -0.1198
32290W        W75203  24.075   8.582   8.448  0.1551  0.1323 -0.3468
32291W        W75204  26.142   3.840  25.692  0.2203 -0.1925 -0.2417
32292W        W75205  25.546  14.184   2.552  0.2172  0.0181 -0.1683
32293W        W75206  13.235   7.130   6.874 -0.0452 -0.2373  0.1726
32294W        W75207   1.232  34.395  10.991 -0.2640 -0.1281 -0.2313
32295W        W75208  29.529  33.722  20.052 -0.2486 -0.3054 -0.0547
32296W        W75209  34.169   3.292   3.795  0.0221 -0.2402 -0.1795
32297W        W75210  29.454  14.964   8.102  0.0798 -0.0999 -0.0286
32298W        W75211   7.133   5.671   9.567 -0.1077 -0.1764 -0.2811
32299W        W75212  30.391   7.834  22.068 -0.0311 -0.0393  0.0851
32300W        W75213  20.698  14.812  19.644 -0.1253  0.0237  0.1732
32301W        W75214  29.652  16.949   4.685 -0.0228 -0.0821 -0.0195
32302W        W75215  28.346  19.519   5.600 -0.1005 -0.2628  0.0079
32303W        W75216  16.995  14.175  27.865  0.0191 -0.0184  0.1644
32304W        W75217  23.180  32.050   8.602 -0.2609 -0.1826  0.1346
32305W        W75218  23.373  10.238   7.630  0.2046  0.1641  0.0947
32306W        W75219  13.662  16.344   8.833 -0.4197 -0.0223 -0.3201
32307W        W75220  29.543  14.458  27.788 -0.1383  0.1405  0.1653
32308W        W75221  17.360   2.770  27.780 -0.0251 -0.0310  0.0371
32309W        W75222  21.688   5.214   3.554  0.0398 -0.3022  0.0226
32310W        W75223  33.378  17.012   0.620  0.0624 -0.0207 -0.1467
32311W        W75224  23.446   5.998   9.146 -0.1338  0.2381  0.0788
32312W        W75225  34.193  27.619  18.757 -0.1960 -0.0347 -0.1426
32313W        W75226  30.025  15.731   6.715  0.1625  0.1258  0.0601
32314W        W75227  28.600   8.752   2.261  0.3414 -0.1288 -0.1399
32315W        W75228  19.962  11.130   6.204  0.2027 -0.0203  0.1363
32316W        W75229  25.604   9.986   7.484 -0.0425  0.2297 -0.1992
32317W        W75230  28.932  14.320   2.813  0.1168  0.0111 -0.0115
32318W        W75231   0.392   6.798   0.771  0.0568  0.0253 -0.0611
32319W        W75232  31.347  13.640   5.671 -0.4894 -0.0709  0.2826
32320W        W75233  32.434  18.956  27.906  0.0232  0.0536  0.2223
32321W        W75234  23.962  21.464  27.509  0.1434  0.0526  0.0806
32322W        W75235   0.518  12.750  24.195  0.3026  0.2371  0.0315
32323W        W75236  24.401  17.795  28.078  0.1824 -0.0431 -0.1472
32324W        W75237  31.433  11.796   8.291  0.0419  0.0444  0.0306
32325W        W75238  19.827  12.986   0.103 -0.1212 -0.4487  0.0821
32326W        W75239  20.188   8.416   8.927  0.0805 -0.1198  0.2511
32327W        W75240   2.026   3.842   4.231 -0.3959 -0.1399 -0.1764
32328W        W75241  27.008   6.146   8.792 -0.0126  0.0109 -0.0604
32329W        W75242  22.312  11.116  28.901 -0.0190 -0.1265  0.1317
32330W        W75243   5.207   9.687   4.560  0.1205 -0.0859 -0.3071
32331W        W75244  19.877  20.903  21.028  0.0198 -0.2357 -0.2360
32332W        W75245  22.991   4.398   4.825  0.2125  0.1769  0.0044
32333W        W75246  27.073  23.871  28.212  0.0606 -0.4110 -0.2467
32334W        W75247  30.896  14.038   3.657  0.0637  0.1003 -0.0763
32335W        W75248  21.346  18.485   4.431  0.2593  0.2472 -0.0076
32336W        W75249  23.944   9.767   5.632 -0.1067 -0.1368  0.0585
32337W        W75250   0.222   8.412  10.513  0.1542  0.0738 -0.2956
32338W        W75251  22.417   6.402   9.595 -0.0021 -0.3604 -0.3504
32339W        W75252  24.242   9.263   0.898  0.0107  0.2067 -0.0953
32340W        W75253  21.072  13.939   6.449  0.0648  0.0334 -0.1157
32341W        W75254  32.390   1.334  11.161  0.2635  0.0703 -0.0854
32342W        W75255  30.990   8.566   6.442  0.0927 -0.0258 -0.1539
32343W        W75256   0.066  13.267   5.172 -0.0215  0.1663 -0.3154
32344W        W75257  25.897  18.849   3.211 -0.1634 -0.0015 -0.3382
32345W        W75258   2.345  14.251   6.238 -0.0243 -0.1775 -0.2843
32346W        W75259  20.614  10.801  27.484 -0.0872 -0.0810 -0.0788
32347W        W75260  13.900   7.917   0.286  0.0358  0.0441  0.0479
32348W        W75261   7.501   8.756   7.152  0.0338 -0.1094 -0.0695
32349W        W75262  21.011   9.127   8.118  0.0919 -0.0720 -0.1926
32350W        W75263  25.318  15.927   4.724  0.0434 -0.1084 -0.1607
32351W        W75264  26.626   9.819   7.759 -0.0509  0.0736 -0.2195
32352W        W75265  25.986  10.058  27.191  0.1239  0.4841 -0.0813
32353W        W75266  17.250  29.728   7.998 -0.1401 -0.1744 -0.0846
32354W        W75267  20.336  13.615  27.269  0.2045  0.3335  0.0457
32355W        W75268  29.730  34.284   9.329  0.2641 -0.2941  0.1208
32356W        W75269   8.971  14.069   1.257  0.1466  0.3252 -0.0521
32357W        W75270   6.651   9.477   8.923 -0.2306  0.0996  0.0050
32358W        W75271  23.241  21.133  27.193  0.0835 -0.1855 -0.0348
32359W        W75272  31.445   5.119   6.462 -0.0388  0.3647  0.1110
32360W        W75273   1.709   5.410  11.057 -0.1748  0.0726  0.0291
32361W        W75274  27.529  10.769   1.454  0.0501  0.1110 -0.1192
32362W        W75275  25.423  16.575   6.853 -0.2762 -0.0663 -0.1788
32363W        W75276  24.865  15.815  26.238 -0.0174  0.2178  0.0005
32364W        W75277  31.008  13.444   7.461 -0.1565 -0.0020  0.1186
32365W        W75278  28.039  11.303   8.182 -0.2960  0.1079  0.1490
32366W        W75279  20.368   1.452   6.720  0.3168  0.3244  0.1597
32367W        W75280  17.087  11.360   3.845 -0.0664  0.3931  0.1202
32368W        W75281  32.961   8.781   6.488 -0.1743  0.0550  0.0081
32369W        W75282   2.689  21.579   5.660 -0.2426  0.1210 -0.1833
32370W        W75283  32.205   0.099  10.664  0.2976  0.0290  0.1744
32371W        W75284  24.523   9.806   8.139 -0.1046  0.0074  0.0397
32372W        W75285  31.576  15.826   0.501  0.3474 -0.0328 -0.3201
32373W        W75286   3.446   8.151  12.270  0.0507 -0.2077 -0.0735
32374W        W75287  28.232  16.874   0.042 -0.2427 -0.1165  0.2707
32375W        W75288  22.140   4.206   9.088 -0.2678  0.1472  0.3492
32376W        W75289  28.692  13.064   6.264 -0.1336  0.1591 -0.3077
32377W        W75290  27.257   8.770   0.626 -0.0179 -0.0200 -0.0437
32378W        W75291  27.866  10.199   8.349  0.1621  0.7218  0.1047
32379W        W75292  18.547  15.602   4.308 -0.2797 -0.0746  0.1191
32380W        W75293  31.538   9.299  10.738  0.0248  0.1615 -0.0022
32381W        W75294  19.944   0.475   2.239 -0.1606  0.0394 -0.0705
32382W        W75295  25.077   6.662   0.918  0.0346  0.0971 -0.0031
32383W        W75296  18.258   3.919  19.712 -0.0090 -0.1950  0.2149
32384W        W75297  23.139  10.141  18.917  0.0641  0.3970  0.0117
32385W        W75298   3.187   3.266   2.158 -0.0494  0.1199  0.0457
32386W        W75299  28.035   6.758   0.173  0.3120  0.2359 -0.0040
32387W        W75300  18.720   1.286   6.692 -0.1077  0.1210  0.1399
32388W        W75301  32.308   6.194   4.518 -0.1466  0.0065  0.2553
32389W        W75302   1.896  12.303   6.371  0.0802  0.2072 -0.1134
32390W        W75303  22.966  10.755   1.670 -0.2576  0.0717  0.3538
32391W        W75304   1.819  19.673   5.220 -0.2033 -0.2923 -0.0536
32392W        W75305  30.431   1.009   6.234  0.0483  0.3487 -0.0457
32393W        W75306  28.347  15.975   7.096  0.1178 -0.2247  0.3007
32394W        W75307  31.136  14.727   8.320 -0.3428  0.0657 -0.0868
32395W        W75308  13.919  22.158   7.212  0.1735  0.1601  0.2476
32396W        W75309  28.966   6.202  10.406 -0.1710 -0.0506 -0.1373
32397W        W75310  19.604  10.237  28.697  0.0443  0.4623 -0.0349
32398W        W75311  31.002  13.631   2.239  0.0051 -0.2447 -0.1158
32399W        W75312   3.395   1.354  27.943  0.2713  0.0658 -0.0581
32400W        W75313  30.192  16.572   7.184  0.1800  0.0316  0.1508
32401W        W75314  26.404  15.312   3.302 -0.1961 -0.2655  0.1587
32402W        W75315  23.986  17.307   2.432 -0.1110  0.2373  0.1479
32403W        W75316  27.326  13.946  26.247  0.0655  0.0347  0.0983
32404W        W75317   5.784   0.765   0.755  0.0579 -0.1630  0.1062
32405W        W75318  14.459  33.346   2.070  0.0533 -0.0811  0.0530
32406W        W75319   3.797   7.793  11.341 -0.2813  0.0715 -0.2349
32407W        W75320  33.392  14.114  28.500  0.1294 -0.0340  0.1263
32408W        W75321  22.494  22.252   6.226 -0.1756 -0.0675 -0.1151
32409W        W75322  19.632  11.211   5.143 -0.2253 -0.2757 -0.3440
32410W        W75323  30.850   9.561   8.416  0.0253  0.0539 -0.1967
32411W        W75324  18.843  11.919  23.538 -0.1808 -0.0078 -0.3677
32412W        W75325  22.940   9.971  27.377  0.1144 -0.3549 -0.1619
32413W        W75326  26.345  12.694   5.911  0.1422  0.1535  0.2347
32414W        W75327  31.610   9.240  11.569  0.1885 -0.1276 -0.0065
32415W        W75328  22.799  16.398   6.767  0.1050  0.3027 -0.0913
32416W        W75329  24.993   4.082   0.290  0.1348  0.2907 -0.2356
32417W        W75330  21.264   1.915   2.098  0.0637  0.2152 -0.0418
32418W        W75331  34.042   8.368   9.541  0.0280  0.1751  0.1355
32419W        W75332  18.949   9.775   7.503  0.2060  0.1328 -0.2298
32420W        W75333  28.484  30.257   2.909 -0.1905  0.1566 -0.1693
32421W        W75334  31.772  14.680   5.150  0.2304 -0.3321  0.2776
32422W        W75335  26.097  15.550   4.360 -0.1001  0.0502  0.3366
32423W        W75336  29.935  12.147   8.988  0.3967  0.1082  0.1086
32424W        W75337   8.761  19.404   1.455  0.1362 -0.1769  0.0860
32425W        W75338   7.230   0.758  22.126  0.0732  0.0143  0.2118
32426W        W75339  22.185  12.481   2.480  0.2153 -0.2574 -0.1652
32427W        W75340  23.618   2.526   5.229  0.1830 -0.1731  0.0764
32428W        W75341  26.764   9.667   3.275  0.1089  0.2070 -0.0440
32429W        W75342   0.063   6.937  10.667 -0.4313 -0.4644  0.0693
32430W        W75343  29.949   7.477   8.475  0.0438 -0.3459  0.0900
32431W        W75344  17.991  13.512   8.305  0.0003  0.3019 -0.0768
32432W        W75345  26.503  30.067  28.778  0.3410 -0.0977  0.2517
32433W        W75346  25.366  10.623   6.124  0.0152  0.0641 -0.0714
32434W        W75347  32.388   7.854   6.277  0.3902  0.3535 -0.1291
32435W        W75348  27.209   3.504   4.221 -0.1142  0.1201  0.1356
32436W        W75349  29.310   4.817   2.975 -0.2188  0.0541  0.2186
32437W        W75350  17.795   8.849  28.774 -0.2505  0.1272  0.1532
32438W        W75351  34.103  25.639  24.692  0.1981  0.0453  0.0673
32439W        W75352  26.801   1.857   3.760 -0.3388  0.1235 -0.0570
32440W        W75353  25.358   7.639   3.058 -0.0383  0.1715 -0.1227
32441W        W75354  29.245  12.841   1.094  0.3041  0.1685 -0.0007
32442W        W75355   0.067  13.125   3.919  0.0394  0.1127  0.0414
32443W        W75356   1.709  10.697   2.369 -0.1708 -0.0033 -0.2894
32444W        W75357  33.535  11.050   5.237  0.2406 -0.0062 -0.0359
32445W        W75358  21.047   7.843   8.069  0.1143  0.1802  0.0515
32446W        W75359  28.557   7.646  23.949  0.1867  0.1340 -0.0370
32447W        W75360  25.006   6.521   7.575  0.0056 -0.3475  0.1063
32448W        W75361   4.559   5.784   5.307  0.2949 -0.0725  0.1431
32449W        W75362   3.728   9.726   1.396 -0.0851  0.3170  0.1855
32450W        W75363  26.866  15.360  27.268  0.0356 -0.2937 -0.1164
32451W        W75364   4.953   5.893   4.961  0.4921  0.0351 -0.0803
32452W        W75365  29.128  10.353   5.087 -0.0886 -0.2066  0.2582
32453W        W75366  18.688  11.947  18.348  0.2400 -0.0349 -0.1003
32454W        W75367   6.727   6.192  10.073  0.1877  0.2405  0.4000
32455W        W75368  20.532  11.885   1.538 -0.0435  0.0695 -0.4557
32456W        W75369  21.941  13.468  27.906 -0.1996  0.0397  0.2752
32457W        W75370  14.312  16.097   5.859 -0.2198 -0.0902  0.2692
32458W        W75371  29.469  12.016   3.715 -0.0531  0.0403  0.1621
32459W        W75372  33.665   9.319   6.992 -0.1270 -0.1548  0.1144
32460W        W75373  25.472   5.857   3.131  0.0252  0.2095  0.2318
32461W        W75374  28.935  29.338   5.449 -0.3659 -0.2109  0.1416
32462W        W75375  29.549  11.780  26.266  0.1185 -0.0668 -0.2012
32463W        W75376  22.977   8.545   3.736  0.3605  0.1441  0.0910
32464W        W75377  18.243   7.541  20.080 -0.1759  0.1701  0.5480
32465W        W75378  26.321  19.378   8.164  0.0556  0.1483 -0.2305
32466W        W75379  14.675  31.494  26.236  0.1322  0.2422  0.1551
32467W        W75380   0.588   2.620   2.343 -0.1894 -0.1459 -0.1500
32468W        W75381  28.695  26.754   2.988 -0.3804  0.1801  0.2303
32469W        W75382  24.762  16.202   2.082 -0.0868  0.0060 -0.0110
32470W        W75383   5.697  13.366   4.798  0.2044 -0.2218 -0.0744
32471W        W75384  15.225  15.160  23.308  0.2846 -0.4397  0.0224
32472W        W75385  24.740   2.328   4.203 -0.2229 -0.1304  0.0595
32473W        W75386  34.360  13.829  29.622 -0.1367 -0.6263  0.1386
32474W        W75387  25.021  21.038  27.688  0.2431  0.0824 -0.4183
32475W        W75388  32.611  31.571  27.305 -0.2330  0.0310  0.2568
32476W        W75389  12.660   8.335   6.965 -0.0411 -0.1915  0.2407
32477W        W75390   1.555   2.819   5.896  0.0402  0.2916  0.3036
32478W        W75391  18.090  15.056  28.416 -0.0195 -0.0729 -0.1863
32479W        W75392  27.533   5.062   6.179 -0.3679  0.1538 -0.0744
32480W        W75393  30.567  27.884   9.096  0.2690  0.0632 -0.0124
32481W        W75394  31.501  10.065   4.564  0.2419  0.2103 -0.1043
32482W        W75395  33.820   0.945   0.088  0.2122  0.1154 -0.1288
32483W        W75396   1.350   2.977   2.881  0.0633  0.2419  0.1464
32484W        W75397  10.951   9.274  26.167  0.2067 -0.1628  0.1640
32485W        W75398  21.359   0.211   7.962 -0.1624  0.1051  0.0596
32486W        W75399  22.349   6.444  26.022 -0.1060  0.1235 -0.0008
32487W        W75400   4.218  11.812   7.701  0.0464  0.0009 -0.1069
32488W        W75401  21.294   0.240   4.957 -0.0799 -0.0227  0.1031
32489W        W75402  31.836   6.566  25.456  0.1253  0.0485  0.0850
32490W        W75403   0.414   0.929  29.711 -0.1042 -0.4959  0.2507
32491W        W75404  32.856   5.670   9.149  0.3708  0.1174 -0.1473
32492W        W75405  22.816   8.309   8.188  0.2451  0.3288  0.1361
32493W        W75406  21.562  16.625   4.446 -0.1012 -0.1064 -0.2155
32494W        W75407  33.891   2.647   6.124  0.2907  0.1120 -0.0065
32495W        W75408  31.279   5.274   1.413 -0.3111  0.0737 -0.0302
32496W        W75409  30.287  11.012   5.449  0.1022  0.4296 -0.0496
32497W        W75410  24.422  12.295   3.054  0.0163  0.0177 -0.1539
32498W        W75411  28.754  11.552   5.402  0.3327 -0.3681  0.2558
32499W        W75412  27.380  15.191   4.056  0.0010  0.2432  0.2598
32500W        W75413  22.824  13.012   6.656  0.1741  0.2919  0.0306
32501W        W75414  15.294  18.449   8.132 -0.4865  0.0154  0.0085
32502W        W75415  32.992   6.740   9.232  0.2406  0.1484 -0.1273
32503W        W75416  23.376  12.628   9.106 -0.0851  0.1114 -0.2372
32504W        W75417  19.014  30.596   6.335 -0.0735 -0.2421 -0.2300
32505W        W75418  31.641   4.869  21.594 -0.0560  0.1849  0.1294
32506W        W75419   0.247  32.436   5.861  0.3489 -0.0720 -0.0055
32507W        W75420  31.368   7.679   7.634  0.1422  0.0257 -0.0362
32508W        W75421  19.924   2.127   4.636  0.2661  0.0664  0.2346
32509W        W75422  25.698  14.285   5.958  0.2213 -0.0803  0.0478
32510W        W75423  33.995  15.530   1.287 -0.2696  0.1556 -0.0259
32511W        W75424  33.564   6.769   5.001 -0.2409  0.1893 -0.3307
32512W        W75425  22.997   1.087   8.191 -0.0505 -0.0448  0.0415
32513W        W75426  20.866   8.760   4.787 -0.0239 -0.0696  0.0153
32514W        W75427  25.185   8.957   4.143  0.1261 -0.1573 -0.2471
32515W        W75428  23.831  14.952   8.263 -0.2034  0.2469  0.0707
32516W        W75429   2.988  10.552   5.330  0.2256 -0.2272 -0.1057
32517W        W75430  22.529  14.738   4.076  0.0615 -0.0285  0.1330
32518W        W75431  19.931   6.014   4.173 -0.0930 -0.2372  0.4305
32519W        W75432  19.712  20.375   3.999 -0.0738 -0.1798 -0.1387
32520W        W75433  22.117   5.619   4.369  0.0286 -0.2578  0.1088
32521W        W75434  29.739  32.907   5.831  0.0214 -0.0431  0.2833
32522W        W75435  17.772   6.642   6.305 -0.0309  0.1727 -0.1924
32523W        W75436  27.591   6.133   9.081 -0.0854  0.0157 -0.1580
32524W        W75437  20.824   8.737   2.605 -0.1402  0.1216 -0.2049
32525W        W75438  34.196   9.393  28.496 -0.2617 -0.1500  0.0122
32526W        W75439  33.818  10.876   6.803 -0.1644  0.1770  0.2258
32527W        W75440  20.623  10.507   8.678  0.1479  0.0746 -0.1520
32528W        W75441  17.684  14.743   6.090  0.1949 -0.1896 -0.0903
32529W        W75442   1.523  16.626   5.439  0.2134  0.1390 -0.1168
32530W        W75443   3.444   6.773  10.793  0.0727  0.1043  0.1964
32531W        W75444  22.721   4.097   4.013 -0.1781 -0.1503  0.0542
32532W        W75445  19.880   5.774   9.254  0.1489  0.0677  0.0560
32533W        W75446  27.235   5.169  10.183 -0.1781 -0.1343  0.0663
32534W        W75447  21.167  10.871   8.664 -0.0332 -0.1931  0.2481
32535W        W75448  30.540   8.636   0.776  0.3713  0.0728 -0.1981
32536W        W75449  12.397  15.116  27.316 -0.1354 -0.1054  0.0137
32537W        W75450  31.182  13.647   3.280  0.0153 -0.0077 -0.2212
32538W        W75451  31.096  27.127   4.922  0.0547  0.0309 -0.1358
32539W        W75452  18.964  18.245  25.187  0.3676  0.1789 -0.1803
32540W        W75453  29.831  12.924   6.242  0.0736  0.0662  0.1770
32541W        W75454  34.020   4.904  12.523 -0.1533 -0.1148  0.2121
32542W        W75455  24.254  10.986  27.658  0.1653 -0.3011 -0.3447
32543W        W75456  28.244  11.721   1.070 -0.0593  0.1443  0.1622
32544W        W75457  33.234  28.929   6.862  0.1878 -0.0716  0.1476
32545W        W75458   2.993   8.630   6.114 -0.0689 -0.2861 -0.1427
32546W        W75459  26.157   6.318   8.305 -0.1968  0.1327 -0.1510
32547W        W75460  26.294  11.210   8.351  0.4807  0.1048  0.0072
32548W        W75461  18.906   7.228   6.590  0.1224 -0.0168  0.2000
32549W        W75462  32.895  13.537   6.003 -0.0038  0.1058  0.2326
32550W        W75463  21.278   8.482  27.322  0.0451 -0.1877 -0.0115
32551W        W75464  22.786  15.804   6.040  0.0142  0.0252  0.0382
32552W        W75465   4.942   1.075  11.356 -0.1315 -0.3097 -0.1500
32553W        W75466  30.661  18.933  24.537  0.2518  0.0672 -0.0418
32554W        W75467  27.081  34.001   8.848 -0.2354 -0.0511 -0.1906
32555W        W75468  24.766   5.205   8.828 -0.1239 -0.1097  0.0795
32556W        W75469  19.948  32.719   6.417  0.1699 -0.0792 -0.0536
32557W        W75470  24.540   7.275   0.708  0.2150 -0.1369  0.0743
32558W        W75471  27.665   3.366  22.027  0.3912 -0.2091 -0.0815
32559W        W75472  27.064   4.831   7.474 -0.1116  0.0063 -0.0378
32560W        W75473   3.424  33.051  25.758 -0.0936  0.0436 -0.0540
32561W        W75474   2.751  11.280   8.417  0.1830  0.2990  0.1417
32562W        W75475  29.278  14.446  28.981  0.1036 -0.1024 -0.2434
32563W        W75476  32.891   4.219   8.378 -0.0872  0.5141 -0.3633
32564W        W75477  17.765  18.403   1.439 -0.2311  0.0861  0.2180
32565W        W75478  21.900   9.176  28.484  0.4031  0.1311 -0.1683
32566W        W75479  28.067  11.713   3.226 -0.1409 -0.0669  0.0626
32567W        W75480  29.627   6.802   6.558  0.1084  0.0214  0.1508
32568W        W75481  33.627  15.391  29.538  0.1224  0.2858 -0.1732
32569W        W75482  24.316   3.683   0.237 -0.1448 -0.1655  0.0129
32570W        W75483  26.771  20.411   0.671 -0.2121  0.1210 -0.2173
32571W        W75484  29.301  17.482   2.007  0.0238 -0.2557 -0.0131
32572W        W75485  29.522   0.131  24.908 -0.0345  0.1446  0.0277
32573W        W75486  32.226   4.410   4.213  0.1133  0.1823 -0.1767
32574W        W75487  26.694   8.829   5.197  0.3964  0.0714  0.2344
32575W        W75488  17.714   7.304   6.870  0.2590  0.2248 -0.0736
32576W        W75489  27.645  16.810   3.901  0.1027  0.1983  0.0959
32577W        W75490  16.467   5.106   7.361 -0.1819  0.0976  0.1772
32578W        W75491  23.344   6.896  29.264 -0.1259  0.0777  0.0539
32579W        W75492  14.625   1.722   2.513 -0.1435 -0.0056 -0.2594
32580W        W75493   1.464  12.534   8.557 -0.0220  0.0933 -0.3447
32581W        W75494  26.679   9.368   5.355  0.3834 -0.0022  0.2118
32582W        W75495  15.473   1.137   8.813 -0.0702  0.0195 -0.2234
32583W        W75496  22.045  21.836  24.761  0.2484  0.1611 -0.1348
32584W        W75497   0.032   2.279   7.531  0.1621 -0.0765 -0.3117
32585W        W75498  17.252   0.605  22.466  0.1497  0.1138  0.1687
32586W        W75499  18.324  21.327   3.800  0.0197 -0.0046  0.0081
32587W        W75500  27.500   1.441   6.229  0.1108 -0.0191  0.2406
32588W        W75501  17.539   8.451   6.439 -0.2112 -0.2193  0.0127
32589W        W75502  21.036  18.184  27.124 -0.2473 -0.2444  0.2759
32590W        W75503  17.908   1.778  19.833  0.0739 -0.0787  0.0207
32591W        W75504  28.431  33.631   2.370  0.0002  0.1233  0.1159
32592W        W75505  31.488   7.432  27.726 -0.2840  0.1022 -0.1056
32593W        W75506  29.611  18.647  29.722 -0.6151 -0.0805  0.3109
32594W        W75507   0.407   9.178   3.705  0.1168  0.2542 -0.3983
32595W        W75508   3.693  18.601   6.191  0.1927 -0.2509 -0.2545
32596W        W75509  25.044   3.319   4.083  0.2229  0.0622  0.0956
32597W        W75510  31.513   3.464  26.471  0.3172  0.0471  0.2665
32598W        W75511  33.455   8.028  28.254 -0.1705  0.2334  0.0689
32599W        W75512  24.584  18.461   7.170  0.0962 -0.3488 -0.3646
32600W        W75513  24.999   9.929  29.271 -0.2873 -0.1028 -0.0825
32601W        W75514  32.675   2.666   4.443 -0.2228  0.1500  0.1183
32602W        W75515   1.559  27.870   2.937  0.1785 -0.2457  0.0802
32603W        W75516  11.449   0.997   4.774 -0.0236 -0.0742  0.0752
32604W        W75517  25.919  12.385  28.828 -0.1478  0.0419 -0.0706
32605W        W75518  31.896  13.326   9.537  0.0607 -0.0273  0.2382
32606W        W75519   1.277  10.749  28.008 -0.1386  0.1525  0.0571
32607W        W75520  24.768   7.404   4.500 -0.0150 -0.0073  0.0086
32608W        W75521  20.364  33.059   2.614 -0.2830 -0.1770  0.2514
32609W        W75522  24.655   7.251   4.028 -0.0688 -0.1245 -0.0516
32610W        W75523  32.505   7.452   5.890 -0.3472 -0.1542 -0.1386
32611W        W75524  20.851   6.501  29.116  0.1564  0.2145  0.0866
32612W        W75525  12.786   5.857  10.516  0.0705 -0.1528  0.3112
32613W        W75526  30.004  15.774   5.611 -0.0177 -0.0281 -0.2049
32614W        W75527  28.672  21.359   2.726  0.0572  0.0230 -0.0555
32615W        W75528  14.048  13.546   8.552 -0.0674  0.2725  0.1779
32616W        W75529  27.738   5.497   7.218  0.0813 -0.1131 -0.0745
32617W        W75530  23.656  13.261   6.009 -0.3450  0.2320 -0.2813
32618W        W75531  20.287  12.174   2.259 -0.0616  0.0782 -0.0166
32619W        W75532  15.084  14.347  25.436 -0.2130 -0.1095 -0.2301
32620W        W75533  26.166   6.717  26.816 -0.0767 -0.1782 -0.1104
32621W        W75534   0.084  13.346  23.454 -0.0217 -0.0021 -0.1023
32622W        W75535  21.553   9.368   3.094  0.1493 -0.1514 -0.3977
32623W        W75536  17.632   9.387   0.554  0.0874  0.3936 -0.1154
32624W        W75537  20.937  14.799  29.365 -0.2685  0.2456  0.0538
32625W        W75538  18.827  12.218  29.651  0.2562 -0.0820  0.0573
32626W        W75539   6.893   0.376  11.059  0.0853  0.0536 -0.4082
32627W        W75540  21.345   3.852   1.068 -0.0316  0.2413  0.4279
32628W        W75541   2.606  12.201   7.189 -0.2375  0.1992  0.0522
32629W        W75542  26.124   8.152   6.665  0.1463 -0.0122 -0.1317
32630W        W75543   2.518   6.726   7.415  0.1490 -0.1159  0.2408
32631W        W75544  33.582   1.287  25.943 -0.0801  0.1681 -0.1424
32632W        W75545  29.509  18.761  29.201  0.1461 -0.1798 -0.1401
32633W        W75546  23.937  13.931   2.455  0.0691  0.0622  0.0675
32634W        W75547   0.179   8.206   9.247  0.0080 -0.0223  0.3567
32635W        W75548  20.937  20.663  25.358 -0.0606  0.1214  0.2143
32636W        W75549  31.278  32.214   3.902  0.0438  0.1097 -0.2355
32637W        W75550   2.902  10.318   1.486 -0.2532  0.1232  0.4030
32638W        W75551  26.001  15.748   6.333 -0.0648 -0.0026 -0.1256
32639W        W75552  20.253   6.811   9.545  0.0137  0.2660  0.0979
32640W        W75553  26.060  25.045   5.051  0.1617 -0.4670 -0.0165
32641W        W75554   2.907  12.466   1.134  0.0948 -0.3384 -0.1083
32642W        W75555  20.958  13.911   0.128  0.0343  0.1900 -0.0141
32643W        W75556  24.316   3.765   4.244 -0.0296 -0.2032 -0.0169
32644W        W75557  32.681   3.470  10.978 -0.0260 -0.3097  0.1443
32645W        W75558  19.372   4.240   1.222 -0.0167  0.1691  0.1355
32646W        W75559  30.511  12.471   5.161 -0.1534 -0.0080 -0.0530
32647W        W75560   0.246  19.004   5.139 -0.2080  0.2087 -0.0122
32648W        W75561   1.054   4.013   4.915  0.0908  0.0985  0.0021
32649W        W75562  26.582  10.622   4.183  0.0890  0.0743 -0.0826
32650W        W75563  33.986  33.312   9.907 -0.3678 -0.2603 -0.0785
32651W        W75564  22.985   3.538   0.201  0.0720  0.0423  0.0274
32652W        W75565  31.509  15.510   6.095  0.1511 -0.1158  0.1025
32653W        W75566  12.459   5.050   8.406  0.1126  0.1018 -0.1870
32654W        W75567  23.631  22.286   7.976 -0.0041  0.2602 -0.2227
32655W        W75568  28.640  13.712   1.829  0.3025 -0.1448 -0.1823
32656W        W75569  21.379  13.085   8.212  0.0036  0.1083 -0.0297
32657W        W75570  30.259  11.837   7.776  0.1599 -0.1976 -0.1318
32658W        W75571  32.666   9.545   5.633  0.0239  0.0980 -0.1501
32659W        W75572   4.119   8.869   8.021  0.2390  0.2005  0.1395
32660W        W75573  32.666  30.015  10.100 -0.0695 -0.1426 -0.1396
32661W        W75574  29.215  11.703   9.136 -0.1605  0.0375 -0.1981
32662W        W75575  22.334   5.893   7.948  0.0057  0.3221  0.2532
32663W        W75576   5.428  10.137   5.927 -0.0212  0.1701 -0.1479
32664W        W75577   0.191  12.831   4.843 -0.2131  0.0664  0.0044
32665W        W75578  33.078  12.264   3.898  0.0765 -0.0528 -0.3386
32666W        W75579  26.912   9.303   2.927 -0.0762 -0.0307 -0.0658
32667W        W75580  31.594   3.146   6.968  0.0726  0.1626 -0.1627
32668W        W75581  27.505   9.851   8.537 -0.0239  0.2679  0.2582
32669W        W75582   8.114   7.455   4.155 -0.0199 -0.1171 -0.0166
32670W        W75583  15.588   5.511   0.874 -0.3341  0.0553  0.2008
32671W        W75584   4.261   5.289   5.311 -0.2005  0.0690 -0.0624
32672W        W75585  25.499  10.372  29.468  0.1662 -0.1830 -0.0798
32673W        W75586  14.027  10.476   2.378 -0.1608 -0.0020  0.2875
32674W        W75587  18.024  12.642   3.977  0.0479  0.1735 -0.1613
32675W        W75588   2.789   8.307  12.842  0.0657 -0.0445 -0.1118
32676W        W75589  24.246   9.505   1.835 -0.4654  0.2146 -0.1249
32677W        W75590  24.931  18.165   0.134 -0.0121  0.1852 -0.2271
32678W        W75591  31.441   6.991  26.977 -0.1663 -0.1800 -0.0467
32679W        W75592  29.937   9.359   4.254  0.2648  0.1605 -0.1418
32680W        W75593  26.437  19.127   5.660  0.0071 -0.0626  0.1422
32681W        W75594  23.106  14.130   2.023  0.0379  0.1816  0.0702
32682W        W75595  16.399  14.118   6.408 -0.1546 -0.2431 -0.0325
32683W        W75596   1.437  10.436   4.354  0.0749 -0.2824  0.1679
32684W        W75597  25.380  16.192   2.103 -0.2754  0.0576  0.0741
32685W        W75598  34.301   0.681   7.100  0.5003  0.1258  0.1320
32686W        W75599  18.010  11.361  28.590  0.0018  0.0500  0.1546
32687W        W75600  25.778  13.470   2.653  0.0019 -0.0901 -0.1692
32688W        W75601  23.959  15.196   4.703 -0.0728  0.1070 -0.0527
32689W        W75602  18.934  25.831   0.575  0.0951  0.3640 -0.0857
32690W        W75603  26.144   2.930   1.575  0.1333 -0.1025 -0.1306
32691W        W75604  30.169  33.013   2.313 -0.1146  0.0354 -0.1126
32692W        W75605  23.344  14.278   4.059 -0.1556 -0.0761  0.1372
32693W        W75606  22.922  10.484   8.759  0.0035 -0.2837 -0.0906
32694W        W75607  19.433  12.451   3.079 -0.2754  0.1877 -0.0856
32695W        W75608  29.612  23.642   2.360  0.0579  0.0557 -0.1042
32696W        W75609   1.680  14.842   5.513  0.0766 -0.1221 -0.3107
32697W        W75610  13.915   1.468   3.578 -0.2236  0.1191 -0.2683
32698W        W75611  23.432   4.377   5.039 -0.2230 -0.0242  0.0769
32699W        W75612   6.014   5.663  11.434  0.1040 -0.0173  0.0504
32700W        W75613  29.257   2.245   8.259 -0.0335  0.3213  0.1896
32701W        W75614  23.708  16.532   4.716  0.0601  0.1416  0.3781
32702W        W75615   4.105   6.794  28.675 -0.2836 -0.3096 -0.1004
32703W        W75616  25.531  23.629   1.988 -0.1821 -0.0907 -0.2096
32704W        W75617  28.988   2.845   9.905 -0.1592 -0.2082 -0.0377
32705W        W75618  28.323  12.397   3.618 -0.2097  0.0647  0.2148
32706W        W75619  22.350  10.867  26.269 -0.0288  0.0585 -0.1434
32707W        W75620  30.755   4.388   6.483  0.0722  0.1191  0.0107
32708W        W75621  26.701   9.424  10.317 -0.2080  0.0384  0.0471
32709W        W75622  33.263   3.790  10.067 -0.3555  0.2069  0.1757
32710W        W75623  26.755  11.875   7.221  0.0022  0.2478  0.4432
32711W        W75624  26.440  16.969   9.477 -0.2612  0.0990  0.0940
32712W        W75625  26.343  34.424   8.481 -0.2560 -0.1135 -0.0694
32713W        W75626  24.535  14.895  22.942  0.2146  0.1212 -0.1338
32714W        W75627  15.785   0.746   8.852 -0.1728 -0.1296  0.1782
32715W        W75628   4.545   8.161  11.060  0.3203  0.0530 -0.0534
32716W        W75629  19.462  15.618   7.151  0.3207  0.2311  0.1316
32717W        W75630  23.904   8.123   4.864 -0.1375 -0.2732  0.1785
32718W        W75631   4.845  10.214   7.704  0.0055 -0.0233 -0.5181
32719W        W75632  24.683  18.625   2.868  0.2486 -0.1815 -0.0643
32720W        W75633  23.281   3.433   1.740 -0.0919  0.1290 -0.1451
32721W        W75634  13.881   1.101   7.071  0.1352  0.2576  0.1944
32722W        W75635   4.450  15.287   6.623 -0.3206 -0.1356  0.0297
32723W        W75636  24.247  22.042  26.129  0.3784 -0.2498  0.1303
32724W        W75637  32.892  12.747   0.215 -0.2757 -0.0381 -0.0496
32725W        W75638   2.318  11.813  10.050  0.2728  0.1801 -0.1682
32726W        W75639  29.956   2.008   9.965 -0.5063 -0.0287 -0.5910
32727W        W75640  20.017   3.661   6.501 -0.0748  0.1077  0.2377
32728W        W75641  33.924  14.861  23.285  0.2937  0.0266  0.2580
32729W        W75642  25.667   7.840   1.211 -0.1176  0.2648  0.2183
32730W        W75643  29.348   4.317   2.764 -0.0082  0.1766 -0.0770
32731W        W75644  21.324  10.454   5.908 -0.0617 -0.2139 -0.1087
32732W        W75645  19.887  13.795  24.600  0.0435  0.0258  0.3183
32733W        W75646  19.235  14.179   5.160  0.2191  0.0122 -0.0346
32734W        W75647  23.924  12.134   8.757  0.0431 -0.0600  0.1606
32735W        W75648  26.592  12.380   6.359 -0.4433 -0.3277 -0.0945
32736W        W75649  26.117  16.780   8.656  0.3237  0.0534 -0.3608
32737W        W75650   2.831  12.666   2.740  0.3043  0.0395  0.2918
32738W        W75651  30.112  16.258   5.381 -0.3000  0.0569  0.1013
32739W        W75652  25.233  11.998   6.624 -0.0131  0.1133 -0.4014
32740W        W75653  22.868   4.397   1.396  0.0734  0.1354  0.2637
32741W        W75654   3.799   3.815  10.462  0.1966  0.0763 -0.1682
32742W        W75655  32.536   9.590   7.097  0.2401  0.0324 -0.1250
32743W        W75656  19.014   2.185  27.239  0.1338 -0.0328  0.0688
32744W        W75657   3.973  14.027   6.145 -0.0370 -0.2456  0.0811
32745W        W75658  31.806  34.213   8.495 -0.1642 -0.3567 -0.1558
32746W        W75659  29.700   7.302   8.071  0.0405 -0.2382 -0.4965
32747W        W75660  32.976   9.885   5.955 -0.2865 -0.3248 -0.0566
32748W        W75661  29.184  11.599   2.993 -0.1264  0.1901  0.1762
32749W        W75662  29.572  32.144  10.163  0.0287 -0.1406 -0.4106
32750W        W75663  30.614  13.007   9.252  0.0488 -0.0654  0.2332
32751W        W75664  25.543   1.735   7.424  0.1633  0.0677 -0.1745
32752W        W75665  28.603   7.027   7.360 -0.0036  0.0481  0.0285
32753W        W75666  26.728   6.216   6.557 -0.0738 -0.1380  0.0696
32754W        W75667  32.904  11.497   0.611  0.0856 -0.2078  0.1405
32755W        W75668  28.128  31.116   7.303 -0.1981 -0.1629  0.0146
32756W        W75669   0.147   9.726   5.509  0.0518 -0.5082 -0.0173
32757W        W75670  28.698  13.715   8.847  0.0823 -0.0976  0.0841
32758W        W75671  29.485   1.425   4.699  0.2242 -0.2544 -0.3014
32759W        W75672  18.375   2.410  23.926  0.0557 -0.3393  0.2574
32760W        W75673   5.509   6.327  11.678  0.2024 -0.1955 -0.1088
32761W        W75674  24.976   4.934   5.277  0.0468 -0.0930 -0.0606
32762W        W75675  33.305  13.562   6.538  0.2829 -0.0077  0.0644
32763W        W75676  22.452   8.577   6.949 -0.0689  0.0852  0.4177
32764W        W75677  20.827  10.051   7.918  0.1255 -0.1399  0.0527
32765W        W75678  25.789  23.497   4.381  0.0018 -0.1293 -0.0920
32766W        W75679  20.628  16.862   4.259 -0.1097  0.0687 -0.0432
32767W        W75680  15.268   6.413   6.826  0.2550  0.0643 -0.0122
32768W        W75681  29.360   9.952   9.245  0.2359 -0.4293  0.2869
32769W        W75682  27.473   8.982   8.688  0.0185 -0.1403  0.0313
32770W        W75683  29.838   2.357  27.812 -0.0490  0.3186  0.1925
32771W        W75684  30.158  13.465  28.738 -0.0057  0.2146 -0.0886
32772W        W75685  29.807  13.901  29.317  0.2353  0.0705 -0.0798
32773W        W75686  23.038  11.349   2.640 -0.1236  0.1262  0.1265
32774W        W75687  33.008   6.789  12.317  0.0338 -0.1455 -0.2402
32775W        W75688  28.892   3.348   9.926 -0.0975 -0.0734 -0.1084
32776W        W75689   2.274  14.350  28.647 -0.5968 -0.1448  0.2046
32777W        W75690  24.683   1.288   7.934 -0.5541  0.0629  0.2795
32778W        W75691  26.519   4.826   8.211 -0.0515  0.1341  0.1385
32779W        W75692  33.430   7.559   6.942  0.0688  0.0878 -0.0051
32780W        W75693  25.480  17.479  24.634  0.0824 -0.0544  0.4561
32781W        W75694  33.761   4.910  10.527  0.0234  0.0857 -0.1064
32782W        W75695   0.611  13.711   7.155 -0.3690  0.2528  0.3274
32783W        W75696  24.789  10.915   8.853 -0.2672  0.1027  0.1492
32784W        W75697   2.003  14.066   6.970  0.1505 -0.1854 -0.1052
32785W        W75698  26.490  13.774   1.020 -0.1194 -0.1780  0.2371
32786W        W75699  24.642   7.668   9.638  0.3215 -0.0252  0.0708
32787W        W75700  28.098  15.110  27.552  0.1600  0.2088  0.0803
32788W        W75701   6.517   9.683   9.352 -0.0369 -0.3479  0.2841
32789W        W75702  33.854   1.761   5.595  0.0494  0.0670 -0.1139
32790W        W75703  29.398  19.760  28.637  0.0821 -0.1980  0.1470
32791W        W75704  29.889  15.394   3.840  0.0764  0.0792 -0.0567
32792W        W75705   3.778   8.446   0.840 -0.0420 -0.2154  0.1399
32793W        W75706  24.138  11.169   5.421  0.0020  0.1826  0.1183
32794W        W75707   0.540  12.368  10.930  0.2290 -0.3621 -0.2443
32795W        W75708  32.101  33.328   8.431 -0.2115  0.0246 -0.1194
32796W        W75709  31.591   7.354   1.897  0.3584  0.0032  0.1010
32797W        W75710  16.566  27.510   5.268  0.3170 -0.3914 -0.1341
32798W        W75711  15.549  21.044  17.240  0.0582 -0.2016  0.0671
32799W        W75712   3.791   4.866   1.123  0.3039 -0.2561 -0.0402
32800W        W75713  32.358   4.446  11.372 -0.0841  0.2442 -0.1590
32801W        W75714   4.325   5.595   8.385 -0.1740 -0.1485  0.0658
32802W        W75715  26.529  17.694   3.267 -0.0994  0.1038 -0.2764
32803W        W75716  22.625  12.538   6.414  0.0499 -0.4545  0.1607
32804W        W75717  30.890   6.114  27.600 -0.1981 -0.1348  0.1010
32805W        W75718  29.282  16.325   6.836  0.0161  0.0392 -0.2716
32806W        W75719  19.991  13.524   1.662 -0.2613 -0.1758 -0.4678
32807W        W75720   7.573   9.894   7.863 -0.0721  0.3182  0.1867
32808W        W75721   0.854  13.195   9.208  0.1643  0.0295 -0.0948
32809W        W75722  33.537   6.352   9.692  0.0151  0.1190 -0.1860
32810W        W75723  25.919   5.276   8.682  0.2038  0.4458  0.1389
32811W        W75724  26.124   1.341   8.028  0.0433 -0.0892 -0.2619
32812W        W75725  25.436   4.425   8.006 -0.0059  0.1089 -0.0893
32813W        W75726  33.808  23.100   9.441  0.0477  0.4131  0.1128
32814W        W75727  34.264   8.422   9.077 -0.1193  0.1510  0.1948
32815W        W75728  31.525  10.426   4.055 -0.1131 -0.0530  0.0689
32816W        W75729  30.139  11.126   7.833 -0.0884  0.0711  0.1734
32817W        W75730   1.774   7.300  12.120  0.0603 -0.0600 -0.0391
32818W        W75731  24.123  13.899   5.856 -0.1698 -0.1640  0.4794
32819W        W75732  33.283   6.757   9.706  0.0885  0.1284 -0.0433
32820W        W75733  21.619  10.066   6.677 -0.2492  0.0085 -0.0976
32821W        W75734   2.840   7.684   0.396  0.1791  0.1643 -0.1350
32822W        W75735   3.849   2.670   3.655 -0.0740 -0.3204 -0.1012
32823W        W75736   1.904   8.811  11.112  0.0764  0.1561  0.2239
32824W        W75737  34.155  13.056   4.832 -0.0254  0.0108 -0.1861
32825W        W75738  34.132   2.397   9.570  0.1302 -0.5579  0.2760
32826W        W75739   5.350   8.324  10.839 -0.3322 -0.3287  0.0846
32827W        W75740   8.418  11.258   4.296  0.1112  0.1788  0.0697
32828W        W75741  26.039   7.531   6.428 -0.1099 -0.1259  0.0945
32829W        W75742   1.838  17.304   5.849 -0.0393  0.0569 -0.0894
32830W        W75743   2.316  32.534   7.434  0.2122  0.0144  0.1711
32831W        W75744  27.355  30.255   9.688  0.1327 -0.2101 -0.0260
32832W        W75745  33.845  22.238   8.965  0.1724  0.0283  0.4398
32833W        W75746  21.219   8.871   1.245 -0.0390  0.2587  0.0535
32834W        W75747  33.305   6.802  11.874  0.4588  0.2560 -0.0366
32835W        W75748  34.252   2.885   9.794  0.2886  0.3254 -0.1965
32836W        W75749  27.872  17.043   9.267  0.0545  0.1486  0.0920
32837W        W75750   5.178  12.373   2.129 -0.0573 -0.0543  0.0274
32838W        W75751  31.776   6.764  10.484 -0.2014 -0.1115  0.1538
32839W        W75752  29.717  18.831   4.708  0.0921  0.1787 -0.0305
32840W        W75753   5.134  11.661   3.751 -0.1239 -0.2746 -0.0748
32841W        W75754  30.692   0.162   7.807  0.2565  0.0658  0.1166
32842W        W75755  28.733   7.572   6.945 -0.1213  0.1181 -0.1997
32843W        W75756  27.923  12.191  28.116  0.2118  0.1977 -0.0365
32844W        W75757  29.041   7.295  11.066 -0.3348 -0.0383  0.0460
32845W        W75758  26.579  13.025   1.725  0.0625 -0.1055  0.2517
32846W        W75759  26.633  32.717   9.386 -0.4608  0.0294  0.2185
32847W        W75760  31.657  20.452   4.414 -0.0035  0.0066 -0.6999
32848W        W75761  30.483  18.494   9.069 -0.0025 -0.0172 -0.2282
32849W        W75762  23.723   3.988   2.969  0.0335  0.0400 -0.3145
32850W        W75763  32.276  18.642   0.683 -0.1738  0.0826 -0.0044
32851W        W75764  32.772   1.704   8.041 -0.0795 -0.1231 -0.1760
32852W        W75765  34.214  15.826   7.585 -0.2192 -0.6691 -0.0822
32853W        W75766  26.388  12.072   7.976  0.1894  0.0614  0.0667
32854W        W75767  29.307   7.857  10.569  0.1673 -0.1620 -0.0234
32855W        W75768   5.258  10.537   7.554 -0.0160 -0.0888 -0.2282
32856W        W75769  20.979  13.695  29.227 -0.0193  0.0086  0.0443
32857W        W75770  23.890   9.811   8.382  0.0136  0.1814 -0.1407
32858W        W75771  15.277  31.172  10.373  0.3365  0.0662 -0.1560
32859W        W75772   0.887   5.846  13.048  0.0686  0.1934 -0.0082
32860W        W75773  25.450   3.599   7.259  0.2912  0.0320  0.1414
32861W        W75774  27.555   3.038  10.379  0.1060 -0.1042  0.0805
32862W        W75775  30.157   1.924  10.706  0.1953  0.2566 -0.2382
32863W        W75776  32.259   7.492   4.177 -0.0575 -0.3911  0.2781
32864W        W75777  34.326  13.462   8.022  0.2864  0.3002 -0.1251
32865W        W75778  24.194   9.050   7.164  0.0698  0.0568  0.0637
32866W        W75779   1.067   3.331   0.534 -0.0357 -0.0181  0.1239
32867W        W75780  28.131   4.798  26.973  0.0653  0.0048  0.3223
32868W        W75781  24.869  12.394   6.631 -0.1782 -0.0424 -0.0393
32869W        W75782  32.292   3.200   6.748  0.0205  0.0003  0.0783
32870W        W75783   0.668   9.288   2.676  0.6402 -0.1136 -0.0114
32871W        W75784   0.740  16.180   8.430  0.0290  0.1827 -0.0138
32872W        W75785  17.922   7.784   2.240 -0.2126  0.0519 -0.1314
32873W        W75786  23.577  26.370   3.016  0.4460 -0.0402 -0.5684
32874W        W75787  25.559  16.880   3.424 -0.1522  0.0879 -0.0081
32875W        W75788   7.231   9.852   3.441  0.1268  0.1146 -0.0346
32876W        W75789  27.330  16.707  24.645 -0.0976 -0.0913 -0.0362
32877W        W75790  25.426   8.245   9.492  0.1256 -0.0509  0.0253
32878W        W75791  27.795   6.308   9.573 -0.1919 -0.0974 -0.1616
32879W        W75792  23.407   7.197   4.147  0.0715 -0.0211 -0.1029
32880W        W75793  30.224   2.364  29.273 -0.0122 -0.2308  0.0662
32881W        W75794   7.920   2.100   3.578 -0.0652  0.0217  0.0484
32882W        W75795  25.125  13.478   0.453  0.3894  0.0686 -0.0266
32883W        W75796   8.381  22.913  25.564 -0.2365  0.0505  0.0355
32884W        W75797  27.243   3.903   7.295  0.1538 -0.1963 -0.0234
32885W        W75798  19.485   2.223  10.766  0.4513  0.1556 -0.0021
32886W        W75799   1.016   8.496   8.349 -0.1113  0.3848 -0.5083
32887W        W75800  31.193   7.980  10.485  0.2263  0.3748  0.1963
32888W        W75801  31.981   5.505   8.513 -0.0482 -0.0610 -0.1118
32889W        W75802  33.600  19.541   5.735 -0.0043 -0.3383 -0.0260
32890W        W75803  19.428  31.761  29.425  0.1361  0.0760 -0.0095
32891W        W75804  27.009   7.030   0.849 -0.1072  0.2839 -0.1854
32892W        W75805  29.712  32.402   2.762 -0.2030  0.0954 -0.0571
32893W        W75806  29.468   1.938   4.732  0.1571  0.2655  0.2067
32894W        W75807  31.027   2.273   8.799  0.1564  0.1967 -0.3384
32895W        W75808  25.921   2.253   6.878 -0.2394  0.4300 -0.0335
32896W        W75809  28.982  10.352   1.284 -0.0436  0.0665 -0.2580
32897W        W75810   1.275  13.969   8.146  0.0652  0.0007 -0.2405
32898W        W75811  30.270   9.732   7.791  0.1130 -0.1169  0.1264
32899W        W75812  22.815   9.879   6.810 -0.2552  0.0246  0.3122
32900W        W75813  21.287  32.873   9.952  0.1357  0.2286 -0.0440
32901W        W75814   2.573   9.687   9.852 -0.1142  0.2428  0.3079
32902W        W75815   3.152   6.613  10.397 -0.1738 -0.1467  0.2365
32903W        W75816  27.535   5.404   9.040 -0.1065 -0.1612 -0.0238
32904W        W75817  31.133   6.350  10.184  0.0971 -0.0321 -0.0240
32905W        W75818  19.896  32.881   2.539  0.0896  0.0850 -0.1970
32906W        W75819  30.550   0.973   5.187  0.1449 -0.0936  0.3145
32907W        W75820  26.827  11.869  27.550 -0.0162 -0.0484  0.2062
32908W        W75821  22.722  12.239   7.386  0.0907  0.2866 -0.1756
32909W        W75822  29.986   6.571  11.573 -0.3575 -0.3336  0.2180
32910W        W75823   0.106   9.457   8.524 -0.2427 -0.0095 -0.1843
32911W        W75824  30.665  11.025   8.856 -0.0993  0.1522 -0.1807
32912W        W75825  25.362   4.705   2.383  0.0992  0.1493 -0.5098
32913W        W75826  23.951  15.849  27.962 -0.1246 -0.4917  0.1770
32914W        W75827   5.857  14.232   3.664 -0.2941  0.2055 -0.0613
32915W        W75828  25.170  10.699   8.658 -0.0974  0.0390 -0.0284
32916W        W75829  19.476  15.599   2.607 -0.0416  0.1413 -0.0778
32917W        W75830   4.049   9.192  27.990  0.0236  0.1582  0.0711
32918W        W75831  31.802   0.752  11.293  0.1058 -0.3041 -0.1640
32919W        W75832   2.549   3.183   5.960 -0.0931 -0.2358 -0.0691
32920W        W75833  30.576  12.060   6.163 -0.2182 -0.2006  0.2838
32921W        W75834  25.151   6.608   2.233 -0.3150  0.2423  0.2113
32922W        W75835  19.780   6.633   8.629  0.4323 -0.0757  0.0263
32923W        W75836  33.642  28.972   9.297 -0.0221  0.0549  0.3284
32924W        W75837  29.352  15.726  29.229  0.1949 -0.0784 -0.1615
32925W        W75838   3.803   5.547   7.418  0.1960  0.0940 -0.0287
32926W        W75839  23.509   2.858  10.515 -0.3449 -0.2785  0.1536
32927W        W75840  19.437  29.858   7.411 -0.1695  0.0621 -0.1867
32928W        W75841   2.561  13.822   7.641  0.1684 -0.2481  0.1128
32929W        W75842  33.370  15.068   0.748 -0.0688  0.2417  0.0547
32930W        W75843  29.364   2.207   6.938 -0.1839  0.0778 -0.1920
32931W        W75844  23.186   4.944   7.976  0.3121  0.0605  0.0592
32932W        W75845   1.429   7.000   8.369 -0.0178 -0.0156  0.2973
32933W        W75846  33.406  23.196   5.745  0.1443  0.0158  0.1222
32934W        W75847  34.119  10.505   7.021 -0.0080 -0.0194 -0.1665
32935W        W75848   2.806  13.876   6.029 -0.0315 -0.1466  0.2564
32936W        W75849  27.354  12.193   5.545  0.3783 -0.0148 -0.0818
32937W        W75850   5.071   6.158   6.552 -0.2136  0.0291 -0.1434
32938W        W75851  18.039  10.694   3.078 -0.0713  0.0281 -0.0348
32939W        W75852  25.937  10.770   7.562  0.0583  0.0466 -0.0536
32940W        W75853   2.843   5.318   6.892  0.0717 -0.3412 -0.4908
32941W        W75854  31.967   6.687   9.528  0.2185 -0.0648  0.0548
32942W        W75855  26.812  31.171   7.989  0.0526  0.3506  0.0155
32943W        W75856  18.526  13.010  27.661  0.2466 -0.0912  0.1528
32944W        W75857  29.099   7.285   0.734 -0.1072 -0.2590 -0.1574
32945W        W75858  14.084  17.825  28.425 -0.0265 -0.0776  0.3500
32946W        W75859  33.433  14.320   4.599  0.2082  0.0224  0.0349
32947W        W75860  20.854  12.242  25.393 -0.0055  0.1017 -0.0035
32948W        W75861   0.876  16.901   9.549  0.0456  0.0353 -0.0972
32949W        W75862  29.736  13.886   7.759 -0.0075 -0.0314 -0.0226
32950W        W75863  27.750  15.318   5.910  0.0322  0.1614 -0.1566
32951W        W75864  15.581  22.511   8.894  0.1053  0.3315 -0.0009
32952W        W75865  25.198   9.259   9.282 -0.0006  0.0877  0.0354
32953W        W75866   0.265   3.614   3.559  0.2462  0.1093  0.0675
32954W        W75867  19.671  13.534   8.270 -0.4274 -0.2107  0.3650
32955W        W75868   4.952  13.445   9.258  0.0735  0.0279  0.0139
32956W        W75869  33.754  16.831   1.009 -0.0090  0.1543 -0.0695
32957W        W75870  33.517   4.245  10.909 -0.1752 -0.1663 -0.3034
32958W        W75871  28.461   6.170  10.269  0.1704 -0.1165 -0.2085
32959W        W75872  33.276   7.501  11.228 -0.0020  0.2114  0.1888
32960W        W75873  28.491   2.989  10.014  0.1366  0.1780  0.4084
32961W        W75874  25.470  33.029   9.749  0.1709  0.2472 -0.2624
32962W        W75875  32.257  10.617   9.901  0.0345  0.0600  0.0606
32963W        W75876  21.315  16.579  28.736 -0.1799  0.0087  0.1427
32964W        W75877   1.912   8.899   2.526  0.0528 -0.2967 -0.3304
32965W        W75878  31.358  14.407   9.725  0.0955 -0.1766  0.1576
32966W        W75879  31.278   3.636   7.787  0.0722  0.0334  0.0050
32967W        W75880  19.649  13.789   5.580 -0.1750  0.4170 -0.0489
32968W        W75881  23.557  17.566   2.055 -0.1116 -0.1947  0.0559
32969W        W75882  33.964   2.214   5.373  0.0702  0.5274  0.1346
32970W        W75883  29.579  11.091   5.432 -0.1718  0.2761 -0.2417
32971W        W75884  27.037   5.658  10.199 -0.1387 -0.3585 -0.1478
32972W        W75885   2.481  17.612   4.802 -0.0534 -0.0444  0.0781
32973W        W75886  27.664  11.065   2.730  0.1451  0.2297  0.0937
32974W        W75887  20.436  15.100   3.435  0.1964  0.2875 -0.3259
32975W        W75888  30.508  31.638   8.493 -0.1086 -0.0265  0.0112
32976W        W75889  18.545   6.841   9.198 -0.1772  0.0247 -0.0947
32977W        W75890  27.779   8.134   9.843 -0.1095  0.0075  0.3646
32978W        W75891  25.475  12.582   3.152  0.0129  0.1433 -0.1234
32979W        W75892  32.278   6.680   0.936  0.0065 -0.1381  0.1312
32980W        W75893  34.163  13.604   5.492  0.0441 -0.2096 -0.0724
32981W        W75894  34.062  10.135   2.930 -0.0875 -0.1485 -0.4506
32982W        W75895  25.317  12.751   8.567  0.0518  0.1376 -0.1537
32983W        W75896   0.760  11.043   5.672  0.2686  0.1376  0.2133
32984W        W75897   8.528  13.174  10.657  0.1045 -0.1235  0.2585
32985W        W75898  29.653  14.603   9.026  0.1206  0.1159  0.2169
32986W        W75899  28.505  11.457   6.918 -0.0685  0.0579 -0.0853
32987W        W75900  32.936   9.221  10.130 -0.0282 -0.3494 -0.1277
32988W        W75901  30.666  14.501   8.022  0.1979 -0.0835 -0.3118
32989W        W75902  32.553  34.076   8.733  0.0435  0.1265  0.0571
32990W        W75903  28.709  32.980  10.214 -0.0098  0.1558  0.0730
32991W        W75904  18.023   6.451   7.064 -0.2270 -0.3575  0.0435
32992W        W75905   9.769   6.606  12.217  0.2283  0.1045  0.6594
32993W        W75906   6.087   7.098   6.694 -0.0360 -0.2582 -0.0581
32994W        W75907  15.579   3.229   8.000 -0.1493 -0.0894  0.2587
32995W        W75908  19.048   9.896   0.267  0.0559  0.0259  0.1139
32996W        W75909  21.316   1.512   6.642  0.0863 -0.0453  0.0988
32997W        W75910  26.378   9.719   9.186  0.3934  0.4224  0.2275
32998W        W75911   6.313   8.250   9.420 -0.0655  0.0966 -0.3143
32999W        W75912  24.205   3.743   0.702  0.0075  0.1746 -0.0976
33000W        W75913  24.438   2.248   2.402 -0.3592 -0.1744  0.2212
33001W        W75914  22.042   3.736   2.197  0.0364 -0.1426  0.1076
33002W        W75915  27.500   7.389   0.212 -0.1630 -0.1131  0.0711
33003W        W75916  26.806  15.929   0.966  0.0716 -0.0879  0.2271
33004W        W75917  32.720  15.288   1.875 -0.2890  0.4021 -0.1184
33005W        W75918   2.068   3.021   5.119 -0.0010  0.2866  0.0111
33006W        W75919  25.742  12.827   5.717  0.1005  0.1402  0.2900
33007W        W75920  33.206  22.767   1.807 -0.0996  0.0152  0.2341
33008W        W75921   0.152   3.668   6.476 -0.1973 -0.1167 -0.0748
33009W        W75922  32.534  25.433   3.234  0.2120  0.1385  0.0672
33010W        W75923  19.778   6.280   3.263  0.1186 -0.0055  0.2929
33011W        W75924  29.365   5.778   1.625 -0.1100  0.0189  0.0048
33012W        W75925   0.297  31.931   8.286 -0.1432  0.1451  0.2166
33013W        W75926  13.606   2.291  10.084  0.1634 -0.0031 -0.1116
33014W        W75927  24.184   2.921   8.125 -0.1574  0.1449  0.3078
33015W        W75928  24.107  11.529   3.636 -0.2672  0.0116 -0.0080
33016W        W75929  26.926  14.233   4.250  0.1564  0.0720 -0.0383
33017W        W75930  22.495  14.162   8.526  0.0781 -0.2194  0.1169
33018W        W75931  25.882  15.499   6.749  0.0134 -0.0144 -0.0361
33019W        W75932  24.527  13.232   8.211  0.1159 -0.0905 -0.0239
33020W        W75933  23.328   9.795   4.660  0.2624 -0.1059 -0.0888
33021W        W75934  26.104  20.744   7.433  0.0388  0.3674 -0.0445
33022W        W75935  25.017  16.525   7.827  0.2225  0.1589  0.3637
33023W        W75936  31.631   6.607  11.256 -0.0212 -0.2037  0.2944
33024W        W75937  27.109   6.871   8.063 -0.0170  0.2006  0.6130
33025W        W75938  26.103  16.757   8.164 -0.1312  0.2438  0.1755
33026W        W75939   0.887   4.849  11.333 -0.1885  0.2100  0.3410
33027W        W75940   3.700   4.898   8.246 -0.0337  0.0309 -0.0124
33028W        W75941  19.628  11.892  21.629 -0.0667 -0.1494  0.0768
33029W        W75942  32.547  12.470   7.928  0.2022  0.1889 -0.3214
33030W        W75943  26.020  11.045   7.160 -0.3689  0.3012  0.2873
33031W        W75944   1.679   8.634  11.684 -0.1802  0.3151  0.1207
33032W        W75945  24.446  13.654   4.655  0.0972 -0.1835 -0.1856
33033W        W75946   0.867   0.730  11.412  0.2066  0.1233 -0.1157
33034W        W75947  28.501   3.900  29.454  0.1094  0.0585 -0.0562
33035W        W75948  12.712  10.899  26.810 -0.0043 -0.0351  0.2367
33036W        W75949  27.021  23.445   6.816 -0.1289  0.0687  0.3306
33037W        W75950  29.409  16.830   2.320  0.2835  0.0183  0.3968
33038W        W75951  32.864  13.124   7.454  0.2534  0.2101 -0.3707
33039W        W75952  29.920   9.399  23.134 -0.0263 -0.1198 -0.1770
33040W        W75953  29.429  12.785   8.404  0.0203  0.2298 -0.0676
33041W        W75954  20.266   9.983  25.832 -0.0077  0.2394 -0.1081
33042W        W75955  32.937   9.648   9.891 -0.0684  0.0738  0.0448
33043W        W75956   0.460  21.353   8.707 -0.2339 -0.1325  0.1480
33044W        W75957  12.801  11.333   2.031 -0.2674 -0.1612  0.2709
33045W        W75958   0.241   4.060  11.250 -0.0473  0.1051 -0.2362
33046W        W75959  18.574  14.709  27.917  0.1112  0.3144  0.1516
33047W        W75960  18.734   9.402   3.853 -0.2574 -0.4912 -0.2785
33048W        W75961  30.531   8.843   6.466 -0.0199 -0.2440 -0.0236
33049W        W75962  30.536  19.812   1.689  0.0399  0.3268  0.0926
33050W        W75963  18.635   0.428  29.309  0.0112 -0.2412 -0.0126
33051W        W75964  24.680  22.765  19.903 -0.2368  0.1364 -0.1149
33052W        W75965  24.506  15.064   5.364  0.0637 -0.1739  0.2304
33053W        W75966  14.702  19.559  27.317 -0.0195 -0.3045 -0.2406
33054W        W75967  17.108  18.349   8.837  0.2450 -0.0290 -0.3730
33055W        W75968  31.490  14.416  25.771  0.2146  0.0053 -0.1314
33056W        W75969  32.690  18.178   9.510  0.2038  0.1399 -0.1600
33057W        W75970  26.911  11.894  26.494 -0.1597  0.0421  0.3834
33058W        W75971  17.497   7.265   1.995 -0.1256  0.1625 -0.1325
33059W        W75972  33.853  12.646   3.276  0.0738 -0.3108  0.0741
33060W        W75973  32.876   3.448  23.755  0.1591 -0.0899 -0.0526
33061W        W75974  18.988  12.528   2.749 -0.1849 -0.2161 -0.0243
33062W        W75975  25.971   9.583  28.353  0.2082 -0.1526  0.1307
33063W        W75976  30.643  19.307   6.806 -0.4039 -0.2597 -0.0693
33064W        W75977  28.700  10.287  23.872 -0.1579  0.2437 -0.0672
33065W        W75978   4.084   5.509   2.498  0.1840  0.0000 -0.2557
33066W        W75979  29.413   1.415  27.855  0.0185  0.1835  0.0152
33067W        W75980  18.388  16.658   0.167 -0.1118  0.1098  0.3649
33068W        W75981  30.328  15.503   5.891 -0.1113  0.2474  0.1277
33069W        W75982  10.939   8.466  29.541 -0.3879 -0.0053 -0.1510
33070W        W75983   9.961   1.099   2.517  0.1990  0.0640 -0.1699
33071W        W75984  28.900  10.576   6.478 -0.0701  0.0037 -0.0924
33072W        W75985  30.214  25.021  26.490  0.0368  0.1143  0.1473
33073W        W75986  32.950  25.734  28.303  0.0219  0.1786  0.0925
33074W        W75987  21.827  19.790   1.416  0.1402  0.2512  0.4114
33075W        W75988  33.029  14.241   8.969 -0.1399  0.0371  0.1145
33076W        W75989  21.116   1.546   0.953 -0.0297 -0.1226 -0.2781
33077W        W75990  25.531  27.095  28.741 -0.1018  0.2545  0.0900
33078W        W75991  27.227  12.333   7.781 -0.1146  0.0140 -0.1128
33079W        W75992  27.243  19.988   3.082 -0.0865 -0.1899 -0.3014
33080W        W75993  26.914  22.818   0.853  0.3070 -0.1617  0.0383
33081W        W75994  28.296  16.604   5.605  0.0748 -0.1708 -0.0555
33082W        W75995  26.941   5.253   8.295 -0.0213  0.1506 -0.1953
33083W        W75996  19.394  15.218  23.963 -0.0504  0.0568 -0.2132
33084W        W75997  33.966  17.689   4.103  0.0255 -0.1608  0.0163
33085W        W75998  25.414  17.015  21.329 -0.0386  0.2536 -0.0893
33086W        W75999  15.740   9.484   1.273  0.0851 -0.0509 -0.1926
33087W        W76000  15.357   7.892   1.698 -0.0298 -0.0393  0.0908
33088W        W76001  20.522   8.122  27.323  0.1764  0.3442  0.0793
33089W        W76002  22.014  15.249  14.354 -0.1515  0.1993 -0.0859
33090W        W76003  34.454  20.919   5.208  0.1308  0.0958 -0.0419
33091W        W76004  18.877  12.251  29.129  0.3321  0.1969  0.0596
33092W        W76005  31.585   9.816  27.206  0.1608  0.2009 -0.4675
33093W        W76006  25.586  11.447   5.509 -0.0982 -0.2167 -0.1489
33094W        W76007  23.561  11.877   4.503 -0.1162 -0.1683  0.2268
33095W        W76008  26.121  16.782  13.587  0.0496 -0.1116 -0.4447
33096W        W76009  31.718  13.933   8.625  0.0781  0.1085  0.2515
33097W        W76010  21.962  14.824   7.405  0.3362  0.3270  0.1648
33098W        W76011  27.956  20.793  22.168  0.3347  0.0482  0.0448
33099W        W76012  32.784  16.694  26.560 -0.1970 -0.3925  0.3017
33100W        W76013  22.051  16.476   1.100  0.2380 -0.0483  0.1675
33101W        W76014  18.962   7.756   6.531  0.0938  0.1602 -0.3081
33102W        W76015  31.344   7.647  21.885 -0.1669 -0.0256 -0.0872
33103W        W76016  18.740  12.587  28.282 -0.2755  0.1139 -0.0763
33104W        W76017  17.250  20.636   7.421  0.0382  0.2028 -0.0777
33105W        W76018  33.375  15.065  26.338 -0.0235  0.2829  0.2097
33106W        W76019  33.001   7.261   0.968  0.1420  0.0874 -0.0142
33107W        W76020  28.619  12.443  16.765  0.0888  0.1282 -0.0032
33108W        W76021  20.985  13.503   1.680  0.3173  0.0688  0.1588
33109W        W76022  32.692  24.008   9.431  0.1604  0.0968  0.1243
33110W        W76023  21.668  14.656  28.840  0.1630 -0.1881 -0.2253
33111W        W76024   7.744  17.070   7.066 -0.1838  0.0565 -0.2706
33112W        W76025  32.668   9.503   8.545 -0.1082  0.0845 -0.0762
33113W        W76026   3.191  20.840   0.196 -0.2760  0.2644 -0.2260
33114W        W76027  26.295   9.904  27.566 -0.1047  0.1063  0.1989
33115W        W76028  18.322   8.592  25.383  0.0323 -0.3396 -0.1003
33116W        W76029  19.082  12.893   7.819 -0.0793 -0.1377  0.0873
33117W        W76030  22.075  12.860   7.774 -0.2709  0.2643 -0.0433
33118W        W76031  23.438  18.654   2.912  0.4075  0.1858 -0.1853
33119W        W76032  17.423   8.967   7.315  0.3463  0.0521 -0.1327
33120W        W76033  30.620  12.444  23.596 -0.6766 -0.1901  0.3271
33121W        W76034  14.993  13.523  18.828  0.3117  0.1177  0.3897
33122W        W76035  26.966  11.167   1.851  0.1311 -0.1308 -0.1825
33123W        W76036   1.911   3.832   7.514 -0.2718 -0.0828  0.1341
33124W        W76037  32.120   9.562   8.478  0.1044  0.0518  0.0801
33125W        W76038  21.777  10.435   1.111 -0.0113  0.3580  0.0547
33126W        W76039  24.787  15.445   0.880 -0.0663 -0.0834  0.2029
33127W        W76040  21.734  18.744  27.132 -0.3363  0.0182 -0.2245
33128W        W76041  20.319  17.977  26.412 -0.1259 -0.0566  0.0075
33129W        W76042  25.445   3.153   6.999  0.2078 -0.3158  0.3374
33130W        W76043  30.485   4.467   1.388  0.1533 -0.0475  0.1129
33131W        W76044  33.692  20.312   3.518  0.0563  0.3904 -0.1854
33132W        W76045  20.601  20.105  29.705  0.0755 -0.0490 -0.3114
33133W        W76046  27.571  13.006   8.583 -0.1242 -0.0543 -0.0275
33134W        W76047  23.236  20.614  22.340  0.0898 -0.0968  0.1327
33135W        W76048  23.667  12.767   4.133  0.4580 -0.0320  0.2620
33136W        W76049  27.472   7.781  28.724  0.0722 -0.4738  0.4690
33137W        W76050  25.945  15.571  26.165  0.1584 -0.0365  0.1981
33138W        W76051  26.905  23.371  25.323 -0.1632  0.1411 -0.2364
33139W        W76052  21.949  11.486  27.964  0.0140  0.0301 -0.2400
33140W        W76053  23.338   6.222   3.107  0.1340  0.1848 -0.0379
33141W        W76054  32.157  11.262   8.110  0.1681  0.0517  0.0636
33142W        W76055  23.132  16.972  29.053  0.1208 -0.3801 -0.2072
33143W        W76056   2.913   7.535  10.842  0.1398 -0.1125 -0.2006
33144W        W76057  25.491   3.100  25.398  0.1929  0.0028  0.4868
33145W        W76058  24.347  18.217   4.684  0.4417  0.0117 -0.0954
33146W        W76059  19.610  24.670   8.726  0.0673  0.1099  0.1547
33147W        W76060  22.772  16.869   6.667  0.0780  0.0381  0.1311
33148W        W76061   1.022  24.198   2.806  0.2459  0.1708 -0.3899
33149W        W76062  15.056  17.837   5.618  0.3006  0.1312 -0.0484
33150W        W76063  28.705  11.363   2.748  0.2540 -0.2410  0.0808
33151W        W76064  24.163  22.675  26.783 -0.1806  0.2056 -0.0011
33152W        W76065  26.076   6.240   8.883 -0.1738 -0.1831  0.1745
33153W        W76066  25.392  16.318   4.230  0.3184  0.0840  0.0566
33154W        W76067   1.434  13.814  28.537 -0.0095  0.1594 -0.1445
33155W        W76068  22.468  17.741  28.892  0.1326 -0.0177  0.3398
33156W        W76069  33.510  13.179  27.114 -0.0092 -0.2324  0.0808
33157W        W76070   3.172  21.100   3.023  0.0227  0.0843 -0.0094
33158W        W76071  23.406   0.095  26.337  0.1957  0.2253  0.1440
33159W        W76072  24.636  10.167   2.634 -0.0412 -0.2435 -0.0052
33160W        W76073  22.732   8.636  28.989  0.1110 -0.3032  0.1763
33161W        W76074   4.319  11.849   0.582 -0.0542 -0.0080  0.0275
33162W        W76075  24.078   8.715  29.497  0.0821 -0.3399 -0.3420
33163W        W76076  23.392   7.320  25.369  0.2385  0.2386  0.1285
33164W        W76077  30.913  14.956  24.177  0.0100  0.0439  0.0153
33165W        W76078  13.025  12.760  25.092  0.0348  0.2708  0.1521
33166W        W76079  19.766   9.783   6.397 -0.1406 -0.0426 -0.1046
33167W        W76080  13.859   8.194  27.206  0.3654 -0.2537 -0.3654
33168W        W76081  19.983   2.588  28.114  0.0672 -0.0716 -0.2175
33169W        W76082  12.045  19.351   2.144  0.2115 -0.1161 -0.0439
33170W        W76083  19.562  11.709  24.624 -0.0983  0.1494 -0.0055
33171W        W76084   1.830  17.024  21.029  0.0846  0.2279 -0.2644
33172W        W76085  26.817  22.503  24.167  0.0419  0.0297 -0.0858
33173W        W76086  31.993  14.925   3.863 -0.0336 -0.1773 -0.0687
33174W        W76087  22.965   8.751   7.933  0.1022  0.0233  0.0158
33175W        W76088  17.166  25.139  24.189  0.1519 -0.0156  0.2389
33176W        W76089  26.678  23.521  27.059 -0.0107  0.0013 -0.0985
33177W        W76090  31.106   7.338   6.391 -0.1596 -0.0991 -0.2651
33178W        W76091  22.389  16.991  17.270 -0.1181 -0.3004  0.0707
33179W        W76092  22.967   7.333   5.423 -0.2890  0.4466 -0.2389
33180W        W76093  22.332  15.843   3.592  0.2912  0.1669 -0.2213
33181W        W76094  27.804   3.048   1.873  0.0024 -0.1229  0.1124
33182W        W76095  33.061  14.698   5.960 -0.0917  0.3679  0.0754
33183W        W76096  20.298  17.055   0.757 -0.0675 -0.0751 -0.1860
33184W        W76097  15.403   1.493  27.488  0.0608  0.3145 -0.0139
33185W        W76098  28.745  12.896   9.132  0.0078 -0.5029  0.1265
33186W        W76099  22.537  18.450  18.628 -0.2163  0.2343 -0.0384
33187W        W76100  26.210  14.044   5.608 -0.3701 -0.3304  0.1597
33188W        W76101  31.740   3.305  24.657 -0.0680  0.2571 -0.0293
33189W        W76102  23.160   8.204  27.962 -0.3981  0.0218  0.0441
33190W        W76103  26.788  18.716   5.752 -0.0053 -0.0672  0.0405
33191W        W76104  29.877  18.725   3.849 -0.1011  0.3177 -0.1938
33192W        W76105  20.036   4.190  29.426  0.0450 -0.2586 -0.0006
33193W        W76106  24.137  18.845  29.404 -0.4087  0.0661 -0.0493
33194W        W76107  26.090   8.423  20.287 -0.2148 -0.2505  0.2066
33195W        W76108  27.405   7.759   3.524 -0.3373 -0.2531 -0.1661
33196W        W76109  29.045  14.609   0.381 -0.4815  0.3858  0.3534
33197W        W76110  10.693  30.822   5.216 -0.1576  0.4113 -0.0573
33198W        W76111  20.276  14.997  22.084  0.2721 -0.1899 -0.3074
33199W        W76112  25.339  12.947   2.809  0.2286 -0.1270  0.2207
33200W        W76113  32.053  17.950   3.307  0.0773  0.1865  0.5180
33201W        W76114  27.629   9.998   2.930  0.0110  0.1243 -0.3095
33202W        W76115  15.363  33.213  16.592  0.0180  0.3225  0.0182
33203W        W76116  22.639  15.172   3.058 -0.0298  0.0449 -0.3933
33204W        W76117  14.527  21.655  27.072  0.2546 -0.1708  0.1674
33205W        W76118  22.933   8.443   0.734 -0.0380  0.0992  0.1435
33206W        W76119  30.601   9.794  27.141  0.2920 -0.0186 -0.0646
33207W        W76120  28.139   9.317   9.687  0.0338 -0.1210  0.2507
33208W        W76121  28.222  22.503  23.225 -0.0401  0.0683  0.2709
33209W        W76122  25.851  17.082   6.499 -0.0192  0.0730 -0.0870
33210W        W76123  25.843   6.128  29.001 -0.0216 -0.0803 -0.0539
33211W        W76124  18.890  10.504   2.810  0.4371  0.0654  0.0076
33212W        W76125  30.096  15.877  21.357 -0.0894  0.2662 -0.1835
33213W        W76126  10.121   3.766  27.674 -0.0545 -0.1970  0.2972
33214W        W76127  24.268  14.420  23.212  0.0763  0.3337  0.3393
33215W        W76128   0.462  14.287   7.078 -0.0251 -0.1864 -0.2377
33216W        W76129  28.571   8.959  23.926  0.0638 -0.1298  0.1951
33217W        W76130  27.385  16.212   1.117  0.3527 -0.3280 -0.3034
33218W        W76131  25.791  33.404  26.323 -0.0590 -0.0885 -0.0980
33219W        W76132  28.281   1.797   9.693  0.1479 -0.1615  0.0324
33220W        W76133  24.576  20.026  25.023  0.2993  0.2239  0.1428
33221W        W76134  20.965  17.553   1.296  0.1042  0.0988 -0.2959
33222W        W76135  32.816   6.037  27.758 -0.2589  0.5835 -0.2105
33223W        W76136  31.318  16.527  27.125  0.3433  0.1443  0.2173
33224W        W76137  23.305  17.185   7.671 -0.0964 -0.2783  0.1126
33225W        W76138  27.117  11.392  18.659  0.0575  0.1528  0.3211
33226W        W76139  27.591  21.293   6.626 -0.1024 -0.0768 -0.4858
33227W        W76140  20.482  12.961  27.323  0.0031 -0.2619  0.2052
33228W        W76141  20.709   7.415  26.445 -0.1268  0.0810  0.2492
33229W        W76142  24.380   7.191   1.533  0.1650 -0.3738 -0.0889
33230W        W76143  27.578   5.286  25.540  0.0068 -0.1191 -0.2070
33231W        W76144  12.243  20.215   5.714  0.2306 -0.2382 -0.4144
33232W        W76145  31.301  18.727   0.721  0.0233  0.3691 -0.0531
33233W        W76146  28.494  11.802  29.630  0.0268 -0.0709 -0.2707
33234W        W76147  30.088   9.220   1.137 -0.1840  0.1178  0.1348
33235W        W76148  24.674  12.019   4.291 -0.3331  0.2906 -0.1205
33236W        W76149  10.366  16.796   1.426 -0.0698  0.2319 -0.3785
33237W        W76150  22.416  14.994   8.144  0.2320 -0.0475 -0.0016
33238W        W76151  23.840   6.563  21.089 -0.2417  0.0821  0.1198
33239W        W76152  27.594  17.120   2.648 -0.0976  0.3423 -0.1366
33240W        W76153  20.173   5.156   4.936  0.0679 -0.0041 -0.0796
33241W        W76154  20.448  16.578  23.245  0.2946 -0.1332 -0.2112
33242W        W76155  21.275  10.010   9.027  0.0168  0.2458 -0.2365
33243W        W76156  17.637  14.311   5.627  0.0962  0.1495  0.0668
33244W        W76157  28.236  19.426   2.629 -0.1664 -0.0628  0.2005
33245W        W76158  21.860  19.667   6.112 -0.3144  0.1654 -0.1490
33246W        W76159   4.514  17.058   9.993  0.1777  0.2826 -0.1505
33247W        W76160  18.147  11.872  26.046 -0.2370  0.0417  0.2552
33248W        W76161   5.475  12.002   5.895  0.2514  0.0865 -0.2343
33249W        W76162  16.113  14.973   4.771  0.0439 -0.1353 -0.1929
33250W        W76163   2.594  21.380   1.247 -0.2421  0.1009 -0.2006
33251W        W76164  30.690  16.700  25.419  0.0606  0.1280 -0.0247
33252W        W76165  25.577   8.601   3.430 -0.2916  0.2032  0.2981
33253W        W76166  14.243   3.359  16.798 -0.1212 -0.0639 -0.0050
33254W        W76167  33.133  24.224  26.222 -0.1515  0.2261  0.0990
33255W        W76168  30.850  13.809   4.648  0.0991  0.1998 -0.1728
33256W        W76169  31.793  10.899   7.393  0.1732 -0.0087  0.0822
33257W        W76170  21.127   1.873  22.693 -0.3293  0.1366  0.0604
33258W        W76171  25.153   5.653   2.522 -0.0713 -0.0133  0.1626
33259W        W76172  14.440  15.733  27.191 -0.1308 -0.1340  0.1248
33260W        W76173  25.894   4.737  28.028 -0.0714 -0.0920 -0.1862
33261W        W76174  21.494  10.067  28.951  0.0959 -0.0192 -0.0560
33262W        W76175  26.844  15.816   1.520 -0.1538  0.1108  0.1570
33263W        W76176   5.073   5.204   1.475 -0.3345 -0.2075 -0.1186
33264W        W76177  26.215  25.817   1.671 -0.1543 -0.0591  0.1080
33265W        W76178  32.249  11.102   7.667  0.3971  0.1038  0.1990
33266W        W76179  25.526  16.767   6.290 -0.1574 -0.1131 -0.0897
33267W        W76180  24.911  12.413  24.642 -0.0874 -0.0489  0.0178
33268W        W76181  18.460  14.387  23.164  0.1241 -0.0305 -0.0844
33269W        W76182  25.783  18.072  27.717  0.0577 -0.0810  0.0800
33270W        W76183  33.325  16.865  28.096  0.0583  0.1223  0.0646
33271W        W76184  21.923  18.394  26.347 -0.0266 -0.1876 -0.0956
33272W        W76185  34.447  16.551  26.786 -0.2192 -0.0984 -0.1018
33273W        W76186  28.717  11.122   4.076 -0.0664  0.3349  0.1282
33274W        W76187   7.990  14.895   7.745  0.1415 -0.4902 -0.2812
33275W        W76188  24.893   1.392  26.559 -0.1044  0.0028 -0.1128
33276W        W76189  27.728  11.518   6.469 -0.1518 -0.0471 -0.1633
33277W        W76190  26.219   8.270   9.302 -0.0286 -0.1460  0.1581
33278W        W76191  21.230   2.492   1.344 -0.0237 -0.2925  0.1171
33279W        W76192  15.310  29.953   4.186  0.2827 -0.2259  0.2377
33280W        W76193  29.235   7.390   4.928  0.1051 -0.0610 -0.1921
33281W        W76194  21.073  14.200   2.310  0.0826 -0.1073 -0.1349
33282W        W76195  23.324   3.475  16.495  0.0779 -0.1034 -0.0159
33283W        W76196  23.137   6.914   3.856 -0.2239 -0.0339 -0.1187
33284W        W76197  31.383   7.731   6.517  0.0292  0.0294  0.1318
33285W        W76198  26.500  19.916   5.259 -0.2376 -0.2114 -0.0592
33286W        W76199  19.606  12.605   0.348 -0.0601 -0.1494 -0.0390
33287W        W76200  21.895   5.417  28.739 -0.1440  0.0302 -0.0162
33288W        W76201  22.668  15.887   7.942  0.0096 -0.3095  0.1586
33289W        W76202  22.735   2.403  29.231  0.1185 -0.0524 -0.0746
33290W        W76203  31.588  16.752   2.775 -0.3932  0.3700 -0.4686
33291W        W76204  21.273  17.626  26.387  0.1141  0.0687 -0.3691
33292W        W76205  26.313  13.544   3.898  0.1485  0.0148  0.2241
33293W        W76206  19.238  34.125  15.909 -0.0668  0.2168 -0.0952
33294W        W76207  24.979  13.993   3.054 -0.0640  0.1202  0.1844
33295W        W76208  31.801  12.410  24.362 -0.2690 -0.2435 -0.0524
33296W        W76209   3.237  22.803   1.195  0.0007 -0.2774 -0.0681
33297W        W76210  24.060   7.865  25.796  0.1060  0.2314 -0.0991
33298W        W76211  27.118  22.140   4.718  0.2208  0.0385  0.3085
33299W        W76212  20.585   8.679   5.257  0.1058 -0.1666  0.1087
33300W        W76213  22.454  17.248   3.456 -0.0631 -0.0012 -0.3455
33301W        W76214  24.894   4.670  25.227 -0.0878  0.2385 -0.2858
33302W        W76215   8.099  16.408   8.666 -0.3321 -0.0181 -0.1164
33303W        W76216  28.869  11.359   6.027 -0.0851 -0.3126 -0.2551
33304W        W76217   5.095   9.657  27.648 -0.0556  0.0003  0.1254
33305W        W76218  34.216  14.947  21.689  0.0259  0.0809 -0.1335
33306W        W76219  23.361  21.072   0.985 -0.1044  0.1138 -0.3326
33307W        W76220  24.850  11.135   2.517 -0.0588  0.1042 -0.1831
33308W        W76221  23.464  14.046  13.314  0.2666  0.1727 -0.2091
33309W        W76222  26.753  18.290   9.044 -0.1118  0.1449  0.0289
33310W        W76223  28.450  19.303  27.026 -0.2013 -0.2834 -0.0321
33311W        W76224  31.863  18.381   1.519 -0.1432 -0.3697 -0.2193
33312W        W76225  25.216   1.176   6.449 -0.0395 -0.2323  0.1176
33313W        W76226  26.058  13.899  21.466  0.2061 -0.0353  0.2099
33314W        W76227  29.824   7.453  29.275  0.1612 -0.1786 -0.0739
33315W        W76228  25.610  15.218   1.999 -0.0972  0.0409  0.0433
33316W        W76229  26.274  15.910   8.007 -0.1929  0.3598  0.0900
33317W        W76230  26.193  14.830  28.925 -0.3293  0.2143 -0.0003
33318W        W76231   7.721  17.499  26.344 -0.2343 -0.1138 -0.2066
33319W        W76232  22.901  13.023   7.646  0.1031  0.1751 -0.2151
33320W        W76233  17.805  31.683   3.130 -0.1537 -0.1378  0.3212
33321W        W76234  27.309  26.831   4.255 -0.0478  0.1752  0.2673
33322W        W76235  33.940  21.356   6.769 -0.2412  0.0613 -0.1502
33323W        W76236  22.196   8.207  27.782  0.1102  0.1895 -0.2007
33324W        W76237  20.465  20.552  26.770  0.2016  0.0700  0.0144
33325W        W76238  20.669  25.006  28.797 -0.2254  0.0280 -0.0031
33326W        W76239  25.288   2.725  29.597  0.1967  0.1526 -0.0264
33327W        W76240  29.401  16.655   4.383 -0.1701  0.2191  0.1859
33328W        W76241   8.386  26.497   2.263 -0.0694  0.1005  0.1865
33329W        W76242  26.451  31.563   7.975  0.1311 -0.0375 -0.2007
33330W        W76243   0.991  11.416   3.448 -0.1303 -0.2312  0.1128
33331W        W76244  24.000   7.228  29.563  0.1495 -0.1007  0.0335
33332W        W76245  32.887  10.753   1.814 -0.0980 -0.2388 -0.1440
33333W        W76246  20.229  20.236  19.085 -0.2319 -0.0744  0.0685
33334W        W76247  30.006  11.447  22.111  0.1382 -0.0257  0.0065
33335W        W76248  23.222  14.932   0.254 -0.2691 -0.1847  0.0656
33336W        W76249  27.349  11.963  28.012 -0.0707 -0.3757  0.3694
33337W        W76250  22.421   7.711   2.053  0.3075 -0.1554 -0.0149
33338W        W76251  18.028  21.336  22.775 -0.0616  0.1409  0.0942
33339W        W76252  17.506  32.816  23.601 -0.2973 -0.0868 -0.1378
33340W        W76253  27.512  14.577   2.199  0.0701 -0.1278 -0.2237
33341W        W76254  28.566  11.599   3.999  0.1338 -0.2534 -0.0277
33342W        W76255  24.144  24.876  25.318 -0.1896  0.1685 -0.2885
33343W        W76256  28.157  13.793   1.859  0.0221 -0.0935  0.1038
33344W        W76257  26.740  20.898   3.450  0.2447  0.1526  0.0544
33345W        W76258  27.518  16.637  28.548 -0.1671  0.1583  0.0337
33346W        W76259  22.934   3.606  23.590 -0.2999  0.3184  0.0436
33347W        W76260  20.898  11.137  24.209 -0.0354 -0.0302  0.0211
33348W        W76261  26.676  25.396  18.805  0.0945  0.1009  0.3947
33349W        W76262  30.538   1.628   5.421  0.0713  0.0012  0.1132
33350W        W76263  31.506  12.959   9.435 -0.0722 -0.1770  0.0162
33351W        W76264  20.777  11.175  27.237 -0.0398  0.0150 -0.0864
33352W        W76265  28.439   1.214   4.165  0.0395  0.0078 -0.2469
33353W        W76266  24.690  13.133  29.106 -0.1103  0.1553 -0.0079
33354W        W76267  33.944  18.294   6.957 -0.0182  0.0985  0.1089
33355W        W76268  25.363  20.951  25.719 -0.1960 -0.0966  0.2254
33356W        W76269  26.161  18.947   2.352 -0.0465 -0.1683  0.1669
33357W        W76270   8.785   9.545   7.584 -0.4289  0.2271  0.2556
33358W        W76271  28.951   9.323   9.052  0.0148 -0.2192  0.1425
33359W        W76272  21.035  11.701  29.779  0.0664  0.0079 -0.0500
33360W        W76273  29.181  12.555  29.481  0.3192  0.1490 -0.2714
33361W        W76274  20.522  18.903  29.393 -0.1381 -0.1363 -0.1255
33362W        W76275  25.933  17.034  24.237  0.1348  0.1936 -0.1996
33363W        W76276  32.623  16.630   3.362  0.1835  0.4042 -0.1890
33364W        W76277  27.348  16.695   4.735 -0.3009 -0.0324 -0.0044
33365W        W76278  31.763  10.660   5.745 -0.0459 -0.3649 -0.1028
33366W        W76279  21.708   8.452   2.828  0.0011  0.1600 -0.1733
33367W        W76280  24.285  23.290  29.448 -0.0173  0.1123  0.2721
33368W        W76281  25.342  14.428   4.438 -0.0133 -0.2210 -0.1527
33369W        W76282  28.574  16.745   1.431 -0.3181  0.1823  0.1539
33370W        W76283  31.855  17.120  27.790  0.2029  0.1322 -0.3129
33371W        W76284  17.129   9.234   5.133  0.2005  0.0947 -0.2351
33372W        W76285  27.374  18.559  24.385 -0.4096  0.0084 -0.1147
33373W        W76286  25.829   2.789   4.580  0.1827  0.0023  0.3056
33374W        W76287  21.744  24.944   8.788  0.2515 -0.2046  0.1198
33375W        W76288  20.962  15.161  27.022  0.0759 -0.0438  0.2130
33376W        W76289  34.153   8.263   6.292 -0.0877  0.4481  0.1284
33377W        W76290  30.077  17.341  23.618  0.1355 -0.0157  0.0515
33378W        W76291  25.564  15.179  29.097 -0.0369  0.0215 -0.0537
33379W        W76292   1.385   7.789   4.898 -0.1230 -0.2467 -0.1709
33380W        W76293  11.774  31.679   7.472  0.0451  0.2133 -0.0695
33381W        W76294  20.598  18.045   6.849 -0.1123  0.0449 -0.1817
33382W        W76295  28.865  12.809   7.861 -0.1902  0.2211  0.1128
33383W        W76296  19.312   5.670  26.904  0.0227  0.2743 -0.1308
33384W        W76297  22.060  10.726  24.689  0.1641 -0.0835  0.2099
33385W        W76298  29.737  16.572  16.979 -0.2377  0.3759 -0.1657
33386W        W76299  27.251  17.440   7.761  0.0076  0.2185  0.0636
33387W        W76300  17.670   9.818   7.285  0.0437  0.0233  0.2484
33388W        W76301  28.009   8.924   0.107 -0.2290 -0.1457  0.1543
33389W        W76302  15.666   6.036   5.107  0.0605 -0.3907 -0.1466
33390W        W76303  27.415  10.540   9.268  0.0237  0.0522 -0.0686
33391W        W76304  21.993  16.090  19.361  0.0328 -0.0160 -0.0257
33392W        W76305   2.179  15.492   6.856  0.2051  0.1394 -0.1866
33393W        W76306  13.388   9.966   0.072 -0.0136 -0.0612  0.1633
33394W        W76307  22.186   8.174  19.385  0.0964  0.1846  0.2725
33395W        W76308  29.351  10.312  25.939 -0.0105 -0.0908  0.0859
33396W        W76309   5.147  13.317  29.169 -0.1694  0.2192  0.1194
33397W        W76310  20.971  19.547  27.205  0.4792 -0.0027 -0.1907
33398W        W76311  22.351  11.578   0.143 -0.1514  0.0051 -0.0060
33399W        W76312  26.195  32.875   9.034 -0.0107 -0.0175 -0.3911
33400W        W76313   5.205  10.244  24.763 -0.1143  0.1060  0.1076
33401W        W76314  26.350   9.084   4.785  0.0852 -0.0936 -0.1254
33402W        W76315  25.934   8.533   3.098 -0.2166 -0.1456 -0.3755
33403W        W76316  22.395  18.439  29.658 -0.1195  0.1631  0.1114
33404W        W76317   2.667  14.092   3.430 -0.1342 -0.1062 -0.0801
33405W        W76318  22.725  10.532   4.798 -0.0993  0.2369  0.0485
33406W        W76319  30.143  14.711   8.845 -0.0274  0.0606  0.3178
33407W        W76320  17.790  18.853   7.217 -0.1873  0.0081  0.1159
33408W        W76321  20.826   4.695  29.513  0.0756  0.2459 -0.0327
33409W        W76322  14.121   3.722  23.060  0.2885 -0.1680  0.5311
33410W        W76323  20.666  13.146  29.557  0.1024  0.4459 -0.1693
33411W        W76324  23.020  11.239   5.997 -0.1483  0.1256 -0.3274
33412W        W76325  27.629  21.677   4.473 -0.3363  0.2058  0.3549
33413W        W76326  29.285  23.732   9.054  0.1469  0.4194 -0.0285
33414W        W76327  15.242   0.427   2.584 -0.2760 -0.0532  0.2265
33415W        W76328  23.004  15.150  19.654 -0.0873 -0.2330  0.3119
33416W        W76329  28.721  19.880  27.895  0.0682 -0.2453  0.0613
33417W        W76330  23.586  18.360  23.137  0.3379 -0.3193 -0.0799
33418W        W76331  15.946  12.336   7.632 -0.0087  0.1831 -0.0740
33419W        W76332  16.389   9.971   6.247 -0.0389  0.0310 -0.3078
33420W        W76333  25.320  21.674  15.626  0.1579 -0.2701 -0.0689
33421W        W76334  22.261  13.108   1.842 -0.0316 -0.1859  0.0082
33422W        W76335  14.755   5.248  23.298  0.0414 -0.2322  0.0858
33423W        W76336  20.391  12.548   3.833  0.0424  0.1006  0.2578
33424W        W76337  25.982  10.807   3.324  0.2653 -0.0744 -0.0131
33425W        W76338  14.292  11.795  27.774  0.1711 -0.0295  0.1280
33426W        W76339  24.787  15.654   3.851  0.1348  0.2028 -0.2154
33427W        W76340  18.561   9.901  22.150  0.0861 -0.0219 -0.1364
33428W        W76341  16.750  17.978   7.480  0.0727  0.3732  0.1503
33429W        W76342  18.385   7.886   4.684 -0.2364 -0.1385  0.2111
33430W        W76343  19.265  15.493  25.810  0.1186 -0.0671 -0.1425
33431W        W76344  31.482   9.421  22.205  0.1825 -0.0378 -0.0931
33432W        W76345  33.143  16.842   5.416  0.2495  0.1183 -0.0297
33433W        W76346  28.517  26.331  25.464  0.2836  0.3513  0.0445
33434W        W76347  26.547   5.565   7.704  0.1382 -0.2310  0.0581
33435W        W76348   2.086   4.097  29.540  0.1136  0.0992  0.1331
33436W        W76349  22.542  19.051   6.128  0.1656 -0.0542  0.0389
33437W        W76350  27.514  18.092  24.446 -0.3196  0.1121 -0.0619
33438W        W76351  27.927  14.641   1.839 -0.1440 -0.2041 -0.0253
33439W        W76352  14.986  10.630   8.222  0.0617  0.2351  0.1636
33440W        W76353  30.635  16.491  24.365  0.3345 -0.1506  0.0603
33441W        W76354  24.544   6.312  22.518 -0.1038 -0.0523 -0.1832
33442W        W76355  22.751  11.955  28.551 -0.2992  0.3238  0.1591
33443W        W76356  31.967  12.950   5.986 -0.0717  0.1184  0.1095
33444W        W76357  30.504  15.582  29.433  0.0038 -0.0404  0.1248
33445W        W76358  27.780   5.505   3.254 -0.0576 -0.0978 -0.1322
33446W        W76359  20.774  21.465  27.867 -0.0161  0.2782  0.1935
33447W        W76360  25.183   9.700  19.592  0.1661  0.1367  0.0967
33448W        W76361   0.881   7.050   4.666  0.1553 -0.2237 -0.1044
33449W        W76362  27.177  13.358   8.770 -0.1963 -0.0269 -0.0374
33450W        W76363  25.027  15.944   3.533 -0.2371 -0.0258  0.0182
33451W        W76364  26.351  15.919   2.708 -0.0471  0.1075 -0.2292
33452W        W76365  34.316  18.617  24.783 -0.3545 -0.1173  0.0920
33453W        W76366  22.436  17.616   4.905  0.2422 -0.0269  0.2490
33454W        W76367   4.558  16.786  28.679 -0.1292  0.1350 -0.3431
33455W        W76368  24.230  13.128  28.935  0.0045  0.2123  0.0103
33456W        W76369  28.426  18.018   8.411  0.0303  0.2104 -0.0484
33457W        W76370  30.032  11.506   7.506 -0.1733  0.0791 -0.2031
33458W        W76371  29.203  19.667   2.948 -0.3317 -0.0000  0.1705
33459W        W76372  22.899   6.353  28.760  0.0436  0.1115 -0.1494
33460W        W76373   1.046  11.832   3.121 -0.1118 -0.2830  0.1973
33461W        W76374  32.665  27.849   1.508 -0.2977 -0.0482 -0.1680
33462W        W76375  26.396   9.821  28.165  0.0118  0.0760 -0.1098
33463W        W76376  24.645  16.477   7.343  0.2588  0.0339 -0.1016
33464W        W76377  27.035  10.967  28.125 -0.0623 -0.0880 -0.3135
33465W        W76378  20.330  14.602   4.578  0.1245  0.4148 -0.1408
33466W        W76379  28.180  15.856  29.558  0.5681  0.0823  0.0765
33467W        W76380  29.915  11.149   7.101  0.2697  0.0094 -0.2926
33468W        W76381  31.384  19.837   7.117 -0.0833  0.0069  0.3854
33469W        W76382  20.635   9.522   8.451 -0.3187 -0.3538 -0.2485
33470W        W76383  21.761  16.886  26.153  0.2843 -0.0306  0.2345
33471W        W76384  30.579  12.888   9.758  0.1376 -0.2672  0.4420
33472W        W76385  20.500   9.786   4.450 -0.1131  0.2140  0.0036
33473W        W76386  19.901  17.296   0.538 -0.0679 -0.1247 -0.1185
33474W        W76387  14.486   7.625   1.025 -0.3763  0.1436 -0.1027
33475W        W76388  17.488   7.903   1.316  0.1144  0.5223  0.0965
33476W        W76389  19.672  13.435  24.844  0.2471 -0.0872 -0.0715
33477W        W76390  22.560  13.845   5.414 -0.1009  0.2197  0.1559
33478W        W76391  12.316   5.644  29.253 -0.3128 -0.0777 -0.1067
33479W        W76392   2.519  12.123   3.511  0.1717 -0.2061 -0.2444
33480W        W76393  27.443  12.895  28.518 -0.1979  0.1743  0.0363
33481W        W76394  28.300  23.560   9.591 -0.0396  0.1190  0.2278
33482W        W76395  30.380  14.023   3.476  0.0202  0.0645  0.1041
33483W        W76396   0.981  13.931   5.856 -0.0367  0.4575 -0.1808
33484W        W76397  26.960  27.675  27.231 -0.4354  0.2370  0.0327
33485W        W76398  20.507  29.993   6.503  0.2270  0.0178  0.0119
33486W        W76399  31.647  15.552   7.589  0.2772  0.0045 -0.3161
33487W        W76400  25.747  22.859   3.310  0.0245 -0.0471 -0.1105
33488W        W76401  26.507   7.524   6.147 -0.1438  0.3224  0.4273
33489W        W76402  27.655   8.156   3.458 -0.1372  0.1444  0.0075
33490W        W76403  30.259  15.695   0.622 -0.1045 -0.1987  0.1368
33491W        W76404  30.324   9.983   9.545 -0.1357  0.5105  0.1118
33492W        W76405  24.124  15.092   3.621 -0.2407  0.0972 -0.1014
33493W        W76406   2.761   7.407  28.807 -0.1168 -0.3507 -0.2486
33494W        W76407  24.416  11.254   6.364  0.1313 -0.1765 -0.1970
33495W        W76408  26.423  10.000   1.826  0.2454 -0.0037  0.4118
33496W        W76409  27.551   7.354   3.068  0.0858 -0.2255  0.1486
33497W        W76410  21.583  15.083  23.858 -0.0165  0.0406 -0.2286
33498W        W76411  27.432  12.632   5.792  0.0693 -0.0948 -0.2609
33499W        W76412   0.396  16.718   5.979  0.1312 -0.1982  0.0577
33500W        W76413  33.032  10.269   7.156  0.0200 -0.1172  0.1231
33501W        W76414  24.542   4.789   4.209  0.1894  0.0368 -0.2265
33502W        W76415  22.963  23.250  28.553  0.3247 -0.0534 -0.0941
33503W        W76416  20.279  10.184   7.402 -0.6822 -0.2334  0.1102
33504W        W76417  29.168   4.960   7.653 -0.1869  0.0013 -0.0398
33505W        W76418  33.779  16.029   7.394  0.0698 -0.1359  0.1012
33506W        W76419  24.295  14.662  28.753  0.2632 -0.3897  0.0360
33507W        W76420  24.247   6.230   9.019 -0.0597 -0.0125  0.3248
33508W        W76421  18.396   4.523   8.279 -0.3495  0.0568 -0.0228
33509W        W76422  23.828   6.322   3.353 -0.1367  0.0056  0.0473
33510W        W76423  20.720  14.938  26.120 -0.0148  0.0040 -0.1930
33511W        W76424  32.161   8.569   1.222  0.0309 -0.1134 -0.0219
33512W        W76425  24.355  18.024   3.138  0.0568  0.2289 -0.0798
33513W        W76426  23.878  14.233   8.698  0.2539 -0.0457  0.1531
33514W        W76427  23.160  19.394  29.148 -0.1932 -0.0542 -0.1405
33515W        W76428   2.269   7.594   8.683  0.1265  0.0081 -0.0180
33516W        W76429  32.059   8.208  26.539  0.2557  0.2534  0.0951
33517W        W76430  29.267   9.722   6.440 -0.0605  0.0183 -0.0973
33518W        W76431  26.842  12.543   2.702 -0.1935 -0.2907 -0.0308
33519W        W76432  18.386  17.731   3.813  0.0268  0.2758  0.0705
33520W        W76433  20.708   5.248  10.451  0.1099 -0.2842 -0.0369
33521W        W76434  27.790   9.940   6.208 -0.2255  0.0722 -0.0689
33522W        W76435  27.380  14.941   6.292  0.2135  0.1082  0.2598
33523W        W76436  12.345  14.784   2.222  0.0791 -0.0164 -0.0525
33524W        W76437  22.291  18.667   6.343  0.0735  0.3198 -0.0450
33525W        W76438  32.347  17.913   7.174  0.1465 -0.2875 -0.2373
33526W        W76439  26.531   3.119   2.846 -0.3290 -0.2797 -0.1246
33527W        W76440  10.687  15.305   8.535 -0.0303 -0.1690 -0.2950
33528W        W76441  32.086  13.635   3.231 -0.1685 -0.3577 -0.1230
33529W        W76442  22.045  11.743   0.559  0.1468 -0.1470 -0.0668
33530W        W76443  21.939  19.128  24.342  0.1535  0.0822  0.3312
33531W        W76444  22.133   4.843  23.872  0.6419 -0.0616 -0.0672
33532W        W76445  27.024  14.689  27.824  0.0779  0.3622 -0.0961
33533W        W76446  26.755   9.817   9.514 -0.2041  0.2832  0.1118
33534W        W76447  15.457  12.918   1.846 -0.1258  0.1807  0.3495
33535W        W76448  34.298  11.037   8.789  0.1602 -0.0416 -0.2935
33536W        W76449  21.396  11.629   0.369  0.0036 -0.0878 -0.0961
33537W        W76450  24.046  21.595   6.937 -0.0186  0.3507 -0.0641
33538W        W76451  30.354  29.440   0.363  0.1190 -0.0289 -0.0521
33539W        W76452  32.128   7.753   3.325 -0.3024 -0.0503 -0.1548
33540W        W76453   8.221   7.833   5.222  0.0971  0.3378  0.0660
33541W        W76454  26.558  31.512   3.327 -0.1841  0.0555  0.4433
33542W        W76455  15.274   3.746   6.024  0.0558 -0.0492 -0.2609
33543W        W76456  20.197  24.170  27.877  0.0776  0.0946 -0.4834
33544W        W76457   9.731  16.684   3.078  0.0336  0.1493 -0.4930
33545W        W76458   3.689  17.350   3.682  0.1903  0.2776 -0.2825
33546W        W76459  29.824   5.769   1.841  0.2745 -0.3102 -0.0401
33547W        W76460  16.670   3.403   8.746 -0.1357 -0.1998  0.1706
33548W        W76461  29.874  20.837   8.946  0.1465 -0.1782 -0.2022
33549W        W76462  21.697  12.666  26.733 -0.0066  0.1199 -0.1083
33550W        W76463  31.503  15.668   3.444  0.3876 -0.0875  0.1683
33551W        W76464   3.598  13.033   9.108  0.0238  0.0951 -0.1057
33552W        W76465  22.715  33.877   1.570 -0.0182 -0.2362  0.2010
33553W        W76466  17.002  11.441   7.572  0.0071  0.0429 -0.3681
33554W        W76467  23.309   8.790   9.192  0.1174 -0.1908 -0.3435
33555W        W76468  25.162  11.226   4.743 -0.3662  0.0618 -0.1772
33556W        W76469   0.709  13.752   3.378 -0.2468  0.0247  0.0088
33557W        W76470  22.794   9.504   7.127  0.0462 -0.2054 -0.4424
33558W        W76471  32.194  16.380   1.343  0.3538  0.0194 -0.2180
33559W        W76472  30.573   9.160   9.692  0.0199  0.1474  0.0284
33560W        W76473  28.792  14.137   8.197  0.2828  0.2835  0.1391
33561W        W76474  11.720  10.779   1.501 -0.2799 -0.2084 -0.2879
33562W        W76475  31.683  11.574   7.932  0.2634  0.1040  0.0634
33563W        W76476  27.648  18.493  26.846  0.3341  0.1981  0.4045
33564W        W76477  31.449  23.777   1.644 -0.0319  0.1200  0.0606
33565W        W76478  21.916  15.892   3.257 -0.1116  0.0037  0.1414
33566W        W76479  21.002  10.267   8.335  0.0903 -0.1922 -0.0361
33567W        W76480  30.362  25.070   5.502  0.0009 -0.1211  0.0673
33568W        W76481  20.643  14.595   0.187 -0.0785  0.1302 -0.1431
33569W        W76482  22.063  14.588   8.115  0.3112  0.1204  0.3615
33570W        W76483  27.842  15.074   0.893 -0.0787 -0.0053 -0.2068
33571W        W76484  23.098  12.510   7.651 -0.3973 -0.0285  0.0804
33572W        W76485  19.986  15.705   7.124  0.0856 -0.0155 -0.0390
33573W        W76486  26.489  32.548   2.946 -0.1767 -0.1015 -0.2453
33574W        W76487  32.827  15.231   7.842 -0.1158  0.0193 -0.0641
33575W        W76488  14.433  22.042   3.795  0.1768 -0.0176 -0.1962
33576W        W76489  18.899  12.193   0.895 -0.1940  0.4570 -0.0494
33577W        W76490  32.582   5.781  11.079  0.1409 -0.0692 -0.0268
33578W        W76491  32.732  10.533   3.572 -0.0290  0.0776  0.0362
33579W        W76492  24.266  17.163  23.173  0.3641 -0.0387 -0.0302
33580W        W76493   0.796  27.976   7.872 -0.2713  0.1822  0.4922
33581W        W76494  20.876   9.590   4.204 -0.2288  0.1956 -0.3297
33582W        W76495  26.723  27.456   3.770 -0.1266 -0.3065 -0.1361
33583W        W76496  17.023  20.582   5.171  0.2192 -0.0869 -0.3121
33584W        W76497   1.385  22.145   9.558 -0.0510 -0.0624 -0.0986
33585W        W76498  28.618  17.131  10.013  0.0463 -0.0275 -0.0764
33586W        W76499  24.230   5.412   7.560 -0.2154 -0.1363  0.1982
33587W        W76500  33.254  12.357   8.525 -0.0921  0.0069 -0.1601
33588W        W76501  23.058  15.919   0.658  0.0608  0.1580  0.3437
33589W        W76502  28.782   1.297  28.436 -0.1925  0.0975  0.0120
33590W        W76503  25.807   6.343  28.153 -0.0204 -0.3366 -0.0265
33591W        W76504  33.413   7.025   7.849 -0.1097  0.1879  0.0295
33592W        W76505  22.907  15.404   7.243  0.1161  0.0602  0.3348
33593W        W76506  33.409  23.880   6.338 -0.0809 -0.1370 -0.4210
33594W        W76507  29.607  13.592   0.956 -0.0600 -0.0348 -0.0780
33595W        W76508  25.906  14.974   6.033  0.0321 -0.2084 -0.1763
33596W        W76509  24.287  13.999   8.759 -0.0089  0.0145 -0.0218
33597W        W76510  26.341  23.817   6.418 -0.0655 -0.0467 -0.1085
33598W        W76511  27.640   6.033   6.126  0.0821 -0.1456 -0.0294
33599W        W76512  27.434  20.762   5.792  0.1157 -0.0934  0.1304
33600W        W76513  31.622  23.227   4.043  0.1099  0.0524  0.3591
33601W        W76514  29.755  17.327   4.059 -0.0708  0.0303  0.0351
33602W        W76515  28.684  20.508   7.906 -0.3102  0.0128  0.0950
33603W        W76516  23.376  15.084   2.313  0.0176 -0.1677 -0.1330
33604W        W76517  18.868  12.358   7.482  0.2241  0.2149  0.2809
33605W        W76518  24.242   9.169   4.518 -0.0120  0.0307 -0.1019
33606W        W76519  20.689   6.568   8.721  0.2106 -0.1904  0.2298
33607W        W76520  21.793  15.862   1.509 -0.0843  0.0519 -0.0436
33608W        W76521  33.473  16.751   3.452 -0.5014  0.0468  0.0150
33609W        W76522  23.072   1.765   3.747  0.3644 -0.2297 -0.1825
33610W        W76523  22.488  12.258   1.582 -0.1280  0.3933  0.2053
33611W        W76524  29.557  13.813   5.851  0.1482 -0.1873 -0.1545
33612W        W76525  20.670  17.262   5.594 -0.0855 -0.1396 -0.0375
33613W        W76526  25.698   5.347   6.379  0.1524 -0.2717  0.0941
33614W        W76527  28.281  18.464   5.232  0.1329  0.2387 -0.1175
33615W        W76528  24.223  12.837   8.304  0.3712 -0.3976 -0.0793
33616W        W76529  31.285  32.036   6.867  0.0446  0.1082 -0.1591
33617W        W76530   6.321   5.148  12.663  0.2185  0.0222 -0.1320
33618W        W76531  20.945   9.237   1.804  0.0139  0.1727  0.1666
33619W        W76532  32.432   9.008   6.497  0.6070  0.0448 -0.4180
33620W        W76533  27.259  10.578   8.837  0.1936 -0.2141  0.0331
33621W        W76534  27.038   4.103   1.369 -0.1345  0.0533  0.3551
33622W        W76535  14.451  16.696   6.063 -0.2682 -0.0083  0.3717
33623W        W76536  32.526  14.255   5.210 -0.1538  0.2220 -0.0811
33624W        W76537  17.907  14.228  27.123  0.1971 -0.0087 -0.1554
33625W        W76538   3.726  15.182  27.033  0.1591 -0.3042 -0.1481
33626W        W76539  18.191  10.015  28.725 -0.0496 -0.0150  0.2257
33627W        W76540  24.924  11.078   1.636  0.0479 -0.0427  0.1566
33628W        W76541   1.998  11.229   8.109  0.1882 -0.2386 -0.1758
33629W        W76542   2.627  17.380   5.209  0.1031 -0.1631 -0.1353
33630W        W76543  29.775  11.544   1.211  0.0969 -0.1745  0.1202
33631W        W76544  29.014   0.535   3.069  0.0697  0.0098  0.0055
33632W        W76545  26.775  10.323   3.110 -0.0788  0.2827 -0.1541
33633W        W76546  27.313  13.882   4.235  0.2031 -0.1070 -0.4118
33634W        W76547  27.195   3.585   5.022 -0.2532 -0.2126 -0.2292
33635W        W76548  24.690  17.313   3.571  0.0766  0.0897 -0.1226
33636W        W76549  24.949  11.468  29.098 -0.2300 -0.0774 -0.0852
33637W        W76550  25.708  22.243   9.154 -0.2581 -0.0592 -0.2615
33638W        W76551  27.593  10.411   6.062  0.0063  0.2779 -0.1927
33639W        W76552  14.282  11.172  28.682 -0.1964 -0.0220 -0.0640
33640W        W76553  22.319  11.754   2.734 -0.3371 -0.0984  0.3843
33641W        W76554  32.744   6.130   7.560  0.1307 -0.1376 -0.3317
33642W        W76555  32.494  15.198   7.425  0.0021  0.3396 -0.0892
33643W        W76556  29.594  13.257  25.966 -0.0362  0.0286 -0.0189
33644W        W76557  28.382  15.735   9.468  0.2741  0.1652  0.1699
33645W        W76558  32.608  14.947   8.225 -0.1458  0.1190 -0.0475
33646W        W76559  31.867  16.310  25.236 -0.2611 -0.0686 -0.1802
33647W        W76560  26.689  15.853   6.920  0.0310  0.0457 -0.1583
33648W        W76561  14.748  19.023   7.685 -0.1746 -0.0268  0.2456
33649W        W76562  18.053  13.550   8.812 -0.0126 -0.1841 -0.1918
33650W        W76563  28.163  14.720   7.278 -0.1006  0.0000 -0.2328
33651W        W76564  29.980  15.101   6.328 -0.1222 -0.1023  0.1635
33652W        W76565  19.328  19.004   7.036 -0.0627  0.1113 -0.1491
33653W        W76566  22.268  17.115  26.930  0.1956  0.0545  0.0617
33654W        W76567  34.050   6.652   7.123 -0.1958  0.3305 -0.0511
33655W        W76568   0.135  18.129   5.555  0.2461  0.1600  0.0732
33656W        W76569  23.387  16.272   7.271 -0.2414 -0.2644 -0.0429
33657W        W76570   1.092  14.217  28.376  0.3480  0.1009  0.1155
33658W        W76571  24.609  12.465   5.475  0.2141  0.1925  0.1904
33659W        W76572  17.211  11.107   5.191  0.1895 -0.2620  0.4467
33660W        W76573  23.009   8.912   4.168 -0.0892 -0.2383  0.1336
33661W        W76574  28.700  12.239   5.632  0.0395 -0.1459  0.2736
33662W        W76575  28.847  16.000  28.498 -0.0605  0.1712  0.1872
33663W        W76576  19.679  25.322  29.491  0.1243  0.0121  0.0579
33664W        W76577  26.099  15.941  29.659 -0.2619 -0.2562  0.2488
33665W        W76578  22.645  33.467   9.250  0.0962 -0.0297 -0.4106
33666W        W76579  25.874  11.755   4.956 -0.0472  0.1625 -0.5337
33667W        W76580   6.211  15.600   6.218 -0.0778  0.1101 -0.2527
33668W        W76581  32.640  22.215   7.176 -0.0740  0.2577  0.2986
33669W        W76582  22.418  33.141   2.457  0.0636  0.1484 -0.0077
33670W        W76583  28.304  19.818   8.451 -0.2967  0.1537 -0.3683
33671W        W76584  20.888  12.488   2.853  0.5482 -0.0707  0.1835
33672W        W76585  22.826   7.460   8.256  0.0424  0.3206  0.0890
33673W        W76586  24.096   9.533   1.329 -0.2744 -0.1179  0.1571
33674W        W76587   9.922  10.607   9.920 -0.1986 -0.1236  0.0615
33675W        W76588  24.349  22.197   4.546  0.2139 -0.0440  0.0051
33676W        W76589   1.964  13.205   8.983 -0.0241 -0.0212  0.0486
33677W        W76590  26.054   8.628   6.935 -0.2489  0.2812 -0.1332
33678W        W76591  32.996  15.302   5.811  0.1424 -0.1172  0.2215
33679W        W76592   0.497   4.288  10.721 -0.0259  0.2902 -0.2264
33680W        W76593  25.378  13.431  27.062 -0.0847 -0.3250  0.1917
33681W        W76594  27.676  15.292   7.337  0.0367 -0.1006 -0.0357
33682W        W76595  19.722  16.839   5.183  0.0001  0.2602 -0.2286
33683W        W76596  27.813  12.563   9.835  0.5472  0.2079  0.2662
33684W        W76597  22.587   0.887   7.352  0.1259  0.1619  0.0302
33685W        W76598  33.392  11.593   7.475 -0.1680  0.1121  0.2465
33686W        W76599   6.490  15.820   8.922  0.1721 -0.1235 -0.2104
33687W        W76600  20.268   9.221   8.938  0.0182  0.1978  0.0762
33688W        W76601  26.538  16.525   5.605 -0.0680 -0.1398  0.2214
33689W        W76602  28.040   4.591   6.676  0.0975  0.0669  0.1101
33690W        W76603  12.894  11.929   2.732  0.2345 -0.3116  0.0605
33691W        W76604  23.160  10.431  22.167 -0.1735  0.2742  0.0473
33692W        W76605   3.815  20.187   1.997  0.0752 -0.2662 -0.1632
33693W        W76606   2.652  28.484   7.984 -0.0082 -0.0048 -0.1075
33694W        W76607   2.197  23.532   9.680 -0.4328  0.1819 -0.1198
33695W        W76608  30.978  24.514   0.038  0.0332  0.0176 -0.0727
33696W        W76609  29.535  10.885   7.290 -0.1467 -0.0871  0.1497
33697W        W76610  25.361  13.412   9.486 -0.4268 -0.1958 -0.0349
33698W        W76611  23.495  17.407  29.108  0.2538 -0.0116 -0.0486
33699W        W76612  19.868  10.132   7.043  0.0323 -0.0528  0.2260
33700W        W76613  21.558  14.405  24.509  0.0860  0.2691  0.2088
33701W        W76614  19.297   8.652   8.403  0.2964  0.2939  0.2293
33702W        W76615  30.547  13.839   9.704  0.4031 -0.0023  0.2080
33703W        W76616  30.554  10.908   1.892  0.1649  0.0344 -0.1798
33704W        W76617  32.446   6.999   0.200 -0.0587  0.1799  0.0854
33705W        W76618  29.471  33.018   3.159  0.0799  0.1494 -0.0284
33706W        W76619  24.020  14.027   0.969  0.0756 -0.0007  0.0328
33707W        W76620  33.993  14.232   0.980 -0.0047 -0.1184 -0.3140
33708W        W76621  23.986   6.589   0.734 -0.2054 -0.0624  0.1979
33709W        W76622   0.786  12.974   9.908 -0.4027  0.1804  0.0211
33710W        W76623  28.540  11.746   8.861  0.3605 -0.1921 -0.0464
33711W        W76624  24.306  10.674   7.040  0.2133 -0.1821 -0.0711
33712W        W76625  33.073  16.424   9.787  0.1135 -0.1860 -0.0727
33713W        W76626  31.556  11.565  23.315  0.1381 -0.1786  0.3832
33714W        W76627  20.298   7.474   3.826 -0.2190  0.1807 -0.2312
33715W        W76628  27.868  10.508  23.273  0.1164 -0.3982 -0.2514
33716W        W76629  23.753  20.787  26.033  0.0435 -0.1338  0.0951
33717W        W76630  15.132  15.347  26.413 -0.1553  0.1216 -0.0655
33718W        W76631  17.344   5.869  24.913 -0.0761  0.0185  0.1520
33719W        W76632  19.469   8.343   4.391  0.1735 -0.0723 -0.0927
33720W        W76633  26.971   9.738   8.354 -0.3670 -0.1290  0.3339
33721W        W76634  33.314  23.527   0.206 -0.0145  0.3575  0.2654
33722W        W76635  18.858  23.229   0.636  0.2593 -0.1650 -0.0316
33723W        W76636  17.019  19.768   5.324 -0.1796 -0.0306 -0.2143
33724W        W76637  33.057  34.267   9.736 -0.1599  0.0177 -0.0627
33725W        W76638  31.863  12.309   6.204  0.1808 -0.1473  0.1450
33726W        W76639  20.650  26.118   5.435  0.0448 -0.2450  0.2072
33727W        W76640  23.012  16.804   1.987 -0.4382  0.2122  0.1896
33728W        W76641  19.618  17.003  25.077  0.3924  0.0240  0.0897
33729W        W76642  27.393   1.679   7.609 -0.3527 -0.0942 -0.0332
33730W        W76643  30.171  10.741  24.391  0.2058 -0.0187 -0.2157
33731W        W76644   3.918  18.446   1.150 -0.3297 -0.1219  0.1406
33732W        W76645  19.393   4.829   8.278  0.0815  0.2727 -0.1152
33733W        W76646  26.999  15.857  27.459 -0.3215  0.0471 -0.2939
33734W        W76647  29.280  21.057   6.521 -0.5368  0.3492  0.0716
33735W        W76648   8.065  15.777   7.338  0.1080 -0.0268  0.1478
33736W        W76649  25.146  18.346   7.509 -0.1644 -0.2268  0.0781
33737W        W76650  25.606  14.215   0.162  0.3228 -0.0954  0.1081
33738W        W76651  24.573  23.466  26.253 -0.1349 -0.1682  0.1134
33739W        W76652  22.870  17.518   5.334  0.0611 -0.3115 -0.1069
33740W        W76653  23.297  14.514   5.674  0.1171 -0.2616 -0.3310
33741W        W76654  22.773  17.176  22.543  0.0233 -0.1559 -0.2067
33742W        W76655  25.594  22.204   1.522  0.0300  0.0455  0.0196
33743W        W76656  29.417  16.833   9.260 -0.2104  0.1989 -0.1247
33744W        W76657  22.430  11.100   8.706  0.0801  0.0307  0.0376
33745W        W76658  27.890  18.475   4.261 -0.1647  0.2163  0.0646
33746W        W76659  20.810  12.413   4.741 -0.1152 -0.0730 -0.0842
33747W        W76660   0.014   8.686   4.004 -0.2611 -0.1569 -0.2179
33748W        W76661  32.922  16.503  28.881 -0.0619 -0.1413  0.0494
33749W        W76662  29.365  12.819   7.041 -0.1234  0.1436  0.1002
33750W        W76663  27.057  10.830   4.224 -0.0988  0.0652  0.0637
33751W        W76664   3.379  26.304  22.604 -0.2759 -0.2260  0.2295
33752W        W76665  17.753   0.703   1.636  0.0322 -0.1590 -0.1345
33753W        W76666  15.680   7.943   8.396  0.1757  0.0698 -0.3505
33754W        W76667  24.596  13.395   0.324  0.1052 -0.2724  0.1030
33755W        W76668  32.324  25.879   9.515  0.0292  0.0884  0.1435
33756W        W76669  21.895  13.031   4.654 -0.0673  0.0071  0.1449
33757W        W76670  25.911  20.622   4.139 -0.0739  0.0049  0.0414
33758W        W76671  24.565  14.680   6.754  0.0895 -0.1358 -0.2648
33759W        W76672  30.300  17.743   2.870 -0.2165 -0.1438  0.0754
33760W        W76673  23.633   8.488   9.411  0.3463  0.0889  0.1950
33761W        W76674   2.796  24.929   2.408  0.1266 -0.0275  0.0238
33762W        W76675  26.095  20.235   1.974  0.0560  0.0841  0.0771
33763W        W76676  15.658  14.812   0.905 -0.1510 -0.3070  0.0482
33764W        W76677  31.651  18.936   6.472  0.0366 -0.1769 -0.2677
33765W        W76678  17.978   9.780   8.362 -0.3215  0.1976 -0.0592
33766W        W76679  20.690  13.811  21.728 -0.0110 -0.1867 -0.2371
33767W        W76680  25.959  20.304  29.587  0.0438  0.2618 -0.0343
33768W        W76681  16.478  18.556   3.511  0.0913  0.0656 -0.0870
33769W        W76682  30.602  10.968   0.394 -0.0505 -0.2133 -0.1149
33770W        W76683  21.816   8.971   3.416  0.1121 -0.3193  0.0128
33771W        W76684  24.594  14.834  27.549  0.1222 -0.1651  0.0456
33772W        W76685  30.966  11.955   5.886  0.0578 -0.1212 -0.0131
33773W        W76686  16.057   7.681   2.147 -0.2463 -0.1470  0.0410
33774W        W76687  10.771  10.819   7.640  0.1817 -0.2823  0.0529
33775W        W76688   3.373   6.458   8.187  0.1191  0.0029  0.0587
33776W        W76689  29.356  13.923   6.314  0.1122  0.1638  0.0777
33777W        W76690  21.750   7.454   8.513  0.0136 -0.3119  0.1888
33778W        W76691  27.341  26.029   7.733  0.2304  0.0869  0.3048
33779W        W76692  18.507   9.850   6.677 -0.2041 -0.3731 -0.2169
33780W        W76693  28.072  10.693   5.565 -0.2779  0.5687 -0.4294
33781W        W76694  28.379  13.013   7.247  0.0272  0.3254  0.1327
33782W        W76695   4.842  10.583  11.242  0.0987 -0.0238 -0.1664
33783W        W76696   2.654  18.257  29.662 -0.0306  0.0499 -0.0830
33784W        W76697  22.306  12.939   6.453  0.0231  0.1064  0.0839
33785W        W76698   1.132  12.901   7.315 -0.1062  0.2641 -0.0924
33786W        W76699  27.178   8.439   7.743 -0.0317 -0.2547 -0.0803
33787W        W76700  29.386  10.526   1.102  0.1068  0.1747 -0.0051
33788W        W76701  14.162  15.745  29.343 -0.4720 -0.2009 -0.2189
33789W        W76702   1.629   1.244  23.447 -0.0158 -0.1181  0.1727
33790W        W76703   4.969  15.070   6.480 -0.0732 -0.0235 -0.1395
33791W        W76704  13.309  11.552   9.231  0.0346 -0.1315  0.0887
33792W        W76705  25.761   9.150   2.252 -0.2167  0.1853 -0.1543
33793W        W76706  29.357   6.764   4.285 -0.0677  0.0214 -0.2691
33794W        W76707  27.290  30.546   1.130 -0.1402 -0.1700 -0.0093
33795W        W76708  25.090  16.933   6.544  0.2707 -0.1109 -0.0635
33796W        W76709  21.585   6.953   5.906  0.0485  0.1293 -0.2985
33797W        W76710  14.406  12.173   5.980 -0.0464 -0.0963  0.1902
33798W        W76711  22.055  14.153   7.818 -0.1043  0.0478  0.0975
33799W        W76712  20.014  18.987  29.490 -0.4056  0.2996  0.0783
33800W        W76713  29.159  15.453   8.228 -0.0598 -0.2605  0.0229
33801W        W76714  21.332  12.062   7.825  0.1147 -0.1632  0.3278
33802W        W76715  25.721   9.735   6.577  0.0903 -0.1569 -0.0621
33803W        W76716  26.779  15.916   1.999 -0.0478  0.3588 -0.0612
33804W        W76717  23.470  11.301   6.212  0.1430  0.2938 -0.1610
33805W        W76718  22.112  16.162  28.045 -0.1240 -0.1083  0.0113
33806W        W76719  13.560  20.721  24.111  0.1202  0.3426  0.2632
33807W        W76720  23.590  10.442   9.014 -0.0581 -0.1892 -0.0329
33808W        W76721  29.719  13.297   3.629 -0.0790  0.0135  0.1448
33809W        W76722  33.147  11.511   9.365  0.1729 -0.1769  0.0698
33810W        W76723  28.386  13.907   4.941  0.1827  0.1864  0.0547
33811W        W76724  30.998  24.518   5.026 -0.0015  0.1026  0.2578
33812W        W76725  25.933  23.621   1.530 -0.0256 -0.0629  0.0945
33813W        W76726  24.805   4.036  28.358  0.2514 -0.0156 -0.1917
33814W        W76727   0.954  25.172   8.300  0.0534 -0.2630 -0.0587
33815W        W76728  17.831   3.900   2.236  0.2786  0.2609 -0.0104
33816W        W76729  25.965   7.452   6.894  0.3827 -0.2533 -0.0031
33817W        W76730  24.450   8.169   9.218 -0.1617  0.1654 -0.0555
33818W        W76731   5.150  16.894   7.393  0.0367 -0.2136  0.2349
33819W        W76732  22.476   9.451   0.521 -0.0847 -0.2288 -0.0868
33820W        W76733  25.283  18.472   0.696  0.3719  0.1146 -0.1738
33821W        W76734   1.274  11.212   9.537 -0.0680 -0.1702 -0.0111
33822W        W76735  17.593  18.355   5.327 -0.2741  0.0865  0.0627
33823W        W76736  31.794  15.870   3.846  0.0271 -0.0408 -0.0935
33824W        W76737  16.043  14.831   7.652 -0.1271  0.0875 -0.1446
33825W        W76738  24.089  10.647   0.961 -0.5039  0.0978 -0.0791
33826W        W76739  26.683  12.442   9.971  0.1615 -0.2040  0.1032
33827W        W76740  25.200  13.443   4.500 -0.3098  0.0387 -0.1531
33828W        W76741  17.235   3.848   8.116 -0.0327 -0.1523 -0.1266
33829W        W76742  19.029   8.916  26.651  0.0670 -0.2355  0.3599
33830W        W76743  31.742  12.378   7.470  0.1669 -0.3008 -0.1778
33831W        W76744  26.724  12.348   1.826  0.2174 -0.0788 -0.1441
33832W        W76745  29.638   7.294   6.437 -0.0485 -0.2080 -0.3551
33833W        W76746  26.861  18.525   2.850 -0.2075  0.1968 -0.3330
33834W        W76747  26.628  17.942   8.542  0.2232  0.1753  0.2919
33835W        W76748  24.382  16.736  27.512  0.0409  0.0357  0.3146
33836W        W76749  32.554  18.993   0.521  0.0586  0.0831  0.4823
33837W        W76750  27.305  10.272   8.375  0.2490 -0.4811  0.3039
33838W        W76751  26.863  17.887   9.292 -0.0315 -0.0051 -0.2004
33839W        W76752  18.821  17.293  28.959  0.1504  0.1610 -0.0794
33840W        W76753   3.919   3.953  22.220  0.0838 -0.1965 -0.1379
33841W        W76754   3.679  25.852   5.246  0.0354 -0.0115 -0.2441
33842W        W76755  33.071  12.205   8.054 -0.1813 -0.1285 -0.1809
33843W        W76756   3.936  19.318  21.964  0.1804  0.1113 -0.1587
33844W        W76757  16.621  29.281   0.236  0.1103  0.0320  0.1528
33845W        W76758  30.507  11.326   6.760 -0.0674  0.0595 -0.0836
33846W        W76759  32.567  10.193  29.329  0.3483  0.0942 -0.1519
33847W        W76760  31.026   3.787   7.342  0.0848  0.2406  0.1078
33848W        W76761   1.046  14.953   6.591 -0.2551 -0.0023 -0.1498
33849W        W76762  26.680  13.757   7.169 -0.1279  0.2574  0.0187
33850W        W76763  20.806  14.650   7.201  0.0740  0.1146 -0.0033
33851W        W76764  24.557  11.912   7.579 -0.0467 -0.0824 -0.0576
33852W        W76765  27.901  15.660   1.664  0.3892 -0.0410  0.1027
33853W        W76766  29.434  18.888   7.135 -0.2173  0.1536  0.0296
33854W        W76767   7.789   7.678  28.044 -0.1708 -0.1632 -0.3761
33855W        W76768   1.277   5.285   2.728  0.0278 -0.1734  0.0737
33856W        W76769  24.816   5.912   8.234 -0.0434  0.1793 -0.1295
33857W        W76770  28.334   5.533   9.348 -0.0636 -0.3183  0.0764
33858W        W76771   5.039   2.120   5.332  0.1679 -0.0124  0.0755
33859W        W76772  29.254   8.814   3.432  0.1026  0.0246 -0.2050
33860W        W76773  26.568   8.074   8.906 -0.2809 -0.2734 -0.0822
33861W        W76774  29.398  32.852   7.504  0.3558 -0.0197 -0.1599
33862W        W76775  23.644   8.788   8.502 -0.0750 -0.2139  0.2643
33863W        W76776  29.114  15.988   6.432 -0.1231 -0.1210  0.1676
33864W        W76777  33.551  15.135   7.297 -0.2762 -0.0625 -0.1199
33865W        W76778  16.103   1.140   3.720  0.1425 -0.0617  0.0580
33866W        W76779  30.294  15.401   9.579  0.5182  0.2728  0.2129
33867W        W76780  23.012  17.836   0.051  0.1712 -0.2686 -0.2203
33868W        W76781   1.859   5.181  12.267 -0.0570  0.1155 -0.0005
33869W        W76782  22.416  13.717  28.587  0.4153  0.1375 -0.2862
33870W        W76783  29.804  16.600   5.157  0.3128 -0.1209 -0.0914
33871W        W76784  32.455  20.379   8.124  0.2078  0.2335  0.0741
33872W        W76785  30.661  18.312   1.081  0.1030  0.0234 -0.3704
33873W        W76786   1.434  13.814   1.457  0.2628 -0.2183 -0.0641
33874W        W76787   3.414  15.505   0.779 -0.1495  0.1884 -0.4043
33875W        W76788  26.282  17.171  28.728  0.1779  0.0518  0.0158
33876W        W76789  21.229   0.655   8.935  0.1680  0.1467 -0.1022
33877W        W76790  28.924   8.818  11.233  0.1642 -0.1028 -0.1057
33878W        W76791  20.918  15.966   3.462  0.1573  0.0186  0.0368
33879W        W76792  29.536  10.973   5.972 -0.0516 -0.0734  0.1142
33880W        W76793   2.809   8.381  10.684 -0.2789  0.2321 -0.0808
33881W        W76794   0.825  17.030  28.750 -0.0345 -0.1348 -0.1911
33882W        W76795  32.349  10.918   4.560  0.1208 -0.0784  0.0878
33883W        W76796  25.469  11.092   6.355  0.0880  0.1575 -0.3021
33884W        W76797  22.207   7.297   6.910 -0.1054 -0.2512 -0.1059
33885W        W76798  32.192   7.149  10.851  0.1003  0.1525  0.0269
33886W        W76799  28.655  14.969   7.405 -0.0676 -0.1022  0.2373
33887W        W76800  32.434   8.336   8.413 -0.4443  0.3890  0.1104
33888W        W76801  26.859   9.255   8.417 -0.1522  0.0196  0.1609
33889W        W76802   1.803  21.702   9.188  0.2577 -0.1070  0.1062
33890W        W76803   3.971  14.886   8.106 -0.1105 -0.0871  0.2990
33891W        W76804  26.601   9.311   7.028  0.1052 -0.2693 -0.0101
33892W        W76805  27.657  12.796  29.382  0.1826  0.1631 -0.2670
33893W        W76806  24.865  11.821   8.778  0.0861  0.0834 -0.2692
33894W        W76807  22.775   7.399   2.343 -0.2061  0.4009  0.0581
33895W        W76808  22.591  17.807   6.763 -0.0881  0.1419 -0.0504
33896W        W76809  28.351  14.618   9.604  0.0679  0.0358  0.1813
33897W        W76810  24.032   9.174   6.440 -0.1964 -0.2162  0.2329
33898W        W76811   1.141   8.915   7.676 -0.4921  0.2746  0.0469
33899W        W76812  29.886  13.876   6.328 -0.0292  0.0427 -0.1209
33900W        W76813  20.142   8.321   2.992 -0.1756  0.2728 -0.2012
33901W        W76814  31.862   6.701   4.916 -0.2248 -0.0647  0.0877
33902W        W76815  26.828  12.000   7.720  0.0708 -0.0753  0.0325
33903W        W76816   8.255  11.156   8.704  0.0167 -0.0850 -0.0432
33904W        W76817  27.469   9.463   6.523  0.2142 -0.1571 -0.0451
33905W        W76818  33.263   8.249   9.099 -0.0913  0.2069 -0.0814
33906W        W76819   0.541  15.404   6.010 -0.1421  0.1050 -0.1321
33907W        W76820   2.766  15.954   3.226  0.1066  0.3395  0.0896
33908W        W76821  25.686  16.864   8.867  0.0112 -0.1550  0.0371
33909W        W76822  20.259  10.351   6.846 -0.0227  0.0637  0.0426
33910W        W76823  27.173  11.633   3.628 -0.0621 -0.3007  0.2560
33911W        W76824   2.172  24.707  23.218  0.0598 -0.1197  0.0808
33912W        W76825  23.661   9.877   3.062  0.1125  0.0667 -0.1169
33913W        W76826   5.788   6.325   7.102  0.0806  0.1820 -0.0286
33914W        W76827  26.471   7.561   4.949  0.0981  0.2433 -0.0817
33915W        W76828  31.907  24.763   9.004 -0.0453 -0.1042 -0.0366
33916W        W76829  29.489   6.386   3.716 -0.1452  0.0992 -0.1855
33917W        W76830  19.588  18.238   3.520  0.1312  0.2472  0.0249
33918W        W76831   3.571   9.544   0.424  0.3051 -0.1408  0.1237
33919W        W76832  26.468  13.400   2.078  0.1386  0.4466 -0.1719
33920W        W76833   0.857   9.110   4.085 -0.2302  0.1830  0.0077
33921W        W76834   2.361   9.520   5.220 -0.0532  0.0531 -0.2188
33922W        W76835   0.987  10.216   8.239 -0.0487 -0.2402 -0.0838
33923W        W76836  30.382  19.033   7.852 -0.0515  0.3321 -0.1579
33924W        W76837   7.201   8.439   7.341  0.0004  0.4268  0.2999
33925W        W76838  28.930  11.395   4.465  0.1056  0.0956  0.0875
33926W        W76839  19.013   6.360   3.450 -0.2299  0.1927 -0.0254
33927W        W76840   2.556   7.836   9.501  0.4094 -0.0864  0.0373
33928W        W76841   7.273   2.896  12.990  0.1616 -0.0981  0.0227
33929W        W76842  12.386  19.953   4.709  0.0149  0.1685 -0.1613
33930W        W76843  29.759  17.553   9.595  0.0166 -0.0348 -0.1657
33931W        W76844  25.715  14.023   1.198  0.2359  0.1523 -0.0811
33932W        W76845  16.846  27.429   6.846 -0.0315  0.0723  0.1551
33933W        W76846   3.499  17.734  28.819  0.0729 -0.0164 -0.2190
33934W        W76847  21.696  21.749   7.786 -0.0924  0.0877  0.0133
33935W        W76848  26.939   8.483   5.787  0.0023 -0.0531  0.0432
33936W        W76849   3.829  14.188   9.894  0.0308  0.0649 -0.3199
33937W        W76850  32.996  22.999   6.023  0.4267  0.0269  0.1140
33938W        W76851  21.237  15.700   8.101 -0.2027  0.1885 -0.0322
33939W        W76852  29.479  11.269   9.405  0.0158  0.1099 -0.2033
33940W        W76853  30.638   7.663   7.259  0.2330  0.2284 -0.2522
33941W        W76854  24.649   3.037   5.832 -0.1357 -0.0583 -0.1723
33942W        W76855  24.161  11.512   8.666 -0.1355  0.0373  0.2512
33943W        W76856  22.881  18.188  25.944  0.2542 -0.2243  0.0265
33944W        W76857  21.611  15.806   4.977 -0.0317 -0.1025 -0.3068
33945W        W76858   2.277  25.040   6.881 -0.3389  0.1337 -0.1995
33946W        W76859  14.025  13.230   2.515 -0.0955 -0.0103 -0.1340
33947W        W76860  26.254  16.795  27.738  0.2052 -0.0936  0.1857
33948W        W76861   2.418  14.806  28.652 -0.2514  0.0931  0.0155
33949W        W76862   9.085   5.194   8.835 -0.1610 -0.4903  0.0988
33950W        W76863   4.693  16.995  28.132 -0.3264 -0.1187  0.2634
33951W        W76864  32.301  12.575   5.224 -0.5757 -0.1653 -0.2487
33952W        W76865  28.914  10.163   9.635  0.1094 -0.1059 -0.1011
33953W        W76866   3.970  17.203  27.527  0.0669 -0.1257 -0.1010
33954W        W76867  30.226  12.759  27.291 -0.1385 -0.0953  0.2873
33955W        W76868   6.585   5.642   7.431  0.2237 -0.2540 -0.0945
33956W        W76869  21.652   4.866   5.420  0.3903  0.0794 -0.2548
33957W        W76870  23.066   1.617   6.184  0.2660  0.3910  0.0414
33958W        W76871  27.371   5.816   2.534  0.0073  0.1072 -0.1577
33959W        W76872   2.591   2.859   2.190 -0.0808  0.1077  0.2246
33960W        W76873  32.277  12.269   7.549 -0.0424  0.0208  0.0001
33961W        W76874  27.512  21.791   5.450 -0.0474  0.1267 -0.0443
33962W        W76875  23.920  31.165  29.414 -0.0065 -0.1115  0.0952
33963W        W76876  34.037   8.718   2.669 -0.4890  0.0767 -0.2412
33964W        W76877  29.311  16.816   6.055  0.3184 -0.2281 -0.3225
33965W        W76878   0.445   8.462  11.535  0.0743 -0.0235  0.0667
33966W        W76879  32.710  12.601   6.810  0.1189  0.1167 -0.1789
33967W        W76880  19.944  14.650   4.025  0.1338  0.2996 -0.0374
33968W        W76881   4.168   5.289   9.328  0.0640  0.1045  0.1089
33969W        W76882   1.654   0.590   9.755  0.0655 -0.2050  0.0336
33970W        W76883  32.091   7.712  29.420 -0.0172 -0.0921 -0.0697
33971W        W76884  16.606  12.239   0.531  0.1266  0.3824 -0.0420
33972W        W76885  23.113   6.197   9.492  0.2569  0.1646  0.1088
33973W        W76886  20.665  14.233   4.758  0.0173  0.2730  0.0257
33974W        W76887  16.587  11.604  27.846  0.1059  0.2699  0.0332
33975W        W76888  27.068  18.382   4.921 -0.0040  0.1525 -0.0309
33976W        W76889  24.735  10.260  27.531 -0.1706 -0.2321 -0.1950
33977W        W76890   0.606  12.935   2.783 -0.4782  0.0557 -0.0103
33978W        W76891  23.558   9.741   7.242  0.5448  0.1297 -0.0429
33979W        W76892  24.631   5.301   5.349 -0.1890 -0.0515  0.1406
33980W        W76893  14.542  18.256   1.339 -0.0567  0.0364  0.0073
33981W        W76894   1.905  12.534   8.207 -0.0094 -0.1332 -0.0318
33982W        W76895  20.471  14.575  28.619  0.1199 -0.1735 -0.1936
33983W        W76896  23.543  13.815   5.260 -0.0883 -0.0980 -0.1018
33984W        W76897  18.973   7.575   7.978 -0.3474  0.0187  0.0755
33985W        W76898   0.131  15.196   3.355 -0.1046 -0.4069 -0.1464
33986W        W76899  23.514  16.263   1.506  0.0217  0.1060 -0.2192
33987W        W76900  20.680   6.853   3.450  0.3228 -0.1743 -0.1652
33988W        W76901  22.613  21.039   5.466  0.2040  0.1384  0.0950
33989W        W76902  25.400  16.721   3.886 -0.0622 -0.1904 -0.0087
33990W        W76903  19.860   6.616   6.684  0.0846 -0.0549  0.2180
33991W        W76904   0.163  16.279   3.605  0.1399 -0.0417 -0.0834
33992W        W76905  25.531  22.035   7.335  0.0360 -0.1055 -0.0003
33993W        W76906  10.821  16.282   5.639 -0.1710  0.0332 -0.0646
33994W        W76907  32.944   7.365  10.412  0.2094  0.1360  0.4101
33995W        W76908  27.006   2.346   7.481  0.0415 -0.1207  0.1306
33996W        W76909  24.964  10.275   6.722  0.0798  0.1712  0.2117
33997W        W76910  32.598  17.305   5.673  0.3469 -0.0954  0.1028
33998W        W76911  29.008  11.146   9.453  0.0121  0.3531  0.0941
33999W        W76912  19.078  17.293   5.408  0.1014 -0.0679  0.0479
34000W        W76913  21.353   1.726   8.534  0.1393 -0.1259  0.0675
34001W        W76914  20.925  19.250   7.031 -0.0267  0.1252 -0.1454
34002W        W76915  22.574   9.988   5.935  0.3854  0.0613 -0.0243
34003W        W76916  25.356  10.067   5.412  0.0116  0.0800  0.0667
34004W        W76917  24.843  28.403   4.268  0.1931  0.0709 -0.1841
34005W        W76918  17.550  15.307   5.919  0.0757 -0.0012 -0.0103
34006W        W76919  25.484  13.133   4.193  0.0711 -0.1473  0.0234
34007W        W76920  25.383   9.753   2.595 -0.3368  0.2547  0.1176
34008W        W76921  27.569  13.347   9.452 -0.0253  0.1957 -0.1271
34009W        W76922  33.877   4.831   3.898  0.4179 -0.3701 -0.1530
34010W        W76923  30.227  13.254   8.544  0.0553  0.0465 -0.1713
34011W        W76924   3.186   4.669  12.197 -0.0245 -0.1025 -0.0654
34012W        W76925  31.359   6.255  11.089  0.1879  0.2159 -0.3749
34013W        W76926   5.127   9.783   5.768 -0.1906  0.0268 -0.2734
34014W        W76927   9.296   6.461   8.386  0.2612 -0.1865 -0.1494
34015W        W76928  26.292  14.129   8.623 -0.0391 -0.2340 -0.2126
34016W        W76929  22.373   9.696   6.909  0.0866 -0.1652  0.0843
34017W        W76930  26.722  15.024   4.669  0.1929  0.0231 -0.2089
34018W        W76931  24.915  19.588   4.365  0.0757 -0.0361 -0.0701
34019W        W76932  24.867  13.621   9.594 -0.0371 -0.0911 -0.2407
34020W        W76933   8.712  11.939   3.346  0.1985 -0.4482  0.0411
34021W        W76934   5.399  14.684   7.753  0.0382 -0.1856  0.1561
34022W        W76935  31.936  15.916   1.613  0.0360 -0.2076 -0.0705
34023W        W76936  12.308   7.350   2.685  0.0958  0.1334  0.0516
34024W        W76937  26.796  10.860   9.968 -0.0787  0.3775  0.1723
34025W        W76938  25.001   8.806   4.596 -0.1330 -0.0841 -0.1365
34026W        W76939  33.967  17.295   7.943  0.0286 -0.2081  0.0730
34027W        W76940   4.694  17.831   6.641 -0.1625  0.1250 -0.0984
34028W        W76941  31.664  14.148   4.185 -0.0182 -0.0670  0.1237
34029W        W76942   4.021  12.285  10.804 -0.1472 -0.1171  0.2585
34030W        W76943  31.724   5.685  10.535 -0.1724  0.1669 -0.1865
34031W        W76944   1.814  11.278   6.197  0.4367 -0.1595 -0.0323
34032W        W76945  32.159  10.112   9.800  0.3796 -0.0717  0.0615
34033W        W76946  14.548  15.051   4.881 -0.1757 -0.1108  0.0330
34034W        W76947  26.504   6.697  27.907 -0.1271  0.0347 -0.0980
34035W        W76948   1.410   3.592   9.632  0.4149 -0.3603  0.0428
34036W        W76949   5.359  11.514   9.605  0.1016 -0.1477 -0.0236
34037W        W76950  25.736   6.753   2.092 -0.2360  0.0527  0.1415
34038W        W76951   0.618   3.244   9.781 -0.0025 -0.0770 -0.0312
34039W        W76952  20.835  15.377   7.732 -0.1224 -0.0668  0.0352
34040W        W76953  26.569  26.840   2.225  0.0275 -0.2181 -0.2161
34041W        W76954  27.228  20.133   9.432 -0.5331 -0.1222  0.2023
34042W        W76955  33.861   8.042   9.011  0.1439 -0.3137 -0.3006
34043W        W76956  31.251  11.791   3.872 -0.0931 -0.0364  0.1409
34044W        W76957  27.121  15.086   5.668  0.0313  0.2135  0.0687
34045W        W76958  28.725  19.856   6.123  0.0499 -0.1415 -0.0968
34046W        W76959  31.839   2.658   2.355 -0.1302 -0.4851  0.1336
34047W        W76960  32.611   4.643   3.927  0.3950 -0.0981 -0.2902
34048W        W76961  30.275   3.495   6.782 -0.1605 -0.0514 -0.1524
34049W        W76962  33.419   9.047   8.653  0.2120 -0.0261  0.0058
34050W        W76963   2.691  21.088   5.058  0.0523 -0.3402 -0.1487
34051W        W76964   7.448  17.789   4.720 -0.0508 -0.2471 -0.0432
34052W        W76965  23.473  19.885   4.494 -0.1416  0.0507 -0.2689
34053W        W76966  27.821   1.665   9.415 -0.1326 -0.0796  0.3117
34054W        W76967  33.634   6.932   7.429  0.1138 -0.0198  0.1615
34055W        W76968   2.372   2.421   4.638  0.0531 -0.0895  0.3655
34056W        W76969  23.928   9.861   6.949  0.1313 -0.1392  0.2562
34057W        W76970  29.313  11.030   3.738 -0.0006 -0.0093  0.2556
34058W        W76971  34.142  16.105   9.294  0.2617  0.1312  0.0439
34059W        W76972  16.934  15.203   7.659  0.0506  0.1184  0.0699
34060W        W76973  28.947  20.045   5.763 -0.0416  0.0620 -0.2040
34061W        W76974  29.279  10.964   9.800 -0.2231 -0.0193 -0.1980
34062W        W76975  16.947   6.771   9.703  0.1253 -0.1619 -0.0608
34063W        W76976  23.602   8.415   7.596  0.1789 -0.1081  0.3674
34064W        W76977  30.598  16.524   9.719  0.1737 -0.0011  0.1055
34065W        W76978  18.313  13.296   2.872 -0.1451 -0.1212  0.1168
34066W        W76979   5.719   3.498  27.351 -0.0163 -0.2124  0.2327
34067W        W76980  25.143  12.001   0.598 -0.0340  0.2436  0.2165
34068W        W76981   0.657  12.158  28.274 -0.0982 -0.0773  0.0215
34069W        W76982  24.220  23.763   2.547 -0.1662  0.1518 -0.2809
34070W        W76983  22.473  19.676   8.240 -0.2151 -0.2711  0.0453
34071W        W76984  16.992  13.649  26.919 -0.2593 -0.1346  0.2962
34072W        W76985  22.672  12.405   4.732 -0.0569 -0.0428 -0.2585
34073W        W76986   1.279  10.681   7.879  0.2507 -0.2762 -0.1028
34074W        W76987  22.850   5.182   8.286 -0.1500  0.2376 -0.1578
34075W        W76988   5.187   3.448  12.682  0.0870  0.0823 -0.1688
34076W        W76989  23.821  10.903   7.851 -0.1037  0.0339 -0.2128
34077W        W76990   1.696   8.456   2.623  0.0250  0.2279 -0.1184
34078W        W76991  26.483   8.279   4.338 -0.1771 -0.1427 -0.3680
34079W        W76992  14.244   5.108   9.992  0.0009 -0.0328 -0.1781
34080W        W76993   5.238  33.808  11.760  0.0813 -0.0064 -0.2356
34081W        W76994  14.844  20.411   5.498  0.1607  0.2446  0.0241
34082W        W76995  22.239   4.201   2.300 -0.2295 -0.1374  0.1234
34083W        W76996  31.479   9.685   8.638 -0.1301 -0.0129  0.0701
34084W        W76997  21.503  16.520  23.556  0.1111  0.0834  0.1685
34085W        W76998  28.369   5.031  29.272 -0.2154  0.1510 -0.2160
34086W        W76999  28.300   4.968   3.564 -0.1300 -0.1344 -0.0144
34087W        W77000  34.276  18.979   1.828  0.2666  0.2107  0.0069
34088W        W77001  27.195  23.046   7.886  0.0612 -0.2060  0.0296
34089W        W77002  26.221   4.507   3.962  0.2367  0.2594  0.3717
34090W        W77003  22.382   4.863   5.995 -0.4066  0.0553  0.1113
34091W        W77004   1.448   7.427   6.058  0.0245 -0.2473  0.1745
34092W        W77005  13.621  15.887   7.656 -0.2423 -0.1804  0.1809
34093W        W77006  32.284  15.248   7.910  0.3351 -0.1463  0.3391
34094W        W77007  29.572  15.527   7.896 -0.2145 -0.0394  0.0439
34095W        W77008  26.551  17.004   8.797 -0.1250  0.2031 -0.1597
34096W        W77009  28.341  14.541   6.347  0.2573 -0.1042 -0.2463
34097W        W77010  19.921   1.800  10.549  0.3489 -0.1021  0.1323
34098W        W77011   0.092   7.679  11.293 -0.0973 -0.0496  0.3541
34099W        W77012  26.853  15.201   2.221  0.0561 -0.2773  0.1955
34100W        W77013   7.661   8.444   4.397 -0.0300 -0.1719 -0.1278
34101W        W77014  30.469   5.852   8.445  0.3441  0.0730  0.0854
34102W        W77015  26.781   6.713   1.335  0.0896  0.2217  0.1782
34103W        W77016  19.222   9.926  24.018 -0.0708 -0.0622 -0.0258
34104W        W77017  28.111  18.918   4.504 -0.1846  0.1766  0.3504
34105W        W77018  16.768   9.428   6.958 -0.0493  0.1717 -0.2342
34106W        W77019   7.241   6.751   8.817 -0.0362 -0.0844  0.3902
34107W        W77020  27.740  10.235   1.225  0.0389  0.2011  0.0341
34108W        W77021  21.194   8.847   7.725 -0.1100 -0.1412  0.0762
34109W        W77022  22.491   5.630   8.356 -0.0025  0.0304  0.2725
34110W        W77023  22.757  12.687   3.829  0.0066 -0.0347  0.1331
34111W        W77024   7.685  10.058   2.219 -0.0226  0.1932 -0.0958
34112W        W77025  22.213  20.008   7.316 -0.1745  0.0427  0.0035
34113W        W77026  29.711  21.919   5.509  0.2978  0.0105  0.2179
34114W        W77027  22.197  14.445   7.392 -0.2656 -0.2927 -0.0148
34115W        W77028  27.882  13.029   1.620 -0.4460 -0.0590 -0.0202
34116W        W77029  28.435  15.055   8.259  0.2737 -0.3369  0.0853
34117W        W77030  22.841   6.598   9.763  0.0240  0.1649  0.2268
34118W        W77031  16.801  19.146   5.948 -0.0644  0.0527 -0.1644
34119W        W77032  32.353   9.704   9.556 -0.0303  0.0443  0.0648
34120W        W77033  30.994  10.426   8.386  0.2643 -0.1302  0.2027
34121W        W77034  16.256  32.125   6.506 -0.2820 -0.2156 -0.1362
34122W        W77035  30.509  11.164   8.157 -0.1425 -0.1049  0.0555
34123W        W77036   1.780  10.810   6.075 -0.1578  0.1038 -0.1147
34124W        W77037  28.762   4.693   8.977 -0.2264 -0.2332 -0.2728
34125W        W77038  26.105   9.702   8.761 -0.0087  0.0615  0.1076
34126W        W77039  29.915  10.638   7.907  0.3587  0.3101  0.2531
34127W        W77040  27.411   5.831   3.470 -0.2602 -0.0938 -0.2373
34128W        W77041  17.028   6.917   8.125  0.1284 -0.1878  0.3342
34129W        W77042   3.622   9.362  29.748 -0.3458  0.1308  0.2253
34130W        W77043  23.901  12.832   6.133 -0.2375  0.1177 -0.0621
34131W        W77044  27.409   9.548   2.092 -0.2532  0.3227  0.1291
34132W        W77045  29.938  11.467   6.054 -0.0568 -0.1626 -0.2930
34133W        W77046  19.463  16.873   6.139  0.0656  0.0401 -0.1036
34134W        W77047   1.931  18.515   9.385  0.2798 -0.0970 -0.0973
34135W        W77048  32.110   5.952   3.959  0.2519  0.2819  0.0172
34136W        W77049  32.683   8.828   6.873  0.2411 -0.1673  0.2738
34137W        W77050  28.841   8.905   4.108 -0.1215  0.0205  0.0687
34138W        W77051  26.601  11.872   5.653 -0.1084  0.0941 -0.0076
34139W        W77052  32.130   3.649   6.672 -0.1094 -0.1944 -0.2858
34140W        W77053  28.780  13.683   9.932  0.1542  0.0908 -0.0803
34141W        W77054  28.418  13.449   0.025  0.1090 -0.1773 -0.1991
34142W        W77055  31.824  23.852  27.459 -0.1939  0.0251  0.2316
34143W        W77056  20.040   7.660   0.298  0.2000 -0.0369  0.1687
34144W        W77057  17.929   9.494   3.933 -0.2045 -0.2925 -0.0416
34145W        W77058   0.656  10.016   9.493 -0.4320 -0.1916  0.2685
34146W        W77059   0.155   9.425   5.090 -0.0641  0.1853  0.1061
34147W        W77060  34.236  14.732   8.626  0.3047  0.2396 -0.2049
34148W        W77061  26.222  20.680   3.674 -0.3022 -0.1014  0.0497
34149W        W77062   1.910  14.375   5.478 -0.1363  0.1357  0.0813
34150W        W77063   1.581   5.029   2.482 -0.2925 -0.2237 -0.0417
34151W        W77064  32.450   7.134   4.781 -0.0820  0.1003  0.0165
34152W        W77065  33.486   7.545   6.161 -0.3141  0.2588  0.3779
34153W        W77066  24.124  15.606   5.916 -0.0941 -0.2632 -0.2245
34154W        W77067  25.946   2.745   7.098  0.1204  0.0261  0.2708
34155W        W77068   4.136  32.892  23.724  0.0925  0.1991 -0.0232
34156W        W77069   1.756  12.432   4.899 -0.3281 -0.1078 -0.1284
34157W        W77070  31.976  16.311   5.593 -0.4068 -0.4506  0.1846
34158W        W77071  24.230  10.074   4.973 -0.0856  0.0285 -0.0625
34159W        W77072  20.969  11.062  21.737  0.2140  0.0848  0.4411
34160W        W77073  31.591  22.976   5.525 -0.1191 -0.0900  0.0475
34161W        W77074   7.916  13.980   6.283  0.1429  0.0211  0.4717
34162W        W77075  24.785   7.756  16.285 -0.1499  0.2976  0.1055
34163W        W77076  31.262  33.929  29.747 -0.2083  0.0729  0.1763
34164W        W77077  11.351   1.517   3.285  0.1869 -0.1491 -0.0966
34165W        W77078  27.984  16.090   3.143 -0.0968  0.4124 -0.2196
34166W        W77079  14.441   7.702  19.383 -0.2432  0.2472  0.1346
34167W        W77080   7.625  11.549  27.816 -0.1243 -0.0012 -0.0267
34168W        W77081  17.575  16.513   4.503  0.2921  0.0982  0.0718
34169W        W77082  29.576   8.705   4.476  0.1698  0.2152  0.2840
34170W        W77083  26.580  18.523  26.500  0.1220 -0.0840  0.4313
34171W        W77084  30.185  16.111   3.128  0.0714 -0.1187 -0.0283
34172W        W77085  34.410  15.254  24.321  0.0697  0.2412  0.1561
34173W        W77086  20.786  15.685  28.557  0.0187  0.0665  0.2724
34174W        W77087  16.942  24.399   8.042 -0.1177 -0.0919 -0.1176
34175W        W77088   3.292  15.379  20.914  0.1705 -0.2387 -0.0040
34176W        W77089  18.001  30.307   1.362  0.1021 -0.0085  0.0500
34177W        W77090  33.867  22.343  26.379  0.1920 -0.1507 -0.4155
34178W        W77091  28.514  13.619  23.884  0.1126  0.0945  0.1748
34179W        W77092  31.695  16.551   9.402  0.0081 -0.2145 -0.1435
34180W        W77093  29.325  20.722   7.352 -0.2370  0.1034  0.2002
34181W        W77094  27.208  13.758   3.480 -0.1421 -0.1532  0.5353
34182W        W77095  28.324  21.431   9.602 -0.3082  0.2184 -0.0869
34183W        W77096  29.286  14.413  28.241 -0.2394 -0.1203 -0.2679
34184W        W77097  17.276  20.152   6.725 -0.0247 -0.2479  0.2799
34185W        W77098  34.134  17.833   1.009  0.1330  0.2302 -0.2344
34186W        W77099  26.526  20.930  27.583 -0.2508  0.2011 -0.4477
34187W        W77100  28.274  15.225   2.257  0.0319 -0.5164 -0.1150
34188W        W77101  21.374  14.547  21.722  0.0610 -0.1509  0.4420
34189W        W77102  23.445  28.672  22.922  0.2551  0.2799  0.1789
34190W        W77103  24.323  23.852   1.246 -0.2632  0.0780  0.0704
34191W        W77104   9.101  12.859   2.402 -0.1452 -0.4747 -0.0793
34192W        W77105  23.825  17.925   7.565  0.2886  0.2461  0.0490
34193W        W77106  25.828  19.202  21.643  0.0271  0.0947 -0.1036
34194W        W77107   0.075  16.439   9.357 -0.1967 -0.0857  0.0519
34195W        W77108  31.902  14.961   1.525 -0.1110 -0.0903  0.1489
34196W        W77109  29.951  15.505   9.161  0.0319 -0.0764 -0.1535
34197W        W77110  21.857  19.729  24.397 -0.0587 -0.0403 -0.1111
34198W        W77111  23.300  15.803   7.244 -0.1369  0.0704  0.0499
34199W        W77112  15.878  11.812  28.485  0.0831  0.1193 -0.0281
34200W        W77113   3.776  15.080  29.016 -0.0312 -0.0912 -0.0246
34201W        W77114  26.093  16.938   1.638  0.0498 -0.1396 -0.0157
34202W        W77115  15.048  21.166   4.796  0.0412 -0.0774 -0.0065
34203W        W77116  16.818   1.622  19.017 -0.1677  0.0679  0.1947
34204W        W77117   3.154  21.757   2.801  0.1249 -0.0831  0.2735
34205W        W77118  23.211  18.914  29.478 -0.2037 -0.0256 -0.1901
34206W        W77119  21.440   6.672  21.200  0.2676 -0.0626  0.1640
34207W        W77120  28.120  13.819   3.604  0.1632  0.0879 -0.2507
34208W        W77121  19.756  12.968  25.368 -0.1624 -0.0822 -0.0784
34209W        W77122  24.207  18.117  26.816  0.0161 -0.0483  0.1177
34210W        W77123  28.429   9.605  21.987 -0.1597 -0.0369  0.2213
34211W        W77124  17.051  19.369   6.699  0.0831  0.2936  0.1614
34212W        W77125  27.813  12.818   4.180  0.0486  0.1191 -0.0950
34213W        W77126  31.331  12.588   7.215  0.1537 -0.2368  0.1652
34214W        W77127  24.994  19.252   8.705  0.1157  0.0082 -0.1340
34215W        W77128  21.204  15.204  20.673  0.0262  0.1288 -0.0002
34216W        W77129  25.972   7.629  21.367  0.1818  0.1879 -0.1947
34217W        W77130  28.217  24.254  28.984  0.1269 -0.0048  0.1483
34218W        W77131  30.904  26.421   0.083  0.2762 -0.0282 -0.0406
34219W        W77132  19.221  10.864  29.737 -0.0065 -0.1325  0.2098
34220W        W77133  20.153  27.910   1.719  0.2492  0.1711 -0.1919
34221W        W77134  26.288  19.872   7.806 -0.2627  0.0746  0.0044
34222W        W77135   0.540  25.947  25.961  0.0272 -0.2670 -0.2287
34223W        W77136  27.057  15.195   8.623 -0.0602  0.0946 -0.0265
34224W        W77137  22.013  18.925   2.791 -0.1441  0.1588 -0.1116
34225W        W77138  33.429   9.565   1.754  0.1645  0.1571  0.0807
34226W        W77139  29.660  15.672  28.707 -0.0535 -0.0050  0.1522
34227W        W77140  28.740  15.444   8.557  0.1693  0.0008  0.1387
34228W        W77141  27.931  22.166  29.681 -0.1973  0.1284  0.1221
34229W        W77142  22.485  10.589   5.771 -0.3449  0.1436  0.1798
34230W        W77143  14.674  26.125   3.655 -0.2743  0.2289  0.1412
34231W        W77144  21.556  19.051  24.709  0.0336 -0.0272  0.2513
34232W        W77145   2.681  14.498   3.840 -0.1972  0.3019 -0.1252
34233W        W77146  23.034  21.391   7.875  0.0873  0.0357  0.0567
34234W        W77147  26.448  15.721   6.019  0.2461  0.0346  0.1245
34235W        W77148  27.480  24.448   1.686  0.1732  0.2744  0.0590
34236W        W77149  17.100  15.220  27.943 -0.0698  0.0462 -0.1520
34237W        W77150  18.884  20.231  23.310  0.1479  0.2241  0.1043
34238W        W77151  22.300  15.216  26.597 -0.2159 -0.1320 -0.1770
34239W        W77152  22.055  19.643  28.976  0.0289 -0.0759 -0.0760
34240W        W77153  22.639  14.666   3.249  0.0233  0.0404 -0.1831
34241W        W77154  16.175  17.206  24.084 -0.1736 -0.3216  0.2693
34242W        W77155  22.382  17.226  29.597  0.1170 -0.1325 -0.0347
34243W        W77156  32.150   9.912   7.462  0.0241  0.1169 -0.1062
34244W        W77157  17.625  24.818  29.695  0.0757  0.1837 -0.2313
34245W        W77158  28.908  21.915   7.659  0.0727  0.0687 -0.3005
34246W        W77159  25.489  15.192   8.952  0.2219 -0.0641  0.0602
34247W        W77160  27.828  25.761  20.709  0.0869  0.2163 -0.1151
34248W        W77161   4.845   5.607  28.932 -0.1003 -0.0725  0.0492
34249W        W77162  32.902  26.127   6.378  0.1694 -0.1749  0.2994
34250W        W77163  26.036  12.506   2.580  0.0617  0.0721  0.1276
34251W        W77164  20.998   6.170  24.067  0.1256 -0.1059 -0.1049
34252W        W77165  18.606  22.152   2.236  0.1465 -0.0080 -0.1978
34253W        W77166  17.667  12.251  19.362 -0.2871 -0.0697  0.1158
34254W        W77167  30.572  16.068  29.074  0.3340  0.1503  0.2106
34255W        W77168  16.478   4.675   0.541  0.0701  0.0084  0.1121
34256W        W77169  30.614  11.779  25.691  0.0120 -0.1286 -0.1601
34257W        W77170  25.933  28.393  23.458 -0.0415  0.1167 -0.2639
34258W        W77171  15.348  18.051  22.438 -0.0029  0.2589  0.0714
34259W        W77172  30.279   3.439  23.453 -0.0456 -0.0005  0.1253
34260W        W77173  30.009   8.260   2.117  0.3489  0.2753  0.0075
34261W        W77174   4.866  20.390   2.511 -0.5424  0.1334  0.0435
34262W        W77175  19.082  21.568  23.200  0.0908 -0.1775 -0.1899
34263W        W77176  33.174  31.572   4.710 -0.3921  0.0786 -0.1054
34264W        W77177  25.724  14.644   0.505 -0.3375  0.1515  0.0833
34265W        W77178  24.399  21.007   8.298 -0.3937  0.0721 -0.0732
34266W        W77179  32.951  25.381   7.520 -0.2459  0.0709  0.1413
34267W        W77180  28.327   7.688   4.375  0.1890 -0.1976 -0.2777
34268W        W77181   5.313  14.720   1.873  0.0686  0.0691  0.2520
34269W        W77182  23.486  17.558   2.697 -0.1129 -0.2703 -0.1955
34270W        W77183   7.108   2.071  11.319  0.2700 -0.2317  0.1257
34271W        W77184  27.556  19.012  27.093 -0.1069 -0.0597  0.2333
34272W        W77185  28.480   8.461   9.401 -0.1323  0.1624 -0.1864
34273W        W77186  24.493  22.959  18.586 -0.1101  0.2509  0.0375
34274W        W77187  22.660   6.985  28.229 -0.3656 -0.1900  0.1141
34275W        W77188  33.136  20.684   4.686 -0.2555  0.0873 -0.1157
34276W        W77189   7.098  18.747   1.320 -0.5991 -0.0309  0.2328
34277W        W77190  23.763  11.420  25.854 -0.2739  0.1706 -0.0778
34278W        W77191  18.108  23.823   7.596  0.0675  0.3867 -0.0870
34279W        W77192  28.642  20.560  22.996 -0.3425  0.1525 -0.1018
34280W        W77193  16.642  10.947   2.102  0.0801  0.0575 -0.0090
34281W        W77194  26.399  10.519   0.738 -0.0175  0.0557 -0.3203
34282W        W77195  24.357  19.486   4.867  0.0538 -0.0069  0.3044
34283W        W77196  16.532   6.219  24.883  0.0249  0.1231 -0.3006
34284W        W77197  22.777  20.980   6.633 -0.3310  0.0939  0.2003
34285W        W77198   3.954   9.518   0.847  0.0555 -0.0931 -0.0033
34286W        W77199   4.438   7.211   2.869 -0.2918 -0.0447  0.2767
34287W        W77200  32.512  19.645   5.727 -0.0397 -0.3349 -0.0263
34288W        W77201  29.556   8.806   2.993  0.1111  0.1785 -0.0689
34289W        W77202  33.274   4.112   8.789  0.0300  0.0790  0.1277
34290W        W77203  29.383  15.479   9.207 -0.1724 -0.0212  0.2516
34291W        W77204  27.116  12.735  26.502  0.0339 -0.2062  0.1817
34292W        W77205  21.228  21.167   1.218  0.3245  0.0469  0.0494
34293W        W77206   0.843  13.741   3.950 -0.1791  0.3005 -0.0553
34294W        W77207  31.762  14.943   2.040 -0.0715 -0.1455 -0.0327
34295W        W77208  24.695  25.409   7.340 -0.1556 -0.0652 -0.0342
34296W        W77209   4.407  20.550  27.340  0.5816 -0.0178  0.0065
34297W        W77210  18.099  20.149  21.152  0.0420 -0.0393  0.0527
34298W        W77211  31.544  15.960  26.502  0.0216  0.0251  0.2105
34299W        W77212   0.963  17.777   5.842 -0.1705 -0.1699 -0.1556
34300W        W77213  18.662  18.362  27.322 -0.0336 -0.0615 -0.2357
34301W        W77214  18.699   0.138  23.968 -0.0825 -0.0473 -0.2896
34302W        W77215  31.248  11.012  29.498 -0.2350 -0.3297  0.0583
34303W        W77216  25.656   9.519   9.004 -0.4639 -0.0418  0.3224
34304W        W77217  17.909   3.942   1.473 -0.0949 -0.5560 -0.1182
34305W        W77218  26.166  14.629   0.826 -0.0649  0.0422 -0.1215
34306W        W77219  18.069  13.683   7.029 -0.2074  0.1605  0.4593
34307W        W77220  34.393  16.289   2.758  0.0336 -0.0736  0.3068
34308W        W77221  32.182  15.601  29.513 -0.3090  0.3091  0.5036
34309W        W77222  32.722  16.901   4.788  0.1175 -0.0423  0.0023
34310W        W77223  12.339  12.155   0.196 -0.1035  0.1977  0.2341
34311W        W77224  21.750  25.033   6.556 -0.2217 -0.1688 -0.0870
34312W        W77225   1.512   2.248  11.274 -0.3467  0.0451 -0.0815
34313W        W77226  20.959  27.536  22.388 -0.2923  0.1974 -0.2920
34314W        W77227  17.963  16.689  22.439  0.0715  0.0196  0.3381
34315W        W77228  34.117  17.192  22.780 -0.0759 -0.0131  0.0176
34316W        W77229  16.755  10.042  29.031 -0.1082 -0.0751  0.3470
34317W        W77230  24.599  15.238   4.662  0.0491 -0.0373  0.1312
34318W        W77231  14.180  12.778   5.517 -0.0044 -0.1322 -0.2706
34319W        W77232  32.626  12.483   4.741 -0.0895  0.3493 -0.1597
34320W        W77233  29.025  26.519   6.992 -0.1227 -0.0868 -0.0171
34321W        W77234  20.709   9.483  25.211  0.1880  0.0883 -0.2472
34322W        W77235  19.993  11.568   4.500 -0.1860 -0.2665  0.1392
34323W        W77236  26.421  15.247  29.226  0.2671 -0.2070  0.3473
34324W        W77237  30.958  21.056   5.459  0.1736 -0.3668  0.3538
34325W        W77238  24.394  25.741   0.016 -0.0356  0.4390 -0.4741
34326W        W77239  26.820  22.038   7.018  0.0087 -0.4145  0.0628
34327W        W77240  25.533  10.578  27.428  0.0262 -0.2066  0.1852
34328W        W77241  24.582   2.549   5.959  0.3115 -0.0866 -0.0880
34329W        W77242  32.702  13.430   1.943  0.0447 -0.3521  0.0801
34330W        W77243  21.743   7.947  29.481  0.1269  0.0653  0.1689
34331W        W77244  22.285  21.145   0.051  0.3370 -0.0118  0.2718
34332W        W77245  18.847   9.332   5.031 -0.1940 -0.1993 -0.1789
34333W        W77246   4.951   9.284   5.565 -0.2089  0.1429  0.2074
34334W        W77247  28.457   1.280  28.834 -0.2536  0.5493 -0.0404
34335W        W77248   1.514  27.356   7.595  0.1626  0.0726 -0.0778
34336W        W77249  19.776  18.636   0.095  0.0563 -0.0168  0.0265
34337W        W77250  26.234   9.010  23.169 -0.4295  0.0906 -0.2458
34338W        W77251  31.313  12.291  21.036 -0.3992 -0.2103 -0.2640
34339W        W77252  23.016  24.026   0.180  0.1130  0.0954  0.2066
34340W        W77253  24.572  19.481   2.721 -0.2576  0.2495  0.1167
34341W        W77254  20.093  19.036  25.286 -0.1206 -0.4737 -0.0795
34342W        W77255  25.428  22.372  28.705 -0.2093  0.1278  0.3353
34343W        W77256   8.108  13.461   2.800 -0.0212 -0.0774  0.0577
34344W        W77257  16.802  19.585   0.144 -0.0818 -0.1085  0.2127
34345W        W77258  19.678  13.319  20.704  0.0727  0.0265 -0.1178
34346W        W77259  19.544  21.554  29.153  0.2525  0.0503 -0.0566
34347W        W77260  24.217  11.160  28.168 -0.0519  0.0252 -0.1673
34348W        W77261  22.929  15.989   8.351 -0.2221 -0.0808 -0.1386
34349W        W77262  32.126  26.242   1.534  0.0589 -0.1841  0.1879
34350W        W77263  32.963  15.643   7.540  0.0390 -0.0900  0.0422
34351W        W77264  19.989  11.857   1.373  0.1431 -0.2354  0.0339
34352W        W77265   0.909  19.800   3.013  0.1207  0.1224  0.2529
34353W        W77266  33.816  14.176  10.385 -0.2015  0.0401  0.0973
34354W        W77267  25.190  22.523  24.660 -0.1546 -0.0393  0.1860
34355W        W77268  24.075  22.023  28.854 -0.1822 -0.1274  0.1715
34356W        W77269  24.992   6.696   5.301  0.1955  0.2399  0.1148
34357W        W77270  28.208  21.955   7.755 -0.0715 -0.1243 -0.0467
34358W        W77271  21.308  14.358  28.507 -0.0968  0.1855  0.2899
34359W        W77272   6.515  13.676   3.831  0.2433 -0.1769  0.0021
34360W        W77273  25.431   5.867   5.680 -0.1123 -0.4966  0.3427
34361W        W77274   0.264  21.592   5.722 -0.0823  0.0745 -0.1551
34362W        W77275  29.599  17.240  27.321  0.0449  0.2915  0.5468
34363W        W77276  24.205  17.835  28.541  0.1597  0.0191 -0.1063
34364W        W77277  22.745  14.993   6.172  0.1491 -0.4286 -0.2745
34365W        W77278  31.844  10.408   3.097 -0.1126  0.2539  0.0881
34366W        W77279  16.683  14.016  22.229 -0.0931  0.1578  0.0540
34367W        W77280  33.916  18.215  25.586 -0.0342  0.2052 -0.1332
34368W        W77281   1.768  10.324   8.368  0.1528  0.1267 -0.0085
34369W        W77282  23.918   9.993   3.546  0.1388 -0.0058  0.1688
34370W        W77283  24.650  20.263   2.973 -0.1182  0.0676  0.1347
34371W        W77284  28.649  15.611   2.117  0.1298 -0.0591  0.1109
34372W        W77285  15.346  16.185   1.475  0.0648 -0.4502  0.3150
34373W        W77286  22.470   8.188  22.193 -0.0442  0.0186  0.0369
34374W        W77287  23.585  22.688   1.239  0.0969  0.4405 -0.1666
34375W        W77288  20.002  12.051   5.379  0.1658  0.3841 -0.1040
34376W        W77289  23.292  16.202   5.404  0.0379 -0.2590 -0.2246
34377W        W77290   1.814  14.537   2.999  0.4101  0.3307 -0.0802
34378W        W77291  19.790  19.146   4.332  0.0810 -0.2362  0.3977
34379W        W77292  26.803  24.913  29.196 -0.2725 -0.0482 -0.4539
34380W        W77293  24.806   6.541   7.144 -0.0526 -0.0182  0.1940
34381W        W77294  21.234  14.338   6.858 -0.1959  0.0668  0.4606
34382W        W77295  26.799  12.776   5.103 -0.0459  0.2768 -0.0625
34383W        W77296   2.161  19.571  22.919  0.2349  0.0491 -0.2499
34384W        W77297  31.401  21.432  27.408 -0.0252 -0.2535 -0.0974
34385W        W77298  25.139  12.100  14.526 -0.0621  0.3596  0.1321
34386W        W77299  22.766  12.761   5.169  0.2714 -0.3039 -0.1709
34387W        W77300  26.726  25.440  14.082 -0.3299  0.0727  0.1142
34388W        W77301  22.310  16.739   5.917 -0.1208  0.2157 -0.1253
34389W        W77302  32.393  26.257  18.581 -0.0750 -0.0701  0.1563
34390W        W77303  29.463  33.452   8.377 -0.0291 -0.0823  0.2781
34391W        W77304  28.896  15.989  26.277  0.1751  0.0968  0.0551
34392W        W77305  23.261   6.403   8.957 -0.0574  0.2129  0.1920
34393W        W77306  21.999  23.389  25.829  0.1007 -0.3656  0.3245
34394W        W77307  23.811  18.045  19.052 -0.1699 -0.2359  0.0172
34395W        W77308  20.523  16.724  22.243 -0.0224 -0.0370  0.0663
34396W        W77309  33.266  31.786   6.876 -0.1166  0.1015  0.2593
34397W        W77310  20.795   2.090  25.806  0.2689  0.0453  0.2637
34398W        W77311  19.037  16.814   2.737 -0.0911  0.0481 -0.1629
34399W        W77312  29.199  11.468   8.657  0.0028 -0.2965 -0.3461
34400W        W77313  27.297  11.500   0.635 -0.1453 -0.2218  0.3190
34401W        W77314  12.700  26.224   4.315  0.2660  0.0700  0.1675
34402W        W77315  27.586  23.500   2.915  0.2869 -0.1133  0.2454
34403W        W77316  21.031  17.972   5.130 -0.2100  0.4303  0.1149
34404W        W77317  24.350  18.106  22.254 -0.0673 -0.0774  0.1479
34405W        W77318  19.153  18.239   0.633 -0.3163  0.2118  0.0172
34406W        W77319   3.844  16.315   4.443  0.1008  0.2969  0.0119
34407W        W77320  19.001  13.668  29.381  0.0192  0.1579 -0.4670
34408W        W77321  34.206  15.083   2.987 -0.0098 -0.0216  0.0956
34409W        W77322  20.207   9.524  22.889 -0.0544  0.1513 -0.0683
34410W        W77323  30.633  13.421  26.225  0.0844  0.0647  0.0605
34411W        W77324  30.088  18.067   5.101 -0.1889  0.1119 -0.0512
34412W        W77325  23.816  28.783  26.292 -0.0138 -0.1521 -0.0335
34413W        W77326  31.402  17.780   7.260  0.0108  0.1292  0.2318
34414W        W77327  27.678   9.485  25.908  0.1240  0.0589  0.1054
34415W        W77328  31.413  26.105  29.229 -0.1627 -0.0851 -0.0005
34416W        W77329  33.239  17.523   0.738  0.1163  0.2166 -0.0627
34417W        W77330  25.140  14.896   3.765 -0.0527  0.2023  0.1252
34418W        W77331  28.620  22.868  23.019 -0.3361 -0.0858  0.0229
34419W        W77332  17.644  28.550   4.470  0.0960  0.1718  0.2217
34420W        W77333  21.176  21.254   5.328  0.1152  0.2822 -0.2873
34421W        W77334  33.738  26.977   5.046  0.0702  0.0006  0.2025
34422W        W77335  21.797   7.200  23.942  0.0291 -0.1006  0.1574
34423W        W77336   0.317  19.315   6.226  0.0129 -0.0713  0.2942
34424W        W77337  19.881  16.365  27.779  0.4579  0.2977  0.2592
34425W        W77338  16.047  17.325   3.319  0.1979  0.1882 -0.0268
34426W        W77339  21.200  16.157   9.026  0.1396 -0.3858  0.0667
34427W        W77340  29.796  22.520  26.862 -0.1781  0.1736 -0.3854
34428W        W77341  14.529   8.352   2.153  0.1089  0.0610  0.1543
34429W        W77342  25.347  15.081   7.719 -0.2734  0.2499  0.1020
34430W        W77343  28.938   7.299   2.069 -0.0233 -0.3490 -0.1076
34431W        W77344  25.158  20.174  27.353  0.4444  0.2380 -0.0435
34432W        W77345  20.927  24.748  24.386 -0.3576 -0.4870 -0.3219
34433W        W77346  15.126   5.738   5.751  0.0223 -0.0748  0.0574
34434W        W77347   3.971  17.139  29.095 -0.2541  0.1804  0.1357
34435W        W77348  34.199  14.124   5.354 -0.1539  0.0121 -0.2533
34436W        W77349  21.300  25.356   2.785  0.2255 -0.0898 -0.0084
34437W        W77350   2.032  24.983   3.290  0.3115  0.1816  0.0674
34438W        W77351  33.530  28.753   7.686  0.2219 -0.0200  0.1668
34439W        W77352  29.169  19.727   6.579 -0.3240 -0.0631  0.6279
34440W        W77353  20.196  25.432  25.359 -0.0796  0.2742 -0.0341
34441W        W77354  22.047  22.846  24.916  0.0925  0.1224  0.1746
34442W        W77355  26.698  22.157   1.367 -0.2325 -0.2064  0.0539
34443W        W77356  27.281  12.005   7.240 -0.1181 -0.1425 -0.2166
34444W        W77357  25.835  12.012  14.156 -0.0022 -0.2806 -0.1035
34445W        W77358  22.564   5.845  24.575  0.2127  0.1414 -0.0437
34446W        W77359  16.979  12.529  25.049 -0.0901 -0.1802 -0.2730
34447W        W77360  18.150  12.337  25.796 -0.2125  0.1243  0.0975
34448W        W77361  18.189  22.863  21.712 -0.1580 -0.3852 -0.0464
34449W        W77362  21.476   0.558   1.178  0.2038  0.0456 -0.3125
34450W        W77363  19.054  12.063   4.067 -0.0275  0.0014  0.2624
34451W        W77364  27.629  25.429  26.256 -0.0344  0.1029 -0.1240
34452W        W77365  25.587  11.838  26.458 -0.0446 -0.2852 -0.1149
34453W        W77366  33.509  12.982   4.267  0.1759 -0.1879 -0.0285
34454W        W77367  26.569  22.398   2.190 -0.1036  0.0758  0.4110
34455W        W77368   2.248  28.795   0.469  0.1975  0.2665 -0.0156
34456W        W77369  33.070  12.065   6.155  0.1909  0.0667  0.3620
34457W        W77370  22.601  12.523  24.856  0.0753  0.2551  0.1620
34458W        W77371   0.421  10.834   3.809  0.0703 -0.1009 -0.1752
34459W        W77372   1.715  17.497   7.838  0.0322  0.1249  0.1021
34460W        W77373  30.860  21.880   8.535  0.0287  0.0881  0.1326
34461W        W77374  34.181  23.504   3.223  0.4408 -0.2555 -0.0656
34462W        W77375  22.598  23.801   2.221 -0.0936 -0.0276 -0.1635
34463W        W77376   1.057  24.815  26.882 -0.2769 -0.3673 -0.0285
34464W        W77377  33.055  14.689   0.497 -0.2267  0.0590 -0.0099
34465W        W77378  29.381  18.013   7.894  0.1359  0.1049  0.2500
34466W        W77379  25.969  16.308   4.787 -0.0748  0.4464 -0.1719
34467W        W77380  33.844  32.519  22.320  0.1367 -0.1570  0.1272
34468W        W77381  23.060  14.456   9.223  0.0964 -0.1406 -0.0751
34469W        W77382  28.598  23.989   7.306  0.3486 -0.0290 -0.0984
34470W        W77383  23.425   4.098   3.428 -0.1612  0.2139 -0.1221
34471W        W77384  29.673  18.838   9.084 -0.5985  0.1412  0.1047
34472W        W77385  14.781  20.678  25.733  0.2271 -0.0802  0.0696
34473W        W77386  27.956  23.309   5.771  0.1604  0.1821  0.1854
34474W        W77387  19.119  12.673  24.532  0.0339  0.2670  0.1853
34475W        W77388  29.505  10.646   4.267 -0.0790 -0.0520  0.1466
34476W        W77389  29.904  13.157   4.171 -0.0131 -0.0481 -0.0563
34477W        W77390  22.685  11.647   3.578  0.1723  0.2946 -0.2003
34478W        W77391  20.052  19.656  15.894 -0.3431 -0.3183 -0.1263
34479W        W77392  33.077  25.247   9.492 -0.3699  0.0089 -0.1983
34480W        W77393  27.821  14.977   2.228 -0.4567  0.2326  0.1895
34481W        W77394  26.936  16.827   9.103  0.2830  0.2584  0.2009
34482W        W77395  28.614  22.155  29.092  0.0215 -0.0745  0.1827
34483W        W77396  20.548  12.659   4.356  0.1085 -0.0605 -0.0817
34484W        W77397  21.131  17.966   0.496 -0.0618 -0.2382 -0.1361
34485W        W77398  25.452  13.815   5.959 -0.0903 -0.0119  0.1317
34486W        W77399  20.469  11.337   5.758 -0.2025 -0.0953 -0.2151
34487W        W77400  32.372  17.222   1.709  0.2173  0.3325  0.3250
34488W        W77401  31.830  31.199  21.166  0.2025 -0.5238 -0.0570
34489W        W77402  25.669  12.282   4.012 -0.0742 -0.1279  0.1760
34490W        W77403  24.947  10.866   5.924 -0.0172  0.1943  0.1882
34491W        W77404   2.383  19.597  21.145 -0.5417  0.0849 -0.2187
34492W        W77405  19.167  13.803  22.586  0.0019 -0.0548  0.1051
34493W        W77406  18.413  13.477  27.908  0.0179 -0.2150  0.0557
34494W        W77407  17.513   5.041   5.308 -0.1924 -0.0449  0.1951
34495W        W77408  21.348  17.582   3.606  0.2811 -0.0971  0.0632
34496W        W77409  26.035  16.033  28.170  0.0204  0.0308 -0.1742
34497W        W77410  32.551  21.342   6.473 -0.0028  0.1603 -0.2495
34498W        W77411  32.586  12.024  24.056 -0.1027 -0.1377  0.1339
34499W        W77412   2.680   5.515  25.765  0.0244 -0.0722 -0.1117
34500W        W77413  26.708  12.729  29.492 -0.1435  0.3101 -0.1583
34501W        W77414   1.404  17.901   2.462 -0.0703  0.2232 -0.0701
34502W        W77415  18.721  15.835  28.158 -0.1395  0.2548  0.0089
34503W        W77416  25.049  15.859   0.806  0.0747 -0.0086  0.0213
34504W        W77417  31.736  13.118   4.254 -0.4320  0.0918  0.1344
34505W        W77418  20.057  15.596  26.650  0.2120 -0.0455  0.1183
34506W        W77419  26.706  17.813  27.581  0.2029  0.1491  0.0815
34507W        W77420  23.511   4.012  26.403  0.1347 -0.1199 -0.0318
34508W        W77421  18.882   5.605  18.476  0.0600 -0.1759  0.2379
34509W        W77422  31.068  18.887   5.612  0.0746  0.0794 -0.0578
34510W        W77423  30.067  22.581  26.357  0.3416 -0.0424  0.2065
34511W        W77424  18.371   5.761   5.666 -0.1188  0.2480 -0.0104
34512W        W77425  26.110  16.539  26.360 -0.2324  0.1420 -0.3827
34513W        W77426  25.223  16.243   5.996 -0.1205  0.0439  0.3021
34514W        W77427  25.208  10.997   6.827 -0.3398 -0.0051  0.0213
34515W        W77428  15.735  17.339   4.103 -0.1291 -0.1676  0.2252
34516W        W77429  29.663  16.075   7.753 -0.0619 -0.2369  0.1193
34517W        W77430  21.536  18.138   5.291 -0.0521 -0.2813 -0.2426
34518W        W77431  33.020  17.939  18.199 -0.0263 -0.0880 -0.3436
34519W        W77432  18.482  12.487   6.509  0.1632  0.0216  0.1081
34520W        W77433  24.639  15.774   1.808  0.2616 -0.1440  0.1636
34521W        W77434  27.846  16.741  24.930  0.0620 -0.0378  0.0284
34522W        W77435  19.644  26.566   3.025  0.0962 -0.0354  0.0781
34523W        W77436  16.800  17.631   2.330 -0.0275  0.0805  0.1415
34524W        W77437   1.178  15.886   4.103  0.2082  0.1931 -0.2355
34525W        W77438  32.007   9.045  10.658 -0.0331  0.1087 -0.0529
34526W        W77439  22.982  17.506   8.149 -0.0536 -0.0114 -0.1516
34527W        W77440  24.445   5.978   0.248 -0.3924  0.1164  0.1266
34528W        W77441  17.160  13.844  14.872  0.1758  0.0468  0.2301
34529W        W77442  21.382  19.673   0.658  0.2034  0.1020  0.1763
34530W        W77443  30.635  17.283  21.846  0.0905 -0.2830  0.1396
34531W        W77444  23.234  21.313  22.266 -0.1339  0.0766  0.2191
34532W        W77445  30.195  19.531  22.529  0.0066  0.0674  0.0440
34533W        W77446  22.945  15.721  20.866 -0.2846 -0.0613 -0.0737
34534W        W77447  21.217   4.875  25.529  0.0341 -0.2727 -0.3467
34535W        W77448  26.316   6.435  28.283 -0.1718  0.2582  0.0172
34536W        W77449  24.673  14.422   6.285 -0.2303 -0.2410 -0.0531
34537W        W77450   0.180  22.670  26.796  0.1190  0.0740 -0.1043
34538W        W77451  29.387  19.472   2.202  0.3453 -0.0020  0.0234
34539W        W77452  25.350  16.491  29.432 -0.1419 -0.0617 -0.1658
34540W        W77453  26.679  20.586  29.088 -0.2764 -0.0141 -0.0538
34541W        W77454  27.030  13.690   2.995 -0.0734  0.0292 -0.0486
34542W        W77455  27.746  14.561   3.730  0.2660 -0.1113 -0.0765
34543W        W77456  19.583   8.314  29.254  0.0770 -0.3073 -0.2562
34544W        W77457  29.122  16.583  28.066  0.1428  0.5512 -0.1884
34545W        W77458  25.847  14.033   2.206 -0.1067  0.0663 -0.0838
34546W        W77459  26.375  22.781   7.269  0.5217  0.2637 -0.0947
34547W        W77460  27.858  15.742   1.148  0.2021  0.1274 -0.0967
34548W        W77461  24.000  21.851   1.104 -0.0546 -0.2221 -0.3632
34549W        W77462  24.075  23.226   2.632 -0.2090 -0.1728 -0.1786
34550W        W77463  30.116  21.841   1.927  0.0241 -0.0828 -0.1847
34551W        W77464  30.645  21.036   1.520 -0.1204 -0.0011  0.1428
34552W        W77465  29.933  13.654   4.068 -0.3209 -0.1531 -0.0487
34553W        W77466  24.632  18.461   7.718  0.0333  0.0075  0.0827
34554W        W77467  32.017  21.137   8.028 -0.0522 -0.1621 -0.0439
34555W        W77468  32.099  19.648   4.572  0.1815 -0.1877  0.2648
34556W        W77469  20.424  20.942  15.291  0.2376 -0.1106 -0.1528
34557W        W77470  34.081  32.115   0.123 -0.0928 -0.0711  0.2100
34558W        W77471  18.667  21.670   2.359 -0.2243 -0.0833  0.0187
34559W        W77472  18.259   9.399   8.538  0.2173 -0.1884 -0.1929
34560W        W77473  31.272  19.648   1.005 -0.1794  0.1869 -0.2839
34561W        W77474  23.240  15.961   2.922 -0.1964 -0.0894  0.0761
34562W        W77475  20.816  19.739   5.475 -0.3707 -0.1671  0.3705
34563W        W77476   1.607  15.874   6.547  0.0188  0.2505 -0.0638
34564W        W77477  29.489  17.919   6.412 -0.1860  0.1131  0.1222
34565W        W77478  30.378  24.836   8.659 -0.1622  0.1215  0.2498
34566W        W77479  33.390  16.100   9.519  0.2958 -0.0661 -0.2144
34567W        W77480  11.877  12.800   5.312  0.0717  0.2497  0.1307
34568W        W77481  30.187  25.463   4.011 -0.1285  0.1296  0.2505
34569W        W77482  30.398  30.061   6.092  0.1241  0.1238 -0.2271
34570W        W77483  26.349   9.133   2.906  0.0597 -0.1848 -0.0010
34571W        W77484  20.806  18.519   4.548 -0.0021  0.3644 -0.1648
34572W        W77485  15.762   9.402   8.095 -0.0708 -0.2631 -0.2948
34573W        W77486  21.918  32.747   2.074  0.1503 -0.0334 -0.2751
34574W        W77487  27.834  11.094   5.393  0.2733 -0.1024 -0.0607
34575W        W77488  21.232   7.416  27.361 -0.0758 -0.2389  0.2393
34576W        W77489  20.608  20.343   0.399  0.1532  0.1771  0.1124
34577W        W77490  16.652  16.050   1.243 -0.3963 -0.1043 -0.2507
34578W        W77491  25.127  26.304   4.047 -0.3207 -0.0059  0.0727
34579W        W77492  18.140   0.272   3.676 -0.0010  0.0731  0.2632
34580W        W77493  19.971  14.315   3.340  0.0221  0.2377 -0.2731
34581W        W77494  16.628  15.594   3.648  0.0828 -0.0974  0.1288
34582W        W77495  25.575  13.548   9.927 -0.3450  0.1568  0.0514
34583W        W77496  25.870  14.121   3.127 -0.4054 -0.1125  0.2273
34584W        W77497  23.482  21.494   0.341 -0.0347  0.2360  0.0692
34585W        W77498  26.355  12.028   6.018  0.1522 -0.1499 -0.2023
34586W        W77499   2.201  24.701   7.539  0.0101 -0.2428  0.0536
34587W        W77500  32.155   7.656   9.671  0.1039  0.1858 -0.1317
34588W        W77501   5.673  13.013   6.615  0.1505 -0.0552 -0.3501
34589W        W77502  26.822  14.656   9.243 -0.3544 -0.2791 -0.0406
34590W        W77503   4.509  17.941  27.835 -0.1375 -0.0586 -0.1301
34591W        W77504  20.364  15.074  26.499  0.0865 -0.3867 -0.2197
34592W        W77505  30.658  15.338  26.819 -0.3352  0.2713  0.2234
34593W        W77506   7.210  13.428   6.191  0.1049  0.2029  0.0204
34594W        W77507  21.927  15.571  29.130  0.3068  0.2350 -0.2632
34595W        W77508  26.889  20.832   0.411  0.1198 -0.0897 -0.0116
34596W        W77509   5.057  11.326   6.311 -0.0731  0.1142  0.0314
34597W        W77510  32.439   7.459  29.670 -0.1178  0.1479 -0.2545
34598W        W77511  13.214  19.522   1.763 -0.3368  0.3325 -0.4918
34599W        W77512  16.662  18.976   2.937  0.1865  0.0512 -0.2344
34600W        W77513   2.252  14.978   8.000  0.1825  0.1745  0.1115
34601W        W77514  19.856  14.965   6.809  0.2633  0.4701 -0.0381
34602W        W77515  24.087  22.583  22.871 -0.1586  0.0233 -0.2361
34603W        W77516  31.804  21.202   2.594  0.1159 -0.0058  0.0348
34604W        W77517  31.268  20.543   8.453 -0.0306  0.2664  0.1200
34605W        W77518   0.165  20.320   2.636  0.0070 -0.0164  0.0572
34606W        W77519  26.490  12.988   4.091 -0.0250 -0.1801  0.0808
34607W        W77520  22.247  21.102  22.610 -0.1811  0.0678  0.1458
34608W        W77521  26.823   7.334  29.364 -0.1529 -0.0239 -0.1103
34609W        W77522  31.655  27.230   7.060  0.2205  0.0616 -0.1223
34610W        W77523  21.504  11.089   2.224 -0.0999 -0.1822 -0.0132
34611W        W77524  34.385  25.128   8.023 -0.2986 -0.0945 -0.0247
34612W        W77525  20.588  19.343   7.697 -0.0514 -0.2300  0.1784
34613W        W77526  21.073  24.149   6.612 -0.3110  0.0087 -0.0446
34614W        W77527  27.297  17.519   2.870 -0.0140 -0.1224 -0.0971
34615W        W77528  24.694  12.722   8.522  0.2520 -0.0665 -0.1947
34616W        W77529  27.091  17.547  29.524 -0.2229  0.1268  0.0609
34617W        W77530  13.566  13.070   2.355  0.2421  0.0995  0.0031
34618W        W77531  23.473  22.006   8.502 -0.1360 -0.0483 -0.1129
34619W        W77532  22.804  18.189  29.501  0.2702 -0.0731 -0.0376
34620W        W77533  26.357  15.060   4.319 -0.1506  0.0996 -0.6223
34621W        W77534  31.939   4.086   6.632  0.3223 -0.3633  0.2059
34622W        W77535  21.283  21.489   5.886 -0.0739  0.0043  0.1328
34623W        W77536  30.752  17.528   5.769 -0.0783  0.0374 -0.0189
34624W        W77537  21.241  12.604   1.504  0.1642 -0.1178 -0.0429
34625W        W77538  29.084  13.986   6.869 -0.0022 -0.0346 -0.0351
34626W        W77539  19.666  11.156  26.207 -0.0186 -0.0889  0.1413
34627W        W77540  19.772  16.211  21.831  0.1273 -0.1056  0.1301
34628W        W77541  30.434  15.755   4.803 -0.2681  0.0706 -0.1824
34629W        W77542  21.029  10.164   3.732  0.2329 -0.0376  0.3315
34630W        W77543  26.680  18.416   3.411 -0.2052  0.1699 -0.1636
34631W        W77544  14.982   6.766   8.447 -0.2390  0.0407  0.4116
34632W        W77545  18.537  17.198   4.801  0.0289 -0.2261 -0.0743
34633W        W77546  28.834  24.102   3.681 -0.1277  0.0387 -0.0388
34634W        W77547  24.802   5.378   4.884  0.2567  0.3122 -0.1171
34635W        W77548  21.171  16.887  23.871  0.0576  0.0606 -0.0528
34636W        W77549  28.273  17.253   3.092  0.0737  0.3773  0.0029
34637W        W77550  15.402  14.401   0.017 -0.2740  0.0897 -0.0089
34638W        W77551  23.737  14.596   7.860 -0.2011 -0.0328  0.1610
34639W        W77552  27.500  20.665   9.659 -0.0932 -0.3449  0.0180
34640W        W77553  22.597  30.390   4.833  0.1892  0.2300  0.1250
34641W        W77554  32.442  28.861  28.116 -0.0292  0.0250 -0.0790
34642W        W77555  34.207  17.399   2.063 -0.0312  0.0816  0.0142
34643W        W77556  25.578  18.968  29.194 -0.1014 -0.3264  0.0162
34644W        W77557  14.357  16.957  29.516 -0.1876 -0.1030 -0.0060
34645W        W77558  21.768  14.196   0.895 -0.0595  0.4086  0.0253
34646W        W77559  26.830  23.800   0.782  0.2072  0.0790  0.2509
34647W        W77560  22.823  18.475   7.424  0.1929  0.0773  0.0062
34648W        W77561  21.870  16.672   1.937 -0.0250  0.0992  0.3583
34649W        W77562  32.812  18.273   8.598  0.1706 -0.1309  0.0715
34650W        W77563  23.426  15.809   1.351 -0.2912  0.1143  0.0009
34651W        W77564  33.408  20.064   3.835  0.0368  0.0744 -0.0259
34652W        W77565  19.782   7.616  29.120  0.2585 -0.1139 -0.2257
34653W        W77566  22.582   0.855   2.142  0.2130 -0.1187  0.0133
34654W        W77567  12.512  21.273   3.616  0.1167 -0.2433 -0.1416
34655W        W77568  19.462  25.708   1.375  0.1090 -0.2094  0.0012
34656W        W77569  19.408  17.049   3.618 -0.2098 -0.3735 -0.1421
34657W        W77570   1.358   7.292   4.698  0.0918 -0.3292  0.2425
34658W        W77571  25.733  11.977  10.108  0.0239 -0.3241 -0.3774
34659W        W77572  14.254   8.935  29.404 -0.3236  0.3513  0.0332
34660W        W77573  23.987  23.364  28.389  0.1241  0.0221  0.1097
34661W        W77574   1.366  20.399   6.811 -0.3320  0.0199  0.1624
34662W        W77575   0.190  18.957   8.772 -0.2264 -0.2459  0.3800
34663W        W77576  33.118  22.407  27.469 -0.1589  0.0263 -0.2846
34664W        W77577  32.532  21.344   4.491  0.3744  0.1160 -0.0219
34665W        W77578  21.352  12.113   1.695 -0.2288  0.2456  0.0038
34666W        W77579  27.587  21.350   0.169 -0.0732  0.0821 -0.0325
34667W        W77580  20.336  19.075   2.666  0.4123 -0.0429 -0.1244
34668W        W77581  30.833  14.871   5.649  0.0105  0.0385 -0.1128
34669W        W77582   0.427  19.872   1.761  0.2313  0.2927  0.4533
34670W        W77583  21.389  22.019   5.900 -0.1447  0.0651 -0.1077
34671W        W77584  29.017  13.457   7.049  0.0437 -0.1518  0.0233
34672W        W77585  29.010   0.046   8.487  0.0508 -0.0894  0.0285
34673W        W77586  22.066  15.796  29.543 -0.0648  0.0193  0.2605
34674W        W77587  11.823  10.474   7.556  0.3208 -0.0770 -0.1475
34675W        W77588   0.175  24.176   0.203  0.2694 -0.1071  0.1637
34676W        W77589   9.179  14.622  25.257  0.1151 -0.1377  0.0103
34677W        W77590  33.446  10.064   6.461  0.1835  0.2371 -0.0438
34678W        W77591  18.787  13.702   2.588  0.2381  0.0674 -0.1669
34679W        W77592  18.482  16.585  24.492 -0.3405 -0.1754  0.0018
34680W        W77593  25.337  14.440   8.412 -0.3346  0.3156 -0.0186
34681W        W77594  28.076  20.268   8.187 -0.1435  0.0556  0.0879
34682W        W77595  23.326  25.473   5.457  0.1634 -0.0213  0.0165
34683W        W77596  15.335  15.099   4.315 -0.3272 -0.1946 -0.3416
34684W        W77597  26.451   9.537   6.647 -0.3433 -0.0665  0.2100
34685W        W77598  22.997  18.431  25.521  0.2166 -0.2805  0.2992
34686W        W77599   1.319  19.477   4.948  0.0616 -0.1416  0.0365
34687W        W77600  29.063  23.514   5.088  0.1210 -0.2922 -0.0956
34688W        W77601  28.509  10.496  22.144  0.1275  0.1017 -0.0137
34689W        W77602  27.918  14.332   1.441 -0.2296  0.0428 -0.0705
34690W        W77603  22.138  16.993  28.752 -0.0610  0.0465  0.1072
34691W        W77604  27.418  23.162  22.544 -0.0402  0.1789 -0.0953
34692W        W77605  19.902  21.705   5.734 -0.1840 -0.0234 -0.0792
34693W        W77606  30.241  17.349   5.463  0.2128 -0.2628  0.2134
34694W        W77607  32.577  15.373   6.495 -0.3332  0.2608  0.0477
34695W        W77608  26.540  13.050   7.992 -0.0179 -0.1330 -0.1601
34696W        W77609  21.787  19.450   4.100 -0.1337 -0.1307 -0.1705
34697W        W77610  24.162  21.882   1.589  0.0298  0.0657 -0.1091
34698W        W77611  27.252  18.909   7.309 -0.1735 -0.1687  0.1829
34699W        W77612  19.061  11.953   4.660  0.0258 -0.1216  0.0782
34700W        W77613  34.374  11.285   7.410  0.0822  0.2046 -0.2584
34701W        W77614  28.914  20.009   3.304  0.1960  0.1882 -0.0860
34702W        W77615  29.775  16.853   8.352 -0.0897  0.1294 -0.0299
34703W        W77616  30.663  31.871   0.847  0.1153 -0.1981 -0.1116
34704W        W77617  30.805  14.344   8.932  0.3407  0.0155  0.0172
34705W        W77618  34.434  15.513   3.008  0.2336  0.0556 -0.1840
34706W        W77619  20.988  16.234  26.461  0.1958  0.0096  0.0256
34707W        W77620   0.922  13.792   2.831  0.0308  0.0558  0.0028
34708W        W77621  26.280  31.495   0.936  0.1546  0.3250  0.0430
34709W        W77622  23.251  20.052  22.348  0.2314 -0.0083  0.2230
34710W        W77623  28.300   9.610   1.141 -0.1333 -0.2560 -0.0157
34711W        W77624  30.731  25.254   7.787  0.0464 -0.2404  0.2536
34712W        W77625  28.097  16.623  28.474  0.0976 -0.1050 -0.2561
34713W        W77626  31.029  19.503   7.036  0.0047  0.1748 -0.2260
34714W        W77627  28.791  13.684  29.188  0.0907  0.3378 -0.0100
34715W        W77628  26.973  13.293   2.034  0.0577 -0.0609 -0.1163
34716W        W77629  28.360  34.283  29.606 -0.0148 -0.0312 -0.1696
34717W        W77630  18.657  24.913  27.906  0.2780 -0.1649 -0.0514
34718W        W77631  21.675  13.486   6.803 -0.0111 -0.0139  0.0356
34719W        W77632  22.504  31.144   8.395  0.0446 -0.0347 -0.0238
34720W        W77633  24.654  17.984   2.298  0.3185  0.4856  0.0632
34721W        W77634  20.684   9.352   9.053 -0.2008  0.4099 -0.0565
34722W        W77635  17.283  20.102   7.482 -0.1178  0.2390 -0.0156
34723W        W77636  25.565   7.190   2.767  0.4661  0.1134  0.0514
34724W        W77637  25.366  12.113  29.614  0.2139 -0.0431  0.2449
34725W        W77638  30.415  12.183   9.858 -0.1216  0.5335 -0.1727
34726W        W77639  22.539   6.109   8.715  0.0049 -0.1230 -0.0490
34727W        W77640  31.782  20.416   7.629 -0.2410 -0.1095 -0.0444
34728W        W77641   6.233   0.011  28.912  0.2500  0.4056  0.3867
34729W        W77642  25.396  10.849   7.327 -0.0557 -0.2268  0.1218
34730W        W77643  18.879  17.498   7.603  0.1788 -0.0089  0.1421
34731W        W77644  18.174   7.220   1.637  0.2422 -0.0236 -0.1012
34732W        W77645  29.129  14.819   7.311  0.2031 -0.1417 -0.0752
34733W        W77646  25.074  24.704   0.526  0.1162  0.0081 -0.1568
34734W        W77647  22.757  23.010   8.350 -0.0009 -0.0112 -0.0501
34735W        W77648   7.637  10.493   3.366  0.0468  0.0548 -0.2896
34736W        W77649  17.573  18.238  26.438  0.1062 -0.1593  0.2060
34737W        W77650  19.497  19.398   2.160  0.0503  0.1575  0.2123
34738W        W77651  33.280  10.868   8.537 -0.0552 -0.0041 -0.3424
34739W        W77652  25.141  17.623   5.026  0.0504  0.2345 -0.1049
34740W        W77653  28.307  17.529   1.967 -0.0513 -0.1403 -0.1674
34741W        W77654  17.850  21.890   1.633 -0.2320 -0.0726 -0.3546
34742W        W77655  28.207  16.485   8.413 -0.0814 -0.0310  0.2905
34743W        W77656  17.879   0.826   2.125 -0.2252  0.1851  0.1931
34744W        W77657  14.165  11.598   7.507 -0.1647 -0.0289 -0.0111
34745W        W77658  25.715  24.294   5.647  0.2109 -0.1931  0.2980
34746W        W77659  18.115  21.643   8.425 -0.1870  0.1562 -0.0567
34747W        W77660  25.090  13.971   4.174 -0.1874 -0.0706  0.1771
34748W        W77661  25.856  17.641   8.087 -0.2189 -0.0588  0.0997
34749W        W77662  19.621  22.111   0.182 -0.0551 -0.1634  0.0727
34750W        W77663  19.551  21.169   0.828  0.0498 -0.1110 -0.0363
34751W        W77664  25.027  12.488  29.561 -0.3488 -0.0923 -0.2135
34752W        W77665  24.751  17.027  20.518 -0.1124  0.0363  0.1353
34753W        W77666  25.794  22.604   4.066  0.0398 -0.0693  0.0248
34754W        W77667  19.454  16.245   4.561 -0.1161  0.1414 -0.0776
34755W        W77668  19.191   6.038   9.973  0.0795  0.0230  0.0124
34756W        W77669  24.426  14.425  20.525 -0.0897  0.2177  0.4091
34757W        W77670  20.008  12.868  23.030 -0.0255 -0.0794 -0.0715
34758W        W77671  30.982  15.500   2.429  0.1313  0.4093  0.0415
34759W        W77672  17.530  12.287  24.967 -0.1761  0.2039  0.2848
34760W        W77673  20.773  29.292   7.142 -0.3459 -0.0615  0.1910
34761W        W77674  30.855   9.098   1.567 -0.2789 -0.2108 -0.1401
34762W        W77675  33.506  13.737   6.935  0.1559 -0.0086  0.1309
34763W        W77676  22.594  21.452   2.138 -0.0224  0.2766 -0.1412
34764W        W77677  27.580  21.596   9.601 -0.0503 -0.0262 -0.0881
34765W        W77678   2.631  25.996   9.779 -0.1446 -0.1833  0.3184
34766W        W77679  15.890  20.285   5.277  0.2761  0.0269  0.0646
34767W        W77680  31.336   4.050   7.008  0.2266  0.0470  0.0138
34768W        W77681  25.540   5.931   4.636 -0.0771  0.0980  0.1716
34769W        W77682  29.683  27.186   6.750  0.1743 -0.2714  0.0151
34770W        W77683  25.175   9.012   9.694 -0.1597 -0.1244 -0.2386
34771W        W77684   1.478  17.373   4.005  0.2601  0.0593  0.0362
34772W        W77685  23.652  11.759   8.781  0.2046  0.1755  0.1701
34773W        W77686  17.492  16.984   7.745  0.0140 -0.0200  0.1289
34774W        W77687  28.693   9.100   6.506  0.0206 -0.3476  0.2016
34775W        W77688  19.642  17.395  26.746 -0.0485 -0.1771 -0.0028
34776W        W77689  14.955  24.853  16.094 -0.2528  0.0483 -0.0202
34777W        W77690   5.321   8.130  11.400  0.1278 -0.2465  0.2685
34778W        W77691  28.277  14.828   0.477 -0.1697  0.1865  0.1960
34779W        W77692  23.191  19.772   2.653  0.0182 -0.1258 -0.0128
34780W        W77693  24.644   8.598  27.380  0.1739  0.3314 -0.3763
34781W        W77694  25.242  21.291  25.391 -0.0748 -0.4395  0.0775
34782W        W77695  28.704   6.394  27.872 -0.1324 -0.1155  0.1949
34783W        W77696  24.307  21.180   6.787  0.5111 -0.1470 -0.0109
34784W        W77697  27.578  14.835  28.643  0.1845  0.2395  0.2257
34785W        W77698  22.823  13.250  22.476  0.2596  0.1034  0.1663
34786W        W77699  21.443  17.291  29.332 -0.3278 -0.0655  0.4995
34787W        W77700  31.938  22.163   5.635 -0.3547  0.1761 -0.0489
34788W        W77701   0.852  10.939   4.703 -0.2836  0.5095 -0.0529
34789W        W77702  32.217  22.903   8.213 -0.0386 -0.0976 -0.1444
34790W        W77703  27.695  21.173   4.535 -0.3298 -0.0063 -0.0108
34791W        W77704   2.233  22.146  10.149  0.1742 -0.1925  0.1139
34792W        W77705  27.305  21.852   6.914  0.0394 -0.0163  0.1096
34793W        W77706  24.146  21.390  28.822  0.3548 -0.0181 -0.2015
34794W        W77707  31.242  21.138   7.452 -0.1664 -0.2479 -0.1226
34795W        W77708  21.478  22.827   1.084  0.1794 -0.2847 -0.0885
34796W        W77709  19.433  18.254  29.137 -0.4293 -0.1546 -0.2050
34797W        W77710   0.629  12.619   4.123  0.0757 -0.0548  0.0492
34798W        W77711  17.634  28.777  10.918 -0.0397  0.2872 -0.2549
34799W        W77712  31.437  24.512   4.294  0.0824 -0.1658 -0.0885
34800W        W77713  15.078  20.293  20.340 -0.0188 -0.1505 -0.1437
34801W        W77714  17.855   7.646   8.167 -0.1456 -0.2088  0.0749
34802W        W77715  30.535  15.745   9.799  0.0055  0.0407  0.1039
34803W        W77716  28.099  27.914   6.155  0.1973  0.1493  0.0814
34804W        W77717  17.388   4.561   5.527  0.3665  0.1042  0.0235
34805W        W77718  28.786  10.010   2.221 -0.1354  0.0642 -0.1685
34806W        W77719  30.127  13.146   9.047  0.0250 -0.1203  0.1453
34807W        W77720  18.635   4.462   1.942  0.2736 -0.1303 -0.2432
34808W        W77721   1.678   6.975  29.752 -0.1584 -0.1441  0.0284
34809W        W77722  12.861  16.012  24.386 -0.3006  0.4986  0.1312
34810W        W77723  19.415  11.796   8.191  0.0197  0.0487 -0.0209
34811W        W77724  18.428  16.556   6.147 -0.1142 -0.1005 -0.1743
34812W        W77725  14.232  24.777   2.993 -0.0900 -0.1395 -0.2209
34813W        W77726  22.036  13.830   5.572  0.0083 -0.1817 -0.0072
34814W        W77727  13.800  17.396   6.005  0.2682  0.0328  0.2586
34815W        W77728  14.535   5.725   5.430  0.1870  0.4125 -0.0902
34816W        W77729  21.268  15.212   7.901 -0.3459 -0.2982  0.1964
34817W        W77730  19.725  20.086   6.363  0.1713  0.2971  0.0310
34818W        W77731   4.281  14.240   7.917 -0.1439  0.0349  0.3457
34819W        W77732  24.846  17.214  29.327 -0.0016 -0.1382  0.2471
34820W        W77733  28.477  18.178   2.910  0.3458 -0.0694  0.1444
34821W        W77734  31.315  21.810   8.556  0.0085 -0.2845 -0.0752
34822W        W77735  16.442  14.579  23.769 -0.1518 -0.2480  0.3432
34823W        W77736   1.365  12.903   5.696 -0.0498  0.2060 -0.0873
34824W        W77737  30.310  13.043  20.441  0.0346  0.0437  0.2610
34825W        W77738  30.483  22.655   9.197  0.2409 -0.0928  0.0466
34826W        W77739  29.852  10.074   7.002  0.1419 -0.2239  0.0334
34827W        W77740  24.067  17.634   1.705  0.1402 -0.0811 -0.0059
34828W        W77741  31.441  23.446   9.509  0.1606  0.0131  0.1738
34829W        W77742  23.679  24.574  27.529 -0.0980 -0.4044  0.2471
34830W        W77743  15.101  19.110   3.820  0.0104  0.2307 -0.0216
34831W        W77744  31.535  16.737   7.061 -0.1843  0.1151  0.0457
34832W        W77745  27.736  13.950   4.502  0.0893 -0.4333 -0.0974
34833W        W77746  25.941  27.814   7.884  0.2941 -0.1134 -0.3076
34834W        W77747  23.010  15.954  29.116  0.5393 -0.1614 -0.0039
34835W        W77748   6.311  15.224   5.935  0.0020 -0.0941 -0.0664
34836W        W77749  21.713  25.316   4.523  0.0265 -0.1317 -0.1006
34837W        W77750  20.100  17.627   3.734  0.1462 -0.0335 -0.1092
34838W        W77751  29.972  25.681  22.502 -0.2333 -0.0975 -0.2589
34839W        W77752  28.316  22.706   1.959 -0.0576  0.0858 -0.0443
34840W        W77753  28.259  17.592   5.245 -0.1014 -0.2721  0.0045
34841W        W77754  20.357  16.099  23.276  0.1628  0.0400 -0.0728
34842W        W77755  23.980  13.159   0.244  0.4298 -0.0925  0.3752
34843W        W77756  34.297  15.442   6.750 -0.1679 -0.2895  0.2518
34844W        W77757   0.454  14.793  15.797 -0.1551  0.2794  0.1469
34845W        W77758   2.037  18.899   4.534 -0.0210  0.1777  0.2236
34846W        W77759  19.976  13.826   6.910  0.0672  0.0243 -0.1485
34847W        W77760  29.700  23.270   7.764 -0.1843 -0.0781 -0.0380
34848W        W77761  25.796  21.021   1.915 -0.2682 -0.0224 -0.2237
34849W        W77762  21.003  17.739   2.545  0.2748 -0.1586 -0.2289
34850W        W77763  25.090   6.851   5.866 -0.1099  0.4081  0.0904
34851W        W77764  25.395  24.891   5.535  0.3986  0.1192 -0.0958
34852W        W77765   0.142  21.542   6.878 -0.4450 -0.0659  0.0754
34853W        W77766  31.178  16.646  23.542 -0.0648  0.1061 -0.1405
34854W        W77767  10.681  18.977  27.151 -0.1072  0.1661 -0.0555
34855W        W77768  17.413  10.084  19.190 -0.1479 -0.1011  0.2887
34856W        W77769  25.423  23.536   7.282 -0.3640  0.1182  0.0449
34857W        W77770   7.252   8.691  12.155  0.2213  0.2120  0.3075
34858W        W77771  16.720  10.935  20.423 -0.4813  0.1672  0.1791
34859W        W77772  33.998  16.376  26.953 -0.0296  0.1720 -0.0349
34860W        W77773  24.444  23.577   7.351  0.0871  0.0703  0.6403
34861W        W77774   4.988   8.109   2.149 -0.1915  0.2349  0.0253
34862W        W77775  30.801  16.102   5.940  0.1188 -0.3870  0.3382
34863W        W77776  26.812  17.831   3.668  0.0972 -0.1121 -0.2794
34864W        W77777  17.394  18.526   4.209 -0.2537  0.0529  0.1168
34865W        W77778  24.943   5.610  24.854 -0.2453  0.2896 -0.0190
34866W        W77779  29.387  20.207  25.293  0.4981 -0.1511 -0.3677
34867W        W77780  27.577  20.272   8.565 -0.1223 -0.2483 -0.2192
34868W        W77781  28.113  25.996   1.908 -0.1276  0.0541  0.1229
34869W        W77782  32.207  25.037  25.212  0.0487  0.0073  0.1424
34870W        W77783  16.470  17.702   3.323  0.3443 -0.1280  0.0462
34871W        W77784  26.994  17.510  16.933  0.1493  0.1487 -0.1483
34872W        W77785  29.153  20.224   1.322 -0.0679 -0.2309 -0.2561
34873W        W77786  22.276  18.660  25.840  0.0873  0.2563 -0.1077
34874W        W77787  34.084  11.339   8.394 -0.0852  0.0264 -0.0483
34875W        W77788  24.213  16.026   2.108  0.2928 -0.1251 -0.0192
34876W        W77789  32.218  17.013   6.516  0.2093 -0.0588 -0.2556
34877W        W77790   5.254  14.908   8.747 -0.0214 -0.0700 -0.0531
34878W        W77791  24.946  12.141   9.752 -0.4464 -0.0992 -0.1108
34879W        W77792  26.634  24.223   6.441  0.0249  0.0051  0.0685
34880W        W77793  34.232  20.946   8.204  0.1107  0.1442 -0.3148
34881W        W77794   9.450  32.500  28.310  0.1738 -0.3309  0.0236
34882W        W77795  30.324  21.067   1.057  0.2646 -0.2639  0.0837
34883W        W77796  33.381  24.151   4.503  0.3295 -0.2516  0.0149
34884W        W77797  21.413  12.003  20.767  0.0894 -0.0579  0.3197
34885W        W77798  24.397  28.672   1.780 -0.0793 -0.0336 -0.2581
34886W        W77799  19.741  21.279   5.490  0.0937  0.0097  0.1605
34887W        W77800  14.159  17.445   3.067 -0.1099  0.1040 -0.0591
34888W        W77801  29.155  10.635   3.246  0.0269 -0.1222 -0.0500
34889W        W77802  24.572  20.756   6.024  0.1912  0.1715  0.1779
34890W        W77803  29.015  13.720  27.787 -0.3937  0.1368 -0.0301
34891W        W77804  16.411  15.350   4.782  0.0655  0.0369  0.0537
34892W        W77805  32.685  23.064   4.733 -0.0098 -0.1158  0.1215
34893W        W77806  12.667  21.252   7.732  0.1667 -0.2710 -0.2994
34894W        W77807  29.044  15.799   4.808  0.0336  0.1097 -0.0108
34895W        W77808  19.764  10.668   3.881  0.1151 -0.0196  0.1771
34896W        W77809  24.410  18.037   3.786 -0.2672 -0.2898  0.0220
34897W        W77810   8.763  21.926   7.336 -0.1627  0.6234 -0.2133
34898W        W77811  34.319   7.366   1.598  0.0473  0.0504  0.1729
34899W        W77812  14.184  18.510   8.498  0.0634 -0.2475 -0.0597
34900W        W77813  13.890  22.258  26.980 -0.0792 -0.1975 -0.3686
34901W        W77814  19.840  15.753   3.737  0.5994 -0.0016  0.0197
34902W        W77815  29.297  11.475   5.282 -0.0440 -0.0618 -0.1959
34903W        W77816  24.585   8.393   8.509  0.3326  0.0261 -0.0514
34904W        W77817   4.065   1.537   4.924 -0.0778  0.0318 -0.3016
34905W        W77818  14.124  15.353   0.549  0.0030 -0.2386  0.1054
34906W        W77819  14.785  12.197   2.099 -0.3728  0.3756  0.0581
34907W        W77820   1.642  13.101   8.109  0.2217 -0.3764 -0.0863
34908W        W77821   4.027  15.373  28.221  0.0835  0.3539 -0.0010
34909W        W77822  17.432   9.334   8.186  0.2707 -0.0751  0.1551
34910W        W77823  13.563  11.629   3.578  0.0398  0.1059  0.2538
34911W        W77824  32.120  19.579   4.008 -0.0383 -0.0254 -0.0943
34912W        W77825  22.387  13.779   6.351 -0.0676  0.0338  0.1245
34913W        W77826  23.236  19.295   7.247 -0.1482  0.2032  0.0021
34914W        W77827  25.932  16.418  27.822  0.1944 -0.1620  0.1056
34915W        W77828   0.829  17.824   1.361  0.2817  0.1202 -0.0970
34916W        W77829  23.471  19.240   4.021 -0.1531  0.0244  0.0694
34917W        W77830  13.028   4.638   7.550 -0.1119  0.0404 -0.1321
34918W        W77831  23.795  15.209  27.463  0.1369 -0.1803 -0.1462
34919W        W77832  30.325  12.584   6.993  0.1875 -0.1444 -0.5870
34920W        W77833  18.049  22.299  23.015 -0.0629 -0.0581  0.3897
34921W        W77834  28.218  15.828   3.540  0.0269 -0.0504  0.1842
34922W        W77835   2.672   6.963   5.761 -0.1255  0.0904 -0.0416
34923W        W77836  33.632  14.167   7.134  0.0063  0.1547  0.0956
34924W        W77837  22.427  21.719   3.342 -0.2358 -0.1519  0.5107
34925W        W77838  20.601  19.750   8.640 -0.2259  0.0210  0.0833
34926W        W77839  19.551  24.125   8.548  0.2657  0.2729  0.0169
34927W        W77840  23.915  20.352   7.739 -0.0446 -0.0804  0.1562
34928W        W77841  22.874  16.908  23.408 -0.2813 -0.1196 -0.2486
34929W        W77842  22.387  12.822   4.576  0.0503 -0.0858  0.1110
34930W        W77843   0.746  14.155   9.262 -0.0077 -0.1317 -0.1621
34931W        W77844  30.477  13.305   5.671 -0.2271 -0.1909 -0.2373
34932W        W77845  26.441  10.209   5.422  0.2879  0.0829 -0.0312
34933W        W77846  17.242  11.905   3.758 -0.0061 -0.0356  0.1920
34934W        W77847  20.626  20.436   3.515  0.0090 -0.0784 -0.0829
34935W        W77848  24.202  14.878  24.660  0.0185  0.1036  0.0282
34936W        W77849  27.997  14.211   6.471 -0.3231 -0.0122  0.1048
34937W        W77850  20.420   3.481  25.497 -0.0293 -0.1007  0.4073
34938W        W77851  18.721  17.783  28.949 -0.0367  0.0373 -0.1106
34939W        W77852  29.259   9.426  28.248 -0.0558  0.0624  0.1331
34940W        W77853  30.508   9.157   7.617 -0.3283  0.1118  0.0800
34941W        W77854  27.063  23.443  26.161  0.0302  0.2576  0.4424
34942W        W77855  20.100  11.485   8.066 -0.0086 -0.3849  0.0379
34943W        W77856   0.722  19.260   5.192  0.1520 -0.0609  0.0611
34944W        W77857  23.482  21.608   7.360 -0.3131  0.0143 -0.3710
34945W        W77858  31.608  12.995   3.793  0.0923  0.2167 -0.1654
34946W        W77859   1.454  12.106  26.994  0.0351 -0.0912  0.0461
34947W        W77860   3.927  19.083   3.792  0.0703  0.1247  0.0494
34948W        W77861  21.877   9.503   6.904 -0.3436 -0.1174 -0.1799
34949W        W77862  25.550  19.136  25.740 -0.1554 -0.2250 -0.1033
34950W        W77863  23.708  12.629   8.551  0.0307  0.0269  0.0939
34951W        W77864  16.799  16.886  26.911  0.2821  0.0122  0.2214
34952W        W77865  23.315  19.334   8.660 -0.0388  0.2504  0.2260
34953W        W77866  30.371  11.143   7.400 -0.0365 -0.1549  0.0371
34954W        W77867  20.682  14.208  22.515 -0.2024 -0.1558  0.0255
34955W        W77868  23.693  20.434   9.280  0.0438 -0.1047 -0.1407
34956W        W77869  26.605  21.123   0.024 -0.0366  0.1777 -0.0275
34957W        W77870  17.639  21.633   4.439 -0.0033 -0.3616 -0.0016
34958W        W77871  32.125  22.165   9.830  0.1422  0.0607 -0.1216
34959W        W77872   1.710  15.398   6.731  0.0585 -0.0063  0.2609
34960W        W77873  34.361  17.552   8.272 -0.2380  0.0920 -0.0418
34961W        W77874  28.858  11.864   7.206 -0.1608  0.0836  0.1038
34962W        W77875  32.561  16.801   4.301  0.0403  0.0707  0.1144
34963W        W77876  23.131  17.302   8.672 -0.0431  0.0466  0.0716
34964W        W77877  25.021  18.582  27.921  0.1637 -0.1837  0.1878
34965W        W77878  23.747  21.712  28.665 -0.0238  0.3086 -0.0122
34966W        W77879   1.367  16.386   2.504 -0.0253 -0.0215  0.3927
34967W        W77880  26.915   8.263   6.767  0.1212 -0.0712  0.1909
34968W        W77881  21.237  20.218   2.966 -0.2031 -0.0774  0.3252
34969W        W77882  26.804  19.687   8.017  0.2767 -0.1106  0.2222
34970W        W77883  20.969  30.275   2.230 -0.0397 -0.0183 -0.1731
34971W        W77884  23.410  20.238   3.469  0.1950 -0.1313  0.0631
34972W        W77885  21.436  16.292   5.206 -0.1546  0.0087  0.0957
34973W        W77886  28.456  19.880   3.536 -0.0235  0.1485  0.3357
34974W        W77887  23.560  13.216   1.231 -0.3001 -0.0811  0.1905
34975W        W77888  14.961  17.324   4.970  0.2598  0.1535  0.0024
34976W        W77889  30.802   6.861   4.064 -0.0269 -0.1233  0.1143
34977W        W77890  27.646   9.831  27.729 -0.2400  0.1261  0.2679
34978W        W77891  24.530  13.790   6.164 -0.1726  0.0350  0.1050
34979W        W77892  25.522  17.372   8.992  0.1003  0.2117  0.3385
34980W        W77893  33.740   9.093   9.059  0.1435  0.0981  0.0003
34981W        W77894  24.303   6.257   4.511 -0.0554 -0.1715 -0.3513
34982W        W77895  23.858  20.246  29.498  0.0775  0.1019 -0.2419
34983W        W77896  31.782  14.562   7.903 -0.4133  0.0393  0.0148
34984W        W77897  16.612   7.330  28.472  0.0981  0.1776  0.1531
34985W        W77898  21.669  13.823   2.240  0.1037  0.0055  0.1497
34986W        W77899  31.783  25.764   5.424  0.0383 -0.0444  0.1517
34987W        W77900   4.323  13.235   7.209  0.0574 -0.1966  0.1257
34988W        W77901  18.474  24.790   1.655 -0.1349 -0.0058  0.3726
34989W        W77902  10.578  18.327  23.743  0.0903 -0.2042 -0.0197
34990W        W77903  14.138  19.515   7.032 -0.0765 -0.2258 -0.2687
34991W        W77904  29.083  15.825   6.915 -0.0312  0.2771 -0.0057
34992W        W77905   4.368  16.741   8.948  0.0057 -0.1108  0.0544
34993W        W77906  16.220  15.445   2.200 -0.2576  0.2690  0.1723
34994W        W77907  28.159  14.040   0.111  0.0216 -0.2357  0.1511
34995W        W77908  32.678   1.871   9.862 -0.0693 -0.0221 -0.0497
34996W        W77909   3.461   9.219  10.900 -0.0578 -0.0656  0.0282
34997W        W77910  16.157   3.070   7.376 -0.0048 -0.0489 -0.0325
34998W        W77911  21.280  15.244   3.431  0.0387 -0.0995 -0.1524
34999W        W77912   1.815   8.751   8.149 -0.0475  0.1537 -0.1482
35000W        W77913  17.412  15.067   7.433 -0.1842  0.0154  0.0027
35001W        W77914  33.564  24.386   0.273  0.1207  0.0061 -0.1262
35002W        W77915  28.179   8.583   6.295 -0.1686  0.0041 -0.1610
35003W        W77916  33.440  10.901   2.686 -0.3739 -0.0404  0.0355
35004W        W77917   4.806  15.656   9.160 -0.1541  0.2131 -0.0732
35005W        W77918  32.699  11.639  21.849  0.3590 -0.0033  0.0332
35006W        W77919   1.458  19.750   6.927 -0.0724 -0.2658 -0.4266
35007W        W77920   5.086   7.342   5.642 -0.0358 -0.0349  0.2872
35008W        W77921  25.271  13.561   2.519 -0.0356  0.2015 -0.2165
35009W        W77922  25.385  14.262   3.114 -0.2905  0.1952  0.0274
35010W        W77923   1.278  17.068  28.494 -0.3868  0.0578  0.1109
35011W        W77924  28.123  14.335   5.800  0.0281 -0.0517 -0.1280
35012W        W77925  34.457  20.109   3.816  0.0134  0.0645 -0.0204
35013W        W77926   4.943   7.015   3.703 -0.0223 -0.2717 -0.0459
35014W        W77927  30.235  22.750   5.543  0.0383  0.1499  0.1173
35015W        W77928   7.075   9.438   4.526  0.3430 -0.2110 -0.0238
35016W        W77929  30.519   9.928   0.887 -0.0211 -0.3287  0.4266
35017W        W77930  20.286   8.416   7.079 -0.0311 -0.1733  0.3415
35018W        W77931  32.732  14.085  29.673 -0.1813 -0.0557 -0.0983
35019W        W77932  22.942  30.194   0.903  0.2650 -0.0942 -0.0487
35020W        W77933  28.397  14.766   2.071  0.3450 -0.1223 -0.2632
35021W        W77934  31.082  21.991   9.009 -0.1154 -0.2542  0.0273
35022W        W77935  20.325  16.442  25.566 -0.1287  0.3001 -0.0608
35023W        W77936  30.038  15.008   5.764 -0.0984 -0.2722  0.1188
35024W        W77937  25.052  17.356   6.919 -0.0803 -0.1212  0.3277
35025W        W77938   0.360  16.506   8.397  0.1805 -0.3272 -0.4123
35026W        W77939  27.614  16.289   5.044  0.1160 -0.0095 -0.0403
35027W        W77940  10.879   8.018  23.842  0.1405 -0.1623 -0.3435
35028W        W77941  22.970  15.262   2.619  0.3231  0.3182 -0.1423
35029W        W77942   9.897  23.183   8.493 -0.1453 -0.0234  0.0827
35030W        W77943   3.199  14.170   5.441  0.1430  0.0404  0.1787
35031W        W77944  26.647  14.969  24.657  0.1309 -0.0423  0.1499
35032W        W77945  27.551  12.973   3.772  0.2174 -0.0023  0.2836
35033W        W77946  23.687  15.273   6.018 -0.0615  0.0787  0.1492
35034W        W77947  16.881  16.472   6.832  0.0380  0.2107 -0.0319
35035W        W77948  27.579  21.127  24.807 -0.0415 -0.2634  0.1674
35036W        W77949  27.046  21.219  28.363  0.1630  0.0144 -0.1230
35037W        W77950  30.739  21.249   9.569 -0.1541 -0.0112  0.3428
35038W        W77951  22.430  19.534   6.013 -0.2062 -0.0059  0.2469
35039W        W77952  27.426  22.537   8.051  0.0888 -0.2201 -0.1153
35040W        W77953  31.075  17.980   5.504  0.0940  0.6211  0.3314
35041W        W77954  27.263  21.935   9.399  0.0731  0.1158 -0.1190
35042W        W77955  30.298   9.865   8.345 -0.3735 -0.1753 -0.1742
35043W        W77956  27.405  18.561   4.285  0.1842 -0.0027 -0.2263
35044W        W77957  22.535  21.857  28.173  0.0297  0.2501 -0.2603
35045W        W77958  31.113  25.176   7.149 -0.0183  0.0682  0.3028
35046W        W77959  22.703  13.637   1.158 -0.1394 -0.0237  0.0558
35047W        W77960  31.582   0.686  10.865 -0.1584  0.1804  0.0307
35048W        W77961  23.287   6.299   1.475 -0.0787 -0.3659 -0.0157
35049W        W77962  23.593  19.960  28.142  0.3216  0.0789 -0.1840
35050W        W77963   5.554  20.758   6.179  0.3130 -0.1168  0.1570
35051W        W77964  17.438  16.545   0.032  0.4427  0.0842  0.1730
35052W        W77965  21.884  18.014   8.934 -0.1210  0.1538 -0.2025
35053W        W77966  21.902  18.706   1.866  0.2009 -0.1962  0.3061
35054W        W77967   1.630  15.444   4.723 -0.0230 -0.1759 -0.0306
35055W        W77968  17.612  11.728   0.030  0.0911  0.0771 -0.2594
35056W        W77969   1.099   8.549   2.753 -0.2122  0.1513 -0.1597
35057W        W77970  27.109  11.422  23.279 -0.0894  0.0038  0.0241
35058W        W77971  30.824   3.511  11.080  0.0208  0.0056  0.1768
35059W        W77972  27.284   1.104   5.814  0.0870  0.1364 -0.3757
35060W        W77973   1.027  15.191   4.790 -0.1849  0.0752  0.0380
35061W        W77974  27.487  17.901   4.030  0.0231 -0.1311  0.1091
35062W        W77975  26.655  11.678   6.748  0.0504 -0.1569  0.2717
35063W        W77976  13.646  17.541   2.995 -0.3478 -0.0237  0.1680
35064W        W77977   1.311  22.674   7.957 -0.0313  0.2157  0.2468
35065W        W77978  28.683  19.727  26.925  0.0508 -0.1116  0.0023
35066W        W77979  28.431  11.745   2.775  0.0065  0.0878  0.2088
35067W        W77980  34.127   7.215   6.204  0.1251 -0.0876  0.0935
35068W        W77981  23.962  19.348   0.151 -0.1276 -0.0392 -0.2136
35069W        W77982  29.299  12.412  28.980 -0.2997 -0.0203  0.0094
35070W        W77983  24.663   7.483   1.144  0.1648 -0.3359 -0.0338
35071W        W77984  24.556  19.768   8.716  0.2290 -0.2132  0.0776
35072W        W77985  30.037  20.252   7.931 -0.0014  0.2717  0.1213
35073W        W77986  30.194  19.501   4.070  0.0184 -0.1013 -0.0339
35074W        W77987   0.348  28.441   2.663  0.1397 -0.1546 -0.0149
35075W        W77988  30.412  23.336   6.247  0.4534  0.0428  0.0604
35076W        W77989   3.212  10.761   6.561 -0.2359  0.1329  0.0810
35077W        W77990  30.309  12.800   7.497  0.1241  0.3940 -0.1318
35078W        W77991  33.160  11.044   9.744 -0.2002 -0.0696  0.0491
35079W        W77992  21.626  15.513   2.457 -0.0691 -0.1244 -0.0309
35080W        W77993  31.149  15.750   5.799  0.2167 -0.1759  0.3429
35081W        W77994  28.036  18.333   4.848  0.2972  0.2698 -0.0652
35082W        W77995  31.998  22.053   3.089  0.1788 -0.2301  0.2259
35083W        W77996  24.303  12.870  23.283 -0.0410  0.2793 -0.1397
35084W        W77997   3.754   1.135   5.063  0.1138 -0.0195  0.3095
35085W        W77998  14.474  16.429   8.122 -0.2450 -0.1373  0.0055
35086W        W77999  29.708  30.950   4.206 -0.3505 -0.2021  0.2001
35087W        W78000   7.843   4.235   5.288 -0.1600  0.1450 -0.2467
35088W        W78001  21.791  20.476  19.827 -0.1876 -0.0528 -0.2046
35089W        W78002  34.195   7.642  10.943  0.1719  0.3114 -0.0295
35090W        W78003  15.233  25.116   6.721  0.3209 -0.0755  0.4797
35091W        W78004  24.895  14.328   0.701  0.1179 -0.1249 -0.2098
35092W        W78005  15.784  10.773   7.678  0.1103  0.1141  0.1604
35093W        W78006  27.259  23.299   0.105 -0.1428  0.2882  0.1352
35094W        W78007   1.894  16.730   5.089 -0.1782 -0.3654 -0.1342
35095W        W78008  29.319  14.746   8.628 -0.0614 -0.1864 -0.0739
35096W        W78009   2.108   3.526   7.920  0.1070 -0.2417  0.2278
35097W        W78010  22.618  22.199   8.190 -0.0545  0.0060 -0.0292
35098W        W78011  24.151  13.190   2.987 -0.0200  0.2468  0.2100
35099W        W78012  17.133  10.406   4.433  0.2952  0.0326  0.2544
35100W        W78013  21.952  22.096   4.957  0.1912  0.1441  0.0759
35101W        W78014   5.737   1.081  10.825 -0.3048 -0.0579  0.0463
35102W        W78015  26.126  19.363   2.125  0.1709 -0.1455 -0.0103
35103W        W78016  21.716  14.334   5.705  0.1711  0.2619 -0.0258
35104W        W78017  19.079  19.261  25.811  0.0952  0.1078  0.1621
35105W        W78018  24.634  20.298  27.983  0.1691  0.0551  0.0192
35106W        W78019   5.366   5.367  13.077 -0.1428 -0.1127 -0.0823
35107W        W78020  24.303   3.352   5.702  0.4374  0.1489 -0.0937
35108W        W78021  30.786  14.799  27.012 -0.0758  0.1295 -0.2218
35109W        W78022  25.244  19.829   3.182  0.1637  0.0121  0.0509
35110W        W78023  31.831  14.488   9.501  0.1803 -0.2107 -0.0184
35111W        W78024  27.168  20.628   6.236 -0.0778 -0.0620 -0.0560
35112W        W78025  34.081  12.466   8.869  0.3000  0.1773 -0.2505
35113W        W78026  33.110  11.901   4.370  0.1994 -0.0536  0.0596
35114W        W78027   0.467  20.767   5.260 -0.3220 -0.0230  0.0907
35115W        W78028  27.904  14.795   5.490  0.1855 -0.1266  0.1995
35116W        W78029  10.714  11.505   1.578 -0.0765  0.0039 -0.2925
35117W        W78030  32.736  31.992   0.452 -0.1738 -0.1732 -0.0989
35118W        W78031  24.377  23.722   7.829  0.2107  0.0143  0.0853
35119W        W78032  19.892  11.719   3.552 -0.0297  0.0837  0.3219
35120W        W78033  31.902  19.612   7.017 -0.0099  0.0274 -0.3926
35121W        W78034  30.233  22.490   8.170 -0.1638 -0.1473  0.1536
35122W        W78035  31.850  17.347   9.136  0.0700 -0.0402  0.0411
35123W        W78036  13.247   6.555   5.184 -0.0363  0.0863 -0.0104
35124W        W78037  31.027  20.630   7.186  0.0503  0.0471 -0.0655
35125W        W78038   2.703  10.075   4.424  0.0404  0.1763 -0.0337
35126W        W78039  29.090  14.094   5.912 -0.1961 -0.2675 -0.4724
35127W        W78040  26.172  12.043   4.167 -0.2935  0.1429  0.4766
35128W        W78041  25.149  14.493   3.474 -0.0594 -0.0234  0.0739
35129W        W78042  32.544  15.668   0.996 -0.0210 -0.1658 -0.0587
35130W        W78043  33.452  17.823   2.143  0.0672  0.1490 -0.1133
35131W        W78044  22.355  13.375   3.326  0.2517  0.0849  0.2995
35132W        W78045  28.210  23.765   9.128 -0.2121 -0.0274 -0.2554
35133W        W78046  25.320  20.871   7.771  0.0357 -0.2831 -0.1491
35134W        W78047  19.165  23.376   2.241  0.0430  0.1884  0.1152
35135W        W78048  26.878  10.855   7.468 -0.3302 -0.1831 -0.2562
35136W        W78049  31.181  11.892   2.023  0.3067 -0.0075  0.0172
35137W        W78050  26.578  10.707   7.113  0.0498 -0.2028  0.2164
35138W        W78051   2.573  12.120   7.678  0.0681  0.0733 -0.0009
35139W        W78052  30.762  17.819   4.133  0.2173  0.1038  0.2288
35140W        W78053  18.050  18.214   5.010  0.1658 -0.0865 -0.0280
35141W        W78054  30.732  20.321   8.529  0.1078 -0.1908  0.3737
35142W        W78055  21.729  19.916   3.393  0.2508  0.0022  0.0323
35143W        W78056  25.070  18.400  27.098  0.1037  0.2100 -0.0803
35144W        W78057  25.877  15.133   0.226  0.1259 -0.1955 -0.0825
35145W        W78058   1.577  11.707  26.622  0.0001 -0.0996 -0.0696
35146W        W78059   2.367  19.749   5.315  0.2802 -0.0773  0.2657
35147W        W78060  20.246  21.482   4.858  0.0253 -0.2770 -0.0345
35148W        W78061  30.470  19.622   8.595 -0.0852  0.1306 -0.3118
35149W        W78062  30.408  17.947  27.641 -0.0877 -0.1289  0.1180
35150W        W78063  17.688  17.828  27.246 -0.1545  0.2278 -0.3056
35151W        W78064  31.103  22.373   1.141 -0.0239  0.1119 -0.0537
35152W        W78065  32.551  12.199  26.750  0.1369 -0.1558 -0.1705
35153W        W78066  20.941  12.116   1.429  0.1388 -0.0184 -0.0972
35154W        W78067  26.382  19.401   7.007  0.1486  0.4375 -0.3714
35155W        W78068   1.851  15.418   1.747  0.3082  0.2348  0.0705
35156W        W78069   0.460   9.792  10.087  0.1314  0.0504 -0.2369
35157W        W78070  11.655  20.837   9.024  0.1632  0.2949  0.0083
35158W        W78071  28.620  12.018   7.571 -0.3104 -0.0500 -0.1011
35159W        W78072  22.922  13.978   7.193 -0.0890  0.0518  0.1711
35160W        W78073  26.428  16.336   1.798  0.2293 -0.3298  0.1131
35161W        W78074  22.336   5.529  28.450 -0.3083  0.1549 -0.2923
35162W        W78075  29.994  17.764   8.156  0.1460  0.0689  0.2998
35163W        W78076  28.626  13.235   8.572  0.0678  0.1911  0.1719
35164W        W78077   3.457  11.924  29.145 -0.1318 -0.1020  0.1247
35165W        W78078  19.371  13.365  28.686  0.2511  0.1069  0.2197
35166W        W78079  32.274  17.739   8.864  0.0507 -0.0406 -0.1517
35167W        W78080  15.404  13.465   2.290 -0.1911  0.1622  0.0430
35168W        W78081  22.306  16.228   4.590 -0.2285  0.0633  0.1249
35169W        W78082   5.418  17.248   5.438  0.2240 -0.1114 -0.1556
35170W        W78083  31.502  15.693   8.038 -0.0536 -0.2613 -0.2429
35171W        W78084  22.387  18.818   8.708  0.1326  0.3443 -0.1071
35172W        W78085  26.316  21.103   1.829 -0.1228  0.4347 -0.3947
35173W        W78086  29.839  26.012   7.640 -0.0182  0.1723  0.2805
35174W        W78087  26.922  13.526   1.214 -0.0515  0.1642  0.0023
35175W        W78088   2.813  16.894   5.793 -0.2806  0.0761 -0.2480
35176W        W78089   5.877  13.836   6.085 -0.0564 -0.1444  0.2731
35177W        W78090  24.007  10.037   1.305  0.0983  0.1349 -0.0652
35178W        W78091  28.879  21.001   6.183  0.2396  0.0618  0.2609
35179W        W78092  29.361  16.137   1.080  0.5521  0.2322  0.1299
35180W        W78093  25.391  24.691  26.006 -0.1214  0.1432 -0.0987
35181W        W78094  21.182  12.177   6.834  0.0224  0.5069 -0.2444
35182W        W78095  33.129  11.490   3.718  0.1887 -0.0706 -0.2971
35183W        W78096  28.060   6.887   2.063  0.0829 -0.3526 -0.1470
35184W        W78097  23.247  15.664  27.869  0.3916 -0.2067  0.0701
35185W        W78098  24.911  13.339   5.364 -0.2609  0.2435  0.0046
35186W        W78099  30.631  10.226   6.562  0.0319  0.0175 -0.0493
35187W        W78100  31.794   9.080   2.976 -0.0219 -0.0755  0.1470
35188W        W78101  21.849  23.107  27.002 -0.4040  0.2471 -0.1622
35189W        W78102  12.580  14.804  26.429 -0.0743 -0.0958  0.1552
35190W        W78103  16.240  20.973   2.582 -0.3181  0.1102 -0.4040
35191W        W78104  29.873  16.810   4.276 -0.2802  0.2573 -0.1054
35192W        W78105  24.125  19.333   8.566  0.1601 -0.1466 -0.2182
35193W        W78106  27.694  12.276   8.069  0.0765  0.1660  0.0152
35194W        W78107  19.595  17.984  27.838  0.2686  0.1574 -0.1420
35195W        W78108  27.535  24.287   5.742  0.2202  0.1618 -0.0281
35196W        W78109  24.026  31.753   6.585 -0.1978 -0.1305 -0.0196
35197W        W78110  15.019  20.678   7.646 -0.0211 -0.2162 -0.4200
35198W        W78111  27.745   6.711  29.477 -0.0506 -0.2342 -0.0061
35199W        W78112  31.336  18.193   6.965  0.0785 -0.1354 -0.2838
35200W        W78113  20.376  12.411   8.010 -0.1412 -0.0752 -0.3979
35201W        W78114  31.783  16.088  29.247  0.2918  0.0128  0.1106
35202W        W78115  24.727  23.822   1.538 -0.2796 -0.1244 -0.0592
35203W        W78116  30.949  14.308  10.360  0.0993  0.2593 -0.0187
35204W        W78117  13.768   3.630  26.006  0.3191  0.0703 -0.2630
35205W        W78118  32.641  23.396  10.088  0.1368  0.0106  0.0139
35206W        W78119  28.467  20.110   8.867 -0.1207 -0.3696  0.1669
35207W        W78120  24.643  18.461   1.623  0.1065 -0.2831 -0.0712
35208W        W78121  22.278  18.708   5.808 -0.2714  0.0681 -0.0678
35209W        W78122  28.320  20.821   7.134 -0.1281  0.2820  0.0261
35210W        W78123  24.894  22.033   6.474 -0.0527  0.3515 -0.0971
35211W        W78124  24.037  20.029   5.538  0.0143  0.0963 -0.3310
35212W        W78125   2.109  10.535   3.312  0.3754 -0.0038  0.0986
35213W        W78126  20.540  16.786   1.160 -0.1043 -0.1490  0.0662
35214W        W78127   0.155  16.084   8.443  0.0897  0.1241  0.1932
35215W        W78128  24.526  21.387   5.809 -0.5154 -0.0132  0.2946
35216W        W78129   5.699  12.198   8.021 -0.0944 -0.0331 -0.0316
35217W        W78130  16.081  19.022  24.904  0.3007 -0.0219  0.1137
35218W        W78131  32.185  14.737   9.130  0.3030 -0.0645 -0.3209
35219W        W78132  30.638  12.506  28.784  0.3203 -0.0799 -0.1351
35220W        W78133   0.782  24.897  23.931  0.2041 -0.2066 -0.0153
35221W        W78134  28.475   9.173   8.962  0.0729 -0.1083  0.2818
35222W        W78135  17.279  13.297   8.158 -0.1534  0.2934 -0.1140
35223W        W78136  21.718  32.704   1.397  0.2392 -0.2231  0.0882
35224W        W78137  25.179  15.456   3.765 -0.1253  0.2775 -0.0133
35225W        W78138  34.080  17.753   2.360 -0.1303 -0.1030 -0.1493
35226W        W78139  28.947  16.856   6.760 -0.0562  0.0437  0.0570
35227W        W78140  30.146  16.119   7.872 -0.0527  0.4261 -0.1063
35228W        W78141  21.089  17.774  19.635 -0.0776 -0.0088 -0.2610
35229W        W78142  24.422  15.464   1.462  0.0246  0.3128  0.2384
35230W        W78143  30.908  21.410   0.387 -0.1111 -0.0999  0.1740
35231W        W78144  29.647  15.102   9.054  0.3360  0.1339  0.1359
35232W        W78145  15.737  12.842   4.410 -0.2856 -0.3390 -0.0288
35233W        W78146   2.116  11.942   7.393  0.2359 -0.0152  0.0774
35234W        W78147   5.752  19.451   4.631  0.0990 -0.5470  0.3064
35235W        W78148  27.737  10.323   3.341  0.0782 -0.0124 -0.2432
35236W        W78149  25.526  31.815   5.538 -0.2277  0.0205  0.0053
35237W        W78150  26.841  21.947   8.502  0.0386 -0.0149  0.3457
35238W        W78151  20.381  17.892   3.329  0.0900 -0.0164  0.0114
35239W        W78152  29.453  16.096   0.143  0.1264 -0.1769 -0.5151
35240W        W78153   0.402  17.921   9.816  0.1988 -0.5718 -0.1507
35241W        W78154  25.470  19.212   3.532 -0.1303  0.0968 -0.0708
35242W        W78155   3.996   8.064   7.168 -0.1544  0.0258 -0.2699
35243W        W78156  27.918  20.089   8.837  0.1106 -0.0499  0.1279
35244W        W78157  21.416  13.012  22.429  0.0577  0.1467 -0.1192
35245W        W78158  19.176  24.414   1.940 -0.0262 -0.0712 -0.1076
35246W        W78159   1.047  15.411  10.209 -0.2897  0.1010  0.1944
35247W        W78160  27.774  17.361   7.015 -0.0700 -0.1505 -0.1150
35248W        W78161  26.844  21.000   6.322 -0.5118  0.1048 -0.1590
35249W        W78162  26.206  10.693   8.053 -0.1571 -0.0508 -0.0396
35250W        W78163  18.697  18.159  29.507 -0.3146  0.0194  0.3568
35251W        W78164  30.399  13.813   6.596  0.0049 -0.1399 -0.0159
35252W        W78165  31.388  25.654  27.958 -0.0713  0.2539  0.0569
35253W        W78166  18.069  13.294   2.071  0.1846 -0.1739  0.4024
35254W        W78167  32.366  23.555   2.532 -0.0187 -0.1297 -0.2116
35255W        W78168  25.052  30.557   8.707  0.0393 -0.2983  0.2439
35256W        W78169  30.945  22.822   9.109  0.0796  0.2207 -0.2999
35257W        W78170  28.725  18.119  27.196  0.1324  0.0649  0.0638
35258W        W78171  28.245  11.001   1.538  0.2139 -0.1423 -0.2878
35259W        W78172   6.790  20.021   7.040  0.2365  0.0586  0.0276
35260W        W78173  21.592  20.009   5.444  0.4172 -0.5095 -0.3886
35261W        W78174  18.790  10.894  23.267  0.0389 -0.0561  0.1714
35262W        W78175  33.429  14.530   5.568  0.0061 -0.1009 -0.0202
35263W        W78176  21.854  13.771  27.493 -0.0720 -0.2190 -0.2122
35264W        W78177   0.739  18.768   5.416  0.1974 -0.0034  0.1926
35265W        W78178  29.791  16.443  10.577 -0.1739 -0.0600  0.2317
35266W        W78179  30.194  17.503   7.783  0.0173 -0.4686 -0.2582
35267W        W78180  29.159   0.614   8.455  0.3079  0.0766 -0.2711
35268W        W78181  26.778  20.082   5.673 -0.0436  0.1741  0.0638
35269W        W78182   2.770   9.245   5.182  0.0759 -0.0071  0.0973
35270W        W78183   4.785  15.217  27.705  0.0556  0.0064  0.1166
35271W        W78184  20.588  20.326   7.596  0.0464 -0.1781 -0.0390
35272W        W78185  30.838  15.931  23.158 -0.2149  0.1029  0.3170
35273W        W78186  31.775  13.738  22.202  0.2809  0.0327 -0.1878
35274W        W78187  26.358  23.424   8.007  0.0587 -0.1622 -0.1321
35275W        W78188  19.498  25.065   0.653 -0.0774 -0.3497  0.3825
35276W        W78189  24.091  21.026   5.063  0.2730 -0.3793  0.1016
35277W        W78190  14.802  24.015   0.311 -0.3168  0.1831 -0.0634
35278W        W78191  20.293  12.494  19.440  0.1593  0.4721  0.0329
35279W        W78192  33.155  29.338   2.438 -0.2142 -0.1796  0.0565
35280W        W78193  32.972  25.598  26.282 -0.1250  0.1309 -0.0696
35281W        W78194  30.336  19.078  29.157 -0.1632  0.0796 -0.2181
35282W        W78195  22.338  30.973  27.581 -0.1881 -0.4211 -0.3528
35283W        W78196  29.204   2.891  26.944 -0.1304 -0.2679  0.0961
35284W        W78197  24.553  21.418  29.142  0.0363  0.0237 -0.1761
35285W        W78198  24.995  23.244  26.362  0.0229  0.1125 -0.2534
35286W        W78199  28.737  19.619   8.159 -0.2411 -0.1205  0.1284
35287W        W78200   3.652  33.067   5.818  0.2525 -0.2278  0.2049
35288W        W78201  22.650  21.533   0.668  0.1233  0.2235 -0.4386
35289W        W78202  26.222  12.452   9.472  0.0006 -0.3073  0.2390
35290W        W78203   7.603   7.210  11.887 -0.1382 -0.1217 -0.2075
35291W        W78204  25.977  20.756  28.312 -0.1656 -0.0511  0.2148
35292W        W78205  13.618  10.404  22.253  0.0540  0.0911  0.1547
35293W        W78206  24.894  19.639  28.780 -0.1914 -0.2347 -0.0553
35294W        W78207  26.105  18.834  28.323 -0.2433 -0.0600 -0.1653
35295W        W78208  32.505  21.013   6.839  0.0316 -0.1895  0.0356
35296W        W78209  30.445  18.719   9.926 -0.1503 -0.0509  0.2688
35297W        W78210  28.028  25.701   6.637  0.1329 -0.1357  0.0433
35298W        W78211  20.422   9.319   6.368  0.1776  0.1419  0.1387
35299W        W78212   1.687  24.244   4.000  0.0192  0.0179 -0.1093
35300W        W78213  26.113  17.962  28.427 -0.0703  0.3593  0.0839
35301W        W78214  14.287  23.851   7.060  0.1621  0.1698 -0.2101
35302W        W78215  19.456  16.748  24.038  0.1141 -0.1997  0.0001
35303W        W78216  28.912  13.039   5.011  0.1930 -0.1518  0.1421
35304W        W78217  21.327  34.103   8.750 -0.1494  0.0487  0.1316
35305W        W78218  19.897  20.513  23.881 -0.0271  0.1805 -0.5882
35306W        W78219  18.803  15.137  25.607  0.2547  0.0772 -0.1852
35307W        W78220  32.594  27.131  26.501  0.1053  0.1004  0.3087
35308W        W78221  21.378  20.433   5.324 -0.3174 -0.0065  0.1806
35309W        W78222  23.776  11.321  18.644  0.0444 -0.4380  0.0562
35310W        W78223  18.830  22.123  22.768 -0.0229  0.3954 -0.1409
35311W        W78224  28.422  10.577   2.702  0.1870 -0.2118  0.2644
35312W        W78225  20.474  25.347  25.794 -0.1727 -0.0733 -0.1217
35313W        W78226  29.268   8.685   3.997 -0.0210  0.0014 -0.0684
35314W        W78227  23.491  16.907   5.358 -0.1210  0.4675  0.0741
35315W        W78228  33.492  18.810   0.997  0.0047  0.0069 -0.1307
35316W        W78229  27.697  31.461  26.268  0.0069 -0.0828 -0.1124
35317W        W78230   2.195  27.049  25.275 -0.0524 -0.1594 -0.0722
35318W        W78231  26.038  30.901  28.858 -0.1136 -0.0529 -0.1712
35319W        W78232  31.469  18.092   5.093 -0.0760 -0.0189 -0.1634
35320W        W78233  18.270  17.788  25.412 -0.1407 -0.3279 -0.1013
35321W        W78234  26.811  13.823   9.433  0.0762 -0.1375 -0.3623
35322W        W78235  13.800  15.527   4.374  0.2945  0.1412  0.1111
35323W        W78236  20.703  24.283   2.582  0.1389  0.1949  0.2281
35324W        W78237  18.705  11.955   6.730 -0.0169  0.3447  0.0430
35325W        W78238  16.611  21.860  22.290 -0.0612 -0.1735 -0.0445
35326W        W78239  27.685   4.604   3.079  0.2439  0.1206  0.0181
35327W        W78240  16.758   2.441   0.733  0.2374  0.0444 -0.1423
35328W        W78241  31.745  17.677   4.157 -0.4304 -0.1747 -0.1536
35329W        W78242  22.142  16.471  27.362 -0.0226  0.0770  0.1355
35330W        W78243  23.934   7.388  27.346 -0.2179  0.2764 -0.0988
35331W        W78244  25.351  18.253  27.945 -0.2535 -0.0195 -0.3025
35332W        W78245  31.641  19.770  28.845 -0.0728  0.1638  0.0624
35333W        W78246  29.449  29.612   8.822  0.0184  0.1142  0.1022
35334W        W78247  28.082  14.472   2.901  0.0577  0.0905 -0.1304
35335W        W78248  30.214  24.380  24.241 -0.0103  0.0277  0.0584
35336W        W78249  25.873  14.867  29.372  0.0208 -0.0631 -0.0519
35337W        W78250  19.231  25.934  29.164 -0.2313  0.0579 -0.0375
35338W        W78251  15.744   2.073   5.196 -0.2446 -0.2230 -0.2219
35339W        W78252  29.028  13.295   9.320 -0.1260 -0.0847 -0.0722
35340W        W78253  14.906  14.810  27.901 -0.3797  0.0015 -0.1138
35341W        W78254  26.016  12.728   7.262  0.2155 -0.2862  0.2618
35342W        W78255  29.093  17.809  26.388  0.0406 -0.0412 -0.1270
35343W        W78256  27.572  26.777  24.259  0.1127 -0.1868 -0.0485
35344W        W78257  24.068  23.955  28.448 -0.0287 -0.1341 -0.1931
35345W        W78258  24.026  25.708   7.493  0.0071 -0.1770 -0.0994
35346W        W78259  30.277  25.688   4.870  0.2621  0.4065 -0.0008
35347W        W78260   4.366  24.354   6.586 -0.0482  0.2494 -0.2451
35348W        W78261  24.954  22.679  27.272 -0.0516  0.0967 -0.3251
35349W        W78262   6.385  29.132   8.746 -0.2963 -0.2871 -0.0721
35350W        W78263   4.724  24.759   1.408 -0.1422 -0.1904 -0.0200
35351W        W78264  25.088  30.553  22.985  0.0054 -0.0130 -0.0060
35352W        W78265  17.274  20.128  27.000  0.2538 -0.0885 -0.3622
35353W        W78266  20.333  17.662   7.222  0.0512  0.0975  0.1214
35354W        W78267  26.323   4.347   3.269 -0.3300 -0.1737 -0.1115
35355W        W78268   2.607  17.435  18.257  0.0645  0.2657  0.2527
35356W        W78269   2.151  19.367   1.176  0.1048  0.0776 -0.2076
35357W        W78270  34.056  19.754  26.531  0.2010 -0.0302  0.1642
35358W        W78271  26.581  27.338  25.363  0.1457  0.1972 -0.2224
35359W        W78272  17.250  17.299   3.035 -0.0849  0.1019 -0.0110
35360W        W78273  17.191  19.478  22.080 -0.1232  0.0005 -0.2404
35361W        W78274  26.744  13.390   9.670  0.2740 -0.0205  0.0274
35362W        W78275  28.981  21.965   8.384 -0.0058  0.0652  0.1858
35363W        W78276  19.305  21.112   7.829  0.3302 -0.0781  0.0741
35364W        W78277   0.217  18.332  25.891 -0.1426 -0.0066 -0.1321
35365W        W78278  25.236  16.413   7.334  0.0586  0.1102 -0.0549
35366W        W78279  29.090  16.251   7.993  0.0736 -0.1127  0.2816
35367W        W78280  23.431  26.491   4.916 -0.1316 -0.2042 -0.2392
35368W        W78281  15.863  22.821  26.815  0.0447  0.1874  0.1766
35369W        W78282  30.440  24.870   6.919  0.0058 -0.0578 -0.0325
35370W        W78283  24.273  11.258  22.631 -0.1439 -0.2503  0.1922
35371W        W78284  31.153  22.267   8.283  0.1447  0.2466 -0.0350
35372W        W78285  34.380  11.283  25.045 -0.0835  0.2058 -0.1492
35373W        W78286   9.113  30.437  11.220 -0.2109 -0.0295  0.3485
35374W        W78287  27.872  29.877   5.985  0.1558  0.1726 -0.2275
35375W        W78288  18.883  27.707   8.289 -0.1779  0.0695 -0.2612
35376W        W78289   0.180  18.370   5.088 -0.0061  0.1463  0.1066
35377W        W78290  25.479  17.272   1.063  0.1016  0.0308  0.0213
35378W        W78291  26.024  23.634  23.371 -0.0112 -0.1275  0.2628
35379W        W78292  19.952  24.593   5.810 -0.3665  0.2435  0.0740
35380W        W78293  26.796  18.217   1.905 -0.2393  0.1323 -0.3563
35381W        W78294  25.425  13.741   2.957 -0.0126 -0.0508 -0.0791
35382W        W78295   5.463  20.886  25.783 -0.0507 -0.0594 -0.0178
35383W        W78296  17.352  17.314  27.508  0.2551 -0.0600 -0.0969
35384W        W78297  25.314  19.338  27.327 -0.1063  0.2898  0.0294
35385W        W78298   1.863  15.901   4.755  0.5538 -0.0537 -0.0655
35386W        W78299  20.662  27.032  19.678  0.1781  0.0472 -0.0714
35387W        W78300  23.711  24.505   3.443 -0.1821 -0.0632  0.3935
35388W        W78301  18.142  13.439  21.778  0.0289 -0.4532 -0.0155
35389W        W78302  22.983  16.045  23.615  0.0868  0.1869  0.1207
35390W        W78303  28.013  27.205   2.767  0.0327  0.1591  0.0558
35391W        W78304  21.749  29.186  19.429  0.0070 -0.0115 -0.2961
35392W        W78305  22.451  19.324   4.061  0.0019  0.0455 -0.0591
35393W        W78306  15.450  22.949  27.106 -0.4850 -0.0199 -0.0096
35394W        W78307  32.151  16.950   4.550 -0.3452  0.0836 -0.0310
35395W        W78308  20.726  25.200   0.865  0.0797 -0.2886 -0.0427
35396W        W78309   1.735  14.271   7.376 -0.2749  0.1716  0.2527
35397W        W78310  20.079  17.186  29.436 -0.1923 -0.0121  0.2654
35398W        W78311  23.964  24.971   5.852 -0.1477 -0.2821 -0.1904
35399W        W78312  26.772  23.098   4.251  0.0669  0.0014 -0.0315
35400W        W78313  29.563  14.382   0.607 -0.2435  0.3121 -0.0996
35401W        W78314  34.376  11.896   3.290 -0.0582  0.1140 -0.0242
35402W        W78315  22.607  18.198   4.726  0.1680  0.1150 -0.1015
35403W        W78316  24.882  13.997   1.989  0.1023  0.1666 -0.3139
35404W        W78317  22.458  26.059   6.964  0.0726 -0.2592 -0.0011
35405W        W78318  27.330  26.942  26.756  0.0132 -0.0554  0.3307
35406W        W78319  32.906  14.670   8.629 -0.3309  0.0219 -0.0222
35407W        W78320  25.881  21.484   4.159  0.1133 -0.3330  0.0066
35408W        W78321  19.566  18.793   3.419  0.3329  0.1939  0.0415
35409W        W78322  22.653  20.285  17.048 -0.2329 -0.1934 -0.1271
35410W        W78323  20.578  16.639   0.133  0.0873  0.1116 -0.4569
35411W        W78324  33.965  13.487   3.581  0.3660 -0.1827 -0.1135
35412W        W78325  19.279  17.644  23.353 -0.3015 -0.0509  0.1919
35413W        W78326  34.453  19.512   2.559 -0.1672 -0.0122  0.1102
35414W        W78327  34.090   9.003  23.903 -0.1807 -0.0310 -0.3036
35415W        W78328  26.529  28.793   4.763  0.0841  0.3231 -0.0533
35416W        W78329  19.520  13.773   1.854 -0.2879  0.1050  0.0771
35417W        W78330  21.625  14.489  27.152  0.2028  0.0423 -0.0788
35418W        W78331   2.691  10.660  22.742 -0.0410  0.0778  0.0084
35419W        W78332  24.510  14.389  27.892 -0.0042 -0.1192 -0.2303
35420W        W78333  22.849  18.897  17.386  0.1201 -0.1834  0.2616
35421W        W78334   2.452  22.518   7.296  0.0227  0.2633 -0.1336
35422W        W78335  21.650  25.681   3.848 -0.0640  0.1969  0.1589
35423W        W78336  14.566  26.015  27.531 -0.2100  0.1161  0.2101
35424W        W78337  32.370  21.583   3.789 -0.1396 -0.2191 -0.0123
35425W        W78338  31.781  25.164   8.511  0.0522 -0.0031 -0.0076
35426W        W78339  31.924  25.486   0.829  0.2705 -0.0410  0.1019
35427W        W78340  22.189  17.462  24.900 -0.1210  0.0200 -0.1363
35428W        W78341  33.971  18.285  28.869  0.0610 -0.4143  0.2490
35429W        W78342  33.889  16.498   8.125 -0.0487  0.0537  0.2556
35430W        W78343  22.568  33.446   7.677 -0.0877 -0.0514 -0.0539
35431W        W78344  24.873  23.778  23.560 -0.0930  0.1017  0.0351
35432W        W78345  30.249  22.647  28.888 -0.4847  0.0098  0.1290
35433W        W78346  25.756  11.628   1.832  0.0582  0.2168  0.0781
35434W        W78347  20.881  12.394  27.188  0.1128 -0.6253  0.2210
35435W        W78348  20.901  25.430   8.245  0.0036 -0.1604 -0.1824
35436W        W78349  29.640  19.512   0.243 -0.0076  0.2406  0.2540
35437W        W78350  30.680  23.065   0.138 -0.0125  0.1353  0.0049
35438W        W78351   6.969  20.402  29.202 -0.0003 -0.0014  0.1684
35439W        W78352  29.197   5.831   1.057  0.1386 -0.2046 -0.1640
35440W        W78353  24.832  15.247  20.765 -0.0064  0.0608  0.0844
35441W        W78354  30.400  29.333   1.413 -0.3872  0.0262  0.0892
35442W        W78355  30.494  19.469  10.064  0.0232 -0.1288  0.0683
35443W        W78356  26.694  11.179   0.123 -0.1415  0.2680  0.3176
35444W        W78357  19.015  17.759  22.864  0.0744 -0.0927 -0.1900
35445W        W78358  16.054  18.806   6.151 -0.0195  0.1155 -0.1914
35446W        W78359  28.459  19.742   7.276  0.1702  0.0935 -0.0945
35447W        W78360  31.755  22.163   1.674  0.1474 -0.1943  0.0260
35448W        W78361  23.547   4.025   1.955 -0.0234  0.1768  0.1392
35449W        W78362  18.370  20.031   5.594  0.0041  0.2446 -0.1880
35450W        W78363  20.380  18.119   7.301  0.1199  0.1107  0.0024
35451W        W78364  22.956  25.612  23.446 -0.1130  0.0414  0.2463
35452W        W78365  21.820  32.244  27.828  0.0845 -0.2965 -0.0030
35453W        W78366  29.699  17.308  10.077 -0.3813 -0.4248  0.0391
35454W        W78367  24.906  21.257  26.226  0.0390  0.2481  0.2960
35455W        W78368  18.649  22.925  23.436 -0.5641  0.0559  0.0862
35456W        W78369  29.230  31.481   3.641  0.0550  0.2112 -0.0594
35457W        W78370  20.673  21.184   5.083  0.0242  0.0456 -0.0687
35458W        W78371  26.500  25.326  28.989 -0.0491  0.2539  0.1224
35459W        W78372  19.443  17.807  23.792  0.1677  0.0330 -0.1080
35460W        W78373  27.130  21.932   7.358  0.0871  0.0860  0.2273
35461W        W78374  23.946  16.390  25.796  0.1407  0.1249  0.0813
35462W        W78375  22.597   1.424   7.742 -0.1148  0.0660  0.1347
35463W        W78376  22.085  15.416   7.527  0.1637  0.1577 -0.0696
35464W        W78377  21.780  21.613   4.689  0.2514  0.0333  0.1191
35465W        W78378  21.158  23.447  29.414  0.3080 -0.3595  0.2223
35466W        W78379  24.708  18.127   1.147 -0.0572 -0.3070 -0.2653
35467W        W78380  20.122  33.743  29.444 -0.0082  0.0115  0.2513
35468W        W78381  14.531  23.485   3.457  0.2321  0.3233 -0.1544
35469W        W78382  15.378  13.087  24.858 -0.2062  0.0749 -0.1683
35470W        W78383  17.995  31.791   7.205 -0.1603 -0.1084 -0.0803
35471W        W78384  20.019  17.576  26.336  0.0810  0.0006  0.1748
35472W        W78385  24.785  28.501  26.373 -0.0262  0.2073 -0.0433
35473W        W78386   0.010  15.473   7.296  0.2597  0.2385 -0.2165
35474W        W78387   2.690  21.305  22.460  0.1372 -0.0631 -0.1546
35475W        W78388  27.550  18.524   1.571  0.3020  0.0371  0.0096
35476W        W78389  26.302  18.920   0.410 -0.2583  0.0964  0.0987
35477W        W78390  23.121  21.178   2.266 -0.0985 -0.1595  0.0200
35478W        W78391  23.894  13.077   7.645  0.0505  0.0973 -0.0685
35479W        W78392  26.935  27.075   4.085 -0.2443 -0.0859  0.2886
35480W        W78393  30.459  19.083   3.915 -0.1753 -0.0772 -0.2316
35481W        W78394  21.770  19.196  23.505  0.0483 -0.5288  0.1082
35482W        W78395  20.509  24.816   5.700  0.0980  0.3397  0.1629
35483W        W78396  25.620  20.207   3.115 -0.0485  0.1692 -0.1227
35484W        W78397  17.298  13.821  18.133  0.1018 -0.0824 -0.0491
35485W        W78398  25.042  17.933   9.534  0.1484 -0.0472 -0.0050
35486W        W78399  18.639  15.458   6.709 -0.0397  0.0495 -0.0865
35487W        W78400  31.722  19.483   7.685  0.0994 -0.1020  0.1720
35488W        W78401  22.931  12.062  23.740 -0.1877  0.1567  0.0263
35489W        W78402  33.897  15.851   1.684 -0.0855 -0.3427  0.0225
35490W        W78403  20.197  31.807   3.483  0.3597 -0.1950 -0.0295
35491W        W78404   4.864  25.689  17.771 -0.0711 -0.1431 -0.1387
35492W        W78405  29.202  22.841  25.346 -0.2421 -0.1527  0.0157
35493W        W78406  29.205  24.850   7.412  0.0169 -0.1627 -0.1509
35494W        W78407  23.716  20.184  19.073 -0.1337 -0.0910  0.0434
35495W        W78408  34.344  22.160  24.899  0.0132  0.3888 -0.0970
35496W        W78409  24.631  16.435   4.715 -0.1535  0.0815  0.0887
35497W        W78410  22.555  20.302   7.062 -0.1026 -0.0458  0.3775
35498W        W78411  33.850  11.654   4.945  0.0195  0.1374 -0.0460
35499W        W78412  30.686  19.081   3.424  0.0207 -0.2273 -0.1528
35500W        W78413  31.977  19.598  29.567 -0.1780  0.0570  0.1092
35501W        W78414   0.449  15.570  24.029  0.3662  0.1753 -0.2022
35502W        W78415  17.086  10.797  29.447 -0.0545 -0.1529  0.2101
35503W        W78416  23.908  20.484   1.635  0.0240 -0.2472 -0.1912
35504W        W78417   0.728  19.537   4.793  0.1081 -0.2115  0.0675
35505W        W78418  20.465  17.131  28.982  0.1588  0.2556 -0.0195
35506W        W78419  29.558  18.537   2.867 -0.1067 -0.0774 -0.0549
35507W        W78420  31.679  27.181   2.085 -0.2466  0.0598 -0.1914
35508W        W78421  30.257  10.620   4.755 -0.0766 -0.1142 -0.1465
35509W        W78422  24.226  20.874  28.903  0.0804  0.0055  0.0531
35510W        W78423  24.612   1.724  28.564  0.1333  0.1841  0.0323
35511W        W78424  23.947  31.720   8.851 -0.0906  0.4542  0.0966
35512W        W78425  24.928  21.001   3.726 -0.2577  0.1020 -0.3140
35513W        W78426  19.568  24.070  18.349 -0.1663  0.0264  0.0267
35514W        W78427  28.638  26.148   7.059 -0.1620  0.0870  0.1549
35515W        W78428  16.905  22.371   0.437  0.1252  0.4257  0.1483
35516W        W78429  20.102  13.583   0.534 -0.2147  0.1720 -0.2299
35517W        W78430  17.458  17.331  28.621  0.3540 -0.2451  0.1309
35518W        W78431  28.314  18.918   2.641  0.0623 -0.1765  0.1349
35519W        W78432  26.266  17.423   8.342  0.1199 -0.0437 -0.1043
35520W        W78433   9.608  19.178   4.300  0.0084  0.2012 -0.0631
35521W        W78434  33.606   7.912   1.940  0.0269 -0.2409 -0.3617
35522W        W78435  20.750  21.949  23.186 -0.1041 -0.1614  0.0887
35523W        W78436  25.584  19.502   0.291  0.2374  0.0872  0.1791
35524W        W78437  33.605  26.129   2.092 -0.0918  0.0590 -0.1737
35525W        W78438  29.236  29.450  24.677  0.2985 -0.0144 -0.0063
35526W        W78439  27.943  32.143  26.270 -0.3122  0.1819  0.1473
35527W        W78440  13.710   0.701  10.436 -0.1346  0.1134 -0.1666
35528W        W78441  25.831  25.549   0.969  0.1440  0.2111  0.1708
35529W        W78442  24.571  18.415   8.809  0.0517 -0.0234  0.2628
35530W        W78443  29.237  22.782   5.276  0.1562  0.1537 -0.3493
35531W        W78444  22.963  28.208  25.337  0.1146  0.1696 -0.2085
35532W        W78445  25.436  17.608   4.567 -0.1210 -0.1713  0.5680
35533W        W78446  24.027  25.462   3.200  0.2300 -0.1512 -0.1111
35534W        W78447  30.388  23.789  24.385  0.3202 -0.3856  0.3961
35535W        W78448  22.589   4.898  21.126  0.0420  0.0936 -0.3315
35536W        W78449  20.946  16.938   5.279 -0.0269  0.0550  0.5222
35537W        W78450  27.518  18.415   4.751 -0.1887 -0.0933 -0.2348
35538W        W78451  26.037  20.123  15.882  0.1648 -0.1328  0.0110
35539W        W78452  18.525   3.145   4.800 -0.0097  0.0632 -0.0810
35540W        W78453   8.343  22.691   2.147  0.0566 -0.4280  0.0277
35541W        W78454  15.378  25.330   2.227  0.3223 -0.3294 -0.2279
35542W        W78455  27.832  14.197  29.378 -0.0603  0.0473  0.1652
35543W        W78456  24.501  21.938   0.793 -0.0436  0.1921 -0.1367
35544W        W78457  25.830  27.600  20.012  0.1778 -0.0890 -0.1536
35545W        W78458  29.867  16.382  26.962  0.3282 -0.1713  0.2550
35546W        W78459  28.009  28.303  29.056  0.2681 -0.1005  0.3146
35547W        W78460  15.744  18.830  26.597  0.1736  0.0371 -0.0653
35548W        W78461  20.482  14.469  20.457 -0.1121  0.2355  0.2878
35549W        W78462  31.976   7.213  22.255  0.0930  0.1201  0.2536
35550W        W78463  27.760  19.523   0.567 -0.0990  0.1124  0.1408
35551W        W78464  27.435  22.531  20.076 -0.0533  0.0160  0.1038
35552W        W78465  15.340  23.331   1.540 -0.0615 -0.0404  0.0675
35553W        W78466  25.107  18.248   2.383  0.0025 -0.0677  0.0685
35554W        W78467  19.544  20.116  28.091  0.0294 -0.2420  0.1329
35555W        W78468  10.653  22.164   3.822 -0.0128 -0.0208  0.2033
35556W        W78469  31.878  23.569   4.387 -0.1456  0.0805 -0.0127
35557W        W78470  25.715  28.144   1.605  0.0037  0.0131 -0.1656
35558W        W78471  25.313  22.874   8.015  0.0039  0.1625 -0.0990
35559W        W78472  24.043  11.968   6.541 -0.3087 -0.4316  0.0049
35560W        W78473  30.592  28.675   6.696 -0.0035 -0.3606  0.2251
35561W        W78474  13.453  21.642  21.076  0.0408 -0.1036 -0.1795
35562W        W78475  16.837  13.040  23.813  0.0722  0.0067  0.1141
35563W        W78476  32.667  31.226  26.745  0.1046 -0.0367 -0.0412
35564W        W78477  18.702  19.688   1.864 -0.3341 -0.0852 -0.1012
35565W        W78478  27.168  27.510   7.866 -0.0784  0.0902  0.0240
35566W        W78479  21.805  24.820  22.833 -0.1027  0.0886 -0.1680
35567W        W78480  11.630   9.144   0.758  0.1920  0.1377 -0.1856
35568W        W78481  31.227  18.285  23.467  0.0285  0.0522  0.1612
35569W        W78482  15.907  19.987   7.870 -0.1713  0.1718  0.3525
35570W        W78483  25.060  18.709  21.278 -0.2846 -0.0164  0.1101
35571W        W78484  15.714   7.240  23.210  0.2466 -0.2154  0.1041
35572W        W78485  18.078  16.173  28.775  0.0717  0.0014  0.0042
35573W        W78486   2.452  24.642   7.070 -0.0358 -0.0585  0.1323
35574W        W78487  20.713  12.957   1.073  0.0544  0.0977  0.0941
35575W        W78488  30.953  18.499   7.245  0.1486 -0.1741  0.1230
35576W        W78489  28.935  32.371   3.132  0.2878  0.2740  0.1140
35577W        W78490  28.804  21.845  29.701 -0.0635  0.1928 -0.0910
35578W        W78491  31.487  14.981   6.361  0.1652 -0.2514 -0.2145
35579W        W78492  26.270  12.950  28.673  0.0140  0.0292 -0.0266
35580W        W78493  25.603  20.975  22.105 -0.3018  0.1931  0.4227
35581W        W78494  29.312  31.088  20.446 -0.0733 -0.0436  0.0786
35582W        W78495  23.342   8.021  28.440 -0.3386 -0.1958 -0.1721
35583W        W78496  23.346  20.599   0.928  0.2417  0.0833 -0.2056
35584W        W78497  18.549  17.487   0.387 -0.3010  0.0760  0.0513
35585W        W78498  27.352  29.967   2.603 -0.0295 -0.2380 -0.1498
35586W        W78499  24.052  16.734   3.805  0.1302 -0.1788 -0.3485
35587W        W78500  32.657  14.530   0.334  0.1613  0.2823 -0.1797
35588W        W78501  19.429  13.286  27.846 -0.0170  0.2015 -0.4721
35589W        W78502  26.111  12.537   3.954 -0.1435 -0.0331  0.2438
35590W        W78503   0.443  21.633   1.694 -0.0251 -0.2292  0.1038
35591W        W78504  27.279  20.057   4.786 -0.0675 -0.1158 -0.3311
35592W        W78505  20.057  28.938   3.760  0.3550  0.0515  0.1286
35593W        W78506   3.451   0.791   5.250 -0.1532  0.1024 -0.0874
35594W        W78507  17.226  21.733   5.596 -0.1271  0.2781 -0.2429
35595W        W78508  27.102  28.952   0.745 -0.0905 -0.2388  0.0710
35596W        W78509   8.319   6.812   6.284  0.0218  0.2165 -0.0982
35597W        W78510  20.805  22.830  22.483  0.0068 -0.0559  0.1205
35598W        W78511  32.498  24.393  29.138 -0.2312 -0.2408  0.5137
35599W        W78512  23.811  14.811   9.212 -0.2049 -0.0064 -0.0053
35600W        W78513  31.841  22.081   4.233  0.2345 -0.1146 -0.3239
35601W        W78514  27.538  24.174   7.354  0.1319 -0.0500 -0.1427
35602W        W78515   5.519  24.356   4.386 -0.1898 -0.1400 -0.5543
35603W        W78516  22.035  18.215   7.114  0.0126 -0.0345  0.1169
35604W        W78517  28.779  25.240   3.918  0.2313  0.3694  0.0392
35605W        W78518  23.079  26.710   6.017  0.3892 -0.2729  0.2187
35606W        W78519  30.683  13.807   3.084 -0.1191  0.0241 -0.1553
35607W        W78520  25.548  26.595   2.262 -0.2374  0.0982 -0.2474
35608W        W78521  30.118  21.899   0.591 -0.0247  0.0792 -0.0195
35609W        W78522  27.753  13.349  26.981  0.0374  0.0677  0.3286
35610W        W78523  23.495  17.560  18.225  0.1747  0.2712 -0.1551
35611W        W78524   1.592  20.778  25.057  0.3830 -0.0001 -0.0983
35612W        W78525  19.521  11.869   7.292  0.0170 -0.0464  0.4174
35613W        W78526  29.672  20.096   0.086 -0.1701 -0.2140  0.5246
35614W        W78527  17.462  22.072  22.786  0.2652  0.1811 -0.0790
35615W        W78528  20.091  18.112  21.903  0.0772  0.0431 -0.0651
35616W        W78529  16.759  18.478  24.079 -0.1815 -0.3390 -0.1541
35617W        W78530  17.998  16.034  25.542  0.1030  0.0620 -0.1116
35618W        W78531  21.543   9.497   9.091  0.0599 -0.1155 -0.3300
35619W        W78532  24.313  19.914   2.809 -0.0122 -0.0213  0.1314
35620W        W78533  28.088  17.966  29.568 -0.2629  0.1871 -0.0725
35621W        W78534  26.975  19.542   3.537  0.1021  0.0138  0.3450
35622W        W78535  17.309  25.912   2.577  0.0039 -0.0403  0.2245
35623W        W78536  31.674  12.574   4.324  0.1384 -0.2488 -0.3444
35624W        W78537  25.339  18.830   5.906  0.3240  0.2288  0.1563
35625W        W78538   2.169  31.678   6.928 -0.0632 -0.0939 -0.1918
35626W        W78539  31.386  21.980   1.253 -0.2719  0.4015  0.1407
35627W        W78540  30.004   4.255  29.514 -0.1375  0.1593  0.0626
35628W        W78541  22.862  19.874  20.741  0.0300 -0.1329  0.0197
35629W        W78542  15.805  14.364   8.119 -0.1381 -0.0225  0.0183
35630W        W78543  31.993  20.632   4.083  0.2403 -0.3318  0.0183
35631W        W78544  13.124  14.636   0.987  0.0011  0.1472  0.0259
35632W        W78545  31.276  17.826   2.788  0.0091 -0.1167  0.0094
35633W        W78546  26.475   4.763  26.055  0.2398  0.0115 -0.3407
35634W        W78547  17.823  14.890   6.582  0.2555 -0.1634  0.0377
35635W        W78548  33.246  13.760   5.164 -0.1962 -0.0119 -0.1714
35636W        W78549  24.572  21.173   6.342 -0.4248  0.4924 -0.0562
35637W        W78550  24.254  20.346   6.266 -0.2657  0.2824 -0.0016
35638W        W78551  26.420   2.237   8.247 -0.0002 -0.3242 -0.1736
35639W        W78552  21.937  19.034  21.733 -0.3712  0.1437 -0.3089
35640W        W78553  19.138  16.245   0.480  0.2643  0.2589 -0.0193
35641W        W78554  30.356  24.102   9.099 -0.1228 -0.0543 -0.0608
35642W        W78555  25.900  26.861  25.680 -0.0697 -0.1401 -0.0759
35643W        W78556  27.861  12.665  23.992  0.2367  0.0417  0.0596
35644W        W78557  14.966  14.766  21.535 -0.0343 -0.2170 -0.0264
35645W        W78558  21.176  15.305  26.130  0.3250  0.1947 -0.2725
35646W        W78559  31.244  20.276   3.006 -0.0983  0.2780 -0.0869
35647W        W78560  25.068  22.710  23.926  0.1953  0.0824 -0.1952
35648W        W78561  23.763  21.119   1.415 -0.1679  0.2587 -0.0034
35649W        W78562  29.787  19.744  29.046  0.1579 -0.0885 -0.1220
35650W        W78563  22.071  33.843  28.365  0.0791  0.0557 -0.2092
35651W        W78564  20.146  19.025  24.282  0.1444  0.1584  0.0922
35652W        W78565  32.763  21.069   0.091  0.1118 -0.0872 -0.3135
35653W        W78566  30.461  20.050   7.656 -0.3129 -0.1865  0.1093
35654W        W78567  28.925  19.528   4.780  0.1268  0.4632  0.0781
35655W        W78568  21.622  24.462  25.876  0.1454 -0.3348 -0.2117
35656W        W78569  28.618  23.999  25.080  0.0549  0.3685  0.2634
35657W        W78570  18.136  18.294  24.070  0.2829  0.1240 -0.1333
35658W        W78571  18.972  21.996   3.507  0.0122 -0.0314  0.2913
35659W        W78572  29.820  13.407   3.102  0.4617 -0.1156 -0.0274
35660W        W78573  30.626  25.755   6.369 -0.0730 -0.2120 -0.3557
35661W        W78574  22.857  21.899  26.264  0.1113 -0.1582 -0.1170
35662W        W78575  24.306  14.530   8.301 -0.3225 -0.1519  0.3420
35663W        W78576  29.511  16.854   6.571  0.1155 -0.0420 -0.0038
35664W        W78577  17.741  18.199   6.460  0.0596  0.0344  0.1913
35665W        W78578  26.925  22.650  26.458 -0.1605  0.0545 -0.2372
35666W        W78579  15.030  25.079  29.081  0.0083 -0.0542 -0.2465
35667W        W78580  14.223  18.883  28.810  0.2230  0.0827  0.1224
35668W        W78581  26.239  18.556   6.513 -0.1276  0.0633  0.1637
35669W        W78582  18.655   8.902   7.116  0.0688 -0.2674  0.1854
35670W        W78583  32.792  25.753  28.840 -0.0204 -0.5693  0.0417
35671W        W78584  29.739  26.168  27.596 -0.1274 -0.1382  0.2995
35672W        W78585  28.187  22.424   0.242  0.0236 -0.4787  0.1092
35673W        W78586  29.500  23.967   6.836 -0.0218 -0.0068 -0.0642
35674W        W78587  29.539  11.683   0.728  0.2458 -0.2237  0.0945
35675W        W78588  16.656  21.113   5.186  0.2624 -0.2890 -0.0227
35676W        W78589  27.989  25.980   6.210 -0.0278 -0.1197 -0.0567
35677W        W78590  32.287  22.828   7.721 -0.1070  0.4391 -0.2265
35678W        W78591  17.804  31.211   3.175  0.2822 -0.3448  0.1038
35679W        W78592  29.829  12.580   8.202 -0.1666 -0.1907  0.2313
35680W        W78593  18.440  17.387   7.242  0.2059 -0.1896 -0.2213
35681W        W78594  23.663  21.924   7.015 -0.0719 -0.0527 -0.2679
35682W        W78595  23.495  20.356   6.791 -0.1674  0.2480  0.0339
35683W        W78596  30.453  22.268   9.595  0.3080 -0.1236  0.0079
35684W        W78597  16.511  15.432   7.736 -0.3038  0.3137 -0.0406
35685W        W78598  29.896  22.089   4.484 -0.1249  0.1908 -0.2054
35686W        W78599  27.776  17.427   9.532  0.0848 -0.0332 -0.0145
35687W        W78600  24.078  14.185   4.012 -0.0613 -0.1870  0.0584
35688W        W78601  20.793   6.095   8.784  0.1561 -0.1402  0.3114
35689W        W78602  28.447  22.315  26.062 -0.2306 -0.0776 -0.3793
35690W        W78603  26.784  20.700   8.023  0.1225 -0.1215  0.0802
35691W        W78604  33.478  21.920   4.410  0.1597  0.0310  0.2567
35692W        W78605  13.652  18.779  23.318 -0.0456 -0.2015 -0.2548
35693W        W78606  25.103  21.736   6.121  0.2230  0.0880 -0.1963
35694W        W78607  16.469  21.614   5.115  0.1974  0.1631 -0.0338
35695W        W78608  14.369  27.764  29.140 -0.1299  0.1562  0.3514
35696W        W78609  26.907  15.451   9.028  0.1691  0.1701  0.1171
35697W        W78610  25.171  11.201   3.054 -0.0435  0.2327 -0.0032
35698W        W78611  20.035  15.543   4.609 -0.0100  0.2023 -0.0341
35699W        W78612  32.163  20.091   3.006 -0.1150  0.0118 -0.1089
35700W        W78613  25.479  16.913   5.280 -0.2284  0.1754  0.1705
35701W        W78614  26.770  14.645   3.953 -0.0239 -0.1493  0.1440
35702W        W78615  16.715  13.607  26.015 -0.3652  0.0489 -0.1273
35703W        W78616  21.374  12.423  27.312 -0.1079  0.3082 -0.1403
35704W        W78617  27.255  18.444  24.872  0.1492 -0.2845  0.0500
35705W        W78618  28.889  13.913   6.340  0.1028  0.0567 -0.1509
35706W        W78619  18.030  17.918   3.398 -0.2814 -0.0221 -0.1260
35707W        W78620  27.580  12.070   9.008 -0.2220  0.1546  0.4950
35708W        W78621  28.794  31.599  27.827  0.0700  0.3612  0.1606
35709W        W78622  23.328  21.349  26.726  0.0822  0.1201 -0.0897
35710W        W78623  29.615  27.273   6.004  0.1370 -0.0319  0.2333
35711W        W78624  21.711  19.263   7.666  0.0591  0.1023 -0.3360
35712W        W78625  26.793  28.315   4.768 -0.3644 -0.1765  0.2643
35713W        W78626  23.753  17.985   1.430  0.0543 -0.3197 -0.1268
35714W        W78627  15.936  18.927   7.915 -0.2357  0.1245  0.0691
35715W        W78628  22.913  17.942   1.113 -0.0782 -0.0275 -0.0992
35716W        W78629  25.439  24.187   7.891 -0.1144 -0.0395 -0.2121
35717W        W78630  25.093  22.975   4.225 -0.0904  0.1421  0.0101
35718W        W78631  32.571  10.293  25.258  0.1809 -0.0963  0.1376
35719W        W78632  29.986  21.859   8.108 -0.0714 -0.1134  0.0598
35720W        W78633  24.542  13.211  28.566 -0.0179 -0.1042 -0.1178
35721W        W78634   4.243  29.507   5.072 -0.0184  0.3086 -0.0857
35722W        W78635  20.108  21.430   0.146 -0.0752  0.1771  0.0349
35723W        W78636  31.663  24.973   1.051  0.1036 -0.0349 -0.2216
35724W        W78637   3.785  14.108   4.378 -0.1356 -0.1201  0.0462
35725W        W78638  25.041  13.803   6.377 -0.0703 -0.0777 -0.2979
35726W        W78639  10.774  21.610   3.206 -0.1936  0.0741 -0.1378
35727W        W78640  18.689  26.824  28.003  0.3284 -0.1815 -0.0529
35728W        W78641  24.419  21.618   7.942 -0.2715  0.0531 -0.1007
35729W        W78642  23.267  19.795   5.879 -0.3255 -0.3983 -0.1667
35730W        W78643  21.308  15.303  25.601 -0.1869  0.0595 -0.0382
35731W        W78644  27.096  20.992  29.113 -0.1484  0.2138  0.0111
35732W        W78645  21.511  15.399   3.886  0.4098 -0.1568 -0.0438
35733W        W78646  26.182  22.007  25.585  0.2863 -0.1848  0.0163
35734W        W78647  30.772  17.171   9.143 -0.0646  0.1454 -0.1448
35735W        W78648  24.912  13.491  29.325 -0.0141  0.0506 -0.2128
35736W        W78649  27.108  14.351   8.942  0.2171  0.2937 -0.2532
35737W        W78650  15.544  16.699  27.374 -0.1409 -0.0922 -0.2436
35738W        W78651  28.699  22.879   4.452 -0.0756  0.0002 -0.0673
35739W        W78652  19.246  15.962   1.035 -0.1489  0.0625 -0.0548
35740W        W78653  29.454  19.311   4.869  0.3058 -0.2345 -0.4105
35741W        W78654  18.372  21.123  28.010 -0.3295  0.0960  0.0841
35742W        W78655   1.357  19.271   2.453 -0.0364 -0.0290  0.1941
35743W        W78656  27.649  24.218   5.215 -0.1390 -0.1138  0.1839
35744W        W78657  25.214  14.468   0.369  0.0296 -0.0940  0.0732
35745W        W78658  26.661  33.485  28.147  0.0426  0.0551  0.1795
35746W        W78659   4.336  26.620   5.872 -0.0929 -0.2685 -0.2584
35747W        W78660  25.042  24.842   5.151  0.0404  0.0099  0.0946
35748W        W78661  10.712  22.117   9.005 -0.0509  0.3204 -0.1636
35749W        W78662  32.491  23.826   4.883  0.2402  0.2234 -0.0706
35750W        W78663  33.694   9.738  21.022 -0.2081  0.2112  0.4204
35751W        W78664  22.555  21.928   3.838 -0.0902  0.0979 -0.0994
35752W        W78665  13.698  25.288  29.041  0.2266  0.5614  0.1882
35753W        W78666   2.731  22.100   5.887  0.0487 -0.1552 -0.4634
35754W        W78667  18.515  21.332  28.788  0.2237 -0.0298  0.0101
35755W        W78668  27.874  21.226  22.499  0.0646  0.0099 -0.0995
35756W        W78669  25.436  22.808   5.616  0.1751 -0.0622  0.1936
35757W        W78670  29.166  23.299   3.856  0.3512  0.0443  0.2601
35758W        W78671  20.380  26.468  27.976  0.1629  0.2711 -0.2206
35759W        W78672  17.422   7.538  28.863 -0.0584 -0.2480  0.0462
35760W        W78673  34.083  28.365   6.818  0.0807  0.1921  0.2804
35761W        W78674  22.397  17.906   2.550 -0.0326  0.2863 -0.3277
35762W        W78675  20.530   7.400   9.203  0.1971  0.0841 -0.0925
35763W        W78676  32.500  26.672   5.012 -0.2292  0.0497  0.1471
35764W        W78677   1.241  25.564   7.966  0.3065  0.3805  0.0712
35765W        W78678  33.869  17.241   7.269  0.1200 -0.0640 -0.2355
35766W        W78679  20.828  17.804   7.974  0.2229  0.4753  0.0611
35767W        W78680   0.093   8.677   1.861  0.1309 -0.0674  0.0629
35768W        W78681  25.717  23.681   4.851 -0.0838  0.1890 -0.4078
35769W        W78682  27.765  25.160   0.542 -0.2525 -0.1309 -0.1477
35770W        W78683  28.540  14.151   8.621  0.0147 -0.2437 -0.2163
35771W        W78684  20.746  30.198   4.698 -0.0032  0.3756 -0.4640
35772W        W78685   0.271  23.362   8.289 -0.1370 -0.0412  0.1897
35773W        W78686   2.648  26.667   3.096  0.5139 -0.0499 -0.2510
35774W        W78687  15.263  18.753   1.994  0.1209  0.0259 -0.2614
35775W        W78688  20.393  15.589   3.576  0.1865 -0.1012 -0.2947
35776W        W78689  28.524  17.839   7.218 -0.0781 -0.1183  0.0949
35777W        W78690   2.700  18.009   1.727 -0.0527  0.2938  0.1447
35778W        W78691  30.389  15.571   3.758 -0.2140  0.1204 -0.1212
35779W        W78692  34.076  14.502   7.217 -0.2017  0.1732  0.0833
35780W        W78693  33.562  28.415   8.958  0.0142 -0.1027 -0.0241
35781W        W78694  30.862  25.743  29.171 -0.0687  0.1952  0.1658
35782W        W78695  24.419  17.409  27.750  0.3411 -0.2785 -0.1526
35783W        W78696  26.481  16.735   2.423 -0.0538  0.3559 -0.1318
35784W        W78697  30.160  20.157   4.596  0.0782 -0.0441 -0.2717
35785W        W78698  23.605  18.032  25.778 -0.0490 -0.0340  0.2626
35786W        W78699  30.362   4.491   8.971  0.0435 -0.0442  0.0218
35787W        W78700   8.875  33.569   2.586  0.2231  0.0214  0.1592
35788W        W78701  32.438  14.710   5.317  0.0790  0.2540 -0.0912
35789W        W78702  20.873  29.211   8.075 -0.0822  0.2002 -0.1905
35790W        W78703  34.302  30.468   7.893 -0.0581 -0.0854 -0.0461
35791W        W78704  28.886  21.636   3.777  0.3576  0.0537  0.0857
35792W        W78705  23.327  20.486   1.774 -0.1947 -0.1558 -0.0737
35793W        W78706  24.218  19.101   8.124 -0.1779 -0.0318 -0.0560
35794W        W78707  32.486  23.294   8.502 -0.1029 -0.2365  0.0327
35795W        W78708  18.374  18.250   4.411  0.1219 -0.1259  0.0765
35796W        W78709  29.968  18.758   6.255  0.1999  0.1308 -0.1113
35797W        W78710  20.701  18.638   5.081  0.2201  0.0970 -0.0341
35798W        W78711  32.628  19.419   4.293  0.0315 -0.2466 -0.0320
35799W        W78712  34.023  12.589   4.913 -0.1100  0.1245 -0.3368
35800W        W78713  24.080  22.073   5.029  0.2258  0.1199  0.3957
35801W        W78714  21.859  15.397  19.990 -0.0132 -0.1487 -0.0292
35802W        W78715  27.273  32.616   4.211 -0.0662  0.2230 -0.0027
35803W        W78716  28.829  32.082   8.397  0.2994 -0.1684 -0.0995
35804W        W78717  33.005  16.163   7.368  0.1848 -0.0943 -0.0152
35805W        W78718  23.843  20.689   4.810 -0.0346 -0.2936 -0.1435
35806W        W78719   7.242  20.846   1.151 -0.1213 -0.0901 -0.1758
35807W        W78720  30.103  33.513  28.891 -0.0793  0.3283 -0.1201
35808W        W78721   0.216  32.141   2.116 -0.0169 -0.0770 -0.2247
35809W        W78722  17.060  14.169   7.087 -0.1203 -0.1287 -0.1239
35810W        W78723  33.055   0.862   6.136 -0.1060 -0.0214 -0.0017
35811W        W78724  20.838  11.988   2.723  0.2694  0.1571  0.4079
35812W        W78725  26.729  26.665  21.666  0.1127 -0.1066 -0.0090
35813W        W78726  19.953  13.310  28.594  0.2579 -0.2765  0.2791
35814W        W78727   0.613  11.981   2.760 -0.1387 -0.0764  0.1330
35815W        W78728  27.624  23.758   3.957  0.2117 -0.1324  0.2073
35816W        W78729  28.276  23.173   1.019 -0.2280  0.5749  0.2838
35817W        W78730  27.650   7.728  26.868 -0.2909  0.1460  0.1313
35818W        W78731  20.947  12.062   5.357 -0.0387  0.0255  0.0765
35819W        W78732  28.846  21.077   9.824  0.0156  0.1009  0.1229
35820W        W78733  24.561  20.462  26.170  0.5107  0.3993  0.0428
35821W        W78734  27.066  21.230   3.004 -0.0698  0.1795 -0.0226
35822W        W78735  19.341  12.905  29.728 -0.0665 -0.1588 -0.0554
35823W        W78736  23.058  20.448   8.293  0.1694 -0.3861 -0.1765
35824W        W78737  26.615  15.279   1.765 -0.2215  0.0540  0.0524
35825W        W78738  14.232  17.705   4.616  0.3464 -0.0645  0.0322
35826W        W78739  30.326   6.807   7.063 -0.4039 -0.2233 -0.0955
35827W        W78740  17.886  32.145   9.698  0.0005 -0.1043  0.0003
35828W        W78741  29.206  19.740   4.177 -0.0638  0.1549  0.1291
35829W        W78742  27.484  11.129   1.859  0.0066 -0.2381  0.0032
35830W        W78743  26.813  16.044   6.216  0.0881 -0.2366 -0.1000
35831W        W78744  16.875  14.487   0.135 -0.4471  0.4235  0.3227
35832W        W78745   3.094  19.673   2.759 -0.0974 -0.0236 -0.1572
35833W        W78746  34.337  25.497   3.618  0.1541 -0.1820  0.0661
35834W        W78747  29.759  20.231   4.861  0.0706  0.3148 -0.0359
35835W        W78748  25.438  23.250   3.151  0.1800 -0.1598 -0.0413
35836W        W78749  22.793  14.450   7.394 -0.0652 -0.0195  0.3693
35837W        W78750  30.290  10.455   9.584 -0.1626  0.3153  0.1491
35838W        W78751  13.139  22.983   4.949 -0.1541 -0.0334 -0.0025
35839W        W78752   4.852  12.868   7.478 -0.4467 -0.0350  0.2500
35840W        W78753  31.122  22.643   5.766 -0.2241 -0.4235 -0.0316
35841W        W78754   3.641  18.000   5.308 -0.0671 -0.0802  0.0415
35842W        W78755  17.395  22.773   2.687 -0.3659 -0.2751 -0.0029
35843W        W78756  31.567   5.204   5.470 -0.0466  0.0075  0.2389
35844W        W78757   0.516  19.054   7.539  0.0477 -0.1282 -0.2554
35845W        W78758  18.214  19.811   3.483 -0.0443  0.0811  0.1158
35846W        W78759  30.057  26.469   1.960  0.0359  0.0550  0.1620
35847W        W78760  25.213  19.373  25.282  0.1113 -0.1172 -0.1453
35848W        W78761   3.044  17.264   7.087 -0.0849  0.1722  0.1483
35849W        W78762  22.725  27.361   0.033 -0.0200 -0.0092  0.1907
35850W        W78763  29.845  29.170  28.322 -0.3843  0.2244  0.0332
35851W        W78764   6.817  29.247  28.330  0.0549 -0.0581 -0.1421
35852W        W78765  25.153  30.583   4.367 -0.2332 -0.0972  0.0014
35853W        W78766  14.788  18.801  22.329  0.0232  0.0417  0.0622
35854W        W78767  25.167  24.850   8.546  0.1283 -0.2349 -0.1403
35855W        W78768   3.878  27.142   5.644 -0.4596  0.0525  0.0344
35856W        W78769  16.887   2.142   6.792 -0.0583  0.1874 -0.1936
35857W        W78770  19.030  27.316   8.002 -0.1790 -0.1126 -0.0426
35858W        W78771  27.508  22.930   2.065 -0.3607 -0.2311 -0.2071
35859W        W78772  17.661  18.668   1.918 -0.3718 -0.0562  0.1647
35860W        W78773  25.464  24.227  29.142 -0.4861  0.3540 -0.3523
35861W        W78774  34.303  25.632   7.929 -0.2002  0.0482  0.1708
35862W        W78775  30.910  20.286   7.665  0.0735  0.1259 -0.0652
35863W        W78776  20.322  25.857   4.459  0.2712  0.0284 -0.2533
35864W        W78777  22.966  19.392   6.152 -0.1011  0.0149 -0.0647
35865W        W78778  19.796  27.583   8.052 -0.0807  0.1169 -0.1482
35866W        W78779  19.434  21.007   2.316 -0.0038 -0.2890  0.0249
35867W        W78780  26.911   7.396   6.724 -0.2014  0.1941 -0.1262
35868W        W78781  30.079  16.408   3.879 -0.1814  0.0098 -0.0873
35869W        W78782  19.312  22.107   6.504  0.0355 -0.3578  0.4122
35870W        W78783  21.775  22.677   6.368 -0.1873  0.1112  0.0922
35871W        W78784  27.700  27.807   2.135  0.1364  0.3158 -0.1491
35872W        W78785  25.314  13.213   0.887 -0.0395  0.3856 -0.2168
35873W        W78786  27.465  20.083   3.942  0.0542  0.2068 -0.1432
35874W        W78787  26.131  19.020   4.814  0.2174  0.3463  0.1729
35875W        W78788  26.181  25.051   2.799  0.0091 -0.1866 -0.1589
35876W        W78789  31.217   9.926  28.541 -0.0121  0.2285  0.1112
35877W        W78790   8.639  11.397   5.969  0.0239  0.2086  0.1892
35878W        W78791  17.547  11.065   2.013 -0.0937 -0.2002 -0.1828
35879W        W78792   1.653  21.806  19.185  0.2210  0.3742 -0.0334
35880W        W78793  21.340  26.167   8.865  0.2665  0.2030  0.2207
35881W        W78794  32.691  16.759   7.805 -0.0702 -0.0543 -0.0137
35882W        W78795  22.132  19.826   5.210 -0.2792 -0.0544  0.2073
35883W        W78796   5.321  16.799   5.666  0.0999 -0.2311 -0.1724
35884W        W78797  26.064   9.746   1.507 -0.1383 -0.5174  0.3156
35885W        W78798  31.528  16.920  23.901 -0.1206  0.0156  0.1327
35886W        W78799  24.993  17.241   4.592  0.2318 -0.2776  0.0099
35887W        W78800   8.375  15.961   3.437  0.2729 -0.0064 -0.2133
35888W        W78801   0.577   7.316  28.936 -0.0076 -0.0637 -0.0857
35889W        W78802   4.517  24.587   3.835  0.0034 -0.0522  0.1793
35890W        W78803  21.458  25.382   0.749  0.1236  0.2351  0.2359
35891W        W78804   3.423  25.778   2.062  0.0413  0.1208  0.2031
35892W        W78805  24.170  17.529   3.155 -0.0840  0.5824 -0.1595
35893W        W78806  19.494  17.541   1.532 -0.0960 -0.0405 -0.2790
35894W        W78807  30.829  19.768   2.336 -0.1277 -0.0634 -0.1003
35895W        W78808  26.059  13.137   1.751 -0.3575 -0.0848 -0.3143
35896W        W78809  29.487  22.347   9.858 -0.0224 -0.0143 -0.2356
35897W        W78810  34.270  22.144  26.587 -0.1221 -0.0931  0.0119
35898W        W78811  16.848  18.246  23.673 -0.3414 -0.2303 -0.0060
35899W        W78812  24.848  24.600   3.789 -0.0047  0.1372  0.1166
35900W        W78813  13.765  26.439   9.781  0.1967  0.3590  0.1996
35901W        W78814  31.198   8.140  19.743  0.2178  0.0466  0.1793
35902W        W78815  28.812  13.301   1.597 -0.1027  0.2875  0.0863
35903W        W78816  24.115  14.046   5.312 -0.0278 -0.0569 -0.0962
35904W        W78817  26.146  22.680   5.771  0.1080  0.2229  0.0612
35905W        W78818  17.326  15.875   3.055  0.0341 -0.1164  0.3189
35906W        W78819  33.304  29.808   4.507  0.0218 -0.1367  0.3714
35907W        W78820  22.137   3.532  24.781  0.0266  0.1389  0.1038
35908W        W78821  18.853  16.773   6.901 -0.0557 -0.2710  0.1046
35909W        W78822  21.307  17.106  26.382  0.0882  0.0968  0.0125
35910W        W78823  23.180  10.961   2.352 -0.2332 -0.0979 -0.2206
35911W        W78824  18.153  19.294  29.062  0.1936 -0.1282  0.1625
35912W        W78825  24.598  27.843   7.230  0.0620 -0.0945  0.0723
35913W        W78826  24.105  21.273   7.953 -0.0700  0.2352  0.0646
35914W        W78827  17.694  15.875  28.537  0.0320  0.1588 -0.2748
35915W        W78828  27.321  31.540   0.117  0.0805 -0.0136 -0.0335
35916W        W78829  25.356  18.938   4.043  0.0604  0.1258 -0.0560
35917W        W78830  24.391  23.689   5.436  0.0352 -0.0057 -0.0689
35918W        W78831  25.436   6.495   1.710  0.0925 -0.1862 -0.1409
35919W        W78832  29.189  22.498   9.441  0.2449  0.2853 -0.2293
35920W        W78833  25.455  20.309  27.824 -0.1113 -0.2020 -0.1072
35921W        W78834  25.210  20.747  29.671  0.0497 -0.2263  0.4737
35922W        W78835  32.815  24.319   4.844  0.0053 -0.1279  0.1771
35923W        W78836  14.631  26.910   9.385 -0.2419 -0.0815 -0.0062
35924W        W78837  18.795  19.646   6.318  0.1537 -0.0071  0.0244
35925W        W78838  34.234  22.776   3.934  0.3917 -0.1485 -0.0132
35926W        W78839   2.187  23.150   4.831  0.1094  0.0048  0.1112
35927W        W78840  25.313  16.236   3.105  0.2380  0.4210 -0.0622
35928W        W78841  21.481  26.148   3.679  0.3940 -0.0666  0.1154
35929W        W78842   4.680  23.843   5.876 -0.3897  0.1184  0.2847
35930W        W78843  21.889  14.044   0.343 -0.0684 -0.1812 -0.0788
35931W        W78844  22.507  19.549   5.394  0.3484  0.1957 -0.0482
35932W        W78845  22.549  13.637   4.941  0.2505  0.0616 -0.0015
35933W        W78846  25.843  24.788   7.308  0.4137 -0.2433 -0.0145
35934W        W78847  23.151  15.555   1.012  0.0639  0.1784 -0.0149
35935W        W78848   0.196  16.782   3.560  0.3568  0.1145 -0.0908
35936W        W78849  32.720  21.310   4.009  0.0327 -0.0012  0.0861
35937W        W78850   0.510  16.432   5.136  0.2988 -0.2256 -0.3174
35938W        W78851  31.834  23.750   7.702  0.2368 -0.0688 -0.1187
35939W        W78852  28.747  12.908   4.467 -0.1939  0.0244  0.1729
35940W        W78853   0.221  19.942   7.628  0.2974  0.0702 -0.1949
35941W        W78854  19.450  16.656  24.551  0.0009  0.3221  0.2647
35942W        W78855  25.631  15.341   6.332 -0.1104 -0.3083  0.2857
35943W        W78856   1.150   4.774   2.718  0.0202  0.2841 -0.3253
35944W        W78857  25.081  18.342   2.858 -0.1864  0.1103 -0.3899
35945W        W78858  32.083  25.861   3.327  0.3370 -0.0105 -0.0946
35946W        W78859  30.798  21.533   3.437 -0.0200  0.1326 -0.0039
35947W        W78860   1.829  23.619   0.055  0.0810  0.0682 -0.1134
35948W        W78861  12.603  18.797   4.793  0.1271  0.0767  0.5418
35949W        W78862  29.035  16.282   0.655 -0.0383 -0.2024 -0.0561
35950W        W78863   3.644  28.526   8.049  0.1491 -0.1939  0.0929
35951W        W78864  19.940  27.956   4.815  0.1916  0.0065  0.1052
35952W        W78865  21.675  23.919   4.496 -0.2123 -0.2937  0.3376
35953W        W78866  23.566  17.105  26.220  0.3529  0.0597  0.2215
35954W        W78867  22.094  24.428   2.451  0.0393 -0.2869  0.1326
35955W        W78868  24.507  23.803  29.653 -0.2663 -0.0994  0.0930
35956W        W78869  26.675  15.763   9.425  0.0077  0.2138  0.0351
35957W        W78870  31.512  24.131   3.851  0.1152  0.1016  0.1370
35958W        W78871  23.188  30.911   5.479  0.0349  0.2676 -0.1484
35959W        W78872  19.553  23.163   3.505  0.0306  0.0907  0.0672
35960W        W78873  22.923  12.542   9.308 -0.0257  0.0535  0.1037
35961W        W78874  27.847  25.606   2.315 -0.1221  0.1282  0.1131
35962W        W78875  28.058  16.995   4.343  0.0370  0.0634 -0.0282
35963W        W78876  20.924  22.390   7.294 -0.0461  0.2978 -0.1922
35964W        W78877  20.022  19.386   7.262 -0.0572  0.0682 -0.1348
35965W        W78878   4.776  29.017   2.988  0.1956 -0.1496 -0.0745
35966W        W78879  15.606  31.997  11.232 -0.1478  0.1572 -0.0860
35967W        W78880  29.171  26.185   2.563  0.1486  0.0369  0.5922
35968W        W78881  26.723  32.716   4.816 -0.3661 -0.0650  0.2615
35969W        W78882  16.053  11.622   1.950  0.2222 -0.2000 -0.1257
35970W        W78883  33.576  16.237   6.385 -0.0519 -0.2336 -0.1349
35971W        W78884   0.075  16.220  10.205  0.2398 -0.3240  0.1477
35972W        W78885  26.150   9.386   9.525  0.4696  0.0185  0.0293
35973W        W78886  22.544  20.911   4.953 -0.1465  0.1555  0.0019
35974W        W78887  26.125  25.723  28.997  0.4657 -0.0231  0.2237
35975W        W78888  24.801  33.398   4.769 -0.1821  0.1271  0.2177
35976W        W78889  22.049  24.388   8.505 -0.0253 -0.1589 -0.1397
35977W        W78890  28.265  17.714   3.691  0.0986 -0.1278 -0.0611
35978W        W78891  28.236  12.423   9.688  0.0844 -0.1241 -0.0518
35979W        W78892  24.829  27.904   0.876  0.0116 -0.0948 -0.0840
35980W        W78893  22.585  20.763  29.624  0.1502  0.2358 -0.0084
35981W        W78894  27.925  13.544   0.223  0.1128  0.1064 -0.0429
35982W        W78895   5.182  27.863   5.532 -0.1268 -0.4920  0.0283
35983W        W78896  29.774  18.960   8.574 -0.2733  0.0152  0.0040
35984W        W78897  30.145  23.186   4.883  0.1591  0.0339  0.1384
35985W        W78898  27.875  24.846   4.529 -0.1482 -0.0568  0.1429
35986W        W78899  29.665  20.237   8.262  0.0987  0.1337  0.0512
35987W        W78900   4.121  32.682   7.896 -0.1379  0.0666  0.1383
35988W        W78901  25.438  21.406   5.047  0.2486  0.4469 -0.1363
35989W        W78902  32.788  21.394   2.896 -0.0045 -0.1578 -0.3389
35990W        W78903  29.910  19.220   6.414 -0.1121 -0.0437  0.0319
35991W        W78904  25.465  30.922   7.983 -0.2553  0.2375 -0.3809
35992W        W78905  17.328  23.415   6.582  0.0598 -0.1846 -0.0702
35993W        W78906  25.812  21.186   8.400  0.0160  0.3206 -0.1458
35994W        W78907  33.006  24.538   8.280 -0.1056 -0.1272  0.0544
35995W        W78908  25.219  30.045   9.668  0.2039 -0.0180  0.1269
35996W        W78909  28.095  12.583   7.228 -0.1368 -0.1459  0.2040
35997W        W78910  33.432  31.791  25.768 -0.0171 -0.0075  0.0007
35998W        W78911  24.160  31.279   2.991  0.2346  0.2832 -0.0056
35999W        W78912  28.160  18.468   2.685 -0.1533  0.5334 -0.2053
36000W        W78913  30.902  23.861   4.327  0.1751 -0.1107  0.4693
36001W        W78914  20.803  15.134   1.582  0.1239 -0.1103  0.1085
36002W        W78915  28.210  33.332   5.615  0.1223 -0.1338 -0.1237
36003W        W78916   2.990  21.227   7.034  0.0361  0.0211  0.0326
36004W        W78917  33.711  16.923   9.186  0.1708 -0.0877 -0.0113
36005W        W78918  24.508  15.586   5.541 -0.3144 -0.0784  0.0825
36006W        W78919  33.479  25.765   0.275  0.0499 -0.0818  0.0073
36007W        W78920  19.811  20.588   6.311 -0.5120 -0.2031 -0.1132
36008W        W78921  33.346  18.431   8.635 -0.1152 -0.2059 -0.0526
36009W        W78922  32.174  21.211   4.083 -0.0225 -0.0348 -0.2297
36010W        W78923  31.925  26.611  10.213  0.0452  0.1803  0.0231
36011W        W78924  22.912  11.510   4.904  0.1639  0.1717  0.2196
36012W        W78925  31.779  13.687   2.803  0.1815  0.0812 -0.2228
36013W        W78926   3.109  24.760   5.286  0.0315 -0.1083 -0.0656
36014W        W78927  22.942  26.015   1.793 -0.0075 -0.2038 -0.2897
36015W        W78928  17.693  22.933  28.829 -0.0929 -0.2679  0.4665
36016W        W78929  26.226  26.548  29.098  0.0579 -0.0080  0.0358
36017W        W78930  29.105  22.568  27.894 -0.1673 -0.3354 -0.1763
36018W        W78931  29.180  22.539   2.059  0.0159  0.0298 -0.2485
36019W        W78932  26.102   7.484  29.767 -0.1399 -0.1582  0.1258
36020W        W78933   1.751   9.525   6.261 -0.2464  0.0327  0.1230
36021W        W78934  19.935  26.402   7.426  0.0343  0.3892  0.1428
36022W        W78935  33.822  27.728   5.574 -0.1104 -0.1732 -0.0401
36023W        W78936  29.353  19.737   4.643  0.2498  0.2466  0.2159
36024W        W78937  25.878  17.898  18.682  0.0214  0.1559 -0.1378
36025W        W78938  25.513  20.350  29.774 -0.0548 -0.0807  0.2253
36026W        W78939  30.749   7.978  27.256 -0.2593 -0.1378 -0.0292
36027W        W78940  10.949  25.083   5.204 -0.1858  0.2196  0.0262
36028W        W78941   7.755  25.182   1.942 -0.1828 -0.1612  0.1148
36029W        W78942  19.513  15.488  27.555 -0.1105 -0.0169 -0.2468
36030W        W78943  27.713  22.044   7.405 -0.1481  0.0650  0.1194
36031W        W78944  30.146  23.123   4.362  0.1047 -0.0049  0.1779
36032W        W78945  25.136  18.053  24.696  0.0613 -0.2265 -0.0085
36033W        W78946  20.116  12.700  26.403 -0.1395 -0.1010  0.1731
36034W        W78947  29.031  24.137   9.195  0.1400 -0.2397  0.1409
36035W        W78948   6.012  32.882   2.946  0.2478 -0.0138 -0.0561
36036W        W78949  32.379  15.857   8.426  0.1442 -0.0480  0.2012
36037W        W78950  28.164  27.062   6.829 -0.0785 -0.4287 -0.1327
36038W        W78951  23.558  27.954  25.586 -0.0964  0.1733  0.1365
36039W        W78952  24.606  19.424   5.815 -0.0189  0.3160  0.1400
36040W        W78953  34.268  11.891   6.931 -0.2289 -0.1673  0.0485
36041W        W78954  26.808  19.466   0.974 -0.0893  0.0291 -0.3208
36042W        W78955  21.375  16.669   3.242  0.0343 -0.0698  0.3153
36043W        W78956   2.327  19.229   2.004 -0.2489 -0.0441 -0.1875
36044W        W78957  33.518  14.377   6.549  0.1572  0.0324 -0.3207
36045W        W78958  25.732  17.177   9.416  0.0923  0.0512 -0.3173
36046W        W78959  29.525  22.927   6.421 -0.2050  0.2680 -0.2113
36047W        W78960  24.248  27.007   3.658 -0.1023 -0.1784  0.0598
36048W        W78961  34.065  25.901   7.454 -0.2018  0.0505  0.1315
36049W        W78962   6.710  21.156   8.311 -0.2536 -0.0902  0.3739
36050W        W78963   0.194  23.460   8.949 -0.1321 -0.3708 -0.0592
36051W        W78964  28.207  27.509   4.150 -0.0301 -0.1786 -0.0142
36052W        W78965  19.543  17.417  24.753  0.0826 -0.0873  0.0852
36053W        W78966   2.516  18.299   0.371 -0.3327 -0.0828  0.3085
36054W        W78967  23.180  26.312   3.916 -0.2270  0.0474  0.0191
36055W        W78968  14.278  20.877   1.473  0.1847 -0.0306  0.3127
36056W        W78969  31.278  16.943   6.685  0.1870  0.1252 -0.1284
36057W        W78970  28.259  24.004   3.658 -0.1081  0.1396  0.2196
36058W        W78971   0.977  12.482   4.502  0.1026 -0.0921 -0.2018
36059W        W78972  27.395  24.165  22.842  0.1725 -0.1495 -0.1250
36060W        W78973  34.160  27.856   6.586  0.1707  0.2113  0.1347
36061W        W78974  16.570  25.404   8.647  0.3295  0.1383 -0.3698
36062W        W78975   3.317  20.831   3.422 -0.1266  0.0734  0.2695
36063W        W78976  26.480  29.956   5.158 -0.0693  0.0223  0.2917
36064W        W78977   2.365  20.508   9.965 -0.0058 -0.0525  0.1033
36065W        W78978  25.303  19.194   7.281 -0.0419  0.2880 -0.1580
36066W        W78979  32.413  21.404   7.247 -0.0689  0.1058 -0.0430
36067W        W78980  25.930  21.304   1.522  0.2250  0.1981  0.4718
36068W        W78981  18.461  16.885  25.816 -0.1740 -0.0190  0.2354
36069W        W78982  26.277  32.893   7.276 -0.2257  0.0196 -0.4244
36070W        W78983  32.441  20.625  27.857  0.1063 -0.0152  0.0875
36071W        W78984   4.089  18.316   6.220  0.1305  0.2215  0.0044
36072W        W78985  32.489  20.588   8.701  0.4602 -0.2482 -0.0808
36073W        W78986   9.188  21.249  26.987  0.1541  0.1304  0.0474
36074W        W78987  17.401  22.715   0.376 -0.2789 -0.0101 -0.2077
36075W        W78988  30.688  29.450   4.024  0.2861 -0.2532 -0.0435
36076W        W78989  34.318  32.433  10.930  0.0241  0.1390 -0.0445
36077W        W78990   1.339  15.143   6.961 -0.1775  0.1104  0.2245
36078W        W78991  25.049  18.955   8.264 -0.0179 -0.2274  0.1343
36079W        W78992  29.240  21.917   6.335 -0.2643  0.0046  0.2163
36080W        W78993  23.349  20.610   5.488  0.0471  0.0483  0.0181
36081W        W78994  27.078  20.276   7.256  0.0335 -0.0537 -0.0127
36082W        W78995  20.383  10.016  19.111  0.0513 -0.0927  0.1408
36083W        W78996   1.109  24.398   8.695 -0.2200 -0.3451 -0.0794
36084W        W78997  32.765  20.755   8.352 -0.4443  0.1219 -0.0831
36085W        W78998  24.221  20.417   9.095 -0.0087 -0.1448  0.1924
36086W        W78999  18.526  17.045   1.411 -0.0130 -0.1221 -0.0995
36087W        W79000  11.485  23.043  21.581  0.4645  0.0624  0.1144
36088W        W79001  20.630  23.053   6.713  0.2167  0.2076  0.1538
36089W        W79002  14.221   7.150  10.754 -0.0566 -0.1452 -0.1327
36090W        W79003  20.688  18.331   5.954 -0.1189 -0.2471  0.2645
36091W        W79004  23.812  18.410  27.679 -0.0934 -0.0468  0.0626
36092W        W79005  31.088  25.726   5.407 -0.1879  0.1906 -0.2050
36093W        W79006  26.586  26.669   8.187  0.0562  0.2046 -0.1564
36094W        W79007  22.149  20.627   3.538 -0.0446 -0.4819 -0.0750
36095W        W79008  18.617  12.131  25.862  0.0032 -0.1261 -0.1175
36096W        W79009  27.151  19.094   0.823  0.1365 -0.0928 -0.2712
36097W        W79010   0.469  22.261   9.747 -0.0519 -0.3941 -0.0862
36098W        W79011  29.686  19.707   1.892 -0.0310  0.3057  0.0364
36099W        W79012  19.938  12.658   3.984 -0.2123  0.1465 -0.0970
36100W        W79013  24.584  12.146   0.549  0.1353 -0.2326 -0.2754
36101W        W79014  28.975  30.057   6.033  0.0790 -0.1741 -0.1205
36102W        W79015   0.625  12.268   5.944 -0.0762  0.2223 -0.1905
36103W        W79016  27.327  22.226   6.599 -0.1961  0.1718 -0.1501
36104W        W79017  17.381  23.550  29.723  0.0300 -0.0509  0.1773
36105W        W79018  32.470  18.338   4.698  0.0519  0.2235 -0.0009
36106W        W79019  33.403  28.534   7.219 -0.0805 -0.1426  0.3183
36107W        W79020   3.990  22.060   9.580 -0.1552  0.0993 -0.0043
36108W        W79021   7.005   0.195  10.151  0.0056  0.0659  0.0999
36109W        W79022   2.467   9.292   6.033  0.1542 -0.0201 -0.3158
36110W        W79023  29.750  23.049   5.536  0.1795  0.2040  0.2156
36111W        W79024  24.996  16.483  27.267  0.0612 -0.1564  0.4331
36112W        W79025  24.289  17.471   5.493 -0.3150 -0.1967  0.1138
36113W        W79026   4.827   7.921   9.552 -0.0324 -0.4139  0.1154
36114W        W79027  22.497  31.267  27.954 -0.0926  0.3238 -0.0049
36115W        W79028  28.103  11.401   9.633  0.2954  0.0371 -0.1924
36116W        W79029  28.466  15.871   5.740 -0.0535 -0.0684  0.0709
36117W        W79030  32.956  15.154   7.285  0.2179 -0.1398  0.0118
36118W        W79031  32.152  21.959   5.192  0.0472 -0.0057  0.1051
36119W        W79032  29.303  22.489   8.138  0.3397  0.0417  0.1947
36120W        W79033  20.719  10.955   7.835 -0.0647 -0.0635  0.4390
36121W        W79034  12.106  25.756   2.504 -0.0534  0.1525 -0.3136
36122W        W79035  28.490  21.708   3.439  0.0435 -0.1114 -0.0268
36123W        W79036  27.043  21.082  24.869 -0.0381  0.0915  0.0794
36124W        W79037  34.231  13.754   6.940  0.0419 -0.3305  0.2178
36125W        W79038  27.146   5.236   5.402 -0.1637  0.1591  0.0979
36126W        W79039   8.520  23.065   3.845 -0.1611 -0.0100  0.0208
36127W        W79040  18.911  17.682   5.140  0.4213  0.1922 -0.1391
36128W        W79041  28.751   7.966   9.296 -0.0836  0.1748 -0.0686
36129W        W79042  34.253  22.762   6.300 -0.2589 -0.0515  0.1549
36130W        W79043  26.697  24.781   1.743 -0.2553  0.3439  0.1135
36131W        W79044  26.046   7.416   4.719 -0.0325 -0.0576  0.2416
36132W        W79045  32.619  23.303   2.186  0.2941 -0.1067 -0.0371
36133W        W79046   4.871  23.911   4.767  0.0292 -0.1112 -0.0296
36134W        W79047  28.213  19.041   5.236  0.0324 -0.0098 -0.2404
36135W        W79048  28.330   7.487   5.576  0.1330  0.2441 -0.2149
36136W        W79049  22.695  25.171   6.389  0.0608  0.1198 -0.0502
36137W        W79050  26.697  20.558   7.413 -0.0085 -0.0767 -0.1753
36138W        W79051   1.924  30.166   3.426 -0.1936 -0.0373  0.0644
36139W        W79052  22.597  23.368   2.444 -0.2118 -0.3085 -0.2845
36140W        W79053   5.434  18.079   9.383  0.0867 -0.0523  0.1626
36141W        W79054  31.376  15.009   0.553  0.4823 -0.2045  0.0066
36142W        W79055  31.181  28.909   2.512 -0.1574  0.2867  0.0793
36143W        W79056  22.964   9.867  28.927  0.1184 -0.2288 -0.0117
36144W        W79057  27.995   8.432   9.068  0.4729 -0.0661 -0.1640
36145W        W79058  23.011  20.564   6.842  0.0966 -0.1017  0.1529
36146W        W79059   0.273  14.552   4.095  0.1161 -0.0032 -0.0230
36147W        W79060  27.476  13.918   7.045  0.0562  0.1601  0.0899
36148W        W79061  20.001   7.635   8.769 -0.0381 -0.1770  0.0970
36149W        W79062  31.001  33.342   2.899  0.1818 -0.1815 -0.1287
36150W        W79063   2.925   0.610   6.988  0.0794  0.0347 -0.1918
36151W        W79064  32.980  21.213   1.581 -0.0520  0.1361  0.1536
36152W        W79065   3.054  27.478   8.287 -0.1743 -0.3405 -0.2745
36153W        W79066  30.660  20.789   0.210 -0.1509 -0.0450  0.0162
36154W        W79067  33.350  23.415   6.211  0.1619 -0.2196 -0.0093
36155W        W79068  27.146  25.552   8.338  0.2905  0.1548  0.0622
36156W        W79069  25.555  29.086   7.679 -0.1029  0.4996  0.0301
36157W        W79070  16.411  15.004   1.497  0.3342 -0.2141 -0.4110
36158W        W79071  29.699  18.757  23.082 -0.0598 -0.1742 -0.0586
36159W        W79072  23.318  20.692   4.871  0.2250 -0.3600 -0.1128
36160W        W79073  27.098  19.439  29.007 -0.1999  0.1211  0.0568
36161W        W79074  29.720  12.904   5.322 -0.0508 -0.3580  0.0245
36162W        W79075   2.930  11.552   5.454  0.0988  0.2536 -0.1565
36163W        W79076  27.516  19.185   8.294  0.0141  0.1388 -0.1228
36164W        W79077  17.838  23.740   4.906  0.2809  0.0763  0.0173
36165W        W79078  14.816  11.465  25.191 -0.2461  0.0824  0.0243
36166W        W79079  21.603  33.358   0.671  0.2055  0.1551  0.0244
36167W        W79080  28.983  24.255   7.723 -0.1120  0.0370  0.1511
36168W        W79081  30.464   2.052   7.614  0.0899 -0.1200 -0.4707
36169W        W79082  28.597  28.528   1.263 -0.0114  0.0481 -0.1723
36170W        W79083   3.228  11.982   8.620 -0.2325 -0.0448 -0.1002
36171W        W79084   1.342  29.294   6.208  0.1587  0.1629  0.0950
36172W        W79085   2.599  28.754   3.200  0.4473 -0.0539 -0.1209
36173W        W79086  28.507  25.667   6.913 -0.0328  0.2778 -0.3115
36174W        W79087  33.825  15.849   2.321 -0.0966  0.0541 -0.0887
36175W        W79088  28.777  26.088   8.015 -0.0922 -0.0351 -0.0946
36176W        W79089  28.687  18.644  29.579 -0.1131 -0.0413 -0.0262
36177W        W79090  25.412  28.282   7.947 -0.0973 -0.1845 -0.3612
36178W        W79091  29.955  23.963   7.118 -0.0210  0.0788  0.0837
36179W        W79092  27.038  22.153   8.954  0.0852  0.3342 -0.1166
36180W        W79093   0.519  16.081   7.511 -0.2884 -0.1150  0.2909
36181W        W79094  27.189  13.580   8.303  0.1960  0.0488 -0.1036
36182W        W79095  22.860  31.219   3.875 -0.5274  0.3057  0.1565
36183W        W79096  24.728  30.788  25.815 -0.0376  0.3291  0.2084
36184W        W79097  23.160  14.105   1.289 -0.0907  0.0716  0.1529
36185W        W79098  32.809  21.586   1.156  0.0313  0.0583 -0.2287
36186W        W79099   2.697  16.329   8.147  0.0053  0.2578 -0.0538
36187W        W79100   0.148  13.599   6.399  0.0449  0.0957  0.1944
36188W        W79101  30.771  21.105   6.454  0.3726  0.0550 -0.1592
36189W        W79102  29.056  23.375  26.049 -0.0759 -0.1315 -0.0257
36190W        W79103  27.429  18.653   9.372  0.1466  0.2234  0.0073
36191W        W79104  34.366  15.879   1.052  0.2761  0.0997 -0.0371
36192W        W79105  11.626  15.518   9.374 -0.1942  0.1614  0.1042
36193W        W79106  31.183  17.425   6.640 -0.1847  0.2449 -0.0808
36194W        W79107  23.235   2.466   7.872 -0.2809 -0.0068 -0.2508
36195W        W79108  33.922  13.809   8.358 -0.0740  0.0422  0.1980
36196W        W79109  31.636  20.691  25.528  0.2835 -0.0584 -0.0319
36197W        W79110  20.417  15.367   7.945  0.0409 -0.0565  0.3805
36198W        W79111   0.562  17.547  28.327 -0.3332 -0.0906 -0.2366
36199W        W79112  31.866  15.376   8.425  0.0430  0.0065 -0.1611
36200W        W79113   1.709  15.831   8.255 -0.0214 -0.0145 -0.1399
36201W        W79114  19.257  14.502   4.752 -0.2838  0.1618 -0.1734
36202W        W79115  32.240  15.401   3.679 -0.1105 -0.0249 -0.0925
36203W        W79116  27.009  27.959   5.303  0.1554  0.0415 -0.1326
36204W        W79117  23.588  19.966   7.635  0.4089  0.1387 -0.2009
36205W        W79118  20.291  27.246   2.386 -0.1202  0.1354  0.0038
36206W        W79119  28.107  25.255   7.925 -0.0960  0.1217 -0.3355
36207W        W79120  22.181   6.896   5.883  0.1396 -0.1237  0.1820
36208W        W79121  30.426  26.631  10.324 -0.0480 -0.1751 -0.3218
36209W        W79122  22.443  23.466   5.076  0.3683 -0.0351  0.1321
36210W        W79123  29.312  27.272   6.383  0.0837 -0.1189 -0.4907
36211W        W79124  34.485   6.495   5.907 -0.0168 -0.0094 -0.0121
36212W        W79125  29.879  12.940   6.919  0.0147 -0.1523  0.0580
36213W        W79126  31.384  15.602   9.327  0.0723 -0.0041  0.1077
36214W        W79127  26.328  28.612   9.321  0.2708 -0.0203 -0.0134
36215W        W79128  20.105  16.096  27.099 -0.0848  0.3404 -0.1585
36216W        W79129  22.514  14.279   7.928  0.0739  0.0060 -0.1380
36217W        W79130  22.153   6.260   8.395 -0.1997  0.0192  0.1168
36218W        W79131  19.699  11.134   4.077 -0.0707 -0.0381 -0.2150
36219W        W79132  32.010  13.275   7.553 -0.3066 -0.0300 -0.1164
36220W        W79133  27.485  18.673   0.588  0.1658  0.2219 -0.3408
36221W        W79134   3.901   0.114   9.490  0.0061 -0.0454 -0.1476
36222W        W79135   2.294  19.997   6.395 -0.0445  0.0103  0.0316
36223W        W79136  26.396  12.139   7.490 -0.1228 -0.0971 -0.4433
36224W        W79137  25.037  31.638   0.449  0.1640 -0.0493  0.1798
36225W        W79138   0.225  24.621   7.211  0.0538  0.0564  0.0444
36226W        W79139  28.220  10.735   5.104  0.2732  0.0516 -0.0257
36227W        W79140  28.443  24.063   1.504 -0.2228 -0.1571  0.4653
36228W        W79141   7.270  17.919   9.334  0.1327 -0.0683 -0.2379
36229W        W79142  28.311  24.747   9.194 -0.1129 -0.0021 -0.2491
36230W        W79143  25.598  22.362   2.562  0.0709 -0.0758  0.1079
36231W        W79144  26.683  17.337   3.608  0.2180  0.0117  0.0932
36232W        W79145  27.268   6.606   0.447 -0.1976  0.3624  0.0319
36233W        W79146  34.421  18.467   1.773 -0.2306 -0.0520  0.0625
36234W        W79147  29.394  20.093   9.565  0.1994  0.3697 -0.3031
36235W        W79148  27.992  16.068   9.204 -0.0870 -0.1600  0.2779
36236W        W79149  25.235  15.691   8.160  0.2263  0.1539 -0.1682
36237W        W79150  23.019  31.437   4.800  0.3202 -0.0574  0.0334
36238W        W79151  29.544  20.045   3.924  0.0914 -0.2351  0.1277
36239W        W79152  28.551  18.293   9.041 -0.1361  0.5249  0.0794
36240W        W79153  10.391  28.894   9.826  0.2534  0.0892 -0.1150
36241W        W79154   0.347  14.114   8.503  0.1378  0.1856  0.0797
36242W        W79155  31.767   0.987   8.799 -0.1022 -0.3863  0.1360
36243W        W79156   1.470  33.703  10.282 -0.0383  0.1376  0.5361
36244W        W79157  29.289  15.455   5.329  0.0015 -0.2265 -0.0564
36245W        W79158  25.311  14.808   1.512  0.1625  0.2265 -0.1989
36246W        W79159   2.255  16.926   9.251 -0.0894  0.0541 -0.0897
36247W        W79160   2.881   6.464   7.247  0.0912  0.2365 -0.1749
36248W        W79161   4.374  15.221   7.586  0.1503  0.1244  0.0178
36249W        W79162   4.687  17.147   9.031  0.0953 -0.2477  0.1205
36250W        W79163  18.351  25.907  10.208 -0.0333 -0.0771 -0.0705
36251W        W79164   5.200  13.455   4.951  0.3502  0.1822  0.0130
36252W        W79165  22.418  21.710   7.384 -0.1335 -0.0639  0.3286
36253W        W79166  25.898  25.417   6.520 -0.3020  0.1177 -0.1529
36254W        W79167  30.645  13.113   7.819 -0.1820  0.0413 -0.0727
36255W        W79168  19.070  20.829   4.664 -0.0179  0.1456  0.2411
36256W        W79169  26.822  19.252  29.415 -0.1482 -0.0687 -0.0223
36257W        W79170  28.550  29.464   4.553 -0.0647 -0.0866  0.0369
36258W        W79171  22.471  26.603   5.056 -0.1619 -0.1947  0.3284
36259W        W79172  23.251  20.069   8.003 -0.1246 -0.1436  0.1706
36260W        W79173  19.297  18.010   3.172  0.0847  0.0213  0.0742
36261W        W79174  25.923  20.583   2.870 -0.1000 -0.2588 -0.0548
36262W        W79175   0.414  22.468   7.991  0.2474 -0.2433  0.0734
36263W        W79176  31.262  25.320   7.591 -0.1155 -0.0121  0.0067
36264W        W79177  29.340  12.995   6.185 -0.0642  0.2026  0.1483
36265W        W79178  16.712  17.394  25.838 -0.0380  0.0852  0.0887
36266W        W79179  26.950  19.905   8.888  0.0159  0.4252 -0.1097
36267W        W79180  23.187  16.338   3.312 -0.1459 -0.3118  0.0345
36268W        W79181   0.372  24.429   0.674  0.2215  0.0360  0.1420
36269W        W79182  28.611  14.291   4.152  0.0525  0.4007  0.1484
36270W        W79183  21.654  13.403  29.530 -0.0568  0.1896 -0.0451
36271W        W79184  26.970  23.081   4.945  0.0333  0.1655 -0.0540
36272W        W79185  24.130  29.167   4.080 -0.1423  0.1722  0.0897
36273W        W79186  28.753   8.483   7.652 -0.1961  0.0916  0.0891
36274W        W79187  23.793  20.782   6.782 -0.1858  0.0489  0.2053
36275W        W79188  29.414  30.519   3.942 -0.1938  0.0574 -0.2190
36276W        W79189   5.744  17.132   4.148 -0.4115  0.0242 -0.2020
36277W        W79190  32.316  11.504   4.522  0.0124  0.1127 -0.1257
36278W        W79191  14.939  21.433  27.906 -0.4044  0.0159  0.2235
36279W        W79192  25.269  23.817   8.239  0.1469  0.2848  0.1645
36280W        W79193  28.224  15.534   6.822  0.2939  0.2975 -0.2892
36281W        W79194  26.425  20.709   3.110 -0.0056  0.0878 -0.1373
36282W        W79195   1.105  21.470   3.445 -0.0750  0.3417 -0.1454
36283W        W79196  32.480  26.826   3.637  0.0323  0.1857 -0.1918
36284W        W79197  25.620  23.827   5.844  0.1749  0.2780 -0.2170
36285W        W79198  33.808  33.510   6.365  0.0061 -0.3015  0.1427
36286W        W79199  28.405  27.694   9.071 -0.1208 -0.2313  0.2518
36287W        W79200  26.347  30.345   7.610 -0.0594 -0.1267 -0.2371
36288W        W79201  34.106  17.602   7.547 -0.2499  0.0495 -0.3703
36289W        W79202  27.399  33.549   6.326  0.0943 -0.1422 -0.2700
36290W        W79203  23.615  22.952   4.459 -0.0520 -0.2376 -0.1328
36291W        W79204  23.744  21.693   1.618 -0.1138 -0.2327  0.5778
36292W        W79205  30.650  18.857   7.103  0.0398  0.0987 -0.1778
36293W        W79206  21.761  26.399   8.603  0.0304  0.3390  0.1337
36294W        W79207  22.107  20.948   5.339  0.0326 -0.2368 -0.0654
36295W        W79208  20.776  23.553   8.714  0.2768  0.4188  0.0125
36296W        W79209  27.585  11.397   9.427 -0.1749  0.1018  0.1567
36297W        W79210  32.645  21.951   1.980  0.1580  0.1427 -0.1950
36298W        W79211   6.651  15.805   9.911 -0.1337  0.0130 -0.1256
36299W        W79212  14.074   3.837  24.529 -0.0140  0.1983 -0.0567
36300W        W79213  23.641  17.851   4.403  0.1612 -0.3275  0.0305
36301W        W79214  19.804  31.070   6.719  0.0851  0.3493  0.3131
36302W        W79215  27.698  28.614  28.831 -0.1658  0.1284 -0.1958
36303W        W79216  34.076  20.470   7.428 -0.1568  0.0969  0.4235
36304W        W79217  31.338  32.412   7.620  0.2138  0.1230 -0.1763
36305W        W79218  29.409  21.013   9.613 -0.2288  0.1193  0.1333
36306W        W79219  24.725  23.085   4.535  0.3152  0.1298 -0.0142
36307W        W79220  26.019  19.686  28.828  0.3639  0.1005  0.0099
36308W        W79221  32.231  16.408   7.157  0.0383 -0.2853  0.2169
36309W        W79222  20.860  15.949  22.889 -0.1249  0.1368 -0.1089
36310W        W79223  33.298  19.289   6.459 -0.2659  0.2521 -0.0423
36311W        W79224  17.226  16.576   5.936 -0.0609 -0.1617 -0.1612
36312W        W79225   2.043  19.037   6.766  0.3529  0.0492  0.0827
36313W        W79226  20.538  15.475  24.505  0.0496 -0.0147  0.0187
36314W        W79227  32.300  25.100   7.414 -0.0535  0.1327  0.2808
36315W        W79228  25.867  23.541   6.807 -0.1851 -0.2144  0.3384
36316W        W79229   2.071  23.435   8.524 -0.0582 -0.0502 -0.1705
36317W        W79230  32.359  15.321   8.435 -0.0683 -0.2634 -0.0007
36318W        W79231  29.271  18.461   7.588  0.0498  0.2116  0.3063
36319W        W79232   7.725  29.901  11.318 -0.0264 -0.0837 -0.1032
36320W        W79233  29.898  15.993   1.095 -0.2901 -0.1433  0.0783
36321W        W79234  26.143  18.112   9.577  0.0686  0.0356  0.3079
36322W        W79235  26.988  17.389   1.386 -0.0045  0.0545  0.2877
36323W        W79236  28.095  25.298   4.524  0.2143 -0.0129 -0.0202
36324W        W79237  26.007  27.070   0.898  0.4799  0.2550  0.1304
36325W        W79238  22.423   5.460  26.318  0.0345 -0.2115  0.2424
36326W        W79239  28.285  14.876   5.904 -0.3315  0.1291 -0.1015
36327W        W79240   0.447  12.304   6.974 -0.3274 -0.0713 -0.0298
36328W        W79241  31.578   8.268   7.801 -0.2363  0.1038  0.0769
36329W        W79242  20.720  16.849  27.646 -0.3083 -0.0892  0.1346
36330W        W79243  19.404  19.884  27.543 -0.2612  0.0324  0.0848
36331W        W79244  18.669  16.076   0.906  0.2241 -0.3267  0.1399
36332W        W79245  27.855  28.358   4.105 -0.1338 -0.1497  0.0263
36333W        W79246  21.614  20.391   2.733  0.0091 -0.2567 -0.2242
36334W        W79247  24.778  20.870   2.492 -0.0118 -0.0683 -0.1157
36335W        W79248  29.976  14.828   5.205 -0.3710  0.0071 -0.0910
36336W        W79249  30.381   4.693  10.045 -0.1255 -0.0263  0.1823
36337W        W79250  28.554  16.656   9.812  0.1191  0.2192 -0.2600
36338W        W79251   1.558  19.941   7.977  0.0849  0.1144 -0.1832
36339W        W79252  25.362  18.225   8.557 -0.2536  0.3536  0.0312
36340W        W79253   3.065  20.882   4.684 -0.0277  0.2181 -0.2697
36341W        W79254  31.877  24.256   5.158  0.1290 -0.1356  0.3183
36342W        W79255  29.951  29.850  24.913 -0.1720  0.1547 -0.1332
36343W        W79256  28.198  15.687   7.823  0.1566  0.0914  0.0497
36344W        W79257  21.637  14.302   8.154  0.0233 -0.0397 -0.0560
36345W        W79258  27.432  22.123  29.777 -0.0631 -0.0480  0.0787
36346W        W79259  34.217  20.511   4.190  0.1459  0.1634 -0.1054
36347W        W79260  26.646  21.272   5.842  0.4036  0.0905 -0.0897
36348W        W79261   8.470  21.248   5.524 -0.0201 -0.1912  0.0000
36349W        W79262  32.930  20.855   5.160  0.2244  0.3651 -0.1312
36350W        W79263  30.823  20.880   8.573 -0.1904 -0.0370 -0.0319
36351W        W79264  25.599  31.130   3.565  0.1709  0.2754  0.4489
36352W        W79265  28.506   9.984   8.061  0.2678 -0.4176  0.1410
36353W        W79266   2.520  21.958   2.584 -0.3514 -0.0397  0.0118
36354W        W79267   2.570  16.334   8.637  0.2923  0.1160  0.0100
36355W        W79268   3.743  25.309   5.044 -0.1651 -0.1339  0.0598
36356W        W79269  29.653  14.817  28.921 -0.1603 -0.1201  0.1285
36357W        W79270  23.849  15.054   5.213 -0.2293  0.5912 -0.1686
36358W        W79271  26.958  21.852   6.502  0.0635 -0.2517  0.0179
36359W        W79272   0.478  32.216   7.284 -0.1383  0.2349  0.3468
36360W        W79273  21.478  10.641   1.968  0.1225  0.1584 -0.2161
36361W        W79274  33.676  14.611   7.533  0.0585 -0.1234 -0.2219
36362W        W79275  22.967  21.919   6.678  0.2347 -0.5181 -0.0240
36363W        W79276  23.471  19.542   6.343 -0.1041 -0.1694  0.0440
36364W        W79277  33.462  13.216  25.069  0.2470  0.1401  0.0542
36365W        W79278  26.782  22.506   8.765 -0.0796  0.0119 -0.0822
36366W        W79279  19.099  20.619   2.964  0.2967 -0.0215  0.5557
36367W        W79280  28.889  22.626  24.928  0.1773 -0.0648  0.2452
36368W        W79281  33.184  24.274   6.562  0.0604 -0.0034  0.2264
36369W        W79282  21.234  13.286   7.550 -0.1474  0.0457 -0.0328
36370W        W79283   1.260  26.143  28.526 -0.0751  0.1314  0.0021
36371W        W79284  17.897  22.594  26.764  0.1272 -0.2561  0.0381
36372W        W79285  33.228  20.504   8.449 -0.2176 -0.2997 -0.1625
36373W        W79286  30.893  19.051   4.687 -0.2282  0.2045  0.2901
36374W        W79287  12.495  17.634   0.329 -0.0926  0.2293 -0.0817
36375W        W79288  32.118  31.525   5.327 -0.1294  0.2268  0.0041
36376W        W79289  33.959  15.186   6.450  0.4780 -0.0717 -0.1089
36377W        W79290   4.062  22.514   3.662 -0.0668  0.0136 -0.2288
36378W        W79291  24.052   7.100   0.773  0.3343  0.0481 -0.2239
36379W        W79292  24.001  21.616   7.541  0.0539  0.0414 -0.0266
36380W        W79293   2.705  30.970   8.664 -0.3531  0.0688 -0.0158
36381W        W79294  22.402  32.094   5.990 -0.0481  0.1064 -0.0736
36382W        W79295  12.256  24.964   4.368 -0.1807 -0.0241  0.2612
36383W        W79296  25.162  19.535  20.688  0.1938  0.2102 -0.1075
36384W        W79297  18.827  26.167  29.038  0.2969  0.1166  0.0331
36385W        W79298  28.364  21.788  24.432 -0.2124  0.0013 -0.0789
36386W        W79299  21.254  32.492   1.196  0.0757 -0.0418  0.0932
36387W        W79300  32.425  20.535   6.798 -0.3287 -0.2905 -0.1084
36388W        W79301  34.367   6.907   0.890  0.4271  0.1416  0.0227
36389W        W79302  33.259  21.092   1.199  0.0099 -0.1937 -0.3397
36390W        W79303  16.471  23.038   3.642  0.1042 -0.2664  0.0650
36391W        W79304  25.812   8.712   0.556  0.2095 -0.2784 -0.1740
36392W        W79305  25.605  19.282   5.344 -0.0741  0.3692  0.3004
36393W        W79306   0.925  29.311  23.746 -0.0316 -0.1104 -0.3494
36394W        W79307  24.346  24.280   4.907 -0.0870 -0.1800 -0.1499
36395W        W79308  28.387  28.031   3.371  0.1110 -0.2659  0.1936
36396W        W79309   3.101  32.039   1.720 -0.1820 -0.2514 -0.0978
36397W        W79310   2.271  20.111   1.794 -0.1736  0.0923 -0.2577
36398W        W79311   2.940  13.744  19.290 -0.2334 -0.1116 -0.0102
36399W        W79312  24.691   2.456  27.467 -0.3903  0.1460  0.0182
36400W        W79313  19.437  18.618   0.806 -0.0423  0.1670  0.0406
36401W        W79314  19.961  28.221  29.369 -0.0249 -0.1564 -0.1106
36402W        W79315  21.333   1.300   3.075  0.2220  0.1602 -0.1286
36403W        W79316  11.701  22.329   3.773  0.0551  0.0627 -0.2563
36404W        W79317  23.048  14.936   5.654  0.1219 -0.0901 -0.0189
36405W        W79318  30.871  27.351   7.458  0.1993  0.0527  0.2669
36406W        W79319   3.231  22.225   8.035 -0.3648 -0.0503  0.0276
36407W        W79320   7.581  16.430  24.978 -0.3378  0.3756 -0.0438
36408W        W79321  20.557  17.891   6.253  0.3430 -0.1971 -0.3573
36409W        W79322  16.914  24.693  27.414  0.0539  0.2001  0.1514
36410W        W79323   1.972  21.901   9.614 -0.0216 -0.2516  0.0915
36411W        W79324  24.398  27.239  28.725  0.0449  0.1195  0.2335
36412W        W79325  24.005  21.837   0.591 -0.0282 -0.1466  0.5282
36413W        W79326  17.312  15.213   6.386  0.3104 -0.0019 -0.1478
36414W        W79327  31.222  34.458   8.911  0.3031 -0.3176  0.0511
36415W        W79328  25.132  25.104   3.831 -0.2026  0.2927  0.0082
36416W        W79329  14.406  19.350   7.884  0.0800  0.0660 -0.3478
36417W        W79330  28.801  16.543  29.216 -0.2296  0.0536 -0.3829
36418W        W79331   3.380   2.428  11.644 -0.0789  0.0063 -0.0654
36419W        W79332   0.484  19.218   9.081 -0.0368  0.0382  0.1950
36420W        W79333  18.955  18.161  25.713 -0.1823 -0.2002 -0.0387
36421W        W79334  31.292  20.526   9.400 -0.2332 -0.1584  0.0422
36422W        W79335  26.496  29.431   0.124  0.0080 -0.0451  0.2042
36423W        W79336  14.003  18.630   0.479  0.1345  0.0675  0.1165
36424W        W79337  23.591  32.317   9.313  0.1287 -0.0856  0.4883
36425W        W79338   8.283  29.374  27.287 -0.0877 -0.1487  0.0381
36426W        W79339  29.969  24.617   7.676 -0.0190 -0.2971 -0.1126
36427W        W79340  31.559  24.693  24.545  0.0914 -0.0555  0.1062
36428W        W79341  30.889  28.603   8.194  0.1869 -0.0972  0.1350
36429W        W79342  23.732   2.942   6.797 -0.0898 -0.1208  0.0103
36430W        W79343  29.323  27.872   3.041  0.2370  0.2913 -0.1704
36431W        W79344  30.517   3.070  28.000 -0.0716  0.3108 -0.2304
36432W        W79345  24.803  18.397  15.518 -0.1598  0.2324 -0.1995
36433W        W79346  28.128  26.847  18.032 -0.3203 -0.2213  0.0084
36434W        W79347  27.338  21.138  29.558 -0.4521  0.0336 -0.0460
36435W        W79348  27.068  29.057   9.231  0.0223  0.2452 -0.1928
36436W        W79349  33.452  23.881   3.102  0.3875  0.1718  0.1999
36437W        W79350  30.519   4.760   6.967  0.2392  0.0236 -0.0479
36438W        W79351  10.624  25.687  24.781 -0.0025 -0.0477  0.5392
36439W        W79352  21.669  28.411   6.961  0.0510  0.0579  0.1544
36440W        W79353  26.611  18.493   0.193 -0.1909 -0.1127 -0.0510
36441W        W79354  13.235  22.723  28.289 -0.2106 -0.0517 -0.0012
36442W        W79355  33.226  27.046  21.096  0.2180 -0.1620 -0.0273
36443W        W79356  20.248  16.352  21.762 -0.1171 -0.0654  0.4476
36444W        W79357  27.031  30.608   7.647  0.0113 -0.0580 -0.2432
36445W        W79358  19.802  21.385  26.522  0.0249  0.2294 -0.0083
36446W        W79359  33.305  23.423  26.157  0.1289  0.0367  0.4243
36447W        W79360  25.918  20.340  28.074 -0.1732 -0.1381 -0.2197
36448W        W79361  30.045  33.510   6.604  0.0258  0.2858  0.2511
36449W        W79362  21.691  19.911  27.956 -0.2982 -0.1289 -0.3215
36450W        W79363   2.249  33.420   8.616  0.1779 -0.1386 -0.1774
36451W        W79364  29.596  31.148   1.849  0.0253 -0.1191  0.0674
36452W        W79365  23.482   6.498  27.463  0.0545 -0.0574  0.0618
36453W        W79366   1.675  26.635   0.088 -0.1788  0.0212 -0.2583
36454W        W79367  29.270  24.565   3.640  0.2586 -0.2885 -0.0093
36455W        W79368  24.789  15.827  17.499 -0.1072 -0.1537  0.1035
36456W        W79369  26.326  30.491  26.338 -0.1205 -0.0076  0.2529
36457W        W79370  22.649  18.182   2.842 -0.1544 -0.1974 -0.1796
36458W        W79371  12.004  12.574   1.425  0.0088  0.2842 -0.2314
36459W        W79372  28.877   4.012  25.628 -0.0462  0.1091  0.4554
36460W        W79373  28.987  20.881   6.913  0.1519 -0.3746  0.0211
36461W        W79374  21.800  15.461  25.516  0.0442 -0.0022  0.0718
36462W        W79375  19.101   9.667  28.008  0.1451 -0.0655  0.0494
36463W        W79376  31.177  31.337   1.141 -0.1746  0.3303 -0.0145
36464W        W79377  24.472  18.254   0.542 -0.2035  0.1096  0.0704
36465W        W79378  26.896  21.615   2.671  0.2579 -0.0397  0.2357
36466W        W79379  30.751  14.981   4.406 -0.1344 -0.0097  0.0383
36467W        W79380   8.829  17.000  24.910 -0.2638 -0.1071 -0.0541
36468W        W79381   0.168  22.129   0.041 -0.2843  0.0791 -0.0943
36469W        W79382  25.823  15.785  18.173  0.3906 -0.0530  0.0382
36470W        W79383   3.707  24.589   4.424 -0.2035 -0.4599 -0.3545
36471W        W79384  24.704  25.909   7.299 -0.1834 -0.1317 -0.0522
36472W        W79385  33.602  21.329  17.843  0.1724 -0.2318  0.1573
36473W        W79386  20.721  25.342  25.340  0.0743  0.3800  0.1857
36474W        W79387  29.288  26.126   0.178  0.0214 -0.1319  0.4035
36475W        W79388   0.554  17.470   7.747  0.1947  0.0727  0.2879
36476W        W79389  14.796  22.561  23.455 -0.1512 -0.1939  0.1325
36477W        W79390  28.554  18.298   1.240  0.1831 -0.1923 -0.1529
36478W        W79391  30.214  26.690   7.307  0.0126  0.0877  0.0280
36479W        W79392  32.113  18.894   0.312 -0.1204  0.2357  0.4096
36480W        W79393  33.999  15.262   5.519 -0.1941  0.1450 -0.0837
36481W        W79394  31.688  19.174   3.989  0.4051 -0.3285  0.2870
36482W        W79395   0.277  22.167   8.411  0.4251 -0.1887 -0.2198
36483W        W79396  25.907  33.187   4.620  0.0253 -0.2610  0.0637
36484W        W79397  22.233  25.414  29.123  0.2687 -0.2213 -0.0104
36485W        W79398  26.423  24.541   3.725 -0.0730  0.1102 -0.1836
36486W        W79399   3.408  17.974   8.637  0.0999  0.3156 -0.3275
36487W        W79400  17.766  23.432  25.360 -0.2245  0.0478  0.0241
36488W        W79401  31.322  18.205  25.666  0.0299 -0.0417 -0.1326
36489W        W79402  24.564  20.011   4.383  0.3182  0.3122 -0.3347
36490W        W79403  27.400  23.094  28.792 -0.2597  0.0300 -0.0066
36491W        W79404   4.688  31.120   1.937  0.1691 -0.1931  0.0261
36492W        W79405  31.468  22.107   9.939 -0.0462 -0.3095  0.0680
36493W        W79406  19.505  17.735  28.228  0.2077  0.0875  0.3211
36494W        W79407  26.873   4.844   2.880  0.0587 -0.1306 -0.2408
36495W        W79408  32.095  11.545   9.311  0.0332 -0.2230 -0.0239
36496W        W79409  21.502  18.343  23.983 -0.1025  0.0252  0.2387
36497W        W79410  27.548  23.657   8.782 -0.2925  0.0392 -0.2527
36498W        W79411  28.671  28.483  24.849  0.1987  0.0767 -0.1851
36499W        W79412  19.821  21.720   4.688 -0.1155 -0.1427 -0.2201
36500W        W79413  25.374  21.039   7.289 -0.3686  0.1955  0.2775
36501W        W79414  29.583  29.290  26.799 -0.0229  0.0212 -0.4727
36502W        W79415  33.157  14.794   6.992  0.2390  0.0294 -0.3604
36503W        W79416  18.347  29.044   4.778 -0.0872  0.0702 -0.1270
36504W        W79417  23.642  22.896   6.081  0.1141 -0.0140 -0.3513
36505W        W79418  28.228  27.441   1.443 -0.0599  0.0784  0.2192
36506W        W79419  23.468  27.992   4.250  0.0715  0.0685  0.0021
36507W        W79420  28.385  26.673  27.977 -0.4907 -0.0550  0.1978
36508W        W79421  23.662  23.611  28.731 -0.3355 -0.0143 -0.2154
36509W        W79422  19.350  29.684   7.900 -0.0275 -0.0012  0.1371
36510W        W79423  29.988  18.762  27.778  0.1584  0.0847  0.3302
36511W        W79424  16.659  21.571  28.793  0.1472  0.1274 -0.0769
36512W        W79425  23.017   6.126  29.421  0.1341  0.0862 -0.3850
36513W        W79426  22.637   4.207   9.031 -0.1030  0.4792 -0.2224
36514W        W79427  22.458  22.377   1.709  0.2189  0.1078  0.1568
36515W        W79428  28.766  13.952  26.943  0.2916  0.0084  0.1193
36516W        W79429  22.840  20.348  21.535  0.0707  0.0258 -0.2069
36517W        W79430  32.104  30.515   5.559  0.0755  0.2055  0.0271
36518W        W79431   0.933  13.253  26.642 -0.0205  0.2001  0.2921
36519W        W79432  26.442  16.587   9.058 -0.4531 -0.1828 -0.2648
36520W        W79433  21.728  24.141  29.058 -0.0278 -0.1689 -0.0871
36521W        W79434  24.419  11.548  17.042 -0.0918  0.0365 -0.2394
36522W        W79435  18.602   9.784  24.810 -0.0678  0.3777 -0.4254
36523W        W79436  27.642  27.750   7.609  0.3117 -0.1383  0.1360
36524W        W79437  19.406  22.508  25.514 -0.1461  0.0910 -0.4350
36525W        W79438  33.082  22.036   1.054 -0.0453  0.0655 -0.2451
36526W        W79439   1.907  26.349   3.463  0.0614 -0.0281 -0.2349
36527W        W79440  28.207  22.678   7.768  0.1962  0.0875  0.0520
36528W        W79441   2.347  18.001   5.818 -0.3697  0.1762 -0.4562
36529W        W79442  28.161  25.187  22.754 -0.1518 -0.1631  0.0280
36530W        W79443  23.075  22.586  27.818  0.1362 -0.2440  0.3004
36531W        W79444  31.815  14.666  26.163 -0.0503 -0.0723  0.1513
36532W        W79445  29.666  32.949   2.105  0.2234 -0.2659  0.2042
36533W        W79446   1.992  25.660   4.014  0.4051 -0.2312  0.4641
36534W        W79447  24.751  30.494   5.884 -0.1845  0.3738 -0.0107
36535W        W79448  29.838  19.602   7.154 -0.0431 -0.0801 -0.6935
36536W        W79449  30.438  34.104  23.645 -0.2204  0.0440 -0.2262
36537W        W79450  22.644  17.410  24.710 -0.0880  0.0936 -0.1269
36538W        W79451   5.364  34.131  12.126  0.1687  0.0587 -0.1334
36539W        W79452  19.861  22.727  22.932 -0.5127  0.0370  0.1154
36540W        W79453  26.674  28.395  26.835  0.2546 -0.1385  0.0174
36541W        W79454  31.501  22.023   3.037 -0.1236  0.0132  0.2084
36542W        W79455  23.976  10.499   4.687 -0.3079  0.2640  0.2839
36543W        W79456  32.976  29.509  29.704  0.2987  0.2665 -0.3306
36544W        W79457  13.480   6.127  27.303  0.1292  0.2591 -0.1324
36545W        W79458  21.698   9.964   5.198  0.1528 -0.1885  0.1900
36546W        W79459  30.287  18.455   9.547  0.0554 -0.3592 -0.1208
36547W        W79460  29.473  30.165   3.132 -0.1005 -0.3218 -0.1671
36548W        W79461  24.163  19.643   5.813  0.1690 -0.0601  0.1576
36549W        W79462  32.620  12.592  24.169 -0.2425 -0.2284 -0.0648
36550W        W79463  19.644  25.597  24.333 -0.5989 -0.0041 -0.1629
36551W        W79464  33.963  17.334   4.508 -0.1012  0.0746  0.0906
36552W        W79465  19.802  24.470   4.901 -0.0570  0.1279  0.0119
36553W        W79466  21.540  23.592  29.012  0.1219 -0.2955 -0.2248
36554W        W79467  25.017  24.159  27.145 -0.1474 -0.1203 -0.2910
36555W        W79468  29.012  30.186   0.814  0.3471  0.0633 -0.1944
36556W        W79469  28.387  20.679   9.049 -0.1242  0.0210  0.0127
36557W        W79470  33.692  21.409   7.985  0.1520  0.1414  0.1508
36558W        W79471  23.069  31.812   4.072  0.1693  0.1068 -0.1316
36559W        W79472  20.711  14.753  22.253 -0.0467  0.0629 -0.0967
36560W        W79473  29.566  23.841  23.179  0.0059 -0.1505 -0.2086
36561W        W79474  20.584  23.899   5.298  0.1452  0.1816 -0.1407
36562W        W79475  21.765  19.920   3.901 -0.1001  0.0784  0.1459
36563W        W79476  19.625   0.836   6.553  0.1088 -0.1938 -0.1268
36564W        W79477  24.353   6.260   5.806 -0.0040  0.5988  0.0330
36565W        W79478  11.288  25.741  26.252 -0.2025  0.3144  0.0961
36566W        W79479  28.827  22.462   8.265  0.2594 -0.0998  0.2626
36567W        W79480   6.847  27.740   7.469 -0.0964 -0.0913 -0.1996
36568W        W79481  28.259  30.176  26.487 -0.0876  0.0622 -0.0648
36569W        W79482  29.219  18.784  28.717  0.1910  0.1095 -0.2512
36570W        W79483  27.147  21.191   0.609 -0.0614 -0.1869 -0.0709
36571W        W79484  26.865  22.658   4.695 -0.1553  0.0295  0.1655
36572W        W79485  22.516  22.137   0.584 -0.3298 -0.4292 -0.1558
36573W        W79486  30.498  22.426  26.787  0.1873  0.1621  0.1109
36574W        W79487  21.827  18.800   2.371 -0.0089  0.2019 -0.4465
36575W        W79488  30.299  16.705  18.247  0.3350  0.2442  0.0223
36576W        W79489  27.975  19.736   5.839  0.2602  0.0666 -0.0124
36577W        W79490  25.513  30.847  24.831 -0.2319 -0.1860  0.0296
36578W        W79491  26.923  27.802  21.160 -0.1990 -0.1449 -0.0924
36579W        W79492  24.572  20.335   4.765 -0.0892 -0.1357  0.4778
36580W        W79493  23.840  16.762  22.073 -0.0743 -0.0587 -0.3240
36581W        W79494  21.833   9.441  26.289  0.1315  0.2920 -0.2918
36582W        W79495  25.925  25.482  27.855 -0.2194  0.0040  0.2332
36583W        W79496  32.012  26.520   5.002 -0.2097  0.1198 -0.4385
36584W        W79497  20.607  30.262  27.469  0.0149  0.1274  0.2524
36585W        W79498  26.469   1.568   5.705 -0.0510  0.2365 -0.3163
36586W        W79499  14.642   0.551   5.459  0.1660 -0.1957  0.1583
36587W        W79500   1.116   9.130  29.643  0.0329  0.0841  0.1255
36588W        W79501  24.046  20.690   2.063  0.1549 -0.3118  0.0089
36589W        W79502  25.428  19.729   6.381  0.0224  0.1961 -0.3288
36590W        W79503  20.790  31.081   4.823 -0.1840  0.1746  0.1562
36591W        W79504  20.086  30.890  26.938 -0.2863 -0.0378 -0.1028
36592W        W79505  22.376  22.536   5.078  0.1602  0.1845  0.3146
36593W        W79506  33.237  14.639   3.090  0.1802  0.1915  0.0552
36594W        W79507  19.719  14.983  24.328  0.1022  0.3152 -0.0263
36595W        W79508  28.481  24.750  25.427  0.2752  0.0910 -0.2190
36596W        W79509  10.203  22.539  22.861  0.2283 -0.1366 -0.0444
36597W        W79510  23.800  19.274   4.633 -0.0574 -0.1516  0.0618
36598W        W79511  27.621  25.877   6.889 -0.0592 -0.0929 -0.0524
36599W        W79512   1.340  33.107  27.029 -0.0804  0.2764 -0.0478
36600W        W79513  28.512  18.798   8.057 -0.1169  0.0732 -0.2934
36601W        W79514  25.713  33.303  25.110 -0.2832 -0.3235  0.2448
36602W        W79515  22.996  17.645  27.540 -0.0545 -0.4074 -0.0071
36603W        W79516  19.369  17.626  25.409  0.3252  0.1918 -0.1010
36604W        W79517   4.082  32.358  10.232 -0.0020  0.4516 -0.1659
36605W        W79518   1.720  16.218   2.198  0.1080  0.1539 -0.2213
36606W        W79519  24.656  17.898   7.497  0.0085  0.0298 -0.1858
36607W        W79520  28.869  21.238   5.756  0.0769  0.2670 -0.3352
36608W        W79521  25.975  17.675   1.375  0.2111 -0.0216 -0.1241
36609W        W79522  25.745   6.475   4.768 -0.0535  0.2536 -0.3137
36610W        W79523  21.039  20.414   6.540 -0.1391  0.0435  0.2101
36611W        W79524  21.331  19.014  28.758  0.0593 -0.1393  0.2391
36612W        W79525  29.752  17.216   9.245  0.0545 -0.0963 -0.1850
36613W        W79526  32.231  28.768  25.042  0.3622 -0.1511 -0.0866
36614W        W79527  22.025   4.686   5.118  0.1485 -0.1735  0.1531
36615W        W79528  26.274  17.691   6.962 -0.2669 -0.0014 -0.0552
36616W        W79529   5.831  19.402  29.431 -0.0354  0.2938  0.1242
36617W        W79530  28.158  31.735  26.512 -0.0679 -0.4160  0.3401
36618W        W79531  25.317  10.890   2.617 -0.0963 -0.0472 -0.0309
36619W        W79532  22.772  19.743   2.319 -0.1686 -0.1399  0.1182
36620W        W79533  32.160  21.440   6.786  0.0114  0.1077 -0.3174
36621W        W79534  25.361  28.409   2.001  0.2549 -0.3167  0.4311
36622W        W79535  30.815  27.832  26.922  0.0314 -0.0783 -0.0233
36623W        W79536  21.847  24.639  26.786 -0.0840  0.2052  0.1888
36624W        W79537  29.636  33.789  23.183 -0.0162  0.1320  0.0755
36625W        W79538  28.236  26.955   4.404 -0.1923 -0.1159 -0.2860
36626W        W79539  34.042  24.917   0.370  0.3279 -0.1706 -0.2873
36627W        W79540  22.652  21.142   2.636  0.1171  0.0053 -0.0652
36628W        W79541  23.993  24.937  22.836  0.2530  0.0403  0.0972
36629W        W79542  24.510  25.127   3.384  0.3652  0.1282  0.3013
36630W        W79543  26.082  18.895   1.862  0.0213 -0.0639 -0.1540
36631W        W79544  17.547  17.666   2.668  0.3028  0.0246  0.3307
36632W        W79545  27.944  29.282  22.852  0.1127  0.0844  0.2672
36633W        W79546  25.743  13.579  22.320  0.2725 -0.1122  0.2524
36634W        W79547  24.908  21.916   2.680  0.0091  0.1846 -0.2335
36635W        W79548  18.292  24.681   4.079 -0.2156 -0.1245  0.1357
36636W        W79549  28.258  32.192  28.973 -0.0666  0.0234 -0.1470
36637W        W79550  31.033  25.999  22.352  0.1905  0.0943  0.1694
36638W        W79551  31.564  20.366   3.774  0.1684  0.2901 -0.0019
36639W        W79552  24.360  22.143   8.736  0.0189 -0.2453 -0.1459
36640W        W79553  21.737  23.627   0.026  0.1789 -0.1718  0.2267
36641W        W79554   3.845  26.770   9.710 -0.0136  0.0776 -0.4709
36642W        W79555  19.722  23.894   0.609  0.0276  0.0603  0.2136
36643W        W79556  31.437  31.748   6.455 -0.2139  0.3600 -0.2361
36644W        W79557  20.240  16.522   3.422  0.2010 -0.1518  0.0962
36645W        W79558  17.049  26.686  28.960  0.1193  0.2125 -0.2139
36646W        W79559  28.028  24.566   5.329 -0.3224  0.2175  0.1353
36647W        W79560   0.855  24.162   0.654 -0.0625 -0.0742  0.1784
36648W        W79561  27.913  10.938  26.993 -0.1053 -0.1031 -0.0179
36649W        W79562  21.836  19.221   1.014  0.1975  0.0855 -0.0725
36650W        W79563   1.562   0.935   5.487 -0.0980 -0.2505 -0.0748
36651W        W79564  32.405  22.721  28.207  0.1862  0.4026  0.0421
36652W        W79565  30.967  16.512  29.706  0.0236  0.1184 -0.0513
36653W        W79566  27.155  25.598   7.145 -0.2470 -0.1169  0.3384
36654W        W79567   2.375  25.244  26.218 -0.1036  0.3314 -0.1632
36655W        W79568  31.736  27.699  23.560  0.1058 -0.0350 -0.2074
36656W        W79569   1.699  17.632  17.774 -0.1152  0.1390  0.1166
36657W        W79570  34.431  34.297   3.244  0.3704  0.0928 -0.3273
36658W        W79571  17.378  12.578  28.222  0.1949 -0.2436  0.1217
36659W        W79572  25.873  30.138   7.758  0.3680  0.1622  0.2214
36660W        W79573  25.010  21.255  17.774 -0.0175  0.0674  0.1077
36661W        W79574  22.780  22.135   5.256  0.0163 -0.1301 -0.0840
36662W        W79575  24.315  20.417   0.269  0.5598  0.0730  0.0648
36663W        W79576  27.638  24.315   0.687 -0.0668  0.0556 -0.0177
36664W        W79577  30.152  25.052  27.988  0.3090  0.0373 -0.1835
36665W        W79578  24.737   1.198   7.234 -0.0869  0.1365  0.0083
36666W        W79579  31.867   5.673   4.397  0.1259 -0.0782  0.3430
36667W        W79580  26.900   1.228   8.934 -0.2534 -0.0885  0.2215
36668W        W79581  29.977  26.402  25.365  0.1731 -0.2040  0.0413
36669W        W79582  33.605  18.358   7.689  0.0457  0.2015  0.3146
36670W        W79583  27.667  26.715  26.508 -0.3097  0.1597  0.0920
36671W        W79584  20.285  20.706   3.327 -0.1258  0.0794 -0.1238
36672W        W79585  30.673  27.094  24.864 -0.2450 -0.3724  0.0587
36673W        W79586  20.439  17.398   3.474  0.1347  0.0020 -0.1298
36674W        W79587  28.161  23.709   7.060  0.1493  0.1739  0.0450
36675W        W79588  22.613  23.300   6.051 -0.1671  0.2573 -0.4385
36676W        W79589  26.205  27.427   0.446  0.3395  0.3952 -0.1084
36677W        W79590  28.766  32.679  21.485  0.0395 -0.0198  0.5518
36678W        W79591  19.974  21.914   7.730  0.0357 -0.5211 -0.2095
36679W        W79592  24.644  26.448  22.134  0.0597  0.2475  0.5649
36680W        W79593  21.829  19.223   4.743  0.0862  0.0393  0.1507
36681W        W79594   2.718  21.189   2.960  0.1113 -0.0575 -0.0210
36682W        W79595  26.763  16.337   0.568 -0.0199 -0.2664  0.2187
36683W        W79596  22.395  23.928   5.096 -0.0882  0.1698  0.0674
36684W        W79597   1.040  31.290  27.964  0.0586 -0.1814  0.1733
36685W        W79598  30.096  26.725   9.324 -0.1259  0.0699 -0.1371
36686W        W79599   1.102  30.669  27.847  0.1336 -0.3778  0.1383
36687W        W79600   1.883  23.930   8.620  0.3528  0.1266 -0.0806
36688W        W79601  33.265  26.646  25.572 -0.1698 -0.1032 -0.0504
36689W        W79602   5.292  28.008   3.231 -0.1400 -0.0141 -0.0570
36690W        W79603  29.383  29.881   4.649 -0.0064 -0.1020  0.0726
36691W        W79604  32.135  23.376   3.912  0.1090  0.0828 -0.3792
36692W        W79605  18.776  33.582   1.754  0.0973  0.1118 -0.0209
36693W        W79606  18.482  24.102  24.062 -0.0747  0.1195 -0.2862
36694W        W79607  24.766  21.165   3.288 -0.1388 -0.1229 -0.2315
36695W        W79608  18.213  25.178  22.020 -0.1012 -0.1107 -0.1660
36696W        W79609  20.233  28.019   0.859 -0.3324  0.1253  0.0697
36697W        W79610  29.342   6.848   4.880 -0.2001 -0.1839 -0.0609
36698W        W79611   6.418  20.084   1.733  0.3541 -0.1079  0.1918
36699W        W79612  30.539  20.582   1.160 -0.1004  0.2617 -0.2032
36700W        W79613  26.365  18.579  26.956  0.2315  0.2538 -0.0428
36701W        W79614  21.315   0.662  27.423  0.3110 -0.1784 -0.0597
36702W        W79615   3.257  25.044   8.859 -0.1396  0.0010 -0.3652
36703W        W79616  29.073  26.166   1.474  0.1314  0.1388  0.0383
36704W        W79617   7.303  20.427  28.774  0.0517  0.1349 -0.1019
36705W        W79618  33.823  19.806   4.877  0.1557 -0.2469  0.0167
36706W        W79619  26.560  21.983   8.914 -0.0751  0.0452 -0.1193
36707W        W79620   6.193  19.001   0.520 -0.1111 -0.0434 -0.1552
36708W        W79621  32.461  19.691  22.027  0.3252 -0.0074 -0.1089
36709W        W79622   3.985  22.216   2.259 -0.0320  0.0956 -0.1244
36710W        W79623  27.716  17.016  27.776  0.0266 -0.2840  0.0932
36711W        W79624  30.755  20.717   5.183 -0.1352 -0.1632 -0.0439
36712W        W79625  26.504  20.670  23.707 -0.1610 -0.1793  0.0340
36713W        W79626  24.707  26.252   7.890 -0.2835  0.1116 -0.0505
36714W        W79627  27.770  22.830   3.235  0.1047 -0.1477 -0.1350
36715W        W79628  26.527  27.530   3.133  0.0541 -0.0631 -0.0306
36716W        W79629  24.893  15.839  24.356 -0.3035  0.1786  0.1715
36717W        W79630  24.302  27.754   4.663 -0.1299 -0.0237 -0.1289
36718W        W79631  21.064  32.633  28.785  0.2508  0.0195 -0.3620
36719W        W79632   2.822  22.465   5.164 -0.1313  0.1168 -0.2753
36720W        W79633  17.203  23.692  25.151 -0.0255 -0.0174 -0.1496
36721W        W79634   4.886  28.386  28.041 -0.4169 -0.1149 -0.4084
36722W        W79635  28.403  22.881   2.558 -0.1471 -0.1045 -0.0271
36723W        W79636  26.040  24.275   0.586 -0.2411  0.0861  0.0080
36724W        W79637  32.976  26.329  25.380 -0.4878  0.3790 -0.0428
36725W        W79638  32.022  32.737   9.825 -0.3330  0.1443  0.3561
36726W        W79639  19.179  16.904  22.804  0.0454 -0.0858  0.0706
36727W        W79640  31.053  30.488   3.491  0.0234  0.0633  0.1304
36728W        W79641  21.157  30.051   2.854 -0.1869 -0.1013 -0.1194
36729W        W79642  24.711  18.305   3.244  0.1843 -0.2330 -0.0018
36730W        W79643  27.912  29.471  29.710 -0.1144  0.2053 -0.0739
36731W        W79644  18.492  15.307   8.320  0.1372 -0.0338  0.1425
36732W        W79645   1.654  15.942   0.803  0.2563  0.2070  0.4163
36733W        W79646  26.339  30.673   8.090  0.1349 -0.0245 -0.0276
36734W        W79647   3.332  31.981   9.175 -0.0298  0.2560  0.3031
36735W        W79648  19.614  24.734  21.472  0.0585  0.1731  0.5825
36736W        W79649  24.538  24.648  23.042  0.4138  0.2016 -0.0040
36737W        W79650  23.551  23.874  27.088  0.2216 -0.0308  0.3336
36738W        W79651  31.952  17.220   2.748 -0.3470  0.0957 -0.4170
36739W        W79652  20.333  17.680   4.807  0.1407  0.0994 -0.1092
36740W        W79653  23.264  27.458  29.520 -0.2238 -0.1193 -0.2861
36741W        W79654   0.138  20.729   4.390 -0.0056  0.1409 -0.0208
36742W        W79655  19.154  19.323   2.650  0.2025 -0.0925  0.0148
36743W        W79656  28.193  20.232   2.631  0.0513  0.0548 -0.0873
36744W        W79657  33.393  24.755  26.239 -0.1873  0.1908 -0.0667
36745W        W79658  25.798  13.867  29.299 -0.0495  0.1446  0.0383
36746W        W79659  29.683  20.819   1.772  0.1521  0.0336 -0.1405
36747W        W79660  29.138  24.480  17.961  0.0980 -0.1361 -0.3112
36748W        W79661  20.589  15.417   1.187  0.0063 -0.0124  0.1391
36749W        W79662  12.498  23.615   7.916 -0.0648  0.2504  0.1406
36750W        W79663  22.587  15.450   8.253 -0.0964 -0.1179  0.1986
36751W        W79664  33.805  23.895  25.430 -0.0825  0.2894 -0.2351
36752W        W79665   0.383  14.282   4.507  0.1334  0.2494  0.4010
36753W        W79666  33.791   5.404   8.563 -0.4721  0.3407 -0.1778
36754W        W79667   7.214  23.487   3.183  0.0762 -0.2065 -0.0461
36755W        W79668   1.985  18.645   8.682  0.0437 -0.4429  0.1864
36756W        W79669  18.967  25.294   7.856 -0.0873 -0.0739 -0.2717
36757W        W79670  27.646  15.411   3.539 -0.1635 -0.0462  0.2687
36758W        W79671  24.353  28.504  28.998  0.4042 -0.1786 -0.1663
36759W        W79672  29.898  26.767  13.218  0.2256 -0.0296 -0.1195
36760W        W79673  27.806  18.933   8.665  0.1067  0.0355 -0.2484
36761W        W79674  25.890  16.160  26.772  0.1165 -0.3181 -0.0162
36762W        W79675  28.364  28.513   5.640  0.2678  0.1908  0.1088
36763W        W79676  18.748  21.573   0.263 -0.0452 -0.0005 -0.1018
36764W        W79677  32.317  15.877  23.096 -0.1525 -0.1150  0.1529
36765W        W79678  33.386  24.705   8.770 -0.2860 -0.1360 -0.1194
36766W        W79679  25.026  21.300   7.621  0.1900  0.0815  0.2068
36767W        W79680  26.500  24.742  20.177 -0.3055 -0.0222  0.0613
36768W        W79681  18.948  10.723  25.783 -0.1997 -0.1200  0.0446
36769W        W79682  31.492  23.849  22.396 -0.0205  0.1784  0.2530
36770W        W79683  21.171  18.694  28.426 -0.1347 -0.1014  0.2281
36771W        W79684  14.663  20.759   6.704  0.3584 -0.1219 -0.2810
36772W        W79685  22.937  26.879  29.753 -0.1457 -0.0643  0.1414
36773W        W79686  21.254  18.720  25.266  0.0776 -0.4565  0.1893
36774W        W79687  26.328  25.711   1.154  0.0264 -0.2915 -0.3263
36775W        W79688  18.299  20.136   1.379  0.5051 -0.0649 -0.3425
36776W        W79689  32.824  23.562   6.851 -0.0092  0.2062 -0.1575
36777W        W79690  27.571  23.347   6.798  0.0931  0.0383  0.0022
36778W        W79691  27.113  22.900   8.362  0.0688  0.1858 -0.1408
36779W        W79692  30.666  24.446   9.452 -0.1265 -0.1236 -0.0932
36780W        W79693  33.608   6.111  10.145  0.3741 -0.1981  0.1641
36781W        W79694  20.532  24.752   4.490  0.1243  0.1294  0.0212
36782W        W79695  17.791  30.668   3.990  0.0671 -0.0658  0.0513
36783W        W79696   5.144  29.326   1.903  0.3519  0.1782 -0.0848
36784W        W79697   0.140  18.675   6.127  0.1349  0.1949  0.0662
36785W        W79698  23.594  16.886   7.974 -0.1956  0.1415  0.1620
36786W        W79699  23.139   4.320   2.251  0.4277 -0.4942 -0.3405
36787W        W79700  16.310  25.959   8.231 -0.2378  0.0377  0.0841
36788W        W79701  26.817  25.211   9.262  0.2490 -0.1786  0.1285
36789W        W79702  33.292  28.317   9.871  0.1473  0.1231 -0.1753
36790W        W79703  15.891  31.295   8.623  0.0744  0.1019  0.1326
36791W        W79704   0.117  15.445   9.066  0.0091 -0.3035  0.1347
36792W        W79705  17.285   5.981   3.407 -0.1566 -0.0150  0.1604
36793W        W79706  31.936  34.096   6.927 -0.1819  0.2349  0.1095
36794W        W79707  22.600  14.375  26.979 -0.2108  0.1525 -0.2874
36795W        W79708  19.784  21.831   3.331 -0.1927  0.1166  0.2055
36796W        W79709  33.009  18.815   3.605  0.2814 -0.1864 -0.3999
36797W        W79710  22.917  16.439   7.280 -0.0466  0.0647  0.3084
36798W        W79711  13.780  16.635  29.034  0.1476  0.0512 -0.1037
36799W        W79712  21.277  31.568  26.437  0.0549  0.4937 -0.0727
36800W        W79713   7.261  22.094   6.439  0.3433 -0.0987 -0.0846
36801W        W79714  30.888  22.132  28.197  0.1512 -0.1254 -0.1964
36802W        W79715  10.418  23.260   3.298  0.0122  0.1388  0.0684
36803W        W79716  33.225  22.367   2.934  0.1671 -0.0195  0.2004
36804W        W79717  27.317  27.456   8.892  0.1204 -0.2023 -0.0341
36805W        W79718  23.981  25.095   1.397 -0.0638 -0.0632  0.1424
36806W        W79719  21.957  13.891   6.727  0.2329  0.1782 -0.2365
36807W        W79720  24.018  22.273   7.226  0.0248  0.1921  0.0586
36808W        W79721  25.554  11.344   5.059 -0.0947  0.1507  0.2136
36809W        W79722  22.823  21.892  29.123 -0.2315  0.1280 -0.0831
36810W        W79723  25.183  27.571   7.984  0.3409  0.1172  0.0973
36811W        W79724  27.763  22.822   5.396 -0.2038 -0.1021  0.1385
36812W        W79725   1.800  21.468   1.946 -0.1061  0.2112 -0.3205
36813W        W79726  20.973  27.117  25.735  0.0175  0.2360 -0.0438
36814W        W79727  29.619  20.808   1.276 -0.2665 -0.1718 -0.0390
36815W        W79728  31.521  17.557   1.109  0.1986 -0.1526 -0.0588
36816W        W79729   0.034  24.588   5.986  0.1193 -0.0996 -0.0068
36817W        W79730  28.466  23.456  29.528  0.1023 -0.0886 -0.4093
36818W        W79731   2.391  20.614   3.363  0.1177 -0.0398 -0.0399
36819W        W79732  30.625  25.249   9.891  0.0513  0.3051 -0.1791
36820W        W79733  33.583   8.817   7.070  0.1134 -0.4352 -0.0403
36821W        W79734  33.304  29.385  21.993 -0.0378 -0.1022  0.2054
36822W        W79735  32.140  22.513  26.117  0.0231 -0.1791  0.0357
36823W        W79736  28.502  24.321   4.560  0.2366 -0.1503 -0.0118
36824W        W79737  31.543  25.648   7.413 -0.0537 -0.2623 -0.1968
36825W        W79738  33.199  24.884   4.982  0.1267  0.1144 -0.3825
36826W        W79739  19.967  25.246   3.644  0.2143  0.2345 -0.2669
36827W        W79740  26.150  22.207   1.014 -0.1991  0.1990 -0.0668
36828W        W79741   1.143  13.779  21.379  0.0684 -0.3511 -0.1181
36829W        W79742  15.791  20.949   7.112  0.1751  0.1072  0.1080
36830W        W79743   0.156   4.723  23.221 -0.0070 -0.0179 -0.0825
36831W        W79744  18.139  21.114   7.730  0.0889 -0.1843  0.3045
36832W        W79745  32.525  24.852   5.774 -0.0322  0.0925  0.0563
36833W        W79746  28.619  13.280   9.685 -0.1318 -0.0340  0.1155
36834W        W79747  25.428  23.586  24.720  0.1136  0.0172  0.0670
36835W        W79748   4.531  29.796   2.125 -0.0395 -0.2681 -0.1577
36836W        W79749   5.135  25.048   5.301 -0.0908  0.2110 -0.2142
36837W        W79750  23.444  24.912   6.614 -0.0884  0.1227 -0.2563
36838W        W79751  26.647  23.994   7.604  0.0401  0.0658  0.0403
36839W        W79752  28.674   0.190   7.056 -0.1781  0.0312 -0.0935
36840W        W79753  22.209  29.556   8.501 -0.2256  0.0588 -0.2720
36841W        W79754  32.927  23.675   3.167  0.1165  0.1058 -0.3514
36842W        W79755   2.331  23.767   1.287  0.1894 -0.1801  0.0734
36843W        W79756  10.865  28.671   4.989 -0.0914 -0.0136 -0.0453
36844W        W79757  20.774  17.285   2.535  0.2503  0.2045  0.0501
36845W        W79758  32.310  29.779   3.398 -0.3237 -0.3010 -0.3259
36846W        W79759  24.253  26.326   5.816 -0.0854  0.0135  0.3821
36847W        W79760  30.059  31.659   8.773  0.0496 -0.1410 -0.0168
36848W        W79761  30.477  18.916   9.345 -0.0666 -0.2167  0.2147
36849W        W79762  34.474  24.965   5.615 -0.0197 -0.1081  0.1423
36850W        W79763   3.910  26.348   3.059 -0.1519  0.0256 -0.3263
36851W        W79764   5.767  22.854   2.688 -0.1013  0.0226 -0.0930
36852W        W79765  30.478  22.992   6.546 -0.1979 -0.1229 -0.0251
36853W        W79766  34.029  23.357   7.891  0.0996  0.1205 -0.2544
36854W        W79767  21.284  16.049  24.190  0.1357 -0.0657  0.0146
36855W        W79768  25.667  31.214   9.411 -0.1674 -0.2091 -0.0054
36856W        W79769  27.417  23.385   8.306  0.1773  0.0570  0.3346
36857W        W79770  29.513  26.143  26.596  0.1627 -0.1793 -0.0995
36858W        W79771  23.686  21.585   4.173 -0.0366 -0.2796  0.1940
36859W        W79772  27.896  24.744   6.335 -0.0347  0.1339 -0.0125
36860W        W79773  28.946  30.270   7.810  0.1206  0.2349 -0.3110
36861W        W79774  23.304  17.245   3.790  0.0015 -0.0990 -0.2628
36862W        W79775  20.523  17.449   2.089 -0.1380 -0.1084 -0.2114
36863W        W79776  25.452  27.982   4.444 -0.0255  0.2441  0.0023
36864W        W79777  19.606  22.429  29.522  0.1069 -0.0040 -0.0233
36865W        W79778  20.428  21.502   8.418 -0.1265  0.1409 -0.0058
36866W        W79779  25.806  31.529   3.664  0.1447 -0.0846 -0.0816
36867W        W79780   1.043  20.544   7.274  0.3094  0.3249  0.0810
36868W        W79781  24.134  10.955   9.363 -0.0324 -0.3542 -0.3025
36869W        W79782  23.538  24.985  22.270 -0.2703  0.1352  0.0460
36870W        W79783  24.332  31.281   9.652 -0.0856  0.0075 -0.0152
36871W        W79784  31.230  23.859   4.762 -0.0245  0.1703 -0.3717
36872W        W79785  21.609  16.343  19.106  0.2405  0.0510  0.0513
36873W        W79786  19.190  17.499   8.345  0.1334  0.1448 -0.2300
36874W        W79787  23.394  33.678   3.253  0.4742  0.0851 -0.1006
36875W        W79788  22.940   6.067   3.461  0.2255  0.2092 -0.3072
36876W        W79789  15.140  27.768   2.287  0.1629 -0.2766 -0.2024
36877W        W79790  19.075  19.792  25.675 -0.1096  0.0200  0.0800
36878W        W79791  14.534  14.252   4.712  0.0732  0.0170 -0.2763
36879W        W79792  15.769  22.238   4.972  0.0967  0.1904 -0.0351
36880W        W79793  19.522  15.520   0.053 -0.1084 -0.2134  0.0384
36881W        W79794  25.336   1.033  29.453 -0.0305  0.1582  0.1769
36882W        W79795  25.863  18.341   3.456  0.0439 -0.2130 -0.2058
36883W        W79796  33.503  27.450  28.223 -0.1523  0.0296  0.0226
36884W        W79797  29.843  29.586   5.484 -0.0138  0.2886 -0.1200
36885W        W79798  23.841   1.489   3.835  0.2721 -0.1179  0.2795
36886W        W79799  29.811  27.690   6.072  0.2303 -0.0321 -0.1346
36887W        W79800  21.878  16.391   6.303  0.1071  0.2651 -0.1190
36888W        W79801  25.239  24.468   6.690  0.1045  0.0780  0.1163
36889W        W79802  24.943  18.136   1.868 -0.0921 -0.1796  0.1894
36890W        W79803  31.718  26.099   8.259 -0.1936 -0.4398  0.2753
36891W        W79804   2.056   7.133   4.021 -0.4978 -0.3068 -0.2276
36892W        W79805  26.092  26.957   8.220 -0.3275 -0.0019 -0.0243
36893W        W79806  30.239  18.855   7.415 -0.1987 -0.2376 -0.1277
36894W        W79807  28.674  14.484   3.681  0.0616  0.2034  0.0782
36895W        W79808  22.566  15.559  29.285 -0.3257  0.1308 -0.2910
36896W        W79809  29.472  20.568   6.160 -0.2035  0.2055 -0.4185
36897W        W79810  18.046  12.871   0.768  0.1297 -0.2555  0.0566
36898W        W79811  21.810  29.321   5.517 -0.0538 -0.1050  0.0687
36899W        W79812  17.435  22.665   3.166  0.2875  0.1377 -0.0984
36900W        W79813  12.403  23.730   7.422 -0.3538  0.0997  0.1694
36901W        W79814  21.739  15.971  23.170 -0.0441  0.2252  0.0376
36902W        W79815  19.873  17.301  28.974  0.1287  0.4340  0.1884
36903W        W79816  33.594  17.401   9.206 -0.2384 -0.0120 -0.3147
36904W        W79817   0.017  23.048   6.615  0.2314  0.0573 -0.1058
36905W        W79818  17.367  22.546   3.660 -0.2346 -0.3432 -0.0207
36906W        W79819   6.484  29.567  10.664 -0.2611 -0.2567  0.0361
36907W        W79820  25.234  22.852   6.142  0.1321 -0.3404 -0.0553
36908W        W79821  24.830  24.383   7.164  0.0846 -0.1939 -0.0044
36909W        W79822  27.851  23.144   1.349 -0.0552  0.0538  0.2143
36910W        W79823  22.781  24.878   7.641 -0.0327 -0.1023  0.2360
36911W        W79824   3.844  26.531   3.826 -0.2215 -0.2603 -0.0244
36912W        W79825   6.124  28.579   4.716 -0.2634 -0.4054  0.4122
36913W        W79826  20.381  14.047   7.087  0.1546 -0.1658  0.1951
36914W        W79827  30.965  20.088   1.499  0.1768 -0.1094 -0.1864
36915W        W79828  24.501  21.175   7.693  0.1190  0.0852 -0.1608
36916W        W79829  15.248  29.158   2.078  0.0525 -0.0077  0.1283
36917W        W79830   3.243  23.178  27.976  0.0435 -0.0725 -0.1960
36918W        W79831  30.912  28.963   3.874  0.0518  0.1795 -0.0185
36919W        W79832  27.607  31.049   8.640 -0.1950  0.0553  0.2865
36920W        W79833   2.791  15.859  28.762 -0.0177  0.2084  0.1754
36921W        W79834  28.734  13.970   3.626 -0.0609  0.1082 -0.0693
36922W        W79835  20.806  24.155  25.890 -0.0843  0.3161 -0.0218
36923W        W79836   0.690  25.827   2.880  0.1020 -0.1230 -0.0897
36924W        W79837  23.144  18.256   2.001 -0.1136  0.1456 -0.4007
36925W        W79838   9.617  20.651   6.093  0.0258  0.1237  0.1255
36926W        W79839   0.659  13.186   6.439  0.0106  0.1500 -0.0301
36927W        W79840  21.485  23.162   0.655  0.0645 -0.2482 -0.1970
36928W        W79841  32.685  29.814   9.635 -0.3960  0.0480  0.3738
36929W        W79842   2.866   3.905   7.504  0.0383  0.2451  0.1061
36930W        W79843  32.089  27.614   7.386 -0.3681  0.0895 -0.1014
36931W        W79844  20.293  20.537   5.876 -0.2072 -0.1095  0.0915
36932W        W79845  25.133  13.310  10.015 -0.0348  0.2827 -0.1554
36933W        W79846  22.335  25.674   7.682 -0.3799 -0.2110 -0.0408
36934W        W79847   2.152  26.343  23.022 -0.0222  0.4059 -0.3231
36935W        W79848  26.938  24.442   6.118 -0.1193 -0.1031  0.0509
36936W        W79849  32.759  21.103   9.580 -0.1952  0.4228  0.2330
36937W        W79850  28.489  13.675   8.324  0.1427  0.0120 -0.0159
36938W        W79851  24.830  22.217   3.525  0.3045  0.1418  0.1894
36939W        W79852   3.859  25.666   4.652 -0.4665  0.1539 -0.2010
36940W        W79853  33.560  17.841   6.149  0.1422  0.1596 -0.0536
36941W        W79854  14.783  17.204  28.340  0.1653  0.1228 -0.0303
36942W        W79855  30.677  20.207  28.699 -0.0825  0.0373 -0.1666
36943W        W79856  23.748  25.253   6.369 -0.0630 -0.1162 -0.0563
36944W        W79857  26.655  19.259   4.701  0.0231  0.3208 -0.3942
36945W        W79858  27.337  25.169   1.611  0.1602  0.1676  0.2748
36946W        W79859   7.707  22.205   9.601  0.0829  0.1210  0.0439
36947W        W79860  31.150  30.846  10.153 -0.0863 -0.1992  0.2531
36948W        W79861  28.087  26.135   7.110  0.2339 -0.4613  0.0076
36949W        W79862  25.508  18.765   5.394 -0.2643 -0.4506  0.2568
36950W        W79863  21.499   0.879   2.274 -0.1228  0.3091 -0.0277
36951W        W79864  30.621  16.073   4.468 -0.0528  0.0209 -0.1946
36952W        W79865  19.752  16.684   2.053 -0.0418 -0.0610 -0.2168
36953W        W79866  22.655  20.192   3.886 -0.1610  0.1292 -0.3448
36954W        W79867  31.304  23.464   4.465 -0.0171  0.1888  0.1363
36955W        W79868  21.983  15.876   6.221 -0.0218 -0.2032  0.2528
36956W        W79869  24.389  21.510  26.029  0.2913 -0.1329 -0.0792
36957W        W79870  20.945  21.697   2.053 -0.0254  0.0667 -0.1410
36958W        W79871  21.747  23.844   7.806  0.1744  0.2138 -0.1456
36959W        W79872  27.610  19.811   4.350 -0.0193 -0.0374  0.0345
36960W        W79873   0.642  19.353   7.168 -0.5842 -0.0977  0.0467
36961W        W79874  32.453  19.763   0.917  0.0660 -0.1414 -0.1018
36962W        W79875  24.669  23.854   8.967  0.1267 -0.0028  0.1853
36963W        W79876  24.776  21.300   8.214  0.0283 -0.1355  0.3178
36964W        W79877  29.411  28.216  28.390 -0.1121 -0.1054  0.2272
36965W        W79878  26.900  28.157   0.441  0.2136 -0.3008 -0.0711
36966W        W79879  24.217  29.686  22.409  0.0667 -0.0768  0.0418
36967W        W79880   1.688  23.974   3.581  0.2299 -0.3102  0.2029
36968W        W79881  28.763  21.199   4.816 -0.2055  0.1201 -0.2224
36969W        W79882  26.385  20.402   7.838  0.0731 -0.4429 -0.0998
36970W        W79883  26.864  20.410   9.258  0.4744 -0.0667 -0.0708
36971W        W79884  29.168   1.135   5.016 -0.0357 -0.3121  0.1262
36972W        W79885   1.617  22.571   3.096  0.1089  0.2970  0.0102
36973W        W79886  28.431  25.070  29.464  0.0673  0.3605  0.0250
36974W        W79887  32.528  18.612   9.366 -0.0732 -0.2474  0.3487
36975W        W79888  27.186  25.913   8.698  0.3175 -0.1901  0.0035
36976W        W79889  32.485  27.794   3.153  0.1211  0.1086  0.0105
36977W        W79890  21.852  19.485   7.035  0.1087  0.3341 -0.0965
36978W        W79891  24.746  25.671   6.027 -0.2470  0.1793 -0.0465
36979W        W79892   3.588  23.381   5.813  0.0150 -0.0061  0.1590
36980W        W79893  33.379   1.017   8.563 -0.2445  0.1383  0.1350
36981W        W79894  24.493  25.592   7.748  0.1592  0.1939  0.1735
36982W        W79895  24.931  18.084   8.784  0.0740 -0.0187 -0.1277
36983W        W79896  23.778  22.881  29.662  0.0723 -0.1975 -0.1355
36984W        W79897  10.464  13.299   2.804  0.1660 -0.0029  0.2405
36985W        W79898  32.084  31.667   1.250  0.0009 -0.1582  0.2457
36986W        W79899  29.713  19.263  23.287 -0.1316 -0.1726  0.1810
36987W        W79900  28.597  26.904  28.483 -0.2747  0.0899 -0.0304
36988W        W79901  26.276  24.736   4.514  0.2218  0.0978  0.4656
36989W        W79902  31.982  24.624   3.463  0.2255 -0.2924  0.0094
36990W        W79903  29.747  28.991   2.053  0.0626  0.1115  0.0931
36991W        W79904  30.536   0.276   8.298 -0.2535  0.2824 -0.0669
36992W        W79905  16.439  29.694  24.800 -0.1360  0.0415 -0.1917
36993W        W79906  16.690  33.412   6.192 -0.4472 -0.0172  0.1048
36994W        W79907  28.364  26.110   3.210  0.2463  0.1597 -0.4034
36995W        W79908  21.498  20.912   1.665  0.1088  0.0859  0.1364
36996W        W79909  30.259  20.815   5.034 -0.0136 -0.0047 -0.0724
36997W        W79910  29.267  22.382  26.081 -0.1412  0.2686  0.2532
36998W        W79911  31.330  27.586   7.216  0.1526 -0.1014  0.1287
36999W        W79912   0.432  30.948  25.413 -0.3304 -0.0626 -0.0598
37000W        W79913  24.220  29.183   2.520  0.0046  0.1078  0.0057
37001W        W79914  29.242  19.812   3.606 -0.3047  0.2977 -0.2161
37002W        W79915  24.309  32.501   8.621 -0.0114 -0.0987 -0.0468
37003W        W79916   5.414  16.824  28.800 -0.2841  0.4511  0.1763
37004W        W79917  30.874  10.505  22.857  0.2303 -0.3195  0.1047
37005W        W79918  25.251   1.364   8.265 -0.1188  0.0807  0.0794
37006W        W79919   0.931  26.633   2.201  0.2125  0.2573  0.0701
37007W        W79920  25.873  17.795   7.262  0.2569  0.1019  0.0123
37008W        W79921  19.926  23.399   2.052 -0.0363  0.3643 -0.0623
37009W        W79922   1.763  12.291   5.888  0.0945  0.1310  0.1000
37010W        W79923  23.113  24.013   5.929 -0.3998  0.0372  0.0205
37011W        W79924  19.707  18.819   7.912  0.0253 -0.1358  0.1054
37012W        W79925  27.625  23.147   7.493 -0.2884  0.1267  0.3604
37013W        W79926   3.406  25.623   2.609  0.1534 -0.5827  0.2778
37014W        W79927  33.701  27.676   7.678 -0.0069 -0.3202 -0.0880
37015W        W79928   1.120  13.894   6.322 -0.2293  0.0600 -0.3811
37016W        W79929  27.440  20.035  29.137  0.2906  0.0088 -0.1532
37017W        W79930  23.664  14.520   3.337 -0.0165  0.1780 -0.0551
37018W        W79931  31.078  23.415   9.134 -0.2806  0.3951 -0.2547
37019W        W79932  29.565  23.427   9.403 -0.0983  0.0697 -0.0936
37020W        W79933  34.252   0.925   5.805 -0.0286  0.3602 -0.3555
37021W        W79934  33.132  18.881  20.271  0.4515  0.0880  0.0456
37022W        W79935  14.656  31.664  27.839  0.3150 -0.2960  0.1743
37023W        W79936   1.335  28.381   8.863 -0.0989 -0.1785 -0.2044
37024W        W79937  25.401  26.447   8.326  0.2433 -0.0231 -0.1657
37025W        W79938  22.838  26.845   4.887 -0.1685 -0.2642  0.1344
37026W        W79939  19.271  15.056   6.002  0.1420  0.3159 -0.0227
37027W        W79940  16.082  16.110   6.873  0.2001  0.2479  0.1845
37028W        W79941  31.390  27.383   7.952 -0.0285 -0.0544 -0.1407
37029W        W79942  26.352  27.557   2.273 -0.0607 -0.1774 -0.1098
37030W        W79943  21.527  12.462   2.797  0.1628 -0.0462 -0.2640
37031W        W79944  23.388  24.850   3.752  0.0273  0.1236  0.1850
37032W        W79945  27.647  15.413   4.404 -0.1434  0.1412 -0.2576
37033W        W79946  34.145  23.616  25.637  0.2098 -0.1060 -0.2168
37034W        W79947  33.207  27.740   1.248 -0.2052 -0.0431  0.0422
37035W        W79948  28.831  28.306   5.768 -0.1648  0.2947 -0.0117
37036W        W79949  28.220  27.705   8.028  0.2618 -0.0472 -0.3127
37037W        W79950  19.030  19.637   2.994  0.2225 -0.1350  0.0938
37038W        W79951   1.927  19.356   9.845 -0.0568  0.0549  0.2249
37039W        W79952  32.172  22.565   4.204  0.1370  0.0913  0.0551
37040W        W79953  26.160  25.209   8.286 -0.2161  0.1280 -0.1902
37041W        W79954  30.101  24.699   4.272 -0.0252  0.2126  0.2062
37042W        W79955  22.523  20.759   7.797  0.0411  0.2685  0.0508
37043W        W79956  30.980  25.129   4.977  0.1239 -0.1226  0.0070
37044W        W79957  25.831  27.980   8.841 -0.0465 -0.0413 -0.2918
37045W        W79958  25.140  20.792  29.158 -0.2773  0.2080 -0.2199
37046W        W79959  22.420  33.688   4.943  0.2499  0.1269  0.1690
37047W        W79960  21.195  16.996  27.735  0.1928 -0.1375 -0.2005
37048W        W79961  33.337  19.242   7.308  0.0135 -0.4776  0.2040
37049W        W79962  29.690  26.189   9.446 -0.2858  0.0658  0.0586
37050W        W79963   3.159   2.861   9.123  0.1756  0.2418 -0.0095
37051W        W79964  26.076  26.215   4.500  0.0757 -0.1404 -0.0965
37052W        W79965  23.132  26.596   3.036 -0.1312 -0.0626  0.0881
37053W        W79966  29.392  24.474   6.830 -0.2568  0.1860  0.2100
37054W        W79967  27.337   3.046   9.672  0.1028  0.1492 -0.3780
37055W        W79968  33.185  13.457   5.599  0.2672  0.3156  0.2586
37056W        W79969   3.226  26.179   9.810 -0.3472 -0.1612  0.1358
37057W        W79970  22.109  25.279   1.654 -0.0558 -0.2977  0.2164
37058W        W79971  28.164  20.253   9.244  0.0719  0.1524 -0.0481
37059W        W79972  20.230  23.141  21.808  0.4909 -0.0044  0.1659
37060W        W79973   1.460  22.596   4.589 -0.0005  0.2727 -0.0765
37061W        W79974  27.803  26.750   4.404  0.0674 -0.6166 -0.1619
37062W        W79975  18.319  19.607   3.019  0.1287  0.1962  0.0083
37063W        W79976   9.937  13.304  25.245 -0.1392 -0.2113 -0.2037
37064W        W79977  27.503  26.885   2.443  0.0532 -0.2372  0.2044
37065W        W79978  21.900  17.253  20.916 -0.1181 -0.1207 -0.0398
37066W        W79979  16.593  19.157  24.000  0.1364  0.0873  0.3770
37067W        W79980  28.993  28.890  28.701 -0.1455 -0.1474 -0.0099
37068W        W79981  24.072  19.918   0.001 -0.0423  0.0503 -0.2313
37069W        W79982  19.588  24.606  26.605  0.0073  0.0948 -0.2397
37070W        W79983  26.848  23.509   7.756 -0.0782 -0.1061  0.0464
37071W        W79984  30.847  22.135   6.395 -0.3217  0.1385  0.0194
37072W        W79985  19.014  19.847   3.565 -0.0139 -0.1973 -0.0010
37073W        W79986  32.282  26.419  27.470  0.0896  0.0258 -0.1195
37074W        W79987   4.621  19.030   7.251 -0.0289 -0.2291  0.0958
37075W        W79988   7.500  18.552   2.405  0.0647 -0.3098 -0.0399
37076W        W79989  22.212  24.014   1.954 -0.1554 -0.1071  0.0273
37077W        W79990  29.816   1.058   4.883 -0.1678 -0.2674 -0.0859
37078W        W79991  29.813  22.802   5.094  0.2362  0.1370  0.0386
37079W        W79992  20.889  10.680   2.894 -0.2411 -0.0813 -0.1236
37080W        W79993  28.500  31.726   2.247 -0.0939 -0.4099 -0.4410
37081W        W79994  30.086  32.642   6.016  0.1882 -0.0348 -0.1837
37082W        W79995  14.214  22.326  18.059  0.1404  0.1351  0.1491
37083W        W79996  21.159  31.476  23.392  0.2826  0.1667 -0.1428
37084W        W79997  16.438  30.558   7.185  0.1094 -0.3556  0.0090
37085W        W79998  24.083   9.686   7.384 -0.1451  0.0526  0.1063
37086W        W79999  22.659  23.076   4.305  0.0461  0.1738  0.2490
37087W        W80000  24.926  28.046   5.832 -0.0207  0.2469 -0.0452
37088W        W80001  30.082  30.845   6.857  0.0918 -0.2055  0.2994
37089W        W80002  22.400  29.849   8.958 -0.2052  0.3684 -0.2878
37090W        W80003  24.314  20.446  28.591 -0.1083  0.0138 -0.2989
37091W        W80004  19.464   1.604   1.824 -0.0681 -0.0752 -0.2884
37092W        W80005   6.039  19.031   4.867  0.1455  0.0641 -0.1641
37093W        W80006  28.879  22.043   4.025 -0.1077 -0.0503 -0.0733
37094W        W80007  21.773  26.669   5.560 -0.0624 -0.2868 -0.3380
37095W        W80008  30.092   6.052   5.021  0.1859  0.0270 -0.0873
37096W        W80009  23.366   3.524   5.145  0.3461  0.2822 -0.2977
37097W        W80010  15.246  20.316   0.136  0.3717 -0.3222 -0.1221
37098W        W80011  23.465  19.390  22.929 -0.1025 -0.2720  0.2013
37099W        W80012  29.388  23.568   0.202  0.1189  0.1214 -0.0771
37100W        W80013  31.131  31.604  28.286  0.0031 -0.4409 -0.2578
37101W        W80014  21.685  15.206   1.033 -0.1269 -0.0485 -0.1820
37102W        W80015  31.108  28.335   5.923 -0.5138 -0.0687  0.1669
37103W        W80016  21.446  22.653   2.542  0.3194  0.0068 -0.2101
37104W        W80017  23.672  19.205   5.346  0.0479 -0.1919  0.1195
37105W        W80018  31.251  24.501   6.622  0.0217  0.1010  0.2210
37106W        W80019  28.467   0.639   6.635 -0.1411  0.1278 -0.0611
37107W        W80020  33.612  17.253   6.215  0.0345  0.0346  0.2656
37108W        W80021  21.790  26.990   6.416 -0.0602  0.0749 -0.0502
37109W        W80022  28.662  15.954   7.807 -0.1627  0.2087  0.3127
37110W        W80023   4.259  13.704   6.399 -0.0646  0.0469  0.0505
37111W        W80024  22.486  18.699  20.056 -0.0465  0.3652  0.2883
37112W        W80025  26.376   1.338   7.611  0.1503  0.2702  0.0540
37113W        W80026  31.610  28.322   4.692 -0.0406  0.0865 -0.0984
37114W        W80027  30.273  23.533   8.905  0.0952 -0.0977 -0.1821
37115W        W80028  26.848  28.887  24.142 -0.0504 -0.0011  0.0186
37116W        W80029  25.821  21.612   3.688 -0.0232 -0.0802 -0.2411
37117W        W80030  30.225  19.433   5.508  0.2092 -0.2176 -0.2094
37118W        W80031  23.249  31.389   7.241  0.0109  0.0290 -0.1554
37119W        W80032  18.747  25.751   9.069  0.2458  0.0927  0.0577
37120W        W80033  23.119  30.822   2.279  0.0001  0.0283 -0.0249
37121W        W80034   2.003   2.677   2.224 -0.0726 -0.0435  0.0975
37122W        W80035  16.854  24.688  24.307  0.3102  0.0590 -0.3023
37123W        W80036  19.904  16.427   0.191 -0.1212 -0.1761  0.0025
37124W        W80037  27.501  24.523   6.451  0.0374 -0.2362  0.1145
37125W        W80038  25.254  32.060   1.155  0.2148  0.1652  0.0241
37126W        W80039  21.371  30.654   3.589  0.1300  0.0034  0.0535
37127W        W80040  32.836  16.117  26.316  0.0404  0.1572  0.3557
37128W        W80041  31.082  19.864   5.530 -0.0492 -0.2259 -0.3168
37129W        W80042  34.176  21.900   7.423  0.0472 -0.3660  0.0532
37130W        W80043  22.604  28.479   2.301 -0.0767 -0.1095  0.2865
37131W        W80044   4.472  30.988  10.010 -0.2578  0.0299 -0.1924
37132W        W80045  27.267  15.456   6.116 -0.0267 -0.0880 -0.0795
37133W        W80046  30.666   7.716   5.399 -0.2238 -0.0115 -0.0524
37134W        W80047  31.284  26.573  10.247 -0.1135 -0.0205 -0.3328
37135W        W80048  21.116  18.390   5.528  0.2181 -0.0548  0.1121
37136W        W80049  30.994  25.616   7.260 -0.3662  0.3826  0.0477
37137W        W80050   5.568   0.507   2.336  0.5873 -0.1504  0.2225
37138W        W80051  27.796  33.199  10.274  0.0864  0.0528 -0.2654
37139W        W80052  33.930  22.526   1.040 -0.1272  0.0156  0.1831
37140W        W80053  31.854  27.717   8.230  0.1831  0.0681 -0.0829
37141W        W80054  27.638  25.723   8.576  0.3030  0.0627 -0.1152
37142W        W80055  25.756  18.365   5.777 -0.3207 -0.0890  0.0729
37143W        W80056  23.373  18.949   2.463  0.0233  0.1959 -0.2886
37144W        W80057  33.070  12.096   5.478 -0.0899  0.2025  0.1167
37145W        W80058  16.133  20.759  22.683 -0.3751 -0.1758 -0.0153
37146W        W80059  30.702  20.767   1.971 -0.0835  0.0076 -0.2156
37147W        W80060  33.571  19.416   4.753  0.0576 -0.0690 -0.4099
37148W        W80061  29.400  27.053   7.998  0.0390  0.0924 -0.4066
37149W        W80062  29.718  24.318   5.957  0.1406  0.1938  0.0737
37150W        W80063  32.435  13.716   4.522  0.1530 -0.0460  0.2986
37151W        W80064  12.515   0.605   7.005  0.3034 -0.2821  0.1377
37152W        W80065  19.194  28.177   3.464 -0.3435 -0.4028 -0.1011
37153W        W80066  28.831  31.017   9.906 -0.1126 -0.0311 -0.0781
37154W        W80067  25.849  22.421   3.571  0.3831  0.3058  0.1746
37155W        W80068  28.750  16.353   5.676 -0.3096  0.3459  0.3109
37156W        W80069  27.802  15.652   9.373  0.2649  0.3076 -0.0691
37157W        W80070  19.699  31.204   7.250 -0.1433  0.4520  0.1495
37158W        W80071  16.418  30.941  16.784 -0.0954 -0.1052  0.1066
37159W        W80072  30.878  19.549   8.304  0.0322 -0.1466  0.1921
37160W        W80073  21.433  28.455   4.415 -0.0338  0.2144  0.1600
37161W        W80074  18.598  25.790   4.823  0.0181 -0.0767 -0.1595
37162W        W80075  34.116  16.300   7.080  0.2651 -0.0756 -0.0982
37163W        W80076  22.821  27.438   2.170  0.0142 -0.0238  0.2300
37164W        W80077  24.288  21.655  20.346 -0.1352 -0.0953 -0.0009
37165W        W80078   1.606  34.047   8.545  0.2098  0.2741  0.2396
37166W        W80079  34.017  19.702  20.739 -0.2888 -0.2820 -0.2642
37167W        W80080  33.073  31.348   8.224  0.2304  0.2204  0.2470
37168W        W80081  26.966  29.089   2.753  0.1659  0.0781 -0.0248
37169W        W80082  27.649  25.669   7.904 -0.1273 -0.0268 -0.1184
37170W        W80083  27.566  13.272  29.688 -0.1873  0.3063 -0.2191
37171W        W80084   6.975  31.772   3.355 -0.0071  0.1946  0.0910
37172W        W80085  32.505  21.165   1.318  0.2021 -0.1017  0.2157
37173W        W80086  31.683  25.905  21.674  0.0780  0.1386  0.5691
37174W        W80087  25.087  17.204   0.815  0.2400  0.0904 -0.2718
37175W        W80088  15.305  27.674   6.322 -0.3396  0.1219  0.0373
37176W        W80089  29.008  23.493  29.672  0.1088 -0.2290  0.2660
37177W        W80090  25.042  22.951   3.426 -0.2837  0.0740 -0.2561
37178W        W80091  27.483  22.739   6.591 -0.2613 -0.1485 -0.1131
37179W        W80092  26.710  14.503  25.592 -0.1100 -0.0157  0.2491
37180W        W80093  29.587  24.391   7.370 -0.1727  0.1100  0.1502
37181W        W80094   0.479  23.243   3.751 -0.2607  0.4289  0.0671
37182W        W80095  27.808  25.106   5.958 -0.0260 -0.0710  0.1225
37183W        W80096   8.332  28.644   5.252  0.1088  0.0416  0.2759
37184W        W80097  15.795  17.175  25.473  0.0506 -0.2600  0.1189
37185W        W80098  26.557  17.225   6.367  0.3744 -0.0359  0.3303
37186W        W80099  23.994   3.992   8.642  0.1402  0.1506  0.1802
37187W        W80100   5.251  20.459   1.348  0.3738  0.2313 -0.1299
37188W        W80101  18.593  14.488   7.645  0.1513  0.1162  0.0483
37189W        W80102   8.368  31.161   3.145  0.0908  0.2184 -0.2257
37190W        W80103  29.127  12.476   8.089  0.1176 -0.3722  0.0511
37191W        W80104  30.832  22.489   2.053 -0.0032 -0.1185 -0.2282
37192W        W80105  27.492  26.428   8.397  0.2408 -0.0231 -0.1520
37193W        W80106  32.292  21.049   5.894  0.3642  0.0489  0.0770
37194W        W80107  29.306  29.094   7.558  0.1300 -0.0238 -0.1592
37195W        W80108  21.454  26.641   2.065  0.0998  0.2400  0.0105
37196W        W80109  18.687   0.697   4.368  0.1427  0.1628 -0.2366
37197W        W80110  27.570  27.244   7.788 -0.0679  0.1800  0.3115
37198W        W80111   5.891   4.420  26.248 -0.1637  0.5044 -0.1744
37199W        W80112  18.188  21.478   4.389 -0.4102  0.1328  0.0338
37200W        W80113  31.383  28.818   4.619  0.4032 -0.1001  0.0787
37201W        W80114  25.509  27.222  25.943 -0.1501 -0.0051 -0.1025
37202W        W80115   3.093  25.666   0.282 -0.1452  0.3627 -0.0794
37203W        W80116  28.528  17.459   9.347  0.0092 -0.1664  0.0990
37204W        W80117  31.200  16.120   3.267 -0.1705  0.0185 -0.0239
37205W        W80118  19.558  18.727   6.467 -0.1768 -0.2009  0.1968
37206W        W80119  24.724  24.094   6.723 -0.0769 -0.0178 -0.0126
37207W        W80120  19.723  24.629   6.482 -0.1305  0.0873 -0.3902
37208W        W80121  32.563  18.904   6.631 -0.0152 -0.0934 -0.0054
37209W        W80122   0.822  29.450   2.241  0.0072  0.0019 -0.1541
37210W        W80123   2.622  18.216  10.448 -0.0783 -0.0405 -0.5023
37211W        W80124  20.154  21.885   6.541  0.1293  0.1539  0.2406
37212W        W80125  20.533  18.627   2.757  0.1266 -0.2599 -0.3329
37213W        W80126   8.920  23.086  29.768 -0.1918 -0.0204 -0.2694
37214W        W80127  26.885  30.978   9.137 -0.1325 -0.1042  0.1760
37215W        W80128  22.173  30.901   5.984 -0.2168 -0.1703 -0.0373
37216W        W80129  32.585  21.416   7.790 -0.0043 -0.0834  0.0035
37217W        W80130   8.424  18.221   4.354 -0.2980 -0.0241 -0.1647
37218W        W80131  17.351  26.379   7.717  0.0172  0.0007 -0.0654
37219W        W80132  28.081  28.648   5.103 -0.2380 -0.0880 -0.2991
37220W        W80133  22.894   2.663   4.159  0.1285 -0.0675 -0.1267
37221W        W80134  28.355  23.516   8.753 -0.1443  0.2345  0.0145
37222W        W80135  26.798  26.360   0.617 -0.3350  0.2355  0.1527
37223W        W80136  15.282  21.483   7.887  0.3176  0.0694  0.1111
37224W        W80137  34.014  19.326   5.563 -0.0425 -0.0643 -0.0602
37225W        W80138   1.266  21.985   3.863  0.3052 -0.0318  0.2138
37226W        W80139  18.125  24.357   4.388 -0.3033  0.3258  0.1205
37227W        W80140  34.358  25.036   7.466 -0.0803  0.0576 -0.1623
37228W        W80141  29.696  20.563   4.021 -0.0329  0.0121  0.1360
37229W        W80142  21.303   0.092  22.961  0.0882  0.0050 -0.2693
37230W        W80143  18.423  25.798  28.512 -0.2216  0.2580 -0.1715
37231W        W80144  28.591  21.963  25.722 -0.0611  0.0189 -0.0536
37232W        W80145   9.425  14.604  28.995  0.0688  0.1511 -0.0698
37233W        W80146  32.224  20.204   6.313  0.0656  0.0614 -0.3963
37234W        W80147  26.489  33.952  28.477 -0.2449 -0.1142  0.3920
37235W        W80148   4.650  26.595   7.682 -0.1493  0.3091 -0.0390
37236W        W80149  31.893  19.317  28.375  0.2901 -0.3120  0.1249
37237W        W80150  22.177  32.513   6.691 -0.1886 -0.1387  0.3368
37238W        W80151  26.217  22.076  29.289 -0.0576  0.0121 -0.1772
37239W        W80152  22.905  23.334   4.739  0.0412  0.1582  0.1620
37240W        W80153   0.283  26.447   2.189  0.2116  0.0178  0.0789
37241W        W80154  27.290  30.489  25.383 -0.0090 -0.0640  0.0949
37242W        W80155  17.555  27.321  29.773 -0.4179  0.1513 -0.0455
37243W        W80156  10.512  12.055   6.710 -0.0023  0.3092 -0.1817
37244W        W80157  24.853   5.769   1.581 -0.0972 -0.0644  0.0094
37245W        W80158  13.776  17.777   4.815 -0.0764 -0.2300 -0.0313
37246W        W80159  17.355  30.668   1.037  0.0380 -0.1585  0.0099
37247W        W80160  30.194  18.595   5.795  0.2449 -0.3749 -0.1194
37248W        W80161   5.654  28.711  10.787 -0.0715 -0.1636 -0.0921
37249W        W80162  29.082   6.315   8.193  0.4269  0.3819 -0.1661
37250W        W80163  26.552   4.189   2.002 -0.0456 -0.0837 -0.2894
37251W        W80164  11.262  20.757   8.576 -0.1969  0.2099  0.1871
37252W        W80165  16.541   0.883  29.339 -0.1921 -0.0052 -0.1858
37253W        W80166  32.686   4.263  27.441  0.1879 -0.0296 -0.0538
37254W        W80167   6.039  23.154  29.369  0.1311 -0.2459 -0.1100
37255W        W80168   3.195   0.632   5.770  0.0200 -0.0447  0.0014
37256W        W80169  32.904  18.869   5.995  0.1295  0.1656 -0.0203
37257W        W80170  15.979  25.855   4.932  0.1473 -0.1956  0.0584
37258W        W80171  26.769  26.506   1.613 -0.0141 -0.0726  0.0987
37259W        W80172  29.510  14.212   3.575 -0.0406  0.2326  0.0442
37260W        W80173  34.280  32.704  27.006  0.2284 -0.0397 -0.1067
37261W        W80174  22.747  23.087   0.366  0.3354  0.1855  0.2322
37262W        W80175  15.711  32.244   6.027 -0.3759 -0.3874  0.0485
37263W        W80176  26.514  14.180   4.008 -0.5559 -0.1309  0.1932
37264W        W80177  17.553  26.891   6.209 -0.1092  0.0892 -0.1197
37265W        W80178  16.462  19.613  27.949 -0.1278  0.1843  0.3266
37266W        W80179  33.554  24.787   0.619 -0.0795  0.0197  0.1605
37267W        W80180  18.138  22.147   5.172  0.2054 -0.0031  0.0905
37268W        W80181   0.332  29.390   5.404 -0.3565 -0.1948 -0.1351
37269W        W80182   6.929  30.124   4.398  0.1913 -0.0308  0.1074
37270W        W80183   0.348  27.737  10.231 -0.3935 -0.0681 -0.2126
37271W        W80184   0.012  20.271   9.527 -0.0051  0.2889 -0.2384
37272W        W80185   0.051  27.945   3.341 -0.2486  0.0831 -0.0750
37273W        W80186  21.432  22.711   4.057 -0.3428 -0.1485  0.0345
37274W        W80187  23.220  12.918  26.100 -0.3213 -0.0692  0.0704
37275W        W80188  27.914  22.072   5.186 -0.1736 -0.0281 -0.2083
37276W        W80189  17.750  21.568  21.912  0.2852  0.1355  0.3656
37277W        W80190   6.716  31.000   8.506 -0.0573  0.1256  0.0453
37278W        W80191  15.128  17.202   2.294  0.1621 -0.0374  0.1584
37279W        W80192  29.439  14.222   2.884 -0.2154  0.1622  0.1328
37280W        W80193  30.487  22.360   3.092 -0.0729 -0.0145 -0.2670
37281W        W80194  24.744  21.929   1.684  0.1147  0.0316 -0.4036
37282W        W80195  32.108  31.993   7.925  0.3782  0.0207 -0.1353
37283W        W80196  10.899  15.165   0.508  0.0999  0.2123  0.3220
37284W        W80197  29.922  18.735   8.110  0.1119 -0.0668  0.3689
37285W        W80198  30.580  19.517   6.295 -0.3085 -0.1714  0.0167
37286W        W80199  22.674  30.889   4.779 -0.1424  0.1584  0.0005
37287W        W80200  28.869  27.857   9.181 -0.0432  0.0301 -0.1307
37288W        W80201   4.336   4.867  13.486 -0.1965  0.3212  0.0850
37289W        W80202  17.896  17.887  29.250  0.3017 -0.1489  0.2182
37290W        W80203  31.394   0.993   5.482  0.2481  0.0601 -0.0779
37291W        W80204   2.188  10.485   7.305 -0.3651 -0.1805  0.0945
37292W        W80205   0.679  19.323   4.282 -0.0121  0.2755 -0.1120
37293W        W80206  25.760  23.271   1.818  0.0391  0.0699 -0.1581
37294W        W80207  28.048  29.366   9.440 -0.0273  0.0097 -0.2990
37295W        W80208  28.663  25.459   9.580 -0.4936  0.2445  0.2732
37296W        W80209  33.512  33.504   9.708  0.0243 -0.3522  0.2554
37297W        W80210   7.206  29.831   0.396 -0.4857  0.0656 -0.1299
37298W        W80211  21.451  28.387   6.430  0.1803 -0.1966 -0.1072
37299W        W80212  30.000  22.432   0.633  0.2330  0.0207 -0.2841
37300W        W80213  31.747  24.789   5.058 -0.0011  0.1445  0.1031
37301W        W80214  32.591   4.137   7.937 -0.3774 -0.0280 -0.1428
37302W        W80215  16.081  13.260  23.278 -0.1600  0.0728  0.0919
37303W        W80216  34.167  24.608   5.387  0.1674 -0.2149  0.1055
37304W        W80217  26.914  18.588   4.387  0.0883 -0.0780 -0.1397
37305W        W80218  26.727  31.498   2.758  0.1795  0.0262  0.0653
37306W        W80219   2.331  21.366  29.358 -0.2741  0.1981  0.0562
37307W        W80220  16.944  22.232   2.658  0.1338  0.0541  0.1270
37308W        W80221  16.767  12.833   1.809 -0.1994 -0.2450 -0.0538
37309W        W80222  19.939   2.497   5.830  0.2167 -0.1885  0.4440
37310W        W80223  26.450  14.278   4.843 -0.1210  0.1485  0.1711
37311W        W80224  27.395  22.569  28.644  0.2642  0.1358 -0.0752
37312W        W80225  26.907  22.128   8.024  0.0622 -0.0640 -0.1174
37313W        W80226  22.867  26.519   7.034 -0.3964  0.1182  0.0154
37314W        W80227   2.058  25.912   5.490  0.3503  0.2219  0.0281
37315W        W80228  15.915  23.718   3.894 -0.1208 -0.1164  0.0764
37316W        W80229  19.386  31.771   2.910 -0.2032 -0.0892 -0.2864
37317W        W80230  22.484  14.741   1.389 -0.1542 -0.0427  0.0602
37318W        W80231   2.810  14.935   4.390 -0.0824 -0.0645  0.2021
37319W        W80232  29.034  31.810   5.818 -0.1944 -0.1826 -0.4335
37320W        W80233  29.208  30.384   8.804  0.2328 -0.1775 -0.3098
37321W        W80234  27.599  20.068   1.834  0.0679 -0.1646 -0.2387
37322W        W80235  29.074  31.330   2.758  0.0009 -0.2363  0.3562
37323W        W80236   2.232  28.594   4.600 -0.1152  0.3466  0.0083
37324W        W80237  23.104  26.210   3.344 -0.1859 -0.3832 -0.1817
37325W        W80238  27.227   1.087   9.625  0.1342  0.4910 -0.2693
37326W        W80239  33.460  31.255   6.341  0.1543  0.0332  0.0121
37327W        W80240  28.780  26.144   4.895 -0.2572  0.0740 -0.1967
37328W        W80241  17.414  26.119   7.213  0.0390  0.1872 -0.0928
37329W        W80242  32.082  22.456   0.905  0.0142  0.1545  0.1507
37330W        W80243  21.550  26.766   8.386  0.1105 -0.1619  0.1110
37331W        W80244   0.805  29.974   7.198  0.0358  0.0454  0.0268
37332W        W80245  31.770  27.093  10.102  0.2560  0.0228  0.1917
37333W        W80246  28.480  22.471  10.008  0.3959 -0.2258 -0.0560
37334W        W80247   5.680  20.486   0.985 -0.0260 -0.0353 -0.1873
37335W        W80248  23.385  27.844   2.201  0.1355 -0.2373 -0.1312
37336W        W80249  30.993  22.858   0.497 -0.0913  0.0620 -0.2020
37337W        W80250  23.196  16.858   3.113 -0.1319 -0.4300  0.1249
37338W        W80251  14.826  19.961   3.999 -0.1248 -0.0210  0.0077
37339W        W80252  26.860  28.390   7.558 -0.1468  0.0880 -0.0769
37340W        W80253   1.047  18.705  22.521  0.1614  0.3045 -0.1583
37341W        W80254  29.482  18.402   6.985 -0.1064  0.1022  0.0738
37342W        W80255  32.798  26.376  26.373 -0.1978 -0.2559  0.0072
37343W        W80256  19.014  29.686   4.955  0.1241 -0.0066  0.3568
37344W        W80257  22.345  15.773  25.426 -0.2012  0.0580 -0.0672
37345W        W80258   1.799  23.154  27.023 -0.0522  0.1135  0.3210
37346W        W80259   0.618  21.905   8.186  0.0740 -0.0238 -0.1008
37347W        W80260  21.092  16.313   0.605 -0.0084  0.2550  0.1209
37348W        W80261  24.985  18.008   6.031  0.0463 -0.2064  0.3412
37349W        W80262  18.702  31.776   1.815 -0.1104 -0.1165 -0.2651
37350W        W80263  21.772  34.166   1.948  0.0088  0.0727  0.1536
37351W        W80264  32.719  14.416   6.150 -0.1034  0.2789 -0.1005
37352W        W80265  32.158  24.752   8.519  0.1607  0.0509 -0.5615
37353W        W80266  23.673  24.645   5.624  0.3600 -0.0658 -0.1008
37354W        W80267   0.539  18.646  24.815  0.0102  0.0783 -0.1196
37355W        W80268  27.575  20.306   7.574  0.0615 -0.1726  0.0504
37356W        W80269  10.807  23.713   6.528  0.1959  0.1730 -0.0766
37357W        W80270  22.249   0.994   6.983 -0.1068  0.0252 -0.3431
37358W        W80271  25.901  18.232   6.293  0.1659  0.2650  0.0191
37359W        W80272  30.536  24.021   5.822 -0.0566  0.2699 -0.2654
37360W        W80273  29.342  28.608   9.033  0.1698  0.0553 -0.1558
37361W        W80274  28.627   9.149   2.781 -0.2719  0.3730 -0.1463
37362W        W80275   6.611  28.529   0.858  0.2575 -0.2485  0.2223
37363W        W80276   2.529  12.072   0.941 -0.1459 -0.0130  0.0714
37364W        W80277  22.261  19.190   5.661 -0.1108  0.0670  0.1186
37365W        W80278  24.612  21.650   6.217  0.2136 -0.2208  0.2673
37366W        W80279  18.343  21.970  28.506  0.3519  0.2366  0.1322
37367W        W80280  21.993   7.732   6.636  0.0607  0.1985  0.0967
37368W        W80281  12.159  29.036   8.726  0.1169 -0.1399  0.4746
37369W        W80282  14.096  21.445   7.018  0.3151 -0.0513  0.1396
37370W        W80283   2.142  18.280   1.283  0.3085  0.0048 -0.0960
37371W        W80284  31.581  28.577   6.675  0.0333  0.0250  0.1228
37372W        W80285  23.623  25.630   0.712 -0.0519 -0.0051  0.1142
37373W        W80286  31.004  33.105   1.011  0.0306  0.0258 -0.1772
37374W        W80287  31.448  23.928   2.665  0.0230 -0.1305 -0.2146
37375W        W80288  24.705  29.729  26.628 -0.1857  0.1728  0.2689
37376W        W80289  17.942  17.253   8.929 -0.0655  0.0693 -0.0373
37377W        W80290  33.610  15.316   1.583  0.0127  0.0250  0.3423
37378W        W80291  20.787  30.416  29.031 -0.0596 -0.0183 -0.0486
37379W        W80292  28.124  14.458   3.408  0.1693  0.3280 -0.2570
37380W        W80293  27.145  23.908   7.486  0.0687  0.0830 -0.2420
37381W        W80294  30.735  18.110   6.973  0.1548 -0.1884  0.0595
37382W        W80295  29.096  27.270   3.962  0.2432 -0.0236  0.0574
37383W        W80296  31.296  29.606   9.171 -0.0645 -0.0320  0.1662
37384W        W80297  33.750  19.802   9.909 -0.0140 -0.4158 -0.2099
37385W        W80298  20.985  17.661   6.404 -0.0808  0.1190 -0.1264
37386W        W80299  14.255  23.414   1.499 -0.0994  0.1904  0.0624
37387W        W80300  19.950  25.757   6.932 -0.1809 -0.0400  0.0209
37388W        W80301  33.132  19.659   5.907  0.1174 -0.1124  0.3287
37389W        W80302  19.154  25.452   6.605 -0.0174  0.1622 -0.2797
37390W        W80303  24.973  16.440   5.522  0.0541 -0.0245 -0.0985
37391W        W80304  31.376  22.494   4.707  0.1043 -0.1519  0.0756
37392W        W80305  33.407  33.143   8.968 -0.1193  0.0157  0.1825
37393W        W80306  28.443  19.223   4.702  0.0479  0.0089 -0.0372
37394W        W80307  21.623  18.917  28.253 -0.0518  0.2635 -0.2204
37395W        W80308   5.407  13.171   1.926 -0.1352  0.1873  0.3083
37396W        W80309  24.555  23.765   3.116  0.0074 -0.1031  0.3013
37397W        W80310  19.231  30.910  27.405  0.2111 -0.1331 -0.1326
37398W        W80311   3.403  21.960   4.320 -0.2198  0.0319  0.1799
37399W        W80312   0.700  18.333   5.135 -0.1253  0.0941  0.3148
37400W        W80313  21.427  24.322   4.825 -0.1068  0.1066  0.1680
37401W        W80314  24.463   1.544   7.545  0.2227 -0.2946  0.0562
37402W        W80315  21.124  34.011   6.676  0.0230 -0.2597 -0.7622
37403W        W80316   0.719  27.188  22.578 -0.1610  0.2877  0.2245
37404W        W80317  25.504  18.968   0.365  0.0156  0.0104 -0.3440
37405W        W80318  23.537  24.335   3.905 -0.3681 -0.1874  0.0939
37406W        W80319  23.771   1.151   2.792  0.5465  0.1868  0.0118
37407W        W80320  26.280   0.786   8.637  0.0377  0.1277  0.2607
37408W        W80321  23.231  22.730   6.307 -0.0112 -0.0236 -0.0521
37409W        W80322  10.249  29.723  26.881  0.2721  0.3267 -0.2452
37410W        W80323  19.050  30.586   0.583  0.0117 -0.0637  0.4504
37411W        W80324  30.921  22.951   2.598 -0.1292  0.0418 -0.0276
37412W        W80325  19.654  17.526  23.028  0.0805  0.0661  0.0471
37413W        W80326  34.358   0.283   7.443 -0.2718 -0.4843 -0.4494
37414W        W80327  24.109  17.347  26.185 -0.1314  0.0009 -0.0224
37415W        W80328  31.714  14.900   4.700 -0.0729 -0.0995 -0.0727
37416W        W80329  28.828   4.004  10.089  0.1561  0.2774 -0.0345
37417W        W80330  32.507  17.302   6.907 -0.2132 -0.2349 -0.0144
37418W        W80331  31.336  30.259   7.489 -0.3158  0.0577 -0.0038
37419W        W80332  22.650  20.037   3.401 -0.0808  0.3009 -0.0903
37420W        W80333  31.334  14.114   6.881  0.1000 -0.1537  0.2534
37421W        W80334  23.124  25.836   3.676 -0.0386 -0.3211 -0.2686
37422W        W80335  28.380  22.121   6.861 -0.0532  0.2004  0.2827
37423W        W80336  20.211  28.241  25.931 -0.3986  0.2627 -0.1339
37424W        W80337  23.461  16.249  29.017  0.1828  0.0884 -0.2165
37425W        W80338  18.127  19.204  26.502  0.0250 -0.2211  0.4464
37426W        W80339  22.130  30.012   2.941  0.2130  0.2830 -0.0214
37427W        W80340  33.140   2.819   8.388  0.1975  0.0203 -0.2184
37428W        W80341  33.921  17.571   5.962 -0.2449 -0.0784  0.1755
37429W        W80342  33.093  28.029   6.390  0.1166  0.4305  0.0226
37430W        W80343  30.695  25.673  29.623  0.1001  0.1966 -0.0018
37431W        W80344   2.311  17.669   6.704  0.2887 -0.3667 -0.0917
37432W        W80345  25.164  23.039   6.655  0.1027 -0.0841 -0.0692
37433W        W80346  27.896  20.583   7.266  0.1817 -0.1453  0.0089
37434W        W80347  13.424  27.407   5.283 -0.0779  0.2470 -0.0128
37435W        W80348  18.591  25.367  26.885  0.0627  0.0675 -0.2256
37436W        W80349  29.791  20.768   5.142  0.0425  0.0236 -0.1030
37437W        W80350  12.896  18.605   4.373  0.2110 -0.1508 -0.1337
37438W        W80351  10.438  33.357  11.836  0.1624 -0.0401 -0.1210
37439W        W80352  16.111  10.762   6.347 -0.0910  0.0441  0.2571
37440W        W80353  28.814  27.966   9.644 -0.2055 -0.1982 -0.3413
37441W        W80354  25.842  27.608   2.140 -0.2023  0.0951 -0.1065
37442W        W80355  31.636  32.502   6.650 -0.1472 -0.0716 -0.0345
37443W        W80356  20.866  25.474   6.680 -0.0809 -0.0471  0.0212
37444W        W80357  26.197   0.829   9.937 -0.1398  0.1558 -0.0202
37445W        W80358  22.020  26.793   7.039  0.0216 -0.1404  0.0033
37446W        W80359  25.456  23.350   8.193  0.3185  0.0426 -0.3587
37447W        W80360  29.222  14.154   7.748 -0.0117  0.0522  0.0811
37448W        W80361  34.160  33.484   1.182 -0.2069 -0.0638 -0.2424
37449W        W80362  29.184  21.455   6.058  0.2062  0.2083  0.0680
37450W        W80363  31.306  25.484   4.080  0.5475  0.0664 -0.1986
37451W        W80364  23.842  33.230  10.125  0.0272 -0.3200 -0.0149
37452W        W80365  19.251  19.599  26.569 -0.0745 -0.0180  0.1484
37453W        W80366  16.815  28.767   7.901 -0.0528  0.3007  0.0134
37454W        W80367  15.745  19.430   2.656 -0.2401 -0.1881  0.0059
37455W        W80368  21.714  25.465   8.394 -0.2216 -0.0498  0.3824
37456W        W80369  27.115  17.064   3.774  0.4555  0.2631  0.1112
37457W        W80370  20.952  33.447   8.408  0.1918 -0.1048  0.0313
37458W        W80371  23.083  30.706   6.052 -0.1876  0.3335  0.0727
37459W        W80372  22.102  30.226   4.254  0.2565  0.1079 -0.2007
37460W        W80373  32.165  12.655  29.265 -0.2549  0.2082  0.0756
37461W        W80374  22.667  24.863   5.456  0.1358  0.0342  0.1729
37462W        W80375  31.148  22.135   5.456  0.1737  0.5834  0.0573
37463W        W80376  34.262  23.957  10.515 -0.0075  0.0315 -0.0438
37464W        W80377  29.403  25.736  28.564  0.0673  0.0105  0.1456
37465W        W80378  18.646  26.638   4.219 -0.0068 -0.1835 -0.1463
37466W        W80379  31.687  34.287   9.030  0.2287  0.1379  0.1703
37467W        W80380   5.749  31.358   7.199 -0.1364 -0.6517  0.0944
37468W        W80381  24.748  22.851   6.243 -0.2383 -0.0282  0.3744
37469W        W80382  25.753  28.637   8.315  0.0839 -0.1040  0.1575
37470W        W80383  24.466  33.295   6.765 -0.2329 -0.1850  0.1814
37471W        W80384  32.124  31.805   5.710 -0.0927 -0.0932 -0.0901
37472W        W80385  31.621  32.539   5.614  0.2902 -0.0278 -0.1715
37473W        W80386  16.918  30.567   8.087 -0.3340  0.0959 -0.1682
37474W        W80387  29.313  23.971   3.550 -0.2643  0.1398  0.1005
37475W        W80388   5.367   0.059   5.849  0.2753 -0.1626  0.1797
37476W        W80389  30.990  29.200   8.413  0.1689  0.2799  0.1946
37477W        W80390  24.876  27.808   1.420  0.2398  0.2121  0.2493
37478W        W80391  30.422  16.620   3.428  0.2103 -0.0478 -0.1168
37479W        W80392   7.375  24.382  28.963 -0.4677  0.1754  0.0784
37480W        W80393  27.321  26.286   2.988 -0.0846 -0.0448 -0.4577
37481W        W80394  22.386  30.063   7.878  0.1324 -0.0226 -0.1247
37482W        W80395  27.824  16.367   7.999  0.1288 -0.1192  0.0256
37483W        W80396  18.339  28.624  29.303  0.1308  0.1675  0.3709
37484W        W80397   0.913  17.051   9.006 -0.2489  0.2201  0.1336
37485W        W80398   7.393  30.393   3.513 -0.2594 -0.1127 -0.0122
37486W        W80399  31.550  28.656  10.216 -0.1114 -0.3096 -0.1204
37487W        W80400  23.331  23.772   5.126  0.5038 -0.1055  0.0055
37488W        W80401  31.160  29.467   5.979  0.1544  0.0432  0.3564
37489W        W80402  30.052  25.356   6.014 -0.0855  0.2514  0.2676
37490W        W80403  33.093  24.791   9.228  0.2569  0.5786  0.0638
37491W        W80404  23.158  29.088   3.501 -0.0792 -0.1922 -0.2818
37492W        W80405   1.219  23.539   0.784  0.1466 -0.0382 -0.3357
37493W        W80406  19.674  27.484  28.560 -0.3757  0.0726 -0.1835
37494W        W80407  16.281  29.009   3.736  0.1373  0.2438 -0.1992
37495W        W80408   2.566  22.376   1.477 -0.1132 -0.0770 -0.3232
37496W        W80409  24.759  17.445   7.280 -0.2779  0.1681  0.3935
37497W        W80410  27.863  29.692  16.921 -0.0529  0.1910 -0.0611
37498W        W80411  16.702  26.821   0.659  0.3303  0.0758  0.1567
37499W        W80412  30.227  28.012   1.983 -0.2566  0.0614  0.0647
37500W        W80413  17.499  32.110  24.007  0.1549  0.0833 -0.0461
37501W        W80414  27.004  24.730   9.253  0.0250 -0.2808  0.3106
37502W        W80415  20.114  27.678   0.000  0.2400  0.1329  0.2785
37503W        W80416  13.238  32.153   3.311  0.0441 -0.0237 -0.3163
37504W        W80417  33.936   2.095   4.338 -0.0475 -0.5253  0.0414
37505W        W80418  16.475  18.306  28.359  0.3233 -0.2212  0.0262
37506W        W80419  29.427  27.907   0.130  0.2807 -0.0995  0.2540
37507W        W80420  29.777  17.908   6.899 -0.1023 -0.2769  0.0813
37508W        W80421   0.698  28.294  23.530 -0.0704  0.2303 -0.1484
37509W        W80422  27.762  31.507   3.966 -0.1435 -0.0194 -0.3477
37510W        W80423  10.977  25.986   8.174 -0.2048 -0.0978  0.1977
37511W        W80424  29.422  34.106  22.544  0.0826 -0.2306  0.1488
37512W        W80425   3.401  24.440  29.287 -0.1964  0.0462  0.1243
37513W        W80426  24.255   4.214  10.478  0.3090 -0.1537 -0.0631
37514W        W80427  29.182  22.186  29.381 -0.1944  0.1030  0.0161
37515W        W80428  23.055  31.120   1.009 -0.1441  0.3901 -0.0190
37516W        W80429  31.269   8.668   5.800  0.0282 -0.0698 -0.0347
37517W        W80430  33.863   7.046   2.176 -0.3342  0.1733 -0.4612
37518W        W80431  28.981   1.233   2.096 -0.0963  0.0434 -0.0077
37519W        W80432  31.920  25.787   9.174 -0.0673  0.2845  0.0282
37520W        W80433  29.067  22.181   7.096 -0.2322 -0.1495 -0.1358
37521W        W80434  24.313  24.310   2.158 -0.2235 -0.0841 -0.0200
37522W        W80435  21.786  31.691  26.463  0.1271  0.3710  0.3232
37523W        W80436  21.395  20.471  24.413 -0.3300 -0.3254  0.2827
37524W        W80437  31.616  21.315   2.073  0.0170  0.1104 -0.3722
37525W        W80438  26.406  27.632   4.516 -0.3150  0.2111 -0.2130
37526W        W80439  26.270   1.937   5.008  0.3157 -0.2352  0.0504
37527W        W80440  29.848  28.205   3.501 -0.2389  0.2051  0.2749
37528W        W80441  28.353  30.747   4.400 -0.3009  0.1887 -0.0222
37529W        W80442  16.145  32.911   3.984  0.1078  0.2958  0.0461
37530W        W80443  21.347  21.627   3.326 -0.0294 -0.1554 -0.1271
37531W        W80444  30.811  23.791   7.143  0.0240  0.0433 -0.1049
37532W        W80445  29.012  23.791   8.163 -0.0252 -0.0441  0.1238
37533W        W80446  25.618  30.422   0.367  0.1257  0.2341 -0.0278
37534W        W80447  32.388  26.413   1.970  0.0489  0.3765 -0.2977
37535W        W80448   2.539  29.434   1.239  0.1358 -0.0846  0.0249
37536W        W80449  19.566  18.169   2.238 -0.1057 -0.2056  0.1327
37537W        W80450  34.325  27.102   6.972  0.2798  0.0759  0.1191
37538W        W80451  18.591  16.574   7.683  0.3266  0.2202  0.0233
37539W        W80452  27.572   3.343  21.432 -0.2414  0.3471 -0.0607
37540W        W80453  23.944  25.922  23.401  0.1181 -0.2436 -0.0581
37541W        W80454  16.873  30.850   0.606  0.1594  0.1820  0.3048
37542W        W80455   1.869  25.880   9.415 -0.3386  0.1326  0.2274
37543W        W80456   0.903  33.283   8.123  0.1643 -0.0586  0.1131
37544W        W80457   1.095  28.326   7.033  0.2304 -0.0453 -0.0751
37545W        W80458  26.487  14.020  28.664 -0.2240 -0.0182  0.0872
37546W        W80459   1.501  22.335  29.268  0.2688 -0.1568  0.0344
37547W        W80460  15.072  29.754   3.384  0.3307 -0.1037  0.1374
37548W        W80461  25.856  28.602  22.388 -0.0736 -0.0121  0.3113
37549W        W80462  28.399   3.208   3.176 -0.2469 -0.0074  0.3058
37550W        W80463   2.261   5.200  20.110 -0.2546 -0.0606  0.0526
37551W        W80464  31.695   3.070   4.682  0.1983 -0.1266 -0.0723
37552W        W80465  28.983  34.187   6.788  0.1168  0.1130 -0.0475
37553W        W80466  30.420  32.589   4.735  0.3656 -0.0305  0.1500
37554W        W80467  27.583  19.509  16.020  0.0403  0.0105 -0.3341
37555W        W80468  14.429  34.038  28.413 -0.1929 -0.1514 -0.2838
37556W        W80469  29.030  23.559  17.708  0.2833 -0.0366 -0.3831
37557W        W80470   1.338  25.128   2.911 -0.1621 -0.2271 -0.0142
37558W        W80471  15.078  29.793  26.941  0.0836 -0.3098 -0.0997
37559W        W80472  30.246  29.514  29.672  0.0622  0.1535  0.3419
37560W        W80473  23.989   3.015   2.973  0.1144  0.1465  0.0620
37561W        W80474  24.805  22.867   7.499  0.2498  0.1872  0.2187
37562W        W80475   1.700  28.944   8.334 -0.0660 -0.1480 -0.0246
37563W        W80476  26.970  29.304   4.509  0.1910 -0.0658  0.2510
37564W        W80477  33.535  33.710   7.174 -0.2402 -0.0166  0.0306
37565W        W80478  31.345   3.937  27.708  0.2401  0.0429  0.1790
37566W        W80479  25.840  27.717  29.266  0.3111  0.2761 -0.4219
37567W        W80480  21.319  32.900   4.808 -0.0977 -0.2621  0.3652
37568W        W80481  15.864  28.893   9.553 -0.1879  0.0102 -0.1382
37569W        W80482  29.830  25.150   6.466 -0.0348 -0.0850 -0.1092
37570W        W80483  31.738  29.003   6.398  0.0893 -0.1672 -0.2548
37571W        W80484  15.211  31.491   5.324 -0.2135 -0.0191  0.2309
37572W        W80485  30.637  31.234   5.175  0.0021 -0.2351 -0.2171
37573W        W80486  32.113  31.071  20.804 -0.0850  0.1664  0.1302
37574W        W80487  14.397   0.805  25.453  0.1867  0.1925 -0.3318
37575W        W80488  33.066  29.889   5.221 -0.1272 -0.0214  0.1592
37576W        W80489  27.013  27.326   4.721  0.3598 -0.2688 -0.3986
37577W        W80490  33.890  30.133  10.552 -0.0519  0.1811  0.2315
37578W        W80491  23.554  22.944  28.037  0.0624 -0.1235  0.1841
37579W        W80492  28.881   2.076   2.129  0.0419 -0.2020 -0.0952
37580W        W80493  33.003   0.859   1.352 -0.0898 -0.0734 -0.1975
37581W        W80494  29.417   4.858  26.510 -0.0224 -0.2314  0.0016
37582W        W80495  24.392  23.150  28.252 -0.1592 -0.3244  0.0795
37583W        W80496  23.744  26.241   4.644  0.0187  0.2144 -0.2051
37584W        W80497  23.845  34.351   7.661  0.2399  0.2389  0.0508
37585W        W80498  27.139   0.510   4.940  0.1181  0.0407 -0.2977
37586W        W80499   2.553   8.675   9.796 -0.1613 -0.2720  0.1629
37587W        W80500  28.792   0.318   1.739  0.0550 -0.0420  0.0767
37588W        W80501  27.749  24.578  25.611  0.1847 -0.3259  0.0093
37589W        W80502  25.560  26.434  22.034  0.1323  0.2680 -0.0944
37590W        W80503  15.983  30.051   0.035  0.0958  0.1672  0.0786
37591W        W80504  33.516  23.144   6.604  0.0975 -0.0309  0.0452
37592W        W80505  31.409  28.759   7.061 -0.3275 -0.1115 -0.1199
37593W        W80506  34.459  32.562  10.184 -0.2032  0.1187 -0.0579
37594W        W80507  26.960  23.097  23.872 -0.4489 -0.2292 -0.0316
37595W        W80508   3.668  20.768  26.884  0.0929 -0.0536 -0.2293
37596W        W80509  28.596  21.254  25.712  0.1824 -0.0048  0.1891
37597W        W80510  25.129   4.774   8.906 -0.0760  0.3065  0.3397
37598W        W80511  25.740  29.427   6.927 -0.0123 -0.3795  0.2777
37599W        W80512  28.551  26.558  26.432  0.0326  0.0843 -0.0698
37600W        W80513  26.437  26.113  19.947  0.0785  0.0774  0.1122
37601W        W80514  25.309  25.367  23.860  0.0172  0.1706  0.0144
37602W        W80515  29.685  32.130   0.926  0.0168  0.2086 -0.3178
37603W        W80516   5.007  24.472  28.948 -0.3503  0.2907  0.0641
37604W        W80517  33.046  30.235   4.762 -0.1134 -0.3569 -0.1189
37605W        W80518   1.836   1.344   4.668 -0.1066  0.0064  0.0880
37606W        W80519  23.743  30.361  29.706 -0.0491 -0.0139  0.0247
37607W        W80520  27.323  31.516   2.413 -0.1171 -0.1075 -0.2016
37608W        W80521  29.523   0.245   7.775  0.3131 -0.1411 -0.1802
37609W        W80522  14.363   2.922   5.815  0.3545 -0.2443 -0.1532
37610W        W80523  23.196  32.754  29.162  0.0450  0.1855  0.0336
37611W        W80524  20.871  19.265   8.750 -0.1815  0.1364 -0.2306
37612W        W80525  31.552  28.800  28.525 -0.0551 -0.3466 -0.1504
37613W        W80526  30.716  16.290   3.202  0.0625  0.3304 -0.0751
37614W        W80527  28.481  15.069   9.477 -0.0777  0.2378 -0.2756
37615W        W80528  25.668  32.164   8.801 -0.1412  0.1429 -0.0563
37616W        W80529  25.844  20.231   4.492 -0.1164 -0.1126 -0.3731
37617W        W80530  22.262  19.746   1.697  0.3121  0.1329  0.0865
37618W        W80531  27.748  33.207   1.785 -0.2244 -0.0485 -0.1792
37619W        W80532  14.066  23.710  25.792  0.0206  0.0848  0.0178
37620W        W80533  32.199  30.974  24.869  0.1095 -0.0492  0.0871
37621W        W80534  27.391  28.838  29.656 -0.0798 -0.5251  0.1037
37622W        W80535  23.179   2.557   0.542  0.1890 -0.1217 -0.1807
37623W        W80536  23.985  30.131  29.268  0.4226  0.2252 -0.0136
37624W        W80537   5.056  13.191   4.205 -0.3244 -0.2936  0.0596
37625W        W80538  24.052  26.179   0.103 -0.1731 -0.0453 -0.0480
37626W        W80539  26.262  32.553  28.404  0.1337 -0.0366 -0.4159
37627W        W80540  20.990  25.788   1.977 -0.1853 -0.1285 -0.3260
37628W        W80541  32.861  16.559  23.263 -0.0745  0.2936 -0.2806
37629W        W80542   5.254  19.961   3.755  0.1147  0.3465  0.0012
37630W        W80543  27.672  23.297   3.351  0.1245  0.1813  0.1929
37631W        W80544  18.752  25.373  29.300  0.1636  0.2689 -0.1048
37632W        W80545   0.117  19.510  24.791 -0.1608 -0.2633 -0.2111
37633W        W80546   0.931   3.159  26.774  0.1648  0.0288 -0.2187
37634W        W80547  23.499  29.448   7.472 -0.2314  0.2686  0.2309
37635W        W80548  24.744  33.455   7.224  0.2384  0.0394  0.2365
37636W        W80549  29.875  26.547   7.746  0.2790  0.2854  0.2085
37637W        W80550  24.730  27.455   3.156  0.1001 -0.1777 -0.0868
37638W        W80551  15.708   0.246   3.646  0.0113  0.1307 -0.2508
37639W        W80552   1.982  28.023   0.246  0.2164  0.4142 -0.0624
37640W        W80553  24.026  24.966  28.965  0.0265 -0.1234  0.2434
37641W        W80554  20.897  17.694   7.054 -0.0753  0.2309 -0.1294
37642W        W80555  27.501  19.132   0.427  0.0825  0.3768  0.1276
37643W        W80556  31.210  27.892  28.239  0.3533 -0.2320 -0.2456
37644W        W80557  29.990  28.145   4.085  0.3920  0.1157  0.2072
37645W        W80558  32.206  29.345  27.043  0.0683  0.1257  0.3617
37646W        W80559   0.615  21.427  25.899 -0.3915  0.0803  0.1896
37647W        W80560  21.130  22.701   0.612  0.1680  0.2447  0.1325
37648W        W80561   0.301  25.755   0.865  0.0751 -0.0362 -0.0666
37649W        W80562  22.101  30.305  26.990  0.2274 -0.0937 -0.2323
37650W        W80563  23.911  30.897   4.262  0.1940  0.0732  0.1829
37651W        W80564  21.860  27.518   5.113  0.1303  0.2260 -0.1361
37652W        W80565  21.420  23.416  18.691 -0.1354 -0.0963  0.1450
37653W        W80566  23.049  21.830  26.749 -0.0617 -0.0291 -0.1079
37654W        W80567  26.088   1.793   7.447  0.1271 -0.0662  0.3520
37655W        W80568  16.319   2.284   6.190  0.0032 -0.2169 -0.2093
37656W        W80569  23.985  26.790  21.429  0.0361  0.0159 -0.0541
37657W        W80570  19.897  23.963   4.799 -0.3761  0.1311  0.0907
37658W        W80571  20.735   0.356  27.778 -0.2055 -0.0177  0.0308
37659W        W80572  26.333  20.699   2.134 -0.2266 -0.1086 -0.0632
37660W        W80573  15.787  33.345  26.070 -0.1960  0.3341 -0.1226
37661W        W80574  22.437  19.244   7.895  0.3782  0.2639  0.2078
37662W        W80575  14.942  34.489   7.174  0.1770  0.0934 -0.2146
37663W        W80576  33.493  34.346  29.388  0.0571  0.0161  0.1217
37664W        W80577   8.128  33.437   6.006 -0.0697 -0.0716 -0.1875
37665W        W80578   0.537   3.283  27.023  0.0350  0.0537 -0.1792
37666W        W80579  30.629  19.986   8.934 -0.2047  0.0659  0.2764
37667W        W80580  17.886  26.795   9.902 -0.0338 -0.0766  0.2264
37668W        W80581  28.688  30.448  26.405 -0.0127 -0.1324  0.2046
37669W        W80582   1.009  19.917   6.846 -0.0952 -0.2134 -0.0811
37670W        W80583  17.950   0.293   8.348 -0.0794 -0.2310  0.3269
37671W        W80584  20.535  33.870  29.216 -0.0746  0.1483 -0.0657
37672W        W80585  29.744   0.863  22.249 -0.1705 -0.3027 -0.0955
37673W        W80586  16.332  21.501   2.614 -0.1281  0.0945 -0.0902
37674W        W80587  30.104  34.118  10.525  0.2437  0.0076  0.0721
37675W        W80588  25.930  23.020   4.333  0.2462 -0.3581  0.0284
37676W        W80589  23.070  23.744  15.591  0.1148 -0.0596 -0.1712
37677W        W80590  31.733  17.294  26.776 -0.2110  0.1657  0.1444
37678W        W80591  30.755  18.144  16.044 -0.0141  0.1335 -0.0011
37679W        W80592  19.339  23.845   3.904 -0.0134 -0.1338  0.0928
37680W        W80593  32.169  16.742  25.145 -0.0013 -0.0373  0.3764
37681W        W80594  25.268  18.461   6.987 -0.1828 -0.2719  0.0599
37682W        W80595  22.576   1.618   4.975 -0.3846  0.0937 -0.1095
37683W        W80596   7.771   4.159  29.615 -0.1622 -0.4149 -0.2532
37684W        W80597  33.393  31.189  24.968 -0.0122  0.3982  0.1746
37685W        W80598  25.933  24.791   3.402  0.0646 -0.2175  0.0017
37686W        W80599  25.368  21.615   4.199 -0.1213 -0.0222  0.0037
37687W        W80600  24.623  27.439   1.030 -0.1136  0.0166  0.1660
37688W        W80601  31.246  26.886  29.053  0.3207  0.0027 -0.3689
37689W        W80602  26.684   0.895   7.475  0.3132 -0.1999  0.0046
37690W        W80603  18.163   1.225  21.207 -0.1230  0.0524 -0.1630
37691W        W80604  16.775  20.588  27.519  0.0727 -0.1195 -0.2370
37692W        W80605  23.324  29.871  23.475 -0.1992 -0.1537 -0.0442
37693W        W80606  21.305  20.965   2.455 -0.1934 -0.0911 -0.1114
37694W        W80607  20.281  28.943  26.512  0.2475 -0.0090  0.2817
37695W        W80608  22.639  26.284  28.121  0.1500  0.4020 -0.0181
37696W        W80609  32.914  25.482   2.951 -0.0923 -0.0848 -0.0892
37697W        W80610  12.886  28.797  26.060 -0.0181  0.1516 -0.3380
37698W        W80611  15.292  28.749  22.356 -0.2489  0.2137 -0.0639
37699W        W80612  20.515  15.572   6.076  0.3990 -0.1382 -0.0899
37700W        W80613  28.478  31.838   5.305 -0.0726  0.1104 -0.1616
37701W        W80614   1.861  33.440   7.357 -0.1650  0.0427 -0.0279
37702W        W80615  24.126  27.635   8.554  0.1530 -0.5977 -0.1413
37703W        W80616  25.553  28.533   6.261  0.0645  0.0829  0.1371
37704W        W80617  22.721   3.893   4.975  0.0900  0.1399 -0.0270
37705W        W80618   1.875  32.834   2.709 -0.2541  0.0935 -0.2033
37706W        W80619  29.017  26.168   3.995  0.0250  0.1065  0.0865
37707W        W80620  26.132   1.428  10.258 -0.0654 -0.1771 -0.1967
37708W        W80621  18.484  28.956  25.768 -0.0191  0.1228 -0.1809
37709W        W80622  20.264  15.328   6.573  0.0946 -0.0415 -0.0367
37710W        W80623  30.682   4.670   5.995 -0.1646 -0.0084 -0.2328
37711W        W80624   3.953  23.364  25.958  0.1878 -0.0060 -0.0156
37712W        W80625  29.188  26.700  23.365 -0.0620  0.3854  0.1938
37713W        W80626   7.925  25.285   0.028 -0.1524 -0.3425  0.0597
37714W        W80627  26.070  24.036  26.535 -0.1491  0.3514  0.2879
37715W        W80628  26.627  32.063   2.169  0.0080 -0.5394 -0.1511
37716W        W80629  32.544   2.785  26.346 -0.4261  0.1057 -0.4598
37717W        W80630  26.755  30.837  20.386  0.1158  0.2151 -0.2569
37718W        W80631  23.155  24.276   2.958 -0.1149  0.4409 -0.0622
37719W        W80632  29.561  22.058   2.650 -0.1922 -0.0340 -0.0057
37720W        W80633  14.142  26.738  10.127  0.4129 -0.2781  0.1728
37721W        W80634  21.181   3.343   7.136  0.0106 -0.0683  0.2138
37722W        W80635  18.263  21.764  24.245  0.0804  0.1039  0.1148
37723W        W80636  24.997  27.015   6.332 -0.0068 -0.1314 -0.1150
37724W        W80637  26.956  23.942  26.883  0.2081  0.2793  0.3788
37725W        W80638  22.449  20.725  21.680  0.0723 -0.2410  0.1370
37726W        W80639  28.098   6.130   8.435  0.0197  0.1284 -0.0404
37727W        W80640  20.224   1.947   7.630  0.1479  0.0676 -0.0144
37728W        W80641  23.726  26.867  28.699 -0.1957  0.1600  0.0986
37729W        W80642  30.130  32.716   8.928  0.0452  0.2663  0.0892
37730W        W80643   8.290   9.748  27.965 -0.0304 -0.0359  0.0791
37731W        W80644  34.043  10.538   0.646  0.0405 -0.1776 -0.2157
37732W        W80645  23.100  26.201   7.325 -0.1749  0.0411  0.0275
37733W        W80646  15.703  23.378   4.215  0.5135 -0.2393 -0.0053
37734W        W80647  17.413  30.655   8.185  0.0159 -0.1744  0.2155
37735W        W80648  31.716  15.227  28.741  0.2960 -0.0862 -0.4195
37736W        W80649  30.664  23.566   1.508  0.0688  0.1751 -0.0393
37737W        W80650  27.948  20.906   1.189  0.1791  0.0516  0.0022
37738W        W80651  27.018  25.603   7.847  0.1415  0.0487  0.0628
37739W        W80652   5.172  20.689   5.657  0.0274  0.2021 -0.1663
37740W        W80653  12.258  23.468  20.348 -0.3401  0.0435  0.2146
37741W        W80654  29.494  26.215  10.003  0.0716  0.0728  0.0659
37742W        W80655  21.664  22.764  26.353 -0.0400  0.0778  0.0648
37743W        W80656  26.970  25.249   8.747  0.1137  0.1075 -0.0293
37744W        W80657  26.747  29.622   5.425  0.1524  0.0074  0.0986
37745W        W80658  22.104  29.421  25.550 -0.0682 -0.0301 -0.5664
37746W        W80659   4.097  18.089   0.218  0.2481  0.1342  0.2092
37747W        W80660  27.861  29.318   0.427 -0.0769  0.0120  0.2958
37748W        W80661   1.710  14.659   3.947 -0.0834 -0.2528 -0.0774
37749W        W80662  26.523  30.284   8.471  0.1806 -0.0614 -0.0633
37750W        W80663  20.384   4.192   5.546 -0.1570  0.1212  0.2657
37751W        W80664  26.968  27.877  22.203 -0.2547  0.3220 -0.0016
37752W        W80665  22.210  29.746  27.185 -0.0777 -0.2989  0.3162
37753W        W80666  10.132  26.552  26.201  0.0672 -0.0478  0.1345
37754W        W80667  27.245  32.537   1.297  0.2628  0.1269 -0.2436
37755W        W80668  30.011  31.470  28.976  0.1135  0.1592 -0.1009
37756W        W80669  28.788  29.809  27.027  0.0115 -0.2401  0.1342
37757W        W80670  28.883  25.270  28.590  0.1720 -0.0424 -0.0549
37758W        W80671  10.069  24.180   3.708 -0.0864  0.1181 -0.0386
37759W        W80672  21.539  24.940  25.906 -0.3013  0.0482 -0.0665
37760W        W80673  20.819   9.630   5.509 -0.0240  0.1226  0.0073
37761W        W80674  19.356   0.367  26.124  0.1164  0.2783 -0.0025
37762W        W80675  25.784   3.306   4.695  0.2750  0.1004  0.1313
37763W        W80676  25.035   2.417   5.191  0.0096  0.0775 -0.0334
37764W        W80677  20.135  23.231  29.006 -0.0776 -0.1267  0.1188
37765W        W80678  28.846  32.594   2.276  0.2139 -0.1221 -0.0652
37766W        W80679  25.744  20.775  26.963 -0.0556 -0.1766  0.1434
37767W        W80680  28.915  28.287   7.476  0.1967  0.1102  0.0101
37768W        W80681  17.653   0.540   3.739  0.3883 -0.0623 -0.2355
37769W        W80682  34.070  22.936   3.190  0.2267  0.1430  0.0053
37770W        W80683  22.848  21.109  25.165  0.0362 -0.0337 -0.3460
37771W        W80684  23.574  26.045  25.701  0.1476 -0.0153  0.0281
37772W        W80685  29.422  26.209   0.643  0.2013  0.0345 -0.0772
37773W        W80686  26.143  27.466  25.162 -0.0316 -0.0761 -0.0140
37774W        W80687  30.468   0.590   7.458 -0.2129 -0.1916  0.2612
37775W        W80688   3.701   0.746   3.914  0.3139 -0.0121  0.0543
37776W        W80689  19.233  24.780   2.911 -0.1009 -0.0855 -0.0878
37777W        W80690  24.829  24.820  21.286 -0.0915  0.0574 -0.0680
37778W        W80691  33.107  27.865   9.442 -0.2571  0.2184 -0.0283
37779W        W80692  28.282  21.816   6.159  0.0036 -0.1364 -0.0373
37780W        W80693  24.749  20.670  26.605  0.1543  0.0569 -0.0305
37781W        W80694  20.734  33.224  14.836  0.2353 -0.3435  0.2396
37782W        W80695  12.506  30.580   1.299 -0.0287  0.0071 -0.1663
37783W        W80696  18.298  21.611   1.542  0.3775 -0.1946  0.1524
37784W        W80697  33.171  15.418   5.338 -0.4436  0.1099 -0.2133
37785W        W80698   2.656  31.272  29.092  0.1419  0.4162  0.2951
37786W        W80699  24.322  22.103   3.577 -0.0566  0.2439  0.0372
37787W        W80700  28.718  12.524   0.012 -0.0219  0.3995  0.0751
37788W        W80701  32.155  31.198  22.651 -0.3275  0.0672 -0.0713
37789W        W80702  20.064   2.766   0.488 -0.0210 -0.1699 -0.1304
37790W        W80703  27.626  25.135  27.250  0.0384  0.0179 -0.3158
37791W        W80704  25.441  26.269   5.948  0.0751 -0.1636  0.2498
37792W        W80705  23.234   2.328   3.906  0.0034 -0.3285  0.1051
37793W        W80706  34.031  23.412   9.741 -0.1230 -0.0746 -0.1165
37794W        W80707  26.855  31.193  28.018  0.2019 -0.1068  0.3457
37795W        W80708  33.919  30.322   0.769 -0.0805 -0.1403  0.0448
37796W        W80709  21.382  21.473  29.351  0.1265  0.1240 -0.1833
37797W        W80710   6.347   5.163  28.132 -0.1016 -0.2766  0.0766
37798W        W80711  23.614  30.193   2.551 -0.0101  0.0320  0.2202
37799W        W80712  21.659  20.236   7.822 -0.1206  0.1620 -0.0180
37800W        W80713   8.133   5.578   9.161 -0.2135  0.0428 -0.0761
37801W        W80714   1.426  13.923   2.870 -0.1665  0.0277 -0.1180
37802W        W80715  29.027  27.484   0.968 -0.0758 -0.3518  0.0283
37803W        W80716  30.764  31.470  28.638 -0.4970  0.2665 -0.0480
37804W        W80717   2.149   3.995  10.302 -0.0499 -0.0337 -0.1591
37805W        W80718  22.490  26.097  24.011 -0.0100  0.0045  0.0839
37806W        W80719  22.156  23.332   7.278  0.4066  0.1353 -0.0870
37807W        W80720  23.473  27.103  24.737  0.1615 -0.0215  0.1777
37808W        W80721   4.897  27.947  29.614  0.0215  0.1467 -0.2251
37809W        W80722   0.265  21.953   0.587 -0.1628 -0.0622  0.1187
37810W        W80723  32.350  22.229   1.708 -0.3172 -0.2150 -0.1648
37811W        W80724  22.188  26.049   4.968  0.1251 -0.4699 -0.1078
37812W        W80725   4.076  33.805   8.323 -0.1828  0.0747 -0.1034
37813W        W80726  32.122   5.907  10.874 -0.1536  0.3397  0.0725
37814W        W80727  29.005  32.064  25.418 -0.1969  0.2725  0.1432
37815W        W80728  28.030  32.442   3.505 -0.0066  0.2269  0.1028
37816W        W80729   1.587  20.729   9.240 -0.0699  0.1343 -0.0930
37817W        W80730  31.194  13.817  26.750 -0.0956 -0.0482  0.0101
37818W        W80731  20.734  20.284   2.944  0.0452 -0.0169 -0.2259
37819W        W80732  28.569  23.665   3.916  0.0120  0.1941 -0.0052
37820W        W80733  11.930  28.145   4.270 -0.5403  0.1643  0.1310
37821W        W80734  25.917   2.053  23.969 -0.0352 -0.0479  0.3294
37822W        W80735   2.716  21.115  27.759 -0.0622  0.1967  0.0780
37823W        W80736  14.941  25.781   3.082  0.1118  0.0260  0.1066
37824W        W80737  18.570  22.231   6.214  0.1130 -0.3437  0.0138
37825W        W80738  25.500  25.815   0.573 -0.2485  0.2532 -0.0778
37826W        W80739  32.559  28.123   2.799  0.3223 -0.1142  0.3497
37827W        W80740   1.468  24.939  26.559 -0.2170  0.1617 -0.0794
37828W        W80741  28.586  32.614  28.988  0.0223  0.1968 -0.2247
37829W        W80742  27.017  30.217   8.436  0.0404 -0.0625 -0.1444
37830W        W80743  21.224  18.170   7.428  0.1595 -0.1737 -0.1690
37831W        W80744  31.847   7.310   3.244  0.2719  0.2549  0.0331
37832W        W80745  17.225  17.655  25.745 -0.0363  0.2173  0.1775
37833W        W80746   1.602  24.297   8.976 -0.0880 -0.0289  0.0808
37834W        W80747  25.782   8.380   0.214 -0.2216  0.1976  0.0469
37835W        W80748  25.965  30.938  27.858 -0.2328 -0.0754  0.0244
37836W        W80749  15.508  33.275  25.611 -0.1856  0.1468 -0.1802
37837W        W80750  20.420  31.585   5.652 -0.1791  0.0190  0.0569
37838W        W80751  20.969  31.181   0.841  0.0425  0.0373 -0.1866
37839W        W80752  25.910   0.282   4.733  0.1950  0.0142 -0.0489
37840W        W80753  22.962  20.692   5.819  0.1254  0.2531  0.2661
37841W        W80754  28.953  10.012  26.637  0.1875 -0.3629  0.0072
37842W        W80755  25.471  24.154   4.234 -0.2987 -0.0584 -0.2581
37843W        W80756  32.076  32.138  27.104 -0.3770  0.0933  0.1647
37844W        W80757  24.174  24.018   1.705 -0.3719  0.2586  0.0824
37845W        W80758  25.105  32.422   2.029  0.1533 -0.2655  0.1695
37846W        W80759   2.553  21.093  25.148  0.0366 -0.3378 -0.0442
37847W        W80760  26.714   1.485   4.252 -0.0170 -0.2140  0.2132
37848W        W80761  23.676  20.549   2.564 -0.2407 -0.1563  0.2031
37849W        W80762   4.113  32.171   6.657  0.0170  0.0475 -0.1745
37850W        W80763  19.829  25.042   0.189 -0.0308 -0.0635  0.0895
37851W        W80764  23.844  26.065   2.283  0.0306  0.0848  0.0583
37852W        W80765  26.113  31.706   5.774 -0.0403 -0.0038  0.2346
37853W        W80766   0.027  32.279   7.537  0.1609  0.0218  0.1847
37854W        W80767  31.191  25.067   1.855 -0.0204  0.0605  0.2418
37855W        W80768  30.248  29.700   3.986  0.0582  0.3572 -0.3171
37856W        W80769  27.527  33.272   4.936 -0.1827 -0.0128 -0.0965
37857W        W80770  25.098   5.458   3.089 -0.2246 -0.4313 -0.2480
37858W        W80771  22.174  29.388   6.195  0.1522  0.1092  0.1069
37859W        W80772  14.494  12.110  25.474  0.1839  0.1761  0.2645
37860W        W80773   0.277  28.575   3.149  0.2347 -0.4480 -0.1139
37861W        W80774  17.849   2.408  28.521 -0.1542  0.1535  0.0626
37862W        W80775  24.616   4.971   1.917 -0.3006 -0.1353 -0.0024
37863W        W80776  23.780  32.013  22.920  0.2965  0.2460  0.2462
37864W        W80777  24.409  13.370  23.246 -0.1527  0.0043 -0.0914
37865W        W80778  28.926  21.396  22.470 -0.0265  0.0932 -0.0317
37866W        W80779  28.500  28.280   6.144  0.1024 -0.2561 -0.2597
37867W        W80780  22.758  27.781  29.488 -0.0996  0.3157  0.2007
37868W        W80781  23.567  24.043  22.881  0.3056 -0.0021 -0.1495
37869W        W80782  31.671  27.902   7.473  0.1910 -0.1200  0.3517
37870W        W80783  26.326   5.177  23.552  0.0471  0.0673  0.1143
37871W        W80784  30.499  20.829   3.883 -0.1003  0.0452 -0.1807
37872W        W80785  21.163  30.031  28.164  0.1036 -0.3173 -0.4026
37873W        W80786  25.685  16.515   2.870  0.3302  0.1398 -0.0116
37874W        W80787  32.248   4.562   6.577  0.4136 -0.2585 -0.2019
37875W        W80788   5.942  23.911  24.305  0.0150 -0.1587  0.0109
37876W        W80789  31.699  26.216   0.480 -0.1091 -0.0562  0.0105
37877W        W80790  32.544   1.272   6.677 -0.2506 -0.1457  0.0057
37878W        W80791  18.881  19.782  24.356  0.1229 -0.3073  0.1170
37879W        W80792  29.556  32.727   8.361  0.1996  0.1295  0.0363
37880W        W80793  23.825  25.046  23.532  0.3006 -0.1147 -0.2294
37881W        W80794  30.238  21.838   5.365 -0.0931  0.2127 -0.1769
37882W        W80795  11.222  20.948   5.056  0.3451  0.0852  0.0612
37883W        W80796  28.098  32.852   5.559 -0.1172  0.0009  0.0268
37884W        W80797  25.101  31.818   5.334  0.2968  0.0566  0.2330
37885W        W80798  22.920  33.674   0.118  0.0335 -0.1115 -0.1905
37886W        W80799  28.595  22.146  25.215 -0.5504 -0.1683  0.0492
37887W        W80800  21.781  14.500  25.291  0.1919 -0.2265 -0.1302
37888W        W80801  23.998  30.787   3.272 -0.2166 -0.1492 -0.0282
37889W        W80802  31.797   1.301   4.662 -0.1625  0.2542 -0.0538
37890W        W80803  32.060  30.115   2.845 -0.0516 -0.0840 -0.0981
37891W        W80804  24.300  16.150   8.314 -0.3026 -0.0409  0.0719
37892W        W80805   0.281   0.071   7.852 -0.0154 -0.4611  0.2271
37893W        W80806   5.271   2.738   5.082 -0.1461  0.0716  0.1130
37894W        W80807  31.334   0.659   7.369 -0.0495 -0.0593  0.1271
37895W        W80808  22.686  30.237   5.504 -0.1698 -0.0099  0.2202
37896W        W80809  33.085  25.609   3.388  0.0489  0.1771 -0.1710
37897W        W80810   7.130  30.690   4.696  0.0371  0.3998  0.0150
37898W        W80811   2.872   2.065  24.559  0.0600  0.0746 -0.0949
37899W        W80812  11.511  34.438   3.701 -0.2649 -0.2531  0.3411
37900W        W80813  29.704  22.337   3.810  0.0717 -0.2046 -0.1150
37901W        W80814  21.771  25.532   6.511  0.0173  0.3453  0.1346
37902W        W80815  26.302  33.128  22.702  0.0800 -0.0330  0.3425
37903W        W80816  22.328  12.899  24.119  0.2021  0.1522 -0.0586
37904W        W80817  28.601  17.567   4.065 -0.0502  0.2728  0.1130
37905W        W80818  30.606  26.905   0.206  0.0141  0.0622 -0.1089
37906W        W80819  19.562  20.405  22.659 -0.0363 -0.3369  0.1536
37907W        W80820  24.961  22.245   4.862 -0.1710 -0.2649 -0.1562
37908W        W80821  24.249  17.908  18.932  0.3064  0.1311  0.0809
37909W        W80822  32.537  18.311   2.145 -0.1188 -0.0028  0.4107
37910W        W80823  23.110  27.155   5.225 -0.1682  0.0929  0.1430
37911W        W80824  22.017  29.160   6.602  0.0209 -0.0123  0.0057
37912W        W80825  21.919  21.389  29.459  0.1343  0.0779 -0.3963
37913W        W80826  22.506  18.582   5.095  0.0728 -0.2912  0.0411
37914W        W80827  24.565  32.193   2.013 -0.0599 -0.1357 -0.0575
37915W        W80828  27.299   6.238   3.263  0.1786 -0.0066 -0.1358
37916W        W80829  29.145  33.844   4.177  0.1716 -0.0201 -0.3422
37917W        W80830  27.161  28.876   8.766 -0.1050 -0.1203 -0.0715
37918W        W80831  28.060  30.521   6.865  0.0132 -0.0784 -0.1770
37919W        W80832  24.280  32.565   4.180  0.0116  0.0650 -0.1708
37920W        W80833   0.348   8.091  27.189 -0.0180  0.2058 -0.0723
37921W        W80834  29.159   1.578   2.847 -0.0231 -0.0414 -0.0142
37922W        W80835  26.576  21.278  21.240  0.0105 -0.2774  0.0129
37923W        W80836   1.145  24.174   9.623  0.0779 -0.3185  0.0531
37924W        W80837  29.650  33.531   4.844 -0.2271 -0.1592 -0.3287
37925W        W80838  30.372   0.241  10.494 -0.0009  0.1673 -0.2458
37926W        W80839  24.697  28.291   6.879  0.0933  0.0744 -0.1559
37927W        W80840  25.763  22.013   6.170 -0.1278 -0.1597 -0.1019
37928W        W80841   3.063  31.156   6.164  0.1595 -0.0581 -0.0658
37929W        W80842  25.501  29.821   9.298 -0.3348 -0.0999 -0.0695
37930W        W80843  20.314  23.784   8.027  0.0727 -0.0600  0.1424
37931W        W80844  26.335  24.614   4.967 -0.0214 -0.1250 -0.4113
37932W        W80845  25.429  22.615   6.983 -0.0071  0.1483  0.2846
37933W        W80846  31.140  17.445  25.167 -0.1082  0.0202 -0.1802
37934W        W80847  28.464  25.865   7.554 -0.2395  0.1298 -0.0871
37935W        W80848  27.384  33.586   5.372  0.1521  0.0072 -0.3762
37936W        W80849  31.177   5.862   2.984 -0.1936  0.1810  0.4883
37937W        W80850  24.314  27.356   4.958  0.0342 -0.0141  0.0804
37938W        W80851  27.560   3.619   5.334 -0.0662  0.0445  0.0915
37939W        W80852  15.819  21.944   4.471  0.1385 -0.0344 -0.3221
37940W        W80853  30.348  31.327   0.144 -0.2010  0.0662  0.1172
37941W        W80854   2.800   2.070   8.991 -0.3360  0.1400 -0.0591
37942W        W80855  14.639  24.557   6.491 -0.4103 -0.2329 -0.2854
37943W        W80856  20.641  22.014   6.439  0.0094  0.3534 -0.0863
37944W        W80857  25.846  21.773   5.557 -0.1591 -0.2977  0.1838
37945W        W80858  25.638  30.370   2.767  0.2586  0.0447  0.2460
37946W        W80859  25.211   0.947   8.010  0.4274  0.0252  0.1074
37947W        W80860  28.358  13.745   9.676 -0.0497 -0.0558 -0.1278
37948W        W80861  25.009  15.373   2.934  0.0748 -0.2320  0.2248
37949W        W80862  28.176  28.962  28.963  0.0212  0.1511 -0.1556
37950W        W80863  28.913  28.793   7.579 -0.1142 -0.0510  0.1054
37951W        W80864   2.095  28.883   8.715 -0.0176 -0.0837  0.1261
37952W        W80865  20.993   3.951   4.095  0.2049 -0.0833  0.1907
37953W        W80866  21.731   6.608  28.209 -0.0252  0.0037 -0.1178
37954W        W80867  28.657  26.698   0.393  0.1478 -0.0304  0.1166
37955W        W80868  27.914  29.149  27.000 -0.0161 -0.0762  0.1296
37956W        W80869   0.097   2.098   8.626  0.1641  0.0090  0.2547
37957W        W80870  23.940  26.067   7.005 -0.0368 -0.0038 -0.1202
37958W        W80871  29.299  28.256   7.861 -0.1859 -0.0362 -0.1523
37959W        W80872  18.004  32.942   8.120  0.2616 -0.2067  0.3391
37960W        W80873  14.525  24.831   4.790  0.1729  0.0039  0.4135
37961W        W80874  33.360  20.957  24.565  0.0562 -0.0844  0.0564
37962W        W80875  32.631  29.049   4.286 -0.1217 -0.1162 -0.4234
37963W        W80876  24.905  23.176   0.176 -0.0161  0.3107 -0.2624
37964W        W80877  19.850   9.485  27.234 -0.0793 -0.0252 -0.2625
37965W        W80878  31.588   2.539   9.372  0.2312  0.0359  0.3852
37966W        W80879  29.224   2.399   4.522 -0.2023 -0.0487 -0.3220
37967W        W80880  19.974  23.873   7.693  0.1576 -0.0138 -0.1162
37968W        W80881  25.011  15.523  27.990 -0.0236  0.0163  0.4183
37969W        W80882   0.978  23.915  28.850  0.1800  0.2072 -0.4440
37970W        W80883  23.666  17.983   8.517  0.0547 -0.0106  0.0021
37971W        W80884  32.606  25.300  28.995  0.1113  0.2933 -0.1438
37972W        W80885  20.691  21.783   4.661  0.0193 -0.1993 -0.3976
37973W        W80886  24.023  27.099   7.612  0.1428  0.0453 -0.0242
37974W        W80887  25.999  28.318   2.879 -0.1141 -0.1754  0.0685
37975W        W80888  31.210  28.450   4.380  0.4589 -0.2900 -0.0626
37976W        W80889   0.727  16.395   5.901 -0.0506 -0.2070 -0.2961
37977W        W80890   1.311  28.461   3.558 -0.1260  0.2214  0.2993
37978W        W80891  25.330  20.147   6.184 -0.1058 -0.3521 -0.0664
37979W        W80892  15.657  29.443  27.603 -0.2487 -0.0955  0.0665
37980W        W80893  20.502  23.317  29.415  0.5275 -0.0152  0.0852
37981W        W80894  27.586   8.429  24.907  0.0412 -0.2433 -0.1631
37982W        W80895  31.668  16.740   6.407 -0.1684  0.0736  0.0522
37983W        W80896  19.513  24.303   6.850 -0.2646  0.1533 -0.2140
37984W        W80897  31.801  30.018   7.523  0.1054  0.2752  0.1133
37985W        W80898  27.724  12.398   7.596  0.1705 -0.0990 -0.0896
37986W        W80899  10.746  29.725   5.322 -0.1560  0.2485  0.1489
37987W        W80900  20.896  21.841   6.038 -0.1730  0.0551  0.0209
37988W        W80901  24.416  31.153  29.197  0.2002  0.2155 -0.0083
37989W        W80902  25.298  17.532   1.813 -0.2209  0.2430  0.2226
37990W        W80903  22.057   8.209  26.221 -0.3100 -0.3364  0.3689
37991W        W80904  28.437  29.084   9.032 -0.1793  0.3299  0.1111
37992W        W80905  27.443  31.899   3.142 -0.1026 -0.3464  0.1633
37993W        W80906   7.282   3.205  29.609  0.2145 -0.1051  0.0255
37994W        W80907  21.772  30.276   5.876  0.0623  0.1154 -0.0706
37995W        W80908  30.083  26.406   6.843 -0.2148  0.0554 -0.2303
37996W        W80909   5.481  26.372   8.997  0.3217 -0.2799 -0.0360
37997W        W80910  13.122   0.004  10.854  0.0898  0.1384 -0.1691
37998W        W80911  26.572  34.372   7.850 -0.0949  0.0248 -0.0970
37999W        W80912  27.755  19.718   4.821 -0.1428 -0.2452 -0.1536
38000W        W80913  22.094  26.477   0.050 -0.0533  0.1390  0.0383
38001W        W80914  30.776  34.106   9.627  0.1391  0.0802 -0.0987
38002W        W80915  18.020  15.842   6.201 -0.0694  0.2099  0.1917
38003W        W80916  10.233  29.354   2.239 -0.0607 -0.1542 -0.0319
38004W        W80917  30.945  32.731   5.535 -0.2316 -0.1220 -0.0016
38005W        W80918   1.049   0.253   8.704 -0.1018 -0.0632  0.0924
38006W        W80919  27.744  15.815   6.069 -0.0153 -0.0309  0.0363
38007W        W80920  17.080  32.832   1.250 -0.3005  0.0243 -0.2115
38008W        W80921  31.267  26.467   5.765 -0.1198 -0.4059 -0.1226
38009W        W80922  29.238  32.995  24.483  0.1924  0.1525  0.2039
38010W        W80923  23.960   2.163   5.423 -0.0117 -0.0703  0.4201
38011W        W80924  25.065  32.430   6.177 -0.2468 -0.2015  0.0095
38012W        W80925  22.221  28.267  26.651  0.1558  0.1526  0.0913
38013W        W80926  22.314  18.398  24.564 -0.0622 -0.3018  0.1210
38014W        W80927  30.752  23.525   5.864  0.0661  0.0562  0.0393
38015W        W80928  33.234  32.479   6.311  0.1761  0.4156  0.0581
38016W        W80929  20.871  21.822   7.294 -0.0669 -0.3608  0.0768
38017W        W80930  32.378  29.465   9.419  0.1421 -0.1245 -0.1699
38018W        W80931  21.622  26.545   6.226  0.1467 -0.1535 -0.1053
38019W        W80932  23.974   0.430   2.155 -0.0537 -0.1829  0.0941
38020W        W80933   3.569  24.705   0.907 -0.0265 -0.1122 -0.0230
38021W        W80934  24.522  17.961   5.839 -0.0419  0.1083 -0.0399
38022W        W80935  18.177  27.251   3.658 -0.1573 -0.0608  0.0374
38023W        W80936   2.516  26.445   9.146 -0.0622 -0.1884 -0.2216
38024W        W80937   5.559  29.341   9.498 -0.0437  0.1594  0.1192
38025W        W80938  19.540  18.364  23.626 -0.1205 -0.1514 -0.2836
38026W        W80939   6.196  25.455   5.935  0.2522  0.1250 -0.0578
38027W        W80940  19.335  28.490   1.072 -0.0670  0.1069  0.0581
38028W        W80941   5.964   5.121  10.189  0.2642  0.0603 -0.3160
38029W        W80942  25.901  24.769   0.449  0.2348 -0.0168  0.2506
38030W        W80943  22.342  18.269  28.706  0.2202  0.0455 -0.0454
38031W        W80944  33.676  32.165   4.893 -0.0249  0.2902  0.0901
38032W        W80945  26.070  23.130   0.984 -0.1829  0.4486  0.0209
38033W        W80946  16.091  24.903   4.126  0.1578  0.3699  0.0967
38034W        W80947  33.541  11.770   9.370 -0.2177  0.1051 -0.1812
38035W        W80948   2.446   3.137  29.288 -0.1402  0.1672  0.1680
38036W        W80949  27.169  23.304   8.722 -0.0612  0.3073 -0.1324
38037W        W80950  28.115  17.076   7.343  0.0690  0.1229 -0.1619
38038W        W80951  24.268  30.319   4.023  0.1263 -0.1345 -0.1301
38039W        W80952  19.151  31.440   6.121  0.0305  0.2081  0.0375
38040W        W80953  24.656  25.535  27.362 -0.2486  0.3453  0.1154
38041W        W80954  29.414  31.628   3.084  0.0558  0.1878  0.0739
38042W        W80955  23.084   4.621   9.854 -0.2487  0.0612 -0.2016
38043W        W80956  17.249   0.789   4.839  0.0805 -0.0091 -0.0726
38044W        W80957  29.384  25.179   4.257  0.2681  0.0835  0.1127
38045W        W80958  22.586  31.736  28.445 -0.0333 -0.1598 -0.0689
38046W        W80959  20.120  18.727   3.396 -0.0361  0.2218  0.0135
38047W        W80960  31.527  25.127   6.066  0.1673  0.0466 -0.1665
38048W        W80961  21.006  24.579  28.738  0.0294 -0.0081  0.1567
38049W        W80962  23.167  25.889   2.398 -0.1327  0.1073  0.1587
38050W        W80963  24.196  11.907   4.398 -0.5073  0.2481 -0.2927
38051W        W80964  33.572  33.079   5.157 -0.1115  0.3183 -0.2513
38052W        W80965  27.657  26.198   0.317 -0.2506 -0.2492  0.2731
38053W        W80966   2.987  33.785   9.025  0.1794  0.1509 -0.0184
38054W        W80967  31.660  18.871  28.230  0.1812  0.1507  0.3737
38055W        W80968  33.557  32.454   2.192 -0.0783  0.1454  0.0551
38056W        W80969   2.486  28.134   3.777  0.0864  0.1801  0.0005
38057W        W80970   0.149  32.440   7.016  0.2744 -0.1812  0.0363
38058W        W80971  32.055  26.103  28.532 -0.2108  0.3371 -0.0324
38059W        W80972  33.648  28.267  29.307 -0.0863  0.0756  0.1641
38060W        W80973  27.089  28.782   1.174  0.1876 -0.1674 -0.0973
38061W        W80974  33.164  20.191   3.152  0.1329 -0.1646  0.0435
38062W        W80975  30.153   0.538   6.610 -0.1904 -0.0106 -0.0965
38063W        W80976  28.037  25.045  29.754 -0.2336 -0.1596 -0.1125
38064W        W80977  15.784  25.372  28.359 -0.0314  0.2652 -0.0714
38065W        W80978  20.339  15.083  28.477  0.2465  0.2550 -0.0008
38066W        W80979  33.868  30.018  24.998 -0.1399  0.1110 -0.0141
38067W        W80980  15.892  29.781   6.868 -0.2504  0.0744 -0.4493
38068W        W80981  27.104  32.852   6.820  0.1989  0.0222 -0.3019
38069W        W80982  30.735  29.547   5.703 -0.0638  0.0983 -0.2152
38070W        W80983  22.578  27.028   4.029  0.4203 -0.0675  0.0089
38071W        W80984  27.331  32.833   8.378  0.0482  0.0136 -0.0876
38072W        W80985  17.163  19.542   7.700 -0.2021  0.1416 -0.1375
38073W        W80986  22.752  33.403   3.789 -0.2428  0.0745 -0.0506
38074W        W80987  19.978  26.963   5.595  0.0365 -0.1473  0.3130
38075W        W80988   0.871   8.509   5.659  0.0992 -0.0045 -0.2190
38076W        W80989  29.273   2.243   3.708  0.2220 -0.1412 -0.2498
38077W        W80990  26.936  15.942   4.485 -0.1467  0.0503  0.1973
38078W        W80991  33.164   0.445   7.379 -0.2299  0.1194 -0.1495
38079W        W80992  21.748  22.346  29.532  0.4145  0.1084  0.2071
38080W        W80993  13.852  29.096  21.789 -0.0314 -0.2718 -0.1811
38081W        W80994  25.552  30.177   4.283 -0.0090  0.2860  0.0224
38082W        W80995  21.481  27.331   3.235 -0.2158  0.2019 -0.0331
38083W        W80996   5.922  14.905   6.283  0.2014 -0.2439 -0.0545
38084W        W80997  29.237  25.255   3.739  0.0510  0.2042  0.0323
38085W        W80998  21.642  26.558   1.491 -0.1360 -0.0608  0.1255
38086W        W80999  27.099  29.544   3.578 -0.0702 -0.1282 -0.1145
38087W        W81000  24.147  21.712   5.825 -0.0055 -0.1060 -0.0458
38088W        W81001  19.619  24.068   3.448  0.1495  0.0781  0.2266
38089W        W81002   1.066   0.598   9.788  0.1292  0.1077 -0.1303
38090W        W81003  22.161  32.332   7.725 -0.2730 -0.0995  0.1072
38091W        W81004  21.218  28.084   6.865 -0.1653  0.0361 -0.0812
38092W        W81005  24.096  25.281   7.725  0.1157 -0.3070  0.3054
38093W        W81006  24.374  14.125   4.439  0.0051  0.4788  0.1871
38094W        W81007  29.555  33.774   0.554 -0.1175 -0.0512  0.1486
38095W        W81008  21.474  22.532   7.236  0.1378  0.2243  0.1778
38096W        W81009  20.604  26.658   8.799 -0.3122  0.1224 -0.0463
38097W        W81010  15.098  19.328   4.682  0.2142  0.2187  0.1233
38098W        W81011  29.196  22.661  27.369  0.2320  0.0449 -0.0309
38099W        W81012  19.383  33.500   7.675  0.1295  0.1351  0.0867
38100W        W81013   0.542  32.141   6.724  0.2360  0.1448 -0.0003
38101W        W81014  19.455  28.136   2.547  0.1789  0.5239 -0.1199
38102W        W81015  21.085  32.826   4.287  0.2504  0.1025 -0.0462
38103W        W81016  27.249  33.045   9.693  0.0425  0.3268  0.1456
38104W        W81017  31.750  32.091   9.882  0.1495 -0.1024  0.1086
38105W        W81018  24.584  27.041  27.748 -0.1330 -0.0865  0.1614
38106W        W81019   6.149  10.854   2.453  0.2728 -0.0802 -0.1338
38107W        W81020  33.929   0.717   7.454  0.0778  0.0840  0.2353
38108W        W81021  16.993  31.578  10.096  0.1568 -0.0538 -0.3663
38109W        W81022  32.592  34.404  28.115 -0.0242  0.0621 -0.1542
38110W        W81023  24.958  20.214   9.439 -0.1111  0.1174  0.3224
38111W        W81024  26.763  23.037   8.735 -0.0316 -0.0787  0.1898
38112W        W81025  26.658  24.066   6.938  0.0399  0.3997 -0.2012
38113W        W81026  32.859   3.035   9.251  0.0455  0.0738 -0.1525
38114W        W81027   3.171  13.201   2.007 -0.6449 -0.1186 -0.0093
38115W        W81028  31.206  27.082  10.002  0.2461 -0.2051  0.0198
38116W        W81029  29.706  24.162   4.482 -0.0160 -0.2263  0.2041
38117W        W81030  31.539  26.724   9.843 -0.1739  0.3696  0.0825
38118W        W81031  19.257  20.203   6.032  0.2583  0.1010  0.2271
38119W        W81032  28.877  34.392   7.730  0.0349 -0.2110 -0.1552
38120W        W81033  19.062  27.601  28.490  0.2711 -0.0386 -0.0709
38121W        W81034  29.290  20.187   0.724 -0.1329 -0.2654  0.0076
38122W        W81035  21.165  26.024   5.588  0.0085  0.0880  0.0564
38123W        W81036  23.960  24.783   6.490 -0.0267  0.1154  0.2193
38124W        W81037  23.001  26.214  28.928  0.1285  0.2498  0.0145
38125W        W81038  29.891  23.875   5.090  0.2349 -0.4752 -0.2142
38126W        W81039  21.856  23.251   0.346  0.0111 -0.1676  0.1225
38127W        W81040  14.600   1.441   0.286  0.3068  0.0512  0.1981
38128W        W81041  26.509  25.311   3.085  0.1777  0.0638  0.1738
38129W        W81042  21.680  21.382   2.508 -0.0263  0.1309  0.0160
38130W        W81043  23.016  28.409   8.330 -0.1322  0.2253  0.1495
38131W        W81044  10.046  27.234  29.417 -0.2007 -0.0797 -0.1442
38132W        W81045  29.331  32.250   8.449 -0.2429  0.2806  0.1731
38133W        W81046  23.789  18.835   5.038 -0.1122  0.1860  0.1394
38134W        W81047  28.720  23.043   5.206  0.0782 -0.1575 -0.1283
38135W        W81048  24.285  24.643   4.590 -0.0178 -0.1679  0.0659
38136W        W81049  30.769  27.660   1.855  0.1017  0.3627  0.0293
38137W        W81050  22.078  32.235   8.657  0.0076  0.1248 -0.0270
38138W        W81051  11.945  25.523   4.375 -0.1020 -0.3508 -0.1667
38139W        W81052  25.025  28.899   4.099 -0.0932 -0.0175  0.2572
38140W        W81053   3.591  28.572   5.504  0.0489  0.0075 -0.0669
38141W        W81054  29.315   6.739   3.399  0.2330  0.2747  0.1720
38142W        W81055  13.881  25.007   7.089  0.0058  0.2562  0.2798
38143W        W81056   5.586   0.699   8.616  0.0016 -0.0661  0.2611
38144W        W81057  30.643   1.139  10.944  0.1510 -0.0934 -0.1668
38145W        W81058  19.026   1.508  28.661 -0.1761 -0.0422 -0.0681
38146W        W81059  30.179  26.566   4.882 -0.2538  0.0492  0.0339
38147W        W81060  17.949  31.570  26.806 -0.1069 -0.0513 -0.3434
38148W        W81061   1.471   5.777   7.418 -0.0041 -0.0055 -0.0122
38149W        W81062  29.557   3.881   8.383 -0.0583  0.1625  0.0386
38150W        W81063  32.162  14.996   2.487 -0.3368  0.0016 -0.0081
38151W        W81064  30.348  24.740  23.922  0.3139 -0.3288 -0.0066
38152W        W81065  23.035  23.418   7.363 -0.0024 -0.1353  0.0602
38153W        W81066   9.361   5.680   0.640  0.0283  0.0766  0.0896
38154W        W81067  14.207  26.378  20.485 -0.4544 -0.2253 -0.0200
38155W        W81068  21.118  22.729   2.903  0.0497 -0.0797 -0.0109
38156W        W81069  24.282  26.154   6.521  0.2119 -0.1915 -0.0988
38157W        W81070  15.993  22.980   1.481  0.3436  0.0817 -0.1573
38158W        W81071  27.687  19.667   2.979 -0.1403  0.0241  0.1088
38159W        W81072  27.617   1.946   7.206 -0.1820  0.0980  0.1203
38160W        W81073  29.656   0.773   6.726  0.0854  0.1300  0.0368
38161W        W81074  27.608  34.017   5.057  0.4524  0.3581  0.5532
38162W        W81075   9.427  30.565   2.123  0.1614  0.2749  0.1534
38163W        W81076  27.764  30.556   8.664  0.1241  0.1978 -0.0270
38164W        W81077  12.724  27.535   1.769 -0.0457 -0.4013  0.0775
38165W        W81078  30.754  29.685   5.086  0.2602 -0.4384  0.0840
38166W        W81079  19.163  20.808   3.809 -0.2138  0.1672 -0.1489
38167W        W81080  19.675  16.793   0.474  0.0977 -0.1500  0.4909
38168W        W81081  32.321  23.998   0.057 -0.0465 -0.1422 -0.0785
38169W        W81082  26.313   6.329   5.146  0.0747  0.0961  0.0464
38170W        W81083  25.415  31.253  29.603 -0.0959 -0.1195 -0.2934
38171W        W81084  22.794  22.567   4.171  0.2521  0.2005  0.2497
38172W        W81085  24.710  27.816  26.395  0.0615  0.1802  0.0321
38173W        W81086   8.244  21.717  27.471 -0.0943  0.0923  0.2322
38174W        W81087  27.091  19.272  26.982 -0.1534 -0.1937 -0.0020
38175W        W81088  25.062  15.885   4.151  0.3605 -0.0933  0.0718
38176W        W81089  25.628  34.037   6.912  0.0339  0.0306  0.0118
38177W        W81090  32.549  33.380   3.154  0.0114  0.0157  0.0447
38178W        W81091  22.218  16.382   2.231  0.2761 -0.0556 -0.0090
38179W        W81092  33.079   3.347  10.144 -0.3638  0.2861 -0.1073
38180W        W81093  15.559   2.719   1.570  0.3818  0.0722  0.4238
38181W        W81094   0.056  22.796   7.705 -0.4359 -0.3723  0.1159
38182W        W81095  25.355  30.225   9.000 -0.1498 -0.1858  0.0776
38183W        W81096  26.446  31.534   5.393 -0.1477 -0.3311 -0.5529
38184W        W81097  29.647  30.091   6.535  0.0274 -0.2142  0.0208
38185W        W81098  20.157  32.319   9.257  0.2750  0.0499 -0.2129
38186W        W81099  32.086   2.515   5.732 -0.0377  0.2499 -0.1581
38187W        W81100  21.528  23.154   2.478  0.2933 -0.0645 -0.1976
38188W        W81101  32.946  29.404   3.028  0.0042  0.0647 -0.0296
38189W        W81102  32.002  25.332   9.527  0.2806  0.3392 -0.0052
38190W        W81103  27.926  24.565   5.842  0.1331  0.1074 -0.5092
38191W        W81104  31.686  26.867   3.291 -0.0266  0.2175  0.1659
38192W        W81105  17.573  34.401   4.868 -0.1561  0.0647 -0.2818
38193W        W81106   3.968  31.559   2.799 -0.1868  0.0191 -0.1675
38194W        W81107  24.103  22.167   2.821  0.0404 -0.0971  0.2271
38195W        W81108  32.365   5.067   1.918  0.0167 -0.0606  0.2465
38196W        W81109  19.976  27.518   3.174 -0.0648 -0.0829  0.0673
38197W        W81110  25.260  22.479   3.413 -0.1030  0.2292 -0.2530
38198W        W81111  17.525  33.265  23.157 -0.1325 -0.3796  0.0236
38199W        W81112   0.199   5.901   7.828 -0.0531  0.0394 -0.1821
38200W        W81113  29.990  24.430   8.780  0.0030 -0.0144  0.0686
38201W        W81114  15.503  20.661   6.586  0.0291 -0.0447  0.1309
38202W        W81115  17.074  26.749   2.781  0.3081 -0.0561  0.1166
38203W        W81116  29.033  24.589   0.235 -0.0439  0.2011 -0.2421
38204W        W81117  32.723  26.598  27.052 -0.0488  0.0709 -0.1952
38205W        W81118  34.490  24.606   7.850 -0.1610  0.3120  0.2021
38206W        W81119  30.082  26.032   8.636 -0.0418  0.1711  0.4869
38207W        W81120  30.228  29.387   7.937  0.0487 -0.0569  0.2515
38208W        W81121   0.367   5.496   3.033 -0.0099  0.0873  0.2242
38209W        W81122  19.736  30.307   7.436 -0.1495  0.3791 -0.4187
38210W        W81123  30.139  22.383   3.512 -0.0386 -0.1820  0.1135
38211W        W81124   2.559   3.221  10.775 -0.0868 -0.0918 -0.2327
38212W        W81125  33.570   7.749  25.993 -0.2224 -0.1966  0.2657
38213W        W81126  21.444   0.030   6.008  0.1411  0.1398 -0.2422
38214W        W81127  23.230   4.442   5.990  0.1571  0.2629  0.3366
38215W        W81128  19.094  22.627   8.425 -0.2303  0.1668 -0.0354
38216W        W81129  25.484  28.142   9.172 -0.4237  0.0699  0.0033
38217W        W81130   0.507  22.004   3.127  0.2888 -0.1703  0.1580
38218W        W81131  29.132  29.017   8.436 -0.0056  0.1048  0.1526
38219W        W81132   2.967  25.849   2.868 -0.0759  0.0440 -0.0140
38220W        W81133  24.703  33.089   5.164 -0.0223 -0.1389 -0.1333
38221W        W81134  28.348   5.184   8.279  0.0237  0.1091 -0.0943
38222W        W81135  19.075  27.342   3.433 -0.1142 -0.3063  0.0322
38223W        W81136  23.569  13.810   4.122 -0.0090 -0.0304  0.0473
38224W        W81137  26.743  24.994   2.775  0.1173 -0.0384 -0.1682
38225W        W81138  22.792  27.411   7.146 -0.2293 -0.2004  0.0077
38226W        W81139  24.287  16.363  29.214 -0.3196  0.1909  0.0680
38227W        W81140  32.558  33.869   5.193  0.1615 -0.2020  0.0998
38228W        W81141  28.040   4.859   1.411  0.0436  0.0250 -0.4884
38229W        W81142  27.870  32.068  28.673  0.1640  0.0683  0.0337
38230W        W81143  14.278  27.825  23.857  0.0604 -0.0281  0.0703
38231W        W81144  23.204  20.134  27.887 -0.0252  0.1612 -0.1089
38232W        W81145  30.748  24.301   6.214  0.0909  0.0375 -0.0715
38233W        W81146  26.139  19.313   5.329  0.1602 -0.0756 -0.0379
38234W        W81147  21.046  30.313   5.408 -0.3417 -0.1968 -0.4652
38235W        W81148  24.256  27.191   5.764 -0.1660 -0.0612 -0.1558
38236W        W81149  14.506  21.053   2.666 -0.3722 -0.0512 -0.1136
38237W        W81150  11.887  33.420  26.141  0.1256 -0.0819 -0.0721
38238W        W81151   1.915  23.190   5.855 -0.0452 -0.0534  0.0490
38239W        W81152  31.448  21.562  29.342  0.0563  0.1877 -0.3019
38240W        W81153  16.686  26.307   4.505  0.2312  0.1110  0.2826
38241W        W81154  27.776   6.546   1.833 -0.1954 -0.0067  0.0079
38242W        W81155  21.488  30.688   8.701  0.0747  0.1975 -0.3258
38243W        W81156  30.859  19.313   0.003 -0.2914  0.0385  0.0046
38244W        W81157  11.120  18.582   7.528 -0.0595 -0.2120 -0.1997
38245W        W81158  31.035   0.814  10.055 -0.2431 -0.1760 -0.0377
38246W        W81159  34.200  34.124   2.092  0.2793  0.1314  0.2566
38247W        W81160  32.771  26.593   2.263 -0.1242  0.1232 -0.1436
38248W        W81161  28.442  30.785   8.174  0.0019  0.2339  0.2672
38249W        W81162  23.421  20.548   7.639  0.1047  0.5027 -0.1672
38250W        W81163  19.799  22.900   7.573 -0.0271  0.0595 -0.0467
38251W        W81164  26.219  26.593   6.044  0.0795  0.1062 -0.3262
38252W        W81165  29.081  19.332   7.451 -0.1096 -0.1211  0.2158
38253W        W81166  21.123  18.177   6.856  0.0070 -0.2253  0.2164
38254W        W81167  27.318  26.828   9.484  0.0437  0.2532  0.1718
38255W        W81168   0.785  31.644   9.960  0.3301  0.2190 -0.1900
38256W        W81169  27.872  26.560   3.429 -0.3097  0.0702 -0.1904
38257W        W81170  16.606  31.956   9.022 -0.0850 -0.3284 -0.1472
38258W        W81171  20.057  28.043   3.405 -0.0125  0.0359 -0.2088
38259W        W81172  25.190  27.237   2.512 -0.0348 -0.0807 -0.0174
38260W        W81173  33.960   1.904  27.884 -0.2777  0.0469 -0.0487
38261W        W81174  25.087  25.603   1.000 -0.1037  0.0968  0.1796
38262W        W81175  30.407  34.187   5.974  0.0283 -0.2433  0.0834
38263W        W81176  19.749  19.257  22.549  0.3482  0.0389 -0.0010
38264W        W81177  23.403  25.993   6.986 -0.0162 -0.0290 -0.1533
38265W        W81178  27.544   7.602   6.704 -0.3535 -0.0670  0.2813
38266W        W81179  29.070   1.446   9.140 -0.2810 -0.0801 -0.4849
38267W        W81180  18.416  26.880   0.435  0.0823  0.4449 -0.0969
38268W        W81181  20.356  26.600   3.600  0.2271 -0.2541  0.1666
38269W        W81182  25.074  32.894   1.366 -0.0209  0.0875 -0.0568
38270W        W81183  27.098  16.346   5.463 -0.1465  0.0117  0.3031
38271W        W81184  14.113  17.051   7.825 -0.1515  0.1606  0.1936
38272W        W81185  17.184  33.162  28.083 -0.1349  0.0592 -0.1311
38273W        W81186  22.343  31.621  27.329  0.1068 -0.2023 -0.1074
38274W        W81187  27.935   3.929   7.606 -0.0066  0.1055 -0.0477
38275W        W81188  25.231  22.764   2.511 -0.1769 -0.0857 -0.2524
38276W        W81189  30.732  30.110  19.353  0.0092 -0.3074 -0.3881
38277W        W81190  30.131  28.463   8.546 -0.0084  0.5600 -0.0454
38278W        W81191  32.975  25.131   6.210  0.2919 -0.2337  0.1915
38279W        W81192   0.259  25.559   2.418  0.0736  0.2061  0.1769
38280W        W81193  28.159  29.861   2.830 -0.2694  0.1972 -0.3267
38281W        W81194  30.273  26.679   5.992  0.1018  0.1635  0.1617
38282W        W81195  29.136  21.151   8.421 -0.2626 -0.1600 -0.0759
38283W        W81196  28.943  32.531   8.255 -0.2497 -0.1742 -0.0856
38284W        W81197  33.324  27.923   3.552  0.2258  0.1584 -0.2256
38285W        W81198  23.199  16.197   4.509 -0.0602 -0.1536  0.1325
38286W        W81199  32.422  31.418   0.388  0.1733  0.0050  0.1192
38287W        W81200  31.943  31.539   9.004 -0.0721  0.1026 -0.1790
38288W        W81201  11.359  14.312   3.359  0.2868 -0.1724  0.0725
38289W        W81202   2.152  32.066   7.621 -0.1135 -0.2168 -0.2152
38290W        W81203  21.040  23.552   5.270 -0.0157 -0.4350  0.1543
38291W        W81204  22.237  18.275   3.166 -0.2515  0.0171  0.1649
38292W        W81205  27.406  34.108   7.549 -0.0952 -0.1392 -0.0727
38293W        W81206  24.918  23.790   6.013 -0.4033 -0.3424  0.4135
38294W        W81207  23.565  25.623   5.006  0.1554  0.0331 -0.1522
38295W        W81208  29.888   6.372   9.340 -0.1142  0.1248 -0.2538
38296W        W81209  30.199  31.258   4.717 -0.0640 -0.0008  0.0694
38297W        W81210  29.369  30.637   7.576 -0.0027  0.1247 -0.0283
38298W        W81211   0.211  28.709   4.030  0.0049 -0.1400  0.1018
38299W        W81212  33.847  24.797   8.045 -0.0702 -0.1781  0.2229
38300W        W81213   0.634  31.234  26.231  0.0183  0.0555  0.1161
38301W        W81214   4.225  12.503  29.039  0.1588 -0.3650  0.0549
38302W        W81215  22.927  24.524   1.662 -0.2277 -0.0389  0.1621
38303W        W81216  19.829  22.242   6.323  0.1339 -0.0852 -0.1472
38304W        W81217  32.774  15.109   2.442 -0.2422  0.3266 -0.1938
38305W        W81218  25.853  21.025   5.988 -0.0435 -0.2530  0.1936
38306W        W81219  34.111   1.959   8.031 -0.1426  0.1260  0.0056
38307W        W81220  28.028  24.129   5.557 -0.0653 -0.2030  0.0388
38308W        W81221  22.977  14.373   4.708 -0.1020  0.1070 -0.2123
38309W        W81222  31.078  17.961  25.289  0.3466  0.4026  0.1973
38310W        W81223  27.736  27.215   4.204  0.1635  0.3390  0.0103
38311W        W81224  27.266  32.364   6.711 -0.0187 -0.1276 -0.1328
38312W        W81225  33.964  33.579   8.507  0.1341  0.2348 -0.0343
38313W        W81226   0.845  23.857   4.114  0.2107 -0.1960  0.1712
38314W        W81227  28.218   4.808   5.718 -0.1962 -0.2831 -0.1128
38315W        W81228  30.956  29.721   6.877  0.1443  0.0234  0.2152
38316W        W81229   4.904  14.954  24.985  0.3946  0.4014  0.0583
38317W        W81230  28.204  28.769   0.446 -0.0610 -0.2819 -0.1400
38318W        W81231   0.655   1.821  25.650 -0.1269 -0.2313  0.3112
38319W        W81232   2.172  29.160   8.264  0.1198  0.1041 -0.0001
38320W        W81233  18.011   1.037   1.263 -0.3137  0.0286 -0.0241
38321W        W81234  23.169  20.618   2.219 -0.1098  0.0366  0.3548
38322W        W81235  24.114  34.463   1.631  0.0767  0.2844  0.2395
38323W        W81236  19.388  28.156   5.904  0.0037 -0.1622 -0.1408
38324W        W81237  22.103  31.576   3.508  0.3073 -0.1459  0.3785
38325W        W81238  10.717  21.786  17.456  0.2527 -0.2372 -0.0736
38326W        W81239  32.414   0.437   4.101  0.1383 -0.0722  0.0418
38327W        W81240   8.378  21.216   7.676  0.0499  0.1956 -0.0281
38328W        W81241  23.647  26.159   7.457 -0.0620 -0.0201 -0.0344
38329W        W81242  23.767  21.072  27.091 -0.0422  0.1166  0.0386
38330W        W81243  33.795  34.266   5.004  0.0121 -0.2091 -0.0521
38331W        W81244  20.539  22.794   2.528 -0.3360 -0.0496 -0.1231
38332W        W81245  22.292  22.373   2.373 -0.4139  0.0652  0.0839
38333W        W81246  20.978  14.900   6.201 -0.0680  0.0586  0.1684
38334W        W81247  29.428  33.903   6.725  0.0065 -0.0552 -0.0752
38335W        W81248  23.687  28.211   3.187 -0.4126 -0.2961 -0.0753
38336W        W81249  32.485   2.501   3.214  0.0097 -0.3922 -0.1026
38337W        W81250  32.667  33.886   7.430 -0.0599 -0.0768  0.1337
38338W        W81251   2.886  24.313   9.860 -0.0014  0.1999  0.1673
38339W        W81252   5.226  24.151   5.192 -0.0120 -0.0472  0.0860
38340W        W81253  19.659  13.749  27.044  0.0369 -0.0983  0.1090
38341W        W81254   6.302  33.467  29.714  0.0349  0.2523 -0.1564
38342W        W81255  25.214  16.280   0.964  0.2539 -0.2352 -0.0482
38343W        W81256  20.824  29.686   4.672  0.0813  0.0407 -0.1994
38344W        W81257  27.263  20.586   0.590 -0.0301  0.3163 -0.1460
38345W        W81258  28.564  24.213   9.062 -0.1813  0.2167 -0.0408
38346W        W81259  32.578   5.201   7.757 -0.2054  0.2829  0.1205
38347W        W81260  22.573  21.107   5.999  0.1132  0.0732 -0.1678
38348W        W81261  30.219  32.208   4.003 -0.0136  0.2606  0.0236
38349W        W81262  27.265  21.557   3.592  0.0363 -0.2471  0.0209
38350W        W81263  28.163  32.512  28.572  0.1044  0.1092  0.1074
38351W        W81264  21.330  25.272   3.912 -0.2255  0.0664  0.2427
38352W        W81265  32.489  15.102   4.037 -0.1878 -0.1851  0.1081
38353W        W81266  24.544  22.187  27.517  0.2155 -0.1540  0.2246
38354W        W81267  32.861  34.219   0.219  0.2208 -0.0588 -0.0711
38355W        W81268   6.936  20.745   7.543  0.1931 -0.1557  0.1836
38356W        W81269  32.074  23.412   9.436 -0.0353 -0.2476  0.2066
38357W        W81270   5.920   2.388   5.912 -0.0318 -0.0849  0.0326
38358W        W81271   2.472  28.683   7.252  0.0255  0.1220  0.3110
38359W        W81272  24.727  20.145  28.962 -0.1325 -0.0718  0.0361
38360W        W81273  19.727  27.737   6.735 -0.1445  0.0247  0.1845
38361W        W81274  29.697  31.170   9.958  0.0883  0.0224  0.1457
38362W        W81275  28.093  26.687   0.306 -0.1106 -0.0301  0.1726
38363W        W81276  26.207  22.679   8.142  0.1069 -0.0593  0.0534
38364W        W81277  25.337  31.072   6.602 -0.3613  0.1844 -0.2714
38365W        W81278  25.364  23.990   2.938  0.2212  0.3986 -0.2899
38366W        W81279  31.088   5.054   8.470  0.2872 -0.1786  0.2278
38367W        W81280  29.190  29.922   8.101  0.1461  0.2470 -0.0143
38368W        W81281  23.332  22.860   7.304 -0.0195 -0.2318 -0.2417
38369W        W81282  16.179  29.924   7.315  0.0105  0.1248 -0.1717
38370W        W81283   3.584  28.776  28.624 -0.2378  0.0333  0.1238
38371W        W81284  31.767   2.609  10.946  0.1941 -0.2932 -0.0791
38372W        W81285  29.296  24.829   6.489  0.1944 -0.1536  0.0719
38373W        W81286  29.253  27.425   6.858 -0.0746 -0.0559  0.2869
38374W        W81287  24.972  34.451   3.778 -0.0189  0.0842 -0.0377
38375W        W81288  15.549  31.455  27.858 -0.0212 -0.0563 -0.2511
38376W        W81289  13.278  32.141   9.480  0.0587 -0.2064  0.1464
38377W        W81290  28.471  26.390   7.658  0.1359 -0.3335  0.0249
38378W        W81291  17.892  25.245   8.370  0.0412 -0.2919 -0.3434
38379W        W81292   6.455  19.994   0.078  0.4775  0.1093 -0.1915
38380W        W81293  29.779  12.654   8.835 -0.4233 -0.1117  0.2040
38381W        W81294   6.727  31.780  10.333 -0.1919  0.0604  0.1469
38382W        W81295  10.999  24.183   7.585 -0.0461  0.0634  0.0264
38383W        W81296  34.024  30.345   7.372  0.1096 -0.1620 -0.2920
38384W        W81297  19.970  25.434   7.418  0.0802  0.1931 -0.0390
38385W        W81298  13.031  23.997   1.483  0.4034 -0.1108 -0.2000
38386W        W81299  33.802  27.782   9.452  0.0417  0.1675  0.0198
38387W        W81300  23.480  27.984   5.559  0.1903  0.1898  0.0731
38388W        W81301  26.747   7.518  27.503 -0.1826 -0.3378 -0.1341
38389W        W81302  22.665  22.828  27.672  0.0944 -0.0660 -0.1887
38390W        W81303  19.886  16.520   4.323 -0.2638 -0.2792  0.1324
38391W        W81304  30.487  32.232  26.203  0.1809  0.0819 -0.1207
38392W        W81305  26.456  33.914   7.234  0.2509 -0.1161  0.0197
38393W        W81306  31.414  20.953   3.589  0.1228  0.3558  0.2321
38394W        W81307  31.666  29.927   8.037  0.1474 -0.1047  0.0091
38395W        W81308  22.414  24.704   4.580  0.0021  0.1651 -0.1053
38396W        W81309  32.840  28.722   1.879  0.4569  0.0040 -0.2076
38397W        W81310  27.502  33.202  23.498  0.3614  0.3285 -0.0854
38398W        W81311  33.610  26.640   1.873 -0.1263 -0.1507 -0.0144
38399W        W81312  33.305  29.746   8.749 -0.3853  0.0418 -0.1454
38400W        W81313  34.318   1.152  10.645 -0.0986 -0.0442 -0.0488
38401W        W81314  23.180   5.298   6.255 -0.0075  0.1064  0.2713
38402W        W81315  28.797  12.443   3.464 -0.0697  0.1622  0.2123
38403W        W81316  24.603  30.690  27.840  0.2872 -0.0548  0.0458
38404W        W81317  16.669  28.205   9.012  0.3891 -0.0077 -0.0249
38405W        W81318  25.617  22.019   7.962 -0.1752  0.0812 -0.2438
38406W        W81319  23.809  32.074   4.573  0.1715 -0.1566  0.0480
38407W        W81320   8.359   1.310   4.884  0.1509  0.2005 -0.0843
38408W        W81321  29.179   0.276   6.956  0.4571  0.2095  0.1481
38409W        W81322  34.315  29.246   6.555  0.2191 -0.1907 -0.2153
38410W        W81323  25.138  22.282   2.907  0.3285  0.1048  0.1944
38411W        W81324   0.243   2.638   4.439  0.2118 -0.1287 -0.0285
38412W        W81325  28.226  23.157  29.235 -0.1300 -0.0423  0.0771
38413W        W81326  32.615  31.201   8.186 -0.0907  0.1881  0.1628
38414W        W81327  22.290  29.916   5.639 -0.1562  0.0287  0.0308
38415W        W81328  34.449   9.797  29.504 -0.0546  0.4270 -0.3280
38416W        W81329  32.707  29.149   7.600 -0.1395 -0.1333  0.0043
38417W        W81330  24.564  33.158   7.703  0.4101 -0.0806 -0.2437
38418W        W81331  25.075  23.588   2.890  0.0308  0.2391 -0.4378
38419W        W81332  19.188  26.277   5.059 -0.3605  0.1515  0.1886
38420W        W81333   2.221  21.670   5.792 -0.0535  0.4021 -0.1134
38421W        W81334  23.382  21.540  27.599 -0.0811  0.1626  0.3177
38422W        W81335  20.277  15.674   8.349  0.1570  0.2685  0.2948
38423W        W81336  24.362  32.034   4.982 -0.0814 -0.0046 -0.4140
38424W        W81337   2.733  30.055  10.145 -0.0285 -0.3870 -0.1642
38425W        W81338   3.584   6.826   4.728  0.0429  0.2525 -0.1893
38426W        W81339  15.581  28.081   7.099 -0.0933  0.0103 -0.0071
38427W        W81340   1.172  21.260   5.886 -0.0692 -0.1106 -0.0494
38428W        W81341  17.632  31.098   4.285  0.1207  0.0755 -0.3650
38429W        W81342  28.519  19.783   2.339  0.1289 -0.1229 -0.3231
38430W        W81343  18.489  29.383   5.878 -0.0890  0.0276 -0.1909
38431W        W81344  33.551  33.951   5.340 -0.1624 -0.0153  0.0249
38432W        W81345  17.502  19.124   3.180  0.0425 -0.0115  0.1450
38433W        W81346   4.234  27.432   8.106 -0.4026  0.3357  0.2136
38434W        W81347  27.085  25.698   6.254  0.0670 -0.0090 -0.1990
38435W        W81348  30.208   4.894  10.859 -0.3578  0.1979  0.2272
38436W        W81349  32.873   4.502   4.958 -0.1093  0.0600  0.3452
38437W        W81350  21.826  29.839   8.792  0.1384  0.1435  0.1329
38438W        W81351  30.410  26.642  24.667  0.1534 -0.1176 -0.0045
38439W        W81352  23.800  17.418   5.256  0.1780  0.1763 -0.3327
38440W        W81353  32.773  31.513   7.199 -0.0285  0.3194  0.1017
38441W        W81354   5.635  28.249   8.917  0.0949 -0.0649  0.1393
38442W        W81355  33.316  29.789   3.175 -0.4767 -0.1835  0.1105
38443W        W81356  30.572  31.689   6.973 -0.1331  0.0762  0.1523
38444W        W81357   0.427  11.370   7.345 -0.0480 -0.0633 -0.1209
38445W        W81358   6.079   0.408  12.150 -0.0977 -0.0058 -0.2761
38446W        W81359  26.795  29.866   2.232  0.0444  0.0881  0.2387
38447W        W81360  33.968  30.214   4.644 -0.2983  0.0587 -0.2975
38448W        W81361  27.988  30.608   2.472 -0.2209  0.3060  0.3620
38449W        W81362  18.111  24.897   5.644  0.2010  0.0589 -0.0364
38450W        W81363  26.123  27.485   8.267 -0.2749 -0.1051 -0.4692
38451W        W81364  31.035  27.433   9.704  0.0790 -0.2509  0.1438
38452W        W81365   1.663  34.121  27.504 -0.0425 -0.2681  0.0691
38453W        W81366  28.411  31.063   4.909  0.3733  0.0416 -0.0734
38454W        W81367  28.169  29.963  25.290  0.0796  0.0646  0.1704
38455W        W81368  24.816  34.371   8.801 -0.0778 -0.0923 -0.1247
38456W        W81369   2.975  30.664   8.335  0.1253  0.1800 -0.0085
38457W        W81370  33.148  25.676   7.888  0.3613 -0.0039  0.1415
38458W        W81371  29.515   1.167   2.875  0.1081 -0.0221 -0.0525
38459W        W81372  25.825  17.142   4.411 -0.0179  0.0123 -0.0892
38460W        W81373   0.042   0.125   5.371 -0.0488  0.0381  0.0292
38461W        W81374  12.969  31.187   4.413 -0.1450  0.2303 -0.1750
38462W        W81375  34.339  31.389   3.836  0.2438 -0.0417  0.0319
38463W        W81376  31.826  28.742   4.467 -0.1389 -0.2380 -0.0118
38464W        W81377  19.730  28.570   2.391 -0.3089 -0.2150  0.0116
38465W        W81378   3.716  22.088   3.409  0.0337  0.0149  0.1820
38466W        W81379  25.967  33.281   9.909  0.1596 -0.2528 -0.3057
38467W        W81380  20.715  28.503   6.072  0.1358 -0.2610  0.1356
38468W        W81381  33.826  21.051   4.884 -0.3195 -0.0911 -0.2419
38469W        W81382  20.614  25.978   4.891 -0.0701  0.0451 -0.1537
38470W        W81383  25.365  31.796   8.298  0.0524  0.2261  0.0225
38471W        W81384  17.865  32.350  27.651  0.3923  0.1463 -0.1491
38472W        W81385  25.376  26.730   1.205  0.4643 -0.1558  0.1600
38473W        W81386  31.925  22.557   3.076  0.2486  0.4233 -0.2925
38474W        W81387  28.650  26.039   4.302  0.2932 -0.0542  0.0990
38475W        W81388  20.318  30.691   5.951 -0.0397 -0.2928  0.0160
38476W        W81389  19.138  21.309   0.592  0.1596  0.0934 -0.1722
38477W        W81390  34.418  34.301   4.207 -0.0524 -0.1540  0.0041
38478W        W81391   2.754   1.963  28.807  0.3076 -0.0146 -0.1120
38479W        W81392  25.785  20.614   5.572  0.3570 -0.0981  0.0841
38480W        W81393  30.504   8.353  10.750  0.0166 -0.2992  0.1572
38481W        W81394  23.181  18.304   0.875 -0.0647  0.1800 -0.1947
38482W        W81395  22.213  26.205   8.776 -0.0458  0.0203  0.0849
38483W        W81396  18.151  27.227   9.767 -0.1644 -0.2491 -0.0172
38484W        W81397  30.212  32.435   5.174  0.1704  0.1047 -0.0397
38485W        W81398  32.930   2.171   4.741 -0.1184  0.3226  0.0543
38486W        W81399  31.399  25.030   9.383  0.2067  0.0585 -0.1298
38487W        W81400  13.244  18.672   5.459  0.0040  0.3890 -0.1592
38488W        W81401  27.960  32.815   0.751 -0.0712  0.3362 -0.3727
38489W        W81402  32.495  27.818   4.605  0.2321 -0.0358  0.0242
38490W        W81403   3.290   1.032  11.964 -0.0251 -0.0040 -0.1300
38491W        W81404  20.135  24.614   4.051 -0.1199  0.0579 -0.3937
38492W        W81405  12.367  25.373   4.747  0.1229  0.0040 -0.0198
38493W        W81406  33.987  33.030   0.501 -0.1310 -0.0384  0.1956
38494W        W81407  32.772  31.949   7.367 -0.2775  0.2118 -0.0612
38495W        W81408  29.929  24.541   4.729  0.1092 -0.0602  0.2041
38496W        W81409  22.284  17.697   0.327 -0.3325 -0.0029 -0.0596
38497W        W81410  23.850  16.794   4.283 -0.2162  0.2036  0.1900
38498W        W81411  26.825  23.301   8.244 -0.1352  0.1115  0.0779
38499W        W81412  24.711  26.685   4.475 -0.0255 -0.3028  0.1618
38500W        W81413  22.947  29.018   6.453 -0.0545  0.1302 -0.1590
38501W        W81414  34.289  26.431  10.739 -0.1061 -0.0605  0.1711
38502W        W81415   3.915  30.706   7.249  0.1336  0.1093  0.0191
38503W        W81416  28.037  27.394   7.609  0.0068  0.2700  0.1607
38504W        W81417  33.291   0.310   7.892 -0.2044 -0.1303  0.2010
38505W        W81418  21.728   2.241   6.836  0.1064  0.0134  0.3746
38506W        W81419  31.680  27.174   1.570 -0.0987 -0.1509 -0.0298
38507W        W81420  33.475  25.875   7.484 -0.1463  0.0874  0.2532
38508W        W81421  30.594  28.278  10.023  0.3260  0.0381  0.0281
38509W        W81422   2.642  29.927   6.822 -0.1409 -0.2153  0.3813
38510W        W81423  30.348  24.627   0.818  0.3267 -0.0591 -0.1032
38511W        W81424  22.621  34.393   8.458 -0.1244  0.3449  0.0086
38512W        W81425  24.161  17.503   8.789  0.0705 -0.1073  0.1282
38513W        W81426  27.529  20.145   7.077  0.1632  0.0172  0.0066
38514W        W81427  21.486  19.056   3.299 -0.3055  0.0779 -0.2199
38515W        W81428   8.922  27.625   2.277  0.0542  0.0419 -0.3118
38516W        W81429  32.186  18.951   6.252  0.1422  0.3122 -0.1511
38517W        W81430  26.440  28.241   6.768  0.1169  0.0106  0.0031
38518W        W81431  25.926  30.642   4.319 -0.0953  0.2782 -0.1717
38519W        W81432  33.672   5.280   9.560  0.0149  0.4066  0.2064
38520W        W81433   4.137   9.360   8.892 -0.2569 -0.3889 -0.0601
38521W        W81434  20.037  33.746  25.832 -0.0589 -0.0245  0.2177
38522W        W81435  14.780  30.327   7.031  0.1005  0.2909  0.4354
38523W        W81436  27.745  19.459   9.019 -0.3067 -0.3896 -0.1488
38524W        W81437  21.556  23.542   3.222 -0.3476  0.2253 -0.0466
38525W        W81438  32.140   1.070   3.097 -0.1501 -0.1635 -0.2673
38526W        W81439  28.902  31.111   4.475  0.2607  0.1017  0.1153
38527W        W81440   2.873  32.626   0.409 -0.0190 -0.0358 -0.2062
38528W        W81441  28.999  27.785   8.702 -0.1108 -0.4363 -0.1115
38529W        W81442  27.593  17.242  29.319 -0.2170  0.0720  0.1983
38530W        W81443  28.930  20.085   2.286  0.2526  0.1397 -0.1176
38531W        W81444  16.957  15.935   2.586 -0.4870  0.1626  0.2710
38532W        W81445  28.868  15.246  27.622  0.0660  0.0757 -0.3105
38533W        W81446  26.672  27.607   2.669 -0.0263 -0.1327  0.1364
38534W        W81447  32.397  30.891   9.530 -0.1096  0.0338 -0.1773
38535W        W81448  32.132  26.891   4.003 -0.2120 -0.0778 -0.0582
38536W        W81449  29.529  20.061   7.255 -0.4737 -0.0053  0.0789
38537W        W81450  34.152   2.362   8.399  0.1752 -0.2125 -0.0638
38538W        W81451   2.714  20.995   7.743 -0.0995 -0.1918  0.0181
38539W        W81452   4.388  24.366   7.259 -0.1993 -0.0149 -0.0444
38540W        W81453  18.639  23.717   4.646  0.1451  0.0689  0.0266
38541W        W81454  22.903  26.965   8.201  0.1929 -0.2080  0.0986
38542W        W81455  29.774  30.966   8.533 -0.1138  0.0633  0.0634
38543W        W81456   8.840  16.203   0.845 -0.0096 -0.3849 -0.0340
38544W        W81457  19.620  27.696   4.027  0.3485  0.3354 -0.1057
38545W        W81458  25.191  26.006   4.560  0.0705  0.0946  0.1262
38546W        W81459  30.808  27.387   6.835 -0.0946 -0.1391  0.2755
38547W        W81460  27.879   0.799   1.294  0.0950  0.2757  0.2896
38548W        W81461  33.706  20.412   9.767  0.1277  0.1387  0.2107
38549W        W81462   3.095   2.067   0.219  0.0116 -0.1858  0.3198
38550W        W81463  26.726   3.261   6.999 -0.1310  0.2236 -0.4314
38551W        W81464  14.932  24.555   5.626 -0.2842  0.0122  0.0424
38552W        W81465  25.151   0.934   1.974  0.2815 -0.1720  0.0322
38553W        W81466  22.936  26.422   8.141 -0.1500 -0.0524  0.0931
38554W        W81467   0.023  29.705   5.140 -0.1222 -0.1471  0.0740
38555W        W81468   3.075  32.554   7.962  0.4947  0.0007  0.0159
38556W        W81469  30.385  30.948   8.657 -0.0208 -0.1499  0.0769
38557W        W81470  31.279  30.940   8.941 -0.4045  0.1770  0.1280
38558W        W81471  29.370  22.160   4.177 -0.0364  0.0040  0.2199
38559W        W81472  30.381  34.459   7.405  0.1644  0.1603 -0.2674
38560W        W81473  27.790   0.296   9.603 -0.0894  0.0171 -0.2142
38561W        W81474  22.327  31.374   7.731  0.2145  0.2202 -0.1008
38562W        W81475  29.135  28.579   3.798  0.0058 -0.0958 -0.2764
38563W        W81476  23.827  30.041   3.793  0.1231  0.1822 -0.1498
38564W        W81477  26.315  28.509  26.496  0.0036  0.2594  0.1226
38565W        W81478   2.807   2.369  29.687  0.1079  0.1765  0.1121
38566W        W81479  27.513  20.635   1.166 -0.0773  0.1026 -0.3102
38567W        W81480  17.581  25.820   4.940 -0.2341  0.0503 -0.1340
38568W        W81481  28.044  25.680   1.255 -0.3425  0.1275 -0.0504
38569W        W81482   5.294  24.464  27.693 -0.2098 -0.3882 -0.2672
38570W        W81483  23.595  22.619  28.468 -0.0271  0.1645 -0.0300
38571W        W81484  18.801   2.555   6.910  0.0279 -0.0082  0.1635
38572W        W81485  26.643   4.575   7.310 -0.1161  0.1283 -0.1058
38573W        W81486  20.448   0.200   0.511  0.0395  0.3351 -0.0298
38574W        W81487  29.002  22.818   0.759  0.2067  0.0914  0.1671
38575W        W81488   3.046  16.674   4.844  0.0295 -0.0100 -0.4169
38576W        W81489  25.395  31.389   5.154  0.2948  0.0218 -0.1449
38577W        W81490  32.220   2.560   4.120 -0.0273  0.3410  0.2988
38578W        W81491  31.936  25.426   4.861 -0.1725  0.0766 -0.3176
38579W        W81492  27.993  26.958   7.814  0.1043  0.0252  0.3327
38580W        W81493  23.530   0.904  10.162  0.0218  0.0296  0.1377
38581W        W81494   6.597  27.765  10.517 -0.2105  0.1465 -0.2073
38582W        W81495  11.592  25.824   9.183 -0.0670 -0.1755 -0.0874
38583W        W81496  26.107  19.471   2.576 -0.0374  0.0309 -0.0314
38584W        W81497  23.247  22.162  25.413 -0.0374  0.1141  0.2609
38585W        W81498  27.619   4.226   5.929  0.2497 -0.1887  0.0219
38586W        W81499  22.278   2.070   3.795  0.1005  0.1252  0.3596
38587W        W81500   0.198  24.511   4.222 -0.0611 -0.4146 -0.0028
38588W        W81501  26.422  31.035   4.176 -0.0952  0.3470  0.5361
38589W        W81502  27.937  32.334  10.496 -0.0110 -0.1070  0.1382
38590W        W81503  29.032  34.364   6.198  0.0131 -0.0368 -0.0267
38591W        W81504  31.024   8.770   7.807 -0.0344  0.0719 -0.1141
38592W        W81505   5.123   4.877   9.726  0.0788 -0.1510  0.0101
38593W        W81506  23.021  22.455   0.985 -0.0024  0.3104 -0.2346
38594W        W81507  23.335  24.736  29.696 -0.0446 -0.1562  0.0606
38595W        W81508  28.954  24.339   4.206  0.4066 -0.0659 -0.0232
38596W        W81509  23.853  25.665  29.729 -0.1549  0.0904 -0.0470
38597W        W81510  25.856  16.420  22.292  0.0368 -0.1062  0.2170
38598W        W81511   6.091  31.708   7.534  0.0185  0.1797  0.0078
38599W        W81512  32.235  16.317   1.867 -0.2301  0.4293 -0.1439
38600W        W81513   2.445   0.523   7.147  0.1282  0.1897 -0.1385
38601W        W81514   1.019  31.706  23.357 -0.2868  0.0456 -0.1688
38602W        W81515  24.752  29.068  28.196 -0.4731  0.1324  0.1002
38603W        W81516   4.745  19.498  23.309  0.0850 -0.0323 -0.4847
38604W        W81517  21.507  33.121   4.290 -0.1301  0.0352  0.0871
38605W        W81518  28.399  26.223  27.258  0.2541  0.0130  0.2782
38606W        W81519  33.081   9.481   5.376 -0.0264 -0.2706 -0.0509
38607W        W81520  28.077  25.504   6.120 -0.2845 -0.3601 -0.0716
38608W        W81521   6.964   3.549  20.542  0.0655 -0.0584  0.1301
38609W        W81522   0.627  32.872  10.637  0.0781 -0.2951 -0.2022
38610W        W81523   3.079  25.481   1.805 -0.2082 -0.4917 -0.1553
38611W        W81524  30.154  32.253   0.933 -0.0085 -0.1370  0.2290
38612W        W81525  27.997  26.341  25.145  0.5507 -0.1494 -0.3520
38613W        W81526  23.823  19.939   1.434  0.0100  0.2254 -0.1048
38614W        W81527  27.381   3.540   3.305 -0.2799 -0.0242 -0.3421
38615W        W81528   1.897  28.136   7.371  0.0530 -0.0436  0.2880
38616W        W81529  29.582  24.377  29.382  0.0661  0.0612 -0.1064
38617W        W81530  26.248  31.105   3.457  0.3345 -0.3041 -0.1288
38618W        W81531  13.357  28.580  24.742  0.0851  0.1138  0.3358
38619W        W81532  25.104  32.286   4.041 -0.1698  0.0439 -0.1468
38620W        W81533  29.271   0.571  18.663 -0.1984 -0.0599  0.0397
38621W        W81534  29.248  29.520  27.992 -0.0487  0.0541  0.2485
38622W        W81535  31.002  32.977  28.664  0.0706  0.2372 -0.0029
38623W        W81536  19.406  27.136  28.806  0.1118 -0.2984  0.0089
38624W        W81537  20.748   0.604   2.004 -0.0649  0.0912 -0.1467
38625W        W81538  29.604  30.642   5.780 -0.4384  0.2768 -0.0623
38626W        W81539  32.129  30.165   8.333  0.0549 -0.2208 -0.0126
38627W        W81540  21.955   0.256  28.534 -0.0637  0.0511  0.0670
38628W        W81541  30.879   1.235   2.308 -0.0330  0.1772 -0.0909
38629W        W81542  32.787  23.654   8.538  0.1730  0.0550  0.4211
38630W        W81543  23.286   6.920   1.319  0.0215  0.0543 -0.3848
38631W        W81544  31.483  18.529   5.724 -0.1549 -0.0256 -0.1792
38632W        W81545  29.019  31.800   9.185 -0.1494 -0.0372 -0.0679
38633W        W81546  20.744  23.349   1.596 -0.1986  0.1266  0.0591
38634W        W81547   7.499  25.566   2.657 -0.0133  0.2584 -0.2507
38635W        W81548  31.742   6.194   9.288  0.3080 -0.0887 -0.3096
38636W        W81549  24.931   2.391   2.398  0.3755  0.0808 -0.2571
38637W        W81550  28.698  18.726   8.847 -0.0247  0.0656 -0.0638
38638W        W81551  25.649  26.109   3.284  0.3161  0.0387  0.0339
38639W        W81552  33.824  24.360   2.996 -0.0364  0.1290 -0.0876
38640W        W81553  30.219   8.705   2.368 -0.2311 -0.2618  0.0661
38641W        W81554  27.169  30.938   2.408 -0.2539 -0.0426 -0.0859
38642W        W81555  24.864  29.613   6.134 -0.0472  0.1254  0.2440
38643W        W81556  19.278  27.795   1.722  0.2466 -0.3491 -0.0612
38644W        W81557  14.766  32.822  28.444 -0.0116  0.2254  0.0402
38645W        W81558  22.918  27.935   2.282  0.0510 -0.0916  0.0941
38646W        W81559   3.893   1.902   3.884 -0.3219  0.0504 -0.1944
38647W        W81560  22.622   2.483   1.333  0.1097 -0.0748 -0.0990
38648W        W81561  31.827  29.744   2.599  0.0095 -0.0528 -0.3471
38649W        W81562   5.026   2.945  27.052 -0.0499 -0.0183  0.1243
38650W        W81563   0.155  29.969   9.065 -0.0231 -0.3075  0.0777
38651W        W81564  24.186  24.916   5.304  0.1247 -0.1923 -0.1174
38652W        W81565  33.784  29.708  29.473 -0.1464  0.0632  0.0381
38653W        W81566  24.306  27.418  26.370 -0.1021 -0.4026  0.1578
38654W        W81567  24.080   6.283  28.198 -0.1717  0.0917  0.1214
38655W        W81568  27.444  27.454   3.030 -0.2688  0.0317 -0.1483
38656W        W81569  29.861  30.646   1.732  0.1567  0.3181 -0.0029
38657W        W81570  32.398  15.971   0.117 -0.0058 -0.0338  0.0872
38658W        W81571  32.441  33.353   3.903 -0.2192  0.3592 -0.2026
38659W        W81572   1.447  26.560   0.971  0.1495 -0.1125 -0.1244
38660W        W81573  25.590   5.515   2.754 -0.0028  0.2862  0.1559
38661W        W81574  20.516   1.375   2.758 -0.0550  0.1130  0.1452
38662W        W81575  19.253  30.162   2.866  0.0168 -0.0133  0.3454
38663W        W81576   3.665  11.876   6.175 -0.0646  0.2667  0.0442
38664W        W81577   4.743  31.683   7.566  0.2313  0.2509  0.1976
38665W        W81578  18.513  26.161   1.808 -0.1208 -0.0620 -0.2158
38666W        W81579  32.580  28.645   2.301 -0.0609  0.4291 -0.1702
38667W        W81580   0.072  29.351  23.155  0.0651  0.0412 -0.0977
38668W        W81581   0.916  32.234  29.671  0.2153 -0.2792  0.1722
38669W        W81582  27.327   1.155  26.360  0.0363 -0.0320 -0.4799
38670W        W81583  28.273  33.195   6.120 -0.0609 -0.1131 -0.0414
38671W        W81584   6.178  19.343  25.442  0.0938 -0.1044 -0.0470
38672W        W81585   2.405   9.755   9.396 -0.2075  0.0356  0.2651
38673W        W81586  17.362   5.207  23.623  0.4791 -0.0740  0.1542
38674W        W81587  26.135  28.153  29.002  0.1159  0.0517  0.0896
38675W        W81588  28.269   0.287  17.701  0.1608  0.1562 -0.2076
38676W        W81589   0.925   0.780   9.021 -0.1080  0.1463  0.1927
38677W        W81590  25.027   6.218  20.548  0.0025 -0.2882 -0.0672
38678W        W81591  26.369   5.927   7.952  0.2998 -0.0428 -0.5124
38679W        W81592  24.832  24.705   4.246  0.4981  0.1659  0.0063
38680W        W81593  20.656   0.375   9.586  0.0783  0.0150  0.2068
38681W        W81594  27.786  31.464   6.519  0.0756 -0.0306  0.1659
38682W        W81595  25.631  29.223  29.386  0.2061  0.0270 -0.2355
38683W        W81596  14.527  29.825  26.929  0.1312  0.2117 -0.0135
38684W        W81597  18.596  32.630   4.437  0.0622 -0.2684 -0.0945
38685W        W81598   0.048   9.936   6.257 -0.2137  0.1804 -0.0832
38686W        W81599   0.766  30.420  28.085  0.1681  0.2102  0.3218
38687W        W81600  22.654  28.455   5.400  0.1706 -0.0824 -0.1335
38688W        W81601  33.433  25.690   8.277 -0.3793 -0.1225 -0.0439
38689W        W81602  27.053  33.825   6.547 -0.1298  0.1406  0.0994
38690W        W81603  30.138  22.883  27.002  0.1645 -0.0826  0.0023
38691W        W81604  30.297  23.575   7.168 -0.2340 -0.2778  0.1670
38692W        W81605  24.757  33.737   1.503  0.0808 -0.2121  0.0335
38693W        W81606  21.293  26.615   7.921 -0.1581 -0.2008  0.0564
38694W        W81607  20.789  22.223  18.982  0.0987 -0.1706 -0.0883
38695W        W81608  27.741   6.461   5.770  0.0144 -0.2861  0.3380
38696W        W81609  26.280  20.625  21.984  0.1572  0.2762 -0.0106
38697W        W81610  22.122   3.868   9.543 -0.0764 -0.0585  0.1899
38698W        W81611  26.402  10.473   1.606  0.0819 -0.0446 -0.0378
38699W        W81612  31.674  24.323  22.215  0.1717  0.2176 -0.0408
38700W        W81613  18.531   0.306  26.822 -0.1111  0.0982  0.0504
38701W        W81614   2.701   9.856  10.842  0.2105  0.0157  0.0245
38702W        W81615  20.050  18.805  28.369 -0.2217 -0.3074  0.1200
38703W        W81616  25.244   2.220   5.980  0.1924 -0.2957  0.1918
38704W        W81617  25.319  32.468   3.597  0.0073 -0.0816 -0.0754
38705W        W81618  30.121   1.024   7.598 -0.2833  0.2670  0.2054
38706W        W81619  33.897  30.394   6.395 -0.0948 -0.2356 -0.1671
38707W        W81620  27.559  32.892   7.977 -0.0276 -0.1991 -0.0019
38708W        W81621  20.846  30.242  27.036 -0.3237  0.0551  0.1215
38709W        W81622  29.449  34.128  20.994 -0.0824  0.0729  0.0404
38710W        W81623  25.721   1.395   2.796  0.2404 -0.0639 -0.1413
38711W        W81624  18.551  25.238  28.762  0.1731 -0.0459  0.1188
38712W        W81625   3.936  31.406  23.561 -0.2413  0.1479 -0.1655
38713W        W81626  21.122  27.167   3.735 -0.1243  0.1385  0.0879
38714W        W81627  20.026  31.164   1.881  0.2053 -0.0134  0.0022
38715W        W81628   0.118   1.270   4.620  0.1542  0.0577  0.1590
38716W        W81629  25.014   2.443  27.902 -0.1076  0.0261 -0.1703
38717W        W81630  16.374  29.038  16.563 -0.0593  0.2526 -0.1628
38718W        W81631  26.851   1.447   2.529 -0.0007  0.2604 -0.1525
38719W        W81632  23.571   3.258   9.340 -0.0285 -0.0854  0.0948
38720W        W81633  27.802   1.864   3.304  0.2102 -0.0766 -0.1273
38721W        W81634  18.409   1.069   7.685 -0.0649  0.0572  0.0290
38722W        W81635  32.527   1.433   8.521  0.0549 -0.0802  0.1843
38723W        W81636  24.220   4.323   6.154 -0.1559 -0.1021 -0.0490
38724W        W81637  15.582  34.445   8.878  0.1945  0.0421 -0.2942
38725W        W81638  22.436  32.215  22.066 -0.1241 -0.0123  0.0367
38726W        W81639  31.252  31.478   9.658  0.0499  0.1685  0.0856
38727W        W81640   4.268  26.543   1.158 -0.0121 -0.2014 -0.1331
38728W        W81641  29.285   3.246   0.022  0.0849 -0.1079  0.1561
38729W        W81642   4.688  27.509   7.927  0.0882 -0.1169 -0.0583
38730W        W81643  24.874  32.964  28.604 -0.0084 -0.0493  0.3293
38731W        W81644  34.166  25.056   3.687 -0.0569  0.2571  0.1289
38732W        W81645  26.987  31.393  25.511 -0.1185  0.1814  0.0755
38733W        W81646  27.357  32.772   5.888  0.1261  0.1712 -0.2948
38734W        W81647  22.810  29.821  21.430  0.1461 -0.0438 -0.2408
38735W        W81648   6.519   3.080   5.628  0.0420  0.0416  0.0463
38736W        W81649  31.449   6.957   7.675  0.0067 -0.2133 -0.0391
38737W        W81650  29.007  22.928   6.230 -0.3960  0.1173  0.0204
38738W        W81651  27.619   1.972   6.402  0.0261 -0.2144  0.1144
38739W        W81652  26.297   4.282   5.851  0.0861  0.1046 -0.3425
38740W        W81653  31.440  32.651   4.175  0.0423 -0.0242 -0.4108
38741W        W81654  21.327   1.659   4.684 -0.0254  0.3179 -0.0295
38742W        W81655   0.578  29.605   5.005  0.0091  0.2094 -0.0851
38743W        W81656  26.726  27.863   1.973 -0.0287  0.0675 -0.0553
38744W        W81657  24.220   1.115   7.070 -0.0645 -0.0781 -0.3343
38745W        W81658  31.112  30.839   4.538  0.1989 -0.2779 -0.0810
38746W        W81659  21.277  29.844   4.751 -0.0306  0.1062 -0.0963
38747W        W81660   4.145  30.393   5.959 -0.1959  0.0133 -0.2237
38748W        W81661  26.335  23.277   4.288  0.1856 -0.0491  0.1882
38749W        W81662  24.084   0.066   2.504  0.0530  0.0058 -0.1583
38750W        W81663  28.339  30.178   2.396 -0.2112 -0.2099  0.1189
38751W        W81664  20.216  21.706  26.552  0.1373 -0.1509  0.1773
38752W        W81665  34.265  32.457   1.169  0.0272 -0.0578 -0.1349
38753W        W81666  32.321   1.737  28.716 -0.1231 -0.0260 -0.2637
38754W        W81667  21.142   2.290   7.949 -0.1887 -0.1558  0.1139
38755W        W81668  31.944   5.150  10.767  0.1701 -0.1015  0.2566
38756W        W81669   5.336   3.239   4.034 -0.2029  0.0591  0.0031
38757W        W81670  31.853   0.761   9.579  0.2003  0.0829  0.0953
38758W        W81671  24.119  22.834   6.284 -0.0579 -0.0752  0.3527
38759W        W81672  29.415  29.988   3.623 -0.1330  0.1737 -0.0555
38760W        W81673  23.017  32.555  18.493  0.0301  0.1317 -0.3826
38761W        W81674  23.302  34.040   5.945  0.2299 -0.1664 -0.2476
38762W        W81675  20.100   5.196  26.076 -0.2013  0.2490 -0.0565
38763W        W81676  28.554   9.237   1.414  0.2754 -0.3294 -0.1290
38764W        W81677  18.005  33.160   3.421  0.0835  0.1668  0.0662
38765W        W81678  20.393  26.753   5.417  0.1602  0.0949  0.0238
38766W        W81679  23.260  33.273   6.538 -0.0884 -0.2275 -0.0816
38767W        W81680   4.378  20.290   4.268  0.1714 -0.0683  0.0343
38768W        W81681  27.259  29.875  22.577 -0.1276 -0.0192  0.1748
38769W        W81682   6.921  23.510  26.221 -0.3660  0.1638  0.1037
38770W        W81683  24.579   6.250   1.606  0.2175 -0.2655  0.1244
38771W        W81684  28.184  26.338  23.519  0.1549  0.0634  0.0042
38772W        W81685  21.853  31.193   5.884 -0.0723 -0.0666  0.0688
38773W        W81686  19.433  32.714  26.134  0.0475 -0.0431  0.2033
38774W        W81687  30.053   4.927   5.897 -0.0996 -0.0586  0.0268
38775W        W81688  17.340  26.702   0.879  0.2398  0.0332 -0.1520
38776W        W81689   5.831  30.065   9.017 -0.1801  0.1147  0.0462
38777W        W81690  21.920  27.823   8.828 -0.0156  0.0254 -0.2686
38778W        W81691  23.905  20.686   0.177 -0.1198  0.1941  0.3664
38779W        W81692  26.308  28.518   1.060  0.0966  0.2044  0.0106
38780W        W81693   7.189  26.378   3.045 -0.3824  0.1187 -0.0341
38781W        W81694  15.806  22.589   1.076  0.1554 -0.1189 -0.3044
38782W        W81695  28.238  30.357   3.362  0.2851  0.3190 -0.0547
38783W        W81696  25.313  24.098   5.529 -0.0241  0.1408  0.1314
38784W        W81697  22.556  18.465   1.848  0.0096 -0.1750 -0.0420
38785W        W81698  25.024  23.659  22.424 -0.1792  0.0277 -0.1503
38786W        W81699  21.929  20.613  27.624 -0.1490  0.3247 -0.0873
38787W        W81700  27.671  33.663   1.213  0.0632  0.1279  0.0629
38788W        W81701  24.695  27.381   0.041  0.0945  0.2305 -0.1020
38789W        W81702   0.441   6.440   9.080 -0.3088 -0.1587  0.3634
38790W        W81703  22.079  24.864   7.055  0.0468  0.1830  0.3617
38791W        W81704  22.987  26.008   6.658  0.1858 -0.0219  0.0866
38792W        W81705  24.593  25.613   2.584  0.0691  0.1005 -0.1857
38793W        W81706  26.127  21.095   2.329  0.3010 -0.0742  0.0168
38794W        W81707   0.684   1.334   0.264 -0.1279  0.3609  0.1422
38795W        W81708  13.469  29.459   8.144  0.0294  0.0804  0.3760
38796W        W81709  16.917  34.230  28.972 -0.0269 -0.1622 -0.1086
38797W        W81710  34.310   1.289   4.065  0.1507 -0.0170 -0.0002
38798W        W81711   7.649  30.342  29.349  0.0054  0.0983 -0.1413
38799W        W81712  25.230   1.836   8.028 -0.1121  0.3092 -0.1345
38800W        W81713  19.942  27.341   5.905  0.4529 -0.0831  0.2032
38801W        W81714  29.147   3.791   1.587 -0.0924  0.0889  0.0782
38802W        W81715  19.016  20.444  26.953 -0.0824  0.2099  0.3402
38803W        W81716  25.426  10.195  24.787  0.1890 -0.1398 -0.3908
38804W        W81717  33.256   2.746  19.419 -0.2682 -0.3498  0.2037
38805W        W81718  19.746  20.404  29.739 -0.3648  0.1678  0.0098
38806W        W81719  25.822  22.915   7.325  0.0434  0.0928 -0.0881
38807W        W81720   2.544  32.044   2.292 -0.1999  0.1808 -0.0563
38808W        W81721  32.040  21.782   1.655  0.0881 -0.1610  0.1363
38809W        W81722  33.732   6.507  22.905  0.0159  0.1150  0.1636
38810W        W81723  22.354  26.241   5.981 -0.0519  0.2182 -0.5247
38811W        W81724  30.032   6.247   7.718 -0.0276 -0.3825 -0.0514
38812W        W81725  26.415  14.514  22.805  0.1182  0.1451  0.0676
38813W        W81726  28.581  34.082   0.945 -0.0637  0.0591 -0.0932
38814W        W81727  34.132  30.947  17.723  0.1295  0.0021 -0.2658
38815W        W81728  27.926  28.495   4.549 -0.0012  0.1329 -0.2133
38816W        W81729  14.840   0.478  25.204  0.3247 -0.1061 -0.2482
38817W        W81730  26.040   8.396   1.616  0.1271  0.0386 -0.0112
38818W        W81731  19.447   3.817   8.726 -0.0958  0.2330  0.2021
38819W        W81732  26.779   6.587   0.579 -0.0974 -0.1097  0.1344
38820W        W81733  13.275  30.721   6.976  0.2239 -0.1050 -0.0195
38821W        W81734  18.326   3.789  26.540  0.1156  0.0034  0.1245
38822W        W81735  17.844  29.936  22.982  0.1784  0.1996  0.3314
38823W        W81736   0.396  34.019   1.339 -0.2200  0.2770  0.1810
38824W        W81737  26.154   0.293   8.838 -0.0879  0.1165 -0.1059
38825W        W81738  32.665   5.812  24.174 -0.0224 -0.0470 -0.0849
38826W        W81739   0.651  25.881  19.796 -0.1404  0.2848  0.0077
38827W        W81740  21.842  33.388   2.843 -0.0143  0.0627 -0.2899
38828W        W81741  31.388   1.096   3.116  0.4183 -0.0230 -0.2525
38829W        W81742  20.943   2.656   6.392 -0.1476  0.2893  0.1647
38830W        W81743  34.293   9.521  27.099  0.0010  0.1080  0.1090
38831W        W81744  23.733  28.644  27.768  0.1615 -0.1113 -0.0652
38832W        W81745  24.432  21.223  28.048  0.0382  0.1900  0.2602
38833W        W81746  16.283  23.371  29.012  0.1862 -0.2502  0.1479
38834W        W81747   5.165  31.817   7.971  0.0885 -0.3082  0.0620
38835W        W81748  23.570   4.744   4.522  0.2124  0.0309  0.0536
38836W        W81749  31.580   2.761   0.255 -0.3342 -0.2074 -0.3415
38837W        W81750  29.921  16.952   2.359 -0.0040 -0.0298 -0.1329
38838W        W81751  18.888  18.733   0.513 -0.0615  0.2671 -0.2104
38839W        W81752  23.542   7.394   5.142  0.1198 -0.0573  0.1775
38840W        W81753  20.234  32.902  26.298  0.0432  0.0485 -0.2883
38841W        W81754  20.929  27.633   0.762 -0.2082  0.3936  0.2196
38842W        W81755  26.265  32.917   6.143 -0.0651 -0.3787  0.3293
38843W        W81756  27.223  26.713   3.576 -0.1445  0.4229 -0.1559
38844W        W81757  26.915  30.486   3.993  0.0866  0.0277 -0.2593
38845W        W81758  27.416  27.835  24.539  0.0754 -0.2736  0.0590
38846W        W81759   1.066  25.419   9.893 -0.1811  0.2429  0.0794
38847W        W81760  33.574   1.936  28.316 -0.0041  0.2046  0.2125
38848W        W81761  28.426   5.690   2.157 -0.1428  0.2509  0.0404
38849W        W81762  24.350  20.955   3.362  0.3009  0.1047 -0.1631
38850W        W81763  34.124   0.646  10.619  0.1471 -0.2319 -0.1082
38851W        W81764  20.614   0.025  25.884  0.0943  0.0349  0.1358
38852W        W81765  31.800  34.137   4.651  0.0348 -0.0025  0.3021
38853W        W81766  21.344  32.748   9.013  0.0363  0.1771  0.0275
38854W        W81767   4.196  16.972   5.829  0.1612 -0.2442 -0.0156
38855W        W81768  18.341   2.469  20.457 -0.4421 -0.0640  0.1681
38856W        W81769   1.320  16.800   8.706  0.1200  0.2005  0.1823
38857W        W81770  25.781  32.661  26.496  0.0202 -0.0401  0.0994
38858W        W81771   4.790  28.673   6.497 -0.1612  0.2125 -0.1728
38859W        W81772  29.077  33.097   2.851 -0.0155 -0.2064  0.1865
38860W        W81773  34.087   4.768   6.209 -0.2131  0.0740 -0.1468
38861W        W81774  29.207  31.345   8.862  0.0747  0.1557  0.4001
38862W        W81775   1.585  34.205  25.025  0.1325 -0.1063 -0.0257
38863W        W81776  31.892  31.783  29.157  0.1197  0.0657 -0.0656
38864W        W81777  28.562   7.616   2.554 -0.0834 -0.0992  0.1099
38865W        W81778  22.691  22.923  26.155 -0.2987  0.0047 -0.1687
38866W        W81779   6.435  24.532  24.845  0.0857  0.1908  0.1673
38867W        W81780  21.726  16.739   5.069  0.0024  0.3514 -0.0377
38868W        W81781  26.888   0.090   8.173  0.0084 -0.1425 -0.2982
38869W        W81782  24.442  23.991   0.383 -0.2052  0.2555  0.3967
38870W        W81783  29.511  25.356   5.941 -0.1868 -0.0118 -0.1151
38871W        W81784  26.232   5.258   8.058 -0.0173 -0.0814 -0.3263
38872W        W81785  27.995   2.359   3.321  0.3303  0.1361  0.2584
38873W        W81786  29.816   2.862   4.538 -0.0899 -0.2885  0.0192
38874W        W81787  25.049   6.573  25.395 -0.1648 -0.3348 -0.1829
38875W        W81788  23.444  33.945   0.707 -0.2106  0.2098  0.1833
38876W        W81789  32.954  10.805  24.186  0.0706  0.1401 -0.0577
38877W        W81790  24.740   1.064   6.246  0.2356 -0.1605 -0.5010
38878W        W81791  25.037  26.419   1.321  0.0431 -0.0679  0.1181
38879W        W81792   0.269  33.895  27.679 -0.1653  0.1730  0.0677
38880W        W81793  21.924  24.123  27.931  0.2551  0.2821  0.1806
38881W        W81794  21.862  31.799  25.959  0.4588  0.0066  0.2516
38882W        W81795  24.733  33.060  25.309  0.0240  0.0469  0.0658
38883W        W81796  21.584  29.766  26.516 -0.1755  0.1377 -0.0355
38884W        W81797  18.193  22.825   4.653 -0.0093  0.0404 -0.1869
38885W        W81798  26.255  12.443   0.630  0.1726  0.0489 -0.2894
38886W        W81799  27.831  28.506   6.865 -0.0288 -0.1028  0.2968
38887W        W81800   3.810  28.731  24.153 -0.0351 -0.0427 -0.0985
38888W        W81801  18.172  31.416   7.980 -0.1693  0.0036 -0.1362
38889W        W81802   2.842  28.372   8.463 -0.0950 -0.0595 -0.1117
38890W        W81803  13.440   7.679   3.143  0.0316 -0.2757 -0.0964
38891W        W81804   6.074  25.374   0.197  0.2048 -0.1991 -0.1619
38892W        W81805  25.224   1.890  17.609  0.0710  0.2409 -0.0089
38893W        W81806  33.143  33.625   5.231 -0.3302  0.1560  0.0460
38894W        W81807  33.623   7.032   9.849 -0.0083 -0.1356  0.0131
38895W        W81808  27.502  28.250  21.883  0.0270  0.1771  0.4808
38896W        W81809  19.565  24.038  29.238 -0.1428  0.4691 -0.0695
38897W        W81810  30.837  34.103   3.631 -0.0943  0.2106 -0.0506
38898W        W81811   6.004  29.585  11.434  0.0906  0.2269  0.1919
38899W        W81812   1.866  29.548  23.434  0.2037  0.0796  0.0021
38900W        W81813  19.861  13.053  27.778  0.0692  0.3577 -0.4018
38901W        W81814  28.126  13.813   1.321 -0.0389  0.2241 -0.0303
38902W        W81815  29.081  32.002   7.853 -0.2327 -0.2381  0.0056
38903W        W81816  26.296  13.356   4.392  0.2005  0.0994 -0.0735
38904W        W81817  20.333  29.837   2.003 -0.1124 -0.0641 -0.0720
38905W        W81818  28.578  28.958   5.279  0.0332  0.0557  0.2871
38906W        W81819  18.584  26.751   5.246  0.0872  0.0470  0.0390
38907W        W81820  16.761  25.522   9.832 -0.0959 -0.1040 -0.1413
38908W        W81821  16.887  18.224   0.561  0.0546  0.1969 -0.1676
38909W        W81822  25.613  21.070   4.230 -0.0001 -0.0384  0.0757
38910W        W81823  23.364  34.249  17.074 -0.3533 -0.4330  0.1538
38911W        W81824  31.180  24.811   2.328 -0.2431  0.0195  0.3737
38912W        W81825  27.906  27.246   6.217  0.3759 -0.3952 -0.2744
38913W        W81826  31.914  28.160   9.418  0.2864 -0.0420 -0.1428
38914W        W81827   3.897  17.368  21.960  0.2223 -0.0709  0.3180
38915W        W81828  22.863  32.932   5.630  0.0765  0.0936  0.1363
38916W        W81829  27.250  27.806   7.283  0.1008 -0.5892 -0.0047
38917W        W81830  27.817  22.703  23.898 -0.0685  0.0471  0.2325
38918W        W81831  26.542   0.523  20.357 -0.2190 -0.1463 -0.2918
38919W        W81832  23.389  33.401   2.727  0.0524 -0.3767  0.2939
38920W        W81833  27.143   5.588  21.022 -0.0536 -0.0924  0.1796
38921W        W81834  27.738   2.134   1.700 -0.0734 -0.1607  0.0073
38922W        W81835  28.108  11.393  29.017 -0.0575  0.2721  0.0411
38923W        W81836  23.925  31.812   5.009  0.1660  0.2273 -0.1538
38924W        W81837  28.004   2.421   1.352 -0.0648  0.0809 -0.0339
38925W        W81838  31.725  30.494   7.329 -0.1380  0.1329 -0.0764
38926W        W81839  27.294  29.494   4.124  0.5213  0.2356  0.0328
38927W        W81840  27.425   1.557   9.664  0.3253 -0.2071 -0.1360
38928W        W81841  31.503  29.160   1.671 -0.4314  0.0079  0.0988
38929W        W81842  22.380  34.442  20.802 -0.5552 -0.0016 -0.2837
38930W        W81843  24.149   1.259   5.368  0.2255  0.0226 -0.0750
38931W        W81844  26.765  32.964   5.453 -0.2315  0.1036  0.0551
38932W        W81845  26.452   0.460   1.590  0.0288 -0.0160 -0.3002
38933W        W81846  21.290  14.901  27.375  0.0165 -0.2584  0.1805
38934W        W81847  21.150   1.211  29.543  0.1316 -0.0850 -0.3657
38935W        W81848   4.891  32.821   1.145 -0.1784 -0.0186 -0.3389
38936W        W81849  31.162  26.687   1.414 -0.0002  0.0621 -0.0531
38937W        W81850  24.473  27.365   0.484 -0.0407  0.3425  0.2392
38938W        W81851  23.666   3.503   3.227  0.2121  0.0601 -0.2384
38939W        W81852  28.419  34.257   6.885 -0.1624 -0.0750 -0.2773
38940W        W81853  25.768  31.559   1.010  0.1352 -0.0245  0.1848
38941W        W81854  28.398  32.611  10.148 -0.0976 -0.1630  0.0512
38942W        W81855  28.532  19.283  28.837  0.0575 -0.1376 -0.0319
38943W        W81856  26.783  32.221  24.952 -0.2060 -0.2064 -0.0318
38944W        W81857   6.423  32.691   1.589  0.0058  0.0736 -0.2884
38945W        W81858  21.867  15.233   3.562 -0.0272  0.1101 -0.0374
38946W        W81859  24.892  32.150   7.677 -0.1587  0.2849  0.0056
38947W        W81860  22.236   1.858   1.910  0.3416 -0.0662 -0.1210
38948W        W81861  21.175  25.041   8.070 -0.1050  0.2294 -0.0081
38949W        W81862  25.056   1.126   3.469  0.1398  0.1497 -0.2178
38950W        W81863  29.133   0.322   6.074  0.2601 -0.1212 -0.0565
38951W        W81864   0.180  31.742   8.768 -0.0201 -0.1042 -0.3146
38952W        W81865  30.542  30.373  28.831  0.0503 -0.0821  0.1921
38953W        W81866  21.094   6.488   3.424  0.0775  0.3811  0.2129
38954W        W81867   2.348   2.495  23.742  0.2875  0.2920 -0.0846
38955W        W81868  23.062  24.865   1.298 -0.1112 -0.1660 -0.0778
38956W        W81869  30.184  32.160  20.339  0.2138 -0.2169 -0.0855
38957W        W81870  30.038  31.758   5.733  0.0905 -0.1039  0.3086
38958W        W81871  18.663  19.778   4.494 -0.0570  0.2407  0.1036
38959W        W81872  13.445  22.156  24.555  0.2164  0.0255 -0.3673
38960W        W81873  18.996   4.543  23.891  0.0946  0.0717  0.1296
38961W        W81874  32.406   2.512  18.492  0.1094  0.1973 -0.1750
38962W        W81875  32.826   5.966   8.758 -0.2962  0.3079  0.1430
38963W        W81876  12.613  26.543   2.060  0.1414  0.3090  0.0389
38964W        W81877  30.766  22.484  22.206  0.0579  0.0331 -0.1554
38965W        W81878   2.203   8.686   3.512 -0.0892  0.1312 -0.1665
38966W        W81879  25.404   1.306  28.453  0.1746  0.3485 -0.0436
38967W        W81880  29.219  31.412   9.911  0.2368  0.1649  0.2874
38968W        W81881  23.168  34.194   4.092  0.1401  0.0894 -0.0689
38969W        W81882  20.630  23.519   3.066 -0.3256  0.1300 -0.3551
38970W        W81883   2.824  34.042  10.598  0.1616  0.2153 -0.3124
38971W        W81884  22.212   5.104  10.446  0.0120 -0.1013  0.3010
38972W        W81885  21.765   2.022   6.253 -0.1139  0.2334 -0.0309
38973W        W81886  29.431  32.674  27.688  0.0153 -0.3208 -0.2890
38974W        W81887  24.558  26.342   5.279 -0.0397  0.0795 -0.2814
38975W        W81888  24.851   2.575   3.441  0.1377 -0.1373  0.0709
38976W        W81889  23.579   7.928  23.746  0.1272 -0.0299  0.0515
38977W        W81890  33.682  29.614  19.482  0.2047 -0.2728 -0.0797
38978W        W81891  29.928  26.444   4.279 -0.1641  0.1279 -0.0853
38979W        W81892  28.326   3.300  23.520  0.0730 -0.0014  0.0332
38980W        W81893  28.893  31.529   5.389  0.0034  0.1037  0.1471
38981W        W81894  26.921  25.609   0.458 -0.2130  0.0336  0.1391
38982W        W81895   3.312  29.315  26.756 -0.3551  0.2062  0.1372
38983W        W81896  22.953  20.429   3.407 -0.2159 -0.3792  0.1437
38984W        W81897   7.066  29.783  26.404  0.0460 -0.3149  0.0102
38985W        W81898  21.642  29.974   2.740  0.0732  0.0171  0.1383
38986W        W81899  16.556  32.555   2.616  0.0989 -0.2153  0.2030
38987W        W81900  25.423  32.226   2.554  0.1296 -0.0713  0.2806
38988W        W81901  26.490  30.951   3.037  0.0392  0.0017  0.0691
38989W        W81902  30.202  16.878   5.640 -0.2236  0.2198 -0.2685
38990W        W81903  24.674   2.844   6.381 -0.4298  0.2276  0.2608
38991W        W81904  25.648  31.669   8.781  0.0319 -0.1712 -0.2026
38992W        W81905  27.961   0.816   7.007 -0.0116  0.0284  0.1952
38993W        W81906   0.156  30.594  27.777  0.1041  0.1601  0.1731
38994W        W81907  27.879  30.962  10.194  0.0003 -0.4136 -0.0268
38995W        W81908  19.955  24.812  27.346  0.0237 -0.1144  0.0161
38996W        W81909  32.046   3.307   5.572 -0.3487  0.0196  0.3468
38997W        W81910  28.283  30.419   9.464  0.2419  0.0796  0.0348
38998W        W81911  18.820  21.754  28.733  0.2250  0.1608 -0.2535
38999W        W81912  25.226  26.633   7.785  0.0894  0.1332  0.2448
39000W        W81913  25.858  21.804   0.212 -0.1163  0.1017 -0.0122
39001W        W81914   1.450  15.354   1.481  0.0908 -0.1808  0.1143
39002W        W81915  29.818  28.189   8.927  0.1598  0.3179 -0.2629
39003W        W81916  20.721  30.557  28.335  0.1743 -0.1418 -0.0141
39004W        W81917  30.412  22.094   6.180 -0.0079  0.0376  0.2592
39005W        W81918  27.593  30.580   7.745 -0.1263 -0.0214 -0.1179
39006W        W81919  14.293   4.226   0.703 -0.0081  0.3904  0.1977
39007W        W81920  23.064   2.019   4.252 -0.3129  0.1476  0.1104
39008W        W81921  34.451  28.925   2.928 -0.3940 -0.0180 -0.2182
39009W        W81922  17.419  21.543   3.995  0.0536  0.2954  0.0700
39010W        W81923  29.713  10.589   1.452 -0.4299 -0.2916 -0.0098
39011W        W81924  25.913  32.304  10.090 -0.1173 -0.0539  0.1052
39012W        W81925  34.074  33.035   8.503  0.2207  0.0782 -0.2601
39013W        W81926  27.267  27.892   5.922 -0.0738  0.1608 -0.3796
39014W        W81927  26.364  34.286  22.813 -0.1575 -0.0509  0.0679
39015W        W81928  20.341  29.374   8.200 -0.0865 -0.2386  0.2764
39016W        W81929  27.446   5.610   5.388  0.2232  0.1135  0.0567
39017W        W81930  20.948   5.689  29.539 -0.0528  0.0834 -0.1572
39018W        W81931  12.584  23.257   0.524  0.0323  0.0381  0.2575
39019W        W81932   2.559  32.224   2.746 -0.0394 -0.0102  0.1696
39020W        W81933  24.775  30.526  27.366  0.2565  0.0184  0.0180
39021W        W81934  12.628  26.177   3.182 -0.1812 -0.2142  0.3234
39022W        W81935  29.092  22.828   3.010 -0.1562 -0.0382  0.0688
39023W        W81936  31.225  24.542   8.780  0.1279  0.3658 -0.0871
39024W        W81937  26.592  27.029   8.573  0.0252  0.1203 -0.0407
39025W        W81938   8.437  31.145  12.131 -0.2577  0.1073  0.2437
39026W        W81939  28.491   1.706   8.562  0.0869  0.1746  0.1247
39027W        W81940  28.618   5.800   5.824 -0.2853  0.1979  0.0037
39028W        W81941   0.101  30.876   9.318 -0.1643 -0.0993 -0.1860
39029W        W81942  18.052  31.276   6.224  0.0330 -0.1364 -0.1809
39030W        W81943  25.838  26.286   7.300  0.0345  0.1178 -0.3122
39031W        W81944  32.136   2.779   7.701  0.0831 -0.0283 -0.1393
39032W        W81945   1.530  25.993   5.532 -0.0316  0.0104  0.2581
39033W        W81946  12.924   1.862   0.390 -0.1293 -0.1793  0.0820
39034W        W81947  24.869  33.560   2.655 -0.1381  0.4605  0.2302
39035W        W81948  29.830  34.002   4.967  0.3244 -0.1697 -0.1262
39036W        W81949   1.078   0.414   6.706 -0.0820 -0.1237  0.0676
39037W        W81950  28.917  34.211   3.322 -0.0913 -0.0172  0.1351
39038W        W81951  26.962   8.776   8.598  0.1117  0.2090 -0.0391
39039W        W81952  23.224  28.795   6.777  0.0881  0.4509  0.2494
39040W        W81953  16.093  32.636   7.440  0.4210 -0.2416  0.2478
39041W        W81954  30.697  25.203   8.899 -0.0919  0.3289 -0.1204
39042W        W81955  11.000  30.109  11.492 -0.0783 -0.0587  0.1026
39043W        W81956  17.953  32.927   6.451 -0.1783 -0.1281 -0.1959
39044W        W81957  28.694  27.643   3.418 -0.0265 -0.1736  0.3519
39045W        W81958  27.242   8.902   4.130 -0.0146 -0.0859  0.1570
39046W        W81959  33.457  31.312   5.185  0.2556  0.0164 -0.0827
39047W        W81960  19.982  18.850  22.938 -0.0539  0.0346 -0.4403
39048W        W81961  30.735  28.969   9.738  0.1637  0.0275  0.0644
39049W        W81962  25.476  32.316   6.434 -0.0904  0.0867  0.1037
39050W        W81963  32.228  34.051   1.298  0.1373  0.2198  0.1509
39051W        W81964  15.750   7.706  27.977  0.1162 -0.0146 -0.0268
39052W        W81965   0.850  34.370  29.776  0.2508  0.0164 -0.1777
39053W        W81966  28.311   4.991   8.722 -0.1148  0.1518  0.0523
39054W        W81967  23.679   9.081   3.512 -0.0259  0.2791 -0.0130
39055W        W81968   6.045  30.728   8.644 -0.0077 -0.0482  0.0762
39056W        W81969  30.142  25.566   7.381 -0.0415  0.2498  0.2089
39057W        W81970  30.450  12.139   3.526  0.1849  0.3528 -0.4504
39058W        W81971  12.661   1.593  28.555 -0.0260 -0.1818  0.1954
39059W        W81972  30.214  33.500   7.177  0.0961  0.0693  0.0173
39060W        W81973  24.044  29.497  27.873  0.0955 -0.1936 -0.1805
39061W        W81974  24.152  11.029   3.863 -0.1834 -0.2054  0.0674
39062W        W81975  31.294  20.805   8.879 -0.1204  0.1139 -0.1767
39063W        W81976  24.793  23.322   3.220  0.0008  0.0466 -0.0348
39064W        W81977  27.867  34.307   7.446 -0.0586  0.1340 -0.1127
39065W        W81978  29.989   1.579  11.070 -0.0283  0.2698  0.0169
39066W        W81979   3.720  27.588   4.205 -0.0249 -0.0146 -0.0152
39067W        W81980  22.743  32.837   4.743  0.0013 -0.1107 -0.2345
39068W        W81981  29.220  24.608   8.704 -0.2193 -0.3206 -0.2578
39069W        W81982   8.929   0.613   1.050 -0.2063 -0.0570 -0.0426
39070W        W81983  31.573  31.311   5.641  0.0127 -0.5729  0.0824
39071W        W81984  30.554  33.342   8.324  0.0014  0.1670 -0.0087
39072W        W81985  17.466  10.562   2.028  0.0113  0.0592 -0.4505
39073W        W81986  28.407  32.691   0.949 -0.1486  0.0532  0.1679
39074W        W81987  34.099  30.758  28.354  0.1410 -0.1894 -0.4795
39075W        W81988   1.523  23.386  25.770  0.0519 -0.0204  0.1137
39076W        W81989   1.937  21.628   7.340  0.1281 -0.0741 -0.1530
39077W        W81990  32.894   3.601   6.074  0.0331 -0.1326 -0.2249
39078W        W81991  24.016  23.444   7.619  0.0112  0.2887 -0.4769
39079W        W81992  20.689  23.591   6.055 -0.0114  0.0922 -0.1092
39080W        W81993  23.524  28.873  29.289 -0.1243  0.0556 -0.0318
39081W        W81994  19.875  17.584   5.658  0.0109  0.0858 -0.3655
39082W        W81995  21.958  29.620   3.527  0.1390 -0.1821  0.0476
39083W        W81996  27.405  24.778   0.661 -0.3544  0.0383  0.0688
39084W        W81997  30.243  31.294  28.473 -0.0230  0.3634 -0.3628
39085W        W81998  32.213   3.316   7.861  0.1078 -0.1989 -0.0241
39086W        W81999  26.049  22.214   8.295 -0.2304 -0.0826  0.0754
39087W        W82000  30.191  27.277   8.737 -0.3534  0.1816 -0.1068
39088W        W82001  18.333  20.952  21.735  0.2488  0.3937  0.0081
39089W        W82002  28.956  34.308   9.805  0.0786 -0.0250 -0.1723
39090W        W82003  23.489  32.312   5.135  0.2337  0.1027  0.0137
39091W        W82004   5.815  33.609   3.949 -0.2174  0.1145  0.0367
39092W        W82005  17.750  30.814  24.993 -0.1118 -0.0876 -0.0761
39093W        W82006  23.880   5.075   7.740 -0.1192  0.0824  0.2244
39094W        W82007  18.912  29.836  29.366  0.0819 -0.1916 -0.4767
39095W        W82008   0.253   4.386   6.810 -0.1264  0.0509  0.0653
39096W        W82009   1.319  30.626   1.598  0.0103  0.3959  0.1749
39097W        W82010  14.699   0.530  29.009 -0.0448  0.0295 -0.0118
39098W        W82011  33.723  19.862   7.961 -0.2015  0.4959  0.2217
39099W        W82012  22.385  21.012  28.617  0.0085 -0.2187 -0.5078
39100W        W82013  25.427  28.901   3.286  0.1186 -0.0222 -0.1874
39101W        W82014  18.921   7.859  29.505 -0.2539  0.0530  0.2943
39102W        W82015  20.740  28.133   0.929  0.1349  0.0232 -0.3646
39103W        W82016  30.705  25.444   5.332  0.3592 -0.0094 -0.1320
39104W        W82017   2.200   1.866  12.250  0.0722  0.0090 -0.0409
39105W        W82018  21.696  28.083   4.216  0.0364  0.0772  0.1590
39106W        W82019  26.429   3.930   6.227 -0.2057  0.0639 -0.0169
39107W        W82020  26.928   5.884   9.260  0.1984  0.0988  0.1215
39108W        W82021  21.780  29.024   7.670  0.1203  0.0421 -0.1259
39109W        W82022   4.719  27.685   5.834 -0.3086 -0.0941 -0.1000
39110W        W82023  16.919   4.269  11.116 -0.0761  0.1440  0.2292
39111W        W82024  28.513  25.367   5.947  0.0309  0.1747 -0.1567
39112W        W82025  28.212  22.499   2.354 -0.1236 -0.0678  0.0669
39113W        W82026  34.426   8.022   4.589 -0.1869 -0.0965 -0.2031
39114W        W82027  25.639  30.409   4.711  0.1160 -0.0244  0.3417
39115W        W82028  34.374  26.055   0.035  0.0560  0.1704 -0.0625
39116W        W82029  31.376   6.366   6.651 -0.0536  0.2531 -0.3911
39117W        W82030  22.036  33.178   4.186 -0.2740  0.2019 -0.0612
39118W        W82031  33.553  27.839   9.010  0.1064  0.1564  0.1466
39119W        W82032  30.368  22.671   4.073  0.1618 -0.1490  0.0536
39120W        W82033  19.137  26.257   7.842  0.2412  0.1413 -0.1777
39121W        W82034  25.139  32.651   2.869  0.1092 -0.2485 -0.1488
39122W        W82035  28.819  11.446   3.651  0.1375  0.2080  0.4243
39123W        W82036  23.694  30.603   2.335  0.0340  0.0534  0.0177
39124W        W82037  21.726  33.567   4.194  0.0473  0.2097  0.2151
39125W        W82038  34.454   0.629   3.116 -0.3386  0.0505  0.2264
39126W        W82039  33.993   0.825   0.592 -0.2208 -0.0222 -0.1051
39127W        W82040  28.351  34.318   9.106  0.0850 -0.0000  0.1148
39128W        W82041  34.129  21.951   0.140  0.2460  0.1527  0.0080
39129W        W82042  27.261  22.390   7.099  0.2037 -0.2139 -0.0515
39130W        W82043  24.302   1.986   7.788 -0.0551 -0.1157  0.0641
39131W        W82044   5.694  33.550   9.716  0.1427  0.0795  0.1600
39132W        W82045   1.166  28.961   4.234 -0.0808 -0.0988  0.0093
39133W        W82046  22.188  10.416   6.120 -0.0018 -0.2147 -0.0464
39134W        W82047   3.690   2.410   3.213 -0.4238 -0.0819 -0.1252
39135W        W82048  21.489   4.440   2.186  0.0694  0.0082 -0.2445
39136W        W82049  21.472  27.855   9.167 -0.2354 -0.2348 -0.1033
39137W        W82050  23.217  10.384   5.315  0.0578 -0.0732  0.0556
39138W        W82051  25.843  23.276  25.727 -0.1402  0.3461 -0.5046
39139W        W82052  30.895   2.003   9.632 -0.1692  0.3198  0.2828
39140W        W82053  19.172  34.398   4.337 -0.0912  0.2708  0.0509
39141W        W82054  31.248   1.923  29.667 -0.1212 -0.0996 -0.0329
39142W        W82055  19.552   2.066   5.815  0.2776  0.1015 -0.0586
39143W        W82056  25.071  24.979   7.632 -0.0704  0.3048 -0.0632
39144W        W82057  30.968   3.340   8.639  0.1712 -0.1398  0.2388
39145W        W82058  25.908  11.109   9.961  0.1330  0.3445  0.2203
39146W        W82059  25.659  32.264   6.926 -0.0639 -0.0172 -0.4940
39147W        W82060  25.881  33.803   5.710 -0.0278  0.0779 -0.1354
39148W        W82061   3.217  33.960  28.629 -0.1097 -0.0526 -0.0635
39149W        W82062  26.430  28.293  25.222 -0.0086  0.2886  0.1311
39150W        W82063  30.541  29.033   4.793 -0.0945  0.0414  0.4318
39151W        W82064  29.696  31.143   6.788 -0.0865 -0.2303  0.0931
39152W        W82065  28.363  26.211   2.708 -0.0594 -0.0677 -0.0102
39153W        W82066  34.006   5.811  10.335  0.0056  0.3282 -0.1718
39154W        W82067  31.741  23.052   8.379  0.1624 -0.0359 -0.1871
39155W        W82068  19.182  29.278   5.183  0.1256  0.1312 -0.1359
39156W        W82069  22.330  30.270   3.826 -0.0648 -0.1175  0.1030
39157W        W82070  26.028  31.665   2.021  0.1532  0.0570 -0.0890
39158W        W82071  30.720  21.104   3.013  0.1471 -0.0918 -0.0159
39159W        W82072   2.862  29.464   6.783 -0.0468  0.0732  0.2023
39160W        W82073  25.402  32.668   7.160 -0.1154 -0.2899 -0.2102
39161W        W82074  24.078  22.465   3.289  0.1671 -0.3222 -0.0159
39162W        W82075  23.099  32.380   0.468  0.4470 -0.0738 -0.4302
39163W        W82076  26.406   0.936   4.207 -0.0962 -0.0890  0.1076
39164W        W82077  26.414   0.967   2.517 -0.0961  0.0042  0.0646
39165W        W82078   1.646   7.475   4.357  0.2983 -0.0131  0.2429
39166W        W82079  31.448  28.183   9.100  0.0859  0.0764  0.2087
39167W        W82080  14.863   1.753  29.746  0.0063 -0.2300  0.2669
39168W        W82081  27.898   4.293   8.423 -0.0734  0.3921  0.0831
39169W        W82082   3.270   3.946  29.318 -0.1125 -0.0139 -0.0092
39170W        W82083  27.634  27.732   6.219  0.0103 -0.1124  0.0785
39171W        W82084   2.644   3.361   0.051  0.1868  0.2056  0.2021
39172W        W82085  15.151  25.880   3.762  0.1777 -0.3179  0.0729
39173W        W82086  20.121  24.177   6.629 -0.2422 -0.3045  0.1319
39174W        W82087   6.663  31.011  27.992 -0.3084 -0.0320 -0.0768
39175W        W82088  26.477   5.170   8.567 -0.0480 -0.2718 -0.3503
39176W        W82089  27.195  32.534   5.045  0.0502  0.1970  0.3152
39177W        W82090  27.630   1.109   5.475  0.0222 -0.1168 -0.1090
39178W        W82091  26.151  26.413   9.066  0.0567 -0.0326  0.0028
39179W        W82092  26.141  23.543   2.043 -0.1454 -0.4058 -0.0790
39180W        W82093   9.091   0.593  10.986 -0.0101 -0.3130  0.1881
39181W        W82094  23.670   0.590  25.651 -0.4438 -0.1220  0.1293
39182W        W82095  33.419  33.975   8.317 -0.1652 -0.2000 -0.0897
39183W        W82096  26.089  30.250   2.953  0.2940  0.3491 -0.1552
39184W        W82097   3.217   3.885   5.508 -0.0175 -0.2747 -0.1461
39185W        W82098  25.668  32.171   7.446  0.2399 -0.1346  0.1271
39186W        W82099  14.685   5.938  27.200  0.2697 -0.0426 -0.1896
39187W        W82100  29.489   2.166  21.989  0.0341  0.0680  0.0215
39188W        W82101  29.222  30.932   6.049  0.0741 -0.0140  0.2920
39189W        W82102  22.207  26.654   4.194  0.0657 -0.2238 -0.0519
39190W        W82103  17.485  31.840   9.058 -0.3259 -0.1053 -0.1012
39191W        W82104  28.894  32.002   3.449 -0.2798 -0.3598  0.1002
39192W        W82105  27.729  27.262   8.737 -0.3300 -0.1119  0.0708
39193W        W82106  31.916  32.018  28.194 -0.1946  0.0271  0.0870
39194W        W82107   0.443  23.857   7.961  0.0598  0.0246  0.0788
39195W        W82108  17.489   2.276  29.757 -0.0045 -0.0752 -0.0679
39196W        W82109  25.371  29.843   2.591 -0.0837  0.2799  0.2465
39197W        W82110  30.409   8.491  10.239 -0.3458  0.2337  0.2267
39198W        W82111  30.018  12.434   7.730 -0.1397 -0.2348  0.2585
39199W        W82112  23.591   1.739   9.856  0.1722  0.1510 -0.1473
39200W        W82113  30.959   6.331  10.816  0.0904  0.5036 -0.2125
39201W        W82114  27.800   0.999   6.035 -0.3090  0.2852 -0.4811
39202W        W82115  24.765  27.072   3.540 -0.0639  0.0185 -0.3815
39203W        W82116  29.165  30.974   5.545 -0.0252 -0.1846 -0.0834
39204W        W82117  26.945  19.207  24.140 -0.3173  0.0359  0.2403
39205W        W82118  17.224   1.768  27.576  0.0235  0.1119  0.1432
39206W        W82119  23.666  25.686   8.283 -0.1479  0.0764  0.1837
39207W        W82120  31.049  29.289   9.512 -0.2953  0.0652 -0.2579
39208W        W82121  27.988  33.436   7.209  0.1353 -0.3293 -0.0222
39209W        W82122  34.428  29.793   8.471  0.0776  0.1165 -0.0899
39210W        W82123  19.802  32.071  29.678  0.0632  0.1101  0.0234
39211W        W82124  30.386  23.783   4.133 -0.2029 -0.1113 -0.0012
39212W        W82125  21.816   0.917   4.521  0.1091 -0.0722  0.0674
39213W        W82126  29.585   1.912   3.776 -0.1195  0.2453 -0.1485
39214W        W82127   3.090  26.002   8.144 -0.2137 -0.0150 -0.0025
39215W        W82128  21.288  31.383   4.144 -0.1780 -0.1208  0.3313
39216W        W82129  21.323  32.919  21.593 -0.3042 -0.3707  0.1125
39217W        W82130  29.731   5.644  28.076 -0.1942  0.0337 -0.0145
39218W        W82131  27.448  33.052   6.354  0.3768 -0.2325 -0.2091
39219W        W82132  28.481  34.128   4.595 -0.0833  0.2098 -0.4685
39220W        W82133  31.539   0.095   0.394  0.0131 -0.2318 -0.2893
39221W        W82134   7.114  17.176   1.705  0.3401  0.0156  0.3678
39222W        W82135  21.303  33.124   6.386  0.0786 -0.0001 -0.2104
39223W        W82136  29.378  29.152   9.183  0.2722  0.3498 -0.0305
39224W        W82137  21.047  24.201   4.034 -0.1469 -0.1771  0.1691
39225W        W82138  18.417   0.719   3.368 -0.3369  0.2070  0.0090
39226W        W82139  22.564  18.873   0.683  0.3747  0.1790  0.1102
39227W        W82140   3.261   0.236   7.150 -0.0497  0.1150 -0.0749
39228W        W82141  30.596   7.128   9.320 -0.1540 -0.0501 -0.1495
39229W        W82142  27.460  27.372   8.328  0.0800  0.0693  0.1153
39230W        W82143  24.842   3.840   6.346 -0.0294  0.0149 -0.1079
39231W        W82144  30.544   1.811   8.103 -0.0259 -0.2289  0.1608
39232W        W82145   3.414  28.838   7.187 -0.0958  0.2969  0.2206
39233W        W82146  28.880  24.853   1.013  0.1067 -0.0337  0.2686
39234W        W82147  28.839   1.023  29.214 -0.1201  0.3225  0.3477
39235W        W82148  34.347   3.872  10.273  0.0796 -0.1023 -0.0896
39236W        W82149  31.550  20.242   9.009  0.0912 -0.2111 -0.0857
39237W        W82150  29.449  24.608   1.664 -0.0068 -0.0713 -0.2281
39238W        W82151  32.257  29.479   2.867  0.1647 -0.3097 -0.1304
39239W        W82152  33.105  15.253   3.091 -0.2963  0.0504 -0.1781
39240W        W82153  31.798  26.475   2.835  0.1184  0.0975 -0.2538
39241W        W82154  25.195   7.737   5.798 -0.1052  0.0540 -0.1158
39242W        W82155  26.651  15.019   8.913  0.0910  0.1883 -0.2137
39243W        W82156  21.661  34.051   1.436  0.2115 -0.0357 -0.0996
39244W        W82157  20.967  31.693   7.258 -0.1752 -0.0764 -0.2647
39245W        W82158   2.718   9.060   9.071  0.2173 -0.1210 -0.1432
39246W        W82159   5.806   5.851   1.808  0.2130 -0.2158  0.1881
39247W        W82160  32.109  33.679   7.135  0.0473  0.3615 -0.2150
39248W        W82161  29.504  21.318   7.594  0.0113  0.2103  0.0990
39249W        W82162   6.013  30.255  11.182  0.2307 -0.1165  0.2398
39250W        W82163   3.323   1.959   0.925 -0.2230  0.1119  0.3387
39251W        W82164  25.507  26.421   6.948  0.2687 -0.0507 -0.5890
39252W        W82165  33.641   2.668   4.045  0.0314  0.1303  0.2253
39253W        W82166  27.301   5.940   4.658 -0.1499 -0.0154  0.4321
39254W        W82167  25.075  34.002  10.087 -0.0549 -0.0311 -0.0249
39255W        W82168  28.846  25.218   8.047  0.1446  0.0367 -0.0939
39256W        W82169  25.262  21.622   8.539 -0.0173 -0.1069  0.4499
39257W        W82170  19.112  33.335   3.520 -0.1126  0.4513  0.4987
39258W        W82171  28.577  29.729   7.254  0.0889 -0.0308  0.0263
39259W        W82172  15.357  27.924   9.543 -0.2288 -0.1970 -0.0159
39260W        W82173  25.269   9.219   8.717 -0.0955 -0.0780  0.1687
39261W        W82174  30.460   3.210  10.458  0.0717  0.1482 -0.2310
39262W        W82175  31.085  31.947   2.639  0.0199  0.1068  0.1602
39263W        W82176  30.844  28.106   4.610 -0.1023 -0.1536  0.1441
39264W        W82177  20.552  32.025   6.968 -0.0237 -0.1925  0.3441
39265W        W82178  24.203  28.872   2.955  0.0967 -0.2227 -0.2764
39266W        W82179  28.644   6.334   7.713 -0.0375 -0.2608  0.1634
39267W        W82180  25.486  33.398   7.950  0.0973  0.0375 -0.0329
39268W        W82181  32.582   0.097   2.377 -0.1092 -0.2805  0.2572
39269W        W82182   4.598  25.940   9.515 -0.2283 -0.1324 -0.1108
39270W        W82183  31.927  26.496   0.917 -0.0528  0.0675  0.4359
39271W        W82184  25.606  32.796  24.197  0.5139 -0.1531  0.2701
39272W        W82185   0.313  23.917   5.186 -0.0033 -0.0833  0.1914
39273W        W82186  23.271  34.010   6.658 -0.2462 -0.0216  0.1343
39274W        W82187  27.205  23.738   4.403 -0.0292 -0.2448  0.0570
39275W        W82188  10.590  23.910  24.896  0.0454 -0.0466  0.0978
39276W        W82189  16.824  22.158  22.681 -0.1872  0.1284 -0.1459
39277W        W82190  29.360  24.682  24.766  0.1954 -0.0485  0.0455
39278W        W82191   1.664  33.830   9.480 -0.3095 -0.0054 -0.1068
39279W        W82192   3.110  11.353  25.771  0.1777 -0.4503 -0.1313
39280W        W82193   5.648  28.155   6.241  0.2346 -0.0807 -0.0114
39281W        W82194   7.963   0.150  29.331 -0.1143  0.0723  0.2051
39282W        W82195  20.946  26.924   7.114  0.1423 -0.1927 -0.0849
39283W        W82196   1.860   0.544   2.481  0.1982  0.1215 -0.0612
39284W        W82197  26.690   3.760   8.327 -0.0929  0.3793 -0.0141
39285W        W82198  25.650   0.734   4.734 -0.0114  0.3170 -0.1902
39286W        W82199   1.976  20.354   6.523  0.0341 -0.1956 -0.2960
39287W        W82200  28.516  31.232   7.567 -0.2694  0.2862  0.1536
39288W        W82201  29.874   2.260   7.069 -0.0650  0.0529  0.1462
39289W        W82202  17.116  31.375   2.222 -0.1262 -0.3213  0.4602
39290W        W82203  27.685  28.268   6.410 -0.0287 -0.0605 -0.0365
39291W        W82204  30.179   1.687  10.288 -0.2945  0.2598  0.1293
39292W        W82205  25.923  32.082   3.745  0.0002 -0.1399 -0.0736
39293W        W82206  25.718   2.719   4.021 -0.1164  0.2625  0.0198
39294W        W82207  18.451  26.272   5.594 -0.0501  0.0046  0.1530
39295W        W82208  22.523  27.690   0.913 -0.0527  0.0500 -0.1276
39296W        W82209  25.748  20.376  26.477  0.1960 -0.0337 -0.0657
39297W        W82210  27.664  21.011   1.678  0.2044 -0.1141  0.3213
39298W        W82211  28.514   1.242  25.691 -0.0681 -0.0771 -0.3118
39299W        W82212  20.242  19.562  24.626  0.0707  0.1247  0.0522
39300W        W82213   5.490  22.604   8.795  0.0270  0.1651  0.0661
39301W        W82214  29.470  34.232  28.843 -0.2498 -0.1077 -0.0330
39302W        W82215  24.303  33.279  29.717 -0.1807 -0.2921 -0.1154
39303W        W82216  25.190  29.928   3.611 -0.1973  0.0987  0.2515
39304W        W82217   5.182  25.513  22.796 -0.1591 -0.1692 -0.1244
39305W        W82218  26.045  34.354   7.988 -0.1147 -0.2359 -0.1976
39306W        W82219  19.468   1.400   2.752  0.0238 -0.0089  0.0058
39307W        W82220  24.142  29.496   4.661  0.0237  0.0397 -0.1093
39308W        W82221  24.550  31.184   3.788 -0.1118  0.2178  0.1030
39309W        W82222  21.680  26.875   0.076  0.1498  0.1480 -0.3386
39310W        W82223   1.449   6.648  10.546 -0.1705  0.0992 -0.3434
39311W        W82224  26.805  26.659   4.301 -0.2144 -0.3161 -0.3885
39312W        W82225   4.733   2.297   0.915 -0.0527 -0.3157  0.4142
39313W        W82226  28.406  23.453   4.518  0.0032 -0.3001  0.2507
39314W        W82227  21.226  33.020   5.867 -0.0232  0.2149 -0.0599
39315W        W82228  28.877  34.167  10.343  0.2023 -0.0038  0.1418
39316W        W82229  22.644   7.188   7.784 -0.1081 -0.3319  0.0625
39317W        W82230   0.482   4.810   8.873  0.0117 -0.0348 -0.2383
39318W        W82231  26.122  28.648   0.005  0.0250  0.1419 -0.0395
39319W        W82232  13.696  27.173  24.648 -0.0266 -0.0066  0.1769
39320W        W82233  29.906  29.740   0.676  0.0025  0.0587  0.3318
39321W        W82234  33.638  30.819   5.920  0.1549 -0.2219  0.1371
39322W        W82235  19.777   6.707   9.768  0.3436 -0.0918 -0.1183
39323W        W82236  27.327  29.678   5.505  0.1256 -0.1109 -0.1171
39324W        W82237   0.971  16.249   7.349  0.0172 -0.3677  0.0014
39325W        W82238  30.952   3.495  10.508  0.2537  0.0108  0.2994
39326W        W82239   3.115  19.786   3.318  0.2746  0.1470  0.2244
39327W        W82240   9.513  29.416   5.676 -0.2600  0.0172  0.0934
39328W        W82241  30.144  32.725   8.421 -0.3549 -0.3254  0.2969
39329W        W82242  31.241  29.067   8.004 -0.0237 -0.2393 -0.0928
39330W        W82243  20.909  25.516  29.371 -0.1388  0.1204  0.2681
39331W        W82244  33.313   2.720   7.232  0.1550 -0.2154  0.2071
39332W        W82245  25.458   6.156   7.600  0.1634 -0.0395 -0.1976
39333W        W82246  33.629  11.227   4.809  0.1668 -0.0039 -0.0807
39334W        W82247  23.018   9.002   4.678  0.0721 -0.2042  0.2521
39335W        W82248   2.856  25.365   4.089  0.1339 -0.0174  0.0447
39336W        W82249  18.634  34.451   2.864 -0.0510 -0.1747  0.0147
39337W        W82250  26.286  31.920   6.306 -0.1234 -0.0726 -0.2458
39338W        W82251  30.292  25.116   0.703 -0.1893  0.3669 -0.2824
39339W        W82252  32.128  18.827   8.034 -0.1023  0.1594  0.1680
39340W        W82253  28.861  29.411   8.388 -0.1937 -0.2174  0.1039
39341W        W82254  24.764  19.496  15.465  0.6573  0.1627  0.2119
39342W        W82255  25.144  28.935   5.908 -0.1640 -0.1691 -0.2344
39343W        W82256  24.834  31.228   6.064 -0.3124  0.0714  0.4482
39344W        W82257  27.653  28.602   3.175 -0.0324 -0.1361 -0.1451
39345W        W82258   3.352   7.496   9.090 -0.0336  0.0751  0.0594
39346W        W82259  31.132   0.579   4.486 -0.1611 -0.0137 -0.3604
39347W        W82260  15.985   2.286   7.929  0.0560  0.0758  0.0043
39348W        W82261  28.004  33.676   8.068  0.0713 -0.1928 -0.2461
39349W        W82262  33.773  33.674  28.620  0.0127 -0.1346  0.0560
39350W        W82263  26.647  28.759   3.979 -0.0468 -0.0790  0.2726
39351W        W82264  19.833  26.283  27.958  0.3221  0.1244 -0.0421
39352W        W82265  27.394  28.611   2.125 -0.2707  0.0738 -0.0781
39353W        W82266  33.570  29.346   7.806 -0.0308 -0.1146 -0.1129
39354W        W82267  12.636  29.377  10.955 -0.0996  0.1106 -0.1522
39355W        W82268  23.924  26.655   3.810 -0.0113  0.0046  0.1853
39356W        W82269  22.420   2.568  28.755 -0.1461  0.0004 -0.1736
39357W        W82270  30.393  33.525   1.139 -0.0502 -0.1517 -0.3542
39358W        W82271  26.084   4.612  29.405 -0.2512 -0.0968 -0.0528
39359W        W82272   2.411  31.850   6.454  0.0556  0.0995 -0.0348
39360W        W82273   2.022  31.199   6.690  0.1736  0.2451 -0.0272
39361W        W82274  26.957  26.010   4.947 -0.2843  0.2823  0.0880
39362W        W82275  30.067  23.462   0.808  0.1615 -0.0317  0.0433
39363W        W82276  32.978   9.216   2.168  0.1306  0.0963  0.2892
39364W        W82277  27.051   1.707   8.702  0.0879  0.1656 -0.1892
39365W        W82278  23.795  30.906  25.358 -0.0816  0.0202  0.4106
39366W        W82279   4.431  21.697   3.460  0.0255 -0.0508 -0.0388
39367W        W82280   4.798  28.895  10.077 -0.1367 -0.2869 -0.1111
39368W        W82281  24.817  33.875   5.089 -0.0960  0.0781 -0.0930
39369W        W82282  23.451  28.668   3.475  0.3612 -0.0578  0.0139
39370W        W82283  29.750  26.013   3.767 -0.0327 -0.1822  0.0837
39371W        W82284  18.608  27.457   7.414 -0.1084  0.0944  0.1797
39372W        W82285  30.712  25.887   0.333  0.0188 -0.0430 -0.2366
39373W        W82286  20.688   1.586   4.034  0.2467  0.2883  0.0549
39374W        W82287  32.870  29.172   5.441  0.0314 -0.2539  0.3214
39375W        W82288  25.850  29.115   9.341  0.0650  0.2034 -0.2060
39376W        W82289  27.907  33.867  29.011 -0.3537  0.0849 -0.0831
39377W        W82290  24.424  31.474   6.898 -0.2592  0.4462 -0.1259
39378W        W82291   3.226  31.631   8.164  0.1021  0.0853 -0.0042
39379W        W82292  31.063  28.304  26.454 -0.1281  0.2821 -0.1938
39380W        W82293  33.603  26.134   8.048 -0.1875  0.0475 -0.2274
39381W        W82294  28.214   6.615   5.685  0.0323 -0.1168 -0.0481
39382W        W82295   0.059  21.753   8.557 -0.0577  0.2349  0.3233
39383W        W82296  27.622   9.910   9.897 -0.2527  0.6151  0.3288
39384W        W82297   8.976  21.705   4.514  0.1393 -0.1358 -0.0016
39385W        W82298  32.767  25.098   3.507 -0.0342  0.0173 -0.0350
39386W        W82299  19.736  32.874  29.177 -0.0953 -0.1064 -0.3203
39387W        W82300  29.281  15.011   9.396  0.2740  0.2334  0.0959
39388W        W82301  33.833  30.613   7.850 -0.1417 -0.1914  0.0408
39389W        W82302  30.730  33.016   4.708 -0.1682 -0.0199 -0.2703
39390W        W82303   0.638   0.696   9.426  0.1528  0.1386 -0.2440
39391W        W82304  19.025  31.246   8.004  0.2908  0.1696  0.0289
39392W        W82305   4.324   5.270  12.552 -0.0678 -0.3106  0.2277
39393W        W82306  15.514  33.689   4.244 -0.0272  0.0608 -0.0168
39394W        W82307  15.493  33.128   4.039 -0.0194  0.1260  0.1234
39395W        W82308  27.298  25.282   7.523  0.1483 -0.1426 -0.0798
39396W        W82309  28.629  28.603   1.995 -0.0697  0.0063 -0.0651
39397W        W82310  30.297   1.923   9.010  0.2142  0.0008 -0.1864
39398W        W82311  26.207   3.986   4.250  0.0991  0.0339 -0.0793
39399W        W82312  32.727   0.336   9.195  0.3054 -0.0896 -0.0057
39400W        W82313  30.994  24.005   5.216  0.0065  0.1680 -0.1423
39401W        W82314  31.945  26.179   5.909  0.2618 -0.1343  0.0646
39402W        W82315  28.592  29.270   3.529  0.4151  0.2107 -0.0687
39403W        W82316  25.087  27.509   6.295 -0.2453  0.1438  0.2721
39404W        W82317  33.558  31.112   9.569 -0.0094  0.1100 -0.2209
39405W        W82318   4.929   4.839   6.108  0.1993  0.0968 -0.1723
39406W        W82319  28.307  25.316   9.129 -0.1788  0.0130 -0.0494
39407W        W82320  33.381   1.265   1.785 -0.1146 -0.1096 -0.0342
39408W        W82321  26.507  29.423   7.230 -0.3794 -0.1479 -0.0166
39409W        W82322  22.053   2.529   7.991 -0.1196  0.1717 -0.2565
39410W        W82323  31.357  24.232   1.458 -0.0086  0.1767 -0.0692
39411W        W82324   9.418   1.831   3.634  0.0983  0.3282 -0.2664
39412W        W82325  30.379   4.192   3.187 -0.1473 -0.0971 -0.1609
39413W        W82326  19.768  21.407   3.572  0.1751  0.0487 -0.2443
39414W        W82327  22.211  28.005   1.267 -0.0194  0.2583 -0.0237
39415W        W82328   1.560  24.180  28.992  0.0429 -0.0942  0.1168
39416W        W82329  30.712  33.349   7.340 -0.0801 -0.0251  0.0140
39417W        W82330   3.115   4.138   5.055 -0.1289  0.1434 -0.0088
39418W        W82331  21.125  28.765   6.193 -0.0517 -0.0253 -0.1475
39419W        W82332  17.085  22.846   5.925 -0.5167 -0.0387  0.2336
39420W        W82333  30.631  27.639   4.675 -0.2562  0.2482  0.2703
39421W        W82334  24.519  32.153   9.185 -0.2466 -0.0537 -0.0259
39422W        W82335   3.934  33.300   7.483  0.1996 -0.2529 -0.0875
39423W        W82336   3.102  25.071   8.343  0.1242  0.4187  0.1013
39424W        W82337  31.893  26.868   7.514  0.3066 -0.0972  0.1900
39425W        W82338   2.845  29.185   3.152 -0.1191 -0.1933  0.1704
39426W        W82339  29.671  30.712   7.941 -0.0474 -0.0743 -0.0431
39427W        W82340  32.861   8.135   8.224  0.0935  0.3172  0.1233
39428W        W82341  29.714  26.383   5.691  0.1616 -0.3938 -0.0430
39429W        W82342  32.644  31.072  28.306 -0.0149  0.1574 -0.1475
39430W        W82343  27.661  32.001   8.864  0.0352 -0.4780  0.0638
39431W        W82344  31.144  31.081   0.718  0.0307  0.2640 -0.2956
39432W        W82345  20.768  32.604   8.449 -0.0041 -0.0467 -0.1152
39433W        W82346  12.666   9.145   9.438 -0.0839  0.2252  0.0611
39434W        W82347  23.658  11.177   0.151  0.0072  0.2802  0.1166
39435W        W82348  27.791  33.491  29.303  0.1642  0.0362 -0.3033
39436W        W82349  34.256   4.788  10.755 -0.2511 -0.0855  0.1880
39437W        W82350  24.702  32.786   4.224  0.1897  0.1651 -0.1949
39438W        W82351  18.656  30.742   6.741 -0.0862 -0.0323  0.1718
39439W        W82352  31.814  25.268   9.119 -0.0593 -0.0804 -0.0567
39440W        W82353  26.311  18.863   5.259  0.0964  0.1841 -0.0476
39441W        W82354  32.285  33.766   5.654  0.2008 -0.0648  0.1467
39442W        W82355  29.572  33.909   4.444  0.0770  0.0263  0.3369
39443W        W82356   5.956  28.587   9.125  0.0533  0.5596  0.1093
39444W        W82357  23.028  10.025   6.418 -0.1821 -0.1188 -0.0640
39445W        W82358  24.839  33.513   7.889  0.3878  0.1035 -0.3484
39446W        W82359  32.826   1.074  11.304  0.0349 -0.0706 -0.2139
39447W        W82360   1.813   6.331   6.923  0.2140  0.4087  0.1148
39448W        W82361  23.808   2.950  29.747  0.0941  0.1383  0.2034
39449W        W82362  32.647  24.484   7.965 -0.0598  0.3922  0.0412
39450W        W82363  25.759  31.413   2.331 -0.0408 -0.1254 -0.5967
39451W        W82364   1.840   4.343  11.868 -0.0058  0.1147 -0.1914
39452W        W82365  26.913  25.926   7.375  0.1047  0.1241 -0.0489
39453W        W82366  27.958  30.929   4.564 -0.0084 -0.3170 -0.0139
39454W        W82367  19.217   3.082  26.044 -0.3764 -0.2265 -0.2819
39455W        W82368  31.096   1.362   9.013  0.0306 -0.1301 -0.2269
39456W        W82369  18.146   1.849  28.986  0.3259 -0.0587 -0.1696
39457W        W82370  32.015   7.516   9.125 -0.0474 -0.1959 -0.1868
39458W        W82371  29.649   2.694   6.840  0.1298  0.1455  0.1309
39459W        W82372  28.632   3.373   8.207  0.1646  0.0268 -0.2157
39460W        W82373  28.361   3.605   4.195  0.1583 -0.0933  0.0627
39461W        W82374  23.097  29.573   6.049 -0.2519 -0.2564 -0.0363
39462W        W82375  24.065  27.986   7.529  0.1654 -0.0381 -0.3025
39463W        W82376   0.403  24.836   3.879 -0.3118 -0.0640 -0.2656
39464W        W82377  26.058  23.482   5.146  0.1506 -0.0556  0.4246
39465W        W82378  25.789   7.378  29.429  0.0290 -0.6851  0.2245
39466W        W82379  29.586  29.465   7.077 -0.0926  0.0893  0.1853
39467W        W82380  32.050   3.853  10.971 -0.2231  0.3777  0.1523
39468W        W82381   1.920   0.425   8.814  0.0170  0.1279 -0.0875
39469W        W82382   2.783   2.389   7.440 -0.2186  0.2318  0.0332
39470W        W82383  17.715   1.631   3.006  0.0241 -0.0378  0.1586
39471W        W82384  27.711  25.806   3.027  0.0763 -0.0119 -0.1410
39472W        W82385  25.973  30.872   3.054  0.1281  0.2040  0.0751
39473W        W82386  25.973  29.493   8.571  0.0961  0.0277  0.1183
39474W        W82387  20.969  29.762   3.299  0.1556 -0.1081 -0.1205
39475W        W82388  22.831  19.987  28.807  0.0323  0.0113  0.2196
39476W        W82389  21.858  28.747   7.244  0.0589  0.0991 -0.2777
39477W        W82390  32.561  15.771   6.090  0.4755  0.1228  0.1253
39478W        W82391  19.844   4.308   7.084 -0.0799 -0.2152  0.1312
39479W        W82392   9.685  22.184  28.461 -0.2694  0.0962 -0.3090
39480W        W82393  30.521  13.160  28.692 -0.0442  0.0869 -0.1474
39481W        W82394   7.157  34.431   3.096 -0.0409  0.2437  0.3549
39482W        W82395  21.153  31.887   3.447 -0.2385  0.0734 -0.0783
39483W        W82396  25.042  27.087   4.404  0.2772  0.2311 -0.0088
39484W        W82397  33.503  34.213   8.728 -0.2641 -0.1666 -0.1934
39485W        W82398  32.734  34.231   3.808  0.2595  0.0133  0.4204
39486W        W82399  29.120   0.391   9.703 -0.0571  0.3552  0.3095
39487W        W82400  31.469  23.594   0.592 -0.0754 -0.0348 -0.0388
39488W        W82401  11.164   0.738   8.566  0.2886 -0.0093  0.1607
39489W        W82402  27.981  24.805   0.866  0.1626 -0.0045  0.0738
39490W        W82403  34.211  33.749  10.012  0.0248 -0.0374  0.1806
39491W        W82404  32.632  33.406   4.371 -0.1077 -0.0786  0.0564
39492W        W82405  28.609  30.163  10.420 -0.3509  0.0700  0.0379
39493W        W82406  25.030   4.491   5.045  0.1925  0.0333 -0.0242
39494W        W82407   9.768  25.814   1.521  0.0132 -0.1798  0.3350
39495W        W82408   0.836   0.525   8.104  0.2215 -0.2807 -0.0388
39496W        W82409  20.382   2.116   5.036 -0.1638  0.2594  0.3151
39497W        W82410   5.848  29.014   7.793 -0.1155 -0.2611 -0.1482
39498W        W82411  30.768   2.500   6.196  0.1199  0.0792  0.3246
39499W        W82412   5.475  29.954   4.469  0.2175 -0.3980 -0.1280
39500W        W82413  24.269  28.620   5.380 -0.0268  0.1271  0.0402
39501W        W82414  26.659   1.518  28.708  0.3803 -0.0250  0.1699
39502W        W82415  23.427   5.293   4.361 -0.1163 -0.0505 -0.2043
39503W        W82416   7.932  29.994   7.147 -0.1141  0.0819 -0.0550
39504W        W82417  25.055  31.120   8.221 -0.0115 -0.1872  0.2145
39505W        W82418  30.841  27.608   8.062  0.3003  0.5282  0.0181
39506W        W82419  27.071  28.309   4.163 -0.3021  0.1763 -0.3185
39507W        W82420  28.412   9.895  28.584  0.1465  0.0967 -0.0018
39508W        W82421  18.954  33.850   5.757 -0.0375 -0.1431  0.0022
39509W        W82422  28.285  32.220   7.540  0.2406 -0.0954 -0.1949
39510W        W82423  28.111  27.309   5.064  0.1227  0.1922  0.2054
39511W        W82424  33.803  30.724  10.008 -0.1341 -0.2232  0.0119
39512W        W82425  26.432  28.972  29.519 -0.0277 -0.1489  0.3805
39513W        W82426   4.020  30.343   6.455 -0.1744 -0.1414  0.2019
39514W        W82427  27.440  31.885   8.061 -0.0150 -0.1978  0.0681
39515W        W82428  23.844  32.870   9.334 -0.1132  0.2730 -0.1480
39516W        W82429  11.187   4.594   2.776  0.1155 -0.0482  0.1153
39517W        W82430  31.849  29.752   8.612  0.2350 -0.3442 -0.1145
39518W        W82431  15.167  27.259   8.220  0.0168 -0.2442  0.0366
39519W        W82432  10.959  21.663   3.709 -0.1681 -0.1276 -0.1663
39520W        W82433  21.649  28.294   7.445 -0.2502 -0.0115  0.0463
39521W        W82434   1.560   6.250   7.350 -0.2283  0.2657 -0.1291
39522W        W82435  32.967  29.239   8.795 -0.0663 -0.0914  0.3082
39523W        W82436   1.398  31.947   8.072  0.0107 -0.2720  0.0146
39524W        W82437  29.747  24.749  27.104  0.0211 -0.0263  0.1906
39525W        W82438  28.865  25.808   6.632 -0.2079 -0.1467 -0.0221
39526W        W82439   2.716  26.630   3.658 -0.3196  0.0597  0.0608
39527W        W82440   0.413  27.419   9.790  0.1305 -0.0747  0.1742
39528W        W82441  15.286   2.429   2.136  0.1802 -0.0983 -0.0440
39529W        W82442  25.139  33.322  29.487  0.3792  0.0270  0.1347
39530W        W82443  30.701  24.676   8.188 -0.0455  0.0302 -0.1370
39531W        W82444  16.903   3.021   5.729  0.0576  0.1584  0.2305
39532W        W82445  32.558  23.106   3.711 -0.0206  0.1278  0.1418
39533W        W82446  23.211   0.234   9.209 -0.2915  0.4437 -0.0222
39534W        W82447  33.969  29.588   8.549 -0.2662 -0.0357  0.1473
39535W        W82448  32.377  31.684  10.120  0.0887  0.2529  0.1897
39536W        W82449  28.293   9.089   1.961  0.1838 -0.1421  0.2752
39537W        W82450  27.440  19.597  29.381  0.2750 -0.1912 -0.1605
39538W        W82451  27.246  34.225   6.819  0.3122  0.6448  0.2146
39539W        W82452  19.107   8.717   7.463 -0.1717 -0.0237  0.3177
39540W        W82453  29.490  33.547   9.312 -0.0834 -0.0316  0.3956
39541W        W82454  23.326  26.814   6.846 -0.2055  0.3835 -0.0020
39542W        W82455  20.950  25.748  27.390  0.0959  0.1680 -0.1657
39543W        W82456  27.842  31.884   8.368  0.2726  0.1323 -0.2874
39544W        W82457   2.169  24.492   3.048 -0.0579 -0.2302 -0.0452
39545W        W82458  18.639  30.724   5.102 -0.1257  0.0608 -0.4181
39546W        W82459   5.473  23.274   2.479  0.1680 -0.1059 -0.0241
39547W        W82460  23.684  22.792   3.852  0.3473 -0.2736  0.0576
39548W        W82461  21.621  29.850   3.270 -0.5128  0.1289  0.0003
39549W        W82462  32.081   4.257   8.718 -0.1707 -0.3117  0.1217
39550W        W82463   5.724  28.620   1.587 -0.0855  0.0538 -0.3847
39551W        W82464  29.097  12.880   3.455  0.1671 -0.0971  0.0109
39552W        W82465   5.043  26.459   6.491 -0.0284  0.1962 -0.0720
39553W        W82466  23.496  22.942   8.640 -0.4323  0.0392  0.2315
39554W        W82467   3.494   7.126   0.955  0.1891 -0.0813  0.0710
39555W        W82468  32.542  32.697   9.315 -0.0149  0.0136  0.0657
39556W        W82469  29.812  31.469   5.425 -0.0946  0.0647  0.1533
39557W        W82470  31.509  25.615   6.358  0.1235 -0.1967  0.1170
39558W        W82471  32.334  24.988   9.308  0.1691 -0.2542  0.0186
39559W        W82472  27.382   6.299  28.084 -0.4324  0.2248  0.3019
39560W        W82473  24.135   1.161  29.756  0.0940  0.1125 -0.1949
39561W        W82474  20.363   1.476   7.716  0.0162  0.1880 -0.0527
39562W        W82475  30.985  25.940   4.012 -0.1398  0.0322 -0.0747
39563W        W82476  29.839   1.629   2.124 -0.0736  0.3028 -0.0716
39564W        W82477  27.722  25.049   4.074 -0.0017  0.2090  0.1932
39565W        W82478   0.597  20.310   5.289 -0.0076  0.1406  0.2613
39566W        W82479   1.005   5.346   6.732 -0.3106  0.1677 -0.1489
39567W        W82480  19.852  30.635   8.137 -0.0066  0.0823 -0.0166
39568W        W82481  29.101  31.045   3.173 -0.0266 -0.0190  0.0402
39569W        W82482   0.644  30.332   9.929  0.2556 -0.2330  0.3495
39570W        W82483  29.096  27.809   7.532 -0.3190  0.0470  0.0621
39571W        W82484  31.520   0.873   3.949  0.0134 -0.0166 -0.0376
39572W        W82485   1.153  27.442   3.057 -0.2131 -0.1316  0.3491
39573W        W82486  32.526   0.103   8.146  0.3132 -0.0422 -0.1045
39574W        W82487  34.434   5.332  12.524 -0.1855 -0.0194 -0.1106
39575W        W82488  21.720  32.191   2.261 -0.2178 -0.0552 -0.2606
39576W        W82489  27.690  32.566   6.782 -0.1753 -0.1818 -0.1033
39577W        W82490  32.654  25.613   4.328 -0.2040  0.2779  0.0943
39578W        W82491  24.348  30.857  28.241 -0.2983  0.2069  0.2287
39579W        W82492  21.167  23.456   3.568 -0.2413 -0.2182 -0.1229
39580W        W82493   4.662  32.787  10.447 -0.0958  0.1412 -0.1105
39581W        W82494  28.507   0.163   4.623 -0.0101 -0.0128 -0.2141
39582W        W82495  10.709   4.059  10.282 -0.0096 -0.0174  0.1647
39583W        W82496   3.941  32.097   5.000 -0.1785 -0.2992 -0.1836
39584W        W82497  21.258  26.241   8.358 -0.1062  0.2531  0.0779
39585W        W82498  24.603  22.670   4.798 -0.2444  0.1215  0.1106
39586W        W82499   5.170   6.822   5.349  0.1492  0.2255 -0.0868
39587W        W82500   0.245   9.506   6.439  0.0588  0.0111  0.2559
39588W        W82501  27.927  32.382   2.477 -0.0158  0.1888  0.0127
39589W        W82502  26.752  34.337   7.338 -0.1214  0.0348  0.1412
39590W        W82503  31.710   5.266  11.169  0.0744 -0.1213 -0.3357
39591W        W82504   7.060  20.158   3.340  0.0527  0.3007  0.2658
39592W        W82505   2.347   5.406  10.765  0.0565 -0.0639 -0.1031
39593W        W82506  26.890   0.704   8.125 -0.3162 -0.3113 -0.1293
39594W        W82507  23.588  14.112   2.748  0.0956 -0.1525 -0.0540
39595W        W82508   0.860   3.493   5.685  0.0626 -0.0344  0.0692
39596W        W82509  30.296  10.267   1.209  0.1085 -0.1306 -0.1267
39597W        W82510  30.975   3.590   4.866  0.0357  0.1608 -0.1411
39598W        W82511  24.110   4.181   9.071 -0.1481  0.1136 -0.0321
39599W        W82512  22.378   7.245   3.194 -0.2687 -0.1184 -0.3654
39600W        W82513  21.936  31.418   3.948  0.1130 -0.2192  0.0688
39601W        W82514  33.172  28.871   3.075 -0.0783  0.0083 -0.1376
39602W        W82515  33.548  33.275  11.252  0.2056  0.2661 -0.2695
39603W        W82516  23.699   7.104   9.438  0.1103  0.0533  0.0661
39604W        W82517  19.528   2.161   8.267 -0.3184 -0.2223  0.0326
39605W        W82518  22.283  25.491   6.264 -0.1332  0.5112  0.1365
39606W        W82519   2.446   4.069  12.344 -0.0582 -0.1487  0.1158
39607W        W82520  31.004  31.836   7.199 -0.3065 -0.0784  0.1162
39608W        W82521  28.489   5.104  10.678 -0.0524 -0.1067 -0.2112
39609W        W82522  25.870  26.699   1.357 -0.1525 -0.1974  0.1599
39610W        W82523   6.930  29.501  10.919 -0.1021  0.0611 -0.3972
39611W        W82524  31.058   1.562   6.438 -0.3444  0.3241 -0.1494
39612W        W82525  30.338  16.742   2.116 -0.0826  0.1932  0.1474
39613W        W82526  24.559  30.240   4.924  0.2555  0.1970  0.2505
39614W        W82527  28.659  30.630   8.695  0.0296  0.4342 -0.0179
39615W        W82528  28.236  25.157   6.479 -0.0881 -0.0616 -0.0405
39616W        W82529  23.105  30.915   7.421  0.1341  0.2655 -0.1639
39617W        W82530   7.851  27.603   8.802  0.0653  0.2974  0.0440
39618W        W82531  27.424   1.285   8.702 -0.3460  0.1750  0.2106
39619W        W82532   3.512  19.089   6.308 -0.0947 -0.1735  0.1502
39620W        W82533  28.066   0.097  11.044 -0.0131 -0.3549  0.0812
39621W        W82534  32.650  28.735   5.317 -0.2635 -0.0009  0.0168
39622W        W82535  21.430  27.713   8.677 -0.2556 -0.3848 -0.3702
39623W        W82536  26.649   3.380  27.286  0.0645  0.1988 -0.0579
39624W        W82537  30.567  10.896   5.024  0.1839 -0.0027  0.1520
39625W        W82538   6.463   5.471   4.895 -0.0487  0.1480  0.0410
39626W        W82539  30.737  31.420   9.502  0.1529  0.2897  0.0373
39627W        W82540  29.954   2.111   5.709 -0.0987  0.1271 -0.2402
39628W        W82541  24.080   5.891   3.337 -0.0053  0.1487  0.0029
39629W        W82542  27.651  31.938  10.291 -0.0770  0.2119  0.3142
39630W        W82543  29.189  32.893   5.127 -0.1434  0.1762 -0.1706
39631W        W82544  25.805   3.067   8.442 -0.2057 -0.1481  0.1019
39632W        W82545   4.745  33.323   1.463 -0.2543  0.3150  0.1367
39633W        W82546   3.686   1.982   8.339  0.2442 -0.2836  0.1314
39634W        W82547  32.816  29.882   8.615  0.0225 -0.3277 -0.0963
39635W        W82548  33.352  30.099   2.300  0.1690  0.3351  0.0831
39636W        W82549  30.820   3.388   7.656 -0.0304  0.1175 -0.1353
39637W        W82550  32.063   5.994   6.917 -0.2477 -0.0327  0.2351
39638W        W82551  32.310   9.640   0.935  0.0031  0.0373  0.1160
39639W        W82552  30.185  29.666   9.310 -0.0520 -0.0665 -0.0071
39640W        W82553  29.294   2.214  28.928  0.2450  0.1272 -0.1493
39641W        W82554  30.887  26.073   6.731  0.3491 -0.2930 -0.0603
39642W        W82555  29.937  33.965   7.012  0.1534 -0.1183  0.0908
39643W        W82556  33.198  25.823   5.110  0.2848  0.0144 -0.0846
39644W        W82557  33.591  26.647   8.238  0.1078  0.2907  0.0943
39645W        W82558  29.219  34.418   4.239  0.0482  0.2007  0.2541
39646W        W82559  14.741   0.591   6.227 -0.0051 -0.1162 -0.0914
39647W        W82560  26.326  32.128   6.798 -0.0972 -0.4192  0.0754
39648W        W82561  32.505  31.431   9.183  0.5748 -0.3787 -0.4199
39649W        W82562  32.282  28.482   5.703  0.3553 -0.0147 -0.4591
39650W        W82563  23.349  29.135   3.932  0.0522 -0.2477 -0.1382
39651W        W82564   4.840  32.187   8.644 -0.0056  0.3813 -0.2972
39652W        W82565  33.897  29.818   5.859 -0.1717  0.4075 -0.1408
39653W        W82566  27.856  27.801   3.963 -0.1474 -0.1064 -0.0667
39654W        W82567   2.496  26.199   3.590 -0.2885  0.2799 -0.0488
39655W        W82568  25.684   7.104  20.035 -0.2375 -0.3018 -0.1352
39656W        W82569  34.312   6.789   7.550 -0.2461 -0.1399 -0.0937
39657W        W82570  20.574  25.101  29.310  0.3172  0.0303  0.0192
39658W        W82571   0.428  20.358   6.003 -0.0486 -0.0224 -0.0768
39659W        W82572  27.260  25.578  28.784 -0.1636  0.0269  0.1038
39660W        W82573   4.981  23.884   8.566 -0.2680  0.0226  0.0066
39661W        W82574  19.565  33.492   3.370  0.1015 -0.1596 -0.1981
39662W        W82575  29.940  32.635  10.361  0.3505 -0.2204  0.2260
39663W        W82576   3.402  33.328   3.684  0.0655 -0.0132  0.0044
39664W        W82577  31.293   0.226   5.957  0.1415  0.1821 -0.2332
39665W        W82578  29.783  31.233   8.060 -0.1375  0.0087 -0.1992
39666W        W82579  24.960   6.715   1.746 -0.2497  0.4098  0.4078
39667W        W82580   4.870  19.012   7.676  0.0992 -0.1635  0.2381
39668W        W82581  21.490   4.823   1.202  0.2324 -0.1482 -0.0166
39669W        W82582   0.410  12.503  27.696 -0.0365  0.5874 -0.0768
39670W        W82583  31.370   1.659  28.590  0.4874 -0.1058 -0.0409
39671W        W82584   1.550  24.135  26.558 -0.0879 -0.2864 -0.3936
39672W        W82585  31.471  21.958   4.555 -0.0197  0.1291  0.2193
39673W        W82586  11.232   9.000  12.018  0.1550 -0.3162 -0.1337
39674W        W82587   0.835  31.022  10.635 -0.1072 -0.1282 -0.0830
39675W        W82588  23.256  25.565   6.000 -0.1400  0.0585  0.5823
39676W        W82589  26.805  31.888   5.337  0.2354 -0.0665 -0.0084
39677W        W82590   3.420  33.954   9.940 -0.1915 -0.3508 -0.0943
39678W        W82591   5.133  25.147   2.693  0.0238  0.0769  0.0389
39679W        W82592   0.076  10.981  10.184 -0.4785  0.0792 -0.0397
39680W        W82593   6.309  25.115   8.188  0.2431 -0.1377 -0.2328
39681W        W82594  23.329   0.229   7.928 -0.1750  0.1549 -0.0836
39682W        W82595  25.641  17.225  28.209 -0.0177 -0.2082 -0.1799
39683W        W82596  28.564  22.801   9.066  0.3503 -0.2687  0.2580
39684W        W82597  22.380   6.688   8.126  0.0304  0.0720 -0.1059
39685W        W82598   6.575   6.753   3.571  0.0339  0.0331  0.1359
39686W        W82599  34.328   9.317   0.467  0.2903  0.1124 -0.0922
39687W        W82600  23.858  31.983   7.983  0.0122 -0.2836 -0.0873
39688W        W82601  28.005  28.843   4.111  0.3357  0.0582  0.0824
39689W        W82602  28.143  22.395   9.651  0.0180 -0.0155 -0.3330
39690W        W82603  30.757  31.297  26.636  0.0291  0.2869  0.0332
39691W        W82604  25.694  29.477   9.617  0.2480  0.0252 -0.0654
39692W        W82605  27.196   7.050   3.994 -0.2023  0.0235  0.0052
39693W        W82606  24.393  32.644   5.106  0.3026 -0.1071  0.0431
39694W        W82607  13.455  30.200   5.574  0.1815  0.2062 -0.3777
39695W        W82608  25.491  27.962   7.103  0.0849 -0.2781  0.1547
39696W        W82609   0.654   1.874  11.830 -0.0294  0.1611 -0.4700
39697W        W82610  26.518  32.159   0.803 -0.0980 -0.3298 -0.2668
39698W        W82611   9.831  33.642   8.028 -0.3482 -0.0087 -0.4554
39699W        W82612   6.727  33.135   8.621  0.1035 -0.1576  0.0326
39700W        W82613   3.796   5.925  12.868  0.1596  0.1944 -0.1467
39701W        W82614   4.277   2.123   9.749 -0.0254 -0.3082 -0.0840
39702W        W82615  23.817  30.289   4.278  0.3209  0.0474  0.0853
39703W        W82616  33.057  22.115   0.336  0.0650 -0.2974 -0.1276
39704W        W82617  32.129  19.953   9.386  0.1391 -0.0320  0.1734
39705W        W82618  34.151   2.454  10.488 -0.3259  0.3193  0.0077
39706W        W82619  16.233  26.483   2.137  0.0886 -0.2340 -0.1236
39707W        W82620  18.538  29.175   8.054 -0.0650 -0.3701  0.0736
39708W        W82621  34.130   2.586   5.707  0.1683 -0.1799  0.2156
39709W        W82622   0.042   6.227   7.444  0.1245  0.0204  0.1278
39710W        W82623  19.901  27.108  28.358 -0.0543 -0.0147  0.4563
39711W        W82624  32.050   2.775  10.065  0.0642  0.0725 -0.0768
39712W        W82625  24.755  32.492  28.408  0.1780  0.0634  0.1279
39713W        W82626  26.155  30.178  23.169  0.2284 -0.0230  0.3023
39714W        W82627  26.164   3.503   9.604 -0.0147 -0.3383  0.1666
39715W        W82628  30.418   2.843  29.375 -0.1455 -0.1681  0.2973
39716W        W82629  25.752  11.962  24.914  0.1495 -0.0336 -0.4380
39717W        W82630  30.789  29.942  29.583  0.0396 -0.1680 -0.1722
39718W        W82631   1.328   3.414  26.505 -0.0007 -0.2275  0.0053
39719W        W82632  26.761  29.913   6.285  0.0699 -0.2800 -0.1876
39720W        W82633   1.440   7.295  26.634  0.0562  0.1805  0.1986
39721W        W82634  26.959  13.901  26.545 -0.0738  0.2131 -0.0615
39722W        W82635  26.482  30.078   4.612  0.0199 -0.1332 -0.5176
39723W        W82636  24.532  24.696   0.892  0.0915 -0.2863  0.0895
39724W        W82637   1.899   2.224   4.449  0.0340 -0.3067  0.1558
39725W        W82638  24.339  30.750   2.858  0.0588 -0.2123 -0.3522
39726W        W82639  23.844  10.416   7.741  0.2250 -0.1269  0.0608
39727W        W82640  32.472   6.812  28.421  0.0844  0.0749 -0.0927
39728W        W82641  25.607  34.186  25.762 -0.1839 -0.0353  0.0042
39729W        W82642  31.832   5.459   9.019 -0.1144 -0.0248  0.0233
39730W        W82643  31.356  24.743  28.531 -0.1659  0.3563 -0.0491
39731W        W82644  24.691   3.670  19.573 -0.0772 -0.1514 -0.0238
39732W        W82645  26.755   7.776   3.466 -0.3742 -0.0256 -0.2035
39733W        W82646  21.182  26.819   6.669 -0.1074 -0.0052 -0.0183
39734W        W82647  31.670   4.212  26.269  0.1507  0.4575 -0.0043
39735W        W82648  23.741  23.685  19.008 -0.1897 -0.2025  0.0484
39736W        W82649  23.847   3.842   4.246  0.1796  0.1758 -0.0373
39737W        W82650  21.731  25.689   0.412 -0.0233  0.0948  0.2698
39738W        W82651  22.490  32.019   2.941 -0.0103  0.3398 -0.1011
39739W        W82652  23.271   0.273  21.323  0.1752 -0.0763 -0.2781
39740W        W82653  27.977   0.216   7.791 -0.0979 -0.2304  0.1861
39741W        W82654  27.147  13.442  26.369 -0.0393  0.0199  0.2520
39742W        W82655  31.348   4.030   3.714  0.1173  0.1467 -0.1053
39743W        W82656  25.036   5.822   3.451  0.2197  0.0825  0.0312
39744W        W82657  28.200   3.450  29.360  0.1056 -0.2411  0.0282
39745W        W82658  25.292   4.041  28.260 -0.3490  0.0023 -0.0162
39746W        W82659  33.431   2.035   4.973 -0.1094 -0.2515  0.0080
39747W        W82660  32.520  20.208   8.993 -0.0828 -0.0424 -0.4131
39748W        W82661  32.437   3.426  27.615  0.1664  0.3805 -0.1335
39749W        W82662   2.877  17.637  27.002 -0.1630 -0.5180  0.0738
39750W        W82663  28.043  26.928   5.853 -0.0285 -0.1242  0.2985
39751W        W82664  24.791  29.857   9.346  0.1006 -0.3305 -0.2206
39752W        W82665  28.059   2.146   2.332  0.1869  0.1436  0.0905
39753W        W82666  29.928   3.673  29.430 -0.0653  0.2800 -0.1362
39754W        W82667  31.855   4.995  28.169  0.1291 -0.0183  0.0634
39755W        W82668  29.199  12.858   4.258 -0.1605  0.3638 -0.1925
39756W        W82669  28.029   9.409   5.804  0.0773 -0.0622 -0.0300
39757W        W82670  22.268  30.817  28.059  0.1085 -0.2214  0.3009
39758W        W82671  28.823  28.702  27.892 -0.1673  0.1874 -0.0387
39759W        W82672  29.420   2.044   8.696  0.3595 -0.2160  0.0812
39760W        W82673  25.141   6.930   9.622 -0.1186  0.0201  0.0923
39761W        W82674  25.914  30.406   8.190 -0.0392 -0.1135 -0.0874
39762W        W82675  28.046  34.232   6.401 -0.1573  0.2243  0.0093
39763W        W82676  15.450  33.842   1.152 -0.0877  0.2443 -0.4801
39764W        W82677  33.705   7.351   1.741  0.2044 -0.1920  0.2163
39765W        W82678  27.233   5.747   8.903  0.4960  0.1389 -0.0655
39766W        W82679  25.818   3.150   5.175  0.0593  0.0843  0.2283
39767W        W82680  23.405  27.855   7.144  0.2435  0.0725  0.1456
39768W        W82681  26.422  31.714  27.664  0.1150  0.0195 -0.2796
39769W        W82682  27.540   2.650  27.806 -0.2255  0.1291 -0.0866
39770W        W82683  30.648  27.514   2.846 -0.2839 -0.2554  0.3256
39771W        W82684  21.401  28.170   0.144 -0.0758  0.1010 -0.1163
39772W        W82685  16.862   7.526   4.356  0.1786  0.0892 -0.2007
39773W        W82686  25.770   5.693   0.668  0.1516 -0.3060 -0.3307
39774W        W82687  18.551  29.051  23.836 -0.0965 -0.1468  0.0684
39775W        W82688  30.178   3.646   3.208  0.0479  0.0177 -0.1026
39776W        W82689  16.175   0.086  27.236 -0.2395 -0.2531  0.0686
39777W        W82690   3.871  30.587   1.114  0.1841 -0.0593  0.1045
39778W        W82691  25.190  29.888  26.385  0.2226 -0.0287  0.2201
39779W        W82692  22.561  15.457  22.180 -0.0697  0.4024 -0.2503
39780W        W82693  27.221   0.187   1.125  0.0422 -0.2410 -0.0450
39781W        W82694  19.653  33.553  28.246 -0.0609  0.0684 -0.0404
39782W        W82695  20.031  34.379   5.499  0.1959 -0.1076  0.1178
39783W        W82696  22.424   6.263  28.901 -0.2617  0.0884 -0.1892
39784W        W82697  31.689  30.942   9.227 -0.0546  0.1354  0.2454
39785W        W82698  21.265   2.322  20.055  0.1976  0.1718  0.2529
39786W        W82699  29.245   8.437   2.855 -0.2197  0.0727 -0.1804
39787W        W82700   4.547   0.663  11.982 -0.0332  0.0132  0.5274
39788W        W82701  26.813   8.797   2.748 -0.1396 -0.0247 -0.0104
39789W        W82702  27.491  15.073   8.104  0.4356 -0.2221 -0.0805
39790W        W82703  20.530   2.053   0.806  0.1993  0.3970 -0.2661
39791W        W82704   2.306   6.740   3.398 -0.2209 -0.2864  0.1148
39792W        W82705  32.920  23.192   1.741  0.0068 -0.0675  0.1863
39793W        W82706  19.875   0.987   2.171  0.1857  0.0853 -0.1388
39794W        W82707  24.579  25.743  20.024 -0.1092  0.0940 -0.0209
39795W        W82708  28.959   0.846   4.090 -0.1769  0.1907 -0.0977
39796W        W82709  31.213  24.628   3.799 -0.0449 -0.1645 -0.0805
39797W        W82710  30.565   1.248   8.959 -0.1622 -0.0724 -0.1231
39798W        W82711  26.000   0.258  29.054  0.0667  0.2316 -0.1367
39799W        W82712  31.718  26.555  27.524  0.0122  0.0583 -0.1828
39800W        W82713  27.960  25.182  28.932  0.0227 -0.0428 -0.2962
39801W        W82714  17.560  34.276  27.565  0.2594  0.1878  0.1613
39802W        W82715  29.355   1.517   8.711 -0.0078  0.1887  0.0983
39803W        W82716  34.319   5.514  27.716 -0.2282  0.2631  0.1863
39804W        W82717  33.386   3.690   9.045 -0.0355 -0.3966 -0.1520
39805W        W82718  26.818   3.190   5.158 -0.3477 -0.1622 -0.1202
39806W        W82719  32.836   7.032   2.097 -0.1907  0.2899  0.3695
39807W        W82720  25.047   9.623   7.210  0.0281  0.0347 -0.1042
39808W        W82721  30.941   5.411   3.083  0.0554 -0.1179 -0.3057
39809W        W82722  28.232   1.876  29.405 -0.0755  0.0330  0.0968
39810W        W82723  26.631  27.776  27.660 -0.2320  0.0914 -0.0262
39811W        W82724  32.055   7.803  24.447 -0.0135 -0.2385 -0.1041
39812W        W82725   2.124  31.840  24.165  0.3754  0.1219  0.0084
39813W        W82726  22.011  26.035   3.704 -0.2069  0.1670 -0.1223
39814W        W82727  33.378   3.834   3.791 -0.4093 -0.2317  0.0441
39815W        W82728  28.886  31.002   9.009 -0.1013  0.0555  0.0325
39816W        W82729  28.095  31.480  29.511  0.2218  0.0147 -0.2558
39817W        W82730  32.559  31.385  28.693  0.0325  0.0313 -0.1975
39818W        W82731  33.835   1.848   1.699 -0.0256 -0.1061 -0.1292
39819W        W82732  33.216  31.859  24.459 -0.0564 -0.1903  0.0898
39820W        W82733  28.621  33.477  29.501 -0.2059 -0.0614  0.0394
39821W        W82734  24.941  29.484  27.277  0.1454 -0.1471 -0.3163
39822W        W82735  33.547  33.020   7.754  0.1547  0.1071 -0.1432
39823W        W82736   5.204   0.817   7.307  0.0555  0.1550  0.1849
39824W        W82737  21.098  34.208   4.682  0.1774 -0.1212  0.0415
39825W        W82738  25.714  32.694   8.993  0.0849  0.1141 -0.1075
39826W        W82739  31.132  25.461   0.355  0.2003 -0.1528  0.1888
39827W        W82740  19.801  28.740   5.215 -0.2953 -0.2097 -0.2044
39828W        W82741  23.089   1.317   6.879 -0.0320 -0.1021 -0.0169
39829W        W82742  23.142   0.577   8.391  0.2836 -0.1622  0.0366
39830W        W82743  29.611  33.174   6.614 -0.1439 -0.0684  0.2370
39831W        W82744  34.064   6.280   3.916  0.1047 -0.2559 -0.0600
39832W        W82745  18.294   9.435   3.532  0.2007 -0.2942  0.2922
39833W        W82746  33.944   3.774   1.497  0.1108 -0.3038 -0.0869
39834W        W82747  27.893  34.174   8.080  0.0020 -0.1027  0.1971
39835W        W82748  23.010  24.439   3.954 -0.0116  0.4416  0.1404
39836W        W82749   3.566  23.644   4.345 -0.1247 -0.3899  0.0245
39837W        W82750  31.860  27.811   0.995  0.1458  0.0644  0.0565
39838W        W82751  27.612  25.313   2.679  0.0650 -0.3050 -0.0593
39839W        W82752   4.192   1.876   6.063 -0.0068  0.0502 -0.0949
39840W        W82753  23.897  33.887  27.713  0.3408  0.0982 -0.0355
39841W        W82754   1.404   4.158  10.888  0.1702  0.0707  0.2134
39842W        W82755  34.413   5.942  29.102 -0.1007 -0.2084  0.1397
39843W        W82756  27.163   4.512  25.561 -0.1493 -0.0374 -0.1887
39844W        W82757  27.223   4.283   1.805  0.2349  0.0993 -0.1690
39845W        W82758  26.887  29.300   1.074  0.0465 -0.0800 -0.0092
39846W        W82759  30.592   1.247  23.934 -0.2279  0.1379  0.1690
39847W        W82760  33.150  28.948  26.874  0.3700  0.0815  0.0529
39848W        W82761  23.396  26.895   2.309 -0.0550  0.0029  0.2650
39849W        W82762  30.039   5.128   3.484  0.0181 -0.1076  0.2692
39850W        W82763  33.363   5.039  29.307  0.3462  0.2781 -0.0579
39851W        W82764  22.941  20.104   0.963 -0.2428 -0.2674  0.2321
39852W        W82765  20.779  33.905  28.383 -0.0824 -0.0361 -0.0657
39853W        W82766  29.457   7.365   0.323 -0.2508  0.0544  0.1660
39854W        W82767  30.756  31.839  25.963 -0.1201 -0.0682 -0.1984
39855W        W82768  26.412   8.617   2.879  0.0286  0.2653 -0.1222
39856W        W82769  30.217  28.923   1.781  0.0843  0.3711 -0.0314
39857W        W82770   6.486   1.464   2.430 -0.0336 -0.3104  0.2975
39858W        W82771  26.016  32.894   2.576 -0.0058  0.1067 -0.1556
39859W        W82772  23.859  29.103  20.044 -0.0029 -0.0488 -0.0449
39860W        W82773   6.012  27.171  26.515 -0.1980 -0.1495  0.2065
39861W        W82774  24.525  28.691   7.102  0.0671 -0.1655  0.3029
39862W        W82775  28.813  26.999   8.136 -0.0396 -0.1490 -0.0544
39863W        W82776   0.641   3.614  26.070  0.1289  0.3444  0.1144
39864W        W82777  34.466   4.961  11.730 -0.2258  0.1133 -0.0540
39865W        W82778  32.597   6.264  11.704 -0.0871  0.2813 -0.0773
39866W        W82779  25.237  29.960  24.907  0.0758 -0.0863 -0.1103
39867W        W82780  26.010   9.601  27.848  0.2158 -0.1015 -0.0691
39868W        W82781  23.487  24.979  26.453 -0.0002 -0.1459 -0.1196
39869W        W82782  27.342   9.457   8.177  0.0872 -0.1591  0.1390
39870W        W82783   3.238   6.944  20.348 -0.0893 -0.3032 -0.2873
39871W        W82784   3.607  28.100   5.892 -0.0789 -0.0284 -0.4339
39872W        W82785   5.090   2.403   0.321 -0.0341  0.1126  0.1233
39873W        W82786  17.264   2.432   6.968  0.0348  0.1367  0.1208
39874W        W82787   2.791  10.306  12.037 -0.0137 -0.2826  0.0363
39875W        W82788  24.052  32.826   2.839  0.2459 -0.4250 -0.1187
39876W        W82789  25.273   2.055   2.136  0.4346 -0.1739  0.0763
39877W        W82790   1.598  31.233   4.197  0.1344  0.0467  0.1141
39878W        W82791  16.253   0.639  29.029  0.1130 -0.2391  0.2053
39879W        W82792  23.542   1.543   5.005 -0.3729 -0.1399 -0.0941
39880W        W82793  23.750  31.133  27.984 -0.2684  0.2899  0.3397
39881W        W82794   4.718   6.300  26.524 -0.1064 -0.0831 -0.0313
39882W        W82795  24.444  32.174   7.424  0.1371 -0.3126 -0.2766
39883W        W82796   0.618  17.464   2.503 -0.1618 -0.2591 -0.0342
39884W        W82797  31.572   4.105  28.943  0.0324 -0.0634  0.4126
39885W        W82798  28.664  30.301   5.031  0.1327 -0.0780 -0.2043
39886W        W82799  27.996   8.414   3.694 -0.0302  0.2457  0.1199
39887W        W82800  28.593  10.341  26.658  0.0975  0.0088 -0.1928
39888W        W82801  17.484  24.057   4.984  0.2008  0.2794 -0.1047
39889W        W82802  33.896  28.657  10.660 -0.4674 -0.0219  0.1643
39890W        W82803  27.557  28.107   7.024 -0.0441 -0.1527 -0.1950
39891W        W82804  28.787  34.396   0.167  0.0431 -0.0892 -0.1161
39892W        W82805  31.742   2.928   5.744  0.3593 -0.2518  0.2546
39893W        W82806  34.060  29.508  10.001 -0.0280  0.1616 -0.2473
39894W        W82807  17.058  24.257  24.234 -0.1065 -0.0743 -0.2828
39895W        W82808  32.861  27.174  25.034  0.1797 -0.2358  0.2345
39896W        W82809  30.433   6.121  27.410  0.3493  0.0162  0.0656
39897W        W82810  13.927  32.052  25.905  0.0250  0.0580  0.2273
39898W        W82811  21.914   8.979   1.705 -0.1744 -0.4322 -0.5887
39899W        W82812  28.435   3.734   6.234  0.0273  0.2121  0.1525
39900W        W82813  33.225  31.215   0.015  0.1940  0.3527 -0.0121
39901W        W82814   2.860  27.663   5.400  0.0386  0.3710  0.1581
39902W        W82815  30.224  21.763   4.249  0.0118  0.0055 -0.1369
39903W        W82816  24.554   5.597   9.819 -0.2804 -0.1392  0.2457
39904W        W82817  27.769   0.280  25.478  0.2882  0.0120  0.0774
39905W        W82818  18.890  26.682  24.951  0.0384 -0.0773 -0.0382
39906W        W82819  18.491  30.380   2.738  0.0222  0.1900 -0.3031
39907W        W82820  24.480  21.421   0.391  0.1738 -0.1166  0.2355
39908W        W82821  20.925  15.724  26.417  0.0536 -0.0822  0.0040
39909W        W82822  25.273  33.828   2.609  0.3123  0.1234  0.0636
39910W        W82823  32.040  32.266   5.961  0.0626 -0.1756  0.0258
39911W        W82824  29.598   1.836  29.060  0.2200  0.3523 -0.3083
39912W        W82825   7.384   8.310   4.010  0.0463 -0.0591 -0.0783
39913W        W82826  13.525  33.834  27.883 -0.2718 -0.2119 -0.1960
39914W        W82827  32.956   6.146   1.792  0.0688  0.2342 -0.1745
39915W        W82828  31.481  33.969  28.418  0.1617  0.0212 -0.1919
39916W        W82829  20.146  30.965  28.950  0.0675  0.0845  0.0712
39917W        W82830  28.720   2.507   0.323  0.1104 -0.3121  0.0867
39918W        W82831  20.941  28.259   4.599  0.1500  0.1353  0.0789
39919W        W82832   5.438   6.284  26.535 -0.0049  0.2211  0.2078
39920W        W82833   0.766   9.798  28.151 -0.1764 -0.0199 -0.3201
39921W        W82834   4.732  27.778   7.280 -0.0000  0.0785  0.0782
39922W        W82835  23.162  15.397   5.916 -0.3049  0.1726  0.0626
39923W        W82836  33.726   0.159   8.705  0.1425 -0.0918 -0.1060
39924W        W82837  34.105  33.006   4.416 -0.2103 -0.0129  0.0853
39925W        W82838  29.315   1.906   9.180  0.0042 -0.3155 -0.2049
39926W        W82839  23.201   3.943   4.766 -0.0777  0.0942 -0.1530
39927W        W82840   1.139   7.542   3.835  0.0365  0.1160 -0.2093
39928W        W82841  16.898   4.897   8.307  0.0697 -0.0706  0.1956
39929W        W82842  31.964  28.793   5.505  0.2173  0.0093 -0.1826
39930W        W82843  34.469   2.323   5.368  0.1060  0.0342 -0.2107
39931W        W82844  29.315  19.222   3.094  0.2457 -0.1699 -0.0381
39932W        W82845   3.061   4.201   1.577  0.5071  0.2459  0.1184
39933W        W82846   2.301   8.819   2.165  0.2591 -0.2306 -0.3171
39934W        W82847  29.837  27.461   7.972  0.0667 -0.4581 -0.1448
39935W        W82848  13.926  24.029  21.868  0.3457 -0.0468 -0.0828
39936W        W82849  30.781  32.315   9.968 -0.4509 -0.0815 -0.0112
39937W        W82850  22.905  32.580   6.505  0.0756  0.2951 -0.1352
39938W        W82851   3.207   8.916  12.120 -0.0943 -0.0028 -0.0339
39939W        W82852  27.901   5.387   1.259  0.1042 -0.1171  0.2929
39940W        W82853  29.240   4.424  21.838  0.3885 -0.0668 -0.0667
39941W        W82854  27.683   5.134   9.954 -0.2347  0.0963  0.0390
39942W        W82855  25.445  33.802   9.011  0.1998 -0.2003 -0.1548
39943W        W82856  28.095  27.938   7.537 -0.0560  0.1123  0.0749
39944W        W82857  24.116   8.525   7.942 -0.0325  0.1493  0.5518
39945W        W82858  24.751  33.446   3.161 -0.0102  0.1333  0.0817
39946W        W82859  30.107   8.293   9.326  0.0472  0.0005 -0.0254
39947W        W82860  25.963  33.483   6.136 -0.1778 -0.0390  0.0403
39948W        W82861  32.926  33.653   9.552  0.1924 -0.0585 -0.0432
39949W        W82862  31.175  28.338   7.360 -0.3093  0.2197  0.0324
39950W        W82863   3.004   6.930  11.155  0.1820  0.0851  0.1148
39951W        W82864   3.860  32.372   3.576 -0.2145 -0.0110 -0.0248
39952W        W82865  22.561  32.592   3.649  0.2453 -0.1740  0.1501
39953W        W82866  29.061   7.369   6.534 -0.0084  0.0533 -0.0892
39954W        W82867  18.687   7.569   7.130  0.2696  0.0436 -0.0880
39955W        W82868  19.954   2.449   6.614 -0.0654 -0.1297  0.1134
39956W        W82869  16.680  28.396   6.580  0.1377 -0.1378 -0.0078
39957W        W82870  27.933  34.461   5.961  0.1100  0.1115 -0.2129
39958W        W82871  25.466   2.826   5.351  0.2023  0.1028  0.2434
39959W        W82872  15.136   5.294  29.231  0.2100 -0.0714  0.0856
39960W        W82873  29.644   9.521   5.089 -0.2368 -0.0193  0.3954
39961W        W82874  28.167   3.214   1.185  0.1703 -0.1266 -0.0611
39962W        W82875  33.946   2.800   8.293  0.0755 -0.3056  0.0915
39963W        W82876   0.776   6.068   8.987 -0.3632 -0.0590 -0.1061
39964W        W82877  30.350  30.193   7.501 -0.1302 -0.2683  0.2688
39965W        W82878  22.466  25.271   8.469 -0.0398 -0.0171 -0.2689
39966W        W82879  20.568   3.296   5.140  0.3827 -0.0813 -0.1022
39967W        W82880  32.389   4.780  10.715  0.2296 -0.0087  0.3436
39968W        W82881  22.062  22.398  28.087  0.1744  0.3496  0.2992
39969W        W82882  22.816   6.101   0.163 -0.2147  0.0936 -0.3112
39970W        W82883  27.702  31.820   9.385  0.3154  0.0182 -0.0416
39971W        W82884  33.677  33.029  10.347 -0.1350 -0.3459 -0.1684
39972W        W82885  24.932  32.773   4.744 -0.0223 -0.3784  0.0933
39973W        W82886  32.479  10.809   5.235  0.0719  0.0306  0.0164
39974W        W82887  20.097  33.091   2.164 -0.1070  0.2657 -0.3537
39975W        W82888   3.327  34.236   4.030  0.0543 -0.4680 -0.1287
39976W        W82889  22.705   7.537  25.455  0.0962 -0.0131 -0.3669
39977W        W82890  32.834   2.464   6.556  0.2175 -0.2563 -0.2075
39978W        W82891  18.803   0.760   6.325 -0.0278  0.2021 -0.0288
39979W        W82892  30.933   9.896   5.124 -0.3289  0.0316  0.1335
39980W        W82893   5.269   7.558  13.354 -0.0011 -0.1304  0.0505
39981W        W82894   7.955  31.186   9.248 -0.1799  0.0747  0.1393
39982W        W82895  21.948  10.252   7.574 -0.0475 -0.0235 -0.2045
39983W        W82896  15.165  27.954   2.808  0.3592  0.0349 -0.0065
39984W        W82897  30.820   0.513  10.500 -0.2756  0.0300  0.3348
39985W        W82898  26.976   3.348   3.557 -0.0504  0.4172  0.2529
39986W        W82899  27.569  29.484   3.494 -0.4068 -0.1767  0.3320
39987W        W82900  31.765   5.279   4.663 -0.1237  0.1322 -0.0032
39988W        W82901   0.198   6.383   0.951 -0.0699 -0.0981 -0.3730
39989W        W82902  32.662  33.703   1.310  0.2242 -0.1072 -0.0407
39990W        W82903  25.593   6.686   2.606  0.0869 -0.1281 -0.1906
39991W        W82904  20.371  25.880   1.355  0.1464  0.2467  0.0180
39992W        W82905  18.603   1.534  27.750 -0.0085 -0.0330  0.1076
39993W        W82906   1.982   7.701   7.450 -0.2378  0.0170  0.0171
39994W        W82907  32.857  29.986   7.790 -0.0847  0.1707 -0.3364
39995W        W82908  32.167   5.134  11.374 -0.0211 -0.0533 -0.1126
39996W        W82909   3.452   3.739   2.177  0.3210  0.4232  0.1402
39997W        W82910  25.635  32.154  29.743  0.1299  0.0436  0.1229
39998W        W82911   1.525  18.797   9.351  0.1478  0.0014 -0.1458
39999W        W82912  20.658   2.552  20.873 -0.0587 -0.1104  0.1390
40000W        W82913   5.948   0.207   9.460  0.0104 -0.0882 -0.3180
40001W        W82914  30.003   3.386   9.872 -0.4238 -0.0255  0.3107
40002W        W82915  22.031  32.566   2.560  0.0164  0.1149  0.1891
40003W        W82916   1.736  34.076  10.534  0.0984 -0.0155 -0.2110
40004W        W82917  23.210  30.599   0.695 -0.0278 -0.0401 -0.1677
40005W        W82918  26.815  11.008   8.796 -0.2539 -0.0005 -0.0537
40006W        W82919  28.756   9.475   1.022 -0.1284 -0.0998  0.0151
40007W        W82920  32.865   1.929  25.771  0.0612  0.1141  0.3576
40008W        W82921  27.087   2.057  29.509  0.1196  0.0565  0.2983
40009W        W82922  23.636  33.205   6.102 -0.3212 -0.0537 -0.4433
40010W        W82923  27.562  33.050   6.852  0.0252 -0.0931  0.3598
40011W        W82924  25.521  21.572   3.295 -0.1941 -0.1057  0.1642
40012W        W82925  10.091  31.795  25.899 -0.0175  0.1153 -0.3027
40013W        W82926   2.631   0.104  10.030 -0.1104 -0.0477 -0.0590
40014W        W82927  26.035  33.343   8.184  0.1018 -0.1883 -0.4486
40015W        W82928   2.465  30.629   7.213 -0.0423 -0.1636 -0.2055
40016W        W82929  22.029   4.187  29.079 -0.0960 -0.0121 -0.2415
40017W        W82930  34.422   0.067  28.836 -0.1363  0.0935 -0.0957
40018W        W82931  33.180   0.546  29.720 -0.0396  0.1692  0.0033
40019W        W82932  25.077   3.582   2.029  0.2218  0.2072  0.0373
40020W        W82933  33.834  11.615   9.823 -0.1103 -0.0393 -0.0793
40021W        W82934  15.644   7.616   6.894 -0.0309  0.4048 -0.2910
40022W        W82935  32.070   1.117   4.213  0.0695 -0.0052  0.0283
40023W        W82936  23.938   1.364   8.683 -0.0363  0.1723 -0.1412
40024W        W82937  30.827  32.306   2.142 -0.1418 -0.1488 -0.1367
40025W        W82938  28.749   8.918   9.811  0.0612  0.1668  0.0947
40026W        W82939  14.983   6.817   1.976  0.1691 -0.2027 -0.0685
40027W        W82940   4.179  29.555   3.056 -0.3180 -0.0315  0.2941
40028W        W82941  25.341   4.385  26.906 -0.2397 -0.2353  0.2846
40029W        W82942  23.090  10.704  25.610 -0.2236  0.3456  0.2418
40030W        W82943  23.317   5.406   9.176  0.2266  0.2728 -0.1975
40031W        W82944  30.753   3.011  10.753  0.0013 -0.3143 -0.3968
40032W        W82945  20.472   0.356   6.227  0.1086  0.1273 -0.0016
40033W        W82946  29.505   6.205  10.351 -0.0656  0.1154 -0.2412
40034W        W82947   1.160  11.845  11.272  0.0812 -0.1358 -0.1012
40035W        W82948  33.235   4.146  12.455 -0.1658 -0.1578 -0.3087
40036W        W82949  31.094   4.949   5.562 -0.2114  0.2785 -0.1564
40037W        W82950  32.448  11.060   2.023  0.3273  0.2393 -0.2133
40038W        W82951  31.951  31.966  10.306 -0.0109  0.1008 -0.0442
40039W        W82952  32.239  27.833   6.581 -0.0335 -0.1333 -0.3592
40040W        W82953   8.759  34.425   5.170 -0.2705  0.0744  0.1432
40041W        W82954  22.588   8.921   6.032 -0.1145 -0.0136  0.0046
40042W        W82955  32.712   2.069   7.511 -0.1326  0.0932 -0.2375
40043W        W82956  23.624   4.017   9.016 -0.1791  0.1267 -0.2032
40044W        W82957  28.920  30.109   7.012  0.1296 -0.0131  0.0416
40045W        W82958  33.710   7.204  10.354 -0.1900  0.0902 -0.0714
40046W        W82959  33.874  30.628   8.796 -0.0908  0.0633  0.1692
40047W        W82960  32.508   0.046   9.575 -0.1341  0.2801 -0.1703
40048W        W82961  20.437  23.170  28.188 -0.0130  0.0637  0.0563
40049W        W82962  24.154  10.072   2.679 -0.0221 -0.0381 -0.0803
40050W        W82963   9.000  10.802   8.203  0.0907  0.0940  0.2302
40051W        W82964  31.800   2.084   5.728 -0.0783  0.0548 -0.0402
40052W        W82965   7.676  24.477   4.170 -0.0534 -0.1276  0.0185
40053W        W82966  33.247   8.875   6.099  0.0036 -0.1196  0.0080
40054W        W82967  17.509  22.786   4.096  0.0651 -0.1817 -0.2492
40055W        W82968  19.886   1.057   3.562  0.2652  0.0248  0.0085
40056W        W82969   2.408   0.822   8.148  0.2970  0.0886  0.0955
40057W        W82970  28.487  33.850   1.528 -0.2307  0.0547 -0.0968
40058W        W82971  27.873  22.225   6.480 -0.1091 -0.0006 -0.0068
40059W        W82972  32.711  33.266   4.978  0.1767  0.0298  0.0245
40060W        W82973   2.995   7.462  10.272  0.4849  0.4375 -0.1305
40061W        W82974  23.381   0.170   2.919  0.0006  0.1034 -0.2246
40062W        W82975  27.695  24.870   5.527 -0.3415  0.0256 -0.3631
40063W        W82976  19.162  25.802  28.126  0.1422  0.0345  0.0720
40064W        W82977   8.320   6.319  22.558 -0.1160 -0.1551 -0.0022
40065W        W82978  25.503   2.141  29.681 -0.1825  0.2649  0.1737
40066W        W82979  32.851  31.785   9.247 -0.1362 -0.0383  0.0673
40067W        W82980  32.612   9.107  28.247 -0.0095 -0.1582  0.2669
40068W        W82981  22.268  26.676   3.601  0.0244 -0.1118  0.0632
40069W        W82982   1.746  33.114  24.985  0.0062  0.0987 -0.0295
40070W        W82983  30.445   0.667   6.964 -0.0292  0.3708  0.0096
40071W        W82984  24.718  31.638   2.705 -0.0342  0.2258 -0.0014
40072W        W82985  27.886  23.302   9.707  0.0667  0.2059 -0.1051
40073W        W82986  32.848  30.608   3.338  0.1216 -0.0117  0.0558
40074W        W82987   3.025   3.374   0.915  0.2594 -0.1580 -0.1673
40075W        W82988  21.475   2.487   7.663 -0.1201 -0.1337 -0.4361
40076W        W82989  18.760  23.753   6.792  0.4288  0.1383 -0.2859
40077W        W82990  26.812  33.328  25.465  0.1706  0.0661 -0.3608
40078W        W82991  20.829  33.934   4.197  0.0965  0.1061  0.0681
40079W        W82992  30.578   1.032   0.428 -0.2507 -0.0375  0.0309
40080W        W82993   1.238  27.496   6.865 -0.1535 -0.1884 -0.1383
40081W        W82994  15.445  14.085   6.349 -0.2424  0.0650  0.2921
40082W        W82995  22.165  29.397   7.010  0.0389 -0.1533  0.1006
40083W        W82996  23.228  21.236  28.910  0.1502  0.2988 -0.0326
40084W        W82997  23.763   5.078   6.335 -0.1094  0.2413 -0.0265
40085W        W82998  24.970   3.840   9.223 -0.0903  0.0420 -0.2512
40086W        W82999   0.963   3.994   9.579 -0.2235  0.1539 -0.0042
40087W        W83000  23.336  14.893   7.868  0.1366 -0.0387  0.1439
40088W        W83001   3.675  33.794   4.627 -0.1267 -0.1799  0.4649
40089W        W83002   4.064   1.652   1.764 -0.0737  0.1187 -0.4625
40090W        W83003  21.399  33.663   6.392  0.1680 -0.1609  0.0050
40091W        W83004  31.057  32.828   9.777 -0.0470  0.1500  0.3141
40092W        W83005  26.700  19.766   3.874 -0.1177  0.0915  0.0018
40093W        W83006   1.436   4.495   7.921 -0.2343 -0.0567  0.0106
40094W        W83007  23.160  28.705   2.628  0.2134 -0.1621 -0.2610
40095W        W83008  29.774  28.842   9.418 -0.2085 -0.2618 -0.0028
40096W        W83009  30.272   2.451   7.250 -0.1222  0.2877 -0.1148
40097W        W83010  29.376   9.605   3.229  0.0140 -0.2891 -0.1770
40098W        W83011  33.418  26.611   9.192 -0.2433  0.1165  0.2422
40099W        W83012  32.107   2.624  24.680  0.1507  0.2832  0.2804
40100W        W83013  15.507  32.659   8.700  0.0332  0.0251  0.0884
40101W        W83014  30.562  10.725   9.914  0.1600 -0.0287 -0.0867
40102W        W83015  22.267  30.188  29.362 -0.0817  0.1038 -0.3668
40103W        W83016  28.734  24.279   2.843 -0.0965 -0.2004 -0.2514
40104W        W83017  27.363   0.069   9.364  0.1159 -0.0571  0.3810
40105W        W83018  14.094  31.033  29.221 -0.2463  0.3077 -0.1853
40106W        W83019  16.972  33.850   7.790 -0.1289 -0.2539 -0.1600
40107W        W83020  34.114  27.555   8.104 -0.2107  0.2216 -0.0834
40108W        W83021  31.844  32.493  26.477 -0.0740 -0.1494  0.0984
40109W        W83022  19.102  13.283   7.484  0.3757  0.1289  0.0862
40110W        W83023  23.338  31.228   9.819  0.1384 -0.0069  0.0319
40111W        W83024  23.474  30.105   5.290 -0.1350  0.2174  0.0644
40112W        W83025  22.326   8.961   0.349 -0.0714 -0.0948 -0.1033
40113W        W83026  30.299  22.877   6.099 -0.0968 -0.0910 -0.0084
40114W        W83027   6.515   1.830   2.043 -0.1779 -0.0143 -0.1882
40115W        W83028  28.315   3.581   5.766 -0.2162  0.0713  0.0927
40116W        W83029  15.558  27.606   8.036 -0.1128  0.3617 -0.4339
40117W        W83030  17.786  25.612  24.600 -0.0504 -0.3700 -0.2814
40118W        W83031  18.473   2.534   3.255 -0.1492 -0.0019  0.0392
40119W        W83032  28.554  28.359   7.155 -0.1909  0.0751  0.0055
40120W        W83033  23.356  31.074   9.000  0.1513  0.5997 -0.0699
40121W        W83034  14.997   1.312  10.437  0.0181 -0.0229  0.0438
40122W        W83035  24.426   3.065   5.307  0.1858 -0.1398 -0.1019
40123W        W83036  16.396   0.921   7.467 -0.2544  0.0784 -0.0170
40124W        W83037  25.912   5.032   6.992  0.0546 -0.5054  0.1439
40125W        W83038  15.634  11.084   8.871 -0.1596 -0.1232  0.0605
40126W        W83039  15.073  33.820   5.164  0.2392 -0.1556  0.3010
40127W        W83040  32.786   4.089   1.279 -0.0553 -0.0618 -0.4791
40128W        W83041  31.265  20.505   2.290  0.1702  0.1698  0.1162
40129W        W83042  32.133  30.667   8.385  0.1063  0.0106  0.0218
40130W        W83043  26.840  32.444   9.990  0.0422 -0.0973  0.1488
40131W        W83044  16.220   0.373  26.267 -0.0697 -0.1316  0.5359
40132W        W83045   1.489   1.884   7.637 -0.2716 -0.0411 -0.1919
40133W        W83046  22.758  27.450   8.096  0.1763 -0.0719  0.0270
40134W        W83047  30.538   9.356   5.153  0.1154 -0.0400 -0.1238
40135W        W83048  32.416  17.374   7.378 -0.1035 -0.1600 -0.0616
40136W        W83049  33.571  33.884   4.164  0.0602 -0.1232 -0.0535
40137W        W83050   6.229  33.777   9.478  0.2544  0.1998  0.0110
40138W        W83051  23.333  32.273   9.764  0.3021  0.0267 -0.0270
40139W        W83052   0.587   0.425  10.494 -0.1827 -0.2109  0.1186
40140W        W83053  25.693   8.556  10.471  0.0813 -0.1239 -0.0472
40141W        W83054  25.872  33.259  29.019 -0.1059  0.1751 -0.1636
40142W        W83055  31.136  15.031   6.796 -0.1529  0.0047  0.0428
40143W        W83056  24.143  26.631   4.354 -0.2096  0.0663 -0.1747
40144W        W83057   5.702  32.926   6.182  0.0064 -0.2371 -0.0496
40145W        W83058  20.821  13.434   1.221 -0.0180  0.0451  0.2419
40146W        W83059  27.692  32.124   7.033  0.1661 -0.1895  0.2559
40147W        W83060  30.111   6.426  11.090  0.0940  0.0483  0.0335
40148W        W83061  32.926  31.164   5.832  0.1580  0.1602 -0.2731
40149W        W83062  28.191  12.297   5.787 -0.1418 -0.1796 -0.3284
40150W        W83063  27.670   7.707   9.301 -0.0973 -0.0594  0.3928
40151W        W83064  11.473   2.935   5.428 -0.3109  0.3185 -0.0837
40152W        W83065   0.266   3.381  12.473 -0.0206  0.3107  0.0749
40153W        W83066   1.211   1.351  10.509 -0.0454  0.1439  0.0625
40154W        W83067  31.525  33.789   9.320  0.1093 -0.1142 -0.1559
40155W        W83068  31.769  14.489  28.266 -0.0152  0.0361  0.2206
40156W        W83069   3.889  11.870   6.695 -0.1940  0.0523 -0.0621
40157W        W83070  18.996  28.104   0.906 -0.0177 -0.2404 -0.1473
40158W        W83071   2.538  26.410   0.121 -0.0838 -0.1063  0.0362
40159W        W83072  21.278   2.204   4.701  0.0252 -0.1396 -0.0259
40160W        W83073  28.516  28.577   8.838 -0.0769  0.3438  0.0669
40161W        W83074  33.111   6.472  11.508  0.0675 -0.0164  0.2242
40162W        W83075  15.963   0.948   6.501 -0.1929  0.1388  0.2067
40163W        W83076  27.056   6.613  29.699 -0.2140  0.3409 -0.0668
40164W        W83077  32.842   1.050  11.816 -0.1462 -0.1691  0.0619
40165W        W83078  12.183  31.865  11.286  0.2077 -0.0255  0.1490
40166W        W83079   0.576   9.227  10.998  0.1222  0.1186  0.0757
40167W        W83080   7.214  31.796   4.165  0.0553 -0.0560 -0.0833
40168W        W83081  31.468   8.659   6.265  0.3625 -0.3853  0.4775
40169W        W83082  32.683  30.526   9.302  0.0729 -0.1798  0.1338
40170W        W83083  31.642  32.932  10.260  0.0386  0.2134  0.2024
40171W        W83084  26.173   7.365   0.466 -0.1735  0.2981  0.0170
40172W        W83085  24.851   2.482   8.993  0.5738  0.2103  0.1061
40173W        W83086   3.737   1.198  11.864 -0.0400 -0.0187  0.1519
40174W        W83087   5.263  33.509  11.097 -0.0397  0.0046 -0.0837
40175W        W83088  19.394  27.640   7.843  0.2520 -0.1899 -0.1152
40176W        W83089  25.633  34.006  10.031  0.2781  0.0073 -0.1956
40177W        W83090  34.289   5.356   6.887 -0.0919  0.0460 -0.2552
40178W        W83091  26.256   8.138   5.049 -0.1158 -0.2199  0.1706
40179W        W83092   1.730  24.642   4.332 -0.2061  0.1594  0.1591
40180W        W83093  29.045   2.313   8.903 -0.0668  0.0185  0.0011
40181W        W83094  29.610  30.201   7.777  0.3297 -0.1325  0.2232
40182W        W83095  26.716   2.472   9.554  0.3918  0.1436  0.0088
40183W        W83096  30.554   5.221   9.317 -0.0840  0.5289  0.3489
40184W        W83097  21.424  27.553   8.188  0.2839  0.1565 -0.3744
40185W        W83098  29.493   3.180   4.846  0.0420  0.0201  0.1870
40186W        W83099  25.464   2.631   7.120  0.0920 -0.0329  0.0315
40187W        W83100   3.869  31.769   6.395  0.1814 -0.0116  0.3515
40188W        W83101  25.574   3.391  28.822 -0.0632  0.3648 -0.1187
40189W        W83102   1.533   3.883   1.055 -0.1706  0.1813  0.1654
40190W        W83103  20.876   3.278   0.225  0.4258 -0.1596  0.0596
40191W        W83104   2.359   1.979   6.636  0.1232  0.1596 -0.1024
40192W        W83105  18.162  27.648   3.980  0.1578  0.0656 -0.2014
40193W        W83106  27.593   9.703   4.261  0.0254 -0.1706 -0.0921
40194W        W83107  26.344  31.691   2.438  0.0263 -0.1226  0.1717
40195W        W83108  25.290   0.811   5.266 -0.1991  0.2458  0.0575
40196W        W83109   0.795   6.696   3.757  0.0568  0.1830 -0.0573
40197W        W83110  32.035  31.341   5.832 -0.2305 -0.1012 -0.2081
40198W        W83111  33.377   2.133   4.430  0.0282  0.2125  0.0581
40199W        W83112  25.108  21.908   3.255 -0.3157 -0.0617 -0.0396
40200W        W83113  28.180   1.805   2.967  0.2613 -0.1908 -0.4897
40201W        W83114  23.342   2.925   7.547 -0.2069  0.2461  0.3122
40202W        W83115  29.060   4.817  27.778  0.0996 -0.2354 -0.0102
40203W        W83116  31.812   4.954   9.417 -0.1740  0.1755 -0.1193
40204W        W83117  30.413   2.510   8.740 -0.1878  0.0456 -0.1774
40205W        W83118  13.951   2.764   6.912 -0.0466 -0.0771 -0.0525
40206W        W83119  26.018  15.223   2.971  0.3772 -0.3205  0.2502
40207W        W83120  27.038   2.597   6.785  0.1287  0.0136 -0.0738
40208W        W83121  20.321   3.759   6.975 -0.0810 -0.1137  0.0327
40209W        W83122  33.982   7.665  10.491 -0.2350  0.2863 -0.1451
40210W        W83123  27.901   5.086   5.072 -0.0104  0.1780  0.0398
40211W        W83124  20.171  19.525  26.705  0.0463  0.1673  0.0928
40212W        W83125  21.285  29.642   3.931 -0.5017 -0.2789  0.2094
40213W        W83126  32.094   1.311   6.844  0.0271  0.2292  0.2747
40214W        W83127   4.627   3.601   4.441 -0.1910 -0.4236 -0.1392
40215W        W83128  30.887   4.780   2.238 -0.3612  0.3118  0.4528
40216W        W83129  19.960  33.512   5.623  0.1553 -0.1209 -0.5166
40217W        W83130  28.724   7.385   5.271  0.1752  0.0525 -0.1079
40218W        W83131   2.689   1.934   8.366 -0.0015 -0.0672  0.1634
40219W        W83132  31.405  30.541   6.933 -0.3779  0.0534 -0.1566
40220W        W83133  31.460  32.463   7.145 -0.1299 -0.0364  0.0915
40221W        W83134  24.731  29.036   6.117  0.3560 -0.2999  0.2809
40222W        W83135  32.522   4.083   8.881  0.0058 -0.0681 -0.2595
40223W        W83136  10.491  33.723  12.248  0.1162 -0.0288 -0.3418
40224W        W83137  22.799   4.362   9.510 -0.0770 -0.0838  0.1850
40225W        W83138  21.348   1.981  10.247 -0.1687  0.4254 -0.3763
40226W        W83139  16.506   5.514   2.740  0.0433 -0.1510 -0.0161
40227W        W83140  29.962  28.424   9.331 -0.5718 -0.1293 -0.3099
40228W        W83141  25.696   4.002   8.478 -0.0390  0.3444  0.0852
40229W        W83142   4.291   2.544  11.212  0.0497  0.2571  0.0958
40230W        W83143  29.011   6.638   4.577 -0.0517  0.1330 -0.1352
40231W        W83144  21.972   3.681  10.354 -0.1994 -0.1334  0.1645
40232W        W83145   0.096  15.007   8.848  0.0627 -0.2347 -0.0954
40233W        W83146  32.758  34.041  10.274 -0.2059  0.0380  0.1282
40234W        W83147  20.157  19.373   1.449 -0.4456 -0.0163 -0.1942
40235W        W83148  30.217  29.883   8.409 -0.0336 -0.1461 -0.0021
40236W        W83149  29.777  28.097   4.547 -0.0028  0.0250  0.2214
40237W        W83150  32.956  27.152   9.710  0.3966 -0.0136  0.0220
40238W        W83151  31.187  26.605   4.958  0.2168  0.2512 -0.1037
40239W        W83152  16.231  28.112   9.884 -0.2510  0.0924  0.2879
40240W        W83153  19.590  33.098   2.095 -0.0697 -0.2272  0.0901
40241W        W83154   1.693   0.185  11.028  0.1371  0.0391  0.2130
40242W        W83155  29.981  32.807   9.455 -0.0564 -0.3580  0.3826
40243W        W83156  31.908   9.301  11.072  0.5108  0.0431 -0.1364
40244W        W83157  31.642   4.659  10.830  0.0549  0.0822  0.3619
40245W        W83158  32.586   3.660   7.030  0.0982  0.2495 -0.0719
40246W        W83159  23.615   0.612   8.199  0.1104  0.0051 -0.2394
40247W        W83160  24.429  33.038   0.852 -0.1158  0.0362  0.4634
40248W        W83161   9.897   1.982   3.530 -0.0530  0.0086 -0.1713
40249W        W83162  32.558  32.738   6.915 -0.2108  0.1951 -0.2471
40250W        W83163  27.799  31.128   7.700 -0.0189 -0.2586 -0.0577
40251W        W83164  27.813   3.298   5.723 -0.0418  0.1514  0.1138
40252W        W83165  10.858  33.091  29.458  0.0244  0.2836 -0.0304
40253W        W83166   0.448   5.065   9.884 -0.0705 -0.1859 -0.1436
40254W        W83167  29.404   9.524   8.360  0.0578 -0.0820  0.0185
40255W        W83168  24.125   6.651   4.033 -0.1194 -0.0513 -0.1551
40256W        W83169  28.297   3.319   6.548 -0.0976  0.0490  0.4114
40257W        W83170  27.189  28.652   0.304 -0.2737 -0.0578 -0.2896
40258W        W83171   9.395  10.408   9.836  0.0516 -0.0962  0.1896
40259W        W83172   4.721  26.211   8.502 -0.0961 -0.2443  0.0678
40260W        W83173  22.332   8.650   8.757 -0.1762  0.0051  0.1572
40261W        W83174  33.160   2.851  27.379 -0.2194  0.1186  0.1379
40262W        W83175  10.744  11.147   7.215 -0.3756 -0.1175  0.1975
40263W        W83176   7.486  29.458   0.610  0.3979 -0.0409 -0.1838
40264W        W83177  16.878   2.543   6.497 -0.1792  0.2418  0.3065
40265W        W83178  15.120  10.091   3.022 -0.0778  0.0172 -0.0898
40266W        W83179  10.332   5.481   9.916  0.1989  0.1749  0.0068
40267W        W83180  19.817  30.213   4.663 -0.0278  0.0286 -0.2086
40268W        W83181  29.094   6.950   7.487 -0.1424  0.2839 -0.0153
40269W        W83182   3.008   7.037  10.649  0.2947 -0.0079 -0.1227
40270W        W83183  32.483   0.366  10.983 -0.1657 -0.1773  0.0765
40271W        W83184  34.201  15.003   5.141 -0.0578  0.1755  0.1331
40272W        W83185  16.463  28.826   8.411 -0.1898 -0.2859 -0.0393
40273W        W83186   6.282   0.927   0.933  0.0679  0.2579 -0.0519
40274W        W83187  31.870  33.501  10.452  0.2800 -0.0220 -0.1863
40275W        W83188  23.892   6.218   8.182  0.0986  0.2389 -0.0778
40276W        W83189  18.674   1.470   0.960  0.3734 -0.3474  0.1934
40277W        W83190   1.248  34.165   3.650 -0.3165 -0.0224  0.1653
40278W        W83191  23.485  28.545   4.633  0.1198 -0.2504 -0.0739
40279W        W83192  20.428  26.804   0.862 -0.3068  0.2444 -0.1164
40280W        W83193  25.582  32.255   5.913  0.1000 -0.0715 -0.2461
40281W        W83194   0.986   0.833   4.942  0.2681 -0.0245 -0.0132
40282W        W83195  33.330   2.024   6.657 -0.0029  0.1891  0.1736
40283W        W83196   7.791  28.646   8.809 -0.3745  0.1917  0.0386
40284W        W83197  32.130   0.890   5.876 -0.0438  0.1757  0.0592
40285W        W83198  26.613   2.341  10.913 -0.1013  0.0928  0.0299
40286W        W83199  29.884  29.251   6.725  0.1625  0.2372 -0.0022
40287W        W83200  23.580  13.244   4.191  0.0672  0.0776  0.0749
40288W        W83201  28.282  29.215   2.727 -0.0388 -0.0040  0.3496
40289W        W83202  30.495  24.644   5.864 -0.2801 -0.3728 -0.2776
40290W        W83203  24.605   0.318   3.975  0.5047 -0.0532  0.3749
40291W        W83204  28.597   1.843   5.550  0.2072 -0.0274  0.0562
40292W        W83205   4.805   8.257   4.140 -0.1872  0.4027 -0.0067
40293W        W83206  17.589  29.786   3.988  0.1742  0.1783 -0.1492
40294W        W83207  22.551  29.899   8.359  0.0366  0.1529  0.1593
40295W        W83208  22.237  24.438   3.615  0.1788 -0.0692  0.1701
40296W        W83209  17.513   0.747   7.676  0.0082 -0.1201  0.1020
40297W        W83210  30.504   6.205  10.977 -0.0883 -0.4254 -0.1868
40298W        W83211  20.180   2.709   6.185  0.0450  0.1693 -0.1996
40299W        W83212   1.046   7.615  12.311  0.2311 -0.1470  0.0640
40300W        W83213  31.103   2.850   8.428 -0.1233 -0.4230 -0.0200
40301W        W83214   4.733  24.718   6.447  0.2743  0.1523 -0.3434
40302W        W83215  26.643  28.129   9.097  0.0938  0.0079  0.3513
40303W        W83216  12.002  30.021   0.892 -0.1635 -0.2643  0.3266
40304W        W83217   1.203   7.095   6.998 -0.1698 -0.1867 -0.0426
40305W        W83218  29.632  26.599  10.295 -0.1052  0.1246  0.2835
40306W        W83219  15.683  29.304   6.830  0.0703  0.2306  0.0886
40307W        W83220  30.727  33.872   4.658  0.0221  0.2486  0.0165
40308W        W83221  28.477  33.337   7.139 -0.0945  0.2350 -0.0303
40309W        W83222  24.769  32.044   9.915 -0.0386 -0.0437  0.0566
40310W        W83223  34.409   2.984  12.780 -0.0809 -0.0969  0.1824
40311W        W83224  25.308   4.654   4.378 -0.2703 -0.2502 -0.1486
40312W        W83225  32.005   6.371  11.110 -0.4099 -0.0239 -0.1791
40313W        W83226   6.489   8.889   3.030 -0.0704  0.4121  0.0438
40314W        W83227  15.327   5.039  28.772  0.2252  0.0848  0.0816
40315W        W83228  27.093   0.595   7.565 -0.0788 -0.2997 -0.0060
40316W        W83229  31.467   3.051  29.086  0.0707  0.2317  0.2603
40317W        W83230  32.851   8.781   0.091 -0.1950 -0.2488 -0.0345
40318W        W83231  24.982  13.721  25.216 -0.0921 -0.0035 -0.1908
40319W        W83232  16.672  33.037  26.507 -0.0901 -0.0905  0.2405
40320W        W83233  27.221   3.768  21.270 -0.0122  0.0008  0.0169
40321W        W83234   3.146   8.959   6.514  0.0669  0.1623  0.0014
40322W        W83235  22.580   4.917   9.648 -0.1150 -0.2519  0.0033
40323W        W83236   1.453   4.305  28.101 -0.1920 -0.1322 -0.2263
40324W        W83237  23.509  12.060  23.186 -0.1510 -0.1321  0.1088
40325W        W83238  33.458   3.094  10.795  0.1124  0.1555 -0.2414
40326W        W83239  32.122   6.851  28.736 -0.2240 -0.0278 -0.0707
40327W        W83240  30.248   7.871  22.922 -0.1142  0.2294  0.0930
40328W        W83241  16.260  32.490  28.486 -0.1690  0.3057 -0.2058
40329W        W83242  34.246  29.564   1.783  0.1492  0.7071  0.1099
40330W        W83243  32.696  31.283  25.475 -0.0757  0.3609 -0.1532
40331W        W83244  14.451  33.426   4.496 -0.4988  0.0588  0.3401
40332W        W83245  26.890  10.719   1.553  0.2647  0.0259  0.3502
40333W        W83246   4.539   0.533  26.568  0.1037  0.2646 -0.1656
40334W        W83247  28.241  34.261   4.173 -0.3014  0.1553 -0.3514
40335W        W83248   8.764  30.834  18.895 -0.3925  0.2251 -0.0134
40336W        W83249  27.024  32.556   6.304  0.1837  0.2810  0.2614
40337W        W83250   1.910   3.246  28.373 -0.0164 -0.0165 -0.0495
40338W        W83251  26.352   4.334  28.776  0.1225  0.1419 -0.0088
40339W        W83252   0.932   9.900   6.849  0.1307 -0.1217  0.1905
40340W        W83253  30.412  12.356   6.591  0.0445 -0.0599  0.1083
40341W        W83254   0.173  33.376   5.854  0.0282 -0.1324 -0.0759
40342W        W83255   2.540   4.937   4.800  0.1612 -0.0302 -0.1621
40343W        W83256  33.266   3.095   1.605  0.1960  0.0268 -0.2028
40344W        W83257  31.485  30.444   9.858 -0.1503 -0.1264 -0.0140
40345W        W83258  33.108   3.921  24.716  0.0007  0.0478 -0.2492
40346W        W83259  24.449   3.293  26.430 -0.2819 -0.1927  0.1347
40347W        W83260   4.378   6.502   0.502  0.0953  0.1089 -0.2084
40348W        W83261   2.979   2.559  17.387  0.0656  0.1762  0.0519
40349W        W83262  31.804   6.203  27.507  0.1204 -0.2115 -0.1993
40350W        W83263  24.614   2.609   5.002  0.3405  0.2840 -0.0734
40351W        W83264  23.451  34.447   8.837  0.0180 -0.0672  0.2499
40352W        W83265  21.462   9.402   5.909  0.0190 -0.1065 -0.1432
40353W        W83266   0.140   0.318  10.612  0.1527 -0.0152  0.0816
40354W        W83267   1.766  28.521   3.682  0.3129 -0.1053 -0.0798
40355W        W83268  29.332  12.427   5.418 -0.1107 -0.0197  0.1254
40356W        W83269   8.329  31.233  23.653 -0.0070  0.0367  0.1331
40357W        W83270  31.378  15.608  23.644 -0.0346  0.0815 -0.0450
40358W        W83271  27.738  21.288  29.249 -0.0321  0.1425 -0.0497
40359W        W83272  25.958  12.397   7.605 -0.0393  0.0556 -0.1471
40360W        W83273  31.671  33.628  10.881 -0.2229 -0.0482 -0.0704
40361W        W83274   9.600   5.742   2.992  0.1245  0.0463  0.1517
40362W        W83275  25.460  33.151   6.847 -0.0497  0.0148 -0.1824
40363W        W83276  23.009   8.538   1.268 -0.0294  0.0756 -0.0118
40364W        W83277   1.436  31.166   9.031  0.1856 -0.3419  0.1076
40365W        W83278  30.673   9.728   9.813  0.3552 -0.3522  0.0492
40366W        W83279  33.255   9.212   3.455 -0.0380 -0.0433 -0.1672
40367W        W83280  24.954  31.352   0.069 -0.1739 -0.0788  0.0696
40368W        W83281  32.024   6.037  10.296 -0.0926  0.1653 -0.0247
40369W        W83282   2.742   8.941   4.501  0.2149 -0.1259  0.1669
40370W        W83283   0.362  34.084  10.641  0.0429  0.2344  0.1639
40371W        W83284  31.473  31.169   6.155  0.3035  0.0347 -0.4411
40372W        W83285  31.492  11.390   8.986 -0.1194 -0.1970 -0.0166
40373W        W83286   1.800  31.487  23.922  0.3293 -0.0652  0.0515
40374W        W83287   4.405  12.717  24.084 -0.0211  0.2915 -0.0240
40375W        W83288   4.694   2.277   3.324  0.4393  0.1032 -0.1969
40376W        W83289  32.584  29.999   7.039 -0.1310  0.0155 -0.1219
40377W        W83290  13.046  11.801   6.349  0.2104 -0.3237  0.2507
40378W        W83291  31.297   3.876   2.893  0.2023 -0.1877  0.0683
40379W        W83292  34.311  34.452  28.348  0.1796 -0.1882 -0.0889
40380W        W83293   5.703   0.013  20.399 -0.1282  0.0778 -0.0502
40381W        W83294  30.866  10.989  29.157 -0.0229 -0.2588  0.0968
40382W        W83295  24.109  33.544   7.035  0.0497  0.0028 -0.0641
40383W        W83296  32.718   0.824  25.103  0.1729 -0.3327 -0.2457
40384W        W83297  31.056  11.172   9.190  0.1606 -0.1658 -0.1995
40385W        W83298  22.036  29.809   1.795  0.3917  0.0421 -0.0968
40386W        W83299  32.303   3.605   8.687  0.2581  0.0087 -0.1377
40387W        W83300  27.491  32.378   9.239 -0.0675  0.0471 -0.0458
40388W        W83301  22.370   9.615   4.780  0.3437 -0.0413 -0.2237
40389W        W83302  25.877   1.959  29.390  0.1222 -0.3650 -0.0948
40390W        W83303  24.865   5.492  27.550 -0.0480 -0.1426 -0.0326
40391W        W83304   0.041   0.911  26.397  0.3434 -0.2719 -0.2998
40392W        W83305   3.354  13.248  15.252  0.0880  0.0780  0.0953
40393W        W83306  15.733   7.585   0.473 -0.2154 -0.0757 -0.3985
40394W        W83307   7.802  32.335  27.865 -0.0915 -0.0759 -0.0424
40395W        W83308  23.384  33.809  26.081  0.0120 -0.4160  0.2523
40396W        W83309  31.633   4.155   9.946 -0.0047  0.0594  0.1033
40397W        W83310  25.955  33.943  22.611 -0.0288  0.2989  0.1746
40398W        W83311  29.594  24.268   0.881 -0.1563  0.2323 -0.0566
40399W        W83312   1.342   6.226  25.749  0.0634 -0.0176  0.0481
40400W        W83313  26.200  30.582  28.103 -0.6719  0.0181 -0.3431
40401W        W83314   0.494   0.670  18.941  0.4061 -0.0418  0.1270
40402W        W83315   4.525  12.443   7.471  0.1744  0.1428  0.1635
40403W        W83316  25.422   0.729   9.332  0.1151 -0.1940  0.3242
40404W        W83317   2.038   5.738  27.972 -0.2535  0.3174 -0.0287
40405W        W83318  30.177  11.979   3.120  0.1882 -0.3151 -0.1280
40406W        W83319  20.795   7.879   6.282  0.1699 -0.3333 -0.3813
40407W        W83320  27.965  32.969   6.431  0.0486 -0.0521  0.0665
40408W        W83321  18.228  32.346   1.903  0.0714 -0.1073 -0.1327
40409W        W83322   3.367   7.211  12.595 -0.2751 -0.1791  0.0844
40410W        W83323  29.045   0.625  10.206  0.0029 -0.2084  0.3252
40411W        W83324   8.316  18.858  28.092 -0.2057 -0.0460 -0.0404
40412W        W83325  20.091   3.271   3.209 -0.1009  0.0744 -0.0423
40413W        W83326  23.011   6.577  28.063 -0.0285  0.0209  0.1865
40414W        W83327   7.678   8.861  27.655 -0.1597 -0.1002 -0.1727
40415W        W83328  29.590  11.358   2.846  0.1279 -0.0688  0.1491
40416W        W83329   6.881   7.064   4.432  0.2036 -0.0093  0.1123
40417W        W83330   4.177   6.562  17.859 -0.0199 -0.1497 -0.2199
40418W        W83331  34.123   1.663   4.348  0.2460  0.0597  0.1510
40419W        W83332  32.831  33.229   1.260 -0.0122 -0.1955  0.4821
40420W        W83333  23.792  28.675   0.033  0.2553 -0.0830  0.1322
40421W        W83334  23.031   7.350   5.998  0.2586 -0.0030 -0.0303
40422W        W83335  26.934   6.695   8.739  0.1967  0.0810 -0.0875
40423W        W83336   0.276   0.615   7.837 -0.4364  0.1808 -0.0733
40424W        W83337   7.826   0.655   4.448  0.2574  0.2092  0.0439
40425W        W83338  26.735   0.440   3.247  0.2131 -0.2115  0.2743
40426W        W83339  31.122  30.996   2.121 -0.0468 -0.2146  0.0529
40427W        W83340  26.747  31.064   6.067  0.0606 -0.0723  0.0644
40428W        W83341   5.530  32.739   2.928  0.2602  0.3583 -0.1330
40429W        W83342  29.435  34.411   2.270 -0.2746 -0.0671  0.1524
40430W        W83343  31.054   1.050  23.887 -0.3644 -0.0888 -0.3517
40431W        W83344   7.347   1.732  12.350  0.1403  0.1625 -0.4302
40432W        W83345  32.870  29.752   4.786  0.1609  0.1708  0.1565
40433W        W83346  31.542   6.699   5.442  0.0143  0.3767  0.0760
40434W        W83347  15.673   7.946  23.989 -0.0470  0.0803 -0.0946
40435W        W83348  31.127  33.366   2.067  0.1901 -0.0829  0.5537
40436W        W83349   5.714   5.955  19.129 -0.3219 -0.2184 -0.0504
40437W        W83350  25.837   9.940   7.035  0.0096 -0.2317 -0.1451
40438W        W83351  34.246   2.234   0.437  0.1444 -0.0719 -0.1103
40439W        W83352   1.637   8.869   4.798  0.1163 -0.0605  0.0279
40440W        W83353  19.268   9.143  27.887  0.1488 -0.0869  0.0039
40441W        W83354  26.967   3.800   1.755  0.1381  0.0268 -0.0308
40442W        W83355   8.531  31.576   6.272 -0.1692  0.0959 -0.0297
40443W        W83356   1.396   5.235  27.645 -0.0701 -0.2040  0.2741
40444W        W83357  33.013   7.537  27.889  0.0638 -0.0840  0.1569
40445W        W83358   0.923   8.299   3.397  0.2277 -0.0618 -0.0423
40446W        W83359  32.469   5.695   2.535  0.0470 -0.0432 -0.1479
40447W        W83360  29.158  16.318   5.970  0.0005 -0.2937 -0.0139
40448W        W83361  30.633  12.201   1.636 -0.0037  0.1059 -0.1203
40449W        W83362   3.510   6.957   8.264  0.1603 -0.3755 -0.0155
40450W        W83363  29.768   6.958  22.243 -0.4062 -0.0225 -0.1364
40451W        W83364   0.180  12.476  21.942 -0.0637  0.0296 -0.2261
40452W        W83365  21.695  29.795  21.735  0.1004  0.3627 -0.1441
40453W        W83366  18.924  10.184  27.092 -0.1739 -0.1861  0.2540
40454W        W83367   7.278   2.114  24.493 -0.1571  0.0446 -0.0296
40455W        W83368  27.718  29.112  28.772 -0.0709  0.1020  0.0594
40456W        W83369  25.222  28.837  21.386 -0.2156 -0.2060  0.0101
40457W        W83370  22.895   3.818   8.837 -0.0911 -0.0553 -0.1012
40458W        W83371  30.791   5.253  27.173  0.1419 -0.0988 -0.1979
40459W        W83372  29.496   2.310  29.475 -0.1212 -0.0179  0.0645
40460W        W83373  27.332   1.061  27.302  0.3253 -0.2439  0.0930
40461W        W83374  29.407   2.776   5.911  0.0292 -0.0077  0.0525
40462W        W83375  32.343  34.100   4.581  0.4428 -0.2549 -0.3463
40463W        W83376   7.003   4.418   0.407  0.2032 -0.1317 -0.2769
40464W        W83377  28.723   1.825  19.526 -0.2800  0.2528  0.0543
40465W        W83378  32.727   0.981  28.078  0.0329  0.2215 -0.2193
40466W        W83379  31.821   0.187   8.838 -0.4395 -0.1948 -0.1411
40467W        W83380  12.354   7.242   9.770  0.1289  0.2399 -0.1444
40468W        W83381  33.042   7.588   4.445 -0.0298  0.2461 -0.1204
40469W        W83382  26.870  30.974  27.180 -0.0554  0.0029  0.2624
40470W        W83383  28.216  16.921   8.727  0.2410 -0.0805  0.0271
40471W        W83384  33.770   9.646  10.724  0.1621 -0.3201 -0.0320
40472W        W83385   0.281   1.908  29.034 -0.2635 -0.3420  0.1456
40473W        W83386  30.102  32.596  25.210 -0.0442  0.1319 -0.0532
40474W        W83387  26.467  33.029  26.888 -0.1136 -0.2114 -0.0450
40475W        W83388  29.701  33.825   7.437  0.1190  0.0369 -0.0416
40476W        W83389   0.088   2.121   7.028 -0.1651 -0.1031 -0.1634
40477W        W83390  26.232  31.674   2.931  0.3817 -0.0019 -0.4115
40478W        W83391   9.315  27.689   9.870 -0.0592 -0.1280  0.1671
40479W        W83392  26.367  10.869   2.370 -0.0583 -0.3068  0.2036
40480W        W83393  24.821  12.916   5.721 -0.0035 -0.0591 -0.4431
40481W        W83394  34.172   8.919   0.805  0.0970  0.0520 -0.0221
40482W        W83395   0.331  33.362   0.477  0.2146  0.1818 -0.2254
40483W        W83396  28.464   5.210   6.118  0.1775 -0.0317  0.0337
40484W        W83397  27.742  12.622   0.424  0.1129 -0.3800  0.0743
40485W        W83398  30.947  14.502   7.581 -0.0219 -0.0304  0.0009
40486W        W83399  25.921  31.704   5.193 -0.0941 -0.4431  0.0932
40487W        W83400  29.569   7.531   2.468  0.1450 -0.1956  0.2571
40488W        W83401  27.282   2.445  26.919  0.0010  0.2054 -0.0318
40489W        W83402  33.142   2.756   1.172  0.1427  0.0013 -0.1284
40490W        W83403  10.278  29.473   7.606  0.1846  0.0371  0.0689
40491W        W83404   7.159  11.497  10.995 -0.0324 -0.0354  0.4174
40492W        W83405  22.173  13.413  25.046  0.3664  0.0066 -0.0744
40493W        W83406   4.090   4.859  10.211 -0.0493  0.1497 -0.1748
40494W        W83407  32.980   6.497  10.955  0.0824 -0.0216 -0.0659
40495W        W83408  27.462  13.359   1.264  0.0093  0.1757 -0.2492
40496W        W83409  32.013   3.420  25.773  0.1545 -0.1115 -0.2115
40497W        W83410  29.783   7.978   1.540 -0.3002 -0.0245  0.0472
40498W        W83411  29.632   3.083   3.770  0.2808 -0.0267 -0.1308
40499W        W83412  19.322  10.911  29.156  0.1298 -0.2372  0.0096
40500W        W83413  23.174  31.829   3.491  0.0845 -0.1746 -0.3694
40501W        W83414  33.327   2.352   7.619  0.3074  0.3318  0.1253
40502W        W83415  19.479   9.392   9.234 -0.0884 -0.0854  0.0034
40503W        W83416   5.373   1.903  12.673  0.0605  0.1310 -0.0789
40504W        W83417  23.357  34.135  26.731 -0.2619 -0.1447 -0.2630
40505W        W83418   8.659   3.940   4.500  0.0850 -0.1821  0.0003
40506W        W83419   4.128  32.937   8.376  0.2833 -0.2619 -0.0951
40507W        W83420  30.971  14.933   1.884  0.0861  0.0057  0.1786
40508W        W83421  31.573  32.989   7.305 -0.2017  0.2247 -0.1527
40509W        W83422  30.180   0.287   4.339  0.1791  0.1581 -0.0509
40510W        W83423  21.829   3.638  24.335 -0.0238 -0.0595  0.0803
40511W        W83424  33.281   9.592   2.620 -0.3905  0.0864  0.2964
40512W        W83425  34.313   8.594   3.091  0.2128  0.0652 -0.0431
40513W        W83426  25.525  27.612  29.672 -0.1358  0.1264  0.0301
40514W        W83427  31.494  31.775   2.482  0.0096 -0.1133  0.0341
40515W        W83428  20.321   2.100   2.811 -0.0866  0.0871  0.0745
40516W        W83429   0.371   0.946  24.706 -0.0081 -0.0246  0.1950
40517W        W83430  29.472   7.256   7.299  0.1911  0.2881 -0.1312
40518W        W83431   1.916  31.962  29.294  0.2154 -0.3203 -0.0472
40519W        W83432   4.799   7.811  28.358  0.1215 -0.3544 -0.2390
40520W        W83433  33.345   2.488   3.616 -0.0896  0.2979  0.1209
40521W        W83434   4.200   2.038  10.852 -0.4785 -0.4099 -0.1235
40522W        W83435  26.032  25.725   8.436  0.0872 -0.0299  0.3699
40523W        W83436  32.781  27.065   4.814 -0.2499 -0.3488 -0.1518
40524W        W83437  34.281   7.959  28.154 -0.1053 -0.5011  0.0940
40525W        W83438  31.664  17.526   3.547  0.2303  0.1568 -0.1537
40526W        W83439  22.557  10.287   6.389 -0.0208 -0.2648 -0.0115
40527W        W83440  22.765  26.646  25.049 -0.3526  0.1287 -0.2519
40528W        W83441   0.210   8.872   3.016  0.1340  0.0228 -0.2167
40529W        W83442  28.092  29.229  23.312 -0.1738  0.0035  0.1972
40530W        W83443   3.354  34.477  29.628 -0.1136 -0.2655  0.2256
40531W        W83444  31.340  32.861   8.555 -0.0265  0.1084 -0.1630
40532W        W83445   6.097   7.374  21.271  0.0966 -0.0643  0.1943
40533W        W83446   2.546   3.610   4.289 -0.1964  0.3454  0.2980
40534W        W83447   2.875   4.548  23.344  0.0664 -0.1429 -0.0682
40535W        W83448  20.088   5.465   2.437 -0.2339  0.1327 -0.0569
40536W        W83449  32.148   1.462   2.705  0.2838 -0.1549  0.1594
40537W        W83450   1.289  34.311   0.365 -0.1297 -0.4404 -0.1141
40538W        W83451   3.349   3.043  25.953 -0.2038  0.1584  0.1820
40539W        W83452   4.045  29.267   1.574 -0.3807  0.0869 -0.0109
40540W        W83453  32.546  30.238   6.543 -0.2228  0.0876  0.0971
40541W        W83454  17.543   0.606   5.644  0.2974  0.2418 -0.4049
40542W        W83455   0.711   6.669  28.726  0.0465 -0.1064  0.0573
40543W        W83456  34.394   3.661   9.430  0.4945  0.3258  0.0549
40544W        W83457   9.625  33.481   5.159 -0.0018  0.0856  0.0922
40545W        W83458  33.707  28.636   9.660  0.1179  0.0661  0.1435
40546W        W83459  25.472  34.028   4.590  0.0487  0.0283 -0.3894
40547W        W83460  34.354  10.553  23.718 -0.1752  0.0944  0.3247
40548W        W83461  17.345  23.296   1.133  0.1053 -0.2108 -0.0074
40549W        W83462  29.939  26.865  20.737 -0.0103 -0.0236  0.0709
40550W        W83463  32.005  10.805   3.792 -0.2004  0.0286 -0.3325
40551W        W83464   4.343   2.169  22.820  0.1516 -0.0638  0.3695
40552W        W83465   5.303  21.626  29.116  0.4951  0.0953  0.0841
40553W        W83466  29.312   9.703   4.724  0.1538 -0.1907  0.0480
40554W        W83467  11.467   0.383   5.164 -0.0605 -0.1343 -0.3963
40555W        W83468  31.483   6.937   7.197 -0.0874 -0.1822 -0.1948
40556W        W83469   4.786  32.367   1.472  0.1696 -0.0043  0.1152
40557W        W83470   2.141   2.580   3.763 -0.1822  0.2171 -0.1318
40558W        W83471  31.265  12.453   3.303 -0.0946 -0.3434 -0.0051
40559W        W83472   1.996   6.141  19.467  0.0096 -0.0196  0.1567
40560W        W83473   5.849   5.763   3.528 -0.2809  0.0151 -0.0995
40561W        W83474  31.595   3.109  25.644  0.4341 -0.0932 -0.3941
40562W        W83475   1.037   7.550  28.538  0.1157  0.0482 -0.2087
40563W        W83476   1.377   0.477  10.671  0.2303 -0.0176  0.0208
40564W        W83477  24.242   2.187   5.008 -0.3324  0.0937 -0.0181
40565W        W83478  27.566  27.688   1.600 -0.2106 -0.0201  0.3289
40566W        W83479   5.599  14.685   7.102 -0.0900  0.0771  0.2753
40567W        W83480  30.908   9.096  28.923  0.0287 -0.3386 -0.1136
40568W        W83481  34.105  32.461   4.638 -0.0174 -0.2085  0.3076
40569W        W83482  33.380  25.150   5.843 -0.0770 -0.0228  0.0832
40570W        W83483  24.642   6.991   9.613 -0.0652 -0.3944 -0.1785
40571W        W83484  31.438  28.359   2.179 -0.1962 -0.2741  0.0666
40572W        W83485  33.848   8.318   1.562 -0.1967  0.4426 -0.1310
40573W        W83486  28.031  10.374   6.360 -0.0363 -0.0383  0.1278
40574W        W83487  33.677  23.600  29.470 -0.0991  0.3181  0.0468
40575W        W83488  23.220   5.493   8.096  0.1859  0.2333  0.1363
40576W        W83489  33.092   0.328   5.013  0.2692 -0.3526  0.2992
40577W        W83490  33.617   3.008  27.630  0.0874 -0.1300 -0.0016
40578W        W83491   1.036  10.996   1.677  0.0409 -0.0788 -0.0114
40579W        W83492  34.219  11.168  25.587 -0.1296 -0.0605  0.1643
40580W        W83493   1.130   3.917   6.157 -0.1993  0.2428 -0.2348
40581W        W83494  31.212   3.791   4.144  0.1349 -0.0745 -0.2548
40582W        W83495  34.012   5.951   5.306 -0.0486 -0.0213  0.2445
40583W        W83496  29.777   8.913  10.036  0.2541 -0.3306  0.4143
40584W        W83497  24.466  11.290  29.643 -0.2606 -0.0580  0.0848
40585W        W83498  22.840   8.258   7.672 -0.3248  0.1594  0.2929
40586W        W83499  34.018  11.441   8.984 -0.1699  0.0649  0.4710
40587W        W83500  26.809  16.552   0.146 -0.0282  0.0703 -0.2304
40588W        W83501  30.373   5.637   6.451 -0.0510 -0.1480  0.1119
40589W        W83502  28.749   5.200   3.509 -0.3471  0.1471  0.0572
40590W        W83503   7.966  11.924  28.438 -0.0972  0.2458  0.2964
40591W        W83504  29.904  34.427   3.295 -0.2534 -0.1137  0.0953
40592W        W83505  17.517   7.247   5.625  0.0266 -0.0937  0.4849
40593W        W83506   0.832   9.084  23.318  0.0586  0.1847 -0.0943
40594W        W83507  31.522  32.244   0.594 -0.0961 -0.0447 -0.0068
40595W        W83508  27.449   2.451   0.190 -0.0617 -0.0046 -0.0610
40596W        W83509  25.561   1.260   4.575 -0.0964 -0.1469 -0.0231
40597W        W83510  30.555  12.007  27.593  0.1549 -0.3209  0.0143
40598W        W83511  28.761  12.501   1.083  0.1971  0.2367  0.1231
40599W        W83512  34.410  11.535  26.506  0.1673 -0.3030 -0.3642
40600W        W83513  28.728   7.820  27.289  0.0249  0.1537 -0.1985
40601W        W83514  31.768   1.917   2.893  0.0792 -0.2749 -0.1895
40602W        W83515   2.892   0.410   2.319  0.2879  0.0120  0.2147
40603W        W83516  33.322   4.900  26.873 -0.1562  0.2359 -0.0778
40604W        W83517  32.290   8.907  11.062 -0.1937  0.0497 -0.1227
40605W        W83518  32.990   0.412  20.126  0.0307 -0.0796 -0.2792
40606W        W83519  31.539  22.442   5.557 -0.2756 -0.2982 -0.0494
40607W        W83520  24.451  10.582  24.502  0.4244  0.0542  0.0783
40608W        W83521   1.667  10.498  23.115 -0.1650 -0.1706 -0.0693
40609W        W83522  32.236   6.325  28.574 -0.1071 -0.0991 -0.0717
40610W        W83523   1.766   9.808   5.815  0.0893  0.0561  0.2687
40611W        W83524  11.764   1.914  25.551 -0.1646 -0.0438  0.1006
40612W        W83525  30.844   4.741  29.246  0.1127  0.0233 -0.0889
40613W        W83526  18.515   9.700   4.934 -0.2287 -0.3305 -0.3932
40614W        W83527  26.094   3.536   7.365 -0.1649  0.2359 -0.0423
40615W        W83528   0.190  11.772   1.037  0.2608 -0.0408  0.0387
40616W        W83529   6.052   9.164  28.530  0.1957 -0.0126 -0.0416
40617W        W83530  29.789   2.133   0.433 -0.3321 -0.1674 -0.1795
40618W        W83531  30.420   3.511  25.251  0.0151  0.2983  0.1853
40619W        W83532  30.454   4.292  25.270 -0.1757 -0.1076 -0.0773
40620W        W83533   0.346  24.971   7.776 -0.2492  0.5219  0.0702
40621W        W83534  33.875   5.721  25.861 -0.0409  0.3664  0.2577
40622W        W83535  16.146  28.395   3.649  0.1913  0.0266 -0.1149
40623W        W83536  33.886  33.663   1.744  0.1356  0.0423 -0.1481
40624W        W83537  31.495  31.927  27.379 -0.0367  0.0515  0.2332
40625W        W83538   9.650  12.249   7.580 -0.0322 -0.0741 -0.0586
40626W        W83539   9.884   1.244   3.038  0.3517 -0.0071  0.0663
40627W        W83540  24.856   1.633   0.842 -0.0566 -0.0751 -0.1054
40628W        W83541  25.891   1.765   3.290 -0.4763  0.1997  0.2771
40629W        W83542   1.662   4.542   2.182 -0.0024 -0.1035  0.3958
40630W        W83543  31.296  31.156   8.384 -0.0359 -0.0144  0.2871
40631W        W83544   8.782   6.846  26.852  0.3196 -0.0293  0.0870
40632W        W83545  27.138   6.604  25.825  0.1282  0.2524 -0.1204
40633W        W83546   1.067   8.583  12.299 -0.1513  0.1635  0.3264
40634W        W83547  28.233  31.887   8.667 -0.0816 -0.1602 -0.2360
40635W        W83548  25.730  29.155   3.583  0.2340  0.0138  0.0939
40636W        W83549  26.374  26.758   0.889  0.0340  0.0748  0.3153
40637W        W83550   1.992   4.096   9.487  0.0464 -0.0182  0.0680
40638W        W83551   6.570  11.762   7.478 -0.0740  0.1145  0.0792
40639W        W83552  33.111   9.348  21.552  0.2158 -0.0880 -0.0487
40640W        W83553  28.022  33.919   6.010 -0.2342 -0.3228 -0.1220
40641W        W83554  31.928  11.768   3.269  0.0562 -0.1622  0.2048
40642W        W83555  28.519  28.673  28.721  0.1650 -0.2713  0.1159
40643W        W83556  28.036   4.820  24.759 -0.0027  0.2583 -0.0105
40644W        W83557  28.849   5.537   8.369 -0.1347 -0.2108 -0.1737
40645W        W83558   0.991  29.960   7.712  0.1132 -0.1431 -0.1141
40646W        W83559  28.005  26.883  25.842 -0.1595  0.2692  0.0597
40647W        W83560  21.850  33.983   2.522 -0.1947  0.0728 -0.0997
40648W        W83561  28.932   4.132   7.559 -0.2788  0.3674  0.2634
40649W        W83562  29.220  13.762   4.519 -0.0433  0.4270 -0.1678
40650W        W83563  30.524   4.991  29.619 -0.3040 -0.0760 -0.2378
40651W        W83564   5.709  34.265   6.288 -0.1100  0.0729 -0.1337
40652W        W83565  34.366   0.509  21.485 -0.2865  0.1702 -0.1670
40653W        W83566   3.590   8.764   7.930  0.3625  0.0369 -0.0754
40654W        W83567  27.150   9.853  26.533 -0.1591  0.2276 -0.2164
40655W        W83568  28.076  21.380   8.778  0.1019  0.1267  0.2072
40656W        W83569  27.342  11.522   2.633  0.2045  0.0507 -0.2462
40657W        W83570  32.563   0.002   0.609  0.0539  0.0201 -0.0725
40658W        W83571  28.401   7.683   6.056  0.1401  0.4051  0.3026
40659W        W83572  28.357  30.930   6.088 -0.0062 -0.1024 -0.1830
40660W        W83573   1.499   2.516  11.799  0.0183  0.4380  0.3263
40661W        W83574  16.377   0.391  24.990  0.2864  0.1901 -0.1134
40662W        W83575  32.307   1.698  16.021 -0.0328 -0.0605 -0.2864
40663W        W83576  26.322   6.885   7.585  0.4074  0.0786  0.1676
40664W        W83577  33.736  28.248   8.498  0.3640 -0.0523  0.1725
40665W        W83578  32.533   8.339  29.254 -0.1294  0.1051 -0.0178
40666W        W83579  29.249  12.687   7.459 -0.3391 -0.0217 -0.0203
40667W        W83580  31.299  25.057  25.884 -0.1964 -0.1511  0.1363
40668W        W83581   4.461   4.872   6.506  0.0832  0.0119  0.2722
40669W        W83582  25.676  14.448  26.061 -0.0385  0.0866  0.4120
40670W        W83583  19.293   8.250  27.873 -0.1858 -0.1137 -0.1496
40671W        W83584  23.995  21.352   0.484 -0.0673  0.0778  0.1542
40672W        W83585   2.769   2.419   3.082 -0.1899 -0.3126 -0.1991
40673W        W83586  33.038  29.492   7.826  0.2943 -0.1543 -0.0883
40674W        W83587   8.655  32.309  22.123 -0.1170 -0.2256 -0.2629
40675W        W83588   6.854  29.270  26.685 -0.1107 -0.0445  0.2028
40676W        W83589  28.913   7.028   7.016  0.1102 -0.0809  0.0644
40677W        W83590   0.531  14.486   7.611 -0.0521  0.3445  0.1610
40678W        W83591  25.679  29.892   3.574 -0.0672  0.1308  0.1142
40679W        W83592  30.860   7.898   8.403 -0.0273 -0.1747  0.0502
40680W        W83593  30.888  16.140   3.696  0.0960  0.0556  0.0707
40681W        W83594   1.761   7.244   2.980 -0.0319  0.3816 -0.2358
40682W        W83595   1.321  11.898   3.706  0.0494  0.0159  0.0568
40683W        W83596  21.146  14.257  24.216  0.0807  0.1905 -0.2494
40684W        W83597  25.092  33.760   5.507  0.2613 -0.1295 -0.0194
40685W        W83598  20.574  10.848  29.611 -0.0496 -0.2588  0.2179
40686W        W83599  28.653   9.946   5.276  0.2190  0.2618 -0.3184
40687W        W83600  14.157   1.757  26.820 -0.0202  0.2583 -0.0394
40688W        W83601  27.918  31.103   3.208 -0.0884 -0.1046  0.0320
40689W        W83602  22.486  15.052   3.625  0.0657  0.1121 -0.1200
40690W        W83603  10.501   1.624   1.285  0.2347 -0.0826 -0.1430
40691W        W83604   6.357  15.203   4.704 -0.0661  0.1511  0.0109
40692W        W83605  33.048  28.950  15.150 -0.0081 -0.0117  0.1309
40693W        W83606  34.100  27.430   7.380 -0.2204  0.0377 -0.0738
40694W        W83607   1.527   2.946   7.280 -0.2189  0.1246 -0.0294
40695W        W83608  24.159  34.461   3.965 -0.2581 -0.1599  0.0398
40696W        W83609  22.998  12.679   0.043 -0.2366  0.1274  0.2281
40697W        W83610   6.716   3.095   2.095 -0.2248  0.3098 -0.1283
40698W        W83611  31.488   8.420   0.657 -0.0940  0.1947 -0.0855
40699W        W83612  32.998   3.493   4.114  0.1013  0.1296  0.2189
40700W        W83613   7.242   9.585   6.997 -0.1871  0.1589  0.2815
40701W        W83614  32.231  33.061   7.947  0.3512  0.2207 -0.1416
40702W        W83615  23.731   6.303   1.800  0.0209  0.0105  0.0814
40703W        W83616   5.143   3.705   1.347  0.0686 -0.1200 -0.0194
40704W        W83617  33.113  31.893  29.494 -0.0229 -0.1788  0.0762
40705W        W83618  26.603   3.728   9.615 -0.2001 -0.2131  0.0261
40706W        W83619  33.456   8.331  29.095 -0.1525 -0.4235  0.0056
40707W        W83620  25.976   8.105  25.449  0.0818 -0.1002  0.4507
40708W        W83621  27.536  10.987  24.591 -0.1007 -0.0576  0.1399
40709W        W83622  25.070  31.225  26.483  0.3454  0.0651 -0.3659
40710W        W83623   6.999   0.689  13.147  0.3440 -0.1342 -0.2144
40711W        W83624  31.797  30.270   6.428 -0.2470  0.1429  0.0950
40712W        W83625  31.726  32.465  27.312 -0.3397 -0.0834  0.1118
40713W        W83626  24.529  11.367   1.683 -0.1472  0.4543 -0.3862
40714W        W83627   2.230   9.141   3.507  0.0680 -0.0917 -0.3060
40715W        W83628   2.420  32.500   3.563  0.3224 -0.4250 -0.3664
40716W        W83629   0.265  21.296   4.216  0.1485  0.2972  0.2143
40717W        W83630  31.755   2.610  29.115  0.2886 -0.0159 -0.2552
40718W        W83631   8.533  27.228   6.950  0.0058  0.0932  0.1106
40719W        W83632  26.802  28.739   8.488 -0.0441 -0.3967  0.1265
40720W        W83633  28.885   2.780   1.913 -0.0922  0.1459  0.0287
40721W        W83634   1.449  28.124   4.464  0.2649 -0.2585 -0.0191
40722W        W83635   5.651   9.905   4.731  0.2197 -0.0332  0.1892
40723W        W83636  27.884   6.891   3.234  0.3140  0.1008 -0.0028
40724W        W83637   0.810   6.784   4.248 -0.0828 -0.1691 -0.0403
40725W        W83638  16.805  28.899   6.304 -0.0567  0.1949  0.1055
40726W        W83639  29.033   5.234  11.211 -0.0168  0.0326 -0.1199
40727W        W83640   2.784  29.874   9.598  0.0203  0.0560  0.3973
40728W        W83641  22.176  22.186   6.634  0.0554  0.1650  0.0283
40729W        W83642   4.315  33.111   7.787  0.0964  0.2433 -0.1939
40730W        W83643  24.827   5.076  29.270  0.0089  0.1079  0.1055
40731W        W83644   2.423   0.385  10.406  0.2051 -0.3501  0.0907
40732W        W83645  32.379  33.108   9.095 -0.0406 -0.0927  0.1330
40733W        W83646  23.907  13.603  24.715 -0.1082  0.1086  0.3231
40734W        W83647  28.570  32.751   5.224  0.0555  0.0696 -0.3567
40735W        W83648  29.224  26.903   5.081 -0.0738 -0.0964  0.1120
40736W        W83649   2.121   8.301  25.568 -0.2017 -0.0480 -0.1718
40737W        W83650   3.112  29.911   2.085  0.2360 -0.2654  0.1512
40738W        W83651  32.338   4.314   5.625 -0.2903 -0.0547 -0.1659
40739W        W83652   0.638  34.245   9.385  0.0795 -0.1645  0.1142
40740W        W83653   7.341   0.860  13.482 -0.1360 -0.1663  0.0023
40741W        W83654  33.223  29.108   0.196 -0.3700 -0.0721 -0.0706
40742W        W83655  17.890   2.515   7.823  0.1130  0.3264 -0.0300
40743W        W83656  26.841   0.827   2.804 -0.3563 -0.0914  0.0473
40744W        W83657  15.652   4.122   8.457 -0.1318 -0.0810  0.1587
40745W        W83658  18.281   3.954   6.607  0.0264 -0.0074 -0.0552
40746W        W83659   4.580   6.797  10.844  0.0535 -0.0406  0.2648
40747W        W83660  33.041   2.718   7.875 -0.0624 -0.2189  0.0720
40748W        W83661  30.510   9.444   3.846 -0.1616  0.1395 -0.1125
40749W        W83662  25.469   0.084   0.107  0.3426  0.0401  0.0549
40750W        W83663  24.874   0.940   6.884 -0.0380 -0.3893 -0.0210
40751W        W83664  31.966  10.151   7.978  0.0007 -0.1526 -0.1129
40752W        W83665  27.887  29.562   8.302  0.0920  0.0174  0.1887
40753W        W83666  16.838   5.460   8.055 -0.1854 -0.3346 -0.0347
40754W        W83667  25.257  33.644   4.940 -0.2608  0.1203  0.1145
40755W        W83668   6.635  17.062  10.099  0.0728 -0.1177  0.2426
40756W        W83669  25.142   8.270  28.849 -0.2227 -0.4789 -0.1273
40757W        W83670  31.695   1.794  11.523 -0.2013  0.0318  0.1525
40758W        W83671   3.397  12.082   4.544  0.0654 -0.1727 -0.0755
40759W        W83672  29.620   3.373   2.163 -0.1002 -0.0435 -0.1937
40760W        W83673   2.851   8.791   6.862  0.0445 -0.0263 -0.2006
40761W        W83674   7.547   9.514   0.615  0.2017 -0.0299 -0.1052
40762W        W83675  30.673  28.093   6.891  0.0147 -0.0407  0.0511
40763W        W83676   0.554   7.833   4.099  0.2460 -0.2777  0.3484
40764W        W83677   4.530  26.279   4.858  0.2309  0.1865  0.1699
40765W        W83678  31.741   2.659   1.075  0.1326 -0.1187  0.0922
40766W        W83679  32.989   6.122   6.480 -0.1745 -0.0644 -0.2530
40767W        W83680  26.496   5.592   7.137  0.2793  0.0684 -0.0091
40768W        W83681   7.696  33.032  12.099 -0.2611  0.2714 -0.0191
40769W        W83682   2.755   7.832   1.242  0.0246  0.1718  0.1977
40770W        W83683  11.669  15.720   7.004  0.4302  0.0245 -0.0766
40771W        W83684  32.622  11.939   7.651 -0.0266 -0.0184 -0.1168
40772W        W83685  31.797   8.999   7.223 -0.1442 -0.1605 -0.1654
40773W        W83686  31.890   9.251   4.010  0.2099 -0.1819 -0.3786
40774W        W83687   4.305  32.422   9.593  0.3377 -0.0664  0.0444
40775W        W83688  17.107  18.734  28.891 -0.1197  0.0081  0.1237
40776W        W83689  27.459  33.593   0.589 -0.3139 -0.1174 -0.2041
40777W        W83690  18.480  27.807  28.056 -0.1411 -0.2096  0.0517
40778W        W83691  29.894   5.692   5.702  0.2880  0.0405 -0.0558
40779W        W83692   4.536   3.369  11.469 -0.0215 -0.2460 -0.0811
40780W        W83693  24.407  33.616   1.815 -0.2595  0.0387 -0.1529
40781W        W83694  29.757   7.171  26.003 -0.1834  0.0976 -0.0421
40782W        W83695   6.745  30.171   8.159 -0.0032 -0.1336  0.2942
40783W        W83696   0.019  14.790  29.156  0.2051  0.0180 -0.0047
40784W        W83697   6.983   3.847   5.440  0.0989 -0.1072  0.0879
40785W        W83698   4.358  32.064   5.228  0.1113 -0.1253  0.0749
40786W        W83699   6.253   1.289   1.336 -0.0582 -0.1667  0.0570
40787W        W83700  20.250  19.294  29.130 -0.3370  0.0494 -0.2123
40788W        W83701  18.044  28.295   5.252  0.3507 -0.0446  0.1864
40789W        W83702   3.391  32.594   9.188  0.0840 -0.1348 -0.0192
40790W        W83703  27.502  32.293   8.355  0.0668  0.0230  0.1018
40791W        W83704  25.938   1.606   4.742 -0.1066 -0.0592  0.2093
40792W        W83705  23.688  33.258   4.934  0.0051  0.0262  0.1595
40793W        W83706  10.842   9.717   1.941 -0.1583 -0.2197 -0.1887
40794W        W83707  27.920  28.985   9.805  0.0299  0.1747 -0.1012
40795W        W83708  32.490   8.949  10.296 -0.2488  0.1481  0.0271
40796W        W83709  32.701   3.844   4.458 -0.2520 -0.3450  0.3096
40797W        W83710   3.802   5.850   6.049 -0.0480  0.0233 -0.4696
40798W        W83711   5.737   8.718   4.549 -0.0327  0.1038  0.0218
40799W        W83712   2.238  11.194   1.190 -0.0500  0.0185 -0.2293
40800W        W83713   6.321  33.166   6.820 -0.0970 -0.0708 -0.1750
40801W        W83714  24.075  14.819  22.077  0.0093  0.2337 -0.0508
40802W        W83715   8.532  27.136   1.644  0.2736 -0.1660  0.4723
40803W        W83716   7.858  30.246   4.433 -0.0154  0.1096  0.2543
40804W        W83717  29.974   7.095   6.738 -0.2877 -0.1360  0.0901
40805W        W83718   0.088  24.278   5.517 -0.1908 -0.0948  0.0376
40806W        W83719  27.478   0.128  29.700 -0.0736  0.1914 -0.1407
40807W        W83720   3.823   3.461   8.579 -0.1206  0.1469  0.3681
40808W        W83721   0.698   3.079  28.549 -0.1152  0.2965  0.1083
40809W        W83722  26.598  29.398   1.863 -0.0319  0.1936  0.0569
40810W        W83723  21.632   4.745   1.709 -0.0895  0.1593  0.2080
40811W        W83724  28.030   1.703   7.559 -0.5256  0.0321 -0.0328
40812W        W83725   4.824   6.113   1.860 -0.0646 -0.1235 -0.1705
40813W        W83726  11.847  29.672   0.596 -0.2199  0.1081  0.3558
40814W        W83727  31.596  33.808   5.804  0.0923 -0.1401 -0.1702
40815W        W83728  22.595   0.345   5.752 -0.1945 -0.0769 -0.0423
40816W        W83729   5.683  30.973  11.187  0.1754  0.1409 -0.1068
40817W        W83730  30.337   8.383   4.147 -0.0480 -0.1565 -0.1147
40818W        W83731  25.660   4.000   5.571 -0.2232  0.2614  0.3479
40819W        W83732  33.410  30.600   0.874 -0.0806 -0.3225 -0.0621
40820W        W83733   5.451  30.113   2.354  0.0580 -0.0338 -0.0876
40821W        W83734   6.718  31.889   9.821 -0.1150  0.0489  0.0430
40822W        W83735   0.624  34.200  28.040 -0.4077 -0.0560 -0.0504
40823W        W83736  20.899  29.000  29.583  0.2221 -0.0776  0.1679
40824W        W83737   1.589   0.212  19.753  0.1059 -0.4512  0.0861
40825W        W83738  30.012   9.114   6.776  0.1357 -0.1326 -0.3113
40826W        W83739  25.575  23.179   4.022  0.0746  0.2456  0.0279
40827W        W83740  34.400  31.930   9.647  0.2150  0.2231  0.0879
40828W        W83741   2.357   2.000  11.786 -0.1208 -0.1284  0.0543
40829W        W83742  32.898   9.286   3.844 -0.0632  0.0062 -0.2851
40830W        W83743  28.653  34.418  29.218  0.1364  0.0199  0.1023
40831W        W83744  31.725   5.295  27.762  0.1546  0.2331  0.0489
40832W        W83745   3.475  33.312  24.448 -0.2550  0.2941  0.1742
40833W        W83746  31.030  13.175   9.046  0.0192 -0.2175 -0.1716
40834W        W83747  27.993  26.519   6.172  0.1233 -0.2021 -0.0429
40835W        W83748   2.605   3.814  10.354 -0.0433  0.1098 -0.4185
40836W        W83749  20.006   3.575   5.936 -0.0425 -0.2025 -0.0632
40837W        W83750   4.268  10.528   8.619 -0.3732 -0.2796 -0.1225
40838W        W83751  30.022   4.015  10.602  0.0411 -0.4236  0.2175
40839W        W83752   9.021  31.252  26.394  0.0303 -0.1784  0.0642
40840W        W83753  31.477   4.136   8.875 -0.1446 -0.0130  0.3415
40841W        W83754  32.602   5.163  24.904  0.0974 -0.3492 -0.2786
40842W        W83755  28.422  29.569  23.507  0.2812 -0.1302  0.0130
40843W        W83756   4.985   4.557  22.809  0.0133  0.1682 -0.0681
40844W        W83757   9.087  33.202   5.338 -0.1884  0.2017  0.1103
40845W        W83758   1.109   3.883   7.349  0.1355  0.1428  0.4971
40846W        W83759  34.490  34.433   0.060  0.1380 -0.1085  0.3699
40847W        W83760  26.566  27.455   5.431 -0.2473 -0.2689  0.0712
40848W        W83761   8.338   9.972  22.422 -0.2658 -0.2071 -0.3355
40849W        W83762   3.510  10.234  11.418  0.1362  0.2878 -0.2201
40850W        W83763  32.962  34.222  25.972 -0.1298  0.2136  0.1711
40851W        W83764   0.571  13.457   9.715 -0.1542 -0.0835  0.0890
40852W        W83765  27.167  12.561  29.417 -0.3442 -0.2117 -0.3188
40853W        W83766   5.439   1.689  13.123 -0.6224 -0.2573  0.1780
40854W        W83767  28.534   2.216  29.483 -0.0248 -0.0669  0.0435
40855W        W83768   4.916   6.190  11.868 -0.0867 -0.3418 -0.0675
40856W        W83769   4.072   2.021  28.137 -0.1424  0.3699 -0.2643
40857W        W83770  28.502   4.308   6.952  0.5348  0.1380  0.0335
40858W        W83771  25.629  17.453  25.697 -0.1061 -0.1587  0.1172
40859W        W83772  20.990   2.915   4.236 -0.0638  0.1036  0.0247
40860W        W83773   2.056   5.933  10.629  0.1360  0.1354 -0.3136
40861W        W83774  23.931  31.301   6.892  0.1715 -0.5113 -0.0749
40862W        W83775   6.583  12.925   2.160 -0.0224 -0.3273  0.0348
40863W        W83776  32.681   5.228   9.001 -0.0343 -0.0007 -0.0896
40864W        W83777  20.267  33.335   1.731  0.2829 -0.0306 -0.2341
40865W        W83778  27.695   4.380   5.020  0.0330 -0.2231  0.1413
40866W        W83779  33.942  10.651   8.839  0.4329 -0.0434  0.1195
40867W        W83780   2.058  10.490   9.149  0.0264 -0.2674 -0.1269
40868W        W83781  25.958  26.530   8.371 -0.0417  0.0497 -0.0868
40869W        W83782   1.464  15.533   3.504  0.3856  0.2711 -0.1503
40870W        W83783   4.606   6.287   7.348  0.3637 -0.2032  0.0496
40871W        W83784   8.760   7.787  12.574 -0.0852 -0.0396 -0.0532
40872W        W83785  33.367  29.613  28.576 -0.1137  0.1863  0.0199
40873W        W83786  31.850   1.336  29.198 -0.0616  0.1161 -0.1834
40874W        W83787  31.308   3.697   0.042  0.2102 -0.0050  0.1076
40875W        W83788  34.270   3.444  11.773 -0.1554 -0.0043 -0.0133
40876W        W83789   4.967  10.440  10.351 -0.0483  0.0028  0.1329
40877W        W83790   2.250   2.275   8.213 -0.1505 -0.1619 -0.0254
40878W        W83791  31.407   9.703   1.876  0.2721 -0.1911  0.2728
40879W        W83792  29.411  30.500   6.263  0.1024  0.1657  0.2613
40880W        W83793   8.048   3.009   6.543  0.1744 -0.4668  0.0331
40881W        W83794  33.247   7.662   5.231  0.2511  0.3328 -0.0318
40882W        W83795  24.253  30.823   9.371  0.0721 -0.0547  0.1217
40883W        W83796  29.937   0.494   3.905  0.3186 -0.1393  0.2508
40884W        W83797  32.655   7.045  10.680  0.0334 -0.1310  0.0388
40885W        W83798  30.234  30.528  28.449 -0.1429  0.0462  0.3505
40886W        W83799  31.487   7.160   9.148 -0.0251  0.0958  0.0501
40887W        W83800  27.348  31.780   7.143  0.1786  0.1472  0.2034
40888W        W83801  32.872  32.780  28.892  0.0107  0.1461 -0.2763
40889W        W83802   2.503  32.327   4.082  0.1379 -0.1962 -0.1138
40890W        W83803   6.228  32.754   4.597  0.0491 -0.2540 -0.2238
40891W        W83804   1.862  32.658   3.194 -0.0351 -0.0365  0.0668
40892W        W83805  30.237  13.659   8.848 -0.0146  0.1483  0.1883
40893W        W83806  30.170  11.914   2.356  0.1540  0.1342  0.0143
40894W        W83807  30.112   1.837   7.864  0.0405  0.0997 -0.0812
40895W        W83808  22.244  27.575  29.626  0.2078 -0.0356 -0.0862
40896W        W83809   0.574   0.066  22.511 -0.2410  0.0108 -0.1063
40897W        W83810  28.633  32.387   7.170  0.0125  0.0567 -0.2058
40898W        W83811  26.550   2.384   0.577  0.2047  0.0560  0.0334
40899W        W83812  30.099   2.786  27.959  0.2488  0.1567 -0.1933
40900W        W83813  20.771   2.736   1.577  0.1876  0.0173  0.1403
40901W        W83814  33.559   8.542   8.622 -0.3286  0.3005  0.2386
40902W        W83815  25.310  28.071   2.378  0.1507  0.0146 -0.0055
40903W        W83816  31.492  10.874   2.927  0.0594  0.1234 -0.1266
40904W        W83817  16.411  27.967   3.486 -0.0387 -0.1847  0.0291
40905W        W83818   1.169   3.599  11.626  0.2198  0.0298  0.0954
40906W        W83819   7.993  32.016   5.585  0.0066 -0.0172  0.0011
40907W        W83820  29.204   5.493   9.956 -0.0550  0.0558  0.3484
40908W        W83821   0.409   0.776   0.856 -0.1836 -0.1064  0.0572
40909W        W83822  33.654   2.061   8.281 -0.1533  0.1655 -0.1265
40910W        W83823   0.133   5.566  11.738  0.2993  0.2599 -0.1005
40911W        W83824  25.309   9.740   9.334 -0.0176 -0.1371  0.0586
40912W        W83825  25.047  12.630   8.163  0.1186 -0.0955 -0.0035
40913W        W83826   4.599  32.688   7.510 -0.1653 -0.2835  0.1784
40914W        W83827   8.335   6.549   9.318  0.2370  0.1411  0.0388
40915W        W83828   0.597   7.072   8.141 -0.2378 -0.2547 -0.1774
40916W        W83829  28.381  16.115   1.311  0.3808  0.1439  0.0322
40917W        W83830  30.509   2.238   9.899 -0.1480 -0.1005 -0.1634
40918W        W83831   0.233   4.192   2.607  0.3066 -0.1425 -0.0522
40919W        W83832   7.205  18.042   1.198 -0.1433 -0.2138  0.0382
40920W        W83833  26.913   1.824   5.358  0.2318 -0.0995  0.2941
40921W        W83834   0.240   2.987   9.126 -0.2483 -0.2694  0.3020
40922W        W83835   4.620   7.491   3.603  0.0070  0.1626 -0.2216
40923W        W83836   9.547  33.015   5.397 -0.1244  0.0288  0.3321
40924W        W83837  24.790   4.394   8.903  0.1272 -0.2992 -0.1076
40925W        W83838   0.872  13.506   2.400 -0.4037 -0.2199 -0.0240
40926W        W83839  27.525  10.752  25.842  0.1116  0.0625  0.1358
40927W        W83840  26.518   6.721   3.752 -0.0498 -0.0309  0.2149
40928W        W83841   1.389   8.999   8.108 -0.1686  0.2633 -0.1914
40929W        W83842   5.886  33.869  29.736 -0.2238 -0.2724  0.0402
40930W        W83843  25.217   3.805  28.638  0.3307 -0.1105 -0.2218
40931W        W83844  23.535  27.865   0.478  0.0007  0.0217 -0.2645
40932W        W83845   3.838   3.321  11.363  0.0046 -0.2721 -0.2700
40933W        W83846  33.841  11.889   8.920  0.0601 -0.0684  0.0597
40934W        W83847   0.454   8.404   8.381  0.1726 -0.4815  0.1865
40935W        W83848  22.565  34.415   0.879 -0.0965 -0.2342  0.1027
40936W        W83849   1.552   4.608  28.500 -0.3467  0.1032  0.1915
40937W        W83850  28.716  28.862  27.430  0.2386  0.1794  0.0320
40938W        W83851  34.143   6.090   5.833  0.2086  0.2383 -0.0805
40939W        W83852   2.234   6.446   7.656  0.2556 -0.3757 -0.1442
40940W        W83853  32.749   3.013   8.774 -0.1121  0.1831  0.1700
40941W        W83854  10.924   7.175  26.683  0.0712 -0.1449 -0.1250
40942W        W83855  26.565  15.641   6.520 -0.2648 -0.3061  0.2182
40943W        W83856  28.939   4.366   5.259  0.1192 -0.0735  0.0430
40944W        W83857  25.927  33.526   9.207 -0.0283 -0.3610 -0.1848
40945W        W83858   5.537   2.726  12.291 -0.1698  0.0101 -0.1632
40946W        W83859  34.431  12.274   7.276  0.1298  0.2788 -0.1168
40947W        W83860   2.007  33.791   8.283  0.2723 -0.1940  0.1611
40948W        W83861  33.010  33.598   7.112  0.3867 -0.2480 -0.0381
40949W        W83862   4.195  33.281   9.505  0.0931 -0.0900 -0.0393
40950W        W83863  19.952   9.086   0.835 -0.5139  0.0291 -0.1238
40951W        W83864   7.047  28.592   8.429  0.1302  0.1117 -0.1145
40952W        W83865  25.268   7.163  10.241  0.0248  0.1535  0.1159
40953W        W83866   2.196  29.274  21.890  0.1455 -0.1750  0.2675
40954W        W83867  32.065   0.805  10.387  0.2808  0.0475 -0.0246
40955W        W83868   0.078   4.215  21.218  0.0216  0.1578  0.2454
40956W        W83869  24.193   3.035   7.468  0.3637  0.0643 -0.1727
40957W        W83870   8.351  32.619  10.516  0.0153  0.0182 -0.0267
40958W        W83871  30.532   5.960  24.842 -0.0039 -0.1331  0.2381
40959W        W83872   1.417   0.358  28.005  0.0887  0.3328 -0.0887
40960W        W83873  22.960  33.965   3.408  0.1925 -0.1298 -0.1390
40961W        W83874  28.342   3.943   7.332  0.2664 -0.1560 -0.3300
40962W        W83875   7.268  29.781  11.083 -0.0551 -0.1013  0.0744
40963W        W83876  31.896   3.648   7.568 -0.0178  0.3314 -0.1793
40964W        W83877  27.101  33.311   1.126  0.1743 -0.1789  0.0577
40965W        W83878   6.435  29.081   6.533  0.0052 -0.1667  0.2753
40966W        W83879  28.372  10.925   1.979  0.0009  0.1333 -0.1201
40967W        W83880  13.511   1.281   9.574 -0.3500 -0.1964  0.4046
40968W        W83881  32.821  11.630  10.594 -0.2745 -0.0924 -0.0957
40969W        W83882  30.603  32.544  27.150 -0.0064 -0.2433 -0.0975
40970W        W83883  29.936  34.314   7.541  0.0813  0.5285  0.0573
40971W        W83884   5.337  34.347  10.576  0.2555  0.0563 -0.0056
40972W        W83885  29.459   8.827  10.453 -0.0181  0.0671  0.0133
40973W        W83886  31.044   0.880   0.503 -0.0660  0.3568 -0.0685
40974W        W83887   0.837   2.634  10.044 -0.2423 -0.2111  0.0178
40975W        W83888   3.552   1.620  29.216 -0.1156 -0.1678  0.0354
40976W        W83889  30.292   5.731   8.031  0.1354 -0.0045  0.2966
40977W        W83890  22.176   3.327   8.920 -0.0760 -0.0584  0.1918
40978W        W83891  33.237  12.584   5.502 -0.0645 -0.0339  0.1244
40979W        W83892   2.429   3.926   8.028  0.0077  0.0123 -0.5612
40980W        W83893   1.159   3.203  23.893  0.1387 -0.0674  0.1517
40981W        W83894  24.014   8.004   7.816 -0.1426  0.1537  0.2366
40982W        W83895  34.221   0.410   0.781  0.2405 -0.2076 -0.1817
40983W        W83896  23.010  30.878   1.456  0.2876 -0.2476 -0.2477
40984W        W83897  10.947   8.371  10.869  0.3460  0.0366 -0.0322
40985W        W83898   0.385  20.448   6.482 -0.2735 -0.3137  0.0973
40986W        W83899   3.702   3.374   1.986 -0.1633 -0.2097 -0.0114
40987W        W83900  32.790  30.501   1.627 -0.1900  0.0066  0.3327
40988W        W83901  25.879   1.918   7.862  0.1870 -0.1609 -0.1086
40989W        W83902  31.663   4.732  27.239  0.0088 -0.0334 -0.2710
40990W        W83903  23.916  29.624   2.585  0.2947 -0.0092 -0.0090
40991W        W83904  30.574  30.261   1.121 -0.0954 -0.1084 -0.0037
40992W        W83905  32.295  10.096  22.872  0.1446 -0.3375  0.1221
40993W        W83906  29.703  30.123   5.601 -0.4263  0.0330 -0.0608
40994W        W83907  12.197  12.139  22.466 -0.0211 -0.2788  0.0620
40995W        W83908  31.391  13.233   7.718  0.0019  0.0968  0.3203
40996W        W83909   1.545   1.579  10.200  0.0403  0.1140 -0.1024
40997W        W83910  23.642  32.745   3.425  0.2159  0.0327  0.0558
40998W        W83911  23.317   4.349  29.360  0.1112  0.2227  0.0459
40999W        W83912  23.751  25.085   5.366 -0.0757 -0.1049 -0.3732
41000W        W83913  28.132   8.318   7.181 -0.3539  0.1501 -0.0145
41001W        W83914   5.012  34.438   4.551  0.2759  0.0211 -0.0175
41002W        W83915  28.767  10.637  25.977  0.1475  0.1498 -0.2114
41003W        W83916  13.920  26.730   2.811  0.1235 -0.0557  0.1683
41004W        W83917  28.296   1.210   6.072 -0.2251  0.1048 -0.1633
41005W        W83918  28.676  10.375  28.359  0.0731  0.1393  0.1033
41006W        W83919  28.868   6.926   6.533 -0.0866 -0.1377  0.0106
41007W        W83920  20.870   2.976   3.652 -0.1364  0.0393  0.0195
41008W        W83921  33.889   0.083   8.112  0.0117  0.2077  0.2937
41009W        W83922  33.021  34.251   8.487 -0.0434  0.2736 -0.1452
41010W        W83923   8.862  10.649   4.909  0.3981  0.0640  0.0310
41011W        W83924  32.826   8.585  27.623  0.0661 -0.1157 -0.1410
41012W        W83925  24.847   3.120   3.268 -0.1332  0.0188 -0.2048
41013W        W83926  28.612   6.985   1.832  0.0131  0.2207 -0.0879
41014W        W83927  27.707  20.172   2.962  0.2572  0.6478 -0.1899
41015W        W83928  30.063   4.883  22.756  0.2611  0.0020  0.0461
41016W        W83929   6.672  12.025  10.797 -0.1740 -0.1226  0.0354
41017W        W83930   0.389   4.955   6.102  0.1852 -0.0292 -0.0502
41018W        W83931  33.528   7.183  28.039 -0.0380  0.0581  0.2720
41019W        W83932  32.056   6.453   3.175  0.1831  0.5024  0.3083
41020W        W83933  33.397   1.668  26.236  0.0749  0.0009 -0.1163
41021W        W83934  26.682   0.767   3.846 -0.0179  0.2070 -0.2772
41022W        W83935   0.187   3.699   9.947 -0.0191 -0.0348 -0.2875
41023W        W83936   6.207   3.351   5.880  0.1076  0.5668  0.1898
41024W        W83937  16.613   6.382   0.041 -0.1169  0.2023  0.1280
41025W        W83938  29.259  12.384   6.227 -0.1653  0.1660  0.1201
41026W        W83939  26.461   2.546   8.622  0.0831  0.0591  0.2177
41027W        W83940  26.459  19.686   0.435 -0.2777 -0.5808  0.0600
41028W        W83941   2.359  30.241   4.772 -0.1531  0.3430 -0.1679
41029W        W83942  19.668   2.198  28.004 -0.1603  0.0331 -0.1754
41030W        W83943  30.855   4.024   8.804  0.1429  0.4717  0.0637
41031W        W83944  29.425   1.912   9.913  0.0168 -0.0567 -0.1529
41032W        W83945  25.225  29.367   0.162 -0.2579 -0.4300 -0.0933
41033W        W83946   8.016  22.383  28.532 -0.0794  0.2465  0.0749
41034W        W83947   0.303   5.573  10.390  0.3219  0.0477 -0.0023
41035W        W83948  20.030   2.958   2.273 -0.1392  0.0928  0.3071
41036W        W83949  29.619   9.222  27.762 -0.0798 -0.1202 -0.0858
41037W        W83950   2.843   4.784   6.111 -0.2185 -0.1874  0.0267
41038W        W83951  21.005  32.960   6.791 -0.0876  0.2729  0.0890
41039W        W83952  32.922   5.945   2.734 -0.1329  0.0803  0.0452
41040W        W83953   2.055   2.843   9.125  0.0570  0.1575 -0.1583
41041W        W83954  21.492  29.724  25.986 -0.2909 -0.0393  0.1096
41042W        W83955  25.159   5.905  27.685 -0.1255  0.2763  0.4123
41043W        W83956  28.414  33.412   1.837 -0.1201  0.0991 -0.1999
41044W        W83957   3.784  31.205   3.302 -0.1364  0.2036  0.2142
41045W        W83958   7.828  12.211   9.150  0.1185 -0.1012 -0.3561
41046W        W83959   8.873  31.466   1.591  0.1958 -0.0731  0.0852
41047W        W83960  22.640   1.607   5.965  0.0574  0.0255  0.3206
41048W        W83961   0.293   4.504   5.238 -0.0374  0.3620  0.2579
41049W        W83962  29.374   4.431   9.159  0.1401 -0.0440  0.3324
41050W        W83963   0.926  25.164  29.498 -0.4003 -0.0372 -0.1062
41051W        W83964  26.863  13.818   3.937 -0.0086 -0.1109  0.1398
41052W        W83965   0.269   8.668   3.504 -0.3204  0.2322 -0.1742
41053W        W83966   2.404   5.166  12.172 -0.1575 -0.3467  0.0918
41054W        W83967  24.759  33.817   9.617  0.1744 -0.1053  0.3903
41055W        W83968   3.361   5.368   4.982 -0.1786 -0.0397  0.2726
41056W        W83969  24.056   4.825   7.330 -0.2220  0.3086 -0.0066
41057W        W83970   3.183  32.368   9.587  0.2237 -0.0833 -0.2065
41058W        W83971  33.444   4.427   4.896  0.3259 -0.0209  0.0278
41059W        W83972  11.821  24.075  27.946  0.1418 -0.0323 -0.0288
41060W        W83973  30.421   8.527   8.414  0.3293  0.0652 -0.1003
41061W        W83974  26.174   0.738   9.155  0.1554  0.2772 -0.0078
41062W        W83975  22.531  28.809  19.582 -0.3008 -0.0438 -0.0304
41063W        W83976  27.225   3.642   8.768  0.2845  0.0104 -0.3971
41064W        W83977  32.174   8.646   6.886 -0.1357 -0.3208 -0.0564
41065W        W83978  25.777   0.169   6.826  0.3019 -0.1214  0.0370
41066W        W83979  31.517  11.309   2.022  0.2668 -0.0117 -0.0620
41067W        W83980  27.239  24.349  28.983 -0.1580 -0.2033  0.3018
41068W        W83981   2.480   3.620   7.597  0.0664  0.2983  0.1512
41069W        W83982  31.214  28.808   7.513  0.2708 -0.3560  0.1801
41070W        W83983  27.438   5.577   1.351  0.0449 -0.3515 -0.0284
41071W        W83984   1.937  11.054  10.194 -0.0150 -0.2836  0.1407
41072W        W83985   6.584  28.843   1.283 -0.1393 -0.0510 -0.0302
41073W        W83986  29.716  31.406   9.006 -0.2805 -0.0797  0.0798
41074W        W83987   3.365  11.714   7.758  0.0204  0.1591 -0.2659
41075W        W83988  24.409  30.395   7.566 -0.0517 -0.0201  0.0759
41076W        W83989   7.761   4.457  25.070 -0.1849  0.1891 -0.0310
41077W        W83990   2.026   5.337   4.101  0.1012  0.1941 -0.0786
41078W        W83991  31.428   5.731   9.095  0.2192  0.2606  0.1251
41079W        W83992   2.269  25.332   8.636 -0.0914  0.2085 -0.0191
41080W        W83993  13.117  13.549   7.489  0.0998 -0.1634  0.1230
41081W        W83994   2.432  28.241  23.549  0.0084 -0.0985  0.1834
41082W        W83995  15.223  32.151   5.867 -0.0577  0.3008  0.0235
41083W        W83996  33.092   8.761   3.688 -0.2221  0.0528 -0.0517
41084W        W83997   6.440  32.865  26.951 -0.1994 -0.2603 -0.2667
41085W        W83998   7.340   8.146   2.661 -0.1005  0.1197 -0.2910
41086W        W83999  32.603   2.367   1.340 -0.0255 -0.3805  0.2671
41087W        W84000   3.359  11.141   0.565  0.0958 -0.2375 -0.0654
41088W        W84001  31.214   5.941   5.020  0.1245 -0.1049  0.1075
41089W        W84002   1.182  32.887  25.444  0.2354 -0.0425  0.2219
41090W        W84003  28.243  23.821   1.087 -0.3191  0.2774  0.0795
41091W        W84004   2.021  33.759   9.076 -0.0604 -0.2957  0.2357
41092W        W84005  26.140  29.100   6.973  0.0728  0.0257 -0.0246
41093W        W84006  26.649   5.548  26.133  0.0615 -0.2418 -0.1405
41094W        W84007  33.137  32.399  29.623  0.0560  0.0682 -0.0874
41095W        W84008  33.565  11.440   5.904  0.3845 -0.0399  0.0904
41096W        W84009  23.760  20.540   3.743  0.1971  0.0899  0.3110
41097W        W84010  29.721   9.627  29.523 -0.3332  0.2296 -0.1825
41098W        W84011  30.035   1.667  28.579 -0.2475 -0.0898 -0.2991
41099W        W84012   6.080  18.248  22.647 -0.0373 -0.0032 -0.1882
41100W        W84013  26.822   6.994   6.001  0.0894  0.2690 -0.0858
41101W        W84014  13.921  20.875  27.041  0.1138 -0.0826 -0.0111
41102W        W84015  31.552  13.333   7.313  0.0797 -0.2484 -0.4126
41103W        W84016  34.023  11.900   1.782 -0.0608  0.2567  0.0060
41104W        W84017   2.821   3.252   4.739  0.0601 -0.1167  0.0207
41105W        W84018  27.692  10.490   3.806 -0.0906 -0.1717 -0.2264
41106W        W84019  31.849  29.666   9.667  0.0999 -0.1835  0.3018
41107W        W84020  29.815   7.521  28.183  0.0938  0.0419 -0.1057
41108W        W84021   2.701   4.024   1.215 -0.1600 -0.1471  0.1946
41109W        W84022  33.197  29.277   9.205  0.4637 -0.0473  0.2805
41110W        W84023  32.327   0.823  11.159 -0.2626  0.0846  0.1150
41111W        W84024  28.082   9.203   8.367  0.1005  0.0017  0.0024
41112W        W84025  17.259  24.786   7.762  0.2809  0.0263  0.1050
41113W        W84026   8.631  27.174  11.121  0.2918 -0.3201  0.4356
41114W        W84027  31.755   7.422  11.078  0.0994 -0.2681 -0.2123
41115W        W84028   4.037   8.022   7.754 -0.0423  0.0070  0.0368
41116W        W84029  33.224  17.230   2.095 -0.0506  0.2696  0.1691
41117W        W84030   5.493   1.395   8.092  0.2520  0.1144  0.1161
41118W        W84031  22.260  33.326   5.450  0.2793  0.0096  0.1475
41119W        W84032  28.048   0.446  10.649 -0.1839 -0.0001  0.3777
41120W        W84033   3.637  11.415   9.983 -0.2639  0.0566  0.0010
41121W        W84034  31.536   4.924  10.222  0.1886 -0.3618  0.5232
41122W        W84035  33.872   1.087   8.438  0.2468  0.3407 -0.3366
41123W        W84036  22.672   4.962   6.957  0.0633 -0.1197  0.0797
41124W        W84037  25.231   0.161   9.245  0.0726  0.0764  0.2407
41125W        W84038   2.111   6.076   5.684 -0.1534  0.0416 -0.1834
41126W        W84039  24.189  29.100   3.470 -0.0646  0.1371  0.0294
41127W        W84040   0.848   7.656  10.057 -0.1234 -0.0996  0.1334
41128W        W84041  33.811  28.880   1.583  0.1179 -0.0954 -0.2763
41129W        W84042   1.752  10.831   4.652  0.1973  0.0943  0.2722
41130W        W84043  29.965   6.899  11.050  0.0004  0.0306  0.1040
41131W        W84044  29.992   5.422   9.993 -0.0267 -0.1735 -0.0992
41132W        W84045  31.007  12.959   1.053 -0.0867 -0.1066 -0.0006
41133W        W84046  25.927  11.612   9.071  0.0637 -0.1657 -0.1890
41134W        W84047   3.341  32.925   1.766  0.2508  0.1487 -0.0746
41135W        W84048  17.359   2.264   1.262 -0.1790 -0.1238 -0.2946
41136W        W84049  27.616  28.645   5.291 -0.0480  0.1010  0.1950
41137W        W84050  32.683  33.337   8.151  0.2378  0.1561  0.2349
41138W        W84051  31.314  14.683   7.868 -0.2403 -0.2632 -0.4833
41139W        W84052  10.018  33.091  12.713  0.1337  0.1629  0.2003
41140W        W84053  33.570  11.463   6.703  0.1032  0.0976  0.0274
41141W        W84054  27.251   2.875   6.357  0.2143 -0.0783  0.0688
41142W        W84055  27.817  12.399   5.530 -0.3056 -0.1244  0.3186
41143W        W84056  20.022  11.299   5.490  0.2301 -0.0966  0.0955
41144W        W84057   7.334   9.750  11.351 -0.2518 -0.0856  0.2164
41145W        W84058  27.334  10.781  10.290  0.1401  0.0420 -0.2301
41146W        W84059  28.575   0.325  25.707 -0.2948  0.0710 -0.1342
41147W        W84060   2.913   0.381  12.222  0.0011  0.2503 -0.0570
41148W        W84061  22.682   5.375   2.409 -0.0709 -0.3148  0.3433
41149W        W84062  30.884   4.814   9.967 -0.1675  0.0008 -0.1810
41150W        W84063  32.092   4.292   6.048  0.0662  0.1845  0.0848
41151W        W84064  26.366   6.836   9.936 -0.0307  0.3146  0.2756
41152W        W84065   0.984   2.605  12.512 -0.2178  0.0185 -0.0238
41153W        W84066   0.586   7.038  10.225  0.3937  0.1483 -0.1421
41154W        W84067  29.920  24.794   1.386  0.1924 -0.1003  0.0152
41155W        W84068  30.466   7.862   6.272 -0.1250 -0.1193  0.4743
41156W        W84069   0.958   9.923   9.927 -0.1958 -0.1640 -0.0704
41157W        W84070   0.738  14.234   1.205  0.1195 -0.0636 -0.0225
41158W        W84071   5.049   3.633  10.353  0.2210  0.1728 -0.1210
41159W        W84072  25.617  27.066   1.712  0.0076 -0.2768 -0.0707
41160W        W84073  31.280  31.146   7.850 -0.1374 -0.0686  0.0596
41161W        W84074  25.911   4.434   8.705 -0.2541 -0.1429 -0.0346
41162W        W84075  32.762   7.556  11.441  0.0672  0.1133 -0.2258
41163W        W84076   1.486  11.225   7.088  0.5246 -0.1472 -0.0816
41164W        W84077  17.611   4.979  29.519 -0.0110 -0.1329  0.0382
41165W        W84078   2.452   0.623  12.394  0.3542 -0.1136  0.2223
41166W        W84079  32.417  34.043   7.003  0.1321 -0.1901 -0.0178
41167W        W84080  27.740  27.405   5.353  0.1868 -0.0019 -0.2298
41168W        W84081  32.092  30.574  10.073 -0.1641  0.4223 -0.0715
41169W        W84082   7.174   5.711  10.218 -0.0819  0.1834 -0.1187
41170W        W84083  32.657   6.580   4.330 -0.2683 -0.0408 -0.0787
41171W        W84084  34.062  32.780  10.693 -0.3554  0.1606  0.2867
41172W        W84085  24.761   3.304   9.592 -0.0011  0.0341 -0.0206
41173W        W84086  17.105  12.829  29.604  0.0059 -0.1292  0.0215
41174W        W84087   1.056   4.710   8.827  0.0712 -0.0400 -0.1599
41175W        W84088  28.527   9.331   3.592 -0.2349  0.1185  0.3015
41176W        W84089  32.787   9.671  11.002 -0.0140  0.0981 -0.3888
41177W        W84090  27.014   7.410   6.210 -0.1933  0.0439  0.0843
41178W        W84091   5.769   8.507   8.594  0.1114 -0.2391  0.0654
41179W        W84092   2.524   6.184  12.402  0.3456  0.2850  0.2714
41180W        W84093  20.562  33.394  28.215 -0.0644  0.2604 -0.2178
41181W        W84094  31.277   0.680  11.508  0.0975  0.3690 -0.4265
41182W        W84095   7.499  10.572   9.711 -0.1853  0.0934  0.0367
41183W        W84096   4.186  31.943   9.246 -0.2952 -0.2684  0.2352
41184W        W84097   8.274   7.939  10.625  0.0374 -0.1190  0.0504
41185W        W84098  24.969   6.476   8.414 -0.1163 -0.1415  0.1415
41186W        W84099   3.869   5.075   1.612  0.1039 -0.3313  0.1781
41187W        W84100   4.807   8.657   9.576  0.0896 -0.1145  0.0189
41188W        W84101  26.298  13.880  29.187 -0.0045  0.2937  0.0601
41189W        W84102  28.494  32.618   9.246  0.0482  0.2072 -0.0942
41190W        W84103  30.029   8.860   4.240  0.0945  0.0719  0.0518
41191W        W84104  30.266   3.819   0.411 -0.3640  0.0608 -0.0618
41192W        W84105   0.076   0.385   4.103 -0.2982 -0.1432 -0.1660
41193W        W84106   1.244   5.548  11.059  0.1148 -0.1845  0.1043
41194W        W84107  33.599   2.079  11.048 -0.2234 -0.2028 -0.0003
41195W        W84108   1.572   2.148  17.924 -0.3783 -0.0348  0.2331
41196W        W84109   5.919   9.587  10.702 -0.2101 -0.3404  0.2127
41197W        W84110   2.341   5.355   0.819  0.3310 -0.2361 -0.4052
41198W        W84111  24.785   4.250   7.324  0.0077 -0.2988 -0.1518
41199W        W84112   7.979  33.021   4.596  0.0775 -0.1770 -0.0977
41200W        W84113   0.099   7.679   5.894  0.2715  0.3929 -0.2618
41201W        W84114   3.111   4.890   7.034 -0.0266  0.1168 -0.0451
41202W        W84115  33.306   4.654  10.656 -0.4285  0.4072 -0.2874
41203W        W84116  28.618  33.050   9.732  0.1637  0.3116  0.2706
41204W        W84117  31.170   0.080  10.675  0.2683  0.1860  0.0403
41205W        W84118  11.441   0.815   1.779  0.0348 -0.1786  0.0496
41206W        W84119  32.271   3.838   9.738  0.2033  0.1181  0.0120
41207W        W84120  31.838  24.800   9.490 -0.5439 -0.0245 -0.4097
41208W        W84121  33.077   0.671   6.956 -0.1497  0.3217 -0.2625
41209W        W84122   9.488   2.147   1.288 -0.5753  0.0382 -0.0424
41210W        W84123  31.938   7.704   1.654 -0.2101  0.0474  0.2092
41211W        W84124  30.598  13.690  28.483  0.3817  0.3523  0.1197
41212W        W84125   7.424   7.619   5.775  0.1658 -0.2064 -0.0325
41213W        W84126  25.527  34.258   8.204 -0.0290  0.4615  0.1563
41214W        W84127  29.525  34.168  29.460 -0.0169 -0.2461 -0.3359
41215W        W84128  30.321  18.447   7.156 -0.0407  0.0842  0.3787
41216W        W84129   7.491   3.852   3.443 -0.1266  0.2169 -0.2288
41217W        W84130   8.028  29.891  10.358  0.2005  0.1213  0.1515
41218W        W84131  26.747  29.727   7.786 -0.1076 -0.1128  0.2041
41219W        W84132   8.830  24.420   7.630 -0.4861  0.0640 -0.4519
41220W        W84133  24.264   0.862   3.858 -0.1904 -0.0938  0.2885
41221W        W84134   3.052   7.597   2.228  0.2064 -0.0053 -0.2449
41222W        W84135   3.052   6.753  11.637  0.2709 -0.2985  0.1450
41223W        W84136  32.559   7.897   9.424  0.2163  0.2308 -0.0746
41224W        W84137  11.463   0.738  10.443 -0.1685 -0.1144 -0.2634
41225W        W84138  33.131   2.862  29.736  0.0469 -0.2133  0.0859
41226W        W84139   0.802  32.238   8.114  0.1406 -0.2523  0.1449
41227W        W84140  32.657  11.156   4.920 -0.0588 -0.3132  0.4211
41228W        W84141   3.968  11.047   4.963 -0.1037  0.0108 -0.0384
41229W        W84142  29.757  20.378   8.720 -0.0096  0.0926 -0.0616
41230W        W84143   1.964   9.708   7.079  0.1941 -0.0163 -0.0721
41231W        W84144   3.495  31.514   4.381 -0.1201  0.0407  0.1038
41232W        W84145  23.524   7.614   7.132 -0.1277 -0.2000 -0.3079
41233W        W84146  30.975   0.249   6.435  0.1340 -0.4146  0.0710
41234W        W84147  32.737   5.571  10.160  0.0462  0.3215 -0.1941
41235W        W84148  33.576   5.283   8.995 -0.1561  0.2157 -0.1156
41236W        W84149  33.364  34.365  11.208  0.1133 -0.0137  0.2487
41237W        W84150  32.759   7.230   8.649  0.2792  0.1468 -0.1342
41238W        W84151  33.859   3.757   8.776 -0.2515  0.1835 -0.0977
41239W        W84152  21.030   1.810  22.090 -0.0519  0.1027 -0.0347
41240W        W84153   3.170  34.480   8.735 -0.2361  0.1093 -0.2164
41241W        W84154   3.283  13.191   6.281 -0.0038 -0.0307  0.1682
41242W        W84155  33.559  11.151   6.362 -0.0416 -0.0518 -0.0769
41243W        W84156  33.548  11.216   7.766  0.1090 -0.3625 -0.1554
41244W        W84157  26.612  33.877   6.404  0.0806  0.0756  0.0216
41245W        W84158  31.055   5.881   8.052  0.0365 -0.0893 -0.1818
41246W        W84159   0.381   0.982   5.466 -0.0227  0.2599  0.1386
41247W        W84160   4.908   7.313   3.248  0.1878  0.3020 -0.0930
41248W        W84161  22.933  28.846  27.545  0.1738 -0.1331  0.1222
41249W        W84162  29.345   6.713   7.113 -0.0904 -0.2465  0.0389
41250W        W84163   3.395  28.905   3.750 -0.1618  0.3011 -0.0536
41251W        W84164  21.134   3.801   7.361 -0.2704  0.1392  0.0032
41252W        W84165   5.028   6.522   7.330 -0.0329 -0.2435 -0.0138
41253W        W84166  31.113   8.862  27.307  0.1522 -0.0410 -0.0923
41254W        W84167  32.241   1.832  11.901  0.1832 -0.0770  0.4113
41255W        W84168   5.558   0.110   9.784 -0.5048 -0.0078 -0.2241
41256W        W84169  30.610   1.026   7.678  0.1675  0.1981 -0.0868
41257W        W84170  33.733   7.148   9.026 -0.0139 -0.3134  0.0546
41258W        W84171  27.221   1.325  23.710  0.0670 -0.0048 -0.5092
41259W        W84172   1.259  33.096   9.134  0.3286 -0.2182 -0.0188
41260W        W84173  29.678  30.078   9.146 -0.3247 -0.2079  0.2415
41261W        W84174  31.221   1.208  10.418  0.0680  0.2704  0.3178
41262W        W84175  29.143   4.560   8.742  0.0863  0.0684  0.0836
41263W        W84176   5.375  15.575   2.489 -0.0814 -0.2285  0.2678
41264W        W84177   4.227   3.861  28.047 -0.1112  0.3031 -0.4917
41265W        W84178  26.272   3.959   8.165  0.3308 -0.0564  0.0885
41266W        W84179   1.372   4.373  10.320 -0.2777 -0.1409  0.2655
41267W        W84180   2.578  34.105  10.165  0.1351  0.2335  0.0474
41268W        W84181  23.991   2.733   1.272 -0.0199 -0.2494 -0.1777
41269W        W84182  31.506  33.876   6.796 -0.2360  0.0969  0.1367
41270W        W84183  33.802   1.834   6.295  0.0251 -0.2810  0.2533
41271W        W84184   0.253  11.192   9.687 -0.2390  0.0342 -0.2626
41272W        W84185  30.008  31.187   7.215 -0.0666  0.4062 -0.0874
41273W        W84186  25.858   5.638   8.239 -0.2868  0.0106 -0.1890
41274W        W84187  19.997   2.512   5.036  0.0092  0.1200 -0.2792
41275W        W84188   8.456  11.864  10.527 -0.2477 -0.2484 -0.3028
41276W        W84189  19.849   7.845   8.269  0.1370 -0.0243 -0.2024
41277W        W84190   1.424  31.439   3.729  0.1306 -0.1097  0.1166
41278W        W84191  26.942  25.453   3.501 -0.3357  0.1243 -0.1036
41279W        W84192  13.370  30.466  10.493  0.3110 -0.0227 -0.1397
41280W        W84193   4.045  12.344   6.445  0.0130  0.0292 -0.1013
41281W        W84194  30.752  28.740   9.271  0.1381 -0.0936 -0.0559
41282W        W84195  34.487   3.418   6.875 -0.0705 -0.2048  0.2986
41283W        W84196  32.269   3.825   7.814  0.2746 -0.0701  0.1399
41284W        W84197   3.798   7.618   2.114  0.4932 -0.0156  0.0173
41285W        W84198  31.556  14.754   2.527  0.0549  0.0678 -0.2652
41286W        W84199   0.708  29.554   7.563  0.0519 -0.1892  0.1806
41287W        W84200   2.050   5.030   7.180 -0.0117 -0.0951  0.0994
41288W        W84201  28.988   2.947   9.430  0.1222  0.0766 -0.1456
41289W        W84202  31.629  30.079   7.041  0.0630 -0.2412  0.2140
41290W        W84203  27.308  11.756  10.163 -0.1297  0.1403 -0.0197
41291W        W84204   2.194   0.221   6.088  0.2836 -0.2393  0.4596
41292W        W84205  27.571   2.936   9.277  0.2717  0.1105  0.0387
41293W        W84206  28.026   6.385   3.164 -0.5512 -0.0489 -0.1167
41294W        W84207  32.041  29.623  28.705 -0.1754  0.0905 -0.2536
41295W        W84208   4.287   5.913  12.976  0.1192 -0.1150 -0.0737
41296W        W84209   2.508   4.115  11.239 -0.1426 -0.0222  0.0602
41297W        W84210  34.177  14.178   7.828  0.0390 -0.2086  0.3419
41298W        W84211  31.601   6.290  10.255  0.1211  0.2450 -0.0184
41299W        W84212   0.203   3.586  11.344  0.0458  0.0261  0.0659
41300W        W84213  27.030   1.070   7.774 -0.1798  0.1361  0.1146
41301W        W84214  20.881  30.339   7.202 -0.3782  0.2992 -0.0563
41302W        W84215   1.157   3.349   7.538  0.2748 -0.2579 -0.0469
41303W        W84216  25.964  14.138   7.620  0.1181 -0.3075 -0.0341
41304W        W84217  32.761   8.077   7.526  0.0162 -0.1408  0.3208
41305W        W84218   5.506  33.718  10.671 -0.0449  0.0593  0.2840
41306W        W84219   9.686  14.213   5.952  0.0018  0.1356 -0.0415
41307W        W84220   0.706  10.491   9.690 -0.0771 -0.1047  0.2670
41308W        W84221  22.361  17.825   7.178 -0.0200 -0.4880 -0.0586
41309W        W84222  25.705   2.184   7.364  0.1088 -0.0248 -0.2039
41310W        W84223   0.670   3.174   9.297  0.1643 -0.1257 -0.3323
41311W        W84224   2.701  12.147  10.667  0.1037 -0.2769  0.1018
41312W        W84225  33.532   7.342   8.568 -0.1148  0.1811 -0.2027
41313W        W84226  34.029  33.026   7.744 -0.0801 -0.1008 -0.1411
41314W        W84227  16.400   0.500   9.741 -0.1144 -0.1596  0.0973
41315W        W84228   3.875   9.471   7.084 -0.3361 -0.1120  0.0177
41316W        W84229  28.281   0.305   9.496  0.0583 -0.0284  0.0454
41317W        W84230  30.715   1.982  28.854 -0.0848  0.1611  0.4512
41318W        W84231  32.451   0.067   4.907 -0.4868 -0.0086  0.2373
41319W        W84232   5.698  32.080  11.946  0.0823  0.0780 -0.1342
41320W        W84233   3.077  10.944   4.639  0.0197 -0.3033 -0.0676
41321W        W84234  21.155  14.088  21.676 -0.4788 -0.0888 -0.0088
41322W        W84235  33.183   1.665   4.577 -0.1678 -0.3065 -0.1402
41323W        W84236  25.172  32.004   8.756 -0.0469 -0.0177 -0.1098
41324W        W84237  29.672  31.460   8.487 -0.1071 -0.2156  0.0532
41325W        W84238   4.822   5.493   8.028 -0.0290  0.2641  0.1812
41326W        W84239   3.847   8.350  13.044  0.0970 -0.4346 -0.0168
41327W        W84240  22.864  11.960   1.360  0.0354  0.0296  0.1415
41328W        W84241  23.263  32.978   8.567 -0.0131 -0.0320  0.2995
41329W        W84242   1.873   1.297  28.631  0.1396  0.0157 -0.0437
41330W        W84243   5.615   6.238  10.075 -0.1735 -0.1650  0.1350
41331W        W84244  34.285  32.318   3.578  0.0099 -0.0528 -0.0570
41332W        W84245  12.126   8.649   8.606 -0.1030  0.1560 -0.0448
41333W        W84246   0.338  12.796   8.580 -0.2139  0.0143 -0.0018
41334W        W84247   9.775  18.376   6.981 -0.0290 -0.1718 -0.1671
41335W        W84248  33.637  33.350  27.132  0.3208  0.4314  0.2445
41336W        W84249   6.177   2.659  10.391  0.1809  0.2693 -0.0309
41337W        W84250  26.248  12.645   8.068 -0.1492  0.3643 -0.0727
41338W        W84251  25.216  10.359   4.250  0.1740  0.2427 -0.2077
41339W        W84252  15.470   5.847   3.322  0.1456  0.1068 -0.1094
41340W        W84253   7.441  30.560   1.460  0.1304  0.1786 -0.0423
41341W        W84254  27.805   3.613   8.974 -0.1140 -0.1650 -0.0997
41342W        W84255   0.958  10.614   5.804 -0.1352 -0.4974 -0.0501
41343W        W84256  23.511   2.553   3.504  0.3417  0.0770 -0.0027
41344W        W84257  30.109  24.152   9.968  0.1375 -0.2848 -0.0866
41345W        W84258  31.436   6.087   7.115  0.0543 -0.0144 -0.0590
41346W        W84259  19.789   2.938   1.479  0.0676  0.2199 -0.0536
41347W        W84260  22.428   4.313  10.390  0.1668 -0.1236 -0.0776
41348W        W84261  30.855   1.893  11.955 -0.1734  0.2714  0.1424
41349W        W84262   8.307  12.679  28.944  0.2274  0.3183  0.2951
41350W        W84263  33.831  18.384   8.988 -0.1457  0.1987  0.3455
41351W        W84264   8.667   7.367   6.414  0.1137  0.1131 -0.0074
41352W        W84265   8.884  28.141  26.141 -0.1234  0.0429 -0.2656
41353W        W84266  27.024   6.497   3.773 -0.2475  0.1556 -0.1512
41354W        W84267  31.218  22.902   4.243 -0.0942 -0.2961  0.1112
41355W        W84268   2.915  22.180   0.744  0.0560  0.0019 -0.0266
41356W        W84269  32.958   3.467   5.525 -0.3975 -0.0178 -0.2411
41357W        W84270  28.641  12.022   0.737  0.2370 -0.0352  0.2412
41358W        W84271  21.428  30.288   7.386 -0.1622 -0.0232  0.1310
41359W        W84272   3.426   1.749  29.710  0.2327 -0.0738 -0.0335
41360W        W84273  25.914  15.732   3.938 -0.0608  0.0529 -0.0279
41361W        W84274  26.473  13.929   6.500 -0.1259  0.0355  0.1054
41362W        W84275   0.031  33.447  10.180  0.0846  0.1782 -0.2410
41363W        W84276  28.327   9.556   2.672 -0.2499 -0.1827 -0.0883
41364W        W84277   1.655   7.401  28.914 -0.0057  0.1960 -0.0300
41365W        W84278  34.290  11.791   7.420  0.1384  0.0349 -0.2515
41366W        W84279   2.704  11.168  10.790  0.0655  0.0986 -0.0925
41367W        W84280  25.605  31.718   7.054  0.0047 -0.2674 -0.5379
41368W        W84281  30.448  28.459   8.013  0.0572  0.2892  0.2960
41369W        W84282   0.989   4.398  10.677  0.2495  0.0977  0.0059
41370W        W84283  29.863   6.977   9.769  0.0971  0.0646 -0.4023
41371W        W84284   4.289  32.202   8.792 -0.2320  0.3260 -0.2199
41372W        W84285   0.390   9.312  26.360  0.1802 -0.2974  0.3517
41373W        W84286  33.230   9.599   6.913 -0.0035 -0.0890 -0.0137
41374W        W84287   6.799  34.014  10.946  0.1246 -0.1332  0.4286
41375W        W84288  30.001   8.100   5.401 -0.0683  0.1776  0.1154
41376W        W84289  33.598  32.847  29.722 -0.3012 -0.0886 -0.3142
41377W        W84290  30.753  18.342  29.776  0.2454  0.1065  0.0151
41378W        W84291   6.119   6.336  13.688 -0.0618 -0.0529 -0.1211
41379W        W84292  17.864   7.736  29.220  0.2237  0.1257  0.0890
41380W        W84293  32.702  12.425   2.052  0.0706  0.0949  0.2722
41381W        W84294   9.771   0.260   7.121  0.1231  0.0569  0.1943
41382W        W84295   8.421  27.742   9.387  0.1079 -0.0324 -0.0227
41383W        W84296   4.744  30.228   7.578  0.2102  0.0352 -0.0229
41384W        W84297  12.893  31.185   8.340  0.2437 -0.0517  0.1402
41385W        W84298   0.802  29.441   8.424 -0.1170  0.1979 -0.1227
41386W        W84299  23.466  31.478   8.708 -0.2656 -0.1282 -0.1548
41387W        W84300  33.810   6.180   7.970 -0.0100 -0.3879 -0.2033
41388W        W84301  32.681   4.093   2.564 -0.0320  0.1816  0.2334
41389W        W84302  34.111  11.104   1.458  0.4377  0.2424  0.1425
41390W        W84303   7.567  32.888   9.121  0.2724 -0.1144 -0.0616
41391W        W84304   2.899  34.487   3.942  0.0625 -0.0558  0.1278
41392W        W84305  26.974  34.012  26.240 -0.4288  0.1395  0.0349
41393W        W84306  26.147   3.211   8.943  0.0557  0.1476  0.1551
41394W        W84307  31.033   4.026  10.627  0.1595 -0.4695 -0.1540
41395W        W84308  34.190  16.020   9.981  0.2466 -0.0509  0.0180
41396W        W84309   2.000   7.008   5.118  0.2945  0.1608 -0.4255
41397W        W84310   3.663   8.459   7.402 -0.4330  0.2232  0.0936
41398W        W84311  22.407  34.228   9.342 -0.0875 -0.0817 -0.1190
41399W        W84312   3.689  21.280   9.023 -0.1223 -0.0259  0.1710
41400W        W84313  29.685  34.366   2.727 -0.2521  0.0134  0.1391
41401W        W84314  24.418   0.510   1.737 -0.2003  0.1121 -0.1543
41402W        W84315  12.625  32.092  10.876 -0.4284 -0.0586  0.0946
41403W        W84316  33.833   0.226   9.877 -0.2607 -0.0286  0.0354
41404W        W84317  22.305  15.680  23.907 -0.3842  0.2824  0.1057
41405W        W84318  28.772   1.975   9.772 -0.2105  0.1175  0.1031
41406W        W84319  28.921  10.368   2.701 -0.3140 -0.0966 -0.0566
41407W        W84320  25.676   1.237   6.919 -0.0269  0.1546 -0.1452
41408W        W84321   0.471  26.050   1.317  0.0759 -0.1079 -0.3734
41409W        W84322  33.166  11.364   7.069 -0.0473  0.0572 -0.1481
41410W        W84323  29.133  12.181   7.606 -0.1954 -0.6810 -0.2541
41411W        W84324  29.995  16.189   7.399  0.0840 -0.0545 -0.0145
41412W        W84325   0.562   7.034  10.747  0.2437 -0.1430  0.2508
41413W        W84326  33.489   8.756   4.422  0.1150 -0.1272 -0.1652
41414W        W84327  29.391  10.646   7.707  0.0518 -0.0526  0.1113
41415W        W84328  32.646   5.947   4.816  0.1836  0.2972  0.0196
41416W        W84329   0.489  33.602   9.974 -0.2827 -0.1992  0.0530
41417W        W84330  34.180  10.355  10.192  0.2400 -0.1302  0.2065
41418W        W84331   0.200  31.540  25.048  0.1187  0.0075 -0.1030
41419W        W84332  33.497   2.065   2.304 -0.6230  0.0635 -0.1709
41420W        W84333  32.507   4.302   9.829  0.1739  0.0652 -0.1059
41421W        W84334  26.737   2.687   2.888 -0.0606  0.0484 -0.1890
41422W        W84335   4.274  30.531  10.902 -0.1107 -0.4459  0.1143
41423W        W84336  19.837   2.832   5.424  0.0391 -0.2364 -0.2004
41424W        W84337  28.205  31.959   7.102  0.1694  0.0109  0.1328
41425W        W84338   7.084   9.167   6.819  0.1449 -0.0852  0.2392
41426W        W84339  32.950   2.686   3.240  0.2171  0.3011  0.2432
41427W        W84340  22.832   2.755  25.612 -0.1467  0.5021  0.2079
41428W        W84341  27.054   7.044   5.432  0.0287 -0.1579 -0.2366
41429W        W84342  33.439   5.441  26.824 -0.2460 -0.1814 -0.0452
41430W        W84343   3.290   1.262  17.657  0.1932 -0.0115 -0.1534
41431W        W84344  33.985   5.907   3.068  0.1010  0.1920 -0.0643
41432W        W84345  27.595  18.068  27.447 -0.2102 -0.1056 -0.0690
41433W        W84346  18.304  13.142  28.779 -0.0234 -0.0923  0.1951
41434W        W84347  33.646  34.095  25.347 -0.0782  0.1129 -0.5347
41435W        W84348  23.383   7.943   5.905  0.0375 -0.3400 -0.1137
41436W        W84349   4.296   0.626   1.153  0.0262 -0.0435  0.1842
41437W        W84350  26.886  29.237   3.231 -0.0941  0.0268 -0.2406
41438W        W84351   5.983   0.304  29.697  0.4627 -0.0632  0.3855
41439W        W84352   1.208   3.772   0.702 -0.1236 -0.1604 -0.2359
41440W        W84353  25.295   7.161   0.773  0.1015  0.1037  0.1892
41441W        W84354  26.190   7.282   0.973  0.1721 -0.0599 -0.0926
41442W        W84355  22.358  19.097   1.078  0.0250 -0.3456  0.1501
41443W        W84356  28.136   5.926   2.496 -0.0528 -0.1585  0.0867
41444W        W84357   6.438   3.273   3.957  0.1926 -0.1617  0.0858
41445W        W84358   2.128  10.179  29.486 -0.0737  0.2043  0.0757
41446W        W84359   0.478   8.604   4.782 -0.2519  0.2140 -0.1498
41447W        W84360   1.556   8.841   4.144 -0.1046 -0.0384  0.0461
41448W        W84361  31.248  33.432  25.246 -0.1826 -0.1661 -0.1251
41449W        W84362  33.397   5.266  27.734  0.2171  0.1575 -0.3570
41450W        W84363  23.551   9.490  26.992  0.2628  0.1022  0.3920
41451W        W84364   3.604  11.977   0.420 -0.3198 -0.0999  0.1020
41452W        W84365   2.654   2.664   8.967 -0.1288 -0.0122  0.4450
41453W        W84366  15.394   0.662  28.488 -0.3164  0.1373 -0.2244
41454W        W84367   3.014   7.097   2.415  0.2392 -0.0376 -0.0306
41455W        W84368  25.885   0.193  25.977 -0.2103 -0.2106 -0.1416
41456W        W84369   4.453   2.943   2.298  0.0721 -0.3196  0.1324
41457W        W84370  12.653   0.570  10.355 -0.1484  0.0383  0.1256
41458W        W84371  23.024  19.742   4.670  0.0438 -0.1171 -0.0235
41459W        W84372  32.075  31.202   3.652 -0.3115 -0.0727  0.0832
41460W        W84373  27.028  12.328  26.832  0.1757 -0.1424 -0.1327
41461W        W84374  25.768  10.438   3.651 -0.0138 -0.0246 -0.1519
41462W        W84375  33.355  15.335   7.719  0.0260 -0.0793  0.2286
41463W        W84376  24.704   3.272  26.828  0.1090  0.1571 -0.6008
41464W        W84377  24.948   7.063   7.703 -0.0350 -0.0615  0.1801
41465W        W84378  21.056  28.034   4.119 -0.2555 -0.0029 -0.1126
41466W        W84379  31.187  33.658  10.807 -0.1611 -0.0815 -0.1939
41467W        W84380  31.379   4.971   0.537  0.3097 -0.0985  0.2995
41468W        W84381   8.957  13.971   7.953 -0.0115 -0.1973  0.2471
41469W        W84382  32.442  14.939  28.353  0.0585 -0.2556 -0.0115
41470W        W84383   2.860  33.636   7.943  0.1253  0.0619  0.1031
41471W        W84384   2.417  34.216   2.170 -0.0994 -0.0132 -0.4871
41472W        W84385  33.490  31.584  29.670 -0.0089 -0.3117  0.0473
41473W        W84386  32.137  17.018   2.074 -0.0698  0.0409  0.0463
41474W        W84387   0.642  13.981  29.577 -0.1048 -0.1326 -0.0893
41475W        W84388   1.694   5.738  19.629 -0.4165 -0.1540 -0.1851
41476W        W84389  32.080   9.485   7.838 -0.2147  0.1066 -0.4325
41477W        W84390  30.372  33.363   4.835  0.4047 -0.4606 -0.0078
41478W        W84391  20.629  10.448   7.665  0.2398  0.0373 -0.0012
41479W        W84392  34.344   8.941  27.074  0.1976 -0.1459 -0.1239
41480W        W84393  26.390  33.959   8.127 -0.2809  0.0283  0.1524
41481W        W84394   1.832  12.640   0.527  0.2823  0.3547  0.0208
41482W        W84395   0.138   7.749   1.517  0.2584  0.0255  0.0778
41483W        W84396  27.247   0.444  29.220 -0.1710  0.0306 -0.2850
41484W        W84397   5.800  31.562  10.188  0.0395  0.1789  0.0075
41485W        W84398  28.407   2.102  28.993  0.3289 -0.3329  0.3302
41486W        W84399  29.813  15.397   5.321  0.0950  0.1736  0.1580
41487W        W84400  30.407   8.757   2.847  0.0562 -0.0014  0.1681
41488W        W84401  33.032   5.379   9.733  0.0422  0.1089  0.0804
41489W        W84402  26.998  10.211  27.506 -0.0312 -0.1164 -0.1185
41490W        W84403   1.894   2.051   6.357  0.1502  0.4141  0.3905
41491W        W84404  33.421  20.974   0.747  0.0787 -0.1392  0.0949
41492W        W84405   1.739   1.170  27.957 -0.4034  0.2511  0.0390
41493W        W84406  18.272  17.563  24.543  0.2321  0.1541  0.1661
41494W        W84407   0.059  31.061   0.448 -0.1396  0.2207  0.0862
41495W        W84408  33.947   5.314   7.615  0.1367  0.2043  0.3564
41496W        W84409  27.058   5.260   6.444 -0.3327  0.0347  0.0574
41497W        W84410  27.989  30.416   5.545  0.0097  0.1090  0.0973
41498W        W84411  29.322   6.276   3.208 -0.1753 -0.2770 -0.0605
41499W        W84412  32.604  16.390  29.689 -0.2491  0.0563 -0.0668
41500W        W84413  21.470   2.101  24.549 -0.4235 -0.0609  0.2057
41501W        W84414  26.589  11.388  23.923 -0.3291  0.1410  0.0552
41502W        W84415   4.023   9.821   3.209 -0.1503 -0.4373  0.1133
41503W        W84416  34.246   3.685   7.242  0.0098 -0.0368  0.0078
41504W        W84417  21.684   6.886  21.846 -0.0192  0.3521 -0.0453
41505W        W84418  31.389  32.053   9.393  0.1095  0.2986 -0.2719
41506W        W84419  26.089   6.397   6.665 -0.2112  0.1001 -0.2184
41507W        W84420  30.679   7.050  24.988  0.0883 -0.1118 -0.0523
41508W        W84421  24.711   3.929   1.843 -0.0443 -0.4914 -0.0203
41509W        W84422  23.440  11.202   5.479 -0.1597 -0.4435 -0.2038
41510W        W84423  19.168   9.048  22.073 -0.0622  0.1141  0.1031
41511W        W84424  28.197  33.449   9.671  0.3617  0.0812  0.6779
41512W        W84425  33.795   3.285   1.732  0.0374 -0.0461 -0.5883
41513W        W84426   0.094  10.679  28.189  0.0277 -0.1347 -0.1647
41514W        W84427  32.400   2.267   9.745 -0.1208 -0.0770  0.2340
41515W        W84428  24.278  14.747   0.585  0.1896  0.0839 -0.2196
41516W        W84429  28.395  14.020  25.960 -0.1590  0.0230  0.3234
41517W        W84430  28.070   1.389  25.969 -0.2098  0.1035  0.0285
41518W        W84431  31.378  14.699  21.532  0.0045 -0.1157 -0.0355
41519W        W84432   0.411  10.511  16.174 -0.2233 -0.0035  0.2462
41520W        W84433  15.962   1.818   9.533 -0.0658  0.1737  0.4234
41521W        W84434  33.585  31.437   0.340 -0.5460 -0.1108 -0.2723
41522W        W84435  21.718   4.101   8.893  0.0414  0.2424  0.0062
41523W        W84436   1.352   6.545   6.991  0.0127  0.0360 -0.1252
41524W        W84437  33.068  33.947   3.337 -0.1535  0.1755  0.1706
41525W        W84438  26.967   4.613  25.100  0.0459 -0.2424  0.1400
41526W        W84439  33.650   1.221  29.058  0.2432 -0.3013 -0.1558
41527W        W84440  29.788  13.627  27.551 -0.1739 -0.0303 -0.0754
41528W        W84441  28.922  13.528  28.613  0.1881 -0.2060  0.4928
41529W        W84442  31.434   3.371   9.559  0.2280  0.1162  0.2501
41530W        W84443  30.058   5.895   4.113 -0.1459  0.1134 -0.0904
41531W        W84444   3.796   4.183  23.839  0.0791 -0.1301  0.0102
41532W        W84445  31.175   2.427   7.557 -0.0620  0.2658 -0.1181
41533W        W84446  30.425  19.146  29.657  0.4804 -0.1835 -0.2040
41534W        W84447  30.223   1.706   5.853 -0.1764 -0.3564  0.0702
41535W        W84448  30.005   1.425   8.363 -0.0330  0.2016 -0.3046
41536W        W84449  31.271  27.659   1.001  0.0658  0.0226 -0.2507
41537W        W84450  30.221   3.813   6.015  0.0353 -0.0654 -0.3105
41538W        W84451   3.236   9.107   8.037 -0.1333 -0.3060 -0.0910
41539W        W84452  34.355  15.022   0.513 -0.0604 -0.1546  0.2622
41540W        W84453  30.755  33.400   2.463  0.1023 -0.2080 -0.0052
41541W        W84454   1.847   1.428   9.767 -0.1011 -0.1318  0.1258
41542W        W84455  27.614  13.429  23.703  0.0396 -0.2057  0.0589
41543W        W84456   6.062   1.341  29.357  0.1252 -0.3009  0.3437
41544W        W84457  24.274   7.153  25.981 -0.1978  0.1997  0.1514
41545W        W84458  32.443  10.594  29.080  0.2757 -0.1871 -0.0464
41546W        W84459  21.243   6.906   2.205  0.1570  0.0799 -0.1149
41547W        W84460  23.433  12.924   7.648 -0.2169  0.2669  0.1003
41548W        W84461  19.839  33.355   9.440 -0.0639  0.0125  0.0233
41549W        W84462  13.738  15.452  28.152  0.0526  0.2213  0.0443
41550W        W84463   5.241  32.226  11.112 -0.3271 -0.0543  0.0726
41551W        W84464  21.016   8.626  17.713  0.1896  0.1409 -0.1546
41552W        W84465  27.224  11.354   8.675  0.0780  0.3837 -0.0642
41553W        W84466  25.417  16.361  26.864  0.0848 -0.0178 -0.0699
41554W        W84467   0.654  33.270   6.041 -0.1699  0.3851  0.0487
41555W        W84468  24.993   4.555   3.323 -0.0603 -0.2827 -0.4642
41556W        W84469  23.289  17.649  25.418  0.1488  0.0632  0.1051
41557W        W84470  21.530   4.462  27.860 -0.1444  0.0203  0.0737
41558W        W84471  31.251  12.814   6.655 -0.0486 -0.3281  0.2293
41559W        W84472  26.031   8.866   3.770 -0.2283 -0.0038  0.3165
41560W        W84473   0.340   4.131  15.907 -0.0889  0.3886  0.0250
41561W        W84474  33.865  11.396  20.968 -0.4677  0.1132 -0.0460
41562W        W84475  31.189  10.481  26.797 -0.4638 -0.2563 -0.1977
41563W        W84476   2.642  11.281   8.902  0.1160 -0.1106 -0.0686
41564W        W84477  24.278  33.185   9.165 -0.0600  0.0888  0.0706
41565W        W84478   2.796   6.439   8.797  0.0797  0.2653  0.2148
41566W        W84479  21.509  18.076   3.280  0.0963 -0.1113  0.0482
41567W        W84480  34.463   5.682  29.586 -0.0500  0.1094  0.4141
41568W        W84481  24.024  28.740   2.078  0.2082  0.0910 -0.0089
41569W        W84482  33.298   6.401   0.280 -0.1515 -0.0585  0.0270
41570W        W84483  27.297   8.520   8.854 -0.1917 -0.0068 -0.1929
41571W        W84484  22.040  10.461   6.571 -0.2791 -0.1011 -0.1097
41572W        W84485  32.299  10.650   7.304  0.2732 -0.3248  0.2970
41573W        W84486  30.566   7.351  11.111 -0.1402 -0.2089  0.0451
41574W        W84487  33.029   2.176  29.127 -0.0826  0.0769 -0.1585
41575W        W84488  32.931   8.599  23.335 -0.0256  0.0043 -0.4232
41576W        W84489  28.659   0.830  27.783 -0.3406 -0.0377  0.1726
41577W        W84490   0.479  16.948   2.614 -0.0315 -0.3507 -0.0639
41578W        W84491   5.840   1.306  23.916  0.2301  0.0657 -0.2839
41579W        W84492  30.953  33.030   8.283 -0.0337  0.1979 -0.0009
41580W        W84493  26.686  18.211   5.828 -0.4072  0.0203  0.1624
41581W        W84494   3.310  10.762  27.075  0.0891 -0.2698 -0.2242
41582W        W84495  34.275  18.781  28.643  0.0319 -0.2788  0.1189
41583W        W84496  22.053   5.449  25.273 -0.1270 -0.0484 -0.3046
41584W        W84497   4.134   6.189  10.330  0.5112  0.0147 -0.1166
41585W        W84498   6.047   9.861   5.443 -0.1673  0.1182  0.1116
41586W        W84499  29.336   5.339   7.056  0.1718  0.2474 -0.0108
41587W        W84500  27.165  11.692   8.098  0.0458  0.2739  0.1284
41588W        W84501  31.225   3.404   2.702  0.0182  0.0137  0.2500
41589W        W84502   8.431   9.280   5.697  0.2289 -0.0886 -0.0383
41590W        W84503   1.433   5.151   5.100 -0.0924  0.0140  0.2275
41591W        W84504  29.625   6.468   0.643  0.0995  0.2109 -0.0625
41592W        W84505   6.737  32.155  12.271  0.3748 -0.3298 -0.0479
41593W        W84506  24.240  33.971  10.518  0.1314  0.1423 -0.0907
41594W        W84507  26.097  28.928   8.035  0.0999  0.2444  0.1970
41595W        W84508  33.448  19.441   2.987  0.1582 -0.1555 -0.1252
41596W        W84509  31.758   5.791   1.794  0.4548 -0.1316 -0.0075
41597W        W84510   1.410   9.518  23.888  0.0266  0.0201 -0.1546
41598W        W84511  16.804   8.022  28.931  0.2974 -0.0487 -0.2413
41599W        W84512  33.188   0.093  10.745 -0.0401 -0.0012 -0.3319
41600W        W84513  27.275   4.905   7.949 -0.0273 -0.2102  0.3943
41601W        W84514   7.775   6.621   8.832  0.1294 -0.1241 -0.1382
41602W        W84515   2.812  31.838   2.891 -0.4622 -0.3226 -0.1922
41603W        W84516   2.627   7.853  10.232  0.1627 -0.3890 -0.0169
41604W        W84517   1.401   4.934   9.222 -0.1825  0.1446 -0.3182
41605W        W84518  29.714  25.432  25.321  0.5098 -0.0443  0.2008
41606W        W84519  28.354   8.626  27.653  0.1127 -0.0330  0.0603
41607W        W84520  22.705  14.565  27.911 -0.1101 -0.0940  0.0957
41608W        W84521  27.466  11.790  19.879  0.1228  0.1911  0.0155
41609W        W84522  25.422  12.947   7.859 -0.0715 -0.2589  0.3117
41610W        W84523  23.878  32.919  26.488 -0.0432  0.1616 -0.4690
41611W        W84524  30.927   2.591  27.067 -0.0842  0.1198  0.0470
41612W        W84525   1.899   2.742   3.349 -0.1131  0.3209  0.1383
41613W        W84526  31.484  12.301  29.312  0.0713  0.1031  0.1078
41614W        W84527   8.137  11.703  22.040 -0.2807  0.2579  0.0102
41615W        W84528  22.143  27.763   2.923 -0.0802  0.0945  0.2444
41616W        W84529  29.836   5.435   2.602  0.1280  0.0150  0.1536
41617W        W84530  26.763   7.995   5.583  0.1380 -0.1841  0.0144
41618W        W84531   3.058  16.034  27.260  0.0931 -0.0498  0.1615
41619W        W84532  22.767  33.960   9.013  0.0446  0.1691 -0.0311
41620W        W84533   2.965   2.533  23.031 -0.1895  0.2913  0.1810
41621W        W84534   3.810  31.728   3.310  0.3562  0.0238 -0.1396
41622W        W84535  18.457  15.097  23.534  0.3213  0.0862 -0.0473
41623W        W84536  29.514   4.246   2.292 -0.0664 -0.0099  0.3061
41624W        W84537  25.658  10.155  24.352 -0.1918  0.0664  0.4299
41625W        W84538  29.216   3.604   6.886  0.0623  0.2618 -0.0912
41626W        W84539  24.863  10.934  24.997  0.1298 -0.1198 -0.0222
41627W        W84540  34.370  16.445   0.367 -0.1400  0.0681  0.2874
41628W        W84541  22.792  13.302   0.815 -0.0217  0.0044  0.3287
41629W        W84542  19.103  33.678   3.923  0.0966 -0.0500  0.0164
41630W        W84543  29.974   8.746  20.998 -0.2004 -0.1195 -0.2932
41631W        W84544  27.884   7.867  10.229  0.2056  0.0360 -0.1307
41632W        W84545  28.080   3.461   1.791 -0.0435  0.3032  0.6055
41633W        W84546  24.399  15.931   0.108  0.0857  0.0939 -0.0287
41634W        W84547  33.085   9.742   2.086 -0.0198  0.0794 -0.0919
41635W        W84548  21.346  10.490   6.438 -0.2970 -0.0665  0.1909
41636W        W84549   2.078  32.409  26.119 -0.0286  0.1922  0.1288
41637W        W84550  30.991  34.096   8.083 -0.1401 -0.0294  0.0422
41638W        W84551   0.530  15.178   9.177  0.1057 -0.1699 -0.2546
41639W        W84552   9.676  16.010   6.573  0.0499  0.0158 -0.1888
41640W        W84553   0.403   1.775  10.184 -0.0174 -0.0911  0.0007
41641W        W84554  31.325   8.824   3.123 -0.1217 -0.2842 -0.3342
41642W        W84555   1.265   7.318   2.234 -0.2570  0.3896  0.2551
41643W        W84556   6.129  33.907  24.641 -0.3642  0.0171 -0.1994
41644W        W84557  33.835   8.297   4.504  0.2960  0.1639 -0.3211
41645W        W84558  30.624   6.831  29.628 -0.0781  0.2200  0.3634
41646W        W84559   0.770  10.149   5.066  0.0721  0.3188 -0.3561
41647W        W84560   1.654  33.405   9.896 -0.0533  0.0780 -0.4050
41648W        W84561  32.822  31.177  29.417 -0.2735 -0.1365  0.0086
41649W        W84562  26.710   8.858   3.225  0.1444  0.0989 -0.1640
41650W        W84563  26.651   4.302   8.422 -0.2244  0.3591  0.2261
41651W        W84564  27.485   8.245   5.469 -0.1824  0.1314 -0.0114
41652W        W84565  19.053  12.182  23.119  0.1614 -0.5594 -0.0970
41653W        W84566  19.535   8.781  26.511  0.1495 -0.1766  0.0121
41654W        W84567  26.643   6.831  29.514  0.0114 -0.2983  0.1464
41655W        W84568  32.285  32.487   8.966  0.0615  0.0188  0.3315
41656W        W84569   0.263   6.427  27.686  0.0885 -0.4581  0.0965
41657W        W84570   6.716  16.103  28.857 -0.3827  0.1789  0.1690
41658W        W84571  31.408   5.421  23.430 -0.2638 -0.0976 -0.2805
41659W        W84572  27.264   6.297   9.417  0.2250 -0.2172  0.0288
41660W        W84573  29.385   8.767  27.785 -0.0566 -0.0412  0.0385
41661W        W84574  32.692   4.884   6.544  0.0579  0.1117  0.1602
41662W        W84575  30.269  10.879   6.852  0.2070  0.2075  0.1508
41663W        W84576   3.269  32.040   7.104 -0.0460 -0.1121  0.0877
41664W        W84577   7.936   7.862  28.823  0.1256 -0.1767 -0.0887
41665W        W84578  28.149   4.572   1.963 -0.1641  0.2460  0.0591
41666W        W84579  28.739  28.625   0.113  0.3752 -0.1006 -0.1499
41667W        W84580  26.358   6.333   7.688  0.2303 -0.2195  0.1506
41668W        W84581  33.859   6.598   2.660  0.1431 -0.1068  0.2987
41669W        W84582   3.018   9.383  26.130  0.0722 -0.0812  0.0119
41670W        W84583  26.463   7.707  25.902 -0.1001  0.0523  0.2010
41671W        W84584  23.020   7.781   9.003 -0.2971 -0.1835  0.1305
41672W        W84585  29.834   0.569  25.060  0.1907 -0.0865 -0.2614
41673W        W84586  28.789  11.834  27.086 -0.0048 -0.1563 -0.2838
41674W        W84587  33.522   4.280  28.089  0.1054  0.0232  0.0782
41675W        W84588   6.977   3.615  22.272 -0.0403  0.4107  0.1614
41676W        W84589  30.918  34.265   4.232  0.0125  0.2312 -0.1100
41677W        W84590  27.987   6.311   1.392 -0.0008  0.1447 -0.0600
41678W        W84591   3.270   2.896   0.147  0.1063  0.3083  0.3562
41679W        W84592   1.458  10.727   5.740  0.3955  0.2253 -0.1835
41680W        W84593  32.199   9.644   1.631 -0.0299  0.2570  0.1543
41681W        W84594   0.925   9.338   7.395  0.0089  0.1155 -0.0726
41682W        W84595   0.985   9.241  22.096 -0.1403 -0.1399 -0.1086
41683W        W84596  30.541   2.476   0.223 -0.2075 -0.0058  0.1224
41684W        W84597  23.858  12.258   3.243  0.1598 -0.1908 -0.5786
41685W        W84598   3.751  25.068  29.735 -0.0402  0.2014 -0.3064
41686W        W84599  29.631   3.125   2.951  0.2379  0.0254  0.0636
41687W        W84600   4.307   8.092  10.577  0.2448  0.1207 -0.0235
41688W        W84601  23.348   0.947   6.706  0.3116 -0.0638 -0.2958
41689W        W84602  29.697   3.860   4.164 -0.1646 -0.0007  0.1980
41690W        W84603  28.321   7.897   1.083  0.0316  0.0201 -0.0622
41691W        W84604   0.264  33.575  18.301  0.0322 -0.1341 -0.2829
41692W        W84605   7.085   7.317   7.786 -0.1698 -0.0244 -0.2427
41693W        W84606   1.949  13.377   4.116 -0.4013  0.0843  0.2936
41694W        W84607   3.864   0.848  26.302 -0.1022 -0.1057 -0.0479
41695W        W84608  26.210   4.003   0.440 -0.0751  0.1547 -0.2388
41696W        W84609   5.673  11.899   4.262 -0.0446 -0.1347 -0.1637
41697W        W84610  28.863   8.888   1.043  0.0343  0.0668 -0.0014
41698W        W84611  33.695   3.875  11.117 -0.1080 -0.0791 -0.0762
41699W        W84612  31.490   4.246   4.992  0.0872 -0.2527  0.0915
41700W        W84613  24.974  14.980  23.261 -0.0929 -0.2616  0.0693
41701W        W84614   0.827   3.343  17.437  0.0212  0.0043 -0.2746
41702W        W84615  31.587  30.677   8.305  0.1126 -0.2115 -0.2024
41703W        W84616  25.860   1.786  25.740 -0.2519  0.2849 -0.1554
41704W        W84617   2.879  12.439   3.715 -0.0432  0.1465 -0.0803
41705W        W84618  34.489  12.801  22.268 -0.2812  0.0209  0.1373
41706W        W84619  33.777  14.224  27.786 -0.1239  0.0150  0.2572
41707W        W84620   2.682  19.026   6.726  0.3492 -0.1068 -0.0728
41708W        W84621   2.529   7.092   5.128  0.4782  0.0861 -0.0107
41709W        W84622  24.714   7.338  16.609 -0.1215  0.0289 -0.0824
41710W        W84623  29.167  15.132  24.985  0.1412  0.1279 -0.1003
41711W        W84624   4.608  10.837   1.486  0.2256  0.3048  0.0954
41712W        W84625  28.110  14.155   9.479  0.0534 -0.1152 -0.1053
41713W        W84626  31.403   9.300   3.488 -0.1401  0.1363  0.0488
41714W        W84627  31.987  31.238   9.518  0.0502 -0.1438 -0.1062
41715W        W84628  28.570   7.573   8.985 -0.2907 -0.0496  0.0842
41716W        W84629   0.668  10.381  26.621  0.1081 -0.0276 -0.2559
41717W        W84630  18.577  11.083   1.419  0.2011  0.0678 -0.0609
41718W        W84631  33.504  16.917  27.642  0.0298  0.2590 -0.0610
41719W        W84632  26.672  10.952   0.769 -0.0284 -0.2316  0.0656
41720W        W84633  28.704   1.755  10.255  0.0551 -0.1728 -0.0307
41721W        W84634  26.169  30.155  24.202 -0.0507 -0.1169  0.2091
41722W        W84635  31.953   2.982  21.702 -0.5081 -0.1880  0.6848
41723W        W84636   1.174  10.182   4.804  0.0562 -0.2148 -0.0518
41724W        W84637  19.578   6.548   7.643  0.2606  0.3371 -0.1554
41725W        W84638  27.650  10.204   0.731  0.0763  0.1998 -0.0219
41726W        W84639  20.578   1.820  22.861 -0.6228 -0.0896  0.0848
41727W        W84640  25.143  10.274  22.847 -0.2965 -0.1944 -0.1956
41728W        W84641  29.736   1.835   6.621  0.1168 -0.0356  0.0781
41729W        W84642  31.002   3.061   2.232 -0.2674  0.1189 -0.1268
41730W        W84643  29.372   4.967   6.644  0.1912  0.0270 -0.2700
41731W        W84644  31.500  12.590   9.839 -0.1699  0.0324  0.0910
41732W        W84645  29.198   6.195  28.074  0.2260 -0.0208  0.1170
41733W        W84646  28.335  30.893  24.475 -0.0081  0.0381  0.0322
41734W        W84647  19.917   2.195   8.934  0.2523 -0.2554 -0.2036
41735W        W84648  33.275  26.429  26.504 -0.0490  0.1830  0.2047
41736W        W84649  26.286  13.823   0.125 -0.0113 -0.1956  0.1978
41737W        W84650  32.063   8.478   5.106  0.0353 -0.3531 -0.2038
41738W        W84651  27.051  13.145  19.885 -0.0226  0.0892 -0.0840
41739W        W84652  30.264  34.219   8.365 -0.2508  0.1558 -0.0453
41740W        W84653  31.095   5.471   2.412 -0.0614  0.0934 -0.0796
41741W        W84654  32.939  30.401  25.462 -0.1217  0.0051  0.2252
41742W        W84655  34.001  13.197  26.862 -0.1422 -0.1592 -0.0831
41743W        W84656  33.170  20.494  26.170 -0.1090 -0.0354  0.1095
41744W        W84657  28.647   0.236  27.459  0.3177 -0.0748 -0.3494
41745W        W84658  19.690   8.189  25.270  0.1475 -0.2379  0.1178
41746W        W84659   3.483   4.199   9.675  0.0503  0.1861  0.2247
41747W        W84660  23.134  16.148   5.923  0.0088 -0.1538 -0.3095
41748W        W84661   1.105  12.903   4.335  0.2293 -0.0907 -0.1296
41749W        W84662   1.897   6.610   7.327 -0.4126  0.2348  0.0067
41750W        W84663  21.897   1.616  25.248 -0.0716  0.1390  0.3380
41751W        W84664   0.626   8.702  29.420  0.1253 -0.3007  0.0283
41752W        W84665   7.359   7.592   9.098 -0.2285 -0.0106  0.2132
41753W        W84666   2.043   7.679  25.461  0.0345  0.1227  0.0702
41754W        W84667  18.438  31.642   5.477 -0.1589 -0.2395  0.4362
41755W        W84668  16.461  13.147   0.281  0.0120 -0.0804  0.1603
41756W        W84669  32.273   3.711  28.113  0.1248 -0.0878 -0.2062
41757W        W84670   1.020   7.355  29.281 -0.1485 -0.1517  0.0480
41758W        W84671  34.494  18.355  29.026 -0.0951 -0.1003  0.2911
41759W        W84672  24.718   4.984   7.430  0.0651  0.1616  0.0310
41760W        W84673   1.653  31.867   1.067  0.0285 -0.0901 -0.1813
41761W        W84674  24.027   8.574   7.031  0.1330  0.1524 -0.0260
41762W        W84675  34.157   2.841   5.203  0.0181  0.0664 -0.0871
41763W        W84676  30.098  32.560  29.550 -0.2586 -0.2639  0.4455
41764W        W84677  29.230   5.260  10.658  0.1647 -0.3203 -0.0279
41765W        W84678   6.957   5.301   8.653 -0.3460  0.0195 -0.0503
41766W        W84679  31.068   3.842   3.313 -0.0402  0.0908 -0.2141
41767W        W84680  28.715  27.841   5.921 -0.1411 -0.2545 -0.1712
41768W        W84681   4.897   9.852  11.007 -0.1040  0.0506 -0.0002
41769W        W84682  27.769   2.558   2.523 -0.0545 -0.1299 -0.0406
41770W        W84683   2.234   5.049  10.175 -0.2393  0.2450 -0.0715
41771W        W84684  32.833   4.577   1.394 -0.1804  0.2946 -0.1661
41772W        W84685  24.506   0.659  25.739  0.3378 -0.2944  0.0033
41773W        W84686  28.593  20.949  29.781  0.3720  0.0935  0.1129
41774W        W84687  33.963   8.920   3.209 -0.0900  0.0543  0.0060
41775W        W84688  27.649   5.413  29.579  0.1901  0.0859  0.2182
41776W        W84689   0.077   5.936  27.759 -0.1436 -0.0177  0.0753
41777W        W84690  24.850   0.540   3.310 -0.1800  0.0289 -0.1102
41778W        W84691   2.377  15.568  21.250  0.2769 -0.1746 -0.0583
41779W        W84692  19.756   8.485   1.462  0.1843  0.0533  0.4406
41780W        W84693  32.575   4.079  24.647 -0.1960  0.1190 -0.0664
41781W        W84694  33.509   8.978   4.849 -0.0345 -0.1738  0.1899
41782W        W84695  24.292  32.932  27.788  0.1864 -0.0165 -0.1547
41783W        W84696  18.796  14.286   6.032  0.2314 -0.0334 -0.0933
41784W        W84697  25.156  14.995   0.020  0.1274  0.1466 -0.5125
41785W        W84698  25.641  12.793  27.972  0.1181 -0.1767 -0.2426
41786W        W84699  31.264  11.300   6.314 -0.0020  0.2091 -0.0692
41787W        W84700  23.027   6.557  22.284  0.4008 -0.0508  0.3333
41788W        W84701  21.452  11.296   8.544  0.0641  0.2414  0.2620
41789W        W84702   0.442   1.520   7.760  0.4886  0.1236 -0.0061
41790W        W84703  25.970  31.795   0.074 -0.2249  0.1541  0.0477
41791W        W84704   7.695   7.879  10.393 -0.2509 -0.2481  0.3210
41792W        W84705  23.403  13.605  25.828 -0.0006 -0.0200 -0.2505
41793W        W84706  27.785   1.339  22.693 -0.0715  0.2687 -0.0074
41794W        W84707  22.173  31.873   1.304  0.0012 -0.1156  0.1032
41795W        W84708  30.911  13.307   5.425  0.0124  0.1141 -0.2565
41796W        W84709  28.901  17.778   9.121 -0.0082  0.1454 -0.0312
41797W        W84710  22.426   8.143   7.934  0.2698  0.1820  0.2986
41798W        W84711   9.098  27.600   4.281  0.1463 -0.1999  0.2035
41799W        W84712  27.029  31.924  23.740  0.0168  0.1003 -0.3007
41800W        W84713  29.729   3.095  26.363 -0.0879  0.0220 -0.0092
41801W        W84714  28.159   8.222   6.610  0.0371 -0.2089  0.0132
41802W        W84715  20.437  10.216   6.380  0.1718 -0.3539  0.0086
41803W        W84716  29.532   7.859  24.138  0.3504 -0.3025 -0.1958
41804W        W84717  26.290   1.704   1.933 -0.1698 -0.2770  0.3757
41805W        W84718  17.095  26.057  21.909 -0.1674 -0.0026  0.2746
41806W        W84719   1.354  34.203   6.927  0.1262 -0.0663 -0.0688
41807W        W84720   0.906   9.369   7.893  0.1836  0.0347 -0.1166
41808W        W84721   3.044  32.022   7.873  0.0534 -0.1043  0.1860
41809W        W84722   0.082   8.087   0.277 -0.0490 -0.2363 -0.0381
41810W        W84723  31.445  15.782   1.626  0.1441 -0.0121 -0.2257
41811W        W84724  20.145   6.935  21.857 -0.0730  0.0878  0.2081
41812W        W84725  24.487  33.974   9.967 -0.1121  0.4098  0.0002
41813W        W84726  30.095   7.201  10.247  0.0070 -0.0489  0.0898
41814W        W84727  32.223   0.051   7.138  0.0237 -0.0960 -0.2377
41815W        W84728  21.865   9.982   1.396 -0.2396 -0.2049  0.2083
41816W        W84729   4.865   7.031   0.907  0.2661  0.3534 -0.0427
41817W        W84730  28.281   7.591  27.534 -0.1559 -0.1172 -0.1398
41818W        W84731  30.036   4.300  27.787  0.4029  0.1158  0.1253
41819W        W84732  30.751   5.727   2.803  0.2893  0.3970 -0.3209
41820W        W84733  27.275   7.803  21.873 -0.1127  0.2883 -0.2515
41821W        W84734  33.634  10.339  23.126  0.1883  0.0107 -0.0223
41822W        W84735  31.145  16.874   4.505  0.1695 -0.2380  0.0974
41823W        W84736  31.398  31.250  28.081  0.0685 -0.1909 -0.1870
41824W        W84737  22.076   4.528   3.189  0.0074 -0.1413  0.0498
41825W        W84738  28.422  22.821  29.687 -0.3296  0.3674 -0.1219
41826W        W84739   6.703   1.567  25.374 -0.0898  0.0965 -0.0093
41827W        W84740  22.754  27.660  28.532  0.0612 -0.1797  0.2134
41828W        W84741  24.335   3.774  10.189 -0.1212 -0.0025  0.1313
41829W        W84742  27.805   6.912   3.746 -0.1737  0.1225 -0.4895
41830W        W84743  29.250  10.391  10.032  0.0190  0.4025 -0.4055
41831W        W84744   0.527  14.258   5.956 -0.0816  0.2244 -0.3563
41832W        W84745  32.921   7.122   4.435 -0.0805 -0.2072  0.0861
41833W        W84746  25.938  14.501   2.765  0.1626  0.0022  0.1610
41834W        W84747   7.873   5.435  10.634  0.2751  0.0669  0.1623
41835W        W84748   5.892   3.832   9.576 -0.1866  0.0018  0.3825
41836W        W84749  26.950   0.051  28.509 -0.1133  0.1432 -0.0441
41837W        W84750  33.239   5.576  10.257  0.0624  0.3196 -0.3141
41838W        W84751   0.282   6.230   1.434 -0.1326 -0.2797  0.3576
41839W        W84752  29.731   3.409   8.315  0.1082  0.2343  0.0476
41840W        W84753   4.214  28.919   9.959  0.2135 -0.3493  0.3416
41841W        W84754  12.878  11.284  18.457  0.1365 -0.2305 -0.0098
41842W        W84755  16.717   8.893   0.642 -0.2197  0.1807 -0.0632
41843W        W84756  31.788   5.054   2.768  0.0591  0.1029  0.0210
41844W        W84757  31.735  22.806   7.948 -0.1350  0.1620 -0.0086
41845W        W84758   4.804  34.114  28.563 -0.0838 -0.0896 -0.0297
41846W        W84759  31.175   6.365   8.021  0.3004  0.2242  0.0595
41847W        W84760   0.726  33.996  10.245 -0.0947 -0.1507 -0.2205
41848W        W84761  28.309  33.960   9.479  0.2686  0.4000 -0.2710
41849W        W84762  31.794  18.590   0.530 -0.1066 -0.0955 -0.1454
41850W        W84763   0.745   8.946  11.351  0.2851  0.2851 -0.1932
41851W        W84764  34.472   4.599   2.860 -0.1113  0.0777  0.0419
41852W        W84765  32.923   7.076   1.571  0.0043  0.2830 -0.1184
41853W        W84766  33.512   2.520   8.156  0.0349  0.1510 -0.1039
41854W        W84767  30.626  13.075   7.194  0.0529  0.2287  0.0279
41855W        W84768  32.684   0.820   8.053  0.0083 -0.3488  0.1837
41856W        W84769   4.068  14.739   9.674  0.1703 -0.2762 -0.0440
41857W        W84770  29.575  34.065  26.680 -0.0756 -0.1957  0.0007
41858W        W84771   5.252   3.897   6.035  0.4912  0.0948  0.1468
41859W        W84772  31.825  15.897  29.688  0.3004 -0.0009  0.1346
41860W        W84773   3.875   1.705  13.090  0.1984  0.0166  0.1277
41861W        W84774   0.350   9.068   9.173  0.2611 -0.0941 -0.0035
41862W        W84775  29.482   2.539   7.422  0.0524  0.0112 -0.2236
41863W        W84776  19.250   1.445   6.081 -0.2248  0.2877  0.1689
41864W        W84777   6.032   2.809  24.796  0.2788 -0.2230  0.6171
41865W        W84778  21.374   5.551  29.368  0.1266  0.1697 -0.1790
41866W        W84779   2.224  32.091   8.216 -0.3271  0.1462  0.0655
41867W        W84780  26.967   9.341  29.069  0.2386 -0.2514  0.0168
41868W        W84781  33.347   8.718  19.721  0.1019  0.1403 -0.1903
41869W        W84782  34.336  10.862   5.759 -0.0225  0.2441 -0.0595
41870W        W84783  24.433   7.428   6.423 -0.0606 -0.1786  0.0982
41871W        W84784  28.522  10.393   3.653  0.1191 -0.2565  0.0445
41872W        W84785  25.453  28.218   5.402 -0.2099  0.0715  0.2623
41873W        W84786  33.865   4.706   4.585 -0.2309  0.0398 -0.0212
41874W        W84787  24.679  11.945   5.247  0.0706  0.1626  0.4067
41875W        W84788  31.244  29.520   1.208 -0.0640  0.2479 -0.1217
41876W        W84789  29.547  20.192  22.731  0.0047 -0.0162 -0.0161
41877W        W84790   3.675  33.214   6.263 -0.1636 -0.0023  0.0504
41878W        W84791  24.332   8.414   3.335  0.0741 -0.0253 -0.0929
41879W        W84792  24.852   8.005   7.038  0.2193  0.2231 -0.1233
41880W        W84793  11.584  10.227   4.797 -0.3100  0.2263 -0.1646
41881W        W84794  24.438  10.644   2.439  0.0959  0.0522 -0.2468
41882W        W84795   5.212  11.235   0.039  0.0092  0.0847  0.2289
41883W        W84796  28.424   2.788   6.318  0.1012 -0.1502  0.1654
41884W        W84797  24.021   1.762   5.869 -0.1157  0.0053 -0.0015
41885W        W84798  26.739   1.033  28.559 -0.1908  0.0040 -0.2505
41886W        W84799  29.463  10.257   2.858  0.6077  0.2691 -0.0446
41887W        W84800  34.385   6.135  25.809  0.2379  0.2541 -0.2202
41888W        W84801  24.230  13.897   3.588 -0.1511 -0.0094  0.1071
41889W        W84802   7.072   6.102  12.173  0.1399  0.0387 -0.1667
41890W        W84803  22.260   7.232  25.277 -0.2435 -0.0868 -0.0381
41891W        W84804   1.069  29.693   6.837 -0.0241  0.1171 -0.0502
41892W        W84805  34.310   4.433  11.913  0.2928  0.0399 -0.0867
41893W        W84806  34.244   5.118   8.462  0.0044 -0.2040  0.0800
41894W        W84807   8.221  18.757   7.404 -0.0338  0.3117 -0.0473
41895W        W84808  31.891   7.681   8.686  0.2472 -0.0605 -0.1441
41896W        W84809   1.790  13.932  29.768  0.0366 -0.0179  0.2516
41897W        W84810  31.785  10.171   6.056 -0.0456 -0.2027 -0.0988
41898W        W84811   1.600   3.074   9.540 -0.0576  0.1356 -0.1701
41899W        W84812  28.671   6.257   4.588  0.1686  0.0823  0.0079
41900W        W84813  26.315  34.363  26.071 -0.3254 -0.3567  0.1089
41901W        W84814  22.813   7.940   4.952  0.1251 -0.0934 -0.1878
41902W        W84815  33.639   0.316  26.348  0.3729 -0.3376 -0.2239
41903W        W84816  22.723   6.980   5.785  0.1023 -0.0955  0.0785
41904W        W84817  31.759   9.612   6.901  0.0855 -0.2621  0.2494
41905W        W84818  32.116  11.754  28.851  0.0649 -0.2240  0.0564
41906W        W84819   8.525   5.844   3.368 -0.2023  0.3166 -0.0945
41907W        W84820   3.614   7.080   0.455  0.2031 -0.2051 -0.1940
41908W        W84821  30.796   9.732   4.573 -0.2977 -0.0696 -0.4276
41909W        W84822   2.211   9.950   7.437 -0.2373 -0.1917  0.0894
41910W        W84823  26.323  10.023   3.301  0.2630  0.2997 -0.0713
41911W        W84824   4.213   9.660  10.025  0.1783 -0.2526 -0.1275
41912W        W84825  31.064   9.830   3.776 -0.1890 -0.0181  0.0192
41913W        W84826  26.667   2.870   4.808 -0.0392 -0.2121  0.0732
41914W        W84827  27.507  14.088   6.530 -0.2198  0.0169  0.2405
41915W        W84828  24.040  10.138  23.064 -0.0506 -0.5240 -0.0214
41916W        W84829   2.740   7.714  26.084  0.1553  0.0265  0.4100
41917W        W84830  27.719   6.685   2.403  0.1312  0.2641  0.2876
41918W        W84831  33.829  13.057   9.029  0.0644 -0.2717  0.2459
41919W        W84832  24.861  28.769   4.657  0.0073  0.3521  0.2768
41920W        W84833  23.904   7.458   4.089 -0.1856  0.3760 -0.0253
41921W        W84834  30.243  12.022   3.980  0.0844  0.2078 -0.1951
41922W        W84835  33.453   1.461  17.934 -0.1609  0.4251 -0.1329
41923W        W84836  21.360   3.629   9.523  0.1634 -0.0599 -0.1802
41924W        W84837  27.959  18.786  25.967 -0.0566  0.2151  0.0742
41925W        W84838  30.192  14.204   1.857 -0.2859  0.4148  0.0935
41926W        W84839  33.642  13.225   2.963  0.2161 -0.0060 -0.0005
41927W        W84840  26.521   8.956  29.648  0.0802 -0.2763  0.1573
41928W        W84841   4.155  30.865  27.893  0.0302 -0.3515 -0.2698
41929W        W84842  25.009   3.403   4.610  0.1069 -0.1069  0.0598
41930W        W84843  32.399   8.532  25.512 -0.1872 -0.0704  0.1473
41931W        W84844  31.187   1.563   3.374  0.1450  0.0638 -0.1972
41932W        W84845  28.958   8.115   8.791 -0.0005  0.0551 -0.2511
41933W        W84846  34.315   7.010   6.615 -0.0186 -0.2191 -0.1507
41934W        W84847  29.552  12.396   7.853 -0.1509 -0.2038  0.0066
41935W        W84848  25.060  12.567   8.967 -0.1036 -0.2651  0.2478
41936W        W84849  30.148   6.186  10.601  0.2909  0.1222 -0.0777
41937W        W84850  11.220  34.030   9.224  0.2201 -0.0921 -0.0793
41938W        W84851  31.302   4.938   1.047  0.0915  0.0693  0.0810
41939W        W84852  28.398  13.672   3.018 -0.0809 -0.1711  0.0826
41940W        W84853  29.227   2.937  27.479  0.2139  0.0969 -0.2775
41941W        W84854   2.062   2.959   9.644 -0.2420 -0.1126 -0.2564
41942W        W84855   2.598  29.643   2.815 -0.1211  0.0039 -0.2430
41943W        W84856  24.021  10.889  24.339 -0.0619 -0.1174  0.4608
41944W        W84857  29.258   0.483   4.238 -0.0779  0.1880  0.1099
41945W        W84858  33.462  10.247   8.062  0.1550  0.2718  0.1848
41946W        W84859  32.347  10.205  10.314  0.0821  0.1286  0.2056
41947W        W84860  29.174  10.516   0.106 -0.1325 -0.2390  0.0073
41948W        W84861  27.382   3.051  23.992 -0.0146  0.0729  0.0957
41949W        W84862  32.849   7.378   6.907  0.1003  0.0989  0.0025
41950W        W84863  29.634   4.736   8.833  0.1097 -0.2235  0.2548
41951W        W84864  34.152  11.793  27.040 -0.1999 -0.1863  0.1882
41952W        W84865  34.387  14.766  29.649 -0.1031  0.0765  0.1009
41953W        W84866   5.034   5.161   7.683 -0.1487 -0.1977 -0.0352
41954W        W84867   6.131   7.597   7.811 -0.1711 -0.1344  0.1047
41955W        W84868   2.057   4.445   9.095 -0.0127  0.0732 -0.0561
41956W        W84869  21.194  12.538  27.834  0.1428  0.0400 -0.2128
41957W        W84870  30.473  31.152   7.572 -0.1381  0.2478 -0.0297
41958W        W84871  28.928  26.719  22.531  0.4880  0.1518 -0.1641
41959W        W84872  30.486  33.972   1.378  0.0345  0.2260  0.3031
41960W        W84873  19.314  33.846   9.656  0.0747  0.2350 -0.0728
41961W        W84874  29.057   4.435   6.817  0.1478  0.3399  0.2972
41962W        W84875  32.656   3.910  27.817 -0.1855 -0.0109  0.0241
41963W        W84876   0.674   7.041  25.677  0.1980 -0.2010 -0.1021
41964W        W84877  27.542   8.625   6.396 -0.1025  0.0454  0.2241
41965W        W84878   2.866   7.323   0.031 -0.1431  0.0889 -0.0710
41966W        W84879  16.709   4.749  10.227 -0.0129  0.0564 -0.0518
41967W        W84880   0.951   5.472   6.238  0.3665 -0.2780 -0.1387
41968W        W84881  26.691  10.005   2.369 -0.2491 -0.0891  0.1849
41969W        W84882  24.390  15.587  27.422  0.1294 -0.3049 -0.3615
41970W        W84883  22.272  33.700   9.588 -0.0500 -0.2407  0.0091
41971W        W84884  34.382   9.921  10.727  0.3324  0.2932  0.0074
41972W        W84885  32.384  19.677   9.077  0.0751  0.0995  0.0074
41973W        W84886  19.352   7.601   9.960 -0.3061 -0.1492 -0.2557
41974W        W84887  28.143  13.558   4.352 -0.2748 -0.1097 -0.3049
41975W        W84888   4.572   9.475   5.215 -0.0957  0.0719 -0.0680
41976W        W84889  30.170  13.673   0.431  0.2377  0.0469  0.0603
41977W        W84890  30.737  32.245   6.353 -0.0601 -0.1359 -0.0764
41978W        W84891  31.616   7.218   6.359  0.1261 -0.1165 -0.0397
41979W        W84892   3.184   5.948  26.451 -0.2776 -0.1191 -0.2181
41980W        W84893  22.127   6.654  25.098  0.2504 -0.1457 -0.0234
41981W        W84894  28.668   2.536   7.156 -0.0074 -0.0668  0.0720
41982W        W84895  26.050   0.339   7.728  0.0434 -0.0817 -0.0260
41983W        W84896  29.236  26.496   6.188 -0.0523 -0.1316 -0.2494
41984W        W84897  33.746  34.211  28.429  0.1086  0.1808 -0.3072
41985W        W84898  29.462   4.342   3.561  0.1165  0.1090  0.1901
41986W        W84899   3.920  13.828  28.151  0.0676 -0.0792 -0.2071
41987W        W84900   1.943   4.716   7.894  0.1781 -0.1990  0.0767
41988W        W84901   7.067  10.562   7.528 -0.0896  0.0726 -0.4305
41989W        W84902  23.099  11.108   9.464 -0.3827  0.1172 -0.2064
41990W        W84903  24.398  32.818  28.358 -0.0936  0.2651 -0.1252
41991W        W84904  30.270   7.980  27.011  0.3031 -0.2802 -0.2287
41992W        W84905  33.733  12.633   6.476  0.2554 -0.1809  0.0617
41993W        W84906  28.602  18.329  28.444 -0.0450 -0.0715 -0.2752
41994W        W84907  32.004  32.581   0.648  0.1438  0.0986  0.0835
41995W        W84908   0.087   5.960   6.162 -0.1472 -0.1827  0.1014
41996W        W84909   6.666  30.455   0.140  0.0736  0.0894  0.0880
41997W        W84910   2.146   8.610  11.994 -0.1185  0.0856  0.1830
41998W        W84911  30.013   7.809   8.079  0.2474 -0.3219 -0.1810
41999W        W84912  31.739  33.445   7.695  0.0312  0.3277 -0.0111
42000W        W84913  27.839  10.674  25.401 -0.0448 -0.0110 -0.2744
42001W        W84914   7.073   5.178   4.238 -0.1318  0.1919  0.1358
42002W        W84915  26.863  10.870  24.601  0.3081 -0.1633 -0.0515
42003W        W84916   4.122   5.571   5.754 -0.0058 -0.1288 -0.1107
42004W        W84917   1.832   5.867   2.115 -0.2712 -0.1695  0.1722
42005W        W84918  21.034  27.259  23.336  0.2012  0.3077  0.0317
42006W        W84919  24.825  29.725   6.585  0.1545  0.1623 -0.0453
42007W        W84920  34.399   1.308   7.555 -0.2427 -0.2983  0.1130
42008W        W84921   1.769   9.361   2.501  0.2794 -0.0476 -0.0328
42009W        W84922   1.912  13.442  26.045  0.0022 -0.1368 -0.0065
42010W        W84923  29.442  33.837   8.756 -0.0745  0.1902  0.1087
42011W        W84924  28.526   9.842   4.287 -0.0752  0.1611 -0.0390
42012W        W84925   2.270   3.837   5.130 -0.0306 -0.2336  0.0023
42013W        W84926  30.275   9.350   8.150  0.1386 -0.0956  0.0554
42014W        W84927   0.838  13.974   9.723  0.0504 -0.3970 -0.3557
42015W        W84928   4.587   7.553   6.472 -0.0781 -0.1401 -0.0909
42016W        W84929  30.435  20.046  26.869 -0.0139 -0.0007 -0.0790
42017W        W84930   1.711   7.186   8.777  0.1754 -0.0268 -0.0368
42018W        W84931  27.671   6.140   8.131  0.0948  0.0500 -0.1281
42019W        W84932  32.706   7.388  24.911 -0.1087  0.1000 -0.1567
42020W        W84933   3.733   0.591  10.646  0.1251 -0.1506 -0.0096
42021W        W84934  33.497   7.026   4.193  0.1445  0.1624 -0.1316
42022W        W84935   2.979  12.504  10.840  0.1498  0.2822 -0.0038
42023W        W84936  33.899  12.643   7.747  0.0529  0.1535  0.1279
42024W        W84937  30.306  16.946   9.998  0.0536 -0.0405 -0.1085
42025W        W84938  20.338   6.679   6.915 -0.0489 -0.0116  0.1839
42026W        W84939  25.511   1.963   4.699  0.0268  0.1002  0.2749
42027W        W84940  32.511  12.833   9.774 -0.1165  0.4376 -0.2079
42028W        W84941  10.552   2.635   9.668 -0.0083  0.2124 -0.2581
42029W        W84942  18.582   3.945  27.991  0.0520  0.0082  0.0084
42030W        W84943  21.884   8.453   2.287  0.2186  0.2189  0.1937
42031W        W84944  32.659  11.507   6.840 -0.0268 -0.1347 -0.2444
42032W        W84945   0.150   2.418   2.544 -0.0850  0.4424  0.1307
42033W        W84946  32.525  27.886   7.350 -0.0530  0.0337 -0.0531
42034W        W84947  13.296   3.620  24.230 -0.2051  0.1317 -0.2103
42035W        W84948   5.904  18.230   6.049 -0.1611  0.0662  0.4004
42036W        W84949  25.276   3.250   3.031 -0.0990  0.1604 -0.1095
42037W        W84950   3.298  10.542   4.838  0.1741  0.0131 -0.0255
42038W        W84951  33.181   7.218   7.235  0.0866 -0.0054  0.0207
42039W        W84952   4.582   7.750   7.008  0.1673  0.2296 -0.0691
42040W        W84953  34.416   4.643   7.459 -0.3782 -0.1746  0.0260
42041W        W84954  33.271  32.263   8.372 -0.1585 -0.0129 -0.1633
42042W        W84955  27.520  34.203   1.179  0.1926  0.0945  0.0044
42043W        W84956  24.525  10.904  28.479  0.0496  0.1751 -0.3129
42044W        W84957   0.656   4.312   5.554  0.0491  0.0854 -0.1155
42045W        W84958  22.007  10.566   2.090  0.0061  0.0292  0.0962
42046W        W84959  25.817  15.963   4.371 -0.0889  0.2067 -0.4421
42047W        W84960  24.230  33.738   8.388 -0.0770 -0.0207 -0.3977
42048W        W84961  23.486  27.411   1.239  0.0171 -0.2832  0.1339
42049W        W84962  22.201   1.056   7.611  0.2737 -0.1922 -0.2173
42050W        W84963   2.251   0.909   3.868 -0.0184  0.0077  0.2583
42051W        W84964  18.199  30.374  28.683  0.1010 -0.1524  0.2698
42052W        W84965   4.110  32.394   2.178 -0.0082  0.0650  0.0588
42053W        W84966  31.956  10.955   3.259  0.0772 -0.1437 -0.0328
42054W        W84967   3.487  11.560  11.221  0.0619 -0.1525  0.5668
42055W        W84968  28.971  29.656   3.712  0.1578 -0.1298  0.4478
42056W        W84969   0.149  11.237   5.884 -0.0563  0.0555  0.0334
42057W        W84970   4.388   5.048   7.013  0.0401 -0.0551 -0.1895
42058W        W84971   0.437   6.001   5.787  0.0198 -0.1819 -0.0418
42059W        W84972  30.931  18.303   6.364  0.1624 -0.1646  0.2723
42060W        W84973  25.178  10.044   8.943  0.1895  0.2312  0.1419
42061W        W84974   0.031  11.863   9.622 -0.0466 -0.0462  0.1888
42062W        W84975   3.347  15.645   3.061 -0.0822 -0.0046  0.0806
42063W        W84976  32.307   3.397   0.267 -0.0767  0.0274 -0.0851
42064W        W84977  33.843  33.432   4.022  0.1058 -0.0681  0.0421
42065W        W84978  29.239   2.068   6.304 -0.0724  0.1037  0.0107
42066W        W84979  29.862  33.098   8.544 -0.0764  0.0860  0.1960
42067W        W84980  20.748  12.098   4.368  0.0099 -0.0681 -0.0457
42068W        W84981  24.742  12.409   1.510  0.4679  0.0410 -0.1740
42069W        W84982  30.826   2.950   6.376  0.2101 -0.1330 -0.0583
42070W        W84983  33.128  13.048   1.994  0.1253 -0.0545 -0.0414
42071W        W84984   0.190  15.967   9.217 -0.2481  0.0164  0.1727
42072W        W84985   6.285  28.091  10.204  0.0338 -0.0472 -0.1320
42073W        W84986   1.637   6.842  11.237  0.4811 -0.1290 -0.0805
42074W        W84987  10.340   7.532   1.116 -0.0310 -0.2260  0.3975
42075W        W84988  23.501  12.148   8.537 -0.0547 -0.2426 -0.0719
42076W        W84989  34.361   2.330  11.305  0.0721  0.1594  0.2620
42077W        W84990  31.549  10.570   8.214 -0.0254  0.0509 -0.1598
42078W        W84991  29.382   4.187   5.528  0.2633 -0.2062  0.1192
42079W        W84992  24.825  14.316   4.485 -0.1369  0.0990  0.0688
42080W        W84993  30.971  11.348   8.128 -0.2015 -0.0069  0.0302
42081W        W84994  20.253   6.921  29.537  0.0023  0.2701 -0.0440
42082W        W84995  26.874   2.232  10.016  0.0636  0.2571  0.0935
42083W        W84996   3.297   7.905  10.171 -0.2286 -0.2303 -0.1109
42084W        W84997  34.224   5.327  10.689  0.0471 -0.3305 -0.0216
42085W        W84998   2.026   3.956  23.339 -0.0465 -0.0053 -0.1483
42086W        W84999   2.145  13.604   9.241  0.0108 -0.3529  0.0838
42087W        W85000   7.085   7.880   8.760 -0.0351  0.0996  0.0386
42088W        W85001  29.298  16.377  10.454  0.0127  0.2415 -0.1524
42089W        W85002   5.801   2.662   8.729 -0.5040 -0.2395  0.0409
42090W        W85003  21.513   5.632   1.964  0.0370 -0.1542  0.0845
42091W        W85004  29.909   3.520   2.808  0.1008 -0.0829 -0.2234
42092W        W85005  32.683   5.750   9.650 -0.0772 -0.0615 -0.1078
42093W        W85006  33.898  34.117   8.418 -0.0104  0.0489 -0.1304
42094W        W85007  22.561   1.117   4.987 -0.0497 -0.4059 -0.1530
42095W        W85008  31.419  31.046  27.087 -0.0494  0.0896 -0.1252
42096W        W85009  25.126  11.132  26.218 -0.0939 -0.2346 -0.1146
42097W        W85010  30.107  12.038   6.389 -0.0434  0.0356 -0.0430
42098W        W85011   3.026  32.718  25.488 -0.1531  0.1265  0.1004
42099W        W85012  30.986   4.820   7.184 -0.2412 -0.0359  0.1912
42100W        W85013  11.969  12.006   7.777  0.0479 -0.1601 -0.0474
42101W        W85014  22.368  18.140  29.251 -0.1694  0.3358  0.0513
42102W        W85015   4.784   5.918   9.768 -0.3530 -0.2078 -0.0840
42103W        W85016   1.131  16.479   0.478  0.4288 -0.0476  0.1953
42104W        W85017   2.036   4.091   8.697 -0.0842  0.1884 -0.0080
42105W        W85018  33.038   4.860  28.064  0.0180  0.2053 -0.2195
42106W        W85019  25.837  14.245   1.716 -0.1393  0.0249 -0.0293
42107W        W85020  31.001   9.186   2.421 -0.1385  0.0028 -0.2496
42108W        W85021   2.454  12.801   6.275 -0.1490 -0.0653 -0.3575
42109W        W85022  29.521   6.109  22.700 -0.0628  0.0984  0.1719
42110W        W85023  28.141   7.772   8.533  0.2283  0.0466  0.0058
42111W        W85024  29.364   5.078   2.260  0.0628  0.1715 -0.3053
42112W        W85025   5.336   8.845   8.952 -0.1513  0.1135  0.0973
42113W        W85026  34.213   9.660   3.580  0.0983 -0.0738 -0.0599
42114W        W85027  32.590   2.925  10.013  0.0335  0.1519 -0.1778
42115W        W85028  25.325  29.199  24.075  0.0633  0.4310 -0.0003
42116W        W85029  11.032   6.830  11.101  0.0101  0.1255  0.2656
42117W        W85030  24.267  12.858  29.751  0.1554 -0.0877  0.0373
42118W        W85031  26.060  12.218   5.623  0.0567 -0.0137  0.0294
42119W        W85032  26.170   5.327  28.352 -0.1848  0.1713  0.2229
42120W        W85033   3.001   8.086   4.080  0.1922  0.0827 -0.1745
42121W        W85034   0.966   4.202   0.527  0.2264 -0.0796 -0.0182
42122W        W85035  26.332   0.050   6.050  0.1587  0.1899 -0.1703
42123W        W85036  29.318  31.980   4.512 -0.0348  0.0948 -0.0331
42124W        W85037  28.766  34.172   8.220 -0.0044 -0.0452  0.4672
42125W        W85038  22.722   4.853  26.324 -0.1901  0.0625 -0.3276
42126W        W85039  30.725   9.748   6.372 -0.0436 -0.1689  0.3748
42127W        W85040  33.218  13.976   9.473  0.0171 -0.0908  0.2273
42128W        W85041  32.814  16.333  27.474 -0.0796  0.1265  0.0620
42129W        W85042  22.021  17.984  24.326  0.1157  0.1576  0.1924
42130W        W85043  28.127   5.631   2.855 -0.0425  0.1103  0.0559
42131W        W85044  30.968  14.308   8.439  0.0790  0.2317  0.0356
42132W        W85045  33.536   6.693   9.314 -0.0410 -0.1978  0.0068
42133W        W85046   1.446   9.999   9.184  0.0229 -0.2640 -0.0946
42134W        W85047   2.020   4.807   3.875 -0.1270 -0.1672  0.1272
42135W        W85048   8.800  12.629  25.564  0.1939  0.0344 -0.1981
42136W        W85049  32.677  33.165   9.473 -0.0005 -0.0713 -0.3505
42137W        W85050  31.917   7.393  25.895  0.3319 -0.1395  0.1394
42138W        W85051   1.703   3.021  10.484 -0.0613 -0.0844 -0.2366
42139W        W85052   5.088   5.118   8.209  0.2006  0.2546  0.1291
42140W        W85053  28.661  12.270  27.700 -0.1345 -0.2303  0.2089
42141W        W85054  19.269  13.229   1.353 -0.0291  0.0730  0.1522
42142W        W85055  31.261   6.907  27.932 -0.3671 -0.0829 -0.2239
42143W        W85056  17.296  13.850   7.531  0.2943 -0.1627  0.2923
42144W        W85057  30.678   6.699  10.524  0.2337  0.2721 -0.0060
42145W        W85058  33.116  18.115   6.766  0.0010  0.3428  0.0236
42146W        W85059  34.251   5.376  11.506 -0.0518  0.0204 -0.0125
42147W        W85060  16.095  13.279  24.336 -0.2156  0.1301  0.0834
42148W        W85061  27.815  14.479  28.999  0.1112 -0.1747  0.0750
42149W        W85062  33.421  25.586   4.594 -0.0950 -0.1899 -0.0439
42150W        W85063  19.640  30.702   1.126 -0.0265  0.1330 -0.0085
42151W        W85064  30.779  10.960   3.602 -0.2065  0.3316  0.0978
42152W        W85065  31.481  14.720   8.752  0.0359 -0.0957  0.1992
42153W        W85066  31.373   8.010   3.423 -0.0321  0.0953  0.0720
42154W        W85067   4.665   3.455   8.974  0.2086 -0.0307  0.2812
42155W        W85068  30.738   7.397   6.107  0.2201 -0.0709 -0.2176
42156W        W85069  32.439   9.531   3.216  0.1257  0.0589 -0.0751
42157W        W85070   0.406   6.656   8.053 -0.0547  0.0305 -0.0101
42158W        W85071  28.758   1.590   9.521 -0.1574  0.2640 -0.0103
42159W        W85072  33.746   4.105  12.456  0.0824  0.1120  0.3134
42160W        W85073  30.250   1.809   2.377  0.0258  0.2704  0.1303
42161W        W85074  33.847   9.981   5.536  0.1791  0.0141 -0.1569
42162W        W85075  32.139  12.488  28.138 -0.0303 -0.1875 -0.0868
42163W        W85076  16.601  11.763   5.048  0.2148  0.2126  0.2433
42164W        W85077   3.333   4.272  12.015  0.6447 -0.0353 -0.0629
42165W        W85078  27.385   3.455  28.449  0.1574 -0.1102 -0.4337
42166W        W85079  21.272   4.442   4.374  0.3800  0.2127  0.1691
42167W        W85080   8.678  31.064   7.773  0.0754  0.0980  0.4531
42168W        W85081   1.081   7.313  25.534 -0.2444 -0.0548  0.1704
42169W        W85082  25.176   4.602   0.393  0.0782 -0.2171 -0.0453
42170W        W85083  31.834   3.130   7.417  0.1119 -0.0961  0.1871
42171W        W85084  33.751   1.190   7.552  0.0332 -0.0435 -0.1821
42172W        W85085   0.670  33.585   6.898  0.0553 -0.0727  0.2808
42173W        W85086   4.965   0.605   1.520 -0.1456 -0.0932 -0.0889
42174W        W85087  29.923   8.065   6.914 -0.0265  0.2580  0.0449
42175W        W85088   0.769   0.582  28.782  0.0025 -0.0960  0.0250
42176W        W85089  23.571  16.938   6.618 -0.1225 -0.2667 -0.1928
42177W        W85090  30.726   5.954   2.315 -0.0398  0.1638  0.1414
42178W        W85091   5.321   8.657  11.205  0.2002  0.1469  0.0370
42179W        W85092   2.895   3.807   0.181  0.0603  0.1302 -0.3352
42180W        W85093   7.145   7.731  28.412 -0.3272 -0.1820 -0.1012
42181W        W85094   6.985  12.131   7.581 -0.0226 -0.1214 -0.1813
42182W        W85095   2.885   8.158   6.004 -0.1600  0.0886  0.0969
42183W        W85096  30.541   8.614   7.883  0.2413  0.0885 -0.2037
42184W        W85097   1.228   4.702  29.606  0.0197 -0.1635 -0.2434
42185W        W85098  33.606   2.947   8.621  0.2454 -0.3625  0.0425
42186W        W85099  33.121   5.432   4.998  0.1302 -0.3479  0.0550
42187W        W85100  27.179   4.422   7.134 -0.1913 -0.0098 -0.1394
42188W        W85101  32.809   6.828   4.883 -0.0526 -0.0452  0.0453
42189W        W85102  30.905   4.774   9.364  0.0968  0.0357  0.2197
42190W        W85103  33.546   6.607  28.882 -0.0416 -0.0812  0.3198
42191W        W85104  18.177  34.469   7.226  0.1227  0.0979 -0.0744
42192W        W85105  30.781  11.429   0.438 -0.0791 -0.1636  0.0216
42193W        W85106   5.319   1.010   8.347 -0.0562 -0.0507  0.1201
42194W        W85107  22.363   9.598   3.652 -0.2020 -0.0463 -0.0356
42195W        W85108  21.978  11.560   1.765 -0.2751 -0.2204  0.3862
42196W        W85109  22.566  31.180   0.251  0.0414  0.1474 -0.1471
42197W        W85110  28.055   7.814   7.306 -0.3418 -0.2957 -0.2614
42198W        W85111  34.153   2.772  29.319 -0.1258  0.1292  0.0006
42199W        W85112  25.758  11.737  27.375  0.0452 -0.1117 -0.1755
42200W        W85113  31.960   8.028   9.032  0.0738 -0.2949 -0.0858
42201W        W85114  31.655   5.295  29.026 -0.1163 -0.1615 -0.1733
42202W        W85115  28.820   5.842  10.092 -0.0790 -0.3655  0.1650
42203W        W85116  29.864   5.262   7.676  0.0900 -0.2168 -0.1274
42204W        W85117  31.113  10.001   2.756  0.1876 -0.1212 -0.2649
42205W        W85118  33.176  15.406   3.557 -0.0626  0.1755 -0.0764
42206W        W85119  32.790   1.732   5.906  0.3294 -0.1840 -0.2523
42207W        W85120   5.343  26.143  28.427 -0.1508  0.2963 -0.3162
42208W        W85121   4.063  19.266   8.816  0.0488 -0.0579  0.1897
42209W        W85122  24.665   8.352  23.854  0.1480  0.0358  0.0077
42210W        W85123  21.878   0.958   1.348 -0.2087 -0.2788 -0.1233
42211W        W85124  17.795   0.759   5.222 -0.1895  0.2088 -0.0634
42212W        W85125  32.263   7.303  26.398  0.0056  0.1532  0.0129
42213W        W85126   1.588  11.282   0.397 -0.0336 -0.4115 -0.0468
42214W        W85127  29.801   9.800   3.014  0.3012  0.2117  0.1712
42215W        W85128   1.931   6.809  10.797  0.1796 -0.5416  0.1491
42216W        W85129  28.362  10.689   6.520 -0.1829  0.0847 -0.3019
42217W        W85130  27.322  11.686   4.678 -0.0247  0.0859  0.0437
42218W        W85131  33.213  32.477   4.202  0.0192 -0.0424 -0.0185
42219W        W85132  21.067  27.021   4.164  0.1345  0.0112  0.2137
42220W        W85133  14.586   8.631   8.100 -0.2229  0.0817  0.0938
42221W        W85134  28.768  20.126  29.272  0.1940 -0.0847 -0.0486
42222W        W85135  19.587  31.343   2.727  0.2082 -0.1042 -0.1547
42223W        W85136   1.379   9.356   1.183 -0.1818 -0.1598  0.0299
42224W        W85137  28.008   0.687   2.933  0.2081  0.1935  0.0365
42225W        W85138  26.830  15.841   8.323  0.2992 -0.1945  0.2637
42226W        W85139  30.653   6.264   8.879  0.1029  0.1981 -0.2276
42227W        W85140  28.312   2.946   5.101 -0.0526 -0.1691  0.0989
42228W        W85141  32.472  13.724   3.625  0.1404 -0.1069 -0.0827
42229W        W85142  28.784   6.576   7.185 -0.0534  0.2061 -0.0999
42230W        W85143   9.391   4.940   9.078 -0.0880 -0.1221 -0.0366
42231W        W85144   6.167  31.194   0.358  0.0891  0.1165 -0.1292
42232W        W85145  10.381  31.243  28.693 -0.1492  0.0321  0.2173
42233W        W85146   0.511  10.303   8.052  0.1860  0.2756 -0.2609
42234W        W85147   1.161  31.006   6.868 -0.0920  0.1801  0.0919
42235W        W85148   4.500  14.379  28.658  0.1727 -0.1615 -0.4997
42236W        W85149  30.189   4.473   8.172 -0.0919 -0.1149 -0.0348
42237W        W85150  29.639   3.847  23.772  0.0234  0.1839  0.1911
42238W        W85151  14.487   1.026  29.144  0.1012  0.0864 -0.1245
42239W        W85152   1.484   0.614   4.211  0.2906  0.0190  0.0760
42240W        W85153   9.234  11.205   8.347  0.0071 -0.1884 -0.1090
42241W        W85154  33.739  33.836  10.019  0.0122 -0.0527 -0.4495
42242W        W85155  26.375  10.352   6.372 -0.2969  0.1876 -0.1553
42243W        W85156  22.057   5.087   9.574 -0.1473  0.0562 -0.1403
42244W        W85157  22.538  33.753   7.150 -0.2760 -0.0489 -0.0067
42245W        W85158   0.908   8.544  11.089  0.0534 -0.1605  0.1825
42246W        W85159  25.254   3.920   2.492 -0.0989 -0.3888 -0.1133
42247W        W85160  33.283   6.483   6.723  0.2086  0.4688 -0.3960
42248W        W85161  31.826   8.646  10.915  0.2418  0.1416 -0.4679
42249W        W85162   3.091  13.208   5.269 -0.3151  0.5960  0.2420
42250W        W85163   0.517  11.153  28.672 -0.1343 -0.0477  0.0531
42251W        W85164  30.479   7.475   6.560  0.1290 -0.2122  0.0955
42252W        W85165   9.391   8.398  12.770 -0.2269  0.0347  0.1810
42253W        W85166   2.046  26.707   9.226 -0.0435 -0.0046  0.1060
42254W        W85167   2.412  26.837   9.548  0.0002  0.0256 -0.4449
42255W        W85168  28.111  14.718   6.793  0.1700 -0.3266  0.2700
42256W        W85169   7.806   1.561   8.234  0.2241 -0.3392 -0.1571
42257W        W85170  31.441   0.051   8.458 -0.1384  0.2897 -0.0537
42258W        W85171  12.594   8.047   2.344  0.0813 -0.0103 -0.0539
42259W        W85172   1.916   1.836   7.355  0.1482 -0.1584 -0.0428
42260W        W85173  28.179  11.542   0.218 -0.0647 -0.2454  0.3993
42261W        W85174  30.865  34.418   5.226  0.0755  0.3742  0.0299
42262W        W85175  20.603  14.795   4.904 -0.0160  0.0154 -0.0057
42263W        W85176  34.021   4.104  12.859 -0.0570  0.0864 -0.1721
42264W        W85177   1.660   4.315  29.391  0.1166  0.0614  0.0161
42265W        W85178  30.513   9.179   2.545 -0.0500  0.0328  0.2489
42266W        W85179  29.189  34.453  29.660  0.0608 -0.0823  0.3728
42267W        W85180   1.611  12.562   9.803  0.0043 -0.1247 -0.2635
42268W        W85181   0.105  30.605   8.865  0.0034 -0.3089 -0.2015
42269W        W85182  27.125  14.202   9.452  0.4650  0.1403 -0.0757
42270W        W85183   0.983  11.113   2.606  0.0253  0.1814 -0.2469
42271W        W85184  29.523  34.361   6.980  0.1092 -0.0130 -0.1009
42272W        W85185  21.965  15.822   5.728 -0.0801 -0.2611  0.2790
42273W        W85186   8.500   0.783  11.860 -0.0694 -0.1725  0.0515
42274W        W85187   4.697   7.559  13.534 -0.1096  0.2749  0.3063
42275W        W85188   0.050   4.852   6.941  0.1400  0.0826 -0.0315
42276W        W85189   8.626  12.687   3.748  0.0431 -0.1823 -0.0263
42277W        W85190  31.865   4.307   2.078  0.4185  0.1608  0.1926
42278W        W85191   6.029   2.944   8.448 -0.1356  0.0580 -0.0535
42279W        W85192   2.808   4.156  12.847  0.1280 -0.5110 -0.0314
42280W        W85193   3.650   9.900   8.112 -0.0744  0.2944 -0.3193
42281W        W85194   2.415   3.250   9.833 -0.3690  0.0441  0.0190
42282W        W85195  29.581   9.991  28.514 -0.2712 -0.2361  0.0126
42283W        W85196  31.657   7.852   8.126  0.0892 -0.1388  0.0100
42284W        W85197  32.884   0.617  11.067 -0.2150 -0.0215  0.1281
42285W        W85198  30.337  11.411   8.581 -0.0157 -0.1789  0.0655
42286W        W85199  26.496  31.132   6.492  0.2339 -0.0998 -0.0301
42287W        W85200  31.111   1.840  10.687  0.2077  0.4140  0.1310
42288W        W85201   8.024  14.773   9.316 -0.1629  0.1809 -0.1258
42289W        W85202   2.312   8.704   4.491  0.0599 -0.0537  0.2527
42290W        W85203   2.597  14.100  10.615 -0.0529 -0.2354  0.0181
42291W        W85204  12.187  15.405   2.374 -0.0267  0.0405  0.0090
42292W        W85205  26.326   2.864   8.033 -0.1913 -0.0086  0.0570
42293W        W85206  28.641   2.961   8.462  0.2024 -0.0636 -0.0424
42294W        W85207  34.214   3.384   9.108  0.4981  0.3745 -0.2980
42295W        W85208  26.019  32.743  28.925  0.1406 -0.3610  0.1909
42296W        W85209  31.212   4.400   9.985  0.0306 -0.0242  0.0161
42297W        W85210  26.888   9.352   7.933 -0.3456  0.2683  0.0574
42298W        W85211  26.513  33.161   6.946  0.1991 -0.1087 -0.2773
42299W        W85212   1.349  15.468  20.999 -0.2631  0.1642 -0.0501
42300W        W85213  28.310   4.978   4.170  0.1319  0.0126 -0.0545
42301W        W85214   1.674   1.706   5.988 -0.0458  0.0764 -0.0079
42302W        W85215  31.999   4.798   4.523  0.1462  0.0364 -0.0631
42303W        W85216  34.083  11.760   9.410 -0.0916 -0.3170 -0.1876
42304W        W85217   8.079  32.395  10.904  0.3008 -0.3448 -0.0968
42305W        W85218  26.779  15.403   3.648 -0.0690  0.1078 -0.0961
42306W        W85219  26.137  12.138   8.936  0.3595  0.2852  0.3350
42307W        W85220  20.585  28.558   3.782  0.1674 -0.3973 -0.0376
42308W        W85221   5.152  10.675  10.814 -0.2437  0.2105  0.0577
42309W        W85222   3.197   2.585  10.224 -0.6130 -0.2309  0.0435
42310W        W85223  22.249  13.261  24.526  0.1154  0.0330  0.0870
42311W        W85224   3.271  31.292  28.210  0.4215 -0.0689  0.0019
42312W        W85225  24.262   2.972   4.875 -0.1896  0.2343  0.1403
42313W        W85226  29.565   5.776   6.890 -0.0414 -0.2803  0.2256
42314W        W85227  28.926   9.097   5.808  0.0394  0.1012  0.0571
42315W        W85228   3.529   6.741   7.790  0.2875 -0.1808  0.0576
42316W        W85229  33.192   5.364   9.284  0.1156 -0.0949 -0.1182
42317W        W85230  28.125   7.992   9.442 -0.0119 -0.0609 -0.2865
42318W        W85231   0.698  10.848   6.503 -0.1654  0.3068  0.0473
42319W        W85232   8.468   9.797   2.693  0.0425 -0.0284  0.4049
42320W        W85233  26.786  20.002   2.492  0.0947 -0.2990 -0.0557
42321W        W85234  21.403  13.057   4.429 -0.2790  0.1157 -0.2687
42322W        W85235   7.135   6.222   8.579 -0.1722  0.0345 -0.3011
42323W        W85236  32.493   2.983   7.213  0.1470  0.0847 -0.0961
42324W        W85237   1.701   6.686  12.757  0.0908  0.1486 -0.1103
42325W        W85238  28.524   9.720   7.084 -0.0650  0.0211 -0.1970
42326W        W85239  18.637  32.792   7.811  0.3020 -0.0839  0.2421
42327W        W85240   7.626   7.341  12.367  0.0367  0.1252  0.1806
42328W        W85241   2.967   9.376   7.644  0.1659  0.0213 -0.2792
42329W        W85242  29.983  20.077   6.843 -0.0551 -0.0649  0.1549
42330W        W85243  28.545   9.772   9.795 -0.1860  0.1683  0.4640
42331W        W85244   0.599  13.049  28.961 -0.0787  0.1225  0.5300
42332W        W85245   6.623   8.984  11.579  0.0808 -0.1369  0.0655
42333W        W85246   1.425   5.984  12.224 -0.1309  0.1140  0.0277
42334W        W85247   5.469   6.403  10.969  0.0062 -0.1968  0.0222
42335W        W85248   6.257   1.718   5.467  0.0871 -0.2032  0.0277
42336W        W85249  32.547   3.968  10.735 -0.0113  0.0194  0.0539
42337W        W85250  26.695  16.087   5.059  0.0151 -0.0693  0.0574
42338W        W85251  24.583  22.772   4.181 -0.2233 -0.0205 -0.1722
42339W        W85252  33.491  13.223  29.344  0.2005  0.0635  0.0995
42340W        W85253   2.698   6.435  11.944  0.3348  0.2025 -0.2048
42341W        W85254  34.004  33.461  10.341  0.2212  0.1676 -0.1555
42342W        W85255  31.117   9.462  10.532 -0.0739  0.0843 -0.1427
42343W        W85256   1.266   5.445  13.256  0.0080  0.1450  0.0378
42344W        W85257   4.344   5.507   4.294 -0.2766 -0.1033 -0.3380
42345W        W85258  14.178  31.911   4.810  0.5257  0.3328 -0.0334
42346W        W85259  29.678  27.812  28.248 -0.3186  0.0688 -0.1562
42347W        W85260   4.514   6.897   8.581  0.0407 -0.0236 -0.0677
42348W        W85261   2.112   5.965  10.081 -0.0874 -0.1926 -0.0335
42349W        W85262   1.056  12.674   0.056 -0.2280 -0.2567  0.2386
42350W        W85263   6.355   3.765   8.866 -0.0934 -0.1860 -0.0211
42351W        W85264  27.864  10.830   1.800 -0.1939 -0.1827  0.0997
42352W        W85265  34.027   3.267   7.310 -0.2457 -0.0437  0.1691
42353W        W85266   1.895   1.359  11.317  0.0378 -0.1367 -0.1857
42354W        W85267   2.450   6.611   1.484 -0.1249 -0.2495 -0.2262
42355W        W85268  33.162  10.476  28.455 -0.0405  0.0345 -0.1384
42356W        W85269  32.806   8.775   9.861 -0.1409  0.0388 -0.1990
42357W        W85270  34.439  15.449   8.557 -0.0923  0.0710 -0.0656
42358W        W85271   1.396  33.770   7.380  0.0357  0.0014 -0.0398
42359W        W85272  32.776   8.907  10.746  0.0898  0.0938 -0.0842
42360W        W85273  33.381  31.802   5.132  0.2212  0.2214 -0.1004
42361W        W85274  24.184   9.273   5.377 -0.1833  0.1307 -0.0465
42362W        W85275   2.671   4.890   7.653  0.2985 -0.3593  0.1268
42363W        W85276   2.628   1.203  11.628 -0.0057  0.0445  0.1348
42364W        W85277   4.962   5.596   2.180  0.1770  0.1472 -0.2308
42365W        W85278  29.530   8.811   9.591 -0.0440  0.0126 -0.0990
42366W        W85279   4.600   7.103  11.897  0.1969 -0.1128  0.1450
42367W        W85280  29.513   3.818   9.828 -0.1703 -0.5833  0.1924
42368W        W85281  31.141   3.960   9.207  0.0298 -0.0694  0.2253
42369W        W85282   1.224   4.080  11.588  0.3255  0.0671  0.1471
42370W        W85283  24.075   4.463   3.801  0.1497  0.1155 -0.1416
42371W        W85284  33.196  16.970   4.920  0.1100 -0.0783  0.2049
42372W        W85285   3.232   3.272  28.438  0.0732  0.0946  0.0767
42373W        W85286  29.964  11.527   3.154 -0.5235  0.0656 -0.1844
42374W        W85287   3.726  10.518   9.790 -0.1776  0.0998  0.1311
42375W        W85288  28.150  33.136   7.988 -0.0375 -0.1758  0.1884
42376W        W85289   8.655   3.582   7.223  0.1233 -0.1586 -0.1503
42377W        W85290  30.825  11.571   6.175 -0.0055  0.0747 -0.3779
42378W        W85291  33.806  11.080   8.706 -0.1234 -0.0028  0.0102
42379W        W85292  27.653   8.100   6.453 -0.1107 -0.2285  0.1446
42380W        W85293   6.611  14.168   4.885 -0.1632  0.1401 -0.0811
42381W        W85294  11.848  25.104  28.322  0.0532 -0.0297 -0.0200
42382W        W85295  29.479   6.576   1.945 -0.0038  0.2954  0.1022
42383W        W85296  31.804  11.370   7.486  0.0365  0.2963  0.0475
42384W        W85297   7.390   2.165   9.423 -0.0789 -0.1136 -0.1086
42385W        W85298   9.243   9.253  27.627  0.1010  0.0790 -0.1437
42386W        W85299  29.794  32.097   3.068  0.1260 -0.0732 -0.0574
42387W        W85300   2.671   8.396   4.285  0.0082  0.2466  0.1462
42388W        W85301  27.805  22.730   8.329 -0.0371 -0.0473 -0.1644
42389W        W85302  27.511  11.208   7.367 -0.0714  0.2144  0.0374
42390W        W85303   4.682   9.522  11.283  0.2749  0.1846  0.1505
42391W        W85304  28.285   5.704   8.284  0.0315  0.0532 -0.1037
42392W        W85305   1.686   6.592  28.495 -0.1552  0.2855 -0.2630
42393W        W85306  30.271  11.468   5.110 -0.2072  0.0429  0.2095
42394W        W85307  25.734  33.929   7.881  0.1195  0.3036  0.3098
42395W        W85308  26.766   9.849   5.819 -0.3969  0.2510  0.3887
42396W        W85309   1.024   7.043   7.490  0.1412  0.2562 -0.0835
42397W        W85310  30.994  13.779   4.081  0.4254  0.1670  0.3812
42398W        W85311   3.550   9.063   4.771 -0.1488 -0.0040 -0.1205
42399W        W85312   1.728   7.293   2.003 -0.0507 -0.0286 -0.1038
42400W        W85313  29.732   6.616  10.721 -0.0355  0.1757 -0.1121
42401W        W85314  23.983   3.749  29.094 -0.2857  0.2010  0.0565
42402W        W85315   6.062   2.379  29.403  0.0921 -0.1130 -0.2055
42403W        W85316   7.160   1.168  10.262 -0.0467  0.2234 -0.0865
42404W        W85317  30.511  14.339  26.635  0.1977 -0.3020 -0.1578
42405W        W85318  32.560  31.224   7.681  0.0411 -0.0835 -0.0483
42406W        W85319   6.096   2.484   6.873  0.1855  0.3259  0.0423
42407W        W85320  33.267   5.820  16.382 -0.0340  0.5211  0.0719
42408W        W85321  32.097   8.410   7.948  0.0668  0.1321 -0.1727
42409W        W85322   4.616   3.793  12.448 -0.1464  0.4552 -0.0123
42410W        W85323   2.145  12.911   1.225 -0.1965  0.1317  0.0891
42411W        W85324   9.724   0.379  11.871  0.2415  0.2627  0.0925
42412W        W85325  34.389   4.032   1.603 -0.2141  0.2358 -0.0357
42413W        W85326  28.942   4.036   7.041  0.2153  0.1630 -0.0747
42414W        W85327   2.709  33.786  26.725  0.1140  0.0080 -0.0706
42415W        W85328  32.382  32.030   9.121  0.0958  0.1024  0.0609
42416W        W85329  29.513   0.414  10.038 -0.0678 -0.1272  0.0271
42417W        W85330   3.351   8.638  28.796  0.1241  0.1035  0.0470
42418W        W85331  30.902   3.124   5.902 -0.3116  0.0391  0.2232
42419W        W85332  29.119  10.261   0.780  0.0937  0.0172  0.0201
42420W        W85333  27.046  29.806   4.625 -0.0290 -0.2287 -0.1856
42421W        W85334   6.325  34.195   7.595  0.0903 -0.2994  0.2830
42422W        W85335  26.673   1.884   3.286  0.1049 -0.3195 -0.1065
42423W        W85336   1.133   8.032   8.072 -0.1755  0.2305 -0.1123
42424W        W85337  32.229   2.218   8.581 -0.0190 -0.0915  0.0708
42425W        W85338  32.963  31.864   8.327  0.0070  0.1329  0.1249
42426W        W85339  19.790   8.402   9.644 -0.0744  0.0249 -0.1264
42427W        W85340  20.613   6.808  27.503 -0.1288 -0.3214  0.3558
42428W        W85341   0.965  10.651  11.460 -0.0094 -0.0135  0.2881
42429W        W85342   0.635   6.712   9.727  0.2269  0.0260 -0.1063
42430W        W85343   5.876   6.993  12.910 -0.4021 -0.2463 -0.3044
42431W        W85344   5.680   0.960   2.187  0.0292 -0.2043 -0.0330
42432W        W85345   6.699  30.570  10.463  0.0615 -0.1906  0.0905
42433W        W85346   0.078  31.380   4.880  0.0029  0.0101 -0.2751
42434W        W85347  24.177  17.417   3.753  0.1599  0.1347  0.2268
42435W        W85348  23.673  11.117  23.253  0.0633  0.0805 -0.0485
42436W        W85349  28.031  16.464   9.955 -0.0084 -0.1132 -0.2370
42437W        W85350  29.735  11.421   8.817 -0.3049 -0.2409 -0.0369
42438W        W85351  22.609   2.248   5.633 -0.1741  0.0521  0.0684
42439W        W85352  31.477  32.455   9.049 -0.0560  0.3581  0.2888
42440W        W85353   5.811   1.345  11.863  0.3312 -0.0062  0.0828
42441W        W85354   1.926  11.417   5.742  0.1552  0.0863 -0.3894
42442W        W85355  26.464   9.788   3.740  0.1710 -0.3436 -0.2958
42443W        W85356   3.200   2.595  29.417 -0.1314  0.0681 -0.1146
42444W        W85357  30.304   3.323   7.786 -0.0130 -0.0575 -0.2140
42445W        W85358   2.213  29.280   4.503 -0.3112  0.0534 -0.0078
42446W        W85359  28.100   4.912  27.751  0.0051  0.2000 -0.0098
42447W        W85360  24.592   7.280  26.712  0.0230  0.0521  0.2775
42448W        W85361   0.012  11.503   6.280 -0.1433 -0.2454  0.0201
42449W        W85362  32.357   5.702   8.802  0.1408  0.3341 -0.0534
42450W        W85363   0.552   8.073   8.036  0.0545 -0.1165 -0.0521
42451W        W85364  34.306   7.036   0.011  0.0900  0.0590 -0.2926
42452W        W85365   2.079   4.544  11.451 -0.2184  0.1369 -0.0947
42453W        W85366  32.983  21.978   4.853 -0.2965 -0.1028  0.0053
42454W        W85367  33.194   1.301   4.888 -0.0284  0.0984 -0.2376
42455W        W85368   2.164   6.996   5.602 -0.0983  0.2690  0.2380
42456W        W85369  32.136   3.873   5.724 -0.2495  0.2081 -0.0268
42457W        W85370   2.518   7.203  12.236  0.1538  0.0727  0.2868
42458W        W85371  32.565   7.584   9.011 -0.0284 -0.1506 -0.0075
42459W        W85372  31.585  11.700   6.191 -0.0146  0.3404  0.0992
42460W        W85373  29.343  10.657  10.507 -0.1691 -0.0243 -0.1413
42461W        W85374  31.374   5.612   6.338 -0.1265 -0.2115  0.0434
42462W        W85375   0.757  12.958  26.232 -0.1275 -0.2739 -0.2841
42463W        W85376  33.379   5.878   2.981 -0.0050 -0.0480 -0.0520
42464W        W85377   3.667  15.057   8.756  0.3898  0.0655  0.3091
42465W        W85378  30.776   7.498   8.701 -0.0262 -0.0954  0.0234
42466W        W85379  29.551   8.830   6.714  0.0831  0.2893  0.1801
42467W        W85380  30.077  21.650   6.867 -0.0747  0.0772 -0.1957
42468W        W85381  29.610   4.258   0.955  0.1916  0.0587 -0.7384
42469W        W85382  30.833  32.100   9.468  0.3005  0.2191  0.0863
42470W        W85383  30.371  10.298   3.964  0.0074  0.1818 -0.0236
42471W        W85384  23.004   2.350  27.881  0.4557 -0.2033  0.1173
42472W        W85385  28.246   7.304   9.473  0.0398  0.1962  0.0712
42473W        W85386  22.650  34.294   1.767  0.0569  0.1610  0.0471
42474W        W85387  25.504   8.304  25.973 -0.0243 -0.0505  0.0839
42475W        W85388  18.394  13.799   4.285  0.1313 -0.0958  0.1253
42476W        W85389   6.291   5.654   8.278  0.3471  0.2291  0.1463
42477W        W85390  33.770   6.298   6.875 -0.2500 -0.1635  0.1168
42478W        W85391  27.253  32.910   7.299 -0.0862 -0.0268 -0.0529
42479W        W85392  33.744   4.733  10.019  0.0287 -0.2470 -0.0989
42480W        W85393   2.751  11.849   8.943  0.1127  0.3095 -0.1107
42481W        W85394   5.482  12.709   0.680 -0.2122 -0.4274 -0.1891
42482W        W85395  33.366  11.611  28.876 -0.0885  0.0155 -0.0718
42483W        W85396   8.759   9.804   8.081 -0.0242  0.3053  0.0208
42484W        W85397   4.129   1.910   9.356  0.1818 -0.1173  0.2339
42485W        W85398  25.618   4.721   7.636 -0.2207 -0.1447 -0.0978
42486W        W85399  33.848  10.949   5.718 -0.1336 -0.2057 -0.0823
42487W        W85400   7.877  13.607   9.501 -0.2913 -0.1053  0.2830
42488W        W85401  24.708   5.643   6.398 -0.0271 -0.2166  0.1868
42489W        W85402  32.324  24.002  28.849 -0.1411  0.5005  0.1499
42490W        W85403  29.380  14.216   5.555  0.1147 -0.0606  0.0823
42491W        W85404   5.611   9.188   6.297 -0.1059  0.0557 -0.0671
42492W        W85405  33.747  13.409   8.118 -0.1879 -0.1519  0.1955
42493W        W85406   2.763   4.337   8.612  0.0723  0.2743 -0.0125
42494W        W85407  33.717  14.612   4.235 -0.0398  0.0277 -0.1337
42495W        W85408   2.661   4.705  12.152 -0.1860  0.1149  0.0212
42496W        W85409  34.467   9.112  26.136 -0.2120 -0.3510 -0.3755
42497W        W85410  32.233  12.236   2.298 -0.0846  0.2773 -0.2351
42498W        W85411  25.758   3.525   4.224 -0.4104 -0.4241 -0.2021
42499W        W85412  24.966  19.929   6.523  0.1834  0.1324  0.0476
42500W        W85413   0.245  34.207  11.190  0.0417 -0.2283  0.2179
42501W        W85414  24.541   7.792   2.024  0.3530  0.0296 -0.2950
42502W        W85415  32.525   2.655   9.158  0.0932 -0.0596 -0.1246
42503W        W85416  32.084  13.759   6.409  0.4750  0.0771  0.0240
42504W        W85417  34.234   9.054   8.339  0.0465 -0.1300  0.3400
42505W        W85418  28.684  11.257   7.902 -0.1941  0.1349  0.1439
42506W        W85419  22.512   3.485   0.256 -0.0539  0.0534 -0.0289
42507W        W85420   6.828   7.738   6.175  0.1095  0.3662  0.2242
42508W        W85421  30.605  12.169   8.689  0.1488  0.0976  0.0156
42509W        W85422  23.174   2.003  28.093  0.0665 -0.0522  0.2554
42510W        W85423  29.544   8.265   5.279  0.0517  0.0267 -0.0763
42511W        W85424   8.392  32.412   2.323 -0.0305 -0.0807 -0.0878
42512W        W85425  28.446   3.210   2.528  0.1258 -0.0382  0.4624
42513W        W85426  34.257   7.868  10.104 -0.1905 -0.1642  0.0217
42514W        W85427   6.851   5.870   3.457 -0.3866  0.0554 -0.0555
42515W        W85428   7.910   4.184   3.602 -0.1994  0.1034 -0.0310
42516W        W85429  27.597  30.527  10.094  0.0630  0.0447 -0.0340
42517W        W85430  33.645   2.274  12.282  0.1004 -0.0610 -0.1738
42518W        W85431  30.666  15.680   8.583 -0.2652  0.1691  0.0013
42519W        W85432   0.850   1.230  24.806 -0.2428  0.0273 -0.1781
42520W        W85433   4.462  33.915   8.577  0.0925 -0.1572 -0.0309
42521W        W85434   0.342  12.023   9.312  0.1359  0.0680 -0.2672
42522W        W85435   4.276  10.900  10.987 -0.2228  0.4208  0.0837
42523W        W85436  18.541   0.474   9.591  0.2480 -0.0351  0.0593
42524W        W85437  30.389   8.047   0.821  0.2275 -0.2245  0.1848
42525W        W85438   1.105   9.127   5.465 -0.1369  0.2227  0.0295
42526W        W85439  12.783   7.051   6.537 -0.0183 -0.2200 -0.1289
42527W        W85440  27.703  10.841   5.811  0.1961 -0.0549  0.0131
42528W        W85441   0.997   9.192   9.261  0.0034 -0.2765  0.0830
42529W        W85442   0.478  12.572  10.047 -0.2782 -0.0904 -0.0233
42530W        W85443   3.214   7.816   6.716  0.0118 -0.1111  0.1789
42531W        W85444   8.496   4.952   3.437  0.1571 -0.4747  0.2164
42532W        W85445  28.599  33.548   5.368  0.0321 -0.1351  0.0725
42533W        W85446  25.020   9.073   3.670 -0.0747 -0.2072  0.0540
42534W        W85447  19.220   9.756   8.233  0.0033 -0.0044  0.2257
42535W        W85448  32.962   5.255   8.055  0.0226 -0.2276 -0.3476
42536W        W85449  30.126   5.049   9.081 -0.0443  0.2037 -0.3340
42537W        W85450  29.538   7.911   0.282  0.0618 -0.1515  0.2472
42538W        W85451  30.430   0.407   1.053 -0.1943  0.0492 -0.2925
42539W        W85452  33.080  33.161   5.290 -0.0774  0.1760  0.0531
42540W        W85453   2.063   4.358   7.011  0.2397  0.0917  0.0066
42541W        W85454   6.854   5.079   3.734  0.1609  0.0297 -0.0648
42542W        W85455   4.328   3.376   4.065  0.1418  0.0313 -0.1826
42543W        W85456  22.688   1.718   4.215  0.2326 -0.0014 -0.2220
42544W        W85457  14.511  12.308  18.495  0.1302 -0.0704  0.3194
42545W        W85458  25.001   9.748   8.423 -0.3919 -0.0830  0.2138
42546W        W85459  26.144  15.800  16.355  0.2556 -0.0885 -0.1122
42547W        W85460  26.820   8.267   1.891  0.0937  0.1301  0.2193
42548W        W85461  28.679   4.687   8.505 -0.0338 -0.1221  0.1671
42549W        W85462  27.449  13.696   0.673  0.0984 -0.2620  0.1544
42550W        W85463  30.169  15.396   1.900  0.1358 -0.3645 -0.0995
42551W        W85464  25.149  14.835  27.262 -0.0683 -0.3404 -0.1541
42552W        W85465   0.710   0.808   6.656  0.0476  0.1550 -0.2419
42553W        W85466  26.788  13.881   0.179  0.1753 -0.0693  0.2311
42554W        W85467  26.575   5.837  27.187  0.1131  0.2236  0.0145
42555W        W85468  27.326  19.659   0.798 -0.0803  0.2077  0.1873
42556W        W85469  32.043  10.733   2.394  0.3107  0.2875  0.2444
42557W        W85470  29.379  10.118   1.442  0.1030 -0.0627  0.0072
42558W        W85471  30.551   8.049  28.213  0.2227 -0.4396 -0.0867
42559W        W85472  16.433  10.587  27.759 -0.2921 -0.1887  0.2432
42560W        W85473  29.252  14.581   5.895 -0.1119 -0.2039  0.1773
42561W        W85474  29.481  18.462  27.425 -0.0052 -0.0468 -0.2717
42562W        W85475  32.491  29.261  27.621 -0.2467  0.1584  0.0838
42563W        W85476  17.234  13.739  21.465 -0.0262 -0.0206  0.0577
42564W        W85477   0.365  11.748  22.333 -0.0285 -0.3901  0.0529
42565W        W85478   0.851   4.000  18.201  0.0176 -0.1665 -0.0844
42566W        W85479  31.133   5.182  24.903  0.0652 -0.0867  0.0706
42567W        W85480   0.911  11.427   0.967  0.1449  0.1306 -0.1798
42568W        W85481  31.105  17.352  29.477 -0.4235 -0.2748  0.1577
42569W        W85482  24.968  17.114   2.676  0.1139  0.0970  0.0189
42570W        W85483  26.122  10.392   2.534  0.3623 -0.0765  0.1943
42571W        W85484  27.518   6.538   2.949  0.1174 -0.2903 -0.0422
42572W        W85485   4.871  10.181   7.180 -0.4051 -0.1836  0.5685
42573W        W85486  21.759  13.296   0.445 -0.2749  0.0850 -0.2546
42574W        W85487  18.636  16.943  22.802 -0.0085 -0.2078  0.3063
42575W        W85488   5.200  33.136   3.221  0.0302  0.0694 -0.2164
42576W        W85489  33.515  13.753   4.239 -0.0006  0.0923  0.1278
42577W        W85490  23.895   7.512  22.994 -0.1601  0.2244 -0.1571
42578W        W85491   3.487   7.438  10.056 -0.1576 -0.2962  0.0917
42579W        W85492  31.587   4.813  26.095 -0.2264 -0.1389 -0.0442
42580W        W85493  34.460  21.638   1.876  0.1078 -0.2122  0.3439
42581W        W85494  15.844  11.511  13.644 -0.0056 -0.1640 -0.0207
42582W        W85495   5.436  19.610   8.569  0.0631 -0.1537 -0.0983
42583W        W85496  28.799  15.079  28.913  0.1390  0.2739  0.2157
42584W        W85497   4.763  13.042   9.453 -0.1083 -0.0609  0.0034
42585W        W85498  20.666  10.336  26.574  0.0394  0.0028  0.0814
42586W        W85499  24.446  17.047   8.609  0.3356 -0.0734 -0.0871
42587W        W85500  34.224  15.833   7.061 -0.2297  0.1750 -0.0536
42588W        W85501  30.474   2.669   5.284  0.5954  0.3074 -0.2825
42589W        W85502   5.641  10.553   8.066 -0.3223 -0.1813  0.2993
42590W        W85503  20.996   5.223  29.092 -0.4436 -0.1507  0.2045
42591W        W85504  23.912  12.779  20.039 -0.1223 -0.0133 -0.1512
42592W        W85505  34.225   3.386   5.055 -0.2014 -0.0017  0.1584
42593W        W85506  26.687  11.639  24.726 -0.0599 -0.1849 -0.0257
42594W        W85507  33.311   7.113   0.548 -0.4994 -0.2449  0.1618
42595W        W85508   6.304  11.892   8.867  0.1594  0.1284  0.0726
42596W        W85509  21.555   9.874   2.956 -0.0401  0.0798  0.0879
42597W        W85510   7.518  19.604   5.320 -0.1642  0.1133  0.0090
42598W        W85511   2.778   6.227   1.538 -0.2399  0.0549  0.0237
42599W        W85512  28.933   2.597   6.215  0.0098 -0.1412 -0.2246
42600W        W85513  14.687   3.461   5.912  0.3137 -0.2451 -0.0497
42601W        W85514  27.732  16.590   4.348  0.0355 -0.3088 -0.0421
42602W        W85515  20.309  11.108  29.284 -0.1981  0.2942  0.0010
42603W        W85516  31.883   7.068   1.069  0.1549  0.0545  0.1560
42604W        W85517  31.237  19.694  28.077 -0.2827 -0.1858 -0.1601
42605W        W85518  19.841  33.950   5.354 -0.0445 -0.2278 -0.0739
42606W        W85519   4.120   4.875   7.963 -0.2041 -0.1506  0.2295
42607W        W85520  19.967  18.088   8.271  0.2837 -0.1053 -0.1456
42608W        W85521  21.198   7.240  20.452  0.1686  0.4114  0.3781
42609W        W85522  26.178   9.373  25.474  0.0710 -0.0597  0.0621
42610W        W85523  13.102  14.304  25.820 -0.0178 -0.0452 -0.0479
42611W        W85524  30.497  12.751   5.678 -0.5602  0.0353  0.0148
42612W        W85525  25.298  18.346  28.445  0.0443 -0.3844 -0.0368
42613W        W85526  30.567   6.658  25.740  0.3526 -0.0384 -0.1120
42614W        W85527   8.215  34.480  27.806 -0.2698  0.2472  0.1997
42615W        W85528   2.028   3.724   1.135  0.0737 -0.3670  0.0774
42616W        W85529  19.304  21.269  29.465  0.0184  0.2057 -0.2613
42617W        W85530  30.907  10.495   7.840 -0.1366  0.0305 -0.1688
42618W        W85531  28.919   7.610  10.623 -0.0106  0.1788  0.1300
42619W        W85532  26.113   0.957  24.393 -0.0152 -0.3322 -0.4563
42620W        W85533  28.152   9.248  25.610  0.4156  0.1669  0.1015
42621W        W85534  29.428   9.953   9.803 -0.0623  0.0020 -0.0068
42622W        W85535  18.731  14.616  23.618 -0.6357 -0.1396 -0.0144
42623W        W85536  23.365  10.368   8.601  0.3133 -0.0239  0.0767
42624W        W85537  26.991  10.052  27.010  0.2071  0.3088  0.1650
42625W        W85538  31.852  30.432   3.839 -0.0604  0.4235 -0.3596
42626W        W85539  27.213  11.176   1.437  0.1263  0.3181 -0.0432
42627W        W85540   1.485  25.419   4.449 -0.0343 -0.2411 -0.3367
42628W        W85541   3.188  10.047   4.444  0.2104  0.0908  0.1783
42629W        W85542   7.340   8.473  21.294  0.1850  0.1844 -0.3104
42630W        W85543  28.421  16.513   5.112  0.0728 -0.1394 -0.0834
42631W        W85544  19.398  12.722  19.938 -0.2153  0.1927 -0.1344
42632W        W85545  32.993   7.331   4.872 -0.2970  0.1877 -0.4238
42633W        W85546  34.026  13.459   0.268  0.0714 -0.2663 -0.2273
42634W        W85547  22.347   1.188   0.333 -0.2168 -0.2419  0.1093
42635W        W85548  33.705  12.169   8.454 -0.1983  0.0875  0.0301
42636W        W85549   6.981  10.471   8.809  0.0339  0.1810  0.0414
42637W        W85550   3.976   3.736  12.159  0.1314  0.2675 -0.2139
42638W        W85551   0.260   4.468  25.325 -0.0106 -0.1355 -0.0434
42639W        W85552  21.017   0.951  24.891  0.0107  0.0689  0.1635
42640W        W85553  30.507   1.807   3.318  0.0914 -0.1347  0.0113
42641W        W85554  29.983  18.276   4.210 -0.1182 -0.2301 -0.2140
42642W        W85555  30.288  16.563   2.918 -0.1947 -0.0383 -0.1533
42643W        W85556  29.961   8.057  29.379 -0.0042 -0.2169 -0.1578
42644W        W85557  20.408   3.587   9.899  0.3012  0.3489 -0.0935
42645W        W85558  18.278  14.592  21.674 -0.1379 -0.1504  0.0441
42646W        W85559  27.784   7.582   0.612  0.0840  0.1992 -0.1568
42647W        W85560  23.574   4.394   8.541  0.0365  0.1561 -0.2652
42648W        W85561   1.762  12.758   1.581  0.1644  0.1151  0.2678
42649W        W85562  30.011  10.634   2.819 -0.1287  0.2299 -0.3627
42650W        W85563  21.700  17.395  26.150  0.2956  0.1519  0.1209
42651W        W85564  27.966   5.163   2.444 -0.0514  0.3550  0.0273
42652W        W85565  17.313  12.065   3.272 -0.0791  0.2207 -0.0199
42653W        W85566   5.068  19.744  24.852  0.0894  0.0254  0.1345
42654W        W85567  29.483   0.038  27.871 -0.0007 -0.2218 -0.1623
42655W        W85568  24.175   4.563  29.170  0.2656  0.0072 -0.0774
42656W        W85569  23.325  17.526   6.427  0.0976 -0.2642  0.1531
42657W        W85570  33.561  16.373   1.105  0.0539 -0.3277  0.3004
42658W        W85571  30.124  16.106  25.382  0.0322  0.1364 -0.0207
42659W        W85572  22.561  16.951  23.771  0.2484 -0.0176 -0.1798
42660W        W85573  28.295   3.807   9.399  0.0478 -0.0852 -0.2910
42661W        W85574  29.362  17.171   9.620  0.0026 -0.0435 -0.0897
42662W        W85575  32.028   5.506  21.792 -0.1730  0.0314 -0.3979
42663W        W85576  31.267   8.793  26.733 -0.0597  0.1090  0.1638
42664W        W85577  30.678  18.111   1.681 -0.0073  0.2937 -0.1243
42665W        W85578  25.583  21.329  23.097 -0.0307 -0.0623 -0.2284
42666W        W85579  26.012   8.457  26.990  0.1636  0.2157  0.1374
42667W        W85580   5.995  13.851  21.458  0.0928  0.0860  0.1334
42668W        W85581  29.995   5.892  19.591 -0.2840 -0.1212 -0.0104
42669W        W85582  10.417   4.523   3.862 -0.1803 -0.2332  0.3421
42670W        W85583  29.301   6.902   6.227  0.0105 -0.0355  0.1211
42671W        W85584  27.621  10.198  21.990 -0.1927  0.3685 -0.3562
42672W        W85585  26.859   8.681  21.860  0.0519 -0.0461  0.1912
42673W        W85586  29.140   3.906  22.952 -0.3361 -0.2368  0.0138
42674W        W85587   6.820   7.586   0.635 -0.0179  0.0479 -0.1887
42675W        W85588  25.411  20.307   6.805 -0.1799  0.0672 -0.2569
42676W        W85589   0.668  14.668   4.333  0.3916 -0.0247 -0.2921
42677W        W85590   0.696   2.522  27.900 -0.2774 -0.2571 -0.0743
42678W        W85591  21.337  10.601   5.033 -0.2076 -0.1684  0.0658
42679W        W85592  30.486   8.390   2.092  0.2713  0.0444 -0.2078
42680W        W85593  26.763  17.140  28.513  0.0017 -0.0076 -0.0211
42681W        W85594  34.092  25.147   5.329  0.1347 -0.2253  0.0962
42682W        W85595  28.268   7.208   5.957  0.0483  0.3178  0.2649
42683W        W85596   1.840  17.464  26.431  0.1834 -0.0702 -0.0185
42684W        W85597  23.233  20.041  23.514 -0.2485 -0.0638  0.1851
42685W        W85598  22.061  18.673   7.461 -0.0991  0.0113 -0.5064
42686W        W85599   1.601  12.278   1.581  0.1927  0.1836  0.1284
42687W        W85600  30.607   9.991   1.472 -0.1138 -0.1243 -0.1573
42688W        W85601  22.186   0.968   0.807  0.2043 -0.3350 -0.1587
42689W        W85602   2.122  28.849   4.134 -0.1289 -0.0807 -0.0967
42690W        W85603  28.542   8.559   8.151  0.0621  0.1308  0.0336
42691W        W85604   1.785  17.896   6.916 -0.1409 -0.2524  0.1740
42692W        W85605  33.367   6.063  25.881 -0.2840  0.1704  0.1022
42693W        W85606  28.889   9.071  28.066 -0.1109  0.0262 -0.2036
42694W        W85607  33.754   4.597   2.044  0.1377 -0.0248  0.0827
42695W        W85608  21.423   2.331  28.382  0.2960  0.1599 -0.3179
42696W        W85609  31.368  17.356   4.521 -0.1232 -0.1546 -0.1020
42697W        W85610  28.560  13.684   2.309  0.0219 -0.2809 -0.0512
42698W        W85611  31.938  19.374   1.631  0.1093  0.0915 -0.0704
42699W        W85612   1.998  16.398   2.557  0.3542  0.0390  0.0683
42700W        W85613   0.985  14.168   4.540  0.1994  0.1498 -0.0272
42701W        W85614  31.030  11.407   8.621  0.1113  0.1293  0.1555
42702W        W85615  32.661  16.982   1.336  0.2755  0.0477 -0.0999
42703W        W85616   2.157   6.813   0.089 -0.3705 -0.1701  0.4171
42704W        W85617  29.694  18.455   8.691 -0.1961 -0.1523 -0.1582
42705W        W85618  13.621   6.232  25.354  0.3645 -0.0990  0.4322
42706W        W85619  30.620   2.814   7.042  0.0163  0.0896 -0.1018
42707W        W85620   2.464  13.616  29.190 -0.4947  0.0543 -0.1914
42708W        W85621  23.359   9.619  22.071 -0.2720  0.0808  0.1810
42709W        W85622  28.216  17.517   4.563  0.4004  0.1149  0.0745
42710W        W85623  32.570   1.218   7.752 -0.1551 -0.0791  0.0483
42711W        W85624  29.895  10.604   5.523 -0.0675  0.1680  0.0871
42712W        W85625  33.404  12.721  16.557 -0.0082 -0.0364 -0.0338
42713W        W85626  27.021  11.200  25.038  0.1703  0.2239  0.2016
42714W        W85627  21.641  10.265  26.826  0.0771 -0.1496  0.0173
42715W        W85628  29.295  10.700   8.651  0.2254 -0.0328  0.4107
42716W        W85629  29.583  14.177   2.391 -0.2955  0.1206 -0.2367
42717W        W85630   4.388  11.391  10.669  0.0673  0.3389  0.4581
42718W        W85631  32.601   8.142  28.611 -0.2030  0.1172 -0.0462
42719W        W85632  21.479  10.948  28.775  0.2333 -0.0275  0.0855
42720W        W85633  26.684  10.536  28.773  0.0119 -0.2154 -0.1237
42721W        W85634  22.674  13.434  24.722  0.1031 -0.1886 -0.0077
42722W        W85635  28.985  21.161  29.057 -0.0826 -0.0599 -0.1275
42723W        W85636  32.454   9.877  21.371  0.1534  0.2579  0.0203
42724W        W85637   3.122  16.834   9.577 -0.1250 -0.2294 -0.0144
42725W        W85638  16.024   4.227  10.713  0.0623 -0.1385 -0.2117
42726W        W85639   0.969   9.427  27.667  0.0678 -0.5572  0.2104
42727W        W85640   3.719  18.203  28.622  0.1010  0.1237  0.2069
42728W        W85641  23.894  16.459   0.685 -0.2102  0.1471 -0.1571
42729W        W85642  32.387  10.458   1.791 -0.2003  0.0641  0.0461
42730W        W85643  24.147   6.009   7.825  0.0615  0.2067 -0.1361
42731W        W85644  25.153   1.902  27.101 -0.1942 -0.2854 -0.2781
42732W        W85645  30.951  11.742   5.437  0.0628  0.0402 -0.0026
42733W        W85646  17.241   7.255   4.082 -0.1143 -0.2528 -0.0318
42734W        W85647  29.178  12.900   0.098 -0.4461 -0.2316 -0.0268
42735W        W85648  27.904  11.498  26.695 -0.2818 -0.0044 -0.3232
42736W        W85649  29.317  10.914  20.066 -0.1430 -0.0759  0.0794
42737W        W85650  19.325   6.908  28.144 -0.0292  0.0371  0.0713
42738W        W85651   8.369  18.581  18.700  0.2653  0.2153 -0.2118
42739W        W85652  21.847  10.397   1.658 -0.0306 -0.3835 -0.0325
42740W        W85653  30.501  10.721  28.750  0.0590 -0.0414  0.1146
42741W        W85654   4.090   4.602  28.753  0.0790  0.2611 -0.0297
42742W        W85655  30.804   7.698  17.884 -0.1294 -0.1867 -0.0025
42743W        W85656  15.842   4.948  28.910  0.0266  0.2734  0.0762
42744W        W85657   3.879   8.331   9.560 -0.2009 -0.2594 -0.0314
42745W        W85658  30.010   9.649   0.722 -0.0901  0.0856 -0.0681
42746W        W85659  28.973   3.884   8.411 -0.0378 -0.0131  0.1123
42747W        W85660  30.520   6.574   8.496 -0.0741  0.2802  0.4105
42748W        W85661  21.163  19.221  27.500 -0.3103  0.0275 -0.0387
42749W        W85662  23.283   0.282   1.753  0.2759  0.0877  0.0180
42750W        W85663  33.348  21.761   9.236  0.2656 -0.0190 -0.2127
42751W        W85664   0.546  16.290   9.392 -0.0737 -0.2656  0.2796
42752W        W85665  29.088  11.932  25.018 -0.1005 -0.0996  0.4109
42753W        W85666  34.238   4.256   5.090  0.0789 -0.2647 -0.3030
42754W        W85667  34.323  11.761  22.423 -0.0749  0.0611 -0.1694
42755W        W85668  28.596   9.482   6.001  0.0367 -0.0521  0.5637
42756W        W85669  28.754  12.162  24.273  0.0041  0.1459  0.1226
42757W        W85670   2.997  14.540   0.182  0.2493 -0.4261 -0.2067
42758W        W85671  19.412   6.988   9.649  0.4332 -0.1494  0.0003
42759W        W85672  27.325  22.576  23.944 -0.0871  0.1687  0.0663
42760W        W85673  27.648  11.699  21.799  0.1580 -0.0463 -0.1516
42761W        W85674  25.113  11.408  24.208  0.0831  0.0473 -0.0575
42762W        W85675  24.850   5.814   5.044  0.2146 -0.0832  0.0003
42763W        W85676  13.427   8.123  29.436  0.0858  0.0762  0.1019
42764W        W85677   7.610   0.646   4.978 -0.0139 -0.2707 -0.0802
42765W        W85678   2.868   6.172   9.538  0.3122 -0.1307 -0.2043
42766W        W85679  32.386   0.257   7.652  0.0729  0.3750 -0.2955
42767W        W85680  25.821   4.333  26.822  0.0156 -0.0232 -0.0201
42768W        W85681  26.567  11.171   2.726  0.2203 -0.0491 -0.2038
42769W        W85682  23.744   6.653   6.458  0.0581  0.0190  0.0165
42770W        W85683  25.281   7.075  28.080  0.0549  0.2204 -0.1198
42771W        W85684   0.859  16.321  24.697 -0.1370 -0.0236 -0.0561
42772W        W85685  32.506  19.073  29.096 -0.2939  0.1011 -0.1922
42773W        W85686   2.719  16.020   5.624 -0.0977 -0.2486  0.0151
42774W        W85687  24.896  16.761   4.251  0.0661  0.0405 -0.1636
42775W        W85688  31.459   6.028   7.756  0.1793 -0.2087 -0.0169
42776W        W85689  25.956  16.447   3.356 -0.0347  0.0175 -0.2721
42777W        W85690  22.786   7.264  27.817 -0.1036  0.0824  0.0649
42778W        W85691  24.494   4.450   1.943 -0.0368 -0.1239 -0.1872
42779W        W85692  28.505  10.930   3.203 -0.2855  0.2703 -0.2008
42780W        W85693  25.011  26.911   7.210  0.0029 -0.1021  0.2078
42781W        W85694  19.697   0.523  29.640 -0.0222  0.1210  0.2248
42782W        W85695  31.899   9.650  19.560 -0.0806 -0.0178 -0.4351
42783W        W85696  28.265  17.764   6.769 -0.1996 -0.3195 -0.1327
42784W        W85697  31.745   8.914  28.961  0.2025  0.0543 -0.1219
42785W        W85698  24.574  20.325   0.680  0.3776  0.0809  0.0492
42786W        W85699   6.505   6.188  26.025  0.2870 -0.0723 -0.1625
42787W        W85700  27.012  14.441  29.059  0.0695  0.0772 -0.0624
42788W        W85701   9.037  10.311   8.046 -0.0041  0.3275 -0.1813
42789W        W85702  16.842   6.272   4.230 -0.2112  0.1984  0.0080
42790W        W85703   5.355  15.401   0.073 -0.0234  0.0302 -0.0665
42791W        W85704   3.389  25.354   5.823 -0.1712 -0.1217  0.1956
42792W        W85705  24.975  18.513   6.097  0.0683  0.0986 -0.0259
42793W        W85706  25.420  13.710   9.045  0.1174  0.3446 -0.0621
42794W        W85707  29.706  15.009  27.997  0.2698 -0.2108 -0.1005
42795W        W85708   4.906  23.785   5.261 -0.0037 -0.0690  0.1439
42796W        W85709  11.797   8.295  29.466 -0.2353  0.1206  0.2066
42797W        W85710  21.676  18.073  20.997 -0.4753  0.0170  0.1020
42798W        W85711  32.420   6.051  25.878 -0.2355 -0.0675  0.1475
42799W        W85712  30.933   5.719   1.536  0.3370 -0.0939 -0.1045
42800W        W85713  34.154   7.172   8.677  0.0209  0.1122  0.3438
42801W        W85714   5.637   9.265   3.374 -0.0831 -0.2413  0.1663
42802W        W85715  32.998  15.459  23.111 -0.0874 -0.1685 -0.2171
42803W        W85716  29.345   8.800   1.133  0.1344  0.2244 -0.0922
42804W        W85717  26.608   3.799   7.809 -0.2009 -0.2550 -0.0202
42805W        W85718  29.544  19.392  26.823  0.2118 -0.0931  0.0237
42806W        W85719   4.609   7.088   2.337  0.1302  0.1388  0.1857
42807W        W85720  24.237  12.064   0.154  0.0117  0.0313  0.2863
42808W        W85721   1.377  14.378   6.523  0.2139  0.0436 -0.2861
42809W        W85722  27.650   9.777   3.426  0.0080  0.2403 -0.2334
42810W        W85723  23.583   5.300   0.527 -0.0124  0.0734  0.0854
42811W        W85724  20.360   0.502  22.160 -0.1327  0.0996 -0.0272
42812W        W85725  15.804  13.780   5.334 -0.2169  0.3203  0.1773
42813W        W85726  22.892   7.298  28.572 -0.1255 -0.1290  0.1939
42814W        W85727  28.643  32.316   7.914  0.0479 -0.1582  0.1760
42815W        W85728  34.095  13.029   6.184  0.0313 -0.0239  0.1827
42816W        W85729  29.421  12.911  24.872  0.2010  0.1439  0.0704
42817W        W85730  24.701  13.466  26.298  0.2619 -0.0973  0.1965
42818W        W85731   0.019  17.091  20.863  0.0192 -0.0845 -0.1207
42819W        W85732   3.253  23.840  25.976  0.0364  0.0495  0.0504
42820W        W85733  26.990   8.701  20.171 -0.2086  0.1662 -0.1579
42821W        W85734  32.699   0.019  10.602 -0.1679  0.2577  0.0856
42822W        W85735  26.471  14.513   8.294  0.1335 -0.1145 -0.2095
42823W        W85736  25.490  33.148   4.193  0.0556 -0.0726 -0.0636
42824W        W85737  25.141  12.812  27.765 -0.2380  0.2516 -0.3079
42825W        W85738   9.167   8.571   1.243 -0.4214  0.3040  0.1171
42826W        W85739  30.173  16.584  27.405  0.1215 -0.0598 -0.1292
42827W        W85740   1.604  14.626  28.847  0.1707 -0.1327  0.1360
42828W        W85741  26.528  14.248   7.577 -0.0706  0.1214  0.1295
42829W        W85742  26.978  11.501  27.803  0.3409 -0.2183 -0.1055
42830W        W85743  33.107   4.191  23.253  0.0807 -0.3018  0.0888
42831W        W85744  27.250  13.702   0.251  0.0509 -0.0293 -0.0466
42832W        W85745  23.587  12.580   3.470 -0.1450  0.1908 -0.2620
42833W        W85746  10.743  14.872   3.605 -0.0752  0.1685 -0.0135
42834W        W85747  28.886  13.389   5.363 -0.1845 -0.4932 -0.2150
42835W        W85748  12.270   3.579  23.746  0.0988 -0.2151 -0.2665
42836W        W85749  20.312  31.557  21.658 -0.2099 -0.0267  0.1116
42837W        W85750  27.406  12.758   0.063  0.3633 -0.2117 -0.0643
42838W        W85751  30.323   4.230  10.885  0.0634 -0.0492  0.0921
42839W        W85752   7.577   9.207  24.644 -0.1315 -0.1372  0.0354
42840W        W85753  28.588  10.951   8.263 -0.2179 -0.0444  0.2578
42841W        W85754  34.146  13.343  25.720  0.0681 -0.1882  0.1653
42842W        W85755  25.211  19.970  28.587  0.1197  0.3277  0.0321
42843W        W85756  24.661  15.779   8.546  0.2559 -0.1649  0.0144
42844W        W85757  27.853  11.300  28.273  0.0780  0.0940 -0.3670
42845W        W85758  28.169   9.006   3.033  0.4587  0.0543 -0.1768
42846W        W85759  32.905  13.674   8.555 -0.1540  0.0529 -0.0673
42847W        W85760  25.029  17.730   6.584 -0.1486  0.0987 -0.2881
42848W        W85761  18.100   0.105   2.386  0.1196  0.0169  0.1086
42849W        W85762  34.322  19.271   3.294  0.0765  0.1105 -0.0895
42850W        W85763  16.842  16.367  26.491 -0.2011  0.2210  0.0589
42851W        W85764  27.522  14.108   0.390  0.3505  0.2188  0.1808
42852W        W85765  22.756  13.143   2.206 -0.0552 -0.0983  0.1414
42853W        W85766  33.167  19.633   3.851  0.3906  0.3856 -0.1996
42854W        W85767  20.601   2.339   1.250  0.0574 -0.0494  0.1186
42855W        W85768  33.258   9.988  28.736 -0.2815  0.0839  0.0428
42856W        W85769  28.593  23.266  27.112 -0.1764 -0.2383  0.2088
42857W        W85770   0.641  10.822   9.228 -0.0300  0.0892 -0.0655
42858W        W85771  16.944  14.061  28.336 -0.0774  0.0433 -0.1547
42859W        W85772   0.308   5.420  22.649  0.0249  0.2219 -0.0332
42860W        W85773  26.515  19.868   6.146 -0.0743  0.1122 -0.1271
42861W        W85774  22.965   8.807  21.401  0.1888  0.0441 -0.1519
42862W        W85775  31.696   3.688  28.537 -0.0522 -0.0678 -0.1344
42863W        W85776   2.115  23.152   8.036 -0.0350 -0.0432 -0.0212
42864W        W85777  23.909  11.803  23.354 -0.3592  0.0874 -0.1297
42865W        W85778  32.262  18.095   5.126 -0.1038 -0.2541  0.1684
42866W        W85779  22.365  19.302  28.288 -0.2269  0.1772 -0.1385
42867W        W85780   2.575   6.655  12.330 -0.1696  0.0878  0.0208
42868W        W85781  33.720  11.243  28.812 -0.2056  0.1302 -0.2044
42869W        W85782  27.723   5.745  16.992  0.0893 -0.0982 -0.0735
42870W        W85783  27.105  32.312   8.028  0.1703  0.1521 -0.2040
42871W        W85784  27.084   7.154   1.374  0.0047 -0.1182 -0.0058
42872W        W85785   2.165   3.566  24.703  0.1609  0.0495  0.0019
42873W        W85786  24.059  13.183   4.083 -0.0362 -0.0428 -0.3472
42874W        W85787  28.190  14.574   4.266 -0.2395  0.2597  0.1711
42875W        W85788  24.950   3.620  27.142 -0.0733  0.0404 -0.0076
42876W        W85789  31.816  15.504   5.534 -0.2261  0.1124 -0.1381
42877W        W85790  24.604   7.844  27.950  0.3920 -0.1886 -0.3750
42878W        W85791  28.240  14.081   4.493 -0.1367  0.0239  0.1303
42879W        W85792  26.305  21.720   0.403  0.2650 -0.0236  0.1225
42880W        W85793  26.488  14.308   0.119  0.2122 -0.0078  0.2164
42881W        W85794  28.794  11.396  26.812 -0.1148  0.3442  0.0175
42882W        W85795  29.111   1.334   3.251  0.3488  0.0872 -0.4899
42883W        W85796  27.481  16.713  25.996 -0.2072  0.1889  0.5215
42884W        W85797  18.257   0.675  26.754  0.0173  0.3059 -0.1751
42885W        W85798  27.361  14.733   9.487 -0.1711 -0.1508 -0.0778
42886W        W85799   0.758  10.463   4.609 -0.0851  0.0572 -0.1430
42887W        W85800  31.737   8.120   5.104 -0.0638  0.1226 -0.0444
42888W        W85801   5.431   9.255   5.402  0.0230  0.2525  0.0011
42889W        W85802  25.196  11.672   8.452 -0.0405 -0.1775  0.2743
42890W        W85803  24.331  30.349   6.087  0.2699  0.1361 -0.0297
42891W        W85804  30.727   9.275   8.805  0.1396 -0.1843 -0.0871
42892W        W85805  26.583   6.868   2.530  0.1005  0.0760 -0.0988
42893W        W85806  28.849  13.013   2.235  0.1247 -0.1898 -0.1040
42894W        W85807  31.987   8.211   1.960  0.1528 -0.1361 -0.2546
42895W        W85808  18.732  13.416  17.507 -0.0878 -0.0851 -0.0176
42896W        W85809   0.234  13.875  27.811  0.0848 -0.1142 -0.1247
42897W        W85810   0.180  11.024   6.480  0.0138 -0.0728 -0.1245
42898W        W85811  31.456  18.911   5.312 -0.0966  0.2254 -0.1847
42899W        W85812  32.704   3.006   8.181  0.2028 -0.0296 -0.0058
42900W        W85813  18.800   5.901  26.227  0.1460  0.1009 -0.2200
42901W        W85814  27.352  12.587  28.900  0.0426  0.1985 -0.0621
42902W        W85815   5.834  10.111  27.059 -0.1756 -0.0977 -0.2292
42903W        W85816  30.322  19.870   3.761 -0.0339  0.3065  0.0960
42904W        W85817   5.217  12.821  29.445  0.1134  0.1595 -0.2113
42905W        W85818  26.678   9.484  22.601 -0.1240 -0.0493  0.1709
42906W        W85819   5.028  14.536   9.105  0.1887 -0.1242  0.2420
42907W        W85820  21.911   2.927  25.910 -0.1592 -0.1453  0.0873
42908W        W85821  24.723   7.041  18.461  0.3863 -0.2495  0.0929
42909W        W85822  27.228  14.846  26.893  0.1148  0.1118 -0.3903
42910W        W85823  30.518   6.719  18.936 -0.1574 -0.2295  0.1051
42911W        W85824  28.005   7.274   0.275  0.0917  0.3154  0.0093
42912W        W85825  22.188  11.829  29.504 -0.1872 -0.1832 -0.0892
42913W        W85826   7.895   8.672  22.444 -0.0228 -0.0062 -0.0492
42914W        W85827  31.788   8.538  18.175  0.2185 -0.1610  0.0053
42915W        W85828  31.886  15.384   4.637  0.1665 -0.0710  0.1303
42916W        W85829  24.495   9.227  24.871  0.2792 -0.0112  0.1027
42917W        W85830  34.134   6.940   9.270  0.0406  0.0888 -0.1013
42918W        W85831  24.004  13.950   0.420  0.0887  0.3632  0.0165
42919W        W85832   1.638  11.108   2.678 -0.1644 -0.1225 -0.0300
42920W        W85833  20.030   4.370   7.611 -0.2532 -0.1701 -0.4175
42921W        W85834   0.972  10.411   6.378  0.2327  0.0405 -0.1914
42922W        W85835  23.814   7.984   9.028 -0.1710  0.0555 -0.0330
42923W        W85836  27.233  16.721  29.593 -0.0624  0.0276 -0.3557
42924W        W85837  19.777  14.165   3.808  0.1650 -0.3170 -0.1521
42925W        W85838   0.511  11.644  21.746  0.1955  0.2608 -0.0394
42926W        W85839  24.768  19.916   1.077  0.1429  0.1289  0.0495
42927W        W85840  31.129  23.501   6.783 -0.1273  0.0863 -0.2283
42928W        W85841  30.063   1.689  18.622 -0.3831  0.0525  0.1802
42929W        W85842  31.375  10.407  27.841 -0.3009  0.1372  0.1330
42930W        W85843  29.366   0.838  24.125  0.1067 -0.0060 -0.0542
42931W        W85844   8.668  10.025   2.274 -0.1815  0.3132 -0.3132
42932W        W85845  18.718  10.182  25.807 -0.2587 -0.0252 -0.1596
42933W        W85846  30.180  33.321  26.122  0.0962  0.3168 -0.0674
42934W        W85847  32.150  29.196   4.287 -0.0602 -0.1635  0.0339
42935W        W85848   1.160  16.308   8.719  0.1553  0.2886 -0.2280
42936W        W85849  19.299  12.411  19.098 -0.0738  0.3462  0.1032
42937W        W85850  16.773   2.359   9.801  0.0674  0.2247  0.0577
42938W        W85851   0.133  12.008   1.661  0.1914  0.3250 -0.0266
42939W        W85852   2.646  10.446   1.982 -0.2279  0.0902  0.0655
42940W        W85853  20.348  14.574  26.067  0.0004  0.1604 -0.0580
42941W        W85854  23.404   8.889  25.138 -0.0045  0.0739 -0.1617
42942W        W85855  28.175  17.633   2.520 -0.1210 -0.0612  0.1346
42943W        W85856  19.159  15.194  21.724 -0.0223 -0.0319 -0.1530
42944W        W85857  20.504   5.552   9.511 -0.2512 -0.4967 -0.1992
42945W        W85858  27.699   6.727   6.673  0.2968 -0.0490 -0.3319
42946W        W85859   2.663  11.005  27.746 -0.1328 -0.1561 -0.0867
42947W        W85860  32.262  21.216   9.381  0.1453  0.1949 -0.1763
42948W        W85861  22.103  19.180  27.893  0.2975  0.1997  0.2176
42949W        W85862  31.367  15.917   2.662 -0.2105  0.0632 -0.1253
42950W        W85863  25.209   0.756   5.787  0.1565  0.1418  0.2110
42951W        W85864  18.856   4.647   8.045  0.0374 -0.1404 -0.1426
42952W        W85865   0.662   2.650   4.258 -0.3612  0.0719  0.1759
42953W        W85866  24.575   5.986  28.075 -0.4769  0.1230  0.1149
42954W        W85867   8.350   4.657   6.738  0.2155  0.2148 -0.0646
42955W        W85868  30.761  10.658   4.629  0.1324  0.1184 -0.2800
42956W        W85869   7.496   5.475   6.010 -0.2450  0.2862  0.2146
42957W        W85870  26.497   2.124   5.418  0.1916 -0.1010 -0.1011
42958W        W85871  26.420  12.049   4.638  0.2745 -0.0743 -0.4607
42959W        W85872  31.324  27.896   4.528 -0.0062 -0.1953 -0.0574
42960W        W85873  30.018  19.979   4.110  0.1856  0.1099  0.0379
42961W        W85874  27.339   0.606   9.932  0.1193 -0.1182 -0.1134
42962W        W85875   3.732   6.332   6.913  0.0825  0.0742 -0.1022
42963W        W85876  29.830  13.549   9.679  0.2746 -0.1133 -0.5012
42964W        W85877  21.967  11.349  29.283 -0.1583 -0.3896  0.0174
42965W        W85878   6.973  13.613   1.063 -0.2791 -0.0827  0.2243
42966W        W85879  27.291  15.746   0.888 -0.3246  0.0266 -0.0602
42967W        W85880  27.885  20.657   5.159  0.0047  0.0441 -0.0872
42968W        W85881  30.282  19.939   8.258 -0.1284  0.3015 -0.0643
42969W        W85882  21.965   8.399   5.550 -0.0897  0.1085 -0.1253
42970W        W85883  27.297   8.252  28.515  0.1358  0.2317  0.2786
42971W        W85884  27.913  14.448   0.537  0.0020  0.0517  0.0889
42972W        W85885   3.288   6.598   6.100 -0.1006 -0.2716 -0.1857
42973W        W85886  31.402  12.475   5.141  0.1040 -0.0060  0.0845
42974W        W85887  29.021  33.732  10.013  0.0337  0.1314 -0.0816
42975W        W85888  26.864  13.966  29.004 -0.3435  0.2058  0.0941
42976W        W85889  33.924   3.960   2.933  0.1839  0.1481 -0.2699
42977W        W85890  30.107  12.874  28.707  0.2833 -0.4062  0.0792
42978W        W85891  30.240   2.592   2.537  0.0250 -0.1457  0.1468
42979W        W85892  26.536  18.327   7.890 -0.1099 -0.1933 -0.0768
42980W        W85893  27.630  10.804  27.945 -0.3797  0.1238 -0.0445
42981W        W85894  26.256  13.865   1.934 -0.1246  0.1500  0.1296
42982W        W85895   1.839  11.088   8.943 -0.2394  0.1638 -0.1366
42983W        W85896  30.360   8.122  29.688 -0.0875 -0.0590  0.3804
42984W        W85897  28.424  11.470   4.499  0.2820 -0.1358 -0.1699
42985W        W85898  30.257   2.443   6.220  0.2586 -0.0470 -0.1134
42986W        W85899  19.117   7.752   7.325  0.3914  0.0104  0.1368
42987W        W85900   3.351   4.587  28.148 -0.2265 -0.0598 -0.3254
42988W        W85901  28.372  10.833   8.799  0.0424 -0.1085 -0.2919
42989W        W85902  20.048  22.777   3.525 -0.0116  0.1114  0.0866
42990W        W85903  29.148  13.396   9.808 -0.2955  0.0203 -0.1866
42991W        W85904   0.187   7.889   1.035 -0.3055  0.2988  0.2158
42992W        W85905   2.740   1.708   7.909 -0.1004 -0.1534 -0.1416
42993W        W85906  20.236   7.683  22.423 -0.0769 -0.1564  0.2548
42994W        W85907  33.658   4.571   8.085 -0.1418 -0.2471  0.2116
42995W        W85908  21.251  13.385   7.070  0.1953  0.4061 -0.0137
42996W        W85909  27.475  16.762  22.940 -0.3781 -0.1617  0.0702
42997W        W85910  12.831  14.253  27.585 -0.1014  0.0300  0.1462
42998W        W85911  33.346   9.751  22.412  0.2122  0.1455  0.3349
42999W        W85912  30.564   9.971   2.664  0.0103  0.3266 -0.1956
43000W        W85913   3.173  10.156   5.501  0.2412  0.1734 -0.0296
43001W        W85914  19.610   6.640  22.937 -0.0816  0.1689  0.0851
43002W        W85915  17.169  20.582  25.677  0.3668 -0.2203 -0.0683
43003W        W85916  22.731  15.538  26.746  0.0321  0.1247 -0.1095
43004W        W85917  27.603   9.922  24.404  0.1585  0.0672  0.1589
43005W        W85918   1.219  14.700  26.214 -0.2299 -0.0366  0.2890
43006W        W85919  24.628   6.881   0.320 -0.1758 -0.1595 -0.2435
43007W        W85920  28.984   3.160   7.147  0.1431 -0.0277 -0.2599
43008W        W85921  28.390  19.407  21.238  0.1532  0.0461 -0.2406
43009W        W85922  30.255  14.667   0.971  0.0767 -0.0808  0.0707
43010W        W85923  19.597  10.451   7.320 -0.1628  0.3472 -0.0186
43011W        W85924  21.415  11.653   2.087  0.2480 -0.2536 -0.0396
43012W        W85925  31.572  15.671  29.341 -0.0529 -0.0365 -0.0397
43013W        W85926   4.754   0.044  26.158 -0.0258  0.4410 -0.0628
43014W        W85927  29.241  13.652   7.899  0.1443  0.1136  0.1795
43015W        W85928   6.126   5.612  27.277 -0.2616 -0.0574  0.2394
43016W        W85929  28.340   6.745   1.108 -0.0449  0.2166  0.2823
43017W        W85930  29.297  11.353   5.770 -0.1515 -0.2434 -0.1089
43018W        W85931  29.301   0.314   5.462 -0.0211 -0.1221 -0.1639
43019W        W85932  26.124   9.759   5.744 -0.2690  0.0865  0.1075
43020W        W85933   1.138  12.402   5.928 -0.1158 -0.2365 -0.1204
43021W        W85934  32.494   7.764   7.189  0.1769 -0.2296  0.0758
43022W        W85935   0.693  11.249  23.354 -0.1360 -0.1903  0.2238
43023W        W85936  30.000   2.894   5.045  0.1794  0.0725  0.0759
43024W        W85937  23.875  14.122   7.652 -0.0464  0.0097 -0.0312
43025W        W85938  22.022   6.805  27.531 -0.4147  0.0994  0.2297
43026W        W85939   2.098   5.954   8.230  0.0613 -0.0615  0.1872
43027W        W85940   3.173   3.431  29.711  0.2913 -0.2709  0.1004
43028W        W85941  32.494  19.576  28.700 -0.0114  0.1423 -0.3002
43029W        W85942  31.564   6.410   6.208  0.3158 -0.1055  0.2334
43030W        W85943  21.578  14.514   6.578  0.2195 -0.2701  0.2628
43031W        W85944   4.582  10.287  26.646  0.2007 -0.2051 -0.3229
43032W        W85945  33.404   7.928   4.432 -0.1214  0.1965 -0.2775
43033W        W85946   1.680   3.725  12.261  0.1400 -0.2022 -0.0802
43034W        W85947  30.922  16.025   2.741 -0.1662  0.2907  0.1334
43035W        W85948  32.363   5.422   1.251  0.3310 -0.1720  0.3080
43036W        W85949  31.474   3.463  10.497 -0.2095 -0.0611 -0.3662
43037W        W85950  21.551  14.774   4.927  0.0559  0.1955 -0.0538
43038W        W85951  26.667  12.860   9.153  0.1246  0.2217  0.2587
43039W        W85952  20.566   7.029   6.178 -0.0430 -0.0878 -0.0527
43040W        W85953  17.135  12.384   5.715 -0.1779  0.1903  0.2352
43041W        W85954  30.838  17.791   8.370 -0.0430 -0.1368  0.1383
43042W        W85955   5.084  10.684  11.721 -0.0383  0.2662  0.3756
43043W        W85956  33.904   7.576   8.779 -0.2517 -0.1197 -0.3751
43044W        W85957  21.721   6.697   3.294  0.3065 -0.1950  0.0965
43045W        W85958  33.132  15.126  29.745  0.2336 -0.0527 -0.1371
43046W        W85959   5.665  13.870   1.582  0.3109  0.1075  0.2143
43047W        W85960  19.551   3.749   8.287  0.2492  0.2599  0.0988
43048W        W85961  23.438   3.520   2.685  0.3119 -0.3452 -0.0982
43049W        W85962  29.844   4.041   8.047  0.0819  0.0856 -0.3094
43050W        W85963  31.067   9.712   7.708  0.0178  0.2240  0.1099
43051W        W85964   2.954  18.786  24.479 -0.1243  0.3857  0.1900
43052W        W85965  25.803   6.681   3.486  0.0911  0.0052  0.4154
43053W        W85966   6.063  15.576   8.522  0.1215 -0.0909  0.1243
43054W        W85967  27.860   6.723   1.020 -0.0334 -0.2179 -0.2551
43055W        W85968   1.541  18.877   3.142  0.0044  0.0148 -0.3398
43056W        W85969  12.115  17.524  25.947 -0.0028  0.2052 -0.0813
43057W        W85970   1.184  13.483   8.778  0.3287  0.4154 -0.2435
43058W        W85971  27.900  21.183   0.756  0.0769  0.0926  0.2872
43059W        W85972   5.246  15.598   6.502  0.2069 -0.0532  0.3417
43060W        W85973  34.153   4.245   9.261 -0.0812  0.1537  0.0921
43061W        W85974   4.248   5.563  11.632  0.1873  0.0952 -0.1330
43062W        W85975  23.869  33.139   3.649  0.2480 -0.1472 -0.0894
43063W        W85976   9.520  11.507   0.654 -0.0155  0.1672 -0.0528
43064W        W85977  22.972  14.812  25.130 -0.0593  0.1281 -0.1258
43065W        W85978  34.098  13.116   7.694 -0.0017 -0.1418  0.3687
43066W        W85979  27.120   9.251   3.394 -0.2800 -0.0564  0.0605
43067W        W85980   2.320  13.775  23.688  0.0453 -0.0077 -0.1961
43068W        W85981  33.816   5.613  23.582  0.2531  0.2188 -0.2172
43069W        W85982   0.963   2.818   4.685  0.3585 -0.1033 -0.0992
43070W        W85983   0.110  14.937   9.335 -0.1185  0.2283 -0.1024
43071W        W85984  32.112   2.982  10.491  0.1085  0.1916 -0.2218
43072W        W85985  26.805  16.560   5.109 -0.1571  0.0821 -0.4301
43073W        W85986  32.357   4.850  23.132 -0.3214  0.4188  0.0634
43074W        W85987  34.315   7.420   9.215  0.1530 -0.0240 -0.4351
43075W        W85988  32.693  17.714   8.109  0.2004 -0.3051 -0.1853
43076W        W85989  27.602   4.353   8.792  0.1893 -0.1704  0.2429
43077W        W85990  32.804  17.114   0.909 -0.0454  0.0965  0.1920
43078W        W85991  25.066   7.079  23.748 -0.1175  0.2422 -0.0477
43079W        W85992  24.589  31.049  29.644  0.0496  0.3532 -0.0589
43080W        W85993  27.086   3.260   9.131 -0.1488  0.0343 -0.1707
43081W        W85994  26.299  13.588   1.427 -0.0472  0.0271 -0.0879
43082W        W85995   4.083  11.247  16.338 -0.1715 -0.1241 -0.0075
43083W        W85996  33.515  13.509   2.137 -0.1941 -0.0417  0.0321
43084W        W85997   2.632   7.765  12.078  0.0926 -0.1314 -0.2355
43085W        W85998  25.793   9.714  10.375  0.2428  0.1521  0.3742
43086W        W85999  28.165   3.450  28.446 -0.0223  0.1492 -0.1835
43087W        W86000  26.932  10.349   7.114 -0.0052  0.3363 -0.2891
43088W        W86001  25.443   7.114  27.352  0.2833 -0.0227  0.0271
43089W        W86002   5.254   3.885   7.376  0.0297 -0.1510  0.3174
43090W        W86003  31.287  12.686   6.125 -0.2881 -0.0276  0.1488
43091W        W86004  30.299  11.722  10.105  0.0593 -0.1359  0.3119
43092W        W86005   2.378  13.917   8.457  0.5362  0.0092 -0.0814
43093W        W86006  25.949  16.841   6.924  0.2983 -0.0115 -0.0469
43094W        W86007  31.950   9.518   9.241  0.0366 -0.1967 -0.3484
43095W        W86008  33.257   0.969   9.118 -0.0704  0.0244 -0.2032
43096W        W86009  33.043  11.312   6.483 -0.2022  0.1837  0.2589
43097W        W86010   5.496  15.233   9.811  0.0058 -0.1110 -0.1074
43098W        W86011  19.050   1.487   7.012 -0.0746  0.0400  0.0979
43099W        W86012  22.033  14.764   4.462  0.0046 -0.1730  0.0372
43100W        W86013  28.135  17.157  28.439 -0.1884  0.3506 -0.0133
43101W        W86014  31.877   9.837   2.126 -0.0221 -0.0790 -0.1663
43102W        W86015  10.092  12.535   8.933 -0.2423 -0.2431  0.0791
43103W        W86016  30.600   7.977  10.463  0.2179  0.0145 -0.1724
43104W        W86017  31.419  16.595   3.286 -0.0731  0.3686  0.2108
43105W        W86018  28.403  14.567   5.487 -0.0036 -0.1699 -0.0068
43106W        W86019  32.172  14.778   7.048  0.2024  0.2485 -0.3027
43107W        W86020  26.862  13.980   1.344 -0.3453 -0.0751 -0.1543
43108W        W86021  31.176  10.214   7.399  0.1243 -0.2811  0.0071
43109W        W86022  32.161   9.638  28.968 -0.1463  0.4420 -0.0662
43110W        W86023  20.323   2.361   8.298  0.2220  0.0483  0.1876
43111W        W86024   6.638  10.791   7.374 -0.0466  0.1920 -0.0442
43112W        W86025   2.895   0.716   0.528  0.0186 -0.1758  0.0654
43113W        W86026  14.624  16.273  28.841  0.0613 -0.0380  0.2717
43114W        W86027  25.991   6.008   2.993  0.2226  0.0551 -0.1601
43115W        W86028   7.689  16.053   3.420 -0.0869  0.1787  0.0518
43116W        W86029  13.837   4.567  21.529 -0.2802  0.1969 -0.1390
43117W        W86030   0.292   9.321   9.929  0.0056 -0.2801  0.0705
43118W        W86031   1.772  14.396  27.350 -0.0591 -0.1814 -0.1255
43119W        W86032  22.736  15.455  25.728 -0.0313 -0.1340 -0.0283
43120W        W86033  32.018  11.309   8.770  0.1353  0.1651 -0.1185
43121W        W86034  33.474   8.635  10.531 -0.3140  0.0396 -0.0979
43122W        W86035  30.203  10.939  25.067  0.2426 -0.0468  0.0255
43123W        W86036  26.777   7.790  26.285  0.4035  0.2073  0.2482
43124W        W86037   0.174   6.883   2.480 -0.2320  0.0255 -0.3061
43125W        W86038  33.571  18.703   0.040 -0.2514 -0.2054  0.0156
43126W        W86039  29.925   3.449   5.129  0.0270 -0.1373  0.0249
43127W        W86040  33.681   2.145   2.820  0.0169  0.0373  0.0504
43128W        W86041  27.839   7.264   6.233  0.0073  0.1189  0.0357
43129W        W86042  22.154  11.968  27.234  0.2549  0.0396 -0.1783
43130W        W86043   0.242   9.998   7.477  0.0099 -0.1118 -0.1432
43131W        W86044   2.991   3.786  12.506  0.1739 -0.2368 -0.2392
43132W        W86045  30.254   8.157  28.658 -0.0579  0.0253 -0.0125
43133W        W86046  24.998   6.142   2.407  0.0518  0.0270 -0.0533
43134W        W86047  23.892   7.598   2.860 -0.0555  0.0145  0.0131
43135W        W86048  28.027   2.659   9.261 -0.0151  0.0721  0.2293
43136W        W86049  18.375  13.049   2.434 -0.1013 -0.1234  0.2871
43137W        W86050  33.442  21.272   6.887  0.0699  0.0307  0.1348
43138W        W86051  19.207   5.673  24.501 -0.1268  0.0100 -0.0404
43139W        W86052  32.979  16.046   0.117 -0.1135 -0.1299 -0.0811
43140W        W86053  21.988  10.618  24.151  0.1120  0.0771 -0.2273
43141W        W86054  31.313  15.102  29.676 -0.4720  0.1051 -0.0412
43142W        W86055  21.127   7.151   1.805 -0.1828 -0.0398 -0.2461
43143W        W86056  30.012   8.924  22.310  0.1209  0.0824  0.2140
43144W        W86057  32.632   5.473   6.260  0.3720  0.0891  0.1310
43145W        W86058  29.264   3.783  26.634 -0.1421  0.1578  0.0561
43146W        W86059  33.905  10.346   4.053  0.0960 -0.2921  0.0183
43147W        W86060   1.414   5.096   8.763  0.3853 -0.0695 -0.2048
43148W        W86061  27.394   9.834   1.613 -0.0778 -0.0356  0.1211
43149W        W86062  19.453   3.036   8.198 -0.1242 -0.1477  0.1078
43150W        W86063   3.474  20.468   6.923  0.1448 -0.1772  0.1912
43151W        W86064  27.865   7.931   8.902 -0.0043 -0.2234 -0.1260
43152W        W86065   3.762   5.124  24.136 -0.1371 -0.0817 -0.3016
43153W        W86066  17.099  13.010  28.204 -0.1313 -0.1454  0.1829
43154W        W86067  22.868   9.860   0.466 -0.0253 -0.2652  0.3398
43155W        W86068  21.700   9.210   4.591  0.0841 -0.1685 -0.1234
43156W        W86069  24.848  15.934  22.399 -0.3638  0.1832  0.5045
43157W        W86070   6.474  11.429   7.831 -0.0169 -0.2292 -0.0919
43158W        W86071  27.305  17.571  28.936  0.2678  0.0348  0.2646
43159W        W86072  18.950   5.677   9.711  0.1700  0.1990 -0.2003
43160W        W86073   0.287   1.462  23.216 -0.1110 -0.3061 -0.0271
43161W        W86074   6.180   7.740   9.241  0.1085 -0.1502 -0.1220
43162W        W86075  31.146   7.805   4.576  0.1742  0.2490  0.0781
43163W        W86076  31.055  10.839   0.199  0.2551 -0.3763  0.0045
43164W        W86077  24.754  10.891   7.242  0.0351  0.1455  0.0761
43165W        W86078  31.289   0.193  11.542  0.0215 -0.0675  0.1748
43166W        W86079  32.055   4.749  11.086  0.1149  0.2694 -0.3929
43167W        W86080   2.786  17.893   8.352  0.0405  0.2416 -0.1399
43168W        W86081  29.439   8.068   6.142  0.1476  0.1226  0.0558
43169W        W86082   8.076  15.209   2.825  0.2806  0.0234  0.2046
43170W        W86083  34.010  11.292   4.428 -0.1331  0.0173 -0.0477
43171W        W86084   2.139   5.909  12.680  0.1509  0.2067  0.0375
43172W        W86085  33.108  20.193  29.078 -0.2319 -0.0632 -0.0108
43173W        W86086  16.296  13.353   7.368 -0.1364 -0.1593 -0.0516
43174W        W86087  28.367  15.309   2.800 -0.0127 -0.4440 -0.0092
43175W        W86088   3.841  10.167  27.768 -0.3680  0.1534 -0.0965
43176W        W86089  27.232   6.569  27.257  0.1513 -0.0557  0.0501
43177W        W86090  26.346  20.682   6.944  0.0510 -0.1023  0.0869
43178W        W86091  25.526   6.735   0.635 -0.0482  0.1248  0.1702
43179W        W86092  32.959  12.382  28.874  0.2410 -0.1063 -0.0239
43180W        W86093  31.632  10.746  19.730 -0.1199 -0.3787  0.2538
43181W        W86094  30.089  16.979   1.270 -0.2266 -0.1116 -0.2994
43182W        W86095  29.974  14.340   4.940 -0.2881  0.1556 -0.0237
43183W        W86096  27.512  13.169  28.997  0.2316 -0.0602  0.2323
43184W        W86097   2.451   8.419  23.521  0.1679  0.0361 -0.0778
43185W        W86098  14.476  15.266   6.539  0.0968 -0.1255 -0.0386
43186W        W86099   1.578  13.538   7.012  0.1884  0.2455  0.0507
43187W        W86100  23.901  13.521   3.814  0.0457 -0.2249  0.2063
43188W        W86101  28.167   5.518   5.834 -0.0582  0.1922 -0.4176
43189W        W86102  28.001  22.315   1.598  0.2021  0.1449 -0.1654
43190W        W86103  24.046  24.496   6.011 -0.5095  0.3144 -0.2520
43191W        W86104  30.960  19.119   1.727  0.1834  0.3248 -0.2797
43192W        W86105  27.111  13.848  28.594  0.2972 -0.1776  0.0117
43193W        W86106   0.657   7.102   2.414 -0.0980  0.1606 -0.2770
43194W        W86107   7.432   1.479   1.278 -0.1052  0.0867 -0.0443
43195W        W86108   8.856  12.040   8.172  0.1179  0.0378  0.0727
43196W        W86109  26.273   6.439   7.236  0.0156 -0.0876  0.2073
43197W        W86110  28.164  11.459   5.454 -0.2033 -0.1864  0.1621
43198W        W86111  28.760   4.858  29.686 -0.1477  0.2656  0.0550
43199W        W86112   0.534  21.977   9.254  0.0793 -0.1092  0.2273
43200W        W86113  34.083  14.137  28.515  0.0245 -0.2343  0.1028
43201W        W86114  27.826   9.011  29.186  0.1520 -0.2631  0.0612
43202W        W86115  30.584   6.229  10.362 -0.2018 -0.1075 -0.0823
43203W        W86116  27.334  34.245   8.460 -0.1486 -0.1509 -0.1491
43204W        W86117  22.185  13.042   5.978  0.1687  0.0773  0.4764
43205W        W86118  30.488  15.233   7.884 -0.1880  0.0901  0.1069
43206W        W86119  29.843   4.149   8.994 -0.0702 -0.2125  0.1492
43207W        W86120  17.223   8.893   2.014  0.1957 -0.1952  0.3486
43208W        W86121  33.102   8.616   8.627 -0.2743 -0.0263 -0.0971
43209W        W86122  30.291   7.947   1.692  0.0470  0.0717 -0.0771
43210W        W86123  32.911  17.578   7.535  0.2360  0.0075  0.1534
43211W        W86124  11.362  11.790   8.587  0.1663  0.1956 -0.1718
43212W        W86125  24.551   9.456   4.981  0.0345 -0.1303 -0.0722
43213W        W86126  23.821   7.608  10.039  0.2018  0.0640  0.0532
43214W        W86127  34.041   2.171   7.399 -0.0194 -0.3185 -0.2277
43215W        W86128   3.263  16.451   7.384  0.1476  0.1068  0.1710
43216W        W86129  28.932  14.245  27.353 -0.0938 -0.0921  0.2848
43217W        W86130  29.612  11.913   3.238 -0.0946 -0.1032  0.0136
43218W        W86131  29.438  10.892  28.592 -0.0715 -0.1073  0.1660
43219W        W86132  32.910   4.171   2.077  0.1205 -0.1330 -0.0539
43220W        W86133  29.243  17.142   0.990 -0.0356  0.0039  0.0617
43221W        W86134  28.914  13.400   3.614  0.0157  0.0311  0.1851
43222W        W86135  27.093   2.632   3.257  0.1727  0.0088 -0.4328
43223W        W86136  21.283  31.508   2.147  0.3691  0.1503 -0.2393
43224W        W86137  31.075  20.007  28.962  0.0597 -0.3934  0.2153
43225W        W86138  33.077   3.798  27.408  0.1869 -0.0933 -0.0845
43226W        W86139  28.716  33.827  11.224  0.3299  0.3838 -0.1170
43227W        W86140  26.548  30.469  29.055  0.0211 -0.0326  0.3179
43228W        W86141  31.391  12.296   6.393  0.1707  0.1271  0.4555
43229W        W86142  27.605  14.637   6.658  0.0853 -0.0985  0.1316
43230W        W86143  26.545   7.572   7.559 -0.0939  0.0728  0.0144
43231W        W86144  32.744  15.264  29.471  0.2383  0.1596  0.1778
43232W        W86145  22.320   8.136   3.607  0.1116  0.3421  0.1237
43233W        W86146   5.062  15.855   2.160 -0.0836  0.0458 -0.3595
43234W        W86147   9.955  21.953   7.496  0.0596  0.0209  0.0104
43235W        W86148   0.742   4.561   0.268  0.2107 -0.0882 -0.0652
43236W        W86149  11.181  16.764   1.313  0.1923  0.1986  0.3054
43237W        W86150   0.990  10.459   2.521 -0.1616  0.2280 -0.1030
43238W        W86151  23.306  14.578   1.470  0.0677  0.3452 -0.2031
43239W        W86152   2.047   7.754   1.929 -0.0411 -0.3647 -0.0863
43240W        W86153   0.763   8.214  10.080  0.1737  0.0583 -0.1878
43241W        W86154  32.532   8.343   5.340  0.2813  0.0226  0.2428
43242W        W86155  30.267   8.817   1.853 -0.0744 -0.0800 -0.1205
43243W        W86156  26.988   6.400   0.932 -0.0241  0.0727 -0.0260
43244W        W86157   3.462  19.952   4.242 -0.1897  0.0512  0.0123
43245W        W86158  32.172   0.843   6.722 -0.0040 -0.2032 -0.1949
43246W        W86159   4.435   5.760   1.696 -0.0459 -0.1050 -0.0473
43247W        W86160   2.067   8.138  12.864 -0.1396 -0.1532 -0.3451
43248W        W86161  30.498  15.921   6.360  0.0336 -0.0583 -0.0644
43249W        W86162   6.060   5.885   7.265  0.0284 -0.1741 -0.0217
43250W        W86163   4.145   0.955   1.955  0.0193  0.2147 -0.2015
43251W        W86164  29.704   4.819   6.325  0.0109 -0.0347 -0.1368
43252W        W86165  29.056  15.732   3.405 -0.2343  0.1405 -0.1622
43253W        W86166   1.696   9.404  25.928 -0.1163  0.1668 -0.0756
43254W        W86167   6.682   8.526   7.570  0.2004  0.0887 -0.0098
43255W        W86168  29.800   7.988   2.475 -0.1022 -0.2530  0.2452
43256W        W86169   4.444  13.611  25.111  0.1272  0.0850 -0.0033
43257W        W86170   3.178   6.426  10.968  0.1370  0.2845  0.0328
43258W        W86171  27.467  17.241   0.628 -0.3351  0.2148 -0.1367
43259W        W86172   0.782  22.364   8.277  0.0282 -0.0616 -0.1486
43260W        W86173  33.003   0.835   4.698  0.3848  0.1974 -0.0922
43261W        W86174   2.818   3.914  26.397 -0.1017  0.0257  0.0025
43262W        W86175   4.383  14.653   1.462 -0.0537  0.0192  0.0857
43263W        W86176  32.521  11.887  28.266  0.2747  0.1422  0.2589
43264W        W86177  26.559   6.024  10.475 -0.1955  0.1905 -0.0666
43265W        W86178   1.464  14.727   8.618  0.0572 -0.0196  0.1475
43266W        W86179  24.615   9.293   8.003  0.1121  0.1226  0.2367
43267W        W86180  27.224  18.598  25.872 -0.0310 -0.3812 -0.4074
43268W        W86181   4.063  10.308   6.736 -0.0960 -0.1333  0.4418
43269W        W86182  31.251  27.167   2.362  0.0130  0.1991  0.3975
43270W        W86183  28.544   5.061   3.082  0.0078 -0.0457 -0.1401
43271W        W86184  26.651  10.595   5.684  0.1144  0.1188  0.0037
43272W        W86185   6.354  11.479   8.358  0.1716 -0.0633 -0.0707
43273W        W86186  26.649  13.303   5.131  0.0423  0.0782  0.1363
43274W        W86187  32.842   4.948   9.396 -0.0253  0.1062 -0.1106
43275W        W86188   3.449   4.963   5.227 -0.4704 -0.3880 -0.0146
43276W        W86189  15.873  22.163   1.883  0.1037 -0.0042 -0.0883
43277W        W86190  28.618   4.645  28.988  0.2269 -0.1339 -0.1454
43278W        W86191  33.123   8.611   5.561  0.0342  0.0548  0.1061
43279W        W86192  32.438  16.194   8.013 -0.1167 -0.1428  0.0341
43280W        W86193  27.079  15.741   6.520 -0.1532  0.0061 -0.0929
43281W        W86194  18.560  13.750  23.909 -0.3095  0.1817 -0.0149
43282W        W86195   3.514  10.079   8.549  0.0749 -0.0189  0.0642
43283W        W86196   7.277   7.179  23.262 -0.1329 -0.2007  0.1040
43284W        W86197  22.522   9.997  15.005 -0.0251  0.0968  0.0137
43285W        W86198   0.176  17.330   3.272 -0.3797 -0.3953  0.0008
43286W        W86199  22.518  15.171  27.840  0.2252  0.0574  0.2037
43287W        W86200   8.080   1.102  10.152 -0.0037  0.3020  0.0655
43288W        W86201  28.461  12.916   8.188 -0.3089 -0.1122  0.2376
43289W        W86202   2.380  18.293   0.851 -0.2568  0.1770 -0.0900
43290W        W86203  32.378   8.957   2.231  0.0249  0.1499 -0.1593
43291W        W86204   9.951   8.532  10.098  0.0816  0.1610 -0.1667
43292W        W86205  24.998  33.068   7.047 -0.1957 -0.0379  0.2642
43293W        W86206  25.019  31.086  18.614 -0.0449 -0.1989  0.0018
43294W        W86207  32.657  11.493   9.396  0.2972 -0.1886 -0.0609
43295W        W86208  33.573   0.507   8.418 -0.0243  0.2564 -0.0972
43296W        W86209  33.728   6.282   9.073 -0.3246  0.0331 -0.1952
43297W        W86210  29.185  17.121   8.775  0.3378  0.0579  0.2999
43298W        W86211  24.901  17.171   8.817 -0.3354 -0.1153  0.1004
43299W        W86212  32.487  13.445   7.653 -0.1231  0.1700  0.4221
43300W        W86213  24.657   0.515  27.219  0.1637 -0.1581  0.0912
43301W        W86214  24.935  10.333   0.008 -0.0959  0.1883  0.1054
43302W        W86215  30.939  11.097   4.490 -0.1921 -0.1754 -0.0982
43303W        W86216  16.994  15.880  26.455  0.1678 -0.0839 -0.1626
43304W        W86217   0.319   5.177  23.098 -0.2231  0.2254 -0.0384
43305W        W86218  27.457   9.141   5.697 -0.0881  0.1466  0.1439
43306W        W86219   2.298  10.869  10.656  0.0400  0.1269  0.1860
43307W        W86220  26.539  31.363   1.456 -0.1007  0.2718 -0.1385
43308W        W86221  33.617  10.952   1.376 -0.2757  0.0476  0.2657
43309W        W86222  28.558  14.173   3.171  0.0363  0.2962 -0.0918
43310W        W86223  20.507  12.106  23.310  0.0207  0.1418  0.0387
43311W        W86224   5.006   5.657  11.683  0.2144  0.4167 -0.1501
43312W        W86225  29.454  17.075   7.863 -0.0596  0.2386 -0.2273
43313W        W86226  29.432   1.819   0.630  0.0400 -0.1655  0.3282
43314W        W86227  26.014  32.951  23.828 -0.1462  0.2061 -0.0562
43315W        W86228   2.369   8.832   7.209  0.1276 -0.0087  0.3016
43316W        W86229  30.397  28.319   0.031 -0.1739 -0.2101  0.3923
43317W        W86230  33.573   5.484  29.777  0.0830 -0.0068  0.0373
43318W        W86231  24.070  14.816   3.160  0.0165 -0.0103  0.1145
43319W        W86232   2.781   6.545   1.103  0.0899  0.2192  0.0277
43320W        W86233  30.877  16.073  24.143  0.1113 -0.1007 -0.0588
43321W        W86234  32.244  11.397   3.234 -0.4143 -0.3590 -0.0572
43322W        W86235  27.598  14.148  10.242 -0.3433  0.1557  0.0865
43323W        W86236  23.431  22.934  25.410 -0.0232 -0.1813 -0.1225
43324W        W86237   6.223  34.233  25.563  0.0568 -0.3356 -0.3476
43325W        W86238   1.599  27.586   8.965 -0.0366  0.0251  0.1205
43326W        W86239   1.478  17.428   2.082 -0.0254  0.2177  0.0256
43327W        W86240  23.043  11.200  29.484  0.0092  0.1525 -0.0163
43328W        W86241  30.963   5.526   9.229  0.1982  0.2831 -0.1993
43329W        W86242   2.072   9.546  10.345  0.3291  0.4833  0.2304
43330W        W86243   7.541   6.580   1.842 -0.1885 -0.0663  0.0124
43331W        W86244  30.323  11.661   9.600  0.0457 -0.3971  0.1517
43332W        W86245  20.938   8.295  28.560  0.1290  0.0331 -0.0459
43333W        W86246  32.303  28.676   9.301 -0.1139  0.5048  0.1542
43334W        W86247  22.435  14.833  26.872 -0.0540 -0.1345 -0.3272
43335W        W86248   7.141   8.947  11.029 -0.1970  0.1139 -0.0090
43336W        W86249   4.538  10.205   9.890  0.3970 -0.0237  0.0235
43337W        W86250  10.019   6.220   4.833 -0.0059  0.0017  0.2526
43338W        W86251  33.423   6.640   8.782  0.1579  0.0583  0.1808
43339W        W86252  29.947   8.957  29.715 -0.3042 -0.1586 -0.0303
43340W        W86253  28.985  18.343   3.559  0.1904  0.4450 -0.1267
43341W        W86254  25.710   9.664   5.337 -0.5270 -0.0422 -0.0197
43342W        W86255   1.575   6.600   9.477 -0.2630  0.0121 -0.2562
43343W        W86256  29.250  13.213   4.663  0.4539 -0.2428  0.3342
43344W        W86257  28.249   8.347   8.540  0.1788  0.2966  0.1033
43345W        W86258  31.207   0.339  10.194  0.1838 -0.0753 -0.0464
43346W        W86259  23.395  23.896   2.794  0.2945 -0.0565  0.1291
43347W        W86260  29.707   9.562   1.129  0.0951  0.1272  0.1593
43348W        W86261  22.624   2.756   5.646  0.2157  0.1312  0.0983
43349W        W86262   3.812   6.406   9.263 -0.1029  0.2233 -0.0350
43350W        W86263  29.904  10.352   4.138  0.1926 -0.2455 -0.0035
43351W        W86264  19.126   4.683   5.808  0.1086  0.2038 -0.2639
43352W        W86265  26.060   7.224   7.910 -0.0388  0.1866 -0.1792
43353W        W86266   5.941   8.381   9.940 -0.4403 -0.1803 -0.0193
43354W        W86267   1.060  11.519  10.549 -0.0754  0.1331  0.1677
43355W        W86268  25.649   2.047   6.550  0.1058  0.0996  0.4198
43356W        W86269  27.867   2.983   4.592  0.1172  0.0467  0.1154
43357W        W86270   7.136   7.534   5.361  0.0820  0.1001  0.1145
43358W        W86271  25.427   6.628  26.799 -0.0597 -0.0092  0.0727
43359W        W86272  33.420  14.394  10.037 -0.0224  0.1516 -0.1776
43360W        W86273  22.443  17.282   8.061 -0.1385 -0.0267 -0.1644
43361W        W86274   4.438  10.547   3.835  0.2483  0.1922  0.1420
43362W        W86275  25.466  33.631   6.185  0.1193  0.0413  0.1467
43363W        W86276  28.760  10.817   3.595 -0.1269 -0.4195  0.0672
43364W        W86277  32.459   9.727   8.113  0.5908  0.0810 -0.3626
43365W        W86278  28.531  16.786   0.420 -0.1226 -0.1675  0.1387
43366W        W86279  27.361   7.510   8.433 -0.0819 -0.2171 -0.0414
43367W        W86280   5.634  16.832   7.503 -0.2217 -0.0145 -0.0679
43368W        W86281  17.796  32.312  29.682  0.0231 -0.1826  0.2725
43369W        W86282  25.748  18.139   8.217 -0.0747 -0.0478 -0.2832
43370W        W86283  24.239   3.742   8.252 -0.2840 -0.0229  0.2463
43371W        W86284  18.572  13.334   6.597  0.1233  0.1309 -0.1174
43372W        W86285  26.537   5.501   1.864 -0.2011  0.0527 -0.3503
43373W        W86286   2.978  11.364   2.052  0.0735  0.1166 -0.0889
43374W        W86287   9.423   0.854   6.775 -0.1120 -0.0296 -0.0960
43375W        W86288   3.192   9.315   5.545 -0.3117 -0.0413  0.0168
43376W        W86289   4.046   5.622   3.465 -0.0905  0.0252 -0.0270
43377W        W86290  13.737   0.842   7.858 -0.0013  0.2387  0.0159
43378W        W86291  29.188  10.800   4.687 -0.2535  0.1476 -0.0402
43379W        W86292   4.141  14.505   7.165  0.0642  0.2709  0.1223
43380W        W86293   6.089  14.120   4.991 -0.0006  0.1278 -0.1376
43381W        W86294   6.148   5.596  12.816  0.0107  0.1284 -0.1561
43382W        W86295  29.501  10.539   8.197 -0.0139  0.0314 -0.3757
43383W        W86296  26.994  15.585   7.235 -0.1453  0.1588  0.0005
43384W        W86297  30.066   7.617   3.736  0.1916 -0.1434  0.1088
43385W        W86298  28.333  11.914  27.947  0.1906 -0.3916  0.0812
43386W        W86299  28.579   6.130   2.187 -0.0899 -0.2748 -0.1865
43387W        W86300  10.779   5.728  10.585 -0.1782  0.0222 -0.2910
43388W        W86301  34.036  11.179   7.862  0.3749 -0.1494 -0.0900
43389W        W86302  27.169   8.057  28.036  0.1793 -0.0752 -0.3733
43390W        W86303   2.527   1.202  10.730  0.0833 -0.0993 -0.3490
43391W        W86304  34.056  24.565   7.656 -0.0336 -0.1304  0.2000
43392W        W86305  29.583  14.871   5.526  0.1992 -0.1785  0.2206
43393W        W86306   0.425  20.729   1.919 -0.0230 -0.1905  0.2297
43394W        W86307   5.336   1.556   9.379 -0.1952 -0.0036  0.0089
43395W        W86308   4.162   8.188   5.797  0.0664 -0.1612  0.0109
43396W        W86309   0.764   7.330   4.109  0.1607 -0.2707  0.2013
43397W        W86310  28.050   3.425  25.249 -0.0179 -0.1138  0.5131
43398W        W86311  28.645   9.373   9.452 -0.5398 -0.1556 -0.1527
43399W        W86312  11.043  17.548  28.777  0.2565 -0.1898 -0.2511
43400W        W86313   6.944   8.460   9.960 -0.1906  0.0178 -0.3244
43401W        W86314  23.731  16.015   5.363  0.2324 -0.0558  0.1195
43402W        W86315  25.329  10.546   6.584  0.0799  0.2116 -0.0509
43403W        W86316  31.942   1.397  11.735 -0.1896  0.3763 -0.0837
43404W        W86317  31.200   5.941   5.660 -0.1761 -0.1467 -0.0194
43405W        W86318  20.577  11.068   0.278  0.0909 -0.1621 -0.1613
43406W        W86319   1.580   0.888  11.689  0.1646  0.1001  0.4191
43407W        W86320   1.775   0.329   5.598  0.0133 -0.1280  0.3064
43408W        W86321   2.832   6.934   1.478  0.1391 -0.1693 -0.1273
43409W        W86322  31.873   6.974   5.681 -0.0077 -0.2767  0.1191
43410W        W86323   7.035  15.256   8.027 -0.0783 -0.0325 -0.0694
43411W        W86324  29.442  14.549   3.214  0.4081  0.1701 -0.1766
43412W        W86325  32.305   0.729   9.951 -0.3321 -0.0937 -0.0375
43413W        W86326  30.998  34.112  10.997 -0.2823  0.0874  0.2386
43414W        W86327  27.624   9.259   5.139  0.0722  0.2441 -0.3836
43415W        W86328   1.958   3.537   6.531 -0.0191  0.2078 -0.0628
43416W        W86329  30.347   6.056   9.269  0.1491 -0.2845  0.0203
43417W        W86330   6.597  19.679   2.073  0.1819 -0.2969 -0.1785
43418W        W86331   8.010   9.885   3.820  0.0974  0.0377 -0.2744
43419W        W86332   7.875  14.204  10.073 -0.1009  0.0736  0.0626
43420W        W86333  31.029   4.708  11.351  0.0388 -0.1271  0.0278
43421W        W86334  31.333   8.250   6.919 -0.0740 -0.0259  0.1366
43422W        W86335  11.438   9.267   3.509 -0.0650 -0.2780 -0.0963
43423W        W86336   2.538   5.078  12.641  0.1298 -0.0527  0.1899
43424W        W86337  27.363   8.475   3.824 -0.0811  0.2158 -0.2301
43425W        W86338  31.448   9.249   4.762 -0.2281  0.0364  0.3760
43426W        W86339  27.973   5.615   9.933  0.1593  0.0315 -0.4886
43427W        W86340   2.141   1.795   9.066 -0.1040 -0.0856  0.0105
43428W        W86341   0.540   2.311  10.348 -0.0808  0.0649  0.0621
43429W        W86342   2.821  18.921   7.194 -0.0839 -0.1023 -0.2273
43430W        W86343  27.034  34.368   9.652 -0.1969  0.1811 -0.0128
43431W        W86344  28.628   8.745   6.084  0.1694  0.1548  0.1866
43432W        W86345   0.438  14.017   3.043  0.0046  0.2659 -0.0928
43433W        W86346   1.879  19.348   4.457  0.2998  0.1083  0.0343
43434W        W86347   4.801  16.535   9.464 -0.2282 -0.1777  0.1621
43435W        W86348   3.034   6.738   7.771 -0.0928 -0.0276 -0.1396
43436W        W86349  32.320  30.357   3.735  0.2290  0.0477  0.0267
43437W        W86350   1.458  15.025   3.638  0.0952  0.3502  0.3986
43438W        W86351   4.903  15.934   6.090 -0.2719 -0.3144  0.1623
43439W        W86352  31.978  11.073   9.577  0.1375  0.1736  0.0425
43440W        W86353   4.814  14.120   7.746 -0.0836 -0.3456 -0.2784
43441W        W86354  32.586   5.838   1.606  0.0783 -0.0069 -0.1041
43442W        W86355  27.083  11.286   9.135  0.0207 -0.2489  0.1924
43443W        W86356   8.002   8.195  11.818  0.1020 -0.0926  0.3552
43444W        W86357  30.360  15.844   9.361 -0.2090 -0.1648  0.0275
43445W        W86358  24.687  20.467   7.149 -0.1404 -0.0542  0.0286
43446W        W86359  24.180  20.495   6.898 -0.1196 -0.3062  0.3607
43447W        W86360  33.359  11.852   3.964 -0.2504  0.3291 -0.0313
43448W        W86361  26.469   1.354   9.833 -0.0726  0.1163  0.0040
43449W        W86362   1.777   9.527   5.371 -0.2067 -0.0996 -0.3222
43450W        W86363  24.504   5.662   6.838 -0.2856  0.0175 -0.1707
43451W        W86364  23.675   7.972   6.311  0.5809  0.2810  0.0620
43452W        W86365  24.947  14.407   8.752  0.1930 -0.1940  0.1399
43453W        W86366  13.123   1.061   8.699 -0.0008  0.1339  0.0686
43454W        W86367  33.476   1.544  10.023 -0.0564 -0.1905  0.0110
43455W        W86368  22.080   2.622   5.491 -0.0168  0.1097  0.5494
43456W        W86369   5.333   9.748   9.951  0.0688 -0.0140 -0.2054
43457W        W86370  26.910  14.185  23.487  0.0065  0.3428 -0.1115
43458W        W86371  30.971  13.218   6.723  0.4185  0.1873 -0.1878
43459W        W86372   2.492  20.529  25.482 -0.2325 -0.0125  0.0604
43460W        W86373  26.331  12.461   4.915  0.3990  0.1780  0.2456
43461W        W86374   4.077  11.057  10.378 -0.0771 -0.1211  0.1324
43462W        W86375   9.983   5.802  27.453 -0.1248  0.2341 -0.1765
43463W        W86376  24.666   6.416   0.081  0.1018 -0.0234  0.0513
43464W        W86377   7.854   9.471   7.666 -0.1988  0.3135 -0.2314
43465W        W86378  28.394  10.210   8.901  0.0181 -0.3054  0.0313
43466W        W86379  27.756   9.708  29.558 -0.0560 -0.0296 -0.0426
43467W        W86380  29.787  16.250   1.590  0.1527  0.4650 -0.1082
43468W        W86381  33.500  17.128   8.172  0.0569  0.1050 -0.0581
43469W        W86382   3.893   7.070   7.577  0.0687 -0.0630  0.0260
43470W        W86383  27.909   1.212  28.661 -0.0209 -0.0445 -0.0402
43471W        W86384  25.765   3.467   7.760 -0.0211 -0.0464  0.2187
43472W        W86385  30.140  13.921   8.059 -0.1849  0.0915  0.1581
43473W        W86386  33.708  17.505   3.686  0.1485 -0.3135 -0.3562
43474W        W86387  22.125  11.512   5.480 -0.0886  0.2756  0.1270
43475W        W86388  30.648  10.871   9.436 -0.0436 -0.1334 -0.1223
43476W        W86389  34.083   9.444   9.385  0.1300  0.0412  0.0489
43477W        W86390   4.717   4.814  12.685 -0.1877  0.1032  0.1783
43478W        W86391  28.238  13.925   7.011  0.1264  0.0160 -0.2389
43479W        W86392  29.857  32.115   4.644  0.0325  0.0082 -0.1816
43480W        W86393  33.164   9.150  26.589 -0.0950 -0.1693 -0.0167
43481W        W86394   5.045  30.603   9.607  0.1137  0.0910 -0.2259
43482W        W86395   4.607  31.426  29.340 -0.0276  0.0070  0.2311
43483W        W86396  28.339   7.597  10.344  0.1790  0.1033  0.0550
43484W        W86397   3.363   7.903   5.822  0.1475  0.0478  0.1656
43485W        W86398  17.454  11.105  29.268 -0.0427  0.0753 -0.1631
43486W        W86399  25.120   3.738   6.719  0.0931  0.0626  0.0160
43487W        W86400  33.866  14.354   8.606  0.0484 -0.2190  0.2109
43488W        W86401   3.374  12.390   1.569 -0.0323 -0.2330  0.3037
43489W        W86402   6.459  11.060   5.420 -0.0179  0.3826 -0.0623
43490W        W86403   2.791  21.885   3.159  0.0003 -0.2219 -0.0198
43491W        W86404  29.766  13.121   8.675  0.0384  0.2761 -0.0406
43492W        W86405  21.203   9.819   3.334 -0.1043 -0.3226  0.2101
43493W        W86406  25.424   6.482   3.858  0.2619  0.0933 -0.4476
43494W        W86407   3.003  18.359  26.696  0.1335 -0.3258  0.2645
43495W        W86408  14.306  15.193   4.484  0.1138 -0.0155  0.3062
43496W        W86409  26.346  12.132  29.663  0.0133 -0.0072  0.0873
43497W        W86410  30.848   5.815   3.381  0.0645 -0.2343 -0.1542
43498W        W86411  27.165   8.139   4.942  0.2583 -0.1930  0.0568
43499W        W86412  28.029   9.638   4.083  0.0741  0.1027  0.3249
43500W        W86413  27.300  11.875   9.438 -0.0808 -0.4165  0.0968
43501W        W86414  32.532  32.584   9.822  0.0541 -0.0650 -0.1088
43502W        W86415   1.291  10.652  28.547 -0.0130  0.1668 -0.4582
43503W        W86416  30.728  17.094   5.410  0.2028 -0.0752  0.1136
43504W        W86417   4.586   2.977   3.825  0.1083 -0.1329  0.1202
43505W        W86418   3.891   8.626   5.907  0.0416 -0.3609  0.3627
43506W        W86419   2.818   4.921  29.448 -0.3055  0.0309 -0.0147
43507W        W86420  25.796  14.833  24.467  0.1767  0.1614 -0.0604
43508W        W86421   1.173   3.119   0.949  0.0023  0.0674 -0.1284
43509W        W86422  11.689   5.770  10.667 -0.0442 -0.2177  0.2735
43510W        W86423  32.145  18.122   7.586 -0.3041 -0.0467 -0.0732
43511W        W86424  32.623   3.815   0.063  0.0505  0.0409  0.3973
43512W        W86425   0.556  14.101   5.463 -0.0428 -0.3369  0.1156
43513W        W86426  27.614   5.970   9.957  0.2658  0.3436 -0.0726
43514W        W86427  25.355  12.737   4.440 -0.0708  0.0262  0.0247
43515W        W86428  24.477   9.006   6.692  0.2951  0.2491  0.0083
43516W        W86429  31.356   9.491   7.240 -0.3404 -0.2431 -0.0330
43517W        W86430   9.647   7.647   9.980  0.0141  0.1403 -0.0575
43518W        W86431  13.706   2.209   4.157 -0.1214 -0.1113 -0.0936
43519W        W86432   6.299  20.320   6.798  0.1700  0.1869  0.0365
43520W        W86433  30.308   8.984   5.366 -0.0088 -0.0972  0.2035
43521W        W86434  29.228  12.927   5.508  0.2522  0.0450 -0.1799
43522W        W86435  23.557   1.518   9.306 -0.2179 -0.1297  0.1781
43523W        W86436  32.522  12.074  10.442  0.2110  0.4045 -0.0363
43524W        W86437   7.108   2.640  10.149  0.1811 -0.2163  0.3271
43525W        W86438  28.061   9.971   4.481  0.1524 -0.1876  0.1090
43526W        W86439  26.921   8.197   8.579 -0.1031  0.2591  0.0427
43527W        W86440  32.141  19.087  29.499 -0.1526 -0.1666 -0.1861
43528W        W86441   4.750   1.789   0.047  0.0373  0.2344  0.0628
43529W        W86442   0.362  28.401   9.671 -0.1065  0.1852 -0.2040
43530W        W86443  25.343   8.525   0.451 -0.2204 -0.0168 -0.0611
43531W        W86444  31.036   8.544   9.187  0.0261  0.0114  0.1817
43532W        W86445  28.727  10.902   4.506 -0.1369  0.0570 -0.1108
43533W        W86446  33.009   7.262   6.017  0.0602  0.1008  0.2688
43534W        W86447  18.939   7.257   1.272 -0.2175  0.2510 -0.0844
43535W        W86448   0.948  13.326   3.620 -0.0587 -0.0276 -0.0561
43536W        W86449  23.857   4.969   2.749 -0.2366 -0.3731 -0.0388
43537W        W86450   5.598   5.904   4.057 -0.0844  0.0523  0.0349
43538W        W86451  32.023   9.325   2.048 -0.0978 -0.0261 -0.1259
43539W        W86452  27.680  14.633   7.204  0.2013  0.2195 -0.1407
43540W        W86453  33.190   3.474  10.868  0.0770 -0.0869  0.1352
43541W        W86454  32.867  22.455   3.282  0.1188 -0.4467  0.0562
43542W        W86455   7.640   4.974   5.865  0.1283  0.0539 -0.0602
43543W        W86456   8.515   4.758  12.860 -0.2178  0.3617 -0.0201
43544W        W86457  28.555   7.189  10.764 -0.3546  0.2699  0.1101
43545W        W86458  22.443  11.612   4.805  0.1642 -0.2401  0.4140
43546W        W86459   0.381   2.311   9.877  0.2509 -0.0600 -0.0791
43547W        W86460  21.597  10.709   7.505  0.1464 -0.1530 -0.1488
43548W        W86461  13.291   9.895   8.007 -0.0727  0.1219  0.1541
43549W        W86462  30.213   7.778   2.796  0.0101  0.2307 -0.0565
43550W        W86463  25.048  33.322   9.753  0.0788 -0.0053  0.3158
43551W        W86464  21.397   5.981   8.075 -0.0734  0.0637 -0.1333
43552W        W86465  31.078   5.136   9.599  0.0470  0.2446 -0.2630
43553W        W86466   5.413  14.830   8.244 -0.0207  0.2081 -0.1161
43554W        W86467  12.070   4.522   9.137  0.1302  0.2410 -0.3106
43555W        W86468   1.492  13.723   5.014  0.0742 -0.3731 -0.0247
43556W        W86469   0.173   1.577   8.730  0.0223 -0.0300 -0.3309
43557W        W86470   5.661  10.125   3.827  0.0753 -0.1729  0.0874
43558W        W86471   1.979   3.724  28.778 -0.0268  0.0438 -0.1686
43559W        W86472   1.014   4.352   7.092  0.0870 -0.1642 -0.2539
43560W        W86473  29.888  10.173   9.763 -0.1626 -0.0938  0.3589
43561W        W86474  33.224   8.552   9.545  0.2016  0.0278 -0.0371
43562W        W86475  26.927  12.103   3.645  0.0701  0.1785 -0.4143
43563W        W86476   2.423   3.327  11.265  0.0740 -0.1976 -0.1180
43564W        W86477   5.784  15.611   0.942  0.3368 -0.1056 -0.3557
43565W        W86478  31.494   5.355   4.197  0.2854 -0.3000 -0.0197
43566W        W86479   1.925  10.448  10.783  0.1482  0.0479  0.3208
43567W        W86480  22.563  19.075   5.300 -0.1136 -0.2289 -0.0880
43568W        W86481  33.405  19.076   2.638 -0.3267  0.1494  0.0755
43569W        W86482   0.915   8.443  11.830  0.1976  0.2581 -0.2651
43570W        W86483  31.193   4.907  10.925  0.0136  0.2176  0.1065
43571W        W86484  25.064  15.822   6.320  0.0265  0.3687  0.0257
43572W        W86485   2.438   0.557   2.347  0.2516 -0.3777 -0.1554
43573W        W86486   4.693   6.436   9.737 -0.2873 -0.0658  0.2107
43574W        W86487   3.131  16.060   6.033  0.2096 -0.0228  0.3800
43575W        W86488   0.282  15.094   0.838  0.1513 -0.3114  0.1208
43576W        W86489  23.308   4.557   7.668 -0.0059 -0.3319  0.0698
43577W        W86490  21.846  14.427   4.770 -0.1372 -0.1617  0.2895
43578W        W86491  10.338  33.942   3.682  0.1130 -0.4138  0.0747
43579W        W86492   3.269   9.418  11.853  0.1709 -0.1334  0.1020
43580W        W86493  28.800   8.027   4.320  0.1236  0.4258 -0.3480
43581W        W86494  34.027  11.855   5.761 -0.3366  0.0553  0.1226
43582W        W86495  27.387  31.564   7.645  0.0632 -0.0066 -0.0916
43583W        W86496   2.319   8.819   9.364 -0.4162  0.2974 -0.0757
43584W        W86497  30.981  18.263  29.295 -0.2063 -0.1721 -0.1526
43585W        W86498   3.663   9.266  11.402  0.2863  0.2544 -0.0928
43586W        W86499  23.460   1.595   8.624 -0.2975  0.2001 -0.2755
43587W        W86500  26.625   7.478   8.962  0.2668  0.1592 -0.0908
43588W        W86501   7.406  11.037   0.885 -0.0816  0.0851  0.2191
43589W        W86502   0.088  19.401  29.555  0.3405  0.3509  0.1885
43590W        W86503  13.029   7.944  18.215  0.3240  0.2087  0.0513
43591W        W86504   5.581  12.137   1.509 -0.0964  0.1323  0.2251
43592W        W86505  27.931  11.137   6.138  0.0591  0.0212  0.2534
43593W        W86506  34.352  12.688   5.425 -0.0468  0.1664 -0.0633
43594W        W86507   1.035   4.637  12.132  0.0386 -0.0483 -0.0010
43595W        W86508  28.106   5.880   7.103 -0.2220 -0.2955 -0.0756
43596W        W86509   4.678  15.403   8.014 -0.3027 -0.2075 -0.0736
43597W        W86510  31.791  31.117   8.156  0.0826  0.1277  0.2664
43598W        W86511   3.463  13.348   2.455 -0.2161 -0.0917  0.1297
43599W        W86512   0.102  13.474   1.423  0.2679 -0.4958  0.1371
43600W        W86513   9.964   6.071  12.054  0.0188 -0.0446 -0.0873
43601W        W86514   7.108  14.252   6.398  0.0046  0.2713 -0.1280
43602W        W86515  32.767  30.766   7.889 -0.0860  0.1251 -0.0639
43603W        W86516   6.962  14.976   9.132 -0.4146 -0.0343 -0.0573
43604W        W86517  10.485   3.724   5.896  0.4672  0.1433  0.1740
43605W        W86518   6.536  11.382   4.397  0.0871 -0.0335 -0.0181
43606W        W86519  30.682   8.401  24.861  0.1448 -0.1282  0.0396
43607W        W86520  32.893  16.392   5.553 -0.0262  0.1614  0.0298
43608W        W86521  19.863  27.606   2.593  0.0040 -0.2641  0.0789
43609W        W86522  24.030  11.919   1.114  0.2244  0.0196 -0.1406
43610W        W86523  29.817   6.712   8.057 -0.1859  0.2242 -0.3360
43611W        W86524  24.073  14.536   6.755  0.1114  0.0044  0.0665
43612W        W86525  19.499  12.061   5.346 -0.5093 -0.0814  0.2617
43613W        W86526   1.287   3.518  25.250 -0.1236 -0.1015 -0.1038
43614W        W86527   4.358   3.829   0.440  0.1998 -0.2020 -0.1466
43615W        W86528  30.114   0.045  11.678  0.0968  0.1328 -0.1583
43616W        W86529   0.936  15.367   8.769 -0.1377  0.1073  0.2156
43617W        W86530  33.853   9.313   3.543 -0.1652 -0.1059  0.0905
43618W        W86531   8.750   5.947  12.216  0.0346  0.1755  0.1058
43619W        W86532  34.376  12.551   8.257  0.3264 -0.1118  0.0833
43620W        W86533  34.475   5.995  10.311  0.2581  0.0211  0.1154
43621W        W86534  26.683   9.287   3.654 -0.3368 -0.1084  0.1809
43622W        W86535  30.403  11.124   4.530  0.0233  0.3308 -0.0479
43623W        W86536  29.101  14.293   9.507 -0.3192 -0.0036 -0.1733
43624W        W86537  25.482  14.726   5.824 -0.3011  0.0657 -0.0263
43625W        W86538   1.921   9.636   4.358 -0.1376  0.0442 -0.2820
43626W        W86539  22.143  32.949   2.837 -0.2985 -0.2611  0.2010
43627W        W86540  25.385  30.065   7.358  0.0702  0.1577  0.1341
43628W        W86541   8.823  14.272   6.926 -0.0025  0.2716 -0.2721
43629W        W86542  31.905   7.201   5.191  0.1137 -0.0816 -0.1502
43630W        W86543  23.202  15.246   4.365 -0.2136  0.3305 -0.2081
43631W        W86544  29.753  11.273   0.628 -0.2206 -0.0945 -0.1001
43632W        W86545   1.835  15.014   9.866 -0.1486  0.2844 -0.0532
43633W        W86546  33.533   3.902  11.953  0.3131 -0.3687 -0.1313
43634W        W86547  31.573   0.359   7.914 -0.0050 -0.0223 -0.0490
43635W        W86548  29.876   8.432  10.219 -0.1417  0.0587 -0.0347
43636W        W86549  29.137  10.661   9.248 -0.2141  0.2554  0.2738
43637W        W86550   6.341   5.359   7.860 -0.2041 -0.2972  0.2095
43638W        W86551   3.003  11.617   3.891 -0.2101 -0.0412 -0.2655
43639W        W86552  29.806   2.785   7.830  0.0226  0.0160  0.1135
43640W        W86553   8.038  11.598   0.202  0.1650  0.2191 -0.2573
43641W        W86554   3.194   9.702   9.953 -0.2920 -0.0159 -0.0873
43642W        W86555  29.111  17.496  28.703  0.1366 -0.0004  0.5519
43643W        W86556   3.883   8.203   8.628 -0.0040 -0.2039 -0.1643
43644W        W86557   0.152  10.651   6.893  0.0336 -0.0283  0.1506
43645W        W86558   0.989  15.260   7.274  0.0624 -0.2603 -0.2043
43646W        W86559   7.097  10.209   4.855 -0.1653  0.3079 -0.0402
43647W        W86560  23.290  14.782   6.121  0.0253 -0.1551 -0.0062
43648W        W86561  30.108   9.451   8.766 -0.2176 -0.3744  0.4518
43649W        W86562  29.057  15.268   4.964 -0.0551  0.1715 -0.0245
43650W        W86563  25.849  17.672  22.864 -0.2610  0.2326  0.5028
43651W        W86564  32.499   2.954   4.108  0.0436 -0.1305 -0.1654
43652W        W86565  22.658  16.696   7.656 -0.1915  0.0592  0.2079
43653W        W86566  19.898  12.304  22.994 -0.1923 -0.1657  0.3302
43654W        W86567  32.002  22.113  21.825  0.0117 -0.2044  0.0533
43655W        W86568   0.339  24.706   8.200  0.0618 -0.0686 -0.1675
43656W        W86569  30.764  16.400   0.923  0.1450 -0.0965  0.1413
43657W        W86570  24.788  20.885   1.585  0.3242 -0.2970  0.2148
43658W        W86571  30.204  11.784   4.723 -0.3920 -0.0055  0.1849
43659W        W86572  28.062  20.242   3.425 -0.1055 -0.3054 -0.3146
43660W        W86573  28.775  14.568   1.822 -0.0424 -0.0876  0.2470
43661W        W86574   2.615   4.236  21.993 -0.0906 -0.0614  0.0425
43662W        W86575  30.107  19.528  28.160  0.0298 -0.1459  0.1239
43663W        W86576  34.281   3.825  29.211 -0.2434 -0.4853 -0.0289
43664W        W86577   2.328  14.125  25.488 -0.1954 -0.0704 -0.3714
43665W        W86578   7.429   4.551   7.210  0.0829 -0.3468  0.1231
43666W        W86579  27.880  12.137   3.492  0.0018 -0.2597  0.1100
43667W        W86580  33.822   7.582   6.502  0.0067 -0.0079  0.1624
43668W        W86581  30.953  30.308  23.753 -0.2662  0.2843 -0.0901
43669W        W86582  34.252   8.686  19.229  0.2698 -0.0484  0.0097
43670W        W86583  31.765  15.144   0.909 -0.2274 -0.0408  0.4128
43671W        W86584  21.212  22.064  26.858  0.0857 -0.1020 -0.0911
43672W        W86585   0.768  22.333   2.742 -0.0806  0.0289 -0.2160
43673W        W86586  30.986   9.010   0.536 -0.1808  0.1938  0.2166
43674W        W86587  25.359  11.399   3.546 -0.0375  0.0167 -0.2903
43675W        W86588  33.260  17.704   3.820 -0.0929  0.2190  0.2974
43676W        W86589  31.013  15.353   7.603  0.1936  0.0426  0.0648
43677W        W86590  32.075  18.054  28.087 -0.0387 -0.0392 -0.0349
43678W        W86591   0.190  13.969   6.756 -0.1668 -0.2170  0.2736
43679W        W86592  27.520  13.405   6.963 -0.2843 -0.0691 -0.2671
43680W        W86593   3.971  16.005   1.366  0.0388 -0.0586  0.1662
43681W        W86594  27.364  16.734   3.493 -0.2608  0.1429  0.0883
43682W        W86595  33.816  22.292   7.638 -0.0917  0.3499 -0.0891
43683W        W86596  22.573  14.494   2.433  0.2371  0.3031  0.5025
43684W        W86597  17.377  22.387  25.394  0.1723 -0.1271 -0.1281
43685W        W86598  26.745  13.993  28.161  0.1252  0.3207  0.1583
43686W        W86599   1.811   3.877   4.769 -0.0395  0.0047  0.1630
43687W        W86600  32.863  11.342   4.232  0.3041  0.2493  0.0333
43688W        W86601  24.483  13.899   2.259 -0.0166 -0.0341 -0.2361
43689W        W86602  32.931  27.793  29.031  0.1773 -0.3294 -0.0582
43690W        W86603  31.351  11.664   1.271  0.0397  0.3775  0.0227
43691W        W86604  34.032  12.786   7.195 -0.2645 -0.0826 -0.0933
43692W        W86605  23.507  10.349   4.896  0.1292  0.2281  0.0370
43693W        W86606  25.918  19.927  26.280 -0.2029 -0.1699  0.0833
43694W        W86607  32.726  13.852  27.668  0.0072 -0.0180  0.3571
43695W        W86608  29.363  29.085   3.138  0.1205 -0.1743  0.2717
43696W        W86609  19.147   5.200   8.513  0.3714  0.1080 -0.0116
43697W        W86610  24.463   8.663   5.901  0.0329  0.3853 -0.0294
43698W        W86611  24.104  29.574  21.881 -0.3701  0.2934  0.1694
43699W        W86612  29.640  14.850   6.056 -0.0977  0.1395  0.0701
43700W        W86613  20.417   8.601  22.700 -0.1181  0.1079  0.0337
43701W        W86614  29.736   7.738  18.561  0.1483 -0.0269  0.1551
43702W        W86615  31.931  17.618   8.045 -0.2203 -0.2897 -0.0281
43703W        W86616  29.178  14.499   0.854  0.0931 -0.0885  0.2113
43704W        W86617  28.829   7.175  22.158 -0.0234  0.3612 -0.1173
43705W        W86618  23.716  19.226   7.459 -0.0406 -0.5432 -0.3871
43706W        W86619  33.374  17.041   2.520  0.1340 -0.0435  0.0271
43707W        W86620   2.108  18.662   1.710 -0.1267 -0.1958 -0.0638
43708W        W86621   6.241  15.055   7.298 -0.0261  0.1643  0.1914
43709W        W86622   6.924  14.550  26.941  0.3729  0.0648  0.1796
43710W        W86623  33.337  14.549   5.076  0.1402 -0.2403 -0.0427
43711W        W86624   4.455   8.479  12.439 -0.0057  0.1069 -0.3453
43712W        W86625  31.339  20.638  27.855 -0.1722  0.1510  0.1612
43713W        W86626  15.923  31.979  26.757 -0.0209 -0.0776 -0.1088
43714W        W86627   2.482  10.247   6.426 -0.1293  0.0912 -0.0697
43715W        W86628   0.636  23.353  24.661  0.4248 -0.0153 -0.0164
43716W        W86629  25.624   9.082   1.364  0.0052  0.2388 -0.2469
43717W        W86630  27.138  12.039   4.114  0.0396 -0.0404  0.0338
43718W        W86631  33.121   8.680   6.987  0.1257  0.1191 -0.0468
43719W        W86632  15.026   2.374  27.134  0.1580 -0.2605  0.4142
43720W        W86633  25.876   1.315   7.426 -0.2057 -0.2996 -0.0116
43721W        W86634   5.559  10.655   6.250  0.0048 -0.0678  0.0255
43722W        W86635  28.163  13.832  21.487  0.1261  0.1309 -0.0334
43723W        W86636   3.023   6.598  28.532 -0.1197  0.0363  0.0123
43724W        W86637  25.766  15.293   2.519 -0.2321  0.1722  0.3074
43725W        W86638   1.067  20.170   2.285  0.0126 -0.1857  0.2382
43726W        W86639  33.109  21.376   6.230 -0.1826  0.1563 -0.1042
43727W        W86640  25.517   7.119   7.818  0.0052 -0.0056  0.0923
43728W        W86641  29.337  13.633  19.386  0.0829 -0.1994 -0.2025
43729W        W86642  34.322  12.032   3.838 -0.0163 -0.1219  0.1415
43730W        W86643  33.967  23.110   4.556  0.0086 -0.1206 -0.2945
43731W        W86644  32.801  20.195   8.579  0.2892 -0.0678 -0.0789
43732W        W86645  20.742  15.382   6.460  0.1249 -0.1116 -0.0672
43733W        W86646  33.475  15.097   5.705 -0.0611 -0.1641  0.3447
43734W        W86647   1.007  21.443  26.774  0.0588  0.1107 -0.1738
43735W        W86648  22.356  12.008   4.330 -0.0860 -0.4045 -0.2083
43736W        W86649  29.736   8.790   8.767 -0.1290  0.1859  0.0871
43737W        W86650   2.038  17.730   4.971  0.2876 -0.1770 -0.0349
43738W        W86651   4.437  20.355   6.116  0.0039 -0.3796  0.0854
43739W        W86652   0.498  11.226   3.459 -0.2619  0.0311  0.2104
43740W        W86653  33.958  16.892   5.811 -0.0518 -0.2509 -0.1282
43741W        W86654  23.869  11.090   5.023  0.0918  0.0597  0.0014
43742W        W86655  22.659  14.051  23.669 -0.2530 -0.0850 -0.2735
43743W        W86656  26.958   9.273  29.558 -0.1533 -0.1147  0.1477
43744W        W86657   6.518  19.948  24.287  0.2043  0.2426 -0.1281
43745W        W86658  33.448   9.749   7.943  0.2150 -0.1288  0.3918
43746W        W86659  22.068  16.258  26.897 -0.1181  0.3647  0.2099
43747W        W86660  29.957   9.112  21.478 -0.1914  0.1403 -0.2476
43748W        W86661  23.728  20.627  19.406 -0.0851 -0.1777 -0.1911
43749W        W86662  24.389   4.275  29.771  0.0580  0.0114  0.0264
43750W        W86663   1.960  15.683  28.277 -0.1916  0.1763  0.1786
43751W        W86664  23.960  23.613   5.661  0.1870 -0.0846 -0.1063
43752W        W86665  33.795  11.741  28.156  0.1210 -0.0641 -0.0416
43753W        W86666   0.684  14.396   0.342 -0.0977 -0.0891 -0.0223
43754W        W86667  30.318   2.402   3.755  0.1493 -0.0622 -0.0458
43755W        W86668  29.788  17.590  18.614  0.2505 -0.1089 -0.1069
43756W        W86669   6.216  11.928  27.009 -0.3663  0.1485  0.0179
43757W        W86670  29.062  24.126   9.686 -0.1419 -0.0608  0.0743
43758W        W86671   3.383   9.483  21.918  0.0378 -0.1459 -0.1640
43759W        W86672   1.858  14.608  23.378 -0.3408  0.1365  0.0357
43760W        W86673  34.131  15.864  26.900  0.2854 -0.1077 -0.1422
43761W        W86674  28.450   9.144  23.372  0.1229 -0.1281  0.0088
43762W        W86675  22.980  16.041   7.499 -0.0929  0.0524  0.3820
43763W        W86676  31.289  15.341  28.443 -0.2155 -0.4029 -0.0459
43764W        W86677  30.537  20.337  29.484 -0.2065  0.3076 -0.1737
43765W        W86678   4.961  14.452   8.095 -0.0604  0.3106  0.0023
43766W        W86679   5.072  10.881  26.104  0.0927  0.0019 -0.0227
43767W        W86680  26.253  12.623   1.797  0.1226 -0.0766  0.1949
43768W        W86681  28.352  21.940   0.176 -0.0158 -0.0779  0.0311
43769W        W86682   5.947  13.527   7.192  0.0937 -0.0245  0.0384
43770W        W86683  31.055  11.545   1.640 -0.2796  0.0476 -0.2377
43771W        W86684  22.648  10.270  29.402 -0.0150 -0.2483 -0.1529
43772W        W86685  32.282  13.240   0.858  0.0324 -0.2933  0.0489
43773W        W86686  31.759   6.637   0.869  0.0789 -0.1304  0.0496
43774W        W86687  28.687   6.049  25.087  0.2378 -0.3112  0.3348
43775W        W86688  32.594   5.320   6.805  0.2743  0.1563  0.0168
43776W        W86689  21.027   7.307   8.374 -0.0549  0.0246 -0.1915
43777W        W86690  33.817  15.867   0.312 -0.1053  0.0252  0.1167
43778W        W86691  27.777  18.485   2.955  0.1229 -0.4990  0.0587
43779W        W86692  30.221  13.261  28.248 -0.0514 -0.1378  0.0427
43780W        W86693  27.093  11.535  28.337 -0.3156  0.1571 -0.0474
43781W        W86694  33.619  19.594   7.505 -0.2118 -0.1937  0.0877
43782W        W86695  19.539  14.135  25.485 -0.0026 -0.1880 -0.0998
43783W        W86696  22.334  17.883  27.173 -0.1419 -0.0723  0.1750
43784W        W86697  33.125  10.548  19.972 -0.1436  0.0559  0.0022
43785W        W86698  31.977  17.361  29.462 -0.2183  0.3827 -0.1013
43786W        W86699  26.924  10.377  29.229  0.3260  0.1543 -0.0397
43787W        W86700  11.168  16.321   0.771  0.0180  0.0237  0.0036
43788W        W86701  18.495  26.048  19.775  0.1395  0.0272  0.1699
43789W        W86702  22.072  13.414   6.483  0.2861 -0.2184 -0.2715
43790W        W86703  30.012   9.868  23.254  0.1906  0.0723 -0.0481
43791W        W86704   9.950  14.856   3.406  0.1080  0.1823  0.0325
43792W        W86705  20.499  12.648   6.550 -0.0715 -0.1711  0.0371
43793W        W86706  18.170  14.294   3.063 -0.1113  0.3066  0.1273
43794W        W86707  19.919  13.826  25.528 -0.1399 -0.0728 -0.0741
43795W        W86708  32.805  13.022   8.010  0.3380 -0.2078 -0.0083
43796W        W86709   2.473  28.747   2.544 -0.2511 -0.0185  0.0424
43797W        W86710   2.853  13.659  25.087 -0.1694  0.0026  0.3827
43798W        W86711  23.110  17.452   6.007 -0.0259  0.0505 -0.1051
43799W        W86712  28.630  17.842  28.698 -0.0127 -0.1402  0.1717
43800W        W86713   3.072   6.396   6.529 -0.1044 -0.0122 -0.2662
43801W        W86714  23.232  10.942   2.946 -0.1663  0.0318 -0.1215
43802W        W86715  29.297  13.411  25.077  0.0948  0.0074  0.2215
43803W        W86716   5.068  12.661  26.892 -0.1011 -0.0402  0.1565
43804W        W86717  26.025  16.237   1.499  0.1152  0.0467  0.3373
43805W        W86718  22.135   7.223  10.039  0.1661 -0.1005  0.1734
43806W        W86719  33.663   4.291   1.399  0.0352  0.0191 -0.2633
43807W        W86720  27.859   8.790   5.050  0.0423  0.3598 -0.1321
43808W        W86721  31.578  11.961   2.953  0.0360 -0.0637 -0.0944
43809W        W86722   2.285  14.048   0.334  0.0616 -0.1063  0.1994
43810W        W86723  26.116  10.980  26.277 -0.2899 -0.0950 -0.2150
43811W        W86724  33.499  17.118  14.162 -0.1134 -0.0765  0.1557
43812W        W86725  25.279   9.656   3.111 -0.3147 -0.0840 -0.4231
43813W        W86726  30.864  10.943  23.712 -0.2207 -0.2408 -0.1737
43814W        W86727  18.017   4.310   3.408  0.1714  0.1573 -0.0439
43815W        W86728  14.451   2.712  26.671  0.3757  0.3159 -0.0844
43816W        W86729  28.010   8.980  19.870 -0.1420 -0.0295  0.1361
43817W        W86730  26.498  11.458  27.747  0.3694 -0.1142 -0.0906
43818W        W86731   4.180  15.541   5.594 -0.0220 -0.1646 -0.0315
43819W        W86732  25.131  15.707   2.570  0.1120 -0.1157  0.0407
43820W        W86733  21.473  17.154   3.296  0.1120 -0.0654 -0.2601
43821W        W86734  20.070  17.653  24.552  0.1016  0.2458 -0.5851
43822W        W86735  29.199  24.106  26.507  0.2082  0.0460  0.0482
43823W        W86736  23.377  15.816  24.988 -0.0034  0.1412  0.0979
43824W        W86737  21.823  10.630  23.610  0.1331 -0.1265  0.1145
43825W        W86738  29.218  19.214  19.684  0.1992 -0.1901 -0.0475
43826W        W86739  21.403  17.330   1.283  0.1171  0.2230  0.1069
43827W        W86740  29.726  12.915   1.963 -0.1515  0.0084 -0.4098
43828W        W86741  29.323  14.159   9.066 -0.2183  0.3584 -0.2129
43829W        W86742  28.852   9.650   5.607  0.0947  0.1505 -0.1232
43830W        W86743  19.496  18.501  27.615 -0.2424  0.0078 -0.0113
43831W        W86744  25.158   5.419  28.405  0.0527  0.3622  0.2418
43832W        W86745  21.866  20.365   7.374  0.0553 -0.2945  0.1175
43833W        W86746   3.894  16.749   5.143  0.1689 -0.0447 -0.0128
43834W        W86747   9.404  15.991   7.806  0.0942  0.1409  0.2044
43835W        W86748  21.166   9.378  29.443 -0.1030 -0.0665  0.1118
43836W        W86749   1.218  11.621  26.946 -0.1512 -0.0623  0.0901
43837W        W86750  25.564  20.632  27.446  0.1467  0.0322  0.1614
43838W        W86751  26.250   9.153  24.072 -0.1827  0.0163 -0.1343
43839W        W86752  32.030  20.167  27.721  0.3022 -0.2400 -0.0905
43840W        W86753  31.366  23.713  27.799  0.0383 -0.2478  0.0266
43841W        W86754  26.829  11.793   4.455 -0.0482  0.0157  0.0969
43842W        W86755  33.626  15.857  25.730 -0.1592 -0.2914  0.1658
43843W        W86756   4.968  17.007  23.375  0.1728  0.2643  0.2333
43844W        W86757   0.614  22.959   4.300 -0.1006  0.1482 -0.0292
43845W        W86758  21.179   9.977   4.237  0.2870  0.2358  0.2710
43846W        W86759  26.377  14.750   6.030 -0.1612 -0.1775 -0.1553
43847W        W86760   1.551   5.914   6.950  0.1017 -0.0120  0.1638
43848W        W86761  28.657  17.860   4.467  0.0652 -0.2875 -0.0174
43849W        W86762  33.901  20.590   1.103  0.3206  0.0248  0.1177
43850W        W86763  28.037  10.618  20.327  0.2071  0.1259 -0.3075
43851W        W86764  24.618  16.142   4.123  0.1125 -0.0337 -0.1035
43852W        W86765  26.156  16.215   0.912  0.0984 -0.1802 -0.0122
43853W        W86766  30.158  27.374   9.344 -0.3882 -0.0615 -0.0351
43854W        W86767  15.346   7.283   6.426  0.0013 -0.3299  0.1461
43855W        W86768   4.801  16.107  27.341 -0.1144 -0.1110 -0.0428
43856W        W86769  31.789   7.528  28.587 -0.0982  0.0543  0.3368
43857W        W86770  29.582  18.071  27.097 -0.0565 -0.2103  0.0076
43858W        W86771  25.443  13.879   7.612  0.0426  0.1481  0.0518
43859W        W86772   1.300   2.255   6.786 -0.3521 -0.2540 -0.1762
43860W        W86773  25.554  19.334   1.361 -0.1639  0.3540 -0.1093
43861W        W86774  32.841  28.292   1.578 -0.1938 -0.1203  0.1082
43862W        W86775  22.283   5.858   3.465 -0.0765  0.0064 -0.0091
43863W        W86776   1.988  15.500  21.916 -0.3677  0.0984 -0.0829
43864W        W86777   4.287  15.612  26.308 -0.2259  0.1124 -0.1663
43865W        W86778   3.838   2.215  23.962  0.4051  0.0358 -0.0327
43866W        W86779  30.697  19.121   9.767  0.0128  0.1245  0.1112
43867W        W86780  10.296  18.139  24.136  0.1474  0.0072 -0.1066
43868W        W86781  10.857  16.574  17.840  0.0133  0.2130  0.0110
43869W        W86782  25.260  19.584  29.651 -0.1538  0.0086  0.2547
43870W        W86783  18.489  21.633  26.768 -0.0699 -0.0453  0.1897
43871W        W86784   3.979  19.627  20.703  0.2540  0.1701  0.2106
43872W        W86785  33.456  18.511  27.090 -0.1093  0.0951 -0.3286
43873W        W86786   2.603  13.139   5.315 -0.0806  0.2172  0.0810
43874W        W86787  34.276  12.016  20.511 -0.2170  0.0037  0.0050
43875W        W86788  27.302  20.725   5.291  0.3602  0.3872  0.0543
43876W        W86789   1.930   5.290   3.600  0.1387 -0.2123 -0.0654
43877W        W86790  33.201  10.045  18.254  0.4020 -0.0257  0.2422
43878W        W86791  25.459  19.264   0.797 -0.0091  0.0981 -0.0791
43879W        W86792  32.467   8.389  24.940  0.2171 -0.0175  0.1617
43880W        W86793  21.488  11.657   4.217 -0.2921  0.2094 -0.4171
43881W        W86794   4.705  12.061   5.840  0.3279  0.3759 -0.0211
43882W        W86795  33.649  14.164  24.752 -0.3323 -0.1035 -0.3227
43883W        W86796   1.649  21.079   2.794  0.3237 -0.0726  0.1712
43884W        W86797  29.967   0.966  24.157 -0.0403  0.1033  0.3760
43885W        W86798  33.603   7.586  28.944  0.1424  0.3556  0.1586
43886W        W86799  32.796  10.142  21.126  0.0018  0.1985  0.0702
43887W        W86800  32.011  12.701   2.942  0.2910 -0.1133 -0.0020
43888W        W86801  28.179   2.784   0.236  0.1340  0.0289  0.4347
43889W        W86802  26.380  15.731   1.705 -0.1000  0.0379 -0.1538
43890W        W86803   1.372  13.071   8.514 -0.0602 -0.1787  0.0112
43891W        W86804  33.212   4.143   1.569 -0.1132  0.2189  0.0359
43892W        W86805  26.292  13.934   3.391  0.0743 -0.0874  0.0976
43893W        W86806   0.766  17.300   5.800 -0.1742 -0.3072  0.1729
43894W        W86807  27.455   6.707   3.496  0.2665  0.2076  0.1928
43895W        W86808  32.631  16.415  14.963  0.4110  0.0987 -0.0072
43896W        W86809  29.631  24.054   0.466  0.0037 -0.0743 -0.2082
43897W        W86810   9.011  14.831  29.078 -0.0679  0.3705 -0.1092
43898W        W86811  33.898  17.791   9.176 -0.2026  0.1640  0.0239
43899W        W86812  23.220  16.984  21.414  0.0009 -0.0051 -0.0395
43900W        W86813  26.192  22.007   4.253  0.1260 -0.0375  0.1193
43901W        W86814   3.183  10.658   0.494 -0.0208 -0.1124 -0.0052
43902W        W86815  10.649   7.094   9.522 -0.1377  0.0900  0.1145
43903W        W86816  27.965  13.149   3.506 -0.1917  0.0008  0.1955
43904W        W86817   2.085  15.017   2.887 -0.1397 -0.1146  0.2063
43905W        W86818  23.703  14.268   1.282  0.1825  0.1985  0.1738
43906W        W86819  31.665  20.238   0.565 -0.2634 -0.4369 -0.1697
43907W        W86820  27.755  18.904  29.701  0.1539 -0.3304 -0.0111
43908W        W86821   1.235  22.604   9.236 -0.0551  0.3632 -0.1181
43909W        W86822  29.895  15.764  19.217  0.0144  0.0376 -0.0266
43910W        W86823  26.444  13.149  23.709  0.0552 -0.4334  0.2077
43911W        W86824  15.163  11.211   4.966  0.1535 -0.1468 -0.3506
43912W        W86825  27.114  20.563   7.653 -0.3681  0.2561  0.1635
43913W        W86826  23.571  17.200  15.631  0.0180  0.1050 -0.0241
43914W        W86827   0.699  12.316   5.436 -0.2025 -0.1378 -0.4317
43915W        W86828  19.799  14.669  26.167  0.1355 -0.1077 -0.1153
43916W        W86829   8.390  15.053   3.785  0.0051  0.2746  0.2917
43917W        W86830  23.264  22.797   3.064  0.1830  0.0983  0.2426
43918W        W86831  33.969  16.498  23.969  0.0444  0.1178  0.1743
43919W        W86832   0.904   8.295  29.466 -0.0326 -0.0373 -0.0205
43920W        W86833  28.746   2.537   8.135 -0.1996  0.2464  0.1397
43921W        W86834   8.197  20.725  25.760  0.0649 -0.0820  0.1707
43922W        W86835  31.220  12.899  28.972 -0.5019 -0.0714 -0.1086
43923W        W86836  31.932  12.007  24.760 -0.1496 -0.0321 -0.2500
43924W        W86837  28.770  19.018  25.305  0.0580 -0.1277 -0.0234
43925W        W86838  19.747  21.733  24.392 -0.0883 -0.0516  0.1650
43926W        W86839  26.135  17.567  26.630 -0.4301 -0.0184 -0.2044
43927W        W86840  25.772  13.616  27.610 -0.1537 -0.0344 -0.1557
43928W        W86841   5.743   7.519   2.836 -0.3372 -0.1268 -0.3716
43929W        W86842  26.627  16.581  28.011  0.0912 -0.0008  0.2652
43930W        W86843  25.815  16.453   6.501 -0.0575  0.1001 -0.1997
43931W        W86844   3.156  12.668  27.786 -0.0333 -0.1408  0.1571
43932W        W86845   2.717  18.552  20.817  0.1208  0.0916  0.2178
43933W        W86846  29.117  13.618   1.261  0.1839 -0.0421 -0.0862
43934W        W86847  30.513   6.330   5.190 -0.0398  0.0502  0.3374
43935W        W86848   0.110  18.799   0.866  0.1696  0.0309  0.0869
43936W        W86849  27.843  15.867  29.101 -0.1411  0.1952 -0.2498
43937W        W86850  32.389  18.227   3.034 -0.0010 -0.1813 -0.0445
43938W        W86851  26.042   5.947  28.458  0.1662 -0.2304  0.0063
43939W        W86852  32.974  17.626  25.544  0.1080 -0.1504 -0.1854
43940W        W86853  25.756  13.445   8.715  0.4255  0.2390 -0.1997
43941W        W86854  23.570   5.640   6.378 -0.3584  0.0607  0.3102
43942W        W86855  33.184  18.803  26.058 -0.4234 -0.0626 -0.1841
43943W        W86856  25.357   4.520   6.747  0.1524  0.0339  0.0563
43944W        W86857  30.985  13.127  25.253 -0.3764  0.0720 -0.3350
43945W        W86858  33.453   8.654   5.202 -0.1277 -0.3052 -0.0626
43946W        W86859  20.898  20.711   7.968 -0.2325  0.2524  0.0392
43947W        W86860  25.682  11.188   2.055  0.1556  0.3125  0.1572
43948W        W86861  27.641  17.582  27.626  0.1647  0.0258 -0.1204
43949W        W86862  23.724   7.834   1.112  0.2584  0.0972  0.2715
43950W        W86863   3.329  11.927  18.283 -0.1651 -0.1346  0.1456
43951W        W86864  25.065  13.531  28.827 -0.0355  0.0689  0.3287
43952W        W86865   0.122  11.441  17.987 -0.0736 -0.1920  0.1940
43953W        W86866  18.967  22.095  26.000  0.0119  0.0554 -0.0539
43954W        W86867   2.253   3.419   5.607  0.2271  0.1921 -0.0153
43955W        W86868  27.983   8.473   9.581  0.0207  0.3002  0.2787
43956W        W86869  17.792  13.422   5.253  0.1605  0.3855 -0.0705
43957W        W86870  23.054   8.940  20.924  0.2285  0.0676  0.1260
43958W        W86871   4.703  24.110   3.756  0.0764 -0.0077 -0.3300
43959W        W86872  28.810  21.722  29.101 -0.0364  0.0896  0.2300
43960W        W86873  33.054  11.729   7.818  0.1361  0.0794 -0.0964
43961W        W86874   0.761  10.793   2.050 -0.1558  0.2754  0.2483
43962W        W86875  31.192  23.938   1.111 -0.0161  0.0047 -0.0137
43963W        W86876   3.087   7.857  24.015 -0.0141 -0.0274 -0.0089
43964W        W86877  19.060   0.358  20.758 -0.2881 -0.1903 -0.1501
43965W        W86878  27.338  25.460   4.009 -0.2628 -0.2050 -0.1291
43966W        W86879  13.198   0.122   1.340  0.1815 -0.2629 -0.3865
43967W        W86880  30.413   9.126  29.634 -0.0163  0.0705  0.4252
43968W        W86881  12.579  13.251  27.367 -0.2349 -0.1769 -0.2473
43969W        W86882  18.690  13.898  21.228 -0.0158 -0.1777  0.0097
43970W        W86883  26.856  25.804  24.493 -0.2336  0.0127 -0.2251
43971W        W86884  32.364  16.313  26.757  0.0545 -0.0162 -0.0451
43972W        W86885  33.908   4.150   1.887 -0.1912 -0.0378 -0.0610
43973W        W86886  26.118   8.417   7.435 -0.0359  0.0207 -0.1322
43974W        W86887  24.934  17.119  25.063 -0.1445  0.1691  0.0983
43975W        W86888  24.247   8.124  29.596 -0.1764 -0.1009  0.3712
43976W        W86889   3.694  16.692   9.612  0.0321 -0.2992  0.0408
43977W        W86890  19.563   4.875  24.778  0.0676 -0.1327  0.4025
43978W        W86891  33.098  13.179  26.502  0.1139 -0.1286 -0.1906
43979W        W86892  30.676   7.967   9.908  0.1004 -0.0707 -0.0525
43980W        W86893  29.876  12.227  26.160  0.1773 -0.0270  0.0683
43981W        W86894  22.777  17.934  28.013 -0.1038  0.1745  0.0502
43982W        W86895  19.884  20.930   4.107 -0.0288  0.0145 -0.0990
43983W        W86896  27.144  16.473  28.302  0.0046  0.1091 -0.1727
43984W        W86897  28.284  20.378   3.927  0.1122 -0.0694  0.1980
43985W        W86898  34.094  20.700   3.690  0.0945  0.6585  0.0216
43986W        W86899  28.323  21.595  23.206 -0.1490 -0.0613 -0.0411
43987W        W86900   4.421  16.109   4.836  0.1089 -0.1476  0.1209
43988W        W86901  29.004  20.387  16.390  0.2800  0.1488  0.2067
43989W        W86902   3.235  13.695  22.327  0.0225 -0.2035 -0.1752
43990W        W86903   8.931   1.481  26.247  0.0085 -0.0125 -0.0733
43991W        W86904   0.954  14.330  22.141  0.2690  0.0248 -0.0123
43992W        W86905  28.764  13.535  24.924 -0.1474 -0.0658 -0.2127
43993W        W86906   2.752  33.509   3.776 -0.2025  0.3655  0.4162
43994W        W86907   0.084  10.336  29.553 -0.4478 -0.0820  0.2753
43995W        W86908  25.643  13.896   3.523 -0.0530  0.0114  0.0499
43996W        W86909  18.739  11.604   8.977 -0.1845 -0.0787 -0.4714
43997W        W86910  28.449  21.166   3.205  0.0505 -0.1773 -0.0490
43998W        W86911  29.786  16.490   2.093  0.2900  0.1873  0.0333
43999W        W86912  25.831  11.614   2.327 -0.2168  0.0015  0.3409
44000W        W86913  22.362  18.218   7.561  0.2452  0.2776 -0.1898
44001W        W86914  25.121  25.796   6.388  0.3023  0.0634 -0.1219
44002W        W86915  29.072  25.924  26.901  0.1515 -0.0674 -0.1107
44003W        W86916  30.921  15.812  26.328  0.3236  0.4823 -0.2349
44004W        W86917  25.776  10.414  29.027 -0.2959 -0.1256  0.2006
44005W        W86918   5.438   5.307   6.780  0.2420 -0.0180 -0.0855
44006W        W86919   2.886  16.407  22.454 -0.3230  0.0627  0.2466
44007W        W86920  31.682   9.891  25.609 -0.2607  0.3008 -0.0897
44008W        W86921   0.903  20.646  28.809 -0.2258  0.0537  0.0546
44009W        W86922  25.546   6.263  23.392 -0.0947  0.1030  0.1058
44010W        W86923  28.498  21.763   4.579 -0.0699  0.1363  0.1225
44011W        W86924  27.816  17.870  28.971  0.3157 -0.0426  0.0329
44012W        W86925  28.788  29.316   5.991 -0.1403 -0.1633  0.1413
44013W        W86926  32.870  15.890  25.756 -0.1724 -0.1351  0.0549
44014W        W86927  23.067  14.742  16.255  0.0229 -0.0419 -0.1376
44015W        W86928   5.254  16.525   4.854  0.1628 -0.0268  0.0874
44016W        W86929  22.673  14.926  29.509  0.0491  0.1759  0.0922
44017W        W86930  31.236  10.406   2.167 -0.1499 -0.2970  0.1330
44018W        W86931  28.660  14.653   5.099  0.2716 -0.1569 -0.0468
44019W        W86932  28.584  30.283  25.359 -0.1842  0.1971  0.1821
44020W        W86933   1.809  16.038   9.201 -0.0908  0.0546 -0.1270
44021W        W86934  26.569  15.931  17.739  0.1041  0.2555 -0.0559
44022W        W86935  32.288  17.558   5.913  0.0392  0.0722  0.1178
44023W        W86936  30.368  23.701   0.428 -0.1663 -0.3770 -0.1666
44024W        W86937  25.254   7.318  29.106  0.0361  0.1832  0.1681
44025W        W86938  21.464  14.906  25.394  0.2228  0.0952  0.2176
44026W        W86939  30.609  19.677   5.728  0.1460 -0.0283  0.2294
44027W        W86940   3.892  11.189   5.422  0.3599  0.2110  0.0765
44028W        W86941  32.002   0.502  23.019 -0.0219  0.0930 -0.1403
44029W        W86942  20.694   8.976  25.144  0.0488  0.1597  0.0874
44030W        W86943  24.841  14.105   5.430 -0.1467 -0.0067 -0.0507
44031W        W86944  22.795  13.374  27.161 -0.0842 -0.2795  0.1088
44032W        W86945   1.488  13.600  29.471 -0.0041 -0.2400 -0.0539
44033W        W86946  31.750  24.345   1.708  0.0812 -0.1658 -0.3930
44034W        W86947   4.450  15.189  15.195 -0.0480  0.0461 -0.1346
44035W        W86948  23.006   3.033  27.425 -0.3361  0.1864 -0.0397
44036W        W86949   4.729  22.604   2.023 -0.1156  0.2833  0.0355
44037W        W86950   8.460  26.142   9.142  0.0778  0.1249 -0.0316
44038W        W86951  10.053  14.572   0.697  0.4155  0.0766 -0.0020
44039W        W86952  29.421  12.315  21.688  0.1572 -0.0505  0.1883
44040W        W86953   3.599  17.491  24.840  0.1909 -0.1295  0.0447
44041W        W86954  25.437   1.589  22.766  0.0121  0.0511 -0.2243
44042W        W86955  23.123  21.876  19.484  0.3219  0.1248 -0.0988
44043W        W86956  29.066   8.348   9.291 -0.0838  0.1277 -0.2496
44044W        W86957  30.456  21.419  29.423 -0.2326 -0.1446 -0.3656
44045W        W86958   2.671  19.666   4.900 -0.0483  0.1648 -0.0840
44046W        W86959  28.083  16.658   6.545  0.1459 -0.0421  0.0765
44047W        W86960  33.222   5.968  29.403  0.0573 -0.2447 -0.1342
44048W        W86961  30.089   5.072   4.524  0.1201 -0.1833 -0.1841
44049W        W86962  28.083   7.147  27.479 -0.3087 -0.1244  0.1951
44050W        W86963  28.157   2.814   2.250  0.0357 -0.2177 -0.1957
44051W        W86964  28.108   2.521   4.902 -0.3020 -0.0975  0.0912
44052W        W86965  30.020  14.787   3.088  0.0455  0.1443  0.2556
44053W        W86966  33.057  14.239  21.143 -0.3354  0.0673 -0.1018
44054W        W86967  33.145   4.614  10.241 -0.1504 -0.2092  0.4073
44055W        W86968   8.122   8.986   2.252  0.0605 -0.0322  0.3351
44056W        W86969  30.388  11.587   4.277  0.2197  0.3329  0.0161
44057W        W86970   9.024   5.251  12.592  0.1889 -0.1880  0.1527
44058W        W86971   4.500  12.483   6.060  0.0649 -0.2213  0.1253
44059W        W86972   4.440  20.700   7.044 -0.0147 -0.1124  0.0655
44060W        W86973  25.080  10.603  27.762 -0.0255  0.0525 -0.2785
44061W        W86974  28.413   9.600   6.604 -0.2225  0.3936 -0.1318
44062W        W86975  30.067  18.275   0.673  0.1119  0.2319  0.0359
44063W        W86976  31.422   9.662   6.508  0.0112  0.2409 -0.0276
44064W        W86977  24.176  17.893   0.516  0.1118  0.2612 -0.2070
44065W        W86978  18.622   3.976  25.753 -0.2136 -0.0098 -0.0431
44066W        W86979  30.274  17.646   6.023 -0.0735  0.1926 -0.0346
44067W        W86980   9.168  19.864   4.968 -0.0941 -0.0814 -0.2821
44068W        W86981   1.061  18.241   3.752 -0.1409  0.1664  0.0050
44069W        W86982  24.758  15.781  29.540  0.0123  0.2980  0.0673
44070W        W86983   0.525   6.851  26.117  0.0336 -0.1195  0.2144
44071W        W86984  20.673  11.162   4.822 -0.0815 -0.3514  0.1542
44072W        W86985  30.563  12.974   4.996 -0.1628  0.3568  0.0200
44073W        W86986  32.395  14.899   1.963  0.2614  0.0970  0.3178
44074W        W86987   6.046  13.604   1.785 -0.1513 -0.1618 -0.0327
44075W        W86988  20.978  14.541   3.099 -0.1013 -0.1452 -0.0153
44076W        W86989  33.491   9.145   1.510  0.0355  0.1786 -0.0287
44077W        W86990  21.233  21.805   6.570 -0.0573  0.0486 -0.1242
44078W        W86991  32.384   9.660   0.390 -0.0884  0.1241 -0.2910
44079W        W86992  28.708  16.502  29.697 -0.2293  0.2441  0.1259
44080W        W86993  19.428  15.949   1.530  0.0561  0.2138  0.2953
44081W        W86994   5.073  16.043   6.594 -0.0045  0.4322  0.0177
44082W        W86995  32.203  13.308   8.151 -0.1332 -0.2204 -0.1417
44083W        W86996   7.426   5.471  11.307 -0.0126  0.0640  0.4654
44084W        W86997  19.160  13.868  28.620 -0.0176 -0.1270 -0.1541
44085W        W86998  10.643   8.551   4.566  0.3422 -0.1886  0.1974
44086W        W86999  32.090   8.292  25.912  0.0092 -0.0656  0.0188
44087W        W87000   2.919  14.975   6.578 -0.0112 -0.1687 -0.0047
44088W        W87001  29.415  14.342  27.256 -0.1475 -0.1092  0.1417
44089W        W87002   3.569  13.176  28.885 -0.0413 -0.1051 -0.1859
44090W        W87003   2.436   8.389   0.030 -0.0809 -0.0059  0.0813
44091W        W87004  26.417  13.512   6.792  0.1850 -0.1956  0.0676
44092W        W87005  32.020  19.255   2.722  0.2044  0.1195  0.0493
44093W        W87006  25.318   8.175   1.046 -0.0662  0.1537 -0.1061
44094W        W87007  34.089  19.945   8.254 -0.1868 -0.0290  0.2917
44095W        W87008  16.820   9.803   1.391  0.0505  0.0482 -0.2362
44096W        W87009  31.357  15.451  26.411  0.2016  0.2073 -0.4907
44097W        W87010  26.476  10.611  10.574 -0.0724 -0.0573  0.0169
44098W        W87011   8.389  10.833   5.179 -0.0419 -0.1483  0.1278
44099W        W87012  30.675  15.382   0.470  0.1139 -0.2298 -0.2016
44100W        W87013  25.860   7.727   8.095 -0.1846 -0.1534  0.0760
44101W        W87014  10.253   6.852   5.482 -0.0925 -0.0910  0.0022
44102W        W87015  22.366  17.433  23.606 -0.0830 -0.4680  0.1006
44103W        W87016   4.532   5.596   0.237  0.1226 -0.1030  0.1238
44104W        W87017   0.593  24.196  29.507 -0.0530 -0.2518  0.1514
44105W        W87018  30.817   9.711  27.714 -0.0229  0.1370 -0.1238
44106W        W87019  27.160  25.745  20.814 -0.0164 -0.0528  0.1298
44107W        W87020  24.475  13.776   5.253 -0.3053 -0.1208 -0.2613
44108W        W87021  26.385  16.105   6.509 -0.1952 -0.1889  0.1465
44109W        W87022  21.193  20.903   3.786 -0.0378 -0.0987  0.1010
44110W        W87023   5.192  18.115   6.664  0.1029 -0.0212 -0.1217
44111W        W87024  22.781  16.683   0.083  0.2959 -0.2919  0.1356
44112W        W87025  16.332   8.005  22.078 -0.1789 -0.3135  0.0333
44113W        W87026  28.154  17.561   6.339  0.0129 -0.0920  0.0344
44114W        W87027  26.793   6.242   8.082  0.0119  0.2525  0.1965
44115W        W87028   0.253   9.451   7.478  0.1358  0.0972  0.1646
44116W        W87029  30.221  22.706   9.623  0.0191 -0.1060 -0.1020
44117W        W87030   8.810  20.955   8.971  0.1343  0.2207  0.0541
44118W        W87031   1.197  10.710   9.282  0.2069 -0.1951  0.0995
44119W        W87032   5.343  14.955   5.202 -0.1219  0.0563  0.1017
44120W        W87033  22.560   9.704   8.192 -0.2971 -0.0459  0.0508
44121W        W87034  31.108  22.545  28.318  0.3127  0.1578  0.0893
44122W        W87035  20.698  16.267   2.617  0.1446 -0.0991  0.0300
44123W        W87036  27.947   9.459   6.872  0.1422  0.0889  0.1554
44124W        W87037  17.932  13.702  27.171 -0.3618  0.2109 -0.0622
44125W        W87038  19.466  11.982  25.065 -0.2158 -0.1764  0.2016
44126W        W87039   9.783   1.747  11.338 -0.0610 -0.4105 -0.1464
44127W        W87040  19.390  17.626   6.866 -0.1205 -0.2129  0.1541
44128W        W87041  32.204  21.955   0.027 -0.2292 -0.0217 -0.0452
44129W        W87042  30.118  19.039  26.218 -0.0920 -0.1786  0.0980
44130W        W87043  22.755  19.903  29.756 -0.1798 -0.2189  0.0300
44131W        W87044  19.579   3.915  19.499 -0.2656 -0.0292 -0.1517
44132W        W87045   1.647   8.840  10.569  0.1586  0.1769  0.5799
44133W        W87046  22.494  17.150  29.048 -0.3089  0.0805  0.1750
44134W        W87047  26.512   0.189   2.038 -0.1853  0.3155 -0.0944
44135W        W87048   2.342  17.703   0.423  0.2312  0.0536 -0.0623
44136W        W87049  21.401  17.861  27.991 -0.1462 -0.0230 -0.0349
44137W        W87050   0.878  24.483   3.486  0.0838  0.2383 -0.0397
44138W        W87051   1.311   7.027   3.272 -0.0547  0.0794 -0.2780
44139W        W87052  11.793   5.281   9.843 -0.2026  0.1141  0.0788
44140W        W87053  31.516   8.307  26.883  0.0701 -0.1750  0.3733
44141W        W87054   6.229  10.177  24.501 -0.2528 -0.0003  0.2180
44142W        W87055  10.727  12.321   3.723 -0.0903 -0.1246 -0.1142
44143W        W87056  28.012  15.255   8.104  0.1708  0.1368 -0.1703
44144W        W87057  31.389   9.754   9.370  0.1129 -0.2566 -0.0325
44145W        W87058  26.205  13.630   8.483  0.4422  0.0062 -0.1689
44146W        W87059  26.649  33.650   6.843  0.1731 -0.1996  0.1821
44147W        W87060  22.604   3.467  29.545  0.1207 -0.0168  0.4403
44148W        W87061  32.936  10.700  22.787 -0.2248  0.3647  0.2275
44149W        W87062   2.065  12.745   4.671  0.1441 -0.3814  0.3926
44150W        W87063  25.808  17.189   8.377  0.0967  0.1186 -0.0381
44151W        W87064  31.478   2.365  29.715 -0.1473 -0.0154  0.0592
44152W        W87065   3.444  27.220   3.340  0.0023  0.1042  0.0976
44153W        W87066  31.000  21.102   3.403  0.0105  0.2837 -0.1344
44154W        W87067   7.438  16.095   0.913  0.2495  0.0555 -0.0353
44155W        W87068  28.294  13.056   4.421 -0.1597 -0.1856  0.1018
44156W        W87069   3.936  18.875   5.180 -0.0013 -0.2845  0.1325
44157W        W87070  27.788  10.077   5.645 -0.0776 -0.5811 -0.3876
44158W        W87071   9.166   7.994  11.369  0.1061  0.1145 -0.0290
44159W        W87072  30.752  24.829   5.349  0.1601 -0.1742  0.1803
44160W        W87073  28.651  13.167   6.807 -0.0592 -0.1346 -0.2242
44161W        W87074  27.319   9.864   6.244  0.1221 -0.1032  0.1858
44162W        W87075   1.226  18.460  10.101 -0.0626 -0.0092  0.1226
44163W        W87076  27.505   9.734   9.079  0.0715 -0.0664  0.2099
44164W        W87077  26.878  12.907   0.192  0.2035 -0.0107  0.1194
44165W        W87078  25.493   3.758  27.856 -0.0662  0.1448 -0.0070
44166W        W87079  29.777  29.688   8.042  0.0441  0.0030 -0.1939
44167W        W87080  20.956  11.222  27.759  0.0985  0.1182  0.0159
44168W        W87081   3.935  20.836   9.278  0.2027  0.1102 -0.2337
44169W        W87082   1.318  12.225   5.464 -0.1373  0.3640 -0.1396
44170W        W87083  18.393   4.603   0.175 -0.1966  0.1775 -0.1093
44171W        W87084  26.603  11.558   3.635 -0.2212 -0.0504 -0.2096
44172W        W87085  17.288   7.361   4.584 -0.0894  0.1840 -0.1228
44173W        W87086  30.221  13.710  10.132 -0.0807  0.3873 -0.0736
44174W        W87087  12.709  10.702  28.782 -0.0524 -0.2976  0.0012
44175W        W87088  24.951  22.275  26.542 -0.0736  0.1152  0.3632
44176W        W87089  25.605   4.238  25.427  0.1985 -0.2729  0.2759
44177W        W87090   4.289  12.897   5.773  0.2084 -0.4964  0.0308
44178W        W87091   4.785  15.200  28.830 -0.0085 -0.0453 -0.1986
44179W        W87092   7.273  15.455   6.287 -0.0821  0.0441  0.0630
44180W        W87093   4.703  14.142   2.324 -0.3121 -0.1198 -0.3400
44181W        W87094  29.321  11.074  23.123  0.0024  0.2816  0.2475
44182W        W87095  30.584  12.096   7.028  0.2140 -0.1587 -0.0694
44183W        W87096  16.103   5.229   9.305 -0.1988  0.1035 -0.0648
44184W        W87097  29.327  17.641   3.929  0.1509 -0.0674 -0.0663
44185W        W87098  20.589  23.416   5.550 -0.1680  0.0991 -0.2076
44186W        W87099  26.332  24.199   2.916 -0.1320 -0.3579  0.1386
44187W        W87100  23.131  18.014   4.501  0.0132 -0.1154 -0.1233
44188W        W87101  24.312  11.401   3.162 -0.2273 -0.4041  0.2004
44189W        W87102  19.579  10.416   2.382 -0.2655  0.0115  0.2979
44190W        W87103  27.029  14.069   7.484 -0.1656 -0.0032 -0.0430
44191W        W87104  26.333  18.072   3.586 -0.1621  0.2563  0.1918
44192W        W87105   6.838  16.050  29.386 -0.1837  0.0957  0.2843
44193W        W87106  32.686   7.937  10.584 -0.2303  0.1483 -0.1350
44194W        W87107   1.548  12.138   6.754  0.3200 -0.0110  0.0970
44195W        W87108  10.882  14.052   7.893 -0.1137 -0.1263 -0.1600
44196W        W87109  20.085  13.854   3.574  0.1766 -0.2458  0.1919
44197W        W87110  30.650  16.528   3.971  0.0609 -0.0612 -0.0481
44198W        W87111  24.717  24.658  29.082  0.2332 -0.2118  0.1270
44199W        W87112   2.669   5.940   9.961  0.0843  0.2051  0.0926
44200W        W87113  27.566  28.952   1.184  0.0880  0.0824  0.0809
44201W        W87114  26.993  18.853   2.173  0.2579 -0.0955  0.0190
44202W        W87115   7.467   4.772   8.193  0.0994 -0.4291  0.0215
44203W        W87116  25.469  10.828   5.003  0.2604  0.0572  0.2156
44204W        W87117  21.823  34.219   8.836  0.0188 -0.0866 -0.2364
44205W        W87118  16.165   8.903  27.211 -0.2700 -0.1231 -0.1274
44206W        W87119  31.908  16.423   4.457  0.0436 -0.0485 -0.2920
44207W        W87120  29.803  13.256   0.532  0.2209 -0.1689  0.0984
44208W        W87121  32.735  14.943   0.127  0.3424  0.3172 -0.1482
44209W        W87122  28.440  16.835  28.827 -0.0875 -0.2764 -0.1547
44210W        W87123   9.684  14.988   3.938  0.0257 -0.2317  0.3696
44211W        W87124  15.538  19.735  29.364  0.0542  0.2913  0.0041
44212W        W87125  30.786  17.094  25.144  0.3489  0.5185 -0.0192
44213W        W87126  33.204  19.490  24.677  0.1298  0.2396 -0.2383
44214W        W87127   2.234  12.804   8.852 -0.1788  0.2022  0.3766
44215W        W87128  17.430  19.721  27.844 -0.1003 -0.0726  0.0696
44216W        W87129  33.478  12.933   0.931 -0.2268 -0.2118 -0.1680
44217W        W87130  30.588   5.430   7.350  0.1215 -0.0566  0.1771
44218W        W87131  17.719   9.410  28.344 -0.4051  0.3718  0.0959
44219W        W87132  31.061  18.350   2.186  0.1085  0.3028  0.1032
44220W        W87133   2.734  15.597   3.588 -0.1558  0.0049  0.0539
44221W        W87134  33.458  17.332   5.214 -0.0770  0.2187 -0.0836
44222W        W87135  25.640   8.426   1.951  0.3270 -0.1774 -0.1164
44223W        W87136  25.366  31.165   0.353 -0.0391 -0.1461 -0.0318
44224W        W87137  23.727   5.489   9.420 -0.2403 -0.0450  0.1698
44225W        W87138  32.755  16.962   7.325 -0.3682  0.1008  0.1877
44226W        W87139  20.599   6.331  26.148 -0.0198  0.3073  0.1200
44227W        W87140  34.455   7.029   7.079  0.3461 -0.1756  0.0704
44228W        W87141   2.101   6.697  28.151  0.1879 -0.2033 -0.2473
44229W        W87142  25.427  15.144   3.460 -0.0865  0.3316 -0.0331
44230W        W87143  28.191  21.316   3.655 -0.2446 -0.1197 -0.2411
44231W        W87144   0.461  18.028   7.056  0.2685 -0.0833 -0.3816
44232W        W87145  28.709   2.385   5.293  0.1636  0.0383 -0.2046
44233W        W87146  29.262   9.436   5.428 -0.3114 -0.0117  0.1348
44234W        W87147   1.352  13.492  24.547  0.0912  0.3413 -0.0680
44235W        W87148  28.954  13.579   4.892  0.2085  0.3515  0.1015
44236W        W87149   0.559   5.194   0.177 -0.2475  0.1724 -0.3243
44237W        W87150  23.402   8.558   2.047  0.0045  0.1795 -0.1077
44238W        W87151  34.193   7.236  10.219  0.2070  0.0853 -0.0236
44239W        W87152  33.453  12.035   7.708  0.2631 -0.1102  0.2806
44240W        W87153   3.796  19.273   8.402 -0.1780 -0.1791 -0.0659
44241W        W87154  26.747  10.639   6.197 -0.0888  0.0639 -0.0877
44242W        W87155  33.070  25.684  27.820 -0.0836 -0.0799  0.3702
44243W        W87156  29.592  16.214  26.113 -0.2881  0.1615  0.0430
44244W        W87157  33.512  17.099   5.686  0.3656 -0.1919 -0.0268
44245W        W87158  31.308  22.192   0.006  0.2997 -0.1910  0.0532
44246W        W87159  34.169  25.954   0.912 -0.2361  0.1282 -0.2501
44247W        W87160   2.722  15.207   5.403 -0.1474  0.1192  0.0177
44248W        W87161   0.153  13.910   5.213  0.2702  0.0245  0.0401
44249W        W87162  21.749  22.673  25.314 -0.4049  0.0789 -0.0414
44250W        W87163  26.131   9.247   8.976  0.0024 -0.3926 -0.3236
44251W        W87164  24.363  11.512  27.692  0.0510 -0.1602  0.0913
44252W        W87165  29.491  13.177   6.683 -0.0188 -0.2183 -0.0861
44253W        W87166   4.937   7.903   7.295  0.4337  0.2170 -0.0536
44254W        W87167  34.074  18.254   9.492 -0.2988 -0.0986 -0.2601
44255W        W87168   6.129  16.880   3.020  0.2215 -0.0796  0.2601
44256W        W87169   4.834  11.159  11.119 -0.2072 -0.0259  0.0085
44257W        W87170  22.858   9.686   4.669  0.0468 -0.0034  0.0582
44258W        W87171  31.369  23.488   1.212 -0.1464  0.0795 -0.0946
44259W        W87172   1.366  23.757   0.037 -0.2014  0.0979  0.2748
44260W        W87173   9.575   4.981  11.895 -0.0152  0.1558 -0.1046
44261W        W87174  25.973   2.384  28.753  0.2889  0.3380  0.2259
44262W        W87175  27.349  24.278   9.178 -0.3148  0.0579  0.0477
44263W        W87176  20.161   2.666  29.292 -0.2038  0.1752  0.0889
44264W        W87177  30.867  14.110  27.985  0.2336  0.0640  0.3124
44265W        W87178   3.346   8.605  11.767  0.0253  0.1698 -0.2210
44266W        W87179  29.036   4.877   7.085  0.1267 -0.1865  0.0391
44267W        W87180   1.764  11.440  23.615  0.1241  0.2219  0.3722
44268W        W87181  30.109   8.589   7.559 -0.0829  0.0021  0.0157
44269W        W87182  29.434  10.188   4.558  0.3020  0.1906  0.2102
44270W        W87183  26.614  11.236  28.175  0.1045 -0.0937 -0.1872
44271W        W87184   2.286  16.534   8.249 -0.0113 -0.1836  0.0945
44272W        W87185   6.109  14.286   2.014  0.3292  0.0809  0.3053
44273W        W87186  28.994  12.040   8.461  0.1215  0.1107 -0.1720
44274W        W87187   2.367   9.814   4.206  0.3767 -0.2929  0.3453
44275W        W87188   0.661  10.287  10.158 -0.3025 -0.0428  0.0150
44276W        W87189   2.321  15.255   2.557  0.1193  0.2352 -0.1955
44277W        W87190  27.389   5.553   8.455  0.0913  0.0549 -0.1129
44278W        W87191  32.781  18.201   5.104 -0.1255 -0.0134  0.1242
44279W        W87192  27.916  13.619   9.224  0.1496 -0.1643 -0.4014
44280W        W87193   4.732  18.921   6.346  0.1351  0.1143 -0.0294
44281W        W87194  30.735   9.701  22.927  0.1806  0.1195 -0.1926
44282W        W87195  11.863   8.649  28.898 -0.0314  0.1387  0.0729
44283W        W87196  18.883  13.254  23.713 -0.1147 -0.0472  0.2699
44284W        W87197   3.210  27.681   2.548 -0.0995  0.1236  0.1395
44285W        W87198  24.674  11.835  25.874 -0.0185 -0.0892 -0.1419
44286W        W87199  31.032  19.089   1.048  0.4214 -0.4741 -0.1808
44287W        W87200  28.223  16.927   5.227  0.0348  0.3212 -0.0343
44288W        W87201  25.096  15.507   8.661  0.1348 -0.2249  0.0299
44289W        W87202  28.611  11.099  23.283  0.1610  0.1422  0.2698
44290W        W87203  29.853   0.312   0.926  0.0057  0.0549  0.0058
44291W        W87204  22.782   6.012  25.617 -0.0569  0.1222 -0.0234
44292W        W87205   2.065   2.970   6.006 -0.1836 -0.3705 -0.0856
44293W        W87206  18.476  10.559  29.037  0.0529 -0.2982  0.0234
44294W        W87207  31.036  18.456  26.047 -0.0477 -0.3099 -0.2495
44295W        W87208  24.974  15.347   4.219  0.1384  0.0149  0.1629
44296W        W87209  26.976  13.186   2.931  0.1700 -0.2138  0.1797
44297W        W87210   5.458  11.006   0.567  0.0908 -0.0346 -0.0087
44298W        W87211   3.631   0.906  10.125 -0.0143 -0.1471 -0.1393
44299W        W87212  25.287  16.963  26.781 -0.0457  0.0650 -0.1099
44300W        W87213  28.299  23.072   9.625  0.0398  0.0937  0.1116
44301W        W87214  32.428   7.720  10.095 -0.2275  0.0530  0.0130
44302W        W87215  30.327  14.578   3.571  0.0778 -0.1751  0.2421
44303W        W87216  33.917  14.403   2.269  0.0862  0.0519 -0.0214
44304W        W87217  22.610  15.298   1.615  0.2740  0.1615 -0.2855
44305W        W87218  13.558  21.608   5.615 -0.1215  0.1797 -0.0097
44306W        W87219  33.594   8.605   5.731 -0.1321  0.0956  0.1601
44307W        W87220  23.823  13.172   8.562 -0.0508 -0.3702  0.1902
44308W        W87221   1.928  13.136  28.272 -0.2613  0.1248 -0.3789
44309W        W87222  29.511  30.665  29.569 -0.0580 -0.1467  0.3741
44310W        W87223  31.751  15.895   8.449 -0.0332 -0.1357  0.4636
44311W        W87224  34.005  15.009   4.204  0.0418  0.0421  0.3682
44312W        W87225  20.699   8.454   6.341 -0.0168 -0.1847  0.0989
44313W        W87226   1.469  16.141  26.348 -0.3932 -0.1005 -0.0186
44314W        W87227   9.194   8.138   3.155  0.0365  0.0264 -0.1361
44315W        W87228  26.719  14.242   6.938 -0.5256  0.2488  0.2756
44316W        W87229  34.133  13.732  10.151  0.0090  0.0508 -0.1986
44317W        W87230  33.086   5.228   6.513 -0.0520 -0.0848 -0.1607
44318W        W87231  19.592  18.586  26.226  0.0810  0.4667 -0.2021
44319W        W87232  25.153   2.927  16.752  0.2179 -0.0360  0.2085
44320W        W87233  22.447  16.920  27.362 -0.0718  0.1832 -0.0809
44321W        W87234   2.278  21.633   8.978  0.4025 -0.2040  0.4017
44322W        W87235  28.913  21.041   3.189  0.1881 -0.1329 -0.1275
44323W        W87236  20.131  14.640   8.799 -0.4973  0.2670  0.2296
44324W        W87237  27.183  11.916   2.390  0.1945 -0.3400  0.3834
44325W        W87238  24.229  18.444  29.161 -0.1582  0.1129  0.0783
44326W        W87239  23.676  12.526   7.710 -0.1619 -0.1991  0.0838
44327W        W87240  26.005  19.285   1.568  0.0772  0.0522  0.1894
44328W        W87241  31.856   6.622  24.743  0.1157 -0.0488  0.1661
44329W        W87242  32.843  18.753   1.300  0.3421 -0.0450  0.0847
44330W        W87243   2.624  10.117  11.206 -0.0131 -0.1056  0.0190
44331W        W87244  33.954  11.281  26.015 -0.1579 -0.1637 -0.1588
44332W        W87245  33.892  12.223   9.336  0.0642 -0.2169 -0.1561
44333W        W87246  25.101  17.147   5.103 -0.0051 -0.0830 -0.0951
44334W        W87247   0.723   3.239   3.485 -0.0810  0.0701  0.2298
44335W        W87248  33.273   7.472   7.759 -0.0660 -0.0343 -0.0962
44336W        W87249   2.028   1.110  11.763  0.0861  0.2401 -0.0087
44337W        W87250   0.360  17.132  28.479 -0.0160 -0.0214  0.0841
44338W        W87251  29.407  11.625   2.416 -0.1496  0.1142 -0.1311
44339W        W87252   0.277  19.757   7.156 -0.0616 -0.1691  0.3615
44340W        W87253  24.404  23.527  19.592 -0.1146 -0.2532  0.0628
44341W        W87254  22.327  25.137  24.266  0.1152 -0.2418 -0.0281
44342W        W87255  25.870  15.687  28.474 -0.2939 -0.1435  0.4130
44343W        W87256  31.650  13.890   3.292 -0.1477 -0.0457  0.1422
44344W        W87257  32.279  10.556  29.670 -0.2047  0.0718  0.0624
44345W        W87258   3.642  10.004   3.635  0.0419  0.0487 -0.1480
44346W        W87259  10.785   0.812   3.111 -0.0109  0.0510 -0.1304
44347W        W87260  27.505  17.591   1.441  0.0613 -0.3834  0.0709
44348W        W87261  30.036  17.809  25.423  0.1265 -0.1962  0.3202
44349W        W87262   6.217   2.879   2.143  0.1341 -0.3050 -0.1155
44350W        W87263  26.838  10.309   1.832  0.0712  0.1125 -0.1984
44351W        W87264   7.279  14.715   6.538 -0.1241  0.0946  0.0055
44352W        W87265   0.315   4.566  11.938 -0.0813 -0.2086 -0.0091
44353W        W87266  27.329  12.911   6.873  0.1354  0.1764 -0.0005
44354W        W87267  32.361   6.293   9.528  0.0918 -0.0541 -0.1302
44355W        W87268  26.405   8.623   1.904 -0.1587 -0.1003  0.0565
44356W        W87269   5.095  18.212  24.312 -0.1505  0.2420  0.3647
44357W        W87270   4.649  18.006  29.318 -0.0524 -0.1047 -0.0007
44358W        W87271  29.359  17.424   6.672 -0.3371 -0.1723  0.0767
44359W        W87272  23.480   2.155   6.680  0.3267 -0.0604 -0.0070
44360W        W87273   1.685  13.220  29.720  0.0934  0.1296  0.0241
44361W        W87274  22.502  18.831   0.198 -0.0798  0.0551 -0.1762
44362W        W87275  27.003  16.958   6.188 -0.0772  0.1244 -0.3563
44363W        W87276   7.145   0.203   9.277  0.0517 -0.0811 -0.1100
44364W        W87277  28.322   2.671   1.115  0.0908 -0.3542 -0.3172
44365W        W87278  32.914   3.682   3.501 -0.0013 -0.3064  0.3103
44366W        W87279  26.071  17.646  25.948 -0.1820 -0.0697  0.3638
44367W        W87280  31.608  18.649   3.526  0.2335  0.0258  0.2972
44368W        W87281   0.235   4.761   8.472 -0.4741 -0.1241  0.0370
44369W        W87282  33.201  21.611   5.771  0.1000  0.4931 -0.2293
44370W        W87283  27.774  11.563   0.773  0.1527 -0.0846  0.1470
44371W        W87284  26.791   9.820  29.591 -0.1017  0.1563  0.0703
44372W        W87285   8.194   5.177  11.507 -0.1885 -0.1023  0.1547
44373W        W87286   7.129  17.058  28.854  0.2111 -0.0966 -0.0113
44374W        W87287   4.554   6.876   1.340  0.2648  0.0681 -0.0032
44375W        W87288  22.474   2.976   9.205  0.2324 -0.5350 -0.1486
44376W        W87289  33.244  11.000   4.081  0.2086  0.0451 -0.3035
44377W        W87290   4.673   0.974   4.950  0.2089 -0.1578  0.0446
44378W        W87291  20.864   7.059   0.932  0.0178  0.3558 -0.0560
44379W        W87292  31.397  34.303  10.144 -0.2266 -0.0388 -0.0292
44380W        W87293   3.396  14.143   9.025  0.0450  0.0063  0.2838
44381W        W87294  18.636  17.516   2.092  0.0696 -0.0126 -0.1184
44382W        W87295  12.469  20.272   1.961  0.1440  0.0528  0.0442
44383W        W87296  30.855   9.868  10.231  0.1086 -0.3320 -0.0505
44384W        W87297  26.802   1.374   9.411 -0.0970  0.1307  0.2555
44385W        W87298  25.644   4.901   8.791  0.0832 -0.0001 -0.0294
44386W        W87299  24.195   4.789   6.322  0.3667 -0.1883 -0.0817
44387W        W87300  28.249  17.936   7.745 -0.2588 -0.2593 -0.0624
44388W        W87301  29.637  14.598   7.048 -0.0801 -0.1160 -0.2587
44389W        W87302   1.898   7.617   6.353  0.1323 -0.0583  0.2100
44390W        W87303   4.028  10.137   9.901  0.0533  0.1255  0.2178
44391W        W87304   1.789   3.229   5.648  0.2420  0.1320 -0.3318
44392W        W87305  27.893  13.123   4.841  0.2666  0.2587  0.3466
44393W        W87306  23.270  13.045  25.269  0.0444  0.0070 -0.1425
44394W        W87307  28.742  12.954  23.730  0.0983 -0.1370 -0.1203
44395W        W87308  23.188  14.909  29.488  0.1092 -0.2022  0.0162
44396W        W87309  32.503   9.253  29.062  0.1575 -0.1079  0.1070
44397W        W87310   4.991  11.326   4.622 -0.0035 -0.1074 -0.1844
44398W        W87311  24.855  18.520   6.740  0.0304 -0.1262  0.1143
44399W        W87312  15.767   9.278  23.413  0.3397  0.4177  0.0320
44400W        W87313  30.038   7.631   6.553  0.0637 -0.0499 -0.0973
44401W        W87314  22.673   7.945  27.850  0.1762 -0.1292  0.2055
44402W        W87315   6.801  14.687   6.502  0.0237 -0.2025 -0.2708
44403W        W87316  16.520  12.106  21.854  0.2215 -0.1621  0.0323
44404W        W87317   2.696  19.636   9.286  0.1231 -0.1519  0.1657
44405W        W87318  21.188   9.164   9.103  0.2414  0.0683  0.0254
44406W        W87319  27.634  11.688   7.146 -0.0311  0.0852 -0.1333
44407W        W87320  29.345  18.644   9.386 -0.2131 -0.3243  0.2957
44408W        W87321  19.620  22.994  27.605 -0.1228 -0.2700 -0.0487
44409W        W87322  34.464   8.917   1.227 -0.0645 -0.0687  0.3112
44410W        W87323   1.102   4.939   3.208  0.0217  0.0754  0.0929
44411W        W87324   0.069  26.006   4.019  0.1937 -0.1174 -0.2620
44412W        W87325   8.281  25.182   6.085 -0.3210  0.1334 -0.0412
44413W        W87326  27.569   8.786   7.350 -0.2546  0.0173  0.1256
44414W        W87327   5.373  10.204   6.572  0.2237 -0.3169  0.2294
44415W        W87328  25.806  15.530   7.262 -0.1829  0.0341 -0.0023
44416W        W87329   2.436  12.538   5.512 -0.1568  0.0400  0.3526
44417W        W87330  33.754   9.795   3.405 -0.1798  0.1183  0.0618
44418W        W87331  23.702  16.619   6.278 -0.1567  0.0252  0.2325
44419W        W87332   1.377  16.045   7.797 -0.0184  0.4606 -0.1510
44420W        W87333  25.917  29.189   6.093  0.1825  0.2925 -0.0964
44421W        W87334  20.551  14.484  24.100 -0.0556 -0.1695  0.1477
44422W        W87335  32.048   4.187  26.617 -0.1871  0.1643  0.2820
44423W        W87336  27.042   2.565   8.672 -0.1843  0.2008 -0.3336
44424W        W87337   3.821  18.430   6.749 -0.1411 -0.0225  0.1549
44425W        W87338  25.056   0.446   0.676 -0.1345  0.1338  0.2194
44426W        W87339  33.201   2.293   1.099  0.1540 -0.0908  0.0741
44427W        W87340  20.020  21.927  21.991  0.1517 -0.0052  0.1227
44428W        W87341  30.882  18.696   3.904 -0.0289 -0.2140  0.0156
44429W        W87342   1.882  23.940  28.040 -0.3107 -0.3465 -0.1804
44430W        W87343   7.837   1.687  10.495 -0.0758 -0.0242  0.1686
44431W        W87344  34.361  18.165  28.500 -0.0879 -0.0374  0.1887
44432W        W87345   6.119  17.951  29.570 -0.0242 -0.0309 -0.0622
44433W        W87346  30.971  25.790   0.778 -0.0851  0.2857 -0.1802
44434W        W87347   6.386  15.399   3.112 -0.0415  0.2670 -0.0322
44435W        W87348  26.048  17.177   5.006 -0.0897 -0.0025 -0.3293
44436W        W87349  21.251  23.737  28.550 -0.2351 -0.1265 -0.0660
44437W        W87350  28.363  15.892   4.811 -0.0738  0.2865 -0.0230
44438W        W87351   1.675  13.235   4.970  0.1270 -0.0969 -0.1585
44439W        W87352  21.564   6.402   6.196 -0.3482  0.1910 -0.1372
44440W        W87353  28.666  17.170   8.763 -0.0302  0.2040  0.3279
44441W        W87354  30.228   6.364   1.156 -0.2905 -0.1000  0.0809
44442W        W87355   6.061   3.934   5.836  0.1905  0.2526 -0.3175
44443W        W87356  22.235   9.284  23.933 -0.0626  0.0918 -0.1732
44444W        W87357  18.302   7.538   2.096  0.2104  0.0736 -0.0688
44445W        W87358  20.391  11.628  27.690 -0.2129  0.1547  0.2125
44446W        W87359  29.339  19.736   5.705  0.3104  0.1039 -0.1311
44447W        W87360  29.470   3.234  10.483 -0.2609 -0.1047  0.2323
44448W        W87361  28.860   8.205   8.082 -0.1328  0.0344 -0.1518
44449W        W87362  22.676  12.651   7.819 -0.0097  0.2617  0.1995
44450W        W87363  29.632  22.129   9.397 -0.1414  0.3592  0.1356
44451W        W87364  31.015  25.214   5.671  0.0338  0.0089 -0.0249
44452W        W87365  27.962  21.123   5.008  0.1240 -0.0449  0.0429
44453W        W87366   2.564  10.326   5.185  0.1590  0.1425  0.0356
44454W        W87367  32.296  17.464   3.887  0.1001  0.2924  0.0329
44455W        W87368  26.836   4.805   5.720  0.0521  0.0031  0.1228
44456W        W87369   1.006  21.185   8.727  0.0049  0.2253  0.3360
44457W        W87370   6.950  14.953   6.973 -0.2840 -0.1359 -0.1170
44458W        W87371  25.570   9.299   2.747 -0.0753 -0.0303 -0.0845
44459W        W87372  31.017   6.747   8.422 -0.0636  0.1263 -0.0405
44460W        W87373  33.185  13.209   8.778  0.0735 -0.1972  0.1087
44461W        W87374  11.320  16.178   5.783 -0.0284  0.3804  0.0756
44462W        W87375  27.348  18.653  28.844  0.3218 -0.1612 -0.0335
44463W        W87376  32.757  14.064   7.186  0.0492 -0.0203  0.0774
44464W        W87377   6.564  19.774   7.545 -0.0825  0.3691  0.2699
44465W        W87378  29.142   6.339   4.114 -0.0766 -0.3989 -0.2361
44466W        W87379   5.608  19.679   2.008  0.3659  0.1865 -0.0680
44467W        W87380  25.482  22.239  23.681  0.1014 -0.1538 -0.2750
44468W        W87381  29.102  18.419   2.777 -0.1441 -0.0889  0.0150
44469W        W87382  28.435   0.809   7.534  0.3157  0.0330  0.3127
44470W        W87383   4.010   9.272   5.018 -0.0036 -0.0507  0.0106
44471W        W87384   2.572  12.855   7.470  0.0434 -0.2451 -0.1075
44472W        W87385   2.244   7.938  11.695  0.1604  0.0613  0.2102
44473W        W87386  33.682   6.334   3.110 -0.2837 -0.2059 -0.1282
44474W        W87387   4.172  15.354   7.986  0.2260  0.0593  0.0445
44475W        W87388  31.851  12.534   4.918  0.0093 -0.0794 -0.0861
44476W        W87389   8.416   8.501   6.034 -0.1127 -0.2258 -0.1203
44477W        W87390   6.536  14.562   1.876  0.2410 -0.0311 -0.2420
44478W        W87391  19.299  11.917  23.851  0.1845  0.0803 -0.1392
44479W        W87392  27.704  16.144   7.218 -0.2291 -0.0977 -0.1754
44480W        W87393  32.604  15.950   4.514  0.0607 -0.4128 -0.0706
44481W        W87394  33.696  18.848   8.997 -0.2587 -0.0155 -0.0804
44482W        W87395  32.178  20.868   7.284 -0.0621 -0.2054 -0.0491
44483W        W87396  23.762  13.312   5.067  0.0714 -0.2625  0.1637
44484W        W87397   3.665   8.560   8.941 -0.1581  0.2104  0.3292
44485W        W87398  34.048   4.317  10.134 -0.0539  0.2055  0.1186
44486W        W87399   0.055  17.283  26.171 -0.0993  0.0207 -0.0784
44487W        W87400  30.303   8.132   7.646  0.1424  0.1069  0.2584
44488W        W87401   2.413  15.745   2.917 -0.1022 -0.2440  0.0758
44489W        W87402  18.372  13.261   7.160  0.2138  0.1721 -0.0284
44490W        W87403   4.093  10.260  26.925  0.2377 -0.0117 -0.1678
44491W        W87404  26.726   4.664   0.355 -0.3134 -0.2199  0.1877
44492W        W87405  31.372  18.737   8.744  0.2222  0.0080 -0.4106
44493W        W87406   1.366  11.517   6.130 -0.0285  0.4484  0.5046
44494W        W87407  26.349  19.617   5.715  0.1833  0.2020 -0.1891
44495W        W87408  24.171  11.472  29.268 -0.3301  0.2211  0.0915
44496W        W87409  22.830  12.289   4.230  0.1582 -0.2350  0.0066
44497W        W87410  18.191  15.771   6.666  0.1742 -0.0592 -0.1257
44498W        W87411  18.240  23.478   2.525 -0.2381  0.3408  0.0984
44499W        W87412  31.220  11.113   3.321 -0.1230 -0.0730 -0.1204
44500W        W87413  23.633  15.648   4.123  0.1085 -0.2112 -0.0837
44501W        W87414  10.510  15.884   4.610  0.2056 -0.1016  0.1072
44502W        W87415   4.676  13.120   4.914 -0.0907 -0.1239 -0.0944
44503W        W87416   8.572  10.839  11.110 -0.0478  0.1064 -0.1457
44504W        W87417  29.006  17.830   9.651  0.0573  0.2098  0.0783
44505W        W87418  34.409   7.849   7.320 -0.1080  0.1579  0.0053
44506W        W87419   0.041  22.959   2.957 -0.3664  0.0204 -0.1597
44507W        W87420  30.827  13.117  29.159 -0.0217 -0.0167  0.2146
44508W        W87421  30.327   9.380   4.568  0.1790 -0.0400 -0.1871
44509W        W87422   3.453  15.285   6.075  0.1825  0.0036 -0.3065
44510W        W87423  23.988   5.829   4.532  0.3166  0.2003 -0.0376
44511W        W87424  29.243  15.020  10.217 -0.1412 -0.3130  0.2169
44512W        W87425  19.648  15.847   5.966 -0.0519  0.2725 -0.0508
44513W        W87426   1.456  14.213   5.893 -0.0816 -0.2765  0.3408
44514W        W87427  32.822  24.790   3.878  0.2286  0.1000  0.2705
44515W        W87428  32.050  21.394   7.603 -0.0464 -0.0215  0.3613
44516W        W87429   5.195  10.483   8.572 -0.0468 -0.2399  0.1933
44517W        W87430   5.932   6.793   9.230  0.3110  0.0627 -0.4253
44518W        W87431  29.184  12.962   2.574  0.2640  0.1591 -0.0313
44519W        W87432   1.536   8.543   9.376 -0.0523 -0.3541 -0.1064
44520W        W87433  25.531  16.083   5.602  0.0779  0.0451 -0.4453
44521W        W87434   3.044   8.769  10.910 -0.0974  0.0685  0.1877
44522W        W87435   8.768   9.580   9.594 -0.2539  0.3461  0.0276
44523W        W87436   6.280  13.832   0.426 -0.4221 -0.2329 -0.0036
44524W        W87437  20.483  18.749  26.067 -0.0023  0.1047  0.2528
44525W        W87438  27.184  13.361   7.818  0.1745  0.3366  0.2770
44526W        W87439   1.400   0.014  11.453 -0.2257 -0.2225 -0.3394
44527W        W87440  29.455  21.538   3.786  0.2144 -0.2366 -0.1938
44528W        W87441  29.094  22.368   2.665 -0.1866 -0.2892 -0.2001
44529W        W87442  31.669  12.892   7.478 -0.0461  0.0703  0.0606
44530W        W87443  23.547  14.492  27.339 -0.2863 -0.3206  0.0385
44531W        W87444   2.482  20.683   2.807  0.0404  0.0455  0.2026
44532W        W87445   1.451   8.744   6.665 -0.1987  0.0549  0.3156
44533W        W87446  30.374   9.131  26.721  0.2369  0.1332  0.0299
44534W        W87447   0.834   6.291  11.379 -0.1253 -0.1530 -0.1023
44535W        W87448  26.063   3.152   2.639 -0.2559 -0.1534 -0.1440
44536W        W87449   8.770   9.650   4.343 -0.4084 -0.2592 -0.1641
44537W        W87450   3.525   7.664  12.418 -0.0835 -0.1998 -0.0049
44538W        W87451   0.454  12.269  10.476  0.1431  0.0930  0.1114
44539W        W87452  31.774   1.994   8.716  0.1860  0.1165 -0.2218
44540W        W87453  23.511  11.319   6.723 -0.0349  0.2749 -0.1892
44541W        W87454   7.371  13.778   5.201  0.3082  0.1944 -0.0867
44542W        W87455  22.244  16.347  24.578  0.2018 -0.1267 -0.1060
44543W        W87456  30.599  14.648   8.519 -0.2898  0.0442 -0.0236
44544W        W87457   2.036   8.458  12.441 -0.0777  0.0613 -0.0085
44545W        W87458  33.065   3.081  11.137  0.2606  0.0218 -0.0780
44546W        W87459  23.327   8.777  28.903  0.0469  0.1778  0.1447
44547W        W87460  29.765  14.772   2.636  0.2971 -0.1184 -0.0988
44548W        W87461   0.325  10.342   9.210 -0.0634 -0.0155 -0.0487
44549W        W87462   1.213  12.395   7.607 -0.3091 -0.7195 -0.0545
44550W        W87463  31.766  20.045   4.049  0.0478 -0.1459  0.1474
44551W        W87464   4.428   3.845  13.485  0.1623 -0.0981 -0.0142
44552W        W87465  29.499  11.147   4.922  0.0127 -0.0335 -0.3804
44553W        W87466  32.532   9.613   9.039  0.0049 -0.0965 -0.0504
44554W        W87467   2.851   4.050   2.040  0.0119  0.2291  0.0329
44555W        W87468   2.131  11.188   4.537 -0.0980 -0.2390  0.1558
44556W        W87469  24.851  18.978   6.055  0.3339 -0.1478 -0.1322
44557W        W87470  30.017  19.369   8.647 -0.2173 -0.2319 -0.0897
44558W        W87471   3.622   4.678  13.083 -0.0459  0.0626 -0.4763
44559W        W87472  31.105  12.331   8.755 -0.0503 -0.1739  0.1688
44560W        W87473  25.975  19.755   8.270  0.1064  0.0323 -0.0887
44561W        W87474  29.270  17.741  29.574  0.0106  0.1196  0.1319
44562W        W87475  12.803  12.567   8.740 -0.2730  0.1150 -0.1212
44563W        W87476  12.648  30.961   2.513 -0.3979  0.0629  0.0280
44564W        W87477  25.124   2.057   4.423 -0.0777  0.4055  0.1609
44565W        W87478  32.824   3.178   3.692 -0.1727  0.0893 -0.3204
44566W        W87479  31.500   2.192  11.217  0.0442 -0.1683 -0.0913
44567W        W87480  33.508  12.429   4.118 -0.0733 -0.2200 -0.1107
44568W        W87481  28.511  12.376   8.100 -0.0426 -0.0963 -0.2229
44569W        W87482  24.549  20.658   3.746  0.1164  0.1985 -0.0459
44570W        W87483  20.724  17.245   6.318  0.1502 -0.1738  0.2998
44571W        W87484   0.431   3.669   9.489  0.3939  0.1608  0.0369
44572W        W87485  30.908  20.326   4.266  0.0921  0.0731 -0.0419
44573W        W87486  29.492  14.562   3.952  0.1935 -0.0708  0.1105
44574W        W87487  33.993  13.752   7.800  0.1048 -0.1819 -0.1186
44575W        W87488  24.400   5.181   6.049  0.1399  0.0008 -0.1344
44576W        W87489  30.485  15.585   6.922 -0.0986 -0.4211 -0.3157
44577W        W87490  26.696  13.332   7.469  0.3330 -0.3092  0.0871
44578W        W87491  33.626  10.227   5.996  0.1403  0.1474 -0.0291
44579W        W87492  24.242  16.087   5.677  0.2761  0.0589 -0.0583
44580W        W87493  24.489  24.065   5.790 -0.2336  0.4303  0.1050
44581W        W87494  31.303  13.915   2.793  0.2572  0.1166  0.2720
44582W        W87495   1.472  14.125  25.003  0.0797 -0.1816 -0.1306
44583W        W87496  31.844  11.908   6.580  0.2547  0.0665 -0.0990
44584W        W87497  29.367   3.636  27.549  0.1668  0.0366  0.0695
44585W        W87498  30.541  19.828   4.255 -0.0478  0.3857  0.1672
44586W        W87499  32.157  22.294   2.622  0.1694  0.0551  0.4908
44587W        W87500   4.874  20.200   7.908  0.4697 -0.4229  0.0012
44588W        W87501  31.078  11.068  10.641  0.1789  0.1278  0.0859
44589W        W87502  29.343  18.017   3.529 -0.0860 -0.2010 -0.1767
44590W        W87503   6.256  12.221  10.588  0.0291 -0.0704  0.1455
44591W        W87504   8.823  14.230  29.678 -0.0196  0.1550  0.3206
44592W        W87505  31.793  18.502   6.170 -0.5433 -0.1090 -0.4529
44593W        W87506  26.998   4.510   3.773 -0.2913 -0.0723 -0.0586
44594W        W87507  29.570   7.898   5.637 -0.1089 -0.2666 -0.1949
44595W        W87508  30.614  16.872   7.234 -0.3121 -0.1941 -0.0552
44596W        W87509  25.892   6.553   7.690  0.0705 -0.0413  0.0386
44597W        W87510   6.283  23.775   6.100  0.2945 -0.5172  0.0670
44598W        W87511  28.623  16.067  29.505 -0.1399  0.2168  0.2922
44599W        W87512  23.744   8.920   2.203 -0.0999 -0.1874  0.0220
44600W        W87513  30.793  11.734   8.987  0.2975 -0.1735 -0.0196
44601W        W87514   3.279   9.477   6.266  0.1889 -0.0888 -0.0323
44602W        W87515   0.134  14.027   5.708 -0.2217 -0.1040  0.2143
44603W        W87516  30.936  15.514   0.051 -0.1994  0.0405 -0.1847
44604W        W87517  23.687  11.277   8.653 -0.0467  0.0334  0.2924
44605W        W87518  22.798  11.439   8.685  0.1703  0.0599  0.0416
44606W        W87519  22.303  15.110   6.531 -0.0585 -0.1341  0.0136
44607W        W87520  22.576   8.082   8.955 -0.1583  0.2838  0.0004
44608W        W87521   6.411  18.523  25.721  0.0008  0.1501  0.3009
44609W        W87522  26.721  12.619   8.286 -0.2065 -0.3436  0.0850
44610W        W87523  23.885  21.268  26.020 -0.0006 -0.0555 -0.0221
44611W        W87524  34.277  17.157   6.961  0.0820 -0.2856  0.0782
44612W        W87525  34.045  17.449   3.300 -0.2229  0.2543 -0.2662
44613W        W87526   1.969  18.992   9.447 -0.1594 -0.1008 -0.3720
44614W        W87527  32.415   6.750   3.335 -0.2535  0.0463  0.2829
44615W        W87528   7.552   6.717  11.844  0.1692  0.6474 -0.2062
44616W        W87529  25.775  11.441   6.106  0.2544 -0.0496 -0.0016
44617W        W87530  24.814  10.319   8.490  0.1174  0.1888 -0.0204
44618W        W87531   5.079  11.168  28.718 -0.0879 -0.0702  0.1077
44619W        W87532  29.856  13.733   3.540 -0.1002  0.3125  0.2285
44620W        W87533   6.571  10.568   9.078  0.0546  0.3472 -0.1258
44621W        W87534  25.403  17.397   8.131 -0.3090  0.1902  0.3090
44622W        W87535  28.775  10.003   8.609 -0.2489  0.2189 -0.2132
44623W        W87536  32.903   6.008  10.751  0.2632  0.1409  0.1788
44624W        W87537   1.827  17.245   0.377 -0.0067  0.3740 -0.0168
44625W        W87538  34.376  21.886   5.530 -0.0885  0.2433 -0.0453
44626W        W87539   1.134  15.602   6.067 -0.1596  0.2409 -0.0861
44627W        W87540   2.677  15.567   5.813 -0.2992 -0.2218 -0.0252
44628W        W87541   9.422  26.135  10.191 -0.0399  0.1724  0.1750
44629W        W87542   4.490  15.312   9.196  0.1968  0.0841  0.0087
44630W        W87543  29.739   7.673   7.634 -0.2629 -0.2816  0.4198
44631W        W87544  26.412  10.262   9.456 -0.1414  0.0152 -0.3832
44632W        W87545  31.053  15.819   9.005 -0.1406  0.2302  0.1464
44633W        W87546  22.913  15.634   4.230  0.1259  0.0113 -0.0740
44634W        W87547  32.199  10.629   4.899 -0.0615 -0.0517 -0.0571
44635W        W87548   4.520  19.584   5.458 -0.1192 -0.0471 -0.3348
44636W        W87549  31.984  15.723   3.303 -0.0988 -0.0636  0.0208
44637W        W87550   8.995  17.409   9.685 -0.1265 -0.1487 -0.1667
44638W        W87551   9.455  20.147   8.250  0.0118 -0.1084 -0.0960
44639W        W87552  14.521  16.441   7.063 -0.0109 -0.1457 -0.1589
44640W        W87553   1.088  13.163   8.116  0.1304 -0.2268  0.1224
44641W        W87554   3.413  24.038   7.683 -0.0731  0.1633  0.0486
44642W        W87555  29.860   0.944  10.611 -0.0191 -0.3345  0.0684
44643W        W87556  33.820  16.013   7.963 -0.1654 -0.4075  0.2923
44644W        W87557  29.254  23.245  24.113 -0.0995  0.1864 -0.0328
44645W        W87558   6.221  19.400  10.153 -0.2071  0.1399 -0.1696
44646W        W87559  27.254  22.078  25.752 -0.2633 -0.1395  0.0620
44647W        W87560  15.624  13.224  22.281  0.3380  0.2803  0.0542
44648W        W87561   0.759   8.018  26.608 -0.0520 -0.0358  0.1316
44649W        W87562   3.219   9.968  10.401 -0.4017 -0.1778 -0.2948
44650W        W87563   5.584   8.041  11.787 -0.1206 -0.1521 -0.1130
44651W        W87564  14.335   5.196   6.514  0.1197  0.0249  0.0171
44652W        W87565  34.050  12.540  10.508 -0.0582 -0.1717  0.1137
44653W        W87566  25.350  17.025   8.544  0.2140 -0.2022 -0.0608
44654W        W87567  31.058  14.785   9.972  0.0711  0.1146 -0.0090
44655W        W87568  24.458  18.598   9.309 -0.3281  0.3826  0.1033
44656W        W87569  23.107  24.838   6.233  0.0413 -0.1078  0.0794
44657W        W87570  33.389  11.470   4.407 -0.1530  0.0305  0.2927
44658W        W87571   5.846  12.836   3.842  0.1588 -0.0270  0.3130
44659W        W87572   8.206   7.595   2.058  0.3076 -0.0304  0.0687
44660W        W87573   0.114  14.128   6.253 -0.1325 -0.0633 -0.0036
44661W        W87574   2.535  12.595   4.567 -0.0806 -0.0932 -0.3384
44662W        W87575  32.847  23.042   7.006 -0.3865  0.3065  0.0885
44663W        W87576  26.761  12.891   6.163 -0.3852 -0.3785 -0.0538
44664W        W87577  28.935  15.977   8.828 -0.2934  0.1237  0.0037
44665W        W87578  32.583  18.184   1.119  0.2772 -0.0962  0.0323
44666W        W87579  15.122  11.776   2.208  0.2105  0.0579  0.1967
44667W        W87580   0.171  17.378   8.805 -0.1319 -0.3143  0.3078
44668W        W87581  23.630   6.625  28.230  0.1518 -0.0807 -0.3573
44669W        W87582  23.705   9.915   7.866 -0.2454 -0.2597  0.0996
44670W        W87583   0.031   0.546  11.553  0.0218  0.0959  0.0520
44671W        W87584   4.665   3.822   7.216  0.1361  0.1439 -0.2301
44672W        W87585  25.290   7.725   9.103  0.1159  0.0462  0.1010
44673W        W87586  28.655  11.004   6.241  0.0729 -0.4681  0.2121
44674W        W87587  24.539  12.945  27.609 -0.5674  0.1292  0.2556
44675W        W87588  24.537  15.333   7.701 -0.1522  0.1278 -0.0240
44676W        W87589  31.062  26.683   4.470 -0.1546  0.2059 -0.1030
44677W        W87590   2.096   8.371  11.483  0.2257  0.1416 -0.0336
44678W        W87591  30.990   7.166   9.928 -0.5133 -0.1381 -0.4288
44679W        W87592   2.005  17.358   9.379 -0.1084  0.0643  0.0736
44680W        W87593  31.629  10.450  25.588 -0.1644 -0.1706 -0.1432
44681W        W87594  32.991  18.447   7.183 -0.1320  0.5391  0.2504
44682W        W87595  31.731   9.526   1.449 -0.1862 -0.0685  0.0034
44683W        W87596   7.211   2.013   4.761 -0.0869  0.1250 -0.0919
44684W        W87597   2.763  27.861   9.294 -0.1907 -0.2318 -0.2672
44685W        W87598  25.981  21.529   3.113 -0.1280 -0.0440 -0.2818
44686W        W87599   1.794   0.861   8.536 -0.1052 -0.0466  0.1493
44687W        W87600   2.471   1.490  12.019 -0.1391 -0.3322 -0.1933
44688W        W87601  34.149  19.655   7.670 -0.2446  0.0199  0.3203
44689W        W87602  29.634  30.954   3.651 -0.3287  0.1410 -0.1133
44690W        W87603  31.072  11.029   1.718  0.1265  0.1673  0.0589
44691W        W87604   4.149  12.843   6.360 -0.1527 -0.0209  0.2456
44692W        W87605  23.114  18.891   5.982 -0.1824  0.0032 -0.0292
44693W        W87606  27.760   1.042   0.831 -0.1999 -0.6206 -0.0503
44694W        W87607  16.661   4.934   2.874  0.1386 -0.1197 -0.1193
44695W        W87608  21.480  11.797   6.998  0.0291 -0.0351  0.1301
44696W        W87609  30.397  13.446   5.158  0.0629  0.1841  0.2065
44697W        W87610  30.824  18.079   3.651  0.0746  0.0812  0.0924
44698W        W87611  30.808   9.304  10.161 -0.2817 -0.1797 -0.1380
44699W        W87612  30.984  18.848   5.118  0.2448 -0.4265 -0.2196
44700W        W87613   7.432  11.439  11.475 -0.1746 -0.0190 -0.1892
44701W        W87614   3.144   8.709  10.354  0.0010  0.1490  0.0262
44702W        W87615  28.290  18.680   6.549  0.1327  0.0980  0.1930
44703W        W87616   2.174  18.146   7.734  0.1349  0.1729 -0.0105
44704W        W87617  32.934  14.759   2.123  0.1744  0.0397 -0.0840
44705W        W87618  24.292  17.523   7.630 -0.0402 -0.0227  0.2081
44706W        W87619  12.446   7.173   7.361 -0.1598  0.1464  0.0845
44707W        W87620  31.132  12.317   7.646  0.0938  0.0700 -0.1885
44708W        W87621  29.277  18.873   8.629 -0.0887  0.1938  0.1256
44709W        W87622  24.235   0.170   4.854  0.1598  0.3265  0.0414
44710W        W87623  26.200  19.060   9.062 -0.1613 -0.1396 -0.1154
44711W        W87624  33.045  19.949   0.805  0.0920  0.0240  0.0816
44712W        W87625  30.139  13.968   9.432  0.1589  0.0798 -0.1341
44713W        W87626   0.642   0.003   4.464  0.0018 -0.0305 -0.2750
44714W        W87627   0.310  12.375   7.989 -0.0674 -0.0372  0.0783
44715W        W87628  32.914   3.683  10.468  0.1268 -0.0336 -0.0128
44716W        W87629  33.886  10.175  10.588 -0.2220 -0.1370  0.2325
44717W        W87630   0.687   6.551   1.746  0.0894  0.0657 -0.1096
44718W        W87631   1.436  16.911   5.016 -0.2149  0.0735  0.1220
44719W        W87632   2.107  12.835   6.710  0.1513  0.0565 -0.1815
44720W        W87633  26.933  16.832   5.550 -0.0448 -0.1240 -0.1853
44721W        W87634  32.558  10.110  11.053  0.5495  0.2127 -0.0612
44722W        W87635   6.194  12.294   5.547 -0.1200  0.2135  0.1124
44723W        W87636  27.965   5.401   6.308 -0.2010  0.1764  0.0277
44724W        W87637  34.122  11.523   3.599  0.0996  0.2128  0.2483
44725W        W87638  29.558   7.453   5.409  0.0809  0.0632 -0.1355
44726W        W87639   3.110   7.218   5.834  0.0485 -0.0823  0.3457
44727W        W87640  28.595  24.762   8.235  0.2319 -0.2948 -0.3039
44728W        W87641  23.211  17.367   0.370 -0.0260  0.1077 -0.0009
44729W        W87642  30.572  15.021   5.224  0.0045 -0.2429 -0.2113
44730W        W87643  29.351  11.392   1.173  0.1450  0.4822 -0.1193
44731W        W87644  32.424   9.063   4.900 -0.0753 -0.0435  0.0033
44732W        W87645   2.983  11.973   1.943  0.0678  0.0465  0.0527
44733W        W87646   5.854  33.331  12.362  0.0879 -0.1936 -0.1003
44734W        W87647   9.318  10.486   4.876  0.1193 -0.1862  0.0883
44735W        W87648   4.797  26.783  10.049 -0.0542  0.2030 -0.0648
44736W        W87649  28.664  14.651   8.189  0.1666  0.2798 -0.1038
44737W        W87650  23.415  10.008   6.111  0.2006 -0.0579  0.1041
44738W        W87651   1.154  15.129   2.745 -0.0101  0.5181 -0.1859
44739W        W87652   8.106   9.733   8.031 -0.0699 -0.2583  0.1305
44740W        W87653  29.475  13.285   7.264 -0.0456 -0.1479  0.1298
44741W        W87654  28.639  21.978   8.872  0.2766 -0.0489 -0.2870
44742W        W87655  27.112   8.564   9.398  0.0116 -0.0363 -0.1551
44743W        W87656   1.365  11.691   8.208 -0.2055 -0.3951 -0.2932
44744W        W87657   3.740  10.953   5.821 -0.2626  0.0725 -0.2076
44745W        W87658  24.170  33.824   5.471  0.2722  0.3139 -0.0936
44746W        W87659  27.639  13.342   8.153  0.2225  0.1711  0.0073
44747W        W87660  32.053   7.477   8.146  0.0004 -0.0716  0.0885
44748W        W87661  18.699   7.052  27.773 -0.2458  0.1879  0.1298
44749W        W87662   0.298  14.208  10.336 -0.1899  0.0943  0.0568
44750W        W87663  27.152   7.739   5.829 -0.2513 -0.4890  0.0502
44751W        W87664  32.692  18.156   7.464  0.2059  0.1997 -0.0477
44752W        W87665  32.599  14.343   2.061  0.0679  0.1917  0.0556
44753W        W87666  24.442  16.132   3.078  0.1478 -0.1966  0.2725
44754W        W87667  31.032   9.410   9.467 -0.0092  0.0315  0.1178
44755W        W87668  25.784  10.991   3.730 -0.0771  0.0722 -0.0831
44756W        W87669  20.761  13.280   3.214 -0.0475  0.2391 -0.1530
44757W        W87670  11.232  13.592   6.458  0.0542  0.2543 -0.0746
44758W        W87671  23.386  19.825   1.205 -0.1101  0.4182 -0.2690
44759W        W87672   1.226  15.569   0.328 -0.3380 -0.3319  0.1797
44760W        W87673  24.569  22.437  28.903 -0.3433  0.0615  0.2580
44761W        W87674  33.069  14.957  23.073 -0.3162  0.1062 -0.3401
44762W        W87675  34.436  24.596  29.709  0.1057  0.1432  0.1848
44763W        W87676  23.093  23.354   1.465  0.2411  0.3144  0.1056
44764W        W87677  23.682  18.212   3.823 -0.0031 -0.3146  0.2816
44765W        W87678   1.509  15.072   6.423  0.0057 -0.0160  0.0089
44766W        W87679  28.748  30.189   6.511 -0.0502  0.3457  0.0049
44767W        W87680  20.888  13.611  27.121  0.0305 -0.2270 -0.0958
44768W        W87681   7.470  13.188   3.677 -0.3886 -0.0747 -0.0917
44769W        W87682   4.446  16.509   0.611 -0.2825 -0.0203  0.0433
44770W        W87683  22.326  19.269  28.794 -0.1242 -0.1558 -0.0898
44771W        W87684  32.960   8.762  11.817  0.0473 -0.0330  0.2324
44772W        W87685  25.818  21.482   2.571 -0.0068  0.1295 -0.1805
44773W        W87686  24.229  18.509  27.161  0.0636 -0.0699  0.3945
44774W        W87687  26.855   7.634  27.053  0.2246  0.0196  0.0394
44775W        W87688  32.892  13.521   9.451  0.1912  0.1172  0.1425
44776W        W87689  27.955  23.857  27.203  0.3961 -0.2340  0.1619
44777W        W87690  27.984  28.143   8.789 -0.1079 -0.0295 -0.1078
44778W        W87691  27.210  23.508   1.614  0.0799  0.0005  0.0164
44779W        W87692   0.018  19.348   1.975 -0.2309  0.3123  0.0964
44780W        W87693  26.839  19.536   8.513  0.3125 -0.1639 -0.3174
44781W        W87694  20.470  25.961  24.593  0.0329  0.1916  0.0165
44782W        W87695   4.887  19.600   4.121 -0.1040  0.1317 -0.0227
44783W        W87696  28.782  14.191   9.072 -0.2437 -0.0191 -0.1273
44784W        W87697   8.045  10.950  29.465 -0.1767 -0.1900 -0.2935
44785W        W87698   0.569  11.618   6.295 -0.1883 -0.0342 -0.1249
44786W        W87699  33.434  18.870  24.682  0.0604 -0.0898 -0.1509
44787W        W87700  30.397  21.679  28.927 -0.0739  0.1488  0.0148
44788W        W87701  30.165  13.771  19.206  0.0810 -0.0002  0.2588
44789W        W87702  33.722  20.329   6.165 -0.0863  0.1031 -0.0354
44790W        W87703  15.346  19.064  28.711  0.3301  0.1771 -0.0140
44791W        W87704   1.021  14.145   3.633 -0.0590 -0.2270 -0.5371
44792W        W87705   1.618  11.705   4.153 -0.2770 -0.1822 -0.2562
44793W        W87706  27.953  19.289   4.831 -0.4628  0.0996 -0.0170
44794W        W87707   7.900  28.461  21.388  0.0022 -0.4713  0.0380
44795W        W87708  22.843  25.558   2.807  0.0700  0.2422 -0.0786
44796W        W87709  32.053  22.401   7.902  0.0901  0.1586  0.2477
44797W        W87710  33.780  17.220   0.056  0.2089 -0.0519  0.4093
44798W        W87711   0.411  21.111   5.671  0.2114 -0.1460  0.1010
44799W        W87712  31.067   9.529   6.072  0.3766  0.3361 -0.1789
44800W        W87713   1.910  24.705   6.968  0.0348  0.0798  0.1094
44801W        W87714   3.488  10.296   7.659  0.2052  0.1307 -0.2088
44802W        W87715  24.035  13.986   6.736 -0.0523 -0.2238  0.0468
44803W        W87716  34.193  25.543   4.856 -0.0221 -0.0254 -0.0606
44804W        W87717  31.026  25.907  27.775 -0.2260  0.0406 -0.0461
44805W        W87718   1.557  13.712   0.887 -0.0947 -0.0280  0.0956
44806W        W87719  10.361   8.695  23.998  0.0358  0.2917 -0.3115
44807W        W87720   3.988  20.305   6.211  0.1794  0.1227  0.0131
44808W        W87721  26.161  22.884  26.385  0.0156  0.1804  0.0779
44809W        W87722   2.873   8.666   8.673  0.2040 -0.0633  0.2356
44810W        W87723  34.183  27.612  29.079  0.2967  0.2059 -0.0851
44811W        W87724  24.752  22.924  24.636 -0.2948 -0.1764  0.1185
44812W        W87725  33.603  19.260  28.994 -0.0738  0.0985  0.0465
44813W        W87726   0.316  22.105   1.922 -0.2324 -0.0218 -0.2551
44814W        W87727  21.599  27.399  27.497  0.3257  0.1301 -0.0315
44815W        W87728   4.364   4.253   4.260 -0.0342 -0.3388  0.0173
44816W        W87729  31.774   7.746  24.010  0.1700 -0.0783 -0.4067
44817W        W87730  19.766  16.003  26.664  0.3125 -0.3630  0.3259
44818W        W87731  33.889  18.323   4.526 -0.3189  0.0112 -0.0795
44819W        W87732  24.200  25.168   4.286  0.0165 -0.4356  0.1221
44820W        W87733  30.651  15.284  22.641 -0.2334 -0.2172 -0.2126
44821W        W87734  33.320  14.015  26.359 -0.1093  0.1245  0.1865
44822W        W87735  32.153  17.251  26.598 -0.0717  0.0667  0.3346
44823W        W87736   3.850  16.315   1.955 -0.1677  0.1257 -0.3747
44824W        W87737  32.803  14.739   2.840  0.2728 -0.0449  0.1691
44825W        W87738   8.754  13.224   7.314 -0.0702 -0.1069  0.0459
44826W        W87739  19.672  22.656   0.392  0.1375 -0.0001  0.2554
44827W        W87740  32.853   7.819   2.580  0.1189  0.0429 -0.4208
44828W        W87741  31.737  11.251  17.371 -0.0285 -0.1928 -0.1428
44829W        W87742   1.835  15.831   7.011 -0.1962  0.2391 -0.1705
44830W        W87743  33.440  17.113   3.792 -0.3430 -0.2638  0.0520
44831W        W87744  26.037  14.561   5.701  0.2344 -0.3797 -0.1019
44832W        W87745   2.490  10.626   3.750 -0.1291  0.1195  0.0865
44833W        W87746   5.944  15.463  29.069 -0.1618 -0.3651  0.1627
44834W        W87747  29.350  16.237  27.150  0.0211 -0.0116 -0.3936
44835W        W87748   1.929  20.583   6.108 -0.0328 -0.0635 -0.1487
44836W        W87749  25.912  15.395   3.472 -0.4204  0.0618 -0.2624
44837W        W87750  26.941   9.819   1.816  0.1036  0.0698 -0.0766
44838W        W87751   3.438  12.319  22.945  0.3112 -0.0006 -0.0009
44839W        W87752  33.368  24.445  29.577 -0.0416  0.0084  0.1412
44840W        W87753  26.785  20.425  27.839  0.3301  0.1534  0.2494
44841W        W87754  21.410  13.841  24.531 -0.3816 -0.3136 -0.1683
44842W        W87755  19.675  24.522   0.435 -0.0987 -0.0505 -0.2476
44843W        W87756  22.342  20.148  25.830  0.1143 -0.0449  0.4085
44844W        W87757  29.825  28.199  29.758  0.0933  0.3399  0.4979
44845W        W87758  19.107  23.583  13.851  0.0692  0.1511  0.2450
44846W        W87759  23.571  15.815   5.841 -0.1365 -0.2342 -0.2420
44847W        W87760   3.754  11.453   7.010 -0.2692  0.0625 -0.0300
44848W        W87761   2.953   6.634  27.003  0.2265 -0.0691  0.1896
44849W        W87762  21.418  20.658   8.643  0.2858 -0.2672 -0.0201
44850W        W87763  20.030  18.750   6.676  0.0273 -0.0407 -0.0385
44851W        W87764   0.891   7.443   7.303 -0.1715  0.0113 -0.1284
44852W        W87765  33.436  22.776   0.666  0.1017  0.1421 -0.1155
44853W        W87766  22.147  12.876  23.553  0.1527  0.1257 -0.1271
44854W        W87767   4.902  14.576   1.575 -0.0726  0.2541 -0.2739
44855W        W87768  26.529  14.361  29.075 -0.0117 -0.0876  0.2079
44856W        W87769  25.355  21.362  27.893  0.0026 -0.0085  0.3309
44857W        W87770  31.888  20.568  29.490  0.2131 -0.1603  0.0320
44858W        W87771  27.914  20.930   6.846  0.2098 -0.1392 -0.5089
44859W        W87772   0.561  16.043   6.538  0.2181 -0.2377 -0.0886
44860W        W87773  25.223  26.372   5.499 -0.2688 -0.0906  0.3496
44861W        W87774  33.952  21.827   7.884 -0.3403 -0.2372  0.0520
44862W        W87775  16.288  13.055   8.150 -0.2025 -0.0240  0.3860
44863W        W87776  16.250  19.917   6.701  0.2928  0.1288  0.1123
44864W        W87777   0.892  16.475  28.201 -0.1941  0.1581  0.3146
44865W        W87778   2.764  31.980  28.352 -0.1216  0.1424  0.0911
44866W        W87779   7.765  16.264   6.609  0.0092 -0.1140  0.1263
44867W        W87780  29.272  15.286  26.817  0.1927  0.2678  0.0523
44868W        W87781  30.179  14.760  21.662  0.0231 -0.0968 -0.0822
44869W        W87782   4.548  13.103  25.125 -0.1127 -0.0866  0.1914
44870W        W87783  28.311  22.781   4.766  0.4133 -0.0455  0.1304
44871W        W87784  14.791  14.894  29.536  0.4694 -0.2445 -0.0132
44872W        W87785   3.221  11.348   2.574  0.0243 -0.0952 -0.0738
44873W        W87786  30.443  25.635   1.188 -0.0447  0.2040 -0.0875
44874W        W87787  32.372   5.041  27.227  0.4835 -0.0991  0.0171
44875W        W87788   0.026  22.319   5.260  0.0620 -0.2614  0.2554
44876W        W87789  25.766  30.492   2.091 -0.3038 -0.0016 -0.1535
44877W        W87790  23.351   8.266   1.565  0.0575  0.1182  0.3340
44878W        W87791   1.348  18.425   1.790 -0.1673 -0.1146  0.1111
44879W        W87792   5.527  14.859   1.443 -0.0850  0.0525 -0.1480
44880W        W87793  27.968  19.736  25.138 -0.3534  0.1612  0.0969
44881W        W87794  31.915  22.552   9.269 -0.1947 -0.1294 -0.0936
44882W        W87795  33.182  24.836   9.714  0.0959  0.0848 -0.0630
44883W        W87796   5.006  15.741  29.585 -0.0458  0.0331 -0.4439
44884W        W87797  27.470   9.464  26.701  0.3690  0.1721 -0.1474
44885W        W87798  32.015   8.511  27.820  0.2119  0.0267 -0.1342
44886W        W87799  14.878  13.615   8.059  0.0132  0.0287  0.0732
44887W        W87800   2.084  18.861   3.064  0.2321  0.0823 -0.0688
44888W        W87801   2.050  14.333   1.989  0.1647 -0.0708 -0.2313
44889W        W87802  27.393  26.073  28.791  0.4299  0.1297 -0.4075
44890W        W87803  18.482  17.191  26.184  0.3559  0.0041  0.1865
44891W        W87804  25.122  31.573   2.938 -0.1528 -0.2204  0.0650
44892W        W87805  26.425  20.969  26.094  0.1894 -0.2362  0.1157
44893W        W87806  33.685  15.204   1.110  0.1207  0.1947  0.1796
44894W        W87807  26.827  23.347  27.990  0.2307  0.1017  0.1223
44895W        W87808  28.426  16.173   3.828 -0.2382  0.1972  0.1401
44896W        W87809   3.248  14.043   2.104  0.1293 -0.2596  0.3309
44897W        W87810  22.781  13.623  22.758  0.3580 -0.1103 -0.1458
44898W        W87811  25.001  15.433   6.005 -0.4126  0.1182  0.0636
44899W        W87812  22.222   8.767  25.057 -0.1814 -0.3781 -0.1186
44900W        W87813   2.895  15.183  18.138  0.2127 -0.2677  0.0399
44901W        W87814  34.286   9.854   7.718 -0.2338  0.2134  0.2577
44902W        W87815   0.947  27.942   5.626  0.0032 -0.1254  0.5915
44903W        W87816  33.794   8.680   8.122 -0.1417  0.2683  0.0807
44904W        W87817  30.296  18.465   7.792  0.1488 -0.0765  0.3504
44905W        W87818  25.044  21.517  29.067 -0.1727 -0.3506 -0.1403
44906W        W87819  28.632  15.834   0.481  0.0562 -0.0824  0.1463
44907W        W87820  28.821  25.640   8.297  0.3183  0.2329  0.1810
44908W        W87821   2.739  31.383   7.895 -0.1485  0.0980  0.1990
44909W        W87822  33.180  19.171   4.485 -0.2943  0.1688 -0.2572
44910W        W87823  33.287  19.946   7.720 -0.0178  0.0478  0.1910
44911W        W87824  23.071  11.520   6.415  0.0471 -0.3992  0.2127
44912W        W87825  10.365  10.952   4.000  0.0300 -0.0813  0.1337
44913W        W87826  26.751  29.182  25.775  0.0348 -0.0643  0.1537
44914W        W87827  33.324  14.247  25.893 -0.1772 -0.0624  0.0001
44915W        W87828  24.451   5.321  14.935  0.4395  0.0587 -0.0438
44916W        W87829  30.648  18.887  27.524 -0.0980  0.0023 -0.1049
44917W        W87830  33.727  14.407  23.390  0.1290 -0.0120  0.3569
44918W        W87831   3.110   8.660   5.239 -0.2461  0.1966  0.1834
44919W        W87832  29.326  27.481   0.556 -0.3372 -0.0039 -0.1258
44920W        W87833   6.252   4.176  27.569 -0.0629 -0.1580 -0.0592
44921W        W87834  34.212  11.792   8.489  0.1634 -0.1409 -0.1535
44922W        W87835   1.892   4.997  23.099  0.0332  0.1044  0.0452
44923W        W87836  22.603   6.059  20.787 -0.0021  0.0295  0.1401
44924W        W87837  31.129  10.507  25.135 -0.3803  0.1278 -0.2735
44925W        W87838  22.262   6.669  22.487  0.4083 -0.1493 -0.0584
44926W        W87839   1.667  20.206   1.268 -0.0548 -0.2925  0.0938
44927W        W87840  32.185  24.509   8.037  0.0634  0.0346 -0.0920
44928W        W87841  19.629  15.232  21.975 -0.0466  0.1773 -0.1746
44929W        W87842   7.852  24.269  28.016 -0.0208  0.0739 -0.1078
44930W        W87843  20.548  21.915  27.539  0.2278 -0.3605 -0.1188
44931W        W87844  10.433  15.324  26.505  0.1536  0.1143  0.3581
44932W        W87845   5.215  16.488   7.893 -0.1946  0.2271  0.1170
44933W        W87846  31.313  24.110  26.402 -0.2068  0.0955 -0.0133
44934W        W87847  30.855  21.440   5.040  0.3247  0.3430  0.1948
44935W        W87848  26.540  12.274  27.892 -0.0360  0.0612  0.2397
44936W        W87849  29.495  19.660   6.204 -0.3219 -0.2286  0.1709
44937W        W87850   3.442  14.112  10.305  0.1979 -0.1289  0.0948
44938W        W87851  23.865   9.274  27.988  0.1030  0.0630  0.1353
44939W        W87852   2.582   6.206   0.820 -0.2315  0.2409 -0.2658
44940W        W87853   1.518  20.112   9.763  0.1072 -0.0824  0.0875
44941W        W87854   2.317  19.996   0.062 -0.0068  0.2281 -0.0536
44942W        W87855   1.999   7.889   6.917 -0.3766  0.1923  0.0775
44943W        W87856  25.863  20.903  26.531 -0.4695 -0.0199 -0.1591
44944W        W87857  31.354  26.221   3.743  0.2785 -0.1935 -0.1298
44945W        W87858  20.636  16.694   0.671  0.0838  0.0117  0.1184
44946W        W87859  33.382  14.036  23.510  0.1251  0.1288 -0.1038
44947W        W87860  21.703  14.726   8.438  0.3050 -0.0089  0.2162
44948W        W87861  33.706  11.251  10.746 -0.4159 -0.1344 -0.2838
44949W        W87862   9.711   7.759   3.370  0.4430 -0.2106  0.0906
44950W        W87863  29.536  14.296   8.600 -0.1465  0.5535  0.2964
44951W        W87864   3.982  16.026   6.815  0.0431  0.4461 -0.0280
44952W        W87865   1.628  16.187  27.216 -0.1924  0.0085  0.1167
44953W        W87866  19.193  15.483   6.744  0.0280  0.0364  0.2971
44954W        W87867  33.061  18.548   1.953 -0.1236 -0.1591  0.2023
44955W        W87868  28.106  33.713   2.738 -0.0872 -0.1289 -0.1538
44956W        W87869  33.424  15.609   9.474 -0.1738 -0.0913  0.2297
44957W        W87870   1.437  11.685   5.519 -0.1828  0.0886 -0.0485
44958W        W87871   1.956  24.505   9.507 -0.1577  0.0171  0.1408
44959W        W87872  24.938  18.139   3.795  0.3269 -0.1358 -0.2418
44960W        W87873  31.693  34.440   4.116 -0.1415  0.1497 -0.2869
44961W        W87874  23.648  11.056   2.107 -0.1785 -0.3269 -0.0528
44962W        W87875  12.699   6.851  27.279  0.3266  0.3308  0.1308
44963W        W87876  14.108   6.294  25.382 -0.0444 -0.1005  0.1859
44964W        W87877  33.772  19.855  28.201 -0.1735  0.3785 -0.0401
44965W        W87878  26.671  17.001  29.032 -0.1164 -0.0301  0.1018
44966W        W87879   7.998  13.952   6.851  0.1821  0.3161 -0.3823
44967W        W87880  28.967  13.718   3.039 -0.1822  0.0471  0.0832
44968W        W87881  32.350  15.129   1.003 -0.0450  0.1754 -0.2045
44969W        W87882  24.167  25.274  17.261  0.0704  0.1303 -0.0548
44970W        W87883   0.045  19.966   5.650 -0.1625  0.0966  0.0481
44971W        W87884  29.224  11.639  29.308 -0.2600  0.1479 -0.0186
44972W        W87885   2.612  24.441   5.174  0.0590 -0.1727  0.1615
44973W        W87886  26.267  13.300   1.047 -0.1474  0.3430 -0.0330
44974W        W87887  30.489   3.423   6.167 -0.1250  0.0260 -0.1090
44975W        W87888  29.097  26.673  28.308 -0.0876  0.2235 -0.0840
44976W        W87889  26.343  13.698   9.020 -0.1056 -0.1499 -0.2315
44977W        W87890  20.858  20.326  25.033  0.2251 -0.2246 -0.3157
44978W        W87891  22.136  16.666   7.430  0.0155 -0.0619 -0.1136
44979W        W87892   6.697  22.250   6.766  0.2384 -0.0902  0.2094
44980W        W87893  25.863  18.620   0.311  0.0167 -0.0263  0.0459
44981W        W87894  32.480  21.832  29.400  0.2463  0.1261 -0.1375
44982W        W87895   2.566  22.771  15.842 -0.0453 -0.1817 -0.0484
44983W        W87896  11.285  19.210  27.457  0.0433 -0.2508  0.1679
44984W        W87897   3.055  10.842   7.047  0.1378  0.1115 -0.1293
44985W        W87898  27.029   9.730  27.477 -0.0606 -0.3163 -0.3275
44986W        W87899   2.550   9.959   4.920 -0.0483 -0.3429  0.4493
44987W        W87900  18.772  24.372   1.596  0.1759  0.0134  0.1012
44988W        W87901   9.614  14.727   7.082  0.2437 -0.0401  0.2168
44989W        W87902  27.766  17.474  10.070 -0.0237 -0.0685  0.3687
44990W        W87903  33.016  19.720   6.393 -0.0213  0.0794  0.0545
44991W        W87904  12.705  16.879  16.036 -0.1883  0.1255  0.0380
44992W        W87905   3.590  16.793   2.711 -0.0454  0.0526 -0.1501
44993W        W87906   6.916  14.481   0.885 -0.0390 -0.1992 -0.0536
44994W        W87907   3.666  19.401   9.751  0.1509  0.0024 -0.2758
44995W        W87908   4.964   7.605  29.668  0.1393 -0.4948  0.3192
44996W        W87909  30.057  16.642   6.582  0.2617  0.0836  0.0518
44997W        W87910  29.372  29.396   1.145  0.1968 -0.0799 -0.0122
44998W        W87911  32.236  18.353   9.655  0.2892 -0.0209  0.0968
44999W        W87912   0.996   9.162  23.814  0.1872 -0.1448  0.1431
45000W        W87913  24.299  19.944   7.161  0.2891 -0.0726 -0.2241
45001W        W87914  31.661  11.922   9.293  0.0300  0.0852 -0.1032
45002W        W87915  20.504  19.686  21.320  0.3646 -0.0846 -0.1603
45003W        W87916   9.454  20.379   0.329 -0.0683  0.2994 -0.1814
45004W        W87917  27.674  22.254   2.475 -0.2240 -0.0707  0.2544
45005W        W87918  26.121  16.824   4.666  0.2799 -0.1515  0.0243
45006W        W87919   5.126  24.726  22.835 -0.4085 -0.0786  0.1990
45007W        W87920  25.121  11.381  28.224  0.2084  0.0948 -0.0699
45008W        W87921  32.948  13.678   3.467  0.2656  0.0301 -0.0603
45009W        W87922  25.705  12.125   3.003 -0.4406  0.2923 -0.0403
45010W        W87923  26.387  11.639   2.344 -0.0080  0.2643 -0.1654
45011W        W87924  24.808  22.019   5.845 -0.0176 -0.2355 -0.1978
45012W        W87925  28.729   0.397   7.567 -0.0709  0.0508 -0.1614
45013W        W87926   3.153  17.000   1.865 -0.2424 -0.3459 -0.1614
45014W        W87927  33.450  16.581   5.098 -0.0001  0.2268  0.0475
45015W        W87928   8.200  21.616   6.428  0.2574  0.0782  0.1991
45016W        W87929  22.255  20.158   3.091 -0.0737 -0.1847 -0.2136
45017W        W87930  30.835  19.332   2.602  0.2358 -0.0103 -0.1006
45018W        W87931  26.251  17.498   4.454  0.1431 -0.1588 -0.2380
45019W        W87932  29.873  14.578   6.650  0.0693 -0.1031  0.2187
45020W        W87933  33.321  13.421   7.266 -0.0575 -0.0281  0.1607
45021W        W87934  32.318  15.825  27.448 -0.1466 -0.0706  0.0631
45022W        W87935  26.758  23.609   9.012  0.1499 -0.4200  0.0259
45023W        W87936  20.655  21.650  28.446  0.1585 -0.0381 -0.1026
45024W        W87937  21.932  16.169   4.273 -0.0311  0.2088  0.0070
45025W        W87938   6.314  11.556   0.342 -0.0371  0.0482 -0.1876
45026W        W87939  34.039  15.089  29.466 -0.4511 -0.0240  0.3136
45027W        W87940   4.649  24.684   3.334 -0.0138  0.0215 -0.0961
45028W        W87941  26.236  20.713  27.083  0.0814 -0.0549 -0.0466
45029W        W87942   0.129  18.808  17.034  0.1420  0.1381 -0.0187
45030W        W87943  33.818  16.953   5.297 -0.3292 -0.0296 -0.0133
45031W        W87944   5.187  14.229  27.394 -0.2592 -0.4041 -0.0728
45032W        W87945  32.398   6.749  20.903 -0.0424  0.0588  0.0290
45033W        W87946  31.176  11.331  21.411 -0.1171 -0.1873  0.1518
45034W        W87947   8.335  20.104   8.470 -0.1070  0.1701 -0.2691
45035W        W87948   8.928  18.941   6.290 -0.2322 -0.0543  0.0825
45036W        W87949  21.345  25.314   0.247 -0.1293 -0.2093  0.1081
45037W        W87950  24.170  18.083  19.476  0.1338 -0.0444  0.0347
45038W        W87951  29.906  27.641   4.409  0.1555  0.3749  0.1342
45039W        W87952  33.511  11.169  29.342 -0.0407 -0.0422  0.0048
45040W        W87953  31.208  14.508  24.428  0.2801  0.1209 -0.2125
45041W        W87954  31.486  16.432   0.628  0.0340  0.3482 -0.1781
45042W        W87955  30.205  20.579   7.476 -0.1919  0.3100 -0.0157
45043W        W87956   5.415  12.063   0.339  0.0368 -0.0711  0.2140
45044W        W87957   3.078  20.617   8.693  0.2616 -0.1719 -0.0704
45045W        W87958  25.500  13.444  24.138  0.0919 -0.2939  0.2740
45046W        W87959   2.998   6.856  12.134 -0.2352  0.2084  0.0858
45047W        W87960   3.067   7.183   8.105  0.2016 -0.0241  0.1586
45048W        W87961  22.408  20.213   0.162  0.2486  0.0933 -0.0657
45049W        W87962  28.717  10.486   3.149 -0.2617  0.3536  0.1280
45050W        W87963   2.780   3.344   7.356  0.1514 -0.0519  0.0685
45051W        W87964   4.889   1.273   3.367 -0.0536  0.1014  0.5038
45052W        W87965  31.118  23.435   7.322 -0.1930  0.0907  0.1218
45053W        W87966  28.187  28.416  24.137  0.1432 -0.5848  0.5086
45054W        W87967   1.205  16.446  27.782  0.2328  0.1368 -0.1891
45055W        W87968   0.158  14.433   8.901  0.2061 -0.2541  0.1250
45056W        W87969  31.794  17.297   4.803  0.0577  0.0571 -0.2119
45057W        W87970   7.180  15.403  28.813  0.2313  0.1610 -0.0076
45058W        W87971  33.264  18.347   2.921  0.0494 -0.0026 -0.0657
45059W        W87972  31.610  19.304   3.438  0.1183  0.0356  0.0680
45060W        W87973  28.291  18.320   0.059 -0.1976 -0.2235 -0.1030
45061W        W87974   0.665  16.446   1.114  0.0511 -0.0224  0.0555
45062W        W87975   2.115  11.026   3.046 -0.1619  0.1262  0.1171
45063W        W87976   0.095   7.480  23.382  0.2186 -0.0163 -0.2556
45064W        W87977  32.063  14.432   2.026  0.0896  0.0439  0.2685
45065W        W87978  18.681  19.431  25.537  0.0360  0.1779  0.0723
45066W        W87979   5.756  15.256  27.727  0.0903 -0.1536 -0.0196
45067W        W87980   3.083  13.790   3.466  0.1433  0.0148  0.0196
45068W        W87981  19.250  15.038  21.200  0.0843 -0.0271 -0.0361
45069W        W87982  25.665  21.437   7.084  0.1277 -0.0140 -0.1346
45070W        W87983  28.094   4.726  26.527  0.1497  0.2211  0.1867
45071W        W87984  25.866  16.859  27.458  0.0788  0.2060 -0.3052
45072W        W87985  22.551  19.427  20.388  0.1237 -0.1542 -0.0306
45073W        W87986  12.231  21.683   3.791 -0.1153  0.2121  0.0805
45074W        W87987  26.970  12.354   3.105  0.1250 -0.2877  0.2161
45075W        W87988  23.286   5.497   7.152 -0.1518 -0.2302 -0.0690
45076W        W87989   7.583  16.906  28.921 -0.2126 -0.1324 -0.1691
45077W        W87990  26.528  15.459   1.235 -0.1438  0.0443  0.0106
45078W        W87991  24.806  10.480  21.746 -0.0258  0.0435  0.1050
45079W        W87992   0.533  17.774  29.553 -0.0300 -0.1361 -0.1268
45080W        W87993  29.635  15.427   1.901 -0.0277 -0.0101 -0.0010
45081W        W87994  28.585  21.714   8.065  0.0736  0.2491 -0.2921
45082W        W87995  34.175  27.646  20.241 -0.1901 -0.3405 -0.1360
45083W        W87996  23.924   4.473  25.882  0.0480 -0.1034 -0.3413
45084W        W87997  32.051  10.426   0.896 -0.0986  0.2739  0.1541
45085W        W87998   5.574  22.331   9.233 -0.3103 -0.0807  0.1822
45086W        W87999  25.541  13.469  28.640  0.0249 -0.1904  0.1753
45087W        W88000  29.790   6.218  26.180 -0.1440 -0.1599  0.0486
45088W        W88001  32.024   0.965   7.197 -0.2032  0.0329 -0.1229
45089W        W88002   6.099  18.085  14.854  0.1148 -0.1009 -0.0803
45090W        W88003  27.689  15.858   2.296  0.2416  0.1406  0.1271
45091W        W88004  30.648  23.394  25.355 -0.0817 -0.2500  0.0572
45092W        W88005   7.002  25.599  10.763 -0.1077 -0.3722 -0.0184
45093W        W88006  31.995  11.191   0.823 -0.1011 -0.0994  0.1265
45094W        W88007  30.725  17.609   1.849  0.0846  0.0167 -0.2633
45095W        W88008  29.850  11.826   2.761  0.0593  0.0754 -0.2587
45096W        W88009  31.362  13.825   7.289 -0.0620 -0.1418 -0.0323
45097W        W88010  13.234   4.426  28.140  0.3120 -0.0745 -0.0547
45098W        W88011  32.983  21.061   6.576  0.1715  0.0060 -0.0485
45099W        W88012  30.229   5.530  26.450  0.1563  0.1079 -0.1147
45100W        W88013  31.873  15.486   9.311 -0.0543 -0.0355  0.0758
45101W        W88014  30.442   7.522   0.570  0.1595  0.0623 -0.0745
45102W        W88015  27.253  10.363   7.880 -0.0226  0.0413  0.1667
45103W        W88016  32.652  13.696  24.673  0.1478 -0.0043  0.2244
45104W        W88017  27.987  11.422   6.911 -0.0279  0.2302  0.2002
45105W        W88018   1.617  24.000   9.431 -0.0363 -0.0189 -0.1347
45106W        W88019  15.298  19.419   7.427  0.1291  0.1298  0.1042
45107W        W88020  32.508  11.941   3.390 -0.1241 -0.1622  0.3465
45108W        W88021   7.623  24.230   7.349 -0.0565  0.3353  0.1032
45109W        W88022   2.384  16.915   7.243  0.0765 -0.0779 -0.2526
45110W        W88023  30.511  14.043   7.010 -0.1771  0.1706 -0.1436
45111W        W88024  24.498  16.982  20.048 -0.0949 -0.0005  0.1043
45112W        W88025  13.043  17.779  26.223 -0.2229 -0.0458  0.1680
45113W        W88026   5.075  14.318   5.588 -0.0128  0.0920 -0.3012
45114W        W88027   0.295  16.366   5.583 -0.0128 -0.0289  0.1014
45115W        W88028  33.366  22.429   9.062  0.1020  0.0330 -0.1430
45116W        W88029  21.948  21.283  28.605 -0.2338 -0.3364 -0.0314
45117W        W88030  34.290  12.827   6.785  0.0279 -0.3787  0.0036
45118W        W88031  26.966  21.342  26.661 -0.2034 -0.1536  0.1307
45119W        W88032  33.584  17.336  22.818  0.1153 -0.0372  0.2879
45120W        W88033  29.340  19.763   9.175  0.3401  0.0753 -0.0806
45121W        W88034  24.323  24.416  19.175 -0.1165  0.2987  0.0883
45122W        W88035  11.336  16.077   7.771  0.2715 -0.0273 -0.1574
45123W        W88036  28.446  17.022   2.184  0.2271 -0.0682 -0.1479
45124W        W88037   6.988  12.650   8.631 -0.0962 -0.1077  0.0725
45125W        W88038  34.219  13.251   7.074  0.0840 -0.1210 -0.3899
45126W        W88039  30.639  12.648   1.289  0.1529  0.0490 -0.0997
45127W        W88040   1.075  17.431  28.293  0.0932 -0.1214  0.1194
45128W        W88041   3.310  26.085  20.614  0.2701  0.1342  0.3231
45129W        W88042  18.205  12.187   6.738  0.2368 -0.0837 -0.1385
45130W        W88043  29.743  20.165  29.367  0.2675  0.0707  0.3668
45131W        W88044   2.722   8.893  27.364 -0.0129  0.0198 -0.0526
45132W        W88045   0.540  21.855   8.680 -0.1731  0.0507  0.1925
45133W        W88046  25.550  18.337   3.022 -0.2246  0.3046  0.2302
45134W        W88047  30.201  20.859  28.207 -0.3686 -0.0146 -0.0382
45135W        W88048   4.132  18.255   3.900 -0.2208  0.0592 -0.3602
45136W        W88049  27.092  14.771  28.658  0.0640 -0.0599  0.1494
45137W        W88050  22.388  11.302   6.756  0.1570 -0.0107  0.0410
45138W        W88051  17.766   2.096   5.421  0.0076 -0.0060 -0.2377
45139W        W88052  30.678  19.687  28.715  0.0280 -0.1223 -0.2391
45140W        W88053   0.339  11.386   4.798 -0.2593 -0.0602 -0.0299
45141W        W88054  23.477  15.356  29.491  0.2211  0.2099 -0.1189
45142W        W88055  29.868  13.433   5.386 -0.0942  0.0022  0.2808
45143W        W88056   1.598  25.631   2.095 -0.0838  0.2123  0.1095
45144W        W88057   0.783  15.285   0.124  0.1550 -0.0508  0.1161
45145W        W88058  27.345  19.414  23.856  0.3382 -0.1400  0.1646
45146W        W88059  19.212  18.581   4.940  0.0818 -0.0692  0.1114
45147W        W88060   0.735  23.336   5.310  0.1012 -0.0192  0.3237
45148W        W88061  24.101  23.008   4.174 -0.2726  0.0423  0.1223
45149W        W88062  32.692  20.143   3.652  0.0106  0.1414 -0.1318
45150W        W88063  28.102   7.246   7.393  0.4800 -0.0336  0.0024
45151W        W88064  20.784   4.404   9.868 -0.0878  0.1387  0.3058
45152W        W88065   4.707  14.084  29.215  0.0250  0.1023  0.0995
45153W        W88066   3.962  10.661  27.895  0.0672  0.0821 -0.0837
45154W        W88067  29.839  23.811   8.609 -0.4464 -0.2655  0.1057
45155W        W88068  10.049  12.328   9.431 -0.1670  0.3145 -0.0751
45156W        W88069   1.351  14.828   1.752 -0.0124  0.0259  0.3236
45157W        W88070  33.919  15.880  29.544 -0.1963  0.1558 -0.1732
45158W        W88071  30.054  11.836   8.533 -0.2796  0.1242  0.2166
45159W        W88072  28.051  24.276   1.189 -0.1162  0.0557  0.0595
45160W        W88073   2.641  11.165   4.584  0.1572  0.0658  0.2641
45161W        W88074  31.676  16.619   8.449 -0.0170  0.1005 -0.1425
45162W        W88075  23.865   8.913   0.852  0.1917 -0.1102  0.1290
45163W        W88076  34.072  17.580  11.297  0.0431 -0.0078  0.6235
45164W        W88077  33.743  12.775   5.377  0.0684 -0.0155  0.0946
45165W        W88078   1.705  26.270   9.142  0.2447 -0.2919  0.1889
45166W        W88079   0.151   6.833  12.355 -0.1862  0.2445  0.3017
45167W        W88080  22.098   8.827   5.141  0.2007  0.0381  0.0852
45168W        W88081  26.407  18.844  17.746 -0.2382  0.2544 -0.2570
45169W        W88082   5.063  16.402   7.451  0.0513 -0.0673  0.0966
45170W        W88083  25.753  10.246   6.635  0.3034 -0.2710  0.0472
45171W        W88084  21.959  21.261  25.685 -0.0649 -0.0165 -0.0692
45172W        W88085  20.256  15.997   2.637 -0.3013 -0.1431 -0.2019
45173W        W88086  22.859  12.085  29.127 -0.0372  0.0869  0.0694
45174W        W88087  24.475  11.585   4.085 -0.3300 -0.1922 -0.4349
45175W        W88088  28.591  17.439   3.496 -0.0056 -0.2497 -0.1463
45176W        W88089  32.069  13.346   7.001 -0.1533 -0.1006  0.2185
45177W        W88090   5.694  16.430   4.595 -0.3806  0.3473  0.0064
45178W        W88091  18.029  18.927  28.297 -0.0354 -0.0202  0.0330
45179W        W88092   2.929   4.805  12.606  0.2139  0.2392 -0.0120
45180W        W88093  29.331  13.241  28.697  0.0501  0.2525 -0.1124
45181W        W88094  29.124  23.915  29.333  0.0475 -0.1298 -0.0877
45182W        W88095  22.764  12.318   8.410 -0.1021 -0.0023 -0.0614
45183W        W88096  29.194  17.691   5.733  0.1705  0.2305  0.1177
45184W        W88097  27.960  13.741   2.660 -0.0404 -0.4563 -0.0012
45185W        W88098   8.157  28.686   9.202 -0.1595  0.2585  0.2116
45186W        W88099   5.724   8.441   7.708  0.1136 -0.0124  0.1353
45187W        W88100  29.438  18.768   8.159 -0.0530 -0.1100  0.2034
45188W        W88101  22.461  12.952   5.551  0.0787  0.2092  0.0789
45189W        W88102  23.465  22.065   6.578  0.0655 -0.1163 -0.0564
45190W        W88103  29.967  17.070   5.034 -0.1233 -0.3192  0.1409
45191W        W88104   5.177  17.007   2.401 -0.4303 -0.1090 -0.0657
45192W        W88105   5.151  20.806   3.181  0.1406 -0.0217  0.0184
45193W        W88106  17.852  24.642   1.544 -0.0305 -0.0818  0.0516
45194W        W88107   4.431  26.109   6.993  0.2500  0.1886  0.0911
45195W        W88108   4.280  16.173   2.123 -0.1988 -0.2545 -0.1307
45196W        W88109  28.634  17.736   2.246  0.0891 -0.0269  0.0545
45197W        W88110  26.277  23.890  20.092  0.0204  0.1176  0.1407
45198W        W88111  27.193   9.745   4.910 -0.0271 -0.1533  0.0284
45199W        W88112   1.711  14.310   9.061  0.0113  0.0849  0.2048
45200W        W88113  33.381  16.207  27.116  0.1256  0.2124 -0.1210
45201W        W88114   1.616  23.020   1.739 -0.4238 -0.3991  0.1779
45202W        W88115  21.627  14.389   0.016 -0.2502  0.0147 -0.0497
45203W        W88116  26.996  17.918   7.023  0.0966  0.2722 -0.1511
45204W        W88117  27.811  12.120   0.823  0.1657 -0.0592 -0.3423
45205W        W88118   1.055  24.300  29.191  0.0700  0.0443 -0.4066
45206W        W88119   4.941   8.074   4.999  0.2179  0.0994  0.2742
45207W        W88120   2.477  12.357  28.768  0.0622  0.0251  0.0824
45208W        W88121  30.662  16.340  26.375 -0.2101  0.1447 -0.3046
45209W        W88122   2.772  16.391   1.994 -0.3596 -0.3557  0.1336
45210W        W88123  31.829  13.593   5.676 -0.3267  0.2083  0.1602
45211W        W88124   6.989  11.790   4.992  0.0455  0.1796  0.1184
45212W        W88125   9.919  16.294  26.599  0.2024 -0.2572 -0.1114
45213W        W88126  34.430  16.544   5.899 -0.0451  0.0051  0.0490
45214W        W88127   5.449  15.566   7.509 -0.0282 -0.2300  0.4372
45215W        W88128  28.041  19.126   2.264 -0.1579 -0.0752 -0.2887
45216W        W88129  21.091   6.821   8.546  0.2026  0.1829  0.1289
45217W        W88130  25.487  15.296   1.486 -0.0662 -0.2627 -0.2500
45218W        W88131  30.259  22.253  27.319  0.1698  0.0415  0.0090
45219W        W88132  19.871   9.653   2.758 -0.2267 -0.0041  0.1644
45220W        W88133  22.941  18.138   6.641  0.0699  0.1892 -0.2235
45221W        W88134  16.857   5.137   5.008  0.1254 -0.0097  0.1028
45222W        W88135  32.481   3.903   6.437  0.3074 -0.3394  0.1615
45223W        W88136  30.523   8.907   5.939 -0.0316 -0.3168 -0.2204
45224W        W88137  22.913  13.908   6.156 -0.0618 -0.0330 -0.0376
45225W        W88138  24.916  15.669   7.681  0.2561  0.3749 -0.1353
45226W        W88139  26.064  14.492   9.088 -0.1874 -0.0792  0.1668
45227W        W88140  26.089  13.171   5.840  0.2550 -0.0553  0.2545
45228W        W88141   1.402  23.959   7.182  0.1574 -0.3171 -0.2479
45229W        W88142   0.630  22.849   8.296 -0.1124 -0.3714 -0.1253
45230W        W88143  31.563  27.702   8.918  0.1784  0.1878  0.2544
45231W        W88144  16.337  15.338  25.020  0.1367  0.0998  0.0929
45232W        W88145   1.339  23.930   8.590  0.0592 -0.1555 -0.1434
45233W        W88146  30.569  10.881   3.117  0.1045  0.1512  0.0287
45234W        W88147  10.555   8.164  28.416  0.2320  0.1000  0.1087
45235W        W88148  33.476  17.838   5.517  0.3067  0.0922  0.2157
45236W        W88149  25.740  20.939  23.408 -0.0648  0.1940 -0.1209
45237W        W88150  32.262  16.615  10.128  0.0755  0.0719 -0.0094
45238W        W88151   7.937  21.459   3.291 -0.2065  0.0025  0.0649
45239W        W88152   0.909  13.908   8.846  0.0199  0.1491  0.0280
45240W        W88153  13.245  29.906   2.817 -0.1386  0.0481  0.2057
45241W        W88154  19.226  17.206   7.059 -0.0988 -0.0879  0.3912
45242W        W88155  29.449  23.758   4.307 -0.0111 -0.1969  0.0661
45243W        W88156  27.794  18.027  28.455  0.4291 -0.0198 -0.0755
45244W        W88157  22.563  34.213   7.318 -0.1418 -0.0531 -0.0328
45245W        W88158  31.039  12.596   0.374  0.3012  0.2250  0.1871
45246W        W88159  21.640  15.180   7.601  0.3366 -0.1777  0.0011
45247W        W88160  27.172  22.667   6.244  0.0434  0.0870  0.1261
45248W        W88161  30.497  26.920   9.110  0.0709  0.1609 -0.2174
45249W        W88162   8.419  16.055   0.151 -0.2025 -0.0953  0.3276
45250W        W88163  29.671  18.047   1.142 -0.1490 -0.0525  0.0955
45251W        W88164   5.907  14.004  26.145 -0.1810 -0.0210 -0.1334
45252W        W88165  24.821  13.258   7.770  0.1574  0.1592 -0.0779
45253W        W88166  23.751   6.371   4.354 -0.4912 -0.0961  0.0672
45254W        W88167  29.349  12.047   9.994 -0.2146 -0.0364  0.0680
45255W        W88168   2.721   7.271  24.891 -0.1993 -0.0132 -0.2625
45256W        W88169   1.937  19.311   1.619 -0.3449  0.1996 -0.0122
45257W        W88170  25.346   7.600   8.026  0.2483 -0.0573 -0.1802
45258W        W88171  30.389  21.949   8.361  0.0320  0.0967 -0.1347
45259W        W88172  27.175  21.200   5.760  0.0203 -0.0236  0.0951
45260W        W88173  21.185  17.269   5.703  0.0840 -0.4416  0.4637
45261W        W88174   1.174   5.731   8.349  0.0284  0.2501  0.1759
45262W        W88175  29.826  23.067   7.319  0.3508 -0.0384 -0.3327
45263W        W88176  21.643   4.815   4.540 -0.1646  0.2116 -0.0836
45264W        W88177  28.154  24.785   7.377 -0.1418 -0.0513 -0.2889
45265W        W88178  23.948  22.740   0.468  0.0271 -0.2099  0.0490
45266W        W88179   3.972  24.388   9.616  0.0091  0.1019 -0.0624
45267W        W88180  26.713  19.070   0.630  0.0696  0.1914  0.1267
45268W        W88181  27.147  19.509   4.581  0.0916 -0.2320 -0.2099
45269W        W88182   1.692  14.470   6.897  0.2135  0.0997 -0.3063
45270W        W88183  29.324  12.756   5.019  0.0203  0.2214 -0.2478
45271W        W88184   1.393  18.361   2.306  0.3133  0.0587  0.0820
45272W        W88185  26.955  16.842   0.518  0.0714  0.0656 -0.1411
45273W        W88186   7.281   7.599  25.161  0.1953 -0.0205 -0.0743
45274W        W88187  33.423  10.713   6.014  0.2625 -0.0605 -0.3147
45275W        W88188   1.550  26.701   9.369  0.4668  0.1175  0.0306
45276W        W88189  33.896  20.799   1.683 -0.0927  0.0181  0.1089
45277W        W88190  25.722  21.686  25.445 -0.3704  0.0821  0.0373
45278W        W88191  30.666  11.318   5.358  0.1860 -0.1616 -0.0058
45279W        W88192  26.956  18.279  28.190 -0.2307 -0.1467 -0.1128
45280W        W88193  32.736  17.745  23.682  0.0777 -0.1845  0.1533
45281W        W88194  23.999  19.697   6.868  0.0422  0.5564  0.0330
45282W        W88195  14.319  13.706   5.041 -0.2266 -0.2349 -0.4296
45283W        W88196  28.229  21.467  26.380 -0.0895  0.0950  0.0299
45284W        W88197   7.263  11.080   4.335  0.1622  0.1873 -0.0080
45285W        W88198  28.894  13.014  28.509 -0.0922  0.1258 -0.0286
45286W        W88199   0.032  13.153  28.823 -0.1955 -0.2301 -0.0952
45287W        W88200  26.356  22.375   5.465 -0.1012 -0.1029 -0.5873
45288W        W88201   0.399   1.507  29.294  0.0539  0.0939 -0.0942
45289W        W88202  26.613   9.485   2.029  0.4155 -0.0523  0.0088
45290W        W88203  27.404  23.739   3.519 -0.1136 -0.0114 -0.0313
45291W        W88204  26.000  11.133  29.777 -0.3692  0.0829  0.1984
45292W        W88205  21.553  16.841   2.834  0.1717  0.2630 -0.2829
45293W        W88206  32.655  18.466   2.676 -0.3030  0.1108 -0.0587
45294W        W88207  22.394  14.475   6.168 -0.1625 -0.1379  0.3059
45295W        W88208  27.653  17.754   7.948  0.3623  0.0212 -0.0281
45296W        W88209   4.300  18.185   5.673 -0.2186 -0.4958  0.2106
45297W        W88210  30.981  17.722   9.496 -0.0436  0.1023 -0.2774
45298W        W88211  31.609  17.992   5.816 -0.2234  0.0449 -0.1635
45299W        W88212  24.791  18.961  26.194 -0.1894  0.0873  0.2919
45300W        W88213  24.055  19.669  23.302 -0.2562  0.2131  0.0823
45301W        W88214  32.086  20.762   9.548 -0.1072 -0.0534 -0.4342
45302W        W88215  32.174  17.983   3.910 -0.0721  0.1862 -0.0244
45303W        W88216  21.839   7.442   1.633 -0.1782 -0.1110  0.3191
45304W        W88217  23.173   8.956   8.721 -0.0377 -0.1276  0.1306
45305W        W88218  33.442  16.510  28.745 -0.1522  0.0385  0.1742
45306W        W88219   0.869  17.788   2.819 -0.0705 -0.0446 -0.0972
45307W        W88220   5.706  25.934   7.689 -0.3332  0.1375  0.2772
45308W        W88221  27.104   5.749   5.967 -0.1447  0.0574 -0.0423
45309W        W88222   4.149  16.134  21.154 -0.0553  0.1677  0.0430
45310W        W88223   3.567  16.043   1.691  0.0719  0.1594  0.2242
45311W        W88224  28.134  20.981   7.602  0.0350 -0.3810 -0.1123
45312W        W88225  22.356  19.525   7.079 -0.2142 -0.1627  0.0706
45313W        W88226  30.644  20.186   9.842  0.0758  0.1338  0.0624
45314W        W88227  30.433   6.962   6.538  0.1122  0.0516  0.0672
45315W        W88228  18.718   9.965   7.090 -0.0262  0.2877 -0.2149
45316W        W88229  23.935  17.932  22.051  0.1631  0.1223  0.1794
45317W        W88230  33.761  15.293   5.096  0.0514 -0.1776 -0.0581
45318W        W88231  21.882  18.380   6.488  0.2226 -0.2911  0.0154
45319W        W88232   2.829  16.564   1.530  0.2022 -0.1188 -0.0986
45320W        W88233   4.353  30.580   3.859  0.2318  0.0853 -0.1765
45321W        W88234   7.388  13.907   6.173 -0.2671  0.0445 -0.1593
45322W        W88235  31.958   8.348   4.242 -0.1112  0.3848 -0.0649
45323W        W88236  25.793  10.269   7.880 -0.4261  0.0352 -0.3541
45324W        W88237  26.160  16.510  28.234  0.1009  0.0777 -0.2286
45325W        W88238   4.751  16.523   0.959 -0.1992  0.1227 -0.0016
45326W        W88239  31.779   7.803   4.159  0.1480 -0.1277  0.1530
45327W        W88240  31.459  10.598   7.610 -0.0633  0.0051 -0.0506
45328W        W88241  27.867  16.767   5.903 -0.1963  0.0993 -0.0942
45329W        W88242   4.412  22.415   9.758  0.2691 -0.0511 -0.1231
45330W        W88243   7.501  22.257   0.223  0.1769 -0.1589  0.0016
45331W        W88244  17.239  19.354   0.137  0.1747  0.0434  0.1246
45332W        W88245   0.958  15.876   8.763  0.2463  0.0623  0.1747
45333W        W88246  33.995  27.440   6.806 -0.0741  0.3163  0.2608
45334W        W88247  33.505  20.694   5.050  0.0322 -0.0516 -0.0691
45335W        W88248  19.866  16.862   5.636  0.0644 -0.0814 -0.2648
45336W        W88249  31.297  18.866  22.729  0.1115 -0.2461 -0.2628
45337W        W88250  13.753  13.424   3.978 -0.0723 -0.4961 -0.1619
45338W        W88251  23.444  14.385   4.573 -0.0559  0.2179 -0.1970
45339W        W88252   4.573  17.098   7.493 -0.2013  0.0467  0.0028
45340W        W88253  34.168  17.965   6.533  0.3600 -0.1025  0.0447
45341W        W88254  26.371   8.457   0.246 -0.1812  0.1530  0.3673
45342W        W88255  11.087  22.188   0.744 -0.1733  0.0168 -0.0717
45343W        W88256  26.864   0.534   2.425 -0.1811  0.2005  0.0594
45344W        W88257   7.632  24.642   5.576 -0.1723  0.4299  0.1907
45345W        W88258   0.906  23.200   6.567  0.0709  0.0589 -0.2917
45346W        W88259  29.260  21.521  29.297 -0.0865 -0.1308  0.0372
45347W        W88260   4.634  15.962   0.707 -0.0186  0.0710  0.0970
45348W        W88261  26.254  18.490   5.865 -0.3797  0.0357 -0.1017
45349W        W88262  23.438  20.434   5.946 -0.1156 -0.2230  0.2381
45350W        W88263   1.929   4.986   4.896 -0.1858 -0.2712  0.0147
45351W        W88264   5.169   5.257   9.410 -0.1747 -0.0552 -0.2091
45352W        W88265  21.455  17.039  21.766 -0.0329 -0.2560 -0.3069
45353W        W88266   0.564  15.372  10.062  0.0870  0.0610 -0.0486
45354W        W88267  27.901  26.068   2.532 -0.2443  0.0719  0.5369
45355W        W88268  16.132  15.291   7.421 -0.0876 -0.0435 -0.2362
45356W        W88269   7.951  18.438  28.975 -0.2454 -0.0352  0.1804
45357W        W88270   5.067   3.972  12.501  0.1592 -0.0137 -0.0256
45358W        W88271  23.994  19.663   7.492  0.3698 -0.0184 -0.0495
45359W        W88272  18.107  11.783   7.558  0.1296  0.0887 -0.1239
45360W        W88273  30.304  20.530   5.508  0.0606 -0.0570 -0.0392
45361W        W88274  28.098   7.493   7.851  0.0774  0.0717  0.2118
45362W        W88275  30.018  18.295   2.415  0.1314  0.2202 -0.0892
45363W        W88276   0.265  20.816   6.722  0.0830  0.0581 -0.1538
45364W        W88277  33.981   4.845  28.200 -0.2828 -0.1476 -0.0037
45365W        W88278   0.525  15.755  28.173 -0.2228 -0.2008  0.0170
45366W        W88279  13.600  24.127   3.605 -0.0411 -0.1694 -0.2007
45367W        W88280   1.404  15.065  10.173  0.2255  0.0059  0.0227
45368W        W88281  33.136  16.673   7.412  0.1376 -0.2597 -0.0056
45369W        W88282  20.191  25.491  27.942  0.0932 -0.0709  0.1794
45370W        W88283   6.852  23.207   4.032 -0.0567  0.0471  0.0735
45371W        W88284  24.601  17.536   2.994  0.2285  0.0365  0.3287
45372W        W88285  30.830   6.952   6.960  0.0878 -0.1664 -0.1831
45373W        W88286  24.375  18.352   0.004  0.0361 -0.2737  0.1188
45374W        W88287  28.879  26.694   1.324 -0.0063  0.0176 -0.1977
45375W        W88288   0.574  21.529   9.459 -0.0320  0.1480  0.2246
45376W        W88289  20.978  15.999   4.314  0.2545 -0.1976  0.1450
45377W        W88290  21.684  27.353  28.971  0.2143 -0.0423  0.0643
45378W        W88291   5.755   9.830   4.232  0.1003  0.1241  0.0505
45379W        W88292   9.300  14.754  28.486 -0.0459 -0.1583 -0.1646
45380W        W88293  24.129  13.350   1.089 -0.1103 -0.0132 -0.0376
45381W        W88294  29.713  21.543   7.126  0.0152  0.1652 -0.0644
45382W        W88295  25.841  17.612   9.553 -0.2851  0.0803  0.2859
45383W        W88296  23.913  11.306   9.664  0.2336 -0.0345  0.2033
45384W        W88297   5.983  18.536   0.465  0.0157  0.0657 -0.1661
45385W        W88298  33.643  12.980   7.988  0.1173  0.8586 -0.0420
45386W        W88299   6.257  19.508   9.652 -0.3660 -0.2295  0.0597
45387W        W88300  20.351  20.230  23.262 -0.2594  0.4244 -0.0905
45388W        W88301  24.212  17.985  29.020  0.3199  0.0713  0.1195
45389W        W88302  12.805  21.904   2.445 -0.2461  0.0453 -0.3740
45390W        W88303  21.080  16.931  28.193 -0.0588  0.2975 -0.2540
45391W        W88304   3.506  13.947   7.348 -0.3519  0.2222  0.0079
45392W        W88305  26.108  17.196   7.902  0.0148 -0.2719 -0.3084
45393W        W88306   3.059  11.531   8.724  0.1293 -0.3039 -0.1066
45394W        W88307  25.010  10.537   5.450 -0.0702  0.0047  0.1630
45395W        W88308  25.225  17.890   8.239  0.0120 -0.1523  0.2565
45396W        W88309  32.862  24.943   1.196 -0.0256  0.0344  0.0666
45397W        W88310  26.326  19.218  27.809  0.1643  0.2192  0.0938
45398W        W88311   0.917   9.390  26.234  0.0915 -0.4935 -0.0376
45399W        W88312   4.274  20.017   1.083 -0.1814 -0.2099  0.1393
45400W        W88313   3.459  21.190   5.024 -0.2760 -0.0266 -0.3443
45401W        W88314  32.610  23.137   9.097 -0.2643  0.1937 -0.0482
45402W        W88315  28.693  12.805  27.789  0.2731 -0.0155 -0.1004
45403W        W88316  23.082  15.596   6.825  0.1236 -0.0252 -0.0454
45404W        W88317  33.734  16.718   3.943 -0.1421  0.0084  0.1714
45405W        W88318   3.220  22.552   6.437 -0.1732 -0.3786 -0.0121
45406W        W88319   4.534  18.270   4.177 -0.0248 -0.0945  0.1588
45407W        W88320  30.194   7.001   1.536  0.1415  0.2128  0.0366
45408W        W88321  33.927  15.661   9.632 -0.2548 -0.3518  0.0604
45409W        W88322  31.364  15.446  10.274 -0.3082 -0.1015 -0.1723
45410W        W88323  26.338  16.120   9.195 -0.0391 -0.1070 -0.1538
45411W        W88324   3.664  18.994   0.242  0.2465 -0.0706  0.0858
45412W        W88325  24.661  10.245   2.072 -0.0026 -0.0991  0.2637
45413W        W88326  30.676  17.055   3.303  0.3365  0.0290 -0.1912
45414W        W88327  32.348  19.133   4.671  0.3466 -0.0444 -0.0956
45415W        W88328   6.072  25.269   3.114  0.0532 -0.0382  0.1630
45416W        W88329   0.923  12.207  10.198  0.0808  0.0993  0.3170
45417W        W88330   8.124  18.511   0.187 -0.0129 -0.2213 -0.1854
45418W        W88331  31.179   9.031   8.830  0.2283  0.2023 -0.0464
45419W        W88332   2.781  18.062   8.892 -0.0390  0.3136  0.0986
45420W        W88333   7.992  21.925   9.928 -0.0105  0.5519  0.2167
45421W        W88334   8.367  17.227  29.581  0.0334 -0.1712  0.1808
45422W        W88335  23.736   0.537   6.088 -0.0663 -0.0142 -0.0672
45423W        W88336  25.573  12.472   5.355  0.1684  0.0708  0.0120
45424W        W88337  30.948  12.346  26.411  0.1556  0.0071  0.1033
45425W        W88338  32.816  20.597  28.881  0.2289  0.3362 -0.0885
45426W        W88339   8.588  18.779   3.700 -0.0543  0.2605 -0.2057
45427W        W88340  16.255  14.348   8.345  0.1305 -0.0686  0.1090
45428W        W88341  27.150  26.789   1.529 -0.1580 -0.2877 -0.1453
45429W        W88342  19.568  10.682   4.851  0.1004  0.1695 -0.2143
45430W        W88343   0.312  13.165   6.803 -0.1110 -0.1055  0.1253
45431W        W88344  31.295  22.110  29.152 -0.4835 -0.1793  0.1349
45432W        W88345  16.821  17.717   0.642  0.1566 -0.0227  0.1129
45433W        W88346  29.502  20.131   6.637  0.1297  0.0335  0.2285
45434W        W88347   2.159  10.021   3.262 -0.0765 -0.0296 -0.1056
45435W        W88348  29.759  17.807   5.914  0.1530 -0.0058 -0.1952
45436W        W88349   4.101  16.235   7.672  0.0544  0.3235 -0.0463
45437W        W88350  28.759  15.219   5.937  0.4064  0.0068  0.2345
45438W        W88351  32.378   8.800   9.115  0.0497  0.0267  0.0711
45439W        W88352  29.048  18.236   5.531  0.2003 -0.0848 -0.1549
45440W        W88353   6.916  32.384   5.772  0.1791 -0.0914  0.2196
45441W        W88354  29.350  17.202  25.988 -0.2752  0.1672 -0.0263
45442W        W88355  29.482  18.809   6.079  0.1207 -0.0166  0.0330
45443W        W88356  27.196  16.356   6.369 -0.0974  0.1417 -0.1704
45444W        W88357  24.876  12.316   7.825  0.0363  0.3466 -0.2404
45445W        W88358   7.036  20.456   2.413  0.0244  0.2532  0.1262
45446W        W88359   0.745   2.380   7.536 -0.2223 -0.0450  0.2399
45447W        W88360  29.482  14.985   6.653  0.0366  0.2344  0.1531
45448W        W88361   0.094  23.813   4.719 -0.0291 -0.2567  0.0586
45449W        W88362   1.353  18.225   2.844  0.1590 -0.2615  0.0879
45450W        W88363   4.297  22.171   8.913  0.0551  0.0154  0.1177
45451W        W88364   0.105  18.306  10.085  0.1949  0.1651 -0.2663
45452W        W88365  30.688  16.023  29.646 -0.3908  0.0979 -0.0340
45453W        W88366  20.866  16.266  25.669  0.2762 -0.0032  0.2186
45454W        W88367  34.043  13.363   9.834  0.0754 -0.4054  0.2096
45455W        W88368   6.206   7.608   8.308 -0.2754  0.1235  0.0617
45456W        W88369  32.941  22.753  28.015 -0.1962  0.0933 -0.1738
45457W        W88370  21.559  22.114   8.110  0.4234 -0.0915  0.0291
45458W        W88371  10.767  15.647  28.383 -0.0177 -0.1617  0.1554
45459W        W88372  20.957  18.754   2.174 -0.2566  0.1276 -0.0160
45460W        W88373  28.579  22.551   1.156 -0.3127  0.1108  0.3669
45461W        W88374  30.594  11.475   7.745  0.1041 -0.3359  0.0433
45462W        W88375  34.199  16.645   1.273 -0.0712  0.2895 -0.1297
45463W        W88376  29.622  10.191   5.262 -0.0190 -0.3807  0.0405
45464W        W88377   1.235  16.545   5.853 -0.1143 -0.3313 -0.0503
45465W        W88378  14.803  16.030   6.177  0.1077 -0.1888  0.1178
45466W        W88379  23.572  14.252   6.019 -0.2457  0.1377 -0.2312
45467W        W88380  28.110  14.890   9.191  0.0572 -0.2437  0.4939
45468W        W88381   4.396  11.772   4.715  0.1143  0.0417 -0.0424
45469W        W88382   0.587  13.138   5.251  0.0872 -0.3006 -0.1485
45470W        W88383  33.307  17.749  26.362 -0.1401  0.0566 -0.3096
45471W        W88384   0.571  14.639  27.637 -0.0159  0.2690 -0.0221
45472W        W88385   6.758  25.279   9.248 -0.2222  0.4331 -0.0785
45473W        W88386  34.334  15.422   6.191  0.2283  0.1369 -0.0218
45474W        W88387  28.035  16.772   3.114  0.3522 -0.0321  0.0386
45475W        W88388  32.090  14.744  24.554 -0.0121 -0.2331 -0.0881
45476W        W88389   0.870  16.637   8.268  0.0999  0.1081 -0.0828
45477W        W88390  29.141  11.641   7.677 -0.1116 -0.0176 -0.1559
45478W        W88391  11.259  15.529   2.278  0.1646 -0.2254  0.0720
45479W        W88392  27.461  18.502   7.726 -0.0496 -0.0237 -0.1099
45480W        W88393  23.779   9.268   8.375  0.2896 -0.0809  0.2256
45481W        W88394   4.306  18.162   7.541  0.1030  0.0630  0.0957
45482W        W88395   3.171  15.871   6.482 -0.2285 -0.1766 -0.5406
45483W        W88396  28.820  16.557   7.708 -0.2667  0.1167  0.0233
45484W        W88397  25.145  19.104   0.019 -0.1888 -0.1683 -0.0466
45485W        W88398  29.729  14.837   9.959 -0.0919  0.0022 -0.0982
45486W        W88399   2.803   9.201  10.925  0.2258 -0.4845  0.1920
45487W        W88400  22.349  19.126   4.849  0.1656  0.2040  0.2142
45488W        W88401  29.299  28.068  28.944 -0.1163  0.1804  0.0915
45489W        W88402  24.232  13.471   2.394 -0.0431  0.1408 -0.1387
45490W        W88403  33.420   8.347  10.980 -0.0931  0.0230 -0.0970
45491W        W88404   7.811  12.089   5.607  0.3007  0.0152 -0.1350
45492W        W88405  19.025  20.507  24.782  0.3569  0.2687  0.0213
45493W        W88406  18.614  17.512   2.844 -0.1188 -0.1998 -0.2224
45494W        W88407  30.981  20.761   3.749 -0.1023 -0.1419 -0.0094
45495W        W88408  32.854  11.759  28.609 -0.1706 -0.3088  0.3601
45496W        W88409  28.338  18.508   0.885 -0.1066  0.0484  0.0401
45497W        W88410  33.063  10.356   0.862 -0.1874  0.1774 -0.4511
45498W        W88411   3.606  20.129   5.382  0.0425 -0.3011 -0.0760
45499W        W88412  15.537  19.550   6.616 -0.2479  0.1782  0.2543
45500W        W88413  26.632  25.030   4.512 -0.1898  0.0824 -0.0119
45501W        W88414  33.428  10.801  26.753  0.0318  0.1050  0.0698
45502W        W88415  28.927  18.977   0.467  0.0780 -0.0791 -0.0379
45503W        W88416  25.060  15.639  25.794  0.4620  0.0127 -0.0457
45504W        W88417  29.938  14.483   2.161  0.0659 -0.4464  0.0780
45505W        W88418  20.268  27.812   2.783  0.0167  0.1465 -0.0755
45506W        W88419  31.866  21.991  10.209  0.0126 -0.1176  0.0366
45507W        W88420  26.471  17.573   1.269 -0.2386  0.2788  0.5095
45508W        W88421  27.714  21.538  28.290  0.0829 -0.0213  0.1929
45509W        W88422  18.942  12.027   6.227 -0.3421 -0.2206 -0.1271
45510W        W88423  29.748  19.557   1.016 -0.0771 -0.0764 -0.3609
45511W        W88424  23.840   1.509   3.164  0.2660  0.1754  0.1470
45512W        W88425  30.469  21.063   5.590  0.1479 -0.0087 -0.3069
45513W        W88426  23.011  30.906   4.365  0.2355  0.1279  0.1826
45514W        W88427  25.390  21.987   5.732  0.2047 -0.2073 -0.0412
45515W        W88428  20.829  11.828   7.013  0.1818  0.0158  0.1763
45516W        W88429  26.311  21.977   2.357  0.4602  0.1111 -0.1644
45517W        W88430   0.436  14.434   0.804  0.3424 -0.0459  0.1330
45518W        W88431  31.333  10.191   7.974  0.2189 -0.4226  0.0289
45519W        W88432  18.759  14.854   1.122 -0.0660  0.1321  0.0065
45520W        W88433  26.492  13.960  26.386  0.4007  0.0814  0.1152
45521W        W88434  11.328   4.264  22.068 -0.4227 -0.1683 -0.0242
45522W        W88435  30.484  25.685   8.580 -0.2707 -0.0163  0.2669
45523W        W88436   1.525  14.348   2.628 -0.0206 -0.0758  0.2565
45524W        W88437  27.563  12.541   1.755  0.0339  0.2739  0.0264
45525W        W88438  23.971  18.672   2.116  0.1910  0.0120 -0.0810
45526W        W88439   4.741  11.219   0.077 -0.0176  0.3278  0.0409
45527W        W88440  26.255  19.517   4.884 -0.5105  0.1126  0.0793
45528W        W88441   8.355  14.471  28.145  0.0126  0.3000 -0.1378
45529W        W88442  29.974  11.124  29.392  0.0617 -0.2368  0.0489
45530W        W88443  31.842  16.674   5.954  0.1711 -0.2180 -0.1551
45531W        W88444  32.413  16.980  28.044 -0.0381  0.1770 -0.1443
45532W        W88445  31.442   7.309  10.170  0.3606 -0.0745 -0.2655
45533W        W88446  23.819  11.711   4.061  0.0007  0.0660 -0.2134
45534W        W88447  28.965  18.888   7.859  0.0781  0.2530 -0.0877
45535W        W88448  34.168   7.525  22.647 -0.0357 -0.1945  0.0857
45536W        W88449   6.102  17.246   5.186 -0.0652 -0.0406 -0.4600
45537W        W88450   2.182  17.745   3.521 -0.3768  0.1544  0.4955
45538W        W88451  26.350  12.984  29.720  0.0949 -0.0684 -0.1960
45539W        W88452   8.804  22.654   5.871 -0.2892  0.3525 -0.1146
45540W        W88453  24.660  21.014   0.190 -0.2612  0.1908 -0.0588
45541W        W88454   1.815  19.322   3.145  0.0483  0.2523 -0.2007
45542W        W88455  29.766  13.880   4.592  0.0187 -0.0760 -0.0289
45543W        W88456  31.811  18.038   7.249  0.0819  0.0066 -0.0734
45544W        W88457  24.585  17.472   6.702 -0.0533  0.0069  0.0427
45545W        W88458  19.798   8.454   8.439 -0.1747  0.0054  0.3226
45546W        W88459  32.931  12.099   4.926  0.1365  0.3947 -0.0729
45547W        W88460  22.586  16.564   6.327 -0.1274 -0.0682 -0.0560
45548W        W88461  18.264   8.955   6.704 -0.0681 -0.0190  0.0177
45549W        W88462  29.067  15.135   8.903  0.0334  0.2685 -0.1247
45550W        W88463  31.668  13.659   1.370 -0.1207 -0.1544 -0.0026
45551W        W88464   1.319   3.469   9.034  0.1113 -0.1280  0.0237
45552W        W88465  34.394  15.111   2.546  0.3181 -0.0863  0.2291
45553W        W88466  31.570  15.676   1.036  0.0966 -0.0587 -0.0364
45554W        W88467   2.167  11.887   0.583  0.2493  0.0086 -0.3497
45555W        W88468  33.740  13.209   8.537 -0.2138  0.2003  0.1137
45556W        W88469  34.194  20.429   1.622  0.0713 -0.0037  0.3549
45557W        W88470  28.216  22.202   9.209 -0.1196  0.0964  0.3846
45558W        W88471  31.426  13.182   5.905 -0.0337 -0.0411  0.0744
45559W        W88472   5.962   5.036   7.841  0.0278 -0.2020 -0.1197
45560W        W88473   1.715  15.722   7.716  0.0852  0.2267  0.0708
45561W        W88474  28.233  13.790   6.451 -0.0715 -0.0083 -0.1314
45562W        W88475   9.956  21.892   3.209  0.0755 -0.0190  0.3509
45563W        W88476   5.634  28.571   3.906  0.1099 -0.1804 -0.5306
45564W        W88477  32.427  20.793   5.090  0.1619  0.2629 -0.1562
45565W        W88478  32.575  19.099  29.700  0.0640  0.2210 -0.0962
45566W        W88479   0.732   8.244  10.551  0.3907 -0.0448  0.0491
45567W        W88480  22.550  15.687   7.444 -0.0609 -0.2465  0.2136
45568W        W88481  30.709  19.653   7.780  0.2326 -0.1053 -0.1968
45569W        W88482  34.096  18.180   7.505 -0.0155  0.0797 -0.1427
45570W        W88483  33.863  11.844  27.592  0.0576 -0.1423 -0.1731
45571W        W88484  28.572  10.840   5.588  0.1840 -0.1780 -0.3088
45572W        W88485  19.563  16.966  28.972  0.3046  0.1366  0.2245
45573W        W88486  25.831  12.788   6.779 -0.3042  0.0860  0.3878
45574W        W88487   7.031   5.203   7.916  0.0995 -0.1264 -0.0842
45575W        W88488  30.045  14.822   4.580  0.1314  0.2377 -0.0042
45576W        W88489  26.125  16.061  28.675  0.0060  0.2577 -0.1108
45577W        W88490  27.699  16.185  29.435  0.2129 -0.1066 -0.1078
45578W        W88491  29.010  14.644  29.693 -0.2320  0.0427  0.3992
45579W        W88492   3.134  16.780   3.204  0.2409  0.1838 -0.0587
45580W        W88493   0.668   5.839   7.325  0.3852 -0.0815  0.2387
45581W        W88494  31.252  21.021   8.429  0.0143  0.0004  0.2715
45582W        W88495  30.208  20.370   9.663  0.1125 -0.0455  0.2825
45583W        W88496   1.850  12.885   5.716 -0.0316 -0.2308  0.0992
45584W        W88497  19.958  11.844   2.361 -0.1221 -0.1468 -0.0844
45585W        W88498  25.420  19.747   5.252  0.2883  0.0563  0.1330
45586W        W88499  32.175  14.790   8.194  0.1441  0.0033  0.2454
45587W        W88500  21.290  16.180  21.957  0.5823 -0.1123 -0.0064
45588W        W88501   3.407  11.886   5.326  0.2111 -0.1563 -0.1803
45589W        W88502   5.954  12.739   8.779 -0.1418 -0.0207  0.2915
45590W        W88503   1.205  17.213   7.334  0.0437  0.1378 -0.3496
45591W        W88504  27.549  17.971   7.089  0.0677 -0.1598  0.1902
45592W        W88505  11.602   8.900   5.968  0.1361  0.0253  0.3246
45593W        W88506   5.234   8.914   6.465  0.0840 -0.0852 -0.0346
45594W        W88507  26.575  12.087   9.596  0.3579 -0.0044 -0.0615
45595W        W88508  22.291  27.485   0.366  0.4979 -0.0158 -0.2890
45596W        W88509  26.199  19.833  25.215 -0.2809 -0.0799 -0.1819
45597W        W88510   4.183  13.564   3.877  0.0053 -0.2173  0.0872
45598W        W88511  34.263  21.065   9.298  0.1058 -0.1470 -0.3445
45599W        W88512  28.416  26.529   4.872 -0.0634  0.0538 -0.0324
45600W        W88513  22.857   9.419  29.219 -0.0115  0.2643 -0.0850
45601W        W88514  32.126  14.773   7.534  0.0660 -0.1110 -0.0289
45602W        W88515  20.587   6.652   3.918  0.0103  0.0100  0.1464
45603W        W88516  23.589  12.898   2.125 -0.0838 -0.2574  0.0353
45604W        W88517  13.588  14.056   2.780 -0.0126  0.0599  0.2455
45605W        W88518   7.766  18.141   4.807 -0.0617  0.0396 -0.0066
45606W        W88519   0.447  13.012   0.770 -0.1045  0.0204  0.2936
45607W        W88520   0.818  14.343   6.800 -0.0468  0.0685  0.3390
45608W        W88521  33.032  20.415   0.607  0.4355  0.2286 -0.1670
45609W        W88522  24.743   6.491   4.926 -0.3955  0.1189  0.2555
45610W        W88523   1.880   7.346   6.852 -0.1805  0.5359 -0.0230
45611W        W88524   3.338  18.957   7.262  0.0418  0.1207  0.1115
45612W        W88525  10.142  26.693   3.496  0.0080  0.0878 -0.0584
45613W        W88526   0.238  16.998   7.508 -0.2852 -0.1934  0.0317
45614W        W88527   9.639  17.338   4.671 -0.0178  0.1653  0.2273
45615W        W88528   2.857  14.067   4.423 -0.1097  0.1121  0.4071
45616W        W88529   0.003   1.115   3.272  0.2670  0.0967  0.3044
45617W        W88530  11.944  13.719   7.893 -0.0412 -0.3952  0.2598
45618W        W88531  13.293  11.247  26.077  0.0944  0.1884  0.1196
45619W        W88532  28.121  22.133  29.075  0.3902 -0.1693  0.0109
45620W        W88533   4.199   8.718   5.309 -0.2109  0.0916  0.1529
45621W        W88534  25.311  15.671   9.570 -0.0800 -0.2160 -0.0683
45622W        W88535  26.146  16.391   6.921 -0.2355 -0.0796 -0.0808
45623W        W88536  30.215  10.661   9.144 -0.1132  0.2530  0.0110
45624W        W88537  30.297  15.425   5.380  0.0306 -0.1887  0.0853
45625W        W88538  25.453   6.672   7.449 -0.1266 -0.1122  0.0010
45626W        W88539   6.574  11.447   3.841 -0.1684 -0.1036 -0.1940
45627W        W88540   4.270  21.316   9.264  0.0426  0.2552 -0.3314
45628W        W88541  23.944  24.499   1.391  0.1541 -0.0139 -0.2753
45629W        W88542  26.624  15.449   8.612  0.2407 -0.1646 -0.3133
45630W        W88543  12.626  13.431   5.284 -0.0147  0.0852  0.0259
45631W        W88544   0.062  21.268   6.035  0.2613 -0.2111 -0.4231
45632W        W88545  31.800  16.862  29.302  0.1214 -0.1806  0.2528
45633W        W88546  24.339  18.370   6.658 -0.2292 -0.0043  0.2234
45634W        W88547  19.441  16.785   7.013  0.1835  0.0480 -0.0709
45635W        W88548  33.175  17.151   7.589 -0.3173 -0.1645  0.1061
45636W        W88549   5.652  14.701   9.789  0.0664  0.0516 -0.1489
45637W        W88550  34.457  14.156   7.149  0.1177  0.1804 -0.5082
45638W        W88551  29.959  18.085  25.896  0.2981 -0.0247 -0.1788
45639W        W88552  25.524  16.171   8.150 -0.3211  0.0675 -0.0752
45640W        W88553  29.918  10.182   4.705  0.3015  0.2793 -0.0813
45641W        W88554   4.462  22.423   7.136 -0.3524  0.3725 -0.0779
45642W        W88555   3.461  17.052  28.071 -0.2346 -0.2228  0.1090
45643W        W88556  30.099  12.913   4.927  0.0104 -0.4321  0.0833
45644W        W88557  21.820  12.570  26.277 -0.0799 -0.1856 -0.1342
45645W        W88558   6.682   8.584   9.096 -0.2948  0.0782  0.3136
45646W        W88559   8.989  17.614   3.436  0.0613 -0.1036  0.0653
45647W        W88560  33.891  11.495   7.499  0.0062  0.1426  0.1223
45648W        W88561  16.146  21.322  28.576  0.1206  0.0748 -0.0206
45649W        W88562  31.232  12.350   8.246  0.1891 -0.0708 -0.1396
45650W        W88563   2.972   6.292   5.818 -0.0839 -0.0738 -0.0318
45651W        W88564   0.906   7.179   9.786  0.2981 -0.3523 -0.0294
45652W        W88565  23.790  13.340   9.056  0.1065  0.0359 -0.2670
45653W        W88566  15.666  17.690   7.464  0.1464  0.1858  0.1432
45654W        W88567  27.853  10.388   6.822  0.1265 -0.0218 -0.1484
45655W        W88568   3.587   8.683  10.800  0.1745  0.3072  0.0122
45656W        W88569  30.947  20.105   6.395 -0.1914  0.1742 -0.2722
45657W        W88570  30.985  18.386   5.800  0.2180  0.0840 -0.1623
45658W        W88571  12.654  14.003   8.195  0.0268 -0.0271  0.0997
45659W        W88572  29.805  34.371  10.166 -0.3108  0.2565  0.1445
45660W        W88573   3.666   6.905   2.311  0.1426 -0.2379  0.0380
45661W        W88574  31.881  13.879   9.576 -0.2775  0.3158  0.0758
45662W        W88575  30.011  10.831   3.294 -0.2574 -0.0310 -0.4426
45663W        W88576   2.660  10.633  10.355  0.2836 -0.4630  0.0388
45664W        W88577  33.281  30.430   3.973 -0.1493 -0.1857  0.1060
45665W        W88578   2.096  25.085  28.875 -0.0801  0.0509  0.3248
45666W        W88579  20.187  13.874   3.048 -0.0393 -0.0376  0.0842
45667W        W88580   2.753   0.108   8.478  0.0836 -0.2075  0.3027
45668W        W88581  23.208  13.757   2.550  0.0780 -0.2902  0.1518
45669W        W88582   3.226   9.508   8.914 -0.2939  0.1515 -0.2240
45670W        W88583  21.355  18.847   5.729 -0.0984  0.0222  0.0245
45671W        W88584   6.048  29.750   6.071 -0.1264 -0.1772 -0.3565
45672W        W88585  24.956  10.211   9.362  0.0170  0.0685 -0.0141
45673W        W88586   0.883   4.148   8.188 -0.0517 -0.0324 -0.0579
45674W        W88587   0.303   9.832   8.055 -0.0260 -0.0627 -0.1243
45675W        W88588   3.197   6.708  12.696  0.0772  0.2186  0.0455
45676W        W88589  21.902  25.767  28.279  0.1403 -0.0105  0.1954
45677W        W88590   6.403  15.169   9.551 -0.1805  0.0349 -0.0001
45678W        W88591  33.593  19.432   9.598 -0.2651  0.1341 -0.2450
45679W        W88592   8.229  20.735   1.553  0.1307 -0.1826  0.1703
45680W        W88593  34.280  17.037  10.236  0.2845 -0.1160 -0.2640
45681W        W88594  30.614   8.360  26.548  0.0920  0.0944  0.1109
45682W        W88595   0.478  15.047   4.028 -0.0100 -0.0220 -0.4363
45683W        W88596  26.489   9.391   7.557 -0.1503 -0.4248 -0.2673
45684W        W88597   7.343  31.474   7.965 -0.0559 -0.2503 -0.0246
45685W        W88598  33.060  17.930   4.676  0.0594 -0.0007 -0.1764
45686W        W88599  10.621  10.753   5.453 -0.0315  0.1133  0.1349
45687W        W88600  29.438  13.981  10.371  0.2745  0.1396  0.0490
45688W        W88601  10.867  10.522   2.384 -0.0596  0.3026  0.2264
45689W        W88602  32.782  19.538  29.135  0.1017 -0.1561  0.2884
45690W        W88603   3.976   7.549   1.049 -0.0403 -0.0038 -0.1609
45691W        W88604   3.182   9.941   3.267 -0.0404 -0.3416 -0.0927
45692W        W88605  28.557  22.794   6.503 -0.0743 -0.0330  0.0317
45693W        W88606   9.972   4.373  11.505 -0.4132 -0.0115  0.0492
45694W        W88607  30.766  12.757   6.797 -0.3511 -0.1796  0.1565
45695W        W88608   4.498   6.110   0.924  0.0734 -0.2946  0.0390
45696W        W88609  29.876  19.923  28.437  0.1953  0.0956 -0.2246
45697W        W88610   1.409  14.842  25.169 -0.0899  0.0949  0.2470
45698W        W88611  19.167   5.264   5.687  0.0370 -0.3345  0.1037
45699W        W88612  24.799  23.558   2.401 -0.0220  0.4573 -0.1118
45700W        W88613  31.442  15.336   7.127 -0.0521  0.2529  0.0197
45701W        W88614  26.961  11.249   1.009  0.0245  0.0961  0.1600
45702W        W88615  27.348  18.097  26.899 -0.2004 -0.1915 -0.0088
45703W        W88616  28.257  18.649   2.189  0.2318 -0.1466 -0.0418
45704W        W88617  28.809  14.481   6.305 -0.3310 -0.0555 -0.0735
45705W        W88618   5.889   2.893   7.828 -0.0104  0.0213  0.0561
45706W        W88619  24.246  10.851  26.329  0.1276 -0.1286  0.2310
45707W        W88620   9.208   4.930  25.161 -0.0741  0.0772 -0.0316
45708W        W88621   0.071   9.890  25.590 -0.1662  0.2541  0.0361
45709W        W88622   2.312  11.071  22.737  0.0580 -0.1231  0.0255
45710W        W88623   4.884  26.341  28.555  0.2459  0.0163 -0.1930
45711W        W88624   1.727   5.179   9.575  0.1357 -0.1916  0.1242
45712W        W88625   5.567  22.192   0.439  0.2760 -0.1799 -0.2162
45713W        W88626  26.070  12.013  28.290  0.0441 -0.0241  0.0329
45714W        W88627  32.327  14.200   6.862 -0.0383  0.1891  0.2293
45715W        W88628  28.194  12.560   1.591  0.1285 -0.0313 -0.0123
45716W        W88629  31.529  18.597   9.239  0.3272  0.0552  0.1932
45717W        W88630  27.356  13.056   4.461 -0.0627  0.0262  0.0319
45718W        W88631  28.367   8.553   6.843 -0.0839  0.1101 -0.2141
45719W        W88632  30.297  28.965   6.925  0.0758  0.0457  0.1664
45720W        W88633  31.198  14.246   4.073 -0.0578 -0.2819  0.2933
45721W        W88634  33.220  22.782   8.701  0.0446  0.1090  0.4000
45722W        W88635  31.856   8.352   8.380 -0.3121 -0.0891 -0.0323
45723W        W88636  25.441  19.072  27.705  0.1632 -0.0655  0.0744
45724W        W88637  23.845  11.516   2.820 -0.1686 -0.0570  0.1148
45725W        W88638   9.222  16.340   0.028  0.1492 -0.0852  0.2722
45726W        W88639  28.571  17.621   8.001  0.3542  0.0662 -0.0392
45727W        W88640  30.879  13.507   5.896  0.2782  0.0771 -0.0848
45728W        W88641  32.289   6.934  10.364 -0.3006  0.1309  0.1955
45729W        W88642   3.116  14.790   6.147 -0.0109 -0.1632  0.2599
45730W        W88643  21.899  15.123   5.189  0.2025  0.0760 -0.1687
45731W        W88644  18.616  22.703   8.276 -0.1450  0.0408 -0.1872
45732W        W88645   1.808   3.139   2.594 -0.0992 -0.2986 -0.2363
45733W        W88646   3.512  17.718   9.792  0.0156  0.2302  0.1204
45734W        W88647   3.752   7.618   5.849  0.0958 -0.1637 -0.0137
45735W        W88648   5.055  10.930  10.401 -0.0640  0.1899  0.0081
45736W        W88649  31.068  14.084   5.476 -0.0899 -0.0083  0.0875
45737W        W88650   3.598  19.487   8.857  0.1276 -0.1626 -0.0208
45738W        W88651  32.138  19.358   7.393  0.1729 -0.1863  0.3222
45739W        W88652   0.904  23.193   8.514 -0.3618 -0.0718 -0.0886
45740W        W88653   1.887   8.765   9.084 -0.1492  0.0861  0.0051
45741W        W88654  28.427  10.288   4.494  0.0978  0.1702  0.0090
45742W        W88655  21.600  15.181  28.072  0.1035  0.2089 -0.1159
45743W        W88656   7.205   8.515   0.827  0.2168 -0.0963  0.4242
45744W        W88657  25.205  10.465   0.452 -0.0292 -0.0223 -0.3340
45745W        W88658   3.539  19.938   3.620 -0.0209 -0.0669 -0.0130
45746W        W88659   0.319   5.428   1.168 -0.0025  0.0962 -0.0754
45747W        W88660  27.069  19.450   7.634  0.0324 -0.1670  0.1520
45748W        W88661   5.458  15.235   6.279  0.1683  0.0592  0.0826
45749W        W88662  24.684  20.828   6.750 -0.0726  0.0839  0.2094
45750W        W88663  23.942  13.990   8.229  0.1270  0.1033 -0.1135
45751W        W88664  33.523  17.442   4.187  0.2303 -0.1392  0.4880
45752W        W88665  24.182  18.693   7.843 -0.1169  0.2051 -0.1276
45753W        W88666   2.741  11.991   6.270 -0.2866  0.1532  0.1482
45754W        W88667  25.976   1.886   4.328  0.0113  0.1948  0.3231
45755W        W88668  23.689  22.097   7.512  0.3693 -0.1815 -0.0837
45756W        W88669  32.856  15.044   6.238  0.1472  0.2071  0.0012
45757W        W88670  23.908  12.390   5.845  0.4302  0.1499  0.0336
45758W        W88671  28.550  19.615   6.631 -0.0908 -0.3115  0.0124
45759W        W88672  24.602   9.558   5.694  0.1940 -0.0706 -0.1998
45760W        W88673  33.419  22.198   7.127 -0.0418 -0.2793  0.1036
45761W        W88674  22.086  13.978   4.698  0.2913  0.0094 -0.3128
45762W        W88675   4.818  23.418   6.162  0.0254 -0.2757  0.0338
45763W        W88676   6.930  22.229   8.208 -0.3128  0.1037 -0.3397
45764W        W88677  32.212  20.385   7.331 -0.1766 -0.0148 -0.0175
45765W        W88678  29.068  17.510   7.992 -0.1467 -0.0457  0.1286
45766W        W88679  29.583  22.109   7.038  0.0558  0.1889 -0.0779
45767W        W88680  23.764  17.277   6.303  0.1733 -0.1435  0.0611
45768W        W88681  28.760  16.085  28.984  0.1308  0.0939 -0.0236
45769W        W88682  30.878   7.304   5.212  0.1789 -0.1136  0.3211
45770W        W88683  29.394  19.896   8.643 -0.1391  0.0314 -0.3388
45771W        W88684  31.532   3.075  23.051 -0.0217  0.2613 -0.0511
45772W        W88685  32.310  14.384   7.899 -0.3941 -0.0268  0.0653
45773W        W88686   1.452   5.107  29.563  0.1562  0.0716  0.0387
45774W        W88687  21.057  23.192   4.893 -0.2389  0.2242  0.3028
45775W        W88688  30.967  11.458   3.630  0.1588  0.0232 -0.3078
45776W        W88689  13.510  33.088   6.939  0.1371 -0.0301  0.1295
45777W        W88690   5.232  20.362   7.259 -0.2695  0.1703 -0.0833
45778W        W88691   3.521  10.957   5.131 -0.0986 -0.1643  0.2075
45779W        W88692  24.049   6.608   6.031 -0.1827 -0.1447 -0.1432
45780W        W88693  32.744  12.535   5.327  0.0851 -0.2327 -0.1643
45781W        W88694  23.653  22.265   3.716  0.0989  0.1183 -0.3480
45782W        W88695  19.936  17.968   7.435  0.0086 -0.2830  0.3751
45783W        W88696  24.189  15.241   7.358 -0.1301 -0.0933  0.0917
45784W        W88697  30.918  12.317   6.512  0.2271  0.0016 -0.1325
45785W        W88698   1.850  17.149   0.904 -0.0298  0.1913 -0.0554
45786W        W88699   2.805   2.810   9.987 -0.0803 -0.1028 -0.1825
45787W        W88700   3.701  14.773   9.151 -0.1644 -0.2991  0.3190
45788W        W88701  22.521  17.216   1.694 -0.0830 -0.3044  0.1465
45789W        W88702  31.747  20.397  28.041 -0.0039 -0.2129  0.1769
45790W        W88703  29.803   9.051   7.229 -0.4503  0.1296 -0.1089
45791W        W88704   1.142  14.795   7.465 -0.0712 -0.1265 -0.0565
45792W        W88705   1.131   6.675   9.634 -0.0509  0.0257 -0.5558
45793W        W88706  25.055   8.124   0.630 -0.2376  0.3851  0.2255
45794W        W88707  25.748  16.539   8.463 -0.4117  0.0067  0.0553
45795W        W88708   1.246  15.675   6.992 -0.1211 -0.1021 -0.3981
45796W        W88709  22.019  21.928   3.960  0.2246  0.1895 -0.0194
45797W        W88710  30.768  18.120  26.716  0.0890  0.1871  0.2486
45798W        W88711  25.908  21.108   3.772 -0.0203 -0.0019 -0.1623
45799W        W88712   5.829   8.394  27.466  0.1301 -0.0063 -0.1613
45800W        W88713   2.094  25.374   5.409 -0.3568 -0.3536  0.2037
45801W        W88714  24.751  14.161   0.217 -0.2298  0.0540 -0.1031
45802W        W88715  23.472  18.748   3.907 -0.0814  0.1098 -0.2380
45803W        W88716  27.590  18.521   8.905  0.2902 -0.1901  0.0058
45804W        W88717  32.392  18.671   8.869 -0.1448 -0.0475 -0.0035
45805W        W88718  26.149  21.063   4.320  0.2775 -0.0319  0.0024
45806W        W88719  23.845  18.109   4.771  0.4224  0.2996  0.0366
45807W        W88720  30.185   8.454   5.063  0.0498  0.1156 -0.3177
45808W        W88721   3.492  19.916   0.902 -0.0900 -0.1050  0.2175
45809W        W88722  31.328  20.505   1.791  0.1364  0.3894  0.3080
45810W        W88723   7.999  14.723   4.686 -0.0261  0.0236  0.1521
45811W        W88724  31.911  22.097   1.180  0.1932  0.2243 -0.0862
45812W        W88725   3.374  14.604   8.809 -0.3059  0.1581  0.2367
45813W        W88726  31.184  20.096   0.683 -0.2617  0.0546  0.3243
45814W        W88727  32.832  20.169   9.807 -0.0698 -0.0581  0.1942
45815W        W88728   7.562   5.963   7.582  0.1230  0.2800  0.0071
45816W        W88729   7.414  10.808   8.912 -0.1473  0.0447  0.0499
45817W        W88730  31.701  15.961   9.088  0.1308 -0.0133 -0.2114
45818W        W88731   1.494  21.550   4.801 -0.1677  0.2338 -0.2745
45819W        W88732   0.991  17.946   7.819 -0.1671 -0.2288  0.1651
45820W        W88733   3.426  29.299   8.983 -0.0191 -0.1784 -0.2538
45821W        W88734   2.820  14.348   9.321  0.1114 -0.1599 -0.0119
45822W        W88735  32.626  19.132   9.450 -0.0259  0.0134 -0.4031
45823W        W88736  27.804  11.834   4.752  0.2737 -0.1218  0.0809
45824W        W88737   3.574   5.549   6.431  0.2193 -0.3128 -0.0405
45825W        W88738  27.173  11.200   7.834 -0.0247 -0.0524  0.0314
45826W        W88739  30.389  13.513   1.952  0.2837  0.3250  0.2243
45827W        W88740  29.281  17.142   4.340 -0.1781  0.0940  0.4500
45828W        W88741   0.019   6.352   7.966  0.0945 -0.0171 -0.1889
45829W        W88742  27.644   9.613   5.546 -0.2287  0.1976  0.1282
45830W        W88743   3.752  21.119   6.115  0.5143  0.1350  0.1749
45831W        W88744   2.765  17.958   4.172 -0.1997  0.3521 -0.3628
45832W        W88745  14.465  11.729   3.248  0.1943  0.0739  0.0978
45833W        W88746  10.200  27.998   0.506 -0.0209  0.0217 -0.0330
45834W        W88747   0.042  16.195   2.289 -0.0336  0.0892 -0.1640
45835W        W88748  28.583  15.504   8.029 -0.3525  0.0457 -0.1462
45836W        W88749   3.094   7.344   6.894  0.0397  0.1910 -0.0905
45837W        W88750  17.442  17.868  29.613 -0.0112 -0.1018 -0.0541
45838W        W88751   0.731  24.904   6.447  0.0259 -0.3337 -0.3174
45839W        W88752  27.181   8.080   3.274 -0.4510  0.2621 -0.3659
45840W        W88753  27.545  13.495  28.311 -0.0676  0.1955 -0.1681
45841W        W88754  18.440  12.886   4.108  0.0901 -0.1651  0.3801
45842W        W88755  28.586  24.881   7.692  0.0799  0.0725 -0.1903
45843W        W88756   0.640  22.005  25.726 -0.1843 -0.2147  0.1643
45844W        W88757  30.279  16.622   8.025 -0.1948  0.3219  0.2957
45845W        W88758  25.402  11.848   2.635 -0.2316 -0.1184 -0.2673
45846W        W88759  31.142  14.841   3.919  0.0715 -0.2657 -0.2982
45847W        W88760   3.068  12.545   9.847 -0.2378 -0.1835  0.2171
45848W        W88761  29.233  13.029   1.942  0.1795  0.1827 -0.1767
45849W        W88762  26.609  18.110   2.826  0.2658  0.1166  0.1231
45850W        W88763  24.429  23.571   5.997 -0.1057  0.3877 -0.0316
45851W        W88764   7.129   7.141   5.699 -0.0605  0.2348 -0.1667
45852W        W88765  28.750  18.498   3.129  0.0518  0.0212 -0.3102
45853W        W88766   2.645  13.109   4.310 -0.0130  0.0037  0.1929
45854W        W88767   8.792  11.693   7.040  0.0477  0.0408 -0.1214
45855W        W88768  27.003  16.078   3.975  0.1743 -0.0314  0.0704
45856W        W88769  30.334   7.426  10.632 -0.1471 -0.1292 -0.0435
45857W        W88770  31.593  16.221   4.182 -0.4498  0.1169 -0.1756
45858W        W88771   2.358  12.130   9.073  0.0340 -0.2530  0.3823
45859W        W88772  30.407  13.057   6.052 -0.0734 -0.1519 -0.0250
45860W        W88773  32.555  21.119   8.893 -0.0660  0.2331 -0.2564
45861W        W88774  31.973   8.004   9.995  0.2784 -0.1948 -0.1924
45862W        W88775  27.353  10.849   6.581 -0.1649  0.1071 -0.3024
45863W        W88776   6.948  11.720   6.328  0.0533  0.0523 -0.0511
45864W        W88777  20.388  20.289  29.314  0.1609 -0.1326  0.1971
45865W        W88778   2.403  16.183   9.154 -0.0174 -0.3176 -0.0182
45866W        W88779   1.557  11.863  10.890  0.0099  0.4292 -0.1706
45867W        W88780  29.434  14.212   4.695 -0.4196  0.3906  0.1835
45868W        W88781  34.248   1.985   9.924  0.1842 -0.0185  0.1719
45869W        W88782  25.759  25.462   5.294 -0.0210  0.0088 -0.0869
45870W        W88783  27.352  11.936   5.100 -0.1338  0.0042  0.0097
45871W        W88784  27.618   9.062  26.442  0.1113  0.0543 -0.0498
45872W        W88785  30.262  28.666  28.109  0.3711 -0.1167 -0.2708
45873W        W88786  10.446  13.869   7.419 -0.0055 -0.2851 -0.1801
45874W        W88787  30.075  11.038   1.893 -0.0590 -0.0856 -0.0623
45875W        W88788  25.410  11.269   9.336 -0.0149 -0.0371  0.0257
45876W        W88789  26.986  20.390  26.512 -0.3612  0.1903 -0.1510
45877W        W88790  17.288  19.912   4.909 -0.4679  0.2824  0.0542
45878W        W88791  26.448   8.363  23.372 -0.2424  0.0530  0.2907
45879W        W88792  21.021  19.957   0.419  0.1256  0.1655  0.0809
45880W        W88793   4.906  33.382  25.718  0.2070  0.0129 -0.1468
45881W        W88794  25.849  21.716   7.576 -0.0355  0.0147 -0.3758
45882W        W88795  22.859  17.646  19.642  0.1196 -0.2521 -0.1141
45883W        W88796  20.150   7.879  28.380 -0.3250 -0.0630 -0.3255
45884W        W88797  28.155  18.856   1.252 -0.3444  0.0846  0.0400
45885W        W88798  12.696  22.121  26.605 -0.0924 -0.1438  0.3396
45886W        W88799  32.040  33.471   3.007 -0.0743 -0.2597 -0.1859
45887W        W88800   4.515  22.817  29.346  0.0826  0.1115  0.0195
45888W        W88801   4.111  25.305   3.188 -0.0221 -0.0820 -0.0989
45889W        W88802  30.261  21.326   2.607  0.1069  0.0966  0.2140
45890W        W88803   2.511  11.796  19.001 -0.3300 -0.2152  0.3076
45891W        W88804  31.190  10.711   1.286 -0.0978  0.2204 -0.0061
45892W        W88805  21.265  15.030  29.778 -0.1175 -0.1123 -0.0399
45893W        W88806  25.863  11.291  29.338 -0.1318 -0.0111 -0.1044
45894W        W88807  17.989  13.669  27.767 -0.2634 -0.3991 -0.3228
45895W        W88808  26.510  28.773   1.681 -0.1526 -0.1711  0.0199
45896W        W88809   3.951  27.171   3.762  0.1919 -0.2813  0.1117
45897W        W88810  27.273  24.655  29.408 -0.2411  0.1358 -0.0767
45898W        W88811  33.566  22.157   1.850 -0.1442 -0.1249  0.1830
45899W        W88812  34.375  24.443   9.210 -0.3454  0.3086  0.0570
45900W        W88813   2.558  21.206   6.251 -0.1076 -0.2796  0.5757
45901W        W88814  32.470  25.446  25.517 -0.6008 -0.1800 -0.3300
45902W        W88815  24.576  14.526   3.007  0.1629 -0.0442 -0.0907
45903W        W88816  30.688   9.863   4.078  0.2263 -0.1266  0.0019
45904W        W88817  24.299  18.769   2.506 -0.1867  0.2653 -0.3539
45905W        W88818   4.540  31.533  26.824 -0.1285  0.2927 -0.2293
45906W        W88819  30.524  23.599   9.360 -0.0422 -0.0148  0.1275
45907W        W88820  33.400  24.880  27.890 -0.1043  0.0297 -0.2900
45908W        W88821  21.061  21.363   4.268 -0.2435 -0.0270 -0.3605
45909W        W88822  25.514  11.543   4.564 -0.2772  0.1987  0.1564
45910W        W88823  28.628  17.257   2.596 -0.0239 -0.1267 -0.3721
45911W        W88824   4.854  28.603   7.935  0.2821  0.0541 -0.2226
45912W        W88825  19.285  23.695   9.455  0.3119 -0.5946  0.0149
45913W        W88826   3.942  28.853   2.842  0.2076  0.0427  0.1891
45914W        W88827   1.143  19.360  25.800 -0.0080  0.1847 -0.0202
45915W        W88828  23.153  21.264   1.403  0.1625 -0.0126 -0.0006
45916W        W88829  25.421  28.185  22.782  0.1240 -0.0254  0.4417
45917W        W88830  32.530  20.860   4.142  0.1246 -0.2441 -0.1500
45918W        W88831  25.828   9.075  25.803 -0.1121 -0.1341 -0.1459
45919W        W88832  22.128  11.151  28.317 -0.2529 -0.2006  0.1784
45920W        W88833  31.233  24.620  27.155 -0.3003 -0.0439  0.1734
45921W        W88834  27.332  29.113   3.149  0.0104 -0.2057  0.0219
45922W        W88835   0.585  22.226   6.409 -0.0002 -0.1408  0.0230
45923W        W88836  26.996  26.698   3.139  0.1659  0.0172 -0.0776
45924W        W88837   0.359  13.574  29.631 -0.0326  0.1581 -0.0341
45925W        W88838   2.206  20.962   7.075 -0.0389  0.0405 -0.1572
45926W        W88839  19.070  24.246  25.829  0.0132  0.2948 -0.1286
45927W        W88840  30.963  23.697  24.541  0.0273 -0.0190  0.1141
45928W        W88841  30.313  16.736  28.634  0.0471  0.1836  0.1902
45929W        W88842   0.843  17.615  22.820 -0.0172  0.0998  0.0774
45930W        W88843  28.146  21.541   0.424  0.2733  0.2271 -0.1719
45931W        W88844  24.096  31.993   4.003  0.1722 -0.1120 -0.3926
45932W        W88845  26.528  20.121  23.953  0.2576 -0.1395 -0.0309
45933W        W88846   7.076  22.396  18.782  0.1891 -0.1515 -0.2810
45934W        W88847   2.621  11.402   5.095  0.0389  0.0863  0.3525
45935W        W88848  26.551  22.996  26.794  0.1395  0.1238  0.0103
45936W        W88849   1.528  24.060   1.781  0.1194  0.1299  0.3539
45937W        W88850  25.921  13.807   0.784 -0.0847  0.2612 -0.1595
45938W        W88851   7.408  28.091  25.197 -0.0537 -0.0986 -0.1382
45939W        W88852  15.772  19.873   3.671 -0.0531 -0.3459  0.1075
45940W        W88853  26.135  24.349  28.844  0.0608 -0.1503  0.2163
45941W        W88854  17.062  20.012  29.719  0.1067  0.0986 -0.0653
45942W        W88855   8.852  28.520   5.415 -0.2130 -0.1527  0.1709
45943W        W88856  24.983  22.761  28.804 -0.1039  0.1564  0.0953
45944W        W88857  31.785  18.915   1.519 -0.0348 -0.1327 -0.1173
45945W        W88858  29.032   0.203   4.600 -0.0541 -0.1567 -0.2365
45946W        W88859  20.025  20.789   0.124  0.0540 -0.2926 -0.4169
45947W        W88860  32.050  14.079   8.269 -0.2141 -0.2469 -0.3167
45948W        W88861   1.131  25.583   0.679  0.3770  0.1532  0.1053
45949W        W88862  15.133  11.649   0.149 -0.2996 -0.0181  0.0102
45950W        W88863  26.933  10.528  25.628 -0.2123  0.1769 -0.0076
45951W        W88864  16.851  24.167  17.682  0.2342  0.1971  0.0823
45952W        W88865  22.435  17.085   7.448 -0.1240 -0.0155  0.2204
45953W        W88866  26.784  11.647   9.524  0.2234  0.1547  0.1457
45954W        W88867  23.816  22.534  27.129 -0.0032  0.2013  0.2018
45955W        W88868  12.148  24.177   4.297 -0.1264  0.0566  0.0904
45956W        W88869  32.039  12.813   9.535 -0.1313 -0.1834  0.0264
45957W        W88870  19.233  10.709   1.023 -0.1898  0.1160 -0.2932
45958W        W88871  29.694  21.026   3.753 -0.0623  0.2893  0.1447
45959W        W88872  11.354  18.818  24.372 -0.3379 -0.2891 -0.1500
45960W        W88873  21.631  22.192   6.292 -0.1997 -0.2679 -0.1831
45961W        W88874  26.577  15.951  22.967 -0.0514 -0.1236  0.0750
45962W        W88875  29.421  25.932  27.265  0.1216  0.0294 -0.0474
45963W        W88876  27.286  13.600   1.642  0.4933  0.0207  0.1290
45964W        W88877  26.889   8.933   6.101 -0.0577  0.1941  0.1950
45965W        W88878   3.106  14.504   2.502 -0.1914 -0.1115 -0.0764
45966W        W88879  23.957  23.193   1.897 -0.3224  0.1793 -0.0176
45967W        W88880  25.627  15.852  27.131 -0.3756 -0.1061  0.1864
45968W        W88881  33.844  18.264  20.737  0.0235  0.2136 -0.1603
45969W        W88882  23.759  20.213  22.260  0.1550  0.3095  0.2819
45970W        W88883  18.508  18.847   6.814  0.1659 -0.0827 -0.1712
45971W        W88884  22.562  31.939  26.950 -0.0046 -0.0567  0.0163
45972W        W88885  31.667  27.650   1.375 -0.0633  0.0265 -0.0382
45973W        W88886  27.470  26.361   2.546 -0.0870 -0.2450 -0.2557
45974W        W88887  25.555  19.089   1.871  0.1720  0.0705  0.0484
45975W        W88888  19.901   2.744  23.478  0.3464  0.2414  0.3568
45976W        W88889   1.259   2.822  10.993 -0.2271 -0.4106 -0.0551
45977W        W88890  34.293  12.468   1.487  0.1430 -0.2090 -0.1065
45978W        W88891  25.309  13.965  24.142 -0.1004  0.1213 -0.2296
45979W        W88892  33.982  24.021   1.030  0.0977  0.2237  0.1187
45980W        W88893  31.411   9.729  28.977  0.0678 -0.2036 -0.1934
45981W        W88894  22.632  21.789   7.953 -0.0121  0.0957  0.0386
45982W        W88895  27.233  14.598  20.755 -0.1476 -0.0110 -0.0520
45983W        W88896  27.137  19.042   4.701  0.0920 -0.0826  0.3148
45984W        W88897   2.700  26.761  27.046  0.1594 -0.0113 -0.6888
45985W        W88898  32.903  13.508  28.062 -0.1780 -0.2026  0.0474
45986W        W88899  26.930  18.062  25.600  0.2433 -0.0690  0.3653
45987W        W88900   4.386  12.638   3.988 -0.0545  0.3983  0.0578
45988W        W88901   4.316  12.064  26.857 -0.1422  0.1367 -0.3326
45989W        W88902   3.011  16.093   8.518  0.0564  0.1082 -0.0441
45990W        W88903   2.279  16.768   8.752  0.3641 -0.3313 -0.2135
45991W        W88904  33.310  29.559   1.930 -0.0598  0.0174  0.3578
45992W        W88905   2.155  21.768   0.972  0.0142  0.1347 -0.3233
45993W        W88906  33.553  15.791   3.966 -0.3717 -0.1484  0.0950
45994W        W88907   3.772  18.789   4.688 -0.1406 -0.2075  0.0778
45995W        W88908  18.869  23.706  22.421  0.0954 -0.0694  0.0190
45996W        W88909   0.958  19.751   4.420 -0.1756 -0.1687 -0.2486
45997W        W88910  25.817  16.516   1.092 -0.1985  0.1389 -0.1625
45998W        W88911   3.769  16.554   7.483  0.1799 -0.0537  0.1696
45999W        W88912  32.772  15.612   4.859  0.0865 -0.0033 -0.0331
46000W        W88913  28.932  18.835  27.868  0.0066  0.0427  0.1372
46001W        W88914  28.938  15.399  26.361  0.0661 -0.0291 -0.0676
46002W        W88915   0.185  20.384   7.439  0.1144  0.2454  0.0846
46003W        W88916  25.734  20.491   1.731 -0.0552 -0.1004  0.2892
46004W        W88917   1.123   4.617   1.249  0.0727  0.2069  0.0353
46005W        W88918   6.447  11.533  29.657 -0.2698  0.1996 -0.6225
46006W        W88919  22.572  34.200   7.948  0.0858  0.0311  0.3607
46007W        W88920  21.775  15.050   2.011 -0.2789 -0.4184  0.1566
46008W        W88921  28.421  17.838   0.192  0.0941 -0.2240  0.1347
46009W        W88922  30.694  23.431   3.037 -0.0163 -0.0276 -0.1649
46010W        W88923  24.636  18.051   4.247 -0.1661  0.0358  0.1002
46011W        W88924  26.587  18.827   3.150  0.1162 -0.3267  0.0357
46012W        W88925  25.956  25.575  24.014  0.2195  0.2793  0.3758
46013W        W88926  32.420  16.367  26.202  0.1939  0.1637 -0.1661
46014W        W88927  10.284   4.546   2.486 -0.3509 -0.0010 -0.2198
46015W        W88928  22.348  15.598   6.021 -0.3081 -0.1113  0.1909
46016W        W88929  22.699  19.217   4.484 -0.2264 -0.1584  0.1962
46017W        W88930  24.231   6.576  27.209 -0.2581 -0.2160 -0.0999
46018W        W88931  32.729  16.758   6.386 -0.1485  0.1044  0.1042
46019W        W88932  34.469  12.420   6.784  0.1680 -0.0597 -0.3784
46020W        W88933  19.893  13.922   2.193  0.1292  0.2922  0.0414
46021W        W88934  31.575  17.934  22.862  0.2276  0.2521 -0.1370
46022W        W88935  30.199  32.661  20.411 -0.0818  0.2770 -0.5165
46023W        W88936  21.036  16.823   0.318  0.2653 -0.0997 -0.0223
46024W        W88937  26.052  19.225  20.926  0.0885 -0.2693  0.0578
46025W        W88938  25.067   2.403  24.569 -0.4140  0.1352  0.1014
46026W        W88939  24.635  15.697   4.351 -0.1788 -0.0780 -0.3331
46027W        W88940  21.164  24.353   5.694 -0.2929 -0.1509  0.0930
46028W        W88941  19.549  23.419  27.411 -0.3428 -0.1430  0.0333
46029W        W88942  28.336  12.551   9.101 -0.0174  0.0796  0.1957
46030W        W88943   1.424  27.501  25.590  0.0027  0.1606  0.2598
46031W        W88944  13.342  14.683  19.324  0.1072 -0.0491 -0.0730
46032W        W88945  32.587   8.596   4.866 -0.0395  0.0052 -0.1091
46033W        W88946  30.472  11.607  28.789  0.0933 -0.0036 -0.0135
46034W        W88947   2.757  23.556   3.042 -0.0775 -0.1474  0.1879
46035W        W88948   0.570  15.566   7.330 -0.3068 -0.1393  0.3287
46036W        W88949  29.618  19.406   5.444 -0.2744  0.2474 -0.2754
46037W        W88950   0.686  21.160  29.779  0.1304  0.1267  0.1025
46038W        W88951  28.053  24.472  22.385  0.0671  0.0456  0.0279
46039W        W88952   1.399  24.799  28.335  0.0046 -0.4883  0.1542
46040W        W88953  29.675  15.885   0.628 -0.0662  0.1809 -0.3318
46041W        W88954  24.387  11.717   6.160  0.0878 -0.0605 -0.1160
46042W        W88955  17.921  12.559  23.025  0.1855 -0.1505  0.3082
46043W        W88956  31.916  33.448  23.756 -0.0904  0.1668  0.0466
46044W        W88957  33.595  29.567   6.341 -0.2515  0.0797  0.0720
46045W        W88958   7.307  23.200   5.224  0.1797 -0.3269  0.3976
46046W        W88959   0.719  22.270   7.272 -0.0182  0.3444  0.1639
46047W        W88960   2.446   9.349  24.910  0.2723 -0.0171 -0.4173
46048W        W88961  21.768  17.762   3.857 -0.1197 -0.2144  0.1309
46049W        W88962  17.674  11.472  25.694 -0.0785  0.0252  0.3012
46050W        W88963  31.466  33.187   2.916  0.0432  0.1916 -0.1217
46051W        W88964  26.297  20.302   2.465 -0.1291 -0.4908 -0.6399
46052W        W88965   1.580  31.040  25.027 -0.0851  0.1490 -0.0383
46053W        W88966  33.616  32.530  26.304 -0.0151  0.1863  0.2044
46054W        W88967   9.947  17.519  13.941  0.3611 -0.1069 -0.0739
46055W        W88968  12.750  10.438   7.230 -0.2435 -0.0465  0.2906
46056W        W88969  25.027  20.348   4.500 -0.1133  0.4086  0.3553
46057W        W88970  23.316  18.938   8.296 -0.1455  0.1653  0.3006
46058W        W88971  22.673  24.454  25.083 -0.1081  0.1604 -0.2016
46059W        W88972   2.191   2.294   2.825 -0.0359 -0.4027  0.0868
46060W        W88973  21.345  23.605  23.593  0.0285  0.0203 -0.0268
46061W        W88974  34.453  25.447   5.316 -0.0948  0.1050 -0.0160
46062W        W88975  30.025  29.227  29.344 -0.2765 -0.0106 -0.0019
46063W        W88976  27.791  20.788   6.306  0.0368 -0.0561 -0.2441
46064W        W88977   5.526  15.246  19.250 -0.3340  0.2368  0.0545
46065W        W88978   3.735  16.428   1.434 -0.1808 -0.0845  0.3517
46066W        W88979  26.752  29.152   5.070 -0.2815  0.0939  0.0130
46067W        W88980  15.189  21.761  15.515  0.3921  0.1140  0.0154
46068W        W88981  32.977  23.610   0.579 -0.1673  0.1342  0.1212
46069W        W88982  31.983  30.153  28.416 -0.2927  0.0618  0.0123
46070W        W88983  27.150   1.021  25.841 -0.0539  0.1882  0.2265
46071W        W88984   3.962  17.340   2.718  0.0656 -0.3517  0.1434
46072W        W88985   4.903  16.001  20.592 -0.3576 -0.0628  0.2685
46073W        W88986   1.417  19.893  29.303  0.0935  0.1712 -0.0712
46074W        W88987   5.302  20.240   0.162 -0.2218  0.3273 -0.2922
46075W        W88988   6.471  11.006   6.521  0.1344  0.1127 -0.1624
46076W        W88989   3.531  25.535   0.435  0.0183 -0.3759  0.1039
46077W        W88990  29.139  19.327   9.056 -0.0373 -0.1352 -0.0755
46078W        W88991  16.499  16.906  28.472  0.1450  0.2314 -0.1336
46079W        W88992  30.045  26.823  27.259 -0.4804  0.1826 -0.0224
46080W        W88993  30.789  25.935  27.305  0.1138  0.0217  0.0364
46081W        W88994  28.316  16.175   4.373  0.1623 -0.0827  0.2705
46082W        W88995  17.287  12.932   1.837  0.0851  0.0659 -0.1509
46083W        W88996  22.915  19.915   6.286  0.0451 -0.0052 -0.0903
46084W        W88997  26.539  27.674  26.762 -0.0067  0.0307 -0.1659
46085W        W88998  29.004  18.278   9.275 -0.1726  0.1742 -0.2322
46086W        W88999  19.434  14.900   5.056 -0.2763 -0.1119  0.0193
46087W        W89000  33.835  28.346   5.016 -0.0819  0.1786  0.1981
46088W        W89001  34.287  23.457   8.374  0.2084  0.0665 -0.0122
46089W        W89002  23.631   9.865  29.553 -0.0190  0.1972  0.1700
46090W        W89003   1.011   9.700  24.154  0.3542 -0.0151 -0.0101
46091W        W89004  28.223  20.073  27.902 -0.0849 -0.0512 -0.0973
46092W        W89005  20.805  16.246  23.260 -0.0873  0.0772 -0.1859
46093W        W89006   6.921  21.467   8.664  0.0290 -0.0571  0.1880
46094W        W89007  29.703  17.683  27.449  0.0936 -0.0639  0.0649
46095W        W89008   0.420  16.529  10.423  0.1835 -0.0729  0.0933
46096W        W89009  26.166  21.940   4.804 -0.0993  0.3871  0.2075
46097W        W89010  23.390  17.439   5.547  0.1221 -0.2166 -0.0343
46098W        W89011  21.440  24.237   0.578 -0.1550  0.1776 -0.0368
46099W        W89012  13.547  12.216  27.884 -0.0391  0.0381  0.1442
46100W        W89013  22.436  21.007   3.998  0.0869  0.2786 -0.3906
46101W        W89014  28.829  31.208   5.851 -0.1586  0.0509 -0.0623
46102W        W89015  21.248  13.233   0.373  0.0985  0.1433  0.0442
46103W        W89016   6.248  28.033   6.279 -0.3601 -0.0878 -0.2051
46104W        W89017  24.729  24.452  15.264 -0.1188 -0.0177 -0.0923
46105W        W89018  24.708  18.363   5.633 -0.0528 -0.1840  0.1892
46106W        W89019  31.524  14.401   4.599 -0.0472 -0.0458 -0.0135
46107W        W89020   2.708  17.299  24.495  0.2774 -0.0012 -0.2550
46108W        W89021   4.386  22.270  23.995  0.2593  0.1147  0.0545
46109W        W89022   0.744  22.779   3.711  0.2578  0.0419  0.0259
46110W        W89023  32.933  25.190   2.560  0.1101  0.1251  0.2091
46111W        W89024  32.511  22.840   0.294  0.0861 -0.1111 -0.1539
46112W        W89025  24.392   6.419  27.889 -0.1975  0.1529  0.0087
46113W        W89026  30.885  27.317   3.825  0.2441 -0.0470 -0.0982
46114W        W89027  25.104  15.270   6.481  0.0111  0.0579  0.1877
46115W        W89028  30.714  14.505   0.723  0.0525  0.2546  0.0133
46116W        W89029  25.487  30.797   0.054 -0.0081 -0.2363 -0.3423
46117W        W89030   4.452  22.654   5.819 -0.1768 -0.0510 -0.0238
46118W        W89031  21.299  12.329  28.570  0.1103  0.0657 -0.0836
46119W        W89032  25.190  10.170   1.992  0.0673  0.0475 -0.1820
46120W        W89033  32.831  31.890  26.578 -0.2688  0.0471  0.2944
46121W        W89034  32.661  20.851  27.465 -0.0169 -0.0188  0.0509
46122W        W89035  27.823  26.241   4.374 -0.3035 -0.3756  0.2470
46123W        W89036  19.878  29.589   3.990 -0.0308 -0.1735 -0.1300
46124W        W89037  22.890  26.911  14.768  0.0215  0.0036 -0.0032
46125W        W89038  25.653  15.535  26.621  0.0895  0.1135 -0.0314
46126W        W89039   9.614  18.177   1.214  0.0538  0.1117  0.0133
46127W        W89040  23.722  18.424  26.170 -0.2331  0.1886  0.0330
46128W        W89041   1.429  24.483   3.510  0.3137 -0.2040 -0.1791
46129W        W89042  25.467  27.571   7.569 -0.0565  0.2955  0.1210
46130W        W89043   1.257  25.865  23.697 -0.3060  0.0420  0.1518
46131W        W89044  21.525  26.483  22.806  0.0046 -0.0453  0.1300
46132W        W89045   0.155   2.617   3.953  0.0750 -0.0291 -0.1253
46133W        W89046   2.014  25.364   9.439  0.0488  0.2591 -0.1846
46134W        W89047   5.530  13.874   5.730 -0.0268  0.0101 -0.0343
46135W        W89048   8.510  18.609   1.316  0.4510  0.0514 -0.1725
46136W        W89049  29.173  28.917   0.220 -0.0821 -0.1237 -0.1900
46137W        W89050   2.280  31.594   1.883  0.1365 -0.1497  0.0714
46138W        W89051   6.752  12.288  27.683 -0.2426  0.0745 -0.4090
46139W        W89052  29.817  18.333   6.605  0.1629  0.1344 -0.0521
46140W        W89053  33.163  14.166   2.916  0.0762 -0.1044  0.1085
46141W        W89054  10.466  20.049  25.481  0.1325 -0.0692 -0.0328
46142W        W89055  32.900  20.370   1.066  0.1773 -0.1362  0.3598
46143W        W89056  27.967  26.922   1.501 -0.2305  0.0265  0.3956
46144W        W89057  26.755  17.478   8.405 -0.2369  0.0615  0.0717
46145W        W89058  31.027  14.845  16.166  0.1683  0.1113  0.1640
46146W        W89059  22.529  22.325  27.136  0.0025  0.4254 -0.1702
46147W        W89060  30.969  14.328   7.108  0.0679 -0.2294 -0.2211
46148W        W89061  30.723  11.781   6.618  0.3431 -0.0050  0.1285
46149W        W89062  24.316  31.710  24.829  0.0533  0.0200  0.2971
46150W        W89063  33.154  17.029  26.864  0.0669 -0.0420  0.0918
46151W        W89064   6.007  20.156  21.546 -0.0639  0.1013 -0.1493
46152W        W89065  23.146  27.059   2.701  0.3108 -0.2755 -0.0251
46153W        W89066   2.497  12.804   2.375  0.0954  0.0462 -0.0307
46154W        W89067  29.480  28.097   7.223 -0.0985 -0.2274  0.1057
46155W        W89068  30.902  20.574  21.812  0.3471 -0.1068 -0.2065
46156W        W89069  26.463  15.028   0.479  0.0231 -0.0545 -0.1466
46157W        W89070  31.348  22.932   7.445 -0.0806  0.3122 -0.1112
46158W        W89071  33.442  14.090   8.361 -0.0020  0.0029  0.4874
46159W        W89072  29.811  30.149  26.082 -0.0320  0.0520  0.1765
46160W        W89073  21.234  18.698  27.039 -0.0595 -0.2918  0.1499
46161W        W89074  26.753  23.605  25.763  0.1563 -0.0483 -0.0991
46162W        W89075  33.016  18.763   5.480 -0.2480  0.1965  0.1335
46163W        W89076  29.728  21.685  20.887 -0.2785 -0.0115 -0.0256
46164W        W89077  31.123  16.882  28.528  0.1117  0.0337  0.1755
46165W        W89078  32.678  23.168  27.139 -0.2251  0.1278 -0.1817
46166W        W89079  28.807   3.610  26.517 -0.1543  0.1684 -0.3086
46167W        W89080  22.506  16.176   7.545  0.0494  0.1402 -0.0060
46168W        W89081  24.493  29.451   4.287 -0.1977  0.1192  0.0735
46169W        W89082  20.677  27.205   0.786  0.1831 -0.1540  0.1166
46170W        W89083  31.729  22.438   3.835  0.2520 -0.0679  0.1044
46171W        W89084  22.101  18.951   3.337 -0.3261  0.2128  0.1259
46172W        W89085  32.003  19.796   5.401  0.1809  0.0318 -0.0894
46173W        W89086   4.567  23.536   8.654  0.2726  0.1248 -0.1481
46174W        W89087   1.593  22.711   8.852  0.0414  0.0211 -0.0588
46175W        W89088  34.379  17.597   9.191 -0.0804  0.0758  0.2632
46176W        W89089   6.089  18.430  24.668 -0.0490  0.0954 -0.0112
46177W        W89090  26.092  28.254  28.079 -0.1859 -0.1255 -0.1817
46178W        W89091  24.537  16.773   1.413 -0.2084 -0.1868  0.2450
46179W        W89092   2.221  16.487   9.532 -0.1137  0.1604 -0.0531
46180W        W89093  18.100  17.911   7.185  0.0078 -0.1160  0.0732
46181W        W89094  28.582  16.136   9.181 -0.0945 -0.0226 -0.0930
46182W        W89095  24.352  28.275  29.497 -0.1558 -0.0359  0.2882
46183W        W89096  23.485  10.185   0.407 -0.0462  0.1406 -0.0743
46184W        W89097   4.714  26.346   6.037 -0.3853 -0.0406 -0.1147
46185W        W89098  19.168  22.052   2.539 -0.2691  0.2958 -0.0983
46186W        W89099  24.590  18.989  27.830  0.1805 -0.0734 -0.1993
46187W        W89100  11.690  16.341   5.349 -0.0287 -0.1064  0.1960
46188W        W89101  31.626  11.849  24.202  0.2997  0.0662  0.1418
46189W        W89102  27.831  25.307   7.508 -0.0439 -0.1851 -0.3041
46190W        W89103  21.559  21.789   5.413 -0.3368  0.0763  0.0977
46191W        W89104   2.267  18.911   7.894  0.2607 -0.0291 -0.1234
46192W        W89105   0.775  30.510   7.726 -0.1429 -0.0309 -0.3659
46193W        W89106  29.750  30.477  28.655 -0.0839  0.1612 -0.3214
46194W        W89107  28.427  17.866   8.918  0.2162  0.1759 -0.3662
46195W        W89108   0.295  25.303   6.375 -0.0386  0.0612  0.0419
46196W        W89109  22.418  25.512   4.949 -0.3172  0.0900 -0.1624
46197W        W89110   1.440  27.309  28.456 -0.1459 -0.2351  0.2256
46198W        W89111  22.658  19.704   4.349 -0.4323  0.1692 -0.0641
46199W        W89112   0.268  14.683   4.792  0.1478  0.0809 -0.2131
46200W        W89113  24.222  26.269  23.685 -0.2176  0.0805  0.1797
46201W        W89114   3.377  14.379   6.123  0.0477 -0.2541  0.0300
46202W        W89115  28.954  12.545   2.473 -0.2463  0.1211 -0.1128
46203W        W89116   0.230  15.798   5.865  0.2425  0.1164 -0.0066
46204W        W89117  26.545  24.898  24.947  0.3592  0.0345  0.0839
46205W        W89118  32.093  31.411  24.694 -0.4314 -0.0952  0.1676
46206W        W89119   4.276  13.573   8.254  0.2712 -0.0179  0.1000
46207W        W89120  24.019  25.595   1.384  0.0354  0.0930  0.1696
46208W        W89121  31.874  32.725  10.653  0.0286 -0.1077 -0.0655
46209W        W89122   3.643  22.295  19.319  0.1860  0.2135  0.1947
46210W        W89123  28.927  20.848   5.370 -0.0971  0.3394  0.0006
46211W        W89124  31.122  20.592   6.178 -0.1097  0.2777  0.3185
46212W        W89125  23.403  15.924  21.976  0.1168  0.3529  0.2067
46213W        W89126  34.107  23.029   1.268 -0.1591 -0.1343  0.1735
46214W        W89127  29.468  26.806   8.692 -0.0785  0.1795 -0.0241
46215W        W89128  28.505  20.836   2.221 -0.1414  0.3014 -0.3428
46216W        W89129  23.205  23.564  27.607  0.3864 -0.0888 -0.0757
46217W        W89130  27.242  28.984   8.125 -0.0378 -0.0969 -0.0953
46218W        W89131  33.572  19.870  24.251 -0.1843  0.2324  0.2206
46219W        W89132  32.860  22.026   5.643  0.0689  0.0519 -0.3956
46220W        W89133   3.144  13.133  23.801  0.0657  0.4747 -0.0513
46221W        W89134  24.234  21.012   0.006  0.0920  0.0257  0.2496
46222W        W89135  31.156  17.449   1.592  0.1844 -0.0089  0.2239
46223W        W89136  25.667  22.028   3.916 -0.1569  0.1769  0.2564
46224W        W89137  24.963  21.621   1.033 -0.1870 -0.1076 -0.1009
46225W        W89138  27.251  15.906   5.193  0.2114  0.2470  0.1137
46226W        W89139  23.249  32.154  28.719 -0.2047 -0.1756  0.0559
46227W        W89140  25.993  22.953  28.631 -0.0247  0.1159 -0.0699
46228W        W89141  30.331  16.395   4.296  0.0963 -0.1753 -0.1186
46229W        W89142  26.816  18.355  26.018  0.2457 -0.0716 -0.1861
46230W        W89143  34.422  23.713   3.656 -0.0373 -0.0751 -0.0104
46231W        W89144  29.468   4.699  29.620 -0.1104 -0.2657  0.3059
46232W        W89145  25.597  18.406  29.183  0.0110 -0.0113  0.0976
46233W        W89146  21.541  19.886  29.152  0.4300 -0.0846  0.1356
46234W        W89147  33.328  28.944   2.625 -0.0799  0.0164  0.1809
46235W        W89148  25.922  21.913  28.031  0.3316 -0.1203 -0.0123
46236W        W89149  22.428  15.292   4.448 -0.0425 -0.0017  0.0224
46237W        W89150  21.636  18.196  20.387 -0.1279 -0.0245  0.1368
46238W        W89151  32.395  16.281  27.274 -0.1688  0.0756  0.3004
46239W        W89152   7.856  16.580  26.300 -0.0592 -0.1824 -0.0799
46240W        W89153  32.279   0.733   5.403  0.1819  0.1229 -0.1439
46241W        W89154  34.181  29.278   9.506 -0.0621  0.0788 -0.2834
46242W        W89155  30.061  14.611  28.599 -0.1539 -0.0301  0.0762
46243W        W89156  20.609  25.129  15.827 -0.3276  0.0649  0.1323
46244W        W89157  27.980  21.772   5.746 -0.1738 -0.1042  0.2103
46245W        W89158   0.389  19.223   9.576  0.0895 -0.1584 -0.3823
46246W        W89159  33.989  18.552   8.468  0.0888 -0.1450 -0.0275
46247W        W89160  32.308  11.967   8.603  0.1059  0.2445 -0.0289
46248W        W89161  24.746  23.953   2.708 -0.2512  0.2773  0.0644
46249W        W89162  31.219  13.498   6.981  0.0781 -0.3200  0.1478
46250W        W89163  33.514  19.017   6.872  0.0109  0.3032 -0.1373
46251W        W89164  27.177  19.247   5.464 -0.0133  0.0332 -0.2236
46252W        W89165  27.074  22.472  29.040 -0.2504  0.0432 -0.3006
46253W        W89166  32.195  30.040   7.802 -0.0641  0.0431 -0.4216
46254W        W89167  27.740  16.291   9.593  0.0836  0.3925 -0.4956
46255W        W89168  32.180  13.271   6.412  0.1827 -0.3599 -0.0424
46256W        W89169  28.566  19.652  27.438  0.0778  0.0874 -0.1706
46257W        W89170   3.261  20.814  24.714  0.1604 -0.1723  0.1246
46258W        W89171  25.953  24.811   1.441  0.0473 -0.2015  0.1529
46259W        W89172  33.692  10.326   5.103 -0.4275  0.2778 -0.1440
46260W        W89173  30.332  16.181  18.488 -0.1536  0.0095 -0.0238
46261W        W89174  25.720  19.871   4.869 -0.2333 -0.1960 -0.0833
46262W        W89175  21.128  19.700   2.072  0.1101  0.2152 -0.2633
46263W        W89176  16.882  18.619  28.404 -0.0368  0.2897 -0.1392
46264W        W89177  28.668  16.294   4.745 -0.2509 -0.1168  0.0883
46265W        W89178  20.808  22.656  24.672 -0.2040  0.2826 -0.0754
46266W        W89179  30.655  11.508  24.851  0.0338 -0.0961  0.0528
46267W        W89180  26.433  22.788   2.968 -0.4529  0.2419 -0.1909
46268W        W89181   0.681  19.399  19.881 -0.0776 -0.1286 -0.0380
46269W        W89182  32.691  24.188   8.444 -0.2137  0.2151 -0.1788
46270W        W89183   3.831  19.301  23.849  0.2017 -0.1327 -0.2748
46271W        W89184   2.097  14.857   3.408 -0.0545  0.0152 -0.3733
46272W        W89185  32.485  28.197   9.147  0.0293 -0.1418  0.0062
46273W        W89186  26.789  22.913   7.472  0.1688  0.2727  0.0338
46274W        W89187  33.794  24.938   6.501  0.4192 -0.0493 -0.2403
46275W        W89188  28.941   9.527   6.853  0.2315 -0.1715  0.2580
46276W        W89189  22.154  20.354  27.267 -0.1254 -0.1300 -0.0867
46277W        W89190   2.647  21.646   0.836  0.3056  0.0834 -0.3459
46278W        W89191   7.762  19.805  22.251  0.1866  0.1907  0.1240
46279W        W89192  31.739  12.675   8.372 -0.1896  0.0073 -0.2318
46280W        W89193  21.500  20.958   8.194  0.2334 -0.2562 -0.1196
46281W        W89194   2.979   3.485  24.407  0.2464  0.2421  0.1839
46282W        W89195  25.717   2.652   8.678  0.0404  0.1807  0.0083
46283W        W89196   2.628  17.840   6.281 -0.3143 -0.0185 -0.1545
46284W        W89197  21.459  18.526   6.647  0.2810  0.0061  0.1312
46285W        W89198   9.849   9.428   2.432  0.0986  0.2983  0.3083
46286W        W89199  14.862  14.948   6.514 -0.0170  0.1250 -0.0550
46287W        W89200  33.337  19.935   5.422  0.0693 -0.2853 -0.1961
46288W        W89201   4.624  14.711   8.835 -0.2028  0.2094 -0.1039
46289W        W89202   2.815  17.977   5.075 -0.0042 -0.1486  0.1330
46290W        W89203  29.088  24.823   4.028 -0.0008 -0.0515 -0.2292
46291W        W89204  33.941  25.334   6.169  0.0828 -0.1705  0.0861
46292W        W89205  34.062  15.526   2.655 -0.1615  0.3909 -0.1709
46293W        W89206  24.351  22.091   6.133  0.0830 -0.1181 -0.2587
46294W        W89207  28.362  17.593   1.477  0.0245  0.1880 -0.1842
46295W        W89208   1.022  18.324   8.706 -0.1177 -0.0351 -0.0015
46296W        W89209  25.036  20.541   1.881  0.0669 -0.2322 -0.1789
46297W        W89210   4.696  11.294   6.732 -0.0308 -0.1250  0.2474
46298W        W89211  24.714   8.292   1.958 -0.1776 -0.0741 -0.1893
46299W        W89212  24.011   9.790   4.093  0.1996 -0.3427  0.4688
46300W        W89213   0.078  34.141   4.636 -0.2821  0.2072 -0.2969
46301W        W89214  28.227  25.732  26.994 -0.0178 -0.1648  0.0672
46302W        W89215   2.817  29.559   5.428 -0.0744  0.0245 -0.3337
46303W        W89216  26.976  19.563   2.678  0.0564 -0.3217  0.1505
46304W        W89217  25.875  24.561   4.267 -0.2441 -0.0629 -0.1807
46305W        W89218  21.861  17.592   6.879  0.0931  0.0637 -0.3107
46306W        W89219  24.849  24.764   1.615 -0.0068  0.0654  0.3106
46307W        W89220  27.943  17.222   0.868  0.3369  0.1470  0.2397
46308W        W89221  30.619  22.031   9.226  0.0442  0.1720  0.2682
46309W        W89222  28.973  18.646   5.885  0.2765 -0.3055  0.0074
46310W        W89223  30.308   8.963   0.319  0.1697 -0.2559 -0.2145
46311W        W89224  27.803  16.935   7.789 -0.3787  0.1171  0.0660
46312W        W89225  10.167  18.703  26.247  0.0716  0.3368 -0.0538
46313W        W89226  25.966  18.527   5.296 -0.2258  0.3148  0.2308
46314W        W89227  18.498  23.150  29.169  0.0760 -0.1058 -0.3818
46315W        W89228  19.090  15.991   5.629  0.0873  0.2005 -0.3807
46316W        W89229  30.152  27.153   8.206  0.3660  0.1716 -0.0427
46317W        W89230   1.893  22.386   6.139 -0.0252  0.0886  0.1140
46318W        W89231  28.068  29.374   3.618  0.0795 -0.1597 -0.0700
46319W        W89232  16.876  17.750   5.522  0.0547 -0.2718 -0.0459
46320W        W89233  25.309  25.513   4.549 -0.0497 -0.3154  0.0434
46321W        W89234  23.316  16.592   5.768 -0.0617 -0.0957 -0.0956
46322W        W89235  32.094  19.183   5.131 -0.0620  0.0989 -0.3433
46323W        W89236   1.458  24.007   2.425  0.2838 -0.1313  0.1548
46324W        W89237  29.611  26.703  27.409  0.1221 -0.2734 -0.3037
46325W        W89238   3.500  17.021   9.309 -0.1131  0.1904  0.1286
46326W        W89239  29.048  19.190   9.571 -0.0661  0.3148 -0.2210
46327W        W89240  24.464  14.776  26.703 -0.0010  0.1269  0.2124
46328W        W89241  30.034  24.132   7.660  0.0989  0.0346 -0.3444
46329W        W89242  28.225  19.353  29.494 -0.1573 -0.0835  0.0176
46330W        W89243  16.172  17.161   0.153  0.0726  0.1498  0.0253
46331W        W89244  27.807  24.822   8.487  0.0292 -0.2717  0.0129
46332W        W89245  23.849  16.917   7.435 -0.1501  0.0783  0.2109
46333W        W89246   3.484  12.386   8.374 -0.2338  0.1769 -0.0034
46334W        W89247   2.774  14.511  27.829 -0.0534 -0.2690 -0.0418
46335W        W89248  25.875  20.407   7.709 -0.1434  0.1955 -0.0908
46336W        W89249   1.105   5.507  21.177 -0.2332 -0.0704  0.0878
46337W        W89250  26.180  17.454   1.791 -0.0808  0.1608  0.0994
46338W        W89251  29.033  32.547   3.704  0.0915  0.1888 -0.3428
46339W        W89252  32.843  11.774   8.608  0.3515 -0.1164 -0.1290
46340W        W89253  27.598  18.181   6.176 -0.1170 -0.0418  0.0999
46341W        W89254  32.845  14.424   7.733  0.0645 -0.1322 -0.1655
46342W        W89255  31.150  11.647   9.264 -0.0745 -0.1608 -0.0767
46343W        W89256  33.272  12.501  28.336 -0.2549  0.2953  0.0912
46344W        W89257   2.337  28.176   8.217 -0.2172  0.1307 -0.0120
46345W        W89258  22.677  25.073  27.430 -0.4194  0.3424  0.0677
46346W        W89259   0.680  18.880  28.535 -0.2430 -0.2761  0.0071
46347W        W89260  26.268  20.146   7.350 -0.1266  0.1736  0.1122
46348W        W89261   4.904  14.680  29.561 -0.1538 -0.4319  0.0304
46349W        W89262  32.995  11.979   2.134  0.2207 -0.2420 -0.0327
46350W        W89263  28.218  18.160   9.824  0.0653  0.0524  0.2096
46351W        W89264  32.455  18.270  18.258 -0.1573 -0.0184 -0.0819
46352W        W89265  31.118  13.349   4.487  0.0672  0.1449 -0.1556
46353W        W89266  34.341  19.941   9.187  0.2012 -0.0132  0.1442
46354W        W89267   1.236  13.346   2.827  0.3884  0.4191 -0.2527
46355W        W89268  21.480  17.999  29.695  0.0623 -0.1235  0.1862
46356W        W89269  33.142  19.498   1.716  0.2772 -0.3426  0.0917
46357W        W89270  29.981  17.045   7.914 -0.3987 -0.1878  0.1400
46358W        W89271  19.097  25.308   4.083 -0.1940  0.0821 -0.0089
46359W        W89272  28.298   2.303   8.401 -0.2325  0.2247 -0.0933
46360W        W89273  28.037  20.897  29.113  0.2394  0.0910 -0.0929
46361W        W89274  31.192  13.954   6.125  0.0222 -0.0900 -0.1913
46362W        W89275   0.227  15.478  28.729  0.0960  0.0710  0.5356
46363W        W89276  34.347  15.001  10.212  0.2365 -0.1094  0.0253
46364W        W89277  21.763  19.733   0.271 -0.0181  0.1054 -0.1938
46365W        W89278  29.783  13.886  28.795  0.0112  0.2212 -0.2981
46366W        W89279  26.108  16.921   7.545  0.1357 -0.2467 -0.2334
46367W        W89280  34.453  24.590  23.600 -0.1532  0.1866 -0.1773
46368W        W89281  28.873  18.083   2.502  0.0416  0.1188  0.2262
46369W        W89282  13.604  28.164   0.752 -0.0298  0.5844  0.0347
46370W        W89283   2.028  18.961  28.069  0.1504  0.2068  0.3206
46371W        W89284   9.115  31.376   6.331 -0.0498  0.0396 -0.3602
46372W        W89285  31.333  24.051   9.505 -0.4101  0.2336 -0.1459
46373W        W89286  34.434  25.520   7.434 -0.1415 -0.3767 -0.4737
46374W        W89287  21.368  19.626   3.758  0.0411  0.0024 -0.0333
46375W        W89288  23.399  15.698  28.830 -0.1790  0.0202  0.1803
46376W        W89289  34.043  25.136  29.056  0.0269 -0.0553 -0.1900
46377W        W89290  33.274  10.836   8.003  0.0306  0.0036  0.1066
46378W        W89291  31.476  23.869   3.362  0.0206  0.4164  0.0613
46379W        W89292  32.352  32.168   7.482 -0.1204  0.1228  0.0021
46380W        W89293  23.764   4.048  25.552 -0.1094  0.0860 -0.2739
46381W        W89294  27.781  23.208   5.125 -0.2535 -0.0425 -0.0719
46382W        W89295   2.566  22.203   4.471 -0.0020  0.0780 -0.0378
46383W        W89296   0.913  21.536   3.018  0.1865  0.0413  0.1528
46384W        W89297  23.294  16.770  23.227 -0.0112 -0.4123 -0.2089
46385W        W89298  29.833  11.704   7.083 -0.5324  0.0883  0.4280
46386W        W89299   3.651  12.578   7.841  0.1472  0.0722  0.0302
46387W        W89300   1.135  16.978   5.409  0.2310  0.0808  0.2923
46388W        W89301  24.091   0.711   0.894  0.1332  0.2965  0.2003
46389W        W89302   8.025  13.357   8.698 -0.0142  0.3959 -0.0821
46390W        W89303   6.294  25.097  28.353 -0.0981 -0.0098  0.0231
46391W        W89304  25.062  33.479  10.270 -0.0280  0.1896 -0.3669
46392W        W89305  20.261  12.749   1.213 -0.1231 -0.2337  0.0338
46393W        W89306  23.775  15.969   7.370 -0.1686 -0.2050  0.2177
46394W        W89307   0.194  13.860   4.711  0.0691 -0.1335  0.2351
46395W        W89308   3.562  22.865   8.866 -0.2552 -0.1447 -0.4800
46396W        W89309   3.852  17.097   4.554 -0.0722  0.1265  0.3873
46397W        W89310   0.190  28.009   5.530 -0.0526 -0.2090  0.0877
46398W        W89311   8.915  20.693   4.386 -0.0481  0.1583  0.0305
46399W        W89312  34.072  24.542   4.144  0.1027 -0.1252  0.2273
46400W        W89313  32.333  15.076   4.540  0.2821  0.0545  0.0135
46401W        W89314   1.821  21.302   4.089 -0.3567 -0.3491 -0.3385
46402W        W89315  32.705  11.919   5.738 -0.1990 -0.1989  0.0458
46403W        W89316  24.824  20.343   1.450  0.1208 -0.0280  0.2263
46404W        W89317  23.828  18.177  29.295 -0.1698 -0.1974  0.3416
46405W        W89318  24.324  32.055   6.157 -0.1390  0.0093 -0.1101
46406W        W89319  25.751  17.470   6.819  0.1472  0.0647 -0.1333
46407W        W89320  30.990  15.710  19.436  0.0612 -0.0605  0.3119
46408W        W89321  13.886  21.541  28.154  0.0637  0.2086 -0.1544
46409W        W89322  31.531  15.564   4.209  0.1884  0.1296 -0.0257
46410W        W89323  33.454  24.708   7.741  0.1059 -0.2472 -0.2642
46411W        W89324  17.962  14.069   3.517 -0.2032  0.0295 -0.2128
46412W        W89325  29.501  15.494   6.900  0.1743 -0.0697 -0.0799
46413W        W89326   6.290  11.824   5.640  0.0359 -0.1149 -0.4239
46414W        W89327  34.094  10.011   2.260  0.2631 -0.4381 -0.4051
46415W        W89328   4.700  21.420   9.467 -0.1191  0.0025  0.0123
46416W        W89329  29.276   0.851   7.033 -0.0471  0.2948 -0.0023
46417W        W89330   0.217  24.110   6.018  0.0021 -0.1383  0.1340
46418W        W89331   5.706  14.037  27.711  0.1261  0.3301  0.0949
46419W        W89332  22.563  18.804   4.015  0.1220 -0.2717 -0.2377
46420W        W89333   0.578  25.240  21.836  0.0474 -0.6479  0.2124
46421W        W89334  22.794  24.983   3.789  0.0197 -0.2242  0.2045
46422W        W89335  30.226  29.445   4.428  0.2216  0.0423  0.0846
46423W        W89336  28.700  23.899  28.146 -0.2681 -0.0894 -0.5461
46424W        W89337  26.499  23.319   7.462 -0.0381 -0.3510 -0.2598
46425W        W89338  21.460  13.807   5.615 -0.1062 -0.1017  0.1369
46426W        W89339  32.038  21.723   3.411  0.3291  0.1306 -0.0120
46427W        W89340   3.884  13.216   4.876  0.0357  0.0771 -0.0087
46428W        W89341  33.579  24.779   9.268 -0.0786 -0.2209  0.1735
46429W        W89342   3.326  31.404   7.248  0.1769  0.1363 -0.2054
46430W        W89343  19.665  16.197  24.052 -0.3445  0.3316  0.3265
46431W        W89344  25.549  20.393   4.835  0.0533  0.1960 -0.2698
46432W        W89345  21.309  25.245   5.840 -0.2088  0.0285  0.1804
46433W        W89346  25.396  20.369   7.725 -0.0427  0.0203 -0.0078
46434W        W89347   3.738  24.276  10.456  0.0056 -0.2792 -0.1113
46435W        W89348   7.576  19.043   4.605  0.0340  0.2323  0.4122
46436W        W89349  30.084  26.094   5.699 -0.2322 -0.0184  0.1175
46437W        W89350  32.170  17.212  29.027 -0.0865 -0.1412 -0.1195
46438W        W89351  23.414  18.034   4.939  0.1301 -0.0455  0.2243
46439W        W89352  32.632  17.262   2.155  0.0705  0.1156 -0.2990
46440W        W89353  27.015  18.972   9.312  0.1333  0.4839  0.0634
46441W        W89354  33.322  12.928  21.709 -0.1087 -0.2243 -0.1280
46442W        W89355   1.002  29.784   9.267 -0.1391  0.0308 -0.4255
46443W        W89356  31.902  22.982   7.421 -0.3618 -0.0490 -0.2270
46444W        W89357  32.237  27.016  28.686 -0.2860 -0.3715 -0.0594
46445W        W89358  24.980  11.089  29.446  0.2018  0.1442 -0.3085
46446W        W89359  32.327  21.882   7.956 -0.1371 -0.3738 -0.1218
46447W        W89360  30.819  16.695  10.135  0.2298 -0.1592 -0.4322
46448W        W89361   3.918  11.751   3.813 -0.1902 -0.2050 -0.0642
46449W        W89362  24.639  21.303   5.275  0.1561 -0.0173  0.2167
46450W        W89363  27.667  15.463   6.460 -0.2393 -0.0855  0.0113
46451W        W89364   2.042  27.081   5.009  0.1060 -0.0338 -0.0704
46452W        W89365  27.143  21.577  25.629  0.0705  0.3873 -0.1314
46453W        W89366   8.065  17.514   6.208 -0.3789  0.1218  0.0937
46454W        W89367   2.891  21.057   8.281  0.3624  0.1348  0.1240
46455W        W89368   1.732  14.038   7.845  0.1276 -0.1083  0.1077
46456W        W89369   2.760  14.495   2.135 -0.4131  0.1471  0.3661
46457W        W89370   1.704  10.889   9.363  0.3048 -0.0207  0.2566
46458W        W89371  22.764  25.770   7.286 -0.3199  0.2290  0.3471
46459W        W89372   5.946  21.015   8.367  0.1371  0.1156 -0.2034
46460W        W89373   2.834  21.102   5.890 -0.1743  0.3494 -0.0486
46461W        W89374  21.465  20.881  27.644  0.3009  0.2192 -0.0916
46462W        W89375  25.880   8.928   4.791  0.2739 -0.0916 -0.1560
46463W        W89376  27.792  24.883   1.894 -0.0697 -0.2361  0.0237
46464W        W89377   5.004  16.453   6.795 -0.0728 -0.0080 -0.0003
46465W        W89378  20.158  14.814  28.853  0.1756  0.0403 -0.1599
46466W        W89379  23.532  11.976  25.145  0.0303  0.1350 -0.0853
46467W        W89380   6.036  22.157   5.444  0.0098  0.0540  0.2066
46468W        W89381  34.128  25.770   6.957  0.0144 -0.0615  0.0698
46469W        W89382  25.843  26.804   4.704  0.0210 -0.1735  0.1656
46470W        W89383  26.252  23.610   4.689  0.2440 -0.0571  0.2707
46471W        W89384   5.147  18.746   6.494 -0.1608  0.3195 -0.2095
46472W        W89385  32.065  20.505   5.915  0.0542 -0.0837 -0.1289
46473W        W89386  20.750  27.424   3.999  0.0537  0.0826  0.1846
46474W        W89387  29.729  18.740  10.101 -0.1675 -0.0335  0.2106
46475W        W89388   1.389  26.951  29.076  0.2833  0.1374  0.1682
46476W        W89389  21.595  18.081   6.796  0.2769 -0.0230  0.1931
46477W        W89390  30.376  19.915   2.175 -0.0958 -0.3071 -0.1383
46478W        W89391  27.875  15.633   8.840 -0.0543  0.1712 -0.2669
46479W        W89392  29.787   9.814   7.594 -0.0686 -0.1818 -0.2409
46480W        W89393  23.318  18.304  29.110 -0.2467 -0.0621  0.0938
46481W        W89394  31.829  18.391  25.363 -0.0965 -0.1633  0.3670
46482W        W89395  33.848  10.426  15.434 -0.1143  0.0289 -0.1999
46483W        W89396   5.562  18.265   3.826 -0.0286  0.2326 -0.0285
46484W        W89397  12.255  18.350   6.382 -0.2240  0.1029  0.1356
46485W        W89398   4.458  25.389   0.844  0.1484  0.0720  0.3431
46486W        W89399   8.437  20.087  22.429 -0.2300  0.2052 -0.4409
46487W        W89400  25.809  26.576   1.855  0.0227  0.1547  0.0945
46488W        W89401   3.917  28.337   7.709  0.0062  0.0026  0.0243
46489W        W89402  20.983  12.432   6.408 -0.5735 -0.0107  0.3838
46490W        W89403  31.749  17.923   8.493  0.1206  0.1502  0.0690
46491W        W89404  32.437  24.187   2.545  0.0977 -0.4235 -0.0313
46492W        W89405  24.736  24.623   4.810  0.0259  0.2033  0.2931
46493W        W89406   8.776  26.527   7.318 -0.1219  0.1315 -0.2504
46494W        W89407  33.104  20.321   7.456  0.2297 -0.1829  0.0177
46495W        W89408   0.084  16.908   5.613  0.4169  0.0055  0.1378
46496W        W89409  29.004  25.463   9.219  0.2253 -0.1869 -0.0541
46497W        W89410   9.670  17.753  29.428 -0.0426 -0.0132 -0.2113
46498W        W89411   2.304  21.807   4.388  0.0772  0.1482 -0.1431
46499W        W89412  29.415  12.453   4.460 -0.1166 -0.1434 -0.0138
46500W        W89413  31.843  22.175  29.486  0.2081 -0.2918 -0.0227
46501W        W89414  33.586  18.900   3.631  0.4094 -0.6491 -0.1076
46502W        W89415   2.893  18.589   9.474 -0.2455 -0.0218 -0.1688
46503W        W89416   3.556  16.667   4.769 -0.0351 -0.0189 -0.2945
46504W        W89417   2.367  26.378  26.951  0.2606 -0.2984 -0.0288
46505W        W89418  22.933  19.095   0.104  0.1193 -0.2542 -0.0604
46506W        W89419   1.965  16.658   7.619  0.0687 -0.4791 -0.2172
46507W        W89420  17.998  18.616  22.834  0.0216 -0.0562 -0.0596
46508W        W89421   4.959  17.815   8.490  0.2719  0.0284 -0.1074
46509W        W89422  21.636  19.217  25.175 -0.0763 -0.3317 -0.1454
46510W        W89423  32.508  16.925   0.567  0.3472  0.1071  0.0880
46511W        W89424  25.890  15.466   5.912 -0.1897 -0.0443 -0.0098
46512W        W89425  32.126  12.924   4.530  0.1535 -0.0468  0.0671
46513W        W89426   0.511  17.083   4.410  0.1291  0.0585 -0.0086
46514W        W89427  29.175  20.243   8.988 -0.1566 -0.0673 -0.1929
46515W        W89428  31.279  12.650  27.153 -0.1247  0.0487  0.0192
46516W        W89429  33.908  17.838   7.167 -0.3546  0.1994  0.0274
46517W        W89430   4.735  15.058   6.064 -0.1509  0.0100  0.0667
46518W        W89431   1.469  21.243  19.740 -0.0186 -0.0323 -0.2329
46519W        W89432  26.659  21.019   4.312 -0.1292 -0.1709 -0.3099
46520W        W89433  25.441  17.738   1.343  0.1029  0.0051  0.0514
46521W        W89434  17.772  16.614   6.713 -0.0786 -0.1290  0.1965
46522W        W89435  25.524  25.055  29.149  0.0765 -0.1478  0.1424
46523W        W89436  20.672  13.717   2.995 -0.2954 -0.2732 -0.2499
46524W        W89437  26.923  24.576   6.642 -0.2556  0.1635 -0.2913
46525W        W89438   1.865   9.068   2.063  0.0065 -0.0531  0.0345
46526W        W89439  32.621  20.434   4.681  0.4886 -0.0767 -0.3078
46527W        W89440  28.179  11.057   9.253 -0.0537  0.5221  0.2495
46528W        W89441  13.408  13.873   7.250 -0.0923  0.0504  0.3780
46529W        W89442  21.649  23.186   6.423 -0.0296 -0.1000  0.1280
46530W        W89443   3.268  24.425   3.222 -0.2849 -0.1182  0.1035
46531W        W89444  26.609  17.495   4.801 -0.0038 -0.3504  0.0002
46532W        W89445  29.436  19.226   3.567 -0.2453 -0.1476 -0.0118
46533W        W89446   5.562  25.021   4.185 -0.1691 -0.1253 -0.1254
46534W        W89447  30.686  25.150   8.315 -0.0669  0.1010  0.1781
46535W        W89448  28.899  28.486   7.972 -0.2140  0.3094 -0.3598
46536W        W89449  34.415  24.368   1.105 -0.2763 -0.0891 -0.3611
46537W        W89450  21.009  18.185   4.162 -0.1260  0.0634  0.0366
46538W        W89451  24.654   7.587  28.377 -0.2114  0.2704  0.2760
46539W        W89452  31.718  21.556   4.339 -0.1218 -0.1117 -0.2827
46540W        W89453  21.950  26.043   8.216  0.1686  0.0232  0.1862
46541W        W89454   1.587  20.113   8.519  0.3267  0.2615 -0.2460
46542W        W89455  29.507  11.326   6.274 -0.2080 -0.3047  0.0712
46543W        W89456   9.391  16.275  29.312  0.2508 -0.0340  0.0064
46544W        W89457  28.621  24.540   8.675 -0.1270  0.3068  0.2678
46545W        W89458  17.043  26.259   5.726 -0.1113 -0.1918 -0.0409
46546W        W89459  34.264  23.055   2.098 -0.0738  0.0307 -0.5155
46547W        W89460  32.930  24.577   6.955 -0.0961  0.2043 -0.1141
46548W        W89461  22.097  20.015  26.873 -0.3052  0.2901  0.0810
46549W        W89462  26.324  32.152   5.544  0.4713 -0.2224  0.1713
46550W        W89463  22.450  22.012  25.249  0.1661 -0.2451 -0.0984
46551W        W89464  32.999  30.201   1.954 -0.2426  0.0270 -0.1853
46552W        W89465  31.074  16.027   0.254  0.1538  0.1749 -0.3706
46553W        W89466  20.779  18.444   0.330  0.0622  0.2331  0.2298
46554W        W89467   2.387  24.925  29.554  0.0493 -0.1310 -0.3678
46555W        W89468   2.461  21.998   8.619 -0.1308  0.0856  0.1761
46556W        W89469  28.638  22.981  29.266 -0.4114 -0.0827  0.2036
46557W        W89470  27.883  23.396   8.439 -0.1451 -0.0987 -0.1351
46558W        W89471  10.972  11.215   9.210 -0.2923 -0.1883 -0.1546
46559W        W89472  27.408  13.778   7.802  0.1092  0.1147 -0.0400
46560W        W89473   3.588  19.677   9.345 -0.0035 -0.3118  0.0919
46561W        W89474  30.893  27.947   5.661  0.2259  0.0277  0.0190
46562W        W89475  23.534  27.302  21.768 -0.0234  0.1079 -0.0278
46563W        W89476  16.271  10.391   4.820  0.0575 -0.0328  0.0503
46564W        W89477  28.792   1.368   0.249 -0.1295 -0.1370 -0.1169
46565W        W89478  28.652   8.277   3.540 -0.1387 -0.1273 -0.1741
46566W        W89479  20.833  34.248  29.362  0.1344 -0.2959 -0.0555
46567W        W89480  30.889  24.027  29.706  0.1824  0.1781  0.2342
46568W        W89481  32.335  24.565   7.463 -0.0227  0.0531  0.1952
46569W        W89482  22.806  11.881   4.580 -0.0244 -0.0717  0.1179
46570W        W89483   0.060  27.580  27.171 -0.1095  0.2378  0.0799
46571W        W89484  34.488  10.550   6.171  0.0411 -0.2095  0.2256
46572W        W89485  11.994  21.216   3.992 -0.0907 -0.3938  0.0686
46573W        W89486  19.928  13.231  24.464 -0.1226  0.1479  0.3125
46574W        W89487  30.945  24.053   6.703 -0.2535 -0.1086  0.0770
46575W        W89488   4.490  28.352   1.030  0.0498 -0.1618 -0.0015
46576W        W89489  13.501   9.002   1.571 -0.1285 -0.1399 -0.1483
46577W        W89490   1.877  25.361   2.708 -0.1507 -0.2545 -0.0626
46578W        W89491  11.622  18.659   4.950  0.2659  0.2166 -0.2590
46579W        W89492  23.341   4.784  29.609  0.2136 -0.1453  0.0409
46580W        W89493  22.791  26.812   1.987  0.2269 -0.3032  0.0322
46581W        W89494  25.034  11.772   7.592  0.4298  0.2391 -0.1241
46582W        W89495   0.204  27.272   7.287  0.3721 -0.0156  0.4537
46583W        W89496  16.610  11.585   3.739 -0.0495 -0.1534 -0.2937
46584W        W89497  31.386  17.431   7.582  0.0052 -0.0405 -0.0877
46585W        W89498   2.042  20.241   7.960 -0.2616  0.3326 -0.0416
46586W        W89499  25.179  27.075  29.096 -0.0155 -0.0624 -0.0832
46587W        W89500  27.252  26.917   5.899  0.0176 -0.2094 -0.0368
46588W        W89501  17.217  15.513   0.532 -0.0465 -0.0088 -0.1839
46589W        W89502  22.609  17.165   4.955  0.2015 -0.2406 -0.1195
46590W        W89503   5.453   4.400   0.303 -0.2038 -0.4095 -0.2460
46591W        W89504   5.437  27.198   5.224 -0.0078  0.3140 -0.1240
46592W        W89505  17.134  12.463   3.652  0.1596 -0.0015  0.1380
46593W        W89506   6.178  26.053   2.734 -0.1436  0.0478  0.2285
46594W        W89507  32.033  23.217   6.377 -0.2082 -0.0897 -0.0828
46595W        W89508  34.494   7.718   5.049 -0.1899  0.0288 -0.1284
46596W        W89509  27.190  21.595   8.341  0.0135  0.2002  0.0769
46597W        W89510   0.253  23.561   6.913 -0.0090  0.3584 -0.1839
46598W        W89511   4.844  29.781   7.162  0.1355 -0.0193  0.2782
46599W        W89512  26.848  27.075   5.315 -0.1648 -0.2192  0.2386
46600W        W89513  13.354  19.733   4.935 -0.1225  0.0482  0.0799
46601W        W89514   8.235   6.948  29.581  0.3353 -0.1217 -0.0529
46602W        W89515  32.454  11.687   7.264 -0.0035 -0.0048  0.2214
46603W        W89516   0.601  24.237   8.698 -0.0451 -0.0727  0.3730
46604W        W89517  28.630  18.481   2.544  0.0969  0.0249  0.0163
46605W        W89518  25.969  13.412  29.046 -0.0879 -0.2282 -0.0837
46606W        W89519  25.663  24.426  28.699 -0.0236 -0.1071 -0.2087
46607W        W89520  24.725   5.414   0.938  0.0165 -0.2531  0.2436
46608W        W89521  21.691  18.485   5.817  0.0744  0.3749  0.2477
46609W        W89522  31.650  17.875   4.711 -0.1415 -0.1759  0.1064
46610W        W89523   3.990  21.942   7.298 -0.1588 -0.2941 -0.2319
46611W        W89524  27.282  14.943   2.981  0.0655  0.5122  0.0209
46612W        W89525  29.452  17.179   5.708 -0.1163 -0.0598 -0.1595
46613W        W89526   0.024  18.742   3.366 -0.4212  0.1379  0.2883
46614W        W89527   0.167  23.468  29.220  0.1018  0.0415 -0.1532
46615W        W89528  31.633  10.247  10.577 -0.2752  0.1773  0.3344
46616W        W89529  24.923  19.014   6.771  0.0726  0.0453 -0.0874
46617W        W89530  27.708  14.292   4.157 -0.4472 -0.0115 -0.1214
46618W        W89531  33.755  22.667   6.466  0.3757 -0.1361  0.1113
46619W        W89532   2.052  26.577   6.355  0.2879  0.2114 -0.1835
46620W        W89533  31.109   9.953   9.779 -0.0454 -0.0947  0.1031
46621W        W89534   1.934  21.242   2.361  0.2224  0.2523  0.0625
46622W        W89535  32.674  27.785   2.360 -0.1803  0.1009  0.1157
46623W        W89536   3.597   9.117  27.432  0.2599 -0.0398  0.0686
46624W        W89537  22.411  11.696   2.154  0.0744  0.0115  0.1103
46625W        W89538  27.877  24.926   8.963  0.2079  0.1354  0.0700
46626W        W89539  27.498  25.172   4.557  0.1051  0.1082 -0.0524
46627W        W89540  28.861  14.963   4.577 -0.2726  0.1314  0.0177
46628W        W89541   2.306  20.421   4.751  0.0976  0.2636  0.1158
46629W        W89542  26.859  11.591  10.371  0.3078 -0.0180  0.0022
46630W        W89543  28.136   4.887  10.145  0.2216  0.1609  0.0919
46631W        W89544  30.578  18.024   5.534 -0.0352 -0.1610 -0.1164
46632W        W89545  26.921  22.039   2.388 -0.0810  0.0235 -0.0253
46633W        W89546  28.144  21.838   7.252 -0.1037 -0.0114  0.0950
46634W        W89547   3.264  19.796   7.905 -0.1775  0.1752  0.0556
46635W        W89548  31.812  27.484   9.312 -0.2309  0.2095 -0.0878
46636W        W89549   4.107  24.972   4.449  0.0666  0.0324  0.2021
46637W        W89550  29.796  11.524  10.206  0.2198 -0.3299 -0.0010
46638W        W89551  33.096  21.386   7.778 -0.0982  0.1657 -0.1405
46639W        W89552  28.522  21.302  28.795  0.0419  0.0286  0.2235
46640W        W89553  24.620   0.049   3.306 -0.1209  0.0849 -0.0038
46641W        W89554  24.541  34.149   9.234 -0.1043  0.1838 -0.0216
46642W        W89555   1.003  26.746   8.176 -0.1276 -0.1717  0.0441
46643W        W89556  28.378   3.180  29.777  0.1220  0.0020 -0.1563
46644W        W89557  29.325   9.775   3.730  0.1218 -0.0952 -0.2450
46645W        W89558  27.093  19.851   6.944 -0.0244 -0.2930 -0.0877
46646W        W89559   1.490  22.275   4.206 -0.2341 -0.2328 -0.1512
46647W        W89560   1.213  19.734   0.576 -0.3578  0.0042  0.0982
46648W        W89561  25.681  18.889  23.767  0.0860  0.0162 -0.1683
46649W        W89562   1.461  17.382   6.844 -0.0910 -0.1182 -0.3185
46650W        W89563   7.356  23.866   7.163  0.1311  0.1508 -0.0685
46651W        W89564  29.709  16.762   5.635 -0.1669 -0.3293 -0.0856
46652W        W89565  27.128  23.517   2.740  0.0179  0.2360 -0.0995
46653W        W89566  25.918  23.974   5.196 -0.1551 -0.0998  0.1861
46654W        W89567  25.279  13.906   0.347 -0.3939 -0.1862  0.1109
46655W        W89568   0.754   7.812   3.520  0.0698 -0.0985 -0.1999
46656W        W89569  28.388  14.071   5.404 -0.1184  0.0432 -0.3050
46657W        W89570  31.391  20.607  28.851 -0.1732  0.2902 -0.1268
46658W        W89571   4.269  25.797   9.841  0.2044 -0.0249  0.1212
46659W        W89572  26.971  23.280   3.785 -0.0275 -0.2850 -0.1921
46660W        W89573   3.048  18.592   2.584  0.2473  0.3169 -0.0489
46661W        W89574  29.527  14.978   5.017 -0.0262 -0.1716  0.1160
46662W        W89575  34.110  24.043   9.666 -0.1007  0.3943  0.0887
46663W        W89576   2.160  24.277   0.444  0.0853  0.0198  0.0386
46664W        W89577  28.382   6.682   5.226  0.2745 -0.2805 -0.1623
46665W        W89578   0.473  18.596   4.773 -0.2619  0.0324  0.1506
46666W        W89579   2.990  23.807  28.718  0.2391 -0.0150  0.3234
46667W        W89580   2.733  26.989   0.095  0.1423  0.1003  0.0887
46668W        W89581   2.287  15.530   6.389  0.1545 -0.1800  0.1038
46669W        W89582  30.743  30.436   7.363  0.0532  0.2581  0.2078
46670W        W89583   2.298  21.268   7.498  0.0168  0.0852 -0.0658
46671W        W89584  29.541  21.571   2.587  0.1646  0.0900  0.1354
46672W        W89585  27.600  18.594   5.871 -0.0083  0.1372 -0.3212
46673W        W89586  23.652  17.706   3.924  0.0275  0.1494 -0.0283
46674W        W89587  28.588  23.539  28.434  0.1224  0.2677 -0.0793
46675W        W89588  32.072  24.751   0.343  0.1540 -0.2949 -0.1608
46676W        W89589  29.698  13.079   2.817 -0.1446  0.0002  0.0814
46677W        W89590   0.260  29.333   9.390 -0.0684  0.3218 -0.1426
46678W        W89591  28.786  23.437  27.632 -0.1671  0.2692 -0.0162
46679W        W89592  34.075   7.471  29.484  0.1716 -0.1086 -0.0963
46680W        W89593  28.882  11.853   2.499 -0.1293  0.0089 -0.1240
46681W        W89594  29.381  27.557   7.844 -0.1803  0.1625  0.1343
46682W        W89595   3.521  14.634   9.708 -0.0201 -0.3548 -0.1204
46683W        W89596   5.023  18.146   3.910  0.0115  0.0073  0.0013
46684W        W89597   6.573  22.329   3.933 -0.0728  0.0555  0.0108
46685W        W89598   0.135  24.252   8.180  0.4860 -0.2502 -0.1059
46686W        W89599  33.787   6.999   8.387 -0.2234 -0.1504  0.1859
46687W        W89600  21.904  33.979   4.583  0.1334  0.1189  0.2872
46688W        W89601   0.018  27.439   6.073 -0.1020 -0.0874  0.2491
46689W        W89602  31.072  22.475   8.792  0.1677  0.0415  0.1932
46690W        W89603   3.148  17.491  10.096  0.3920 -0.0289 -0.0035
46691W        W89604  23.215  17.864  29.320 -0.1272  0.1102 -0.1899
46692W        W89605   5.804  17.405   0.895 -0.1994  0.3913  0.0009
46693W        W89606  31.024  25.502   8.620  0.1146  0.1802  0.2020
46694W        W89607  31.596  26.700   7.141  0.0871  0.0326  0.0355
46695W        W89608  30.213  20.779  23.734  0.1869 -0.2465 -0.0359
46696W        W89609  32.469  20.303   5.172  0.3567 -0.0857  0.1755
46697W        W89610  27.492  14.808   5.777  0.2394 -0.2718  0.1934
46698W        W89611  24.484   5.791   3.639 -0.0175  0.2251  0.0238
46699W        W89612  22.823  16.380   1.583  0.0676  0.1349 -0.2091
46700W        W89613   5.830  18.117   5.043  0.0152 -0.0483 -0.0896
46701W        W89614  32.894  10.843   2.773 -0.1237  0.1373  0.1048
46702W        W89615  30.501  16.263   4.932 -0.1878  0.0974  0.3991
46703W        W89616  27.317  19.795   5.268 -0.2187  0.0854 -0.1260
46704W        W89617  27.104  11.863   8.706 -0.2387  0.1358  0.2789
46705W        W89618   3.085  12.773   7.911  0.0094  0.0028 -0.0265
46706W        W89619   6.487   7.963   8.056  0.2112  0.1681 -0.1747
46707W        W89620  22.018  23.321  28.961 -0.1305 -0.0678 -0.2168
46708W        W89621  32.508  16.373   8.642  0.2785 -0.0323  0.1828
46709W        W89622   0.575  31.212   7.173 -0.0318 -0.1471  0.1120
46710W        W89623  22.740   5.744   3.116 -0.0195 -0.0879  0.0146
46711W        W89624   0.777  22.039   7.749  0.2206  0.1980  0.1488
46712W        W89625  15.072  16.804  19.266  0.4187 -0.2127  0.2216
46713W        W89626   2.841  27.105   8.626 -0.2366  0.0286 -0.1846
46714W        W89627   2.059  30.529   2.714 -0.1637 -0.1276 -0.0346
46715W        W89628  11.741  27.782   7.576 -0.1530  0.0236  0.0002
46716W        W89629   2.205  17.237  28.964  0.0463  0.0551 -0.1367
46717W        W89630  23.769  13.738   8.695  0.1784 -0.0858  0.0521
46718W        W89631  30.059  17.407   3.203 -0.0230 -0.0130  0.0377
46719W        W89632  32.514  24.188   8.936  0.1499  0.1136 -0.1943
46720W        W89633  32.731  26.323   8.558 -0.2429 -0.3586 -0.1108
46721W        W89634  28.097  25.818   8.839  0.0391  0.1623  0.0357
46722W        W89635  20.073  19.384  28.147 -0.0253 -0.0984  0.0722
46723W        W89636   1.435  15.668  29.494  0.0275  0.3424 -0.4548
46724W        W89637  17.817  25.457  25.130 -0.3549 -0.2560 -0.1121
46725W        W89638  33.628  19.835   2.151  0.0237 -0.1447 -0.2075
46726W        W89639  30.593  24.961   9.468  0.0581  0.0303  0.1073
46727W        W89640  26.122  11.565   0.336  0.1399 -0.2784  0.2070
46728W        W89641   2.807  17.696   7.289  0.0127  0.0525 -0.0140
46729W        W89642  31.190  19.541   7.523  0.1000  0.0875 -0.0809
46730W        W89643  28.280  22.111   5.499 -0.0003 -0.1879 -0.0115
46731W        W89644  27.329  14.750   8.717  0.1558 -0.1156  0.1364
46732W        W89645  19.769  24.920   7.475  0.0177  0.0650 -0.2269
46733W        W89646   5.376  25.749   4.485  0.0133 -0.0000 -0.0016
46734W        W89647  10.695  24.887  27.648 -0.1909  0.2426 -0.2152
46735W        W89648  32.607  15.106   6.898  0.1654  0.2589  0.0207
46736W        W89649   7.082  15.932   2.999  0.0301 -0.0972  0.1375
46737W        W89650  29.726  18.365   4.707 -0.0192 -0.0282 -0.0710
46738W        W89651  26.821  23.714   6.391 -0.0575 -0.1477  0.1082
46739W        W89652  18.308  20.532   3.275 -0.0210 -0.4783 -0.0364
46740W        W89653   4.555  17.340   4.111  0.0524 -0.1367 -0.1642
46741W        W89654  29.002  15.836   3.998  0.0535  0.1351 -0.0135
46742W        W89655  26.067  11.646  22.289 -0.0156  0.1221 -0.1289
46743W        W89656  24.996  15.441   9.201  0.2708  0.3335 -0.0249
46744W        W89657  30.008  15.999   9.080 -0.0835 -0.1275 -0.0884
46745W        W89658  26.876   3.946   2.247  0.0881  0.1947  0.1686
46746W        W89659  27.320  20.330   4.404 -0.0219  0.0759 -0.3986
46747W        W89660  21.272  12.204   2.451  0.1786 -0.2259 -0.2542
46748W        W89661  26.663  17.208   9.822 -0.2929 -0.0355 -0.2933
46749W        W89662  31.343  15.973  20.777  0.3164  0.0404  0.0783
46750W        W89663  32.372  14.274   9.682  0.1687  0.0318 -0.0220
46751W        W89664   0.670  12.723   8.186 -0.3014  0.1000  0.1192
46752W        W89665  22.881  22.641   5.954 -0.0432  0.2485  0.2473
46753W        W89666  29.173  20.234   4.242 -0.2404 -0.0913 -0.0961
46754W        W89667  34.267  18.627   3.824  0.2005 -0.1018 -0.1942
46755W        W89668  28.208   7.687  26.969 -0.1568 -0.0016 -0.1657
46756W        W89669   0.589  21.947   4.680 -0.0926  0.1838 -0.2390
46757W        W89670   1.836  34.398   7.164  0.1300 -0.0483 -0.1001
46758W        W89671   2.003  15.133   7.228 -0.0065 -0.0828 -0.1471
46759W        W89672   2.862  18.410   2.135  0.0341  0.1311  0.0781
46760W        W89673  11.623   7.182   5.485  0.1056  0.4764 -0.1333
46761W        W89674  20.673  19.882  19.534 -0.1400  0.0350  0.0679
46762W        W89675  33.757  22.478   3.054 -0.2502  0.0219 -0.0172
46763W        W89676  20.672  20.571   4.462 -0.2810 -0.3523  0.0139
46764W        W89677  26.489  14.452   5.442  0.2263  0.0622  0.1199
46765W        W89678   7.470  28.893   7.288 -0.0389 -0.3823  0.2148
46766W        W89679  31.978  17.071   6.950 -0.1087  0.1794 -0.0319
46767W        W89680  16.434  17.955   2.440  0.0964 -0.0542 -0.0544
46768W        W89681  27.737  16.074   1.478  0.0577 -0.1634  0.1542
46769W        W89682  17.203  18.201  23.293 -0.3602  0.1058  0.0106
46770W        W89683   8.603  24.862   3.918 -0.0482  0.0195 -0.1432
46771W        W89684  21.100  17.233   1.711 -0.2201 -0.0558  0.0371
46772W        W89685   8.945  23.323   2.465  0.0375 -0.0311 -0.2695
46773W        W89686  31.549  27.810   6.504  0.0218 -0.1819 -0.3271
46774W        W89687   0.992  12.280  26.889  0.3936  0.1189 -0.2327
46775W        W89688  29.904  18.341   7.235 -0.2736  0.2599 -0.0411
46776W        W89689   2.618   0.179   4.250  0.0544  0.1963  0.1759
46777W        W89690   0.683  28.583  10.022  0.1515 -0.2417 -0.3208
46778W        W89691   5.638  28.231  27.888  0.1112  0.1302  0.0784
46779W        W89692   2.001  19.454   2.317  0.0847 -0.1090 -0.2577
46780W        W89693   3.940  15.521   9.743 -0.0826 -0.1784 -0.1202
46781W        W89694  31.790  11.638   9.709  0.1126 -0.0907  0.2526
46782W        W89695  28.167  24.134   6.697 -0.2244 -0.1882  0.3479
46783W        W89696   3.179  11.136   9.497 -0.2322 -0.0199 -0.0575
46784W        W89697  33.642  24.102   8.396  0.0458  0.0785 -0.3577
46785W        W89698  21.918  32.686   6.025 -0.3123 -0.1957  0.1407
46786W        W89699  30.889  26.889   6.654 -0.1070 -0.1101  0.0769
46787W        W89700  22.581  21.853   8.655  0.1994 -0.0148 -0.1029
46788W        W89701   0.096  19.321  28.040  0.0421  0.3108  0.0041
46789W        W89702  32.050  14.435   3.877 -0.0820 -0.1142  0.0179
46790W        W89703  27.021   8.401   7.299  0.1071 -0.4264  0.1185
46791W        W89704   0.040  21.385   3.793 -0.0207 -0.2515 -0.2627
46792W        W89705  31.452  29.640   5.171 -0.2710 -0.4593  0.1707
46793W        W89706  29.361  11.559   3.502  0.2956  0.0691  0.0403
46794W        W89707   4.817   7.397   9.140 -0.2599 -0.0302  0.0501
46795W        W89708   7.414  21.469   9.550 -0.0161  0.0841 -0.1146
46796W        W89709  19.620  17.921   4.364 -0.1317 -0.0108  0.0405
46797W        W89710  28.757   8.586   5.159  0.3222  0.0392  0.0997
46798W        W89711  34.161  22.635   4.453 -0.1429  0.3613 -0.0420
46799W        W89712  29.873  19.835  26.902  0.4438 -0.2644  0.1383
46800W        W89713  21.918  19.750   2.038 -0.1618  0.1516  0.0275
46801W        W89714  31.501  19.012   5.932  0.0287 -0.1124 -0.0369
46802W        W89715   0.517  26.677   2.640  0.2472  0.0631  0.0414
46803W        W89716   2.534  11.225   3.401  0.0210  0.2981 -0.0107
46804W        W89717  25.086  13.316  29.766  0.0620  0.2171  0.2280
46805W        W89718  30.881  29.966   4.693 -0.0171  0.2015 -0.2526
46806W        W89719  22.017  18.860   5.190  0.1124  0.0809 -0.2462
46807W        W89720  32.166  26.610   7.177  0.3148  0.1871  0.0284
46808W        W89721  30.686  11.756   2.294 -0.0849  0.1313 -0.0479
46809W        W89722  34.123  11.347   5.916  0.0725  0.1401  0.1649
46810W        W89723  30.919  21.074   6.910 -0.3698 -0.3347 -0.1813
46811W        W89724  34.144  21.492   8.272  0.2727 -0.3241  0.0736
46812W        W89725  20.772  26.870   6.365  0.1258  0.1152 -0.1066
46813W        W89726  34.036  23.631   4.846 -0.1452 -0.3162  0.0672
46814W        W89727   6.388  32.524   9.317 -0.0758 -0.0430  0.1265
46815W        W89728   3.928  27.461  26.916  0.2465  0.3898  0.1988
46816W        W89729  25.770  19.265   4.040  0.3669  0.2066 -0.2336
46817W        W89730   2.567  18.889   6.184  0.0565  0.0620 -0.1687
46818W        W89731  33.241  10.914   7.399 -0.0724 -0.2805  0.3468
46819W        W89732  33.923  29.565   5.380 -0.0351  0.0832 -0.1331
46820W        W89733  33.584  18.124   1.754 -0.4123 -0.0400 -0.2283
46821W        W89734  28.699  20.401   2.533  0.2141 -0.1887 -0.0779
46822W        W89735   1.977  15.804   8.778 -0.0829  0.0352  0.2725
46823W        W89736  32.513  22.480   1.307  0.1650 -0.1904 -0.0634
46824W        W89737  20.523  14.899   3.005  0.0015 -0.1717 -0.1476
46825W        W89738  28.555  14.816  27.427 -0.1152 -0.2397  0.0715
46826W        W89739  32.536  17.855   4.771  0.1666 -0.0225  0.1504
46827W        W89740   4.199  17.635   6.608 -0.1885  0.2309  0.1684
46828W        W89741  26.132  17.593   6.466 -0.0004  0.1352 -0.0168
46829W        W89742  24.859   9.398   6.303 -0.2173  0.1459  0.0200
46830W        W89743  25.349   5.072   4.076  0.1552 -0.1923 -0.1219
46831W        W89744  32.591  18.922   2.816 -0.0310  0.1146  0.2238
46832W        W89745  22.094  18.953  23.826  0.0710 -0.1710  0.1155
46833W        W89746  33.206  20.479   9.698  0.3022 -0.1490 -0.1388
46834W        W89747  31.290  16.465   5.139  0.2807  0.1350 -0.0536
46835W        W89748   8.154  34.306   7.625 -0.0601  0.2520 -0.0164
46836W        W89749   0.796  20.308  29.616 -0.3242  0.2782 -0.0789
46837W        W89750   0.697  21.436   5.919 -0.1791 -0.1757 -0.2007
46838W        W89751  32.166  18.840   2.442  0.1252 -0.4944  0.0141
46839W        W89752  28.591  22.783   5.953  0.3867  0.2305  0.2269
46840W        W89753  33.482  23.429   9.234 -0.2204  0.0012 -0.2985
46841W        W89754  32.121  17.334   5.415  0.1257  0.1190 -0.1767
46842W        W89755  26.795  22.341   7.439 -0.2343  0.3159 -0.0857
46843W        W89756  29.317  20.742   0.801 -0.4513 -0.1341 -0.0373
46844W        W89757  31.042  17.922   6.058 -0.3242 -0.0303  0.3702
46845W        W89758  22.145  21.880   8.317  0.0338 -0.0461 -0.3469
46846W        W89759   1.540  15.147   7.757 -0.0598  0.3757 -0.0760
46847W        W89760   1.564  13.035  11.022 -0.0207  0.0073 -0.1890
46848W        W89761  26.968   9.695   9.132 -0.0283  0.0336 -0.1613
46849W        W89762   7.181  20.932   2.713  0.2553  0.1399  0.2225
46850W        W89763  31.640  20.102   1.065  0.0544  0.0397 -0.2805
46851W        W89764   8.843  21.447   7.344  0.3320 -0.0364 -0.1472
46852W        W89765  31.145  15.380   6.423  0.2266 -0.3140 -0.1739
46853W        W89766  30.217  20.017  27.304 -0.0009  0.0095  0.1945
46854W        W89767  25.150  28.121  26.334  0.0801 -0.0290 -0.4896
46855W        W89768  33.878  19.009   9.670 -0.2633  0.1073  0.1158
46856W        W89769  29.770  12.517   9.398  0.4041  0.0536 -0.1075
46857W        W89770   1.435  29.356   2.061 -0.0697 -0.0410  0.3227
46858W        W89771  30.685  28.537   5.627  0.0435 -0.0921  0.0475
46859W        W89772  22.215  17.914   8.325  0.0166  0.0114 -0.1526
46860W        W89773  16.361  11.910   4.181 -0.1663  0.0904  0.1131
46861W        W89774  29.144  26.357  29.381 -0.3522 -0.1825  0.3237
46862W        W89775  30.085  23.292   9.390 -0.0666  0.1029  0.3120
46863W        W89776  25.123  25.315   5.926  0.2975 -0.3793 -0.1159
46864W        W89777  27.918  29.495   2.511  0.2015  0.0315  0.2026
46865W        W89778  27.701  17.932   9.781 -0.1735 -0.3089 -0.0049
46866W        W89779  19.865  23.729  22.527 -0.3081  0.0263 -0.3401
46867W        W89780   1.283  20.810   8.377  0.1220 -0.1481 -0.0516
46868W        W89781  32.634  20.002   3.096  0.0941 -0.0806 -0.1601
46869W        W89782   0.485  18.322   9.026 -0.1722  0.1682 -0.1698
46870W        W89783   2.505  25.439   7.064  0.0526  0.0748  0.1646
46871W        W89784  24.910  21.535   0.254 -0.3107 -0.0183  0.1636
46872W        W89785  29.341  18.700  26.365  0.3072 -0.1341 -0.1913
46873W        W89786   2.504  24.429   7.902  0.0815 -0.1773 -0.0773
46874W        W89787  27.561  32.778   3.807  0.0854 -0.2496 -0.0178
46875W        W89788  27.119  25.507   4.886 -0.1366  0.1446 -0.1615
46876W        W89789  28.883  18.299   7.225  0.0856 -0.0807 -0.1573
46877W        W89790  25.525  15.060   0.829 -0.2789  0.0845 -0.2734
46878W        W89791  30.474  25.799   2.169  0.3273 -0.0983 -0.1012
46879W        W89792   3.801  18.787  24.957  0.2271 -0.1996  0.0811
46880W        W89793   3.264  27.301   5.523 -0.2857  0.0163 -0.1402
46881W        W89794  29.071  19.781  23.303  0.0201  0.0764  0.1208
46882W        W89795  17.840  20.764   6.752 -0.3943 -0.2577 -0.0001
46883W        W89796   4.049  25.060   6.857 -0.0355  0.0194 -0.0321
46884W        W89797  19.194  18.664  27.989 -0.1638 -0.3311  0.1168
46885W        W89798   1.589  28.268   2.672 -0.0946 -0.2729 -0.0529
46886W        W89799  25.466  23.156   4.537  0.4082  0.1612  0.1581
46887W        W89800   2.466  10.715   5.505  0.2743 -0.0829  0.1494
46888W        W89801  34.184   9.162   5.808 -0.0137 -0.1090  0.0108
46889W        W89802  30.985  18.839   9.490  0.2669  0.0420 -0.1856
46890W        W89803  26.679  10.537  28.296 -0.0427 -0.0568  0.0021
46891W        W89804  32.937  15.858   9.388 -0.1215 -0.1239  0.0211
46892W        W89805  20.432  18.531   7.574  0.1568  0.3767 -0.1614
46893W        W89806  19.707  17.075   6.681  0.0657 -0.0682  0.0660
46894W        W89807   0.001  22.248   3.608  0.0855  0.2093  0.0259
46895W        W89808  25.343  18.005   2.675 -0.0087 -0.0740  0.0252
46896W        W89809  30.011   0.264   5.281  0.1273  0.1985  0.1349
46897W        W89810  27.812  18.899   9.476  0.0849 -0.0478 -0.1281
46898W        W89811  24.478  18.848   8.459 -0.2748 -0.0530  0.1943
46899W        W89812  27.049  22.123  26.236  0.1263  0.0726  0.0285
46900W        W89813  26.643  21.661   4.359  0.1670  0.0978 -0.0454
46901W        W89814   1.132  15.134   3.236 -0.1972 -0.1124 -0.0476
46902W        W89815  29.235  25.035   9.028 -0.1377 -0.1513 -0.1946
46903W        W89816   2.780  20.187   8.537 -0.1979 -0.1479  0.1955
46904W        W89817  26.490  13.638   2.952  0.0163  0.0559  0.0970
46905W        W89818   5.041  13.207   5.412 -0.2784  0.0553 -0.0172
46906W        W89819   0.300  17.040  29.686  0.0439 -0.2086 -0.2768
46907W        W89820  28.924  15.759   9.820  0.1452  0.0393 -0.1864
46908W        W89821   0.038  22.789   7.166  0.2022 -0.0039 -0.0243
46909W        W89822  27.810  32.428   4.178  0.1691 -0.2506 -0.2835
46910W        W89823  30.365  18.858   6.602  0.2911  0.4556  0.2541
46911W        W89824  10.292  20.125  28.447  0.1555  0.0532  0.3176
46912W        W89825  32.638  22.648   3.829  0.1600  0.0620  0.1379
46913W        W89826  11.557  27.459   3.860 -0.1028  0.2654  0.1890
46914W        W89827  16.103  23.415  26.928  0.0357 -0.0889 -0.2696
46915W        W89828   4.597  21.751   1.294  0.0379 -0.1227 -0.0481
46916W        W89829  26.878  21.062   5.414 -0.0131  0.0027 -0.1900
46917W        W89830  30.643  29.936   3.709 -0.1166  0.0638 -0.0780
46918W        W89831  27.354  24.547   6.988 -0.1964  0.3908 -0.2184
46919W        W89832  28.059  26.583   8.089 -0.0481 -0.2427  0.2846
46920W        W89833  28.217  19.163   8.895  0.2856  0.0530  0.2416
46921W        W89834  11.025  18.708   2.020 -0.1291  0.5185  0.2445
46922W        W89835  27.999  20.749   4.197 -0.2197  0.1784  0.1286
46923W        W89836  32.907  14.155   8.521  0.0006  0.0553  0.0058
46924W        W89837   5.919  17.281   3.232  0.1078 -0.0107  0.0122
46925W        W89838  10.924  16.749   2.610  0.1425  0.1086 -0.1236
46926W        W89839  25.449  28.239   0.036 -0.0647  0.1519  0.3056
46927W        W89840   0.260  26.909   8.892 -0.2278 -0.1347 -0.1281
46928W        W89841  31.806  22.342   6.144 -0.3717 -0.2118 -0.4083
46929W        W89842  31.392  18.966  26.997  0.0034  0.0525  0.2276
46930W        W89843  27.610  25.312   7.053 -0.1236  0.0057 -0.0399
46931W        W89844   4.020  26.447   8.553 -0.0449  0.0099 -0.2325
46932W        W89845  27.416  24.936  27.709 -0.1158  0.1863 -0.0106
46933W        W89846  27.831  19.385   5.374  0.2024  0.2975 -0.1002
46934W        W89847  27.136  18.705   8.905  0.2204 -0.3200 -0.0441
46935W        W89848  18.553  18.019  22.908  0.1706 -0.2082  0.1774
46936W        W89849   5.358  14.737  29.357 -0.1255 -0.1155  0.1620
46937W        W89850  31.855  18.956   7.469 -0.0053  0.0068 -0.4069
46938W        W89851  20.820  12.767   9.003 -0.2845  0.0198 -0.1433
46939W        W89852  23.638  15.963  26.433  0.0901 -0.1315 -0.0268
46940W        W89853  33.425  19.662   9.138  0.1040 -0.1000 -0.0455
46941W        W89854  20.939  10.300   6.321  0.1249 -0.0733  0.3115
46942W        W89855  28.897  12.117   9.036  0.1999  0.1456  0.3228
46943W        W89856   3.699  18.004   6.988  0.2317  0.3164  0.1037
46944W        W89857  32.620  23.593   4.182 -0.0457 -0.2316 -0.1900
46945W        W89858  25.359  21.617   7.428 -0.2162 -0.0506  0.1252
46946W        W89859  28.331   7.452  29.657  0.0206 -0.0107  0.1375
46947W        W89860   2.710  16.078   3.729  0.2250  0.2525 -0.3518
46948W        W89861  26.684  17.295   7.813 -0.1383 -0.0304 -0.0593
46949W        W89862  29.356  14.660   7.753  0.3835  0.0120  0.4414
46950W        W89863  24.416  19.814   6.202 -0.0282 -0.0861 -0.2126
46951W        W89864  18.310   9.242   7.101  0.2420 -0.5332  0.0291
46952W        W89865  34.311  21.836   9.806  0.0999  0.1524 -0.0138
46953W        W89866   7.260  15.694   1.548 -0.1114  0.1955 -0.1934
46954W        W89867   2.017  21.064   3.650 -0.0158 -0.2254  0.1663
46955W        W89868  30.282  24.584   6.568 -0.6331  0.0052  0.0386
46956W        W89869  34.297  33.005  10.356 -0.0099  0.2377 -0.1199
46957W        W89870  34.450  20.546   6.026 -0.0308  0.2637  0.1045
46958W        W89871   4.058  11.137   7.824 -0.0910  0.1799  0.1586
46959W        W89872   2.312   9.698   6.718 -0.1991  0.2100 -0.0291
46960W        W89873  20.894  26.440  28.878  0.2226 -0.1090 -0.1477
46961W        W89874  26.999  21.881   3.275  0.1144 -0.1005  0.0916
46962W        W89875   4.857  25.545   6.566  0.0680 -0.0549 -0.2206
46963W        W89876  27.313  25.751   5.286 -0.0298 -0.1368 -0.0708
46964W        W89877  27.333   8.775   4.926 -0.2496 -0.2008 -0.2322
46965W        W89878   0.639  31.984  10.320  0.0838 -0.0175 -0.1260
46966W        W89879   5.494  22.319   5.965  0.1126  0.1784  0.1742
46967W        W89880  25.812  13.713   9.452 -0.1196  0.1636  0.0162
46968W        W89881  28.188  19.706   4.613 -0.2039  0.1225 -0.2079
46969W        W89882  30.878  16.722   9.329 -0.2019 -0.0884 -0.0980
46970W        W89883  32.188  32.394   9.473 -0.1833  0.1660  0.3520
46971W        W89884   8.795  10.157   6.721  0.1287  0.0132  0.2698
46972W        W89885  22.570  12.175  27.689  0.1968 -0.0814  0.1359
46973W        W89886  22.685  26.354   3.071  0.5042 -0.0027 -0.1119
46974W        W89887  12.702  14.660  27.955 -0.2496 -0.4084  0.0195
46975W        W89888   7.154  10.799   5.703 -0.0487 -0.3381 -0.2345
46976W        W89889  29.944  16.900   3.102  0.1023  0.4537  0.1849
46977W        W89890  32.372  17.699   7.764  0.2538  0.1542  0.2100
46978W        W89891  30.475   2.707   0.676  0.1093  0.3555  0.0385
46979W        W89892   1.986  25.587   7.061  0.1434  0.0879 -0.0133
46980W        W89893  23.428  27.498  27.953  0.0514 -0.0118  0.2534
46981W        W89894   0.978  31.788   7.512  0.1250  0.1700 -0.4965
46982W        W89895  19.519  17.187   5.576 -0.1796 -0.1880 -0.0335
46983W        W89896  22.574  18.275   6.955 -0.3295 -0.0451  0.2771
46984W        W89897   3.751   8.075   1.185  0.3703 -0.0711  0.1616
46985W        W89898  15.139  22.810  28.753  0.0177 -0.0701  0.2839
46986W        W89899  32.485  17.308   8.204  0.0847 -0.2104 -0.1554
46987W        W89900  23.412  31.488   0.892 -0.2712 -0.0970  0.2672
46988W        W89901   2.400   2.463   1.331  0.0762  0.4104 -0.0676
46989W        W89902   1.641  17.253   2.565 -0.0551  0.2595  0.3795
46990W        W89903   4.612  23.741   4.061 -0.3301  0.0088 -0.0540
46991W        W89904  32.092  24.673   6.450  0.0006  0.3694  0.0303
46992W        W89905  30.356  26.382   7.710 -0.1429 -0.2116 -0.1543
46993W        W89906  30.706  10.624  26.655  0.0649  0.1451  0.1293
46994W        W89907  30.014  25.101   8.940 -0.0480 -0.1439 -0.2146
46995W        W89908  34.353  32.633  26.063  0.7886 -0.1139  0.3728
46996W        W89909  21.455  23.138  26.659  0.1219 -0.1579  0.0295
46997W        W89910  18.523  16.090   6.214  0.3132 -0.0663 -0.1008
46998W        W89911   6.006  23.642   5.055  0.0220 -0.1315 -0.1781
46999W        W89912   3.709  24.896   6.558  0.1925  0.3132  0.4793
47000W        W89913  33.519  24.459   1.515 -0.2727 -0.0836 -0.1593
47001W        W89914   6.485  21.800   9.547 -0.2567  0.3304 -0.3528
47002W        W89915  27.885  32.256   3.025  0.0880  0.0415 -0.1589
47003W        W89916  18.119  21.867  21.402  0.0665  0.3490 -0.3881
47004W        W89917  25.926  20.119   0.800  0.1577  0.2401 -0.3568
47005W        W89918   4.212  17.802   0.607  0.3058  0.2221  0.0347
47006W        W89919  32.052  25.527   7.268 -0.2488 -0.0450  0.0682
47007W        W89920  19.883  19.102   2.958  0.1820 -0.0016  0.1159
47008W        W89921  24.623   2.165  24.837 -0.0998 -0.0950 -0.0668
47009W        W89922   0.279  24.951   6.798 -0.2410  0.1439  0.0810
47010W        W89923  32.544  19.715  24.585  0.2031  0.0874  0.2744
47011W        W89924  29.432  26.273   6.763  0.1395  0.1944  0.1545
47012W        W89925  24.437  24.375   4.065  0.1827 -0.1482  0.1592
47013W        W89926   1.683  11.382   4.760 -0.0384  0.0490  0.2718
47014W        W89927  28.663  15.974   3.118 -0.0136 -0.0952 -0.1743
47015W        W89928  27.359   2.658   8.205  0.2342  0.1282  0.0444
47016W        W89929  23.650  16.691  16.402 -0.5011  0.2679  0.2039
47017W        W89930  25.150   4.095   1.997 -0.1577 -0.1115 -0.1129
47018W        W89931  10.595  23.977   7.487  0.2124  0.1481 -0.1235
47019W        W89932  28.752  16.759  27.796 -0.0693  0.4540 -0.0298
47020W        W89933  20.639  25.876   2.883 -0.1626 -0.0582  0.2410
47021W        W89934  32.483   7.423   2.484  0.1541  0.0800 -0.2818
47022W        W89935   5.712  21.123  20.753 -0.2583  0.4660  0.0128
47023W        W89936  23.787  17.792   6.367 -0.2379  0.0926 -0.1223
47024W        W89937  21.666  21.312  27.573 -0.0638 -0.3636 -0.2397
47025W        W89938  22.871  18.614  28.748 -0.1758 -0.3155 -0.1465
47026W        W89939  24.916  28.023   3.941  0.1839  0.0422 -0.1426
47027W        W89940   5.297  23.803  25.758  0.4403  0.0243  0.2759
47028W        W89941  31.732  23.059   1.523 -0.0531  0.0656  0.1608
47029W        W89942  28.506  15.742  26.505 -0.3980  0.0540 -0.3814
47030W        W89943  20.480  26.830  29.761 -0.3515 -0.3351 -0.2154
47031W        W89944   7.562  21.848   1.002 -0.0724 -0.4493  0.0546
47032W        W89945   2.968  19.054  22.971 -0.2784  0.1221  0.2332
47033W        W89946  29.420  19.975   2.367 -0.0884 -0.1432 -0.1244
47034W        W89947  27.355  25.523   6.665 -0.0144  0.1634 -0.1996
47035W        W89948  30.249  18.475  28.132  0.1793 -0.2940 -0.0097
47036W        W89949  32.040  19.431  27.653  0.2029 -0.0026 -0.2250
47037W        W89950   7.690  24.042  21.778 -0.1550  0.2341 -0.1732
47038W        W89951  30.945  34.392   6.891  0.3245  0.0794  0.1294
47039W        W89952   5.983  27.965   9.026  0.4329  0.1265  0.4219
47040W        W89953  26.712  27.600   0.617  0.2340  0.1890  0.0701
47041W        W89954  28.114  18.541  25.255 -0.2966 -0.1368  0.1194
47042W        W89955  21.560  15.093  21.824 -0.2884  0.0354 -0.0555
47043W        W89956  31.927   8.423   6.504 -0.3743 -0.1694 -0.0305
47044W        W89957  26.010  30.022  21.176  0.0197 -0.3497 -0.0156
47045W        W89958  27.884  28.475   2.106 -0.0760 -0.0304 -0.1512
47046W        W89959  24.549   1.248   2.684 -0.4191 -0.4514  0.2603
47047W        W89960  10.330  12.486   6.801 -0.0747 -0.1677 -0.0755
47048W        W89961  27.048  22.490   5.285  0.3448  0.1717 -0.0520
47049W        W89962  32.455  13.097   5.985  0.2033 -0.1606 -0.0029
47050W        W89963  30.864   0.821   7.312 -0.0089 -0.2008  0.1160
47051W        W89964  33.101  23.473   9.948 -0.1711  0.0013  0.2621
47052W        W89965   8.252  20.814   0.963 -0.1225  0.3338  0.4885
47053W        W89966  18.908  24.319  24.832 -0.0307  0.2568 -0.1693
47054W        W89967   6.114   4.695   1.509  0.2533 -0.3423  0.2420
47055W        W89968   1.729  18.862  23.943 -0.1990 -0.2628  0.0470
47056W        W89969  30.665  20.104  21.699  0.0165 -0.0573  0.1293
47057W        W89970  27.568  20.241   5.227 -0.0314  0.0670  0.3735
47058W        W89971  30.973  24.901   6.675  0.0047 -0.0729 -0.1135
47059W        W89972  29.656  22.966  27.211  0.0538  0.0187 -0.0915
47060W        W89973  22.486  31.956  26.001 -0.3654  0.1161 -0.0715
47061W        W89974   0.935  27.312  20.758  0.2715  0.1323 -0.0165
47062W        W89975  32.676  27.883  20.909  0.0958  0.2162  0.3226
47063W        W89976   2.810  25.594   8.125 -0.0312 -0.2138 -0.1777
47064W        W89977   2.470  13.971   4.741 -0.0942 -0.1593  0.1169
47065W        W89978  33.962  30.841   1.298 -0.0680 -0.1489 -0.1271
47066W        W89979  15.905  21.035  29.190  0.2816  0.1657 -0.1597
47067W        W89980  30.976  20.346   0.246 -0.1036 -0.0574 -0.3252
47068W        W89981  29.921  26.970   0.877  0.0666  0.1961  0.1257
47069W        W89982  28.573  30.448   1.288 -0.1968  0.0915  0.1544
47070W        W89983  10.141  28.721  15.670 -0.1569 -0.0040 -0.0656
47071W        W89984  32.468  32.045   6.116  0.0902 -0.2257  0.2056
47072W        W89985  22.951  22.294   6.316  0.0536  0.1937 -0.3079
47073W        W89986  27.887  23.084   2.826  0.0695 -0.1070  0.3370
47074W        W89987  33.396   7.568   9.054 -0.1224  0.0601  0.0108
47075W        W89988   1.991  21.067   5.941 -0.0297 -0.3452 -0.1131
47076W        W89989  34.135  16.807   6.294 -0.0606 -0.0012  0.4966
47077W        W89990  23.995  22.933  15.481  0.0580 -0.1266 -0.0436
47078W        W89991  25.462  20.313   0.735  0.0856  0.0296 -0.0377
47079W        W89992  22.612  15.543   0.664  0.1338 -0.3006 -0.1210
47080W        W89993  27.971  22.790   0.845 -0.0795 -0.3949 -0.3111
47081W        W89994  19.627  30.749   4.834 -0.1967  0.2330 -0.3919
47082W        W89995   1.662  26.140   0.535 -0.2375 -0.1536 -0.2896
47083W        W89996  25.913  25.065   1.852  0.0745 -0.1031  0.2245
47084W        W89997  31.944  27.074  24.667 -0.4657  0.3414 -0.2878
47085W        W89998  15.753  25.601   3.104  0.0008 -0.0675 -0.2488
47086W        W89999  27.739  18.898   3.959  0.0211  0.1422 -0.0179
47087W        W90000   1.671   0.274  20.891 -0.1347 -0.1914 -0.0710
47088W        W90001  28.961  14.999   8.414 -0.1696  0.0222  0.3732
47089W        W90002  26.258  30.434  16.872  0.1760  0.0261  0.1697
47090W        W90003   4.373  26.158  28.687 -0.0478  0.2663 -0.2695
47091W        W90004  32.325  20.716   6.318  0.0630  0.3647  0.0668
47092W        W90005   2.304  27.342  24.945  0.2379  0.2395  0.0882
47093W        W90006  31.750  22.499   9.774  0.0191 -0.3987  0.2512
47094W        W90007  30.328  24.855   7.959 -0.0417 -0.1078  0.2088
47095W        W90008   0.461  28.464   0.310  0.0972  0.1827  0.2228
47096W        W90009   2.177  21.066  21.638 -0.0775  0.2144 -0.1705
47097W        W90010  15.325  26.643   5.268 -0.0191 -0.0129  0.4221
47098W        W90011  24.412  10.818  29.403  0.0704  0.0993  0.1279
47099W        W90012  27.015   0.835   6.601  0.1514 -0.4372  0.0208
47100W        W90013  24.399  29.968   0.437  0.2068 -0.3180 -0.0079
47101W        W90014  30.138  19.597   6.015 -0.4016 -0.0871 -0.1177
47102W        W90015  23.503  31.137  27.528 -0.0751  0.0028 -0.0889
47103W        W90016  30.531  20.620   2.831 -0.0935 -0.1999 -0.3264
47104W        W90017   1.126  23.642   6.363  0.3024 -0.1694 -0.1416
47105W        W90018  17.005  32.044  27.941 -0.0371  0.0601 -0.0434
47106W        W90019   0.018  17.615  28.551 -0.2606  0.2128  0.0176
47107W        W90020  31.681  17.891   6.737 -0.1661 -0.0798 -0.1472
47108W        W90021   2.966  17.607   4.651 -0.2461 -0.0309 -0.3191
47109W        W90022  28.355  20.179  16.119 -0.0972  0.0062  0.0492
47110W        W90023   1.585  28.258   0.813 -0.3775 -0.0960 -0.1287
47111W        W90024   1.353  17.693  22.596 -0.0519 -0.0492 -0.0557
47112W        W90025  29.540  33.748   7.917 -0.1688 -0.0415 -0.0155
47113W        W90026  34.271  18.086   8.890 -0.1728 -0.2985  0.0571
47114W        W90027   3.993  32.656   2.633  0.2323 -0.0989  0.1288
47115W        W90028  20.013  23.864  24.202  0.1196  0.3077  0.0919
47116W        W90029   3.857  29.573  26.560  0.3259 -0.1257  0.0741
47117W        W90030  30.108  34.056  25.612 -0.2528  0.0194 -0.0159
47118W        W90031  27.801  27.846  27.774 -0.1966 -0.1438 -0.2329
47119W        W90032   3.738  24.390   2.316  0.3311 -0.1834 -0.0049
47120W        W90033   1.265  20.614   2.512  0.2552 -0.1635  0.0582
47121W        W90034  25.256  26.761  23.675 -0.1636  0.3014  0.2909
47122W        W90035  30.305  25.358   4.477 -0.3382  0.1885 -0.1688
47123W        W90036  28.392  26.928   8.433 -0.0265 -0.1746  0.1495
47124W        W90037  33.905  25.769   8.352  0.0774  0.1035 -0.1014
47125W        W90038  26.777  28.376  27.495  0.3349 -0.0386  0.0579
47126W        W90039  29.224  23.641  26.412  0.2817  0.0141 -0.3791
47127W        W90040   7.029  14.963   6.191  0.0099  0.0124 -0.0776
47128W        W90041  32.336  25.379  21.848 -0.0907  0.0158  0.1848
47129W        W90042  33.953  15.504   3.161  0.0592 -0.0325  0.0950
47130W        W90043  27.551  24.121  25.606  0.0226 -0.3350  0.2634
47131W        W90044  23.042   6.910  21.062  0.1043  0.1840 -0.1770
47132W        W90045   4.207  19.888  26.137  0.0141  0.1118 -0.0696
47133W        W90046  29.034   0.306   7.999  0.2151 -0.0637 -0.0132
47134W        W90047   1.863  11.833   5.994  0.0461 -0.1481  0.2554
47135W        W90048   2.426  23.363   0.981  0.1976 -0.5423 -0.2491
47136W        W90049  33.155  24.159  23.452 -0.0041  0.4009 -0.0223
47137W        W90050  31.208  28.287   6.403 -0.1113 -0.0233 -0.2128
47138W        W90051   3.844  23.751   8.850  0.2793 -0.1736 -0.0084
47139W        W90052  24.281  26.498   0.474 -0.1657  0.0022  0.0414
47140W        W90053  25.848  19.266   6.908 -0.1260 -0.0047  0.1088
47141W        W90054  10.353  23.157   1.035  0.0437  0.0679  0.0359
47142W        W90055  23.752  22.072   3.223 -0.1637 -0.1841 -0.1444
47143W        W90056   1.937  15.532  27.369  0.2205  0.0084  0.0358
47144W        W90057  26.006  20.643   6.468  0.0372  0.1001 -0.0377
47145W        W90058  24.915  17.868   5.551 -0.1597 -0.0472  0.1244
47146W        W90059  34.242  23.116  15.561  0.2465  0.1398 -0.0906
47147W        W90060  19.407  32.362  21.750 -0.3406 -0.0319  0.1548
47148W        W90061  15.078  22.423  25.818  0.1470 -0.0280 -0.0828
47149W        W90062  25.316  18.541   1.954  0.3038 -0.0606 -0.0264
47150W        W90063  27.543   0.835  10.371  0.0978 -0.1902 -0.0869
47151W        W90064  24.483  22.321   0.003 -0.1559 -0.2955  0.0848
47152W        W90065  19.944  11.316  27.694  0.0973 -0.0265 -0.0448
47153W        W90066   3.998  20.068  27.558 -0.0763  0.0025  0.0920
47154W        W90067  20.116  11.294   0.383 -0.0012 -0.1317  0.0582
47155W        W90068  25.249  19.335  28.892 -0.0707  0.3231  0.0915
47156W        W90069  27.792  24.041   9.054  0.0129  0.0632 -0.1963
47157W        W90070  27.053  33.242  26.864 -0.1982  0.1404 -0.3624
47158W        W90071  25.415  31.731   4.326 -0.1031 -0.2056  0.0358
47159W        W90072  24.964   8.461   4.214 -0.1606  0.1387  0.1960
47160W        W90073  27.632  32.419   4.841  0.0423 -0.0225 -0.0902
47161W        W90074   6.239  26.680   0.925 -0.1349 -0.3666 -0.1622
47162W        W90075   0.349  28.488  21.833  0.0930  0.0867  0.0247
47163W        W90076  29.873  21.844   3.635  0.2445  0.1377 -0.0074
47164W        W90077  33.104  27.594  25.217 -0.0105 -0.0939  0.2902
47165W        W90078  22.450   0.000  27.723  0.2439 -0.2492 -0.1457
47166W        W90079  34.464  14.440  28.186  0.0466  0.0368  0.2661
47167W        W90080  30.926  27.369  26.854  0.2905  0.0201  0.0808
47168W        W90081  32.537  18.213   3.600  0.2792 -0.0374 -0.4774
47169W        W90082  28.225  25.329   0.378 -0.0412 -0.1640 -0.1002
47170W        W90083  33.574  28.152   4.507 -0.5170 -0.2171  0.3121
47171W        W90084  28.287  11.695  26.364 -0.0368  0.0823 -0.3673
47172W        W90085  32.108  30.045   1.280 -0.1806 -0.0538 -0.0175
47173W        W90086   0.946  21.517   4.779  0.0730 -0.5082  0.4700
47174W        W90087   0.795  33.060   7.029  0.3833 -0.1893 -0.0985
47175W        W90088  28.673  28.046   1.123 -0.0068  0.0407  0.1565
47176W        W90089   1.319  25.085   0.545 -0.0595 -0.2605 -0.2464
47177W        W90090  24.891   4.769   0.768  0.1807  0.0379 -0.0882
47178W        W90091  32.718  20.444   1.836 -0.2181 -0.2146  0.1732
47179W        W90092  20.693  25.563   5.299  0.0454 -0.0681  0.0661
47180W        W90093  32.458  19.016   0.988  0.2513  0.2565  0.2070
47181W        W90094   4.278  24.325  20.339 -0.0090 -0.3802 -0.0743
47182W        W90095  29.724  24.565   2.740  0.0092 -0.1725 -0.5820
47183W        W90096  32.542  14.057   8.851  0.1330  0.4096 -0.0897
47184W        W90097  32.466   0.767   0.587  0.1141 -0.1200 -0.2025
47185W        W90098  27.826  25.545   4.026 -0.3150  0.2441 -0.0137
47186W        W90099  12.585  14.362  22.834 -0.1452  0.1305  0.3228
47187W        W90100   7.770  27.622  25.780 -0.1011  0.0032 -0.1169
47188W        W90101   1.313  19.933  23.063  0.3698  0.0675 -0.1456
47189W        W90102   1.907  24.418   7.795  0.1230  0.4248  0.0885
47190W        W90103   4.963  33.243   6.220  0.1648 -0.1744 -0.1123
47191W        W90104  22.391  16.808   2.009  0.0886 -0.0523  0.0057
47192W        W90105   3.884  27.482  25.874  0.1058 -0.0688  0.0610
47193W        W90106   9.288  33.197  25.062 -0.0928  0.0313 -0.0903
47194W        W90107  31.308   0.070  26.951 -0.0524  0.0979  0.2886
47195W        W90108  28.273  17.349  25.570  0.1128 -0.0480  0.4394
47196W        W90109   0.984  32.266   0.450 -0.2273 -0.1778  0.0866
47197W        W90110   2.647  19.797   4.169  0.1066 -0.2458 -0.0368
47198W        W90111  24.088  20.548  16.319  0.1298 -0.0761  0.0213
47199W        W90112   1.082  24.690   2.116  0.0945 -0.0308 -0.2058
47200W        W90113  23.181  29.510   4.566  0.2467  0.2244  0.0824
47201W        W90114  20.684   0.292   6.888  0.0272  0.2060 -0.1945
47202W        W90115   1.580  29.811   8.549 -0.2962 -0.2765  0.0706
47203W        W90116   2.734  18.933   2.340  0.0473 -0.0057  0.0517
47204W        W90117  26.000  25.630   8.996  0.0384 -0.0222  0.0080
47205W        W90118  22.796  19.268  22.334 -0.2485  0.0885 -0.1981
47206W        W90119   2.498  27.115   2.306 -0.1358  0.0761 -0.0822
47207W        W90120  21.942  20.700   1.738  0.0863 -0.1247 -0.0443
47208W        W90121  26.289  21.172   8.309  0.1422 -0.2972 -0.2817
47209W        W90122   5.958  27.613   0.172 -0.3408  0.1412  0.1405
47210W        W90123  33.685  20.025   5.784 -0.0061  0.1763 -0.0316
47211W        W90124  26.657  25.817   5.740  0.2656  0.3074 -0.0525
47212W        W90125  30.474  31.427   4.268 -0.2256 -0.3506  0.1287
47213W        W90126  29.688  30.598   6.659 -0.0763 -0.2674  0.1891
47214W        W90127  18.515  26.557   1.316 -0.2741 -0.2140 -0.2671
47215W        W90128  28.660  18.921  27.200  0.1159 -0.0392 -0.1680
47216W        W90129  30.690  19.810  25.555 -0.0919 -0.2322 -0.0118
47217W        W90130  29.314  25.157   7.815  0.0507  0.0091 -0.0725
47218W        W90131  26.208  27.364  29.378 -0.0842  0.0272 -0.0599
47219W        W90132  24.662  14.722  23.957  0.1214  0.3630 -0.2478
47220W        W90133  27.148   0.574   5.993  0.0738 -0.4107  0.0730
47221W        W90134  33.021  22.044  25.118  0.3224 -0.0700  0.2517
47222W        W90135  28.242  30.825   2.052  0.1540 -0.1647  0.0652
47223W        W90136  19.350  15.985   0.095  0.1090  0.1766 -0.2451
47224W        W90137   3.185  23.717   4.042  0.1775 -0.2051 -0.0893
47225W        W90138  32.779  19.357   6.662 -0.1041 -0.0515  0.1778
47226W        W90139  26.053  32.592   3.641  0.0025 -0.1348 -0.0883
47227W        W90140  29.696  19.045   2.833 -0.1948 -0.1653  0.0496
47228W        W90141  23.571  19.533   7.839 -0.0398  0.1048 -0.3248
47229W        W90142  29.757  21.458  27.551 -0.0598  0.1385  0.5681
47230W        W90143   0.870  16.867   6.032 -0.3340 -0.0101 -0.0634
47231W        W90144   0.029  28.081  21.941 -0.3222  0.1631 -0.0631
47232W        W90145  28.490  19.955   1.833 -0.2546 -0.3855  0.0902
47233W        W90146   0.582  17.875   4.935  0.1021  0.2866 -0.0416
47234W        W90147   5.501  13.461   5.379 -0.2128 -0.4318  0.1485
47235W        W90148  30.227  16.831  24.335  0.0683 -0.1229 -0.1906
47236W        W90149  27.443  17.496   1.984 -0.1351  0.1887 -0.1427
47237W        W90150  22.957  17.543   1.535  0.0338  0.1937 -0.0481
47238W        W90151   7.400  21.338  20.696  0.4396 -0.1577 -0.1253
47239W        W90152  22.273  19.727  28.563 -0.0192  0.1439  0.1647
47240W        W90153  20.537  25.472  27.107  0.5322 -0.3017  0.0088
47241W        W90154   0.459  26.324  23.851  0.0471  0.0103 -0.0989
47242W        W90155  33.878  21.094   2.668  0.1128  0.0578  0.0281
47243W        W90156   0.500  27.312   3.937  0.1058 -0.2836  0.0339
47244W        W90157  29.416  23.114  29.728 -0.1747  0.1925 -0.0015
47245W        W90158  33.080  33.145   3.520  0.0600 -0.2324  0.0471
47246W        W90159  30.297  27.492   1.847  0.0576 -0.1546 -0.2423
47247W        W90160  23.280  31.915   2.119 -0.1865  0.1327 -0.2981
47248W        W90161  25.916  31.764  27.932  0.0417  0.1031 -0.1013
47249W        W90162  26.571  29.477  25.331 -0.0161 -0.0334 -0.4924
47250W        W90163  26.099  30.328   7.127 -0.3458  0.3160  0.2104
47251W        W90164   5.098  24.450   3.424 -0.2121 -0.1182 -0.2574
47252W        W90165  29.987  32.015   1.355 -0.0493 -0.0718  0.2222
47253W        W90166  31.660  26.622   9.225  0.4876  0.2326 -0.4862
47254W        W90167  31.110  28.875   6.661  0.1568  0.1384  0.2124
47255W        W90168  29.608  23.003   0.739  0.0359 -0.0970  0.1529
47256W        W90169  31.574  28.904  22.863  0.1254 -0.2286 -0.0924
47257W        W90170  28.481  29.734  24.556 -0.1753 -0.1549 -0.0674
47258W        W90171   2.531  26.610  28.393 -0.0983  0.1871 -0.0232
47259W        W90172  33.695  33.636  27.626  0.1082 -0.0326 -0.0314
47260W        W90173  29.247  23.558  22.520 -0.0807 -0.0483  0.2003
47261W        W90174  34.434  18.745   4.803 -0.1514 -0.1283  0.3374
47262W        W90175  33.964  24.993   4.301  0.0906  0.0059  0.0964
47263W        W90176  29.831  17.146   0.109  0.0921 -0.1088 -0.1554
47264W        W90177  33.746  33.861  26.575  0.0242  0.4445  0.0361
47265W        W90178  27.612  15.602   5.164 -0.3722  0.2642  0.1005
47266W        W90179  33.121  20.369   5.140 -0.1023 -0.0088 -0.1925
47267W        W90180  22.713  29.483  28.327 -0.3847 -0.0518  0.0179
47268W        W90181   4.014  24.563   8.550 -0.1769  0.1542 -0.1454
47269W        W90182  22.050  23.228   1.816 -0.1494  0.1808 -0.0590
47270W        W90183  24.522  21.792   5.444  0.2750  0.2838  0.1244
47271W        W90184  29.902  30.136  27.480 -0.2344  0.3842 -0.1046
47272W        W90185  26.536  29.203   5.644  0.1160 -0.0705  0.0839
47273W        W90186   1.773  26.589  24.227 -0.1186 -0.0076  0.0454
47274W        W90187  23.654  11.235  26.921  0.1860  0.0949  0.0107
47275W        W90188  23.163  25.221   0.305  0.0289  0.0645 -0.0880
47276W        W90189  29.159  29.987  22.887  0.1589 -0.1459 -0.0617
47277W        W90190  29.716  20.440  24.014 -0.2744 -0.0083  0.0376
47278W        W90191  23.482  19.517  25.292 -0.0518  0.1442  0.1754
47279W        W90192  28.557  21.080   6.757  0.0671  0.1419 -0.2490
47280W        W90193  33.175  29.232   6.443 -0.0599 -0.4990 -0.1029
47281W        W90194  28.578  30.019   3.479  0.1631  0.2105 -0.4068
47282W        W90195   3.030  22.363   1.220 -0.3379  0.0560  0.2422
47283W        W90196  26.734   1.424   8.038  0.0494  0.2860  0.1491
47284W        W90197   8.447  29.007   3.907  0.0823 -0.0985 -0.0572
47285W        W90198   3.353  21.622  28.558  0.1137  0.1651  0.0690
47286W        W90199   0.328  21.412   7.437  0.1726  0.1548  0.1424
47287W        W90200  17.757   8.621   7.138  0.0107  0.0945 -0.0908
47288W        W90201   3.566  14.313   2.681  0.1312  0.4499 -0.0118
47289W        W90202   6.240  13.252  26.712 -0.0550  0.1041  0.0905
47290W        W90203   8.808  24.597   6.578  0.1812  0.1156 -0.2738
47291W        W90204  10.903  20.575   3.694 -0.0800 -0.2470 -0.3344
47292W        W90205  24.685  22.897   6.719 -0.2051 -0.0178 -0.2726
47293W        W90206  29.629  17.463   3.525  0.1980 -0.4532 -0.0400
47294W        W90207  27.038  28.609   2.424 -0.0718  0.2803 -0.1851
47295W        W90208   8.720  32.440   0.639 -0.1072 -0.0697 -0.1237
47296W        W90209  23.491  33.475  29.167  0.0894 -0.1760  0.0093
47297W        W90210   3.924  16.154   3.222  0.0490 -0.4261 -0.3285
47298W        W90211   4.054  20.215  26.750 -0.1196 -0.1537  0.0278
47299W        W90212  32.514  27.874  19.724  0.1108 -0.1999  0.4841
47300W        W90213  24.984  25.739   7.718  0.3241 -0.1800 -0.2752
47301W        W90214  19.662  23.622  28.376  0.2384  0.1145 -0.0053
47302W        W90215  18.804  24.233  20.884 -0.0624 -0.1066  0.0081
47303W        W90216  24.773  31.939   1.206  0.4125 -0.3966 -0.1966
47304W        W90217   2.027  22.112   1.467  0.0530 -0.2111 -0.1350
47305W        W90218  32.135  24.661   1.835 -0.1529 -0.1174  0.0513
47306W        W90219  21.099  13.708   0.531 -0.1822  0.1267  0.0348
47307W        W90220  27.108  26.830  22.735  0.0193  0.0861  0.0405
47308W        W90221   0.060  27.944   1.066 -0.1232  0.0003  0.5449
47309W        W90222  26.984  24.203   8.852 -0.0404 -0.3432  0.1346
47310W        W90223  34.124  28.947   2.004  0.2080 -0.4180 -0.1510
47311W        W90224  28.220  20.621   3.086 -0.2729 -0.0819 -0.0331
47312W        W90225  31.096  27.193   4.424  0.1671 -0.0625  0.2136
47313W        W90226  30.156  27.289  24.068  0.0727  0.0988 -0.0188
47314W        W90227  29.902  27.532  22.775  0.0082 -0.1988 -0.1583
47315W        W90228  21.805  33.064   5.656  0.0150  0.2841 -0.1919
47316W        W90229  34.256  32.502  20.116  0.0253  0.1965 -0.0137
47317W        W90230   4.653  29.575   2.967  0.1304 -0.0650 -0.1006
47318W        W90231   4.822  17.541   6.270  0.1540 -0.3110 -0.0624
47319W        W90232  26.449  20.588   4.121  0.0241 -0.0318 -0.3385
47320W        W90233   3.164  32.441   6.467 -0.0276  0.2562 -0.0975
47321W        W90234  28.074  26.554   3.947  0.0571 -0.0909 -0.0185
47322W        W90235  30.616  27.768  21.647  0.0125 -0.1572 -0.0103
47323W        W90236  25.836  26.931   6.274  0.0080  0.0899 -0.2908
47324W        W90237  33.611  23.883   4.897  0.1606  0.4349 -0.0901
47325W        W90238   1.222  25.333  21.459 -0.0467 -0.0661 -0.1681
47326W        W90239  31.953  32.951   6.347  0.2192  0.4698 -0.0522
47327W        W90240   1.486  29.709   4.024 -0.1657  0.1395  0.1258
47328W        W90241   6.471   8.898  12.674 -0.2255 -0.0242 -0.0738
47329W        W90242   7.374  32.367   4.870  0.0780 -0.1793 -0.1700
47330W        W90243  29.605  25.182   8.604  0.0815 -0.0633  0.3544
47331W        W90244  31.256  22.649   2.344  0.1820  0.0559  0.2958
47332W        W90245   0.282  32.836   7.305 -0.0031 -0.0925  0.0795
47333W        W90246  27.344  21.511   1.186  0.1179  0.3361 -0.1019
47334W        W90247  28.892  21.351   5.235  0.3937  0.0026 -0.0439
47335W        W90248  29.480  29.699   2.396  0.0642 -0.0708 -0.4106
47336W        W90249   3.360   5.752   3.252  0.1128  0.1433  0.0785
47337W        W90250  22.877  18.907   4.962  0.2097 -0.3463 -0.1872
47338W        W90251   0.719  29.745  22.971  0.1106  0.0138  0.2131
47339W        W90252  24.861  23.748   0.550  0.3465 -0.2165 -0.1706
47340W        W90253  29.545  15.907   9.200 -0.0647 -0.0432  0.1946
47341W        W90254   6.413  10.923   9.845  0.1322  0.3444  0.1573
47342W        W90255  25.883  25.254  26.309  0.0121 -0.1385 -0.0451
47343W        W90256   3.950  20.673  15.529 -0.1268 -0.1929 -0.0249
47344W        W90257  28.059   8.013   7.799  0.2152  0.1779  0.0506
47345W        W90258  28.837   4.830   4.363 -0.1537 -0.1338  0.0216
47346W        W90259  33.391  15.843   7.734 -0.4576 -0.1797  0.3588
47347W        W90260  24.431  21.730   2.709  0.0139  0.0082  0.3300
47348W        W90261  21.956  21.937  26.364 -0.5576  0.0088 -0.0710
47349W        W90262  25.619  23.042   6.854  0.0010 -0.0539  0.0072
47350W        W90263  29.467  32.326   3.656 -0.1821  0.2335 -0.2551
47351W        W90264  31.567  19.382   2.883 -0.0099  0.0146  0.1080
47352W        W90265  12.688  24.703  23.649  0.0647  0.1084 -0.1329
47353W        W90266  27.620  16.566  24.276  0.0624  0.3972 -0.3350
47354W        W90267  14.879  25.506  27.379  0.0167 -0.0585  0.0747
47355W        W90268  29.470  32.923  10.248  0.1939  0.0313  0.1211
47356W        W90269   1.929  27.466   2.940 -0.0004  0.0782  0.1045
47357W        W90270  26.523  19.435  28.978  0.1190 -0.0374  0.4390
47358W        W90271  31.998  24.689  18.976  0.2588 -0.0828  0.1177
47359W        W90272  25.580  19.814  24.135  0.1780 -0.0143 -0.2147
47360W        W90273   8.109  13.570   0.312 -0.1769  0.2764  0.1660
47361W        W90274  26.567  22.215  21.504  0.1476  0.1282  0.0414
47362W        W90275  20.117  28.337   3.926 -0.1586 -0.0173  0.0099
47363W        W90276   3.098  27.713  27.935  0.0555 -0.2299 -0.2034
47364W        W90277  32.388  31.902   0.782  0.2990 -0.0244 -0.0615
47365W        W90278  30.730  17.926   0.244 -0.0726  0.3151  0.2023
47366W        W90279  31.925  24.296   2.610  0.0846  0.1846  0.2058
47367W        W90280  24.211  26.943   2.637  0.1685  0.0732  0.4264
47368W        W90281  23.541  26.972   0.704 -0.0308 -0.0511  0.0223
47369W        W90282  33.795  33.855   5.867 -0.1269 -0.0626  0.0268
47370W        W90283  22.934  22.543   7.225  0.0069  0.1097 -0.0766
47371W        W90284  28.837  26.262   2.937 -0.0688  0.1932 -0.3625
47372W        W90285  19.237  29.496  27.937  0.1762 -0.3303  0.2713
47373W        W90286  25.876  24.658   4.769 -0.1698  0.2096 -0.1522
47374W        W90287  33.667  18.048  29.579 -0.0713  0.0264 -0.1038
47375W        W90288  20.304  19.579   2.465 -0.1696 -0.1763  0.0721
47376W        W90289  18.374  20.050   4.165  0.1258 -0.1341 -0.1974
47377W        W90290  31.309  30.358   8.046 -0.1276 -0.0911 -0.0820
47378W        W90291   0.007  29.892  28.928 -0.2587 -0.0073  0.2433
47379W        W90292  22.530  24.193  29.657  0.1905 -0.1240 -0.0299
47380W        W90293  23.004  22.034  28.313 -0.0642 -0.1584 -0.1578
47381W        W90294  29.330  16.222   4.134 -0.0777 -0.0074 -0.0846
47382W        W90295  31.285  27.230   3.531 -0.0567 -0.2440  0.1360
47383W        W90296  31.020  26.769   0.456  0.0039 -0.1242  0.3254
47384W        W90297  29.691  25.476   7.692  0.2857 -0.0612  0.0919
47385W        W90298  15.458  27.031   6.115 -0.1738 -0.2574  0.3898
47386W        W90299   1.263  16.471   3.009 -0.1658  0.0674  0.1632
47387W        W90300  28.283  27.065   1.109 -0.0355 -0.0335 -0.1843
47388W        W90301  28.461  23.929   5.408  0.1211  0.2897 -0.1311
47389W        W90302  26.906  24.490   1.400 -0.3342 -0.1337 -0.0831
47390W        W90303   4.876  25.599   4.477 -0.2232 -0.0851  0.0748
47391W        W90304   4.314  29.638  10.188  0.1156  0.2465  0.3861
47392W        W90305  33.302  27.016   7.164 -0.0857 -0.1834  0.0818
47393W        W90306  21.149  23.629   7.887  0.1501 -0.0152 -0.1549
47394W        W90307   7.142  17.540   6.029 -0.0210  0.1810  0.2746
47395W        W90308  24.181  21.511   5.308 -0.2237 -0.0419 -0.1226
47396W        W90309  30.023  32.535   3.686  0.0296  0.0503 -0.2411
47397W        W90310  25.293   2.860   9.124  0.2465 -0.4324 -0.4299
47398W        W90311  23.935  22.828  26.030 -0.0047  0.1042  0.3211
47399W        W90312   9.257  16.801   3.052 -0.3043 -0.2210 -0.0162
47400W        W90313  26.873  25.264   6.286 -0.1646 -0.0614 -0.0550
47401W        W90314   5.070  28.273   2.853 -0.0071  0.0823 -0.3199
47402W        W90315   0.809  33.243   3.916  0.1917 -0.0577 -0.2989
47403W        W90316  33.236  20.767   6.925 -0.2553 -0.0389  0.3835
47404W        W90317  33.037  25.336  17.113 -0.0916  0.2681 -0.3389
47405W        W90318  34.404  20.947   3.998 -0.0951  0.1463  0.2202
47406W        W90319   4.436   0.177   1.035 -0.0215  0.1335 -0.1274
47407W        W90320  27.846  28.688  29.348 -0.1381  0.1723 -0.0439
47408W        W90321  26.844  25.566   6.731  0.1940  0.2172 -0.0655
47409W        W90322  17.032  20.973  24.346  0.3283 -0.2996  0.0983
47410W        W90323   8.995  14.847   1.829  0.1459 -0.1599  0.1559
47411W        W90324  21.376  15.472  26.577  0.0026  0.3450 -0.0263
47412W        W90325   1.971  29.665   1.884 -0.0299 -0.3004 -0.2468
47413W        W90326  24.384  23.605   6.835 -0.0034 -0.0254  0.1776
47414W        W90327  32.748  21.759   4.331  0.0545  0.0642  0.1211
47415W        W90328   5.795  31.237   9.605 -0.0108 -0.2390 -0.0629
47416W        W90329   4.929  27.686   6.839  0.0902  0.0148 -0.0665
47417W        W90330  27.318   1.793   3.623  0.1513  0.2746  0.1307
47418W        W90331  31.712   9.563   3.140 -0.1291  0.2278  0.5738
47419W        W90332  25.773  18.165   4.962 -0.2071 -0.0738  0.1734
47420W        W90333   5.198  21.144   7.774  0.0341 -0.1669 -0.0539
47421W        W90334  31.654  17.107   3.146  0.2320  0.1103  0.1464
47422W        W90335  23.687  32.385   5.580  0.2058 -0.3889  0.0961
47423W        W90336  31.922  28.127   7.985 -0.2109 -0.0025 -0.2075
47424W        W90337  18.612  18.773  27.711 -0.0715 -0.0025 -0.1847
47425W        W90338   5.179  24.003   1.071  0.1026  0.0966  0.3660
47426W        W90339   6.112  26.276   6.109  0.1483  0.0680 -0.1500
47427W        W90340   1.407  26.601   2.480 -0.1166 -0.0682 -0.0292
47428W        W90341  28.942  20.725   4.855 -0.1872  0.1466  0.0730
47429W        W90342  32.306  15.211   9.166 -0.5478  0.0164  0.1712
47430W        W90343  32.674  24.483   9.335 -0.2042 -0.0242  0.1907
47431W        W90344   7.793  15.486   6.077 -0.0310 -0.1721 -0.0690
47432W        W90345  25.453  13.133   6.879 -0.1735 -0.1935 -0.0224
47433W        W90346   3.174  26.235   7.053  0.2664  0.2036  0.1650
47434W        W90347  32.287  27.286   2.956 -0.0053 -0.0002  0.3540
47435W        W90348  27.362  20.272   9.915 -0.0191  0.3151 -0.1838
47436W        W90349  33.693  26.493   1.019  0.1972  0.4202  0.0531
47437W        W90350   0.174  22.774   4.415 -0.1922 -0.2929  0.0912
47438W        W90351  33.266  32.797  10.259  0.0417 -0.0565 -0.2659
47439W        W90352  23.576  16.360  24.276 -0.2118 -0.1511  0.1504
47440W        W90353   7.332  23.899  29.153  0.1981 -0.0611  0.1636
47441W        W90354  29.733  22.968   4.653  0.1584  0.0539  0.1237
47442W        W90355  21.653  16.743   6.566  0.1390  0.0442 -0.1127
47443W        W90356  27.126  12.463   6.884 -0.0905 -0.1943 -0.0121
47444W        W90357   4.441  17.380   2.606 -0.0099  0.2306  0.2069
47445W        W90358  31.215  25.774   4.478  0.1736 -0.1167 -0.1243
47446W        W90359  31.846  13.038   7.969  0.1364 -0.1198  0.2510
47447W        W90360  30.267  16.350   9.351 -0.3289  0.3347 -0.1037
47448W        W90361  13.186  16.880   1.622  0.2491 -0.1711 -0.1211
47449W        W90362  27.017  21.878  24.365 -0.0357 -0.0983 -0.1298
47450W        W90363  20.092  26.299   2.230  0.1347 -0.0277  0.1702
47451W        W90364  27.335  26.391   4.512  0.1690  0.1578 -0.1833
47452W        W90365  22.152  15.540   8.056  0.2357 -0.0485  0.3067
47453W        W90366  31.144  23.257   3.925  0.0406 -0.1379 -0.0277
47454W        W90367   1.977  21.669  10.210  0.3314  0.0549  0.2528
47455W        W90368   4.832  27.623   6.327  0.0037 -0.0376 -0.1824
47456W        W90369   5.211   2.907  11.531 -0.2183  0.3500  0.0627
47457W        W90370  24.616  25.145   6.765  0.2122  0.0427 -0.0376
47458W        W90371  34.053  20.290   4.889 -0.1420 -0.1363 -0.0596
47459W        W90372   1.558  26.385   7.344 -0.4389  0.1498 -0.1241
47460W        W90373  26.812  17.832   9.793  0.0282  0.3005  0.0822
47461W        W90374  32.185  25.478   4.442  0.1283  0.1157  0.0964
47462W        W90375  28.886  22.418   3.754  0.0418 -0.0854 -0.2142
47463W        W90376  32.335  19.710   2.061  0.0029  0.0185  0.0928
47464W        W90377  34.053  14.367   6.198  0.0427 -0.1779 -0.1289
47465W        W90378  27.067  26.538   1.129 -0.0829  0.1633  0.1816
47466W        W90379  28.331  26.190  27.809 -0.0142 -0.0429  0.0028
47467W        W90380  30.992  24.269   9.761 -0.3792 -0.2014  0.2183
47468W        W90381   7.769  23.290  26.093  0.0570  0.0101 -0.0956
47469W        W90382  31.520   8.295   2.174  0.0134 -0.0733  0.0858
47470W        W90383  34.219  31.765  28.624 -0.2669  0.1584 -0.0199
47471W        W90384   1.792  12.521  26.035  0.0666  0.0685 -0.0448
47472W        W90385  24.373  21.664   2.020  0.0911 -0.3498  0.1846
47473W        W90386  32.163  15.177   6.676 -0.0774  0.2424  0.0557
47474W        W90387   1.639  25.021   5.859 -0.0870 -0.0198  0.1067
47475W        W90388  24.639  17.586   8.706 -0.1066 -0.0063 -0.2726
47476W        W90389  34.092  29.634   4.953  0.2987  0.0209  0.1600
47477W        W90390  14.000  18.501  29.584  0.2817 -0.2171 -0.0366
47478W        W90391  25.748  32.528   3.248  0.0066 -0.1465 -0.2049
47479W        W90392   2.231  18.575   3.487  0.3418  0.1898  0.0398
47480W        W90393   3.481  14.577   8.318 -0.1067 -0.1077 -0.0371
47481W        W90394  32.300  26.057   0.443  0.1507  0.0801  0.2223
47482W        W90395  24.521  27.794   8.229 -0.0308  0.0240 -0.1056
47483W        W90396   3.421  24.771  10.401  0.1921 -0.0302 -0.0696
47484W        W90397  27.728  23.102   8.004 -0.1870 -0.1938 -0.0764
47485W        W90398  34.480  18.677   8.359 -0.0491  0.0836 -0.4065
47486W        W90399  30.896  29.128   6.201 -0.0063 -0.0020 -0.1636
47487W        W90400   2.719  15.806   9.257 -0.0022  0.3636 -0.0425
47488W        W90401  20.965  29.465   1.634 -0.0665 -0.1042 -0.0441
47489W        W90402   0.745  30.872   5.054  0.0990 -0.2613  0.1118
47490W        W90403  29.017  32.438   7.553 -0.1399  0.3088  0.1175
47491W        W90404   4.329  12.855  29.537 -0.1564  0.0029 -0.2823
47492W        W90405  33.571  23.274   7.560  0.0843  0.0320  0.1309
47493W        W90406  13.269  22.433   6.685 -0.1564 -0.3910  0.0539
47494W        W90407  33.647  20.338  27.147  0.4325 -0.3043  0.1923
47495W        W90408  32.527  22.439   9.985  0.2010  0.0598  0.0055
47496W        W90409  30.458  28.960   3.151 -0.0769  0.1586  0.0344
47497W        W90410  12.808  24.245   3.050  0.0089  0.0241  0.2208
47498W        W90411  30.067  21.346   8.021  0.3315 -0.0280 -0.2337
47499W        W90412  33.868  29.841  25.953 -0.0483 -0.2176  0.1651
47500W        W90413  32.995  15.237  26.974 -0.1607 -0.2286 -0.1002
47501W        W90414  20.366  23.693   1.441  0.3218  0.0391  0.0216
47502W        W90415  23.506  23.540   1.219  0.0173  0.2058  0.1205
47503W        W90416  26.500  25.778  25.464  0.1235 -0.0190 -0.1574
47504W        W90417  26.170  30.528   6.623  0.0445  0.0998  0.4578
47505W        W90418  31.115   4.583   8.280 -0.3584 -0.0056  0.1003
47506W        W90419   4.258  25.193   0.060  0.1573  0.0024 -0.3358
47507W        W90420   5.113  26.310   1.334 -0.0659 -0.1320 -0.2109
47508W        W90421  29.520  10.006   6.135  0.1218  0.0944 -0.0553
47509W        W90422  28.344  25.209  25.252  0.1054 -0.1886  0.4157
47510W        W90423  10.583  14.772   4.190 -0.0164 -0.0253 -0.0039
47511W        W90424  25.105  23.099   5.388  0.0037  0.0301 -0.1401
47512W        W90425  24.503  21.500  29.690 -0.1740 -0.0031 -0.4026
47513W        W90426  26.363  28.319   3.752 -0.1166 -0.0476 -0.2843
47514W        W90427  33.190  25.383  10.083 -0.0262 -0.1005  0.1740
47515W        W90428  26.050  25.477   1.998 -0.1149 -0.2168 -0.3350
47516W        W90429  27.190  19.186   8.692 -0.4045 -0.0539 -0.4473
47517W        W90430  11.322  21.747   1.662 -0.0764 -0.0841  0.0533
47518W        W90431  32.735  24.876   6.609 -0.1138  0.2993 -0.2700
47519W        W90432  27.454  29.610   0.350 -0.3769 -0.0818  0.1753
47520W        W90433  31.001  15.292  27.183  0.0114 -0.4021 -0.2399
47521W        W90434   3.938  14.362   8.203 -0.0519 -0.3065 -0.4742
47522W        W90435  28.259   0.198   6.751  0.2531 -0.0095  0.0121
47523W        W90436  31.404  24.127   7.935  0.1957 -0.0723  0.0576
47524W        W90437  10.400  15.731   1.537  0.0830  0.0031  0.2142
47525W        W90438   3.035   4.256   2.911  0.1172  0.0155 -0.0549
47526W        W90439  31.573  26.702   4.662  0.0309 -0.3534 -0.0713
47527W        W90440  27.067  18.825   0.374 -0.4486 -0.0862 -0.1047
47528W        W90441  11.011  20.559  28.257 -0.2949 -0.2564  0.2321
47529W        W90442  32.234  20.145   5.692 -0.1497 -0.1407 -0.0665
47530W        W90443  29.821  21.252   2.916 -0.0468 -0.2770 -0.0763
47531W        W90444   0.935  20.068   9.074 -0.0909 -0.0157  0.1146
47532W        W90445  34.229  17.900   7.967  0.3014 -0.2141 -0.0141
47533W        W90446  29.277  25.308   1.980 -0.1263 -0.1774 -0.0684
47534W        W90447   3.271   0.478   0.289 -0.0199  0.1316  0.0699
47535W        W90448  32.152  14.985   4.994  0.1807 -0.1673 -0.0319
47536W        W90449  32.064  15.611   6.309 -0.2228  0.1146 -0.3602
47537W        W90450  21.588  22.109  28.111 -0.4367  0.1373 -0.1177
47538W        W90451  24.018  27.818   2.120 -0.1223  0.0289 -0.0833
47539W        W90452  25.724  17.804   1.785  0.0560  0.0275 -0.0202
47540W        W90453   3.374  10.117   1.494  0.0285 -0.0598  0.0556
47541W        W90454  31.132  14.459   1.678  0.2497 -0.0735  0.0441
47542W        W90455   2.334  28.406   8.633  0.0824  0.2037 -0.1949
47543W        W90456  34.222  31.480   8.998 -0.1299 -0.1320  0.1304
47544W        W90457   2.182  19.562   4.889  0.0513  0.0019 -0.1250
47545W        W90458  26.882   2.303   8.085 -0.1341 -0.2457  0.0532
47546W        W90459  28.301  14.350   4.933 -0.0085 -0.1297 -0.1350
47547W        W90460  20.106  22.954   0.131 -0.0345  0.2108  0.3363
47548W        W90461   0.702  15.777   0.334 -0.0721  0.2852 -0.0804
47549W        W90462   3.513   3.008   9.401 -0.0820  0.0359 -0.2612
47550W        W90463   7.519  24.035   3.919  0.1759  0.0014  0.1678
47551W        W90464  33.865  33.299   8.970  0.1362 -0.0223  0.1674
47552W        W90465  18.720  23.002  29.568  0.0729 -0.2731  0.0899
47553W        W90466   7.266  24.367   6.415 -0.2670 -0.1347  0.1276
47554W        W90467  32.255  21.598   8.403 -0.1444  0.2648 -0.1192
47555W        W90468  31.247   7.695   8.672 -0.0904 -0.1692 -0.0826
47556W        W90469   4.328  24.142   7.721  0.0377  0.0746 -0.2701
47557W        W90470  24.176  21.403   1.396 -0.0882  0.0342  0.0879
47558W        W90471   9.436  20.170   3.985 -0.0893 -0.0167 -0.1182
47559W        W90472  27.814  23.941   2.128 -0.1050 -0.1985  0.0588
47560W        W90473  33.032  31.799   1.757  0.2814  0.0721 -0.4618
47561W        W90474   0.946  33.536   7.317  0.1488  0.2782 -0.0117
47562W        W90475  21.816   6.466   5.800 -0.2210  0.2430 -0.5526
47563W        W90476  29.512  31.638   1.403  0.2357 -0.0198  0.1095
47564W        W90477  25.935  22.903   6.174  0.4222 -0.0363  0.3314
47565W        W90478  24.361  25.643   3.538  0.1673  0.0066 -0.0639
47566W        W90479  32.872  18.086   6.316 -0.0681  0.4574 -0.0786
47567W        W90480  16.620  24.059   1.071  0.0634  0.0211 -0.1028
47568W        W90481   4.135  28.378   8.217 -0.2075  0.3231 -0.3759
47569W        W90482  22.967  14.524   0.036 -0.1887  0.0014  0.0506
47570W        W90483  12.782  28.595  10.491  0.0410  0.1426 -0.1039
47571W        W90484  32.066  12.850   6.741  0.2108  0.1043  0.1132
47572W        W90485  27.137  11.805   3.016  0.3252 -0.0719 -0.1463
47573W        W90486  25.600  25.979   7.571 -0.0921  0.1516 -0.1747
47574W        W90487   4.861  30.364  10.817 -0.0585  0.0093 -0.2208
47575W        W90488  29.897  13.602   9.180  0.1891 -0.2039 -0.4223
47576W        W90489  31.642  24.667   8.548  0.1376  0.0848 -0.1661
47577W        W90490  32.468   2.779   2.680  0.0178  0.2791 -0.0134
47578W        W90491  26.167  21.787  26.051  0.1217 -0.4679 -0.1997
47579W        W90492  17.444   9.204  26.664 -0.0382  0.0126 -0.0971
47580W        W90493  34.419  28.292   7.471  0.0261 -0.0554  0.1932
47581W        W90494  32.042  20.895   6.651 -0.1232  0.3113 -0.1689
47582W        W90495   5.465  21.030   8.982 -0.2910  0.1018 -0.0167
47583W        W90496  30.973  21.078   7.933  0.0580  0.1504  0.1118
47584W        W90497  29.538  22.080   0.676 -0.1039  0.1642  0.3030
47585W        W90498   8.840  19.480   4.894  0.0671  0.0119  0.0742
47586W        W90499  29.671  21.762   6.083  0.2004 -0.1925  0.2919
47587W        W90500   5.243  20.927   4.851  0.1047 -0.1047 -0.4147
47588W        W90501  22.058  27.107   5.475 -0.0628 -0.0448  0.1930
47589W        W90502  20.029  30.739   9.116  0.0482 -0.0149  0.1402
47590W        W90503  22.317  28.781   4.924  0.1075  0.1098 -0.1033
47591W        W90504  32.485  23.043   4.232  0.0975  0.2478  0.4419
47592W        W90505  24.550   0.265  29.467  0.0933 -0.0746 -0.0128
47593W        W90506  25.537  24.912  23.918 -0.1943  0.0593  0.4753
47594W        W90507  32.161  32.448   6.427 -0.0990 -0.3029 -0.0828
47595W        W90508  30.443  29.776   8.899 -0.0423 -0.0496  0.0553
47596W        W90509   2.501  33.430   5.225 -0.2800  0.0476  0.0160
47597W        W90510  34.355  26.115  28.077  0.0344 -0.0386 -0.1140
47598W        W90511  34.008  24.809   2.972 -0.1943  0.1148 -0.1281
47599W        W90512  32.547  27.219   6.633  0.0178 -0.0090  0.0986
47600W        W90513  25.370  29.460   6.089  0.0724 -0.2746 -0.2339
47601W        W90514  27.546  29.226  28.104  0.0322 -0.0602  0.0656
47602W        W90515  29.696  11.736   7.785  0.2608  0.2306 -0.1554
47603W        W90516  32.642  20.491   7.602  0.1771  0.1776 -0.1756
47604W        W90517  23.716  21.749   5.355  0.1811 -0.2975  0.0702
47605W        W90518   4.212  24.650   7.575  0.1169  0.1452  0.0132
47606W        W90519  32.472  29.570   7.809 -0.2242  0.0684  0.0979
47607W        W90520  31.161  20.338   1.093  0.1024 -0.1930 -0.0586
47608W        W90521   3.305  30.929   7.435 -0.0561 -0.0609 -0.1811
47609W        W90522  18.356  18.935  28.723  0.0294 -0.2050 -0.0979
47610W        W90523  31.669   0.467  11.738 -0.0266 -0.0518  0.3461
47611W        W90524  27.983  21.048  27.495  0.5012 -0.3331  0.0385
47612W        W90525  32.864  13.062  10.484 -0.1837 -0.0914 -0.1018
47613W        W90526  33.548  28.161   5.549 -0.1257 -0.3444  0.1374
47614W        W90527  26.793  33.541  26.290  0.0756 -0.1273  0.0832
47615W        W90528   7.492  21.371   6.948 -0.0530 -0.2394 -0.2211
47616W        W90529  29.726  15.199   2.833 -0.1904  0.2825  0.0451
47617W        W90530  29.521  16.737  27.138 -0.0734  0.2430  0.1664
47618W        W90531   0.597  29.523   9.040 -0.1292 -0.1389 -0.3346
47619W        W90532   1.334  31.182  29.334  0.0826  0.0407  0.1009
47620W        W90533  26.782  14.879  29.035 -0.3814  0.0362 -0.0538
47621W        W90534  31.909   9.896   6.477 -0.1594 -0.1355  0.3134
47622W        W90535  26.317  22.109   7.267 -0.1375 -0.3448 -0.2545
47623W        W90536  28.140  33.760   3.791 -0.0811 -0.2250  0.0115
47624W        W90537  34.023  27.586   6.029 -0.0606 -0.2314 -0.0599
47625W        W90538  28.713  30.620   6.821 -0.1725 -0.0382 -0.1836
47626W        W90539  23.916  23.131   4.867 -0.0279 -0.1927 -0.2128
47627W        W90540  27.471  23.257   6.026  0.1341 -0.0368  0.1932
47628W        W90541  33.386  25.230   9.064  0.2499  0.2077  0.6027
47629W        W90542  27.453  18.217   8.128  0.0811  0.1725  0.1508
47630W        W90543  21.423   2.877  28.493  0.2054 -0.0194  0.3433
47631W        W90544  19.326  19.813   6.395  0.1357 -0.0210  0.1608
47632W        W90545  26.919  10.247   5.336  0.2675  0.2147 -0.1442
47633W        W90546  30.530  29.264   9.272 -0.5282  0.1622 -0.0514
47634W        W90547  20.665  29.582   1.237  0.2240  0.2857 -0.3178
47635W        W90548  26.384  26.602   4.635  0.3495  0.1117 -0.1200
47636W        W90549  34.130  25.132   9.790  0.1847  0.2576 -0.1995
47637W        W90550  14.585  10.082   3.012  0.0090  0.0732  0.2292
47638W        W90551   6.540  26.101   9.859 -0.2642 -0.2217  0.0541
47639W        W90552  28.661  27.809   0.731 -0.1323 -0.1860 -0.1373
47640W        W90553   4.561  30.542  10.492 -0.0867 -0.4360 -0.1347
47641W        W90554  32.550   9.027   7.714 -0.1930 -0.0348  0.1523
47642W        W90555  23.458  26.010  27.883 -0.1495  0.1820  0.0345
47643W        W90556   3.546  29.909   9.483  0.1422 -0.0171  0.0992
47644W        W90557  29.654  14.847   1.444 -0.1583  0.1710 -0.0468
47645W        W90558  13.418  24.784  10.542 -0.1428  0.3678  0.0476
47646W        W90559  30.294  19.412   3.441  0.4143 -0.1263  0.0608
47647W        W90560  25.196   6.369   5.730  0.2489  0.0839  0.2574
47648W        W90561  33.278  25.340   1.909  0.5448 -0.0550 -0.2081
47649W        W90562   1.076   2.251  10.360 -0.0255 -0.2034 -0.0729
47650W        W90563  19.661  22.734  28.064  0.0128 -0.1324  0.0393
47651W        W90564  23.215  30.493   1.177  0.2245  0.6051 -0.0432
47652W        W90565   0.685   9.437   9.633  0.3773 -0.2130  0.2231
47653W        W90566  33.877  19.788   0.871 -0.0080  0.1320  0.2869
47654W        W90567  33.089   4.708   8.454  0.2295 -0.0906  0.0826
47655W        W90568  23.460  31.275   4.000 -0.0589  0.1100  0.0953
47656W        W90569  22.720  21.016   8.162  0.0951  0.1086  0.3231
47657W        W90570  33.754  18.794   0.566 -0.2254 -0.2543  0.1438
47658W        W90571   2.928   0.131  10.549  0.0213 -0.1674  0.1767
47659W        W90572   0.781  21.431   0.853  0.0510  0.1592 -0.0129
47660W        W90573  28.951  26.284   6.592 -0.0475  0.1810 -0.3101
47661W        W90574  30.373  18.492  27.623 -0.1221 -0.3899 -0.2024
47662W        W90575   5.831  32.940  11.534 -0.0567  0.0844  0.0277
47663W        W90576  27.817  21.394   1.303 -0.0663  0.0290  0.1297
47664W        W90577  32.771  29.778  28.730 -0.1427  0.1339  0.1845
47665W        W90578  30.339  18.018   7.449 -0.0789 -0.3226 -0.0501
47666W        W90579   7.811  19.880  26.295  0.1189  0.0662 -0.1939
47667W        W90580  29.278  21.616   8.516  0.0743 -0.4498  0.0702
47668W        W90581  28.020  18.223   8.107 -0.2436 -0.0670 -0.1123
47669W        W90582  32.234  25.699   9.974  0.0387  0.1888 -0.0103
47670W        W90583  24.540  21.733   1.286  0.0143 -0.1678 -0.1283
47671W        W90584  18.788   6.530   6.937  0.4196  0.2166 -0.1909
47672W        W90585  33.071  22.427   9.897  0.3244  0.2035 -0.1330
47673W        W90586  14.758  22.742   9.927 -0.0445 -0.0256 -0.0727
47674W        W90587   7.892  28.502  28.583 -0.0514 -0.1903 -0.2628
47675W        W90588  18.000  30.706   9.731  0.0386 -0.0349 -0.0900
47676W        W90589  31.297  24.434   2.639  0.2580  0.1548  0.1492
47677W        W90590  30.813  31.742   9.938  0.0418  0.5600  0.1441
47678W        W90591   2.829  26.744   5.457 -0.1936  0.2964 -0.1131
47679W        W90592  14.660  19.895  20.473 -0.1363 -0.2729 -0.0765
47680W        W90593  18.761  18.794  27.024 -0.0885 -0.0981 -0.4571
47681W        W90594  26.565  21.440   6.547 -0.0594 -0.1660  0.0705
47682W        W90595   0.662  21.220   1.361 -0.5247 -0.2188  0.4104
47683W        W90596  31.197  26.686   3.510 -0.0353 -0.2067 -0.1953
47684W        W90597  29.555  24.249   3.152  0.2722 -0.1837 -0.1919
47685W        W90598  33.229  23.130   2.509  0.1749 -0.2145 -0.2132
47686W        W90599  31.132  17.417   5.355 -0.0055  0.2188 -0.0854
47687W        W90600   0.593  21.002   2.341 -0.0173  0.1283 -0.4420
47688W        W90601  33.543  27.378   1.287  0.3004 -0.3258  0.0111
47689W        W90602  24.202  28.586  28.351  0.0047  0.0205  0.0387
47690W        W90603   1.545  28.564   6.224 -0.1064 -0.1192  0.1232
47691W        W90604   3.688  28.215   4.728 -0.1748 -0.2066 -0.2165
47692W        W90605  19.074  12.853   1.793  0.1241 -0.2881 -0.0089
47693W        W90606  26.483  26.548  26.795 -0.1503  0.1931  0.0494
47694W        W90607   4.233  26.304   9.745  0.1977 -0.0579 -0.0622
47695W        W90608  28.138  24.282   8.324  0.3430  0.0685  0.0257
47696W        W90609  31.655  28.465  24.279 -0.1294  0.1408 -0.0798
47697W        W90610   3.795  24.925   5.840  0.0517 -0.1714 -0.1246
47698W        W90611  31.154  31.743  26.166 -0.3509  0.1307 -0.0854
47699W        W90612  34.365  29.301   5.302  0.4414 -0.0515 -0.0103
47700W        W90613  24.884  23.567  28.274  0.0763 -0.0884  0.2383
47701W        W90614  22.551  30.358   6.414 -0.2712  0.0372  0.1138
47702W        W90615  32.018   1.606  10.878  0.0292  0.1858 -0.1441
47703W        W90616   3.788  26.986  26.039 -0.0664  0.2266  0.2970
47704W        W90617  33.289  27.483   8.272  0.0160 -0.1222 -0.0478
47705W        W90618  31.874  26.269   3.856 -0.1309 -0.0259 -0.0490
47706W        W90619  26.413  26.065  28.774 -0.4231 -0.0065 -0.1577
47707W        W90620   4.637  20.945   4.434 -0.0650 -0.2669 -0.0042
47708W        W90621  27.250  22.199   5.631  0.1235 -0.4164  0.1904
47709W        W90622  23.792   2.136  27.237  0.0801 -0.2909  0.1338
47710W        W90623   3.008  23.850   6.548 -0.1607 -0.0211  0.1555
47711W        W90624  26.963  26.870   9.062  0.0564 -0.0434  0.4740
47712W        W90625  27.420  25.269   6.173  0.1292  0.4686  0.2482
47713W        W90626  17.809  19.298  27.928 -0.1705 -0.2931  0.0790
47714W        W90627  26.872  24.394   5.622  0.2267 -0.1362  0.0278
47715W        W90628  22.544  18.658  26.682  0.0256  0.2448  0.1069
47716W        W90629   0.645  17.830   0.273 -0.3369  0.1379 -0.2711
47717W        W90630  23.532  18.512   1.766  0.0390 -0.0620 -0.2178
47718W        W90631   0.394  18.597   6.962 -0.1374  0.0152  0.3653
47719W        W90632  26.624  17.726   6.085 -0.0017 -0.3255  0.1832
47720W        W90633  13.034  21.024   3.721  0.2903  0.1213  0.0991
47721W        W90634  27.319  18.358   3.243 -0.0829  0.1159 -0.0397
47722W        W90635  33.669  18.258   9.856  0.1484  0.0983 -0.0105
47723W        W90636   1.173  21.305   7.877  0.0088  0.3373 -0.2263
47724W        W90637  21.321   2.905   6.299  0.1527 -0.0998  0.1102
47725W        W90638  21.860   0.720   2.631 -0.0599 -0.0601 -0.0735
47726W        W90639  24.842  20.643   3.289  0.2653 -0.2655 -0.0095
47727W        W90640   0.406  19.855   3.943  0.0770 -0.2024 -0.0788
47728W        W90641   2.604  28.990   4.889 -0.1732  0.0808  0.1321
47729W        W90642  26.437   1.312  10.628  0.2886  0.2629 -0.0367
47730W        W90643   5.485  23.997   6.593  0.1525  0.2017 -0.0509
47731W        W90644   6.178  30.044   4.884 -0.2804  0.0026  0.0536
47732W        W90645  20.270  32.366   3.320  0.2069 -0.1190  0.3814
47733W        W90646  27.509  22.200   1.593  0.2243 -0.2348 -0.0055
47734W        W90647   5.438  22.615   0.162 -0.0094  0.0439  0.2155
47735W        W90648  34.017  31.153   9.869  0.0055  0.1520  0.0178
47736W        W90649  16.980  21.752   3.836  0.1016  0.2716 -0.2533
47737W        W90650  22.170  18.952   4.309  0.3569  0.0541 -0.2821
47738W        W90651  33.742  28.789  26.643 -0.1600 -0.3659  0.1314
47739W        W90652  29.767  17.726   9.107 -0.2163 -0.0919 -0.2399
47740W        W90653  29.237  13.714   7.423 -0.0878  0.1988  0.0313
47741W        W90654  24.634   1.192  29.731 -0.1433 -0.1085 -0.0097
47742W        W90655   3.601  13.426   5.214  0.1636 -0.1144 -0.0338
47743W        W90656  32.625  20.925   7.888 -0.2418  0.4047  0.3051
47744W        W90657  28.934  20.032   8.539 -0.0524 -0.2277  0.3203
47745W        W90658  32.196  27.783   7.820  0.1332 -0.1865  0.0151
47746W        W90659  22.114  26.014   5.519 -0.1369  0.0745  0.1645
47747W        W90660  17.845   6.600   9.991  0.0429  0.0484 -0.0111
47748W        W90661  28.873  11.930   4.431  0.1494 -0.1665  0.2177
47749W        W90662  24.161  26.596   8.746  0.1517  0.3638 -0.1724
47750W        W90663  25.232  17.671   3.589 -0.1235 -0.0559  0.0056
47751W        W90664  28.244  27.880  27.668  0.0403  0.1650  0.1802
47752W        W90665   8.827  30.928   4.723  0.0989  0.4442  0.0592
47753W        W90666  28.819  19.523   5.792  0.2134  0.0801 -0.1473
47754W        W90667  32.511  23.072   6.042 -0.2399  0.3809  0.2671
47755W        W90668  32.978  22.183   3.861 -0.0290  0.0843 -0.0324
47756W        W90669  30.543  20.922   8.167  0.2626 -0.1549 -0.3188
47757W        W90670   6.833  34.191   8.585  0.2237 -0.0981 -0.0916
47758W        W90671   4.996  28.082   1.719  0.0041  0.0685 -0.2597
47759W        W90672  21.048  19.321   3.151 -0.0148  0.3942  0.0487
47760W        W90673   2.787  20.233   7.271  0.2721 -0.0156  0.2259
47761W        W90674   2.693   3.046   1.066 -0.0676 -0.4308 -0.0523
47762W        W90675   7.340  24.750   7.440 -0.1863  0.1935 -0.1430
47763W        W90676  24.800  31.090   8.743 -0.3564  0.1547  0.5983
47764W        W90677  29.094  33.880   0.952  0.2241  0.3672 -0.2472
47765W        W90678  17.334  24.434   0.127 -0.1065  0.2006 -0.1614
47766W        W90679  30.023   8.417   8.856  0.2044 -0.1082 -0.2159
47767W        W90680   7.617  19.487   9.352 -0.1459  0.1422 -0.2682
47768W        W90681   0.736  21.073   4.503  0.1891 -0.4456 -0.0537
47769W        W90682  32.179  31.256   8.447 -0.0177  0.2345  0.0945
47770W        W90683  33.552  19.655   4.197 -0.2561 -0.2446 -0.0280
47771W        W90684  26.912  26.371  26.719 -0.1231  0.0764 -0.2686
47772W        W90685   0.349   1.788   8.267  0.0069  0.0751 -0.1109
47773W        W90686   1.527   2.725   8.128 -0.0677 -0.2132 -0.0015
47774W        W90687  17.502  15.234  23.420 -0.1419  0.3732  0.0682
47775W        W90688  30.832  26.047   1.363  0.2886  0.0930  0.0881
47776W        W90689  25.535  27.676   5.256 -0.1182  0.0211  0.0087
47777W        W90690  25.714  23.047   2.807 -0.2388  0.0386 -0.0081
47778W        W90691  32.169  17.019   0.004 -0.0479  0.1688  0.2913
47779W        W90692  29.747  30.771   7.273  0.0826  0.0204 -0.0680
47780W        W90693   2.390  22.257   4.985 -0.2590  0.0579 -0.2580
47781W        W90694  32.387  28.337   9.767  0.1256  0.0321  0.1952
47782W        W90695   5.975  30.923  10.073  0.2976 -0.0436 -0.0988
47783W        W90696  33.943  31.121   5.005  0.2523  0.1662  0.1593
47784W        W90697   0.908  28.472   7.912  0.3195 -0.0054  0.0322
47785W        W90698   9.763  23.823   6.983 -0.0648  0.2279 -0.0193
47786W        W90699  33.312  33.244   7.264 -0.0317 -0.0568  0.1773
47787W        W90700  34.282  22.395   2.678 -0.0452  0.0087  0.1218
47788W        W90701  31.077  24.119   3.124  0.0092  0.0264 -0.0822
47789W        W90702  25.686   9.114   5.409 -0.1355  0.3223  0.1370
47790W        W90703  31.669  16.637   7.954  0.0161 -0.1518 -0.3044
47791W        W90704  28.218   8.846   9.251  0.4246  0.0208 -0.0894
47792W        W90705  30.803   9.883   9.362 -0.0972 -0.1177 -0.3294
47793W        W90706  23.663  26.360   6.699 -0.1170 -0.1925 -0.2621
47794W        W90707   3.772  24.116  18.889 -0.0824 -0.3435 -0.5717
47795W        W90708   5.953  29.162   9.089 -0.1055 -0.2757  0.1244
47796W        W90709   1.005  31.286   4.641  0.4462 -0.1908 -0.0476
47797W        W90710  29.364  28.746   8.007 -0.0068  0.1878  0.1283
47798W        W90711  31.486  33.634   3.886  0.1558 -0.1042 -0.1671
47799W        W90712   0.276  30.657   9.791  0.0541 -0.0114 -0.1348
47800W        W90713  32.399  28.425   3.728 -0.2054 -0.0718 -0.1574
47801W        W90714   4.901  32.274   1.978 -0.2567  0.3413  0.0329
47802W        W90715  30.838  26.081   8.728  0.4543 -0.2595  0.0002
47803W        W90716  34.361  19.224   4.303  0.0280  0.0184 -0.1644
47804W        W90717  26.891  28.616   5.211 -0.4569  0.1052  0.1487
47805W        W90718  32.153  13.758   7.318 -0.1827  0.0487 -0.0234
47806W        W90719   2.162  31.628   8.003 -0.0005  0.0125  0.0666
47807W        W90720   8.985  24.286   4.376 -0.0924  0.0397 -0.2279
47808W        W90721  25.885  17.794   5.415  0.0067 -0.0241 -0.1567
47809W        W90722   4.895  22.904   5.879  0.4184  0.0080  0.0553
47810W        W90723  31.619  28.882   9.793  0.2002 -0.1427  0.1034
47811W        W90724   2.910  21.425   4.655  0.0490  0.1649  0.0404
47812W        W90725  34.212  24.732   8.860  0.2853  0.0314 -0.0144
47813W        W90726  33.502  26.145   8.602 -0.2202  0.2105 -0.1319
47814W        W90727  24.140  26.451   2.307 -0.0529  0.2316 -0.0309
47815W        W90728  31.679  15.274   3.076 -0.0008 -0.1087  0.1028
47816W        W90729  24.121   1.510  28.934  0.0078  0.0330  0.1241
47817W        W90730   1.431  23.469   1.630  0.0372 -0.0506 -0.0530
47818W        W90731  30.008  26.823   8.656 -0.0506 -0.0733  0.2012
47819W        W90732  33.755  30.314   5.774 -0.0594 -0.1668  0.2294
47820W        W90733  30.629  28.529   4.863  0.0778  0.0080  0.0728
47821W        W90734  27.554  22.405   6.146  0.3087 -0.0701  0.3149
47822W        W90735   6.056  12.907   6.980  0.2407  0.2394  0.0051
47823W        W90736  30.858  14.705   9.556 -0.1960 -0.0907  0.0971
47824W        W90737  28.293  20.785  24.182  0.0035  0.0995  0.0468
47825W        W90738  27.586  21.262   2.991 -0.1024  0.1386 -0.1004
47826W        W90739  19.111   0.217   5.286 -0.2003 -0.1999 -0.2316
47827W        W90740  32.773  17.226   8.647 -0.1269  0.2832  0.1546
47828W        W90741  16.895  25.990   0.885  0.1910 -0.0007 -0.0392
47829W        W90742  32.396  21.558   6.106 -0.1768 -0.4781  0.0554
47830W        W90743  33.830  17.729   9.733  0.1128  0.1510  0.1084
47831W        W90744  28.799  19.762  29.757  0.1214  0.0829 -0.0133
47832W        W90745   5.612   3.496  10.189  0.1950  0.0149  0.2629
47833W        W90746  23.515  28.541   8.393 -0.3893 -0.1043 -0.0203
47834W        W90747   5.473  21.927   8.196  0.2340 -0.2724  0.0013
47835W        W90748  27.731  15.499  22.273  0.1564  0.1539  0.2008
47836W        W90749  34.014  26.858   3.133  0.1319 -0.2315 -0.1689
47837W        W90750  28.088  27.790   5.232 -0.1712 -0.2484 -0.0817
47838W        W90751  33.161  13.739   9.049 -0.0294  0.1181  0.1887
47839W        W90752   6.095  24.844  28.767 -0.2446  0.0198  0.0107
47840W        W90753  28.662  34.334  11.111 -0.0777 -0.1498 -0.1129
47841W        W90754  30.103  29.197   9.568  0.0315  0.1152 -0.1986
47842W        W90755   7.769  29.209   6.881 -0.2255 -0.1902  0.2202
47843W        W90756  26.903   7.013   3.602 -0.4764 -0.4520  0.1144
47844W        W90757   3.274  18.313   8.942  0.1440  0.2933 -0.0908
47845W        W90758  34.036  22.588  24.942 -0.0728 -0.0078  0.0178
47846W        W90759  34.005  24.362   6.724 -0.0116 -0.1637 -0.0815
47847W        W90760   5.527  28.719   6.409  0.2261 -0.0835 -0.3979
47848W        W90761  28.379   0.937   4.631 -0.0740  0.2056 -0.2380
47849W        W90762  33.619  14.447   1.364  0.0331  0.1715 -0.1468
47850W        W90763   1.188  23.439   5.074 -0.3015 -0.0061 -0.1172
47851W        W90764   1.142   3.027   5.181 -0.1709  0.1800 -0.3082
47852W        W90765  33.478  29.600   6.871  0.1369  0.1681 -0.1250
47853W        W90766   0.789  28.094   9.848 -0.0442  0.2101  0.3930
47854W        W90767   1.295  26.107  29.512  0.3097 -0.1144 -0.2945
47855W        W90768  27.301  20.257  28.729 -0.2353 -0.1243  0.0499
47856W        W90769  30.401  27.698   7.330 -0.0351  0.1961 -0.1696
47857W        W90770  27.582  26.303   6.101  0.0770  0.0377 -0.4370
47858W        W90771   1.590  19.425   8.056 -0.1873  0.0509 -0.3913
47859W        W90772   1.976  28.897   3.437 -0.2880 -0.0216  0.2040
47860W        W90773   2.437  28.616   6.516  0.1631  0.1809  0.1143
47861W        W90774   1.907  26.101   8.717 -0.1904  0.0436  0.2363
47862W        W90775  20.355  19.275   8.612 -0.2559  0.2524 -0.0874
47863W        W90776  32.743  28.259   6.054  0.0852 -0.0813  0.2254
47864W        W90777  19.548  28.952   6.469  0.1464  0.1875 -0.1503
47865W        W90778   2.104  32.042   3.495  0.0971  0.0862  0.0072
47866W        W90779  25.747  33.882   2.951  0.1876  0.1017 -0.3123
47867W        W90780  30.175  30.211   6.592 -0.2772 -0.3356  0.2523
47868W        W90781  33.744  21.734   5.744 -0.0600  0.2547 -0.3161
47869W        W90782   0.761  26.866   1.586  0.2833 -0.2433 -0.0838
47870W        W90783  12.210  20.065   3.908 -0.2210 -0.0523  0.2121
47871W        W90784  31.114  21.752   6.677  0.0233  0.2423 -0.1813
47872W        W90785   0.199  29.449   1.628 -0.2332  0.2513 -0.2479
47873W        W90786   0.377  24.389  27.639  0.1657 -0.2555 -0.2014
47874W        W90787  17.158  32.380  10.534 -0.1640 -0.0534  0.0527
47875W        W90788  34.333  22.321   7.716 -0.0444  0.0043  0.0419
47876W        W90789  33.262  23.782   5.856 -0.1191  0.3550 -0.0019
47877W        W90790  30.437  21.242   8.563  0.1136 -0.0822  0.1563
47878W        W90791   4.146  18.051   8.097  0.2251  0.1338 -0.0419
47879W        W90792  25.496  22.747   0.699  0.0185 -0.2672 -0.0555
47880W        W90793   3.865  27.643   3.192 -0.0057  0.4251 -0.2694
47881W        W90794   4.092  24.499   5.237  0.2089 -0.0642 -0.0164
47882W        W90795  26.128  20.780   5.208 -0.0495  0.1712  0.3625
47883W        W90796  29.588  22.525   8.559 -0.2959 -0.1864  0.0411
47884W        W90797   4.343   8.306   8.355 -0.2400  0.2597 -0.0519
47885W        W90798  31.691  23.502   5.563  0.2127 -0.0421 -0.1455
47886W        W90799  28.262  17.623   0.652 -0.0097 -0.0629 -0.1666
47887W        W90800   4.504  27.736   4.802 -0.1161  0.4218  0.2487
47888W        W90801  24.881  21.711   7.441 -0.0271  0.1927 -0.1219
47889W        W90802   5.601  24.148   8.741 -0.1308  0.1572  0.1312
47890W        W90803  31.151  14.169   3.160 -0.1702  0.0279 -0.2228
47891W        W90804   8.114  24.198   1.625 -0.1024 -0.3002  0.1991
47892W        W90805  24.858  21.233   7.005 -0.2094 -0.2816 -0.0538
47893W        W90806   2.121  22.654   1.430 -0.5234  0.1564 -0.0305
47894W        W90807  18.113  16.774   2.349  0.1736  0.1724  0.1226
47895W        W90808  13.514   1.360   4.907  0.3192 -0.2580 -0.2051
47896W        W90809  32.614  22.021  26.850  0.0253  0.0007  0.0847
47897W        W90810  21.232  25.118   4.647  0.1949 -0.1128 -0.0183
47898W        W90811   9.177  28.831  11.526 -0.0884  0.0667 -0.0274
47899W        W90812  29.384  29.888   6.935 -0.2491  0.0352 -0.1120
47900W        W90813   0.856  28.981  28.520 -0.0625  0.3389  0.0599
47901W        W90814  33.123  15.551   2.719  0.1558 -0.3573 -0.1562
47902W        W90815  20.410   2.814   5.156 -0.0206  0.0485 -0.1687
47903W        W90816  30.120  21.821   5.828  0.2475 -0.1003  0.2657
47904W        W90817   0.888  27.708   8.288 -0.0656 -0.1539  0.1311
47905W        W90818  29.958  16.063   0.214  0.0681 -0.2387 -0.0101
47906W        W90819   5.434  15.539  10.215 -0.3240 -0.0189 -0.1428
47907W        W90820  34.398  28.591  10.535  0.2336  0.0339 -0.2146
47908W        W90821  33.120  28.107   8.996 -0.0002  0.2805 -0.4629
47909W        W90822  26.980  29.295   8.471 -0.1220 -0.3136  0.0731
47910W        W90823  29.163  33.693   3.156 -0.0243 -0.1819 -0.0157
47911W        W90824  30.434  24.180  27.124  0.2410  0.0233  0.0913
47912W        W90825  31.594  19.569   8.287  0.0814  0.0382 -0.1397
47913W        W90826   1.822  22.377   5.318  0.4041 -0.1535  0.0493
47914W        W90827   0.598  20.937   9.846 -0.1636 -0.2485 -0.1288
47915W        W90828   5.534  19.919   9.006 -0.1905  0.0359  0.1926
47916W        W90829  12.128  30.175   4.516  0.1328  0.3429 -0.2210
47917W        W90830  28.334  32.625   2.408 -0.2111  0.3693  0.1443
47918W        W90831  31.260  24.771   4.735  0.0361 -0.2276  0.0286
47919W        W90832  26.217  19.390   8.627 -0.0629 -0.0257 -0.1604
47920W        W90833  34.315  23.934   2.969  0.5280  0.1471  0.2421
47921W        W90834   2.798   1.366   8.270 -0.0688  0.3396  0.0732
47922W        W90835  27.706  20.708   8.225 -0.1817  0.1980 -0.1604
47923W        W90836  28.748   1.084   9.194 -0.1409 -0.2073  0.2845
47924W        W90837  29.343  23.414   5.575 -0.0193 -0.4431 -0.0205
47925W        W90838  17.234  17.213  29.681  0.1083  0.2740 -0.1227
47926W        W90839   3.215  18.775   8.991  0.0090 -0.0766  0.2291
47927W        W90840  25.789  30.437   8.729  0.1431  0.3943 -0.4030
47928W        W90841  29.689   1.639   3.330 -0.3463 -0.0136  0.2958
47929W        W90842  28.104  24.372   8.831 -0.2731  0.0203  0.2013
47930W        W90843   1.612  28.701   4.148 -0.1210 -0.1117 -0.2968
47931W        W90844  29.614   4.849   3.431 -0.0723 -0.3780  0.2408
47932W        W90845  33.848  23.461   6.876 -0.1041  0.4066 -0.0608
47933W        W90846  21.764  32.909   8.686  0.0443  0.2761 -0.1110
47934W        W90847  32.565  28.775   9.681 -0.0428  0.2746 -0.2946
47935W        W90848   0.680  30.608   1.924 -0.3560  0.0534 -0.3726
47936W        W90849   2.327  19.059   0.067  0.1562  0.2049 -0.1785
47937W        W90850   5.016  25.374   7.314  0.2265  0.3208 -0.2152
47938W        W90851   5.346  32.181   6.849 -0.2101 -0.1945  0.0432
47939W        W90852  32.466  23.861   2.921  0.3502  0.2037 -0.1787
47940W        W90853   3.018  29.508   0.821 -0.2460 -0.2060  0.2604
47941W        W90854   8.045  15.822   7.959 -0.0511  0.0195  0.1265
47942W        W90855  33.927   3.223   2.580 -0.0466 -0.2591 -0.0348
47943W        W90856  28.903  23.606   3.502 -0.1696  0.1261  0.0750
47944W        W90857  32.957  28.431   7.073 -0.1030  0.1604  0.1097
47945W        W90858  22.068  10.799   1.221 -0.0505 -0.1531 -0.1342
47946W        W90859  34.426  27.952   5.961 -0.1311 -0.4194 -0.3538
47947W        W90860  22.453  22.680   8.107  0.0830 -0.1551 -0.0544
47948W        W90861  12.104  24.199   6.088  0.0846  0.0942 -0.0449
47949W        W90862   2.958  33.655  23.190 -0.3630 -0.0554  0.4740
47950W        W90863   6.030  25.390   5.482  0.2441 -0.0102  0.1271
47951W        W90864   3.675  20.449   3.709  0.1551  0.0650  0.3070
47952W        W90865  13.697  17.798   2.054 -0.1120 -0.2477  0.1351
47953W        W90866  32.443  25.606   7.633  0.1241 -0.1365 -0.0383
47954W        W90867   0.613  32.054   5.075 -0.0911  0.1585  0.3305
47955W        W90868  32.133  10.478  25.835 -0.3192 -0.0508 -0.1859
47956W        W90869  23.944   0.809   7.832  0.0098 -0.0268 -0.0661
47957W        W90870  30.945  30.617   9.181  0.0019 -0.1381 -0.1251
47958W        W90871  23.072  30.758  23.263  0.0045 -0.0283 -0.4716
47959W        W90872  25.104  25.205   1.347 -0.1987  0.0309 -0.2328
47960W        W90873   2.958  10.339   3.547 -0.1234  0.1752 -0.0027
47961W        W90874   1.545  14.260   9.605  0.0379  0.1099  0.1164
47962W        W90875  30.912   1.702   5.819 -0.1780 -0.2621  0.0993
47963W        W90876   5.447  24.165  27.251 -0.1688  0.2066 -0.3765
47964W        W90877   1.643  25.628   9.052  0.1282  0.0366  0.0309
47965W        W90878  23.645  33.007  29.201 -0.3624 -0.0958 -0.0545
47966W        W90879  17.959  24.078   6.315  0.2987 -0.1305 -0.2677
47967W        W90880   3.026  32.632   0.836 -0.1669 -0.1475  0.1178
47968W        W90881  34.169  27.074   5.879  0.1303  0.0255 -0.0664
47969W        W90882  25.876  24.475   1.944 -0.1369 -0.1284 -0.0014
47970W        W90883  28.975   2.347   6.708  0.1508 -0.1090  0.0895
47971W        W90884  23.076  19.153  27.292 -0.0051 -0.0083  0.0838
47972W        W90885   6.101  26.218  10.076  0.2268 -0.0497 -0.0442
47973W        W90886  30.336  26.410   3.040  0.0658 -0.1503  0.0629
47974W        W90887  28.901  19.087   8.335 -0.0399  0.0558 -0.0992
47975W        W90888  31.455  24.958   8.904  0.0302 -0.1880  0.0948
47976W        W90889  24.804  20.901   7.404 -0.0280 -0.1058  0.1983
47977W        W90890  32.322  26.103   6.799 -0.2920 -0.0915  0.0748
47978W        W90891  23.806  21.592   2.169 -0.2491 -0.0536 -0.0878
47979W        W90892  32.216  18.952   4.090  0.0448  0.0516  0.2485
47980W        W90893  31.712   6.146   9.767  0.3104 -0.0224 -0.0665
47981W        W90894   1.180  19.311   5.472 -0.1630 -0.4436 -0.0396
47982W        W90895  34.396  25.002   2.693 -0.0805 -0.4947 -0.3777
47983W        W90896  30.028  23.451   5.289 -0.4291  0.1949  0.1499
47984W        W90897  30.607  19.836   5.248  0.0656  0.0292  0.3230
47985W        W90898   1.437   2.095   2.328  0.0675  0.1340 -0.1249
47986W        W90899   4.183  23.684   7.796 -0.0002 -0.2348 -0.1754
47987W        W90900   2.609  27.635   5.013  0.1705  0.1370  0.0207
47988W        W90901  32.651  26.973   7.992 -0.1315 -0.1586  0.0366
47989W        W90902  28.752  18.762   1.257 -0.0945 -0.1915  0.1759
47990W        W90903  30.215   2.391   9.357  0.0235 -0.1909  0.0105
47991W        W90904   4.035  23.030   6.595  0.1540  0.1328  0.2582
47992W        W90905  29.624  27.838   3.881 -0.1485  0.1372 -0.0685
47993W        W90906  23.533  23.154   2.279  0.0359  0.4263 -0.1696
47994W        W90907   0.122  14.717   3.170 -0.1015  0.2898 -0.1208
47995W        W90908   0.837  20.773   8.532  0.1309 -0.0325 -0.0863
47996W        W90909  27.589  10.803   2.318  0.1761 -0.1655 -0.1382
47997W        W90910  28.781  23.715   8.960 -0.0960  0.2177 -0.1600
47998W        W90911   2.582  33.742   8.391 -0.3533  0.2441 -0.1226
47999W        W90912  30.714  22.657   8.114  0.0678  0.1601 -0.0813
48000W        W90913   0.681  25.864   6.719 -0.2636 -0.1094 -0.4563
48001W        W90914   2.725  16.274   9.475  0.2851  0.1675 -0.2730
48002W        W90915  33.875  14.424   3.677  0.2505 -0.0159 -0.2714
48003W        W90916  33.291   1.962   5.948 -0.0844  0.0512  0.2231
48004W        W90917  31.602  33.800   7.358  0.0248 -0.0201 -0.2179
48005W        W90918  30.151  19.127   9.862 -0.0101  0.0938 -0.0324
48006W        W90919  34.184  28.254  28.556  0.2148 -0.3194  0.1451
48007W        W90920   1.585  20.817  29.212  0.0397 -0.3650  0.1432
48008W        W90921  23.276  19.801   8.932 -0.1800 -0.0462  0.2840
48009W        W90922  25.335   2.393   8.804  0.0116  0.2569  0.0484
48010W        W90923  22.980  32.918   3.454 -0.0562 -0.1790  0.0728
48011W        W90924   2.448  27.826   8.583 -0.1307  0.2300  0.2369
48012W        W90925   2.943  30.146   6.354 -0.0884  0.2432 -0.2304
48013W        W90926   1.039  22.410   1.268  0.1166  0.0196  0.1954
48014W        W90927  23.068  15.365   2.090  0.0036 -0.1614  0.1981
48015W        W90928  32.339  25.939   7.256 -0.0637 -0.2517 -0.2196
48016W        W90929  27.888  29.458   6.492 -0.2144  0.2242 -0.0022
48017W        W90930   7.626  29.827   9.499 -0.0901 -0.1702 -0.0232
48018W        W90931  30.341  17.480   6.563  0.0677 -0.2951  0.0354
48019W        W90932  27.862  22.166   8.448 -0.1651  0.0605  0.3244
48020W        W90933  29.360  24.836   8.284  0.0610  0.0325  0.3320
48021W        W90934  29.958  15.842   5.057 -0.1918  0.0186 -0.0180
48022W        W90935  34.190  21.934   3.812  0.0458 -0.1898 -0.1796
48023W        W90936  32.400   2.169   9.280  0.0614 -0.4147  0.0333
48024W        W90937  17.494  24.652  25.631  0.3330 -0.0039 -0.1428
48025W        W90938   4.324  13.751  27.141 -0.0158  0.1181 -0.2310
48026W        W90939   0.473  23.253   2.654 -0.0808 -0.0788 -0.0969
48027W        W90940  29.185  25.441   8.677  0.2609  0.2836  0.1936
48028W        W90941  28.411  23.680   8.232  0.0643  0.0053 -0.0989
48029W        W90942  28.361  24.192   5.938  0.2426 -0.1262 -0.1000
48030W        W90943  22.748   2.499   9.385  0.1233  0.2450  0.6381
48031W        W90944  19.317  26.422   9.419  0.0475  0.0456 -0.2519
48032W        W90945   2.011  26.853   8.305 -0.0452 -0.1513 -0.1861
48033W        W90946  24.276  15.792  29.377  0.2041 -0.0838  0.1943
48034W        W90947  26.656  30.177  27.389  0.0566 -0.0532 -0.0010
48035W        W90948  26.475  27.220   7.002  0.3324 -0.1139 -0.2182
48036W        W90949  32.291  22.528   6.035  0.2129  0.3150  0.1492
48037W        W90950  21.812  32.110  28.734 -0.0265 -0.4013  0.2789
48038W        W90951   5.193  31.737  29.649  0.0627 -0.1350  0.0361
48039W        W90952  26.371  25.815   2.929 -0.0301  0.1255 -0.2580
48040W        W90953  25.777  30.704   1.647  0.3541 -0.1177 -0.3186
48041W        W90954  27.460  32.258   3.864 -0.1714 -0.0867  0.2892
48042W        W90955  28.281  32.344   5.452 -0.1420 -0.1714  0.1973
48043W        W90956  21.818  27.838   1.538 -0.1851 -0.1297 -0.1373
48044W        W90957  25.894  19.368  22.964 -0.1889  0.2005  0.2703
48045W        W90958   0.709  30.863  10.066 -0.4541  0.2207  0.1429
48046W        W90959   0.409  17.563   8.339  0.1984  0.0574 -0.2669
48047W        W90960  31.986  19.785   6.476  0.0490 -0.0202  0.0938
48048W        W90961  32.968  21.412   9.223  0.2814 -0.0243  0.2266
48049W        W90962  26.869  19.329   1.563 -0.0577 -0.1612  0.0042
48050W        W90963  31.279  34.113   7.604 -0.2886  0.2303 -0.1921
48051W        W90964  32.797  25.741  26.974  0.1462  0.1453  0.2737
48052W        W90965  34.278  25.399   9.408  0.0347  0.2491  0.1084
48053W        W90966  28.586  26.275  28.252 -0.1917  0.2109 -0.2450
48054W        W90967  34.493  25.584   0.210  0.1924 -0.2534  0.0813
48055W        W90968   5.385  24.789   4.867 -0.1351 -0.2441  0.0215
48056W        W90969  32.957  13.883   1.200 -0.0088  0.0376 -0.0852
48057W        W90970  25.655  29.869   8.231  0.1851 -0.0580 -0.0554
48058W        W90971  13.698  24.799   2.045 -0.1557 -0.0132 -0.4513
48059W        W90972   0.401  13.963   4.094 -0.2310  0.2322 -0.0486
48060W        W90973  27.046  23.047   2.446  0.3387  0.1784  0.1129
48061W        W90974  22.128  20.128   8.086  0.2771 -0.1070 -0.0564
48062W        W90975  31.682  24.282   8.877  0.1785  0.1119 -0.2860
48063W        W90976  29.436   4.098   7.015  0.1080 -0.0948  0.3646
48064W        W90977   3.712  21.218   4.092  0.1988  0.0676 -0.4683
48065W        W90978  26.862  31.733   8.721 -0.1744 -0.2222 -0.0331
48066W        W90979  29.036   0.996   0.506 -0.0389 -0.0281 -0.0117
48067W        W90980  30.091  27.485   6.489 -0.0374  0.0070  0.0037
48068W        W90981  15.986  19.788   5.086 -0.3045  0.0536 -0.1665
48069W        W90982  23.797  33.066   8.862 -0.1118  0.0988 -0.1163
48070W        W90983  28.375  24.608   6.433 -0.0889 -0.1021 -0.1097
48071W        W90984   5.912  29.595   4.578  0.1857  0.0453  0.0369
48072W        W90985  29.784  22.201  25.914 -0.2455 -0.2175  0.0083
48073W        W90986  25.075  22.279   1.679 -0.0023 -0.1296 -0.0249
48074W        W90987  30.872  19.155   7.846 -0.2720  0.2812  0.0543
48075W        W90988  31.422  19.540  24.331 -0.0403 -0.2255  0.0104
48076W        W90989   5.363  19.561   4.367 -0.3685 -0.0979  0.2321
48077W        W90990   4.442  25.156   6.517  0.0979  0.1481 -0.2318
48078W        W90991   0.808  19.602   8.837  0.2292 -0.2428  0.1821
48079W        W90992  30.422  24.040   9.601  0.2272  0.1967  0.1460
48080W        W90993   5.950  28.125   1.299  0.0576  0.0178 -0.3299
48081W        W90994  26.337  26.244   8.281  0.0328  0.1489 -0.1993
48082W        W90995  31.846  32.053  29.595  0.2833 -0.1690 -0.2471
48083W        W90996   6.703  10.190   7.315 -0.0883  0.1223  0.0069
48084W        W90997   5.081  13.630   2.874  0.0982 -0.1317  0.1791
48085W        W90998  29.418  31.403  21.746  0.1784 -0.2597 -0.1217
48086W        W90999  28.830  21.821   6.016  0.0399  0.1742  0.1342
48087W        W91000  10.869  19.856   4.496 -0.0204 -0.1018  0.7546
48088W        W91001  29.366  16.759   5.039  0.1643  0.2001 -0.1045
48089W        W91002   8.479  25.251   9.782  0.1220  0.2685 -0.2091
48090W        W91003  21.653  15.274  25.955  0.1190 -0.1277  0.1664
48091W        W91004  29.609  27.416   1.004  0.1173  0.1835  0.3209
48092W        W91005  29.056  11.600   1.531 -0.1798 -0.0487  0.1028
48093W        W91006  25.829  31.226   0.100 -0.0225  0.1040 -0.3413
48094W        W91007  30.191  28.473   7.533  0.1164  0.2354  0.1987
48095W        W91008   1.750   2.280   3.588  0.0738  0.0272 -0.1773
48096W        W91009   2.243  16.518  27.788 -0.1681  0.1647  0.1649
48097W        W91010  33.534   5.858  10.632  0.2299 -0.0595 -0.0449
48098W        W91011   3.751  24.512   7.997  0.0852 -0.3715  0.0184
48099W        W91012  28.986  25.566   0.294 -0.0445  0.1704 -0.0039
48100W        W91013  29.560  32.006  28.398  0.0109  0.1700 -0.2535
48101W        W91014   0.720  33.259  26.049 -0.0085 -0.2241 -0.1643
48102W        W91015  29.520  25.778  29.085  0.2797  0.1287 -0.0584
48103W        W91016  34.238  25.395   0.632 -0.1618 -0.0561  0.0113
48104W        W91017  19.748  17.439  14.842 -0.1332 -0.0902 -0.2359
48105W        W91018  23.317  26.969  26.682 -0.0289  0.0771  0.1963
48106W        W91019  33.047  29.827   6.725  0.3612  0.1097  0.0052
48107W        W91020  27.573  27.791  28.317  0.0099 -0.5950  0.3663
48108W        W91021  27.486  30.761   6.124 -0.1380  0.0812 -0.2529
48109W        W91022   5.135  10.937   5.991 -0.3190  0.3743  0.1337
48110W        W91023   0.443  23.581   1.793 -0.2640  0.0587  0.1241
48111W        W91024   2.117  28.540  27.501 -0.3372 -0.0756  0.1146
48112W        W91025  30.402  19.117   4.949  0.0492 -0.2281 -0.3467
48113W        W91026  19.962  24.391  29.254 -0.0452  0.0560 -0.1876
48114W        W91027  20.790  30.832   5.449  0.0549 -0.2851 -0.0789
48115W        W91028  32.119   4.480  23.450  0.0743  0.4578  0.1971
48116W        W91029  18.722  18.658  29.467  0.2938 -0.1722 -0.0472
48117W        W91030  33.790   4.887   8.558  0.1276  0.0458  0.1314
48118W        W91031  30.602   6.233   3.108 -0.1774 -0.0329  0.2130
48119W        W91032   4.852  33.671  11.349 -0.2449 -0.0599  0.0964
48120W        W91033  24.083  16.948  21.211 -0.1151 -0.0040  0.1224
48121W        W91034  29.849  33.050   7.317  0.1660 -0.2732  0.2542
48122W        W91035  22.878  20.940  28.600  0.1570 -0.1455 -0.3684
48123W        W91036   2.018  22.159   0.321  0.2618  0.3599  0.1486
48124W        W91037   1.752  28.954   4.621 -0.1618  0.1043 -0.3629
48125W        W91038   2.924  22.287   7.192  0.0803  0.1297 -0.0359
48126W        W91039  28.863  27.554   7.147 -0.1323  0.1098 -0.1953
48127W        W91040  23.776  27.501   8.862 -0.2021 -0.1577  0.0403
48128W        W91041  34.031  28.451   2.095  0.1478  0.4054  0.3589
48129W        W91042  29.609  26.813  28.398 -0.1749 -0.1322 -0.1080
48130W        W91043   8.540  15.406   9.345  0.2728  0.1920  0.0351
48131W        W91044  34.361  21.981   8.115 -0.2851  0.0879  0.0427
48132W        W91045  25.624  26.514  24.086 -0.3326  0.3367  0.0147
48133W        W91046  30.334  31.977   5.415 -0.0141  0.0390 -0.2140
48134W        W91047  29.954  28.220   5.902  0.1218 -0.2268  0.0560
48135W        W91048  33.797  22.871  27.051 -0.3303  0.2495 -0.1291
48136W        W91049   0.530  16.942   6.394 -0.4191  0.0086  0.4065
48137W        W91050   0.995  34.169   4.147 -0.0942  0.0503  0.1354
48138W        W91051  25.895  32.254   4.887 -0.0255  0.3546 -0.0217
48139W        W91052  23.263   1.194  27.591  0.1307  0.4537  0.1690
48140W        W91053  32.299  26.353   2.636  0.1445 -0.3708  0.0451
48141W        W91054  34.004   6.023   1.617 -0.1793  0.0163 -0.4443
48142W        W91055   2.617  23.948   2.797  0.0994 -0.0890 -0.0449
48143W        W91056  25.116  21.506   2.939 -0.2286  0.1219  0.1393
48144W        W91057  31.936  34.344  18.609  0.1923 -0.1543 -0.1036
48145W        W91058   1.607  22.070   2.819  0.0193 -0.0052  0.0035
48146W        W91059  27.616  24.574   4.165  0.2359  0.1942  0.1759
48147W        W91060  20.248  20.094  26.036  0.1584  0.0449  0.2541
48148W        W91061   5.051  22.948   7.449  0.0291 -0.0728 -0.1409
48149W        W91062  10.568  30.223  25.596 -0.1836  0.1169 -0.2940
48150W        W91063  26.828  26.257   4.547 -0.1368 -0.2156 -0.2580
48151W        W91064   3.686   9.888  28.908 -0.0163 -0.2095  0.0184
48152W        W91065  32.336  30.828   4.649  0.1173 -0.0052 -0.1687
48153W        W91066   2.139   6.936   8.744 -0.0699  0.0942  0.0875
48154W        W91067  28.734  20.213   0.357 -0.2480  0.1217 -0.1570
48155W        W91068  17.444  24.220   1.435 -0.0542 -0.2919 -0.0143
48156W        W91069  26.778   2.861   8.257  0.2633  0.0146 -0.1790
48157W        W91070  29.104  23.762   3.952 -0.1478 -0.2782 -0.2461
48158W        W91071  28.206  30.409   8.919  0.2070 -0.1280 -0.0354
48159W        W91072  32.144  34.159   8.110  0.1533  0.0170 -0.1370
48160W        W91073   0.513  31.007  27.109  0.0750 -0.0806 -0.1156
48161W        W91074   2.590  28.100   0.874  0.0355  0.2829 -0.0774
48162W        W91075  29.674  33.579   1.765 -0.2656 -0.0183  0.0824
48163W        W91076  24.622  26.147   6.162  0.0120 -0.0994  0.2371
48164W        W91077   3.933   1.998   2.974  0.1897 -0.2004 -0.1077
48165W        W91078   2.324  30.081   8.959 -0.2708 -0.0812  0.3541
48166W        W91079  33.909  32.829  27.941 -0.2204  0.1090 -0.2072
48167W        W91080  30.251   5.597  25.130  0.1388  0.2164  0.1894
48168W        W91081  27.693  31.404  28.290 -0.4779 -0.0366 -0.1347
48169W        W91082  26.758   3.111  28.074  0.0889 -0.4355 -0.3485
48170W        W91083   0.289  27.291  29.739  0.1472 -0.4084  0.0237
48171W        W91084  23.003  28.041   5.487 -0.6350  0.2673 -0.1753
48172W        W91085  21.007  27.625  13.000 -0.0055 -0.0566  0.0034
48173W        W91086  25.834  28.620   1.848 -0.0089  0.1901  0.0832
48174W        W91087  24.918   5.178  17.845 -0.1286 -0.1531  0.2744
48175W        W91088  29.133  15.518   2.152 -0.0662  0.0723  0.3702
48176W        W91089  25.187  24.662   8.121 -0.1539  0.1356  0.0449
48177W        W91090  29.670  33.032  23.067 -0.1558 -0.0993 -0.2952
48178W        W91091  22.512   3.967  24.846  0.3595 -0.0062  0.0245
48179W        W91092   5.792  32.769  24.106 -0.0467 -0.0465  0.1358
48180W        W91093  30.919  25.438   2.033 -0.3019 -0.1937 -0.0243
48181W        W91094   7.486  20.820  24.303  0.2557  0.0053 -0.0648
48182W        W91095  22.575  31.855   4.279  0.0569  0.0500 -0.3443
48183W        W91096  22.546   0.190   2.800 -0.0797 -0.3000 -0.4262
48184W        W91097   0.826  10.465  25.423 -0.2270 -0.2202  0.1267
48185W        W91098  21.664  21.007   5.222 -0.3429  0.0116  0.0709
48186W        W91099   4.175  29.516  28.839 -0.3308  0.5072  0.0468
48187W        W91100  29.448  24.970   0.072 -0.0682  0.1987  0.0194
48188W        W91101   3.102  28.222   2.582 -0.0177  0.1028  0.0393
48189W        W91102  21.954  27.132   4.114 -0.1055  0.4564  0.0291
48190W        W91103  27.121   5.196   5.947  0.0258 -0.1331 -0.2298
48191W        W91104   2.134  22.467   8.465  0.1375 -0.1336  0.0760
48192W        W91105  32.903  28.517  26.965 -0.0423  0.0032 -0.0438
48193W        W91106  26.219  24.016   7.860  0.3175 -0.0617  0.3143
48194W        W91107  29.106   0.255  27.144 -0.2548 -0.1340 -0.1365
48195W        W91108  21.284  28.778   6.754 -0.1310 -0.0840  0.1369
48196W        W91109  25.818  27.462  23.834 -0.2665  0.0585  0.2806
48197W        W91110  26.353  28.775   8.854  0.3257  0.0856  0.2712
48198W        W91111  31.685   8.740   8.000 -0.1926 -0.2116 -0.2374
48199W        W91112  27.994  28.687  23.497  0.1767  0.0489  0.2714
48200W        W91113  31.307  28.776   3.445 -0.3155  0.0591  0.1084
48201W        W91114  30.637  26.540   9.414  0.0572 -0.0371  0.0711
48202W        W91115  22.896   2.686  28.801  0.1035  0.4897 -0.0522
48203W        W91116  19.557  18.058   2.755  0.0398 -0.0641 -0.1624
48204W        W91117  30.560   1.792   0.702 -0.1743  0.1177 -0.1456
48205W        W91118  25.685  25.990  27.859  0.1528  0.2141 -0.1756
48206W        W91119  27.420  16.199   4.433  0.2428  0.0002 -0.2299
48207W        W91120  21.878  24.815  29.726  0.0454  0.2777 -0.1086
48208W        W91121  28.056   0.811  27.903  0.1975 -0.1115 -0.4692
48209W        W91122  28.297  29.027   3.177  0.2839  0.0386 -0.0543
48210W        W91123  32.432  28.724   0.771 -0.1164 -0.6029 -0.2545
48211W        W91124  19.676  24.636   4.362  0.1433 -0.3505 -0.1377
48212W        W91125  20.263   2.924   1.760 -0.2367 -0.0781 -0.2435
48213W        W91126   0.225  21.254   1.009 -0.1950  0.2909 -0.0445
48214W        W91127  24.717  19.345  27.081  0.1309 -0.2061  0.3061
48215W        W91128  28.670   0.404  10.402 -0.2134 -0.1059  0.2202
48216W        W91129   4.982  18.935  26.680 -0.1461  0.1661 -0.0994
48217W        W91130  32.782  20.971  25.382 -0.0253  0.2779  0.0117
48218W        W91131   0.392  19.798   9.078  0.1379  0.3380  0.1595
48219W        W91132   3.348  21.376  26.294 -0.0901 -0.0876 -0.0758
48220W        W91133  24.660  29.782  23.092 -0.0281  0.2918 -0.0992
48221W        W91134   1.836  29.584  24.759  0.2953  0.1243 -0.2085
48222W        W91135  25.401  27.143   7.061  0.3316  0.0277  0.0777
48223W        W91136  28.097  32.754   2.812  0.3080 -0.0748  0.3213
48224W        W91137  32.322  23.000   7.137  0.0954 -0.0512  0.0463
48225W        W91138  18.539  29.690  15.048  0.0136 -0.0409  0.1448
48226W        W91139  25.929  25.960  22.668 -0.1551 -0.3432  0.1277
48227W        W91140  30.511  20.863   7.099  0.2450 -0.0086 -0.1486
48228W        W91141  22.439  30.971  29.038  0.1969 -0.2611 -0.2263
48229W        W91142   3.112  29.492   2.837 -0.0828  0.1950  0.1948
48230W        W91143  28.591   0.294  29.609 -0.1308 -0.0965  0.2387
48231W        W91144   4.238  29.399  19.158 -0.2941  0.1666  0.0232
48232W        W91145  33.789  29.847   1.903 -0.0945 -0.2962  0.2050
48233W        W91146  18.529  23.172  25.465 -0.0235 -0.0562  0.0175
48234W        W91147  13.884  23.753  28.481 -0.1708 -0.0941 -0.0544
48235W        W91148   2.106  26.797  27.973  0.1187 -0.0020 -0.2138
48236W        W91149   6.523  18.082  26.767  0.1005 -0.3111  0.1199
48237W        W91150  25.263   1.932   1.663  0.1032 -0.0679 -0.2359
48238W        W91151  32.989  27.266   5.636 -0.1115 -0.0313  0.1291
48239W        W91152  33.952  26.294   6.684  0.2166 -0.0226 -0.0583
48240W        W91153  14.072  34.200   6.142 -0.1557  0.0862 -0.4453
48241W        W91154  15.754   1.979   9.983  0.1651  0.1407  0.0041
48242W        W91155   6.363  28.985   3.736 -0.1927  0.1352  0.1181
48243W        W91156   5.559   0.043   5.345  0.1304 -0.0440  0.0204
48244W        W91157  29.077  22.724   7.253 -0.0152 -0.0265 -0.2362
48245W        W91158   8.808  32.474   6.396  0.4422  0.0658  0.0777
48246W        W91159  20.444  31.040   9.009 -0.1154 -0.1259  0.1313
48247W        W91160  33.740  24.436  29.226 -0.2589 -0.0222 -0.1469
48248W        W91161   2.542  34.013   3.188  0.0289  0.1836  0.0113
48249W        W91162   6.793  13.451  26.723  0.0213  0.1465  0.0196
48250W        W91163  27.875  17.329   2.245  0.1236  0.0873  0.1034
48251W        W91164   0.042  15.763   3.476  0.3384 -0.0963 -0.2309
48252W        W91165  32.289  10.396  27.551  0.0557  0.1117  0.4482
48253W        W91166  33.959  26.438   4.367 -0.1241  0.1194  0.1012
48254W        W91167  19.880  29.346   6.741  0.1938 -0.0897 -0.2144
48255W        W91168  29.211  23.561   6.807  0.4088  0.3341  0.0830
48256W        W91169   1.211  22.976   7.608 -0.1089 -0.0198 -0.1105
48257W        W91170  22.496  20.856  27.819  0.3124 -0.1399  0.0857
48258W        W91171  21.093  14.585   0.535  0.0175 -0.1092  0.0134
48259W        W91172   8.357  29.231   4.408 -0.2345 -0.2336 -0.0620
48260W        W91173  22.985  21.959   0.927  0.0995 -0.0377  0.0203
48261W        W91174  30.625   2.111   5.483 -0.0482 -0.0981 -0.2270
48262W        W91175  25.543  34.417   6.442  0.0861  0.0952  0.0390
48263W        W91176  28.173  28.899  23.951 -0.3262 -0.1098  0.1255
48264W        W91177   0.900  22.732   6.276 -0.1191 -0.0349  0.1550
48265W        W91178  30.565  21.499   1.369 -0.0077 -0.0883 -0.0316
48266W        W91179  23.149  27.722   3.912 -0.2024 -0.0591  0.0530
48267W        W91180  29.395  24.272   2.089  0.2117  0.0088  0.0634
48268W        W91181  24.162  24.405   3.299  0.3652 -0.0207 -0.0707
48269W        W91182  28.457  15.067   6.866  0.2077 -0.6228  0.1604
48270W        W91183  32.404  23.994   8.072 -0.0177 -0.2647  0.2002
48271W        W91184  21.769  32.956  29.678  0.0148 -0.0801  0.3909
48272W        W91185  26.557  25.198   4.958  0.1745 -0.3513  0.1308
48273W        W91186  29.012  29.851  21.654 -0.0054 -0.2951 -0.0802
48274W        W91187  30.176  23.604  25.244 -0.0539 -0.2458 -0.1375
48275W        W91188  11.543  18.780  28.462 -0.2239 -0.2082 -0.0077
48276W        W91189  29.756   8.578   8.300 -0.1652 -0.3571  0.1139
48277W        W91190   2.517  25.507   9.572 -0.1408  0.0785 -0.0578
48278W        W91191   0.013  22.917   1.605 -0.1313  0.0483 -0.2876
48279W        W91192   4.577   0.688   1.908  0.1112 -0.0977 -0.1823
48280W        W91193  31.887  23.917   1.879  0.3772 -0.1060 -0.0731
48281W        W91194  30.731   4.368   8.062  0.0577  0.1466  0.0602
48282W        W91195  24.168  27.368   8.137 -0.2246 -0.2108 -0.0550
48283W        W91196   4.545  30.177   7.109  0.0527  0.1029 -0.0233
48284W        W91197  22.386  23.542   3.076  0.2762 -0.0917 -0.1283
48285W        W91198  31.162  33.377   3.618  0.1104 -0.2176  0.0453
48286W        W91199  31.532   3.281   0.169  0.0695  0.0364  0.2876
48287W        W91200  31.988   3.009   8.137 -0.1485  0.0685  0.0287
48288W        W91201  34.125  20.872  29.474  0.1132  0.4877  0.0937
48289W        W91202  31.954  25.293  10.097  0.0433 -0.0348  0.0370
48290W        W91203  29.262   3.323   2.606 -0.2193  0.2448 -0.2402
48291W        W91204  32.049  32.400  29.232  0.0236  0.1659  0.3428
48292W        W91205  31.190  27.715   1.490  0.2063 -0.1127  0.1045
48293W        W91206  28.593   1.023   5.200 -0.1989  0.0761  0.1146
48294W        W91207  13.486  27.860   1.517 -0.0153 -0.0585  0.0075
48295W        W91208  33.112  24.985   5.473 -0.2622  0.1037 -0.1543
48296W        W91209   3.747  24.112   3.482 -0.1999 -0.0432  0.3367
48297W        W91210   2.076   2.474   9.490  0.1892 -0.1241 -0.4228
48298W        W91211   2.926  24.756   6.085  0.0529 -0.2280  0.0479
48299W        W91212  31.773  33.939   7.790 -0.0605 -0.1995  0.3545
48300W        W91213  24.411  32.012  10.254 -0.0695 -0.0164 -0.2016
48301W        W91214  29.307  21.071  25.787 -0.3309  0.1096 -0.0001
48302W        W91215  31.881  31.287  29.390  0.1048 -0.0424  0.0748
48303W        W91216  30.385  33.866  26.034 -0.0255  0.1614  0.2949
48304W        W91217   4.513  15.052  26.385 -0.2121  0.0843 -0.1458
48305W        W91218  23.138  17.410  15.930 -0.0135  0.0721 -0.1606
48306W        W91219   3.386  26.372  29.352  0.2129  0.0922  0.0318
48307W        W91220   3.867  25.453   4.046  0.1875  0.0346 -0.1926
48308W        W91221   1.131  19.872  25.298 -0.0700  0.1199  0.0862
48309W        W91222  24.834  25.308   7.948 -0.2848 -0.0791  0.0190
48310W        W91223  26.284  25.614   4.997 -0.0098  0.0793  0.1190
48311W        W91224  12.039  22.917   6.857 -0.1288 -0.0989  0.2242
48312W        W91225  19.666  27.946  27.769 -0.3720 -0.2335  0.2316
48313W        W91226   7.066  18.520   2.629 -0.1790  0.1002  0.2440
48314W        W91227  14.774  21.524   1.278  0.2882  0.0023 -0.0569
48315W        W91228  18.556  33.507  25.208  0.0502  0.2481  0.1785
48316W        W91229  28.082  28.729  26.284  0.2880 -0.1081  0.2365
48317W        W91230  26.563   4.791   4.733 -0.1049 -0.0184  0.2869
48318W        W91231  25.082  16.706   3.489  0.1395 -0.0040  0.2957
48319W        W91232   5.586  27.865  24.061  0.2177  0.0459  0.2691
48320W        W91233  33.208  33.116  15.817  0.4008 -0.4064  0.0618
48321W        W91234  27.683  29.420   1.923 -0.3311  0.0568  0.1209
48322W        W91235  33.738  27.392   3.710  0.1043 -0.1421 -0.1496
48323W        W91236   3.399   2.488  26.221  0.3875  0.5758 -0.1331
48324W        W91237  32.679  16.968   0.037 -0.3169 -0.0682 -0.4480
48325W        W91238  27.039  21.336   4.316 -0.1320  0.0644 -0.3793
48326W        W91239  30.923  12.838  26.733 -0.1551  0.0279 -0.2226
48327W        W91240  29.253   1.877  27.857 -0.1894 -0.1826  0.1018
48328W        W91241  32.453   0.107  22.779  0.0833  0.1557 -0.4042
48329W        W91242  26.836  27.818   7.655 -0.0628  0.2489 -0.1154
48330W        W91243  23.155   4.111   8.584  0.1896 -0.1156 -0.1972
48331W        W91244  23.303  27.499   2.536 -0.1959  0.1481  0.2140
48332W        W91245   7.995  30.366  10.393 -0.0748  0.2094 -0.2229
48333W        W91246   3.289  33.857  26.242 -0.0488  0.0755 -0.0023
48334W        W91247   3.987   6.749   7.989  0.0456  0.3079  0.0772
48335W        W91248  31.002  10.059   8.689 -0.4984 -0.1034 -0.0377
48336W        W91249   4.674  26.086   3.677  0.4101 -0.1070  0.0619
48337W        W91250  31.161  24.873   2.904  0.3132 -0.0508 -0.0684
48338W        W91251  24.056  23.985  29.488 -0.0571 -0.1589  0.0253
48339W        W91252  33.372  19.758   3.388 -0.1800  0.4580 -0.1796
48340W        W91253  32.168  25.414   3.588  0.1545 -0.1103 -0.0254
48341W        W91254  29.607  23.277   4.216  0.0383 -0.1106 -0.0070
48342W        W91255  22.779  24.003   4.410  0.0550 -0.1646  0.1409
48343W        W91256   2.241   2.765   4.208  0.1520 -0.0174  0.0142
48344W        W91257  14.667  30.567  27.356  0.1926 -0.0930 -0.1570
48345W        W91258  33.413  30.599  27.958  0.1947 -0.0906 -0.1649
48346W        W91259  28.743  24.618   3.603 -0.1174  0.1627 -0.2042
48347W        W91260  21.505  27.171  28.448  0.1899 -0.0251 -0.3242
48348W        W91261  31.530  28.542   5.752 -0.1541 -0.1701  0.0181
48349W        W91262  30.608  26.949  29.464  0.1394 -0.1328  0.4732
48350W        W91263   6.864  26.193  29.152 -0.1049 -0.1275 -0.0865
48351W        W91264  22.850  20.559   7.332  0.2969 -0.0749 -0.1756
48352W        W91265   1.107  30.030   4.133 -0.2534 -0.0555 -0.1943
48353W        W91266  31.806   1.744   4.337  0.1516 -0.1565 -0.0848
48354W        W91267  19.631   5.313   3.269  0.3709  0.2302 -0.3197
48355W        W91268  33.591  25.712   6.966 -0.0875  0.0343 -0.0426
48356W        W91269  33.804  27.077   7.168  0.1956  0.0747  0.2565
48357W        W91270   1.306  22.226  26.828  0.0754 -0.1740 -0.0394
48358W        W91271  23.647  20.331   2.116 -0.1009  0.1769 -0.0022
48359W        W91272   8.910  26.217   3.458 -0.0535  0.4140  0.2716
48360W        W91273   1.811  28.247  29.554 -0.3754 -0.0998 -0.0058
48361W        W91274   4.783  33.046  26.944  0.0780  0.2289 -0.2657
48362W        W91275   2.886  29.559  26.065  0.1912  0.1453  0.1843
48363W        W91276  27.168  31.161   2.837  0.1194 -0.0347 -0.2604
48364W        W91277  13.320  20.392   5.961  0.3289 -0.2059  0.1959
48365W        W91278  30.375  33.363   6.128 -0.1828 -0.0126 -0.3591
48366W        W91279  26.214   1.877   1.435 -0.2599 -0.2674  0.2105
48367W        W91280  26.333  27.037   6.293 -0.0792  0.2292 -0.1470
48368W        W91281  20.137  31.382   0.508  0.1166  0.5934 -0.2170
48369W        W91282  30.567  24.649  27.803  0.1814  0.0186  0.1572
48370W        W91283  25.569  29.512   5.269  0.1176 -0.2986  0.2149
48371W        W91284   0.941  31.850   3.536 -0.1283  0.0813 -0.2481
48372W        W91285  29.346  31.638   2.510  0.2703 -0.0213  0.0766
48373W        W91286  25.261  15.448   0.980 -0.4623 -0.4521  0.3872
48374W        W91287   0.426  29.777   3.567 -0.1097  0.1723 -0.3104
48375W        W91288   0.595  30.386   8.313  0.1680 -0.1996 -0.0316
48376W        W91289  10.279   0.142  17.141  0.0811  0.0240  0.0537
48377W        W91290   5.433  21.053  26.242 -0.0750 -0.0565 -0.2515
48378W        W91291  29.650  26.802   2.003  0.3928  0.1126  0.0174
48379W        W91292  29.481  19.834   1.419 -0.1637  0.1135  0.2228
48380W        W91293  27.960   3.681   6.610  0.1319  0.0962 -0.1768
48381W        W91294   9.036  19.315  12.958  0.1309  0.3046  0.2722
48382W        W91295  25.116  14.320  29.717 -0.2039 -0.0142 -0.1483
48383W        W91296  23.861   1.158   4.923 -0.1121 -0.1441 -0.3111
48384W        W91297  31.671  24.815   2.505  0.3037  0.0416  0.1540
48385W        W91298  33.464  29.144  27.213 -0.1162  0.0859 -0.1916
48386W        W91299  34.108  28.897   1.115  0.0975 -0.0294  0.3054
48387W        W91300  29.268  27.871  27.946  0.1323  0.2335 -0.1689
48388W        W91301   0.755  32.672   0.679  0.4746  0.1239 -0.3107
48389W        W91302  33.354   5.141   8.424  0.3757 -0.1014 -0.1238
48390W        W91303  27.422  28.545   8.028 -0.0119  0.1292 -0.0972
48391W        W91304   9.973  26.592  23.005  0.0656  0.2490 -0.3749
48392W        W91305   0.080  21.854   5.053  0.1915 -0.0862  0.1911
48393W        W91306   3.089  24.685  10.784 -0.0408  0.0752 -0.2428
48394W        W91307  11.114  21.431   5.209 -0.3542  0.2360 -0.1730
48395W        W91308   5.737  25.825   6.165 -0.0214  0.1727 -0.1644
48396W        W91309   0.385  25.319   3.935  0.0915  0.0281 -0.1743
48397W        W91310  28.773  21.308   9.358 -0.4029 -0.1717 -0.1042
48398W        W91311   1.401  25.177  25.210 -0.0218  0.1642 -0.1628
48399W        W91312  29.149   2.776   2.826 -0.0041  0.1911  0.0699
48400W        W91313   0.050  26.492  25.216 -0.6211 -0.0323  0.0483
48401W        W91314   3.148  22.886   5.148  0.3287  0.0714  0.1084
48402W        W91315  32.051  21.706   7.241 -0.0350 -0.0591  0.2346
48403W        W91316  26.733  28.361  24.820  0.0969  0.0775  0.0640
48404W        W91317  20.817  29.491   4.196 -0.0686 -0.0899  0.0150
48405W        W91318   9.340  26.701  27.734  0.2308 -0.1249 -0.1101
48406W        W91319  32.084   0.907   0.938 -0.3327 -0.1314  0.2023
48407W        W91320  33.606  24.140   7.630 -0.0541 -0.0986 -0.1767
48408W        W91321   0.854  33.077  26.516 -0.2794 -0.1549 -0.0631
48409W        W91322   4.881  28.960   8.344  0.0610 -0.1879  0.3616
48410W        W91323  30.935   3.200  28.775  0.3089  0.3567  0.1711
48411W        W91324  25.867  24.992  25.134 -0.2061 -0.0504  0.4237
48412W        W91325  31.487   1.012   9.862  0.2464  0.4248 -0.0141
48413W        W91326   1.351   0.515  27.487 -0.1492  0.3351 -0.0458
48414W        W91327  33.068  30.150  26.722  0.0800  0.0199  0.0288
48415W        W91328   2.788   1.009   3.610  0.2166 -0.0771 -0.1893
48416W        W91329  22.629  32.505   0.747 -0.2692  0.1008  0.2274
48417W        W91330  19.846  29.383   9.196  0.1322  0.2402  0.3829
48418W        W91331  25.769  33.903   9.552  0.2621  0.0172 -0.0842
48419W        W91332  24.244  15.075   6.787 -0.3192 -0.1296  0.3704
48420W        W91333  21.595  32.608   4.476  0.0210 -0.2433 -0.0301
48421W        W91334  31.509  33.675   3.080 -0.0813 -0.0284  0.1642
48422W        W91335  28.460  24.595  24.951 -0.1151  0.0831 -0.1098
48423W        W91336   9.380   4.799   2.828  0.5568  0.3465 -0.0548
48424W        W91337  27.736  19.273   3.331 -0.3275 -0.1549 -0.0940
48425W        W91338   2.459  29.971  26.153 -0.1716 -0.0312 -0.0199
48426W        W91339  33.812   2.669   2.675  0.3628  0.2943  0.2860
48427W        W91340  31.143  22.538  27.793 -0.0672 -0.0857  0.2763
48428W        W91341   2.098  31.406   2.816 -0.1129 -0.0320  0.0869
48429W        W91342  26.428   3.333  25.109 -0.2228  0.3755 -0.2576
48430W        W91343  22.991  21.341   5.327 -0.1769  0.2493  0.1789
48431W        W91344   7.286  10.986   9.693 -0.2092  0.1169 -0.3046
48432W        W91345  33.871  19.833   7.170 -0.1953  0.3004  0.1601
48433W        W91346  30.254   1.328  10.651  0.1258 -0.2300  0.0955
48434W        W91347  32.308  24.033   6.445 -0.0361  0.0685 -0.3515
48435W        W91348  22.331  20.015  23.146  0.0002 -0.2826  0.0720
48436W        W91349   1.224  24.445  27.726  0.1811 -0.3096  0.1712
48437W        W91350   1.806  30.594  24.475 -0.2467  0.2732  0.2874
48438W        W91351  26.484  26.264  28.295  0.2376 -0.4979  0.0259
48439W        W91352  30.859  29.477   7.932 -0.0435 -0.0056  0.3306
48440W        W91353  16.631  23.712   4.523 -0.1161 -0.1006 -0.1457
48441W        W91354  19.740  32.652  28.739  0.0817  0.0580 -0.0206
48442W        W91355   9.384   1.600  29.590  0.1635 -0.3286 -0.1704
48443W        W91356   1.101   1.067  10.107 -0.2428  0.2842  0.0111
48444W        W91357   4.088  24.154  26.940 -0.0698 -0.1986  0.0539
48445W        W91358  33.180  34.272  10.341  0.1801 -0.0871 -0.0399
48446W        W91359  33.332  21.724  25.434  0.2010  0.1892 -0.2665
48447W        W91360   1.398  29.102   9.779 -0.0872  0.0245 -0.1080
48448W        W91361   0.304  16.381  26.426  0.1531 -0.3782  0.1728
48449W        W91362  22.934   8.175   9.288 -0.2438 -0.1561  0.0842
48450W        W91363  27.177   2.965  24.661 -0.3823  0.1670  0.0687
48451W        W91364  31.775  24.523  28.487  0.0619  0.0483 -0.0782
48452W        W91365   0.089  34.270   7.345 -0.3269  0.0332 -0.2444
48453W        W91366   6.151  22.635   1.035 -0.0321  0.1712  0.2438
48454W        W91367  31.102  25.715   3.493 -0.0459  0.0698 -0.0216
48455W        W91368  20.848  31.451   2.831  0.2392 -0.3165  0.2171
48456W        W91369  30.610   3.856   6.957  0.1103  0.3850 -0.0119
48457W        W91370  23.596  25.318   1.125 -0.1469  0.0366  0.2411
48458W        W91371   5.042   6.133   3.264  0.0089  0.1115  0.0298
48459W        W91372   0.904   8.154   6.938  0.1514 -0.2451  0.1924
48460W        W91373  26.592  26.706   0.315 -0.0379  0.1752 -0.4039
48461W        W91374  22.435  20.703   6.856  0.1261 -0.1579 -0.1116
48462W        W91375   3.699  21.622   6.291  0.1748 -0.2733  0.0851
48463W        W91376  32.292  27.055  25.587 -0.2458  0.0650 -0.3716
48464W        W91377  27.589   8.093  10.722  0.2208  0.0210 -0.0080
48465W        W91378   1.558  18.470  29.163  0.1999  0.0826 -0.1505
48466W        W91379  30.181  28.565   6.310  0.0950  0.1927 -0.0798
48467W        W91380   2.051  29.493  25.799  0.2897  0.1145  0.0363
48468W        W91381   2.427  25.935   7.673  0.3516 -0.2608 -0.0917
48469W        W91382  34.472  18.149   3.758  0.0377  0.0198  0.3259
48470W        W91383   3.777   2.468  11.222  0.0191 -0.1266  0.2747
48471W        W91384  29.936  25.616   3.487  0.0688 -0.1713 -0.2100
48472W        W91385   6.945  29.041  27.764 -0.0688  0.2278 -0.0220
48473W        W91386   4.981  29.874  19.976 -0.3867  0.1581  0.0640
48474W        W91387  27.496   0.516  26.909  0.1626  0.0883 -0.2241
48475W        W91388   8.576  30.785  20.407 -0.0342  0.2082 -0.2098
48476W        W91389   7.142  26.630  21.964  0.0891 -0.0520 -0.1856
48477W        W91390  30.780  24.460   8.894 -0.0666 -0.1298  0.1790
48478W        W91391  15.278  22.538   0.927 -0.0735  0.3032  0.0719
48479W        W91392  32.662   0.405   6.746 -0.2006  0.1992 -0.4091
48480W        W91393   1.581  27.082   1.006  0.0180 -0.4745  0.0399
48481W        W91394  17.666  21.484   5.799  0.1426  0.1691  0.0354
48482W        W91395  26.632  17.739   5.637  0.0567  0.0466  0.4266
48483W        W91396   1.411  32.590  24.558  0.0339  0.2611  0.0648
48484W        W91397   7.587  34.246   1.890  0.0274 -0.2820 -0.2488
48485W        W91398   7.371  21.626   3.539 -0.0472 -0.2633 -0.0945
48486W        W91399   0.886  22.926  29.107 -0.0315 -0.1044 -0.0715
48487W        W91400  20.468  28.927   7.351 -0.2416  0.0104  0.2423
48488W        W91401  16.959   5.874   5.637  0.0014  0.4568 -0.0358
48489W        W91402  28.798  26.008   6.097 -0.0719  0.1014  0.1230
48490W        W91403  26.073  32.415   7.158 -0.1825  0.3447 -0.1672
48491W        W91404  31.593  22.493  23.937  0.1849  0.1251  0.0994
48492W        W91405   0.830  26.339   6.594 -0.4018  0.0401  0.0620
48493W        W91406  21.313  14.892  28.436 -0.2886 -0.3442 -0.0357
48494W        W91407  33.950  25.373   7.326 -0.0083  0.1412 -0.0323
48495W        W91408  28.240  25.598  29.647  0.2121 -0.1654 -0.1071
48496W        W91409   7.697  27.739  27.148 -0.1392 -0.1879 -0.0195
48497W        W91410  21.249  25.284  26.191  0.0705 -0.2337 -0.3332
48498W        W91411   1.578   2.079  10.343  0.3029 -0.1420 -0.1424
48499W        W91412   7.751  24.273  29.433 -0.0141 -0.1767 -0.0625
48500W        W91413  19.701  18.163   5.351 -0.0357 -0.0828 -0.1132
48501W        W91414   4.136  23.453   3.662 -0.2893 -0.0681 -0.2454
48502W        W91415  29.923  29.871   1.217  0.3440 -0.0772  0.2601
48503W        W91416  25.290  30.425   7.055  0.1556 -0.3126 -0.1049
48504W        W91417   0.812  22.619   6.840 -0.0060 -0.2215 -0.2007
48505W        W91418  23.822  25.607   5.424 -0.1523 -0.1330 -0.0777
48506W        W91419  24.012   2.243   1.450  0.3199 -0.1478  0.2281
48507W        W91420   4.864  26.197  29.585 -0.0807  0.0482  0.0058
48508W        W91421  30.850  29.076  27.216 -0.2412  0.0047 -0.0731
48509W        W91422  29.332  31.400   5.689  0.1592  0.1077 -0.0266
48510W        W91423  27.242   1.657   2.174  0.2634 -0.0428 -0.1856
48511W        W91424  29.455   1.471   6.278  0.0956 -0.1020  0.0472
48512W        W91425  33.135   1.047  25.465 -0.1352 -0.1414 -0.2079
48513W        W91426  31.321  28.148   1.214 -0.0414 -0.2293  0.0064
48514W        W91427  22.285  19.120   6.700  0.2206 -0.0044 -0.2065
48515W        W91428   5.152  29.940   5.802 -0.1030 -0.0392 -0.1649
48516W        W91429   2.111  27.504   8.911 -0.0665  0.0855 -0.3152
48517W        W91430  32.506  28.751   6.314  0.0931 -0.1142  0.1792
48518W        W91431  27.559  28.255  29.276 -0.2810  0.1702 -0.1972
48519W        W91432   9.745  28.898  23.380 -0.3236 -0.0057 -0.3239
48520W        W91433   3.693  30.714   5.168  0.1599  0.1552 -0.0291
48521W        W91434  27.788   5.837  27.881  0.0264 -0.0266  0.1508
48522W        W91435  21.312  14.811  24.205 -0.1032 -0.0110  0.0313
48523W        W91436  31.839  18.612   3.987 -0.1590  0.0887  0.3419
48524W        W91437  33.691   2.516   4.540  0.2616 -0.2971 -0.2598
48525W        W91438  23.452  33.232   8.100 -0.3141  0.1331 -0.0607
48526W        W91439   3.363  32.927   9.993  0.2648  0.0782  0.2435
48527W        W91440  26.126   3.862   7.685 -0.2546  0.2936  0.2919
48528W        W91441  28.817  28.914   3.133 -0.0565 -0.0397  0.0557
48529W        W91442   4.275   0.032   9.815  0.0926  0.2794 -0.0796
48530W        W91443  29.026  26.184   7.451  0.0054 -0.0608  0.0066
48531W        W91444   1.890   3.588  29.251 -0.1565  0.0818  0.1905
48532W        W91445  32.718  25.905   8.198 -0.1248  0.3354 -0.3095
48533W        W91446  25.160  27.612   1.074  0.1627  0.0899 -0.2099
48534W        W91447  13.359  15.181   3.520 -0.1135 -0.0727 -0.0878
48535W        W91448  31.852  21.987   7.722 -0.5430 -0.2758  0.0973
48536W        W91449  26.834   1.987   4.294  0.2735 -0.2096 -0.2662
48537W        W91450  28.820   6.449   3.067  0.0743 -0.0383 -0.0283
48538W        W91451  22.783  31.537   2.123 -0.3304  0.2219 -0.0781
48539W        W91452   5.799  26.921   8.440  0.2300 -0.0018  0.0168
48540W        W91453  19.955  29.844   8.675 -0.0797  0.0848 -0.0546
48541W        W91454   0.415  31.080   5.297  0.0249 -0.2592 -0.1166
48542W        W91455  30.383  25.369   9.298 -0.0216  0.0087  0.1462
48543W        W91456   6.333  25.504   9.082  0.4065 -0.2075  0.1017
48544W        W91457  30.990   2.958   2.742  0.2773 -0.0171 -0.1597
48545W        W91458   0.045  29.437   8.941 -0.1985 -0.1031 -0.3541
48546W        W91459  23.080  33.260   4.739  0.2295  0.0687 -0.1669
48547W        W91460   7.809  23.239   5.095  0.0457 -0.2073  0.0674
48548W        W91461   1.148  24.678   3.099  0.1695  0.0973 -0.1346
48549W        W91462  28.670   2.438   7.637 -0.0490  0.2461 -0.1634
48550W        W91463  20.045  30.232   6.380 -0.0299 -0.2461 -0.0305
48551W        W91464  24.280  18.798   1.783  0.0718 -0.4974  0.1413
48552W        W91465  12.418  30.014   5.643 -0.2594 -0.1684 -0.0492
48553W        W91466  28.322  19.781  10.054 -0.2146  0.1270  0.0334
48554W        W91467  27.895  32.448  24.306 -0.2313  0.0072 -0.0483
48555W        W91468   6.994  30.820   2.926  0.0040 -0.2546  0.0181
48556W        W91469   1.127  29.730  10.167  0.1276  0.2756 -0.2022
48557W        W91470  20.075  19.326  22.959 -0.0848  0.0506  0.1735
48558W        W91471  31.647   3.922  11.253 -0.0478  0.0649 -0.0107
48559W        W91472  30.245   4.498  10.464 -0.0101  0.3167  0.0497
48560W        W91473   5.677  22.658   9.559 -0.0177 -0.0299  0.1307
48561W        W91474  32.587  24.389   4.378 -0.2101  0.0047  0.2217
48562W        W91475  18.571  12.860   5.703 -0.1140  0.2226  0.2034
48563W        W91476   3.273   0.307  25.929 -0.1056  0.1383 -0.0417
48564W        W91477  29.916  32.919   0.530  0.0153 -0.1007  0.3403
48565W        W91478   4.405  27.424   1.296  0.2519 -0.0984  0.2893
48566W        W91479  33.680  17.431   2.316 -0.2509 -0.0564  0.0821
48567W        W91480  29.034  27.008   7.070 -0.0683  0.0523  0.0601
48568W        W91481   6.072  25.469   4.983  0.0060 -0.1094  0.1862
48569W        W91482  32.093  26.800   4.581  0.1910 -0.1667  0.0244
48570W        W91483   7.294   0.259   3.421 -0.2429 -0.1347  0.0573
48571W        W91484  23.922  30.105   5.108 -0.1221 -0.0485  0.1787
48572W        W91485  30.889   1.106   5.777 -0.3084 -0.0530  0.0507
48573W        W91486  27.811  27.810   2.717  0.0170  0.3590  0.0397
48574W        W91487  29.272  26.981   1.077 -0.4584 -0.2944 -0.0316
48575W        W91488  29.352  30.182  29.462  0.1969  0.0762  0.1000
48576W        W91489  30.038  26.988   4.529 -0.2415  0.1201  0.0495
48577W        W91490   3.253  22.606   9.213 -0.0456 -0.1814 -0.0316
48578W        W91491   3.709  26.918   4.186  0.0124 -0.0807 -0.0490
48579W        W91492  27.839   5.561   1.728  0.0489  0.1182  0.1397
48580W        W91493   3.077   1.757  10.502 -0.2982  0.3421 -0.2826
48581W        W91494  31.187   1.588  26.112  0.1273  0.2255  0.0412
48582W        W91495  25.950   0.208   5.666  0.1906  0.0757  0.0747
48583W        W91496  30.580  15.865  23.806  0.2354  0.0388 -0.0452
48584W        W91497  31.439   5.251   9.220 -0.2123 -0.0415 -0.2146
48585W        W91498  29.043  31.028   7.583  0.4073 -0.0114  0.1260
48586W        W91499  29.610  24.913   6.061  0.1857  0.2973  0.0741
48587W        W91500  29.573  20.607   6.762  0.0940 -0.1316  0.2151
48588W        W91501  29.690  22.147   3.287 -0.0360 -0.0854  0.0610
48589W        W91502  29.681  31.961   8.724  0.2149  0.2637  0.2256
48590W        W91503  21.797   3.145   0.597 -0.0979 -0.2091 -0.1463
48591W        W91504  27.943   7.933  23.185  0.0598 -0.0293 -0.1280
48592W        W91505   4.422  26.018   7.911 -0.1487  0.3171  0.0508
48593W        W91506  26.838  21.332   0.977 -0.1684 -0.1521 -0.0898
48594W        W91507  20.760  27.638   5.590  0.0019 -0.0666  0.0443
48595W        W91508   0.575  30.988   9.118  0.1430 -0.1551  0.1941
48596W        W91509  29.480  24.525   7.817  0.3003 -0.0802  0.0110
48597W        W91510   0.801  31.988  22.532 -0.0579 -0.0677 -0.0065
48598W        W91511  28.649   1.163   3.600 -0.2733  0.0526 -0.1606
48599W        W91512  31.699  14.223   2.915 -0.3277 -0.0240  0.2781
48600W        W91513   9.850  32.581  10.648  0.0002 -0.1432  0.0409
48601W        W91514  32.531  22.927   5.472  0.1974 -0.0169 -0.1448
48602W        W91515   1.921   2.250  28.331 -0.1815 -0.0481  0.1276
48603W        W91516  29.140  30.024   7.444  0.2150 -0.0044  0.1056
48604W        W91517   8.569  29.838  29.555 -0.0995 -0.1326 -0.0559
48605W        W91518   0.190   1.768   7.435  0.2083  0.0353 -0.1147
48606W        W91519  32.122   3.206   3.355 -0.3208 -0.0541  0.2376
48607W        W91520   9.108  16.823   5.113 -0.1923 -0.1135 -0.1704
48608W        W91521   2.647   8.389   2.116  0.1080 -0.1655 -0.1301
48609W        W91522   0.382   6.593   3.512 -0.1345  0.1849 -0.1377
48610W        W91523   7.772   9.973   4.280 -0.2214  0.1773 -0.1379
48611W        W91524  22.036  21.580  24.286 -0.1918 -0.1776  0.3039
48612W        W91525   2.897  27.443   7.127 -0.1497  0.0557  0.1113
48613W        W91526   3.543  29.173  29.774  0.5463 -0.0001 -0.0342
48614W        W91527   2.176   2.968  10.256  0.0887 -0.2652 -0.0035
48615W        W91528  22.262  24.017   7.674 -0.4692 -0.2797  0.1463
48616W        W91529  30.032  20.884   4.128  0.1466 -0.3861  0.2566
48617W        W91530  30.102  26.904   6.829 -0.5784  0.1306 -0.2129
48618W        W91531  26.124  19.565   9.259  0.1130 -0.1267  0.4224
48619W        W91532   1.041  21.771   9.432  0.2851  0.1531 -0.2119
48620W        W91533   9.113  18.417   4.202 -0.1639 -0.0708  0.0471
48621W        W91534  26.094  17.001   9.085  0.0169 -0.4232 -0.0568
48622W        W91535  27.996   1.300   6.805 -0.3075 -0.0838 -0.0425
48623W        W91536  27.350  27.655   4.102  0.2593 -0.0434  0.1009
48624W        W91537  33.201  26.756  10.629  0.1337  0.0025 -0.0501
48625W        W91538   4.123  19.232   1.769 -0.0766  0.0834 -0.2067
48626W        W91539   4.853  28.957   3.486  0.3179 -0.2988  0.1053
48627W        W91540  31.231  26.307   9.810 -0.2485  0.2415  0.0238
48628W        W91541   0.159  25.578   8.773 -0.2931 -0.1602  0.1515
48629W        W91542   2.214  22.690   2.271  0.3393  0.0744  0.0521
48630W        W91543  32.794  30.610   6.002  0.1133 -0.0371 -0.0038
48631W        W91544   2.181  22.849   3.999 -0.1172 -0.2274 -0.0796
48632W        W91545  28.611  24.565  23.183  0.2791  0.2219 -0.0842
48633W        W91546  33.003   1.752   6.353 -0.4159  0.2725 -0.1293
48634W        W91547  32.859  22.514   5.954 -0.2582  0.1195 -0.1501
48635W        W91548  25.424  28.828   3.794 -0.0686 -0.1669 -0.0903
48636W        W91549  30.809  26.471   6.287  0.0525 -0.2807 -0.3062
48637W        W91550  32.360  31.575   3.631 -0.2599 -0.2266 -0.1295
48638W        W91551  27.148  27.645  28.854 -0.0498 -0.3100  0.5049
48639W        W91552   3.752   2.902   1.571 -0.0182  0.2065  0.2034
48640W        W91553   2.903  25.932   1.026 -0.0345 -0.1579  0.2373
48641W        W91554  32.998  18.796   9.418 -0.0124  0.0262 -0.0510
48642W        W91555  27.993   3.027   9.648  0.3475 -0.0914  0.2608
48643W        W91556  30.465   4.699   7.794 -0.1576  0.3229 -0.2044
48644W        W91557  34.376  32.941   2.232 -0.0736  0.3390 -0.3330
48645W        W91558  28.801  29.494   9.954  0.1483 -0.0584 -0.0540
48646W        W91559   3.920  12.186   0.741 -0.0347  0.3802  0.1355
48647W        W91560   2.000  24.029   5.608 -0.2416 -0.0128  0.1995
48648W        W91561  30.967  31.302   7.233  0.3750  0.1058 -0.1148
48649W        W91562  28.318  19.777   7.944 -0.2546 -0.1821  0.2110
48650W        W91563  25.133  27.523   5.761  0.0846  0.1797 -0.0402
48651W        W91564  31.558  25.403   3.666  0.2019 -0.0648 -0.1006
48652W        W91565  27.871  33.144   5.324 -0.0117 -0.2399 -0.1008
48653W        W91566   2.243  29.180   6.136 -0.1317 -0.0008 -0.1562
48654W        W91567  32.896  33.069   7.072  0.1464 -0.2827  0.3479
48655W        W91568  30.574  19.987   6.748 -0.1573  0.1925 -0.0020
48656W        W91569   2.438  34.420   4.681  0.1389  0.1585  0.0765
48657W        W91570  24.206  28.276   0.264  0.2308 -0.1651 -0.1781
48658W        W91571  25.700  25.183   7.006  0.1996 -0.0400  0.0621
48659W        W91572  28.708  26.933   4.878  0.0421  0.1725  0.2050
48660W        W91573  30.720  11.503   4.886 -0.2827 -0.0545 -0.1958
48661W        W91574  31.237  17.930   8.722  0.0006 -0.2436  0.1870
48662W        W91575   1.756  31.054   3.708  0.1637 -0.1995  0.1234
48663W        W91576  24.682  30.817   6.318 -0.2753  0.0778  0.0649
48664W        W91577  28.712  21.085   8.888 -0.1846 -0.1059 -0.0855
48665W        W91578  33.000  27.279  10.220 -0.1655  0.2123  0.2203
48666W        W91579  31.604  24.284   2.223  0.0634  0.1260  0.1145
48667W        W91580  19.370  27.307   6.138 -0.0651 -0.0815 -0.1700
48668W        W91581   5.191  25.210   4.628 -0.0032 -0.1615  0.0385
48669W        W91582  30.472   1.131   4.299  0.4438  0.0567  0.2082
48670W        W91583  28.864  20.258   5.151  0.0495  0.1616  0.2576
48671W        W91584  21.889  28.075   2.606  0.1242 -0.1122  0.1609
48672W        W91585  34.197  33.629   9.009 -0.0833  0.1780 -0.3558
48673W        W91586   4.002   3.531   0.841 -0.1034  0.0347  0.2784
48674W        W91587  34.295  23.635   1.086  0.2680 -0.0369 -0.0968
48675W        W91588   2.569  19.106   2.955  0.2151 -0.0888  0.1484
48676W        W91589  33.727   0.651  11.354 -0.1586  0.1467 -0.1467
48677W        W91590  29.099  29.075   3.614  0.1970 -0.2509 -0.0052
48678W        W91591  23.125  25.565   1.954  0.0069  0.1559 -0.0091
48679W        W91592  23.194  30.184   2.874 -0.4185 -0.2793  0.0510
48680W        W91593   2.368  30.753   8.327 -0.0806  0.4045 -0.1404
48681W        W91594  26.689  20.762  25.621  0.2853  0.4241 -0.3556
48682W        W91595  28.683  25.061   6.335  0.1917  0.1037 -0.0362
48683W        W91596  29.024  25.558   6.185 -0.0210  0.2083  0.0608
48684W        W91597   5.668  20.492  28.965  0.2642 -0.1145  0.0922
48685W        W91598  27.600   0.130  10.525  0.0290  0.1992  0.1987
48686W        W91599  29.405  24.162   3.961  0.1155 -0.1171  0.2142
48687W        W91600  26.482  27.479   6.504 -0.0709 -0.1054 -0.1153
48688W        W91601  26.568  29.445   6.060  0.0337  0.3031  0.1176
48689W        W91602  31.114   7.896   1.638 -0.1383  0.0861  0.2425
48690W        W91603  11.674   6.420   5.974 -0.2252  0.1075  0.1521
48691W        W91604  26.872  28.303   5.702  0.0276  0.0790  0.4238
48692W        W91605  28.352  28.247   9.191 -0.1497  0.0259 -0.3346
48693W        W91606  28.170  24.326   7.188 -0.0668  0.0753 -0.1286
48694W        W91607  29.619  27.657   6.509 -0.1375  0.1692 -0.0136
48695W        W91608  34.033   3.157   3.363  0.1137 -0.5112 -0.2047
48696W        W91609   2.740  27.247   6.667 -0.3415  0.2632 -0.3087
48697W        W91610  29.441  23.011   8.151  0.0706 -0.0276  0.1213
48698W        W91611   4.068  27.384   9.123 -0.3432  0.1520 -0.1175
48699W        W91612  31.462  19.673   8.835 -0.1599 -0.3002 -0.1027
48700W        W91613   1.110  29.508   5.807 -0.1017  0.0329 -0.0732
48701W        W91614  25.963  31.576   8.359  0.3000 -0.1831 -0.0584
48702W        W91615   1.864   4.021   1.936  0.3025  0.0659 -0.1548
48703W        W91616   8.216   3.277   3.744  0.1208 -0.1330 -0.3102
48704W        W91617   0.926  10.161   5.911  0.0257 -0.1473 -0.3266
48705W        W91618   2.814  34.131   8.683 -0.1199 -0.1852  0.1611
48706W        W91619   0.809   1.641   2.793 -0.0574  0.1324  0.0488
48707W        W91620   1.091   1.766   4.370  0.1037  0.0334 -0.1874
48708W        W91621  19.340  17.284   4.511  0.0124  0.0925  0.2340
48709W        W91622   7.056  27.097   3.742  0.1563  0.1200  0.1964
48710W        W91623  31.968  26.414   2.299 -0.1375  0.1615 -0.0475
48711W        W91624   1.244  30.407   7.917  0.2375 -0.1033 -0.0084
48712W        W91625   1.899   0.758   5.870 -0.0830  0.0861  0.0223
48713W        W91626   4.009  15.198   2.824 -0.0672  0.1156  0.0868
48714W        W91627  25.884  29.912   7.303 -0.0849  0.3894  0.0854
48715W        W91628  23.719  32.948   7.392 -0.2736 -0.0637  0.2570
48716W        W91629  26.316  23.301   1.592 -0.0160  0.0908  0.1511
48717W        W91630   0.276  23.192   7.391  0.0685  0.1215 -0.4003
48718W        W91631   1.157  19.257   3.028 -0.0547 -0.1916  0.0838
48719W        W91632   0.717  24.390   8.237  0.1093 -0.0481  0.2679
48720W        W91633  26.137  23.178   6.490  0.0721 -0.2020  0.1772
48721W        W91634   4.254  25.579  29.537  0.0019 -0.2187  0.1067
48722W        W91635  25.652  28.509   6.986 -0.0223  0.1101  0.1479
48723W        W91636   7.072  26.849   7.703  0.0676 -0.1809  0.0839
48724W        W91637  27.925  21.292   9.295  0.0792  0.3182 -0.1029
48725W        W91638  33.589  28.304   8.002 -0.0579 -0.0320  0.2284
48726W        W91639  27.030  30.621   8.180  0.2322 -0.2370  0.0782
48727W        W91640  30.303  20.034   5.631  0.2471  0.3810  0.0303
48728W        W91641  24.426  18.058   1.882 -0.1082 -0.1639  0.0386
48729W        W91642  29.583  19.188  29.601  0.2446 -0.0036 -0.1701
48730W        W91643  24.365   2.876   3.399 -0.0440  0.1709 -0.2888
48731W        W91644  34.131   0.190  10.830  0.1855 -0.2167  0.3622
48732W        W91645  29.087  28.026   8.265  0.0684 -0.2294 -0.0642
48733W        W91646  29.344   2.826  10.251  0.4064  0.0456 -0.2171
48734W        W91647  22.826  27.756   4.998  0.1951  0.0811  0.1864
48735W        W91648   4.392  25.712   3.328 -0.1148  0.0957  0.0431
48736W        W91649  18.995   5.322  23.329 -0.1969  0.0599 -0.3743
48737W        W91650  27.641  29.962   3.056  0.0424 -0.4120 -0.1580
48738W        W91651   7.332  26.725   3.969  0.2212  0.0579  0.0027
48739W        W91652  34.303  27.759   8.468 -0.0186  0.1020  0.2000
48740W        W91653   4.790  24.862   7.222 -0.0989 -0.5246  0.4098
48741W        W91654   3.153  24.774   6.580 -0.1207 -0.0177 -0.0484
48742W        W91655   6.949  27.784   9.760 -0.3595  0.1338  0.0907
48743W        W91656  27.096  21.937   5.219 -0.2323 -0.1300 -0.1579
48744W        W91657   0.488  30.681   3.820  0.1183  0.1375  0.0143
48745W        W91658  30.329  24.468   7.254  0.3676  0.1458 -0.4533
48746W        W91659  27.259  31.473   9.099  0.1960 -0.4679  0.2052
48747W        W91660   5.239  30.302   2.756  0.1715 -0.4221  0.3356
48748W        W91661  22.081  34.469   1.082 -0.0756  0.2683  0.0739
48749W        W91662  23.942   9.530   2.725  0.1376  0.3567  0.0093
48750W        W91663   3.053  11.434  11.037 -0.0193  0.0465 -0.0016
48751W        W91664  28.282   2.058   4.697 -0.3437  0.1246  0.0364
48752W        W91665  33.767  28.005   0.851  0.1062  0.1383 -0.0421
48753W        W91666  27.729  32.508   1.089  0.0447  0.0414  0.0159
48754W        W91667  28.583  20.998   7.787  0.3195 -0.0437 -0.2925
48755W        W91668  31.268  17.514   5.804 -0.0223 -0.1162 -0.1805
48756W        W91669  25.498  24.688   7.702  0.1395 -0.0040 -0.2037
48757W        W91670  33.627  32.469   7.708  0.0630  0.1367  0.2835
48758W        W91671  26.416   0.393   8.240  0.1340  0.3031  0.0344
48759W        W91672   3.983  30.277   0.684 -0.2500 -0.0277 -0.0076
48760W        W91673   4.443   1.426  22.326 -0.2327  0.1908  0.3506
48761W        W91674   1.919  30.903   0.559  0.0258  0.3607 -0.2386
48762W        W91675   1.255  26.162  10.093 -0.1955 -0.0538  0.3016
48763W        W91676   1.462  28.768   9.393 -0.0770 -0.4066 -0.1903
48764W        W91677  27.935  32.394   8.676 -0.4397 -0.0198 -0.3694
48765W        W91678  29.383  17.076   3.752 -0.1250 -0.1785  0.0990
48766W        W91679  29.486  21.707   3.260 -0.2806  0.1649 -0.3245
48767W        W91680  26.448  33.594  27.709  0.0263 -0.1583  0.2481
48768W        W91681  34.063  31.713   8.211  0.2340 -0.1766 -0.1459
48769W        W91682  28.288  25.662  28.602 -0.1464  0.0862  0.3113
48770W        W91683  29.346  28.135   3.537 -0.2706 -0.2688 -0.0511
48771W        W91684   0.988  21.201   6.927  0.1113  0.2467  0.0969
48772W        W91685   4.533  26.932   1.425 -0.0309 -0.3816  0.1640
48773W        W91686  31.561  31.819   4.784  0.3561 -0.3060  0.3506
48774W        W91687  33.332  27.683   4.529  0.1214 -0.0327  0.6676
48775W        W91688  23.291  24.244   4.840 -0.1822 -0.0790 -0.1060
48776W        W91689  31.043  29.144   9.009  0.1195 -0.3515 -0.4019
48777W        W91690   2.928  33.713   5.409  0.1141  0.0971  0.1971
48778W        W91691  23.271  25.160   7.568  0.3591 -0.1668  0.1374
48779W        W91692  28.047   0.767   5.132 -0.3622 -0.0105  0.1887
48780W        W91693  12.599   1.767   8.479 -0.1606  0.0249 -0.3322
48781W        W91694   0.607  26.879   4.200  0.1080  0.1306  0.3336
48782W        W91695  27.568  30.522   3.186  0.0156  0.0772  0.0170
48783W        W91696   0.011  16.909   8.667 -0.1588  0.0356 -0.0122
48784W        W91697  25.702  26.057   8.241  0.2428  0.2259  0.3284
48785W        W91698  29.963  27.434   1.456  0.0927 -0.1079 -0.3311
48786W        W91699  31.004  24.340   5.719  0.0225  0.0609  0.0164
48787W        W91700  31.180  16.954   3.060 -0.1589  0.1619  0.2706
48788W        W91701  31.319  26.053   7.151  0.2219 -0.2435  0.2008
48789W        W91702  33.502  30.078   1.024 -0.1632 -0.3716 -0.0550
48790W        W91703  28.548  31.829   7.840  0.0177 -0.0567 -0.3457
48791W        W91704   9.932  30.851  28.398 -0.0944 -0.1305  0.0197
48792W        W91705  31.907  27.587   3.929  0.1503 -0.0483 -0.0402
48793W        W91706  33.702   2.195   3.401  0.0319  0.0173 -0.1504
48794W        W91707   2.997  25.414   6.662  0.2196  0.3724  0.0719
48795W        W91708  28.557   6.652   2.207 -0.3167 -0.3288 -0.0055
48796W        W91709  31.798  21.115   5.145 -0.0795 -0.0179 -0.0731
48797W        W91710   5.144  28.934   6.710  0.1091  0.0248 -0.3770
48798W        W91711   8.307   5.230  27.561 -0.5130  0.3348 -0.2797
48799W        W91712   0.517  31.622  29.618  0.0397  0.3128 -0.2068
48800W        W91713   0.098  24.274   8.674  0.0795 -0.0344  0.4209
48801W        W91714   8.499  33.112   9.167 -0.4534 -0.0970 -0.2737
48802W        W91715  24.943   2.247   7.913 -0.1986 -0.0905 -0.2617
48803W        W91716   4.741  18.110   2.061  0.0242 -0.0982  0.2623
48804W        W91717  29.645  28.885  29.266 -0.3119 -0.0436  0.1864
48805W        W91718  33.042  24.383   4.055 -0.0449 -0.3870  0.0955
48806W        W91719   5.649  24.998   6.140  0.0871  0.1360 -0.0076
48807W        W91720  30.759  24.500   6.799  0.0450 -0.0336 -0.1045
48808W        W91721   0.857  24.448  20.834  0.2232 -0.2445 -0.0587
48809W        W91722  28.953  29.381  23.652 -0.0923 -0.0495  0.0174
48810W        W91723  11.228   3.199   9.855  0.0118 -0.0457  0.1282
48811W        W91724  30.233  31.644   7.351 -0.1925  0.0986  0.0001
48812W        W91725  24.360  28.309   4.439  0.0302 -0.0050  0.1183
48813W        W91726  25.855   4.923   5.384  0.1031  0.0960 -0.1073
48814W        W91727   1.476  32.659   5.322  0.0130  0.0258 -0.1481
48815W        W91728  30.630  22.970   5.054  0.0578  0.5472 -0.2098
48816W        W91729   5.914  23.594   6.783  0.0843  0.3303  0.1071
48817W        W91730   1.222  27.168   6.449  0.2679  0.0507 -0.4327
48818W        W91731   2.653  34.036   4.959 -0.0191 -0.2477  0.0538
48819W        W91732  25.123  22.549   8.479  0.0481  0.0020 -0.1536
48820W        W91733   9.484  23.937   7.379 -0.3333  0.4564 -0.1311
48821W        W91734  21.675   1.036   5.073  0.1481 -0.1478  0.0071
48822W        W91735  30.660  22.249   2.495  0.3165 -0.1523  0.0114
48823W        W91736  34.114   1.783   3.790 -0.4167 -0.0461 -0.2726
48824W        W91737   1.131   3.498   6.489 -0.3886 -0.0933 -0.0319
48825W        W91738   3.063  30.598   9.184 -0.1524 -0.1200 -0.2051
48826W        W91739  29.437   4.121  10.631 -0.1822 -0.2341 -0.0755
48827W        W91740   0.693  18.289   8.128  0.0506 -0.2261  0.0630
48828W        W91741  27.861  23.879   0.758  0.0122  0.0236  0.4671
48829W        W91742  31.245   3.749  10.961 -0.0311  0.0037 -0.1000
48830W        W91743   8.698   5.054  11.135  0.2718 -0.4257 -0.2001
48831W        W91744  33.928  21.399   7.554  0.1004  0.0585  0.2201
48832W        W91745  27.902   3.681   6.091 -0.0768  0.3143 -0.2272
48833W        W91746  29.353  20.787   3.231 -0.4311 -0.1209  0.3350
48834W        W91747   1.852  15.704  29.148  0.1639  0.2394  0.1995
48835W        W91748  27.388  27.685   4.617 -0.1597  0.0527 -0.2965
48836W        W91749   8.451  24.703   1.187 -0.1232 -0.0107 -0.3628
48837W        W91750  21.041  28.057   0.466 -0.0404 -0.2125  0.0816
48838W        W91751  33.476   3.359  11.905  0.0962  0.3418 -0.0956
48839W        W91752   3.086   8.334   3.448  0.2141 -0.0740 -0.3796
48840W        W91753   1.211  22.352   0.769 -0.3200  0.2828  0.1056
48841W        W91754   7.974  29.601   8.559  0.3310  0.0405 -0.0447
48842W        W91755  30.311  25.748   9.014 -0.0695 -0.0178  0.0094
48843W        W91756   2.290  27.534  15.080 -0.2346 -0.2712 -0.1526
48844W        W91757  34.057  22.772  25.383 -0.2996 -0.2260  0.1791
48845W        W91758   4.378  29.477   8.902  0.0676 -0.0979 -0.2820
48846W        W91759   0.483  23.013   6.927 -0.0301  0.2744  0.2291
48847W        W91760   6.135  26.113   8.090 -0.1891 -0.2985  0.0574
48848W        W91761   0.639  31.976  29.209 -0.1677 -0.1282  0.1675
48849W        W91762   0.277  18.565   3.758  0.0796  0.1483  0.1011
48850W        W91763  29.922  29.754   8.830  0.1148 -0.0918  0.2307
48851W        W91764  28.361   3.416   7.526 -0.0995  0.1420  0.2573
48852W        W91765   6.153  27.429   4.133  0.4202 -0.1251 -0.1380
48853W        W91766  32.209  32.943   4.822 -0.1251 -0.3717 -0.0258
48854W        W91767   6.794  23.752   3.988  0.0350  0.1580 -0.0190
48855W        W91768   6.657  34.098   1.319  0.0342  0.2078 -0.2267
48856W        W91769   0.896  31.171  26.872 -0.2354 -0.0511  0.0420
48857W        W91770  34.204  29.630   4.481  0.0924  0.2043 -0.2020
48858W        W91771   1.052   3.575  10.967  0.0965  0.0400 -0.1375
48859W        W91772  31.461  25.480   8.810  0.2973 -0.0826  0.0676
48860W        W91773  24.613  16.884   3.764  0.0813  0.3872  0.1127
48861W        W91774   6.651  31.754   9.342 -0.1782  0.1058  0.1191
48862W        W91775  18.129  21.376   5.098  0.0058 -0.0291 -0.1847
48863W        W91776   2.797   0.467   8.103  0.1120 -0.1607  0.0890
48864W        W91777   4.503   4.874  10.708  0.2376  0.0267  0.1950
48865W        W91778   6.643  20.639   6.102  0.0378 -0.1236 -0.0501
48866W        W91779  19.003  17.029  24.534  0.2005 -0.2808  0.2678
48867W        W91780   1.627  30.578   7.640 -0.1772  0.1878 -0.0489
48868W        W91781   0.907  24.760   4.693 -0.0274  0.1835  0.1654
48869W        W91782  29.510  22.510   4.553  0.0832 -0.0345  0.0575
48870W        W91783   5.144  32.271   9.158  0.0309  0.1452  0.3619
48871W        W91784   3.734   2.154   7.487 -0.0544  0.1788  0.1184
48872W        W91785  22.933  18.604  29.776  0.1298 -0.0454  0.2248
48873W        W91786  25.238  29.520  29.396 -0.2064 -0.0119  0.3279
48874W        W91787  28.224  24.441   2.850  0.3184  0.1186 -0.0211
48875W        W91788   6.141  24.490   6.869 -0.0545  0.1301 -0.0677
48876W        W91789   3.284  23.547   7.558 -0.1236 -0.1781  0.2937
48877W        W91790  22.663  27.598   4.013  0.2027  0.1477 -0.4469
48878W        W91791   5.495  23.679   7.790  0.0990 -0.0601  0.0556
48879W        W91792   1.893  17.587   8.410 -0.3785  0.1636  0.0693
48880W        W91793  31.903  28.485   9.760  0.1857 -0.1329  0.1075
48881W        W91794  27.504  29.563   6.022 -0.2712  0.2304 -0.2251
48882W        W91795   0.452  31.266  28.452 -0.0892 -0.0510  0.0918
48883W        W91796   2.456  31.796   5.343  0.2210  0.0729  0.1327
48884W        W91797  25.515  24.049  26.053 -0.1063 -0.0999  0.4934
48885W        W91798  33.537  27.551   7.127 -0.3229 -0.1076 -0.0153
48886W        W91799  24.184  25.440   5.001 -0.1028  0.1801  0.2351
48887W        W91800   5.894  24.905   7.091  0.5584  0.3112 -0.2800
48888W        W91801  31.830  28.853   7.440 -0.0854  0.1979 -0.1104
48889W        W91802   4.218  20.728   7.540 -0.0825  0.0493  0.0836
48890W        W91803   0.555  27.553   5.435 -0.2529  0.2397  0.3164
48891W        W91804  26.883  32.738  26.775  0.1039 -0.1039  0.1153
48892W        W91805  33.651  21.689   9.688  0.3108 -0.0090  0.1810
48893W        W91806  30.087  20.824   6.041  0.0907 -0.0025 -0.0502
48894W        W91807  17.141  26.938  25.058 -0.0341 -0.4345 -0.1698
48895W        W91808  29.806  27.641   8.780 -0.1593  0.0320 -0.2865
48896W        W91809  11.502  20.977   7.626 -0.3201  0.0659 -0.2503
48897W        W91810  29.164   3.667  10.276  0.1220 -0.0800  0.0938
48898W        W91811  10.579   3.061   9.954 -0.1796 -0.0182  0.0273
48899W        W91812   0.900  28.716   4.952 -0.2501  0.2024 -0.2280
48900W        W91813  21.292  32.321   9.201  0.0693 -0.0444 -0.0230
48901W        W91814  21.321  17.051   3.791 -0.2084 -0.1534 -0.1028
48902W        W91815  28.266  29.845   7.603 -0.0457  0.0329  0.0534
48903W        W91816  18.330  29.286  28.642  0.1061 -0.0120  0.2823
48904W        W91817   2.583  32.448   8.656  0.2815 -0.1356  0.0143
48905W        W91818  26.782   2.162   5.992 -0.1812  0.0178 -0.1822
48906W        W91819  29.673  26.311   5.112  0.1892 -0.0265  0.0310
48907W        W91820   3.845  11.062  11.353 -0.1808 -0.1294 -0.1135
48908W        W91821   2.411  29.151   3.441  0.1698  0.2946 -0.0114
48909W        W91822  27.586  28.410   8.773 -0.0064  0.0200  0.0050
48910W        W91823  26.735   1.851   8.255 -0.0092  0.2239  0.1288
48911W        W91824  34.368  24.167   4.476  0.1330  0.5415  0.2048
48912W        W91825  32.078  22.023   2.161  0.0082  0.0495 -0.1215
48913W        W91826  32.635  27.901   9.589  0.1036 -0.1950 -0.0262
48914W        W91827   8.673  10.506   4.258 -0.2084  0.3702 -0.2325
48915W        W91828  25.963   8.873   7.680 -0.0911 -0.3072 -0.1115
48916W        W91829  26.073  27.262   7.343 -0.0896 -0.2577  0.0969
48917W        W91830  14.928  25.557   9.765  0.2055  0.2143 -0.3669
48918W        W91831   7.632  33.666   6.202  0.0074  0.0133  0.2120
48919W        W91832   1.711  17.001   1.751  0.4446  0.1018 -0.0637
48920W        W91833  27.076  26.933   8.315 -0.1613  0.1509 -0.0360
48921W        W91834  27.776  30.112   9.064 -0.0611  0.1690  0.3716
48922W        W91835  31.248   0.528   2.315 -0.5381 -0.1984 -0.2575
48923W        W91836  33.146  26.170   5.466  0.2293 -0.3604 -0.0217
48924W        W91837  25.434  26.628   7.346 -0.1770  0.2529  0.2363
48925W        W91838  33.410   0.792   7.608  0.3131 -0.1923 -0.1463
48926W        W91839  33.011  27.624   9.896 -0.1307  0.1659 -0.1549
48927W        W91840  32.145   4.313   0.824  0.0827  0.2966  0.3312
48928W        W91841   5.691   6.173  25.701  0.1656  0.1113  0.2744
48929W        W91842   5.800  17.478   8.643  0.2121  0.1720  0.2546
48930W        W91843   3.814   6.104   1.678  0.0624 -0.2632 -0.2016
48931W        W91844  27.641   5.562  10.311 -0.0106 -0.2894  0.2134
48932W        W91845  28.515  30.024   9.323 -0.0639  0.0325 -0.0439
48933W        W91846   7.277  33.883  11.180  0.1667  0.1115  0.1416
48934W        W91847  32.877  27.177   8.328  0.0382  0.2543 -0.1428
48935W        W91848  23.582  27.684   4.636  0.0947  0.1176 -0.5492
48936W        W91849  21.621  30.662   4.602 -0.2319  0.0394 -0.0395
48937W        W91850  32.841  30.464   9.840  0.1361 -0.0924 -0.0430
48938W        W91851   1.596  11.179   8.489 -0.2845 -0.1879  0.0195
48939W        W91852  27.838  22.323   2.957  0.0348  0.2754  0.3603
48940W        W91853  26.295  24.485  29.339  0.2082 -0.0992 -0.2660
48941W        W91854  32.455  23.133   6.665  0.0213  0.6689  0.1560
48942W        W91855  27.033  29.920   5.831  0.0800 -0.1405 -0.1225
48943W        W91856  30.393   3.614   7.331  0.2643  0.0757  0.1651
48944W        W91857  29.277   6.403   9.537  0.1200 -0.0404  0.1885
48945W        W91858   1.201  34.180  10.059  0.0401  0.2852  0.0730
48946W        W91859   5.220  25.215   8.899 -0.1560  0.2755 -0.1697
48947W        W91860   0.303  20.180   8.774  0.1432 -0.3168 -0.3758
48948W        W91861  27.737  28.519   2.584 -0.0522  0.0780  0.0778
48949W        W91862  29.520  31.120   7.622  0.1027  0.0534  0.0087
48950W        W91863  11.464   6.186   9.859  0.3284 -0.1543 -0.0199
48951W        W91864  32.153  29.919   9.297 -0.2048  0.0564 -0.0230
48952W        W91865  28.841  33.269  28.022 -0.4026 -0.0008  0.0122
48953W        W91866  30.123  19.696   2.980  0.0337 -0.1442 -0.1967
48954W        W91867  30.250  28.007   4.660 -0.0230  0.3875  0.1447
48955W        W91868  19.847  27.469   0.389 -0.2380 -0.2189 -0.1578
48956W        W91869  28.162  30.836   8.611  0.0946  0.0325  0.1748
48957W        W91870  32.581  32.825   8.184 -0.0885  0.0146  0.0674
48958W        W91871  28.638  20.550   6.777 -0.0206  0.1003 -0.0727
48959W        W91872  30.266  19.709   1.229  0.2769 -0.1955 -0.0963
48960W        W91873  28.253  28.365   3.845  0.1745 -0.2934  0.1047
48961W        W91874  28.657  29.411  29.333 -0.1574  0.0914 -0.2326
48962W        W91875  28.689  18.575   7.564 -0.0057  0.0816  0.0417
48963W        W91876   1.415   1.100   8.719 -0.0577  0.1940  0.2664
48964W        W91877  11.733  21.346   9.140  0.0294 -0.1442  0.2376
48965W        W91878   7.241  30.409   7.929  0.0448  0.2508 -0.0281
48966W        W91879  33.839  28.776   8.841 -0.1497  0.5051  0.1300
48967W        W91880  20.318  12.014   4.734 -0.0091 -0.1404  0.5363
48968W        W91881  31.036  18.271   4.132 -0.2593  0.2651  0.0524
48969W        W91882  25.138  30.482   3.358 -0.2288  0.3173 -0.0812
48970W        W91883  31.470  29.974   8.865 -0.0770 -0.1126  0.1302
48971W        W91884  28.597  30.111   1.659  0.0754 -0.3270 -0.0131
48972W        W91885  32.374  29.407   2.120 -0.0666  0.0752  0.1844
48973W        W91886   2.141   4.989   4.428  0.2236  0.1494 -0.0900
48974W        W91887   5.387  33.120   6.461  0.1830 -0.0774  0.0598
48975W        W91888  29.142  26.853  27.119 -0.4146 -0.0117  0.4055
48976W        W91889  27.470  31.013   4.303  0.0021 -0.0085  0.0540
48977W        W91890  30.392  32.641   4.189 -0.0134  0.0725  0.2463
48978W        W91891   5.187  19.791   6.094 -0.0115 -0.1227 -0.0493
48979W        W91892   5.693  26.893   2.708 -0.1762  0.1455 -0.0171
48980W        W91893   8.849  22.329   7.754  0.2174  0.2066 -0.1223
48981W        W91894  31.476  31.451   5.125  0.0459 -0.1203 -0.1374
48982W        W91895   5.885  14.411   6.268 -0.0761 -0.0195  0.1002
48983W        W91896  30.078   6.435   8.450  0.3190  0.3684 -0.1647
48984W        W91897   3.186   3.073  10.078  0.4284  0.3843  0.1165
48985W        W91898  29.037   1.701   4.631  0.1631  0.4274  0.4022
48986W        W91899  28.232  33.089   4.885 -0.0024  0.1156 -0.2762
48987W        W91900   4.840  13.101  28.484  0.1105  0.1126 -0.0044
48988W        W91901  28.429  10.591   7.391  0.1324  0.2832 -0.3221
48989W        W91902  24.146  20.298   2.354 -0.1474  0.1053 -0.2360
48990W        W91903  31.618  24.664   8.017  0.0544 -0.1369 -0.0292
48991W        W91904  31.456   2.146   2.084 -0.0270  0.2509  0.0686
48992W        W91905   2.651  26.829   7.620  0.1646 -0.0526 -0.0894
48993W        W91906  22.978  22.317   1.889 -0.2869 -0.3547  0.0904
48994W        W91907  25.951  25.384   4.168  0.2672 -0.3126 -0.0016
48995W        W91908  33.061  22.163   7.488 -0.1619  0.0261 -0.2165
48996W        W91909  30.681  23.404   2.520 -0.1539  0.2604  0.0657
48997W        W91910   6.101  28.752   8.693 -0.4125  0.1569  0.0636
48998W        W91911  31.968   3.121  29.710 -0.2501  0.0282  0.0232
48999W        W91912   3.874  32.668   8.910  0.0130 -0.1963 -0.3557
49000W        W91913  29.878  23.630   7.496  0.2206 -0.0368  0.1098
49001W        W91914  28.553  27.920   7.373 -0.1051 -0.0312 -0.3207
49002W        W91915  29.020  24.573   1.347  0.0181  0.1332  0.1140
49003W        W91916  30.754   0.559   1.470 -0.1253 -0.0253  0.0878
49004W        W91917   0.213  33.372   2.187  0.2505  0.1309  0.1946
49005W        W91918  18.757  12.826  26.617 -0.1768 -0.1974 -0.0230
49006W        W91919   0.594  27.379   8.466  0.1877  0.3357 -0.0049
49007W        W91920  33.622  21.826  27.787 -0.0125  0.0679  0.1731
49008W        W91921   2.579  20.659   8.514  0.0685  0.2637  0.0539
49009W        W91922   1.539  26.887   7.345  0.0948  0.2428 -0.1019
49010W        W91923  34.322  23.209   9.249  0.0041 -0.1063  0.2861
49011W        W91924   8.898  25.098   8.263  0.2665 -0.0198  0.1065
49012W        W91925   0.223  30.151   8.570  0.1182 -0.1902 -0.1304
49013W        W91926  28.619   5.704   7.012  0.2382  0.0811  0.3251
49014W        W91927  33.723  32.627  28.385 -0.2391  0.0278  0.2023
49015W        W91928  24.693  26.192   4.514 -0.1294  0.0220  0.2603
49016W        W91929  33.949  33.531  11.209 -0.1950  0.0227 -0.0711
49017W        W91930  28.749  28.285   3.996 -0.3987 -0.2669 -0.2221
49018W        W91931  30.836   3.865  27.639 -0.0489  0.0044  0.0136
49019W        W91932   8.118  25.330   4.469  0.1964  0.1071 -0.0466
49020W        W91933  31.438   3.069   8.702 -0.2252  0.0922 -0.0554
49021W        W91934  19.686  23.692  25.215  0.0364 -0.3263  0.5623
49022W        W91935  27.096   0.995  10.318 -0.2351  0.0656  0.0657
49023W        W91936  16.423  29.032   2.822 -0.0229 -0.3045  0.0581
49024W        W91937   5.406  29.704   8.014 -0.2151 -0.1323 -0.0718
49025W        W91938   5.651  26.592   4.658 -0.2856 -0.0267  0.3640
49026W        W91939  33.518  26.295  29.166  0.2462 -0.0990 -0.1140
49027W        W91940  11.116  32.025  10.374 -0.0036 -0.1321  0.4913
49028W        W91941  15.807  28.462   9.001 -0.2334  0.3124  0.1769
49029W        W91942  21.134   6.949   5.168  0.0283 -0.1312  0.0076
49030W        W91943  28.059  21.769   6.676  0.1373 -0.0782  0.0803
49031W        W91944  24.174  19.198   1.466 -0.0012 -0.0141 -0.0178
49032W        W91945   4.308  27.623   2.749  0.0642  0.0668 -0.0367
49033W        W91946  33.889  18.750   7.194 -0.1929 -0.0124 -0.3103
49034W        W91947  31.005   9.507   6.790  0.1140  0.0268  0.0492
49035W        W91948  30.371   4.226   4.707 -0.0839 -0.4113 -0.3263
49036W        W91949   7.225  29.726   6.156  0.0611 -0.0857  0.2074
49037W        W91950   5.352   7.519   9.093 -0.2089  0.2608  0.0105
49038W        W91951   3.734  22.189   4.641 -0.1172 -0.2471 -0.5106
49039W        W91952  18.899  28.031   5.773  0.0698  0.1482  0.1515
49040W        W91953   1.190  33.264  26.217  0.2042  0.1549  0.1209
49041W        W91954  34.060   3.486  10.412  0.3315  0.0011 -0.0415
49042W        W91955  32.055  28.456  10.264  0.3760  0.1309  0.0633
49043W        W91956  26.648  33.209   5.021 -0.0451 -0.0146 -0.4857
49044W        W91957  28.625  31.525   4.967 -0.3100  0.2880  0.3310
49045W        W91958  33.002  19.595   7.440  0.0033 -0.2046  0.0415
49046W        W91959   1.393  16.407  26.825  0.3470 -0.1297  0.3198
49047W        W91960  31.040  24.461   7.769  0.0281 -0.1099  0.1314
49048W        W91961  17.741   3.933   6.627 -0.0077 -0.3787 -0.1041
49049W        W91962  33.504  22.775   4.628 -0.1573 -0.1377 -0.1975
49050W        W91963   3.703  25.059   9.624  0.2845 -0.2576 -0.3514
49051W        W91964   6.322  27.821   3.304  0.3257  0.0423  0.1169
49052W        W91965  30.105  28.061   7.283  0.3319  0.1725  0.0534
49053W        W91966   3.841  27.007   0.954  0.1650  0.0846 -0.2803
49054W        W91967  33.940  22.944   5.020  0.3087 -0.1521  0.2615
49055W        W91968   4.760   7.933   5.749  0.0400  0.0748  0.0672
49056W        W91969   0.219   0.910  10.538  0.0201  0.3639  0.1617
49057W        W91970   3.196   8.918   8.992  0.2420 -0.2026  0.0123
49058W        W91971   3.676  19.224   1.524  0.2355 -0.1110  0.1705
49059W        W91972  31.705  33.285   9.209  0.0719 -0.1877  0.2040
49060W        W91973  25.134  29.259   1.947 -0.1635 -0.1033 -0.0043
49061W        W91974  31.135  22.673   1.582  0.3053  0.1977  0.0853
49062W        W91975  34.028  23.666   9.285  0.2738  0.0751 -0.2924
49063W        W91976   1.069   0.979   7.771  0.2004 -0.1039  0.1566
49064W        W91977   6.067   8.610   3.483 -0.0460  0.1459 -0.0563
49065W        W91978   8.033   3.648   8.446  0.3283 -0.0344  0.0803
49066W        W91979  31.071  28.423   2.562  0.0065  0.1171 -0.1130
49067W        W91980  31.532  30.102  28.176  0.2282  0.0031  0.1012
49068W        W91981  26.282  33.380   5.375  0.1491  0.1787  0.0325
49069W        W91982  32.697  27.871   0.482  0.0756 -0.1839 -0.1253
49070W        W91983   3.938  23.947   7.450  0.1986 -0.1661  0.0194
49071W        W91984  32.236  28.485   5.022 -0.1133 -0.1192 -0.1902
49072W        W91985  24.446  15.499   6.323 -0.0762  0.0005  0.0492
49073W        W91986  34.322  21.714  10.343 -0.4467  0.3646 -0.3290
49074W        W91987  24.867   8.180   1.501 -0.0115  0.0821  0.1298
49075W        W91988  29.001  29.396   8.953  0.0055 -0.3313  0.3259
49076W        W91989  30.465  27.812   5.067 -0.4521  0.0154  0.1404
49077W        W91990  29.440  23.864   4.867  0.1048  0.0397 -0.3860
49078W        W91991   3.253   3.326  12.521  0.4420  0.0326  0.4394
49079W        W91992  28.822  30.624   6.292 -0.1382 -0.1274 -0.1020
49080W        W91993   4.011   3.304   5.326 -0.0767 -0.0338  0.1535
49081W        W91994   0.711  24.050   6.872  0.0323 -0.0541  0.1389
49082W        W91995   5.850  23.451   1.680 -0.2218  0.2947 -0.0977
49083W        W91996   5.165  27.094   8.343  0.1084  0.0860  0.0493
49084W        W91997  28.450   3.139   1.953  0.0816  0.1915 -0.0391
49085W        W91998  22.064  33.451   4.615 -0.1482 -0.4239 -0.0215
49086W        W91999  22.708  16.997   2.934  0.1455  0.1795  0.3731
49087W        W92000   5.186  23.340   9.588 -0.0475 -0.0169  0.3962
49088W        W92001  29.591  31.969   5.701  0.1234 -0.2021 -0.1527
49089W        W92002   4.423  26.085  29.364  0.2411 -0.0405 -0.0304
49090W        W92003  22.230  17.072  24.612 -0.2645 -0.0404 -0.1856
49091W        W92004  30.091  21.330   8.945  0.0582  0.1667 -0.0068
49092W        W92005  22.349  26.542   2.690 -0.1053 -0.0020  0.0432
49093W        W92006   3.241  20.419   4.988  0.0145  0.0089  0.0307
49094W        W92007  31.220   3.393  10.076 -0.2246 -0.0842 -0.0656
49095W        W92008  31.807  30.013  27.284 -0.0663  0.1543 -0.4412
49096W        W92009  13.538  32.401  11.681  0.2124 -0.0706 -0.1136
49097W        W92010   3.732  30.763   8.714 -0.0766 -0.2757 -0.1008
49098W        W92011  22.611  31.597   5.582  0.2198  0.1323 -0.3734
49099W        W92012  10.060  24.056   6.584 -0.3318  0.2540  0.1975
49100W        W92013  21.352  29.474   8.907  0.0774 -0.0990 -0.0520
49101W        W92014  24.801  26.692   3.200  0.1309  0.3612 -0.0064
49102W        W92015  25.483   0.603   6.337  0.0628  0.1401  0.2601
49103W        W92016  22.827  23.552   3.434  0.1535  0.3288  0.4137
49104W        W92017  31.903  28.560   3.526  0.0001  0.0101 -0.1305
49105W        W92018  21.409  10.169   4.817 -0.2834  0.2821  0.0602
49106W        W92019  26.906  27.816   8.782 -0.0638  0.1036  0.1052
49107W        W92020  34.182  16.604   5.444  0.2151  0.3645 -0.2894
49108W        W92021   1.573  25.971   5.088  0.2187 -0.1580  0.0911
49109W        W92022  29.222  20.683   1.593 -0.2339 -0.2475 -0.1015
49110W        W92023   5.667  27.130   3.629  0.0816 -0.2249 -0.0833
49111W        W92024  25.716  27.515   7.040 -0.0798 -0.1162 -0.2071
49112W        W92025   0.878  22.555   7.790  0.0342  0.2564 -0.2735
49113W        W92026  30.760   1.810   9.062 -0.0609  0.0071 -0.0077
49114W        W92027   1.173  24.460  27.252 -0.2589 -0.0090  0.2042
49115W        W92028  29.883  23.719   4.127 -0.3299  0.2110 -0.0738
49116W        W92029   0.102  24.010   6.552  0.3985 -0.1110 -0.0209
49117W        W92030  25.665   8.992   3.183 -0.2575 -0.0965  0.1035
49118W        W92031  21.148  13.606   4.712  0.2388  0.0551 -0.1084
49119W        W92032  28.689  33.225   8.332 -0.1825 -0.1787 -0.1122
49120W        W92033  29.268  30.131   9.633  0.3912  0.0914 -0.3189
49121W        W92034   6.614  32.730  12.096 -0.2125  0.2214 -0.0236
49122W        W92035   1.938  22.723   7.058 -0.1476  0.0013 -0.0017
49123W        W92036   4.597  25.060   7.750 -0.1115 -0.2426  0.0880
49124W        W92037   1.216  26.323   5.251  0.1190 -0.0707  0.0845
49125W        W92038   9.065  21.100   6.765 -0.3950 -0.2647 -0.2223
49126W        W92039  33.260   0.648   3.805  0.0837 -0.0009  0.2756
49127W        W92040   4.135  29.154   5.916 -0.3607 -0.4237  0.0500
49128W        W92041  27.422  24.717   8.910  0.0708  0.1726  0.2381
49129W        W92042  11.783  25.682   7.792  0.1854 -0.0596  0.0402
49130W        W92043  14.678  10.082   5.192 -0.1778  0.0756  0.4198
49131W        W92044  21.714  17.645  28.367 -0.0408  0.3022  0.0997
49132W        W92045   1.156  32.610   6.248 -0.5618  0.0178  0.3903
49133W        W92046  28.327  17.137   6.525  0.2982 -0.1885  0.0993
49134W        W92047   3.468  10.928   2.532 -0.2770 -0.2603 -0.0505
49135W        W92048   3.862  27.850   8.240 -0.0357  0.2142 -0.2845
49136W        W92049   4.299  26.072   8.788  0.0977 -0.1729 -0.1397
49137W        W92050  31.099  13.477   8.565 -0.1365 -0.1561  0.2699
49138W        W92051   8.639  31.163   9.609 -0.0372 -0.0715 -0.1603
49139W        W92052  32.611  21.725   5.273  0.2909 -0.1460  0.0068
49140W        W92053  34.183  34.235   3.678 -0.1467  0.1622  0.1886
49141W        W92054  32.097  16.775   4.063  0.1512  0.2281  0.0329
49142W        W92055  33.212  34.458  11.645 -0.1634  0.0694  0.0935
49143W        W92056   1.764  30.752   3.281 -0.2106 -0.1259  0.0934
49144W        W92057   4.434  24.749   6.890 -0.1500 -0.1151  0.1299
49145W        W92058   8.083  33.729  11.050  0.1936 -0.2072  0.2062
49146W        W92059   4.153  22.503   9.316 -0.1185 -0.0594  0.1009
49147W        W92060   9.598  27.325  11.039  0.0353 -0.1797  0.0210
49148W        W92061   4.941   0.957  26.455  0.1010 -0.0373 -0.1498
49149W        W92062  29.511  18.852   2.367 -0.0300 -0.2398  0.0897
49150W        W92063  27.023  19.025   3.155 -0.1516  0.1144  0.0553
49151W        W92064  14.347   3.175   8.740 -0.1617  0.2720  0.1132
49152W        W92065  32.757   9.411   9.413  0.0763  0.2034  0.1995
49153W        W92066   2.818  29.835   1.228 -0.0544 -0.1609 -0.1356
49154W        W92067  33.027   5.351   4.018 -0.0459 -0.0487  0.1592
49155W        W92068   1.881  27.769   0.677 -0.1014  0.1273  0.0999
49156W        W92069  25.355  23.276   2.507 -0.2202 -0.2488 -0.2109
49157W        W92070  30.099  20.502   3.235  0.1351 -0.1385 -0.4115
49158W        W92071  30.798  18.446   9.634  0.2565 -0.2027 -0.0188
49159W        W92072  27.357  29.368   1.498  0.3286 -0.1992 -0.1995
49160W        W92073  32.175   1.180   6.318  0.1611 -0.0562  0.3213
49161W        W92074  23.970  33.573   3.265 -0.2565 -0.2377  0.2020
49162W        W92075   1.428  29.780   6.093  0.1426  0.0747 -0.0339
49163W        W92076   1.147  19.605   5.931 -0.0609  0.1361  0.3654
49164W        W92077  29.321  31.907   7.425 -0.1163 -0.1122  0.1038
49165W        W92078  22.052   6.226   6.415 -0.2271 -0.5525 -0.0520
49166W        W92079  29.846  20.934   3.278  0.0832 -0.0502  0.1727
49167W        W92080   3.127  30.670   6.103  0.1255 -0.0296 -0.1138
49168W        W92081   6.716  34.277  10.426 -0.0345 -0.1059 -0.1396
49169W        W92082   7.832  30.554   5.533 -0.0758  0.0121  0.0519
49170W        W92083   5.365  24.463   8.415 -0.0128 -0.0692 -0.0503
49171W        W92084  24.077  20.586   8.235  0.0916 -0.0186  0.2548
49172W        W92085  32.780  24.413   9.830 -0.1157 -0.1398  0.1041
49173W        W92086  28.335  31.801   9.671  0.2545  0.1927 -0.2800
49174W        W92087  27.867  26.182   5.739  0.1161  0.3768  0.0378
49175W        W92088   4.961  23.974   0.172 -0.0984 -0.1888 -0.0485
49176W        W92089  22.563  17.779  23.940  0.2471  0.0491  0.1495
49177W        W92090  16.145   0.058  10.406 -0.0085 -0.1636  0.0087
49178W        W92091  32.492  24.796  26.548 -0.1722  0.1166  0.0648
49179W        W92092  28.691  22.547   6.951  0.2862 -0.0340  0.0047
49180W        W92093  28.298  24.922   8.660  0.1389 -0.0089  0.1887
49181W        W92094   4.028  19.111   2.676  0.0944  0.0241  0.0104
49182W        W92095  27.905  25.512  29.334 -0.2814  0.1278  0.1431
49183W        W92096  31.636  20.990   9.192 -0.2524  0.0709 -0.0528
49184W        W92097  21.632  15.013   2.538  0.0201  0.2422  0.0364
49185W        W92098  26.413   1.124   8.980 -0.0404  0.1851 -0.0397
49186W        W92099  31.155  29.211   3.331  0.0949  0.0491  0.0756
49187W        W92100  25.054  25.688   4.149 -0.0229 -0.0378  0.3675
49188W        W92101  25.337  26.896   8.550  0.0929 -0.1164  0.0399
49189W        W92102   7.090   2.712   8.669  0.0997 -0.3374  0.1764
49190W        W92103   1.041  33.308   2.570  0.4221  0.1511 -0.5431
49191W        W92104   9.659  26.201   9.300 -0.1480  0.0922  0.1254
49192W        W92105  32.668  27.281   3.381  0.0672  0.2059  0.3654
49193W        W92106  20.699  26.558   6.862 -0.1024 -0.0711 -0.0360
49194W        W92107  26.105   1.291   5.128 -0.0520  0.0279 -0.0833
49195W        W92108   5.778   2.825  12.844 -0.3114 -0.0028  0.1489
49196W        W92109   1.602  31.898   3.694  0.1021 -0.1111  0.0301
49197W        W92110   4.219  29.571   6.207 -0.0296 -0.1504 -0.1244
49198W        W92111   6.859  18.194   9.343  0.0575  0.3567  0.0697
49199W        W92112  30.522  30.058  27.561 -0.0381  0.3268 -0.3395
49200W        W92113  29.675  25.927  29.630  0.1008 -0.4145  0.0805
49201W        W92114   0.669   6.731   5.243  0.2929  0.1262  0.0971
49202W        W92115  32.282   9.158   8.717 -0.2022 -0.1907 -0.0365
49203W        W92116  30.469  26.078  29.333  0.1386  0.1405  0.0171
49204W        W92117  33.671  31.747  27.775  0.2626 -0.1694  0.1561
49205W        W92118  31.291   2.943   9.817  0.2009  0.2051 -0.3698
49206W        W92119  31.873  28.694  23.182  0.0825 -0.4460 -0.1355
49207W        W92120  32.860  32.788   5.582  0.0188  0.2929 -0.1376
49208W        W92121  32.669  29.056  10.100  0.2219 -0.1603  0.1578
49209W        W92122  30.948  34.046  28.554 -0.3143  0.1382 -0.0937
49210W        W92123  31.910  23.538   1.425  0.2494  0.2962  0.3492
49211W        W92124   4.786   6.053  23.663  0.3987 -0.2359  0.2714
49212W        W92125  29.741   3.897  25.774 -0.3742 -0.2905  0.2487
49213W        W92126  26.285  24.698  27.706  0.0333  0.1151  0.0524
49214W        W92127   2.608   9.157   2.068  0.0731 -0.0939  0.1157
49215W        W92128   8.812   2.546   0.668 -0.0806 -0.0188  0.0075
49216W        W92129   2.588  28.226   3.179 -0.1834 -0.0199 -0.1159
49217W        W92130   3.549   0.847   2.923 -0.0017  0.0993 -0.1592
49218W        W92131  28.135   0.328  26.164 -0.0942  0.1245  0.1519
49219W        W92132   3.873   3.389  29.691 -0.4827 -0.0501 -0.1746
49220W        W92133  23.844  32.428   8.189 -0.0131 -0.0794  0.3476
49221W        W92134  26.361  33.486   9.020 -0.2144  0.0669 -0.3102
49222W        W92135   0.990  25.380  25.436 -0.0445 -0.2611  0.2067
49223W        W92136  25.121  31.616   1.507  0.1566 -0.1012  0.0319
49224W        W92137  29.385   3.678   0.238  0.0297  0.2037  0.0246
49225W        W92138  24.557   0.137   2.649 -0.0502  0.1173  0.1572
49226W        W92139  27.348   3.119  29.683  0.1169 -0.0093 -0.1117
49227W        W92140  33.633  30.649  26.285 -0.3215 -0.3291 -0.1370
49228W        W92141  26.919   2.912   0.165  0.4409 -0.0891 -0.1446
49229W        W92142  29.461  21.107   7.035  0.1417  0.2159 -0.1718
49230W        W92143  29.709  24.140  25.508 -0.1789 -0.3379  0.0594
49231W        W92144  33.476   3.414   7.247  0.1432  0.2210 -0.0657
49232W        W92145  25.874   5.091  27.666 -0.1402  0.1085  0.0281
49233W        W92146   3.775   6.385   6.204 -0.0029 -0.0634  0.2377
49234W        W92147  25.040   8.209  24.830  0.0775  0.1150  0.1017
49235W        W92148   1.379  25.696  28.689  0.0193 -0.2814  0.3049
49236W        W92149  29.687   6.147  26.921  0.2947 -0.0524  0.3041
49237W        W92150  30.408   4.650   0.884  0.0321  0.0822  0.2938
49238W        W92151   5.349  24.735   2.372  0.1753  0.0824 -0.0730
49239W        W92152  21.873  23.593   4.242 -0.2213 -0.0681 -0.1344
49240W        W92153  24.707   3.557  28.513  0.0058  0.0601  0.2136
49241W        W92154   4.567   2.335  29.742 -0.0776  0.2242  0.0620
49242W        W92155  31.943   8.829  23.255 -0.1185 -0.3151 -0.2640
49243W        W92156  31.544   4.083  10.754 -0.2856  0.0179  0.1095
49244W        W92157  32.536  34.238   7.764 -0.1081  0.1585 -0.0351
49245W        W92158  26.693   5.232   2.589 -0.1439  0.0616  0.1513
49246W        W92159   6.361   6.232   2.882 -0.0341  0.1513  0.1075
49247W        W92160   4.048  26.069   4.953  0.2961 -0.3202 -0.0880
49248W        W92161   1.813   0.640   1.635 -0.0372  0.0539 -0.0599
49249W        W92162  32.269  13.496  28.960  0.1506 -0.0569  0.0790
49250W        W92163  30.440   6.926   1.974  0.0969  0.1480 -0.2029
49251W        W92164   1.700  25.417   6.259  0.2916 -0.0212  0.2630
49252W        W92165  34.074   3.539   0.317 -0.0816  0.0961 -0.0279
49253W        W92166   3.761  30.913  24.405 -0.3448 -0.1212  0.0073
49254W        W92167  28.432  33.422   3.573 -0.0161  0.0796  0.1208
49255W        W92168  34.414  27.307  23.381 -0.1335 -0.0522  0.1774
49256W        W92169  31.185  31.737   8.567 -0.0913  0.0536 -0.2121
49257W        W92170   0.413  19.360   3.079  0.2538 -0.1873 -0.6199
49258W        W92171  25.601   6.231  27.711  0.0787  0.2214  0.2799
49259W        W92172  29.593  30.802  29.053  0.4992 -0.3329 -0.0079
49260W        W92173   6.472   0.450   8.606 -0.0017 -0.0261  0.3070
49261W        W92174  23.013  23.703  29.012 -0.2511 -0.3489  0.1009
49262W        W92175  29.727   4.093   0.480  0.2173  0.1341 -0.0318
49263W        W92176  29.141  32.161  18.542 -0.0130  0.0163 -0.0695
49264W        W92177  28.433  26.072   6.603 -0.0556  0.1114  0.1372
49265W        W92178   9.765  25.626   1.970  0.1481  0.0353  0.2402
49266W        W92179  28.499  29.360  21.976  0.0061 -0.1877  0.2344
49267W        W92180  27.091   6.747   9.428 -0.1440 -0.0850  0.3658
49268W        W92181  25.288  33.745  24.682  0.1817 -0.1805  0.1086
49269W        W92182  21.777  33.389   0.182 -0.0939 -0.2357  0.0750
49270W        W92183  29.130  26.372  24.462  0.2844 -0.0923  0.1400
49271W        W92184  30.482  28.863  26.513  0.1451  0.0568  0.2152
49272W        W92185  28.992  34.205  26.236  0.1020  0.0010 -0.0268
49273W        W92186  29.444  32.888  27.271 -0.1014 -0.1061  0.1165
49274W        W92187  25.958  29.501   3.199 -0.0922  0.1158 -0.0222
49275W        W92188  27.910   6.801   4.439  0.1357  0.0920 -0.1480
49276W        W92189   1.388  32.008  29.761  0.0011 -0.0389 -0.1006
49277W        W92190  29.348  23.462  27.292 -0.1651  0.1384  0.0153
49278W        W92191  31.517   0.013  18.863 -0.2385  0.0629  0.0826
49279W        W92192  21.664  29.033   6.859  0.0406 -0.0773 -0.0259
49280W        W92193   2.689   4.111  10.740 -0.1172 -0.4782 -0.1509
49281W        W92194  26.403  32.268  27.663 -0.1783 -0.3646  0.0564
49282W        W92195  34.301  30.104   5.978  0.0423 -0.1084  0.0391
49283W        W92196  25.853   5.549   3.752  0.3614  0.1914 -0.3873
49284W        W92197  13.230  32.623  25.209 -0.0727 -0.1134 -0.2018
49285W        W92198  30.517   2.852   5.923 -0.1143  0.2167 -0.1042
49286W        W92199   4.602   6.917   9.297  0.2010  0.3675 -0.1059
49287W        W92200  25.897  21.260  28.544  0.0973 -0.3579 -0.0271
49288W        W92201  11.603   1.601  28.606  0.2681  0.1331 -0.1612
49289W        W92202  26.179   0.097   3.314  0.2806 -0.2245 -0.3251
49290W        W92203  30.649  27.419   9.314 -0.1529 -0.2709  0.0958
49291W        W92204  30.103   6.422   2.984  0.4676 -0.2326 -0.4522
49292W        W92205   5.028  32.657  24.933 -0.3147  0.2003 -0.0310
49293W        W92206   0.546  27.810  29.277  0.4694  0.1484  0.0837
49294W        W92207   0.718  33.069   2.158 -0.1119 -0.1700  0.3159
49295W        W92208  29.631  20.132   4.413  0.3274 -0.0034  0.0120
49296W        W92209  23.287   4.181   2.917 -0.0592  0.3631 -0.5341
49297W        W92210  27.044  26.702   0.208  0.0158 -0.2281 -0.2958
49298W        W92211   0.974   4.693   0.770  0.0237  0.0800  0.2049
49299W        W92212  23.128  14.882   4.784  0.1591 -0.0607  0.0388
49300W        W92213  21.446  28.605  28.259 -0.0962 -0.3770  0.2947
49301W        W92214  19.062   6.621   7.391  0.0513  0.1372  0.0589
49302W        W92215  34.092  26.606   7.082  0.1690 -0.1000  0.3016
49303W        W92216  23.646   4.568   4.063  0.0861  0.1343  0.0005
49304W        W92217  14.253  32.036  24.068  0.1488  0.3134 -0.0740
49305W        W92218  24.900   5.989  29.143  0.1139  0.0474  0.1462
49306W        W92219  27.344  26.872  28.971 -0.0773 -0.0268  0.2620
49307W        W92220   0.156  23.576   0.715  0.0858  0.3681 -0.1978
49308W        W92221  28.207   7.477   1.604  0.3582 -0.3836  0.0205
49309W        W92222   2.048  28.999  28.695 -0.0189 -0.0847 -0.0007
49310W        W92223  21.892   3.675   3.438 -0.1164 -0.0676  0.0578
49311W        W92224   0.012   3.043   4.794  0.1118 -0.1820 -0.0271
49312W        W92225  30.950  27.729   0.639 -0.0271 -0.0223 -0.2524
49313W        W92226  28.179  11.825   6.692 -0.0640 -0.0580  0.1816
49314W        W92227  23.291  29.272   2.621 -0.2487  0.2209  0.0264
49315W        W92228  31.695   6.408   3.595  0.5062  0.1905 -0.0275
49316W        W92229  28.629  31.306  25.429  0.0830 -0.0192 -0.3188
49317W        W92230   4.714  17.305  28.609  0.0730  0.0390 -0.2617
49318W        W92231  26.864  31.495   0.898 -0.1972  0.3654  0.0909
49319W        W92232  27.639  18.059   1.228  0.0188 -0.2665 -0.1455
49320W        W92233  28.319  32.282  28.143  0.1000  0.0732  0.2063
49321W        W92234  25.176  12.552  28.320  0.0305 -0.0137  0.2415
49322W        W92235   2.619  33.655   1.598 -0.3458  0.3760  0.0530
49323W        W92236   8.498   7.371   7.478 -0.4484  0.0648 -0.0577
49324W        W92237  10.341  25.160   5.034 -0.0483  0.1280 -0.0665
49325W        W92238  19.516   7.784  25.054  0.1683  0.2033 -0.2604
49326W        W92239   1.937   1.363   8.740  0.1434 -0.2901  0.0976
49327W        W92240   6.554  25.542  29.742  0.2533  0.3524 -0.2988
49328W        W92241   2.396  28.902  27.854  0.1110 -0.0010 -0.0042
49329W        W92242  27.646  32.139  27.331  0.1408  0.1328  0.0505
49330W        W92243  25.593  33.638   8.433 -0.3233 -0.1122 -0.0066
49331W        W92244  32.732  32.669   8.751  0.0525 -0.3422  0.1885
49332W        W92245  19.691  31.818   3.893 -0.0978  0.1769 -0.2340
49333W        W92246  18.449  27.800   6.947 -0.0819 -0.3824  0.5336
49334W        W92247  31.621  33.680   2.108  0.2156  0.1679  0.3104
49335W        W92248   2.400  25.954  23.916 -0.1073  0.0725  0.2846
49336W        W92249   6.072  29.794  10.980  0.1125  0.0995  0.1776
49337W        W92250  31.972   4.788   8.014 -0.1426 -0.0005 -0.2395
49338W        W92251  32.847   3.953  18.981 -0.0108  0.1397  0.0553
49339W        W92252  27.019  29.439   5.817  0.3781 -0.1094  0.0070
49340W        W92253  22.002  26.242   6.890 -0.0182  0.3875  0.1092
49341W        W92254  26.757  29.159   8.047 -0.4393  0.1471  0.2190
49342W        W92255  32.137  28.379  24.783  0.0283 -0.1281 -0.1256
49343W        W92256  12.053  20.030  28.677 -0.2227  0.2389  0.1654
49344W        W92257  29.035  24.931  17.311  0.1105 -0.0305  0.0033
49345W        W92258   1.658  25.495  27.890  0.1761 -0.0166 -0.0630
49346W        W92259  30.333   5.716   1.769  0.0581  0.1626 -0.0148
49347W        W92260   1.530   5.055  26.430 -0.0490 -0.2479 -0.0556
49348W        W92261  27.847  26.297   2.935 -0.0395  0.1255 -0.2409
49349W        W92262  28.415  30.243   0.725  0.1837  0.1167 -0.1634
49350W        W92263  11.927   0.376   8.114 -0.1339  0.1793 -0.0219
49351W        W92264   8.994  19.727  27.067  0.3739 -0.1442  0.1743
49352W        W92265  20.974  20.959   4.651  0.0801  0.1823  0.0282
49353W        W92266  30.374   2.345  27.850  0.1235  0.0114 -0.1447
49354W        W92267  25.763  33.636   7.178  0.0666 -0.5187 -0.0536
49355W        W92268  23.207   8.452   4.175  0.0267  0.0916  0.0477
49356W        W92269  22.110   2.151   5.277  0.5025 -0.1199  0.3792
49357W        W92270  32.576  19.941   4.426  0.0972 -0.0268  0.0897
49358W        W92271  24.903  21.564   2.251  0.0392 -0.0547  0.2799
49359W        W92272   3.172   2.384  11.092  0.2718  0.0824 -0.0660
49360W        W92273  34.206   3.605  26.690 -0.3040 -0.0653  0.3868
49361W        W92274  14.454   0.840   5.047 -0.0798  0.0339 -0.0678
49362W        W92275  30.719  30.941   1.780 -0.1289  0.1459 -0.1422
49363W        W92276  22.208  10.956  25.142  0.0276 -0.2428  0.1998
49364W        W92277  30.015  31.004   8.974 -0.1102 -0.0944 -0.2379
49365W        W92278  25.788  28.080  26.180 -0.4041  0.0724 -0.0857
49366W        W92279  29.703  32.240   6.581  0.3146 -0.1776 -0.1726
49367W        W92280  28.520  10.831  29.062 -0.1020  0.2226 -0.1900
49368W        W92281  32.019   2.356   2.787 -0.1981 -0.3009 -0.1884
49369W        W92282   6.956  28.581  24.611 -0.3704 -0.2175 -0.0107
49370W        W92283   9.512  31.584  24.213  0.1359 -0.2009  0.1775
49371W        W92284   6.923   0.282   6.436 -0.2045  0.0889  0.0509
49372W        W92285  26.598   0.354   0.132 -0.2542  0.2736 -0.2812
49373W        W92286  27.201   3.905   4.661 -0.0342  0.0752  0.1994
49374W        W92287  22.524   2.179   0.183 -0.0367  0.0315 -0.0242
49375W        W92288  30.865   7.662  10.810  0.2167 -0.0353  0.2515
49376W        W92289   0.319  27.867   3.837 -0.1084  0.0404  0.1939
49377W        W92290  32.842  23.306   0.034 -0.2158  0.0699 -0.3984
49378W        W92291  33.542   1.035   3.880 -0.0824 -0.1663 -0.0378
49379W        W92292  27.816  32.591  24.838 -0.2238  0.1732  0.1709
49380W        W92293   6.151   3.957  12.289  0.2653 -0.0590 -0.0001
49381W        W92294  28.893  25.536   7.652  0.3282  0.5224 -0.0145
49382W        W92295  10.944  31.232  26.666  0.0757 -0.2682  0.1277
49383W        W92296  30.551   6.789  11.007  0.0621 -0.0887  0.1618
49384W        W92297  26.808  12.336  21.945  0.1693 -0.1304 -0.2650
49385W        W92298  23.696  22.023  26.241  0.0392  0.0927 -0.0976
49386W        W92299  26.837  29.354  28.625 -0.1216 -0.1256 -0.1848
49387W        W92300  21.031  23.569  21.551  0.1886  0.1929  0.3332
49388W        W92301  19.411  32.245   2.775 -0.1998 -0.4812  0.0641
49389W        W92302  21.346  29.227  28.899 -0.0537 -0.0071 -0.0335
49390W        W92303  24.545  25.082  29.307 -0.0221 -0.0164  0.0688
49391W        W92304  12.363  19.592   1.234  0.3390  0.2392 -0.2105
49392W        W92305  29.494  27.476   4.185  0.0075 -0.0776 -0.1893
49393W        W92306   6.955  30.262   6.876 -0.1942 -0.1871 -0.2175
49394W        W92307  27.613  23.790   5.689 -0.1506 -0.0115  0.0668
49395W        W92308  29.066  31.051  27.019 -0.0193  0.2870 -0.2377
49396W        W92309  31.296  29.212   6.961  0.3415 -0.1591 -0.1944
49397W        W92310  26.761   2.473   1.082  0.1321  0.1217 -0.3173
49398W        W92311  27.210   1.799   2.647 -0.0841 -0.2085  0.0394
49399W        W92312   8.046   3.365  28.854  0.0418 -0.1360  0.0716
49400W        W92313   2.138  25.918   2.745  0.1898  0.0823  0.4129
49401W        W92314  20.996   0.601   2.933  0.0868  0.1057 -0.2427
49402W        W92315   2.301  27.921   5.287  0.3783 -0.0884  0.2363
49403W        W92316  29.172   4.293   1.238  0.2292 -0.0276 -0.1099
49404W        W92317  28.969  33.222  21.403 -0.1446  0.4034  0.2777
49405W        W92318  20.919  34.109  26.572 -0.2357  0.3021 -0.2047
49406W        W92319  31.224  29.578   4.670  0.0492  0.0237  0.2280
49407W        W92320  34.003  32.029   0.997  0.0054 -0.2597 -0.2008
49408W        W92321  28.988  29.410   0.850 -0.2848 -0.1180 -0.0954
49409W        W92322  28.291  31.734   0.387  0.1035 -0.0557  0.0464
49410W        W92323  29.711   7.203   5.829  0.0134 -0.2315 -0.0245
49411W        W92324   4.422   7.211   1.005  0.1009 -0.0307  0.0544
49412W        W92325  30.841   4.298   3.425  0.0417 -0.0287 -0.0582
49413W        W92326   3.618  30.228   1.492 -0.0494 -0.1131 -0.2296
49414W        W92327  23.971   6.585   5.224  0.1558 -0.1372 -0.0870
49415W        W92328   2.037  28.402   2.497  0.3111 -0.0242  0.0867
49416W        W92329   0.386  32.483  28.996  0.0261 -0.1685  0.2873
49417W        W92330  19.368  27.541   8.359 -0.2954 -0.0272 -0.0525
49418W        W92331   0.496  31.746   7.061  0.0223 -0.1462  0.1447
49419W        W92332  30.010  29.752  29.115 -0.0735 -0.2335  0.0801
49420W        W92333   6.040   6.262   2.465 -0.0808 -0.0044  0.2884
49421W        W92334  24.195  30.816   3.879  0.2017  0.4475 -0.0837
49422W        W92335  26.349   5.473   3.702  0.1354 -0.3555 -0.1177
49423W        W92336  31.094  17.562  21.749  0.0240  0.1281 -0.1565
49424W        W92337  29.426  28.163  25.066  0.0529 -0.0354 -0.0618
49425W        W92338   6.416  26.578   5.101  0.2038  0.2013  0.1451
49426W        W92339  22.960  31.837   5.827 -0.1537 -0.3604  0.0305
49427W        W92340   0.927   8.779   1.695 -0.1569  0.0529 -0.1530
49428W        W92341  29.545  28.715   3.472 -0.1779 -0.4864  0.2668
49429W        W92342   1.483  12.783   3.539 -0.1823  0.1853  0.1218
49430W        W92343  25.367  27.928   1.899  0.1041  0.1617  0.4982
49431W        W92344  27.461  25.899   2.252 -0.0345  0.2768 -0.4440
49432W        W92345  33.964  25.205   7.784  0.0608  0.1779 -0.2805
49433W        W92346  32.447   1.811   4.884 -0.1477 -0.2012 -0.2522
49434W        W92347  30.379   1.579   8.623  0.0031 -0.0953 -0.1597
49435W        W92348   4.540  26.262  20.070 -0.1037  0.1114  0.0947
49436W        W92349   5.488  27.991  27.489  0.1956 -0.2051  0.0498
49437W        W92350  30.993  24.469   0.526  0.2865  0.0423  0.0045
49438W        W92351  31.089  28.072   1.840 -0.1757 -0.3181 -0.2633
49439W        W92352  25.392  31.545   1.968  0.1338  0.2293  0.3486
49440W        W92353  30.479  28.981   4.271  0.0700  0.1516  0.1364
49441W        W92354  32.605  25.274   1.425  0.0423  0.2341  0.1426
49442W        W92355  21.694  31.207   8.427 -0.1076 -0.0698 -0.2007
49443W        W92356  25.780  31.921   6.609 -0.0143 -0.2593  0.1609
49444W        W92357  27.167  29.754   8.462 -0.1121 -0.2489 -0.1905
49445W        W92358  33.437  24.528  24.395 -0.0589  0.0684 -0.0294
49446W        W92359  32.221  20.713   4.594  0.0066  0.0309  0.1668
49447W        W92360  23.564   3.549   2.200  0.2380  0.1131 -0.2162
49448W        W92361  22.902  32.370  17.969 -0.0522 -0.1685  0.1257
49449W        W92362   8.311  32.348   9.210 -0.2213  0.0589  0.3477
49450W        W92363  27.371  24.562   3.423 -0.2491  0.2029 -0.1334
49451W        W92364  30.229  12.571   0.211  0.0039  0.2385  0.0068
49452W        W92365  31.798  25.859   4.582  0.0677  0.0815  0.1700
49453W        W92366  31.008  27.275   0.813  0.3217 -0.1478  0.1919
49454W        W92367  25.834   2.966   9.384  0.2634  0.2302  0.1007
49455W        W92368  21.768  31.255   9.357 -0.1234 -0.0759 -0.1215
49456W        W92369  29.426   6.306  24.976 -0.0243 -0.0342 -0.1143
49457W        W92370  31.021   0.998  23.195  0.0831  0.0657  0.0764
49458W        W92371  29.417   3.288   9.988  0.1698 -0.0031 -0.4307
49459W        W92372  20.188  16.020  27.659  0.1659  0.1920  0.4910
49460W        W92373  31.543   4.864   7.562  0.0625  0.3563 -0.2920
49461W        W92374  32.054  29.416   3.838 -0.2466 -0.1532  0.3020
49462W        W92375   1.233  29.222   8.244  0.2074  0.1707  0.2734
49463W        W92376  26.447   7.405   3.774  0.1943 -0.0686 -0.0005
49464W        W92377  10.216  32.168  22.679  0.0068 -0.1733  0.0809
49465W        W92378  24.879   2.894   5.304  0.0780  0.1818 -0.0264
49466W        W92379  33.889  31.565   6.301  0.0958  0.0830 -0.0353
49467W        W92380  32.923  34.392   6.176  0.0088  0.0729  0.2654
49468W        W92381  32.250   8.158  25.288 -0.0009  0.0190 -0.0299
49469W        W92382   2.833  25.059   6.981  0.2266 -0.2663 -0.0525
49470W        W92383  20.808   1.766   0.519 -0.0391 -0.1551  0.2538
49471W        W92384  24.247   1.738   8.362 -0.1030  0.1361  0.0115
49472W        W92385  30.274   3.757   5.300  0.2808  0.1257 -0.0703
49473W        W92386  31.087  32.886  10.304  0.0931  0.0251 -0.1837
49474W        W92387   3.648  13.441   3.900  0.3961 -0.3764  0.0316
49475W        W92388   6.289  33.584   0.470 -0.1965 -0.1771  0.1648
49476W        W92389   2.744  25.722   1.502  0.1349  0.2466  0.0296
49477W        W92390  29.963  30.504   2.416  0.3233 -0.0276 -0.0482
49478W        W92391  26.216   2.277   7.327 -0.0101 -0.1103  0.3191
49479W        W92392  32.423   2.658   6.777  0.0766 -0.0705  0.2138
49480W        W92393  31.398  33.001  29.463  0.2381  0.0528 -0.2090
49481W        W92394  25.728  32.151   4.390  0.1666 -0.2797 -0.0904
49482W        W92395  30.108  30.529  29.065  0.1585 -0.3107 -0.0237
49483W        W92396  31.824   5.230  27.262 -0.0177  0.0574 -0.1350
49484W        W92397   6.138  17.774   0.765 -0.1434  0.1415  0.0338
49485W        W92398  26.929  29.985  25.361  0.4700  0.0010  0.1721
49486W        W92399  30.766  33.794   6.060  0.1963 -0.0653 -0.1934
49487W        W92400  27.760  27.680   3.328 -0.0340 -0.2106 -0.2847
49488W        W92401  26.227  31.540  26.707 -0.0838 -0.2452 -0.0076
49489W        W92402  30.909  23.133   3.478 -0.0024 -0.1352 -0.0184
49490W        W92403   5.081  29.195   4.653 -0.2383  0.0318 -0.1600
49491W        W92404  33.772   0.285  25.700 -0.4596  0.0290  0.0099
49492W        W92405  26.986   6.181  10.287  0.0400 -0.2017 -0.1678
49493W        W92406  28.737  33.657  21.164 -0.2862 -0.1371  0.0012
49494W        W92407  24.981   3.310   7.090 -0.1365  0.2020 -0.2729
49495W        W92408  34.179  30.483   5.478  0.0840 -0.0311  0.1060
49496W        W92409  28.932   5.115   8.725  0.2375  0.2064 -0.0879
49497W        W92410  28.479   1.336  26.279 -0.0627 -0.4011 -0.1696
49498W        W92411   0.352  27.916  19.584  0.1891 -0.1201  0.0920
49499W        W92412  15.132  23.348  26.785  0.2028  0.0731 -0.1608
49500W        W92413  32.325  10.048   2.914  0.2275 -0.0434  0.0467
49501W        W92414  29.464  34.465  26.317  0.4398 -0.0088  0.0762
49502W        W92415   6.042   1.973   1.958 -0.2965  0.7216 -0.1409
49503W        W92416  31.536  18.703  10.138 -0.0602  0.1540  0.0241
49504W        W92417  33.673  30.774   7.288 -0.0014  0.1001  0.1053
49505W        W92418  23.547   5.173   2.169  0.2837 -0.0434 -0.1233
49506W        W92419  21.764  30.482   3.876  0.5434 -0.1231 -0.0338
49507W        W92420  31.449  30.600  29.505 -0.3491  0.1348  0.2425
49508W        W92421  18.215  25.614   4.548 -0.0067  0.0300 -0.0405
49509W        W92422  29.772  22.479   2.538  0.0466  0.0566 -0.1311
49510W        W92423   5.711  29.600  10.651  0.2494 -0.0212  0.0014
49511W        W92424   3.778  34.256   1.933  0.0952 -0.0970  0.0215
49512W        W92425  33.309   1.045   5.767 -0.1527  0.2722  0.0244
49513W        W92426  15.240   3.053   3.956 -0.1014  0.0603  0.1558
49514W        W92427  30.383  31.056  23.775  0.0179 -0.0236  0.2820
49515W        W92428  32.907  32.703   1.205  0.1116 -0.0012  0.4381
49516W        W92429  27.928  29.651   4.727  0.1004 -0.1024 -0.1493
49517W        W92430   1.330   0.041  25.823  0.0601 -0.2501  0.1793
49518W        W92431  29.419  33.123   7.979  0.0479 -0.0969  0.0451
49519W        W92432   7.572  23.190   1.901 -0.1729  0.1252 -0.2446
49520W        W92433  27.631  29.083   8.997  0.2255 -0.1610 -0.2098
49521W        W92434  30.566  31.382   3.608 -0.5382 -0.0795  0.0145
49522W        W92435   1.019   3.792   7.800 -0.1071 -0.1896  0.1163
49523W        W92436  26.200  10.401   0.239 -0.2016 -0.3923 -0.0966
49524W        W92437  19.139  26.511   3.165 -0.0239 -0.3442  0.2213
49525W        W92438  30.684  31.698   7.586  0.0963 -0.3759 -0.0031
49526W        W92439  31.958   3.417   2.494 -0.1532  0.3650  0.0972
49527W        W92440  33.047  28.724   6.245  0.0885 -0.0517 -0.0473
49528W        W92441  34.383  29.325   5.933  0.3562  0.1094  0.1525
49529W        W92442   6.934   0.242   4.528 -0.0556  0.0816 -0.1795
49530W        W92443  25.605  32.937   2.877 -0.1123  0.0799 -0.0623
49531W        W92444   5.154  30.177   4.825 -0.1813  0.0826 -0.0975
49532W        W92445  25.620   4.571   4.803 -0.0377  0.4763 -0.2807
49533W        W92446  29.097  34.338  23.585  0.0681 -0.3702  0.0407
49534W        W92447  10.031  29.863   9.651  0.2226 -0.1575  0.1081
49535W        W92448  30.893   0.806  28.540 -0.0356 -0.0450  0.0414
49536W        W92449  32.844  29.503   4.359 -0.1014 -0.1285  0.1381
49537W        W92450  26.353   2.339  10.012 -0.0464 -0.1118 -0.1112
49538W        W92451  33.617  28.661   2.094  0.0054  0.1166 -0.1713
49539W        W92452  26.677  29.884   3.310 -0.0330  0.0776  0.0638
49540W        W92453   5.910  33.268  10.630  0.3021  0.3515  0.2530
49541W        W92454  33.385  30.669  26.735 -0.2303 -0.2142 -0.1185
49542W        W92455  12.475  28.078   8.887  0.0197 -0.1130 -0.1462
49543W        W92456  27.561  17.872   3.104  0.0678 -0.4867  0.0240
49544W        W92457  30.232  13.542  29.401 -0.1949 -0.0475 -0.1430
49545W        W92458  27.957   0.348   6.315  0.4286 -0.1836 -0.0216
49546W        W92459   5.132   2.738   0.749 -0.1024 -0.1420  0.0667
49547W        W92460  28.913  29.805   1.143  0.2717 -0.2075  0.2108
49548W        W92461  30.912   6.227   8.425 -0.1059 -0.0198  0.3903
49549W        W92462  33.224   2.320   8.534 -0.1850  0.0918  0.0734
49550W        W92463  29.580  15.535  17.192 -0.0146  0.1381  0.1159
49551W        W92464  26.464   5.803  28.236  0.1242  0.1934 -0.0242
49552W        W92465  28.451   2.721   3.991  0.1258 -0.0336 -0.0632
49553W        W92466   0.177  29.576   0.791  0.1073 -0.0045 -0.1037
49554W        W92467  30.350  17.626  16.555  0.3411 -0.1554  0.2992
49555W        W92468   0.458  20.277   0.473 -0.3587 -0.1135  0.2785
49556W        W92469  23.466  21.280  22.899 -0.2473 -0.0428 -0.0826
49557W        W92470  29.877  32.941   7.989  0.0315 -0.4477 -0.1938
49558W        W92471   9.450  11.472  27.691  0.3147 -0.1036  0.1885
49559W        W92472  31.367  33.912   5.327 -0.2202 -0.0147  0.0080
49560W        W92473  24.211  26.099   4.378 -0.1355  0.2221 -0.0899
49561W        W92474  19.845  25.443  20.132  0.2466  0.1569  0.1073
49562W        W92475   4.909  26.051  28.191 -0.1606  0.2274  0.0283
49563W        W92476  26.557  33.108  28.479 -0.3319 -0.4491  0.1691
49564W        W92477  17.939  24.910  27.286  0.0992  0.2056  0.2690
49565W        W92478  25.839  12.674   4.280  0.3859  0.0449  0.3412
49566W        W92479  32.046  27.176   2.534 -0.2256  0.0023 -0.2113
49567W        W92480  33.780   6.280  27.282  0.3451 -0.4534  0.1551
49568W        W92481  28.832   0.408   3.887  0.0779 -0.2529 -0.1707
49569W        W92482  33.906  13.288  17.640  0.0908 -0.1600  0.1280
49570W        W92483  28.258  27.061   3.918  0.0670  0.1326 -0.2066
49571W        W92484  25.337  30.709   1.973 -0.0483 -0.0398 -0.1398
49572W        W92485  27.500  11.465  25.224 -0.2005 -0.0571 -0.1212
49573W        W92486  32.275  33.690  20.346  0.0106 -0.2023 -0.1133
49574W        W92487   2.856  32.963   9.700 -0.0067 -0.2880 -0.0706
49575W        W92488  29.210  30.915   6.562 -0.1641  0.0778 -0.0043
49576W        W92489   1.217  27.052   2.667 -0.2576 -0.0455  0.2479
49577W        W92490  24.334   1.328   4.067 -0.0584 -0.0834  0.0832
49578W        W92491   4.650   7.318   9.581 -0.0013  0.2502  0.0837
49579W        W92492  19.965  23.036   3.115  0.3588  0.5893 -0.0540
49580W        W92493  26.805  13.339   3.881  0.0161  0.1903 -0.0664
49581W        W92494  23.244   0.851   1.445  0.2460 -0.0138 -0.4052
49582W        W92495  28.670  30.692   7.731  0.1401 -0.2103  0.0425
49583W        W92496  10.478  26.473  28.275  0.1473 -0.2895  0.1924
49584W        W92497  21.752  29.896  27.060  0.0439 -0.0992  0.0893
49585W        W92498  28.723  16.349  19.714 -0.0179  0.4069  0.0426
49586W        W92499  26.910  33.260   2.120 -0.0153  0.1022 -0.0245
49587W        W92500  24.892  32.034   3.651 -0.1383 -0.0752  0.1027
49588W        W92501  19.655  30.230  27.583 -0.2790 -0.1730 -0.0508
49589W        W92502   6.790  30.153   9.064 -0.0763 -0.2047  0.2378
49590W        W92503  32.574  33.802   8.048  0.3146  0.0638  0.1222
49591W        W92504  29.630   4.905   7.449  0.0219 -0.1940 -0.1640
49592W        W92505  33.886   4.656  11.047 -0.0172  0.1131 -0.0494
49593W        W92506   0.394  33.992   8.665  0.0448  0.2749 -0.0131
49594W        W92507  27.296  23.892  25.007  0.1724  0.0204 -0.2568
49595W        W92508   6.454  30.273   5.554  0.0977  0.1051  0.0000
49596W        W92509   4.186  22.685  25.524 -0.0539 -0.1425  0.1935
49597W        W92510  26.596  29.695  27.129 -0.0297  0.2658 -0.2234
49598W        W92511  33.364  22.423  22.138 -0.2184  0.4000 -0.1498
49599W        W92512  30.747   5.848   5.281 -0.0287  0.0968  0.1185
49600W        W92513   1.325  28.644   4.619  0.3038 -0.1050 -0.2301
49601W        W92514  30.187   4.648   4.769  0.1997  0.1303 -0.2107
49602W        W92515  28.599  24.912  27.720 -0.2903 -0.0868 -0.0013
49603W        W92516   0.178  26.740  24.000  0.1633  0.0121 -0.0387
49604W        W92517   4.966  22.846   8.816 -0.1488  0.3753 -0.1371
49605W        W92518  26.403  30.491   4.978 -0.1543  0.1607 -0.1550
49606W        W92519  30.671  30.058   1.853  0.2268 -0.0310  0.0350
49607W        W92520  24.753  28.262   2.563 -0.1858 -0.0342 -0.1699
49608W        W92521   3.393  30.082   3.757  0.1609 -0.2237 -0.1796
49609W        W92522  32.055   8.948  10.093 -0.0080  0.2655 -0.3492
49610W        W92523  28.639   4.836   7.903 -0.1108 -0.1071  0.2310
49611W        W92524  34.091  32.858   6.894  0.1909 -0.1403 -0.0602
49612W        W92525   0.181   3.182   3.269 -0.0256  0.0655 -0.1584
49613W        W92526  15.724  32.493   6.844 -0.0076 -0.2596  0.2555
49614W        W92527  28.092  22.132  26.813  0.2882  0.0775 -0.0930
49615W        W92528  27.973  21.539   5.332 -0.0005 -0.0833 -0.2149
49616W        W92529   3.986   5.488  26.780  0.1020 -0.0935 -0.0190
49617W        W92530  25.513   5.790   1.073 -0.2789 -0.3898 -0.0552
49618W        W92531  32.312   8.311   6.041 -0.3880  0.1400 -0.0373
49619W        W92532  33.133  22.590  25.301 -0.1907 -0.0068  0.3326
49620W        W92533  11.478  20.586  28.516 -0.1462 -0.5174  0.3430
49621W        W92534  33.408  28.335   6.214  0.2054 -0.0716  0.1929
49622W        W92535  29.636   3.113   5.428  0.1150  0.2706 -0.1355
49623W        W92536  26.131  23.312   3.133  0.0805  0.3910 -0.1613
49624W        W92537  29.254  24.559   5.957  0.2484 -0.2056 -0.1228
49625W        W92538   3.134  28.068   1.590 -0.0509  0.4047  0.0678
49626W        W92539  30.076  24.167  29.384  0.0699 -0.2228  0.2205
49627W        W92540  29.826  31.686   6.499 -0.2855 -0.1109 -0.0242
49628W        W92541  21.865   1.685   5.857  0.0919  0.4280 -0.1292
49629W        W92542   7.828  26.366  26.913  0.1591 -0.3691  0.1430
49630W        W92543  29.559   3.653   5.384  0.0829 -0.0749 -0.2116
49631W        W92544   2.039  23.436  10.139 -0.0012  0.1854 -0.0036
49632W        W92545  23.881   8.340   0.162  0.3185 -0.2071  0.4258
49633W        W92546   8.767  30.170   4.180 -0.2769  0.0915 -0.1714
49634W        W92547  27.225  31.777  27.463 -0.2172  0.0524 -0.3642
49635W        W92548  25.173   6.170   5.296  0.1405  0.0728 -0.0883
49636W        W92549   4.905  16.207   4.903 -0.2149 -0.0363 -0.0407
49637W        W92550  29.931   4.621   9.234  0.1640 -0.1225 -0.1911
49638W        W92551   0.602   4.071   7.120 -0.0947 -0.3317 -0.0947
49639W        W92552  31.257  26.598   7.591  0.0367 -0.3879  0.0995
49640W        W92553  22.797  33.563  22.885 -0.0798 -0.0415  0.3916
49641W        W92554  21.911  26.325  28.123 -0.0787 -0.0206 -0.3458
49642W        W92555  25.434  31.406   3.955  0.1963  0.3179  0.2372
49643W        W92556  22.983   0.894   2.470 -0.0329 -0.1307  0.0284
49644W        W92557   8.207  31.072   7.973  0.1091 -0.1082 -0.1696
49645W        W92558  28.994  32.852   3.353 -0.0184 -0.6390  0.1991
49646W        W92559   2.933  31.597   6.414  0.1419 -0.2280  0.0494
49647W        W92560  19.731  31.624   9.778 -0.1302  0.0837  0.0558
49648W        W92561   0.122  28.810  25.599  0.2064  0.1256 -0.2053
49649W        W92562  29.781   5.174   8.611 -0.1499 -0.0298 -0.0549
49650W        W92563  20.828  28.698   7.043 -0.2243  0.0574 -0.0419
49651W        W92564  31.119  23.360   0.350 -0.1484 -0.3279 -0.2529
49652W        W92565  26.512  27.846   3.995 -0.2188  0.1526  0.1557
49653W        W92566   1.389   4.013   8.136 -0.0497 -0.1729 -0.2669
49654W        W92567   6.415  24.370   7.494 -0.2967 -0.1393  0.1367
49655W        W92568  30.668   2.490   7.654  0.1167 -0.3599 -0.1503
49656W        W92569  26.741  16.514   6.507 -0.1027 -0.1260 -0.0911
49657W        W92570   7.835  31.014   6.690 -0.2342  0.2337  0.2594
49658W        W92571  16.460  23.364   8.091 -0.0292 -0.1572 -0.1299
49659W        W92572   8.655   8.748   8.976  0.2901  0.3005  0.0284
49660W        W92573  19.119  14.869  15.183 -0.1251 -0.2230 -0.0380
49661W        W92574  27.006  32.137  10.379  0.0830 -0.0024 -0.1098
49662W        W92575  27.617  25.291   8.256  0.0772 -0.0030 -0.0100
49663W        W92576   1.832   9.245   7.906 -0.1856  0.1110  0.0912
49664W        W92577   5.133   0.388  12.414  0.0515 -0.2369  0.1899
49665W        W92578   0.402  33.313   8.284 -0.0761 -0.2600  0.0288
49666W        W92579  29.963   3.728   9.236 -0.0826  0.1254 -0.0115
49667W        W92580  31.173   8.790   7.152 -0.2140 -0.1896 -0.0745
49668W        W92581  30.318  29.615   7.534 -0.0089  0.0017 -0.0013
49669W        W92582  14.493  30.478   3.995 -0.0917 -0.1036  0.0353
49670W        W92583  31.713  24.876  10.019 -0.1601  0.1331 -0.0079
49671W        W92584  32.569   4.937   8.260  0.1676  0.2726  0.1493
49672W        W92585   2.419   0.653   2.828 -0.1356  0.2695 -0.2009
49673W        W92586  18.822  25.510   5.705 -0.1457 -0.4926  0.0185
49674W        W92587  20.679   0.956   9.369 -0.0174  0.0603  0.0721
49675W        W92588   0.638   8.911   0.430  0.0636 -0.1320 -0.1479
49676W        W92589  28.854  32.130   5.472  0.0610 -0.0342 -0.1157
49677W        W92590  30.327  29.210  27.877 -0.1149 -0.2516  0.1833
49678W        W92591  29.678  29.409   5.954  0.0536 -0.0599  0.2612
49679W        W92592   4.951  26.154   2.614 -0.2541 -0.3945  0.2614
49680W        W92593   8.163  25.397  28.314 -0.1862 -0.1331  0.2582
49681W        W92594  33.735   5.871   8.384  0.2547  0.1474  0.0238
49682W        W92595  27.458  28.201   9.445 -0.3351 -0.1134 -0.2828
49683W        W92596   0.607   5.416   4.398 -0.3608  0.0178  0.1302
49684W        W92597  26.823   3.291   1.663 -0.1712  0.0473 -0.1447
49685W        W92598  30.113  20.662   3.681  0.1857  0.1290 -0.0759
49686W        W92599   5.419  28.369   5.776 -0.0097 -0.0781  0.1336
49687W        W92600  29.598  25.579   6.377  0.1506 -0.1544  0.1795
49688W        W92601  34.139   2.527   4.817 -0.0214 -0.1502 -0.0046
49689W        W92602  27.410   2.302  10.034 -0.1039 -0.3722 -0.3087
49690W        W92603  34.452  29.741   6.738 -0.0112  0.0414  0.2084
49691W        W92604   5.224   1.603  28.127  0.0682 -0.0230  0.1802
49692W        W92605   1.655   1.367   8.267  0.2074  0.0813 -0.0154
49693W        W92606  22.080   4.139   8.167 -0.1145 -0.0900 -0.0020
49694W        W92607  30.282   3.045   1.099  0.0623  0.0990  0.1199
49695W        W92608  24.251  22.753   7.517  0.1027  0.0964  0.0086
49696W        W92609   0.581  32.799   6.182  0.0095 -0.2978 -0.2422
49697W        W92610  28.817  25.143   7.302 -0.0446  0.1315 -0.0733
49698W        W92611  26.751  25.576  26.427  0.0964  0.2624 -0.0477
49699W        W92612  32.803  25.273   5.740  0.3459  0.1728  0.0667
49700W        W92613   2.950   4.498   7.741 -0.1408 -0.0603  0.0800
49701W        W92614  30.200   1.001   8.612 -0.1381 -0.4323  0.5911
49702W        W92615   1.843  21.430   8.637  0.1364 -0.0202 -0.2433
49703W        W92616  30.383  34.347   8.841  0.0716 -0.2889 -0.0755
49704W        W92617   2.515   4.276   9.570  0.1532  0.2095 -0.0300
49705W        W92618  29.089  30.060   5.343 -0.0347  0.0735  0.2111
49706W        W92619  26.067   1.742   9.785 -0.0991  0.0655  0.1639
49707W        W92620  23.989   4.710  24.885  0.1790 -0.2753  0.1189
49708W        W92621  33.842   1.409  10.908  0.0904 -0.0670  0.0949
49709W        W92622  21.628   4.113   3.416 -0.2269  0.4355  0.0971
49710W        W92623  27.132  29.227   1.950 -0.1561  0.2467 -0.1870
49711W        W92624  23.250  25.394  24.903  0.0676 -0.2633  0.1245
49712W        W92625  24.854   0.744  10.682  0.0933 -0.3630  0.1374
49713W        W92626  24.323  28.821   6.161 -0.0446  0.2650 -0.2810
49714W        W92627  28.090  28.276   1.245 -0.2890 -0.1826 -0.0414
49715W        W92628   2.851   4.565   9.050 -0.1835  0.1909 -0.1129
49716W        W92629  18.848  18.429   1.110  0.0510 -0.2562 -0.3625
49717W        W92630   0.530  22.642  28.757  0.2559  0.1671  0.0003
49718W        W92631   7.483  30.768  27.247 -0.1711  0.1218  0.0090
49719W        W92632   1.242  29.895   5.508 -0.1546 -0.1346 -0.3619
49720W        W92633  23.445  30.771  29.470  0.2526 -0.0336  0.3361
49721W        W92634  17.802  19.282   4.532  0.1457 -0.2071  0.0667
49722W        W92635  28.385  27.862   3.844 -0.0412  0.3515  0.0823
49723W        W92636  27.276  30.695  29.641  0.0668 -0.2397 -0.2991
49724W        W92637  32.278   1.219   5.028  0.0897 -0.4809  0.1332
49725W        W92638  22.588  22.990   4.861 -0.0128  0.2652 -0.3126
49726W        W92639  30.766  24.878   2.047 -0.1735 -0.1846 -0.2930
49727W        W92640  29.387   7.125   6.814  0.0142 -0.1674  0.0132
49728W        W92641  10.548  17.822  21.495 -0.0744  0.2987 -0.2709
49729W        W92642   5.416  27.289  10.385 -0.0868  0.3643 -0.2328
49730W        W92643   3.113  28.871  27.767  0.0288  0.1327 -0.0044
49731W        W92644  34.365  24.232  10.077 -0.1208  0.2214 -0.2910
49732W        W92645   1.680  31.529  25.964 -0.0539  0.3340  0.0736
49733W        W92646  32.481  15.687   3.321  0.3184 -0.1331 -0.0694
49734W        W92647   9.598  29.975  26.927 -0.0139  0.0807 -0.3205
49735W        W92648  27.515   1.036   7.567  0.3007  0.1653 -0.1385
49736W        W92649  31.407  29.709  29.695 -0.2526 -0.0451  0.1950
49737W        W92650  26.578  31.102   0.849 -0.2320 -0.2901  0.2289
49738W        W92651  26.520  29.549   8.662  0.2166 -0.1457  0.0901
49739W        W92652  28.252   0.507  10.163  0.0940 -0.1764 -0.0835
49740W        W92653  29.886  15.876   3.703  0.2532 -0.0307  0.2794
49741W        W92654  26.764  31.299   2.269 -0.0235 -0.0855  0.1838
49742W        W92655  27.836   2.785   6.332  0.1551  0.3594 -0.2996
49743W        W92656  24.813  19.853   7.078 -0.0993  0.3109 -0.0052
49744W        W92657   1.275  33.358   4.897  0.0159 -0.1490  0.0634
49745W        W92658  31.864   0.542   5.624  0.1560 -0.2301 -0.0063
49746W        W92659  33.499  20.008   0.581  0.0728 -0.0418 -0.0592
49747W        W92660  29.125   6.984   5.351  0.1530  0.1714 -0.2207
49748W        W92661  32.362  31.595   8.761 -0.1956  0.1386  0.1775
49749W        W92662   0.396   1.916   9.046  0.1220 -0.4265  0.2688
49750W        W92663  30.366  30.716   2.775 -0.1472 -0.0857  0.2554
49751W        W92664  14.885  33.414   6.511  0.1603 -0.0613 -0.0863
49752W        W92665  31.310  11.485   7.185 -0.0779 -0.1348  0.0644
49753W        W92666  33.952  29.559   7.975  0.4005  0.2576 -0.0057
49754W        W92667  30.616  27.870  29.581 -0.0821 -0.0653 -0.2226
49755W        W92668   0.377  33.722   4.521  0.3909  0.3034  0.0426
49756W        W92669  30.548  29.946   4.318 -0.0738 -0.2681 -0.1776
49757W        W92670  34.090   1.956   4.838 -0.2291  0.0556  0.2763
49758W        W92671  25.761  31.972   1.324 -0.2199 -0.3360  0.0007
49759W        W92672  30.597  21.789   1.796 -0.1179  0.0457  0.1060
49760W        W92673  28.656  28.777   4.006 -0.1999 -0.1216 -0.0075
49761W        W92674  25.312  28.821   8.060 -0.2821 -0.2709  0.1379
49762W        W92675  33.671   1.479   9.504  0.0507  0.1738 -0.1939
49763W        W92676   4.253  29.055   7.401 -0.3126  0.0455 -0.2457
49764W        W92677  26.770  30.454   5.982  0.0727 -0.3228 -0.1769
49765W        W92678  12.969  34.421  23.300  0.1433  0.0086  0.0946
49766W        W92679   3.355  26.271   7.720 -0.0719 -0.0825  0.0877
49767W        W92680   7.223  10.965   7.329 -0.1302 -0.1981 -0.0010
49768W        W92681  22.165  33.043   0.208  0.1059 -0.0219 -0.1128
49769W        W92682   3.457  25.813   9.541  0.2100 -0.1148  0.3354
49770W        W92683  24.646  29.037   3.790  0.3192  0.1010  0.0997
49771W        W92684  25.988  21.274   7.406 -0.2004  0.0414  0.0458
49772W        W92685  29.025  27.704   6.581  0.1500 -0.1539 -0.1490
49773W        W92686  31.614  28.051   8.588 -0.4033  0.1816  0.0290
49774W        W92687  13.528  29.202   4.110 -0.1154  0.0307 -0.0039
49775W        W92688  30.814  29.852   7.393 -0.0861  0.2035 -0.2636
49776W        W92689  31.694  24.602   7.290 -0.2602  0.2772  0.1334
49777W        W92690  26.714  33.598   8.135  0.0618 -0.1119 -0.2031
49778W        W92691   3.430  29.258   9.944  0.0178  0.3313 -0.0552
49779W        W92692  26.897  27.807   4.392  0.1504 -0.1609  0.0477
49780W        W92693  26.570   3.371   9.204  0.2265  0.2073  0.4511
49781W        W92694   7.754   4.472   1.393  0.0344  0.0032  0.0522
49782W        W92695  27.159   3.277  10.298  0.3464 -0.3704  0.2549
49783W        W92696   0.015  11.091  24.477 -0.0274 -0.0387  0.2049
49784W        W92697  31.372  20.955  21.021  0.4913 -0.0681 -0.2451
49785W        W92698   1.776  22.999  10.223 -0.0284  0.2977  0.0167
49786W        W92699   4.477  31.912   6.887  0.2330 -0.1201  0.0311
49787W        W92700  34.179   4.988   2.989 -0.0541  0.2360 -0.1966
49788W        W92701  29.325  21.977   4.649 -0.1016 -0.2502 -0.0944
49789W        W92702   1.240  22.113   5.960 -0.0086  0.0494 -0.0190
49790W        W92703  33.837  30.873   5.477 -0.0405  0.1532  0.0619
49791W        W92704   4.507  31.664  25.334 -0.0163 -0.3114  0.1488
49792W        W92705   0.349  34.009   5.055 -0.1267 -0.1282  0.0354
49793W        W92706   4.721  31.754   8.442 -0.2081 -0.1698  0.0824
49794W        W92707  24.869   2.053   1.100 -0.0887 -0.1377  0.1333
49795W        W92708   3.051  26.894  23.863 -0.1524 -0.3664  0.0977
49796W        W92709  31.462  23.896   4.304  0.1864  0.3287 -0.0744
49797W        W92710  32.963  30.688   2.268 -0.1335  0.1398  0.0322
49798W        W92711  22.054   6.253   5.038 -0.0313 -0.0207  0.1285
49799W        W92712  27.506   7.404   4.657  0.2457  0.0449  0.1143
49800W        W92713  32.604  22.190   5.100  0.0108 -0.0002  0.3368
49801W        W92714  18.664  25.368   2.673  0.0573  0.1753  0.0514
49802W        W92715  29.986   3.611   1.336  0.2051 -0.0098  0.0403
49803W        W92716  19.935  31.089   2.966  0.0078 -0.0481 -0.1246
49804W        W92717  21.629   2.978   5.639 -0.2650  0.1189  0.0757
49805W        W92718   0.512   0.577  26.111 -0.0431 -0.1673 -0.0511
49806W        W92719  34.355   7.267   5.272 -0.0766 -0.0236 -0.3190
49807W        W92720  33.411   3.451  27.331  0.4195 -0.1365 -0.0637
49808W        W92721  30.778  30.265   0.557 -0.1640 -0.2240  0.1473
49809W        W92722  34.404  28.444   9.935 -0.0647  0.1600  0.0975
49810W        W92723  32.216  28.311  27.333  0.0498  0.0992 -0.0067
49811W        W92724  30.868  30.873   7.707 -0.0295  0.0696  0.3468
49812W        W92725  27.568   0.098  29.045  0.0075  0.0210  0.0660
49813W        W92726  28.466   2.301   6.148 -0.0349  0.1950  0.0380
49814W        W92727  24.618  24.093   7.550  0.0003  0.1771  0.1053
49815W        W92728  29.086  31.409  25.244 -0.1015 -0.3064  0.2867
49816W        W92729  33.750  26.726   8.662  0.0436  0.0690 -0.3849
49817W        W92730  21.458  24.440  28.665  0.0040  0.1451  0.2768
49818W        W92731  16.673  33.674   9.898 -0.0296 -0.0358 -0.1971
49819W        W92732  23.701  23.842   7.736  0.1270 -0.0897 -0.2187
49820W        W92733   1.427  33.283  10.544  0.0797 -0.2320  0.1765
49821W        W92734  24.817  18.854   8.938  0.1762  0.2635 -0.2959
49822W        W92735  19.194  31.416   8.480  0.0983  0.2250 -0.0037
49823W        W92736   4.158   7.397   9.281 -0.0400 -0.2166  0.3714
49824W        W92737  33.547  17.143   1.478 -0.1968  0.1026  0.1270
49825W        W92738   1.505   2.758  29.369  0.1292 -0.1209  0.1514
49826W        W92739  28.214  26.292   8.537 -0.1640 -0.2672 -0.0976
49827W        W92740  31.922  30.484   6.873 -0.1954  0.2251 -0.1399
49828W        W92741  22.956  31.146   1.867 -0.1263  0.0298 -0.1593
49829W        W92742  28.800  30.580  25.917  0.0230 -0.2007 -0.0745
49830W        W92743  29.593  28.595   4.435  0.2376  0.4514  0.3520
49831W        W92744  28.914  23.812   5.575 -0.0387  0.0104 -0.1328
49832W        W92745   0.746  30.731   6.890  0.2182 -0.0716  0.4376
49833W        W92746   5.748  24.742  29.104 -0.0249 -0.2134 -0.0290
49834W        W92747  30.594   3.552   2.495  0.3982  0.2730 -0.1341
49835W        W92748   5.224  20.308  26.727  0.3330  0.2543  0.0292
49836W        W92749   5.128  26.245  10.787  0.0254  0.2748  0.0504
49837W        W92750  23.054  33.715   8.705 -0.1507  0.2706  0.0164
49838W        W92751   5.630  30.351   7.274  0.0147  0.1593  0.3142
49839W        W92752  26.107   0.234   9.459 -0.0252 -0.0738  0.1050
49840W        W92753  32.709  27.743   6.453 -0.1134 -0.0186 -0.0377
49841W        W92754  24.061   7.300   3.312 -0.0593  0.2081 -0.3113
49842W        W92755  27.778  17.840   6.636  0.5582  0.0869  0.1412
49843W        W92756  28.975  23.769   4.660 -0.2926  0.0441  0.0075
49844W        W92757  33.300   6.779   8.282 -0.1527 -0.1165 -0.3311
49845W        W92758   2.209   8.322   1.501  0.0443  0.0451 -0.1875
49846W        W92759  31.074  27.285  29.292  0.1493  0.3549 -0.0910
49847W        W92760   1.500  32.273  10.235  0.1991  0.0765  0.2157
49848W        W92761  32.769   3.206   1.410 -0.1134  0.0461  0.1508
49849W        W92762   1.118  26.996  10.174  0.0026  0.2406  0.0229
49850W        W92763  30.265  22.951   1.058  0.1417  0.0898  0.0823
49851W        W92764   0.387  24.921   1.926 -0.1937 -0.1273 -0.0068
49852W        W92765   7.738  20.160   7.793 -0.0412  0.0795  0.1214
49853W        W92766  22.068  26.794   0.493 -0.0290 -0.0066  0.0615
49854W        W92767  28.814  34.154   9.336  0.2350  0.1661  0.2105
49855W        W92768  15.757  29.376   5.612  0.1640 -0.1943 -0.2110
49856W        W92769   4.421   5.556   8.944 -0.3388 -0.0581  0.3508
49857W        W92770   1.116  34.009   6.150 -0.0225 -0.2095  0.0883
49858W        W92771  21.425  33.936   4.377 -0.1127  0.0893  0.1392
49859W        W92772  18.883  21.587  26.456 -0.0894  0.3324  0.2001
49860W        W92773   2.392  25.334   9.118  0.0536  0.0206 -0.1463
49861W        W92774   0.064   7.092   9.579  0.0654 -0.0424  0.2874
49862W        W92775  19.055  29.351  29.177  0.1534  0.0717 -0.3489
49863W        W92776  29.641  19.258   5.925  0.5158  0.0241  0.0893
49864W        W92777  32.213  27.118   7.114 -0.2639 -0.1051 -0.2681
49865W        W92778   1.454  22.861   2.500  0.3004 -0.0231 -0.0797
49866W        W92779   2.271   1.646   6.212  0.2466  0.1718  0.4494
49867W        W92780   0.980   1.786   9.552  0.0316  0.2268  0.0288
49868W        W92781   0.440   1.909   3.170  0.0861 -0.0986  0.1832
49869W        W92782  31.425  33.905  11.232  0.0508  0.2514  0.3296
49870W        W92783  29.719  26.678   4.719  0.2603 -0.0618  0.0168
49871W        W92784  33.525  34.221   7.894 -0.0076  0.1513  0.0738
49872W        W92785   5.608  29.695   8.472  0.0421  0.0423  0.0345
49873W        W92786  33.474   3.819   6.104  0.3471  0.1673 -0.0719
49874W        W92787  29.398  30.917   9.060 -0.0021 -0.0284  0.1507
49875W        W92788   0.091  33.854  28.597 -0.1429  0.2059  0.1138
49876W        W92789  31.471   6.919   4.544 -0.1776  0.3774  0.0895
49877W        W92790  29.865  28.748   6.690  0.2858  0.1415  0.0088
49878W        W92791  19.761  26.590   3.821 -0.0816  0.1164 -0.0307
49879W        W92792  19.929  17.884  23.849  0.2894  0.1215 -0.0513
49880W        W92793   1.989   4.339   9.964  0.1050  0.1827  0.0458
49881W        W92794  28.990   4.049   9.226  0.1910 -0.0646 -0.0455
49882W        W92795  33.404  33.667  23.076  0.1008  0.2059 -0.1674
49883W        W92796  26.331  32.650   6.800 -0.2643  0.3781  0.1162
49884W        W92797   7.220  20.658   0.259  0.2455 -0.1204  0.2126
49885W        W92798  14.618  28.398   1.520  0.2320  0.2158 -0.0901
49886W        W92799  27.983  30.887   6.458 -0.2223  0.0468  0.0886
49887W        W92800   7.407  23.073  10.061 -0.0508  0.1758 -0.0474
49888W        W92801   3.539  31.914   7.899 -0.1680  0.0583 -0.1110
49889W        W92802  30.738   8.217   1.667 -0.0300 -0.1528 -0.0005
49890W        W92803  32.678   1.912   1.069  0.0911  0.1541  0.1186
49891W        W92804   5.906   2.481   2.235  0.1310  0.1901  0.0784
49892W        W92805   1.944  27.881   2.500 -0.0552 -0.1773  0.3723
49893W        W92806  30.051  29.145   4.883  0.1950 -0.3352  0.1215
49894W        W92807  28.669   1.372   4.736  0.1747  0.0835 -0.0485
49895W        W92808   8.818  18.803   7.066 -0.1463 -0.2944 -0.1648
49896W        W92809   0.883   1.579  29.107  0.0784  0.0947  0.2746
49897W        W92810  31.685  22.162   2.603 -0.1931  0.1092 -0.0352
49898W        W92811  32.310  34.421  25.290 -0.2822 -0.1841 -0.1942
49899W        W92812  29.486   1.718  10.902  0.0047 -0.0450  0.1463
49900W        W92813  33.667  28.886   3.710 -0.1518 -0.0775  0.1219
49901W        W92814   8.942  22.800   3.655  0.2423  0.2377  0.1548
49902W        W92815   4.544   0.553   3.847 -0.1295  0.1224  0.2682
49903W        W92816  28.065  31.418   3.565  0.1950  0.2825 -0.1625
49904W        W92817   3.483  23.158  28.389  0.2182 -0.2238  0.0220
49905W        W92818  27.119  28.926   9.680 -0.0699 -0.1453  0.0801
49906W        W92819  29.851   9.202  29.252  0.3388  0.1056  0.0290
49907W        W92820  30.057  22.368   9.273  0.0661  0.0729 -0.0180
49908W        W92821  16.771  28.072   4.419 -0.0130  0.2093  0.1284
49909W        W92822  29.828  27.118   7.203 -0.4100 -0.1181  0.3910
49910W        W92823   6.179   3.687   4.100  0.2360 -0.1526 -0.0099
49911W        W92824  33.763   0.964  10.698  0.0239  0.1769  0.0110
49912W        W92825   8.629   1.077   4.325 -0.2298  0.1988  0.0969
49913W        W92826  21.298  22.043   7.547 -0.0102  0.1146  0.1997
49914W        W92827   1.544   1.168   1.454  0.0396 -0.1140  0.0553
49915W        W92828  15.015  17.762   2.251 -0.1841 -0.1766  0.2136
49916W        W92829   0.013   6.383   9.937 -0.2470 -0.1402 -0.3271
49917W        W92830   3.804   2.639   6.494 -0.2250 -0.1210  0.1173
49918W        W92831   3.135   4.514   2.469  0.0164 -0.4508  0.1055
49919W        W92832  22.195  25.750   0.677  0.2267  0.0160  0.2462
49920W        W92833  33.845  19.593  28.593 -0.3739  0.0629 -0.2494
49921W        W92834   5.488   6.355   5.495 -0.1137 -0.2004 -0.2829
49922W        W92835  22.883   2.644   5.152 -0.0677 -0.0999 -0.1226
49923W        W92836  31.001   5.511   9.886  0.1898  0.0002  0.3032
49924W        W92837  24.995   1.072   9.484 -0.1612 -0.2767 -0.2160
49925W        W92838   1.109  32.946   5.375  0.0144 -0.0389 -0.2689
49926W        W92839   8.978   8.439   8.617  0.3503 -0.2664 -0.1481
49927W        W92840   7.440  23.508   1.464 -0.1807  0.0328  0.0592
49928W        W92841  26.858   8.458  24.083 -0.1461 -0.0130 -0.1299
49929W        W92842  34.347  22.177   4.579 -0.2452 -0.3259 -0.2020
49930W        W92843  26.890  33.615   6.089  0.0594 -0.1140  0.4141
49931W        W92844  31.539  29.197   9.288 -0.1193  0.3256 -0.1062
49932W        W92845   3.508  14.224  25.965 -0.1245 -0.1733 -0.0221
49933W        W92846  31.772   4.062   2.846 -0.3367  0.2095  0.0359
49934W        W92847  32.919  24.067   4.435  0.1907  0.0915 -0.0187
49935W        W92848  29.138  27.567   3.578 -0.3683  0.0725  0.2409
49936W        W92849   1.863   3.292   9.179  0.1092  0.0050  0.1680
49937W        W92850  28.809   0.830   1.879 -0.1444  0.0998  0.0240
49938W        W92851  23.083  21.511  29.262 -0.1364  0.0463 -0.4471
49939W        W92852  27.736  27.990  29.779 -0.1153 -0.0508  0.0374
49940W        W92853  31.068  31.330   5.433  0.3317  0.2419 -0.0020
49941W        W92854  10.291   8.024   1.213 -0.0805  0.0333 -0.1905
49942W        W92855   0.447   1.381   5.793 -0.0691 -0.2134 -0.2679
49943W        W92856  25.383  26.438  28.868 -0.1472  0.1273  0.1415
49944W        W92857   9.531  33.247   6.395  0.1827  0.3252 -0.0447
49945W        W92858   1.467  30.487   4.761  0.5245 -0.0220 -0.0801
49946W        W92859   4.814  32.334   6.924  0.3049 -0.2621  0.2559
49947W        W92860   0.714  22.803   8.940  0.2395  0.1625 -0.1395
49948W        W92861  29.057   3.766  26.033 -0.2171 -0.0256  0.2568
49949W        W92862   6.538  25.068   5.722  0.0338 -0.2142  0.1079
49950W        W92863   6.286  26.567   3.522  0.1222  0.1852 -0.1097
49951W        W92864  29.505  33.389   5.833 -0.2132 -0.3835 -0.0217
49952W        W92865   1.230  30.374   9.707 -0.1081  0.0496 -0.4931
49953W        W92866  29.714  21.280   6.002 -0.0628 -0.2087 -0.1869
49954W        W92867   6.120  10.470  10.771  0.0131 -0.1064  0.0668
49955W        W92868  19.670  33.598  29.302 -0.0312  0.2295 -0.0323
49956W        W92869  31.374   6.891   2.022  0.1127 -0.1642  0.0955
49957W        W92870  27.202  33.791   8.371  0.2527 -0.0010  0.2876
49958W        W92871   2.374  24.217   6.839 -0.1120  0.0873  0.2821
49959W        W92872  26.123  29.070   1.928  0.0510 -0.1737  0.2297
49960W        W92873   2.779  26.381   7.847  0.0462  0.1926 -0.3008
49961W        W92874   1.430  26.304   3.372 -0.3752 -0.0900 -0.0237
49962W        W92875   5.126   6.532   1.395  0.1600  0.2903  0.1813
49963W        W92876  30.378  31.972   9.639  0.0872  0.4892 -0.0204
49964W        W92877  21.000  21.349   1.676 -0.1539 -0.2316  0.0766
49965W        W92878   2.829  31.282   3.892 -0.0425 -0.0718 -0.0371
49966W        W92879  32.964   5.515   2.383  0.3324  0.1452 -0.2524
49967W        W92880  27.522  27.074   3.382  0.2294 -0.2176 -0.2921
49968W        W92881  34.298   5.744  11.164 -0.3580 -0.2249 -0.0703
49969W        W92882  25.125  25.322   5.380  0.1752  0.4270 -0.1057
49970W        W92883  31.054  32.081   8.999 -0.0848  0.0041  0.0526
49971W        W92884  34.227  14.026   2.033 -0.5834  0.0752 -0.1597
49972W        W92885  20.220   2.612   8.754 -0.1201 -0.2094 -0.1201
49973W        W92886  28.101  32.625   5.028 -0.0502 -0.0325 -0.0509
49974W        W92887   1.907  18.834  24.816 -0.2583  0.2642  0.6161
49975W        W92888  29.948  29.401   8.437  0.1424 -0.0467  0.0338
49976W        W92889  13.702  13.177   2.971  0.0043  0.1539  0.0528
49977W        W92890  31.340  30.629   3.864  0.1638  0.2967 -0.1276
49978W        W92891  31.315   2.933   1.572 -0.2025 -0.0591  0.2984
49979W        W92892  25.067   3.705   4.981 -0.1275  0.1008 -0.2605
49980W        W92893  31.373   0.858   7.896 -0.3388  0.0950 -0.2537
49981W        W92894   0.216   3.731  28.313 -0.1856  0.1547 -0.1209
49982W        W92895  29.199   1.312   7.830  0.1498 -0.0391  0.2257
49983W        W92896  27.846  25.468  26.840 -0.3732 -0.0531  0.1888
49984W        W92897  25.107   0.508   1.232  0.1035 -0.2817 -0.5528
49985W        W92898   0.861  25.790   5.802  0.4195  0.1258  0.0621
49986W        W92899   2.169   5.167   6.198  0.0193  0.0771 -0.0466
49987W        W92900  22.306  27.670   8.499 -0.0264 -0.2433 -0.0863
49988W        W92901  26.625  32.382  25.647 -0.0487 -0.2251  0.1605
49989W        W92902  25.749   6.736  10.388 -0.2150 -0.0433 -0.1348
49990W        W92903  33.669  33.020   4.662 -0.0464  0.1549  0.0116
49991W        W92904   4.890  33.130  10.802  0.0641 -0.3495  0.0114
49992W        W92905  21.728  21.922   0.349  0.0562  0.0314 -0.1088
49993W        W92906  31.223   3.297   7.318  0.0822 -0.3438 -0.1756
49994W        W92907   6.693   0.864  27.642 -0.1000  0.0413 -0.2104
49995W        W92908  30.903  31.234  10.600 -0.0501  0.0629  0.2217
49996W        W92909   4.592  33.437   0.540  0.2989 -0.1568  0.5614
49997W        W92910  28.522   1.525   9.073  0.1566  0.1462  0.2033
49998W        W92911  29.241  21.402   4.702  0.0964  0.3278 -0.3433
49999W        W92912   1.916  15.613   5.122 -0.0312 -0.2510 -0.2022
50000W        W92913   1.413  30.336   8.396  0.0530  0.1192 -0.0199
50001W        W92914  21.872  22.938   1.343 -0.1684 -0.1766  0.3849
50002W        W92915  20.365   5.705   9.010  0.1567 -0.0214  0.1374
50003W        W92916  25.081   5.241   2.208 -0.0157 -0.2336 -0.0254
50004W        W92917   4.436  15.331   5.198  0.0925  0.0849 -0.2252
50005W        W92918   6.280  27.959   0.135  0.0172  0.3556  0.2334
50006W        W92919  31.275  26.578   6.515  0.2828 -0.1594  0.2968
50007W        W92920   1.192  28.942   2.291  0.1186  0.2383  0.0072
50008W        W92921  31.359  29.777   7.286  0.2249 -0.1712 -0.1563
50009W        W92922  31.532   7.076   9.696 -0.0563  0.2905 -0.1589
50010W        W92923  28.373  29.159   9.891 -0.1365 -0.1001 -0.0656
50011W        W92924  32.844  25.184   9.052  0.2958 -0.2608 -0.0534
50012W        W92925  27.411  28.175   2.391  0.0013  0.2853  0.2136
50013W        W92926   3.299  28.416   6.828 -0.2553  0.2313  0.1527
50014W        W92927   1.074   2.296   4.655  0.3547 -0.0262  0.0923
50015W        W92928   0.283  32.429   8.280  0.0068  0.3148  0.3469
50016W        W92929  30.924  33.117   5.225 -0.3613 -0.3838 -0.2401
50017W        W92930  26.452  19.393   7.493 -0.1024  0.1839 -0.1743
50018W        W92931   6.957  33.863   9.241  0.0512 -0.4690 -0.0304
50019W        W92932  24.994  30.450   2.233 -0.3677 -0.1297  0.1492
50020W        W92933  24.165  32.033   8.366  0.0975 -0.2909 -0.0091
50021W        W92934  20.898  24.626   5.422  0.2064 -0.2169 -0.0957
50022W        W92935  26.075   7.646   7.510 -0.1377 -0.0654  0.0211
50023W        W92936   0.584  28.577   9.238  0.0149 -0.2017 -0.0397
50024W        W92937   0.209  30.069  25.035 -0.1196  0.0010 -0.0766
50025W        W92938   7.775  28.178  11.877 -0.1035  0.0034  0.4077
50026W        W92939  26.174  23.636  28.035 -0.0840  0.1020 -0.1048
50027W        W92940  21.189   8.438   5.106  0.0812  0.0408  0.2296
50028W        W92941   2.111  21.965   5.335  0.5611  0.1271  0.1445
50029W        W92942  29.613  25.969   5.481  0.0395  0.0218 -0.2196
50030W        W92943  25.090  28.532   5.591 -0.1361  0.3560 -0.1162
50031W        W92944  27.560  20.174   3.448 -0.0715  0.2390  0.1374
50032W        W92945  18.764   4.249   9.696  0.0151  0.0377 -0.2371
50033W        W92946  33.407  34.137   9.314 -0.2384 -0.0415  0.1936
50034W        W92947  28.712  29.290   6.980 -0.2190 -0.3808 -0.0108
50035W        W92948   1.386  21.352   7.207  0.0454  0.2743  0.3709
50036W        W92949  26.547  31.320   9.919 -0.2700  0.2498 -0.4916
50037W        W92950  32.395  31.650   7.548  0.0681 -0.2255  0.0120
50038W        W92951  30.074  24.307   5.143 -0.0979 -0.1078 -0.2266
50039W        W92952   0.768  21.969   1.408 -0.1041  0.1296  0.1092
50040W        W92953  32.128  27.961   8.570 -0.1312 -0.0537 -0.1131
50041W        W92954  28.578   0.533   4.327  0.3088  0.0626 -0.1976
50042W        W92955   2.324  30.873   1.942 -0.0829  0.0674 -0.0685
50043W        W92956   5.410  28.384   9.933 -0.2911  0.1568 -0.0740
50044W        W92957  30.002  20.475   6.416  0.1241 -0.1239  0.0936
50045W        W92958  21.815   3.821   7.897  0.0043 -0.0070 -0.2860
50046W        W92959  29.522  15.997   4.528  0.0119  0.1785  0.0258
50047W        W92960  26.666  34.055  10.657 -0.0326 -0.0243  0.3058
50048W        W92961  20.181  34.475   5.020 -0.2237  0.0432  0.0833
50049W        W92962  31.515   1.056   1.108  0.2255 -0.0202  0.2127
50050W        W92963  26.989   8.126   4.391 -0.0939  0.1861  0.6151
50051W        W92964  29.168  26.639   2.869 -0.0178  0.1315 -0.0839
50052W        W92965  34.271  27.029   8.033  0.0598 -0.2489  0.0875
50053W        W92966   2.917   2.743   6.516 -0.2335 -0.2492  0.1541
50054W        W92967  30.619   1.157   8.435  0.0427 -0.1445 -0.0694
50055W        W92968   0.699  10.691  10.526 -0.1356  0.0696 -0.0244
50056W        W92969  27.162   0.043   5.153 -0.0014 -0.2129  0.0221
50057W        W92970   5.451  28.032   4.083  0.0634 -0.0295 -0.0826
50058W        W92971  33.678  31.704   7.219  0.1442 -0.2405 -0.3217
50059W        W92972  29.719   1.986  10.425 -0.0552 -0.2394  0.1963
50060W        W92973  23.457  34.356   7.000  0.1268 -0.0634  0.1159
50061W        W92974   6.485  18.437   6.762 -0.0374 -0.0158 -0.1399
50062W        W92975  24.075   0.361   6.405  0.3511 -0.0888  0.0597
50063W        W92976   4.849  20.292   5.417  0.0434  0.0132  0.0099
50064W        W92977  24.753   6.612   3.138  0.2039  0.1311  0.0603
50065W        W92978  29.115  10.204   7.855 -0.1689  0.0790  0.1534
50066W        W92979  33.439   2.447  11.384 -0.0727 -0.1638  0.1230
50067W        W92980  19.728  31.304   6.290  0.2316 -0.1188 -0.2255
50068W        W92981  17.852  30.602   4.564  0.3384  0.3336 -0.0208
50069W        W92982   8.818  25.597   9.979 -0.2014  0.0151 -0.5094
50070W        W92983  31.347  32.499  10.017  0.1082  0.3063 -0.3054
50071W        W92984  29.691  20.456   3.501  0.0979  0.0328 -0.0346
50072W        W92985   2.340  27.228   8.548 -0.1695 -0.0276  0.1467
50073W        W92986   5.403  33.511  12.166 -0.3080 -0.0788  0.0426
50074W        W92987  16.025  12.932   7.609  0.1541 -0.1239  0.2186
50075W        W92988   3.955  11.198   2.442 -0.2641 -0.2162  0.2562
50076W        W92989   3.330   5.097  12.856 -0.1777 -0.0146  0.0945
50077W        W92990  33.318  23.658   6.774 -0.0927 -0.0751 -0.0179
50078W        W92991  30.618  27.431  28.707 -0.0076 -0.0381 -0.1865
50079W        W92992   3.348   2.660   6.156  0.1141  0.0705  0.1377
50080W        W92993   0.292  30.314  10.724  0.1390 -0.1147  0.1116
50081W        W92994   9.074  28.092   5.594 -0.0448  0.5414  0.0102
50082W        W92995   3.459   1.209   5.539 -0.0184 -0.0009 -0.0743
50083W        W92996  31.065  32.799   7.352 -0.0682  0.0355 -0.3221
50084W        W92997  34.242   5.616   4.471  0.0177 -0.0843 -0.0116
50085W        W92998  23.389   0.862   7.331  0.1369  0.1114 -0.0441
50086W        W92999  31.782   1.007   7.630  0.2432  0.0851 -0.0129
50087W        W93000  27.997   9.283   9.206  0.0136 -0.3808 -0.0300
50088W        W93001  26.130  21.907  27.431 -0.1045 -0.3016  0.1102
50089W        W93002   7.030  32.365  26.791 -0.2279  0.0926 -0.0344
50090W        W93003   2.806  31.247   2.111 -0.0766 -0.0747  0.1584
50091W        W93004   3.121  32.896   3.668 -0.1221  0.0512  0.1658
50092W        W93005  32.920  34.130  10.831  0.2006 -0.3940  0.1140
50093W        W93006  30.067   2.820   3.229 -0.1952  0.2141  0.3341
50094W        W93007   4.202  24.450   9.034  0.2263 -0.1343 -0.1956
50095W        W93008  24.410   1.263   4.931  0.0228  0.0511 -0.0471
50096W        W93009  26.159   7.456   5.774 -0.0102  0.0861  0.1277
50097W        W93010  29.601   5.358  10.286  0.2328  0.1045 -0.1449
50098W        W93011  27.546  34.256   9.703 -0.0945 -0.0179  0.1735
50099W        W93012  10.952  27.091  28.412 -0.1647 -0.0265 -0.0576
50100W        W93013  30.546  34.169   7.778 -0.0717 -0.1675  0.2915
50101W        W93014  26.856  28.321   3.674  0.2238  0.0024 -0.0456
50102W        W93015   7.075   0.006  10.736 -0.0219 -0.0731  0.1410
50103W        W93016   3.170  32.276   0.410 -0.0240 -0.2024  0.2118
50104W        W93017  24.481  19.269   8.914 -0.0690 -0.0042  0.0817
50105W        W93018  22.657  26.445   3.973 -0.1678  0.0366  0.1619
50106W        W93019  30.872   4.275   7.072  0.2702  0.1608  0.2539
50107W        W93020  20.248  24.354   6.123 -0.1631 -0.1147 -0.3907
50108W        W93021  29.576  22.267   5.866 -0.0308  0.1975 -0.1089
50109W        W93022   9.763   1.476   7.895  0.0936  0.2759  0.1668
50110W        W93023  31.604   8.071   7.293  0.0294  0.1059  0.1881
50111W        W93024   6.450   4.434   3.952 -0.3298  0.1259  0.0571
50112W        W93025   2.869  24.717  26.844  0.3723 -0.1718  0.3430
50113W        W93026  34.067  31.049   9.323  0.1580  0.3600 -0.0323
50114W        W93027   3.492   8.089   9.101 -0.0209  0.0438  0.1104
50115W        W93028  32.483  21.898   2.495  0.4975  0.0000  0.0337
50116W        W93029  33.350  18.644   5.900  0.0719 -0.2294 -0.1405
50117W        W93030   4.276   6.297   7.813 -0.0280  0.2023  0.3481
50118W        W93031  30.170  15.111   7.494 -0.0404 -0.2629 -0.1024
50119W        W93032  11.693  24.234   5.640  0.1214  0.1641 -0.2180
50120W        W93033  10.176  32.881   2.088 -0.1907  0.0537 -0.0745
50121W        W93034  23.427  10.508   8.069  0.2279 -0.3166 -0.0186
50122W        W93035  27.703   0.831   2.200  0.2659 -0.5474 -0.2639
50123W        W93036  31.470  26.924   8.487 -0.0475  0.1211 -0.3659
50124W        W93037  27.251  29.101   6.131 -0.0967  0.2182  0.1399
50125W        W93038  26.372   2.281  23.917  0.1675  0.2624  0.0662
50126W        W93039   2.061  22.758   4.475  0.1517  0.1307 -0.1913
50127W        W93040   5.636  12.541   7.043  0.1566  0.2895  0.3390
50128W        W93041  31.562  34.305   5.042  0.0341  0.0713 -0.0250
50129W        W93042  34.237  30.648   9.692 -0.3452 -0.0822 -0.2042
50130W        W93043  13.367  26.630   4.153 -0.1453  0.2540 -0.3149
50131W        W93044  29.819   2.738  27.509 -0.0135 -0.2141  0.2952
50132W        W93045   3.741  32.598   4.775  0.0061 -0.2549 -0.1377
50133W        W93046  33.111   4.072   4.804 -0.0124  0.1190  0.0804
50134W        W93047   6.143   5.948  12.507  0.0880  0.1835  0.0937
50135W        W93048   6.585  27.724   2.872  0.2522  0.3137  0.1102
50136W        W93049   4.520  33.359  10.511  0.1338 -0.1817 -0.0612
50137W        W93050  26.760  26.531   3.673  0.1459 -0.1693  0.1705
50138W        W93051  31.738  23.350   8.797  0.1091  0.1099  0.1847
50139W        W93052   8.716  31.462  10.698  0.5424 -0.2115 -0.2670
50140W        W93053   5.929  24.135  28.430 -0.1941  0.1248  0.1009
50141W        W93054  30.409   2.673  11.100  0.2461 -0.0233  0.0038
50142W        W93055   7.934  25.649   8.626 -0.5960 -0.1470 -0.0809
50143W        W93056   0.734   9.926   5.526  0.1077 -0.0591 -0.1270
50144W        W93057  29.397  25.866   7.223  0.3676  0.0869  0.2142
50145W        W93058   0.422   0.516   5.122 -0.1408 -0.2593 -0.2244
50146W        W93059  16.508   7.892  27.604  0.2429  0.1263  0.4453
50147W        W93060   2.496  26.779   8.486 -0.1390 -0.0175 -0.2448
50148W        W93061   1.941  31.707   8.922 -0.1702 -0.3160 -0.2006
50149W        W93062   7.230  32.848  10.421 -0.0781  0.1752  0.0406
50150W        W93063   1.234   7.048   2.739 -0.0843 -0.2794 -0.0545
50151W        W93064   0.653  32.319   8.651 -0.1601  0.0160 -0.0921
50152W        W93065  30.130   1.806   2.981 -0.0387 -0.0005  0.0505
50153W        W93066  31.274   1.845   8.788 -0.0234  0.1972  0.1403
50154W        W93067  23.849  31.158   8.680  0.0870  0.0005 -0.1878
50155W        W93068   3.914  17.237  29.553 -0.1358 -0.5590 -0.0945
50156W        W93069  27.045  25.700   2.231  0.0939 -0.2408 -0.1322
50157W        W93070   5.632  31.414  10.627  0.1011  0.1883  0.0182
50158W        W93071   0.071  28.428   8.037  0.1413 -0.2550  0.0455
50159W        W93072   3.469  28.980   8.210 -0.1494  0.1311  0.1824
50160W        W93073   6.765  30.510   9.433  0.0612 -0.0941  0.0350
50161W        W93074  22.296  27.764   3.366 -0.0312 -0.0575 -0.0429
50162W        W93075  28.415   0.596   2.203  0.0411  0.2871 -0.1276
50163W        W93076   1.057   2.175   8.213 -0.0357 -0.1879  0.0110
50164W        W93077   4.400  30.303   4.675 -0.1708 -0.0455 -0.0625
50165W        W93078  29.419   2.208   5.815  0.0808 -0.0175 -0.1451
50166W        W93079  30.347   2.094   6.837  0.3863 -0.1514 -0.1944
50167W        W93080   0.413  33.603   1.679 -0.1852  0.1009 -0.1115
50168W        W93081  28.921  30.460  23.939  0.3897 -0.1338  0.0982
50169W        W93082   1.290   0.511  11.649  0.0504 -0.1756  0.0618
50170W        W93083   1.473  30.999   7.315  0.3580  0.1323 -0.0324
50171W        W93084  29.067  21.669   2.535  0.2528  0.0596  0.2322
50172W        W93085  30.438   0.914   1.283  0.1922  0.3669  0.3619
50173W        W93086   6.287  32.088   6.547  0.3899  0.0015 -0.1718
50174W        W93087  23.299  32.426   2.537 -0.2790  0.0396  0.1079
50175W        W93088   3.924  27.074   7.845 -0.1167 -0.1208 -0.1188
50176W        W93089  28.815  22.177   5.215 -0.4075 -0.1608  0.0362
50177W        W93090   9.745   3.037   4.577  0.1020 -0.1959  0.0180
50178W        W93091  27.523  22.507  26.218  0.3369 -0.0938  0.2619
50179W        W93092   8.908  25.722   2.476 -0.4709 -0.1349  0.1170
50180W        W93093  30.134  29.471   7.105  0.1413 -0.3272 -0.0962
50181W        W93094  22.186  23.206   5.729  0.1379  0.0958  0.0319
50182W        W93095  33.661   1.183   6.746  0.0401  0.2108  0.2101
50183W        W93096   2.936   0.340  11.677  0.0410  0.0324 -0.0320
50184W        W93097  27.890   9.844  10.380 -0.0232  0.2135 -0.2173
50185W        W93098   7.970  27.784  10.612  0.3784  0.2753  0.1514
50186W        W93099   4.576  21.569  26.020 -0.1808 -0.0933  0.2393
50187W        W93100   8.329   8.207   5.603  0.1516  0.0638  0.0748
50188W        W93101   7.886  31.641  12.584  0.4101  0.2899 -0.4997
50189W        W93102  22.961  33.663   2.903  0.0385 -0.1941 -0.2345
50190W        W93103  30.147  11.189   4.086  0.1708  0.0322 -0.1024
50191W        W93104   1.941  27.250   5.491  0.1338  0.0844 -0.3626
50192W        W93105  33.327   0.409  11.165 -0.0821  0.1052  0.0118
50193W        W93106  32.763   9.168   7.216 -0.1189  0.0740  0.0832
50194W        W93107   9.029  19.295   7.325  0.1640 -0.0062 -0.2383
50195W        W93108  25.952   3.792   6.997 -0.3770 -0.0100  0.1927
50196W        W93109  29.824  27.024  29.650 -0.2076  0.0168 -0.2916
50197W        W93110   9.825   3.384   1.694 -0.3662  0.1644 -0.1051
50198W        W93111  27.943   2.323   6.193  0.0769 -0.3637  0.0364
50199W        W93112  32.567   9.838   3.811  0.3400 -0.1107 -0.0786
50200W        W93113  33.088   0.077   7.025 -0.0018 -0.0625  0.0303
50201W        W93114  20.220  26.001   6.139 -0.0951  0.0156 -0.3093
50202W        W93115  21.869  17.459  27.078 -0.3434  0.0141 -0.2184
50203W        W93116   5.554  25.965   9.385  0.0930 -0.0540  0.1165
50204W        W93117  19.747   0.010   3.553 -0.1548 -0.0585  0.0648
50205W        W93118  28.586   2.535   8.696 -0.1471 -0.0121  0.3346
50206W        W93119   2.103  14.619   7.145 -0.1718 -0.2570  0.1297
50207W        W93120   1.440   3.760  11.220  0.1581 -0.2515 -0.2931
50208W        W93121  24.932  24.983  28.515  0.0494  0.1240  0.0397
50209W        W93122  34.250  26.992  27.644 -0.1624 -0.0751 -0.0501
50210W        W93123  32.682  32.973  11.070  0.3403 -0.0848  0.1221
50211W        W93124  24.250  26.672   7.386 -0.0577 -0.1014 -0.3142
50212W        W93125  32.031  29.397   5.820  0.2213  0.2636  0.0274
50213W        W93126  26.584  30.743   7.700 -0.1989  0.1015 -0.0151
50214W        W93127  13.936  29.572  10.621 -0.6289  0.0614 -0.0042
50215W        W93128  26.442  31.098   1.818  0.0996 -0.5972  0.0110
50216W        W93129  31.806  27.121   4.885 -0.2123 -0.0804 -0.0122
50217W        W93130  28.872  31.072   8.494 -0.0414  0.0487  0.0329
50218W        W93131  31.416  25.521   9.311 -0.1478 -0.0528 -0.0762
50219W        W93132  19.378  24.694   5.632  0.1456  0.1750 -0.3410
50220W        W93133   1.401  29.318   7.035 -0.0760 -0.1281  0.0570
50221W        W93134  27.207  24.413   9.626 -0.1248  0.0645 -0.2822
50222W        W93135  33.108  22.484   4.730  0.1895  0.1410 -0.3463
50223W        W93136  27.618   6.317   4.980  0.2066 -0.1149 -0.1717
50224W        W93137  24.857  29.199   1.523 -0.0543 -0.1024 -0.0890
50225W        W93138   0.037  30.026   8.036 -0.1421  0.1974 -0.3106
50226W        W93139  26.015  30.737  27.096  0.0456  0.2621  0.1726
50227W        W93140  27.085  31.752   4.552 -0.1327  0.1874  0.3221
50228W        W93141   2.017  27.261   7.274 -0.1851 -0.2871 -0.3669
50229W        W93142   0.670   3.517   7.544 -0.0895  0.2537  0.1880
50230W        W93143  10.758  33.203  22.684 -0.0614  0.0151  0.1257
50231W        W93144  31.740  34.463  10.808 -0.1848  0.0372  0.0714
50232W        W93145  34.297  23.800   5.212 -0.0822  0.0244  0.0560
50233W        W93146  32.376   1.980  10.797  0.2173  0.5222  0.0170
50234W        W93147  27.595  25.644   4.509 -0.0610 -0.1288  0.2365
50235W        W93148  27.243  30.641   8.619 -0.2413 -0.0969 -0.0156
50236W        W93149  25.940  32.634   7.541 -0.0591  0.1643  0.0487
50237W        W93150   1.348   4.195  12.077  0.2192 -0.1175 -0.0536
50238W        W93151   2.864  25.784   3.675  0.2563  0.2042 -0.1972
50239W        W93152  19.546   4.339  25.959 -0.4074  0.2011 -0.2070
50240W        W93153   1.441  25.757   9.888  0.0188 -0.0772 -0.2666
50241W        W93154  29.855   0.102  11.206  0.0577 -0.0004 -0.1125
50242W        W93155   1.166  33.047   5.929  0.2944 -0.2397 -0.2700
50243W        W93156  24.002  30.064   8.164  0.0635 -0.0113 -0.0585
50244W        W93157   3.252   4.218  12.610  0.2713  0.3634 -0.1454
50245W        W93158  30.738   5.875   9.500  0.0145 -0.0215  0.0068
50246W        W93159  21.311  33.750   3.913  0.0426  0.0747  0.1485
50247W        W93160  11.397  31.163   9.074  0.0527  0.1407 -0.0391
50248W        W93161  29.027  28.168   6.184  0.3547 -0.0213  0.1013
50249W        W93162  33.934  25.549  27.897 -0.3492  0.0791 -0.2149
50250W        W93163  31.941  34.088  11.071 -0.1660 -0.3639  0.2332
50251W        W93164  12.905   1.243   9.427  0.0529  0.0088  0.1962
50252W        W93165  30.603   7.593   9.125 -0.1438  0.5089 -0.0856
50253W        W93166  27.110   0.008   6.406  0.2386 -0.1048  0.0393
50254W        W93167  31.480   9.508   3.945 -0.0030  0.1699 -0.3840
50255W        W93168  32.430   1.830  26.150  0.4752  0.0526 -0.2726
50256W        W93169  33.675   1.782   4.599 -0.1046 -0.1565  0.1630
50257W        W93170  23.344  25.220   4.921 -0.1275  0.0591 -0.2425
50258W        W93171   0.787   1.615   8.061 -0.2132 -0.5348 -0.4436
50259W        W93172   0.486  31.356  24.274  0.0757 -0.2408  0.1064
50260W        W93173  33.858   7.312   4.593 -0.1597  0.3388 -0.3055
50261W        W93174   1.735  32.321   5.769 -0.0733 -0.0428 -0.0648
50262W        W93175  25.442   3.052   0.813 -0.2183 -0.1508 -0.2595
50263W        W93176   6.735  31.796   1.585 -0.3438  0.1262 -0.0382
50264W        W93177  24.702  33.574  29.578 -0.2836 -0.4028  0.0067
50265W        W93178   8.154  34.220   8.401  0.0458  0.0105 -0.2085
50266W        W93179   6.432  30.890   7.368 -0.1076 -0.0685  0.1969
50267W        W93180  31.638   3.392  11.560  0.1331 -0.1127 -0.1165
50268W        W93181   5.868  32.165  29.527 -0.2572 -0.0464  0.2211
50269W        W93182  33.255  21.455   8.388 -0.1404 -0.0961  0.5131
50270W        W93183  26.229   6.341   4.631 -0.0923  0.3077  0.3288
50271W        W93184  29.637   4.488   3.084 -0.0726  0.2042  0.3917
50272W        W93185  34.345  30.729   6.589  0.0065  0.0102 -0.0631
50273W        W93186  22.993  28.473   6.399  0.2120  0.1729 -0.0023
50274W        W93187   7.231   0.015   8.465  0.2816 -0.0478 -0.1219
50275W        W93188   5.102  29.406  10.185  0.0186 -0.0760 -0.1022
50276W        W93189   1.434  24.484   6.235  0.1009  0.3909  0.0501
50277W        W93190   5.532  20.757   7.201 -0.1164 -0.1195  0.1483
50278W        W93191  31.890   0.621   9.118 -0.3245  0.1562  0.1318
50279W        W93192  34.290  29.776   5.611  0.0602 -0.2893  0.0750
50280W        W93193  31.288   0.270   6.991 -0.2231 -0.0060 -0.1128
50281W        W93194  24.906   9.820   0.107  0.1384 -0.1336 -0.0340
50282W        W93195  34.495  29.057   7.172 -0.1601  0.2025  0.2138
50283W        W93196   7.240  31.431   6.177  0.1650  0.1158  0.2837
50284W        W93197  31.795   1.228   5.913  0.1120 -0.0397 -0.0592
50285W        W93198   1.078  23.117   8.045  0.0397 -0.0487  0.0522
50286W        W93199  30.598  13.477   2.415  0.4240  0.2707 -0.4320
50287W        W93200   2.007   5.633   6.860 -0.2225 -0.3379 -0.0459
50288W        W93201   0.641  25.525   9.699  0.1955  0.1414 -0.1460
50289W        W93202  33.334  19.143   9.214  0.2265 -0.1398  0.0657
50290W        W93203   1.984  30.416   5.103 -0.0438  0.1457 -0.1544
50291W        W93204   3.367   6.604   4.338  0.2436 -0.0942 -0.3233
50292W        W93205  28.766  28.732   4.885 -0.0076 -0.3610 -0.2274
50293W        W93206  28.801  10.784   0.973 -0.1528 -0.1361 -0.0736
50294W        W93207   4.283  31.406  10.999 -0.2937  0.2149  0.1033
50295W        W93208   4.640  32.925   0.530 -0.1457 -0.1536 -0.1605
50296W        W93209  29.939   3.272  10.394  0.0090  0.0272  0.1472
50297W        W93210   3.657   4.471   6.390 -0.6297  0.1325 -0.2348
50298W        W93211   0.005  31.962   3.912  0.1230  0.3434  0.1609
50299W        W93212  29.566  30.023   5.103  0.3662  0.4480 -0.1067
50300W        W93213   0.374  25.197   7.242  0.0133  0.3928 -0.1592
50301W        W93214   2.514  32.166   1.151 -0.3912 -0.0035 -0.2189
50302W        W93215   7.044  26.362   3.888  0.0849 -0.3961 -0.0142
50303W        W93216   1.459   7.245   6.547  0.0657 -0.1886 -0.4003
50304W        W93217  32.467  24.915  27.394  0.0914 -0.0481  0.2427
50305W        W93218   2.764  30.787   9.536 -0.0040  0.1282 -0.1399
50306W        W93219  31.569  22.259   8.008  0.1232 -0.2033  0.0862
50307W        W93220   3.909  15.499   6.057  0.1776  0.2174 -0.0571
50308W        W93221   1.996   2.076   4.912  0.2263 -0.1153  0.0020
50309W        W93222   1.766  32.768   8.095 -0.2362 -0.0943 -0.3017
50310W        W93223   5.093   3.858   9.141  0.0275 -0.1946  0.2374
50311W        W93224   5.551  14.635   9.103  0.0066  0.0193 -0.5115
50312W        W93225   5.819   1.758   5.192  0.0618  0.0624  0.0517
50313W        W93226  30.284  32.845  21.547  0.0391  0.0883  0.0583
50314W        W93227  27.203  31.981   8.520 -0.0824  0.2558  0.3220
50315W        W93228   5.647   3.342   0.117 -0.1256 -0.1015 -0.2470
50316W        W93229  11.276   5.171   2.829  0.1021  0.0364 -0.1291
50317W        W93230   3.155   2.941   4.322  0.0943 -0.0303  0.1503
50318W        W93231  33.004   0.958  10.466 -0.0275  0.1401  0.1420
50319W        W93232  32.631   0.610  10.481 -0.0799 -0.1934  0.0351
50320W        W93233  24.008   7.461   7.024 -0.0532  0.3519 -0.0350
50321W        W93234  30.256   2.240   8.144  0.1890  0.0289  0.0355
50322W        W93235  31.879  30.724   6.021 -0.1331  0.0287 -0.0935
50323W        W93236  33.314  19.353  28.598  0.0035  0.1432  0.0302
50324W        W93237  10.285   4.053   5.163  0.3581  0.0135 -0.0092
50325W        W93238   0.312  11.633  28.493  0.2519  0.1561 -0.0540
50326W        W93239   1.537   6.513   5.006 -0.0004  0.2392  0.1398
50327W        W93240  25.955  28.873  26.744 -0.2559 -0.2246  0.1066
50328W        W93241  19.361   4.172   2.170 -0.1844  0.0869 -0.0702
50329W        W93242  28.969   5.783  23.422 -0.1320 -0.2457  0.1539
50330W        W93243  15.572  10.908   6.681 -0.0167  0.1325 -0.1728
50331W        W93244  29.107   6.602  28.333 -0.0756 -0.0477 -0.0929
50332W        W93245  30.733   1.053   4.686  0.0346  0.0999 -0.0990
50333W        W93246   1.746   5.522   6.144  0.0047  0.1043 -0.2607
50334W        W93247  29.551  28.598   1.853 -0.3311 -0.0743 -0.2100
50335W        W93248  10.624  15.115   5.196  0.2011  0.2670  0.2121
50336W        W93249  31.583   5.923   6.042  0.1045  0.3131 -0.1760
50337W        W93250  33.921  34.297   6.668  0.1845  0.2533 -0.3978
50338W        W93251  23.027  25.056  27.957 -0.3467  0.2352 -0.2078
50339W        W93252  12.611  20.115  28.482  0.2974  0.1116 -0.0542
50340W        W93253  17.030   7.365   5.293 -0.1732  0.0772  0.0195
50341W        W93254  33.753   0.278   6.475  0.1557 -0.0540 -0.1716
50342W        W93255  30.988   1.838  24.779  0.0001 -0.0030  0.1889
50343W        W93256  12.681   9.352   1.991  0.1286 -0.2469 -0.0464
50344W        W93257   0.144   4.553  10.997  0.0092 -0.3186  0.2084
50345W        W93258  25.278  32.994  28.355  0.1212 -0.1081  0.2054
50346W        W93259  27.230   6.837   5.012 -0.0918 -0.0427  0.3650
50347W        W93260   0.499  33.407   8.815 -0.3172  0.1759  0.1732
50348W        W93261  31.973  16.126   0.293 -0.2353 -0.0123 -0.0497
50349W        W93262   3.080  33.492  26.483 -0.0603  0.2525 -0.3677
50350W        W93263  24.483   1.291  22.883 -0.1080 -0.1941  0.1933
50351W        W93264  24.183  11.643   0.486 -0.1477 -0.3411  0.1442
50352W        W93265   2.785   0.208   5.802  0.5663  0.2893  0.1375
50353W        W93266  25.339  34.323   9.764  0.0730  0.0770 -0.2123
50354W        W93267  26.275   6.417   0.600 -0.0387  0.1100  0.0008
50355W        W93268  30.816  32.439  11.091 -0.4971  0.0598 -0.1940
50356W        W93269  30.066   1.327   1.443 -0.0177  0.1345 -0.1863
50357W        W93270   5.630   2.042  26.584  0.0547 -0.1426  0.2439
50358W        W93271  25.450  34.026   0.126 -0.0739 -0.0389  0.0389
50359W        W93272  26.506  33.296   3.111 -0.3674  0.1119  0.0234
50360W        W93273   2.310  29.935   5.143  0.0410 -0.4221 -0.2081
50361W        W93274   7.555  33.201   5.979  0.0253  0.0403 -0.2333
50362W        W93275  32.040  20.981   0.076  0.2490 -0.0725 -0.2629
50363W        W93276   0.979  29.322  27.902 -0.2513 -0.1506 -0.2311
50364W        W93277  32.501   5.413  25.917 -0.1334 -0.3619 -0.2760
50365W        W93278  34.424   1.328  26.025  0.3518 -0.1077 -0.0016
50366W        W93279  26.762   3.476  24.693 -0.1677  0.0542 -0.1386
50367W        W93280  22.646   1.632  26.450 -0.1766  0.0970 -0.1570
50368W        W93281   4.013   3.760   1.885 -0.0865  0.0755  0.1141
50369W        W93282  32.548   9.416   1.366  0.2328  0.0009  0.1292
50370W        W93283   3.786  29.600   6.967 -0.0744 -0.0739 -0.1191
50371W        W93284  27.553  33.655  27.725 -0.3925 -0.0412 -0.3149
50372W        W93285  30.306  29.072   6.414 -0.3075 -0.2587  0.0226
50373W        W93286  27.384   3.300  24.385 -0.1226 -0.0833  0.2480
50374W        W93287   0.561   7.453  10.515 -0.2793  0.0766 -0.3352
50375W        W93288  29.459   3.975   7.507  0.2010 -0.1720  0.1647
50376W        W93289  29.155   5.348   1.201 -0.0762  0.1932  0.0070
50377W        W93290   5.908  23.130   4.954 -0.2148 -0.0324 -0.0997
50378W        W93291   3.623  33.312   8.497 -0.1447  0.2566 -0.1093
50379W        W93292  28.569   9.559   3.090  0.0006 -0.0251  0.2293
50380W        W93293  21.281   2.013   7.585 -0.1656 -0.0948 -0.0308
50381W        W93294  33.399  33.238  23.315 -0.1254  0.1911  0.1506
50382W        W93295   5.685   6.964  28.337 -0.1217  0.0663 -0.0222
50383W        W93296  23.908  32.197  26.020 -0.0300  0.1590 -0.2343
50384W        W93297  27.530   0.701   4.011 -0.0332 -0.0254  0.2067
50385W        W93298  33.402  24.657  19.681  0.0857  0.0383  0.3769
50386W        W93299  27.543   4.154  26.360 -0.1397 -0.2667  0.3609
50387W        W93300  33.865  18.506  28.414  0.0509 -0.1537 -0.2087
50388W        W93301   0.258  34.372   2.355 -0.0929  0.0837  0.3461
50389W        W93302  28.958  20.896   4.409  0.0752  0.1486  0.1318
50390W        W93303   5.960   5.263   3.641  0.2843  0.0222  0.1553
50391W        W93304  32.487  10.140   7.738 -0.0337 -0.0031 -0.0011
50392W        W93305  22.404  29.756   0.101  0.1745  0.0003 -0.1835
50393W        W93306   7.229  26.881   0.520 -0.1889 -0.0145  0.0252
50394W        W93307  27.265   8.967   9.610  0.1079  0.0788  0.0263
50395W        W93308  30.187  26.153   7.320  0.0854 -0.0458  0.0087
50396W        W93309  26.897   2.828   5.521 -0.2794  0.1523 -0.0929
50397W        W93310  20.683   5.943   5.065 -0.1349  0.2199  0.3071
50398W        W93311   2.466  19.095  28.276 -0.0057 -0.0062 -0.1196
50399W        W93312  28.400  24.314   3.312 -0.1296 -0.0842  0.4196
50400W        W93313  30.318  29.570   5.251 -0.0670 -0.1413 -0.1306
50401W        W93314  29.987  31.689   0.991 -0.0250  0.2660  0.0253
50402W        W93315   0.794   0.445   4.712 -0.0958  0.2992 -0.2570
50403W        W93316  34.128   4.183   7.339  0.2134  0.1694  0.3076
50404W        W93317  23.585   4.721   8.055 -0.1117 -0.3027  0.0285
50405W        W93318  21.414  12.071   0.026 -0.0578 -0.1063 -0.1054
50406W        W93319  29.782  28.079  28.748 -0.0358  0.3780  0.0911
50407W        W93320   5.429  32.085  20.298  0.1889 -0.1435  0.1433
50408W        W93321  29.275  30.025  27.983  0.1421 -0.0379 -0.2428
50409W        W93322   0.231  31.641  26.298 -0.2762 -0.0626 -0.2151
50410W        W93323  33.368   9.906   9.247 -0.0253 -0.0432 -0.0318
50411W        W93324  33.343   1.793   1.876  0.2059 -0.1685  0.0794
50412W        W93325   2.892  22.886   8.579 -0.1530 -0.1863  0.1400
50413W        W93326  31.506  34.187   2.708  0.0917  0.0025  0.0292
50414W        W93327  28.545  30.114   8.689  0.0426 -0.0770 -0.0773
50415W        W93328   2.645   4.587   2.762  0.1301 -0.0551 -0.0932
50416W        W93329  32.113   0.507  29.403 -0.0734  0.2826 -0.1871
50417W        W93330  19.645  23.090  28.478  0.2505 -0.0343 -0.2380
50418W        W93331  33.408   3.388   5.838  0.1324  0.1963  0.2505
50419W        W93332  31.194   8.189   6.019 -0.4011 -0.0216  0.3364
50420W        W93333  28.833  27.105   2.111 -0.0449 -0.3530  0.1751
50421W        W93334  23.351   4.242   9.984 -0.0608  0.2813 -0.1678
50422W        W93335  32.531  29.102   2.916 -0.0722  0.2689 -0.0182
50423W        W93336   5.806  33.220   9.319 -0.1647 -0.0529  0.0529
50424W        W93337  24.671  28.266   4.817 -0.0787 -0.1891  0.0936
50425W        W93338  12.771   5.218   5.697  0.1655 -0.0311 -0.1811
50426W        W93339  18.798  32.466   5.546 -0.3219 -0.2988 -0.5691
50427W        W93340  25.916  28.378   3.385 -0.4104 -0.0351 -0.1756
50428W        W93341  29.243   0.454  23.029  0.0059 -0.0543 -0.1424
50429W        W93342  31.203  22.586   5.162 -0.1500 -0.1433 -0.0705
50430W        W93343   9.110   0.587  22.180  0.2464 -0.0938 -0.0346
50431W        W93344  33.868   6.678   4.179 -0.0685  0.0556 -0.2040
50432W        W93345   3.879  32.179   9.788 -0.1078  0.1723  0.1039
50433W        W93346  31.347   0.657   9.555  0.2215  0.3100 -0.4587
50434W        W93347  32.541   3.903  29.134 -0.1574 -0.1677 -0.1133
50435W        W93348  24.234   0.330   3.020 -0.2359 -0.1898  0.1729
50436W        W93349   0.326   5.661   1.691 -0.1499  0.0405 -0.0136
50437W        W93350   4.193   5.920   1.314 -0.1970  0.3293  0.1771
50438W        W93351  27.888  29.420  26.078 -0.3613  0.0271  0.2735
50439W        W93352  30.705   5.571   3.918 -0.3048  0.0628 -0.0837
50440W        W93353  31.306  24.495   9.241  0.0463 -0.2338  0.1045
50441W        W93354  24.663   4.649   9.821 -0.0531  0.5231 -0.1729
50442W        W93355   3.245  34.345   6.773  0.0340  0.1623 -0.0257
50443W        W93356   6.651  17.067   9.583  0.1802  0.0420  0.2476
50444W        W93357  32.335  27.706  26.643  0.2433  0.2199 -0.1999
50445W        W93358  23.236   7.447   4.481  0.1587  0.0922 -0.3850
50446W        W93359   5.075  24.541  27.019  0.2260  0.0279  0.2251
50447W        W93360  34.105  24.791  20.679  0.0234 -0.0871 -0.1402
50448W        W93361  33.240  31.277   0.966 -0.1437 -0.2565 -0.1342
50449W        W93362   2.166   8.244   2.007 -0.4735 -0.3387 -0.3017
50450W        W93363   6.610   5.230  26.468 -0.1241  0.2396  0.0977
50451W        W93364  29.783  31.502  26.546 -0.0710 -0.0002 -0.0434
50452W        W93365  32.370  26.936   7.532 -0.0339  0.0490  0.0596
50453W        W93366  26.628  27.219   9.466  0.1866  0.0414 -0.1413
50454W        W93367  31.959  24.909   5.917 -0.0294  0.1441 -0.1133
50455W        W93368  30.074  33.754   4.591 -0.1745  0.1018  0.5081
50456W        W93369  28.916  28.618   7.080  0.0345 -0.0626  0.0630
50457W        W93370   2.650   4.398   0.876  0.1056 -0.1198 -0.1084
50458W        W93371  32.571  32.071  27.112  0.2339  0.0190 -0.0572
50459W        W93372   4.295  23.160   8.481 -0.0419  0.2170 -0.0538
50460W        W93373  28.977  24.342   1.800 -0.1575 -0.1444  0.0446
50461W        W93374   0.305  28.060   1.436  0.0836  0.0767  0.0543
50462W        W93375   3.024  23.536  29.173 -0.1568  0.0525 -0.0486
50463W        W93376   5.095  22.019  25.067  0.0020 -0.1122  0.3324
50464W        W93377   9.657   9.342  27.999  0.0612 -0.2294 -0.3749
50465W        W93378  33.291  14.038   5.770 -0.0136 -0.0186 -0.3426
50466W        W93379  31.489   0.517   0.185  0.0723  0.0976  0.0214
50467W        W93380  19.455  27.442  27.525 -0.4195 -0.1381  0.0132
50468W        W93381  26.028   9.229   0.753  0.2583  0.1237 -0.1499
50469W        W93382   4.287  19.001   4.736 -0.1292  0.0509  0.0727
50470W        W93383   3.566  34.437   2.949  0.1050  0.2491 -0.2293
50471W        W93384  24.945   1.324  28.716 -0.0685 -0.1689 -0.1562
50472W        W93385  32.330   1.500   0.387 -0.0955 -0.1010 -0.1061
50473W        W93386  33.328   3.754   3.085  0.1141  0.2003 -0.4278
50474W        W93387  24.754   2.753  29.653 -0.1713 -0.4989  0.2929
50475W        W93388   4.344  29.028   6.366  0.0808 -0.2919  0.3320
50476W        W93389   1.630   4.958   1.904  0.2185 -0.0162 -0.0084
50477W        W93390   7.332   6.056  28.010  0.1458 -0.3081  0.0290
50478W        W93391  12.055   0.467   8.905  0.1779  0.1576 -0.0921
50479W        W93392   0.632  29.843   4.580  0.4039 -0.0922  0.1271
50480W        W93393  25.726  29.700   4.031  0.1306  0.0776  0.0788
50481W        W93394  29.459  11.093   3.237  0.0140  0.0198 -0.0805
50482W        W93395  21.886  11.930  29.038  0.3277 -0.2596 -0.0091
50483W        W93396  31.663   4.070  29.695  0.3688 -0.1765  0.1330
50484W        W93397  27.491   1.744  29.721 -0.1978 -0.0681  0.1388
50485W        W93398  32.744  20.807  26.971  0.2337 -0.0556  0.3435
50486W        W93399  31.876  31.980   2.094  0.2438  0.1797  0.0793
50487W        W93400   1.990   5.957   2.603  0.0324 -0.1276  0.2738
50488W        W93401  32.852   5.762   5.347 -0.0871  0.0877  0.4250
50489W        W93402   5.710   3.299  25.708 -0.1933 -0.0849  0.1327
50490W        W93403  18.171  32.426   7.783 -0.2654  0.1090  0.1092
50491W        W93404   3.292  26.417  18.589  0.0358  0.3772  0.0910
50492W        W93405  29.520   7.081   2.723  0.0961  0.1691  0.2453
50493W        W93406  26.760   0.089   1.604 -0.2221  0.0949 -0.0848
50494W        W93407   0.696   4.032  23.933 -0.1157  0.1237 -0.1040
50495W        W93408   1.687   1.076  26.496  0.2787 -0.1125 -0.0668
50496W        W93409  28.322  34.160   0.503 -0.1280 -0.1721 -0.0374
50497W        W93410  21.878  32.953  29.162  0.1275  0.1986 -0.0610
50498W        W93411  31.019   9.065   6.574  0.3741 -0.1464 -0.0141
50499W        W93412  29.528   1.346  23.947 -0.1410  0.1834  0.2928
50500W        W93413   1.342  22.195   3.296  0.2695  0.2796 -0.2285
50501W        W93414  23.340   6.227   0.047 -0.1030 -0.0667  0.1032
50502W        W93415  26.532  33.935   3.476 -0.2212  0.0408 -0.2952
50503W        W93416  27.972  32.435  25.389 -0.0855 -0.1101  0.3342
50504W        W93417   4.519   0.977   0.803 -0.0830  0.2696  0.1165
50505W        W93418   2.041   5.810  13.178  0.2265 -0.1184  0.2838
50506W        W93419  25.288  29.915   6.419 -0.0544 -0.1194  0.0114
50507W        W93420   0.847   4.883  25.735 -0.1633 -0.0440 -0.1507
50508W        W93421  29.468   2.066   7.429 -0.1019  0.1563  0.3591
50509W        W93422  33.534   7.928   7.355 -0.2288  0.1775  0.2553
50510W        W93423  30.263  30.066  29.402 -0.1470  0.3725 -0.2911
50511W        W93424  29.215  31.858   8.690 -0.1077 -0.2159  0.0298
50512W        W93425  33.234   6.954  10.502 -0.1970  0.1057 -0.0058
50513W        W93426   4.554  14.431   2.865  0.2356 -0.1536  0.4157
50514W        W93427   2.289  23.742  19.807  0.1130 -0.0150 -0.2534
50515W        W93428  25.383   6.581   4.442  0.1866  0.2335  0.1570
50516W        W93429  31.925  25.125   5.449 -0.1136 -0.0600  0.0635
50517W        W93430  27.736  21.055   7.316  0.2067 -0.1344  0.1035
50518W        W93431  32.481  29.424   4.630 -0.0423 -0.3065  0.2110
50519W        W93432  30.889   6.329   4.314  0.0672 -0.0837  0.1781
50520W        W93433  32.896  29.682  22.011  0.4542 -0.0951 -0.0608
50521W        W93434  31.764   4.565  21.264  0.2271 -0.2430  0.1002
50522W        W93435  31.487   5.011  21.146  0.0916 -0.2544 -0.1226
50523W        W93436   7.390   3.273   2.758 -0.0252 -0.2548  0.0835
50524W        W93437   0.693   3.847  27.123 -0.4755 -0.0221  0.0842
50525W        W93438  32.015  26.889   8.594  0.2274 -0.1829 -0.0015
50526W        W93439  24.640   0.123  24.997 -0.1781  0.2510 -0.1516
50527W        W93440  31.824   1.313  11.281 -0.1087  0.0239 -0.2009
50528W        W93441   2.393  26.331  23.564  0.1443 -0.0096  0.0509
50529W        W93442  22.738   9.905   3.116 -0.0467  0.2339  0.1475
50530W        W93443   8.368   5.181   9.507  0.5098  0.0503 -0.1703
50531W        W93444  20.525  33.018  24.786  0.3907  0.0026 -0.2271
50532W        W93445   4.407  10.385  11.172  0.0387 -0.0909 -0.0268
50533W        W93446  28.783   6.803  10.084  0.0174  0.0022  0.0312
50534W        W93447   1.563   7.844   7.761  0.0077 -0.0776 -0.1281
50535W        W93448  31.691  25.587   2.681  0.1632  0.2397  0.2290
50536W        W93449  21.815  31.005  27.946  0.2716 -0.2132 -0.3407
50537W        W93450   7.838  32.407  28.703  0.2911  0.0371  0.0162
50538W        W93451   2.390  30.786   1.421 -0.2131 -0.1279 -0.0057
50539W        W93452  15.476  25.644   4.511  0.0652 -0.0723 -0.4670
50540W        W93453  29.103   2.714   8.527 -0.2701  0.2836 -0.0319
50541W        W93454  29.175  11.213   2.623 -0.0115  0.0349  0.1364
50542W        W93455  33.890   9.535   7.906 -0.1460  0.0748 -0.0491
50543W        W93456  34.040  26.380   8.993  0.0497  0.0188  0.0702
50544W        W93457  30.849  25.864  19.622  0.0734 -0.0617  0.1072
50545W        W93458   2.302  32.735   5.987 -0.0133  0.0657 -0.0638
50546W        W93459  28.687  16.160   6.195  0.3256  0.0034  0.2017
50547W        W93460  22.827  14.463   1.745  0.0213  0.3254 -0.0071
50548W        W93461  27.497   2.494   6.588 -0.0632  0.0741 -0.0058
50549W        W93462  33.096   3.605   9.552 -0.0400 -0.1996 -0.1741
50550W        W93463  28.457   0.768   3.914  0.0561  0.0510 -0.1679
50551W        W93464  34.044   3.936  12.007  0.2625 -0.1233  0.0324
50552W        W93465   2.249  10.509  11.085 -0.0714  0.1838  0.2246
50553W        W93466  31.258   7.288   6.860  0.2491 -0.0810 -0.0513
50554W        W93467  26.789  24.870   5.895  0.4589 -0.0807  0.0170
50555W        W93468  33.091   4.960   1.684 -0.0342 -0.0925 -0.1525
50556W        W93469  10.772  28.200   2.111  0.3041 -0.0775 -0.0160
50557W        W93470   2.051   9.331   9.341 -0.0033 -0.2211  0.2208
50558W        W93471  27.658   8.504   0.242  0.0362  0.1449  0.1408
50559W        W93472   4.812  31.336   4.175  0.2463 -0.0163 -0.0005
50560W        W93473   8.286   0.455   8.454 -0.5503  0.0239 -0.1126
50561W        W93474  25.678   6.434   3.041  0.1241 -0.1194  0.1668
50562W        W93475  32.846   9.978  10.268 -0.2365  0.2846  0.1476
50563W        W93476  24.330  33.407   4.509 -0.3561  0.3262 -0.2746
50564W        W93477  31.587   9.640   0.113 -0.0973 -0.1372 -0.2738
50565W        W93478  26.395   1.961  29.595  0.1580  0.2143 -0.1785
50566W        W93479   4.569   1.700  10.778  0.1537  0.0554 -0.2242
50567W        W93480  29.255   3.789   5.910  0.1946  0.0458  0.2715
50568W        W93481   2.083   3.468   9.564  0.1298  0.1996 -0.0504
50569W        W93482   0.242   8.645   8.913  0.1708 -0.0344 -0.2365
50570W        W93483  29.888  31.591   6.994  0.5912 -0.2516 -0.1176
50571W        W93484   0.408  31.187   3.920  0.1089 -0.0251 -0.0235
50572W        W93485  23.422   3.104   3.435  0.0259  0.1785 -0.0134
50573W        W93486  11.283  30.509   6.863 -0.1600 -0.2523  0.1555
50574W        W93487   4.180  31.919   5.962  0.1609  0.1793  0.1289
50575W        W93488  25.245  32.546   8.809  0.1335 -0.0396 -0.1965
50576W        W93489  18.029   8.093   8.510  0.1009  0.2728  0.4222
50577W        W93490  31.110   3.293   8.110  0.2287  0.0421 -0.0486
50578W        W93491  22.906   1.998   4.711  0.2255 -0.0875  0.0231
50579W        W93492  33.993  33.412   3.482  0.2215  0.1755  0.0509
50580W        W93493   4.052   1.253  11.454  0.1437  0.1759 -0.0516
50581W        W93494  27.111  33.014   5.032  0.0381 -0.3257 -0.0653
50582W        W93495  21.420   4.963   6.220 -0.0529 -0.2378 -0.1355
50583W        W93496  33.624   2.555   5.588  0.2358 -0.1804 -0.3113
50584W        W93497  34.474   0.619   5.584  0.1159 -0.0692 -0.3137
50585W        W93498   5.399  28.809  22.483 -0.1605 -0.2781 -0.0253
50586W        W93499   1.443   2.434   7.256  0.0084 -0.0572  0.1909
50587W        W93500  34.379  28.438   5.706  0.3203 -0.0622 -0.0865
50588W        W93501   0.733  32.194   4.522 -0.0157  0.1360 -0.1588
50589W        W93502   0.503  32.051   9.610  0.0101 -0.0536 -0.0269
50590W        W93503  26.386  26.966   5.467  0.0729  0.0041 -0.0384
50591W        W93504  26.256  32.918   5.134  0.0606  0.0014  0.1398
50592W        W93505  21.023  30.960   3.866 -0.2498  0.0651  0.1648
50593W        W93506  33.132  31.748  26.192  0.0399  0.0802  0.0737
50594W        W93507  25.991  31.755  23.884 -0.0725 -0.1900  0.0402
50595W        W93508  32.066  22.907   1.849 -0.0122 -0.1395  0.0124
50596W        W93509   9.842  28.209   7.622  0.1255 -0.0220  0.8483
50597W        W93510  31.630  27.594   3.516  0.0950 -0.4475  0.1189
50598W        W93511   1.965   6.360  11.025  0.0397  0.0354  0.0052
50599W        W93512  33.947  30.413  20.536  0.0944  0.0393  0.1178
50600W        W93513   0.919  33.397  29.526  0.0902  0.0608 -0.0875
50601W        W93514  32.154  33.166   9.510 -0.0514  0.1936 -0.2515
50602W        W93515   8.650  28.237   1.640  0.2134 -0.0972 -0.1170
50603W        W93516  29.790   4.280  10.181  0.1795 -0.0878  0.0228
50604W        W93517  27.785   3.924   9.974  0.0432 -0.1622 -0.2284
50605W        W93518  34.333  27.216  10.639  0.3068 -0.1299  0.2905
50606W        W93519   5.499   0.477   6.990  0.1097 -0.0934 -0.2011
50607W        W93520   1.584   0.138   8.563  0.1939 -0.0916 -0.0149
50608W        W93521   0.969  33.962   6.630 -0.0341 -0.0265 -0.0823
50609W        W93522  24.719  31.193   7.315 -0.0907 -0.0523 -0.0462
50610W        W93523  28.871  26.604   5.235 -0.4625 -0.1462 -0.2072
50611W        W93524  26.216   4.797   1.762  0.0279 -0.1381 -0.0644
50612W        W93525  31.621  28.922  27.566  0.0853  0.2619 -0.1603
50613W        W93526  28.339  23.246   4.963  0.0324  0.1396  0.1370
50614W        W93527  33.464  11.656  29.408 -0.0517 -0.1695 -0.2277
50615W        W93528  31.134  28.498   3.814 -0.1899  0.1868  0.2166
50616W        W93529   2.371   7.878   7.706 -0.1146 -0.2086 -0.4778
50617W        W93530  29.552  29.158   8.670 -0.0173  0.0513  0.0564
50618W        W93531   1.145   2.506   5.949  0.0800  0.4098  0.0373
50619W        W93532  33.408  33.598   9.183 -0.1642  0.0303 -0.1117
50620W        W93533  32.940  34.481   1.555  0.2817 -0.1858  0.1321
50621W        W93534  24.542  32.050  27.488 -0.2168  0.0988  0.0144
50622W        W93535   2.585   1.608  29.201  0.3377 -0.0113 -0.0594
50623W        W93536  28.010   7.173  28.989  0.0301 -0.0836 -0.0959
50624W        W93537   1.910  10.221   2.497 -0.2740  0.0645 -0.1946
50625W        W93538  30.068   9.865   6.091  0.2175 -0.4325 -0.0410
50626W        W93539  12.151  31.988  26.679  0.3362 -0.0050 -0.2783
50627W        W93540   5.790   0.121  13.112 -0.0161  0.1853 -0.1262
50628W        W93541   0.794  29.957   8.791  0.2545 -0.1732  0.5074
50629W        W93542   4.424  32.807   6.089  0.0785  0.1347  0.2279
50630W        W93543  19.023   5.740   3.440  0.4058  0.2135 -0.1830
50631W        W93544  28.418   3.678   6.883  0.0170 -0.0974 -0.1872
50632W        W93545  28.258  30.576   4.866 -0.3136  0.1257 -0.1188
50633W        W93546  29.468   1.330  10.063 -0.0107 -0.1037 -0.3793
50634W        W93547   8.364  31.035   1.060  0.0280  0.1026  0.3555
50635W        W93548  33.544   6.305   5.368  0.1041  0.1541  0.1922
50636W        W93549  31.278  32.325   3.086  0.1322 -0.1094 -0.3285
50637W        W93550   6.440  26.754   7.770 -0.2970  0.0702 -0.2731
50638W        W93551  22.187  19.445   4.448 -0.0522 -0.0183 -0.1603
50639W        W93552  32.317  32.463   3.730  0.0232 -0.2607 -0.0489
50640W        W93553   0.261   3.521   9.001 -0.2435  0.1290 -0.0190
50641W        W93554  25.191  28.323   6.655  0.1398 -0.1750 -0.0522
50642W        W93555   4.585   3.967   8.979 -0.1056 -0.1471 -0.2348
50643W        W93556  17.110  31.492   0.022 -0.1520 -0.2304 -0.1405
50644W        W93557   1.313   5.339  10.461  0.0183  0.3259  0.1094
50645W        W93558  19.502   0.303   2.577 -0.1665 -0.0796  0.0978
50646W        W93559  28.989  32.879   7.873  0.0735 -0.3337  0.1054
50647W        W93560  32.389   8.025   4.252 -0.2691 -0.0919 -0.3145
50648W        W93561   2.521   7.361  12.727  0.0174 -0.2706  0.1272
50649W        W93562  33.568   9.296  11.636  0.2874  0.1333 -0.1848
50650W        W93563   4.684   2.808  27.927  0.2328 -0.3347  0.2345
50651W        W93564  27.935  29.067   7.314  0.0139 -0.3599 -0.1232
50652W        W93565  28.836   9.788  29.030  0.3884 -0.2547 -0.1655
50653W        W93566  23.852   0.282   9.634 -0.2578  0.0275  0.0028
50654W        W93567  26.504   4.713   3.615 -0.1904  0.0009 -0.2678
50655W        W93568  31.447   6.782   2.620  0.1218 -0.0400  0.2256
50656W        W93569   1.385   1.964   9.857  0.1310  0.5093 -0.0827
50657W        W93570  15.256   9.784  26.846  0.0885  0.0225 -0.0987
50658W        W93571  32.644   5.314  11.361  0.0556  0.2314  0.1012
50659W        W93572  28.053   5.354  25.580  0.0367  0.1696  0.1123
50660W        W93573   5.318  31.309  11.306  0.0662 -0.1803  0.0891
50661W        W93574  29.165   8.629   8.036  0.0867 -0.4146  0.1675
50662W        W93575   4.028  33.664   6.118  0.1167  0.1825  0.1520
50663W        W93576   2.848   8.250   9.699 -0.0022  0.0124  0.1050
50664W        W93577  31.140   4.236   5.349 -0.0956 -0.0762  0.4424
50665W        W93578   0.346   0.746   5.911  0.1104  0.0660 -0.1463
50666W        W93579   1.822  28.037   8.146 -0.2449 -0.3505  0.4461
50667W        W93580  28.071  31.519   7.555  0.0565  0.3818  0.1705
50668W        W93581   5.108  10.269   9.813 -0.4013  0.4934  0.1978
50669W        W93582  30.745  28.379   2.993  0.1291  0.1124 -0.1150
50670W        W93583   0.128   2.644   9.534 -0.2137 -0.2591 -0.1465
50671W        W93584   9.062  31.494  26.813  0.0379  0.2230  0.3500
50672W        W93585  31.651   3.290   7.886 -0.0519 -0.0046 -0.1321
50673W        W93586  31.349   0.461   5.490 -0.0568  0.2030  0.2564
50674W        W93587  34.293  18.946  28.055 -0.1703 -0.2241  0.1267
50675W        W93588   4.283  32.395   4.815  0.3502 -0.0018  0.0259
50676W        W93589  33.395   2.945   3.483 -0.0438  0.2172 -0.0454
50677W        W93590   5.784   2.698   1.794 -0.3755  0.1218  0.0375
50678W        W93591   7.218  31.284  29.131 -0.0943  0.1259  0.2434
50679W        W93592  33.339   5.518   1.011  0.1002 -0.0082 -0.1127
50680W        W93593  32.533  33.649   6.089 -0.1289  0.0749 -0.2202
50681W        W93594   3.219  26.038  26.373  0.0924  0.0179 -0.0646
50682W        W93595  31.833   1.781   7.944 -0.0549  0.1741 -0.0147
50683W        W93596  23.326  32.696   9.038 -0.0196 -0.0916  0.1166
50684W        W93597   0.368   7.716   4.697  0.2439  0.0114 -0.1024
50685W        W93598   5.869  32.464   8.118 -0.2144 -0.2942 -0.0391
50686W        W93599  21.550  31.696   7.076  0.4221  0.0642 -0.0683
50687W        W93600  32.816   0.375   7.826  0.1143  0.5533 -0.1417
50688W        W93601  29.009   4.255  25.212  0.0042 -0.2502  0.0406
50689W        W93602   0.421   5.878  19.263  0.1617 -0.0752  0.1568
50690W        W93603  33.629   6.707   0.517  0.1811  0.0075 -0.0225
50691W        W93604   4.331   4.717   9.211 -0.1262 -0.0356  0.1811
50692W        W93605  33.364   9.271   4.371 -0.1269 -0.2793 -0.1384
50693W        W93606  29.633  32.900   2.678 -0.1304  0.1330  0.3387
50694W        W93607  30.886   5.828  10.194 -0.0022 -0.3566 -0.1485
50695W        W93608  27.981   5.318  10.465 -0.1510 -0.3431  0.0454
50696W        W93609  28.926  21.727   4.890  0.0132 -0.0959  0.0634
50697W        W93610  34.224  34.129   9.358  0.1201  0.1971 -0.1883
50698W        W93611   4.956   1.580   5.520 -0.0648 -0.0558 -0.1076
50699W        W93612  26.465   1.293   6.101 -0.2785 -0.0767  0.1160
50700W        W93613   7.716  27.181   8.621  0.0221  0.0852  0.0324
50701W        W93614  30.571  29.943   7.876 -0.0215  0.1175  0.0835
50702W        W93615  24.683   0.061   5.317  0.0417  0.1616 -0.0592
50703W        W93616   2.869  32.094   6.384  0.2192 -0.1535 -0.2371
50704W        W93617   1.507   3.623   7.287  0.1221  0.0536  0.1001
50705W        W93618  27.520  31.553   8.621 -0.0796 -0.0468 -0.1143
50706W        W93619  34.010   2.478   7.951 -0.0840 -0.2710 -0.2608
50707W        W93620  24.511  34.027   8.654  0.2121 -0.0228  0.0704
50708W        W93621  27.563   9.196  29.657 -0.1003  0.0041  0.3885
50709W        W93622   0.753   8.083   2.556  0.1023  0.0210  0.0740
50710W        W93623   0.545   0.216   6.750  0.0902 -0.1069 -0.0971
50711W        W93624  30.727  26.530   8.921  0.2378  0.2131  0.1379
50712W        W93625  21.658   5.298  27.327  0.2538 -0.1249 -0.0841
50713W        W93626  22.705  29.550   4.362  0.0486 -0.2257 -0.0991
50714W        W93627  12.228  31.034   9.570  0.4325 -0.2070 -0.1143
50715W        W93628  28.861  11.514  27.769 -0.2782  0.3405 -0.0072
50716W        W93629  29.038  17.139   2.920 -0.0671  0.0794  0.0740
50717W        W93630  28.703   2.294   3.924 -0.2508 -0.0579  0.2063
50718W        W93631  30.276  10.373   6.888 -0.1362 -0.1003 -0.1635
50719W        W93632  30.411  30.609   8.996  0.0808  0.0619 -0.0197
50720W        W93633  27.015   7.699   8.758  0.1107 -0.0155  0.2210
50721W        W93634  31.773  33.368   6.139 -0.1575 -0.4319 -0.0576
50722W        W93635  30.075  27.855  29.535 -0.0392 -0.1365 -0.0266
50723W        W93636  21.934  28.100   2.121  0.0491  0.2531  0.3181
50724W        W93637  28.990   1.235   5.603  0.1791 -0.0848  0.0008
50725W        W93638  30.530  29.324  24.445 -0.0895 -0.0637 -0.2143
50726W        W93639  22.298  34.148   2.607  0.1222 -0.1986  0.0209
50727W        W93640  33.859   2.114  26.111 -0.0780  0.1493 -0.0358
50728W        W93641  30.947  28.268  29.746 -0.0820 -0.2740  0.0083
50729W        W93642  27.409   1.567   5.628 -0.0299  0.1802 -0.1095
50730W        W93643   1.757   0.499   0.681 -0.1185  0.0237  0.1048
50731W        W93644   2.544   6.140   5.371 -0.1421 -0.1415  0.2042
50732W        W93645  30.066   1.012  11.047 -0.0323 -0.1769 -0.1181
50733W        W93646  24.945  31.738   4.044 -0.1041  0.1007 -0.0049
50734W        W93647  19.415  25.932   3.817 -0.0195  0.0255 -0.1246
50735W        W93648  30.920  33.645   1.261  0.0816 -0.0266 -0.0420
50736W        W93649  29.424   2.993   9.631 -0.2767  0.0308  0.1332
50737W        W93650  33.235   8.359   6.015 -0.2521 -0.3320  0.1011
50738W        W93651   3.549   7.309   7.871 -0.3617 -0.2466  0.1228
50739W        W93652  31.766   0.471   1.287 -0.2074 -0.0130  0.2629
50740W        W93653   1.234  33.611   7.790  0.1467 -0.2573 -0.1735
50741W        W93654  32.541  30.322   8.564 -0.0369 -0.4073 -0.0837
50742W        W93655   3.620   9.551   3.457  0.2394  0.3103 -0.1806
50743W        W93656  28.894   1.399   4.010  0.0641  0.0705 -0.0430
50744W        W93657   0.105   0.247  11.112 -0.0681 -0.0219 -0.0613
50745W        W93658  27.442  12.428   4.355  0.0716 -0.4072  0.0759
50746W        W93659  31.251   1.694   7.543  0.2281  0.0750 -0.2794
50747W        W93660  26.609  12.449   7.767 -0.1656  0.0943 -0.0413
50748W        W93661   3.794   3.376  12.629 -0.3408  0.2571 -0.0555
50749W        W93662  31.740   1.881  29.558  0.1821  0.2636 -0.1859
50750W        W93663  33.482   2.051   5.471  0.1842 -0.5309 -0.0969
50751W        W93664   7.049  32.896   8.240  0.0739 -0.1977  0.4435
50752W        W93665   2.355   1.068   8.658  0.0224  0.0890  0.1631
50753W        W93666  30.270  33.299   8.847 -0.0992 -0.4636 -0.2796
50754W        W93667  26.954   0.394  28.827 -0.1088 -0.4280  0.0082
50755W        W93668  23.156  31.529  27.510  0.1460  0.0592  0.1609
50756W        W93669  11.462   6.518  11.179 -0.2699  0.0599  0.0648
50757W        W93670  30.100  14.637   6.168 -0.0875 -0.1007 -0.0730
50758W        W93671   3.934  32.548  26.891  0.1713 -0.1547 -0.0551
50759W        W93672  29.062   5.567   2.584  0.0208 -0.1702 -0.3224
50760W        W93673   3.241   2.682   1.617 -0.1126  0.2584 -0.0198
50761W        W93674   1.020   9.500   3.109  0.0430  0.2108 -0.2356
50762W        W93675  27.600  29.867   1.769 -0.4093  0.0192  0.0109
50763W        W93676  23.284   6.191   2.212  0.0427 -0.1571 -0.2516
50764W        W93677  32.903  31.654   5.129 -0.0653 -0.0512 -0.0645
50765W        W93678  26.932   0.219   6.863 -0.0246 -0.0902  0.0033
50766W        W93679  29.778  33.775  10.218  0.0504  0.3325  0.4747
50767W        W93680  27.857   3.755   0.448  0.0606  0.3122 -0.0371
50768W        W93681  31.466   2.197  10.727 -0.2854 -0.0574 -0.0521
50769W        W93682  27.959  25.925   5.295  0.0333  0.0699 -0.1156
50770W        W93683  33.949  30.594   6.928  0.2554 -0.4162  0.0959
50771W        W93684  27.812   2.074   0.928  0.0080  0.1560 -0.3096
50772W        W93685  24.093   4.979   6.758 -0.1713 -0.2592  0.2489
50773W        W93686  27.487   6.590   6.273 -0.0920  0.1472  0.1869
50774W        W93687   7.083  28.749   1.321  0.0293  0.0339  0.1933
50775W        W93688   9.742   0.781   2.828  0.0334  0.1880 -0.3588
50776W        W93689  29.769   5.216   9.294  0.2640  0.2721 -0.0271
50777W        W93690   5.462   2.515  11.799  0.1257  0.0256  0.3757
50778W        W93691   0.341   3.132   4.428  0.1282  0.0165 -0.0519
50779W        W93692  28.459   7.552   7.365 -0.0746  0.0193 -0.0912
50780W        W93693  32.269   0.576   8.087 -0.2906  0.0183 -0.1011
50781W        W93694   7.122  32.378  10.430  0.0788 -0.0389  0.1689
50782W        W93695   2.146   1.683   1.719 -0.3636  0.0646  0.0671
50783W        W93696  31.621   3.931   8.084 -0.0210  0.0156 -0.1411
50784W        W93697  34.103  23.986   7.589  0.3591 -0.0215  0.0864
50785W        W93698  31.963   7.522  10.168 -0.1486  0.0297 -0.2101
50786W        W93699  13.299  33.923   7.128 -0.0984 -0.2332 -0.3030
50787W        W93700  19.787  12.194  24.652  0.1896 -0.1683  0.0225
50788W        W93701  26.268   4.022   4.805  0.2434  0.1892  0.0732
50789W        W93702  32.575   4.081   3.530  0.3516  0.1388  0.2824
50790W        W93703   2.567   2.310  12.128  0.1319 -0.1356 -0.1087
50791W        W93704  24.234   8.767  26.267  0.0346  0.1242 -0.0914
50792W        W93705  32.289   5.243   9.354 -0.0368 -0.0025 -0.0792
50793W        W93706  24.646   3.378   8.403  0.1490 -0.1686  0.2303
50794W        W93707  32.165   6.004   9.844 -0.1279  0.1912 -0.0583
50795W        W93708  34.146   5.285   9.016 -0.0487  0.1637  0.1636
50796W        W93709  33.990  29.785   9.593 -0.1065 -0.0999  0.1488
50797W        W93710   5.737  26.743   9.320 -0.3482 -0.0995  0.1137
50798W        W93711  31.574   4.861  11.458 -0.0918  0.1435  0.0296
50799W        W93712  30.998   1.366   1.819  0.0871  0.2261  0.1619
50800W        W93713   0.838   0.014  10.416  0.0168 -0.0218 -0.0403
50801W        W93714  16.122   7.214   8.516  0.3470 -0.0852  0.3357
50802W        W93715  26.958  32.654   2.134 -0.0348 -0.3449 -0.1109
50803W        W93716  24.819   0.891   8.869  0.0703  0.1954  0.1760
50804W        W93717  18.807  23.829  25.020  0.2235 -0.1231  0.1086
50805W        W93718  29.370   7.289   8.483 -0.0528  0.0233 -0.3526
50806W        W93719  31.723  34.410   3.564  0.0214  0.0008  0.0960
50807W        W93720   6.319   3.236  13.516 -0.0073  0.0170  0.0441
50808W        W93721  23.875  23.067   3.304  0.0843  0.1207  0.3194
50809W        W93722  32.413  11.452   0.854 -0.0956  0.1253 -0.0694
50810W        W93723  14.248  27.804   5.592  0.1240  0.6565 -0.0558
50811W        W93724  29.650  33.634   6.282  0.1707 -0.0477 -0.1417
50812W        W93725   2.417   2.819   6.313  0.0341 -0.3062 -0.0869
50813W        W93726  25.488   9.429   1.683 -0.2411 -0.0132 -0.2994
50814W        W93727   6.856  27.797   1.472 -0.1137  0.1001  0.0757
50815W        W93728  34.155   0.390   2.839  0.0657  0.0839 -0.1065
50816W        W93729   3.242   4.221   0.430  0.0518  0.0113 -0.3926
50817W        W93730   2.850  29.125   2.022  0.0826 -0.0735 -0.0999
50818W        W93731  30.897  32.584   4.457  0.3024 -0.0225  0.4627
50819W        W93732   5.132  29.680   9.646  0.1135 -0.2800  0.0818
50820W        W93733  29.633  27.961   7.999 -0.0370 -0.1490 -0.1550
50821W        W93734  27.019  30.618   9.476 -0.0578  0.0377  0.2765
50822W        W93735  30.001   7.508   1.561 -0.4237 -0.0433 -0.1423
50823W        W93736  30.143  10.718  28.384  0.0843  0.1229 -0.0779
50824W        W93737  31.645  32.089  11.217 -0.1300  0.1308 -0.1900
50825W        W93738  10.035  29.929  28.735  0.0098 -0.0866  0.0591
50826W        W93739  30.464   5.579   8.931 -0.1363 -0.3190 -0.1957
50827W        W93740   5.805   2.347  12.095  0.0055  0.0759  0.0728
50828W        W93741   5.678   5.215   9.243 -0.0462 -0.0921  0.0676
50829W        W93742  31.280  30.996   9.435 -0.0156 -0.0308  0.2815
50830W        W93743  33.992  21.420   4.578  0.1265  0.1210 -0.1371
50831W        W93744   4.750  31.190   7.533  0.1851 -0.3246 -0.3014
50832W        W93745   0.465  34.044   4.148  0.1429 -0.1803 -0.1048
50833W        W93746  28.841   5.214   3.969  0.0014 -0.3329  0.1499
50834W        W93747  24.543   3.391   7.352  0.1399 -0.2653 -0.2315
50835W        W93748   5.137  24.785  27.958  0.0390 -0.0181  0.1874
50836W        W93749  24.519   8.179   9.735 -0.0468 -0.1027  0.3416
50837W        W93750   8.910  33.194   4.760 -0.0358 -0.2366 -0.1579
50838W        W93751   8.905  10.618  29.779  0.4231  0.3708  0.1415
50839W        W93752  31.538   4.696   5.327  0.1017 -0.1479 -0.0225
50840W        W93753  31.587   2.881  10.214 -0.0379  0.0970  0.1559
50841W        W93754  29.183  25.264   9.675  0.2301 -0.0941  0.0796
50842W        W93755  18.720  31.701   4.006 -0.1029 -0.1106  0.0458
50843W        W93756  25.460  24.802   1.031  0.1205  0.1667 -0.0022
50844W        W93757  12.010   2.697   7.715 -0.3117  0.0419 -0.4127
50845W        W93758  26.576   9.124   1.075 -0.1154 -0.3354  0.1086
50846W        W93759   2.445  33.307   9.088  0.1357  0.4003  0.1869
50847W        W93760   8.121  28.823   7.021  0.2739  0.2635  0.0871
50848W        W93761   0.766  27.100   2.384 -0.1209 -0.2912 -0.0494
50849W        W93762  27.423   7.187   7.308 -0.0358 -0.2326 -0.1875
50850W        W93763   9.340  34.426   7.075  0.0874  0.0307  0.1857
50851W        W93764  30.520  14.096   8.389 -0.1135  0.2533 -0.2158
50852W        W93765   0.363   5.465   9.601 -0.3723 -0.0715  0.0010
50853W        W93766  22.651  20.771   3.595  0.4617 -0.1176  0.4158
50854W        W93767  28.797   3.634   7.273  0.1697 -0.0439  0.1592
50855W        W93768  31.249  32.278   6.342 -0.0095 -0.0130  0.0629
50856W        W93769  33.093   9.654  11.402 -0.1145 -0.0972 -0.1531
50857W        W93770  25.520   7.769   9.598 -0.1222 -0.2809 -0.0664
50858W        W93771   5.372  30.289   3.626  0.3809  0.0971 -0.1995
50859W        W93772   5.197  26.854   6.981 -0.1818 -0.1592 -0.1908
50860W        W93773   0.395  21.686   0.069  0.0919 -0.1976 -0.1027
50861W        W93774   4.618  32.727   4.940  0.3837  0.0241 -0.1067
50862W        W93775  28.428  32.290   6.350 -0.0143  0.0015 -0.4804
50863W        W93776  31.734  12.418   6.837 -0.2772 -0.1689  0.0247
50864W        W93777   6.188  33.888  11.962  0.0466 -0.1299 -0.0086
50865W        W93778   1.526  32.642  10.881 -0.1418  0.0883 -0.0837
50866W        W93779   6.641  33.367   0.751  0.0739 -0.1435  0.0672
50867W        W93780  26.853  28.164   8.215  0.0847  0.2636 -0.2105
50868W        W93781  33.622   0.240  10.374 -0.2172  0.3055  0.1164
50869W        W93782  32.951  33.774   5.672  0.3347  0.0815  0.3482
50870W        W93783   1.739   5.011  11.809  0.0605 -0.1180  0.0795
50871W        W93784  32.156   6.511   8.238 -0.2194 -0.0182  0.1384
50872W        W93785  31.970  29.604   5.301 -0.2598 -0.1404 -0.2563
50873W        W93786  31.063   2.608   8.012 -0.1054  0.0885  0.2001
50874W        W93787  33.819   4.860   9.173  0.0588  0.0947 -0.0572
50875W        W93788  26.909   3.996   6.527  0.0505  0.0636 -0.0942
50876W        W93789   2.810   0.058   3.303  0.0666  0.2557 -0.3447
50877W        W93790   0.023   0.726   3.631 -0.0457 -0.0289 -0.2440
50878W        W93791  32.495   2.194  29.078 -0.1377 -0.1603  0.0887
50879W        W93792  31.743   9.599  28.114  0.1845  0.0947 -0.2483
50880W        W93793  32.603   1.002  10.830  0.2218 -0.1360  0.0263
50881W        W93794   1.163   1.977  11.160  0.3298  0.0534  0.1626
50882W        W93795  24.874  31.887  29.683  0.0328 -0.1009 -0.1101
50883W        W93796  33.785  30.666   9.543 -0.3036 -0.2157 -0.2036
50884W        W93797  33.196  30.903   6.208 -0.1318  0.3077 -0.2005
50885W        W93798  29.534  28.400   0.822  0.0285  0.0131 -0.3504
50886W        W93799   3.813   6.394   2.968 -0.1066  0.0427 -0.3516
50887W        W93800  33.380   9.644   3.731 -0.3404  0.4932 -0.0954
50888W        W93801   5.883  31.839   2.853  0.1044  0.0055  0.0929
50889W        W93802  32.262  27.702   9.108 -0.0688 -0.2208 -0.1764
50890W        W93803  31.708  30.251  10.318  0.1547  0.0634  0.0217
50891W        W93804  31.013  12.177   9.213 -0.0280 -0.0818 -0.0876
50892W        W93805   0.480   9.341   8.179 -0.0206 -0.0306  0.2190
50893W        W93806   2.313  24.231  21.998  0.2344 -0.0369 -0.1277
50894W        W93807   6.165  30.446   7.282 -0.1745  0.0678  0.2325
50895W        W93808  27.238   1.608   0.364  0.0729 -0.1547  0.1772
50896W        W93809  23.449   2.017   5.377  0.2283 -0.2098 -0.0090
50897W        W93810   5.061  26.075   9.343  0.0582  0.2103 -0.2606
50898W        W93811  33.195   4.682  11.113  0.1395  0.0603 -0.0970
50899W        W93812   0.660  27.098   5.244 -0.0411 -0.0632 -0.1856
50900W        W93813  22.477  26.121   0.304 -0.1702 -0.0161  0.2227
50901W        W93814  33.766   5.323   2.283  0.1060 -0.4100  0.1427
50902W        W93815  31.233  28.634   9.058 -0.0913 -0.0024 -0.2308
50903W        W93816  33.084   1.514   9.745 -0.1513 -0.1851  0.0475
50904W        W93817  32.004  32.772   0.093 -0.0678 -0.1011  0.1555
50905W        W93818  28.608   0.889   5.760  0.1980  0.0355 -0.2007
50906W        W93819   5.321   5.782  10.690 -0.2211  0.1468  0.1619
50907W        W93820   1.912   4.629  10.930 -0.0760  0.1577  0.0978
50908W        W93821   1.873   1.767  10.645 -0.0074 -0.1029 -0.0846
50909W        W93822   0.678   7.151   2.936 -0.0515 -0.0385  0.2383
50910W        W93823   2.092   0.602   6.366  0.2625  0.1984 -0.2125
50911W        W93824  28.419  29.418   5.538 -0.0683 -0.2019  0.0116
50912W        W93825  22.391  32.267   5.152 -0.0548 -0.0069 -0.1511
50913W        W93826  33.100  16.119   2.790  0.2226 -0.2914 -0.0229
50914W        W93827   9.950   0.720   4.985  0.1664 -0.2357 -0.0417
50915W        W93828  33.005  32.821  10.710  0.1841 -0.1728  0.1710
50916W        W93829   1.616  32.283   4.003 -0.0989 -0.1521  0.1471
50917W        W93830   9.258   1.921   2.174 -0.2529 -0.1394 -0.3000
50918W        W93831  22.314  25.373  28.193 -0.0926  0.0162 -0.1040
50919W        W93832  23.245   4.832   1.357 -0.2865  0.1985 -0.1031
50920W        W93833  23.150   3.748  26.691 -0.1198  0.1377  0.2278
50921W        W93834   1.999   8.029   5.590  0.3576 -0.3645  0.1391
50922W        W93835   7.383   6.901  28.421  0.0100 -0.1306 -0.2992
50923W        W93836  28.430   0.108   6.288 -0.1370  0.1854 -0.1505
50924W        W93837   3.411  28.215  26.041 -0.0201 -0.0105 -0.0985
50925W        W93838  30.549   4.970  28.064  0.1028  0.0230 -0.0822
50926W        W93839  29.196  29.554   6.179  0.1423  0.1727  0.1376
50927W        W93840   1.564  32.285  25.499 -0.1865 -0.1063  0.0195
50928W        W93841   7.505  33.440  12.366  0.0759 -0.0217 -0.0078
50929W        W93842  28.578  16.971  29.370 -0.1192 -0.2092 -0.0265
50930W        W93843  27.833  30.271   9.551 -0.0351 -0.1449  0.0084
50931W        W93844   0.777   4.818   8.432 -0.2502 -0.0244 -0.1348
50932W        W93845  28.487   8.940   8.448 -0.2299  0.0315 -0.0002
50933W        W93846   8.143   8.911   5.447  0.1193  0.0182 -0.1857
50934W        W93847   6.123   4.169  28.774 -0.1499 -0.0143  0.1429
50935W        W93848  30.434   1.218  29.182 -0.2787  0.0032 -0.0873
50936W        W93849   4.468  29.900   3.390 -0.2572  0.3943 -0.0833
50937W        W93850  27.896   9.572  26.407  0.1203  0.1266  0.0145
50938W        W93851   0.554  30.148   3.272  0.3465  0.0986 -0.0796
50939W        W93852  28.570   2.879  26.413  0.0305 -0.1406 -0.0497
50940W        W93853   6.728   1.154  28.203 -0.0973  0.4322  0.1557
50941W        W93854  28.441   8.674   2.789 -0.0924  0.3991 -0.1474
50942W        W93855   7.595  31.498  22.174 -0.1422  0.0102 -0.3499
50943W        W93856  29.965   1.431   2.702 -0.1699  0.0851  0.2725
50944W        W93857  33.697  34.252   0.521  0.3568  0.0428 -0.0061
50945W        W93858  26.562  32.774  21.818  0.1042  0.0331  0.0731
50946W        W93859  10.358   7.098  26.431  0.3618 -0.0197  0.2432
50947W        W93860  30.291  31.595   2.190  0.0129  0.1633 -0.0256
50948W        W93861   4.258   6.448   8.644 -0.0636  0.0074  0.2847
50949W        W93862  28.891   6.545   5.369 -0.0056 -0.2010 -0.0849
50950W        W93863   4.030   3.604  21.424 -0.1202 -0.0482  0.1561
50951W        W93864   1.056  32.602  26.843  0.1050 -0.2293 -0.0256
50952W        W93865  30.038  33.918   0.363 -0.1248  0.0286  0.0938
50953W        W93866   1.336  27.994   9.244  0.2289 -0.1188 -0.2374
50954W        W93867  26.456  31.597   6.670 -0.0537 -0.0561 -0.2178
50955W        W93868  29.561  27.330  28.404  0.0635 -0.0152  0.2026
50956W        W93869   3.250   8.568  27.919  0.0342 -0.2215  0.0465
50957W        W93870  33.612   5.878   5.676 -0.2050 -0.1151  0.0303
50958W        W93871   3.024   8.049   9.147 -0.1437  0.0622 -0.2377
50959W        W93872  33.087   1.050  26.105  0.0665 -0.2721  0.0349
50960W        W93873   3.846   4.734   3.058 -0.0434 -0.1793  0.1835
50961W        W93874   4.537   7.984  12.327  0.0727 -0.0681  0.1668
50962W        W93875  27.538   5.434  20.718 -0.1495 -0.0900  0.0897
50963W        W93876   2.868  16.227  29.608 -0.1234 -0.3648  0.2962
50964W        W93877  30.472   9.432   6.825 -0.0921  0.0908  0.0289
50965W        W93878   0.144  13.579   7.130  0.3914 -0.2512 -0.0601
50966W        W93879  32.348   2.485   7.361  0.1513 -0.1399  0.0166
50967W        W93880   0.818   6.243   3.569  0.0381  0.1522  0.0302
50968W        W93881   4.081  27.996  28.983  0.3060  0.0196 -0.1450
50969W        W93882   0.131  15.827  26.637  0.0311 -0.2379 -0.4171
50970W        W93883  33.846   9.278   0.575  0.0086  0.0515 -0.2083
50971W        W93884  31.503   2.874  29.526 -0.1512  0.1334  0.0534
50972W        W93885   2.853   8.610   9.289  0.0696 -0.0305 -0.1700
50973W        W93886   7.173   6.577   4.451  0.0129 -0.1658 -0.1292
50974W        W93887  33.204  31.894   0.695  0.0755 -0.0397 -0.1156
50975W        W93888   5.236   0.538  27.843  0.0205 -0.2293 -0.0846
50976W        W93889  33.824  34.155  27.503  0.1236  0.1323 -0.1117
50977W        W93890   2.248   3.197  28.870 -0.0780  0.2466 -0.1315
50978W        W93891  34.267   7.209   2.449 -0.0872  0.2921  0.1002
50979W        W93892  27.126  11.329  28.756 -0.0388  0.1720  0.1411
50980W        W93893  24.150   5.490  28.791  0.1018  0.2794 -0.0179
50981W        W93894   0.403   5.440  27.739  0.1628  0.2317  0.2020
50982W        W93895  32.025  26.010   1.993  0.1790  0.2009 -0.2825
50983W        W93896  25.656  13.926   8.484 -0.0016 -0.1286  0.3556
50984W        W93897  30.956   5.306  24.343  0.1055  0.4124 -0.0810
50985W        W93898   0.711   9.421   5.622  0.2701  0.0216 -0.1586
50986W        W93899  30.813   6.593   1.920 -0.2365 -0.1130 -0.1202
50987W        W93900  33.473   0.719  10.446  0.3909 -0.2186  0.1823
50988W        W93901   0.087   4.444   8.912 -0.2044  0.1948 -0.2459
50989W        W93902  29.143   7.420   2.697  0.2804  0.0390  0.0966
50990W        W93903  33.771   5.352  11.752  0.0857 -0.0634 -0.2890
50991W        W93904   2.874  26.991   1.994  0.0725 -0.1844 -0.0926
50992W        W93905  32.996  28.316   3.638  0.0102 -0.3114  0.0762
50993W        W93906  33.081   3.642   7.078 -0.0427 -0.0420  0.1720
50994W        W93907  28.103  24.700   4.138  0.1332  0.0563 -0.0076
50995W        W93908  34.047   3.804  17.205  0.1337  0.1078  0.0200
50996W        W93909  31.918   6.901  27.289 -0.1265 -0.2437 -0.2884
50997W        W93910  25.648  19.703  24.978 -0.0308 -0.2652 -0.1677
50998W        W93911  32.998  28.095   4.560 -0.2290  0.0945 -0.0772
50999W        W93912  29.566  34.175   3.869 -0.3407  0.4950  0.2627
51000W        W93913  27.557   4.517  25.875 -0.2423  0.2504  0.3750
51001W        W93914  27.624   4.691   2.186 -0.1046 -0.0365  0.2537
51002W        W93915  34.003   2.328   1.663  0.0441 -0.1472  0.2586
51003W        W93916  31.834   6.003   5.327 -0.0958 -0.1585 -0.0819
51004W        W93917  30.087  14.446   9.322  0.0968  0.1614  0.2656
51005W        W93918  27.290  16.394   0.316  0.0855  0.2666 -0.1791
51006W        W93919   2.316   2.817   2.675  0.1119 -0.0863 -0.1295
51007W        W93920  16.424   2.486  11.039  0.2840  0.1385 -0.1649
51008W        W93921   3.524  32.578  19.599  0.1366  0.2702  0.4137
51009W        W93922  10.012  12.665  21.054  0.1220  0.1194  0.2744
51010W        W93923  27.229  14.402   2.810 -0.1023 -0.0749  0.0083
51011W        W93924  32.117  10.105  10.745 -0.0227  0.3309  0.1253
51012W        W93925   4.379   2.261  25.354 -0.1165  0.0082 -0.2178
51013W        W93926  25.472  33.353   1.092 -0.0045  0.2520 -0.1463
51014W        W93927  27.322   1.048  22.736  0.0325  0.2348  0.1746
51015W        W93928   0.146  34.116   3.724 -0.0489 -0.3257  0.1651
51016W        W93929  31.854  34.382  25.133  0.0595  0.0988  0.0653
51017W        W93930  28.016   6.333   6.970  0.0215 -0.2690 -0.1165
51018W        W93931  28.911  33.236   0.957 -0.2616 -0.2352  0.2357
51019W        W93932  29.797  31.375   4.405 -0.2173 -0.0727 -0.2687
51020W        W93933  32.721   0.505   6.225  0.1195  0.0739  0.0928
51021W        W93934   4.638  29.109   4.049 -0.0252  0.1222 -0.4036
51022W        W93935   1.519   1.647   1.604 -0.0435 -0.2312 -0.1775
51023W        W93936   0.912  11.483   5.923 -0.2829  0.0001 -0.3541
51024W        W93937  32.793   5.388  22.426  0.0980  0.0198  0.0302
51025W        W93938   3.733   1.904   9.673 -0.0420 -0.1475 -0.3340
51026W        W93939   9.849   1.339   1.879 -0.2695 -0.1075 -0.1155
51027W        W93940  32.827  10.808  26.869 -0.0548 -0.2133 -0.0029
51028W        W93941  34.051  32.031   5.523 -0.0700 -0.0479  0.4821
51029W        W93942  32.617   0.371  23.172 -0.2157 -0.2128 -0.1077
51030W        W93943   8.692   1.568  21.503 -0.1184 -0.0133 -0.0893
51031W        W93944  27.625  31.223   9.417  0.0528 -0.1392  0.0294
51032W        W93945   0.197  15.765   5.357  0.0518  0.2048 -0.1499
51033W        W93946  11.108   0.121  25.509 -0.1012 -0.1894 -0.2730
51034W        W93947   0.213  31.267   8.923 -0.0900  0.2405 -0.2510
51035W        W93948  31.989   4.419   4.900 -0.2187 -0.0389  0.0857
51036W        W93949   0.980   3.704   0.220  0.2317 -0.1070  0.0280
51037W        W93950  26.079   5.295   0.430 -0.0984  0.4007  0.4209
51038W        W93951  30.696  25.764  16.583  0.2469 -0.2001 -0.3959
51039W        W93952   8.173  24.115  26.595 -0.3172 -0.1308 -0.1282
51040W        W93953   0.993   6.124  24.049  0.0439 -0.0210 -0.0496
51041W        W93954  11.523   2.751   9.915 -0.0495 -0.1613  0.1965
51042W        W93955  33.586  32.133   4.281 -0.0996 -0.0537  0.0422
51043W        W93956  28.639  32.217   0.290  0.2496  0.1088  0.0992
51044W        W93957  33.372  30.596   4.839 -0.2438 -0.1132  0.3111
51045W        W93958  27.904   8.701  27.917 -0.1028 -0.2152  0.1510
51046W        W93959  27.083   7.175  28.331 -0.0331 -0.0530 -0.0426
51047W        W93960  10.694  30.471   2.415  0.3829  0.2764 -0.0246
51048W        W93961   6.373  29.618  24.967 -0.1586  0.2014 -0.0255
51049W        W93962  32.217  11.805   6.160  0.0162  0.0827 -0.1380
51050W        W93963  34.165  32.842   4.968  0.2394 -0.2898 -0.5211
51051W        W93964   1.527   0.070   5.292  0.0132  0.1577 -0.0297
51052W        W93965  31.839  30.031  19.897 -0.0456 -0.2309 -0.0067
51053W        W93966   8.288   0.933   3.673  0.0200 -0.3314 -0.2821
51054W        W93967  26.042   6.874  26.295 -0.0326 -0.0170  0.2111
51055W        W93968   7.853  33.797  27.325 -0.1441  0.2654 -0.2199
51056W        W93969   4.261  33.618   6.835  0.2932 -0.3122  0.2235
51057W        W93970   7.559   4.452   6.681  0.1446  0.2173  0.0610
51058W        W93971  12.728   1.374  27.907 -0.0592 -0.0206 -0.0211
51059W        W93972  29.068   1.230   4.475  0.2853  0.2017 -0.3467
51060W        W93973  27.985   7.732  29.371  0.3163 -0.1015  0.0218
51061W        W93974  11.683   0.616   1.221 -0.0705 -0.1795  0.0055
51062W        W93975  31.620   9.847   3.554 -0.2016 -0.1356 -0.1095
51063W        W93976   4.154   2.623   9.857  0.0868  0.0917  0.1238
51064W        W93977   7.802  12.953   6.996  0.2119 -0.2789  0.0564
51065W        W93978  32.925  29.638   5.684  0.0461  0.0122 -0.1519
51066W        W93979   8.460  11.800   6.287 -0.1232  0.2498 -0.0788
51067W        W93980   6.695   3.575  10.976  0.0858 -0.2724 -0.3188
51068W        W93981  32.792   6.507  10.500 -0.3491 -0.2365 -0.5196
51069W        W93982  29.876  14.047  27.829 -0.1670  0.3040  0.1035
51070W        W93983  32.249   3.788   2.695  0.2406 -0.1177  0.2679
51071W        W93984  32.751   6.861   1.172 -0.1871  0.1587 -0.2792
51072W        W93985  21.389  13.444  22.744 -0.2860  0.0982 -0.1800
51073W        W93986   1.599   1.160   5.997 -0.0115 -0.2039 -0.1478
51074W        W93987  27.939  31.558   8.911 -0.0743  0.0904 -0.0364
51075W        W93988  24.115   4.884   5.820  0.2780  0.1272 -0.3035
51076W        W93989   6.342  32.447  28.833 -0.0845  0.0952 -0.0748
51077W        W93990   6.476  32.430   2.096  0.1492 -0.2020  0.2730
51078W        W93991   7.922   6.983   5.002 -0.2436  0.0957  0.0997
51079W        W93992  31.391  11.582  26.320  0.1035 -0.0811 -0.0017
51080W        W93993  16.571   3.741   2.259 -0.5141 -0.1229  0.0764
51081W        W93994   2.957   5.651   9.592  0.1053  0.1128 -0.0948
51082W        W93995   7.596   4.367   6.207 -0.0154 -0.4276  0.0364
51083W        W93996  29.063  10.851   5.803  0.0398  0.0304  0.0602
51084W        W93997  33.473  11.076  27.230 -0.1398 -0.1094  0.2836
51085W        W93998   5.264   1.830   6.422  0.0348 -0.1474 -0.1388
51086W        W93999  32.137  34.338   5.818 -0.0957  0.0412  0.1356
51087W        W94000  30.534  22.527   6.458  0.0490  0.3179  0.0299
51088W        W94001  30.692   0.998   3.833  0.0627 -0.2445  0.1609
51089W        W94002   0.813   1.876   1.567 -0.2652 -0.1336  0.0739
51090W        W94003  22.635  31.933  25.510 -0.3394  0.3654 -0.0379
51091W        W94004  34.142  14.964  27.460  0.1927  0.0408  0.2614
51092W        W94005   2.312  31.842   2.854 -0.0872  0.1663 -0.0887
51093W        W94006  33.012   0.092  29.521  0.0058 -0.1003  0.2311
51094W        W94007  32.712   7.631   0.733 -0.1642 -0.0422  0.1486
51095W        W94008  28.672   2.771  10.746  0.3987  0.0244  0.0236
51096W        W94009   1.754   1.200  17.068  0.2008  0.0759 -0.0137
51097W        W94010   6.550   3.996   6.568 -0.2178  0.2208  0.3735
51098W        W94011  29.707   4.954  20.876  0.0032  0.1453 -0.0143
51099W        W94012   5.643   7.509  24.452  0.3195 -0.0415  0.1440
51100W        W94013   3.570   8.118  11.820 -0.0608  0.0699 -0.0619
51101W        W94014  28.386   3.389   0.457  0.1798 -0.1568 -0.1306
51102W        W94015  18.292   0.570  22.684 -0.0980 -0.1629 -0.2913
51103W        W94016  31.135  29.166  28.509 -0.0066 -0.1526  0.2309
51104W        W94017   1.571   5.612  29.350 -0.0564  0.2811  0.0165
51105W        W94018  19.405   7.104   0.952 -0.1884  0.0523  0.0172
51106W        W94019   5.587   3.051  21.058 -0.1134  0.0905  0.2232
51107W        W94020   2.221   0.731  29.013 -0.2186  0.3164  0.0165
51108W        W94021   0.002   6.166  10.891  0.1992 -0.2463 -0.1302
51109W        W94022   7.179   7.332   7.321 -0.1769  0.1758  0.2116
51110W        W94023  23.032   9.428   0.295 -0.0200 -0.1186 -0.2708
51111W        W94024   1.175  27.987  27.871 -0.0872  0.1420 -0.1994
51112W        W94025  28.516  34.433   8.577 -0.0375  0.1025 -0.2782
51113W        W94026   2.995   4.975  26.455  0.0107  0.1579  0.1193
51114W        W94027  34.148   0.296   8.945 -0.1144  0.1213 -0.2148
51115W        W94028   9.286   0.882   6.143 -0.1040 -0.2561 -0.1589
51116W        W94029   4.881  24.230   6.196  0.3810  0.1353 -0.3806
51117W        W94030  31.392  32.969  26.863  0.1497 -0.1562 -0.1838
51118W        W94031  25.283   8.892  17.856  0.1727 -0.0950  0.0749
51119W        W94032  25.146   1.248   5.420 -0.0809 -0.0662  0.0362
51120W        W94033  31.736  25.423   4.258  0.0569 -0.1339  0.1999
51121W        W94034  28.292   2.250   9.512 -0.0409 -0.0527  0.0236
51122W        W94035  29.617  10.836   1.965  0.0739  0.1557 -0.1171
51123W        W94036  30.780  32.529   8.312  0.0397  0.0294  0.3430
51124W        W94037   4.450   4.258   9.393  0.1888 -0.0152 -0.1418
51125W        W94038   4.770   5.351  20.156  0.0767  0.2886 -0.1918
51126W        W94039   1.548   7.015   5.130  0.4244 -0.1484 -0.0548
51127W        W94040  31.918   3.947  25.261  0.1667 -0.0605 -0.1054
51128W        W94041  31.032  11.191   1.256  0.0058 -0.3058  0.0192
51129W        W94042   1.638  26.958   1.745  0.0670 -0.1747 -0.3184
51130W        W94043   3.124  13.632  25.825 -0.2910 -0.4283 -0.0662
51131W        W94044   4.831  28.788   2.112 -0.0551 -0.0975 -0.1063
51132W        W94045  18.096  32.519  26.337  0.0972 -0.2000 -0.1264
51133W        W94046  31.225  32.860  25.922 -0.2049  0.0784 -0.1306
51134W        W94047  12.343  29.939  24.800  0.0458 -0.0162  0.0017
51135W        W94048   7.129  33.338   9.043  0.0633 -0.0562 -0.0823
51136W        W94049   5.709   3.625   3.175 -0.0114  0.0057 -0.1406
51137W        W94050   0.780   0.612  24.736 -0.2910 -0.0033  0.2041
51138W        W94051   7.649  28.273   5.637 -0.4105  0.2992 -0.3909
51139W        W94052  20.786   4.588   0.605  0.0293 -0.1821  0.1516
51140W        W94053   2.770   9.181   1.402  0.3447 -0.2047 -0.1438
51141W        W94054   8.225  19.610  19.385 -0.3741 -0.0006 -0.1466
51142W        W94055   5.330   3.499   5.491  0.0712 -0.4036 -0.0081
51143W        W94056   6.011  20.453   8.575 -0.2236  0.0669  0.2075
51144W        W94057   1.300   0.530  11.160  0.0070 -0.2100  0.2216
51145W        W94058  30.745   1.374   3.406 -0.3029 -0.1702  0.3312
51146W        W94059   0.811  32.909  10.012 -0.1085 -0.0232 -0.2333
51147W        W94060   4.732   0.336   6.974  0.0166  0.0909 -0.2652
51148W        W94061  31.217  13.705   0.484 -0.0104  0.0675  0.1150
51149W        W94062  28.113   1.400   0.654 -0.0334  0.2949  0.0253
51150W        W94063  34.410   3.116  12.196 -0.1970  0.1379 -0.1444
51151W        W94064   2.927   5.610   5.111  0.0280  0.0108 -0.1464
51152W        W94065  26.634   9.013   8.818 -0.0466 -0.2040 -0.2102
51153W        W94066  31.496   6.856   6.007  0.2261  0.3240  0.1414
51154W        W94067  25.268   9.739  24.493 -0.1024  0.0781 -0.4114
51155W        W94068   8.163   6.917  10.892  0.1905 -0.3150 -0.1243
51156W        W94069   2.470   5.362  21.768 -0.0575  0.0481 -0.1325
51157W        W94070  30.107   0.523   8.443  0.3868 -0.0757  0.0217
51158W        W94071  30.294  29.816   2.326 -0.0569 -0.0960  0.1370
51159W        W94072  24.470   8.385  25.891  0.1899  0.1595 -0.2417
51160W        W94073   5.312   1.611   7.643 -0.0703  0.2008  0.0795
51161W        W94074  34.285  29.802   0.603 -0.1469  0.0541 -0.1588
51162W        W94075   9.441   8.920  28.097 -0.2411 -0.4297 -0.0236
51163W        W94076   6.756   5.078  11.479  0.0475  0.4742 -0.0809
51164W        W94077  21.948  19.455  27.060 -0.1649 -0.1747 -0.0236
51165W        W94078   3.251   2.107   6.231 -0.0940 -0.2337  0.1815
51166W        W94079   0.890  32.776   1.743 -0.2664 -0.0466  0.1038
51167W        W94080  31.057   5.017   8.941 -0.1453  0.1867 -0.1334
51168W        W94081  28.974   6.427   2.327 -0.0146 -0.2262  0.3029
51169W        W94082  32.873   2.788   6.979 -0.2904  0.3823 -0.0086
51170W        W94083  32.208  19.209   5.823 -0.0269 -0.2109 -0.0251
51171W        W94084   0.500  12.693  25.673  0.2132 -0.0064 -0.1102
51172W        W94085   1.773  33.059  10.786  0.1730  0.2017  0.0158
51173W        W94086  29.101   1.766  23.747  0.0965 -0.1142 -0.0136
51174W        W94087   9.235  32.196   3.220 -0.0252 -0.1686 -0.3317
51175W        W94088  31.767   5.355   6.079 -0.3157 -0.0523  0.0415
51176W        W94089   6.214   2.495   7.689  0.0636  0.1970 -0.1579
51177W        W94090  32.532  32.853  10.610 -0.2771  0.0197 -0.0298
51178W        W94091  26.571   6.984   8.875 -0.1420 -0.0974  0.1210
51179W        W94092  28.683   3.448  29.471 -0.3166  0.1585  0.2942
51180W        W94093  14.582  31.231   1.253  0.0093 -0.1781 -0.1013
51181W        W94094  31.029   4.694  29.737  0.1006  0.0519  0.1183
51182W        W94095  11.109  15.671   7.514  0.3155  0.1640 -0.0701
51183W        W94096  30.628  25.746  24.834  0.0066 -0.2826 -0.2790
51184W        W94097  32.164   1.496  10.370  0.0387  0.2589 -0.0577
51185W        W94098  31.969   7.013   8.925 -0.0201 -0.2504  0.1701
51186W        W94099  34.356  11.593  22.930  0.0391  0.1162 -0.1136
51187W        W94100  33.407  10.069   6.934 -0.0232  0.3037  0.0147
51188W        W94101   1.552   6.807   2.009 -0.1288 -0.2114  0.0673
51189W        W94102  30.864   5.919   0.617  0.2520  0.1052 -0.2231
51190W        W94103   8.890   4.243  12.841 -0.0255  0.1022 -0.0984
51191W        W94104  30.879   8.920   0.072  0.3856  0.0251  0.0897
51192W        W94105  10.410   4.834  10.315  0.1464  0.0381  0.1155
51193W        W94106   5.055   1.342   4.812  0.0820 -0.0152 -0.0011
51194W        W94107   2.893  27.446   3.793  0.3685 -0.3765  0.0691
51195W        W94108  26.622  27.714   8.137 -0.0583  0.3346 -0.1811
51196W        W94109   9.415   7.773   7.572  0.3183  0.1258  0.0517
51197W        W94110  19.335  31.133   6.820 -0.0977 -0.0372 -0.1687
51198W        W94111   0.755  28.680   4.450 -0.0319  0.0126 -0.4260
51199W        W94112  30.716   2.698  10.315 -0.2088 -0.0748  0.2220
51200W        W94113  32.919   9.925   5.454 -0.3176  0.1220 -0.0891
51201W        W94114  33.401   7.862   3.325 -0.2599 -0.3521 -0.0727
51202W        W94115   9.471  14.773  24.635 -0.2026 -0.1381  0.0170
51203W        W94116  33.020   6.452   7.929  0.0855  0.3278 -0.2462
51204W        W94117  31.904   9.399   5.507  0.1388 -0.2207 -0.0413
51205W        W94118   2.290   4.422  10.595  0.1726  0.0097 -0.0927
51206W        W94119  32.845   3.956   3.035 -0.0344 -0.0300  0.0043
51207W        W94120  34.183  11.686   7.971 -0.4904 -0.1681 -0.3442
51208W        W94121   2.893  10.130   9.200 -0.0854 -0.0155  0.1152
51209W        W94122  25.591   8.746   9.566  0.2094 -0.0333 -0.4478
51210W        W94123  29.772   4.420   8.441 -0.0808 -0.1730  0.0925
51211W        W94124  30.450  16.482   7.624 -0.0993 -0.1754  0.0309
51212W        W94125  25.515  12.695  29.340  0.0908 -0.0586  0.0469
51213W        W94126   4.288   4.943   3.097  0.1348 -0.0507 -0.1022
51214W        W94127  31.130  15.219   4.265  0.1841  0.1103 -0.0154
51215W        W94128   1.180   4.130   1.308  0.2829  0.2790  0.1472
51216W        W94129  33.316  34.335   3.637  0.3356  0.0011 -0.3482
51217W        W94130  33.634  33.920  10.482 -0.0437 -0.2911  0.0277
51218W        W94131  12.162  10.178   6.032 -0.0737 -0.0972 -0.0636
51219W        W94132   7.858   3.135   7.700 -0.3492  0.2377  0.1205
51220W        W94133   8.911   4.787   4.982  0.2168  0.2143  0.2232
51221W        W94134  31.692   0.972   6.764 -0.1631 -0.0565 -0.0596
51222W        W94135  21.304  32.607   6.599  0.0194 -0.0944  0.2158
51223W        W94136   4.172   2.971   5.028 -0.1954 -0.2684  0.2162
51224W        W94137   3.467   6.173   0.970  0.0607  0.0950 -0.1403
51225W        W94138   6.234  10.109  29.617  0.2099  0.0908  0.1037
51226W        W94139  20.558  10.448   0.204  0.3630  0.0916 -0.0726
51227W        W94140   8.073   1.826  12.709  0.0098  0.2377  0.1464
51228W        W94141   0.088   5.324   8.011  0.1371 -0.1252  0.2676
51229W        W94142   2.093   8.241   9.053 -0.1009  0.4909  0.3013
51230W        W94143   1.063   8.525   9.796  0.2804  0.2780  0.0963
51231W        W94144  22.085   4.620   7.241  0.0330 -0.1684  0.0943
51232W        W94145   7.268  27.400   7.637  0.1019  0.0750  0.2074
51233W        W94146  31.888   6.763  16.185  0.1347 -0.2623 -0.0286
51234W        W94147  26.070  28.353   8.667  0.3845 -0.1783 -0.0223
51235W        W94148  32.250   2.546  10.785  0.0342 -0.3918 -0.0264
51236W        W94149   6.265   6.073   9.759  0.0622  0.3347 -0.0060
51237W        W94150  30.521  30.223   8.659 -0.0353  0.0090  0.0152
51238W        W94151  32.436   6.132  22.201  0.3865  0.0590 -0.0573
51239W        W94152  31.654   1.877   6.994 -0.0478 -0.0819 -0.2044
51240W        W94153  33.280   5.915  28.449 -0.3188 -0.0989 -0.0687
51241W        W94154  24.503   1.801   9.637 -0.2754 -0.3144 -0.1577
51242W        W94155  31.454  32.791   4.689  0.1956 -0.0650  0.1906
51243W        W94156   5.701  31.590   9.209 -0.0357 -0.0848 -0.1225
51244W        W94157  32.519   9.254   9.813  0.1890  0.5027 -0.0266
51245W        W94158  34.388   6.482   5.210  0.3563 -0.2310 -0.0230
51246W        W94159   2.078  30.131   2.121 -0.1330  0.2120  0.1608
51247W        W94160  32.786  13.730  28.559 -0.0972  0.3617  0.3962
51248W        W94161   6.707  29.928   2.913  0.0168  0.0254  0.4228
51249W        W94162  28.449   9.100   8.005 -0.2237  0.1225 -0.0705
51250W        W94163  23.505   6.958  10.298  0.1211  0.3011 -0.1093
51251W        W94164  34.022   4.899   5.016 -0.1161 -0.0789  0.1009
51252W        W94165  32.739   4.415   9.398 -0.1691 -0.1654 -0.1714
51253W        W94166  31.172   6.476   5.838  0.0135 -0.3341 -0.0066
51254W        W94167   3.911   5.513  12.406 -0.1596 -0.2674  0.0354
51255W        W94168   6.781   0.820  12.685  0.1288  0.1674  0.0853
51256W        W94169  23.278  26.624   1.387 -0.0085 -0.0936 -0.0543
51257W        W94170  32.443   7.756   2.851  0.0586  0.4396 -0.0727
51258W        W94171   7.376  34.288   6.169  0.0840 -0.0913 -0.1610
51259W        W94172  28.810  34.483   2.819  0.0895  0.1763 -0.0903
51260W        W94173  13.914   2.308   6.651 -0.1629 -0.0792 -0.0387
51261W        W94174  31.962  11.581  27.176 -0.1439  0.0610  0.0138
51262W        W94175   6.330   0.249  26.816 -0.2080  0.0706 -0.0916
51263W        W94176   8.457  31.929  10.824 -0.0683  0.0767 -0.1214
51264W        W94177  31.645   3.055  10.747 -0.2941  0.2268  0.0780
51265W        W94178   4.689  10.333  10.725 -0.0336  0.0053 -0.2409
51266W        W94179  32.291  34.208   4.079 -0.0254  0.0001  0.1631
51267W        W94180  21.720   3.837   9.794 -0.2342 -0.3018  0.1010
51268W        W94181  21.538  24.963   3.038  0.1844  0.0540  0.6045
51269W        W94182   2.995   0.068   6.355  0.2084 -0.1418 -0.0157
51270W        W94183   4.529   3.057  25.551  0.1188 -0.1694 -0.0722
51271W        W94184  31.463   0.782  10.377  0.0494  0.0044  0.0824
51272W        W94185  32.759   4.721   7.467 -0.0484 -0.0655 -0.2118
51273W        W94186  33.821   5.734   8.937 -0.0972 -0.2264  0.0977
51274W        W94187  27.757  30.736  29.380  0.3236  0.0190 -0.1447
51275W        W94188  25.686   6.976   1.089 -0.1238 -0.1980 -0.1683
51276W        W94189   1.248   4.204  29.077 -0.1163  0.0402 -0.0445
51277W        W94190  19.344  34.196  23.786  0.1785 -0.3054 -0.0526
51278W        W94191   3.722  10.903   3.469  0.1578  0.3444  0.0964
51279W        W94192  31.507   1.171  23.037 -0.4023  0.2474 -0.2015
51280W        W94193   5.960   7.153   3.913  0.0409  0.1711  0.2748
51281W        W94194  34.347   3.230   8.170  0.2569  0.0496 -0.3657
51282W        W94195  22.694  29.746   0.561  0.2090 -0.0634 -0.0281
51283W        W94196   0.122  27.369   8.226  0.2394 -0.2678  0.0183
51284W        W94197   0.804  33.927   9.788  0.1141 -0.3067  0.2496
51285W        W94198  22.463  16.329  28.673  0.1561 -0.1398  0.2491
51286W        W94199  24.894   1.245  25.087  0.2452  0.0902  0.1727
51287W        W94200  33.709  12.592  25.444  0.0189  0.2732  0.0894
51288W        W94201  33.646   1.782  10.464  0.2122 -0.2048 -0.1737
51289W        W94202  27.668  13.336   7.618 -0.0682  0.1107  0.1534
51290W        W94203  32.260  10.647  25.180 -0.1110 -0.3073 -0.0208
51291W        W94204   8.627  33.784   4.504 -0.0460  0.1557 -0.2720
51292W        W94205   3.660   9.019  11.859  0.2517  0.0061  0.3380
51293W        W94206  29.532   8.010   2.893 -0.4699 -0.4296  0.0502
51294W        W94207  33.824  10.303   1.008  0.2055 -0.3594 -0.0050
51295W        W94208  10.939   9.823   5.292  0.1600 -0.1355 -0.1042
51296W        W94209  31.251  32.345   5.392 -0.0350  0.1491  0.0906
51297W        W94210  33.817   9.963  29.563  0.2211  0.0842  0.0547
51298W        W94211   3.192  31.647   7.653 -0.0427  0.0893 -0.0586
51299W        W94212  12.666  15.238   7.638  0.4314 -0.1954  0.1135
51300W        W94213  34.401  12.470  27.562  0.0095 -0.3373  0.1406
51301W        W94214  34.183   0.899  10.154  0.2751  0.0793  0.1246
51302W        W94215  29.141   2.806   4.902  0.2457  0.0805 -0.2515
51303W        W94216  32.584  34.115   5.886  0.0355  0.3124  0.0268
51304W        W94217  29.015  29.530   2.395  0.5483  0.0099  0.1693
51305W        W94218  27.833   2.607  26.826  0.0759  0.0392 -0.1647
51306W        W94219   0.226   4.695  10.439  0.0114 -0.1118  0.1449
51307W        W94220  32.304   2.628  15.976  0.1472 -0.1093 -0.1973
51308W        W94221   5.801  31.464   3.349 -0.0687  0.0501 -0.3765
51309W        W94222   3.017   7.862   3.161 -0.4796  0.1720 -0.1936
51310W        W94223   3.353   3.733  12.101  0.0012 -0.1973  0.1744
51311W        W94224  30.812   3.948  10.133  0.1562 -0.0660  0.2037
51312W        W94225   2.373   0.070  21.184 -0.0292  0.0155  0.2477
51313W        W94226   9.514   3.695   9.800  0.1446  0.1019 -0.0245
51314W        W94227   7.652   4.676   3.113  0.1461  0.0623 -0.1157
51315W        W94228   4.914   5.596  13.344 -0.0516  0.0879  0.1039
51316W        W94229   4.956   3.677   1.797  0.0975  0.0021  0.1460
51317W        W94230  29.259   4.016   6.586  0.0351 -0.1240  0.0099
51318W        W94231   0.092   1.767   4.420 -0.0322  0.0216 -0.0619
51319W        W94232  31.973   3.538   8.252 -0.1549  0.0518 -0.1528
51320W        W94233  32.927   1.241   7.041 -0.1570 -0.0039 -0.0784
51321W        W94234   4.331   4.830  28.105 -0.1193 -0.1488 -0.3609
51322W        W94235   0.540   0.691   8.752 -0.0687  0.1817 -0.1511
51323W        W94236   5.420  26.666  27.120 -0.1093 -0.3520  0.1865
51324W        W94237   9.301  22.407  28.718  0.3547  0.0425 -0.1725
51325W        W94238  23.003   8.228   3.377 -0.1464  0.0200 -0.0900
51326W        W94239   4.144   7.024  24.963  0.0192  0.2159  0.0479
51327W        W94240  28.345  33.711   4.349  0.3011 -0.0120  0.3195
51328W        W94241  30.143   9.461   3.381  0.1679 -0.0950  0.0009
51329W        W94242  32.857   6.860   7.013  0.4085 -0.1299 -0.1861
51330W        W94243   2.424   2.617  29.472  0.2762  0.0657 -0.0206
51331W        W94244  31.089   4.809  27.232 -0.3185  0.0340 -0.2654
51332W        W94245  28.732  26.699   7.351  0.1026  0.1075 -0.1600
51333W        W94246   4.366  31.413  23.816 -0.1016  0.3338  0.3475
51334W        W94247   0.120  34.110   1.824  0.1533 -0.0688 -0.5343
51335W        W94248  31.432  27.306  26.774  0.0106  0.0583 -0.1026
51336W        W94249  29.047   5.938   5.290 -0.0223  0.0180  0.1070
51337W        W94250   1.239   7.066   5.587  0.0002 -0.1586 -0.0811
51338W        W94251  14.893  28.926  25.365  0.0013  0.2425  0.0960
51339W        W94252  34.042  10.386   7.633  0.0126  0.0380 -0.2562
51340W        W94253  30.736   2.000   6.578  0.0276 -0.1505 -0.0121
51341W        W94254   2.194   6.559   5.378 -0.2847  0.5075 -0.2268
51342W        W94255   4.415  32.752   8.748 -0.2295  0.2891 -0.0191
51343W        W94256   0.446   6.887   1.997 -0.3015 -0.1485 -0.3410
51344W        W94257  28.333  13.088   2.419  0.4492 -0.2174 -0.1423
51345W        W94258   0.505   4.570  27.650  0.0268 -0.1848 -0.1720
51346W        W94259   5.202  31.331   7.849 -0.2061  0.0709  0.3748
51347W        W94260   1.355  10.061  24.125 -0.1517  0.1123  0.1505
51348W        W94261  34.190   4.331   3.159 -0.1607 -0.0239 -0.0643
51349W        W94262   6.743  33.767   4.466 -0.2193 -0.0449 -0.2432
51350W        W94263   5.528   6.086   7.900  0.1750 -0.2371  0.3142
51351W        W94264   6.222  34.276  10.341  0.0281  0.1013 -0.2003
51352W        W94265  34.347   9.522  25.291  0.3196  0.1532 -0.1242
51353W        W94266  26.250  29.957   6.402  0.2773  0.0259 -0.0243
51354W        W94267  24.051  11.954  29.411  0.0142 -0.0200 -0.0089
51355W        W94268  28.582   2.469   9.185 -0.0507 -0.0432  0.1706
51356W        W94269   5.408  10.028   7.086  0.1981 -0.3309  0.0235
51357W        W94270   0.404   2.991   8.190 -0.2443  0.1895 -0.1537
51358W        W94271   4.470   1.539  12.929  0.0272 -0.0368  0.0065
51359W        W94272  30.695   4.738   3.251 -0.2071 -0.0947  0.4770
51360W        W94273   4.791  11.184   5.394 -0.0585 -0.0047 -0.1228
51361W        W94274  23.907   9.681  27.280 -0.1479  0.2393 -0.0845
51362W        W94275   1.039   1.686   0.376 -0.1312  0.2587  0.0863
51363W        W94276  25.490  30.919   4.081  0.4496  0.0580  0.0031
51364W        W94277  23.364   8.743   7.107 -0.1672 -0.1647 -0.3491
51365W        W94278   8.025   2.022  10.939 -0.0344  0.0577  0.0607
51366W        W94279  18.587   1.372  10.134 -0.1206 -0.0875  0.0246
51367W        W94280  32.784  34.400   6.697  0.1574  0.0968  0.2380
51368W        W94281   2.398  30.839  27.481  0.2432  0.0829  0.2272
51369W        W94282  11.445   3.156  12.134  0.0476  0.0223 -0.7162
51370W        W94283   6.193   2.752   4.751 -0.1413  0.1806  0.3535
51371W        W94284  33.256  11.735   4.817 -0.5448 -0.0624 -0.0873
51372W        W94285   5.228   9.981   8.503 -0.1489  0.3611  0.0575
51373W        W94286   1.283   7.018  12.821 -0.0370  0.2350 -0.2035
51374W        W94287   1.045   0.668  10.407 -0.3787  0.0640  0.1606
51375W        W94288   5.818   1.475  26.695  0.1483  0.2591 -0.1601
51376W        W94289   6.006  32.011   4.663  0.0298  0.0129  0.2376
51377W        W94290  31.195   6.717   1.609 -0.3443  0.0388 -0.1961
51378W        W94291  28.666   7.079   4.046  0.0832 -0.1659 -0.1708
51379W        W94292   3.862   3.224   2.975 -0.0030 -0.0722 -0.0189
51380W        W94293  25.859   4.857   1.163  0.0433  0.3791 -0.1043
51381W        W94294   0.521   9.979   0.511  0.1071 -0.0563  0.0198
51382W        W94295  10.857   7.943  11.149 -0.0424  0.0846 -0.0710
51383W        W94296   2.549  21.397   6.827 -0.4253 -0.1551 -0.0313
51384W        W94297  31.611  11.885   4.900 -0.0799  0.0650  0.0233
51385W        W94298  31.549  11.646   2.512  0.0566 -0.1374 -0.0097
51386W        W94299  10.498  18.253  28.406 -0.1275  0.0615 -0.1053
51387W        W94300  31.524   6.057  27.870  0.1141 -0.2095 -0.0501
51388W        W94301   3.736  29.802   5.507 -0.1738 -0.2023 -0.0726
51389W        W94302   1.416  14.897   4.813 -0.0588 -0.1171 -0.3068
51390W        W94303   0.916   6.164   6.945  0.0861 -0.3165 -0.0749
51391W        W94304   2.964   3.897  11.113 -0.2789  0.2268  0.0418
51392W        W94305  23.505   3.143   8.626  0.3103  0.5492  0.1205
51393W        W94306   0.087   6.463   6.398  0.1516  0.0206 -0.0118
51394W        W94307   5.711   7.946   8.540 -0.0992  0.3285  0.3110
51395W        W94308  34.156   9.056  25.712 -0.1088 -0.3597 -0.0376
51396W        W94309  32.014   7.182   9.497 -0.0036 -0.0984  0.4011
51397W        W94310  32.898   2.203   9.558  0.1295 -0.1417  0.1665
51398W        W94311  30.760  31.806   5.210  0.1623  0.1655 -0.2755
51399W        W94312  32.024  12.641  10.013 -0.1650 -0.2648  0.3097
51400W        W94313  34.434  14.102   9.943  0.2579  0.1103 -0.0381
51401W        W94314   2.244   0.077   8.032 -0.4778  0.1127  0.2121
51402W        W94315  30.073   3.065   8.118  0.1817 -0.3048  0.3131
51403W        W94316  31.829  28.984   6.939 -0.0845 -0.1345  0.1892
51404W        W94317  28.163   6.250   0.906  0.3938 -0.0275  0.2126
51405W        W94318  29.816  32.295   8.297 -0.2485  0.1341  0.1563
51406W        W94319  26.794   6.521   2.794 -0.0259  0.0141 -0.1952
51407W        W94320   4.458  15.492   2.812 -0.2291  0.3873  0.0653
51408W        W94321   7.552   6.561   9.824 -0.1476  0.1427  0.0536
51409W        W94322   3.498  10.976  10.252  0.1570  0.1376  0.2877
51410W        W94323  27.273   2.585   4.339  0.1267 -0.2078 -0.0062
51411W        W94324   5.398  29.433  28.877 -0.0033 -0.1638  0.0319
51412W        W94325  10.505  32.814   5.847  0.2364 -0.2886  0.0432
51413W        W94326  13.163   7.351   0.081 -0.0387  0.0952 -0.1453
51414W        W94327  23.854   7.234   8.899 -0.0593 -0.0011 -0.0332
51415W        W94328   7.519   6.438   6.838 -0.3775  0.2608  0.3734
51416W        W94329   7.026   8.541  11.644  0.0124 -0.3305  0.1720
51417W        W94330  10.084   2.430  26.373  0.0605  0.0098 -0.0330
51418W        W94331   9.736  25.900   3.852  0.0501  0.0820 -0.4066
51419W        W94332   0.352   6.000   3.605  0.0840 -0.2320 -0.2750
51420W        W94333  32.518  32.923   3.534  0.0099 -0.2827 -0.0705
51421W        W94334   4.430  32.776   9.283 -0.0704  0.1020 -0.1675
51422W        W94335   0.953  12.394  27.878 -0.0470  0.1038  0.1240
51423W        W94336  31.318  34.172   3.942  0.0497 -0.0838  0.0783
51424W        W94337   6.218  34.179  23.326 -0.1395 -0.2365  0.0492
51425W        W94338   2.987   8.274  10.201 -0.0596 -0.0726  0.1009
51426W        W94339  23.127  12.898  29.387 -0.2150  0.0495 -0.0689
51427W        W94340  10.216  14.495   6.738  0.1854 -0.0023 -0.1787
51428W        W94341  30.615   9.283   6.225 -0.1934  0.0124  0.0712
51429W        W94342   7.634   3.425   3.723  0.1209 -0.3006 -0.1314
51430W        W94343   6.491   8.744   6.910  0.2219 -0.1073 -0.0568
51431W        W94344   3.395  33.684   7.272  0.2228  0.1688 -0.2434
51432W        W94345   0.676  33.743   6.193  0.1035  0.2784  0.8322
51433W        W94346   9.514   1.807   9.925 -0.1045  0.2630 -0.0245
51434W        W94347   0.704   0.303  10.027 -0.0600  0.1949 -0.4609
51435W        W94348  27.189   8.906   8.197 -0.2900  0.5024  0.1524
51436W        W94349  25.930  12.915  29.197  0.0515 -0.0444  0.0836
51437W        W94350  26.771  34.155   6.813  0.2892 -0.1153 -0.0689
51438W        W94351  30.814  14.490   5.286 -0.0388 -0.0795  0.1097
51439W        W94352  28.461  29.918   1.185 -0.2961 -0.1850 -0.0070
51440W        W94353   1.938  11.872   9.304  0.1125 -0.2238 -0.1275
51441W        W94354   0.101   2.723  11.551 -0.1781 -0.3341 -0.0337
51442W        W94355  23.279  32.390   5.900  0.0663  0.1192  0.0976
51443W        W94356   3.109   2.257  10.619  0.0039 -0.1634 -0.0180
51444W        W94357  22.710  33.707   8.216 -0.0116  0.0140 -0.1099
51445W        W94358   4.016   9.773   2.218 -0.2318 -0.0755 -0.1461
51446W        W94359  32.130  31.430   7.931 -0.1611 -0.1419  0.0892
51447W        W94360  32.356   4.421   7.387  0.0376 -0.1589 -0.0536
51448W        W94361  31.714   1.702  12.028  0.1971  0.1299 -0.1074
51449W        W94362  31.773   3.816   8.618 -0.0473 -0.2417 -0.0830
51450W        W94363   6.824  31.295   8.072  0.0417  0.3852  0.2486
51451W        W94364   6.521   4.358   7.059  0.0241  0.0503 -0.1140
51452W        W94365  22.524   6.275  26.563  0.2359  0.1296 -0.0634
51453W        W94366   0.842   7.612   9.398 -0.1000  0.0258  0.3157
51454W        W94367  34.006   1.935   8.652 -0.0151  0.0947 -0.1611
51455W        W94368  19.367  23.628   5.964  0.0537  0.0109 -0.1983
51456W        W94369  32.767   2.572   2.211 -0.2645 -0.1940  0.0736
51457W        W94370   5.522   9.152   7.300  0.0812  0.0589  0.1365
51458W        W94371  29.292  31.760  10.409 -0.0591 -0.3805  0.2589
51459W        W94372   7.379  30.983   4.318 -0.0660 -0.1580 -0.2294
51460W        W94373  10.018   6.764  10.869  0.0300 -0.1606  0.2493
51461W        W94374   1.851   4.800   8.746  0.1157  0.2148  0.4006
51462W        W94375   2.126  33.977   9.674 -0.0407 -0.0995  0.0186
51463W        W94376   9.468  24.642   5.606 -0.0695 -0.0087  0.2646
51464W        W94377   0.635   7.935   6.230  0.0141 -0.0618  0.0491
51465W        W94378   1.063  10.829   5.323 -0.4400 -0.0387  0.0142
51466W        W94379  26.171  18.490   2.145  0.1138  0.0129 -0.0551
51467W        W94380   2.391   8.497   7.682  0.1984  0.0778  0.1607
51468W        W94381  29.385   5.842   8.166  0.2703 -0.1293 -0.4565
51469W        W94382   6.967   0.999   8.024 -0.1033  0.0187  0.2061
51470W        W94383  33.212   7.124   8.941  0.0009  0.0312  0.1586
51471W        W94384  18.898  27.046   4.901  0.3346  0.1998  0.1340
51472W        W94385   3.960   5.421   3.999 -0.0295 -0.1234  0.0636
51473W        W94386   0.034   7.285  11.646 -0.0629  0.2082  0.1115
51474W        W94387  30.805   2.395   3.276  0.1659  0.1607  0.2798
51475W        W94388  15.798  34.237  10.559  0.1745  0.1585 -0.1889
51476W        W94389   1.323   4.491  25.065 -0.1212  0.0055  0.2652
51477W        W94390  30.362  10.695   8.631 -0.0931 -0.0808  0.0343
51478W        W94391  32.938   8.486   4.538  0.4451 -0.3383 -0.3272
51479W        W94392  12.037   7.214  11.134 -0.2509 -0.5961 -0.1388
51480W        W94393  34.030  10.420   5.778  0.2260 -0.0790 -0.1614
51481W        W94394  31.853  32.960   5.359  0.1198  0.1678  0.1080
51482W        W94395   2.643   0.593   5.078 -0.0003 -0.0742 -0.0354
51483W        W94396  33.805   1.581  11.365 -0.1449  0.3312 -0.0578
51484W        W94397  12.226   6.331   6.625  0.0102  0.2559  0.1118
51485W        W94398   0.952   4.707   7.975 -0.1543 -0.2047 -0.0526
51486W        W94399   3.965   3.015  13.465  0.6273  0.0024  0.1093
51487W        W94400   8.026  30.687   7.712 -0.0420  0.2755 -0.1141
51488W        W94401  25.184   6.103  22.941 -0.0952  0.0641 -0.1247
51489W        W94402   8.804   4.887   6.553 -0.1759 -0.0225  0.0044
51490W        W94403   0.858   1.430   7.562  0.0440 -0.0555  0.1194
51491W        W94404   2.507  28.222   6.966 -0.1429  0.0655 -0.1215
51492W        W94405  31.944   6.969   8.424  0.1001 -0.0619  0.2953
51493W        W94406  29.958   4.829   1.072  0.1681  0.2109 -0.2934
51494W        W94407  28.230   1.975   6.432 -0.0422 -0.0692 -0.1436
51495W        W94408  26.379   1.014   9.467  0.1731 -0.1198  0.1741
51496W        W94409   2.176   7.231  29.052 -0.1313 -0.0290  0.2410
51497W        W94410  28.513  10.005   2.764 -0.0447 -0.0916  0.2907
51498W        W94411  10.608  11.162   8.830  0.0923 -0.0839 -0.0088
51499W        W94412  27.190   5.062   9.689 -0.2457 -0.1603  0.2448
51500W        W94413  27.680   5.443   2.766  0.2308 -0.1539  0.1256
51501W        W94414  10.455  27.214  10.496  0.1205  0.2329  0.1109
51502W        W94415   5.960   9.212   3.872  0.1246 -0.2016 -0.0149
51503W        W94416   7.927  25.783   5.386 -0.0569 -0.0243  0.0437
51504W        W94417   5.397   3.085   6.161  0.0878 -0.1207 -0.2697
51505W        W94418  30.163  30.888   5.833  0.2854 -0.0174 -0.1897
51506W        W94419  34.335   0.796   8.145  0.0360 -0.0659  0.0433
51507W        W94420   5.863  11.914   4.926 -0.0471  0.0292 -0.0975
51508W        W94421  26.853  13.089  28.218 -0.4023 -0.0170 -0.1513
51509W        W94422  33.516   3.627  24.525 -0.0258 -0.4421 -0.1488
51510W        W94423   7.999   3.699  12.946 -0.0397  0.0927  0.3220
51511W        W94424  32.297   8.419  11.011 -0.0969  0.2229  0.1794
51512W        W94425  32.308   2.643  11.264  0.0401  0.0314 -0.3152
51513W        W94426  24.035   3.471   5.233 -0.1311  0.2282 -0.2559
51514W        W94427   4.204   3.645   9.053  0.1562  0.1741  0.3132
51515W        W94428  27.173  33.841   4.139  0.0375 -0.1609  0.0479
51516W        W94429   1.240  30.718  25.916 -0.0614  0.2860 -0.1116
51517W        W94430  29.905   7.565  28.699 -0.4579  0.4499 -0.0460
51518W        W94431   3.218   2.528   8.356 -0.0637  0.0066 -0.0153
51519W        W94432   8.217   4.709   7.832 -0.0959 -0.0539  0.0783
51520W        W94433   0.765  27.701   9.467 -0.2107 -0.0446  0.0315
51521W        W94434   6.798   1.891   7.338 -0.3493  0.1020 -0.1630
51522W        W94435   9.403   4.119   9.350  0.0572 -0.5087 -0.4072
51523W        W94436  24.667  12.808  29.473  0.0099  0.3775 -0.1633
51524W        W94437  11.634   4.321   9.713 -0.1008  0.1698 -0.1548
51525W        W94438   1.195  10.292   9.576 -0.0631  0.1557 -0.0085
51526W        W94439  31.091  25.142   3.777  0.2025 -0.3669  0.1061
51527W        W94440   5.362   0.924   1.417 -0.2092 -0.0723  0.2650
51528W        W94441  33.915   9.337   1.744 -0.0252  0.0644  0.2617
51529W        W94442   5.031  33.601   6.614 -0.1138  0.3466 -0.1669
51530W        W94443   1.667  24.696  10.304 -0.1266  0.1414  0.1744
51531W        W94444  31.081   0.889  10.818  0.0374 -0.3504 -0.0277
51532W        W94445  31.149   6.998   0.148 -0.2356  0.1051  0.1648
51533W        W94446  27.769  11.019  25.062  0.0047  0.0467  0.3203
51534W        W94447   1.449   6.842   0.530 -0.1307  0.0735 -0.1014
51535W        W94448   3.515  17.552  29.735 -0.3191  0.1649  0.0750
51536W        W94449  22.951  30.231   5.966  0.1069 -0.0080  0.0183
51537W        W94450  30.838   8.309   2.803 -0.2651  0.2215  0.1337
51538W        W94451   4.202   3.161   3.598  0.0380  0.3150  0.0552
51539W        W94452   0.016   9.827   3.039  0.0068  0.0277 -0.0571
51540W        W94453   6.611   4.821  27.123 -0.1072 -0.0388 -0.1184
51541W        W94454   5.845   0.466   3.602 -0.1872  0.0661 -0.0229
51542W        W94455   9.691  10.596  10.768 -0.2503 -0.3018 -0.1600
51543W        W94456  33.307   6.790  29.681 -0.2128  0.1373 -0.0244
51544W        W94457  17.560   8.545  24.216  0.0806  0.1850  0.0011
51545W        W94458  31.137   3.679  28.600 -0.1304 -0.0437  0.0329
51546W        W94459  31.444   4.867   8.045  0.1551 -0.0351 -0.0424
51547W        W94460   3.334   1.437   4.732  0.2885  0.0282 -0.1963
51548W        W94461  14.216   3.021  26.351  0.0845 -0.0511 -0.0804
51549W        W94462  31.182   9.014  10.312  0.3303 -0.4529 -0.1894
51550W        W94463   1.159  11.103  24.407  0.2992  0.0091 -0.1206
51551W        W94464  32.965  30.407   5.234  0.0396  0.0105 -0.0998
51552W        W94465   2.611   9.206  27.789  0.0436  0.0354  0.2074
51553W        W94466  29.423   2.675  29.002 -0.4769 -0.1351  0.0598
51554W        W94467   9.217   8.102   9.058 -0.1707 -0.0818 -0.1310
51555W        W94468  11.596  10.991  27.745 -0.1001 -0.0026  0.0943
51556W        W94469  28.112  14.388  26.739 -0.0710  0.0179  0.0983
51557W        W94470   2.450  13.174   0.295 -0.2315 -0.1058 -0.2287
51558W        W94471   8.741  14.464   0.987  0.2726  0.1312 -0.0451
51559W        W94472  30.621  16.221   0.428  0.0600  0.2961 -0.2379
51560W        W94473  26.773   2.632   6.176  0.0437  0.2240  0.1924
51561W        W94474  32.561  10.328   0.982 -0.0755 -0.4971  0.0118
51562W        W94475  23.437  13.832   7.507 -0.1972 -0.1997  0.0071
51563W        W94476  32.704   7.593  11.907 -0.0265  0.0999  0.0207
51564W        W94477   5.189   6.720   6.421  0.0643 -0.1791  0.1609
51565W        W94478   6.913  10.595  26.691  0.1361  0.1632 -0.2645
51566W        W94479  30.003  11.369  28.799  0.1747 -0.2107  0.2241
51567W        W94480  33.536   8.094  11.386 -0.0312  0.0801  0.2204
51568W        W94481  28.851   0.653   2.578  0.1968  0.2445  0.0034
51569W        W94482  28.418   9.464   5.324 -0.0291  0.1018 -0.0295
51570W        W94483   7.937   5.513   1.295 -0.0883  0.0013  0.0038
51571W        W94484   2.821   8.305  26.887  0.0784 -0.0202  0.0289
51572W        W94485  24.192   1.355  27.568  0.0471  0.1681 -0.0581
51573W        W94486  20.449   6.315   5.447  0.0363 -0.1096 -0.0344
51574W        W94487  28.786  12.407  22.512  0.0020 -0.3149  0.2238
51575W        W94488   9.878   1.310  11.526 -0.0398 -0.0532  0.1298
51576W        W94489  33.588  10.550   5.481  0.1300 -0.2268 -0.1450
51577W        W94490  34.149   5.901  26.199  0.1240 -0.3958  0.1912
51578W        W94491  29.713  13.422  29.016  0.0715 -0.0381  0.2053
51579W        W94492   7.649  11.436  28.293 -0.0387  0.1412 -0.2183
51580W        W94493  30.317  14.208   8.912  0.0100  0.0986 -0.0103
51581W        W94494   2.136  14.308  23.654  0.3337 -0.1471  0.1155
51582W        W94495  25.623  10.938   5.819 -0.0558  0.0436 -0.0322
51583W        W94496  29.776  10.356  26.938  0.2702  0.1899  0.3665
51584W        W94497  17.479   6.140  23.909 -0.1035 -0.1188  0.1476
51585W        W94498  31.152  10.790   9.479 -0.0722  0.0510  0.1123
51586W        W94499   8.363   9.554  28.896 -0.0154  0.1688  0.0989
51587W        W94500  22.915  15.376  26.344  0.1393 -0.0901  0.0559
51588W        W94501  26.707  16.464   7.000  0.0731  0.0254 -0.3647
51589W        W94502  31.818  13.525   0.927 -0.1068  0.0239  0.2315
51590W        W94503  26.306   2.641   1.158 -0.1606  0.1864 -0.1312
51591W        W94504   4.443   9.115  27.147 -0.1358 -0.0057 -0.3030
51592W        W94505  33.703   3.220   8.237  0.1798  0.1634  0.2906
51593W        W94506   3.933  14.514   3.591 -0.0486 -0.2176 -0.1134
51594W        W94507  32.045   2.085  20.218  0.0935 -0.3871 -0.4451
51595W        W94508  28.457  30.281   6.022 -0.2524 -0.0225 -0.0657
51596W        W94509   3.936  32.946  21.585 -0.0011 -0.2620  0.1248
51597W        W94510  24.130   1.872  28.466  0.2954 -0.2449  0.2466
51598W        W94511  27.371   4.722  27.665  0.0830  0.1184 -0.0804
51599W        W94512  29.440   8.827   0.026 -0.1250 -0.3973 -0.2476
51600W        W94513  34.420  12.456  25.719 -0.0213 -0.0221  0.1705
51601W        W94514  28.130   8.656   2.236 -0.0485  0.1282 -0.2818
51602W        W94515  33.454   9.187  29.258  0.0367 -0.1834  0.1429
51603W        W94516  31.851  10.310  20.643  0.0400 -0.0244 -0.0496
51604W        W94517  33.653   3.003   2.193  0.0336  0.0147 -0.2093
51605W        W94518   4.611  20.311  25.460 -0.0032  0.0642 -0.0240
51606W        W94519   6.550  31.953  23.018  0.1950 -0.2618 -0.4901
51607W        W94520   6.859  21.903  27.789 -0.1038  0.0562  0.0743
51608W        W94521   2.567  33.163  17.311 -0.0955  0.2205  0.2415
51609W        W94522  17.256  17.422   0.762  0.1675  0.0216  0.1545
51610W        W94523  25.195   8.208  29.352  0.0541 -0.1153  0.0604
51611W        W94524  28.209   6.329   7.463 -0.2221 -0.0240 -0.1994
51612W        W94525  32.574  33.697  15.403 -0.1491 -0.1581  0.3591
51613W        W94526  31.329  32.658   8.098  0.0549  0.1448  0.5281
51614W        W94527  10.440   5.945  28.288  0.0551  0.1142 -0.2362
51615W        W94528   8.510   0.313  27.608 -0.1515 -0.0199 -0.1439
51616W        W94529   0.103  29.429  23.900 -0.0565 -0.1633  0.0053
51617W        W94530  33.097   5.921   7.162  0.0117 -0.1737 -0.0304
51618W        W94531   1.201  34.280  23.424 -0.1935  0.2151 -0.2516
51619W        W94532   2.182   8.228   4.224  0.2202 -0.1081 -0.0386
51620W        W94533  28.914  19.392  28.570  0.1380 -0.0529  0.0163
51621W        W94534   5.745   0.020  17.449  0.3631  0.3611 -0.2812
51622W        W94535  32.441   8.539  23.800 -0.0176  0.0053 -0.2150
51623W        W94536   2.377   3.055  28.118  0.0671 -0.2994 -0.0955
51624W        W94537  29.092   7.046  16.120 -0.0826  0.2049 -0.0592
51625W        W94538   4.827  33.075  23.659 -0.1744  0.2762  0.1943
51626W        W94539   7.249   1.084  27.669  0.0278  0.1298  0.0846
51627W        W94540  29.612   9.125   1.402 -0.1201 -0.1110 -0.0832
51628W        W94541  27.592  19.696  27.140 -0.0345  0.1010  0.0220
51629W        W94542  22.854  15.699  25.306 -0.1063  0.0189  0.3025
51630W        W94543  33.849   6.163  18.324 -0.0259 -0.1764 -0.1110
51631W        W94544   6.354   0.002  27.716 -0.1558 -0.0099  0.2020
51632W        W94545  30.874   4.761   1.272 -0.1174 -0.3474  0.2821
51633W        W94546   2.375   1.197  25.542 -0.1796 -0.0271  0.5034
51634W        W94547  33.102  10.536  25.986  0.1147  0.0673 -0.0630
51635W        W94548   1.203  29.452   8.707  0.4772 -0.1534 -0.0002
51636W        W94549  11.576   7.031   2.295 -0.0649  0.2153 -0.0039
51637W        W94550  24.198   2.031   9.238 -0.1099  0.0116  0.2949
51638W        W94551  30.092   2.648   0.381 -0.1584 -0.1306  0.2635
51639W        W94552  32.503  34.149   2.456  0.0336  0.0898  0.1845
51640W        W94553   3.589  34.049  26.872  0.0362 -0.2586  0.1450
51641W        W94554  32.354  27.898   1.145  0.0828  0.3427  0.0220
51642W        W94555  26.497   8.194   2.680 -0.1903  0.0324 -0.0775
51643W        W94556   3.289   4.996   1.600  0.0433  0.1040 -0.1669
51644W        W94557   0.132  32.114  29.586 -0.0607  0.1395  0.2065
51645W        W94558   2.916   8.684   0.270  0.2418  0.0016  0.0952
51646W        W94559   3.235  10.115  20.883  0.1709 -0.2688  0.1620
51647W        W94560   5.554  15.185   7.874 -0.0500  0.1655 -0.1408
51648W        W94561   3.812   4.579   1.690 -0.0637  0.0249 -0.1445
51649W        W94562   1.603   5.528   4.850 -0.3280  0.2091  0.0162
51650W        W94563   0.482   7.391   9.833  0.0519  0.0413  0.2049
51651W        W94564  21.016  31.928   7.693 -0.2009 -0.0087 -0.0053
51652W        W94565  31.182   3.358  20.644  0.1817 -0.0600  0.1681
51653W        W94566   4.674  34.416  23.769 -0.1760 -0.1094 -0.1248
51654W        W94567  32.140  17.407  28.086 -0.3656  0.0235  0.0249
51655W        W94568  26.468   9.424   5.844  0.1362  0.2008 -0.0980
51656W        W94569   0.616  10.990   7.564 -0.1349 -0.1351  0.0692
51657W        W94570  34.057   7.777   1.695 -0.1029  0.2118 -0.1416
51658W        W94571   4.961   1.243   2.862  0.1246  0.3419 -0.1647
51659W        W94572   3.411  33.881  24.907  0.0481  0.1159 -0.1751
51660W        W94573  28.667   8.577  28.145  0.0864  0.1339  0.0214
51661W        W94574  34.162  28.760   9.527  0.1504 -0.1824  0.1606
51662W        W94575  25.716   6.108  25.034  0.1444  0.0571  0.3420
51663W        W94576   1.669  15.247  28.196 -0.1988 -0.2728 -0.0726
51664W        W94577  32.372  34.466   9.126 -0.1017 -0.5850 -0.3183
51665W        W94578  27.765  14.407  28.475  0.0665 -0.0056  0.1546
51666W        W94579   2.562   9.198  29.456  0.2051 -0.2063  0.2970
51667W        W94580   5.257   6.356  18.350 -0.2110 -0.0377 -0.2118
51668W        W94581   3.370  25.123   0.667 -0.0194 -0.0666 -0.0229
51669W        W94582  27.946  11.088  22.486 -0.1697 -0.1026  0.1676
51670W        W94583   2.303   5.947   3.017  0.0799 -0.2808 -0.0276
51671W        W94584  32.665  19.299   7.226 -0.0087  0.0156 -0.2075
51672W        W94585   0.671  11.585   8.471  0.0891  0.1108 -0.1373
51673W        W94586  33.604   9.784   0.430 -0.4684  0.0080 -0.1774
51674W        W94587   2.048  34.293  10.199  0.0897 -0.1948 -0.1143
51675W        W94588   3.797  20.747  24.103  0.1625 -0.0402 -0.0875
51676W        W94589   0.949   9.974   2.404 -0.5813  0.1805 -0.2033
51677W        W94590  33.648  29.437   9.430  0.0412  0.1634  0.1115
51678W        W94591   1.411  10.409  25.589 -0.2930 -0.1354  0.4479
51679W        W94592   8.436  13.600  22.826  0.1392  0.0962  0.4099
51680W        W94593  26.955  16.316  25.190 -0.1526  0.1284  0.0579
51681W        W94594   3.128   3.915   3.255  0.1828 -0.2151  0.2701
51682W        W94595  33.401  12.441  26.447 -0.1586  0.3426 -0.1153
51683W        W94596  30.217   9.947  10.034 -0.2509  0.0647 -0.0569
51684W        W94597  33.255  17.397  25.928  0.2066  0.2189  0.1161
51685W        W94598  27.894  15.343  23.680  0.0304 -0.1483 -0.0524
51686W        W94599  34.433   5.896   2.773  0.1391  0.3552  0.4773
51687W        W94600   1.986   2.818   7.349  0.1581  0.1419  0.1099
51688W        W94601   7.014  13.417   3.859 -0.2641  0.1434  0.5143
51689W        W94602   4.790   8.717   3.425 -0.4219  0.3331  0.0987
51690W        W94603   1.987   8.417   9.519 -0.1856  0.4148 -0.0766
51691W        W94604   1.888   5.199   6.573  0.0933 -0.2553 -0.1579
51692W        W94605   2.266  10.042  15.646 -0.1328  0.0445 -0.1425
51693W        W94606  32.285   3.564  29.367  0.3192  0.0753  0.0328
51694W        W94607   3.286  23.364   5.331  0.1058 -0.3302  0.1012
51695W        W94608   0.153   8.093   6.337 -0.1486 -0.1077  0.1831
51696W        W94609   6.542  13.608   1.461  0.0967  0.0575 -0.0799
51697W        W94610   1.588   9.966   6.248  0.0425 -0.0580  0.1998
51698W        W94611   0.798  23.013  28.513  0.1492 -0.4585 -0.0198
51699W        W94612  27.926  12.400  27.192 -0.2203 -0.3384  0.1889
51700W        W94613  27.745  15.236  24.706  0.0149  0.1745 -0.0423
51701W        W94614  27.229  33.961   9.980  0.0702 -0.1337 -0.2831
51702W        W94615   4.474   4.039   6.767  0.1744  0.0484 -0.0721
51703W        W94616  33.104  10.088   3.204 -0.1617  0.1327 -0.0508
51704W        W94617   2.867  17.872  27.919 -0.0143 -0.3393 -0.2534
51705W        W94618   4.595   6.963   3.340  0.0274  0.4314  0.3870
51706W        W94619   3.477   7.228  29.754  0.2030  0.1679 -0.1327
51707W        W94620  32.389  13.576   2.809  0.0211  0.0019 -0.2303
51708W        W94621   2.338  31.126   3.922  0.1628  0.1709  0.0085
51709W        W94622   1.948   3.579  19.275  0.1883 -0.0567  0.0912
51710W        W94623  27.111   7.233  18.857 -0.3128  0.1337 -0.2742
51711W        W94624   1.510  12.277   9.426 -0.0215 -0.0792 -0.2615
51712W        W94625  29.787  18.245   8.249 -0.1892  0.4485  0.1568
51713W        W94626  24.478   1.549  27.210 -0.2014 -0.2418  0.0694
51714W        W94627   0.528  14.641   9.175 -0.0415  0.0188 -0.0027
51715W        W94628   4.799  29.656  29.081  0.1146  0.2154 -0.0590
51716W        W94629  23.424  17.235   7.175 -0.1375  0.0815 -0.1235
51717W        W94630   6.186  32.991   6.380 -0.0203  0.2534 -0.3852
51718W        W94631  31.510  30.930   5.111  0.0595 -0.0729 -0.0499
51719W        W94632   9.543  12.678  21.280  0.0128  0.3988 -0.0961
51720W        W94633  26.170   1.371   4.226  0.1807 -0.0909 -0.1863
51721W        W94634   5.696  23.707  23.458 -0.1141 -0.0129  0.2206
51722W        W94635  21.915  12.710  29.471 -0.1459 -0.2003  0.2152
51723W        W94636  26.359  30.271   1.553 -0.1134  0.1417 -0.3253
51724W        W94637   0.495  13.584   8.612 -0.0997 -0.2372  0.3353
51725W        W94638  21.778  29.428  28.965 -0.3161  0.1313  0.1069
51726W        W94639  29.017   5.728   8.812 -0.1019  0.2619 -0.1285
51727W        W94640   8.804   3.181  27.793 -0.0873 -0.3693  0.2327
51728W        W94641   1.886  12.971  28.894  0.2541  0.3585  0.0399
51729W        W94642  32.849   6.911  26.735  0.0801  0.6589 -0.0102
51730W        W94643  22.743   9.347   1.996 -0.0407 -0.0244  0.2185
51731W        W94644  10.933   5.253  28.554 -0.0325 -0.3587 -0.2870
51732W        W94645   4.970  10.630  25.258  0.1885 -0.0055  0.1588
51733W        W94646   0.755   2.420   3.838  0.1629 -0.0006  0.2849
51734W        W94647  29.233   0.564   0.724 -0.1750 -0.0936 -0.3949
51735W        W94648  22.149  16.561  23.790 -0.0644  0.1678  0.0955
51736W        W94649  14.392  14.835  24.983  0.0377 -0.0070  0.1209
51737W        W94650  32.010   8.606  25.163 -0.0681 -0.3771 -0.4188
51738W        W94651  33.240   6.011  23.119  0.1768 -0.1894  0.4187
51739W        W94652  29.399   9.493  27.285 -0.2826  0.0070  0.2293
51740W        W94653  31.617  14.294  29.077 -0.1899  0.2530 -0.2654
51741W        W94654   7.410   0.757   8.389  0.3604 -0.0030 -0.3649
51742W        W94655  26.061  30.107   4.335 -0.3424  0.0867  0.2756
51743W        W94656  31.051  33.450  21.680  0.2410 -0.2981  0.2669
51744W        W94657   9.484  27.762  26.725  0.0450 -0.2242  0.1910
51745W        W94658  31.172   8.321  28.309 -0.1617  0.0303  0.2024
51746W        W94659   3.326   7.297   4.806  0.3248  0.4107 -0.0053
51747W        W94660   3.213  33.440  19.369 -0.0248 -0.0131  0.0978
51748W        W94661   5.198   0.184   7.903  0.0564 -0.1069 -0.1304
51749W        W94662  33.212   0.126   8.792 -0.0463  0.1748 -0.1836
51750W        W94663  32.514   7.901  29.524  0.1221 -0.0191 -0.0694
51751W        W94664  32.441  10.674  28.305 -0.0379 -0.0646  0.0927
51752W        W94665  25.645   5.432   5.911 -0.0863 -0.1235 -0.0232
51753W        W94666  33.454  29.284   1.466  0.1095  0.0362  0.1461
51754W        W94667  33.979   7.187   7.097 -0.1186  0.1697 -0.0185
51755W        W94668  19.290  20.733  25.546 -0.2603  0.0728  0.0423
51756W        W94669   1.221   3.033   6.325 -0.2330 -0.0296 -0.0455
51757W        W94670  31.865  15.864  22.882 -0.5120  0.1482 -0.0676
51758W        W94671  29.151  17.541   3.225 -0.0301 -0.3659 -0.2750
51759W        W94672   5.931   4.069   2.461  0.0983  0.1602 -0.2376
51760W        W94673  33.020   8.026   0.546 -0.0800 -0.1386  0.0186
51761W        W94674   0.157   6.191   8.491 -0.2778 -0.2765 -0.0293
51762W        W94675  33.098  24.891   2.198  0.1608  0.0771  0.1785
51763W        W94676   8.367   2.131   9.797 -0.0924  0.1805 -0.1748
51764W        W94677  10.091  11.777  21.356  0.1572 -0.0393  0.1186
51765W        W94678  24.351   3.940   6.573  0.0106  0.1049  0.2001
51766W        W94679  24.485   7.408   7.481 -0.3669 -0.1657  0.3566
51767W        W94680  31.969  34.014  10.590 -0.0285 -0.0888  0.0658
51768W        W94681  21.699  10.952  25.693  0.2831 -0.1384  0.3480
51769W        W94682  23.208   6.974  27.771 -0.1980 -0.0645  0.3376
51770W        W94683  32.453   9.328   3.669 -0.1154 -0.0369 -0.1047
51771W        W94684  34.182   9.245  27.497  0.1627  0.1579  0.1104
51772W        W94685  32.554   9.559   7.602 -0.1329 -0.2452 -0.2534
51773W        W94686   0.631   4.349   8.657 -0.2404 -0.0464  0.0362
51774W        W94687  31.381  34.254   6.503  0.3018  0.1982  0.1592
51775W        W94688  31.843  32.566   4.924 -0.0647 -0.1833  0.0705
51776W        W94689   0.443   6.897  26.627  0.0626  0.1611 -0.0742
51777W        W94690   0.595  11.804   6.762  0.1052  0.2663  0.1437
51778W        W94691  29.057   4.877   9.785  0.1303  0.2314  0.0452
51779W        W94692  29.121   3.889   4.484 -0.2565  0.0392 -0.0169
51780W        W94693  27.874   6.574   9.152 -0.1501  0.3510 -0.0825
51781W        W94694  20.308   5.335   5.473  0.1838 -0.2117  0.0027
51782W        W94695  27.004   5.991   3.712 -0.3978 -0.1133 -0.3974
51783W        W94696   4.380  14.552   2.392  0.1601 -0.0122 -0.0470
51784W        W94697   4.032   4.250   6.143  0.0693  0.2549  0.1468
51785W        W94698  27.702   6.229  27.036  0.1723  0.1911  0.0092
51786W        W94699  26.277   2.105  29.115 -0.0199 -0.0515  0.0672
51787W        W94700  30.591  13.270   1.048 -0.0180 -0.1303 -0.2522
51788W        W94701   0.450   3.926   8.338 -0.2562 -0.2792 -0.0857
51789W        W94702  27.669   7.933  22.152 -0.1053  0.0501  0.1399
51790W        W94703  27.534   9.022   6.840  0.4702  0.0796  0.0070
51791W        W94704   6.382  15.337   0.266 -0.4799 -0.1422  0.0862
51792W        W94705  29.122   1.590  11.152 -0.1191 -0.2131  0.0720
51793W        W94706  10.874   5.913   8.809 -0.1118  0.2107  0.1262
51794W        W94707   1.073   1.328   8.309 -0.0074  0.3676 -0.1228
51795W        W94708  30.788   4.013  11.048  0.1780 -0.1615 -0.2234
51796W        W94709  33.280   4.847   9.841  0.0089  0.0639  0.0486
51797W        W94710   1.030   9.037   6.358 -0.3666  0.1323 -0.1313
51798W        W94711  33.397  11.836   2.985 -0.1358 -0.2583  0.0624
51799W        W94712  31.886   4.796   1.959 -0.1149 -0.0108  0.0193
51800W        W94713  31.365  10.359   3.121 -0.2674  0.0074  0.2151
51801W        W94714   1.878   5.382   1.876 -0.2776  0.0366 -0.0693
51802W        W94715   5.487   5.715   4.913  0.2032  0.0717  0.0144
51803W        W94716  31.410  11.911   8.767 -0.1783 -0.2882 -0.2711
51804W        W94717   3.408   8.325  22.646 -0.1716  0.0085 -0.3233
51805W        W94718   0.136  10.651   2.583 -0.1693 -0.1252  0.0869
51806W        W94719   3.894   3.151   7.737  0.0375 -0.2331  0.1001
51807W        W94720   6.914   3.914  13.995 -0.0769 -0.0607 -0.1433
51808W        W94721  30.996  16.573   5.772  0.0209  0.4087 -0.1658
51809W        W94722  32.430   3.968   8.368 -0.1411  0.0269 -0.1492
51810W        W94723  23.995   5.641   1.387 -0.2526 -0.1516 -0.3037
51811W        W94724  21.648  12.014   8.300  0.2567 -0.1212 -0.0594
51812W        W94725  30.651   2.294   9.127  0.2260 -0.0143  0.0345
51813W        W94726  33.192   5.582   8.740 -0.0847 -0.0766 -0.1490
51814W        W94727  33.733  30.068   3.226 -0.2576  0.0871  0.0476
51815W        W94728  29.807  16.210  27.439  0.0975  0.0023  0.0757
51816W        W94729   6.239   8.171   8.391  0.0446  0.0553  0.0789
51817W        W94730  27.717  16.549   9.134 -0.2370 -0.1177 -0.0158
51818W        W94731   2.174   8.977   0.730  0.0242  0.4397 -0.1907
51819W        W94732  28.011  10.525   4.601  0.2549 -0.0289  0.0445
51820W        W94733  30.742  10.358   4.227 -0.2185  0.1107 -0.0208
51821W        W94734   0.862   7.587   4.775 -0.0771  0.3024  0.0556
51822W        W94735   8.636   2.219   5.314  0.1470  0.2262 -0.1819
51823W        W94736   4.205  20.694  10.528  0.1242 -0.0859  0.3671
51824W        W94737   5.091   7.154  12.023 -0.0862  0.2832 -0.4565
51825W        W94738   3.503  34.192   7.306  0.3163 -0.1067  0.2086
51826W        W94739   9.928   2.562   4.592 -0.1090 -0.0156 -0.0185
51827W        W94740   0.592   8.953  24.625  0.0645  0.0655 -0.0615
51828W        W94741  24.660  13.410   1.448 -0.1164  0.0717 -0.2706
51829W        W94742   4.754  33.669  24.488  0.0733 -0.1323 -0.2485
51830W        W94743  26.932  29.425   0.550 -0.1498  0.0945  0.6016
51831W        W94744   0.759  10.671   2.895  0.3155  0.0432 -0.0769
51832W        W94745   5.712  30.610   1.665  0.1027  0.0289 -0.4788
51833W        W94746  31.341   9.051   4.156  0.1139 -0.1629 -0.4325
51834W        W94747  28.787  11.600   8.296  0.1965  0.3872  0.1200
51835W        W94748  23.161  17.591  26.394 -0.0025  0.0634  0.2990
51836W        W94749   4.140  12.289   6.977 -0.0577  0.2484  0.1804
51837W        W94750   6.460   9.084   8.728 -0.1454  0.1643  0.2404
51838W        W94751   4.465  14.006   6.055  0.0359 -0.1083  0.0333
51839W        W94752  31.994  32.714  27.665 -0.2398 -0.0397  0.1410
51840W        W94753  29.466  12.320   7.030 -0.1732 -0.2576 -0.0748
51841W        W94754   2.780  32.452   7.375 -0.0069  0.0517 -0.0313
51842W        W94755   2.394  20.000   8.258 -0.1533 -0.3240  0.2618
51843W        W94756   9.155   4.228  11.707  0.1855 -0.0783  0.1726
51844W        W94757  31.370   9.249   5.747 -0.2600 -0.0553 -0.0251
51845W        W94758   1.065  29.558  29.525 -0.0334 -0.1156 -0.1182
51846W        W94759  31.386  10.983   4.594 -0.1291  0.0779 -0.0942
51847W        W94760  28.891  16.426   2.145  0.1789 -0.1660  0.0838
51848W        W94761  12.996  30.440  10.184 -0.0180 -0.1378  0.0841
51849W        W94762  32.407   9.959   8.618 -0.0662  0.0937  0.1199
51850W        W94763  27.511   2.132  28.715 -0.2910 -0.1413  0.4119
51851W        W94764  14.410   0.283   3.176  0.2893 -0.0425 -0.1301
51852W        W94765  23.793   5.854  21.549 -0.1832  0.0368  0.0170
51853W        W94766  32.588  12.274   8.968 -0.2230  0.0546 -0.0121
51854W        W94767  34.070  10.356   8.381  0.1736  0.3475 -0.0401
51855W        W94768  21.690  13.129   3.644  0.2790 -0.1269 -0.0464
51856W        W94769  31.387   6.476  18.383 -0.1059 -0.1278  0.1043
51857W        W94770  25.242   0.021   8.629 -0.2210 -0.0900  0.1506
51858W        W94771  30.819   2.166  29.648 -0.4990  0.1309 -0.1274
51859W        W94772  27.362  14.447   6.255 -0.3340  0.0019  0.2265
51860W        W94773   1.629   5.808   5.763 -0.2390 -0.0453  0.1316
51861W        W94774   4.240  13.777  10.478 -0.2423  0.0555  0.1293
51862W        W94775   2.227  17.307   1.375  0.0879 -0.1581 -0.1908
51863W        W94776  32.336  12.962   7.706  0.0082 -0.0786 -0.3394
51864W        W94777  28.357  10.569   1.258  0.0252  0.0917  0.1034
51865W        W94778   6.206  14.537   8.555  0.3777  0.3440 -0.1479
51866W        W94779  27.045   6.065  25.922  0.1531  0.3114 -0.0317
51867W        W94780  33.149  13.795   3.922  0.3315  0.1351 -0.0493
51868W        W94781  22.353  12.501   6.007 -0.1264  0.1762 -0.1092
51869W        W94782  22.279  31.818  28.867 -0.3081 -0.0716  0.1902
51870W        W94783  31.326  11.496  29.388 -0.0185 -0.1444  0.2785
51871W        W94784   0.757  33.070   8.590  0.0148 -0.0337  0.0436
51872W        W94785  29.532  11.646   1.664  0.3461 -0.2195  0.0161
51873W        W94786  27.643  27.220   5.794  0.0930 -0.2044 -0.1990
51874W        W94787  28.770  24.505   2.304 -0.2644 -0.2760 -0.3649
51875W        W94788  26.753   2.746  27.703 -0.3776  0.3324 -0.1496
51876W        W94789  18.339   3.863   4.029 -0.2611 -0.0965  0.1024
51877W        W94790  27.121  11.625   6.955  0.0278 -0.2910 -0.0022
51878W        W94791  27.959   6.434   3.748  0.0555 -0.0692 -0.1433
51879W        W94792  29.544  24.598   5.522 -0.0704 -0.1728 -0.0567
51880W        W94793   8.672  11.890   8.990  0.2119 -0.0880 -0.1556
51881W        W94794  28.921   6.202   6.851 -0.2085 -0.0621  0.1767
51882W        W94795  15.721  10.076  22.950  0.0535  0.1747 -0.2282
51883W        W94796   1.585   9.485  10.555 -0.0675  0.3329 -0.0996
51884W        W94797  31.224   7.188   1.581 -0.2303 -0.3207  0.0495
51885W        W94798   1.030  30.636   8.367 -0.0643 -0.1516 -0.1049
51886W        W94799  10.667  15.438   6.590 -0.1014  0.1677  0.1206
51887W        W94800   7.885  29.318  10.287  0.0198  0.1695  0.0696
51888W        W94801  13.026   8.669   3.468  0.1143  0.1507  0.1851
51889W        W94802  32.301   7.887  25.661 -0.0090 -0.2039  0.0088
51890W        W94803  30.920  33.761  22.972  0.1519 -0.0376  0.2624
51891W        W94804  24.902   8.645  29.206  0.3203 -0.1731  0.2649
51892W        W94805   4.977  13.987   6.924 -0.0016  0.2673  0.2368
51893W        W94806   1.750  10.314  28.592  0.0808 -0.0717 -0.0014
51894W        W94807   3.665   4.615  29.044 -0.2465 -0.0164  0.2304
51895W        W94808  26.107  15.809   8.723 -0.0133  0.0181  0.1374
51896W        W94809  11.233  13.605   7.567  0.0530 -0.1228  0.1831
51897W        W94810   2.739   7.168  26.380 -0.0057  0.4415  0.0367
51898W        W94811   4.124   7.151  10.536 -0.1496  0.0960 -0.0021
51899W        W94812  31.773   2.516  11.444 -0.1161  0.1023  0.0238
51900W        W94813   6.534   4.808  11.837  0.1549 -0.0046 -0.0861
51901W        W94814  30.450  15.790  28.161 -0.0461 -0.0989 -0.0649
51902W        W94815  11.943  11.482   5.810 -0.2826 -0.1937 -0.2190
51903W        W94816  34.069   6.543   2.169  0.1287 -0.0829 -0.0350
51904W        W94817  31.067   8.325   7.505  0.2492  0.0407  0.3493
51905W        W94818  33.446   5.234  28.913 -0.0628 -0.3002 -0.0156
51906W        W94819  28.746   3.115  25.296 -0.0944  0.0550 -0.3757
51907W        W94820  11.970  29.881  25.377 -0.2487  0.2137  0.2043
51908W        W94821   2.742   1.666   6.788 -0.1334 -0.4406  0.2407
51909W        W94822   0.969   5.014  10.095 -0.2387 -0.3200 -0.0254
51910W        W94823  28.197  31.339   5.278  0.0744  0.0890 -0.1347
51911W        W94824   2.985   2.726  20.676  0.1673  0.2667 -0.0241
51912W        W94825   9.372  11.382   2.881  0.0071 -0.2833  0.4998
51913W        W94826  32.040   0.535  10.880  0.3910  0.0378  0.3114
51914W        W94827   2.847   5.013   8.942  0.0655 -0.1579  0.0186
51915W        W94828  25.853  13.046   1.209  0.1188  0.2794  0.1024
51916W        W94829  30.528   2.803  11.592 -0.0185  0.0205 -0.0220
51917W        W94830  30.461   7.845   3.437 -0.0674  0.1993  0.1092
51918W        W94831  29.278  10.057   5.670  0.0336  0.2826  0.2601
51919W        W94832  10.469   6.579   9.456 -0.0774 -0.1596  0.0926
51920W        W94833   0.525  28.998   2.108  0.3473  0.3140 -0.2915
51921W        W94834   7.951   5.407   8.157  0.1561 -0.0072  0.0591
51922W        W94835  19.776  15.508   5.044  0.1523 -0.0229  0.2245
51923W        W94836   2.159   2.950  12.195  0.1202 -0.3409 -0.2267
51924W        W94837  25.737   0.675   5.894  0.0351 -0.2574  0.1575
51925W        W94838  29.555   8.100   8.907 -0.0815 -0.1308  0.2018
51926W        W94839  23.900   9.830   0.452  0.0876 -0.2527 -0.0877
51927W        W94840   3.948   7.077   9.886  0.2882 -0.0386 -0.1907
51928W        W94841   2.116  13.605  27.861 -0.2863 -0.1958  0.3098
51929W        W94842   2.082  15.061  26.512  0.2308 -0.1833 -0.0229
51930W        W94843   2.624   8.595   3.217 -0.2625 -0.0977  0.0177
51931W        W94844   0.727   2.932  23.795  0.0906  0.1444 -0.2174
51932W        W94845   0.971  24.361   7.756  0.3466  0.0398 -0.0077
51933W        W94846  13.266   9.079   7.322 -0.1933  0.0865 -0.1467
51934W        W94847  28.992   8.841   0.141 -0.1363  0.1822  0.1402
51935W        W94848   1.743   6.798   6.864 -0.2468 -0.0531  0.1250
51936W        W94849   0.903   7.193   6.607 -0.1423 -0.1166 -0.1229
51937W        W94850   3.164  31.172  10.394 -0.2665  0.0080  0.2142
51938W        W94851   2.325   7.373   7.754 -0.0486  0.0786 -0.0121
51939W        W94852   4.097   1.792  28.567 -0.3187  0.0670 -0.1842
51940W        W94853   1.327   6.363   9.142 -0.1267 -0.1450 -0.0338
51941W        W94854  33.815  13.513   7.357  0.1095  0.0433 -0.2841
51942W        W94855  34.244   3.001  28.625 -0.0626  0.0139  0.3025
51943W        W94856  31.295  12.612  28.441  0.1266 -0.0394 -0.0243
51944W        W94857   5.880  28.717   2.907 -0.1060  0.1656 -0.0323
51945W        W94858   5.815   5.813   4.491 -0.3169  0.0643  0.1330
51946W        W94859  33.487   9.091   3.928  0.2600 -0.0738  0.2521
51947W        W94860  17.455  11.480   1.789  0.1816 -0.1602  0.0036
51948W        W94861  30.229   9.279   7.229  0.2393  0.0188 -0.0508
51949W        W94862   1.850   6.931  28.865 -0.0500  0.1807 -0.1896
51950W        W94863  22.178  12.135  26.258  0.0921  0.0747 -0.1258
51951W        W94864   2.525   5.765  11.470  0.1858  0.1085 -0.1870
51952W        W94865   4.529  32.502  10.047 -0.0883  0.3200  0.2564
51953W        W94866  31.224   5.952  10.635 -0.0929  0.3672 -0.0010
51954W        W94867  27.893  11.786   8.041 -0.0535  0.4794 -0.0655
51955W        W94868   3.591  33.806   8.202 -0.3312 -0.1181 -0.0020
51956W        W94869   5.976  11.206   6.198 -0.0316  0.0127  0.2714
51957W        W94870  29.450   8.339   6.636 -0.1148 -0.2165  0.1535
51958W        W94871  31.180  13.102   5.002  0.1848  0.0359  0.2281
51959W        W94872   0.896   3.752   6.890  0.1600  0.2559  0.1260
51960W        W94873  28.323   2.950  24.031 -0.0626  0.0540  0.2355
51961W        W94874  27.577  10.561  26.332  0.1821 -0.4020  0.1683
51962W        W94875  33.863  10.204   6.729  0.1041  0.0608  0.0753
51963W        W94876  13.327   5.584   3.420 -0.2288 -0.1473 -0.1611
51964W        W94877   4.917   5.113  10.946  0.0351 -0.0942 -0.0388
51965W        W94878   7.811  14.924  24.999 -0.1753 -0.1088  0.1783
51966W        W94879  26.550   8.081   3.810 -0.1779 -0.0824 -0.0497
51967W        W94880   6.327  32.523  12.420 -0.0129 -0.1809  0.1494
51968W        W94881  30.320  14.222   5.318 -0.2223  0.2915 -0.0666
51969W        W94882   1.962   4.865  29.381 -0.1132 -0.1670 -0.1198
51970W        W94883   2.663   7.376   5.555  0.0451  0.0145 -0.2275
51971W        W94884  28.523  11.162  26.023 -0.1655  0.0634 -0.0023
51972W        W94885  31.174  13.026   7.200  0.2319  0.1596  0.3990
51973W        W94886   0.012  17.117   1.356 -0.0492 -0.0538  0.0634
51974W        W94887  33.982   5.289  11.098  0.1281 -0.1961 -0.2271
51975W        W94888   5.330   9.079   2.718  0.0410 -0.0604 -0.2173
51976W        W94889   9.632  13.695   5.246 -0.2792  0.3079  0.1834
51977W        W94890  13.730   8.883  24.266 -0.0100 -0.0763 -0.1172
51978W        W94891  22.853   5.233   5.132 -0.1853  0.0775  0.0385
51979W        W94892   1.064   7.065   6.066 -0.3486  0.1076 -0.0829
51980W        W94893   2.126   0.495   4.180 -0.2259  0.1108  0.1602
51981W        W94894   5.286   6.139  12.621  0.0382  0.3588 -0.1481
51982W        W94895   8.831  10.663   6.852  0.0914  0.2061  0.0785
51983W        W94896   1.166  12.351   3.524 -0.0175  0.0075  0.0530
51984W        W94897  25.439  12.125   7.497 -0.0730  0.0270 -0.0427
51985W        W94898  30.986   5.216   7.499 -0.2691  0.0248  0.0092
51986W        W94899  23.359   5.733   4.651  0.3996 -0.2634 -0.0162
51987W        W94900  16.506   3.709   3.301 -0.4266  0.0686  0.0039
51988W        W94901  11.518  33.692  11.752  0.2833 -0.1114  0.0161
51989W        W94902  30.367  12.265   8.177 -0.2486 -0.0015 -0.0918
51990W        W94903  25.584  15.886   8.595 -0.1906  0.0965  0.0958
51991W        W94904   4.574   7.731   7.898 -0.0057 -0.1572 -0.1390
51992W        W94905   2.935   2.974   9.547  0.0822  0.1661 -0.2011
51993W        W94906  26.859   1.537  10.377 -0.1989  0.0706  0.3817
51994W        W94907   1.009   7.752  10.536  0.1683  0.2171  0.1005
51995W        W94908   6.975   9.278  28.250  0.0564  0.2501  0.2316
51996W        W94909   2.838  25.137   9.268  0.0073  0.0083 -0.0513
51997W        W94910  29.106   9.254  10.444  0.0450 -0.1872  0.1806
51998W        W94911  27.007   9.362   9.500 -0.1797 -0.2813  0.0566
51999W        W94912   5.997   1.979  12.394  0.0901 -0.0729  0.0685
52000W        W94913   4.178  12.374   8.925 -0.2618  0.0878 -0.0981
52001W        W94914   7.307   8.755   5.093  0.0803 -0.4269  0.0178
52002W        W94915  31.405   7.058   3.130 -0.1122  0.0640 -0.1524
52003W        W94916  34.035  12.088   4.827  0.0064  0.0731 -0.0862
52004W        W94917   7.420   2.530   7.913  0.0779 -0.1860  0.5597
52005W        W94918   2.485   4.335  10.097  0.1368 -0.2567  0.2942
52006W        W94919   3.371   1.535  11.833 -0.1446  0.3818 -0.0617
52007W        W94920  28.965  10.170   3.652  0.2030  0.1492  0.1496
52008W        W94921  34.082  12.766  26.682 -0.2291 -0.2134 -0.3154
52009W        W94922   2.594   5.670   8.959 -0.0681  0.0135  0.3333
52010W        W94923   9.244   8.109   5.594  0.0840  0.1548  0.3847
52011W        W94924  27.820   6.781  10.068 -0.1625 -0.0542  0.1014
52012W        W94925  28.887  18.017   6.718 -0.0808 -0.2052  0.1913
52013W        W94926  12.381   9.454   8.835  0.0109 -0.0334  0.1803
52014W        W94927   3.903   6.175   5.695 -0.0578 -0.0597 -0.0224
52015W        W94928   5.704   0.805   5.805 -0.0280  0.0969 -0.0191
52016W        W94929   8.677   2.900   9.362 -0.4566 -0.0096  0.0558
52017W        W94930   6.261  31.660  11.123 -0.3124  0.0276  0.0510
52018W        W94931   6.944   4.646  13.042  0.0032 -0.1859  0.3329
52019W        W94932  25.268   5.178   7.117 -0.3690 -0.0149  0.1442
52020W        W94933  34.141   5.190   4.681 -0.1096  0.0700 -0.4367
52021W        W94934   4.420   2.950  13.108 -0.1934  0.0829 -0.0943
52022W        W94935  33.064   5.683  11.197  0.2486 -0.2635  0.0833
52023W        W94936  32.780   6.381   6.007  0.0235  0.0454  0.0449
52024W        W94937  31.940   3.331   9.322  0.1660 -0.1320  0.4259
52025W        W94938  33.025   1.404  10.882  0.1298 -0.0194  0.0223
52026W        W94939  33.057   9.908   1.632 -0.1362  0.1331  0.2316
52027W        W94940  24.007   5.141  10.308 -0.1608  0.0212  0.1680
52028W        W94941  10.049   9.271   5.297 -0.1488 -0.1949  0.1128
52029W        W94942  34.402  33.722   7.196 -0.2777 -0.0340  0.2807
52030W        W94943   7.540   3.198   7.229  0.0868  0.2541 -0.2766
52031W        W94944   4.148   1.365   6.315  0.0795 -0.0647 -0.0570
52032W        W94945   1.124   9.923   6.398 -0.0860 -0.0313  0.2992
52033W        W94946   7.164  10.103  11.668 -0.0977 -0.1344  0.2834
52034W        W94947   1.115   9.970   3.318  0.0278 -0.3154 -0.1013
52035W        W94948   7.033   8.639   9.446 -0.0781 -0.2260  0.2220
52036W        W94949   2.185  25.481   0.721 -0.1892 -0.0570 -0.1626
52037W        W94950   7.786  33.263  11.158 -0.1201  0.1608  0.2330
52038W        W94951   1.752   1.495   6.396  0.1172 -0.0215  0.1667
52039W        W94952  33.580  15.289   0.202 -0.2710 -0.0977  0.3339
52040W        W94953   3.104  14.303   7.201 -0.4123  0.1799  0.1691
52041W        W94954  28.453  28.582   8.182  0.0141 -0.0737 -0.3020
52042W        W94955   8.202   3.321  10.981 -0.0871 -0.1233  0.2367
52043W        W94956  29.342   5.245   3.344  0.0496 -0.2166  0.0165
52044W        W94957   6.324   7.897  12.507 -0.0277  0.0612 -0.0029
52045W        W94958   9.449   9.182  11.580 -0.2346 -0.0506  0.1251
52046W        W94959  33.567  12.671   9.374 -0.0069 -0.0093 -0.2796
52047W        W94960   2.591  13.128   8.670  0.1950 -0.1524 -0.2382
52048W        W94961  33.941   4.430  10.609 -0.0411  0.1766  0.0969
52049W        W94962   6.205   0.656  12.710 -0.2856 -0.0768 -0.2226
52050W        W94963  33.379   1.127   2.234  0.1152 -0.2556  0.0037
52051W        W94964   1.288  17.892   6.777  0.0219  0.1065  0.0235
52052W        W94965  28.640  28.760   6.660  0.0413  0.0856 -0.2552
52053W        W94966   6.763  32.261   9.014 -0.1621  0.2615  0.0040
52054W        W94967  29.627  34.418   5.218 -0.0369 -0.6583 -0.1802
52055W        W94968   0.318   1.128  10.969  0.0269  0.1206 -0.0437
52056W        W94969   6.068   9.510   6.813  0.0231 -0.0399  0.4497
52057W        W94970   2.792   7.370  11.821 -0.2370 -0.1118  0.2316
52058W        W94971   4.620   3.811  28.588 -0.3777  0.1695  0.0030
52059W        W94972   0.628  10.873   6.997 -0.0984  0.1801  0.1551
52060W        W94973  34.310  25.272   8.894 -0.1737 -0.0066 -0.0330
52061W        W94974   7.487   3.030  11.446 -0.0397  0.1416  0.0299
52062W        W94975  30.638  33.108   4.194 -0.4584  0.4551  0.0516
52063W        W94976   5.043   6.031   2.355 -0.0691  0.1916  0.2147
52064W        W94977   3.599   6.379  12.610 -0.2940  0.2305 -0.0843
52065W        W94978   7.589  15.968  26.099 -0.1153 -0.0277 -0.1654
52066W        W94979   0.928   6.093  12.189 -0.1239 -0.1561 -0.0221
52067W        W94980   4.054   7.091  29.550  0.1738  0.3076  0.1504
52068W        W94981  15.174   4.458   7.041  0.2123  0.4177 -0.1581
52069W        W94982  11.465   3.384  29.222 -0.1670 -0.3325 -0.1661
52070W        W94983   3.278   7.275   8.615  0.1486 -0.1113  0.2291
52071W        W94984   7.891   3.998   9.166  0.1282  0.0630  0.0489
52072W        W94985   1.129   4.478   9.339  0.1558  0.0361 -0.1762
52073W        W94986  30.606  12.556   4.589 -0.1106  0.1444 -0.0800
52074W        W94987   4.407   4.038   9.857 -0.1643  0.0031 -0.1857
52075W        W94988   5.867  10.208   5.709  0.0234  0.1259  0.0088
52076W        W94989  28.623  10.114   5.782 -0.1435 -0.0624 -0.0033
52077W        W94990   0.780   8.039   5.546 -0.0968  0.2963  0.0705
52078W        W94991   3.141  28.164   8.789  0.1251  0.0458 -0.0111
52079W        W94992   3.742   7.826   9.799 -0.1152 -0.2215  0.2472
52080W        W94993  23.817  10.376  27.181  0.1008  0.2557 -0.1428
52081W        W94994  28.240  11.329  23.635  0.0052 -0.0468  0.2665
52082W        W94995   6.807  15.221   3.622 -0.2334 -0.1014 -0.0449
52083W        W94996   9.412  30.053   7.038 -0.2242 -0.1542 -0.1445
52084W        W94997  14.502   8.422   9.933 -0.0368  0.1391 -0.1793
52085W        W94998   0.268  10.175   9.740  0.0707 -0.2171  0.1942
52086W        W94999   1.174   3.540   1.227 -0.1300  0.0391  0.0632
52087W        W95000  27.760   1.358   7.284  0.2448  0.0297  0.2202
52088W        W95001  27.015  14.398   0.315  0.2617  0.0349 -0.2327
52089W        W95002  31.149   4.095  25.695 -0.1644 -0.1597 -0.3206
52090W        W95003   1.364   2.493   9.960 -0.0291 -0.2000  0.0166
52091W        W95004   1.476   8.181   9.688  0.2349  0.2599 -0.1466
52092W        W95005   9.053  32.403   4.223  0.1029  0.1565  0.1337
52093W        W95006   0.514  17.339  29.353 -0.1073  0.2108 -0.1571
52094W        W95007  33.551   2.949  11.248 -0.1126 -0.3449  0.0958
52095W        W95008  11.444  10.826   4.758 -0.1692  0.0529  0.0628
52096W        W95009  10.837  11.112   8.369  0.0755  0.1882  0.0718
52097W        W95010  28.256   7.377  28.235  0.0547 -0.2007  0.3566
52098W        W95011  21.595   9.592   9.580  0.1175 -0.1793  0.0054
52099W        W95012  31.595  33.990  27.922  0.2973 -0.0634 -0.2341
52100W        W95013   8.518   3.542  29.122 -0.1816 -0.3167  0.0017
52101W        W95014  29.855  33.572   8.819 -0.5874 -0.1002  0.0819
52102W        W95015   1.900   3.277   1.341  0.3666 -0.0877  0.1229
52103W        W95016   2.976  13.102   2.522 -0.1242 -0.0395 -0.0775
52104W        W95017  32.340   8.293   9.070  0.3473  0.1020  0.1856
52105W        W95018  31.901  17.445   1.871 -0.1483  0.2503 -0.0433
52106W        W95019  25.072  33.501   9.287  0.3146  0.0272 -0.0902
52107W        W95020   0.318   8.918   8.434  0.2231 -0.5631  0.0905
52108W        W95021   0.548  30.932   8.043  0.0046 -0.2737  0.1288
52109W        W95022   9.370   9.023   7.413  0.2294 -0.1364 -0.0590
52110W        W95023   2.901   8.700   7.722 -0.0544  0.2737  0.0982
52111W        W95024  22.314   4.595   4.069  0.0838 -0.1253  0.0149
52112W        W95025   0.955  30.290   9.265 -0.3325 -0.1179 -0.2888
52113W        W95026  32.517   4.799   4.438 -0.0475 -0.1075 -0.1463
52114W        W95027   7.015  14.367   8.328  0.1532 -0.2683  0.0597
52115W        W95028  34.013  31.012  27.096 -0.1855 -0.0127 -0.0775
52116W        W95029   1.939  10.920   7.081  0.0914  0.0538  0.2426
52117W        W95030   0.114   2.697   5.954 -0.1855 -0.0709 -0.1038
52118W        W95031   3.307  14.166   4.207  0.0799  0.1959 -0.2124
52119W        W95032   1.589   9.655  24.979  0.3993  0.1466  0.0816
52120W        W95033  28.048   9.510   3.649 -0.0248  0.3008  0.3269
52121W        W95034   6.175   4.254   6.289  0.2791  0.1001  0.0663
52122W        W95035   9.051  15.630   2.117  0.1443  0.0190 -0.0135
52123W        W95036  32.589   8.002   3.523 -0.0207 -0.1723  0.3390
52124W        W95037  30.026  12.124   9.501  0.1801  0.0623  0.2073
52125W        W95038   0.957  34.083  10.721  0.0057 -0.2792  0.0379
52126W        W95039   1.644   9.654  10.066  0.1427 -0.1164  0.0470
52127W        W95040  32.621   4.764   8.743  0.0401 -0.4361  0.2873
52128W        W95041  31.463  12.919   1.169 -0.1441 -0.3298 -0.1185
52129W        W95042  34.009   1.046  26.108 -0.2273  0.2088 -0.1231
52130W        W95043  28.607   5.787   4.689  0.1344 -0.0182  0.1170
52131W        W95044  33.625   2.345   6.948  0.0608  0.1831 -0.1786
52132W        W95045   6.387  10.493   6.425 -0.3834 -0.0050  0.1233
52133W        W95046   0.653  30.196   3.932 -0.0958  0.0211 -0.2602
52134W        W95047  31.889   1.594   6.419  0.1717 -0.3310 -0.2099
52135W        W95048   1.031   4.406   9.875  0.2221 -0.2048 -0.1303
52136W        W95049  34.297   9.692   2.643  0.2145 -0.0629  0.2640
52137W        W95050  30.145  10.220   8.028  0.0943  0.1156 -0.0812
52138W        W95051  28.839   2.060   9.304 -0.1269  0.1128  0.1613
52139W        W95052  32.230   8.042   5.071  0.2128  0.3473 -0.1710
52140W        W95053   3.508  14.812   0.899 -0.0607 -0.1713 -0.0686
52141W        W95054   7.750  14.332   7.123 -0.2999  0.2884  0.1167
52142W        W95055  27.911   5.539   4.187  0.0422  0.0829 -0.0943
52143W        W95056   0.469   4.182  26.279  0.1086 -0.2256  0.0846
52144W        W95057  27.339  28.353   7.452 -0.2292  0.2564  0.0158
52145W        W95058   8.372   5.293   4.248 -0.1265  0.0140  0.0135
52146W        W95059   5.393  11.404   2.774 -0.3578 -0.0946  0.1972
52147W        W95060  23.901   8.313   6.571 -0.0821 -0.2483 -0.1940
52148W        W95061   3.370   8.520   9.384 -0.2676  0.2999 -0.0501
52149W        W95062  21.622  16.930  21.239  0.1573 -0.1163 -0.1962
52150W        W95063  31.791   8.723   3.346  0.1570  0.2281 -0.1379
52151W        W95064  29.301   8.555   8.777  0.1698 -0.0697  0.0688
52152W        W95065   3.602  12.487   4.754 -0.1111  0.0692  0.0098
52153W        W95066   2.126   1.883  23.319  0.1155 -0.3882  0.1688
52154W        W95067   3.977   9.766  19.172  0.1693  0.0300 -0.1560
52155W        W95068  30.511   7.121   2.491  0.1526 -0.0244  0.0299
52156W        W95069  27.174  13.160  24.697 -0.1114  0.2809 -0.1894
52157W        W95070  33.358  11.627  22.354  0.1197 -0.1014 -0.2218
52158W        W95071   4.639  11.793   3.871  0.0430 -0.3401 -0.0897
52159W        W95072   1.143   9.813   7.778 -0.0841 -0.1604 -0.3451
52160W        W95073   4.199   3.033  23.290  0.0022  0.0208  0.2505
52161W        W95074   0.569   9.861  24.085 -0.0957 -0.0383  0.1247
52162W        W95075  21.970  17.018   8.286  0.0632 -0.1020  0.3169
52163W        W95076  12.237  16.754  27.069 -0.1119  0.1169 -0.0702
52164W        W95077  24.060  16.742  27.047 -0.1152  0.0561 -0.1370
52165W        W95078  31.704  14.032  27.607 -0.1681 -0.3648  0.1263
52166W        W95079   5.453  23.682   3.022  0.2055  0.1180 -0.2370
52167W        W95080  31.175  24.076   8.983  0.0900  0.1709  0.0749
52168W        W95081  22.235  13.348  23.350 -0.1173  0.4554  0.2229
52169W        W95082   4.688  10.568   9.474 -0.0115 -0.1216 -0.0772
52170W        W95083   5.242  15.861   4.674  0.0336 -0.0296 -0.2122
52171W        W95084   2.968  13.137  26.074  0.1846 -0.1864  0.3562
52172W        W95085  30.284   9.817  27.971  0.0087 -0.0055 -0.0631
52173W        W95086   5.591  14.454  28.997 -0.1303 -0.1395 -0.0652
52174W        W95087  33.200  14.138   6.818 -0.2583 -0.2729  0.1167
52175W        W95088  33.108   7.319  25.361  0.3208  0.2672 -0.2288
52176W        W95089  32.953  33.192  26.077  0.0052 -0.0014  0.5002
52177W        W95090  16.812  16.280   2.008  0.1696 -0.1233  0.0044
52178W        W95091  30.436  14.325  28.249 -0.1409  0.0999 -0.0897
52179W        W95092   0.376  15.839  19.163  0.3170  0.0598  0.1804
52180W        W95093  30.977  14.232   9.394  0.1621 -0.0933 -0.0660
52181W        W95094   0.957   9.135  29.215  0.0283  0.3784  0.0509
52182W        W95095   0.955   6.825  27.221  0.1645 -0.2470  0.1560
52183W        W95096   0.960  11.916  24.446  0.0411 -0.1424 -0.0844
52184W        W95097   2.091   3.588   1.828  0.1962  0.0578  0.2932
52185W        W95098  25.950  13.526  27.138 -0.2821  0.3217  0.0174
52186W        W95099  14.220  12.947   2.857  0.3519 -0.3969 -0.1005
52187W        W95100  31.853  11.725   4.360 -0.0918  0.2795  0.0107
52188W        W95101   9.256  17.617   4.456 -0.0250 -0.0304  0.2275
52189W        W95102   2.928   8.519  29.100  0.0739 -0.1718 -0.4043
52190W        W95103  31.396   6.421  28.273 -0.0941 -0.2159 -0.2036
52191W        W95104  33.139  14.017   6.289 -0.0847  0.3881  0.0164
52192W        W95105  33.741   3.277   0.583 -0.0062  0.1034  0.0210
52193W        W95106  12.078   0.801   3.828 -0.0234 -0.1722 -0.2066
52194W        W95107  33.974  19.073   2.829 -0.2063 -0.0988 -0.0114
52195W        W95108   1.417  13.247  28.732  0.1300  0.0169 -0.1975
52196W        W95109  31.153  10.106  27.106  0.2444  0.1534  0.0439
52197W        W95110   4.872   5.973  12.864 -0.3885  0.0213 -0.1444
52198W        W95111   2.658  19.520  27.392 -0.0348  0.1110  0.2682
52199W        W95112   2.402   7.922   1.627  0.0274  0.2834  0.1227
52200W        W95113  34.388  13.025   1.527 -0.1167 -0.1608  0.2385
52201W        W95114   7.405   9.574   2.355  0.2085  0.2514  0.2311
52202W        W95115  27.495  16.109  28.126  0.0629  0.2350  0.1443
52203W        W95116  31.553  17.678   9.998 -0.0635  0.2255 -0.1839
52204W        W95117   2.091  21.492  28.467 -0.0006 -0.2090  0.0346
52205W        W95118   3.729  16.038  20.231  0.0771 -0.1595 -0.1855
52206W        W95119  13.816  15.640  21.558 -0.1747 -0.3085  0.0595
52207W        W95120  33.824  20.402  23.129  0.0604  0.0234 -0.2058
52208W        W95121  25.668  10.124   3.994 -0.1535  0.0400  0.0623
52209W        W95122   5.134   8.970   9.378  0.0158 -0.2870  0.3158
52210W        W95123  24.476  15.728  26.540 -0.0348  0.0009  0.0650
52211W        W95124  33.639   7.634  24.555 -0.2083 -0.0747  0.1260
52212W        W95125   4.722   1.068   9.181  0.1914 -0.1749  0.0291
52213W        W95126  22.127  17.070   6.848  0.2130 -0.0684 -0.1376
52214W        W95127  24.812  26.548  24.501  0.0607 -0.1674 -0.1695
52215W        W95128   0.603  19.413  29.255 -0.0233 -0.1249  0.3786
52216W        W95129   6.659  10.549   4.942 -0.1458 -0.3971 -0.0527
52217W        W95130  31.452  12.321   0.483 -0.2786  0.1119 -0.0389
52218W        W95131  26.456  12.661  26.575 -0.0555  0.0858 -0.0129
52219W        W95132  30.267   1.622   4.335 -0.1029 -0.1578  0.0493
52220W        W95133   1.005   7.963   9.700  0.1222 -0.2243 -0.0634
52221W        W95134  32.173  15.444   2.873 -0.1445 -0.2919  0.0804
52222W        W95135   2.060   6.298  21.712 -0.1559 -0.1832  0.1992
52223W        W95136   6.493  11.718  25.570  0.3181  0.0855  0.0655
52224W        W95137  34.427   4.165  22.217 -0.1479  0.0708  0.1132
52225W        W95138   4.453   0.358  10.232  0.2371  0.0284 -0.1700
52226W        W95139   4.375   8.713  26.053 -0.0682  0.0296  0.0597
52227W        W95140  27.114   7.802  26.656  0.1150  0.1836  0.1993
52228W        W95141  30.489   1.582   2.751 -0.0967  0.2402  0.0023
52229W        W95142  26.235  11.075  28.574 -0.0997  0.1526 -0.0271
52230W        W95143  10.435  10.048   3.720 -0.1127  0.1416 -0.2126
52231W        W95144   3.448   3.741  28.170 -0.1171  0.3143 -0.1144
52232W        W95145  28.708  15.455   9.095  0.2392 -0.2779 -0.0137
52233W        W95146  27.417  17.495   5.803 -0.2024  0.2702  0.1694
52234W        W95147   0.214  15.183   6.918 -0.0571 -0.1573 -0.1957
52235W        W95148  32.207  11.467  26.406 -0.1236  0.1007 -0.3473
52236W        W95149   4.033   5.020  12.171  0.0143 -0.0385 -0.1246
52237W        W95150  33.304  14.226  17.869  0.3158 -0.3345 -0.4424
52238W        W95151  29.051  16.488  26.260  0.0749  0.0463 -0.1751
52239W        W95152  18.724  10.809   7.649  0.2583 -0.1751 -0.0705
52240W        W95153   6.222  17.672   5.432 -0.2637  0.4351  0.0294
52241W        W95154  22.920  20.717   2.658 -0.0262  0.3531  0.5380
52242W        W95155  31.148   7.296  11.108 -0.0602 -0.3321 -0.3084
52243W        W95156  29.776   9.693  27.592  0.1099  0.5912 -0.1633
52244W        W95157  25.139   3.674  23.722 -0.0198  0.2536  0.1763
52245W        W95158  20.414   8.676  23.720  0.2857  0.0337  0.2126
52246W        W95159  29.475  11.263  29.522  0.3193 -0.3385  0.0301
52247W        W95160  29.116  16.810  29.520  0.0990  0.0624 -0.0549
52248W        W95161  28.930  20.064  25.093  0.0083  0.0884 -0.1217
52249W        W95162  33.171  11.055  23.112 -0.0077 -0.0217  0.2347
52250W        W95163  24.666   8.978   5.489 -0.1255 -0.1781  0.1247
52251W        W95164   1.101  17.689  29.770  0.0079 -0.0835  0.2415
52252W        W95165  32.738   7.528   1.320  0.2963  0.0465 -0.0656
52253W        W95166  30.690  11.055  25.105  0.4046 -0.0367 -0.0805
52254W        W95167  28.420  17.539  29.478 -0.3651 -0.1486 -0.1210
52255W        W95168  31.998   5.562   0.012  0.1343  0.1650 -0.0050
52256W        W95169  30.128   5.625   0.484  0.1236 -0.1166  0.0885
52257W        W95170  14.048   2.183  25.829  0.1632  0.1593 -0.1451
52258W        W95171   1.699   7.001  24.334  0.0174 -0.0882  0.0774
52259W        W95172   0.076  10.806  28.657 -0.2016  0.1807  0.2221
52260W        W95173  33.844   5.117  29.349  0.0705  0.0177  0.1367
52261W        W95174   1.239  13.692   3.276  0.0791 -0.1233  0.2561
52262W        W95175   0.271   5.973   3.071 -0.0673 -0.2177 -0.3579
52263W        W95176  31.865   9.704   0.503 -0.0585  0.0558  0.1052
52264W        W95177  30.198   5.752  10.320  0.1592  0.0907 -0.0513
52265W        W95178   7.443  32.489   2.528 -0.1698  0.1068 -0.3784
52266W        W95179  29.291  21.198  27.406 -0.0458  0.2700  0.0226
52267W        W95180  23.961   8.014  19.698 -0.1115  0.1372  0.1843
52268W        W95181  29.018  10.589   3.987  0.2001 -0.1523  0.0924
52269W        W95182   0.498   1.121  28.581  0.0107 -0.5964 -0.4505
52270W        W95183  30.896  15.331   7.084 -0.0527  0.0632 -0.0743
52271W        W95184  31.007   6.616   3.014 -0.1018 -0.1685 -0.3770
52272W        W95185   5.578   8.194  21.359  0.2745 -0.0023 -0.1527
52273W        W95186   4.513   8.812  25.576 -0.0343  0.0278 -0.0015
52274W        W95187  26.056   8.701   4.328  0.0299 -0.1565  0.0233
52275W        W95188   6.269   5.019   3.940 -0.1729  0.3155 -0.1465
52276W        W95189  33.805   7.116   3.809  0.2212  0.0525  0.2103
52277W        W95190  31.382   3.450   3.464  0.2800  0.0464  0.2815
52278W        W95191   1.186  28.851  24.603  0.1414 -0.2128  0.1283
52279W        W95192  31.302   2.435   0.847  0.1955  0.1396 -0.1983
52280W        W95193  33.731   4.214   8.451 -0.0899  0.0486  0.0560
52281W        W95194   8.653   1.747   9.965  0.0945 -0.3070  0.1526
52282W        W95195  28.038  11.310  26.220  0.3948 -0.2132  0.0535
52283W        W95196  23.779  13.255  20.239 -0.0090  0.2148  0.1420
52284W        W95197  32.490  18.362  25.867  0.2295  0.0539  0.0293
52285W        W95198   6.261  19.532  28.085 -0.0620  0.3859 -0.1993
52286W        W95199   1.534   1.401  11.627 -0.1239  0.3608  0.3033
52287W        W95200  32.903  10.984  17.336 -0.3863 -0.2069  0.4055
52288W        W95201   2.653  20.489  27.829  0.0478  0.2519  0.1548
52289W        W95202  21.226  19.123   6.442 -0.0289 -0.0467 -0.2361
52290W        W95203  34.262  15.214   0.969 -0.1490  0.0966  0.0016
52291W        W95204  29.979  23.590  28.294  0.1773  0.2049  0.0741
52292W        W95205  28.932  15.036  27.119 -0.1616 -0.4745  0.1397
52293W        W95206  28.340  13.385  26.815 -0.0090  0.0276  0.1044
52294W        W95207  25.353  31.406  22.546 -0.1098  0.0509  0.0694
52295W        W95208  32.520  11.467  25.940  0.2176 -0.1435 -0.1042
52296W        W95209  26.447  17.511  28.361 -0.2750 -0.0156  0.2380
52297W        W95210  10.634  15.578   0.745  0.0718  0.0140 -0.1450
52298W        W95211  28.274  14.029  16.348 -0.1315  0.1568 -0.0116
52299W        W95212  27.297   7.317   1.812 -0.2252 -0.0038 -0.1401
52300W        W95213  31.098   8.999  10.824  0.2715  0.2323  0.2311
52301W        W95214  21.265  13.831  22.300  0.0963  0.1428  0.1325
52302W        W95215  22.052  13.598   0.205  0.0757 -0.0851  0.1443
52303W        W95216  26.990  18.646  20.124  0.1288 -0.0974  0.0596
52304W        W95217   1.171   6.026   5.240 -0.0119 -0.1390 -0.1936
52305W        W95218  34.277  10.788   9.816  0.0131 -0.0356 -0.2008
52306W        W95219  24.129  14.593   1.077 -0.2183  0.3906 -0.1046
52307W        W95220   0.681   5.798  29.324 -0.0146  0.0827  0.3305
52308W        W95221  32.541   1.230   0.779 -0.0022 -0.3837  0.0298
52309W        W95222   4.014   9.209   8.435  0.1484  0.0396 -0.1226
52310W        W95223  32.726   9.873  28.899  0.0882 -0.1492  0.1234
52311W        W95224  30.244   0.392   3.339 -0.0240  0.1190  0.1735
52312W        W95225   7.057   3.366  26.195  0.0134  0.0939  0.1065
52313W        W95226  25.438   6.721  28.396 -0.0897 -0.3829  0.0412
52314W        W95227  34.088  15.469   2.182  0.0541  0.2611  0.1076
52315W        W95228  29.373   6.960   9.906  0.0813 -0.2312  0.1842
52316W        W95229  29.964  14.520  28.029 -0.2147  0.2241  0.1746
52317W        W95230  31.619   3.148  20.977 -0.0289  0.0371  0.0299
52318W        W95231   2.696  24.450   3.031  0.0170  0.2524  0.1788
52319W        W95232  22.722   5.106  25.395  0.0064  0.2659  0.1880
52320W        W95233  31.509  15.571   8.844 -0.1306 -0.3179 -0.1310
52321W        W95234  23.782  17.199   3.998 -0.2114 -0.1379  0.1061
52322W        W95235   0.439  15.223  25.514 -0.1242 -0.1945 -0.0041
52323W        W95236  33.517  12.631  25.934 -0.0267  0.3530 -0.0577
52324W        W95237  10.118  31.352  26.173 -0.0848  0.1122 -0.3444
52325W        W95238  26.877  13.103  27.194 -0.0591 -0.0357 -0.0752
52326W        W95239  28.281  10.654   9.664  0.0232 -0.1058 -0.3494
52327W        W95240  12.019  11.702  22.673 -0.0017 -0.0182 -0.1331
52328W        W95241  33.669  12.505   2.302 -0.2142 -0.1265 -0.1218
52329W        W95242   1.236   8.234  29.070  0.0292 -0.0374  0.1116
52330W        W95243  29.477  11.610  25.285  0.2390 -0.0781  0.1576
52331W        W95244   5.623   9.518   0.836 -0.1373 -0.1095  0.1816
52332W        W95245  13.161  10.444   8.077 -0.1565  0.0775  0.0871
52333W        W95246   3.602  17.135   3.234  0.0533 -0.1534 -0.0745
52334W        W95247  33.956  15.863  27.587  0.1368  0.0400 -0.0404
52335W        W95248  29.098   8.293  26.380  0.1126  0.0581  0.4792
52336W        W95249  10.646  10.378  22.841  0.0305  0.0913  0.4175
52337W        W95250  33.100   7.946   4.792  0.2004  0.4377 -0.1256
52338W        W95251   2.069  30.472  24.056 -0.6144  0.2983  0.2976
52339W        W95252  33.769  17.874  29.085 -0.1620  0.1349 -0.1922
52340W        W95253   3.948  32.221   5.544 -0.1815 -0.0350  0.1881
52341W        W95254  27.398   8.959  24.998 -0.1055 -0.1942 -0.3321
52342W        W95255  25.639  11.224  27.002 -0.1796  0.0899 -0.1434
52343W        W95256   6.023  11.740  15.507  0.0426  0.0471  0.1063
52344W        W95257   3.726   8.567  27.248 -0.2472 -0.2588 -0.1163
52345W        W95258  28.566   5.117   9.286 -0.0383  0.2845 -0.0976
52346W        W95259   0.112   5.179  21.242  0.1422  0.4051 -0.0481
52347W        W95260  32.999  15.230  26.023 -0.1795 -0.3018  0.1625
52348W        W95261   5.706   9.709   2.106  0.1142 -0.0104  0.0385
52349W        W95262  29.570   8.374   1.926  0.1692  0.0340  0.0499
52350W        W95263  33.822  18.621  17.041 -0.1186  0.0743  0.2328
52351W        W95264  28.422  18.254  20.724  0.0144 -0.1269  0.1666
52352W        W95265   0.329  11.880  27.195 -0.2970  0.2644  0.3485
52353W        W95266   1.193   1.123  29.295 -0.0853  0.0329  0.1138
52354W        W95267  31.526  20.675   1.350 -0.2774  0.0864  0.0614
52355W        W95268   6.644  17.088  28.741  0.1959  0.1141  0.0495
52356W        W95269  31.109   7.790  27.784 -0.1451  0.0122  0.3567
52357W        W95270  25.779   7.362   3.798  0.2826 -0.0710  0.0333
52358W        W95271  22.584   7.178  25.898 -0.3583  0.2074  0.1347
52359W        W95272   7.311  13.264   5.182 -0.1480 -0.0982  0.2665
52360W        W95273   8.187  12.585   6.964  0.1539 -0.1802 -0.0747
52361W        W95274  32.614   5.152   9.894 -0.1434  0.1841 -0.1301
52362W        W95275  32.613  21.483   2.255 -0.1017  0.1340 -0.0361
52363W        W95276  31.340   8.826   0.902  0.1317  0.0355 -0.2449
52364W        W95277   1.776   8.300   5.928 -0.0855 -0.0831 -0.2420
52365W        W95278   5.092   8.400   4.630 -0.1776 -0.1556 -0.0976
52366W        W95279  26.935   2.697   2.188 -0.1641  0.1223  0.1445
52367W        W95280   2.764   1.939   3.341  0.2932  0.0659  0.2271
52368W        W95281   6.426  22.891  24.537 -0.1456  0.4425 -0.2192
52369W        W95282   0.906  10.952  28.245  0.1622  0.2238 -0.0313
52370W        W95283  27.651  10.261   7.518 -0.2635  0.0539 -0.0660
52371W        W95284  23.509  14.750   1.022 -0.0703 -0.4129  0.1606
52372W        W95285  14.232   5.005  26.829  0.1802  0.2393 -0.1993
52373W        W95286   8.870   3.527   7.666  0.3404 -0.0534 -0.1943
52374W        W95287   2.672  12.452   7.988  0.0793  0.0074 -0.2082
52375W        W95288  29.481  11.426   4.417 -0.0617 -0.0331  0.0533
52376W        W95289   3.739  12.614   0.501 -0.1462 -0.1008  0.1312
52377W        W95290  27.593   4.514   6.827 -0.1506 -0.0077 -0.0288
52378W        W95291  27.686  17.076   1.347  0.0255  0.2751 -0.1069
52379W        W95292  34.338  10.035   9.255 -0.0718  0.2157 -0.0489
52380W        W95293  33.280  18.479   9.135 -0.2719 -0.1534  0.0035
52381W        W95294   2.897   6.128  29.508 -0.0600 -0.2855 -0.0505
52382W        W95295  28.471  12.832   4.884  0.3257 -0.1142  0.0572
52383W        W95296   5.787  15.959   5.405  0.1059 -0.0586  0.1285
52384W        W95297  30.142   9.394   9.625 -0.0245 -0.0295  0.2745
52385W        W95298  22.667   8.908   1.065  0.1029 -0.0554 -0.3720
52386W        W95299  30.719   3.004  20.167 -0.1189  0.1504  0.4136
52387W        W95300  24.740  17.931   8.350 -0.4993 -0.1399  0.3630
52388W        W95301  31.161  20.916  28.452 -0.1779 -0.3213 -0.1291
52389W        W95302  29.291  22.745   5.805 -0.0831 -0.1243 -0.1579
52390W        W95303  24.661   2.794   2.387 -0.1371  0.0649 -0.2113
52391W        W95304  11.542  11.519   7.720 -0.0394  0.0637 -0.1797
52392W        W95305  31.320  31.752   3.888  0.2358  0.1999 -0.1315
52393W        W95306  31.698  10.280   5.452 -0.0127  0.0587  0.0081
52394W        W95307   0.549   5.920   9.374  0.1071  0.0420 -0.1669
52395W        W95308  23.709   3.074  24.547 -0.1673 -0.2609 -0.2737
52396W        W95309   1.744  11.111   7.652 -0.0903  0.0268  0.0120
52397W        W95310  31.411   9.829  10.261 -0.3423  0.2059  0.2881
52398W        W95311   5.477  16.675   4.079 -0.1507 -0.0330  0.0845
52399W        W95312  31.518   8.356   3.046  0.0140  0.0533  0.2528
52400W        W95313  26.442  20.857   0.585 -0.1231  0.1725 -0.2451
52401W        W95314  31.591   7.241   8.671  0.2440  0.4115 -0.2135
52402W        W95315  31.246   2.699  10.925 -0.2130 -0.0350  0.0128
52403W        W95316  33.337  31.266   3.178  0.1755  0.0174  0.0715
52404W        W95317   3.669   8.651  12.159  0.0419  0.0642 -0.0291
52405W        W95318  29.673  15.329   5.782  0.0954  0.0590  0.0813
52406W        W95319  24.709   6.063   9.593  0.0515 -0.3317 -0.0713
52407W        W95320   2.051   5.558   5.769 -0.0654 -0.0470  0.0549
52408W        W95321  32.351   6.833   5.274  0.2042  0.2383 -0.0070
52409W        W95322   4.044   8.577  10.718  0.2206 -0.1574 -0.2965
52410W        W95323   0.097  11.669  24.843  0.0942  0.1392  0.2487
52411W        W95324   9.023  14.992   7.932  0.0369  0.0762 -0.4140
52412W        W95325   1.741   2.610   7.742  0.3559  0.4561 -0.1765
52413W        W95326   7.352  32.762  29.029  0.5581  0.0914  0.0999
52414W        W95327  33.024  19.761   6.878  0.1269 -0.1857  0.1576
52415W        W95328  26.634  11.434  28.654  0.2911  0.0306 -0.1629
52416W        W95329  29.481   8.368   2.419 -0.1109 -0.1096  0.0555
52417W        W95330  32.316  31.702   4.923 -0.1005 -0.2570 -0.1923
52418W        W95331  27.191   3.604   2.473  0.1061 -0.2335 -0.0144
52419W        W95332  28.492   4.682   6.100 -0.2514 -0.0851 -0.0098
52420W        W95333   6.309  23.695   8.351 -0.0954 -0.1230 -0.2725
52421W        W95334   0.338   6.565   4.905  0.0329  0.0532 -0.1420
52422W        W95335   4.772   4.679   9.406 -0.2681  0.1072 -0.0713
52423W        W95336   7.049   4.499   9.942 -0.0173  0.2897  0.1343
52424W        W95337  32.202   8.167   7.240 -0.0399  0.0618 -0.0029
52425W        W95338   9.499  10.281   6.105 -0.0702 -0.0410  0.0781
52426W        W95339   1.131  24.189   2.111 -0.1408  0.0455  0.1465
52427W        W95340  25.350  22.257   0.322  0.2368  0.3109  0.1269
52428W        W95341   3.247  15.903  29.632 -0.0018 -0.0229 -0.1215
52429W        W95342  29.461  18.309  29.271  0.2650  0.2851 -0.0564
52430W        W95343  22.666   0.846   7.835 -0.0937  0.1413  0.0233
52431W        W95344   8.901   3.915   8.197  0.1870  0.0776  0.0151
52432W        W95345   2.908  14.857   7.943 -0.2804 -0.0697 -0.1074
52433W        W95346  28.167   6.943  29.423  0.3539 -0.1642 -0.1074
52434W        W95347   6.676   4.563   6.401  0.2293  0.0453 -0.0340
52435W        W95348  31.327   3.921   4.608 -0.0607 -0.0096  0.4232
52436W        W95349  11.226  13.890   1.701 -0.0896  0.1693 -0.0181
52437W        W95350  28.413   4.406  10.062 -0.2323  0.1120 -0.0783
52438W        W95351  28.936  11.580  28.786  0.0564  0.1064 -0.1095
52439W        W95352  30.556  15.205  27.366  0.3449 -0.0129 -0.1116
52440W        W95353   5.028   1.038   8.779 -0.3583 -0.2412 -0.0371
52441W        W95354  11.325   4.288   5.122 -0.0331  0.2042 -0.2208
52442W        W95355  22.769  16.194   5.430 -0.1366  0.0687 -0.1006
52443W        W95356   8.346  20.477   3.721 -0.2320 -0.1804 -0.0098
52444W        W95357  23.250  11.768   9.114  0.0682 -0.2591  0.2203
52445W        W95358   1.463  18.715   2.715  0.2558  0.2906 -0.1203
52446W        W95359   1.891  17.590  28.871  0.1795  0.1188 -0.2349
52447W        W95360  33.364   9.079  28.552 -0.0239 -0.4297 -0.2309
52448W        W95361  34.112   9.422   8.755 -0.3400 -0.0666 -0.1501
52449W        W95362  25.708  20.858   1.394 -0.3183  0.1724  0.0052
52450W        W95363  23.286  11.904   0.398  0.0376  0.3343 -0.1277
52451W        W95364  34.218  12.075  29.436  0.0176  0.2681  0.0899
52452W        W95365  31.660  15.987   5.469 -0.0072  0.0236  0.0605
52453W        W95366   9.937   0.787  11.363  0.1538 -0.0859  0.0623
52454W        W95367  33.497   3.033   6.784  0.2471 -0.1270  0.1504
52455W        W95368  32.411  15.878  26.472  0.2402  0.2008  0.1721
52456W        W95369   3.782  17.563   5.128 -0.0113 -0.1294  0.0884
52457W        W95370  30.430  17.518   7.205  0.1374 -0.0622  0.0446
52458W        W95371  33.220  13.760  28.846  0.0381  0.1406 -0.1127
52459W        W95372  32.844  27.379   6.118 -0.1622  0.0856 -0.0949
52460W        W95373   2.335   8.105   5.176  0.1646  0.0519 -0.0447
52461W        W95374  25.305  19.646   7.737 -0.2938 -0.0844  0.2133
52462W        W95375   1.668  16.282  19.721  0.1329 -0.0204  0.2957
52463W        W95376  30.613  31.137   6.187  0.2500 -0.4459 -0.3598
52464W        W95377   2.736   9.229   3.338  0.0111 -0.2623 -0.1986
52465W        W95378  33.873  10.566   9.759 -0.0224 -0.2392 -0.1734
52466W        W95379  27.119  22.445  29.573  0.3318  0.0068  0.1491
52467W        W95380   9.735   4.315   0.701 -0.1622 -0.3796 -0.2065
52468W        W95381  34.036   4.901  12.001  0.0402  0.2325  0.2267
52469W        W95382  20.429   8.384   3.427  0.0097 -0.1303  0.5108
52470W        W95383  24.091  14.861  23.074 -0.0576  0.1953  0.4220
52471W        W95384   1.218  15.167  27.351  0.1340 -0.1759  0.2112
52472W        W95385   7.766   5.459  11.743  0.0645  0.2437 -0.2910
52473W        W95386   3.912  33.283   5.412 -0.1938  0.0354 -0.1527
52474W        W95387  19.327   1.789   6.713 -0.3557  0.0215  0.1007
52475W        W95388   7.844   0.286  10.841 -0.0869  0.0857  0.0539
52476W        W95389  33.895  19.284   9.214  0.2870  0.0236  0.1741
52477W        W95390  31.842  11.531  26.699 -0.1184 -0.0073 -0.0916
52478W        W95391  14.772   3.098   6.898  0.0840  0.2243  0.1414
52479W        W95392  10.775  13.771   6.324 -0.4311  0.0330 -0.1459
52480W        W95393   1.733   1.034   7.067  0.0365 -0.0426 -0.8205
52481W        W95394  29.891  14.317   3.096  0.0480  0.5172  0.1698
52482W        W95395  33.203   8.000   6.418 -0.4028  0.0055  0.0870
52483W        W95396   5.179  11.488   5.098 -0.1662  0.0783 -0.2259
52484W        W95397   7.686   5.422   5.035 -0.0182 -0.0569  0.3405
52485W        W95398   5.679   4.952   1.910  0.2563  0.3164  0.1024
52486W        W95399  31.457   6.502   7.472  0.1494  0.1179 -0.3228
52487W        W95400  30.496  14.867   3.166  0.2905 -0.1013  0.2415
52488W        W95401  27.949  22.290  28.669 -0.3366 -0.1740  0.2747
52489W        W95402   0.827  12.746   5.704  0.0484 -0.2388  0.0071
52490W        W95403  30.287  16.042   5.901  0.4932 -0.0848 -0.3581
52491W        W95404  32.111   9.070  25.398  0.3063  0.1683  0.3063
52492W        W95405  31.066  17.560   0.237 -0.2220  0.2253  0.0596
52493W        W95406   0.181   9.013   4.763 -0.0225 -0.0386  0.0268
52494W        W95407  32.679  11.225   3.003  0.1666 -0.2070  0.5599
52495W        W95408   8.701  33.271   8.519  0.2502  0.2397 -0.0615
52496W        W95409  30.582   4.928   8.777 -0.2119  0.0936  0.0901
52497W        W95410   1.982   8.622   6.378 -0.1170 -0.0607  0.2124
52498W        W95411  30.990   6.035  28.047 -0.1174  0.0573 -0.0328
52499W        W95412   2.991   6.915  22.649  0.2253 -0.0816  0.3208
52500W        W95413  30.511  16.099  17.086  0.2336  0.0414  0.0999
52501W        W95414  31.221  18.680   7.771  0.0532  0.0506 -0.0277
52502W        W95415   5.787  14.559   4.992  0.1085  0.0971  0.0617
52503W        W95416   0.755  13.886  26.143 -0.1390 -0.1773  0.3727
52504W        W95417  31.443  16.221   8.179 -0.0534  0.3695 -0.2947
52505W        W95418   6.869   8.458   4.584  0.0483 -0.1267  0.0565
52506W        W95419   6.565  13.983   1.105 -0.1333  0.1506 -0.0289
52507W        W95420  26.289  17.105   1.181  0.2573  0.1897 -0.2989
52508W        W95421  34.099  16.518   7.666  0.1234  0.2729  0.2333
52509W        W95422   6.233  12.327   7.849 -0.1278 -0.0870  0.1105
52510W        W95423   3.806  13.725  24.880 -0.0958  0.0860 -0.3090
52511W        W95424  29.920   8.037   8.550  0.2341 -0.0375  0.0623
52512W        W95425   8.641   9.369   8.657 -0.3308 -0.2327 -0.1517
52513W        W95426   7.023  12.468   3.589  0.1263 -0.0919  0.0872
52514W        W95427  32.384   3.283   9.076 -0.1230  0.0956 -0.1397
52515W        W95428  34.333  16.078   5.715  0.2194 -0.0237 -0.1657
52516W        W95429  16.323  14.794   7.088 -0.2407  0.0051  0.0274
52517W        W95430  33.171  11.114  28.243 -0.0090  0.0528  0.3925
52518W        W95431  31.992   3.028   2.809 -0.1720  0.3215  0.0887
52519W        W95432   1.192  14.485  29.306  0.0633  0.1048  0.2528
52520W        W95433  34.439  16.697  27.270  0.3778  0.0650 -0.0828
52521W        W95434  30.835  15.820   0.663  0.1255 -0.3658  0.1065
52522W        W95435   7.167  19.672   9.053 -0.1642 -0.0143  0.4644
52523W        W95436   0.434  15.410  26.311 -0.1097  0.0270 -0.1487
52524W        W95437   3.419   6.025   6.500  0.0721 -0.2468  0.1305
52525W        W95438  31.163  16.837   1.745  0.3807 -0.0852  0.0119
52526W        W95439   4.494   9.502   0.401  0.0038  0.3426  0.2482
52527W        W95440  28.408   1.318   5.599  0.0681  0.2167 -0.3534
52528W        W95441  20.500   3.936   0.986  0.0040  0.1490  0.0959
52529W        W95442   1.878  12.183  10.869  0.1533  0.0652 -0.1454
52530W        W95443   1.611  15.203   5.157 -0.0052 -0.1661 -0.0155
52531W        W95444  10.242   8.330   2.917 -0.1440  0.0156  0.1356
52532W        W95445   4.926  15.583   4.235 -0.0028 -0.1915  0.1031
52533W        W95446   7.267   7.613  11.973  0.0175  0.2556  0.0475
52534W        W95447   5.193  11.520  11.137  0.2862 -0.0869  0.0547
52535W        W95448  10.638  17.139  24.333  0.2105 -0.0265  0.0414
52536W        W95449   5.160   4.669   1.516 -0.1914  0.2721 -0.2273
52537W        W95450  10.432   3.996  27.299  0.1513 -0.0496 -0.1331
52538W        W95451   1.227   7.696   3.377 -0.0540  0.3479 -0.2828
52539W        W95452  28.504  10.386  25.179 -0.0238 -0.1234  0.1869
52540W        W95453   1.700  16.222   1.190 -0.2501  0.2278  0.1426
52541W        W95454   5.692   8.326   6.151  0.1721 -0.1907 -0.1104
52542W        W95455   7.000  19.310   3.378  0.0375 -0.0169  0.0755
52543W        W95456   3.392   9.480   1.608  0.2005  0.2168 -0.2805
52544W        W95457  30.212   8.707  27.614 -0.4029  0.1597 -0.0119
52545W        W95458   6.864   0.803  22.581 -0.0320  0.0785 -0.0721
52546W        W95459   6.191  16.305   4.567 -0.0300  0.6085  0.0322
52547W        W95460  24.363  29.080   0.417  0.1263  0.0486  0.1481
52548W        W95461  32.637  22.722   7.370 -0.1375 -0.3273 -0.0409
52549W        W95462  32.548   1.118   2.757  0.4501  0.0758 -0.1987
52550W        W95463  30.126   4.982   2.578  0.3614 -0.0387  0.5014
52551W        W95464  32.311  13.486   5.156 -0.0223  0.2724  0.3423
52552W        W95465   3.704   6.531   3.410 -0.1155 -0.1116  0.1265
52553W        W95466  26.955  15.223   6.450 -0.1562 -0.0509 -0.1557
52554W        W95467  29.624   5.635   4.214  0.1991  0.0799 -0.1352
52555W        W95468  34.160  14.520  27.711  0.0325  0.0467  0.0666
52556W        W95469  20.847   4.658   9.411  0.1066 -0.2004 -0.0964
52557W        W95470   0.915  10.988  16.991 -0.0466 -0.1050  0.0336
52558W        W95471  29.429   8.769  26.534  0.0068  0.0954  0.0551
52559W        W95472  19.056   6.226   2.500 -0.1157  0.0143 -0.4013
52560W        W95473  28.973  11.407   6.642 -0.0623 -0.0764 -0.1543
52561W        W95474  28.260  33.039   7.419  0.1951 -0.1505  0.2139
52562W        W95475  27.503  34.080   0.543  0.0686 -0.0704 -0.2253
52563W        W95476   6.662   8.820   5.616 -0.0706 -0.2956  0.0550
52564W        W95477   1.150  22.473   8.705 -0.1560 -0.1246 -0.2395
52565W        W95478   3.725   6.439  11.026 -0.3347 -0.3324 -0.0465
52566W        W95479   0.899   6.658  22.046  0.0526 -0.0556 -0.1600
52567W        W95480   3.669  10.325   9.048 -0.3554 -0.2072  0.3010
52568W        W95481  10.623   2.683   1.255 -0.0765 -0.1703  0.0846
52569W        W95482   6.721  15.908   6.896 -0.0446 -0.3137  0.1933
52570W        W95483   0.403   7.335   9.063 -0.1157  0.2221 -0.3589
52571W        W95484  30.491   2.130   4.461  0.1222  0.0026 -0.0882
52572W        W95485  15.394   7.360  25.087 -0.0681  0.0390  0.0814
52573W        W95486  24.409  13.798   1.703 -0.0278  0.2808  0.0332
52574W        W95487  25.902  13.976   9.044  0.0525  0.2058 -0.2202
52575W        W95488   3.964  13.013   9.562  0.1589 -0.0254  0.3027
52576W        W95489  31.197  10.160   9.193  0.0499 -0.2258 -0.0287
52577W        W95490  31.604   8.875  10.499 -0.0394  0.0798  0.1352
52578W        W95491   6.573   8.371   3.158 -0.1284 -0.0072  0.1080
52579W        W95492  33.346   4.025  11.457  0.2825  0.0489 -0.1273
52580W        W95493  25.097  14.765   6.637  0.1623  0.0543 -0.0750
52581W        W95494   5.050  10.392   6.147 -0.1177 -0.1736  0.0840
52582W        W95495  18.079   9.352  26.055  0.2068 -0.1257 -0.3566
52583W        W95496   0.806   1.070   0.683  0.4201 -0.2145 -0.0612
52584W        W95497  31.730   3.316  10.093  0.2444 -0.0873 -0.1649
52585W        W95498  27.741  24.371  29.162 -0.0018  0.0147 -0.0953
52586W        W95499  24.677  13.772   3.793 -0.0204 -0.1452  0.1475
52587W        W95500  29.269  21.250   0.645 -0.0373  0.1081  0.1398
52588W        W95501  13.180   7.613   2.715 -0.2400 -0.1008 -0.0425
52589W        W95502  29.840  13.718   7.307  0.2449  0.0681  0.2168
52590W        W95503  29.200   3.383   0.729 -0.3449  0.1637  0.1955
52591W        W95504  20.121   9.796  25.351  0.0888  0.0246  0.2318
52592W        W95505  26.761  10.130   4.068 -0.0091 -0.1564  0.0776
52593W        W95506   4.724   8.630  18.704  0.2630  0.1220 -0.5142
52594W        W95507  34.239   9.938   7.105  0.1687 -0.0688  0.1294
52595W        W95508   1.747   9.680   3.056  0.4010  0.0852  0.3998
52596W        W95509   1.940   9.942   9.269 -0.2061  0.2655 -0.3476
52597W        W95510   0.947   4.710  12.626 -0.0634 -0.0848  0.2445
52598W        W95511  33.093  17.033   6.072  0.0959  0.1575  0.0646
52599W        W95512  29.970  14.823   7.994 -0.0019 -0.1124  0.0586
52600W        W95513  26.967   6.573   6.223  0.0648 -0.1557  0.1825
52601W        W95514  29.935  14.737   0.585 -0.1934  0.2522  0.1229
52602W        W95515  32.631  14.001   6.437 -0.2537 -0.0775  0.0747
52603W        W95516  27.014  13.032   2.458  0.0284 -0.2350 -0.1388
52604W        W95517   4.483  11.350   8.580  0.3358 -0.0915  0.0218
52605W        W95518   9.805   3.793   9.354 -0.2232  0.2355  0.1973
52606W        W95519   2.884   6.171  11.603  0.5038 -0.0832  0.2638
52607W        W95520  33.758   2.501  11.845  0.2800 -0.0617 -0.1583
52608W        W95521   2.018  21.409   9.619  0.2009 -0.2009 -0.0793
52609W        W95522   3.098  33.396   9.853  0.0176 -0.2574  0.0119
52610W        W95523   7.002  13.018   9.857  0.0552  0.2843  0.3641
52611W        W95524   6.047  14.989   9.925 -0.0483  0.1720  0.3355
52612W        W95525   6.065  12.771   4.451 -0.3013  0.0148  0.1457
52613W        W95526  13.387  18.266   3.841 -0.2037  0.3963 -0.1570
52614W        W95527  31.863  11.604   5.218  0.1611  0.0648 -0.2743
52615W        W95528  26.186  12.949   2.198  0.0124  0.3054 -0.1094
52616W        W95529   3.724   9.657   8.700 -0.0559 -0.0300  0.0901
52617W        W95530  26.121   7.954   6.171 -0.1841 -0.1806 -0.1898
52618W        W95531  28.762   4.307   6.278 -0.1522  0.0281  0.0354
52619W        W95532   4.277   6.773   7.523 -0.0963 -0.1535  0.0599
52620W        W95533  31.868  12.587   0.372  0.0956  0.3314  0.1917
52621W        W95534  33.315  11.576   5.457  0.0648 -0.1671 -0.0571
52622W        W95535   6.757   2.994  13.067  0.0149  0.1339 -0.1353
52623W        W95536  33.939  13.713   4.038 -0.0022 -0.4326  0.2506
52624W        W95537   0.549  34.335   9.890 -0.2275 -0.1732 -0.3246
52625W        W95538   3.751  20.275   9.298  0.0088 -0.0800 -0.2561
52626W        W95539  22.529  25.826  27.675  0.0814 -0.1035  0.0939
52627W        W95540  31.220   2.462   6.399  0.2674 -0.2647  0.2241
52628W        W95541   5.576  13.860   8.196 -0.1046 -0.0595  0.0269
52629W        W95542  27.264  29.204  23.312  0.1219  0.1831 -0.0169
52630W        W95543  32.616  10.604   6.425 -0.0624 -0.0417 -0.2210
52631W        W95544   0.287   8.188   1.758 -0.1923  0.2837  0.0891
52632W        W95545  24.562  12.262  26.137 -0.0183 -0.1648 -0.1356
52633W        W95546  18.135   9.192   8.952 -0.0036 -0.2922  0.0377
52634W        W95547   2.881   7.844   7.041  0.1160 -0.2637 -0.1305
52635W        W95548  31.228  17.763  24.235 -0.1832  0.2211 -0.0459
52636W        W95549  31.960  14.781   6.514 -0.2746 -0.3272  0.1172
52637W        W95550   5.904  13.038   9.405  0.1034 -0.4563 -0.2377
52638W        W95551  29.494  33.335   0.685  0.4503 -0.1586 -0.0742
52639W        W95552  32.151  10.494   6.215  0.1570  0.2701 -0.1977
52640W        W95553   3.049   8.581   8.161  0.2832  0.1179  0.0370
52641W        W95554  20.744  10.394   9.254  0.2276  0.1461  0.1503
52642W        W95555   5.441   4.222   8.322  0.3575  0.1006 -0.2409
52643W        W95556   9.020   7.543  10.098 -0.0661  0.0454  0.1552
52644W        W95557   1.723  14.867   8.199  0.0519  0.0575 -0.0266
52645W        W95558  34.285   2.756   7.403 -0.1675 -0.0120 -0.0392
52646W        W95559   2.430  11.831   5.242 -0.0099 -0.0527 -0.4300
52647W        W95560   2.976  12.291   8.400  0.2783  0.4248 -0.0358
52648W        W95561   4.628  17.518   9.321  0.1966  0.0994 -0.3662
52649W        W95562   3.780  16.933   7.863  0.0344 -0.1106  0.0331
52650W        W95563   0.586   2.327   4.724  0.2244  0.1452  0.3194
52651W        W95564   5.730   3.188  12.491  0.1601 -0.0564 -0.2092
52652W        W95565   8.951   6.765   7.892 -0.3596  0.1634  0.1809
52653W        W95566  23.642   9.240   3.054 -0.0448 -0.1689  0.0672
52654W        W95567  33.068   4.159   3.915  0.1219 -0.0499  0.0095
52655W        W95568  32.990   5.153  10.235 -0.0371 -0.1681 -0.2333
52656W        W95569   2.150   8.389   8.106 -0.3966  0.0382 -0.1787
52657W        W95570  22.768  14.282   4.184 -0.2296  0.0156 -0.0259
52658W        W95571  33.747   6.737   6.480 -0.0426  0.0969  0.1996
52659W        W95572  25.218   7.032   2.461 -0.1308  0.1639 -0.3024
52660W        W95573   7.772  30.728  11.897  0.0640  0.2584 -0.0355
52661W        W95574   3.350   3.412  11.695  0.1274  0.1828  0.1282
52662W        W95575  31.513  11.114   5.875 -0.1681 -0.0726  0.2231
52663W        W95576  32.272  10.341   6.687  0.1555 -0.1711  0.0802
52664W        W95577  25.063   2.791  23.159  0.0922  0.1593 -0.2416
52665W        W95578   8.108  17.398   5.376  0.3565  0.2796 -0.1354
52666W        W95579  30.637   1.997   1.164  0.0322  0.0070 -0.1349
52667W        W95580   1.805  32.147   1.984 -0.5881 -0.4136  0.4337
52668W        W95581  32.344   5.946  28.035  0.0041  0.0785 -0.0669
52669W        W95582  10.232  18.473   8.365  0.1668 -0.0604 -0.1750
52670W        W95583  28.276  16.468   6.114  0.0640 -0.0950 -0.2477
52671W        W95584  26.722  11.407   1.506  0.0947 -0.2239 -0.0547
52672W        W95585  26.509   8.786   4.363 -0.1335 -0.0725  0.0412
52673W        W95586   3.545  15.114   9.456  0.1188 -0.1068  0.0127
52674W        W95587  33.569   2.672  12.557 -0.3399  0.0726  0.1289
52675W        W95588  23.183  13.673  27.977 -0.0030 -0.1394  0.1152
52676W        W95589  32.090  18.390   9.216 -0.1008 -0.1495  0.0462
52677W        W95590  30.905  12.115  23.780  0.1589 -0.1289  0.2274
52678W        W95591  11.387  30.661  10.056  0.6109 -0.0718 -0.1243
52679W        W95592  32.441   5.500   5.676 -0.1248 -0.0940 -0.1422
52680W        W95593  13.585   8.448   8.379  0.3324  0.1902 -0.1824
52681W        W95594  33.595  14.398   9.483  0.0310 -0.1316 -0.0849
52682W        W95595  34.105   7.189  10.716  0.4277 -0.1199  0.0692
52683W        W95596  30.042  12.342   8.548 -0.0049 -0.3913  0.0790
52684W        W95597  27.540   8.460   2.349  0.1094 -0.1355  0.0571
52685W        W95598   3.731   9.734   6.245 -0.2036  0.2636  0.1154
52686W        W95599   1.277   1.839  10.664 -0.1652  0.0238 -0.1794
52687W        W95600  10.436   4.536   4.354  0.0346 -0.1276  0.4043
52688W        W95601   1.080   6.883   2.215  0.3881  0.3464  0.0453
52689W        W95602   0.560   6.499  10.286  0.2268 -0.3250 -0.0952
52690W        W95603   8.180  12.206   6.552  0.2360  0.0460  0.0748
52691W        W95604  26.283  16.540   0.578  0.0237 -0.1516 -0.0735
52692W        W95605   2.196   5.269  25.820  0.1553 -0.1717 -0.1922
52693W        W95606   9.228  13.442   9.488  0.0727  0.0691 -0.0517
52694W        W95607  11.686  19.065   7.494  0.0420  0.1791 -0.0256
52695W        W95608  31.538   3.022   6.189 -0.4308 -0.0494 -0.0060
52696W        W95609   1.598   7.912  29.333  0.1605 -0.0691 -0.0262
52697W        W95610  31.005   8.317   9.700 -0.0764 -0.1863  0.0371
52698W        W95611   9.428   5.587   7.928 -0.1861  0.1088 -0.0100
52699W        W95612  33.226   9.368   9.150  0.1384 -0.0857  0.1462
52700W        W95613  32.477   9.794  10.593  0.0541  0.1815  0.0932
52701W        W95614  32.438  15.705   7.562  0.0997 -0.1261  0.1152
52702W        W95615   4.755   8.745   6.332 -0.4287  0.0666 -0.0989
52703W        W95616   0.543   2.547  28.445  0.0723  0.1599  0.0022
52704W        W95617  10.747   4.998  11.813 -0.3106 -0.1992 -0.0684
52705W        W95618   5.653  34.356  11.587  0.0586 -0.0256 -0.2353
52706W        W95619  29.491  20.104   7.779 -0.0552 -0.3357  0.2043
52707W        W95620   4.196   5.280  11.108 -0.1132  0.0639 -0.2721
52708W        W95621  32.772   6.277   0.804 -0.0664  0.0220 -0.1639
52709W        W95622   3.619  10.777   9.376 -0.1393  0.0903 -0.0046
52710W        W95623  18.033  19.563   0.426  0.3888  0.0667  0.0522
52711W        W95624  30.382  14.303   2.920 -0.2458  0.1071 -0.4494
52712W        W95625  26.373   2.758   5.377  0.2955  0.1883  0.0027
52713W        W95626   2.583   5.611   3.179 -0.0421 -0.2186  0.1883
52714W        W95627  32.161   9.109   1.621  0.2180 -0.0169 -0.0772
52715W        W95628  11.945  13.818   4.864 -0.0574  0.0116 -0.0478
52716W        W95629  31.303  33.297  10.122  0.1067  0.0365 -0.2231
52717W        W95630  21.073   4.733   0.232  0.0100  0.0897 -0.0481
52718W        W95631  34.367   2.461  10.002 -0.2088  0.3412  0.0264
52719W        W95632  31.914  30.464   7.969  0.0610  0.0350  0.0017
52720W        W95633   1.550  12.955  10.455  0.0854 -0.0740 -0.0241
52721W        W95634  30.752   7.514   9.637  0.1344 -0.1391 -0.3132
52722W        W95635   5.127  11.020  28.269  0.2154 -0.1998 -0.2008
52723W        W95636  28.181  13.564  28.385  0.1617  0.0102 -0.1185
52724W        W95637  34.293  33.461   2.392 -0.0943 -0.0685  0.1377
52725W        W95638   4.241   5.574   4.900 -0.0449  0.1222  0.2999
52726W        W95639   1.628  34.077   9.031  0.1391 -0.1984 -0.1469
52727W        W95640  34.065   8.957   4.473 -0.0912 -0.0507 -0.4254
52728W        W95641   2.581   4.590  12.942 -0.0582  0.1400 -0.0051
52729W        W95642  24.857  14.450  26.731 -0.0607 -0.0243  0.1398
52730W        W95643   0.964  12.684   5.211  0.1543  0.0830 -0.2167
52731W        W95644   7.714   3.835  11.387  0.3420 -0.0191 -0.1949
52732W        W95645   1.950   9.319   5.832 -0.0206  0.0140  0.0241
52733W        W95646   1.639   3.265  10.944  0.1105 -0.0758 -0.0927
52734W        W95647  28.462   8.079   7.559 -0.0052  0.1809 -0.0186
52735W        W95648   7.752  13.290  18.957 -0.1307 -0.1009  0.3336
52736W        W95649   5.263  10.638   2.365 -0.0119  0.4466 -0.0527
52737W        W95650   4.779  19.529   2.479 -0.0540  0.0232 -0.3443
52738W        W95651   3.604  18.266   9.838  0.3279 -0.2269 -0.0597
52739W        W95652  32.123  19.226   6.729 -0.1711 -0.1174 -0.1714
52740W        W95653  24.992  13.771   5.090 -0.3269 -0.2104 -0.2238
52741W        W95654  18.594  13.679   6.935 -0.1926 -0.1382 -0.1943
52742W        W95655   3.397  17.236   7.981 -0.0878  0.4024 -0.0204
52743W        W95656   2.070   1.438   5.738 -0.1164 -0.0881 -0.2418
52744W        W95657  20.985  12.827   0.653  0.2199 -0.1019 -0.2701
52745W        W95658  29.039  12.078   1.650 -0.2092  0.0693  0.0627
52746W        W95659  28.131   8.973  27.420 -0.3814 -0.0187  0.0405
52747W        W95660  26.092  11.374  27.296 -0.1062  0.0471  0.1818
52748W        W95661   0.452   7.239   4.501 -0.2409  0.1573  0.0921
52749W        W95662   0.071  10.555  18.223  0.1358 -0.1175 -0.2378
52750W        W95663   3.600   8.438   2.538  0.2778  0.1107  0.0151
52751W        W95664  32.179  10.767   8.266  0.1500  0.3462 -0.1395
52752W        W95665   2.689   7.129   2.770  0.0962  0.1247 -0.2937
52753W        W95666   3.502  15.540   7.502 -0.1430 -0.0731  0.1565
52754W        W95667  28.934  15.167   1.173  0.2161  0.5142 -0.1757
52755W        W95668   7.568   6.501  28.819 -0.0219 -0.3812 -0.2201
52756W        W95669   4.828   5.198  12.275 -0.1631 -0.0766  0.2131
52757W        W95670   3.670   5.853   1.238  0.0936 -0.1029  0.0416
52758W        W95671   2.438   2.364   2.360  0.0865 -0.0519  0.3525
52759W        W95672   0.417   2.284  13.797 -0.0612  0.1509 -0.1948
52760W        W95673   1.078   9.113   3.377  0.1516 -0.2295  0.0750
52761W        W95674   0.830   9.499   6.515  0.0138 -0.1593  0.2760
52762W        W95675  23.846   1.600  15.063 -0.2338  0.1384  0.1365
52763W        W95676   0.457  13.172  26.922 -0.1617 -0.1762 -0.1156
52764W        W95677   3.994   0.356  13.105 -0.0265  0.0980  0.1717
52765W        W95678  29.785  19.194   1.960 -0.1550  0.4454  0.1212
52766W        W95679  34.171  16.478  25.430  0.2373 -0.1760 -0.3855
52767W        W95680  34.164  20.394  24.826  0.0971  0.0324 -0.2072
52768W        W95681   4.814  10.016   2.595 -0.0954 -0.1788 -0.2217
52769W        W95682  31.365   8.872  26.120  0.0427  0.2361  0.1776
52770W        W95683  34.459   2.978  21.941  0.0111  0.0902 -0.1795
52771W        W95684   6.072  14.688  29.539 -0.0099  0.0128  0.0368
52772W        W95685  32.051   6.049   3.482 -0.0319  0.3634 -0.0640
52773W        W95686   1.621   1.217  25.109 -0.5454 -0.3517  0.0487
52774W        W95687  14.205   2.937  27.404 -0.2283  0.1121 -0.0281
52775W        W95688  29.844  20.302   5.416 -0.2038  0.2059 -0.2352
52776W        W95689  23.608  32.240   0.237  0.0156 -0.0204 -0.2190
52777W        W95690  25.001   0.420   6.063  0.0719 -0.1431  0.2013
52778W        W95691  33.833  23.718  27.817 -0.0637  0.1829  0.1436
52779W        W95692  17.377  13.323  18.131 -0.1582  0.2382  0.1794
52780W        W95693  22.532   4.121   2.963  0.2363  0.1935 -0.1217
52781W        W95694  32.737   9.970   6.848  0.2028 -0.0489  0.2949
52782W        W95695   0.353  22.700   6.525  0.3279 -0.2724  0.0054
52783W        W95696  28.866   5.503   6.241  0.1660 -0.1848  0.1910
52784W        W95697  33.992   9.744  10.256  0.1322  0.4310  0.2428
52785W        W95698   3.308   9.600   4.144 -0.0161  0.0134  0.1533
52786W        W95699   1.015  14.654   3.418 -0.1365 -0.0471 -0.0212
52787W        W95700  28.396  26.548   1.261  0.1199  0.0189 -0.1085
52788W        W95701   4.326   8.637   9.423  0.1334  0.1090  0.1973
52789W        W95702  23.491  15.905  27.097 -0.0914  0.0680 -0.0814
52790W        W95703  22.949  21.522   7.322 -0.1150 -0.1328  0.1325
52791W        W95704  25.951  16.827   5.958  0.0568 -0.1962 -0.1467
52792W        W95705  32.186  17.484   6.441  0.1109 -0.1448 -0.0172
52793W        W95706  30.584  11.901   0.827 -0.0884  0.0291  0.1583
52794W        W95707  31.730  16.747   4.850  0.3533 -0.1727 -0.2459
52795W        W95708   3.749   6.334  27.901 -0.2805  0.0023 -0.0298
52796W        W95709  33.495  13.689   4.742  0.0449 -0.0311 -0.2389
52797W        W95710   6.576  11.413  26.995 -0.3398 -0.1744 -0.0021
52798W        W95711  24.229   8.272  29.107  0.0076  0.1948  0.3006
52799W        W95712   1.039  16.256  24.243 -0.0730 -0.1594 -0.1538
52800W        W95713   6.410  13.326   1.862 -0.4334  0.1695 -0.0286
52801W        W95714   2.397   4.026   0.715  0.1681  0.1182 -0.2666
52802W        W95715  25.554  24.056  27.006  0.0965 -0.3181  0.3558
52803W        W95716  31.185  16.459   2.771 -0.0386  0.1404 -0.0929
52804W        W95717   4.118  21.915   4.355  0.3719  0.0042  0.0088
52805W        W95718   8.593  22.678  25.156  0.2290 -0.1649  0.1773
52806W        W95719   2.822  16.076  22.019 -0.2580  0.0933  0.0517
52807W        W95720  30.665  24.948  29.759  0.0838  0.3579  0.0737
52808W        W95721  29.487   6.556  26.952 -0.2224 -0.1972  0.0766
52809W        W95722   2.762   7.893  27.076 -0.0419 -0.0547 -0.1179
52810W        W95723   0.934   5.657  25.412  0.3286  0.0155  0.1951
52811W        W95724  28.706  25.889  28.571  0.0593 -0.2166 -0.0469
52812W        W95725  18.314  10.159   8.233  0.0086 -0.1670 -0.0441
52813W        W95726   0.047  16.167   6.698 -0.0002  0.2881  0.2534
52814W        W95727  23.544  11.823  23.683  0.1403  0.0636  0.2830
52815W        W95728  23.625   3.663  24.524  0.2710  0.1378  0.1537
52816W        W95729   7.925  12.864   7.503  0.0877 -0.1163 -0.0738
52817W        W95730   5.614   2.550   2.692 -0.1978  0.1008 -0.0816
52818W        W95731   0.036  16.486   1.887  0.3257 -0.0681 -0.0606
52819W        W95732  22.426  20.819  23.883 -0.1688 -0.2402  0.2700
52820W        W95733   1.248   5.671  28.486 -0.2220 -0.1021  0.0903
52821W        W95734   1.647  11.037   3.184  0.2533 -0.1770  0.3222
52822W        W95735  25.271   6.568  15.961  0.0112  0.0423  0.1776
52823W        W95736   2.632  12.645  17.596 -0.2766 -0.0499  0.1491
52824W        W95737  29.499  23.381  28.384  0.0482  0.2765 -0.0102
52825W        W95738  32.209   7.401   5.524  0.0237 -0.1273 -0.3096
52826W        W95739  29.164  13.263  23.718  0.2191  0.1113 -0.2126
52827W        W95740  25.487   5.627   7.769 -0.0018 -0.0494  0.1398
52828W        W95741   1.366  23.172  29.187 -0.2373 -0.2839 -0.1381
52829W        W95742   0.113  12.569  24.609 -0.0380 -0.2594 -0.1336
52830W        W95743  31.364  16.015   8.696 -0.2069 -0.1241  0.0602
52831W        W95744   5.926  34.193   2.670  0.1508 -0.3257  0.2084
52832W        W95745  28.221  10.154   4.031  0.0798 -0.0754 -0.0278
52833W        W95746  32.877  24.553  23.688 -0.2719 -0.3562 -0.0111
52834W        W95747   4.326  14.304  28.088  0.0348 -0.1069  0.1022
52835W        W95748  30.919   7.058   3.237  0.0795 -0.1011  0.0799
52836W        W95749  34.278  17.313  21.394  0.2461 -0.0831  0.0467
52837W        W95750  34.424  19.120   3.787 -0.3673  0.0534 -0.1487
52838W        W95751   9.695  12.815   7.247  0.1402 -0.4497 -0.2095
52839W        W95752   6.144  16.002  27.000 -0.0907 -0.3645  0.3934
52840W        W95753   5.190   9.990   3.524 -0.0577 -0.4586 -0.0749
52841W        W95754  34.191   6.396   3.123 -0.0482 -0.0623 -0.2412
52842W        W95755  22.657  19.804   0.454  0.0281  0.2594  0.1733
52843W        W95756  24.854  12.570   9.460  0.0473  0.1656 -0.2556
52844W        W95757   7.076  12.278  26.816 -0.0576 -0.4816  0.2486
52845W        W95758  28.549   2.072   8.034 -0.0763 -0.2576 -0.0393
52846W        W95759   0.970  14.515  28.800  0.0722  0.0482  0.1310
52847W        W95760   7.066  14.237   6.904 -0.0248 -0.2869  0.0186
52848W        W95761  25.776  10.945   6.697 -0.0815 -0.0345  0.2447
52849W        W95762  22.448   2.556   3.952  0.0371  0.1045 -0.0510
52850W        W95763  30.562  12.568   3.734  0.0924 -0.1659 -0.2471
52851W        W95764   5.270  14.345  27.943 -0.0523 -0.1809 -0.0067
52852W        W95765  17.134  15.823   3.774 -0.0148 -0.0413  0.0898
52853W        W95766  28.104  15.232  28.796 -0.4430  0.0724  0.0932
52854W        W95767  29.856  17.000   9.670 -0.0340 -0.3334  0.0588
52855W        W95768   3.386   5.884  21.135 -0.1211  0.2276 -0.0122
52856W        W95769  31.036  14.610   2.290 -0.0918  0.0385  0.0610
52857W        W95770  21.456   8.947   6.942 -0.3884  0.1586 -0.2010
52858W        W95771  22.799  16.754  19.266 -0.1019  0.0156  0.2990
52859W        W95772  30.325  16.508   1.665 -0.1524  0.0014  0.1794
52860W        W95773   3.191  12.303   7.082 -0.1143 -0.0802  0.1731
52861W        W95774  29.551   7.646  25.120  0.2452 -0.0355 -0.1627
52862W        W95775  25.540  16.285  26.368  0.0347  0.0074 -0.2024
52863W        W95776  29.135   9.103   6.664 -0.1298 -0.1864 -0.1350
52864W        W95777  32.525  10.719  25.591  0.0176 -0.1896 -0.2255
52865W        W95778  26.322  23.133   8.372 -0.0635  0.0532 -0.2115
52866W        W95779  11.369   9.550  15.391  0.0360  0.2073  0.1090
52867W        W95780  20.737   2.112   2.308 -0.2112 -0.2158 -0.0787
52868W        W95781  33.165  15.589  29.430  0.2155  0.0546 -0.0977
52869W        W95782  26.213  13.427   7.248  0.2457 -0.1617 -0.0389
52870W        W95783   0.418  13.569   5.560  0.1760  0.0055  0.0026
52871W        W95784   0.762  14.071   0.730  0.3184 -0.1366 -0.0700
52872W        W95785   2.740  22.699  21.772  0.0203  0.0437 -0.1397
52873W        W95786  28.202   3.670   0.878  0.3698  0.4722  0.1114
52874W        W95787   4.014  17.049   7.384 -0.0875 -0.0886 -0.5901
52875W        W95788  25.853   6.897  21.524  0.0097  0.0441  0.0388
52876W        W95789  34.301  17.883  28.981 -0.0596  0.0641 -0.0029
52877W        W95790   8.342   0.782  27.452  0.0497  0.1534  0.2057
52878W        W95791  25.262  15.680  24.587  0.2544  0.4307  0.0757
52879W        W95792  29.867  11.407   0.150  0.1000 -0.1658  0.1560
52880W        W95793   2.640   6.306   3.196 -0.0508  0.3665  0.2988
52881W        W95794   2.039  22.306   2.871 -0.0977 -0.1952  0.0334
52882W        W95795  27.942  13.179  29.370  0.4405 -0.1507 -0.2652
52883W        W95796   0.223  17.788   3.014  0.2454  0.0919  0.0157
52884W        W95797  30.683  11.198  27.971  0.1470 -0.0020  0.2043
52885W        W95798  29.079  11.922  27.557  0.2862  0.1556  0.1637
52886W        W95799  32.810   7.189  15.968  0.1768 -0.0392 -0.1325
52887W        W95800   8.278  30.054   2.773 -0.2436  0.1092  0.0751
52888W        W95801  33.683   4.207  26.293  0.1791 -0.0293  0.0277
52889W        W95802  23.505  24.673   5.129  0.0378 -0.1903 -0.1941
52890W        W95803  28.285  20.393   4.405 -0.2405 -0.3287  0.2013
52891W        W95804  25.730  18.477  26.230 -0.0290 -0.0253 -0.2303
52892W        W95805   2.552  13.086   6.637  0.0072  0.1543 -0.2186
52893W        W95806  32.338  14.340   7.358  0.2777  0.0847 -0.1849
52894W        W95807  33.507  10.621   7.118  0.0314 -0.2975 -0.1129
52895W        W95808  29.704  16.125   8.681  0.0008 -0.1979  0.0815
52896W        W95809  31.611  21.529  16.158  0.0798 -0.0820  0.2222
52897W        W95810  33.089   3.440  24.494 -0.2102  0.1322 -0.1193
52898W        W95811   1.313  16.631   1.502  0.2442 -0.1307  0.0053
52899W        W95812  23.343  18.865  26.894 -0.1365 -0.0805  0.0029
52900W        W95813   3.877   8.823  18.197 -0.0255  0.2132 -0.1780
52901W        W95814   7.092  17.585   4.462  0.2733 -0.1693  0.0396
52902W        W95815   7.820   6.999  28.160  0.3048  0.0702 -0.1477
52903W        W95816  24.301  10.153   8.437 -0.1482  0.0670  0.0555
52904W        W95817  29.194  26.036   8.289  0.3479 -0.0887  0.1040
52905W        W95818   1.661  13.467   2.961 -0.2252 -0.2011  0.1897
52906W        W95819  25.094  13.656   7.300  0.0248  0.2376 -0.0124
52907W        W95820  33.599  11.816  24.641  0.0147 -0.2573 -0.0010
52908W        W95821  10.756  13.655  25.756 -0.2684 -0.0892 -0.0044
52909W        W95822  29.289   4.171  26.973 -0.0186 -0.0169  0.1720
52910W        W95823  23.682   8.904  26.944  0.3848  0.1732 -0.0166
52911W        W95824  25.778  12.710  22.107  0.2648  0.1281 -0.1613
52912W        W95825  27.846  34.281  24.329 -0.1110 -0.1123  0.0101
52913W        W95826  28.519  16.234   8.699  0.2413  0.5285  0.0962
52914W        W95827  24.475  18.915  28.369 -0.0401 -0.1312  0.0020
52915W        W95828  18.769  21.081  23.351  0.0488 -0.1023 -0.2757
52916W        W95829  14.007  15.906  27.980 -0.1363  0.2670  0.2326
52917W        W95830   8.840  13.621  29.199 -0.1494  0.2944  0.0665
52918W        W95831  21.882  14.349  21.823  0.0172  0.2643 -0.0545
52919W        W95832  30.817  17.428  23.307  0.0417 -0.0437 -0.2302
52920W        W95833   7.111  11.479   5.403  0.0856  0.2055 -0.4621
52921W        W95834   3.126   9.141  20.185 -0.0300 -0.0459  0.1862
52922W        W95835  28.516   4.003   4.450 -0.0983  0.0665  0.2817
52923W        W95836   4.109  23.191  25.472 -0.1501  0.0304 -0.0172
52924W        W95837  27.500  21.969  23.059 -0.1399  0.1580  0.0945
52925W        W95838  12.673  20.807  27.638  0.1697  0.1163 -0.2111
52926W        W95839   1.336  23.313   0.352 -0.1180 -0.0478  0.0261
52927W        W95840   1.874   7.931  28.341  0.0202  0.0532  0.1948
52928W        W95841  23.078  20.534  24.653  0.2777  0.1809  0.0362
52929W        W95842   2.105  13.397   1.031  0.0082  0.1914 -0.0142
52930W        W95843  31.174  14.284  29.386 -0.0428 -0.0159  0.0824
52931W        W95844   5.558  24.467   1.541 -0.0618 -0.1699  0.4938
52932W        W95845  21.151   1.538  21.520  0.0211 -0.0931 -0.0377
52933W        W95846   8.062  14.058  26.550 -0.0882  0.0066  0.2213
52934W        W95847   0.298  13.857  22.764 -0.0669 -0.3623  0.6959
52935W        W95848  13.420  28.361   1.724  0.3766 -0.3240 -0.1613
52936W        W95849  24.789   9.410   6.813 -0.2660 -0.2212 -0.1030
52937W        W95850  26.949   9.689  24.210  0.1271 -0.2253 -0.0365
52938W        W95851  29.920  11.182   3.615 -0.1758  0.0923 -0.1876
52939W        W95852  23.890  26.949   2.156 -0.3909 -0.1174 -0.2726
52940W        W95853   9.396  18.276   1.833  0.3158  0.0030  0.1942
52941W        W95854  32.668  11.456   3.474  0.2506 -0.0962  0.0506
52942W        W95855  27.022  15.266   8.147 -0.1107 -0.2211 -0.2372
52943W        W95856   4.503  22.688   3.822  0.1029  0.1363  0.2655
52944W        W95857   9.282  14.905   6.588 -0.1199 -0.0468  0.2833
52945W        W95858   4.839  12.256   1.351 -0.1436 -0.2736 -0.1186
52946W        W95859  10.574  17.329   0.725 -0.1258  0.1360  0.2152
52947W        W95860  33.080  10.332   9.221 -0.3479 -0.0267  0.1352
52948W        W95861   5.675  15.672  26.498 -0.0108 -0.1135  0.0552
52949W        W95862   8.923  14.277  25.862 -0.1613  0.3202  0.2279
52950W        W95863  20.238  20.334   0.139  0.1803  0.3090 -0.2624
52951W        W95864   4.697  13.129   0.938  0.1413  0.1171  0.1884
52952W        W95865  33.975   6.479  29.055  0.0018 -0.0701 -0.1141
52953W        W95866   7.716  16.627   0.453  0.1514 -0.0049  0.1473
52954W        W95867   9.262  12.829   6.879 -0.4849 -0.0042 -0.4177
52955W        W95868   7.718  13.652  20.503 -0.0684 -0.0821 -0.0408
52956W        W95869   4.874  12.574   5.598 -0.1044 -0.1171  0.1711
52957W        W95870  23.377   4.784   2.749  0.0429 -0.0306 -0.2183
52958W        W95871  25.988  15.245  24.091  0.2237  0.0309 -0.0180
52959W        W95872   7.534  12.741   9.541 -0.3485  0.0349  0.1497
52960W        W95873  25.838  18.970  27.328  0.1914  0.0079  0.1111
52961W        W95874  19.013  17.207   4.890  0.0294 -0.2862 -0.1178
52962W        W95875  20.733   5.986   7.042  0.3307 -0.1562 -0.3674
52963W        W95876   1.061   8.890   1.217 -0.1009  0.0583  0.5115
52964W        W95877  27.515   9.522   5.993 -0.0738  0.0519 -0.1183
52965W        W95878  30.236   8.654   3.777  0.3464 -0.2211 -0.2310
52966W        W95879  18.091   5.977  27.229  0.4030  0.0079  0.0792
52967W        W95880   5.869   0.235   2.650 -0.1513  0.2806 -0.1807
52968W        W95881  33.245  16.014   2.139 -0.1078 -0.0718  0.1043
52969W        W95882  32.238  10.681  26.834 -0.2840 -0.1107  0.4093
52970W        W95883  30.602  23.879  29.223  0.1948 -0.0424  0.2300
52971W        W95884  31.777  18.244  24.843  0.0164  0.1780 -0.0297
52972W        W95885  22.546   2.795  25.187 -0.0228  0.1737 -0.0530
52973W        W95886  27.324  14.896   4.526  0.0261 -0.2077 -0.2654
52974W        W95887  21.976  14.497  21.175  0.1284  0.0527  0.2833
52975W        W95888   5.355  17.394  29.748  0.3063 -0.0864  0.1384
52976W        W95889   2.981  10.434   2.993 -0.0855 -0.0994 -0.2365
52977W        W95890   1.318   6.509  11.010 -0.0281  0.1484 -0.2128
52978W        W95891   4.621  19.008   1.942  0.1795 -0.1318 -0.4678
52979W        W95892  22.079  16.153  25.130  0.0872 -0.1260  0.0106
52980W        W95893  30.299  20.151   2.730  0.0553  0.0386  0.0642
52981W        W95894  31.679   7.806  26.890 -0.0942  0.0752  0.1290
52982W        W95895  30.578  26.890   0.721  0.1371 -0.1444 -0.1241
52983W        W95896  10.449   3.215  28.905  0.0581 -0.3150 -0.0554
52984W        W95897   1.551   7.674   0.628  0.0680 -0.1957  0.0276
52985W        W95898  29.948  18.313   1.713  0.2408  0.0084  0.0080
52986W        W95899   7.523   5.571   5.512 -0.1928 -0.1040 -0.0055
52987W        W95900   0.768  13.932   2.042  0.2859 -0.2441 -0.0032
52988W        W95901   4.737   0.629  26.074  0.0612 -0.3373 -0.5265
52989W        W95902   6.218  14.152   2.702  0.0089  0.0473  0.1354
52990W        W95903   5.139  13.867   1.521  0.0966  0.2982  0.6165
52991W        W95904  25.691  23.748   0.114  0.1376 -0.0557 -0.0650
52992W        W95905  24.863   6.926  10.397 -0.3556 -0.0463  0.0132
52993W        W95906   6.307   4.806   4.363  0.0452  0.0004 -0.0292
52994W        W95907  30.794   2.962  16.008 -0.0142 -0.1805 -0.3163
52995W        W95908  31.979  14.779  25.204 -0.1786  0.0358  0.0034
52996W        W95909  23.340   9.652   0.602 -0.0365 -0.0396 -0.0104
52997W        W95910   8.741  10.856   5.867 -0.2124 -0.0372  0.0688
52998W        W95911  10.961   2.921  10.842  0.0201 -0.1039  0.0042
52999W        W95912  25.523  15.637   2.209  0.1853 -0.1101 -0.1493
53000W        W95913   0.835  18.155  29.649 -0.1228 -0.0748 -0.1783
53001W        W95914   7.546  16.168  27.806 -0.1731  0.0873  0.2073
53002W        W95915  30.503  10.690   6.452 -0.0671 -0.0188  0.1453
53003W        W95916  29.289  20.995   5.899  0.0093 -0.1364 -0.4699
53004W        W95917  33.008   5.722   7.756  0.4046 -0.1377 -0.0073
53005W        W95918  28.387  16.955   3.430  0.0917  0.0996  0.1537
53006W        W95919  31.286  11.500  28.631  0.0154 -0.2777 -0.0705
53007W        W95920  30.701  21.477   8.136  0.0522 -0.3178  0.0264
53008W        W95921   4.248  14.076  27.626  0.2016 -0.5132  0.0185
53009W        W95922  33.865  24.821   1.532  0.0774 -0.1182  0.1683
53010W        W95923   7.170  10.722  25.828  0.1505 -0.0061  0.2641
53011W        W95924  12.611  24.383   5.405  0.0698  0.1593  0.0501
53012W        W95925   6.794   1.249   2.787 -0.0498 -0.2951 -0.0412
53013W        W95926   6.357  18.395   8.349 -0.1602  0.0070 -0.0908
53014W        W95927  21.462   6.380   1.391 -0.0884  0.2641  0.1348
53015W        W95928  29.725  18.562  25.073  0.0657  0.0242 -0.0879
53016W        W95929   0.862   4.048  28.819 -0.1050  0.1882 -0.0819
53017W        W95930   1.098  15.941   2.724  0.1651 -0.0216 -0.2474
53018W        W95931  31.997   8.250   3.398  0.0935  0.0415 -0.0540
53019W        W95932   3.418  16.370  27.078 -0.0478  0.1783  0.2058
53020W        W95933   3.108  10.232   0.927  0.2660  0.3195 -0.0442
53021W        W95934   7.305  10.924  10.325 -0.0846  0.2711  0.0030
53022W        W95935   0.874   4.990   6.329  0.0556  0.1446 -0.0839
53023W        W95936   0.094  11.522   8.301 -0.1953  0.0164  0.0560
53024W        W95937  23.624   9.566   0.144  0.0372  0.3534  0.0354
53025W        W95938  30.673  10.792   1.396  0.2113 -0.0615  0.0965
53026W        W95939   5.033   9.863   6.286  0.2067  0.2216 -0.1533
53027W        W95940   7.428  15.806  25.630 -0.1964 -0.0535  0.0990
53028W        W95941   2.724  10.528   8.176  0.0252 -0.1212 -0.1502
53029W        W95942  21.074  15.609   3.795  0.0191  0.3736  0.0379
53030W        W95943  24.930  12.182   8.449  0.1328 -0.1014 -0.2281
53031W        W95944  25.037  19.982  22.990 -0.3685 -0.1795 -0.2427
53032W        W95945  10.282  23.742  24.010  0.0319  0.2600  0.1627
53033W        W95946   0.274   3.472   8.399  0.1584 -0.0981 -0.0453
53034W        W95947  29.699  10.270   6.528  0.0980  0.1319 -0.0632
53035W        W95948   2.014  19.735   7.782  0.2394 -0.0029 -0.0163
53036W        W95949  32.638   7.619  28.638 -0.1503 -0.2091  0.0671
53037W        W95950  31.966  10.267   8.499 -0.1740 -0.0293  0.0536
53038W        W95951   0.006  26.247   9.575  0.3879  0.0336  0.0404
53039W        W95952   0.614   9.953   1.767  0.1140  0.0721  0.0061
53040W        W95953   5.047   9.271  11.683 -0.1949  0.0297  0.1025
53041W        W95954   2.235   9.984   8.458 -0.0706  0.0689 -0.0929
53042W        W95955   1.631   3.112   7.742  0.4377 -0.1161 -0.0178
53043W        W95956  29.540  15.801   5.593  0.3125 -0.1356  0.1022
53044W        W95957  31.916   4.480   7.539 -0.1175  0.1005 -0.2652
53045W        W95958  28.508  15.285  27.293 -0.1590  0.0899 -0.3823
53046W        W95959   6.854   4.259  26.687  0.0360 -0.2449  0.0715
53047W        W95960   4.401   4.451   2.863  0.2415 -0.0651  0.1021
53048W        W95961   1.666   8.893   0.846  0.2277  0.0924  0.0633
53049W        W95962  28.458  26.704   2.085  0.0430  0.3690  0.1009
53050W        W95963  31.783  21.724   8.585  0.1944 -0.0581  0.2566
53051W        W95964  34.021  14.017   7.417  0.1638  0.1532  0.2698
53052W        W95965   7.367  15.699  29.159 -0.4247  0.2003 -0.0455
53053W        W95966   5.015  23.542  22.746  0.3694 -0.0047  0.1079
53054W        W95967   3.495  21.543   7.158 -0.1499 -0.0160  0.2536
53055W        W95968   4.089   9.830   4.301  0.0184 -0.0144  0.2710
53056W        W95969  32.415  11.545   8.944 -0.1774 -0.0482 -0.3019
53057W        W95970  26.027  11.423   5.284 -0.1322 -0.3094  0.1870
53058W        W95971  33.146  21.084   3.744  0.1468 -0.2669  0.0481
53059W        W95972  31.731  16.997   7.469 -0.2462  0.0535  0.0526
53060W        W95973   1.868   9.640  10.967 -0.2878  0.2551 -0.3310
53061W        W95974   4.415   7.790   1.168 -0.0368 -0.1068 -0.2248
53062W        W95975  31.573   3.484   4.429 -0.0702 -0.2931  0.1106
53063W        W95976   6.389  12.969   8.352 -0.0699  0.2373 -0.0375
53064W        W95977   4.511  10.582  26.068  0.1018 -0.4675 -0.0659
53065W        W95978  34.455  10.281   0.554 -0.2594 -0.2031  0.0987
53066W        W95979   0.943   7.643   2.949 -0.0793  0.0292 -0.1206
53067W        W95980  32.489  26.621   1.568 -0.3999  0.0332 -0.0383
53068W        W95981   9.625  16.051   3.971  0.0294  0.1353  0.0466
53069W        W95982   0.124   6.393  26.759 -0.1449 -0.1383  0.3608
53070W        W95983  17.258   9.561   7.229 -0.1412  0.3568 -0.1174
53071W        W95984  31.723  21.268   3.450 -0.1118  0.1866  0.0777
53072W        W95985   3.009  20.416  28.258 -0.0406  0.1463  0.4454
53073W        W95986   0.338  21.343   5.213  0.0071  0.2897 -0.0739
53074W        W95987  33.276  11.071   5.669 -0.2842  0.0856  0.1880
53075W        W95988   7.128  11.696  22.238 -0.3753 -0.0609  0.2444
53076W        W95989  26.133  17.975   2.330  0.0575 -0.2195 -0.2895
53077W        W95990   1.101  16.173   6.136  0.1211 -0.0456  0.2362
53078W        W95991  33.090  16.332  23.646  0.1544 -0.1200 -0.1094
53079W        W95992  22.961  32.404  27.646 -0.1293 -0.2650 -0.2789
53080W        W95993   6.383   7.349   3.930 -0.1479  0.2852 -0.1014
53081W        W95994  28.644   4.241   9.634  0.0326  0.2163 -0.0349
53082W        W95995  32.446  15.888   1.498 -0.3730  0.2640 -0.2802
53083W        W95996  32.025  18.493  27.027 -0.1618  0.0150  0.2226
53084W        W95997  25.972  17.117  29.118  0.1419  0.0029  0.1653
53085W        W95998  29.035  13.331   6.510 -0.1278 -0.1297 -0.2804
53086W        W95999  31.465  19.112   4.810  0.1543 -0.1740 -0.0877
53087W        W96000  21.297  25.600   1.171 -0.3579 -0.1900  0.1068
53088W        W96001   5.118   9.709   1.162 -0.2597  0.0879 -0.1084
53089W        W96002   2.127  10.559   5.161  0.1312 -0.1649 -0.1039
53090W        W96003  26.272   8.202   0.677  0.1368  0.0444 -0.0465
53091W        W96004  28.566  19.312   0.381 -0.0128  0.2844 -0.0252
53092W        W96005  30.333   7.830  10.915 -0.1933 -0.0980  0.2323
53093W        W96006  29.198  10.391  23.772 -0.0171  0.1508  0.1276
53094W        W96007  18.119  11.223   1.167  0.3384  0.0872 -0.3304
53095W        W96008   6.947   5.736  28.645 -0.0138 -0.1716 -0.1606
53096W        W96009  32.128   8.208   2.841 -0.2071  0.1584 -0.0350
53097W        W96010  31.846  18.350   4.799 -0.0265  0.0456  0.3111
53098W        W96011   5.577   4.789   9.993  0.0899  0.0448 -0.1730
53099W        W96012  32.910   9.486   8.044  0.0081  0.2278  0.0549
53100W        W96013   7.210   3.933  19.443 -0.1401 -0.1456  0.0520
53101W        W96014  27.170   4.146   8.459 -0.2034 -0.0402 -0.0377
53102W        W96015  30.332  13.269   6.778  0.3007  0.0344  0.0788
53103W        W96016  30.579  17.357   2.396 -0.0231 -0.1035 -0.1536
53104W        W96017   0.854  18.192   4.649  0.1311  0.0190  0.0121
53105W        W96018   2.438   1.542   8.601 -0.4090 -0.2829 -0.2632
53106W        W96019  26.941   9.912  25.554  0.0009 -0.0818  0.0511
53107W        W96020  29.138  18.773   5.387 -0.1430  0.1482  0.2224
53108W        W96021  32.255  19.356   0.156  0.3495  0.5491  0.0011
53109W        W96022   6.914  17.799   2.933 -0.3010 -0.2950 -0.1492
53110W        W96023  24.975  19.626   3.571 -0.0827  0.3818  0.1866
53111W        W96024  28.700  17.592   3.004 -0.2560 -0.1512 -0.3037
53112W        W96025   1.736  10.705   8.047 -0.2764 -0.1375  0.2523
53113W        W96026   8.167  15.126   1.469 -0.2420  0.0953  0.3062
53114W        W96027  31.296  12.882   4.203 -0.1669 -0.2433  0.2890
53115W        W96028  30.110   6.973   5.664 -0.1761  0.1776 -0.2667
53116W        W96029  17.499  10.981   3.946 -0.1350 -0.1009  0.1958
53117W        W96030  25.956  10.623   6.358 -0.1612 -0.1300 -0.1027
53118W        W96031  33.102  10.830   6.412  0.1172 -0.0067 -0.0015
53119W        W96032  32.048  12.583   7.882 -0.1773  0.1518 -0.1876
53120W        W96033  30.035   8.545  29.392  0.0214  0.0401  0.0773
53121W        W96034   5.485  10.686  28.615 -0.2695 -0.0973 -0.2032
53122W        W96035  28.827  12.604   5.244 -0.1601 -0.2061  0.0285
53123W        W96036  29.079  16.058  23.283 -0.2540 -0.2332 -0.0188
53124W        W96037  27.583  18.708   6.917 -0.3969  0.0312 -0.1254
53125W        W96038   4.982  21.457   8.570 -0.0782 -0.2957 -0.0505
53126W        W96039  26.736  11.522   8.683  0.3135  0.0600  0.1537
53127W        W96040  34.265  16.804   4.168  0.0289  0.0165  0.0594
53128W        W96041  13.264   5.779   7.093  0.0926 -0.1386 -0.1627
53129W        W96042  31.238  34.158   9.408  0.2754 -0.3098 -0.1731
53130W        W96043   3.148   8.544   7.275  0.1160  0.0679 -0.3534
53131W        W96044  32.626   5.231  22.948  0.2806 -0.2115 -0.0020
53132W        W96045  32.215  11.160   7.177 -0.0260  0.1003  0.1512
53133W        W96046  26.589  13.000   8.553 -0.0632 -0.0845  0.1688
53134W        W96047  27.347   6.650   1.057  0.2546 -0.3178  0.0938
53135W        W96048   2.779   9.382  22.105 -0.0212  0.0762  0.1192
53136W        W96049  27.474  13.507   6.483 -0.0872 -0.1283  0.2515
53137W        W96050   4.510  10.043   4.025 -0.1107  0.0089 -0.0288
53138W        W96051   1.534  14.402   8.209  0.1182 -0.3817  0.0640
53139W        W96052  34.313  12.693   2.950 -0.1123 -0.0626  0.1150
53140W        W96053  30.877  13.629   1.648 -0.1679  0.0931  0.2084
53141W        W96054  30.330  14.842   2.615  0.1429  0.3608  0.0392
53142W        W96055  33.946  18.787   6.604  0.3783 -0.3169  0.0757
53143W        W96056  29.808  20.986   6.431  0.0211 -0.0655  0.2171
53144W        W96057   2.496  25.493  27.369  0.0006  0.1349 -0.1177
53145W        W96058  28.712  14.921   0.195 -0.0650 -0.0238  0.1726
53146W        W96059  22.248  15.435   8.788  0.1712  0.2155 -0.1176
53147W        W96060   2.164  20.030  10.074  0.3472 -0.0369 -0.2841
53148W        W96061  27.649   8.010   2.544 -0.1527 -0.2217  0.1471
53149W        W96062  34.279   7.062  24.674 -0.3040  0.1602  0.2699
53150W        W96063  25.717  21.622  27.606 -0.1466  0.0664  0.1357
53151W        W96064   6.402  15.924   9.451  0.0967 -0.0330  0.2078
53152W        W96065   3.084  25.912   4.195 -0.1711  0.2078  0.0379
53153W        W96066   4.805   8.307   3.165 -0.0626 -0.1746 -0.0372
53154W        W96067  32.828  19.670   5.357  0.2862  0.1776  0.2534
53155W        W96068  28.297   3.822   4.910  0.0628  0.2294 -0.0237
53156W        W96069   4.880  12.759   1.525  0.1700  0.1261  0.0815
53157W        W96070  28.031   8.911   7.118  0.0120 -0.1461 -0.0865
53158W        W96071   1.747  10.042  29.724  0.1918  0.1065  0.0289
53159W        W96072   9.724  15.558   4.782  0.3532  0.2035 -0.0223
53160W        W96073  28.851  21.157   1.324 -0.1737 -0.0604  0.0247
53161W        W96074   3.390  15.631  22.263  0.0063  0.1166  0.0882
53162W        W96075   1.955  11.332   6.740 -0.0354  0.2794 -0.1283
53163W        W96076  32.975  24.034   2.803 -0.1067 -0.1680  0.0399
53164W        W96077   1.917  13.402   7.350  0.1224 -0.0551  0.0259
53165W        W96078   8.317  13.378   4.593 -0.1460 -0.5124 -0.0345
53166W        W96079  27.623   6.747   8.073  0.0251 -0.1029 -0.2326
53167W        W96080  33.933   6.285   4.470 -0.0386  0.0320 -0.2913
53168W        W96081  34.361   7.498   6.882 -0.0986 -0.1262  0.2131
53169W        W96082  29.062  27.775  22.606  0.0971  0.2735 -0.0910
53170W        W96083   6.563  13.198  24.052 -0.3713  0.2261 -0.2144
53171W        W96084   4.608   2.740   4.676 -0.0360 -0.3229  0.0483
53172W        W96085   2.947  12.371   4.759 -0.0459 -0.0773  0.2237
53173W        W96086   3.942  13.577   2.463 -0.1345 -0.2618  0.1610
53174W        W96087  28.908  15.903   1.477  0.0826 -0.1791  0.2454
53175W        W96088   1.472  11.654   6.908 -0.0253 -0.0451  0.1806
53176W        W96089  31.111  13.304   3.946 -0.0256  0.1934 -0.3696
53177W        W96090  33.129   7.286   8.250  0.2381 -0.0630  0.1220
53178W        W96091  24.800  28.830   8.192  0.0180  0.2839 -0.1434
53179W        W96092   1.830  23.800   4.128 -0.1628  0.0511  0.0496
53180W        W96093  30.193  12.907   1.275  0.0545 -0.2188 -0.0922
53181W        W96094  19.038  11.426   3.749  0.3312 -0.1424 -0.2341
53182W        W96095  33.079  19.260   5.578 -0.3018  0.0136 -0.0733
53183W        W96096   4.187  30.978  10.702 -0.2392  0.3441 -0.0316
53184W        W96097  24.194  14.612   5.438  0.0158  0.0875  0.0691
53185W        W96098   0.449  15.657   4.795 -0.0719 -0.0704  0.2655
53186W        W96099  32.027  12.726   9.021  0.0641  0.3256 -0.2166
53187W        W96100  22.161  18.968  25.370  0.1436 -0.1800  0.0665
53188W        W96101  24.299   8.527   5.024 -0.4514  0.0541  0.2987
53189W        W96102  24.337  11.156   7.245  0.1022  0.3753 -0.1714
53190W        W96103   5.350   7.585   3.237  0.3114 -0.1898  0.1763
53191W        W96104  33.033  17.610   4.280  0.3780 -0.3548  0.0300
53192W        W96105  10.293  22.280   7.327  0.1545 -0.0419 -0.1023
53193W        W96106   1.058  12.885   6.135 -0.2457  0.0445 -0.0079
53194W        W96107  32.658  23.725   7.658 -0.0214  0.1573  0.2095
53195W        W96108  31.412   7.524   3.970  0.2435  0.3415 -0.0071
53196W        W96109  33.659  13.082   3.436  0.3201  0.1628 -0.0322
53197W        W96110   1.003  15.124  26.505 -0.4862  0.0783  0.2037
53198W        W96111  29.652  15.640   8.807 -0.4547  0.1739  0.4078
53199W        W96112  30.048  11.043   8.330 -0.1157  0.0074  0.0122
53200W        W96113  30.610  14.702  21.102  0.1245  0.2652 -0.1547
53201W        W96114  10.915  14.545  27.496  0.0308 -0.4636  0.1803
53202W        W96115  32.887  22.531   5.420 -0.2170  0.1847 -0.0860
53203W        W96116  30.305  13.027  24.541  0.0154  0.0211 -0.1377
53204W        W96117   1.014   9.714   9.242  0.1276 -0.2175  0.0050
53205W        W96118  32.895  14.686   5.022 -0.1371  0.0389  0.4216
53206W        W96119  25.337  13.933   6.820  0.1481 -0.1421  0.0691
53207W        W96120  29.170  16.217  29.445 -0.1078  0.0089  0.1046
53208W        W96121  25.724  20.823  28.757 -0.0104  0.0576  0.1004
53209W        W96122  26.737  13.369   5.934 -0.3119  0.2432  0.0199
53210W        W96123  29.390  13.917  27.522  0.2581 -0.2526  0.0406
53211W        W96124  26.744   8.774   7.108 -0.0015  0.2074 -0.0424
53212W        W96125   7.934   6.554  13.147 -0.1282 -0.1027  0.0504
53213W        W96126  30.741  20.262   5.370  0.0637 -0.0174  0.0356
53214W        W96127   4.561   5.499   6.785  0.0290  0.1199  0.2889
53215W        W96128   4.290  11.127   6.384 -0.2074  0.1073 -0.3973
53216W        W96129  32.923  13.709  26.471  0.1760  0.1306 -0.1524
53217W        W96130  29.809  18.678   7.632 -0.3888  0.0402 -0.2560
53218W        W96131  18.827  16.845  27.157 -0.1061 -0.1190 -0.0474
53219W        W96132   3.323  10.960   3.038  0.0559 -0.0433  0.2161
53220W        W96133  34.302  15.731   8.184  0.1657  0.0282  0.0115
53221W        W96134  34.463   5.621   9.942  0.0596  0.2606 -0.2292
53222W        W96135   0.150   1.138  10.109 -0.1646  0.0379 -0.3111
53223W        W96136   5.303  21.661   4.596 -0.0512  0.3846 -0.0029
53224W        W96137  32.107   7.947   8.307 -0.1072 -0.0289 -0.4478
53225W        W96138  30.163  18.189   6.285 -0.1718  0.0978 -0.1873
53226W        W96139  12.988  16.085   1.908 -0.0014 -0.1680 -0.4857
53227W        W96140   8.850  14.062   5.161 -0.0288  0.1482  0.1762
53228W        W96141  28.021   9.930   1.502  0.1457  0.1224 -0.0287
53229W        W96142  23.246   8.081   7.396 -0.2495 -0.0348  0.0665
53230W        W96143  24.871  13.786   7.800 -0.1363 -0.1195  0.0622
53231W        W96144   0.154   7.581  10.314  0.4031 -0.1515 -0.1960
53232W        W96145  29.591   1.159  25.339 -0.0383 -0.0510  0.0858
53233W        W96146   0.975   7.918   1.253 -0.0897 -0.1631  0.3678
53234W        W96147   1.435  12.033   6.250  0.4163  0.0952  0.0664
53235W        W96148  32.765   8.745  11.295 -0.0408  0.3119  0.2288
53236W        W96149  27.471   4.949   9.288 -0.0236  0.1994  0.0201
53237W        W96150   1.333  31.255  10.712 -0.4851  0.1140 -0.0523
53238W        W96151  10.352  13.340  10.375  0.0618 -0.1038  0.4552
53239W        W96152   7.252   6.199   9.530 -0.0426 -0.1759 -0.0541
53240W        W96153   2.882   6.964  10.134  0.2405 -0.1192 -0.1738
53241W        W96154  29.496  13.828   3.217  0.0636  0.0681 -0.1960
53242W        W96155  23.321  10.042  28.172 -0.0648 -0.1837 -0.2609
53243W        W96156  27.541   8.929   4.514 -0.0269  0.2699 -0.1600
53244W        W96157   5.562  19.143   8.517 -0.3233 -0.1088  0.2307
53245W        W96158  33.692   8.537   9.105 -0.1023 -0.1334 -0.2143
53246W        W96159   7.737  17.148   7.584 -0.1678 -0.1382  0.0354
53247W        W96160  27.233  11.692   1.074  0.2751 -0.0763  0.0202
53248W        W96161   5.683   4.896  10.745  0.0209  0.0667 -0.3446
53249W        W96162   3.688  10.768   7.749  0.0564  0.0042 -0.1158
53250W        W96163  24.755   9.002   9.996 -0.2465  0.2149 -0.1601
53251W        W96164  34.134  11.107   6.426  0.1644  0.1111 -0.1300
53252W        W96165  32.021  14.739   1.076 -0.2133  0.0228 -0.0663
53253W        W96166   2.810   9.949   6.757 -0.0322 -0.0680 -0.0068
53254W        W96167   2.775  11.936   9.645  0.1492  0.1948  0.1258
53255W        W96168   0.081  12.997   8.004  0.1912  0.1713  0.1458
53256W        W96169   0.715   4.741   9.691 -0.0197  0.0119 -0.1398
53257W        W96170   4.561  22.524   7.735  0.0069 -0.0460  0.2554
53258W        W96171   0.386  10.139   6.979  0.2606 -0.2334 -0.1521
53259W        W96172   1.087  11.089   8.491  0.2232 -0.1534  0.2161
53260W        W96173   8.699   5.856   6.324 -0.0041  0.4479  0.1044
53261W        W96174   6.412  20.374   0.357  0.2277  0.1620 -0.1577
53262W        W96175  27.374  23.717   7.070  0.0353 -0.3390 -0.3155
53263W        W96176   5.402  16.832  29.280 -0.1365 -0.1704 -0.0635
53264W        W96177  29.275  10.133   8.476  0.0149 -0.2075 -0.0112
53265W        W96178   6.063   6.067  27.065 -0.0147  0.2712 -0.1212
53266W        W96179   2.443   5.605  12.375  0.0442  0.0427 -0.1461
53267W        W96180  33.812   8.636  11.042  0.0410  0.1106 -0.1676
53268W        W96181   0.578   4.752  10.895 -0.0661  0.1122 -0.0406
53269W        W96182  13.303  17.544   5.988  0.1269 -0.0254  0.0606
53270W        W96183  28.136  12.832   6.275  0.5181 -0.0042  0.1817
53271W        W96184  17.693  13.417   7.272  0.3015  0.0460  0.1660
53272W        W96185  30.972  13.168   1.980 -0.1062 -0.0738 -0.2968
53273W        W96186  19.453  15.920   7.685  0.1100  0.1080 -0.2128
53274W        W96187  30.199  13.967  29.738 -0.2402  0.0734 -0.1011
53275W        W96188  31.800  11.813   5.678 -0.2937  0.1392 -0.3182
53276W        W96189  27.884  19.884   2.548 -0.1330 -0.1285  0.1193
53277W        W96190  28.494   8.537  10.071 -0.0897 -0.3354  0.0548
53278W        W96191  30.776  10.521   2.165  0.2203  0.0848  0.0591
53279W        W96192  29.597   6.898   7.642 -0.1035  0.0625 -0.0370
53280W        W96193   1.710   5.397   9.018  0.2208  0.1644 -0.1667
53281W        W96194   0.016  28.825   6.181  0.3427 -0.0847 -0.0688
53282W        W96195   7.588   7.666   7.098  0.0845 -0.1394 -0.2176
53283W        W96196  33.437   6.867  11.213  0.1581 -0.1793  0.1888
53284W        W96197   5.967   8.294   4.324 -0.1207  0.1381 -0.1143
53285W        W96198   7.155   8.582   5.554 -0.3326 -0.2872  0.1475
53286W        W96199  31.822  21.185   7.183  0.3025 -0.2489  0.0887
53287W        W96200   2.004  17.520   0.019  0.0049 -0.1675  0.2144
53288W        W96201   4.777  10.647   7.946 -0.0390 -0.0248 -0.2981
53289W        W96202  29.412   6.304   6.068 -0.0442  0.1185 -0.0437
53290W        W96203   1.079   9.345  28.174  0.0097  0.1018 -0.3708
53291W        W96204   4.101   2.473   9.112 -0.0637 -0.0347 -0.0572
53292W        W96205  25.079  25.765   3.231 -0.2917 -0.2999  0.1051
53293W        W96206  29.198  11.656   4.814 -0.2020  0.0698  0.1128
53294W        W96207  33.809   7.717   0.799 -0.1947  0.1730  0.1997
53295W        W96208  32.725  16.434   4.635 -0.3652  0.4807 -0.0746
53296W        W96209  31.376   6.537  10.625 -0.1991  0.2940 -0.0426
53297W        W96210   2.884   2.914  10.992 -0.1315 -0.0373 -0.0527
53298W        W96211   4.840  15.657   7.168 -0.0145  0.2050 -0.2577
53299W        W96212  33.768   2.407   8.655 -0.0662 -0.0143  0.0595
53300W        W96213   4.152   6.248   5.031 -0.0052  0.0371 -0.3163
53301W        W96214  30.521  14.729   9.227 -0.2481 -0.0105 -0.1449
53302W        W96215   6.514   9.912   8.281  0.0616 -0.2791 -0.2191
53303W        W96216   7.680  15.613   0.711 -0.0957  0.0656 -0.1012
53304W        W96217  32.570  20.723   9.192  0.1433 -0.2114 -0.1551
53305W        W96218  28.262  18.976   3.978  0.0908 -0.2547 -0.0625
53306W        W96219   4.303  23.419   6.315  0.2661  0.1910  0.0234
53307W        W96220   5.984   2.052  28.478 -0.3160 -0.0270 -0.1616
53308W        W96221   7.735  14.678   3.602  0.0882  0.2066  0.1949
53309W        W96222  24.394  19.269  26.408 -0.0790 -0.2526  0.2426
53310W        W96223   4.431   8.499   8.773  0.2095 -0.4305  0.0411
53311W        W96224  27.027  30.827   6.351 -0.0115 -0.1560  0.1194
53312W        W96225   0.872   6.423   7.874  0.2327  0.2865  0.0310
53313W        W96226   8.025  17.726   8.872 -0.0814  0.1715  0.1886
53314W        W96227   7.456  10.524   6.973 -0.1071  0.2936 -0.1367
53315W        W96228   3.166  14.113   3.052 -0.0628 -0.0935  0.0970
53316W        W96229  29.571  25.794   2.652  0.0047 -0.0183 -0.1721
53317W        W96230   1.677   6.690   0.959 -0.1760  0.2171 -0.3027
53318W        W96231  17.980  13.551  29.374 -0.0388 -0.0872  0.2439
53319W        W96232   3.502  11.171   7.995 -0.1635  0.0623 -0.0639
53320W        W96233  27.141  14.846   2.358  0.2463  0.1228  0.0548
53321W        W96234   5.504  25.271   3.321  0.1796  0.1276 -0.2666
53322W        W96235  34.214  13.876   6.391  0.0607 -0.2752 -0.0100
53323W        W96236   1.160   4.393   5.304 -0.1693  0.3180 -0.2972
53324W        W96237  29.947  21.772   2.430 -0.2758  0.1263  0.2291
53325W        W96238   2.718   3.772   1.648  0.2325 -0.3115 -0.2412
53326W        W96239  10.414   6.080   3.671  0.0745  0.1384 -0.1388
53327W        W96240  27.473  19.039   9.053 -0.1934 -0.1050  0.5402
53328W        W96241   8.322  15.298   8.522 -0.1372  0.2379 -0.1378
53329W        W96242  26.987  10.302   5.818  0.2953 -0.2653  0.1732
53330W        W96243   7.649  19.514  28.192 -0.5123  0.0216 -0.0776
53331W        W96244  27.543  13.559  29.270 -0.0198  0.1612  0.1153
53332W        W96245   8.513  30.964  10.819  0.1155  0.1612 -0.2904
53333W        W96246   0.394  13.947   9.543 -0.2861 -0.0365  0.0370
53334W        W96247  27.789  19.933   7.835  0.0620  0.1115 -0.2509
53335W        W96248   4.690  13.658  29.365 -0.4251 -0.0540  0.0193
53336W        W96249   4.116  12.745   7.677  0.2244 -0.0669 -0.0004
53337W        W96250  22.313   0.189   8.105 -0.0889  0.0279 -0.1878
53338W        W96251   0.576   6.871   8.838 -0.1752 -0.1955 -0.0270
53339W        W96252  28.077  20.499  28.113  0.2233 -0.3152  0.3474
53340W        W96253  18.791  13.432   3.077 -0.4137  0.0019  0.0078
53341W        W96254   9.069  13.802   2.775  0.1839 -0.2762  0.1346
53342W        W96255  25.483   7.287   6.542  0.1098 -0.1583  0.0043
53343W        W96256  26.394  10.486   3.427  0.1390 -0.2839 -0.0923
53344W        W96257   2.832  10.488   4.748 -0.1838  0.0304 -0.0000
53345W        W96258   5.524  33.509   0.102  0.0304  0.2255  0.0523
53346W        W96259   1.338  11.746   5.048  0.0642  0.1266 -0.1415
53347W        W96260  29.832  10.501   2.365  0.1509  0.1873 -0.0707
53348W        W96261  28.463  21.524   5.070  0.3743  0.0225 -0.1486
53349W        W96262   4.578   5.958   6.656  0.2758 -0.1450 -0.2168
53350W        W96263   5.270  11.951   7.333  0.3221 -0.2009 -0.0781
53351W        W96264   1.430  11.495   7.522  0.2826  0.0441 -0.1503
53352W        W96265  31.940   2.016  10.565  0.0113  0.3366  0.0757
53353W        W96266  26.263  19.661   1.774  0.0169  0.0838  0.0712
53354W        W96267   3.451  17.187   5.454 -0.3009 -0.0405  0.0668
53355W        W96268   2.789   8.044   5.115 -0.0149 -0.1507  0.0618
53356W        W96269  24.871   5.753   3.918  0.0985 -0.2417 -0.0101
53357W        W96270  28.907  17.594   1.087  0.1728  0.0689  0.1363
53358W        W96271  24.456  21.662   8.874  0.0241 -0.3601  0.0874
53359W        W96272  33.772  20.700  29.137 -0.2276  0.1134  0.2969
53360W        W96273  30.510  21.303   6.847  0.2442 -0.0413 -0.0912
53361W        W96274  10.635  14.205   6.553 -0.2258 -0.0277  0.2715
53362W        W96275   0.228  14.922   7.831 -0.0915  0.4643 -0.1530
53363W        W96276   3.496  10.713  11.433 -0.1350  0.1226 -0.1824
53364W        W96277  33.484  13.786   0.357  0.2590  0.1565  0.0096
53365W        W96278  22.866  21.889   3.083  0.1523  0.1155 -0.0758
53366W        W96279   7.465  11.700   3.891 -0.0077  0.3166  0.1953
53367W        W96280  29.764   6.109   3.341 -0.1063 -0.1717  0.1531
53368W        W96281  25.701  10.755   8.037 -0.0332 -0.0930  0.3015
53369W        W96282   2.808   3.918  11.926 -0.3004 -0.1248 -0.2120
53370W        W96283  23.630  18.888   5.687 -0.0218  0.0903  0.3410
53371W        W96284   8.056  19.305   8.919 -0.1149  0.1130 -0.0335
53372W        W96285  33.629   5.637  28.641 -0.1363  0.2229 -0.2448
53373W        W96286   5.328  19.375   9.661  0.0541  0.0567 -0.2031
53374W        W96287   0.724  12.002   0.957 -0.2083  0.0442 -0.3848
53375W        W96288  26.851  17.439   5.243 -0.0956  0.1469  0.1837
53376W        W96289  33.281  19.450   2.253 -0.4870  0.1437 -0.0600
53377W        W96290   1.186  22.152   5.420  0.0540 -0.0907  0.0364
53378W        W96291   0.237   7.949   5.459 -0.0521 -0.0327  0.0029
53379W        W96292  21.633  11.642   1.460  0.4039  0.1726  0.1163
53380W        W96293   4.303  10.891   9.380  0.0514 -0.1056  0.3311
53381W        W96294   6.307  19.455   4.524  0.0764  0.2216 -0.2823
53382W        W96295  33.947   6.839   5.854 -0.0800 -0.1138  0.1925
53383W        W96296  29.580  10.359   1.938  0.2609 -0.1031 -0.1451
53384W        W96297  30.110  14.083   5.916  0.2352  0.0552  0.1939
53385W        W96298   3.269  19.449   3.693 -0.1708  0.1600  0.1080
53386W        W96299   4.159  24.462  25.862 -0.1756 -0.0346 -0.2768
53387W        W96300  27.534  17.341   3.951 -0.0834 -0.3079 -0.0411
53388W        W96301  10.771  15.772   3.742 -0.0235 -0.4351 -0.0405
53389W        W96302   8.917  26.286   6.546  0.0341  0.2057 -0.0869
53390W        W96303  22.623  15.480   6.868 -0.0669 -0.0711  0.0278
53391W        W96304  33.188  21.396   0.208  0.0213  0.4572  0.3540
53392W        W96305  14.509  18.772  25.290 -0.0497  0.0275  0.3785
53393W        W96306  13.130  24.853  24.986 -0.1621 -0.0798 -0.1105
53394W        W96307  30.974  16.243   7.620  0.3359 -0.1857 -0.2097
53395W        W96308   4.082  23.934   0.596  0.1018  0.2592 -0.1779
53396W        W96309  31.761  23.255  27.726  0.1900  0.2827  0.0253
53397W        W96310  28.696  31.238  23.921 -0.1033  0.2429  0.1651
53398W        W96311  10.030   7.859   3.766  0.0568  0.0563  0.2311
53399W        W96312  25.366  22.133   6.742  0.1089 -0.0308 -0.0430
53400W        W96313  28.971  13.608  29.659 -0.3522  0.0727 -0.1843
53401W        W96314   1.820  13.266  24.458 -0.1088  0.1792 -0.0496
53402W        W96315  32.593  15.638   9.983 -0.0521 -0.2111  0.3505
53403W        W96316  32.828  15.892  20.850 -0.2286 -0.0171 -0.3741
53404W        W96317  30.702  10.101   7.510  0.0967  0.2111 -0.1691
53405W        W96318  34.469   6.436  29.035 -0.0946  0.1001 -0.0081
53406W        W96319  33.133  23.625   1.196 -0.1070  0.0361  0.2936
53407W        W96320   3.538  11.312   2.165  0.3944 -0.2952  0.1085
53408W        W96321  29.966  21.236  29.700 -0.1311  0.1886  0.0770
53409W        W96322  27.552  14.166  27.467 -0.3787 -0.2913 -0.2648
53410W        W96323  33.603  16.635  22.641 -0.0580 -0.2405  0.2242
53411W        W96324  32.333  19.317   3.549 -0.4421 -0.2274 -0.4253
53412W        W96325   5.007  16.671  25.533 -0.0663  0.0396 -0.1250
53413W        W96326  33.082  23.199   9.266  0.0041  0.1595 -0.2247
53414W        W96327   6.313  13.061  28.083 -0.1605  0.0050 -0.0230
53415W        W96328  33.496  22.965   9.082 -0.1110  0.2666  0.0232
53416W        W96329   3.665  11.556   2.637  0.2725  0.2128 -0.2310
53417W        W96330   1.092  20.039  26.988  0.2409 -0.3788  0.0872
53418W        W96331   3.192  15.446   6.777 -0.1165 -0.1952  0.0977
53419W        W96332  21.092  16.501  25.299 -0.0914 -0.2588  0.1183
53420W        W96333  21.396  27.829   9.639  0.3563 -0.1054 -0.4608
53421W        W96334  31.301  21.085   2.410  0.0282 -0.1777 -0.0723
53422W        W96335  31.393  28.119   3.593  0.1226  0.0991 -0.2291
53423W        W96336   1.159   7.268   1.308 -0.0482 -0.0076 -0.6084
53424W        W96337  19.712  17.534  25.824 -0.1595 -0.2038  0.1764
53425W        W96338   1.626  17.504   7.331 -0.2022 -0.2721 -0.4437
53426W        W96339  11.224  20.663   4.160  0.5403  0.0240 -0.1500
53427W        W96340  22.870  23.465  26.014 -0.0254 -0.0872 -0.0378
53428W        W96341  30.947  15.686   3.517  0.1585 -0.2828  0.1598
53429W        W96342  27.315  24.966  22.430 -0.2333 -0.0795 -0.3894
53430W        W96343   1.169  15.931  10.305 -0.2734  0.1189  0.0670
53431W        W96344  32.323  30.481   0.936  0.1504  0.4247 -0.1809
53432W        W96345   3.863  16.826   6.997 -0.4237  0.1045  0.0492
53433W        W96346  26.728  17.699  23.177  0.0594 -0.4748 -0.0448
53434W        W96347   1.154  17.303  27.153 -0.2703 -0.0365 -0.1210
53435W        W96348  31.759  12.669  27.887  0.1799 -0.0204  0.1802
53436W        W96349  33.477  14.130   2.107  0.2814  0.0631  0.0965
53437W        W96350   0.008  17.418   7.335 -0.0907  0.1207 -0.2558
53438W        W96351   0.148  10.349   1.375 -0.0946 -0.5284  0.1628
53439W        W96352   1.465   8.862   9.972 -0.3084  0.1079 -0.2500
53440W        W96353   8.411  16.282   4.802  0.0508 -0.0940 -0.0061
53441W        W96354   3.366  10.538   3.402 -0.0807  0.0367 -0.1402
53442W        W96355  14.077   4.303  21.083  0.1500  0.2348 -0.2245
53443W        W96356  20.862  26.838  24.378 -0.1068 -0.1043  0.1789
53444W        W96357   0.450   0.439  20.454  0.1374 -0.3274 -0.1726
53445W        W96358   0.039  19.429  29.014 -0.0453  0.2632  0.0483
53446W        W96359  27.315  19.869   7.545 -0.1964  0.0577 -0.0058
53447W        W96360   0.715   9.096   4.607  0.0952  0.3973 -0.3638
53448W        W96361   0.618  20.372   8.430  0.2801 -0.1065 -0.0237
53449W        W96362   3.448  12.400  23.950  0.1689 -0.1785  0.0928
53450W        W96363   3.577   9.360   8.327  0.0200  0.0169 -0.0351
53451W        W96364   3.410   8.884   6.923 -0.0785 -0.0777 -0.1703
53452W        W96365  33.595  10.263  19.755  0.0418 -0.2450 -0.3981
53453W        W96366  29.147  16.565   0.172 -0.2622 -0.4325  0.1197
53454W        W96367   4.582  24.765   0.059 -0.0119  0.0132  0.2302
53455W        W96368  23.351  22.669   2.027  0.2800  0.1724  0.0415
53456W        W96369   6.888  20.457  16.300 -0.0725  0.3365 -0.1322
53457W        W96370  21.000  19.188   1.923 -0.2515 -0.1689 -0.1844
53458W        W96371   5.895  24.148   0.263 -0.0030  0.1665  0.2474
53459W        W96372  26.622  11.920  29.038  0.0408  0.0863  0.0049
53460W        W96373  29.054  24.315   3.237 -0.0246 -0.1730  0.2965
53461W        W96374  31.138  14.541  28.121  0.3239 -0.0976  0.1324
53462W        W96375  34.227  16.028   3.214  0.1587 -0.2468  0.1623
53463W        W96376  32.628   4.652   5.413  0.2424  0.1904  0.0976
53464W        W96377  30.680   7.974   0.346 -0.1058 -0.1057  0.2706
53465W        W96378  30.050  27.018   1.864 -0.2693  0.3876  0.2220
53466W        W96379   1.695  19.124   0.909 -0.1625  0.2041  0.0532
53467W        W96380  13.252  15.988  23.214  0.0437  0.0290 -0.0091
53468W        W96381   2.428   5.366  20.759 -0.0180 -0.0541 -0.1576
53469W        W96382  33.228  27.750  28.459  0.0398  0.5347 -0.0640
53470W        W96383   8.410  11.609   4.680 -0.1265  0.1151  0.0727
53471W        W96384   7.270  14.804   3.788 -0.0310 -0.3651  0.0887
53472W        W96385   7.851  16.890   0.869 -0.0790 -0.0923 -0.1767
53473W        W96386  33.760  17.705  25.788 -0.1748 -0.0380 -0.0305
53474W        W96387   1.572  17.278   6.291 -0.0735  0.0517 -0.0360
53475W        W96388   2.456  19.806   8.776 -0.1590 -0.2237  0.1244
53476W        W96389  30.496   2.853  21.646 -0.1974 -0.0990 -0.0174
53477W        W96390  27.299  26.380   0.706  0.1810  0.0946  0.3230
53478W        W96391  27.160  19.391   6.164 -0.0253 -0.2600 -0.1002
53479W        W96392   5.645  17.088  28.424 -0.3319 -0.0798  0.0829
53480W        W96393  32.782  13.504   8.070 -0.0236  0.1688  0.2555
53481W        W96394   5.750  16.826  19.564  0.1546  0.3160  0.0280
53482W        W96395   3.130  18.138   8.107  0.1778 -0.0371  0.3312
53483W        W96396   5.952  21.427   8.681 -0.2750 -0.0889  0.0612
53484W        W96397  34.358  17.392  24.921  0.3562  0.1457  0.1388
53485W        W96398  33.991  20.791   6.796 -0.1195  0.2952 -0.4044
53486W        W96399   3.297   5.269  24.698 -0.3646 -0.1427  0.2505
53487W        W96400  31.290  17.086  27.730  0.0961 -0.2470 -0.2575
53488W        W96401  34.208  16.867   8.037 -0.0454 -0.2636  0.1672
53489W        W96402  26.143  22.593   2.562 -0.1917  0.2428 -0.1669
53490W        W96403  31.565  18.490  27.114 -0.0043 -0.2306 -0.1373
53491W        W96404  29.279  26.693   2.336 -0.0523 -0.1241 -0.2421
53492W        W96405  26.384  30.968   5.170 -0.2509 -0.3599 -0.1305
53493W        W96406   7.018   6.693  25.413 -0.0362  0.0619  0.2148
53494W        W96407   2.976   4.278  10.288  0.2458  0.0514 -0.0171
53495W        W96408  33.449  21.171   9.244 -0.0811 -0.2128  0.0361
53496W        W96409  25.412   7.786   2.202  0.1346 -0.0270 -0.0203
53497W        W96410   2.297   4.716  26.095 -0.1858  0.1390  0.1153
53498W        W96411  26.666  23.283   3.308  0.1333  0.0029  0.1298
53499W        W96412   7.592  18.358   1.840 -0.0123  0.1124  0.1812
53500W        W96413  11.796  13.893   1.699 -0.0970 -0.0103 -0.2300
53501W        W96414  29.467  18.501   5.696 -0.2303 -0.0097  0.2194
53502W        W96415  20.494  13.729  25.559  0.0841  0.3170 -0.0487
53503W        W96416  28.395  23.575   3.407 -0.2660 -0.0061 -0.1330
53504W        W96417   1.077  12.990   2.252 -0.0138 -0.2768 -0.1317
53505W        W96418   6.140  16.021  25.152  0.0819  0.0632  0.2058
53506W        W96419   1.070  10.777  21.884  0.0980  0.1948 -0.1810
53507W        W96420   4.076  24.772  26.410  0.0934 -0.1222 -0.0291
53508W        W96421  30.074   1.029   9.235 -0.2275 -0.3014  0.2863
53509W        W96422   9.693   6.538   2.988  0.2039  0.0596 -0.0862
53510W        W96423  28.029  16.105   8.728  0.0936 -0.5052 -0.2162
53511W        W96424  28.390  18.243  21.842  0.1767  0.0818 -0.1711
53512W        W96425  28.802   8.887   7.037 -0.1151  0.3891 -0.0305
53513W        W96426  21.748  24.358  29.523  0.1156  0.1316 -0.3295
53514W        W96427  26.099  24.282   6.364 -0.0223  0.0570  0.3226
53515W        W96428   2.740  20.191  10.085  0.3899 -0.3571  0.1673
53516W        W96429  32.133  13.540  24.500 -0.0999  0.0256 -0.1537
53517W        W96430   3.523  21.940  25.466 -0.0668 -0.2755 -0.1710
53518W        W96431  32.313  12.478   4.394  0.0214 -0.0796 -0.1366
53519W        W96432  18.529  32.294  29.073 -0.1663  0.0789  0.0823
53520W        W96433  22.439  20.244   1.632  0.3300  0.0104  0.3355
53521W        W96434  29.905  15.066   0.203  0.1338  0.0127 -0.1873
53522W        W96435   2.628  27.805   6.790 -0.0212  0.0128 -0.3334
53523W        W96436   1.176  16.593  24.938 -0.0448 -0.0746 -0.0064
53524W        W96437  34.133  18.111   1.460  0.0386  0.3470 -0.0596
53525W        W96438   6.567  17.424   0.399 -0.1930  0.1787  0.0842
53526W        W96439  33.478   9.033  23.622 -0.0126  0.2825 -0.0763
53527W        W96440   2.026  12.293   3.581 -0.1184 -0.1967  0.2243
53528W        W96441  23.971  15.631  22.616  0.0489  0.3117 -0.1647
53529W        W96442   3.652  12.419   6.115 -0.0976 -0.0556  0.2965
53530W        W96443  29.196  15.047  22.869 -0.3380 -0.0909  0.2208
53531W        W96444  34.187   9.485   5.437  0.0048 -0.1950 -0.0158
53532W        W96445  25.372  16.635  20.172 -0.0667 -0.0520 -0.3109
53533W        W96446  22.431  22.894   3.833  0.3071  0.0738 -0.3752
53534W        W96447  27.203   9.879   6.686 -0.0523  0.2696  0.0465
53535W        W96448  33.134  29.637   9.499 -0.2208  0.1715  0.1730
53536W        W96449  14.893  10.725   1.214 -0.0897 -0.0196 -0.0637
53537W        W96450   2.774  21.540  20.367  0.1066  0.1050  0.1342
53538W        W96451  28.319  22.711  22.028  0.1190 -0.3248  0.0106
53539W        W96452   1.771  18.332   6.362 -0.1511 -0.1048 -0.0154
53540W        W96453  31.520   7.036  10.931 -0.2295 -0.0381  0.0136
53541W        W96454  23.037  13.839   0.891  0.2196  0.2101  0.1213
53542W        W96455  31.613   2.132  28.404 -0.1219  0.3735 -0.0662
53543W        W96456   3.643  11.398  19.185 -0.0438  0.1147  0.1200
53544W        W96457  31.132  18.929  26.326 -0.0255  0.0385 -0.0746
53545W        W96458  26.575  20.447  26.790 -0.2919 -0.1801  0.2509
53546W        W96459   9.220  20.769   4.842  0.0047 -0.2851  0.0045
53547W        W96460  26.663  12.896   2.158 -0.1698 -0.0439 -0.0437
53548W        W96461   5.436  12.167  28.993  0.0630 -0.1023 -0.0550
53549W        W96462  25.895  17.778   3.664  0.2003 -0.3096  0.0364
53550W        W96463  29.142   9.629  26.259  0.2110  0.1883  0.0530
53551W        W96464  34.471   3.186   1.114  0.1600  0.0246 -0.0474
53552W        W96465   4.126  29.232   9.507 -0.1997  0.2372 -0.4122
53553W        W96466  22.523  10.485  26.575  0.0837  0.0327  0.0266
53554W        W96467  34.021  16.326  28.692 -0.0563 -0.3095 -0.1880
53555W        W96468  26.059  17.680  28.013 -0.1762 -0.1418  0.1890
53556W        W96469   4.895  17.315   2.797 -0.0618  0.0613 -0.3748
53557W        W96470   1.132  19.600  23.941  0.3013  0.4082 -0.0606
53558W        W96471  31.799  21.107   0.522  0.3755  0.3308 -0.2835
53559W        W96472   1.378  14.782  21.951 -0.0129  0.1515 -0.0377
53560W        W96473   5.402  14.993   3.214  0.1554 -0.1188  0.0627
53561W        W96474   5.583   8.956  21.915 -0.1178 -0.0644 -0.0466
53562W        W96475  28.008  16.769   2.285  0.1015  0.1212 -0.2431
53563W        W96476  28.825   4.315  29.276 -0.1998  0.1261 -0.0206
53564W        W96477  10.204  12.371   4.454  0.3556  0.0737  0.1803
53565W        W96478  32.426   5.211  29.266  0.4229 -0.0527  0.1971
53566W        W96479  28.372  12.748  28.544 -0.1958 -0.4113 -0.0429
53567W        W96480   9.981  20.116  22.538  0.3191  0.0787  0.3445
53568W        W96481   1.665  15.794   4.215  0.1478 -0.0646  0.3124
53569W        W96482  34.192  21.228   2.146 -0.0662 -0.0353  0.0288
53570W        W96483   1.812  14.036  27.751 -0.3404 -0.1910 -0.0170
53571W        W96484  29.172  13.990   2.031 -0.4033 -0.2068  0.1640
53572W        W96485   1.105   9.818  22.766 -0.0515 -0.0482 -0.0394
53573W        W96486  33.997   6.423   5.506  0.0598 -0.1765  0.0668
53574W        W96487  32.051   3.855  27.094  0.1642 -0.0140 -0.0541
53575W        W96488   3.418  22.439   4.376  0.0821  0.0099 -0.2552
53576W        W96489   0.765  24.762   8.689  0.3112 -0.1594  0.1037
53577W        W96490  24.149  13.381  29.350 -0.1384 -0.3975  0.0144
53578W        W96491  30.918  22.064   5.946 -0.1481 -0.2318 -0.2498
53579W        W96492  34.471  13.857  25.538 -0.0265  0.0320 -0.0033
53580W        W96493  27.106  24.419  19.115  0.3131  0.1147 -0.1471
53581W        W96494   8.823  16.048   6.306  0.0236  0.0337  0.0207
53582W        W96495   1.792  13.643   6.333  0.2938  0.1084 -0.0890
53583W        W96496   0.322  17.204  21.268  0.0945  0.0091 -0.0162
53584W        W96497   2.339  14.394   6.721  0.1718 -0.1022  0.5966
53585W        W96498  12.929  15.592   6.409 -0.0809 -0.2480 -0.0099
53586W        W96499  18.874  27.188   6.673 -0.2919 -0.1460 -0.0103
53587W        W96500  27.640  16.339   6.780  0.3509 -0.0348 -0.0352
53588W        W96501  31.963  14.212  28.673  0.3382 -0.2397  0.1771
53589W        W96502  23.918  10.869  25.891 -0.0052 -0.0108 -0.0842
53590W        W96503  31.978  11.832   8.918 -0.4306 -0.0938 -0.1076
53591W        W96504  31.253  17.443   3.172 -0.0125  0.2883  0.0501
53592W        W96505  33.523  12.389  21.195 -0.0372  0.0571  0.0950
53593W        W96506  33.779  14.196  25.253  0.1586 -0.0416  0.1476
53594W        W96507  31.363  17.009   8.260 -0.1844  0.0564 -0.2290
53595W        W96508  15.412  18.398   3.295  0.0126 -0.2545  0.1981
53596W        W96509  32.757  21.540   8.788  0.0358 -0.0647 -0.1089
53597W        W96510   4.028  11.814   1.586 -0.0927 -0.1218  0.0958
53598W        W96511   0.777  20.732   2.884  0.0701 -0.0544 -0.0424
53599W        W96512   4.258  16.460   9.355  0.0473  0.0704  0.0618
53600W        W96513  25.572  23.723  28.393  0.1909 -0.3048  0.1288
53601W        W96514  32.446  12.753   3.668  0.0503  0.2420 -0.0030
53602W        W96515  30.809  11.345   3.048 -0.0497 -0.0606  0.3313
53603W        W96516   6.006   9.843   6.048  0.1173 -0.2852  0.2365
53604W        W96517   6.956  21.187   9.631 -0.0847  0.1646  0.0115
53605W        W96518   8.302  18.671   6.844 -0.1461  0.3442 -0.0912
53606W        W96519  22.418  11.953   6.054 -0.1331  0.1455  0.1179
53607W        W96520  25.578   9.720  24.928  0.0751 -0.1126  0.1822
53608W        W96521   0.639  11.072   5.182 -0.0510  0.1306 -0.0097
53609W        W96522   6.281   8.112   1.121  0.2700  0.3429  0.0582
53610W        W96523  30.355  16.930   9.529 -0.1921 -0.3346  0.1522
53611W        W96524  32.008  27.494   8.708  0.0635 -0.0778 -0.4633
53612W        W96525   8.172  21.273   0.618 -0.2658  0.3692  0.2923
53613W        W96526   3.403  15.083   4.891 -0.1284  0.1820 -0.2003
53614W        W96527   4.281  20.609   0.451  0.1190 -0.3276  0.1453
53615W        W96528  25.910  21.629   5.099 -0.1229 -0.0521  0.2420
53616W        W96529   0.298  15.647   1.111  0.2225  0.1172 -0.3030
53617W        W96530  30.311  15.487   6.437 -0.1079  0.0914 -0.0856
53618W        W96531   6.169   9.984   4.003  0.0377  0.0250 -0.0988
53619W        W96532   1.662  17.566   5.309  0.0792  0.1114 -0.2402
53620W        W96533   8.584  16.936  29.231  0.1103  0.1754 -0.1293
53621W        W96534   5.157  25.030   0.408 -0.1777  0.0353 -0.2284
53622W        W96535  29.431  20.586   9.214  0.0219 -0.1062 -0.3452
53623W        W96536   0.668  15.898   6.092  0.3431  0.0267 -0.4182
53624W        W96537  32.616  16.152   9.041 -0.0667  0.1303  0.1313
53625W        W96538  31.687  19.181   8.915  0.0503  0.0870  0.0938
53626W        W96539   0.389  15.021  28.833  0.2232 -0.0226 -0.0826
53627W        W96540   0.470  33.093   3.476  0.0002 -0.1293 -0.3118
53628W        W96541   6.140  16.128  23.616  0.1692 -0.2435  0.0751
53629W        W96542  30.635   4.661   0.401  0.1404  0.0691 -0.2537
53630W        W96543  33.763  10.565  20.593  0.2269 -0.0275  0.3669
53631W        W96544  25.132  18.887   4.510  0.1407 -0.0888 -0.1052
53632W        W96545   2.694  16.404  27.978 -0.0233  0.1398  0.2740
53633W        W96546   1.255  11.672  10.109 -0.2663 -0.0908  0.0076
53634W        W96547  29.552  17.942   4.896  0.2066  0.1646 -0.0992
53635W        W96548   6.011  20.699   2.693  0.1524  0.1248  0.2972
53636W        W96549   3.651  21.544   9.985  0.1874  0.4081 -0.1506
53637W        W96550   3.733  15.339   5.124  0.3212 -0.1163 -0.2901
53638W        W96551  10.697   9.511  28.838 -0.2547  0.0907  0.3621
53639W        W96552   2.147  18.029  29.708  0.0957  0.0503 -0.2760
53640W        W96553   2.525  25.212   8.140 -0.2406  0.3750  0.0013
53641W        W96554  22.410  18.717   3.016 -0.0503  0.0126 -0.1851
53642W        W96555  10.869  19.097   6.667 -0.1747 -0.2705  0.2484
53643W        W96556   0.677  17.164   3.620 -0.1141  0.1055 -0.2048
53644W        W96557  34.435  28.140  28.982 -0.0844 -0.0440 -0.0443
53645W        W96558   4.536  24.846   6.015 -0.0976 -0.0394  0.4620
53646W        W96559   3.249  15.365   5.331  0.2025  0.2494 -0.0230
53647W        W96560   3.226  21.510   6.077 -0.2578  0.0397 -0.0550
53648W        W96561  21.034  12.899  24.559 -0.1374  0.0883  0.1949
53649W        W96562  19.463  22.980   6.059 -0.0162  0.0364 -0.1673
53650W        W96563  34.289  17.609  27.484 -0.1688  0.0277  0.1327
53651W        W96564   8.303   6.199   7.021  0.0819  0.1309 -0.1779
53652W        W96565  26.058   4.852   8.468 -0.0124  0.0967  0.1622
53653W        W96566  25.826  16.821  28.490 -0.3096 -0.0986 -0.2441
53654W        W96567   5.906  24.091   6.898 -0.3463  0.2972 -0.1298
53655W        W96568  24.161  21.964   2.357  0.0190 -0.1839 -0.0287
53656W        W96569   4.930   4.654   3.766  0.1027  0.2156 -0.0733
53657W        W96570  33.572  15.212   2.857 -0.0729 -0.0594 -0.1697
53658W        W96571  26.248  13.377   5.437 -0.1441  0.2114 -0.3060
53659W        W96572  28.116  19.332   9.378 -0.0230 -0.4878  0.1264
53660W        W96573  33.168  11.937   9.687 -0.1572  0.0255  0.1151
53661W        W96574  26.378  23.801   1.475  0.0276  0.0665  0.0853
53662W        W96575  10.555  16.795  28.874 -0.0144  0.3200  0.2672
53663W        W96576  26.056   9.436   0.299  0.1123 -0.2419  0.0558
53664W        W96577   8.265  13.028   8.391 -0.0303 -0.0218  0.0998
53665W        W96578  18.587  17.951   3.381  0.2580 -0.0283  0.0431
53666W        W96579  32.718  15.433   4.394 -0.1566 -0.1806 -0.2219
53667W        W96580   1.321  14.127   7.154  0.2583 -0.2366 -0.1094
53668W        W96581   3.055  16.394  27.653  0.1358 -0.2017  0.1308
53669W        W96582   3.829  16.258   4.927 -0.1665  0.0777 -0.3796
53670W        W96583   2.745  15.326  29.263 -0.0276  0.1417  0.3241
53671W        W96584   0.967  27.553   4.605  0.1910  0.0906  0.2073
53672W        W96585  32.817  16.471   8.277 -0.0609  0.0057 -0.0072
53673W        W96586  34.277  14.689   7.966  0.0625  0.2956  0.0527
53674W        W96587   6.871  11.861   1.146  0.1997 -0.1731  0.2950
53675W        W96588  34.322  16.238   7.991 -0.2202  0.0050 -0.1541
53676W        W96589  23.722  17.886  28.874  0.0647 -0.0992 -0.3565
53677W        W96590   3.722   9.507  25.181 -0.2066  0.0174 -0.3104
53678W        W96591   5.112   6.911   9.601 -0.4942  0.1361  0.0574
53679W        W96592  26.742   9.814  29.101  0.0780  0.0603  0.2497
53680W        W96593  31.278  20.171   5.933  0.4956  0.0895 -0.5977
53681W        W96594  29.665   6.789  21.330 -0.0027 -0.4967  0.0500
53682W        W96595   1.340  16.898   4.090 -0.1767  0.0945  0.1241
53683W        W96596   4.351  14.850  28.827 -0.0097  0.2263  0.2416
53684W        W96597   1.328  21.452   2.718  0.2509 -0.0870 -0.0753
53685W        W96598   0.418  19.385   8.638  0.4782 -0.2463  0.3498
53686W        W96599   4.967  12.790   5.120 -0.2000  0.1756 -0.1750
53687W        W96600   7.530  15.307   1.825 -0.1268 -0.0924 -0.1562
53688W        W96601  31.308  16.075  28.994 -0.0495 -0.0750  0.0990
53689W        W96602  31.914  13.010   5.118 -0.1015  0.0816 -0.0628
53690W        W96603   4.682  15.429   8.733  0.1173  0.3795 -0.0341
53691W        W96604  24.074   2.667   7.073 -0.2058 -0.2068 -0.1776
53692W        W96605  33.608  21.354   6.179  0.1144 -0.3735 -0.0480
53693W        W96606  26.407  10.070   1.227 -0.0664  0.2309 -0.1853
53694W        W96607  24.102  15.049   6.223  0.0169  0.0836  0.4029
53695W        W96608   3.492  22.966   6.349 -0.0985 -0.1454  0.0497
53696W        W96609   0.318  20.878   6.144 -0.1840  0.1559  0.2125
53697W        W96610  31.314  13.932   8.325  0.1183 -0.0862  0.1203
53698W        W96611  25.071  22.508   6.588 -0.2731 -0.0088  0.1528
53699W        W96612   1.063  24.126  10.495  0.0031 -0.0288  0.0929
53700W        W96613   2.651  13.766  26.105  0.0218  0.1487  0.0266
53701W        W96614   2.517  16.077   0.295  0.1099 -0.0285  0.2579
53702W        W96615   9.267  16.893   1.174  0.2922  0.0137  0.0889
53703W        W96616  31.566  26.949   4.236  0.0546  0.1846 -0.1884
53704W        W96617   2.331  11.549  26.898 -0.1492  0.0369  0.3365
53705W        W96618   0.874   5.338   7.742  0.1305 -0.4092 -0.0658
53706W        W96619   5.978   9.360   5.324  0.0061  0.3585  0.0361
53707W        W96620  27.863  19.930  29.764  0.1644  0.1704 -0.1382
53708W        W96621   9.403   8.427   2.500 -0.0874  0.1679  0.0886
53709W        W96622  12.434  22.096  24.552  0.0293  0.3363  0.0455
53710W        W96623   0.988  26.870   7.670  0.1416 -0.0433  0.1961
53711W        W96624   0.264  15.362   9.598 -0.2815 -0.0198  0.1867
53712W        W96625   6.372  18.804   1.508  0.1834  0.0362  0.1319
53713W        W96626  21.997  30.727   4.190  0.3381  0.1131  0.2052
53714W        W96627  31.673  13.070   9.940  0.3954  0.0537 -0.1552
53715W        W96628   2.521  19.678   1.099  0.1983  0.2042  0.1172
53716W        W96629   4.764  22.166   8.986 -0.2089  0.1183 -0.0043
53717W        W96630  29.544  24.275   5.131  0.0454 -0.1697 -0.2856
53718W        W96631   5.842  20.353  29.734  0.3375  0.1944  0.1073
53719W        W96632  25.151  23.727  27.438 -0.0809 -0.2374  0.3065
53720W        W96633  31.790   5.672  10.046 -0.0729  0.1218 -0.2929
53721W        W96634  12.134  13.822   9.253  0.2369  0.2809 -0.4613
53722W        W96635   0.264  23.609   6.222 -0.1345  0.0637  0.0490
53723W        W96636  31.077  22.008   4.219 -0.4034  0.2049  0.0702
53724W        W96637   2.302  19.295   0.672  0.2247 -0.2142 -0.0829
53725W        W96638   2.177  17.302   8.931  0.1124  0.2335  0.2199
53726W        W96639  29.163  23.408   8.595 -0.0805 -0.0897 -0.2747
53727W        W96640   8.857  13.596  21.166  0.0698  0.0970 -0.0910
53728W        W96641   0.776  20.435   3.778  0.0915  0.1190  0.5808
53729W        W96642  34.040  15.774   3.752 -0.2435 -0.3662 -0.2391
53730W        W96643   7.786   2.962  12.789 -0.2650  0.0041 -0.2900
53731W        W96644  30.833  17.838   7.418 -0.1193  0.3025 -0.0025
53732W        W96645  32.675  18.021  27.048  0.0120  0.0057 -0.6382
53733W        W96646  33.670   5.041   5.401 -0.3825 -0.1271 -0.4478
53734W        W96647   0.206  21.199   2.013  0.1511 -0.1622  0.0833
53735W        W96648   2.976  12.570  10.372  0.1867  0.1458  0.0736
53736W        W96649   3.065  24.427   3.948  0.2078  0.0688  0.0538
53737W        W96650  22.567  16.568  24.172  0.0472  0.1320 -0.2080
53738W        W96651   8.693  19.156   3.140  0.1847 -0.1273  0.1155
53739W        W96652   4.141  14.017   9.105  0.0469 -0.0314 -0.0933
53740W        W96653   2.531   6.891  11.892  0.1698  0.1391 -0.4500
53741W        W96654  31.986  20.233   0.194  0.3069 -0.2802  0.0713
53742W        W96655   0.692   7.680  20.143  0.1068 -0.0430 -0.1294
53743W        W96656  33.462   9.702   0.901  0.1932  0.2377 -0.0918
53744W        W96657  31.177  17.087   7.269  0.1129  0.0813  0.0496
53745W        W96658  34.388  11.808   8.998 -0.0809  0.0175  0.1316
53746W        W96659   2.894   7.544   9.278 -0.1638 -0.0365  0.2180
53747W        W96660   7.686  29.238   8.750 -0.0440 -0.1021 -0.1048
53748W        W96661  32.703   7.669   0.236  0.3690 -0.0561  0.1358
53749W        W96662  34.121   7.454   4.123 -0.1285  0.2395 -0.2253
53750W        W96663   7.919   4.906   8.614  0.1099 -0.2243 -0.0041
53751W        W96664  19.190  16.844   6.584 -0.1616 -0.3065 -0.2164
53752W        W96665  34.152  17.025   4.897 -0.1581 -0.0268  0.4326
53753W        W96666  26.704  22.766   6.177  0.0504 -0.0828 -0.0452
53754W        W96667   0.068  24.838   9.873 -0.0798 -0.2434  0.2850
53755W        W96668  12.654  17.527   3.161  0.3233  0.1469 -0.0453
53756W        W96669   0.433  21.842  29.350 -0.1281 -0.1371 -0.3265
53757W        W96670  31.001  11.892   8.517  0.1925 -0.1452  0.3418
53758W        W96671  27.373  13.787   9.604 -0.0780 -0.3010  0.0518
53759W        W96672  16.013  14.024   0.603 -0.2611  0.2216 -0.1605
53760W        W96673  29.580   9.221   6.353  0.0063 -0.5449 -0.1082
53761W        W96674   2.441   7.168   2.234  0.1999 -0.2308 -0.2014
53762W        W96675   0.671  12.618   2.132  0.1135 -0.1208  0.0197
53763W        W96676  33.764  11.795  28.686 -0.1354  0.2151 -0.1358
53764W        W96677  17.250  16.396  26.168 -0.1105 -0.2609  0.3073
53765W        W96678   2.923  13.634   2.870 -0.2443  0.1060  0.0254
53766W        W96679   5.357   7.050   7.995  0.0648  0.0660  0.0457
53767W        W96680  31.725  18.092   2.740  0.1399 -0.1841  0.1446
53768W        W96681  30.111   6.578   6.658 -0.0297  0.0498 -0.0896
53769W        W96682  12.277  20.958  28.533  0.2646  0.0423 -0.2378
53770W        W96683   1.707  21.473   1.140  0.0629  0.1127  0.1034
53771W        W96684   7.319  16.218  29.679 -0.1325 -0.3089 -0.0005
53772W        W96685   4.470  12.652   4.941  0.0403 -0.1410  0.2088
53773W        W96686   8.866   5.973   7.153  0.0541 -0.2100  0.2923
53774W        W96687   9.876  15.461   2.603  0.0959 -0.2762 -0.2600
53775W        W96688   0.210   9.700   9.574 -0.0681  0.1359 -0.0601
53776W        W96689  24.481  12.372   8.265 -0.1627 -0.1109  0.2122
53777W        W96690   1.384   8.340   6.973  0.0454 -0.2340  0.2044
53778W        W96691  34.148  22.595   8.158 -0.1066 -0.1227  0.3468
53779W        W96692  32.451  18.026   5.996 -0.0301 -0.2247 -0.1332
53780W        W96693   3.714  21.793   2.417 -0.0563  0.0601  0.0824
53781W        W96694  13.011  26.008  10.510  0.0189  0.0697 -0.2441
53782W        W96695  29.895  16.454   3.363  0.1303 -0.1787 -0.0686
53783W        W96696   2.230  10.265   0.704 -0.2427 -0.0167 -0.0404
53784W        W96697  28.786  20.520   8.843 -0.2458 -0.0863 -0.2586
53785W        W96698  27.237   6.182   6.401 -0.1354 -0.0229  0.1224
53786W        W96699   7.824  22.701   1.357 -0.0235 -0.3604 -0.0921
53787W        W96700  29.535  20.542  27.743  0.2077  0.0389  0.0507
53788W        W96701  31.625  10.563   4.816  0.1884  0.3602 -0.0435
53789W        W96702   6.363   5.982   2.140 -0.2182  0.1638 -0.0034
53790W        W96703  34.142   9.454   6.857  0.0607  0.2494  0.0454
53791W        W96704  23.767  20.288  27.809  0.1962  0.1887  0.2100
53792W        W96705   6.066  13.255   8.105 -0.2224 -0.0206  0.1109
53793W        W96706   0.758  27.377   7.574 -0.1920  0.0820 -0.3056
53794W        W96707   2.294  17.114   5.825  0.3171  0.1707 -0.2644
53795W        W96708   1.615  21.216   3.291 -0.0537 -0.1081 -0.3041
53796W        W96709   4.025   8.290   6.696 -0.1703 -0.2683 -0.1598
53797W        W96710  33.439  15.643   4.971  0.0226  0.2179 -0.0789
53798W        W96711   1.583  14.397   1.693 -0.1697  0.0359  0.1779
53799W        W96712   7.172  17.937   7.234 -0.2369 -0.2104 -0.0094
53800W        W96713  33.481  12.509   8.045 -0.0671  0.0571  0.4573
53801W        W96714  33.524   4.186   9.896  0.3279  0.2732 -0.3430
53802W        W96715  28.168  11.157   7.419  0.1800 -0.1857  0.1176
53803W        W96716   4.793  10.770   6.831  0.1975  0.0306 -0.4038
53804W        W96717   1.615  14.852   7.301 -0.1922 -0.1733 -0.1664
53805W        W96718  32.749   3.736   9.968 -0.0215  0.0059  0.0846
53806W        W96719  25.877  14.890   3.554  0.0924 -0.1029  0.2768
53807W        W96720  30.704  13.326  27.994  0.1486 -0.2479  0.3375
53808W        W96721  31.390   2.121   9.663 -0.2960 -0.2691 -0.0431
53809W        W96722  33.826  16.395   9.175  0.0455  0.0638 -0.1029
53810W        W96723   0.846  15.202  25.933 -0.3399 -0.0715 -0.2974
53811W        W96724  30.295  16.857   4.050 -0.0840 -0.3518 -0.0688
53812W        W96725  29.112   8.636  29.465  0.1005  0.0376 -0.0926
53813W        W96726   0.057  14.517   7.557  0.1654 -0.0274 -0.1004
53814W        W96727  27.126  24.305  27.144  0.0787 -0.0587 -0.2519
53815W        W96728   9.947  24.617  10.669  0.0481  0.2969  0.0372
53816W        W96729  27.361  33.714  29.395  0.1232 -0.0268 -0.1429
53817W        W96730  30.872  16.757   4.971  0.1160  0.0670  0.2390
53818W        W96731  32.029  10.215   5.075 -0.0476  0.3618 -0.0668
53819W        W96732  30.143   4.512  28.767  0.1118 -0.1025  0.2276
53820W        W96733  22.749  18.177   2.282 -0.2001  0.1313  0.1867
53821W        W96734   3.049  26.913   5.853 -0.1633 -0.0810 -0.2365
53822W        W96735   7.046  19.003   8.185 -0.3182  0.1083 -0.1600
53823W        W96736   1.100   7.232  10.350  0.0453  0.1168  0.2911
53824W        W96737   0.512  22.026  10.232  0.0129  0.0236 -0.2173
53825W        W96738   9.164  19.171   5.155  0.0869 -0.0128 -0.5141
53826W        W96739   2.446  25.449  10.380 -0.1383  0.1258  0.1221
53827W        W96740  33.558  15.964  24.468  0.2745 -0.2745 -0.0658
53828W        W96741  33.889   2.487  10.975 -0.0652  0.2384  0.3423
53829W        W96742   1.201  25.610   8.495 -0.0003 -0.1034  0.2379
53830W        W96743  32.887  16.299   2.361 -0.2278 -0.0289 -0.2964
53831W        W96744  19.028  10.801  26.374 -0.1346  0.1708 -0.1792
53832W        W96745   2.435  15.424   9.582 -0.0167  0.0048  0.0097
53833W        W96746  33.942   8.199  28.826  0.3301 -0.0823 -0.0188
53834W        W96747   6.846  11.622   2.065  0.0819  0.0439 -0.1452
53835W        W96748   6.128  10.470   8.895  0.2803 -0.1461  0.2733
53836W        W96749  33.435  13.570   5.983  0.1536 -0.1084 -0.0895
53837W        W96750  27.543  23.341   2.431  0.0103  0.0136  0.1424
53838W        W96751  27.946   8.486   5.424 -0.2693  0.0343  0.0029
53839W        W96752  31.360  13.827   3.751 -0.3444  0.1297  0.1434
53840W        W96753  32.646  20.142   2.233  0.3691  0.2550  0.0442
53841W        W96754   5.810  18.310   2.373 -0.1143  0.2194  0.3240
53842W        W96755   5.902  20.897  28.798  0.0272  0.1269 -0.0889
53843W        W96756  30.193  21.311   5.921 -0.4222 -0.0133 -0.1223
53844W        W96757  27.014   9.392   5.810 -0.4368 -0.3302 -0.1505
53845W        W96758  19.560  21.406   3.112 -0.2682 -0.0370 -0.0083
53846W        W96759   1.657   5.038   6.089 -0.1896  0.4594 -0.2042
53847W        W96760   6.970   9.890   4.417  0.1079 -0.0381  0.3123
53848W        W96761  32.868   4.881  10.713  0.4056 -0.0375  0.3235
53849W        W96762  30.934  16.119   8.340  0.2855 -0.1987 -0.2383
53850W        W96763  32.086   2.374   5.253 -0.1455 -0.0160  0.3223
53851W        W96764  34.166  16.357   6.441 -0.0510 -0.0564  0.3494
53852W        W96765  33.845   3.807   4.397 -0.2270  0.3024  0.0329
53853W        W96766  10.720   7.604  29.775  0.2296  0.2507  0.2412
53854W        W96767  33.623   6.186  11.567  0.0370 -0.1440 -0.2913
53855W        W96768  32.025  13.735  26.196 -0.1867  0.2886 -0.0097
53856W        W96769  34.305  20.946   5.718  0.1477  0.1878  0.2700
53857W        W96770   0.987  15.618   1.426  0.0743  0.2920 -0.1005
53858W        W96771  31.816  16.053   0.815  0.1449  0.1471 -0.0584
53859W        W96772   0.112   6.646   9.461  0.0397  0.0590 -0.0354
53860W        W96773   0.437  23.160   6.250  0.0455 -0.2634  0.2533
53861W        W96774  33.518  14.759   0.303  0.0247  0.1937  0.3246
53862W        W96775  25.219  15.247   7.146  0.1531  0.1054 -0.2355
53863W        W96776  24.589  20.408   2.495  0.1585 -0.0063 -0.3623
53864W        W96777  29.204  22.039   8.989  0.0790  0.4298  0.1801
53865W        W96778  30.417   7.360  24.681  0.4433  0.0274  0.1011
53866W        W96779   2.693   9.536   8.980 -0.2636  0.1989  0.1361
53867W        W96780   2.037  33.652   6.484 -0.0817  0.1708 -0.0753
53868W        W96781  28.145  21.733   8.242  0.1043 -0.1116 -0.0646
53869W        W96782   6.289   9.955   4.993 -0.1732 -0.0240 -0.3456
53870W        W96783   3.530   8.887   2.855 -0.1205 -0.0412  0.0917
53871W        W96784  29.884   5.563   8.920  0.0149 -0.2239 -0.1844
53872W        W96785  31.618   5.354  12.189 -0.0853 -0.1423 -0.3098
53873W        W96786  33.742  23.397  26.838  0.3099 -0.1645  0.2754
53874W        W96787   4.047  13.608   7.078 -0.0233 -0.1233  0.3308
53875W        W96788  29.083   9.120   9.537  0.0960 -0.0084  0.0270
53876W        W96789   1.436   7.564   8.209  0.1305  0.0431 -0.1004
53877W        W96790  32.460  16.035   2.169  0.1608 -0.0577  0.0526
53878W        W96791   0.290   8.829  11.183  0.0709  0.0113  0.3095
53879W        W96792   1.142  20.839   6.448  0.0286 -0.1116  0.3126
53880W        W96793  33.904  22.880   5.567 -0.2238  0.0476  0.1806
53881W        W96794   2.947  20.726   2.064 -0.1241  0.2174 -0.3283
53882W        W96795   5.743  11.550  10.805  0.1556  0.1711 -0.0035
53883W        W96796  29.687  12.251   2.438 -0.3506 -0.1086  0.2474
53884W        W96797   1.913  18.225   4.697 -0.0298 -0.0240  0.0611
53885W        W96798  28.381   3.416   9.712 -0.1295 -0.0945 -0.1055
53886W        W96799  33.265  21.107   5.868  0.0264  0.2029 -0.0470
53887W        W96800   2.441  13.758   1.153 -0.0922 -0.1110 -0.1442
53888W        W96801  10.779  17.441   5.698 -0.0374 -0.2952 -0.3857
53889W        W96802   2.237  11.015   6.334 -0.3483  0.1109 -0.3497
53890W        W96803  30.488   8.351   3.123  0.0969 -0.3498 -0.0627
53891W        W96804   1.624  23.164   8.017  0.3325  0.0321  0.1132
53892W        W96805   5.806   7.372   8.160 -0.3285 -0.2270  0.1903
53893W        W96806  20.362  20.962  27.216  0.1913  0.3947 -0.3060
53894W        W96807   0.486   5.154  10.460 -0.0607  0.3349 -0.3447
53895W        W96808  29.106  19.499   8.593 -0.0175 -0.2895 -0.3047
53896W        W96809  33.596  19.436   1.841 -0.0247  0.0719 -0.1239
53897W        W96810  18.633  17.200  29.445  0.2961  0.2226 -0.0462
53898W        W96811   4.782   0.048   9.889  0.0165  0.1437  0.0466
53899W        W96812  29.934   4.044   5.659  0.0920  0.4457 -0.0048
53900W        W96813   3.142  19.425   5.891 -0.1923 -0.0320  0.1477
53901W        W96814  20.515  13.018  28.384 -0.0369 -0.1829  0.1735
53902W        W96815  34.083  16.120   8.442  0.0441  0.0631  0.2396
53903W        W96816  11.627  15.340   5.234  0.2322  0.1895 -0.2621
53904W        W96817  30.247  18.930   8.413 -0.0947  0.0373  0.0394
53905W        W96818  33.319  22.393   6.137  0.0207  0.1096 -0.0590
53906W        W96819   4.318  14.595   5.092 -0.3036  0.0881 -0.0619
53907W        W96820   8.341  25.087   5.208 -0.1196  0.0649  0.3878
53908W        W96821  33.346  26.306   2.897  0.1153  0.2101 -0.0889
53909W        W96822  11.990   0.934   0.448  0.3099  0.1364 -0.0517
53910W        W96823  23.677  27.482   6.802  0.0143  0.3617 -0.3672
53911W        W96824  25.923  21.408   9.339 -0.0760  0.1841  0.3336
53912W        W96825  34.047   3.214   8.637 -0.1461  0.2996  0.0671
53913W        W96826  33.562  20.847  26.337  0.4097 -0.0038 -0.0235
53914W        W96827  32.180  21.694   4.279  0.0970 -0.1211  0.0774
53915W        W96828   5.838  14.893   3.460  0.2621  0.0973  0.0944
53916W        W96829  31.505  22.248   9.032  0.0582 -0.0669  0.1718
53917W        W96830  31.621  31.955   7.809  0.0591  0.3585  0.4378
53918W        W96831   0.068  16.832  28.705  0.1097 -0.2585 -0.0592
53919W        W96832  25.771  24.134   2.727 -0.2047 -0.0681 -0.2656
53920W        W96833  26.726  20.094   6.573  0.2089 -0.1385  0.2647
53921W        W96834   3.007  11.952   3.545 -0.0961 -0.0109 -0.0440
53922W        W96835   3.752  21.195   3.185 -0.1127 -0.3408  0.0479
53923W        W96836  28.636  14.577   6.868 -0.1019  0.2856 -0.1870
53924W        W96837   4.949  18.649   7.367 -0.2963  0.0954  0.0782
53925W        W96838  31.536  16.027   5.991  0.0162  0.2955  0.1377
53926W        W96839  14.238  15.193  26.603 -0.0011  0.3539  0.2038
53927W        W96840   6.998  30.015  29.735  0.1636 -0.2927  0.2218
53928W        W96841   0.654  21.146   1.860  0.1632 -0.3176  0.1957
53929W        W96842  29.435  13.732   9.394 -0.0120  0.1668 -0.1003
53930W        W96843   0.461  15.320   7.945 -0.1537 -0.1844  0.2322
53931W        W96844  26.628  13.714   5.469  0.1628  0.2582 -0.0206
53932W        W96845  13.255  18.084  29.063  0.0673  0.1232  0.0696
53933W        W96846  33.899  12.407   0.049 -0.2516  0.2042 -0.0836
53934W        W96847   6.608   5.525   1.958  0.0794 -0.1442  0.0789
53935W        W96848   3.161  11.226   4.282 -0.0713  0.1672  0.2188
53936W        W96849  33.435  25.246   6.858  0.6106  0.1241  0.3086
53937W        W96850  24.728   7.656   5.512  0.0586  0.0430  0.0464
53938W        W96851  25.747  20.265   8.849  0.2160  0.0360 -0.0373
53939W        W96852  25.657  30.457   7.416 -0.0133  0.2000 -0.3463
53940W        W96853  29.053   6.723   3.863  0.0670 -0.2962  0.0078
53941W        W96854  33.201  24.493  27.542  0.1422  0.2234  0.1015
53942W        W96855  33.941   9.836   5.045 -0.2271  0.0382  0.0771
53943W        W96856  33.167  13.140   3.112  0.3297 -0.5057  0.1537
53944W        W96857   7.795   7.378   9.374  0.3356  0.2395 -0.0197
53945W        W96858   2.201  21.107   4.936 -0.1516  0.1430  0.1617
53946W        W96859  17.708  17.040  29.598 -0.1354  0.2590 -0.5115
53947W        W96860  31.004  10.687   7.346 -0.2008  0.0304 -0.3010
53948W        W96861  26.264  18.192   6.906  0.1498 -0.0084  0.3469
53949W        W96862  19.344  15.458   0.724  0.0352 -0.1258  0.0443
53950W        W96863   7.882  13.159   1.074 -0.4533 -0.0377  0.0581
53951W        W96864  33.744  16.567   6.715  0.0631 -0.2276  0.0983
53952W        W96865  31.237   7.383   5.936 -0.1411 -0.3584  0.1625
53953W        W96866  32.189  12.074   4.083 -0.2044  0.3296 -0.1785
53954W        W96867  26.024  18.094   7.751 -0.0794 -0.1274 -0.0728
53955W        W96868  24.798   6.680   7.992 -0.0471 -0.1775 -0.0631
53956W        W96869  32.355  10.951   8.703 -0.2845 -0.0901 -0.0715
53957W        W96870   8.987  14.493   4.972 -0.1928  0.2809  0.4563
53958W        W96871   0.232  15.701   6.832  0.0538 -0.0094 -0.2605
53959W        W96872   0.226  12.986   9.942  0.0711  0.1990  0.1268
53960W        W96873   5.131  10.657   4.458  0.1130  0.1397  0.4094
53961W        W96874  30.939  17.588  28.631  0.0559  0.1587  0.1276
53962W        W96875  25.436  20.735   2.160 -0.2361  0.1790 -0.3451
53963W        W96876   0.401   1.331   4.172 -0.3111 -0.1938 -0.1084
53964W        W96877  32.101   4.716   8.536  0.0345  0.0215  0.1774
53965W        W96878  29.760  10.768   3.843 -0.0124 -0.0547 -0.2514
53966W        W96879   0.427   4.112  11.714  0.3396 -0.1737  0.1871
53967W        W96880   8.412  34.244  12.699  0.1419  0.0453 -0.1212
53968W        W96881  11.643  14.177   9.312 -0.1516  0.1801 -0.0449
53969W        W96882  28.775  28.033   7.909 -0.1625  0.0305 -0.2699
53970W        W96883  25.960  22.993  26.870  0.3296  0.2314  0.1722
53971W        W96884  12.467   7.469   5.870 -0.5766  0.0877  0.0733
53972W        W96885   3.714  14.001   3.018 -0.3436 -0.3932  0.2627
53973W        W96886  15.157  18.858   8.401 -0.2845 -0.1699  0.0622
53974W        W96887  34.198   7.260  23.372  0.2659  0.2250 -0.3513
53975W        W96888   0.585   8.610  12.245 -0.0108 -0.0662 -0.0419
53976W        W96889  32.138  20.911   9.052  0.0190 -0.0951  0.0055
53977W        W96890  21.827  27.750   3.347 -0.0171 -0.2183 -0.0570
53978W        W96891   1.532  24.009   6.164 -0.2039  0.1660  0.4333
53979W        W96892  27.838  23.402   6.314 -0.2634 -0.4648  0.1865
53980W        W96893  31.481   5.715  11.025 -0.1057 -0.0837  0.1023
53981W        W96894   6.585  12.512   8.161  0.0736  0.0737  0.0918
53982W        W96895  30.142  15.595   7.790  0.1486  0.1640  0.0953
53983W        W96896  33.687  15.160   9.329  0.0951  0.1130 -0.0842
53984W        W96897  33.898  13.887   4.577  0.0957  0.1015  0.1491
53985W        W96898  33.961  14.574   0.539  0.1944  0.0607  0.0376
53986W        W96899   0.380  19.731   4.417  0.0298  0.0627  0.3481
53987W        W96900  33.003  16.878   6.921  0.0252  0.3710  0.2828
53988W        W96901  32.381   7.844   5.492 -0.0205  0.1321 -0.2785
53989W        W96902   1.244  15.466   4.404  0.1662  0.2033 -0.0622
53990W        W96903   7.947   7.135   8.103  0.0876 -0.1515  0.0764
53991W        W96904  28.838  11.052   8.664  0.1438 -0.0472  0.0909
53992W        W96905   1.740  23.170   8.877  0.3626 -0.0322  0.0851
53993W        W96906  33.232  19.223   3.420 -0.0743 -0.2951 -0.0328
53994W        W96907  20.412  13.576  26.382 -0.1541 -0.2180  0.0534
53995W        W96908   4.828   8.975   5.930  0.1671  0.2419  0.0510
53996W        W96909  34.059   8.214   7.978 -0.1187  0.1360 -0.2991
53997W        W96910   0.420  11.153  28.128  0.1763  0.2142  0.1253
53998W        W96911  30.989  25.812   7.738 -0.0887  0.1990 -0.2399
53999W        W96912  19.762  10.792   1.575 -0.1819 -0.1812  0.1138
54000W        W96913  24.954  30.244   5.501  0.0323 -0.0582 -0.1099
54001W        W96914   0.710  17.225   1.585  0.0751 -0.1378 -0.2916
54002W        W96915  28.175  25.325   0.870  0.1838 -0.2437 -0.0893
54003W        W96916  30.017  22.719   1.725  0.1690  0.0390  0.1229
54004W        W96917  26.306  28.090  23.670  0.1438 -0.2391 -0.0800
54005W        W96918   1.296  14.228   3.270  0.0824  0.0459 -0.1388
54006W        W96919   5.766  14.981  24.644 -0.1216  0.1845 -0.0087
54007W        W96920   0.491  29.485  27.841 -0.1651 -0.1370 -0.0805
54008W        W96921  33.100  22.211  24.308  0.0600 -0.2504 -0.0687
54009W        W96922  34.253  23.159   7.508 -0.0577  0.2152 -0.0249
54010W        W96923  20.709  12.385   0.375 -0.1322  0.1270  0.0355
54011W        W96924  33.001  14.049  28.202 -0.1809 -0.0367 -0.2442
54012W        W96925  32.059  14.260   4.514  0.1186 -0.0012  0.2760
54013W        W96926  31.107   0.053   3.606  0.1402  0.0249 -0.1154
54014W        W96927   5.423   0.458  26.711  0.2318  0.1421  0.2223
54015W        W96928  31.298  15.117   4.707  0.1336  0.0062  0.1751
54016W        W96929   5.407  14.407  19.819  0.1612 -0.2716  0.0456
54017W        W96930  30.466  18.507  29.129  0.0438  0.1037  0.1215
54018W        W96931  32.320  31.628  28.194 -0.1092  0.0065 -0.1512
54019W        W96932  30.929  17.115   0.109 -0.0252  0.2949  0.2940
54020W        W96933  33.824  18.971   5.961 -0.1033  0.1272  0.2352
54021W        W96934  31.009   2.642   1.899  0.2306 -0.0684 -0.0605
54022W        W96935  28.315  30.938   6.837 -0.1105 -0.0959  0.2081
54023W        W96936  31.804  21.143  23.448  0.0073 -0.0688 -0.1585
54024W        W96937  29.239  22.633   6.804 -0.0263 -0.0866 -0.0189
54025W        W96938  33.180  26.306  24.289  0.2383  0.0240 -0.1722
54026W        W96939   3.444  22.252   0.942 -0.1784 -0.3896  0.0569
54027W        W96940  26.033  24.559   5.871 -0.0858 -0.2373  0.2604
54028W        W96941  28.751  22.899  27.711 -0.0268  0.3394 -0.1573
54029W        W96942   3.789  20.253   1.071  0.0592  0.1074  0.1653
54030W        W96943   1.813  18.387   3.057 -0.1877  0.1376 -0.0354
54031W        W96944  14.973  19.849   4.663  0.1002  0.3483  0.0073
54032W        W96945  18.415  14.415   2.603 -0.1792 -0.1588 -0.1593
54033W        W96946   3.781  16.068   7.326  0.0285  0.1078 -0.0672
54034W        W96947   9.474  29.108   6.559  0.1560  0.0030 -0.3418
54035W        W96948  33.600  25.593   2.167  0.0493 -0.0666 -0.2381
54036W        W96949  29.385  17.357  18.503 -0.2349 -0.3027  0.2664
54037W        W96950   4.649  22.301  29.312 -0.3213  0.3545  0.3749
54038W        W96951  34.202  22.546   2.145 -0.1039  0.1635  0.1807
54039W        W96952  28.540  17.597  24.682  0.0361  0.1171  0.0607
54040W        W96953  26.070   0.935  10.465  0.2760  0.0197  0.2903
54041W        W96954  21.845   9.006   2.214  0.2240  0.0603  0.0095
54042W        W96955  29.149  16.963   7.444  0.1938  0.2933  0.0103
54043W        W96956  33.726   9.497   5.642  0.2398  0.1652 -0.1359
54044W        W96957  34.350  32.949  20.298 -0.0587 -0.0702 -0.2136
54045W        W96958   0.761  17.752   7.349 -0.0286  0.2638 -0.2919
54046W        W96959  10.622  23.343  29.627  0.0719 -0.1644 -0.0825
54047W        W96960   2.077   4.337  25.852  0.2327 -0.0156  0.0564
54048W        W96961  32.530  22.322   7.791 -0.1533  0.4619  0.1302
54049W        W96962  26.677  19.011   7.270  0.0422  0.2594 -0.1493
54050W        W96963  23.280  23.473  28.072  0.0034  0.1746 -0.2467
54051W        W96964  32.567  22.184   0.244 -0.4979  0.2403  0.0378
54052W        W96965   1.026  21.905   6.421  0.1156 -0.1411  0.0248
54053W        W96966  33.130  24.072   1.662  0.1042 -0.2239 -0.0163
54054W        W96967  12.065  15.987  26.286 -0.1938  0.1985 -0.0247
54055W        W96968   3.045  14.638   3.510 -0.0257 -0.2653 -0.2444
54056W        W96969  12.691  16.156  25.847  0.3558  0.3184  0.1463
54057W        W96970   0.079  24.102   3.973 -0.0812  0.2365  0.0858
54058W        W96971  15.704  27.373   6.398 -0.0818 -0.2746  0.0928
54059W        W96972  30.902  18.377   5.263  0.1053  0.2760  0.4626
54060W        W96973  21.544   6.329   4.477 -0.4959  0.0020 -0.1852
54061W        W96974  33.352  17.289  21.870 -0.1117  0.2557  0.2329
54062W        W96975   5.625  15.782   0.449 -0.1203 -0.0903 -0.3070
54063W        W96976  34.234  26.931   7.525 -0.2370  0.0278 -0.0156
54064W        W96977   2.777  16.402  28.938 -0.2398  0.2061  0.3269
54065W        W96978  27.865  14.922   4.692  0.1639 -0.4600  0.1282
54066W        W96979  25.662  19.411  28.517 -0.0816  0.2950 -0.2466
54067W        W96980   3.940  15.609   3.173  0.2772 -0.0332 -0.2235
54068W        W96981  26.205  20.948   1.148 -0.0139 -0.2935 -0.2227
54069W        W96982  33.784   9.367  29.744 -0.1343 -0.1214 -0.1038
54070W        W96983   1.439  20.644   5.378 -0.0729  0.2944 -0.1992
54071W        W96984   1.196  15.495   0.959 -0.1272 -0.0725  0.0647
54072W        W96985  26.470  11.464   5.857  0.0431 -0.1705 -0.2265
54073W        W96986  31.864  30.084  28.982 -0.2200 -0.0108  0.0595
54074W        W96987   7.008  18.327   3.165 -0.1250  0.3565  0.0358
54075W        W96988  33.616  15.350   3.775 -0.1689  0.2957  0.2896
54076W        W96989  33.244  16.964  22.830 -0.1585 -0.2220  0.0215
54077W        W96990   1.856  25.267   1.838  0.0533 -0.1760 -0.1352
54078W        W96991   5.996  20.699   1.454  0.0875 -0.0162 -0.0041
54079W        W96992   1.464  13.072  27.942  0.4211  0.3343  0.1148
54080W        W96993  31.409  25.591   6.964  0.1627 -0.0373 -0.1354
54081W        W96994  19.776   9.621  26.351  0.0317  0.1131 -0.0627
54082W        W96995   2.590  21.803  24.082  0.1172 -0.2884  0.0936
54083W        W96996   5.813  12.877   1.558 -0.0234 -0.1502 -0.0642
54084W        W96997  30.569  23.438  24.872  0.2476  0.2547  0.0010
54085W        W96998  31.004  29.782  25.097  0.0423  0.1032 -0.1765
54086W        W96999  24.020  16.201   3.894  0.0337 -0.1112 -0.2020
54087W        W97000  30.630  28.188   1.804 -0.0472 -0.0552 -0.0667
54088W        W97001  30.984  30.007  28.269  0.2427  0.0143 -0.0654
54089W        W97002  15.764  23.725  22.185  0.0972 -0.0991  0.2624
54090W        W97003  25.156  29.142   0.612 -0.1573 -0.0660 -0.0230
54091W        W97004  25.274  26.940  21.137  0.0109  0.1576  0.0868
54092W        W97005   0.121  20.457   5.014  0.2719  0.0772 -0.0011
54093W        W97006  29.367  18.324   5.159  0.0638  0.1605  0.0549
54094W        W97007  28.332  13.830   7.489  0.2339 -0.1505 -0.1237
54095W        W97008  21.149  19.736  17.488  0.2541 -0.3122  0.0751
54096W        W97009  21.240  14.785  22.146 -0.0194  0.1740  0.1145
54097W        W97010  30.131  17.201   4.532  0.2181 -0.1377 -0.1105
54098W        W97011  28.268  23.374   2.607  0.1967 -0.0292 -0.2287
54099W        W97012  33.550  18.515  24.251 -0.0060 -0.0885 -0.1563
54100W        W97013  33.726  26.654   9.967  0.0368 -0.0803 -0.1458
54101W        W97014   6.356  19.237  29.310  0.1013  0.2287 -0.0793
54102W        W97015  18.613  31.791  26.528  0.1340 -0.2373  0.1168
54103W        W97016  23.554  24.249   5.352 -0.1591 -0.2437 -0.2954
54104W        W97017   4.675  13.562  24.311 -0.1859 -0.0483  0.1064
54105W        W97018   6.006  29.604  28.077  0.0021  0.0592  0.3833
54106W        W97019   5.158  30.531   6.710  0.0526  0.2157  0.0797
54107W        W97020   3.250  13.211   4.170 -0.1420 -0.2665  0.0378
54108W        W97021  27.054   1.773  27.335  0.0870  0.0263  0.3796
54109W        W97022   2.381  20.228   3.052  0.0214  0.1926  0.0619
54110W        W97023  25.819  13.250   0.674 -0.1214  0.0314  0.0297
54111W        W97024  19.490  15.040   2.148  0.0639 -0.1354  0.1584
54112W        W97025  34.016  13.679   3.110  0.0332 -0.0613 -0.2097
54113W        W97026  28.365  25.987  23.818  0.2985  0.0918 -0.0744
54114W        W97027   4.840  21.241   3.377  0.0766  0.5440 -0.1188
54115W        W97028   0.907  11.441   7.546 -0.0070  0.1673 -0.0143
54116W        W97029   2.021  20.626   1.591 -0.1736 -0.2129 -0.0086
54117W        W97030  31.650  21.256   1.520  0.1100 -0.0491 -0.0460
54118W        W97031  16.174  17.608   1.217 -0.2163 -0.1434  0.0283
54119W        W97032   2.308   8.458   5.601 -0.2667 -0.0379  0.0082
54120W        W97033   2.948  17.867   3.114 -0.1848  0.1312  0.0537
54121W        W97034   7.579  17.670   0.444  0.0213 -0.1039  0.0365
54122W        W97035   6.175  22.391  29.498 -0.0935  0.0962  0.0686
54123W        W97036  14.711   8.522  27.080 -0.0184 -0.1668  0.0429
54124W        W97037  26.938  17.366   0.474  0.0636  0.1500 -0.0637
54125W        W97038  28.831   9.055   5.324 -0.0423 -0.0833 -0.0700
54126W        W97039  23.270  15.799   6.280 -0.2940  0.3675  0.2352
54127W        W97040   8.265   9.365   2.870 -0.0415 -0.0193 -0.0134
54128W        W97041   1.382  12.574  20.065  0.0973 -0.0126 -0.0986
54129W        W97042  30.912  16.656  26.735 -0.1482  0.0181 -0.1767
54130W        W97043  31.790  20.494   6.327 -0.1394 -0.1452  0.0618
54131W        W97044  24.408  23.240   6.439  0.1679 -0.0089  0.4966
54132W        W97045  29.958  20.947   5.587  0.2876 -0.2147  0.4481
54133W        W97046  33.197  21.263  25.489 -0.1786  0.0957 -0.2074
54134W        W97047   0.400  23.744   3.339  0.0464  0.1538 -0.1286
54135W        W97048   1.661  21.801   1.584 -0.0304  0.0390  0.1027
54136W        W97049   9.757  14.258   6.845  0.4667  0.2822 -0.0227
54137W        W97050  25.926  19.287  26.403 -0.2309  0.0862  0.2444
54138W        W97051   6.651   7.379  24.180  0.2202 -0.4126  0.0948
54139W        W97052   3.040  16.637   3.850 -0.1488  0.2397 -0.0501
54140W        W97053   1.735  19.732   4.714 -0.3293  0.0843  0.1972
54141W        W97054   0.232  17.188  27.320  0.0799  0.1499 -0.0096
54142W        W97055  23.873  19.757   4.722  0.0189  0.1280 -0.2383
54143W        W97056   2.366  21.832  29.224  0.0589  0.1640 -0.1903
54144W        W97057   1.098  13.384   7.035  0.0608 -0.1710  0.1300
54145W        W97058  12.813  14.254   5.089 -0.0504  0.1073 -0.2058
54146W        W97059   1.915  12.842  24.736 -0.2539 -0.1302 -0.2816
54147W        W97060  12.264   3.270  27.153  0.0825  0.1451 -0.4581
54148W        W97061  30.119  28.850   8.050  0.0418  0.0918  0.0876
54149W        W97062   8.597  25.346   4.559 -0.1036  0.2096 -0.2834
54150W        W97063  28.247  14.775  28.991 -0.2088 -0.3674  0.0695
54151W        W97064  30.475  25.229   4.988 -0.0650  0.0735 -0.0196
54152W        W97065   1.462  27.080   8.818 -0.2845  0.2084 -0.1777
54153W        W97066   5.516  30.846  29.119 -0.4420  0.0100 -0.0281
54154W        W97067  34.225  13.102   5.688 -0.0359  0.0774 -0.0639
54155W        W97068  31.552  15.313  26.867  0.1116  0.0627 -0.1591
54156W        W97069  12.360   6.760   1.941 -0.4505 -0.0786 -0.0785
54157W        W97070   3.730  19.881  28.260  0.0639  0.1627 -0.1206
54158W        W97071   2.401  25.768  24.398  0.0802 -0.2411  0.1043
54159W        W97072   1.633  15.399  24.116  0.1340 -0.0512  0.4578
54160W        W97073  29.499  20.118  27.873 -0.3187 -0.0421 -0.0963
54161W        W97074   3.806  29.815  28.609 -0.2819 -0.1513  0.0776
54162W        W97075   6.046  21.234   0.457  0.0237 -0.1503 -0.0454
54163W        W97076  23.248  25.821   4.241 -0.0240 -0.0809  0.0473
54164W        W97077   2.120  32.524   1.973 -0.2909 -0.1621 -0.2234
54165W        W97078   4.258  20.869  19.758 -0.1086 -0.0711 -0.1781
54166W        W97079  23.119  18.881  23.709  0.1111 -0.2961 -0.1011
54167W        W97080  33.334  14.832   4.518  0.0659  0.0027  0.1810
54168W        W97081  33.975  11.379   6.941  0.1371  0.0057  0.0540
54169W        W97082  28.913  22.681  28.889  0.1660 -0.0297 -0.2838
54170W        W97083   5.128  23.516   0.078 -0.0849  0.1285 -0.2146
54171W        W97084  23.228   9.833  27.767 -0.0040 -0.1874  0.0801
54172W        W97085  27.062  18.348   0.361 -0.1004 -0.2037  0.2743
54173W        W97086  25.525  16.913   7.482 -0.1417  0.0033  0.0802
54174W        W97087  29.605  23.061   3.753  0.1668  0.4928 -0.4682
54175W        W97088  33.248  26.113   7.102  0.1360 -0.0567  0.1005
54176W        W97089  10.431  16.369   7.701  0.1719 -0.1162 -0.1120
54177W        W97090  24.530  23.250   7.707  0.0815 -0.1958 -0.2818
54178W        W97091  29.436  29.644   7.657 -0.2092  0.2075 -0.0636
54179W        W97092  24.912  21.473   3.975 -0.0540  0.0886 -0.0601
54180W        W97093  28.130  24.641   4.882  0.1269 -0.2010 -0.2232
54181W        W97094   7.873  21.992   8.675  0.2286 -0.0097  0.0924
54182W        W97095   3.783  10.789  29.561 -0.1843 -0.0502  0.3490
54183W        W97096  21.134  13.123   2.380 -0.2734 -0.2175 -0.3345
54184W        W97097   0.925  18.942   0.396  0.0274  0.1626 -0.0956
54185W        W97098  19.761  21.698   6.241  0.1179 -0.0367 -0.1235
54186W        W97099   3.320  13.287  29.312 -0.0361  0.0012  0.0044
54187W        W97100   8.918  22.348   0.163  0.0773  0.0079  0.0468
54188W        W97101   3.837  25.415   5.583 -0.2945  0.1897 -0.0674
54189W        W97102  27.565  26.255   1.894 -0.2948  0.1157 -0.0812
54190W        W97103  21.859  19.378   3.091  0.0804 -0.1985 -0.2720
54191W        W97104  27.027  17.502  22.820  0.2392  0.0784 -0.1627
54192W        W97105  26.312  21.536   2.664 -0.0975 -0.1779  0.0128
54193W        W97106   6.103  21.078   3.391 -0.1183 -0.1665  0.2131
54194W        W97107   2.339  16.631   2.065  0.1163 -0.1524  0.1534
54195W        W97108  32.066  17.465   8.524  0.1982  0.0007 -0.0958
54196W        W97109  25.556  20.066  25.866  0.3827  0.2940  0.3985
54197W        W97110  30.802  14.910   3.562 -0.0075 -0.2358  0.0023
54198W        W97111  32.309  11.575  27.851  0.0856  0.1451 -0.1378
54199W        W97112   2.532  22.704  10.211  0.0362  0.1031 -0.4082
54200W        W97113  20.526  19.295  24.963 -0.0194 -0.1888 -0.1895
54201W        W97114  32.178  18.328   2.559  0.0169  0.0633 -0.3076
54202W        W97115  26.430  21.317  28.692  0.2488 -0.0248  0.1881
54203W        W97116  28.321  26.273   2.244 -0.0126  0.1570  0.1008
54204W        W97117  26.349  16.464   7.380  0.0300  0.1184  0.0378
54205W        W97118  23.099  17.236  26.029 -0.1429  0.0701  0.2931
54206W        W97119  29.047  17.928   1.957 -0.1302  0.0188  0.0316
54207W        W97120  30.464  22.189  29.088  0.1416 -0.0400 -0.0093
54208W        W97121  33.069  16.376  24.150 -0.1585 -0.1829  0.1150
54209W        W97122  30.852  22.095   6.991  0.0729  0.1663  0.0905
54210W        W97123   5.598  18.993   4.610 -0.2854  0.0762 -0.1655
54211W        W97124   1.762  28.362  18.053 -0.0815  0.1548  0.2041
54212W        W97125  33.657  20.162  27.679 -0.1761 -0.2058 -0.0016
54213W        W97126   2.448   7.944   2.274  0.0621  0.2335 -0.1485
54214W        W97127  32.442  26.527  27.936 -0.0672  0.1427 -0.1871
54215W        W97128  33.906  18.270   8.051  0.1506 -0.0919 -0.0011
54216W        W97129   0.572  17.254  27.933 -0.1041  0.1146  0.2731
54217W        W97130  27.576  19.986   5.652 -0.1506  0.0464 -0.0082
54218W        W97131   5.904  20.427   7.267  0.0343  0.0260  0.0350
54219W        W97132  28.062  19.361   9.990 -0.2296 -0.2210 -0.0690
54220W        W97133  31.793  13.319   2.301 -0.2494  0.5392 -0.0916
54221W        W97134   4.866  22.423   0.673  0.3754 -0.1168 -0.0128
54222W        W97135   0.177  30.534   3.449  0.2404  0.3131  0.2311
54223W        W97136  27.491  24.053   6.274  0.1957  0.1397  0.0869
54224W        W97137   0.906  19.967   8.545 -0.2233 -0.0017  0.1876
54225W        W97138  31.859  13.386  26.551 -0.1334  0.2847 -0.3705
54226W        W97139  22.172   7.673   4.422  0.0822  0.2425 -0.0929
54227W        W97140   7.739  16.128   5.985 -0.0446 -0.0703 -0.2602
54228W        W97141   2.319  22.170   9.198  0.2822 -0.1130 -0.3497
54229W        W97142   2.345  19.250   6.467  0.1005 -0.2769  0.0887
54230W        W97143  30.195  21.909  29.405 -0.0316  0.0893  0.1076
54231W        W97144   3.584  22.887  27.176  0.1501  0.0288 -0.0615
54232W        W97145  29.145  21.918   9.431 -0.0176  0.1856 -0.0542
54233W        W97146   0.977  23.505  10.243 -0.1264  0.0641  0.0817
54234W        W97147  27.884  31.145   6.017  0.1151 -0.2970 -0.1010
54235W        W97148  34.263  19.571   3.672 -0.2803  0.0800  0.2669
54236W        W97149   5.810  19.588   2.427  0.0835 -0.1551 -0.1354
54237W        W97150   2.043  14.293  22.917 -0.0091 -0.0567  0.1998
54238W        W97151   3.269  24.245   8.634  0.2658 -0.0407 -0.2141
54239W        W97152  31.595   0.565   1.796  0.2548 -0.2475 -0.0022
54240W        W97153  10.154  20.813  23.665 -0.0851  0.1707  0.2511
54241W        W97154  31.536  22.470   1.304  0.0140  0.1087  0.0047
54242W        W97155  32.849  21.195   7.353  0.0928  0.0558 -0.0734
54243W        W97156  26.454  20.643   9.129 -0.0109  0.0825  0.1847
54244W        W97157  13.361  24.466   7.649 -0.1340 -0.0480 -0.1967
54245W        W97158  22.600  30.031   9.414  0.5008 -0.2244 -0.3316
54246W        W97159  25.605  20.735   3.804 -0.1194  0.1474 -0.1937
54247W        W97160  26.842  16.964   3.347 -0.2885  0.2770 -0.0074
54248W        W97161  22.628  21.228   1.536 -0.0756 -0.1536 -0.1070
54249W        W97162  26.545  17.954  28.010  0.1062  0.1143 -0.1273
54250W        W97163  22.859  17.989   6.088  0.0707 -0.2150  0.1848
54251W        W97164  14.395  20.280   5.632 -0.3296 -0.1557  0.1154
54252W        W97165  27.248  23.378  29.355  0.0805 -0.0981  0.1338
54253W        W97166   2.382  21.587   2.900  0.0449  0.0794 -0.1866
54254W        W97167   5.383  19.033   7.882 -0.1643  0.0666 -0.1410
54255W        W97168  31.323  21.970   7.131 -0.2286  0.2198  0.2221
54256W        W97169  29.400  21.047   5.134  0.1371  0.3072  0.0866
54257W        W97170   2.799  15.879   4.190 -0.0934 -0.2236  0.0751
54258W        W97171  31.167  18.998   6.913 -0.1318 -0.1342  0.0756
54259W        W97172  12.147  20.994   8.792 -0.0091  0.1355  0.3241
54260W        W97173  31.781  13.984  19.341 -0.1077 -0.1999  0.0236
54261W        W97174  32.420  14.580   4.733 -0.2560  0.0932 -0.0982
54262W        W97175   6.272  19.537  29.698 -0.0523  0.1188  0.1538
54263W        W97176  31.874  21.655   8.058  0.0878  0.0369 -0.0955
54264W        W97177  30.853  28.270   9.040  0.0541 -0.0047 -0.2441
54265W        W97178  30.083  29.038  24.959  0.0769 -0.1523 -0.0450
54266W        W97179  34.479  23.480  10.593 -0.0387 -0.0516 -0.1950
54267W        W97180   7.082  18.440   0.942  0.2979  0.0850 -0.2320
54268W        W97181  27.112  23.516   5.497 -0.1529  0.0061 -0.0229
54269W        W97182  18.069  22.021   4.330  0.0190  0.2800 -0.2303
54270W        W97183  29.557  18.779  28.280 -0.1525  0.2587 -0.3515
54271W        W97184  11.674  14.774   0.568 -0.3600  0.1320  0.1739
54272W        W97185   0.542  12.721   6.141  0.1046 -0.1421 -0.1449
54273W        W97186  32.402  20.000   0.033  0.3453  0.1281 -0.0262
54274W        W97187  28.942  21.428   7.519 -0.0617 -0.3344 -0.2746
54275W        W97188   0.781   8.788   3.641 -0.0062  0.0191  0.2553
54276W        W97189   9.238  24.004   3.889 -0.1537 -0.0246 -0.2102
54277W        W97190  25.603  19.249   9.303  0.2030 -0.2161 -0.2269
54278W        W97191  24.696  20.264   3.962  0.0409  0.1974  0.2758
54279W        W97192   8.541   7.293   1.573 -0.0243  0.1333 -0.0886
54280W        W97193  32.964  20.147  23.715 -0.1451  0.2561  0.1058
54281W        W97194  33.466  24.760   1.113  0.3102  0.5601  0.2199
54282W        W97195  27.979  24.342   4.511  0.4411 -0.0406 -0.0646
54283W        W97196  29.917  20.441   7.140 -0.1411  0.3002 -0.0371
54284W        W97197  34.318  22.456  19.421 -0.0403  0.1773  0.1320
54285W        W97198  29.190  22.973   3.479  0.1585 -0.2180 -0.1493
54286W        W97199   4.705  12.740   0.574  0.1715 -0.1466  0.3218
54287W        W97200   7.804  16.312   1.631  0.1193  0.1720 -0.1195
54288W        W97201   4.303  21.021   3.726 -0.1466 -0.3778 -0.0749
54289W        W97202  29.990  28.001   2.453 -0.2492 -0.0210  0.2292
54290W        W97203   6.741  14.452   0.307 -0.0162  0.0461 -0.0654
54291W        W97204   4.168  26.674   3.401  0.0187  0.2150 -0.0983
54292W        W97205  26.253  12.217   8.465 -0.0362  0.2758 -0.1049
54293W        W97206   3.717  26.612   9.113  0.0383 -0.0479 -0.0731
54294W        W97207   8.924  23.937  10.076  0.1254 -0.1049 -0.2269
54295W        W97208  23.783  23.477   5.236  0.2292  0.1257 -0.2263
54296W        W97209  10.370  13.456   4.674  0.1303  0.2237  0.2108
54297W        W97210  14.716  13.625   0.266 -0.0794  0.1976  0.0228
54298W        W97211  15.071  15.845  26.415 -0.1595 -0.0381 -0.2004
54299W        W97212   3.164   6.810   9.527 -0.0120 -0.0552  0.0410
54300W        W97213   6.167  23.030   8.833  0.2240 -0.2046 -0.1962
54301W        W97214  22.203  21.252  26.753  0.1780 -0.1860  0.2099
54302W        W97215  12.019  15.051   5.027 -0.3200 -0.3839  0.2708
54303W        W97216  33.603  21.279   3.824  0.1463 -0.2044 -0.1281
54304W        W97217  27.581  21.527   5.004 -0.1083  0.1053  0.4366
54305W        W97218  32.549  17.843  27.507  0.2110 -0.2243 -0.1459
54306W        W97219  13.202  15.515   0.211  0.0225 -0.0099  0.1478
54307W        W97220   1.162  15.975   8.238  0.0972  0.3080 -0.1218
54308W        W97221  32.687  24.780   5.029 -0.2268 -0.0418 -0.0757
54309W        W97222   2.669  18.459  28.970  0.0876 -0.0995 -0.0983
54310W        W97223  30.790  24.886   2.594  0.1048 -0.0605 -0.0038
54311W        W97224  31.809  16.568   2.036 -0.1317  0.1993  0.2069
54312W        W97225   0.792  11.992   3.622 -0.1845  0.2331 -0.0569
54313W        W97226  27.627  25.730   5.916 -0.2774 -0.0321  0.1314
54314W        W97227   0.196   9.770  11.466 -0.1608  0.0495 -0.1166
54315W        W97228  31.288  18.144   9.265 -0.2290  0.0952 -0.2011
54316W        W97229   1.612  18.794   0.567  0.0219 -0.0280  0.0919
54317W        W97230   1.480  16.456   0.114  0.1602  0.1530  0.0392
54318W        W97231  27.549  27.153   9.185 -0.4298  0.0427  0.2277
54319W        W97232  32.842  21.439   6.887 -0.2267 -0.2114  0.1143
54320W        W97233  33.024  18.591   6.564  0.0564 -0.0799  0.0510
54321W        W97234  30.703  27.925   8.622 -0.0369 -0.4489  0.1640
54322W        W97235  12.246  16.536  18.483  0.0369  0.3813 -0.0605
54323W        W97236   1.416  17.660   8.188 -0.2107 -0.2359  0.1611
54324W        W97237   2.358  22.664   6.422  0.1503  0.0329  0.1452
54325W        W97238   2.530  21.052   0.017  0.0844  0.4932  0.1862
54326W        W97239   1.040  22.564   0.379  0.2494  0.0115  0.0375
54327W        W97240   5.710  15.458   4.623 -0.1208  0.3240 -0.0167
54328W        W97241  27.818  18.905   7.690 -0.1541 -0.0362  0.0523
54329W        W97242  16.113  23.655  26.053 -0.0237  0.0381 -0.0160
54330W        W97243   7.968  16.496   5.045  0.1588  0.0339 -0.1223
54331W        W97244  29.776  17.634   5.428 -0.0601  0.0100  0.0749
54332W        W97245  32.048  16.662  28.639  0.3965 -0.0845  0.2484
54333W        W97246   0.341  21.927   7.238  0.0969  0.2921  0.2285
54334W        W97247  32.618  22.757  28.734  0.0778  0.2318 -0.1391
54335W        W97248   0.940  18.047   9.981  0.1880 -0.3375 -0.2067
54336W        W97249  30.212  20.499   8.380  0.2955  0.0703  0.2932
54337W        W97250   7.095  23.097   5.730 -0.3021 -0.0500 -0.1686
54338W        W97251   1.230  22.446   6.676 -0.0636  0.0942 -0.2412
54339W        W97252   2.919  28.899  29.162  0.1242 -0.1980 -0.1051
54340W        W97253  12.962   6.556  10.050  0.1246  0.2180  0.1836
54341W        W97254  29.295  34.149   9.107  0.0824  0.0845 -0.2614
54342W        W97255  28.449  12.575  27.171 -0.2602  0.1830 -0.2427
54343W        W97256  27.354  17.384   9.101  0.0842 -0.3306  0.0006
54344W        W97257   0.318  19.176   2.528 -0.2641 -0.3329  0.0888
54345W        W97258  31.429  14.056   9.329  0.0772  0.0540 -0.2424
54346W        W97259  25.732  21.386   0.002  0.1167 -0.2532  0.3649
54347W        W97260   0.041  10.899   4.142 -0.0425  0.0943 -0.2033
54348W        W97261  23.641  11.515  25.346 -0.0523  0.0340  0.1856
54349W        W97262  25.013  17.206   3.204 -0.0135 -0.0368  0.0683
54350W        W97263  24.521  18.767   4.750 -0.1207 -0.2341  0.1380
54351W        W97264  33.022  24.572   4.483  0.3193  0.0237 -0.1633
54352W        W97265   7.625  16.547   8.191  0.0604 -0.1202 -0.0686
54353W        W97266  22.866  23.917   3.132  0.1298  0.0444 -0.2970
54354W        W97267  30.867  21.865   7.476 -0.0205 -0.2423  0.1938
54355W        W97268  33.165  21.432   0.828 -0.2823  0.0002 -0.4004
54356W        W97269   4.043  14.962   7.246  0.0414  0.2403  0.3010
54357W        W97270  24.044  18.459   0.504  0.0378  0.1405 -0.1672
54358W        W97271  31.570  24.142  25.788 -0.3400  0.2173 -0.1023
54359W        W97272  30.259  21.307   5.008 -0.2013 -0.0949  0.3411
54360W        W97273  26.318  23.767   4.214 -0.0778 -0.2852  0.1696
54361W        W97274  21.905  33.812   5.041 -0.0164  0.3219  0.1792
54362W        W97275   3.770  27.037   4.667  0.1069 -0.0743  0.0666
54363W        W97276  33.666   3.504  26.844  0.0933  0.2333 -0.1526
54364W        W97277  27.303  22.271   7.683 -0.2959  0.1565  0.0694
54365W        W97278  32.476  23.218   0.641 -0.1353  0.0329 -0.0003
54366W        W97279  31.985  14.025  28.135  0.0152  0.3617 -0.1627
54367W        W97280   0.603  22.832  27.154 -0.0358  0.1557 -0.1350
54368W        W97281   7.962   5.379   4.045  0.3362 -0.2794  0.1043
54369W        W97282  32.051  23.562  28.873 -0.0316  0.4061  0.1913
54370W        W97283   0.630  24.573  26.602 -0.0531  0.0584 -0.1861
54371W        W97284  34.232   0.384   4.507 -0.1194 -0.2704  0.2565
54372W        W97285  31.670  21.311   5.893  0.1227 -0.1277 -0.1766
54373W        W97286  22.635  14.483  25.503 -0.2577  0.2849  0.0190
54374W        W97287   5.278  27.405   7.028  0.0859  0.0387  0.0681
54375W        W97288  29.443  19.033   0.265 -0.3034  0.2735  0.3185
54376W        W97289   9.039  19.865   7.272  0.1800 -0.2208 -0.0585
54377W        W97290   7.665   7.268   4.107  0.0279 -0.1430  0.0717
54378W        W97291  12.378  11.270  26.704  0.0536 -0.0045  0.3175
54379W        W97292   5.131  13.341   8.778 -0.0443 -0.0904 -0.1910
54380W        W97293  26.315  21.797   8.434 -0.2588  0.2477 -0.3638
54381W        W97294  27.068  19.119   2.594  0.0451  0.0951 -0.1553
54382W        W97295  31.533   2.136   9.123  0.0234  0.1425  0.1339
54383W        W97296  26.191  25.151   2.321  0.2220 -0.0742 -0.0286
54384W        W97297   0.842  20.849   7.930  0.2184  0.0831 -0.2842
54385W        W97298  23.325  20.258   7.283  0.4949  0.2327  0.1184
54386W        W97299   5.335  28.700  27.938 -0.0097  0.0410 -0.0742
54387W        W97300  32.972  19.039   7.711 -0.3126  0.1317 -0.0859
54388W        W97301   4.491  21.205  26.465  0.2375  0.2997 -0.2748
54389W        W97302  25.469  15.072   6.716 -0.0517  0.2797  0.1804
54390W        W97303  28.152  13.495   8.751  0.1019 -0.1664  0.0168
54391W        W97304  14.461  18.805   1.806 -0.2158 -0.3440  0.2764
54392W        W97305  28.850  22.044  26.142  0.0393  0.1653  0.5233
54393W        W97306  22.176  17.028   5.104 -0.0049 -0.0606  0.0194
54394W        W97307  33.140  12.914  29.046 -0.2023 -0.0830  0.0199
54395W        W97308   1.280  10.686  24.161  0.1255  0.1719 -0.1440
54396W        W97309  30.868  20.859   4.237 -0.2033  0.0287 -0.0894
54397W        W97310  23.133  17.630   4.181  0.1066  0.0312 -0.3540
54398W        W97311  30.155  15.751   2.292  0.0851  0.1327  0.1791
54399W        W97312  24.880  26.994  20.288 -0.0503  0.0518 -0.0841
54400W        W97313   2.776  29.810   5.838 -0.0352  0.2243  0.0100
54401W        W97314   6.905  24.244   0.702  0.0478 -0.0630 -0.5099
54402W        W97315  15.030  17.015   5.436  0.0093 -0.0968 -0.0680
54403W        W97316  32.125  19.882   8.242 -0.2399 -0.1164  0.0088
54404W        W97317  30.680  25.661   8.085  0.0111  0.2303 -0.0409
54405W        W97318   8.773  25.594   7.941 -0.2501 -0.3427 -0.2489
54406W        W97319   5.868  22.559   0.596  0.1794  0.3242  0.1302
54407W        W97320  24.065  19.158   5.632  0.1367 -0.2365 -0.0084
54408W        W97321  32.326  17.894   8.367 -0.0527  0.1499 -0.2027
54409W        W97322  31.705   9.287   0.890  0.0672 -0.6121 -0.1299
54410W        W97323  28.163  21.273   8.031 -0.1406  0.0388 -0.3103
54411W        W97324  34.211  19.106   6.896 -0.2084 -0.0533 -0.0940
54412W        W97325  34.015  27.152   0.840  0.0306 -0.0952  0.3582
54413W        W97326   1.425  20.462   6.284  0.3208  0.0683 -0.1160
54414W        W97327   5.367  23.006  29.089 -0.4630  0.0740  0.0701
54415W        W97328   3.108  16.629   2.721 -0.0811  0.0349  0.1000
54416W        W97329  28.733  33.247   6.279  0.0693  0.1879 -0.1488
54417W        W97330   0.465  14.681   6.673 -0.3223  0.1804 -0.3513
54418W        W97331  26.261  20.689  28.752  0.0538 -0.2266  0.0342
54419W        W97332  34.074  18.713   9.291 -0.1407  0.3307  0.4896
54420W        W97333   0.030  26.509   8.794  0.2053 -0.0841  0.1280
54421W        W97334  17.692   4.408   1.430  0.0316 -0.0613 -0.1911
54422W        W97335  31.831  20.534  26.951  0.1733 -0.3018 -0.1594
54423W        W97336  29.538  24.600   4.227  0.0612 -0.1099 -0.0029
54424W        W97337  31.379  28.325   9.661  0.1168 -0.1442 -0.3063
54425W        W97338  32.598  16.033   4.050  0.2055  0.0610  0.3990
54426W        W97339  28.522  22.194   1.533 -0.0470 -0.0365 -0.0658
54427W        W97340   4.372  15.511  27.650  0.0935 -0.1045  0.3130
54428W        W97341  22.902  21.756   4.948 -0.2888 -0.1253 -0.1474
54429W        W97342  24.774  15.907   4.772 -0.2528  0.0314 -0.0620
54430W        W97343   2.514  23.075   8.320 -0.1197  0.1383  0.0144
54431W        W97344   3.533  16.416  22.803 -0.0350  0.1103 -0.0566
54432W        W97345   0.161  27.178   4.921  0.0193 -0.0074 -0.0341
54433W        W97346  26.404  14.757   7.415  0.2067 -0.1932 -0.0305
54434W        W97347  31.438  20.456  29.378 -0.4102 -0.1254  0.1665
54435W        W97348   2.389  21.641  10.513  0.1841 -0.0684 -0.1332
54436W        W97349   9.118  16.751   2.130 -0.1474 -0.2625 -0.0081
54437W        W97350  22.183  23.517   2.161  0.0833 -0.2575  0.3157
54438W        W97351  26.548  19.003   6.721  0.1723  0.1261  0.2802
54439W        W97352  25.240  16.261   0.452 -0.1559 -0.1818 -0.3629
54440W        W97353  32.183  21.510   8.921  0.3731 -0.1724  0.1376
54441W        W97354  22.618   9.798   1.755  0.1120  0.0569  0.1485
54442W        W97355   3.218  22.486   7.551 -0.3843 -0.1218 -0.0132
54443W        W97356   0.617  11.800   7.740  0.1959  0.1280  0.1878
54444W        W97357   4.104  15.415   0.730  0.0048  0.3233  0.3546
54445W        W97358  33.144  11.753   6.817  0.1953 -0.2645  0.1184
54446W        W97359  28.813  15.050   7.915  0.3039  0.1466  0.1208
54447W        W97360  11.647  12.578   4.778  0.0275  0.1082 -0.2549
54448W        W97361  14.322  27.883   4.563  0.0532  0.0071 -0.1038
54449W        W97362   1.153  16.914   2.622  0.0523  0.2719  0.1954
54450W        W97363  11.118  12.626   4.440  0.3240  0.1558 -0.0281
54451W        W97364   7.082  12.447   9.740  0.2436  0.0820  0.3116
54452W        W97365  31.427  21.255   5.412  0.1645 -0.0481 -0.0500
54453W        W97366   6.356  28.802  28.894  0.1141  0.0745  0.1447
54454W        W97367  29.062   4.303   5.880  0.3058  0.0040  0.2130
54455W        W97368  25.893  22.432   7.077 -0.2735  0.1762 -0.2217
54456W        W97369   1.808  18.435   2.069  0.0156  0.2971  0.2232
54457W        W97370  29.178  16.717   8.108  0.2719 -0.0095  0.1062
54458W        W97371  34.232  18.342   0.962 -0.2176  0.3933 -0.2947
54459W        W97372  30.953  12.939   5.845 -0.2853  0.2802 -0.2857
54460W        W97373   4.001  24.549   7.033 -0.2562  0.1073 -0.1454
54461W        W97374   5.113  19.196  10.091 -0.0099 -0.2097  0.1190
54462W        W97375   0.475  24.837   4.394  0.0041 -0.0963 -0.1959
54463W        W97376  29.021  22.637   0.153 -0.2907 -0.3272  0.1066
54464W        W97377  31.855  12.342   2.616  0.0541 -0.2009  0.0670
54465W        W97378  33.636  21.576   2.921 -0.3137  0.2744 -0.0809
54466W        W97379   6.571  16.720   5.697 -0.0475 -0.4919 -0.0957
54467W        W97380  28.938  19.663   9.480 -0.0667 -0.1363  0.3571
54468W        W97381  30.117  25.665   6.696 -0.0550 -0.0245  0.1119
54469W        W97382  33.424  23.622   5.300 -0.0179 -0.0594  0.1045
54470W        W97383   2.519   9.489   4.660  0.1053  0.1574  0.0849
54471W        W97384   3.254  17.964  29.529 -0.0015 -0.1203  0.0119
54472W        W97385   3.983  17.455   8.044 -0.0607  0.0298 -0.3655
54473W        W97386   0.058  22.073   9.383  0.0598 -0.0454  0.0168
54474W        W97387  28.534  12.918   5.593 -0.1491  0.0332 -0.0647
54475W        W97388   5.201  15.688   2.991  0.0473  0.0991 -0.1048
54476W        W97389  32.469  26.401   1.099  0.1616 -0.2689  0.2896
54477W        W97390  25.349  29.234   5.608  0.0912 -0.2563 -0.1953
54478W        W97391   3.489  21.347   3.660 -0.0429 -0.2072  0.0286
54479W        W97392  28.804  16.446   1.084  0.2652 -0.0567 -0.0514
54480W        W97393   0.373  28.263   8.862 -0.1872  0.2442  0.2606
54481W        W97394   2.216  25.005   4.809  0.0547 -0.1009 -0.1136
54482W        W97395   4.669  12.720   3.000  0.1207  0.1673  0.1342
54483W        W97396   5.318  22.745   6.054 -0.0301 -0.1056 -0.1907
54484W        W97397  29.908  25.586   8.232 -0.1883 -0.1519  0.1452
54485W        W97398  22.609  20.238   6.510  0.0430  0.1932 -0.0402
54486W        W97399  28.684  16.479   8.210  0.1671  0.0644 -0.1492
54487W        W97400  27.576  18.924   4.569  0.2243 -0.0912 -0.2642
54488W        W97401   8.513   8.237  11.019 -0.1120  0.3375 -0.0015
54489W        W97402   4.299  15.735   2.408  0.0171 -0.0083  0.4622
54490W        W97403   7.290   6.726  29.478  0.0756 -0.2456  0.1301
54491W        W97404   0.967  18.753   8.412  0.2258  0.1387 -0.0038
54492W        W97405  29.233  24.270   4.597 -0.0475  0.1470 -0.2558
54493W        W97406  28.384  20.151   6.437 -0.1359  0.1056  0.1491
54494W        W97407  24.869  22.993   2.886  0.4249  0.0771 -0.1432
54495W        W97408  30.168  23.353   2.377 -0.0512 -0.1327 -0.0121
54496W        W97409   3.303  24.250   8.172  0.0736  0.1147  0.0647
54497W        W97410   0.876  18.889   7.021 -0.1697 -0.0373  0.1041
54498W        W97411  32.940  18.250   0.301 -0.1265 -0.0231  0.0055
54499W        W97412  28.309  20.294   9.743  0.1560 -0.0188 -0.1375
54500W        W97413  26.827  26.565   6.193  0.1259  0.2094 -0.3359
54501W        W97414  33.110  25.553   4.164  0.0134  0.2627 -0.2365
54502W        W97415  13.423  26.587   6.563  0.2459  0.0003 -0.0284
54503W        W97416  24.223  15.973  22.390 -0.0002 -0.3387  0.2468
54504W        W97417   1.197  22.346  28.109 -0.1043 -0.1586  0.0056
54505W        W97418   8.772  12.000   2.366  0.1447  0.2607 -0.0495
54506W        W97419   9.072  19.645   5.479 -0.3544 -0.0870 -0.1614
54507W        W97420  32.163  14.992   9.581  0.1876  0.0439 -0.0930
54508W        W97421  20.932  24.507   1.579  0.0111 -0.1611 -0.0145
54509W        W97422   7.564  22.309   9.013 -0.3824 -0.0563 -0.5251
54510W        W97423  30.218  31.378   6.667 -0.0483  0.1114 -0.1438
54511W        W97424  32.497  20.308   2.698  0.1464 -0.1621  0.0567
54512W        W97425  26.594  29.663   4.353 -0.2026  0.0854  0.1079
54513W        W97426  29.846  19.766   4.749 -0.1049 -0.0605 -0.0340
54514W        W97427  34.041  19.576   6.725  0.2657 -0.2671 -0.0155
54515W        W97428   1.117  19.146   4.082 -0.0847  0.0119  0.0289
54516W        W97429  14.518  10.316   4.775  0.2298 -0.1402 -0.2431
54517W        W97430   1.413  21.295   6.595  0.0480  0.1423 -0.2019
54518W        W97431  30.860  20.532   6.696 -0.0361 -0.0058  0.0466
54519W        W97432  28.144  19.084  28.362  0.3799 -0.0936  0.5033
54520W        W97433   5.119  22.371   8.603  0.0524  0.0381 -0.1142
54521W        W97434  32.257  11.172  10.032  0.0081 -0.1576 -0.0855
54522W        W97435  33.095  20.825   7.637 -0.0685  0.1146  0.0532
54523W        W97436   2.019  18.935   5.262 -0.1649 -0.0480 -0.1026
54524W        W97437   9.828  28.769   6.881 -0.1743  0.2351 -0.0026
54525W        W97438   1.122  19.650   7.333 -0.2898 -0.1536  0.1282
54526W        W97439   2.248  20.898   9.299  0.1171  0.1330 -0.2480
54527W        W97440   0.274  22.426   7.498  0.3089  0.1261  0.2727
54528W        W97441  34.379  11.066   6.938 -0.2271 -0.0247 -0.0185
54529W        W97442   3.387  23.801   5.066  0.0164 -0.3407 -0.4920
54530W        W97443   3.427  24.002  28.986 -0.3966 -0.3472  0.0352
54531W        W97444   3.362  15.798   2.471 -0.0440  0.1420  0.0941
54532W        W97445  29.971  19.962   7.503  0.2605 -0.0015 -0.0678
54533W        W97446  30.668  19.513   3.868  0.4088 -0.1640  0.2514
54534W        W97447  34.438  23.603   7.306  0.1019  0.0380  0.1489
54535W        W97448   4.921  15.206   6.939 -0.0680 -0.0388  0.0610
54536W        W97449   8.597  29.163   8.916  0.0650 -0.1363  0.0898
54537W        W97450  28.575  33.943   9.992  0.0256 -0.1464 -0.2258
54538W        W97451   1.955  26.284   5.880  0.1549  0.1338  0.1938
54539W        W97452   3.262  21.552   9.344  0.1356  0.0220 -0.0549
54540W        W97453   2.011  20.090   2.200 -0.0156  0.1951 -0.1676
54541W        W97454  25.833  20.733   3.334 -0.1405 -0.0734  0.0366
54542W        W97455  10.127  15.627   0.720 -0.0770  0.1789 -0.0884
54543W        W97456   1.011  14.640   4.774  0.2849  0.1090  0.3770
54544W        W97457  22.758  19.221   6.967  0.0369 -0.3270 -0.4380
54545W        W97458   6.036  18.253   4.063  0.3276 -0.2312 -0.0115
54546W        W97459  21.467  23.910   4.017 -0.2743  0.1146 -0.3713
54547W        W97460  29.861  19.840   5.704  0.1118 -0.1700  0.2737
54548W        W97461  33.880  21.164   8.987 -0.0137 -0.0701 -0.1328
54549W        W97462  25.068  18.570   1.345 -0.1005 -0.0127 -0.0146
54550W        W97463   4.788   3.299   7.889 -0.4800  0.2612 -0.1310
54551W        W97464   5.246  27.648   5.981  0.0239 -0.1513 -0.1173
54552W        W97465   1.536  17.857   3.107  0.0330 -0.0718 -0.4284
54553W        W97466   7.929  28.908   4.776  0.3091  0.2057 -0.0999
54554W        W97467  16.532  27.815   5.987  0.3970 -0.2773 -0.1334
54555W        W97468  19.007  15.694   2.534 -0.3476  0.0184  0.0242
54556W        W97469  30.074  15.513   0.248  0.0577 -0.4061 -0.0095
54557W        W97470   1.592  16.430   9.007 -0.1093 -0.0682 -0.0578
54558W        W97471  29.117  21.019   7.800 -0.0996 -0.1669 -0.0062
54559W        W97472  22.185  22.697  25.551 -0.0427  0.2077 -0.1551
54560W        W97473   0.558  19.237  27.773  0.4151 -0.1778  0.0205
54561W        W97474  31.410  26.093   7.602  0.0516 -0.1499 -0.3711
54562W        W97475   5.321  25.943   8.030  0.2461  0.0506  0.2005
54563W        W97476   7.517  25.978   8.567  0.3023 -0.0002 -0.3047
54564W        W97477  28.154  25.114   5.008 -0.0768  0.0061 -0.3447
54565W        W97478  32.648  13.227  26.685 -0.1075 -0.2022 -0.0469
54566W        W97479  26.516  29.029   2.499  0.0671 -0.2827 -0.5665
54567W        W97480  31.979  19.287  25.740  0.0231  0.2243 -0.1443
54568W        W97481  25.147  28.961   5.247  0.2779  0.2979 -0.0144
54569W        W97482  31.089  27.840   8.939  0.4298 -0.0766 -0.1494
54570W        W97483  31.920  28.930   9.047 -0.3429 -0.2089  0.1835
54571W        W97484  28.529  23.160   3.097 -0.0357 -0.2074  0.0540
54572W        W97485  20.390  13.828   7.533 -0.0271  0.3042  0.0821
54573W        W97486  23.287  22.406  24.236  0.0100 -0.0076 -0.1170
54574W        W97487  21.128  20.037  28.898 -0.2020 -0.0272  0.0144
54575W        W97488   4.446  15.713   3.311 -0.1309  0.2039  0.0360
54576W        W97489  33.737  25.756   4.952  0.0631  0.2044 -0.1753
54577W        W97490   2.188  20.315   4.283  0.3025  0.0733  0.0206
54578W        W97491  33.776  24.352   7.234  0.0406 -0.0457  0.4155
54579W        W97492   0.244  14.001   2.062 -0.1977  0.1575  0.2898
54580W        W97493  10.181  14.971  23.806  0.3225 -0.1347  0.3240
54581W        W97494  31.642  19.892   9.456 -0.2865  0.1887  0.1825
54582W        W97495   8.411  18.034   0.163 -0.2355 -0.4661  0.0617
54583W        W97496   5.567  12.539   8.335  0.1313  0.2182 -0.0479
54584W        W97497   9.538  19.734   2.416  0.1526  0.1583  0.1105
54585W        W97498   1.324  29.222  27.403  0.3402  0.2885 -0.1606
54586W        W97499   3.508  25.938   8.521  0.2263  0.0688  0.1273
54587W        W97500  32.516  18.814   3.721  0.2074 -0.0572  0.0089
54588W        W97501  28.268  14.701   1.479 -0.1055 -0.1293  0.3272
54589W        W97502   1.511  26.232   6.840 -0.0038  0.2260 -0.0794
54590W        W97503  11.920   5.946   6.773  0.2365 -0.0920 -0.1334
54591W        W97504   4.832  30.240   9.856  0.2755  0.3586  0.2983
54592W        W97505   9.593  20.491  29.589  0.3443 -0.0660  0.2429
54593W        W97506   0.352  23.072   8.657  0.1480  0.1776 -0.2218
54594W        W97507   4.224  29.893   8.723  0.2920  0.1052 -0.0273
54595W        W97508  13.889  25.728   7.782 -0.0721  0.0717  0.2602
54596W        W97509   0.887  28.672   7.425  0.0967 -0.0622  0.4031
54597W        W97510  27.053  16.929   7.789  0.0628 -0.1169 -0.0822
54598W        W97511  29.965  22.200   9.782  0.0224 -0.0103 -0.1301
54599W        W97512  32.054  22.428   5.161  0.2471  0.2233 -0.0011
54600W        W97513   1.467  17.984   8.619  0.2244 -0.2036  0.2146
54601W        W97514  27.987  17.897  27.835 -0.2431 -0.2145 -0.1841
54602W        W97515   2.166  23.484   5.582 -0.0425 -0.1015  0.1448
54603W        W97516  33.359   8.385   4.763  0.2513  0.0475  0.3900
54604W        W97517  26.119  15.772   1.228  0.0270  0.1590 -0.1380
54605W        W97518  31.683  17.208   7.946  0.1220  0.2312 -0.1394
54606W        W97519   2.279  18.164   2.406 -0.1379 -0.2952  0.1572
54607W        W97520  21.275  21.325   2.058  0.0242 -0.0358 -0.0784
54608W        W97521  31.952  25.906   7.740 -0.2705  0.0477  0.0719
54609W        W97522   2.567  23.340   9.399  0.4354  0.1738  0.0942
54610W        W97523   3.110  29.892   6.738  0.1599 -0.1158 -0.1008
54611W        W97524   2.451   5.942  11.921  0.1750  0.3164  0.2624
54612W        W97525   0.269  24.033   2.027  0.0382 -0.0149 -0.1486
54613W        W97526   2.174  22.187   5.763  0.0943 -0.2778  0.0340
54614W        W97527  32.629  20.154   7.182 -0.1520  0.0698 -0.0030
54615W        W97528   0.039  14.949   1.765  0.2787  0.3674  0.1765
54616W        W97529   1.208  33.817   8.253 -0.1859  0.0065 -0.1003
54617W        W97530  26.887  17.288  25.788 -0.1730  0.2449 -0.1273
54618W        W97531  20.631  17.940   0.467  0.1192  0.2232 -0.1274
54619W        W97532  33.933  23.303   8.910 -0.3709  0.1219  0.0253
54620W        W97533  28.926  11.984   5.243  0.2762  0.1538 -0.0837
54621W        W97534  13.198   9.776   3.275 -0.0319 -0.2224  0.1514
54622W        W97535   3.787  23.477   6.377 -0.1369 -0.0459  0.1314
54623W        W97536   4.847  18.268  27.721  0.0460  0.2978  0.0982
54624W        W97537  29.688  24.304   8.375  0.0229 -0.3380 -0.0066
54625W        W97538  22.334  24.841   1.907 -0.1513 -0.1951  0.2467
54626W        W97539   3.732  25.104   3.551  0.2300  0.0542  0.1183
54627W        W97540  12.933  23.067   3.635 -0.0495 -0.2609  0.3445
54628W        W97541  28.442  15.097   0.893 -0.0831  0.1792 -0.2303
54629W        W97542   0.546   9.054   1.944 -0.0315 -0.2188 -0.0412
54630W        W97543  15.554  22.671  17.595 -0.2524  0.0601  0.0084
54631W        W97544  24.834  24.911  26.026 -0.1536 -0.1390 -0.5246
54632W        W97545  17.739  22.358   2.070 -0.1373 -0.5601  0.1694
54633W        W97546  20.519  27.512  21.092  0.1316 -0.1754 -0.0561
54634W        W97547  34.009  14.684  25.501  0.2852 -0.0014 -0.1449
54635W        W97548   3.594  18.279   5.786  0.4596 -0.5265 -0.3149
54636W        W97549   7.186  16.483  23.967 -0.2292 -0.0098 -0.3049
54637W        W97550   5.123  34.401  27.454 -0.1385 -0.1852  0.1306
54638W        W97551  30.027  26.015   2.112 -0.2466 -0.1142  0.2407
54639W        W97552   6.184  25.879   6.547  0.0508 -0.4003 -0.1803
54640W        W97553  32.753  22.340  28.392 -0.2935  0.0134 -0.0707
54641W        W97554  30.243  19.922  25.712 -0.0105 -0.2298  0.0669
54642W        W97555  28.206  18.660  28.782 -0.3258  0.0781 -0.4072
54643W        W97556  34.483  31.945   0.383  0.0300  0.2818  0.4110
54644W        W97557  19.173  21.180  26.291 -0.2446 -0.3899  0.2326
54645W        W97558  27.374  17.657  26.063  0.4937  0.4166  0.5052
54646W        W97559  12.622  13.303   1.356  0.0822 -0.2017  0.0313
54647W        W97560   0.589   4.051   7.819 -0.0425 -0.0222  0.1762
54648W        W97561  24.145  24.118   2.884 -0.0502  0.3881  0.2534
54649W        W97562   8.459  21.163   0.179 -0.0618  0.1603 -0.0436
54650W        W97563   6.582  21.545  27.781  0.2225 -0.3388  0.0238
54651W        W97564  33.164  26.790  27.175  0.0592 -0.0408 -0.1724
54652W        W97565   0.810  19.440  21.065 -0.0246 -0.1800  0.1244
54653W        W97566   1.205  17.867   4.625  0.0521 -0.1322  0.1052
54654W        W97567  31.662   9.833   9.801  0.0294  0.1543  0.0711
54655W        W97568  29.712  28.280   7.605 -0.0999 -0.0568 -0.2411
54656W        W97569   7.614  28.566   3.927  0.0047 -0.1988  0.1844
54657W        W97570  22.462  19.399  17.526  0.0179 -0.1459 -0.1611
54658W        W97571  33.309  25.256   0.314  0.1138  0.2131 -0.1195
54659W        W97572  32.115   1.446   8.774 -0.0721 -0.3281 -0.1121
54660W        W97573  28.849  18.803   9.377  0.1800  0.0202  0.1209
54661W        W97574  14.921   9.715  28.532 -0.1579 -0.1127 -0.1305
54662W        W97575  30.965  27.401  23.021  0.2730  0.1441 -0.0848
54663W        W97576  30.209  25.354  25.538  0.3648  0.0109 -0.2488
54664W        W97577  20.969  14.500  25.204 -0.3693  0.0560  0.0522
54665W        W97578   6.400  33.068   1.217  0.0775 -0.1172  0.2070
54666W        W97579  15.311  24.579   3.775 -0.0758 -0.4075  0.1751
54667W        W97580  24.609  24.500  26.239 -0.2444 -0.0029  0.0012
54668W        W97581  32.199  14.522  27.319 -0.1087 -0.1521  0.0624
54669W        W97582   4.737  13.970  23.996  0.0357 -0.3155  0.1609
54670W        W97583   8.794  19.443  26.689  0.2461  0.3202  0.0618
54671W        W97584  21.413  15.537  22.629  0.2196 -0.2934 -0.1854
54672W        W97585  28.509  26.208  23.129 -0.0160 -0.0102 -0.3213
54673W        W97586   2.394  13.085  22.029 -0.1971  0.0526 -0.3505
54674W        W97587  32.605  19.400  27.792 -0.3431  0.0402 -0.3623
54675W        W97588   9.521  17.140   3.306  0.3355  0.1128 -0.1059
54676W        W97589   0.270  28.258  10.198 -0.0880 -0.1545  0.1060
54677W        W97590  22.968  30.576  27.917 -0.1072  0.2442  0.0403
54678W        W97591   3.657  24.139   7.076 -0.0614 -0.3371 -0.1338
54679W        W97592   1.543  24.384   4.915 -0.1489  0.2903  0.2126
54680W        W97593   5.410  21.639   2.734  0.2666  0.2907 -0.0675
54681W        W97594  27.654  14.788  15.665  0.1191 -0.2417 -0.0023
54682W        W97595  15.188  30.397   5.590 -0.2891 -0.3106  0.0712
54683W        W97596  33.728  21.834   3.968 -0.3023  0.3194 -0.2314
54684W        W97597  33.783  13.624   6.536 -0.1064 -0.0392 -0.0100
54685W        W97598   6.230  32.747  11.346  0.3867 -0.1843  0.1458
54686W        W97599  34.128  19.433   0.381  0.2954 -0.5683 -0.4158
54687W        W97600   4.181  22.529   1.843 -0.0924 -0.1132 -0.2171
54688W        W97601   0.439   0.744  29.265  0.4501 -0.4660  0.3490
54689W        W97602   9.035  26.744  10.205  0.1477  0.1270 -0.2443
54690W        W97603  33.291  23.037  19.579 -0.2864 -0.2528 -0.5330
54691W        W97604   9.758  20.142   6.315 -0.1284 -0.2795  0.1976
54692W        W97605  24.971  30.040  18.897  0.0651  0.0425 -0.3329
54693W        W97606  29.448  26.336  28.504 -0.2576 -0.3412  0.1578
54694W        W97607   8.150  32.782   8.186 -0.0069  0.0217 -0.0173
54695W        W97608  20.177  29.951   1.229 -0.1037 -0.0483 -0.0805
54696W        W97609  32.416  27.600   4.144 -0.1181  0.0127 -0.2254
54697W        W97610   1.101  20.077   7.683 -0.0435  0.2865  0.0210
54698W        W97611  25.841  34.246   6.005  0.1677 -0.3218 -0.2485
54699W        W97612   9.163  28.251   8.360 -0.2025  0.1702  0.1946
54700W        W97613  26.784  32.309   5.850 -0.0761 -0.2205 -0.0450
54701W        W97614   6.092  18.451  29.746  0.0168 -0.1398  0.2768
54702W        W97615   3.975  31.276  21.652  0.0520  0.1374 -0.1523
54703W        W97616  30.399  30.543   4.712  0.0533  0.1050  0.2773
54704W        W97617   4.534  13.298  22.590 -0.1708 -0.0054  0.1961
54705W        W97618   6.527  30.630   6.932 -0.2162  0.1125 -0.1144
54706W        W97619  27.705   4.219   2.030 -0.0338 -0.2705  0.0464
54707W        W97620   1.480  26.661  23.252 -0.0870  0.1836 -0.3165
54708W        W97621   1.770  24.467   5.716 -0.0493  0.1266 -0.2271
54709W        W97622  32.189  29.201   6.250  0.0250 -0.3560  0.0740
54710W        W97623  23.248  28.062   4.772  0.2089  0.0495  0.1007
54711W        W97624   8.421  21.536  27.067 -0.0306  0.0556  0.0282
54712W        W97625   0.051  23.241  29.637  0.2597  0.0461 -0.0340
54713W        W97626  29.022  23.486   5.951 -0.0498  0.1880  0.0556
54714W        W97627  28.805  26.459   4.457 -0.0994 -0.0334  0.0231
54715W        W97628  20.022  18.068  29.342  0.5035  0.1514 -0.0893
54716W        W97629  32.162  18.212   8.740  0.0487 -0.3803 -0.1264
54717W        W97630   9.976  31.447  10.090 -0.0057  0.0824 -0.0901
54718W        W97631  23.834  10.174   0.897 -0.1139 -0.3308 -0.0992
54719W        W97632  29.376  31.976   6.163  0.1240 -0.0790  0.0197
54720W        W97633  33.897   1.846   0.411 -0.0882 -0.0445  0.3104
54721W        W97634   6.549   8.043  10.616 -0.1800  0.0404  0.2027
54722W        W97635  26.532  28.494  28.043  0.2467  0.3425 -0.1838
54723W        W97636  24.848  29.253  28.674  0.0174  0.0029 -0.2558
54724W        W97637   5.479  17.376  15.254 -0.0123  0.1077  0.0488
54725W        W97638   6.078  32.702   5.929 -0.3015 -0.1419  0.1442
54726W        W97639  30.052  33.792  26.473  0.0603 -0.0714 -0.2839
54727W        W97640  30.514  24.689  26.312 -0.0120 -0.3588 -0.1193
54728W        W97641  30.315  18.350   8.386  0.1346  0.0957 -0.1820
54729W        W97642  31.010  27.169   8.231  0.2942  0.0388 -0.0398
54730W        W97643  30.424  23.518   4.649 -0.0879  0.1040 -0.2382
54731W        W97644  28.713   3.937   6.637 -0.4420  0.0814  0.0460
54732W        W97645  33.007  22.715   2.255 -0.1523 -0.0344 -0.1784
54733W        W97646  25.697  28.443  29.061  0.1125 -0.1895 -0.0111
54734W        W97647   9.072  18.600   6.697  0.3927  0.0516  0.0688
54735W        W97648   9.012  28.764   7.262 -0.3538 -0.1687  0.2071
54736W        W97649  32.867  25.336   6.756 -0.2665 -0.2551  0.0645
54737W        W97650   2.718  26.567  27.932 -0.0259  0.0281 -0.0114
54738W        W97651  31.155  15.893  27.780  0.2020 -0.1654  0.3603
54739W        W97652   7.109  27.806  11.158  0.0290  0.1760  0.1226
54740W        W97653  27.153  33.922   2.757  0.0286 -0.0266 -0.2493
54741W        W97654   6.239  28.414   7.668  0.0339 -0.0300 -0.0340
54742W        W97655  27.888  21.055   5.823 -0.2157  0.0922  0.1145
54743W        W97656  26.776  23.188  24.432 -0.2703  0.0155 -0.0211
54744W        W97657   2.848  26.452   2.028 -0.0273  0.4267  0.2000
54745W        W97658  20.579  30.944   0.472 -0.1102 -0.0032  0.0896
54746W        W97659  28.684  11.762   4.847 -0.2753 -0.1489  0.0333
54747W        W97660  32.106   6.263  26.963 -0.0740 -0.0118 -0.0117
54748W        W97661  31.275  23.882   5.613  0.0025 -0.2716  0.0768
54749W        W97662  19.434  16.561  21.886 -0.3053  0.2801 -0.3029
54750W        W97663   6.000  18.377  29.258  0.2374  0.0373 -0.0659
54751W        W97664   2.098  28.915   1.573 -0.2384  0.2380 -0.2647
54752W        W97665  11.473  17.989   3.752 -0.0310 -0.0902  0.2539
54753W        W97666  28.701  21.806   1.793  0.3990  0.2245  0.0127
54754W        W97667   8.507  12.727   0.587 -0.0427 -0.2925  0.1552
54755W        W97668   0.688  33.564   7.766 -0.1402 -0.0959  0.0060
54756W        W97669   4.210  28.779  27.752  0.1331 -0.2107 -0.0135
54757W        W97670  14.710  18.829  24.500  0.2770  0.3044 -0.2426
54758W        W97671  33.552  24.750   6.068 -0.2951 -0.1790  0.1763
54759W        W97672  28.644  24.735   3.107  0.1205 -0.1691  0.1464
54760W        W97673   5.812  23.854  21.354 -0.0035 -0.3368  0.1059
54761W        W97674  27.002  22.981   5.423 -0.1212 -0.2670 -0.1056
54762W        W97675   6.334  16.062  29.719  0.0852  0.3724  0.3017
54763W        W97676  33.320  21.559   1.315  0.1555 -0.1518 -0.2574
54764W        W97677   0.931   0.813  19.286 -0.3950  0.0258 -0.0659
54765W        W97678  32.259  14.482   0.719  0.1236  0.3240  0.0990
54766W        W97679  30.083  27.411   2.784 -0.0063 -0.0498 -0.1603
54767W        W97680   4.129  29.587  24.276 -0.1861  0.3242  0.0092
54768W        W97681   3.232  17.388  26.591 -0.0856 -0.1074  0.1942
54769W        W97682  33.447  24.990  27.331  0.2280 -0.1265 -0.1615
54770W        W97683  22.472  31.563   7.158 -0.3520  0.2700 -0.4082
54771W        W97684  29.356  20.329   5.309 -0.3877  0.1988  0.3676
54772W        W97685   0.573  30.515   4.298 -0.1356 -0.2288 -0.0231
54773W        W97686   1.938  22.048  10.545 -0.0227  0.0805 -0.0472
54774W        W97687  22.928  24.436  29.650  0.3081  0.1811 -0.4101
54775W        W97688  34.419  24.173   3.439  0.0596 -0.0324 -0.0238
54776W        W97689  29.701  22.579   5.531 -0.0759 -0.1026 -0.3337
54777W        W97690  30.120  17.681  19.625  0.1154  0.2927  0.3138
54778W        W97691   2.980  25.685  26.130 -0.0959  0.0836  0.4137
54779W        W97692  31.029  19.263  10.194 -0.0999  0.0955  0.1074
54780W        W97693   3.924  23.176   3.128 -0.2660  0.0523  0.0540
54781W        W97694   7.066  15.857  27.534  0.3196  0.2189  0.0525
54782W        W97695   8.498  30.593  25.270  0.3007  0.1692  0.4412
54783W        W97696  34.130  22.746   6.847  0.0114  0.1994 -0.0415
54784W        W97697  34.456  24.557   3.790  0.1226  0.2185 -0.1090
54785W        W97698  32.577  18.590  28.919 -0.0729  0.3250 -0.1597
54786W        W97699   5.537  19.292  26.023  0.1849 -0.3477 -0.5146
54787W        W97700   6.727  32.691  11.346  0.0076  0.2873  0.0198
54788W        W97701  26.558  26.794  25.010 -0.1087 -0.0952  0.0676
54789W        W97702   0.747  20.873   1.000 -0.1800 -0.1897  0.1679
54790W        W97703  22.911  18.813   2.763 -0.3173  0.1181  0.1673
54791W        W97704   7.340  13.586  19.283 -0.0538  0.2233 -0.4821
54792W        W97705   0.161  29.368  26.439  0.0511  0.0278  0.3114
54793W        W97706   1.030   1.745  25.267 -0.0966  0.4181  0.0718
54794W        W97707   6.043  20.577  24.971  0.1120  0.0904  0.1380
54795W        W97708   0.982  26.344  29.109  0.0867  0.0122 -0.0123
54796W        W97709  29.812  24.152   3.602  0.0606  0.1933  0.2286
54797W        W97710   6.542  19.089  16.185  0.0954  0.2715 -0.5611
54798W        W97711   3.165  18.844   3.203  0.0283 -0.4035  0.1763
54799W        W97712   0.614  19.660   1.292 -0.2248 -0.4531  0.2964
54800W        W97713  26.037  30.285  25.698 -0.0186  0.1308 -0.2992
54801W        W97714   2.143  30.059  24.820 -0.0949  0.0289  0.1990
54802W        W97715   4.764  24.933  29.061  0.1679 -0.2344 -0.1243
54803W        W97716  30.389  22.977   8.289  0.3061  0.0074 -0.1613
54804W        W97717  16.215  20.757  16.619  0.1429 -0.0180 -0.1398
54805W        W97718  33.224  25.740   9.094  0.0896  0.1044 -0.1491
54806W        W97719   0.335  25.911   0.046  0.1058  0.1432 -0.2188
54807W        W97720   2.260  23.321   7.181 -0.0752 -0.1510 -0.1318
54808W        W97721  27.997  23.861   8.614 -0.1953  0.1555 -0.2642
54809W        W97722  31.174  23.789  26.806  0.0100 -0.1825  0.4201
54810W        W97723  29.344  21.727   5.158 -0.4674  0.0555  0.2526
54811W        W97724  24.501  16.960   0.160 -0.1893  0.1076 -0.0505
54812W        W97725   4.387  19.530   9.744 -0.0432  0.0988 -0.0110
54813W        W97726   1.609  16.618  28.148 -0.2829 -0.1287  0.1569
54814W        W97727  30.118  14.676   1.552 -0.0859  0.1581 -0.0776
54815W        W97728  25.896   0.687   6.820 -0.0642 -0.0399  0.0271
54816W        W97729  26.581  23.971   4.740  0.2057  0.1110  0.2190
54817W        W97730   0.335  23.248   1.062 -0.0040 -0.1499 -0.2708
54818W        W97731   1.584  19.012   4.143  0.0280 -0.4511  0.1057
54819W        W97732   7.182  19.868   0.752 -0.1879 -0.1669  0.1115
54820W        W97733  32.695  29.233   6.447  0.1971 -0.0601 -0.0709
54821W        W97734  13.227  28.643   9.168  0.0653  0.0635 -0.0947
54822W        W97735  31.642  33.447   7.029  0.0147  0.1873 -0.3050
54823W        W97736   5.789   3.957  10.068  0.1832 -0.4414 -0.3973
54824W        W97737  26.106  10.643   9.630  0.0451 -0.1164  0.1898
54825W        W97738  29.568  24.828  28.770 -0.1337  0.1702  0.0468
54826W        W97739  32.974  20.027   4.084 -0.3135 -0.0128 -0.0845
54827W        W97740   1.826  12.856   8.602  0.0661 -0.2420 -0.1139
54828W        W97741   3.512  24.528   5.027  0.1892 -0.0571  0.1867
54829W        W97742  26.741  30.798   8.542  0.2038  0.0457 -0.1286
54830W        W97743   1.021  18.992   1.717 -0.4156  0.0255  0.4199
54831W        W97744   4.467  28.848   8.126 -0.2273 -0.5176 -0.1629
54832W        W97745  26.786  19.091   7.812  0.2795  0.2795  0.4284
54833W        W97746   6.869  11.391  23.163  0.4476  0.0154 -0.0556
54834W        W97747  31.506  32.948   0.728  0.1782 -0.0799  0.0397
54835W        W97748  26.802  33.121  28.913  0.4262  0.0149  0.2530
54836W        W97749  27.082  15.907   3.050  0.0901 -0.0712 -0.0616
54837W        W97750   5.937  28.917   6.589 -0.0275 -0.2361  0.3549
54838W        W97751  32.100  17.608   4.568  0.0263 -0.1315 -0.1270
54839W        W97752  26.679  30.324   9.878  0.0844  0.2951  0.2608
54840W        W97753  22.859  16.424   2.908  0.1429  0.0882  0.0087
54841W        W97754   3.575  19.206  10.234  0.0658  0.0986  0.1176
54842W        W97755   6.461  19.292  28.784 -0.0187 -0.1281  0.1763
54843W        W97756  34.181  23.158  29.314 -0.1463 -0.2116 -0.0382
54844W        W97757   3.947  24.490   3.730  0.2634 -0.2317  0.0774
54845W        W97758   8.116  30.473   9.317 -0.1849  0.0777  0.0177
54846W        W97759  27.670  21.649   8.579 -0.3601  0.2539 -0.0164
54847W        W97760  10.605  27.730  21.276 -0.0750 -0.1047 -0.0582
54848W        W97761   7.868  32.213   9.816  0.1739  0.2590  0.0895
54849W        W97762   8.727  19.185  28.874 -0.2523 -0.0885  0.0171
54850W        W97763  34.383  23.077   8.717  0.1560  0.1540 -0.1257
54851W        W97764  23.475  15.882   3.556  0.2526 -0.1274 -0.1068
54852W        W97765  29.145  15.650   7.698 -0.0599 -0.6300  0.2940
54853W        W97766   2.459  21.339   4.407  0.1889 -0.1989  0.0476
54854W        W97767  27.474  19.690   3.567 -0.2199 -0.2258  0.1906
54855W        W97768   9.093  28.590   2.664 -0.0076 -0.1576  0.1506
54856W        W97769  25.189  25.256   7.240 -0.3884 -0.0870 -0.0205
54857W        W97770  32.361  10.784   0.815  0.0226 -0.3290 -0.1550
54858W        W97771   4.626  18.762   3.171  0.0639 -0.3260 -0.2381
54859W        W97772  31.765  13.174   2.986 -0.2067 -0.0032 -0.1204
54860W        W97773   9.022  34.157  11.368 -0.1801 -0.0848  0.2277
54861W        W97774  33.701  16.104   4.918  0.0178 -0.3194  0.0394
54862W        W97775  30.050  21.421   7.444 -0.0703 -0.3219 -0.3286
54863W        W97776  32.712  27.587  28.019 -0.0504  0.2215 -0.0583
54864W        W97777  33.363  32.638   1.620  0.1015  0.3100 -0.0463
54865W        W97778  27.149  18.667   3.545 -0.0758  0.2010  0.0057
54866W        W97779   4.730  27.766   2.455  0.1004 -0.3653  0.1790
54867W        W97780  30.169   9.385   6.363  0.6326 -0.0744  0.1347
54868W        W97781   3.721  19.769   7.502  0.2998  0.0368  0.1075
54869W        W97782  29.439  26.741   9.227 -0.0350 -0.3721 -0.0597
54870W        W97783  12.068  28.791   4.175  0.0762 -0.0960  0.1137
54871W        W97784  23.998  24.002  19.845  0.0182 -0.2951  0.1572
54872W        W97785   0.041  26.987   0.810 -0.1919 -0.1505  0.2935
54873W        W97786   1.769  29.068  23.361  0.0620 -0.1146 -0.2065
54874W        W97787  33.732  30.833   4.572  0.0815  0.0343 -0.2826
54875W        W97788  18.709  20.322  28.157  0.2759  0.1587 -0.0109
54876W        W97789  25.595  24.501   6.260 -0.0383  0.0967 -0.0045
54877W        W97790   5.008   0.089  10.947  0.0868  0.0369 -0.0682
54878W        W97791  26.132   1.376   2.501  0.1583  0.0113  0.0201
54879W        W97792  23.817   1.661   5.435  0.3808  0.0619 -0.0480
54880W        W97793   6.249  32.000  25.795 -0.0529  0.0159 -0.1392
54881W        W97794  28.784  23.190   8.838 -0.0202  0.0256  0.1575
54882W        W97795   7.374  31.928   3.701 -0.0738  0.3286 -0.2095
54883W        W97796   0.429  28.356   7.077 -0.3969  0.1547 -0.2014
54884W        W97797  17.539  24.386   6.484  0.1146  0.0536  0.0303
54885W        W97798  31.923  24.132   3.595 -0.0926 -0.1423  0.3832
54886W        W97799   4.509  20.882   9.463  0.0850  0.0629  0.3747
54887W        W97800  27.249  18.227  14.659  0.0770  0.0128  0.0557
54888W        W97801   4.054  18.722   1.602 -0.0588 -0.0044  0.1237
54889W        W97802   9.979  21.715   6.058  0.2859 -0.2038 -0.1508
54890W        W97803   1.954  28.126   2.942  0.1065 -0.1322 -0.1109
54891W        W97804  32.840  29.821   3.415  0.2586  0.2968  0.0921
54892W        W97805   1.360  16.853   9.301 -0.0247  0.2602 -0.1798
54893W        W97806   0.799  21.704   7.196  0.1832 -0.1052  0.0191
54894W        W97807  32.074  19.945   1.289  0.0873  0.2639 -0.0357
54895W        W97808  28.718  15.692   6.121  0.1623  0.2552  0.2916
54896W        W97809  33.333  25.350   5.137  0.0079  0.3941 -0.0352
54897W        W97810  31.404  19.519   9.261 -0.1560  0.3773  0.0551
54898W        W97811  15.289  30.414   3.876  0.0789  0.3229  0.0909
54899W        W97812  33.340  26.103  10.492  0.1643  0.0823 -0.0643
54900W        W97813   5.888  32.894  11.019  0.1199  0.0908 -0.0069
54901W        W97814   2.106  22.525  27.262 -0.1263 -0.1739 -0.0580
54902W        W97815  21.630  24.324   1.023  0.2484 -0.2111 -0.1063
54903W        W97816  28.268  19.588   1.636 -0.1563 -0.0697 -0.0869
54904W        W97817  32.153  29.939   5.722  0.2274 -0.2165  0.0354
54905W        W97818  33.750  24.009   2.364  0.2774 -0.0411 -0.1612
54906W        W97819  29.581  22.778   1.995  0.0256 -0.1114 -0.1026
54907W        W97820   1.808  14.511  10.381 -0.0476 -0.0752  0.1627
54908W        W97821  30.499  20.393   9.141 -0.0927  0.2923  0.1153
54909W        W97822   8.283  19.524  28.881 -0.3004  0.2229  0.2834
54910W        W97823  31.563  25.109   2.960  0.2224 -0.1645  0.0580
54911W        W97824   4.042  20.443   6.766 -0.0170  0.0973  0.0622
54912W        W97825  27.213  24.982   6.487  0.0124  0.0482  0.3140
54913W        W97826   9.117  16.833   7.373 -0.1399 -0.1156  0.0691
54914W        W97827  29.949  27.540   2.255  0.1228 -0.0017 -0.0261
54915W        W97828  29.173  16.159   3.231 -0.0382 -0.0078  0.1243
54916W        W97829  31.152  28.344   5.403 -0.4289  0.3660 -0.1982
54917W        W97830   4.472  24.505   9.469  0.1300  0.0507  0.0204
54918W        W97831   3.934  16.781   0.624 -0.1191  0.0086 -0.1006
54919W        W97832   6.571  23.576   7.899  0.0807  0.0116 -0.2703
54920W        W97833   0.159  16.665  23.458 -0.0218 -0.0186 -0.2602
54921W        W97834   2.556  23.522   4.779 -0.2097 -0.0632  0.0224
54922W        W97835  10.392  24.240   4.846  0.0243  0.0339  0.0426
54923W        W97836   3.554  20.633   8.979 -0.0013  0.1293  0.1528
54924W        W97837   7.658  12.683   3.589 -0.2230 -0.1532 -0.2364
54925W        W97838   2.162  15.841   7.900  0.1330 -0.0443  0.1945
54926W        W97839  21.889  24.097   6.798  0.1100  0.1288  0.1501
54927W        W97840  24.026  15.456   0.508 -0.3143  0.2666 -0.1545
54928W        W97841  31.673  31.076  29.776  0.1887  0.1902 -0.0345
54929W        W97842   3.973  24.935   8.173  0.0895 -0.0161  0.1918
54930W        W97843  11.855  26.134   5.154 -0.0235 -0.3086  0.0577
54931W        W97844   2.153  25.331   5.884  0.2783 -0.1324 -0.2646
54932W        W97845   0.966  18.622  26.977  0.0698 -0.0471  0.0852
54933W        W97846   8.649  24.828   9.618 -0.2509  0.2204 -0.1123
54934W        W97847  32.041  29.287   8.738  0.2059  0.2743 -0.3120
54935W        W97848   9.674  12.169   9.758  0.0053 -0.2367 -0.0693
54936W        W97849  32.681   8.297   7.075 -0.3165 -0.1226  0.1737
54937W        W97850   3.705  23.350   3.877 -0.1164 -0.0137 -0.0205
54938W        W97851  24.941  26.363   5.023 -0.3020  0.1846 -0.1773
54939W        W97852  33.749   9.855  26.913 -0.3215 -0.1239 -0.3082
54940W        W97853   1.364  27.263   0.552  0.0509  0.2108 -0.0368
54941W        W97854   8.511  13.958   6.720  0.1819  0.1342 -0.4045
54942W        W97855  28.876   9.896   6.189  0.0098 -0.1721  0.1159
54943W        W97856  34.468  28.171   0.232  0.2560  0.2369 -0.1690
54944W        W97857  33.874  25.250   8.306  0.1607  0.1227  0.1537
54945W        W97858  23.067  17.391  29.392  0.1158 -0.1430 -0.3922
54946W        W97859   2.670  23.655  27.303  0.2554 -0.0420 -0.0794
54947W        W97860   4.589  18.015   3.734 -0.4321  0.2092  0.0628
54948W        W97861  30.817  19.233   5.956  0.0822  0.0500  0.4170
54949W        W97862  11.333  27.737  29.705 -0.2907 -0.2879  0.0907
54950W        W97863   3.977  19.799   5.373  0.1780 -0.1406  0.1151
54951W        W97864  24.890  19.264   4.787 -0.2240 -0.1415 -0.1212
54952W        W97865  29.223  29.446   0.069 -0.0393  0.1822  0.1533
54953W        W97866   5.156  28.915  26.679  0.2090 -0.2232  0.1077
54954W        W97867   0.564   9.394  25.725 -0.1624  0.0567 -0.3258
54955W        W97868  29.782   3.578   5.920  0.4055  0.2389  0.0150
54956W        W97869  29.002  19.638   2.481  0.3319  0.0124 -0.0750
54957W        W97870  32.384  19.602   1.559  0.1696 -0.1063  0.1784
54958W        W97871  32.142  29.775   6.252 -0.4362 -0.0488  0.1163
54959W        W97872   0.647  26.907   9.887  0.0898  0.2067 -0.1271
54960W        W97873  10.199  24.948   6.308  0.0324 -0.1839 -0.1246
54961W        W97874  32.221  28.752   7.127 -0.0925  0.0450 -0.0408
54962W        W97875  30.698   7.872   7.702 -0.0207 -0.4945  0.2320
54963W        W97876   7.128  22.379  10.033  0.0229  0.0428  0.2470
54964W        W97877   3.865  14.444   5.904  0.1795 -0.1062 -0.0740
54965W        W97878   2.798  30.359   7.952  0.3610 -0.1224  0.0755
54966W        W97879  25.281  21.024   3.398  0.0126  0.0322  0.3221
54967W        W97880  24.098  18.752   5.404 -0.1935  0.0465 -0.0615
54968W        W97881  33.935  20.347   8.011 -0.1064  0.2632 -0.3560
54969W        W97882   5.338  20.164   4.794  0.0411  0.1537 -0.2068
54970W        W97883  30.128  18.426  10.108  0.3364  0.3026 -0.0438
54971W        W97884   5.012  23.470  29.350  0.0736 -0.0164  0.1020
54972W        W97885  23.739  19.970   2.758 -0.2366 -0.2312  0.0289
54973W        W97886   9.253  17.841   5.832  0.1452  0.0255 -0.1323
54974W        W97887   5.114  29.393   9.181  0.2160  0.0371 -0.3276
54975W        W97888   2.508  19.859  27.007 -0.2895  0.0317  0.0963
54976W        W97889  20.603  24.403   6.689 -0.0344  0.2440  0.1708
54977W        W97890   1.974  29.571   5.102  0.4137  0.1013 -0.0963
54978W        W97891   7.972  31.949   9.420  0.0953  0.1549  0.0144
54979W        W97892  31.462  18.654   7.266 -0.0274  0.1161  0.3171
54980W        W97893  32.459  22.610   9.104 -0.0974 -0.0447 -0.0447
54981W        W97894   6.519  23.308   6.373  0.1011 -0.0198  0.5248
54982W        W97895   5.156  13.927   5.249  0.2977  0.1794 -0.2102
54983W        W97896  29.411  15.917   2.774  0.0803  0.3235 -0.0738
54984W        W97897   6.986  16.050   4.195 -0.1360 -0.0606 -0.0382
54985W        W97898  32.206  16.870   7.361  0.1304  0.2904 -0.0341
54986W        W97899  33.950  24.056   3.359  0.0404 -0.0761  0.0392
54987W        W97900  19.634  24.304  29.653 -0.1995  0.0306  0.2765
54988W        W97901   0.802  22.548  10.599 -0.1869  0.0856  0.2987
54989W        W97902   1.464  26.783   0.544  0.0056 -0.1403 -0.0408
54990W        W97903  29.059  20.236   8.087  0.0417  0.1579  0.1068
54991W        W97904   6.062  27.191   5.846  0.1761  0.4358  0.1000
54992W        W97905  30.069  32.274  10.080  0.0956  0.0489  0.1651
54993W        W97906  20.708  34.261   0.743  0.0573 -0.1326 -0.0940
54994W        W97907   1.760  23.971   7.546  0.2983  0.0087 -0.0079
54995W        W97908  29.681  25.481   7.011 -0.1840  0.3374  0.1307
54996W        W97909  30.290  30.899   4.282  0.2332 -0.0407  0.1444
54997W        W97910   5.141  13.621   9.654 -0.0303  0.0471 -0.0689
54998W        W97911   5.210  31.770  24.195  0.0313 -0.0131  0.0623
54999W        W97912   3.885  24.049   1.582  0.0045  0.0990  0.3356
55000W        W97913   4.075  19.430   4.396  0.1059 -0.3517 -0.2557
55001W        W97914  28.487  27.647  28.022  0.2093  0.0822  0.1041
55002W        W97915  32.211  21.102   3.588 -0.0380 -0.0127 -0.1471
55003W        W97916  26.139  10.570  25.932 -0.1108  0.1842 -0.1279
55004W        W97917  27.995  26.259   4.839  0.1468 -0.0833  0.1616
55005W        W97918   8.314  19.491   4.780 -0.0844 -0.1701  0.2021
55006W        W97919  24.831  18.804   1.928  0.0267  0.0668  0.1267
55007W        W97920  10.519  19.836   5.290  0.0187  0.1193 -0.2013
55008W        W97921  33.469  17.812   4.960 -0.0998  0.0218  0.0698
55009W        W97922  31.403   1.693   5.641  0.0884 -0.2512 -0.3996
55010W        W97923   6.483  15.351   9.078  0.0403 -0.0959 -0.0287
55011W        W97924  16.607  20.665  28.791 -0.5471  0.0810  0.1405
55012W        W97925  26.649  15.665   4.165  0.0879 -0.0163  0.2079
55013W        W97926  34.467  13.305  10.185 -0.0356  0.0593 -0.0782
55014W        W97927  23.033  19.195   0.605  0.1088  0.2468 -0.1167
55015W        W97928   0.204   3.524   4.820 -0.1567 -0.0961  0.2711
55016W        W97929   0.779  13.083   8.488 -0.1747  0.1086 -0.1344
55017W        W97930  34.262  24.577   8.318 -0.0089  0.0297  0.3390
55018W        W97931  24.095  20.898   3.863  0.1468 -0.1505  0.2440
55019W        W97932  26.948  24.583  25.082  0.0978  0.0235 -0.1606
55020W        W97933   1.255  26.629   6.980 -0.0200  0.0880  0.2121
55021W        W97934  33.294  21.153   4.807  0.3867  0.4067 -0.0379
55022W        W97935  31.744   0.575   7.036 -0.0263  0.1389 -0.0279
55023W        W97936   1.663  24.029  24.137  0.0819 -0.2682  0.1932
55024W        W97937  33.433  30.095   1.693  0.0254 -0.4888 -0.5027
55025W        W97938  26.966  21.479  25.161 -0.2114  0.0542  0.1907
55026W        W97939   3.287  21.221   7.501 -0.0827  0.0352 -0.0362
55027W        W97940  27.606  18.296  10.127 -0.1614 -0.0233 -0.3080
55028W        W97941  10.377  26.423   3.096  0.2260 -0.1418 -0.0606
55029W        W97942   7.833  22.282  29.019  0.0495 -0.0722 -0.0037
55030W        W97943   0.295  21.529   8.144  0.1263  0.3519  0.1606
55031W        W97944   3.077  22.160   6.733 -0.1766 -0.0553 -0.1251
55032W        W97945  26.695  28.976   0.412  0.3918 -0.2195  0.2101
55033W        W97946  26.954  18.606   7.625 -0.0509 -0.0974 -0.2525
55034W        W97947   0.643  16.140   4.770 -0.1332 -0.0789 -0.0832
55035W        W97948  33.749  23.183   2.440 -0.4309  0.1208  0.2537
55036W        W97949  27.696  28.303   4.949 -0.2475  0.2078 -0.0081
55037W        W97950  31.219   9.887  25.877  0.0797 -0.0477 -0.0459
55038W        W97951  32.167  22.956   9.230  0.1583  0.0220 -0.0130
55039W        W97952  32.073  25.223  26.528 -0.2238  0.0228 -0.0546
55040W        W97953   2.144  17.075   8.448  0.2351 -0.1451 -0.0006
55041W        W97954  32.629  26.242  24.407  0.1150  0.0050 -0.2893
55042W        W97955   1.226  20.234   8.177 -0.1507 -0.3033  0.1255
55043W        W97956  29.238  17.752   5.266  0.0331 -0.1246  0.0185
55044W        W97957  16.087  17.211   4.459  0.1227  0.0707 -0.3483
55045W        W97958   4.089  17.611   1.663 -0.0719  0.0239  0.1410
55046W        W97959   7.110  24.720   4.477 -0.3765 -0.0879  0.1669
55047W        W97960  33.533  19.074   5.508  0.0853  0.1652  0.3683
55048W        W97961   7.834  17.512   3.366 -0.2107  0.1502  0.0034
55049W        W97962   2.395  22.182   3.257  0.2974 -0.2455 -0.1798
55050W        W97963   1.902  19.857   2.860 -0.1625  0.0280  0.0913
55051W        W97964  30.872  19.613   1.322  0.0868  0.0421  0.0855
55052W        W97965   1.744  24.168  10.387 -0.3435  0.0933 -0.0617
55053W        W97966   3.388  21.735   4.760 -0.1489  0.1269 -0.0650
55054W        W97967  31.003  18.512   9.026 -0.2099  0.3529  0.0888
55055W        W97968  24.898  22.370   4.367  0.0359  0.0072 -0.0104
55056W        W97969  32.046  25.300   1.266 -0.0440 -0.1056 -0.3579
55057W        W97970   7.408  22.025  29.229  0.1302  0.1927 -0.2011
55058W        W97971  33.534  29.948   9.445 -0.4003  0.2771  0.4629
55059W        W97972   0.473   4.431  28.752  0.0282  0.1527  0.2167
55060W        W97973   2.011  21.907   6.661 -0.2650  0.2511 -0.0321
55061W        W97974  28.260  28.346   6.703 -0.1118  0.1112 -0.4801
55062W        W97975   8.173  14.555   3.744 -0.4472 -0.3691 -0.0241
55063W        W97976   7.001  15.655   9.035 -0.1153 -0.1761 -0.0370
55064W        W97977  10.309  31.978   6.815 -0.1553  0.2055 -0.1540
55065W        W97978  32.553  18.877   5.579 -0.0825  0.0794 -0.2986
55066W        W97979  27.792  26.867   6.526 -0.2573  0.0995 -0.0499
55067W        W97980  13.179  17.998   6.228  0.2226 -0.2269  0.2037
55068W        W97981   4.917  21.583   3.806 -0.2856 -0.1773  0.0517
55069W        W97982  23.223   9.668   1.175 -0.5199  0.1281  0.0275
55070W        W97983  30.439  23.991   7.415 -0.1437  0.0614 -0.0742
55071W        W97984  33.925  27.936   2.165  0.1353 -0.2050 -0.1421
55072W        W97985   0.428  17.872   5.958  0.1149 -0.0920  0.1711
55073W        W97986   4.405   1.452   5.866 -0.3413  0.1421 -0.1390
55074W        W97987  26.668  21.524   8.099  0.1991  0.1906  0.1518
55075W        W97988   3.342  23.701   8.592  0.3983 -0.0906 -0.1754
55076W        W97989  26.210  20.192   6.585  0.0333  0.1168 -0.0401
55077W        W97990  29.806  13.340   1.398 -0.0932  0.2462  0.2784
55078W        W97991   8.312  22.107   7.725 -0.2388 -0.3159  0.0252
55079W        W97992  33.381  28.832   4.592 -0.1490  0.2318  0.0968
55080W        W97993   3.957  29.299  10.612  0.0505  0.0863  0.1444
55081W        W97994   3.538  26.130  28.914  0.0445 -0.1629 -0.3287
55082W        W97995  33.942  16.706   8.739  0.1361 -0.1293  0.0696
55083W        W97996  24.879  25.577   6.810  0.0084  0.1769 -0.0497
55084W        W97997  23.686  19.647   5.682 -0.0788 -0.1778  0.1030
55085W        W97998   2.697  29.401   4.609 -0.0183 -0.1224  0.0824
55086W        W97999  23.758  31.691   7.164 -0.1452  0.0451 -0.0417
55087W        W98000   3.745  12.108   4.181  0.2884  0.1359 -0.1671
55088W        W98001   9.045  27.110   5.974 -0.1551  0.0899  0.0778
55089W        W98002   2.745  24.709   5.615 -0.1455  0.2412 -0.1148
55090W        W98003  32.724  24.373   3.581  0.1177 -0.2746  0.3871
55091W        W98004  10.337   4.178  11.935 -0.2710  0.0697  0.1335
55092W        W98005   6.496   9.692  10.039  0.0769 -0.3005 -0.2331
55093W        W98006   2.475  24.877  10.061  0.0021 -0.1714 -0.1501
55094W        W98007  32.224  17.810   0.996  0.1084  0.0752 -0.0996
55095W        W98008  33.262  23.661   8.263 -0.3565 -0.0112  0.5036
55096W        W98009   2.518  25.905  25.240  0.3363 -0.0808  0.4007
55097W        W98010   3.465  33.534   9.529 -0.1822 -0.3686  0.1524
55098W        W98011  27.659  24.228   6.811 -0.0735  0.3332  0.0034
55099W        W98012  31.097  25.632   6.578  0.1284 -0.1106 -0.1903
55100W        W98013  26.884  21.219   4.919 -0.0523 -0.0529  0.4833
55101W        W98014   3.471  13.804   9.883  0.0767 -0.0813  0.1180
55102W        W98015  32.667  18.684   7.946  0.0368 -0.0006 -0.1363
55103W        W98016  23.080  30.792  26.708 -0.0615 -0.0144 -0.1964
55104W        W98017   4.456  27.086   8.856 -0.0104 -0.1459  0.2126
55105W        W98018  33.944  26.566   5.904  0.2195 -0.1349  0.0984
55106W        W98019   8.137  30.290   5.231  0.0981 -0.0048  0.1549
55107W        W98020   1.750  15.579   0.069 -0.4458 -0.0193  0.0995
55108W        W98021   4.275   8.636  27.886  0.0449 -0.1762 -0.0324
55109W        W98022   8.337  27.777   8.525  0.0463 -0.1463  0.0446
55110W        W98023  27.936  19.947   3.862 -0.1730 -0.0134  0.1189
55111W        W98024   2.324  25.508   4.913  0.3259 -0.1147 -0.3438
55112W        W98025  25.628  23.633   5.337  0.1367 -0.0835  0.0415
55113W        W98026  28.183  22.013   4.257 -0.0853  0.0932  0.1236
55114W        W98027   1.405  29.858   9.053 -0.1009  0.2193 -0.0432
55115W        W98028  32.177  24.844   4.826 -0.1892  0.3306 -0.0697
55116W        W98029  33.899  32.683   8.231  0.0511  0.0855  0.2435
55117W        W98030   4.785  30.700   3.523  0.5335 -0.0992 -0.2920
55118W        W98031  24.315  24.353   7.923 -0.0193  0.0230  0.0854
55119W        W98032  31.955  14.501   2.520 -0.1606  0.2283 -0.0346
55120W        W98033  33.917  25.343   6.834  0.5184  0.0671 -0.0849
55121W        W98034  19.132  20.513  20.422 -0.0001 -0.4318 -0.0761
55122W        W98035  31.965  27.388   4.397 -0.1818 -0.0916 -0.1647
55123W        W98036   0.804  33.021   0.252  0.0747  0.0082  0.2222
55124W        W98037   0.140  26.307   5.293  0.0682  0.0442  0.0098
55125W        W98038   5.861  14.997   9.461 -0.1711 -0.2388  0.1700
55126W        W98039  30.613  27.105  26.585  0.2918  0.0091 -0.1569
55127W        W98040   4.552   0.409   0.585 -0.2291  0.3067  0.0474
55128W        W98041   5.421   6.116   7.408  0.2293 -0.1069  0.1137
55129W        W98042  23.635  21.592   6.641  0.3499  0.3984  0.2305
55130W        W98043   6.765  21.060   6.265 -0.1222  0.0857 -0.1529
55131W        W98044  32.483  27.047   4.382  0.0677 -0.1177  0.0146
55132W        W98045  33.332   0.881  10.955 -0.0049 -0.0279  0.0146
55133W        W98046   2.143  22.957   0.862  0.3913 -0.3960 -0.0802
55134W        W98047  32.180  16.963   5.751 -0.0241 -0.0797  0.1025
55135W        W98048   1.106  24.056   5.899  0.1918 -0.0007 -0.1426
55136W        W98049  27.773  28.912   4.769 -0.0116  0.1847  0.0812
55137W        W98050  33.398  23.218   7.081  0.0931 -0.2260  0.2843
55138W        W98051  12.458  13.823   4.522 -0.0028  0.1391  0.0758
55139W        W98052   4.580  27.995  17.992 -0.1803 -0.0689 -0.1670
55140W        W98053  28.776   2.560  10.318 -0.0727  0.2511 -0.1283
55141W        W98054   0.764  24.506   4.191  0.0680  0.0945  0.0422
55142W        W98055   0.060  19.495   9.275  0.0353  0.0608 -0.0952
55143W        W98056  31.701  20.219   5.560  0.2141 -0.1423  0.1657
55144W        W98057  32.467  28.053   8.231 -0.0645  0.0975  0.4431
55145W        W98058  24.330  29.130   7.233  0.2208  0.2751  0.0963
55146W        W98059   9.546   6.172  12.262 -0.1314  0.0200  0.3841
55147W        W98060  20.817  27.060   5.423  0.0914  0.1840 -0.2399
55148W        W98061   4.802  12.686   7.988 -0.2297 -0.0458 -0.3460
55149W        W98062  26.088  12.975   4.606  0.1203 -0.0318  0.2654
55150W        W98063   5.500   3.010   5.516 -0.0341  0.3331 -0.1341
55151W        W98064   0.360  17.965  28.648 -0.0417 -0.2573  0.0415
55152W        W98065   2.637  27.482   8.139  0.1544  0.0372  0.2752
55153W        W98066   6.965  28.944   8.076 -0.3794  0.2960  0.0963
55154W        W98067   2.616  19.164   7.615 -0.1365 -0.1474  0.2107
55155W        W98068   5.103  27.648  10.799 -0.0218  0.1806  0.2682
55156W        W98069   5.778  21.011   4.911  0.2042 -0.0186 -0.0315
55157W        W98070  33.182  17.578   6.500 -0.1356 -0.2192 -0.1072
55158W        W98071  27.091  28.356  26.478 -0.0491 -0.2415 -0.1163
55159W        W98072  29.478   7.507   3.712 -0.0782  0.1722 -0.0676
55160W        W98073  23.789  31.161   8.174 -0.1761 -0.0033  0.0683
55161W        W98074  27.463  28.169   5.353  0.0614  0.0671 -0.0698
55162W        W98075  29.373   7.841   9.268  0.1439 -0.1619 -0.3606
55163W        W98076   8.887  22.584   8.802  0.0292  0.1421  0.0927
55164W        W98077  22.912  19.638   3.176 -0.0163 -0.2360  0.0520
55165W        W98078  29.313  25.815   7.757 -0.1814  0.0999 -0.1192
55166W        W98079  25.664  22.282   1.000 -0.0273 -0.0136  0.1586
55167W        W98080   0.517  29.516   9.864  0.2684 -0.3229 -0.1288
55168W        W98081   2.350  15.908  18.299  0.1181 -0.0093  0.0360
55169W        W98082  31.886  32.362   7.468  0.0981  0.0003 -0.0943
55170W        W98083   4.483  16.473   8.009 -0.1346  0.0408 -0.0967
55171W        W98084   0.913  24.402   5.484  0.0667 -0.1094 -0.0002
55172W        W98085  32.204  22.503   7.328  0.0074 -0.1876  0.0512
55173W        W98086   6.472  34.024   8.947  0.0971  0.4163  0.0666
55174W        W98087  27.323  21.130   1.994 -0.0607 -0.3213  0.1581
55175W        W98088   9.425  10.782   3.457 -0.1171  0.1935 -0.1140
55176W        W98089   7.455   5.324   8.157  0.0663 -0.1477  0.4444
55177W        W98090   1.008   8.062  28.655 -0.2486 -0.0026 -0.1522
55178W        W98091  31.942  17.945   6.146 -0.2422  0.1956  0.3849
55179W        W98092   1.928  25.387   3.580 -0.0432  0.1929 -0.3435
55180W        W98093  34.466  20.562   6.986  0.1492 -0.0420  0.1915
55181W        W98094  29.767  25.012   7.478  0.0384  0.1916  0.1952
55182W        W98095   4.627  31.322   3.632  0.0337  0.2082 -0.1719
55183W        W98096   5.143  21.801   9.777 -0.0142  0.0072  0.4469
55184W        W98097   1.751  22.806   9.317  0.1114 -0.1093 -0.1762
55185W        W98098   4.070  18.595   0.515 -0.2246  0.0949 -0.0224
55186W        W98099   7.802  15.053   2.437  0.3063 -0.1060 -0.0523
55187W        W98100  33.186   2.638   4.646  0.2318  0.0030 -0.3003
55188W        W98101   1.923  19.859   9.646  0.2619  0.2935  0.1675
55189W        W98102  30.194  12.992   5.392 -0.3663  0.2499  0.3906
55190W        W98103   3.116  16.918  10.064  0.0647 -0.0915  0.1401
55191W        W98104   3.330  27.367  27.697 -0.1171 -0.2564 -0.0956
55192W        W98105  32.828  32.390   3.771 -0.0225  0.2682 -0.2344
55193W        W98106  25.619  27.343   5.649  0.0613  0.2315 -0.1089
55194W        W98107  12.035  21.607   6.665 -0.1272 -0.0465 -0.0329
55195W        W98108   1.389  32.539   9.822 -0.0885  0.2244 -0.2572
55196W        W98109   6.043  23.696   0.344 -0.1571 -0.3550  0.0555
55197W        W98110   6.469   0.405  27.289 -0.2594 -0.1872  0.0423
55198W        W98111   9.768  33.604   8.581  0.1195  0.1752  0.4347
55199W        W98112   4.402  21.880   9.390 -0.1149  0.1563  0.1210
55200W        W98113   6.447  22.832   6.955 -0.4110  0.2343  0.0570
55201W        W98114   5.034  15.030   7.932 -0.1475  0.0585 -0.0636
55202W        W98115   1.862  23.697   5.944  0.1679 -0.2406  0.1539
55203W        W98116  28.509  33.903   8.832  0.0305  0.0553 -0.0822
55204W        W98117  30.174  21.708   0.147 -0.0520  0.0589 -0.2610
55205W        W98118   6.794  27.955   7.922  0.1420  0.0278 -0.0049
55206W        W98119  27.376  17.985   7.582 -0.2192 -0.4948 -0.1440
55207W        W98120  28.448  31.192  26.589  0.0047  0.2412 -0.1232
55208W        W98121  34.307  31.435   7.881 -0.3100  0.1522  0.1824
55209W        W98122   1.759  12.293   7.178  0.2519  0.1175 -0.1217
55210W        W98123   7.342  15.142   6.776 -0.3489 -0.0442 -0.3099
55211W        W98124   2.855  20.692   3.126  0.0679 -0.0530 -0.1988
55212W        W98125  19.826  24.925   1.716 -0.3074  0.0390  0.2119
55213W        W98126   5.181  30.931   3.296  0.2958  0.0162 -0.1844
55214W        W98127   8.312  28.588  11.168 -0.3690 -0.0081 -0.1507
55215W        W98128  33.177  15.867  28.491  0.0165  0.0127  0.1627
55216W        W98129  23.596  30.674   5.627 -0.1265 -0.1031  0.0138
55217W        W98130   7.170  12.898  29.185 -0.0771 -0.0596  0.2115
55218W        W98131   1.339  24.620  28.863 -0.3572 -0.2957 -0.1270
55219W        W98132   0.879  24.853   5.786  0.1652  0.3430 -0.0540
55220W        W98133  32.626  25.991   2.219 -0.0093 -0.1918 -0.1019
55221W        W98134   6.004  26.599   6.469 -0.3598  0.2000 -0.0276
55222W        W98135  25.262  22.987  29.610  0.0459 -0.0288 -0.0117
55223W        W98136  25.802  28.150   2.117  0.1184 -0.0011  0.2113
55224W        W98137   0.559  16.658   7.886  0.1574  0.1391 -0.3548
55225W        W98138  26.736  16.972   6.730 -0.3269 -0.1100  0.0849
55226W        W98139  34.329  27.270   3.255  0.2139 -0.1628  0.0873
55227W        W98140  29.728  21.702   9.095  0.1765  0.0948 -0.2171
55228W        W98141  34.126  33.177  27.046 -0.1320 -0.1095  0.2161
55229W        W98142  31.239  25.642   1.720  0.1161  0.1556 -0.0322
55230W        W98143  26.261  30.687   2.641  0.1210  0.1761  0.1734
55231W        W98144   2.927  22.068   9.633 -0.0835  0.2369 -0.1266
55232W        W98145  30.833  24.863   7.402 -0.0532 -0.3127 -0.3494
55233W        W98146   2.760  31.679   8.377  0.2725  0.1288  0.1295
55234W        W98147   5.087   2.229   6.586 -0.3577  0.0417 -0.1066
55235W        W98148  27.027  24.235   8.296  0.0800  0.0363  0.0202
55236W        W98149  11.697  25.129   2.804 -0.0175 -0.0133 -0.0208
55237W        W98150  32.738   2.643   3.663  0.2105  0.3449  0.0863
55238W        W98151  32.059   6.975   0.581 -0.0908 -0.3707 -0.0826
55239W        W98152   3.908  29.124   3.728  0.0171  0.0700 -0.2058
55240W        W98153   0.749  15.697   5.143  0.3697 -0.2948 -0.0578
55241W        W98154  32.348  12.865  10.369 -0.0882  0.0020 -0.0703
55242W        W98155   1.933  26.746   5.598  0.2248 -0.2593 -0.0105
55243W        W98156   4.117  21.685   1.035  0.0882 -0.0398  0.3116
55244W        W98157   3.018  21.282   5.481  0.0338  0.3235 -0.0536
55245W        W98158  33.121  29.671   1.312  0.4173  0.1020 -0.0242
55246W        W98159  27.824  18.127   7.651  0.0630 -0.1581  0.0915
55247W        W98160   6.534  18.995   4.726 -0.0806  0.0631  0.0954
55248W        W98161  34.391  25.735  28.481 -0.0254  0.2889 -0.1799
55249W        W98162   2.289  22.557   5.363 -0.1382 -0.4371  0.0511
55250W        W98163   5.073  23.968   3.382 -0.0731 -0.1377  0.1199
55251W        W98164  34.335  30.523  10.576  0.1959  0.2202  0.1688
55252W        W98165   5.868   5.482   8.011 -0.0682 -0.2445  0.2439
55253W        W98166   8.805  15.775   1.494  0.1081 -0.0140 -0.0737
55254W        W98167  17.747  22.941   7.810 -0.0964 -0.0837  0.1792
55255W        W98168   8.944   0.833  28.851  0.0125  0.1724 -0.1354
55256W        W98169   1.702  31.464   8.168  0.0892 -0.0299  0.1155
55257W        W98170   5.449  16.897   7.998 -0.0034  0.0114 -0.1485
55258W        W98171  30.089  32.846   5.472 -0.0901  0.1999 -0.1214
55259W        W98172   8.651  24.214  26.957  0.0051 -0.1515  0.0391
55260W        W98173   9.600  28.355   7.128  0.0768  0.0592  0.0820
55261W        W98174  34.489  26.416   3.142 -0.2777 -0.1113  0.1195
55262W        W98175   7.301  12.808   3.898  0.1072  0.0478  0.1589
55263W        W98176   1.007  21.209  22.634 -0.0522  0.0277 -0.1295
55264W        W98177   0.289  27.828   8.490 -0.0743  0.0829 -0.2930
55265W        W98178  16.046  29.445  27.061 -0.3484 -0.2861  0.2981
55266W        W98179   4.136  27.868   5.522  0.0817  0.3110  0.5043
55267W        W98180   7.114  17.828  27.721  0.0281 -0.0429 -0.0776
55268W        W98181   0.264  28.864   9.546  0.1069  0.1226  0.0148
55269W        W98182  28.038  28.076   2.289 -0.0820 -0.1758  0.1504
55270W        W98183   4.577  28.516   1.790 -0.0384  0.1245  0.0926
55271W        W98184  27.047  20.531   1.922 -0.1669 -0.0109  0.0939
55272W        W98185  24.782  18.931  25.150 -0.2792  0.0263 -0.2663
55273W        W98186   3.665  16.288   3.633  0.3682 -0.2545  0.0013
55274W        W98187  24.962  24.859   5.791 -0.2335  0.1518 -0.3086
55275W        W98188  32.205  23.301   7.767 -0.0783  0.0036 -0.0062
55276W        W98189  34.175  31.514   7.390 -0.0290 -0.1589  0.1693
55277W        W98190  27.509  33.968   3.703 -0.1128 -0.3926  0.1694
55278W        W98191  31.032   1.337  29.368 -0.0946  0.0274 -0.0308
55279W        W98192   1.163  31.973   2.920  0.1657  0.1094  0.1169
55280W        W98193  24.811  25.223   6.307  0.0945 -0.1264 -0.1670
55281W        W98194   9.158  29.481   6.454  0.0795  0.0623  0.1498
55282W        W98195  33.414  32.712   8.127 -0.0304 -0.2217  0.0428
55283W        W98196  32.892  12.403   0.650 -0.3735 -0.0592 -0.1802
55284W        W98197   2.663  22.066   5.420 -0.2208  0.1505 -0.0295
55285W        W98198   6.254  17.837  27.209  0.2515 -0.0259  0.1463
55286W        W98199  33.855  23.889  29.071 -0.0474 -0.2470  0.2280
55287W        W98200   8.248  29.579   6.990 -0.1052  0.2102 -0.1054
55288W        W98201  31.964  27.799  26.145 -0.0561 -0.0371  0.1799
55289W        W98202   8.383  16.782   3.432  0.1164 -0.0081  0.1094
55290W        W98203  25.709  34.218  27.627 -0.1613 -0.1926 -0.1557
55291W        W98204  32.012  22.565   1.494  0.3971  0.1107  0.3365
55292W        W98205   9.265  25.822   9.244 -0.0948 -0.1953  0.0756
55293W        W98206   2.801   2.576   5.420  0.1491  0.1883 -0.2138
55294W        W98207  33.270  23.369   3.073  0.1372 -0.0492 -0.0689
55295W        W98208  26.499  20.683  25.161 -0.0791  0.1202 -0.2813
55296W        W98209   2.164  23.718  29.417 -0.0022 -0.0010 -0.0250
55297W        W98210  28.190   5.880   3.911  0.0163  0.2460  0.3177
55298W        W98211   2.352  23.124   3.101  0.1105 -0.0978 -0.1016
55299W        W98212  28.331  32.794  10.571 -0.0552 -0.0905  0.0999
55300W        W98213  31.342  19.341  19.533  0.0948 -0.0130  0.3419
55301W        W98214  22.105  32.363   1.523  0.2276 -0.0939 -0.0229
55302W        W98215  11.340  32.381   0.526  0.0658  0.0831 -0.0715
55303W        W98216   2.458  28.292   2.161 -0.3087  0.2273  0.0464
55304W        W98217  32.031  31.143   2.686 -0.0056 -0.0271 -0.0171
55305W        W98218   9.850  23.300  22.646  0.1059 -0.1761  0.2174
55306W        W98219  33.837   7.756  26.864 -0.2176 -0.1535  0.0128
55307W        W98220  31.695  29.540   6.229 -0.2964  0.0024  0.0298
55308W        W98221   2.309  30.742  29.374  0.0197 -0.0593  0.0435
55309W        W98222   3.384  25.804   5.783 -0.0135  0.2473 -0.1283
55310W        W98223  25.036   0.520   4.988 -0.1470  0.2106  0.0379
55311W        W98224   8.973  22.617  29.082 -0.1351  0.0388 -0.0642
55312W        W98225   1.371  22.478   5.087  0.2078  0.1376 -0.1584
55313W        W98226   2.889  23.631  25.075  0.0296  0.1643 -0.3375
55314W        W98227  11.680  21.162   8.657 -0.1381 -0.1085  0.1982
55315W        W98228  12.023  28.733  24.038 -0.2469  0.2323 -0.0477
55316W        W98229   7.410  28.423  28.320 -0.2612  0.1277 -0.2053
55317W        W98230  23.672   0.981   6.269  0.0394 -0.1761 -0.1211
55318W        W98231  27.110   6.094   2.846 -0.1215 -0.2557 -0.0162
55319W        W98232   2.237  28.002  26.798 -0.1899  0.0314  0.2070
55320W        W98233   4.538   7.182  29.634  0.1388 -0.2368  0.1454
55321W        W98234   9.480  27.371  28.258 -0.3604 -0.0293  0.0382
55322W        W98235  32.201  23.575   6.706 -0.0215  0.0457  0.2855
55323W        W98236  21.289  26.825  23.233  0.2360  0.1876  0.0093
55324W        W98237   2.703  24.396   6.490  0.0667 -0.1367  0.0083
55325W        W98238   2.817  33.842  25.092  0.4360 -0.4270 -0.1685
55326W        W98239  27.902  19.288   3.782 -0.0882 -0.1347  0.0952
55327W        W98240   9.137  22.377   2.174 -0.1320  0.2609  0.0689
55328W        W98241   6.244  20.601   3.088 -0.0983 -0.1941 -0.3525
55329W        W98242   1.123  19.505   7.810 -0.2891 -0.1271 -0.3232
55330W        W98243   1.681  17.726   4.384  0.0851 -0.1494 -0.0566
55331W        W98244   3.573  26.132   2.340  0.3064  0.1212  0.0265
55332W        W98245  33.120  22.705  28.525 -0.2677  0.3334 -0.0294
55333W        W98246  11.694  22.379   4.688 -0.0514 -0.1445 -0.1018
55334W        W98247  32.366  23.572   6.169 -0.3720 -0.1882  0.1507
55335W        W98248   6.202  18.944   9.772  0.0323 -0.2111  0.3411
55336W        W98249  21.725  29.092  29.779 -0.4421  0.0407  0.1890
55337W        W98250   5.610  18.293  26.039 -0.1807 -0.1627  0.1339
55338W        W98251   0.222  23.536  24.457  0.3405  0.0945  0.0583
55339W        W98252   4.827  22.862  10.239  0.0557  0.4575 -0.1891
55340W        W98253   0.136  21.201   2.538 -0.1942 -0.1698 -0.1039
55341W        W98254   6.314  21.827   4.999  0.2005  0.1436  0.3590
55342W        W98255  31.292  21.034   4.468 -0.0954 -0.3848 -0.2299
55343W        W98256  28.838  23.039   1.202 -0.0348 -0.4055 -0.0667
55344W        W98257  16.059  27.328   3.832 -0.0511 -0.1292 -0.0414
55345W        W98258   0.882  23.098   0.398  0.1655 -0.1250 -0.0590
55346W        W98259   2.322   1.868   3.603 -0.1009  0.2201 -0.2746
55347W        W98260   6.595  16.315   9.023 -0.2351 -0.1417 -0.0745
55348W        W98261   6.670   8.408   8.076 -0.0380 -0.1469 -0.1746
55349W        W98262  19.949  20.442  28.352  0.2048  0.3011 -0.1415
55350W        W98263   1.877  19.836   0.390  0.3060 -0.2549  0.0301
55351W        W98264  32.118  14.714   6.020  0.0289  0.0925 -0.0694
55352W        W98265  12.986  27.741   5.813 -0.0668 -0.3646  0.2035
55353W        W98266  33.214  15.617  20.976  0.2817  0.0990 -0.2170
55354W        W98267   8.146  34.387   5.132  0.1182  0.0713 -0.4683
55355W        W98268  33.233  30.716   5.656 -0.1107 -0.1334  0.0362
55356W        W98269  33.711  24.836   3.814  0.1675  0.3573 -0.0208
55357W        W98270   3.616  27.212  29.045 -0.1443  0.0957  0.3053
55358W        W98271  32.020   1.305  27.006 -0.4394  0.2145 -0.1056
55359W        W98272   1.655  32.465   1.048 -0.2328  0.1237 -0.0176
55360W        W98273  19.588  33.794  28.892 -0.2465 -0.2147 -0.1173
55361W        W98274  29.947  17.745   7.430  0.0915 -0.1691 -0.2106
55362W        W98275  31.752  11.107   6.919  0.3073 -0.1646  0.3536
55363W        W98276  27.643  28.809   8.449  0.1147 -0.0761  0.0574
55364W        W98277   0.478   1.130  28.036 -0.0150 -0.2167 -0.1735
55365W        W98278   6.033  24.492   0.624  0.3526  0.1201 -0.2087
55366W        W98279  25.307  32.077  28.778 -0.0093  0.1722  0.2019
55367W        W98280  28.298  24.446   2.382  0.1910  0.0763 -0.0528
55368W        W98281  33.882  25.242   2.592 -0.0878 -0.0219  0.2537
55369W        W98282  33.744   3.830   7.316 -0.1308  0.1070  0.0061
55370W        W98283  34.258  24.213   6.193  0.0037  0.0300  0.2334
55371W        W98284   4.214   9.212  18.141 -0.0105  0.2212  0.3142
55372W        W98285   0.594  11.858  24.128  0.0841 -0.0911  0.0684
55373W        W98286   4.380  17.195  20.028 -0.0737  0.3079  0.0560
55374W        W98287   2.408  30.980   0.485 -0.0242 -0.2099  0.0203
55375W        W98288  11.222  29.121   7.762  0.0579  0.1571  0.5886
55376W        W98289   2.145   0.275   1.391 -0.1487  0.1799  0.0298
55377W        W98290  31.770  21.427   9.301 -0.0684  0.3608  0.3342
55378W        W98291  29.462  29.981   6.062  0.3505  0.2112 -0.1864
55379W        W98292  21.227  17.867   8.235  0.0745  0.1504  0.1230
55380W        W98293  28.800   3.447   7.740 -0.0409 -0.1327 -0.0241
55381W        W98294   0.013  30.925   3.792 -0.1548  0.1869 -0.2361
55382W        W98295  20.506  31.604  28.203  0.0699 -0.1511  0.0975
55383W        W98296  30.906   2.217   1.641 -0.1596 -0.1427 -0.5450
55384W        W98297   0.011  26.850   0.027 -0.1001 -0.0142  0.1122
55385W        W98298   2.699  24.538  28.409 -0.2373  0.3057 -0.0910
55386W        W98299  20.556  20.828   5.421 -0.4580  0.0518  0.1185
55387W        W98300   8.526  19.677  29.758 -0.4667  0.0972  0.1060
55388W        W98301   5.166  30.752  11.170  0.0227  0.1043 -0.0084
55389W        W98302   7.189   6.477   3.262  0.3353 -0.0164 -0.1114
55390W        W98303  22.672  15.794  15.836 -0.2725  0.2933 -0.1075
55391W        W98304  31.176  25.302   3.254 -0.0663  0.2934 -0.0212
55392W        W98305   6.565  16.257  26.771  0.0498 -0.0172  0.0946
55393W        W98306  29.571  19.880  17.687 -0.2374  0.1377  0.1219
55394W        W98307  28.731  32.168   9.388  0.2587 -0.1828 -0.0346
55395W        W98308   0.007  24.644   4.683 -0.3709  0.1295  0.0539
55396W        W98309   4.037  29.646   3.584 -0.2550  0.1015 -0.1687
55397W        W98310  23.737  28.327   7.146  0.3061  0.1607  0.3148
55398W        W98311  14.371  16.034  28.492  0.2433  0.0855 -0.1785
55399W        W98312   4.959  30.990  17.590 -0.1804 -0.0064 -0.1706
55400W        W98313  31.097  26.012   8.264 -0.0020  0.2422  0.0183
55401W        W98314  31.411  21.246   7.965 -0.0288 -0.0415 -0.1349
55402W        W98315  30.344  20.876   9.299 -0.4231 -0.1222 -0.0646
55403W        W98316  28.946  21.548   8.901  0.0446 -0.3616  0.0578
55404W        W98317  25.200  28.303  28.992 -0.0938  0.0827  0.2406
55405W        W98318   2.336  23.315   1.639  0.0093  0.1550 -0.1072
55406W        W98319   2.950  22.266   2.848  0.0748  0.1312 -0.3040
55407W        W98320  29.337  22.868  26.325 -0.0088  0.4367  0.1961
55408W        W98321  23.463  23.182  28.560 -0.0602 -0.2986  0.1236
55409W        W98322   2.210  28.274   5.581 -0.0837  0.1989  0.0588
55410W        W98323   4.814  31.569  24.948  0.0586  0.1589  0.2238
55411W        W98324   4.686  25.111   2.884  0.1480 -0.3128 -0.0486
55412W        W98325  24.001  28.013   5.964  0.1679  0.0840  0.1914
55413W        W98326   2.749  31.496  24.902  0.0566  0.1065 -0.0407
55414W        W98327   4.911  27.968   7.816 -0.1462  0.1533  0.1894
55415W        W98328   7.043  22.649   5.995 -0.2513  0.0081 -0.1237
55416W        W98329  34.255  28.900   0.078  0.0259  0.1336  0.1008
55417W        W98330   4.306  28.604   2.184  0.0592 -0.2594 -0.2419
55418W        W98331  29.795  16.345  21.335  0.0233  0.2949 -0.2998
55419W        W98332   7.432  22.507  29.143  0.1557  0.3160 -0.0914
55420W        W98333  29.014  28.058   7.027 -0.1764  0.1831  0.2493
55421W        W98334   6.675  22.979   3.522  0.1853  0.2061 -0.0262
55422W        W98335   2.399  16.336  29.436  0.0395  0.0796  0.2805
55423W        W98336  29.982  12.671  29.557 -0.1326 -0.1312  0.4142
55424W        W98337  33.064  24.792   0.285 -0.1334 -0.0572 -0.2514
55425W        W98338   7.926  27.734   3.923  0.1485  0.1126 -0.2073
55426W        W98339  31.286  12.382   1.192  0.2429  0.4635 -0.0175
55427W        W98340  32.785  27.522   9.327 -0.1505 -0.3144  0.2482
55428W        W98341   8.083  23.905   3.446  0.4056  0.1500 -0.0551
55429W        W98342  31.557  32.772  11.051  0.0924  0.0304 -0.4732
55430W        W98343   7.754  27.501   4.487  0.4054  0.3092 -0.0258
55431W        W98344   3.250  26.411  27.898 -0.0361 -0.1597 -0.3812
55432W        W98345   0.072  14.425   2.316 -0.1831  0.1578  0.0888
55433W        W98346  27.130   1.252   2.940 -0.0493  0.0562  0.1159
55434W        W98347   4.548  24.150   9.861 -0.4081  0.3215  0.0421
55435W        W98348  33.961  22.895   0.657 -0.0546  0.0374 -0.0181
55436W        W98349   3.220  27.066   0.309 -0.2200 -0.2356  0.3251
55437W        W98350  33.045  32.725   9.322  0.1135 -0.0452  0.2315
55438W        W98351  28.244  30.724   3.046 -0.1451 -0.2249 -0.1674
55439W        W98352  33.157   1.860   7.620  0.1762  0.1346 -0.0446
55440W        W98353  31.303  17.974   8.150 -0.2104 -0.2193 -0.0098
55441W        W98354   4.532  17.290  25.972  0.1711  0.1194  0.2302
55442W        W98355  31.160  18.905   8.272  0.1204 -0.0288 -0.1120
55443W        W98356   2.859  29.900   7.751  0.0446  0.1610  0.3002
55444W        W98357   7.905  25.535  26.770  0.1549  0.2084  0.2113
55445W        W98358   4.823  25.409   4.949 -0.0737  0.0519 -0.4955
55446W        W98359   7.446  30.644  23.659  0.0190 -0.1485 -0.3082
55447W        W98360   1.290  28.023  10.469 -0.1803  0.2129  0.3516
55448W        W98361  12.833  16.188  22.978 -0.0879  0.1675  0.0940
55449W        W98362  26.678  26.364   6.946 -0.0924  0.3737 -0.2961
55450W        W98363   8.160  15.664  29.671  0.0017 -0.2151  0.0290
55451W        W98364  29.053  14.247   3.309  0.0947  0.4451  0.0610
55452W        W98365   5.850  31.318  29.234  0.0537  0.0421 -0.1620
55453W        W98366   9.983  25.610  27.596  0.2341 -0.1601  0.2372
55454W        W98367   9.132  27.216  11.094 -0.1206 -0.2228  0.1098
55455W        W98368  32.792  29.626   7.370 -0.3056  0.0401  0.1086
55456W        W98369  28.876  25.751   7.237 -0.1881 -0.2118  0.1526
55457W        W98370   4.532   0.039   5.829  0.0281 -0.2293  0.0599
55458W        W98371  27.182  25.152   5.196  0.0580 -0.0427 -0.1200
55459W        W98372   3.955  32.226  11.353  0.2410 -0.0961  0.0446
55460W        W98373   9.659   0.249   3.431  0.0917  0.1705 -0.1656
55461W        W98374   1.322  18.666   3.840  0.1586  0.1402  0.0097
55462W        W98375   7.076  24.787   6.057  0.0125 -0.1172  0.0985
55463W        W98376  30.207  29.371   1.986 -0.0014  0.2516  0.1454
55464W        W98377   6.244  17.052   6.487 -0.0600 -0.2865 -0.1814
55465W        W98378  31.669  29.230   4.300  0.3301  0.4021 -0.3757
55466W        W98379  19.496   7.396   8.136 -0.2064 -0.1877  0.0979
55467W        W98380   4.624  26.330   3.261  0.3068 -0.0356 -0.1211
55468W        W98381   1.743  23.337  23.042  0.0487 -0.0801 -0.3862
55469W        W98382   1.983   2.316   7.327 -0.2048  0.0930  0.0187
55470W        W98383  33.076  21.621   5.227 -0.0459 -0.1564  0.2959
55471W        W98384  33.318   2.576   6.630 -0.3239 -0.3671 -0.1345
55472W        W98385   2.477  20.855  29.320 -0.0721 -0.4866  0.2864
55473W        W98386  28.552  27.824   5.028  0.1473 -0.1409 -0.0355
55474W        W98387   1.544  25.841   8.217 -0.2808 -0.0570 -0.5528
55475W        W98388  28.280   1.579   7.943 -0.0232  0.2285 -0.0646
55476W        W98389  24.019  20.073  23.060  0.0363  0.0470  0.0942
55477W        W98390   5.555  32.523  10.071 -0.2354  0.0350  0.1023
55478W        W98391  30.664   1.269   7.237 -0.0572 -0.0301  0.1218
55479W        W98392   3.755  10.354   5.845  0.0783  0.1614  0.6014
55480W        W98393  32.212  33.841   0.785  0.3162 -0.1815 -0.1106
55481W        W98394  26.571   5.944   4.944 -0.2605 -0.0164  0.0610
55482W        W98395  29.858   0.946   5.709 -0.1105  0.2590 -0.0543
55483W        W98396  28.997   8.280   6.174 -0.1481  0.1008 -0.6732
55484W        W98397   5.237  18.628   5.498  0.1908 -0.0810  0.0772
55485W        W98398   4.286  21.548  29.770 -0.1697  0.1801  0.1302
55486W        W98399  33.049  21.112   8.738 -0.1636 -0.0951  0.1121
55487W        W98400   1.635  27.239  10.759 -0.0059  0.2126  0.0461
55488W        W98401  33.131  28.413   8.618 -0.1632 -0.1897  0.0441
55489W        W98402  32.431  13.401  10.408  0.0261 -0.2054 -0.0703
55490W        W98403  34.082  27.658   1.110  0.1477  0.2023  0.0589
55491W        W98404  22.866  29.985  24.889 -0.0577 -0.0569 -0.2289
55492W        W98405  29.975   8.191   3.668  0.0849 -0.1150 -0.4217
55493W        W98406  22.627  27.735   4.552  0.2896 -0.0431  0.1291
55494W        W98407  25.737  19.140  29.730  0.1564  0.0391 -0.1299
55495W        W98408   5.101  33.610   5.878  0.0743 -0.1452 -0.0954
55496W        W98409  30.795  29.669   9.199  0.3130 -0.1272  0.3218
55497W        W98410  31.222  24.816   5.321 -0.0267 -0.1571 -0.0686
55498W        W98411  27.671  28.827   7.689  0.0101 -0.3074  0.1404
55499W        W98412   1.316  12.754   4.797  0.1147  0.4758  0.1522
55500W        W98413  24.639  32.319   8.138 -0.1527 -0.5354  0.0417
55501W        W98414   6.007  25.161   4.089  0.0522  0.3626  0.2697
55502W        W98415  31.426  32.829   5.210 -0.1254 -0.0808 -0.0017
55503W        W98416   0.542   0.376   2.296 -0.1600 -0.1919  0.0070
55504W        W98417   5.657  23.441   0.610  0.2893  0.0220 -0.1045
55505W        W98418  30.758  23.925   4.812  0.0421  0.0499  0.2443
55506W        W98419  29.373  24.692   0.601  0.1045  0.0009 -0.0133
55507W        W98420   4.336  22.634   4.472 -0.1072 -0.1326 -0.3374
55508W        W98421  28.741   2.307   1.132  0.1569 -0.2593  0.0013
55509W        W98422   4.165  30.874   7.916  0.0250 -0.0281 -0.0496
55510W        W98423  29.940  24.156   6.454  0.2860 -0.1529 -0.2749
55511W        W98424  33.219  28.632   0.486 -0.2423  0.0014 -0.1644
55512W        W98425   0.398  21.233  27.587  0.0497  0.1405  0.2014
55513W        W98426   0.552  22.054   2.392  0.3793  0.0201  0.1144
55514W        W98427  25.752  27.324  21.854 -0.1012  0.0396  0.0978
55515W        W98428  32.584  13.334   2.406  0.3206  0.2319 -0.1541
55516W        W98429   7.074  32.017   9.392  0.0977  0.3109 -0.1037
55517W        W98430   2.797  18.547   8.955  0.2308 -0.2633  0.0326
55518W        W98431   3.012  15.311   8.161 -0.2609  0.2529 -0.1628
55519W        W98432  10.271  10.136   8.531 -0.4767 -0.2012  0.1217
55520W        W98433   5.841  13.511  26.913  0.1865 -0.0511 -0.1546
55521W        W98434  11.418  18.813   4.461  0.2021  0.3850  0.1400
55522W        W98435  25.556   0.528   7.871  0.0031  0.2166  0.0771
55523W        W98436  31.449  28.008   6.971  0.0755  0.1729  0.1382
55524W        W98437  31.705  29.199   1.174 -0.1791 -0.2882  0.1037
55525W        W98438   4.719  29.401   4.998 -0.1323  0.1132  0.3428
55526W        W98439   1.560  23.473  10.265 -0.0120  0.2211 -0.0023
55527W        W98440  28.244  19.468   3.209  0.0031  0.0301 -0.0495
55528W        W98441  26.761   3.687   4.368 -0.0095  0.1382 -0.0858
55529W        W98442  31.731  30.889   7.054  0.0387 -0.2456  0.0172
55530W        W98443   7.714  29.018  27.779  0.2445  0.1084  0.1223
55531W        W98444  28.055  28.447   6.053 -0.0551 -0.1284  0.3186
55532W        W98445  10.727  29.738   1.084  0.2010  0.1609  0.1275
55533W        W98446   6.534  23.103   9.285  0.0740  0.2105 -0.1809
55534W        W98447  34.236  32.455   5.705 -0.0896  0.0566 -0.1632
55535W        W98448  27.288  16.025   5.976  0.0544  0.0236 -0.1569
55536W        W98449   1.167  28.404   4.170  0.3122  0.0959 -0.1171
55537W        W98450   0.430  18.389   8.559  0.3449  0.1213  0.2456
55538W        W98451  31.457   9.201   6.773 -0.0221 -0.0535  0.0582
55539W        W98452  29.080  22.755   9.030  0.1317 -0.1227 -0.1258
55540W        W98453   6.625   2.218  12.680 -0.0617  0.0246 -0.2491
55541W        W98454  27.413  22.862   5.099  0.1692 -0.1869 -0.1451
55542W        W98455   7.515  21.214  24.599  0.2649  0.0721 -0.1799
55543W        W98456   6.106  20.346   5.442 -0.0113  0.2065 -0.2011
55544W        W98457  29.168  24.615   5.085  0.3173 -0.0236  0.0074
55545W        W98458  31.505  34.474  29.713 -0.3474  0.2813  0.1914
55546W        W98459  16.046  27.994  27.436  0.0458 -0.3872  0.0306
55547W        W98460   0.845  23.277   9.783  0.0766 -0.0255  0.2225
55548W        W98461   1.988  29.907   3.856  0.2928  0.2095  0.2426
55549W        W98462  33.247   4.816   7.742  0.1857 -0.3490  0.2201
55550W        W98463   8.753  28.137   0.626 -0.2354 -0.0619  0.1258
55551W        W98464  34.278  27.521   5.605 -0.0162 -0.3047 -0.3096
55552W        W98465  16.895  27.750   9.123 -0.0794 -0.2982  0.2724
55553W        W98466  14.164  26.588   2.352 -0.3590 -0.0129 -0.0233
55554W        W98467   8.987  19.397   0.338  0.1659 -0.2209 -0.2077
55555W        W98468  29.289  28.851   9.541 -0.0965 -0.3083 -0.2134
55556W        W98469   3.417  30.459   4.709  0.1857 -0.3793 -0.1678
55557W        W98470  22.331  24.006   4.604  0.1528 -0.3664  0.0771
55558W        W98471   4.545   0.125   4.226 -0.0437  0.0589 -0.3041
55559W        W98472   6.486   1.624   4.573 -0.1796  0.1760  0.1293
55560W        W98473   8.170  24.695   4.222  0.1021 -0.0226  0.1028
55561W        W98474  24.554  20.810   5.091 -0.1012 -0.0937 -0.1416
55562W        W98475  28.676   3.174  27.796 -0.0915 -0.2443  0.0784
55563W        W98476  26.685  29.691   3.831 -0.0171 -0.4450 -0.0691
55564W        W98477   2.378   4.591   8.745 -0.0303 -0.1343  0.0928
55565W        W98478   0.855  23.334   4.052  0.1665  0.0148  0.2866
55566W        W98479  26.048  25.410   3.166  0.1733 -0.0496  0.2016
55567W        W98480   4.289  30.474   7.461  0.1757  0.2508 -0.0296
55568W        W98481  29.997  29.485   3.289  0.2717  0.2157 -0.0289
55569W        W98482   1.188  22.834   1.564 -0.1131  0.0148  0.2108
55570W        W98483   3.808  30.964  26.900  0.1114  0.1414  0.3700
55571W        W98484  34.432  34.332   8.898  0.0520  0.2385 -0.3026
55572W        W98485  18.065  28.937   8.124  0.3606 -0.0138 -0.1104
55573W        W98486   1.647  33.225  28.766  0.1565 -0.2407  0.0737
55574W        W98487   1.718  25.712   6.684  0.4229  0.2467 -0.0442
55575W        W98488  28.862  15.905   8.317 -0.3237  0.3487 -0.0286
55576W        W98489  34.125  26.106   9.947  0.1021 -0.0904 -0.0801
55577W        W98490  30.683   1.156   9.904  0.2318 -0.0703 -0.0586
55578W        W98491   2.112  27.611   8.203 -0.1184 -0.0042  0.0990
55579W        W98492   3.909  31.333  27.607  0.2249 -0.0876 -0.1403
55580W        W98493   3.909  19.918   4.459  0.0320 -0.0331  0.0764
55581W        W98494  29.332  26.021   6.304  0.0671  0.0422 -0.0613
55582W        W98495  27.997  30.349   2.891 -0.0948  0.2996  0.1484
55583W        W98496  25.894   2.206   9.712  0.1980  0.0402 -0.1552
55584W        W98497   6.310  12.855   4.059 -0.2690  0.1559 -0.1064
55585W        W98498  30.858  31.058   9.814  0.3524 -0.0121 -0.0811
55586W        W98499  29.276  22.388  24.595 -0.0137  0.1819  0.1164
55587W        W98500  33.715   2.171   5.926 -0.2371  0.1228  0.1263
55588W        W98501  34.078  19.223  28.885  0.0110  0.0957  0.2649
55589W        W98502  32.275  33.708   4.218  0.1252 -0.2464 -0.1251
55590W        W98503   1.858  33.810   0.635  0.0916 -0.1720 -0.0208
55591W        W98504  25.794  30.719   7.008  0.1571 -0.1136  0.1716
55592W        W98505   2.220  33.009   7.184  0.1085  0.0665 -0.2055
55593W        W98506   2.173  24.012   3.823 -0.0886  0.0153  0.0496
55594W        W98507   9.780  23.293   4.957 -0.0001 -0.0891  0.2939
55595W        W98508  33.365  33.785  23.547  0.1575 -0.0248 -0.0010
55596W        W98509  28.011  32.619  27.900 -0.4277  0.0421 -0.1038
55597W        W98510   4.103  27.810  29.480 -0.3082 -0.1053  0.2155
55598W        W98511   7.907  18.624   9.668  0.2003 -0.2335 -0.1325
55599W        W98512  28.921  34.473   2.099 -0.0112  0.1345 -0.1295
55600W        W98513   3.763  16.279   2.811  0.2006  0.2487  0.0089
55601W        W98514   1.596  34.242  29.744 -0.2544 -0.3056  0.0947
55602W        W98515   0.152  26.078   2.746  0.2243 -0.1809 -0.0873
55603W        W98516  29.875  21.683   5.051 -0.2246 -0.0516 -0.2333
55604W        W98517  26.483   3.168   2.032 -0.2221  0.2169 -0.0151
55605W        W98518  30.635  28.272   6.443  0.1198 -0.3255  0.3146
55606W        W98519  29.039  28.303  27.426 -0.2987 -0.1541 -0.0125
55607W        W98520  28.163   6.020  29.086 -0.1549  0.4336  0.2195
55608W        W98521   6.000   1.994   6.967  0.0725 -0.0924 -0.3513
55609W        W98522   4.097  27.742   9.725  0.0032  0.1932  0.1593
55610W        W98523   5.202  25.606   9.631 -0.2552  0.2971 -0.0949
55611W        W98524  29.919  17.862   9.961  0.1456 -0.0546  0.1224
55612W        W98525  22.650  33.425   5.740  0.3833  0.1047 -0.0820
55613W        W98526  29.842  15.658   4.412 -0.0601  0.1619 -0.1099
55614W        W98527   7.409  19.723   8.627 -0.0319 -0.2116  0.0903
55615W        W98528  11.352  16.573   6.625 -0.1739  0.2063  0.0107
55616W        W98529   0.719  28.735   6.980  0.1242  0.0252 -0.2433
55617W        W98530  32.423  26.474  10.108 -0.0126 -0.1201 -0.0812
55618W        W98531  25.909  33.615   4.410  0.2456  0.1919  0.1299
55619W        W98532   4.122  31.451   3.679  0.3623  0.0177  0.1666
55620W        W98533  32.857  26.443   9.848 -0.0067 -0.0311 -0.0194
55621W        W98534  31.284  29.282   5.507 -0.1361 -0.1253  0.3029
55622W        W98535  28.737  24.492   7.385 -0.4286 -0.0828 -0.1256
55623W        W98536   3.807  22.872  10.694  0.2884  0.1100  0.0523
55624W        W98537  11.217  22.963  20.710  0.0151  0.0644  0.2009
55625W        W98538  24.975  32.970   7.559 -0.2342  0.4993  0.1850
55626W        W98539  34.492  19.811   8.644 -0.0993 -0.0437 -0.3501
55627W        W98540   2.498  21.530  23.623 -0.1190  0.2293 -0.0504
55628W        W98541   4.890  27.488   9.620 -0.2359  0.1406 -0.1036
55629W        W98542  31.470  25.989   3.069  0.0600  0.0595 -0.2151
55630W        W98543   2.766  32.930   7.275 -0.2354 -0.1439 -0.2692
55631W        W98544  30.540   0.699   5.838 -0.3244  0.2555 -0.1139
55632W        W98545  33.899  28.888   0.410 -0.2473  0.1909 -0.1829
55633W        W98546  30.504  32.876   8.098 -0.1352  0.0345 -0.1168
55634W        W98547  21.228  31.556   0.530  0.0836 -0.1502 -0.0585
55635W        W98548  28.234   2.191   5.740 -0.2134  0.3518  0.0875
55636W        W98549   1.882  31.886   0.314 -0.0307 -0.0915 -0.1667
55637W        W98550  27.611  31.915   4.759  0.0112 -0.5178  0.2420
55638W        W98551   8.638  18.742   2.868 -0.1000  0.0487 -0.0400
55639W        W98552   6.382  33.567   2.365 -0.0749  0.0765 -0.0214
55640W        W98553   5.481  23.964  10.260  0.0395 -0.3682  0.1316
55641W        W98554  11.664  13.086   2.549 -0.2279 -0.0906 -0.0456
55642W        W98555  28.792  21.384   4.308  0.0841 -0.2319  0.0539
55643W        W98556   1.151  21.927   8.128  0.1801  0.1703 -0.0291
55644W        W98557  33.626  15.265   4.584  0.1876 -0.2549 -0.2319
55645W        W98558  32.273  27.307   9.490 -0.0143 -0.0256 -0.0403
55646W        W98559  32.401  30.240   9.628 -0.0308  0.1885 -0.0227
55647W        W98560  31.736  27.564   5.731 -0.2820  0.3201 -0.0956
55648W        W98561   6.614  27.613  10.034 -0.1116 -0.0962 -0.2401
55649W        W98562  22.028  16.299   1.634  0.0566  0.1581 -0.2262
55650W        W98563   0.037  29.537  28.522 -0.1684 -0.1659 -0.1024
55651W        W98564  30.675  20.132   4.738  0.0029  0.2122 -0.1169
55652W        W98565   8.176  21.288  25.854  0.0549  0.1495 -0.2855
55653W        W98566  31.789   4.433  29.203  0.1537  0.0857  0.1391
55654W        W98567   4.504  23.448   1.578  0.0853  0.0185  0.0479
55655W        W98568  22.640  17.186   4.384  0.1454  0.1771 -0.0537
55656W        W98569   0.193  29.747   5.878  0.0199 -0.0615 -0.0603
55657W        W98570  28.038  23.682   4.823 -0.2167  0.2584  0.3402
55658W        W98571  33.391  16.982   6.573 -0.0795  0.2253  0.0329
55659W        W98572  32.164  24.097   6.922 -0.1999  0.0374  0.0840
55660W        W98573  12.546  22.742  27.780 -0.3312  0.0189  0.0619
55661W        W98574  31.071  24.995   8.060 -0.0550  0.0786  0.1056
55662W        W98575   8.233  22.323   8.344 -0.2019  0.0463 -0.1687
55663W        W98576   4.568  26.199  10.105 -0.3067 -0.1154  0.1411
55664W        W98577   9.192  25.077   0.349 -0.2427 -0.2616 -0.1357
55665W        W98578   1.362  22.750  21.975 -0.1224  0.1228  0.1047
55666W        W98579  19.661  27.963   2.067 -0.1620 -0.1783  0.0950
55667W        W98580  30.001  32.969  29.201 -0.0444 -0.0530 -0.3825
55668W        W98581   6.940  26.857  28.637 -0.1260 -0.1570 -0.2031
55669W        W98582  31.019   0.660   8.247  0.3267 -0.2176 -0.0343
55670W        W98583   2.081  24.676   9.079 -0.4344  0.0406  0.4521
55671W        W98584  29.792  25.555  28.230  0.5461  0.3447  0.3091
55672W        W98585  29.861  12.844  27.640 -0.0870  0.2812  0.1199
55673W        W98586   8.584  15.857   5.619 -0.0206  0.0015  0.0952
55674W        W98587  31.172  26.554  18.559  0.1563 -0.2050  0.1985
55675W        W98588  10.136  22.042   3.727 -0.0234 -0.0689  0.0111
55676W        W98589   2.455  20.459   9.335  0.0076  0.0532  0.1274
55677W        W98590   6.804   3.050  10.122  0.0677  0.2056 -0.1528
55678W        W98591  27.825  25.839   9.296  0.0535 -0.0300  0.1334
55679W        W98592   0.612  27.001   7.260  0.0153  0.2088  0.0649
55680W        W98593   1.508  25.949   7.693 -0.0234  0.0224 -0.2183
55681W        W98594   1.022   5.139   5.341 -0.1911 -0.1591  0.2975
55682W        W98595   4.442   4.172  13.165  0.1143 -0.2297 -0.1517
55683W        W98596  25.140  23.358  27.899  0.0835  0.0482  0.1402
55684W        W98597  29.617  31.147   6.326  0.2566 -0.1495 -0.0473
55685W        W98598  31.452   8.209   6.435 -0.1050  0.1614  0.0592
55686W        W98599  26.420  25.817   7.993 -0.2107  0.0669  0.0137
55687W        W98600   0.159  33.381   6.869 -0.1073 -0.0241 -0.3146
55688W        W98601  30.956  29.543   8.729 -0.1591  0.0094 -0.1191
55689W        W98602  32.385   1.643   6.379  0.0065  0.0585  0.2613
55690W        W98603   9.244   5.862   6.165 -0.1453 -0.1965  0.0634
55691W        W98604  11.582  22.250   2.606 -0.2530 -0.1315  0.4409
55692W        W98605  26.348  30.534   3.309  0.0373 -0.2035 -0.0929
55693W        W98606  30.712  31.034   5.703  0.0410  0.0416 -0.1172
55694W        W98607  30.214  21.372   1.929 -0.1756 -0.2355  0.1221
55695W        W98608   0.389  24.446  10.009  0.1420  0.0418 -0.1270
55696W        W98609  11.680  19.440   6.077  0.1114 -0.0363 -0.1471
55697W        W98610   5.025   2.571  10.957  0.2336  0.1266 -0.1218
55698W        W98611   2.611  12.367   8.721  0.1642  0.1740  0.0784
55699W        W98612  29.610  28.666   8.448  0.1910 -0.1195  0.0294
55700W        W98613   0.068  30.138   5.434  0.0783  0.2315 -0.0654
55701W        W98614  11.165  14.450   5.977  0.0901 -0.0604  0.1845
55702W        W98615  25.760  29.063  28.115 -0.2611  0.0656  0.1992
55703W        W98616  32.976   0.206   8.312 -0.3409 -0.1024  0.0156
55704W        W98617  24.204  33.590   4.993  0.0557 -0.3136  0.0004
55705W        W98618   5.475  31.603  11.890  0.1401  0.0544 -0.0373
55706W        W98619  33.986  23.088   8.407 -0.1992  0.0561 -0.1742
55707W        W98620   8.644  28.066   7.832 -0.2236 -0.1371 -0.0289
55708W        W98621  11.151  27.425   3.520  0.0581  0.0206  0.0952
55709W        W98622   4.752  18.967   4.950  0.3079  0.3792 -0.1495
55710W        W98623  28.184  27.653   3.100  0.1940 -0.2614  0.2556
55711W        W98624  32.890  23.648   5.383 -0.2842  0.1629  0.1691
55712W        W98625  25.611  27.664   3.401  0.0503 -0.3070 -0.1972
55713W        W98626   0.305  34.487   6.075  0.1268  0.5107  0.0037
55714W        W98627  27.816  17.450   7.565  0.1790 -0.0368 -0.0745
55715W        W98628   3.995  21.177   7.379  0.1994  0.0527 -0.2771
55716W        W98629   0.443  30.856   7.498 -0.2162 -0.0239 -0.0121
55717W        W98630  29.984   0.059   8.658  0.0372  0.5191 -0.1406
55718W        W98631  26.820  25.608   5.233  0.0310  0.0076  0.2361
55719W        W98632   8.372  25.054   0.777 -0.0958 -0.2470  0.0307
55720W        W98633  21.467  28.971   4.761  0.0545 -0.0147  0.0427
55721W        W98634   2.105  25.561   7.594  0.1373 -0.1588  0.0093
55722W        W98635  12.288   0.729   0.027  0.0538 -0.1832  0.1408
55723W        W98636  28.665  32.643   4.142  0.0338 -0.1391  0.0432
55724W        W98637  32.265  33.322   6.341 -0.0729  0.2216  0.3127
55725W        W98638  31.573  30.049   9.452  0.1394  0.0235  0.3408
55726W        W98639  25.850  29.294   4.871 -0.0554  0.3947 -0.2986
55727W        W98640   2.297  28.617   9.589  0.0193  0.1774 -0.3507
55728W        W98641   2.844  26.812   9.317  0.2037 -0.1406 -0.1162
55729W        W98642   8.228   0.629   4.115  0.1354  0.0132 -0.2591
55730W        W98643   9.028  26.603   8.088 -0.2051 -0.2201  0.1572
55731W        W98644  31.708  28.836   0.421 -0.3508 -0.0386  0.2687
55732W        W98645   1.132  31.648   8.951  0.2128 -0.0004 -0.1297
55733W        W98646   6.264  29.844   1.262 -0.1019  0.3693 -0.0464
55734W        W98647  31.087  30.649  25.050  0.0393  0.1752 -0.1202
55735W        W98648  32.970  22.776  29.492  0.1529 -0.1195  0.1044
55736W        W98649  33.438  30.120   2.808  0.0337 -0.2371 -0.0958
55737W        W98650  24.705   0.750   9.810 -0.1435 -0.0756  0.0499
55738W        W98651   1.997   1.350  10.388 -0.1135  0.1600 -0.2255
55739W        W98652  33.118   2.093  24.890  0.0285  0.2075  0.2319
55740W        W98653  10.005  21.782   7.985 -0.0227 -0.2908 -0.4719
55741W        W98654   6.145  15.155   1.977  0.0008 -0.0058 -0.2642
55742W        W98655  32.159  31.496  10.562  0.0170  0.4317  0.2901
55743W        W98656   1.842  21.413   5.188 -0.1987  0.0701  0.1378
55744W        W98657  34.361  21.328   4.943  0.3627  0.1342 -0.3808
55745W        W98658  29.898  28.532   2.231 -0.0356 -0.5713 -0.0249
55746W        W98659   7.408  31.811   7.533 -0.0500  0.0940 -0.2583
55747W        W98660   7.128  30.099  11.433 -0.3807  0.2363 -0.2772
55748W        W98661  10.539   1.259  10.706  0.2385  0.0699 -0.1663
55749W        W98662  34.218  30.993   8.272  0.1946 -0.4513 -0.3740
55750W        W98663   3.011  29.486  29.656 -0.4876  0.3811 -0.1421
55751W        W98664  29.376  27.725   9.045  0.0603  0.1231  0.0898
55752W        W98665   7.681  24.407   8.377 -0.1978 -0.0448  0.0083
55753W        W98666   0.435   8.425  25.875 -0.0245 -0.0347  0.2338
55754W        W98667  29.269   6.074   9.947  0.0520 -0.1598 -0.2659
55755W        W98668   8.223  21.545  10.170  0.4133 -0.0056  0.1228
55756W        W98669   6.173  30.902  28.431 -0.2363  0.0542  0.2820
55757W        W98670  25.308   4.322   7.464  0.1455 -0.3472  0.1104
55758W        W98671   0.917  19.147   8.758  0.0881 -0.1990 -0.0572
55759W        W98672  11.554  28.848  11.683  0.2055  0.0324  0.0389
55760W        W98673  28.681  23.192  28.759 -0.0667  0.5149  0.2608
55761W        W98674  11.936  24.570   8.529 -0.0951 -0.0547  0.0360
55762W        W98675   2.063  30.318   7.532  0.4349  0.2266 -0.0229
55763W        W98676  31.774  24.603  29.369 -0.2049 -0.1125  0.2388
55764W        W98677  29.111  29.470   6.721  0.2750 -0.1094  0.1428
55765W        W98678   2.491  30.628   7.709  0.0856 -0.2867  0.4334
55766W        W98679   3.122  23.123   7.036  0.3748 -0.0577 -0.1177
55767W        W98680   4.612  25.250   3.399  0.0450  0.1659 -0.1250
55768W        W98681   7.315  32.076   5.353 -0.0455 -0.2145 -0.0081
55769W        W98682   0.279   1.439  10.548 -0.0009  0.1932 -0.0111
55770W        W98683   9.671  29.249  28.121  0.0688 -0.1713  0.3265
55771W        W98684  12.186  33.872   3.980 -0.2142  0.0161  0.2344
55772W        W98685   2.489  26.103   8.842  0.1837  0.1154  0.2419
55773W        W98686  31.628  28.539   8.766  0.1312  0.0612 -0.0287
55774W        W98687   1.521   5.128  23.490  0.3141  0.1360 -0.0448
55775W        W98688  30.523  25.791   7.604 -0.0627  0.1394  0.0218
55776W        W98689  23.844  31.485   1.721  0.4430 -0.3130  0.0537
55777W        W98690  28.865   2.854   7.510  0.0350  0.2499  0.0861
55778W        W98691  11.989  28.774  27.577 -0.3236  0.0077 -0.0271
55779W        W98692   7.548  18.392   1.274 -0.2110 -0.0751 -0.1914
55780W        W98693   5.308  24.770   9.078  0.3190 -0.0326  0.1092
55781W        W98694  31.193  28.794   8.549 -0.1623 -0.0067 -0.1751
55782W        W98695  34.420  27.089   9.745 -0.0095  0.4152 -0.0059
55783W        W98696   9.457  20.827   6.542 -0.1169 -0.3604 -0.0119
55784W        W98697   3.344  13.671   7.841  0.0219  0.2768  0.1371
55785W        W98698  29.876  29.839   7.421 -0.1871  0.2017 -0.2344
55786W        W98699   0.393  21.468   4.708 -0.1455  0.1478  0.2297
55787W        W98700   0.396  24.034   4.347 -0.0627  0.3059  0.2148
55788W        W98701   2.086  23.151   9.319  0.0829  0.2645 -0.1252
55789W        W98702   4.612  32.347  11.041 -0.1686  0.0519 -0.0693
55790W        W98703   7.909  34.414  10.156 -0.0718 -0.0298 -0.1200
55791W        W98704  19.329  23.827   6.750  0.2618 -0.0990 -0.0111
55792W        W98705   4.589  30.179   5.760 -0.2666  0.2589 -0.1653
55793W        W98706   8.141  32.525  11.374 -0.1872 -0.0523 -0.1977
55794W        W98707  27.350  30.885   9.114 -0.0897 -0.2153  0.2380
55795W        W98708  25.578  28.767  22.760  0.1310  0.2387  0.1502
55796W        W98709  20.638   3.854   3.204  0.4378 -0.1862  0.1675
55797W        W98710   6.504   3.527  25.130  0.1340 -0.0771  0.1463
55798W        W98711  30.550   1.768   7.212  0.0085 -0.2202 -0.1117
55799W        W98712   1.702  26.714   6.692 -0.3421  0.3629 -0.0927
55800W        W98713  33.294  28.416   6.707  0.0668  0.0682 -0.0296
55801W        W98714   7.103  27.237   4.345  0.0232 -0.0343 -0.1384
55802W        W98715  11.213  33.111   9.697  0.0193 -0.2177  0.1628
55803W        W98716  12.445  30.983   3.889  0.3225  0.0389 -0.3881
55804W        W98717  17.337  10.406   8.487 -0.0173  0.2793  0.2078
55805W        W98718  22.851   1.263  23.061  0.1745  0.0698  0.2556
55806W        W98719   7.630  18.275  28.483  0.2132  0.0134  0.0054
55807W        W98720  26.831  16.332   9.542  0.2641 -0.0667  0.3383
55808W        W98721   1.058   0.231   7.521 -0.1281 -0.1665  0.3673
55809W        W98722   1.037  23.647   5.650  0.1583 -0.2921  0.0986
55810W        W98723  31.286  23.275   1.686  0.0763  0.0630 -0.0319
55811W        W98724   9.967  32.636   6.807  0.3354  0.0325 -0.0851
55812W        W98725   4.997  32.368  11.501  0.1200  0.1535  0.1004
55813W        W98726  33.128  23.085   4.566 -0.1152  0.2873 -0.0238
55814W        W98727  32.957  24.951   8.633 -0.4242  0.0020 -0.4601
55815W        W98728   4.347  28.158   7.384  0.2072 -0.3364 -0.2551
55816W        W98729  29.103  21.968  24.941 -0.1657  0.0106 -0.2922
55817W        W98730   9.541   2.010  10.377  0.2304 -0.0196  0.0312
55818W        W98731  32.852  27.708   8.348  0.0771 -0.0461 -0.1571
55819W        W98732   0.333  23.347   0.284  0.0948  0.0385  0.0377
55820W        W98733   1.531  26.596  10.068  0.1389  0.0057 -0.0894
55821W        W98734   3.666   6.673   9.668 -0.0484 -0.0571 -0.1926
55822W        W98735  11.759   2.165   6.931 -0.0586 -0.0247 -0.2826
55823W        W98736  28.401  17.326   6.991 -0.0031 -0.0385 -0.0038
55824W        W98737   6.670  24.315   8.868 -0.0694 -0.4218 -0.0271
55825W        W98738  33.815  24.994   8.709 -0.1977  0.1075 -0.0585
55826W        W98739   1.488  10.692   7.040 -0.1771 -0.0661 -0.0738
55827W        W98740  10.271  23.619   6.737  0.0600 -0.1410 -0.2723
55828W        W98741  26.179   5.891   3.502  0.0380  0.1457  0.3350
55829W        W98742  27.329  23.082   1.297  0.5083 -0.3179 -0.2746
55830W        W98743  30.596  33.269  28.478 -0.3673 -0.1376  0.1085
55831W        W98744   0.271  31.647   9.382 -0.1647  0.0926 -0.0477
55832W        W98745   9.007  34.377  11.795  0.4168 -0.1624 -0.0551
55833W        W98746  25.595  23.157   6.387 -0.2037 -0.1441  0.0460
55834W        W98747  33.897  19.316   7.957  0.0168  0.2393  0.2222
55835W        W98748   9.475  32.952   3.025 -0.3506 -0.0065  0.2094
55836W        W98749  20.607  20.686   4.919 -0.2263  0.1334 -0.3855
55837W        W98750   4.214   2.267   6.352  0.1972 -0.0717  0.0865
55838W        W98751   3.085   9.230  10.478 -0.1547  0.2683 -0.3105
55839W        W98752   2.987  23.637   9.319 -0.1791 -0.2978  0.1016
55840W        W98753   5.731  20.920   6.600 -0.1858  0.0354 -0.1202
55841W        W98754   9.922  24.325   3.202 -0.2208 -0.0650 -0.2289
55842W        W98755  33.091   0.567   8.643 -0.1136 -0.0846 -0.2021
55843W        W98756  28.944   9.780   8.210  0.0866  0.1855  0.2420
55844W        W98757   1.925  29.398   6.947  0.1136 -0.1676  0.1420
55845W        W98758   8.083  27.389   7.242 -0.0995  0.4202  0.0308
55846W        W98759  28.485  26.959   8.979 -0.2260  0.0186  0.1383
55847W        W98760   7.505  29.430   8.296 -0.4051  0.0243  0.1123
55848W        W98761   7.398  20.041   1.728  0.0879  0.1881 -0.0272
55849W        W98762   4.998  27.024  10.478 -0.0637 -0.2917  0.1748
55850W        W98763  31.353  23.314  10.040  0.2470  0.0273  0.1351
55851W        W98764  26.954  28.171   7.028 -0.2926 -0.3018  0.1064
55852W        W98765  32.814  24.613  29.588  0.0168 -0.2719 -0.1692
55853W        W98766  27.094   4.040   4.212 -0.0144 -0.0853 -0.2122
55854W        W98767   8.739   8.050  27.784 -0.0994  0.2463  0.0377
55855W        W98768  31.033  32.476   6.864 -0.0255 -0.0241 -0.2254
55856W        W98769  27.637  27.593  25.724 -0.0402  0.1765  0.2457
55857W        W98770   5.469  22.081  28.397  0.0883  0.2238 -0.2843
55858W        W98771  32.904   0.571   0.390 -0.1011 -0.2308 -0.0017
55859W        W98772  29.314   5.099   8.993 -0.2958  0.0709 -0.0303
55860W        W98773  24.247  28.842  29.685  0.0432  0.2587 -0.0328
55861W        W98774   4.627  27.904   3.715  0.3819  0.1794  0.0725
55862W        W98775   3.206  33.537   0.896  0.1712  0.0452  0.2844
55863W        W98776  30.187  31.770   4.515  0.1046 -0.0486 -0.0294
55864W        W98777  27.384   0.746   0.472  0.0201 -0.2299  0.2655
55865W        W98778   0.966  30.229   4.577  0.1305 -0.1833 -0.1031
55866W        W98779  26.226  27.977   8.350  0.0029  0.0050  0.3348
55867W        W98780  20.424  34.039  25.815 -0.1628 -0.0754 -0.1938
55868W        W98781   1.001   7.343  25.024  0.0071  0.1268 -0.2273
55869W        W98782  29.576   0.877   7.441 -0.0313  0.1121 -0.0531
55870W        W98783  28.749  32.337  24.966  0.1675 -0.1594 -0.0633
55871W        W98784   3.245  29.510   0.336 -0.0475 -0.0268  0.1096
55872W        W98785   1.434  32.831   8.770 -0.2486 -0.1366 -0.3117
55873W        W98786   2.125  29.904  25.363 -0.2107  0.0305  0.3035
55874W        W98787  32.380  32.131   2.914  0.4327 -0.1495 -0.0496
55875W        W98788   4.780  18.550   3.695  0.0722 -0.1943  0.0380
55876W        W98789  34.214   0.184  20.161 -0.0377  0.0232  0.0181
55877W        W98790   6.736  15.706   0.263 -0.0411 -0.0411 -0.1220
55878W        W98791  11.992  26.750   9.028  0.2199 -0.1136 -0.3681
55879W        W98792   4.494  30.582   6.255  0.4174 -0.2810  0.0002
55880W        W98793  30.564  26.012  28.861  0.4235 -0.2465 -0.0939
55881W        W98794   4.642  26.649  28.205  0.0042  0.0199 -0.1709
55882W        W98795   7.560  31.633   8.504  0.1255  0.0351  0.0301
55883W        W98796   4.500  21.483   6.746 -0.0652 -0.0836 -0.0341
55884W        W98797   4.181   5.963   2.975  0.2711 -0.1537  0.1437
55885W        W98798   5.063  32.252  25.875 -0.1825  0.3148 -0.1049
55886W        W98799   0.235  30.880   4.309  0.1478  0.2384  0.1648
55887W        W98800   5.329  25.793   5.876  0.1990  0.2981  0.0701
55888W        W98801  27.085  22.060  28.143 -0.0226 -0.1009 -0.1075
55889W        W98802   2.502  15.153   6.104  0.2473 -0.7239 -0.1390
55890W        W98803   3.362  32.368  27.963 -0.0466  0.0522  0.3389
55891W        W98804  33.504  22.567   5.140 -0.4759  0.3030  0.0101
55892W        W98805   2.028  31.532  24.943 -0.2824 -0.0735  0.2622
55893W        W98806   0.247   9.289   7.003  0.0718  0.0394 -0.0236
55894W        W98807   0.118  31.720  24.548  0.3777  0.3193  0.1439
55895W        W98808  31.496   0.023  28.103 -0.0405 -0.0712 -0.3684
55896W        W98809   2.526   3.735  12.742 -0.0106  0.2173 -0.0942
55897W        W98810   7.255  23.858  23.647  0.0994 -0.2337 -0.1487
55898W        W98811  24.377  29.478   3.740 -0.0003  0.0289  0.3267
55899W        W98812   7.291   3.978  21.050  0.0229 -0.3093  0.3619
55900W        W98813  11.439  27.341   0.831 -0.0401  0.1955 -0.2076
55901W        W98814  24.871   3.872  24.186  0.0723 -0.2368  0.2800
55902W        W98815  27.612   1.641   0.711 -0.0162 -0.1059  0.1525
55903W        W98816   3.704  24.852   2.431 -0.2244  0.0469  0.1196
55904W        W98817   7.520   5.957   5.168 -0.0144 -0.0032 -0.1429
55905W        W98818  31.442   8.061  11.398 -0.1211 -0.2102  0.2857
55906W        W98819  27.860  19.818   0.983  0.1882 -0.1460 -0.3362
55907W        W98820  22.915  26.256   2.208  0.0213 -0.0615 -0.1018
55908W        W98821   4.899  31.345   2.386 -0.3414 -0.0133  0.1280
55909W        W98822   8.091  12.617  24.902  0.1018 -0.1510  0.1767
55910W        W98823   7.970  12.525   0.229 -0.1580  0.2131  0.2112
55911W        W98824   7.826  26.523   5.791 -0.0962 -0.0866  0.1248
55912W        W98825   6.408  23.000   1.290 -0.2499 -0.2844 -0.0326
55913W        W98826  32.429  34.009   0.326  0.3592  0.0847  0.2101
55914W        W98827   4.068  10.842   1.574 -0.1236  0.1797  0.1655
55915W        W98828  33.165  29.965  25.473 -0.1668 -0.3628  0.0317
55916W        W98829  29.178  25.119  27.918 -0.1337 -0.1033 -0.2776
55917W        W98830  27.551  30.128   0.299  0.2002  0.0177 -0.3557
55918W        W98831  31.803  27.970   0.281  0.3336 -0.0221 -0.2173
55919W        W98832  26.445   5.609  10.188 -0.1117 -0.0721 -0.1979
55920W        W98833  33.723  33.007   1.657 -0.1963  0.1034  0.1755
55921W        W98834   1.240  32.752   1.365  0.3140  0.0341  0.1960
55922W        W98835  33.854   1.883  20.703  0.2428 -0.1436 -0.0564
55923W        W98836   1.415  28.530   2.164 -0.2177 -0.2005 -0.2191
55924W        W98837  32.726  33.641  25.306  0.1511  0.2018 -0.0548
55925W        W98838   5.356  26.663   3.945 -0.1322 -0.0781 -0.0215
55926W        W98839   1.919  22.691   5.680 -0.0885  0.1263  0.0454
55927W        W98840  28.043   3.194   6.123 -0.1459  0.4173 -0.0137
55928W        W98841  30.985   5.731   1.025  0.0903 -0.1804 -0.2423
55929W        W98842  25.187  31.083  25.128 -0.3921 -0.2682 -0.0212
55930W        W98843  27.127   5.122  25.366 -0.0894 -0.1858 -0.1276
55931W        W98844   2.137  14.773  29.554 -0.3014 -0.2806 -0.0514
55932W        W98845   7.255   3.880   6.606 -0.0126 -0.0502  0.1513
55933W        W98846  28.941  26.597   7.802 -0.0008  0.2511 -0.2422
55934W        W98847   6.748   5.321   7.053  0.0180  0.3055  0.1031
55935W        W98848   0.060  10.586   3.437  0.0516 -0.1365  0.0420
55936W        W98849  32.430  26.804   8.378 -0.1817 -0.1549  0.2098
55937W        W98850   0.531  24.795  29.437  0.1677  0.0690 -0.1722
55938W        W98851  10.460   2.524   0.244  0.0447 -0.1363  0.1568
55939W        W98852  31.130  34.112   4.952 -0.1174 -0.0878 -0.3567
55940W        W98853  29.709   2.936  24.965  0.0197 -0.0622  0.0791
55941W        W98854  34.091  17.267   1.586  0.0008 -0.1255  0.1202
55942W        W98855  28.563  23.506   1.320 -0.0047  0.1895 -0.1361
55943W        W98856   1.820  26.013  28.746  0.2018  0.3623 -0.0244
55944W        W98857  26.539  34.324   5.130 -0.0030 -0.1793 -0.0616
55945W        W98858  33.645  32.065  29.382 -0.0345  0.0598  0.0221
55946W        W98859  34.432  27.050   2.334 -0.3286  0.2987 -0.4664
55947W        W98860   3.304  26.827   5.253 -0.0467  0.1748 -0.0072
55948W        W98861  30.386  30.548   0.322  0.1239  0.0525 -0.0296
55949W        W98862   6.128  31.991   9.331 -0.2640  0.3483 -0.0452
55950W        W98863  22.077  31.117  26.442 -0.5278  0.1260  0.0584
55951W        W98864  21.794  22.925   4.364 -0.1383 -0.0224 -0.0823
55952W        W98865  28.365   5.380   3.867 -0.0916 -0.0047 -0.0557
55953W        W98866   4.731   5.470   9.953  0.1614 -0.0362 -0.0055
55954W        W98867  29.730  24.627   6.513 -0.1876  0.0947  0.2519
55955W        W98868   1.682   1.388   0.535 -0.0959  0.1557  0.0552
55956W        W98869   0.214  31.125   6.552 -0.1405 -0.1068  0.0133
55957W        W98870  31.009  30.333  25.853 -0.2958 -0.4489  0.3183
55958W        W98871  29.811  23.301   3.357  0.0549 -0.2554 -0.2805
55959W        W98872  25.294  30.616   5.591  0.0712 -0.0404  0.0348
55960W        W98873  24.638  30.291   4.378  0.0469  0.0340  0.0700
55961W        W98874  24.352  23.729  24.740  0.2531  0.2793  0.2565
55962W        W98875  31.913  25.611   8.203  0.0002  0.0823 -0.0784
55963W        W98876   5.053  19.341   1.183  0.0192 -0.0856  0.2920
55964W        W98877  32.137   1.725   9.876  0.0406 -0.0103 -0.1066
55965W        W98878  30.423  11.731   7.288 -0.2428 -0.0709  0.0469
55966W        W98879   0.143  27.605   1.477 -0.1548 -0.3455 -0.0179
55967W        W98880   0.857   3.986  29.413  0.0908  0.1055  0.3329
55968W        W98881   0.743  14.626  26.253  0.0348  0.0822  0.1921
55969W        W98882   3.890  16.367  19.052 -0.0280  0.1532  0.0094
55970W        W98883   1.344  21.336   8.372 -0.0041 -0.0020  0.0488
55971W        W98884  28.024  33.488  26.732 -0.3791  0.0597 -0.1798
55972W        W98885   3.533  20.246  20.180  0.1474  0.0889  0.1069
55973W        W98886  28.753  30.392   9.096  0.1634 -0.4204 -0.2716
55974W        W98887   3.812   7.453   8.421  0.1924  0.0998  0.3120
55975W        W98888   5.393   3.239   5.001  0.0527 -0.0258  0.1856
55976W        W98889   6.731  18.753   8.556  0.0483 -0.0568 -0.4771
55977W        W98890  24.512   1.363  22.211  0.1386  0.0834 -0.2347
55978W        W98891  32.981  22.467   0.702 -0.0578  0.1024 -0.2242
55979W        W98892  25.198  33.183   6.076 -0.0593  0.0644 -0.0723
55980W        W98893   5.586  30.964   1.360 -0.0387 -0.3630  0.0477
55981W        W98894  33.741  22.748   8.718 -0.2146 -0.3333 -0.2721
55982W        W98895   5.086   7.367  28.417  0.0864  0.2395  0.1594
55983W        W98896  33.237   3.822  27.982 -0.1261 -0.1462 -0.1447
55984W        W98897  25.351  31.947   7.746  0.2081 -0.2065 -0.1685
55985W        W98898  29.070   3.361   1.288 -0.1480 -0.1732  0.2002
55986W        W98899  30.609  32.048  27.364 -0.1767 -0.1310  0.2314
55987W        W98900   4.307  26.234  26.520  0.0296 -0.0886 -0.3317
55988W        W98901   2.600  29.641   9.198  0.3559  0.1851 -0.1204
55989W        W98902   5.357  29.045  11.048 -0.0446  0.3089 -0.0384
55990W        W98903   7.422  31.929   2.451  0.2497 -0.0211 -0.0439
55991W        W98904  26.358  24.284   7.311  0.2279  0.1506 -0.2007
55992W        W98905  22.357   7.899  23.458  0.1544 -0.1631 -0.1517
55993W        W98906   4.692  31.066   6.978 -0.3178 -0.2286 -0.6170
55994W        W98907   2.332   4.597  12.528 -0.0239  0.0969 -0.1294
55995W        W98908   9.604  26.016   2.669 -0.1623  0.0363  0.2051
55996W        W98909   7.151  18.829   3.599 -0.0380 -0.1460 -0.0995
55997W        W98910  29.610   0.166   4.157 -0.2848 -0.0946  0.1443
55998W        W98911   0.082   1.412  28.883 -0.0020  0.4098 -0.2843
55999W        W98912   2.458  23.858   5.308  0.0934  0.0945  0.1115
56000W        W98913  29.069   2.522   0.872 -0.5208  0.2247 -0.0122
56001W        W98914  34.471   6.342  17.035  0.0488 -0.1039  0.1634
56002W        W98915   7.549  29.430   1.161  0.1760 -0.0026  0.3517
56003W        W98916   7.908  16.887  24.044 -0.0608 -0.1171  0.1315
56004W        W98917  27.793   7.809  26.319  0.0354  0.3191 -0.2700
56005W        W98918   7.479  33.518  27.472  0.1957  0.3195  0.4168
56006W        W98919   0.755   9.843  28.773  0.1643  0.0321 -0.1357
56007W        W98920  28.058   0.226  29.506  0.2037  0.0616  0.0670
56008W        W98921  24.182   7.063   3.749  0.1642  0.2588 -0.1445
56009W        W98922  33.140  31.740   3.122 -0.0705  0.0674  0.1092
56010W        W98923  33.736   0.238   0.627 -0.2497  0.0740  0.4263
56011W        W98924   5.470   8.158  29.294 -0.0411  0.3267 -0.1431
56012W        W98925  34.171   1.215  28.365 -0.1946  0.0893  0.1749
56013W        W98926  33.727   2.766  20.490  0.0743  0.3469  0.2973
56014W        W98927   2.706  10.059  25.749  0.1101  0.2188 -0.0417
56015W        W98928   6.277  29.915  23.785 -0.2331 -0.1144 -0.0893
56016W        W98929   6.687  26.976  28.160 -0.0502  0.0716 -0.1305
56017W        W98930   2.954  23.988   3.283  0.0021 -0.1746  0.0225
56018W        W98931   0.304   6.355   5.400 -0.0135 -0.1196 -0.1007
56019W        W98932  24.741  24.719  24.023 -0.1605 -0.0176  0.3798
56020W        W98933  29.982   2.929   0.029 -0.0601 -0.5737  0.0682
56021W        W98934   3.951  25.085   1.440 -0.0484  0.0883 -0.2393
56022W        W98935  13.910  12.291   3.100  0.0179 -0.1187 -0.2308
56023W        W98936   4.420  23.764   4.572 -0.0259  0.2118 -0.1168
56024W        W98937   5.071  26.681   5.964 -0.0357 -0.0379 -0.1790
56025W        W98938  25.458  26.897  23.236  0.2034 -0.1837 -0.0034
56026W        W98939   2.579  22.186  25.971 -0.2180 -0.0194  0.1014
56027W        W98940  13.946  24.442  25.047  0.0393 -0.1770 -0.0306
56028W        W98941  33.260  30.407  27.449 -0.0206 -0.0929  0.0393
56029W        W98942  24.248   9.828   9.010 -0.2890  0.2181  0.1822
56030W        W98943  25.651  29.757   1.269  0.0975  0.0885  0.0986
56031W        W98944  31.883  31.528   9.980 -0.2650 -0.1849 -0.1399
56032W        W98945  28.732  24.188  19.101  0.0743  0.1823 -0.1778
56033W        W98946  12.747   4.049  20.341 -0.0829 -0.1435 -0.1768
56034W        W98947   3.914  33.747   8.838 -0.1722  0.1196  0.2011
56035W        W98948  21.112  32.451  27.460 -0.2377 -0.1620 -0.0155
56036W        W98949  29.381  31.503   7.897  0.0621  0.2406 -0.2667
56037W        W98950  31.509  32.316  27.768 -0.2929 -0.1942 -0.2748
56038W        W98951   2.027  26.829   0.901  0.0017 -0.2512 -0.0508
56039W        W98952  30.355  33.211   0.382 -0.0690 -0.0409  0.2515
56040W        W98953  31.547  30.802   0.447 -0.0091  0.1160 -0.0563
56041W        W98954  27.635  33.339  24.301  0.1921  0.1005  0.0647
56042W        W98955  32.395  29.879   0.097 -0.0405 -0.0470 -0.0572
56043W        W98956  34.224  32.641   4.060 -0.2060  0.1124 -0.0938
56044W        W98957   5.492  24.131   7.157 -0.2854  0.1531 -0.2030
56045W        W98958  32.949  19.568  24.301 -0.0843  0.1907  0.0473
56046W        W98959  31.521  26.547  29.456 -0.0444  0.3973  0.1558
56047W        W98960  25.108  22.299  27.541 -0.0983 -0.0355 -0.4179
56048W        W98961   1.131   5.061  20.880  0.1382  0.1716 -0.0299
56049W        W98962   6.662   1.098  10.460  0.0146 -0.0259 -0.1655
56050W        W98963  31.178   2.236  28.827 -0.2737  0.0066  0.1624
56051W        W98964  34.230   0.993  28.810  0.0967  0.2218  0.0569
56052W        W98965  30.575  30.604   8.262  0.0103  0.0799  0.1465
56053W        W98966  34.185  31.374  22.153 -0.1443  0.0486 -0.0317
56054W        W98967  33.885   5.824   4.149  0.2644  0.0561  0.5054
56055W        W98968   8.902  11.511   1.178 -0.1360  0.2260  0.3905
56056W        W98969   1.493  33.982   6.476  0.1662 -0.0296  0.3203
56057W        W98970  29.799  28.153   6.844  0.1283  0.1552  0.0346
56058W        W98971  32.719   0.501   1.582 -0.2092 -0.4965 -0.1919
56059W        W98972  21.285  24.057  28.909 -0.1455  0.2056 -0.2344
56060W        W98973  33.499  20.920   8.749 -0.0385  0.0115 -0.1604
56061W        W98974  34.484  19.064   2.893 -0.4259 -0.0968  0.2842
56062W        W98975  30.837   2.932  20.601  0.1971  0.1248 -0.0159
56063W        W98976  29.578   2.306  24.096 -0.3137 -0.1152 -0.1677
56064W        W98977  33.970   4.240   4.637  0.2511  0.1341 -0.1296
56065W        W98978  34.022  32.224   9.946 -0.0840  0.1178 -0.0104
56066W        W98979   9.773  30.898   4.330 -0.0147  0.1549  0.1725
56067W        W98980   4.017  28.645  25.149  0.3014 -0.1575  0.4219
56068W        W98981  22.215   1.575   3.975 -0.0867  0.2903 -0.1317
56069W        W98982  31.529  28.441   2.684 -0.1490 -0.1355  0.5700
56070W        W98983  31.634  30.762  10.234 -0.6354 -0.0429  0.0233
56071W        W98984   8.425  32.789   3.189 -0.0235  0.0300  0.2282
56072W        W98985   1.705  33.867  25.924 -0.1948  0.1485  0.0568
56073W        W98986  27.184  34.407  10.663  0.0499  0.0136  0.1194
56074W        W98987  28.666  30.544  10.056 -0.0128 -0.0245 -0.0361
56075W        W98988  24.988  22.486   8.016 -0.0961 -0.1994  0.1231
56076W        W98989  32.470   1.561   7.098 -0.1716 -0.2779  0.0110
56077W        W98990   0.712   4.318   5.072 -0.1477 -0.1550  0.0992
56078W        W98991   3.213  24.628   7.860 -0.0278 -0.0812 -0.2376
56079W        W98992   4.460  26.647   7.215 -0.1563  0.0935  0.0910
56080W        W98993  28.245  32.155   2.122  0.2473 -0.2539 -0.1230
56081W        W98994   2.257   6.719   6.931 -0.2139 -0.2729  0.0681
56082W        W98995  28.446  22.086   8.387  0.0776  0.0653  0.2706
56083W        W98996   1.412   0.367   3.098  0.0447 -0.0816  0.1300
56084W        W98997  30.646   8.208   3.803 -0.1677 -0.2012 -0.1567
56085W        W98998   0.831  25.859   5.301 -0.0796 -0.0047 -0.2145
56086W        W98999  31.891  28.423  20.549  0.1354  0.1717  0.1505
56087W        W99000  30.248  27.321  29.696  0.2692 -0.0658 -0.1273
56088W        W99001   0.085   4.440  11.529 -0.1528  0.0290  0.3072
56089W        W99002   2.932   1.177   0.735 -0.0100  0.3213 -0.2533
56090W        W99003  34.319  23.733  28.056  0.1144  0.0119  0.1169
56091W        W99004  20.112  25.553   5.972  0.4520  0.0937 -0.1780
56092W        W99005  29.660  32.990   8.951 -0.1117 -0.1312  0.0640
56093W        W99006   3.175  13.175   9.331 -0.1110  0.0691 -0.0033
56094W        W99007   6.276   7.714   3.069  0.1066  0.1600  0.0333
56095W        W99008  26.610   5.464   5.095  0.2086  0.1835 -0.2177
56096W        W99009   1.337   0.565   7.843 -0.2617 -0.1626  0.1265
56097W        W99010   7.184   3.014  10.902 -0.6082  0.1273 -0.0922
56098W        W99011   9.324   7.236   1.777 -0.1706 -0.0663 -0.0650
56099W        W99012  32.605  30.792   8.463  0.0200 -0.2592 -0.0450
56100W        W99013   7.887  23.032   5.518  0.0660 -0.4630  0.2571
56101W        W99014  26.920  24.682   8.135  0.0886  0.1338 -0.0257
56102W        W99015   1.394  29.885   9.748 -0.0382  0.2031 -0.3186
56103W        W99016  32.326  32.757  28.989 -0.1255  0.0070 -0.0240
56104W        W99017   4.444  32.027   2.992 -0.0439  0.1966  0.2325
56105W        W99018   6.539  29.270   8.109 -0.0496  0.2775 -0.0127
56106W        W99019  27.960  27.787   1.257 -0.1526  0.3698 -0.0352
56107W        W99020  30.466  33.782   6.551 -0.0234 -0.0226 -0.0341
56108W        W99021   6.332  31.579  10.194 -0.0110 -0.2151  0.2281
56109W        W99022   0.154   1.275   3.728  0.0256  0.0766  0.0342
56110W        W99023  32.202  26.685  27.027  0.1277 -0.1764 -0.0430
56111W        W99024  32.383  29.031   5.813 -0.2663  0.0998  0.0247
56112W        W99025  14.548  33.258   6.936  0.1261  0.1637 -0.1254
56113W        W99026  33.584  26.641   6.530  0.4358 -0.3081  0.1053
56114W        W99027  28.127  34.397   4.807 -0.1479 -0.0502  0.0365
56115W        W99028  31.261  30.846   7.360 -0.4338 -0.0517  0.1743
56116W        W99029   6.749  27.273   7.732  0.1005 -0.2273  0.0539
56117W        W99030   1.212   4.902   2.219  0.1606  0.0211 -0.1009
56118W        W99031  30.084   3.772   7.683 -0.1367 -0.2516 -0.2150
56119W        W99032  29.260   3.612  23.307 -0.2330 -0.2439  0.1847
56120W        W99033  28.551  31.229   9.356 -0.0309 -0.2220 -0.0331
56121W        W99034   0.474  32.525  10.242 -0.1986  0.0955 -0.0241
56122W        W99035   6.797  28.247   5.216  0.0804  0.0108  0.0037
56123W        W99036   1.076   5.218   4.125 -0.1036  0.0639 -0.1555
56124W        W99037  32.126  34.197   9.441  0.0714  0.0467 -0.2131
56125W        W99038  33.139  29.998   9.912 -0.2038  0.3771  0.0005
56126W        W99039  28.575   7.331  27.262  0.2080 -0.0159 -0.0342
56127W        W99040   7.489  16.778   5.490  0.1760 -0.0455  0.1817
56128W        W99041  32.320  25.638   6.678 -0.2092  0.2490 -0.1093
56129W        W99042  15.226  28.809  23.318  0.2275 -0.1417  0.0929
56130W        W99043   1.238  33.725   9.857  0.0846  0.1773  0.1854
56131W        W99044   4.505  23.736  10.174 -0.0246 -0.1310 -0.0419
56132W        W99045   4.030  31.661   4.618 -0.1620  0.0932  0.0439
56133W        W99046   7.499  32.475   8.819  0.0397  0.1440 -0.0342
56134W        W99047   6.809  30.731   8.937 -0.3597 -0.4669 -0.0398
56135W        W99048   3.865  19.898   6.467 -0.0284 -0.2747  0.0402
56136W        W99049   2.398  23.709  28.612  0.1083  0.0198  0.1247
56137W        W99050  32.636  33.359   5.549  0.1730  0.2497  0.1644
56138W        W99051  31.308  33.635   0.888  0.2289  0.0413 -0.0975
56139W        W99052  31.646  30.642  27.221  0.0527  0.2800 -0.2780
56140W        W99053  28.669   1.262   1.302  0.0810 -0.0019  0.0212
56141W        W99054  25.220  33.791   8.143  0.0190  0.2625  0.0165
56142W        W99055   3.589  30.488   5.815 -0.5476  0.1199 -0.3048
56143W        W99056  14.939  22.876   3.380 -0.2851  0.0663  0.0757
56144W        W99057  31.019  33.602  11.272  0.0633  0.1522  0.0475
56145W        W99058  27.300  33.425  10.402 -0.0812  0.3375  0.0357
56146W        W99059  10.553  31.210   7.383  0.1010 -0.1850 -0.2266
56147W        W99060  10.848   9.181   9.716  0.4423 -0.0483 -0.3495
56148W        W99061  24.123   2.200   1.960  0.1650  0.3223 -0.1598
56149W        W99062  30.756  34.447  22.322  0.1778 -0.2829  0.1680
56150W        W99063  28.487   7.551   2.011 -0.0135 -0.0157  0.1573
56151W        W99064   1.597  26.913   4.785  0.0319  0.2203  0.4679
56152W        W99065  33.453  21.956  27.352  0.0270 -0.0803 -0.0967
56153W        W99066  10.802   9.465   8.394  0.0353  0.1284  0.2657
56154W        W99067  25.005  32.548  25.460  0.1779 -0.1592 -0.1626
56155W        W99068   1.541  28.104  28.663  0.1745 -0.2925  0.2207
56156W        W99069  32.605  30.995   6.910 -0.0694  0.2362 -0.2783
56157W        W99070   6.999  15.338   5.685  0.0396 -0.1461  0.0069
56158W        W99071  13.067  28.912   4.932 -0.0302 -0.4632  0.3053
56159W        W99072  32.493  28.308   7.063 -0.1581  0.1018 -0.2469
56160W        W99073   3.514  24.625   6.993  0.1257  0.0621 -0.2432
56161W        W99074  23.634  28.229   5.024  0.0985 -0.0463  0.0639
56162W        W99075  28.393  28.951  25.475 -0.2195  0.1246  0.0708
56163W        W99076  29.268   2.397   2.121  0.2218 -0.1449 -0.1480
56164W        W99077  23.189  27.678   1.538 -0.2493 -0.0514 -0.0748
56165W        W99078   3.494  26.860   6.391  0.4152 -0.1677 -0.0381
56166W        W99079  29.664   3.434   9.558 -0.1879  0.0336 -0.2654
56167W        W99080  29.640  25.979   8.126 -0.2564  0.1723  0.1939
56168W        W99081  33.829   8.157   5.675  0.2102 -0.0783  0.0261
56169W        W99082   5.964   9.627  11.576  0.1795  0.1584 -0.2177
56170W        W99083  31.196   4.387   4.123 -0.0109  0.1847  0.0243
56171W        W99084  28.838  26.498  27.366 -0.2187  0.0254  0.0838
56172W        W99085  25.788   9.170   8.643  0.0965  0.2120  0.0165
56173W        W99086   0.012   5.209   0.221 -0.2505  0.2853 -0.0826
56174W        W99087  32.235  27.183  29.147 -0.0574  0.3273 -0.0614
56175W        W99088  27.111  27.342   9.392  0.3805  0.4452 -0.3322
56176W        W99089  33.871  32.563   5.387  0.0518  0.1989 -0.3677
56177W        W99090  28.847  30.860  23.664 -0.0827  0.0175 -0.0569
56178W        W99091  31.802   7.994   9.556 -0.1148 -0.0764  0.0381
56179W        W99092   9.283   2.732   9.291 -0.0266  0.1237 -0.0908
56180W        W99093  28.481   2.485   6.720  0.1420 -0.0204 -0.3735
56181W        W99094   8.457   1.588   6.675  0.1447 -0.2558  0.4935
56182W        W99095  26.669   3.452   2.447  0.2007 -0.0208  0.3261
56183W        W99096   2.971  34.108  29.244 -0.4499 -0.0131 -0.3823
56184W        W99097   4.162  26.742   1.776 -0.0629  0.1814 -0.1695
56185W        W99098  31.760  28.323   5.315 -0.6225  0.1568 -0.0741
56186W        W99099  32.734   2.668   9.584  0.0264 -0.1235  0.0240
56187W        W99100   6.172  28.553  29.282 -0.0917 -0.0092  0.0283
56188W        W99101   5.738  12.786   2.844 -0.1752 -0.2374  0.1059
56189W        W99102  30.223  18.589  23.775 -0.1790  0.1488  0.0916
56190W        W99103  33.975  27.595   9.976 -0.1266  0.2626 -0.0873
56191W        W99104   6.981  12.352   2.761 -0.1153  0.1022 -0.0113
56192W        W99105   4.928  30.913   8.772  0.0778 -0.0819  0.1958
56193W        W99106   0.867  31.747   5.374  0.2199  0.1177  0.1194
56194W        W99107   6.138   9.660   0.890 -0.1845  0.1012 -0.1578
56195W        W99108  17.711   5.859   6.309  0.0768  0.2788 -0.1081
56196W        W99109   1.442  30.675   8.799  0.2370  0.0765 -0.1287
56197W        W99110  32.708  31.005   6.293  0.1604  0.0841 -0.1650
56198W        W99111   0.688  26.402  20.757  0.3727  0.0816  0.1425
56199W        W99112   3.718  31.519   6.906 -0.0895 -0.1619 -0.0627
56200W        W99113  29.128   1.115   9.489  0.0064  0.0328 -0.1021
56201W        W99114  29.862  29.703   4.800 -0.0960 -0.0371 -0.0882
56202W        W99115   0.968   1.223   6.810 -0.0542  0.1033  0.4190
56203W        W99116   6.747   1.228   1.535 -0.0107  0.4163 -0.1601
56204W        W99117  33.203  31.882   0.203  0.2098 -0.0519 -0.1573
56205W        W99118   1.339  24.246   1.213 -0.1006 -0.0093  0.0192
56206W        W99119  15.534  31.821   7.393 -0.0627 -0.2758  0.0143
56207W        W99120  30.695  19.945   0.581  0.1307 -0.4774  0.3999
56208W        W99121   9.293  15.988   7.248  0.1416 -0.1108  0.0394
56209W        W99122   4.557  28.260  27.123 -0.1948  0.1885 -0.0379
56210W        W99123   6.424  29.468   4.558 -0.2310  0.3009  0.1067
56211W        W99124  27.466   4.319   3.968  0.2227  0.2627 -0.2309
56212W        W99125  18.274  25.616  24.444 -0.0135  0.1157  0.4199
56213W        W99126  21.057  28.887   9.448 -0.1099 -0.0510  0.1195
56214W        W99127   1.333  33.857  11.416 -0.1911  0.0842 -0.2037
56215W        W99128   3.412  26.705   0.953 -0.0113 -0.0846 -0.0895
56216W        W99129   0.773   5.071  11.811 -0.1523 -0.1442 -0.0314
56217W        W99130  31.938   7.205   4.709 -0.1410  0.0726  0.0582
56218W        W99131   6.328  26.620   7.283 -0.0722 -0.2528 -0.0673
56219W        W99132   3.555   3.833  12.570 -0.1787  0.2151 -0.3198
56220W        W99133  29.809  26.023   6.530  0.0605  0.1516  0.1579
56221W        W99134   5.010   8.379   9.967 -0.1712  0.0452  0.2890
56222W        W99135   2.219   7.189   4.637  0.0122 -0.1141 -0.3027
56223W        W99136   0.093  32.733  10.690  0.1000  0.2414  0.0700
56224W        W99137  32.358  32.141  28.383  0.1338  0.2419  0.0132
56225W        W99138   5.963  26.321   1.670 -0.1608  0.3049  0.0509
56226W        W99139  23.836   2.048   8.374 -0.0674  0.2284 -0.0790
56227W        W99140   0.757  21.193  28.774 -0.0377  0.1204 -0.2818
56228W        W99141  33.504  29.438   5.743 -0.0161  0.1209  0.2576
56229W        W99142   8.158  32.911   1.574  0.1726 -0.2957  0.1688
56230W        W99143  22.347  27.979   5.029  0.2330  0.1192  0.4852
56231W        W99144   0.803   4.257   0.987 -0.0632  0.1196  0.1692
56232W        W99145   8.199  18.082   1.554  0.0821  0.2277  0.1449
56233W        W99146   7.405  33.907   2.615  0.2565  0.0565  0.0698
56234W        W99147  32.525  27.026   5.871 -0.0775 -0.0133  0.0791
56235W        W99148   9.007  31.582  22.909 -0.1967 -0.1466 -0.3361
56236W        W99149  31.912  34.203  29.006  0.1432  0.0861  0.3734
56237W        W99150  31.002   2.161  23.810 -0.2796  0.1101  0.0526
56238W        W99151   9.936  29.450   5.441 -0.1657 -0.0687 -0.0254
56239W        W99152  30.804   1.734  11.521  0.0443 -0.0798 -0.0080
56240W        W99153   0.476  31.641   3.515 -0.0405 -0.0705  0.3433
56241W        W99154  25.223  32.073   7.281  0.0354 -0.2179  0.0559
56242W        W99155  31.462  31.575   2.047 -0.1343  0.0468 -0.0604
56243W        W99156   0.428  27.816   6.889 -0.1289  0.0575 -0.1498
56244W        W99157  29.962  30.336   7.090  0.2474  0.1342  0.1104
56245W        W99158   2.828   7.030  12.590  0.0220  0.2169  0.0973
56246W        W99159  31.738  18.155   0.098  0.0639 -0.1871 -0.1830
56247W        W99160   2.955  33.175   0.484 -0.2423 -0.0272  0.2363
56248W        W99161  34.220  33.503   5.675 -0.0197 -0.2397 -0.3483
56249W        W99162   0.123   1.569   1.704  0.3134  0.1990  0.1625
56250W        W99163  32.076   7.843   5.887 -0.0952 -0.1625 -0.3797
56251W        W99164   2.531  32.396   0.672 -0.2338  0.1044 -0.0554
56252W        W99165   7.463  29.262  11.075  0.0178 -0.1126  0.3402
56253W        W99166   2.809  29.850   8.279 -0.2794  0.0348  0.0191
56254W        W99167  34.290   9.554   1.459  0.0126  0.1844  0.0939
56255W        W99168   0.288  10.655  26.492 -0.1324 -0.1865  0.2430
56256W        W99169  24.905  29.982   2.494 -0.0007  0.0760 -0.2516
56257W        W99170  32.486   5.641  27.654 -0.1448 -0.0426  0.0812
56258W        W99171  29.448  27.686   2.111  0.0771  0.0927  0.0118
56259W        W99172  25.828   0.715   8.722  0.2210 -0.0350  0.1308
56260W        W99173  33.404  32.754   3.824 -0.3067  0.0434  0.3143
56261W        W99174  24.751  28.355  28.685 -0.0037  0.1209  0.3109
56262W        W99175   4.215  30.755   0.437 -0.4073  0.0142 -0.0137
56263W        W99176  31.489   0.216   2.760  0.0572 -0.1287 -0.0515
56264W        W99177  32.190  29.147   7.758  0.2623  0.1679 -0.1072
56265W        W99178  31.252  26.825   6.092  0.0780  0.1555 -0.1449
56266W        W99179  32.271   6.590  18.376  0.1757  0.1393  0.3321
56267W        W99180   1.042   2.059   2.906  0.4719  0.3505  0.0865
56268W        W99181  32.263  15.928   6.796 -0.0349  0.0956 -0.0982
56269W        W99182   4.987   4.893  26.926 -0.2826 -0.3586  0.1219
56270W        W99183   3.941   7.131   1.871 -0.1451 -0.1419  0.0214
56271W        W99184   2.940   1.683   0.514 -0.3064 -0.3964 -0.3784
56272W        W99185   4.268  27.636   7.207 -0.0867  0.2174 -0.2374
56273W        W99186  33.756  19.135   5.082  0.0308  0.2027 -0.1598
56274W        W99187   4.816  30.166   0.336 -0.1323 -0.0003  0.0205
56275W        W99188  27.905   1.340   4.225 -0.1106 -0.0144 -0.0194
56276W        W99189   9.135  23.189   9.451 -0.2008 -0.4403 -0.0759
56277W        W99190  12.139   2.853   2.481  0.0173  0.1386  0.2265
56278W        W99191  23.204   3.972   0.044 -0.0328 -0.2677 -0.0211
56279W        W99192   6.403  23.550   2.804 -0.5232  0.1647  0.0691
56280W        W99193   0.347  26.470   9.219 -0.0051  0.2280  0.1480
56281W        W99194  33.578  31.964   6.444  0.0178 -0.1113  0.3548
56282W        W99195   2.744  27.926   4.485  0.1981  0.0885  0.2520
56283W        W99196   9.584   1.329  29.202  0.0623 -0.2598  0.1928
56284W        W99197  21.421   2.943  10.144 -0.0584 -0.1818 -0.0367
56285W        W99198  28.570  31.562   7.247  0.1464  0.0670  0.2687
56286W        W99199  10.064   0.623  12.245  0.2404  0.1691 -0.2114
56287W        W99200   2.394  30.491   0.474  0.0171  0.0115  0.0081
56288W        W99201  23.051  26.558  27.140 -0.0484 -0.1179  0.0790
56289W        W99202  33.152  33.741  10.545  0.0031  0.2047 -0.0524
56290W        W99203   3.875  29.075   7.041 -0.2009 -0.0138  0.1870
56291W        W99204   7.774  29.096   6.384 -0.0032 -0.1242 -0.3670
56292W        W99205  30.398  26.500   8.577 -0.2022 -0.1920 -0.0939
56293W        W99206  33.931  30.311   2.787  0.0534  0.1742 -0.3453
56294W        W99207   1.476  29.624   6.585  0.1317 -0.1582  0.2374
56295W        W99208   1.505  31.378   6.813  0.2510  0.2476 -0.0597
56296W        W99209  33.741  22.332   9.900 -0.0161 -0.0287 -0.1424
56297W        W99210  33.715  30.014   8.930 -0.0064 -0.4383  0.2838
56298W        W99211  28.313  27.495   6.039 -0.0852 -0.0245 -0.1107
56299W        W99212  20.167  32.381   2.779 -0.0670 -0.1877 -0.0022
56300W        W99213   6.455  21.862   5.544  0.1190 -0.0640 -0.2763
56301W        W99214  34.248  27.253   0.357 -0.3037  0.0165  0.0464
56302W        W99215   5.405   7.869   7.000  0.0970  0.1832  0.2503
56303W        W99216  32.600  24.973   7.783  0.1373  0.1326  0.2764
56304W        W99217  33.636   9.559   8.941  0.1301 -0.0007 -0.0950
56305W        W99218  33.542   1.037   8.015 -0.0267 -0.0590  0.0917
56306W        W99219  30.050   4.504   9.766 -0.2894  0.0341 -0.2578
56307W        W99220   3.731   4.477   3.448 -0.0479 -0.2246  0.0587
56308W        W99221  22.975  31.679   9.058  0.0760 -0.2232 -0.0658
56309W        W99222   0.867   6.039   6.015 -0.1859 -0.3319  0.0619
56310W        W99223  14.074  33.973  10.000  0.3057  0.3043  0.0873
56311W        W99224  33.690  34.059   7.502 -0.3384  0.0846  0.0672
56312W        W99225   2.407  29.045   6.830  0.0218 -0.1049 -0.1847
56313W        W99226   1.047  30.036   2.267 -0.4787 -0.3233 -0.1226
56314W        W99227   1.109  20.636   9.114 -0.0866 -0.0447  0.0742
56315W        W99228  30.184   4.784   5.247 -0.2542 -0.1345 -0.1821
56316W        W99229  29.138  26.090   5.281 -0.1065  0.0073 -0.1700
56317W        W99230  27.803  28.721   5.741 -0.0470  0.2792  0.0399
56318W        W99231  32.610   5.160   3.281 -0.0634  0.0981  0.0533
56319W        W99232   2.223  30.195  28.174  0.0989  0.2954 -0.2015
56320W        W99233   0.124   3.240   9.573  0.1087 -0.0016  0.1766
56321W        W99234  32.210  24.530   9.285 -0.0553 -0.2122  0.0142
56322W        W99235   0.925   5.910   7.799 -0.0051  0.2130  0.2877
56323W        W99236   4.333  30.669   8.759 -0.1429 -0.3218 -0.0097
56324W        W99237   5.487  29.628   0.202  0.2041 -0.0840 -0.1320
56325W        W99238  32.152   9.426   2.849  0.0071  0.1203 -0.1848
56326W        W99239   5.173  33.634   7.160 -0.0144 -0.0671 -0.1303
56327W        W99240   0.859  20.391   6.662 -0.0501  0.0897  0.1143
56328W        W99241  32.225   3.082  10.999 -0.1025  0.1375 -0.0055
56329W        W99242   4.392  21.858   6.447 -0.1055  0.0316 -0.0429
56330W        W99243   5.140  23.572   1.363  0.4036 -0.0397 -0.2587
56331W        W99244  32.106   8.601   8.726 -0.0523  0.2304 -0.0188
56332W        W99245   7.579  27.854  11.504  0.0161 -0.0007  0.1943
56333W        W99246   6.412   6.245  28.538 -0.0490 -0.1070  0.0532
56334W        W99247  33.010   3.144   3.062 -0.1909  0.1785 -0.0415
56335W        W99248   0.611  32.172   2.587 -0.3437  0.0215  0.2013
56336W        W99249   5.446   3.902  12.167 -0.3825  0.1143 -0.0214
56337W        W99250   5.295   6.824  27.639 -0.0628 -0.0804 -0.2449
56338W        W99251   8.742  31.114   7.231 -0.3654 -0.1600 -0.1432
56339W        W99252   3.576  30.766  25.962 -0.1382  0.0411  0.0460
56340W        W99253  29.795  26.781   3.730  0.3528  0.1406  0.2150
56341W        W99254   7.923  30.002   8.982  0.2566  0.1482  0.1069
56342W        W99255   9.760   7.353   3.710 -0.1293 -0.0357 -0.1563
56343W        W99256   0.522  11.137   6.169  0.0444  0.1438  0.1312
56344W        W99257   2.032  31.599   4.299 -0.0332  0.2184 -0.2136
56345W        W99258  33.512  29.491   0.964 -0.1236  0.4088 -0.3212
56346W        W99259   2.909  33.176   4.557 -0.2080 -0.0330 -0.1667
56347W        W99260  32.659  32.802   4.710  0.0016  0.1014  0.2027
56348W        W99261  31.417   1.069   1.676 -0.0856  0.0181  0.1347
56349W        W99262  28.864  33.666   8.482  0.0760 -0.0054  0.3385
56350W        W99263   4.575  19.840   7.441  0.1116  0.3388  0.1332
56351W        W99264  13.238  33.720  10.402 -0.1843 -0.0975  0.0804
56352W        W99265   6.703  31.181  11.103  0.4254  0.3103  0.0292
56353W        W99266   4.839  12.909   0.034  0.0975 -0.0949 -0.0068
56354W        W99267  25.481  29.528   2.254 -0.3415 -0.1678  0.1431
56355W        W99268   3.572   0.914  27.704 -0.1555 -0.1171 -0.3881
56356W        W99269  25.708  29.897   4.697 -0.0208  0.2487  0.0857
56357W        W99270  28.116  22.985   8.630  0.0278  0.2469 -0.0811
56358W        W99271   6.194  24.462   9.580  0.2531 -0.3674  0.0891
56359W        W99272  23.741  34.081  29.569 -0.0009 -0.0833  0.2081
56360W        W99273  27.220   1.666   8.121  0.0079 -0.1948  0.2337
56361W        W99274   8.060   1.106  12.005 -0.0807  0.0377  0.0590
56362W        W99275   2.260   4.963  10.680 -0.0195  0.2639  0.3505
56363W        W99276   0.024  22.709  29.581  0.0483  0.2888  0.0731
56364W        W99277   7.429  30.478   8.380  0.1291 -0.1352  0.1747
56365W        W99278  29.025  34.281   3.784 -0.2529 -0.1475  0.1081
56366W        W99279   7.145  32.011  11.423 -0.0211 -0.1628 -0.1607
56367W        W99280   6.577  33.910  10.170  0.0520  0.1582 -0.2176
56368W        W99281  29.536  22.616   7.196  0.0871  0.1008 -0.0934
56369W        W99282   1.780  23.163   9.749 -0.1663 -0.0870  0.2885
56370W        W99283   2.351  33.218   6.730 -0.1133 -0.0961 -0.0973
56371W        W99284  12.424  30.199   7.067  0.1934  0.1123  0.0335
56372W        W99285  10.055  21.462   4.397 -0.3963 -0.2253 -0.1840
56373W        W99286   6.196  30.172   6.316  0.1420 -0.1839  0.2803
56374W        W99287  13.234   5.287   2.614 -0.0333  0.0619  0.1548
56375W        W99288   0.384   4.683   4.696 -0.0788  0.1912  0.2011
56376W        W99289  33.471  30.584   1.540 -0.1617 -0.2981  0.1314
56377W        W99290   0.338   1.783  12.415 -0.1223 -0.0836 -0.0236
56378W        W99291  25.115  27.400   3.644  0.4084  0.1943  0.0281
56379W        W99292  28.698  29.821   0.584 -0.0345 -0.0498 -0.2046
56380W        W99293   1.353   3.889   6.847  0.1735 -0.1437 -0.0269
56381W        W99294  32.955   3.075   5.990  0.1409  0.3113 -0.1720
56382W        W99295  30.840   1.772  26.584 -0.0741 -0.2426  0.3405
56383W        W99296  11.439  22.701  26.061 -0.0487  0.0620 -0.3344
56384W        W99297   1.782  29.394  29.716  0.1727  0.1732  0.0430
56385W        W99298  31.042  22.958   4.726  0.2515 -0.1741 -0.1460
56386W        W99299  10.671  34.098   5.803  0.0729 -0.0613  0.4109
56387W        W99300   8.984  28.899   8.664  0.0092  0.1565 -0.0661
56388W        W99301   1.272  24.544   9.250  0.0139  0.0517  0.4514
56389W        W99302   0.284  25.549   4.889 -0.1795 -0.0581  0.1831
56390W        W99303   0.790  25.683   8.134  0.1091 -0.3503 -0.0842
56391W        W99304   6.024  30.883   5.882  0.0276 -0.1723 -0.0777
56392W        W99305   3.969  28.869   5.434 -0.1194  0.2055 -0.0434
56393W        W99306   2.499   1.207   5.932 -0.2568 -0.2056 -0.1019
56394W        W99307  33.701  26.357   7.561  0.1804 -0.1496 -0.1013
56395W        W99308  29.951  30.825   4.651  0.0002 -0.1518 -0.1128
56396W        W99309   8.351   3.264   1.562  0.2219 -0.1176 -0.0097
56397W        W99310  16.014  32.890   9.821 -0.1603 -0.2828 -0.0246
56398W        W99311  22.211   0.776   1.780 -0.0339  0.3586 -0.3614
56399W        W99312  17.818  34.145   5.799  0.0483  0.2596 -0.0473
56400W        W99313  29.656  30.642   9.995 -0.0708  0.2983 -0.0902
56401W        W99314   2.726   0.628   9.122  0.1826  0.1039  0.1629
56402W        W99315   8.227  22.790   9.640  0.2798 -0.0709  0.1658
56403W        W99316   6.237  16.034   7.033 -0.2249  0.0826  0.1073
56404W        W99317  33.191   2.577   9.406 -0.0798  0.0116 -0.1308
56405W        W99318   3.497  31.247   9.996 -0.0040  0.0714 -0.1938
56406W        W99319  32.255  32.897   8.629 -0.0668  0.2061  0.0308
56407W        W99320  32.984   5.229   7.498 -0.2664 -0.2600  0.1106
56408W        W99321  32.238   0.929   8.890 -0.1251  0.0868  0.0156
56409W        W99322  18.150  25.167   1.220  0.0405  0.1676  0.2229
56410W        W99323   5.119  28.861   9.245 -0.3055 -0.4664  0.2394
56411W        W99324  32.721  26.668   6.253  0.1258  0.1352  0.2616
56412W        W99325   9.299   3.313   6.437  0.1645 -0.1077 -0.3413
56413W        W99326  26.287  31.702   7.541  0.1909 -0.0548 -0.0588
56414W        W99327   0.459  31.584   0.344  0.0424 -0.1596 -0.2629
56415W        W99328   6.181  26.170   4.928  0.3460  0.1857  0.2938
56416W        W99329  32.867  30.326   3.732  0.1239 -0.0379 -0.1590
56417W        W99330  33.349  27.703  26.703 -0.0236 -0.0315 -0.2660
56418W        W99331   2.580  22.068   1.109 -0.1067  0.0933 -0.1760
56419W        W99332  31.856   3.278   8.795 -0.0526  0.0766  0.0576
56420W        W99333  31.990  22.689   5.654  0.0493 -0.1497 -0.0203
56421W        W99334  29.069   9.617   9.677 -0.1733  0.0310 -0.0741
56422W        W99335  31.303  33.416   9.004 -0.0942 -0.1816 -0.2125
56423W        W99336  29.124   1.049  28.779 -0.2160 -0.0485 -0.0631
56424W        W99337  10.216  26.431   8.239 -0.0669  0.0014 -0.2373
56425W        W99338  32.461  22.363   2.188 -0.1484 -0.0586 -0.0270
56426W        W99339  28.334   1.311   8.326 -0.0637 -0.3098  0.0977
56427W        W99340  11.787   1.781   1.831  0.2933  0.3041  0.0450
56428W        W99341  24.764   2.863   4.465  0.0559 -0.0445 -0.0944
56429W        W99342   0.047   8.144   8.126  0.2286  0.1745 -0.1772
56430W        W99343  30.994   2.130   8.359  0.1420 -0.2286 -0.1726
56431W        W99344  30.560  32.969  10.635 -0.2602  0.0953  0.2641
56432W        W99345  30.703  29.347   3.048 -0.2478  0.2607  0.2807
56433W        W99346   4.531  34.460  10.655  0.3732 -0.0995  0.0818
56434W        W99347   9.044   3.932   8.686  0.2502  0.0203 -0.4141
56435W        W99348  28.230   9.826   6.119  0.0171 -0.2374  0.1757
56436W        W99349   4.022  26.015   6.539 -0.0703  0.1062 -0.0267
56437W        W99350  29.035  14.111   8.635  0.0277 -0.1695 -0.0590
56438W        W99351  31.272  33.314   9.566  0.1507 -0.1357 -0.4403
56439W        W99352   2.782  26.450   9.702  0.1446 -0.2562 -0.1676
56440W        W99353  33.161   1.934  10.075  0.0243  0.0180  0.0067
56441W        W99354  33.395  33.136   4.154 -0.0801 -0.1931 -0.2861
56442W        W99355   0.817   0.018   7.900  0.5214 -0.2466  0.1710
56443W        W99356   2.419  15.527   4.961 -0.2280  0.2135  0.0594
56444W        W99357  23.514   7.023   7.718 -0.0867  0.0699  0.1120
56445W        W99358   2.175  27.805   9.324 -0.0984 -0.6976  0.2096
56446W        W99359   0.903   3.599   8.256 -0.2816  0.1180  0.0869
56447W        W99360  30.570  32.690   3.051  0.2051  0.1665 -0.2724
56448W        W99361  32.909  28.374   9.536  0.2494  0.0433  0.1284
56449W        W99362  30.954  28.919   7.080 -0.3255 -0.1195  0.1743
56450W        W99363   3.290  23.919   9.697  0.0504  0.0224 -0.0702
56451W        W99364  31.528  32.902   9.738 -0.1279 -0.0126 -0.0192
56452W        W99365  30.975  23.490   5.394 -0.2117  0.2691  0.1160
56453W        W99366  18.907  21.604  29.534 -0.2422 -0.1613  0.1328
56454W        W99367  28.039  29.896   3.413  0.0974 -0.1348 -0.0547
56455W        W99368  33.181  28.174   4.089  0.0475  0.2491  0.1372
56456W        W99369  31.033  24.793   9.608 -0.2456 -0.0344 -0.0328
56457W        W99370  29.372  29.183  28.451 -0.0349 -0.0515  0.1053
56458W        W99371  29.901  24.281   9.272  0.0969  0.1339 -0.0422
56459W        W99372   7.370  29.943   9.087  0.2600  0.0593 -0.1545
56460W        W99373  33.533  32.744   9.408 -0.0487 -0.0405 -0.2537
56461W        W99374  30.733  28.875   8.783 -0.0382 -0.1130  0.0603
56462W        W99375   2.486   0.370   0.912 -0.1048 -0.1662  0.1852
56463W        W99376  29.825  33.904   3.559 -0.1806  0.1338 -0.0008
56464W        W99377  32.737  32.965   3.113  0.1223  0.0336 -0.0993
56465W        W99378   4.118   2.690   7.422  0.0039  0.4255  0.1084
56466W        W99379   5.455  29.464   4.359  0.0520  0.0381 -0.1816
56467W        W99380   5.513   1.671  11.613 -0.1850 -0.0594 -0.1034
56468W        W99381  29.943   0.411   7.494 -0.2085  0.0821  0.1151
56469W        W99382   3.106   0.248  10.040  0.1151  0.1297  0.0609
56470W        W99383  25.205   1.572   9.223  0.1071 -0.1006 -0.0525
56471W        W99384  31.226   7.954   2.958  0.0609 -0.1056  0.2714
56472W        W99385   9.481  33.833  24.191  0.4011  0.3436 -0.2187
56473W        W99386   4.718   6.617  26.061  0.0171  0.1708  0.0173
56474W        W99387   0.298   5.244   6.899 -0.1238 -0.0883 -0.2027
56475W        W99388  30.566   2.944   8.522 -0.2231 -0.2616  0.0783
56476W        W99389  24.345  33.518  29.110 -0.1791  0.2547 -0.0636
56477W        W99390   6.740  33.570   8.851 -0.1471 -0.0910  0.1329
56478W        W99391  30.656   1.440   6.117  0.3016  0.2091 -0.2864
56479W        W99392   2.867  34.055   2.484 -0.1190 -0.0022  0.3701
56480W        W99393  22.158  28.383   4.183  0.0144 -0.1397 -0.1159
56481W        W99394   1.068   7.862   9.025  0.0099  0.1777  0.0808
56482W        W99395  30.084  26.376   3.788 -0.0041  0.2217 -0.4554
56483W        W99396   9.709  30.444  26.702  0.1214 -0.0579 -0.1615
56484W        W99397  30.706  30.543   1.506 -0.1339 -0.1361  0.2674
56485W        W99398  27.013   4.058   8.000  0.0113 -0.3157  0.1538
56486W        W99399  31.883  23.180   6.933 -0.2477  0.0283  0.1039
56487W        W99400  34.012   6.459   0.223 -0.1361  0.1849 -0.0976
56488W        W99401  14.658  33.903  23.592 -0.0719  0.0463  0.0003
56489W        W99402  22.265   1.112   2.595 -0.1491 -0.1220  0.3826
56490W        W99403   4.421   6.548  28.989 -0.0030 -0.1086  0.3826
56491W        W99404  34.093  28.284  28.067 -0.2066 -0.5804 -0.0399
56492W        W99405  29.474  32.752  23.412  0.3060  0.2723 -0.1048
56493W        W99406  32.478   8.489   6.511 -0.1164  0.2758  0.2250
56494W        W99407   3.024   7.122  28.313  0.2159 -0.0810  0.1455
56495W        W99408  32.294   2.010   4.337  0.4494 -0.1649  0.3248
56496W        W99409  26.634  34.198   2.041  0.4004  0.0671 -0.2609
56497W        W99410   8.153  30.909   0.251  0.0783 -0.0930  0.4760
56498W        W99411  32.611  27.605   1.937  0.0230  0.2898  0.0873
56499W        W99412  29.742  33.884   8.357  0.4302 -0.0697  0.2127
56500W        W99413   3.269   2.892  11.787 -0.2802 -0.1029 -0.1485
56501W        W99414   3.786   3.803   9.973 -0.0535 -0.0728  0.0985
56502W        W99415   1.063  28.690   6.442  0.1564  0.0419  0.1284
56503W        W99416  29.038   6.838   8.439 -0.1857 -0.1090  0.2267
56504W        W99417  32.637   4.396  27.997 -0.0026  0.0724  0.1465
56505W        W99418  32.121  18.270  28.957 -0.2133  0.0818  0.0285
56506W        W99419  34.419   2.973   4.217 -0.2074 -0.0616  0.1432
56507W        W99420  25.177  26.474  29.751  0.0829  0.1088 -0.2598
56508W        W99421   0.022  27.256  25.530 -0.1501  0.0006 -0.1183
56509W        W99422   0.373   5.485   0.623  0.0189  0.1669 -0.0307
56510W        W99423  27.542   4.585  26.938 -0.0729  0.1453 -0.3508
56511W        W99424  29.059  25.113   5.933  0.3053  0.0565  0.2113
56512W        W99425  30.341  24.094   8.542  0.0414 -0.0981 -0.0748
56513W        W99426  33.635  10.941   4.410 -0.0538 -0.2621  0.0721
56514W        W99427  25.317  12.716   1.985 -0.2298  0.1232 -0.2229
56515W        W99428  30.632   5.187   5.160  0.2395 -0.2600  0.1869
56516W        W99429   2.193  16.470   3.603  0.0805 -0.0489 -0.0303
56517W        W99430   7.624  30.322   9.351  0.2245 -0.0538 -0.1149
56518W        W99431  30.907  30.299   3.908  0.0122  0.0045 -0.0748
56519W        W99432   2.028   5.494   4.637  0.2846 -0.0047 -0.1478
56520W        W99433  32.504  33.129   9.943  0.0225 -0.0383  0.1055
56521W        W99434   5.250  22.003   8.930 -0.4919 -0.0135  0.3816
56522W        W99435  30.430  33.521   1.650  0.0284 -0.3541  0.1299
56523W        W99436  31.279  11.575   5.792 -0.0359  0.2109 -0.0041
56524W        W99437   1.966  29.416   3.309 -0.0295 -0.0447  0.0554
56525W        W99438  32.743   3.036   5.521  0.2807 -0.0877 -0.2181
56526W        W99439  28.284  26.413   4.399 -0.0904 -0.0144  0.2020
56527W        W99440   3.772  10.710   6.810  0.2795 -0.3336 -0.0001
56528W        W99441   3.345   5.594   5.940 -0.2481  0.0004 -0.2227
56529W        W99442   3.140  25.770   7.732 -0.1516  0.2385 -0.1731
56530W        W99443  26.891  21.824   1.751  0.2437 -0.3769 -0.2206
56531W        W99444  30.801  27.921   1.281  0.0011  0.0085  0.0524
56532W        W99445  17.617  28.069   3.691  0.0680 -0.4928  0.1931
56533W        W99446   7.475  32.416  10.088 -0.2075 -0.1748 -0.2995
56534W        W99447   3.030  20.062  29.008  0.3455  0.0020  0.0660
56535W        W99448  33.667   6.641  10.151 -0.1726 -0.1694 -0.2254
56536W        W99449   8.499   1.047  28.995 -0.2121 -0.1491  0.1422
56537W        W99450  30.168   6.736  28.051 -0.0664  0.0337 -0.0581
56538W        W99451  30.455  27.471  22.317 -0.0988 -0.1922  0.2836
56539W        W99452  28.988   1.754   7.017 -0.0013  0.0547  0.0319
56540W        W99453   0.347   6.673  27.259  0.4071  0.1941  0.3003
56541W        W99454   5.630  28.627  28.416  0.0003 -0.1010  0.1244
56542W        W99455   9.097  26.002   4.794 -0.1538  0.1503 -0.2461
56543W        W99456   2.769   0.324  28.031 -0.2685  0.1375 -0.1331
56544W        W99457   1.494  28.249  27.356 -0.0490 -0.1591 -0.0818
56545W        W99458   7.327  17.744  29.130 -0.2257  0.1195  0.1905
56546W        W99459  30.660  31.870  22.314  0.0692 -0.4192 -0.0061
56547W        W99460  22.316   2.062   0.682 -0.3998  0.1835  0.5340
56548W        W99461  27.996  32.930   1.225 -0.0386 -0.2035 -0.0272
56549W        W99462   7.424   4.732  25.346 -0.1277 -0.0462  0.0776
56550W        W99463   8.248  23.862   8.717  0.1330 -0.1623 -0.1143
56551W        W99464   9.032  32.401  29.343  0.0591  0.1494 -0.1433
56552W        W99465   4.661  32.190  21.477 -0.1041 -0.0297  0.3391
56553W        W99466  31.402   3.446  27.869 -0.0699  0.0635  0.0943
56554W        W99467   5.917   4.540  22.786 -0.0571  0.1184 -0.0676
56555W        W99468   0.298   2.738  20.017  0.0322  0.0692 -0.1041
56556W        W99469  31.999  24.378   4.552 -0.1895 -0.1634  0.0332
56557W        W99470   8.523  30.661   5.978 -0.0879  0.3854 -0.3634
56558W        W99471   3.384   1.330   1.587  0.0784 -0.1372  0.0078
56559W        W99472   7.641  31.703   0.224 -0.0162 -0.0373  0.3134
56560W        W99473   0.986   0.012   9.699  0.0297  0.1960  0.0024
56561W        W99474   1.448  31.524  28.046 -0.0977 -0.0026 -0.2223
56562W        W99475  32.761  31.889   6.801  0.0425 -0.1502 -0.0209
56563W        W99476   5.392   4.086   6.522  0.2369  0.2117  0.3991
56564W        W99477  32.432  12.824  18.166  0.2098 -0.1350 -0.0708
56565W        W99478  13.806  32.494  29.247 -0.2583  0.0374  0.0459
56566W        W99479  12.095   5.214   1.706  0.2416  0.0513  0.2225
56567W        W99480   3.064   9.121  25.676  0.0624  0.4354 -0.0221
56568W        W99481  24.070   2.621  24.481  0.1015 -0.1623  0.0282
56569W        W99482  31.343  17.084   6.231  0.2392 -0.4957 -0.0163
56570W        W99483   0.108   5.653   8.364  0.0355  0.2117  0.0588
56571W        W99484   5.974  19.798   1.199  0.2326 -0.1510 -0.3947
56572W        W99485   8.458  25.707   1.256 -0.0566  0.0125  0.0923
56573W        W99486  31.908  31.724   8.281  0.0775 -0.1601 -0.1457
56574W        W99487  23.085   7.673   3.245 -0.1149  0.0719 -0.1255
56575W        W99488   8.553  33.542   9.612 -0.0845  0.4427  0.0756
56576W        W99489  30.311   8.549   5.632  0.3596 -0.2498 -0.2189
56577W        W99490   6.706   1.359   9.220  0.0540 -0.0975  0.3352
56578W        W99491   2.182  22.364   3.704  0.3877  0.0465 -0.0676
56579W        W99492  28.419  25.243   8.324  0.0185 -0.1948  0.1162
56580W        W99493  29.489  31.301  24.886 -0.0455 -0.0902 -0.2690
56581W        W99494  32.990  15.938   5.804 -0.4792 -0.0601 -0.0329
56582W        W99495   9.042  30.781  25.156 -0.1764  0.0253  0.0494
56583W        W99496  26.979   8.020  18.154  0.2597 -0.1788  0.1120
56584W        W99497   1.200   1.945   0.811  0.0077 -0.0047 -0.0695
56585W        W99498  34.028   2.405  27.595 -0.0245 -0.1109 -0.0206
56586W        W99499   2.469  27.298   1.853 -0.0051 -0.1344 -0.0113
56587W        W99500   5.015  20.754   0.968  0.3763  0.0094 -0.0624
56588W        W99501   3.433  33.217   7.556  0.0065  0.1696 -0.3289
56589W        W99502   2.079  29.597  29.403  0.0739  0.0009 -0.0506
56590W        W99503   6.960   9.000  12.819 -0.0369 -0.1503  0.4486
56591W        W99504   6.344  21.845   7.514  0.2649 -0.1563 -0.3529
56592W        W99505   7.391  32.232   2.057  0.1512 -0.1280 -0.0944
56593W        W99506   4.919   8.136   2.688 -0.1436 -0.1982  0.0253
56594W        W99507  31.312   0.628   3.349 -0.2442  0.2534 -0.0665
56595W        W99508  30.458  14.116   4.703  0.2439  0.2496  0.2295
56596W        W99509   0.679   8.690  10.148 -0.0223  0.1479 -0.2305
56597W        W99510   6.134   9.622   1.846 -0.1034  0.0131 -0.1590
56598W        W99511  21.871   4.472   1.244 -0.2947  0.1090  0.1436
56599W        W99512  28.885   3.102  10.351  0.2255  0.1501  0.2302
56600W        W99513  21.141   3.373   1.167 -0.1511 -0.1346  0.0299
56601W        W99514  30.746   0.349   9.981  0.2349  0.1213 -0.0169
56602W        W99515   5.765   2.979   9.847  0.1151 -0.3364 -0.0251
56603W        W99516  32.324  27.440   6.156  0.1162  0.3357 -0.0642
56604W        W99517  26.056  25.963   0.129  0.2486 -0.6646  0.3333
56605W        W99518   2.352   7.054   1.770 -0.2334 -0.0212 -0.1440
56606W        W99519  10.460  12.860   6.086 -0.0374 -0.0535 -0.4177
56607W        W99520   2.809  26.571   7.224  0.0744 -0.0959  0.0007
56608W        W99521  27.409   3.096  18.295  0.0110  0.2364 -0.0696
56609W        W99522  12.917   4.494  25.626  0.0424 -0.1582 -0.3661
56610W        W99523  27.913   5.334   8.586 -0.0829  0.2326  0.3831
56611W        W99524  33.394   2.995   2.615 -0.0548  0.2301 -0.0388
56612W        W99525  27.853  24.507   9.231 -0.1051  0.0035  0.1942
56613W        W99526   2.443  27.470  25.416 -0.2630 -0.1095 -0.0137
56614W        W99527  33.384   2.106  25.987  0.4117 -0.0147 -0.0860
56615W        W99528   7.304   1.228  12.476  0.2071 -0.0883  0.0284
56616W        W99529   7.215  28.867   9.247 -0.3047 -0.1541  0.2850
56617W        W99530  32.774  25.349   0.477  0.0038 -0.3170 -0.1742
56618W        W99531  27.496  24.077   4.272  0.0304 -0.2726 -0.0797
56619W        W99532   5.681  32.982   2.472 -0.0604  0.0359  0.0229
56620W        W99533   0.423  24.899   6.059 -0.1231  0.2098  0.0859
56621W        W99534  31.767  31.938   4.067 -0.0572  0.0363 -0.1415
56622W        W99535   4.610  11.291   4.947  0.0937  0.0496  0.0395
56623W        W99536  30.832  31.285   8.642  0.2873  0.1407 -0.1180
56624W        W99537   6.766  13.478   3.450  0.0120  0.2040  0.0378
56625W        W99538   3.001   8.614   3.975 -0.0213 -0.1581  0.1292
56626W        W99539  29.567  19.378   8.397 -0.2872  0.1841  0.0289
56627W        W99540  28.888   4.567   2.756  0.1134 -0.0848 -0.2177
56628W        W99541   4.208   6.083   6.959  0.1482  0.3522  0.0305
56629W        W99542   5.082  26.882   5.372  0.0054 -0.0204 -0.0201
56630W        W99543  30.340  28.084   8.285 -0.0573 -0.0735 -0.1453
56631W        W99544  31.470  28.456   8.260  0.2104 -0.0506  0.1529
56632W        W99545  21.264  12.883   2.796  0.1252 -0.5701 -0.0907
56633W        W99546  28.839   5.374  26.892 -0.1792  0.1058  0.4646
56634W        W99547   5.775  30.087   3.391  0.3369  0.1986  0.3287
56635W        W99548  32.628  30.281   7.480  0.2216 -0.0204  0.2950
56636W        W99549  26.120   8.791   5.277  0.0569 -0.0255  0.1328
56637W        W99550  29.891  29.448   2.434 -0.0535 -0.3137 -0.2446
56638W        W99551  30.750  28.658   6.138  0.0007  0.2971 -0.0037
56639W        W99552   1.436  10.365  26.490 -0.0626  0.0924  0.1949
56640W        W99553   0.324  32.067   6.243  0.1090 -0.1695  0.2240
56641W        W99554  33.575  27.337   5.827  0.0001  0.3726 -0.4031
56642W        W99555   1.706  29.875  10.493 -0.1565  0.4502 -0.0628
56643W        W99556  30.854  31.145  28.107  0.2249  0.0982 -0.1163
56644W        W99557  28.369   7.677   5.089  0.3705  0.2293  0.1567
56645W        W99558  30.776   1.821   2.463 -0.2101  0.1036 -0.1104
56646W        W99559  30.737   4.509  10.784 -0.1270  0.0754  0.1013
56647W        W99560   2.870  30.451   0.758  0.3341 -0.2761  0.4008
56648W        W99561   5.324   8.426  12.045 -0.0095 -0.2254  0.1156
56649W        W99562  27.196  31.912   5.047 -0.0221  0.0565 -0.1745
56650W        W99563  11.735  29.979   7.949 -0.0414  0.2058 -0.0129
56651W        W99564  25.637   0.991  10.062 -0.1252 -0.0313  0.0758
56652W        W99565  26.763   3.257   4.003 -0.1636  0.1922  0.0148
56653W        W99566   3.976   2.994  18.081  0.1263  0.0462 -0.0782
56654W        W99567   0.608  29.554   6.579  0.1643  0.2731  0.1282
56655W        W99568   4.676  29.524  10.554 -0.0570 -0.1044  0.0002
56656W        W99569  32.849  28.386   0.670  0.1359 -0.2623  0.3733
56657W        W99570  34.256  32.330   5.151 -0.1877  0.2125 -0.1252
56658W        W99571   0.840  28.082   4.749 -0.1005 -0.0465  0.1555
56659W        W99572   5.316  31.215   8.972  0.0855 -0.0640 -0.0088
56660W        W99573   3.261  30.180   7.588  0.1604  0.0117  0.1877
56661W        W99574   1.795  11.354  25.634 -0.1857  0.0070 -0.1769
56662W        W99575   4.048   1.381   9.466 -0.1695 -0.0131 -0.5289
56663W        W99576   1.022   0.112  26.252 -0.2868 -0.0641  0.3595
56664W        W99577   9.000  23.222   1.295 -0.1749 -0.2884  0.0181
56665W        W99578   8.130  15.874   8.773 -0.0141 -0.1259  0.0153
56666W        W99579  33.538   6.844   6.920  0.1964  0.2564  0.0072
56667W        W99580   2.718  34.263   9.557  0.0747 -0.1515  0.1981
56668W        W99581   3.080   1.378   9.285 -0.2729 -0.0178 -0.1828
56669W        W99582   0.384  14.715  27.162  0.1508 -0.0381  0.0537
56670W        W99583   8.308  27.877   1.336 -0.4994  0.1683  0.1368
56671W        W99584  29.031  25.572   4.238 -0.1474  0.0043  0.1543
56672W        W99585   7.631   6.106  11.971 -0.0083  0.0254 -0.0505
56673W        W99586   6.811   5.914   6.182  0.1163 -0.1837  0.5901
56674W        W99587  30.340  26.083  24.549 -0.0779 -0.0392  0.1452
56675W        W99588   3.967   9.094  10.846 -0.1938 -0.0789  0.1171
56676W        W99589   5.837   6.837   7.938  0.0782  0.1007  0.0909
56677W        W99590   5.006  20.907  29.537  0.0229  0.0801 -0.2845
56678W        W99591  34.065  33.796  21.283  0.2847  0.0758  0.1319
56679W        W99592  30.072  31.684   9.306 -0.4164 -0.0384  0.0127
56680W        W99593   0.272   4.354   3.761 -0.0295 -0.2956  0.1011
56681W        W99594  28.252  29.398   7.382 -0.0958 -0.0057 -0.5019
56682W        W99595   8.791   6.751  12.567  0.1432  0.0912  0.0665
56683W        W99596  33.879  15.496   6.961 -0.0643 -0.2160 -0.2289
56684W        W99597  22.823   5.697   7.932  0.2058  0.2670  0.4151
56685W        W99598   1.917  28.797   5.420 -0.1474 -0.1159  0.1590
56686W        W99599  30.384   7.703  29.301  0.1274 -0.2648  0.1487
56687W        W99600   4.156  33.121   7.015 -0.1103 -0.0498 -0.0645
56688W        W99601  32.158  13.211   9.056 -0.0244  0.1171 -0.0509
56689W        W99602   3.154   2.838   4.911  0.1580  0.2100  0.2208
56690W        W99603   2.701  33.043   4.088  0.1417 -0.0416  0.0264
56691W        W99604   3.785   2.872  11.632 -0.0064  0.1137 -0.0983
56692W        W99605  32.465   6.613   9.976  0.4449 -0.0069 -0.1036
56693W        W99606   0.293  29.932   9.933  0.0894  0.4206  0.1883
56694W        W99607   8.773   2.191  29.360 -0.2397  0.3239  0.0121
56695W        W99608  32.672  31.247  10.288  0.4186  0.2093 -0.3958
56696W        W99609   0.437   2.301   9.346 -0.4325 -0.2489  0.0981
56697W        W99610  31.417   2.090  10.172  0.1332  0.2172  0.0116
56698W        W99611  11.936  28.283   6.494  0.0826  0.1323 -0.2398
56699W        W99612  31.310   3.904   1.053  0.3299 -0.2900  0.1282
56700W        W99613   0.197  30.949   3.055 -0.0499 -0.1564  0.0259
56701W        W99614  27.898  24.617   0.357  0.0407  0.1123 -0.3494
56702W        W99615   1.161  28.852   8.612  0.2781  0.0891  0.0024
56703W        W99616   8.014   7.751   5.682  0.2685  0.0968  0.1589
56704W        W99617  25.930  23.615   0.510 -0.3920  0.0419 -0.1393
56705W        W99618   2.186  26.577  25.058 -0.3266 -0.1120 -0.0299
56706W        W99619   4.018   2.704   1.984 -0.1905  0.3603 -0.0742
56707W        W99620   2.242  31.430  28.205  0.0678 -0.0064 -0.3601
56708W        W99621   7.471   5.625   3.001 -0.2047  0.1742 -0.1194
56709W        W99622  30.891   0.050   1.184  0.2310 -0.1437  0.1862
56710W        W99623  21.682   6.373   6.687 -0.3773 -0.0535  0.2738
56711W        W99624  27.080  29.692   1.280  0.0908 -0.1092 -0.3899
56712W        W99625   2.271   3.958   1.490  0.0105  0.0650 -0.0439
56713W        W99626  32.458  33.137  25.452  0.1027  0.0825 -0.1070
56714W        W99627  23.780  28.524   5.374  0.1112  0.0686 -0.0248
56715W        W99628  24.411   5.674   8.765 -0.1689  0.1915 -0.1165
56716W        W99629   6.876  25.163   5.395  0.3761  0.2510 -0.0620
56717W        W99630   1.465   4.145   9.607  0.3036 -0.0168 -0.1624
56718W        W99631  28.808   0.716   7.105 -0.2933  0.2301  0.0523
56719W        W99632  26.030  13.336   7.804  0.0494 -0.0809 -0.1589
56720W        W99633   5.786  31.977  11.062 -0.1945 -0.1005 -0.2566
56721W        W99634  30.548  26.473   5.619 -0.2790  0.1114  0.0575
56722W        W99635   5.211   2.863   3.592  0.1623  0.0665 -0.2084
56723W        W99636  24.703   3.817   4.573  0.1546 -0.0038  0.3182
56724W        W99637   4.857   1.239  12.893 -0.0216  0.0570 -0.2809
56725W        W99638   7.078   6.657   6.643  0.0413  0.0450  0.1428
56726W        W99639   9.076   1.274  29.145 -0.4345  0.2658 -0.4302
56727W        W99640   5.785   7.997   8.027  0.0875 -0.2154  0.1605
56728W        W99641  28.789   3.359   6.631  0.0820  0.1551 -0.1872
56729W        W99642  24.347   1.104   8.941 -0.1612  0.1877  0.0659
56730W        W99643   7.110  32.593  28.277  0.0628 -0.3733  0.0837
56731W        W99644   4.687  31.851  10.335  0.1172  0.1092 -0.3614
56732W        W99645   0.576   0.235   9.545  0.1169 -0.2562 -0.1902
56733W        W99646  29.622  33.099   9.642  0.1994  0.3500 -0.1885
56734W        W99647   0.371  31.625   5.365  0.1523  0.0793 -0.2637
56735W        W99648  14.182   5.015   2.567 -0.0364  0.2157 -0.0657
56736W        W99649   1.410  32.358   7.150 -0.0439 -0.2146  0.0814
56737W        W99650  29.006   1.107  10.053 -0.4427  0.2133  0.2242
56738W        W99651  25.709   2.716   6.648 -0.2908 -0.0190 -0.2376
56739W        W99652   0.759  31.845   8.569 -0.0546  0.2509 -0.4029
56740W        W99653   1.756  30.336   8.950  0.0966 -0.0093 -0.0000
56741W        W99654   8.449   4.069  29.203 -0.0017 -0.0499  0.1060
56742W        W99655  26.223   2.587   9.524  0.2866  0.1061  0.1557
56743W        W99656   9.341  33.326  10.241  0.1607  0.1390  0.1479
56744W        W99657   9.193  29.209  12.371 -0.0083 -0.1792 -0.1373
56745W        W99658   1.155  30.426   5.689  0.0110  0.2538 -0.0550
56746W        W99659  31.203   7.667   5.034 -0.2819 -0.3162  0.1047
56747W        W99660  31.890  10.356   7.546 -0.0553  0.1732  0.1117
56748W        W99661   0.866   0.786   5.944  0.3463  0.2730 -0.0049
56749W        W99662   2.482  27.200   9.936  0.0497  0.1850  0.1254
56750W        W99663   7.517  33.566  11.763 -0.0136 -0.0738 -0.3616
56751W        W99664   4.570  28.137   6.895 -0.2133  0.0299 -0.1084
56752W        W99665   7.598  31.264  12.756  0.0691  0.1063 -0.0658
56753W        W99666  33.094  29.156   4.051  0.0654  0.0599  0.2020
56754W        W99667  23.560  25.916   3.393 -0.1597  0.0294 -0.0942
56755W        W99668  30.499  25.084   1.178 -0.0754 -0.0607 -0.0566
56756W        W99669  33.350   3.338   6.379 -0.2638  0.0209 -0.0067
56757W        W99670   0.504   1.051   9.110  0.1079 -0.0220 -0.1304
56758W        W99671   0.529   2.213   8.380 -0.0447 -0.1742  0.2366
56759W        W99672  26.210  11.993   3.130  0.2818 -0.0002  0.0510
56760W        W99673  18.971  34.010   7.774 -0.0254 -0.1340 -0.2957
56761W        W99674   1.049   6.664   0.735  0.1408 -0.3054  0.0932
56762W        W99675  33.381  24.020  29.120 -0.0291  0.0572 -0.2752
56763W        W99676  33.404   0.001   6.172  0.0767 -0.1946 -0.2580
56764W        W99677  30.935  30.546   6.703  0.0008 -0.0554  0.2267
56765W        W99678  29.681   5.898   7.758 -0.2488  0.1102 -0.3164
56766W        W99679  25.593   1.259   5.122  0.0841 -0.1630 -0.0615
56767W        W99680  19.485  12.150  29.200  0.0253  0.1624 -0.1381
56768W        W99681  33.057  27.145   2.541 -0.2758 -0.2229  0.0846
56769W        W99682  31.753  33.661   1.309 -0.0227  0.2045  0.3738
56770W        W99683  31.260  30.127  27.223 -0.2932 -0.3648 -0.1590
56771W        W99684  33.713  29.495   4.391  0.0355 -0.0128  0.1951
56772W        W99685   4.565  29.068   4.571 -0.1488  0.0155 -0.2400
56773W        W99686   2.402   1.880  20.868 -0.0876  0.1616 -0.0623
56774W        W99687  30.864   2.812   8.897  0.0646  0.0402  0.3925
56775W        W99688  27.321   5.219  27.272  0.0740  0.2540  0.1149
56776W        W99689   2.849  32.536   4.990 -0.1110  0.1753 -0.1036
56777W        W99690  30.823  26.375  29.012  0.0369  0.1658  0.0026
56778W        W99691  33.389   3.426  11.398  0.0749  0.0925 -0.1253
56779W        W99692  29.430  32.493   4.612 -0.1580 -0.2149 -0.1653
56780W        W99693  32.169   6.909   3.850 -0.1097  0.0230  0.1884
56781W        W99694   3.027  25.100   5.627  0.1172 -0.1516  0.0803
56782W        W99695  29.757  11.601   5.113  0.1548  0.1467  0.1935
56783W        W99696  28.492   7.917  29.737  0.1209 -0.1539 -0.5397
56784W        W99697   3.529   3.517  10.770  0.1317  0.0463 -0.3968
56785W        W99698   2.136   2.511   8.802 -0.1565 -0.2665 -0.0039
56786W        W99699   1.807  24.121   4.523  0.4341 -0.1206 -0.0851
56787W        W99700  11.238   2.727  12.012  0.0617  0.1380  0.1183
56788W        W99701  13.686  34.443   5.996 -0.1709  0.0984 -0.1749
56789W        W99702   6.821  34.107   5.579 -0.0004 -0.2685 -0.2083
56790W        W99703   3.237   0.593  11.330 -0.0375 -0.1081 -0.1413
56791W        W99704   9.044  34.150  13.512  0.1797  0.3884 -0.1273
56792W        W99705   3.056   3.406   4.292  0.1422  0.0057  0.3340
56793W        W99706  31.104  17.503   8.024  0.1375 -0.0840 -0.0411
56794W        W99707  27.149  31.121   7.611 -0.2805 -0.1484  0.0178
56795W        W99708   1.663   7.856  12.888  0.0523  0.0805 -0.2830
56796W        W99709  26.188   5.471   6.198 -0.0175 -0.2681  0.2118
56797W        W99710   7.639  11.203   6.181 -0.0113 -0.0170  0.2077
56798W        W99711  32.269   4.233   9.397 -0.1577  0.3375 -0.0100
56799W        W99712  29.446  34.339  10.979  0.0652 -0.1236 -0.2987
56800W        W99713  34.224  30.493   0.339 -0.0483  0.0021 -0.1152
56801W        W99714  24.670   4.020   5.037  0.2698 -0.0407 -0.1303
56802W        W99715  31.420  32.876   9.270  0.2175 -0.2685  0.0125
56803W        W99716  31.270   4.328   9.467 -0.0331  0.0773  0.2349
56804W        W99717   7.516  31.435   4.597  0.2969  0.2663  0.1033
56805W        W99718  29.261  34.041   7.189 -0.0920 -0.1829 -0.0240
56806W        W99719   0.621   2.873   7.590  0.0445 -0.1824 -0.0748
56807W        W99720   5.367   0.369   9.344  0.0766 -0.1575  0.1240
56808W        W99721   3.022   6.904   6.468 -0.0054  0.1197  0.1144
56809W        W99722  29.227  26.066   5.771  0.2714 -0.0677 -0.1610
56810W        W99723   6.411   2.718   5.978  0.0881 -0.1505  0.0185
56811W        W99724   0.491   2.064  27.916  0.0411 -0.3031  0.0706
56812W        W99725  27.992  24.001   7.821  0.1094  0.0685 -0.2326
  34.49568  34.49568  29.78077
